G2Pncore-PETIM in water
205071
    1aaa     N1    1   4.876   5.003   6.998 -0.0451 -0.7927 -0.0278
    1aaa     C1    2   4.857   4.942   7.142 -1.1804 -0.1033  0.3384
    1aaa     H1    3   4.856   5.029   7.208 -2.3190  0.0708  0.1241
    1aaa     H2    4   4.762   4.888   7.153 -1.1928  0.1530  1.6259
    1aaa     C2    5   4.884   4.888   6.892  0.3463 -0.3973  0.1976
    1aaa     H3    6   4.949   4.810   6.933  0.5469  0.6393  1.9662
    1aaa     H4    7   4.783   4.846   6.886  1.2438 -2.7893  0.5465
    1aaa     C3    8   4.769   5.100   6.958 -0.0887 -0.1798  0.1523
    1aaa     H5    9   4.776   5.123   6.851 -3.0514 -1.8994 -0.5228
    1aaa     H6   10   4.674   5.046   6.961 -0.4279  0.2631 -1.6233
    1aaa     C4   11   4.762   5.237   7.030  0.2862  0.5731  0.9196
    1aaa     H7   12   4.683   5.298   6.983  0.9542  0.1438 -0.8247
    1aaa     H8   13   4.740   5.230   7.137  0.7874  1.9605  1.1402
    1aaa     C5   14   4.965   4.838   7.184  0.6163 -0.7684 -0.2726
    1aaa     H9   15   4.947   4.744   7.130 -0.0839  0.2940 -1.9822
    1aaa    H10   16   5.062   4.884   7.161 -0.0629  1.2656  0.7357
    1aaa     C6   17   4.922   4.928   6.748 -0.3966 -0.3528 -0.3885
    1aaa    H11   18   4.843   4.989   6.702  0.9500 -0.2509 -2.6767
    1aaa    H12   19   5.011   4.990   6.762 -0.1341 -0.5589 -1.1145
    1aaa     C7   20   4.945   4.800   6.665  0.3467 -0.8809 -0.5023
    1aaa    H13   21   5.043   4.764   6.697 -0.8114 -2.8282  1.0728
    1aaa    H14   22   4.881   4.713   6.685  0.0269 -1.3255 -3.0956
    1aaa     C8   23   4.898   5.316   7.003 -0.3420  0.2348  0.0663
    1aaa    H15   24   4.977   5.268   7.063  0.8849  1.2755 -0.6624
    1aaa    H16   25   4.922   5.299   6.897 -2.8114 -3.7277 -0.0609
    1aaa     C9   26   4.966   4.821   7.341 -0.5358  0.3264 -0.3263
    1aaa    H17   27   4.976   4.921   7.383 -1.1360  1.6011 -2.9938
    1aaa    H18   28   4.879   4.777   7.392 -0.0316  0.0730  0.3361
    1aaa    H19   29   4.967   5.052   6.997 -0.3167 -0.0489  2.8698
    2bbb     N1   30   4.912   4.621   6.073  0.2745  0.0328 -0.0899
    2bbb     C1   31   4.949   4.491   6.003 -0.0214  0.2734 -0.3034
    2bbb     H1   32   4.910   4.488   5.901 -0.0849 -0.8970 -0.2564
    2bbb     H2   33   4.905   4.413   6.066  0.1411  1.4100  1.2774
    2bbb     C2   34   4.763   4.648   6.037 -0.2038 -0.1103 -0.4279
    2bbb     H3   35   4.740   4.720   6.115  0.3091 -2.6276  2.2349
    2bbb     H4   36   4.707   4.556   6.054 -0.1889  0.0054  0.2402
    2bbb     C3   37   4.940   4.600   6.214 -0.5272 -0.2713  0.2678
    2bbb     H5   38   5.045   4.571   6.222 -0.2936  0.8547  1.7911
    2bbb     H6   39   4.873   4.522   6.251  0.0690 -1.1253 -0.4134
    2bbb     C4   40   4.910   4.729   6.302 -0.2876 -0.1215  0.0440
    2bbb     H7   41   4.800   4.733   6.303 -0.3079  1.0599 -1.7043
    2bbb     H8   42   4.948   4.816   6.247 -0.8172 -0.7360 -1.3560
    2bbb     C5   43   5.097   4.456   5.977 -0.5020 -0.0244 -0.1688
    2bbb     H9   44   5.150   4.478   6.071 -0.7711  0.7355 -0.1895
    2bbb    H10   45   5.132   4.519   5.894 -0.3082 -0.4774 -0.4404
    2bbb     C6   46   4.737   4.704   5.896  0.0262  0.0975 -0.3145
    2bbb    H11   47   4.776   4.639   5.817 -0.8047 -0.1327 -0.5399
    2bbb    H12   48   4.791   4.799   5.888  1.1922 -0.5529 -0.4825
    2bbb     C7   49   4.967   4.713   6.444  0.0735  0.3391  0.2386
    2bbb    H13   50   5.075   4.695   6.449 -0.4227 -3.4216  0.4597
    2bbb    H14   51   4.927   4.619   6.486  1.1139 -0.1297  0.2016
    2bbb     C8   52   4.588   4.725   5.880 -0.3210 -0.8822  0.4282
    2bbb    H15   53   4.535   4.648   5.937  0.9055 -2.6905 -0.7595
    2bbb    H16   54   4.560   4.825   5.917 -3.9058 -1.6485  0.1299
    2bbb     C9   55   5.109   4.305   5.938 -0.3571 -0.2491  0.1966
    2bbb    H17   56   5.055   4.239   6.007  1.1999 -0.1100  1.6160
    2bbb    H18   57   5.215   4.277   5.940 -0.7864 -2.3835 -2.3296
    2bbb     O1   58   4.936   4.825   6.526 -0.4870  0.2944  0.3793
    2bbb    H19   59   4.982   4.687   6.037  0.8654  0.6270  1.9798
    3bbb     N1   60   4.840   5.894   7.078  0.0494  0.1521  0.0371
    3bbb     C1   61   4.863   6.000   6.969  0.3303  0.3615 -0.7731
    3bbb     H1   62   4.805   6.089   6.992  2.2207  1.2283  0.8225
    3bbb     H2   63   4.812   5.970   6.877 -0.2753  3.0571 -1.3942
    3bbb     C2   64   4.697   5.884   7.119  0.0882  1.0001 -0.2785
    3bbb     H3   65   4.678   5.784   7.158 -0.9038  1.2209 -0.1631
    3bbb     H4   66   4.632   5.898   7.033 -0.7191 -0.5076  0.0498
    3bbb     C3   67   4.865   5.759   7.017 -0.2407  0.4022 -0.5606
    3bbb     H5   68   4.869   5.762   6.908  0.5156 -0.0504 -0.5542
    3bbb     H6   69   4.776   5.698   7.033  0.0234  0.4605  1.3454
    3bbb     C4   70   4.981   5.676   7.063 -0.7595 -0.6076  0.3793
    3bbb     H7   71   4.968   5.670   7.172  2.0062 -1.4448  0.7461
    3bbb     H8   72   5.073   5.734   7.050 -1.3977  0.1539 -0.8568
    3bbb     C5   73   5.017   6.029   6.945 -0.2111 -0.4148 -0.4304
    3bbb     H9   74   5.066   5.938   6.910 -1.7565 -1.1909 -0.6712
    3bbb    H10   75   5.069   6.073   7.031  0.6286 -1.3545 -0.4432
    3bbb     C6   76   4.657   5.996   7.221  0.2841  0.2308  0.5857
    3bbb    H11   77   4.654   6.091   7.167 -1.3596 -1.6699 -2.9693
    3bbb    H12   78   4.722   6.007   7.309  1.2475 -0.4421 -0.0330
    3bbb     C7   79   4.993   5.533   6.996  0.1653 -0.0982 -0.9602
    3bbb    H13   80   5.085   5.484   7.031  1.7070  0.6735 -3.6495
    3bbb    H14   81   5.011   5.530   6.888  0.4351 -1.3493 -0.9054
    3bbb     C8   82   4.517   5.972   7.276  0.2772  0.2017 -0.3526
    3bbb    H15   83   4.447   5.958   7.193 -0.3597  0.1068  0.1931
    3bbb    H16   84   4.514   5.885   7.343  1.7776  1.2777  1.2064
    3bbb     C9   85   5.027   6.133   6.829 -0.6118 -0.3108  0.1988
    3bbb    H17   86   4.957   6.216   6.844  0.6937  0.5964  1.5182
    3bbb    H18   87   5.012   6.092   6.728  1.8712  1.6595 -1.0807
    3bbb     O1   88   4.877   5.458   7.030  0.2061  0.5749 -0.6215
    3bbb    H19   89   4.905   5.913   7.155 -0.3644  2.5310 -0.1280
    4bbb     N1   90   5.250   4.570   7.781 -0.8449 -0.2132 -0.2538
    4bbb     C1   91   5.305   4.587   7.922  0.3012  0.4280  0.3578
    4bbb     H1   92   5.263   4.502   7.976 -1.2843  0.4204 -0.8319
    4bbb     H2   93   5.277   4.682   7.969 -2.1739 -0.6056  1.1350
    4bbb     C2   94   5.097   4.537   7.787  0.1598  0.0656 -0.5352
    4bbb     H3   95   5.053   4.528   7.687 -1.6634  1.4340  0.0842
    4bbb     H4   96   5.054   4.623   7.839  4.1323  1.9106  0.0817
    4bbb     C3   97   5.288   4.693   7.694 -0.1825 -0.1028  0.5059
    4bbb     H5   98   5.397   4.697   7.694 -0.0641 -1.9515 -0.8002
    4bbb     H6   99   5.245   4.784   7.736 -2.2365  0.1568 -1.8920
    4bbb     C4  100   5.257   4.685   7.540  0.1203 -0.0556  0.5952
    4bbb     H7  101   5.269   4.582   7.504  0.2556  0.2400 -0.2383
    4bbb     H8  102   5.323   4.756   7.490  0.3937 -0.4647  0.3686
    4bbb     C5  103   5.452   4.570   7.938 -0.4459  0.0240 -0.5318
    4bbb     H9  104   5.507   4.648   7.884 -0.0386 -2.0862 -3.4515
    4bbb    H10  105   5.488   4.480   7.886  3.0843  1.5625 -1.0663
    4bbb     C6  106   5.065   4.406   7.853 -0.2036  0.2497 -0.5634
    4bbb    H11  107   5.110   4.386   7.951  0.3291 -2.8512 -1.3395
    4bbb    H12  108   5.109   4.321   7.799  1.7630  0.1272  1.1386
    4bbb     C7  109   5.114   4.738   7.516 -0.6936 -0.4891 -0.5750
    4bbb    H13  110   5.098   4.828   7.576 -1.0354 -0.2197 -1.0577
    4bbb    H14  111   5.041   4.668   7.558  1.1656 -2.6642 -0.8025
    4bbb     C8  112   4.909   4.381   7.859 -0.5283  0.3392  0.3934
    4bbb    H15  113   4.865   4.468   7.910 -0.7160  0.2077  0.4564
    4bbb    H16  114   4.866   4.364   7.760  1.4449  2.7185 -0.9779
    4bbb     C9  115   5.495   4.569   8.089  0.1287  0.4782 -0.3696
    4bbb    H17  116   5.438   4.647   8.142  1.4770  1.1931  0.0728
    4bbb    H18  117   5.601   4.596   8.100  0.2230 -0.0239 -0.0028
    4bbb     O1  118   5.092   4.755   7.376  0.1721  0.4427  0.4303
    4bbb    H19  119   5.297   4.490   7.737 -1.2865 -0.8096  0.3403
    5bbb     N1  120   4.200   4.586   5.416  0.1778  0.4164  0.2417
    5bbb     C1  121   4.057   4.538   5.435  0.1121 -0.7192  0.4198
    5bbb     H1  122   4.064   4.473   5.522  3.7558 -2.2275 -0.8109
    5bbb     H2  123   4.033   4.473   5.351  1.8998 -0.4878 -0.3144
    5bbb     C2  124   4.221   4.651   5.281 -0.4173 -0.0347 -0.8911
    5bbb     H3  125   4.324   4.684   5.291 -1.3157  2.4543  1.2413
    5bbb     H4  126   4.165   4.745   5.282  0.9550  0.8015  0.7380
    5bbb     C3  127   4.237   4.681   5.530 -0.2238 -0.9247 -0.3066
    5bbb     H5  128   4.181   4.654   5.619  2.3340 -0.1431  1.6786
    5bbb     H6  129   4.196   4.781   5.512 -0.1955 -1.1590 -1.8559
    5bbb     C4  130   4.390   4.673   5.564  0.8528  0.4466 -0.4767
    5bbb     H7  131   4.444   4.739   5.495 -0.4358  1.9026 -0.1499
    5bbb     H8  132   4.422   4.569   5.554 -2.2771 -0.8922  1.8898
    5bbb     C5  133   3.938   4.639   5.443  0.4036 -0.2919 -0.3838
    5bbb     H9  134   3.928   4.712   5.362  0.3825  0.3880  0.2269
    5bbb    H10  135   3.939   4.698   5.535 -0.4111 -0.2943 -0.3651
    5bbb     C6  136   4.203   4.567   5.145 -0.3708 -0.0434 -0.0194
    5bbb    H11  137   4.097   4.549   5.125 -0.5969  2.5258 -1.7017
    5bbb    H12  138   4.243   4.466   5.159 -1.8531 -0.5926  0.4124
    5bbb     C7  139   4.408   4.716   5.715  0.5951  0.1809  0.3021
    5bbb    H13  140   4.356   4.654   5.790  0.9052  1.5725  1.7131
    5bbb    H14  141   4.364   4.816   5.719  1.1523  0.4130  0.9762
    5bbb     C8  142   4.259   4.639   5.021  0.3248 -0.1376 -0.2253
    5bbb    H15  143   4.227   4.744   5.029 -0.2536 -0.3103 -0.2719
    5bbb    H16  144   4.368   4.633   5.031  0.2756  1.7687  2.4518
    5bbb     C9  145   3.801   4.563   5.466  0.0653  0.5281  0.1375
    5bbb    H17  146   3.819   4.476   5.530  2.3823  0.5818 -0.3595
    5bbb    H18  147   3.776   4.533   5.364  1.5930 -0.7944  0.1025
    5bbb     O1  148   4.550   4.706   5.743 -0.1449  0.0156 -0.5268
    5bbb    H19  149   4.258   4.501   5.422  0.2289  0.2256 -2.0165
    6bbb     N1  150   5.370   4.030   5.520  0.3540 -0.1609  0.0644
    6bbb     C1  151   5.416   3.891   5.501 -1.2757  0.0870  0.1195
    6bbb     H1  152   5.391   3.834   5.591 -1.8968 -1.1213 -0.7849
    6bbb     H2  153   5.524   3.905   5.505 -1.5510  2.2783  2.1209
    6bbb     C2  154   5.366   4.111   5.391 -0.5764 -0.2139  0.1831
    6bbb     H3  155   5.322   4.210   5.408 -1.5574 -0.6091  0.0006
    6bbb     H4  156   5.301   4.061   5.319 -0.2930 -0.1776 -0.0966
    6bbb     C3  157   5.232   4.024   5.585  0.4670 -0.1439  0.3758
    6bbb     H5  158   5.217   3.932   5.643  0.2219  0.2710  0.9843
    6bbb     H6  159   5.155   4.022   5.508  0.3186  0.7653  0.4880
    6bbb     C4  160   5.216   4.146   5.683  0.2144  0.9604 -0.1702
    6bbb     H7  161   5.255   4.239   5.640 -0.7326  0.7665 -1.5077
    6bbb     H8  162   5.281   4.127   5.769  0.7620  0.1385 -0.7501
    6bbb     C5  163   5.377   3.807   5.378  1.1559  0.1507 -0.6571
    6bbb     H9  164   5.398   3.869   5.290 -1.6152  0.7812 -0.9858
    6bbb    H10  165   5.268   3.801   5.392  1.1772  0.4720 -0.3267
    6bbb     C6  166   5.503   4.132   5.327  0.6046  0.3522  0.1417
    6bbb    H11  167   5.555   4.039   5.304  1.8326  1.1615 -0.4434
    6bbb    H12  168   5.571   4.188   5.394  1.0255  0.9700 -0.7752
    6bbb     C7  169   5.068   4.164   5.730 -0.1551 -0.6955  0.0179
    6bbb    H13  170   5.027   4.087   5.796 -0.5464 -0.8817 -0.4387
    6bbb    H14  171   5.009   4.165   5.638 -0.1650  3.2402 -0.1265
    6bbb     C8  172   5.492   4.220   5.200 -0.8476  0.2097  0.1391
    6bbb    H15  173   5.418   4.179   5.130  1.6428 -1.3614 -1.7557
    6bbb    H16  174   5.463   4.317   5.241 -1.0908  0.4039 -0.4883
    6bbb     C9  175   5.426   3.662   5.378 -0.1957  0.0542  0.0420
    6bbb    H17  176   5.374   3.601   5.452  1.4891 -2.6521 -0.8317
    6bbb    H18  177   5.533   3.647   5.395 -0.1158 -0.9208 -1.1923
    6bbb     O1  178   5.056   4.296   5.797  0.0500 -0.1731 -0.4880
    6bbb    H19  179   5.440   4.083   5.574  0.6282 -0.6436  0.1939
    7bbb     N1  180   4.190   6.397   7.534 -0.5335  0.4689 -0.0866
    7bbb     C1  181   4.158   6.517   7.436  0.0122  0.4173  0.0682
    7bbb     H1  182   4.247   6.545   7.381  0.7368  1.0407  1.5037
    7bbb     H2  183   4.135   6.604   7.497 -0.9084 -0.9537  1.7926
    7bbb     C2  184   4.082   6.360   7.635 -0.5510  0.6087 -0.2310
    7bbb     H3  185   4.143   6.290   7.693 -0.1245 -0.5236 -1.9667
    7bbb     H4  186   4.011   6.300   7.579  1.8458 -1.0958 -1.6480
    7bbb     C3  187   4.226   6.279   7.445  0.2008 -0.5970  0.5541
    7bbb     H5  188   4.310   6.319   7.388 -1.0673  0.2708 -0.7707
    7bbb     H6  189   4.140   6.260   7.380  1.0563  0.0741 -0.8358
    7bbb     C4  190   4.278   6.149   7.513 -0.3267 -0.1299  0.0156
    7bbb     H7  191   4.198   6.097   7.567  0.4629 -1.6818 -0.2499
    7bbb     H8  192   4.355   6.173   7.588  1.1301  0.3427 -1.5728
    7bbb     C5  193   4.047   6.504   7.336  0.0059  0.2923  1.1885
    7bbb     H9  194   3.950   6.499   7.387  0.2358  1.6826  1.7884
    7bbb    H10  195   4.043   6.412   7.275 -0.6129  1.0197  0.0884
    7bbb     C6  196   4.022   6.475   7.721 -0.4155 -0.2213  0.4249
    7bbb    H11  197   3.987   6.550   7.649  0.4217  0.1635  0.4019
    7bbb    H12  198   4.103   6.522   7.779 -0.0452  2.4114 -2.0017
    7bbb     C7  199   4.344   6.042   7.420 -0.7144 -0.2143  1.0200
    7bbb    H13  200   4.276   6.028   7.335 -0.1575 -1.3469  0.7526
    7bbb    H14  201   4.365   5.955   7.483  1.4544  0.9677  2.0659
    7bbb     C8  202   3.903   6.424   7.817 -0.9867 -0.3290 -0.7989
    7bbb    H15  203   3.824   6.379   7.755 -1.9780  0.3248 -0.0304
    7bbb    H16  204   3.949   6.358   7.892  0.0034  1.4073  0.1795
    7bbb     C9  205   4.049   6.632   7.257 -0.6712 -0.5215  0.3475
    7bbb    H17  206   3.987   6.622   7.167 -0.3441 -2.8951  0.3061
    7bbb    H18  207   4.149   6.656   7.218 -1.1873 -0.2272 -0.8458
    7bbb     O1  208   4.470   6.087   7.353 -0.5356 -0.4256  0.0143
    7bbb    H19  209   4.273   6.439   7.579 -1.4747  1.7412  0.5275
    8bbb     N1  210   5.447   6.580   6.708  0.1091  0.0142  0.2655
    8bbb     C1  211   5.447   6.715   6.642 -0.4933 -0.1545 -0.0686
    8bbb     H1  212   5.541   6.762   6.671 -0.9226  0.4270  0.4231
    8bbb     H2  213   5.373   6.784   6.685 -1.3728 -0.9859 -0.2192
    8bbb     C2  214   5.505   6.589   6.851 -0.3854 -0.6099  0.3294
    8bbb     H3  215   5.484   6.500   6.910 -3.1429 -1.4637 -1.7414
    8bbb     H4  216   5.459   6.673   6.903  0.0432 -0.3823  0.3484
    8bbb     C3  217   5.307   6.525   6.722 -0.0593 -0.5830 -0.1903
    8bbb     H5  218   5.267   6.520   6.621  1.5020 -0.7487 -0.8337
    8bbb     H6  219   5.238   6.584   6.783  0.4737  0.1099 -0.2487
    8bbb     C4  220   5.305   6.389   6.787  0.0626  1.0510  0.2954
    8bbb     H7  221   5.311   6.394   6.896  2.4226  3.0368  0.1691
    8bbb     H8  222   5.386   6.322   6.757 -2.6552 -2.1487 -0.5518
    8bbb     C5  223   5.435   6.729   6.490 -0.3217  0.7958 -0.1638
    8bbb     H9  224   5.345   6.679   6.453  0.5244 -1.9176  1.1644
    8bbb    H10  225   5.515   6.670   6.443 -0.5951 -0.0428  0.3907
    8bbb     C6  226   5.658   6.618   6.873 -0.5682  0.3256 -0.0955
    8bbb    H11  227   5.686   6.696   6.801 -0.9177  1.3630  0.8624
    8bbb    H12  228   5.717   6.528   6.854 -0.7764 -0.4178  2.4051
    8bbb     C7  229   5.172   6.314   6.754 -0.3456  0.4464  0.4464
    8bbb    H13  230   5.156   6.298   6.647 -0.6093 -0.0392  0.5530
    8bbb    H14  231   5.090   6.375   6.795 -1.9904 -1.0461 -0.4867
    8bbb     C8  232   5.689   6.679   7.014 -0.3698 -0.8057  0.2288
    8bbb    H15  233   5.627   6.769   7.022  0.7537  0.0793 -0.7366
    8bbb    H16  234   5.646   6.602   7.079  0.2086  0.1855  1.8301
    8bbb     C9  235   5.427   6.881   6.452 -0.0971 -0.7100  0.1448
    8bbb    H17  236   5.326   6.914   6.476 -0.5746 -0.3125 -2.1648
    8bbb    H18  237   5.446   6.896   6.345  0.5075 -0.5446  0.2708
    8bbb     O1  238   5.155   6.191   6.834 -0.3527 -0.2977  0.3315
    8bbb    H19  239   5.498   6.523   6.638  0.1872  0.8145 -0.3458
    9bbb     N1  240   4.570   3.909   8.139  0.2301 -0.2874  0.3251
    9bbb     C1  241   4.426   3.883   8.177 -0.0298 -0.1702  0.6318
    9bbb     H1  242   4.403   3.779   8.199  0.8842 -0.3643  0.7083
    9bbb     H2  243   4.365   3.902   8.088 -2.2330  1.3311  2.3250
    9bbb     C2  244   4.614   3.798   8.047 -0.2890 -0.0690  0.1941
    9bbb     H3  245   4.704   3.818   7.989 -0.9444 -0.0779 -0.8528
    9bbb     H4  246   4.529   3.783   7.980 -1.4803 -2.1552  2.0187
    9bbb     C3  247   4.584   4.044   8.071 -0.5777 -0.2323  0.5965
    9bbb     H5  248   4.528   4.121   8.124 -1.3695 -0.5430  0.2264
    9bbb     H6  249   4.539   4.031   7.973 -0.1392  0.3883  0.3085
    9bbb     C4  250   4.725   4.094   8.054 -0.6400  0.5333 -0.1677
    9bbb     H7  251   4.792   4.017   8.013  1.6229  0.3674  3.3778
    9bbb     H8  252   4.776   4.116   8.148  3.2355  0.5786 -2.0830
    9bbb     C5  253   4.356   3.959   8.293  0.5344  0.3809  0.0050
    9bbb     H9  254   4.248   3.940   8.285  0.7009 -0.2511 -0.8542
    9bbb    H10  255   4.383   4.065   8.287  1.3415  0.2742  1.2717
    9bbb     C6  256   4.653   3.663   8.107  0.8312 -0.1859 -0.4969
    9bbb    H11  257   4.586   3.639   8.191  0.0774 -1.0500 -1.3285
    9bbb    H12  258   4.751   3.677   8.153  0.3855  1.4891  0.0284
    9bbb     C7  259   4.747   4.219   7.954  0.3274 -0.6727  0.0732
    9bbb    H13  260   4.682   4.299   7.992  0.2185 -0.6006 -0.2568
    9bbb    H14  261   4.720   4.182   7.854 -0.3517 -2.8420  1.0114
    9bbb     C8  262   4.655   3.547   8.005 -0.3739  0.5390 -0.7306
    9bbb    H15  263   4.553   3.524   7.972 -1.9903  3.4247  1.8299
    9bbb    H16  264   4.706   3.578   7.912 -1.4588  0.0745 -1.5025
    9bbb     C9  265   4.389   3.898   8.431  0.0291 -0.2912  0.9378
    9bbb    H17  266   4.356   3.950   8.522 -0.9308  1.0633 -0.1460
    9bbb    H18  267   4.498   3.902   8.438  0.1665 -2.4911  0.7684
    9bbb     O1  268   4.885   4.266   7.950  0.7959 -0.5780  0.1840
    9bbb    H19  269   4.614   3.902   8.232 -3.5274 -2.0530  2.1712
   10bbb     N1  270   5.797   4.293   8.426 -0.7104  0.1376 -0.0817
   10bbb     C1  271   5.727   4.208   8.533 -0.2948 -0.0725 -0.6271
   10bbb     H1  272   5.674   4.126   8.484 -1.5371  2.0524 -3.0887
   10bbb     H2  273   5.652   4.268   8.584 -1.8854 -1.9891 -0.5548
   10bbb     C2  274   5.914   4.220   8.365 -0.9792  0.8849  0.6717
   10bbb     H3  275   5.911   4.224   8.256 -2.1663 -0.1702  0.6304
   10bbb     H4  276   5.906   4.113   8.388  0.7152  0.8443  1.2428
   10bbb     C3  277   5.701   4.334   8.316  0.1938  0.2465  0.1979
   10bbb     H5  278   5.656   4.244   8.272 -2.6606  1.9938 -0.7168
   10bbb     H6  279   5.754   4.381   8.234 -0.5892  1.1473  0.1927
   10bbb     C4  280   5.599   4.440   8.346  1.0563 -0.5929  0.5991
   10bbb     H7  281   5.625   4.544   8.320  0.6368 -0.4200  0.8496
   10bbb     H8  282   5.580   4.443   8.454 -1.8100 -0.2742  0.1738
   10bbb     C5  283   5.821   4.153   8.644 -0.8364 -0.0407 -0.4175
   10bbb     H9  284   5.888   4.233   8.676  1.2862 -2.1780  0.8572
   10bbb    H10  285   5.879   4.079   8.587 -0.4585  0.0408 -0.1396
   10bbb     C6  286   6.046   4.275   8.419 -0.2046 -0.2282 -0.3774
   10bbb    H11  287   6.071   4.234   8.518  0.4063  0.4704 -0.2355
   10bbb    H12  288   6.049   4.383   8.433 -1.7849 -0.3111  0.9269
   10bbb     C7  289   5.459   4.409   8.281  0.9921 -0.0302 -1.2083
   10bbb    H13  290   5.385   4.477   8.326  2.5378  0.8467  0.1278
   10bbb    H14  291   5.437   4.304   8.305  2.0071  0.4971  2.6465
   10bbb     C8  292   6.157   4.227   8.321  0.5550 -0.5106 -0.0220
   10bbb    H15  293   6.162   4.117   8.323  0.5644 -0.5359 -0.9769
   10bbb    H16  294   6.131   4.251   8.217 -1.5308  2.1147  0.9794
   10bbb     C9  295   5.731   4.087   8.754  0.9027 -0.0243  0.7225
   10bbb    H17  296   5.676   4.002   8.710  0.0333  1.8769 -2.1137
   10bbb    H18  297   5.660   4.162   8.791 -0.6891 -2.6107  3.4112
   10bbb     O1  298   5.461   4.437   8.137 -0.4282 -0.1223 -0.0249
   10bbb    H19  299   5.831   4.382   8.466 -0.8111 -0.7655  2.1548
   11bbb     N1  300   3.962   4.570   4.516  0.0938  0.4965 -0.1154
   11bbb     C1  301   3.808   4.562   4.531 -0.3079  0.7069  0.2755
   11bbb     H1  302   3.771   4.655   4.574  0.8032  0.2120  2.4095
   11bbb     H2  303   3.787   4.479   4.599 -0.4077  0.4221 -0.1014
   11bbb     C2  304   4.002   4.669   4.405 -0.2069  0.0808 -0.9808
   11bbb     H3  305   3.945   4.654   4.314  0.0204  1.4472 -1.3740
   11bbb     H4  306   4.110   4.659   4.391 -0.0118  1.4633 -0.7093
   11bbb     C3  307   4.020   4.607   4.643  0.1715  0.1311 -0.8779
   11bbb     H5  308   3.967   4.544   4.714 -0.5853 -1.1214 -2.5094
   11bbb     H6  309   4.005   4.714   4.663  2.4214  0.5629 -1.2092
   11bbb     C4  310   4.172   4.571   4.660  0.3731 -0.0259  0.1874
   11bbb     H7  311   4.224   4.601   4.568 -1.2449  1.6661 -0.2453
   11bbb     H8  312   4.188   4.464   4.675 -1.0059 -0.1743  0.7244
   11bbb     C5  313   3.729   4.528   4.399  0.1301 -0.5519  0.0076
   11bbb     H9  314   3.768   4.435   4.356  0.4902  0.0522 -0.9997
   11bbb    H10  315   3.742   4.603   4.320  2.8196 -0.7484  0.1876
   11bbb     C6  316   3.994   4.823   4.442 -0.5056  0.1298 -0.4511
   11bbb    H11  317   4.042   4.850   4.537  0.4771  0.3033 -0.9863
   11bbb    H12  318   3.888   4.851   4.447 -0.7944 -0.9453 -0.3145
   11bbb     C7  319   4.241   4.641   4.779 -0.1652 -0.2090 -0.9572
   11bbb    H13  320   4.204   4.743   4.798 -3.9831 -1.6444  0.1556
   11bbb    H14  321   4.350   4.650   4.767  0.3990  0.1983  3.0126
   11bbb     C8  322   4.037   4.930   4.334  0.0322  0.3095  0.2654
   11bbb    H15  323   4.001   5.028   4.369 -1.6938  0.1801 -1.0369
   11bbb    H16  324   4.146   4.942   4.338 -0.0283  1.3219 -0.7450
   11bbb     C9  325   3.577   4.508   4.421  0.6110  0.4468  0.0903
   11bbb    H17  326   3.527   4.603   4.398 -0.0317  0.4454  1.4416
   11bbb    H18  327   3.562   4.496   4.529 -1.6902  0.6973 -0.1561
   11bbb     O1  328   4.209   4.572   4.904  0.0919 -0.1912  0.5597
   11bbb    H19  329   4.003   4.482   4.483 -0.8521  0.0780 -0.1881
   12bbb     N1  330   3.412   4.909   5.736 -1.0897 -0.0951 -0.1163
   12bbb     C1  331   3.410   4.984   5.603  0.1443 -0.0288 -0.1913
   12bbb     H1  332   3.336   5.063   5.614  0.2428  0.4357 -2.4079
   12bbb     H2  333   3.369   4.914   5.531 -0.6891 -0.4090  0.6245
   12bbb     C2  334   3.261   4.881   5.767 -0.1026 -0.4610 -0.0147
   12bbb     H3  335   3.211   4.829   5.685 -1.4377  0.8085 -0.0483
   12bbb     H4  336   3.215   4.979   5.780 -0.4117 -0.4914 -0.8284
   12bbb     C3  337   3.502   4.787   5.730 -0.0720 -0.2170  0.0203
   12bbb     H5  338   3.481   4.736   5.825  1.7990 -0.7220  0.2044
   12bbb     H6  339   3.605   4.822   5.719  0.4810 -1.7854 -0.0156
   12bbb     C4  340   3.477   4.692   5.609  0.4074 -0.5901 -0.3240
   12bbb     H7  341   3.458   4.753   5.520 -1.4951  3.0303  2.2723
   12bbb     H8  342   3.379   4.646   5.629  1.1540 -1.8880  0.4949
   12bbb     C5  343   3.544   5.051   5.561  0.0422  0.2525 -0.5353
   12bbb     H9  344   3.624   4.977   5.541 -2.5286 -3.2043  0.9329
   12bbb    H10  345   3.582   5.114   5.643 -1.6562  1.1356 -0.3860
   12bbb     C6  346   3.244   4.803   5.908  0.2962  0.1566  0.2472
   12bbb    H11  347   3.259   4.865   5.997  0.3623  0.0810  0.2891
   12bbb    H12  348   3.323   4.726   5.908  2.2630  2.0407  1.3777
   12bbb     C7  349   3.592   4.587   5.577  0.0731 -0.1486 -0.2244
   12bbb    H13  350   3.552   4.513   5.507  0.5043  1.2908 -2.0917
   12bbb    H14  351   3.612   4.534   5.671  1.1248 -0.4420 -0.6091
   12bbb     C8  352   3.110   4.731   5.920  0.0265  0.0784  0.3813
   12bbb    H15  353   3.112   4.647   5.850  0.3318 -0.3702  0.9202
   12bbb    H16  354   3.098   4.683   6.018 -0.6786 -0.0968  0.2099
   12bbb     C9  355   3.543   5.137   5.433  0.5833 -0.0112  0.4969
   12bbb    H17  356   3.520   5.074   5.347  2.2652  1.3412 -1.0104
   12bbb    H18  357   3.644   5.171   5.408 -0.0308  3.1654  1.8358
   12bbb     O1  358   3.707   4.650   5.519  0.1466 -0.0114  0.0580
   12bbb    H19  359   3.448   4.976   5.805 -1.8240  0.4285 -0.2380
   13bbb     N1  360   5.927   4.430   4.803  0.2516  0.4410  0.0022
   13bbb     C1  361   5.910   4.531   4.691 -0.0744 -0.5556  0.0575
   13bbb     H1  362   5.890   4.625   4.742  1.2036 -0.3650  0.2462
   13bbb     H2  363   5.832   4.504   4.620  0.2111  2.7599 -1.7518
   13bbb     C2  364   6.007   4.498   4.915 -0.3219 -0.2836  0.3987
   13bbb     H3  365   5.933   4.553   4.974 -0.9258 -0.3231 -0.3149
   13bbb     H4  366   6.079   4.558   4.861 -2.4265 -0.0043 -2.2753
   13bbb     C3  367   5.780   4.390   4.840 -0.1239  0.1152 -0.6213
   13bbb     H5  368   5.732   4.353   4.749 -0.8268 -0.5966  0.0289
   13bbb     H6  369   5.740   4.488   4.867  0.5957  0.2120  0.1273
   13bbb     C4  370   5.770   4.290   4.957 -0.0052  0.6183  0.2927
   13bbb     H7  371   5.838   4.314   5.039  1.1491 -1.2174 -0.0712
   13bbb     H8  372   5.793   4.189   4.919  0.6953  0.2313  1.6537
   13bbb     C5  373   6.046   4.558   4.601  0.2542 -0.6453 -0.0724
   13bbb     H9  374   6.072   4.462   4.554 -2.4189 -1.4145 -0.1859
   13bbb    H10  375   6.127   4.595   4.664 -0.8063  0.0261  0.9235
   13bbb     C6  376   6.074   4.393   5.003 -0.2614 -0.0563  0.5047
   13bbb    H11  377   6.039   4.291   4.985 -0.2287 -0.1788  1.1275
   13bbb    H12  378   6.046   4.408   5.108  2.7362 -0.9581  1.5331
   13bbb     C7  379   5.630   4.290   5.012  0.2768  0.2260 -0.1736
   13bbb    H13  380   5.561   4.254   4.935 -0.1718  1.1514 -0.2146
   13bbb    H14  381   5.609   4.394   5.038  0.9976  0.7369 -1.5337
   13bbb     C8  382   6.223   4.397   5.019  0.2742 -0.3311  0.3552
   13bbb    H15  383   6.257   4.483   5.078 -0.5136  0.0218  0.3120
   13bbb    H16  384   6.271   4.302   5.042  0.1636 -1.2117 -2.5820
   13bbb     C9  385   6.023   4.675   4.500  0.3166  0.0875 -0.1612
   13bbb    H17  386   6.125   4.704   4.472  0.8157  1.2187  2.5458
   13bbb    H18  387   5.967   4.755   4.549  0.2331 -0.0268 -0.0693
   13bbb     O1  388   5.620   4.210   5.134  0.6359  0.2793 -0.1710
   13bbb    H19  389   5.988   4.355   4.767 -0.2972  0.5621 -1.2354
   14bbb     N1  390   5.590   3.241   5.157  0.0853 -0.0175 -0.4330
   14bbb     C1  391   5.702   3.237   5.050  0.0741  0.6261 -0.1677
   14bbb     H1  392   5.794   3.290   5.076  1.6820 -1.4870 -1.1857
   14bbb     H2  393   5.664   3.286   4.961 -0.2135 -1.4737 -1.2551
   14bbb     C2  394   5.645   3.248   5.296  0.0140 -0.5031 -0.4442
   14bbb     H3  395   5.676   3.352   5.305  1.4381 -1.0127  0.8984
   14bbb     H4  396   5.738   3.191   5.300 -0.1471 -0.7444 -0.0927
   14bbb     C3  397   5.509   3.368   5.132 -0.2796  0.3458  0.4592
   14bbb     H5  398   5.419   3.360   5.192 -1.7423 -0.9326 -1.7639
   14bbb     H6  399   5.473   3.349   5.031 -0.4923 -0.5519  0.6955
   14bbb     C4  400   5.577   3.506   5.152  0.0771  0.2883 -0.0073
   14bbb     H7  401   5.663   3.520   5.086  1.3489 -1.0871  1.2702
   14bbb     H8  402   5.626   3.522   5.249  0.1039  3.4005 -0.4303
   14bbb     C5  403   5.737   3.088   5.010  0.0685 -0.7008  0.4365
   14bbb     H9  404   5.823   3.102   4.943 -0.9659  1.4169 -0.5488
   14bbb    H10  405   5.653   3.044   4.956  1.6912 -1.9519 -1.1884
   14bbb     C6  406   5.553   3.193   5.398 -0.7719  0.6324 -0.0707
   14bbb    H11  407   5.457   3.243   5.382 -0.1689  1.6889 -0.4945
   14bbb    H12  408   5.597   3.226   5.493  2.9024  1.6860 -1.9157
   14bbb     C7  409   5.468   3.612   5.140 -0.4241  0.0683  0.0652
   14bbb    H13  410   5.418   3.606   5.042  1.3843 -1.6623 -0.8361
   14bbb    H14  411   5.509   3.714   5.139 -1.4488  0.5011 -1.3236
   14bbb     C8  412   5.548   3.043   5.383  0.1848 -0.0361 -0.2732
   14bbb    H15  413   5.653   3.013   5.385  0.4711  0.9722  0.5917
   14bbb    H16  414   5.507   2.999   5.475 -0.2807 -0.8846 -0.8802
   14bbb     C9  415   5.808   3.007   5.127 -0.4146 -0.0704  0.7623
   14bbb    H17  416   5.742   2.996   5.213 -3.0491 -1.4519 -1.3050
   14bbb    H18  417   5.905   3.052   5.151  1.1951 -3.3735  1.0735
   14bbb     O1  418   5.378   3.603   5.253 -0.0063 -0.5017 -0.0089
   14bbb    H19  419   5.525   3.162   5.167  0.1138 -0.0127 -0.1915
   15bbb     N1  420   3.517   6.583   8.191  0.1174  0.3701 -0.1611
   15bbb     C1  421   3.512   6.552   8.338  0.2010 -0.7099 -0.5174
   15bbb     H1  422   3.426   6.488   8.355 -0.2311 -0.0058 -0.0490
   15bbb     H2  423   3.499   6.642   8.397 -0.3797 -1.2323  0.1624
   15bbb     C2  424   3.390   6.644   8.131  0.3092  0.3462 -0.5518
   15bbb     H3  425   3.311   6.575   8.159 -1.2310  2.6585  1.1926
   15bbb     H4  426   3.402   6.657   8.023 -1.7261  1.0023 -0.7359
   15bbb     C3  427   3.630   6.677   8.160 -0.3788  0.3207  0.6795
   15bbb     H5  428   3.709   6.648   8.228  0.0418  1.0511  0.5185
   15bbb     H6  429   3.607   6.782   8.180 -0.0181  0.7240 -0.9145
   15bbb     C4  430   3.695   6.657   8.022  0.0447  0.4736  0.6884
   15bbb     H7  431   3.779   6.728   8.016 -0.2049  0.7030 -0.4154
   15bbb     H8  432   3.624   6.678   7.941 -1.3647 -3.0261  0.8758
   15bbb     C5  433   3.633   6.474   8.397 -0.3875  0.0204 -0.2782
   15bbb     H9  434   3.729   6.520   8.370  0.3173 -0.6963  0.9108
   15bbb    H10  435   3.636   6.374   8.352  1.8100 -0.4560  0.7687
   15bbb     C6  436   3.345   6.780   8.192  1.0246 -0.6488  0.5686
   15bbb    H11  437   3.428   6.850   8.209  0.6459 -0.2299  0.7023
   15bbb    H12  438   3.300   6.772   8.291  0.5244  1.9434  0.6078
   15bbb     C7  439   3.753   6.519   7.994  0.0969  0.2210  0.2775
   15bbb    H13  440   3.675   6.452   7.955  1.9437 -0.8176 -1.8076
   15bbb    H14  441   3.804   6.474   8.080  2.2262 -0.1453 -1.1126
   15bbb     C8  442   3.242   6.834   8.097  0.6385 -0.6420 -0.0433
   15bbb    H15  443   3.224   6.939   8.125  1.9612 -0.8207  1.6752
   15bbb    H16  444   3.279   6.824   7.994  2.7224 -1.7010  0.7456
   15bbb     C9  445   3.638   6.465   8.549  0.1396  0.3572 -0.8301
   15bbb    H17  446   3.739   6.438   8.581 -0.1595  1.0371  0.7770
   15bbb    H18  447   3.572   6.381   8.574  0.0490  0.3726 -1.0089
   15bbb     O1  448   3.855   6.535   7.889  0.4990 -0.3017 -0.5579
   15bbb    H19  449   3.530   6.490   8.149 -1.4319 -0.2897  0.7196
   16bbb     N1  450   3.914   7.130   7.574 -0.0850  0.4866 -0.1267
   16bbb     C1  451   4.001   7.249   7.542 -0.0920  0.0106  0.0782
   16bbb     H1  452   3.968   7.334   7.602  1.2330  1.0573 -0.6192
   16bbb     H2  453   3.991   7.276   7.437 -2.6971 -0.7000  0.0647
   16bbb     C2  454   3.768   7.172   7.583  0.4231  0.1508  0.2759
   16bbb     H3  455   3.753   7.231   7.674 -0.3283  0.9057 -0.3238
   16bbb     H4  456   3.703   7.085   7.592 -2.1377  1.8747 -0.1976
   16bbb     C3  457   3.945   7.018   7.473  0.1106  0.4799  0.2286
   16bbb     H5  458   4.050   7.031   7.446  0.4059 -1.3871  0.3600
   16bbb     H6  459   3.882   7.033   7.385 -1.1146 -0.0827  0.9919
   16bbb     C4  460   3.915   6.874   7.521 -0.1672  0.5361 -0.5381
   16bbb     H7  461   3.827   6.891   7.585 -1.3371 -0.1090 -1.8961
   16bbb     H8  462   3.982   6.839   7.600 -2.3036  1.8901  2.0419
   16bbb     C5  463   4.154   7.240   7.572 -0.0911 -0.1413 -0.0368
   16bbb     H9  464   4.198   7.340   7.565 -0.3267 -0.0485 -0.2304
   16bbb    H10  465   4.201   7.189   7.487  0.7586  1.5494 -0.6352
   16bbb     C6  466   3.716   7.252   7.463  0.2203 -0.1588 -0.0530
   16bbb    H11  467   3.718   7.197   7.368 -0.3273  0.3699 -0.3755
   16bbb    H12  468   3.783   7.335   7.438 -0.1036  0.5264  1.2572
   16bbb     C7  469   3.899   6.761   7.409  0.0688 -0.1499 -1.5156
   16bbb    H13  470   3.821   6.786   7.335  1.0316  1.6784 -1.9836
   16bbb    H14  471   3.875   6.669   7.463 -1.0438  1.1172  0.2542
   16bbb     C8  472   3.589   7.323   7.497  0.6286  0.0733 -0.6437
   16bbb    H15  473   3.506   7.259   7.529 -2.2138  2.2115 -3.1338
   16bbb    H16  474   3.617   7.399   7.570  2.0651 -0.1272 -0.9575
   16bbb     C9  475   4.200   7.164   7.702  0.0806 -0.2975  0.0648
   16bbb    H17  476   4.292   7.213   7.735 -1.1678  1.9922  0.3456
   16bbb    H18  477   4.227   7.058   7.692  1.2077 -0.2929  2.3932
   16bbb     O1  478   4.026   6.744   7.347 -0.7889  0.5831 -0.4223
   16bbb    H19  479   3.944   7.102   7.668  0.7786  0.9594 -0.2564
   17bbb     N1  480   6.217   6.725   7.284 -0.5481  0.1068  0.5533
   17bbb     C1  481   6.272   6.613   7.382  0.5772 -0.3740  0.3756
   17bbb     H1  482   6.311   6.531   7.322 -0.1748 -2.4955  2.6225
   17bbb     H2  483   6.186   6.579   7.441  0.9623 -0.3848  0.9358
   17bbb     C2  484   6.309   6.730   7.158  0.0536 -0.1839  0.4234
   17bbb     H3  485   6.284   6.823   7.107  3.6717  1.1790  0.8352
   17bbb     H4  486   6.282   6.646   7.094  0.4259  1.4004 -1.8905
   17bbb     C3  487   6.077   6.701   7.235  0.2281 -0.7334 -0.2274
   17bbb     H5  488   6.023   6.696   7.330 -0.2620 -0.0006 -0.4604
   17bbb     H6  489   6.068   6.607   7.180  0.5405 -1.2348  0.5538
   17bbb     C4  490   6.002   6.822   7.170  0.1085  0.2225  0.3559
   17bbb     H7  491   6.055   6.841   7.076  2.2506  1.2684  1.6786
   17bbb     H8  492   6.004   6.912   7.233 -2.0134  1.1102 -0.7573
   17bbb     C5  493   6.375   6.655   7.487  0.0185  0.2376 -0.0943
   17bbb     H9  494   6.331   6.740   7.539  2.4298  0.8602  1.0924
   17bbb    H10  495   6.466   6.697   7.443 -0.7181 -1.3527 -3.4782
   17bbb     C6  496   6.465   6.734   7.180 -0.7653  0.1297 -0.0215
   17bbb    H11  497   6.502   6.647   7.235 -0.0447 -0.2855 -1.1322
   17bbb    H12  498   6.494   6.826   7.232 -2.2590  1.7621 -1.9019
   17bbb     C7  499   5.850   6.794   7.144 -0.0619 -0.6139  0.4494
   17bbb    H13  500   5.821   6.897   7.120  1.8579 -0.3621 -1.1093
   17bbb    H14  501   5.807   6.758   7.238 -0.0625  0.7751  1.0037
   17bbb     C8  502   6.541   6.744   7.046  0.1493 -0.4319 -0.0551
   17bbb    H15  503   6.512   6.647   7.003 -1.6800 -0.0682  0.2936
   17bbb    H16  504   6.504   6.824   6.981  1.1701  0.0749 -0.0428
   17bbb     C9  505   6.400   6.544   7.595  0.1199 -0.2125  0.3578
   17bbb    H17  506   6.496   6.500   7.565  0.5694  1.5103 -0.8334
   17bbb    H18  507   6.319   6.470   7.589 -0.2661  0.2824 -0.5657
   17bbb     O1  508   5.826   6.705   7.033 -0.0339  0.3832  0.2569
   17bbb    H19  509   6.222   6.814   7.336 -1.5701 -0.1466  1.1174
   18bbb     N1  510   5.676   7.295   6.186 -0.2335  0.0029  0.0613
   18bbb     C1  511   5.704   7.443   6.164 -0.0620  0.1981  0.0205
   18bbb     H1  512   5.762   7.449   6.071  0.7233 -3.9878  0.0807
   18bbb     H2  513   5.779   7.477   6.235 -0.2967 -0.8059  0.7698
   18bbb     C2  514   5.801   7.206   6.162 -0.2405  0.5663  0.1170
   18bbb     H3  515   5.830   7.241   6.063  0.6466 -1.8048 -0.5365
   18bbb     H4  516   5.772   7.101   6.156  0.2288  0.4461 -0.0526
   18bbb     C3  517   5.621   7.275   6.327  0.7485 -0.3246 -0.3805
   18bbb     H5  518   5.536   7.342   6.341  1.0351 -0.2544  1.1042
   18bbb     H6  519   5.692   7.302   6.405  1.9515  1.7779 -2.0776
   18bbb     C4  520   5.578   7.135   6.361  0.0388 -0.2740 -0.9504
   18bbb     H7  521   5.648   7.058   6.327 -1.6855 -2.3391 -0.0763
   18bbb     H8  522   5.495   7.120   6.291 -0.2092  1.9273 -1.1935
   18bbb     C5  523   5.584   7.544   6.146  0.4653  0.0080 -0.0824
   18bbb     H9  524   5.520   7.541   6.235 -2.3182 -0.7794 -1.9953
   18bbb    H10  525   5.530   7.505   6.059 -0.5080  2.8211 -0.8576
   18bbb     C6  526   5.932   7.219   6.247  0.1661  0.2328  0.0756
   18bbb    H11  527   5.913   7.203   6.354 -2.5093 -4.3861 -0.7949
   18bbb    H12  528   5.969   7.319   6.221  0.4487 -0.3047 -1.7333
   18bbb     C7  529   5.533   7.103   6.507  0.0865 -0.7813  0.4359
   18bbb    H13  530   5.435   7.148   6.528  0.3071 -0.6336  1.1749
   18bbb    H14  531   5.614   7.146   6.568  0.6706 -2.8563  1.1781
   18bbb     C8  532   6.041   7.124   6.199 -0.2490  0.7561 -0.3151
   18bbb    H15  533   6.124   7.138   6.269 -1.3791  0.9116  1.0566
   18bbb    H16  534   6.001   7.022   6.211  3.2505 -0.6793  0.2090
   18bbb     C9  535   5.628   7.690   6.122  0.3382 -0.7938 -0.3014
   18bbb    H17  536   5.687   7.708   6.031  1.5683 -2.6091  0.0759
   18bbb    H18  537   5.690   7.733   6.201  0.8288  1.8317 -1.9713
   18bbb     O1  538   5.524   6.959   6.533  0.0720  0.3043 -0.0022
   18bbb    H19  539   5.601   7.263   6.123  1.1680  1.8834 -2.7793
   19bbb     N1  540   5.013   3.030   8.071 -0.6159 -0.4391  0.3086
   19bbb     C1  541   4.936   2.941   8.168  0.4819 -0.0083  0.4590
   19bbb     H1  542   4.877   2.886   8.094 -0.4796  3.1627 -1.3143
   19bbb     H2  543   4.869   3.000   8.230  0.3399 -0.3156  0.6058
   19bbb     C2  544   5.091   2.940   7.968 -0.1648 -0.4573  0.2178
   19bbb     H3  545   5.019   2.905   7.894 -0.6956  0.0209  0.5008
   19bbb     H4  546   5.146   2.858   8.013  2.5135  0.9213 -0.3470
   19bbb     C3  547   4.920   3.122   7.999 -0.6732  1.2010  0.0351
   19bbb     H5  548   4.845   3.056   7.956  1.0105 -0.5859 -0.2981
   19bbb     H6  549   4.988   3.160   7.922  0.2362 -0.7970 -0.2225
   19bbb     C4  550   4.848   3.230   8.080 -0.1813 -0.2067  0.2765
   19bbb     H7  551   4.924   3.294   8.125  0.4831 -1.1337  0.4853
   19bbb     H8  552   4.787   3.189   8.161  0.7999 -0.8076  0.7254
   19bbb     C5  553   5.013   2.845   8.258  0.3657  0.5387  0.6494
   19bbb     H9  554   5.056   2.894   8.347  2.5166 -0.9263  0.4917
   19bbb    H10  555   5.104   2.803   8.215  1.3494 -2.0825  4.7577
   19bbb     C6  556   5.212   3.028   7.900 -0.1912  0.3923  0.8058
   19bbb    H11  557   5.178   3.098   7.823 -1.5264 -2.2990 -1.2074
   19bbb    H12  558   5.287   2.966   7.849  0.6786  1.6897  0.4539
   19bbb     C7  559   4.773   3.329   7.985  0.5998  0.7288  0.0283
   19bbb    H13  560   4.690   3.274   7.939  1.2749  0.2425 -0.6267
   19bbb    H14  561   4.846   3.358   7.908  2.0904 -1.0538  0.6926
   19bbb     C8  562   5.280   3.096   8.015 -0.1907 -1.2204  0.3610
   19bbb    H15  563   5.380   3.131   7.987  0.8232  0.1864  4.8423
   19bbb    H16  564   5.214   3.177   8.048 -1.4526 -2.0850  0.0366
   19bbb     C9  565   4.927   2.735   8.315  0.0125 -1.0027 -0.5993
   19bbb    H17  566   4.838   2.783   8.358  1.7536  1.0144  0.9690
   19bbb    H18  567   4.966   2.676   8.399 -0.0886  1.5701  1.4090
   19bbb     O1  568   4.723   3.437   8.067 -0.0192 -0.1612  0.1772
   19bbb    H19  569   5.081   3.085   8.126  0.0668 -0.3559 -0.6021
   20bbb     N1  570   4.011   3.765   8.680 -0.0928 -0.3509 -1.0173
   20bbb     C1  571   3.889   3.732   8.586  0.1620 -0.5529 -0.1562
   20bbb     H1  572   3.802   3.722   8.651 -0.1024  0.3011 -0.3623
   20bbb     H2  573   3.897   3.632   8.542  1.7358 -0.4722 -0.1249
   20bbb     C2  574   3.999   3.686   8.809  0.7972  0.5227 -0.4414
   20bbb     H3  575   3.914   3.711   8.874  0.7347 -1.0025  0.1218
   20bbb     H4  576   4.083   3.710   8.874 -0.4643  1.3778  0.9578
   20bbb     C3  577   4.132   3.733   8.597  0.7354 -0.2518  0.6386
   20bbb     H5  578   4.134   3.811   8.521 -0.9419 -0.9385 -0.1435
   20bbb     H6  579   4.103   3.640   8.548 -1.3519  1.6730 -2.1273
   20bbb     C4  580   4.275   3.720   8.649 -0.1578 -0.2807 -0.0792
   20bbb     H7  581   4.288   3.649   8.731  1.2385  0.4419  0.3617
   20bbb     H8  582   4.296   3.820   8.690  0.6401  0.4742 -2.1634
   20bbb     C5  583   3.886   3.832   8.471  0.7198 -0.0029  0.2630
   20bbb     H9  584   3.945   3.802   8.384  2.4997 -0.7634  1.6771
   20bbb    H10  585   3.909   3.932   8.509  0.0238  0.5896 -0.8147
   20bbb     C6  586   3.993   3.528   8.790  0.1181 -0.1794  0.2953
   20bbb    H11  587   4.081   3.492   8.735 -1.4605 -1.0630 -1.7901
   20bbb    H12  588   3.909   3.498   8.725 -0.4245  1.9404 -0.0673
   20bbb     C7  589   4.388   3.689   8.541 -0.0933 -0.0513  0.1175
   20bbb    H13  590   4.396   3.586   8.506  0.1657 -0.2856  0.8600
   20bbb    H14  591   4.488   3.714   8.578  1.0884 -1.2745 -2.0451
   20bbb     C8  592   3.986   3.460   8.922  0.5140  0.1218 -0.5485
   20bbb    H15  593   3.998   3.353   8.900  3.8634  0.6388 -1.8300
   20bbb    H16  594   4.073   3.477   8.986  0.3357 -0.6961 -0.0681
   20bbb     C9  595   3.747   3.835   8.418  0.5905 -0.1410  0.3072
   20bbb    H17  596   3.705   3.735   8.401 -0.8630  0.2077  1.6192
   20bbb    H18  597   3.751   3.887   8.321  1.0889 -0.0171  0.3936
   20bbb     O1  598   4.362   3.757   8.424  0.0537 -0.2018  0.1440
   20bbb    H19  599   4.006   3.864   8.711  0.7729 -0.1834 -1.3871
   21bbb     N1  600   6.706   4.441   8.422  0.9874 -0.5551  0.3043
   21bbb     C1  601   6.765   4.439   8.562 -0.5105 -0.8802  0.2212
   21bbb     H1  602   6.866   4.479   8.559 -0.5781 -0.7452 -0.2774
   21bbb     H2  603   6.782   4.333   8.580  0.6276 -0.7153  0.2032
   21bbb     C2  604   6.803   4.383   8.320  0.5061 -0.3378  0.2323
   21bbb     H3  605   6.884   4.456   8.321  0.4696 -0.2686 -0.6981
   21bbb     H4  606   6.764   4.402   8.220 -0.0547 -0.3281  0.4534
   21bbb     C3  607   6.577   4.363   8.405  0.5276  0.0047 -0.1771
   21bbb     H5  608   6.515   4.396   8.489 -1.9017  0.3077 -1.9743
   21bbb     H6  609   6.599   4.258   8.426 -1.4453 -0.0314  2.1625
   21bbb     C4  610   6.499   4.373   8.264 -0.2546  0.0407  0.3460
   21bbb     H7  611   6.567   4.351   8.181  0.1477 -0.9491  0.9258
   21bbb     H8  612   6.460   4.474   8.245 -0.3706 -0.2022 -0.8126
   21bbb     C5  613   6.679   4.497   8.675  0.6163 -0.6908 -0.1666
   21bbb     H9  614   6.603   4.424   8.704  0.9466 -0.4556  1.3776
   21bbb    H10  615   6.627   4.589   8.644 -2.0555 -1.9523  0.3467
   21bbb     C6  616   6.855   4.238   8.345 -0.3657 -0.1912 -0.0209
   21bbb    H11  617   6.768   4.173   8.334 -1.2866  0.9998 -0.0592
   21bbb    H12  618   6.895   4.226   8.446 -1.5148  1.6119  0.7166
   21bbb     C7  619   6.394   4.262   8.256  0.9204 -0.2965 -0.1839
   21bbb    H13  620   6.434   4.165   8.287 -0.0382  0.0765  2.5886
   21bbb    H14  621   6.352   4.269   8.155  0.5914 -0.0773 -0.0384
   21bbb     C8  622   6.961   4.206   8.241 -0.8754 -0.3904  0.5820
   21bbb    H15  623   6.959   4.097   8.231 -0.2047 -0.2816 -1.0062
   21bbb    H16  624   6.943   4.251   8.143  0.5625  1.5875  1.1407
   21bbb     C9  625   6.762   4.528   8.795  0.5136 -0.0832 -0.2156
   21bbb    H17  626   6.714   4.610   8.850 -1.3480 -1.5648  0.4968
   21bbb    H18  627   6.858   4.571   8.764 -0.3433  1.2529 -1.1215
   21bbb     O1  628   6.283   4.293   8.349  0.2258  0.2834 -0.2072
   21bbb    H19  629   6.688   4.537   8.391 -1.1731 -0.6881  0.9630
   22bbb     N1  630   5.991   3.992   9.269 -0.2860  0.4529  0.2366
   22bbb     C1  631   6.141   3.943   9.246  0.7980  0.0541  0.1673
   22bbb     H1  632   6.208   4.027   9.225 -1.2678  1.4282 -1.2955
   22bbb     H2  633   6.131   3.885   9.154  0.4818  1.1362 -0.5030
   22bbb     C2  634   5.987   4.109   9.369 -0.2099  0.0565  0.0789
   22bbb     H3  635   6.020   4.198   9.315 -2.9657  1.1731  0.0903
   22bbb     H4  636   6.044   4.088   9.459 -0.8746  1.0787  0.7653
   22bbb     C3  637   5.922   4.033   9.137  0.4474  0.1484 -0.5832
   22bbb     H5  638   5.992   4.070   9.062  2.1051  0.8493  1.2083
   22bbb     H6  639   5.860   4.118   9.164 -0.6839 -0.1155 -2.2281
   22bbb     C4  640   5.842   3.922   9.067  0.6221  0.2861 -0.0583
   22bbb     H7  641   5.783   3.876   9.147  1.4448  1.0567  1.0305
   22bbb     H8  642   5.918   3.847   9.041 -0.9050 -1.0163 -0.9012
   22bbb     C5  643   6.212   3.846   9.342 -0.1591 -0.4832 -0.1213
   22bbb     H9  644   6.282   3.784   9.286 -0.4223 -0.1873 -0.7865
   22bbb    H10  645   6.145   3.781   9.400 -0.4300 -1.8502 -1.8843
   22bbb     C6  646   5.847   4.143   9.425  0.7712 -0.4431  0.0364
   22bbb    H11  647   5.823   4.096   9.522 -0.6428  1.4673  0.6597
   22bbb    H12  648   5.776   4.105   9.351  1.2726  0.8967 -1.1796
   22bbb     C7  649   5.746   3.956   8.955 -0.3117 -0.3776  0.3094
   22bbb    H13  650   5.673   4.016   9.010 -0.6467 -0.1954 -0.3358
   22bbb    H14  651   5.689   3.872   8.915 -0.7398 -0.7597  1.6518
   22bbb     C8  652   5.832   4.298   9.434  0.0108  0.3744  0.2873
   22bbb    H15  653   5.855   4.350   9.340  0.2427  1.7809  1.0944
   22bbb    H16  654   5.727   4.322   9.452 -0.0127  0.6922 -0.2475
   22bbb     C9  655   6.295   3.928   9.440 -0.1447 -0.8579 -0.2564
   22bbb    H17  656   6.247   4.022   9.468 -0.8000 -1.7395  1.7123
   22bbb    H18  657   6.388   3.957   9.389 -0.1919  0.3562  0.3234
   22bbb     O1  658   5.819   4.035   8.851 -0.6124  0.5322  0.3325
   22bbb    H19  659   5.929   3.920   9.308  0.9261  0.0852  1.5960
   23bbb     N1  660   3.801   5.006   3.806 -0.2571  0.1292 -0.1787
   23bbb     C1  661   3.862   5.107   3.711  0.0828  0.5185  0.2042
   23bbb     H1  662   3.837   5.208   3.744  0.0061  0.6018 -0.1041
   23bbb     H2  663   3.814   5.078   3.617  3.0146 -2.5851 -0.5501
   23bbb     C2  664   3.783   4.870   3.739  0.1409  0.2795  0.4871
   23bbb     H3  665   3.817   4.793   3.808 -2.2778 -0.4710  0.9472
   23bbb     H4  666   3.853   4.855   3.656 -2.2329 -3.1938 -1.1728
   23bbb     C3  667   3.868   5.001   3.938  0.5306  0.1386  0.0278
   23bbb     H5  668   3.882   5.105   3.970  1.4990 -0.7126  2.6188
   23bbb     H6  669   3.966   4.959   3.914  0.5588  1.1483 -1.7980
   23bbb     C4  670   3.804   4.908   4.042 -0.1244 -0.5487  0.1820
   23bbb     H7  671   3.832   4.804   4.025 -2.9378 -1.7539  2.1602
   23bbb     H8  672   3.695   4.913   4.035 -0.2371 -2.3593  0.1287
   23bbb     C5  673   4.016   5.099   3.700 -0.1364  0.2354  0.4744
   23bbb     H9  674   4.054   4.997   3.687  0.7175  0.5200  0.7187
   23bbb    H10  675   4.057   5.144   3.791 -1.2124  0.3548  0.9150
   23bbb     C6  676   3.631   4.835   3.700 -0.6812 -0.7188  0.0983
   23bbb    H11  677   3.560   4.838   3.783  0.6018 -0.6862  1.2342
   23bbb    H12  678   3.621   4.731   3.667 -1.6060 -0.4151 -0.6197
   23bbb     C7  679   3.857   4.945   4.186  0.2880 -0.8787 -0.2633
   23bbb    H13  680   3.788   4.901   4.260  0.5138  0.9193  1.0896
   23bbb    H14  681   3.852   5.054   4.189 -1.0484 -0.9000  2.7921
   23bbb     C8  682   3.586   4.938   3.591  0.0238 -0.4553  0.6564
   23bbb    H15  683   3.482   4.929   3.556  1.0170  1.5207 -3.4702
   23bbb    H16  684   3.591   5.034   3.643 -3.4965  1.8070 -2.6472
   23bbb     C9  685   4.067   5.175   3.580 -0.1506 -0.8330  0.8745
   23bbb    H17  686   4.008   5.158   3.488  1.2335 -1.3212  0.0541
   23bbb    H18  687   4.168   5.141   3.555 -0.3443 -1.2707  0.6642
   23bbb     O1  688   3.988   4.887   4.205  0.0123 -0.4286  0.3416
   23bbb    H19  689   3.710   5.051   3.822  1.3723  4.1419 -1.0970
   24bbb     N1  690   3.116   4.157   4.163 -0.1257  0.3000  0.1641
   24bbb     C1  691   3.120   4.238   4.040 -0.0695 -0.7210 -0.3829
   24bbb     H1  692   3.225   4.239   4.010  0.3489  1.2259  0.9730
   24bbb     H2  693   3.092   4.342   4.055  0.8804 -0.5278  0.1460
   24bbb     C2  694   3.195   4.019   4.144 -0.5863 -0.2856  0.0350
   24bbb     H3  695   3.289   4.034   4.089  0.9300 -2.0872  1.9444
   24bbb     H4  696   3.128   3.973   4.071  1.5588 -0.5238 -1.9474
   24bbb     C3  697   3.182   4.229   4.279 -0.0566 -0.9606  0.6557
   24bbb     H5  698   3.140   4.182   4.369 -1.1895  1.9766  1.8049
   24bbb     H6  699   3.142   4.331   4.284  0.1315 -0.9296  1.7848
   24bbb     C4  700   3.340   4.241   4.284 -0.4654  0.6104 -0.2107
   24bbb     H7  701   3.368   4.268   4.181 -0.3098  2.1204  0.2197
   24bbb     H8  702   3.376   4.139   4.301 -0.9040  0.5652  0.4601
   24bbb     C5  703   3.038   4.178   3.917  0.2154  0.3570 -0.5021
   24bbb     H9  704   3.064   4.074   3.895 -1.1038 -0.0110 -0.3955
   24bbb    H10  705   3.067   4.236   3.828  0.4826 -1.0539 -1.3560
   24bbb     C6  706   3.218   3.915   4.252 -0.4039 -0.4776  0.3784
   24bbb    H11  707   3.127   3.889   4.306 -1.0931 -0.1227 -0.5940
   24bbb    H12  708   3.285   3.948   4.333  0.7185 -0.7057 -0.4231
   24bbb     C7  709   3.400   4.344   4.382  0.2439 -1.1731 -0.1419
   24bbb    H13  710   3.388   4.314   4.487 -1.4568 -1.5603 -0.4198
   24bbb    H14  711   3.331   4.428   4.366  1.4344 -0.1845 -0.2200
   24bbb     C8  712   3.286   3.785   4.197  0.9710 -0.1727  0.0918
   24bbb    H15  713   3.393   3.798   4.175  0.5737  0.1618 -1.8239
   24bbb    H16  714   3.274   3.706   4.272 -1.1136  0.4230  0.4266
   24bbb     C9  715   2.896   4.204   3.953  0.0228  0.5088  0.2557
   24bbb    H17  716   2.830   4.186   3.868  1.6015  2.5136 -1.4951
   24bbb    H18  717   2.898   4.310   3.980  0.6236  0.7008 -0.5125
   24bbb     O1  718   3.531   4.388   4.355 -0.1631 -0.0214  0.2330
   24bbb    H19  719   3.017   4.135   4.179  0.1902 -0.8131  0.7848
   25bbb     N1  720   2.629   4.990   6.107  0.1927  0.3080  0.0729
   25bbb     C1  721   2.551   4.959   5.974  0.1322 -0.2884  0.3423
   25bbb     H1  722   2.545   4.850   5.968  1.8827 -0.5215  1.8942
   25bbb     H2  723   2.614   4.999   5.895 -0.5007 -0.8777 -0.4816
   25bbb     C2  724   2.563   4.906   6.213  0.0322 -0.4036 -0.1004
   25bbb     H3  725   2.587   4.801   6.205 -0.5654 -0.5577  0.0258
   25bbb     H4  726   2.455   4.910   6.197  0.1910 -0.9289 -1.3390
   25bbb     C3  727   2.772   4.939   6.091 -0.3153 -0.1844  0.0448
   25bbb     H5  728   2.758   4.832   6.075 -0.1531 -0.4048  1.2607
   25bbb     H6  729   2.815   4.960   6.189 -0.3267 -0.3140  0.0772
   25bbb     C4  730   2.858   4.996   5.976  0.1428 -0.2263  0.2833
   25bbb     H7  731   2.864   5.102   6.003  1.3344 -0.4623  0.9920
   25bbb     H8  732   2.804   4.990   5.880  0.3925  0.2624  0.1114
   25bbb     C5  733   2.412   5.027   5.959  0.5207  0.1544  0.0040
   25bbb     H9  734   2.419   5.137   5.963  0.1575  0.2566 -1.5301
   25bbb    H10  735   2.342   4.999   6.038 -0.3880  0.5590 -0.6422
   25bbb     C6  736   2.599   4.953   6.355  0.1824  0.1778 -0.1521
   25bbb    H11  737   2.583   5.061   6.360 -0.0659  0.1346  0.0150
   25bbb    H12  738   2.706   4.935   6.370 -0.0537 -1.2748 -0.0828
   25bbb     C7  739   2.995   4.935   5.970 -0.4054 -0.0071  0.0312
   25bbb    H13  740   3.018   4.915   6.075  0.1491 -0.8882 -0.2375
   25bbb    H14  741   3.062   5.009   5.925 -0.4776 -2.0947 -3.9553
   25bbb     C8  742   2.513   4.872   6.454 -0.1900  0.0018  0.0559
   25bbb    H15  743   2.537   4.765   6.445 -0.4141 -0.0026 -0.5463
   25bbb    H16  744   2.537   4.904   6.556 -1.2870  1.9058 -0.2343
   25bbb     C9  745   2.341   4.991   5.833  0.8215 -0.6300  0.7931
   25bbb    H17  746   2.326   4.883   5.825  2.2334 -0.8214  0.2377
   25bbb    H18  747   2.409   5.016   5.750  1.3114 -2.4151  0.6149
   25bbb     O1  748   2.997   4.813   5.890  0.2260  0.0663  0.2080
   25bbb    H19  749   2.622   5.088   6.138 -2.7048  0.7492 -1.6024
   26bbb     N1  750   3.223   5.362   5.161  0.0446 -0.0716  0.1756
   26bbb     C1  751   3.249   5.450   5.033 -0.1612  1.6401 -0.1268
   26bbb     H1  752   3.339   5.508   5.051  1.5543 -1.2159  1.1938
   26bbb     H2  753   3.158   5.510   5.022 -0.8427  0.6592  0.0143
   26bbb     C2  754   3.087   5.302   5.158 -0.9138  0.1164  0.7836
   26bbb     H3  755   3.090   5.219   5.228 -1.3817 -0.1490  0.4905
   26bbb     H4  756   3.087   5.257   5.059  0.3069 -3.6975  2.3707
   26bbb     C3  757   3.330   5.250   5.168 -0.5325  0.6631  0.0636
   26bbb     H5  758   3.337   5.195   5.074  0.6917  0.3087  0.3362
   26bbb     H6  759   3.303   5.181   5.248  0.2649 -1.2023 -1.2150
   26bbb     C4  760   3.467   5.303   5.203 -0.4393 -0.2209  0.3992
   26bbb     H7  761   3.493   5.384   5.134 -1.4341  0.5647  0.9235
   26bbb     H8  762   3.545   5.227   5.187  0.0157 -0.9453  4.7049
   26bbb     C5  763   3.259   5.372   4.899 -0.1855 -0.2410  0.3762
   26bbb     H9  764   3.177   5.300   4.885 -1.6479  1.1011  1.7019
   26bbb    H10  765   3.358   5.326   4.901  0.0083 -0.1866 -3.0273
   26bbb     C6  766   2.972   5.392   5.203 -0.0267  0.0684 -0.1775
   26bbb    H11  767   2.883   5.334   5.177  0.9196 -0.9442 -1.2178
   26bbb    H12  768   2.970   5.489   5.150  1.2757  0.6137  0.7116
   26bbb     C7  769   3.481   5.350   5.346  0.3158 -0.5433 -0.5328
   26bbb    H13  770   3.414   5.436   5.359  1.7492  0.6606 -0.8609
   26bbb    H14  771   3.584   5.385   5.357 -0.3650  2.1330 -1.9513
   26bbb     C8  772   2.977   5.423   5.349 -0.1074 -0.0271 -0.0063
   26bbb    H15  773   2.896   5.490   5.380 -0.0703 -0.2732  0.6360
   26bbb    H16  774   2.961   5.332   5.409  2.1659 -0.8492 -0.5584
   26bbb     C9  775   3.253   5.476   4.780 -0.7250 -0.0558  0.2155
   26bbb    H17  776   3.282   5.416   4.693  1.8207  0.7561  0.4325
   26bbb    H18  777   3.322   5.559   4.798  0.6378 -1.1266  0.0552
   26bbb     O1  778   3.452   5.249   5.444 -0.0260  0.6493  0.5279
   26bbb    H19  779   3.226   5.427   5.241 -0.2375  0.1273  0.0269
   27bbb     N1  780   6.588   4.203   4.655  0.2564  0.0342 -0.7080
   27bbb     C1  781   6.598   4.053   4.690  0.0232 -0.0198  0.6656
   27bbb     H1  782   6.636   4.004   4.600  0.3713  0.8319  0.3368
   27bbb     H2  783   6.494   4.023   4.704 -0.4226  1.0573 -0.1565
   27bbb     C2  784   6.535   4.224   4.508 -0.2548 -0.4698 -0.5104
   27bbb     H3  785   6.527   4.333   4.500  3.4451 -0.0336 -0.2712
   27bbb     H4  786   6.438   4.180   4.485 -0.8991  1.7718 -2.5508
   27bbb     C3  787   6.498   4.273   4.765  0.1767  0.1726 -0.4344
   27bbb     H5  788   6.551   4.256   4.859  0.9592  0.2571 -0.8574
   27bbb     H6  789   6.404   4.217   4.776  0.1568  0.2482 -0.2260
   27bbb     C4  790   6.465   4.414   4.740 -0.0431 -0.5176 -0.6639
   27bbb     H7  791   6.408   4.424   4.647 -0.4962 -0.0129 -0.3378
   27bbb     H8  792   6.550   4.476   4.710  0.4550 -0.7913  0.1496
   27bbb     C5  793   6.688   4.020   4.809  0.2702  0.3474 -0.4330
   27bbb     H9  794   6.649   4.080   4.893 -0.9853 -0.1997 -0.5902
   27bbb    H10  795   6.788   4.059   4.789  0.7468  0.1927  1.3883
   27bbb     C6  796   6.623   4.175   4.396 -0.4017 -0.7217  0.2620
   27bbb    H11  797   6.575   4.193   4.299 -1.1381  1.7008  1.0084
   27bbb    H12  798   6.644   4.068   4.402  1.0589 -0.4746  0.0714
   27bbb     C7  799   6.387   4.483   4.859 -0.3855 -0.0765 -0.0487
   27bbb    H13  800   6.351   4.584   4.837 -1.9727 -0.5188  0.4370
   27bbb    H14  801   6.444   4.487   4.953 -2.9875  0.3817  1.6136
   27bbb     C8  802   6.755   4.249   4.392  0.2622 -0.6622 -0.1408
   27bbb    H15  803   6.804   4.232   4.296 -0.5895 -0.7460 -0.5688
   27bbb    H16  804   6.740   4.358   4.400  0.9303 -0.6414  1.0952
   27bbb     C9  805   6.683   3.871   4.853 -0.3247  0.3190 -0.0907
   27bbb    H17  806   6.688   3.812   4.761 -2.0048 -2.0197  1.2210
   27bbb    H18  807   6.587   3.863   4.905 -0.7075 -0.4564 -0.8989
   27bbb     O1  808   6.278   4.398   4.884 -0.5094 -0.4139  0.1219
   27bbb    H19  809   6.682   4.242   4.642  0.3253  0.0721 -0.1185
   28bbb     N1  810   5.905   4.585   3.960 -0.1803  0.5585 -0.1864
   28bbb     C1  811   5.940   4.709   3.879  0.6117  0.1639  0.3824
   28bbb     H1  812   5.875   4.791   3.912 -1.8143 -1.4285 -0.1715
   28bbb     H2  813   5.903   4.677   3.782  0.2768 -1.0932  0.9046
   28bbb     C2  814   5.976   4.456   3.912  0.1642 -0.2289 -0.1913
   28bbb     H3  815   5.989   4.391   3.999 -0.2862  1.9157  1.5650
   28bbb     H4  816   6.078   4.487   3.888 -0.3563 -0.1131 -2.5681
   28bbb     C3  817   5.940   4.611   4.099 -0.0906 -0.8470 -0.5253
   28bbb     H5  818   6.040   4.655   4.106  0.2234 -1.6780  0.5104
   28bbb     H6  819   5.949   4.513   4.147  1.5890 -0.8094 -0.6802
   28bbb     C4  820   5.839   4.698   4.177  0.0918  0.3429  0.5740
   28bbb     H7  821   5.749   4.637   4.194  0.9056 -0.6906  1.3620
   28bbb     H8  822   5.817   4.786   4.117 -1.1176 -1.6460 -2.1091
   28bbb     C5  823   6.087   4.753   3.866 -0.3688 -0.2183  0.1857
   28bbb     H9  824   6.153   4.671   3.835  2.0265  1.4446  0.5409
   28bbb    H10  825   6.133   4.799   3.954  2.4547  0.5082 -1.5322
   28bbb     C6  826   5.915   4.367   3.804  0.4867  0.1748 -0.3586
   28bbb    H11  827   5.969   4.272   3.793  0.8775  0.3717 -0.1604
   28bbb    H12  828   5.916   4.417   3.707 -1.3575 -0.1783 -0.6109
   28bbb     C7  829   5.897   4.751   4.307 -0.2418  0.0101 -0.1114
   28bbb    H13  830   5.820   4.806   4.362 -2.4692 -1.6556 -1.4310
   28bbb    H14  831   5.977   4.825   4.293  0.9375 -1.3584 -1.0021
   28bbb     C8  832   5.765   4.335   3.835 -0.4721 -0.4198 -0.4740
   28bbb    H15  833   5.716   4.274   3.758 -1.0650 -1.6111  0.7921
   28bbb    H16  834   5.748   4.277   3.926 -0.0643  0.0961 -0.0664
   28bbb     C9  835   6.101   4.861   3.755  0.2290  0.4658 -0.2088
   28bbb    H17  836   6.037   4.950   3.765  0.1309  0.1821  2.0359
   28bbb    H18  837   6.066   4.802   3.668  2.1991 -1.0231 -0.0697
   28bbb     O1  838   5.935   4.641   4.392  0.2741  0.2121 -0.7004
   28bbb    H19  839   5.804   4.566   3.952 -0.0465  0.2022 -1.0965
   29bbb     N1  840   5.237   2.631   5.229 -0.6515  0.7619 -0.5586
   29bbb     C1  841   5.121   2.713   5.280 -0.0890  1.0098  0.4828
   29bbb     H1  842   5.069   2.752   5.191  0.2841 -0.9675 -0.6605
   29bbb     H2  843   5.168   2.792   5.338  2.0661 -1.6774  2.6642
   29bbb     C2  844   5.196   2.494   5.178 -0.1437 -0.7367  0.1193
   29bbb     H3  845   5.147   2.521   5.084  2.5655  0.6546 -0.9845
   29bbb     H4  846   5.133   2.457   5.259 -2.1421  1.0557 -0.5341
   29bbb     C3  847   5.307   2.703   5.112 -1.0269  0.5625 -0.0533
   29bbb     H5  848   5.247   2.692   5.021  0.1452  0.8504 -0.8810
   29bbb     H6  849   5.397   2.647   5.088 -1.3050  1.0079 -2.4542
   29bbb     C4  850   5.345   2.848   5.137  0.1805  0.3639  0.3086
   29bbb     H7  851   5.260   2.916   5.157  1.2219  2.4250 -1.7355
   29bbb     H8  852   5.384   2.878   5.039 -0.3025 -2.7532 -0.9671
   29bbb     C5  853   5.021   2.641   5.378  0.4362  0.1413  0.5929
   29bbb     H9  854   5.073   2.590   5.459  1.8836  0.8616  0.1522
   29bbb    H10  855   4.969   2.561   5.324  0.7364  1.6525 -2.1494
   29bbb     C6  856   5.307   2.394   5.143 -0.2353  0.3890 -0.8874
   29bbb    H11  857   5.370   2.376   5.231 -0.7747  0.8900 -0.3957
   29bbb    H12  858   5.371   2.432   5.062 -1.2525  1.1699 -1.3480
   29bbb     C7  859   5.444   2.872   5.251  0.0385  0.0716  0.4367
   29bbb    H13  860   5.542   2.833   5.220 -1.1679 -1.0861 -2.2127
   29bbb    H14  861   5.407   2.811   5.335 -1.7084 -0.6159 -0.7698
   29bbb     C8  862   5.249   2.266   5.092  0.0603 -0.1893 -0.5872
   29bbb    H15  863   5.185   2.279   5.003  0.7017 -0.4261 -1.0874
   29bbb    H16  864   5.336   2.207   5.062 -0.4687 -0.9097 -0.7562
   29bbb     C9  865   4.911   2.733   5.447  0.1975  0.6091  0.0728
   29bbb    H17  866   4.956   2.799   5.522  0.3295 -0.3857  0.8825
   29bbb    H18  867   4.843   2.670   5.506 -0.7502  1.6910  0.1646
   29bbb     O1  868   5.464   3.011   5.273  0.2541  0.1040  0.6847
   29bbb    H19  869   5.300   2.613   5.308 -2.2773 -1.9410  0.2465
   30bbb     N1  870   6.149   2.498   5.100 -0.4606  0.3881  0.4598
   30bbb     C1  871   6.119   2.422   4.972  0.4006 -0.1412 -0.0139
   30bbb     H1  872   6.200   2.419   4.899 -1.8494 -1.4634 -2.6268
   30bbb     H2  873   6.036   2.476   4.927  1.2275  0.5067 -0.8127
   30bbb     C2  874   6.258   2.598   5.087 -0.7413  0.0234  0.2647
   30bbb     H3  875   6.266   2.657   5.178 -0.0651  0.5529 -0.1220
   30bbb     H4  876   6.234   2.658   4.999 -1.9020 -0.8163 -0.0149
   30bbb     C3  877   6.016   2.559   5.152  0.3213  0.5389  0.1130
   30bbb     H5  878   6.039   2.611   5.245  1.8783 -0.2900  0.2282
   30bbb     H6  879   5.949   2.475   5.170  0.9949  0.7382  4.6073
   30bbb     C4  880   5.936   2.664   5.065 -0.1555 -0.7211  0.7490
   30bbb     H7  881   5.867   2.613   4.996  1.2416 -1.2888 -0.2528
   30bbb     H8  882   6.006   2.709   4.994 -0.5768 -0.5474  0.4403
   30bbb     C5  883   6.073   2.275   4.989  0.3115 -0.7969  0.5510
   30bbb     H9  884   5.991   2.290   5.061 -0.4128  0.4362 -0.4890
   30bbb    H10  885   6.153   2.211   5.027  1.5518 -0.6443 -1.6396
   30bbb     C6  886   6.400   2.541   5.066  0.1467 -0.7656 -0.0246
   30bbb    H11  887   6.409   2.472   4.981  0.4971 -0.7793  0.0198
   30bbb    H12  888   6.421   2.479   5.155  2.6721 -1.6818 -1.1725
   30bbb     C7  889   5.881   2.775   5.154  0.5767  0.4945  0.1708
   30bbb    H13  890   5.966   2.813   5.212  1.3648  0.3137 -0.8497
   30bbb    H14  891   5.796   2.737   5.213  0.8825 -0.9625 -0.2930
   30bbb     C8  892   6.511   2.650   5.057  0.1565  0.5551 -0.3205
   30bbb    H15  893   6.503   2.697   4.958 -3.3081  0.3017 -0.2859
   30bbb    H16  894   6.492   2.731   5.129  0.3850  0.1819  0.1656
   30bbb     C9  895   6.029   2.215   4.855  0.5626  0.7960  0.2113
   30bbb    H17  896   6.104   2.142   4.822  0.7627  0.7892  0.6647
   30bbb    H18  897   6.025   2.288   4.773 -3.3620 -0.4338 -0.8857
   30bbb     O1  898   5.832   2.881   5.073 -0.1642  0.5652  0.3471
   30bbb    H19  899   6.181   2.424   5.164  1.6581 -0.8506 -1.8404
   31bbb     N1  900   2.691   6.650   8.189  0.5379 -0.7054 -0.0994
   31bbb     C1  901   2.625   6.743   8.292 -0.1584 -0.0307  0.3164
   31bbb     H1  902   2.570   6.819   8.237  1.1742 -0.5889 -1.9059
   31bbb     H2  903   2.709   6.789   8.345  0.2414 -1.6124  1.1097
   31bbb     C2  904   2.580   6.603   8.096 -0.0186 -0.0641 -0.5086
   31bbb     H3  905   2.576   6.664   8.006 -0.0133  2.3469  1.0410
   31bbb     H4  906   2.482   6.613   8.142  1.2172  0.8822  2.1029
   31bbb     C3  907   2.794   6.718   8.110  0.0489 -0.0867 -0.2401
   31bbb     H5  908   2.843   6.777   8.188 -1.4194  0.2635  0.4431
   31bbb     H6  909   2.740   6.776   8.034 -0.9154 -3.0562 -1.9921
   31bbb     C4  910   2.920   6.646   8.058  0.8099  0.1420 -0.5338
   31bbb     H7  911   2.893   6.590   7.968  1.2720  0.2481 -0.7401
   31bbb     H8  912   2.958   6.591   8.145 -0.1976 -0.0298 -0.1896
   31bbb     C5  913   2.530   6.674   8.383 -0.7439 -0.0773  0.5164
   31bbb     H9  914   2.579   6.585   8.423  1.2079  0.4469 -0.6151
   31bbb    H10  915   2.453   6.634   8.315  1.6069 -0.3677 -2.1434
   31bbb     C6  916   2.594   6.451   8.057  0.8634 -0.4197 -0.0263
   31bbb    H11  917   2.697   6.429   8.026  0.3532 -1.7905 -0.8396
   31bbb    H12  918   2.532   6.446   7.966 -1.0309  1.3262  1.0801
   31bbb     C7  919   3.031   6.748   8.005 -0.1353  0.4233  0.4103
   31bbb    H13  920   2.996   6.850   7.985 -2.0453 -0.1099  0.8106
   31bbb    H14  921   3.072   6.707   7.912 -0.8889 -2.1517  1.1247
   31bbb     C8  922   2.543   6.365   8.177 -0.4043 -0.1380  0.4579
   31bbb    H15  923   2.527   6.265   8.134 -0.1267  0.2659 -0.5969
   31bbb    H16  924   2.608   6.365   8.266  2.5417 -0.3817 -1.5664
   31bbb     C9  925   2.475   6.768   8.490 -0.1906 -0.1463 -0.7040
   31bbb    H17  926   2.550   6.798   8.565 -0.4469 -0.0916 -0.4707
   31bbb    H18  927   2.399   6.707   8.540  0.6731 -0.1710  0.6383
   31bbb     O1  928   3.127   6.753   8.115  0.2016 -0.2768  0.3341
   31bbb    H19  929   2.726   6.568   8.241 -0.2613 -1.7740 -1.1838
   32bbb     N1  930   3.417   6.764   9.047 -0.0421  0.3173  0.0075
   32bbb     C1  931   3.274   6.707   9.052 -1.0196  0.1053  0.3006
   32bbb     H1  932   3.262   6.695   9.160  1.7908 -2.3732  0.4578
   32bbb     H2  933   3.265   6.610   9.002 -0.3963  0.2442 -0.0913
   32bbb     C2  934   3.462   6.801   9.191 -0.2114  0.5963 -0.3487
   32bbb     H3  935   3.564   6.835   9.173  0.2891 -1.5728 -2.0270
   32bbb     H4  936   3.462   6.703   9.239  1.1230 -0.1950 -1.8466
   32bbb     C3  937   3.506   6.664   8.971 -0.0178 -0.6766 -0.7446
   32bbb     H5  938   3.490   6.563   9.008  1.0419 -0.9437 -1.0102
   32bbb     H6  939   3.605   6.695   9.005  0.1784  0.2980 -2.1096
   32bbb     C4  940   3.507   6.681   8.821 -0.6403 -0.1067  0.5397
   32bbb     H7  941   3.530   6.784   8.792 -0.8852 -0.3609 -0.6139
   32bbb     H8  942   3.403   6.662   8.793 -1.1323  0.4376  1.9340
   32bbb     C5  943   3.159   6.783   8.996  0.4040  0.5973 -0.2078
   32bbb     H9  944   3.174   6.787   8.887  1.3847 -1.9161 -0.2475
   32bbb    H10  945   3.162   6.885   9.036 -0.2645  0.6628 -0.3171
   32bbb     C6  946   3.376   6.909   9.269  0.0964 -0.1483 -0.1654
   32bbb    H11  947   3.278   6.864   9.289  1.0329 -3.2300 -1.8249
   32bbb    H12  948   3.369   6.996   9.202  0.5187  0.4229  0.5170
   32bbb     C7  949   3.596   6.572   8.759 -0.5304 -0.6636 -0.0662
   32bbb    H13  950   3.577   6.472   8.799  0.8117 -0.5887  0.8228
   32bbb    H14  951   3.697   6.588   8.800  0.1705 -0.6253 -1.7465
   32bbb     C8  952   3.429   6.959   9.403 -0.8318  0.6387 -0.0193
   32bbb    H15  953   3.361   7.038   9.437 -0.2454  0.1294  2.5858
   32bbb    H16  954   3.428   6.880   9.480 -0.5651  1.5185  0.9106
   32bbb     C9  955   3.022   6.732   9.038  0.2772  0.3307  0.1828
   32bbb    H17  956   3.019   6.634   8.987  0.7478  1.5629 -2.4202
   32bbb    H18  957   2.938   6.794   9.004 -1.0081 -1.3333  0.2095
   32bbb     O1  958   3.590   6.582   8.620 -0.2582 -0.2726  0.4487
   32bbb    H19  959   3.418   6.850   8.990 -0.0217 -0.8976 -1.9055
   33bbb     N1  960   3.309   7.712   7.096  0.0363 -0.2891  0.2828
   33bbb     C1  961   3.202   7.819   7.098  0.1900 -0.3788 -0.7621
   33bbb     H1  962   3.208   7.878   7.007  0.1900 -0.1453 -0.6120
   33bbb     H2  963   3.228   7.887   7.179  1.5423 -0.2942 -1.2300
   33bbb     C2  964   3.442   7.774   7.052  0.0298  0.4461  0.0659
   33bbb     H3  965   3.421   7.830   6.961  2.1684 -0.0629 -0.7924
   33bbb     H4  966   3.507   7.694   7.018 -0.0057  0.8867 -1.0884
   33bbb     C3  967   3.313   7.652   7.241  0.2137 -0.0147  0.1947
   33bbb     H5  968   3.219   7.620   7.286  0.0082  2.0362  1.3336
   33bbb     H6  969   3.349   7.731   7.308  0.6597 -0.5052  0.5457
   33bbb     C4  970   3.418   7.535   7.242 -0.2554  0.0630 -0.3387
   33bbb     H7  971   3.517   7.568   7.208 -0.3508 -1.3454 -2.1552
   33bbb     H8  972   3.387   7.461   7.167  1.4688  0.5162 -1.5556
   33bbb     C5  973   3.057   7.766   7.127  0.7033 -0.8996 -0.9983
   33bbb     H9  974   2.989   7.836   7.177 -1.2225 -1.2626 -2.9761
   33bbb    H10  975   3.043   7.677   7.189 -0.9796  0.6742  1.0441
   33bbb     C6  976   3.520   7.865   7.147  0.0186 -0.4396  0.0116
   33bbb    H11  977   3.536   7.831   7.250  3.9388  0.8026 -0.0553
   33bbb    H12  978   3.458   7.955   7.160 -1.1666 -1.5484  2.6711
   33bbb     C7  979   3.435   7.473   7.377 -0.0994  0.8779 -0.0106
   33bbb    H13  980   3.347   7.416   7.409  0.7620 -0.3905  0.1644
   33bbb    H14  981   3.462   7.550   7.451 -0.5399  0.3517  0.7139
   33bbb     C8  982   3.659   7.913   7.093  0.0896  0.2884  0.5803
   33bbb    H15  983   3.689   7.997   7.157 -2.7280  0.5940  1.6378
   33bbb    H16  984   3.730   7.830   7.099 -1.0101 -0.5994  2.1116
   33bbb     C9  985   2.989   7.706   7.004 -0.0372  0.0968 -0.0839
   33bbb    H17  986   2.880   7.698   7.010 -0.1293  0.3213 -1.2249
   33bbb    H18  987   3.032   7.605   6.993 -0.5549 -0.2284  0.7182
   33bbb     O1  988   3.544   7.380   7.370  0.2833  0.3219 -0.0043
   33bbb    H19  989   3.292   7.638   7.027  0.7491 -0.4040  0.2297
   34bbb     N1  990   3.862   7.268   8.187  0.0993  0.2943 -0.2142
   34bbb     C1  991   3.926   7.253   8.322  0.0955 -0.2507  0.2644
   34bbb     H1  992   3.946   7.146   8.337  3.5888  0.1516 -0.7157
   34bbb     H2  993   3.845   7.270   8.394  0.1901  1.0596  0.0697
   34bbb     C2  994   3.800   7.404   8.153 -0.1092  0.2179  0.0598
   34bbb     H3  995   3.803   7.429   8.047 -1.8402  0.8895  0.1219
   34bbb     H4  996   3.858   7.481   8.205  2.2219 -0.3411 -1.5409
   34bbb     C3  997   3.967   7.252   8.067  0.1603 -0.5576 -0.0393
   34bbb     H5  998   4.049   7.322   8.085 -1.1036  1.0432 -0.3055
   34bbb     H6  999   3.920   7.292   7.977  0.4773 -0.9035 -0.3625
   34bbb     C4 1000   4.026   7.111   8.040 -0.4099  0.4218 -1.2110
   34bbb     H7 1001   3.944   7.044   8.013 -1.2925  1.2621 -0.6899
   34bbb     H8 1002   4.071   7.081   8.136 -0.9418  2.6580 -0.2060
   34bbb     C5 1003   4.051   7.338   8.356  0.2294  0.1890  0.2308
   34bbb     H9 1004   4.031   7.446   8.350  2.2210  0.5129 -2.6410
   34bbb    H10 1005   4.124   7.323   8.275 -1.7828  1.5231 -1.9605
   34bbb     C6 1006   3.654   7.415   8.192  0.4774 -0.5050 -0.0495
   34bbb    H11 1007   3.601   7.340   8.131 -0.1969 -0.7792  0.8651
   34bbb    H12 1008   3.613   7.513   8.164  0.5561 -0.9251 -1.7791
   34bbb     C7 1009   4.137   7.102   7.926  0.5007 -0.1478 -0.1519
   34bbb    H13 1010   4.160   6.997   7.906 -0.6730 -0.0942 -2.0120
   34bbb    H14 1011   4.235   7.140   7.957  0.7703 -1.6096  0.8730
   34bbb     C8 1012   3.614   7.388   8.340 -0.1778  0.2179  0.3634
   34bbb    H15 1013   3.517   7.436   8.359 -0.3837 -0.5979  1.4738
   34bbb    H16 1014   3.607   7.279   8.355  0.4567 -0.7070 -4.4197
   34bbb     C9 1015   4.121   7.306   8.492  1.0134 -0.0394  0.2601
   34bbb    H17 1016   4.151   7.201   8.504 -1.7390 -0.7859  1.6038
   34bbb    H18 1017   4.047   7.338   8.566 -2.4954 -3.0043 -1.6478
   34bbb     O1 1018   4.096   7.170   7.801  0.4574  0.5617 -0.9142
   34bbb    H19 1019   3.779   7.208   8.178 -0.2243  0.9453 -2.1012
   35bbb     N1 1020   7.073   6.988   7.054  0.4819  0.0425  0.3336
   35bbb     C1 1021   7.088   7.141   7.060 -0.3932 -0.3132 -0.4634
   35bbb     H1 1022   7.176   7.165   7.121 -1.6098 -1.3791  1.8244
   35bbb     H2 1023   7.003   7.187   7.111 -0.4113 -0.9356  0.0713
   35bbb     C2 1024   7.095   6.931   7.192  0.1870  0.2733  0.6377
   35bbb     H3 1025   7.067   6.825   7.182 -1.3219  0.8392 -2.3778
   35bbb     H4 1026   7.027   6.971   7.268 -0.4770 -0.6611  0.5586
   35bbb     C3 1027   6.925   6.960   7.020 -0.4706 -0.6849 -0.2836
   35bbb     H5 1028   6.904   7.021   6.933  0.8542 -2.7073 -2.1345
   35bbb     H6 1029   6.859   6.997   7.099 -0.9582 -0.9977 -0.5397
   35bbb     C4 1030   6.902   6.811   6.987  0.0202  0.5331 -0.4095
   35bbb     H7 1031   6.916   6.754   7.080 -0.2271  0.7261 -0.2515
   35bbb     H8 1032   6.963   6.779   6.901 -0.5501 -0.1297 -0.5844
   35bbb     C5 1033   7.118   7.225   6.928  0.0574  0.7986 -0.7378
   35bbb     H9 1034   7.132   7.332   6.949  0.0899  0.6783 -0.1551
   35bbb    H10 1035   7.038   7.212   6.854 -0.6380 -0.8741  0.2665
   35bbb     C6 1036   7.239   6.941   7.239  0.6740 -0.3190 -0.2013
   35bbb    H11 1037   7.253   6.889   7.335 -0.7089  0.3741  0.4086
   35bbb    H12 1038   7.265   7.047   7.255  2.9020  0.0246 -4.5311
   35bbb     C7 1039   6.755   6.795   6.938 -0.8976  0.0442  0.4292
   35bbb    H13 1040   6.738   6.720   6.859 -0.3729 -0.8978  1.1891
   35bbb    H14 1041   6.720   6.885   6.886  1.7503  0.0368 -1.5453
   35bbb     C8 1042   7.335   6.898   7.126  0.1494  0.2257 -0.2613
   35bbb    H15 1043   7.327   6.976   7.049 -1.1309  0.3156 -0.0537
   35bbb    H16 1044   7.434   6.891   7.173  0.4914  0.9282 -0.8653
   35bbb     C9 1045   7.247   7.169   6.854  0.9335  0.4304  0.0744
   35bbb    H17 1046   7.261   7.226   6.761  1.8146  1.7695  0.9861
   35bbb    H18 1047   7.235   7.064   6.826 -1.8819  0.4023  1.1303
   35bbb     O1 1048   6.682   6.765   7.063 -0.2277  0.4079 -0.5815
   35bbb    H19 1049   7.138   6.939   6.991  0.8751  0.3132  0.5216
   36bbb     N1 1050   6.639   6.784   8.044  0.1283  0.0756 -0.4948
   36bbb     C1 1051   6.751   6.870   7.986  1.0775  0.2680  0.0548
   36bbb     H1 1052   6.744   6.956   8.052  1.6321  0.0021  0.4649
   36bbb     H2 1053   6.737   6.886   7.879 -1.5759 -0.2950  0.2591
   36bbb     C2 1054   6.528   6.872   8.085  0.1072  0.4653  0.0674
   36bbb     H3 1055   6.446   6.804   8.108  2.5143 -2.4694  0.5484
   36bbb     H4 1056   6.509   6.951   8.012 -0.4055 -0.2689 -0.6063
   36bbb     C3 1057   6.591   6.692   7.929  0.7037  0.5552 -0.8557
   36bbb     H5 1058   6.686   6.647   7.900  0.2896  0.3285 -1.8958
   36bbb     H6 1059   6.557   6.764   7.854 -1.1065  0.4869 -0.1679
   36bbb     C4 1060   6.472   6.596   7.949  0.1937 -0.3309  0.4009
   36bbb     H7 1061   6.384   6.658   7.969  0.0144 -0.5068  0.1563
   36bbb     H8 1062   6.503   6.530   8.031 -1.1390  0.1258  1.3152
   36bbb     C5 1063   6.889   6.803   8.001  0.2913 -0.2014 -0.2397
   36bbb     H9 1064   6.880   6.708   7.945 -3.4873  0.3537 -0.8829
   36bbb    H10 1065   6.896   6.771   8.106 -3.3456 -0.4617  0.0531
   36bbb     C6 1066   6.556   6.934   8.219 -0.2471 -0.4811  0.2475
   36bbb    H11 1067   6.634   7.011   8.214 -1.2497  0.4632 -3.1276
   36bbb    H12 1068   6.590   6.846   8.276  1.7616 -0.4989 -0.8885
   36bbb     C7 1069   6.442   6.509   7.828  0.3554  0.3265 -0.0244
   36bbb    H13 1070   6.361   6.441   7.857  1.2036 -0.4103  0.7084
   36bbb    H14 1071   6.530   6.443   7.820  1.0151  0.6126  3.3446
   36bbb     C8 1072   6.430   6.993   8.282 -0.2163  0.9165  0.2399
   36bbb    H15 1073   6.356   6.912   8.281 -1.3344  1.8854 -1.2943
   36bbb    H16 1074   6.459   7.013   8.385  1.2981  0.7466 -0.1279
   36bbb     C9 1075   7.007   6.892   7.953  0.1448  0.6962  0.3630
   36bbb    H17 1076   6.972   6.931   7.857 -1.3569 -0.3390  0.4447
   36bbb    H18 1077   7.096   6.830   7.938  0.0444  0.6328  0.0219
   36bbb     O1 1078   6.419   6.609   7.722  0.1863  0.3072 -0.3252
   36bbb    H19 1079   6.671   6.720   8.117 -1.4378  0.3771  0.4930
   37bbb     N1 1080   6.081   7.128   5.617  0.4502 -0.6833  0.4823
   37bbb     C1 1081   6.132   7.005   5.541  0.5810  0.3170  0.0916
   37bbb     H1 1082   6.214   6.967   5.602  1.0585 -1.0878 -1.3508
   37bbb     H2 1083   6.188   7.036   5.453  0.3142  0.2978 -0.0852
   37bbb     C2 1084   5.953   7.192   5.553  0.3879 -0.3869  0.4162
   37bbb     H3 1085   5.919   7.277   5.613 -2.8355 -1.1395 -0.1284
   37bbb     H4 1086   5.874   7.117   5.557 -0.9888  1.0410  1.4555
   37bbb     C3 1087   6.048   7.086   5.760  0.2812  0.5306 -0.3287
   37bbb     H5 1088   5.968   7.013   5.748  0.7576 -0.1546  0.5405
   37bbb     H6 1089   5.996   7.165   5.815 -2.4316 -1.1278 -0.3061
   37bbb     C4 1090   6.165   7.048   5.850 -0.1938  0.1570 -0.5908
   37bbb     H7 1091   6.239   7.129   5.848 -0.3126  0.3280  0.8484
   37bbb     H8 1092   6.206   6.953   5.813  0.3812  0.2265 -0.1467
   37bbb     C5 1093   6.039   6.888   5.503  0.7080  0.5726 -0.7596
   37bbb     H9 1094   5.955   6.921   5.440 -0.2750  0.3013  0.3791
   37bbb    H10 1095   5.992   6.847   5.593  1.4388 -1.1136 -1.0938
   37bbb     C6 1096   5.963   7.249   5.409 -0.2128 -0.0063 -0.1868
   37bbb    H11 1097   5.867   7.292   5.378 -0.4231  0.5078  1.1011
   37bbb    H12 1098   5.997   7.171   5.341  1.6142  0.5413  0.0380
   37bbb     C7 1099   6.142   7.022   6.001  0.3088  0.0358 -0.5106
   37bbb    H13 1100   6.227   6.999   6.066 -1.2178 -0.0238  1.5955
   37bbb    H14 1101   6.081   6.932   6.014  0.1527  0.3158  0.8720
   37bbb     C8 1102   6.072   7.356   5.392  0.2856 -0.0449 -0.2189
   37bbb    H15 1103   6.053   7.414   5.300 -1.7020  1.7770  1.2308
   37bbb    H16 1104   6.065   7.431   5.472  3.3881  1.9121 -1.5731
   37bbb     C9 1105   6.101   6.772   5.425 -0.7258 -0.1103  0.5182
   37bbb    H17 1106   6.202   6.756   5.465  0.1574  3.9786  0.4095
   37bbb    H18 1107   6.102   6.807   5.321 -0.7761  0.0360  0.5665
   37bbb     O1 1108   6.070   7.142   6.056  0.0347  0.6094  0.6989
   37bbb    H19 1109   6.159   7.195   5.626 -1.7530  2.2707 -0.7917
   38bbb     N1 1110   5.219   8.040   5.870 -0.2576  0.0345 -0.6135
   38bbb     C1 1111   5.257   8.184   5.849  0.1942 -0.0168 -0.6872
   38bbb     H1 1112   5.335   8.191   5.774  1.6456  2.4339  0.9151
   38bbb     H2 1113   5.291   8.226   5.944 -0.2394  0.8729 -0.9159
   38bbb     C2 1114   5.173   7.983   5.741 -0.1986  0.2913 -0.4694
   38bbb     H3 1115   5.258   7.961   5.676 -1.5791  0.8335 -2.5529
   38bbb     H4 1116   5.110   8.059   5.694 -1.5364 -0.4842  0.0237
   38bbb     C3 1117   5.337   7.956   5.915  1.2634  0.2013  0.0248
   38bbb     H5 1118   5.422   7.985   5.852  1.7445  0.2021  0.6647
   38bbb     H6 1119   5.309   7.850   5.911  0.0775  0.4122  1.7159
   38bbb     C4 1120   5.388   7.977   6.053 -0.1593 -0.1070  0.4314
   38bbb     H7 1121   5.315   7.953   6.132 -0.0800 -0.0444  0.5253
   38bbb     H8 1122   5.398   8.084   6.076 -1.5915  0.1013  0.1849
   38bbb     C5 1123   5.143   8.290   5.802 -0.4484 -0.6674  1.0550
   38bbb     H9 1124   5.075   8.288   5.888 -2.6401  0.6374 -0.5181
   38bbb    H10 1125   5.088   8.257   5.713 -0.9778 -1.8503  1.7945
   38bbb     C6 1126   5.081   7.861   5.765 -0.4374  0.6697 -0.5924
   38bbb    H11 1127   5.000   7.886   5.835 -0.5280 -0.6585 -0.1860
   38bbb    H12 1128   5.141   7.780   5.808  1.7502  2.3642 -0.2990
   38bbb     C7 1129   5.525   7.902   6.077 -0.8060  0.1469 -0.2910
   38bbb    H13 1130   5.568   7.943   6.170 -0.0348 -2.3526  0.5231
   38bbb    H14 1131   5.598   7.915   5.996 -1.2352 -0.0290 -0.7066
   38bbb     C8 1132   5.021   7.819   5.630  0.0214  0.6609  0.1449
   38bbb    H15 1133   5.095   7.764   5.571 -1.9017 -0.2362 -1.5940
   38bbb    H16 1134   4.935   7.753   5.645  0.5236  0.0240  0.2469
   38bbb     C9 1135   5.207   8.431   5.785  0.6757 -0.0122 -0.6393
   38bbb    H17 1136   5.131   8.504   5.751  0.3876  1.3593  2.5999
   38bbb    H18 1137   5.296   8.431   5.721  0.0357  0.5316 -1.5563
   38bbb     O1 1138   5.504   7.759   6.105  0.6489  0.0486  0.1871
   38bbb    H19 1139   5.145   8.042   5.942 -1.3663 -1.6765 -1.6356
   39bbb     N1 1140   5.530   2.782   8.140 -0.4917  0.3030 -0.7384
   39bbb     C1 1141   5.661   2.830   8.202  0.3016  0.1808  0.8541
   39bbb     H1 1142   5.687   2.741   8.259  0.7863 -1.7280 -2.1306
   39bbb     H2 1143   5.653   2.920   8.263  1.8450  0.2520  0.9868
   39bbb     C2 1144   5.554   2.650   8.078  0.0611  1.2655 -0.1698
   39bbb     H3 1145   5.523   2.585   8.161 -3.7529  0.5057 -1.9621
   39bbb     H4 1146   5.661   2.632   8.062  0.2656  0.1586  2.0682
   39bbb     C3 1147   5.426   2.776   8.252  0.4226  0.5161  0.0486
   39bbb     H5 1148   5.466   2.702   8.321  1.1439 -0.0014 -0.9080
   39bbb     H6 1149   5.336   2.726   8.216  0.2929 -0.4190  1.5981
   39bbb     C4 1150   5.398   2.913   8.315 -0.2534 -0.3788 -1.6012
   39bbb     H7 1151   5.474   2.945   8.387 -0.6639 -1.5461 -0.6069
   39bbb     H8 1152   5.309   2.910   8.380  0.3740  1.0133 -0.6443
   39bbb     C5 1153   5.770   2.863   8.093  0.4327 -0.1023 -0.0091
   39bbb     H9 1154   5.736   2.948   8.033  0.1596 -0.8508 -0.9330
   39bbb    H10 1155   5.794   2.777   8.030 -1.5546 -0.9794  0.3473
   39bbb     C6 1156   5.474   2.613   7.951  0.2311  0.6185 -0.2938
   39bbb    H11 1157   5.369   2.614   7.981  0.1984 -0.3443 -0.3335
   39bbb    H12 1158   5.499   2.511   7.919 -3.4190 -0.8708  1.0559
   39bbb     C7 1159   5.384   3.034   8.226 -0.2272 -0.7424  0.6811
   39bbb    H13 1160   5.482   3.058   8.183 -0.4938  1.5623  1.2575
   39bbb    H14 1161   5.345   3.124   8.275  2.6510  2.0368 -1.6886
   39bbb     C8 1162   5.483   2.724   7.842  0.4335  0.2300  0.1862
   39bbb    H15 1163   5.421   2.695   7.757  0.4331 -1.2933  0.6773
   39bbb    H16 1164   5.434   2.814   7.882 -2.4912 -1.0682 -0.2821
   39bbb     C9 1165   5.902   2.894   8.156 -0.6122 -0.3844  0.1133
   39bbb    H17 1166   5.876   2.980   8.219 -0.4531 -1.2401  1.3774
   39bbb    H18 1167   5.983   2.914   8.086 -0.4370 -2.9025 -0.5149
   39bbb     O1 1168   5.300   2.989   8.115  0.1177 -0.6709 -0.0016
   39bbb    H19 1169   5.506   2.847   8.064  1.7118  1.1572 -0.7985
   40bbb     N1 1170   4.651   2.435   7.893 -0.0674  0.0533  0.1904
   40bbb     C1 1171   4.557   2.526   7.811  0.1274 -0.1040  0.6247
   40bbb     H1 1172   4.620   2.605   7.769 -1.2091  1.0663  0.7442
   40bbb     H2 1173   4.491   2.565   7.888  2.6704  1.7465  2.0230
   40bbb     C2 1174   4.756   2.374   7.812 -0.0003  0.5460 -0.4451
   40bbb     H3 1175   4.835   2.448   7.801 -1.0776  1.7876 -0.0928
   40bbb     H4 1176   4.724   2.351   7.710 -0.1012  0.8211 -0.4777
   40bbb     C3 1177   4.708   2.523   8.005  0.2986  0.2392  0.0411
   40bbb     H5 1178   4.644   2.612   8.012 -1.5620 -1.1428  1.7935
   40bbb     H6 1179   4.810   2.557   7.986 -0.1135  0.9132 -1.0753
   40bbb     C4 1180   4.715   2.469   8.150 -0.8583  0.1645 -0.5818
   40bbb     H7 1181   4.794   2.394   8.161 -0.6434  0.6529  2.0853
   40bbb     H8 1182   4.618   2.428   8.180 -1.6019  1.2391 -1.4417
   40bbb     C5 1183   4.466   2.461   7.705 -0.5477 -0.7841 -0.8579
   40bbb     H9 1184   4.532   2.435   7.622  0.8463  0.9473 -0.3441
   40bbb    H10 1185   4.393   2.534   7.667 -2.2839 -1.7519  0.4762
   40bbb     C6 1186   4.816   2.247   7.867 -0.3476 -0.5125 -0.0237
   40bbb    H11 1187   4.877   2.282   7.950  0.6979  2.0116 -1.7401
   40bbb    H12 1188   4.887   2.219   7.789 -0.1616 -0.2988  0.0700
   40bbb     C7 1189   4.751   2.581   8.253 -0.4331 -0.5813 -0.1794
   40bbb    H13 1190   4.756   2.537   8.354 -0.8063  0.1649  0.1784
   40bbb    H14 1191   4.665   2.650   8.259  0.3669  0.3946  0.3690
   40bbb     C8 1192   4.717   2.128   7.889  0.5740  0.0163 -0.6700
   40bbb    H15 1193   4.656   2.094   7.805 -0.8337 -3.9929  1.6984
   40bbb    H16 1194   4.760   2.029   7.909  3.0397  0.8089 -1.7331
   40bbb     C9 1195   4.380   2.344   7.754 -0.2429 -0.1128  0.0478
   40bbb    H17 1196   4.313   2.379   7.833 -0.7563  0.3665 -0.5836
   40bbb    H18 1197   4.435   2.259   7.796 -1.8597 -0.8353  0.8135
   40bbb     O1 1198   4.881   2.657   8.209  0.4998  0.4619  0.1473
   40bbb    H19 1199   4.606   2.350   7.930  0.1231 -0.6759 -1.1624
   41bbb     N1 1200   3.507   3.151   8.897  0.0377  0.1173  0.1515
   41bbb     C1 1201   3.434   3.031   8.946 -0.6109  0.6315  0.0788
   41bbb     H1 1202   3.407   2.980   8.853 -2.3657  0.3709  0.7105
   41bbb     H2 1203   3.345   3.067   8.997 -0.4914  0.7223  0.2226
   41bbb     C2 1204   3.418   3.231   8.808  0.7048 -0.6519  0.2684
   41bbb     H3 1205   3.471   3.322   8.784  0.4815 -0.1700  1.4974
   41bbb     H4 1206   3.322   3.259   8.852 -0.6161 -1.9726 -1.6183
   41bbb     C3 1207   3.581   3.224   9.008 -0.5788 -0.7040 -0.1902
   41bbb     H5 1208   3.649   3.153   9.055 -0.5067 -0.4689  0.0626
   41bbb     H6 1209   3.510   3.265   9.080  1.0295  0.0553  1.0302
   41bbb     C4 1210   3.669   3.345   8.963  0.1012  0.0576  0.1191
   41bbb     H7 1211   3.605   3.431   8.941 -1.0994 -0.7659  0.2786
   41bbb     H8 1212   3.720   3.320   8.870 -1.8116  0.2041 -1.0241
   41bbb     C5 1213   3.518   2.938   9.033  0.5379 -0.3304  0.1513
   41bbb     H9 1214   3.551   2.998   9.118  0.1290 -0.7097  0.5846
   41bbb    H10 1215   3.605   2.905   8.975  1.4255  2.2554 -0.0827
   41bbb     C6 1216   3.379   3.179   8.671  0.1354  0.1884  0.3610
   41bbb    H11 1217   3.315   3.090   8.678  0.8904 -0.3223  0.9732
   41bbb    H12 1218   3.474   3.147   8.626 -0.5059 -2.1570  0.5300
   41bbb     C7 1219   3.787   3.398   9.058 -0.0744 -0.0138 -0.1208
   41bbb    H13 1220   3.849   3.317   9.098 -0.7467 -0.4281  0.1122
   41bbb    H14 1221   3.744   3.452   9.143  1.2833 -0.6181  0.9876
   41bbb     C8 1222   3.303   3.281   8.578  0.6038  0.5783 -0.2230
   41bbb    H15 1223   3.195   3.290   8.593  0.7188  0.3088  0.8928
   41bbb    H16 1224   3.322   3.384   8.613 -1.2183  0.3836  1.5254
   41bbb     C9 1225   3.445   2.803   9.078 -0.6075  0.3656  0.4466
   41bbb    H17 1226   3.520   2.740   9.128  0.9909  0.6085 -1.5124
   41bbb    H18 1227   3.408   2.747   8.991 -0.9395 -0.4639  1.1029
   41bbb     O1 1228   3.854   3.489   8.975 -0.1558  0.2927 -0.0538
   41bbb    H19 1229   3.579   3.111   8.835  1.2744 -1.7432  2.5996
   42bbb     N1 1230   3.382   4.229   8.655  0.5090  0.3463 -0.2825
   42bbb     C1 1231   3.465   4.354   8.672  0.2481  0.5375 -0.7377
   42bbb     H1 1232   3.395   4.413   8.732 -0.6993 -0.1516 -1.1381
   42bbb     H2 1233   3.478   4.405   8.576  1.6845  0.1268 -0.7843
   42bbb     C2 1234   3.264   4.267   8.572 -0.6677  0.6264 -0.2036
   42bbb     H3 1235   3.222   4.176   8.530 -0.3746  0.4841 -0.1831
   42bbb     H4 1236   3.298   4.334   8.493 -0.5426  2.5535  1.3811
   42bbb     C3 1237   3.462   4.136   8.563 -0.2007  0.0997 -0.2031
   42bbb     H5 1238   3.569   4.143   8.582 -0.2221 -1.2984  0.5929
   42bbb     H6 1239   3.439   4.151   8.457  0.4173 -2.6959 -0.8117
   42bbb     C4 1240   3.435   3.984   8.574  0.3396  0.1142  0.6867
   42bbb     H7 1241   3.329   3.964   8.553  0.6104 -0.2445 -0.3947
   42bbb     H8 1242   3.459   3.961   8.679  2.8015  0.0397  0.1692
   42bbb     C5 1243   3.603   4.328   8.758  0.4048 -0.0069  0.1015
   42bbb     H9 1244   3.652   4.424   8.777 -0.6133  0.3850  0.8204
   42bbb    H10 1245   3.670   4.274   8.690  0.1341  1.7811 -1.7063
   42bbb     C6 1246   3.152   4.341   8.640  0.5605 -0.4243 -0.5380
   42bbb    H11 1247   3.185   4.428   8.698  0.7499 -0.3125 -0.8147
   42bbb    H12 1248   3.101   4.273   8.710 -0.7342 -0.0287 -1.0585
   42bbb     C7 1249   3.522   3.898   8.474 -0.1629  0.2587 -0.4918
   42bbb    H13 1250   3.499   3.932   8.373 -1.3737  1.3270  0.1136
   42bbb    H14 1251   3.489   3.793   8.477 -0.9916  0.4365  3.8580
   42bbb     C8 1252   3.040   4.391   8.547  0.0365  0.2556  0.2204
   42bbb    H15 1253   2.945   4.418   8.595 -1.1968  1.0618 -2.4792
   42bbb    H16 1254   3.072   4.492   8.520 -0.5574  1.2639  2.9390
   42bbb     C9 1255   3.590   4.253   8.895  0.0376 -0.4826 -0.4304
   42bbb    H17 1256   3.691   4.220   8.924 -0.7137 -2.5158  0.0019
   42bbb    H18 1257   3.531   4.161   8.884  1.0748 -1.2484  0.2054
   42bbb     O1 1258   3.663   3.913   8.505 -0.1954  0.1180 -0.6219
   42bbb    H19 1259   3.363   4.196   8.750 -1.2988 -0.1485 -0.7726
   43bbb     N1 1260   7.605   4.215   8.305  0.4320  0.3369 -0.1496
   43bbb     C1 1261   7.704   4.100   8.320  0.2221  0.3629  0.6426
   43bbb     H1 1262   7.791   4.149   8.365 -1.1813  1.2382  2.5521
   43bbb     H2 1263   7.733   4.063   8.221  1.3109  2.3953  0.1300
   43bbb     C2 1264   7.672   4.309   8.203  0.1892 -0.4785 -0.4405
   43bbb     H3 1265   7.628   4.283   8.107 -1.0694 -0.1101  0.0202
   43bbb     H4 1266   7.778   4.285   8.197  0.2873  0.1376 -1.5806
   43bbb     C3 1267   7.470   4.173   8.242  0.5075  0.2148  0.0846
   43bbb     H5 1268   7.476   4.065   8.260 -0.4072 -0.0994 -1.3354
   43bbb     H6 1269   7.470   4.193   8.135 -1.1667 -2.0844 -0.4249
   43bbb     C4 1270   7.337   4.235   8.296  0.0666 -0.1763  0.2931
   43bbb     H7 1271   7.335   4.339   8.260  0.5657 -0.7931 -1.6054
   43bbb     H8 1272   7.330   4.223   8.405 -1.0457 -0.2848  0.2225
   43bbb     C5 1273   7.660   3.983   8.405  0.9619  0.4053  0.0058
   43bbb     H9 1274   7.552   3.969   8.411  1.2197 -1.8692 -0.0603
   43bbb    H10 1275   7.683   4.005   8.511 -1.6192 -0.5783  0.8321
   43bbb     C6 1276   7.645   4.460   8.223 -1.4228 -0.3286 -0.1329
   43bbb    H11 1277   7.684   4.492   8.320  0.6516 -1.0056 -0.6946
   43bbb    H12 1278   7.537   4.479   8.223 -1.3890  0.2762 -2.6995
   43bbb     C7 1279   7.207   4.169   8.238 -0.3163 -0.0882  0.0991
   43bbb    H13 1280   7.199   4.061   8.258  0.4441 -0.6706 -2.3891
   43bbb    H14 1281   7.204   4.180   8.129 -0.8891 -0.2526  0.0945
   43bbb     C8 1282   7.705   4.557   8.117  0.2693  0.6230  0.2277
   43bbb    H15 1283   7.730   4.650   8.169 -0.1643  1.2860 -0.7279
   43bbb    H16 1284   7.803   4.529   8.076  0.1071 -0.3241  0.4605
   43bbb     C9 1285   7.736   3.853   8.371 -0.5494  0.1116  0.7304
   43bbb    H17 1286   7.704   3.826   8.269  0.0999  0.2734  0.4784
   43bbb    H18 1287   7.703   3.776   8.442  0.6751  0.7684  2.0693
   43bbb     O1 1288   7.089   4.240   8.299  0.3816  0.6056 -0.1199
   43bbb    H19 1289   7.595   4.266   8.395 -0.3707 -1.2248  0.6948
   44bbb     N1 1290   6.974   4.218   9.302 -0.2410 -0.0512 -0.3244
   44bbb     C1 1291   7.055   4.094   9.256 -0.1866 -0.6109 -0.6365
   44bbb     H1 1292   7.162   4.115   9.252  0.5477 -3.8427 -1.6521
   44bbb     H2 1293   7.010   4.080   9.158  0.6280  1.8161 -1.4269
   44bbb     C2 1294   7.053   4.279   9.415 -0.2053 -0.6640 -0.4759
   44bbb     H3 1295   7.151   4.314   9.382  0.0927 -0.2600  0.8096
   44bbb     H4 1296   7.076   4.197   9.482 -2.2886  1.0333  2.5734
   44bbb     C3 1297   6.977   4.330   9.196 -0.1125  0.2547  0.1908
   44bbb     H5 1298   7.076   4.350   9.156 -0.2767 -1.6457 -1.3122
   44bbb     H6 1299   6.936   4.420   9.242 -0.3227  0.2911 -0.0622
   44bbb     C4 1300   6.894   4.301   9.062  0.4182 -0.2337  0.6312
   44bbb     H7 1301   6.802   4.246   9.087 -1.1686  1.8362 -0.3141
   44bbb     H8 1302   6.956   4.234   9.002  1.7713  0.4865  1.1782
   44bbb     C5 1303   7.039   3.971   9.346 -0.5477 -0.4891  0.1839
   44bbb     H9 1304   6.955   3.907   9.315 -1.2539  0.2898  0.4394
   44bbb    H10 1305   7.018   3.991   9.451  1.3710 -3.1419  1.1754
   44bbb     C6 1306   6.996   4.395   9.500 -0.4944 -0.7570  0.2101
   44bbb    H11 1307   6.894   4.377   9.537 -0.6927 -0.4077 -0.1482
   44bbb    H12 1308   6.983   4.483   9.435  1.2104 -0.4123  0.3072
   44bbb     C7 1309   6.857   4.427   8.995 -0.4278 -0.7521 -0.0410
   44bbb    H13 1310   6.946   4.488   8.975 -2.0524  1.9241  0.2997
   44bbb    H14 1311   6.796   4.481   9.069 -0.8066 -0.6130 -0.4462
   44bbb     C8 1312   7.080   4.443   9.619  0.1070  1.4461  0.3851
   44bbb    H15 1313   7.041   4.540   9.651 -1.2198  0.8927  0.4919
   44bbb    H16 1314   7.075   4.368   9.698 -0.1321  1.4184  0.3448
   44bbb     C9 1315   7.156   3.883   9.331  0.1269  1.1621  0.5805
   44bbb    H17 1316   7.162   3.846   9.228 -0.7826  1.3690  0.4391
   44bbb    H18 1317   7.141   3.802   9.404  1.0379  0.8191  0.4003
   44bbb     O1 1318   6.770   4.409   8.879  0.2326 -0.4444  1.0087
   44bbb    H19 1319   6.877   4.204   9.331 -0.8287  0.2743 -2.0499
   45bbb     N1 1320   5.989   4.539   9.928 -0.0228 -0.0199 -0.4220
   45bbb     C1 1321   6.140   4.540   9.907  0.4319 -0.1848  0.2410
   45bbb     H1 1322   6.156   4.619   9.833 -1.9141 -0.5872 -0.7985
   45bbb     H2 1323   6.160   4.442   9.863  0.9718  0.7359 -1.6601
   45bbb     C2 1324   5.950   4.682   9.964  0.7421 -0.1192 -0.3706
   45bbb     H3 1325   6.016   4.751   9.913  0.1993 -0.6644 -1.8555
   45bbb     H4 1326   5.963   4.698  10.072  3.4821 -2.5064 -0.2160
   45bbb     C3 1327   5.912   4.492   9.807 -0.0377  0.2811  0.0796
   45bbb     H5 1328   5.804   4.505   9.819 -0.1821 -0.5624 -0.3044
   45bbb     H6 1329   5.931   4.385   9.798 -0.5406  0.1608  0.4363
   45bbb     C4 1330   5.950   4.556   9.668  0.3329  0.8022 -0.4780
   45bbb     H7 1331   6.058   4.554   9.645  0.4274  1.3448 -0.1047
   45bbb     H8 1332   5.918   4.660   9.674 -1.4521  0.3068 -1.0225
   45bbb     C5 1333   6.230   4.573  10.029 -0.2334 -0.3440  0.0689
   45bbb     H9 1334   6.182   4.652  10.088  1.5570  0.7040  0.2049
   45bbb    H10 1335   6.324   4.612   9.989 -1.3529  1.8016 -0.5897
   45bbb     C6 1336   5.796   4.727   9.938  0.1913 -0.2455 -0.2119
   45bbb    H11 1337   5.728   4.646   9.968  0.6372 -0.8337 -0.7817
   45bbb    H12 1338   5.776   4.728   9.831 -1.0377 -0.9401 -0.0084
   45bbb     C7 1339   5.871   4.485   9.554 -0.1280  0.3079 -0.6855
   45bbb    H13 1340   5.908   4.533   9.463 -0.0120  1.1911 -0.1846
   45bbb    H14 1341   5.766   4.516   9.567  1.0508  3.8393  2.2851
   45bbb     C8 1342   5.768   4.871   9.987 -0.7761 -0.6701 -0.0863
   45bbb    H15 1343   5.849   4.930   9.942  0.5663 -0.7817  2.0295
   45bbb    H16 1344   5.671   4.909   9.951 -0.3929  0.1706 -0.2409
   45bbb     C9 1345   6.263   4.444  10.106  0.4659  0.1120 -0.2802
   45bbb    H17 1346   6.332   4.380  10.049  2.2803  2.0550 -0.3979
   45bbb    H18 1347   6.169   4.389  10.121  0.9214 -0.0420  2.7051
   45bbb     O1 1348   5.907   4.346   9.549 -0.3826 -0.0828 -0.0317
   45bbb    H19 1349   5.961   4.484  10.011  1.5651  1.0176  0.8476
   46bbb     N1 1350   6.247   3.680   9.762 -0.2323 -0.1207  0.1452
   46bbb     C1 1351   6.310   3.560   9.830  0.6759  0.4264  0.0419
   46bbb     H1 1352   6.415   3.588   9.828  0.5896  0.7672  0.1902
   46bbb     H2 1353   6.309   3.473   9.763 -0.4485 -1.3946  2.2676
   46bbb     C2 1354   6.100   3.655   9.721  0.1726 -0.3899 -0.6754
   46bbb     H3 1355   6.050   3.751   9.706  0.9086  0.0164 -0.5922
   46bbb     H4 1356   6.048   3.612   9.807 -0.7128  1.5190 -0.1998
   46bbb     C3 1357   6.267   3.803   9.843  0.2221  0.1072 -0.2209
   46bbb     H5 1358   6.366   3.795   9.888 -0.4021 -0.1370  1.1317
   46bbb     H6 1359   6.198   3.804   9.927 -0.6800 -2.0131 -0.8788
   46bbb     C4 1360   6.269   3.936   9.776 -0.3245 -1.8181  0.3401
   46bbb     H7 1361   6.305   4.002   9.856  2.1914 -2.0722 -0.4835
   46bbb     H8 1362   6.170   3.964   9.739 -0.4649 -1.8328  0.7027
   46bbb     C5 1363   6.257   3.511   9.969 -0.3278  0.0239 -0.5475
   46bbb     H9 1364   6.154   3.542   9.992 -0.5257 -0.5055 -0.7023
   46bbb    H10 1365   6.315   3.551  10.053 -2.1906 -0.5775  1.0877
   46bbb     C6 1366   6.082   3.553   9.604 -0.2887  0.1923  0.0400
   46bbb    H11 1367   6.157   3.473   9.607  1.1041  1.4236 -0.5896
   46bbb    H12 1368   6.104   3.610   9.513  2.7797 -0.6665  0.1219
   46bbb     C7 1369   6.376   3.940   9.662  0.3865 -0.2397  0.1390
   46bbb    H13 1370   6.475   3.904   9.693  0.3467  0.5273  1.2035
   46bbb    H14 1371   6.378   4.047   9.637  0.8391 -0.2394  0.1648
   46bbb     C8 1372   5.941   3.489   9.593  0.2724  0.3499 -0.8182
   46bbb    H15 1373   5.936   3.433   9.499  1.3921  0.5560 -1.0210
   46bbb    H16 1374   5.932   3.408   9.666  0.6739  0.2496 -0.8737
   46bbb     C9 1375   6.280   3.354   9.971 -0.3180  0.5896 -0.0925
   46bbb    H17 1376   6.268   3.314  10.073 -1.4987 -1.4612 -0.9532
   46bbb    H18 1377   6.382   3.344   9.934  0.6335  1.7274  2.0222
   46bbb     O1 1378   6.333   3.852   9.557  0.3167  0.3382  0.5661
   46bbb    H19 1379   6.294   3.692   9.670  2.4129  0.6694  1.4992
   47bbb     N1 1380   3.739   5.071   3.068  0.4285  0.1812  0.1531
   47bbb     C1 1381   3.647   5.186   3.019  0.9301  0.1108 -0.4647
   47bbb     H1 1382   3.703   5.234   2.938  2.6297  1.3729  1.3765
   47bbb     H2 1383   3.646   5.256   3.102 -0.1325 -0.7184  0.2503
   47bbb     C2 1384   3.880   5.121   3.083  0.0264  0.4272  0.7726
   47bbb     H3 1385   3.924   5.036   3.135  0.1975 -1.6125 -2.4729
   47bbb     H4 1386   3.881   5.216   3.136 -0.7458  1.2458 -0.6330
   47bbb     C3 1387   3.683   5.005   3.193 -0.3071  0.0737 -0.1865
   47bbb     H5 1388   3.583   4.971   3.165 -1.7366  2.6962  1.2868
   47bbb     H6 1389   3.654   5.082   3.265 -2.3503  0.8405 -1.7162
   47bbb     C4 1390   3.761   4.882   3.256  0.1391  0.6535 -0.7378
   47bbb     H7 1391   3.864   4.917   3.268 -0.5305  2.4167  0.2012
   47bbb     H8 1392   3.766   4.803   3.180  0.8495 -0.4082  0.3930
   47bbb     C5 1393   3.510   5.151   2.968 -0.0155 -0.1548 -0.3793
   47bbb     H9 1394   3.471   5.076   3.038 -3.1276  1.8792  0.2722
   47bbb    H10 1395   3.528   5.107   2.869  0.7310 -1.0191  0.1234
   47bbb     C6 1396   3.966   5.135   2.956  0.3839  0.0139 -0.3047
   47bbb    H11 1397   4.068   5.174   2.968  0.7552 -0.5327 -1.5306
   47bbb    H12 1398   3.904   5.192   2.885 -0.5275 -0.2417  0.2663
   47bbb     C7 1399   3.692   4.835   3.389  1.1591 -0.0623  0.1994
   47bbb    H13 1400   3.747   4.755   3.439 -0.9031 -1.9199 -0.3225
   47bbb    H14 1401   3.591   4.798   3.368  0.7924  1.3528 -0.6239
   47bbb     C8 1402   3.993   4.999   2.890 -0.3169  0.5706 -0.1269
   47bbb    H15 1403   4.044   5.014   2.794 -0.4211 -2.4284 -0.7435
   47bbb    H16 1404   4.055   4.944   2.961 -1.4730 -0.8128 -0.1488
   47bbb     C9 1405   3.403   5.257   2.965 -0.9309 -0.0628 -0.3885
   47bbb    H17 1406   3.422   5.329   3.046 -1.0048  1.5252 -1.7110
   47bbb    H18 1407   3.304   5.213   2.981 -0.1594 -0.9477  2.4519
   47bbb     O1 1408   3.678   4.947   3.477 -0.3447  0.0446  0.4375
   47bbb    H19 1409   3.744   4.994   2.999 -1.7337 -1.9478  2.1560
   48bbb     N1 1410   4.028   5.768   3.491 -0.4043  0.5055 -0.1887
   48bbb     C1 1411   3.897   5.834   3.442  0.2533  0.0009 -0.3346
   48bbb     H1 1412   3.908   5.940   3.467 -2.2377  0.6508 -1.6994
   48bbb     H2 1413   3.820   5.779   3.497 -0.0302 -1.9725 -2.5393
   48bbb     C2 1414   4.058   5.818   3.634  0.2311 -0.2609 -0.1734
   48bbb     H3 1415   4.065   5.926   3.622  1.0615 -0.5098 -2.4369
   48bbb     H4 1416   4.155   5.786   3.671 -0.6952  1.5868  4.5682
   48bbb     C3 1417   4.030   5.612   3.484  0.0667 -0.5679  0.0064
   48bbb     H5 1418   4.027   5.591   3.377 -0.2106  3.7720 -1.0232
   48bbb     H6 1419   3.937   5.564   3.514 -1.3698  1.3016 -1.2087
   48bbb     C4 1420   4.140   5.545   3.555  0.1146  0.2459 -0.6234
   48bbb     H7 1421   4.137   5.562   3.663  0.7367 -2.5134 -0.1005
   48bbb     H8 1422   4.233   5.591   3.518  0.4513  0.1321  0.0765
   48bbb     C5 1423   3.868   5.819   3.287  0.4912 -0.2285 -0.0631
   48bbb     H9 1424   3.825   5.719   3.282  0.2799 -0.1860  0.8554
   48bbb    H10 1425   3.960   5.827   3.228  1.2656 -0.1667  1.1182
   48bbb     C6 1426   3.961   5.776   3.749 -0.6528  0.7396 -0.2195
   48bbb    H11 1427   3.949   5.667   3.749  1.9690  0.3990 -0.2036
   48bbb    H12 1428   3.861   5.812   3.720 -1.7274 -1.1743  0.9271
   48bbb     C7 1429   4.159   5.391   3.522  0.3749 -0.3974 -0.6610
   48bbb    H13 1430   4.262   5.367   3.548 -0.3015 -1.2238  1.4431
   48bbb    H14 1431   4.146   5.367   3.416 -0.8377  0.7671 -0.8151
   48bbb     C8 1432   4.008   5.820   3.887 -1.6325  0.2352 -0.6235
   48bbb    H15 1433   4.004   5.929   3.894  2.6053  0.5929 -1.2774
   48bbb    H16 1434   3.945   5.778   3.966  0.0077  0.1200  0.6777
   48bbb     C9 1435   3.757   5.922   3.246 -0.1113 -0.5655  0.1024
   48bbb    H17 1436   3.669   5.904   3.309  0.8295 -2.0285  1.0771
   48bbb    H18 1437   3.727   5.912   3.141 -1.9907  0.5061  0.4917
   48bbb     O1 1438   4.074   5.315   3.611 -0.4992 -0.2216 -0.0941
   48bbb    H19 1439   4.101   5.808   3.430  0.9710  0.4097  1.3103
   49bbb     N1 1440   3.047   3.584   3.717 -0.6494  0.5946 -0.4794
   49bbb     C1 1441   2.992   3.701   3.635 -0.2041 -0.2857  0.0850
   49bbb     H1 1442   2.936   3.766   3.702  0.5981  1.3636 -0.7789
   49bbb     H2 1443   2.919   3.669   3.561 -1.4654  0.3249  1.0326
   49bbb     C2 1444   3.111   3.466   3.643  0.2800  0.5623  0.3634
   49bbb     H3 1445   3.161   3.394   3.707  0.0100  0.4297  0.4283
   49bbb     H4 1446   3.186   3.508   3.576  0.9846 -0.9903  0.1424
   49bbb     C3 1447   3.143   3.627   3.824 -0.3520 -0.2485  0.6706
   49bbb     H5 1448   3.101   3.724   3.851 -0.7410 -0.2461  0.0631
   49bbb     H6 1449   3.235   3.653   3.773 -1.0806 -0.3880 -0.7528
   49bbb     C4 1450   3.167   3.544   3.951 -0.5049  0.4590 -0.1651
   49bbb     H7 1451   3.202   3.445   3.921 -1.4045 -0.1317  0.7022
   49bbb     H8 1452   3.075   3.531   4.009  0.5190  1.7713  1.8846
   49bbb     C5 1453   3.093   3.790   3.559 -0.4314  0.7130 -0.3718
   49bbb     H9 1454   3.112   3.734   3.467 -1.4556 -0.6023  0.1938
   49bbb    H10 1455   3.192   3.806   3.604 -1.6808 -0.2906  3.0750
   49bbb     C6 1456   3.019   3.386   3.552  0.6308 -0.1533 -0.5226
   49bbb    H11 1457   2.934   3.447   3.522  3.0152  3.3147 -0.8530
   49bbb    H12 1458   2.980   3.299   3.607  1.8202  0.0204  0.6687
   49bbb     C7 1459   3.278   3.620   4.036 -0.4435  0.8548 -0.2442
   49bbb    H13 1460   3.370   3.630   3.978  0.0760 -0.0023  0.4179
   49bbb    H14 1461   3.301   3.555   4.121 -1.4756 -1.1766 -1.4291
   49bbb     C8 1462   3.098   3.341   3.435  0.0258  0.1326 -0.4136
   49bbb    H15 1463   3.115   3.422   3.364 -1.5065  0.5754 -0.3237
   49bbb    H16 1464   3.192   3.299   3.472 -1.1596 -1.0220  1.4737
   49bbb     C9 1465   3.026   3.923   3.513 -0.4560  0.1810  0.2404
   49bbb    H17 1466   3.109   3.988   3.482  1.6261 -1.1098  2.7331
   49bbb    H18 1467   2.968   3.974   3.590  0.0683  0.2058  0.6209
   49bbb     O1 1468   3.224   3.744   4.080  0.1248  0.5145 -0.0314
   49bbb    H19 1469   2.969   3.544   3.770 -0.7948  1.2665 -0.1697
   50bbb     N1 1470   2.576   3.831   4.181 -0.8875  0.5164  0.1250
   50bbb     C1 1471   2.601   3.688   4.140 -0.2976  0.7422 -0.4132
   50bbb     H1 1472   2.682   3.680   4.067 -2.2011  2.3821 -2.8922
   50bbb     H2 1473   2.512   3.648   4.092  0.5337  0.5848 -1.9092
   50bbb     C2 1474   2.468   3.840   4.287  0.1255  0.5229 -0.0329
   50bbb     H3 1475   2.447   3.947   4.294  1.0378  0.6133  1.7717
   50bbb     H4 1476   2.509   3.798   4.379 -0.0532  0.0600 -0.1632
   50bbb     C3 1477   2.706   3.889   4.220 -0.1579 -0.5309 -0.4126
   50bbb     H5 1478   2.779   3.874   4.141  0.7220 -1.6027  0.5640
   50bbb     H6 1479   2.744   3.844   4.312  0.2078 -0.7161 -0.6550
   50bbb     C4 1480   2.706   4.040   4.245 -0.1924 -0.3487 -0.0277
   50bbb     H7 1481   2.783   4.055   4.322 -0.9425 -1.3596  0.9636
   50bbb     H8 1482   2.617   4.068   4.302  1.7952  1.1976  2.5925
   50bbb     C5 1483   2.637   3.585   4.249 -0.2718  0.1805 -0.4418
   50bbb     H9 1484   2.557   3.583   4.325 -0.5903 -1.0436 -0.7884
   50bbb    H10 1485   2.719   3.636   4.302 -0.0123  0.6246 -1.2467
   50bbb     C6 1486   2.340   3.763   4.264  0.6159  0.3324  0.2582
   50bbb    H11 1487   2.358   3.659   4.295 -2.1032  0.2031  1.6542
   50bbb    H12 1488   2.318   3.764   4.156  0.7079 -3.0117  0.0872
   50bbb     C7 1489   2.723   4.124   4.114  0.9591  0.4925  0.0936
   50bbb    H13 1490   2.696   4.229   4.128  2.1328  1.3078 -2.9514
   50bbb    H14 1491   2.645   4.090   4.044 -0.4825  0.5984  1.5817
   50bbb     C8 1492   2.213   3.801   4.345 -0.0279 -0.1826  0.9067
   50bbb    H15 1493   2.139   3.721   4.335  1.3115 -1.2611 -1.0791
   50bbb    H16 1494   2.241   3.827   4.448 -0.1547  0.7292  0.7239
   50bbb     C9 1495   2.672   3.442   4.209  0.3176 -0.1515 -0.1515
   50bbb    H17 1496   2.770   3.445   4.161  0.6073  3.3969  0.4277
   50bbb    H18 1497   2.588   3.421   4.141 -0.1998 -0.3046  0.5303
   50bbb     O1 1498   2.865   4.111   4.067 -0.5575 -0.4382 -0.2294
   50bbb    H19 1499   2.542   3.882   4.098  0.4509  3.0997  1.0353
   51bbb     N1 1500   2.164   4.632   6.241 -0.5116 -0.1941 -0.0286
   51bbb     C1 1501   2.067   4.536   6.301 -0.0469  0.3945  0.2923
   51bbb     H1 1502   1.972   4.548   6.249  1.3862  0.5615 -2.5151
   51bbb     H2 1503   2.035   4.566   6.401 -3.4091 -0.1893 -0.4852
   51bbb     C2 1504   2.155   4.628   6.092 -0.8614 -0.0846  0.2735
   51bbb     H3 1505   2.066   4.684   6.061  0.5366  0.9956 -2.0954
   51bbb     H4 1506   2.130   4.524   6.069 -1.2897  0.0665  0.0390
   51bbb     C3 1507   2.123   4.769   6.281  0.3994  0.4768  0.2861
   51bbb     H5 1508   2.021   4.780   6.244  0.6155  2.4362  0.1421
   51bbb     H6 1509   2.186   4.838   6.224 -0.0239 -0.5846 -1.5320
   51bbb     C4 1510   2.151   4.813   6.424  0.3132  0.0685  0.4015
   51bbb     H7 1511   2.095   4.757   6.499  0.8163  0.7478  1.3145
   51bbb     H8 1512   2.118   4.916   6.444  2.8752  0.3185  4.4812
   51bbb     C5 1513   2.108   4.387   6.309 -0.2440  0.7087 -0.0789
   51bbb     H9 1514   2.213   4.374   6.338  0.1691  2.6582 -0.5631
   51bbb    H10 1515   2.108   4.357   6.203  0.9464 -1.8242  0.5647
   51bbb     C6 1516   2.285   4.672   6.025  0.3815 -0.1322  0.1821
   51bbb    H11 1517   2.306   4.776   6.054  1.0577 -0.3125  0.3465
   51bbb    H12 1518   2.271   4.673   5.916 -0.3937 -2.6996  0.2003
   51bbb     C7 1519   2.292   4.797   6.478  0.0280 -0.2643  0.1597
   51bbb    H13 1520   2.324   4.697   6.445  1.4656  0.0922  0.3750
   51bbb    H14 1521   2.298   4.803   6.587 -2.6802  1.5536  0.3045
   51bbb     C8 1522   2.406   4.586   6.062 -0.0975  0.5765 -0.6712
   51bbb    H15 1523   2.384   4.482   6.033  3.7379 -0.3055 -0.9840
   51bbb    H16 1524   2.486   4.623   5.997  2.1478 -0.1581  1.4993
   51bbb     C9 1525   2.010   4.294   6.376  0.5152 -0.4637  0.2210
   51bbb    H17 1526   1.912   4.294   6.328  0.5608  1.8763  0.0142
   51bbb    H18 1527   1.983   4.319   6.480  2.7349 -1.9195  1.2329
   51bbb     O1 1528   2.376   4.896   6.413 -0.4640 -0.3818 -0.8300
   51bbb    H19 1529   2.257   4.603   6.273  0.6052 -0.1415 -2.9152
   52bbb     N1 1530   1.876   5.322   5.792  0.5413 -0.1487  0.4482
   52bbb     C1 1531   1.786   5.296   5.674 -0.2122 -0.2017  0.1907
   52bbb     H1 1532   1.753   5.192   5.678  1.0916 -0.6851 -0.6572
   52bbb     H2 1533   1.853   5.295   5.588 -0.0504  1.1065  0.2885
   52bbb     C2 1534   1.813   5.282   5.930 -0.7147 -0.5343  0.1630
   52bbb     H3 1535   1.838   5.179   5.955  1.2107 -0.0419  0.4145
   52bbb     H4 1536   1.705   5.296   5.926 -0.9150 -1.3859  1.8451
   52bbb     C3 1537   2.012   5.250   5.761 -0.3586 -0.1988 -0.4038
   52bbb     H5 1538   2.066   5.270   5.853  0.2564  0.1005 -0.8252
   52bbb     H6 1539   2.068   5.300   5.682 -0.3485 -0.5625 -0.6281
   52bbb     C4 1540   2.003   5.105   5.734  0.4920  0.9158 -0.1662
   52bbb     H7 1541   1.942   5.076   5.647  0.9712  1.0312 -0.5447
   52bbb     H8 1542   1.956   5.048   5.814  0.3738  1.4508  0.1545
   52bbb     C5 1543   1.682   5.394   5.647  0.2219 -0.0933  0.1676
   52bbb     H9 1544   1.614   5.406   5.732  1.1837  0.0049  0.9382
   52bbb    H10 1545   1.633   5.358   5.556  0.3770 -0.6549  0.3066
   52bbb     C6 1546   1.856   5.382   6.037  0.0314 -0.3873 -0.7369
   52bbb    H11 1547   1.835   5.484   6.002 -0.5269  0.5838  2.1775
   52bbb    H12 1548   1.965   5.379   6.044  0.1062  1.8354 -0.2260
   52bbb     C7 1549   2.134   5.040   5.708  0.6626  0.0860  0.5569
   52bbb    H13 1550   2.187   5.068   5.617 -1.7631  0.5582 -0.7974
   52bbb    H14 1551   2.117   4.931   5.710 -0.9290  0.3008  2.7293
   52bbb     C8 1552   1.801   5.354   6.181 -0.0025 -0.1491  0.5706
   52bbb    H15 1553   1.853   5.264   6.216  0.5110  0.1119  0.4906
   52bbb    H16 1554   1.826   5.435   6.251 -0.1916 -0.2934  0.8020
   52bbb     C9 1555   1.743   5.536   5.624 -0.3488  0.0412 -0.7894
   52bbb    H17 1556   1.655   5.593   5.592  0.9941  3.0055  0.3681
   52bbb    H18 1557   1.822   5.520   5.549  0.3123 -3.7040  0.5230
   52bbb     O1 1558   2.215   5.069   5.830 -0.1772  0.1556  0.5740
   52bbb    H19 1559   1.885   5.424   5.785 -0.1733 -0.1986 -2.4343
   53bbb     N1 1560   3.079   5.932   5.376 -1.0573 -0.7720  0.0843
   53bbb     C1 1561   2.935   5.920   5.320  0.8725 -0.7032 -0.5573
   53bbb     H1 1562   2.870   5.901   5.405  1.3042  2.1640  0.5074
   53bbb     H2 1563   2.918   5.840   5.247  1.4029 -0.7508 -0.6287
   53bbb     C2 1564   3.078   6.017   5.511  0.6742 -0.0313 -0.2892
   53bbb     H3 1565   3.027   5.962   5.591  0.0532  0.8401 -0.0683
   53bbb     H4 1566   3.018   6.106   5.489 -2.4884 -1.8402  0.3671
   53bbb     C3 1567   3.151   5.796   5.396 -0.2500  0.4061 -0.5072
   53bbb     H5 1568   3.243   5.811   5.453 -0.2213  0.5006 -0.5789
   53bbb     H6 1569   3.170   5.742   5.303  1.4647  1.0480 -0.5671
   53bbb     C4 1570   3.074   5.700   5.491  0.2654 -0.1355  0.3666
   53bbb     H7 1571   2.970   5.694   5.457  0.1303  0.3930  0.6729
   53bbb     H8 1572   3.061   5.749   5.589  1.1889 -0.8006  0.8370
   53bbb     C5 1573   2.869   6.046   5.253  0.6264 -0.8648  0.0313
   53bbb     H9 1574   2.839   6.118   5.330  2.7581  3.1071 -2.4697
   53bbb    H10 1575   2.781   6.015   5.194  1.1142 -0.8597 -0.7105
   53bbb     C6 1576   3.217   6.063   5.542 -0.1955  0.3426 -0.4369
   53bbb    H11 1577   3.268   6.107   5.456 -0.4741 -0.8662 -1.2521
   53bbb    H12 1578   3.283   5.978   5.564 -0.3909  0.1275 -0.6756
   53bbb     C7 1579   3.122   5.558   5.506 -0.3052  0.0021  0.0862
   53bbb    H13 1580   3.061   5.515   5.586 -1.2241  0.5127 -0.3292
   53bbb    H14 1581   3.227   5.559   5.537 -0.7759  2.7242  1.8197
   53bbb     C8 1582   3.226   6.160   5.655  0.4497 -0.0093 -0.3717
   53bbb    H15 1583   3.146   6.235   5.652  0.3361 -0.1673 -2.4331
   53bbb    H16 1584   3.202   6.098   5.743 -0.1057 -0.1902 -0.6457
   53bbb     C9 1585   2.964   6.122   5.143 -1.1365 -0.6055 -0.5728
   53bbb    H17 1586   2.904   6.198   5.091  2.0565  3.1089  0.7021
   53bbb    H18 1587   3.007   6.049   5.074  0.6509  0.3640 -0.5436
   53bbb     O1 1588   3.105   5.474   5.386 -0.1506  0.4179  0.0765
   53bbb    H19 1589   3.125   5.995   5.309  1.6452  0.7918  3.1321
   54bbb     N1 1590   2.686   5.483   4.635  0.2480 -0.6714 -0.1471
   54bbb     C1 1591   2.628   5.346   4.613  0.9925  0.6646 -0.1827
   54bbb     H1 1592   2.521   5.365   4.606  1.1746  2.1362  0.6532
   54bbb     H2 1593   2.657   5.282   4.697 -0.3255  0.2970  0.0236
   54bbb     C2 1594   2.626   5.547   4.760 -0.3860  0.3548 -0.1526
   54bbb     H3 1595   2.678   5.642   4.777  0.6130 -0.5782  2.6441
   54bbb     H4 1596   2.664   5.479   4.837 -1.2644 -1.3192 -1.1377
   54bbb     C3 1597   2.832   5.457   4.656 -0.1138 -0.3637 -0.4858
   54bbb     H5 1598   2.874   5.385   4.585  1.4944  0.7226 -0.6930
   54bbb     H6 1599   2.846   5.413   4.755  0.2322 -1.6466 -1.0825
   54bbb     C4 1600   2.923   5.589   4.644 -0.4369 -0.1584  0.2667
   54bbb     H7 1601   2.904   5.659   4.726 -1.0715 -0.6293  0.5343
   54bbb     H8 1602   2.891   5.636   4.550  2.3651 -1.1778 -1.3289
   54bbb     C5 1603   2.661   5.267   4.480  0.2823  0.2841 -0.0662
   54bbb     H9 1604   2.584   5.189   4.478 -0.7467  1.1283  2.2127
   54bbb    H10 1605   2.765   5.231   4.481 -0.5187 -2.2652 -1.0825
   54bbb     C6 1606   2.473   5.568   4.765  0.4831  0.3703  0.2865
   54bbb    H11 1607   2.448   5.596   4.868  3.2998  1.9341  0.6434
   54bbb    H12 1608   2.423   5.472   4.747 -0.5582  0.6407  1.5442
   54bbb     C7 1609   3.075   5.563   4.636  0.2059 -0.5658 -0.4145
   54bbb    H13 1610   3.116   5.665   4.631 -0.0261 -0.3212  1.7761
   54bbb    H14 1611   3.104   5.498   4.552  0.1860 -0.8439 -0.2055
   54bbb     C8 1612   2.417   5.670   4.661  0.3771  0.7410 -0.0959
   54bbb    H15 1613   2.473   5.763   4.679 -1.1943  1.5106  1.1314
   54bbb    H16 1614   2.426   5.622   4.563 -0.3522 -1.5019  0.8642
   54bbb     C9 1615   2.646   5.356   4.350  1.0344  0.0053  0.0928
   54bbb    H17 1616   2.653   5.290   4.262  2.4209  0.9859 -0.5796
   54bbb    H18 1617   2.739   5.414   4.346  1.4145 -0.6317 -0.6552
   54bbb     O1 1618   3.113   5.525   4.771 -0.5971 -0.0999 -0.4558
   54bbb    H19 1619   2.671   5.542   4.553  1.0776  0.8814  0.7648
   55bbb     N1 1620   7.230   4.088   4.356  0.2198  0.5613 -0.2076
   55bbb     C1 1621   7.344   4.186   4.327 -0.1399 -0.5688  0.2557
   55bbb     H1 1622   7.410   4.202   4.413 -1.5075 -1.0552  1.4452
   55bbb     H2 1623   7.285   4.277   4.317 -0.5996 -1.1058 -3.1491
   55bbb     C2 1624   7.290   3.959   4.406  0.3485 -0.6344 -0.8061
   55bbb     H3 1625   7.331   3.974   4.506 -0.2185 -1.6769 -0.3997
   55bbb     H4 1626   7.374   3.934   4.341  0.5709  2.1969 -1.7373
   55bbb     C3 1627   7.144   4.140   4.467 -0.7166  0.3125 -0.0948
   55bbb     H5 1628   7.202   4.128   4.559 -1.2578 -0.8480  0.1115
   55bbb     H6 1629   7.078   4.053   4.474  0.8476 -0.8681  0.5896
   55bbb     C4 1630   7.077   4.281   4.450 -0.1106  0.0048  0.4234
   55bbb     H7 1631   7.065   4.314   4.346 -0.2988  2.5652  1.1794
   55bbb     H8 1632   7.147   4.358   4.486 -0.1995 -0.1840  0.9942
   55bbb     C5 1633   7.425   4.167   4.195  0.0512  0.2578 -0.3763
   55bbb     H9 1634   7.490   4.078   4.196  0.9781  0.9254 -0.3513
   55bbb    H10 1635   7.494   4.252   4.184  0.4807  0.1211  1.0136
   55bbb     C6 1636   7.186   3.845   4.409 -0.6159 -0.1531 -0.3246
   55bbb    H11 1637   7.128   3.856   4.316 -1.8010  1.2317  0.5571
   55bbb    H12 1638   7.116   3.847   4.492  1.0135  0.3775  1.0964
   55bbb     C7 1639   6.953   4.297   4.539  0.1424  0.0990  0.0061
   55bbb    H13 1640   6.928   4.403   4.522 -1.1661  0.0469  1.4261
   55bbb    H14 1641   6.978   4.276   4.643 -1.2935 -1.0922  0.1403
   55bbb     C8 1642   7.255   3.705   4.422 -0.8924  0.1296  0.3889
   55bbb    H15 1643   7.280   3.693   4.528 -0.2642  0.0326  0.2333
   55bbb    H16 1644   7.177   3.631   4.398 -0.0736 -0.7903  0.4876
   55bbb     C9 1645   7.336   4.156   4.067  0.4145 -0.3613 -0.3059
   55bbb    H17 1646   7.405   4.164   3.983 -1.0349  2.2770 -1.3684
   55bbb    H18 1647   7.261   4.237   4.068 -0.0423 -0.7664 -0.9012
   55bbb     O1 1648   6.842   4.206   4.494 -0.4275 -0.0133  0.6342
   55bbb    H19 1649   7.179   4.071   4.268 -0.9471  0.7725  0.4083
   56bbb     N1 1650   7.142   3.978   5.164  0.3403  0.0270  0.2204
   56bbb     C1 1651   7.238   3.911   5.062  0.0154  0.4013 -0.1418
   56bbb     H1 1652   7.279   3.987   4.996 -1.2864  0.0323 -1.4362
   56bbb     H2 1653   7.176   3.847   4.998  0.5675  1.3148 -1.6387
   56bbb     C2 1654   7.183   4.120   5.212 -0.2429  0.4225 -0.9831
   56bbb     H3 1655   7.089   4.156   5.254 -0.2200  0.7980 -1.2515
   56bbb     H4 1656   7.209   4.177   5.123  0.1208  0.3445 -0.9297
   56bbb     C3 1657   7.003   3.986   5.104 -0.2893 -1.0586  0.4240
   56bbb     H5 1658   7.024   3.995   4.997  0.0274 -1.4303  0.4506
   56bbb     H6 1659   6.953   4.079   5.131 -2.5806 -1.4885 -1.9340
   56bbb     C4 1660   6.914   3.869   5.141  0.7101  0.7622 -0.5976
   56bbb     H7 1661   6.900   3.870   5.250 -1.6071 -1.6590 -0.7674
   56bbb     H8 1662   6.960   3.771   5.125  1.1405  1.1807 -2.0529
   56bbb     C5 1663   7.352   3.826   5.117  0.3817  0.5606  0.4637
   56bbb     H9 1664   7.433   3.877   5.171  0.6480  0.4345  0.1851
   56bbb    H10 1665   7.399   3.788   5.026  1.1254  2.1445  0.1700
   56bbb     C6 1666   7.299   4.130   5.316  0.1707  0.0988  0.1157
   56bbb    H11 1667   7.391   4.079   5.283 -0.4213 -0.9594  0.0467
   56bbb    H12 1668   7.269   4.065   5.400 -1.5887  0.2415 -0.3560
   56bbb     C7 1669   6.774   3.868   5.077 -0.3683  0.2660 -0.1885
   56bbb    H13 1670   6.724   3.964   5.090 -1.7306 -0.4727  0.2247
   56bbb    H14 1671   6.716   3.784   5.119 -0.7684  0.1692 -0.9263
   56bbb     C8 1672   7.348   4.272   5.354  0.2428 -0.7400 -0.3765
   56bbb    H15 1673   7.447   4.268   5.401 -0.6053 -1.8623  1.4165
   56bbb    H16 1674   7.366   4.333   5.265  1.2747  0.4335  0.5942
   56bbb     C9 1675   7.303   3.704   5.215  0.0147 -0.5267  0.1411
   56bbb    H17 1676   7.381   3.633   5.243  0.1069  0.3734  2.3785
   56bbb    H18 1677   7.225   3.647   5.163 -0.8704 -0.4521  1.3461
   56bbb     O1 1678   6.797   3.845   4.935 -0.3304 -0.4015 -0.5397
   56bbb    H19 1679   7.151   3.918   5.247 -0.6670  1.1735  1.1919
   57bbb     N1 1680   5.439   4.611   3.608  0.2738 -0.4286 -0.5023
   57bbb     C1 1681   5.442   4.729   3.510  0.3366  0.0358  0.4417
   57bbb     H1 1682   5.486   4.695   3.416 -0.4563 -2.7626  0.9800
   57bbb     H2 1683   5.513   4.800   3.553 -0.3484 -0.2263  2.0608
   57bbb     C2 1684   5.499   4.490   3.541  0.4880 -0.4699  0.2653
   57bbb     H3 1685   5.432   4.470   3.457  0.4474  2.3707 -0.4887
   57bbb     H4 1686   5.515   4.408   3.611 -0.8027 -0.5114  0.5381
   57bbb     C3 1687   5.500   4.646   3.742 -0.0860  0.1477  0.1329
   57bbb     H5 1688   5.448   4.738   3.767 -2.4362 -0.9959 -0.2675
   57bbb     H6 1689   5.607   4.659   3.723 -0.5332  1.1406 -1.9674
   57bbb     C4 1690   5.473   4.552   3.863 -0.0881 -0.4266 -0.0824
   57bbb     H7 1691   5.366   4.527   3.854  0.4999 -2.6145 -1.7028
   57bbb     H8 1692   5.492   4.607   3.956  1.9428  0.5256 -0.9918
   57bbb     C5 1693   5.300   4.801   3.486 -0.9193 -0.4232  0.3713
   57bbb     H9 1694   5.315   4.895   3.431 -0.2397 -0.5113  0.3902
   57bbb    H10 1695   5.259   4.831   3.583  0.0234  1.4928  0.2215
   57bbb     C6 1696   5.642   4.519   3.476 -0.2061 -0.4179 -0.1010
   57bbb    H11 1697   5.703   4.554   3.560  1.0656 -1.1363 -0.6937
   57bbb    H12 1698   5.646   4.607   3.411 -0.2461  0.0775  0.5543
   57bbb     C7 1699   5.555   4.427   3.871 -0.0939  0.1143 -0.1071
   57bbb    H13 1700   5.515   4.360   3.794 -2.2807 -0.4463  1.4236
   57bbb    H14 1701   5.530   4.377   3.966  1.5057 -0.4141  0.0647
   57bbb     C8 1702   5.713   4.401   3.409 -0.2040  0.2277 -0.5886
   57bbb    H15 1703   5.820   4.428   3.416 -0.3079  1.1119 -1.9713
   57bbb    H16 1704   5.686   4.312   3.466 -0.2486  1.8517  2.0760
   57bbb     C9 1705   5.205   4.700   3.420 -0.1380  0.1348  0.0140
   57bbb    H17 1706   5.264   4.656   3.338 -0.4998 -2.1860  0.9099
   57bbb    H18 1707   5.119   4.757   3.385  0.0204  0.3966  0.0432
   57bbb     O1 1708   5.691   4.456   3.839  0.0679  0.0508  0.5775
   57bbb    H19 1709   5.338   4.594   3.620  0.1597  0.7706  0.5035
   58bbb     N1 1710   6.612   5.004   3.575 -0.6976  0.0858  0.0242
   58bbb     C1 1711   6.599   4.961   3.432  0.0185  0.6511 -0.5112
   58bbb     H1 1712   6.686   4.986   3.372  0.9799 -2.9430 -0.8012
   58bbb     H2 1713   6.520   5.026   3.392 -0.6344 -0.3705 -0.9107
   58bbb     C2 1714   6.674   5.142   3.590 -0.2300  0.1615  0.0373
   58bbb     H3 1715   6.654   5.188   3.687  2.0730 -0.1531  0.7345
   58bbb     H4 1716   6.640   5.202   3.505  0.2329 -0.0508 -0.3033
   58bbb     C3 1717   6.474   5.011   3.628 -0.4105 -0.0710 -0.5957
   58bbb     H5 1718   6.433   4.920   3.582  0.6406  0.9518 -3.8115
   58bbb     H6 1719   6.417   5.087   3.574  0.3242  0.2381 -0.9355
   58bbb     C4 1720   6.450   5.014   3.782  0.6346  0.4945  0.2063
   58bbb     H7 1721   6.486   5.107   3.828  0.1065  0.3715  0.8923
   58bbb     H8 1722   6.505   4.939   3.840  0.3731  0.2085  0.0865
   58bbb     C5 1723   6.579   4.809   3.417  0.5322 -0.2925  0.1970
   58bbb     H9 1724   6.498   4.769   3.480  0.1663  0.7353  0.4016
   58bbb    H10 1725   6.664   4.751   3.456  0.3013 -0.9921 -0.3418
   58bbb     C6 1726   6.826   5.127   3.577  0.2444 -0.5129  0.3359
   58bbb    H11 1727   6.859   5.088   3.480  4.1969 -0.7204  1.5590
   58bbb    H12 1728   6.874   5.066   3.655  2.1252 -0.3534 -0.6307
   58bbb     C7 1729   6.293   4.992   3.808 -0.3423 -0.3117 -0.4292
   58bbb    H13 1730   6.251   5.088   3.777 -0.7086 -0.4813 -0.4704
   58bbb    H14 1731   6.280   4.978   3.916  0.3040 -1.3472 -0.4671
   58bbb     C8 1732   6.900   5.263   3.585 -0.5173 -0.3821  0.3932
   58bbb    H15 1733   6.880   5.299   3.687  1.9613 -0.5288  0.9852
   58bbb    H16 1734   7.008   5.246   3.582 -0.5211 -0.2692 -1.0153
   58bbb     C9 1735   6.543   4.776   3.270  0.2582  0.8865 -0.4263
   58bbb    H17 1736   6.449   4.826   3.243  1.2516  3.0216 -0.1495
   58bbb    H18 1737   6.541   4.668   3.251  1.9343  0.9661 -1.2079
   58bbb     O1 1738   6.237   4.884   3.734  0.2412  0.4917  0.1605
   58bbb    H19 1739   6.662   4.932   3.629 -1.0316  0.5789  1.0255
   59bbb     N1 1740   5.108   1.840   5.466 -0.5633  0.2166  0.3132
   59bbb     C1 1741   5.026   1.734   5.401 -0.0279  0.5671  0.2292
   59bbb     H1 1742   5.091   1.656   5.361  2.0828  0.4640  3.4445
   59bbb     H2 1743   4.958   1.780   5.330 -0.2353  0.9033  0.6359
   59bbb     C2 1744   5.231   1.775   5.532 -0.4095  0.1924  0.3221
   59bbb     H3 1745   5.299   1.748   5.451 -0.0339 -1.6318  1.2064
   59bbb     H4 1746   5.208   1.676   5.572  0.9072  0.5324  2.0195
   59bbb     C3 1747   5.164   1.934   5.358  0.0062  0.2462 -0.1925
   59bbb     H5 1748   5.244   1.882   5.305  0.0834 -0.0683  0.2349
   59bbb     H6 1749   5.208   2.014   5.419  2.0968  0.4897 -1.8821
   59bbb     C4 1750   5.062   1.985   5.258 -1.0517  0.4702  0.6309
   59bbb     H7 1751   4.978   2.031   5.312 -1.3321 -0.8430  1.3762
   59bbb     H8 1752   5.015   1.895   5.217 -0.1299 -0.1211  0.8574
   59bbb     C5 1753   4.938   1.655   5.504  0.1781  0.0811  0.7400
   59bbb     H9 1754   4.859   1.718   5.548  1.1164  0.2705  2.2325
   59bbb    H10 1755   5.009   1.626   5.582  0.6112  1.8796  1.0716
   59bbb     C6 1756   5.312   1.870   5.623  0.0427  0.4454  0.2221
   59bbb    H11 1757   5.318   1.969   5.576  0.2605 -0.3688 -1.5137
   59bbb    H12 1758   5.416   1.838   5.633  0.3235  0.8585 -1.2028
   59bbb     C7 1759   5.130   2.062   5.149  0.1376  0.7928  0.7988
   59bbb    H13 1760   5.055   2.071   5.070 -0.3639 -1.6620  0.9296
   59bbb    H14 1761   5.204   1.997   5.101  0.2927  0.7442  1.0972
   59bbb     C8 1762   5.243   1.893   5.757 -0.2041 -0.7347  0.3553
   59bbb    H15 1763   5.232   1.802   5.816  0.8717 -0.9681  0.2082
   59bbb    H16 1764   5.310   1.957   5.816  2.5739 -3.1229 -0.0375
   59bbb     C9 1765   4.881   1.529   5.449  0.2639  0.7021 -1.0806
   59bbb    H17 1766   4.962   1.472   5.403  0.7866  0.7556 -0.2355
   59bbb    H18 1767   4.802   1.545   5.374 -0.0655  3.3051 -0.2800
   59bbb     O1 1768   5.179   2.189   5.197  0.4686 -0.5556  0.5487
   59bbb    H19 1769   5.051   1.894   5.532  0.6865 -0.5088  2.0502
   60bbb     N1 1770   4.815   2.940   4.928  0.1233 -0.3923  0.5480
   60bbb     C1 1771   4.842   3.079   4.871 -0.1704  0.0289 -0.5468
   60bbb     H1 1772   4.823   3.062   4.765 -0.6886  0.2912 -0.4997
   60bbb     H2 1773   4.948   3.102   4.881 -0.1328  0.0166 -0.9323
   60bbb     C2 1774   4.854   2.835   4.816  1.2117  0.0273  0.0978
   60bbb     H3 1775   4.834   2.740   4.866 -0.0462  0.3904  0.3400
   60bbb     H4 1776   4.961   2.840   4.796  1.0184 -1.5104 -1.5650
   60bbb     C3 1777   4.894   2.915   5.050  1.2099 -0.2002 -0.5291
   60bbb     H5 1778   4.997   2.949   5.035  0.5455  2.8234  0.9852
   60bbb     H6 1779   4.901   2.807   5.068  1.6740 -0.2897 -1.2189
   60bbb     C4 1780   4.834   2.978   5.180 -0.0017  0.2639 -0.1494
   60bbb     H7 1781   4.726   2.956   5.186  0.1105 -0.8591 -1.7423
   60bbb     H8 1782   4.837   3.087   5.175 -1.3405  0.2941 -1.0551
   60bbb     C5 1783   4.753   3.194   4.912 -0.1927  0.0368  0.1667
   60bbb     H9 1784   4.779   3.273   4.841  0.9369 -2.3361 -2.2341
   60bbb    H10 1785   4.788   3.221   5.013  1.5136  0.3372 -0.4724
   60bbb     C6 1786   4.784   2.840   4.673 -0.6028 -0.4239 -0.1004
   60bbb    H11 1787   4.827   2.923   4.615  2.1130 -0.5793  1.4769
   60bbb    H12 1788   4.676   2.851   4.689 -0.5684 -0.8041  0.4326
   60bbb     C7 1789   4.891   2.934   5.318  0.1221  0.1166  0.2388
   60bbb    H13 1790   4.844   2.999   5.393 -1.0767 -1.5036  0.9674
   60bbb    H14 1791   5.000   2.927   5.320  0.0099 -4.3736  1.9505
   60bbb     C8 1792   4.805   2.712   4.596 -1.1448  1.0456  0.6123
   60bbb    H15 1793   4.774   2.726   4.492  1.3354  3.7267  0.1025
   60bbb    H16 1794   4.911   2.688   4.606 -0.4634  4.0473  1.8930
   60bbb     C9 1795   4.598   3.162   4.905 -0.4747  0.8384  0.3116
   60bbb    H17 1796   4.565   3.128   4.806  0.7432  1.3712 -0.2963
   60bbb    H18 1797   4.542   3.254   4.922  0.5368  1.5925 -0.2970
   60bbb     O1 1798   4.831   2.806   5.349  0.6339  0.2835  0.0166
   60bbb    H19 1799   4.718   2.928   4.959  1.2896 -2.3837  3.9561
   61bbb     N1 1800   6.795   2.368   5.167  0.0443 -0.4547  0.1000
   61bbb     C1 1801   6.859   2.280   5.059 -0.3858 -0.2919 -0.3686
   61bbb     H1 1802   6.960   2.262   5.096  0.8104  1.2393 -2.6512
   61bbb     H2 1803   6.862   2.345   4.971 -4.1665 -0.0468 -0.5168
   61bbb     C2 1804   6.790   2.291   5.294 -0.7535  0.1186 -0.2790
   61bbb     H3 1805   6.734   2.200   5.271  1.6759 -1.1777 -1.4460
   61bbb     H4 1806   6.722   2.348   5.357  0.2789  1.3812 -0.2810
   61bbb     C3 1807   6.891   2.486   5.196 -0.5225  0.2637 -0.7640
   61bbb     H5 1808   6.996   2.460   5.181 -0.5820  1.1276 -3.1336
   61bbb     H6 1809   6.870   2.530   5.293 -0.2760  1.2167 -1.1336
   61bbb     C4 1810   6.876   2.598   5.091 -0.4639 -0.2187 -0.5739
   61bbb     H7 1811   6.885   2.561   4.988 -0.0508 -0.7690 -0.3435
   61bbb     H8 1812   6.959   2.667   5.113 -0.5387 -0.3049 -0.0226
   61bbb     C5 1813   6.801   2.150   5.012 -0.4951  0.1512  0.7330
   61bbb     H9 1814   6.699   2.171   4.976 -0.5963 -1.8937 -0.3798
   61bbb    H10 1815   6.783   2.075   5.090  2.9504 -1.0093  0.5634
   61bbb     C6 1816   6.925   2.255   5.372 -0.1378  0.6064  0.3504
   61bbb    H11 1817   7.001   2.334   5.372 -0.1502  0.6408 -0.8113
   61bbb    H12 1818   6.969   2.164   5.331 -3.1337 -1.4094  1.2366
   61bbb     C7 1819   6.745   2.678   5.104  0.1060  0.1010 -0.5572
   61bbb    H13 1820   6.756   2.749   5.022 -0.3964 -2.5597 -3.0974
   61bbb    H14 1821   6.740   2.714   5.208  1.9136  0.9363 -0.7231
   61bbb     C8 1822   6.903   2.222   5.526  0.4388 -0.9553 -0.3085
   61bbb    H15 1823   7.003   2.197   5.565  1.0015  0.4148 -0.8143
   61bbb    H16 1824   6.862   2.308   5.580 -0.8300 -1.0191 -1.1320
   61bbb     C9 1825   6.894   2.094   4.907  0.3324 -0.4080  0.0806
   61bbb    H17 1826   6.907   2.157   4.819 -0.2766  0.3994  0.5507
   61bbb    H18 1827   6.851   1.998   4.875 -1.1561 -0.0912  1.0046
   61bbb     O1 1828   6.638   2.580   5.084  0.5618 -0.0536 -0.1514
   61bbb    H19 1829   6.701   2.402   5.142  0.5283  0.3228 -0.7094
   62bbb     N1 1830   6.052   1.764   4.776 -0.4854 -0.4367  1.0308
   62bbb     C1 1831   6.200   1.752   4.813  0.6110  0.9213  0.4893
   62bbb     H1 1832   6.199   1.658   4.868 -1.7112  1.2314  1.0762
   62bbb     H2 1833   6.232   1.835   4.877  3.3178  0.1738  0.2474
   62bbb     C2 1834   5.967   1.668   4.864  0.4620  0.1538  0.4216
   62bbb     H3 1835   5.863   1.698   4.855  0.7559  0.6941 -1.8406
   62bbb     H4 1836   5.998   1.689   4.966  0.7902  0.2645  0.3030
   62bbb     C3 1837   6.010   1.913   4.773  0.1032 -0.3306 -0.7579
   62bbb     H5 1838   6.075   1.967   4.704  0.3201  1.4488  0.7855
   62bbb     H6 1839   6.022   1.947   4.876 -1.9745 -0.2789 -0.4839
   62bbb     C4 1840   5.869   1.947   4.736  0.0246 -1.1478  0.3391
   62bbb     H7 1841   5.805   1.903   4.814 -0.1334 -0.1214  0.8058
   62bbb     H8 1842   5.833   1.916   4.637  1.6571  1.2230 -1.1061
   62bbb     C5 1843   6.290   1.750   4.686 -0.0482  0.3152 -0.2566
   62bbb     H9 1844   6.398   1.759   4.706  0.3410  1.4301 -2.4852
   62bbb    H10 1845   6.258   1.837   4.627 -0.6203  0.9484  0.9635
   62bbb     C6 1846   5.965   1.524   4.819 -0.5708  0.5733  0.3536
   62bbb    H11 1847   6.063   1.480   4.795 -1.3291 -1.0894  0.0961
   62bbb    H12 1848   5.895   1.498   4.738  0.0318 -0.0907  0.0370
   62bbb     C7 1849   5.855   2.095   4.747 -0.5155 -0.0696 -0.1760
   62bbb    H13 1850   5.748   2.118   4.733 -0.7670 -0.7611  0.5497
   62bbb    H14 1851   5.924   2.141   4.675  1.4252 -0.2835  1.4703
   62bbb     C8 1852   5.927   1.428   4.934 -0.3058  0.1415  0.2605
   62bbb    H15 1853   5.825   1.442   4.974 -0.0159  1.4811  0.5619
   62bbb    H16 1854   5.923   1.331   4.883 -0.6145  0.4337 -0.2785
   62bbb     C9 1855   6.265   1.630   4.597 -0.1097  0.2342  0.2462
   62bbb    H17 1856   6.291   1.537   4.650  0.2047 -0.1697 -0.5836
   62bbb    H18 1857   6.337   1.641   4.514 -0.2028  0.3179  0.1776
   62bbb     O1 1858   5.904   2.149   4.875 -0.1231  0.1422 -0.4375
   62bbb    H19 1859   6.046   1.725   4.681 -1.7108 -1.0950  1.3620
   63bbb     N1 1860   1.986   6.497   8.183 -0.0196  0.0585  0.0563
   63bbb     C1 1861   1.983   6.633   8.256  0.3182 -0.0633  0.6134
   63bbb     H1 1862   2.025   6.708   8.189 -1.0367  0.0924 -0.1003
   63bbb     H2 1863   2.042   6.617   8.346  0.6283  0.4736  0.5058
   63bbb     C2 1864   1.946   6.519   8.033 -0.1327  0.5740 -0.5953
   63bbb     H3 1865   2.016   6.594   7.995  1.0221 -0.4388 -0.5177
   63bbb     H4 1866   1.844   6.557   8.032 -0.4739 -0.2937 -0.1732
   63bbb     C3 1867   2.136   6.450   8.183 -0.2493 -0.3940  0.0126
   63bbb     H5 1868   2.201   6.523   8.134  0.4977 -1.4634 -0.6409
   63bbb     H6 1869   2.135   6.358   8.124 -0.5756 -0.2436 -0.2205
   63bbb     C4 1870   2.199   6.398   8.321  0.4243  0.4167  0.0673
   63bbb     H7 1871   2.147   6.318   8.375  2.4526 -0.2313  1.1758
   63bbb     H8 1872   2.199   6.479   8.395  0.2155 -1.7264  2.5507
   63bbb     C5 1873   1.844   6.689   8.288 -0.0488  0.6639 -0.7136
   63bbb     H9 1874   1.788   6.715   8.197 -1.3183  0.6399  0.0354
   63bbb    H10 1875   1.846   6.785   8.341  1.9359  0.8293 -1.0271
   63bbb     C6 1876   1.944   6.386   7.957 -0.1824  0.5493  0.5023
   63bbb    H11 1877   1.857   6.330   7.994 -0.9652  1.5055  0.1561
   63bbb    H12 1878   2.029   6.321   7.981 -1.4266 -0.3478  2.8265
   63bbb     C7 1879   2.341   6.338   8.305  0.1308  0.2518  0.0414
   63bbb    H13 1880   2.330   6.235   8.266  1.1037  0.3057 -0.3866
   63bbb    H14 1881   2.386   6.336   8.405 -0.7691 -0.0954  0.4516
   63bbb     C8 1882   1.959   6.414   7.805  0.2958  0.2905  0.2438
   63bbb    H15 1883   2.055   6.465   7.789 -0.0623  0.8218 -0.2545
   63bbb    H16 1884   1.959   6.317   7.753  0.7223 -0.2126  1.1655
   63bbb     C9 1885   1.764   6.593   8.378 -0.1687  0.7568  0.3802
   63bbb    H17 1886   1.696   6.654   8.439 -1.4532 -3.1862  3.3029
   63bbb    H18 1887   1.817   6.539   8.457  0.7593 -0.1156 -0.7896
   63bbb     O1 1888   2.411   6.415   8.202 -0.5135 -0.0951 -0.3472
   63bbb    H19 1889   1.926   6.422   8.219  1.6849 -1.4766 -0.1777
   64bbb     N1 1890   2.144   7.174   8.329  0.1011 -0.2929 -0.7051
   64bbb     C1 1891   2.000   7.116   8.356  0.1470 -0.5351 -0.5511
   64bbb     H1 1892   2.000   7.020   8.304 -1.4474 -0.6236 -0.4237
   64bbb     H2 1893   1.933   7.176   8.296  1.5678  0.5777 -1.0919
   64bbb     C2 1894   2.146   7.329   8.348 -0.2116  0.7017 -0.3619
   64bbb     H3 1895   2.247   7.362   8.373  0.2866 -1.9887  1.6359
   64bbb     H4 1896   2.081   7.345   8.435 -0.7152  0.9064 -0.7682
   64bbb     C3 1897   2.236   7.110   8.426 -0.6969  0.6544 -0.2350
   64bbb     H5 1898   2.214   7.005   8.404  1.0335  0.4810 -1.2742
   64bbb     H6 1899   2.210   7.135   8.529  0.6503  2.1570 -0.2390
   64bbb     C4 1900   2.388   7.121   8.410 -0.8545 -0.0418 -0.7182
   64bbb     H7 1901   2.418   7.221   8.443 -0.0471  0.8993 -3.9611
   64bbb     H8 1902   2.416   7.118   8.304  2.6629  0.8704  0.0647
   64bbb     C5 1903   1.944   7.094   8.500  0.4228  0.4795  0.1813
   64bbb     H9 1904   1.996   7.005   8.538  0.8276  0.8983  0.6319
   64bbb    H10 1905   1.842   7.057   8.484 -0.3538  2.3979  0.4269
   64bbb     C6 1906   2.089   7.404   8.223 -0.5734 -0.4954  0.0191
   64bbb    H11 1907   1.988   7.368   8.200 -0.3599 -0.5935 -0.7914
   64bbb    H12 1908   2.145   7.380   8.131 -1.2189  0.1192 -0.5423
   64bbb     C7 1909   2.464   7.006   8.486  0.4034 -0.4122  0.1771
   64bbb    H13 1910   2.460   7.024   8.594  0.9192  3.8795 -0.3410
   64bbb    H14 1911   2.569   7.026   8.460 -0.4300  0.6802 -2.7624
   64bbb     C8 1912   2.092   7.555   8.245 -0.8445  0.0721  0.2943
   64bbb    H15 1913   2.043   7.573   8.341  1.1330 -1.0728  1.5860
   64bbb    H16 1914   2.195   7.585   8.267 -0.6547 -0.6150  0.3537
   64bbb     C9 1915   1.938   7.215   8.589  0.1038  0.2931  0.5047
   64bbb    H17 1916   2.037   7.230   8.633 -0.0085 -1.7757  1.5733
   64bbb    H18 1917   1.876   7.185   8.674  1.5467 -1.9102  0.8501
   64bbb     O1 1918   2.414   6.882   8.423  0.2952  0.2076  0.4046
   64bbb    H19 1919   2.176   7.144   8.235  0.9620 -0.3837 -0.3965
   65bbb     N1 1920   3.934   6.871   9.712  0.6060  0.2567 -0.5509
   65bbb     C1 1921   4.042   6.946   9.797  0.5062  0.4040  1.0955
   65bbb     H1 1922   4.088   6.868   9.858  0.2965 -0.5696  0.0474
   65bbb     H2 1923   3.988   7.015   9.862 -0.6204  1.5643 -0.9656
   65bbb     C2 1924   3.865   6.768   9.795 -0.0285  0.0134  0.6886
   65bbb     H3 1925   3.799   6.721   9.723 -3.2470  1.6160  2.3974
   65bbb     H4 1926   3.806   6.826   9.866 -1.4953 -1.5680  0.8179
   65bbb     C3 1927   3.829   6.966   9.670 -0.5341  0.4592  0.3253
   65bbb     H5 1928   3.873   7.053   9.621 -1.0835 -0.4416 -1.8684
   65bbb     H6 1929   3.782   7.003   9.761 -0.0811  2.0689 -0.0518
   65bbb     C4 1930   3.729   6.922   9.562  0.3297  0.4108 -0.8295
   65bbb     H7 1931   3.662   6.840   9.589  0.5906  0.8527  1.3452
   65bbb     H8 1932   3.787   6.883   9.477 -0.2078  0.1420 -1.0778
   65bbb     C5 1933   4.143   7.029   9.715  0.0563  0.9860  0.1557
   65bbb     H9 1934   4.097   7.085   9.632  0.4224 -1.8789 -2.1178
   65bbb    H10 1935   4.221   6.963   9.675  1.5571  1.1396  2.5972
   65bbb     C6 1936   3.955   6.661   9.860 -0.6665  0.8404  0.2372
   65bbb    H11 1937   3.990   6.689   9.960  1.9104 -2.6766  0.4938
   65bbb    H12 1938   4.037   6.631   9.793  0.6734  0.9613  1.7740
   65bbb     C7 1939   3.649   7.043   9.500  0.7129 -0.3908  0.3317
   65bbb    H13 1940   3.725   7.118   9.473 -0.1993  0.5961  0.4517
   65bbb    H14 1941   3.593   7.093   9.580 -0.2109 -0.8359 -0.0254
   65bbb     C8 1942   3.869   6.531   9.885 -0.3865 -0.3505 -0.4968
   65bbb    H15 1943   3.772   6.558   9.930 -0.1606  0.7663 -0.6487
   65bbb    H16 1944   3.859   6.487   9.785  2.3044 -2.5271  0.0745
   65bbb     C9 1945   4.222   7.124   9.811 -0.0135  0.6251 -0.5169
   65bbb    H17 1946   4.214   7.076   9.909 -0.4386 -0.8869 -1.2741
   65bbb    H18 1947   4.174   7.221   9.828 -0.7471 -0.0038  1.3629
   65bbb     O1 1948   3.565   7.009   9.376 -0.2243  0.2442 -1.0602
   65bbb    H19 1949   3.979   6.814   9.640 -0.6644 -2.3489  0.6112
   66bbb     N1 1950   2.679   6.747   9.390  0.1969  0.4521  0.2659
   66bbb     C1 1951   2.540   6.685   9.367 -0.7784 -0.1494  0.0925
   66bbb     H1 1952   2.561   6.578   9.356 -0.0402 -0.0272  0.2873
   66bbb     H2 1953   2.500   6.727   9.274  0.1022 -2.0101 -1.1914
   66bbb     C2 1954   2.768   6.658   9.475 -0.6866 -0.3091 -0.3012
   66bbb     H3 1955   2.853   6.628   9.412 -1.1266 -1.7218 -0.2694
   66bbb     H4 1956   2.712   6.566   9.491  2.8472 -2.9014 -1.4740
   66bbb     C3 1957   2.740   6.784   9.252  0.0644  0.7072 -0.0247
   66bbb     H5 1958   2.669   6.831   9.183  3.0710  1.2756 -3.0525
   66bbb     H6 1959   2.772   6.690   9.207 -0.8657  0.8206 -0.9667
   66bbb     C4 1960   2.855   6.887   9.250 -0.6868 -0.6467  0.4701
   66bbb     H7 1961   2.841   6.956   9.335 -0.2984 -1.0864  0.8918
   66bbb     H8 1962   2.842   6.947   9.158 -0.3655 -0.4027  0.5812
   66bbb     C5 1963   2.432   6.708   9.475 -0.1620  0.3867 -0.4483
   66bbb     H9 1964   2.478   6.685   9.572 -0.0183 -0.6732 -0.7594
   66bbb    H10 1965   2.345   6.642   9.464 -2.4743  3.1989 -0.2672
   66bbb     C6 1966   2.832   6.711   9.606 -0.2384  0.9871  0.2455
   66bbb    H11 1967   2.876   6.810   9.590 -0.0532  0.8392 -0.1721
   66bbb    H12 1968   2.916   6.646   9.632  0.2176  2.2336  2.1419
   66bbb     C7 1969   2.994   6.833   9.264  1.3071  0.7302  0.4452
   66bbb    H13 1970   3.005   6.795   9.366 -1.0060 -0.4632  0.3374
   66bbb    H14 1971   3.072   6.909   9.262  2.7202 -0.4846  3.3875
   66bbb     C8 1972   2.731   6.720   9.720  0.2090  0.1899 -0.2531
   66bbb    H15 1973   2.787   6.750   9.810 -0.9968  0.8359  0.3110
   66bbb    H16 1974   2.655   6.797   9.700  0.8156  0.9261  0.2022
   66bbb     C9 1975   2.387   6.854   9.477  0.1562  0.0896  0.0011
   66bbb    H17 1976   2.308   6.856   9.553 -0.8867  2.3738 -1.0533
   66bbb    H18 1977   2.335   6.883   9.386  0.0528  3.2073  0.9376
   66bbb     O1 1978   3.011   6.715   9.177  0.4234  0.4707 -0.3920
   66bbb    H19 1979   2.662   6.830   9.448  1.0974  0.1338  1.0123
   67bbb     N1 1980   3.735   7.846   6.538  0.1587 -0.7651 -0.3111
   67bbb     C1 1981   3.875   7.819   6.481  0.4069  0.3469 -0.5773
   67bbb     H1 1982   3.862   7.751   6.397  0.2410 -0.7949  0.3324
   67bbb     H2 1983   3.930   7.761   6.556  2.7748 -0.1873 -2.6090
   67bbb     C2 1984   3.677   7.720   6.592 -0.4115  0.4057 -0.2346
   67bbb     H3 1985   3.581   7.741   6.639 -0.7978 -0.5653 -0.5479
   67bbb     H4 1986   3.741   7.676   6.669 -1.9797 -0.3218  0.6915
   67bbb     C3 1987   3.735   7.957   6.646 -0.2304  0.2006 -0.7589
   67bbb     H5 1988   3.633   7.982   6.677  0.3894  1.5231  0.3043
   67bbb     H6 1989   3.763   8.052   6.601 -2.3281  1.1310 -0.2497
   67bbb     C4 1990   3.813   7.929   6.782 -0.1300  0.2589  0.1111
   67bbb     H7 1991   3.922   7.939   6.768  0.0850 -1.3664  0.4130
   67bbb     H8 1992   3.796   7.828   6.823  0.1007  0.5499  0.9450
   67bbb     C5 1993   3.963   7.936   6.441 -0.4146 -0.2752  0.3026
   67bbb     H9 1994   3.927   8.032   6.481  0.9064  0.6585 -0.6717
   67bbb    H10 1995   3.962   7.948   6.332 -0.1634  0.4811  0.3744
   67bbb     C6 1996   3.663   7.610   6.484  0.8495  0.6511  0.0714
   67bbb    H11 1997   3.608   7.530   6.536 -0.5723  0.0673 -2.1702
   67bbb    H12 1998   3.752   7.560   6.445  1.5906  1.6856  0.4068
   67bbb     C7 1999   3.760   8.021   6.898  0.4002  0.2910 -0.5209
   67bbb    H13 2000   3.727   8.121   6.868 -0.3234 -0.4581 -2.4398
   67bbb    H14 2001   3.839   8.029   6.973 -0.5492 -0.5740  0.6080
   67bbb     C8 2002   3.563   7.651   6.379 -0.4801  0.1471  0.2545
   67bbb    H15 2003   3.526   7.567   6.320  0.8903  1.1439 -2.1491
   67bbb    H16 2004   3.469   7.692   6.420 -1.3800 -0.3725 -1.2182
   67bbb     C9 2005   4.107   7.914   6.471 -0.5050  0.5022 -0.4630
   67bbb    H17 2006   4.131   7.918   6.578 -2.9085  0.4616  0.1248
   67bbb    H18 2007   4.173   7.996   6.437 -0.2544  0.2914 -0.4890
   67bbb     O1 2008   3.638   7.956   6.955 -0.4217 -0.5388 -0.0277
   67bbb    H19 2009   3.674   7.878   6.462 -2.1081 -0.9549  1.3109
   68bbb     N1 2010   2.690   7.691   6.597  0.0279 -0.1291 -0.5409
   68bbb     C1 2011   2.635   7.794   6.505 -0.6304 -0.1066  0.1823
   68bbb     H1 2012   2.697   7.790   6.416  0.9249 -2.8136  1.2797
   68bbb     H2 2013   2.650   7.888   6.559 -1.9177 -1.2340  2.6748
   68bbb     C2 2014   2.726   7.565   6.510 -0.4688 -0.6561  0.1070
   68bbb     H3 2015   2.802   7.595   6.438 -0.3113  0.0330  0.5571
   68bbb     H4 2016   2.635   7.539   6.455 -1.0242 -1.1987  1.2531
   68bbb     C3 2017   2.815   7.737   6.664 -0.5683  0.2963 -0.0657
   68bbb     H5 2018   2.869   7.797   6.591 -2.7409  1.9240 -0.4400
   68bbb     H6 2019   2.873   7.650   6.696 -0.5220  0.9202  1.6901
   68bbb     C4 2020   2.789   7.831   6.790 -0.2156  1.0115  0.6500
   68bbb     H7 2021   2.739   7.774   6.868 -1.7702  0.1619 -0.8901
   68bbb     H8 2022   2.713   7.906   6.763 -0.8193  0.7743  1.6589
   68bbb     C5 2023   2.490   7.782   6.453 -0.6866 -0.2837 -0.6882
   68bbb     H9 2024   2.415   7.771   6.533 -0.8943  0.7050 -0.7275
   68bbb    H10 2025   2.495   7.690   6.395 -0.1454  0.4906 -1.8988
   68bbb     C6 2026   2.771   7.430   6.578  0.2534  0.6012 -0.6112
   68bbb    H11 2027   2.862   7.448   6.636  0.8166  2.6208 -2.0109
   68bbb    H12 2028   2.805   7.360   6.500 -0.9043  1.9757 -2.4254
   68bbb     C7 2029   2.923   7.893   6.849 -0.3653  0.0193 -0.5875
   68bbb    H13 2030   2.889   7.957   6.931 -2.0840 -0.4650 -0.8657
   68bbb    H14 2031   2.976   7.948   6.770 -0.7787  1.3159  0.0158
   68bbb     C8 2032   2.661   7.374   6.676 -0.5549 -0.0147 -0.2224
   68bbb    H15 2033   2.696   7.279   6.717  1.3359 -0.3565 -2.3750
   68bbb    H16 2034   2.668   7.436   6.766  2.7736 -0.5354  0.0108
   68bbb     C9 2035   2.442   7.909   6.368 -0.1227  1.1281 -0.6248
   68bbb    H17 2036   2.365   7.886   6.293  0.4514  0.8341 -1.1376
   68bbb    H18 2037   2.513   7.951   6.295 -0.8026 -0.6456 -2.3915
   68bbb     O1 2038   3.018   7.790   6.896  0.0278 -0.1564 -0.2008
   68bbb    H19 2039   2.615   7.676   6.666  0.9434  0.2069  0.5519
   69bbb     N1 2040   3.684   7.812   8.716 -0.2643  0.1032 -0.2361
   69bbb     C1 2041   3.802   7.872   8.641  0.1766  0.7896 -0.2524
   69bbb     H1 2042   3.782   7.884   8.535 -0.4259 -1.0380 -0.3936
   69bbb     H2 2043   3.876   7.791   8.649 -0.5868  0.0191 -0.8577
   69bbb     C2 2044   3.580   7.911   8.729  0.5916 -0.3213  0.1503
   69bbb     H3 2045   3.630   7.999   8.769 -0.7914 -0.1890  1.6868
   69bbb     H4 2046   3.521   7.878   8.815  1.9414 -1.4302  0.7010
   69bbb     C3 2047   3.627   7.683   8.635 -0.3733 -1.1577  0.0504
   69bbb     H5 2048   3.624   7.703   8.527 -1.2240  0.5741  0.3569
   69bbb     H6 2049   3.522   7.672   8.663 -0.6568 -0.0212 -0.4788
   69bbb     C4 2050   3.716   7.560   8.657  0.1992  0.1305  0.1166
   69bbb     H7 2051   3.726   7.532   8.762 -0.1692 -0.5555 -0.0302
   69bbb     H8 2052   3.813   7.596   8.620 -0.0570  0.8237  0.1010
   69bbb     C5 2053   3.873   8.003   8.701  0.0807 -0.6928 -0.1665
   69bbb     H9 2054   3.980   7.984   8.689  0.0822  0.0612 -1.6772
   69bbb    H10 2055   3.860   8.018   8.808  1.2208  0.8474 -0.2140
   69bbb     C6 2056   3.498   7.960   8.604  0.8379  0.4657  0.1114
   69bbb    H11 2057   3.421   7.888   8.573  1.2550 -0.8193  1.8875
   69bbb    H12 2058   3.561   7.976   8.516  2.4218 -0.6801  0.9782
   69bbb     C7 2059   3.668   7.441   8.572 -0.6229  0.2401  1.1831
   69bbb    H13 2060   3.559   7.425   8.574 -0.4990 -1.3703 -1.1801
   69bbb    H14 2061   3.722   7.352   8.608 -0.6894  0.0004  0.6998
   69bbb     C8 2062   3.420   8.092   8.637 -0.0713 -0.0148 -0.1769
   69bbb    H15 2063   3.404   8.134   8.537  1.8569 -3.6447 -2.2565
   69bbb    H16 2064   3.321   8.075   8.683 -0.2363  1.8263  0.2000
   69bbb     C9 2065   3.840   8.128   8.623  0.2277  0.5008  0.2628
   69bbb    H17 2066   3.872   8.216   8.680 -0.1796  0.5866  0.3635
   69bbb    H18 2067   3.731   8.134   8.610  0.4219 -0.5544 -2.6145
   69bbb     O1 2068   3.707   7.460   8.432  0.5164  0.2686 -0.0908
   69bbb    H19 2069   3.710   7.784   8.812  1.4399 -0.6105 -0.8643
   70bbb     N1 2070   4.588   7.621   8.635  0.2904 -0.9709  0.2252
   70bbb     C1 2071   4.661   7.562   8.519 -0.0269  0.5954  0.1743
   70bbb     H1 2072   4.649   7.635   8.439  0.4918  0.9715  0.4326
   70bbb     H2 2073   4.613   7.467   8.499  0.1551  0.6369 -0.4760
   70bbb     C2 2074   4.580   7.772   8.611  0.9052  0.8240 -0.4870
   70bbb     H3 2075   4.519   7.799   8.698  2.0832 -0.6489  0.8608
   70bbb     H4 2076   4.527   7.790   8.517  0.5772  1.9676 -0.0961
   70bbb     C3 2077   4.444   7.570   8.634  0.0134  0.5497  0.2621
   70bbb     H5 2078   4.403   7.598   8.537 -0.3333 -0.1958  0.1791
   70bbb     H6 2079   4.397   7.623   8.717  0.4078  0.3579  0.6141
   70bbb     C4 2080   4.423   7.423   8.655 -0.0436  0.0974  0.2105
   70bbb     H7 2081   4.459   7.383   8.750 -0.5889 -2.4234 -0.5570
   70bbb     H8 2082   4.476   7.363   8.580  0.8837  2.2694 -0.9491
   70bbb     C5 2083   4.815   7.543   8.543 -0.0620  0.8401  0.7479
   70bbb     H9 2084   4.873   7.637   8.548  0.1554  0.7885 -0.5006
   70bbb    H10 2085   4.849   7.490   8.453  0.1278  2.7004 -0.3352
   70bbb     C6 2086   4.711   7.852   8.613 -0.2479  0.0522  0.0217
   70bbb    H11 2087   4.779   7.819   8.534  1.6038  0.9995  1.1505
   70bbb    H12 2088   4.762   7.830   8.708  0.4710 -0.6028 -0.5081
   70bbb     C7 2089   4.275   7.376   8.642 -0.4397 -0.1733 -0.6091
   70bbb    H13 2090   4.204   7.447   8.684 -0.2383 -0.1101 -0.3747
   70bbb    H14 2091   4.266   7.282   8.697 -1.1432 -0.0167 -0.4505
   70bbb     C8 2092   4.682   8.002   8.586  0.3081 -0.3208 -0.8319
   70bbb    H15 2093   4.776   8.055   8.567  0.5797 -0.0602  1.0458
   70bbb    H16 2094   4.611   8.023   8.505  0.2282  1.9635 -0.2268
   70bbb     C9 2095   4.836   7.461   8.668 -0.2228  0.3713 -0.1401
   70bbb    H17 2096   4.943   7.435   8.670 -0.6726 -1.5717  1.4999
   70bbb    H18 2097   4.786   7.363   8.671  0.6377 -0.0485  1.5067
   70bbb     O1 2098   4.244   7.375   8.499  0.0242 -0.0070 -0.2213
   70bbb    H19 2099   4.624   7.589   8.726 -2.8753 -0.8783  1.6536
   71bbb     N1 2100   7.200   6.376   6.902 -0.5888 -0.2403 -0.0451
   71bbb     C1 2101   7.281   6.336   6.776 -0.2222  0.3870 -0.2079
   71bbb     H1 2102   7.387   6.350   6.798 -0.3827 -1.0477  1.7952
   71bbb     H2 2103   7.261   6.415   6.704 -1.2652  1.6719  1.4202
   71bbb     C2 2104   7.247   6.318   7.039  0.5545  0.4433 -0.0375
   71bbb     H3 2105   7.230   6.392   7.117  0.7045  1.9434 -1.3705
   71bbb     H4 2106   7.355   6.308   7.032  0.3647 -1.4088 -1.1706
   71bbb     C3 2107   7.220   6.528   6.920 -0.7445  0.0095 -0.0303
   71bbb     H5 2108   7.174   6.561   7.012 -0.2551 -1.5684  0.8202
   71bbb     H6 2109   7.173   6.574   6.833 -0.1934  1.1196  0.2374
   71bbb     C4 2110   7.370   6.573   6.936  0.3887 -0.0265  0.1772
   71bbb     H7 2111   7.428   6.547   6.846 -0.0217  2.2092 -0.7904
   71bbb     H8 2112   7.424   6.539   7.025 -0.4636  0.8927  1.0577
   71bbb     C5 2113   7.240   6.200   6.714  0.3560  0.0723 -0.4989
   71bbb     H9 2114   7.132   6.184   6.720  0.4520 -0.2775  0.7715
   71bbb    H10 2115   7.292   6.130   6.781 -1.1958  0.2529  0.9882
   71bbb     C6 2116   7.183   6.184   7.072 -0.4310  0.0429 -0.4302
   71bbb    H11 2117   7.189   6.117   6.985 -1.9057 -0.1651 -0.4014
   71bbb    H12 2118   7.076   6.192   7.095 -0.5951 -0.5493 -0.9324
   71bbb     C7 2119   7.368   6.727   6.949  0.0503  0.4668  0.2764
   71bbb    H13 2120   7.339   6.783   6.860  1.1212 -1.2769 -1.2476
   71bbb    H14 2121   7.475   6.750   6.956 -0.0020  0.3826  1.5840
   71bbb     C8 2122   7.254   6.113   7.186  0.4803 -0.3390 -0.7065
   71bbb    H15 2123   7.360   6.087   7.173  0.1741 -1.5426 -0.9998
   71bbb    H16 2124   7.243   6.182   7.271  1.9271 -0.3674 -0.4683
   71bbb     C9 2125   7.293   6.195   6.568 -0.0376 -0.4252  0.1770
   71bbb    H17 2126   7.245   6.264   6.498  1.7328 -0.9754 -1.6512
   71bbb    H18 2127   7.268   6.094   6.531 -0.4866 -0.2266 -0.0682
   71bbb     O1 2128   7.296   6.770   7.066  0.4448  0.5831 -0.2040
   71bbb    H19 2129   7.099   6.357   6.899 -0.9112  1.4096 -0.7384
   72bbb     N1 2130   7.754   7.456   6.870  0.4970  0.0378 -0.0643
   72bbb     C1 2131   7.880   7.364   6.849 -0.3902  0.0269 -0.0168
   72bbb     H1 2132   7.959   7.417   6.795  0.1858 -0.9077 -0.1178
   72bbb     H2 2133   7.849   7.274   6.797 -0.1962 -0.6880  1.0616
   72bbb     C2 2134   7.715   7.529   6.740 -0.2152 -0.0119 -0.0498
   72bbb     H3 2135   7.677   7.444   6.682  1.4516  0.7871 -2.4578
   72bbb     H4 2136   7.811   7.553   6.696  0.3331  0.6756  1.4816
   72bbb     C3 2137   7.643   7.355   6.920  0.0716  0.3719  0.3371
   72bbb     H5 2138   7.550   7.402   6.955 -1.5074 -2.0727 -0.3393
   72bbb     H6 2139   7.672   7.297   7.007  0.6642  0.5514  0.2609
   72bbb     C4 2140   7.586   7.250   6.819 -0.3394 -0.0477 -0.1054
   72bbb     H7 2141   7.667   7.196   6.768 -0.8626 -0.7765 -0.1699
   72bbb     H8 2142   7.527   7.309   6.747 -1.0730 -0.4562  0.1518
   72bbb     C5 2143   7.948   7.324   6.981  0.6528  0.5811  0.7006
   72bbb     H9 2144   7.871   7.306   7.058  0.3007 -3.2115 -0.3870
   72bbb    H10 2145   8.011   7.408   7.015 -0.0750  1.2389  0.4635
   72bbb     C6 2146   7.615   7.656   6.748  0.1793 -0.4393  0.2061
   72bbb    H11 2147   7.523   7.625   6.801  1.2077 -0.3079  2.1756
   72bbb    H12 2148   7.581   7.686   6.649 -1.0051  1.8298  1.2311
   72bbb     C7 2149   7.497   7.136   6.879  0.2174 -0.0599  0.1279
   72bbb    H13 2150   7.554   7.106   6.968  1.0683  2.7949  0.6539
   72bbb    H14 2151   7.491   7.051   6.811  0.3643  0.6384 -0.7801
   72bbb     C8 2152   7.684   7.780   6.809  0.3539 -0.0692 -0.0191
   72bbb    H15 2153   7.792   7.774   6.791  0.6619 -2.4317  2.0362
   72bbb    H16 2154   7.649   7.868   6.754 -0.9560 -0.2806  0.4502
   72bbb     C9 2155   8.026   7.191   6.972 -0.4610 -0.4689 -0.2314
   72bbb    H17 2156   7.951   7.119   6.939 -1.7055  1.6000 -2.2601
   72bbb    H18 2157   8.068   7.175   7.073 -0.6836 -2.1448 -0.3792
   72bbb     O1 2158   7.364   7.189   6.929  0.2657  0.0761  0.1787
   72bbb    H19 2159   7.783   7.519   6.947  0.1214 -1.0772  1.0159
   73bbb     N1 2160   6.121   7.415   8.025  0.7175 -0.5970 -0.6856
   73bbb     C1 2161   6.108   7.394   7.871  0.3519 -0.4599 -0.1705
   73bbb     H1 2162   6.205   7.370   7.827 -0.0674  0.4152 -1.6304
   73bbb     H2 2163   6.071   7.490   7.836 -0.1848 -1.0809 -1.3896
   73bbb     C2 2164   5.999   7.458   8.101  0.5466  0.0228  0.0199
   73bbb     H3 2165   6.034   7.488   8.200 -0.5044  1.2325  0.0574
   73bbb     H4 2166   5.928   7.376   8.115 -0.7697  0.9318 -1.0692
   73bbb     C3 2167   6.185   7.287   8.085  0.2901  0.2863 -0.0141
   73bbb     H5 2168   6.256   7.257   8.008 -1.4762  1.0266 -2.0346
   73bbb     H6 2169   6.110   7.207   8.097  1.7230 -1.0029  0.7667
   73bbb     C4 2170   6.244   7.306   8.228 -0.2805  0.1291  0.8801
   73bbb     H7 2171   6.170   7.354   8.293  0.9432  0.4748  2.0565
   73bbb     H8 2172   6.326   7.379   8.232 -1.4075  1.5832 -0.9752
   73bbb     C5 2173   6.013   7.282   7.826  0.4911 -0.0992 -0.6200
   73bbb     H9 2174   5.910   7.286   7.866  0.1215 -0.0439 -1.5569
   73bbb    H10 2175   6.054   7.185   7.857 -0.3176  0.3306  2.0467
   73bbb     C6 2176   5.919   7.581   8.047 -0.2651 -0.3813 -0.4222
   73bbb    H11 2177   5.846   7.564   7.967 -1.4907 -0.2651  0.6434
   73bbb    H12 2178   5.986   7.657   8.008  0.6425 -0.4322  0.9605
   73bbb     C7 2179   6.291   7.174   8.298  0.1890 -0.5998  0.4749
   73bbb    H13 2180   6.211   7.100   8.312 -0.3189  0.0410  0.9917
   73bbb    H14 2181   6.331   7.194   8.398  0.8523 -0.4972  0.1933
   73bbb     C8 2182   5.855   7.658   8.168 -0.8483  0.3314  0.4612
   73bbb    H15 2183   5.800   7.747   8.134 -1.6018 -1.2308 -2.7123
   73bbb    H16 2184   5.784   7.586   8.212  1.1779 -1.6769  0.6325
   73bbb     C9 2185   5.993   7.274   7.680  0.0064  0.3018 -0.2532
   73bbb    H17 2186   5.960   7.172   7.655  1.6522  0.0240 -1.4713
   73bbb    H18 2187   6.090   7.296   7.633 -0.6122  1.2003 -1.1658
   73bbb     O1 2188   6.392   7.120   8.211  0.0448  0.4191 -0.2381
   73bbb    H19 2189   6.194   7.487   8.033 -0.0147  0.2817 -1.5882
   74bbb     N1 2190   7.281   7.163   8.339 -0.0311 -0.7199 -0.3062
   74bbb     C1 2191   7.244   7.105   8.475 -0.3498 -0.1297 -0.2332
   74bbb     H1 2192   7.328   7.124   8.541  0.8603  0.5242 -1.8807
   74bbb     H2 2193   7.219   6.999   8.467 -0.3279 -0.2572  1.2437
   74bbb     C2 2194   7.392   7.086   8.269 -0.3442 -0.0029  0.2107
   74bbb     H3 2195   7.401   7.129   8.169 -1.4163 -0.5317 -0.1222
   74bbb     H4 2196   7.366   6.981   8.254 -0.4698  0.1291 -0.5269
   74bbb     C3 2197   7.155   7.160   8.261 -0.0362  0.2400 -0.6123
   74bbb     H5 2198   7.086   7.230   8.307  0.6437  0.0054  0.8303
   74bbb     H6 2199   7.111   7.063   8.282 -0.5996  1.1807  3.2051
   74bbb     C4 2200   7.155   7.198   8.109 -0.1835 -0.4484 -0.0475
   74bbb     H7 2201   7.252   7.244   8.085 -0.4467  0.1575  0.0474
   74bbb     H8 2202   7.070   7.262   8.084  0.3088  0.0406 -0.5180
   74bbb     C5 2203   7.131   7.174   8.551  0.2725 -0.1649  0.3208
   74bbb     H9 2204   7.036   7.161   8.498  0.9483 -0.3968 -0.8600
   74bbb    H10 2205   7.150   7.281   8.567  0.8580 -0.4085  1.3914
   74bbb     C6 2206   7.526   7.096   8.356  0.2388  0.0337 -0.0687
   74bbb    H11 2207   7.509   7.065   8.459  0.4517  1.8581  0.5508
   74bbb    H12 2208   7.566   7.198   8.365 -0.3246  0.2230  0.3969
   74bbb     C7 2209   7.141   7.072   8.019 -0.6078 -0.5339  0.3757
   74bbb    H13 2210   7.239   7.028   8.041  0.2296  0.7898 -0.5344
   74bbb    H14 2211   7.140   7.113   7.917 -0.9541 -0.0593  0.5673
   74bbb     C8 2212   7.630   7.006   8.297 -0.0672  0.1156  0.3199
   74bbb    H15 2213   7.667   7.037   8.199 -0.6300 -1.1657 -0.3209
   74bbb    H16 2214   7.719   7.023   8.358  0.6692  0.1541 -0.7478
   74bbb     C9 2215   7.115   7.109   8.692 -0.6789 -0.0330  0.4189
   74bbb    H17 2216   7.056   7.179   8.753  0.2612  3.8177 -2.6829
   74bbb    H18 2217   7.219   7.107   8.729 -0.5137  0.1042 -0.0333
   74bbb     O1 2218   7.028   6.996   8.050 -0.0793 -0.5774 -0.6245
   74bbb    H19 2219   7.312   7.261   8.350  1.3312 -0.9613 -1.5686
   75bbb     N1 2220   6.488   7.452   5.103 -0.3234  0.0784  0.4265
   75bbb     C1 2221   6.391   7.558   5.055 -0.8126  0.4507 -0.3752
   75bbb     H1 2222   6.394   7.637   5.130 -1.7528 -0.4579  0.6709
   75bbb     H2 2223   6.294   7.507   5.063 -0.9458  0.9842  3.1827
   75bbb     C2 2224   6.623   7.499   5.153 -0.3994  0.0532 -0.0877
   75bbb     H3 2225   6.605   7.555   5.244  2.5983  2.0046 -0.5628
   75bbb     H4 2226   6.666   7.575   5.088  0.7167 -0.2221  0.3207
   75bbb     C3 2227   6.410   7.382   5.217 -0.0234  0.1900 -0.0249
   75bbb     H5 2228   6.464   7.294   5.253 -0.9414  0.3280  1.8099
   75bbb     H6 2229   6.321   7.340   5.169  0.7733 -2.5343  0.7051
   75bbb     C4 2230   6.364   7.470   5.342  0.1747  0.2171  0.2096
   75bbb     H7 2231   6.294   7.549   5.313  1.2818  1.0117 -0.3557
   75bbb     H8 2232   6.443   7.530   5.387 -0.6179  0.2600  1.6147
   75bbb     C5 2233   6.409   7.607   4.908  0.8733 -0.1239 -0.3240
   75bbb     H9 2234   6.343   7.691   4.882 -1.3485 -0.2670  3.9667
   75bbb    H10 2235   6.395   7.532   4.830  0.3374 -0.3628 -0.0063
   75bbb     C6 2236   6.724   7.386   5.179  0.3400  0.3877 -0.2488
   75bbb    H11 2237   6.744   7.337   5.083  1.0371 -2.2714  1.1578
   75bbb    H12 2238   6.688   7.310   5.249  2.1848 -0.4102 -0.1032
   75bbb     C7 2239   6.306   7.388   5.460 -0.1380  0.4425 -0.3223
   75bbb    H13 2240   6.267   7.446   5.544 -0.4108 -0.5174  0.2401
   75bbb    H14 2241   6.380   7.324   5.510  0.7914  2.7449  1.4416
   75bbb     C8 2242   6.858   7.425   5.241  0.4614  0.1951  0.1162
   75bbb    H15 2243   6.931   7.344   5.225 -1.4640 -1.6906  0.4728
   75bbb    H16 2244   6.889   7.514   5.185  0.5423  0.7283  0.9890
   75bbb     C9 2245   6.550   7.660   4.875  0.0929  0.1617  0.3898
   75bbb    H17 2246   6.624   7.578   4.871  0.7288  0.5623  2.5197
   75bbb    H18 2247   6.574   7.749   4.934 -0.8268  1.1618 -0.7042
   75bbb     O1 2248   6.205   7.291   5.409  0.0764 -0.1647 -0.4417
   75bbb    H19 2249   6.505   7.376   5.035  0.4036 -0.5985  1.3402
   76bbb     N1 2250   5.813   6.260   5.396  0.0242 -0.5728  0.4454
   76bbb     C1 2251   5.660   6.281   5.423 -0.3241 -0.0113  0.4723
   76bbb     H1 2252   5.630   6.176   5.436  1.3342 -0.5531  0.1422
   76bbb     H2 2253   5.605   6.321   5.337 -0.8831  0.1542  0.9013
   76bbb     C2 2254   5.830   6.154   5.283 -0.9019 -0.6194  0.2736
   76bbb     H3 2255   5.930   6.155   5.241 -0.1196  0.3615  2.0748
   76bbb     H4 2256   5.754   6.179   5.209 -1.9385 -3.1725  0.3607
   76bbb     C3 2257   5.866   6.396   5.347 -0.0078 -0.1878 -0.4574
   76bbb     H5 2258   5.810   6.468   5.408  0.9529  1.7352 -1.7576
   76bbb     H6 2259   5.842   6.421   5.244  0.1265  2.4207  0.0667
   76bbb     C4 2260   6.017   6.422   5.368 -0.6561 -0.1256  0.6112
   76bbb     H7 2261   6.064   6.344   5.307 -1.1475  0.1810 -0.1625
   76bbb     H8 2262   6.035   6.397   5.474 -0.5316  0.2166  0.6727
   76bbb     C5 2263   5.624   6.350   5.555 -0.7655  0.0022 -0.6407
   76bbb     H9 2264   5.515   6.355   5.559 -0.7562  1.5566 -1.3550
   76bbb    H10 2265   5.661   6.451   5.576  0.3490 -0.9437  2.3973
   76bbb     C6 2266   5.797   6.011   5.320 -0.2099 -0.2643 -0.1787
   76bbb    H11 2267   5.695   6.000   5.359 -0.5800  2.6561 -0.0685
   76bbb    H12 2268   5.855   5.980   5.407 -2.6387 -3.0976  0.5725
   76bbb     C7 2269   6.055   6.567   5.331  0.2695  0.1209  0.5469
   76bbb    H13 2270   5.999   6.596   5.241  1.2465 -0.0207 -0.1207
   76bbb    H14 2271   6.161   6.576   5.304  0.4026  2.9320  1.5954
   76bbb     C8 2272   5.830   5.919   5.196  0.2178  0.5207 -0.2720
   76bbb    H15 2273   5.799   5.815   5.210 -0.8994  0.6526 -1.5762
   76bbb    H16 2274   5.771   5.965   5.115 -1.0680  0.3513  0.5368
   76bbb     C9 2275   5.686   6.269   5.675 -0.1018  0.1587  0.1823
   76bbb    H17 2276   5.658   6.320   5.768 -0.0142  3.2647 -1.3781
   76bbb    H18 2277   5.795   6.260   5.671  0.1554  2.5665  0.4452
   76bbb     O1 2278   6.025   6.656   5.436  0.2349 -0.2810  0.0281
   76bbb    H19 2279   5.866   6.225   5.477 -1.4531 -1.0219  1.2699
   77bbb     N1 2280   4.678   8.099   5.283 -0.2808 -0.1914 -0.1171
   77bbb     C1 2281   4.529   8.123   5.325  0.0963  0.2380  0.3115
   77bbb     H1 2282   4.479   8.185   5.251  1.0642  0.6740 -0.0033
   77bbb     H2 2283   4.535   8.198   5.404  2.7141  1.8708 -1.2531
   77bbb     C2 2284   4.715   8.189   5.161  0.2276  0.5354  0.4122
   77bbb     H3 2285   4.727   8.295   5.184 -1.0277  1.2532 -1.9117
   77bbb     H4 2286   4.626   8.180   5.098  0.9079 -1.1701 -0.3846
   77bbb     C3 2287   4.777   8.113   5.395 -0.2168 -0.3441  0.4749
   77bbb     H5 2288   4.772   8.210   5.444  2.5154  0.7724 -1.2001
   77bbb     H6 2289   4.877   8.089   5.359  0.2352 -0.1591  1.5830
   77bbb     C4 2290   4.751   8.009   5.506  0.8567 -0.1160  0.5320
   77bbb     H7 2291   4.735   7.911   5.459 -0.7339 -0.2537  1.2803
   77bbb     H8 2292   4.658   8.040   5.556  1.6327  0.3668  1.7026
   77bbb     C5 2293   4.453   7.988   5.353 -0.0278  0.5449  0.2601
   77bbb     H9 2294   4.353   7.995   5.398  0.5807  1.7010  1.5140
   77bbb    H10 2295   4.499   7.927   5.431 -0.1077  2.6529  2.0580
   77bbb     C6 2296   4.840   8.143   5.086  0.1719 -0.3168  0.0346
   77bbb    H11 2297   4.861   8.036   5.085  1.8795 -0.0171 -2.0504
   77bbb    H12 2298   4.928   8.190   5.132 -1.1270  2.1550  0.1634
   77bbb     C7 2299   4.853   8.006   5.617 -0.5242 -0.6389 -0.7063
   77bbb    H13 2300   4.820   7.950   5.705 -1.5298 -0.2571 -0.8234
   77bbb    H14 2301   4.872   8.107   5.652 -0.7766 -0.3053 -1.4911
   77bbb     C8 2302   4.832   8.181   4.936  0.1677  0.4549  0.9986
   77bbb    H15 2303   4.906   8.122   4.879 -0.0953  2.2941 -1.3820
   77bbb    H16 2304   4.735   8.149   4.897 -0.7326  2.4816  1.4207
   77bbb     C9 2305   4.437   7.911   5.220 -0.2431 -0.3858  0.1311
   77bbb    H17 2306   4.394   7.976   5.142  1.4519  2.0637  1.1127
   77bbb    H18 2307   4.369   7.828   5.240  0.4508 -0.6240  1.5952
   77bbb     O1 2308   4.969   7.937   5.563 -0.4900  0.6678  0.0062
   77bbb    H19 2309   4.675   8.003   5.244 -2.6669  0.3782 -1.5808
   78bbb     N1 2310   5.446   8.912   5.845  0.2086 -0.0801 -0.3987
   78bbb     C1 2311   5.351   9.027   5.859  0.4577 -1.0156  0.5376
   78bbb     H1 2312   5.378   9.081   5.950  1.3514  1.0432 -0.8828
   78bbb     H2 2313   5.252   8.998   5.894  0.5722 -0.6219  1.2150
   78bbb     C2 2314   5.596   8.949   5.836 -0.0901 -0.2133  0.5094
   78bbb     H3 2315   5.602   9.026   5.759  1.1420 -1.3343 -0.5642
   78bbb     H4 2316   5.653   8.865   5.796 -0.0531  0.3880 -0.7625
   78bbb     C3 2317   5.421   8.820   5.961  0.7672 -0.3810  0.1302
   78bbb     H5 2318   5.406   8.871   6.056 -1.2924  0.8441 -0.7819
   78bbb     H6 2319   5.513   8.764   5.981  1.5767  1.4418  1.7807
   78bbb     C4 2320   5.309   8.724   5.950 -0.2778  0.1464  0.1612
   78bbb     H7 2321   5.246   8.751   5.865 -1.8587 -0.3924  1.1334
   78bbb     H8 2322   5.236   8.730   6.032  2.0079 -1.7797  2.5307
   78bbb     C5 2323   5.339   9.129   5.742 -0.7504  1.2332  1.0930
   78bbb     H9 2324   5.302   9.072   5.656  0.8467  0.0749  1.1379
   78bbb    H10 2325   5.433   9.177   5.713 -1.4084  0.8829 -1.9201
   78bbb     C6 2326   5.661   9.007   5.965 -0.2703 -0.4061 -0.2827
   78bbb    H11 2327   5.684   8.934   6.043  0.6666  2.1126  1.9318
   78bbb    H12 2328   5.595   9.081   6.012 -2.3584 -2.8045  0.8435
   78bbb     C7 2329   5.361   8.579   5.928 -0.5993 -0.0243 -0.7090
   78bbb    H13 2330   5.418   8.556   6.019  0.0860  0.2111 -1.0716
   78bbb    H14 2331   5.426   8.561   5.841 -0.7558 -0.9397 -0.6511
   78bbb     C8 2332   5.793   9.081   5.922 -0.2323 -0.2160  0.4676
   78bbb    H15 2333   5.834   9.040   5.829 -1.3931 -0.3190 -0.0197
   78bbb    H16 2334   5.757   9.180   5.892 -1.9834 -1.7647 -3.2366
   78bbb     C9 2335   5.226   9.232   5.767  0.2146 -0.6336 -0.4510
   78bbb    H17 2336   5.234   9.291   5.859 -1.3246 -2.3461  0.8416
   78bbb    H18 2337   5.133   9.178   5.786  0.9084 -1.9544 -0.7021
   78bbb     O1 2338   5.252   8.480   5.922 -0.3183  0.1282 -0.5459
   78bbb    H19 2339   5.415   8.869   5.756 -0.9887  0.3648 -0.2082
   79bbb     N1 2340   5.800   2.716   7.479 -0.0534 -0.7268  0.4074
   79bbb     C1 2341   5.919   2.643   7.412  0.5082 -0.1070  0.0873
   79bbb     H1 2342   5.934   2.552   7.470 -0.2817 -0.6738 -0.5715
   79bbb     H2 2343   6.002   2.713   7.412  1.5767 -1.2620 -2.3101
   79bbb     C2 2344   5.681   2.625   7.489 -0.4916 -0.2473  0.2673
   79bbb     H3 2345   5.632   2.641   7.585  1.3106  1.6765  0.9460
   79bbb     H4 2346   5.716   2.522   7.499  1.1922  0.3026  0.3153
   79bbb     C3 2347   5.844   2.760   7.623 -0.2966 -0.0139  0.0682
   79bbb     H5 2348   5.952   2.772   7.621  0.0629 -2.6774 -1.0889
   79bbb     H6 2349   5.828   2.684   7.700 -1.1158 -2.1145 -2.0351
   79bbb     C4 2350   5.769   2.889   7.674 -0.9769 -0.7663 -0.4896
   79bbb     H7 2351   5.771   2.958   7.589  1.7700 -0.2989 -0.1603
   79bbb     H8 2352   5.830   2.933   7.754  1.1103 -2.3428 -1.1033
   79bbb     C5 2353   5.921   2.596   7.264 -0.4888  0.5098  0.5210
   79bbb     H9 2354   5.934   2.685   7.201 -2.6863 -0.7942 -1.9821
   79bbb    H10 2355   5.829   2.547   7.231  0.6916 -1.2153 -0.3873
   79bbb     C6 2356   5.581   2.638   7.369  0.1159 -0.2921 -0.3063
   79bbb    H11 2357   5.506   2.560   7.383  0.1769 -0.7382 -2.2152
   79bbb    H12 2358   5.631   2.633   7.271 -0.3991  3.1846 -0.8821
   79bbb     C7 2359   5.626   2.867   7.714 -0.1798 -0.1709 -0.1810
   79bbb    H13 2360   5.565   2.843   7.626 -1.8033  0.5712  0.6965
   79bbb    H14 2361   5.596   2.959   7.765 -1.9214 -0.7714 -0.0274
   79bbb     C8 2362   5.514   2.776   7.373  0.3555  0.0601  0.2974
   79bbb    H15 2363   5.449   2.789   7.285  0.4301 -1.0754  0.0626
   79bbb    H16 2364   5.453   2.778   7.464 -0.2686 -1.1925 -0.0611
   79bbb     C9 2365   6.035   2.494   7.234  0.3105  0.4668 -0.4188
   79bbb    H17 2366   6.023   2.466   7.128 -1.6174 -0.1196 -0.0925
   79bbb    H18 2367   6.018   2.399   7.286 -2.1291  1.0631  0.0050
   79bbb     O1 2368   5.621   2.757   7.811 -0.4384 -0.3122 -0.6670
   79bbb    H19 2369   5.764   2.799   7.429  0.4728 -0.6455  0.1584
   80bbb     N1 2370   6.038   2.578   8.632  0.2923  0.4425  0.3140
   80bbb     C1 2371   5.922   2.550   8.728 -0.0235 -0.2718 -0.2699
   80bbb     H1 2372   5.936   2.451   8.773  0.5933 -1.2903 -2.5705
   80bbb     H2 2373   5.834   2.533   8.665  0.0069  0.7767 -0.6095
   80bbb     C2 2374   6.102   2.449   8.577 -0.2891 -0.1576 -0.1884
   80bbb     H3 2375   6.145   2.384   8.654 -0.9723 -1.6239 -1.0008
   80bbb     H4 2376   6.183   2.476   8.509 -0.2226  0.5386  0.1605
   80bbb     C3 2377   6.003   2.688   8.533  0.3587 -0.2137  0.0836
   80bbb     H5 2378   5.970   2.778   8.586 -0.0047 -0.3628  0.1151
   80bbb     H6 2379   5.912   2.654   8.482 -1.3848  2.2188  1.3571
   80bbb     C4 2380   6.106   2.717   8.417  0.3735 -0.0598 -0.0583
   80bbb     H7 2381   6.114   2.624   8.360  0.1811 -0.7659  1.0461
   80bbb     H8 2382   6.206   2.736   8.456 -0.2987 -0.9066  2.2314
   80bbb     C5 2383   5.894   2.665   8.830 -0.8507  0.7357 -0.2326
   80bbb     H9 2384   5.792   2.672   8.871 -0.2116 -0.8783  1.7907
   80bbb    H10 2385   5.901   2.756   8.770  0.9903  0.5908 -0.2776
   80bbb     C6 2386   5.997   2.365   8.498  0.2210 -0.2133 -0.4476
   80bbb    H11 2387   5.936   2.427   8.431 -0.8944  0.4018  1.0544
   80bbb    H12 2388   5.930   2.328   8.577  1.6846 -2.8568 -0.3610
   80bbb     C7 2389   6.066   2.833   8.324 -0.0214 -0.7395  0.0137
   80bbb    H13 2390   6.154   2.861   8.265  0.6496  0.8390  1.6691
   80bbb    H14 2391   6.030   2.920   8.380  0.8791  0.7235 -1.5601
   80bbb     C8 2392   6.067   2.253   8.430 -0.4325  0.7027  0.2397
   80bbb    H15 2393   6.135   2.301   8.358 -0.4200  0.9949  0.4466
   80bbb    H16 2394   6.119   2.197   8.508  1.6850  0.8877 -0.9504
   80bbb     C9 2395   5.996   2.668   8.938 -0.4201  0.1353 -0.1050
   80bbb    H17 2396   5.965   2.755   8.997 -1.0994 -1.0710  1.3784
   80bbb    H18 2397   6.097   2.683   8.899 -0.2487 -0.7921 -0.0335
   80bbb     O1 2398   5.953   2.788   8.244 -0.6511 -0.3212  0.0030
   80bbb    H19 2399   6.116   2.621   8.684  0.0870  2.0630 -0.6308
   81bbb     N1 2400   4.465   2.178   8.395  0.1938 -0.0293 -0.2263
   81bbb     C1 2401   4.333   2.124   8.441  0.5665 -0.5046  0.2370
   81bbb     H1 2402   4.257   2.158   8.371 -1.3864 -1.9167  1.5679
   81bbb     H2 2403   4.310   2.169   8.538 -1.5092 -0.3345 -0.2813
   81bbb     C2 2404   4.548   2.178   8.516 -0.4364 -0.0595  0.2004
   81bbb     H3 2405   4.582   2.077   8.542  0.2561  0.4006  1.1642
   81bbb     H4 2406   4.482   2.217   8.594 -1.7036  0.0900 -0.9204
   81bbb     C3 2407   4.523   2.101   8.282  0.8340 -0.3716 -0.0959
   81bbb     H5 2408   4.532   1.995   8.305 -1.2374 -0.5541  0.0257
   81bbb     H6 2409   4.622   2.146   8.270  1.4798 -2.0466 -1.6011
   81bbb     C4 2410   4.445   2.129   8.152 -0.2807  0.1887  0.0898
   81bbb     H7 2411   4.424   2.235   8.134  2.0853  0.5653 -0.7450
   81bbb     H8 2412   4.351   2.072   8.162  0.9030 -1.8109  0.3914
   81bbb     C5 2413   4.327   1.971   8.450  0.4720 -0.0392  0.0991
   81bbb     H9 2414   4.411   1.923   8.503  1.0041 -0.7693 -1.3465
   81bbb    H10 2415   4.344   1.929   8.350 -0.0639 -0.1824  0.0686
   81bbb     C6 2416   4.685   2.247   8.504 -0.3973 -0.2008  0.2313
   81bbb    H11 2417   4.672   2.353   8.479  1.4927 -0.6486 -3.2420
   81bbb    H12 2418   4.750   2.203   8.428  0.8952  0.5656  0.8419
   81bbb     C7 2419   4.519   2.073   8.030 -0.2001 -0.3055  0.0645
   81bbb    H13 2420   4.450   2.050   7.948  0.0106 -1.3925  0.1857
   81bbb    H14 2421   4.556   1.974   8.057 -2.4274 -0.7276  1.8521
   81bbb     C8 2422   4.768   2.247   8.636  0.0768  0.0425  0.5727
   81bbb    H15 2423   4.796   2.143   8.659  0.7131  0.1909  0.4864
   81bbb    H16 2424   4.860   2.304   8.622 -0.2361  0.1307 -1.4512
   81bbb     C9 2425   4.182   1.924   8.491  0.0791 -0.2434  0.2294
   81bbb    H17 2426   4.118   1.945   8.404  1.7903 -1.8180 -1.5237
   81bbb    H18 2427   4.142   1.962   8.585 -0.2120  0.8916 -0.3362
   81bbb     O1 2428   4.620   2.169   7.988 -0.6328 -0.3313 -0.8524
   81bbb    H19 2429   4.447   2.274   8.362 -0.0597 -0.1379 -0.3986
   82bbb     N1 2430   4.166   1.937   7.344  0.3571 -0.4300 -0.7040
   82bbb     C1 2431   4.040   1.926   7.428 -0.1031 -0.6345  0.4871
   82bbb     H1 2432   3.969   1.891   7.353  4.0648 -4.3131 -2.2868
   82bbb     H2 2433   4.006   2.023   7.463 -0.7907 -0.6719 -0.0535
   82bbb     C2 2434   4.137   2.010   7.217 -0.4999  0.0415  0.5680
   82bbb     H3 2435   4.226   2.009   7.154 -0.7837  1.5618  0.1062
   82bbb     H4 2436   4.119   2.116   7.238 -0.4968  0.2557 -0.4545
   82bbb     C3 2437   4.282   2.012   7.409  0.3239 -0.6422  0.4758
   82bbb     H5 2438   4.359   2.022   7.333  0.8355 -0.6917  0.9817
   82bbb     H6 2439   4.303   1.941   7.489 -2.4000 -3.4985 -1.1086
   82bbb     C4 2440   4.249   2.152   7.466  0.0562  0.1152 -0.8539
   82bbb     H7 2441   4.160   2.147   7.530  0.7177  0.8176  0.1609
   82bbb     H8 2442   4.217   2.226   7.392 -0.1456  1.2889  0.3508
   82bbb     C5 2443   4.054   1.822   7.546  0.4366 -0.5012 -0.3193
   82bbb     H9 2444   4.133   1.858   7.613 -0.3603  1.1230 -0.1835
   82bbb    H10 2445   4.087   1.728   7.500 -0.7953 -0.3886 -1.5296
   82bbb     C6 2446   4.018   1.963   7.127 -0.1018  0.2137  0.9722
   82bbb    H11 2447   3.924   1.974   7.183 -0.2836  1.6076  0.4464
   82bbb    H12 2448   4.038   1.857   7.104  4.0554  0.7257  1.5548
   82bbb     C7 2449   4.358   2.206   7.558 -0.1235 -0.2325 -0.5792
   82bbb    H13 2450   4.438   2.243   7.492  0.2614  1.0374  0.5670
   82bbb    H14 2451   4.394   2.123   7.620 -3.8077 -0.3375  1.6885
   82bbb     C8 2452   4.006   2.044   6.994 -0.5181 -0.0281  0.6083
   82bbb    H15 2453   4.051   2.143   7.010  2.0576 -1.0706  0.2886
   82bbb    H16 2454   4.063   1.997   6.913 -1.0883 -0.8738  0.6806
   82bbb     C9 2455   3.918   1.803   7.625 -0.0889 -0.8052 -0.5985
   82bbb    H17 2456   3.830   1.843   7.573  0.4693 -0.9448 -1.6808
   82bbb    H18 2457   3.930   1.865   7.714 -0.9139  0.4349 -1.3212
   82bbb     O1 2458   4.303   2.304   7.641 -0.1953 -0.0133  0.0370
   82bbb    H19 2459   4.197   1.842   7.320 -0.1292 -0.8077  0.1289
   83bbb     N1 2460   3.427   3.094   8.021  0.6296 -1.0587  1.0868
   83bbb     C1 2461   3.311   3.136   7.927 -0.6961 -0.2313  0.7424
   83bbb     H1 2462   3.289   3.243   7.917 -0.1555  0.0480  2.2374
   83bbb     H2 2463   3.228   3.086   7.977 -1.1917 -0.4433 -0.2641
   83bbb     C2 2464   3.558   3.165   7.969 -0.0040 -0.2424  0.5701
   83bbb     H3 2465   3.518   3.254   7.921  0.6108 -0.7364 -0.9086
   83bbb     H4 2466   3.595   3.111   7.882  0.4730 -0.9362  1.1908
   83bbb     C3 2467   3.381   3.129   8.161  0.3405 -0.4883  0.4946
   83bbb     H5 2468   3.453   3.091   8.233  0.1229  0.6383  1.3319
   83bbb     H6 2469   3.297   3.061   8.178 -0.0937  0.0809  0.6792
   83bbb     C4 2470   3.351   3.277   8.193  0.1036  0.1802  0.6424
   83bbb     H7 2471   3.280   3.321   8.121 -0.6183 -2.2830 -0.2366
   83bbb     H8 2472   3.441   3.337   8.174  0.9885 -1.5900 -1.0224
   83bbb     C5 2473   3.311   3.087   7.778 -0.1115 -0.1116 -0.1484
   83bbb     H9 2474   3.205   3.085   7.750 -0.0088 -1.6670 -0.4937
   83bbb    H10 2475   3.355   2.987   7.770 -0.5181 -0.3061 -0.0051
   83bbb     C6 2476   3.667   3.196   8.064 -0.3805  0.1092 -0.0423
   83bbb    H11 2477   3.678   3.099   8.114 -0.0012  1.1755  2.1073
   83bbb    H12 2478   3.637   3.267   8.143  0.3085  0.1149  0.2187
   83bbb     C7 2479   3.281   3.299   8.331  0.0508  0.1562  0.1345
   83bbb    H13 2480   3.172   3.283   8.328  0.0520  0.3047 -0.6891
   83bbb    H14 2481   3.289   3.408   8.328 -2.3436  0.3585 -0.8612
   83bbb     C8 2482   3.804   3.237   7.995 -0.0457 -0.0335  0.4147
   83bbb    H15 2483   3.858   3.297   8.070 -0.4812 -1.9567  2.3676
   83bbb    H16 2484   3.851   3.143   7.966 -0.1961  0.4818 -1.6781
   83bbb     C9 2485   3.392   3.192   7.691  0.1968 -0.9261 -0.5390
   83bbb    H17 2486   3.393   3.136   7.597 -0.0240 -0.4282 -0.8418
   83bbb    H18 2487   3.493   3.199   7.733 -0.1610  0.8757  0.1083
   83bbb     O1 2488   3.347   3.236   8.439 -0.5575 -0.3777  0.2176
   83bbb    H19 2489   3.445   2.993   8.019  0.2211 -1.1872 -3.0400
   84bbb     N1 2490   3.107   2.974   9.512  0.0897  0.3746  0.0645
   84bbb     C1 2491   3.119   2.969   9.661 -0.1018 -0.1353  0.6042
   84bbb     H1 2492   3.086   3.065   9.698  0.7727  0.0361  0.9761
   84bbb     H2 2493   3.224   2.946   9.684 -0.1688 -0.4279  0.6280
   84bbb     C2 2494   3.103   3.115   9.468 -0.7545  0.7607  0.1239
   84bbb     H3 2495   3.098   3.111   9.359 -2.1920 -0.2555  0.2034
   84bbb     H4 2496   3.197   3.163   9.498 -0.9662 -1.2035  4.6699
   84bbb     C3 2497   3.215   2.890   9.444 -0.0948  0.1316  0.0738
   84bbb     H5 2498   3.265   2.834   9.522 -0.5941 -0.4141  0.0078
   84bbb     H6 2499   3.289   2.959   9.401  1.0820 -2.5244 -2.5305
   84bbb     C4 2500   3.170   2.803   9.327  0.5527 -0.2438 -0.3402
   84bbb     H7 2501   3.113   2.855   9.249 -0.8646 -1.1462  0.0544
   84bbb     H8 2502   3.103   2.725   9.365  0.1417  0.0955 -0.3620
   84bbb     C5 2503   3.042   2.858   9.728 -0.0530  0.9028  0.2224
   84bbb     H9 2504   3.062   2.866   9.836 -1.7799  0.2544  0.6113
   84bbb    H10 2505   3.087   2.765   9.691  0.9547  1.5030 -0.1049
   84bbb     C6 2506   2.979   3.203   9.509 -0.4363 -0.1529  0.2069
   84bbb    H11 2507   3.001   3.310   9.495 -3.4848  0.4843 -0.5643
   84bbb    H12 2508   2.944   3.182   9.611  1.6557 -0.3102  0.9410
   84bbb     C7 2509   3.287   2.737   9.245 -0.1167 -0.3294  0.6648
   84bbb    H13 2510   3.262   2.643   9.194  2.9651 -1.4145  0.9589
   84bbb    H14 2511   3.356   2.707   9.325 -0.5526 -0.2597  1.0749
   84bbb     C8 2512   2.872   3.184   9.407 -0.6487  0.2801  0.3154
   84bbb    H15 2513   2.791   3.255   9.428 -1.6382 -0.5080 -0.7548
   84bbb    H16 2514   2.920   3.197   9.309  0.3087 -2.0169  0.4201
   84bbb     C9 2515   2.887   2.859   9.695 -1.0494 -0.4679  0.3291
   84bbb    H17 2516   2.881   2.826   9.590  0.6806 -1.6841  0.5694
   84bbb    H18 2517   2.851   2.963   9.695 -0.6414 -0.2938 -1.3144
   84bbb     O1 2518   3.336   2.844   9.165  0.1813  0.2534  0.2602
   84bbb    H19 2519   3.014   2.932   9.495 -0.0466  0.6064  0.2248
   85bbb     N1 2520   2.622   4.465   8.318  1.2316  0.7928  0.5264
   85bbb     C1 2521   2.599   4.519   8.460 -0.5703  0.0701 -0.2178
   85bbb     H1 2522   2.522   4.595   8.446 -1.8862 -0.9213  1.2767
   85bbb     H2 2523   2.697   4.564   8.478  1.1466 -3.3533 -0.2491
   85bbb     C2 2524   2.638   4.577   8.214  0.1540  0.2915 -0.0726
   85bbb     H3 2525   2.728   4.637   8.228 -0.3672  1.1086 -0.1089
   85bbb     H4 2526   2.549   4.637   8.237 -0.7464 -1.1461  0.3104
   85bbb     C3 2527   2.759   4.391   8.327 -0.0107  0.2870 -0.1344
   85bbb     H5 2528   2.745   4.307   8.259 -0.9335  0.1939  0.1529
   85bbb     H6 2529   2.762   4.343   8.426 -1.0502 -0.3055 -0.3758
   85bbb     C4 2530   2.889   4.456   8.293  0.1864 -0.4056  0.2563
   85bbb     H7 2531   2.908   4.550   8.346  1.8923 -1.4558  1.6164
   85bbb     H8 2532   2.877   4.477   8.186 -1.7547  2.2390  0.8923
   85bbb     C5 2533   2.571   4.423   8.581  0.5726  0.5395 -0.1723
   85bbb     H9 2534   2.669   4.384   8.613 -0.1321 -0.9625  0.2312
   85bbb    H10 2535   2.509   4.335   8.562  0.3298  0.1154  2.2969
   85bbb     C6 2536   2.630   4.528   8.066 -0.3210 -0.0188  0.7822
   85bbb    H11 2537   2.526   4.536   8.029  0.1791  0.5067 -0.5814
   85bbb    H12 2538   2.668   4.426   8.057  0.0465  0.2438 -0.9215
   85bbb     C7 2539   3.019   4.375   8.313  0.0734  0.4956  0.0973
   85bbb    H13 2540   3.109   4.438   8.307 -1.2004  2.4266  0.2297
   85bbb    H14 2541   3.026   4.305   8.229 -1.4837  0.0245  0.3302
   85bbb     C8 2542   2.721   4.603   7.971 -0.1086 -0.6498  0.1610
   85bbb    H15 2543   2.821   4.617   8.014 -0.2216  0.3263  0.1358
   85bbb    H16 2544   2.732   4.546   7.878  2.4923 -0.1795  0.1055
   85bbb     C9 2545   2.517   4.489   8.712 -0.1983  0.2900  0.7020
   85bbb    H17 2546   2.596   4.554   8.751 -0.8763 -1.0344  4.6687
   85bbb    H18 2547   2.506   4.406   8.782  2.0501  1.0686  2.1010
   85bbb     O1 2548   3.016   4.306   8.438  0.4137 -0.0435 -0.2742
   85bbb    H19 2549   2.549   4.398   8.290  0.9561  1.8666 -1.5088
   86bbb     N1 2550   3.543   4.442   9.478 -0.5562 -0.7128 -0.2848
   86bbb     C1 2551   3.401   4.473   9.533 -0.4473  0.1576 -0.0747
   86bbb     H1 2552   3.361   4.394   9.597 -0.6039  0.3382  0.0516
   86bbb     H2 2553   3.342   4.482   9.441  0.9226  1.0756 -0.9109
   86bbb     C2 2554   3.645   4.396   9.586  0.1320 -0.0390 -0.2395
   86bbb     H3 2555   3.660   4.484   9.649  0.4699 -1.8526  2.3469
   86bbb     H4 2556   3.734   4.374   9.528 -0.5578  0.5034 -1.5468
   86bbb     C3 2557   3.528   4.337   9.371 -0.1313 -0.3795 -0.5738
   86bbb     H5 2558   3.459   4.256   9.394 -3.0406  1.7702 -1.2281
   86bbb     H6 2559   3.627   4.292   9.371  0.6471  1.2349  0.2813
   86bbb     C4 2560   3.499   4.397   9.229  0.0630 -0.1809  0.0751
   86bbb     H7 2561   3.576   4.474   9.215  0.7688 -0.4110  2.2901
   86bbb     H8 2562   3.400   4.442   9.222  1.0080  2.2748  1.3811
   86bbb     C5 2563   3.386   4.607   9.598  0.0222  0.0437  0.1438
   86bbb     H9 2564   3.447   4.628   9.687 -1.5257  0.9336  1.0465
   86bbb    H10 2565   3.281   4.614   9.629 -0.4416  0.6255 -1.4563
   86bbb     C6 2566   3.611   4.278   9.682 -0.2469  0.9084 -0.7979
   86bbb    H11 2567   3.524   4.298   9.746 -0.6015  0.2657 -1.0779
   86bbb    H12 2568   3.692   4.264   9.755  1.3172 -0.2279 -2.6598
   86bbb     C7 2569   3.517   4.296   9.116  0.9764  0.4434 -0.0687
   86bbb    H13 2570   3.431   4.228   9.117  1.5948 -0.3882 -1.1545
   86bbb    H14 2571   3.611   4.243   9.136  0.9772  1.4837  3.3201
   86bbb     C8 2572   3.585   4.145   9.608 -0.5996  0.2751 -0.5004
   86bbb    H15 2573   3.486   4.153   9.561  0.5656  3.2055 -2.7622
   86bbb    H16 2574   3.654   4.137   9.524  0.7105 -0.4552  0.6131
   86bbb     C9 2575   3.393   4.729   9.500 -0.1330  0.1755  0.3859
   86bbb    H17 2576   3.373   4.826   9.546 -0.1903  0.2347  0.2359
   86bbb    H18 2577   3.315   4.724   9.423 -0.5736 -0.5805  0.8711
   86bbb     O1 2578   3.523   4.349   8.985 -0.2007 -0.0474  0.3259
   86bbb    H19 2579   3.575   4.531   9.439 -1.7346  0.5362  1.4393
   87bbb     N1 2580   7.897   4.520   7.664 -0.7671  0.7652 -0.4163
   87bbb     C1 2581   7.837   4.391   7.604  0.4026  0.2345 -1.1064
   87bbb     H1 2582   7.759   4.420   7.534 -0.1662 -1.8624 -1.4298
   87bbb     H2 2583   7.782   4.337   7.681 -1.1617  0.5057 -1.9878
   87bbb     C2 2584   7.896   4.634   7.561  0.0718  0.1037  0.1194
   87bbb     H3 2585   7.795   4.664   7.534 -0.9635 -0.8568  2.6721
   87bbb     H4 2586   7.936   4.590   7.469 -1.0589  1.8884 -1.2966
   87bbb     C3 2587   7.819   4.555   7.790 -0.3079  0.3047 -0.0974
   87bbb     H5 2588   7.888   4.617   7.847 -0.6684  0.2064  0.4481
   87bbb     H6 2589   7.807   4.460   7.842  2.0309 -0.7683 -1.3275
   87bbb     C4 2590   7.691   4.637   7.781 -0.2629  0.0287 -0.0765
   87bbb     H7 2591   7.612   4.582   7.729  2.3525 -1.2153 -3.0230
   87bbb     H8 2592   7.709   4.718   7.709 -0.1012  0.2280  0.1851
   87bbb     C5 2593   7.941   4.299   7.538  0.3847 -0.4992  0.4369
   87bbb     H9 2594   8.002   4.250   7.615 -3.1283 -0.7678  3.2957
   87bbb    H10 2595   8.007   4.360   7.475  1.1763 -0.6729  1.0721
   87bbb     C6 2596   7.986   4.758   7.593 -0.8246  0.3028 -0.2280
   87bbb    H11 2597   7.948   4.814   7.679  2.0820  1.3255  0.5081
   87bbb    H12 2598   7.976   4.829   7.510 -1.4310 -0.2740 -0.6641
   87bbb     C7 2599   7.622   4.684   7.918  0.2792 -0.4475  0.5759
   87bbb    H13 2600   7.520   4.714   7.888  1.2893  0.0631 -2.7144
   87bbb    H14 2601   7.675   4.763   7.974 -1.2039  1.1503 -0.1644
   87bbb     C8 2602   8.137   4.734   7.598 -0.3512 -0.3711 -0.0546
   87bbb    H15 2603   8.156   4.688   7.696 -2.2044  0.3167  0.6712
   87bbb    H16 2604   8.174   4.662   7.525 -0.1078  0.1781 -0.4784
   87bbb     C9 2605   7.873   4.193   7.439 -0.1221 -0.1035  0.4538
   87bbb    H17 2606   7.794   4.248   7.387  0.7092  0.9514  0.2536
   87bbb    H18 2607   7.828   4.111   7.496 -1.5042  2.0655  2.7565
   87bbb     O1 2608   7.594   4.583   8.018  0.3108 -0.1813 -0.9579
   87bbb    H19 2609   7.992   4.493   7.692 -0.3296 -0.0920 -2.5375
   88bbb     N1 2610   8.101   3.448   8.547 -0.3738  0.3019 -0.4969
   88bbb     C1 2611   8.170   3.497   8.674 -0.6428  0.1432 -0.6768
   88bbb     H1 2612   8.150   3.432   8.760  0.1482 -0.7206 -1.1253
   88bbb     H2 2613   8.126   3.593   8.698 -0.9512  0.4105 -2.2516
   88bbb     C2 2614   7.971   3.383   8.584 -0.2457 -0.0064 -0.2200
   88bbb     H3 2615   7.917   3.374   8.490  1.7276 -2.5092 -1.2234
   88bbb     H4 2616   7.920   3.454   8.650  1.8037  0.6938  0.6839
   88bbb     C3 2617   8.076   3.559   8.447 -0.4955 -0.0892  0.3202
   88bbb     H5 2618   8.063   3.506   8.352 -1.3504  0.2438  0.2442
   88bbb     H6 2619   8.169   3.616   8.445 -0.8039  0.5039  1.5091
   88bbb     C4 2620   7.965   3.658   8.471 -0.0705  0.2532  0.7784
   88bbb     H7 2621   7.978   3.707   8.569  0.4585  1.3294  0.1886
   88bbb     H8 2622   7.862   3.622   8.464 -0.7137  2.1945 -0.7796
   88bbb     C5 2623   8.328   3.526   8.659  0.2741 -0.0345 -0.4613
   88bbb     H9 2624   8.336   3.601   8.580 -1.2122 -1.1130 -1.7030
   88bbb    H10 2625   8.390   3.443   8.623  1.2999  0.3787  0.3039
   88bbb     C6 2626   7.978   3.249   8.667  0.3622 -0.4754  0.1784
   88bbb    H11 2627   7.886   3.217   8.718  0.1090  1.1436  0.7950
   88bbb    H12 2628   8.043   3.249   8.756 -0.7139 -4.2836  1.1482
   88bbb     C7 2629   7.976   3.774   8.369  0.9098 -0.1449 -0.1304
   88bbb    H13 2630   7.954   3.729   8.270  3.3850  1.2812 -1.4075
   88bbb    H14 2631   8.078   3.814   8.373  0.9049 -0.2312  0.8766
   88bbb     C8 2632   8.026   3.130   8.585  0.0165  0.0041 -0.3139
   88bbb    H15 2633   7.941   3.080   8.537  0.2078 -2.5377  1.7302
   88bbb    H16 2634   8.104   3.153   8.511  2.3891 -3.6016  0.7690
   88bbb     C9 2635   8.382   3.565   8.795  0.2711  0.9450 -0.4244
   88bbb    H17 2636   8.489   3.585   8.784  1.0141 -2.3582 -0.3442
   88bbb    H18 2637   8.382   3.477   8.861 -1.2289  1.0429 -0.2601
   88bbb     O1 2638   7.884   3.876   8.403  0.4688 -0.0463 -0.2890
   88bbb    H19 2639   8.165   3.380   8.503 -0.3248 -0.2362  0.4004
   89bbb     N1 2640   7.596   4.572   9.421 -0.6215 -0.4596  0.3354
   89bbb     C1 2641   7.725   4.573   9.502 -0.3663  0.3194  0.2163
   89bbb     H1 2642   7.768   4.474   9.483  0.0271  0.3899  0.7238
   89bbb     H2 2643   7.683   4.581   9.602  0.0759  0.5782  0.3842
   89bbb     C2 2644   7.610   4.524   9.283 -0.9749 -0.5657 -0.2490
   89bbb     H3 2645   7.510   4.491   9.257 -1.7323  1.3753  0.0645
   89bbb     H4 2646   7.673   4.434   9.282  1.9526  1.1055  3.8474
   89bbb     C3 2647   7.497   4.482   9.488 -0.3513 -0.0088  0.2515
   89bbb     H5 2648   7.544   4.384   9.496 -1.2709 -0.3418  2.3980
   89bbb     H6 2649   7.407   4.481   9.428 -0.9181 -1.5177  1.0806
   89bbb     C4 2650   7.446   4.533   9.626  0.0734  0.0220 -0.2834
   89bbb     H7 2651   7.421   4.640   9.622 -0.4808  0.2728  4.3914
   89bbb     H8 2652   7.523   4.519   9.703 -1.6715 -1.2218  1.3367
   89bbb     C5 2653   7.834   4.679   9.473 -0.1840 -0.8685 -0.3912
   89bbb     H9 2654   7.772   4.770   9.468 -0.2113 -0.7383  1.4826
   89bbb    H10 2655   7.888   4.662   9.380 -0.6503  0.6060 -0.9639
   89bbb     C6 2656   7.653   4.635   9.180 -0.0400 -0.5432  0.8992
   89bbb    H11 2657   7.675   4.599   9.079  0.2316 -1.1294  1.1599
   89bbb    H12 2658   7.750   4.675   9.212  0.2153  0.0652 -0.5962
   89bbb     C7 2659   7.316   4.460   9.674 -0.0240  0.1591  0.0753
   89bbb    H13 2660   7.294   4.490   9.777  3.6576  2.2785  0.4073
   89bbb    H14 2661   7.345   4.354   9.678 -1.0117 -0.1113  0.2695
   89bbb     C8 2662   7.557   4.749   9.173  0.0284  0.0399  0.6935
   89bbb    H15 2663   7.569   4.809   9.083 -0.5038  0.3984  0.8600
   89bbb    H16 2664   7.452   4.718   9.175 -0.3823  1.4040  1.6272
   89bbb     C9 2665   7.936   4.708   9.590 -0.2851 -0.4385 -0.5980
   89bbb    H17 2666   7.899   4.778   9.666  0.3618  0.8883 -1.4928
   89bbb    H18 2667   8.022   4.770   9.561 -0.0465 -0.6479 -0.3483
   89bbb     O1 2668   7.215   4.475   9.578  0.2685 -0.0803 -0.3609
   89bbb    H19 2669   7.559   4.668   9.423 -2.7507 -1.2114  0.3442
   90bbb     N1 2670   7.585   3.581   9.490  0.2062 -0.3073  0.0078
   90bbb     C1 2671   7.725   3.519   9.484 -0.5881  0.1279  0.2815
   90bbb     H1 2672   7.730   3.421   9.532  0.5116  0.6918  1.3676
   90bbb     H2 2673   7.791   3.586   9.538  0.8201 -1.0140  0.0276
   90bbb     C2 2674   7.550   3.610   9.638  0.3657 -0.4203 -0.4686
   90bbb     H3 2675   7.543   3.513   9.689  0.0018  0.3973  1.0942
   90bbb     H4 2676   7.449   3.651   9.643  0.3621 -0.5160  0.4593
   90bbb     C3 2677   7.569   3.715   9.419 -0.1445 -0.5918  0.7172
   90bbb     H5 2678   7.623   3.703   9.325  1.7845  1.3824  1.4910
   90bbb     H6 2679   7.620   3.789   9.481 -0.4900  0.0769  0.2093
   90bbb     C4 2680   7.421   3.759   9.392  0.2379  0.2044  0.5329
   90bbb     H7 2681   7.370   3.764   9.489 -1.6971  0.3484 -0.4501
   90bbb     H8 2682   7.360   3.701   9.322  2.4160  0.2245 -1.4947
   90bbb     C5 2683   7.782   3.491   9.340 -0.3513  0.8392 -0.4401
   90bbb     H9 2684   7.827   3.583   9.300  1.9846  0.3004  0.7924
   90bbb    H10 2685   7.705   3.457   9.269  1.5882 -1.6261 -1.4747
   90bbb     C6 2686   7.646   3.701   9.718 -0.4416  0.1182  0.0410
   90bbb    H11 2687   7.691   3.771   9.648 -0.7095  0.3628  0.1114
   90bbb    H12 2688   7.731   3.641   9.753 -1.4635 -1.8938 -0.7165
   90bbb     C7 2689   7.405   3.907   9.355  0.7798 -0.3568  0.5096
   90bbb    H13 2690   7.438   3.925   9.252  1.6366 -0.6108  0.7267
   90bbb    H14 2691   7.471   3.975   9.411 -0.5730  1.2663  0.2028
   90bbb     C8 2692   7.560   3.782   9.828 -0.7538 -0.0540 -0.1133
   90bbb    H15 2693   7.502   3.861   9.780 -1.2815 -1.8136 -2.5826
   90bbb    H16 2694   7.488   3.718   9.880  1.5312 -1.2431  1.8114
   90bbb     C9 2695   7.896   3.389   9.336 -0.4050 -0.0910 -0.0036
   90bbb    H17 2696   7.972   3.436   9.399 -0.1880 -2.4836  1.6518
   90bbb    H18 2697   7.945   3.380   9.238 -1.1296 -0.4057 -0.3445
   90bbb     O1 2698   7.275   3.958   9.382  0.4985  0.4299 -0.1334
   90bbb    H19 2699   7.523   3.512   9.446 -0.5053  0.1807  0.2336
   91bbb     N1 2700   5.443   5.113  10.272 -0.3498 -0.4355 -0.3467
   91bbb     C1 2701   5.313   5.054  10.230 -0.1792  0.2433 -0.9345
   91bbb     H1 2702   5.243   5.136  10.245 -0.3108 -0.4023  3.1379
   91bbb     H2 2703   5.286   4.974  10.299  1.2181 -1.5097 -2.3123
   91bbb     C2 2704   5.432   5.178  10.420 -0.3099 -0.0466 -0.2743
   91bbb     H3 2705   5.531   5.178  10.465  0.3355  0.9021 -1.6335
   91bbb     H4 2706   5.379   5.104  10.480 -0.0646 -0.2891 -0.3553
   91bbb     C3 2707   5.538   4.992  10.282 -0.0516 -0.6150 -0.2162
   91bbb     H5 2708   5.539   4.936  10.188 -0.1255 -1.1241  0.0823
   91bbb     H6 2709   5.509   4.926  10.364  1.2036 -0.5159  0.3368
   91bbb     C4 2710   5.689   5.018  10.310  0.2013 -0.4742 -0.5908
   91bbb     H7 2711   5.720   4.932  10.371 -1.9423 -2.2824 -1.8469
   91bbb     H8 2712   5.706   5.113  10.361  2.1485 -0.9783 -0.2123
   91bbb     C5 2713   5.307   5.007  10.078 -0.2095  0.5119  0.0623
   91bbb     H9 2714   5.208   4.968  10.049 -0.5478  0.4872  1.1615
   91bbb    H10 2715   5.378   4.926  10.060 -1.9065 -1.1495  0.4853
   91bbb     C6 2716   5.359   5.316  10.433  0.1087 -0.0624 -0.4480
   91bbb    H11 2717   5.265   5.316  10.376 -1.6697 -1.0960  2.2964
   91bbb    H12 2718   5.423   5.398  10.397  1.1888 -0.1087  1.2836
   91bbb     C7 2719   5.783   5.007  10.178  0.0167  0.0419 -0.2557
   91bbb    H13 2720   5.887   5.019  10.212 -0.1755 -1.8705  1.1811
   91bbb    H14 2721   5.760   5.084  10.104  0.0446 -0.1085 -0.4212
   91bbb     C8 2722   5.320   5.358  10.576 -0.1872 -0.6287 -0.6444
   91bbb    H15 2723   5.255   5.446  10.564  0.4994 -0.1696 -1.0324
   91bbb    H16 2724   5.257   5.280  10.621 -0.6651  0.3798  0.4999
   91bbb     C9 2725   5.330   5.125   9.985 -0.5816  0.0712 -0.4295
   91bbb    H17 2726   5.292   5.094   9.886  1.9851 -4.1675 -0.3391
   91bbb    H18 2727   5.437   5.142   9.967  0.1130 -0.5291  2.6540
   91bbb     O1 2728   5.769   4.873  10.130 -0.3781 -0.6267  0.0740
   91bbb    H19 2729   5.481   5.183  10.207 -0.9388  0.8756  0.6841
   92bbb     N1 2730   6.662   4.613  10.571 -0.1567  0.2841 -0.2523
   92bbb     C1 2731   6.815   4.607  10.589  0.1938  0.7014 -0.1280
   92bbb     H1 2732   6.867   4.703  10.584 -0.7472  1.1528 -2.4039
   92bbb     H2 2733   6.844   4.549  10.501 -0.3498 -1.5520  1.1115
   92bbb     C2 2734   6.608   4.731  10.656  0.6465 -0.0897  0.1705
   92bbb     H3 2735   6.640   4.721  10.759  2.0518  0.0821 -0.2296
   92bbb     H4 2736   6.499   4.732  10.650  0.6187 -0.9882  0.3184
   92bbb     C3 2737   6.630   4.610  10.425 -0.6475  0.0353  0.6986
   92bbb     H5 2738   6.693   4.530  10.387 -1.4891 -0.6239  0.6716
   92bbb     H6 2739   6.659   4.705  10.378 -0.2827  0.3989  1.6406
   92bbb     C4 2740   6.482   4.575  10.390 -0.3193  0.5541  0.1896
   92bbb     H7 2741   6.422   4.664  10.412  1.0827  2.0200 -1.5890
   92bbb     H8 2742   6.453   4.489  10.452 -0.2128  0.3073 -0.0982
   92bbb     C5 2743   6.866   4.523  10.709 -0.1956 -1.4957 -0.4472
   92bbb     H9 2744   6.815   4.555  10.801  1.8901  0.2894  0.1777
   92bbb    H10 2745   6.972   4.547  10.727 -1.1908  1.5476  2.2423
   92bbb     C6 2746   6.654   4.870  10.617  0.2309  0.4112  0.6362
   92bbb    H11 2747   6.611   4.895  10.519 -0.5159 -1.0456  0.5743
   92bbb    H12 2748   6.762   4.860  10.599 -0.0940 -1.8156 -0.4579
   92bbb     C7 2749   6.450   4.535  10.240  0.1828  0.0593 -0.6234
   92bbb    H13 2750   6.517   4.452  10.215  2.8503  1.7375  0.4460
   92bbb    H14 2751   6.479   4.615  10.171  0.9700  2.3627  2.1666
   92bbb     C8 2752   6.612   4.970  10.724  0.1039 -0.4717  0.6015
   92bbb    H15 2753   6.554   5.048  10.673 -0.9042 -2.4843 -1.5264
   92bbb    H16 2754   6.548   4.922  10.800  0.3632 -1.9539 -0.0800
   92bbb     C9 2755   6.862   4.372  10.683  0.0284  0.1218 -0.1940
   92bbb    H17 2756   6.931   4.323  10.753 -0.9561  0.3462  0.9645
   92bbb    H18 2757   6.906   4.355  10.584 -2.1411 -0.4919 -1.1024
   92bbb     O1 2758   6.310   4.495  10.230 -0.2991 -0.1983  0.5255
   92bbb    H19 2759   6.625   4.526  10.613 -2.7530  1.4260  0.0202
   93bbb     N1 2760   5.674   3.699  10.017  0.1383 -0.1634 -0.1135
   93bbb     C1 2761   5.755   3.609  10.099 -0.8526 -0.1066 -0.1522
   93bbb     H1 2762   5.856   3.638  10.130 -0.1420 -2.0673 -0.5089
   93bbb     H2 2763   5.766   3.524  10.032 -0.7784  0.7782 -1.2902
   93bbb     C2 2764   5.701   3.837  10.064  0.3269 -0.9780 -0.1563
   93bbb     H3 2765   5.757   3.884   9.983 -0.5729  1.4990  0.5393
   93bbb     H4 2766   5.759   3.835  10.156 -0.6377 -2.6410  0.4463
   93bbb     C3 2767   5.717   3.683   9.874 -0.1677  0.3758 -0.0835
   93bbb     H5 2768   5.825   3.691   9.887 -0.4710  2.6189  1.7050
   93bbb     H6 2769   5.679   3.771   9.822  1.8414  1.3480  0.0207
   93bbb     C4 2770   5.680   3.546   9.803 -0.1519  0.9240 -0.2095
   93bbb     H7 2771   5.573   3.522   9.813  0.0685 -0.3832 -0.7760
   93bbb     H8 2772   5.733   3.465   9.854 -0.0986  0.9178 -0.2751
   93bbb     C5 2773   5.684   3.564  10.229 -0.5229 -0.0523  0.4738
   93bbb     H9 2774   5.684   3.652  10.294  1.5484  0.5856 -0.2772
   93bbb    H10 2775   5.751   3.491  10.276 -0.9760  0.2888  1.6704
   93bbb     C6 2776   5.569   3.913  10.104  0.2585 -0.2184  0.1937
   93bbb    H11 2777   5.558   3.882  10.208 -1.2242  1.4358  0.5788
   93bbb    H12 2778   5.486   3.878  10.041 -0.1383  1.5152 -0.3136
   93bbb     C7 2779   5.700   3.553   9.648  0.1102 -0.1196  0.3141
   93bbb    H13 2780   5.626   3.618   9.601 -0.1398 -1.9456 -2.0521
   93bbb    H14 2781   5.683   3.453   9.605 -1.0323  0.1725  0.0447
   93bbb     C8 2782   5.571   4.064  10.097 -0.0958 -0.3467 -0.1003
   93bbb    H15 2783   5.654   4.106  10.155 -0.3842  1.1642 -0.7280
   93bbb    H16 2784   5.588   4.098   9.995 -0.5619 -0.4885 -0.2277
   93bbb     C9 2785   5.549   3.492  10.199  0.3011 -0.9057 -0.2494
   93bbb    H17 2786   5.519   3.437  10.289  1.9503 -1.8394 -0.2280
   93bbb    H18 2787   5.554   3.416  10.120 -1.7022 -1.6002  0.2341
   93bbb     O1 2788   5.837   3.593   9.601  0.0195  0.7303  0.0182
   93bbb    H19 2789   5.574   3.676  10.006  0.7156 -2.3936 -1.4859
   94bbb     N1 2790   6.081   2.927  10.098 -0.0555  0.7599  0.3356
   94bbb     C1 2791   6.201   2.908  10.189  0.4105 -0.5957 -0.4410
   94bbb     H1 2792   6.289   2.898  10.125 -0.1569  2.5272 -1.8959
   94bbb     H2 2793   6.194   2.809  10.236 -3.5037 -1.2836 -2.0889
   94bbb     C2 2794   5.961   2.929  10.194  0.1418  0.1304  0.3571
   94bbb     H3 2795   5.883   2.991  10.149  1.9408  1.0746 -1.6667
   94bbb     H4 2796   5.992   2.990  10.278  1.5120 -0.5451  0.3701
   94bbb     C3 2797   6.093   3.058  10.029  0.8851 -0.5607 -0.1342
   94bbb     H5 2798   6.102   3.142  10.099  0.5565 -0.2262 -0.4882
   94bbb     H6 2799   5.998   3.064   9.976 -0.0613  1.2398  1.6229
   94bbb     C4 2800   6.212   3.063   9.929 -0.4114 -0.4901 -0.1132
   94bbb     H7 2801   6.226   2.971   9.871  0.8912 -0.8009  0.6598
   94bbb     H8 2802   6.306   3.072   9.984  0.7762 -2.1401 -1.7490
   94bbb     C5 2803   6.235   3.020  10.291 -0.1458  0.5181  0.1942
   94bbb     H9 2804   6.181   3.003  10.384 -0.2530 -0.1906  0.0085
   94bbb    H10 2805   6.195   3.119  10.267  0.1062  1.3977  3.0359
   94bbb     C6 2806   5.904   2.784  10.237 -0.6689 -0.2501  0.1900
   94bbb    H11 2807   5.993   2.731  10.272 -0.5487 -0.4526 -0.4109
   94bbb    H12 2808   5.864   2.733  10.148 -1.0096  0.2342  0.0605
   94bbb     C7 2809   6.200   3.178   9.825  0.3423 -0.6833 -0.1360
   94bbb    H13 2810   6.121   3.159   9.751 -0.4170  0.5238  0.3293
   94bbb    H14 2811   6.292   3.183   9.765  1.0165 -1.7400  0.7740
   94bbb     C8 2812   5.802   2.797  10.349  0.6171 -0.4532  0.3503
   94bbb    H15 2813   5.852   2.833  10.440  0.9241 -0.2793  0.1157
   94bbb    H16 2814   5.735   2.880  10.323 -1.7043 -2.6544 -1.1509
   94bbb     C9 2815   6.388   3.033  10.320 -0.2219 -1.0091  0.2894
   94bbb    H17 2816   6.399   3.134  10.363  1.4265  0.0275 -2.3047
   94bbb    H18 2817   6.444   3.041  10.226 -1.0967  0.8424 -0.1301
   94bbb     O1 2818   6.175   3.305   9.887  0.2290 -0.1719 -0.2461
   94bbb    H19 2819   6.059   2.849  10.035 -0.7584  1.7727 -0.7278
   95bbb     N1 2820   3.607   4.782   2.525  0.3623  0.7103  0.3972
   95bbb     C1 2821   3.533   4.915   2.540 -0.2079 -0.0003  0.1530
   95bbb     H1 2822   3.591   4.991   2.487  0.4735  0.9208  2.1415
   95bbb     H2 2823   3.535   4.953   2.642  4.3837  0.1298  0.2018
   95bbb     C2 2824   3.647   4.768   2.376 -0.5167 -0.4880 -0.3852
   95bbb     H3 2825   3.745   4.816   2.374 -1.8371  2.6704  1.6586
   95bbb     H4 2826   3.585   4.835   2.315  0.9591  2.2616  0.9345
   95bbb     C3 2827   3.736   4.786   2.608  0.5294  0.8513 -0.1668
   95bbb     H5 2828   3.793   4.879   2.599  3.1377 -0.6206  0.2519
   95bbb     H6 2829   3.797   4.714   2.553  2.5299  1.2965  1.3766
   95bbb     C4 2830   3.740   4.754   2.762  0.0990  0.2160 -0.4268
   95bbb     H7 2831   3.726   4.647   2.778  0.6704  0.4140  1.7154
   95bbb     H8 2832   3.658   4.806   2.815  0.4902 -0.4743  0.8857
   95bbb     C5 2833   3.387   4.913   2.500  0.8324 -0.5162  0.4181
   95bbb     H9 2834   3.336   4.833   2.555 -0.5140  0.5674  0.7832
   95bbb    H10 2835   3.372   4.897   2.392  1.2589  4.2262 -0.5273
   95bbb     C6 2836   3.645   4.628   2.306  0.4104 -0.0647  0.1249
   95bbb    H11 2837   3.629   4.639   2.198 -0.3508 -2.0623 -0.0024
   95bbb    H12 2838   3.557   4.583   2.352  0.5759  1.6448  2.3065
   95bbb     C7 2839   3.872   4.800   2.822  0.2509 -0.4834  0.3178
   95bbb    H13 2840   3.950   4.774   2.749  1.1167 -0.4585  1.2144
   95bbb    H14 2841   3.904   4.742   2.909 -0.9699 -2.7257 -0.6210
   95bbb     C8 2842   3.771   4.548   2.339 -0.0095  0.4852  0.0875
   95bbb    H15 2843   3.764   4.518   2.444  0.9699  0.5897  0.1911
   95bbb    H16 2844   3.785   4.457   2.279 -1.0541 -0.7915  1.6796
   95bbb     C9 2845   3.318   5.043   2.536  0.0317  0.3316 -0.1565
   95bbb    H17 2846   3.358   5.133   2.487  1.8982  1.1379  2.5939
   95bbb    H18 2847   3.327   5.062   2.643 -1.0225  0.7556 -0.1351
   95bbb     O1 2848   3.865   4.937   2.862 -0.1439  0.6047 -0.2355
   95bbb    H19 2849   3.551   4.704   2.564 -1.4395  2.0127  0.5102
   96bbb     N1 2850   3.489   5.659   2.584  0.2501  0.6914 -0.1601
   96bbb     C1 2851   3.418   5.799   2.609 -0.5035 -0.3524 -0.2809
   96bbb     H1 2852   3.493   5.874   2.585 -0.0639 -0.1958  1.4803
   96bbb     H2 2853   3.392   5.797   2.715  1.2298  0.1627  0.1801
   96bbb     C2 2854   3.641   5.682   2.580  0.4971 -0.3122  0.5455
   96bbb     H3 2855   3.663   5.719   2.680  1.2527  0.7290  0.0068
   96bbb     H4 2856   3.661   5.760   2.506  0.2057 -0.4476  0.3213
   96bbb     C3 2857   3.447   5.573   2.702 -0.2195 -0.1959 -0.3321
   96bbb     H5 2858   3.480   5.615   2.797 -0.8994 -0.0440 -0.1581
   96bbb     H6 2859   3.515   5.490   2.683 -1.0518 -0.3676 -2.9472
   96bbb     C4 2860   3.307   5.515   2.713  0.7833 -0.5757  0.2867
   96bbb     H7 2861   3.283   5.454   2.625  0.3113 -0.3398  0.2491
   96bbb     H8 2862   3.235   5.598   2.717  1.0790  0.0266 -3.0877
   96bbb     C5 2863   3.291   5.821   2.524  0.3220  0.4395 -0.0713
   96bbb     H9 2864   3.211   5.766   2.575  1.5363 -0.6301  0.7109
   96bbb    H10 2865   3.287   5.789   2.419 -2.4918 -1.6208  0.5459
   96bbb     C6 2866   3.732   5.557   2.565 -0.7499 -0.3346 -0.1370
   96bbb    H11 2867   3.707   5.488   2.646 -1.2301 -0.1941 -0.1636
   96bbb    H12 2868   3.839   5.583   2.562 -0.8329 -0.0555 -0.8999
   96bbb     C7 2869   3.299   5.431   2.836 -0.1423 -0.7475 -0.6446
   96bbb    H13 2870   3.197   5.399   2.857  0.4206 -1.6639  0.8943
   96bbb    H14 2871   3.325   5.507   2.912 -2.3272  0.7959 -1.3324
   96bbb     C8 2872   3.708   5.467   2.440  0.7873  0.2726  0.2845
   96bbb    H15 2873   3.752   5.367   2.454 -0.4923 -0.6294 -1.6965
   96bbb    H16 2874   3.599   5.461   2.430  0.9925 -3.5220 -1.3097
   96bbb     C9 2875   3.269   5.976   2.519 -0.3138  0.7854  0.1413
   96bbb    H17 2876   3.354   6.019   2.464 -0.0168  1.5374  1.1501
   96bbb    H18 2877   3.278   6.009   2.624 -0.1891  0.8972  0.0954
   96bbb     O1 2878   3.402   5.328   2.836 -0.0799 -0.3231 -0.0466
   96bbb    H19 2879   3.446   5.615   2.502  1.6705 -1.6736  0.2929
   97bbb     N1 2880   4.332   5.851   4.280 -0.9041 -0.1539  0.3104
   97bbb     C1 2881   4.363   5.746   4.385 -0.4679  0.3416 -0.5171
   97bbb     H1 2882   4.471   5.733   4.378 -0.3960  0.7553 -0.2363
   97bbb     H2 2883   4.312   5.650   4.375  0.3908 -0.2279  0.4103
   97bbb     C2 2884   4.453   5.957   4.274 -0.3320  0.1639 -1.1619
   97bbb     H3 2885   4.546   5.900   4.277 -0.7335 -0.4788  1.7361
   97bbb     H4 2886   4.457   6.020   4.363 -2.9453  1.8436 -2.1125
   97bbb     C3 2887   4.312   5.775   4.140 -0.5107  0.3629 -0.4871
   97bbb     H5 2888   4.398   5.710   4.125  0.7619  0.8545  3.4879
   97bbb     H6 2889   4.320   5.850   4.061  0.4100  1.3437  0.4914
   97bbb     C4 2890   4.183   5.690   4.122 -0.8616 -0.8519  0.2668
   97bbb     H7 2891   4.103   5.750   4.167  0.0406 -0.1431  0.9704
   97bbb     H8 2892   4.203   5.599   4.180  2.7581 -0.4459 -0.1295
   97bbb     C5 2893   4.341   5.797   4.531 -0.1444  0.4458  0.1653
   97bbb     H9 2894   4.239   5.831   4.554 -0.4630 -0.1907 -0.2712
   97bbb    H10 2895   4.412   5.879   4.548 -0.2155  0.7071 -0.7782
   97bbb     C6 2896   4.455   6.047   4.147 -0.1346  0.4448  0.2011
   97bbb    H11 2897   4.372   6.117   4.163 -1.0792 -0.6415  0.2336
   97bbb    H12 2898   4.437   5.998   4.050 -2.1367  2.1636 -0.3691
   97bbb     C7 2899   4.164   5.653   3.971 -0.0557  0.3513  0.4864
   97bbb    H13 2900   4.083   5.582   3.955  1.0328 -0.6146 -0.9941
   97bbb    H14 2901   4.253   5.613   3.922 -1.3138  0.4503 -2.0035
   97bbb     C8 2902   4.583   6.130   4.149 -0.4426  0.0333  0.6133
   97bbb    H15 2903   4.573   6.214   4.079 -0.7380  1.0730  1.8553
   97bbb    H16 2904   4.604   6.180   4.244 -0.3662 -0.0136  0.6208
   97bbb     C9 2905   4.376   5.672   4.621 -0.5205  0.2545  0.1189
   97bbb    H17 2906   4.308   5.590   4.593 -1.1458  1.6979 -3.0410
   97bbb    H18 2907   4.352   5.698   4.724 -0.4162 -0.3052  0.2900
   97bbb     O1 2908   4.148   5.782   3.902 -0.4007  0.4243  0.0458
   97bbb    H19 2909   4.244   5.899   4.305  1.2431  3.6331  1.5408
   98bbb     N1 2910   3.923   6.467   3.222 -0.1669 -0.5000  0.4515
   98bbb     C1 2911   4.054   6.418   3.287  0.1780  0.0000 -0.6149
   98bbb     H1 2912   4.099   6.346   3.219 -1.1303  1.9464 -3.7649
   98bbb     H2 2913   4.024   6.369   3.380  0.0788 -2.3826 -1.8227
   98bbb     C2 2914   3.962   6.500   3.071  0.4206  0.7078  0.2718
   98bbb     H3 2915   3.983   6.407   3.018  1.7761  1.5556 -0.7516
   98bbb     H4 2916   4.048   6.566   3.079 -0.6573  2.0691  1.0956
   98bbb     C3 2917   3.821   6.353   3.212  0.0252  0.0737  0.7262
   98bbb     H5 2918   3.867   6.273   3.153 -1.0442  0.1375 -0.2232
   98bbb     H6 2919   3.735   6.392   3.156  2.0183  2.4879 -0.8644
   98bbb     C4 2920   3.772   6.292   3.342 -0.7691  0.6640 -0.2634
   98bbb     H7 2921   3.704   6.366   3.386 -1.2511 -0.1213  0.3386
   98bbb     H8 2922   3.858   6.291   3.411 -1.3736 -0.6344  0.5015
   98bbb     C5 2923   4.157   6.527   3.319  0.0462 -0.0389  0.4204
   98bbb     H9 2924   4.104   6.599   3.383 -1.3371  1.1348 -1.9079
   98bbb    H10 2925   4.189   6.583   3.231  1.9223 -2.5979 -0.6504
   98bbb     C6 2926   3.846   6.565   2.998  0.9147  0.3268  0.9611
   98bbb    H11 2927   3.837   6.661   3.050 -1.1876  0.2284  0.8560
   98bbb    H12 2928   3.749   6.519   3.023  1.2578  0.0729  1.8577
   98bbb     C7 2929   3.709   6.153   3.316 -0.3227  0.2904 -0.3952
   98bbb    H13 2930   3.631   6.150   3.240 -1.4385 -2.1973  0.7423
   98bbb    H14 2931   3.655   6.102   3.397 -1.0002 -0.9574 -1.6100
   98bbb     C8 2932   3.866   6.593   2.848 -0.0019  0.8673  0.3793
   98bbb    H15 2933   3.788   6.663   2.814  0.1311  0.7355 -0.2095
   98bbb    H16 2934   3.963   6.639   2.826  1.5768 -1.5132  1.9671
   98bbb     C9 2935   4.279   6.479   3.408  0.3147  0.0263  0.3499
   98bbb    H17 2936   4.234   6.404   3.474 -1.9797 -0.0488 -1.1723
   98bbb    H18 2937   4.319   6.564   3.464 -1.5567  0.2051  1.5126
   98bbb     O1 2938   3.810   6.054   3.268  0.2624 -0.1759 -0.0698
   98bbb    H19 2939   3.882   6.543   3.278 -2.1052 -0.9123 -0.3142
   99bbb     N1 2940   2.874   2.895   3.124 -0.6028  0.1118 -0.1906
   99bbb     C1 2941   2.977   2.780   3.085 -0.4715  0.3089 -0.4775
   99bbb     H1 2942   3.063   2.822   3.033  0.3628 -2.1556 -1.2579
   99bbb     H2 2943   2.921   2.717   3.016  0.4334 -0.9646 -0.1000
   99bbb     C2 2944   2.744   2.834   3.179 -0.1134 -0.3001  0.4855
   99bbb     H3 2945   2.776   2.785   3.271  0.3803  0.8565  0.9497
   99bbb     H4 2946   2.718   2.759   3.104  0.7425 -0.7311  0.5985
   99bbb     C3 2947   2.936   3.002   3.211  0.0944 -0.0461 -0.5964
   99bbb     H5 2948   3.013   2.957   3.274 -2.1729  0.4696  2.8580
   99bbb     H6 2949   2.870   3.028   3.294  0.1531 -2.2121  0.1955
   99bbb     C4 2950   2.974   3.131   3.143  0.1891 -0.2202 -0.3676
   99bbb     H7 2951   2.889   3.194   3.117  1.5476  1.5784 -0.6876
   99bbb     H8 2952   3.031   3.115   3.050 -0.6045  0.6652 -1.0329
   99bbb     C5 2953   3.032   2.689   3.199 -0.1673  0.4821 -0.6205
   99bbb     H9 2954   2.952   2.645   3.260 -1.2673  2.4119 -0.5762
   99bbb    H10 2955   3.092   2.756   3.262  0.3461  1.1653 -1.7965
   99bbb     C6 2956   2.625   2.933   3.204 -0.4288  0.0614  0.3897
   99bbb    H11 2957   2.660   3.032   3.174 -2.2983  0.3689 -0.9378
   99bbb    H12 2958   2.599   2.930   3.310 -0.3089  1.0274  0.4564
   99bbb     C7 2959   3.065   3.212   3.228  0.5885 -0.7579 -0.1091
   99bbb    H13 2960   3.062   3.307   3.172 -2.6487 -0.4063  0.4503
   99bbb    H14 2961   3.165   3.166   3.223  1.2224  0.6103 -0.6803
   99bbb     C8 2962   2.497   2.890   3.128 -0.5119 -0.1012  0.0659
   99bbb    H15 2963   2.467   2.974   3.063 -1.2789  1.3662  2.1848
   99bbb    H16 2964   2.501   2.813   3.050 -0.1459  2.7569 -3.0125
   99bbb     C9 2965   3.128   2.580   3.146  0.6864  0.0160  0.6404
   99bbb    H17 2966   3.084   2.548   3.051  0.2959  2.6144 -0.1412
   99bbb    H18 2967   3.138   2.494   3.213 -0.0172 -0.4792  0.1321
   99bbb     O1 2968   3.024   3.239   3.366 -0.3681 -0.0347  0.3381
   99bbb    H19 2969   2.843   2.932   3.033 -2.0718 -0.4923  0.0351
  100bbb     N1 2970   2.555   3.980   3.223 -0.0243 -0.3982  0.7924
  100bbb     C1 2971   2.539   4.062   3.091  0.1974 -0.0462  0.5112
  100bbb     H1 2972   2.443   4.031   3.051  0.9933 -0.2930 -1.3057
  100bbb     H2 2973   2.611   4.017   3.023  0.8203  0.9725  0.4735
  100bbb     C2 2974   2.524   3.837   3.193  0.3955  0.0080  0.1298
  100bbb     H3 2975   2.536   3.780   3.285 -0.6015 -1.3094 -0.5134
  100bbb     H4 2976   2.598   3.789   3.128  1.3869  0.4006  0.9515
  100bbb     C3 2977   2.686   3.982   3.296 -0.0564 -0.3194 -0.0938
  100bbb     H5 2978   2.699   3.899   3.364 -0.8310 -0.7932 -0.5107
  100bbb     H6 2979   2.693   4.080   3.343 -1.2003  0.7247 -1.9388
  100bbb     C4 2980   2.814   3.983   3.214 -0.4570 -0.6475  0.0913
  100bbb     H7 2981   2.798   4.068   3.148 -1.5023  1.2270  2.5969
  100bbb     H8 2982   2.819   3.894   3.150  1.2150 -0.6491  0.1706
  100bbb     C5 2983   2.556   4.214   3.093  0.5146 -0.3757 -0.4327
  100bbb     H9 2984   2.659   4.245   3.112  0.7330 -1.2775 -0.0963
  100bbb    H10 2985   2.500   4.268   3.170  1.4638 -0.8047  0.5871
  100bbb     C6 2986   2.379   3.800   3.152  0.1387  0.0648  0.2072
  100bbb    H11 2987   2.352   3.838   3.053  1.2760 -0.0606 -0.1649
  100bbb    H12 2988   2.309   3.842   3.225 -0.7464 -2.3278  0.8197
  100bbb     C7 2989   2.941   3.998   3.303  0.6894 -0.0574 -0.2935
  100bbb    H13 2990   2.945   4.101   3.342  0.0121 -0.5013  1.0064
  100bbb    H14 2991   3.030   3.977   3.243 -1.3086 -2.7349 -2.5484
  100bbb     C8 2992   2.351   3.649   3.149  0.3479  0.2333  0.2013
  100bbb    H15 2993   2.401   3.603   3.063  1.0614  2.5407 -0.6805
  100bbb    H16 2994   2.388   3.605   3.243  0.9162 -1.7588 -0.9003
  100bbb     C9 2995   2.519   4.277   2.953 -0.2249 -0.3411 -0.2349
  100bbb    H17 2996   2.565   4.222   2.870 -2.7842 -0.0186 -1.9555
  100bbb    H18 2997   2.562   4.378   2.953  0.7968 -0.7360  1.4708
  100bbb     O1 2998   2.933   3.900   3.408  0.0982 -0.0817 -0.2825
  100bbb    H19 2999   2.485   4.012   3.292 -1.6141 -2.2967  0.1753
  101bbb     N1 3000   1.647   3.950   4.327 -0.4759 -0.6022 -0.1951
  101bbb     C1 3001   1.584   3.911   4.195 -0.3501  0.1557 -0.4053
  101bbb     H1 3002   1.503   3.841   4.217  1.6879 -1.8531  1.3590
  101bbb     H2 3003   1.665   3.857   4.146  0.0328 -0.6662  1.0525
  101bbb     C2 3004   1.639   3.828   4.425  0.1495 -0.6161  0.6995
  101bbb     H3 3005   1.686   3.742   4.376  1.5298  1.2221 -1.3707
  101bbb     H4 3006   1.533   3.805   4.433 -0.0556 -0.7455 -1.6677
  101bbb     C3 3007   1.793   4.006   4.316 -0.1292  0.3635  0.1904
  101bbb     H5 3008   1.814   4.046   4.416 -1.9169  2.2855 -0.1446
  101bbb     H6 3009   1.793   4.102   4.265 -2.6023  1.8472  2.6623
  101bbb     C4 3010   1.904   3.915   4.265 -0.0171  0.0119 -0.1819
  101bbb     H7 3011   1.911   3.921   4.156 -0.5378  1.6214 -0.1593
  101bbb     H8 3012   1.895   3.809   4.289 -0.9997  0.1584  0.1395
  101bbb     C5 3013   1.522   4.022   4.103 -0.6727  0.7513  0.1629
  101bbb     H9 3014   1.448   4.063   4.174 -2.0099 -0.3926 -0.5210
  101bbb    H10 3015   1.467   3.972   4.023 -0.9863  0.5144  0.5229
  101bbb     C6 3016   1.712   3.852   4.558  0.0382  0.6101  0.9339
  101bbb    H11 3017   1.817   3.880   4.544 -0.3811  2.1499  0.6227
  101bbb    H12 3018   1.712   3.768   4.628 -2.7424 -0.8498 -0.6540
  101bbb     C7 3019   2.039   3.977   4.324 -0.6279 -0.0572  0.0490
  101bbb    H13 3020   2.047   3.968   4.433  0.8706  1.4796  0.1118
  101bbb    H14 3021   2.035   4.085   4.301  1.4765  0.1193  0.3611
  101bbb     C8 3022   1.630   3.961   4.624  0.8922 -0.5555 -0.0895
  101bbb    H15 3023   1.675   3.997   4.717  1.0367  3.1084 -1.3885
  101bbb    H16 3024   1.621   4.046   4.556  0.9502 -1.8518 -1.7822
  101bbb     C9 3025   1.617   4.126   4.050 -0.1858  0.5453 -0.1415
  101bbb    H17 3026   1.662   4.183   4.132 -1.4715 -0.4755  1.3408
  101bbb    H18 3027   1.547   4.192   3.997 -0.4937  0.3065 -0.0400
  101bbb     O1 3028   2.166   3.922   4.277  0.2533  0.1159 -0.2486
  101bbb    H19 3029   1.589   4.028   4.361  0.1360 -0.2923  0.1660
  102bbb     N1 3030   2.561   3.101   4.636  0.2142  0.0089  0.0257
  102bbb     C1 3031   2.650   3.162   4.744  0.1955  0.0588  0.2470
  102bbb     H1 3032   2.596   3.246   4.787 -0.5211 -0.4642  0.3822
  102bbb     H2 3033   2.736   3.205   4.692 -0.5235 -0.9863 -1.9483
  102bbb     C2 3034   2.422   3.105   4.683 -0.0111  0.1514  0.0327
  102bbb     H3 3035   2.385   3.206   4.665  1.3152  0.3419 -1.8747
  102bbb     H4 3036   2.412   3.086   4.790  0.1333  0.7977  0.1633
  102bbb     C3 3037   2.585   3.184   4.520 -0.0115 -0.2948  0.4077
  102bbb     H5 3038   2.603   3.288   4.548 -0.0384  0.1222 -1.0312
  102bbb     H6 3039   2.491   3.202   4.468  0.8579  2.3569 -0.4419
  102bbb     C4 3040   2.688   3.139   4.412 -0.1998 -0.6828  0.3541
  102bbb     H7 3041   2.659   3.041   4.373 -1.5310 -0.5104  0.8681
  102bbb     H8 3042   2.787   3.150   4.457  0.8037  0.4325 -1.9666
  102bbb     C5 3043   2.688   3.063   4.861  0.2412 -1.3527  0.0039
  102bbb     H9 3044   2.755   2.986   4.822 -0.2026 -1.8553  0.2329
  102bbb    H10 3045   2.590   3.019   4.881 -0.2558 -0.3342 -0.0896
  102bbb     C6 3046   2.331   3.003   4.617  0.3229  0.6895 -0.4781
  102bbb    H11 3047   2.344   2.901   4.657  0.6401  1.5856  1.9112
  102bbb    H12 3048   2.362   3.000   4.512  1.0557 -4.2524 -0.3958
  102bbb     C7 3049   2.674   3.221   4.286 -0.6174 -0.0371  0.4657
  102bbb    H13 3050   2.581   3.191   4.237  0.1410 -0.9103 -0.5012
  102bbb    H14 3051   2.767   3.207   4.229  0.4750  0.8758  1.9435
  102bbb     C8 3052   2.180   3.043   4.646 -0.1527  0.0575  0.2682
  102bbb    H15 3053   2.158   3.140   4.600 -2.6593 -0.5952 -0.0509
  102bbb    H16 3054   2.117   2.961   4.609  0.5813  0.6551 -2.5619
  102bbb     C9 3055   2.756   3.139   4.973 -0.7412  0.1746  0.1848
  102bbb    H17 3056   2.751   3.066   5.055 -0.4680 -0.9290 -0.7519
  102bbb    H18 3057   2.702   3.229   5.005  2.1550  1.1908  2.6232
  102bbb     O1 3058   2.666   3.354   4.324  0.1518  0.0646  0.3384
  102bbb    H19 3059   2.590   3.005   4.610  0.4844  1.0443 -4.1222
  103bbb     N1 3060   2.665   4.171   6.316  0.0724  0.3441  0.0701
  103bbb     C1 3061   2.631   4.110   6.184 -0.1301  0.0632  0.5073
  103bbb     H1 3062   2.725   4.102   6.129 -0.6135 -2.1100 -0.0967
  103bbb     H2 3063   2.567   4.176   6.126 -1.1948 -1.8818 -0.6616
  103bbb     C2 3064   2.800   4.126   6.364 -0.1823 -0.2442 -0.5725
  103bbb     H3 3065   2.874   4.165   6.294 -0.1283  2.8687  1.0523
  103bbb     H4 3066   2.788   4.018   6.355  0.4418 -0.3423 -0.3195
  103bbb     C3 3067   2.675   4.320   6.301  0.7767 -0.6088 -0.1324
  103bbb     H5 3068   2.749   4.346   6.226  1.3630  3.6750  1.6673
  103bbb     H6 3069   2.703   4.356   6.400  1.3112  2.0657 -1.1827
  103bbb     C4 3070   2.547   4.392   6.262  0.1733  0.1167  0.4235
  103bbb     H7 3071   2.472   4.370   6.339  3.2843 -1.7969  3.1622
  103bbb     H8 3072   2.506   4.353   6.168 -0.7247  0.7699  0.5332
  103bbb     C5 3073   2.553   3.972   6.187 -0.1627  0.0765 -0.3098
  103bbb     H9 3074   2.460   3.984   6.243  0.7999 -0.3732  1.4908
  103bbb    H10 3075   2.606   3.905   6.256  1.0332  0.9693 -0.3149
  103bbb     C6 3076   2.826   4.164   6.511 -0.3730  0.5622 -0.7041
  103bbb    H11 3077   2.760   4.118   6.585  0.8690  1.0786  0.7893
  103bbb    H12 3078   2.812   4.272   6.528  0.4324  0.8140 -1.5388
  103bbb     C7 3079   2.563   4.541   6.251  0.1362 -0.4382  0.5691
  103bbb    H13 3080   2.653   4.568   6.194 -0.1599 -0.8265 -0.0915
  103bbb    H14 3081   2.589   4.590   6.346  1.9698  1.1869 -0.6806
  103bbb     C8 3082   2.968   4.126   6.553 -0.2595  0.7526 -0.4813
  103bbb    H15 3083   2.990   4.022   6.527 -0.9521  1.0140 -2.2648
  103bbb    H16 3084   3.037   4.197   6.504  1.7047 -0.4030  0.5094
  103bbb     C9 3085   2.528   3.905   6.056  0.8057 -0.5325 -0.2548
  103bbb    H17 3086   2.453   3.829   6.079  1.4674 -0.8359  0.9415
  103bbb    H18 3087   2.611   3.844   6.019  1.4801  0.3465 -0.2414
  103bbb     O1 3088   2.443   4.604   6.203 -0.1521 -0.5710 -0.3006
  103bbb    H19 3089   2.591   4.147   6.384 -1.0101 -0.0134 -1.1952
  104bbb     N1 3090   1.690   3.834   6.427  0.1502  1.0898 -0.2406
  104bbb     C1 3091   1.736   3.718   6.347 -0.1230 -0.5952  0.1780
  104bbb     H1 3092   1.654   3.648   6.330 -0.0845 -0.4921 -0.4356
  104bbb     H2 3093   1.812   3.665   6.404  0.2929  0.1528  0.3345
  104bbb     C2 3094   1.605   3.771   6.535  0.0865 -0.1432 -0.1862
  104bbb     H3 3095   1.661   3.719   6.613  0.2103  2.7660  1.8308
  104bbb     H4 3096   1.531   3.701   6.496  1.2497 -1.7656  0.3800
  104bbb     C3 3097   1.808   3.912   6.495 -0.0226 -0.6434  0.0843
  104bbb     H5 3098   1.892   3.844   6.510  0.7177 -0.1417 -1.5241
  104bbb     H6 3099   1.777   3.956   6.590  0.3428  0.6928 -0.3937
  104bbb     C4 3100   1.872   4.029   6.419 -0.2125 -0.1870 -0.4352
  104bbb     H7 3101   1.806   4.117   6.426 -1.0827 -0.9587  3.3903
  104bbb     H8 3102   1.875   4.004   6.312 -1.1341 -1.2812 -0.2367
  104bbb     C5 3103   1.806   3.766   6.215  0.4296 -0.5818  0.3593
  104bbb     H9 3104   1.907   3.801   6.237  0.0430  2.2611 -1.7290
  104bbb    H10 3105   1.746   3.852   6.184  0.4811 -0.2639  1.1236
  104bbb     C6 3106   1.515   3.868   6.612 -0.4658 -0.1612  0.3727
  104bbb    H11 3107   1.476   3.937   6.536  0.4552 -0.0686 -0.0285
  104bbb    H12 3108   1.565   3.936   6.682  0.6230 -1.2863  0.7195
  104bbb     C7 3109   2.024   4.060   6.462  0.6046  0.8185 -0.2759
  104bbb    H13 3110   2.091   3.974   6.452  0.5198  0.3827  2.2802
  104bbb    H14 3111   2.021   4.081   6.570  0.7792 -0.1384 -0.0765
  104bbb     C8 3112   1.391   3.809   6.680  0.6454 -0.3818 -0.5442
  104bbb    H15 3113   1.318   3.888   6.700  1.0656 -0.4503  1.5115
  104bbb    H16 3114   1.342   3.737   6.613  0.1521 -0.2852 -0.2926
  104bbb     C9 3115   1.810   3.657   6.102  0.2845 -0.0465 -0.0149
  104bbb    H17 3116   1.864   3.569   6.141  0.2562 -0.4877 -0.9424
  104bbb    H18 3117   1.874   3.692   6.020 -0.6463 -1.7324 -1.5249
  104bbb     O1 3118   2.074   4.164   6.383  0.1546 -0.1283 -0.1618
  104bbb    H19 3119   1.634   3.895   6.366 -1.1623  0.9956  0.8257
  105bbb     N1 3120   1.235   5.143   6.216 -0.7624 -0.3307 -0.1644
  105bbb     C1 3121   1.171   5.054   6.112 -0.1320  0.1637  0.1006
  105bbb     H1 3122   1.065   5.041   6.132 -0.4608 -0.8172 -1.9704
  105bbb     H2 3123   1.219   4.958   6.128 -2.7645 -1.1712  0.4785
  105bbb     C2 3124   1.209   5.072   6.348 -0.2481 -0.6826 -0.2033
  105bbb     H3 3125   1.267   5.129   6.421  0.1450 -1.1808 -0.1191
  105bbb     H4 3126   1.258   4.974   6.346 -0.2546 -0.6871 -0.1588
  105bbb     C3 3127   1.382   5.173   6.196 -0.2495 -0.6220  0.4584
  105bbb     H5 3128   1.408   5.198   6.093  1.3984 -0.8210  0.7944
  105bbb     H6 3129   1.430   5.076   6.211 -1.2350 -1.1636  0.1598
  105bbb     C4 3130   1.450   5.270   6.291 -0.6006 -0.1940  0.2262
  105bbb     H7 3131   1.431   5.238   6.394 -0.9067 -0.1683  0.1790
  105bbb     H8 3132   1.414   5.374   6.283 -0.1917 -0.0411  0.3337
  105bbb     C5 3133   1.187   5.091   5.963 -0.8129 -0.5970  0.0356
  105bbb     H9 3134   1.288   5.076   5.922 -1.5269 -1.7257 -1.3908
  105bbb    H10 3135   1.153   5.194   5.944 -1.7556 -0.6371  1.3235
  105bbb     C6 3136   1.058   5.060   6.394  0.4507 -0.4112 -0.0023
  105bbb    H11 3137   0.992   5.012   6.320 -0.5989  0.9371  0.0261
  105bbb    H12 3138   1.015   5.160   6.403  1.1572 -0.1354  0.3397
  105bbb     C7 3139   1.604   5.268   6.287  0.0245 -0.2830 -0.2904
  105bbb    H13 3140   1.639   5.164   6.293 -0.4072 -0.3635  1.6498
  105bbb    H14 3141   1.636   5.315   6.380 -1.4261 -0.3653  0.2891
  105bbb     C8 3142   1.057   5.006   6.539  0.3724  0.4526  0.2728
  105bbb    H15 3143   1.130   5.060   6.600  1.6417  0.1471 -0.9368
  105bbb    H16 3144   0.957   5.025   6.581  0.6028  0.9057  0.6273
  105bbb     C9 3145   1.095   5.005   5.878  0.1381  0.5691 -1.0509
  105bbb    H17 3146   1.113   5.030   5.772  2.5907  0.5207 -0.7149
  105bbb    H18 3147   0.989   5.029   5.890  0.6332  1.2384  3.6882
  105bbb     O1 3148   1.653   5.339   6.171 -0.0672  0.4459 -0.7891
  105bbb    H19 3149   1.184   5.232   6.219 -0.6740 -0.3089  1.8702
  106bbb     N1 3150   1.867   5.856   6.124  0.5843  0.3421 -0.3705
  106bbb     C1 3151   1.755   5.895   6.225 -0.1512  0.0947 -0.2274
  106bbb     H1 3152   1.813   5.944   6.304  1.2577 -0.6572 -0.7582
  106bbb     H2 3153   1.716   5.798   6.257  0.5517  0.0116  0.3917
  106bbb     C2 3154   1.986   5.787   6.183 -0.3455 -0.7335  1.0523
  106bbb     H3 3155   2.042   5.753   6.096  2.3026 -2.3012  3.2062
  106bbb     H4 3156   1.948   5.700   6.238  2.0777 -0.7005  2.9464
  106bbb     C3 3157   1.813   5.786   5.992  0.2013  0.8695 -0.2639
  106bbb     H5 3158   1.739   5.848   5.941  0.4042 -0.0172 -1.7133
  106bbb     H6 3159   1.763   5.693   6.019  0.6387  0.7397  0.1122
  106bbb     C4 3160   1.923   5.750   5.886  0.2052 -0.0275 -0.0276
  106bbb     H7 3161   1.993   5.675   5.925  0.4296  0.8278  1.2955
  106bbb     H8 3162   1.984   5.839   5.869  0.2808  0.0030  0.3848
  106bbb     C5 3163   1.647   5.999   6.185 -0.0931  0.5684  0.1403
  106bbb     H9 3164   1.629   5.983   6.078  1.4358 -1.0024  0.0576
  106bbb    H10 3165   1.686   6.101   6.187  2.1216 -0.1656 -1.0303
  106bbb     C6 3166   2.083   5.878   6.257 -0.4785 -0.2610 -0.0330
  106bbb    H11 3167   2.018   5.917   6.336 -1.5005 -0.1510 -0.9130
  106bbb    H12 3168   2.105   5.968   6.198 -1.0940  0.0069  0.1433
  106bbb     C7 3169   1.862   5.709   5.750 -0.9618 -0.5004  1.0115
  106bbb    H13 3170   1.944   5.703   5.677 -1.9311 -0.8448 -0.0801
  106bbb    H14 3171   1.804   5.797   5.719 -1.5801 -1.5506 -0.9650
  106bbb     C8 3172   2.209   5.801   6.316  0.5069  0.4966 -0.2850
  106bbb    H15 3173   2.183   5.719   6.385  0.4320 -0.7331 -1.7356
  106bbb    H16 3174   2.260   5.749   6.234 -0.0668 -0.6218  0.0486
  106bbb     C9 3175   1.519   5.992   6.273  1.2344  0.0428 -0.6846
  106bbb    H17 3176   1.538   6.039   6.370  0.9795  2.5322 -1.7566
  106bbb    H18 3177   1.490   5.887   6.288  2.1392 -0.6806 -3.4060
  106bbb     O1 3178   1.791   5.587   5.753  0.2251 -0.4123 -0.1625
  106bbb    H19 3179   1.902   5.949   6.098 -1.6209  1.7599  1.3625
  107bbb     N1 3180   3.724   6.224   5.865  0.2634 -0.6760  0.4584
  107bbb     C1 3181   3.759   6.097   5.941  0.9470  0.5537 -0.3731
  107bbb     H1 3182   3.867   6.084   5.943  0.7321 -1.8849  1.6382
  107bbb     H2 3183   3.725   6.010   5.884 -1.2777  2.4925 -2.2032
  107bbb     C2 3184   3.807   6.210   5.741 -0.3891 -0.1430 -0.2159
  107bbb     H3 3185   3.760   6.273   5.665 -1.2866  0.3048  0.6830
  107bbb     H4 3186   3.817   6.107   5.707  3.3679  0.2495 -0.6954
  107bbb     C3 3187   3.570   6.223   5.839  0.4391  0.6905 -0.2000
  107bbb     H5 3188   3.524   6.211   5.937  2.7508 -1.9564  0.6794
  107bbb     H6 3189   3.551   6.133   5.780  0.5872 -0.4844  1.4783
  107bbb     C4 3190   3.507   6.351   5.771  0.3975 -0.3492 -0.1444
  107bbb     H7 3191   3.546   6.376   5.672 -0.2840  0.0284 -0.3235
  107bbb     H8 3192   3.521   6.437   5.837  1.3212 -0.9882  0.5200
  107bbb     C5 3193   3.698   6.090   6.090 -0.4321  0.5312 -0.1055
  107bbb     H9 3194   3.589   6.091   6.096 -0.4008 -1.3388  1.7411
  107bbb    H10 3195   3.713   6.183   6.146 -0.6862  0.2131  0.4978
  107bbb     C6 3196   3.948   6.272   5.765  0.0393  0.0992  0.1458
  107bbb    H11 3197   4.001   6.250   5.672 -0.2272 -1.7553  0.3898
  107bbb    H12 3198   4.000   6.222   5.848 -0.3836  1.2704  1.1554
  107bbb     C7 3199   3.357   6.321   5.754 -0.4500  0.2132 -0.1119
  107bbb    H13 3200   3.301   6.409   5.722 -0.6062  0.6894  1.3834
  107bbb    H14 3201   3.310   6.287   5.848  1.3856 -1.9352  0.1136
  107bbb     C8 3202   3.961   6.425   5.779 -0.2259  0.0176 -0.3316
  107bbb    H15 3203   3.925   6.464   5.875 -1.0896  0.0755 -0.6745
  107bbb    H16 3204   4.070   6.430   5.791 -0.1942 -2.1682  0.8980
  107bbb     C9 3205   3.741   5.964   6.163 -0.1006  0.2925  0.0822
  107bbb    H17 3206   3.724   5.882   6.093 -0.8550 -0.1120  0.7126
  107bbb    H18 3207   3.680   5.944   6.252 -0.7770 -3.7860 -1.0733
  107bbb     O1 3208   3.357   6.208   5.662 -0.2853  0.3935 -0.0203
  107bbb    H19 3209   3.736   6.314   5.914 -1.9216  0.6116 -1.1556
  108bbb     N1 3210   3.132   6.605   5.056  0.7480  0.1918 -0.1768
  108bbb     C1 3211   3.128   6.615   4.902 -0.0430 -0.0160  0.2006
  108bbb     H1 3212   3.204   6.540   4.882  2.8311  2.2348  1.7298
  108bbb     H2 3213   3.163   6.715   4.875 -0.6494  0.8995  2.5266
  108bbb     C2 3214   3.068   6.725   5.130 -0.1670 -0.3880 -1.2374
  108bbb     H3 3215   2.960   6.733   5.113 -0.9708 -0.3418  2.8981
  108bbb     H4 3216   3.107   6.820   5.093  2.5053 -1.0912 -0.3835
  108bbb     C3 3217   3.080   6.477   5.102 -0.0296 -0.5889 -0.1649
  108bbb     H5 3218   2.974   6.480   5.074 -0.1174  1.9564  0.2057
  108bbb     H6 3219   3.095   6.471   5.210 -1.3707  0.1680  0.0933
  108bbb     C4 3220   3.141   6.351   5.040 -0.7487 -0.3945 -0.9576
  108bbb     H7 3221   3.232   6.376   4.985  0.7360  0.9140  1.8767
  108bbb     H8 3222   3.075   6.300   4.969  1.0083 -1.4434 -1.9005
  108bbb     C5 3223   2.990   6.584   4.829 -0.2281  0.0967  0.0704
  108bbb     H9 3224   2.925   6.665   4.865  0.0476  0.2543  0.2151
  108bbb    H10 3225   2.941   6.488   4.849 -1.9504  0.3701 -2.2920
  108bbb     C6 3226   3.088   6.730   5.282 -0.2272 -0.0229 -0.0888
  108bbb    H11 3227   3.196   6.725   5.299 -0.3474 -3.0176  0.4020
  108bbb    H12 3228   3.037   6.641   5.321  0.3080  0.0701  0.8294
  108bbb     C7 3229   3.187   6.251   5.144  0.0477  0.2245 -0.0137
  108bbb    H13 3230   3.248   6.302   5.219 -1.9387  0.7404  1.3250
  108bbb    H14 3231   3.245   6.168   5.103 -1.2699 -2.2134  2.7219
  108bbb     C8 3232   3.013   6.840   5.360  0.6481  0.6903  0.2122
  108bbb    H15 3233   2.913   6.801   5.384  0.7861  0.7805  0.9812
  108bbb    H16 3234   3.065   6.853   5.456 -0.8931 -2.5974  1.6344
  108bbb     C9 3235   3.011   6.586   4.675 -0.5155  0.1832 -0.7644
  108bbb    H17 3236   2.920   6.579   4.614 -1.1461 -0.8313  0.2330
  108bbb    H18 3237   3.074   6.497   4.661  0.5192  0.8211 -0.2879
  108bbb     O1 3238   3.065   6.200   5.213 -0.0850  0.8189  0.5995
  108bbb    H19 3239   3.229   6.616   5.091 -0.0373  0.6464  2.0025
  109bbb     N1 3240   1.811   5.777   4.640  0.1105  0.0352 -0.2105
  109bbb     C1 3241   1.713   5.740   4.530 -0.2315 -0.2098 -0.6261
  109bbb     H1 3242   1.614   5.768   4.566 -0.1260 -1.7929  1.0963
  109bbb     H2 3243   1.718   5.632   4.519 -0.4845 -0.2649 -0.2430
  109bbb     C2 3244   1.771   5.724   4.778  0.1200 -0.3321 -0.2918
  109bbb     H3 3245   1.856   5.732   4.845  0.0589  0.5109 -0.3083
  109bbb     H4 3246   1.738   5.621   4.763 -0.1263 -0.0472 -1.8973
  109bbb     C3 3247   1.948   5.717   4.610  0.0908  0.2420 -0.3879
  109bbb     H5 3248   1.938   5.694   4.503 -1.4140  1.1849 -0.4755
  109bbb     H6 3249   1.950   5.622   4.665 -2.3072  1.3837  1.8705
  109bbb     C4 3250   2.068   5.810   4.641 -0.0323  0.1662 -0.8416
  109bbb     H7 3251   2.072   5.820   4.751  1.7763 -2.5206 -0.5724
  109bbb     H8 3252   2.045   5.911   4.606  1.7026  0.2894 -1.7047
  109bbb     C5 3253   1.728   5.812   4.396  0.5530  0.2776  0.5506
  109bbb     H9 3254   1.815   5.771   4.342  0.0431  0.2874 -0.2951
  109bbb    H10 3255   1.752   5.918   4.408  2.0023 -0.0866  1.1420
  109bbb     C6 3256   1.654   5.805   4.837  0.2180  0.3448 -0.4723
  109bbb    H11 3257   1.575   5.808   4.761 -0.6408  1.1897  0.4259
  109bbb    H12 3258   1.682   5.908   4.862 -0.1154  0.1175  0.8677
  109bbb     C7 3259   2.207   5.776   4.590  0.4536  0.1199  0.4954
  109bbb    H13 3260   2.267   5.867   4.574  0.2881  0.3596  1.2329
  109bbb    H14 3261   2.203   5.734   4.488  0.9866  0.3165  0.3886
  109bbb     C8 3262   1.603   5.732   4.960 -0.0352 -1.1735 -0.7967
  109bbb    H15 3263   1.686   5.703   5.026  1.1257  0.1330 -1.6269
  109bbb    H16 3264   1.539   5.803   5.014  0.1135 -0.2594 -1.7873
  109bbb     C9 3265   1.601   5.799   4.299 -0.3349  0.6306 -0.1184
  109bbb    H17 3266   1.563   5.696   4.301 -0.5631  0.6751 -1.4101
  109bbb    H18 3267   1.623   5.820   4.194 -0.3027  1.3656  0.0311
  109bbb     O1 3268   2.278   5.689   4.685 -0.1898 -0.0290 -0.7857
  109bbb    H19 3269   1.827   5.879   4.646  1.0833 -0.1412  0.4699
  110bbb     N1 3270   2.377   5.620   4.133 -0.6364 -0.2025 -0.0574
  110bbb     C1 3271   2.287   5.592   4.014 -0.5554 -0.1559  0.5603
  110bbb     H1 3272   2.198   5.655   4.014 -0.3439  0.3047 -2.6239
  110bbb     H2 3273   2.262   5.488   4.031  2.4761 -0.8512  1.3788
  110bbb     C2 3274   2.407   5.770   4.132 -0.2067  0.1417 -0.4753
  110bbb     H3 3275   2.469   5.803   4.048 -0.3663  0.2110 -0.5670
  110bbb     H4 3276   2.482   5.782   4.210  2.5307  0.8210 -3.0255
  110bbb     C3 3277   2.299   5.591   4.258  0.0840  0.5694 -0.3367
  110bbb     H5 3278   2.203   5.642   4.256 -1.0321 -1.4048  0.6383
  110bbb     H6 3279   2.356   5.643   4.336 -0.9401  2.3112 -0.6997
  110bbb     C4 3280   2.286   5.445   4.313 -0.2606 -0.1588  0.3541
  110bbb     H7 3281   2.202   5.387   4.274 -0.9042  1.5363 -0.8899
  110bbb     H8 3282   2.272   5.464   4.420  0.6654  1.2419  0.2536
  110bbb     C5 3283   2.339   5.586   3.868 -0.8577 -0.6611  0.6023
  110bbb     H9 3284   2.404   5.498   3.856 -0.0074  0.2247 -2.0217
  110bbb    H10 3285   2.383   5.681   3.834 -1.7940 -0.6806 -0.7536
  110bbb     C6 3286   2.287   5.868   4.155 -0.2954 -0.3392 -0.4766
  110bbb    H11 3287   2.237   5.849   4.251 -2.9265  0.8003 -1.5164
  110bbb    H12 3288   2.203   5.865   4.084  0.0788  0.4287 -0.9663
  110bbb     C7 3289   2.413   5.360   4.302  0.2007 -0.3613  0.7221
  110bbb    H13 3290   2.431   5.331   4.197 -0.5339  3.0134 -0.4472
  110bbb    H14 3291   2.390   5.266   4.353 -1.7862  0.3032  1.1180
  110bbb     C8 3292   2.321   6.018   4.167  0.6721 -0.7065 -0.1795
  110bbb    H15 3293   2.220   6.058   4.175 -0.9343 -3.7197 -3.0042
  110bbb    H16 3294   2.386   6.043   4.252  1.0701  0.5533 -0.8308
  110bbb     C9 3295   2.215   5.573   3.779 -0.0515 -0.0417 -0.2570
  110bbb    H17 3296   2.245   5.603   3.678 -1.9801 -3.4859 -2.0410
  110bbb    H18 3297   2.139   5.637   3.824  1.3225 -0.0652  2.2923
  110bbb     O1 3298   2.521   5.436   4.360 -0.5075 -0.2435  0.0284
  110bbb    H19 3299   2.465   5.567   4.126 -1.4849 -1.7816  0.6932
  111bbb     N1 3300   7.792   3.752   4.186 -0.1054 -0.4496  0.2779
  111bbb     C1 3301   7.909   3.651   4.207 -0.2556 -0.1749  0.3871
  111bbb     H1 3302   7.977   3.658   4.122 -0.8160  0.5405 -0.0201
  111bbb     H2 3303   7.864   3.552   4.194 -0.0670 -0.1948 -0.1171
  111bbb     C2 3304   7.748   3.741   4.044 -0.1148  0.1531 -0.1212
  111bbb     H3 3305   7.692   3.648   4.035 -0.6637  0.2625  1.8784
  111bbb     H4 3306   7.844   3.734   3.991 -0.6204 -2.1990 -0.8603
  111bbb     C3 3307   7.680   3.736   4.297  0.0495 -0.0985 -0.8005
  111bbb     H5 3308   7.612   3.819   4.278  0.7669  0.9062  0.8822
  111bbb     H6 3309   7.724   3.763   4.393 -1.1552 -1.9944  0.3572
  111bbb     C4 3310   7.587   3.606   4.294 -0.3320  0.3733  0.0463
  111bbb     H7 3311   7.648   3.519   4.322 -0.9836  0.0118  0.3520
  111bbb     H8 3312   7.551   3.586   4.192 -1.8124 -0.4503  0.7006
  111bbb     C5 3313   7.981   3.652   4.344  0.0213  0.0892  0.3146
  111bbb     H9 3314   7.936   3.598   4.428 -0.2733 -0.6046 -0.2870
  111bbb    H10 3315   7.978   3.755   4.384 -0.5155  0.3332 -0.3375
  111bbb     C6 3316   7.678   3.868   3.994  0.1778  0.8257  0.5240
  111bbb    H11 3317   7.711   3.959   4.046 -1.0861  2.2372 -1.0106
  111bbb    H12 3318   7.575   3.869   4.030 -0.4219 -0.6420 -1.0413
  111bbb     C7 3319   7.471   3.608   4.390 -0.2070 -0.1968  0.6475
  111bbb    H13 3320   7.507   3.637   4.490  0.8248  0.0629  0.2083
  111bbb    H14 3321   7.431   3.507   4.409 -2.1946  0.2546 -0.8132
  111bbb     C8 3322   7.676   3.881   3.838  0.0579 -0.4921  0.2852
  111bbb    H15 3323   7.621   3.793   3.802 -1.8196  0.9122 -0.4531
  111bbb    H16 3324   7.629   3.975   3.807  0.5421 -0.8183 -1.6028
  111bbb     C9 3325   8.129   3.602   4.335 -0.4784  0.4024 -0.6679
  111bbb    H17 3326   8.180   3.591   4.431  0.0962 -0.1437 -1.0275
  111bbb    H18 3327   8.183   3.670   4.269  0.0136  1.0911  0.4226
  111bbb     O1 3328   7.368   3.700   4.338 -0.0649  0.3043  0.2302
  111bbb    H19 3329   7.836   3.843   4.206 -0.5331 -0.2902  0.5138
  112bbb     N1 3330   6.994   3.698   3.842  0.3064 -0.0948 -0.1943
  112bbb     C1 3331   6.878   3.679   3.740  0.4398  0.2046  0.0538
  112bbb     H1 3332   6.909   3.693   3.636 -1.3559  1.6941 -0.3390
  112bbb     H2 3333   6.812   3.765   3.755 -2.0957 -1.9498  2.3506
  112bbb     C2 3334   7.094   3.577   3.832  0.5071 -0.6145  0.1990
  112bbb     H3 3335   7.039   3.484   3.845  0.5993 -1.4976 -4.0597
  112bbb     H4 3336   7.171   3.594   3.907  0.4245  1.4885 -0.1249
  112bbb     C3 3337   7.074   3.827   3.831 -0.3223  0.3681 -0.4846
  112bbb     H5 3338   7.006   3.908   3.807 -1.4692 -0.3482  0.2471
  112bbb     H6 3339   7.144   3.818   3.748  3.0590 -1.3262  2.3044
  112bbb     C4 3340   7.164   3.858   3.957  0.2904  0.3271  0.1395
  112bbb     H7 3341   7.258   3.800   3.953  0.9661  1.4469 -0.8232
  112bbb     H8 3342   7.104   3.824   4.042 -0.6046  1.1453 -0.1555
  112bbb     C5 3343   6.804   3.548   3.766 -0.5637 -0.1798  0.3432
  112bbb     H9 3344   6.779   3.545   3.873 -0.6039 -0.4084  0.3286
  112bbb    H10 3345   6.856   3.452   3.751 -0.2892 -0.3822  2.3720
  112bbb     C6 3346   7.170   3.562   3.697  0.6616 -0.1218  0.4503
  112bbb    H11 3347   7.223   3.657   3.684  0.4465  0.1233  1.2951
  112bbb    H12 3348   7.095   3.546   3.619  0.3311 -0.1060  0.7618
  112bbb     C7 3349   7.186   4.007   3.962  0.7821  0.2538 -0.6139
  112bbb    H13 3350   7.084   4.046   3.973  0.5501 -0.7672  1.4907
  112bbb    H14 3351   7.227   4.041   3.867 -0.0032  1.1589 -0.6378
  112bbb     C8 3352   7.276   3.443   3.691 -0.6583  0.3632 -0.6220
  112bbb    H15 3353   7.304   3.425   3.586  0.5072  1.3899 -0.5035
  112bbb    H16 3354   7.364   3.468   3.751 -1.0171 -0.2288  0.1657
  112bbb     C9 3355   6.669   3.545   3.692 -0.4110 -0.2875  0.0142
  112bbb    H17 3356   6.618   3.452   3.719 -1.3594  0.1613 -0.1688
  112bbb    H18 3357   6.700   3.553   3.587  0.3949  0.6776  0.3112
  112bbb     O1 3358   7.271   4.033   4.080  0.4233 -0.2294  0.3006
  112bbb    H19 3359   6.954   3.703   3.937  0.0266  2.4282 -0.3873
  113bbb     N1 3360   7.139   4.748   5.440 -0.2555 -0.0524  0.5428
  113bbb     C1 3361   6.988   4.766   5.451 -0.9241 -0.4516 -0.0208
  113bbb     H1 3362   6.969   4.842   5.527  0.7697  1.1168 -1.0767
  113bbb     H2 3363   6.945   4.674   5.492 -0.2842 -0.4790  0.5998
  113bbb     C2 3364   7.204   4.881   5.410 -0.3978 -0.1797 -0.3599
  113bbb     H3 3365   7.183   4.905   5.306 -0.5787 -1.8090 -0.7209
  113bbb     H4 3366   7.310   4.855   5.410 -0.3812 -0.1145 -0.6706
  113bbb     C3 3367   7.190   4.696   5.571  0.0756  0.6793  0.1148
  113bbb     H5 3368   7.140   4.742   5.657 -1.1455 -0.7592  0.2070
  113bbb     H6 3369   7.294   4.727   5.581  0.5614 -1.2615  1.9014
  113bbb     C4 3370   7.195   4.542   5.576  0.3914  0.2921 -0.2879
  113bbb     H7 3371   7.089   4.518   5.564  0.8010 -0.8664 -1.9085
  113bbb     H8 3372   7.227   4.513   5.677 -0.8906  0.3164  0.1450
  113bbb     C5 3373   6.910   4.805   5.323  0.6753 -0.0956  0.1010
  113bbb     H9 3374   6.918   4.727   5.246 -0.1599 -1.1565  1.0535
  113bbb    H10 3375   6.952   4.899   5.285  0.2458  0.1451  0.2179
  113bbb     C6 3376   7.194   5.002   5.504  0.0811 -0.1530  0.1240
  113bbb    H11 3377   7.244   4.976   5.598 -0.9916  1.2879  1.1366
  113bbb    H12 3378   7.090   5.030   5.525  0.7732  2.4137  0.4781
  113bbb     C7 3379   7.290   4.477   5.475  0.1697  0.1571 -0.0872
  113bbb    H13 3380   7.390   4.489   5.518  0.3719 -0.7319 -0.2866
  113bbb    H14 3381   7.271   4.533   5.383 -1.6381 -1.0701 -0.5038
  113bbb     C8 3382   7.269   5.129   5.458  0.2565 -0.2985  0.5712
  113bbb    H15 3383   7.212   5.177   5.378  1.7467 -0.8960 -0.9072
  113bbb    H16 3384   7.280   5.193   5.547  1.7852 -1.2561  1.1218
  113bbb     C9 3385   6.762   4.843   5.349 -0.2351  0.0044  0.0783
  113bbb    H17 3386   6.752   4.926   5.420 -0.0363  0.0391  0.0654
  113bbb    H18 3387   6.704   4.758   5.388 -1.3434  1.2869  1.3646
  113bbb     O1 3388   7.250   4.339   5.443  0.8763 -0.2034  0.4127
  113bbb    H19 3389   7.160   4.676   5.369  1.7042 -0.1064  1.1270
  114bbb     N1 3390   6.930   3.901   5.639  0.7371  0.1306  0.5362
  114bbb     C1 3391   6.840   3.796   5.708  0.1876  0.1181  0.2161
  114bbb     H1 3392   6.822   3.827   5.811  0.7874 -1.2430  0.7639
  114bbb     H2 3393   6.896   3.702   5.705 -2.2347 -1.5233  2.2085
  114bbb     C2 3394   7.035   3.952   5.733  0.3065  1.1280  0.6389
  114bbb     H3 3395   7.105   3.877   5.770  1.5436  1.8899 -0.0901
  114bbb     H4 3396   6.980   3.969   5.825  0.6030 -0.5118  1.1568
  114bbb     C3 3397   7.001   3.832   5.522  0.0862 -0.0732 -0.3465
  114bbb     H5 3398   7.034   3.910   5.453  1.4327  0.6732  1.0759
  114bbb     H6 3399   6.935   3.763   5.470 -0.7304  1.0300 -0.8229
  114bbb     C4 3400   7.135   3.755   5.549  0.7856 -0.3894  0.4738
  114bbb     H7 3401   7.101   3.682   5.623 -0.2669 -0.1133  0.2912
  114bbb     H8 3402   7.220   3.813   5.587  1.0673 -1.3284  1.3032
  114bbb     C5 3403   6.702   3.800   5.633 -0.3319  0.5465 -0.5797
  114bbb     H9 3404   6.716   3.797   5.524  0.7820  0.8915 -0.4613
  114bbb    H10 3405   6.657   3.898   5.651  0.2407  0.5924  0.7522
  114bbb     C6 3406   7.117   4.062   5.676 -1.2258  0.0780  0.2413
  114bbb    H11 3407   7.071   4.162   5.666  0.0196  0.5681 -0.8773
  114bbb    H12 3408   7.153   4.033   5.577 -0.9284  0.4973  0.2215
  114bbb     C7 3409   7.177   3.687   5.420 -0.7183 -0.3426  0.2194
  114bbb    H13 3410   7.094   3.642   5.364 -0.6151  0.0606 -0.2670
  114bbb    H14 3411   7.244   3.609   5.458 -0.3860 -0.6639 -0.9916
  114bbb     C8 3412   7.240   4.094   5.763 -0.2734 -0.5158 -0.1164
  114bbb    H15 3413   7.205   4.109   5.866  1.7231 -0.3764  0.5779
  114bbb    H16 3414   7.310   4.010   5.770 -1.7171 -1.7217  0.4958
  114bbb     C9 3415   6.599   3.698   5.679  0.6456 -0.0239  0.7855
  114bbb    H17 3416   6.598   3.592   5.651  1.9024  0.2856 -0.5571
  114bbb    H18 3417   6.500   3.733   5.648  0.1584 -0.6581  1.5852
  114bbb     O1 3418   7.252   3.773   5.335  0.4221 -0.4376  0.2389
  114bbb    H19 3419   6.870   3.977   5.605  1.2123  0.1556 -0.2666
  115bbb     N1 3420   5.551   4.414   2.840 -0.7962  0.3350 -0.1265
  115bbb     C1 3421   5.559   4.555   2.797 -0.1521  0.0148 -1.0863
  115bbb     H1 3422   5.498   4.566   2.707 -0.5055  0.9195 -0.7518
  115bbb     H2 3423   5.661   4.577   2.766 -0.2016 -0.0655 -1.3107
  115bbb     C2 3424   5.598   4.315   2.737 -0.1624  0.4791 -0.4057
  115bbb     H3 3425   5.526   4.311   2.655 -2.5036 -0.6292  1.5840
  115bbb     H4 3426   5.588   4.217   2.782  0.4250  0.2574 -0.7517
  115bbb     C3 3427   5.638   4.410   2.972 -0.7861 -0.1468  0.3954
  115bbb     H5 3428   5.601   4.488   3.040 -0.5604  0.7360 -0.4754
  115bbb     H6 3429   5.737   4.444   2.941 -1.0787 -0.0418 -0.4251
  115bbb     C4 3430   5.655   4.281   3.061 -0.0899  0.7920  0.5232
  115bbb     H7 3431   5.708   4.205   3.003 -0.3159  0.3189  0.9278
  115bbb     H8 3432   5.553   4.243   3.072 -0.5784  1.9911  0.3613
  115bbb     C5 3433   5.498   4.665   2.889 -0.5953 -0.1718  0.3425
  115bbb     H9 3434   5.566   4.671   2.974  2.0687  0.5585 -1.6904
  115bbb    H10 3435   5.397   4.639   2.924 -0.4590  2.6101  3.3197
  115bbb     C6 3436   5.746   4.335   2.691 -0.1988  0.5041 -0.3702
  115bbb    H11 3437   5.807   4.333   2.782 -2.1391 -1.5789  1.0044
  115bbb    H12 3438   5.751   4.422   2.625  0.4783  0.4547 -0.3888
  115bbb     C7 3439   5.736   4.298   3.194  0.0306 -0.3499 -0.1639
  115bbb    H13 3440   5.843   4.315   3.178  0.2644 -1.9107 -0.4478
  115bbb    H14 3441   5.738   4.204   3.251  0.4960  0.7108  1.6710
  115bbb     C8 3442   5.783   4.211   2.600 -0.8318  0.4534 -0.1164
  115bbb    H15 3443   5.882   4.237   2.561 -0.6198  0.8764  0.6864
  115bbb    H16 3444   5.801   4.121   2.659  0.3732  1.2002  0.7131
  115bbb     C9 3445   5.499   4.805   2.834  0.3300  0.2078  0.3424
  115bbb    H17 3446   5.432   4.864   2.897 -1.3606 -0.3016 -0.9123
  115bbb    H18 3447   5.450   4.810   2.736  0.8901  2.9136  0.1055
  115bbb     O1 3448   5.671   4.398   3.273 -0.0367 -0.5097 -0.4128
  115bbb    H19 3449   5.455   4.388   2.867  0.0094 -2.1686  0.6502
  116bbb     N1 3450   4.868   4.324   3.674  0.0875 -0.0370 -0.2190
  116bbb     C1 3451   4.763   4.272   3.577  0.2946  0.5627 -0.2134
  116bbb     H1 3452   4.752   4.166   3.598  0.9468  0.1960 -1.6218
  116bbb     H2 3453   4.805   4.284   3.477 -0.3437 -0.9987 -0.7049
  116bbb     C2 3454   4.970   4.210   3.702  0.5800 -0.6893 -0.3561
  116bbb     H3 3455   4.923   4.143   3.774  0.0480 -0.1534 -0.1848
  116bbb     H4 3456   5.051   4.257   3.759  0.5407 -1.4821  0.3652
  116bbb     C3 3457   4.926   4.444   3.602 -0.3484  0.8810  0.1934
  116bbb     H5 3458   4.844   4.503   3.560  1.2813  2.3118 -1.1645
  116bbb     H6 3459   4.978   4.402   3.516 -0.5338 -0.2319  0.6102
  116bbb     C4 3460   5.011   4.529   3.688 -0.3122 -0.7767 -0.3221
  116bbb     H7 3461   5.101   4.469   3.710  0.8021  0.5521 -1.1423
  116bbb     H8 3462   4.954   4.565   3.775  1.5437  1.3459  0.1150
  116bbb     C5 3463   4.631   4.349   3.580 -0.2371 -0.1041 -0.1750
  116bbb     H9 3464   4.657   4.451   3.551  3.6885 -1.0724 -0.6005
  116bbb    H10 3465   4.606   4.361   3.686  0.8370  0.0190  0.0758
  116bbb     C6 3466   5.021   4.123   3.577 -0.1712 -0.0781 -0.2091
  116bbb    H11 3467   5.077   4.197   3.518  0.5338 -0.9487 -0.6519
  116bbb    H12 3468   4.942   4.075   3.518  1.3292 -1.4795 -1.1805
  116bbb     C7 3469   5.056   4.648   3.609  0.6587 -0.5625  0.1972
  116bbb    H13 3470   5.098   4.721   3.679 -1.0794  0.1083  0.5960
  116bbb    H14 3471   4.973   4.697   3.557  2.5552  3.4340  0.5258
  116bbb     C8 3472   5.115   4.013   3.637 -0.1136 -0.2085 -0.3844
  116bbb    H15 3473   5.182   4.051   3.714 -1.7208  1.4200  0.3029
  116bbb    H16 3474   5.052   3.936   3.683  0.6267  0.2612  1.5148
  116bbb     C9 3475   4.500   4.304   3.505 -0.9648  0.3284 -0.2921
  116bbb    H17 3476   4.523   4.292   3.398  1.2566 -0.0296  0.1905
  116bbb    H18 3477   4.423   4.382   3.510 -0.4547  1.0208 -2.2426
  116bbb     O1 3478   5.157   4.599   3.508 -0.1293  0.6082 -0.2163
  116bbb    H19 3479   4.826   4.354   3.764  1.7707  1.3774  0.1481
  117bbb     N1 3480   6.846   5.855   3.345  0.0268 -0.3338  0.0150
  117bbb     C1 3481   6.928   5.841   3.219 -0.2635  0.0100  0.4725
  117bbb     H1 3482   6.888   5.919   3.154  1.4089  0.5000 -0.0313
  117bbb     H2 3483   6.898   5.743   3.184 -1.5460  0.3715  0.5149
  117bbb     C2 3484   6.698   5.851   3.318 -0.5428 -0.4827  0.2070
  117bbb     H3 3485   6.680   5.752   3.276  1.0018 -1.1822  1.1219
  117bbb     H4 3486   6.660   5.925   3.246 -0.2324 -0.0753  0.4531
  117bbb     C3 3487   6.887   5.743   3.438  0.1803  0.0839 -0.1128
  117bbb     H5 3488   6.842   5.759   3.536 -0.6530  2.3685 -0.8005
  117bbb     H6 3489   6.991   5.759   3.464 -0.0014 -0.1693  0.7940
  117bbb     C4 3490   6.865   5.595   3.401  0.5374  0.7394 -0.1671
  117bbb     H7 3491   6.922   5.566   3.312 -1.4965 -1.7875 -0.7840
  117bbb     H8 3492   6.760   5.578   3.373  0.5425 -0.1980  0.3579
  117bbb     C5 3493   7.085   5.877   3.221 -1.4596 -0.0045  0.6263
  117bbb     H9 3494   7.097   5.943   3.308  2.0798 -0.3609  0.5306
  117bbb    H10 3495   7.122   5.924   3.129  0.2834 -0.1107  1.2442
  117bbb     C6 3496   6.600   5.871   3.438 -0.8382  0.3486  0.1222
  117bbb    H11 3497   6.620   5.956   3.505 -0.1696 -1.0364  1.7596
  117bbb    H12 3498   6.601   5.783   3.503 -2.1608 -1.5447 -2.2447
  117bbb     C7 3499   6.900   5.496   3.512 -0.5535  0.3113 -0.0698
  117bbb    H13 3500   6.851   5.534   3.603 -0.8630 -1.6672  0.6425
  117bbb    H14 3501   7.009   5.499   3.519 -0.5325  0.8452 -0.5920
  117bbb     C8 3502   6.456   5.890   3.393  0.0506 -0.0624 -0.6246
  117bbb    H15 3503   6.415   5.803   3.340  0.3797 -1.8720  1.8896
  117bbb    H16 3504   6.405   5.889   3.490  1.8518 -1.5964  0.3637
  117bbb     C9 3505   7.150   5.741   3.240 -0.2445  0.1642 -0.1342
  117bbb    H17 3506   7.120   5.664   3.167  1.7305 -0.1666 -0.6406
  117bbb    H18 3507   7.130   5.695   3.337 -1.0097 -1.3988 -0.9828
  117bbb     O1 3508   6.848   5.360   3.488  0.2078 -0.1316 -0.2977
  117bbb    H19 3509   6.861   5.949   3.383 -0.8003 -0.4466  0.6610
  118bbb     N1 3510   6.967   4.779   2.850 -0.3369  0.3751 -0.6557
  118bbb     C1 3511   7.108   4.737   2.891  0.4803 -0.3742  0.5150
  118bbb     H1 3512   7.170   4.758   2.804 -1.3326 -0.9874 -0.9934
  118bbb     H2 3513   7.115   4.629   2.906  1.2471 -0.9027 -2.8219
  118bbb     C2 3514   6.928   4.695   2.726  0.2688  0.0974 -0.1488
  118bbb     H3 3515   7.019   4.716   2.670 -0.6737  2.9276 -0.7982
  118bbb     H4 3516   6.840   4.743   2.681 -0.2853  2.1466  2.8525
  118bbb     C3 3517   6.877   4.755   2.968  0.0483  0.3309 -0.1977
  118bbb     H5 3518   6.925   4.781   3.062  0.5571 -0.1911 -0.3053
  118bbb     H6 3519   6.855   4.649   2.981  0.7828  0.2165  0.1864
  118bbb     C4 3520   6.747   4.836   2.950 -0.3124  1.2013 -0.1493
  118bbb     H7 3521   6.706   4.824   2.849  0.5734 -0.5879 -0.3365
  118bbb     H8 3522   6.755   4.946   2.951  0.5736  1.1423 -0.1695
  118bbb     C5 3523   7.176   4.817   3.006 -0.3710 -0.7051 -0.3499
  118bbb     H9 3524   7.279   4.783   3.024 -0.8558 -1.3532  1.4474
  118bbb    H10 3525   7.123   4.813   3.102 -2.5628  1.3591 -1.3889
  118bbb     C6 3526   6.902   4.538   2.738  0.5478 -0.3481  0.6406
  118bbb    H11 3527   6.812   4.526   2.800  0.1867  0.4515  0.2833
  118bbb    H12 3528   6.991   4.487   2.775 -0.4673 -2.3107  0.5022
  118bbb     C7 3529   6.633   4.789   3.049 -0.1235 -0.5909 -0.2808
  118bbb    H13 3530   6.638   4.680   3.047  3.3075 -0.5794  0.4263
  118bbb    H14 3531   6.538   4.832   3.015  0.8266  1.8180 -0.0843
  118bbb     C8 3532   6.865   4.457   2.612 -0.0801  0.1044 -0.9776
  118bbb    H15 3533   6.909   4.357   2.623 -0.8495 -0.1301  0.2096
  118bbb    H16 3534   6.757   4.439   2.605 -0.1289  0.2428 -0.6034
  118bbb     C9 3535   7.181   4.974   2.974 -0.4443  0.4472  0.1044
  118bbb    H17 3536   7.245   5.023   3.048  0.1403 -0.3779  0.1679
  118bbb    H18 3537   7.078   5.012   2.981 -1.2643 -1.6531  0.4114
  118bbb     O1 3538   6.652   4.829   3.189  0.0743  0.3899 -0.1887
  118bbb    H19 3539   6.968   4.879   2.825  1.4327  1.4761  3.0927
  119bbb     N1 3540   4.662   1.949   5.854 -0.1485  0.3607 -0.6301
  119bbb     C1 3541   4.594   1.834   5.930 -0.2180 -0.9285  0.0247
  119bbb     H1 3542   4.495   1.831   5.883 -0.7974  2.7018  0.7434
  119bbb     H2 3543   4.581   1.853   6.037  0.0306 -4.0099  0.7002
  119bbb     C2 3544   4.572   2.070   5.856 -0.1265  0.1651 -0.0699
  119bbb     H3 3545   4.486   2.046   5.794 -0.3047  0.0767  0.2077
  119bbb     H4 3546   4.637   2.148   5.815  0.8647 -0.9415 -0.6734
  119bbb     C3 3547   4.802   1.961   5.907 -0.1366  0.0024  0.3388
  119bbb     H5 3548   4.842   1.860   5.915  1.2534  0.1916 -2.9918
  119bbb     H6 3549   4.789   1.995   6.010 -0.1152 -0.9964  0.6867
  119bbb     C4 3550   4.899   2.047   5.821  0.2275  0.1411  0.4796
  119bbb     H7 3551   4.876   2.151   5.846  0.6591  0.2385  0.4801
  119bbb     H8 3552   4.874   2.026   5.717  1.4444 -0.9266  0.3793
  119bbb     C5 3553   4.669   1.703   5.914 -0.5407 -0.4486  0.7239
  119bbb     H9 3554   4.762   1.699   5.972  0.7063 -0.7949 -1.2175
  119bbb    H10 3555   4.714   1.688   5.816 -0.1748  1.3847  0.5816
  119bbb     C6 3556   4.526   2.134   5.992 -0.4561  0.5590  0.1527
  119bbb    H11 3557   4.518   2.053   6.065  2.0257 -0.2375 -0.3494
  119bbb    H12 3558   4.429   2.184   5.985  0.7810  2.9185 -1.4147
  119bbb     C7 3559   5.048   2.016   5.851  0.1125 -0.2226 -0.3395
  119bbb    H13 3560   5.034   1.938   5.927 -2.7537  1.1188  0.6685
  119bbb    H14 3561   5.096   2.106   5.892 -2.1712 -0.1447  2.4910
  119bbb     C8 3562   4.623   2.240   6.044 -0.3049  1.1242  0.2416
  119bbb    H15 3563   4.576   2.286   6.132 -0.5646  0.6533  0.3526
  119bbb    H16 3564   4.723   2.201   6.065 -0.6686 -0.7691 -1.2616
  119bbb     C9 3565   4.583   1.581   5.944  0.1395  0.1885 -0.3108
  119bbb    H17 3566   4.563   1.577   6.052  0.1175 -1.2077 -0.3540
  119bbb    H18 3567   4.635   1.490   5.915  0.0909  0.7215 -2.1883
  119bbb     O1 3568   5.112   1.960   5.731  0.0013 -0.4314 -0.0140
  119bbb    H19 3569   4.672   1.928   5.754 -0.2207  1.6857 -0.9309
  120bbb     N1 3570   4.945   1.060   5.710  0.2528  0.4158 -0.8374
  120bbb     C1 3571   4.995   1.059   5.858 -0.6185  0.2232 -0.3487
  120bbb     H1 3572   5.014   0.955   5.887 -1.4924  0.4547  1.1610
  120bbb     H2 3573   4.905   1.090   5.912 -0.7242 -0.4464 -0.1291
  120bbb     C2 3574   4.854   0.938   5.667 -0.0232 -1.2316 -0.2008
  120bbb     H3 3575   4.824   0.957   5.564 -1.7825  0.6839  0.5897
  120bbb     H4 3576   4.772   0.961   5.735  0.9629 -0.3664  0.7259
  120bbb     C3 3577   4.879   1.189   5.685  0.0389  0.1805 -0.0021
  120bbb     H5 3578   4.937   1.277   5.714 -0.4567  0.2813  0.7106
  120bbb     H6 3579   4.791   1.200   5.748  0.1272 -2.1596  0.6088
  120bbb     C4 3580   4.830   1.219   5.544 -0.3783 -0.6377 -0.1388
  120bbb     H7 3581   4.752   1.144   5.524  0.2455 -1.2458 -0.3509
  120bbb     H8 3582   4.903   1.219   5.462 -1.6769  0.5940 -1.3547
  120bbb     C5 3583   5.117   1.157   5.893 -0.1805  0.2260  0.2260
  120bbb     H9 3584   5.079   1.258   5.909 -0.1065  0.0505  1.6769
  120bbb    H10 3585   5.199   1.152   5.820  1.3496  1.0979  1.8138
  120bbb     C6 3586   4.924   0.805   5.686 -0.5394 -0.6456  0.5257
  120bbb    H11 3587   4.969   0.807   5.786 -0.9071  0.0189  0.6852
  120bbb    H12 3588   5.013   0.809   5.622  0.7164 -0.8996  2.1759
  120bbb     C7 3589   4.745   1.346   5.537 -0.5731  0.0724 -0.2330
  120bbb    H13 3590   4.662   1.343   5.610 -0.0058 -0.7671  0.4095
  120bbb    H14 3591   4.698   1.352   5.438 -0.8146 -0.0772 -0.1311
  120bbb     C8 3592   4.835   0.681   5.661  0.3936 -0.7460 -0.4474
  120bbb    H15 3593   4.870   0.594   5.717 -1.1623 -0.4524  1.0572
  120bbb    H16 3594   4.735   0.697   5.703  1.8462  1.6016  2.6001
  120bbb     C9 3595   5.182   1.116   6.029 -0.2534  1.0895  0.3455
  120bbb    H17 3596   5.259   1.182   6.071  0.4914  0.1331  0.4976
  120bbb    H18 3597   5.238   1.026   6.004  0.6584  1.5231  0.7831
  120bbb     O1 3598   4.826   1.468   5.563 -0.0937 -0.1624 -0.4161
  120bbb    H19 3599   5.035   1.046   5.662  1.8026  1.4787  1.5347
  121bbb     N1 3600   4.504   2.276   4.638  0.3484  0.0733  0.4851
  121bbb     C1 3601   4.367   2.219   4.688 -0.0744 -0.3603  0.8635
  121bbb     H1 3602   4.288   2.292   4.668  0.5921  1.0072  2.8069
  121bbb     H2 3603   4.382   2.196   4.794 -0.0444 -3.0297  0.3338
  121bbb     C2 3604   4.502   2.341   4.495  0.6208 -0.2281  0.0501
  121bbb     H3 3605   4.439   2.275   4.434  1.1577 -0.5969 -0.1069
  121bbb     H4 3606   4.601   2.337   4.449  0.0001 -0.2639 -1.3473
  121bbb     C3 3607   4.552   2.373   4.742  0.5145 -0.2278 -0.3639
  121bbb     H5 3608   4.529   2.336   4.842 -0.4665 -1.7911 -1.1228
  121bbb     H6 3609   4.508   2.470   4.720 -0.0251 -0.4548 -0.3076
  121bbb     C4 3610   4.704   2.383   4.749 -0.5552  0.2335  0.0501
  121bbb     H7 3611   4.754   2.288   4.731  0.5499  0.2344  2.7845
  121bbb     H8 3612   4.731   2.419   4.849 -0.4819  2.4515 -0.7005
  121bbb     C5 3613   4.325   2.086   4.623 -0.3792 -0.7878 -0.3277
  121bbb     H9 3614   4.395   2.004   4.639 -1.1017 -1.5299 -0.8901
  121bbb    H10 3615   4.328   2.100   4.515  1.5128 -0.8982 -0.3215
  121bbb     C6 3616   4.445   2.486   4.488 -0.0003  0.1489  0.5369
  121bbb    H11 3617   4.524   2.555   4.520  1.9995 -2.0894  0.6268
  121bbb    H12 3618   4.368   2.498   4.565  0.1926 -0.9518  0.9143
  121bbb     C7 3619   4.780   2.475   4.647  0.0775  0.2607  0.0260
  121bbb    H13 3620   4.759   2.432   4.548  0.7034 -1.2620  0.5114
  121bbb    H14 3621   4.889   2.469   4.656  0.0980  0.1930 -0.2646
  121bbb     C8 3622   4.393   2.513   4.347  0.2392  0.5700 -0.0928
  121bbb    H15 3623   4.296   2.465   4.332  1.1421 -1.2022 -0.5642
  121bbb    H16 3624   4.382   2.622   4.347  0.2860  0.5777  0.1942
  121bbb     C9 3625   4.186   2.044   4.663 -0.3470  0.7672  0.5958
  121bbb    H17 3626   4.122   2.131   4.645  0.9490  1.4497 -0.8835
  121bbb    H18 3627   4.189   2.017   4.770 -0.8556 -0.9488  0.2145
  121bbb     O1 3628   4.734   2.610   4.666  0.5778 -0.0935  0.0608
  121bbb    H19 3629   4.566   2.194   4.634 -0.3606 -0.5118  1.1863
  122bbb     N1 3630   4.340   3.037   5.349 -0.3128 -0.0269 -0.3784
  122bbb     C1 3631   4.250   2.919   5.390  0.0163 -0.2265  0.5538
  122bbb     H1 3632   4.205   2.903   5.292  1.6366  1.3750 -0.5310
  122bbb     H2 3633   4.179   2.957   5.463  0.4619  0.6854  0.5321
  122bbb     C2 3634   4.401   3.117   5.462 -0.2081  0.8715  0.2295
  122bbb     H3 3635   4.483   3.173   5.417 -0.9274  1.4805 -0.3490
  122bbb     H4 3636   4.439   3.039   5.528 -1.2244  0.7723  0.7238
  122bbb     C3 3637   4.453   2.985   5.257  0.7853 -0.7524 -0.1279
  122bbb     H5 3638   4.506   2.909   5.315 -1.4064 -1.2380  1.3648
  122bbb     H6 3639   4.531   3.061   5.244  0.1052  0.0267  0.2368
  122bbb     C4 3640   4.416   2.927   5.115  0.4475 -0.0541  0.5149
  122bbb     H7 3641   4.308   2.908   5.115  0.6002 -1.5094  3.3949
  122bbb     H8 3642   4.478   2.840   5.091  0.8067  0.9029 -2.3106
  122bbb     C5 3643   4.318   2.789   5.444  0.3570 -0.1748 -0.0520
  122bbb     H9 3644   4.381   2.793   5.533  1.0981 -2.2409 -0.4366
  122bbb    H10 3645   4.389   2.761   5.365 -1.2179  0.3835 -1.7552
  122bbb     C6 3646   4.308   3.224   5.539  0.3186  0.0627 -0.0500
  122bbb    H11 3647   4.262   3.170   5.623 -1.4968  0.6176 -0.6382
  122bbb    H12 3648   4.224   3.264   5.480  0.2365 -0.8699 -0.5775
  122bbb     C7 3649   4.430   3.031   5.001 -0.2119 -0.4016 -0.0051
  122bbb    H13 3650   4.361   3.115   5.018  0.5538 -0.0399  1.4191
  122bbb    H14 3651   4.401   2.977   4.910 -3.6765 -0.1852  0.8197
  122bbb     C8 3652   4.389   3.342   5.591 -0.3001  0.6563  0.0665
  122bbb    H15 3653   4.472   3.299   5.649  1.0400  2.4424 -0.4250
  122bbb    H16 3654   4.439   3.401   5.514 -1.8249 -0.9901 -2.3087
  122bbb     C9 3655   4.216   2.674   5.464  0.0565  0.2165  0.3586
  122bbb    H17 3656   4.130   2.721   5.513 -0.8652 -2.0523  1.0459
  122bbb    H18 3657   4.244   2.592   5.531 -0.6624 -1.7855 -1.6715
  122bbb     O1 3658   4.577   3.065   5.003 -0.1291 -0.3246 -0.0507
  122bbb    H19 3659   4.278   3.107   5.305 -1.8321 -1.9602 -1.4844
  123bbb     N1 3660   7.150   1.888   5.731  0.3955 -0.0379  0.0997
  123bbb     C1 3661   7.235   1.792   5.651  0.0103 -0.5955 -0.6188
  123bbb     H1 3662   7.324   1.775   5.712 -1.0237 -3.6276  0.2206
  123bbb     H2 3663   7.261   1.846   5.560 -1.2471  2.3409  0.6269
  123bbb     C2 3664   7.219   2.016   5.772 -0.1639  0.0641 -0.8141
  123bbb     H3 3665   7.153   2.083   5.826  0.2199 -0.2788  0.1190
  123bbb     H4 3666   7.247   2.069   5.681  2.3585  0.0235 -0.1400
  123bbb     C3 3667   7.020   1.913   5.655  0.3964  0.2798  0.8773
  123bbb     H5 3668   6.962   1.822   5.635  2.2478 -0.4118 -1.7999
  123bbb     H6 3669   7.048   1.964   5.563  2.8350 -3.1116 -0.4853
  123bbb     C4 3670   6.922   1.996   5.737 -0.4283  0.6870 -0.1300
  123bbb     H7 3671   6.974   2.084   5.777 -1.4045  1.2824 -0.1409
  123bbb     H8 3672   6.897   1.936   5.825  0.7875  1.5351  0.8312
  123bbb     C5 3673   7.167   1.659   5.610  0.0278 -0.1758 -0.3344
  123bbb     H9 3674   7.240   1.599   5.554  0.1419 -1.9699  1.5980
  123bbb    H10 3675   7.079   1.676   5.547 -0.5516  0.1519  0.5452
  123bbb     C6 3676   7.348   1.989   5.856  0.1940 -0.0953  0.3288
  123bbb    H11 3677   7.413   1.942   5.781 -1.3214  0.6579 -1.5435
  123bbb    H12 3678   7.320   1.924   5.939 -1.5693  0.6134  0.3215
  123bbb     C7 3679   6.794   2.038   5.664 -0.2810  0.0220 -0.3092
  123bbb    H13 3680   6.740   2.102   5.735 -1.5391  0.5320 -1.6796
  123bbb    H14 3681   6.728   1.951   5.648 -0.1405 -0.0850 -0.3114
  123bbb     C8 3682   7.416   2.117   5.918  0.0122  0.1562 -0.1196
  123bbb    H15 3683   7.519   2.093   5.948  0.5949 -1.4142 -2.9918
  123bbb    H16 3684   7.426   2.194   5.840 -1.2181  0.6344  0.1668
  123bbb     C9 3685   7.131   1.575   5.734  0.9876 -0.0840  0.8286
  123bbb    H17 3686   7.098   1.477   5.699  1.4679 -0.4229  1.3055
  123bbb    H18 3687   7.043   1.623   5.779  0.2730 -2.4393  2.0890
  123bbb     O1 3688   6.821   2.099   5.533  0.1855 -0.6398 -0.4870
  123bbb    H19 3689   7.134   1.836   5.819  4.8368 -0.5412  0.8655
  124bbb     N1 3690   7.321   2.257   4.984 -0.3612 -0.3676  0.1532
  124bbb     C1 3691   7.394   2.354   5.084  0.1018  0.1178  0.0394
  124bbb     H1 3692   7.432   2.441   5.030 -1.5151  1.8323  1.5450
  124bbb     H2 3693   7.487   2.303   5.110  0.2770 -0.2430 -1.2242
  124bbb     C2 3694   7.412   2.255   4.863 -0.5620  0.6502  0.0019
  124bbb     H3 3695   7.385   2.165   4.807 -2.1976  0.6076  0.8082
  124bbb     H4 3696   7.517   2.240   4.890 -0.4920  0.8087 -0.1776
  124bbb     C3 3697   7.315   2.121   5.044 -0.3475  0.5026  0.3994
  124bbb     H5 3698   7.257   2.130   5.136  1.1249 -0.6825  1.4919
  124bbb     H6 3699   7.414   2.098   5.083  0.4761 -0.6986 -2.1518
  124bbb     C4 3700   7.264   2.005   4.951 -0.1394  0.1778  0.4394
  124bbb     H7 3701   7.250   1.918   5.016  1.8061 -0.1234  0.5227
  124bbb     H8 3702   7.342   1.971   4.881 -0.6613 -0.5765  0.2086
  124bbb     C5 3703   7.314   2.403   5.208 -0.3890 -0.7652  0.3780
  124bbb     H9 3704   7.266   2.315   5.252 -0.9133 -0.3529  0.6445
  124bbb    H10 3705   7.228   2.462   5.173 -1.2843 -0.7519  2.4412
  124bbb     C6 3706   7.408   2.375   4.768 -0.7227 -0.3106  0.6218
  124bbb    H11 3707   7.416   2.465   4.830  0.4293  0.0971 -0.0900
  124bbb    H12 3708   7.316   2.372   4.709 -0.3539 -1.6113  0.0632
  124bbb     C7 3709   7.129   2.034   4.879  0.6055 -0.7015  0.0328
  124bbb    H13 3710   7.108   1.943   4.821 -2.8861  0.4972 -0.7963
  124bbb    H14 3711   7.137   2.114   4.804 -1.9203 -0.5162 -0.1135
  124bbb     C8 3712   7.530   2.381   4.667  0.4040 -0.1519  0.2242
  124bbb    H15 3713   7.538   2.477   4.616  0.0751 -0.7082 -0.9112
  124bbb    H16 3714   7.614   2.364   4.735 -0.3960  2.1432  1.9051
  124bbb     C9 3715   7.391   2.469   5.327  0.3529 -1.0111 -0.4707
  124bbb    H17 3716   7.331   2.468   5.418 -0.2867  0.0111 -0.8580
  124bbb    H18 3717   7.418   2.573   5.305 -1.6845 -0.1506  0.7882
  124bbb     O1 3718   7.025   2.073   4.968 -0.3641  0.2426 -0.5225
  124bbb    H19 3719   7.229   2.302   4.976  0.2241  1.0667  1.1422
  125bbb     N1 3720   6.300   1.267   5.431  0.2729 -0.0157  0.5882
  125bbb     C1 3721   6.318   1.156   5.523 -0.3784  0.6425  0.5095
  125bbb     H1 3722   6.407   1.172   5.584  0.3086  0.3744 -0.3916
  125bbb     H2 3723   6.352   1.074   5.460 -0.9204  0.6036  0.2600
  125bbb     C2 3724   6.424   1.282   5.342  0.0391  0.3035 -0.6592
  125bbb     H3 3725   6.399   1.326   5.245  3.3326 -0.5359 -2.0262
  125bbb     H4 3726   6.460   1.181   5.325 -0.7661 -0.5140  1.9803
  125bbb     C3 3727   6.181   1.243   5.332 -0.2748  0.3644  0.3271
  125bbb     H5 3728   6.095   1.221   5.396 -0.2473  0.0040  0.2392
  125bbb     H6 3729   6.209   1.154   5.276 -2.9455  0.3926 -1.2703
  125bbb     C4 3730   6.127   1.365   5.256 -0.3459  0.1787  0.6619
  125bbb     H7 3731   6.213   1.426   5.227  0.1687 -0.1738  1.4033
  125bbb     H8 3732   6.066   1.428   5.323 -1.3274 -1.3301  1.2445
  125bbb     C5 3733   6.189   1.119   5.606 -0.6206  0.0721  0.5391
  125bbb     H9 3734   6.102   1.096   5.543 -0.1564  2.7691 -1.2682
  125bbb    H10 3735   6.159   1.209   5.660  1.0011  1.7829 -1.2194
  125bbb     C6 3736   6.546   1.346   5.410  0.7597  1.1129  0.1758
  125bbb    H11 3737   6.582   1.283   5.493  2.8017  2.3657  0.3053
  125bbb    H12 3738   6.533   1.448   5.447  2.2656  1.2308  0.4359
  125bbb     C7 3739   6.032   1.335   5.136 -0.2206  0.3237 -0.3300
  125bbb    H13 3740   5.932   1.333   5.182  0.5828  4.3806  2.1451
  125bbb    H14 3741   6.062   1.239   5.094 -0.4721 -0.4130  1.1179
  125bbb     C8 3742   6.670   1.349   5.308  0.3600 -0.3428  0.0813
  125bbb    H15 3743   6.687   1.454   5.283 -2.1402  0.5527  1.8433
  125bbb    H16 3744   6.761   1.312   5.357  0.9427  1.0875  0.1079
  125bbb     C9 3745   6.218   0.996   5.696 -0.0063  0.3546 -0.1876
  125bbb    H17 3746   6.217   0.901   5.640  1.3879 -0.3073  0.8498
  125bbb    H18 3747   6.135   0.993   5.767 -1.3676 -0.0943 -1.7409
  125bbb     O1 3748   6.038   1.440   5.036 -0.7834  0.0619  0.5679
  125bbb    H19 3749   6.295   1.354   5.486  0.9540  0.3997 -0.0024
  126bbb     N1 3750   5.736   1.635   4.357  0.1147 -1.0765  0.3319
  126bbb     C1 3751   5.655   1.536   4.443  1.1090 -0.4114  0.3506
  126bbb     H1 3752   5.656   1.570   4.547  0.8434  0.9267 -0.0612
  126bbb     H2 3753   5.699   1.436   4.448  0.0303 -0.9037  0.3702
  126bbb     C2 3754   5.676   1.769   4.380  0.5385 -0.1756 -0.1675
  126bbb     H3 3755   5.672   1.789   4.487  2.5852 -1.9212  0.2808
  126bbb     H4 3756   5.575   1.748   4.343  0.8196 -1.0218 -0.4756
  126bbb     C3 3757   5.880   1.643   4.400 -0.1881  0.5874 -0.2770
  126bbb     H5 3758   5.881   1.693   4.497 -0.4492  0.4006 -0.1763
  126bbb     H6 3759   5.921   1.716   4.331  0.6466  2.6348  2.2295
  126bbb     C4 3760   5.962   1.510   4.402  0.0620 -0.1381 -0.2298
  126bbb     H7 3761   5.942   1.469   4.302  1.6045 -0.0243 -0.6067
  126bbb     H8 3762   5.918   1.433   4.466  1.5133 -2.1311 -1.5441
  126bbb     C5 3763   5.513   1.511   4.383 -0.1014 -0.6112  0.6690
  126bbb     H9 3764   5.519   1.473   4.280  2.3785  2.8968 -0.6684
  126bbb    H10 3765   5.456   1.604   4.373 -0.2008 -0.7979 -0.7684
  126bbb     C6 3766   5.725   1.901   4.310  0.2766 -0.1882 -0.4114
  126bbb    H11 3767   5.758   1.883   4.207 -0.3095  1.1511 -0.8585
  126bbb    H12 3768   5.811   1.939   4.367  1.4888 -2.6269 -0.4834
  126bbb     C7 3769   6.108   1.525   4.445 -0.5570 -0.2777 -0.7442
  126bbb    H13 3770   6.161   1.564   4.357  1.2137  0.7068  0.6863
  126bbb    H14 3771   6.148   1.429   4.479  2.7996 -0.0586 -3.5450
  126bbb     C8 3772   5.616   2.012   4.311  0.6546 -0.1094  0.6631
  126bbb    H15 3773   5.643   2.072   4.223 -0.1812 -0.5976  0.0541
  126bbb    H16 3774   5.511   1.979   4.301  0.6628  0.1178 -0.3103
  126bbb     C9 3775   5.426   1.418   4.468 -1.0468  0.6886 -0.0064
  126bbb    H17 3776   5.330   1.406   4.417 -0.6499 -2.2768 -0.2447
  126bbb    H18 3777   5.419   1.469   4.565  1.6974  1.4605 -0.1235
  126bbb     O1 3778   6.126   1.623   4.554 -0.2716 -0.7802  0.4019
  126bbb    H19 3779   5.725   1.602   4.260  0.5477 -1.0166  0.2586
  127bbb     N1 3780   1.568   6.794   7.637  0.3028 -0.2426 -0.1321
  127bbb     C1 3781   1.438   6.717   7.627 -0.1423  0.2135 -0.2068
  127bbb     H1 3782   1.370   6.765   7.697  0.4439 -0.4604  0.8607
  127bbb     H2 3783   1.459   6.614   7.656  1.0224  0.4068 -0.3365
  127bbb     C2 3784   1.544   6.897   7.745  0.1122  0.4495 -0.3725
  127bbb     H3 3785   1.513   6.839   7.832  1.2343 -0.3269 -0.4732
  127bbb     H4 3786   1.462   6.962   7.713  0.9325  1.7383  0.0709
  127bbb     C3 3787   1.670   6.699   7.694  0.2597  0.8119 -0.1943
  127bbb     H5 3788   1.641   6.636   7.778  0.9871  0.2398 -0.3704
  127bbb     H6 3789   1.751   6.760   7.734 -0.6262  1.2223  1.0105
  127bbb     C4 3790   1.730   6.602   7.588 -0.3988 -0.2555 -0.4476
  127bbb     H7 3791   1.758   6.661   7.499  0.4838 -0.4241 -0.2993
  127bbb     H8 3792   1.647   6.532   7.574 -0.2741 -0.3499 -0.7255
  127bbb     C5 3793   1.372   6.717   7.481 -0.5026  0.0462  0.0896
  127bbb     H9 3794   1.353   6.816   7.438 -0.4776  0.4215  0.9232
  127bbb    H10 3795   1.269   6.678   7.480 -0.7003  0.5418 -1.0520
  127bbb     C6 3796   1.656   7.000   7.782 -0.4888  0.3117  0.3716
  127bbb    H11 3797   1.705   7.033   7.689  0.7319  0.6644  1.1216
  127bbb    H12 3798   1.734   6.942   7.832  0.7401  1.9375  0.4107
  127bbb     C7 3799   1.858   6.534   7.628 -0.6370 -0.1947 -0.3848
  127bbb    H13 3800   1.952   6.581   7.599  0.8463 -2.4163  0.5998
  127bbb    H14 3801   1.870   6.444   7.566 -1.1862  0.4183 -1.4188
  127bbb     C8 3802   1.605   7.112   7.872 -0.2954  0.9335 -0.3151
  127bbb    H15 3803   1.565   7.062   7.962 -0.2938 -1.0383 -1.3610
  127bbb    H16 3804   1.689   7.174   7.904  1.5251 -1.7225  0.3482
  127bbb     C9 3805   1.449   6.646   7.367 -0.5222  0.0637  1.0433
  127bbb    H17 3806   1.551   6.686   7.353  0.2139 -1.2759  2.3190
  127bbb    H18 3807   1.400   6.663   7.271  0.2725 -1.3193  0.3587
  127bbb     O1 3808   1.849   6.503   7.767 -0.2422  0.9199  0.2008
  127bbb    H19 3809   1.601   6.841   7.551  1.6712  0.4764  0.7516
  128bbb     N1 3810   1.311   6.357   8.273 -0.2707  0.1088  0.1809
  128bbb     C1 3811   1.208   6.446   8.201 -0.2788 -0.9267 -0.1423
  128bbb     H1 3812   1.115   6.417   8.251 -1.1002  2.5693  0.6657
  128bbb     H2 3813   1.201   6.407   8.099  0.6430 -0.6476 -0.3156
  128bbb     C2 3814   1.257   6.214   8.296  0.4965  0.0434 -0.4649
  128bbb     H3 3815   1.333   6.151   8.343 -2.1751 -0.9213  2.9529
  128bbb     H4 3816   1.244   6.182   8.193 -1.1160  2.1425 -0.9774
  128bbb     C3 3817   1.442   6.348   8.193  0.2578 -0.6389  0.8004
  128bbb     H5 3818   1.474   6.449   8.164  0.9162 -0.6253  1.5403
  128bbb     H6 3819   1.420   6.279   8.111 -1.0286 -0.9850  1.4061
  128bbb     C4 3820   1.567   6.294   8.261  0.4917  0.8307  0.0781
  128bbb     H7 3821   1.651   6.266   8.196 -1.1079  0.5820 -1.9590
  128bbb     H8 3822   1.542   6.197   8.307  0.8067 -0.2360 -1.8769
  128bbb     C5 3823   1.227   6.599   8.215 -0.0238  0.1311 -0.1751
  128bbb     H9 3824   1.308   6.631   8.148  0.2651  1.6794  0.8646
  128bbb    H10 3825   1.249   6.626   8.319 -2.5368 -0.9236  0.7175
  128bbb     C6 3826   1.129   6.200   8.388  0.0770  0.2737 -0.2723
  128bbb    H11 3827   1.041   6.252   8.349 -1.5345 -1.6217  0.6823
  128bbb    H12 3828   1.137   6.250   8.485 -3.0417 -2.7092  1.7281
  128bbb     C7 3829   1.627   6.388   8.361 -1.0486  0.9432  0.1009
  128bbb    H13 3830   1.708   6.346   8.421 -1.4953 -0.3848 -0.1822
  128bbb    H14 3831   1.554   6.420   8.436  0.2814  1.2959  1.2807
  128bbb     C8 3832   1.094   6.053   8.414  0.3955  0.5170  0.4782
  128bbb    H15 3833   1.158   5.999   8.484 -1.3197 -1.6686  0.4996
  128bbb    H16 3834   0.996   6.053   8.464  0.7512 -0.0210  1.1904
  128bbb     C9 3835   1.099   6.674   8.170 -0.0734  0.4512  0.3739
  128bbb    H17 3836   1.080   6.642   8.067  4.1862 -3.0738  0.3783
  128bbb    H18 3837   1.104   6.783   8.177  0.5285  0.3408  2.1976
  128bbb     O1 3838   1.689   6.500   8.292  0.1428 -0.1773  0.0864
  128bbb    H19 3839   1.345   6.403   8.359  0.4305 -0.2999  0.1309
  129bbb     N1 3840   2.001   7.865   7.757  1.3321 -0.0276 -0.3544
  129bbb     C1 3841   2.002   8.016   7.769  0.2220  0.3965  0.5334
  129bbb     H1 3842   1.924   8.047   7.838  1.6245  0.6436  2.0625
  129bbb     H2 3843   1.961   8.045   7.672 -1.0621 -0.7647  0.6992
  129bbb     C2 3844   2.102   7.814   7.652  0.3619 -0.4317  0.0234
  129bbb     H3 3845   2.207   7.828   7.680  0.7461  1.6289 -2.1876
  129bbb     H4 3846   2.086   7.868   7.559  0.7293 -0.8080 -0.2607
  129bbb     C3 3847   2.052   7.805   7.893 -0.2667 -0.8071 -0.5727
  129bbb     H5 3848   2.154   7.841   7.906  0.2528 -2.6778  1.0777
  129bbb     H6 3849   2.058   7.697   7.879 -0.4512 -0.6044 -2.4582
  129bbb     C4 3850   1.969   7.830   8.023 -0.0743 -0.0617  0.7259
  129bbb     H7 3851   1.866   7.795   8.012 -0.6142  1.5177  0.4998
  129bbb     H8 3852   1.959   7.937   8.046 -1.6256  0.1244 -0.6008
  129bbb     C5 3853   2.135   8.091   7.807 -0.4273 -0.1474 -0.4215
  129bbb     H9 3854   2.216   8.066   7.736 -0.0018 -0.3130  0.1153
  129bbb    H10 3855   2.169   8.046   7.901 -1.5899  0.3227  0.2350
  129bbb     C6 3856   2.057   7.669   7.621 -0.1167 -0.1145  0.3132
  129bbb    H11 3857   1.950   7.645   7.615  0.4171 -2.5199 -0.7627
  129bbb    H12 3858   2.088   7.598   7.698 -0.5316  0.7829  1.3409
  129bbb     C7 3859   2.031   7.764   8.147  0.0593  0.4791  0.3687
  129bbb    H13 3860   1.970   7.786   8.235 -0.4761 -0.9722  0.3878
  129bbb    H14 3861   2.130   7.796   8.181 -0.3040  1.3202  0.6587
  129bbb     C8 3862   2.105   7.624   7.480 -0.4670 -0.0867  0.0301
  129bbb    H15 3863   2.205   7.581   7.486 -0.0981  0.8085  0.5606
  129bbb    H16 3864   2.045   7.542   7.439 -0.5059 -0.4712  0.8289
  129bbb     C9 3865   2.116   8.249   7.810 -0.2188  0.6006  0.3418
  129bbb    H17 3866   2.029   8.287   7.864 -0.7094  1.1948 -0.8514
  129bbb    H18 3867   2.111   8.275   7.704 -1.0598 -0.2952  0.1467
  129bbb     O1 3868   2.041   7.622   8.131 -0.4208  0.0186 -0.6464
  129bbb    H19 3869   1.906   7.826   7.747  1.7138 -1.2909  0.6389
  130bbb     N1 3870   1.612   7.693   8.517 -1.0225 -0.6695 -0.2616
  130bbb     C1 3871   1.482   7.739   8.583 -0.1374 -0.3412 -0.6003
  130bbb     H1 3872   1.494   7.846   8.600  1.2542 -0.8372  1.9415
  130bbb     H2 3873   1.473   7.681   8.675  1.9902 -1.6542 -1.1700
  130bbb     C2 3874   1.737   7.766   8.572  0.1546 -0.3779 -0.4922
  130bbb     H3 3875   1.733   7.863   8.523  1.2748 -0.1881 -0.2483
  130bbb     H4 3876   1.831   7.727   8.534  0.5334  0.8424 -0.8493
  130bbb     C3 3877   1.629   7.549   8.542 -0.0359  0.8405 -0.3461
  130bbb     H5 3878   1.534   7.496   8.550  0.3239  0.2858  0.3896
  130bbb     H6 3879   1.676   7.524   8.637 -1.4300  0.9562  0.4051
  130bbb     C4 3880   1.718   7.475   8.437 -0.5207  0.2990  0.3686
  130bbb     H7 3881   1.811   7.529   8.419  1.1021 -1.9566  1.5037
  130bbb     H8 3882   1.670   7.468   8.338  0.7545  0.2057 -0.2603
  130bbb     C5 3883   1.350   7.751   8.497 -0.0801  0.1950  0.0822
  130bbb     H9 3884   1.342   7.654   8.446  0.4613 -0.4495  1.1832
  130bbb    H10 3885   1.369   7.828   8.422 -1.2058 -1.7891 -2.4362
  130bbb     C6 3886   1.752   7.777   8.725 -0.3126 -0.0913 -0.0309
  130bbb    H11 3887   1.770   7.677   8.766 -2.9378 -0.3938  0.5727
  130bbb    H12 3888   1.656   7.806   8.769  0.4318 -1.5922  2.7704
  130bbb     C7 3889   1.756   7.336   8.483 -0.3354  0.4476 -0.1759
  130bbb    H13 3890   1.742   7.271   8.396  0.1355  1.8404 -1.3390
  130bbb    H14 3891   1.686   7.315   8.565 -0.4331  1.9106  0.1491
  130bbb     C8 3892   1.870   7.871   8.763 -0.3812  0.1316  0.0324
  130bbb    H15 3893   1.891   7.863   8.871 -0.6470 -0.3382  0.0536
  130bbb    H16 3894   1.960   7.847   8.704  0.8301  2.1381  0.9544
  130bbb     C9 3895   1.219   7.759   8.572  0.3951  0.0058 -0.1510
  130bbb    H17 3896   1.198   7.684   8.649 -1.9029  0.8617  0.1362
  130bbb    H18 3897   1.140   7.745   8.497  0.9871 -1.4261 -0.5491
  130bbb     O1 3898   1.889   7.332   8.525 -0.0796  0.4104 -0.4024
  130bbb    H19 3899   1.614   7.722   8.418  1.1133  0.0511 -0.0563
  131bbb     N1 3900   3.963   6.295  10.366  0.0824 -0.4082  0.1412
  131bbb     C1 3901   4.055   6.422  10.372  0.3918  0.0044 -0.8405
  131bbb     H1 3902   4.020   6.489  10.452  0.1954  1.4408 -2.0832
  131bbb     H2 3903   4.035   6.488  10.287 -2.2429 -0.7807 -0.9408
  131bbb     C2 3904   3.864   6.309  10.478  0.2233 -0.0737 -0.5711
  131bbb     H3 3905   3.793   6.228  10.459  1.1361 -0.9459 -0.3421
  131bbb     H4 3906   3.815   6.407  10.475  0.8545  0.2245 -2.9874
  131bbb     C3 3907   3.877   6.310  10.241 -0.0045  0.1025  0.2014
  131bbb     H5 3908   3.874   6.418  10.232  1.6742  0.0917 -0.8675
  131bbb     H6 3909   3.776   6.269  10.254 -0.0847  0.7179  1.7688
  131bbb     C4 3910   3.942   6.247  10.117  0.2116 -0.3689 -0.3325
  131bbb     H7 3911   3.936   6.138  10.128  0.9172 -0.5179 -1.2480
  131bbb     H8 3912   4.050   6.268  10.115  0.9715 -3.6574 -0.6677
  131bbb     C5 3913   4.208   6.404  10.404 -0.2466  0.5393 -0.1049
  131bbb     H9 3914   4.246   6.350  10.316 -0.5105  0.5123 -0.2020
  131bbb    H10 3915   4.224   6.345  10.495 -0.1922 -0.5143 -0.7785
  131bbb     C6 3916   3.925   6.274  10.610 -0.3687  0.2069 -0.1341
  131bbb    H11 3917   3.993   6.353  10.644  0.4132 -0.6944  0.4592
  131bbb    H12 3918   3.988   6.185  10.614  2.2056  1.9397 -0.2442
  131bbb     C7 3919   3.889   6.314   9.993  0.6236  0.1829  0.4682
  131bbb    H13 3920   3.780   6.327  10.000  0.7968  0.8727  2.4601
  131bbb    H14 3921   3.927   6.248   9.914  2.2761  0.5190  0.9620
  131bbb     C8 3922   3.821   6.244  10.718 -0.4646 -0.5907 -0.0106
  131bbb    H15 3923   3.876   6.253  10.812 -0.9870 -1.3582  0.3751
  131bbb    H16 3924   3.740   6.318  10.713  0.6861  0.7252  0.2203
  131bbb     C9 3925   4.272   6.539  10.416  0.1388 -0.2773  0.7307
  131bbb    H17 3926   4.251   6.600  10.327  2.1961 -0.9550 -0.2883
  131bbb    H18 3927   4.381   6.523  10.413  0.0648 -0.6657 -0.2222
  131bbb     O1 3928   3.951   6.443   9.972  0.1126 -0.2913 -0.1354
  131bbb    H19 3929   4.016   6.207  10.375  1.0107  0.2040  1.0228
  132bbb     N1 3930   4.798   7.018   9.846 -0.2164 -0.1052 -0.0229
  132bbb     C1 3931   4.850   7.081   9.973  0.6078 -0.6996  0.0186
  132bbb     H1 3932   4.778   7.068  10.055  0.8032  0.1444  0.3389
  132bbb     H2 3933   4.843   7.190   9.965  2.6013 -0.0437  4.1278
  132bbb     C2 3934   4.813   6.869   9.853  0.1329 -0.1213 -0.4581
  132bbb     H3 3935   4.745   6.820   9.923  1.0005  0.4064  0.7892
  132bbb     H4 3936   4.916   6.861   9.887 -0.9186  1.4229  3.6562
  132bbb     C3 3937   4.649   7.049   9.839  0.0733 -0.5139 -0.1090
  132bbb     H5 3938   4.621   7.030   9.943  0.1176  1.9571  0.4110
  132bbb     H6 3939   4.597   6.986   9.766 -1.8276  2.3607 -1.3997
  132bbb     C4 3940   4.597   7.190   9.818  0.2864 -0.2559 -0.4167
  132bbb     H7 3941   4.620   7.201   9.711 -0.9182  2.1807 -0.4850
  132bbb     H8 3942   4.652   7.269   9.869  0.0356  0.7533 -1.6639
  132bbb     C5 3943   4.996   7.044  10.030 -0.2841 -0.3379  0.1275
  132bbb     H9 3944   5.068   7.060   9.949  0.7224 -0.7163  0.9267
  132bbb    H10 3945   4.994   6.938  10.060 -0.3629 -0.6855 -1.0488
  132bbb     C6 3946   4.787   6.800   9.712  1.0073 -0.0858 -0.0102
  132bbb    H11 3947   4.858   6.834   9.635  0.0037 -0.5713 -1.1863
  132bbb    H12 3948   4.685   6.819   9.678  1.7149  0.7982 -1.7832
  132bbb     C7 3949   4.446   7.214   9.849 -0.3664  0.1588  0.0117
  132bbb    H13 3950   4.412   7.315   9.821  0.8193  1.4232  2.7545
  132bbb    H14 3951   4.427   7.206   9.957  0.0949 -1.0381  0.0205
  132bbb     C8 3952   4.816   6.647   9.723  0.0019 -0.0974  0.8892
  132bbb    H15 3953   4.805   6.594   9.628  1.2012 -0.6410  1.0429
  132bbb    H16 3954   4.923   6.635   9.746 -0.1320  0.1602  1.6900
  132bbb     C9 3955   5.042   7.137  10.149 -0.2138 -0.5031  0.6068
  132bbb    H17 3956   5.119   7.085  10.207 -0.3005 -0.6216  0.6169
  132bbb    H18 3957   4.955   7.152  10.214 -1.4591 -0.0956 -1.0699
  132bbb     O1 3958   4.366   7.126   9.770  0.0656 -0.1066  0.6844
  132bbb    H19 3959   4.853   7.056   9.767  0.5282  1.6228  1.2692
  133bbb     N1 3960   2.331   6.326   9.848 -0.1743  0.2648  0.0758
  133bbb     C1 3961   2.265   6.367   9.983 -0.0298  0.9087 -0.1298
  133bbb     H1 3962   2.340   6.365  10.062  0.4669  0.8084 -0.6035
  133bbb     H2 3963   2.188   6.292  10.000  0.1260 -0.1072 -3.2959
  133bbb     C2 3964   2.223   6.315   9.733  0.2880  0.7146 -0.7780
  133bbb     H3 3965   2.216   6.403   9.669 -2.2216  1.3650  0.2839
  133bbb     H4 3966   2.131   6.320   9.790  0.0933  0.3443 -1.0556
  133bbb     C3 3967   2.431   6.430   9.798 -0.4292  0.8334  0.4335
  133bbb     H5 3968   2.391   6.531   9.804 -0.0363  0.9406  1.6747
  133bbb     H6 3969   2.457   6.405   9.695  2.7246 -2.4236  1.8020
  133bbb     C4 3970   2.561   6.428   9.880  0.0357  0.0889 -0.8154
  133bbb     H7 3971   2.628   6.355   9.834 -0.6233 -2.0069  1.3026
  133bbb     H8 3972   2.554   6.391   9.983  1.5019  3.1822  0.5324
  133bbb     C5 3973   2.192   6.501   9.987 -0.1834  0.2218  0.2284
  133bbb     H9 3974   2.109   6.505   9.915 -0.7349  0.8978  0.8853
  133bbb    H10 3975   2.251   6.589   9.960  0.7910 -0.5270 -0.1342
  133bbb     C6 3976   2.242   6.188   9.650 -0.1962  0.2051  0.3282
  133bbb    H11 3977   2.259   6.107   9.722  1.2751  0.0719 -0.1487
  133bbb    H12 3978   2.333   6.202   9.591  0.3240  1.2895  1.3335
  133bbb     C7 3979   2.631   6.568   9.886 -0.1198  0.0968 -0.3610
  133bbb    H13 3980   2.718   6.560   9.952  0.9379 -0.2923 -1.7507
  133bbb    H14 3981   2.562   6.641   9.930  2.2729  1.1130  2.0587
  133bbb     C8 3982   2.132   6.164   9.552 -0.2354 -0.0385 -0.7508
  133bbb    H15 3983   2.130   6.242   9.474 -1.6156  1.2477  0.4923
  133bbb    H16 3984   2.151   6.067   9.506 -0.4928 -0.5046  0.1069
  133bbb     C9 3985   2.146   6.527  10.135 -0.0606 -0.6826 -0.0721
  133bbb    H17 3986   2.096   6.624  10.132  1.7150  0.2965  0.5603
  133bbb    H18 3987   2.228   6.518  10.207 -1.6061 -2.2971  1.6086
  133bbb     O1 3988   2.670   6.597   9.751  1.1593 -0.7634  0.4145
  133bbb    H19 3989   2.366   6.229   9.856 -3.2387 -0.8501  1.2611
  134bbb     N1 3990   2.727   7.388   9.454 -0.2308  0.0892  0.4041
  134bbb     C1 3991   2.767   7.456   9.327 -0.2437  0.4145  0.3172
  134bbb     H1 3992   2.820   7.547   9.354  4.1140 -2.0182  1.0999
  134bbb     H2 3993   2.674   7.484   9.278  0.2696 -1.2121 -1.7033
  134bbb     C2 3994   2.668   7.485   9.551 -0.7713  0.2595 -0.3468
  134bbb     H3 3995   2.656   7.431   9.645  0.3736  1.5143  0.5488
  134bbb     H4 3996   2.574   7.520   9.509 -0.8928 -2.0191 -2.2032
  134bbb     C3 3997   2.640   7.276   9.411 -0.2382 -0.1983 -0.1572
  134bbb     H5 3998   2.683   7.231   9.321  0.7880 -1.8102  1.0803
  134bbb     H6 3999   2.545   7.318   9.379 -0.6548 -1.5905 -0.8249
  134bbb     C4 4000   2.618   7.155   9.504 -0.2760 -0.1679  0.3014
  134bbb     H7 4001   2.604   7.191   9.607 -1.7051  2.3111 -0.6705
  134bbb     H8 4002   2.709   7.095   9.506 -0.2989 -0.2183 -0.2347
  134bbb     C5 4003   2.848   7.386   9.225  0.9303 -0.0022  0.0569
  134bbb     H9 4004   2.785   7.306   9.183 -0.0769  1.2012 -0.8208
  134bbb    H10 4005   2.937   7.340   9.267  0.5126  0.7390  1.8316
  134bbb     C6 4006   2.764   7.598   9.587 -0.1125 -0.3486 -0.1687
  134bbb    H11 4007   2.769   7.665   9.500 -0.9652  0.1337  0.1420
  134bbb    H12 4008   2.865   7.560   9.608 -0.7047 -2.1798 -0.4017
  134bbb     C7 4009   2.489   7.076   9.459  0.1148 -0.2987  0.4454
  134bbb    H13 4010   2.473   7.070   9.350  0.3862  0.8237  0.3287
  134bbb    H14 4011   2.400   7.133   9.490 -0.0460 -1.0097  1.3118
  134bbb     C8 4012   2.710   7.662   9.717  0.0962  0.2064 -0.1928
  134bbb    H15 4013   2.705   7.586   9.795  0.2865 -0.3820 -0.7508
  134bbb    H16 4014   2.783   7.736   9.752 -0.1614  1.4236 -2.0958
  134bbb     C9 4015   2.886   7.489   9.114  0.4594  0.5371  0.0728
  134bbb    H17 4016   2.795   7.525   9.064  0.4784  1.2591  0.5359
  134bbb    H18 4017   2.946   7.435   9.040  0.3227  0.8838 -0.2948
  134bbb     O1 4018   2.493   6.944   9.520  0.5765 -0.2237 -0.0779
  134bbb    H19 4019   2.814   7.353   9.497  0.8645  1.1378 -0.9044
  135bbb     N1 4020   3.687   8.133   6.079 -0.1118  0.1490 -0.4945
  135bbb     C1 4021   3.615   8.164   5.949 -0.0832 -0.0761 -0.0593
  135bbb     H1 4022   3.506   8.160   5.959  0.0279 -0.2539  1.3260
  135bbb     H2 4023   3.637   8.093   5.869 -3.6521 -0.6050 -0.7657
  135bbb     C2 4024   3.664   8.240   6.183  0.5671  1.1193  0.4102
  135bbb     H3 4025   3.561   8.221   6.215  0.7112 -2.6205 -0.8808
  135bbb     H4 4026   3.671   8.338   6.135  0.7078  0.8598 -0.1043
  135bbb     C3 4027   3.636   8.004   6.140  0.7694  0.0975  0.2502
  135bbb     H5 4028   3.528   8.016   6.154  0.3779 -0.0477 -2.1602
  135bbb     H6 4029   3.664   8.006   6.246  0.8108  1.6386  0.2296
  135bbb     C4 4030   3.667   7.865   6.078  0.2951 -0.7173  0.5716
  135bbb     H7 4031   3.773   7.852   6.051 -0.0198  0.6431 -1.6038
  135bbb     H8 4032   3.626   7.857   5.976 -0.0803  1.2767  0.5227
  135bbb     C5 4033   3.644   8.307   5.889  0.2430  0.2014 -0.5140
  135bbb     H9 4034   3.748   8.333   5.908 -0.2891  0.6944  2.1196
  135bbb    H10 4035   3.580   8.378   5.942 -1.0885 -0.4102 -1.2501
  135bbb     C6 4036   3.763   8.235   6.306 -0.7904  0.2019 -0.5393
  135bbb    H11 4037   3.864   8.214   6.269 -1.1438  1.4415 -2.3584
  135bbb    H12 4038   3.723   8.158   6.372 -0.7508  0.2432 -0.4681
  135bbb     C7 4039   3.609   7.745   6.152 -0.9893  1.3543  0.0333
  135bbb    H13 4040   3.649   7.648   6.119  0.0360  1.6713  0.3107
  135bbb    H14 4041   3.504   7.739   6.121 -0.4651 -1.0776 -1.5628
  135bbb     C8 4042   3.781   8.371   6.387 -0.3231 -0.0984  0.2973
  135bbb    H15 4043   3.686   8.425   6.400  0.4579  1.0989  1.3473
  135bbb    H16 4044   3.807   8.343   6.490  2.7533  1.3567  0.0098
  135bbb     C9 4045   3.619   8.312   5.737 -0.7189 -0.5237 -1.0881
  135bbb    H17 4046   3.682   8.253   5.669  1.3673  0.3864 -0.0311
  135bbb    H18 4047   3.623   8.419   5.711  1.0199  0.3745  2.2156
  135bbb     O1 4048   3.631   7.747   6.299 -0.1442  0.5407 -0.6175
  135bbb    H19 4049   3.789   8.135   6.064 -0.4456 -0.6801 -3.4220
  136bbb     N1 4050   4.379   7.429   6.271 -0.2607 -0.1430  0.7967
  136bbb     C1 4051   4.472   7.403   6.153  0.3769 -0.7499 -0.9502
  136bbb     H1 4052   4.436   7.469   6.074  0.8791 -0.2082 -0.7287
  136bbb     H2 4053   4.457   7.299   6.124  0.5496 -1.6943  2.0502
  136bbb     C2 4054   4.433   7.348   6.387 -0.2139 -0.1795 -0.9187
  136bbb     H3 4055   4.514   7.400   6.438 -1.7528  0.8296  0.5956
  136bbb     H4 4056   4.467   7.252   6.349  0.7373 -0.6632  1.0434
  136bbb     C3 4057   4.361   7.577   6.316  0.0804  0.2437 -0.0141
  136bbb     H5 4058   4.459   7.619   6.343  1.3077 -0.9002 -2.4127
  136bbb     H6 4059   4.302   7.561   6.407  3.2142 -0.7555  2.0312
  136bbb     C4 4060   4.277   7.669   6.229 -0.4357  0.7472  0.3455
  136bbb     H7 4061   4.181   7.617   6.219  0.1131 -0.4126  0.8780
  136bbb     H8 4062   4.312   7.674   6.125 -0.5707 -2.3628  0.0697
  136bbb     C5 4063   4.618   7.448   6.159  0.1816  0.2594  0.2968
  136bbb     H9 4064   4.677   7.394   6.234  1.2790 -0.1271 -0.8175
  136bbb    H10 4065   4.622   7.551   6.197  3.7318  0.1927  0.4462
  136bbb     C6 4066   4.330   7.311   6.494  0.0632  0.0075  0.4485
  136bbb    H11 4067   4.245   7.257   6.451 -1.4118  1.1957  1.7331
  136bbb    H12 4068   4.290   7.396   6.550 -1.5346 -2.0727  2.7308
  136bbb     C7 4069   4.251   7.809   6.294 -0.0929  0.5191 -0.6466
  136bbb    H13 4070   4.216   7.887   6.225 -1.8404  1.6238  1.3648
  136bbb    H14 4071   4.350   7.842   6.327 -0.5544  1.5491 -0.2284
  136bbb     C8 4072   4.399   7.209   6.588 -0.1593  0.1671  0.1312
  136bbb    H15 4073   4.330   7.177   6.668  1.1897 -1.4148  0.7117
  136bbb    H16 4074   4.430   7.122   6.529  0.7796  0.9495 -0.5546
  136bbb     C9 4075   4.673   7.434   6.022  0.1684 -0.2119 -0.3034
  136bbb    H17 4076   4.620   7.504   5.956 -0.8502 -1.1288 -0.4985
  136bbb    H18 4077   4.663   7.331   5.985  2.1369 -1.0970  1.4294
  136bbb     O1 4078   4.153   7.792   6.404 -0.0384  0.0758  0.3298
  136bbb    H19 4079   4.284   7.398   6.247  0.7536 -2.5504 -0.4090
  137bbb     N1 4080   2.249   7.186   6.375  0.6257  0.2008 -0.2097
  137bbb     C1 4081   2.331   7.109   6.273 -0.2147  0.3123  0.5598
  137bbb     H1 4082   2.435   7.138   6.285  0.4540 -1.4188 -0.7197
  137bbb     H2 4083   2.296   7.131   6.172  0.3899 -1.5892 -0.1107
  137bbb     C2 4084   2.101   7.141   6.377 -0.0219 -0.8885 -0.0407
  137bbb     H3 4085   2.044   7.211   6.438  1.1754  0.0796 -0.0055
  137bbb     H4 4086   2.099   7.035   6.403  1.9436 -1.1054 -0.6339
  137bbb     C3 4087   2.305   7.178   6.517 -0.0159 -0.2533  0.2178
  137bbb     H5 4088   2.411   7.154   6.509  0.2771  1.1585 -0.5741
  137bbb     H6 4089   2.257   7.096   6.569 -0.1091 -0.1101  0.3609
  137bbb     C4 4090   2.299   7.304   6.603 -0.4975  0.3858 -0.0025
  137bbb     H7 4091   2.217   7.303   6.676  0.5791  0.2145  1.2561
  137bbb     H8 4092   2.293   7.393   6.539  1.9687  0.6932  0.0896
  137bbb     C5 4093   2.358   6.955   6.297  0.2578 -0.4645 -0.6713
  137bbb     H9 4094   2.273   6.907   6.347 -0.0467 -1.6401 -2.2434
  137bbb    H10 4095   2.442   6.940   6.366  0.0119 -0.1142 -0.2874
  137bbb     C6 4096   2.033   7.156   6.241 -0.4845  0.5584 -0.0895
  137bbb    H11 4097   2.084   7.088   6.172  1.9359  1.3854  0.7540
  137bbb    H12 4098   2.040   7.260   6.207 -0.6473  0.7484  0.4492
  137bbb     C7 4099   2.427   7.327   6.690  0.4626  0.1418  0.0538
  137bbb    H13 4100   2.462   7.232   6.731  0.3900  0.1667  0.1722
  137bbb    H14 4101   2.411   7.406   6.765  1.0954  1.7263 -1.4178
  137bbb     C8 4102   1.883   7.133   6.239  0.9189 -0.1345  0.2401
  137bbb    H15 4103   1.831   7.195   6.313 -0.2998 -0.0358 -0.6623
  137bbb    H16 4104   1.847   7.152   6.137 -0.6952 -0.9280  0.6331
  137bbb     C9 4105   2.384   6.884   6.165 -0.2139  0.0773 -0.2228
  137bbb    H17 4106   2.311   6.916   6.090 -1.5868  2.1365  1.8696
  137bbb    H18 4107   2.379   6.774   6.166 -1.4603  0.0425 -2.5310
  137bbb     O1 4108   2.535   7.367   6.607 -0.0770  0.1905  0.4044
  137bbb    H19 4109   2.251   7.286   6.352  0.5701 -0.4316 -3.4134
  138bbb     N1 4110   2.184   8.367   6.517 -0.1513  0.4128 -0.3266
  138bbb     C1 4111   2.247   8.492   6.568  0.2151 -0.1993 -0.2055
  138bbb     H1 4112   2.302   8.474   6.661  2.1704  0.4182 -1.1844
  138bbb     H2 4113   2.163   8.555   6.598  0.4964  0.3149 -0.4837
  138bbb     C2 4114   2.089   8.404   6.399  0.1064  0.1559 -0.0538
  138bbb     H3 4115   2.141   8.450   6.315  0.3811 -1.1529 -0.6235
  138bbb     H4 4116   2.026   8.487   6.433 -0.3333 -0.2493  0.1375
  138bbb     C3 4117   2.280   8.267   6.479 -0.2657  0.2473 -0.0285
  138bbb     H5 4118   2.333   8.315   6.396  0.9464  0.3540  0.7864
  138bbb     H6 4119   2.219   8.189   6.432 -0.0552 -0.0428  0.1816
  138bbb     C4 4120   2.381   8.211   6.583 -0.2712  0.5584 -0.1570
  138bbb     H7 4121   2.326   8.171   6.669  0.9954 -1.7688 -0.3598
  138bbb     H8 4122   2.448   8.287   6.625 -0.4930  0.0130  1.2381
  138bbb     C5 4123   2.345   8.577   6.480  0.1021 -0.0196  0.7871
  138bbb     H9 4124   2.296   8.592   6.383  1.7825  2.0471  0.1750
  138bbb    H10 4125   2.431   8.518   6.446 -0.3930 -0.2167 -0.1365
  138bbb     C6 4126   1.991   8.294   6.355 -0.2052  0.2236  0.0180
  138bbb    H11 4127   1.935   8.266   6.445  0.1622 -1.3799 -0.2252
  138bbb    H12 4128   2.041   8.200   6.328  0.5065  0.3627  0.7967
  138bbb     C7 4129   2.457   8.091   6.523 -0.1107  0.1666  0.6193
  138bbb    H13 4130   2.507   8.038   6.605  0.1851 -2.6409 -1.2676
  138bbb    H14 4131   2.535   8.138   6.462 -1.8551  2.5879  0.0981
  138bbb     C8 4132   1.894   8.338   6.249  0.0613 -0.6464 -0.1276
  138bbb    H15 4133   1.954   8.355   6.159 -1.1959 -0.2797 -0.9258
  138bbb    H16 4134   1.826   8.254   6.234  1.3301 -1.7225 -0.0061
  138bbb     C9 4135   2.391   8.713   6.536  0.5321 -0.1305 -0.5680
  138bbb    H17 4136   2.310   8.775   6.577 -0.5912 -1.7473 -0.2494
  138bbb    H18 4137   2.447   8.771   6.462  0.3445  0.2217 -0.4371
  138bbb     O1 4138   2.372   8.008   6.447  0.8033  1.0180  0.6275
  138bbb    H19 4139   2.128   8.336   6.598 -0.0922  1.6848  0.2258
  139bbb     N1 4140   3.628   8.621   8.911 -0.0212  0.4177  0.6428
  139bbb     C1 4141   3.774   8.606   8.927 -1.1882  0.5630 -0.0569
  139bbb     H1 4142   3.799   8.501   8.941  0.5901  0.4977 -2.8941
  139bbb     H2 4143   3.805   8.665   9.014 -1.1689 -1.7042  1.5607
  139bbb     C2 4144   3.597   8.769   8.924 -0.8328 -0.2455 -0.4259
  139bbb     H3 4145   3.651   8.830   8.851 -3.7858  0.6400 -2.0719
  139bbb     H4 4146   3.629   8.788   9.026  0.0113 -0.7303 -0.5947
  139bbb     C3 4147   3.560   8.554   8.790 -0.3392 -0.1811 -1.2552
  139bbb     H5 4148   3.613   8.586   8.700 -0.7449  0.3298 -1.3173
  139bbb     H6 4149   3.458   8.591   8.777  0.1006  1.8418  0.4934
  139bbb     C4 4150   3.560   8.396   8.812  0.2898 -0.1527 -0.2822
  139bbb     H7 4151   3.514   8.369   8.908 -0.9925  0.0434 -0.8114
  139bbb     H8 4152   3.662   8.356   8.813 -0.0923 -1.1530 -0.1449
  139bbb     C5 4153   3.856   8.662   8.815 -0.1640 -0.3108 -0.4599
  139bbb     H9 4154   3.826   8.762   8.782 -0.6315 -0.4243 -0.3889
  139bbb    H10 4155   3.836   8.605   8.723  1.8160  1.0822 -1.8369
  139bbb     C6 4156   3.454   8.808   8.915  0.2026  0.8879 -0.1021
  139bbb    H11 4157   3.404   8.748   8.991  1.9285  1.1585  1.3024
  139bbb    H12 4158   3.417   8.786   8.814 -0.0875 -0.7362  0.3358
  139bbb     C7 4159   3.480   8.313   8.707  0.8608 -0.1244 -0.6417
  139bbb    H13 4160   3.517   8.344   8.608 -0.9593 -0.2791 -1.4095
  139bbb    H14 4161   3.373   8.331   8.722  1.1256  0.8098  0.2546
  139bbb     C8 4162   3.429   8.948   8.951  0.5084 -0.1340 -0.5328
  139bbb    H15 4163   3.321   8.957   8.935  0.2349 -3.5943 -1.4403
  139bbb    H16 4164   3.445   8.968   9.057  0.9100 -0.2916 -0.5603
  139bbb     C9 4165   4.004   8.648   8.851  0.2829  0.1253  0.6862
  139bbb    H17 4166   4.056   8.678   8.759  0.9915  1.6758  1.5414
  139bbb    H18 4167   4.022   8.543   8.877  0.8787  0.0762  0.1111
  139bbb     O1 4168   3.505   8.176   8.721  0.2734 -0.2471  0.8536
  139bbb    H19 4169   3.579   8.579   8.991 -3.3908 -0.5374 -1.6714
  140bbb     N1 4170   4.082   8.017   8.108 -0.4075  0.3437 -0.0601
  140bbb     C1 4171   3.987   8.006   7.998  0.4916 -0.0243  0.1680
  140bbb     H1 4172   4.041   8.013   7.903  1.1994  0.1405  0.5777
  140bbb     H2 4173   3.931   8.099   7.993  0.1583 -0.1013  1.7905
  140bbb     C2 4174   4.186   8.125   8.078 -0.5749 -0.0453 -0.0718
  140bbb     H3 4175   4.226   8.143   8.178  0.4161 -0.4631 -0.3856
  140bbb     H4 4176   4.136   8.213   8.037 -0.1887  0.1729 -0.0778
  140bbb     C3 4177   4.008   8.038   8.236  0.8900 -0.8111  0.0395
  140bbb     H5 4178   4.066   7.998   8.319  1.6230  1.1254  0.4986
  140bbb     H6 4179   3.916   7.978   8.236  0.0828  0.3821  0.4185
  140bbb     C4 4180   3.959   8.182   8.271  0.2111  1.0378  0.4782
  140bbb     H7 4181   3.905   8.220   8.183  1.4398 -0.8032 -1.1382
  140bbb     H8 4182   4.047   8.245   8.291  0.0510  1.5442 -0.3612
  140bbb     C5 4183   3.881   7.888   8.003  0.1966 -0.1430  0.2993
  140bbb     H9 4184   3.831   7.887   8.100  1.6740 -1.2062  1.0856
  140bbb    H10 4185   3.920   7.786   8.007 -2.5234 -1.2393  1.4016
  140bbb     C6 4186   4.305   8.094   7.985 -0.4126  0.4250 -0.1637
  140bbb    H11 4187   4.267   8.087   7.882 -1.2235 -1.3981  0.2272
  140bbb    H12 4188   4.346   7.997   8.013 -2.7102 -0.5866 -0.1084
  140bbb     C7 4189   3.864   8.191   8.391 -0.0722 -0.0106  0.2959
  140bbb    H13 4190   3.772   8.143   8.355 -0.2465 -0.0064  0.7207
  140bbb    H14 4191   3.838   8.297   8.403  2.7518  0.7046  0.8968
  140bbb     C8 4192   4.413   8.202   8.013 -0.4200 -0.4490 -0.4385
  140bbb    H15 4193   4.428   8.203   8.122  2.1674 -0.2638 -0.7335
  140bbb    H16 4194   4.512   8.174   7.974  0.4340  0.1283  1.1805
  140bbb     C9 4195   3.780   7.887   7.886 -0.1710  0.1693  0.6631
  140bbb    H17 4196   3.709   7.804   7.895  1.0817 -0.7470  2.4739
  140bbb    H18 4197   3.830   7.859   7.792 -0.2736  4.0056 -0.7271
  140bbb     O1 4198   3.904   8.114   8.500 -0.0479 -0.1433 -0.1486
  140bbb    H19 4199   4.126   7.924   8.111  0.0281  0.5677  0.4596
  141bbb     N1 4200   4.646   8.346   9.048 -0.2355 -0.2739  0.6107
  141bbb     C1 4201   4.736   8.279   9.155 -0.5866 -0.2221 -0.2505
  141bbb     H1 4202   4.713   8.173   9.161  0.4258 -0.4917 -0.9124
  141bbb     H2 4203   4.710   8.323   9.252 -0.5131  0.7139 -0.6437
  141bbb     C2 4204   4.675   8.491   9.010 -0.3488 -0.2489 -0.2427
  141bbb     H3 4205   4.600   8.513   8.933 -1.6177 -0.3616  0.9192
  141bbb     H4 4206   4.777   8.505   8.974 -0.5481  0.1277 -0.6658
  141bbb     C3 4207   4.669   8.262   8.914  0.3972 -0.8927 -0.2983
  141bbb     H5 4208   4.670   8.158   8.947 -0.6384 -0.8591 -0.1350
  141bbb     H6 4209   4.768   8.292   8.880  0.5062 -0.1155  0.6649
  141bbb     C4 4210   4.571   8.287   8.801  0.4969 -0.0085 -0.3583
  141bbb     H7 4211   4.575   8.393   8.773  0.1204  0.3411  0.8760
  141bbb     H8 4212   4.466   8.263   8.825  0.5715  1.1693  1.2621
  141bbb     C5 4213   4.895   8.301   9.138 -0.5752 -0.1404 -0.6888
  141bbb     H9 4214   4.917   8.406   9.113 -0.6071  0.4382  1.5115
  141bbb    H10 4215   4.933   8.242   9.054  0.8599 -0.6559  0.2814
  141bbb     C6 4216   4.650   8.595   9.124  0.0791  0.1110  0.1419
  141bbb    H11 4217   4.720   8.567   9.203  1.3649  3.5743  0.4002
  141bbb    H12 4218   4.549   8.601   9.168  1.7301 -1.4496  4.6437
  141bbb     C7 4219   4.598   8.202   8.677  0.3900 -0.3025  0.1572
  141bbb    H13 4220   4.683   8.246   8.624  0.4373 -0.4213  0.1341
  141bbb    H14 4221   4.508   8.199   8.614  1.0268  0.3026 -0.8125
  141bbb     C8 4222   4.691   8.739   9.082 -0.3252 -0.6830 -0.0353
  141bbb    H15 4223   4.716   8.802   9.168  1.3176  0.9728 -1.6380
  141bbb    H16 4224   4.778   8.747   9.016 -0.9297 -0.5886 -0.8398
  141bbb     C9 4225   4.974   8.265   9.271  0.4919 -0.5315 -0.0644
  141bbb    H17 4226   4.960   8.157   9.288 -0.9674 -0.4331 -0.4841
  141bbb    H18 4227   4.939   8.314   9.363 -0.3032 -1.1676 -0.0129
  141bbb     O1 4228   4.636   8.062   8.709  0.4103  0.3485 -1.1086
  141bbb    H19 4229   4.547   8.338   9.075 -0.4407 -0.6003 -0.2202
  142bbb     N1 4230   5.048   7.321   9.072 -0.2350  0.0003  0.0357
  142bbb     C1 4231   5.086   7.197   8.987  0.3664 -0.2732  0.0163
  142bbb     H1 4232   5.136   7.221   8.893 -0.1216 -0.7937 -0.3808
  142bbb     H2 4233   4.995   7.140   8.966  0.6883 -0.4143 -1.0297
  142bbb     C2 4234   5.170   7.405   9.108  0.4222  0.0342  0.4230
  142bbb     H3 4235   5.204   7.463   9.022 -2.5254  0.5160 -0.4984
  142bbb     H4 4236   5.247   7.331   9.131 -0.7630 -1.7695 -1.0742
  142bbb     C3 4237   4.957   7.414   8.992 -0.1294  0.4381 -0.0872
  142bbb     H5 4238   5.004   7.432   8.895 -2.8595  2.2278 -1.2220
  142bbb     H6 4239   4.954   7.513   9.038  1.4758  0.1302  0.7293
  142bbb     C4 4240   4.813   7.373   8.974  0.8154  0.1854 -0.3992
  142bbb     H7 4241   4.764   7.349   9.069  1.1256 -2.0572 -0.7266
  142bbb     H8 4242   4.798   7.276   8.925 -0.8221 -0.5354  1.3922
  142bbb     C5 4243   5.179   7.092   9.060  0.2358  0.0743 -1.1168
  142bbb     H9 4244   5.145   7.075   9.163  2.3863 -2.4193 -0.7020
  142bbb    H10 4245   5.284   7.124   9.071  0.1077 -0.0796  1.1115
  142bbb     C6 4246   5.152   7.492   9.232 -0.1418  0.4850  0.4065
  142bbb    H11 4247   5.096   7.435   9.308 -0.2234 -4.0048 -2.6463
  142bbb    H12 4248   5.100   7.588   9.219  1.6333  1.4771  0.3541
  142bbb     C7 4249   4.731   7.483   8.896 -0.2012  0.3085 -0.2557
  142bbb    H13 4250   4.702   7.554   8.975 -3.5749 -3.2834  2.1079
  142bbb    H14 4251   4.638   7.437   8.861 -0.2053  1.0845 -1.3216
  142bbb     C8 4252   5.287   7.533   9.298 -0.5780  0.2657  0.7697
  142bbb    H15 4253   5.353   7.578   9.223 -0.5528 -0.8185  0.1218
  142bbb    H16 4254   5.263   7.609   9.373  0.3526  1.4468 -0.0919
  142bbb     C9 4255   5.172   6.956   8.989 -0.4975  0.3495 -0.1988
  142bbb    H17 4256   5.065   6.935   8.974 -0.7302  2.1129 -1.3048
  142bbb    H18 4257   5.222   6.875   9.043  1.5360  2.5340  1.4281
  142bbb     O1 4258   4.805   7.539   8.785  0.3034 -0.5607  0.3959
  142bbb    H19 4259   5.008   7.281   9.158  1.2091  0.7679  1.1085
  143bbb     N1 4260   6.878   5.778   7.476 -0.4873  0.3053 -0.4957
  143bbb     C1 4261   6.880   5.766   7.633  0.0539 -0.0191  0.0851
  143bbb     H1 4262   6.789   5.714   7.663 -0.2912  1.2474  1.3330
  143bbb     H2 4263   6.872   5.864   7.680 -1.3083 -0.9923  2.0316
  143bbb     C2 4264   6.739   5.844   7.452  0.1926  0.8064 -0.0426
  143bbb     H3 4265   6.740   5.953   7.443 -0.8007  0.6782 -2.4474
  143bbb     H4 4266   6.674   5.826   7.537  0.7447 -2.3775 -0.1515
  143bbb     C3 4267   6.980   5.876   7.431 -0.7059  0.4098  0.4410
  143bbb     H5 4268   7.006   5.934   7.520  2.5065  1.6746 -1.1659
  143bbb     H6 4269   6.941   5.946   7.357 -1.1022  0.5741  0.8021
  143bbb     C4 4270   7.116   5.819   7.384  0.1677 -0.1513  0.7228
  143bbb     H7 4271   7.093   5.770   7.289 -1.2108  1.5536  0.1267
  143bbb     H8 4272   7.165   5.737   7.438  0.0122 -2.5650 -2.5303
  143bbb     C5 4273   6.993   5.693   7.697 -0.0612 -0.7115 -0.5086
  143bbb     H9 4274   7.084   5.750   7.676  0.4052 -1.7035 -1.2270
  143bbb    H10 4275   7.007   5.593   7.655  1.8136  0.0032 -1.7431
  143bbb     C6 4276   6.671   5.787   7.328  0.1141  0.6868 -0.2309
  143bbb    H11 4277   6.740   5.783   7.243 -2.2268  0.3578 -2.2092
  143bbb    H12 4278   6.593   5.850   7.286 -0.6545 -0.1816 -0.1550
  143bbb     C7 4279   7.217   5.934   7.342  0.4768 -0.1479  0.4211
  143bbb    H13 4280   7.319   5.894   7.335 -0.5357 -2.8019 -0.8272
  143bbb    H14 4281   7.220   6.011   7.419 -1.5290  1.1856 -0.7475
  143bbb     C8 4282   6.612   5.649   7.357  0.5819  0.7666 -0.0625
  143bbb    H15 4283   6.692   5.574   7.366 -1.4320 -1.5739 -0.5738
  143bbb    H16 4284   6.555   5.659   7.450  0.3487  0.6447 -0.1911
  143bbb     C9 4285   6.982   5.692   7.855  0.6233 -0.0925 -0.2987
  143bbb    H17 4286   6.889   5.637   7.873  1.1734 -1.1780 -0.6786
  143bbb    H18 4287   6.977   5.793   7.896 -1.6744 -0.4481  0.4356
  143bbb     O1 4288   7.174   5.995   7.217  0.0056  0.2678  0.3988
  143bbb    H19 4289   6.889   5.686   7.431 -0.1819  0.0458  0.0973
  144bbb     N1 4290   7.810   5.980   6.483  0.2309  0.2083 -0.1792
  144bbb     C1 4291   7.797   5.850   6.556 -0.6650  0.1494  0.4479
  144bbb     H1 4292   7.713   5.798   6.509  0.9963 -0.2688 -2.3175
  144bbb     H2 4293   7.767   5.878   6.657 -0.0197 -1.2432  1.0463
  144bbb     C2 4294   7.866   5.974   6.339 -0.3574  0.6147  0.7077
  144bbb     H3 4295   7.965   5.929   6.350 -0.7256  0.0012  1.5690
  144bbb     H4 4296   7.870   6.075   6.298 -0.0076  0.4335  0.2937
  144bbb     C3 4297   7.663   6.033   6.487  0.1587 -0.0741  0.1969
  144bbb     H5 4298   7.614   6.008   6.581 -0.0191  0.7999  0.3466
  144bbb     H6 4299   7.606   5.987   6.406  0.9560  0.6447 -0.8139
  144bbb     C4 4300   7.648   6.187   6.459  0.7347 -0.6143 -0.1767
  144bbb     H7 4301   7.703   6.215   6.368  0.0437 -0.2427 -0.4869
  144bbb     H8 4302   7.694   6.239   6.544 -0.1393 -0.4895  0.2216
  144bbb     C5 4303   7.920   5.753   6.561 -0.2939  0.2076 -0.1107
  144bbb     H9 4304   8.014   5.809   6.576 -0.0866 -0.0823 -0.3143
  144bbb    H10 4305   7.930   5.702   6.465 -2.8768 -1.5802  0.4962
  144bbb     C6 4306   7.800   5.890   6.226  0.1359 -0.5209  0.3359
  144bbb    H11 4307   7.694   5.916   6.217  0.6893  2.2645  1.0120
  144bbb    H12 4308   7.804   5.789   6.269 -0.6783  0.2661  2.3993
  144bbb     C7 4309   7.500   6.240   6.452  0.4453  0.4994  0.1725
  144bbb    H13 4310   7.457   6.196   6.362  0.8192 -0.1575  0.3098
  144bbb    H14 4311   7.504   6.349   6.438  0.6684  0.7936  2.2176
  144bbb     C8 4312   7.893   5.905   6.105  0.3703  0.2663 -0.8304
  144bbb    H15 4313   7.917   6.008   6.078 -1.0585  0.4829 -1.3834
  144bbb    H16 4314   7.989   5.859   6.132 -0.6150 -1.9184 -0.8238
  144bbb     C9 4315   7.903   5.649   6.675  0.0218 -0.5491 -0.6020
  144bbb    H17 4316   7.909   5.696   6.773  0.3427 -1.7915 -0.0072
  144bbb    H18 4317   7.983   5.574   6.677  2.0828  1.5088 -1.6086
  144bbb     O1 4318   7.434   6.215   6.574  0.2314  0.1270 -0.0961
  144bbb    H19 4319   7.871   6.033   6.547 -1.9549 -1.4090  3.6002
  145bbb     N1 4320   7.418   7.804   7.305  0.2377 -0.1915  0.6746
  145bbb     C1 4321   7.266   7.820   7.297  1.2597 -0.2517 -0.3684
  145bbb     H1 4322   7.231   7.792   7.396 -0.7467 -2.6268 -1.6219
  145bbb     H2 4323   7.239   7.750   7.217  0.7634  0.6972 -1.0468
  145bbb     C2 4324   7.453   7.661   7.355  0.1281 -0.0738  0.8956
  145bbb     H3 4325   7.406   7.579   7.301 -0.0076 -0.3358  1.4084
  145bbb     H4 4326   7.401   7.663   7.451 -0.2463 -3.8521  0.9105
  145bbb     C3 4327   7.475   7.831   7.164  0.7788  0.5753 -0.0840
  145bbb     H5 4328   7.398   7.874   7.099  0.6608 -0.8218 -0.9317
  145bbb     H6 4329   7.497   7.734   7.119  1.1649 -0.0776  1.4278
  145bbb     C4 4330   7.600   7.920   7.150  0.3259 -0.2923 -0.5567
  145bbb     H7 4331   7.675   7.865   7.209 -1.5309  0.1176  2.3787
  145bbb     H8 4332   7.584   8.016   7.200 -0.7543 -1.0206  0.5589
  145bbb     C5 4333   7.207   7.966   7.271  0.5764 -0.0202  0.3057
  145bbb     H9 4334   7.209   7.977   7.162 -1.7629  0.4024  0.2567
  145bbb    H10 4335   7.274   8.038   7.320 -0.4712  0.4908  1.0316
  145bbb     C6 4336   7.599   7.625   7.379  0.1376 -0.1001  0.0592
  145bbb    H11 4337   7.656   7.619   7.286 -0.1422 -0.3133 -0.1000
  145bbb    H12 4338   7.598   7.525   7.425  2.7210  0.2752  1.0718
  145bbb     C7 4339   7.648   7.923   6.997 -0.5608  0.2782  0.5146
  145bbb    H13 4340   7.747   7.971   7.005 -0.8179  1.1046 -1.0019
  145bbb    H14 4341   7.575   7.979   6.937  0.4326 -0.4136 -1.4202
  145bbb     C8 4342   7.666   7.716   7.482  0.1601  0.6195 -0.0914
  145bbb    H15 4343   7.762   7.667   7.501 -0.0575  0.3607  0.3401
  145bbb    H16 4344   7.671   7.816   7.436 -2.0899 -0.0101 -1.8970
  145bbb     C9 4345   7.058   7.974   7.319 -0.0352  0.2267  0.2016
  145bbb    H17 4346   7.044   7.912   7.409 -0.4751  3.4866  2.5252
  145bbb    H18 4347   6.995   7.928   7.242  0.5907  0.9560 -0.7608
  145bbb     O1 4348   7.648   7.791   6.946 -0.6339 -0.0880 -0.1355
  145bbb    H19 4349   7.443   7.874   7.376  0.3133 -1.6973  2.1694
  146bbb     N1 4350   8.356   7.142   6.520 -0.1028 -0.2774 -0.5130
  146bbb     C1 4351   8.473   7.049   6.493 -0.1608 -0.4323 -0.1266
  146bbb     H1 4352   8.508   7.065   6.391  0.5423 -1.9331 -0.1437
  146bbb     H2 4353   8.437   6.947   6.496 -2.1645  0.1762 -1.4493
  146bbb     C2 4354   8.276   7.156   6.397 -0.4669 -0.1051  0.7156
  146bbb     H3 4355   8.235   7.055   6.386 -0.3418 -0.2060  1.1544
  146bbb     H4 4356   8.345   7.181   6.316 -1.7914 -1.8497 -1.0628
  146bbb     C3 4357   8.266   7.094   6.634  0.1568 -0.0503 -0.5227
  146bbb     H5 4358   8.227   6.992   6.625 -0.9244  0.2026  0.8863
  146bbb     H6 4359   8.181   7.162   6.636  0.5745  0.4760  0.9467
  146bbb     C4 4360   8.328   7.102   6.774  0.0519 -0.1104 -0.5484
  146bbb     H7 4361   8.393   7.190   6.786 -1.9171  1.4605 -0.9566
  146bbb     H8 4362   8.391   7.017   6.802  0.8822  1.8487  4.9162
  146bbb     C5 4363   8.598   7.072   6.579  0.6097  0.7906  0.5045
  146bbb     H9 4364   8.568   7.061   6.684 -1.3504 -1.3569 -0.1942
  146bbb    H10 4365   8.644   7.170   6.564 -1.0823  1.3552 -1.5369
  146bbb     C6 4366   8.166   7.266   6.400 -0.3383 -0.4676 -0.2772
  146bbb    H11 4367   8.212   7.364   6.417  0.4698 -1.2126  2.2982
  146bbb    H12 4368   8.110   7.245   6.492 -0.7356 -0.9278 -0.6159
  146bbb     C7 4369   8.232   7.108   6.884  0.3661 -0.7129 -0.3114
  146bbb    H13 4370   8.285   7.136   6.975  0.0894  0.3976 -0.4715
  146bbb    H14 4371   8.190   7.007   6.891  1.6440 -1.1508  1.8065
  146bbb     C8 4372   8.077   7.277   6.273  0.4329  0.4447  0.5329
  146bbb    H15 4373   7.981   7.226   6.280 -0.2350  1.7603  1.3196
  146bbb    H16 4374   8.051   7.383   6.277  1.6989  0.8526 -1.0567
  146bbb     C9 4375   8.714   6.971   6.559  0.0951 -0.5886  0.3796
  146bbb    H17 4376   8.747   6.979   6.454  0.9738  0.3926  0.7118
  146bbb    H18 4377   8.667   6.873   6.575 -0.4198 -0.4256 -0.1022
  146bbb     O1 4378   8.126   7.207   6.866  0.0362  0.7459  0.4874
  146bbb    H19 4379   8.395   7.230   6.556 -0.8746 -1.1253  2.6862
  147bbb     N1 4380   6.249   7.905   8.509 -0.0047 -0.1461  0.2253
  147bbb     C1 4381   6.330   8.013   8.443  1.1486 -0.5278 -0.1066
  147bbb     H1 4382   6.324   7.995   8.336  0.5376  0.5372 -0.2678
  147bbb     H2 4383   6.432   7.999   8.477  0.5825 -0.8156  1.6237
  147bbb     C2 4384   6.230   7.923   8.662  0.1671  0.4072  0.4402
  147bbb     H3 4385   6.177   7.839   8.708  0.0409  1.0683  1.5374
  147bbb     H4 4386   6.183   8.020   8.683  3.8949  2.3540  0.5577
  147bbb     C3 4387   6.106   7.892   8.448  0.0562  0.0437  0.2780
  147bbb     H5 4388   6.126   7.890   8.341 -2.0701 -0.2730 -0.1444
  147bbb     H6 4389   6.047   7.982   8.463 -1.1206 -0.6809  0.0684
  147bbb     C4 4390   6.019   7.763   8.486 -0.4695 -0.9478 -0.2925
  147bbb     H7 4391   5.985   7.782   8.589  0.3069 -0.9186 -0.0385
  147bbb     H8 4392   6.073   7.670   8.503 -0.2872 -0.5284  1.7236
  147bbb     C5 4393   6.287   8.157   8.472  0.3350 -0.7935 -0.1769
  147bbb     H9 4394   6.276   8.163   8.580 -2.1030  0.6685 -0.4370
  147bbb    H10 4395   6.184   8.175   8.441  0.5470 -0.1510 -0.5343
  147bbb     C6 4396   6.360   7.923   8.745 -0.5011 -0.0019  0.0861
  147bbb    H11 4397   6.405   8.022   8.734  1.4248 -0.5202  2.3845
  147bbb    H12 4398   6.435   7.857   8.700  0.1774 -0.9334  2.4473
  147bbb     C7 4399   5.906   7.734   8.388 -0.3800 -0.0564 -0.4839
  147bbb    H13 4400   5.844   7.825   8.387 -0.0303  0.2754  1.7772
  147bbb    H14 4401   5.842   7.652   8.425  1.9795 -2.4450 -1.4003
  147bbb     C8 4402   6.344   7.892   8.902 -0.7465  0.0670 -0.5139
  147bbb    H15 4403   6.436   7.923   8.953 -1.3750 -0.0919  0.7368
  147bbb    H16 4404   6.262   7.953   8.940  0.1411  1.2891 -0.4745
  147bbb     C9 4405   6.371   8.267   8.412 -0.8068  0.0026 -0.7571
  147bbb    H17 4406   6.311   8.356   8.388 -0.5397 -0.4542 -3.4769
  147bbb    H18 4407   6.407   8.237   8.313  0.0303  0.4677 -0.5971
  147bbb     O1 4408   5.956   7.699   8.259  0.1369  0.3312 -0.1523
  147bbb    H19 4409   6.295   7.814   8.492  1.6734  0.1696  2.5453
  148bbb     N1 4410   5.800   7.782   7.485 -0.4262 -0.4384 -0.0702
  148bbb     C1 4411   5.788   7.814   7.337  0.0935  0.2245  0.2647
  148bbb     H1 4412   5.715   7.895   7.328  1.3844  1.3328 -0.5780
  148bbb     H2 4413   5.756   7.722   7.289  1.8470  0.4840 -1.5692
  148bbb     C2 4414   5.660   7.777   7.542 -0.2135 -0.0741 -0.1312
  148bbb     H3 4415   5.608   7.694   7.495  0.9449 -1.5339  1.0796
  148bbb     H4 4416   5.606   7.865   7.506  0.0642 -0.6903 -2.1736
  148bbb     C3 4417   5.877   7.652   7.515 -0.0698  0.5602  0.0641
  148bbb     H5 4418   5.892   7.648   7.623  1.0539  0.8315 -0.0740
  148bbb     H6 4419   5.978   7.669   7.479 -0.4279  1.5324 -0.5366
  148bbb     C4 4420   5.805   7.529   7.459 -0.2434  0.1410 -0.2790
  148bbb     H7 4421   5.801   7.538   7.350 -3.0797  0.2579 -0.2519
  148bbb     H8 4422   5.706   7.523   7.507  0.4890  0.3326  1.3466
  148bbb     C5 4423   5.919   7.861   7.263  0.6419  0.3025  0.4731
  148bbb     H9 4424   6.002   7.790   7.272 -0.2856 -0.8075  0.3594
  148bbb    H10 4425   5.954   7.948   7.320  0.4930  0.6386  0.0535
  148bbb     C6 4426   5.649   7.762   7.692  0.2617 -0.0743 -0.8089
  148bbb    H11 4427   5.721   7.831   7.738 -0.7860 -0.4336  1.5229
  148bbb    H12 4428   5.676   7.659   7.716 -1.4652  0.0390  2.0383
  148bbb     C7 4429   5.891   7.404   7.499 -0.0614 -0.1241 -0.4159
  148bbb    H13 4430   5.989   7.423   7.454  0.4511 -2.9497 -0.6570
  148bbb    H14 4431   5.846   7.314   7.457  0.8600  0.0708 -1.8920
  148bbb     C8 4432   5.502   7.786   7.747  0.2754 -0.2709 -0.0137
  148bbb    H15 4433   5.501   7.769   7.855  1.7386  1.3464  0.3051
  148bbb    H16 4434   5.467   7.888   7.729 -0.8934 -0.3457  1.6637
  148bbb     C9 4435   5.894   7.896   7.118  0.2158 -0.1802 -0.3502
  148bbb    H17 4436   5.866   7.800   7.072 -1.9018  0.1586  0.1319
  148bbb    H18 4437   5.983   7.942   7.072 -1.0498  2.5958 -0.2008
  148bbb     O1 4438   5.903   7.384   7.643  0.3606  0.8635  0.7651
  148bbb    H19 4439   5.854   7.856   7.532 -1.6299  0.9330 -0.7505
  149bbb     N1 4440   7.991   6.725   8.140  0.1862  0.1994 -0.4220
  149bbb     C1 4441   8.097   6.650   8.225  0.2433 -0.1037  0.2872
  149bbb     H1 4442   8.194   6.682   8.186  1.4130 -1.1312  2.1970
  149bbb     H2 4443   8.090   6.542   8.213 -0.0095  0.1660 -2.8731
  149bbb     C2 4444   8.006   6.685   7.989 -0.8176 -0.3341 -0.2088
  149bbb     H3 4445   8.087   6.732   7.934 -1.8612  1.6476 -0.1254
  149bbb     H4 4446   7.928   6.738   7.934  0.3586  1.4722 -0.2230
  149bbb     C3 4447   7.847   6.702   8.181 -0.1039  0.3176 -0.7424
  149bbb     H5 4448   7.854   6.705   8.290 -0.2174 -0.3381 -0.7138
  149bbb     H6 4449   7.839   6.599   8.148  2.7162  0.3236 -1.6593
  149bbb     C4 4450   7.747   6.790   8.111  0.3679 -0.0368  0.1563
  149bbb     H7 4451   7.730   6.764   8.006 -3.0035 -1.8815  1.0213
  149bbb     H8 4452   7.786   6.892   8.117 -1.3920  0.6280  0.8456
  149bbb     C5 4453   8.093   6.688   8.370 -0.3193  0.2688  0.0302
  149bbb     H9 4454   7.999   6.653   8.413  0.2534 -0.8174  0.4519
  149bbb    H10 4455   8.087   6.797   8.380  2.8055  0.4618  1.1055
  149bbb     C6 4456   8.009   6.527   7.965 -0.0908 -0.9368  0.3142
  149bbb    H11 4457   7.950   6.474   8.041  0.3362  1.0410  2.1293
  149bbb    H12 4458   8.113   6.494   7.978  0.6090  0.6524 -0.9542
  149bbb     C7 4459   7.603   6.790   8.172 -0.3065 -0.2871 -0.4799
  149bbb    H13 4460   7.568   6.687   8.187 -0.3358 -0.1895  0.1393
  149bbb    H14 4461   7.529   6.832   8.102 -1.7411 -1.7709  0.0832
  149bbb     C8 4462   7.952   6.491   7.829 -0.3523  0.2053  0.2572
  149bbb    H15 4463   7.963   6.384   7.811  4.1830  0.5011  0.2494
  149bbb    H16 4464   7.846   6.519   7.815  0.1124  1.9192 -0.0819
  149bbb     C9 4465   8.217   6.638   8.454  0.1149 -0.3750  0.3289
  149bbb    H17 4466   8.216   6.530   8.433 -1.0773 -0.0325 -1.5874
  149bbb    H18 4467   8.204   6.653   8.562  2.0488  0.2126  0.5162
  149bbb     O1 4468   7.583   6.870   8.298  0.3762 -0.6908  0.6103
  149bbb    H19 4469   8.018   6.824   8.152  0.7875 -0.1139  1.0335
  150bbb     N1 4470   7.057   6.648   9.004 -0.3812 -0.0328 -0.4089
  150bbb     C1 4471   6.927   6.668   9.089 -0.2342 -0.2623 -0.6193
  150bbb     H1 4472   6.940   6.604   9.177  1.2170  0.7218 -0.0743
  150bbb     H2 4473   6.848   6.617   9.035  1.6387 -2.9747 -0.9901
  150bbb     C2 4474   7.138   6.530   9.050 -0.0794  0.2793 -0.4422
  150bbb     H3 4475   7.131   6.528   9.159 -2.3647  1.7283 -0.5025
  150bbb     H4 4476   7.239   6.551   9.015 -0.7011  1.9051 -1.3471
  150bbb     C3 4477   7.006   6.645   8.859  0.8069 -0.0791 -0.0212
  150bbb     H5 4478   6.925   6.572   8.852  1.6970 -1.0352 -0.7170
  150bbb     H6 4479   7.084   6.614   8.789  0.1809 -0.9017 -0.3701
  150bbb     C4 4480   6.966   6.786   8.797  0.3008 -0.0865 -0.0909
  150bbb     H7 4481   6.878   6.818   8.854  0.1428  0.0998 -0.4358
  150bbb     H8 4482   6.936   6.758   8.695  1.4267  1.4089 -0.8693
  150bbb     C5 4483   6.904   6.805   9.148  0.4880 -0.4655 -0.0490
  150bbb     H9 4484   6.900   6.874   9.063 -0.0404 -0.1954  0.1913
  150bbb    H10 4485   6.988   6.845   9.205 -0.6151 -1.3859  2.3708
  150bbb     C6 4486   7.091   6.390   9.001  0.6206  0.1621  0.1974
  150bbb    H11 4487   7.085   6.369   8.894  0.1177  0.9944  0.0517
  150bbb    H12 4488   6.987   6.374   9.032  0.7081  0.7061  0.7748
  150bbb     C7 4489   7.072   6.902   8.798 -0.3658 -0.4815  0.1387
  150bbb    H13 4490   7.173   6.857   8.797 -0.3132 -0.4651 -3.1001
  150bbb    H14 4491   7.055   6.960   8.890 -0.9337  0.5248 -0.5891
  150bbb     C8 4492   7.181   6.278   9.065  0.7453  0.2847  0.3059
  150bbb    H15 4493   7.176   6.293   9.174 -0.4546  2.7377 -0.0128
  150bbb    H16 4494   7.133   6.181   9.048  0.6035  0.3466  0.3445
  150bbb     C9 4495   6.764   6.821   9.221 -0.0041 -0.2510  0.4926
  150bbb    H17 4496   6.761   6.907   9.289 -1.5985 -0.3277  0.5747
  150bbb    H18 4497   6.767   6.730   9.282  1.2566 -0.0643  0.7242
  150bbb     O1 4498   7.050   6.979   8.678  0.0217 -0.4555  0.0813
  150bbb    H19 4499   7.114   6.733   9.018 -2.0045  1.4079 -2.0055
  151bbb     N1 4500   6.935   7.365   5.785  0.1718  0.3030  0.1497
  151bbb     C1 4501   6.907   7.227   5.844 -0.0755  0.1544  0.0280
  151bbb     H1 4502   6.923   7.236   5.951 -0.8256 -0.5276  0.2125
  151bbb     H2 4503   6.980   7.156   5.806  0.0226 -0.3277  1.0911
  151bbb     C2 4504   7.050   7.426   5.860  0.6867  0.0860  0.3576
  151bbb     H3 4505   7.081   7.511   5.800 -0.4879  0.7350  0.6491
  151bbb     H4 4506   7.137   7.364   5.838  0.7924  0.6136 -0.8037
  151bbb     C3 4507   6.956   7.369   5.631  0.5513 -0.5441 -0.0355
  151bbb     H5 4508   6.890   7.304   5.573 -0.7825  1.2271 -0.5798
  151bbb     H6 4509   7.057   7.337   5.604  0.4849 -1.8069  1.0738
  151bbb     C4 4510   6.942   7.518   5.580  0.5232  0.2587  0.5546
  151bbb     H7 4511   7.009   7.589   5.629 -0.3267  0.4977  1.4045
  151bbb     H8 4512   6.843   7.558   5.606 -0.8390 -1.1911 -1.9241
  151bbb     C5 4513   6.759   7.185   5.837  0.4559  0.1469 -0.2592
  151bbb     H9 4514   6.740   7.132   5.743  1.6430 -3.0858  1.1826
  151bbb    H10 4515   6.705   7.281   5.843  1.0647  0.6285 -1.9398
  151bbb     C6 4516   7.028   7.468   6.006 -0.2352 -0.1441  0.3016
  151bbb    H11 4517   6.951   7.409   6.058  1.0812 -1.7162  0.5371
  151bbb    H12 4518   6.991   7.571   6.013 -1.8384 -0.6093 -0.7196
  151bbb     C7 4519   6.960   7.525   5.431 -0.8028  0.4770  0.4639
  151bbb    H13 4520   7.052   7.477   5.397 -1.7738 -0.6178 -0.7663
  151bbb    H14 4521   6.957   7.631   5.403 -1.5519  0.6893  1.2954
  151bbb     C8 4522   7.152   7.457   6.104  0.5937 -0.1435  0.0537
  151bbb    H15 4523   7.134   7.511   6.197  0.9333  0.6715 -0.3401
  151bbb    H16 4524   7.162   7.354   6.139  1.3989 -0.2136 -0.3509
  151bbb     C9 4525   6.713   7.092   5.954 -0.2501  0.5020  0.0497
  151bbb    H17 4526   6.763   6.996   5.935  0.0305  0.6997 -0.2229
  151bbb    H18 4527   6.607   7.064   5.952 -0.4384  1.1802  0.3543
  151bbb     O1 4528   6.840   7.458   5.378 -0.1262  0.2042  0.3776
  151bbb    H19 4529   6.856   7.428   5.804  0.5190  0.8775 -0.2697
  152bbb     N1 4530   6.758   7.579   4.413 -0.2737  0.5635 -0.3169
  152bbb     C1 4531   6.703   7.467   4.328  0.4652 -0.6830 -0.5859
  152bbb     H1 4532   6.783   7.410   4.281  0.6661 -0.5554 -0.3957
  152bbb     H2 4533   6.635   7.511   4.255  0.4582  1.0297  0.3959
  152bbb     C2 4534   6.865   7.660   4.338 -0.1910  0.1111  0.0621
  152bbb     H3 4535   6.941   7.583   4.330 -1.4342 -1.2508  0.8012
  152bbb     H4 4536   6.898   7.738   4.407 -0.9595 -0.6789  1.3663
  152bbb     C3 4537   6.648   7.672   4.461  0.7601 -0.4643 -0.7747
  152bbb     H5 4538   6.588   7.611   4.528  0.7483  2.1448  1.7525
  152bbb     H6 4539   6.599   7.697   4.366  2.6710 -1.1309 -1.9915
  152bbb     C4 4540   6.665   7.803   4.544  0.7722 -0.4698  0.7288
  152bbb     H7 4541   6.584   7.874   4.525  1.1649 -0.5282 -1.4568
  152bbb     H8 4542   6.765   7.846   4.530  0.8597 -0.6431  0.8131
  152bbb     C5 4543   6.625   7.357   4.402  0.1279  0.4613  0.1523
  152bbb     H9 4544   6.524   7.389   4.431  0.0495  0.2187  0.1478
  152bbb    H10 4545   6.686   7.340   4.492 -1.0617  2.6728  1.4861
  152bbb     C6 4546   6.822   7.720   4.196 -0.3982 -0.6253 -0.8339
  152bbb    H11 4547   6.738   7.790   4.197  1.7977  2.1829 -1.6698
  152bbb    H12 4548   6.805   7.636   4.127  0.8403 -1.1696 -0.5033
  152bbb     C7 4549   6.668   7.780   4.693  0.1638 -0.0356 -0.2985
  152bbb    H13 4550   6.682   7.868   4.757 -1.9199 -0.0529  0.2326
  152bbb    H14 4551   6.753   7.717   4.723  0.1908 -1.2441 -2.6874
  152bbb     C8 4552   6.948   7.789   4.130  0.0387 -0.2627  0.0287
  152bbb    H15 4553   7.018   7.830   4.204 -0.5221 -0.3299  0.6119
  152bbb    H16 4554   7.004   7.719   4.067  0.1651  1.4336 -1.8361
  152bbb     C9 4555   6.616   7.236   4.311 -0.6742  0.0578 -0.0624
  152bbb    H17 4556   6.560   7.252   4.218 -0.9871 -1.6442 -0.1992
  152bbb    H18 4557   6.555   7.160   4.361  0.8377  0.2983  2.2960
  152bbb     O1 4558   6.541   7.715   4.739  0.0408  0.2724 -0.2140
  152bbb    H19 4559   6.807   7.540   4.495 -0.2603  1.0668 -0.0869
  153bbb     N1 4560   6.376   6.051   5.183 -0.6415 -0.2515  0.5694
  153bbb     C1 4561   6.488   5.947   5.223 -0.1197 -0.7223 -0.7531
  153bbb     H1 4562   6.479   5.861   5.156  0.2506 -1.5158  0.1888
  153bbb     H2 4563   6.470   5.918   5.326  0.8247  0.3165 -0.2773
  153bbb     C2 4564   6.362   6.049   5.027 -0.1170  0.1682  0.7294
  153bbb     H3 4565   6.325   5.950   5.001  1.3431 -0.3784  0.5930
  153bbb     H4 4566   6.465   6.054   4.989  0.1935 -0.4478  1.4590
  153bbb     C3 4567   6.240   6.018   5.245  0.2018  0.1187 -1.0547
  153bbb     H5 4568   6.157   6.072   5.198 -1.0723  0.0111  0.9681
  153bbb     H6 4569   6.235   6.052   5.348 -1.0358  0.5382 -1.2377
  153bbb     C4 4570   6.202   5.867   5.240 -0.7775  0.0491  0.6321
  153bbb     H7 4571   6.253   5.817   5.323  0.1782  0.4515  0.2996
  153bbb     H8 4572   6.235   5.816   5.149 -1.7401 -0.6297  0.6435
  153bbb     C5 4573   6.636   5.998   5.230 -0.4102 -0.2709 -0.8511
  153bbb     H9 4574   6.683   6.004   5.131  2.2990  0.6725  0.3872
  153bbb    H10 4575   6.697   5.928   5.289 -0.2419  0.1776 -0.4875
  153bbb     C6 4576   6.258   6.155   4.976 -0.6999  0.1054  0.1509
  153bbb    H11 4577   6.293   6.251   5.017  0.9208 -1.3853  2.5656
  153bbb    H12 4578   6.154   6.151   5.014 -0.2672  0.9399  1.5029
  153bbb     C7 4579   6.051   5.841   5.250  0.6845 -0.0032 -0.4305
  153bbb    H13 4580   6.017   5.856   5.353  0.6518  1.4960 -0.6463
  153bbb    H14 4581   6.027   5.739   5.219 -1.1950  0.7132 -1.4740
  153bbb     C8 4582   6.257   6.167   4.824  0.6536 -0.0938  0.6003
  153bbb    H15 4583   6.190   6.241   4.779  4.4766  2.5552 -1.3837
  153bbb    H16 4584   6.362   6.188   4.798  0.1249  2.5245  0.3772
  153bbb     C9 4585   6.659   6.134   5.304 -0.0501 -0.0471  0.0277
  153bbb    H17 4586   6.612   6.152   5.401 -3.0219 -0.3448 -1.2245
  153bbb    H18 4587   6.616   6.210   5.237  2.3286 -0.5618 -2.2645
  153bbb     O1 4588   5.972   5.929   5.165  0.1500  0.1458 -0.6389
  153bbb    H19 4589   6.414   6.145   5.199 -0.4462 -0.2303 -0.0211
  154bbb     N1 4590   5.682   5.659   5.804 -0.1144 -0.3538  0.5551
  154bbb     C1 4591   5.791   5.554   5.835  0.4219  0.1095 -0.0900
  154bbb     H1 4592   5.880   5.586   5.780  0.9446  2.4056  1.8872
  154bbb     H2 4593   5.769   5.462   5.781 -0.3596  1.0463 -1.4435
  154bbb     C2 4594   5.558   5.644   5.905 -0.6712  0.1072  0.1401
  154bbb     H3 4595   5.511   5.742   5.907  1.5091  1.2076  1.0185
  154bbb     H4 4596   5.601   5.637   6.005  1.0180 -1.0744 -0.6297
  154bbb     C3 4597   5.748   5.802   5.810  0.0062  0.0023  0.0787
  154bbb     H5 4598   5.825   5.798   5.733 -1.4903  1.3598 -1.5811
  154bbb     H6 4599   5.785   5.808   5.912 -0.5864  1.4331  0.2446
  154bbb     C4 4600   5.642   5.908   5.787  0.5793 -0.7179 -0.0399
  154bbb     H7 4601   5.562   5.923   5.860 -0.4867 -0.9227 -1.1200
  154bbb     H8 4602   5.586   5.894   5.694 -1.2938  0.1832  0.9037
  154bbb     C5 4603   5.841   5.549   5.980  0.0188  0.3836 -0.4013
  154bbb     H9 4604   5.756   5.536   6.048 -0.0182  1.7531 -0.1518
  154bbb    H10 4605   5.888   5.643   6.012  0.5493 -0.0620  0.1448
  154bbb     C6 4606   5.463   5.526   5.895  0.0890  0.5921  0.2977
  154bbb    H11 4607   5.514   5.430   5.905 -1.7555 -0.4681  0.0704
  154bbb    H12 4608   5.410   5.525   5.798  2.5812  1.0615 -1.1634
  154bbb     C7 4609   5.712   6.048   5.766  0.4419  0.1465  0.0923
  154bbb    H13 4610   5.815   6.024   5.737  0.1213 -1.1814  0.0258
  154bbb    H14 4611   5.707   6.092   5.866  1.8647  0.1202  0.1939
  154bbb     C8 4612   5.371   5.527   6.022  0.1310 -0.2721 -0.4450
  154bbb    H15 4613   5.440   5.538   6.107  0.0131  1.3316 -0.5291
  154bbb    H16 4614   5.313   5.620   6.018 -0.1058 -0.3304  1.0499
  154bbb     C9 4615   5.950   5.439   6.005  0.4539  0.9849 -0.4346
  154bbb    H17 4616   5.983   5.425   6.109  0.0198 -2.6634 -0.6581
  154bbb    H18 4617   6.035   5.477   5.947  1.0797  0.3172  0.0190
  154bbb     O1 4618   5.629   6.136   5.675 -0.8111 -0.2017  0.3403
  154bbb    H19 4619   5.640   5.662   5.710 -0.1841  2.5553  0.5766
  155bbb     N1 4620   4.912   8.736   4.613  0.4853 -0.0579 -1.1242
  155bbb     C1 4621   5.062   8.746   4.604  0.1192  0.0583  0.1904
  155bbb     H1 4622   5.098   8.700   4.512  0.1168  0.0690  0.1842
  155bbb     H2 4623   5.102   8.692   4.690 -1.3247  0.4835  1.1737
  155bbb     C2 4624   4.841   8.791   4.491 -0.5238  0.5958 -0.3135
  155bbb     H3 4625   4.862   8.898   4.483 -1.5615  0.7126 -1.9443
  155bbb     H4 4626   4.736   8.787   4.519 -0.6809  0.0948 -0.9492
  155bbb     C3 4627   4.858   8.591   4.639  0.0179  0.3382  0.1522
  155bbb     H5 4628   4.897   8.523   4.563  0.2071 -1.0144  1.4053
  155bbb     H6 4629   4.750   8.599   4.628  0.1208  0.9017 -0.4731
  155bbb     C4 4630   4.891   8.529   4.783  0.7937  0.0241 -0.8845
  155bbb     H7 4631   4.834   8.582   4.861  3.5710 -0.1388  1.4116
  155bbb     H8 4632   4.996   8.546   4.809  0.8676 -1.4993 -0.0619
  155bbb     C5 4633   5.124   8.888   4.600  0.3415  0.0752  0.2126
  155bbb     H9 4634   5.096   8.943   4.691 -0.5432 -2.0769  1.3299
  155bbb    H10 4635   5.093   8.950   4.516 -1.1493 -0.8245  0.0734
  155bbb     C6 4636   4.877   8.722   4.356  0.4488  0.3551 -0.3476
  155bbb    H11 4637   4.868   8.614   4.368  1.8583  0.1953 -0.5314
  155bbb    H12 4638   4.978   8.750   4.322 -0.2556  2.1029 -1.1137
  155bbb     C7 4639   4.868   8.375   4.792  0.3292 -0.1739 -0.2418
  155bbb    H13 4640   4.953   8.341   4.731 -0.2254 -1.9642 -0.0848
  155bbb    H14 4641   4.775   8.353   4.738 -1.7094  2.5001  1.9022
  155bbb     C8 4642   4.792   8.760   4.239  0.3874 -0.6327 -0.3254
  155bbb    H15 4643   4.797   8.867   4.213 -0.4807 -0.4711  0.1235
  155bbb    H16 4644   4.825   8.710   4.148 -1.1964 -1.5389 -0.4363
  155bbb     C9 4645   5.280   8.893   4.594 -0.2918 -0.5474  0.2268
  155bbb    H17 4646   5.333   8.853   4.681 -0.2139  0.0721  0.4674
  155bbb    H18 4647   5.309   8.998   4.585 -0.2720 -0.6889 -2.0458
  155bbb     O1 4648   4.862   8.320   4.930  0.5423  0.2511  0.1412
  155bbb    H19 4649   4.887   8.794   4.694 -2.4631 -1.5472 -0.8553
  156bbb     N1 4650   4.635   7.448   5.062 -0.0155 -0.2890  0.2396
  156bbb     C1 4651   4.772   7.382   5.028  1.2288  0.2959 -0.7673
  156bbb     H1 4652   4.814   7.448   4.953  1.1232  0.6582 -0.5099
  156bbb     H2 4653   4.746   7.286   4.984  0.7909  0.3960 -0.7336
  156bbb     C2 4654   4.569   7.387   5.187  0.6072  0.6935  0.2059
  156bbb     H3 4655   4.473   7.436   5.206 -0.2089 -0.4891 -0.6870
  156bbb     H4 4656   4.635   7.406   5.271 -0.0249 -0.0424  0.8852
  156bbb     C3 4657   4.655   7.596   5.091 -0.3558 -0.4110  0.2926
  156bbb     H5 4658   4.752   7.631   5.056  0.1077  1.2692  2.9291
  156bbb     H6 4659   4.652   7.610   5.199  0.1661  3.3388 -0.0431
  156bbb     C4 4660   4.538   7.674   5.035 -0.0936  0.1276 -0.0375
  156bbb     H7 4661   4.441   7.674   5.087  0.4802  2.3992  1.1845
  156bbb     H8 4662   4.526   7.650   4.929  1.0644 -3.2107  0.4550
  156bbb     C5 4663   4.869   7.383   5.149 -0.5948  0.4423  0.1856
  156bbb     H9 4664   4.838   7.322   5.234  1.8087  0.0973  0.8727
  156bbb    H10 4665   4.868   7.485   5.189 -0.5610  0.5563 -0.0974
  156bbb     C6 4666   4.535   7.238   5.179  0.5143  0.0572  0.4390
  156bbb    H11 4667   4.615   7.180   5.132 -0.1545  0.5909 -1.4370
  156bbb    H12 4668   4.452   7.221   5.110 -0.4764  1.3825  1.2396
  156bbb     C7 4669   4.564   7.824   5.037  0.8174 -0.2112 -0.3884
  156bbb    H13 4670   4.504   7.887   4.969  1.4241  0.3288 -0.4347
  156bbb    H14 4671   4.659   7.832   4.983  0.9784  0.0987 -0.0601
  156bbb     C8 4672   4.496   7.176   5.313 -0.4016  0.0767  1.1635
  156bbb    H15 4673   4.508   7.067   5.311  0.3478  0.1533 -0.9833
  156bbb    H16 4674   4.566   7.205   5.392  1.7645 -0.1540 -0.5800
  156bbb     C9 4675   5.012   7.337   5.123  0.5725 -0.0975 -0.1954
  156bbb    H17 4676   5.016   7.232   5.093  0.3914  0.5375 -2.6289
  156bbb    H18 4677   5.070   7.365   5.212 -2.3757  2.6242  1.0524
  156bbb     O1 4678   4.566   7.870   5.171 -0.5472 -0.0760  0.5375
  156bbb    H19 4679   4.570   7.435   4.983  0.0660  1.2527 -0.1077
  157bbb     N1 4680   6.284   8.932   6.199 -0.1741  0.8252 -0.7861
  157bbb     C1 4681   6.220   8.954   6.341  0.4808  0.3532  0.3178
  157bbb     H1 4682   6.124   8.902   6.338 -0.9269  2.8100 -0.1765
  157bbb     H2 4683   6.194   9.060   6.343  0.7384  0.4369 -0.3284
  157bbb     C2 4684   6.320   8.788   6.174 -0.6346 -0.1571 -0.3408
  157bbb     H3 4685   6.230   8.730   6.192 -1.0527  0.8474  1.0248
  157bbb     H4 4686   6.391   8.761   6.253  1.0841  3.4187 -0.4500
  157bbb     C3 4687   6.176   8.973   6.098 -0.6040 -0.6846  0.8776
  157bbb     H5 4688   6.089   8.909   6.114 -0.3774 -1.3250 -0.3750
  157bbb     H6 4689   6.210   8.963   5.995 -1.7850 -0.2280  0.4263
  157bbb     C4 4690   6.125   9.119   6.107 -0.1522 -0.4957 -0.1608
  157bbb     H7 4691   6.203   9.194   6.095 -1.2257  0.4768 -1.3049
  157bbb     H8 4692   6.084   9.146   6.206 -0.6458  0.1014 -0.5191
  157bbb     C5 4693   6.310   8.923   6.463 -0.0041  0.2660 -0.0231
  157bbb     H9 4694   6.393   8.993   6.459  0.8041 -0.6936 -0.5576
  157bbb    H10 4695   6.347   8.820   6.455  0.6288  0.5202 -0.4105
  157bbb     C6 4696   6.381   8.759   6.031 -0.0362  0.9353 -0.4067
  157bbb    H11 4697   6.469   8.822   6.013  0.2446  1.0745  1.2641
  157bbb    H12 4698   6.302   8.773   5.957  0.1921 -0.3554 -0.9251
  157bbb     C7 4699   6.021   9.143   6.003  0.2935  0.0789 -0.5605
  157bbb    H13 4700   6.068   9.131   5.904 -0.2375 -2.9595 -0.5502
  157bbb    H14 4701   5.987   9.247   6.003 -3.5237 -1.0162 -1.7057
  157bbb     C8 4702   6.402   8.611   6.007 -0.2077 -0.0718 -0.1996
  157bbb    H15 4703   6.316   8.549   6.036  0.5638 -1.1553 -0.1804
  157bbb    H16 4704   6.407   8.591   5.899 -0.5952 -2.4606  0.1637
  157bbb     C9 4705   6.225   8.930   6.589  0.8597 -0.4868  0.7569
  157bbb    H17 4706   6.173   9.027   6.595  0.6559 -0.6268  1.2914
  157bbb    H18 4707   6.292   8.922   6.675  1.4448  3.6517  0.8906
  157bbb     O1 4708   5.900   9.073   6.026  0.0824 -0.3558 -0.0721
  157bbb    H19 4709   6.360   9.001   6.193  0.8195 -0.3467 -3.2208
  158bbb     N1 4710   5.235   9.706   5.843 -0.0288  0.2483  0.0965
  158bbb     C1 4711   5.233   9.672   5.993  0.1309  0.7403  0.1085
  158bbb     H1 4712   5.323   9.617   6.022  0.4441  0.2587 -1.6831
  158bbb     H2 4713   5.149   9.604   6.006 -0.7641  1.8414  0.2947
  158bbb     C2 4714   5.362   9.788   5.809  0.1230 -0.9927  0.5442
  158bbb     H3 4715   5.375   9.872   5.877  0.9127 -0.9365  0.3376
  158bbb     H4 4716   5.353   9.835   5.711 -1.1093  0.8634  1.4897
  158bbb     C3 4717   5.236   9.578   5.767  0.0771 -0.1349  1.1093
  158bbb     H5 4718   5.311   9.510   5.806  0.0521 -1.6952 -1.3557
  158bbb     H6 4719   5.270   9.603   5.667  1.5105 -0.8927  1.3809
  158bbb     C4 4720   5.105   9.504   5.755 -0.4460  0.3096 -0.2754
  158bbb     H7 4721   5.029   9.583   5.754 -0.1608  0.5865 -0.2562
  158bbb     H8 4722   5.094   9.450   5.849  1.0807 -1.4229 -1.0240
  158bbb     C5 4723   5.212   9.784   6.095  0.6375  1.3793 -0.0567
  158bbb     H9 4724   5.298   9.851   6.109 -0.5063  2.2696  3.9263
  158bbb    H10 4725   5.203   9.740   6.195  0.7297  1.6258  0.0594
  158bbb     C6 4726   5.499   9.718   5.817  0.9950  0.9169 -0.3036
  158bbb    H11 4727   5.489   9.626   5.758 -2.7246  0.2021  1.1822
  158bbb    H12 4728   5.523   9.705   5.923  1.2951  2.4573 -0.1515
  158bbb     C7 4729   5.094   9.401   5.641 -0.4401 -0.7833  0.5417
  158bbb    H13 4730   5.103   9.462   5.550  2.2043  0.6702  1.6581
  158bbb    H14 4731   5.005   9.337   5.643  1.3188 -3.6271 -2.4621
  158bbb     C8 4732   5.608   9.803   5.757  0.8278  0.1737  1.2303
  158bbb    H15 4733   5.628   9.884   5.828  2.0111  1.9889 -1.0756
  158bbb    H16 4734   5.701   9.745   5.751  1.5459  1.4345 -3.5604
  158bbb     C9 4735   5.080   9.867   6.085 -0.7058  0.0204  0.4434
  158bbb    H17 4736   4.999   9.799   6.055 -1.4964  0.4829  1.4544
  158bbb    H18 4737   5.097   9.949   6.015  0.7018 -0.4017  0.2645
  158bbb     O1 4738   5.210   9.318   5.648  0.2370 -0.2784 -0.2925
  158bbb    H19 4739   5.152   9.762   5.819 -0.2493 -0.3934 -0.6898
  159bbb     N1 4740   5.621   3.107   7.047 -0.1798  0.5525 -0.1448
  159bbb     C1 4741   5.625   3.254   6.999 -0.0428  0.3095 -0.0025
  159bbb     H1 4742   5.608   3.312   7.090 -1.5520 -1.4206  0.8838
  159bbb     H2 4743   5.556   3.277   6.918  1.4371  0.2142 -1.3552
  159bbb     C2 4744   5.658   3.020   6.933  0.4363  0.2768 -0.1238
  159bbb     H3 4745   5.761   3.048   6.912  1.0005 -0.1847  1.8538
  159bbb     H4 4746   5.593   3.061   6.855  0.8554  1.8496  0.3298
  159bbb     C3 4747   5.708   3.077   7.168 -0.0845  0.5798  0.7833
  159bbb     H5 4748   5.795   3.140   7.149  0.8140 -0.9310 -0.3262
  159bbb     H6 4749   5.746   2.975   7.156  1.2665  0.8717  2.2135
  159bbb     C4 4750   5.669   3.101   7.307  0.5425 -0.2800  0.2297
  159bbb     H7 4751   5.625   3.201   7.319 -2.1647 -1.5267  1.5282
  159bbb     H8 4752   5.759   3.106   7.370  1.5518  1.1438 -1.2428
  159bbb     C5 4753   5.754   3.295   6.927  0.0759  0.4395  0.0686
  159bbb     H9 4754   5.761   3.243   6.831 -0.5733  1.8069 -0.7558
  159bbb    H10 4755   5.842   3.265   6.985  0.8323  0.3460 -1.0783
  159bbb     C6 4756   5.647   2.865   6.935 -0.4190 -0.8905  0.1910
  159bbb    H11 4757   5.545   2.841   6.967 -0.9135  0.1463 -0.5327
  159bbb    H12 4758   5.713   2.831   7.016 -1.4311 -2.4145  0.4370
  159bbb     C7 4759   5.561   3.006   7.361 -0.6496 -0.4051  0.0074
  159bbb    H13 4760   5.474   3.007   7.293 -1.1581  1.8511  0.6136
  159bbb    H14 4761   5.522   3.040   7.458 -1.6058 -0.8768 -0.2004
  159bbb     C8 4762   5.682   2.808   6.791 -0.6177  0.4346  0.1669
  159bbb    H15 4763   5.777   2.844   6.750 -0.4801  1.8107  1.5753
  159bbb    H16 4764   5.686   2.699   6.798 -2.0220  0.4131  1.2486
  159bbb     C9 4765   5.744   3.444   6.897  0.0302 -0.1184 -0.3480
  159bbb    H17 4766   5.645   3.464   6.854 -0.2634 -0.1516  0.2936
  159bbb    H18 4767   5.830   3.479   6.838  0.6259  2.3197  1.7630
  159bbb     O1 4768   5.614   2.878   7.371 -0.3660 -0.4293  0.1771
  159bbb    H19 4769   5.528   3.089   7.087  1.1177  0.4941  3.1689
  160bbb     N1 4770   6.544   2.851   7.161  0.9952 -0.5917  0.5949
  160bbb     C1 4771   6.580   2.922   7.029 -0.0606  0.3678  0.1187
  160bbb     H1 4772   6.581   2.847   6.950  3.6087  1.3840 -0.9930
  160bbb     H2 4773   6.684   2.953   7.040 -0.4255  1.8559 -0.3845
  160bbb     C2 4774   6.581   2.933   7.285 -0.2272 -0.5518  0.4271
  160bbb     H3 4775   6.532   2.885   7.370 -2.9596  2.2762  0.6392
  160bbb     H4 4776   6.544   3.035   7.282  2.5429  0.5267 -0.0757
  160bbb     C3 4777   6.395   2.819   7.161 -0.6955 -0.3154 -0.0969
  160bbb     H5 4778   6.388   2.766   7.066 -0.8768 -2.5940  1.0944
  160bbb     H6 4779   6.342   2.913   7.174 -0.2615 -0.2470  1.4351
  160bbb     C4 4780   6.338   2.717   7.261  0.0278  0.4331  0.3317
  160bbb     H7 4781   6.325   2.758   7.362  1.3390 -0.4233  0.8732
  160bbb     H8 4782   6.406   2.631   7.262  0.7730  0.8251 -3.5192
  160bbb     C5 4783   6.496   3.041   6.974 -0.5284 -0.0272 -0.1649
  160bbb     H9 4784   6.512   3.126   7.042 -0.8871  0.3536 -0.5515
  160bbb    H10 4785   6.393   3.006   6.964  0.3832 -2.5634 -1.7938
  160bbb     C6 4786   6.733   2.950   7.311 -0.1614 -0.1354 -0.1948
  160bbb    H11 4787   6.788   3.012   7.239 -0.3857  1.2483  0.7790
  160bbb    H12 4788   6.780   2.852   7.301 -0.8703 -0.4143 -0.8030
  160bbb     C7 4789   6.210   2.667   7.197 -0.1390  0.8146  0.0040
  160bbb    H13 4790   6.227   2.632   7.094 -0.0942 -0.4519  0.4253
  160bbb    H14 4791   6.134   2.747   7.200  1.3153  2.1940  1.9260
  160bbb     C8 4792   6.762   3.006   7.451  0.2499 -0.7231  0.8733
  160bbb    H15 4793   6.751   2.929   7.529 -3.3614 -1.0466  0.1992
  160bbb    H16 4794   6.872   3.013   7.456  0.3626 -0.1617 -1.3292
  160bbb     C9 4795   6.547   3.097   6.839 -0.9604  0.0411  0.0061
  160bbb    H17 4796   6.656   3.094   6.829 -1.0096 -1.6352 -0.2823
  160bbb    H18 4797   6.506   3.198   6.825 -0.2084  0.3405 -0.0767
  160bbb     O1 4798   6.164   2.547   7.272 -0.1400 -0.0292  0.2951
  160bbb    H19 4799   6.594   2.761   7.172  0.1241 -0.9166  2.1627
  161bbb     N1 4800   6.088   2.140   7.934  0.0172 -0.0390  0.1336
  161bbb     C1 4801   6.184   2.244   7.952 -0.1791  0.3957 -0.2326
  161bbb     H1 4802   6.279   2.215   7.996 -0.5900  0.4931  0.7360
  161bbb     H2 4803   6.129   2.314   8.015  1.2135 -1.5707  3.4862
  161bbb     C2 4804   6.150   2.008   7.890  0.5376 -0.3157  0.7261
  161bbb     H3 4805   6.186   1.952   7.976  1.5226  0.2916  0.7182
  161bbb     H4 4806   6.243   2.022   7.836  0.2863  0.8081  0.5444
  161bbb     C3 4807   6.009   2.120   8.070 -0.1040 -0.2528 -0.6245
  161bbb     H5 4808   5.923   2.055   8.051 -0.9928  1.0344 -1.1188
  161bbb     H6 4809   5.981   2.219   8.106  2.2107 -0.0776  0.8998
  161bbb     C4 4810   6.099   2.055   8.185  0.3598 -0.4098  0.8822
  161bbb     H7 4811   6.187   2.119   8.196  1.6030 -1.2801 -2.5811
  161bbb     H8 4812   6.142   1.956   8.164  1.1728 -0.2577  1.7717
  161bbb     C5 4813   6.218   2.318   7.821  0.6900  0.0493 -0.3737
  161bbb     H9 4814   6.131   2.380   7.795  1.1576  1.4784  1.3381
  161bbb    H10 4815   6.233   2.246   7.739  1.1550  1.6545 -1.7574
  161bbb     C6 4816   6.059   1.914   7.811 -0.5239  0.3079  0.4937
  161bbb    H11 4817   6.019   1.968   7.724 -1.2796  0.2953  0.8291
  161bbb    H12 4818   5.974   1.883   7.871 -0.3394 -0.9465  0.1280
  161bbb     C7 4819   6.018   2.044   8.321 -0.1874 -0.7540 -0.2982
  161bbb    H13 4820   6.079   1.996   8.399  4.0961  2.6113 -1.2167
  161bbb    H14 4821   5.938   1.972   8.298 -0.9218  0.5497 -2.1140
  161bbb     C8 4822   6.137   1.787   7.767  0.4870  0.4605 -0.2528
  161bbb    H15 4823   6.197   1.749   7.850 -0.5590  0.8166  0.7062
  161bbb    H16 4824   6.064   1.708   7.744 -0.9112  1.7997 -0.6591
  161bbb     C9 4825   6.342   2.410   7.825 -0.2981 -0.4655  0.6828
  161bbb    H17 4826   6.341   2.488   7.903  1.6541 -0.2346  0.5336
  161bbb    H18 4827   6.344   2.456   7.725  2.1720 -1.2634  0.2974
  161bbb     O1 4828   5.970   2.175   8.366 -0.2684  0.8065 -0.7343
  161bbb    H19 4829   6.029   2.174   7.856  1.6880  0.9093 -0.7849
  162bbb     N1 4830   6.042   2.210   9.336 -0.1779 -0.1129 -0.2868
  162bbb     C1 4831   5.968   2.107   9.261 -0.6246 -0.7349 -0.0569
  162bbb     H1 4832   6.013   2.009   9.276 -0.3876 -0.7064 -0.5569
  162bbb     H2 4833   5.986   2.134   9.157  1.5419 -2.7035 -0.2710
  162bbb     C2 4834   6.185   2.153   9.359 -0.0137 -0.1515 -0.1314
  162bbb     H3 4835   6.233   2.171   9.263 -1.2533  1.1980 -0.5292
  162bbb     H4 4836   6.175   2.047   9.382  2.6004 -0.8188 -1.6680
  162bbb     C3 4837   6.044   2.350   9.280  0.5260 -0.2575  0.1715
  162bbb     H5 4838   6.097   2.407   9.356  1.9858 -0.6248 -0.5460
  162bbb     H6 4839   5.945   2.393   9.264  0.4045 -0.0700  1.3473
  162bbb     C4 4840   6.116   2.376   9.147  0.2753  0.3353 -1.0473
  162bbb     H7 4841   6.087   2.306   9.067  0.7092 -0.0136 -0.9057
  162bbb     H8 4842   6.223   2.361   9.166 -0.0856  0.1713  1.0640
  162bbb     C5 4843   5.823   2.094   9.291  0.3598 -0.2495  0.7369
  162bbb     H9 4844   5.764   2.174   9.244  2.2368 -0.7163 -2.7361
  162bbb    H10 4845   5.806   2.078   9.398 -4.0584 -0.0496  0.2661
  162bbb     C6 4846   6.266   2.220   9.475 -0.1818 -0.3940  0.1859
  162bbb    H11 4847   6.197   2.219   9.560 -0.6201  1.6785 -0.1036
  162bbb    H12 4848   6.286   2.327   9.465 -2.6733  0.1396  0.3111
  162bbb     C7 4849   6.106   2.528   9.103  0.1473 -0.6270 -0.4028
  162bbb    H13 4850   6.201   2.550   9.053  1.2883 -1.4936  1.2555
  162bbb    H14 4851   6.099   2.587   9.196 -0.1867  0.7724 -1.2863
  162bbb     C8 4852   6.406   2.155   9.491 -0.8665  0.4440  0.1661
  162bbb    H15 4853   6.469   2.170   9.403 -1.8134 -1.6547 -0.9325
  162bbb    H16 4854   6.463   2.193   9.576 -1.0154 -0.3558  0.6309
  162bbb     C9 4855   5.765   1.967   9.221  0.6619 -0.1296 -0.0514
  162bbb    H17 4856   5.666   1.946   9.264  0.5710 -0.0244 -0.2065
  162bbb    H18 4857   5.827   1.877   9.223 -0.8438 -1.1958  1.6472
  162bbb     O1 4858   5.994   2.544   9.011  0.5645 -0.9838  0.2561
  162bbb    H19 4859   5.993   2.214   9.427  0.8926 -0.4303  0.3147
  163bbb     N1 4860   4.389   2.270   9.062  0.7196 -0.3361 -0.1748
  163bbb     C1 4861   4.414   2.221   9.209 -0.7085 -0.1377 -0.2346
  163bbb     H1 4862   4.328   2.260   9.265 -0.9223 -0.0728 -0.6046
  163bbb     H2 4863   4.510   2.261   9.241 -1.0746 -0.3692  1.2462
  163bbb     C2 4864   4.356   2.423   9.072 -0.1499 -0.1775 -0.0739
  163bbb     H3 4865   4.378   2.455   8.970 -0.9671 -0.1564 -0.2459
  163bbb     H4 4866   4.432   2.464   9.139 -0.8524  0.4570  0.3498
  163bbb     C3 4867   4.506   2.245   8.963  0.1955  0.0285 -0.5088
  163bbb     H5 4868   4.469   2.258   8.862 -2.0689 -1.2669  0.0909
  163bbb     H6 4869   4.545   2.143   8.960  0.3506  0.0837 -0.3898
  163bbb     C4 4870   4.635   2.331   8.975  1.0122  0.4340 -0.3643
  163bbb     H7 4871   4.673   2.308   9.075  1.1607 -0.2471 -0.5663
  163bbb     H8 4872   4.613   2.438   8.967 -2.7632 -0.0826  1.1071
  163bbb     C5 4873   4.421   2.070   9.224  0.1420  0.0677  0.3595
  163bbb     H9 4874   4.504   2.026   9.168  0.6517 -1.4227  2.1842
  163bbb    H10 4875   4.327   2.025   9.190  0.1233  1.0583 -0.9634
  163bbb     C6 4876   4.216   2.466   9.109  0.4109 -0.0232  0.4952
  163bbb    H11 4877   4.196   2.475   9.217 -1.6005 -1.4800  0.3111
  163bbb    H12 4878   4.149   2.387   9.071  1.0270 -0.8634  1.1298
  163bbb     C7 4879   4.743   2.297   8.870  0.2847 -0.2298 -0.1829
  163bbb    H13 4880   4.775   2.193   8.884  1.5550  0.0468 -0.9210
  163bbb    H14 4881   4.829   2.365   8.873 -0.6829  1.0368 -0.3721
  163bbb     C8 4882   4.184   2.608   9.052  0.2272  0.3267 -0.2622
  163bbb    H15 4883   4.182   2.604   8.943  2.2348 -1.5332 -0.2717
  163bbb    H16 4884   4.085   2.632   9.093 -0.0059  0.5868 -0.9592
  163bbb     C9 4885   4.435   2.033   9.376  0.4798 -0.1611 -0.8244
  163bbb    H17 4886   4.413   1.928   9.400 -1.0524  0.0263 -1.3059
  163bbb    H18 4887   4.368   2.095   9.437  0.7115  1.1628 -1.8775
  163bbb     O1 4888   4.676   2.301   8.739 -0.4681  0.1793 -0.4099
  163bbb    H19 4889   4.301   2.229   9.027  0.7989  1.3562 -2.6156
  164bbb     N1 4890   4.103   1.378   8.692  0.5368 -0.4864 -0.3150
  164bbb     C1 4891   4.131   1.354   8.840 -0.7351 -0.6035 -0.9774
  164bbb     H1 4892   4.165   1.252   8.860  3.3280  0.7732 -0.0444
  164bbb     H2 4893   4.037   1.365   8.895 -0.6597 -0.1809 -0.9287
  164bbb     C2 4894   3.971   1.307   8.647 -0.3510 -0.0801 -1.0006
  164bbb     H3 4895   3.963   1.318   8.539 -0.1794  1.2185 -0.9011
  164bbb     H4 4896   3.887   1.363   8.689 -0.9763  0.0409 -2.3626
  164bbb     C3 4897   4.086   1.530   8.663  0.3515  0.1240  0.0366
  164bbb     H5 4898   4.185   1.567   8.691  0.1909  0.0976  0.6551
  164bbb     H6 4899   4.002   1.568   8.721  1.0895 -0.0416  1.2521
  164bbb     C4 4900   4.057   1.566   8.514 -0.5826 -0.2036  0.1538
  164bbb     H7 4901   3.967   1.511   8.484 -2.0319  3.3260 -2.8599
  164bbb     H8 4902   4.142   1.528   8.456 -0.1340  1.0533 -0.0547
  164bbb     C5 4903   4.232   1.456   8.908  0.1338 -0.2922 -0.5649
  164bbb     H9 4904   4.202   1.560   8.894 -1.5056 -0.6381  0.2224
  164bbb    H10 4905   4.327   1.440   8.855  0.6804  1.6448 -0.2630
  164bbb     C6 4906   3.966   1.156   8.671 -0.0282 -0.1460 -0.0553
  164bbb    H11 4907   3.977   1.139   8.779 -0.4762  2.7268  0.5173
  164bbb    H12 4908   4.045   1.102   8.618 -1.6729 -0.8815 -1.9011
  164bbb     C7 4909   4.051   1.716   8.483  0.1757  0.0872  0.3918
  164bbb    H13 4910   3.981   1.771   8.547 -0.1723 -0.3787  0.4209
  164bbb    H14 4911   4.018   1.731   8.380  2.7960 -0.0787 -0.5302
  164bbb     C8 4912   3.828   1.093   8.631 -0.2609  0.2898 -0.1985
  164bbb    H15 4913   3.745   1.146   8.679  0.4023  1.0475  0.1318
  164bbb    H16 4914   3.813   1.102   8.523 -2.1718  0.5276  0.0570
  164bbb     C9 4915   4.249   1.421   9.059  0.4050  0.0119 -0.7480
  164bbb    H17 4916   4.158   1.371   9.096  1.6335 -1.5299  0.3196
  164bbb    H18 4917   4.278   1.509   9.118  0.9950 -0.3056 -0.5558
  164bbb     O1 4918   4.181   1.779   8.501 -0.1574 -0.2775 -0.3160
  164bbb    H19 4919   4.177   1.342   8.631 -0.3584 -0.3353 -1.5403
  165bbb     N1 4920   3.464   2.212   6.906  0.2633  0.3641 -0.5121
  165bbb     C1 4921   3.390   2.229   7.041 -0.1021  0.3625  0.2218
  165bbb     H1 4922   3.284   2.246   7.023  0.1332  1.3015 -0.3944
  165bbb     H2 4923   3.424   2.315   7.099  0.2489 -0.8526  1.8919
  165bbb     C2 4924   3.439   2.327   6.813 -0.5093 -0.2691 -0.0882
  165bbb     H3 4925   3.514   2.322   6.733 -0.8261  1.9269 -0.5665
  165bbb     H4 4926   3.478   2.414   6.865  2.9837 -1.3867 -0.5231
  165bbb     C3 4927   3.613   2.186   6.935 -0.6592  0.7132 -0.7259
  165bbb     H5 4928   3.629   2.112   7.013  2.3377  0.8908 -1.0712
  165bbb     H6 4929   3.648   2.276   6.986  0.4528 -0.0201 -0.1775
  165bbb     C4 4930   3.698   2.154   6.813 -0.6992  0.2985 -0.7938
  165bbb     H7 4931   3.685   2.230   6.735  3.5782  1.2348 -0.8583
  165bbb     H8 4932   3.675   2.057   6.767 -0.3781  0.3426 -1.0485
  165bbb     C5 4933   3.377   2.098   7.127 -0.0121  0.3624  0.1797
  165bbb     H9 4934   3.462   2.092   7.196  1.0467  2.5077 -0.8437
  165bbb    H10 4935   3.373   2.004   7.070 -0.5795 -0.2470  1.2051
  165bbb     C6 4936   3.301   2.355   6.757 -0.6671 -0.0383  1.1199
  165bbb    H11 4937   3.233   2.392   6.835 -1.5831 -0.8711  0.7363
  165bbb    H12 4938   3.269   2.256   6.724  0.4622 -0.2455  0.6236
  165bbb     C7 4939   3.848   2.154   6.858  0.0527 -0.4245  0.1948
  165bbb    H13 4940   3.868   2.252   6.903 -0.9962 -0.9917  2.0089
  165bbb    H14 4941   3.915   2.150   6.772 -0.9868 -1.3225 -0.6057
  165bbb     C8 4942   3.291   2.446   6.634 -0.1820  0.3196  0.2450
  165bbb    H15 4943   3.187   2.472   6.607 -0.2933  0.7916  1.0860
  165bbb    H16 4944   3.327   2.547   6.658 -2.3595  0.5871  2.7982
  165bbb     C9 4945   3.249   2.099   7.212  0.2388  0.0212  0.2504
  165bbb    H17 4946   3.158   2.102   7.151 -0.0158  1.8310  0.6539
  165bbb    H18 4947   3.242   2.191   7.272 -0.8179  0.1169 -0.0119
  165bbb     O1 4948   3.870   2.054   6.957 -0.0420  0.0582 -0.4761
  165bbb    H19 4949   3.427   2.124   6.868  2.1672 -0.6318 -0.2131
  166bbb     N1 4950   3.875   1.392   7.569 -0.3048 -0.4364 -0.4237
  166bbb     C1 4951   3.954   1.262   7.605  0.0780  0.2622 -0.9355
  166bbb     H1 4952   4.017   1.245   7.518 -0.9440  1.8970 -2.0622
  166bbb     H2 4953   3.870   1.193   7.598  0.3698 -0.0573 -1.2537
  166bbb     C2 4954   3.840   1.385   7.423 -1.0232 -0.0138  0.4111
  166bbb     H3 4955   3.752   1.321   7.416 -0.1576 -1.0679 -1.7823
  166bbb     H4 4956   3.923   1.341   7.367 -0.6425  1.0340  0.1219
  166bbb     C3 4957   3.741   1.393   7.640  0.1616  0.1434  0.0447
  166bbb     H5 4958   3.726   1.291   7.676  0.7207 -0.3961 -1.1864
  166bbb     H6 4959   3.655   1.410   7.575 -0.9643 -1.8025  0.9146
  166bbb     C4 4960   3.738   1.500   7.753 -0.2856 -0.1543  0.5965
  166bbb     H7 4961   3.818   1.468   7.821  0.4419 -0.9277 -0.5837
  166bbb     H8 4962   3.640   1.496   7.802  0.0583 -0.4445  1.2705
  166bbb     C5 4963   4.019   1.256   7.751 -0.7108  0.2789 -0.1607
  166bbb     H9 4964   3.950   1.225   7.831  1.1052 -1.7608  0.7231
  166bbb    H10 4965   4.070   1.349   7.777  0.7917 -0.5198 -0.1410
  166bbb     C6 4966   3.802   1.518   7.363  0.7225 -0.2013 -0.7046
  166bbb    H11 4967   3.890   1.584   7.367 -0.0962  0.9584 -1.2888
  166bbb    H12 4968   3.717   1.559   7.418  3.0594 -0.7833  3.7500
  166bbb     C7 4969   3.766   1.649   7.708  0.2430 -0.1179 -0.4005
  166bbb    H13 4970   3.746   1.721   7.789 -0.4582  0.5721 -1.1649
  166bbb    H14 4971   3.700   1.675   7.625 -0.0122  1.1530  0.1741
  166bbb     C8 4972   3.759   1.503   7.218  0.1936 -0.1965 -0.4973
  166bbb    H15 4973   3.744   1.599   7.167  1.2093 -1.0106 -2.4345
  166bbb    H16 4974   3.838   1.443   7.173 -0.3230 -3.1391  2.1865
  166bbb     C9 4975   4.138   1.148   7.762  0.2857 -0.0500  0.0741
  166bbb    H17 4976   4.188   1.167   7.857 -0.1358  1.9555 -0.0518
  166bbb    H18 4977   4.204   1.160   7.676 -0.4312  0.4169 -0.4275
  166bbb     O1 4978   3.901   1.665   7.658  0.0157  0.2135  0.3815
  166bbb    H19 4979   3.925   1.480   7.585 -0.7507 -0.1084 -0.8051
  167bbb     N1 4980   3.856   3.729   7.695 -0.0233 -0.8032  0.4428
  167bbb     C1 4981   3.846   3.847   7.788  0.0340  0.0744  0.2939
  167bbb     H1 4982   3.940   3.849   7.843 -1.2207  1.3128  2.5799
  167bbb     H2 4983   3.766   3.824   7.860  1.2601 -0.0474  1.6607
  167bbb     C2 4984   3.967   3.748   7.591  0.6791  0.6453  0.4475
  167bbb     H3 4985   3.931   3.839   7.544  0.4733  0.9259  1.1343
  167bbb     H4 4986   3.952   3.667   7.519 -0.1070  0.2162  1.0758
  167bbb     C3 4987   3.886   3.618   7.789  0.2086 -0.2826 -0.2877
  167bbb     H5 4988   3.814   3.620   7.871 -0.4846 -1.5788 -0.8373
  167bbb     H6 4989   3.985   3.636   7.830  0.0193 -0.3732  0.2189
  167bbb     C4 4990   3.886   3.482   7.724  0.0801  0.7338  0.0149
  167bbb     H7 4991   3.966   3.478   7.649 -0.1926 -0.5236 -0.2327
  167bbb     H8 4992   3.793   3.467   7.669  1.2922  0.2517 -2.0251
  167bbb     C5 4993   3.835   3.985   7.721  0.1651 -0.0150 -0.2288
  167bbb     H9 4994   3.749   3.970   7.655  0.4103  1.4550 -0.9145
  167bbb    H10 4995   3.920   4.011   7.657  0.7962 -1.4555 -0.0374
  167bbb     C6 4996   4.114   3.767   7.638  0.5504  0.9656  1.0416
  167bbb    H11 4997   4.126   3.688   7.712 -1.1978 -0.4684 -0.1315
  167bbb    H12 4998   4.140   3.861   7.688 -1.3405  0.5951  2.8392
  167bbb     C7 4999   3.907   3.365   7.818  0.2765  0.3616 -0.2354
  167bbb    H13 5000   3.985   3.388   7.892 -0.0146 -0.1593  0.2422
  167bbb    H14 5001   3.944   3.283   7.755  1.6338  1.1964 -0.5803
  167bbb     C8 5002   4.207   3.742   7.521  0.3166  0.0638  0.1027
  167bbb    H15 5003   4.194   3.804   7.431  0.4390 -0.7189 -0.4638
  167bbb    H16 5004   4.312   3.763   7.546  0.0537  0.4513  0.9251
  167bbb     C9 5005   3.813   4.099   7.821  0.6339 -0.2112  0.0863
  167bbb    H17 5006   3.871   4.096   7.914  0.4959 -1.4045  0.1456
  167bbb    H18 5007   3.708   4.097   7.854  0.8885  1.0599  1.0446
  167bbb     O1 5008   3.787   3.319   7.878  0.4191  0.1724  0.2427
  167bbb    H19 5009   3.769   3.705   7.645  0.1997 -0.7304  0.0110
  168bbb     N1 5010   3.190   3.345   7.265 -0.0067  0.4709 -0.2799
  168bbb     C1 5011   3.186   3.190   7.273 -0.7803 -0.2888  0.5819
  168bbb     H1 5012   3.281   3.146   7.240  0.4006  1.2025  1.8187
  168bbb     H2 5013   3.113   3.174   7.194 -3.3118  2.4856  2.1838
  168bbb     C2 5014   3.047   3.386   7.219  0.5907  0.0029 -0.2666
  168bbb     H3 5015   2.971   3.351   7.290 -0.0230 -0.9317 -1.3311
  168bbb     H4 5016   3.022   3.340   7.123 -0.7845 -0.2297  0.1797
  168bbb     C3 5017   3.234   3.412   7.397  0.0376  0.5517 -0.0273
  168bbb     H5 5018   3.165   3.392   7.479  0.0757  0.8388  0.0758
  168bbb     H6 5019   3.222   3.520   7.389  0.7501  0.9108  2.6689
  168bbb     C4 5020   3.381   3.402   7.454 -0.0855 -0.3494 -0.0457
  168bbb     H7 5021   3.448   3.467   7.397  0.9478 -3.1417 -2.2741
  168bbb     H8 5022   3.414   3.301   7.429 -0.5651 -1.1312  2.2706
  168bbb     C5 5023   3.136   3.114   7.394  0.0568  0.3680 -0.5425
  168bbb     H9 5024   3.038   3.147   7.428  0.2494 -0.7251  1.1914
  168bbb    H10 5025   3.210   3.123   7.475 -1.5851 -1.0729  1.1914
  168bbb     C6 5026   3.029   3.535   7.197  0.7051  0.4931 -0.1337
  168bbb    H11 5027   3.093   3.572   7.117 -0.4431  0.9929 -0.8465
  168bbb    H12 5028   3.060   3.584   7.290 -1.4943  0.7833  0.5169
  168bbb     C7 5029   3.399   3.424   7.604  0.1394  0.1401 -0.0072
  168bbb    H13 5030   3.366   3.522   7.640 -0.8397 -0.3488  0.4664
  168bbb    H14 5031   3.504   3.410   7.633  1.1005  0.8442 -2.8509
  168bbb     C8 5032   2.881   3.560   7.168 -0.6565  0.0361 -0.3787
  168bbb    H15 5033   2.820   3.533   7.255  0.5145  0.5101  0.6344
  168bbb    H16 5034   2.860   3.666   7.149 -0.6546  0.2438  0.7010
  168bbb     C9 5035   3.132   2.962   7.361  0.2566  0.8237  0.2531
  168bbb    H17 5036   3.101   2.901   7.446 -1.4896 -1.1044 -1.6544
  168bbb    H18 5037   3.233   2.936   7.326 -0.0013  0.1393  0.0225
  168bbb     O1 5038   3.328   3.324   7.683  0.5442 -0.3422 -0.4972
  168bbb    H19 5039   3.262   3.370   7.196  0.0647  1.0575  0.0006
  169bbb     N1 5040   2.702   2.636   9.143 -0.0763  0.3294  0.2420
  169bbb     C1 5041   2.553   2.623   9.122 -0.8031 -0.4668  0.0977
  169bbb     H1 5042   2.547   2.517   9.096  4.8594 -1.0716 -0.1594
  169bbb     H2 5043   2.534   2.684   9.033  1.4273 -1.7119 -1.3393
  169bbb     C2 5044   2.764   2.592   9.007  0.5945  0.0507 -0.2334
  169bbb     H3 5045   2.866   2.632   9.008  1.0529 -1.0854 -0.6044
  169bbb     H4 5046   2.704   2.631   8.925  0.5091 -0.3217 -0.3506
  169bbb     C3 5047   2.719   2.785   9.161 -0.2901  0.5214  0.6460
  169bbb     H5 5048   2.627   2.832   9.126 -1.1462 -0.3405  1.6816
  169bbb     H6 5049   2.798   2.815   9.092 -0.3837 -0.1207  0.2467
  169bbb     C4 5050   2.749   2.846   9.299 -0.0707 -0.6699  0.1675
  169bbb     H7 5051   2.841   2.794   9.331  0.4935 -0.5171 -1.1296
  169bbb     H8 5052   2.672   2.833   9.375 -0.0567  1.3859  0.5909
  169bbb     C5 5053   2.455   2.664   9.242  0.5073  0.1031 -0.4444
  169bbb     H9 5054   2.485   2.766   9.268  1.5818  0.7154 -3.6692
  169bbb    H10 5055   2.464   2.587   9.320 -2.0234  0.1790  0.0127
  169bbb     C6 5056   2.781   2.435   8.998  0.8233  0.2584 -0.1730
  169bbb    H11 5057   2.685   2.383   9.000  1.1937 -0.4438 -0.3933
  169bbb    H12 5058   2.836   2.402   9.087 -0.9984 -0.0145  0.9087
  169bbb     C7 5059   2.761   3.002   9.294 -0.6744  0.4382 -0.0667
  169bbb    H13 5060   2.657   3.037   9.282 -1.4110 -1.4624  0.4790
  169bbb    H14 5061   2.828   3.025   9.211 -1.1465  0.2362 -0.5103
  169bbb     C8 5062   2.858   2.394   8.872  0.1063  0.7438 -0.0926
  169bbb    H15 5063   2.788   2.417   8.790 -4.9720  0.0433  3.6156
  169bbb    H16 5064   2.951   2.452   8.876  2.1719 -2.4079  0.8788
  169bbb     C9 5065   2.304   2.653   9.193  0.1440  0.8929 -0.0427
  169bbb    H17 5066   2.233   2.659   9.276 -0.4101  0.5154 -0.4844
  169bbb    H18 5067   2.286   2.550   9.161 -1.8257  0.0146  3.3756
  169bbb     O1 5068   2.830   3.041   9.415  0.8649  0.3858  0.0318
  169bbb    H19 5069   2.736   2.572   9.216 -1.5570 -1.7952 -0.8156
  170bbb     N1 5070   2.652   2.550  10.126  0.6528 -0.1705 -0.1090
  170bbb     C1 5071   2.530   2.467  10.089 -0.2474  0.3554  0.0116
  170bbb     H1 5072   2.531   2.383  10.160 -0.5283 -0.7423 -1.2425
  170bbb     H2 5073   2.546   2.423   9.990 -1.5059 -0.7998  0.2964
  170bbb     C2 5074   2.770   2.461  10.144 -0.3963 -0.0440  0.6194
  170bbb     H3 5075   2.854   2.529  10.158 -0.0835 -0.2104 -0.3457
  170bbb     H4 5076   2.796   2.409  10.052  1.7675 -1.9852  2.2097
  170bbb     C3 5077   2.676   2.649  10.018  0.0052  0.6370  0.1351
  170bbb     H5 5078   2.586   2.710  10.009 -1.1369 -0.6407  2.1688
  170bbb     H6 5079   2.692   2.588   9.929  1.6902  2.0915 -0.6195
  170bbb     C4 5080   2.790   2.749  10.039 -0.5157 -0.4953 -0.3869
  170bbb     H7 5081   2.885   2.694  10.046 -0.4516 -0.2086  1.4488
  170bbb     H8 5082   2.783   2.811  10.129  4.8059  1.4179 -0.9131
  170bbb     C5 5083   2.395   2.543  10.078  0.3669 -0.1674 -0.3798
  170bbb     H9 5084   2.403   2.617   9.998 -1.9923  2.3404  1.5000
  170bbb    H10 5085   2.365   2.585  10.175 -0.3145 -4.4412  1.5038
  170bbb     C6 5086   2.772   2.382  10.272  0.4318 -1.0396  1.0055
  170bbb    H11 5087   2.678   2.327  10.280 -0.2015 -0.4147 -1.2758
  170bbb    H12 5088   2.770   2.446  10.361 -0.4477  1.7946 -0.9109
  170bbb     C7 5089   2.801   2.852   9.921  0.0466  0.1530 -0.0507
  170bbb    H13 5090   2.880   2.923   9.951  0.1137 -0.7992  2.2598
  170bbb    H14 5091   2.706   2.905   9.911  0.6545  1.0584 -1.3155
  170bbb     C8 5092   2.897   2.291  10.275  0.6807 -0.3351  0.3222
  170bbb    H15 5093   2.995   2.338  10.292  0.4095  0.9540 -1.4463
  170bbb    H16 5094   2.884   2.230  10.365  0.2084 -1.3033 -0.3869
  170bbb     C9 5095   2.273   2.456  10.048 -0.2319  0.1037  0.0408
  170bbb    H17 5096   2.269   2.380  10.127 -2.7630  0.3775  0.2541
  170bbb    H18 5097   2.287   2.400   9.955  0.5032  0.4138 -0.0433
  170bbb     O1 5098   2.832   2.778   9.801 -0.4531 -0.0723 -0.0169
  170bbb    H19 5099   2.645   2.597  10.217  0.2735 -0.8657  0.2274
  171bbb     N1 5100   2.540   5.146   7.815 -0.0399 -0.3387  1.3201
  171bbb     C1 5101   2.451   5.117   7.692  0.1746 -0.4662 -0.3881
  171bbb     H1 5102   2.361   5.066   7.726 -0.3637  1.5435  1.3921
  171bbb     H2 5103   2.511   5.050   7.630  0.2736  0.1790 -1.0012
  171bbb     C2 5104   2.465   5.221   7.920  0.0985 -0.0422  0.0185
  171bbb     H3 5105   2.371   5.170   7.942 -1.2744  2.4272  0.2683
  171bbb     H4 5106   2.434   5.318   7.882  0.3534  0.0351  0.0047
  171bbb     C3 5107   2.587   5.011   7.873  0.3120 -0.0082  0.1035
  171bbb     H5 5108   2.498   4.952   7.896  1.3156 -1.9103 -0.6855
  171bbb     H6 5109   2.647   5.020   7.964  0.9514  0.4011 -0.3512
  171bbb     C4 5110   2.669   4.924   7.778  0.4925 -0.2899  0.1847
  171bbb     H7 5111   2.741   4.986   7.723 -0.8927  0.9137 -0.3405
  171bbb     H8 5112   2.604   4.868   7.709  0.2396 -1.3408  1.2383
  171bbb     C5 5113   2.401   5.227   7.589 -0.3331  0.0868 -0.0951
  171bbb     H9 5114   2.328   5.282   7.649  3.4380  0.8565  4.4052
  171bbb    H10 5115   2.358   5.185   7.497  0.2678 -1.1902  0.1742
  171bbb     C6 5116   2.536   5.245   8.057 -0.3065  0.1728  0.2144
  171bbb    H11 5117   2.631   5.299   8.044  0.2686 -0.2044  2.3581
  171bbb    H12 5118   2.562   5.154   8.114 -0.6713  0.0034  0.1076
  171bbb     C7 5119   2.751   4.809   7.846  0.4297 -0.6988  0.1043
  171bbb    H13 5120   2.835   4.863   7.892  0.8748  0.6741 -2.1788
  171bbb    H14 5121   2.779   4.750   7.758 -1.2833  0.7420 -1.5001
  171bbb     C8 5122   2.447   5.328   8.155  0.5972 -0.5769 -0.1913
  171bbb    H15 5123   2.510   5.405   8.203 -1.8301  1.5342 -0.1418
  171bbb    H16 5124   2.365   5.371   8.096  0.8956  1.9751  1.1184
  171bbb     C9 5125   2.515   5.325   7.545  0.8672 -0.4716 -0.3651
  171bbb    H17 5126   2.551   5.397   7.620 -2.2879  1.3767 -0.4027
  171bbb    H18 5127   2.463   5.379   7.465  2.2705  0.1224 -0.9013
  171bbb     O1 5128   2.673   4.739   7.946  0.1627 -0.1014 -0.1703
  171bbb    H19 5129   2.627   5.195   7.788  0.9927 -1.7603  1.8645
  172bbb     N1 5130   2.058   4.409   8.942  1.1237  0.1073  0.1076
  172bbb     C1 5131   1.915   4.405   8.870 -0.0525  0.2466 -0.0699
  172bbb     H1 5132   1.850   4.366   8.949  0.6174 -3.2301 -1.0462
  172bbb     H2 5133   1.922   4.331   8.790  3.2398 -0.3486  0.6120
  172bbb     C2 5134   2.110   4.267   8.938 -0.1299 -0.8253 -1.2953
  172bbb     H3 5135   2.212   4.273   8.975 -0.9002  0.8517  0.7455
  172bbb     H4 5136   2.104   4.253   8.830  2.5983  0.3816 -1.6881
  172bbb     C3 5137   2.142   4.494   8.853 -0.3024 -0.6674 -0.1138
  172bbb     H5 5138   2.086   4.587   8.843 -1.6659 -1.5359 -0.9610
  172bbb     H6 5139   2.159   4.450   8.755  1.7974 -1.3415  0.5055
  172bbb     C4 5140   2.283   4.522   8.910  1.1285 -0.2230  0.0971
  172bbb     H7 5141   2.340   4.428   8.917  0.1472 -0.9568 -1.2381
  172bbb     H8 5142   2.273   4.569   9.008 -0.3098 -0.9878  0.3441
  172bbb     C5 5143   1.863   4.545   8.823  0.4633  0.3368  0.3870
  172bbb     H9 5144   1.923   4.589   8.742 -1.5893  0.4824 -1.1299
  172bbb    H10 5145   1.865   4.620   8.902  0.8637  0.5900  0.1432
  172bbb     C6 5146   2.025   4.169   9.021 -0.2302  0.6865  0.2297
  172bbb    H11 5147   1.918   4.169   8.998  0.1928  1.9097 -2.0935
  172bbb    H12 5148   2.031   4.207   9.123  1.6291  1.5521 -0.1477
  172bbb     C7 5149   2.353   4.621   8.816  0.4186  0.2468  0.6654
  172bbb    H13 5150   2.438   4.662   8.872  1.1924 -0.6190  0.1483
  172bbb    H14 5151   2.282   4.700   8.788  0.4508  0.6596  1.6904
  172bbb     C8 5152   2.079   4.029   8.989  0.3632 -0.4040 -0.2245
  172bbb    H15 5153   2.018   3.948   9.031 -0.5784  0.3221 -0.1405
  172bbb    H16 5154   2.083   4.010   8.881  0.7231 -0.9210 -0.1191
  172bbb     C9 5155   1.720   4.536   8.763 -0.0454  0.4396  0.2023
  172bbb    H17 5156   1.698   4.634   8.719  1.2788  0.9678  0.6673
  172bbb    H18 5157   1.643   4.531   8.841  0.7068 -0.1109  0.9384
  172bbb     O1 5158   2.396   4.564   8.694  0.2043  0.1856 -0.2423
  172bbb    H19 5159   2.064   4.444   9.039  4.4704 -1.8166  0.7402
  173bbb     N1 5160   3.411   3.825   9.821 -0.4474  0.1684 -0.2708
  173bbb     C1 5161   3.280   3.765   9.862 -0.2115 -0.0206  0.4525
  173bbb     H1 5162   3.226   3.749   9.769 -0.0807  1.1103  0.1613
  173bbb     H2 5163   3.218   3.839   9.913  1.0177  0.4198  1.3351
  173bbb     C2 5164   3.486   3.854   9.951 -0.9745  0.1943 -0.0345
  173bbb     H3 5165   3.584   3.892   9.921  0.7502 -1.4722  2.9831
  173bbb     H4 5166   3.504   3.764  10.010  0.3064  0.3193 -0.2206
  173bbb     C3 5167   3.489   3.718   9.746 -0.1976  0.2684 -0.0449
  173bbb     H5 5168   3.425   3.674   9.669 -0.7634 -3.9312  2.4547
  173bbb     H6 5169   3.509   3.645   9.824 -0.7093  0.3990  0.2156
  173bbb     C4 5170   3.623   3.768   9.678  0.2908 -0.9671 -0.3357
  173bbb     H7 5171   3.654   3.691   9.606 -1.1548 -1.7848 -0.1371
  173bbb     H8 5172   3.693   3.779   9.762 -0.9389 -2.0404  0.8774
  173bbb     C5 5173   3.275   3.637   9.948 -0.6396  0.3782 -0.2607
  173bbb     H9 5174   3.358   3.630  10.019 -0.4512 -0.7488 -0.5644
  173bbb    H10 5175   3.290   3.548   9.886  0.6121  0.1759  0.2991
  173bbb     C6 5176   3.429   3.970  10.041  0.1173  0.2282  0.4865
  173bbb    H11 5177   3.325   3.948  10.068 -0.6721  2.5037 -0.4022
  173bbb    H12 5178   3.427   4.068   9.992 -0.9859  0.6119  1.2660
  173bbb     C7 5179   3.614   3.907   9.601  0.2337  0.4256 -0.0664
  173bbb    H13 5180   3.534   3.902   9.526  2.6993  1.3749 -2.9735
  173bbb    H14 5181   3.699   3.913   9.531 -0.3129 -2.6259 -1.1076
  173bbb     C8 5182   3.502   3.982  10.173 -0.2855 -0.6044  0.0562
  173bbb    H15 5183   3.422   4.030  10.231 -0.3779  1.1616 -1.4362
  173bbb    H16 5184   3.530   3.884  10.213  0.2978 -0.8571 -0.9287
  173bbb     C9 5185   3.146   3.619  10.035  0.1842  0.1871  0.8664
  173bbb    H17 5186   3.139   3.519  10.078 -0.6939 -1.6834 -3.1664
  173bbb    H18 5187   3.056   3.635   9.974  0.1388 -3.3443 -0.1980
  173bbb     O1 5188   3.605   4.026   9.691  0.7247 -0.4053 -0.0468
  173bbb    H19 5189   3.406   3.909   9.762 -0.9560  0.3201 -0.0150
  174bbb     N1 5190   3.638   5.001   9.090  0.0372  0.2318 -0.3370
  174bbb     C1 5191   3.741   5.091   9.169 -0.5798  0.3061 -0.1096
  174bbb     H1 5192   3.828   5.079   9.104  0.3773 -1.8248  1.4180
  174bbb     H2 5193   3.767   5.051   9.267 -0.2155  0.6388 -0.0698
  174bbb     C2 5194   3.642   5.031   8.940  0.1463  0.9175 -0.2334
  174bbb     H3 5195   3.623   4.934   8.894  0.2079  1.3413 -1.1709
  174bbb     H4 5196   3.742   5.066   8.913  1.2301 -1.9512 -0.3229
  174bbb     C3 5197   3.679   4.860   9.106 -0.5306  0.2337  0.0647
  174bbb     H5 5198   3.783   4.853   9.077 -0.2292  0.2045  1.0954
  174bbb     H6 5199   3.628   4.800   9.031  1.6105 -0.8214 -0.6219
  174bbb     C4 5200   3.671   4.804   9.256 -0.5538  0.5987  0.2629
  174bbb     H7 5201   3.745   4.852   9.320  0.3712 -3.0660  2.2486
  174bbb     H8 5202   3.703   4.699   9.258 -0.1989  0.7073  0.2670
  174bbb     C5 5203   3.690   5.230   9.199 -1.0281 -0.4031 -0.2909
  174bbb     H9 5204   3.660   5.270   9.101  1.2899 -1.5233 -1.5523
  174bbb    H10 5205   3.779   5.288   9.224 -0.1668 -1.9833  0.4550
  174bbb     C6 5206   3.526   5.117   8.897  0.2663  0.0991 -0.2002
  174bbb    H11 5207   3.522   5.215   8.945 -1.3655  0.1293 -0.3212
  174bbb    H12 5208   3.430   5.069   8.920  0.7194 -1.2184 -0.9307
  174bbb     C7 5209   3.541   4.811   9.321 -0.1118 -0.1948  0.6425
  174bbb    H13 5210   3.466   4.763   9.257 -0.3442  1.7366 -0.5993
  174bbb    H14 5211   3.508   4.915   9.333  0.8768  0.0029  1.8920
  174bbb     C8 5212   3.514   5.130   8.741  0.0647 -0.6441  0.1967
  174bbb    H15 5213   3.540   5.034   8.694 -0.1669 -0.3873 -0.4601
  174bbb    H16 5214   3.411   5.156   8.715 -0.7494 -1.2387  2.5418
  174bbb     C9 5215   3.581   5.236   9.305 -0.2296  0.2004  0.6215
  174bbb    H17 5216   3.482   5.205   9.268  0.1523 -0.8068  0.4131
  174bbb    H18 5217   3.573   5.340   9.338 -0.6785  0.3357  0.0955
  174bbb     O1 5218   3.533   4.741   9.448 -0.6607  0.0767 -0.5336
  174bbb    H19 5219   3.539   5.004   9.119  0.7368  0.5192  2.3066
  175bbb     N1 5220   8.616   5.089   7.502  0.2004 -0.2944 -0.0064
  175bbb     C1 5221   8.645   5.229   7.565 -0.1359 -0.2737 -0.1196
  175bbb     H1 5222   8.702   5.208   7.656 -0.5770 -1.3812 -0.0828
  175bbb     H2 5223   8.548   5.264   7.600 -0.6171 -0.5067 -1.1878
  175bbb     C2 5224   8.745   5.027   7.446  0.7081  0.3413  0.3531
  175bbb     H3 5225   8.773   5.088   7.359  0.4911 -0.6944 -0.4667
  175bbb     H4 5226   8.724   4.925   7.413 -0.9357  0.1354  1.9189
  175bbb     C3 5227   8.559   4.995   7.605  0.4717  0.3534  0.4137
  175bbb     H5 5228   8.606   5.026   7.698  0.6745 -1.6608  1.0397
  175bbb     H6 5229   8.598   4.896   7.581  1.1415  0.3227  1.5646
  175bbb     C4 5230   8.407   4.982   7.615  0.1959 -0.0143  0.4775
  175bbb     H7 5231   8.354   5.058   7.557  1.4271  0.8020  0.4025
  175bbb     H8 5232   8.366   5.000   7.715 -0.8096 -4.0446  0.9743
  175bbb     C5 5233   8.718   5.332   7.469  0.5801 -0.5628 -0.3503
  175bbb     H9 5234   8.657   5.328   7.378 -0.0091 -3.1701  0.0778
  175bbb    H10 5235   8.821   5.298   7.447  1.1396  0.8287  0.0290
  175bbb     C6 5236   8.860   5.019   7.542  0.4831  0.6902  0.6188
  175bbb    H11 5237   8.842   4.951   7.627  3.4548 -0.3795  0.5091
  175bbb    H12 5238   8.887   5.118   7.581 -0.2106  0.7806  0.8761
  175bbb     C7 5239   8.350   4.847   7.580  0.1184 -0.1005  0.1307
  175bbb    H13 5240   8.382   4.782   7.662  0.3554  1.7640  1.6072
  175bbb    H14 5241   8.393   4.813   7.486 -0.4194 -0.2900 -0.0514
  175bbb     C8 5242   8.973   4.949   7.460 -0.1371  0.4485 -0.3061
  175bbb    H15 5243   8.950   4.844   7.438  3.0917 -0.6828  1.0888
  175bbb    H16 5244   9.007   5.002   7.371  1.8514  2.4734  1.5310
  175bbb     C9 5245   8.721   5.474   7.521  0.2015 -0.6285 -0.4821
  175bbb    H17 5246   8.759   5.544   7.446 -1.4687  0.8553 -0.0252
  175bbb    H18 5247   8.784   5.473   7.610 -1.2463  1.1807  0.6595
  175bbb     O1 5248   8.210   4.858   7.583  0.1488  0.3074 -0.1886
  175bbb    H19 5249   8.555   5.117   7.424  0.4352  3.3581  0.9368
  176bbb     N1 5250   7.926   3.794   7.078 -0.6772 -0.0513  0.5467
  176bbb     C1 5251   7.943   3.841   6.931 -0.3375  0.1578 -0.1661
  176bbb     H1 5252   7.922   3.948   6.924 -1.9156 -0.1564 -0.7797
  176bbb     H2 5253   7.858   3.795   6.881  0.4296  2.2758 -3.8011
  176bbb     C2 5254   7.928   3.638   7.076  0.3369 -0.6996 -0.2106
  176bbb     H3 5255   8.031   3.606   7.062  0.4149 -0.2871 -0.5899
  176bbb     H4 5256   7.860   3.613   6.994 -1.1374 -0.9675  1.0307
  176bbb     C3 5257   8.039   3.852   7.164 -0.1089 -0.3766 -0.1032
  176bbb     H5 5258   8.133   3.820   7.120  0.9557  2.4153 -0.0282
  176bbb     H6 5259   8.023   3.809   7.263 -0.0018 -0.7931 -0.2653
  176bbb     C4 5260   8.049   4.009   7.170 -1.1101  0.7341 -0.5547
  176bbb     H7 5261   8.069   4.050   7.070  0.7783 -1.1433 -1.0144
  176bbb     H8 5262   8.144   4.036   7.219 -0.4454 -1.3315 -0.6199
  176bbb     C5 5263   8.076   3.811   6.851  0.0046  0.7106 -0.4456
  176bbb     H9 5264   8.087   3.702   6.847 -0.4232  0.6740 -0.7355
  176bbb    H10 5265   8.160   3.861   6.902  1.5340 -0.8285 -1.3550
  176bbb     C6 5266   7.864   3.586   7.204  0.3195 -0.2161 -0.3440
  176bbb    H11 5267   7.755   3.602   7.205 -0.0754 -2.4786 -0.6907
  176bbb    H12 5268   7.917   3.627   7.291  1.6610  2.8473 -2.4240
  176bbb     C7 5269   7.932   4.062   7.250  0.3349 -0.4935  0.0278
  176bbb    H13 5270   7.881   3.975   7.293 -0.4512 -0.1730 -0.2272
  176bbb    H14 5271   7.872   4.121   7.178  0.2589  0.5055  0.8858
  176bbb     C8 5272   7.887   3.436   7.204 -0.5288  0.0064 -0.1554
  176bbb    H15 5273   7.818   3.390   7.132 -0.1696 -0.2228 -0.3554
  176bbb    H16 5274   7.994   3.420   7.189 -0.6933  0.3900 -1.9980
  176bbb     C9 5275   8.075   3.851   6.703 -0.5906 -0.1688 -0.3290
  176bbb    H17 5276   7.982   3.816   6.656 -0.3536 -0.5976 -0.4739
  176bbb    H18 5277   8.159   3.803   6.652  1.1205  0.9995  1.2637
  176bbb     O1 5278   7.980   4.145   7.354  0.3796  0.5768 -0.0857
  176bbb    H19 5279   7.828   3.813   7.104 -0.5262  0.9832  0.4208
  177bbb     N1 5280   8.280   2.669   8.523 -0.3206  0.4009  0.0401
  177bbb     C1 5281   8.403   2.753   8.489  0.3622 -0.1849  0.3854
  177bbb     H1 5282   8.485   2.720   8.552 -0.7185 -4.7421 -0.2755
  177bbb     H2 5283   8.384   2.859   8.510  0.4453 -0.1596  0.3358
  177bbb     C2 5284   8.310   2.520   8.520  0.1221  0.7042  0.6966
  177bbb     H3 5285   8.382   2.501   8.600  0.0307  1.6844  1.0272
  177bbb     H4 5286   8.363   2.493   8.428  1.0400 -1.5857  1.8280
  177bbb     C3 5287   8.235   2.696   8.669  0.7003  0.1406  1.0384
  177bbb     H5 5288   8.307   2.653   8.739  0.9776 -0.1564  0.5738
  177bbb     H6 5289   8.139   2.648   8.685  0.8871 -0.1461  1.3069
  177bbb     C4 5290   8.229   2.849   8.707  0.1538 -0.2981  0.0053
  177bbb     H7 5291   8.330   2.892   8.708  0.1919 -0.3857  0.2619
  177bbb     H8 5292   8.177   2.863   8.803  0.3260  1.5308 -0.1401
  177bbb     C5 5293   8.441   2.744   8.334 -0.2225  0.4644  0.0934
  177bbb     H9 5294   8.367   2.798   8.273 -0.7670 -0.2512  0.1132
  177bbb    H10 5295   8.445   2.641   8.298 -1.1609  0.0541  1.0912
  177bbb     C6 5296   8.193   2.424   8.545  0.2916  0.1427  0.2701
  177bbb    H11 5297   8.155   2.439   8.646  2.3880  0.6788  1.0313
  177bbb    H12 5298   8.229   2.320   8.541 -1.1769 -0.5247 -5.5567
  177bbb     C7 5299   8.127   2.919   8.617  0.2237  0.8167 -0.3719
  177bbb    H13 5300   8.042   2.850   8.620  1.3866 -0.8369 -2.9446
  177bbb    H14 5301   8.171   2.933   8.518  0.7340  1.2384 -0.0912
  177bbb     C8 5302   8.082   2.442   8.437  0.3904  0.0868 -0.0338
  177bbb    H15 5303   8.007   2.518   8.464  1.3400  1.3502 -0.8322
  177bbb    H16 5304   8.125   2.461   8.338  3.3226  1.4235  1.3857
  177bbb     C9 5305   8.581   2.802   8.307 -0.1178  0.1326 -0.1406
  177bbb    H17 5306   8.654   2.739   8.360 -1.5193  0.7715  2.6643
  177bbb    H18 5307   8.584   2.902   8.350  0.1799  0.3648 -0.6835
  177bbb     O1 5308   8.093   3.046   8.675 -0.2711 -0.2193  0.2496
  177bbb    H19 5309   8.203   2.686   8.457 -0.1643 -2.5465 -1.0480
  178bbb     N1 5310   8.706   3.911   8.893 -0.2170 -0.5353  0.4074
  178bbb     C1 5311   8.812   3.806   8.887  0.0800 -0.2219 -0.3781
  178bbb     H1 5312   8.793   3.746   8.976 -1.7626  0.9056  0.0278
  178bbb     H2 5313   8.903   3.862   8.909 -0.3230  0.1412  0.4180
  178bbb     C2 5314   8.751   4.006   8.786  0.4926 -0.7066  0.3939
  178bbb     H3 5315   8.733   3.959   8.689  1.2632  2.2937 -1.3141
  178bbb     H4 5316   8.858   4.025   8.790  0.6867 -1.5392 -0.5789
  178bbb     C3 5317   8.565   3.851   8.876 -0.6285  0.1680  0.8793
  178bbb     H5 5318   8.557   3.799   8.780 -1.3690 -1.3941  1.7438
  178bbb     H6 5319   8.514   3.946   8.865  3.6971  2.7150  0.4122
  178bbb     C4 5320   8.513   3.753   8.980  0.0014  0.6009 -0.2028
  178bbb     H7 5321   8.533   3.799   9.078  0.1406  0.4306 -0.1506
  178bbb     H8 5322   8.565   3.657   8.980 -2.5660 -0.8942 -1.2462
  178bbb     C5 5323   8.824   3.716   8.757  0.3046  0.0787 -0.2287
  178bbb     H9 5324   8.832   3.778   8.667  0.3404  0.0910 -0.2168
  178bbb    H10 5325   8.731   3.661   8.738  0.2656  0.5258 -1.4303
  178bbb     C6 5326   8.671   4.143   8.795 -0.6444  0.0152 -0.1553
  178bbb    H11 5327   8.686   4.181   8.897 -0.5424  1.3021 -0.6205
  178bbb    H12 5328   8.563   4.132   8.779 -0.6157  1.2132 -1.2962
  178bbb     C7 5329   8.359   3.733   8.966  0.7894 -0.3661 -0.2480
  178bbb    H13 5330   8.311   3.829   8.990 -1.6595 -1.4014 -0.7446
  178bbb    H14 5331   8.335   3.665   9.048  1.5621 -0.1274  0.1892
  178bbb     C8 5332   8.724   4.244   8.694  0.7543 -0.0579  0.2088
  178bbb    H15 5333   8.701   4.202   8.596  1.6168  0.3208 -0.1717
  178bbb    H16 5334   8.673   4.341   8.706  2.0561  0.4533  2.1614
  178bbb     C9 5335   8.943   3.624   8.779 -0.7934 -0.0087 -0.3207
  178bbb    H17 5336   8.946   3.561   8.689 -0.4264 -0.2099 -0.1700
  178bbb    H18 5337   8.937   3.564   8.871  0.1355  2.9040  1.7741
  178bbb     O1 5338   8.312   3.677   8.841  0.3419 -0.2513 -0.7643
  178bbb    H19 5339   8.720   3.957   8.984 -0.7010 -0.0711  0.2523
  179bbb     N1 5340   7.745   5.182   9.407  0.8716  0.5381 -0.1934
  179bbb     C1 5341   7.724   5.204   9.260 -0.3833  0.0752 -0.1796
  179bbb     H1 5342   7.738   5.311   9.241 -3.4879  0.5603 -0.3488
  179bbb     H2 5343   7.620   5.185   9.234 -0.1286  0.1842 -1.3576
  179bbb     C2 5344   7.685   5.295   9.483  0.0627  0.1672 -0.2128
  179bbb     H3 5345   7.655   5.257   9.581 -1.8436 -3.3086 -1.9486
  179bbb     H4 5346   7.593   5.322   9.430 -1.8284 -1.3482  2.0845
  179bbb     C3 5347   7.689   5.045   9.449  0.7204  0.0090 -0.5700
  179bbb     H5 5348   7.709   5.037   9.556  0.0397 -1.7172 -0.5367
  179bbb     H6 5349   7.741   4.965   9.396  2.5247  1.1256 -0.5420
  179bbb     C4 5350   7.534   5.025   9.430 -0.1245  0.8243  0.2243
  179bbb     H7 5351   7.484   5.122   9.438  0.0408  0.8821  0.5831
  179bbb     H8 5352   7.502   4.954   9.507  0.9393  0.3073  0.2177
  179bbb     C5 5353   7.813   5.124   9.165 -0.0980 -0.0662  0.0257
  179bbb     H9 5354   7.775   5.022   9.157  0.1411 -0.0661 -1.3074
  179bbb    H10 5355   7.917   5.118   9.202 -0.2691  1.5298  0.8509
  179bbb     C6 5356   7.772   5.423   9.491 -0.5620  0.4000 -0.1731
  179bbb    H11 5357   7.799   5.468   9.395  2.1651  1.9324  1.1758
  179bbb    H12 5358   7.867   5.402   9.543 -0.5786  0.9394  0.0798
  179bbb     C7 5359   7.504   4.964   9.293  0.4825  0.1820  0.3160
  179bbb    H13 5360   7.531   5.019   9.202  1.5685 -0.5766  0.1636
  179bbb    H14 5361   7.395   4.949   9.288  0.5657 -0.0609 -1.8864
  179bbb     C8 5362   7.710   5.528   9.587  0.0380  0.1495 -0.2062
  179bbb    H15 5363   7.602   5.535   9.574 -0.3176 -2.2230  0.8997
  179bbb    H16 5364   7.700   5.496   9.692 -3.1102 -1.4868 -0.9072
  179bbb     C9 5365   7.806   5.189   9.025 -0.6369  0.4223 -0.2556
  179bbb    H17 5366   7.702   5.194   8.990 -0.9932  1.9868  0.8877
  179bbb    H18 5367   7.860   5.123   8.956  1.2947  1.5739  0.0751
  179bbb     O1 5368   7.578   4.836   9.288 -0.0326  0.0236 -0.0310
  179bbb    H19 5369   7.846   5.189   9.426  1.7838 -1.6031 -3.3695
  180bbb     N1 5370   8.435   4.649   9.651  0.2434  0.3831 -0.4548
  180bbb     C1 5371   8.476   4.700   9.789 -0.0829  0.2955 -0.0258
  180bbb     H1 5372   8.585   4.702   9.787 -0.0562  0.5250  1.0045
  180bbb     H2 5373   8.437   4.627   9.860 -2.4548  1.0859 -0.4294
  180bbb     C2 5374   8.531   4.538   9.601 -0.3815 -0.2166 -0.6847
  180bbb     H3 5375   8.630   4.579   9.581  0.2064 -0.4239  1.4799
  180bbb     H4 5376   8.496   4.506   9.503 -2.1309 -0.7466  0.0791
  180bbb     C3 5377   8.301   4.583   9.666 -0.1130 -0.2433 -0.1908
  180bbb     H5 5378   8.243   4.635   9.743  1.8805  2.4992 -0.3848
  180bbb     H6 5379   8.298   4.478   9.695 -1.3871 -0.4317 -0.9146
  180bbb     C4 5380   8.214   4.588   9.540 -0.3708 -0.4049  0.2775
  180bbb     H7 5381   8.268   4.535   9.461  1.1827  0.7215  0.5334
  180bbb     H8 5382   8.217   4.689   9.499 -1.8512 -0.5143 -0.1504
  180bbb     C5 5383   8.410   4.835   9.829 -0.7391  0.2074 -0.2745
  180bbb     H9 5384   8.310   4.833   9.785 -1.4029  0.6543  1.1647
  180bbb    H10 5385   8.471   4.915   9.784  0.8187 -0.5731  0.3643
  180bbb     C6 5386   8.555   4.415   9.687 -0.3370  0.1784 -0.5106
  180bbb    H11 5387   8.460   4.360   9.683  0.4990 -1.4390  0.8760
  180bbb    H12 5388   8.576   4.446   9.790 -1.6846 -0.4891 -0.0090
  180bbb     C7 5389   8.078   4.516   9.552  0.4049  0.2757  0.1213
  180bbb    H13 5390   8.111   4.417   9.586 -0.1509  0.2308  0.5404
  180bbb    H14 5391   8.023   4.504   9.458  0.3151 -1.2129  0.3367
  180bbb     C8 5392   8.666   4.325   9.624  0.3827  0.3901 -0.4328
  180bbb    H15 5393   8.646   4.302   9.519  1.0364  3.8406 -1.4317
  180bbb    H16 5394   8.749   4.396   9.621 -0.2891  1.1554 -1.4688
  180bbb     C9 5395   8.401   4.863   9.982  0.6586  0.3113 -0.3323
  180bbb    H17 5396   8.345   4.956   9.995 -2.2990 -1.3695 -0.2914
  180bbb    H18 5397   8.496   4.874  10.036  0.6244 -1.8162  0.2559
  180bbb     O1 5398   7.992   4.577   9.647  0.4967 -0.5125 -0.1308
  180bbb    H19 5399   8.437   4.726   9.582  3.7151  0.9259  0.0663
  181bbb     N1 5400   7.823   3.929  10.326 -0.3808  0.0413  0.1116
  181bbb     C1 5401   7.787   4.061  10.393  0.6679 -0.0377  0.2097
  181bbb     H1 5402   7.774   4.131  10.310 -0.8376  0.5989  0.9551
  181bbb     H2 5403   7.874   4.102  10.445  0.6740  1.6447 -1.0383
  181bbb     C2 5404   7.871   3.826  10.423  0.8788  0.6965 -0.6896
  181bbb     H3 5405   7.875   3.731  10.371  2.5346  1.2191 -1.5749
  181bbb     H4 5406   7.805   3.827  10.511  1.0524 -1.2530 -0.4921
  181bbb     C3 5407   7.714   3.871  10.238 -0.0933  0.3929 -0.5818
  181bbb     H5 5408   7.678   3.957  10.181 -1.6402 -0.4610 -0.9533
  181bbb     H6 5409   7.636   3.825  10.298  0.7554  0.0634  0.2905
  181bbb     C4 5410   7.769   3.770  10.134  0.0069 -0.4637  0.3019
  181bbb     H7 5411   7.797   3.676  10.183  0.2763  1.2015  3.6054
  181bbb     H8 5412   7.867   3.798  10.094  0.6720  0.7594  2.6171
  181bbb     C5 5413   7.663   4.059  10.485 -0.2071  0.0990 -0.4072
  181bbb     H9 5414   7.682   4.007  10.579  1.0240  2.2376  0.5962
  181bbb    H10 5415   7.585   4.004  10.431 -0.4479 -0.7740  0.8009
  181bbb     C6 5416   8.012   3.834  10.488 -0.3683  0.0167 -0.3822
  181bbb    H11 5417   8.042   3.937  10.510 -2.0425  0.2426  1.1129
  181bbb    H12 5418   8.088   3.789  10.423  1.5089 -3.2356  3.5962
  181bbb     C7 5419   7.675   3.724  10.027  0.1413  0.1694 -0.5948
  181bbb    H13 5420   7.575   3.714  10.070 -1.0851  1.7899 -2.8198
  181bbb    H14 5421   7.715   3.631   9.984 -0.2390 -0.9647  1.4011
  181bbb     C8 5422   8.034   3.747  10.616  0.1010 -0.3702 -1.4921
  181bbb    H15 5423   8.137   3.758  10.653  0.5897  2.1253 -3.3445
  181bbb    H16 5424   7.972   3.790  10.695  0.7168  1.0458 -1.7426
  181bbb     C9 5425   7.621   4.199  10.512 -0.5161 -0.7908  0.0635
  181bbb    H17 5426   7.514   4.208  10.535  0.0431  0.9187  2.3883
  181bbb    H18 5427   7.639   4.263  10.425 -1.8513 -1.8552 -1.0361
  181bbb     O1 5428   7.658   3.828   9.922 -0.0996  0.3172 -0.2210
  181bbb    H19 5429   7.897   3.954  10.258 -0.1950  0.9327  0.6210
  182bbb     N1 5430   7.781   2.847   9.565  0.7415 -0.3955 -0.0780
  182bbb     C1 5431   7.869   2.809   9.685  0.1276 -0.5220 -0.7166
  182bbb     H1 5432   7.816   2.738   9.750 -1.9123  1.1834 -0.3833
  182bbb     H2 5433   7.873   2.901   9.743 -1.2413 -0.9765  0.1589
  182bbb     C2 5434   7.636   2.859   9.611 -0.2465 -0.1625 -0.5203
  182bbb     H3 5435   7.573   2.920   9.546  0.8459  1.8896  0.2402
  182bbb     H4 5436   7.634   2.899   9.712 -3.2059 -2.0561  0.2954
  182bbb     C3 5437   7.817   2.989   9.511 -0.1831 -0.5039  0.5859
  182bbb     H5 5438   7.920   2.985   9.475 -0.9784 -0.9284 -1.8910
  182bbb     H6 5439   7.811   3.057   9.596 -0.9573  0.1347  0.0390
  182bbb     C4 5440   7.739   3.051   9.393  0.7991  0.2191 -0.0029
  182bbb     H7 5441   7.644   3.091   9.429  0.0704 -0.3595 -1.2320
  182bbb     H8 5442   7.716   2.966   9.328 -1.4023  0.5506  0.2767
  182bbb     C5 5443   8.014   2.770   9.652  0.3839  0.3178  0.6276
  182bbb     H9 5444   8.079   2.764   9.741 -0.1638 -1.7020  0.9341
  182bbb    H10 5445   8.060   2.841   9.582  1.1292 -2.4662 -1.8776
  182bbb     C6 5446   7.573   2.722   9.616  0.4137  0.4745  0.0835
  182bbb    H11 5447   7.619   2.653   9.687 -2.9991 -2.0207  0.1041
  182bbb    H12 5448   7.585   2.669   9.520 -1.3767 -1.2589  0.7441
  182bbb     C7 5449   7.802   3.158   9.304 -0.2744 -0.3569 -0.8928
  182bbb    H13 5450   7.716   3.202   9.251  0.3718  2.1485 -0.0101
  182bbb    H14 5451   7.861   3.127   9.217  0.6672  0.6395 -0.6307
  182bbb     C8 5452   7.426   2.712   9.661  0.4381 -0.0168  0.2610
  182bbb    H15 5453   7.360   2.773   9.598  0.1041  0.1666  0.7777
  182bbb    H16 5454   7.380   2.613   9.661 -0.4446  0.3439  2.2594
  182bbb     C9 5455   8.024   2.625   9.586  0.4180 -0.0897 -0.3131
  182bbb    H17 5456   8.127   2.597   9.561  0.6545 -1.7701  2.1719
  182bbb    H18 5457   7.970   2.638   9.491 -1.0696 -1.3992  0.3202
  182bbb     O1 5458   7.868   3.262   9.393  0.2611  0.0306  0.3692
  182bbb    H19 5459   7.786   2.772   9.494 -1.1498 -1.0803  0.4505
  183bbb     N1 5460   5.317   5.509  11.083 -0.1315  0.1488  0.4735
  183bbb     C1 5461   5.289   5.656  11.103  0.2336  0.3752 -0.2004
  183bbb     H1 5462   5.378   5.704  11.061 -0.1840  0.4984 -0.9596
  183bbb     H2 5463   5.290   5.685  11.208  0.3968 -0.4539  0.0365
  183bbb     C2 5464   5.212   5.422  11.158  0.1229  0.3329 -0.2632
  183bbb     H3 5465   5.213   5.320  11.119 -0.2421  0.1006  0.3105
  183bbb     H4 5466   5.115   5.449  11.116  0.4663 -1.3404 -2.2885
  183bbb     C3 5467   5.327   5.477  10.931 -0.3466  0.1522 -0.1399
  183bbb     H5 5468   5.386   5.543  10.867  0.5901  0.6074  1.1512
  183bbb     H6 5469   5.227   5.485  10.888 -1.0104 -4.2955  0.0966
  183bbb     C4 5470   5.365   5.324  10.885 -0.0784  0.3315  0.8611
  183bbb     H7 5471   5.272   5.278  10.850 -0.9736  2.1960  0.6548
  183bbb     H8 5472   5.401   5.270  10.973 -0.5233  2.0246  2.1316
  183bbb     C5 5473   5.163   5.716  11.040 -0.3129  0.0791 -0.2925
  183bbb     H9 5474   5.075   5.706  11.105  0.4748 -1.7173  0.5507
  183bbb    H10 5475   5.125   5.649  10.962  1.6474  0.7627 -1.9388
  183bbb     C6 5476   5.207   5.435  11.311  0.0949 -0.3421  0.0029
  183bbb    H11 5477   5.231   5.536  11.345 -2.8485  0.7343 -0.8343
  183bbb    H12 5478   5.294   5.381  11.352 -2.0939 -2.7696  1.7403
  183bbb     C7 5479   5.480   5.317  10.773  0.3039 -0.5478  0.3295
  183bbb    H13 5480   5.498   5.212  10.747  1.4745 -0.2120 -0.2980
  183bbb    H14 5481   5.568   5.365  10.817 -0.1192  0.8404 -0.2950
  183bbb     C8 5482   5.078   5.399  11.384  1.0295 -0.8570  0.0774
  183bbb    H15 5483   5.024   5.310  11.351 -2.0524 -0.2060  2.8105
  183bbb    H16 5484   5.101   5.374  11.489 -1.1021 -1.3295  0.4958
  183bbb     C9 5485   5.174   5.866  11.006  0.5879  0.5873  0.0799
  183bbb    H17 5486   5.082   5.911  10.965  1.1544  0.8830 -0.8993
  183bbb    H18 5487   5.245   5.872  10.923  0.1985 -0.0968 -0.3090
  183bbb     O1 5488   5.439   5.394  10.652  0.3613 -0.3147  0.4729
  183bbb    H19 5489   5.407   5.489  11.129 -1.0603  0.4436  2.5275
  184bbb     N1 5490   5.178   5.601   9.975 -0.5071 -0.3503  0.3577
  184bbb     C1 5491   5.127   5.730   9.918 -0.0115  0.2490  0.3003
  184bbb     H1 5492   5.077   5.785   9.998 -0.2340 -2.6293  2.3187
  184bbb     H2 5493   5.049   5.699   9.848  1.3375  0.4067 -1.3265
  184bbb     C2 5494   5.286   5.628  10.082  0.1477 -0.6673  0.2199
  184bbb     H3 5495   5.361   5.688  10.031  1.1086 -2.7028 -0.8837
  184bbb     H4 5496   5.332   5.535  10.117 -0.3003 -0.2608  2.0193
  184bbb     C3 5497   5.054   5.522  10.030  0.3730 -0.0372  0.8075
  184bbb     H5 5498   4.985   5.502   9.948 -0.8353 -1.2449  2.0530
  184bbb     H6 5499   5.006   5.591  10.100  0.7825  0.4390  0.6201
  184bbb     C4 5500   5.069   5.383  10.100 -0.1344  0.0213 -0.6454
  184bbb     H7 5501   4.969   5.346  10.123 -0.4353 -0.3424 -2.4257
  184bbb     H8 5502   5.107   5.394  10.203 -0.2868 -3.5316 -0.0792
  184bbb     C5 5503   5.223   5.820   9.843 -0.5156  0.3221 -0.2477
  184bbb     H9 5504   5.311   5.845   9.903 -0.1077  0.7529 -1.0095
  184bbb    H10 5505   5.173   5.916   9.825  2.0959  1.7544 -0.3126
  184bbb     C6 5506   5.254   5.718  10.209  0.2664  0.7013  0.9159
  184bbb    H11 5507   5.191   5.653  10.271  0.4269 -0.7785 -0.4011
  184bbb    H12 5508   5.205   5.813  10.182  0.0299 -0.1981 -2.2508
  184bbb     C7 5509   5.124   5.267  10.016 -0.3281 -0.0093 -0.2414
  184bbb    H13 5510   5.103   5.267   9.908  0.9892 -3.5516 -0.6457
  184bbb    H14 5511   5.072   5.174  10.043 -0.6219 -0.0788 -1.0174
  184bbb     C8 5512   5.397   5.746  10.268  0.3254  0.0890 -0.1915
  184bbb    H15 5513   5.436   5.654  10.313 -1.5735 -1.8000 -2.1512
  184bbb    H16 5514   5.473   5.786  10.200  0.6550  0.6949  0.5214
  184bbb     C9 5515   5.274   5.775   9.706  0.6657 -0.2017  0.2736
  184bbb    H17 5516   5.198   5.791   9.628 -0.2470 -0.4137  1.1043
  184bbb    H18 5517   5.297   5.668   9.712  0.1209 -0.2554  1.8600
  184bbb     O1 5518   5.268   5.257  10.030 -0.2915 -0.0232  0.3774
  184bbb    H19 5519   5.221   5.542   9.902  1.8902  1.8721 -0.1697
  185bbb     N1 5520   7.079   5.265  10.832 -0.0971 -0.1557 -0.2346
  185bbb     C1 5521   7.143   5.135  10.903 -0.0132 -0.4012 -0.4149
  185bbb     H1 5522   7.160   5.049  10.838  0.4102  0.2029 -1.1214
  185bbb     H2 5523   7.066   5.111  10.977  0.5808  0.7229  0.5884
  185bbb     C2 5524   7.165   5.304  10.713  0.5003 -0.3406 -0.4475
  185bbb     H3 5525   7.159   5.233  10.631  0.5675 -0.1914 -0.5833
  185bbb     H4 5526   7.270   5.291  10.741  0.5754 -0.5831 -0.8438
  185bbb     C3 5527   6.942   5.226  10.777 -0.2802 -0.4662  0.1679
  185bbb     H5 5528   6.952   5.130  10.728 -1.9505  0.0382 -1.2686
  185bbb     H6 5529   6.900   5.299  10.708  2.3390  2.7070  1.6606
  185bbb     C4 5530   6.843   5.206  10.893 -0.4442  0.6532 -0.4687
  185bbb     H7 5531   6.833   5.295  10.956  1.6579 -1.2778  2.9173
  185bbb     H8 5532   6.898   5.139  10.961  0.9199 -0.9360 -2.9867
  185bbb     C5 5533   7.271   5.162  10.981  0.8961 -0.7147 -0.1650
  185bbb     H9 5534   7.275   5.260  11.031  0.9803  0.0144 -1.5387
  185bbb    H10 5535   7.356   5.177  10.913  0.1207  0.5122 -0.9079
  185bbb     C6 5536   7.138   5.446  10.653 -0.0155 -0.1421  0.0120
  185bbb    H11 5537   7.151   5.520  10.732 -2.1370  0.0815  0.2048
  185bbb    H12 5538   7.032   5.456  10.628 -0.0923 -0.7270  0.0751
  185bbb     C7 5539   6.703   5.143  10.858  0.4362  0.1107 -0.2145
  185bbb    H13 5540   6.650   5.221  10.803 -0.9603 -0.9750 -0.4770
  185bbb    H14 5541   6.650   5.121  10.951  2.4840  0.7963  1.2036
  185bbb     C8 5542   7.226   5.462  10.533 -0.0860 -0.1286  0.0117
  185bbb    H15 5543   7.332   5.462  10.561 -0.3219 -0.8594  0.9564
  185bbb    H16 5544   7.204   5.385  10.457  1.3634 -0.9100  0.3305
  185bbb     C9 5545   7.292   5.049  11.079 -0.2206 -0.0337  0.1046
  185bbb    H17 5546   7.285   4.949  11.036  0.2874 -0.3214  0.6856
  185bbb    H18 5547   7.213   5.051  11.155  0.9347  0.0266  1.3434
  185bbb     O1 5548   6.731   5.026  10.779  0.8619 -0.6385  0.1233
  185bbb    H19 5549   7.077   5.342  10.901 -1.3248 -0.8674  0.5581
  186bbb     N1 5550   6.698   4.146  11.121 -0.4220 -0.3317 -0.2785
  186bbb     C1 5551   6.696   4.000  11.152 -0.1278  0.0666  0.5084
  186bbb     H1 5552   6.631   3.956  11.076  0.3915  2.7409 -1.6226
  186bbb     H2 5553   6.654   3.978  11.250 -0.9844 -3.3004 -0.4808
  186bbb     C2 5554   6.786   4.233  11.205 -0.3201  0.2885 -0.3024
  186bbb     H3 5555   6.886   4.234  11.160 -1.1106  2.1453 -2.1830
  186bbb     H4 5556   6.796   4.196  11.308  0.0725  1.7353  0.2034
  186bbb     C3 5557   6.745   4.172  10.974 -0.0500 -0.5135  0.1881
  186bbb     H5 5558   6.847   4.136  10.968  1.1047  2.4674 -0.0942
  186bbb     H6 5559   6.742   4.281  10.961 -1.4489 -0.6294 -0.7022
  186bbb     C4 5560   6.676   4.121  10.850 -0.0574 -0.6236  0.6644
  186bbb     H7 5561   6.573   4.160  10.843  0.4234  0.8007  1.1303
  186bbb     H8 5562   6.664   4.012  10.850 -0.7953 -0.5560 -0.1800
  186bbb     C5 5563   6.833   3.932  11.152  0.0021 -1.0628  0.0544
  186bbb     H9 5564   6.901   3.981  11.222 -0.0758  0.5845 -0.9698
  186bbb    H10 5565   6.883   3.960  11.058 -0.6643  1.4404  0.3601
  186bbb     C6 5566   6.735   4.379  11.218  0.1027  0.3740 -0.7109
  186bbb    H11 5567   6.627   4.377  11.236  0.1367  1.9295 -0.1237
  186bbb    H12 5568   6.754   4.432  11.124 -0.6931 -0.7845 -1.5545
  186bbb     C7 5569   6.742   4.171  10.722  0.6365 -0.1087  0.1375
  186bbb    H13 5570   6.687   4.125  10.639  1.2159  0.1181 -0.3788
  186bbb    H14 5571   6.847   4.137  10.723  0.5829 -0.3082 -0.6908
  186bbb     C8 5572   6.809   4.453  11.332 -0.0410 -0.8943 -0.3456
  186bbb    H15 5573   6.913   4.468  11.301 -0.7224  2.3408 -1.4008
  186bbb    H16 5574   6.761   4.550  11.348  0.1615 -1.0061  1.0909
  186bbb     C9 5575   6.820   3.777  11.173 -0.6240 -0.1723 -0.4180
  186bbb    H17 5576   6.903   3.723  11.126  0.6630  1.6155 -0.2680
  186bbb    H18 5577   6.725   3.743  11.128 -2.1432  0.7787  1.9083
  186bbb     O1 5578   6.736   4.311  10.703 -0.2226 -0.2959 -0.5647
  186bbb    H19 5579   6.607   4.189  11.142  0.5382  0.9252  1.5652
  187bbb     N1 5580   5.286   4.270   9.849 -0.1468  0.0438  0.1018
  187bbb     C1 5581   5.234   4.161   9.754 -0.4347  0.0521  0.8136
  187bbb     H1 5582   5.254   4.189   9.651 -0.0970 -1.8670  0.3056
  187bbb     H2 5583   5.125   4.163   9.756 -0.4528  1.6006 -0.3079
  187bbb     C2 5584   5.255   4.409   9.799 -0.1454 -0.1010  0.5602
  187bbb     H3 5585   5.297   4.406   9.698 -0.9650 -0.4290  0.2254
  187bbb     H4 5586   5.315   4.477   9.860  0.6937  0.5438 -0.9332
  187bbb     C3 5587   5.220   4.239   9.986 -0.2240  0.2844 -0.0878
  187bbb     H5 5588   5.202   4.132   9.996 -0.7998  0.3520 -0.3580
  187bbb     H6 5589   5.117   4.276   9.977 -0.6278 -0.5668  0.8849
  187bbb     C4 5590   5.275   4.298  10.112  0.0434  0.2444 -0.7824
  187bbb     H7 5591   5.208   4.266  10.192 -0.2540  2.1543 -0.2178
  187bbb     H8 5592   5.274   4.407  10.106 -0.7857  0.1906 -1.8186
  187bbb     C5 5593   5.277   4.019   9.785  0.9687  0.9468  0.5292
  187bbb     H9 5594   5.249   3.995   9.888  0.3973  0.5842  0.2961
  187bbb    H10 5595   5.386   4.020   9.781  0.9726 -0.7906 -2.1560
  187bbb     C6 5596   5.105   4.452   9.778  0.6220 -0.4676 -0.2712
  187bbb    H11 5597   5.063   4.444   9.879  0.7211  0.6676 -0.1313
  187bbb    H12 5598   5.041   4.385   9.720 -1.1869  0.9153  0.0595
  187bbb     C7 5599   5.426   4.261  10.135 -0.2043  0.2989  0.1682
  187bbb    H13 5600   5.469   4.306  10.226 -0.2987  0.7069  0.0096
  187bbb    H14 5601   5.480   4.295  10.046 -0.1024 -0.7899 -0.2014
  187bbb     C8 5602   5.093   4.588   9.714 -0.5718  0.0048 -0.0949
  187bbb    H15 5603   5.115   4.664   9.790 -1.8358  0.7216 -0.4042
  187bbb    H16 5604   5.158   4.604   9.627  1.3699 -0.4477  1.2141
  187bbb     C9 5605   5.203   3.919   9.690 -0.2869  0.3266  0.0599
  187bbb    H17 5606   5.272   3.908   9.605 -1.1329  0.5743 -0.6681
  187bbb    H18 5607   5.107   3.953   9.649  0.3839  0.3690 -1.5353
  187bbb     O1 5608   5.438   4.114  10.140 -0.8796  0.1265  0.7208
  187bbb    H19 5609   5.387   4.257   9.868 -0.1511  1.9424  1.7675
  188bbb     N1 5610   5.185   3.700  10.386 -0.5689  0.8395 -0.3592
  188bbb     C1 5611   5.266   3.758  10.497 -0.2271  0.1325 -0.5930
  188bbb     H1 5612   5.209   3.740  10.589 -1.6500  2.1186 -1.0165
  188bbb     H2 5613   5.259   3.866  10.483  1.0729  0.2676 -0.2684
  188bbb     C2 5614   5.040   3.731  10.398  0.3091 -0.2677 -0.4039
  188bbb     H3 5615   5.006   3.755  10.297  0.7337 -1.3621 -0.8287
  188bbb     H4 5616   5.032   3.826  10.450 -0.1839  0.9176 -2.5391
  188bbb     C3 5617   5.242   3.759  10.250  0.5627  0.0590 -0.8837
  188bbb     H5 5618   5.346   3.791  10.251  0.1210  1.7331 -2.4412
  188bbb     H6 5619   5.188   3.852  10.233 -1.0154 -0.7413 -0.4510
  188bbb     C4 5620   5.222   3.662  10.132  0.6603 -0.8391 -0.6683
  188bbb     H7 5621   5.222   3.722  10.040  1.6882  0.7197  0.2968
  188bbb     H8 5622   5.123   3.616  10.143  0.3269 -0.3257 -1.4577
  188bbb     C5 5623   5.407   3.700  10.523  0.0516  1.1459  0.6131
  188bbb     H9 5624   5.457   3.707  10.426 -0.2796  0.2402  0.3775
  188bbb    H10 5625   5.399   3.593  10.545  0.4020  0.9253 -0.3029
  188bbb     C6 5626   4.955   3.624  10.462  1.2102  0.6029  0.3939
  188bbb    H11 5627   5.004   3.582  10.551 -0.2164 -0.5390  0.6787
  188bbb    H12 5628   4.936   3.544  10.389 -2.0672  1.1247  0.5667
  188bbb     C7 5629   5.320   3.547  10.135 -1.0881  0.6616  0.2638
  188bbb    H13 5630   5.315   3.505  10.034 -1.8355  1.9388 -0.2585
  188bbb    H14 5631   5.296   3.468  10.208  1.9000 -1.4260 -0.8094
  188bbb     C8 5632   4.809   3.670  10.504 -1.1405 -0.0908  0.2217
  188bbb    H15 5633   4.755   3.602  10.571 -2.1823  0.0775 -0.4331
  188bbb    H16 5634   4.821   3.766  10.556 -0.0753  0.5725 -1.1584
  188bbb     C9 5635   5.485   3.763  10.647 -0.1413 -0.5772  0.1244
  188bbb    H17 5636   5.457   3.869  10.651  1.1108 -0.1385 -1.5946
  188bbb    H18 5637   5.591   3.755  10.619 -0.4704 -1.6445 -0.9178
  188bbb     O1 5638   5.452   3.597  10.156  0.4047  0.0317 -0.5364
  188bbb    H19 5639   5.197   3.598  10.378 -0.1660  0.6618  1.9059
  189bbb     N1 5640   5.539   2.300  10.403 -0.1555  0.2876 -0.1332
  189bbb     C1 5641   5.651   2.193  10.395  0.1790 -0.0564  0.4075
  189bbb     H1 5642   5.596   2.102  10.368 -1.0171  1.3733 -2.3439
  189bbb     H2 5643   5.691   2.186  10.496  0.9970  0.6295  0.1378
  189bbb     C2 5644   5.442   2.260  10.514 -0.0147  0.2837 -0.2138
  189bbb     H3 5645   5.384   2.352  10.520  1.0327  1.1164 -1.9495
  189bbb     H4 5646   5.494   2.254  10.610  1.1352 -0.2853 -0.8604
  189bbb     C3 5647   5.595   2.440  10.442 -0.4414 -0.6210  0.2103
  189bbb     H5 5648   5.687   2.447  10.384 -1.8275 -0.9957 -2.1751
  189bbb     H6 5649   5.612   2.436  10.549 -0.5782 -1.6216  0.2082
  189bbb     C4 5650   5.515   2.561  10.401  0.9585 -0.7702 -0.0723
  189bbb     H7 5651   5.421   2.562  10.459  1.4592 -2.2084  0.8276
  189bbb     H8 5652   5.486   2.535  10.299  0.2322  1.1442 -0.3976
  189bbb     C5 5653   5.756   2.218  10.286 -0.5397 -0.1406 -0.1202
  189bbb     H9 5654   5.810   2.312  10.304 -2.1918  0.6951  0.6701
  189bbb    H10 5655   5.697   2.227  10.194  0.0542  1.6705 -0.3831
  189bbb     C6 5656   5.353   2.146  10.484  0.6737 -0.4767  0.5089
  189bbb    H11 5657   5.407   2.054  10.460 -0.9362 -1.2204 -0.3929
  189bbb    H12 5658   5.286   2.176  10.402  1.8124  1.8362  0.3378
  189bbb     C7 5659   5.601   2.693  10.416  0.0902 -0.4649  0.0490
  189bbb    H13 5660   5.609   2.715  10.523  2.2883 -1.8433  0.2363
  189bbb    H14 5661   5.549   2.775  10.366  1.0931 -0.1537 -0.4966
  189bbb     C8 5662   5.258   2.109  10.593 -0.4226  0.2075 -0.7082
  189bbb    H15 5663   5.205   2.204  10.608  2.0232  1.9251 -2.1992
  189bbb    H16 5664   5.195   2.021  10.575  1.1959 -1.3639  0.8407
  189bbb     C9 5665   5.861   2.112  10.271 -0.1836 -0.1536  0.4618
  189bbb    H17 5666   5.939   2.145  10.202 -1.0870  0.0624 -0.4679
  189bbb    H18 5667   5.794   2.033  10.236 -0.0494  0.3624 -1.0046
  189bbb     O1 5668   5.730   2.673  10.367  0.7166 -0.3600 -0.0818
  189bbb    H19 5669   5.496   2.301  10.310 -1.5742  0.6335  0.5096
  190bbb     N1 5670   6.768   2.613  10.548 -0.0357  0.7801 -0.0471
  190bbb     C1 5671   6.915   2.585  10.540  0.3375 -0.1927 -0.6589
  190bbb     H1 5672   6.954   2.660  10.610 -2.5322  2.6327 -1.8263
  190bbb     H2 5673   6.946   2.614  10.439 -2.5597 -1.1160 -1.8980
  190bbb     C2 5674   6.718   2.584  10.692  0.0881  0.4841  0.7713
  190bbb     H3 5675   6.723   2.476  10.707  1.7294  0.2792 -0.9620
  190bbb     H4 5676   6.612   2.608  10.698 -0.0715 -0.2745  1.1746
  190bbb     C3 5677   6.746   2.756  10.527  0.4442 -0.2164 -0.4418
  190bbb     H5 5678   6.772   2.764  10.421  1.5178  0.5642 -0.1280
  190bbb     H6 5679   6.815   2.816  10.586  0.0595 -0.4414  0.2451
  190bbb     C4 5680   6.598   2.809  10.528 -0.3026 -0.5058  0.0349
  190bbb     H7 5681   6.560   2.847  10.624 -3.3387 -0.5678 -1.0062
  190bbb     H8 5682   6.539   2.717  10.511 -0.3155 -1.5211  4.4123
  190bbb     C5 5683   6.977   2.449  10.576  0.3704  0.5855 -0.0133
  190bbb     H9 5684   6.931   2.368  10.518  1.1038  0.1981 -0.0683
  190bbb    H10 5685   6.974   2.432  10.684 -0.2901  1.6833  0.1477
  190bbb     C6 5686   6.793   2.653  10.815 -0.3899 -0.6726  1.0331
  190bbb    H11 5687   6.768   2.759  10.810 -0.0187 -0.5389  1.8932
  190bbb    H12 5688   6.902   2.648  10.800 -0.8005 -0.5794 -3.4849
  190bbb     C7 5689   6.577   2.918  10.429  0.4579 -0.0321  0.4985
  190bbb    H13 5690   6.623   2.890  10.334  1.8944 -0.4807  1.2842
  190bbb    H14 5691   6.625   3.011  10.462 -1.0353  1.0234 -0.1710
  190bbb     C8 5692   6.751   2.587  10.941  0.9804  1.3324  0.3059
  190bbb    H15 5693   6.799   2.649  11.018  0.9002  2.6084 -0.6431
  190bbb    H16 5694   6.641   2.594  10.942  0.9104  0.4479  0.1106
  190bbb     C9 5695   7.128   2.452  10.541 -0.1039  0.4131 -0.0686
  190bbb    H17 5696   7.162   2.477  10.440  0.9007 -1.9082 -0.3541
  190bbb    H18 5697   7.162   2.349  10.555  0.2762  0.5015 -0.3419
  190bbb     O1 5698   6.429   2.936  10.414  0.0092  0.9855 -0.7452
  190bbb    H19 5699   6.716   2.559  10.477 -1.9707  3.1990 -0.6087
  191ccc     C1 5700   4.160   4.692   2.252 -0.4224 -0.3472 -0.3631
  191ccc     H1 5701   4.173   4.594   2.204 -0.4489 -2.1991  3.1059
  191ccc     H2 5702   4.141   4.674   2.357 -0.3414 -0.9282 -0.4453
  191ccc     C2 5703   4.039   4.748   2.190 -0.0758 -0.0226  0.0119
  191ccc     H3 5704   4.009   4.842   2.238 -0.0276  0.5183 -1.0006
  191ccc     H4 5705   4.063   4.780   2.088  1.2651  3.6061  1.3064
  191ccc     C3 5706   3.924   4.650   2.187  0.2380 -0.4360  1.3960
  191ccc     H5 5707   3.967   4.568   2.128 -0.6440 -0.1335  0.2862
  191ccc     H6 5708   3.842   4.698   2.131  0.8064  1.2456  1.9457
  191ccc     N1 5709   4.282   4.788   2.248 -0.5349  0.0944  0.2203
  191ccc     H7 5710   4.271   4.878   2.297 -0.9979 -0.0230  0.3412
  191ccc     H8 5711   4.363   4.743   2.293 -1.5089 -0.7197  1.2391
  191ccc     O1 5712   3.888   4.622   2.322 -0.1842 -0.1711 -0.2120
  191ccc    H17 5713   4.307   4.811   2.151 -0.5218  1.3588  0.5086
  192ccc     C1 5714   2.888   5.042   2.549 -0.4292  0.2475 -0.0837
  192ccc     H1 5715   2.889   5.048   2.658 -1.1898 -1.5729  0.0563
  192ccc     H2 5716   2.932   4.944   2.533  1.1628  1.1548 -1.6299
  192ccc     C2 5717   2.964   5.150   2.475  0.2872 -0.1491 -0.3865
  192ccc     H3 5718   2.950   5.132   2.368 -0.5027 -0.3489 -0.2586
  192ccc     H4 5719   2.916   5.246   2.497  0.1299 -0.1421 -0.7549
  192ccc     C3 5720   3.114   5.168   2.496 -0.4522  0.1059 -0.1545
  192ccc     H5 5721   3.110   5.231   2.586 -0.8155 -0.1241 -0.0083
  192ccc     H6 5722   3.154   5.239   2.423  0.2216 -0.2656 -0.1500
  192ccc     N1 5723   2.745   5.034   2.513  0.5218 -0.0181 -0.4230
  192ccc     H7 5724   2.740   5.022   2.411 -3.7961  3.4066 -0.9105
  192ccc     H8 5725   2.693   4.964   2.569  0.7123  0.1001 -0.0932
  192ccc     O1 5726   3.179   5.034   2.502 -0.3168  0.4004 -0.1169
  192ccc    H17 5727   2.698   5.123   2.531 -1.4916 -1.4748  2.3930
  193ccc     C1 5728   3.912   5.571   2.058  0.3837  0.4655 -0.2018
  193ccc     H1 5729   3.924   5.468   2.024  1.3981  0.9126 -1.2338
  193ccc     H2 5730   3.968   5.584   2.151 -0.3331  0.9116  0.1730
  193ccc     C2 5731   3.769   5.602   2.093 -0.6164 -0.2545  0.4775
  193ccc     H3 5732   3.769   5.705   2.129  1.3086 -0.2856  0.6357
  193ccc     H4 5733   3.710   5.595   2.001  1.9879 -0.0822 -1.3134
  193ccc     C3 5734   3.718   5.506   2.197 -0.0612  0.8882 -0.1697
  193ccc     H5 5735   3.740   5.403   2.168 -2.1040  0.2015  0.5992
  193ccc     H6 5736   3.609   5.517   2.194 -0.0326  1.0251 -1.7399
  193ccc     N1 5737   3.965   5.672   1.964  0.5762  0.8830 -0.1496
  193ccc     H7 5738   3.913   5.666   1.875 -1.6819  2.1371  0.9923
  193ccc     H8 5739   3.963   5.768   2.001  3.3584  1.2966 -0.8503
  193ccc     O1 5740   3.763   5.542   2.329 -0.0273 -1.1500  0.1601
  193ccc    H17 5741   4.064   5.654   1.945  0.4930  0.6538 -0.3672
  194ccc     C1 5742   2.873   6.091   2.469  0.0833 -0.5806  0.4132
  194ccc     H1 5743   2.893   6.113   2.574 -0.8973  3.8946 -0.1122
  194ccc     H2 5744   2.886   5.984   2.456 -0.2105 -0.4946 -0.6434
  194ccc     C2 5745   2.983   6.159   2.381 -0.0896  0.2199  0.0649
  194ccc     H3 5746   2.974   6.112   2.283  1.8947 -0.8913  0.3708
  194ccc     H4 5747   2.952   6.263   2.362 -0.0043  0.4264  0.9889
  194ccc     C3 5748   3.128   6.149   2.437  0.2855  0.2936  0.0750
  194ccc     H5 5749   3.146   6.213   2.524  0.7906  0.0012  0.1895
  194ccc     H6 5750   3.194   6.185   2.357  1.0154 -1.2831 -0.0567
  194ccc     N1 5751   2.734   6.131   2.427 -0.5349  0.2584  0.7114
  194ccc     H7 5752   2.704   6.217   2.475 -0.1888  0.8225 -0.0719
  194ccc     H8 5753   2.705   6.137   2.328 -1.4740  1.7450  1.0425
  194ccc     O1 5754   3.147   6.006   2.452  0.1389  0.3901 -0.1221
  194ccc    H17 5755   2.664   6.061   2.458 -0.9354  0.7519  0.9382
  195ccc     C1 5756   4.871   6.008   3.849 -0.0008 -0.6100 -0.5778
  195ccc     H1 5757   4.839   6.106   3.813  2.7021  1.5467  2.3678
  195ccc     H2 5758   4.788   5.937   3.852 -0.4165 -0.1179 -0.1703
  195ccc     C2 5759   4.920   6.023   3.993 -0.9085 -0.0321 -0.6047
  195ccc     H3 5760   4.939   5.925   4.038 -3.0942 -0.6944 -0.9768
  195ccc     H4 5761   5.007   6.090   3.991 -0.8550 -0.1105 -1.8032
  195ccc     C3 5762   4.831   6.101   4.098  0.3093 -0.2827 -0.6740
  195ccc     H5 5763   4.826   6.209   4.081  1.5368 -0.2903 -1.1472
  195ccc     H6 5764   4.867   6.085   4.201 -2.4492 -0.2171  0.4058
  195ccc     N1 5765   4.965   5.966   3.745 -0.3548 -0.6915  0.0072
  195ccc     H7 5766   4.926   5.974   3.650 -0.3233  0.4939  0.0845
  195ccc     H8 5767   5.051   6.023   3.741  1.1440 -2.8229 -0.9185
  195ccc     O1 5768   4.694   6.050   4.102  0.6777 -0.1758 -0.5850
  195ccc    H17 5769   5.002   5.870   3.754  0.2052 -0.3789  1.1907
  196ccc     C1 5770   4.787   5.570   4.688  0.4162  0.1108 -0.2656
  196ccc     H1 5771   4.759   5.567   4.793 -2.0194 -1.0115 -0.8579
  196ccc     H2 5772   4.779   5.674   4.654  1.5189  0.1498 -0.4419
  196ccc     C2 5773   4.687   5.474   4.610 -1.0103  0.3918 -0.5558
  196ccc     H3 5774   4.710   5.467   4.503 -2.4179  0.8017 -0.9070
  196ccc     H4 5775   4.703   5.370   4.643  0.6472  0.7990  0.0148
  196ccc     C3 5776   4.537   5.499   4.628  0.3617 -0.2659 -0.2384
  196ccc     H5 5777   4.512   5.484   4.734 -0.0687 -3.1369 -0.6699
  196ccc     H6 5778   4.471   5.441   4.563 -2.9809  1.6137  1.2251
  196ccc     N1 5779   4.937   5.537   4.685  0.5879 -0.1557 -0.0880
  196ccc     H7 5780   4.950   5.442   4.722 -1.9289 -0.8113 -0.7163
  196ccc     H8 5781   4.957   5.524   4.585  1.3990 -1.5235  0.2203
  196ccc     O1 5782   4.513   5.635   4.599 -0.1887 -0.1138  0.1604
  196ccc    H17 5783   4.999   5.602   4.736  1.8561 -1.2128 -0.2262
  197ccc     C1 5784   3.790   6.384   2.396 -0.9713  0.2547 -0.3312
  197ccc     H1 5785   3.812   6.485   2.361  0.3753 -0.0727 -0.4586
  197ccc     H2 5786   3.706   6.344   2.339 -0.0234 -1.8493 -0.3298
  197ccc     C2 5787   3.766   6.397   2.552  0.1902  0.3966  0.6216
  197ccc     H3 5788   3.666   6.437   2.569 -0.4200 -1.5397  1.8994
  197ccc     H4 5789   3.766   6.296   2.594 -0.1025 -1.0708 -2.6229
  197ccc     C3 5790   3.859   6.486   2.627 -0.1925  0.2710 -0.4271
  197ccc     H5 5791   3.835   6.591   2.604 -0.1721 -0.1330 -2.5475
  197ccc     H6 5792   3.965   6.475   2.597  0.3858 -0.6460  1.7652
  197ccc     N1 5793   3.908   6.304   2.354  0.1773 -0.1636 -0.1262
  197ccc     H7 5794   3.998   6.329   2.398 -0.4489 -1.4529  2.0244
  197ccc     H8 5795   3.892   6.203   2.365 -1.9741  0.2434  0.8537
  197ccc     O1 5796   3.844   6.467   2.768  0.2005  0.0718 -0.0241
  197ccc    H17 5797   3.919   6.323   2.253 -1.3815 -1.0766 -0.5001
  198ccc     C1 5798   4.647   6.425   3.264  0.1344  0.1007 -1.1078
  198ccc     H1 5799   4.698   6.489   3.336 -1.5492  2.5611 -1.9918
  198ccc     H2 5800   4.568   6.485   3.219  0.6559  0.3874 -1.6563
  198ccc     C2 5801   4.586   6.297   3.329 -0.4121  0.0233  0.4985
  198ccc     H3 5802   4.567   6.230   3.245  0.7999  2.0151 -1.4546
  198ccc     H4 5803   4.658   6.246   3.395 -1.0470 -0.1079  1.1066
  198ccc     C3 5804   4.460   6.333   3.408  0.2499 -0.9567  0.2785
  198ccc     H5 5805   4.492   6.389   3.497  0.0861 -1.5749  0.7348
  198ccc     H6 5806   4.400   6.243   3.428 -1.8392  0.3877  0.4282
  198ccc     N1 5807   4.750   6.400   3.151 -0.4462  0.1251  0.4803
  198ccc     H7 5808   4.704   6.352   3.072 -1.2023  1.9415 -0.2389
  198ccc     H8 5809   4.788   6.488   3.112  0.9636  0.0814  1.6936
  198ccc     O1 5810   4.376   6.415   3.328  0.2360 -0.4033  0.0909
  198ccc    H17 5811   4.822   6.337   3.188 -0.8499  1.0280  2.9843
  199ccc     C1 5812   2.104   2.974   3.319 -0.0976 -0.0351  0.2762
  199ccc     H1 5813   2.031   2.993   3.241 -2.4537 -1.7813  1.9104
  199ccc     H2 5814   2.170   3.061   3.315  0.0934 -0.1935 -0.0918
  199ccc     C2 5815   2.162   2.836   3.294  0.4400  0.5614 -0.4131
  199ccc     H3 5816   2.200   2.788   3.384  1.6253 -0.3459 -1.3597
  199ccc     H4 5817   2.089   2.759   3.264  0.2274  1.1696 -1.5511
  199ccc     C3 5818   2.267   2.839   3.176 -0.4057  0.3221  0.9443
  199ccc     H5 5819   2.228   2.908   3.099  2.6112 -0.3641 -1.3965
  199ccc     H6 5820   2.273   2.736   3.141 -0.1600 -0.4989  3.2220
  199ccc     N1 5821   2.031   2.990   3.451 -0.8214 -0.1217 -0.2483
  199ccc     H7 5822   2.103   3.020   3.519  0.1936  0.1379 -1.3953
  199ccc     H8 5823   1.952   3.054   3.437 -0.0443  0.6805 -1.1754
  199ccc     O1 5824   2.394   2.867   3.230 -0.0786  0.0768  0.7026
  199ccc    H17 5825   1.994   2.899   3.481  0.7299 -0.6466  0.2059
  200ccc     C1 5826   3.532   2.610   3.250 -0.4548 -0.4086 -0.2351
  200ccc     H1 5827   3.551   2.505   3.269  0.0928 -0.3872 -0.6093
  200ccc     H2 5828   3.449   2.634   3.316 -1.8517 -2.6990 -1.0629
  200ccc     C2 5829   3.488   2.635   3.105  0.4707  0.1710 -0.0468
  200ccc     H3 5830   3.483   2.742   3.083 -0.3843 -0.1118 -1.3360
  200ccc     H4 5831   3.558   2.594   3.031 -0.4833  1.6778 -1.8838
  200ccc     C3 5832   3.354   2.573   3.068 -0.9197  0.8224 -0.1881
  200ccc     H5 5833   3.342   2.477   3.120  0.0812  0.9715  0.3349
  200ccc     H6 5834   3.341   2.559   2.960 -0.6313 -0.2459 -0.0951
  200ccc     N1 5835   3.657   2.691   3.281 -0.1067 -0.2770  0.4010
  200ccc     H7 5836   3.716   2.670   3.199 -1.5941 -0.8280 -0.5822
  200ccc     H8 5837   3.641   2.792   3.292  1.2007  0.0385 -0.3269
  200ccc     O1 5838   3.253   2.651   3.126 -0.2357  0.3844 -0.4935
  200ccc    H17 5839   3.710   2.652   3.360 -2.4286 -1.0995  1.6337
  201ccc     C1 5840   1.930   3.737   3.173  0.4381  1.3464  0.0109
  201ccc     H1 5841   1.988   3.829   3.163  2.8602 -0.0388  0.6341
  201ccc     H2 5842   1.950   3.691   3.269 -2.2322 -0.9274 -0.3799
  201ccc     C2 5843   1.980   3.621   3.075  0.5030  0.2771  0.0943
  201ccc     H3 5844   1.962   3.526   3.126  1.1016  0.8394  1.3914
  201ccc     H4 5845   1.919   3.625   2.984 -0.2029  2.1055  0.6035
  201ccc     C3 5846   2.130   3.643   3.038  0.1598  0.2189 -0.2935
  201ccc     H5 5847   2.141   3.745   2.999 -0.0161  1.0201  1.6526
  201ccc     H6 5848   2.164   3.582   2.954 -0.1744 -0.0186 -0.2577
  201ccc     N1 5849   1.776   3.759   3.170 -0.4193 -0.2602  0.2319
  201ccc     H7 5850   1.721   3.684   3.213 -1.5029  1.1942  1.4916
  201ccc     H8 5851   1.756   3.848   3.217 -0.3543  0.4781 -1.0818
  201ccc     O1 5852   2.212   3.621   3.155  0.0101  0.3284 -0.0225
  201ccc    H17 5853   1.741   3.753   3.073 -0.1897 -0.0942  0.1356
  202ccc     C1 5854   2.180   4.520   2.800 -0.3795  0.7176 -0.3139
  202ccc     H1 5855   2.213   4.452   2.721 -0.0723 -0.0354  0.4380
  202ccc     H2 5856   2.249   4.604   2.815 -0.4619  0.8198 -0.5026
  202ccc     C2 5857   2.183   4.436   2.936  0.6630  0.0002 -0.5687
  202ccc     H3 5858   2.123   4.500   3.002  0.8552  0.0341 -0.4260
  202ccc     H4 5859   2.127   4.343   2.920 -0.9189  0.8793 -0.3240
  202ccc     C3 5860   2.322   4.400   2.995 -0.0719  0.3090 -0.4001
  202ccc     H5 5861   2.317   4.386   3.104 -2.4559 -2.4090 -0.7567
  202ccc     H6 5862   2.378   4.493   2.976  1.2647 -0.0794  1.3972
  202ccc     N1 5863   2.051   4.593   2.759  0.2970 -0.2994 -0.3639
  202ccc     H7 5864   2.030   4.681   2.808  0.5264 -0.3965 -0.0882
  202ccc     H8 5865   2.062   4.615   2.659 -1.3376  1.0855 -0.2819
  202ccc     O1 5866   2.374   4.288   2.930  0.3442 -0.5002 -0.0344
  202ccc    H17 5867   1.971   4.528   2.749 -0.5129  1.0516 -5.7329
  203ccc     C1 5868   1.129   4.009   4.714  0.2315  0.1768 -0.9870
  203ccc     H1 5869   1.148   4.106   4.667  1.2607 -0.7574 -2.6248
  203ccc     H2 5870   1.118   4.010   4.822 -1.6731 -2.4110 -1.0670
  203ccc     C2 5871   1.256   3.929   4.682  0.0866 -0.3150 -0.0181
  203ccc     H3 5872   1.257   3.852   4.760  4.5462 -1.7691 -1.1897
  203ccc     H4 5873   1.243   3.873   4.588 -0.0437  0.8933 -0.7443
  203ccc     C3 5874   1.390   4.006   4.691 -0.9223  0.4621  0.3232
  203ccc     H5 5875   1.409   4.043   4.793 -1.6883 -3.5593  2.1165
  203ccc     H6 5876   1.383   4.085   4.616 -0.0102 -0.4958 -0.8018
  203ccc     N1 5877   1.001   3.947   4.657 -0.1993  0.1856 -0.1684
  203ccc     H7 5878   1.005   3.894   4.569 -0.8112 -1.0371  0.5167
  203ccc     H8 5879   0.969   3.876   4.724 -0.0375 -0.4494 -0.7563
  203ccc     O1 5880   1.491   3.907   4.643 -0.1142  0.2426 -0.0313
  203ccc    H17 5881   0.919   4.009   4.659 -0.4375 -0.1263 -0.2878
  204ccc     C1 5882   1.981   4.067   3.867  0.2906  0.4714  0.0679
  204ccc     H1 5883   1.959   4.008   3.956 -0.1531  0.6090  0.0532
  204ccc     H2 5884   2.024   4.160   3.906 -0.3973  1.5924 -1.7218
  204ccc     C2 5885   1.858   4.088   3.778 -0.3653  0.0635  0.6104
  204ccc     H3 5886   1.883   4.142   3.687 -1.5302 -3.1696 -1.8389
  204ccc     H4 5887   1.814   3.992   3.745 -0.8573  0.3108  0.5361
  204ccc     C3 5888   1.739   4.150   3.846 -0.0327 -0.1075  0.8413
  204ccc     H5 5889   1.657   4.165   3.775 -1.0663 -0.4310  1.9558
  204ccc     H6 5890   1.769   4.250   3.880  0.1716  0.3601 -0.6370
  204ccc     N1 5891   2.094   4.002   3.795 -0.2232  0.2020  0.3473
  204ccc     H7 5892   2.179   4.007   3.854 -0.5900  0.0203  0.8957
  204ccc     H8 5893   2.080   3.902   3.772 -2.0883  0.7583 -1.2036
  204ccc     O1 5894   1.716   4.069   3.960 -0.3468  0.2218 -0.7896
  204ccc    H17 5895   2.127   4.057   3.714  0.1773 -1.0876 -0.4137
  205ccc     C1 5896   1.874   3.075   5.035  0.1424  0.3018 -0.2998
  205ccc     H1 5897   1.844   2.971   5.045 -0.6183  0.4466 -0.9794
  205ccc     H2 5898   1.797   3.114   4.969 -1.2324 -0.2825  0.8887
  205ccc     C2 5899   2.014   3.092   4.980 -0.1280 -0.0986 -0.2613
  205ccc     H3 5900   2.035   3.200   4.985 -1.0578  0.0331  1.7722
  205ccc     H4 5901   2.086   3.036   5.041 -0.3157  0.9050  0.9171
  205ccc     C3 5902   2.025   3.031   4.839 -0.0028  0.1826 -0.0449
  205ccc     H5 5903   1.955   3.085   4.774  0.9216  1.2402 -0.1884
  205ccc     H6 5904   2.000   2.924   4.839  3.0048 -0.6616 -2.0452
  205ccc     N1 5905   1.866   3.153   5.167  1.0672 -0.1337  0.9759
  205ccc     H7 5906   1.861   3.254   5.149 -1.9455 -0.3936 -0.2184
  205ccc     H8 5907   1.788   3.120   5.225 -0.0382 -2.1429 -1.4590
  205ccc     O1 5908   2.168   3.045   4.795 -0.3851  0.2965 -0.1530
  205ccc    H17 5909   1.952   3.150   5.224  0.4232  1.2084  2.0665
  206ccc     C1 5910   3.206   3.155   4.997  0.3840  0.3150  0.0562
  206ccc     H1 5911   3.287   3.172   4.926 -0.7927  0.1916 -1.3606
  206ccc     H2 5912   3.164   3.055   4.979  1.1524 -0.2447  1.2512
  206ccc     C2 5913   3.102   3.272   4.968 -1.0071  0.3039  0.7289
  206ccc     H3 5914   3.149   3.367   4.995 -1.5597  0.3414  1.6062
  206ccc     H4 5915   3.093   3.279   4.859 -2.2187  0.7699  0.8436
  206ccc     C3 5916   2.955   3.258   5.028  0.3015 -0.2140 -0.0522
  206ccc     H5 5917   2.906   3.354   5.047 -0.1140 -0.2654 -0.8293
  206ccc     H6 5918   2.950   3.212   5.128 -1.2060  0.6499  0.3039
  206ccc     N1 5919   3.265   3.133   5.135  0.5724  0.1039  0.1511
  206ccc     H7 5920   3.284   3.220   5.186  1.7385 -0.2658  0.3751
  206ccc     H8 5921   3.198   3.075   5.188  0.0085 -1.2890 -1.9497
  206ccc     O1 5922   2.887   3.167   4.931  0.3782  0.2422  0.4980
  206ccc    H17 5923   3.360   3.094   5.139  1.2307  1.5318 -0.8321
  207ccc     C1 5924   3.267   4.221   6.944 -0.5250 -0.2760  0.2151
  207ccc     H1 5925   3.301   4.316   6.903 -1.6104  1.3870  2.8542
  207ccc     H2 5926   3.352   4.152   6.939 -0.4403 -0.1359 -0.3425
  207ccc     C2 5927   3.135   4.167   6.881  0.2069 -0.5176 -0.8871
  207ccc     H3 5928   3.110   4.072   6.931 -1.9265  0.0820 -0.6814
  207ccc     H4 5929   3.045   4.224   6.911  0.4369 -1.5547  2.1484
  207ccc     C3 5930   3.131   4.145   6.730 -0.2099  0.4548 -0.0112
  207ccc     H5 5931   3.184   4.052   6.708  1.5997  1.0667  1.5507
  207ccc     H6 5932   3.188   4.223   6.678  0.2367  1.2316  1.5808
  207ccc     N1 5933   3.247   4.236   7.091  0.1916 -0.7179  0.8502
  207ccc     H7 5934   3.318   4.298   7.132 -0.0285 -1.0465  1.7423
  207ccc     H8 5935   3.159   4.283   7.119  0.7445 -0.7680  2.8443
  207ccc     O1 5936   2.995   4.139   6.687  0.4418 -0.0697 -0.6894
  207ccc    H17 5937   3.253   4.141   7.129  0.2090 -1.4355 -0.8740
  208ccc     C1 5938   2.256   4.135   5.800 -0.1495 -0.4849  0.0698
  208ccc     H1 5939   2.255   4.160   5.906 -4.0200 -0.3824  0.1401
  208ccc     H2 5940   2.168   4.073   5.785 -1.1640  0.9394  0.0085
  208ccc     C2 5941   2.380   4.067   5.755 -0.0174  0.1044  0.8403
  208ccc     H3 5942   2.353   4.036   5.653  1.7178  2.1129 -0.3404
  208ccc     H4 5943   2.474   4.120   5.732  1.0253 -2.3105 -0.8628
  208ccc     C3 5944   2.418   3.944   5.840  0.2277  0.6808  0.1396
  208ccc     H5 5945   2.496   3.889   5.786  0.6454  1.9227 -0.5907
  208ccc     H6 5946   2.335   3.874   5.855  1.2755 -0.4881  0.5573
  208ccc     N1 5947   2.228   4.270   5.737 -0.2291  0.5344  0.0217
  208ccc     H7 5948   2.220   4.268   5.634 -0.2272  0.0356  0.0324
  208ccc     H8 5949   2.140   4.304   5.779 -0.7603 -1.6746  0.8190
  208ccc     O1 5950   2.464   3.996   5.967  0.6962 -0.5466 -0.7642
  208ccc    H17 5951   2.308   4.327   5.770  1.6209 -0.6584 -2.1105
  209ccc     C1 5952   1.488   3.532   6.990  0.1558 -0.5446 -0.1459
  209ccc     H1 5953   1.560   3.570   6.917 -1.6376 -0.2757 -1.8636
  209ccc     H2 5954   1.443   3.452   6.931  2.0361 -1.8940  0.1460
  209ccc     C2 5955   1.389   3.652   7.014 -0.1612 -0.3063  0.3254
  209ccc     H3 5956   1.305   3.628   7.080 -1.1719  1.4989 -0.2372
  209ccc     H4 5957   1.441   3.735   7.061  0.0813 -0.2793  0.0164
  209ccc     C3 5958   1.326   3.703   6.880  0.5950  0.7475  0.4444
  209ccc     H5 5959   1.251   3.783   6.882  1.7502  1.8902  2.0362
  209ccc     H6 5960   1.278   3.618   6.831 -0.5977  2.1155 -0.8404
  209ccc     N1 5961   1.544   3.475   7.118  0.1926 -0.0273  0.3923
  209ccc     H7 5962   1.598   3.544   7.171 -0.6066  0.6271  0.3735
  209ccc     H8 5963   1.469   3.443   7.181  0.2176  0.4733  0.6771
  209ccc     O1 5964   1.431   3.738   6.796 -0.0123  0.1853 -0.4933
  209ccc    H17 5965   1.611   3.399   7.098  0.4790  0.1113  0.8143
  210ccc     C1 5966   1.411   3.573   6.001  0.3933  0.0149  0.4582
  210ccc     H1 5967   1.414   3.681   6.020  0.8583 -0.1829  1.6155
  210ccc     H2 5968   1.408   3.506   6.087 -0.9065 -0.0417  0.3807
  210ccc     C2 5969   1.531   3.523   5.918 -0.4534  0.3201 -0.0689
  210ccc     H3 5970   1.509   3.423   5.879 -1.7302  1.2826 -1.9432
  210ccc     H4 5971   1.532   3.586   5.829  0.3839 -0.1360 -0.3892
  210ccc     C3 5972   1.661   3.514   5.998  0.1335  0.2436 -0.6044
  210ccc     H5 5973   1.741   3.482   5.930  0.3955  2.5269 -1.4530
  210ccc     H6 5974   1.655   3.429   6.068  0.0838  0.1446 -0.7296
  210ccc     N1 5975   1.278   3.552   5.919 -0.3017 -0.4844  0.1750
  210ccc     H7 5976   1.257   3.451   5.917 -1.6182 -0.2955  1.9316
  210ccc     H8 5977   1.197   3.600   5.960  0.6745 -0.9474  2.8633
  210ccc     O1 5978   1.679   3.635   6.066  0.1973  0.3792  0.3581
  210ccc    H17 5979   1.293   3.591   5.825  1.6846 -0.4968  0.4406
  211ccc     C1 5980   1.093   4.580   6.516  0.3342  0.7335 -0.7380
  211ccc     H1 5981   1.135   4.480   6.515 -0.5191  0.3440  0.3498
  211ccc     H2 5982   1.109   4.625   6.418 -3.0318  2.1370 -0.7824
  211ccc     C2 5983   1.176   4.671   6.614 -0.2125 -0.2817  0.2762
  211ccc     H3 5984   1.215   4.616   6.700  1.3643  0.0034 -0.2058
  211ccc     H4 5985   1.273   4.683   6.563  0.4141 -2.0041  0.9519
  211ccc     C3 5986   1.124   4.808   6.652 -0.7172  0.5617 -0.0307
  211ccc     H5 5987   1.209   4.856   6.701 -0.2055 -2.2402  2.0478
  211ccc     H6 5988   1.039   4.815   6.721 -0.3438 -0.8842  0.5946
  211ccc     N1 5989   0.944   4.575   6.544 -0.0545 -0.1031  0.2475
  211ccc     H7 5990   0.902   4.505   6.482  1.8905  0.2365 -1.5495
  211ccc     H8 5991   0.920   4.551   6.641  0.3245 -0.2463  0.3071
  211ccc     O1 5992   1.090   4.870   6.531  0.2134  0.2557 -0.4289
  211ccc    H17 5993   0.893   4.664   6.536 -0.4427 -0.2345  1.1605
  212ccc     C1 5994   1.235   4.624   6.027  0.4810  0.9399  0.1192
  212ccc     H1 5995   1.163   4.684   6.082 -3.4067 -1.8592 -1.4522
  212ccc     H2 5996   1.340   4.638   6.051  1.1892 -3.0613 -0.0360
  212ccc     C2 5997   1.207   4.650   5.877 -0.0158 -0.1455 -0.7901
  212ccc     H3 5998   1.273   4.594   5.810 -0.7990 -0.9242 -0.9205
  212ccc     H4 5999   1.102   4.625   5.856  0.0179  0.3957 -1.6554
  212ccc     C3 6000   1.232   4.803   5.854 -0.7690  0.2471 -0.8632
  212ccc     H5 6001   1.227   4.824   5.747  0.3193 -0.7073 -1.1264
  212ccc     H6 6002   1.329   4.843   5.887  1.1119 -2.5671 -2.4364
  212ccc     N1 6003   1.195   4.479   6.060 -0.1397  0.3589  0.8409
  212ccc     H7 6004   1.267   4.408   6.042  2.4383  2.4129  2.3668
  212ccc     H8 6005   1.165   4.473   6.158 -0.3447  0.3637  0.7793
  212ccc     O1 6006   1.120   4.866   5.909 -0.5063  0.3637 -1.0231
  212ccc    H17 6007   1.110   4.455   6.006 -0.3672  1.1842  0.8257
  213ccc     C1 6008   2.525   6.052   6.435  0.3856 -0.5505  0.7691
  213ccc     H1 6009   2.440   6.118   6.453  1.5332  1.4531 -0.6304
  213ccc     H2 6010   2.534   6.041   6.327 -3.1311  1.2571  0.1251
  213ccc     C2 6011   2.518   5.916   6.502 -0.2337  0.3271  0.4000
  213ccc     H3 6012   2.616   5.867   6.507  0.2547  0.2713 -4.4724
  213ccc     H4 6013   2.479   5.942   6.601 -1.1212 -0.1387  0.1855
  213ccc     C3 6014   2.424   5.820   6.433  0.0627 -0.5830  0.2803
  213ccc     H5 6015   2.399   5.730   6.491 -0.4738 -0.4176  0.3110
  213ccc     H6 6016   2.486   5.788   6.348  0.2313 -0.5765  0.3990
  213ccc     N1 6017   2.655   6.120   6.480  0.2588  0.0493  0.1340
  213ccc     H7 6018   2.657   6.102   6.582 -1.2618 -2.7013 -0.2362
  213ccc     H8 6019   2.744   6.093   6.437  0.1008  2.0184 -1.6026
  213ccc     O1 6020   2.297   5.893   6.390  0.7070 -0.0019  0.4811
  213ccc    H17 6021   2.652   6.223   6.472  1.5017  0.0186 -1.0879
  214ccc     C1 6022   1.206   6.281   6.206 -0.4273 -0.3136 -0.1971
  214ccc     H1 6023   1.313   6.298   6.197  0.1289 -2.6965  1.1769
  214ccc     H2 6024   1.175   6.319   6.303 -1.8043  0.8601 -1.0546
  214ccc     C2 6025   1.179   6.132   6.191  0.3772 -0.1981  0.2408
  214ccc     H3 6026   1.082   6.117   6.241 -0.1907 -0.5052 -0.9068
  214ccc     H4 6027   1.159   6.112   6.085 -3.1293  0.5316  0.6194
  214ccc     C3 6028   1.287   6.047   6.262  0.1079 -0.3908 -0.0985
  214ccc     H5 6029   1.254   5.945   6.239 -1.1441 -0.3455  1.3398
  214ccc     H6 6030   1.282   6.058   6.371  1.7340 -0.2529 -0.0141
  214ccc     N1 6031   1.142   6.368   6.098  0.8183  0.4106  0.1755
  214ccc     H7 6032   1.141   6.465   6.133  1.0384  0.0994  1.0567
  214ccc     H8 6033   1.176   6.365   6.001  0.2712 -0.1860 -0.0085
  214ccc     O1 6034   1.418   6.053   6.198  0.0762 -0.5462  0.0529
  214ccc    H17 6035   1.040   6.356   6.090  0.5739  1.7381  1.0084
  215ccc     C1 6036   3.890   6.688   5.446 -0.2682  0.1697  0.1319
  215ccc     H1 6037   3.888   6.579   5.451 -0.0914  0.0761 -1.3459
  215ccc     H2 6038   3.984   6.714   5.397 -1.0987 -1.5137 -2.5251
  215ccc     C2 6039   3.877   6.741   5.592  0.0187 -0.0252  0.1384
  215ccc     H3 6040   3.918   6.841   5.607  0.2727 -0.1372  0.2042
  215ccc     H4 6041   3.771   6.750   5.618  0.3523 -0.1367  1.5716
  215ccc     C3 6042   3.947   6.641   5.691 -0.5116 -0.8569 -0.2523
  215ccc     H5 6043   3.915   6.666   5.793 -1.6700 -2.0267 -0.2987
  215ccc     H6 6044   4.056   6.643   5.683 -0.5279 -0.5846 -0.4222
  215ccc     N1 6045   3.775   6.725   5.355  0.0304  0.1026  0.3626
  215ccc     H7 6046   3.701   6.657   5.377 -2.4553  1.7926 -2.0982
  215ccc     H8 6047   3.729   6.816   5.364 -2.7843 -1.1547 -0.4140
  215ccc     O1 6048   3.911   6.504   5.672  0.0793 -0.2202  0.0829
  215ccc    H17 6049   3.805   6.695   5.261 -3.5297 -1.5266 -0.4205
  216ccc     C1 6050   4.002   5.976   6.480 -1.0279 -0.6644  0.0455
  216ccc     H1 6051   3.927   5.908   6.519  0.0668 -1.4552  0.8071
  216ccc     H2 6052   3.956   6.071   6.451 -0.8944 -0.2787  1.0728
  216ccc     C2 6053   4.068   5.904   6.355  0.1499 -0.5474  0.0838
  216ccc     H3 6054   4.143   5.961   6.299 -0.6823 -1.1835 -1.7721
  216ccc     H4 6055   4.124   5.817   6.393 -0.3909 -1.0615 -0.2691
  216ccc     C3 6056   3.955   5.865   6.255  0.3982 -0.3502 -0.2688
  216ccc     H5 6057   3.891   5.796   6.311  1.8128 -1.8996 -0.4855
  216ccc     H6 6058   3.990   5.801   6.173 -2.8528 -1.4980 -0.9330
  216ccc     N1 6059   4.099   6.013   6.595 -0.2196  0.8002  0.4029
  216ccc     H7 6060   4.048   6.080   6.655  0.2386  0.8981  0.6814
  216ccc     H8 6061   4.137   5.930   6.642 -0.0580  0.4940 -0.2542
  216ccc     O1 6062   3.882   5.983   6.202 -0.6451 -0.1537 -0.1540
  216ccc    H17 6063   4.181   6.064   6.558  1.6554 -2.9036 -0.9946
  217ccc     C1 6064   3.130   7.238   5.310 -0.4288 -0.1593 -0.1727
  217ccc     H1 6065   3.192   7.148   5.312 -0.1162  0.0648  1.2024
  217ccc     H2 6066   3.125   7.282   5.410 -1.9114  0.6236 -0.5552
  217ccc     C2 6067   2.984   7.203   5.275  0.0198 -0.2008  0.5948
  217ccc     H3 6068   2.911   7.278   5.307 -1.1193 -0.4294 -1.3029
  217ccc     H4 6069   2.970   7.192   5.167 -0.9018 -0.8943  0.7779
  217ccc     C3 6070   2.934   7.075   5.351  0.1737 -0.1320 -0.1992
  217ccc     H5 6071   2.826   7.063   5.369  0.1643  1.9586  1.6029
  217ccc     H6 6072   2.980   7.073   5.451 -0.1947  0.3185 -0.0171
  217ccc     N1 6073   3.194   7.340   5.222  0.2257  0.0926  0.2733
  217ccc     H7 6074   3.130   7.420   5.210  0.2760  0.2070  0.7448
  217ccc     H8 6075   3.286   7.368   5.260  0.5292 -1.0401  0.4070
  217ccc     O1 6076   2.998   6.963   5.290 -0.4741  0.3815 -0.0838
  217ccc    H17 6077   3.212   7.308   5.126  1.1149  0.5722  0.2603
  218ccc     C1 6078   3.207   6.869   4.323  0.3580 -0.2884  0.4328
  218ccc     H1 6079   3.111   6.863   4.271  1.0854  0.6116 -1.0733
  218ccc     H2 6080   3.286   6.806   4.285  1.8488  2.9876 -2.5137
  218ccc     C2 6081   3.199   6.833   4.472  0.1853  0.0324  0.2190
  218ccc     H3 6082   3.297   6.818   4.520  0.5761  3.3568  0.7202
  218ccc     H4 6083   3.147   6.914   4.525 -0.3175 -1.2575  1.7863
  218ccc     C3 6084   3.106   6.706   4.496 -0.2742 -0.1874  0.0369
  218ccc     H5 6085   3.154   6.624   4.441 -1.1751 -0.6583 -0.0696
  218ccc     H6 6086   3.009   6.712   4.445  0.1309 -1.4630 -0.9392
  218ccc     N1 6087   3.268   7.001   4.295 -0.5477 -1.2272  0.0488
  218ccc     H7 6088   3.216   7.079   4.337  2.0576  0.5515  0.2340
  218ccc     H8 6089   3.365   7.005   4.330 -1.4995  0.6464  2.7671
  218ccc     O1 6090   3.090   6.694   4.639 -0.3959  0.1216  0.6978
  218ccc    H17 6091   3.267   7.009   4.192 -0.2156 -0.2050  0.1090
  219ccc     C1 6092   1.223   5.511   4.881  0.0126 -0.7877 -0.3912
  219ccc     H1 6093   1.258   5.584   4.808  0.1223  0.5637  0.9551
  219ccc     H2 6094   1.147   5.562   4.941  1.5111  2.0595 -0.7564
  219ccc     C2 6095   1.338   5.472   4.980 -0.4829 -0.4392  0.4887
  219ccc     H3 6096   1.281   5.426   5.061 -3.2925  0.4970 -0.8548
  219ccc     H4 6097   1.395   5.398   4.921  1.3577  2.2050 -1.3076
  219ccc     C3 6098   1.431   5.589   5.026 -0.4798 -0.1616  0.1093
  219ccc     H5 6099   1.500   5.546   5.100  2.1704  1.1254 -1.4351
  219ccc     H6 6100   1.379   5.674   5.071  0.9979  0.5328  0.5964
  219ccc     N1 6101   1.164   5.392   4.803 -0.2964 -0.4270  0.2124
  219ccc     H7 6102   1.101   5.429   4.730 -0.3528 -0.7094  0.1182
  219ccc     H8 6103   1.238   5.330   4.768  1.2811  0.7003  1.3988
  219ccc     O1 6104   1.515   5.631   4.923  0.0645  0.2587  0.1469
  219ccc    H17 6105   1.110   5.340   4.874 -0.0298 -1.2216 -0.1570
  220ccc     C1 6106   1.290   6.109   4.385  0.1458  0.1258 -0.2778
  220ccc     H1 6107   1.327   6.179   4.459 -1.0843  0.3431  0.1535
  220ccc     H2 6108   1.270   6.011   4.429  1.1715 -0.0821 -0.2469
  220ccc     C2 6109   1.383   6.106   4.257 -0.2057  0.1659  0.2093
  220ccc     H3 6110   1.333   6.049   4.177 -0.9319  2.2680 -0.9145
  220ccc     H4 6111   1.398   6.205   4.213  0.9453  0.1580  0.5708
  220ccc     C3 6112   1.520   6.038   4.281 -0.3693 -0.4381  0.3882
  220ccc     H5 6113   1.580   6.088   4.358 -0.6384 -1.2021  1.1102
  220ccc     H6 6114   1.580   6.031   4.189  1.0053 -1.8303  1.3521
  220ccc     N1 6115   1.151   6.163   4.357  0.7383 -0.2682  0.6872
  220ccc     H7 6116   1.154   6.252   4.304  1.3692  0.1836  1.4604
  220ccc     H8 6117   1.102   6.094   4.298  0.5540 -0.7566  1.4063
  220ccc     O1 6118   1.501   5.898   4.335  0.1089 -0.5696 -0.0788
  220ccc    H17 6119   1.092   6.180   4.440 -0.9622  0.2113 -0.5495
  221ccc     C1 6120   2.500   6.174   3.778 -0.4016  0.0397  0.0454
  221ccc     H1 6121   2.470   6.070   3.772 -0.1113 -0.0289 -0.2875
  221ccc     H2 6122   2.589   6.182   3.715 -1.2820  1.1906 -1.1040
  221ccc     C2 6123   2.539   6.210   3.927  0.0678  0.0016 -0.8571
  221ccc     H3 6124   2.621   6.146   3.963  1.6127  2.2506 -0.1306
  221ccc     H4 6125   2.585   6.309   3.936  1.9951 -0.5719 -3.2740
  221ccc     C3 6126   2.424   6.184   4.027 -0.6600  0.7116 -0.4331
  221ccc     H5 6127   2.329   6.237   4.010 -2.2719 -1.9135 -0.1529
  221ccc     H6 6128   2.453   6.233   4.121 -0.8711  0.6241 -0.3209
  221ccc     N1 6129   2.388   6.260   3.721  0.4965  0.1499 -0.9053
  221ccc     H7 6130   2.393   6.241   3.620 -1.0727 -0.3119 -0.9267
  221ccc     H8 6131   2.292   6.238   3.752  0.1551  0.7792 -1.4824
  221ccc     O1 6132   2.394   6.046   4.048  0.3509 -0.3655  0.2220
  221ccc    H17 6133   2.402   6.361   3.734 -2.0099  0.5723 -0.9623
  222ccc     C1 6134   2.064   5.175   3.639 -0.0882 -1.1145  0.4447
  222ccc     H1 6135   2.068   5.206   3.534  0.2788  1.9727  1.2944
  222ccc     H2 6136   1.992   5.242   3.686  1.5388  0.5161  0.7118
  222ccc     C2 6137   2.203   5.203   3.700  0.1642 -0.3353 -0.1978
  222ccc     H3 6138   2.212   5.180   3.807  1.4670 -0.0152 -0.2202
  222ccc     H4 6139   2.272   5.129   3.657 -1.0313 -0.4215 -2.0891
  222ccc     C3 6140   2.253   5.348   3.682 -0.3060  0.0378 -0.8483
  222ccc     H5 6141   2.243   5.401   3.586 -0.7886  1.9230  0.1951
  222ccc     H6 6142   2.360   5.356   3.705  0.2398  1.7258 -3.4957
  222ccc     N1 6143   2.003   5.034   3.658 -0.2332  0.1106  0.1781
  222ccc     H7 6144   1.964   5.018   3.752 -4.2427  0.2782 -1.2568
  222ccc     H8 6145   1.926   5.029   3.589 -0.7900  0.8949  0.7343
  222ccc     O1 6146   2.180   5.436   3.773  0.2841  0.0805  0.5894
  222ccc    H17 6147   2.068   4.958   3.631 -1.3253 -1.0993  0.8332
  223ccc     C1 6148   7.997   4.023   3.501  0.8331  0.2024 -0.6396
  223ccc     H1 6149   7.919   4.083   3.454 -0.0542 -0.9289 -0.6755
  223ccc     H2 6150   7.989   3.929   3.446  0.8217 -1.9928  2.8139
  223ccc     C2 6151   7.972   3.995   3.647 -0.9387  0.2334 -0.4668
  223ccc     H3 6152   8.056   3.942   3.693  1.0322  0.6849 -3.3259
  223ccc     H4 6153   7.960   4.095   3.690  1.6259  0.2570  0.3409
  223ccc     C3 6154   7.845   3.900   3.660  0.4847 -0.4463  0.1209
  223ccc     H5 6155   7.867   3.803   3.616  2.7696  0.0827  0.0007
  223ccc     H6 6156   7.760   3.940   3.602  1.0117 -2.6525 -2.3428
  223ccc     N1 6157   8.135   4.093   3.484  0.0427  0.0643  0.7223
  223ccc     H7 6158   8.207   4.021   3.497 -1.2368 -1.0994  1.6700
  223ccc     H8 6159   8.150   4.134   3.390 -1.0970  0.1112  0.5449
  223ccc     O1 6160   7.816   3.889   3.799 -0.3242  0.0718 -0.2193
  223ccc    H17 6161   8.143   4.169   3.552  3.3149 -0.1762  0.7817
  224ccc     C1 6162   8.181   3.201   4.248  0.1420  0.4105  0.3940
  224ccc     H1 6163   8.096   3.246   4.301 -1.0645  0.5957 -1.5843
  224ccc     H2 6164   8.257   3.185   4.324 -1.4094  0.8072  2.0901
  224ccc     C2 6165   8.243   3.291   4.146  0.4681 -0.3555  0.3000
  224ccc     H3 6166   8.343   3.251   4.125 -0.2291 -1.1590 -1.7184
  224ccc     H4 6167   8.186   3.285   4.053  2.1431 -1.7348 -0.6953
  224ccc     C3 6168   8.257   3.439   4.195 -0.5956  0.1994 -0.0211
  224ccc     H5 6169   8.268   3.506   4.108 -0.6225 -1.4264 -1.3238
  224ccc     H6 6170   8.344   3.449   4.261 -1.4288  1.6093  0.9481
  224ccc     N1 6171   8.135   3.066   4.197  0.0788  0.1546  0.1638
  224ccc     H7 6172   8.216   3.014   4.161 -0.5977  0.1737 -1.4462
  224ccc     H8 6173   8.089   3.010   4.271  0.3298  1.1315  1.0851
  224ccc     O1 6174   8.134   3.480   4.263  0.1164  0.1306  0.7745
  224ccc    H17 6175   8.060   3.070   4.126 -0.0471  0.5487  0.3190
  225ccc     C1 6176   7.085   3.102   3.884 -0.0562  0.3426  0.2472
  225ccc     H1 6177   7.074   3.205   3.918  0.7213  0.8214 -0.8613
  225ccc     H2 6178   7.152   3.047   3.950  1.6160  0.4921 -1.2436
  225ccc     C2 6179   7.141   3.103   3.738  0.3283 -0.1819  0.9222
  225ccc     H3 6180   7.169   3.004   3.702 -1.3255 -0.3795  0.0649
  225ccc     H4 6181   7.063   3.145   3.673 -1.0018 -2.3058  1.0378
  225ccc     C3 6182   7.262   3.198   3.737 -0.4838  0.9920 -0.1492
  225ccc     H5 6183   7.310   3.187   3.639  1.7703  4.2059  0.4631
  225ccc     H6 6184   7.330   3.169   3.818 -1.1515 -0.1110  0.0368
  225ccc     N1 6185   6.947   3.046   3.902 -0.1582 -0.7433  0.2299
  225ccc     H7 6186   6.884   3.110   3.850  0.5869  0.2679  0.5346
  225ccc     H8 6187   6.929   2.957   3.854 -2.3522  0.6031 -1.6902
  225ccc     O1 6188   7.207   3.331   3.749 -0.4604 -0.0735 -0.0308
  225ccc    H17 6189   6.925   3.043   4.003  0.9550  0.5634  0.5439
  226ccc     C1 6190   6.433   3.925   3.754 -0.2988 -0.6018 -0.7050
  226ccc     H1 6191   6.418   3.950   3.649 -1.2312 -3.6723 -1.4047
  226ccc     H2 6192   6.540   3.939   3.771 -0.1713 -0.1613 -1.7856
  226ccc     C2 6193   6.386   3.781   3.783 -0.1270  0.2142  0.1707
  226ccc     H3 6194   6.397   3.748   3.887 -2.1789  0.3868  0.4898
  226ccc     H4 6195   6.284   3.771   3.743  0.1066  1.0904 -0.7004
  226ccc     C3 6196   6.460   3.681   3.699 -0.2814 -0.0601 -0.4732
  226ccc     H5 6197   6.468   3.719   3.596  1.8384  1.4698  0.1749
  226ccc     H6 6198   6.410   3.586   3.717  1.1659 -0.5778  1.0301
  226ccc     N1 6199   6.369   4.034   3.840  0.3311 -0.0854 -0.0717
  226ccc     H7 6200   6.268   4.034   3.822  0.3413  0.5393 -0.1273
  226ccc     H8 6201   6.379   4.010   3.940  1.7117 -0.4449 -0.2642
  226ccc     O1 6202   6.598   3.665   3.734  0.1836  0.1418 -0.0083
  226ccc    H17 6203   6.414   4.125   3.824 -0.7630  0.5899  0.6277
  227ccc     C1 6204   7.685   5.229   5.207 -0.5955  0.3135 -0.3139
  227ccc     H1 6205   7.689   5.331   5.246 -0.0831  0.4960 -0.8281
  227ccc     H2 6206   7.637   5.230   5.108 -0.5797  0.6761 -0.3225
  227ccc     C2 6207   7.605   5.142   5.309 -0.3091 -0.2786  0.0802
  227ccc     H3 6208   7.581   5.043   5.267  0.2233 -0.2467 -0.3112
  227ccc     H4 6209   7.668   5.129   5.397 -0.1521 -0.1956 -0.0191
  227ccc     C3 6210   7.470   5.196   5.346  0.4624  0.0975 -0.8265
  227ccc     H5 6211   7.418   5.229   5.255  0.4004  2.0828 -0.1252
  227ccc     H6 6212   7.474   5.272   5.425 -1.2227 -1.3985  0.7933
  227ccc     N1 6213   7.826   5.172   5.217  0.3102  0.2616 -0.2750
  227ccc     H7 6214   7.859   5.186   5.314 -1.8972  2.5266  0.2509
  227ccc     H8 6215   7.827   5.069   5.219 -0.7712  0.2479 -0.1025
  227ccc     O1 6216   7.395   5.094   5.414  0.1102  0.1650  0.1587
  227ccc    H17 6217   7.894   5.200   5.144 -0.8198  1.8553 -0.7671
  228ccc     C1 6218   6.502   5.039   5.002  0.0298 -0.1238  0.5529
  228ccc     H1 6219   6.598   5.073   4.962  0.3685 -2.1868 -0.5445
  228ccc     H2 6220   6.454   5.111   5.068 -2.1367  0.2384 -1.2992
  228ccc     C2 6221   6.512   4.902   5.068 -0.4003  0.0928 -0.0804
  228ccc     H3 6222   6.412   4.856   5.060 -0.5775  0.7174 -1.6326
  228ccc     H4 6223   6.581   4.838   5.012  0.6409 -0.4822  1.7485
  228ccc     C3 6224   6.556   4.893   5.213  0.3227  0.2987 -0.3175
  228ccc     H5 6225   6.518   4.796   5.248  0.9312  0.6800  1.5029
  228ccc     H6 6226   6.509   4.966   5.279 -1.7537 -0.7430 -0.5734
  228ccc     N1 6227   6.423   5.033   4.871  0.4960  0.3094  0.0167
  228ccc     H7 6228   6.339   4.973   4.872  0.7244 -0.1323 -2.2692
  228ccc     H8 6229   6.391   5.126   4.840  2.0388  0.5520 -0.9684
  228ccc     O1 6230   6.702   4.891   5.228  0.1140 -0.6435 -0.1889
  228ccc    H17 6231   6.480   4.996   4.794 -0.0942 -1.0668  0.2200
  229ccc     C1 6232   7.512   4.364   5.995 -0.2840  0.5881  0.0914
  229ccc     H1 6233   7.512   4.473   6.002  1.7137  0.6200 -0.0042
  229ccc     H2 6234   7.592   4.346   5.923  0.4225 -3.6581  1.6790
  229ccc     C2 6235   7.382   4.315   5.930  0.8966  0.7638  0.2445
  229ccc     H3 6236   7.336   4.232   5.984 -2.9896  2.2520 -0.4181
  229ccc     H4 6237   7.309   4.397   5.931  0.0825  0.0478  0.5004
  229ccc     C3 6238   7.409   4.269   5.778  0.3199 -0.8879 -0.4704
  229ccc     H5 6239   7.490   4.197   5.762  0.8731 -0.1528 -1.1027
  229ccc     H6 6240   7.445   4.358   5.724  3.0528 -0.2401  2.1060
  229ccc     N1 6241   7.550   4.321   6.138  0.3419  0.2857 -0.5330
  229ccc     H7 6242   7.472   4.349   6.199  0.6668  0.8183 -0.3513
  229ccc     H8 6243   7.566   4.220   6.144 -2.3839 -0.3272 -1.9864
  229ccc     O1 6244   7.301   4.221   5.719 -0.3095 -0.1441  0.1497
  229ccc    H17 6245   7.630   4.377   6.172  1.1422 -1.5707  0.7490
  230ccc     C1 6246   6.541   3.786   6.076 -0.3730  0.0925 -0.4079
  230ccc     H1 6247   6.454   3.845   6.047  0.1000  2.3437  2.2994
  230ccc     H2 6248   6.620   3.835   6.020  0.4372  0.9838  1.4403
  230ccc     C2 6249   6.517   3.639   6.038 -0.7588 -0.5907  0.0841
  230ccc     H3 6250   6.605   3.585   6.074 -1.7438 -0.5010  2.8527
  230ccc     H4 6251   6.423   3.600   6.081 -0.4858  0.1287  1.3805
  230ccc     C3 6252   6.499   3.633   5.883  0.0964 -0.0404 -0.2347
  230ccc     H5 6253   6.403   3.683   5.863  0.0919 -0.1981 -0.6066
  230ccc     H6 6254   6.508   3.527   5.860  1.2427 -0.4480  1.8312
  230ccc     N1 6255   6.559   3.797   6.224  0.3216 -0.3059 -0.3153
  230ccc     H7 6256   6.648   3.750   6.245  0.5755  0.1628 -0.3172
  230ccc     H8 6257   6.565   3.895   6.257  3.4936 -0.1673 -0.9726
  230ccc     O1 6258   6.601   3.712   5.824  0.0154  0.5992  0.0071
  230ccc    H17 6259   6.488   3.752   6.284  1.3572 -1.1180  0.3290
  231ccc     C1 6260   5.470   4.095   2.308 -0.0578 -0.1930  0.4067
  231ccc     H1 6261   5.441   4.174   2.377 -0.7408 -1.4574  1.6251
  231ccc     H2 6262   5.438   4.001   2.353  0.5046 -0.7703 -0.3684
  231ccc     C2 6263   5.624   4.095   2.278  0.7201 -0.1280  0.1033
  231ccc     H3 6264   5.649   4.012   2.212  0.8956 -0.5852  0.7323
  231ccc     H4 6265   5.634   4.191   2.226 -2.0191  0.6289  0.8409
  231ccc     C3 6266   5.723   4.083   2.399  0.2528 -0.0996  0.2003
  231ccc     H5 6267   5.830   4.100   2.381  0.6467  0.7424  2.9320
  231ccc     H6 6268   5.706   3.986   2.446 -0.9638 -0.3043 -0.6212
  231ccc     N1 6269   5.384   4.108   2.179  0.4460  0.2050 -0.2101
  231ccc     H7 6270   5.291   4.091   2.218 -0.4743  1.3511 -1.8084
  231ccc     H8 6271   5.377   4.204   2.143  1.6921 -0.3190 -1.9554
  231ccc     O1 6272   5.684   4.183   2.495 -0.3786 -0.0411  0.0850
  231ccc    H17 6273   5.408   4.035   2.110 -0.3858 -0.6526  0.3845
  232ccc     C1 6274   5.874   5.030   2.843 -0.2377  0.0248 -0.6309
  232ccc     H1 6275   5.894   4.926   2.869  2.4851  1.1828  2.5896
  232ccc     H2 6276   5.835   5.084   2.930  2.3984  0.9977  0.0238
  232ccc     C2 6277   5.774   5.037   2.722  0.3179 -0.3365  0.1616
  232ccc     H3 6278   5.770   5.138   2.679 -1.1246 -0.8599 -1.0059
  232ccc     H4 6279   5.811   4.968   2.645  1.0543  1.2667 -0.9874
  232ccc     C3 6280   5.629   4.995   2.765  0.5545 -0.2090 -0.2579
  232ccc     H5 6281   5.566   5.006   2.676 -0.3583  0.9357  0.4941
  232ccc     H6 6282   5.591   5.061   2.844 -0.9447  0.0946 -1.1946
  232ccc     N1 6283   6.000   5.102   2.826 -0.4363  0.0558 -0.0316
  232ccc     H7 6284   6.055   5.076   2.909 -0.7403 -0.9008 -0.1237
  232ccc     H8 6285   6.054   5.087   2.740 -0.6885  2.5759 -0.7073
  232ccc     O1 6286   5.630   4.861   2.810 -0.3461  0.2044  0.1256
  232ccc    H17 6287   5.975   5.201   2.841 -3.5034 -0.2935 -1.8634
  233ccc     C1 6288   5.513   3.790   3.457 -0.6881  0.1537  1.0591
  233ccc     H1 6289   5.530   3.717   3.537 -0.9040 -1.5417 -0.3683
  233ccc     H2 6290   5.549   3.890   3.482 -1.2209  1.0135 -1.3491
  233ccc     C2 6291   5.364   3.804   3.431 -0.2506  0.3494  0.2845
  233ccc     H3 6292   5.346   3.873   3.347  1.4883  1.3260  0.6550
  233ccc     H4 6293   5.326   3.707   3.398 -0.7092  0.3307  0.8755
  233ccc     C3 6294   5.283   3.845   3.560  0.2160  0.0889  0.4395
  233ccc     H5 6295   5.349   3.854   3.647 -0.1537 -0.8603  0.8242
  233ccc     H6 6296   5.215   3.761   3.576 -2.8792  2.4033  0.3196
  233ccc     N1 6297   5.588   3.728   3.337 -0.2294 -0.4966  0.3758
  233ccc     H7 6298   5.691   3.719   3.341  0.0002 -0.3288 -2.8063
  233ccc     H8 6299   5.555   3.632   3.324  0.6954 -0.8771  0.7667
  233ccc     O1 6300   5.206   3.963   3.534 -0.0280  0.4731 -0.3071
  233ccc    H17 6301   5.568   3.780   3.250  1.0213 -1.0773 -0.2896
  234ccc     C1 6302   4.400   3.897   3.567 -0.5923  1.1866  0.3950
  234ccc     H1 6303   4.495   3.922   3.615  0.0769 -1.9639  0.9366
  234ccc     H2 6304   4.421   3.877   3.462  0.7799 -2.2314  1.1969
  234ccc     C2 6305   4.296   4.007   3.589  0.4494 -0.6607  0.2155
  234ccc     H3 6306   4.199   3.990   3.541 -0.2064  3.6660 -0.4771
  234ccc     H4 6307   4.273   4.031   3.693 -0.2625 -1.1231  0.1642
  234ccc     C3 6308   4.334   4.150   3.534  0.0549  0.3774  0.2784
  234ccc     H5 6309   4.259   4.223   3.568 -0.3856 -0.4010  1.0243
  234ccc     H6 6310   4.318   4.155   3.426 -0.4965  0.9293  0.3790
  234ccc     N1 6311   4.350   3.765   3.631  0.4759 -0.4020  0.1137
  234ccc     H7 6312   4.339   3.779   3.733 -1.6242 -1.9011  0.1562
  234ccc     H8 6313   4.254   3.740   3.605  0.2982 -1.7961  1.9269
  234ccc     O1 6314   4.465   4.183   3.573 -0.3719 -0.2995  0.7342
  234ccc    H17 6315   4.407   3.682   3.609  1.1831  0.2112 -0.4215
  235ccc     C1 6316   6.336   6.293   3.356  0.3323 -0.0656 -0.3316
  235ccc     H1 6317   6.430   6.273   3.409 -0.1317 -0.8070  0.2240
  235ccc     H2 6318   6.264   6.278   3.436  1.2171  0.1001  0.5247
  235ccc     C2 6319   6.313   6.201   3.242 -0.7167  0.1508  0.2666
  235ccc     H3 6320   6.212   6.220   3.205 -1.0756  0.9814  1.6218
  235ccc     H4 6321   6.386   6.223   3.163 -2.2344  1.4014 -0.8526
  235ccc     C3 6322   6.302   6.056   3.288 -0.1646  1.0527 -0.3247
  235ccc     H5 6323   6.256   5.990   3.213  0.3465 -0.6847  0.8140
  235ccc     H6 6324   6.233   6.045   3.374  0.5139  2.6433  0.4612
  235ccc     N1 6325   6.335   6.444   3.322  0.0735  0.0458  0.2973
  235ccc     H7 6326   6.386   6.494   3.396 -0.2766  0.5743  0.1908
  235ccc     H8 6327   6.387   6.458   3.234  1.9060  0.5749  1.4149
  235ccc     O1 6328   6.440   6.012   3.318 -0.0715 -0.5189  0.1768
  235ccc    H17 6329   6.239   6.478   3.304  0.4318  2.4080  2.3098
  236ccc     C1 6330   7.585   5.657   3.175  0.1234  0.5023 -0.5936
  236ccc     H1 6331   7.577   5.593   3.087  2.8458  0.9945 -1.2744
  236ccc     H2 6332   7.545   5.616   3.268  0.2244 -0.5830 -1.0154
  236ccc     C2 6333   7.508   5.786   3.148 -0.2189 -0.1306  0.5051
  236ccc     H3 6334   7.515   5.861   3.228 -1.0713  0.3142  0.1856
  236ccc     H4 6335   7.563   5.829   3.064  1.5572  0.8627  2.1045
  236ccc     C3 6336   7.360   5.769   3.113  0.2697 -0.1427 -0.7658
  236ccc     H5 6337   7.339   5.690   3.040 -1.2587  0.2231 -0.7467
  236ccc     H6 6338   7.310   5.859   3.075 -0.4874 -0.4328 -0.4897
  236ccc     N1 6339   7.726   5.669   3.208  0.1346 -0.5232 -0.6928
  236ccc     H7 6340   7.762   5.586   3.257  2.0031  0.3672 -0.4576
  236ccc     H8 6341   7.790   5.688   3.130  1.0614  0.0035  0.1657
  236ccc     O1 6342   7.293   5.735   3.234 -0.1149  0.1408 -0.1037
  236ccc    H17 6343   7.748   5.741   3.279  0.2936 -1.3822  0.1631
  237ccc     C1 6344   6.880   4.508   2.123 -0.4499  0.4177  0.5217
  237ccc     H1 6345   6.777   4.544   2.127 -0.8834 -0.6917 -0.1324
  237ccc     H2 6346   6.872   4.400   2.109 -0.1026  0.7435 -3.1561
  237ccc     C2 6347   6.948   4.531   2.259  0.0878 -0.2269 -0.2986
  237ccc     H3 6348   7.046   4.483   2.247 -0.2961 -1.0392 -0.2327
  237ccc     H4 6349   6.963   4.637   2.282 -0.3573 -0.0642 -0.7319
  237ccc     C3 6350   6.878   4.460   2.382  1.1949  0.1144 -0.5356
  237ccc     H5 6351   6.911   4.356   2.380  0.4629 -0.3098  3.0699
  237ccc     H6 6352   6.769   4.461   2.371  1.0223 -3.4259 -0.1373
  237ccc     N1 6353   6.964   4.557   1.998  0.2882 -0.4210  0.4403
  237ccc     H7 6354   6.918   4.546   1.906 -0.8134  1.8031  0.6538
  237ccc     H8 6355   6.996   4.653   2.019  0.1944 -0.1875 -0.4496
  237ccc     O1 6356   6.919   4.525   2.499  0.0144 -0.0012  0.3423
  237ccc    H17 6357   7.053   4.506   1.988 -0.2338 -1.1403 -0.7592
  238ccc     C1 6358   7.339   4.973   2.555  0.0580 -0.2193 -0.4081
  238ccc     H1 6359   7.339   4.864   2.564 -1.5600 -0.1629  0.6188
  238ccc     H2 6360   7.387   5.001   2.461  0.6496 -1.3218 -0.4529
  238ccc     C2 6361   7.398   5.040   2.682  0.5999  0.1143  0.1383
  238ccc     H3 6362   7.504   5.013   2.682  0.6232  0.1556  1.2452
  238ccc     H4 6363   7.389   5.150   2.680  0.8044  0.1859  1.7123
  238ccc     C3 6364   7.363   4.980   2.822 -0.1882 -0.4822 -0.4430
  238ccc     H5 6365   7.411   5.042   2.899  1.5429  0.1400 -1.9716
  238ccc     H6 6366   7.411   4.881   2.819  1.3301  0.1041  1.9921
  238ccc     N1 6367   7.200   5.019   2.523 -0.7046  0.0753  0.4776
  238ccc     H7 6368   7.176   4.984   2.429  1.2259  1.9703 -0.7884
  238ccc     H8 6369   7.125   4.978   2.581 -1.1682 -1.5051 -1.1286
  238ccc     O1 6370   7.224   4.987   2.839  0.1537 -0.1623 -0.0167
  238ccc    H17 6371   7.191   5.121   2.512  0.6313  0.1823  0.1447
  239ccc     C1 6372   4.568   2.634   5.866  0.1320  0.4722 -0.3603
  239ccc     H1 6373   4.542   2.670   5.965  0.1945 -1.1849  0.3024
  239ccc     H2 6374   4.492   2.563   5.832  2.0283 -1.1528 -1.4654
  239ccc     C2 6375   4.706   2.572   5.883 -0.0323  0.0412  0.1820
  239ccc     H3 6376   4.738   2.539   5.783  3.6165 -0.7880  1.4636
  239ccc     H4 6377   4.778   2.653   5.903 -2.2646  2.2503 -0.2625
  239ccc     C3 6378   4.712   2.460   5.989  0.3719 -0.0724 -0.0742
  239ccc     H5 6379   4.686   2.500   6.088  3.0876  2.4517 -0.2564
  239ccc     H6 6380   4.818   2.433   5.997  0.0518 -1.5681 -0.5960
  239ccc     N1 6381   4.563   2.739   5.760  0.1352  0.4323 -0.3591
  239ccc     H7 6382   4.468   2.779   5.764 -0.5499 -1.1340 -0.1247
  239ccc     H8 6383   4.627   2.816   5.784  2.0130 -1.6610  1.9527
  239ccc     O1 6384   4.631   2.345   5.940  0.6730  0.3445 -0.0272
  239ccc    H17 6385   4.579   2.714   5.662  1.3116 -1.9683  0.3650
  240ccc     C1 6386   4.175   1.631   5.865 -0.5855 -0.3617  0.0780
  240ccc     H1 6387   4.227   1.711   5.812  0.9678 -0.8157  0.8638
  240ccc     H2 6388   4.189   1.634   5.973 -0.4207  0.8301  0.0414
  240ccc     C2 6389   4.239   1.501   5.811  0.2442 -0.3985 -0.2013
  240ccc     H3 6390   4.171   1.424   5.848  1.7707  0.0062  4.1611
  240ccc     H4 6391   4.238   1.497   5.702 -0.1391 -0.8631 -0.1789
  240ccc     C3 6392   4.379   1.480   5.870 -0.0264  0.0877  0.1998
  240ccc     H5 6393   4.430   1.390   5.833  3.3794  0.8607  2.5832
  240ccc     H6 6394   4.368   1.460   5.977 -0.0224  0.4379  0.2683
  240ccc     N1 6395   4.031   1.649   5.840  0.3148  0.0650  0.3315
  240ccc     H7 6396   4.003   1.626   5.743 -0.0886  1.2765  0.1413
  240ccc     H8 6397   3.971   1.593   5.902 -1.0827  0.5725 -0.4953
  240ccc     O1 6398   4.459   1.597   5.869 -0.5989 -0.4075 -0.1192
  240ccc    H17 6399   3.999   1.746   5.853 -0.6146 -0.2640  0.6182
  241ccc     C1 6400   4.856   0.531   5.246 -0.6426  0.3586 -0.2249
  241ccc     H1 6401   4.911   0.437   5.250 -2.3201 -0.6652 -0.1018
  241ccc     H2 6402   4.926   0.606   5.283  1.9216 -1.6764 -0.6249
  241ccc     C2 6403   4.733   0.525   5.341  0.3442  0.0552  0.5759
  241ccc     H3 6404   4.668   0.604   5.301 -0.8062 -0.3547  1.5644
  241ccc     H4 6405   4.677   0.431   5.329 -0.7375  0.7763 -0.2770
  241ccc     C3 6406   4.764   0.533   5.490  0.4208  0.3699  0.2410
  241ccc     H5 6407   4.834   0.455   5.523  0.5804  1.0595  1.5726
  241ccc     H6 6408   4.669   0.525   5.545 -0.9729 -0.2276 -2.0795
  241ccc     N1 6409   4.823   0.549   5.099 -0.0249  0.1676  0.8166
  241ccc     H7 6410   4.911   0.570   5.050 -1.1969  0.3247 -1.3099
  241ccc     H8 6411   4.772   0.478   5.045  1.9596  1.5393 -3.2791
  241ccc     O1 6412   4.829   0.655   5.528  0.0171 -0.3202  0.0990
  241ccc    H17 6413   4.765   0.634   5.093 -0.1723  0.0330  0.3657
  242ccc     C1 6414   4.913   1.112   6.358  0.4229  0.0751 -0.3911
  242ccc     H1 6415   4.871   1.151   6.265 -0.7635  0.4911  0.2922
  242ccc     H2 6416   4.968   1.197   6.400  0.3464 -0.4470  0.7915
  242ccc     C2 6417   5.001   0.988   6.326 -0.3629  0.2206  0.5071
  242ccc     H3 6418   5.034   0.933   6.414  1.7492  0.7112  0.0819
  242ccc     H4 6419   4.942   0.925   6.258 -0.8485  1.4292 -0.2419
  242ccc     C3 6420   5.131   1.025   6.248 -0.2056  0.1248  0.3259
  242ccc     H5 6421   5.177   0.932   6.213  0.7234  0.1536  1.4477
  242ccc     H6 6422   5.207   1.082   6.302 -0.1186  0.4660 -0.1559
  242ccc     N1 6423   4.791   1.084   6.436 -0.3747  0.0406  0.0792
  242ccc     H7 6424   4.825   1.047   6.526  0.3696 -1.0882 -0.6382
  242ccc     H8 6425   4.743   1.173   6.455 -0.8344 -0.5928  2.1171
  242ccc     O1 6426   5.087   1.100   6.141  0.4341 -0.1070  0.0201
  242ccc    H17 6427   4.730   1.014   6.392 -0.8526 -0.3524  1.3344
  243ccc     C1 6428   4.515   2.432   3.870  0.4816 -0.5194 -0.4447
  243ccc     H1 6429   4.517   2.539   3.849  1.5220 -0.5931 -0.7854
  243ccc     H2 6430   4.419   2.391   3.840  0.9269 -2.4753  0.5974
  243ccc     C2 6431   4.543   2.403   4.015 -0.1012  0.4689  0.5398
  243ccc     H3 6432   4.540   2.295   4.032 -0.0141  0.2268 -0.8933
  243ccc     H4 6433   4.643   2.432   4.050  0.0109  0.9881 -0.1978
  243ccc     C3 6434   4.444   2.478   4.109  1.0062  0.6629  0.7645
  243ccc     H5 6435   4.342   2.440   4.098  1.8280 -1.5612  0.4671
  243ccc     H6 6436   4.442   2.585   4.082 -0.2571  0.6532  0.7337
  243ccc     N1 6437   4.623   2.389   3.779 -0.2493 -0.2869  0.0811
  243ccc     H7 6438   4.627   2.447   3.693  4.5289 -1.4458 -0.7572
  243ccc     H8 6439   4.716   2.411   3.818 -0.7296  0.5107  0.8149
  243ccc     O1 6440   4.483   2.459   4.246 -0.2755  0.4053 -0.0923
  243ccc    H17 6441   4.618   2.288   3.761 -1.4776 -0.2210 -0.0574
  244ccc     C1 6442   3.899   1.812   4.384 -0.6105 -0.1475  0.1221
  244ccc     H1 6443   3.965   1.865   4.315 -2.1775  0.9182 -0.6076
  244ccc     H2 6444   3.821   1.884   4.409 -1.4669 -0.6514 -0.9903
  244ccc     C2 6445   3.983   1.768   4.503  0.0940 -0.1419  0.6607
  244ccc     H3 6446   3.942   1.683   4.557  1.4037 -2.2754 -1.4671
  244ccc     H4 6447   4.084   1.728   4.483  0.2508  0.7560 -0.4657
  244ccc     C3 6448   4.010   1.877   4.607 -0.1519 -0.1744 -0.0888
  244ccc     H5 6449   4.005   1.827   4.705  0.3232 -0.6676 -0.3086
  244ccc     H6 6450   3.942   1.963   4.608  0.1334  0.0526  0.6336
  244ccc     N1 6451   3.831   1.700   4.310  0.0690 -0.2436  0.8434
  244ccc     H7 6452   3.865   1.604   4.327  0.1343 -0.3202  0.3152
  244ccc     H8 6453   3.733   1.706   4.342 -0.1222  1.5029  0.0630
  244ccc     O1 6454   4.145   1.927   4.584 -0.7776  0.2359  0.2191
  244ccc    H17 6455   3.825   1.720   4.209 -1.0339 -0.6528  0.8178
  245ccc     C1 6456   4.289   3.466   5.999  0.0583  0.4546  0.3217
  245ccc     H1 6457   4.388   3.455   6.043  0.3974 -1.4976 -0.8185
  245ccc     H2 6458   4.267   3.368   5.957  1.8528  0.1679 -0.0458
  245ccc     C2 6459   4.296   3.568   5.883 -0.1174 -0.4990 -0.3216
  245ccc     H3 6460   4.192   3.587   5.854  0.9346  2.6311 -2.5918
  245ccc     H4 6461   4.334   3.667   5.911 -1.0316  0.1833 -1.3925
  245ccc     C3 6462   4.386   3.519   5.765  0.2260  0.6879  0.1404
  245ccc     H5 6463   4.484   3.486   5.802  1.4450  1.8095 -1.9016
  245ccc     H6 6464   4.413   3.603   5.699  1.3261 -0.2117 -0.5739
  245ccc     N1 6465   4.184   3.503   6.111 -0.3530 -0.0399 -0.3981
  245ccc     H7 6466   4.211   3.596   6.148  0.1349  0.3305 -1.6136
  245ccc     H8 6467   4.089   3.507   6.071 -0.4417 -1.8731 -0.4473
  245ccc     O1 6468   4.311   3.420   5.687 -0.2944 -0.3923 -0.3576
  245ccc    H17 6469   4.188   3.438   6.191  0.3711  0.1577 -0.2600
  246ccc     C1 6470   4.017   2.630   5.072  0.1867  0.9681 -0.2126
  246ccc     H1 6471   3.986   2.578   4.981 -1.3776 -1.8070  1.7605
  246ccc     H2 6472   4.109   2.686   5.052  0.6888 -0.2261 -1.4768
  246ccc     C2 6473   4.031   2.516   5.174  1.1818  0.1946 -0.1197
  246ccc     H3 6474   3.948   2.445   5.168  0.4923  1.0116 -0.4526
  246ccc     H4 6475   4.118   2.451   5.158  1.3016  0.8375 -2.5442
  246ccc     C3 6476   4.057   2.556   5.326  0.2444 -0.5734 -0.4452
  246ccc     H5 6477   4.077   2.463   5.381  1.1194 -0.0319  0.1825
  246ccc     H6 6478   3.974   2.612   5.371  1.9283  1.9126 -0.2223
  246ccc     N1 6479   3.915   2.741   5.105  0.4320  0.1241  0.1762
  246ccc     H7 6480   3.928   2.778   5.201  4.4276 -1.4783  0.4333
  246ccc     H8 6481   3.935   2.822   5.045  0.3562 -0.4050 -0.5623
  246ccc     O1 6482   4.175   2.637   5.335  0.4721 -0.1975 -0.2189
  246ccc    H17 6483   3.817   2.711   5.095  0.8256 -0.7711 -1.2551
  247ccc     C1 6484   7.159   2.164   6.258 -0.0928 -0.5047  0.0685
  247ccc     H1 6485   7.155   2.090   6.179 -2.9804  0.2157 -0.5907
  247ccc     H2 6486   7.057   2.189   6.288 -0.6552  1.3113 -2.9896
  247ccc     C2 6487   7.230   2.287   6.198  0.0284 -0.5455 -0.3422
  247ccc     H3 6488   7.155   2.343   6.142 -0.0387  1.1624  1.3453
  247ccc     H4 6489   7.245   2.355   6.283 -1.3101 -0.9103  0.1986
  247ccc     C3 6490   7.347   2.253   6.109 -0.3678 -0.3068  0.0280
  247ccc     H5 6491   7.424   2.218   6.180  0.9282  2.6551  0.2095
  247ccc     H6 6492   7.390   2.342   6.062  0.5268 -0.3957  0.6457
  247ccc     N1 6493   7.235   2.105   6.380 -0.1185  0.0618 -0.0573
  247ccc     H7 6494   7.192   2.020   6.419  1.1674 -0.1477  0.9670
  247ccc     H8 6495   7.330   2.074   6.356 -1.1096 -1.1921 -2.7508
  247ccc     O1 6496   7.307   2.155   6.013 -0.3127 -0.2029  0.4865
  247ccc    H17 6497   7.235   2.164   6.465  0.1387 -0.7963  0.5511
  248ccc     C1 6498   7.573   1.387   5.914  0.2360 -0.5863  0.0931
  248ccc     H1 6499   7.627   1.395   5.819  3.0628 -0.7305  1.5948
  248ccc     H2 6500   7.535   1.285   5.920  0.1029 -0.4734  1.6261
  248ccc     C2 6501   7.448   1.481   5.912  0.0435  0.3024  0.0016
  248ccc     H3 6502   7.391   1.446   5.999 -1.2817 -0.0363 -0.9726
  248ccc     H4 6503   7.472   1.585   5.936  2.9345 -0.7325  2.2199
  248ccc     C3 6504   7.362   1.486   5.786  0.0196 -0.3721 -0.4601
  248ccc     H5 6505   7.328   1.387   5.754  1.2233 -0.2212 -2.4172
  248ccc     H6 6506   7.425   1.541   5.714  1.3279 -0.7791  0.3476
  248ccc     N1 6507   7.674   1.406   6.029  0.5758 -0.0848  0.7275
  248ccc     H7 6508   7.630   1.428   6.120  1.0035 -0.7349  1.0921
  248ccc     H8 6509   7.742   1.330   6.035 -0.9722 -1.9122 -2.2399
  248ccc     O1 6510   7.248   1.568   5.821  0.8772  0.2145 -0.5987
  248ccc    H17 6511   7.718   1.496   6.002 -1.1999 -0.0540 -2.6885
  249ccc     C1 6512   7.386   2.287   4.302 -0.7461  0.0817  0.4856
  249ccc     H1 6513   7.396   2.374   4.238  1.4879 -1.2877 -1.1812
  249ccc     H2 6514   7.349   2.319   4.400  2.8546  0.9084  1.7457
  249ccc     C2 6515   7.526   2.220   4.330 -0.4416  0.2144 -0.2068
  249ccc     H3 6516   7.499   2.116   4.352 -1.8947  0.6040 -0.0752
  249ccc     H4 6517   7.584   2.219   4.237 -2.5618 -0.0128 -1.5964
  249ccc     C3 6518   7.598   2.293   4.454 -0.1560  0.4348  0.6737
  249ccc     H5 6519   7.607   2.398   4.421 -0.3344 -0.2821 -1.8852
  249ccc     H6 6520   7.700   2.256   4.470 -0.0890  1.2179  2.3012
  249ccc     N1 6521   7.290   2.190   4.239  0.0108 -0.0622 -0.5356
  249ccc     H7 6522   7.193   2.223   4.228  0.2728  0.7471 -0.4672
  249ccc     H8 6523   7.325   2.154   4.148 -2.1088 -1.2667 -0.9481
  249ccc     O1 6524   7.510   2.282   4.566 -0.2480  0.2439  0.0627
  249ccc    H17 6525   7.278   2.104   4.295  0.7703 -1.1566 -1.9693
  250ccc     C1 6526   7.815   2.329   5.360 -0.3887  0.3690  0.2678
  250ccc     H1 6527   7.818   2.297   5.256 -0.3789 -1.1294  0.7055
  250ccc     H2 6528   7.749   2.258   5.409 -2.0997  1.7631  0.0673
  250ccc     C2 6529   7.742   2.462   5.365  0.1669 -0.2834  0.1998
  250ccc     H3 6530   7.804   2.536   5.416 -1.5486  0.2539  1.6358
  250ccc     H4 6531   7.717   2.491   5.262 -1.6913 -0.1798  0.6398
  250ccc     C3 6532   7.609   2.454   5.438 -0.3566  0.0287  0.5044
  250ccc     H5 6533   7.578   2.554   5.470 -1.9565 -0.4985  0.7164
  250ccc     H6 6534   7.619   2.388   5.525 -0.7467 -2.7294 -1.3978
  250ccc     N1 6535   7.954   2.332   5.433  0.6048 -0.1071 -0.3934
  250ccc     H7 6536   8.010   2.405   5.389  0.6565 -0.3875 -0.7988
  250ccc     H8 6537   7.932   2.364   5.529  1.9276  1.5573 -0.6121
  250ccc     O1 6538   7.513   2.399   5.353 -0.1590  0.1971 -0.5089
  250ccc    H17 6539   7.997   2.238   5.440  1.2360  0.1404 -0.8921
  251ccc     C1 6540   6.835   1.146   4.868 -0.0080 -1.0038  0.0406
  251ccc     H1 6541   6.932   1.146   4.918 -0.7242  0.6098  1.5564
  251ccc     H2 6542   6.838   1.228   4.797  1.2058 -1.8008 -0.8824
  251ccc     C2 6543   6.723   1.165   4.975  0.0554  0.2242 -0.3097
  251ccc     H3 6544   6.628   1.172   4.920  1.1121 -2.2651 -2.7493
  251ccc     H4 6545   6.716   1.070   5.031  0.2260  1.6639  2.3007
  251ccc     C3 6546   6.747   1.272   5.085  0.2696  0.0986  0.3293
  251ccc     H5 6547   6.753   1.372   5.042  1.7808  0.5407  1.4698
  251ccc     H6 6548   6.846   1.242   5.123  1.1806  1.2343 -1.0497
  251ccc     N1 6549   6.812   1.023   4.783 -0.8115 -0.3203  0.5471
  251ccc     H7 6550   6.811   0.937   4.840 -0.2710  0.7300  2.2243
  251ccc     H8 6551   6.729   1.024   4.723 -1.2668 -1.5054  1.1353
  251ccc     O1 6552   6.642   1.271   5.185 -0.5547 -0.5131 -0.4081
  251ccc    H17 6553   6.889   1.020   4.714 -1.1458  0.6059  0.1257
  252ccc     C1 6554   6.623   1.020   5.812  0.2085 -0.6334  0.3228
  252ccc     H1 6555   6.697   1.089   5.851 -0.9993  0.3915  0.8609
  252ccc     H2 6556   6.557   1.077   5.746 -1.4744  2.4819  4.3037
  252ccc     C2 6557   6.519   0.980   5.924  0.6281 -0.4402  0.4547
  252ccc     H3 6558   6.557   0.897   5.985 -1.6055 -2.1187 -0.3469
  252ccc     H4 6559   6.497   1.066   5.988 -1.2709 -0.8900  0.4625
  252ccc     C3 6560   6.385   0.927   5.869 -0.1766 -0.1397  0.7664
  252ccc     H5 6561   6.314   0.933   5.953  0.1729  0.2498  1.0405
  252ccc     H6 6562   6.381   0.824   5.831  0.1966  0.1377 -0.0436
  252ccc     N1 6563   6.696   0.905   5.745  0.0420  0.5271 -0.1495
  252ccc     H7 6564   6.629   0.827   5.737  0.0179  0.1009  2.8155
  252ccc     H8 6565   6.745   0.935   5.660  1.6392  0.9287  0.8665
  252ccc     O1 6566   6.342   1.015   5.761 -0.3051 -0.1663  0.0570
  252ccc    H17 6567   6.753   0.870   5.824  1.0911  0.8055 -0.7578
  253ccc     C1 6568   5.561   2.453   4.550 -0.1541 -0.3205 -0.3889
  253ccc     H1 6569   5.616   2.513   4.623 -0.6406 -0.6585  0.2604
  253ccc     H2 6570   5.474   2.431   4.611  1.3068 -1.6618  1.3045
  253ccc     C2 6571   5.638   2.326   4.511  0.2315 -0.5106 -0.2284
  253ccc     H3 6572   5.722   2.357   4.447  1.2541 -1.5706  0.5384
  253ccc     H4 6573   5.691   2.282   4.596  1.6172  1.1512 -0.1625
  253ccc     C3 6574   5.557   2.215   4.434 -0.4181  0.1246  0.7260
  253ccc     H5 6575   5.533   2.245   4.331  0.8755  0.8166  0.6119
  253ccc     H6 6576   5.468   2.187   4.492  0.1031  0.8282  1.8849
  253ccc     N1 6577   5.508   2.541   4.441  0.0297  0.2877 -0.5766
  253ccc     H7 6578   5.584   2.567   4.377  1.8106  0.7200  1.6112
  253ccc     H8 6579   5.437   2.482   4.394  0.4540 -1.0312  0.3814
  253ccc     O1 6580   5.633   2.090   4.423  0.0262  0.0835 -0.5857
  253ccc    H17 6581   5.469   2.625   4.487  0.0221 -0.5239  0.9671
  254ccc     C1 6582   5.439   0.962   4.660  0.6960  0.1397 -0.8399
  254ccc     H1 6583   5.346   0.982   4.714 -1.0864 -1.2505 -3.1987
  254ccc     H2 6584   5.498   0.891   4.718 -0.3084 -2.4286 -2.7283
  254ccc     C2 6585   5.518   1.081   4.602  0.4181 -0.0378 -1.1070
  254ccc     H3 6586   5.586   1.117   4.680 -0.2583  2.4097 -1.5706
  254ccc     H4 6587   5.586   1.051   4.521  1.5230  0.9376 -0.5606
  254ccc     C3 6588   5.419   1.186   4.550  0.1664  0.2763  0.3518
  254ccc     H5 6589   5.354   1.225   4.629  0.3156  1.6428 -0.1818
  254ccc     H6 6590   5.358   1.143   4.469 -0.3775  1.3015  0.2051
  254ccc     N1 6591   5.409   0.865   4.547  0.1740  0.5129 -0.5841
  254ccc     H7 6592   5.352   0.904   4.471  0.5616  0.8032 -0.7284
  254ccc     H8 6593   5.499   0.830   4.511  0.8470 -0.9081  2.2181
  254ccc     O1 6594   5.490   1.287   4.477 -0.2614 -0.5106 -0.5425
  254ccc    H17 6595   5.355   0.784   4.579  0.1581  0.0960 -1.6281
  255ccc     C1 6596   1.390   7.420   7.665  0.1246  0.4125  0.3243
  255ccc     H1 6597   1.435   7.345   7.600 -1.0897 -0.9253  0.9520
  255ccc     H2 6598   1.455   7.499   7.703  1.7032 -2.1762  3.4774
  255ccc     C2 6599   1.331   7.341   7.778  0.4515 -0.0962  0.3831
  255ccc     H3 6600   1.271   7.412   7.836 -0.8324 -0.2144 -0.7615
  255ccc     H4 6601   1.257   7.272   7.737  0.6697 -1.0799  1.5811
  255ccc     C3 6602   1.430   7.284   7.874  0.7153  0.1841  0.4941
  255ccc     H5 6603   1.379   7.241   7.962 -0.0459 -0.2828 -0.1618
  255ccc     H6 6604   1.499   7.364   7.904  1.9650  0.7708 -3.4154
  255ccc     N1 6605   1.281   7.494   7.588 -0.7651 -0.3409  0.4665
  255ccc     H7 6606   1.325   7.564   7.527 -0.1445 -0.9293  0.2270
  255ccc     H8 6607   1.229   7.428   7.527  2.2565 -1.4701 -1.0709
  255ccc     O1 6608   1.502   7.183   7.808  0.0136  0.0196 -0.1580
  255ccc    H17 6609   1.224   7.546   7.656  1.6121  3.7909 -0.3749
  256ccc     C1 6610   1.411   6.218   7.315  0.2010  0.3422 -0.9186
  256ccc     H1 6611   1.373   6.206   7.214  0.6701 -1.1744 -0.9478
  256ccc     H2 6612   1.342   6.271   7.382  0.2331  0.0520 -0.6517
  256ccc     C2 6613   1.544   6.287   7.318  0.0483  0.3613 -0.1423
  256ccc     H3 6614   1.587   6.281   7.418 -0.2462 -1.1863 -0.0825
  256ccc     H4 6615   1.614   6.232   7.253  0.2423 -0.6543  0.8984
  256ccc     C3 6616   1.528   6.443   7.288  0.0282 -0.2659  0.0424
  256ccc     H5 6617   1.481   6.452   7.190  0.2621  0.6537  0.0060
  256ccc     H6 6618   1.629   6.486   7.280 -0.5438  1.1933  0.4624
  256ccc     N1 6619   1.409   6.087   7.382  0.4631 -0.1513  0.1387
  256ccc     H7 6620   1.478   6.029   7.332  0.0927 -0.7990  0.3726
  256ccc     H8 6621   1.442   6.090   7.480 -1.3945 -0.3580  0.8044
  256ccc     O1 6622   1.454   6.500   7.389 -0.1609 -0.3990 -0.0671
  256ccc    H17 6623   1.322   6.034   7.365  0.5627 -0.5760  0.8918
  257ccc     C1 6624   1.046   5.635   8.162 -0.0451 -0.0787 -0.0734
  257ccc     H1 6625   1.027   5.594   8.262 -2.5195  0.4299 -0.2716
  257ccc     H2 6626   1.104   5.564   8.104 -1.5759  0.4065 -2.3052
  257ccc     C2 6627   1.123   5.762   8.187 -0.3677 -0.9339 -0.3019
  257ccc     H3 6628   1.231   5.758   8.201 -0.2820 -1.6008 -1.0880
  257ccc     H4 6629   1.112   5.823   8.096 -0.8663 -1.3785 -0.5483
  257ccc     C3 6630   1.053   5.841   8.301  0.7014 -0.3817 -0.3844
  257ccc     H5 6631   1.086   5.798   8.396  1.5318  1.9128  0.4408
  257ccc     H6 6632   0.944   5.839   8.291  0.6477  1.7993 -0.7629
  257ccc     N1 6633   0.912   5.648   8.085 -0.5182 -0.0646  0.5496
  257ccc     H7 6634   0.867   5.737   8.112 -1.7764 -0.2986 -0.6914
  257ccc     H8 6635   0.912   5.653   7.983 -1.5820  1.7866  0.5876
  257ccc     O1 6636   1.091   5.977   8.292 -0.1848 -0.1123 -0.1776
  257ccc    H17 6637   0.845   5.576   8.118 -1.4869  0.5239 -0.0689
  258ccc     C1 6638   0.644   6.708   8.101  0.8033 -0.9588 -0.1486
  258ccc     H1 6639   0.674   6.809   8.070  0.7114 -0.9581 -0.2344
  258ccc     H2 6640   0.576   6.718   8.185  1.7656  0.6696  0.5092
  258ccc     C2 6641   0.778   6.629   8.129  0.5178  0.4025  0.1674
  258ccc     H3 6642   0.750   6.531   8.169  0.8616 -0.3023 -1.2450
  258ccc     H4 6643   0.840   6.613   8.040 -0.9418  0.4387 -0.8843
  258ccc     C3 6644   0.860   6.697   8.235  0.0752 -0.2461  0.4709
  258ccc     H5 6645   0.803   6.690   8.328  1.1426 -2.5930  1.0209
  258ccc     H6 6646   0.867   6.802   8.204  0.6102 -0.3380  0.2669
  258ccc     N1 6647   0.556   6.646   7.991 -0.1754 -0.9000  0.5682
  258ccc     H7 6648   0.614   6.639   7.905 -0.4662 -2.5161  0.4680
  258ccc     H8 6649   0.526   6.553   8.022  0.7226 -1.3974  0.0043
  258ccc     O1 6650   0.990   6.641   8.254  0.4838  0.3694  0.2517
  258ccc    H17 6651   0.477   6.711   7.988  0.7084  0.1961 -0.1582
  259ccc     C1 6652   1.987   7.893   7.181 -0.0431  0.2441 -0.6119
  259ccc     H1 6653   1.996   7.973   7.107  0.0635 -1.3220 -2.3731
  259ccc     H2 6654   1.976   7.937   7.280 -3.0101  2.9028 -1.9055
  259ccc     C2 6655   2.112   7.813   7.167 -0.5705  0.7346  0.2944
  259ccc     H3 6656   2.134   7.788   7.062  0.2895  0.4685  0.5309
  259ccc     H4 6657   2.194   7.882   7.187  0.1104  0.2708 -0.7856
  259ccc     C3 6658   2.136   7.692   7.262  0.0058 -0.6782  0.0820
  259ccc     H5 6659   2.243   7.669   7.255  0.0582 -0.0335 -1.7296
  259ccc     H6 6660   2.088   7.599   7.231  0.9362 -1.2029  0.2038
  259ccc     N1 6661   1.862   7.833   7.135  0.2348  0.1472  0.6806
  259ccc     H7 6662   1.781   7.897   7.141 -1.4279 -1.7583 -0.1452
  259ccc     H8 6663   1.868   7.814   7.033  0.1259  2.9067  0.0759
  259ccc     O1 6664   2.109   7.736   7.393 -0.0516  0.5558 -0.1025
  259ccc    H17 6665   1.831   7.740   7.166 -1.2673  0.1987 -0.4967
  260ccc     C1 6666   2.422   8.455   8.050  0.3087  0.0553  0.0181
  260ccc     H1 6667   2.386   8.360   8.090  1.8507  0.7095  3.2576
  260ccc     H2 6668   2.356   8.532   8.088  2.3974  2.6401 -1.2292
  260ccc     C2 6669   2.414   8.455   7.900  0.0406  0.3870  0.8906
  260ccc     H3 6670   2.445   8.552   7.859 -0.0412 -0.2541 -0.7790
  260ccc     H4 6671   2.474   8.377   7.853  0.6661  1.9187 -0.9644
  260ccc     C3 6672   2.275   8.442   7.846 -0.0763 -0.3835 -0.5331
  260ccc     H5 6673   2.275   8.473   7.741 -0.4399  0.2473 -0.3556
  260ccc     H6 6674   2.211   8.507   7.908  0.5250 -1.3050  1.1134
  260ccc     N1 6675   2.562   8.493   8.111 -0.9359  0.0699 -0.7530
  260ccc     H7 6676   2.643   8.449   8.065  0.5696  2.5032 -0.6516
  260ccc     H8 6677   2.575   8.592   8.086  0.5759  0.0390 -0.2084
  260ccc     O1 6678   2.235   8.302   7.875 -0.0852  0.1533 -0.0854
  260ccc    H17 6679   2.565   8.483   8.213  1.5648 -0.4519 -0.8216
  261ccc     C1 6680   1.745   8.271   8.804  0.3385 -0.4101 -0.0797
  261ccc     H1 6681   1.772   8.253   8.908  3.0643  0.5597 -0.5135
  261ccc     H2 6682   1.657   8.217   8.771 -2.0885  2.2125  1.5974
  261ccc     C2 6683   1.869   8.247   8.714 -0.7883 -0.1554  0.5360
  261ccc     H3 6684   1.834   8.239   8.610 -0.5474 -0.0586  0.4480
  261ccc     H4 6685   1.951   8.318   8.726 -0.1266 -0.3593 -2.1500
  261ccc     C3 6686   1.926   8.111   8.748  0.3824 -0.2679 -0.2330
  261ccc     H5 6687   1.979   8.117   8.844  0.1461 -0.1450 -0.1103
  261ccc     H6 6688   2.000   8.079   8.673  0.4080 -1.7660  0.4027
  261ccc     N1 6689   1.715   8.421   8.805 -0.0118  0.0341  0.5936
  261ccc     H7 6690   1.726   8.465   8.712 -0.8157 -0.1445  0.3968
  261ccc     H8 6691   1.616   8.444   8.823  0.0350  0.8734 -0.1658
  261ccc     O1 6692   1.825   8.012   8.748 -0.3543  0.6899 -0.4164
  261ccc    H17 6693   1.761   8.476   8.879 -1.5992  2.2224  0.0856
  262ccc     C1 6694   0.989   8.088   8.537 -0.0770  0.1989  0.1553
  262ccc     H1 6695   0.900   8.030   8.513 -0.8213  0.8491  1.2682
  262ccc     H2 6696   1.074   8.084   8.469 -0.0881 -0.8850  0.1991
  262ccc     C2 6697   1.033   8.059   8.675  0.0381  0.0569 -0.6693
  262ccc     H3 6698   1.095   8.135   8.723  1.6479 -2.0682  0.8503
  262ccc     H4 6699   0.945   8.070   8.740  0.7373  1.5495  0.0772
  262ccc     C3 6700   1.091   7.914   8.701 -0.0203 -0.1843  0.2713
  262ccc     H5 6701   1.011   7.842   8.681  1.9181 -2.2594 -0.4000
  262ccc     H6 6702   1.123   7.904   8.806  1.0367 -1.9927 -0.1729
  262ccc     N1 6703   0.929   8.228   8.509 -0.1025  0.0726  0.0528
  262ccc     H7 6704   0.903   8.233   8.410  0.1428 -0.2493 -0.0285
  262ccc     H8 6705   0.854   8.252   8.575 -0.7190 -0.3394 -0.5003
  262ccc     O1 6706   1.208   7.887   8.631 -0.3207  0.1692  0.4390
  262ccc    H17 6707   1.012   8.290   8.516 -1.6251  2.1069  0.9322
  263ccc     C1 6708   3.441   5.932  10.763  0.6658  0.1848 -0.0437
  263ccc     H1 6709   3.365   5.994  10.715  0.1660 -0.1854  0.2559
  263ccc     H2 6710   3.441   5.941  10.872  2.6203 -1.4666  0.1456
  263ccc     C2 6711   3.581   5.956  10.704  0.3992  0.1546 -0.0512
  263ccc     H3 6712   3.652   5.876  10.728 -0.4439 -0.8745 -0.8860
  263ccc     H4 6713   3.585   5.954  10.595  0.5779  0.6329 -0.0576
  263ccc     C3 6714   3.645   6.085  10.759  0.0399 -0.4340  0.5895
  263ccc     H5 6715   3.670   6.081  10.866 -4.2096  0.5213  1.8175
  263ccc     H6 6716   3.570   6.162  10.740 -1.5710 -1.9045  0.7105
  263ccc     N1 6717   3.394   5.786  10.756  0.0617 -0.2073  0.2211
  263ccc     H7 6718   3.365   5.764  10.660  0.4016  2.7446 -0.6649
  263ccc     H8 6719   3.453   5.709  10.791  0.3696 -0.2601 -0.4001
  263ccc     O1 6720   3.770   6.108  10.694  0.1416  0.0379  0.2350
  263ccc    H17 6721   3.310   5.779  10.814  0.5664  2.4032  1.4213
  264ccc     C1 6722   4.280   6.667  10.838 -0.4792  0.1120 -0.8503
  264ccc     H1 6723   4.383   6.635  10.851 -1.0597 -1.6950 -0.4941
  264ccc     H2 6724   4.218   6.578  10.827  0.3842 -0.5902 -0.1137
  264ccc     C2 6725   4.262   6.773  10.732  0.0688 -0.2494  0.6196
  264ccc     H3 6726   4.162   6.817  10.739 -0.8803 -1.6918 -2.3406
  264ccc     H4 6727   4.333   6.856  10.744  0.7489 -0.6626 -0.4139
  264ccc     C3 6728   4.314   6.720  10.591  0.2455  0.3995 -0.0336
  264ccc     H5 6729   4.419   6.687  10.594  0.3022  0.5728 -0.0819
  264ccc     H6 6730   4.305   6.798  10.515 -0.5428 -1.3053 -1.7837
  264ccc     N1 6731   4.236   6.729  10.960  0.6892  0.2995 -0.0941
  264ccc     H7 6732   4.303   6.805  10.981 -0.1410  0.6062  1.5429
  264ccc     H8 6733   4.138   6.761  10.953  0.7679  0.5848  0.0752
  264ccc     O1 6734   4.240   6.600  10.549 -0.1073 -0.3037 -0.5977
  264ccc    H17 6735   4.244   6.670  11.043  2.1798  1.3570  0.5548
  265ccc     C1 6736   4.520   6.414   9.945 -1.1515 -0.3761  0.3569
  265ccc     H1 6737   4.479   6.405   9.844 -0.6633  0.6018  0.0522
  265ccc     H2 6738   4.500   6.519   9.968  0.1240  0.6241 -2.6826
  265ccc     C2 6739   4.668   6.379   9.944 -0.4478 -0.2620 -0.4325
  265ccc     H3 6740   4.705   6.403  10.045  0.4533 -0.7534 -0.6311
  265ccc     H4 6741   4.695   6.272   9.940 -3.2313 -1.1284  1.2637
  265ccc     C3 6742   4.764   6.446   9.847 -0.7699 -0.7539  0.6379
  265ccc     H5 6743   4.759   6.385   9.756  0.1376  2.4348 -1.7213
  265ccc     H6 6744   4.866   6.458   9.886 -0.7469  1.5227  0.0220
  265ccc     N1 6745   4.437   6.333  10.033 -0.0487  0.6712 -0.8066
  265ccc     H7 6746   4.346   6.379  10.044 -0.1901 -0.0418  1.5245
  265ccc     H8 6747   4.418   6.240   9.992 -0.1658  0.8416 -1.1458
  265ccc     O1 6748   4.734   6.585   9.820  1.0990  0.2324 -0.2423
  265ccc    H17 6749   4.478   6.317  10.126 -1.0863  3.8705  0.3083
  266ccc     C1 6750   5.145   7.533  10.155 -0.1577  0.1818  0.4904
  266ccc     H1 6751   5.235   7.476  10.178  0.0364  0.3158  0.0762
  266ccc     H2 6752   5.076   7.510  10.236  0.8287 -1.7126  0.8612
  266ccc     C2 6753   5.098   7.482  10.011  0.0411  0.1782 -0.3269
  266ccc     H3 6754   5.016   7.549   9.982 -1.2011 -0.3814  1.6869
  266ccc     H4 6755   5.174   7.488   9.933  1.8000 -1.2398  1.1795
  266ccc     C3 6756   5.029   7.347  10.020  0.5017 -0.1183 -0.2261
  266ccc     H5 6757   5.029   7.312   9.916  0.2028  1.1581 -0.6730
  266ccc     H6 6758   4.925   7.368  10.048  1.0700  0.0206  1.9202
  266ccc     N1 6759   5.185   7.677  10.169  0.0055 -0.3921 -0.0609
  266ccc     H7 6760   5.213   7.702  10.265  0.1370  0.3096 -0.2762
  266ccc     H8 6761   5.265   7.702  10.109  0.4196 -0.2512  0.5456
  266ccc     O1 6762   5.099   7.260  10.112 -0.2807  0.3546 -0.0631
  266ccc    H17 6763   5.105   7.737  10.144  0.6877  1.9796  2.8175
  267ccc     C1 6764   1.645   6.176   9.531 -0.5885  0.1355  0.0757
  267ccc     H1 6765   1.568   6.178   9.608  0.9654 -0.0436  1.7193
  267ccc     H2 6766   1.635   6.099   9.455 -0.5311  1.2046 -1.0481
  267ccc     C2 6767   1.775   6.140   9.609  0.5888 -0.4128  0.2189
  267ccc     H3 6768   1.780   6.205   9.698 -0.7037 -1.6313  1.2216
  267ccc     H4 6769   1.758   6.037   9.642  1.1043 -0.5904 -0.0610
  267ccc     C3 6770   1.901   6.142   9.528 -0.2909 -0.4812 -0.3878
  267ccc     H5 6771   1.902   6.225   9.456  0.0769  0.1324  0.3146
  267ccc     H6 6772   1.914   6.052   9.466 -0.6620 -0.0025 -1.1812
  267ccc     N1 6773   1.646   6.311   9.466 -0.5531  0.2317 -0.4393
  267ccc     H7 6774   1.547   6.333   9.447 -1.1357  0.1264  2.1122
  267ccc     H8 6775   1.686   6.386   9.524  1.7124 -0.0917 -1.4810
  267ccc     O1 6776   2.004   6.163   9.623 -0.2622  0.0581  0.5813
  267ccc    H17 6777   1.706   6.308   9.383  0.5268 -1.8615  0.3433
  268ccc     C1 6778   1.919   6.205  10.262  0.3740 -0.0157 -0.0513
  268ccc     H1 6779   2.006   6.149  10.298 -1.1076  0.1259  4.2293
  268ccc     H2 6780   1.933   6.232  10.157  0.4418 -1.0609 -0.3178
  268ccc     C2 6781   1.898   6.335  10.351 -0.1037 -0.0735  0.3673
  268ccc     H3 6782   1.798   6.378  10.336  0.7103  1.8437  0.1326
  268ccc     H4 6783   1.904   6.317  10.459  2.6943 -0.7864  0.1733
  268ccc     C3 6784   2.009   6.443  10.316  0.0326  0.3790  0.0226
  268ccc     H5 6785   2.092   6.417  10.382 -0.1524  0.1596  0.1707
  268ccc     H6 6786   1.964   6.539  10.344  0.0727  0.2799  0.4345
  268ccc     N1 6787   1.795   6.112  10.256 -0.3050  0.1176 -0.0885
  268ccc     H7 6788   1.811   6.038  10.187 -0.2013  1.7778 -1.9203
  268ccc     H8 6789   1.787   6.081  10.354  0.4193  0.1686 -0.0063
  268ccc     O1 6790   2.046   6.433  10.178  0.4193 -0.0337 -0.3632
  268ccc    H17 6791   1.713   6.165  10.225  0.8496  0.9762 -1.8186
  269ccc     C1 6792   2.288   7.749   9.723  0.1951 -0.1383  0.8556
  269ccc     H1 6793   2.313   7.696   9.631 -3.9960 -0.9426  0.0140
  269ccc     H2 6794   2.190   7.794   9.707  0.8769  0.6748 -1.3337
  269ccc     C2 6795   2.394   7.852   9.761 -0.8461 -0.6881  0.7130
  269ccc     H3 6796   2.415   7.924   9.681 -1.2405  1.5506  2.4988
  269ccc     H4 6797   2.348   7.924   9.831 -0.1257  1.0371 -0.5008
  269ccc     C3 6798   2.530   7.795   9.806 -0.5868 -0.1095 -0.2230
  269ccc     H5 6799   2.511   7.721   9.885  2.9648 -0.6096  0.3572
  269ccc     H6 6800   2.589   7.874   9.856 -2.1055 -0.2124  1.8571
  269ccc     N1 6801   2.261   7.646   9.828 -0.2204  0.5299  0.3346
  269ccc     H7 6802   2.263   7.691   9.920 -1.7354  1.4149 -0.0308
  269ccc     H8 6803   2.174   7.592   9.815  0.7035 -1.4338  1.6976
  269ccc     O1 6804   2.592   7.737   9.691  0.3801  0.0915 -0.1022
  269ccc    H17 6805   2.337   7.576   9.830 -1.3512 -0.7196  1.7947
  270ccc     C1 6806   2.853   7.863   9.208  0.3154 -0.3242 -0.0718
  270ccc     H1 6807   2.933   7.935   9.227 -0.6157  1.4390 -2.2697
  270ccc     H2 6808   2.854   7.789   9.287  2.1743 -0.0668  0.1900
  270ccc     C2 6809   2.873   7.790   9.074 -0.0969  0.1405 -0.1327
  270ccc     H3 6810   2.781   7.733   9.056 -1.3334  1.4893  1.6298
  270ccc     H4 6811   2.884   7.862   8.992  0.1803 -1.0909 -1.2260
  270ccc     C3 6812   2.996   7.699   9.074 -0.2258  0.7163  0.4746
  270ccc     H5 6813   3.080   7.756   9.116  0.2089  0.1282  0.4057
  270ccc     H6 6814   3.017   7.656   8.976 -1.1841 -2.0380  1.3899
  270ccc     N1 6815   2.727   7.946   9.221 -0.0795  0.5562 -0.3264
  270ccc     H7 6816   2.649   7.879   9.216  0.7130 -0.8987  3.5325
  270ccc     H8 6817   2.717   8.000   9.308 -0.2430 -1.5213  1.0186
  270ccc     O1 6818   2.970   7.591   9.164 -0.2536 -0.5351 -0.4127
  270ccc    H17 6819   2.711   8.010   9.142  2.1670 -1.1099 -2.2949
  271ccc     C1 6820   4.046   8.633   6.191 -0.5156 -0.0409 -0.1602
  271ccc     H1 6821   3.964   8.702   6.173  0.1214  0.4301 -1.3415
  271ccc     H2 6822   4.003   8.542   6.147 -1.1247  0.3531 -0.3914
  271ccc     C2 6823   4.063   8.617   6.339 -0.9624  0.4019 -0.5308
  271ccc     H3 6824   4.145   8.549   6.366  1.0341  2.6119 -0.7496
  271ccc     H4 6825   4.089   8.709   6.392 -1.1776 -0.3849  1.0097
  271ccc     C3 6826   3.936   8.560   6.408 -0.3286  0.3279  0.0323
  271ccc     H5 6827   3.863   8.641   6.397  1.2042  1.4555 -3.2705
  271ccc     H6 6828   3.966   8.538   6.511  2.0794  1.3726 -0.3606
  271ccc     N1 6829   4.171   8.670   6.120 -0.2048 -0.6316  0.2836
  271ccc     H7 6830   4.201   8.766   6.142 -2.0699 -0.6276  3.4971
  271ccc     H8 6831   4.248   8.607   6.149 -0.9073 -1.4961  0.2893
  271ccc     O1 6832   3.884   8.447   6.328 -0.1720 -0.3483  0.3632
  271ccc    H17 6833   4.153   8.664   6.019 -0.0070 -0.2411  0.2237
  272ccc     C1 6834   3.164   8.456   5.718  0.1649 -0.2103  0.2801
  272ccc     H1 6835   3.205   8.551   5.681  0.5465  0.1825  1.6425
  272ccc     H2 6836   3.154   8.465   5.826 -0.1965 -1.7683  0.3942
  272ccc     C2 6837   3.258   8.339   5.688 -0.4309  0.8262  0.9630
  272ccc     H3 6838   3.246   8.250   5.750  1.2370 -0.2433 -0.1825
  272ccc     H4 6839   3.253   8.305   5.584 -0.9889 -0.1831  1.3126
  272ccc     C3 6840   3.399   8.385   5.718  0.1549  0.0213  0.2052
  272ccc     H5 6841   3.392   8.441   5.812 -2.8515 -0.7915  0.5537
  272ccc     H6 6842   3.436   8.454   5.641 -1.3942  0.6760  0.0052
  272ccc     N1 6843   3.036   8.442   5.651 -0.0955  0.0147  0.5341
  272ccc     H7 6844   3.015   8.342   5.636 -0.0017  0.3288 -2.3705
  272ccc     H8 6845   2.963   8.481   5.712  1.6391  2.4029  1.2562
  272ccc     O1 6846   3.481   8.274   5.710  0.1328  0.0455  0.5565
  272ccc    H17 6847   3.036   8.496   5.563  0.1618  1.3541  1.3260
  273ccc     C1 6848   4.802   7.230   6.873  0.2470 -0.4122  0.3946
  273ccc     H1 6849   4.834   7.131   6.842  0.7690  0.0188 -0.4765
  273ccc     H2 6850   4.750   7.227   6.969 -3.8344  1.5883 -1.4989
  273ccc     C2 6851   4.705   7.287   6.767 -0.0324  0.4250  0.5522
  273ccc     H3 6852   4.668   7.386   6.798 -2.0931  0.4144 -1.5667
  273ccc     H4 6853   4.761   7.307   6.675 -2.4026 -1.6489 -1.4861
  273ccc     C3 6854   4.589   7.198   6.729  0.5018  0.0598  1.0298
  273ccc     H5 6855   4.531   7.171   6.818 -0.9362 -1.0749 -0.2061
  273ccc     H6 6856   4.625   7.105   6.686 -1.3869 -0.7276  1.0299
  273ccc     N1 6857   4.933   7.309   6.880  0.0856 -0.2738  0.0892
  273ccc     H7 6858   4.916   7.394   6.936 -2.9067 -0.6656 -0.0267
  273ccc     H8 6859   5.003   7.257   6.934  0.8341  0.6336  0.0250
  273ccc     O1 6860   4.514   7.276   6.638 -0.0380  0.3187  0.6323
  273ccc    H17 6861   4.983   7.329   6.792 -0.0187 -0.7633 -0.0822
  274ccc     C1 6862   4.929   7.236   5.932  0.0093  0.4640  0.5398
  274ccc     H1 6863   4.933   7.138   5.885  2.1906 -0.0803  1.7179
  274ccc     H2 6864   4.874   7.231   6.026  0.4154  0.8231  0.8041
  274ccc     C2 6865   4.874   7.340   5.837  0.4082 -0.9194  0.7095
  274ccc     H3 6866   4.928   7.346   5.742  0.9936 -0.4581  1.0633
  274ccc     H4 6867   4.772   7.307   5.816  0.3221  0.3429 -1.0853
  274ccc     C3 6868   4.857   7.487   5.893 -0.3775 -0.5322 -0.0141
  274ccc     H5 6869   4.794   7.540   5.820 -0.4892  0.0816  0.5211
  274ccc     H6 6870   4.956   7.535   5.902 -0.8186  0.3503  0.1917
  274ccc     N1 6871   5.067   7.270   5.975  0.0538 -0.1712  0.7785
  274ccc     H7 6872   5.080   7.372   5.976  0.0315 -0.1454 -0.5749
  274ccc     H8 6873   5.093   7.234   6.068  0.8924 -1.2026  0.1660
  274ccc     O1 6874   4.807   7.474   6.026 -0.8469 -0.3038 -0.1630
  274ccc    H17 6875   5.132   7.224   5.909 -0.2028 -1.2993  1.2829
  275ccc     C1 6876   1.703   6.773   6.177  0.0633 -0.0553  0.0384
  275ccc     H1 6877   1.677   6.667   6.185 -0.5212  0.1150  0.4945
  275ccc     H2 6878   1.800   6.783   6.128  1.2676 -1.0610  2.0461
  275ccc     C2 6879   1.699   6.820   6.325  1.6388 -0.0877  0.6587
  275ccc     H3 6880   1.599   6.798   6.364  1.5872  1.3568  1.3785
  275ccc     H4 6881   1.775   6.774   6.389  0.2369 -1.2991  1.5077
  275ccc     C3 6882   1.725   6.972   6.329  0.0397 -0.4010 -0.1643
  275ccc     H5 6883   1.738   6.997   6.435 -1.8469  0.6925 -0.1524
  275ccc     H6 6884   1.647   7.024   6.272 -0.7169 -0.3469  0.8805
  275ccc     N1 6885   1.599   6.824   6.085 -0.5425  0.6331 -0.1993
  275ccc     H7 6886   1.613   6.772   5.997  0.4562  0.3056  0.1387
  275ccc     H8 6887   1.506   6.813   6.126 -0.6866  2.7829  0.1642
  275ccc     O1 6888   1.853   6.996   6.279  0.2281 -0.1341 -0.1347
  275ccc    H17 6889   1.610   6.926   6.075  0.5395  0.5712  0.1433
  276ccc     C1 6890   2.668   7.098   5.907 -0.0137  0.0791 -0.1010
  276ccc     H1 6891   2.616   7.153   5.985  1.1115  2.7063 -1.0670
  276ccc     H2 6892   2.608   7.104   5.816  1.0860  0.1242 -0.8469
  276ccc     C2 6893   2.694   6.953   5.953 -0.3669  0.6451  0.0446
  276ccc     H3 6894   2.744   6.896   5.874  0.8909  0.4161  0.9674
  276ccc     H4 6895   2.765   6.947   6.036 -0.6412  1.3058  0.3336
  276ccc     C3 6896   2.561   6.888   6.001 -0.4309  1.0419 -0.1066
  276ccc     H5 6897   2.575   6.780   6.012 -3.1250  0.7532  1.4222
  276ccc     H6 6898   2.486   6.898   5.922  0.5974 -2.5608 -1.7565
  276ccc     N1 6899   2.788   7.181   5.868 -0.1761 -0.0304  0.3646
  276ccc     H7 6900   2.862   7.177   5.939 -0.1628  1.2929  0.4450
  276ccc     H8 6901   2.828   7.135   5.785  0.7851  2.1502 -0.4586
  276ccc     O1 6902   2.514   6.940   6.131 -0.5316 -0.7464  0.0885
  276ccc    H17 6903   2.769   7.279   5.843  0.4477  0.6116  2.2703
  277ccc     C1 6904   1.555   8.673   6.148 -0.2525 -0.0710 -0.5895
  277ccc     H1 6905   1.509   8.596   6.086  1.1934 -1.7593  0.3583
  277ccc     H2 6906   1.620   8.727   6.080  1.9670 -2.3421 -0.4300
  277ccc     C2 6907   1.646   8.603   6.251  0.3847 -0.0565 -0.2967
  277ccc     H3 6908   1.707   8.689   6.281 -0.2174  1.5967 -3.3371
  277ccc     H4 6909   1.588   8.575   6.339  1.5803  0.4876  0.6855
  277ccc     C3 6910   1.718   8.489   6.189  0.2857  0.1645 -0.5984
  277ccc     H5 6911   1.758   8.511   6.089  1.4201  1.3151  0.0804
  277ccc     H6 6912   1.644   8.408   6.190 -1.0592  1.3608 -0.1872
  277ccc     N1 6913   1.450   8.768   6.209  0.2411  0.0897 -0.2394
  277ccc     H7 6914   1.495   8.849   6.255  0.3668  0.2888 -0.7110
  277ccc     H8 6915   1.398   8.815   6.133  1.2501  1.9607  0.1557
  277ccc     O1 6916   1.826   8.457   6.281 -0.4166  0.2403  0.9029
  277ccc    H17 6917   1.381   8.727   6.273 -1.0097  1.7945 -0.4267
  278ccc     C1 6918   2.603   8.668   6.917  1.1575 -0.2869 -0.5692
  278ccc     H1 6919   2.555   8.574   6.890  0.1965  0.3246 -1.0495
  278ccc     H2 6920   2.526   8.736   6.954  0.9636 -0.8232  0.0448
  278ccc     C2 6921   2.672   8.737   6.793  0.8455 -0.1395 -1.0133
  278ccc     H3 6922   2.733   8.818   6.836 -1.1600  1.9122 -1.8312
  278ccc     H4 6923   2.741   8.668   6.743  1.0187  0.2974 -1.3851
  278ccc     C3 6924   2.561   8.789   6.692 -0.6306 -0.3816  0.4528
  278ccc     H5 6925   2.615   8.826   6.603 -2.9421 -0.6709 -1.1557
  278ccc     H6 6926   2.497   8.871   6.725  0.5316  0.6110  0.3116
  278ccc     N1 6927   2.690   8.642   7.034 -0.8638  0.0525 -0.3492
  278ccc     H7 6928   2.777   8.593   7.011 -0.2849  0.7788  0.2102
  278ccc     H8 6929   2.705   8.737   7.071  1.4643 -0.1041 -0.7493
  278ccc     O1 6930   2.483   8.675   6.651 -0.2370  0.0366  0.5089
  278ccc    H17 6931   2.638   8.596   7.110  1.2287  0.0604  1.1659
  279ccc     C1 6932   3.758   9.177   8.804  0.2129 -0.0168  0.0517
  279ccc     H1 6933   3.770   9.070   8.823 -0.5393  0.3748  3.4026
  279ccc     H2 6934   3.794   9.233   8.890 -2.4514 -0.4171  1.5289
  279ccc     C2 6935   3.608   9.223   8.766 -0.4950  0.2210 -0.5648
  279ccc     H3 6936   3.616   9.332   8.770 -1.1819  0.2834 -0.8007
  279ccc     H4 6937   3.583   9.188   8.665  0.6046  0.3523 -0.8968
  279ccc     C3 6938   3.504   9.174   8.876 -0.3642  0.6170  0.3173
  279ccc     H5 6939   3.410   9.216   8.836  1.3887  1.3616 -3.5185
  279ccc     H6 6940   3.538   9.200   8.976 -0.5214 -1.9442  1.1025
  279ccc     N1 6941   3.852   9.203   8.691 -1.0725  0.4760  0.3829
  279ccc     H7 6942   3.935   9.143   8.699 -1.1954  0.5391  3.1573
  279ccc     H8 6943   3.803   9.183   8.602 -0.6712  0.1007  0.2417
  279ccc     O1 6944   3.504   9.031   8.858 -0.1789  0.1763  0.4345
  279ccc    H17 6945   3.884   9.301   8.686 -0.4610  0.3119  0.9824
  280ccc     C1 6946   4.092   8.947   9.168 -0.5946 -0.0550 -0.0717
  280ccc     H1 6947   4.098   8.841   9.195 -0.6380 -0.0932 -0.2120
  280ccc     H2 6948   3.989   8.979   9.181 -0.3722  1.0666 -0.9180
  280ccc     C2 6949   4.138   8.966   9.017  0.6327 -0.1670 -0.5445
  280ccc     H3 6950   4.121   9.071   8.992 -3.3826  0.0663  2.1566
  280ccc     H4 6951   4.244   8.937   9.010  0.7990 -0.3934  1.8482
  280ccc     C3 6952   4.051   8.879   8.912 -0.2722 -0.2532 -0.4486
  280ccc     H5 6953   4.077   8.891   8.806 -1.8375  0.3884 -0.7986
  280ccc     H6 6954   3.947   8.914   8.916 -0.5200 -1.0326  0.2969
  280ccc     N1 6955   4.160   9.037   9.266 -0.1619 -0.2229 -0.0489
  280ccc     H7 6956   4.252   8.999   9.290 -1.1892 -2.5622  0.4136
  280ccc     H8 6957   4.172   9.136   9.240  2.5766 -0.6997 -0.9040
  280ccc     O1 6958   4.039   8.744   8.957 -0.2311  0.3844  0.9235
  280ccc    H17 6959   4.114   9.036   9.358  0.8941 -1.4481  0.4859
  281ccc     C1 6960   4.463   8.591   7.845 -0.5301 -0.8636  0.2666
  281ccc     H1 6961   4.554   8.593   7.786 -0.9798 -1.7057 -0.4914
  281ccc     H2 6962   4.478   8.564   7.950  0.5483 -1.9379 -0.1453
  281ccc     C2 6963   4.353   8.496   7.793 -0.8501 -0.5268  0.2369
  281ccc     H3 6964   4.251   8.518   7.826  0.0375  0.9723  2.1475
  281ccc     H4 6965   4.348   8.506   7.684 -1.2240 -3.1946 -0.0650
  281ccc     C3 6966   4.390   8.352   7.820 -0.1912  0.5544 -0.3444
  281ccc     H5 6967   4.486   8.320   7.776  0.3625  0.0020  1.2060
  281ccc     H6 6968   4.321   8.280   7.773 -0.1460  0.2697  0.0223
  281ccc     N1 6969   4.421   8.742   7.855 -0.1000 -0.3167 -0.4091
  281ccc     H7 6970   4.324   8.758   7.885  0.0209  0.4109 -0.3862
  281ccc     H8 6971   4.476   8.798   7.923 -0.7958  0.8596 -0.7932
  281ccc     O1 6972   4.377   8.330   7.961  0.6389 -0.0591 -0.4202
  281ccc    H17 6973   4.426   8.795   7.767  1.4515 -0.2270 -0.2923
  282ccc     C1 6974   3.489   8.211   7.670  0.5912 -0.2076  0.3283
  282ccc     H1 6975   3.412   8.135   7.659  0.0870  0.0212  1.9682
  282ccc     H2 6976   3.535   8.213   7.571  0.3901 -3.0731  0.1114
  282ccc     C2 6977   3.586   8.187   7.786  0.7438  0.1986 -0.5002
  282ccc     H3 6978   3.678   8.246   7.790  1.7701 -1.3794  2.3506
  282ccc     H4 6979   3.534   8.189   7.883  3.3666 -0.9691  1.0583
  282ccc     C3 6980   3.641   8.038   7.758  0.0159 -1.0800 -0.0570
  282ccc     H5 6981   3.710   8.034   7.673 -0.3956 -0.6801 -0.4199
  282ccc     H6 6982   3.556   7.970   7.754 -1.2747  0.4405  0.4357
  282ccc     N1 6983   3.410   8.337   7.691 -0.5226 -0.7950  0.1017
  282ccc     H7 6984   3.356   8.324   7.778 -0.0827  0.2297  0.5503
  282ccc     H8 6985   3.468   8.421   7.705  1.0639 -1.6438 -1.0872
  282ccc     O1 6986   3.714   8.009   7.884  0.4722  0.2718 -0.1742
  282ccc    H17 6987   3.345   8.344   7.611 -2.3273 -1.5683  1.4281
  283ccc     C1 6988   4.631   9.158   8.904  0.2692 -0.0799  0.5538
  283ccc     H1 6989   4.526   9.169   8.880  0.8311 -0.1437 -2.2340
  283ccc     H2 6990   4.687   9.129   8.815 -2.0965 -1.3282 -0.5836
  283ccc     C2 6991   4.627   9.045   9.009  0.0861 -0.0689 -0.0189
  283ccc     H3 6992   4.718   9.029   9.068 -0.9911  0.7879  1.9911
  283ccc     H4 6993   4.541   9.065   9.075 -0.4581  0.8000 -0.9708
  283ccc     C3 6994   4.595   8.913   8.931 -0.4450  0.0612  0.3995
  283ccc     H5 6995   4.670   8.897   8.852  0.1552  2.6706  0.3475
  283ccc     H6 6996   4.501   8.927   8.876  0.1244 -0.9575 -0.8990
  283ccc     N1 6997   4.694   9.287   8.946 -0.2420  0.5627  0.0347
  283ccc     H7 6998   4.793   9.265   8.961 -0.6308 -1.8081 -0.4638
  283ccc     H8 6999   4.696   9.351   8.865 -0.8897 -0.0203 -0.4586
  283ccc     O1 7000   4.579   8.794   9.017  0.8978  0.0933 -0.6843
  283ccc    H17 7001   4.646   9.333   9.025  0.0823 -0.9084  1.1278
  284ccc     C1 7002   5.386   8.335   9.377 -0.2932  0.1744  0.1365
  284ccc     H1 7003   5.341   8.236   9.391  0.3494  0.0372  1.3834
  284ccc     H2 7004   5.370   8.394   9.467  2.2138 -4.2336  3.9279
  284ccc     C2 7005   5.326   8.399   9.249 -0.5132 -0.2048  0.1425
  284ccc     H3 7006   5.372   8.498   9.249  0.4614 -0.5356  3.2429
  284ccc     H4 7007   5.360   8.345   9.160 -1.1129 -0.6381  0.1761
  284ccc     C3 7008   5.174   8.417   9.259  0.3250  0.8720 -0.3533
  284ccc     H5 7009   5.140   8.467   9.167 -0.7241  0.3278 -0.2818
  284ccc     H6 7010   5.143   8.479   9.345 -1.6898 -0.7858  0.2125
  284ccc     N1 7011   5.534   8.292   9.382  0.4054  0.2737 -0.2818
  284ccc     H7 7012   5.560   8.249   9.472 -0.9709  0.3000  0.1560
  284ccc     H8 7013   5.552   8.219   9.310 -2.7778 -0.6446 -0.3018
  284ccc     O1 7014   5.114   8.287   9.261  0.1708  0.2744 -0.5168
  284ccc    H17 7015   5.599   8.368   9.362 -1.8226  1.8422 -2.1221
  285ccc     C1 7016   5.482   7.232   9.562  0.6484  0.4158 -0.2496
  285ccc     H1 7017   5.375   7.226   9.543  0.6758 -1.4685  0.0243
  285ccc     H2 7018   5.488   7.286   9.657  0.2173 -1.2768  0.7707
  285ccc     C2 7019   5.549   7.305   9.441  0.5470 -0.6928 -0.2887
  285ccc     H3 7020   5.656   7.316   9.460  0.6512 -0.6093 -0.8989
  285ccc     H4 7021   5.533   7.232   9.360 -0.2624  0.2259 -0.9892
  285ccc     C3 7022   5.482   7.439   9.404 -0.4162 -0.2986  0.6806
  285ccc     H5 7023   5.539   7.493   9.327  0.4376 -1.1713  0.6800
  285ccc     H6 7024   5.469   7.511   9.485  0.2861 -0.3227  0.8179
  285ccc     N1 7025   5.530   7.090   9.581 -0.0006  0.4124 -0.4020
  285ccc     H7 7026   5.499   7.043   9.668  1.5065 -0.3942 -0.2772
  285ccc     H8 7027   5.512   7.030   9.499 -0.0657  1.3189 -1.0730
  285ccc     O1 7028   5.351   7.411   9.349  1.1166 -0.0100 -0.1791
  285ccc    H17 7029   5.632   7.094   9.588 -0.0495  1.0429 -0.0430
  286ccc     C1 7030   5.459   6.985   8.688  0.8895  0.8252 -0.4643
  286ccc     H1 7031   5.515   6.920   8.755  0.0298 -0.9571 -1.3862
  286ccc     H2 7032   5.437   7.081   8.735 -2.7445  1.3010 -2.7600
  286ccc     C2 7033   5.327   6.906   8.651 -0.4471  0.0748 -0.9600
  286ccc     H3 7034   5.263   6.978   8.599  1.2126  1.3133 -1.3690
  286ccc     H4 7035   5.351   6.823   8.583 -1.1744 -1.2876  0.3943
  286ccc     C3 7036   5.259   6.856   8.781 -1.0785 -0.4951  0.3372
  286ccc     H5 7037   5.328   6.791   8.837  0.0816 -1.8347 -2.4852
  286ccc     H6 7038   5.162   6.805   8.768 -1.7553  0.0430  2.7009
  286ccc     N1 7039   5.553   7.024   8.574  0.2691 -0.0367 -0.4114
  286ccc     H7 7040   5.518   7.098   8.512 -0.8486 -0.6359 -0.5287
  286ccc     H8 7041   5.635   7.069   8.618  0.4553 -0.5058 -0.2699
  286ccc     O1 7042   5.241   6.975   8.861 -0.6327  0.1322 -0.3056
  286ccc    H17 7043   5.588   6.940   8.524 -1.8231 -1.0972 -0.2146
  287ccc     C1 7044   6.327   5.595   7.068 -0.0404  0.3842 -0.0456
  287ccc     H1 7045   6.301   5.547   6.973 -0.1724  1.1105 -0.3858
  287ccc     H2 7046   6.418   5.655   7.065 -1.7082  3.1238  0.2980
  287ccc     C2 7047   6.334   5.490   7.181 -0.0875  0.1384 -0.2970
  287ccc     H3 7048   6.236   5.473   7.226  0.9419 -1.3436  1.5331
  287ccc     H4 7049   6.369   5.392   7.147 -0.7970 -1.3460  2.8884
  287ccc     C3 7050   6.429   5.522   7.293 -0.5706  0.4123  0.6004
  287ccc     H5 7051   6.493   5.438   7.323  0.7373  0.3179 -2.1952
  287ccc     H6 7052   6.369   5.558   7.378 -0.9885  0.4921  0.2724
  287ccc     N1 7053   6.217   5.692   7.107  0.0158  0.3360 -0.7652
  287ccc     H7 7054   6.211   5.770   7.040  0.5226  0.0070 -1.2034
  287ccc     H8 7055   6.127   5.642   7.099  0.0366  0.4760 -2.1205
  287ccc     O1 7056   6.516   5.628   7.254 -0.1111 -0.2513 -0.0476
  287ccc    H17 7057   6.235   5.712   7.207  3.0387  0.1421 -1.1743
  288ccc     C1 7058   7.341   5.668   8.085 -0.7255  0.0773  0.2283
  288ccc     H1 7059   7.338   5.726   7.993  0.6832  1.5019  1.0418
  288ccc     H2 7060   7.441   5.624   8.088 -0.7659 -0.8481 -4.1612
  288ccc     C2 7061   7.242   5.553   8.080 -0.3212  0.2225  0.3601
  288ccc     H3 7062   7.278   5.479   8.006  0.1165  0.4367  0.3554
  288ccc     H4 7063   7.249   5.501   8.176 -3.4918 -2.5668 -0.7205
  288ccc     C3 7064   7.100   5.582   8.043  0.7795  1.2184 -0.0165
  288ccc     H5 7065   7.072   5.669   8.105 -0.5880  0.7140  0.1156
  288ccc     H6 7066   7.035   5.494   8.054  0.8285  1.3077  1.1861
  288ccc     N1 7067   7.309   5.764   8.196  0.2920 -0.0300 -0.0055
  288ccc     H7 7068   7.216   5.807   8.206  1.7622  2.9921  2.7315
  288ccc     H8 7069   7.323   5.719   8.288  3.3821  0.8215  0.0351
  288ccc     O1 7070   7.101   5.620   7.904  0.3323 -0.4240 -0.1460
  288ccc    H17 7071   7.386   5.832   8.193  1.3481 -1.2213 -1.1423
  289ccc     C1 7072   7.787   5.643   5.751  0.8652  0.0008 -0.1226
  289ccc     H1 7073   7.866   5.577   5.718  0.3189 -0.4833 -0.4828
  289ccc     H2 7074   7.817   5.744   5.723 -0.5821  0.4384 -0.1891
  289ccc     C2 7075   7.747   5.623   5.900 -0.1616  0.3105 -0.0785
  289ccc     H3 7076   7.649   5.667   5.923 -0.9807 -1.8000  0.7152
  289ccc     H4 7077   7.739   5.516   5.922  1.4553  0.0320 -0.7182
  289ccc     C3 7078   7.851   5.690   6.000  0.3464  0.8308 -0.1002
  289ccc     H5 7079   7.954   5.654   5.994  0.6403  0.9188  2.9499
  289ccc     H6 7080   7.836   5.661   6.105 -1.7102  0.5011 -0.4352
  289ccc     N1 7081   7.672   5.608   5.667  0.9176 -0.5520 -0.1352
  289ccc     H7 7082   7.697   5.611   5.567 -0.0028 -0.7660 -0.3801
  289ccc     H8 7083   7.644   5.510   5.683 -0.3690  0.1395  2.3707
  289ccc     O1 7084   7.831   5.835   5.994 -0.1196  0.2655 -0.1877
  289ccc    H17 7085   7.582   5.656   5.677 -0.0274 -2.1852 -0.4809
  290ccc     C1 7086   7.495   5.486   6.702  0.5530 -0.3346  0.3821
  290ccc     H1 7087   7.503   5.567   6.630  1.8114 -1.0317 -0.3028
  290ccc     H2 7088   7.484   5.535   6.799  2.8762  1.0917  0.0112
  290ccc     C2 7089   7.628   5.409   6.710 -0.4359  0.9878 -0.3861
  290ccc     H3 7090   7.614   5.323   6.775  0.2798  1.6455  0.6662
  290ccc     H4 7091   7.647   5.368   6.610  0.9234 -1.3613  0.7515
  290ccc     C3 7092   7.747   5.496   6.758  0.6683  0.0473 -0.3267
  290ccc     H5 7093   7.822   5.420   6.784 -0.3748 -0.4016  1.5133
  290ccc     H6 7094   7.720   5.545   6.852 -0.1446  0.1889 -0.6282
  290ccc     N1 7095   7.379   5.405   6.680 -0.5291  0.3427 -0.5313
  290ccc     H7 7096   7.296   5.467   6.674 -0.7135  0.1674  0.1561
  290ccc     H8 7097   7.393   5.354   6.592 -0.1456  0.3231 -0.4600
  290ccc     O1 7098   7.778   5.581   6.654  0.2793 -0.2106 -0.3896
  290ccc    H17 7099   7.368   5.342   6.761 -2.2952  1.2392 -0.0199
  291ccc     C1 7100   7.385   7.690   7.792 -0.2244 -0.1625 -0.5133
  291ccc     H1 7101   7.338   7.595   7.767 -1.4321  0.4142 -0.4991
  291ccc     H2 7102   7.379   7.759   7.707  0.0202 -0.0182 -0.4142
  291ccc     C2 7103   7.531   7.665   7.829  0.0083  0.6875 -0.1322
  291ccc     H3 7104   7.588   7.747   7.874  0.6988 -0.7419  1.7300
  291ccc     H4 7105   7.512   7.589   7.905  0.5295  0.0644 -0.6199
  291ccc     C3 7106   7.612   7.620   7.704  0.4063 -0.3108  0.9760
  291ccc     H5 7107   7.570   7.528   7.661 -0.3180  0.1370  0.7209
  291ccc     H6 7108   7.719   7.621   7.729  0.9669  0.5607 -1.2588
  291ccc     N1 7109   7.292   7.746   7.899  0.2034 -0.0271  0.2992
  291ccc     H7 7110   7.331   7.838   7.924  0.0726 -0.3573  1.7975
  291ccc     H8 7111   7.201   7.775   7.860  0.1197  0.2057  0.6577
  291ccc     O1 7112   7.592   7.720   7.603  0.2076 -0.0658  0.3087
  291ccc    H17 7113   7.275   7.687   7.982 -1.0420  0.3051  0.3106
  292ccc     C1 7114   6.716   8.310   7.431  0.0737  0.0670 -0.8517
  292ccc     H1 7115   6.677   8.299   7.330 -0.4761  0.0862 -0.6439
  292ccc     H2 7116   6.719   8.416   7.456  3.6207 -0.0515 -0.2545
  292ccc     C2 7117   6.861   8.263   7.435  1.1486 -0.1989  0.4042
  292ccc     H3 7118   6.931   8.333   7.389 -0.1060 -0.1111 -1.5391
  292ccc     H4 7119   6.878   8.257   7.543 -1.3153 -1.3842  0.8170
  292ccc     C3 7120   6.879   8.123   7.384 -0.0394  0.2915  0.4000
  292ccc     H5 7121   6.827   8.113   7.288 -1.1759  1.4289  0.8627
  292ccc     H6 7122   6.844   8.043   7.451 -0.6992 -0.1191 -0.4208
  292ccc     N1 7123   6.621   8.237   7.533 -0.5933  0.0260  0.0187
  292ccc     H7 7124   6.638   8.135   7.527  0.0703  0.2062 -2.7091
  292ccc     H8 7125   6.631   8.262   7.632 -1.8530 -0.4385  0.2809
  292ccc     O1 7126   7.023   8.110   7.347  0.0814  0.0511 -0.2897
  292ccc    H17 7127   6.526   8.254   7.498 -0.6179 -1.7415 -0.8978
  293ccc     C1 7128   8.198   7.076   5.929 -0.5228 -0.0794 -0.2161
  293ccc     H1 7129   8.099   7.035   5.950 -0.9885  0.8921 -0.4425
  293ccc     H2 7130   8.266   7.060   6.013 -0.3824  1.5908  0.0269
  293ccc     C2 7131   8.176   7.227   5.914 -0.1982  0.8187  0.0650
  293ccc     H3 7132   8.278   7.267   5.907  0.0812 -0.1461 -2.1689
  293ccc     H4 7133   8.123   7.254   5.822  0.2036  1.0877 -0.0917
  293ccc     C3 7134   8.105   7.292   6.034 -0.0572 -0.3939  0.0519
  293ccc     H5 7135   8.000   7.264   6.027 -1.1038  3.3541 -2.2208
  293ccc     H6 7136   8.123   7.400   6.024  3.7290 -0.6789  1.9023
  293ccc     N1 7137   8.260   7.000   5.807  0.5702  0.4692 -0.0543
  293ccc     H7 7138   8.274   6.899   5.823 -0.2243  0.2139 -0.9230
  293ccc     H8 7139   8.197   7.005   5.726  1.4464  2.6421 -0.6672
  293ccc     O1 7140   8.160   7.245   6.156 -0.1956 -0.3799  0.4430
  293ccc    H17 7141   8.353   7.027   5.770  0.0830 -1.1914 -2.7487
  294ccc     C1 7142   9.106   7.096   6.612  0.1916  0.2640 -0.0826
  294ccc     H1 7143   9.043   7.183   6.632  0.0099 -0.4567  2.9983
  294ccc     H2 7144   9.092   7.060   6.510 -0.6767  0.8008 -0.1683
  294ccc     C2 7145   9.062   6.972   6.684  0.0591  0.1093 -0.0165
  294ccc     H3 7146   9.146   6.902   6.674 -0.1413 -0.0084 -1.0243
  294ccc     H4 7147   9.049   7.003   6.788 -1.2504 -0.3058 -0.0393
  294ccc     C3 7148   8.929   6.906   6.642  0.8102 -0.2480 -0.6157
  294ccc     H5 7149   8.912   6.819   6.707  0.0918 -1.7283 -2.6565
  294ccc     H6 7150   8.937   6.874   6.537  2.3640  0.8646 -0.8703
  294ccc     N1 7151   9.246   7.147   6.624 -0.1529  0.5160 -0.2332
  294ccc     H7 7152   9.246   7.240   6.579  1.9156  0.3375 -0.7115
  294ccc     H8 7153   9.271   7.155   6.724 -1.4713 -3.5141  0.6058
  294ccc     O1 7154   8.826   7.005   6.643  0.0567 -0.5985 -0.1737
  294ccc    H17 7155   9.314   7.088   6.573  1.5049  1.2175  1.0665
  295ccc     C1 7156   6.500   7.510   9.024 -0.1904  0.5699 -0.5726
  295ccc     H1 7157   6.560   7.569   9.094 -1.1054  0.2722  0.4848
  295ccc     H2 7158   6.541   7.531   8.925 -0.0892 -0.8073 -0.8390
  295ccc     C2 7159   6.355   7.552   9.049  0.0103 -0.1780  0.0827
  295ccc     H3 7160   6.290   7.505   8.974 -1.1563  0.3872  0.7131
  295ccc     H4 7161   6.330   7.516   9.149 -0.3623 -0.9236 -0.2741
  295ccc     C3 7162   6.337   7.708   9.055  0.0314  0.6822 -0.0902
  295ccc     H5 7163   6.428   7.743   9.106  1.8633 -4.1731  0.5698
  295ccc     H6 7164   6.253   7.728   9.123  0.8135 -0.4979  1.2896
  295ccc     N1 7165   6.524   7.366   9.036 -0.1717 -0.1662 -0.5471
  295ccc     H7 7166   6.448   7.307   9.074  1.1210 -2.2489 -1.0511
  295ccc     H8 7167   6.531   7.327   8.941 -1.8650  0.3251 -0.9155
  295ccc     O1 7168   6.330   7.749   8.923  0.3018  0.8762  0.3976
  295ccc    H17 7169   6.604   7.344   9.097 -0.6266  1.2770  0.6304
  296ccc     C1 7170   6.536   8.487   8.682  0.4770  0.7046 -0.3244
  296ccc     H1 7171   6.587   8.406   8.734 -0.4037  0.6922  0.5377
  296ccc     H2 7172   6.428   8.472   8.678  0.3808  0.8792  1.0801
  296ccc     C2 7173   6.585   8.500   8.538  0.0007  0.4045 -0.1711
  296ccc     H3 7174   6.504   8.554   8.489 -1.1694 -1.7232 -0.7094
  296ccc     H4 7175   6.678   8.558   8.539  0.4002 -0.1989  1.1620
  296ccc     C3 7176   6.595   8.366   8.469 -1.2628  0.4640 -0.2884
  296ccc     H5 7177   6.687   8.319   8.506 -1.9496 -1.9739 -1.4499
  296ccc     H6 7178   6.609   8.360   8.360 -1.2522 -3.9082 -0.2471
  296ccc     N1 7179   6.546   8.622   8.759 -0.3420 -0.2144 -0.4652
  296ccc     H7 7180   6.518   8.613   8.857 -1.1810 -0.7562 -0.7435
  296ccc     H8 7181   6.636   8.671   8.766 -1.0621  1.0830 -0.0526
  296ccc     O1 7182   6.484   8.285   8.500 -0.2640 -0.2741 -0.5086
  296ccc    H17 7183   6.483   8.690   8.713 -2.4399 -1.5382  0.3035
  297ccc     C1 7184   5.051   7.582   7.734  0.5582 -0.2000 -0.2489
  297ccc     H1 7185   4.995   7.548   7.646  0.7144  2.1146 -1.3248
  297ccc     H2 7186   5.007   7.677   7.766  0.6316 -0.6237  1.1893
  297ccc     C2 7187   5.190   7.594   7.683 -1.0779 -0.1835 -0.0675
  297ccc     H3 7188   5.239   7.502   7.652  3.4304  2.7087 -2.6024
  297ccc     H4 7189   5.175   7.664   7.600  0.1637  1.0481  0.7021
  297ccc     C3 7190   5.289   7.673   7.772 -0.0658  0.1120 -0.0396
  297ccc     H5 7191   5.308   7.604   7.855 -0.8338 -1.0246 -0.7792
  297ccc     H6 7192   5.239   7.764   7.806  0.4478  1.1254 -1.8881
  297ccc     N1 7193   5.020   7.475   7.832  0.0672 -0.1020 -0.4262
  297ccc     H7 7194   5.033   7.376   7.808  0.5061 -0.3542  0.7869
  297ccc     H8 7195   5.062   7.484   7.926 -1.9544  0.0759  0.5010
  297ccc     O1 7196   5.406   7.695   7.688 -0.0790 -0.1412  0.2893
  297ccc    H17 7197   4.920   7.481   7.855  0.1418  1.8518 -0.4454
  298ccc     C1 7198   5.662   8.239   6.973 -0.0185 -0.2374 -0.1113
  298ccc     H1 7199   5.666   8.146   6.917  1.4803 -0.4318  0.2776
  298ccc     H2 7200   5.727   8.319   6.936 -2.3522  0.6396 -2.7050
  298ccc     C2 7201   5.693   8.206   7.115 -0.8392  0.2528  0.4640
  298ccc     H3 7202   5.713   8.292   7.181  1.9518 -1.0045  1.4075
  298ccc     H4 7203   5.611   8.155   7.166 -0.8062  1.4202  1.7432
  298ccc     C3 7204   5.821   8.123   7.123  0.2662 -0.5926  0.3279
  298ccc     H5 7205   5.878   8.153   7.211  1.4645 -0.5751 -0.4227
  298ccc     H6 7206   5.882   8.131   7.032  0.3798 -3.0625  0.1096
  298ccc     N1 7207   5.518   8.288   6.954 -0.3720 -0.1854  0.6621
  298ccc     H7 7208   5.521   8.333   6.861  0.6885 -1.7400 -0.0941
  298ccc     H8 7209   5.463   8.204   6.932 -0.7915  0.5016 -1.0956
  298ccc     O1 7210   5.786   7.987   7.116  0.4125 -0.5736 -0.1331
  298ccc    H17 7211   5.472   8.347   7.025  0.6802 -0.8570  1.9301
  299ccc     C1 7212   8.114   6.754   7.522 -0.0880  0.4921  0.5183
  299ccc     H1 7213   8.164   6.754   7.619  1.6329 -4.1553 -0.1066
  299ccc     H2 7214   8.033   6.827   7.520  1.4814  2.3127  0.5076
  299ccc     C2 7215   8.074   6.604   7.496  0.3323 -0.0459  0.4674
  299ccc     H3 7216   8.030   6.590   7.397 -0.0496 -4.1220  1.0591
  299ccc     H4 7217   8.158   6.536   7.513 -1.7956 -2.4593  2.0508
  299ccc     C3 7218   7.978   6.545   7.601 -0.2131 -0.3525 -0.0304
  299ccc     H5 7219   7.959   6.438   7.583 -1.1289 -0.4122  1.1418
  299ccc     H6 7220   7.880   6.592   7.610  0.5694  1.0342  2.0252
  299ccc     N1 7221   8.212   6.792   7.410 -0.0385  0.4401 -0.4248
  299ccc     H7 7222   8.282   6.717   7.399 -0.8906 -0.3617 -0.4785
  299ccc     H8 7223   8.164   6.802   7.319 -3.1049  0.7034  1.0795
  299ccc     O1 7224   8.034   6.551   7.729 -0.0842 -0.2196  0.0190
  299ccc    H17 7225   8.264   6.878   7.432  1.7051 -0.4451 -0.9013
  300ccc     C1 7226   8.585   6.817   8.285  0.5875 -0.3083 -0.6409
  300ccc     H1 7227   8.632   6.914   8.272  1.1265 -0.6027 -0.9317
  300ccc     H2 7228   8.485   6.801   8.245 -0.5161  1.5782  1.1934
  300ccc     C2 7229   8.562   6.780   8.430 -0.1219  0.3511 -0.5427
  300ccc     H3 7230   8.654   6.743   8.475 -1.1535 -2.0441 -0.2479
  300ccc     H4 7231   8.520   6.869   8.479  1.1702  0.9523 -0.4849
  300ccc     C3 7232   8.461   6.666   8.449 -0.0827  1.0233 -0.6017
  300ccc     H5 7233   8.457   6.639   8.556  0.7013 -1.5954 -1.1580
  300ccc     H6 7234   8.498   6.575   8.401 -1.1254 -0.7593  1.7476
  300ccc     N1 7235   8.681   6.723   8.211 -0.0749  0.4464 -0.1538
  300ccc     H7 7236   8.776   6.762   8.207  0.1562 -0.1191 -0.2735
  300ccc     H8 7237   8.682   6.626   8.244 -2.5605  0.2968 -0.3498
  300ccc     O1 7238   8.331   6.709   8.402 -0.0218 -0.2749 -1.0748
  300ccc    H17 7239   8.648   6.705   8.115  1.5683  0.4642 -0.7623
  301ccc     C1 7240   7.596   6.333   8.939 -0.5971  0.2711 -0.1169
  301ccc     H1 7241   7.643   6.367   9.032  0.3409  1.5187 -1.0181
  301ccc     H2 7242   7.528   6.412   8.906 -0.5841  0.0412 -0.7035
  301ccc     C2 7243   7.523   6.208   8.957 -0.0049  0.1923  0.3332
  301ccc     H3 7244   7.467   6.180   8.867  1.1699  3.2408 -1.5211
  301ccc     H4 7245   7.594   6.128   8.980 -0.4311  0.4029  2.6578
  301ccc     C3 7246   7.414   6.209   9.059 -1.1587 -0.3331 -0.5315
  301ccc     H5 7247   7.457   6.241   9.154 -1.2270 -1.8460  0.0292
  301ccc     H6 7248   7.363   6.112   9.072  0.3803 -1.8493 -4.2325
  301ccc     N1 7249   7.716   6.323   8.836 -0.1536  0.0378 -0.0986
  301ccc     H7 7250   7.773   6.408   8.831 -1.0914  0.6809 -0.1242
  301ccc     H8 7251   7.770   6.239   8.859 -1.8806 -0.9252  0.6523
  301ccc     O1 7252   7.319   6.297   9.017 -0.5114 -0.0666 -0.0524
  301ccc    H17 7253   7.673   6.310   8.743  1.2262 -0.5615 -0.6751
  302ccc     C1 7254   6.408   6.771   8.954 -0.2255  1.5807  0.4031
  302ccc     H1 7255   6.492   6.704   8.939 -0.3938  1.6313 -0.9330
  302ccc     H2 7256   6.381   6.816   8.858 -3.5505  0.2065  0.5458
  302ccc     C2 7257   6.443   6.879   9.056 -0.5706  0.5759 -0.5221
  302ccc     H3 7258   6.503   6.960   9.012 -2.2117  2.4897  0.6136
  302ccc     H4 7259   6.353   6.931   9.093 -0.0633  1.6741 -0.7679
  302ccc     C3 7260   6.526   6.820   9.164 -0.1235  0.2888  0.2625
  302ccc     H5 7261   6.479   6.724   9.188 -0.7112  0.5612  0.2262
  302ccc     H6 7262   6.513   6.886   9.251 -2.9931 -1.1668  1.0671
  302ccc     N1 7263   6.288   6.688   9.001  0.9025  0.2134 -0.4479
  302ccc     H7 7264   6.192   6.724   8.987  0.5890 -0.6496 -0.5899
  302ccc     H8 7265   6.281   6.598   8.950  1.8376 -0.2092  0.1540
  302ccc     O1 7266   6.665   6.822   9.117  0.8826  0.6804  0.2621
  302ccc    H17 7267   6.287   6.661   9.100  0.2991 -0.3863 -0.6051
  303ccc     C1 7268   7.576   7.415   5.939 -0.5319  0.0499 -0.5267
  303ccc     H1 7269   7.590   7.326   6.001 -2.1676  0.1189 -0.0130
  303ccc     H2 7270   7.672   7.457   5.912 -0.1103  1.7740  3.0008
  303ccc     C2 7271   7.510   7.523   6.027  0.2254 -0.1521 -0.3983
  303ccc     H3 7272   7.588   7.554   6.098  0.5999  2.0429 -1.6818
  303ccc     H4 7273   7.503   7.618   5.973  3.8361  0.3092 -0.3166
  303ccc     C3 7274   7.393   7.491   6.128 -0.5382  0.7647  0.1011
  303ccc     H5 7275   7.402   7.564   6.209  1.5693  1.7735 -0.9612
  303ccc     H6 7276   7.407   7.392   6.174  2.3128  1.3871  0.7392
  303ccc     N1 7277   7.495   7.361   5.815 -0.4031  0.3110 -0.2407
  303ccc     H7 7278   7.559   7.309   5.753 -2.1518  0.5856 -2.3634
  303ccc     H8 7279   7.421   7.298   5.848 -0.6205  0.9120  0.4700
  303ccc     O1 7280   7.272   7.503   6.046  0.1286  0.2523  0.7355
  303ccc    H17 7281   7.447   7.436   5.763 -0.7320  0.5099  0.3340
  304ccc     C1 7282   6.661   7.039   6.440 -0.8230  0.7121  0.3865
  304ccc     H1 7283   6.652   6.931   6.433 -1.2097  0.7687 -0.0600
  304ccc     H2 7284   6.560   7.080   6.432 -0.3839  1.5800 -1.1153
  304ccc     C2 7285   6.756   7.095   6.329  0.1360 -0.0036 -0.2202
  304ccc     H3 7286   6.759   7.204   6.337 -4.4723  0.3251 -0.2203
  304ccc     H4 7287   6.852   7.048   6.354 -0.6224 -1.7289 -0.3541
  304ccc     C3 7288   6.720   7.053   6.183 -0.7735 -0.2140 -0.4246
  304ccc     H5 7289   6.612   7.034   6.177 -0.9639  1.1379 -2.3048
  304ccc     H6 7290   6.772   6.958   6.166 -2.6841 -1.5012  0.5842
  304ccc     N1 7291   6.710   7.060   6.580  0.2270  0.2076 -0.1094
  304ccc     H7 7292   6.721   7.157   6.613  1.1002  0.2926 -0.6175
  304ccc     H8 7293   6.649   7.016   6.651 -1.0692  1.1188 -0.6123
  304ccc     O1 7294   6.742   7.151   6.081 -0.0257  0.3559 -0.4933
  304ccc    H17 7295   6.806   7.024   6.589  0.6537  1.6254  1.6257
  305ccc     C1 7296   6.975   7.963   3.695  0.2736  0.0687 -0.2635
  305ccc     H1 7297   6.910   8.018   3.626  1.2488 -0.4289 -1.6224
  305ccc     H2 7298   6.975   7.856   3.672  0.2296  0.2692 -1.2504
  305ccc     C2 7299   6.914   7.994   3.833  0.1909 -0.3088  0.6015
  305ccc     H3 7300   6.912   8.100   3.861  2.8929 -0.1618  0.5280
  305ccc     H4 7301   6.810   7.959   3.835 -0.8912  2.5549 -0.6099
  305ccc     C3 7302   6.988   7.921   3.942  0.4359  0.1000  0.2397
  305ccc     H5 7303   7.072   7.977   3.985  0.6587  0.0388 -0.1156
  305ccc     H6 7304   7.027   7.829   3.896 -0.3737  0.6018 -1.5097
  305ccc     N1 7305   7.112   8.024   3.670 -0.1402  0.0075  0.6816
  305ccc     H7 7306   7.190   7.966   3.704  0.9565  1.7906  1.3663
  305ccc     H8 7307   7.138   8.029   3.571 -1.1200 -1.6748  0.3016
  305ccc     O1 7308   6.890   7.890   4.044 -0.1422  0.2395 -0.1953
  305ccc    H17 7309   7.115   8.117   3.714  1.2039  1.8469 -2.9499
  306ccc     C1 7310   6.731   6.892   4.335 -0.3111 -0.5581  0.0849
  306ccc     H1 7311   6.667   6.807   4.357 -1.6935 -0.3891 -2.7931
  306ccc     H2 7312   6.733   6.955   4.424  0.4231 -0.8869  0.3167
  306ccc     C2 7313   6.669   6.963   4.219  0.4605  0.0089  0.9661
  306ccc     H3 7314   6.662   6.895   4.134  1.3940  1.1058 -0.0310
  306ccc     H4 7315   6.565   6.994   4.236  0.0908 -1.1965  0.9574
  306ccc     C3 7316   6.753   7.089   4.174 -0.0900  0.8112 -1.1277
  306ccc     H5 7317   6.716   7.133   4.080  0.4639  0.3925 -1.5445
  306ccc     H6 7318   6.857   7.068   4.148  0.5326  2.2575  0.0765
  306ccc     N1 7319   6.874   6.838   4.314 -0.5419 -0.0280  0.2823
  306ccc     H7 7320   6.884   6.780   4.229  0.2877  2.9570 -1.8328
  306ccc     H8 7321   6.947   6.912   4.307  0.2351 -0.6429  1.6237
  306ccc     O1 7322   6.747   7.187   4.275  0.4817 -0.9452  0.2330
  306ccc    H17 7323   6.911   6.776   4.387  0.1917  1.9768  1.7155
  307ccc     C1 7324   6.364   5.840   4.609 -0.1984 -0.4039 -0.3093
  307ccc     H1 7325   6.384   5.879   4.709 -0.5897 -0.4460 -0.2131
  307ccc     H2 7326   6.442   5.892   4.553 -1.4213  0.3633 -1.3658
  307ccc     C2 7327   6.229   5.897   4.553  0.4161  0.0756  0.0633
  307ccc     H3 7328   6.240   5.903   4.444  0.5208 -0.7524  0.0213
  307ccc     H4 7329   6.143   5.834   4.579  0.3893  0.9697  2.3357
  307ccc     C3 7330   6.209   6.042   4.616 -0.2286  0.2366  1.0984
  307ccc     H5 7331   6.117   6.090   4.583  0.5408  0.9802 -0.0257
  307ccc     H6 7332   6.288   6.100   4.566 -1.9070  0.4782 -1.4082
  307ccc     N1 7333   6.388   5.699   4.606  0.3398  0.3649  0.1061
  307ccc     H7 7334   6.315   5.641   4.649  1.3297 -1.4000 -0.4904
  307ccc     H8 7335   6.389   5.653   4.514 -2.0906 -0.2394  0.3229
  307ccc     O1 7336   6.218   6.039   4.759  0.0978 -0.5844 -0.5005
  307ccc    H17 7337   6.477   5.677   4.654  0.4128  1.7431  0.6513
  308ccc     C1 7338   7.050   6.437   5.378  0.0142  0.0988  0.1786
  308ccc     H1 7339   6.977   6.483   5.444 -0.3263 -1.8200  1.2045
  308ccc     H2 7340   7.052   6.497   5.287 -0.5445  0.0550  0.1341
  308ccc     C2 7341   7.005   6.292   5.351  0.7817  0.2575 -0.6296
  308ccc     H3 7342   7.053   6.250   5.262  1.0330  2.3786 -1.5511
  308ccc     H4 7343   7.041   6.228   5.433 -0.1053  0.3500 -0.1537
  308ccc     C3 7344   6.846   6.284   5.340  0.4824 -0.0458 -0.5436
  308ccc     H5 7345   6.811   6.368   5.279  0.2954  0.6974  0.5552
  308ccc     H6 7346   6.812   6.297   5.443  0.3177  0.7854 -0.6919
  308ccc     N1 7347   7.195   6.446   5.430  0.1664  0.2744  0.4756
  308ccc     H7 7348   7.259   6.400   5.363  1.4757  2.3932  0.1707
  308ccc     H8 7349   7.226   6.544   5.436 -0.2535  0.5063 -0.8444
  308ccc     O1 7350   6.806   6.157   5.299  0.9547  0.6197  0.4995
  308ccc    H17 7351   7.200   6.402   5.523  0.7246 -1.5608 -0.3640
  309ccc     C1 7352   5.321   5.237   6.269  0.0590 -0.1573  0.2867
  309ccc     H1 7353   5.405   5.232   6.200 -0.5888 -0.6463 -0.5008
  309ccc     H2 7354   5.251   5.157   6.243 -0.5585 -0.0496  1.5501
  309ccc     C2 7355   5.249   5.368   6.273 -0.1034 -0.1863 -0.5383
  309ccc     H3 7356   5.169   5.367   6.349  1.3310 -1.9358  1.0340
  309ccc     H4 7357   5.323   5.443   6.306  0.2465 -1.0153  0.6359
  309ccc     C3 7358   5.187   5.407   6.138  0.2672  0.2962 -0.3267
  309ccc     H5 7359   5.142   5.507   6.146  1.5700  0.7884  1.6287
  309ccc     H6 7360   5.113   5.330   6.114 -0.3080  0.1750  1.6726
  309ccc     N1 7361   5.363   5.197   6.402  0.6074  0.3251  0.9003
  309ccc     H7 7362   5.421   5.113   6.409 -1.3868 -1.0495  2.2876
  309ccc     H8 7363   5.418   5.273   6.445  2.7655 -0.1177 -0.8894
  309ccc     O1 7364   5.291   5.406   6.036 -0.3498  0.5262  0.2992
  309ccc    H17 7365   5.287   5.180   6.470 -1.7915  4.7631 -0.2472
  310ccc     C1 7366   5.951   5.107   5.698  0.7075  0.2554 -0.6763
  310ccc     H1 7367   6.060   5.110   5.697  0.6978  0.6429 -0.6261
  310ccc     H2 7368   5.923   5.203   5.656 -0.2314  0.3539  0.1411
  310ccc     C2 7369   5.911   5.105   5.851  0.2114 -0.4013  0.2297
  310ccc     H3 7370   5.802   5.107   5.862  0.0631 -0.0311 -1.1784
  310ccc     H4 7371   5.938   5.007   5.893  1.2383 -0.0142  0.5029
  310ccc     C3 7372   5.988   5.208   5.933  0.1329  0.3504 -0.7069
  310ccc     H5 7373   6.084   5.240   5.890 -0.6946  1.3706 -1.8484
  310ccc     H6 7374   5.993   5.176   6.038 -1.4813 -1.8406 -1.2362
  310ccc     N1 7375   5.923   4.985   5.620  1.2036  0.3742  0.8220
  310ccc     H7 7376   5.952   4.995   5.522 -0.9387 -1.3025 -0.0646
  310ccc     H8 7377   5.978   4.902   5.646 -1.5280 -2.0175 -0.4148
  310ccc     O1 7378   5.902   5.321   5.936 -0.0739  0.4864  1.0075
  310ccc    H17 7379   5.823   4.960   5.613  0.7882  1.7698  1.3188
  311ccc     C1 7380   4.421   8.712   4.061 -0.2435  0.4167  0.6162
  311ccc     H1 7381   4.336   8.708   4.128  0.6812 -0.0501  1.8007
  311ccc     H2 7382   4.491   8.631   4.084  0.0069  1.0501  2.1891
  311ccc     C2 7383   4.510   8.832   4.109 -0.0896  0.6427  0.1517
  311ccc     H3 7384   4.601   8.850   4.050  1.9955 -1.1909  2.5598
  311ccc     H4 7385   4.450   8.923   4.102 -0.6042  0.1924 -3.3997
  311ccc     C3 7386   4.553   8.809   4.251 -0.4907 -0.1768  0.5224
  311ccc     H5 7387   4.464   8.782   4.310 -1.6536  2.9076  0.3449
  311ccc     H6 7388   4.589   8.904   4.291 -1.3845  1.3024 -2.0218
  311ccc     N1 7389   4.390   8.701   3.910 -0.0766 -0.2355 -0.5276
  311ccc     H7 7390   4.337   8.785   3.882 -0.8258  1.2339  4.2689
  311ccc     H8 7391   4.477   8.701   3.855  0.4568  2.7712  0.1028
  311ccc     O1 7392   4.657   8.708   4.251  0.1151 -0.1240  0.0704
  311ccc    H17 7393   4.334   8.620   3.880 -0.3908 -0.4066  0.4868
  312ccc     C1 7394   5.627   8.711   4.284 -0.4592 -0.2956  0.0963
  312ccc     H1 7395   5.686   8.800   4.306 -0.9863  0.1634 -0.2797
  312ccc     H2 7396   5.639   8.685   4.179 -2.4070 -1.6436  0.1574
  312ccc     C2 7397   5.481   8.765   4.305 -0.1217  0.2693  0.0434
  312ccc     H3 7398   5.445   8.812   4.213 -2.5336 -2.5046 -0.5940
  312ccc     H4 7399   5.414   8.678   4.310  1.0362 -0.6132  0.7506
  312ccc     C3 7400   5.457   8.840   4.438 -0.0411  0.4428  0.0892
  312ccc     H5 7401   5.480   8.946   4.424  0.0904  0.3636 -0.2965
  312ccc     H6 7402   5.524   8.818   4.522  1.0631  1.7915 -0.3897
  312ccc     N1 7403   5.681   8.609   4.378  0.6239  0.4053 -0.8647
  312ccc     H7 7404   5.761   8.569   4.328  0.9001  1.1804 -1.0496
  312ccc     H8 7405   5.708   8.661   4.463 -0.1565  1.0587 -1.0117
  312ccc     O1 7406   5.321   8.816   4.479 -0.1947 -0.4879  0.0666
  312ccc    H17 7407   5.621   8.532   4.410  0.4440  2.0195  3.4529
  313ccc     C1 7408   4.176   7.329   5.545 -0.3295 -0.2296 -1.2125
  313ccc     H1 7409   4.194   7.402   5.466 -0.8146  0.3332 -0.8074
  313ccc     H2 7410   4.254   7.340   5.620 -1.7374  1.5584  0.0657
  313ccc     C2 7411   4.161   7.192   5.482  0.0510 -0.5108 -0.3942
  313ccc     H3 7412   4.110   7.123   5.550  1.3261 -1.6652 -0.5620
  313ccc     H4 7413   4.107   7.198   5.388  0.3653  0.2419 -0.5351
  313ccc     C3 7414   4.299   7.134   5.448  0.1450  0.2977 -0.0732
  313ccc     H5 7415   4.287   7.027   5.427 -1.9867  0.2319  1.2431
  313ccc     H6 7416   4.356   7.138   5.541 -2.0019  0.4137  1.3109
  313ccc     N1 7417   4.050   7.372   5.620 -0.0041 -0.2934 -0.1250
  313ccc     H7 7418   4.076   7.433   5.699  3.9229 -0.4429 -1.0881
  313ccc     H8 7419   3.983   7.418   5.556  0.7427  0.5046 -0.3576
  313ccc     O1 7420   4.362   7.209   5.340 -0.2881 -0.1743  0.2312
  313ccc    H17 7421   3.997   7.293   5.659  1.2587 -2.0477 -1.7858
  314ccc     C1 7422   5.252   7.613   4.915 -0.1945  0.0719  0.2475
  314ccc     H1 7423   5.154   7.643   4.949  0.8417  0.3633  3.2297
  314ccc     H2 7424   5.255   7.576   4.812 -0.3819 -0.2140  0.3427
  314ccc     C2 7425   5.292   7.489   4.998  0.6565 -0.4083  0.3003
  314ccc     H3 7426   5.393   7.463   4.964  0.6919  0.1549 -0.0476
  314ccc     H4 7427   5.289   7.517   5.104 -0.6721 -0.0837  0.2022
  314ccc     C3 7428   5.187   7.385   4.971 -0.2683  0.0659  0.5022
  314ccc     H5 7429   5.229   7.286   4.997 -0.1143  0.8753  3.8194
  314ccc     H6 7430   5.186   7.384   4.862  0.1998  0.8128  0.4826
  314ccc     N1 7431   5.340   7.729   4.942  0.7363 -0.4934  0.4040
  314ccc     H7 7432   5.435   7.704   4.910  0.6278 -2.1366  1.2770
  314ccc     H8 7433   5.305   7.799   4.875  1.2748 -1.4197 -0.8866
  314ccc     O1 7434   5.058   7.418   5.019  0.8270 -0.7931  0.0510
  314ccc    H17 7435   5.340   7.769   5.037  0.1622 -0.0742  0.2322
  315ccc     C1 7436   6.650   8.424   6.288 -0.4669  0.0352 -0.4326
  315ccc     H1 7437   6.562   8.366   6.316  0.6327 -2.0148 -0.9834
  315ccc     H2 7438   6.636   8.531   6.305  0.5041  0.0315  0.5879
  315ccc     C2 7439   6.665   8.398   6.142 -0.1375 -0.3089 -0.6781
  315ccc     H3 7440   6.751   8.462   6.121 -0.1550 -0.3844 -0.9835
  315ccc     H4 7441   6.701   8.295   6.130  0.3037 -0.3534  0.8065
  315ccc     C3 7442   6.538   8.428   6.068 -0.6384 -0.4552 -0.2566
  315ccc     H5 7443   6.453   8.363   6.094  0.3461 -1.9218 -0.5580
  315ccc     H6 7444   6.568   8.414   5.963  3.4378  1.9209  0.3736
  315ccc     N1 7445   6.752   8.378   6.391  0.1765  0.1425  0.5184
  315ccc     H7 7446   6.723   8.408   6.485 -0.6919  1.9602 -0.2795
  315ccc     H8 7447   6.768   8.276   6.385 -2.3330 -0.2418 -1.6035
  315ccc     O1 7448   6.508   8.570   6.088 -0.3134  0.1662 -0.1332
  315ccc    H17 7449   6.848   8.408   6.371  0.0158  2.0155  2.2414
  316ccc     C1 7450   5.920   8.616   6.653 -0.8374  0.2449  0.1001
  316ccc     H1 7451   5.971   8.615   6.748 -0.5680  0.7816 -0.0328
  316ccc     H2 7452   5.993   8.575   6.583  0.6132  0.1811  1.5945
  316ccc     C2 7453   5.873   8.760   6.610  0.2824  0.6584 -0.1865
  316ccc     H3 7454   5.835   8.754   6.507  0.1620 -2.0659 -0.0605
  316ccc     H4 7455   5.784   8.794   6.665  0.2091  0.9506 -0.4779
  316ccc     C3 7456   5.986   8.862   6.634 -0.0364 -0.2665 -0.6268
  316ccc     H5 7457   5.997   8.885   6.740  0.7084 -2.1004 -0.2887
  316ccc     H6 7458   5.957   8.961   6.596  1.1587 -0.4426 -2.1227
  316ccc     N1 7459   5.808   8.512   6.665 -0.0381 -0.3763 -0.3299
  316ccc     H7 7460   5.738   8.546   6.732 -1.1608 -0.2615 -1.5179
  316ccc     H8 7461   5.772   8.494   6.570  0.3882 -1.3763 -0.3172
  316ccc     O1 7462   6.120   8.828   6.585 -0.4398  0.7596  0.2627
  316ccc    H17 7463   5.851   8.428   6.707  1.9931 -1.0162 -3.3638
  317ccc     C1 7464   5.393   9.775   5.349 -0.8708 -0.6944  0.1908
  317ccc     H1 7465   5.371   9.816   5.250  0.7060  0.6725  0.3631
  317ccc     H2 7466   5.319   9.820   5.416 -0.2661  0.4428  0.1205
  317ccc     C2 7467   5.542   9.810   5.378 -0.0566 -0.6725  0.0494
  317ccc     H3 7468   5.610   9.764   5.305 -1.6145 -2.0387 -0.5863
  317ccc     H4 7469   5.552   9.919   5.385  1.9186 -0.8496  0.6229
  317ccc     C3 7470   5.593   9.752   5.512 -0.2658  0.2023  0.3109
  317ccc     H5 7471   5.703   9.755   5.510 -0.2216 -1.0232 -0.1410
  317ccc     H6 7472   5.562   9.649   5.535  3.4021 -1.2190 -0.3648
  317ccc     N1 7473   5.362   9.632   5.334  0.4997  0.8418 -0.0092
  317ccc     H7 7474   5.370   9.578   5.422 -2.5743 -0.1428 -0.1982
  317ccc     H8 7475   5.272   9.609   5.290  0.6212 -1.4874  0.7955
  317ccc     O1 7476   5.568   9.836   5.623  0.6937 -0.1627  0.0970
  317ccc    H17 7477   5.440   9.590   5.281  2.5832  3.0222  1.1330
  318ccc     C1 7478   5.094  10.136   6.514  0.5591  0.0871  0.1509
  318ccc     H1 7479   5.066  10.240   6.494  1.1059  0.1884 -0.1099
  318ccc     H2 7480   5.197  10.111   6.489 -0.0647 -0.2510 -2.3036
  318ccc     C2 7481   5.013  10.039   6.422  1.0246  0.3526 -0.1268
  318ccc     H3 7482   4.999   9.942   6.471  0.6396  0.3304 -0.2712
  318ccc     H4 7483   4.918  10.092   6.408 -0.4159 -2.0616 -0.1966
  318ccc     C3 7484   5.097  10.011   6.294  0.0258  0.4625 -0.4348
  318ccc     H5 7485   5.198   9.975   6.318 -0.0876 -0.5987 -1.4628
  318ccc     H6 7486   5.098  10.102   6.234  2.4329  0.8056  0.0360
  318ccc     N1 7487   5.073  10.124   6.663 -0.4070 -0.1882  0.4699
  318ccc     H7 7488   5.149  10.182   6.702 -0.5285 -1.3259  2.5760
  318ccc     H8 7489   4.987  10.167   6.700 -0.1906  0.2619  0.4547
  318ccc     O1 7490   5.037   9.909   6.220  0.1270 -0.1833 -0.1202
  318ccc    H17 7491   5.074  10.028   6.700 -0.9707 -0.4638 -0.2172
  319ccc     C1 7492   5.415   2.935   6.471 -0.3585  0.1556 -0.1075
  319ccc     H1 7493   5.508   2.979   6.434  0.3707  1.1898  2.7311
  319ccc     H2 7494   5.380   2.993   6.556 -0.8708  1.7789 -1.3850
  319ccc     C2 7495   5.441   2.787   6.500 -0.7194 -0.1818  0.0257
  319ccc     H3 7496   5.361   2.733   6.552 -0.9567 -1.5935 -1.7346
  319ccc     H4 7497   5.455   2.728   6.409  2.2548 -1.9007  1.4285
  319ccc     C3 7498   5.575   2.766   6.575  0.9114 -0.2854 -0.0116
  319ccc     H5 7499   5.663   2.794   6.515  1.6104 -0.7023  0.8052
  319ccc     H6 7500   5.584   2.658   6.593 -3.5221 -0.7012  1.0719
  319ccc     N1 7501   5.311   2.958   6.369  0.7131  0.0191  0.4936
  319ccc     H7 7502   5.221   2.917   6.395  0.1620 -0.4474 -1.9097
  319ccc     H8 7503   5.306   3.060   6.354  0.6805 -0.2580 -1.6733
  319ccc     O1 7504   5.574   2.838   6.702 -0.0787 -0.0865  0.2732
  319ccc    H17 7505   5.343   2.922   6.278  1.1596  0.0583  0.6299
  320ccc     C1 7506   5.778   3.712   7.257  0.0921  0.0744 -0.5743
  320ccc     H1 7507   5.849   3.793   7.240  2.5335 -1.9146 -0.4119
  320ccc     H2 7508   5.829   3.616   7.258  0.6514  0.3300 -2.4178
  320ccc     C2 7509   5.669   3.708   7.143 -0.4769  0.7759  0.3730
  320ccc     H3 7510   5.582   3.653   7.181 -0.5585  0.9963  0.5063
  320ccc     H4 7511   5.637   3.812   7.128 -1.5845  0.7664  2.3312
  320ccc     C3 7512   5.730   3.647   7.012 -0.4671  0.2580 -0.2490
  320ccc     H5 7513   5.825   3.694   6.982 -0.4690  1.1252  1.0677
  320ccc     H6 7514   5.663   3.670   6.928  0.0866 -1.9389 -1.3867
  320ccc     N1 7515   5.732   3.725   7.400 -0.3942 -1.0777 -0.7202
  320ccc     H7 7516   5.688   3.815   7.424  3.2297  0.6360  0.1903
  320ccc     H8 7517   5.676   3.643   7.428  1.4569 -2.0934  0.1752
  320ccc     O1 7518   5.747   3.505   7.032  0.3834  0.2496 -0.0863
  320ccc    H17 7519   5.812   3.729   7.465 -1.6453  0.1615  0.8144
  321ccc     C1 7520   6.753   3.440   7.678  1.1960 -0.1458  0.6252
  321ccc     H1 7521   6.749   3.382   7.770 -0.0434 -4.8502 -2.0263
  321ccc     H2 7522   6.681   3.522   7.679 -0.3161 -1.4076  0.1738
  321ccc     C2 7523   6.713   3.349   7.555 -0.1202  0.3552  0.6988
  321ccc     H3 7524   6.606   3.357   7.537  0.2454  1.3407 -1.3811
  321ccc     H4 7525   6.758   3.379   7.459  0.1966  1.4468  1.1712
  321ccc     C3 7526   6.758   3.205   7.583  0.1435  0.1467  0.2797
  321ccc     H5 7527   6.712   3.175   7.678 -0.1281  1.1735  0.4892
  321ccc     H6 7528   6.867   3.197   7.583  0.0201 -2.1039  0.3261
  321ccc     N1 7529   6.887   3.502   7.664  0.3351 -0.5882 -0.3519
  321ccc     H7 7530   6.911   3.539   7.757 -0.9716  1.5190 -0.7819
  321ccc     H8 7531   6.967   3.439   7.647  0.7580 -0.5862  1.5103
  321ccc     O1 7532   6.695   3.134   7.478  0.1305 -0.2581  0.3903
  321ccc    H17 7533   6.889   3.571   7.586 -0.4075 -1.0003 -0.7519
  322ccc     C1 7534   6.534   2.923   6.361 -0.0391  0.1676 -0.1140
  322ccc     H1 7535   6.642   2.941   6.360 -0.0631  0.3001 -0.6277
  322ccc     H2 7536   6.485   3.014   6.324 -0.5290  0.6255  1.5913
  322ccc     C2 7537   6.486   2.902   6.500 -0.0453  0.6379 -0.2191
  322ccc     H3 7538   6.384   2.864   6.509 -0.5949  1.8482 -1.0549
  322ccc     H4 7539   6.551   2.822   6.537 -0.6729  1.2780  2.4602
  322ccc     C3 7540   6.510   3.026   6.596 -0.0548 -0.0047 -0.2450
  322ccc     H5 7541   6.455   3.116   6.564  2.1008  1.0277 -1.3124
  322ccc     H6 7542   6.615   3.057   6.583  0.3465 -0.3480  1.8102
  322ccc     N1 7543   6.495   2.804   6.270  0.2890  0.4553 -0.2037
  322ccc     H7 7544   6.402   2.765   6.291  0.2985  1.2278  1.3505
  322ccc     H8 7545   6.515   2.825   6.171  0.1999  1.9473  0.0773
  322ccc     O1 7546   6.494   2.997   6.738 -0.2534 -0.4602 -0.4467
  322ccc    H17 7547   6.565   2.738   6.308 -1.2574  0.2041  2.4279
  323ccc     C1 7548   6.206   1.890   7.290  0.1440 -0.1913 -0.6728
  323ccc     H1 7549   6.205   1.998   7.307  0.7746 -0.3017  0.0679
  323ccc     H2 7550   6.104   1.857   7.268 -0.4722  0.2873  1.2641
  323ccc     C2 7551   6.261   1.816   7.413  0.4930  0.6668  0.0078
  323ccc     H3 7552   6.257   1.707   7.406 -1.1670  0.7290 -0.4285
  323ccc     H4 7553   6.366   1.846   7.427  0.6296 -0.0181  0.4791
  323ccc     C3 7554   6.163   1.851   7.533  0.0748  0.6037  0.1289
  323ccc     H5 7555   6.066   1.802   7.518  0.6196 -0.1206 -1.2100
  323ccc     H6 7556   6.161   1.960   7.547  0.2913  0.5868  0.3044
  323ccc     N1 7557   6.287   1.866   7.169  0.1934 -0.0451  0.2384
  323ccc     H7 7558   6.256   1.783   7.117  2.2753 -0.6532 -0.1537
  323ccc     H8 7559   6.279   1.944   7.103  2.3303 -0.9252 -1.1955
  323ccc     O1 7560   6.220   1.806   7.654  0.0675  0.1727  0.6059
  323ccc    H17 7561   6.387   1.852   7.190 -0.2394 -0.4129  2.2578
  324ccc     C1 7562   6.665   2.169   7.754 -0.3302  0.5952  0.3376
  324ccc     H1 7563   6.649   2.192   7.648  1.0576 -0.5000 -0.1425
  324ccc     H2 7564   6.569   2.125   7.783  0.6350 -0.4910  2.0583
  324ccc     C2 7565   6.692   2.298   7.829 -1.3048  0.1533  0.2344
  324ccc     H3 7566   6.697   2.277   7.936 -1.8469  0.4853  0.3329
  324ccc     H4 7567   6.788   2.342   7.800  0.0269 -2.3635  0.5616
  324ccc     C3 7568   6.579   2.397   7.827  0.0268  0.0518 -0.6864
  324ccc     H5 7569   6.574   2.456   7.734 -1.1096 -0.4527 -0.9633
  324ccc     H6 7570   6.580   2.464   7.913 -2.6179 -0.1365 -0.4130
  324ccc     N1 7571   6.775   2.062   7.759 -0.1789  0.6252  0.2903
  324ccc     H7 7572   6.757   1.982   7.696  0.9579  1.1435 -0.7354
  324ccc     H8 7573   6.864   2.107   7.732  1.0788 -2.3548 -1.0928
  324ccc     O1 7574   6.455   2.327   7.835 -0.5760  0.1010  0.7200
  324ccc    H17 7575   6.783   2.017   7.851  2.5594 -0.2709 -0.2744
  325ccc     C1 7576   6.559   1.693   9.428  0.3931  0.2926 -0.2362
  325ccc     H1 7577   6.625   1.704   9.514  0.5214  2.2403 -0.5222
  325ccc     H2 7578   6.604   1.724   9.333  1.0117  2.4432  0.6886
  325ccc     C2 7579   6.435   1.789   9.446 -0.6901 -0.4719  0.0071
  325ccc     H3 7580   6.383   1.785   9.350 -1.5304 -1.9086  0.4814
  325ccc     H4 7581   6.360   1.746   9.514 -1.1937 -0.6679 -0.6596
  325ccc     C3 7582   6.489   1.930   9.487  0.1799  0.2278  0.6019
  325ccc     H5 7583   6.553   1.964   9.406 -0.8108 -2.6749 -1.6136
  325ccc     H6 7584   6.530   1.927   9.588 -0.3998  2.5067  0.9552
  325ccc     N1 7585   6.528   1.541   9.405  0.4182  0.0627 -0.1224
  325ccc     H7 7586   6.454   1.525   9.334  0.6279  0.5194 -0.4443
  325ccc     H8 7587   6.611   1.489   9.373 -0.8087 -0.7091 -2.3008
  325ccc     O1 7588   6.380   2.014   9.500  0.0693 -0.4903 -0.1237
  325ccc    H17 7589   6.492   1.507   9.495 -2.1707  0.5897 -0.8459
  326ccc     C1 7590   5.567   2.046   8.859 -0.0094  0.1251 -0.2085
  326ccc     H1 7591   5.613   2.133   8.907 -0.2101 -1.0507  2.2695
  326ccc     H2 7592   5.469   2.029   8.905  0.1365  0.1253  0.1030
  326ccc     C2 7593   5.659   1.922   8.871 -0.5620  0.1473  0.3551
  326ccc     H3 7594   5.623   1.836   8.814  0.8319 -0.3542  0.1881
  326ccc     H4 7595   5.751   1.941   8.814  0.8742 -1.6121  1.9582
  326ccc     C3 7596   5.682   1.885   9.020  0.3568  0.3770 -0.8860
  326ccc     H5 7597   5.744   1.794   9.021 -1.7336 -1.1424  1.1815
  326ccc     H6 7598   5.588   1.861   9.071  1.8560  0.1537  1.9531
  326ccc     N1 7599   5.552   2.072   8.717  0.0210 -0.2620 -1.0918
  326ccc     H7 7600   5.485   2.010   8.669 -1.2675 -0.1026  0.3897
  326ccc     H8 7601   5.512   2.166   8.702 -0.4143 -0.1889  0.3680
  326ccc     O1 7602   5.739   2.003   9.083  0.2607 -0.2054 -0.2747
  326ccc    H17 7603   5.645   2.073   8.672  1.6265  1.4269  1.9120
  327ccc     C1 7604   4.301   2.937   9.327 -0.3193 -0.0465  0.1249
  327ccc     H1 7605   4.304   2.838   9.373 -2.5821 -0.2488 -0.0375
  327ccc     H2 7606   4.206   2.984   9.352  0.6215  1.9169  0.1260
  327ccc     C2 7607   4.316   2.943   9.177 -0.0151  0.1441 -0.1619
  327ccc     H3 7608   4.281   3.044   9.150 -2.4177 -1.1128 -2.2889
  327ccc     H4 7609   4.423   2.937   9.155 -0.0537 -0.0464 -0.3044
  327ccc     C3 7610   4.223   2.845   9.097 -0.3344  0.7410  0.2521
  327ccc     H5 7611   4.214   2.869   8.990 -0.0368  0.4323  0.1561
  327ccc     H6 7612   4.120   2.849   9.133 -0.3866 -1.1588  0.4224
  327ccc     N1 7613   4.389   3.033   9.408  0.2282  0.1255  0.4968
  327ccc     H7 7614   4.486   3.009   9.383  0.4649 -0.7125  2.1099
  327ccc     H8 7615   4.380   3.131   9.378 -0.2636 -0.0400  0.0933
  327ccc     O1 7616   4.269   2.711   9.116 -0.4043 -0.1407  0.1804
  327ccc    H17 7617   4.376   3.029   9.510 -1.3948  1.4697  0.3840
  328ccc     C1 7618   4.802   2.149   9.556  0.1363 -0.5215 -0.0912
  328ccc     H1 7619   4.727   2.187   9.625 -1.6445 -1.0599 -1.6588
  328ccc     H2 7620   4.790   2.217   9.472 -0.7163  1.2260  1.3777
  328ccc     C2 7621   4.775   2.004   9.519 -0.3509 -0.2990 -0.4214
  328ccc     H3 7622   4.813   1.978   9.419  2.8564  0.5115  0.4922
  328ccc     H4 7623   4.825   1.937   9.590 -0.2084  0.1876 -0.0603
  328ccc     C3 7624   4.623   1.982   9.530 -0.2054 -0.4006 -0.5800
  328ccc     H5 7625   4.589   2.020   9.627  0.6713 -1.2497  0.0715
  328ccc     H6 7626   4.596   1.877   9.520  0.1244 -0.3986 -1.6063
  328ccc     N1 7627   4.935   2.191   9.605  0.4664  0.6643 -0.3613
  328ccc     H7 7628   4.945   2.293   9.608  0.7906  0.6294  2.1439
  328ccc     H8 7629   4.944   2.171   9.706  0.6269  0.9390 -0.3205
  328ccc     O1 7630   4.568   2.056   9.421  0.0498  0.2759 -0.1094
  328ccc    H17 7631   5.017   2.148   9.559  0.1518 -0.8341  0.4181
  329ccc     C1 7632   3.812   0.727   8.845 -0.4314 -0.2346 -0.2244
  329ccc     H1 7633   3.752   0.779   8.920  2.2382  1.2894  1.0117
  329ccc     H2 7634   3.907   0.780   8.837 -0.6772  0.0901 -1.1245
  329ccc     C2 7635   3.748   0.732   8.707  0.2491 -0.1382  0.2203
  329ccc     H3 7636   3.813   0.673   8.641 -0.5763 -0.1512 -0.6082
  329ccc     H4 7637   3.655   0.675   8.720  1.2317 -1.6515  0.9155
  329ccc     C3 7638   3.719   0.870   8.644 -0.4225 -0.3437  0.7015
  329ccc     H5 7639   3.630   0.906   8.697  0.7791  0.0479  2.5880
  329ccc     H6 7640   3.716   0.864   8.535  1.1634  0.1252  0.6060
  329ccc     N1 7641   3.844   0.588   8.882 -0.2750 -0.3639  0.5357
  329ccc     H7 7642   3.884   0.537   8.802 -0.1500  1.9963 -0.9676
  329ccc     H8 7643   3.897   0.575   8.970 -0.0693 -0.6621  0.3709
  329ccc     O1 7644   3.826   0.957   8.676 -0.1694  0.1337 -0.0100
  329ccc    H17 7645   3.754   0.543   8.906 -0.6584  0.3258  0.4023
  330ccc     C1 7646   4.468   1.056   9.055 -0.0302  0.0642  0.6035
  330ccc     H1 7647   4.449   1.105   8.959  0.8687  1.5875  1.1726
  330ccc     H2 7648   4.377   1.001   9.081 -1.8134  1.7654 -1.6238
  330ccc     C2 7649   4.506   1.159   9.157 -0.1116 -0.5698 -0.7270
  330ccc     H3 7650   4.531   1.109   9.252 -1.1555 -1.2117 -0.7806
  330ccc     H4 7651   4.604   1.196   9.122  1.1246 -2.1836  0.8114
  330ccc     C3 7652   4.400   1.270   9.183 -0.1268 -0.7433 -0.5245
  330ccc     H5 7653   4.450   1.342   9.249 -1.1057 -1.5155  1.1228
  330ccc     H6 7654   4.313   1.222   9.230  0.5663 -0.4638  1.1281
  330ccc     N1 7655   4.580   0.965   9.026  0.3829 -0.1364  0.2792
  330ccc     H7 7656   4.548   0.897   8.956  1.5306  0.2703 -0.6776
  330ccc     H8 7657   4.651   1.018   8.974 -1.2235  1.5800 -0.2634
  330ccc     O1 7658   4.363   1.328   9.059 -0.0272 -0.2619 -1.3014
  330ccc    H17 7659   4.610   0.915   9.111  0.1821 -1.0234 -0.1606
  331ccc     C1 7660   3.370   2.074   6.316  0.1682 -0.3375  0.1285
  331ccc     H1 7661   3.278   2.080   6.258  1.0204  2.5646 -1.1152
  331ccc     H2 7662   3.355   2.004   6.398  0.7315 -1.1704 -0.4694
  331ccc     C2 7663   3.396   2.224   6.363 -0.5148  0.6607  0.8011
  331ccc     H3 7664   3.497   2.224   6.408 -1.4949  1.2833  3.1536
  331ccc     H4 7665   3.401   2.294   6.279  0.6619  0.1363  0.4109
  331ccc     C3 7666   3.296   2.273   6.465  0.5492 -0.0926 -0.6740
  331ccc     H5 7667   3.284   2.196   6.542 -2.0417  0.4288 -0.4490
  331ccc     H6 7668   3.197   2.285   6.419 -0.5779  0.2402  1.6452
  331ccc     N1 7669   3.482   2.015   6.229  0.4829 -0.4696 -0.1927
  331ccc     H7 7670   3.465   1.922   6.187  2.6025 -0.8770 -0.2766
  331ccc     H8 7671   3.508   2.075   6.149 -1.5725 -0.0401 -0.5932
  331ccc     O1 7672   3.349   2.398   6.518  0.2428  0.3685  0.3546
  331ccc    H17 7673   3.567   1.992   6.283  0.3504 -2.9218 -0.8683
  332ccc     C1 7674   2.987   1.786   7.510 -0.3464 -0.3385 -1.1329
  332ccc     H1 7675   3.004   1.845   7.600 -0.8046  0.5199 -1.6006
  332ccc     H2 7676   2.983   1.679   7.534 -0.5422 -0.1014 -0.0215
  332ccc     C2 7677   3.094   1.809   7.410  0.2562  0.2471 -0.0288
  332ccc     H3 7678   3.185   1.757   7.441 -0.5443 -0.1043  1.8526
  332ccc     H4 7679   3.052   1.762   7.320  0.4589  0.3990 -0.2028
  332ccc     C3 7680   3.125   1.963   7.385 -0.0095  0.3864 -0.4192
  332ccc     H5 7681   3.148   2.021   7.476 -3.3533  1.1282  0.1044
  332ccc     H6 7682   3.039   2.015   7.342  1.3931  1.5835 -1.9145
  332ccc     N1 7683   2.850   1.823   7.472  0.0110  0.3541  0.1723
  332ccc     H7 7684   2.837   1.923   7.492  0.4063  0.2179  1.2287
  332ccc     H8 7685   2.830   1.810   7.372  1.3185  3.2069 -0.5615
  332ccc     O1 7686   3.240   1.978   7.296  0.0280 -0.3343  0.3767
  332ccc    H17 7687   2.789   1.765   7.532 -0.6861  0.1565 -0.7044
  333ccc     C1 7688   3.399   1.330   7.269  0.3223  0.2902 -0.2629
  333ccc     H1 7689   3.341   1.422   7.270  0.4249  0.3801  2.0618
  333ccc     H2 7690   3.479   1.347   7.341 -1.9062 -1.8550  2.9634
  333ccc     C2 7691   3.463   1.306   7.131 -0.6036 -0.4011  0.3590
  333ccc     H3 7692   3.501   1.203   7.127 -0.4270 -0.3025 -0.9460
  333ccc     H4 7693   3.378   1.305   7.061  0.2644  1.7463 -0.7994
  333ccc     C3 7694   3.567   1.412   7.101 -0.3330  0.2764  0.4448
  333ccc     H5 7695   3.523   1.512   7.096 -0.4168  0.3656  2.2440
  333ccc     H6 7696   3.626   1.382   7.013 -2.3438  0.4353 -1.0072
  333ccc     N1 7697   3.319   1.213   7.315  0.1313  0.6616  0.0419
  333ccc     H7 7698   3.305   1.228   7.416  0.5492  0.6456  0.1035
  333ccc     H8 7699   3.225   1.205   7.273  0.5459 -1.7494 -0.5325
  333ccc     O1 7700   3.647   1.419   7.218 -0.7486  0.2644  0.3520
  333ccc    H17 7701   3.368   1.122   7.316  0.6861  0.9389  1.6322
  334ccc     C1 7702   3.928   0.763   7.883 -0.0952  0.5059  0.6338
  334ccc     H1 7703   3.877   0.858   7.897 -1.6947 -0.0538 -1.0635
  334ccc     H2 7704   3.977   0.751   7.980 -0.2200  0.5752  0.7067
  334ccc     C2 7705   4.038   0.771   7.777  0.2023  0.0468 -0.5151
  334ccc     H3 7706   4.092   0.676   7.774  0.0529 -0.0319 -0.6548
  334ccc     H4 7707   3.992   0.787   7.679  1.6682  1.3279 -1.0327
  334ccc     C3 7708   4.138   0.898   7.800  0.6580  0.5399 -0.5807
  334ccc     H5 7709   4.223   0.882   7.732  0.1143  0.1848 -1.1886
  334ccc     H6 7710   4.167   0.906   7.905  1.0372  3.1816 -0.8176
  334ccc     N1 7711   3.814   0.659   7.865  0.1906 -0.0546 -0.0869
  334ccc     H7 7712   3.785   0.667   7.767  0.2722  0.7306 -0.0554
  334ccc     H8 7713   3.849   0.562   7.876 -1.8768 -1.0425 -1.5112
  334ccc     O1 7714   4.070   1.018   7.764 -0.0301  0.0040  0.5925
  334ccc    H17 7715   3.738   0.667   7.934  1.3534 -0.6007  1.3264
  335ccc     C1 7716   4.349   3.356   7.247 -0.2966 -0.1543  0.0769
  335ccc     H1 7717   4.307   3.292   7.169 -0.6302  0.6331 -0.4098
  335ccc     H2 7718   4.407   3.297   7.317  2.0773  0.5496 -1.1877
  335ccc     C2 7719   4.247   3.434   7.326 -0.0861  0.1635  0.2197
  335ccc     H3 7720   4.179   3.466   7.246 -0.6260 -2.5947 -0.5137
  335ccc     H4 7721   4.188   3.360   7.383  2.1950  0.0851  2.6735
  335ccc     C3 7722   4.304   3.553   7.405  0.5678 -0.8622 -0.1440
  335ccc     H5 7723   4.326   3.631   7.331 -1.7450  0.0189  0.0011
  335ccc     H6 7724   4.383   3.518   7.472 -1.6275 -2.1927  1.9091
  335ccc     N1 7725   4.454   3.441   7.170  0.4497  0.1429 -0.1531
  335ccc     H7 7726   4.519   3.383   7.117 -0.6271  0.0309 -1.3934
  335ccc     H8 7727   4.411   3.503   7.100  1.9025  0.6146 -0.6677
  335ccc     O1 7728   4.197   3.603   7.480 -0.2867 -0.0592  0.5373
  335ccc    H17 7729   4.501   3.501   7.240  2.5350 -3.1738  1.5599
  336ccc     C1 7730   3.837   4.470   7.617 -0.1259  0.1568 -0.5480
  336ccc     H1 7731   3.728   4.478   7.625 -0.0164  0.7445  0.6413
  336ccc     H2 7732   3.851   4.373   7.570  2.9458  0.0695  0.3111
  336ccc     C2 7733   3.897   4.457   7.763  0.2592 -0.4316  0.4981
  336ccc     H3 7734   4.005   4.439   7.757  0.4031  0.7223 -3.2712
  336ccc     H4 7735   3.883   4.555   7.810 -1.6258  0.2443 -1.3308
  336ccc     C3 7736   3.833   4.344   7.841 -0.0669  0.2113  0.3402
  336ccc     H5 7737   3.727   4.362   7.861  0.1852 -0.6753  2.7433
  336ccc     H6 7738   3.874   4.321   7.940 -0.8268 -1.3609  0.3153
  336ccc     N1 7739   3.889   4.576   7.525 -0.2726 -0.2214 -0.1253
  336ccc     H7 7740   3.878   4.663   7.579 -0.0431 -0.7481  0.7905
  336ccc     H8 7741   3.988   4.569   7.499 -0.5472  0.7654 -1.5294
  336ccc     O1 7742   3.841   4.225   7.755  0.1738 -0.9014 -0.1210
  336ccc    H17 7743   3.847   4.572   7.431  3.0815 -0.1145 -1.7670
  337ccc     C1 7744   2.752   3.655   6.805  0.1551 -0.0750  0.3666
  337ccc     H1 7745   2.716   3.742   6.750  0.0442 -0.0735  0.4440
  337ccc     H2 7746   2.768   3.574   6.734  1.8904  0.1288  0.4765
  337ccc     C2 7747   2.662   3.612   6.919 -0.3000 -0.3028  0.3886
  337ccc     H3 7748   2.659   3.708   6.974  5.2804  1.1687 -1.1468
  337ccc     H4 7749   2.565   3.589   6.875 -0.0348 -1.1686  0.2354
  337ccc     C3 7750   2.697   3.485   6.999 -0.5206  0.1735 -0.5770
  337ccc     H5 7751   2.677   3.388   6.950  3.2474 -2.5081  2.5867
  337ccc     H6 7752   2.639   3.485   7.092  0.6055 -0.1644  0.1390
  337ccc     N1 7753   2.898   3.699   6.839  0.4524 -0.0081  0.1417
  337ccc     H7 7754   2.932   3.742   6.752  1.2854  0.3527  0.6330
  337ccc     H8 7755   2.895   3.776   6.908 -0.3981 -0.0972  0.2179
  337ccc     O1 7756   2.843   3.489   7.042  0.0965 -0.0090  0.7587
  337ccc    H17 7757   2.961   3.620   6.856  1.5817  0.5998 -1.1137
  338ccc     C1 7758   2.810   2.722   7.179  0.5056  0.5233  0.2499
  338ccc     H1 7759   2.775   2.788   7.259 -1.4255 -2.8427  2.4580
  338ccc     H2 7760   2.837   2.623   7.216  2.0710  1.3661  1.5300
  338ccc     C2 7761   2.933   2.779   7.101  0.6986  0.4815 -0.4578
  338ccc     H3 7762   2.959   2.697   7.032 -2.4398  0.4810 -1.8309
  338ccc     H4 7763   2.901   2.869   7.047 -1.2131 -0.9851 -1.8887
  338ccc     C3 7764   3.055   2.813   7.189 -0.1892 -0.4539 -0.1403
  338ccc     H5 7765   3.136   2.826   7.117  0.5208 -0.5556  0.6173
  338ccc     H6 7766   3.074   2.737   7.267  1.0636 -0.3183 -0.2868
  338ccc     N1 7767   2.694   2.692   7.086 -0.4011 -0.1681  0.3567
  338ccc     H7 7768   2.728   2.610   7.032  1.4401 -0.7776  2.3219
  338ccc     H8 7769   2.609   2.663   7.135 -1.0682 -0.1525 -0.7461
  338ccc     O1 7770   3.044   2.945   7.250  0.5010  0.0143  0.4923
  338ccc    H17 7771   2.669   2.773   7.028  1.9862 -0.0994 -0.7058
  339ccc     C1 7772   2.842   1.976   8.866 -0.3807 -1.2051 -0.1349
  339ccc     H1 7773   2.797   2.034   8.946 -0.3749 -1.0744 -0.2268
  339ccc     H2 7774   2.853   1.876   8.909  0.1910 -1.5658 -1.0848
  339ccc     C2 7775   2.986   2.033   8.840  0.5653 -0.3311 -0.4967
  339ccc     H3 7776   3.046   2.043   8.932 -1.3567 -0.4468  0.8369
  339ccc     H4 7777   3.035   1.964   8.771  0.6013 -0.3092 -0.4931
  339ccc     C3 7778   2.971   2.177   8.794 -0.5900 -0.1180 -0.2619
  339ccc     H5 7779   2.939   2.184   8.690  1.9101  1.4783 -1.0372
  339ccc     H6 7780   3.076   2.211   8.797 -0.5457 -0.0953 -1.4767
  339ccc     N1 7781   2.753   1.978   8.743 -0.2587  0.6066  0.2868
  339ccc     H7 7782   2.788   1.921   8.664  2.6191  0.3741  1.6009
  339ccc     H8 7783   2.659   1.942   8.766  0.0965  0.2380  1.2014
  339ccc     O1 7784   2.888   2.252   8.889  0.1186  0.7526  0.3420
  339ccc    H17 7785   2.738   2.075   8.710 -0.4400  1.5932  3.0448
  340ccc     C1 7786   2.114   2.971   8.958  0.1633 -0.8551 -0.3361
  340ccc     H1 7787   2.218   3.004   8.963  0.1233 -0.3506 -2.1043
  340ccc     H2 7788   2.065   2.992   9.053 -3.2385  0.9698 -2.2902
  340ccc     C2 7789   2.106   2.826   8.925 -0.6583  0.3619  0.3524
  340ccc     H3 7790   2.007   2.801   8.886 -0.5802  2.1184 -1.0792
  340ccc     H4 7791   2.183   2.808   8.849  1.6249  0.6285  2.4636
  340ccc     C3 7792   2.126   2.745   9.057  0.3012 -0.2289  0.7256
  340ccc     H5 7793   2.091   2.651   9.012  1.9062  1.1593 -4.0698
  340ccc     H6 7794   2.064   2.772   9.143 -0.1139 -0.9962  0.6807
  340ccc     N1 7795   2.057   3.069   8.843 -0.1091  0.5089 -0.2236
  340ccc     H7 7796   2.108   3.044   8.757 -0.5927 -1.4727  0.0270
  340ccc     H8 7797   1.962   3.036   8.818  0.3042 -0.1953 -0.9228
  340ccc     O1 7798   2.269   2.739   9.088  0.2437 -0.0872 -0.0782
  340ccc    H17 7799   2.065   3.170   8.865 -0.4729  0.5025 -0.0557
  341ccc     C1 7800   2.982   2.129   9.914  0.2219 -0.0347  0.2661
  341ccc     H1 7801   3.083   2.167   9.899 -0.1969  1.7162  1.5062
  341ccc     H2 7802   2.913   2.210   9.941 -0.2637 -0.9094  1.7547
  341ccc     C2 7803   2.972   2.025  10.025  0.6599 -0.0534 -0.1471
  341ccc     H3 7804   2.875   1.974  10.024  0.6820 -0.1716 -2.5846
  341ccc     H4 7805   3.050   1.948  10.016 -0.0064 -0.9561  1.3025
  341ccc     C3 7806   2.999   2.102  10.154  0.5704  0.2335 -0.0411
  341ccc     H5 7807   3.102   2.140  10.165  0.3552  0.8125 -0.0112
  341ccc     H6 7808   2.988   2.031  10.237  0.2077 -1.3897 -1.4436
  341ccc     N1 7809   2.927   2.078   9.784  0.0009  0.0137 -0.0918
  341ccc     H7 7810   2.841   2.022   9.799  0.0524 -0.1172 -0.2786
  341ccc     H8 7811   2.891   2.154   9.723 -1.7176 -1.2340 -0.7148
  341ccc     O1 7812   2.899   2.207  10.159 -0.4404 -0.2273  0.0083
  341ccc    H17 7813   2.987   2.025   9.719  0.6200  1.6391 -0.9048
  342ccc     C1 7814   1.881   2.662  10.119  0.2299  1.4866 -0.8154
  342ccc     H1 7815   1.813   2.740  10.084 -2.0876 -0.2901 -0.5311
  342ccc     H2 7816   1.967   2.708  10.167 -0.2570  3.3445 -1.6325
  342ccc     C2 7817   1.920   2.564  10.005  0.1450 -0.3624 -0.9522
  342ccc     H3 7818   1.832   2.505   9.978 -1.3614  1.2450  0.2121
  342ccc     H4 7819   1.946   2.633   9.924 -1.4183 -0.9398 -1.9650
  342ccc     C3 7820   2.035   2.466  10.039 -0.1579  0.1061 -0.4042
  342ccc     H5 7821   2.049   2.389   9.961 -1.9526 -0.3113 -0.3627
  342ccc     H6 7822   2.023   2.404  10.129 -1.2475  1.4265  0.3950
  342ccc     N1 7823   1.797   2.597  10.220  0.0176 -0.6323 -0.1364
  342ccc     H7 7824   1.782   2.662  10.299  0.1929 -0.7010 -0.0455
  342ccc     H8 7825   1.707   2.563  10.184 -0.2954  0.0245  0.0186
  342ccc     O1 7826   2.159   2.535  10.043  0.1597 -0.3704 -0.5780
  342ccc    H17 7827   1.846   2.513  10.255  0.4052 -0.4808 -0.3156
  343ccc     C1 7828   2.435   5.166   8.513 -0.2655 -0.5976 -0.6852
  343ccc     H1 7829   2.490   5.260   8.509 -0.3569 -0.2956  2.3250
  343ccc     H2 7830   2.495   5.093   8.459  1.1185 -0.0715  0.0717
  343ccc     C2 7831   2.296   5.190   8.465  0.0323 -0.1632  0.2299
  343ccc     H3 7832   2.243   5.103   8.423  0.8864 -0.8821  0.6250
  343ccc     H4 7833   2.238   5.246   8.541  0.6452 -0.1954  0.7273
  343ccc     C3 7834   2.306   5.288   8.349 -0.5552  0.4754 -0.3783
  343ccc     H5 7835   2.351   5.380   8.387  0.1207  0.4791 -1.1489
  343ccc     H6 7836   2.209   5.318   8.307 -0.7362  0.3683 -0.0358
  343ccc     N1 7837   2.441   5.129   8.658 -0.1484 -0.8700  0.2614
  343ccc     H7 7838   2.539   5.107   8.682  0.5429  0.2464 -1.3412
  343ccc     H8 7839   2.402   5.204   8.717  0.7995 -0.5807  0.5453
  343ccc     O1 7840   2.393   5.230   8.252 -0.3424 -0.6733  0.1047
  343ccc    H17 7841   2.388   5.043   8.679 -1.8405  0.7314  3.2009
  344ccc     C1 7842   2.921   5.166   7.517  0.2478  0.3692  0.2437
  344ccc     H1 7843   2.861   5.089   7.565  1.4643 -1.1369 -0.5449
  344ccc     H2 7844   2.945   5.242   7.592 -0.9057 -1.9648  3.1619
  344ccc     C2 7845   2.860   5.242   7.395  0.9799  0.4363  0.0373
  344ccc     H3 7846   2.929   5.309   7.342  1.7572 -1.5777 -1.6384
  344ccc     H4 7847   2.822   5.172   7.320 -0.6210  1.8963 -0.5770
  344ccc     C3 7848   2.728   5.320   7.437  0.0129  0.4669  0.2991
  344ccc     H5 7849   2.690   5.375   7.350 -0.9728 -1.0063 -0.2355
  344ccc     H6 7850   2.751   5.387   7.521 -0.4209  0.7816  0.1685
  344ccc     N1 7851   3.051   5.097   7.494 -0.2859 -0.1251  0.3547
  344ccc     H7 7852   3.093   5.061   7.581  0.8613  2.1767  0.8294
  344ccc     H8 7853   3.042   5.022   7.423  1.3325 -0.1172  0.0956
  344ccc     O1 7854   2.625   5.244   7.494  0.3217  0.0915  0.0285
  344ccc    H17 7855   3.122   5.160   7.454 -0.1712  0.0661  0.8635
  345ccc     C1 7856   2.370   3.938   9.261 -0.3107 -0.5831  0.4766
  345ccc     H1 7857   2.301   3.865   9.305 -1.1778 -0.8595 -1.2339
  345ccc     H2 7858   2.308   4.028   9.264 -0.0063 -0.3801  0.6152
  345ccc     C2 7859   2.411   3.908   9.117 -0.5406  0.0568  0.1142
  345ccc     H3 7860   2.483   3.984   9.083 -0.2223 -0.2601  0.0728
  345ccc     H4 7861   2.462   3.812   9.102  0.4804  0.2746  1.8773
  345ccc     C3 7862   2.292   3.905   9.019 -0.6395 -0.1310  0.1658
  345ccc     H5 7863   2.237   3.813   9.043 -1.0064  0.0016 -0.1549
  345ccc     H6 7864   2.326   3.915   8.915  1.7129  0.5589  0.9334
  345ccc     N1 7865   2.484   3.961   9.355  0.1392 -0.2058 -0.1411
  345ccc     H7 7866   2.573   3.914   9.335  0.0988 -0.4395  0.2235
  345ccc     H8 7867   2.505   4.062   9.350 -0.0303 -0.1905 -0.7169
  345ccc     O1 7868   2.209   4.020   9.046  0.2152  0.5000 -0.0394
  345ccc    H17 7869   2.460   3.939   9.452 -1.1579  0.6642 -0.2321
  346ccc     C1 7870   1.669   4.212   8.502 -0.2154 -0.6324 -0.0727
  346ccc     H1 7871   1.635   4.147   8.584 -2.5825 -0.4426 -0.8241
  346ccc     H2 7872   1.772   4.234   8.530  0.4245 -1.1340 -1.8780
  346ccc     C2 7873   1.598   4.344   8.477  0.3540 -0.4568 -0.3112
  346ccc     H3 7874   1.669   4.405   8.421  1.4408 -0.4938  0.9751
  346ccc     H4 7875   1.518   4.330   8.403  0.6971 -1.4226 -0.5190
  346ccc     C3 7876   1.580   4.425   8.603  0.4002  0.5615 -0.0397
  346ccc     H5 7877   1.502   4.381   8.668  0.4062  2.2575  1.1705
  346ccc     H6 7878   1.544   4.524   8.574  5.4979  1.7869 -3.5143
  346ccc     N1 7879   1.681   4.124   8.374  0.9834  0.4349  0.4366
  346ccc     H7 7880   1.589   4.128   8.329  0.7067  0.5816  1.0132
  346ccc     H8 7881   1.749   4.173   8.313  1.7127 -0.2178  0.6988
  346ccc     O1 7882   1.711   4.434   8.668 -0.3526 -0.4864  0.6844
  346ccc    H17 7883   1.706   4.027   8.398  0.5610  0.0431 -0.6493
  347ccc     C1 7884   3.747   4.298  10.095 -0.3766 -0.3699  0.0182
  347ccc     H1 7885   3.641   4.324  10.094 -1.0484 -2.7184 -2.4708
  347ccc     H2 7886   3.772   4.232  10.012  0.1000  0.3906 -0.4606
  347ccc     C2 7887   3.782   4.221  10.226  0.3076  0.1266 -0.0021
  347ccc     H3 7888   3.864   4.151  10.207  1.2010  1.0696  0.3063
  347ccc     H4 7889   3.806   4.281  10.315 -2.8585  1.6191 -0.0135
  347ccc     C3 7890   3.654   4.140  10.274 -0.6099 -0.1894 -0.4427
  347ccc     H5 7891   3.571   4.206  10.303 -0.0237 -0.5857  2.4110
  347ccc     H6 7892   3.679   4.074  10.358  0.6746  0.8026 -0.0230
  347ccc     N1 7893   3.824   4.426  10.062  0.1547 -0.3555  0.0680
  347ccc     H7 7894   3.797   4.492  10.137 -0.3214 -0.0338 -0.3857
  347ccc     H8 7895   3.927   4.416  10.067  0.0946 -1.0710 -0.0442
  347ccc     O1 7896   3.620   4.065  10.159  0.5706 -0.1107 -0.3554
  347ccc    H17 7897   3.796   4.454   9.968  0.0258 -1.1072 -0.1260
  348ccc     C1 7898   3.130   3.817  10.414  0.4207 -0.3998  0.0639
  348ccc     H1 7899   3.140   3.902  10.483  1.1986  1.2625 -1.9788
  348ccc     H2 7900   3.227   3.782  10.378  0.5698  0.6589 -0.6076
  348ccc     C2 7901   3.043   3.865  10.303  0.5294 -0.8704  0.0133
  348ccc     H3 7902   2.940   3.880  10.337 -0.8888 -2.7871 -2.9925
  348ccc     H4 7903   3.084   3.957  10.259  2.4853 -2.1415 -0.9510
  348ccc     C3 7904   3.028   3.750  10.196  0.2744 -0.1108 -0.3791
  348ccc     H5 7905   2.962   3.779  10.114  0.0911 -0.6687 -0.4329
  348ccc     H6 7906   2.986   3.661  10.244 -1.5469  1.6599  1.5161
  348ccc     N1 7907   3.055   3.712  10.494 -0.1320 -0.6882 -1.0120
  348ccc     H7 7908   3.045   3.617  10.455 -0.8361 -1.4751  0.9844
  348ccc     H8 7909   3.100   3.697  10.585 -1.6551  0.0500 -0.1206
  348ccc     O1 7910   3.151   3.720  10.136  0.2271  0.1835 -0.2599
  348ccc    H17 7911   2.966   3.757  10.519  1.2331  2.5947 -1.5611
  349ccc     C1 7912   3.883   5.243   8.561  0.1161  0.0065 -0.1867
  349ccc     H1 7913   3.885   5.142   8.519  3.4864  1.3316 -3.8027
  349ccc     H2 7914   3.872   5.239   8.670  0.7725 -0.1657 -0.1232
  349ccc     C2 7915   3.751   5.319   8.513 -0.3808 -0.2751  0.1437
  349ccc     H3 7916   3.753   5.421   8.553  0.4488  0.0842 -0.7704
  349ccc     H4 7917   3.752   5.337   8.405  0.4276  1.7647  0.4646
  349ccc     C3 7918   3.633   5.226   8.549  0.5083 -0.2846  0.1160
  349ccc     H5 7919   3.647   5.124   8.513  1.3444 -1.1131  2.5658
  349ccc     H6 7920   3.537   5.267   8.516  1.8399  1.3347 -1.9698
  349ccc     N1 7921   4.002   5.317   8.519 -0.2621 -0.2882  0.2401
  349ccc     H7 7922   4.087   5.263   8.542  0.2570 -0.3938 -1.7436
  349ccc     H8 7923   3.999   5.327   8.416 -1.3249  1.8058  0.4283
  349ccc     O1 7924   3.616   5.224   8.695 -0.2363  0.6064 -0.4490
  349ccc    H17 7925   4.016   5.405   8.570  1.0129 -1.5545  2.2226
  350ccc     C1 7926   3.766   5.082   9.647 -0.2383 -0.0867 -0.0132
  350ccc     H1 7927   3.793   5.179   9.691  2.4234 -0.5621 -0.4441
  350ccc     H2 7928   3.799   5.091   9.544 -1.3501  2.1197 -0.2443
  350ccc     C2 7929   3.616   5.083   9.629 -0.5037  0.4273 -0.0803
  350ccc     H3 7930   3.588   4.990   9.577  0.5534 -0.5689  1.0773
  350ccc     H4 7931   3.567   5.088   9.727  1.3402  0.8700  0.8665
  350ccc     C3 7932   3.560   5.187   9.535  0.3804  0.5844  0.5339
  350ccc     H5 7933   3.574   5.288   9.576 -0.1183 -0.0277  2.3407
  350ccc     H6 7934   3.453   5.170   9.516 -0.7001  4.3675  2.3342
  350ccc     N1 7935   3.837   4.989   9.742  0.0283 -0.1884  0.0800
  350ccc     H7 7936   3.788   4.899   9.741  0.3828 -0.3893 -1.0114
  350ccc     H8 7937   3.935   4.967   9.720  0.3277  1.8941 -0.9349
  350ccc     O1 7938   3.625   5.158   9.413 -0.5014 -0.8934 -0.0042
  350ccc    H17 7939   3.831   5.044   9.829  2.8369 -0.7800  0.7448
  351ccc     C1 7940   9.263   4.840   7.753  0.0225  0.1586 -0.0597
  351ccc     H1 7941   9.246   4.733   7.742 -0.2931  0.3483 -1.6755
  351ccc     H2 7942   9.169   4.891   7.777  1.0035  1.9563  0.1372
  351ccc     C2 7943   9.315   4.891   7.613  0.7953  1.3768 -0.3591
  351ccc     H3 7944   9.342   4.997   7.616 -0.7363  1.7771  0.8818
  351ccc     H4 7945   9.402   4.828   7.589 -0.2916 -1.1222  1.7700
  351ccc     C3 7946   9.206   4.871   7.510  0.1595  0.2957  1.0518
  351ccc     H5 7947   9.189   4.763   7.503 -0.3048  0.3732  0.9594
  351ccc     H6 7948   9.222   4.907   7.407  0.9474 -1.9037  0.3478
  351ccc     N1 7949   9.363   4.868   7.862 -0.1427  0.2547  0.4240
  351ccc     H7 7950   9.398   4.965   7.850  0.0795  0.3273  1.5446
  351ccc     H8 7951   9.319   4.859   7.955  1.1770  0.5840  1.1141
  351ccc     O1 7952   9.085   4.940   7.549 -0.3328 -0.2208  0.3414
  351ccc    H17 7953   9.447   4.811   7.846  1.1861  1.1259  3.5501
  352ccc     C1 7954   8.362   5.672   7.430  0.2049  0.0171  0.2172
  352ccc     H1 7955   8.258   5.705   7.423 -0.1149 -1.0940 -0.7107
  352ccc     H2 7956   8.364   5.566   7.403  0.6821 -0.0123  0.3606
  352ccc     C2 7957   8.423   5.685   7.570  0.1980 -0.6197  0.7481
  352ccc     H3 7958   8.402   5.788   7.600  0.6621 -0.0089 -0.8986
  352ccc     H4 7959   8.354   5.619   7.624 -1.3901 -1.4775 -2.1173
  352ccc     C3 7960   8.570   5.650   7.582  0.1854  0.0527 -0.1999
  352ccc     H5 7961   8.595   5.656   7.689 -1.1524 -1.1902  0.2211
  352ccc     H6 7962   8.643   5.712   7.530 -0.1799  0.4438 -0.2515
  352ccc     N1 7963   8.439   5.748   7.325 -0.2244  0.7889  0.5582
  352ccc     H7 7964   8.517   5.700   7.278 -0.7308  1.0832 -0.6246
  352ccc     H8 7965   8.371   5.777   7.252 -1.9210 -1.4581  1.1206
  352ccc     O1 7966   8.585   5.510   7.553 -0.0003 -0.3464 -0.1186
  352ccc    H17 7967   8.473   5.833   7.372 -0.5120  0.9074  0.5588
  353ccc     C1 7968   7.894   3.253   7.607  0.0062  1.3827  0.5177
  353ccc     H1 7969   7.926   3.354   7.583  0.1824  1.0905 -0.5004
  353ccc     H2 7970   7.977   3.183   7.618 -1.2394 -0.4891 -1.2642
  353ccc     C2 7971   7.816   3.199   7.478 -0.0365 -0.2980  0.3222
  353ccc     H3 7972   7.801   3.090   7.483 -0.3115 -0.3342 -1.0002
  353ccc     H4 7973   7.711   3.229   7.478 -0.1620 -0.6522 -1.4197
  353ccc     C3 7974   7.871   3.247   7.341 -0.6706 -0.1852 -0.8746
  353ccc     H5 7975   7.816   3.195   7.262  0.8969  0.6783 -2.5957
  353ccc     H6 7976   7.976   3.219   7.326 -0.5994  0.6411 -1.9891
  353ccc     N1 7977   7.822   3.241   7.737  0.0128  0.2686 -0.2295
  353ccc     H7 7978   7.721   3.257   7.726  0.0146  0.2345 -0.3034
  353ccc     H8 7979   7.831   3.147   7.779 -1.9134  0.5336  0.9283
  353ccc     O1 7980   7.850   3.392   7.340  0.1720  0.5148 -1.2071
  353ccc    H17 7981   7.861   3.310   7.802  3.3990 -0.8309 -0.9204
  354ccc     C1 7982   7.872   4.127   6.548  0.0860  0.2408  0.4413
  354ccc     H1 7983   7.864   4.234   6.529  0.7046  0.2590  0.2598
  354ccc     H2 7984   7.863   4.107   6.655  1.3881  0.1231  0.5511
  354ccc     C2 7985   7.997   4.063   6.489 -0.1371 -0.0684 -0.6238
  354ccc     H3 7986   7.991   3.958   6.459  3.4387 -0.0371 -1.9235
  354ccc     H4 7987   8.025   4.120   6.400  1.8061  1.0630  0.6413
  354ccc     C3 7988   8.114   4.071   6.584 -0.4913  0.3887  0.4633
  354ccc     H5 7989   8.139   4.175   6.611 -1.3064  0.4642  0.9654
  354ccc     H6 7990   8.209   4.039   6.539 -0.2255  1.5339  0.1749
  354ccc     N1 7991   7.758   4.061   6.476 -0.2789 -0.2321  0.1039
  354ccc     H7 7992   7.756   3.958   6.480 -0.2125 -0.2157  0.6160
  354ccc     H8 7993   7.667   4.080   6.521 -1.3623  1.5425 -2.6328
  354ccc     O1 7994   8.081   4.004   6.705 -0.5709 -0.0182  0.1976
  354ccc    H17 7995   7.756   4.086   6.376 -1.6155  2.1343  0.6546
  355ccc     C1 7996   7.817   2.134   8.496  0.6049  0.6863 -0.2296
  355ccc     H1 7997   7.749   2.202   8.548  1.1178  0.5281  0.6732
  355ccc     H2 7998   7.912   2.118   8.547 -0.6459 -1.9231  1.4969
  355ccc     C2 7999   7.835   2.179   8.349 -0.3190  0.4546  0.1542
  355ccc     H3 8000   7.903   2.103   8.308  1.2690  0.6634  2.2168
  355ccc     H4 8001   7.734   2.175   8.306 -0.9301  2.9284  1.1653
  355ccc     C3 8002   7.891   2.319   8.337 -0.1181 -0.4365  0.6227
  355ccc     H5 8003   7.819   2.395   8.370  0.5288  0.2731  0.4436
  355ccc     H6 8004   7.918   2.339   8.232 -0.6185  0.6376  0.6836
  355ccc     N1 8005   7.752   1.993   8.504  0.4719  0.1915 -0.0368
  355ccc     H7 8006   7.812   1.927   8.452  1.4275  2.5102 -2.1262
  355ccc     H8 8007   7.748   1.966   8.603  1.3008  3.7064  1.0917
  355ccc     O1 8008   8.009   2.315   8.420 -0.2403 -0.6035 -0.1650
  355ccc    H17 8009   7.658   1.985   8.463  0.2952  0.2472  0.3562
  356ccc     C1 8010   8.801   2.714   7.966 -0.1926 -0.0790 -0.4118
  356ccc     H1 8011   8.708   2.662   7.989 -1.3448  2.2520  0.6112
  356ccc     H2 8012   8.888   2.681   8.022  0.3843 -0.1575 -1.3286
  356ccc     C2 8013   8.774   2.867   7.992  0.3325  0.1992 -0.3902
  356ccc     H3 8014   8.868   2.916   7.964  0.6422 -1.4714 -2.5175
  356ccc     H4 8015   8.707   2.909   7.916  0.0281  0.7433  0.1683
  356ccc     C3 8016   8.724   2.899   8.135  0.1775  0.8309 -0.1380
  356ccc     H5 8017   8.698   3.005   8.143  0.7089  0.8443  1.8061
  356ccc     H6 8018   8.807   2.883   8.205  0.4912  0.7179 -0.5260
  356ccc     N1 8019   8.836   2.692   7.821  0.0866  0.4773 -0.1731
  356ccc     H7 8020   8.926   2.734   7.794  0.8529 -0.2866  1.1007
  356ccc     H8 8021   8.854   2.591   7.814  1.0412  0.4360  2.1011
  356ccc     O1 8022   8.608   2.816   8.169  0.7692  0.2792 -0.1403
  356ccc    H17 8023   8.758   2.722   7.761 -0.2443  0.2228  0.1296
  357ccc     C1 8024   9.103   4.438   8.821 -0.0390 -0.6552 -0.2786
  357ccc     H1 8025   9.078   4.371   8.903  2.6240  0.2675  1.4286
  357ccc     H2 8026   9.045   4.530   8.818  0.8623 -0.0065  1.0555
  357ccc     C2 8027   9.084   4.357   8.687  0.4261 -0.3068  0.6810
  357ccc     H3 8028   9.156   4.388   8.610 -0.1674 -2.8946 -1.0374
  357ccc     H4 8029   9.113   4.252   8.699 -2.4243 -1.0239  1.9924
  357ccc     C3 8030   8.942   4.348   8.630 -0.0515 -0.1509  0.2551
  357ccc     H5 8031   8.944   4.301   8.531  2.3049  0.0371  0.1596
  357ccc     H6 8032   8.894   4.445   8.616 -0.0325 -0.2547 -0.5682
  357ccc     N1 8033   9.249   4.475   8.861 -0.3350  0.1816 -0.8315
  357ccc     H7 8034   9.244   4.541   8.940  1.4999 -0.3700 -0.2188
  357ccc     H8 8035   9.296   4.389   8.891  0.5533  1.0636  0.3753
  357ccc     O1 8036   8.861   4.264   8.712 -0.0983  0.2364 -0.2720
  357ccc    H17 8037   9.301   4.527   8.788 -0.1345 -0.1648 -0.9368
  358ccc     C1 8038   9.433   3.638   8.722 -0.4454  0.0634  0.0609
  358ccc     H1 8039   9.496   3.723   8.697 -2.6839  1.5593 -0.7999
  358ccc     H2 8040   9.432   3.572   8.635  0.3026  0.7863 -0.5206
  358ccc     C2 8041   9.308   3.707   8.758  1.5191  0.9969 -0.5274
  358ccc     H3 8042   9.305   3.758   8.855  0.8929  0.2584 -0.1441
  358ccc     H4 8043   9.291   3.787   8.684 -0.1275  1.7651  0.6252
  358ccc     C3 8044   9.184   3.620   8.753  0.6117  0.0286  0.1395
  358ccc     H5 8045   9.202   3.542   8.828 -0.9398  1.4270  2.0366
  358ccc     H6 8046   9.176   3.565   8.658 -1.5669 -0.7713  0.7190
  358ccc     N1 8047   9.507   3.564   8.830 -0.3664 -0.1217 -0.4551
  358ccc     H7 8048   9.573   3.497   8.788 -0.6724 -0.2835 -0.6778
  358ccc     H8 8049   9.564   3.633   8.881  0.4397  0.8077 -2.5061
  358ccc     O1 8050   9.059   3.699   8.773 -0.3471 -0.4014  0.2290
  358ccc    H17 8051   9.454   3.514   8.903 -2.4430  2.2500 -0.2210
  359ccc     C1 8052   7.699   6.018   9.656 -0.0594 -0.4280  0.5256
  359ccc     H1 8053   7.594   5.991   9.671  0.0462 -1.6503 -0.6955
  359ccc     H2 8054   7.707   6.099   9.584 -0.7489  0.7048  1.6923
  359ccc     C2 8055   7.787   5.899   9.601 -0.1023 -0.2820  0.1299
  359ccc     H3 8056   7.767   5.886   9.494  2.0167 -0.5586 -0.2825
  359ccc     H4 8057   7.896   5.905   9.616 -0.1081 -2.7776  1.8228
  359ccc     C3 8058   7.739   5.758   9.655 -1.0010 -0.2517  0.5053
  359ccc     H5 8059   7.630   5.751   9.659 -1.0605 -1.4663 -1.5758
  359ccc     H6 8060   7.788   5.745   9.752  2.2687 -0.7683 -1.0781
  359ccc     N1 8061   7.749   6.086   9.784  1.0090  0.1290 -0.2882
  359ccc     H7 8062   7.841   6.132   9.776  0.3972  1.8182  1.5181
  359ccc     H8 8063   7.688   6.169   9.797  1.0165  0.3404 -1.4801
  359ccc     O1 8064   7.786   5.649   9.566  0.0955 -0.5264 -0.7850
  359ccc    H17 8065   7.748   6.025   9.866  1.0309 -0.6268 -0.8405
  360ccc     C1 8066   8.096   5.518   8.966 -0.1792 -0.5126  0.6497
  360ccc     H1 8067   8.142   5.470   8.879 -0.3518 -1.9026  1.3019
  360ccc     H2 8068   8.118   5.470   9.062  1.0230 -0.9277  0.1928
  360ccc     C2 8069   7.947   5.517   8.926  0.1039  0.6187 -0.7722
  360ccc     H3 8070   7.889   5.570   9.003  0.9637 -0.2682  0.5358
  360ccc     H4 8071   7.943   5.585   8.840 -0.8560  0.4786 -0.8392
  360ccc     C3 8072   7.887   5.382   8.901 -0.1824 -0.0433  0.4602
  360ccc     H5 8073   7.940   5.326   8.823  0.9027 -0.3151  1.3541
  360ccc     H6 8074   7.795   5.407   8.848 -0.4698  2.2315  1.8746
  360ccc     N1 8075   8.153   5.662   8.983  0.1383  0.5967 -0.5450
  360ccc     H7 8076   8.256   5.657   8.992  0.3406 -0.5520 -2.7613
  360ccc     H8 8077   8.133   5.717   8.899  4.0926  1.1215 -1.3243
  360ccc     O1 8078   7.875   5.315   9.028 -0.2213 -0.1123  0.0666
  360ccc    H17 8079   8.104   5.699   9.065  1.6899 -0.4300  0.9258
  361ccc     C1 8080   8.846   4.087   9.919  0.1523  0.1284  0.5467
  361ccc     H1 8081   8.758   4.139   9.958 -0.3152  0.8536 -1.3862
  361ccc     H2 8082   8.925   4.159   9.898  2.4660 -2.2703  0.6267
  361ccc     C2 8083   8.801   4.021   9.786 -0.6470  0.6305  0.1048
  361ccc     H3 8084   8.861   3.934   9.757 -0.2407  0.5604  1.1023
  361ccc     H4 8085   8.709   3.968   9.813 -0.3388  1.0702  2.2085
  361ccc     C3 8086   8.786   4.114   9.668 -0.6287 -0.9109  0.2954
  361ccc     H5 8087   8.749   4.059   9.581 -1.5960 -0.2477  0.2735
  361ccc     H6 8088   8.875   4.174   9.649 -1.9090  1.5408  1.4423
  361ccc     N1 8089   8.898   4.006  10.026  0.8687  0.0892 -0.0783
  361ccc     H7 8090   8.881   3.905  10.013 -1.2362  0.4677 -0.7144
  361ccc     H8 8091   9.000   4.014  10.032  0.9117 -1.1541  1.9542
  361ccc     O1 8092   8.687   4.207   9.701 -0.6102 -0.2849  0.0629
  361ccc    H17 8093   8.860   4.035  10.118 -0.8399 -0.2626 -0.6356
  362ccc     C1 8094   8.280   4.643  10.292 -0.7283  0.6235  0.0685
  362ccc     H1 8095   8.307   4.740  10.334  0.3820  0.4413 -0.1831
  362ccc     H2 8096   8.369   4.606  10.241 -1.0670 -0.0334 -0.0549
  362ccc     C2 8097   8.167   4.672  10.197 -0.1681 -0.5399  0.1630
  362ccc     H3 8098   8.147   4.580  10.140  0.8591 -0.4906 -0.2957
  362ccc     H4 8099   8.077   4.704  10.251 -1.1601  0.2123 -1.8241
  362ccc     C3 8100   8.210   4.792  10.106  0.3565 -0.6711  0.1896
  362ccc     H5 8101   8.228   4.880  10.169  1.1582  0.1534 -1.1404
  362ccc     H6 8102   8.127   4.815  10.038 -0.1670 -0.0075  1.0291
  362ccc     N1 8103   8.251   4.547  10.408  0.3149  0.4118  0.3139
  362ccc     H7 8104   8.337   4.505  10.445  0.1513 -2.2451 -2.0319
  362ccc     H8 8105   8.189   4.586  10.481 -1.1416 -0.0589 -0.6282
  362ccc     O1 8106   8.329   4.754  10.040  0.3258  0.0128  0.4344
  362ccc    H17 8107   8.192   4.471  10.373  0.9556  0.3143 -0.5770
  363ccc     C1 8108   8.117   3.338  10.507 -0.3783 -0.1763  0.5221
  363ccc     H1 8109   8.210   3.376  10.550 -1.3374  0.3640  2.1949
  363ccc     H2 8110   8.104   3.381  10.407  0.7941  0.9516  0.8202
  363ccc     C2 8111   8.000   3.372  10.604  0.2696 -0.0457  1.2067
  363ccc     H3 8112   7.907   3.368  10.546  1.2823  1.0227 -0.5816
  363ccc     H4 8113   7.990   3.294  10.680 -1.4966 -0.8784  0.1958
  363ccc     C3 8114   8.026   3.508  10.677 -0.3865  0.7491 -0.8688
  363ccc     H5 8115   8.131   3.509  10.709 -1.2982  1.3406  2.5190
  363ccc     H6 8116   7.972   3.527  10.771 -1.0915  0.7543 -1.2679
  363ccc     N1 8117   8.135   3.198  10.476 -0.3313 -0.7350 -0.5114
  363ccc     H7 8118   8.189   3.158  10.554 -1.5192  0.0213  0.7282
  363ccc     H8 8119   8.050   3.146  10.450 -1.1989 -1.1984  2.7583
  363ccc     O1 8120   8.002   3.613  10.589 -0.1818 -0.2653 -0.5444
  363ccc    H17 8121   8.205   3.203  10.400  0.1004 -1.6453 -0.1964
  364ccc     C1 8122   7.707   4.241  10.936  0.4966 -0.1739  0.1067
  364ccc     H1 8123   7.777   4.247  11.020  0.1565  0.9926  0.3327
  364ccc     H2 8124   7.738   4.154  10.877 -0.3659 -1.1768  1.0878
  364ccc     C2 8125   7.719   4.357  10.839  0.0831 -1.4942  0.3178
  364ccc     H3 8126   7.695   4.449  10.894 -0.7713  0.8820 -3.6062
  364ccc     H4 8127   7.823   4.374  10.808 -0.1624 -0.2027  0.1382
  364ccc     C3 8128   7.637   4.342  10.708  0.3399 -0.8625 -0.4164
  364ccc     H5 8129   7.654   4.436  10.655  0.3630 -1.0971 -0.8306
  364ccc     H6 8130   7.530   4.335  10.733 -0.0646  3.2869 -0.3675
  364ccc     N1 8131   7.574   4.209  11.000  0.3061  0.1120  0.6969
  364ccc     H7 8132   7.506   4.166  10.936  1.3635  1.0919 -1.1867
  364ccc     H8 8133   7.582   4.140  11.076  0.4192 -1.0683 -0.3529
  364ccc     O1 8134   7.692   4.243  10.628  0.2512 -0.0848  0.8660
  364ccc    H17 8135   7.540   4.291  11.053  1.0258  0.4443  0.6686
  365ccc     C1 8136   7.332   2.958  10.005 -0.9859 -0.8108  0.4880
  365ccc     H1 8137   7.265   3.024   9.949 -0.4016  1.5644  2.4177
  365ccc     H2 8138   7.423   2.970   9.946 -1.5507 -0.0055 -0.2458
  365ccc     C2 8139   7.293   2.812   9.996  0.1405 -1.0738 -0.7786
  365ccc     H3 8140   7.367   2.750  10.049 -0.9414 -1.4304  0.3572
  365ccc     H4 8141   7.199   2.798  10.050  0.4595  0.4768  0.2403
  365ccc     C3 8142   7.289   2.754   9.847  0.2601 -0.0087 -0.0288
  365ccc     H5 8143   7.216   2.809   9.787  1.7821  2.9504  0.6343
  365ccc     H6 8144   7.260   2.648   9.852  2.7632 -0.7800 -0.1549
  365ccc     N1 8145   7.343   3.015  10.144  0.1480  0.3585 -0.1840
  365ccc     H7 8146   7.368   3.114  10.145 -2.0138  0.9632 -0.5820
  365ccc     H8 8147   7.254   3.007  10.196  0.8416  0.1849  1.0189
  365ccc     O1 8148   7.420   2.774   9.791 -0.1585 -0.3865  0.1746
  365ccc    H17 8149   7.405   2.955  10.202  0.8154  0.5169 -0.7187
  366ccc     C1 8150   7.757   2.373   9.770  0.2706 -0.0419 -0.0156
  366ccc     H1 8151   7.683   2.391   9.692 -1.8298 -1.2434  1.6153
  366ccc     H2 8152   7.789   2.469   9.810  0.5944 -0.8076  1.6119
  366ccc     C2 8153   7.883   2.307   9.714  0.1318 -0.6918 -0.1442
  366ccc     H3 8154   7.949   2.286   9.799 -0.7449  0.5790  0.8947
  366ccc     H4 8155   7.862   2.210   9.667 -0.3062 -1.1014  0.8645
  366ccc     C3 8156   7.949   2.400   9.617  0.2832 -0.7491  0.3598
  366ccc     H5 8157   7.888   2.413   9.526  1.6525  0.6675 -0.3978
  366ccc     H6 8158   8.047   2.361   9.588 -0.0279 -1.6322  0.4891
  366ccc     N1 8159   7.668   2.288   9.867 -0.7012  0.1598  0.3874
  366ccc     H7 8160   7.615   2.207   9.831  0.5757  0.0403 -1.3371
  366ccc     H8 8161   7.730   2.257   9.944 -1.5155 -0.9054  0.6362
  366ccc     O1 8162   7.956   2.533   9.675 -0.5228  0.2812 -0.5460
  366ccc    H17 8163   7.599   2.353   9.910 -1.7584 -0.7714  0.1470
  367ccc     C1 8164   4.853   5.790  11.439 -0.3977  1.0090  0.0901
  367ccc     H1 8165   4.926   5.826  11.366  0.6857 -0.2106  0.5241
  367ccc     H2 8166   4.902   5.783  11.537 -1.8941 -1.2271  0.7589
  367ccc     C2 8167   4.802   5.652  11.397  0.0178  0.0910  0.4014
  367ccc     H3 8168   4.701   5.641  11.437  0.2251  1.4160  1.3955
  367ccc     H4 8169   4.786   5.661  11.289  0.4464  2.2717  0.4681
  367ccc     C3 8170   4.877   5.522  11.439  0.0128  0.4153  0.6940
  367ccc     H5 8171   4.815   5.434  11.414  0.6675 -0.1477  1.0448
  367ccc     H6 8172   4.901   5.526  11.546 -1.5710  1.1698  1.0582
  367ccc     N1 8173   4.745   5.890  11.459  0.1231 -0.2530 -0.2873
  367ccc     H7 8174   4.687   5.851  11.535  2.1815 -3.8069 -0.3198
  367ccc     H8 8175   4.784   5.981  11.488  0.0429 -0.3197  0.0370
  367ccc     O1 8176   4.990   5.508  11.356  0.7648  0.0569 -0.5785
  367ccc    H17 8177   4.685   5.904  11.376 -0.7448 -0.4385  0.2896
  368ccc     C1 8178   5.329   6.150  11.267  0.6737 -0.0139  0.3470
  368ccc     H1 8179   5.290   6.226  11.198 -0.4624 -1.1058 -0.2648
  368ccc     H2 8180   5.389   6.078  11.211 -0.9248 -1.1252 -0.0042
  368ccc     C2 8181   5.210   6.071  11.320 -0.5266  0.3421  0.0708
  368ccc     H3 8182   5.249   5.998  11.392  0.8183  0.8095 -0.1543
  368ccc     H4 8183   5.142   6.137  11.376 -1.5393 -0.6189  0.0156
  368ccc     C3 8184   5.134   6.000  11.206 -0.2610 -0.2958 -0.0023
  368ccc     H5 8185   5.072   6.074  11.153 -2.4159 -1.0461  1.3426
  368ccc     H6 8186   5.066   5.925  11.247  0.3853 -0.0108  1.6644
  368ccc     N1 8187   5.419   6.217  11.372 -0.2887  0.0899  0.4065
  368ccc     H7 8188   5.449   6.169  11.458  0.9795 -1.2417 -0.7111
  368ccc     H8 8189   5.499   6.233  11.310 -3.5010  0.7163 -4.0542
  368ccc     O1 8190   5.232   5.940  11.110 -0.1996 -0.1523 -0.0155
  368ccc    H17 8191   5.399   6.314  11.400  3.1889  0.9549  0.3124
  369ccc     C1 8192   5.341   6.076  10.544  0.3863 -0.0211 -0.0582
  369ccc     H1 8193   5.236   6.103  10.553  0.5458  1.0421 -1.1577
  369ccc     H2 8194   5.355   6.094  10.438 -0.7550 -0.3874 -0.2861
  369ccc     C2 8195   5.358   5.931  10.590 -0.1565  0.4222 -0.8733
  369ccc     H3 8196   5.464   5.912  10.607 -0.1341  2.4941  1.7943
  369ccc     H4 8197   5.317   5.914  10.690  1.4885 -1.9156 -0.5333
  369ccc     C3 8198   5.312   5.827  10.485  0.1940  0.4530 -0.5248
  369ccc     H5 8199   5.203   5.837  10.472  0.2117  1.4380 -0.0146
  369ccc     H6 8200   5.333   5.723  10.511  2.1687  0.7431 -0.8328
  369ccc     N1 8201   5.402   6.187  10.626 -0.0845 -0.3452 -0.2348
  369ccc     H7 8202   5.426   6.266  10.564 -0.0989 -1.4448 -1.6757
  369ccc     H8 8203   5.339   6.228  10.697  1.8715 -0.9291  1.9879
  369ccc     O1 8204   5.387   5.854  10.366  0.0314 -0.3814 -0.0183
  369ccc    H17 8205   5.485   6.164  10.683  0.3887 -0.8397 -1.1109
  370ccc     C1 8206   5.499   6.069   9.502 -0.2218 -0.8275  0.0503
  370ccc     H1 8207   5.443   6.090   9.593 -1.0341  0.1840 -0.6529
  370ccc     H2 8208   5.435   6.105   9.421 -1.4010  0.9374  1.6885
  370ccc     C2 8209   5.545   5.919   9.506  0.4354  0.0219  0.0387
  370ccc     H3 8210   5.555   5.898   9.399 -1.9279  0.0768 -0.2563
  370ccc     H4 8211   5.640   5.907   9.558  0.3869 -0.7695 -0.0411
  370ccc     C3 8212   5.435   5.813   9.550 -0.3410 -0.2957 -0.2037
  370ccc     H5 8213   5.470   5.709   9.545 -1.1682 -0.6473  1.0653
  370ccc     H6 8214   5.350   5.830   9.482 -0.6834 -0.9204  0.0708
  370ccc     N1 8215   5.610   6.167   9.488  0.5087  0.4959 -0.1228
  370ccc     H7 8216   5.569   6.259   9.471 -4.2589 -0.9880  1.6657
  370ccc     H8 8217   5.672   6.170   9.571 -0.8242  1.5257  0.8817
  370ccc     O1 8218   5.390   5.854   9.678 -0.1675 -0.3177 -0.3958
  370ccc    H17 8219   5.665   6.146   9.404 -1.2162 -2.9554 -0.5818
  371ccc     C1 8220   7.288   5.866  10.443 -0.9223  0.3497 -0.0929
  371ccc     H1 8221   7.383   5.837  10.489 -1.5193 -2.2911 -0.3359
  371ccc     H2 8222   7.217   5.838  10.520 -0.9541  1.2063  0.1890
  371ccc     C2 8223   7.264   5.763  10.320 -1.2167 -0.1883 -0.4080
  371ccc     H3 8224   7.163   5.779  10.281 -1.8288  2.9919  2.1146
  371ccc     H4 8225   7.343   5.778  10.245 -0.5675  1.3619  0.5399
  371ccc     C3 8226   7.279   5.619  10.355  0.6390  0.3482 -0.0635
  371ccc     H5 8227   7.383   5.597  10.385  0.4204 -2.7830 -1.2572
  371ccc     H6 8228   7.265   5.556  10.267 -0.3998  1.7578 -0.9485
  371ccc     N1 8229   7.290   6.013  10.424  0.2456  0.6092  0.2086
  371ccc     H7 8230   7.207   6.036  10.369 -0.5412 -2.0294  0.1263
  371ccc     H8 8231   7.290   6.067  10.512 -1.9504  0.4604  0.3414
  371ccc     O1 8232   7.193   5.594  10.469  0.2488  1.2015 -0.2972
  371ccc    H17 8233   7.372   6.039  10.368  0.6187 -1.4066 -0.2593
  372ccc     C1 8234   7.705   5.073  11.266  0.2318 -0.2325 -0.6375
  372ccc     H1 8235   7.805   5.031  11.272 -0.2029 -1.1554  0.5168
  372ccc     H2 8236   7.671   5.129  11.353  1.1224  0.1185 -0.5030
  372ccc     C2 8237   7.613   4.955  11.229 -1.0075 -0.8053 -0.1343
  372ccc     H3 8238   7.632   4.922  11.126  1.2256 -0.4193  0.1200
  372ccc     H4 8239   7.641   4.875  11.299 -0.8409 -0.6657 -0.0443
  372ccc     C3 8240   7.459   4.978  11.240 -0.0009  0.0376  0.3338
  372ccc     H5 8241   7.433   5.011  11.341  0.3635  0.9825  0.1287
  372ccc     H6 8242   7.404   4.884  11.225 -0.8440  0.9098 -2.8274
  372ccc     N1 8243   7.706   5.184  11.162  0.2951  0.1739  0.0576
  372ccc     H7 8244   7.729   5.276  11.201 -1.2917 -0.3528  2.4283
  372ccc     H8 8245   7.774   5.159  11.088 -1.2308 -2.6131 -0.5479
  372ccc     O1 8246   7.423   5.070  11.142 -0.4384 -0.3384  0.6975
  372ccc    H17 8247   7.620   5.200  11.106  1.3494  0.3638 -1.5730
  373ccc     C1 8248   6.657   4.350  11.728  0.6245 -0.2559  0.2549
  373ccc     H1 8249   6.630   4.274  11.654  1.5664 -2.0500  1.6742
  373ccc     H2 8250   6.592   4.438  11.731  1.7089  0.5474  0.8380
  373ccc     C2 8251   6.806   4.391  11.708  0.2417 -0.0610 -0.0601
  373ccc     H3 8252   6.825   4.452  11.797  0.2561 -0.4253  0.1905
  373ccc     H4 8253   6.864   4.301  11.730 -0.0793  0.4055  3.2135
  373ccc     C3 8254   6.833   4.465  11.576  0.0331  0.3711  0.0372
  373ccc     H5 8255   6.939   4.496  11.576  0.1723 -0.0464  1.3067
  373ccc     H6 8256   6.771   4.555  11.574  1.2017  1.2131  0.3513
  373ccc     N1 8257   6.625   4.290  11.864 -0.4142 -0.2110 -0.4819
  373ccc     H7 8258   6.647   4.361  11.936 -2.0738  0.7188 -0.8600
  373ccc     H8 8259   6.525   4.269  11.878 -0.1916 -1.4644 -0.6510
  373ccc     O1 8260   6.799   4.382  11.460  0.5809  0.4578  0.1440
  373ccc    H17 8261   6.672   4.205  11.899  2.0331  2.0981  2.4818
  374ccc     C1 8262   6.896   3.627  11.592 -0.5110  0.4925  0.1637
  374ccc     H1 8263   6.919   3.733  11.577  1.2539  0.1532  0.3224
  374ccc     H2 8264   6.983   3.566  11.567 -0.3129  1.1817 -0.9207
  374ccc     C2 8265   6.778   3.584  11.501 -0.4931  0.2323 -0.1597
  374ccc     H3 8266   6.746   3.479  11.508 -0.6450  0.2468 -0.5853
  374ccc     H4 8267   6.694   3.652  11.517 -0.4575  0.3530 -0.4802
  374ccc     C3 8268   6.817   3.619  11.347 -0.3231  0.1637 -0.4250
  374ccc     H5 8269   6.741   3.563  11.292  0.1920 -0.6036 -0.3708
  374ccc     H6 8270   6.914   3.569  11.336 -1.0439 -1.7009  1.1214
  374ccc     N1 8271   6.873   3.598  11.738 -0.2374 -0.2452 -0.0640
  374ccc     H7 8272   6.951   3.645  11.786  0.9406 -2.3145  0.1671
  374ccc     H8 8273   6.789   3.647  11.772 -0.3341 -0.3685 -0.1201
  374ccc     O1 8274   6.808   3.755  11.317 -0.0692  0.4575  0.1453
  374ccc    H17 8275   6.865   3.498  11.765 -0.7826  0.2798  1.9264
  375ccc     C1 8276   4.773   4.769   9.489  0.3997  0.1689  0.5857
  375ccc     H1 8277   4.675   4.807   9.517  1.1041  1.6505  1.1322
  375ccc     H2 8278   4.775   4.661   9.505 -0.0561  0.1780  0.7426
  375ccc     C2 8279   4.870   4.833   9.585 -0.0305  0.2615  0.4668
  375ccc     H3 8280   4.968   4.854   9.540 -0.3717 -0.8762 -0.8616
  375ccc     H4 8281   4.833   4.933   9.615 -1.4530 -0.0820 -0.0560
  375ccc     C3 8282   4.891   4.738   9.713 -0.3582 -0.0318  0.2169
  375ccc     H5 8283   4.799   4.706   9.762  0.1739 -0.8781  0.6873
  375ccc     H6 8284   4.954   4.788   9.788  1.3319 -0.1063 -1.0690
  375ccc     N1 8285   4.794   4.807   9.346 -0.1599  0.0523  0.5795
  375ccc     H7 8286   4.763   4.904   9.330 -2.3164 -0.4137  1.5520
  375ccc     H8 8287   4.893   4.791   9.324 -0.9836 -4.8409 -0.6628
  375ccc     O1 8288   4.959   4.615   9.674 -0.0222 -0.0949 -0.1831
  375ccc    H17 8289   4.746   4.738   9.287 -0.0410  0.2919  0.1972
  376ccc     C1 8290   4.966   3.490   9.684 -0.0496  0.4107 -0.5706
  376ccc     H1 8291   4.884   3.560   9.667 -1.0399 -0.9910 -1.7482
  376ccc     H2 8292   4.940   3.401   9.741  0.0831  1.3962  1.0835
  376ccc     C2 8293   5.074   3.576   9.756 -0.0556  0.5133 -0.1223
  376ccc     H3 8294   5.022   3.615   9.845  1.3191 -1.0425  1.4492
  376ccc     H4 8295   5.156   3.517   9.799 -0.2520  0.8340  0.7137
  376ccc     C3 8296   5.116   3.697   9.672  0.3222  0.1981 -0.3617
  376ccc     H5 8297   5.035   3.745   9.615  0.2438 -1.5024 -1.7866
  376ccc     H6 8298   5.182   3.666   9.589 -1.2259 -2.0200 -0.8564
  376ccc     N1 8299   5.005   3.427   9.555  0.3164 -0.3557  0.4106
  376ccc     H7 8300   5.093   3.373   9.563  1.7850  1.9916  1.4298
  376ccc     H8 8301   4.934   3.362   9.519  1.2572  0.2977 -3.0606
  376ccc     O1 8302   5.185   3.791   9.755 -0.2458 -0.5866  0.2553
  376ccc    H17 8303   5.028   3.498   9.483  1.5122 -1.6019 -0.5005
  377ccc     C1 8304   4.627   3.887  10.165 -0.4210  0.2349  0.4850
  377ccc     H1 8305   4.729   3.855  10.147  0.5642  2.3849  1.8210
  377ccc     H2 8306   4.638   3.987  10.208 -1.4926  1.1711 -1.3005
  377ccc     C2 8307   4.559   3.784  10.255  0.4128 -0.2146  0.1660
  377ccc     H3 8308   4.457   3.823  10.267 -0.3053 -1.8757 -0.2173
  377ccc     H4 8309   4.543   3.684  10.214 -4.8133  0.5447 -0.3023
  377ccc     C3 8310   4.621   3.776  10.389 -0.2290  0.3738  0.0290
  377ccc     H5 8311   4.543   3.729  10.450  0.9864  0.8117  2.0270
  377ccc     H6 8312   4.637   3.876  10.433  0.3642  0.1830  0.2512
  377ccc     N1 8313   4.536   3.919  10.039 -0.3876  0.0142  0.3242
  377ccc     H7 8314   4.454   3.971  10.074 -0.5403  3.1303 -3.7910
  377ccc     H8 8315   4.577   4.003   9.995  0.3503  0.6114  2.0390
  377ccc     O1 8316   4.740   3.700  10.379  0.4076  0.5826 -0.5743
  377ccc    H17 8317   4.530   3.839   9.974 -0.7492  0.2798  0.0283
  378ccc     C1 8318   5.327   3.647  11.052  0.4978 -0.0729 -0.5108
  378ccc     H1 8319   5.291   3.550  11.015  0.9231 -0.1370 -0.7557
  378ccc     H2 8320   5.262   3.728  11.020 -0.0363  0.8347  2.5319
  378ccc     C2 8321   5.474   3.662  11.004  0.3030  0.0623 -0.0264
  378ccc     H3 8322   5.529   3.714  11.083 -1.3792  0.4608  0.9226
  378ccc     H4 8323   5.515   3.562  10.983 -1.2560 -0.3662 -1.2638
  378ccc     C3 8324   5.492   3.760  10.881  0.4994  0.3820 -0.2648
  378ccc     H5 8325   5.598   3.787  10.873  1.9022 -3.9850  0.9743
  378ccc     H6 8326   5.435   3.852  10.902 -0.3605  0.0031 -0.8575
  378ccc     N1 8327   5.318   3.651  11.202  0.4648 -0.0070  0.0530
  378ccc     H7 8328   5.352   3.742  11.237  0.1906  0.5587 -1.0847
  378ccc     H8 8329   5.217   3.640  11.219  0.1595  1.6828 -0.5254
  378ccc     O1 8330   5.444   3.697  10.766  0.9309  0.2096  0.4289
  378ccc    H17 8331   5.365   3.578  11.258 -0.7136  0.8968  2.3585
  379ccc     C1 8332   5.442   2.086  10.973  0.3484  0.1080  0.7262
  379ccc     H1 8333   5.398   2.181  11.006 -1.5121 -0.2360 -0.5913
  379ccc     H2 8334   5.503   2.104  10.885  1.4645 -0.1722  1.4236
  379ccc     C2 8335   5.337   1.981  10.935  0.0133  0.3846 -1.1715
  379ccc     H3 8336   5.384   1.885  10.910  0.0654  0.1347 -0.1804
  379ccc     H4 8337   5.273   1.966  11.023  1.0177  1.7567 -0.1646
  379ccc     C3 8338   5.252   2.023  10.812  0.7349 -0.1336 -0.1223
  379ccc     H5 8339   5.177   2.094  10.849  0.2429 -2.5099  4.0645
  379ccc     H6 8340   5.202   1.933  10.773  1.8143 -0.6311 -0.4074
  379ccc     N1 8341   5.525   2.044  11.085  0.2244  0.1880  0.2465
  379ccc     H7 8342   5.478   2.020  11.173  0.1210  1.5703  0.5921
  379ccc     H8 8343   5.566   1.954  11.056  1.9010  0.8926  0.2985
  379ccc     O1 8344   5.328   2.082  10.711 -0.1660 -0.4438  0.1349
  379ccc    H17 8345   5.595   2.116  11.107  0.7856 -0.5878  1.0512
  380ccc     C1 8346   6.036   1.998  10.632 -0.7805  0.5519  0.3811
  380ccc     H1 8347   5.931   1.977  10.655 -0.5701 -1.2340 -0.0777
  380ccc     H2 8348   6.038   2.106  10.626  0.3990  0.4520 -1.9823
  380ccc     C2 8349   6.087   1.934  10.499  0.3474  0.2614  0.9685
  380ccc     H3 8350   6.188   1.969  10.475  1.6362 -2.5221  1.9022
  380ccc     H4 8351   6.102   1.828  10.524 -1.6815 -0.0987  0.8497
  380ccc     C3 8352   5.979   1.937  10.387 -0.2792 -0.1086  0.0852
  380ccc     H5 8353   5.904   1.859  10.401 -0.2723 -0.1765 -0.2447
  380ccc     H6 8354   6.021   1.930  10.285  1.8686 -0.7394  0.9535
  380ccc     N1 8355   6.124   1.957  10.750  0.7875  0.2371  0.0759
  380ccc     H7 8356   6.087   1.996  10.838 -0.2517  1.3308 -0.8195
  380ccc     H8 8357   6.144   1.857  10.767 -1.6185 -0.2175  0.6135
  380ccc     O1 8358   5.914   2.066  10.395 -0.3108 -0.5771  0.5139
  380ccc    H17 8359   6.217   1.999  10.740  0.6984  0.7779  1.3808
  381ccc     C1 8360   6.634   2.362  11.284 -0.1235 -0.1375 -0.0075
  381ccc     H1 8361   6.660   2.459  11.326  0.9676 -0.7485  0.8071
  381ccc     H2 8362   6.688   2.278  11.328 -2.6217 -2.3651 -0.9505
  381ccc     C2 8363   6.651   2.378  11.137 -0.5293 -0.1865  0.1327
  381ccc     H3 8364   6.607   2.290  11.089 -0.1533 -0.1956 -0.1950
  381ccc     H4 8365   6.585   2.461  11.107 -0.4536 -0.5122 -0.9361
  381ccc     C3 8366   6.797   2.414  11.096  0.3542 -0.0395 -0.1289
  381ccc     H5 8367   6.859   2.325  11.112 -2.6800 -2.3584 -0.4458
  381ccc     H6 8368   6.855   2.493  11.145 -0.2467  0.9377 -0.9588
  381ccc     N1 8369   6.491   2.335  11.322 -0.1164 -0.4203 -0.1852
  381ccc     H7 8370   6.477   2.233  11.328  1.1705 -0.7083 -1.4601
  381ccc     H8 8371   6.474   2.357  11.421 -2.1191  0.2215 -0.6298
  381ccc     O1 8372   6.788   2.452  10.956 -0.6126 -0.1020  0.2423
  381ccc    H17 8373   6.429   2.390  11.261 -1.0124  0.8962  1.8052
  382ccc     C1 8374   7.557   2.593  10.726  0.1105 -1.0834 -0.1223
  382ccc     H1 8375   7.598   2.681  10.774 -0.5753 -0.7115 -0.2046
  382ccc     H2 8376   7.587   2.578  10.622 -1.0719 -1.8775 -0.3703
  382ccc     C2 8377   7.404   2.601  10.738  0.2362  0.1341 -0.9312
  382ccc     H3 8378   7.369   2.582  10.839 -0.1796  1.1071 -0.8768
  382ccc     H4 8379   7.379   2.705  10.714  1.4080  0.9080  0.9423
  382ccc     C3 8380   7.340   2.500  10.636 -0.4234  0.4287  0.7446
  382ccc     H5 8381   7.363   2.402  10.679  1.5231  0.4335 -0.1743
  382ccc     H6 8382   7.377   2.520  10.534 -0.3740 -0.2242  0.6300
  382ccc     N1 8383   7.608   2.483  10.807  0.0775  0.2228 -0.4151
  382ccc     H7 8384   7.710   2.479  10.818 -0.1883 -1.3842  2.6569
  382ccc     H8 8385   7.568   2.495  10.901 -1.5177  2.8590 -1.3189
  382ccc     O1 8386   7.200   2.530  10.639  0.3981 -0.5636 -0.0541
  382ccc    H17 8387   7.579   2.392  10.767 -2.7731  0.2965  1.2172
  383SOL     OW 8388   5.195  10.585   2.982 -0.5072 -0.4922  0.1863
  383SOL    HW1 8389   5.133  10.632   3.038 -1.2014  0.0593 -1.0325
  383SOL    HW2 8390   5.141  10.539   2.918  0.3389  1.7978 -2.3526
  384SOL     OW 8391  11.101   9.740   7.766 -0.4199  0.0175  0.7537
  384SOL    HW1 8392  11.020   9.777   7.801  0.4430  3.0027 -0.0745
  384SOL    HW2 8393  11.091   9.748   7.671  0.8636  0.6135  0.6449
  385SOL     OW 8394   4.377   5.326   1.040 -0.1961  0.2583 -0.7171
  385SOL    HW1 8395   4.454   5.304   1.093  1.0628 -1.1957 -2.9867
  385SOL    HW2 8396   4.304   5.288   1.088  0.7756 -0.2999  0.3789
  386SOL     OW 8397   1.288   9.799   9.031 -0.2184 -0.2330 -0.6257
  386SOL    HW1 8398   1.247   9.733   8.975  0.8225 -1.5481  0.1160
  386SOL    HW2 8399   1.380   9.773   9.036  0.2832  1.4525 -0.5433
  387SOL     OW 8400   1.914   6.409   9.792  0.1319  0.3572  0.1820
  387SOL    HW1 8401   1.819   6.418   9.787  0.2204  0.5966 -1.3595
  387SOL    HW2 8402   1.928   6.331   9.846 -0.9327  0.3813  0.5091
  388SOL     OW 8403   8.454   0.575  11.845  0.0696 -0.4279  0.1462
  388SOL    HW1 8404   8.368   0.600  11.812  0.5273  0.3201 -0.5119
  388SOL    HW2 8405   8.466   0.628  11.924 -1.2071 -2.5294  1.8417
  389SOL     OW 8406  11.457   1.072  10.365  0.0236 -0.4149  0.5976
  389SOL    HW1 8407  11.469   1.144  10.303 -0.6330 -0.3565  0.5236
  389SOL    HW2 8408  11.476   1.112  10.451 -1.6211  0.2410  0.7061
  390SOL     OW 8409   3.170   3.043   5.615  0.4938  0.5687 -0.1941
  390SOL    HW1 8410   3.140   3.024   5.704  1.0302 -0.6746 -0.2593
  390SOL    HW2 8411   3.129   3.127   5.594  0.0685  0.7114  1.0851
  391SOL     OW 8412   1.399   9.878  10.210 -0.5407  0.3699 -0.4227
  391SOL    HW1 8413   1.338   9.915  10.146 -1.9317 -0.0086  0.6539
  391SOL    HW2 8414   1.380   9.925  10.291 -0.6798 -1.0085  0.3753
  392SOL     OW 8415   1.767   1.473   3.597  0.0447  0.2591  0.4729
  392SOL    HW1 8416   1.838   1.418   3.565 -0.0045  0.4846 -0.0356
  392SOL    HW2 8417   1.691   1.415   3.601 -0.1939  0.4442 -0.7878
  393SOL     OW 8418   8.458   1.000   0.320 -0.4222  0.0452  0.4803
  393SOL    HW1 8419   8.374   0.962   0.294 -1.7102  1.9290  1.5829
  393SOL    HW2 8420   8.524   0.949   0.272 -2.2688 -0.3981 -1.7863
  394SOL     OW 8421   1.679   2.070   2.981 -0.6854 -0.0640 -0.4199
  394SOL    HW1 8422   1.717   2.070   2.893 -0.6934  3.2131 -0.5436
  394SOL    HW2 8423   1.755   2.068   3.040 -0.5389  0.9478 -0.5688
  395SOL     OW 8424  12.291   2.442   1.799  0.2223  0.4873  0.1071
  395SOL    HW1 8425  12.328   2.449   1.887  0.9118 -0.2702 -0.1114
  395SOL    HW2 8426  12.352   2.386   1.752  0.0176  1.1139 -0.9440
  396SOL     OW 8427  11.680   7.105   7.538  0.6200  0.3996  0.3154
  396SOL    HW1 8428  11.589   7.092   7.514  0.6959  1.3005 -0.5409
  396SOL    HW2 8429  11.682   7.094   7.633 -0.2468 -0.3274  0.2575
  397SOL     OW 8430   6.135  11.705  10.415 -0.1904  0.0881  0.2073
  397SOL    HW1 8431   6.110  11.744  10.500 -0.3410  0.2958  0.0700
  397SOL    HW2 8432   6.229  11.719  10.409  0.0710 -1.1543  0.9644
  398SOL     OW 8433   7.673   5.859   1.469 -0.0437 -0.0303  0.3192
  398SOL    HW1 8434   7.590   5.852   1.422  1.0744  1.2329 -2.0069
  398SOL    HW2 8435   7.680   5.777   1.517 -1.3748 -1.3257 -1.5563
  399SOL     OW 8436   6.133   3.315   5.566 -0.0182 -0.4429  0.2953
  399SOL    HW1 8437   6.132   3.411   5.569 -1.5621 -0.4221 -0.3784
  399SOL    HW2 8438   6.042   3.289   5.576 -0.0862 -1.7245 -2.5846
  400SOL     OW 8439   7.715   9.185  10.255  0.1349 -0.5038  0.6153
  400SOL    HW1 8440   7.663   9.105  10.260  1.2957 -1.2173  1.7019
  400SOL    HW2 8441   7.662   9.250  10.302 -0.5154 -0.7879  0.2842
  401SOL     OW 8442   1.055  12.202   7.659  0.5018  0.7589  0.0258
  401SOL    HW1 8443   1.035  12.276   7.717  0.5797  1.5941 -0.9713
  401SOL    HW2 8444   0.973  12.185   7.612  0.8452  1.1371 -0.7366
  402SOL     OW 8445   1.828  11.124   4.042 -0.3881  0.0604  0.3651
  402SOL    HW1 8446   1.894  11.105   4.109 -1.2447 -0.7577  1.0048
  402SOL    HW2 8447   1.874  11.177   3.977  0.9207 -0.5772  0.7446
  403SOL     OW 8448   1.825   8.924  10.238  0.0043 -0.1973 -0.3523
  403SOL    HW1 8449   1.762   8.903  10.306 -2.2959  1.0679 -1.9427
  403SOL    HW2 8450   1.806   8.862  10.168  2.0512 -1.2140 -0.0744
  404SOL     OW 8451   8.820   7.426   2.059  0.1709 -0.2991  0.2054
  404SOL    HW1 8452   8.762   7.463   2.125  0.5293  1.1658 -0.2569
  404SOL    HW2 8453   8.908   7.455   2.086  0.2725  0.7283 -1.1426
  405SOL     OW 8454   9.242   2.226  12.493 -0.2787 -0.5129 -0.0008
  405SOL    HW1 8455   9.261   2.176  12.415 -1.7802  1.0246 -1.4388
  405SOL    HW2 8456   9.211   2.162  12.557 -1.8486 -1.4652 -1.6618
  406SOL     OW 8457  11.229   9.754  11.496  0.0096 -0.0067  0.9894
  406SOL    HW1 8458  11.263   9.666  11.511  1.4477  0.7254  2.4433
  406SOL    HW2 8459  11.212   9.788  11.584 -0.5719  1.1354  0.4561
  407SOL     OW 8460   7.337   9.705   0.916 -0.5488  0.3803  0.1060
  407SOL    HW1 8461   7.420   9.695   0.964 -0.8863  0.4270  0.7080
  407SOL    HW2 8462   7.363   9.741   0.831 -0.1523  2.6957  1.1373
  408SOL     OW 8463  11.979   8.989   7.927  0.1242  0.0225 -0.1284
  408SOL    HW1 8464  12.022   8.984   7.841  2.2886  0.2748  0.8766
  408SOL    HW2 8465  11.887   9.001   7.906  0.6591  0.7111 -2.4316
  409SOL     OW 8466  12.054   2.105   4.066 -0.0459 -0.0560  0.4018
  409SOL    HW1 8467  12.019   2.146   3.987 -0.4580  1.2583  1.2339
  409SOL    HW2 8468  11.977   2.087   4.120  0.3087  0.1536  0.9965
  410SOL     OW 8469   2.048   9.054  10.336  0.0904  0.1960  0.2573
  410SOL    HW1 8470   1.965   9.022  10.300 -0.3974 -0.0480  1.5160
  410SOL    HW2 8471   2.094   9.092  10.262 -0.2320 -1.5455 -0.8883
  411SOL     OW 8472   5.336  12.554   8.768 -0.3216 -0.0555  0.1919
  411SOL    HW1 8473   5.412  12.523   8.817 -0.6090  0.1359  0.7693
  411SOL    HW2 8474   5.325  12.490   8.697  1.6818  1.0919 -1.2368
  412SOL     OW 8475   2.715  12.150   6.791  0.1496  0.8235 -0.1918
  412SOL    HW1 8476   2.746  12.062   6.811 -0.5548  0.7155  0.4454
  412SOL    HW2 8477   2.625  12.152   6.823  0.4102  2.0188  0.5380
  413SOL     OW 8478   7.481  10.519   4.122 -0.2147 -0.2164  0.0201
  413SOL    HW1 8479   7.391  10.489   4.139 -0.9676  1.8687  0.0250
  413SOL    HW2 8480   7.533  10.478   4.191 -1.2300 -1.1456  0.2582
  414SOL     OW 8481   3.311  10.017   4.217 -0.0159 -0.1273 -0.0359
  414SOL    HW1 8482   3.290   9.989   4.306 -1.5359  0.7383 -0.0876
  414SOL    HW2 8483   3.359   9.943   4.179  0.0648 -0.7704  1.2724
  415SOL     OW 8484   3.825   4.092   6.847  0.2546 -0.2533 -0.0430
  415SOL    HW1 8485   3.890   4.156   6.875  0.8289 -0.5891 -0.5852
  415SOL    HW2 8486   3.852   4.067   6.758  0.3142 -1.5702  0.3139
  416SOL     OW 8487   0.325   8.831   3.848 -0.3372  0.4867 -0.4975
  416SOL    HW1 8488   0.274   8.750   3.854  1.4198 -0.8874 -2.4689
  416SOL    HW2 8489   0.390   8.823   3.918 -0.7424  0.6518 -0.0976
  417SOL     OW 8490   0.788   2.795   9.381 -0.3012  0.5882  0.1230
  417SOL    HW1 8491   0.820   2.726   9.440 -1.1616 -0.0806 -0.1706
  417SOL    HW2 8492   0.732   2.849   9.436 -0.2840  0.5713  0.1578
  418SOL     OW 8493   8.701   1.345   9.297 -0.2179 -0.7366 -0.3134
  418SOL    HW1 8494   8.678   1.398   9.221 -1.4320  0.4753  0.8361
  418SOL    HW2 8495   8.752   1.403   9.353 -0.2603 -1.2626  0.2873
  419SOL     OW 8496   6.258   0.703   8.054 -0.1300 -0.0170  0.0503
  419SOL    HW1 8497   6.216   0.655   7.983 -0.0992 -0.2149  0.1662
  419SOL    HW2 8498   6.265   0.640   8.125  2.1603 -0.6085 -0.6176
  420SOL     OW 8499  11.397   3.859   1.235  0.3814 -0.1975 -0.0419
  420SOL    HW1 8500  11.453   3.822   1.167 -1.4297 -2.1971 -0.5509
  420SOL    HW2 8501  11.308   3.835   1.209 -0.6053  1.3007  1.6585
  421SOL     OW 8502  10.417   3.948   9.465 -0.4987 -0.3852 -0.9458
  421SOL    HW1 8503  10.437   4.006   9.538  0.3625  0.2445 -1.6589
  421SOL    HW2 8504  10.374   3.872   9.505  1.4637 -0.8351  0.4100
  422SOL     OW 8505   2.595   9.595   6.733  0.0905  0.0130 -0.5630
  422SOL    HW1 8506   2.565   9.601   6.824  1.5020  0.1454 -0.0780
  422SOL    HW2 8507   2.688   9.573   6.740  0.2672  0.2154 -1.9782
  423SOL     OW 8508   3.570   6.827   3.507  0.0496  0.2317 -0.1299
  423SOL    HW1 8509   3.635   6.758   3.524 -1.5346 -1.1006  0.7958
  423SOL    HW2 8510   3.492   6.799   3.555 -0.9605  2.2097 -0.5212
  424SOL     OW 8511   5.782   4.943   9.238  0.0760 -0.0918 -0.8416
  424SOL    HW1 8512   5.811   5.020   9.287  1.2282 -0.9593 -0.1313
  424SOL    HW2 8513   5.798   4.966   9.146 -1.6019  1.3351 -0.8382
  425SOL     OW 8514   8.829   3.333   0.471  0.0649 -0.1504  0.0157
  425SOL    HW1 8515   8.919   3.307   0.453 -0.3368 -0.0239 -2.6666
  425SOL    HW2 8516   8.783   3.252   0.490  0.3216 -0.5391 -0.9430
  426SOL     OW 8517   0.506   1.104   5.179 -0.6293  0.5501 -0.1917
  426SOL    HW1 8518   0.528   1.167   5.110 -2.0005  0.3424 -0.8527
  426SOL    HW2 8519   0.472   1.157   5.250 -2.1970  0.5538 -0.9163
  427SOL     OW 8520  12.169   5.342   2.192 -0.0079 -0.6396  0.1547
  427SOL    HW1 8521  12.103   5.290   2.237  0.0506 -1.2555 -0.4468
  427SOL    HW2 8522  12.163   5.429   2.231  1.2825 -1.5795  2.6428
  428SOL     OW 8523   3.439  11.727   5.909  0.4338  0.4310  0.2249
  428SOL    HW1 8524   3.459  11.794   5.975  0.0063  0.1908  0.6014
  428SOL    HW2 8525   3.357  11.688   5.938  0.7008 -0.2933  0.0274
  429SOL     OW 8526   8.814   7.044   2.338  0.1435 -0.2196  0.3109
  429SOL    HW1 8527   8.775   6.988   2.271 -0.7028 -0.2669  0.8292
  429SOL    HW2 8528   8.903   7.061   2.307  0.2855 -1.5336 -0.0360
  430SOL     OW 8529   3.846  10.822  10.044 -0.2984  0.1861  0.2152
  430SOL    HW1 8530   3.926  10.770  10.050 -0.8977 -0.5793  2.3544
  430SOL    HW2 8531   3.877  10.910  10.022  0.9861 -0.3705 -0.3717
  431SOL     OW 8532   2.159   9.515   3.555  0.4448 -0.0017 -0.1435
  431SOL    HW1 8533   2.184   9.434   3.601  1.7235 -0.2571 -1.1977
  431SOL    HW2 8534   2.138   9.486   3.466  1.5238  0.8727 -0.7139
  432SOL     OW 8535  10.030   9.755   5.114 -0.2799 -0.2662 -0.0511
  432SOL    HW1 8536  10.027   9.686   5.048 -0.5825  0.0023 -0.3215
  432SOL    HW2 8537   9.939   9.762   5.145 -0.3618  0.3760 -0.4103
  433SOL     OW 8538  10.979   4.969   0.226 -0.3752 -0.2450 -0.3053
  433SOL    HW1 8539  11.009   5.009   0.144  0.7579 -2.5545 -1.0909
  433SOL    HW2 8540  10.884   4.967   0.218 -0.2949 -0.1768 -1.4254
  434SOL     OW 8541   9.038   2.605   4.334  0.5341  0.0165  0.4386
  434SOL    HW1 8542   9.111   2.662   4.308  0.3801  1.2003  2.3833
  434SOL    HW2 8543   9.010   2.639   4.419 -2.4247 -0.2838 -0.2924
  435SOL     OW 8544  11.022  12.588   7.585  0.0402 -0.2231  0.5073
  435SOL    HW1 8545  10.988  12.499   7.601  1.5312 -1.0285 -0.5789
  435SOL    HW2 8546  10.982  12.641   7.653  0.0039 -1.9582  1.9185
  436SOL     OW 8547   8.417   1.009   2.123  0.7466  0.0872  0.5052
  436SOL    HW1 8548   8.501   1.054   2.133  0.8698  0.1201 -0.4954
  436SOL    HW2 8549   8.352   1.080   2.124  0.8937  0.2557 -0.5112
  437SOL     OW 8550   8.849   3.326  11.894 -0.0833 -0.0082  0.1706
  437SOL    HW1 8551   8.877   3.418  11.901  0.1984 -0.0848  0.0555
  437SOL    HW2 8552   8.772   3.329  11.837 -0.7381  0.2875  1.0401
  438SOL     OW 8553   6.331   9.733   3.746 -0.2825 -0.0313  0.7222
  438SOL    HW1 8554   6.394   9.661   3.738  0.8366  0.7428  1.9971
  438SOL    HW2 8555   6.335   9.778   3.662  1.8638  0.7381  1.1634
  439SOL     OW 8556   2.414   9.558   2.457 -0.1401  0.4609 -0.2037
  439SOL    HW1 8557   2.439   9.482   2.406 -1.2982  1.6443 -2.7039
  439SOL    HW2 8558   2.340   9.596   2.410 -2.5720  0.6658  3.3713
  440SOL     OW 8559  10.050   5.823   8.909 -0.1439  0.1441 -0.0846
  440SOL    HW1 8560  10.041   5.917   8.922  0.7763  0.0863  1.2443
  440SOL    HW2 8561  10.127   5.813   8.854  0.5728  0.1525  0.8812
  441SOL     OW 8562   8.030   2.440   5.070  0.4578  0.1247 -0.5581
  441SOL    HW1 8563   8.048   2.459   5.162  0.6356 -0.0729 -0.5493
  441SOL    HW2 8564   8.093   2.494   5.021  1.6440 -1.1432 -0.5056
  442SOL     OW 8565   4.396   1.809   0.600 -0.4583  0.2731  0.0525
  442SOL    HW1 8566   4.345   1.748   0.546  0.5173 -0.8060  0.3158
  442SOL    HW2 8567   4.425   1.756   0.674 -0.2786  1.2854  0.7190
  443SOL     OW 8568  11.496  10.598   6.672 -0.4518  0.0186 -0.6859
  443SOL    HW1 8569  11.586  10.598   6.640 -0.4060 -0.0543 -0.5588
  443SOL    HW2 8570  11.476  10.505   6.686 -0.3517  0.0711 -0.1743
  444SOL     OW 8571   6.705   6.506   8.872  0.3098  0.3276 -0.7588
  444SOL    HW1 8572   6.703   6.493   8.967 -4.2160  0.5892 -0.6000
  444SOL    HW2 8573   6.738   6.423   8.837 -0.5992 -0.8525  1.0205
  445SOL     OW 8574   9.231   1.460   3.528 -0.1407  0.5877 -0.0249
  445SOL    HW1 8575   9.246   1.491   3.438 -0.9603  1.4632  0.1188
  445SOL    HW2 8576   9.149   1.502   3.554 -1.7900 -2.3348 -0.0517
  446SOL     OW 8577   2.220   6.043   0.568  0.6272  0.0038  0.3396
  446SOL    HW1 8578   2.271   6.124   0.564 -0.0448  0.4181 -0.0037
  446SOL    HW2 8579   2.170   6.050   0.649  2.5872 -1.3224  1.7552
  447SOL     OW 8580  10.388  12.491  11.768 -0.0506 -0.3122 -0.0629
  447SOL    HW1 8581  10.306  12.533  11.740 -0.0955  0.1009  0.6687
  447SOL    HW2 8582  10.450  12.510  11.698 -0.7298 -1.1619 -0.9355
  448SOL     OW 8583   3.956   6.768   6.089  0.0463 -0.2902 -0.2182
  448SOL    HW1 8584   3.993   6.713   6.158 -0.2231  0.2334  0.3600
  448SOL    HW2 8585   4.001   6.852   6.100 -0.5452  0.0247 -0.1956
  449SOL     OW 8586   8.597   9.678  11.756 -0.8903  0.0827  0.0871
  449SOL    HW1 8587   8.571   9.586  11.755  0.3756 -0.2971 -0.4149
  449SOL    HW2 8588   8.571   9.711  11.670 -0.2525 -0.1577 -0.2116
  450SOL     OW 8589   8.093   4.148   2.488 -0.3420  0.1989 -0.0988
  450SOL    HW1 8590   8.027   4.086   2.519 -0.7690  0.7692  0.1433
  450SOL    HW2 8591   8.065   4.232   2.522 -0.9738  0.9055 -2.1656
  451SOL     OW 8592   1.446   3.265   4.662 -0.2224  0.4088 -0.5893
  451SOL    HW1 8593   1.489   3.253   4.746 -0.0163  1.2370 -0.5645
  451SOL    HW2 8594   1.504   3.324   4.613 -0.6624  0.4651 -1.0583
  452SOL     OW 8595   9.830   7.267  10.409 -0.0466 -0.2055 -0.0256
  452SOL    HW1 8596   9.747   7.226  10.385 -0.1447  0.2080 -0.3994
  452SOL    HW2 8597   9.894   7.196  10.404 -0.3392 -0.4711  0.0236
  453SOL     OW 8598   4.898   1.485   5.808 -0.5192  0.6256 -0.0096
  453SOL    HW1 8599   4.893   1.481   5.713  0.0023 -2.1782 -0.0179
  453SOL    HW2 8600   4.983   1.525   5.826 -0.3467  0.5965 -0.7316
  454SOL     OW 8601   2.513  12.026   6.506  0.5615  0.1653  0.4216
  454SOL    HW1 8602   2.484  11.976   6.582 -2.2393 -0.3242 -0.8365
  454SOL    HW2 8603   2.482  11.975   6.431 -0.2764  2.5540 -0.9641
  455SOL     OW 8604   2.017   8.857   2.321 -0.7620 -0.4361 -0.0817
  455SOL    HW1 8605   2.043   8.888   2.408 -1.5572  0.7555 -0.2339
  455SOL    HW2 8606   1.924   8.837   2.330 -1.0882  0.6289 -0.8823
  456SOL     OW 8607   5.969   1.016   8.827  0.1656  0.1462  0.6386
  456SOL    HW1 8608   6.008   0.994   8.742  0.0097  1.0949  0.3073
  456SOL    HW2 8609   6.032   0.982   8.891  0.7848  0.3063  0.1340
  457SOL     OW 8610   7.650  10.808   3.813  0.0169  0.1693  0.7757
  457SOL    HW1 8611   7.602  10.831   3.892 -1.6915 -0.5842  0.0087
  457SOL    HW2 8612   7.667  10.714   3.822 -2.1494 -0.4443 -0.6637
  458SOL     OW 8613   9.134   3.299   3.516 -0.5512 -0.1748 -0.2287
  458SOL    HW1 8614   9.041   3.296   3.494 -0.3005 -0.1346 -1.3468
  458SOL    HW2 8615   9.178   3.260   3.440  0.4499  1.1861 -0.3815
  459SOL     OW 8616   9.099   3.785   6.777 -0.2388  0.3016  0.1550
  459SOL    HW1 8617   9.181   3.777   6.826 -2.3141 -1.3353  3.7496
  459SOL    HW2 8618   9.059   3.699   6.782 -3.2329  1.6038  0.6247
  460SOL     OW 8619   8.913   5.947   3.672  0.1224 -0.2719 -0.6550
  460SOL    HW1 8620   8.956   5.879   3.724  0.3831 -0.3132 -0.9276
  460SOL    HW2 8621   8.941   5.931   3.582 -0.7592 -0.5305 -0.8927
  461SOL     OW 8622   2.399   3.563   1.536 -0.3973  0.1607  0.3302
  461SOL    HW1 8623   2.439   3.557   1.449  0.1159  1.6194  0.4350
  461SOL    HW2 8624   2.311   3.595   1.520 -0.2640  0.5442  0.3344
  462SOL     OW 8625   6.653   4.696   9.136  0.0019  0.4759  0.3577
  462SOL    HW1 8626   6.622   4.747   9.211  0.5590  1.5734 -0.1304
  462SOL    HW2 8627   6.728   4.745   9.103  0.3408 -0.4844 -0.3628
  463SOL     OW 8628   5.982   9.736   4.050  0.3885 -0.5897  0.3837
  463SOL    HW1 8629   5.935   9.653   4.051  1.3402 -1.1687 -0.5424
  463SOL    HW2 8630   6.074   9.712   4.064  0.6369  0.3319  0.3996
  464SOL     OW 8631  10.520   8.644   4.572  0.1894 -0.1989  0.2822
  464SOL    HW1 8632  10.439   8.651   4.521  0.3784 -0.8773 -0.1203
  464SOL    HW2 8633  10.503   8.696   4.651 -0.5749 -0.2027  0.1265
  465SOL     OW 8634   6.953   4.995   2.657  0.5739 -0.1666 -0.3705
  465SOL    HW1 8635   6.917   5.079   2.685  1.3220  0.1157 -0.2252
  465SOL    HW2 8636   6.890   4.961   2.594  0.0248  0.2745 -0.0668
  466SOL     OW 8637  12.553   6.953  10.690  0.3257  0.1512 -0.1028
  466SOL    HW1 8638  12.558   7.038  10.735  1.3104  0.2197 -0.3344
  466SOL    HW2 8639  12.537   6.890  10.760  0.3348  0.4341  0.1565
  467SOL     OW 8640   0.027   2.631   9.024  0.1137 -0.2921 -0.3145
  467SOL    HW1 8641   0.063   2.665   9.106 -1.3911  1.1504 -0.1924
  467SOL    HW2 8642   0.102   2.592   8.980  1.5328  1.2622  0.5709
  468SOL     OW 8643   5.134   1.205   1.027  0.2697 -0.0183  0.3752
  468SOL    HW1 8644   5.125   1.290   1.070 -2.1531 -0.3008  0.5878
  468SOL    HW2 8645   5.221   1.207   0.988 -0.1227  3.0760 -0.6576
  469SOL     OW 8646   6.799  10.974  11.625 -0.1006  0.2334  0.4421
  469SOL    HW1 8647   6.718  11.021  11.606  0.3245  0.6833 -0.3010
  469SOL    HW2 8648   6.828  11.009  11.710 -0.4174  0.4241  0.4723
  470SOL     OW 8649   8.601   2.115   0.609  0.1674  0.4443  0.5839
  470SOL    HW1 8650   8.681   2.075   0.573 -0.5836  0.2261 -0.9098
  470SOL    HW2 8651   8.578   2.060   0.684 -0.8278 -2.0357 -1.3998
  471SOL     OW 8652  10.898   7.889   1.159  0.7894  0.3436 -0.2075
  471SOL    HW1 8653  10.838   7.830   1.204 -1.3538  1.4679 -1.4194
  471SOL    HW2 8654  10.888   7.869   1.066  0.7374  1.9227 -0.5749
  472SOL     OW 8655   8.204   3.094   7.331  0.0444 -0.0682  0.0394
  472SOL    HW1 8656   8.214   3.014   7.384  0.3732  0.4223  0.7370
  472SOL    HW2 8657   8.149   3.067   7.257  2.0037 -1.5047 -0.9750
  473SOL     OW 8658   0.978  12.357   4.414  0.3970 -0.2239  0.3447
  473SOL    HW1 8659   0.986  12.353   4.319 -0.7244  0.1483  0.2149
  473SOL    HW2 8660   0.909  12.294   4.435 -0.8786  1.2007  0.6601
  474SOL     OW 8661   8.329   6.844   7.114  0.0539  0.1020  0.0062
  474SOL    HW1 8662   8.348   6.818   7.024  1.0190  1.1454 -0.1116
  474SOL    HW2 8663   8.404   6.813   7.165  0.3548  1.0319  0.1525
  475SOL     OW 8664   5.107   3.460   6.140 -0.4067  0.1914  0.0111
  475SOL    HW1 8665   5.034   3.420   6.187 -0.5400  0.6724  0.2272
  475SOL    HW2 8666   5.073   3.478   6.052 -1.0581  1.7968  0.5539
  476SOL     OW 8667   3.500   7.974  12.463 -0.0331 -0.4070  0.4575
  476SOL    HW1 8668   3.501   7.991  12.558 -2.1004 -0.6230  0.5575
  476SOL    HW2 8669   3.574   7.915  12.449 -0.4668 -1.4201  2.1566
  477SOL     OW 8670   1.356   3.408   6.643 -0.3773  0.0522  0.1457
  477SOL    HW1 8671   1.408   3.339   6.601 -0.0829 -2.0403  3.6150
  477SOL    HW2 8672   1.266   3.379   6.631 -0.2939 -0.5539  0.9321
  478SOL     OW 8673   3.021   3.254   6.396 -0.0603  0.1088  0.2951
  478SOL    HW1 8674   3.103   3.222   6.357 -0.5767 -1.0452  0.1275
  478SOL    HW2 8675   2.997   3.329   6.342  0.8316  0.3998  0.2844
  479SOL     OW 8676   6.421  12.361   5.764 -0.1474 -0.7687  0.0742
  479SOL    HW1 8677   6.389  12.412   5.839 -0.4560  0.5438 -0.9005
  479SOL    HW2 8678   6.361  12.384   5.693  2.4995  1.3263 -1.6996
  480SOL     OW 8679   6.882  12.063   9.265 -0.2980 -0.1445 -0.2445
  480SOL    HW1 8680   6.932  12.069   9.347 -0.1288 -2.5989 -0.1136
  480SOL    HW2 8681   6.793  12.043   9.292 -0.9285  1.9677 -0.5879
  481SOL     OW 8682  10.811  12.145  11.864 -0.5265 -0.1437  0.1644
  481SOL    HW1 8683  10.823  12.231  11.825  1.5032  0.1063  1.2091
  481SOL    HW2 8684  10.889  12.096  11.839 -0.0658 -0.5830  2.2556
  482SOL     OW 8685   6.380   5.135   6.549 -0.1656 -0.1014  0.0177
  482SOL    HW1 8686   6.350   5.050   6.582  0.5650 -0.6115 -0.5900
  482SOL    HW2 8687   6.323   5.199   6.591  0.1809 -0.7841  1.5920
  483SOL     OW 8688   4.589   4.400   1.282 -0.7843 -0.8321 -0.0563
  483SOL    HW1 8689   4.519   4.442   1.333  0.4744  0.7137  0.4644
  483SOL    HW2 8690   4.569   4.422   1.191 -2.2989 -2.4816 -0.1921
  484SOL     OW 8691   8.794   5.859   4.488  0.0838  0.2658 -0.5660
  484SOL    HW1 8692   8.791   5.931   4.550  1.4381 -0.8912  0.9251
  484SOL    HW2 8693   8.829   5.898   4.408  1.4627  1.1540  0.4186
  485SOL     OW 8694   8.012   7.429   9.858 -0.1498  0.1864 -0.2129
  485SOL    HW1 8695   8.084   7.439   9.797 -0.8931 -0.6516 -1.2504
  485SOL    HW2 8696   8.048   7.377   9.930  0.2819 -0.1991 -0.7084
  486SOL     OW 8697   9.661   7.005   2.553 -0.4184  0.0028 -0.6638
  486SOL    HW1 8698   9.697   6.944   2.618  0.7749  0.8531 -0.4879
  486SOL    HW2 8699   9.604   6.951   2.499 -1.5027 -0.7287  1.1128
  487SOL     OW 8700  12.296   8.226   1.303  0.6684  0.2598 -0.3956
  487SOL    HW1 8701  12.312   8.305   1.355 -0.8338  0.2081  0.2000
  487SOL    HW2 8702  12.201   8.217   1.302  0.7523 -0.7841 -1.6224
  488SOL     OW 8703  11.931   5.158   8.743 -0.0208  0.1528  0.4175
  488SOL    HW1 8704  11.907   5.123   8.657 -0.5911 -2.9449  1.7004
  488SOL    HW2 8705  11.854   5.144   8.797  1.4060 -1.1734  2.2442
  489SOL     OW 8706   7.804   2.571  12.210  0.3885  0.4416  0.3439
  489SOL    HW1 8707   7.754   2.633  12.156 -1.8728 -0.3218  1.4071
  489SOL    HW2 8708   7.807   2.612  12.297 -2.3715 -1.3637  1.4473
  490SOL     OW 8709   8.032   5.952   8.068 -0.5594  0.2461  0.2297
  490SOL    HW1 8710   7.969   5.880   8.070 -0.8115  0.3609 -1.6247
  490SOL    HW2 8711   8.056   5.960   7.975 -0.1682  2.2200  0.4635
  491SOL     OW 8712  10.663   5.330   9.775 -0.1760  0.1193 -0.1328
  491SOL    HW1 8713  10.700   5.256   9.728 -0.5210  1.2908 -2.3543
  491SOL    HW2 8714  10.737   5.370   9.819  0.4951  0.0768 -1.2048
  492SOL     OW 8715   4.386   9.331   3.368  0.2340  0.4775  0.1585
  492SOL    HW1 8716   4.356   9.420   3.350 -1.2912 -0.3439 -1.7169
  492SOL    HW2 8717   4.318   9.294   3.425  0.7413  0.4264  0.7390
  493SOL     OW 8718  12.473   0.628  11.030  0.0191  0.0485 -0.3980
  493SOL    HW1 8719  12.450   0.535  11.036 -1.9132  0.3577 -2.0627
  493SOL    HW2 8720  12.554   0.629  10.978 -0.3444 -0.6763 -0.9958
  494SOL     OW 8721   7.601   2.843   1.264 -0.1977 -0.1097  0.4537
  494SOL    HW1 8722   7.553   2.808   1.189 -0.6453  0.4971  0.4525
  494SOL    HW2 8723   7.589   2.938   1.258  0.5926  0.0182  0.7313
  495SOL     OW 8724  10.061  10.730   6.300  0.5178  0.2551  0.2101
  495SOL    HW1 8725  10.063  10.764   6.211  1.9305  0.4707  0.2928
  495SOL    HW2 8726  10.083  10.806   6.355  1.2360 -0.2168  0.5956
  496SOL     OW 8727   6.911   1.248  10.873 -0.4460  0.1454  0.0911
  496SOL    HW1 8728   6.928   1.160  10.839  0.8713  0.8028 -1.0966
  496SOL    HW2 8729   6.817   1.261  10.863 -0.9188 -1.6558  1.6957
  497SOL     OW 8730   8.343   4.190   3.919 -0.1168  0.5464  0.0670
  497SOL    HW1 8731   8.262   4.240   3.907 -0.4714  0.0992  0.5828
  497SOL    HW2 8732   8.396   4.245   3.976  0.3709  1.3046 -1.0649
  498SOL     OW 8733  11.608   2.655   4.290 -0.4309 -0.0797  0.0458
  498SOL    HW1 8734  11.695   2.632   4.257 -0.0469  1.9047 -0.4259
  498SOL    HW2 8735  11.549   2.596   4.244  0.4817 -0.0529 -1.2106
  499SOL     OW 8736   3.539   8.192   6.611  0.4180  0.3785 -0.3749
  499SOL    HW1 8737   3.499   8.155   6.532  1.2457  0.2494 -0.7396
  499SOL    HW2 8738   3.477   8.171   6.681 -0.1742  0.2230 -0.9325
  500SOL     OW 8739   9.401  11.911   3.436 -0.3186 -0.2189  0.3843
  500SOL    HW1 8740   9.452  11.840   3.398  0.6530  0.7775 -0.2164
  500SOL    HW2 8741   9.444  11.929   3.520  0.1876  0.4684 -0.0180
  501SOL     OW 8742   7.038   0.195  11.468 -0.1605  0.0898  0.1854
  501SOL    HW1 8743   7.104   0.223  11.531 -0.0040  0.1822 -0.0207
  501SOL    HW2 8744   7.069   0.227  11.384  2.0705 -3.9837 -0.7634
  502SOL     OW 8745   7.647   8.520   1.882 -0.2317 -0.0457 -0.6497
  502SOL    HW1 8746   7.672   8.446   1.937  2.2516  0.4741 -0.9659
  502SOL    HW2 8747   7.553   8.507   1.866 -0.4136 -1.7284  1.3385
  503SOL     OW 8748   4.218  10.172   3.794  0.8108  0.0992 -0.2215
  503SOL    HW1 8749   4.251  10.101   3.740  1.8380  0.8649 -0.6394
  503SOL    HW2 8750   4.277  10.174   3.870  0.2560 -0.0551  0.2166
  504SOL     OW 8751   3.732   5.683   8.791 -0.1495 -0.5204 -0.0332
  504SOL    HW1 8752   3.802   5.728   8.836  0.1533 -0.9374 -0.0816
  504SOL    HW2 8753   3.653   5.734   8.810 -0.0258 -0.6922  0.9606
  505SOL     OW 8754   8.563   8.296   9.465  0.2732  0.1062  0.5169
  505SOL    HW1 8755   8.566   8.384   9.428 -1.5531 -0.2905 -0.6743
  505SOL    HW2 8756   8.628   8.247   9.415 -0.7865  0.0653 -0.8378
  506SOL     OW 8757   5.829  10.160  12.704  0.2116  0.5842 -0.3726
  506SOL    HW1 8758   5.793  10.229  12.648 -0.1991 -0.2853 -1.1969
  506SOL    HW2 8759   5.881  10.106  12.645 -1.2053 -1.0570 -0.1981
  507SOL     OW 8760   4.706  10.827   2.852  0.1369  0.3338 -0.6353
  507SOL    HW1 8761   4.704  10.896   2.785  0.5253 -0.4892 -1.5227
  507SOL    HW2 8762   4.648  10.759   2.818 -0.2372  0.2135  0.2315
  508SOL     OW 8763   0.341  11.593   3.423 -0.3297 -0.6628  0.0392
  508SOL    HW1 8764   0.416  11.536   3.405  0.3975  0.9068 -2.4107
  508SOL    HW2 8765   0.265  11.542   3.398  0.2617 -0.8576 -1.4636
  509SOL     OW 8766   0.635   6.915   3.341 -0.4288 -0.4927  0.2910
  509SOL    HW1 8767   0.729   6.895   3.345 -0.4939 -0.6391  2.0060
  509SOL    HW2 8768   0.630   7.010   3.354 -0.4189 -0.0249 -2.5127
  510SOL     OW 8769   4.764   2.645  10.667 -1.0876  0.1159  0.3167
  510SOL    HW1 8770   4.856   2.621  10.652 -1.3538  0.0920 -1.4843
  510SOL    HW2 8771   4.750   2.724  10.614 -2.1220  0.0797  0.5084
  511SOL     OW 8772   2.842   9.308   8.576 -0.2516  0.3190 -0.3035
  511SOL    HW1 8773   2.863   9.227   8.529  1.4743 -0.0242  0.9391
  511SOL    HW2 8774   2.773   9.283   8.638  0.2603 -0.2234  0.0650
  512SOL     OW 8775   0.096   0.599   7.016 -0.2075 -0.4080  0.3377
  512SOL    HW1 8776   0.121   0.519   7.061 -1.0863 -0.8848  0.0015
  512SOL    HW2 8777   0.007   0.583   6.987 -0.3493  0.6479  0.1540
  513SOL     OW 8778   2.162   4.496   4.001 -0.0493  0.3188  0.2446
  513SOL    HW1 8779   2.097   4.521   3.935  0.4847 -1.6798 -1.1368
  513SOL    HW2 8780   2.230   4.564   3.994 -0.0225  0.1709 -1.2675
  514SOL     OW 8781   8.259   0.974  10.722  0.4991  0.3415 -0.0042
  514SOL    HW1 8782   8.299   1.028  10.790  2.0210  1.3957 -1.6392
  514SOL    HW2 8783   8.328   0.965  10.655 -0.6266 -1.3883 -1.0181
  515SOL     OW 8784   0.567   3.158   7.902 -0.0040 -0.1999 -0.1005
  515SOL    HW1 8785   0.609   3.076   7.926 -0.4810 -1.1478 -2.3200
  515SOL    HW2 8786   0.631   3.204   7.849  0.6204  1.3678  1.8719
  516SOL     OW 8787  10.463   2.224   2.686 -0.3050 -0.7991  0.1182
  516SOL    HW1 8788  10.534   2.202   2.746  0.5428  0.7600 -0.2515
  516SOL    HW2 8789  10.389   2.246   2.743  0.3321  0.1666  0.5976
  517SOL     OW 8790   0.222   1.431   4.777 -0.3693 -0.0476  0.0270
  517SOL    HW1 8791   0.264   1.456   4.695  0.8285  0.5920  0.7949
  517SOL    HW2 8792   0.206   1.337   4.768  0.9329 -0.2433 -0.4388
  518SOL     OW 8793   7.445   0.703   6.334  0.0931  0.1192  0.2339
  518SOL    HW1 8794   7.494   0.672   6.258 -0.0377 -0.8416  0.5286
  518SOL    HW2 8795   7.363   0.653   6.333 -1.2528  2.2001 -0.6585
  519SOL     OW 8796   8.333   7.656   5.923 -0.1412 -0.2901 -0.8439
  519SOL    HW1 8797   8.301   7.632   6.010 -0.1012 -1.4894 -1.1406
  519SOL    HW2 8798   8.256   7.650   5.867 -0.0581 -0.0492 -0.9811
  520SOL     OW 8799   4.406   7.686  10.486 -0.3111 -0.2874  0.1614
  520SOL    HW1 8800   4.355   7.689  10.567  0.7449  1.6971  0.8333
  520SOL    HW2 8801   4.352   7.635  10.426 -1.0169 -2.0745  2.1554
  521SOL     OW 8802   9.234   0.509   2.683 -0.4474  0.0454 -0.5815
  521SOL    HW1 8803   9.193   0.573   2.741  1.2210  0.2780  0.4347
  521SOL    HW2 8804   9.326   0.537   2.678  0.0209 -1.4906 -1.2279
  522SOL     OW 8805   5.810   7.233   0.625  0.2073  0.0334  0.0421
  522SOL    HW1 8806   5.793   7.147   0.587 -0.4726  0.6439 -1.0935
  522SOL    HW2 8807   5.874   7.273   0.567  2.8039 -0.7566  2.1603
  523SOL     OW 8808   5.666   8.585   8.595 -0.1312  0.1499 -0.0638
  523SOL    HW1 8809   5.648   8.519   8.528  1.3181 -0.3659  0.0355
  523SOL    HW2 8810   5.580   8.603   8.633 -0.7748 -0.5607 -1.1141
  524SOL     OW 8811   2.234   3.389   3.810  0.0875 -0.0709 -0.4618
  524SOL    HW1 8812   2.170   3.358   3.745  1.1981 -0.1343 -1.5529
  524SOL    HW2 8813   2.239   3.318   3.874 -0.1486 -0.5317 -0.9465
  525SOL     OW 8814  12.014  10.854  11.269 -0.3680 -0.4151 -0.3651
  525SOL    HW1 8815  12.009  10.863  11.364 -0.0197 -1.1331 -0.2687
  525SOL    HW2 8816  12.101  10.818  11.253  0.5155  1.9024 -1.1455
  526SOL     OW 8817   1.216   7.395   6.583 -0.0200  0.1924  0.0976
  526SOL    HW1 8818   1.219   7.300   6.578  0.6440  0.1603  0.8839
  526SOL    HW2 8819   1.226   7.424   6.492  0.3070 -0.4754 -0.0872
  527SOL     OW 8820   1.598   8.321   8.452 -0.7622  0.2999 -0.3654
  527SOL    HW1 8821   1.595   8.409   8.488  2.6640  0.3558  0.1282
  527SOL    HW2 8822   1.667   8.324   8.386  1.4352 -2.5331  1.5655
  528SOL     OW 8823   8.858   5.153   0.641 -0.3381  0.7052 -0.2041
  528SOL    HW1 8824   8.815   5.069   0.663 -0.9815  1.3152  1.0086
  528SOL    HW2 8825   8.825   5.214   0.708 -0.1840  2.0262 -1.3050
  529SOL     OW 8826   2.904  10.604  11.072 -0.5401  0.0437  0.5032
  529SOL    HW1 8827   2.920  10.587  11.165 -2.9904  2.4293  1.4953
  529SOL    HW2 8828   2.815  10.572  11.057 -0.0184 -0.7545 -1.2280
  530SOL     OW 8829   1.281   1.443  11.429  0.1480  0.4010 -0.3262
  530SOL    HW1 8830   1.278   1.538  11.426 -0.2146  0.3585 -2.2949
  530SOL    HW2 8831   1.241   1.420  11.513 -0.5605  1.9485 -0.2193
  531SOL     OW 8832   3.445  10.603  11.772 -0.8771  0.1663  0.9031
  531SOL    HW1 8833   3.375  10.662  11.747  1.1121  1.2862 -2.7947
  531SOL    HW2 8834   3.418  10.518  11.736 -1.5022 -0.0288  1.8216
  532SOL     OW 8835   9.141   3.273   5.506 -0.5926 -0.0878  0.1357
  532SOL    HW1 8836   9.105   3.189   5.534  0.6495 -0.9882 -0.8092
  532SOL    HW2 8837   9.226   3.250   5.468  0.0724  1.6909  0.4725
  533SOL     OW 8838   0.673   4.653   4.377 -0.7989 -0.2793 -0.5972
  533SOL    HW1 8839   0.649   4.703   4.299 -2.5005 -1.3725 -0.8341
  533SOL    HW2 8840   0.602   4.669   4.438  0.0761 -0.1545  0.4129
  534SOL     OW 8841  12.167   7.477   3.571 -0.1149  0.3049  0.0154
  534SOL    HW1 8842  12.113   7.413   3.525 -1.6781  0.5005  1.4630
  534SOL    HW2 8843  12.108   7.549   3.590  0.6828  0.6324  1.4871
  535SOL     OW 8844  11.933   4.112   6.289  0.1954 -0.3407 -0.6354
  535SOL    HW1 8845  11.860   4.154   6.334 -0.6972 -1.5927 -0.8374
  535SOL    HW2 8846  11.959   4.041   6.347 -1.1515 -2.1578 -2.1057
  536SOL     OW 8847   3.240   2.704   0.203 -0.0620 -0.9512  0.3097
  536SOL    HW1 8848   3.257   2.747   0.287  0.1941 -1.0515  0.3117
  536SOL    HW2 8849   3.236   2.775   0.139  2.2177 -1.0272  0.0033
  537SOL     OW 8850   8.737  10.436   8.734  0.2663 -0.0623 -0.2361
  537SOL    HW1 8851   8.659  10.435   8.790  0.0390 -2.7740 -0.4381
  537SOL    HW2 8852   8.810  10.449   8.795 -0.1537 -0.6749  0.4149
  538SOL     OW 8853  11.673   0.455  12.467 -0.2796 -0.2207 -0.5617
  538SOL    HW1 8854  11.639   0.459  12.557  3.8751 -1.9764  1.3745
  538SOL    HW2 8855  11.724   0.535  12.457  2.3656 -1.6488  0.3095
  539SOL     OW 8856  10.544   6.225   0.240 -0.4004  0.7144 -0.4732
  539SOL    HW1 8857  10.481   6.295   0.225 -0.7404  0.4833 -0.1441
  539SOL    HW2 8858  10.629   6.265   0.224 -0.5211  1.4983  0.7678
  540SOL     OW 8859   0.998   9.638   4.878  0.2764  0.3828  0.1795
  540SOL    HW1 8860   1.063   9.612   4.813 -1.4821 -0.4056 -1.3819
  540SOL    HW2 8861   0.966   9.723   4.847 -1.3450 -0.4897 -0.6955
  541SOL     OW 8862   0.337   1.151  12.329  0.3530  0.5342  0.8231
  541SOL    HW1 8863   0.419   1.103  12.334 -0.2483 -0.7848 -0.9503
  541SOL    HW2 8864   0.280   1.107  12.391  0.8510  1.2208  1.7878
  542SOL     OW 8865   2.305   1.146  12.269  0.0902 -0.0187 -0.6819
  542SOL    HW1 8866   2.273   1.208  12.204 -0.4524 -1.2250 -1.6009
  542SOL    HW2 8867   2.363   1.198  12.325 -1.8471  1.7684 -0.2042
  543SOL     OW 8868   3.076  11.393   6.412  0.1110 -0.0664 -0.6108
  543SOL    HW1 8869   3.077  11.389   6.507 -0.7172 -0.4334 -0.6080
  543SOL    HW2 8870   3.151  11.341   6.385  0.0859 -0.3366 -0.1666
  544SOL     OW 8871   8.359   5.059  10.765 -0.5755  0.3533  0.6652
  544SOL    HW1 8872   8.439   5.104  10.739 -0.1033 -1.2333 -0.8294
  544SOL    HW2 8873   8.376   5.029  10.854 -0.4907  2.1178  1.2802
  545SOL     OW 8874   9.163   8.190   7.943 -0.3524 -0.1031 -1.1017
  545SOL    HW1 8875   9.073   8.159   7.945  0.2646 -2.0826  1.2965
  545SOL    HW2 8876   9.216   8.112   7.927  1.0273  0.5766 -0.1431
  546SOL     OW 8877  10.743   8.912   8.555 -0.2265 -0.0775 -0.1641
  546SOL    HW1 8878  10.824   8.873   8.586  0.5959 -0.1473 -2.2668
  546SOL    HW2 8879  10.696   8.937   8.635  1.5192 -0.6975  1.1018
  547SOL     OW 8880   1.091   0.137   5.704 -0.0524  0.4311 -0.4364
  547SOL    HW1 8881   1.153   0.064   5.693 -0.8024 -0.2055 -0.5070
  547SOL    HW2 8882   1.143   0.215   5.687  0.6419 -0.1165 -0.8828
  548SOL     OW 8883   3.656   2.750   0.679 -0.6312  0.5057  0.3877
  548SOL    HW1 8884   3.703   2.768   0.598  0.5097 -0.9707  0.6776
  548SOL    HW2 8885   3.584   2.693   0.653  0.2980 -0.7609  0.5100
  549SOL     OW 8886   2.315   0.867   5.838 -0.4745 -0.2257  0.2261
  549SOL    HW1 8887   2.343   0.943   5.890  0.1934 -0.2629 -0.0745
  549SOL    HW2 8888   2.326   0.894   5.747 -2.0086 -0.0258  0.0740
  550SOL     OW 8889  11.255  11.276   0.160 -0.5405 -0.3283  0.1013
  550SOL    HW1 8890  11.262  11.287   0.065  2.1014 -0.3461  0.2005
  550SOL    HW2 8891  11.346  11.275   0.190 -1.3187  1.2458  2.8404
  551SOL     OW 8892   1.058   7.656   0.457 -0.0963 -0.0327 -0.0696
  551SOL    HW1 8893   1.076   7.621   0.544 -0.9863 -0.5231 -0.0682
  551SOL    HW2 8894   1.057   7.751   0.469 -0.3205 -0.1002  0.4801
  552SOL     OW 8895   3.559   5.472   0.738  0.3488 -0.4271  0.1531
  552SOL    HW1 8896   3.512   5.496   0.657 -3.2358 -0.5495  1.9826
  552SOL    HW2 8897   3.593   5.555   0.771  1.7617 -0.3565 -1.3244
  553SOL     OW 8898   0.980  10.215  12.027  0.5946 -0.0948  0.0442
  553SOL    HW1 8899   0.897  10.248  11.993  0.0278  0.0419  1.4876
  553SOL    HW2 8900   0.969  10.216  12.122  2.8042  1.3677  0.3369
  554SOL     OW 8901   4.374  10.645  11.754  0.1949  0.2067 -0.1210
  554SOL    HW1 8902   4.453  10.591  11.766  0.5965  0.6526 -0.6703
  554SOL    HW2 8903   4.305  10.582  11.732  0.9027 -0.0329 -1.8744
  555SOL     OW 8904   7.411   3.335   1.305 -0.0330  0.6526 -0.6009
  555SOL    HW1 8905   7.334   3.326   1.248 -1.4794 -1.5420  1.4800
  555SOL    HW2 8906   7.463   3.256   1.287 -1.1440 -0.7446  1.8241
  556SOL     OW 8907  10.824  10.181   9.848  0.4046  0.2037 -0.2982
  556SOL    HW1 8908  10.888  10.251   9.845 -0.1965  0.7491 -2.7005
  556SOL    HW2 8909  10.863  10.110   9.796 -0.3801  0.0877 -0.7631
  557SOL     OW 8910  11.766   9.627   9.063 -0.2007  0.0917 -0.0615
  557SOL    HW1 8911  11.730   9.660   9.146 -0.3399  1.2731 -0.5738
  557SOL    HW2 8912  11.852   9.594   9.086 -0.5340 -0.2793  0.6911
  558SOL     OW 8913   6.024   9.121   7.742 -0.2381 -0.0404  0.0850
  558SOL    HW1 8914   6.037   9.208   7.778  0.4930  0.4923 -1.3865
  558SOL    HW2 8915   6.111   9.092   7.715 -0.4707 -1.2237  0.5249
  559SOL     OW 8916   4.469  10.313   6.460  0.1159  0.7033 -0.0999
  559SOL    HW1 8917   4.439  10.327   6.370  1.0335 -0.6518 -0.6571
  559SOL    HW2 8918   4.513  10.395   6.484 -0.7381  1.3268 -0.6188
  560SOL     OW 8919  11.062  10.423   5.845  0.7180  0.3344  0.2531
  560SOL    HW1 8920  11.047  10.400   5.753  3.2811 -0.5666 -0.0220
  560SOL    HW2 8921  10.979  10.459   5.874 -0.9471 -1.5767 -1.7319
  561SOL     OW 8922   0.641   1.720   9.645 -0.3457 -0.1323  0.0820
  561SOL    HW1 8923   0.628   1.664   9.569  1.3743 -1.5312  0.7479
  561SOL    HW2 8924   0.674   1.802   9.609 -1.7142  0.0670 -0.8077
  562SOL     OW 8925   5.728   9.128  10.683 -0.0483 -0.0031 -0.6938
  562SOL    HW1 8926   5.805   9.087  10.646  0.4043  1.5348 -1.5530
  562SOL    HW2 8927   5.761   9.207  10.727 -0.8880 -0.4426  0.7914
  563SOL     OW 8928   8.308  10.300   6.248 -0.6140  0.3131  0.3819
  563SOL    HW1 8929   8.300  10.295   6.343  1.1005  1.6363  0.6488
  563SOL    HW2 8930   8.384  10.244   6.228 -1.1035 -0.1433 -0.2535
  564SOL     OW 8931  11.277   7.999   8.048 -0.1521  0.0529  0.4186
  564SOL    HW1 8932  11.361   8.045   8.054  0.1041 -0.1575 -1.2124
  564SOL    HW2 8933  11.265   7.983   7.955 -2.2592  0.5231  0.5593
  565SOL     OW 8934   0.433   0.692   3.172  0.1394  0.4529  0.1228
  565SOL    HW1 8935   0.383   0.761   3.127  0.3155  0.7704  0.4120
  565SOL    HW2 8936   0.456   0.630   3.103 -1.4373 -0.1797  0.1129
  566SOL     OW 8937  11.818   9.354   6.487  0.1609 -0.1118  0.1116
  566SOL    HW1 8938  11.911   9.351   6.510 -0.1955 -1.4860  1.5525
  566SOL    HW2 8939  11.817   9.366   6.392  1.7662  1.4287  0.2442
  567SOL     OW 8940   4.469   0.316  10.542  0.8505  0.6884 -0.5485
  567SOL    HW1 8941   4.425   0.256  10.481  1.0560  1.4168 -1.4363
  567SOL    HW2 8942   4.420   0.308  10.624  1.3791 -1.3080 -0.3819
  568SOL     OW 8943   4.865   9.166   4.508 -0.1457 -0.2534  0.0789
  568SOL    HW1 8944   4.771   9.187   4.511  0.1774  1.3952 -0.2198
  568SOL    HW2 8945   4.883   9.151   4.415 -0.0437 -0.1915  0.0891
  569SOL     OW 8946  12.336   6.484   0.017 -0.4055 -0.2195  0.4623
  569SOL    HW1 8947  12.422   6.442   0.021  0.1491  0.8458  0.1717
  569SOL    HW2 8948  12.274   6.412   0.018  0.5343 -1.1053 -1.1527
  570SOL     OW 8949   2.089  10.103   2.694 -0.2204 -0.4471 -0.0605
  570SOL    HW1 8950   2.172  10.117   2.649  0.5878  0.6209  1.6773
  570SOL    HW2 8951   2.106  10.128   2.784 -2.4728 -0.0720  0.3110
  571SOL     OW 8952  11.795   9.860   0.069 -0.6904  0.7020  0.6235
  571SOL    HW1 8953  11.711   9.868   0.024  0.3687  0.8238 -1.4408
  571SOL    HW2 8954  11.854   9.822   0.004  1.0857  1.4211  1.7323
  572SOL     OW 8955  11.614   0.680   1.693 -0.3390 -0.5830  0.0970
  572SOL    HW1 8956  11.569   0.652   1.613  0.6721 -1.0702 -0.3253
  572SOL    HW2 8957  11.566   0.636   1.764 -0.8523 -0.6597 -0.2880
  573SOL     OW 8958   5.617   6.006   0.425  0.0482  0.4477 -0.6011
  573SOL    HW1 8959   5.626   5.973   0.514  0.9300  1.5789 -0.2508
  573SOL    HW2 8960   5.524   5.996   0.405  0.1566 -1.5914 -0.2878
  574SOL     OW 8961   7.705   7.540   5.581 -0.1771  0.2423  0.0695
  574SOL    HW1 8962   7.794   7.509   5.595  0.4144  1.5819 -0.4955
  574SOL    HW2 8963   7.656   7.463   5.551  0.7176 -0.5568  0.6164
  575SOL     OW 8964  12.060   5.858   1.905  1.1101  0.2434 -0.2773
  575SOL    HW1 8965  12.072   5.791   1.972  1.8340  0.7115  0.0759
  575SOL    HW2 8966  12.148   5.874   1.871  0.7000 -0.2880 -1.6481
  576SOL     OW 8967   2.123  11.887   5.489  0.0367 -0.0312  0.1954
  576SOL    HW1 8968   2.097  11.809   5.538  0.1362  0.2488  0.7049
  576SOL    HW2 8969   2.100  11.960   5.547  1.9822  0.2311  0.7064
  577SOL     OW 8970  11.963   4.740   8.086  0.3895 -0.0443  0.3341
  577SOL    HW1 8971  11.929   4.666   8.138  1.2166 -0.0115  0.9370
  577SOL    HW2 8972  11.906   4.813   8.109 -0.5923 -0.5303 -0.4512
  578SOL     OW 8973  10.522   5.168   8.421 -0.5124 -0.1644 -0.3071
  578SOL    HW1 8974  10.467   5.142   8.495 -1.4646  0.2992 -0.8289
  578SOL    HW2 8975  10.490   5.255   8.397 -0.9467 -0.7290 -1.9146
  579SOL     OW 8976  11.139   9.773   6.044 -0.0986  0.5392  0.2197
  579SOL    HW1 8977  11.153   9.859   6.003  1.1908  0.6256  0.7861
  579SOL    HW2 8978  11.226   9.748   6.076 -0.6046 -0.6540  0.6985
  580SOL     OW 8979   0.867   7.041   2.680  0.2795 -0.2484 -0.0963
  580SOL    HW1 8980   0.908   7.123   2.707  1.2756 -0.5506 -0.6485
  580SOL    HW2 8981   0.931   6.999   2.622 -0.7594 -0.8013 -0.8862
  581SOL     OW 8982   4.618   5.043   5.172  0.2045  0.0286  0.4861
  581SOL    HW1 8983   4.696   5.046   5.227  0.0274  0.1727  0.7278
  581SOL    HW2 8984   4.554   5.096   5.218  0.1103  0.2909  0.0548
  582SOL     OW 8985   4.281   6.128   8.908 -0.1445 -0.0881 -0.3267
  582SOL    HW1 8986   4.259   6.050   8.960  0.2893  0.2806  0.4336
  582SOL    HW2 8987   4.367   6.107   8.870 -1.3572 -1.1930 -2.6178
  583SOL     OW 8988   1.974  11.321   6.922  0.4029  0.0868  0.5529
  583SOL    HW1 8989   1.968  11.229   6.948 -1.2937  0.3380  1.1896
  583SOL    HW2 8990   1.912  11.366   6.978 -0.8163  1.2074 -1.5528
  584SOL     OW 8991  11.008   8.460   2.653  0.0209  0.3432  0.0788
  584SOL    HW1 8992  11.032   8.496   2.568 -1.4252  0.4980 -0.2862
  584SOL    HW2 8993  11.079   8.399   2.674 -0.1694 -0.5917 -1.7827
  585SOL     OW 8994  10.656   9.103   2.495 -0.4180  0.7005  0.0881
  585SOL    HW1 8995  10.744   9.134   2.471 -0.9293  1.6583 -0.6497
  585SOL    HW2 8996  10.634   9.152   2.574  0.2746 -0.6208  1.1343
  586SOL     OW 8997   2.537   2.073  10.381 -0.6761 -0.1709  0.5586
  586SOL    HW1 8998   2.493   2.157  10.395 -0.2461  0.3991 -1.2800
  586SOL    HW2 8999   2.471   2.017  10.340 -0.1265  0.2551 -0.9670
  587SOL     OW 9000   1.037   8.612   9.743  0.1462  0.0439  0.7267
  587SOL    HW1 9001   1.114   8.669   9.745 -0.8243  1.5384 -0.7421
  587SOL    HW2 9002   0.985   8.638   9.819  1.4138 -1.5671  2.2218
  588SOL     OW 9003  12.284   5.988   7.774  0.4020 -0.2453 -0.1482
  588SOL    HW1 9004  12.238   5.937   7.840  1.6397  1.2472  1.9625
  588SOL    HW2 9005  12.376   5.972   7.790  0.8015  1.7755 -0.1066
  589SOL     OW 9006   1.944   6.040   2.239  0.5204 -0.1185 -0.7644
  589SOL    HW1 9007   1.850   6.050   2.224  0.5356 -0.1805 -0.9116
  589SOL    HW2 9008   1.975   6.128   2.261  0.8204  0.4175 -3.0020
  590SOL     OW 9009   3.135   2.087   9.172  0.1711  0.6761  0.1716
  590SOL    HW1 9010   3.155   2.043   9.254  1.3533  1.7208  0.4861
  590SOL    HW2 9011   3.052   2.132   9.188  0.2267  0.5997  0.6776
  591SOL     OW 9012   1.971  10.908   2.737  0.4218 -0.0342  0.0461
  591SOL    HW1 9013   1.890  10.866   2.767 -0.8960  1.6177 -0.9981
  591SOL    HW2 9014   1.986  10.873   2.650 -0.9746  1.8657 -1.0485
  592SOL     OW 9015   2.900  10.715   3.592 -0.2789  0.1462 -0.2823
  592SOL    HW1 9016   2.992  10.696   3.612 -0.7942 -3.6929 -0.8921
  592SOL    HW2 9017   2.900  10.739   3.500  0.0220 -1.1862 -0.6526
  593SOL     OW 9018   0.473   7.205   6.534  0.0811 -0.3427 -0.9899
  593SOL    HW1 9019   0.418   7.128   6.523 -0.5295 -0.0837  0.0228
  593SOL    HW2 9020   0.562   7.174   6.521  0.0114 -1.6480  1.1315
  594SOL     OW 9021  11.292   9.775   9.100  0.3485  0.3854  0.2051
  594SOL    HW1 9022  11.372   9.820   9.126  0.2481  0.2887  0.6961
  594SOL    HW2 9023  11.271   9.810   9.014  0.5532  0.8976  0.3650
  595SOL     OW 9024   0.719   1.892   6.424 -0.0368 -0.0255  0.1665
  595SOL    HW1 9025   0.743   1.897   6.331  0.4379  2.6484  0.3713
  595SOL    HW2 9026   0.634   1.936   6.429  0.5326  0.9810  1.1732
  596SOL     OW 9027   0.386   4.445  12.402 -0.2334  0.3740 -0.3903
  596SOL    HW1 9028   0.470   4.484  12.427 -0.8302 -0.0127  2.5945
  596SOL    HW2 9029   0.347   4.507  12.341  1.6923  1.1366 -0.8960
  597SOL     OW 9030   3.274   2.230  10.021 -0.9539  0.6231  0.1955
  597SOL    HW1 9031   3.340   2.267   9.963 -1.2073  1.0282  0.1589
  597SOL    HW2 9032   3.263   2.140   9.991  0.7834  0.0023  1.2519
  598SOL     OW 9033   5.298  10.881   7.679  0.1179 -0.4167 -0.1616
  598SOL    HW1 9034   5.306  10.850   7.770  1.2354  0.5295  0.0947
  598SOL    HW2 9035   5.386  10.912   7.657 -0.2599 -0.1831 -1.4160
  599SOL     OW 9036   1.136   0.699  10.775 -0.5474  0.2267 -0.0895
  599SOL    HW1 9037   1.152   0.783  10.818 -1.3560 -0.0824  0.8555
  599SOL    HW2 9038   1.041   0.695  10.766 -0.5196 -0.6415 -0.0140
  600SOL     OW 9039   0.174   8.248   3.370 -0.0300  0.4008 -0.5304
  600SOL    HW1 9040   0.202   8.294   3.449  0.6132  2.7294 -2.0125
  600SOL    HW2 9041   0.080   8.262   3.366 -0.0104  0.5837 -0.3725
  601SOL     OW 9042  10.011   6.550   0.457  0.1423  0.4352  0.0514
  601SOL    HW1 9043   9.986   6.560   0.549  2.0558  0.6628  0.5748
  601SOL    HW2 9044  10.031   6.639   0.428 -0.3366  0.3478 -0.5767
  602SOL     OW 9045  11.605  11.416   4.902 -0.5360  0.3639 -0.0280
  602SOL    HW1 9046  11.539  11.459   4.956 -1.5687 -0.9432 -0.1897
  602SOL    HW2 9047  11.558  11.346   4.857  0.9429 -0.5732 -0.2072
  603SOL     OW 9048   1.523   3.071   9.906  0.7341  0.5911 -0.6343
  603SOL    HW1 9049   1.570   3.084   9.824 -0.3456 -0.3511 -1.4426
  603SOL    HW2 9050   1.513   2.976   9.914  0.4772  0.6875  0.3870
  604SOL     OW 9051  10.015   6.210   1.201 -0.1387  0.0779  0.3137
  604SOL    HW1 9052  10.039   6.227   1.110 -0.2373  0.5886  0.3811
  604SOL    HW2 9053  10.078   6.145   1.231 -0.0363 -0.0072 -0.0854
  605SOL     OW 9054   7.956   4.828   9.225  0.3984 -0.1767  0.1188
  605SOL    HW1 9055   7.881   4.820   9.166 -0.3408  1.1371  0.8515
  605SOL    HW2 9056   7.998   4.742   9.221 -0.4296 -0.5538 -1.2424
  606SOL     OW 9057   4.589   4.174   7.350  0.1432 -0.2857 -0.1688
  606SOL    HW1 9058   4.660   4.178   7.414  0.7751  1.6193 -0.9096
  606SOL    HW2 9059   4.616   4.234   7.280 -1.4824 -0.7120 -1.2319
  607SOL     OW 9060  10.601   4.310   2.754  0.4234  0.4330  0.5598
  607SOL    HW1 9061  10.551   4.391   2.751 -0.9203 -0.2919 -3.6107
  607SOL    HW2 9062  10.692   4.338   2.746 -0.0831  1.6492 -2.0592
  608SOL     OW 9063  11.231  11.660   3.056  0.3375  0.4511  0.3829
  608SOL    HW1 9064  11.205  11.583   3.006  1.0463  0.5845 -0.2098
  608SOL    HW2 9065  11.209  11.638   3.147  1.1286 -0.7128  0.3098
  609SOL     OW 9066   9.763   5.913   1.234  0.3310  0.1930 -0.0490
  609SOL    HW1 9067   9.843   5.913   1.180  0.1762  0.0344 -0.2761
  609SOL    HW2 9068   9.697   5.956   1.179 -0.1572 -1.0663 -0.4783
  610SOL     OW 9069   6.419   3.420   2.912  0.6069 -0.4472 -0.2978
  610SOL    HW1 9070   6.354   3.357   2.943  0.4292  0.3055  0.9099
  610SOL    HW2 9071   6.400   3.501   2.960  1.9458  0.0092 -0.4868
  611SOL     OW 9072   0.537   2.296   4.351  0.0248  0.3255  0.0805
  611SOL    HW1 9073   0.576   2.378   4.320  0.1375  0.3093  0.1804
  611SOL    HW2 9074   0.490   2.321   4.430 -0.3491  0.3866 -0.1551
  612SOL     OW 9075   1.562   2.144   7.778 -0.0570 -0.1367 -0.2367
  612SOL    HW1 9076   1.553   2.134   7.684  0.1812 -0.9080 -0.1894
  612SOL    HW2 9077   1.590   2.057   7.809 -0.1114  0.1082  0.5362
  613SOL     OW 9078   4.001   1.143   3.885 -0.2132 -0.3619 -0.3330
  613SOL    HW1 9079   3.920   1.115   3.843  0.4765 -1.7337 -0.7839
  613SOL    HW2 9080   3.974   1.168   3.974 -0.8358 -3.0402  0.3154
  614SOL     OW 9081   3.323   3.957   0.134 -0.0761  0.0027 -0.2544
  614SOL    HW1 9082   3.373   3.928   0.058  2.0300  0.4070  0.8937
  614SOL    HW2 9083   3.338   4.052   0.137 -0.7473  0.1011  0.2557
  615SOL     OW 9084   4.361   1.428   3.554  0.1144  0.3549 -0.1833
  615SOL    HW1 9085   4.285   1.483   3.538 -0.1739 -0.0198 -0.1082
  615SOL    HW2 9086   4.335   1.371   3.627 -0.3049 -1.2407 -1.5345
  616SOL     OW 9087   8.070  10.907   8.377 -0.2062  0.0566  0.4004
  616SOL    HW1 9088   8.141  10.858   8.420 -0.6585  0.0291  1.1188
  616SOL    HW2 9089   7.990  10.876   8.420 -0.6750 -0.0056 -0.4972
  617SOL     OW 9090   4.423  12.409   9.942  0.1533  0.0912  0.4916
  617SOL    HW1 9091   4.492  12.372   9.997  1.6934  2.2432  0.1453
  617SOL    HW2 9092   4.427  12.503   9.958  0.8806  0.8964 -3.4220
  618SOL     OW 9093   9.200  10.502   5.880  0.2471  0.8775  0.1368
  618SOL    HW1 9094   9.118  10.501   5.930 -0.1043  2.7596 -0.2980
  618SOL    HW2 9095   9.176  10.466   5.795  0.1863  0.2097  0.4338
  619SOL     OW 9096   2.994   7.192   1.391  0.5077 -0.1025 -0.4076
  619SOL    HW1 9097   2.948   7.265   1.432 -1.9105 -1.3264 -0.7714
  619SOL    HW2 9098   3.004   7.218   1.299  2.1570  0.8685  0.0041
  620SOL     OW 9099   3.342   4.472   3.067  0.2504 -0.3040  0.1208
  620SOL    HW1 9100   3.250   4.480   3.092  0.5515  0.0898  1.1559
  620SOL    HW2 9101   3.341   4.422   2.986 -0.9407  0.5929 -0.4343
  621SOL     OW 9102   9.790  11.928   0.092 -0.0283 -0.0352 -0.0766
  621SOL    HW1 9103   9.835  11.995   0.143 -1.5234  0.3254  0.7932
  621SOL    HW2 9104   9.803  11.847   0.142 -0.3837  0.0751  0.1930
  622SOL     OW 9105   7.687  10.123   7.386  0.2696  0.3263 -0.1264
  622SOL    HW1 9106   7.783  10.116   7.384  0.2960  0.3348  0.7049
  622SOL    HW2 9107   7.657  10.032   7.381  0.3270  0.3064 -0.1121
  623SOL     OW 9108  11.889   0.902   2.572  0.1329 -0.0013 -0.2591
  623SOL    HW1 9109  11.851   0.915   2.485 -0.0475 -0.1878 -0.2090
  623SOL    HW2 9110  11.841   0.827   2.608 -2.1422  2.0594  1.3154
  624SOL     OW 9111   2.029   5.472   7.855 -0.3855  0.1254 -0.4781
  624SOL    HW1 9112   2.052   5.435   7.769  0.0973 -0.8129  0.0355
  624SOL    HW2 9113   2.005   5.563   7.837  1.3237  0.4288 -1.3891
  625SOL     OW 9114  10.900   6.024  12.692  0.2851  0.2695  0.7920
  625SOL    HW1 9115  10.814   6.028  12.733  1.0190  0.6507  2.3594
  625SOL    HW2 9116  10.925   6.116  12.682  1.1739  0.1631  1.8475
  626SOL     OW 9117   5.736   3.665   6.406 -0.0372  0.0782 -0.3151
  626SOL    HW1 9118   5.793   3.600   6.366 -1.2587 -1.3556  0.2042
  626SOL    HW2 9119   5.648   3.632   6.392 -0.6542  1.2416  0.6385
  627SOL     OW 9120   9.256   7.041   5.659  0.2160 -0.1826  0.2644
  627SOL    HW1 9121   9.231   7.108   5.595  1.5241 -0.1412 -0.2285
  627SOL    HW2 9122   9.323   6.989   5.614 -0.0758 -1.2235  0.9974
  628SOL     OW 9123   1.328   3.421   2.088  0.0553  0.3252 -0.4073
  628SOL    HW1 9124   1.338   3.404   1.994  0.5004 -1.5443 -0.0621
  628SOL    HW2 9125   1.335   3.335   2.128 -2.0406  0.8491  1.2128
  629SOL     OW 9126   6.266   5.721   1.399  0.0404  0.2696  0.5839
  629SOL    HW1 9127   6.228   5.643   1.360  0.3056  0.7401 -0.6860
  629SOL    HW2 9128   6.331   5.750   1.335 -0.5434  1.9082  0.6742
  630SOL     OW 9129   9.476   1.898   1.057  0.2285 -0.5288  0.4283
  630SOL    HW1 9130   9.487   1.919   0.965 -1.9124  0.3022  0.3112
  630SOL    HW2 9131   9.564   1.902   1.094  0.7011  3.1280 -0.7636
  631SOL     OW 9132   7.016  11.569   6.355 -1.0288 -0.2697 -0.3022
  631SOL    HW1 9133   7.051  11.566   6.266 -0.4320 -2.0489 -0.0660
  631SOL    HW2 9134   6.981  11.657   6.365  0.8859  0.6958 -1.5481
  632SOL     OW 9135   6.817   3.925   6.043  0.3023 -0.0298  0.2899
  632SOL    HW1 9136   6.827   3.982   6.120  0.1107 -0.0664  0.3432
  632SOL    HW2 9137   6.893   3.868   6.045  1.5795  1.5206 -0.8645
  633SOL     OW 9138   7.401  10.756   8.860 -0.1649  0.9916  0.5956
  633SOL    HW1 9139   7.371  10.730   8.772 -0.2003  0.3745  0.7845
  633SOL    HW2 9140   7.480  10.807   8.843  1.3845 -1.3306  0.2819
  634SOL     OW 9141  12.415  12.324   7.093 -0.3691  0.3136  0.1955
  634SOL    HW1 9142  12.360  12.311   7.170 -0.0131 -0.1113  0.3852
  634SOL    HW2 9143  12.357  12.307   7.019 -0.5030 -0.1115  0.3939
  635SOL     OW 9144   2.373   3.746   9.567 -0.0991 -0.1456 -0.1359
  635SOL    HW1 9145   2.421   3.700   9.636  0.4971  2.1917  1.1065
  635SOL    HW2 9146   2.289   3.700   9.562 -0.3316 -0.1552  2.4924
  636SOL     OW 9147   0.681  12.121  11.204 -0.4638 -0.0027 -0.1091
  636SOL    HW1 9148   0.727  12.051  11.249  0.1600  0.5391  0.1136
  636SOL    HW2 9149   0.589  12.102  11.218 -0.3323  1.0312  2.8260
  637SOL     OW 9150   0.250   2.190   3.669 -0.8108  0.5729 -0.2572
  637SOL    HW1 9151   0.209   2.271   3.640 -1.8412 -0.0919 -0.6959
  637SOL    HW2 9152   0.295   2.214   3.750 -4.4841  0.7654  1.9603
  638SOL     OW 9153   2.635   0.630   4.339 -0.0779 -0.0416  0.3940
  638SOL    HW1 9154   2.701   0.699   4.343 -0.8412  0.9214 -1.7587
  638SOL    HW2 9155   2.683   0.553   4.307  0.9222 -0.8210  3.4734
  639SOL     OW 9156   8.300   5.157   9.811 -0.3190 -0.1640 -0.2588
  639SOL    HW1 9157   8.206   5.144   9.825 -0.2591 -3.7256 -1.8984
  639SOL    HW2 9158   8.311   5.152   9.716  1.3871  2.3563 -0.2928
  640SOL     OW 9159   3.012   4.844  12.287 -0.1280 -0.2670  0.2391
  640SOL    HW1 9160   2.950   4.834  12.214  0.1191 -0.6587  0.0796
  640SOL    HW2 9161   3.023   4.939  12.296  0.5135 -0.2248 -0.8211
  641SOL     OW 9162  11.151   3.472   0.341 -0.0919  0.1491  0.0968
  641SOL    HW1 9163  11.090   3.452   0.270 -0.9944  1.8516  0.3353
  641SOL    HW2 9164  11.094   3.501   0.413  0.9522  1.2525  0.5113
  642SOL     OW 9165  12.040   6.808  11.875  0.1287 -0.5582 -0.2419
  642SOL    HW1 9166  12.066   6.808  11.967  2.7596 -0.4146 -0.9030
  642SOL    HW2 9167  12.114   6.768  11.829 -1.1062 -0.6166 -2.3085
  643SOL     OW 9168   9.632  12.551   2.484  0.4814  0.0434 -0.4177
  643SOL    HW1 9169   9.682  12.629   2.461 -0.0982  0.0875 -1.6137
  643SOL    HW2 9170   9.562  12.583   2.542  1.3652  0.0964  0.6398
  644SOL     OW 9171  12.335   8.621   8.256 -0.8932 -0.1573 -0.1084
  644SOL    HW1 9172  12.312   8.528   8.263 -1.9227  0.0924 -0.1132
  644SOL    HW2 9173  12.366   8.645   8.343  0.8806 -0.8877 -0.4990
  645SOL     OW 9174   0.972   5.670   7.783  0.0596  0.3216  0.2349
  645SOL    HW1 9175   0.903   5.656   7.718  0.2530  0.2923  0.0350
  645SOL    HW2 9176   1.017   5.749   7.753 -0.8969  1.2835  1.2363
  646SOL     OW 9177   6.509   2.320  10.763 -0.4740 -0.1118 -0.5989
  646SOL    HW1 9178   6.578   2.259  10.787  0.3992  0.7987 -0.7181
  646SOL    HW2 9179   6.541   2.364  10.685 -0.1666  1.8828  0.5770
  647SOL     OW 9180   9.017   4.408   9.536  0.7331 -0.4266  0.5629
  647SOL    HW1 9181   9.041   4.479   9.476 -3.3561  1.8293  1.1822
  647SOL    HW2 9182   9.048   4.438   9.622 -0.3572  0.3550  0.7086
  648SOL     OW 9183  11.290   9.200   5.604  0.4423  0.4253  0.6206
  648SOL    HW1 9184  11.216   9.144   5.627  1.4286 -2.0462 -1.7247
  648SOL    HW2 9185  11.364   9.164   5.652  0.9299  0.1499 -0.3010
  649SOL     OW 9186   5.435  10.918   9.193 -0.4538  0.2227 -0.2089
  649SOL    HW1 9187   5.457  10.825   9.201 -0.0801  0.3030 -0.2598
  649SOL    HW2 9188   5.468  10.957   9.274 -0.7846  0.2788 -0.1023
  650SOL     OW 9189   4.019   7.646   2.586  0.4489  0.3525  0.3837
  650SOL    HW1 9190   3.966   7.713   2.543  0.4613 -1.0207 -1.9031
  650SOL    HW2 9191   4.107   7.656   2.549  0.4561 -0.8725  0.0114
  651SOL     OW 9192   1.601   3.604   0.229 -0.1112 -0.3345 -0.6419
  651SOL    HW1 9193   1.665   3.667   0.194 -0.7311  1.4035  1.1545
  651SOL    HW2 9194   1.616   3.605   0.324 -3.5497  1.1473  0.0318
  652SOL     OW 9195   1.389   1.005  12.345  0.4941 -0.1482  0.1547
  652SOL    HW1 9196   1.479   0.991  12.318  0.8763  0.0529  1.2505
  652SOL    HW2 9197   1.337   0.949  12.288  1.1098  1.1590 -1.7716
  653SOL     OW 9198   1.763   7.686   6.583 -0.2571 -0.0555 -0.4821
  653SOL    HW1 9199   1.730   7.765   6.542  1.2022 -0.6003 -2.8633
  653SOL    HW2 9200   1.686   7.631   6.595 -0.9830  0.8896 -0.7389
  654SOL     OW 9201   3.753   6.498   5.211  0.8769 -0.3338  0.2266
  654SOL    HW1 9202   3.701   6.427   5.250 -0.3097  0.0757 -0.5486
  654SOL    HW2 9203   3.781   6.464   5.126  0.6318 -0.0188  0.0180
  655SOL     OW 9204   9.560   5.112   4.415  0.4666  0.0312 -0.4840
  655SOL    HW1 9205   9.620   5.143   4.483  0.9420  0.3616 -1.0448
  655SOL    HW2 9206   9.573   5.017   4.413  0.8296  0.0764 -0.4580
  656SOL     OW 9207  12.409  11.091  10.095  0.0171  0.1911  0.2801
  656SOL    HW1 9208  12.497  11.055  10.085  0.5376  1.7730 -1.1330
  656SOL    HW2 9209  12.412  11.176  10.053 -3.0668 -1.0350 -2.9427
  657SOL     OW 9210   1.319   3.466   1.795 -0.3510 -0.6356  0.0735
  657SOL    HW1 9211   1.270   3.409   1.735  0.7679  0.6834 -2.2498
  657SOL    HW2 9212   1.280   3.552   1.781  2.1408  0.3525 -1.4615
  658SOL     OW 9213  12.636   0.287   9.986  0.0962  0.3532  0.0947
  658SOL    HW1 9214  12.554   0.324  10.020 -0.6745 -0.9486 -0.2780
  658SOL    HW2 9215  12.675   0.243  10.062 -0.7159 -0.9920 -0.2426
  659SOL     OW 9216   7.311   3.396   7.112 -0.1796 -0.0160 -0.4496
  659SOL    HW1 9217   7.372   3.342   7.060 -1.5334 -1.7759 -0.2769
  659SOL    HW2 9218   7.335   3.379   7.203  0.6838  1.2781 -0.4074
  660SOL     OW 9219   9.371   3.139  10.112 -0.5019  0.1460 -0.5511
  660SOL    HW1 9220   9.407   3.227  10.125 -0.3235  0.5171 -3.0257
  660SOL    HW2 9221   9.300   3.152  10.049 -0.7500 -1.4281 -0.6223
  661SOL     OW 9222   1.053   2.028   1.945 -0.1329 -0.3864 -0.6752
  661SOL    HW1 9223   1.018   2.114   1.923 -1.3308 -0.7464 -0.2356
  661SOL    HW2 9224   0.978   1.978   1.977  0.5390 -1.5986 -0.9085
  662SOL     OW 9225   0.960   8.215  12.230  0.4810  0.1722 -0.3865
  662SOL    HW1 9226   0.969   8.162  12.309 -1.2718  0.5979  0.1327
  662SOL    HW2 9227   0.916   8.295  12.259 -0.9117 -0.0002 -1.8832
  663SOL     OW 9228   7.326   1.365  11.872 -0.1303  0.0951 -0.8799
  663SOL    HW1 9229   7.312   1.449  11.916 -1.0393  0.1298 -1.2228
  663SOL    HW2 9230   7.420   1.349  11.882 -0.1409  0.5961  0.1744
  664SOL     OW 9231   9.218   6.113   9.868 -0.7021 -0.0550  0.2080
  664SOL    HW1 9232   9.146   6.099   9.929  0.6089 -1.3174  1.5765
  664SOL    HW2 9233   9.268   6.031   9.872  2.2491  1.6611  1.3616
  665SOL     OW 9234   0.359   1.246   6.456  0.5699 -0.2292  0.5289
  665SOL    HW1 9235   0.425   1.311   6.433 -0.6041  0.1098 -2.2889
  665SOL    HW2 9236   0.347   1.194   6.376 -2.1698 -0.5941  1.0752
  666SOL     OW 9237  10.561  12.537   1.934 -0.2366  0.6310  0.3206
  666SOL    HW1 9238  10.480  12.495   1.963  1.5513 -3.1913  0.4094
  666SOL    HW2 9239  10.580  12.497   1.849  2.1112  0.4411  0.8443
  667SOL     OW 9240   2.556   6.553   0.248  0.4461 -0.1577  0.2976
  667SOL    HW1 9241   2.492   6.485   0.270 -0.2138  1.0678  2.3922
  667SOL    HW2 9242   2.505   6.621   0.204  0.2617  0.8076  1.9399
  668SOL     OW 9243  12.167   3.421   0.526  0.2845  0.8887 -0.3013
  668SOL    HW1 9244  12.126   3.434   0.441  0.7886 -0.2197 -0.7373
  668SOL    HW2 9245  12.095   3.427   0.589 -0.3762  0.0513 -0.9575
  669SOL     OW 9246   8.596   0.454   9.142  0.2039  0.0875 -0.1528
  669SOL    HW1 9247   8.629   0.542   9.127  1.6057  0.2004  2.8630
  669SOL    HW2 9248   8.670   0.397   9.122 -0.2093 -0.3008 -0.6035
  670SOL     OW 9249   0.407   7.925   8.876  0.3181  0.5880 -0.4076
  670SOL    HW1 9250   0.501   7.910   8.868  0.7411  2.6807 -0.0458
  670SOL    HW2 9251   0.398   7.974   8.958 -0.7094  2.7752 -1.7220
  671SOL     OW 9252   7.013   0.659   3.636  0.1893  0.1110  0.4096
  671SOL    HW1 9253   6.964   0.630   3.559  2.5739  0.0637 -1.2012
  671SOL    HW2 9254   6.948   0.664   3.706 -2.2743  1.1727 -1.8279
  672SOL     OW 9255   6.933   9.263   2.096  0.4460  0.4169  0.1659
  672SOL    HW1 9256   6.947   9.299   2.008  1.9128 -0.8114 -0.1399
  672SOL    HW2 9257   6.969   9.328   2.155  0.6726  0.6427 -0.2185
  673SOL     OW 9258  12.602   8.529   6.457  0.3654 -0.0044  0.3153
  673SOL    HW1 9259  12.525   8.504   6.508  0.9128 -0.7740  0.7812
  673SOL    HW2 9260  12.623   8.452   6.404  0.4629  0.4109 -0.2615
  674SOL     OW 9261  11.727   3.484   8.259  0.7910  0.4934 -0.5563
  674SOL    HW1 9262  11.776   3.470   8.178  0.7419 -1.4315 -0.2960
  674SOL    HW2 9263  11.700   3.396   8.286 -1.0444  1.3053  0.4135
  675SOL     OW 9264  12.605  12.285   6.208  0.0182 -0.1542  0.3662
  675SOL    HW1 9265  12.640  12.351   6.148  0.2335  0.1862  0.8547
  675SOL    HW2 9266  12.617  12.324   6.295  0.7792 -1.1380  0.7043
  676SOL     OW 9267   4.743   7.303  10.224 -0.1816  0.9692 -0.0194
  676SOL    HW1 9268   4.742   7.397  10.206 -1.9434  0.8828 -0.5812
  676SOL    HW2 9269   4.791   7.295  10.306  0.5774  2.2737 -0.2913
  677SOL     OW 9270   8.052  11.827  10.425 -0.7321 -0.1585 -0.2948
  677SOL    HW1 9271   7.960  11.827  10.452 -0.2325  1.4018  1.6463
  677SOL    HW2 9272   8.100  11.815  10.507  0.8195 -1.2158 -1.3106
  678SOL     OW 9273  11.364  12.169   1.876  0.0152 -0.0959  0.6615
  678SOL    HW1 9274  11.425  12.097   1.858 -0.9010 -1.3403  2.2574
  678SOL    HW2 9275  11.367  12.179   1.971 -2.0015  0.0361  0.7485
  679SOL     OW 9276  12.187  10.155   0.782 -0.0239  0.3191 -0.0211
  679SOL    HW1 9277  12.225  10.195   0.704  2.1986 -1.0618  0.2645
  679SOL    HW2 9278  12.111  10.209   0.802  1.7760  3.3349 -0.6330
  680SOL     OW 9279  10.369  11.332  11.433  0.0678 -0.3372  0.1117
  680SOL    HW1 9280  10.443  11.377  11.473 -0.7944  0.3343  1.0259
  680SOL    HW2 9281  10.305  11.402  11.416 -0.1178 -0.8136 -1.2228
  681SOL     OW 9282   1.581   9.665   0.050  0.2781  0.1696  0.2016
  681SOL    HW1 9283   1.668   9.644   0.017 -0.0830  0.2840 -0.8832
  681SOL    HW2 9284   1.576   9.760   0.045  0.1694  0.1772  0.4656
  682SOL     OW 9285   4.705   3.359   4.282 -0.0206 -0.3744 -0.1785
  682SOL    HW1 9286   4.771   3.420   4.250 -1.7046  1.7842  0.2247
  682SOL    HW2 9287   4.718   3.356   4.376  0.2436 -0.9329 -0.2235
  683SOL     OW 9288   7.580  12.427   3.433 -0.0699 -0.1336 -0.3197
  683SOL    HW1 9289   7.559  12.495   3.369  0.2561  2.0280  1.7475
  683SOL    HW2 9290   7.619  12.474   3.506  0.2023 -2.5781  1.2078
  684SOL     OW 9291   6.654  12.671   2.264 -0.0224 -0.1459 -0.3355
  684SOL    HW1 9292   6.673  12.579   2.284  0.3108 -0.0872 -0.3777
  684SOL    HW2 9293   6.561  12.681   2.282 -0.3982 -0.8658 -1.7523
  685SOL     OW 9294   3.422   6.388   0.703  0.3875 -0.7689  0.2306
  685SOL    HW1 9295   3.475   6.359   0.629  0.8996 -0.3154  0.4083
  685SOL    HW2 9296   3.345   6.430   0.663  0.2278 -1.3066 -0.0295
  686SOL     OW 9297   7.767   2.023   1.357  0.2607  0.1537  0.1401
  686SOL    HW1 9298   7.687   2.053   1.400  0.5167 -0.0113  0.7399
  686SOL    HW2 9299   7.746   1.935   1.326 -0.4399  0.8511 -1.4830
  687SOL     OW 9300   5.868   6.633   0.433 -0.1721 -0.3744 -0.4335
  687SOL    HW1 9301   5.821   6.643   0.515  1.1433  0.5811  0.2456
  687SOL    HW2 9302   5.816   6.682   0.369 -0.1455  0.6272  0.2964
  688SOL     OW 9303   4.422   5.362   7.124 -0.4006 -0.0532 -0.2553
  688SOL    HW1 9304   4.366   5.323   7.191 -1.8296  0.3262 -1.1649
  688SOL    HW2 9305   4.377   5.343   7.042  1.3272 -0.5499 -1.1314
  689SOL     OW 9306  11.379   3.861  10.381 -0.1678  0.3273  0.0146
  689SOL    HW1 9307  11.335   3.897  10.304  0.9902  0.4056 -0.6428
  689SOL    HW2 9308  11.330   3.895  10.456 -0.5114  1.3305 -0.6523
  690SOL     OW 9309   5.459   3.716  12.314 -0.0538 -0.2376  0.2350
  690SOL    HW1 9310   5.475   3.741  12.405  0.0865 -0.2558  0.2143
  690SOL    HW2 9311   5.376   3.760  12.291 -0.2245 -0.4482  0.4526
  691SOL     OW 9312   0.249   3.432   8.006 -0.4433  0.1173  0.3293
  691SOL    HW1 9313   0.269   3.474   8.089  0.1971  1.6035 -0.5396
  691SOL    HW2 9314   0.217   3.502   7.949 -1.5174 -0.9775 -0.5001
  692SOL     OW 9315   2.241   6.760   2.719  0.0018 -0.1997 -0.2593
  692SOL    HW1 9316   2.233   6.687   2.780 -0.1167 -0.2667 -0.3563
  692SOL    HW2 9317   2.287   6.827   2.769 -0.9156  0.0937  0.2121
  693SOL     OW 9318   9.465  10.516   5.963 -0.1701  0.0300  0.5546
  693SOL    HW1 9319   9.508  10.430   5.958 -1.1593 -0.4361 -1.0122
  693SOL    HW2 9320   9.386  10.505   5.910  0.1102  2.1692 -0.4132
  694SOL     OW 9321   6.487   2.971   8.075  0.8303 -0.7166  0.1065
  694SOL    HW1 9322   6.447   2.885   8.062  0.4133 -0.4687 -0.2619
  694SOL    HW2 9323   6.578   2.959   8.047  1.0196 -1.2761  0.9314
  695SOL     OW 9324   3.606  10.460   8.497  0.1587 -0.3502  0.2187
  695SOL    HW1 9325   3.559  10.498   8.423  0.1902  1.3721  1.0416
  695SOL    HW2 9326   3.546  10.394   8.532 -1.6831  1.7285  1.1783
  696SOL     OW 9327   3.173   0.069   0.553  0.2142 -0.3133  0.0473
  696SOL    HW1 9328   3.078   0.080   0.543  0.3871  1.9153  0.3728
  696SOL    HW2 9329   3.191  -0.017   0.514 -2.1806 -1.7120  1.7233
  697SOL     OW 9330  11.831  11.676   5.404  0.0832  0.4621 -0.0875
  697SOL    HW1 9331  11.798  11.645   5.320 -0.0893  1.9918 -0.6010
  697SOL    HW2 9332  11.766  11.739   5.434  0.3031  0.1703  1.0622
  698SOL     OW 9333   8.049   7.419   8.440  0.3422 -0.8381 -0.3650
  698SOL    HW1 9334   8.104   7.402   8.516 -0.9195 -0.5507  0.6528
  698SOL    HW2 9335   8.104   7.470   8.381  1.1304 -0.4795  0.6632
  699SOL     OW 9336   4.344   6.385   9.469  0.3457  0.3606  0.2140
  699SOL    HW1 9337   4.275   6.431   9.517 -0.3274 -0.5910  0.1676
  699SOL    HW2 9338   4.315   6.294   9.465  2.5080 -0.5132  1.9105
  700SOL     OW 9339  11.290   8.919   7.346 -0.0881 -0.9797  0.2976
  700SOL    HW1 9340  11.196   8.940   7.346  0.1974  0.3462  0.1958
  700SOL    HW2 9341  11.308   8.891   7.256 -0.4199 -1.4447  0.3703
  701SOL     OW 9342   6.462   8.840   8.576  0.6232  0.0258  0.5437
  701SOL    HW1 9343   6.538   8.821   8.522  0.0537 -0.3588 -0.1402
  701SOL    HW2 9344   6.476   8.929   8.609  0.0072  1.0967 -1.9105
  702SOL     OW 9345   3.982   7.050   0.722  0.0045 -0.5255  0.3267
  702SOL    HW1 9346   3.932   7.072   0.801  0.2916  1.0036  0.1088
  702SOL    HW2 9347   3.937   6.973   0.687 -0.8291 -0.5355  1.3511
  703SOL     OW 9348  10.937  10.077   4.750 -0.6568 -0.6641 -0.0017
  703SOL    HW1 9349  10.920  10.167   4.777 -0.0732 -0.4743 -0.2481
  703SOL    HW2 9350  10.850  10.036   4.747 -1.1764  0.4303 -1.8126
  704SOL     OW 9351   3.464   3.437   6.446  0.0393 -0.4242 -0.0373
  704SOL    HW1 9352   3.447   3.455   6.538  0.3882 -2.8155  0.5743
  704SOL    HW2 9353   3.543   3.488   6.425  0.4675 -0.5206  1.2580
  705SOL     OW 9354   5.137   3.336   0.403  0.2453  0.4095  0.0239
  705SOL    HW1 9355   5.111   3.426   0.384 -0.8346  0.1272  0.0962
  705SOL    HW2 9356   5.079   3.309   0.473  0.7831 -0.2408  0.2233
  706SOL     OW 9357  11.011   8.429   0.722 -0.5948  0.1943  0.9112
  706SOL    HW1 9358  11.022   8.352   0.777  1.0180  0.2451  0.7141
  706SOL    HW2 9359  11.060   8.498   0.767 -0.1271  0.5047 -0.0275
  707SOL     OW 9360  11.046   2.127   6.964  0.0168 -0.5061 -0.2392
  707SOL    HW1 9361  11.011   2.215   6.954  1.7124  0.3430  0.9480
  707SOL    HW2 9362  10.968   2.071   6.963 -1.3616  1.2163  1.4648
  708SOL     OW 9363   1.606   8.855  10.498  0.1519  0.6493 -0.2915
  708SOL    HW1 9364   1.649   8.810  10.570 -1.0888  0.8586  0.6018
  708SOL    HW2 9365   1.584   8.942  10.533 -0.7870  0.6227 -0.7932
  709SOL     OW 9366   5.953   4.287   7.934  0.0067  0.4777  0.1690
  709SOL    HW1 9367   5.975   4.376   7.907  0.1730  0.3320 -0.1718
  709SOL    HW2 9368   5.862   4.293   7.964  0.5232  1.1160  1.7145
  710SOL     OW 9369   4.857  11.257  11.294 -0.2257 -0.1477 -0.1117
  710SOL    HW1 9370   4.808  11.329  11.334  0.7616 -0.5584  2.0433
  710SOL    HW2 9371   4.934  11.299  11.256  0.2943 -0.0055  1.0456
  711SOL     OW 9372  10.573   4.908   0.403 -0.4108 -0.0540  0.1799
  711SOL    HW1 9373  10.551   4.991   0.445  1.3601  0.9298 -0.7131
  711SOL    HW2 9374  10.527   4.842   0.454  0.1794  1.2251  2.5074
  712SOL     OW 9375   6.697   5.480  11.834  0.3450 -0.2746  0.1539
  712SOL    HW1 9376   6.673   5.399  11.879  0.5566  0.5185  1.7695
  712SOL    HW2 9377   6.613   5.519  11.809  0.2283 -0.7880 -0.2646
  713SOL     OW 9378   4.825   4.189   8.424 -0.0918  0.2998 -0.8548
  713SOL    HW1 9379   4.775   4.231   8.355 -0.6071 -0.4558 -0.9539
  713SOL    HW2 9380   4.761   4.171   8.493  0.1588 -0.1262 -0.7254
  714SOL     OW 9381   3.132   4.979  10.519  0.3110 -0.0711  0.5489
  714SOL    HW1 9382   3.195   5.037  10.563  0.2003  2.9414 -2.7938
  714SOL    HW2 9383   3.186   4.919  10.468  0.4221 -0.2855  0.9095
  715SOL     OW 9384   5.472   6.355   0.205  0.4854  0.2551 -0.1357
  715SOL    HW1 9385   5.443   6.284   0.148  0.1126  0.1865  0.1332
  715SOL    HW2 9386   5.523   6.312   0.274  0.3772  0.2657 -0.0494
  716SOL     OW 9387  12.119   0.115  10.348 -0.3150 -0.4259 -0.1047
  716SOL    HW1 9388  12.029   0.097  10.323 -0.5057  0.3750 -0.0402
  716SOL    HW2 9389  12.133   0.063  10.427 -0.4706 -1.1328 -0.5379
  717SOL     OW 9390   4.055   7.262  10.050 -0.2703  0.8748 -0.6147
  717SOL    HW1 9391   3.979   7.233  10.100  0.6112 -1.4178 -0.4479
  717SOL    HW2 9392   4.039   7.354  10.031 -2.8285  0.5776 -0.1630
  718SOL     OW 9393   1.747  11.021   7.890  0.2971  0.0909 -0.0287
  718SOL    HW1 9394   1.754  11.116   7.902 -1.7875  0.5856 -2.0527
  718SOL    HW2 9395   1.797  11.004   7.810 -1.9594  0.0866 -1.5311
  719SOL     OW 9396   5.079   8.810   9.860 -0.1052 -0.1728 -0.0074
  719SOL    HW1 9397   5.062   8.719   9.837  1.9493 -1.3915  2.6693
  719SOL    HW2 9398   5.012   8.831   9.925 -0.3869  0.1433 -0.3942
  720SOL     OW 9399  11.223   4.822   4.655  0.5014  0.0010 -0.2769
  720SOL    HW1 9400  11.299   4.826   4.712  0.1706  1.6107  0.0755
  720SOL    HW2 9401  11.200   4.913   4.638 -0.9784 -0.4553 -0.8820
  721SOL     OW 9402   9.712   5.756   3.789 -0.3103 -0.1618 -0.2301
  721SOL    HW1 9403   9.781   5.804   3.744 -0.3135  0.3286  0.2711
  721SOL    HW2 9404   9.634   5.772   3.738 -0.2105 -0.0520 -0.3482
  722SOL     OW 9405   7.723   6.811   2.198 -0.4680  0.5052 -0.4601
  722SOL    HW1 9406   7.779   6.744   2.239 -0.1310  0.6911 -0.6142
  722SOL    HW2 9407   7.640   6.765   2.182 -0.7939  0.5677  0.8899
  723SOL     OW 9408   9.976   4.102  12.436 -0.5493  0.1912 -0.4805
  723SOL    HW1 9409  10.010   4.060  12.515  0.4590 -0.6716 -1.3389
  723SOL    HW2 9410   9.900   4.152  12.466 -1.6174 -1.9720  0.6684
  724SOL     OW 9411   7.345   3.473   1.037 -0.2385 -0.1144  0.4289
  724SOL    HW1 9412   7.409   3.529   1.081 -0.6189 -0.3386  1.2914
  724SOL    HW2 9413   7.265   3.482   1.089 -0.0700 -2.1231  1.1344
  725SOL     OW 9414  10.291  12.646   4.577  0.1244  0.4145  0.2048
  725SOL    HW1 9415  10.300  12.633   4.482 -1.0440  1.1649 -0.0298
  725SOL    HW2 9416  10.213  12.700   4.586 -0.6727 -0.9000  1.6887
  726SOL     OW 9417  12.464   1.772   3.768 -0.1863 -0.2934  0.3778
  726SOL    HW1 9418  12.432   1.862   3.774 -0.7801 -0.5235  0.8208
  726SOL    HW2 9419  12.437   1.743   3.681  0.7732  0.2334 -0.1072
  727SOL     OW 9420   1.102   9.957   1.624  0.0248 -0.1585  0.0716
  727SOL    HW1 9421   1.046   9.967   1.548 -0.2843  0.0412  0.3226
  727SOL    HW2 9422   1.179  10.011   1.605  0.0498 -0.2875 -0.1920
  728SOL     OW 9423   7.315   0.574  10.463  0.2741  0.2752 -0.3126
  728SOL    HW1 9424   7.404   0.607  10.475  1.3323 -2.1916 -0.6837
  728SOL    HW2 9425   7.313   0.542  10.372 -0.7623 -0.2791 -0.1146
  729SOL     OW 9426   7.865   9.493   4.586  0.0402  0.5722 -0.0413
  729SOL    HW1 9427   7.873   9.497   4.682  1.5475 -2.3205  0.0524
  729SOL    HW2 9428   7.801   9.424   4.570  0.7080  0.1901 -1.1136
  730SOL     OW 9429   6.634   2.281   2.171 -0.1512  0.0493  0.1643
  730SOL    HW1 9430   6.602   2.228   2.245  1.2615  0.0941  0.8322
  730SOL    HW2 9431   6.581   2.252   2.097 -1.9934  0.3671  1.2612
  731SOL     OW 9432   1.711   7.484   1.632 -0.3760  0.2553  0.1586
  731SOL    HW1 9433   1.666   7.484   1.717 -0.0114  1.6239  0.3700
  731SOL    HW2 9434   1.715   7.576   1.606 -0.4002 -0.1395 -1.3162
  732SOL     OW 9435  11.624   3.105   9.432  0.2766 -0.1065  0.2157
  732SOL    HW1 9436  11.677   3.028   9.411 -0.3607 -0.0700 -1.6810
  732SOL    HW2 9437  11.582   3.129   9.350 -1.5709  0.7275  1.3293
  733SOL     OW 9438   1.600   3.299   2.541 -0.2157 -1.1355 -0.2095
  733SOL    HW1 9439   1.621   3.382   2.583  1.5882 -1.2603 -0.7835
  733SOL    HW2 9440   1.516   3.314   2.498 -1.1674 -0.4145  1.7806
  734SOL     OW 9441   5.173  11.835  10.762 -0.0229  0.4954 -0.0825
  734SOL    HW1 9442   5.156  11.746  10.731 -0.1036  0.3855  0.2721
  734SOL    HW2 9443   5.114  11.891  10.711 -1.2108  0.1592  0.8862
  735SOL     OW 9444   8.312   4.627  10.823 -0.5347  0.5749 -0.3104
  735SOL    HW1 9445   8.393   4.658  10.783 -1.1493  1.3677 -0.9966
  735SOL    HW2 9446   8.337   4.550  10.874  0.6332  0.7981 -0.5321
  736SOL     OW 9447   3.870  10.365   8.445 -0.6656  0.7008  0.3764
  736SOL    HW1 9448   3.780  10.392   8.464 -0.6519 -0.0002  1.5937
  736SOL    HW2 9449   3.910  10.441   8.403 -1.9553  0.8518 -0.6489
  737SOL     OW 9450   7.964  11.290   6.652  0.0784  0.1024 -0.1873
  737SOL    HW1 9451   7.980  11.320   6.562 -0.1396 -0.9959 -0.6109
  737SOL    HW2 9452   7.879  11.247   6.648  1.3473 -2.5728 -0.1575
  738SOL     OW 9453   4.805   5.746   6.684 -0.3447  0.0895  0.2884
  738SOL    HW1 9454   4.716   5.780   6.688  0.1535  1.4473  0.4196
  738SOL    HW2 9455   4.796   5.652   6.704 -1.7157  0.2278  0.4092
  739SOL     OW 9456   2.291   1.677   8.894  0.4883 -0.1945 -0.1572
  739SOL    HW1 9457   2.355   1.742   8.923  0.6275 -0.2974 -0.2361
  739SOL    HW2 9458   2.310   1.665   8.801  3.0230 -3.2160  0.5968
  740SOL     OW 9459   5.377   9.492   7.881 -0.5815  0.6937  0.0342
  740SOL    HW1 9460   5.369   9.422   7.816 -1.1123 -1.1293  1.9257
  740SOL    HW2 9461   5.287   9.522   7.894 -0.3115  2.0700 -1.0535
  741SOL     OW 9462  11.533  10.299   2.938  0.3964  0.0740 -0.3609
  741SOL    HW1 9463  11.524  10.301   2.843  1.3030  0.4014 -0.4544
  741SOL    HW2 9464  11.589  10.375   2.958 -0.2676  0.3534  0.4895
  742SOL     OW 9465  12.210   1.787   0.080 -0.2882  0.0020  0.1987
  742SOL    HW1 9466  12.279   1.723   0.067  0.0682  0.4530 -0.1510
  742SOL    HW2 9467  12.150   1.774   0.006 -1.2905 -1.2717  1.1921
  743SOL     OW 9468  11.657   8.219   5.186 -0.3520  0.0807 -0.3979
  743SOL    HW1 9469  11.748   8.229   5.212 -1.0134  2.4368  1.2723
  743SOL    HW2 9470  11.616   8.171   5.258 -0.7372  0.3601 -0.4267
  744SOL     OW 9471   3.860   3.751   9.454 -0.1106  0.4021 -0.2113
  744SOL    HW1 9472   3.861   3.737   9.360  1.1362  1.0317 -0.3231
  744SOL    HW2 9473   3.938   3.804   9.471 -0.7783  1.0360  1.0644
  745SOL     OW 9474   3.151   7.296   1.611  0.0485  0.3165  0.5182
  745SOL    HW1 9475   3.228   7.255   1.571 -0.4080  0.1775 -0.2476
  745SOL    HW2 9476   3.077   7.252   1.570 -0.4499  1.2860  0.3402
  746SOL     OW 9477   9.464  10.612  11.182  0.2858  0.0674  0.0165
  746SOL    HW1 9478   9.374  10.588  11.162  0.3219 -0.8940  0.9381
  746SOL    HW2 9479   9.457  10.701  11.218 -0.0671  0.7174 -1.5700
  747SOL     OW 9480   6.100   6.206  11.940  0.4184  0.1145 -0.0651
  747SOL    HW1 9481   6.086   6.202  11.845 -1.2780 -1.1908  0.1930
  747SOL    HW2 9482   6.134   6.119  11.962  0.4011  0.2747  0.5926
  748SOL     OW 9483   5.106   3.704   2.390 -0.4941  0.8112 -0.3726
  748SOL    HW1 9484   5.094   3.795   2.363 -0.8886  0.6943 -0.6023
  748SOL    HW2 9485   5.167   3.709   2.464  2.0784  0.9941 -2.3610
  749SOL     OW 9486   1.370   1.848   7.665  0.1149 -0.4220 -0.7325
  749SOL    HW1 9487   1.445   1.845   7.724  0.7374 -1.5608 -1.5431
  749SOL    HW2 9488   1.316   1.773   7.691 -0.9011  0.5353  0.0136
  750SOL     OW 9489   4.173   5.254   1.642  0.0794  0.4867  0.4251
  750SOL    HW1 9490   4.221   5.284   1.565 -1.2061  0.1915 -0.5142
  750SOL    HW2 9491   4.193   5.161   1.648  0.7398  0.6486  0.8849
  751SOL     OW 9492   9.817   2.867  11.244 -0.3057 -0.0060 -0.2598
  751SOL    HW1 9493   9.911   2.852  11.246 -0.4248 -1.2164 -1.8857
  751SOL    HW2 9494   9.779   2.780  11.234 -1.8236  0.0425  3.5267
  752SOL     OW 9495  12.688   4.909  12.669 -0.2120 -0.0290  0.5634
  752SOL    HW1 9496  12.650   4.916  12.757  0.6205  0.4966  0.8924
  752SOL    HW2 9497  12.615   4.883  12.614 -1.3243  1.9124  1.0046
  753SOL     OW 9498   1.320   1.389  12.459  0.2808 -0.5197  0.2368
  753SOL    HW1 9499   1.378   1.371  12.385 -0.1304 -0.2266 -0.1712
  753SOL    HW2 9500   1.279   1.473  12.437 -1.2282 -1.3011 -0.1076
  754SOL     OW 9501   4.549  11.794   5.354 -0.0201 -0.4194 -0.0651
  754SOL    HW1 9502   4.586  11.775   5.268  1.2371 -2.2299  0.8340
  754SOL    HW2 9503   4.576  11.884   5.372  0.0438 -0.1591 -1.3736
  755SOL     OW 9504   3.115   3.796   0.714 -0.0840 -0.1927  0.2505
  755SOL    HW1 9505   3.037   3.752   0.747 -1.3193 -0.3347 -2.5185
  755SOL    HW2 9506   3.134   3.751   0.631  0.9243  1.9533 -0.7554
  756SOL     OW 9507   3.990   1.910  11.794  0.0653 -0.4072  0.4937
  756SOL    HW1 9508   3.913   1.855  11.806  0.1598 -0.7068 -0.1896
  756SOL    HW2 9509   4.064   1.853  11.813  0.2287 -0.9785 -1.6071
  757SOL     OW 9510   4.521   1.646   8.657  0.1194  0.4349  0.1951
  757SOL    HW1 9511   4.557   1.693   8.582 -0.8538  1.6358  0.4564
  757SOL    HW2 9512   4.435   1.685   8.671 -1.7757 -2.8609 -0.9419
  758SOL     OW 9513  11.891   2.501   5.527  0.0412  1.0161 -0.3461
  758SOL    HW1 9514  11.918   2.579   5.478 -0.7404  1.8636  0.5371
  758SOL    HW2 9515  11.890   2.530   5.618  1.8317 -0.6332  0.2497
  759SOL     OW 9516   8.124  10.305   6.792  0.4099  0.1724  0.0741
  759SOL    HW1 9517   8.179  10.286   6.715  0.6165  1.7520 -0.1947
  759SOL    HW2 9518   8.042  10.338   6.755  0.8004  1.7111  0.5075
  760SOL     OW 9519   8.558   0.229   7.687  0.1296 -0.0451 -0.2568
  760SOL    HW1 9520   8.492   0.221   7.756 -0.6743 -0.9616 -1.0911
  760SOL    HW2 9521   8.631   0.274   7.729 -1.4005  1.9372  0.4165
  761SOL     OW 9522   3.301  12.030   5.233 -0.5874  0.2026 -0.3753
  761SOL    HW1 9523   3.232  12.096   5.229 -0.2076  0.8204  1.8537
  761SOL    HW2 9524   3.258  11.952   5.267  0.0372  1.1300  2.8876
  762SOL     OW 9525   0.193   2.675   1.321  0.2233  0.1948 -0.2013
  762SOL    HW1 9526   0.172   2.582   1.330  1.4790 -0.1302 -0.4453
  762SOL    HW2 9527   0.130   2.719   1.379  1.5393 -1.0626  2.3872
  763SOL     OW 9528  10.662   5.468  11.595  0.5026  0.2182  0.3081
  763SOL    HW1 9529  10.692   5.459  11.505  1.9390 -0.5928  0.8451
  763SOL    HW2 9530  10.721   5.413  11.647 -1.5319 -0.9878  1.5178
  764SOL     OW 9531   7.898  10.763   4.287 -0.4008 -0.5008  0.9739
  764SOL    HW1 9532   7.899  10.786   4.379  0.5994 -2.0331  1.3978
  764SOL    HW2 9533   7.921  10.670   4.286  0.9574 -0.2052 -0.8805
  765SOL     OW 9534  12.241   1.086   7.011 -0.1929  0.7296  0.3461
  765SOL    HW1 9535  12.297   1.039   6.949 -0.1404 -0.4628  1.2719
  765SOL    HW2 9536  12.276   1.175   7.012 -0.7730  1.0780 -2.0496
  766SOL     OW 9537   2.842   6.436   8.313  0.9230 -0.4861  0.2211
  766SOL    HW1 9538   2.838   6.342   8.294 -0.0003 -0.9210  2.3482
  766SOL    HW2 9539   2.913   6.445   8.377 -0.3007 -0.0629  1.5652
  767SOL     OW 9540  10.144   4.383   1.816  0.0572 -0.6739  0.3099
  767SOL    HW1 9541  10.187   4.378   1.902 -0.9367 -0.8968  0.8046
  767SOL    HW2 9542  10.213   4.361   1.754  0.8882 -0.1662  1.0221
  768SOL     OW 9543   6.187   4.260   4.413 -0.0901 -0.2387 -0.4316
  768SOL    HW1 9544   6.159   4.280   4.503  0.0898 -0.3695 -0.3477
  768SOL    HW2 9545   6.188   4.164   4.409 -0.7985 -0.2349 -0.7885
  769SOL     OW 9546   0.759   6.698   5.696  0.0202  0.1396  0.5435
  769SOL    HW1 9547   0.792   6.614   5.666 -0.8650 -0.1067  0.2217
  769SOL    HW2 9548   0.667   6.699   5.669 -0.2056  0.8559  1.2936
  770SOL     OW 9549   2.780   3.291   6.688 -0.2142 -0.2521 -0.1338
  770SOL    HW1 9550   2.715   3.228   6.656 -0.5696  1.2837 -2.6215
  770SOL    HW2 9551   2.860   3.239   6.697 -1.0028 -1.5067 -0.0228
  771SOL     OW 9552   0.950   4.803   5.503  0.0965 -0.1688 -0.2697
  771SOL    HW1 9553   1.034   4.846   5.488  0.1538 -0.3341 -0.4225
  771SOL    HW2 9554   0.926   4.765   5.418 -1.0417  1.4809 -0.7297
  772SOL     OW 9555   6.310   9.641  10.906  0.5950  0.4623  0.3715
  772SOL    HW1 9556   6.304   9.703  10.834  1.5835  1.2860  0.9655
  772SOL    HW2 9557   6.375   9.577  10.877 -1.6597 -1.3751 -0.9666
  773SOL     OW 9558   7.669   8.316   2.102 -0.0831  0.3981  0.5250
  773SOL    HW1 9559   7.608   8.383   2.131 -1.0537 -0.1454 -0.1669
  773SOL    HW2 9560   7.733   8.308   2.173  0.5751  2.6272  0.2701
  774SOL     OW 9561   1.554   3.542  12.325  0.1790 -0.3079 -0.2193
  774SOL    HW1 9562   1.601   3.590  12.393 -2.7086  0.4714  1.4203
  774SOL    HW2 9563   1.598   3.458  12.320  1.8758  0.4451  0.9612
  775SOL     OW 9564   3.906   7.369   1.520 -0.5991  0.1225  0.1120
  775SOL    HW1 9565   3.955   7.448   1.496 -0.1109 -0.7135 -1.8506
  775SOL    HW2 9566   3.944   7.340   1.602  0.2704  1.0707  0.0575
  776SOL     OW 9567   8.867   3.455   4.095 -0.3396 -0.1949  0.0723
  776SOL    HW1 9568   8.881   3.434   4.003 -0.6444 -1.4043  0.2844
  776SOL    HW2 9569   8.935   3.519   4.117  0.8293 -1.2044 -0.5336
  777SOL     OW 9570   2.442   0.747   9.205 -0.7849  0.1415 -0.0554
  777SOL    HW1 9571   2.479   0.660   9.219  0.2219  0.5803  0.0815
  777SOL    HW2 9572   2.451   0.762   9.111 -2.1307 -0.4003 -0.2976
  778SOL     OW 9573   6.006   9.860  10.887 -0.3561  0.1234 -0.3307
  778SOL    HW1 9574   6.026   9.775  10.926 -0.6712  0.1379 -0.1253
  778SOL    HW2 9575   5.923   9.846  10.841 -0.6177  0.4114  0.0363
  779SOL     OW 9576   5.333   1.707   7.080  0.6995 -0.0976 -0.3115
  779SOL    HW1 9577   5.396   1.777   7.062  0.5267 -0.2694 -1.6767
  779SOL    HW2 9578   5.373   1.628   7.042  0.1587 -0.4202 -0.2160
  780SOL     OW 9579   6.303   4.948   2.138  0.4451  0.3699 -0.1072
  780SOL    HW1 9580   6.336   4.933   2.050  0.3403  2.2299 -0.5074
  780SOL    HW2 9581   6.214   4.913   2.137  0.2175  0.9586 -0.9434
  781SOL     OW 9582   3.220   7.432   2.672  0.1444 -0.2263  0.1812
  781SOL    HW1 9583   3.264   7.517   2.681  2.0270 -1.2631  1.5184
  781SOL    HW2 9584   3.155   7.446   2.603  0.7538  2.1460 -0.0089
  782SOL     OW 9585   9.326   3.786   7.702  0.5269  0.0696 -0.0383
  782SOL    HW1 9586   9.342   3.864   7.754  0.1084  0.7665 -0.9186
  782SOL    HW2 9587   9.230   3.779   7.699  0.5429  0.1719 -0.8979
  783SOL     OW 9588  10.465   2.442  11.909 -0.0395  0.4027 -0.1581
  783SOL    HW1 9589  10.481   2.490  11.828  0.9635 -0.1348 -0.2964
  783SOL    HW2 9590  10.530   2.477  11.971  0.4765 -0.4993 -0.1586
  784SOL     OW 9591   6.470   7.156   0.789 -0.0037 -0.2071  0.1921
  784SOL    HW1 9592   6.376   7.160   0.773 -0.1154 -1.5478  0.4259
  784SOL    HW2 9593   6.480   7.182   0.880  0.0019  1.2142 -0.1921
  785SOL     OW 9594  12.276   4.402   0.933  0.6701 -0.3100 -0.1455
  785SOL    HW1 9595  12.320   4.472   0.982  0.7732 -0.9745  0.7431
  785SOL    HW2 9596  12.188   4.398   0.972  0.5529 -0.4579 -0.4244
  786SOL     OW 9597   8.196   5.035  12.161  0.0488  0.0935  0.7310
  786SOL    HW1 9598   8.156   5.009  12.244 -1.9096  1.8342  0.4069
  786SOL    HW2 9599   8.146   4.989  12.094  1.1100 -0.6808  0.4365
  787SOL     OW 9600   0.103   7.260   3.759 -0.0435  0.1301  0.0237
  787SOL    HW1 9601   0.141   7.346   3.741 -0.9575  0.5701  0.1202
  787SOL    HW2 9602   0.167   7.198   3.724  0.7242  0.8379  0.1249
  788SOL     OW 9603   9.966   7.171   8.322  0.6360  0.5778 -0.0356
  788SOL    HW1 9604   9.885   7.201   8.362  0.7981 -0.2877  1.0075
  788SOL    HW2 9605  10.035   7.201   8.381  1.0497  0.9398 -0.6863
  789SOL     OW 9606   8.188   3.571  12.497  0.1464 -0.8383  0.5751
  789SOL    HW1 9607   8.274   3.560  12.538  0.4440 -1.2278 -0.1265
  789SOL    HW2 9608   8.126   3.534  12.559  0.6125 -1.6884  0.5409
  790SOL     OW 9609  11.847  10.421  10.876  0.3798 -0.0208  0.4978
  790SOL    HW1 9610  11.873  10.463  10.794  1.8387  0.4556  1.1512
  790SOL    HW2 9611  11.822  10.332  10.852  0.7667  0.1273 -0.4735
  791SOL     OW 9612   8.552   1.808   7.918  0.2922  0.7814 -0.3309
  791SOL    HW1 9613   8.544   1.894   7.876 -1.1197  2.1488  2.4337
  791SOL    HW2 9614   8.528   1.746   7.850 -0.0695  2.6708 -2.0348
  792SOL     OW 9615  10.179   1.183  11.134  0.1716 -0.1510  0.3187
  792SOL    HW1 9616  10.214   1.202  11.047  0.2561  0.8284  0.5614
  792SOL    HW2 9617  10.146   1.093  11.127  3.4049 -1.4530  0.2875
  793SOL     OW 9618   9.360  11.230   7.394  0.4721  0.8949  0.3040
  793SOL    HW1 9619   9.285  11.175   7.416 -0.6170  2.4768  0.6582
  793SOL    HW2 9620   9.436  11.173   7.407 -0.5909 -0.4152  0.9820
  794SOL     OW 9621   6.441  12.665   8.355  0.0973  0.1385  0.1585
  794SOL    HW1 9622   6.350  12.658   8.386  1.2950 -2.9596  3.7748
  794SOL    HW2 9623   6.441  12.626   8.268 -1.7869 -1.4156  0.8001
  795SOL     OW 9624   5.745  12.012   5.555  0.2040  0.7043  0.1436
  795SOL    HW1 9625   5.744  11.950   5.628 -2.2603  0.0142 -0.3777
  795SOL    HW2 9626   5.718  12.095   5.594  0.9225  0.8404  0.3660
  796SOL     OW 9627   4.943   0.090   9.525 -0.3278 -0.0152 -0.3557
  796SOL    HW1 9628   4.850   0.089   9.501 -0.6779  0.0385  0.9256
  796SOL    HW2 9629   4.949   0.156   9.593  0.8005  0.4837 -0.9180
  797SOL     OW 9630   7.922  10.281   0.805 -1.3356 -0.0829  0.4709
  797SOL    HW1 9631   7.858  10.216   0.835  1.6853 -2.8203  1.5682
  797SOL    HW2 9632   7.922  10.272   0.710 -1.2460 -1.4879  0.5802
  798SOL     OW 9633  12.393   2.018   4.942 -0.8836 -0.0434 -0.6698
  798SOL    HW1 9634  12.339   2.062   5.008 -0.4797 -0.4688 -0.0496
  798SOL    HW2 9635  12.399   2.082   4.871 -0.5706  0.8061  0.0848
  799SOL     OW 9636   8.460   6.750   8.821  0.3327  0.1362 -0.2430
  799SOL    HW1 9637   8.413   6.830   8.798 -1.6003 -0.2170  2.0366
  799SOL    HW2 9638   8.513   6.774   8.898 -1.1114 -0.9362  1.1584
  800SOL     OW 9639   6.654   1.885   7.964  0.4883 -0.5903 -0.2377
  800SOL    HW1 9640   6.695   1.942   8.029 -0.9860 -0.2760  0.4565
  800SOL    HW2 9641   6.691   1.799   7.980  0.5794 -0.3972  0.6475
  801SOL     OW 9642   1.682   5.586   3.095  0.1345 -0.1240 -0.4408
  801SOL    HW1 9643   1.605   5.603   3.149  1.6850  1.5073  1.3831
  801SOL    HW2 9644   1.679   5.491   3.081 -1.7241 -0.2328  0.2997
  802SOL     OW 9645  12.049  11.525   9.065 -0.0453  0.4349 -0.1956
  802SOL    HW1 9646  12.044  11.620   9.059 -0.5762  0.4946  0.9518
  802SOL    HW2 9647  12.017  11.504   9.153 -0.8801 -0.8669 -0.7628
  803SOL     OW 9648   4.026  12.625   3.824  0.0762  0.0659  0.9188
  803SOL    HW1 9649   3.984  12.574   3.893 -1.0800 -1.6646 -0.9792
  803SOL    HW2 9650   3.954  12.653   3.767  0.2632  5.6523  2.7523
  804SOL     OW 9651   0.063   0.230   5.630 -0.2915 -0.3922 -0.2749
  804SOL    HW1 9652   0.032   0.166   5.567 -2.9710  0.4831  0.0528
  804SOL    HW2 9653   0.101   0.300   5.576 -0.3701 -0.7348 -0.7810
  805SOL     OW 9654   5.394  12.636  10.917  0.0469  0.1191 -0.2056
  805SOL    HW1 9655   5.420  12.699  10.850 -1.4603  0.3414 -0.6166
  805SOL    HW2 9656   5.317  12.675  10.958 -0.2826 -0.9731  0.2471
  806SOL     OW 9657  12.376  11.522   3.977 -0.1609 -0.1241  0.3011
  806SOL    HW1 9658  12.366  11.616   3.984 -0.2315 -0.1881  1.1486
  806SOL    HW2 9659  12.458  11.510   3.928  0.1092  0.3759  0.6244
  807SOL     OW 9660   0.597  11.617   6.969 -0.1951 -0.4202 -0.5761
  807SOL    HW1 9661   0.619  11.555   7.038 -0.4760  0.1840  0.0624
  807SOL    HW2 9662   0.638  11.580   6.890  2.4647  0.2309  0.4026
  808SOL     OW 9663   6.640   3.455   6.655  0.0023  0.4389 -0.2708
  808SOL    HW1 9664   6.551   3.420   6.667  0.0294  0.7494  0.9303
  808SOL    HW2 9665   6.641   3.487   6.565 -0.8572 -0.2750 -0.5470
  809SOL     OW 9666   6.069   4.022  11.786  0.0413 -0.1967 -0.4744
  809SOL    HW1 9667   6.009   4.027  11.861 -2.1670  0.1506 -2.1677
  809SOL    HW2 9668   6.107   3.934  11.792  2.6334  0.9279  2.9118
  810SOL     OW 9669   3.158   0.407   2.625  0.5193 -0.1910 -0.0461
  810SOL    HW1 9670   3.136   0.396   2.533 -1.6776  2.7051 -0.0126
  810SOL    HW2 9671   3.179   0.500   2.634  0.3216 -0.3132  2.4369
  811SOL     OW 9672   4.746   7.966   9.056 -0.0064  0.4580  0.2541
  811SOL    HW1 9673   4.676   8.009   9.104 -0.9828  1.3732 -1.8507
  811SOL    HW2 9674   4.704   7.893   9.011  1.0858 -1.0259  1.5293
  812SOL     OW 9675  11.217  10.055  12.587 -0.1144  0.5623 -0.4059
  812SOL    HW1 9676  11.134  10.010  12.574 -0.4975  1.5765 -1.6327
  812SOL    HW2 9677  11.193  10.137  12.631  0.5446 -0.2216  1.5576
  813SOL     OW 9678   1.546   9.101  12.664  0.5666  0.1588 -0.1742
  813SOL    HW1 9679   1.607   9.149  12.609 -0.5434  0.7634 -0.9178
  813SOL    HW2 9680   1.480   9.068  12.603  0.8778 -1.6845  0.4193
  814SOL     OW 9681   1.109  11.678   6.062  0.1025 -0.7933 -0.3168
  814SOL    HW1 9682   1.145  11.591   6.074 -0.7251 -1.4540 -2.1795
  814SOL    HW2 9683   1.028  11.664   6.013  0.9252  1.1149 -2.4135
  815SOL     OW 9684   4.417   8.282   6.042 -0.5311  0.4491 -0.0382
  815SOL    HW1 9685   4.374   8.328   5.971  0.0970  0.7276 -0.2477
  815SOL    HW2 9686   4.399   8.334   6.120  0.1701  1.0588 -0.2721
  816SOL     OW 9687   3.178  10.416   8.986 -0.1760 -0.1367 -0.2524
  816SOL    HW1 9688   3.083  10.429   8.980 -0.3281 -1.3270 -0.8980
  816SOL    HW2 9689   3.199  10.363   8.909  0.9423 -0.2653  0.1245
  817SOL     OW 9690  11.786   8.032   3.720  0.3539 -0.5728 -0.5455
  817SOL    HW1 9691  11.765   8.013   3.628 -0.3521  0.4034 -0.5965
  817SOL    HW2 9692  11.865   8.086   3.716  0.4333 -0.6873 -0.5582
  818SOL     OW 9693  11.550   8.538   6.745  0.2713 -0.3827  0.3321
  818SOL    HW1 9694  11.618   8.541   6.813  1.1183 -3.3256 -0.2879
  818SOL    HW2 9695  11.598   8.537   6.663 -0.7012  1.1970 -0.3010
  819SOL     OW 9696   6.927   8.362   1.729 -0.4134 -0.4902 -0.1071
  819SOL    HW1 9697   6.915   8.304   1.804 -1.1710  1.1114  1.0494
  819SOL    HW2 9698   6.855   8.424   1.735  0.2905  0.4864 -1.4043
  820SOL     OW 9699  11.253   5.508  11.478 -0.1789  0.1938 -0.7297
  820SOL    HW1 9700  11.236   5.582  11.536  1.2507  0.7135 -0.9264
  820SOL    HW2 9701  11.177   5.506  11.419  0.4463  2.5283 -1.7483
  821SOL     OW 9702   6.301   0.255   2.889  0.4662 -0.5271  0.4961
  821SOL    HW1 9703   6.367   0.273   2.957  1.5245 -0.7245 -0.4544
  821SOL    HW2 9704   6.323   0.315   2.818 -1.1733  0.3082  0.6410
  822SOL     OW 9705   5.902   5.154   6.278  0.0370  0.0260 -0.6644
  822SOL    HW1 9706   5.971   5.206   6.319  1.2850 -2.5302  0.7419
  822SOL    HW2 9707   5.857   5.112   6.352  0.1111 -2.0604 -1.7452
  823SOL     OW 9708  12.564   1.535   1.512  0.6786 -0.3835 -0.0932
  823SOL    HW1 9709  12.626   1.475   1.471  0.0646 -1.6033  0.6877
  823SOL    HW2 9710  12.561   1.507   1.604 -1.6893 -0.9705 -0.2949
  824SOL     OW 9711   6.203   6.687   8.705 -0.3785 -0.1372  0.4010
  824SOL    HW1 9712   6.187   6.606   8.656  0.8476 -0.2873  0.2105
  824SOL    HW2 9713   6.285   6.720   8.669 -1.1848  1.5381  0.0411
  825SOL     OW 9714   9.593  10.482   8.315 -0.1029  0.0209 -0.1011
  825SOL    HW1 9715   9.519  10.443   8.362  1.3323 -1.6313  0.9413
  825SOL    HW2 9716   9.617  10.558   8.367 -0.0045 -0.4436  0.5480
  826SOL     OW 9717   0.256   5.195   8.062  0.2107  0.4776 -0.2200
  826SOL    HW1 9718   0.171   5.151   8.063  0.2434  0.3344  2.3170
  826SOL    HW2 9719   0.309   5.146   8.000 -0.2403 -2.1716  1.3447
  827SOL     OW 9720   4.580   9.700  12.682  0.2240  0.7312 -0.1461
  827SOL    HW1 9721   4.662   9.715  12.729  1.6247  2.0559 -2.7920
  827SOL    HW2 9722   4.578   9.605  12.668  0.8923  0.5861  0.6561
  828SOL     OW 9723   2.191  11.863  12.359  0.4435 -0.1256 -0.0255
  828SOL    HW1 9724   2.229  11.775  12.365  1.4046 -0.0100 -2.8975
  828SOL    HW2 9725   2.257  11.921  12.396  1.0951 -0.3836 -0.7497
  829SOL     OW 9726   6.871   0.517   3.432  0.0210  0.0709 -0.0297
  829SOL    HW1 9727   6.886   0.422   3.436 -1.2257 -0.1133  1.0568
  829SOL    HW2 9728   6.780   0.528   3.458 -0.3426  1.4715 -1.6953
  830SOL     OW 9729   8.072   0.881   8.260  0.3789 -0.2927 -0.1009
  830SOL    HW1 9730   8.021   0.938   8.317  0.0836 -0.4866 -0.1741
  830SOL    HW2 9731   8.161   0.917   8.265 -0.3045  2.1788 -2.5554
  831SOL     OW 9732   5.701   6.944  11.754 -0.0920  0.2830 -0.4464
  831SOL    HW1 9733   5.612   6.949  11.790 -0.3867  0.6438 -1.2096
  831SOL    HW2 9734   5.753   7.004  11.807 -0.4309  0.4916 -0.3505
  832SOL     OW 9735  10.114  10.566   1.890 -0.1459 -0.5937 -0.0360
  832SOL    HW1 9736  10.091  10.654   1.860  1.4646 -0.2858 -0.4610
  832SOL    HW2 9737  10.102  10.511   1.813 -1.2582 -0.7891  0.2584
  833SOL     OW 9738   5.628   5.380  11.443  0.1583 -0.1617 -0.1631
  833SOL    HW1 9739   5.707   5.393  11.390  0.5229 -1.0208  0.1579
  833SOL    HW2 9740   5.648   5.423  11.526 -0.6195  1.6594 -0.8739
  834SOL     OW 9741   0.017  11.037   9.668  0.2610 -0.7539  0.7296
  834SOL    HW1 9742  -0.037  11.087   9.729 -0.1121  0.9334 -0.8951
  834SOL    HW2 9743  -0.041  10.967   9.637  0.0797 -0.9038  1.3698
  835SOL     OW 9744   9.752   8.675   6.702  0.5203  0.3505  0.5818
  835SOL    HW1 9745   9.671   8.695   6.748  0.8685  1.1589  0.8634
  835SOL    HW2 9746   9.756   8.740   6.632  1.3468  0.8699  1.0995
  836SOL     OW 9747   5.998   5.771   9.169  0.2172 -0.8339  0.0717
  836SOL    HW1 9748   6.031   5.857   9.143 -0.8808  0.1069  1.6098
  836SOL    HW2 9749   5.948   5.742   9.093  1.1518 -0.4289 -0.7209
  837SOL     OW 9750   8.900  12.204   0.135  0.3301 -0.6362  0.6843
  837SOL    HW1 9751   8.954  12.283   0.131  0.0085 -0.3139  2.1322
  837SOL    HW2 9752   8.817  12.230   0.095  1.0620 -1.0211 -1.1968
  838SOL     OW 9753   7.464   4.707   1.785 -0.0036  0.2910 -0.4543
  838SOL    HW1 9754   7.388   4.654   1.760  0.3712 -1.0172  1.0142
  838SOL    HW2 9755   7.494   4.668   1.867 -0.1255  3.2399  1.1304
  839SOL     OW 9756   8.934  10.211  10.027 -0.0015 -0.1478  0.0202
  839SOL    HW1 9757   9.028  10.223  10.034  0.0289  2.0053 -2.5670
  839SOL    HW2 9758   8.900  10.240  10.111  1.5425  0.0311  0.6160
  840SOL     OW 9759   2.004   6.292   8.627  0.0591  0.2556  0.5057
  840SOL    HW1 9760   2.048   6.221   8.580 -1.1204  0.3221 -0.7482
  840SOL    HW2 9761   1.993   6.259   8.716 -0.4990 -1.1519 -0.0648
  841SOL     OW 9762   8.131  10.846   8.059 -0.3487  0.2963 -0.4307
  841SOL    HW1 9763   8.220  10.852   8.094 -0.5034 -1.1324  0.3052
  841SOL    HW2 9764   8.133  10.770   8.001 -1.4574 -0.8321  0.9190
  842SOL     OW 9765  11.026   8.424   3.856 -0.5202 -0.2394  0.2406
  842SOL    HW1 9766  11.055   8.341   3.818  0.7601  0.5399 -0.5709
  842SOL    HW2 9767  11.107   8.470   3.878 -1.1658 -0.2715  3.2037
  843SOL     OW 9768   2.656   5.892   7.977 -0.2397  0.2063  0.3796
  843SOL    HW1 9769   2.668   5.892   8.072  1.4631  0.3912  0.1887
  843SOL    HW2 9770   2.699   5.811   7.948 -1.0666 -0.0334 -0.2136
  844SOL     OW 9771   9.348  10.944   1.789  0.7123 -0.2488 -0.0257
  844SOL    HW1 9772   9.312  11.024   1.751  0.7648  1.3593  3.0186
  844SOL    HW2 9773   9.274  10.883   1.791 -0.1600  0.7904  0.3403
  845SOL     OW 9774  10.492   6.254   9.489 -0.5252  0.0956  0.6583
  845SOL    HW1 9775  10.521   6.163   9.494 -0.2876  0.1393  0.2120
  845SOL    HW2 9776  10.527   6.285   9.405 -0.9441  0.4784  0.6203
  846SOL     OW 9777   4.483   3.185   2.701 -0.2971  0.0827  0.1317
  846SOL    HW1 9778   4.567   3.140   2.698  0.0361  0.6672  0.4986
  846SOL    HW2 9779   4.493   3.259   2.641  0.3326  1.6037  2.0296
  847SOL     OW 9780   1.081   3.135  11.259  0.0989  0.2822  0.3529
  847SOL    HW1 9781   1.140   3.094  11.321  0.7749  0.7619  0.0376
  847SOL    HW2 9782   1.135   3.151  11.181 -0.5495  0.3464 -0.0935
  848SOL     OW 9783   4.190   0.199  12.018 -0.8662 -0.1011  0.0595
  848SOL    HW1 9784   4.100   0.183  11.992 -0.2069 -1.3967 -1.5589
  848SOL    HW2 9785   4.192   0.292  12.041 -3.1060 -0.5199  2.4085
  849SOL     OW 9786   5.514   9.661   7.721 -0.1204  0.1842 -0.2278
  849SOL    HW1 9787   5.451   9.732   7.735 -1.6807 -0.4686 -3.1191
  849SOL    HW2 9788   5.476   9.586   7.765 -1.3502 -0.1428 -1.7496
  850SOL     OW 9789   7.789   7.135   4.130 -0.1123  0.1799  0.2212
  850SOL    HW1 9790   7.883   7.149   4.124  0.1440 -1.7025 -1.0022
  850SOL    HW2 9791   7.755   7.164   4.045 -0.3540 -0.9561 -0.0782
  851SOL     OW 9792   6.867   9.462   0.272 -0.2051 -0.1033  0.4511
  851SOL    HW1 9793   6.955   9.436   0.243  0.3235  1.6624  0.3455
  851SOL    HW2 9794   6.808   9.414   0.214  0.7313 -0.4031 -0.2846
  852SOL     OW 9795   8.309  11.774   1.045  0.3228  0.0305  0.1058
  852SOL    HW1 9796   8.352  11.716   1.107  0.0058  0.1723  0.4631
  852SOL    HW2 9797   8.374  11.788   0.976 -0.2823 -2.3233 -1.0166
  853SOL     OW 9798   9.390  10.033   2.396 -0.5154 -0.0817  0.4081
  853SOL    HW1 9799   9.394  10.033   2.300  1.8946  0.9042  0.4232
  853SOL    HW2 9800   9.389   9.940   2.420  0.0394 -0.3693 -0.5876
  854SOL     OW 9801   1.307   3.554   5.627  0.4258  0.1273 -0.4011
  854SOL    HW1 9802   1.343   3.608   5.556  0.9017 -1.8013 -1.7158
  854SOL    HW2 9803   1.225   3.519   5.591 -0.2565  0.5601  0.7050
  855SOL     OW 9804   4.184   0.541   6.458 -0.5219 -0.2342  0.0478
  855SOL    HW1 9805   4.089   0.543   6.467 -0.5620 -0.0397 -0.3838
  855SOL    HW2 9806   4.199   0.543   6.363 -0.0626  1.0232  0.1316
  856SOL     OW 9807   2.370   4.794   9.876 -0.2995  0.4212 -0.0390
  856SOL    HW1 9808   2.387   4.824   9.786 -0.4827  2.6324  0.6019
  856SOL    HW2 9809   2.343   4.703   9.866  0.9233  0.2220 -2.1021
  857SOL     OW 9810   1.122  11.950   2.639  0.6716  0.8083  0.0574
  857SOL    HW1 9811   1.125  12.014   2.568  1.4049  0.2462 -0.4351
  857SOL    HW2 9812   1.085  11.998   2.713  0.2905  1.5228 -0.5784
  858SOL     OW 9813   5.204  11.665   1.607 -0.0212 -0.3139  0.3682
  858SOL    HW1 9814   5.213  11.678   1.701 -0.3397 -0.5226  0.4319
  858SOL    HW2 9815   5.131  11.604   1.598  0.9812 -1.5159  0.0621
  859SOL     OW 9816   1.945   3.708   8.906  0.4307 -0.4204 -0.1683
  859SOL    HW1 9817   2.014   3.735   8.846  0.1153  0.6355 -0.0655
  859SOL    HW2 9818   1.865   3.714   8.855 -0.0388  1.9846  0.7533
  860SOL     OW 9819   2.769   5.465   0.568  0.5106  0.1845  0.4555
  860SOL    HW1 9820   2.782   5.391   0.627  0.2756 -1.9963 -2.0619
  860SOL    HW2 9821   2.675   5.463   0.546  0.0668  2.4550  1.7397
  861SOL     OW 9822   7.867   3.891   8.677  0.5689  0.3633 -0.1089
  861SOL    HW1 9823   7.887   3.893   8.584  0.0566  0.2725 -0.2247
  861SOL    HW2 9824   7.915   3.815   8.710 -1.0769 -1.0244 -0.7507
  862SOL     OW 9825   9.368   6.337   9.111 -0.1509 -0.1838  0.0713
  862SOL    HW1 9826   9.369   6.427   9.079 -1.8769  0.0994  0.7020
  862SOL    HW2 9827   9.413   6.342   9.196 -1.1702  0.2996  0.5927
  863SOL     OW 9828   8.957   4.745   8.942  0.3078 -0.0755  0.0410
  863SOL    HW1 9829   8.961   4.840   8.954  0.1587 -0.2256  1.5417
  863SOL    HW2 9830   9.042   4.713   8.972  1.1558 -0.2763 -2.4175
  864SOL     OW 9831   8.568   6.094   4.265 -0.1419  0.1252  0.2424
  864SOL    HW1 9832   8.604   6.083   4.177  0.4610 -0.5743  0.5639
  864SOL    HW2 9833   8.606   6.177   4.295 -0.6902  0.5882 -0.3019
  865SOL     OW 9834   4.059  11.119  11.639 -0.4140  0.4768 -0.0337
  865SOL    HW1 9835   4.009  11.073  11.707  0.3411  1.3243  1.1490
  865SOL    HW2 9836   4.121  11.172  11.688  0.0463  1.2559 -1.4149
  866SOL     OW 9837   4.484  10.822  10.878  0.5472  0.0689 -0.6612
  866SOL    HW1 9838   4.472  10.782  10.791  1.0515  0.7490 -1.0494
  866SOL    HW2 9839   4.410  10.882  10.886 -0.3819 -1.1267  0.0499
  867SOL     OW 9840   6.599   5.283  11.984  0.1551  0.4719 -0.2839
  867SOL    HW1 9841   6.602   5.221  12.056 -0.5622 -0.3026 -0.8900
  867SOL    HW2 9842   6.534   5.348  12.011 -0.3783 -0.0135 -0.3625
  868SOL     OW 9843   9.560   6.422   8.825  0.0622  0.9490  0.1684
  868SOL    HW1 9844   9.489   6.477   8.856 -0.8142  0.6898 -1.3157
  868SOL    HW2 9845   9.640   6.468   8.852 -0.6591  1.6726  1.1007
  869SOL     OW 9846  10.389   8.706   2.826 -0.1583 -0.1214  0.6491
  869SOL    HW1 9847  10.450   8.759   2.877 -0.4564 -1.2493  2.2991
  869SOL    HW2 9848  10.445   8.645   2.777  0.2345  2.1887 -1.9861
  870SOL     OW 9849   4.279   9.819  12.392 -0.3858 -0.1120 -0.3261
  870SOL    HW1 9850   4.315   9.813  12.304 -0.3573  1.0889 -0.4012
  870SOL    HW2 9851   4.186   9.837  12.379 -0.0350  2.0790 -0.1418
  871SOL     OW 9852   7.041   0.074   8.691 -0.0320  0.1217  0.1695
  871SOL    HW1 9853   6.980   0.030   8.631 -0.4685  1.3537 -0.3233
  871SOL    HW2 9854   6.991   0.147   8.728  1.1851  1.3189 -0.4393
  872SOL     OW 9855  10.157   5.430   2.978 -0.3089  0.3209  0.8233
  872SOL    HW1 9856  10.176   5.337   2.993 -1.4762 -0.2168 -0.8193
  872SOL    HW2 9857  10.243   5.473   2.980  0.0965 -0.4094  3.7038
  873SOL     OW 9858   9.952   3.371   2.243  0.3352 -0.0869 -0.1463
  873SOL    HW1 9859   9.873   3.371   2.189  0.1717  0.5532  0.0845
  873SOL    HW2 9860   9.932   3.430   2.315  0.7007 -0.6098  0.4022
  874SOL     OW 9861   9.295   9.818   0.504  0.6038 -0.2345 -0.0835
  874SOL    HW1 9862   9.227   9.753   0.524 -0.1739  0.6383  0.1791
  874SOL    HW2 9863   9.361   9.806   0.572  0.2836 -0.4979  0.1835
  875SOL     OW 9864  10.421   3.197   5.790 -0.4076 -0.1794 -0.2996
  875SOL    HW1 9865  10.516   3.208   5.791 -0.0327 -2.7048 -0.7647
  875SOL    HW2 9866  10.387   3.286   5.791  1.9400  0.8108  0.3256
  876SOL     OW 9867   2.628   5.268   1.270  0.3930 -0.0860 -0.4482
  876SOL    HW1 9868   2.616   5.284   1.363  0.9670 -2.1612  0.0315
  876SOL    HW2 9869   2.610   5.353   1.228 -1.1551  0.5675  1.4071
  877SOL     OW 9870   2.776   0.096   2.549  0.0022  0.4880  0.4347
  877SOL    HW1 9871   2.823   0.156   2.607  1.2813  0.3055 -0.3610
  877SOL    HW2 9872   2.803   0.009   2.579  0.1769  0.3809 -0.0213
  878SOL     OW 9873  11.950   4.169  11.955 -0.3413 -0.3022 -0.0012
  878SOL    HW1 9874  11.941   4.239  11.889 -0.5286  1.0091  1.3564
  878SOL    HW2 9875  11.888   4.102  11.927 -0.7986  0.4582 -0.8836
  879SOL     OW 9876  11.736   2.969   1.555  0.0562 -0.0802 -0.2113
  879SOL    HW1 9877  11.760   3.042   1.613  0.9790  0.1839 -0.8902
  879SOL    HW2 9878  11.818   2.921   1.543 -0.6050 -1.4306  0.4698
  880SOL     OW 9879   8.264  12.440   0.017 -0.3955  0.7421 -0.1952
  880SOL    HW1 9880   8.299  12.368   0.070 -2.4075 -1.3011 -1.4245
  880SOL    HW2 9881   8.342  12.483  -0.019  0.9138 -1.0279  0.3500
  881SOL     OW 9882   0.322   9.155  12.285  0.4456  0.3740 -0.0633
  881SOL    HW1 9883   0.391   9.208  12.246  1.0222 -0.0214  0.4075
  881SOL    HW2 9884   0.321   9.181  12.377  1.1224 -0.8348  0.2970
  882SOL     OW 9885   8.152   2.913   2.128  0.1041  0.0930  0.4714
  882SOL    HW1 9886   8.112   3.000   2.129  1.8205  0.9818 -1.4487
  882SOL    HW2 9887   8.242   2.927   2.159  0.6939 -0.7839 -0.7535
  883SOL     OW 9888   5.895   6.324   5.973 -0.0424  0.5084  0.3790
  883SOL    HW1 9889   5.917   6.395   6.034 -1.9786  2.7060 -1.3016
  883SOL    HW2 9890   5.827   6.274   6.018 -0.6187  1.3836  0.4932
  884SOL     OW 9891  11.641  12.430   1.562  0.1115  0.1040  0.2143
  884SOL    HW1 9892  11.703  12.496   1.531  0.9273 -0.2303  1.0544
  884SOL    HW2 9893  11.580  12.478   1.617  0.0981  0.3192  0.0097
  885SOL     OW 9894   8.317   2.107   6.471  0.3737 -0.3950  0.0613
  885SOL    HW1 9895   8.232   2.064   6.482  0.2570  0.0047  0.7528
  885SOL    HW2 9896   8.360   2.096   6.556  0.9549 -0.4608 -0.2370
  886SOL     OW 9897   1.666   3.869   7.023 -0.4321  0.1054 -0.5045
  886SOL    HW1 9898   1.601   3.905   6.963  1.3995  0.7391 -2.2565
  886SOL    HW2 9899   1.720   3.812   6.969  1.3949  0.8086  0.4739
  887SOL     OW 9900   6.076   9.782   5.374  0.2105  0.6475 -0.3592
  887SOL    HW1 9901   6.166   9.752   5.366 -0.5737 -1.3222 -2.9222
  887SOL    HW2 9902   6.024   9.702   5.377 -1.4984  1.7293  1.4531
  888SOL     OW 9903   5.337   9.770  10.613  0.1418  0.2135 -0.0866
  888SOL    HW1 9904   5.247   9.755  10.587 -0.3575  0.0702  1.5988
  888SOL    HW2 9905   5.375   9.683  10.622 -0.0264  0.2102  0.6955
  889SOL     OW 9906  10.292  11.277   5.706  0.1260  0.3347 -0.3026
  889SOL    HW1 9907  10.297  11.362   5.750 -0.8595 -0.1221  0.7626
  889SOL    HW2 9908  10.204  11.276   5.667  0.3232  0.0058 -0.7493
  890SOL     OW 9909   1.392   9.611   5.207  0.0626 -0.1255  0.2072
  890SOL    HW1 9910   1.326   9.555   5.248 -0.3019  1.2949  1.6623
  890SOL    HW2 9911   1.475   9.578   5.241 -0.0225 -0.7649 -0.1876
  891SOL     OW 9912   9.484   5.415   2.171  0.6946 -0.2138  0.5099
  891SOL    HW1 9913   9.514   5.494   2.125  0.5859 -1.4238 -1.7995
  891SOL    HW2 9914   9.509   5.343   2.113 -0.7522 -1.7597  1.7082
  892SOL     OW 9915  11.422   7.388  10.187 -0.1981 -0.3162 -0.3781
  892SOL    HW1 9916  11.367   7.322  10.146 -1.1280  0.3324 -0.2109
  892SOL    HW2 9917  11.398   7.386  10.280  0.6555 -0.5916 -0.1526
  893SOL     OW 9918   2.557  10.037   2.685 -0.1582 -0.3250 -0.2726
  893SOL    HW1 9919   2.506   9.999   2.614 -0.2403  1.2205 -1.0968
  893SOL    HW2 9920   2.500  10.032   2.761 -0.3418 -1.3745 -0.4653
  894SOL     OW 9921   3.690   2.195   1.458  0.3331 -0.1014 -0.3344
  894SOL    HW1 9922   3.785   2.181   1.457  0.2407 -0.7238 -0.7380
  894SOL    HW2 9923   3.672   2.227   1.547  0.3386 -4.1917  1.3242
  895SOL     OW 9924   9.941   1.828   0.796 -0.2747 -0.4344  0.3323
  895SOL    HW1 9925  10.012   1.874   0.841  0.3504  0.4721 -1.4499
  895SOL    HW2 9926   9.975   1.739   0.783  1.7503  0.5812 -2.6639
  896SOL     OW 9927   7.579  11.081   0.172  0.6940 -0.2346 -0.2228
  896SOL    HW1 9928   7.626  11.067   0.254 -0.5487  1.8901  0.9715
  896SOL    HW2 9929   7.486  11.084   0.198  0.3946  2.9085 -1.1718
  897SOL     OW 9930   4.085   3.541   1.704  0.2035 -0.3637 -0.0779
  897SOL    HW1 9931   3.999   3.554   1.664 -0.1629  1.3781  1.1780
  897SOL    HW2 9932   4.074   3.462   1.757 -0.6968 -0.0299  0.2472
  898SOL     OW 9933   4.736  11.609  12.113 -0.5000 -0.4489  0.0074
  898SOL    HW1 9934   4.774  11.541  12.058  2.0859 -0.5039  1.6824
  898SOL    HW2 9935   4.779  11.690  12.085 -0.1094 -0.2824  1.0189
  899SOL     OW 9936   7.041   6.760   4.527 -0.0110 -0.2817 -0.6527
  899SOL    HW1 9937   7.108   6.807   4.577 -1.4878  0.5885  0.6215
  899SOL    HW2 9938   7.011   6.691   4.586  0.3185 -1.2059 -1.5332
  900SOL     OW 9939   5.793   2.381   3.923  1.0306 -0.4169 -0.2829
  900SOL    HW1 9940   5.791   2.476   3.914  2.3985 -0.1627  1.7242
  900SOL    HW2 9941   5.844   2.351   3.847  0.7168  0.4254 -0.8469
  901SOL     OW 9942   9.808   3.949   8.979  0.6601  0.3627  0.0841
  901SOL    HW1 9943   9.767   4.032   9.002 -0.5890 -0.2362  0.0791
  901SOL    HW2 9944   9.826   3.955   8.886  1.9259  1.1826  0.3575
  902SOL     OW 9945   1.887  10.613  12.467  0.2395  0.2486  0.0818
  902SOL    HW1 9946   1.976  10.646  12.478 -0.1444  1.2105  0.5279
  902SOL    HW2 9947   1.831  10.690  12.483 -0.6352  0.0634 -1.7807
  903SOL     OW 9948  11.057   8.528   2.376 -0.1415  0.1903 -0.4879
  903SOL    HW1 9949  11.067   8.555   2.285 -3.1398 -0.5808 -1.1729
  903SOL    HW2 9950  11.004   8.448   2.371  0.6014 -0.5207  1.8920
  904SOL     OW 9951   2.565  12.469  11.399 -0.3232  0.8393 -0.4200
  904SOL    HW1 9952   2.608  12.404  11.455 -0.7457  2.3881  1.8255
  904SOL    HW2 9953   2.625  12.479  11.325  0.7048 -0.6651  0.1495
  905SOL     OW 9954   2.988  12.489   3.703  0.2895 -0.0415  0.4982
  905SOL    HW1 9955   3.013  12.430   3.774 -0.4909 -0.7794  0.1752
  905SOL    HW2 9956   2.894  12.476   3.693  0.1492  1.0682  0.2317
  906SOL     OW 9957   7.395   2.288   9.020  0.0418 -0.0462  0.2399
  906SOL    HW1 9958   7.310   2.330   9.029  0.2539  0.3263  0.5677
  906SOL    HW2 9959   7.457   2.361   9.014  0.6406 -0.2525  2.8134
  907SOL     OW 9960   3.565   8.969   6.296  0.1381 -0.6676  0.2702
  907SOL    HW1 9961   3.640   8.916   6.268 -0.3452 -1.3301  0.1981
  907SOL    HW2 9962   3.489   8.926   6.256 -0.0538  1.8693 -2.5249
  908SOL     OW 9963   5.283   9.696   9.229  0.4577  0.7686  0.3973
  908SOL    HW1 9964   5.314   9.786   9.223 -0.6845  1.1752  0.3195
  908SOL    HW2 9965   5.345   9.646   9.175  0.5222  1.6687 -0.3980
  909SOL     OW 9966   1.569   2.834   0.636  0.1977  0.2370 -0.2978
  909SOL    HW1 9967   1.556   2.852   0.730  1.7860  1.3718 -0.2513
  909SOL    HW2 9968   1.539   2.914   0.593  1.5122  0.6064 -0.5700
  910SOL     OW 9969   3.788   8.245  12.375 -0.4729 -0.0772  0.1067
  910SOL    HW1 9970   3.850   8.290  12.318  0.5751 -0.5872  0.8097
  910SOL    HW2 9971   3.842   8.184  12.426 -1.5411 -0.4796  0.7924
  911SOL     OW 9972   7.107   2.155  10.329  0.0335 -0.1585  0.3442
  911SOL    HW1 9973   7.129   2.189  10.242 -0.0392  1.7515  1.0160
  911SOL    HW2 9974   7.013   2.142  10.327  0.2003 -1.4055 -0.2580
  912SOL     OW 9975  10.350   6.172   2.353  0.7894 -0.1348 -0.4683
  912SOL    HW1 9976  10.367   6.249   2.407 -0.1009  0.4000 -0.9281
  912SOL    HW2 9977  10.358   6.203   2.263 -0.2334 -0.4164 -0.6645
  913SOL     OW 9978   5.007   5.778   9.125 -0.0776  0.3856  0.0423
  913SOL    HW1 9979   5.015   5.801   9.218 -1.4114  1.8173 -0.1593
  913SOL    HW2 9980   4.993   5.683   9.126 -2.8146  0.7108  1.5420
  914SOL     OW 9981   8.305  12.384  11.512  0.1311  0.0574  0.7373
  914SOL    HW1 9982   8.337  12.471  11.488 -0.0864 -0.1092 -0.2270
  914SOL    HW2 9983   8.236  12.401  11.576 -2.3623  0.9271 -1.9196
  915SOL     OW 9984   2.443   1.283   2.210  0.2206 -0.5021  0.4118
  915SOL    HW1 9985   2.439   1.244   2.298  0.9982 -2.2616 -0.2727
  915SOL    HW2 9986   2.495   1.363   2.221  1.1574 -1.2110  1.4196
  916SOL     OW 9987   2.042   0.740   6.716  0.1499 -0.7021  0.6014
  916SOL    HW1 9988   1.988   0.819   6.722  2.0497  0.5720  1.7303
  916SOL    HW2 9989   2.010   0.685   6.787 -0.4854 -0.5258  0.4663
  917SOL     OW 9990   1.313  10.057   2.039 -0.0834  0.2496  0.1675
  917SOL    HW1 9991   1.318   9.962   2.029  2.2542  0.3822 -0.7593
  917SOL    HW2 9992   1.335  10.073   2.131 -1.6786 -0.1232  0.6383
  918SOL     OW 9993  12.666   8.769   8.333  0.7052  0.5521  0.3354
  918SOL    HW1 9994  12.637   8.678   8.326  4.2415 -0.9273  2.0753
  918SOL    HW2 9995  12.712   8.786   8.251 -0.8617  1.2315 -0.4418
  919SOL     OW 9996   1.933   7.812   6.840 -0.1401  1.1632 -0.4378
  919SOL    HW1 9997   1.854   7.809   6.786 -0.2701 -0.2383 -0.2185
  919SOL    HW2 9998   1.974   7.726   6.828  0.6777  1.4057  0.4388
  920SOL     OW 9999  10.483   8.209   7.952 -0.0037  0.3012 -0.4359
  920SOL    HW110000  10.544   8.274   7.987 -0.0894  1.2720 -2.0058
  920SOL    HW210001  10.398   8.236   7.986  0.0969  0.4211 -0.2752
  921SOL     OW10002   9.504  12.189   8.923 -0.5116 -0.1479  0.2216
  921SOL    HW110003   9.436  12.193   8.856 -0.5848 -1.0540  0.2294
  921SOL    HW210004   9.470  12.128   8.988 -0.1358  0.1857  0.7405
  922SOL     OW10005   8.745   3.228   1.563 -0.3089 -0.3272 -0.0607
  922SOL    HW110006   8.748   3.289   1.489 -2.5099  0.1019  0.1059
  922SOL    HW210007   8.740   3.284   1.640  1.1695 -0.7682  0.3816
  923SOL     OW10008  12.658   0.558   6.577  0.4460 -0.0331 -0.1162
  923SOL    HW110009  12.719   0.611   6.525 -1.1643  0.7722 -1.2851
  923SOL    HW210010  12.576   0.560   6.527 -0.8224 -0.2938  1.8321
  924SOL     OW10011  10.640   9.638  11.792 -0.4807 -0.0529  0.0038
  924SOL    HW110012  10.710   9.585  11.830  0.9549  0.7534 -1.3879
  924SOL    HW210013  10.634   9.715  11.850 -0.5407 -0.3389  0.3819
  925SOL     OW10014   5.467   9.441   5.972 -0.0763  0.4473  0.4218
  925SOL    HW110015   5.394   9.392   6.009  0.2612  0.4901  1.1515
  925SOL    HW210016   5.545   9.404   6.014  0.5702 -1.1542 -1.9568
  926SOL     OW10017   8.636  11.220   2.183  0.0593  0.3455 -0.2989
  926SOL    HW110018   8.726  11.221   2.151 -0.1077  0.3744 -0.7804
  926SOL    HW210019   8.615  11.128   2.195  0.0686  0.3278 -0.4245
  927SOL     OW10020   4.332   6.759   9.472 -0.2964  0.1214  0.0138
  927SOL    HW110021   4.388   6.823   9.515 -0.1473 -0.5515  0.8473
  927SOL    HW210022   4.365   6.754   9.382  0.2257  0.5947  0.1762
  928SOL     OW10023  10.682  10.991   7.764 -0.3975  0.2756  0.3672
  928SOL    HW110024  10.763  10.976   7.716 -1.5336 -1.5088 -1.0976
  928SOL    HW210025  10.657  11.080   7.740 -0.1478 -0.0400 -1.1654
  929SOL     OW10026   5.792   9.341  10.824  0.2480  0.2874  0.6357
  929SOL    HW110027   5.861   9.365  10.761 -0.8862  0.9741 -0.3838
  929SOL    HW210028   5.837   9.344  10.909  1.8589 -0.8376 -0.1153
  930SOL     OW10029   2.933   8.165   7.719 -0.0868 -0.8190  0.0686
  930SOL    HW110030   3.014   8.196   7.760 -0.1424 -1.6729  0.8263
  930SOL    HW210031   2.945   8.185   7.626  0.7794 -0.4815  0.2429
  931SOL     OW10032  11.896   3.762   1.831 -0.3309 -0.1651 -0.3333
  931SOL    HW110033  11.807   3.779   1.798 -1.2390 -1.0213  1.5261
  931SOL    HW210034  11.907   3.667   1.821  0.2732 -0.0990 -0.2960
  932SOL     OW10035   2.657   7.891  12.230 -0.4854 -0.5783 -0.3432
  932SOL    HW110036   2.586   7.945  12.264 -0.5860 -1.2003  0.4724
  932SOL    HW210037   2.622   7.851  12.151 -1.2382 -1.2803  0.3223
  933SOL     OW10038   1.890   9.923   1.561 -0.1284 -0.2228 -0.1257
  933SOL    HW110039   1.980   9.926   1.592 -0.6843  0.2137  1.5741
  933SOL    HW210040   1.896   9.897   1.470  1.6159 -1.6709  0.3563
  934SOL     OW10041   2.080   4.607  10.071 -0.2934 -0.1724  0.0766
  934SOL    HW110042   2.033   4.554  10.007 -1.1410  0.6413 -0.0005
  934SOL    HW210043   2.172   4.581  10.061 -0.1911  0.8906 -2.4399
  935SOL     OW10044  11.777   8.207   3.329  0.1939  0.0623  0.5043
  935SOL    HW110045  11.693   8.239   3.296  0.5594 -1.3166 -1.9967
  935SOL    HW210046  11.760   8.115   3.352  0.8955 -0.0760  0.4959
  936SOL     OW10047  10.171   9.455   0.675 -0.0927 -0.1825  0.1669
  936SOL    HW110048  10.231   9.489   0.741 -0.7327  0.5191  0.4063
  936SOL    HW210049  10.227   9.421   0.606  0.5935 -1.1120  1.1512
  937SOL     OW10050  10.542   5.238   4.923  0.1091  0.3381 -0.5128
  937SOL    HW110051  10.572   5.325   4.898 -0.1218  0.0787 -1.7760
  937SOL    HW210052  10.481   5.213   4.854 -0.5754 -0.4347  0.3493
  938SOL     OW10053   8.429   8.832   8.386 -0.0717 -0.4665 -0.3568
  938SOL    HW110054   8.432   8.747   8.343 -1.1240 -0.9459  0.4753
  938SOL    HW210055   8.380   8.817   8.466  2.1083  0.3217  1.2441
  939SOL     OW10056   2.798   4.424   7.641 -0.4579 -0.0751 -0.3981
  939SOL    HW110057   2.709   4.404   7.669 -0.7185 -0.3111 -1.3548
  939SOL    HW210058   2.836   4.338   7.621  0.0966 -0.0005  0.3162
  940SOL     OW10059  10.843   4.866   0.475 -0.1564 -0.3574 -0.6726
  940SOL    HW110060  10.748   4.860   0.482 -0.4806  0.3496 -3.3886
  940SOL    HW210061  10.861   4.849   0.382  2.4363 -1.0912 -0.1156
  941SOL     OW10062   2.700   3.187  12.062 -0.0242  0.0473  0.0466
  941SOL    HW110063   2.652   3.122  12.113  0.4128  0.0711  0.4985
  941SOL    HW210064   2.645   3.204  11.986 -0.7862  0.1751  0.6234
  942SOL     OW10065   9.003   8.226  11.839  0.4062 -0.0154 -0.1903
  942SOL    HW110066   9.054   8.198  11.915 -0.3206 -0.3911  0.1686
  942SOL    HW210067   8.919   8.254  11.875  0.6911  1.5237 -0.6776
  943SOL     OW10068   9.847   8.349   1.180 -0.5021 -0.9165 -0.2573
  943SOL    HW110069   9.921   8.368   1.122  0.7947 -1.7888  1.0636
  943SOL    HW210070   9.827   8.256   1.163 -1.3621 -0.6731 -0.6461
  944SOL     OW10071   6.566   8.660  12.347  0.3614 -0.2211  0.4299
  944SOL    HW110072   6.627   8.719  12.302  1.7641 -1.3888  0.7442
  944SOL    HW210073   6.598   8.572  12.327 -0.0014 -0.8194  2.2862
  945SOL     OW10074   3.118   6.475   3.829  0.2550  0.0963  0.2398
  945SOL    HW110075   3.206   6.438   3.843  0.0586 -0.4324  0.0914
  945SOL    HW210076   3.108   6.539   3.900  0.9463  0.5104 -0.0198
  946SOL     OW10077   2.297  10.197   1.038 -0.6200  0.5114  0.2057
  946SOL    HW110078   2.283  10.261   1.108 -1.0742  0.2539  0.3556
  946SOL    HW210079   2.385  10.164   1.054 -0.8666  0.1647  0.9013
  947SOL     OW10080  10.712   6.938   2.066 -0.0685  0.1344  0.2373
  947SOL    HW110081  10.654   6.876   2.111  0.7428 -0.6360  0.2535
  947SOL    HW210082  10.791   6.887   2.048 -0.4194  0.3494 -2.2241
  948SOL     OW10083   6.927   7.621   1.053 -0.3183 -0.1734  0.6091
  948SOL    HW110084   6.911   7.538   1.098  1.3140 -0.7558  0.2006
  948SOL    HW210085   6.906   7.604   0.961  1.6498 -0.7052  0.2129
  949SOL     OW10086   6.325   0.162   5.961  0.1041 -0.1750 -0.5614
  949SOL    HW110087   6.379   0.206   6.025  0.2562  0.5028 -1.1473
  949SOL    HW210088   6.384   0.144   5.888  0.0803 -1.4754 -0.2845
  950SOL     OW10089  10.649   0.808   5.931 -0.3029  0.3221  0.1735
  950SOL    HW110090  10.711   0.749   5.888 -2.2863 -0.1349 -2.3032
  950SOL    HW210091  10.602   0.752   5.992  0.2618  0.1870  0.4927
  951SOL     OW10092   5.607   4.559  11.101 -0.2602  0.0230  0.0974
  951SOL    HW110093   5.520   4.539  11.137 -0.6729 -0.7478 -1.2611
  951SOL    HW210094   5.601   4.534  11.009  1.1854  0.6662 -0.1944
  952SOL     OW10095   6.673   2.893   2.120 -0.2327 -0.7229 -0.3936
  952SOL    HW110096   6.724   2.812   2.119  2.0848  0.6482 -0.9452
  952SOL    HW210097   6.732   2.958   2.160 -1.1284  1.2044 -2.0454
  953SOL     OW10098   6.853  10.048  10.367  0.6659  0.3009  0.3373
  953SOL    HW110099   6.931  10.104  10.373  0.2538  1.2549 -2.0000
  953SOL    HW210100   6.780  10.110  10.368 -0.0363 -0.5146  1.4496
  954SOL     OW10101   3.047   7.241   8.807  0.0625 -0.1690 -0.1205
  954SOL    HW110102   3.084   7.261   8.722  1.8973 -0.1627  0.6359
  954SOL    HW210103   2.972   7.300   8.815  0.7638  0.8949 -1.1097
  955SOL     OW10104   9.367   8.166   6.590  0.9290 -0.0910  0.1383
  955SOL    HW110105   9.300   8.195   6.529  0.2644  0.2561  1.0151
  955SOL    HW210106   9.376   8.072   6.574  3.1035  0.4718 -2.7293
  956SOL     OW10107   3.528   0.442  10.765 -0.5450  0.1588 -0.1628
  956SOL    HW110108   3.574   0.372  10.718 -0.0475  1.4740 -1.7204
  956SOL    HW210109   3.511   0.508  10.699  0.7148  2.3793  1.5727
  957SOL     OW10110   8.644   2.883   0.642 -0.0280 -0.0108  0.4038
  957SOL    HW110111   8.677   2.794   0.651 -1.4370 -0.4407  1.9683
  957SOL    HW210112   8.566   2.875   0.587 -0.2717  0.1987  0.7083
  958SOL     OW10113   7.671   4.400   7.133 -0.5238  0.6635 -0.0645
  958SOL    HW110114   7.636   4.468   7.191  0.8080  2.2740 -1.0735
  958SOL    HW210115   7.764   4.424   7.122  0.2341 -1.8449  0.2637
  959SOL     OW10116  10.062   8.712   5.815 -0.0126 -0.1071 -0.0091
  959SOL    HW110117  10.068   8.717   5.910  2.3939 -0.2894 -0.0953
  959SOL    HW210118  10.042   8.621   5.796  0.1356 -0.2051  0.3044
  960SOL     OW10119  11.385   8.942   8.164 -0.1635 -0.1557  0.3631
  960SOL    HW110120  11.325   9.012   8.138  1.7075  0.9062 -1.3461
  960SOL    HW210121  11.426   8.973   8.244  0.9515  0.9341 -0.6026
  961SOL     OW10122   7.413  11.404   6.991  0.0358  0.3850 -0.3782
  961SOL    HW110123   7.421  11.320   7.035 -2.1736  0.6126  0.5948
  961SOL    HW210124   7.473  11.398   6.916  2.6630 -0.6442  1.6389
  962SOL     OW10125   4.830   7.893   6.432  0.3084  0.3343 -0.0653
  962SOL    HW110126   4.832   7.874   6.525  0.8668  0.4454 -0.0547
  962SOL    HW210127   4.917   7.926   6.412 -0.1607  1.4195 -0.3917
  963SOL     OW10128   6.211  12.611   5.144 -0.9325  0.0219  0.4770
  963SOL    HW110129   6.144  12.654   5.091  1.3359  0.7618 -1.9366
  963SOL    HW210130   6.238  12.678   5.207 -2.3578 -0.2702  1.4473
  964SOL     OW10131  10.422   4.414   2.415 -1.0872 -0.1528 -0.4103
  964SOL    HW110132  10.451   4.489   2.363 -1.8302 -0.1578 -0.8290
  964SOL    HW210133  10.493   4.350   2.406 -0.2001  0.6697  0.3631
  965SOL     OW10134   3.709   7.705   4.543  0.6161 -0.6346  0.5579
  965SOL    HW110135   3.659   7.670   4.617 -1.9853  2.4596  0.5054
  965SOL    HW210136   3.678   7.655   4.467 -1.4102  0.1921  0.7702
  966SOL     OW10137   3.616   9.968  10.631  0.3134  0.2443 -0.2252
  966SOL    HW110138   3.592   9.966  10.724  0.7017 -0.8967 -0.1261
  966SOL    HW210139   3.669   9.888  10.619  0.2044  0.3413 -1.4406
  967SOL     OW10140   1.622  12.029   6.152  0.5365 -0.1841 -0.5591
  967SOL    HW110141   1.641  12.110   6.105  1.2570 -0.2734 -0.4341
  967SOL    HW210142   1.680  12.030   6.228 -0.4027 -0.1909  0.1684
  968SOL     OW10143  12.449   0.733   4.569  0.4186 -0.6410 -0.1387
  968SOL    HW110144  12.439   0.784   4.489 -0.1678 -2.6601 -1.4532
  968SOL    HW210145  12.371   0.676   4.570  1.0896 -1.5871  1.1458
  969SOL     OW10146  10.333   2.299   3.773  0.2351 -0.1825  0.1732
  969SOL    HW110147  10.346   2.288   3.867  0.6725 -0.3022  0.1024
  969SOL    HW210148  10.323   2.393   3.761  0.9161 -0.0931  0.2566
  970SOL     OW10149   5.912  11.364   6.688 -0.1905  0.3390  0.1552
  970SOL    HW110150   5.851  11.311   6.636  0.0655 -2.8115  2.7587
  970SOL    HW210151   5.871  11.370   6.774  1.7861  0.7427  1.1116
  971SOL     OW10152  10.954   5.254   4.976 -0.3101 -0.0650  0.0391
  971SOL    HW110153  10.867   5.279   5.005 -0.6474 -1.0909 -0.0248
  971SOL    HW210154  10.940   5.211   4.891 -0.1398 -2.6848  1.2140
  972SOL     OW10155   1.585  12.285   4.414 -0.0460 -0.1907 -0.6016
  972SOL    HW110156   1.580  12.374   4.377  3.1775  0.4984  0.2411
  972SOL    HW210157   1.605  12.229   4.339 -2.0746 -0.2741 -1.1351
  973SOL     OW10158  11.011   0.243   0.657 -0.1799  0.0855 -0.0633
  973SOL    HW110159  11.105   0.238   0.675  0.0071  1.5319 -0.5632
  973SOL    HW210160  10.992   0.162   0.608 -0.0639 -2.3028  3.4372
  974SOL     OW10161  10.221   8.229   3.899 -0.3326 -0.0961  0.6798
  974SOL    HW110162  10.167   8.158   3.866  1.8736 -0.7232 -1.9199
  974SOL    HW210163  10.240   8.205   3.990 -2.1357 -1.2168  0.7974
  975SOL     OW10164   0.434   6.977   7.171  0.4765 -0.1646  0.5555
  975SOL    HW110165   0.403   6.983   7.081  0.5937  0.7189  0.5656
  975SOL    HW210166   0.355   6.965   7.223  0.3135  0.3165  0.4214
  976SOL     OW10167   1.021   5.860   9.762 -0.2284  0.2212  0.7106
  976SOL    HW110168   1.006   5.826   9.674 -0.3149  1.2712  0.2998
  976SOL    HW210169   0.937   5.899   9.787 -0.4760 -0.8464  1.6352
  977SOL     OW10170  12.624  12.345   3.911  0.1947  0.5496  0.2739
  977SOL    HW110171  12.594  12.429   3.876  0.3613  0.8784  0.8918
  977SOL    HW210172  12.688  12.314   3.846 -0.2023  0.6756 -0.1840
  978SOL     OW10173  12.008   8.105   1.693 -0.4774 -0.0136  0.2739
  978SOL    HW110174  12.042   8.191   1.718  0.0158 -0.4801  1.2459
  978SOL    HW210175  12.068   8.043   1.735 -2.0155 -0.8488  1.2898
  979SOL     OW10176   5.194   1.306   6.508 -1.1928  0.4587  0.2082
  979SOL    HW110177   5.170   1.334   6.597 -2.7082 -0.3140  0.0646
  979SOL    HW210178   5.259   1.237   6.522 -0.8779  0.8411  0.6844
  980SOL     OW10179  10.258  11.522   4.443 -0.3862  0.1558 -0.1050
  980SOL    HW110180  10.315  11.513   4.518  1.0541 -0.6787 -1.2559
  980SOL    HW210181  10.182  11.570   4.476  0.2503 -0.1009  1.8266
  981SOL     OW10182   0.526   9.519   5.804  0.2496  0.2396  0.2148
  981SOL    HW110183   0.547   9.596   5.751  2.4315  0.3533  1.1174
  981SOL    HW210184   0.456   9.548   5.862 -0.3840  0.8927 -0.8596
  982SOL     OW10185   2.659   1.293  12.222 -0.3730  0.2832  0.1359
  982SOL    HW110186   2.666   1.293  12.127 -0.3844 -0.5484  0.1244
  982SOL    HW210187   2.671   1.201  12.247 -1.5399  0.2905  0.8343
  983SOL     OW10188   7.283   1.972  12.554  0.0766 -0.0480 -0.3566
  983SOL    HW110189   7.335   2.003  12.480  3.0338 -1.1918  1.0529
  983SOL    HW210190   7.290   1.876  12.549 -1.6026 -0.2255  0.1492
  984SOL     OW10191   6.764  12.417   7.962 -0.4309  0.3461 -0.3127
  984SOL    HW110192   6.764  12.482   7.892  1.0154  0.2633 -0.4158
  984SOL    HW210193   6.699  12.448   8.024  0.0157  1.7205 -0.5102
  985SOL     OW10194  12.415   2.702  10.502  0.2382 -0.8376  0.1338
  985SOL    HW110195  12.428   2.782  10.553 -0.8443 -1.2717  1.1570
  985SOL    HW210196  12.335   2.663  10.539  0.0164 -1.7238 -1.2073
  986SOL     OW10197   1.846   4.888   9.412  0.3535 -0.4201 -0.1680
  986SOL    HW110198   1.765   4.845   9.440  1.3822 -1.8053  0.8527
  986SOL    HW210199   1.846   4.878   9.317 -0.5282 -0.6438 -0.1587
  987SOL     OW10200  10.608   8.981  12.265 -0.3096  0.2886 -0.2579
  987SOL    HW110201  10.563   8.949  12.343  0.6969  2.1312  1.1594
  987SOL    HW210202  10.638   9.069  12.288  0.7369  0.5942 -2.4511
  988SOL     OW10203   5.889  10.848   9.430  0.7864  0.6304  0.3984
  988SOL    HW110204   5.881  10.818   9.520 -1.0848  0.1763  0.1040
  988SOL    HW210205   5.889  10.768   9.378  0.6751  0.9404 -0.0784
  989SOL     OW10206   0.294   3.677   3.633 -0.1918 -0.0378  0.6131
  989SOL    HW110207   0.386   3.685   3.660  0.1720 -1.4662 -0.0907
  989SOL    HW210208   0.254   3.621   3.699 -0.3145 -0.2026  0.4012
  990SOL     OW10209   7.422   9.284  12.683 -0.7370 -0.3187  0.0240
  990SOL    HW110210   7.339   9.288  12.731 -0.2314  1.8995  0.8416
  990SOL    HW210211   7.421   9.362  12.628  1.4350  0.5893  1.1819
  991SOL     OW10212   7.656   7.234   4.356  0.5427 -0.5579 -0.4814
  991SOL    HW110213   7.588   7.168   4.370 -1.1231  0.9029 -1.3368
  991SOL    HW210214   7.698   7.207   4.274  0.5471 -1.0926 -0.3079
  992SOL     OW10215  12.001   8.830   7.207  0.3653  0.4643 -0.0753
  992SOL    HW110216  11.950   8.752   7.187  1.3888  0.0592 -1.2903
  992SOL    HW210217  12.069   8.831   7.139  3.3440 -0.2634  2.6493
  993SOL     OW10218   8.115   7.035  10.718  0.1713 -0.0806 -0.0405
  993SOL    HW110219   8.135   6.978  10.643 -0.4783 -1.4794  0.8161
  993SOL    HW210220   8.172   7.002  10.788 -1.8967 -1.3071  1.1703
  994SOL     OW10221   5.645   0.592   0.740 -0.9320 -0.0875 -0.3605
  994SOL    HW110222   5.652   0.674   0.789  0.1100 -0.9280  0.9654
  994SOL    HW210223   5.551   0.582   0.723 -1.2693  0.4768  1.0620
  995SOL     OW10224   5.454   5.277   0.581  0.2093  0.5110  0.0810
  995SOL    HW110225   5.456   5.233   0.665 -1.1134  0.6582  0.2085
  995SOL    HW210226   5.541   5.263   0.544  0.6636  0.0975  1.2863
  996SOL     OW10227  10.254   5.820   5.981 -0.1317  0.3392 -0.1699
  996SOL    HW110228  10.340   5.782   5.996  0.0935 -0.3650 -2.8514
  996SOL    HW210229  10.193   5.754   6.014  0.3143 -0.0445 -0.0951
  997SOL     OW10230   3.844   6.762  11.846 -0.1929  0.3913 -0.1559
  997SOL    HW110231   3.763   6.714  11.829  0.1492  0.3720 -2.0059
  997SOL    HW210232   3.833   6.798  11.933 -1.7370 -0.5132  0.0624
  998SOL     OW10233   4.429   4.509   8.504  0.6920  0.0128 -0.0330
  998SOL    HW110234   4.367   4.560   8.452  0.3519 -1.2864 -0.9311
  998SOL    HW210235   4.445   4.563   8.581 -2.4662 -0.1066  0.8397
  999SOL     OW10236   2.671   9.667   8.273  0.0044  0.1208  0.2040
  999SOL    HW110237   2.713   9.645   8.356 -0.2115 -0.9752  0.0362
  999SOL    HW210238   2.692   9.760   8.259 -1.1604  0.7306  2.1692
 1000SOL     OW10239   3.295   2.660   1.699  0.0453 -0.1859  0.0454
 1000SOL    HW110240   3.318   2.711   1.777  1.4929  1.5945 -1.4584
 1000SOL    HW210241   3.354   2.585   1.701 -1.9922 -1.8906  2.1940
 1001SOL     OW10242   1.651   6.103   5.829 -0.3335  0.1770  0.3284
 1001SOL    HW110243   1.610   6.018   5.815 -2.7732  0.9800  1.8537
 1001SOL    HW210244   1.578   6.162   5.846  1.4011  2.0783  1.6836
 1002SOL     OW10245   0.595   1.158   7.478  0.0070 -0.2467 -0.0728
 1002SOL    HW110246   0.545   1.122   7.405 -0.3876  0.5318 -0.2019
 1002SOL    HW210247   0.569   1.105   7.554 -2.2702  1.1197  0.1963
 1003SOL     OW10248   7.004   0.124  10.891 -0.1055 -0.5383  0.1200
 1003SOL    HW110249   7.033   0.128  10.982 -0.1393 -0.3815  0.1239
 1003SOL    HW210250   6.998   0.216  10.863  0.8338 -0.6109 -0.3433
 1004SOL     OW10251   3.270   9.414   0.648  0.5268 -0.3331 -0.4290
 1004SOL    HW110252   3.245   9.359   0.722  0.0559  0.2966 -0.1086
 1004SOL    HW210253   3.341   9.366   0.605  0.9207 -0.6275  0.5241
 1005SOL     OW10254   2.747   4.613   1.388 -0.1535  0.4833  0.5748
 1005SOL    HW110255   2.803   4.646   1.458  1.7321 -1.3083 -0.0045
 1005SOL    HW210256   2.800   4.548   1.342 -2.3875 -0.6359 -0.6162
 1006SOL     OW10257   6.494  10.034   6.894 -0.0690 -0.5247  0.1473
 1006SOL    HW110258   6.445  10.059   6.816  0.4472  1.8751  0.5128
 1006SOL    HW210259   6.428  10.024   6.962 -0.3609 -0.9662 -0.1954
 1007SOL     OW10260   2.979   8.340   3.119 -0.5448 -0.7880 -0.2159
 1007SOL    HW110261   2.965   8.423   3.164 -0.2575 -0.5367 -0.5872
 1007SOL    HW210262   3.047   8.296   3.170  1.8083  0.6743 -1.9002
 1008SOL     OW10263  10.894   2.879   2.820  0.6563  0.2051 -0.0319
 1008SOL    HW110264  10.952   2.943   2.779 -1.5991  1.5615 -1.2918
 1008SOL    HW210265  10.878   2.814   2.752 -0.9178  0.9855 -0.4510
 1009SOL     OW10266   9.579   8.203   9.672  0.0411 -0.0950  0.5881
 1009SOL    HW110267   9.594   8.163   9.586 -1.2110 -0.0397  0.3201
 1009SOL    HW210268   9.667   8.216   9.708  0.6044  0.1452 -0.7974
 1010SOL     OW10269   2.304   3.786   7.123 -0.0913 -0.6136 -0.2401
 1010SOL    HW110270   2.379   3.731   7.144 -0.0390  0.6130  3.5104
 1010SOL    HW210271   2.233   3.750   7.176 -1.0725  0.7010 -0.6139
 1011SOL     OW10272   5.936   8.735   1.792  0.3081 -0.0087  0.0871
 1011SOL    HW110273   6.023   8.766   1.815  0.6242 -0.3146 -0.6626
 1011SOL    HW210274   5.917   8.777   1.708 -0.3164  0.1460  0.2994
 1012SOL     OW10275   6.724   3.785   4.360 -0.7519 -0.3173  0.5560
 1012SOL    HW110276   6.647   3.805   4.307 -0.8965 -2.3588 -0.0764
 1012SOL    HW210277   6.705   3.701   4.401  0.6619 -0.2946  1.3356
 1013SOL     OW10278  11.296  10.068  11.855 -0.2186  0.1584 -0.1041
 1013SOL    HW110279  11.223  10.022  11.814  0.1695 -0.2403 -0.3719
 1013SOL    HW210280  11.374  10.029  11.814  0.1153  1.1782 -0.4640
 1014SOL     OW10281   3.080   4.650   0.807 -0.0076 -0.0956  0.5131
 1014SOL    HW110282   3.139   4.665   0.733 -1.2722 -0.2828 -0.5902
 1014SOL    HW210283   3.076   4.734   0.852 -0.3619  0.4677 -0.5302
 1015SOL     OW10284   0.158   6.422   2.776  0.4852 -0.1619 -0.6075
 1015SOL    HW110285   0.148   6.516   2.792 -2.3477 -0.4345 -0.2665
 1015SOL    HW210286   0.117   6.408   2.690 -0.2292 -1.2191 -0.1164
 1016SOL     OW10287   2.972   2.503   8.597 -0.2563  0.2644  0.1246
 1016SOL    HW110288   2.892   2.536   8.636 -1.0908 -0.1468 -1.1992
 1016SOL    HW210289   3.020   2.581   8.570 -1.3048  0.4859 -1.1893
 1017SOL     OW10290   1.769   1.137  12.557  0.1480  0.1802  0.1439
 1017SOL    HW110291   1.767   1.228  12.530  1.3173 -0.0704 -0.8585
 1017SOL    HW210292   1.680   1.105  12.541 -0.3793  1.2080  0.8547
 1018SOL     OW10293  10.519  12.507   7.673  0.1995 -0.2675  0.1646
 1018SOL    HW110294  10.433  12.549   7.674 -0.9549 -2.4720  0.0331
 1018SOL    HW210295  10.559  12.533   7.756  0.4947  2.7559 -0.8065
 1019SOL     OW10296   7.875   0.654   3.332 -0.9965 -0.1448 -0.2354
 1019SOL    HW110297   7.901   0.589   3.267  0.2967  0.5831 -0.4782
 1019SOL    HW210298   7.851   0.731   3.280  1.9409  1.1269  0.1180
 1020SOL     OW10299   3.027   6.548  10.132  0.5361 -0.2832 -0.3216
 1020SOL    HW110300   3.056   6.569  10.043 -1.5313  1.3338 -0.6842
 1020SOL    HW210301   2.993   6.459  10.125  0.7507 -0.3164 -1.0694
 1021SOL     OW10302  11.852   0.229   1.380  0.1265 -0.1893  0.7564
 1021SOL    HW110303  11.874   0.320   1.401  0.1598 -0.2390  0.9389
 1021SOL    HW210304  11.886   0.217   1.291 -0.6129  0.2226  0.4094
 1022SOL     OW10305   2.373   3.901   8.609 -0.1278 -0.2580  0.3291
 1022SOL    HW110306   2.359   3.991   8.638  0.8213 -0.6583  2.1587
 1022SOL    HW210307   2.430   3.863   8.675 -0.5905 -2.2443 -0.3480
 1023SOL     OW10308   8.291   0.029   4.774 -0.3344 -1.2762 -0.1426
 1023SOL    HW110309   8.239  -0.051   4.776 -0.1035 -1.4897 -1.5140
 1023SOL    HW210310   8.376   0.002   4.741 -0.1680 -0.5274 -0.3597
 1024SOL     OW10311   4.504   0.796   7.752 -0.3954 -0.2419 -0.0940
 1024SOL    HW110312   4.543   0.722   7.798  0.3233 -0.2994 -0.7782
 1024SOL    HW210313   4.554   0.872   7.783 -0.6959 -0.1257  0.1089
 1025SOL     OW10314   2.997   9.934   5.230 -0.4720  0.3675 -0.1997
 1025SOL    HW110315   3.015   9.974   5.316 -0.0954  1.9233 -0.9604
 1025SOL    HW210316   3.077   9.884   5.210 -0.7103 -0.3162  0.5049
 1026SOL     OW10317   0.483   3.971   1.489 -0.3013  0.3590 -0.0641
 1026SOL    HW110318   0.505   3.971   1.582  1.5353 -0.4265 -0.4626
 1026SOL    HW210319   0.524   4.050   1.455  0.3221 -0.1282 -0.4676
 1027SOL     OW10320   6.449   6.823   9.473  0.7821 -0.2369 -0.1993
 1027SOL    HW110321   6.503   6.886   9.520 -0.7929 -0.0846  1.5649
 1027SOL    HW210322   6.473   6.738   9.510 -1.0487 -0.0356  1.6218
 1028SOL     OW10323   3.462   4.028   9.305 -0.4120  0.0355  0.2165
 1028SOL    HW110324   3.453   3.946   9.255 -1.6110 -0.0530  0.5570
 1028SOL    HW210325   3.410   4.013   9.384 -2.3137  1.8193 -0.6037
 1029SOL     OW10326   6.181   7.840   5.035 -0.4289 -0.3008 -0.8313
 1029SOL    HW110327   6.131   7.764   5.066  1.4641 -1.5344 -0.6321
 1029SOL    HW210328   6.228   7.871   5.113 -1.6226  1.4985 -0.7691
 1030SOL     OW10329   9.657   9.575   6.235  0.2789 -0.2870  0.2235
 1030SOL    HW110330   9.580   9.518   6.234 -0.4395  0.6625  0.4783
 1030SOL    HW210331   9.636   9.646   6.175  0.7002  0.3026  0.7548
 1031SOL     OW10332  10.838   7.796   9.246 -0.6293  0.4064 -0.2194
 1031SOL    HW110333  10.813   7.704   9.251 -0.1779  0.2835 -0.1499
 1031SOL    HW210334  10.860   7.810   9.154 -0.3837  0.3586 -0.1686
 1032SOL     OW10335  10.929   6.457   9.882  0.3132 -0.7367 -0.1810
 1032SOL    HW110336  10.930   6.364   9.860 -0.6973 -0.9335  0.5585
 1032SOL    HW210337  10.902   6.501   9.801 -0.6450 -1.2192 -0.1404
 1033SOL     OW10338  10.438  12.584  12.450 -0.1938  1.1875  0.1244
 1033SOL    HW110339  10.394  12.637  12.384  0.6965 -0.7482 -2.2026
 1033SOL    HW210340  10.392  12.500  12.449  0.3540  0.8326  1.4212
 1034SOL     OW10341  11.527   3.704  12.471  0.2388  0.0321  0.5357
 1034SOL    HW110342  11.441   3.704  12.428  1.9320 -0.4556 -3.2411
 1034SOL    HW210343  11.512   3.657  12.553 -2.8058 -1.5179 -0.7137
 1035SOL     OW10344   2.802   5.908   5.637  0.4761 -0.4281 -0.3617
 1035SOL    HW110345   2.839   5.914   5.724 -1.0623 -0.7942  0.3515
 1035SOL    HW210346   2.741   5.982   5.632  0.4399 -0.4974 -1.0687
 1036SOL     OW10347   5.583   3.680   1.885  0.5806  0.1259 -0.3157
 1036SOL    HW110348   5.556   3.636   1.805 -0.3627  1.1401 -0.5869
 1036SOL    HW210349   5.615   3.610   1.942 -0.3322 -0.8159 -0.9337
 1037SOL     OW10350  11.380   3.570   5.299 -0.3971 -0.3400 -0.0780
 1037SOL    HW110351  11.466   3.529   5.291 -0.6515 -0.9379  0.1668
 1037SOL    HW210352  11.327   3.505   5.345 -1.5238 -0.8360 -1.9472
 1038SOL     OW10353   7.228  12.180   2.848  0.2067  0.0132 -0.1003
 1038SOL    HW110354   7.211  12.086   2.852 -1.8924  0.1861 -2.4843
 1038SOL    HW210355   7.143  12.220   2.868  0.4755  1.3137 -1.3974
 1039SOL     OW10356   6.409   9.645   0.006  0.3117 -0.5571 -0.1108
 1039SOL    HW110357   6.408   9.565   0.059 -2.8506 -0.3069  0.4065
 1039SOL    HW210358   6.382   9.714   0.066  1.7089  0.7040 -0.8766
 1040SOL     OW10359   9.503   9.518   5.052 -0.2676 -0.3958  0.1872
 1040SOL    HW110360   9.539   9.430   5.057  0.5324 -0.0092  2.8119
 1040SOL    HW210361   9.416   9.511   5.092 -0.8294 -0.2371 -0.9595
 1041SOL     OW10362  10.387   3.633   7.734 -0.1199 -0.2900 -0.0247
 1041SOL    HW110363  10.338   3.590   7.805 -0.6368 -0.1888 -0.3155
 1041SOL    HW210364  10.478   3.623   7.759 -0.3315  1.3014  1.5641
 1042SOL     OW10365   7.364   7.035   4.089 -0.5448 -0.3951  0.2678
 1042SOL    HW110366   7.405   7.046   4.175 -0.1513  0.0581  0.0309
 1042SOL    HW210367   7.332   7.122   4.067  1.0323 -0.0542 -0.8636
 1043SOL     OW10368   8.334   9.827  11.186  0.0804  0.6891  0.4462
 1043SOL    HW110369   8.352   9.734  11.198  1.6168  1.0547  1.2339
 1043SOL    HW210370   8.331   9.862  11.276 -1.1151  1.3082  0.1892
 1044SOL     OW10371  11.939   7.483  12.126  0.2557  0.1075  0.8075
 1044SOL    HW110372  11.956   7.479  12.032 -1.9887 -0.5768  0.3615
 1044SOL    HW210373  12.024   7.499  12.166  1.0071  2.3001 -1.4566
 1045SOL     OW10374   2.874   8.521  11.833 -0.8279 -0.1394  0.0293
 1045SOL    HW110375   2.828   8.549  11.912 -0.0412  0.3685  0.3239
 1045SOL    HW210376   2.805   8.495  11.772 -1.4986  0.6152  0.4518
 1046SOL     OW10377   5.591   9.010  11.379  0.5389 -0.3826 -0.7822
 1046SOL    HW110378   5.613   9.044  11.293  0.2979  1.2510 -0.2386
 1046SOL    HW210379   5.648   8.934  11.390  1.6807  0.2845 -1.7684
 1047SOL     OW10380   0.108   6.703   2.794 -0.4812  0.2444  0.5847
 1047SOL    HW110381   0.186   6.757   2.805 -0.7107  0.5660  0.6370
 1047SOL    HW210382   0.089   6.707   2.700 -0.5337  0.3059  0.5977
 1048SOL     OW10383   3.574  10.718   5.432  0.4042  0.9479  0.2470
 1048SOL    HW110384   3.624  10.714   5.514 -0.9470  0.1010  1.0639
 1048SOL    HW210385   3.597  10.637   5.386 -1.1174 -0.0704  1.2028
 1049SOL     OW10386   0.109   6.355   1.596  0.1563 -0.0771  0.1858
 1049SOL    HW110387   0.187   6.400   1.628 -0.7471  1.2521  0.5871
 1049SOL    HW210388   0.143   6.287   1.537  1.5556  2.0843 -1.6750
 1050SOL     OW10389   0.600   7.476  12.278  0.2055  0.0303 -0.1088
 1050SOL    HW110390   0.672   7.416  12.258 -1.4296 -1.7398 -1.0133
 1050SOL    HW210391   0.643   7.558  12.302  2.5020 -0.7503 -1.2669
 1051SOL     OW10392   1.803   3.586  12.145 -0.2236  0.1233 -0.0528
 1051SOL    HW110393   1.880   3.536  12.171 -0.1643  0.1912 -0.1005
 1051SOL    HW210394   1.783   3.641  12.221  1.0081  1.6554 -0.7755
 1052SOL     OW10395   5.872   7.064   6.605  0.0489  0.1802 -0.4627
 1052SOL    HW110396   5.963   7.090   6.618  0.7593 -2.0619 -0.5924
 1052SOL    HW210397   5.823   7.112   6.672  1.1920  1.9552 -0.8417
 1053SOL     OW10398   9.444  11.197  12.477 -0.4468 -0.1477  0.5544
 1053SOL    HW110399   9.425  11.116  12.526 -1.0217 -0.0103  0.5664
 1053SOL    HW210400   9.483  11.255  12.542 -0.5260 -0.2277  0.6749
 1054SOL     OW10401  12.290   7.489   1.025  0.7541  0.2070  0.3853
 1054SOL    HW110402  12.197   7.472   1.012  0.1901  0.7778  2.9900
 1054SOL    HW210403  12.328   7.403   1.042  0.3653  0.1390  0.9434
 1055SOL     OW10404   5.231   1.284   5.569 -0.1663 -0.2836 -0.6657
 1055SOL    HW110405   5.290   1.274   5.494 -1.4125  1.9370 -2.0701
 1055SOL    HW210406   5.160   1.221   5.551 -1.2389  1.2730 -2.2819
 1056SOL     OW10407   5.214  12.119   4.298 -0.6801  0.6266  0.3150
 1056SOL    HW110408   5.214  12.201   4.248  0.8639  0.9816  0.8321
 1056SOL    HW210409   5.138  12.126   4.356 -0.9081  1.4204 -0.0667
 1057SOL     OW10410   4.498  11.530   5.713 -1.5937 -0.2496  0.2228
 1057SOL    HW110411   4.474  11.611   5.669 -0.9672  0.7440  1.6708
 1057SOL    HW210412   4.586  11.511   5.681 -0.8541  0.8545  1.5327
 1058SOL     OW10413   6.652  12.537  11.610  0.0648 -0.1593 -0.5079
 1058SOL    HW110414   6.666  12.611  11.551  0.4953 -0.2947 -0.5775
 1058SOL    HW210415   6.673  12.460  11.558 -0.1972 -0.3233 -0.3752
 1059SOL     OW10416   1.540   2.442   1.756 -0.2327 -0.0974 -0.4714
 1059SOL    HW110417   1.522   2.489   1.838  0.0841 -1.1952  0.2552
 1059SOL    HW210418   1.594   2.502   1.705 -0.1760  0.4868  0.2631
 1060SOL     OW10419   9.299   3.325  10.427  0.1308  0.2779  0.5904
 1060SOL    HW110420   9.288   3.235  10.395  2.0820  0.3097 -0.3073
 1060SOL    HW210421   9.340   3.371  10.354 -0.9384  1.9539  1.0071
 1061SOL     OW10422  10.924  10.241   4.511  0.3406 -0.0523 -0.2153
 1061SOL    HW110423  11.019  10.227   4.505  0.0955 -1.1670 -1.9040
 1061SOL    HW210424  10.885  10.160   4.480 -1.1936  0.5357  0.0816
 1062SOL     OW10425  12.632   2.638   9.823 -0.1173 -0.2357  0.7855
 1062SOL    HW110426  12.671   2.552   9.809 -0.1700 -0.2163  0.5016
 1062SOL    HW210427  12.619   2.673   9.734 -0.2393 -0.0007  0.8942
 1063SOL     OW10428   5.177   2.227   1.458 -0.2457  0.5464 -0.1992
 1063SOL    HW110429   5.115   2.286   1.414 -1.9828 -0.0757  1.2646
 1063SOL    HW210430   5.121   2.159   1.496  1.2105  0.5373  2.1057
 1064SOL     OW10431   4.770   6.741   2.279 -0.1368 -0.4099  0.3498
 1064SOL    HW110432   4.807   6.764   2.193 -1.7850  2.4481  0.2546
 1064SOL    HW210433   4.831   6.678   2.316  1.3888 -0.6501 -2.3345
 1065SOL     OW10434   5.578   0.500   8.192  0.4773  0.3783 -0.0171
 1065SOL    HW110435   5.533   0.494   8.276  1.4499 -0.2695  0.4800
 1065SOL    HW210436   5.542   0.578   8.150 -0.4088  0.4013  0.7639
 1066SOL     OW10437   5.865   0.162   8.797 -0.0018 -0.4471 -0.0785
 1066SOL    HW110438   5.811   0.228   8.754 -0.0048 -1.9245 -2.5709
 1066SOL    HW210439   5.945   0.159   8.744 -0.5193 -3.2697 -0.8834
 1067SOL     OW10440   0.805   2.205   7.766  0.2717  0.4803  0.7394
 1067SOL    HW110441   0.821   2.265   7.694 -1.1143  1.1074  0.9167
 1067SOL    HW210442   0.712   2.216   7.786  0.3855 -0.4649  1.9118
 1068SOL     OW10443  10.576   7.006   3.958 -0.6251  0.6555  0.0010
 1068SOL    HW110444  10.583   7.076   4.022 -0.4684 -0.5361  1.3414
 1068SOL    HW210445  10.662   6.963   3.960 -0.9496 -0.0267 -0.2441
 1069SOL     OW10446   8.179   3.215   3.178 -0.4829  0.4561 -0.0141
 1069SOL    HW110447   8.182   3.124   3.149 -1.7063  0.5345 -0.4772
 1069SOL    HW210448   8.152   3.264   3.101 -1.9190  0.9219  0.7363
 1070SOL     OW10449   7.864   4.377   3.279 -0.1710  0.4422  0.7006
 1070SOL    HW110450   7.937   4.412   3.227  0.0630 -3.0578 -1.7031
 1070SOL    HW210451   7.786   4.403   3.230 -0.0037 -1.9027 -1.0023
 1071SOL     OW10452   3.376   9.576   3.601 -0.1463 -0.8772  0.6065
 1071SOL    HW110453   3.367   9.485   3.573  0.9679 -1.5606  2.3345
 1071SOL    HW210454   3.467   9.583   3.631 -0.2495  0.7832  0.6285
 1072SOL     OW10455   9.921  11.271   2.961  0.8963 -0.0102 -0.2539
 1072SOL    HW110456   9.889  11.225   3.038  0.2584  0.7241 -0.0651
 1072SOL    HW210457  10.000  11.316   2.991  1.4931 -0.9053 -0.4264
 1073SOL     OW10458   9.050   8.088   8.684  0.0356  0.2379  0.1160
 1073SOL    HW110459   9.014   8.085   8.772 -0.9149  1.0037 -0.2311
 1073SOL    HW210460   8.981   8.129   8.631  0.7161  0.0865 -0.9172
 1074SOL     OW10461   1.340   9.635   1.900 -0.0979 -0.4142 -0.2176
 1074SOL    HW110462   1.284   9.677   1.835  1.2391  1.8014 -0.0445
 1074SOL    HW210463   1.351   9.546   1.869 -0.1984  0.3339 -2.5806
 1075SOL     OW10464  10.921   1.378   9.863 -0.0439 -0.2988  0.0524
 1075SOL    HW110465  10.913   1.416   9.776  0.7167 -1.5740 -0.6127
 1075SOL    HW210466  10.835   1.340   9.881 -1.6761  3.6981  1.8044
 1076SOL     OW10467   9.995   0.688   0.229  0.5251 -0.5265 -0.2366
 1076SOL    HW110468   9.960   0.600   0.220  0.3681 -0.5183  0.2596
 1076SOL    HW210469   9.928   0.735   0.280  1.2033 -0.4881  0.6504
 1077SOL     OW10470   4.063  10.313   4.732 -0.4063 -0.6117  0.3633
 1077SOL    HW110471   3.987  10.341   4.682  1.3905  0.3956 -2.0176
 1077SOL    HW210472   4.035  10.233   4.777 -2.7322 -0.4430 -0.6764
 1078SOL     OW10473   8.241   1.517  12.009  0.3275 -0.3928  0.5436
 1078SOL    HW110474   8.253   1.440  12.064 -0.8643 -2.7462 -2.2835
 1078SOL    HW210475   8.156   1.553  12.037  0.5664 -0.4845  1.4094
 1079SOL     OW10476   8.112  12.281   0.295  0.0513  0.2431  0.2509
 1079SOL    HW110477   8.155  12.363   0.274 -0.5625  0.5701  0.2457
 1079SOL    HW210478   8.182  12.215   0.293  0.9167  1.0320  2.0891
 1080SOL     OW10479   3.520  12.398   3.690  0.0860 -0.3663 -0.7849
 1080SOL    HW110480   3.444  12.384   3.633  0.7496 -0.7018 -1.6115
 1080SOL    HW210481   3.534  12.493   3.688 -0.5308 -0.2601 -0.3257
 1081SOL     OW10482  12.566   3.876   9.614 -0.4197  0.2562  0.3959
 1081SOL    HW110483  12.544   3.912   9.700 -0.2133 -0.9958  0.9925
 1081SOL    HW210484  12.504   3.804   9.602  0.5102 -0.5169  0.1473
 1082SOL     OW10485   0.424   2.394   7.376  0.0050 -0.0609 -0.0299
 1082SOL    HW110486   0.416   2.395   7.280  0.2972  0.2689 -0.0547
 1082SOL    HW210487   0.334   2.401   7.407  0.0011  1.6921 -0.2940
 1083SOL     OW10488   4.175   6.302   2.828  0.4762 -1.1282  0.0810
 1083SOL    HW110489   4.226   6.226   2.799 -1.3400 -2.0346 -0.9014
 1083SOL    HW210490   4.087   6.268   2.844 -0.5534  0.8742 -0.9476
 1084SOL     OW10491   2.667   9.421   7.703  0.6043 -0.5054 -0.3934
 1084SOL    HW110492   2.608   9.352   7.733  0.3493  0.5794  1.7476
 1084SOL    HW210493   2.728   9.376   7.644 -0.3731 -2.2839 -0.1103
 1085SOL     OW10494   2.717   0.219  12.317 -0.2067 -0.1809 -0.2644
 1085SOL    HW110495   2.780   0.204  12.248 -0.9477 -1.5775 -0.6728
 1085SOL    HW210496   2.760   0.280  12.377  1.5051 -1.0877 -0.5354
 1086SOL     OW10497  11.430   5.350   6.999  0.0484  0.0235 -0.1853
 1086SOL    HW110498  11.488   5.388   7.065 -1.6110 -1.1611  2.0970
 1086SOL    HW210499  11.389   5.426   6.957  1.2481  0.8213  0.0366
 1087SOL     OW10500   3.650   1.667  10.236  0.1317  0.1864  0.0362
 1087SOL    HW110501   3.588   1.699  10.171  0.7348  0.4303 -0.4350
 1087SOL    HW210502   3.735   1.696  10.204  0.5765 -0.8575  0.2299
 1088SOL     OW10503   8.916   7.720   2.136 -0.2843  0.6596  0.3275
 1088SOL    HW110504   8.829   7.739   2.169 -0.5124  0.7203 -0.3083
 1088SOL    HW210505   8.975   7.756   2.202 -0.7335  0.4119  0.8748
 1089SOL     OW10506   6.125  12.396   0.577 -0.1089 -0.1754  0.2501
 1089SOL    HW110507   6.064  12.459   0.615 -0.5096 -0.1392 -0.4293
 1089SOL    HW210508   6.207  12.410   0.624 -0.3970  0.3495  0.6040
 1090SOL     OW10509   6.220   0.883   4.580  0.1082 -0.6087 -0.2337
 1090SOL    HW110510   6.233   0.797   4.541  1.3715 -0.5203 -0.0314
 1090SOL    HW210511   6.194   0.938   4.506 -2.0940 -1.4122 -0.1508
 1091SOL     OW10512   1.362   2.149  10.099 -0.0096  0.3093  0.5045
 1091SOL    HW110513   1.435   2.124  10.155 -0.7913 -2.0618  0.5616
 1091SOL    HW210514   1.285   2.146  10.157 -0.5871 -0.4364 -0.2731
 1092SOL     OW10515   2.758   7.618  11.199 -0.5976 -0.3592 -0.3293
 1092SOL    HW110516   2.717   7.685  11.144 -1.4589  0.2891  1.0208
 1092SOL    HW210517   2.743   7.536  11.153 -0.4297  0.2656 -1.5188
 1093SOL     OW10518   3.026  10.092   0.459 -0.1338  0.1410  0.2152
 1093SOL    HW110519   3.006  10.085   0.553  0.8016  0.9158  0.4919
 1093SOL    HW210520   3.070  10.010   0.437 -3.0059 -1.3832 -0.2912
 1094SOL     OW10521   4.709   9.461   4.772  0.0568 -0.2589  0.1024
 1094SOL    HW110522   4.786   9.500   4.731 -1.0704 -0.1349 -2.0409
 1094SOL    HW210523   4.713   9.491   4.863  2.9611 -0.9844  0.3010
 1095SOL     OW10524  10.770  10.577   3.008 -0.1702 -0.1781  0.2273
 1095SOL    HW110525  10.803  10.599   3.095  0.1384  2.3275 -0.4476
 1095SOL    HW210526  10.818  10.635   2.949 -1.3116 -0.8941 -1.4733
 1096SOL     OW10527   9.428  11.545   9.667 -0.1789 -0.8657  0.2117
 1096SOL    HW110528   9.368  11.604   9.620 -1.0793 -1.5373  0.4925
 1096SOL    HW210529   9.378  11.464   9.678  2.1829 -3.0220 -3.2056
 1097SOL     OW10530   0.759  10.881   1.993 -0.6125  0.2975 -0.3696
 1097SOL    HW110531   0.738  10.915   1.906 -0.8398  0.5687 -0.2130
 1097SOL    HW210532   0.811  10.802   1.977  0.6519  1.1766 -0.7404
 1098SOL     OW10533  12.662  11.060   4.447  0.1011 -0.2317  0.4409
 1098SOL    HW110534  12.682  11.059   4.541 -1.0852  1.3412  0.7594
 1098SOL    HW210535  12.742  11.095   4.406 -0.0313  0.8726  1.0899
 1099SOL     OW10536   0.038   6.462   6.681 -0.0121 -0.0306  0.3197
 1099SOL    HW110537  -0.003   6.469   6.767  0.0043 -0.9942  0.4136
 1099SOL    HW210538  -0.025   6.415   6.627 -0.8484  2.1672 -0.7693
 1100SOL     OW10539  11.654   3.813   6.904  0.0145  0.0673 -0.1917
 1100SOL    HW110540  11.638   3.902   6.935 -0.3147 -0.1245  0.1950
 1100SOL    HW210541  11.576   3.790   6.854 -0.6380 -0.6011  1.0842
 1101SOL     OW10542   3.689   2.770   6.739 -0.1606  0.1726  0.0031
 1101SOL    HW110543   3.638   2.779   6.657 -0.2648  3.9186  0.3136
 1101SOL    HW210544   3.778   2.752   6.710 -0.0780  2.0511 -1.0383
 1102SOL     OW10545   4.167   4.078   9.803 -0.9149  0.1690  0.1433
 1102SOL    HW110546   4.242   4.115   9.757  1.1076 -2.1358  1.3418
 1102SOL    HW210547   4.150   3.995   9.756 -1.9468  0.1000  0.6183
 1103SOL     OW10548   4.599  11.703   4.864 -0.1344 -0.5126 -0.1682
 1103SOL    HW110549   4.547  11.773   4.824 -1.4335 -1.2176  0.2367
 1103SOL    HW210550   4.624  11.646   4.791  1.0243  0.3895 -0.5169
 1104SOL     OW10551   3.972  10.428  11.136  0.3652 -0.2210  0.3224
 1104SOL    HW110552   3.944  10.476  11.214  0.1531  0.0895  0.0606
 1104SOL    HW210553   3.900  10.440  11.074  1.6635  1.8115 -0.8995
 1105SOL     OW10554   4.192  12.692   2.787  0.3954  0.1168 -0.8998
 1105SOL    HW110555   4.229  12.619   2.737 -0.7274  0.7157 -2.7032
 1105SOL    HW210556   4.123  12.726   2.731 -0.2074  1.5296  0.6401
 1106SOL     OW10557  11.116   7.628  11.401  0.5616 -0.4791 -0.8641
 1106SOL    HW110558  11.091   7.717  11.377  0.8178  0.0504  0.7021
 1106SOL    HW210559  11.212   7.630  11.403  0.5488 -0.5516 -0.0177
 1107SOL     OW10560   1.646   6.679   0.949 -0.5421 -0.1936 -0.1903
 1107SOL    HW110561   1.659   6.711   1.038 -1.3703 -1.4051  0.3825
 1107SOL    HW210562   1.649   6.584   0.957  0.2566 -0.3149 -1.5992
 1108SOL     OW10563  11.850   8.111   8.482 -0.4688 -0.3134  0.5020
 1108SOL    HW110564  11.866   8.163   8.404  4.1020  0.7932  1.8433
 1108SOL    HW210565  11.827   8.175   8.550  1.9087 -0.2952  1.3916
 1109SOL     OW10566   7.775   5.347   3.649  0.2008 -0.1609 -0.2456
 1109SOL    HW110567   7.698   5.301   3.683 -0.0010 -1.2018 -2.0259
 1109SOL    HW210568   7.739   5.423   3.603  0.4642  1.1230  1.5482
 1110SOL     OW10569   7.920   6.742   2.859  0.4157 -0.3110  0.4687
 1110SOL    HW110570   7.952   6.671   2.803  1.5893  0.3431  0.2698
 1110SOL    HW210571   7.854   6.701   2.914  0.7718 -1.4677  0.0688
 1111SOL     OW10572  11.568  10.274   3.780  0.1183  0.3883  0.0308
 1111SOL    HW110573  11.584  10.252   3.688 -0.0576 -0.1564  0.1283
 1111SOL    HW210574  11.636  10.338   3.801  1.7323 -1.2956  0.2071
 1112SOL     OW10575   4.556   1.706   8.122  0.2289  0.4139  0.8862
 1112SOL    HW110576   4.611   1.629   8.109 -0.9100 -0.0707 -1.9372
 1112SOL    HW210577   4.475   1.673   8.160  0.7834  0.7184  2.4152
 1113SOL     OW10578   7.545   9.346   3.603 -0.9007 -0.5484 -0.1612
 1113SOL    HW110579   7.580   9.370   3.689  2.4086  1.1581 -1.7721
 1113SOL    HW210580   7.502   9.426   3.572 -0.4765 -0.5493 -0.7693
 1114SOL     OW10581  11.286   6.235   1.147  0.5943  0.0387 -0.2555
 1114SOL    HW110582  11.333   6.265   1.069  2.5388 -0.3212  0.7060
 1114SOL    HW210583  11.283   6.140   1.139 -1.4955  0.1316 -1.0895
 1115SOL     OW10584   0.759   9.112   7.802 -0.2102  0.3698 -0.6474
 1115SOL    HW110585   0.683   9.068   7.764  0.0332 -0.3103 -0.3589
 1115SOL    HW210586   0.825   9.109   7.733 -0.2819  0.5272 -0.7238
 1116SOL     OW10587   4.107   4.257   7.556 -0.1203 -0.7336 -0.2514
 1116SOL    HW110588   4.180   4.252   7.618 -0.6366 -0.0472  0.4262
 1116SOL    HW210589   4.130   4.328   7.497  0.0709 -0.9560 -0.4422
 1117SOL     OW10590   9.732   9.191   2.111  0.4658 -0.5713 -0.2626
 1117SOL    HW110591   9.644   9.226   2.099  1.1049  0.4965 -2.2914
 1117SOL    HW210592   9.718   9.100   2.136 -1.2585 -0.8835 -2.0619
 1118SOL     OW10593  12.537   3.611   0.922  0.2299  0.2603 -0.3931
 1118SOL    HW110594  12.609   3.557   0.954  1.6452  1.9356 -0.6248
 1118SOL    HW210595  12.468   3.548   0.901 -0.1957 -1.1893  4.1244
 1119SOL     OW10596   7.485   4.052   2.144 -0.1085  0.5815  0.6145
 1119SOL    HW110597   7.428   4.043   2.068  0.6295 -1.1480  0.2081
 1119SOL    HW210598   7.566   4.089   2.109 -0.2800  1.1758  0.8362
 1120SOL     OW10599   4.928   6.080   2.427  0.5601 -0.4933 -0.5800
 1120SOL    HW110600   4.937   6.032   2.344  0.3130  0.2655 -1.0539
 1120SOL    HW210601   4.938   6.172   2.403  0.5046 -0.2680  0.2398
 1121SOL     OW10602  12.401   7.822  11.793  0.1341 -0.7922 -0.0283
 1121SOL    HW110603  12.446   7.784  11.868  1.0982 -0.2885 -0.3304
 1121SOL    HW210604  12.416   7.759  11.722 -0.1257 -0.9033  0.0173
 1122SOL     OW10605   5.263   4.674   1.724 -0.5590  0.3494 -0.2628
 1122SOL    HW110606   5.241   4.641   1.811  0.6113  1.4475  0.4865
 1122SOL    HW210607   5.287   4.595   1.675  0.4266 -0.1438  0.9378
 1123SOL     OW10608   0.978   3.176  11.870  0.3106 -0.4242  0.1354
 1123SOL    HW110609   0.977   3.241  11.940  1.3592 -0.1223 -0.0960
 1123SOL    HW210610   1.065   3.187  11.830  0.9592 -2.7333  0.7953
 1124SOL     OW10611   2.007   0.568   8.523 -0.0149 -0.7688 -0.2475
 1124SOL    HW110612   1.914   0.565   8.545  0.1094 -1.3324  0.2225
 1124SOL    HW210613   2.047   0.622   8.591  0.1427 -1.3093  0.0995
 1125SOL     OW10614   9.350   9.869   4.867  0.5962  0.2936  0.8612
 1125SOL    HW110615   9.440   9.837   4.868  0.3942 -0.3344 -0.1188
 1125SOL    HW210616   9.333   9.894   4.958  2.2165  1.7408  0.8259
 1126SOL     OW10617  10.947   0.403   9.608  0.0658  1.1156 -0.0407
 1126SOL    HW110618  10.964   0.448   9.525  0.9481  0.0690 -0.4540
 1126SOL    HW210619  10.926   0.313   9.583 -1.5519  1.2311  0.7736
 1127SOL     OW10620   6.958   1.839   2.493 -0.2489 -0.3300 -0.0699
 1127SOL    HW110621   6.972   1.744   2.495 -2.3064 -0.6804  0.5285
 1127SOL    HW210622   6.908   1.853   2.412  0.8518  0.3960 -0.6376
 1128SOL     OW10623   4.698  11.484   2.503 -0.4372 -0.2414  0.4974
 1128SOL    HW110624   4.732  11.572   2.520  0.6423 -0.4037 -0.6079
 1128SOL    HW210625   4.604  11.496   2.491 -0.3432  0.7191  0.6267
 1129SOL     OW10626   0.087  12.702   7.297 -0.1744  0.5702  0.0766
 1129SOL    HW110627  -0.000  12.669   7.276 -0.2572  1.4840 -1.1119
 1129SOL    HW210628   0.145  12.627   7.284 -0.7210  0.0588  0.4992
 1130SOL     OW10629  12.491   9.449   1.641  0.1044 -0.6757  0.3738
 1130SOL    HW110630  12.440   9.454   1.722 -0.0174  0.0952  0.2625
 1130SOL    HW210631  12.575   9.412   1.668 -0.2085 -1.1477  0.7134
 1131SOL     OW10632   7.073   0.287  12.585  0.0501 -0.1101  0.3338
 1131SOL    HW110633   7.014   0.311  12.514  0.7028  0.7099  0.0547
 1131SOL    HW210634   7.109   0.371  12.615 -0.0176 -0.4618  1.4605
 1132SOL     OW10635  10.251   1.012   3.215  0.0855  0.2807 -0.2189
 1132SOL    HW110636  10.255   0.923   3.251  0.0669 -0.1131 -1.1512
 1132SOL    HW210637  10.340   1.028   3.183  0.2811  0.8907  0.5983
 1133SOL     OW10638   6.944  10.344   3.358 -0.6442  0.3778  0.7353
 1133SOL    HW110639   7.034  10.313   3.365 -0.7592 -0.0242  0.4798
 1133SOL    HW210640   6.891  10.264   3.368 -1.0097  0.7503  1.9975
 1134SOL     OW10641   8.734  11.206  11.205 -0.1252  0.3649  0.5341
 1134SOL    HW110642   8.710  11.251  11.124  0.8610 -2.0043 -1.2033
 1134SOL    HW210643   8.827  11.186  11.193 -0.1518 -0.6853  1.9116
 1135SOL     OW10644  11.922   2.364   3.590  0.0274  0.2274 -0.4325
 1135SOL    HW110645  11.833   2.338   3.567 -0.2976 -1.5425  2.3108
 1135SOL    HW210646  11.915   2.455   3.617  0.0166  1.5985 -4.4470
 1136SOL     OW10647   9.266   6.040   4.992 -0.3775  0.0722  0.2748
 1136SOL    HW110648   9.240   6.114   4.937  1.6203  1.0312  0.5237
 1136SOL    HW210649   9.255   5.963   4.935  0.5040  0.9138 -1.0879
 1137SOL     OW10650  10.744   8.410   6.532  0.5921  0.6311  1.0848
 1137SOL    HW110651  10.668   8.468   6.523 -0.2101 -0.1439  2.5148
 1137SOL    HW210652  10.735   8.372   6.619  2.0869 -0.2598  0.8819
 1138SOL     OW10653   1.368   6.007   5.036  0.0239 -0.1363  0.3405
 1138SOL    HW110654   1.296   5.996   5.098 -1.1817 -0.0648 -0.9880
 1138SOL    HW210655   1.337   5.964   4.956  1.8202 -0.8641 -0.0128
 1139SOL     OW10656  10.959   5.986  12.400  0.1335  0.2670  0.4608
 1139SOL    HW110657  11.039   5.935  12.386  0.3965  0.3608  1.5295
 1139SOL    HW210658  10.948   5.988  12.495 -2.6020 -1.9761  0.3000
 1140SOL     OW10659   6.763  10.847  12.635  0.5767 -0.1265 -0.1475
 1140SOL    HW110660   6.832  10.801  12.586  1.2804 -3.0295  3.1539
 1140SOL    HW210661   6.803  10.865  12.720 -1.6422  1.5247  0.6192
 1141SOL     OW10662   6.903  11.454   2.409  0.0360  0.3080 -0.5084
 1141SOL    HW110663   6.915  11.359   2.418  0.9266  0.3148 -1.3960
 1141SOL    HW210664   6.809  11.466   2.395 -0.8556 -0.0405  3.8730
 1142SOL     OW10665   0.364  12.082   4.950 -0.0777  0.9490  0.8652
 1142SOL    HW110666   0.405  12.024   4.886  0.6838  1.6982  0.6513
 1142SOL    HW210667   0.270  12.073   4.935 -0.0536 -1.1339  1.6441
 1143SOL     OW10668   2.789   5.185   1.555  0.3662 -0.2010 -0.2081
 1143SOL    HW110669   2.749   5.098   1.553  0.6668 -0.5165  2.8194
 1143SOL    HW210670   2.715   5.245   1.555 -0.3866 -0.7527  4.2792
 1144SOL     OW10671   2.436   5.808   1.054 -0.2645  0.0798  0.5129
 1144SOL    HW110672   2.414   5.897   1.083  0.2422  0.8073 -1.2044
 1144SOL    HW210673   2.411   5.752   1.128 -0.6150  1.6329  1.6336
 1145SOL     OW10674   4.975   8.352   2.281 -0.1488 -0.4145 -0.2492
 1145SOL    HW110675   5.036   8.322   2.213 -1.5024 -1.1896 -1.1891
 1145SOL    HW210676   4.929   8.426   2.241 -0.0785 -0.0575  0.3171
 1146SOL     OW10677   3.185  12.019   1.164  0.1910 -0.2655 -0.4787
 1146SOL    HW110678   3.138  11.961   1.224  1.5470 -1.1523 -0.2220
 1146SOL    HW210679   3.258  12.052   1.216 -0.4374  1.5347 -0.6876
 1147SOL     OW10680   8.154  10.617   0.344 -0.3720 -0.3834 -0.1122
 1147SOL    HW110681   8.157  10.713   0.336  0.8584 -0.3013  1.0496
 1147SOL    HW210682   8.068  10.599   0.382 -0.6840  0.2304 -0.4910
 1148SOL     OW10683   3.494   4.710   8.630  0.5739  0.0217 -0.2507
 1148SOL    HW110684   3.438   4.759   8.690  0.6617 -0.2807  0.0777
 1148SOL    HW210685   3.578   4.703   8.677  0.3898 -0.9387 -0.0586
 1149SOL     OW10686   1.296   8.583   4.572  0.0399  0.4170  0.1421
 1149SOL    HW110687   1.287   8.489   4.556  0.7651  0.4678 -0.6886
 1149SOL    HW210688   1.222   8.605   4.629  1.2890 -1.1357  2.5590
 1150SOL     OW10689   1.804   2.925  11.542  0.3407  0.6760 -0.1137
 1150SOL    HW110690   1.768   2.880  11.619 -1.8300  2.4897  0.0377
 1150SOL    HW210691   1.892   2.951  11.569 -0.2720  1.0440  1.7123
 1151SOL     OW10692   0.155   1.516   1.716 -0.2330 -0.1340  0.1519
 1151SOL    HW110693   0.088   1.584   1.716  1.3510  1.5156 -0.2010
 1151SOL    HW210694   0.224   1.551   1.772  2.3929  0.4523 -3.1524
 1152SOL     OW10695   7.646  12.425   2.451  0.0775  0.0792 -0.3582
 1152SOL    HW110696   7.634  12.513   2.414  1.2519  1.2140  1.7457
 1152SOL    HW210697   7.625  12.366   2.379 -0.9731  2.0616 -1.8033
 1153SOL     OW10698   8.576  10.917   0.866  0.3009 -0.0583  0.1094
 1153SOL    HW110699   8.496  10.955   0.831 -0.4045 -2.4593 -1.1654
 1153SOL    HW210700   8.647  10.967   0.826 -0.5545  0.8848 -0.2423
 1154SOL     OW10701   1.981   0.834   0.915 -0.4680  0.0012  0.3993
 1154SOL    HW110702   1.976   0.835   0.820 -1.7550  0.0393  0.4421
 1154SOL    HW210703   2.061   0.785   0.935 -1.1973 -1.7329 -0.6921
 1155SOL     OW10704  10.478   2.629   9.225  0.5804 -1.0171 -0.1859
 1155SOL    HW110705  10.480   2.725   9.217 -1.0921 -1.0607 -2.1993
 1155SOL    HW210706  10.559   2.607   9.270  0.6689  1.3954  1.0131
 1156SOL     OW10707  10.336   6.297  10.095  0.0995 -0.1972 -0.9081
 1156SOL    HW110708  10.298   6.353  10.027 -1.5955  1.4794  1.2776
 1156SOL    HW210709  10.260   6.257  10.138  1.1105 -1.0550  0.1415
 1157SOL     OW10710  10.693   3.075   6.720  0.1767 -0.3789  0.6657
 1157SOL    HW110711  10.729   3.049   6.805 -0.1232 -1.3814  0.4995
 1157SOL    HW210712  10.613   3.023   6.711 -0.1060  0.1516  0.0277
 1158SOL     OW10713   1.784   0.506   9.668 -0.5034 -0.2015 -0.0409
 1158SOL    HW110714   1.734   0.445   9.723 -0.6003  0.3051  0.4460
 1158SOL    HW210715   1.730   0.519   9.590  0.2603 -2.0085 -0.9321
 1159SOL     OW10716   4.215   0.974   3.763 -0.4998 -0.1194 -0.2579
 1159SOL    HW110717   4.175   1.018   3.839  0.5875  0.7370 -0.1485
 1159SOL    HW210718   4.294   1.025   3.745  0.4912 -1.6732 -0.5331
 1160SOL     OW10719   1.923   6.204  12.316  0.1273  0.6214 -0.7485
 1160SOL    HW110720   1.970   6.195  12.398 -0.7071  1.1549 -0.1890
 1160SOL    HW210721   1.842   6.154  12.329  0.7485 -0.7377 -1.8870
 1161SOL     OW10722   1.060  11.494  10.907 -0.5912  0.5259 -0.5590
 1161SOL    HW110723   1.151  11.499  10.878  0.1383 -1.5911  1.0805
 1161SOL    HW210724   1.010  11.473  10.828  0.6724 -0.4559 -1.1287
 1162SOL     OW10725   9.978  10.785   3.253 -0.1927 -0.4164 -0.4904
 1162SOL    HW110726   9.943  10.769   3.341 -2.1275  0.4703 -1.0366
 1162SOL    HW210727  10.000  10.698   3.220  0.7686 -0.7491  0.9281
 1163SOL     OW10728  11.476   3.373   8.745 -0.3410 -0.0997  0.0109
 1163SOL    HW110729  11.434   3.433   8.685  1.6124  0.9935 -0.3396
 1163SOL    HW210730  11.513   3.428   8.814 -2.3414 -1.2980  2.1853
 1164SOL     OW10731   2.998   1.317  12.226  0.7005  0.0839 -0.1330
 1164SOL    HW110732   2.927   1.253  12.236  0.1620  0.8643  1.4514
 1164SOL    HW210733   2.973   1.368  12.149 -0.5013  0.3258  0.3784
 1165SOL     OW10734   5.980   8.824   4.945 -0.3930 -0.0235  0.1641
 1165SOL    HW110735   5.886   8.825   4.926 -0.4169 -0.5262  0.2604
 1165SOL    HW210736   6.022   8.827   4.859 -0.4897  0.6816  0.1333
 1166SOL     OW10737  10.655  11.255   2.241 -0.8019 -0.1224  0.1786
 1166SOL    HW110738  10.597  11.192   2.198 -1.0777 -0.4257  0.9703
 1166SOL    HW210739  10.685  11.209   2.320 -0.7408  0.6149  0.5885
 1167SOL     OW10740   2.115   1.934   9.915  0.5873 -0.2194 -0.1829
 1167SOL    HW110741   2.205   1.929   9.883  0.9971 -1.2182  1.0269
 1167SOL    HW210742   2.084   1.843   9.915 -0.5584  0.1450 -0.9064
 1168SOL     OW10743   8.381  10.172   4.010 -0.1699 -0.1342 -0.1784
 1168SOL    HW110744   8.446  10.217   3.955 -0.4752  0.9576  0.3382
 1168SOL    HW210745   8.300  10.179   3.961 -0.4748  0.9748  0.4577
 1169SOL     OW10746   5.361   0.928   3.629 -0.1794 -0.3971  0.7166
 1169SOL    HW110747   5.318   1.004   3.590 -1.0354 -2.3601 -2.6315
 1169SOL    HW210748   5.453   0.938   3.606 -0.2147 -0.1476  0.6859
 1170SOL     OW10749   9.120   4.518   3.997 -0.0212 -0.2141 -0.6254
 1170SOL    HW110750   9.137   4.427   4.017 -1.6422 -0.6371 -1.0001
 1170SOL    HW210751   9.026   4.521   3.975  0.2011  1.3593 -1.5542
 1171SOL     OW10752   0.476   2.204   1.254  0.7280 -0.0490 -0.3599
 1171SOL    HW110753   0.423   2.282   1.235 -2.9200 -1.2661  3.2355
 1171SOL    HW210754   0.444   2.138   1.192 -0.2719 -0.1050  0.1914
 1172SOL     OW10755   6.019  11.087  11.512  0.2210 -0.6857 -0.4939
 1172SOL    HW110756   5.978  11.004  11.536  1.8066 -1.2454  0.4138
 1172SOL    HW210757   6.031  11.133  11.595 -0.7419  0.5379 -0.9949
 1173SOL     OW10758   4.576   9.969   4.444  0.2533  0.0602 -0.6866
 1173SOL    HW110759   4.641   9.975   4.513 -0.1010  0.2046 -0.3595
 1173SOL    HW210760   4.517  10.043   4.460 -0.8320 -0.8896 -0.0976
 1174SOL     OW10761  11.090   4.767   3.615 -0.1442 -0.0636  0.5163
 1174SOL    HW110762  11.007   4.721   3.627 -0.2403 -0.4216 -1.2119
 1174SOL    HW210763  11.157   4.703   3.639 -0.2995 -0.9428 -1.2323
 1175SOL     OW10764   8.324   4.702   6.330 -0.3284  0.7190 -0.2661
 1175SOL    HW110765   8.293   4.791   6.317  1.8371  1.6943  0.6872
 1175SOL    HW210766   8.371   4.704   6.413  1.5501 -0.7583 -1.2015
 1176SOL     OW10767  11.278   1.772   0.692 -0.0761  0.2066  0.2396
 1176SOL    HW110768  11.285   1.682   0.723 -3.0012  0.1246  1.0052
 1176SOL    HW210769  11.229   1.766   0.610 -0.8347  1.0916  0.6009
 1177SOL     OW10770  10.419  12.244  11.326  0.3783 -0.0785  0.7056
 1177SOL    HW110771  10.480  12.217  11.394 -0.1518  1.3697  1.7955
 1177SOL    HW210772  10.469  12.235  11.244  1.9157  0.7010  1.5194
 1178SOL     OW10773   6.800   0.848   4.273  0.0022  0.5229  0.6778
 1178SOL    HW110774   6.893   0.869   4.287 -0.6595  2.9318  2.0436
 1178SOL    HW210775   6.759   0.933   4.257 -1.9502 -0.5360 -0.1736
 1179SOL     OW10776  11.896   8.586   7.502  0.1496 -0.2186 -0.3846
 1179SOL    HW110777  11.843   8.535   7.563  0.1797  0.5621  0.3133
 1179SOL    HW210778  11.835   8.613   7.434 -0.3821  0.7049  0.4305
 1180SOL     OW10779   3.150   4.334   9.679  0.0708 -0.0099  0.0489
 1180SOL    HW110780   3.084   4.380   9.627  1.2595 -0.0717 -1.6134
 1180SOL    HW210781   3.132   4.360   9.769 -2.7586 -0.7428 -0.2189
 1181SOL     OW10782   7.049   2.607  11.390 -0.0832  0.4044 -0.5590
 1181SOL    HW110783   6.966   2.597  11.437 -0.1969  0.0695 -0.8313
 1181SOL    HW210784   7.102   2.533  11.421 -0.6102 -0.5791 -1.9088
 1182SOL     OW10785   9.136   7.013   2.522  0.1043 -0.4427  0.0507
 1182SOL    HW110786   9.073   7.022   2.593 -0.0242 -1.0670  0.0208
 1182SOL    HW210787   9.128   7.094   2.472 -1.8888 -1.1873 -0.9300
 1183SOL     OW10788   8.561   7.508   2.210  1.0106 -0.8229  0.4315
 1183SOL    HW110789   8.523   7.464   2.135  0.5638 -0.2863  0.3355
 1183SOL    HW210790   8.562   7.601   2.185  1.2270 -0.6892  0.9262
 1184SOL     OW10791  11.591   6.847  10.162 -0.2828 -0.0939 -0.0757
 1184SOL    HW110792  11.633   6.921  10.206 -1.0733  0.1489  0.2852
 1184SOL    HW210793  11.660   6.810  10.107  0.2106  0.7208 -0.0291
 1185SOL     OW10794  10.702   7.086   9.506  0.4137 -0.5146  0.2913
 1185SOL    HW110795  10.639   7.014   9.498 -0.1231 -0.0674  0.4562
 1185SOL    HW210796  10.716   7.096   9.600 -2.0019  1.6956  0.5284
 1186SOL     OW10797  11.051   5.120  12.394 -0.4030 -0.2193 -0.0232
 1186SOL    HW110798  11.138   5.130  12.434 -0.2686  1.8811 -0.7176
 1186SOL    HW210799  11.067   5.130  12.300 -1.0948 -2.3094 -0.4079
 1187SOL     OW10800  11.325   1.354   7.572 -0.3654  0.0808 -0.1697
 1187SOL    HW110801  11.394   1.350   7.505 -0.4635  0.4765 -0.2970
 1187SOL    HW210802  11.365   1.401   7.644 -0.8583  1.3180 -0.6829
 1188SOL     OW10803   4.322   4.263   3.878  0.0696 -0.6334 -0.1650
 1188SOL    HW110804   4.393   4.295   3.935 -0.6768  0.6471  0.0794
 1188SOL    HW210805   4.262   4.219   3.938  0.3524 -1.1994 -0.2893
 1189SOL     OW10806   4.280   6.321   9.744  0.4745 -0.1477  0.0719
 1189SOL    HW110807   4.307   6.250   9.686  0.9533 -0.0470  0.1659
 1189SOL    HW210808   4.186   6.328   9.732  0.5682 -0.1398 -0.6825
 1190SOL     OW10809  10.001   5.364   3.367 -0.1177  0.2923 -0.1331
 1190SOL    HW110810  10.095   5.357   3.349 -0.1424  0.8057 -0.5035
 1190SOL    HW210811   9.962   5.289   3.322 -0.0174  0.7977 -1.0915
 1191SOL     OW10812  10.522  10.988   3.883 -0.0978 -0.1516 -0.2201
 1191SOL    HW110813  10.608  11.001   3.843 -1.1543  1.0897 -2.2421
 1191SOL    HW210814  10.468  10.950   3.813 -1.4206 -0.1707  0.7603
 1192SOL     OW10815   6.982  10.830  12.279  0.1129  0.0774 -0.6525
 1192SOL    HW110816   6.931  10.757  12.314 -0.4644 -0.1784 -1.9775
 1192SOL    HW210817   7.033  10.862  12.354 -0.8517 -0.6313  0.3305
 1193SOL     OW10818   5.236   0.159   3.094  0.4880 -0.4331 -0.4944
 1193SOL    HW110819   5.222   0.065   3.084 -0.3391 -0.5883  1.4922
 1193SOL    HW210820   5.200   0.179   3.181 -0.5841  1.9512 -1.3898
 1194SOL     OW10821   6.741   3.849   7.491  0.7441  0.7089  0.7237
 1194SOL    HW110822   6.778   3.934   7.469  0.4734  0.4443 -0.9419
 1194SOL    HW210823   6.778   3.790   7.426 -2.0601  0.3152 -0.6741
 1195SOL     OW10824   1.535  11.740   2.646  1.2780  0.3859  0.4748
 1195SOL    HW110825   1.525  11.715   2.554 -1.3492  1.8172  0.2587
 1195SOL    HW210826   1.627  11.766   2.655  1.6804 -0.1521 -1.6380
 1196SOL     OW10827   7.337   9.089   3.634 -0.3432  0.0781  0.2320
 1196SOL    HW110828   7.374   9.101   3.721  0.0695  1.1022 -0.0691
 1196SOL    HW210829   7.370   9.163   3.583  1.0929 -1.5644 -1.3788
 1197SOL     OW10830   7.026   8.365   3.117  0.0409 -0.4436 -0.2194
 1197SOL    HW110831   7.078   8.427   3.066 -0.1938 -0.9911 -1.1582
 1197SOL    HW210832   6.996   8.415   3.193 -1.2427  1.0025 -1.5977
 1198SOL     OW10833   2.908   7.240  11.654  0.1625  0.2595  0.4633
 1198SOL    HW110834   2.911   7.264  11.561  1.5004  0.6339  0.5801
 1198SOL    HW210835   2.837   7.294  11.690 -1.2628 -0.8423 -0.5659
 1199SOL     OW10836   6.046  10.270   7.726 -0.3373 -0.0061  0.0646
 1199SOL    HW110837   6.102  10.252   7.650 -0.5965 -2.1017  0.2916
 1199SOL    HW210838   5.989  10.341   7.699  0.5558  0.2546 -1.1814
 1200SOL     OW10839  12.187   3.977   2.852 -1.0348  0.5923 -0.2571
 1200SOL    HW110840  12.122   4.009   2.915 -1.7787  0.5723 -1.0078
 1200SOL    HW210841  12.141   3.911   2.800 -0.8033  1.4616 -1.6184
 1201SOL     OW10842   4.138   4.319   6.907  0.4998 -0.0178  0.3066
 1201SOL    HW110843   4.157   4.394   6.852 -0.4694  0.7293  0.9564
 1201SOL    HW210844   4.131   4.245   6.846  0.1493  0.6609 -0.4892
 1202SOL     OW10845  10.589  12.139   4.546 -0.1298  0.1019  0.3847
 1202SOL    HW110846  10.663  12.198   4.536  0.6941 -1.2046 -1.7544
 1202SOL    HW210847  10.532  12.184   4.609  0.6834  2.9290 -0.7074
 1203SOL     OW10848   7.803   2.651   8.516  0.6520  0.1565 -0.0429
 1203SOL    HW110849   7.788   2.713   8.588  1.1284  1.4483 -1.0219
 1203SOL    HW210850   7.819   2.706   8.440 -0.6495 -1.1832 -1.3448
 1204SOL     OW10851   4.916   1.199  10.704  0.5704  0.7215 -0.6120
 1204SOL    HW110852   4.942   1.139  10.634  2.0884 -2.5056  2.3556
 1204SOL    HW210853   4.825   1.176  10.722  1.1008 -0.8070  0.4131
 1205SOL     OW10854   9.937   9.044   6.903  0.2503  0.6818 -0.7317
 1205SOL    HW110855   9.946   9.033   6.998  2.2773  0.4842 -0.9059
 1205SOL    HW210856   9.845   9.023   6.885 -0.2433  0.9868  1.2097
 1206SOL     OW10857   6.691   6.713   2.452  0.1548 -0.2139 -0.2074
 1206SOL    HW110858   6.720   6.745   2.366 -0.5808  0.3297 -0.2599
 1206SOL    HW210859   6.771   6.677   2.492  1.0310  1.7233 -0.1223
 1207SOL     OW10860   3.685  11.871  12.526  0.1153  0.0254 -0.1667
 1207SOL    HW110861   3.628  11.926  12.579 -0.1951 -0.9240  0.5277
 1207SOL    HW210862   3.773  11.889  12.557 -0.0058 -0.0187  0.1997
 1208SOL     OW10863   1.198   7.115   6.552 -0.5418 -0.1678 -0.1612
 1208SOL    HW110864   1.113   7.090   6.588 -1.8130  1.3491 -1.8799
 1208SOL    HW210865   1.252   7.036   6.558 -2.6303 -1.7032 -0.5863
 1209SOL     OW10866  11.756   8.972   9.689  0.2579 -0.4129  0.3972
 1209SOL    HW110867  11.812   8.925   9.751 -0.0535  0.4094  1.3306
 1209SOL    HW210868  11.693   8.906   9.659  1.6932 -1.3546 -0.6606
 1210SOL     OW10869   0.768   4.855  11.239  0.1005  0.1073  0.4278
 1210SOL    HW110870   0.688   4.885  11.197  0.7492  2.7136  0.8608
 1210SOL    HW210871   0.791   4.774  11.193 -1.3724  0.6979 -1.4569
 1211SOL     OW10872   1.541   4.029   2.700  0.0350  0.0811 -0.4536
 1211SOL    HW110873   1.522   3.996   2.612 -0.8882  0.8985 -0.5797
 1211SOL    HW210874   1.456   4.035   2.742  0.3436  0.8396  0.0844
 1212SOL     OW10875  12.348   4.432  10.965  0.3113 -0.2373 -0.1155
 1212SOL    HW110876  12.396   4.478  11.034 -0.8263 -1.1620  1.3709
 1212SOL    HW210877  12.291   4.371  11.012 -1.3789 -0.0932 -1.8397
 1213SOL     OW10878   5.832   8.546  10.826  0.0665  0.4696 -0.3262
 1213SOL    HW110879   5.769   8.615  10.849  0.4262  0.6990 -0.0230
 1213SOL    HW210880   5.799   8.469  10.872  0.2999  0.7198  0.2774
 1214SOL     OW10881   0.332   4.477   6.543  0.0158  0.4632  0.5914
 1214SOL    HW110882   0.319   4.566   6.574 -2.5893  0.2838  0.2560
 1214SOL    HW210883   0.295   4.422   6.612 -1.3280 -0.1734 -0.5973
 1215SOL     OW10884   0.195   7.662   5.581 -0.7307  0.6498 -0.1904
 1215SOL    HW110885   0.181   7.616   5.498 -0.3359  0.2346 -0.0337
 1215SOL    HW210886   0.236   7.597   5.638  0.1760  1.2991 -0.0785
 1216SOL     OW10887   9.966  12.303   6.899 -0.4082 -0.2341 -0.6983
 1216SOL    HW110888  10.053  12.295   6.861 -0.0260 -1.1984  0.3315
 1216SOL    HW210889   9.916  12.231   6.859 -0.9989  0.8125 -1.9154
 1217SOL     OW10890   9.910   2.074   2.829  0.0746  0.0557 -0.1664
 1217SOL    HW110891   9.877   2.128   2.757 -0.0824  2.6532  1.7197
 1217SOL    HW210892  10.005   2.082   2.823  0.1377 -1.2131 -1.1128
 1218SOL     OW10893   4.727   3.494   9.269  0.2692  0.0948 -0.3459
 1218SOL    HW110894   4.692   3.475   9.182 -1.7143 -0.3617  0.5042
 1218SOL    HW210895   4.760   3.410   9.301 -2.2126 -0.5545  0.6854
 1219SOL     OW10896   0.383   9.033   7.052 -0.1143  0.0135 -0.0323
 1219SOL    HW110897   0.378   9.035   7.147  2.5340 -1.4370  0.2370
 1219SOL    HW210898   0.383   9.125   7.026 -0.5531  0.4375  1.3756
 1220SOL     OW10899   5.106   9.855  12.083  0.1266  0.4003  0.2605
 1220SOL    HW110900   5.115   9.950  12.084 -0.1366  0.4475 -0.5651
 1220SOL    HW210901   5.071   9.836  11.995 -3.3493 -0.1628  1.6111
 1221SOL     OW10902   1.903   7.303   5.771 -0.1999 -0.6201  0.5008
 1221SOL    HW110903   1.989   7.309   5.728 -0.5235  0.9705 -0.0153
 1221SOL    HW210904   1.874   7.394   5.777 -1.2597 -1.0274  1.9153
 1222SOL     OW10905  12.511   4.358   8.503 -0.3880 -0.6273 -0.0808
 1222SOL    HW110906  12.444   4.354   8.572 -0.9782 -1.1703 -0.6681
 1222SOL    HW210907  12.590   4.321   8.544 -0.5216 -0.2436  0.5332
 1223SOL     OW10908   9.063   4.605   1.882  0.0338 -0.5256 -0.8462
 1223SOL    HW110909   9.004   4.576   1.813 -0.5408 -1.6942  0.1059
 1223SOL    HW210910   9.005   4.640   1.950  0.4899 -0.8951 -0.2637
 1224SOL     OW10911   1.949   1.498   2.068 -0.0845 -0.4932  0.3058
 1224SOL    HW110912   2.034   1.513   2.108 -0.5340 -0.2276  1.1843
 1224SOL    HW210913   1.889   1.557   2.115 -0.7509 -0.6602 -0.3070
 1225SOL     OW10914   5.046   9.896   2.483  0.1164  0.1667 -0.2185
 1225SOL    HW110915   5.114   9.870   2.545  1.0486  0.1738 -1.2138
 1225SOL    HW210916   5.034   9.990   2.499  1.0152  0.3659 -0.6563
 1226SOL     OW10917   0.460   7.958  11.851 -0.0695 -0.2249  0.3361
 1226SOL    HW110918   0.433   7.868  11.831 -2.5522  0.5337  0.0254
 1226SOL    HW210919   0.527   7.948  11.919 -0.6887 -2.2906  0.7152
 1227SOL     OW10920   0.026   3.177   6.279  0.9425 -0.1953 -0.0439
 1227SOL    HW110921  -0.028   3.254   6.260 -0.7929 -1.6698 -1.5752
 1227SOL    HW210922   0.079   3.203   6.354  0.0541  2.2943 -0.1600
 1228SOL     OW10923   6.141   4.286   0.170 -0.1088  0.0709 -0.4740
 1228SOL    HW110924   6.075   4.223   0.141  1.0224 -1.8027  0.7773
 1228SOL    HW210925   6.222   4.236   0.173  0.9081  1.6796  0.3305
 1229SOL     OW10926   2.037  10.909   0.463  0.0183  0.4718  0.0776
 1229SOL    HW110927   1.955  10.895   0.415  0.1899 -0.9378  0.1520
 1229SOL    HW210928   2.049  10.829   0.513  1.1337  0.9211  0.5567
 1230SOL     OW10929   1.123   8.731  11.325 -0.3318 -0.0267  0.1424
 1230SOL    HW110930   1.150   8.672  11.395 -1.6520 -0.9783 -0.1167
 1230SOL    HW210931   1.035   8.702  11.301  0.3839 -0.2549 -2.4873
 1231SOL     OW10932   9.177  10.596  11.225  0.8726  0.3293 -0.0942
 1231SOL    HW110933   9.209  10.639  11.304 -0.7730  2.0037 -0.2570
 1231SOL    HW210934   9.087  10.569  11.248  0.5300  0.4495 -1.2401
 1232SOL     OW10935  12.673  10.167   0.356 -0.0605 -0.2980  1.0745
 1232SOL    HW110936  12.617  10.174   0.278 -0.2335  1.1607  1.2986
 1232SOL    HW210937  12.761  10.157   0.321 -0.2279 -0.5029  0.7012
 1233SOL     OW10938   0.904   1.357   8.577 -0.5594  0.2235  0.4586
 1233SOL    HW110939   0.853   1.391   8.504  0.0404  2.0124  0.8076
 1233SOL    HW210940   0.928   1.435   8.627  0.0113 -0.8484  1.9331
 1234SOL     OW10941   7.060   5.724   2.850 -0.0293  0.0885  0.1137
 1234SOL    HW110942   7.086   5.646   2.898 -1.7389  0.2387  1.3570
 1234SOL    HW210943   7.143   5.771   2.835  0.6588 -0.2948  2.3491
 1235SOL     OW10944   3.742  10.316  10.828  0.3115 -0.3006 -0.3537
 1235SOL    HW110945   3.683  10.350  10.760 -1.8534 -1.1831  0.9604
 1235SOL    HW210946   3.793  10.248  10.785 -0.6030 -0.4356 -1.2493
 1236SOL     OW10947   6.052   4.201   9.712  0.4481 -0.1757 -0.1940
 1236SOL    HW110948   6.126   4.217   9.654 -0.8211 -0.0646 -1.8296
 1236SOL    HW210949   5.976   4.234   9.665 -0.6110  0.1587  1.6481
 1237SOL     OW10950   4.232   3.964   8.984  0.0457  0.3237 -0.6375
 1237SOL    HW110951   4.294   3.892   8.971  2.3756  2.2252 -0.6638
 1237SOL    HW210952   4.225   3.973   9.079 -2.6179 -1.7494 -0.5168
 1238SOL     OW10953   9.509   6.332   6.664 -0.3285 -0.8511 -0.3997
 1238SOL    HW110954   9.600   6.307   6.652  0.6596  2.2818 -0.4247
 1238SOL    HW210955   9.497   6.407   6.605 -2.0369  0.6672  1.7210
 1239SOL     OW10956  10.190   0.368   8.177  0.1071  0.0285 -0.0998
 1239SOL    HW110957  10.267   0.372   8.120 -0.8332  0.9194 -1.3587
 1239SOL    HW210958  10.147   0.287   8.153  1.2483 -1.1037  1.4707
 1240SOL     OW10959   2.168  11.918  10.036  0.4411 -0.0528 -0.3501
 1240SOL    HW110960   2.097  11.949  10.092  0.8928  1.1270 -0.3909
 1240SOL    HW210961   2.126  11.895   9.953  0.3779  3.7184 -1.5562
 1241SOL     OW10962   8.799  11.430   7.712  0.5786  0.5639 -0.1783
 1241SOL    HW110963   8.868  11.407   7.651  1.2753 -0.3820  0.9244
 1241SOL    HW210964   8.776  11.521   7.690 -0.3922 -0.2601 -2.9048
 1242SOL     OW10965   0.845   0.048   4.382  0.2144 -0.2973  0.0407
 1242SOL    HW110966   0.869   0.034   4.290  0.5741 -0.0120  0.0874
 1242SOL    HW210967   0.893   0.127   4.407 -1.0772  0.5164  0.0363
 1243SOL     OW10968   5.003   4.873  10.704 -0.3091  0.5680  0.5471
 1243SOL    HW110969   5.058   4.804  10.669 -0.6291  1.2805 -1.5404
 1243SOL    HW210970   4.917   4.858  10.663 -1.7734 -0.4918  3.6608
 1244SOL     OW10971   2.416   2.594   4.509  0.2236 -0.2243  0.4039
 1244SOL    HW110972   2.422   2.500   4.493 -0.1313 -0.5442  1.9567
 1244SOL    HW210973   2.371   2.601   4.593  0.0137  1.3495  0.1912
 1245SOL     OW10974  11.826  10.228   1.946 -0.0555 -0.4087  0.5382
 1245SOL    HW110975  11.882  10.172   2.000 -0.2626 -0.7051  0.4455
 1245SOL    HW210976  11.803  10.174   1.871  0.7932  0.2225 -0.2045
 1246SOL     OW10977   1.901   5.082   0.450 -0.3356  0.0411  0.2015
 1246SOL    HW110978   1.871   5.154   0.393 -2.2242 -1.4736 -0.8395
 1246SOL    HW210979   1.969   5.038   0.399  0.6495  0.9075  0.7379
 1247SOL     OW10980   5.164   1.003  11.797 -0.2514 -0.3890 -0.7808
 1247SOL    HW110981   5.104   1.024  11.869  1.2483 -0.0812  0.4122
 1247SOL    HW210982   5.159   1.080  11.739 -1.1210 -0.4403 -0.7908
 1248SOL     OW10983  12.391   5.209   4.290  0.0166 -0.0577 -0.0174
 1248SOL    HW110984  12.440   5.291   4.281  1.6881 -1.0078 -0.0454
 1248SOL    HW210985  12.299   5.235   4.286  0.5001  1.6047 -1.9586
 1249SOL     OW10986   7.679   8.200   8.287  0.7135  0.8912  1.0403
 1249SOL    HW110987   7.703   8.108   8.291  1.3163  1.0980  2.9027
 1249SOL    HW210988   7.762   8.247   8.295  0.3265  1.6004  0.9813
 1250SOL     OW10989  10.118   6.451   8.339 -0.4023  0.0435 -0.4522
 1250SOL    HW110990  10.203   6.415   8.365  0.0447  1.9570  0.9900
 1250SOL    HW210991  10.090   6.503   8.414 -2.5382  0.0371 -1.1769
 1251SOL     OW10992  11.089  12.517   3.400 -0.0033 -0.4483 -0.4771
 1251SOL    HW110993  11.014  12.570   3.371 -1.1839 -1.1178  1.1698
 1251SOL    HW210994  11.049  12.444   3.446  1.6788  0.3363  2.4521
 1252SOL     OW10995   1.597  12.277  12.272 -0.0294  0.2253 -0.4724
 1252SOL    HW110996   1.590  12.189  12.236  0.6716 -0.2601  0.5457
 1252SOL    HW210997   1.638  12.329  12.202  1.3044 -0.6938 -0.4080
 1253SOL     OW10998   1.605  11.330  10.027 -0.1040 -0.5477  0.1015
 1253SOL    HW110999   1.619  11.251   9.974 -0.0544 -0.3988 -0.1102
 1253SOL    HW211000   1.510  11.339  10.031 -0.1173 -0.7918  0.3885
 1254SOL     OW11001   8.263  11.108   3.639  0.0406 -0.5739  0.3110
 1254SOL    HW111002   8.311  11.121   3.720  1.1162 -2.1110 -0.0305
 1254SOL    HW211003   8.279  11.016   3.616  0.0618 -0.0911 -1.8149
 1255SOL     OW11004   5.629   2.981   8.641 -0.1866  0.4149  0.2185
 1255SOL    HW111005   5.667   2.989   8.728 -0.3901 -0.7608  0.4281
 1255SOL    HW211006   5.704   2.979   8.582  0.0283 -0.3915  0.5070
 1256SOL     OW11007   4.105   0.104   8.933  0.2927 -0.5450 -0.3297
 1256SOL    HW111008   4.185   0.145   8.967  1.1797 -1.7111 -0.9262
 1256SOL    HW211009   4.103   0.018   8.975 -1.1189 -0.2263  0.3114
 1257SOL     OW11010   9.725   1.323   6.700  0.0264  0.3250 -0.1117
 1257SOL    HW111011   9.760   1.342   6.613  0.1783  1.8583  0.2542
 1257SOL    HW211012   9.802   1.295   6.751  0.1369  0.4748 -0.1935
 1258SOL     OW11013  11.931   8.518   8.525 -0.1848 -0.3288 -0.4702
 1258SOL    HW111014  11.973   8.563   8.452 -0.3523  1.8615  0.7018
 1258SOL    HW211015  11.843   8.498   8.493  0.0401 -0.2218 -1.1719
 1259SOL     OW11016   9.625   8.370   4.857  0.4747 -0.3342 -0.2835
 1259SOL    HW111017   9.591   8.405   4.939 -1.9601 -0.6756 -1.0764
 1259SOL    HW211018   9.690   8.435   4.828  0.7891  0.1862  1.4688
 1260SOL     OW11019  11.230  11.590   8.493  0.7442  0.0392 -0.4410
 1260SOL    HW111020  11.292  11.525   8.460  1.0203 -0.2306  0.5632
 1260SOL    HW211021  11.284  11.647   8.548  0.2859  0.4327 -0.3934
 1261SOL     OW11022   5.827   8.530  10.224  0.1874  0.3291  0.5491
 1261SOL    HW111023   5.866   8.617  10.229  2.8270 -0.6715 -0.4401
 1261SOL    HW211024   5.791   8.525  10.135  0.9107  0.1361  0.2521
 1262SOL     OW11025   8.334   0.718   6.925  0.0558 -0.3298  0.0500
 1262SOL    HW111026   8.336   0.625   6.946 -0.6418 -0.1181  1.1099
 1262SOL    HW211027   8.371   0.761   7.002 -0.5363  0.3315 -0.0226
 1263SOL     OW11028  11.154  12.624   7.949  0.4865 -0.1532 -0.6756
 1263SOL    HW111029  11.245  12.614   7.924  1.1628 -2.5370  2.1316
 1263SOL    HW211030  11.156  12.682   8.025 -0.4573  0.5593 -1.1796
 1264SOL     OW11031   5.990   9.297   8.096 -0.3619  0.0105  0.5760
 1264SOL    HW111032   6.029   9.214   8.122 -0.6005 -0.5153 -0.6829
 1264SOL    HW211033   5.919   9.311   8.159  0.0368 -0.4414  1.1401
 1265SOL     OW11034   9.529   7.111  10.791  0.3902 -0.0042  0.0181
 1265SOL    HW111035   9.510   7.042  10.855  0.1043 -0.0295 -0.0921
 1265SOL    HW211036   9.624   7.107  10.779  0.6041  0.7218  1.2613
 1266SOL     OW11037   2.691   2.548   3.582 -0.1399 -0.2426 -0.6283
 1266SOL    HW111038   2.609   2.586   3.550 -0.0557  0.2901 -0.2446
 1266SOL    HW211039   2.743   2.624   3.606  0.0489 -0.6080  0.1419
 1267SOL     OW11040   3.641  11.917  12.247 -0.5121  0.2378  0.5639
 1267SOL    HW111041   3.665  11.907  12.339 -1.3000  0.5869  0.8151
 1267SOL    HW211042   3.680  11.841  12.204  3.2581  2.0473  0.4424
 1268SOL     OW11043  11.333   6.028   3.474  0.0887  0.0777  0.4833
 1268SOL    HW111044  11.298   5.945   3.442 -1.5793  0.2162  1.8080
 1268SOL    HW211045  11.322   6.024   3.569  3.0655  0.4836  0.9564
 1269SOL     OW11046   6.209   1.051   3.205 -0.5994 -0.6687  0.1049
 1269SOL    HW111047   6.236   1.124   3.261 -0.9642  0.2615 -0.9052
 1269SOL    HW211048   6.281   0.988   3.211  0.2501  0.2736  0.0994
 1270SOL     OW11049   6.981   1.523   6.029  0.4067  0.4773  0.0959
 1270SOL    HW111050   6.887   1.542   6.033  0.4432  1.7012 -2.8001
 1270SOL    HW211051   6.986   1.435   5.990  0.5166 -0.7621  2.6551
 1271SOL     OW11052   2.420  10.377   5.962 -0.1562  0.6892 -0.3854
 1271SOL    HW111053   2.396  10.470   5.961  0.4584  0.8657  0.2142
 1271SOL    HW211054   2.381  10.341   5.883  0.1756  1.6069 -0.9767
 1272SOL     OW11055   1.589   6.642  10.359 -0.7882 -0.6230 -0.3761
 1272SOL    HW111056   1.652   6.651  10.287 -0.9324 -2.2051 -0.7303
 1272SOL    HW211057   1.507   6.617  10.317 -1.3064  0.0678  0.2055
 1273SOL     OW11058   9.563   7.677   2.059  0.1649 -1.0209  0.4919
 1273SOL    HW111059   9.614   7.734   2.001 -0.1300 -1.1063  0.1484
 1273SOL    HW211060   9.488   7.730   2.084 -0.0073 -1.1889  0.3317
 1274SOL     OW11061   7.254   7.039   3.568  0.1248  0.1089 -1.1072
 1274SOL    HW111062   7.199   7.106   3.527  0.5508  1.4317  0.3609
 1274SOL    HW211063   7.263   7.069   3.659  0.2229 -2.0333 -0.3545
 1275SOL     OW11064   3.109   2.268   4.633 -0.3358  0.0713  0.4950
 1275SOL    HW111065   3.148   2.202   4.576  1.0708  0.8938  0.4600
 1275SOL    HW211066   3.146   2.350   4.603 -0.9533  0.7184  1.4547
 1276SOL     OW11067  10.914  11.610  11.615  0.0850  0.4150 -0.7576
 1276SOL    HW111068  10.885  11.607  11.706 -0.5417  0.7797 -0.9345
 1276SOL    HW211069  10.838  11.578  11.565  0.4162  0.2351 -1.1500
 1277SOL     OW11070   2.418   0.173  12.098 -0.3342  0.6602 -0.3154
 1277SOL    HW111071   2.491   0.119  12.068 -0.2041 -1.3985  3.2128
 1277SOL    HW211072   2.340   0.120  12.080 -0.5700  0.9437 -0.1359
 1278SOL     OW11073   3.555   7.110   0.717 -0.2852  0.0179 -0.0290
 1278SOL    HW111074   3.643   7.129   0.750 -0.0140 -1.2087  0.0025
 1278SOL    HW211075   3.503   7.097   0.797 -0.3152 -0.0051 -0.0524
 1279SOL     OW11076   7.168   8.044   4.926 -1.0826 -0.0320 -0.1341
 1279SOL    HW111077   7.133   8.018   4.841 -1.6760 -0.1640  0.1456
 1279SOL    HW211078   7.138   8.134   4.938 -1.9000 -0.3618  0.3956
 1280SOL     OW11079   2.002   5.975   0.172  0.1248 -0.2766  1.0852
 1280SOL    HW111080   2.093   5.968   0.143  0.2587 -0.3477  1.5257
 1280SOL    HW211081   1.966   5.887   0.158 -0.5514  0.2947 -1.3102
 1281SOL     OW11082   1.107   5.237   3.790  0.1809  0.8121  0.1920
 1281SOL    HW111083   1.136   5.157   3.746  3.0610  1.5164  0.5782
 1281SOL    HW211084   1.021   5.256   3.753  0.7864 -0.7487 -2.2038
 1282SOL     OW11085   8.816   2.768   1.450  0.1531  0.5177  0.3746
 1282SOL    HW111086   8.821   2.675   1.429  0.4618  0.4766  0.6288
 1282SOL    HW211087   8.864   2.777   1.532  0.2443  0.9231  0.2778
 1283SOL     OW11088   4.704  11.417   3.876  0.5916 -0.3077  0.0632
 1283SOL    HW111089   4.626  11.468   3.901  1.0578  0.3167  0.2715
 1283SOL    HW211090   4.678  11.370   3.797  0.2719  0.5637 -0.3607
 1284SOL     OW11091   8.957   5.649   1.069  0.1690 -0.0913  0.3692
 1284SOL    HW111092   8.922   5.561   1.056  1.5400 -0.7823  1.1602
 1284SOL    HW211093   9.024   5.639   1.136  2.5163  0.9728 -1.6749
 1285SOL     OW11094  11.106   8.392   4.229  0.6571 -0.0343  0.3657
 1285SOL    HW111095  11.036   8.366   4.170  1.9221 -1.4696 -0.5862
 1285SOL    HW211096  11.075   8.472   4.270 -0.6332  0.5373 -1.6189
 1286SOL     OW11097   8.171  11.190   7.532 -0.3440 -0.1025 -0.0300
 1286SOL    HW111098   8.137  11.122   7.474 -1.4982  0.9717 -0.6389
 1286SOL    HW211099   8.264  11.168   7.542 -0.6197 -1.5807 -0.4549
 1287SOL     OW11100   9.173  12.486   7.379  0.4971 -0.0755  0.1299
 1287SOL    HW111101   9.140  12.556   7.324 -1.5770 -1.0658  0.0376
 1287SOL    HW211102   9.154  12.406   7.331  0.7270 -0.8341  1.2668
 1288SOL     OW11103  12.354  10.735   2.031  0.2532  0.4892 -0.0698
 1288SOL    HW111104  12.361  10.640   2.033  1.0935  0.5033 -1.4394
 1288SOL    HW211105  12.439  10.765   1.999  0.5437  1.8039  1.7313
 1289SOL     OW11106   1.635   6.317   2.692  0.0911 -0.3108 -0.5080
 1289SOL    HW111107   1.683   6.370   2.630  1.0820 -0.4983  0.0856
 1289SOL    HW211108   1.589   6.252   2.638 -0.6773  0.7584 -1.1851
 1290SOL     OW11109   3.022   3.586   9.678 -0.2440  0.0376 -0.3877
 1290SOL    HW111110   2.994   3.623   9.762 -2.0091  0.4334 -1.1008
 1290SOL    HW211111   2.942   3.581   9.627  0.5291 -1.7176 -1.4946
 1291SOL     OW11112   7.598   3.340   4.506 -0.3790 -0.4400  0.4820
 1291SOL    HW111113   7.618   3.248   4.491  1.3819 -0.3429  1.8582
 1291SOL    HW211114   7.504   3.341   4.526 -0.5202 -1.8567 -0.0126
 1292SOL     OW11115   3.658   0.659   1.704 -1.1674  0.2798  0.6108
 1292SOL    HW111116   3.581   0.670   1.760 -0.0037  2.2514  1.9478
 1292SOL    HW211117   3.698   0.745   1.702  0.3396 -0.4147 -1.0838
 1293SOL     OW11118   5.445   8.611   5.099  0.3356 -0.5895 -0.4418
 1293SOL    HW111119   5.535   8.579   5.106  0.0340 -1.1529  3.1107
 1293SOL    HW211120   5.394   8.534   5.076  0.6314 -0.4732 -1.5263
 1294SOL     OW11121   0.696  11.105   0.061  0.6041  0.4999 -0.0788
 1294SOL    HW111122   0.640  11.059   0.124  0.6922  0.7142  0.1594
 1294SOL    HW211123   0.701  11.047  -0.014 -1.8927  1.4572 -1.1090
 1295SOL     OW11124   4.855   9.475   5.084  0.1632 -0.7762 -0.2732
 1295SOL    HW111125   4.773   9.519   5.108  0.2152 -0.9613  0.2576
 1295SOL    HW211126   4.891   9.445   5.168  1.2485  0.1227 -0.4099
 1296SOL     OW11127   1.962   6.931   0.618 -0.1985  0.6573 -0.0372
 1296SOL    HW111128   1.928   7.018   0.639 -0.5968  0.9616 -1.7799
 1296SOL    HW211129   1.892   6.871   0.643 -0.1542  0.8848  0.6408
 1297SOL     OW11130   4.793  10.283   4.145  0.2040 -0.4829 -0.7562
 1297SOL    HW111131   4.754  10.353   4.092 -1.2889 -0.0618  0.7863
 1297SOL    HW211132   4.887  10.287   4.124  0.3650  2.6743 -0.0418
 1298SOL     OW11133   2.137   4.874   2.232 -0.4036 -0.2319 -0.2868
 1298SOL    HW111134   2.162   4.782   2.246 -0.5651 -0.1250  0.8686
 1298SOL    HW211135   2.048   4.870   2.197 -0.3904 -0.5238 -0.2886
 1299SOL     OW11136   4.091   8.000   9.703  0.2251 -0.2451  0.0207
 1299SOL    HW111137   4.004   8.001   9.663 -0.2306  0.4337  0.9842
 1299SOL    HW211138   4.074   7.992   9.797  1.2282 -0.7142  0.1797
 1300SOL     OW11139   6.206   8.032   2.577 -0.4612  0.1900  0.2793
 1300SOL    HW111140   6.224   8.004   2.667 -2.2432  0.4132  0.7324
 1300SOL    HW211141   6.120   7.995   2.557 -0.7282  1.3396 -0.8245
 1301SOL     OW11142   7.347   7.915  10.415 -0.3678 -0.8297 -0.1413
 1301SOL    HW111143   7.326   7.998  10.459 -0.9825 -1.0585  0.0060
 1301SOL    HW211144   7.434   7.930  10.377 -0.5844 -0.0201 -0.3523
 1302SOL     OW11145   8.595   8.808   6.436 -0.1834  0.2099  0.3650
 1302SOL    HW111146   8.616   8.729   6.486  0.4342 -0.5823 -1.0849
 1302SOL    HW211147   8.676   8.860   6.437  0.1199 -0.2284 -0.5369
 1303SOL     OW11148   0.748  10.690  10.508  0.1457  0.7488  0.1595
 1303SOL    HW111149   0.662  10.691  10.549 -0.1780 -0.2037 -0.4610
 1303SOL    HW211150   0.743  10.619  10.444  1.1048  1.2637 -0.5050
 1304SOL     OW11151  11.357   9.224   7.833 -0.3036  0.0084 -0.2527
 1304SOL    HW111152  11.340   9.308   7.792  1.1306  0.5084  0.1138
 1304SOL    HW211153  11.390   9.169   7.762 -0.1657  0.1125 -0.2699
 1305SOL     OW11154   7.743  11.616   3.666 -0.0671 -0.5943  0.1941
 1305SOL    HW111155   7.683  11.617   3.592 -0.2876  1.1831  0.3576
 1305SOL    HW211156   7.783  11.703   3.666 -1.1608  0.0165  3.0005
 1306SOL     OW11157   9.396  11.277  11.880 -0.2043  0.1337 -0.1204
 1306SOL    HW111158   9.317  11.332  11.875 -0.0724  0.2469 -1.0022
 1306SOL    HW211159   9.363  11.193  11.912 -0.3934  0.7216  1.3594
 1307SOL     OW11160  12.017  11.926   7.818 -0.0879  0.2723 -0.0336
 1307SOL    HW111161  12.048  12.008   7.856 -2.2518  0.0452  2.5108
 1307SOL    HW211162  12.082  11.861   7.845 -0.8821  0.3582  2.3552
 1308SOL     OW11163   9.460   5.867  11.561  0.4169 -0.3095  0.5854
 1308SOL    HW111164   9.524   5.910  11.617 -1.2683  2.3320  0.6726
 1308SOL    HW211165   9.466   5.913  11.477 -1.1931 -0.1213  0.5371
 1309SOL     OW11166  11.479   8.224   8.092  0.1070 -0.2549  0.1941
 1309SOL    HW111167  11.482   8.249   8.000 -3.0739 -0.7230 -0.1764
 1309SOL    HW211168  11.539   8.283   8.137  0.0988  1.4143 -1.8995
 1310SOL     OW11169   9.198   1.954   9.249 -0.1967 -0.1717 -0.1132
 1310SOL    HW111170   9.259   1.904   9.302 -1.2524 -2.2885 -0.7642
 1310SOL    HW211171   9.244   2.035   9.229  1.6902 -0.9471  0.8505
 1311SOL     OW11172   4.105  11.099   5.623  0.0876  0.3101 -0.6014
 1311SOL    HW111173   4.165  11.026   5.638  0.2325  0.7141  0.9252
 1311SOL    HW211174   4.056  11.107   5.705 -2.0528  0.0275 -1.7823
 1312SOL     OW11175   3.991   5.375   7.625  0.2591  0.4209  0.1636
 1312SOL    HW111176   3.942   5.442   7.672 -0.1452 -0.4435  1.0207
 1312SOL    HW211177   3.952   5.374   7.538 -0.6838  0.3444  0.5696
 1313SOL     OW11178   5.405   8.874   7.952  0.2322  0.3529 -0.0641
 1313SOL    HW111179   5.453   8.808   8.003 -1.3014 -0.6289  0.1851
 1313SOL    HW211180   5.469   8.943   7.935  2.0926 -1.4761 -0.8906
 1314SOL     OW11181  12.538   8.836   9.421 -0.5692  0.3721  0.1184
 1314SOL    HW111182  12.511   8.892   9.494 -0.7894  0.4236 -0.0011
 1314SOL    HW211183  12.496   8.752   9.440  0.5549 -0.0505  0.8092
 1315SOL     OW11184   7.856   2.805   5.223 -0.1362  0.3469 -0.0567
 1315SOL    HW111185   7.828   2.852   5.145 -1.1996 -0.7731 -0.3786
 1315SOL    HW211186   7.794   2.832   5.291  0.2302  0.6182  0.1761
 1316SOL     OW11187   2.530   6.714   0.645  0.3905  0.4796 -0.0960
 1316SOL    HW111188   2.548   6.796   0.691 -0.3568  0.5747  0.0403
 1316SOL    HW211189   2.485   6.660   0.710  0.7140  0.0266 -0.2431
 1317SOL     OW11190   6.004   3.653  11.602 -0.4998 -0.4947  0.6204
 1317SOL    HW111191   5.940   3.591  11.634  0.4583 -0.8820  1.8653
 1317SOL    HW211192   5.970   3.739  11.629 -0.5234 -0.6921  1.2301
 1318SOL     OW11193   4.190   7.056   8.819  0.3887 -0.2944  0.1570
 1318SOL    HW111194   4.103   7.077   8.784  0.3034 -2.5035 -1.1458
 1318SOL    HW211195   4.205   7.122   8.887 -2.1893  0.2917  0.2650
 1319SOL     OW11196   4.379  10.473   3.893  0.6960 -0.1194 -0.1831
 1319SOL    HW111197   4.393  10.384   3.927  1.2086  0.0277 -0.0026
 1319SOL    HW211198   4.465  10.501   3.863  0.5137  0.2783 -0.3387
 1320SOL     OW11199   8.566  11.957  11.420  0.0102 -0.4042 -0.0252
 1320SOL    HW111200   8.584  12.037  11.371  0.8376  0.2920  1.3359
 1320SOL    HW211201   8.596  11.887  11.363 -1.5230  0.1629 -1.6105
 1321SOL     OW11202   0.696   0.514   4.537 -0.1465  0.1024  0.0665
 1321SOL    HW111203   0.709   0.600   4.575  0.6155  0.3796 -0.7971
 1321SOL    HW211204   0.714   0.525   4.444 -0.3235 -0.9205 -0.1059
 1322SOL     OW11205   0.413   9.467  10.506 -0.8204 -0.1136  0.1953
 1322SOL    HW111206   0.467   9.492  10.580  0.6758 -0.0299 -0.8687
 1322SOL    HW211207   0.385   9.377  10.526 -1.1507  0.2130  1.2352
 1323SOL     OW11208   7.957  11.343   4.918  0.1781  0.3765  0.0469
 1323SOL    HW111209   7.924  11.265   4.874  1.5914  1.1414 -2.5726
 1323SOL    HW211210   7.949  11.413   4.853 -1.2499  2.5410  2.3659
 1324SOL     OW11211   2.694   8.057  10.814  0.6173 -0.1220 -0.6322
 1324SOL    HW111212   2.742   8.128  10.857  0.3236 -0.3016  0.0160
 1324SOL    HW211213   2.644   8.101  10.745  0.4697  0.3089 -0.2628
 1325SOL     OW11214   9.084   8.444   0.744  0.2864 -0.2731 -0.3083
 1325SOL    HW111215   9.071   8.482   0.657  0.0694 -0.3437 -0.3072
 1325SOL    HW211216   9.118   8.356   0.727  1.2158  0.0711 -0.3044
 1326SOL     OW11217   1.837   4.439   2.653 -0.5820 -0.0615 -0.7947
 1326SOL    HW111218   1.825   4.422   2.746  0.6528 -0.1724 -0.6407
 1326SOL    HW211219   1.800   4.363   2.610  0.4180 -0.8487 -0.3077
 1327SOL     OW11220   2.095   0.355  10.404  0.0533 -0.2813 -0.0304
 1327SOL    HW111221   2.085   0.322  10.314 -0.1458 -3.1284  0.9295
 1327SOL    HW211222   2.186   0.381  10.410  0.8812 -2.8633 -0.2877
 1328SOL     OW11223   1.594   7.574   2.778 -0.5200 -0.2709  0.2687
 1328SOL    HW111224   1.635   7.595   2.862  1.2345  0.9116 -0.8270
 1328SOL    HW211225   1.606   7.479   2.769  0.1190 -0.2630  0.9512
 1329SOL     OW11226   4.160   1.705   2.570  0.3131  0.0622 -0.2643
 1329SOL    HW111227   4.100   1.702   2.496 -1.5299 -0.5265  1.1888
 1329SOL    HW211228   4.165   1.797   2.594 -1.6604 -0.0579  0.8255
 1330SOL     OW11229   5.178   7.407   8.053 -0.3461 -0.5092  0.4629
 1330SOL    HW111230   5.233   7.330   8.065  1.0965  0.3974 -0.1080
 1330SOL    HW211231   5.237   7.481   8.068 -0.9598  0.5268 -1.9010
 1331SOL     OW11232   4.832  12.410   5.232 -0.1268 -0.0608 -0.0566
 1331SOL    HW111233   4.872  12.324   5.244 -2.2998 -1.1256  0.1028
 1331SOL    HW211234   4.866  12.442   5.149  2.3278 -0.0886  0.8608
 1332SOL     OW11235  10.458   3.434  11.412 -0.2013  0.1028 -0.1600
 1332SOL    HW111236  10.486   3.426  11.321  0.5842 -1.4070  0.1980
 1332SOL    HW211237  10.538   3.457  11.460 -0.1228 -1.4133  0.4673
 1333SOL     OW11238  10.712   0.089   5.395  0.0762 -0.1812 -0.5483
 1333SOL    HW111239  10.727   0.006   5.440  1.4010  0.2080 -0.2271
 1333SOL    HW211240  10.800   0.121   5.374 -0.2788  2.0687  1.0516
 1334SOL     OW11241   1.586   9.389   1.788 -0.1277  0.5454 -0.1256
 1334SOL    HW111242   1.633   9.306   1.787 -0.1856  0.5037 -2.3172
 1334SOL    HW211243   1.494   9.363   1.796 -0.0293  0.5342  1.4123
 1335SOL     OW11244   5.188   5.755  12.117 -0.0908 -0.9856 -0.0101
 1335SOL    HW111245   5.191   5.777  12.210  0.9104  1.0849 -0.4714
 1335SOL    HW211246   5.271   5.785  12.082 -1.3280  0.4073 -1.9799
 1336SOL     OW11247   3.907   8.284   2.447  0.1382  0.0664 -1.0081
 1336SOL    HW111248   3.941   8.196   2.431 -0.8277 -0.3135 -0.9979
 1336SOL    HW211249   3.957   8.339   2.386 -0.2733 -0.7045 -2.0863
 1337SOL     OW11250   1.281   8.148   3.972  0.2212  0.0028 -0.1667
 1337SOL    HW111251   1.271   8.079   3.907  1.2506 -0.0200 -0.3232
 1337SOL    HW211252   1.320   8.221   3.924 -0.2526  0.4605  0.1390
 1338SOL     OW11253   8.254   3.724   0.769 -0.0493 -0.6290  0.2961
 1338SOL    HW111254   8.248   3.791   0.701  0.0220  1.7486  2.4989
 1338SOL    HW211255   8.258   3.642   0.721 -0.6392  0.8750 -2.5411
 1339SOL     OW11256   1.484   7.596   4.156  0.0850 -0.4175  0.3189
 1339SOL    HW111257   1.556   7.543   4.191 -0.2413 -0.9728  0.1598
 1339SOL    HW211258   1.421   7.602   4.228  0.2878  0.0758  0.4609
 1340SOL     OW11259  11.778  11.643   0.676 -0.0860  0.2388  0.3039
 1340SOL    HW111260  11.688  11.610   0.676 -1.0315  2.6041 -1.0847
 1340SOL    HW211261  11.813  11.615   0.760 -2.6283  0.4685  1.5424
 1341SOL     OW11262   3.844   8.773   4.585 -0.2090 -0.3052 -0.0952
 1341SOL    HW111263   3.804   8.860   4.586 -0.2070 -0.2492  2.9534
 1341SOL    HW211264   3.770   8.712   4.583 -0.3505 -0.1965  1.1137
 1342SOL     OW11265   3.258   7.713   2.265  0.0064 -0.2971  0.4166
 1342SOL    HW111266   3.297   7.629   2.242 -1.2951 -0.5440 -1.0684
 1342SOL    HW211267   3.315   7.778   2.224 -1.0860 -0.6613 -1.8985
 1343SOL     OW11268   1.237   2.890  11.312  0.1143 -0.2932 -0.3673
 1343SOL    HW111269   1.216   2.800  11.287 -0.5490  0.2585 -1.9149
 1343SOL    HW211270   1.244   2.888  11.407  1.3958 -2.2406 -0.4599
 1344SOL     OW11271   5.845  12.600  12.063  0.0011 -0.2626 -0.2973
 1344SOL    HW111272   5.848  12.505  12.070 -0.3358 -0.4447 -2.0069
 1344SOL    HW211273   5.922  12.631  12.110 -0.1462 -1.3410  0.6898
 1345SOL     OW11274   1.070   3.831   7.933  0.1872 -0.5348 -0.0763
 1345SOL    HW111275   1.075   3.900   7.999 -0.2335 -0.8904  0.3365
 1345SOL    HW211276   0.981   3.837   7.899 -0.0307 -1.2186  0.3481
 1346SOL     OW11277   0.588   5.241   5.354  0.0672 -0.0860  0.9541
 1346SOL    HW111278   0.496   5.235   5.326  0.2515  0.6764  0.1647
 1346SOL    HW211279   0.583   5.252   5.449 -0.6504 -0.2343  0.9435
 1347SOL     OW11280   9.845   8.749   2.422 -0.2072 -0.1348  0.8213
 1347SOL    HW111281   9.774   8.794   2.469  0.9464  0.3173  2.1737
 1347SOL    HW211282   9.924   8.773   2.469  1.3713  2.1642 -2.5589
 1348SOL     OW11283   0.019   9.065   0.492 -0.1468 -0.4604  0.3259
 1348SOL    HW111284   0.069   9.069   0.574  1.5681  0.5824 -0.7154
 1348SOL    HW211285  -0.035   9.145   0.493  0.4029 -0.0822  0.1279
 1349SOL     OW11286   0.320   3.340   9.667  0.0991 -0.2477  0.6211
 1349SOL    HW111287   0.321   3.385   9.751 -1.8401  0.0760  0.5222
 1349SOL    HW211288   0.366   3.400   9.607 -0.1526  0.3910  1.0549
 1350SOL     OW11289   1.709   1.537   9.108 -0.1690  0.0142 -0.0284
 1350SOL    HW111290   1.637   1.517   9.167 -0.4973 -2.8811 -1.2461
 1350SOL    HW211291   1.788   1.520   9.159 -0.2797  2.2462  0.9973
 1351SOL     OW11292   8.378   5.296   8.808  0.2623 -0.2471 -0.2735
 1351SOL    HW111293   8.382   5.386   8.841  0.7803 -0.8867  1.5405
 1351SOL    HW211294   8.469   5.273   8.788  0.1579 -0.4363 -0.5390
 1352SOL     OW11295   5.042  11.208   5.534 -0.1444 -0.1886  0.6867
 1352SOL    HW111296   5.017  11.124   5.575 -0.4542 -0.6112 -0.3355
 1352SOL    HW211297   5.127  11.191   5.495  0.1143  0.1895  1.0850
 1353SOL     OW11298   4.568   0.428   4.156 -0.0758 -0.6248 -0.1536
 1353SOL    HW111299   4.632   0.474   4.101 -0.4091  2.0232  1.4786
 1353SOL    HW211300   4.486   0.434   4.107 -0.0443  0.3136 -0.1196
 1354SOL     OW11301   9.475   7.454   9.332  0.0087 -0.4695  0.3059
 1354SOL    HW111302   9.545   7.431   9.393  1.2926  1.1657 -0.4588
 1354SOL    HW211303   9.395   7.448   9.384  0.9666 -0.0306  1.9080
 1355SOL     OW11304   3.571   4.499  12.131 -0.1519 -0.2831 -0.2930
 1355SOL    HW111305   3.603   4.421  12.176 -1.1130 -0.6531 -0.2380
 1355SOL    HW211306   3.519   4.466  12.058 -0.6861  0.3011 -0.1869
 1356SOL     OW11307   4.712  11.144   8.691 -0.6947 -0.2256 -0.0117
 1356SOL    HW111308   4.617  11.151   8.699 -0.6356 -0.3439  0.8452
 1356SOL    HW211309   4.746  11.209   8.753 -0.2177  0.1665 -0.6786
 1357SOL     OW11310   9.307   5.845   1.557  0.1416 -0.3977 -0.2474
 1357SOL    HW111311   9.238   5.885   1.609 -0.2823 -1.2963 -0.0999
 1357SOL    HW211312   9.386   5.855   1.610 -0.1517 -0.6534  0.2456
 1358SOL     OW11313   0.749   4.091   3.603 -0.4722  0.0781  0.0753
 1358SOL    HW111314   0.799   4.114   3.525  0.3774  0.8056  0.8071
 1358SOL    HW211315   0.688   4.023   3.574  3.3673 -3.7112 -0.1758
 1359SOL     OW11316  11.512   4.231   8.571  0.6275 -0.2313  0.2099
 1359SOL    HW111317  11.591   4.269   8.531  1.1223 -1.6014 -0.1590
 1359SOL    HW211318  11.468   4.186   8.499  0.6141 -1.2404  0.8278
 1360SOL     OW11319   4.087   9.278   8.493  0.1404 -0.2504  0.3994
 1360SOL    HW111320   4.151   9.207   8.505  0.8859 -0.0420 -1.9742
 1360SOL    HW211321   4.097   9.304   8.402 -1.9545  1.1730  0.5241
 1361SOL     OW11322  12.065  10.535   1.006  0.6321  0.4030 -0.2052
 1361SOL    HW111323  11.982  10.581   0.997 -0.7290 -1.0660  3.3918
 1361SOL    HW211324  12.131  10.601   0.982 -1.4234  2.2505 -1.0923
 1362SOL     OW11325   6.804   5.358   7.234  0.1867  0.6617 -0.0329
 1362SOL    HW111326   6.717   5.319   7.233  0.1066  0.8433 -0.1748
 1362SOL    HW211327   6.837   5.348   7.145  1.3812 -1.7693  0.5988
 1363SOL     OW11328   3.940  11.767  11.484 -0.4650  0.6820 -0.0195
 1363SOL    HW111329   3.955  11.810  11.400  0.6251 -0.3820 -0.3990
 1363SOL    HW211330   3.879  11.825  11.530 -0.1738  1.8732 -1.0697
 1364SOL     OW11331   7.532   0.951   6.409  0.1377 -0.1472 -0.0922
 1364SOL    HW111332   7.512   0.857   6.411  2.9598 -0.9237 -2.0233
 1364SOL    HW211333   7.454   0.993   6.446 -1.1400 -3.2330  1.0689
 1365SOL     OW11334   2.242   5.727   0.149  0.5715  0.2385 -0.7829
 1365SOL    HW111335   2.202   5.640   0.152  0.1389  0.4595  0.5738
 1365SOL    HW211336   2.249   5.746   0.055 -0.3421 -0.7995 -1.0964
 1366SOL     OW11337   9.344   8.058   4.001  0.4947 -0.2112 -0.3195
 1366SOL    HW111338   9.394   8.070   3.920  2.0061  0.9669  0.7465
 1366SOL    HW211339   9.389   7.987   4.047 -0.7704 -1.3567 -0.7648
 1367SOL     OW11340  12.343   9.860   0.210 -0.1368  0.1667 -0.2427
 1367SOL    HW111341  12.381   9.908   0.283 -2.2614 -1.2360  1.9365
 1367SOL    HW211342  12.256   9.835   0.240 -0.9914 -0.7913 -3.1623
 1368SOL     OW11343   8.718   4.799   1.108  0.2434  0.1190  0.4397
 1368SOL    HW111344   8.675   4.831   1.029  0.1214  2.8351  1.5135
 1368SOL    HW211345   8.799   4.849   1.113 -0.3741  1.0360  2.6714
 1369SOL     OW11346  11.258   9.860   9.828 -0.4378 -0.0897  0.0269
 1369SOL    HW111347  11.167   9.885   9.837 -1.2221 -3.1746  2.8116
 1369SOL    HW211348  11.299   9.884   9.911  0.5394 -1.2053 -0.0940
 1370SOL     OW11349   9.111   4.373  10.851 -0.0339 -0.1039  0.3284
 1370SOL    HW111350   9.182   4.358  10.788  0.5022  1.2802  0.5655
 1370SOL    HW211351   9.102   4.290  10.898  0.6891 -0.6291 -0.4384
 1371SOL     OW11352  11.758  12.275   4.764 -0.1085  0.0824 -0.1191
 1371SOL    HW111353  11.761  12.285   4.669  2.1734  0.8136 -0.0258
 1371SOL    HW211354  11.665  12.270   4.785 -0.7154  1.4768 -2.2301
 1372SOL     OW11355  11.128   0.031   9.421 -0.3506 -0.3707  0.1886
 1372SOL    HW111356  11.164  -0.058   9.426  0.7578  0.1071  0.9111
 1372SOL    HW211357  11.194   0.087   9.461 -1.2547  0.7313  0.2064
 1373SOL     OW11358   0.891   0.489   5.925 -0.2775  0.3089  0.8677
 1373SOL    HW111359   0.951   0.544   5.875 -0.6011  1.9063  2.1356
 1373SOL    HW211360   0.901   0.402   5.888 -1.7206  1.6205 -3.1394
 1374SOL     OW11361   2.146   4.742   2.548  0.0226  0.2070 -0.4855
 1374SOL    HW111362   2.238   4.756   2.528  0.0340 -0.8037 -1.1922
 1374SOL    HW211363   2.099   4.795   2.483  0.0970 -0.6188 -1.2272
 1375SOL     OW11364   8.563   8.238   9.106 -0.2200  0.3635 -0.1832
 1375SOL    HW111365   8.554   8.322   9.152  1.2665  0.5317 -0.1567
 1375SOL    HW211366   8.643   8.247   9.055 -1.8633  0.2323 -2.9960
 1376SOL     OW11367   0.542  11.320   7.808 -0.2800 -0.1066  0.5125
 1376SOL    HW111368   0.580  11.273   7.882 -0.7990 -0.9502  0.2563
 1376SOL    HW211369   0.585  11.405   7.809  0.2107 -0.3542  1.3742
 1377SOL     OW11370   9.106   5.105   3.530  0.4249 -0.0009  0.5136
 1377SOL    HW111371   9.125   5.198   3.515  0.3834 -0.2457 -1.2394
 1377SOL    HW211372   9.126   5.092   3.623 -2.0375  2.3424  1.5197
 1378SOL     OW11373   6.636  10.325   5.967  0.2340 -0.6363  0.5835
 1378SOL    HW111374   6.552  10.347   5.926  1.0469 -1.0488 -1.4135
 1378SOL    HW211375   6.648  10.232   5.948  1.9972 -0.1775 -0.8993
 1379SOL     OW11376   0.268  11.730   1.514  0.4147  0.1664  0.0758
 1379SOL    HW111377   0.231  11.659   1.462  1.1159 -1.6379  1.9473
 1379SOL    HW211378   0.312  11.786   1.450  0.2354 -1.3029 -1.3880
 1380SOL     OW11379   0.539   6.029   2.859  0.4349 -0.4764 -0.6633
 1380SOL    HW111380   0.517   5.982   2.939 -1.6929 -1.8876 -1.9482
 1380SOL    HW211381   0.471   6.096   2.852 -0.1041 -1.1064 -1.8021
 1381SOL     OW11382   9.805   7.912   9.062 -0.3622 -0.0820  0.0919
 1381SOL    HW111383   9.724   7.887   9.108  1.4409 -1.9101  2.5417
 1381SOL    HW211384   9.841   7.829   9.031  1.4387  0.4957  0.5642
 1382SOL     OW11385  10.931   1.437  12.021 -0.1518 -0.4844  0.0518
 1382SOL    HW111386  10.941   1.361  12.078  0.7045 -0.3756  0.0563
 1382SOL    HW211387  10.838   1.459  12.027 -0.0517 -0.3539  1.5579
 1383SOL     OW11388   8.059   1.566   5.611 -0.6677 -0.5652  0.1078
 1383SOL    HW111389   7.980   1.520   5.639 -1.1577 -0.4912 -1.0993
 1383SOL    HW211390   8.088   1.520   5.533  0.0375 -0.1059  0.0854
 1384SOL     OW11391   9.025   1.922   5.092 -0.3014 -0.0038  0.2132
 1384SOL    HW111392   9.080   1.924   5.014  0.0854 -1.2379  0.4446
 1384SOL    HW211393   9.051   1.842   5.138 -1.7739 -0.2208  0.7010
 1385SOL     OW11394   6.713  10.014   8.917 -0.1250  0.0546  0.1282
 1385SOL    HW111395   6.725  10.107   8.937 -1.3656  0.0069  1.1751
 1385SOL    HW211396   6.742  10.006   8.826  1.7117  1.0965  0.5677
 1386SOL     OW11397  11.586  10.752  10.117 -0.1618 -0.5272  0.5043
 1386SOL    HW111398  11.617  10.745  10.208 -0.7598 -0.3353  0.7280
 1386SOL    HW211399  11.490  10.751  10.124 -0.3218  2.6197  0.1761
 1387SOL     OW11400   5.510   7.733  10.150 -0.0864 -0.4975 -0.3612
 1387SOL    HW111401   5.556   7.808  10.188 -1.2811 -0.2075  0.5382
 1387SOL    HW211402   5.522   7.663  10.215  0.4668 -0.9146 -0.8979
 1388SOL     OW11403   6.643   8.561   4.618  0.4191 -0.5973 -0.2447
 1388SOL    HW111404   6.582   8.491   4.642 -1.1354  0.7433 -0.0853
 1388SOL    HW211405   6.652   8.613   4.698  0.0498  0.4344 -0.8502
 1389SOL     OW11406   2.409   0.742   9.487  0.1554 -0.3316 -0.1102
 1389SOL    HW111407   2.415   0.757   9.393  0.5577 -1.0029 -0.2012
 1389SOL    HW211408   2.413   0.829   9.526 -1.0417  0.0445 -0.7575
 1390SOL     OW11409  10.879   5.293   1.859  0.1334  0.4747 -0.6477
 1390SOL    HW111410  10.960   5.242   1.858  0.8948  1.6890 -1.4297
 1390SOL    HW211411  10.876   5.330   1.948  1.9859  2.8036 -1.4577
 1391SOL     OW11412   9.997   2.486   9.387 -0.9691  0.4354 -0.2021
 1391SOL    HW111413  10.080   2.450   9.356 -0.7363 -0.2469  1.1447
 1391SOL    HW211414   9.941   2.409   9.400 -0.4036  0.4258  2.9351
 1392SOL     OW11415   4.037  10.775   1.645 -0.6467 -0.2870  0.2094
 1392SOL    HW111416   4.122  10.819   1.652  0.5620 -2.5596  0.8622
 1392SOL    HW211417   4.032  10.720   1.723 -2.6063 -0.4294  0.0200
 1393SOL     OW11418   3.326  11.261   6.418 -0.1914  0.0885 -0.4185
 1393SOL    HW111419   3.302  11.176   6.380  0.0814 -0.2707  0.1866
 1393SOL    HW211420   3.384  11.300   6.354 -1.4417  0.4537 -1.3629
 1394SOL     OW11421   5.995   7.317   0.455 -0.0646  0.3617  0.0128
 1394SOL    HW111422   6.013   7.332   0.362  0.5961  1.6619  0.3123
 1394SOL    HW211423   6.053   7.245   0.479 -1.1225 -0.8180 -0.8310
 1395SOL     OW11424  11.921   9.387   4.141 -0.1588  0.2573 -0.3480
 1395SOL    HW111425  11.872   9.422   4.215  2.2026  0.3559  1.2918
 1395SOL    HW211426  11.921   9.293   4.154  0.1896  0.2682 -0.2651
 1396SOL     OW11427  12.346  10.347   4.276 -0.1129 -0.1578  0.3638
 1396SOL    HW111428  12.315  10.356   4.365 -0.7942 -0.9254  0.2124
 1396SOL    HW211429  12.376  10.435   4.251 -2.0641  0.5878  0.5394
 1397SOL     OW11430   6.017   5.804   8.085 -0.1321  0.8463 -0.5647
 1397SOL    HW111431   5.992   5.759   8.165  1.8199 -0.7068 -0.7483
 1397SOL    HW211432   6.013   5.897   8.107 -1.4684  0.5339  0.7080
 1398SOL     OW11433   9.262   7.882   2.720 -1.2877  0.3442  0.4945
 1398SOL    HW111434   9.183   7.830   2.734 -3.4775  2.3391 -2.7675
 1398SOL    HW211435   9.245   7.964   2.765 -0.0055 -0.0023  1.6512
 1399SOL     OW11436   5.962   5.856   7.095 -0.2428  0.3966 -0.2323
 1399SOL    HW111437   5.883   5.836   7.146 -0.4470  0.0754 -0.6685
 1399SOL    HW211438   5.935   5.845   7.004  0.6888 -1.2025 -0.3541
 1400SOL     OW11439   5.893   2.649   4.630 -0.3386  0.1007 -0.1762
 1400SOL    HW111440   5.949   2.708   4.580  0.3240 -0.9800 -0.7332
 1400SOL    HW211441   5.804   2.682   4.616  0.0246  1.0094 -0.4030
 1401SOL     OW11442   3.903   2.307  10.957  0.0492  0.3728  0.2946
 1401SOL    HW111443   3.976   2.253  10.927  0.4202  1.1146 -0.1823
 1401SOL    HW211444   3.942   2.370  11.018  0.1265  1.7596 -1.1149
 1402SOL     OW11445   8.793  10.488   3.139 -0.0067  0.5893  0.1096
 1402SOL    HW111446   8.711  10.523   3.104  0.4993  0.8682 -0.8205
 1402SOL    HW211447   8.824  10.426   3.073  1.0860  1.2941 -0.0704
 1403SOL     OW11448  11.128   7.694  12.211  0.3256 -0.1536 -0.0354
 1403SOL    HW111449  11.140   7.633  12.283  1.8435  1.0806  0.8274
 1403SOL    HW211450  11.178   7.772  12.237 -1.5686  1.4941 -1.0414
 1404SOL     OW11451  10.193   3.851   5.135 -0.6623  0.1717 -0.1665
 1404SOL    HW111452  10.162   3.772   5.091 -0.6390  0.0952 -0.0495
 1404SOL    HW211453  10.288   3.839   5.141 -0.8981 -1.2454  2.5435
 1405SOL     OW11454  10.404   1.281  11.899 -0.2439 -0.4803  0.0208
 1405SOL    HW111455  10.309   1.267  11.904 -0.0631 -2.0262 -0.3493
 1405SOL    HW211456  10.413   1.374  11.877 -1.7312 -0.6416 -1.5509
 1406SOL     OW11457   3.885  10.004   1.721  0.1793 -0.0908  0.1928
 1406SOL    HW111458   3.863   9.934   1.782 -1.8473  0.7068  0.4632
 1406SOL    HW211459   3.837  10.081   1.754  0.6932  0.8890 -1.2296
 1407SOL     OW11460   5.830   8.895   5.234  0.4360  0.3273 -0.3583
 1407SOL    HW111461   5.916   8.935   5.224  1.5193 -1.4959  0.9818
 1407SOL    HW211462   5.833   8.815   5.181  0.0787 -0.4447  0.7425
 1408SOL     OW11463   1.121   7.626   7.849 -0.1312  0.9268  0.1989
 1408SOL    HW111464   1.075   7.703   7.882 -0.7200  1.0681 -0.9146
 1408SOL    HW211465   1.158   7.586   7.927 -0.3425  1.9904  0.8727
 1409SOL     OW11466   3.575  12.034   0.626  0.2473  0.0763  0.1636
 1409SOL    HW111467   3.627  12.114   0.629 -0.2095  0.3673  0.4877
 1409SOL    HW211468   3.507  12.047   0.691 -0.6160 -0.0328 -0.6896
 1410SOL     OW11469   8.191   7.489   5.634 -0.5480 -0.1158  0.2965
 1410SOL    HW111470   8.278   7.529   5.624 -0.5018 -0.1911  0.3915
 1410SOL    HW211471   8.159   7.524   5.717 -0.1367 -0.9618  0.8312
 1411SOL     OW11472   7.025   8.483   6.347 -0.1157 -0.1294 -1.0430
 1411SOL    HW111473   7.053   8.574   6.358  2.9148 -1.0469 -0.2654
 1411SOL    HW211474   7.071   8.453   6.268  0.9262 -1.6341  0.0754
 1412SOL     OW11475  11.528   1.917   7.144  0.2963  0.3538  0.3388
 1412SOL    HW111476  11.444   1.919   7.097  0.6832 -0.1480 -0.3882
 1412SOL    HW211477  11.520   1.987   7.210 -0.0132  1.5437 -0.9113
 1413SOL     OW11478   4.440   0.105   6.404 -0.4135 -0.1851  0.1105
 1413SOL    HW111479   4.515   0.047   6.393 -0.4087 -0.6317  2.0250
 1413SOL    HW211480   4.471   0.172   6.466 -1.5084 -0.2751  0.7793
 1414SOL     OW11481  10.168   0.517   5.566  0.6649  0.2012 -0.2906
 1414SOL    HW111482  10.090   0.468   5.590  0.4000  0.4119 -0.7115
 1414SOL    HW211483  10.160   0.601   5.611 -0.1135  0.8213 -1.5202
 1415SOL     OW11484   9.886   0.727   0.797 -0.5248  0.7006 -0.1722
 1415SOL    HW111485   9.892   0.632   0.807  0.8992  0.7874  0.0509
 1415SOL    HW211486   9.882   0.760   0.887 -1.2147  0.8442 -0.2545
 1416SOL     OW11487   5.407  11.741   4.358 -0.1027  0.1751 -0.0790
 1416SOL    HW111488   5.466  11.666   4.350  1.3715  1.3384 -0.4153
 1416SOL    HW211489   5.319  11.702   4.360  0.6241 -1.5473 -0.2367
 1417SOL     OW11490   1.124   8.942   4.021 -0.1852 -0.2841 -0.0169
 1417SOL    HW111491   1.217   8.931   4.004 -0.2366 -0.3453 -0.2613
 1417SOL    HW211492   1.080   8.899   3.947 -0.3995  0.1007 -0.1181
 1418SOL     OW11493   6.863  10.568   9.158 -0.2459  0.1758  0.2264
 1418SOL    HW111494   6.900  10.618   9.232  0.6426  2.0436 -1.3785
 1418SOL    HW211495   6.769  10.565   9.177  0.1038 -0.6635  2.1220
 1419SOL     OW11496   8.664   6.079   3.745 -0.0463  0.1352 -0.5358
 1419SOL    HW111497   8.734   6.020   3.770 -0.7631 -0.4094  0.2127
 1419SOL    HW211498   8.624   6.038   3.668 -0.8272 -0.5950  0.2480
 1420SOL     OW11499   7.580   3.462  11.945  0.2180 -0.0293 -0.3474
 1420SOL    HW111500   7.652   3.505  11.992  1.0639 -1.8433  0.1348
 1420SOL    HW211501   7.617   3.377  11.918 -1.4822 -0.6472 -0.8607
 1421SOL     OW11502   8.816   0.776  11.381 -0.1593  0.0408  0.3151
 1421SOL    HW111503   8.728   0.811  11.365 -1.1868 -2.4634 -0.0549
 1421SOL    HW211504   8.846   0.819  11.461 -0.6780  2.7117 -0.8288
 1422SOL     OW11505   3.349   0.308   3.486  0.1316 -0.1499  0.1237
 1422SOL    HW111506   3.391   0.314   3.400 -1.0507  1.6610 -0.3906
 1422SOL    HW211507   3.403   0.364   3.543  0.0655 -0.1594  0.1963
 1423SOL     OW11508   7.908   8.059  12.656 -0.2415 -0.7801  0.3155
 1423SOL    HW111509   7.854   8.132  12.624  0.1924 -0.0612  1.1521
 1423SOL    HW211510   7.974   8.102  12.711 -0.1371 -1.8360  1.0342
 1424SOL     OW11511   1.401   0.550   5.540  0.2080 -0.1606  0.4842
 1424SOL    HW111512   1.430   0.500   5.463  1.6470  1.0255  0.2281
 1424SOL    HW211513   1.364   0.631   5.503  0.8691  0.3960  1.0350
 1425SOL     OW11514   7.859   0.183   0.433  0.0025  0.4557 -0.6384
 1425SOL    HW111515   7.930   0.148   0.488 -0.4616 -0.5036 -0.6357
 1425SOL    HW211516   7.825   0.258   0.482 -2.6880 -2.3292  2.1903
 1426SOL     OW11517   3.824   2.742   0.419 -0.1307 -0.0229 -0.5418
 1426SOL    HW111518   3.871   2.661   0.437  0.7284 -0.2795 -3.3946
 1426SOL    HW211519   3.752   2.715   0.362  0.2708  1.2106 -1.6665
 1427SOL     OW11520   0.208  10.794  12.072 -0.3084 -1.0912  0.2233
 1427SOL    HW111521   0.245  10.861  12.130  1.1478 -0.6322 -1.1966
 1427SOL    HW211522   0.121  10.829  12.050 -0.0915 -0.3065  0.5449
 1428SOL     OW11523   4.197   5.890   9.134  0.3490 -0.0637  0.0783
 1428SOL    HW111524   4.172   5.853   9.219  0.3947 -0.9213 -0.2750
 1428SOL    HW211525   4.280   5.935   9.151 -0.0542  0.4857  0.6614
 1429SOL     OW11526   0.489   2.566   2.724  0.0825 -0.0400  0.1938
 1429SOL    HW111527   0.563   2.521   2.684  1.6908  3.4796 -1.2356
 1429SOL    HW211528   0.463   2.631   2.659 -0.0183  3.1302  3.1071
 1430SOL     OW11529   9.853  11.345  11.888 -0.3123  0.2513 -0.0839
 1430SOL    HW111530   9.765  11.371  11.915 -0.2623 -0.1818  0.5037
 1430SOL    HW211531   9.889  11.299  11.964  1.3582  2.5771  0.6624
 1431SOL     OW11532   4.636   4.564   4.370 -0.7024 -0.0381 -0.1840
 1431SOL    HW111533   4.716   4.608   4.398 -0.0519 -0.2087 -1.6390
 1431SOL    HW211534   4.588   4.545   4.451 -0.1111  1.6353  0.5923
 1432SOL     OW11535   0.261   0.523   2.225 -0.0728 -0.0180  0.2571
 1432SOL    HW111536   0.239   0.527   2.132 -1.3379 -0.8126  0.5033
 1432SOL    HW211537   0.356   0.536   2.228 -0.1002  0.6176 -1.0861
 1433SOL     OW11538   8.974   5.067   2.073  0.4631 -0.0933  0.1266
 1433SOL    HW111539   8.911   5.138   2.058 -0.4934 -0.5124  1.8537
 1433SOL    HW211540   8.930   4.989   2.041 -0.0880 -0.4416  1.6619
 1434SOL     OW11541   3.740   6.234   6.436  0.4106 -0.3371 -0.5781
 1434SOL    HW111542   3.762   6.163   6.496 -1.2849  0.7678  1.5030
 1434SOL    HW211543   3.808   6.299   6.451  0.8131 -0.6652 -0.9597
 1435SOL     OW11544   9.629   7.621   3.885 -0.1094 -1.2141  0.1490
 1435SOL    HW111545   9.671   7.704   3.862 -2.4380  0.4015  1.2931
 1435SOL    HW211546   9.691   7.554   3.857  1.5458  0.8673 -1.5215
 1436SOL     OW11547   9.047   1.041   8.045 -0.0862 -0.6984  0.2840
 1436SOL    HW111548   9.124   1.097   8.048 -0.0235 -0.5772 -2.0929
 1436SOL    HW211549   9.081   0.953   8.061  0.2027 -0.4096  1.3569
 1437SOL     OW11550   9.332   4.369   7.980  0.6377 -0.0991  0.4689
 1437SOL    HW111551   9.243   4.363   8.016  0.5227 -0.9110  0.0654
 1437SOL    HW211552   9.319   4.368   7.885  0.9497  1.8411  0.3555
 1438SOL     OW11553   2.275   7.148   1.566 -0.0291 -0.3743  0.4587
 1438SOL    HW111554   2.276   7.053   1.575 -1.1076 -0.3216  1.3390
 1438SOL    HW211555   2.305   7.164   1.477  0.0262 -1.5458  0.2528
 1439SOL     OW11556   5.721   5.613   8.096 -0.2067 -0.5066 -0.0231
 1439SOL    HW111557   5.709   5.536   8.152  0.7783 -1.6093 -1.2833
 1439SOL    HW211558   5.814   5.614   8.075 -0.4800  0.0851 -1.3354
 1440SOL     OW11559   0.161   9.985   3.719 -0.3461 -0.4564  0.3563
 1440SOL    HW111560   0.239   9.944   3.682 -0.5162 -2.3814  1.9347
 1440SOL    HW211561   0.107  10.007   3.643 -0.0506 -2.8547 -0.6279
 1441SOL     OW11562   3.630   7.631   8.969  0.4600 -0.2466 -0.4540
 1441SOL    HW111563   3.630   7.677   9.052  0.7892 -0.1180 -0.5244
 1441SOL    HW211564   3.649   7.540   8.991  2.0764  0.0505 -0.5266
 1442SOL     OW11565   4.517   7.684   9.282  0.0128 -0.4853 -0.4971
 1442SOL    HW111566   4.426   7.708   9.298  0.4488  2.1611 -1.4316
 1442SOL    HW211567   4.513   7.592   9.255 -2.1327 -0.9809  1.2200
 1443SOL     OW11568  10.845   7.867   5.591  0.8212  0.4401  0.0391
 1443SOL    HW111569  10.835   7.920   5.512  0.4967 -0.3460 -0.4497
 1443SOL    HW211570  10.822   7.927   5.663 -2.9569  0.0840 -0.6806
 1444SOL     OW11571  10.112   9.916  12.152 -0.4026 -0.0793 -0.2196
 1444SOL    HW111572  10.166   9.994  12.147 -0.7466  0.1536 -0.2947
 1444SOL    HW211573  10.025   9.948  12.174 -0.1929 -0.5765  1.4941
 1445SOL     OW11574   7.031  10.615   2.507  0.1749 -0.8355  0.0241
 1445SOL    HW111575   6.983  10.685   2.463 -1.0686 -1.0250  1.0064
 1445SOL    HW211576   6.995  10.614   2.596  1.2240 -1.7449  0.4631
 1446SOL     OW11577   1.312   1.353   3.370  0.0397  0.8640 -0.3001
 1446SOL    HW111578   1.220   1.372   3.388  0.3633  1.2332  1.0860
 1446SOL    HW211579   1.360   1.399   3.439  1.2611  0.6208 -0.9599
 1447SOL     OW11580   2.744   0.841   8.831 -0.0111  0.4816  0.3927
 1447SOL    HW111581   2.662   0.826   8.879 -1.2191 -1.4638 -2.0294
 1447SOL    HW211582   2.718   0.839   8.739  2.7232  0.2533 -0.4511
 1448SOL     OW11583  11.578   8.140   9.739  0.3286  0.1095  0.0658
 1448SOL    HW111584  11.640   8.200   9.697 -0.9857  1.2223 -0.3620
 1448SOL    HW211585  11.621   8.055   9.736  0.8757  0.4004 -2.3337
 1449SOL     OW11586   4.117   5.339   7.225 -0.1375 -0.2839  0.3503
 1449SOL    HW111587   4.167   5.319   7.305  1.4319  0.2868 -0.4423
 1449SOL    HW211588   4.077   5.423   7.243  2.6106  1.3268 -0.4488
 1450SOL     OW11589   1.182   1.630   7.703 -0.2779  0.1725 -0.7320
 1450SOL    HW111590   1.129   1.552   7.689 -1.5822  1.0010 -0.5647
 1450SOL    HW211591   1.162   1.658   7.792  2.1937 -0.7486  0.1981
 1451SOL     OW11592  12.606   2.510  11.368 -0.0256 -0.6193 -0.0142
 1451SOL    HW111593  12.651   2.577  11.420  1.0616 -2.4268  1.5205
 1451SOL    HW211594  12.643   2.427  11.399 -0.5945 -1.9087 -2.5328
 1452SOL     OW11595   6.587   1.678  10.552  0.4965  0.4630  0.0129
 1452SOL    HW111596   6.576   1.584  10.566 -1.0208  0.4840 -0.7621
 1452SOL    HW211597   6.522   1.719  10.609  0.5787  0.9959 -0.2608
 1453SOL     OW11598   9.047   3.756   6.426  0.1742 -0.3971  0.1027
 1453SOL    HW111599   9.138   3.757   6.455  0.4651 -0.0996 -0.7967
 1453SOL    HW211600   9.049   3.715   6.339 -0.7110 -1.5018  0.5785
 1454SOL     OW11601   1.991   9.844   1.882 -0.1902  0.1558 -0.3382
 1454SOL    HW111602   1.941   9.925   1.892  1.1210  0.7719  1.8516
 1454SOL    HW211603   1.927   9.774   1.892 -1.0947  0.9111 -0.6882
 1455SOL     OW11604   8.178   5.421   3.275  0.1787 -0.3881 -0.6999
 1455SOL    HW111605   8.239   5.467   3.332  0.0624 -0.5111 -0.4742
 1455SOL    HW211606   8.230   5.396   3.199  0.7685 -1.7280  0.1073
 1456SOL     OW11607   7.997  10.880   6.317  0.3493  0.5066  0.4546
 1456SOL    HW111608   7.998  10.823   6.394  0.2047  0.3379  0.3328
 1456SOL    HW211609   8.083  10.867   6.277 -0.0154 -0.3424 -0.0899
 1457SOL     OW11610   7.351   3.501   1.852 -0.3497  0.8165  0.4583
 1457SOL    HW111611   7.310   3.581   1.820  0.0986  0.5945 -0.7131
 1457SOL    HW211612   7.278   3.446   1.879 -0.7532  0.9723 -0.3010
 1458SOL     OW11613   9.964   6.685   7.127  0.2600  0.0989  0.1279
 1458SOL    HW111614   9.899   6.651   7.189 -0.7775 -0.0562 -0.9984
 1458SOL    HW211615  10.043   6.636   7.146 -0.9479 -2.4113 -0.8382
 1459SOL     OW11616   2.067   8.690  10.622  0.2117  0.4743 -0.1133
 1459SOL    HW111617   2.148   8.739  10.636 -0.6931  2.6483 -1.8504
 1459SOL    HW211618   2.047   8.703  10.529 -1.6828 -0.7152  0.0804
 1460SOL     OW11619   6.328   1.804  12.405  0.5053  0.4268  0.5219
 1460SOL    HW111620   6.314   1.869  12.336  2.0290  0.0830 -0.1377
 1460SOL    HW211621   6.356   1.854  12.481 -1.0125  0.7896  0.8815
 1461SOL     OW11622   4.344   6.602   2.358  0.1441 -0.3545 -0.1796
 1461SOL    HW111623   4.276   6.537   2.340 -0.3033 -0.1146  0.6257
 1461SOL    HW211624   4.301   6.686   2.345  0.1949 -0.1971  0.6436
 1462SOL     OW11625   1.554   0.453   6.624  0.0321 -0.2842  0.3784
 1462SOL    HW111626   1.498   0.424   6.552  1.4223  2.5879 -2.0585
 1462SOL    HW211627   1.494   0.493   6.687 -1.0509 -1.3961  0.0956
 1463SOL     OW11628   5.175   7.396  12.669  0.0024 -0.7542 -1.2407
 1463SOL    HW111629   5.258   7.440  12.685  0.2332 -1.0380 -1.6506
 1463SOL    HW211630   5.154   7.353  12.752 -0.1898  0.0621 -0.8571
 1464SOL     OW11631   4.432  10.541   1.305 -0.2152 -0.1069 -0.2358
 1464SOL    HW111632   4.470  10.494   1.230  0.4088  1.4042 -0.9202
 1464SOL    HW211633   4.349  10.497   1.321 -0.0517 -0.8949 -1.3923
 1465SOL     OW11634  10.662   2.274   6.708 -0.3571 -0.0162  0.6254
 1465SOL    HW111635  10.605   2.208   6.749 -0.6233 -1.0619 -1.3195
 1465SOL    HW211636  10.660   2.252   6.615  1.4812  1.3005  0.2378
 1466SOL     OW11637   1.371   1.473   4.207  0.5769  0.2797  0.0390
 1466SOL    HW111638   1.282   1.441   4.187  0.9299 -1.1992  0.7237
 1466SOL    HW211639   1.400   1.512   4.125 -0.6380  0.6322 -0.2565
 1467SOL     OW11640   5.209   0.035  11.452 -0.1141 -0.3303  0.2869
 1467SOL    HW111641   5.214   0.113  11.507  0.6062 -0.5422  0.5398
 1467SOL    HW211642   5.291   0.034  11.403 -0.5331 -0.4138 -0.4344
 1468SOL     OW11643   2.254  12.411   5.866 -0.0342  0.1903  0.3373
 1468SOL    HW111644   2.284  12.499   5.890  1.8140 -0.2136 -0.3179
 1468SOL    HW211645   2.334  12.365   5.841 -1.1592 -1.1938 -0.8762
 1469SOL     OW11646   7.746   7.421  11.435  0.0559 -0.2074 -0.0061
 1469SOL    HW111647   7.755   7.514  11.413 -1.2421  0.0054  0.2409
 1469SOL    HW211648   7.687   7.421  11.511  0.5589 -1.1988  0.3884
 1470SOL     OW11649   7.032  11.378  11.206  0.5505  0.1142  0.0740
 1470SOL    HW111650   7.125  11.375  11.181  0.4932 -1.2902 -0.0570
 1470SOL    HW211651   7.028  11.329  11.288  0.3351  2.5627  1.6357
 1471SOL     OW11652   4.840   6.350  12.704 -0.2608  0.3050  0.0689
 1471SOL    HW111653   4.842   6.257  12.728  0.3422  0.5261  0.9369
 1471SOL    HW211654   4.781   6.389  12.769  0.2940  0.6908  0.3433
 1472SOL     OW11655   0.179  12.036   8.400  0.0194 -0.0583 -0.2977
 1472SOL    HW111656   0.185  11.982   8.322  0.4918  0.0592 -0.3449
 1472SOL    HW211657   0.134  11.981   8.464  0.3738 -0.4613 -0.3864
 1473SOL     OW11658   4.956  12.186  10.054  0.1861 -0.5442 -0.2964
 1473SOL    HW111659   4.919  12.217  10.136 -2.0374 -0.0876 -1.3752
 1473SOL    HW211660   5.023  12.250  10.032  2.1615 -1.6764  1.9912
 1474SOL     OW11661   3.689   0.324   0.320  0.5863  0.6104  0.2602
 1474SOL    HW111662   3.637   0.276   0.384  1.4220  1.1476  1.3764
 1474SOL    HW211663   3.656   0.414   0.325  1.3860  0.8888  0.7590
 1475SOL     OW11664   4.418   1.644   0.829  0.1352 -0.4862 -0.0119
 1475SOL    HW111665   4.490   1.585   0.804 -0.1996 -0.7044 -0.4797
 1475SOL    HW211666   4.378   1.602   0.904  2.3912  1.1567  2.2749
 1476SOL     OW11667   3.855  11.376   3.903 -1.3952 -0.1914  0.0761
 1476SOL    HW111668   3.791  11.368   3.832 -0.7719 -0.0287 -0.5186
 1476SOL    HW211669   3.828  11.454   3.951 -0.6605  0.9095 -1.2233
 1477SOL     OW11670   1.006   4.851   0.272  0.5669 -0.5886 -0.3353
 1477SOL    HW111671   1.015   4.936   0.230  0.7680 -0.9646 -1.0666
 1477SOL    HW211672   0.916   4.823   0.252  0.4762 -0.5171 -0.0336
 1478SOL     OW11673  12.234   9.056   9.401  0.5289 -0.8259 -0.2671
 1478SOL    HW111674  12.214   9.089   9.489 -1.5116 -1.0158 -0.6206
 1478SOL    HW211675  12.267   9.133   9.354 -1.6676  0.1680 -0.2991
 1479SOL     OW11676   5.388   0.076   4.362 -0.0922 -0.1165  0.3608
 1479SOL    HW111677   5.450   0.005   4.345 -0.4911 -0.2073 -0.8356
 1479SOL    HW211678   5.302   0.035   4.352 -0.3439  0.2308  1.0508
 1480SOL     OW11679   1.500  11.777   7.059  0.0720 -0.4174 -0.6829
 1480SOL    HW111680   1.589  11.811   7.057 -0.7149  1.7462 -2.5250
 1480SOL    HW211681   1.458  11.821   7.133  0.6311 -1.9045  0.5780
 1481SOL     OW11682   9.759   2.503   1.483 -0.3322  0.3929 -0.0909
 1481SOL    HW111683   9.668   2.475   1.491 -0.2137 -0.2601 -0.9037
 1481SOL    HW211684   9.755   2.598   1.486 -1.1274  0.3932 -0.9170
 1482SOL     OW11685   9.258   2.496  11.326  0.0539 -1.0209  0.1984
 1482SOL    HW111686   9.184   2.529  11.376  0.1301 -2.2754  1.2010
 1482SOL    HW211687   9.220   2.429  11.268 -0.2011  1.0784 -2.2501
 1483SOL     OW11688   4.335   3.174  12.577  0.4786  0.2223 -0.2610
 1483SOL    HW111689   4.314   3.216  12.493 -0.6950 -0.1205 -0.1506
 1483SOL    HW211690   4.346   3.248  12.637 -1.8957  0.4282  0.0040
 1484SOL     OW11691   1.863   3.604  12.617  0.2123  0.4783  0.5372
 1484SOL    HW111692   1.871   3.614  12.712 -0.7205 -1.2923  0.8545
 1484SOL    HW211693   1.877   3.510  12.602 -1.2147  0.4409 -0.8579
 1485SOL     OW11694   6.259   1.267   3.816  0.3052  0.5843  0.5401
 1485SOL    HW111695   6.198   1.311   3.757  0.1586 -0.6499 -0.2676
 1485SOL    HW211696   6.329   1.331   3.830 -0.1344  1.2501 -0.2058
 1486SOL     OW11697   8.828   9.854  12.393  0.1204 -0.7176 -0.0120
 1486SOL    HW111698   8.858   9.788  12.455 -0.6061  1.1784  2.5397
 1486SOL    HW211699   8.893   9.924  12.399 -0.8248  0.1944 -0.1085
 1487SOL     OW11700   0.337  12.201   1.911  0.3471  0.3481 -0.1247
 1487SOL    HW111701   0.332  12.152   1.994 -0.3395 -0.7658 -0.7924
 1487SOL    HW211702   0.343  12.133   1.844 -0.5239  1.1921 -1.0872
 1488SOL     OW11703   1.607   4.650   9.451 -0.1818 -0.2761  0.7159
 1488SOL    HW111704   1.561   4.568   9.433  1.0236 -0.6857 -0.5785
 1488SOL    HW211705   1.537   4.715   9.458 -0.9819 -0.7813 -1.7686
 1489SOL     OW11706   1.963   3.532   0.515 -0.0422  0.4045  0.0864
 1489SOL    HW111707   2.017   3.550   0.593  0.6613  0.5024 -0.4094
 1489SOL    HW211708   1.955   3.616   0.471 -0.9259  0.4612  0.3487
 1490SOL     OW11709   5.823   3.537   3.784 -0.3246  0.0757  0.5465
 1490SOL    HW111710   5.843   3.443   3.786 -0.7009 -0.0086  0.3529
 1490SOL    HW211711   5.759   3.546   3.714 -0.1546  0.5050  0.4490
 1491SOL     OW11712   5.027   3.356   0.757  0.2524 -0.5650  0.3798
 1491SOL    HW111713   5.002   3.327   0.670 -1.1889  0.9175  0.2548
 1491SOL    HW211714   4.944   3.367   0.804  0.8811  0.6636  1.2556
 1492SOL     OW11715   2.183   6.628   2.987 -0.3518 -0.6742 -0.5369
 1492SOL    HW111716   2.211   6.568   3.056  0.5241 -0.3211 -0.5812
 1492SOL    HW211717   2.143   6.701   3.034  1.1857  0.0599 -0.3439
 1493SOL     OW11718   4.962   2.405   5.660 -0.1322 -0.3322  0.2847
 1493SOL    HW111719   5.014   2.425   5.738  0.3111 -2.0679  0.4768
 1493SOL    HW211720   5.028   2.382   5.593 -0.4216  2.2377 -1.0186
 1494SOL     OW11721   5.348   0.706   3.180  0.2680  0.3754 -0.0468
 1494SOL    HW111722   5.297   0.626   3.172 -0.1125  0.2447  2.7475
 1494SOL    HW211723   5.439   0.676   3.176  0.1303 -0.0874  0.2451
 1495SOL     OW11724   2.474   0.637   5.891 -0.4879 -0.3087 -0.5721
 1495SOL    HW111725   2.420   0.716   5.886 -0.7578  0.0440  3.7721
 1495SOL    HW211726   2.411   0.565   5.882 -2.0865  0.1012  4.1338
 1496SOL     OW11727  11.962   7.646   2.670 -0.3107  0.0850 -0.1400
 1496SOL    HW111728  11.912   7.602   2.602 -0.2202 -1.6182  0.8508
 1496SOL    HW211729  12.050   7.611   2.662 -0.2270  0.0947  0.6607
 1497SOL     OW11730   5.568   7.877   4.109 -0.3252 -0.3934  0.5206
 1497SOL    HW111731   5.625   7.907   4.038 -0.0600 -0.6181  0.6366
 1497SOL    HW211732   5.517   7.955   4.133 -0.5047 -0.3461  0.0041
 1498SOL     OW11733   1.964   3.964  10.015 -0.1337  0.5145  0.7608
 1498SOL    HW111734   2.004   4.049  10.034  2.6481 -0.3825 -0.6142
 1498SOL    HW211735   1.946   3.926  10.101  1.0743  1.3943  1.4238
 1499SOL     OW11736   1.223  10.711  10.201 -0.0776  0.4781 -0.4617
 1499SOL    HW111737   1.276  10.758  10.137 -2.0173  1.8034 -1.1930
 1499SOL    HW211738   1.137  10.752  10.196 -0.5677  0.0281  2.3764
 1500SOL     OW11739   0.696   6.724   9.113 -0.0040 -0.2036  0.4187
 1500SOL    HW111740   0.790   6.734   9.094  0.1490 -0.1168  1.1957
 1500SOL    HW211741   0.693   6.660   9.185 -0.5914 -0.8062 -0.1215
 1501SOL     OW11742   0.089  10.006   7.704 -0.4220 -0.0353  0.3753
 1501SOL    HW111743   0.063   9.941   7.769 -1.2451  0.1496  0.2495
 1501SOL    HW211744   0.007  10.050   7.681  0.0597  0.7851  0.1787
 1502SOL     OW11745   6.145   5.050   4.947  0.1343  0.4819  0.4939
 1502SOL    HW111746   6.083   4.985   4.914  0.1737  0.9522 -0.5241
 1502SOL    HW211747   6.131   5.127   4.892 -0.3192  1.5621  2.0522
 1503SOL     OW11748   7.643   4.243   1.993 -0.0147 -0.3772  0.4186
 1503SOL    HW111749   7.563   4.258   1.942  0.7209 -0.6781 -0.8681
 1503SOL    HW211750   7.714   4.264   1.933  0.8942  0.2602  1.6624
 1504SOL     OW11751   4.489   9.816   4.025 -0.2862  0.1788  0.2145
 1504SOL    HW111752   4.539   9.883   3.978  1.4048  0.1677  1.8656
 1504SOL    HW211753   4.413   9.864   4.060 -0.6532  0.5501 -1.0609
 1505SOL     OW11754   9.963  11.108   8.416 -0.4983 -0.6671 -0.1771
 1505SOL    HW111755   9.881  11.102   8.367 -0.9859  3.2055 -0.2117
 1505SOL    HW211756   9.936  11.114   8.508 -0.2175 -0.3774 -0.1085
 1506SOL     OW11757   4.226   0.530   1.734  0.5430 -0.3699 -0.7308
 1506SOL    HW111758   4.244   0.440   1.706  0.1235 -0.8616  0.5116
 1506SOL    HW211759   4.257   0.533   1.824  0.7893  0.8217 -0.8410
 1507SOL     OW11760   6.291   8.797   0.303 -0.5280 -0.7650 -0.0049
 1507SOL    HW111761   6.245   8.719   0.274  1.2065 -2.4659  1.5523
 1507SOL    HW211762   6.264   8.808   0.394  1.1371 -1.0853  0.5599
 1508SOL     OW11763   8.937   2.039   9.361 -0.2850  0.0526  0.2409
 1508SOL    HW111764   8.877   1.982   9.313  0.4012  0.8028 -1.6056
 1508SOL    HW211765   9.024   2.003   9.344 -0.0007  0.4970  0.7170
 1509SOL     OW11766   4.460   6.339   9.191  0.2612  0.4452  0.0166
 1509SOL    HW111767   4.425   6.426   9.170 -3.8276 -0.8198  0.6295
 1509SOL    HW211768   4.473   6.341   9.286  0.1957  0.4261  0.0260
 1510SOL     OW11769   9.840  11.129   2.210  0.2297 -0.4808 -0.4970
 1510SOL    HW111770   9.846  11.201   2.272  0.8762 -0.2228 -0.8408
 1510SOL    HW211771   9.869  11.167   2.127 -2.2459 -0.3397 -1.3964
 1511SOL     OW11772   2.797  11.244  11.615  0.0333 -0.0378 -0.0261
 1511SOL    HW111773   2.785  11.149  11.624 -2.1764  0.3101  1.4066
 1511SOL    HW211774   2.763  11.280  11.697  0.8560  2.0154 -0.5370
 1512SOL     OW11775   0.206  12.683   3.711  0.5128 -0.0835  0.2858
 1512SOL    HW111776   0.169  12.602   3.677 -1.0980  0.6506  0.1890
 1512SOL    HW211777   0.276  12.706   3.650  0.5265 -1.0250 -0.0624
 1513SOL     OW11778  10.268   0.018   5.787 -0.1275  0.1343 -0.0134
 1513SOL    HW111779  10.345   0.074   5.779 -0.6846  0.8198 -0.8177
 1513SOL    HW211780  10.199   0.077   5.817 -0.2590 -0.5594  1.1237
 1514SOL     OW11781   8.663   8.791  12.630  0.0232  0.6550 -0.7679
 1514SOL    HW111782   8.632   8.751  12.712 -1.3450 -1.3228 -2.1505
 1514SOL    HW211783   8.587   8.839  12.597  0.7688  1.9979 -0.5943
 1515SOL     OW11784  10.045   6.833   3.123  0.3493  0.0485  1.0570
 1515SOL    HW111785  10.107   6.895   3.161  0.7439 -1.0766  2.3182
 1515SOL    HW211786   9.962   6.854   3.165  0.2906  0.2694  0.8362
 1516SOL     OW11787  11.254   8.276   8.714 -0.6724 -0.3484  0.0010
 1516SOL    HW111788  11.296   8.263   8.629 -0.8452 -0.3404 -0.0861
 1516SOL    HW211789  11.289   8.206   8.769 -1.1888 -0.8613 -0.3110
 1517SOL     OW11790  11.394   1.931   0.909 -0.1992 -0.2081  0.2225
 1517SOL    HW111791  11.340   1.890   0.841 -0.4027  0.3627  0.0328
 1517SOL    HW211792  11.484   1.911   0.884 -0.2094  1.0245 -0.9127
 1518SOL     OW11793   0.077   4.976  12.294 -0.1841 -0.3346  0.0421
 1518SOL    HW111794  -0.003   5.012  12.334 -0.6517 -1.7932  0.4814
 1518SOL    HW211795   0.067   4.995  12.200 -1.5226 -1.2926 -0.0461
 1519SOL     OW11796   8.313  11.859  11.601 -0.2580 -0.0738  0.7863
 1519SOL    HW111797   8.322  11.953  11.588 -0.3058  0.1701  2.2927
 1519SOL    HW211798   8.393  11.833  11.646  0.2497 -0.9707 -0.5991
 1520SOL     OW11799  12.343  10.496   9.014  0.6348  0.3773  0.0891
 1520SOL    HW111800  12.275  10.556   9.045  0.7352  0.5877 -0.0924
 1520SOL    HW211801  12.351  10.430   9.083  1.3909  1.2642  0.8735
 1521SOL     OW11802   1.350   7.386   3.042 -0.0697  0.5688 -0.3378
 1521SOL    HW111803   1.398   7.317   2.996  0.5249  0.2232  0.7583
 1521SOL    HW211804   1.314   7.440   2.972  1.2043  0.3517 -1.2142
 1522SOL     OW11805   9.113   7.434   7.670  0.4729 -0.2734  0.3585
 1522SOL    HW111806   9.137   7.378   7.596  0.4033  0.2579 -0.0819
 1522SOL    HW211807   9.044   7.491   7.635  1.6304  1.1646  0.2976
 1523SOL     OW11808  12.459   5.228  10.754  0.3482  0.6916 -0.0350
 1523SOL    HW111809  12.499   5.142  10.765  0.1196  0.4218 -1.1407
 1523SOL    HW211810  12.466   5.270  10.840  2.2464  0.3366  0.0262
 1524SOL     OW11811   2.164   8.616  12.690  0.2301 -0.1350 -0.2873
 1524SOL    HW111812   2.143   8.612  12.597  1.2520 -1.5352 -0.4942
 1524SOL    HW211813   2.183   8.708  12.707 -1.3130  0.3575 -1.1348
 1525SOL     OW11814   6.149   7.973  11.433 -0.2534  0.1346  0.0324
 1525SOL    HW111815   6.160   8.030  11.509  0.3191  0.0631  0.0067
 1525SOL    HW211816   6.232   7.979  11.386  0.4135 -1.9469  0.8551
 1526SOL     OW11817   2.874   0.929   0.752 -0.5241  0.1121 -0.0229
 1526SOL    HW111818   2.811   0.890   0.813 -3.4233  2.3765 -1.3023
 1526SOL    HW211819   2.850   1.021   0.748  2.5321  0.9835 -1.1636
 1527SOL     OW11820  10.031   8.538  12.169 -0.1271 -0.8384  0.1350
 1527SOL    HW111821   9.957   8.599  12.178 -0.3434 -1.3005  1.9059
 1527SOL    HW211822  10.022   8.503  12.080 -2.4367 -1.3772  0.5057
 1528SOL     OW11823   1.845   1.009  11.807 -0.0925  0.0999 -0.8623
 1528SOL    HW111824   1.854   1.104  11.798 -2.1508  0.5424  0.9521
 1528SOL    HW211825   1.874   0.974  11.723  1.2689  2.2697 -1.3792
 1529SOL     OW11826   2.911   7.940  10.734  0.3754 -0.1247 -0.4628
 1529SOL    HW111827   2.901   7.936  10.639 -0.4754 -1.4091 -0.3479
 1529SOL    HW211828   2.829   7.979  10.765  0.1246 -0.8651 -0.1823
 1530SOL     OW11829   3.208   3.749  11.543 -0.2906  0.4147  0.2066
 1530SOL    HW111830   3.167   3.665  11.562  0.4681  0.3992  1.9291
 1530SOL    HW211831   3.181   3.806  11.615 -1.2779  1.8736 -1.2256
 1531SOL     OW11832   0.674   1.507  11.364 -0.0449  0.3149 -0.3711
 1531SOL    HW111833   0.721   1.455  11.299 -0.7332 -0.8559  0.0370
 1531SOL    HW211834   0.710   1.478  11.448  0.2059  1.1721 -0.1728
 1532SOL     OW11835   4.941   8.352   6.831 -0.8293  0.3413 -0.3323
 1532SOL    HW111836   4.921   8.367   6.739 -0.9083 -0.8563 -0.5270
 1532SOL    HW211837   5.003   8.279   6.831  0.0112  1.0257  0.5132
 1533SOL     OW11838   6.604   6.272   3.853  0.5931  0.2848 -0.4363
 1533SOL    HW111839   6.613   6.352   3.905 -1.6231 -0.8571  1.9373
 1533SOL    HW211840   6.615   6.201   3.916  1.5398 -1.3040 -2.2971
 1534SOL     OW11841   6.432   6.326   4.542  0.5007 -0.1515 -0.6685
 1534SOL    HW111842   6.455   6.392   4.477  0.2557  0.3902 -0.2036
 1534SOL    HW211843   6.470   6.245   4.507 -1.0558 -0.2261 -2.3339
 1535SOL     OW11844   3.054   7.114   9.415 -0.4058  0.0091  0.1631
 1535SOL    HW111845   3.010   7.162   9.485 -0.3459 -1.4961  1.2701
 1535SOL    HW211846   3.103   7.045   9.460 -0.6973 -1.2584 -1.3789
 1536SOL     OW11847  12.322  10.536   3.667 -0.0432 -0.0639  0.4085
 1536SOL    HW111848  12.261  10.610   3.666  0.4144  0.3315  0.6227
 1536SOL    HW211849  12.267  10.459   3.655 -0.4570  0.3577 -0.5045
 1537SOL     OW11850   2.848  11.091   2.583 -0.0022  0.5029  0.1507
 1537SOL    HW111851   2.791  11.035   2.635  0.7632  0.7000  1.2258
 1537SOL    HW211852   2.792  11.163   2.554 -0.8146 -0.4127 -0.6373
 1538SOL     OW11853   5.335   4.531   9.463 -0.1816  0.1799 -0.3087
 1538SOL    HW111854   5.400   4.500   9.400 -0.9697 -0.4332 -0.8396
 1538SOL    HW211855   5.253   4.491   9.434 -1.0727  2.0251 -0.4940
 1539SOL     OW11856  11.343  11.246   2.816  0.3195  0.0325 -0.3628
 1539SOL    HW111857  11.281  11.293   2.872  2.0744  2.2976 -0.1614
 1539SOL    HW211858  11.395  11.193   2.876  0.0170 -0.1631 -0.2716
 1540SOL     OW11859  10.989   4.521   8.416 -0.0036 -0.3287  0.5247
 1540SOL    HW111860  10.985   4.429   8.390  1.5191  0.0135 -1.1302
 1540SOL    HW211861  10.902   4.541   8.451 -0.6755 -2.1161 -0.0595
 1541SOL     OW11862   9.100  10.931   2.645  0.0429  0.5403 -0.3048
 1541SOL    HW111863   9.155  11.002   2.612 -0.9181  1.1051 -0.7244
 1541SOL    HW211864   9.018  10.973   2.669 -0.9078 -0.5452 -1.4808
 1542SOL     OW11865   0.711  12.299  12.081 -0.4891 -0.3093 -0.1057
 1542SOL    HW111866   0.616  12.294  12.091 -0.5069 -0.7775 -0.4263
 1542SOL    HW211867   0.740  12.207  12.084 -0.0657 -0.1806 -0.1536
 1543SOL     OW11868   5.057   2.179   2.327  0.1214  0.1695 -0.0471
 1543SOL    HW111869   5.098   2.239   2.264 -2.5715  3.0424  0.6836
 1543SOL    HW211870   5.128   2.120   2.353  2.0923  0.7503 -3.4507
 1544SOL     OW11871   3.663   3.752   5.712  0.0396 -0.1093  0.0264
 1544SOL    HW111872   3.740   3.798   5.746  0.2252 -0.1318 -0.3652
 1544SOL    HW211873   3.593   3.817   5.717  0.2643  0.1677 -0.3713
 1545SOL     OW11874   3.172  11.631   0.266 -0.2297  0.1334 -0.0244
 1545SOL    HW111875   3.212  11.545   0.280 -0.5382 -0.0834 -0.4401
 1545SOL    HW211876   3.240  11.693   0.291  0.0367 -0.2323  0.1702
 1546SOL     OW11877   4.476  10.191  11.710 -0.1217 -0.0107  0.6282
 1546SOL    HW111878   4.475  10.217  11.802 -3.1598  1.9734  0.1991
 1546SOL    HW211879   4.453  10.098  11.711 -0.6616  0.1104  1.8910
 1547SOL     OW11880   2.554   8.320   7.576  0.1060  0.5275  0.0962
 1547SOL    HW111881   2.543   8.249   7.640 -2.9969  1.2310  0.4879
 1547SOL    HW211882   2.617   8.380   7.617  1.1628 -0.9257  0.6862
 1548SOL     OW11883   8.081   7.193   8.739 -0.1484  0.0296 -0.1258
 1548SOL    HW111884   8.140   7.256   8.698 -0.3330 -0.2465 -0.8372
 1548SOL    HW211885   7.998   7.205   8.692 -0.3149 -0.4099  0.0569
 1549SOL     OW11886   4.918   3.429   2.959  0.2620 -0.7078  0.4373
 1549SOL    HW111887   4.863   3.502   2.983  0.9438  0.2031 -0.6520
 1549SOL    HW211888   4.910   3.367   3.032 -0.8509  0.1353  1.0588
 1550SOL     OW11889   6.914   9.462   5.561 -0.8560 -0.4230 -0.4365
 1550SOL    HW111890   6.821   9.441   5.563 -0.6534 -1.7757 -2.2404
 1550SOL    HW211891   6.925   9.517   5.484 -0.4404  1.5572  0.9684
 1551SOL     OW11892  12.704  10.809  10.285  0.0876  0.1942 -0.1744
 1551SOL    HW111893  12.705  10.902  10.307  0.1572  0.4583 -1.2543
 1551SOL    HW211894  12.679  10.806  10.193  1.6939 -0.7589 -0.6230
 1552SOL     OW11895  11.852   5.396  11.924 -0.0228 -0.9147  0.2451
 1552SOL    HW111896  11.885   5.313  11.888  2.1650  0.6410 -1.6203
 1552SOL    HW211897  11.795   5.431  11.856  0.1555 -0.2559  0.4269
 1553SOL     OW11898   0.554  11.953   1.078 -0.5789 -0.2024  0.1506
 1553SOL    HW111899   0.459  11.953   1.075 -0.5796  0.4964 -0.0421
 1553SOL    HW211900   0.581  11.886   1.016 -0.9578 -0.8958  0.7302
 1554SOL     OW11901   7.337   5.624   5.653  0.6666 -0.8017 -0.3018
 1554SOL    HW111902   7.272   5.555   5.651  0.2226 -0.3831 -2.6257
 1554SOL    HW211903   7.313   5.682   5.581  2.5577  0.3485 -0.0761
 1555SOL     OW11904   6.997   9.718   2.117 -0.4511  0.4480  0.2998
 1555SOL    HW111905   6.984   9.813   2.120  0.7999  0.6620 -0.3360
 1555SOL    HW211906   6.928   9.687   2.058 -2.0097  0.7018  1.9159
 1556SOL     OW11907   4.206  10.471   8.428 -0.0361  0.1208  0.3234
 1556SOL    HW111908   4.273  10.404   8.416  1.5047  1.5187  0.7855
 1556SOL    HW211909   4.159  10.474   8.344  1.7155  0.3984 -0.6914
 1557SOL     OW11910   2.967   7.256   1.137  0.4727 -0.5695 -0.2112
 1557SOL    HW111911   2.921   7.340   1.142  3.2281  1.0728 -0.4147
 1557SOL    HW211912   2.972   7.236   1.044 -0.4405 -1.1566 -0.1474
 1558SOL     OW11913   7.485   2.653   4.461 -0.2334 -0.3570 -0.0406
 1558SOL    HW111914   7.400   2.655   4.418  0.9780 -1.0491 -2.6880
 1558SOL    HW211915   7.548   2.642   4.389  2.1752  1.0004  1.7016
 1559SOL     OW11916   8.443   8.640   7.558 -0.0219  0.1951 -0.1758
 1559SOL    HW111917   8.449   8.580   7.633  2.1982 -0.6542 -0.9650
 1559SOL    HW211918   8.495   8.716   7.584 -1.5591  1.1733  0.1999
 1560SOL     OW11919  11.296   9.416   9.871 -0.0624 -0.4227  0.3588
 1560SOL    HW111920  11.309   9.418   9.966 -2.3189  2.1948  0.7510
 1560SOL    HW211921  11.227   9.350   9.858 -1.3410  0.7453  0.8909
 1561SOL     OW11922   3.767   9.555   8.950 -0.1487 -0.5029  0.1999
 1561SOL    HW111923   3.845   9.502   8.936 -1.4182 -1.9168 -2.3003
 1561SOL    HW211924   3.753   9.599   8.866 -1.1363  1.0272  1.1167
 1562SOL     OW11925  12.494   4.045   5.596  0.4226  0.1172  0.0203
 1562SOL    HW111926  12.517   4.126   5.550  0.0219 -0.1742 -0.7153
 1562SOL    HW211927  12.499   3.977   5.529 -0.3247 -0.2912  0.3616
 1563SOL     OW11928   7.982  12.327   0.012  0.1413 -0.1013 -0.1482
 1563SOL    HW111929   7.992  12.400   0.073  2.2963 -1.3622  1.1589
 1563SOL    HW211930   8.062  12.328  -0.040  0.2366 -1.5120 -0.0741
 1564SOL     OW11931   7.488   6.823   1.690  0.1448  0.0458  0.1102
 1564SOL    HW111932   7.403   6.800   1.727  0.5084 -1.3203  0.1526
 1564SOL    HW211933   7.508   6.908   1.729 -0.9158  0.1037  0.5838
 1565SOL     OW11934   5.760   4.765   8.028 -0.3058 -0.7411  0.0151
 1565SOL    HW111935   5.723   4.815   8.100  2.8923 -1.2452  2.2046
 1565SOL    HW211936   5.782   4.831   7.962  0.0510  0.2167  1.0719
 1566SOL     OW11937   9.424   8.361  10.699  0.3389  0.1699 -0.0965
 1566SOL    HW111938   9.457   8.273  10.684  0.3722  0.1959 -0.1754
 1566SOL    HW211939   9.355   8.350  10.765 -0.3618 -0.0509 -0.8528
 1567SOL     OW11940   1.323   1.254   9.080  0.1263 -0.2002 -0.2634
 1567SOL    HW111941   1.328   1.304   8.999 -0.1142 -2.4982 -1.7784
 1567SOL    HW211942   1.229   1.252   9.102  0.0490 -0.6270 -0.6286
 1568SOL     OW11943   4.512   3.291   8.376  0.0997 -0.4272 -0.1943
 1568SOL    HW111944   4.475   3.310   8.462  0.1403  2.9631 -0.8059
 1568SOL    HW211945   4.464   3.214   8.346 -1.5305 -0.3189  1.9060
 1569SOL     OW11946   8.451   5.270  10.461 -0.1924 -0.5065 -0.4515
 1569SOL    HW111947   8.383   5.299  10.521 -0.2323  0.3253 -0.8752
 1569SOL    HW211948   8.435   5.321  10.381  1.6191  0.5944 -0.1662
 1570SOL     OW11949  11.347   5.919   8.383 -0.3877  0.9443  0.0818
 1570SOL    HW111950  11.258   5.920   8.349  0.1717  1.3490 -1.4329
 1570SOL    HW211951  11.362   6.007   8.416 -0.6993  0.7402  0.7891
 1571SOL     OW11952   7.692   8.698  10.078  0.2531 -0.1590 -0.0495
 1571SOL    HW111953   7.641   8.665  10.004  1.1847  0.5466 -1.0401
 1571SOL    HW211954   7.704   8.791  10.059  1.9008 -0.3022  0.1507
 1572SOL     OW11955   9.451   8.090  12.103 -0.1493 -0.6542 -0.5261
 1572SOL    HW111956   9.409   8.175  12.089  0.0697 -0.5560 -0.5988
 1572SOL    HW211957   9.391   8.043  12.160 -1.4837 -1.3836 -2.4506
 1573SOL     OW11958   5.707   1.298   7.578  0.3302 -0.4025  0.1161
 1573SOL    HW111959   5.704   1.263   7.490  0.8002  2.3712 -1.1169
 1573SOL    HW211960   5.627   1.268   7.620 -0.5208 -0.7340 -1.6916
 1574SOL     OW11961  11.151   5.456  11.774 -0.2521 -0.8226  0.7890
 1574SOL    HW111962  11.233   5.465  11.823 -0.9042 -0.3782  1.8317
 1574SOL    HW211963  11.095   5.525  11.808 -0.5675 -0.1468 -0.9733
 1575SOL     OW11964   2.144   6.092   8.139  0.0227  0.0451  0.0802
 1575SOL    HW111965   2.049   6.081   8.142 -0.0180  0.5774  1.2578
 1575SOL    HW211966   2.174   6.062   8.225  0.6240  2.2943  0.7175
 1576SOL     OW11967   1.866   2.799   9.682 -0.5798 -0.6099  0.1795
 1576SOL    HW111968   1.806   2.728   9.705  0.5890 -2.3406 -1.7400
 1576SOL    HW211969   1.869   2.798   9.586 -1.7380  3.1611 -0.0628
 1577SOL     OW11970   5.235   2.198   6.169  0.2784 -0.3224  0.5698
 1577SOL    HW111971   5.306   2.216   6.108  0.0672 -0.7412  0.2001
 1577SOL    HW211972   5.279   2.176   6.251  0.5602  0.9163  0.7798
 1578SOL     OW11973  11.198  10.555   1.835  0.2874 -0.2065  0.2536
 1578SOL    HW111974  11.260  10.627   1.825 -2.6602  2.2331 -2.6604
 1578SOL    HW211975  11.158  10.569   1.921  1.6002 -0.0081  0.8485
 1579SOL     OW11976   3.668   1.679   2.989  0.0560  0.0148 -0.0881
 1579SOL    HW111977   3.597   1.692   3.052 -0.7898 -0.6189 -0.8767
 1579SOL    HW211978   3.680   1.585   2.986  0.8003  0.1067 -0.1200
 1580SOL     OW11979   3.943   2.517   1.440 -0.3317 -0.3336 -0.2403
 1580SOL    HW111980   3.934   2.424   1.464 -0.0464 -0.5050 -0.7886
 1580SOL    HW211981   3.871   2.532   1.379 -1.4745  0.2785  1.1820
 1581SOL     OW11982   6.994   2.192  10.792  0.3734  0.0364  0.0849
 1581SOL    HW111983   7.049   2.120  10.760  2.4217  2.0113 -1.1524
 1581SOL    HW211984   7.048   2.235  10.858 -1.2356 -0.1289  1.5458
 1582SOL     OW11985  11.049   3.808   5.292 -0.7004  0.4469 -0.0584
 1582SOL    HW111986  11.139   3.817   5.325 -0.6786  1.1197 -0.2914
 1582SOL    HW211987  10.994   3.844   5.361 -0.7072  1.1310 -0.4153
 1583SOL     OW11988   4.804  12.167   5.663  0.7385 -0.3140 -0.3208
 1583SOL    HW111989   4.844  12.106   5.601 -0.9955 -2.6257  0.7188
 1583SOL    HW211990   4.732  12.207   5.615  0.4622 -0.8191 -0.3329
 1584SOL     OW11991   4.440  12.285  11.002 -0.1793 -0.3331  0.2929
 1584SOL    HW111992   4.370  12.340  10.965 -1.2460 -0.7227  1.6706
 1584SOL    HW211993   4.505  12.348  11.034 -0.6694  0.0824  0.4845
 1585SOL     OW11994  10.055   5.796  10.798 -0.6767 -0.0892 -0.1309
 1585SOL    HW111995   9.986   5.734  10.821 -1.4249  1.0718  0.8345
 1585SOL    HW211996  10.008   5.872  10.762  0.2605 -0.3430 -2.0534
 1586SOL     OW11997   4.273   2.501   4.907 -0.1821 -0.0046  0.2726
 1586SOL    HW111998   4.341   2.523   4.970  0.5674  1.0471 -0.8707
 1586SOL    HW211999   4.271   2.575   4.846  0.7525 -1.9724 -2.3095
 1587SOL     OW12000   2.547   1.158   0.549  0.5990  0.0891 -0.3127
 1587SOL    HW112001   2.592   1.074   0.539 -0.2370 -0.2613 -1.3055
 1587SOL    HW212002   2.573   1.209   0.472 -1.7300 -0.6363 -1.6586
 1588SOL     OW12003   3.786   4.457   4.842 -0.1472 -0.0704  0.1173
 1588SOL    HW112004   3.748   4.400   4.910  1.3055  0.1623  1.1859
 1588SOL    HW212005   3.807   4.398   4.770  0.1796 -0.6823  0.7034
 1589SOL     OW12006   6.833  10.164  12.296 -0.1459 -0.0113 -0.0428
 1589SOL    HW112007   6.772  10.131  12.230 -0.0754  1.0070 -0.6327
 1589SOL    HW212008   6.829  10.259  12.287  2.3822  0.0731 -0.8743
 1590SOL     OW12009   1.740   1.071  10.391  0.1123  0.6725  0.6438
 1590SOL    HW112010   1.720   0.977  10.386 -1.3404  1.0075 -0.6470
 1590SOL    HW212011   1.833   1.074  10.411  0.5076 -1.0760 -0.6124
 1591SOL     OW12012   4.940   6.316  12.219  0.5452 -0.0224  0.1492
 1591SOL    HW112013   4.998   6.256  12.266 -1.2455 -2.4838 -0.5696
 1591SOL    HW212014   4.892   6.362  12.287  0.9998 -0.4111  0.7418
 1592SOL     OW12015   0.012   1.457   2.155 -0.1326  0.1255  0.1876
 1592SOL    HW112016   0.048   1.485   2.239  1.1355 -0.2647 -0.2057
 1592SOL    HW212017  -0.003   1.363   2.166  1.2442 -0.1960 -0.3986
 1593SOL     OW12018   1.402   7.173   6.242  0.3124 -0.3882 -0.5153
 1593SOL    HW112019   1.427   7.172   6.334  0.2867 -1.5023 -0.5086
 1593SOL    HW212020   1.368   7.085   6.226  0.4407 -0.2432 -1.6244
 1594SOL     OW12021   7.323   1.227   2.248 -0.5230 -0.3273  0.0114
 1594SOL    HW112022   7.315   1.207   2.341 -1.4319  0.3142  0.0786
 1594SOL    HW212023   7.280   1.311   2.237  1.0164  0.4154 -0.7136
 1595SOL     OW12024   6.000   2.965   0.924 -0.0148 -0.1661  0.9541
 1595SOL    HW112025   5.992   2.894   0.860 -0.6021  0.3524  0.4277
 1595SOL    HW212026   6.082   3.008   0.902  1.1529 -1.6386  2.2937
 1596SOL     OW12027   1.682   8.056   7.880  1.0253  0.3380 -0.3817
 1596SOL    HW112028   1.666   8.123   7.814  0.6826  0.7687  0.1363
 1596SOL    HW212029   1.649   8.093   7.962  2.8161  0.4420  0.3538
 1597SOL     OW12030   5.519   4.862   9.280  0.1367  0.2110  0.2892
 1597SOL    HW112031   5.502   4.946   9.322 -0.4212 -0.4839  1.4973
 1597SOL    HW212032   5.600   4.876   9.230 -0.0335  1.4912  0.3373
 1598SOL     OW12033  11.280   9.082   1.167 -0.3526 -0.0157  0.5163
 1598SOL    HW112034  11.234   9.009   1.208  0.8744 -0.0722  1.8907
 1598SOL    HW212035  11.297   9.053   1.078  1.3070 -2.0435  1.4126
 1599SOL     OW12036  11.080   4.925   1.481 -0.0801 -0.3486 -0.1008
 1599SOL    HW112037  11.156   4.975   1.453  0.5732  0.2594  2.4663
 1599SOL    HW212038  11.091   4.839   1.440  0.3331  0.6608 -2.2095
 1600SOL     OW12039   3.170   8.314   1.495 -0.0575 -0.0785  0.0990
 1600SOL    HW112040   3.134   8.226   1.509  0.8841 -0.6000 -0.6726
 1600SOL    HW212041   3.113   8.352   1.428 -0.0340 -0.3716 -0.0901
 1601SOL     OW12042   3.625   4.305   5.048  0.0305 -0.1979  0.6664
 1601SOL    HW112043   3.559   4.236   5.045 -0.5106  0.3667 -0.5526
 1601SOL    HW212044   3.595   4.364   5.118  0.0398 -0.7173  1.1183
 1602SOL     OW12045  11.824   6.979   5.733 -0.6896 -0.1097 -0.1997
 1602SOL    HW112046  11.888   7.025   5.787  0.0278 -1.0673 -0.2069
 1602SOL    HW212047  11.751   6.963   5.793  0.1348 -1.2437  0.5570
 1603SOL     OW12048   4.202   9.359   5.434 -0.2058 -0.2481 -0.1867
 1603SOL    HW112049   4.116   9.389   5.403 -1.1428  0.6718  2.8720
 1603SOL    HW212050   4.191   9.266   5.449 -0.4575 -0.2594 -0.4343
 1604SOL     OW12051   4.481   7.441   9.113  0.0415 -0.0813 -0.2495
 1604SOL    HW112052   4.461   7.359   9.068 -0.6072  0.0625 -0.2389
 1604SOL    HW212053   4.436   7.508   9.061 -2.0384 -0.0654  1.4160
 1605SOL     OW12054  12.024  12.332   7.134 -0.9169 -0.4739  0.5551
 1605SOL    HW112055  11.938  12.338   7.174 -0.8042  0.5653  0.6659
 1605SOL    HW212056  12.086  12.347   7.205 -0.6768 -0.0642  0.2676
 1606SOL     OW12057   6.306  10.860   9.361  0.4531  0.2231 -0.0075
 1606SOL    HW112058   6.282  10.880   9.451  1.6961  1.7397  0.0298
 1606SOL    HW212059   6.283  10.939   9.312  1.1398 -0.0227 -0.7501
 1607SOL     OW12060   8.561   0.397  12.596 -0.1640  0.4168 -0.4702
 1607SOL    HW112061   8.569   0.347  12.515  0.6334  0.6454 -0.5447
 1607SOL    HW212062   8.489   0.458  12.579  0.1125  0.5841 -1.0692
 1608SOL     OW12063   4.765   2.910   7.771  0.6054  0.5443 -0.2345
 1608SOL    HW112064   4.734   2.891   7.860  1.0572  0.8989  0.0008
 1608SOL    HW212065   4.706   2.980   7.740  1.5556  1.6953  0.4643
 1609SOL     OW12066   8.638   7.156   9.579 -0.0559  0.0798 -0.3916
 1609SOL    HW112067   8.587   7.164   9.499  1.8045  0.5226 -1.5865
 1609SOL    HW212068   8.626   7.240   9.624  0.8314  0.7978 -1.4396
 1610SOL     OW12069   3.995   6.352   8.297 -0.2634  0.0624  0.2132
 1610SOL    HW112070   3.986   6.323   8.388 -0.3951  0.8166  0.4455
 1610SOL    HW212071   4.054   6.288   8.258  0.7660  0.4056  1.1503
 1611SOL     OW12072   5.227  11.925   4.965  0.1671 -0.2379 -0.4855
 1611SOL    HW112073   5.297  11.925   5.031 -0.7193 -1.4525  0.5083
 1611SOL    HW212074   5.202  11.833   4.958  1.2075 -0.3958 -3.6393
 1612SOL     OW12075   0.465   2.188   8.178 -0.1256 -0.0199 -0.1319
 1612SOL    HW112076   0.422   2.140   8.107  0.6458 -1.0763  0.0980
 1612SOL    HW212077   0.431   2.149   8.258  1.2332 -0.8653  0.0534
 1613SOL     OW12078  12.142   8.550   3.776 -0.0794  0.1774 -0.1282
 1613SOL    HW112079  12.083   8.477   3.760  0.4905 -0.4206  0.4965
 1613SOL    HW212080  12.229   8.517   3.754  0.3623  0.2269  1.4389
 1614SOL     OW12081  11.459   1.606   6.960 -0.6524 -0.3283  0.8900
 1614SOL    HW112082  11.547   1.628   6.991 -1.2316  1.5515  1.3424
 1614SOL    HW212083  11.440   1.673   6.894 -2.4201  0.4628  2.1145
 1615SOL     OW12084  10.483   2.338   1.415  0.1776  0.1958 -0.0387
 1615SOL    HW112085  10.530   2.352   1.333  0.5079  1.6399  0.3784
 1615SOL    HW212086  10.409   2.281   1.390  1.6893 -1.5187 -0.8344
 1616SOL     OW12087   9.326   8.541   0.852  0.0228  0.5024  0.3990
 1616SOL    HW112088   9.260   8.514   0.789  0.2250 -1.0650  0.8245
 1616SOL    HW212089   9.380   8.605   0.804 -0.8053  0.5746 -0.4649
 1617SOL     OW12090   7.654   1.371   5.584  0.2026  0.3626 -0.0126
 1617SOL    HW112091   7.632   1.278   5.575 -1.6606  0.7740 -0.0999
 1617SOL    HW212092   7.582   1.416   5.540  0.6255  1.8802  0.8193
 1618SOL     OW12093   7.353   0.863  12.031  0.7466  0.0908  0.0615
 1618SOL    HW112094   7.434   0.835  11.986  1.3584  2.4296 -0.4015
 1618SOL    HW212095   7.322   0.937  11.979 -1.0000  0.0651  1.0185
 1619SOL     OW12096   6.748   5.194  10.503 -0.4706  0.3579  0.3310
 1619SOL    HW112097   6.730   5.128  10.569 -1.0590 -0.0797 -0.2560
 1619SOL    HW212098   6.670   5.249  10.502 -0.7460 -0.0287 -0.4446
 1620SOL     OW12099  10.554   5.726  12.121  0.2064  0.3798  0.4627
 1620SOL    HW112100  10.618   5.753  12.186 -0.8886  1.2625  1.2092
 1620SOL    HW212101  10.472   5.719  12.169 -0.3099 -0.5496 -0.5078
 1621SOL     OW12102   5.510  12.584   4.626 -0.4372 -0.3060  0.1788
 1621SOL    HW112103   5.518  12.511   4.689  0.5516  0.5626  1.1043
 1621SOL    HW212104   5.521  12.542   4.540  0.5296 -1.2033  0.7117
 1622SOL     OW12105   7.009   1.758   0.701 -0.5457 -0.6388 -0.2842
 1622SOL    HW112106   6.991   1.833   0.645 -1.1277 -0.7161 -0.2012
 1622SOL    HW212107   7.098   1.774   0.734 -1.5077  1.2473  1.6402
 1623SOL     OW12108   6.860   2.075   8.506 -0.1666  0.3567 -0.0095
 1623SOL    HW112109   6.924   2.006   8.519 -0.9332 -0.0928  1.5638
 1623SOL    HW212110   6.912   2.156   8.499  0.7633 -0.3578 -2.2681
 1624SOL     OW12111  10.901   8.415   4.722 -0.2284 -0.2556 -0.0397
 1624SOL    HW112112  10.808   8.393   4.727 -0.1602 -0.6446 -0.3781
 1624SOL    HW212113  10.929   8.380   4.637  0.4599 -1.0413  0.4982
 1625SOL     OW12114  10.981  10.348   8.908 -0.4196 -0.3345  0.0290
 1625SOL    HW112115  11.036  10.381   8.837  1.3438 -0.2585  1.3543
 1625SOL    HW212116  10.919  10.419   8.925  0.2278  0.3344 -0.3442
 1626SOL     OW12117   4.424  11.368  11.779 -0.2825 -0.0014  0.0596
 1626SOL    HW112118   4.338  11.331  11.796 -0.7419  0.1860 -1.6676
 1626SOL    HW212119   4.407  11.444  11.723  0.9933  0.0040 -0.3640
 1627SOL     OW12120   7.184   2.395  12.392  0.1539 -0.4535 -0.5651
 1627SOL    HW112121   7.215   2.377  12.481  0.5827  0.2939 -0.5518
 1627SOL    HW212122   7.181   2.309  12.350  0.8560 -0.7143 -0.1110
 1628SOL     OW12123   1.527  12.404   8.978  0.1429 -0.3648 -0.0763
 1628SOL    HW112124   1.571  12.436   8.900  1.1299 -0.8379  0.2734
 1628SOL    HW212125   1.557  12.314   8.988  0.8977  0.0166  1.4528
 1629SOL     OW12126   0.467  10.357   4.190 -0.4561  0.2020 -0.3202
 1629SOL    HW112127   0.456  10.350   4.095 -1.6358  0.9907 -0.2591
 1629SOL    HW212128   0.562  10.358   4.203 -0.2605  1.1587 -1.5893
 1630SOL     OW12129   3.142   5.873   9.782  0.2909 -0.2174 -0.9344
 1630SOL    HW112130   3.072   5.826   9.828 -0.1807 -1.0444 -2.4338
 1630SOL    HW212131   3.177   5.934   9.847 -1.1118 -0.5357  0.1590
 1631SOL     OW12132   9.364   0.187   2.004 -0.4242 -0.0568 -0.2364
 1631SOL    HW112133   9.403   0.132   2.072  1.1486 -0.7569 -1.6257
 1631SOL    HW212134   9.422   0.263   1.998 -2.2590  1.5580  1.2635
 1632SOL     OW12135   6.518   9.114   3.127 -0.7435 -0.1000 -0.1506
 1632SOL    HW112136   6.481   9.120   3.215 -0.5746  2.2560 -0.1688
 1632SOL    HW212137   6.609   9.087   3.140 -0.8769 -0.2981  0.3575
 1633SOL     OW12138   5.134   7.952  11.881  0.9553  0.6260 -0.1567
 1633SOL    HW112139   5.077   7.877  11.897 -0.7810  1.7808 -0.5478
 1633SOL    HW212140   5.116   7.977  11.790  0.1627  2.5047  0.4521
 1634SOL     OW12141   5.202   4.203   0.784 -0.0497 -0.3012  0.2914
 1634SOL    HW112142   5.148   4.282   0.779 -3.0855 -2.2285 -0.0065
 1634SOL    HW212143   5.290   4.235   0.805 -1.1785  3.0947  0.4133
 1635SOL     OW12144   4.122   4.068   2.218  1.0167 -0.2338 -0.0202
 1635SOL    HW112145   4.169   4.068   2.135 -1.1414  1.5519 -1.3498
 1635SOL    HW212146   4.073   3.986   2.218  1.2023 -0.3460 -0.4085
 1636SOL     OW12147   0.023   0.873   3.052  0.3123 -0.0440  0.5709
 1636SOL    HW112148   0.020   0.967   3.069 -0.3327 -0.0735  0.6472
 1636SOL    HW212149   0.023   0.833   3.139 -0.7183 -0.1447  0.5263
 1637SOL     OW12150  10.624   3.179   2.793 -0.4292 -0.1181 -0.4460
 1637SOL    HW112151  10.660   3.215   2.873 -1.9625 -1.4225  0.8977
 1637SOL    HW212152  10.621   3.252   2.732  1.2373  0.7832  0.4925
 1638SOL     OW12153   0.130   0.081   2.493  0.3914 -0.1196  0.3220
 1638SOL    HW112154   0.116   0.002   2.441 -1.6062  0.6270 -0.4097
 1638SOL    HW212155   0.194   0.132   2.443  0.5504 -0.6193  0.0154
 1639SOL     OW12156   2.529  11.202   8.746 -0.2074  0.1193 -0.5953
 1639SOL    HW112157   2.529  11.138   8.675 -1.0128  0.1306 -0.6160
 1639SOL    HW212158   2.461  11.171   8.805  0.6153 -0.0258  0.3055
 1640SOL     OW12159   6.394  10.091   6.655 -0.0276 -0.1331 -0.1321
 1640SOL    HW112160   6.344  10.025   6.606 -0.1829  0.5123 -0.8644
 1640SOL    HW212161   6.445  10.137   6.588  0.1350  0.4369  0.3755
 1641SOL     OW12162   4.238   3.046  11.072  0.2292 -0.1841 -0.4602
 1641SOL    HW112163   4.302   2.985  11.036  0.7111  0.8618 -1.4617
 1641SOL    HW212164   4.213   3.100  10.997  1.1047  1.9446  0.6943
 1642SOL     OW12165   9.143   8.674   7.690  0.3704 -0.5091 -0.1789
 1642SOL    HW112166   9.189   8.609   7.743  0.0837 -0.4027  0.2131
 1642SOL    HW212167   9.130   8.632   7.605 -1.9364 -1.9421  0.7666
 1643SOL     OW12168   5.757   0.609   9.416  0.2203 -0.3794 -0.2960
 1643SOL    HW112169   5.694   0.578   9.351 -0.9545 -1.0982  1.1484
 1643SOL    HW212170   5.830   0.643   9.363 -0.6946 -0.9058 -1.9830
 1644SOL     OW12171  10.605   8.673  11.683 -0.1007  0.7297 -0.0635
 1644SOL    HW112172  10.639   8.729  11.614  1.0878  0.6383  0.4379
 1644SOL    HW212173  10.537   8.621  11.640  0.8161  0.4755 -1.2386
 1645SOL     OW12174   1.970   9.782   2.644 -0.3097  0.0947 -0.4198
 1645SOL    HW112175   1.956   9.851   2.708 -1.3836 -0.2428 -0.2588
 1645SOL    HW212176   2.052   9.805   2.601 -0.9650  1.8273 -0.8213
 1646SOL     OW12177  12.643   9.663   5.428 -0.2948  0.7505  0.0249
 1646SOL    HW112178  12.705   9.727   5.463  2.1205 -1.5528  0.2374
 1646SOL    HW212179  12.595   9.631   5.505  1.1221 -0.3073  0.5150
 1647SOL     OW12180   3.015   7.192   6.847  0.0912 -0.5152 -0.1602
 1647SOL    HW112181   2.977   7.104   6.837 -3.0988  0.3046  2.6895
 1647SOL    HW212182   3.063   7.187   6.931  0.9440  0.1873 -0.5891
 1648SOL     OW12183   2.280   4.136   0.718  0.1425 -0.2537 -0.4697
 1648SOL    HW112184   2.355   4.178   0.676 -0.3373 -1.8766 -3.1554
 1648SOL    HW212185   2.289   4.043   0.697 -1.8599 -0.6831  0.3509
 1649SOL     OW12186   7.668   6.476   8.020 -0.4466  0.0051 -0.0735
 1649SOL    HW112187   7.694   6.384   8.024 -3.1930 -0.8330  0.9368
 1649SOL    HW212188   7.610   6.488   8.095 -0.0427  2.6356 -0.0944
 1650SOL     OW12189   1.217  11.297   5.896 -0.2130 -0.2159  0.1622
 1650SOL    HW112190   1.305  11.260   5.888 -0.3133 -0.1295 -1.9648
 1650SOL    HW212191   1.213  11.330   5.986  1.0467 -2.3555  1.0844
 1651SOL     OW12192   7.269   2.657   2.556  0.2256 -0.1769 -0.0324
 1651SOL    HW112193   7.359   2.677   2.528  0.1418  1.9731  1.0732
 1651SOL    HW212194   7.227   2.742   2.565 -2.7938 -1.1637 -3.0117
 1652SOL     OW12195   5.609   0.580   8.606 -0.4561  0.0468 -0.6385
 1652SOL    HW112196   5.697   0.552   8.581 -0.4563  0.1830 -0.7932
 1652SOL    HW212197   5.604   0.672   8.579 -0.0886  0.5159  0.7992
 1653SOL     OW12198   0.339   1.154  10.806 -0.0040 -0.6469 -0.3157
 1653SOL    HW112199   0.383   1.094  10.746 -0.5752 -1.2364 -0.1617
 1653SOL    HW212200   0.327   1.235  10.757  0.7323 -0.6742 -0.5441
 1654SOL     OW12201   0.481   3.693   6.508  0.1943  0.1350  0.2012
 1654SOL    HW112202   0.502   3.759   6.574 -0.0435  0.1251  0.2909
 1654SOL    HW212203   0.556   3.634   6.509  0.1035  0.0172  0.6166
 1655SOL     OW12204   7.276  11.656   1.230 -0.3741  0.0700  0.4591
 1655SOL    HW112205   7.302  11.591   1.295  0.1416 -0.3117 -0.1132
 1655SOL    HW212206   7.270  11.607   1.148 -2.2919  0.2730  0.4314
 1656SOL     OW12207  11.479   7.548   5.641  0.8153  0.2953  0.0157
 1656SOL    HW112208  11.409   7.486   5.660  1.2199 -0.0572  0.3868
 1656SOL    HW212209  11.447   7.599   5.567 -1.0017  2.0141  1.8651
 1657SOL     OW12210   8.256   3.044   6.384  0.2948 -0.1849 -0.8219
 1657SOL    HW112211   8.240   2.994   6.304 -0.0967 -0.9747 -0.2599
 1657SOL    HW212212   8.342   3.013   6.415 -0.0338 -0.6642 -0.3708
 1658SOL     OW12213   4.806   6.024   2.667  0.4566  0.1691 -0.1251
 1658SOL    HW112214   4.834   6.025   2.575  1.5834  0.1658  0.2075
 1658SOL    HW212215   4.744   6.097   2.673  1.1230  0.8093 -0.6760
 1659SOL     OW12216   7.663   6.299  11.917  0.1090  0.3938  0.2272
 1659SOL    HW112217   7.758   6.283  11.923 -0.0666 -0.2826  1.7932
 1659SOL    HW212218   7.639   6.329  12.005 -1.4398 -1.3609  0.4610
 1660SOL     OW12219  10.099   5.262   5.082 -0.5356 -0.3355 -0.2560
 1660SOL    HW112220  10.117   5.348   5.119 -1.0692  0.7483 -2.3277
 1660SOL    HW212221  10.045   5.218   5.147 -0.3831  0.9640  0.7769
 1661SOL     OW12222   4.832   7.567   9.259 -0.2019  0.1041 -1.2340
 1661SOL    HW112223   4.861   7.606   9.341 -1.8607  0.7624 -0.9160
 1661SOL    HW212224   4.763   7.506   9.284  0.2448 -0.7462 -2.0231
 1662SOL     OW12225   2.858   6.540  11.356 -0.1179 -0.3593  0.0595
 1662SOL    HW112226   2.810   6.470  11.311 -0.4606 -0.2553  0.2681
 1662SOL    HW212227   2.932   6.558  11.298  0.2134 -1.1928  0.2058
 1663SOL     OW12228   5.322   4.806  12.011  0.0759  0.2016 -0.2667
 1663SOL    HW112229   5.301   4.822  12.103  0.0170 -1.4878  0.0524
 1663SOL    HW212230   5.259   4.740  11.982 -0.8993  1.7914 -2.0013
 1664SOL     OW12231  11.576   1.154   3.047  0.2884  0.1635  0.5312
 1664SOL    HW112232  11.532   1.071   3.065 -0.7002  0.2573 -1.2160
 1664SOL    HW212233  11.665   1.130   3.022  0.5971 -0.2015  1.9147
 1665SOL     OW12234   8.760   4.546   1.965  0.0519  0.0918 -0.1227
 1665SOL    HW112235   8.672   4.514   1.946  0.5564 -0.9035 -0.8750
 1665SOL    HW212236   8.809   4.530   1.885  0.7994  1.1252  0.1027
 1666SOL     OW12237   4.428   7.704   4.640 -0.5318  0.4054  0.1583
 1666SOL    HW112238   4.456   7.695   4.549  3.2342  0.8049  1.1362
 1666SOL    HW212239   4.369   7.780   4.640  0.5658  1.3161 -1.7326
 1667SOL     OW12240   6.383   3.765   2.044 -0.1232 -0.4525  0.2595
 1667SOL    HW112241   6.410   3.813   2.123 -1.2295  0.3797  0.1576
 1667SOL    HW212242   6.405   3.823   1.972  1.2328 -1.3733 -0.0957
 1668SOL     OW12243   9.650   5.001  10.981  0.3228  0.0798  0.0811
 1668SOL    HW112244   9.599   5.068  10.935 -0.2798 -0.9178 -0.7506
 1668SOL    HW212245   9.619   5.006  11.072 -1.4044 -0.5995 -0.4312
 1669SOL     OW12246   3.598   7.755  12.031 -0.0495 -0.5732  0.5416
 1669SOL    HW112247   3.587   7.728  12.121 -1.5226  0.3496  0.6686
 1669SOL    HW212248   3.510   7.772  11.999  0.5139  0.1251 -0.7464
 1670SOL     OW12249  10.232   7.119   6.096 -0.0091 -0.0408 -0.1575
 1670SOL    HW112250  10.203   7.153   6.181 -0.7177  0.4512 -0.5880
 1670SOL    HW212251  10.284   7.189   6.058  0.7966 -0.4833  0.1113
 1671SOL     OW12252   5.340  11.192   9.549 -0.0927  0.2932 -0.5052
 1671SOL    HW112253   5.305  11.142   9.622 -1.1066  0.5491 -0.7930
 1671SOL    HW212254   5.311  11.282   9.567  1.5491  0.7599 -0.0817
 1672SOL     OW12255  11.746   5.223   7.609 -0.0464  0.4851 -0.4041
 1672SOL    HW112256  11.669   5.279   7.599 -0.5477  0.0623  0.8547
 1672SOL    HW212257  11.739   5.159   7.538 -1.3000 -0.0230  0.1495
 1673SOL     OW12258   6.928   1.249  12.411 -0.3290 -0.0887 -0.0786
 1673SOL    HW112259   6.910   1.323  12.470 -0.8000 -0.2293 -0.0403
 1673SOL    HW212260   7.023   1.251  12.397  0.2284 -1.5475  2.7170
 1674SOL     OW12261   9.792   1.285  10.710  0.0340 -0.1033 -0.2172
 1674SOL    HW112262   9.734   1.219  10.750  0.1104  1.4639  2.7649
 1674SOL    HW212263   9.880   1.252  10.726  0.1065 -1.2515 -2.5329
 1675SOL     OW12264  10.481   6.088   3.536 -0.3245  0.3975 -0.4795
 1675SOL    HW112265  10.522   6.119   3.617  1.3675 -0.8508 -0.8038
 1675SOL    HW212266  10.388   6.079   3.558  0.1444 -0.2264  1.4421
 1676SOL     OW12267  12.150  10.429   2.385  0.4822 -0.0842  0.8293
 1676SOL    HW112268  12.200  10.393   2.312 -0.6497  0.4281 -0.2409
 1676SOL    HW212269  12.215  10.471   2.440  1.1188  2.3893 -1.5735
 1677SOL     OW12270   3.449   3.534   6.708 -0.0737  0.6964 -0.7701
 1677SOL    HW112271   3.529   3.568   6.746  1.0113  0.2898 -2.5545
 1677SOL    HW212272   3.392   3.610   6.700  0.8192  1.3496 -1.0963
 1678SOL     OW12273  10.107   5.466   5.517 -0.1895  0.0080  0.3574
 1678SOL    HW112274  10.201   5.454   5.501  0.2306 -1.1758  3.1948
 1678SOL    HW212275  10.066   5.390   5.477  0.5702 -1.6617  2.5535
 1679SOL     OW12276  12.494   7.627  12.106  0.5512 -0.3467 -0.6886
 1679SOL    HW112277  12.510   7.712  12.147  0.1599 -0.9799  0.8241
 1679SOL    HW212278  12.579   7.601  12.071  0.9478  0.1131 -0.0955
 1680SOL     OW12279  12.139   2.526  12.011 -0.3481  0.4155 -0.0869
 1680SOL    HW112280  12.174   2.441  11.983  1.6796  1.3287 -0.4305
 1680SOL    HW212281  12.162   2.532  12.104 -0.2687  0.7143 -0.1262
 1681SOL     OW12282   8.665  11.337  12.633  0.5003  0.5302 -0.1407
 1681SOL    HW112283   8.755  11.319  12.660 -0.0551 -0.2272  1.3620
 1681SOL    HW212284   8.657  11.296  12.547  1.9500  1.7670 -0.8958
 1682SOL     OW12285   4.966  11.059   0.022 -0.4079  0.6110  0.5984
 1682SOL    HW112286   5.007  11.075  -0.063  0.9007  0.2493  1.1399
 1682SOL    HW212287   4.960  11.145   0.063  0.3010  0.6014  0.7264
 1683SOL     OW12288   9.486   1.452   3.352 -0.1608 -0.4476  0.0334
 1683SOL    HW112289   9.455   1.526   3.298  1.9898  0.6633  0.2237
 1683SOL    HW212290   9.569   1.482   3.389 -0.0716 -2.3469  1.5357
 1684SOL     OW12291   0.610   9.966   5.148 -0.1166 -0.0289  0.7430
 1684SOL    HW112292   0.588  10.010   5.066  2.0373  0.3000  0.2919
 1684SOL    HW212293   0.705   9.975   5.156 -0.2906  0.2311  3.4479
 1685SOL     OW12294   2.573  10.018   6.257 -0.1622  0.4380  0.5905
 1685SOL    HW112295   2.550   9.925   6.247  1.8441 -0.3346  2.3795
 1685SOL    HW212296   2.644  10.032   6.195  0.5755  0.3406  1.4021
 1686SOL     OW12297   9.751   5.382   8.889  0.2152  0.7403 -0.5516
 1686SOL    HW112298   9.820   5.445   8.867 -0.8970  2.1682 -0.1065
 1686SOL    HW212299   9.677   5.407   8.833 -0.5411  0.4050  0.2646
 1687SOL     OW12300   7.157   2.647   3.971  0.1557  0.9055  0.2587
 1687SOL    HW112301   7.085   2.585   3.958  0.8857  0.2641 -1.0516
 1687SOL    HW212302   7.122   2.715   4.028 -1.9874  1.4208 -1.5578
 1688SOL     OW12303   5.103   2.264  11.358  0.3512  0.2314 -0.0720
 1688SOL    HW112304   5.185   2.216  11.373 -0.2248  0.0201  3.0194
 1688SOL    HW212305   5.035   2.197  11.359 -0.0605  0.6250 -0.6457
 1689SOL     OW12306   4.681   9.918  10.343 -0.6106  0.4988 -0.7779
 1689SOL    HW112307   4.711  10.008  10.349 -0.5490  0.4880 -0.9310
 1689SOL    HW212308   4.597   9.918  10.390 -0.0832  0.3892  0.1854
 1690SOL     OW12309   4.759   6.438   4.565  0.4002 -0.3295 -0.9909
 1690SOL    HW112310   4.730   6.450   4.475 -0.5113  1.6266 -0.4911
 1690SOL    HW212311   4.851   6.464   4.564  0.4882 -0.6412 -1.4098
 1691SOL     OW12312   3.268  11.951   0.324 -0.2860 -0.2169 -0.5209
 1691SOL    HW112313   3.250  11.968   0.416 -0.9093  0.9132 -0.8387
 1691SOL    HW212314   3.182  11.947   0.282 -0.1104 -2.4504 -0.7963
 1692SOL     OW12315   6.529   7.752   9.771  0.3472 -0.6323 -0.1247
 1692SOL    HW112316   6.564   7.663   9.769  1.8767 -0.0981  0.7570
 1692SOL    HW212317   6.597   7.805   9.729  0.9855  0.5349  2.1609
 1693SOL     OW12318  10.186  10.435   8.497 -0.3173 -0.5005 -0.2125
 1693SOL    HW112319  10.126  10.464   8.566 -0.1183  0.5296 -0.4591
 1693SOL    HW212320  10.269  10.418   8.543 -0.1594  0.2701 -0.1974
 1694SOL     OW12321  12.560   0.255   4.196  0.9123  0.1491  0.0499
 1694SOL    HW112322  12.651   0.269   4.172  1.1778 -2.6973 -0.9680
 1694SOL    HW212323  12.510   0.293   4.124  1.3503  0.2736 -0.1906
 1695SOL     OW12324   1.281  11.077   6.827 -0.2116 -0.5394  0.0936
 1695SOL    HW112325   1.213  11.031   6.876 -0.5501  0.7645  0.8837
 1695SOL    HW212326   1.319  11.138   6.889 -0.0670  0.5602 -1.0286
 1696SOL     OW12327   7.117   2.674   9.141  0.4931 -0.4571  0.2295
 1696SOL    HW112328   7.096   2.764   9.116  0.4384 -0.5206  0.0413
 1696SOL    HW212329   7.034   2.639   9.175  0.2311 -0.7605 -0.6680
 1697SOL     OW12330  10.498  11.462  11.885  0.0711  0.3508  0.6230
 1697SOL    HW112331  10.499  11.436  11.977 -0.0042 -0.0348  0.5197
 1697SOL    HW212332  10.421  11.418  11.848  0.2211  0.3294  0.3307
 1698SOL     OW12333  12.182   1.355   8.268 -0.1251  0.1748  0.8876
 1698SOL    HW112334  12.244   1.285   8.289  0.4544  1.2647  3.1649
 1698SOL    HW212335  12.099   1.327   8.306 -0.2506  0.1053  0.5672
 1699SOL     OW12336  10.989   7.883   6.447  0.0138 -0.2794  1.2282
 1699SOL    HW112337  10.900   7.846   6.440  0.5354 -1.6352  1.4068
 1699SOL    HW212338  11.010   7.876   6.540  0.5942 -0.7105  1.0740
 1700SOL     OW12339  11.937   0.109   3.347 -0.2429 -0.4811 -0.4641
 1700SOL    HW112340  11.893   0.074   3.268  0.3849  2.5191 -2.3051
 1700SOL    HW212341  11.865   0.134   3.404 -0.8766  0.4908 -1.6306
 1701SOL     OW12342  12.554   6.697  12.384 -0.2428 -0.1755  0.3792
 1701SOL    HW112343  12.590   6.608  12.392 -1.8333 -0.8830  0.0997
 1701SOL    HW212344  12.613   6.752  12.435 -0.3888 -1.7403  2.3494
 1702SOL     OW12345   3.522  10.666   1.932  0.0482 -0.6607 -0.1025
 1702SOL    HW112346   3.430  10.691   1.935  0.2437  0.0156  0.5645
 1702SOL    HW212347   3.565  10.740   1.890  0.1993 -1.2640 -1.0182
 1703SOL     OW12348   3.270   2.114   0.343 -0.4098  0.2586 -0.2662
 1703SOL    HW112349   3.292   2.053   0.413 -0.4066  0.5459 -0.0117
 1703SOL    HW212350   3.202   2.169   0.381 -0.6371  0.2086 -0.6016
 1704SOL     OW12351   0.278   3.224   4.768 -0.2455 -0.1204 -0.0091
 1704SOL    HW112352   0.355   3.266   4.806  0.3583 -0.5393 -0.7450
 1704SOL    HW212353   0.269   3.263   4.682 -1.3630  0.5221  0.3763
 1705SOL     OW12354   2.172   3.279  12.558  0.1663  0.9495 -0.1168
 1705SOL    HW112355   2.144   3.189  12.541  1.5661  0.1703  1.3990
 1705SOL    HW212356   2.226   3.302  12.482  1.0357 -0.0754  0.1599
 1706SOL     OW12357   5.472   6.493   9.484  0.0929  0.1463  0.5519
 1706SOL    HW112358   5.397   6.449   9.445  0.7741 -0.0805 -0.5593
 1706SOL    HW212359   5.511   6.543   9.412  1.0024  0.2632  1.1017
 1707SOL     OW12360   0.743   0.583   2.138  0.4668 -0.2547  0.4583
 1707SOL    HW112361   0.704   0.567   2.053  2.4029  0.7029 -0.6841
 1707SOL    HW212362   0.716   0.672   2.162  1.3533  0.1692 -0.0424
 1708SOL     OW12363   9.266  10.344  10.536  0.3065  0.2016 -0.0613
 1708SOL    HW112364   9.278  10.367  10.628 -1.6813  0.4051  0.2025
 1708SOL    HW212365   9.233  10.424  10.496 -2.6128 -0.8559 -0.0419
 1709SOL     OW12366   2.152   8.344   4.117  0.3209  0.4683 -0.0667
 1709SOL    HW112367   2.117   8.257   4.137  1.7777  0.1725  1.4771
 1709SOL    HW212368   2.132   8.358   4.025  0.5863 -1.7859 -0.5185
 1710SOL     OW12369   1.849   9.097  10.577  0.0986 -0.0093 -0.1908
 1710SOL    HW112370   1.799   9.117  10.656  2.6416  1.7224  1.1410
 1710SOL    HW212371   1.915   9.034  10.605  0.6644  0.1603 -1.0725
 1711SOL     OW12372  11.970   0.293   3.596  0.3840  0.2586  0.2259
 1711SOL    HW112373  11.989   0.209   3.638 -0.2271  0.0757  0.1503
 1711SOL    HW212374  11.891   0.277   3.545  0.1434  0.9351  0.3759
 1712SOL     OW12375   5.194   9.594   5.038 -0.5443  0.2274  0.0823
 1712SOL    HW112376   5.267   9.615   4.980 -0.0655  0.9357  0.9063
 1712SOL    HW212377   5.169   9.505   5.014 -0.0447  0.3335 -0.8707
 1713SOL     OW12378   0.790   4.768   8.862 -0.5281 -0.0397  0.0432
 1713SOL    HW112379   0.779   4.847   8.808 -0.1387 -0.6799 -0.9997
 1713SOL    HW212380   0.821   4.702   8.801 -1.6913 -1.2533  0.7179
 1714SOL     OW12381   0.240   7.030  11.488 -0.0856  0.0824 -0.0628
 1714SOL    HW112382   0.166   7.015  11.430 -1.5384  1.5740  1.3195
 1714SOL    HW212383   0.211   6.996  11.573  0.6816  0.9820  0.5771
 1715SOL     OW12384   8.063   7.734   4.024  0.0842 -0.2694  0.0959
 1715SOL    HW112385   8.052   7.639   4.024 -1.1742 -0.1540  1.2207
 1715SOL    HW212386   8.114   7.753   3.945  1.0500 -1.9479  0.2908
 1716SOL     OW12387   1.107   9.518   0.385 -1.0606  1.0448  0.2492
 1716SOL    HW112388   1.030   9.488   0.338 -1.8244  1.8320  0.9604
 1716SOL    HW212389   1.072   9.566   0.460  0.1198  0.7460  1.0243
 1717SOL     OW12390   4.906   4.228   9.936  0.1784 -0.8930  0.2937
 1717SOL    HW112391   4.888   4.317   9.905  0.5910 -1.0622 -0.4675
 1717SOL    HW212392   4.937   4.240  10.026  0.2883 -0.2649  0.1785
 1718SOL     OW12393   2.267   0.557  11.117 -0.2520  0.5150  0.0245
 1718SOL    HW112394   2.255   0.463  11.103 -1.7689  0.8079 -0.8320
 1718SOL    HW212395   2.300   0.564  11.206  1.1704 -0.9018 -0.3552
 1719SOL     OW12396  10.645   4.110   5.555  0.3533 -0.5183 -0.0869
 1719SOL    HW112397  10.646   4.154   5.640  0.1557  0.6995 -0.7009
 1719SOL    HW212398  10.573   4.151   5.508  1.1017 -0.4699 -1.2115
 1720SOL     OW12399   6.372  11.989   4.661  1.2167 -0.5994 -0.0435
 1720SOL    HW112400   6.428  12.065   4.647 -1.8150  1.8057 -0.2956
 1720SOL    HW212401   6.381  11.968   4.754  1.3926  0.6992  0.2471
 1721SOL     OW12402   5.421   4.225   9.482 -0.0558  0.4154  0.6424
 1721SOL    HW112403   5.410   4.154   9.419 -1.0655  0.2076  1.0271
 1721SOL    HW212404   5.452   4.299   9.430 -0.8689  0.2473 -0.1088
 1722SOL     OW12405   6.046   4.857   8.653 -0.3462  0.1537 -0.4848
 1722SOL    HW112406   6.120   4.917   8.644  1.0515 -1.4148 -0.0407
 1722SOL    HW212407   6.060   4.815   8.738 -3.3343  1.7964  0.9795
 1723SOL     OW12408  12.425   2.529   1.514 -0.7756  0.1641 -0.7314
 1723SOL    HW112409  12.408   2.603   1.456  0.0464 -0.1670 -1.4215
 1723SOL    HW212410  12.468   2.568   1.590 -1.4831  0.5465 -0.5113
 1724SOL     OW12411   6.910   8.529   5.761 -0.1111  0.5529  0.0209
 1724SOL    HW112412   6.980   8.491   5.709 -0.5016  0.3406 -0.3524
 1724SOL    HW212413   6.920   8.624   5.749 -0.2323  0.5039 -0.4839
 1725SOL     OW12414  10.152   1.026   4.136 -0.2972 -0.4031 -0.0178
 1725SOL    HW112415  10.139   1.040   4.042 -0.8900 -0.6177  0.0315
 1725SOL    HW212416  10.240   0.989   4.142 -0.1607 -0.1590 -0.4652
 1726SOL     OW12417   3.669  11.043   3.701  0.4127  0.1112  0.0343
 1726SOL    HW112418   3.616  11.042   3.780  1.3065  0.3507  0.6533
 1726SOL    HW212419   3.760  11.043   3.733  0.7941  1.5556 -0.9577
 1727SOL     OW12420   7.588  10.896  11.491 -0.2894 -0.0501 -0.0925
 1727SOL    HW112421   7.581  10.967  11.427  1.9077  0.5996  0.2796
 1727SOL    HW212422   7.575  10.939  11.576 -1.0977 -0.5041  0.0131
 1728SOL     OW12423   6.446   1.539   0.635  0.2340  0.2644 -0.6007
 1728SOL    HW112424   6.367   1.491   0.612  0.4657 -0.2811 -0.2687
 1728SOL    HW212425   6.506   1.473   0.669  0.4406  0.8358  0.1771
 1729SOL     OW12426   2.652   0.680   3.786 -0.3305  0.4015 -0.2248
 1729SOL    HW112427   2.737   0.639   3.801 -0.9475 -0.5229  0.8710
 1729SOL    HW212428   2.647   0.749   3.852 -1.3018 -0.9360  1.1360
 1730SOL     OW12429   3.207   4.929   2.138  0.1282 -0.2473 -0.0418
 1730SOL    HW112430   3.233   4.842   2.167 -0.0289 -0.5343 -0.7602
 1730SOL    HW212431   3.289   4.977   2.128  0.4417 -1.1523 -2.3137
 1731SOL     OW12432   6.167   9.405  10.135 -0.3037  0.9404 -0.2993
 1731SOL    HW112433   6.085   9.444  10.166  0.1179  0.1658  1.8913
 1731SOL    HW212434   6.220   9.480  10.107 -2.0279  1.4049 -2.6764
 1732SOL     OW12435   9.851   5.410   9.166  0.2887 -0.0459  0.2206
 1732SOL    HW112436   9.817   5.407   9.077  0.4440  1.4977  0.0906
 1732SOL    HW212437   9.849   5.502   9.190  1.2045 -0.3184  1.4484
 1733SOL     OW12438   8.963   7.180   5.467 -0.2158  0.2446  0.1504
 1733SOL    HW112439   8.944   7.271   5.492 -3.3217 -0.0484 -0.7905
 1733SOL    HW212440   8.998   7.186   5.378  2.8433  0.6535  1.2526
 1734SOL     OW12441   2.613   9.746   1.481 -0.4570 -0.3216  0.0353
 1734SOL    HW112442   2.663   9.669   1.453 -2.8200 -2.3385  0.9490
 1734SOL    HW212443   2.554   9.764   1.407  0.6946  1.2249 -0.5330
 1735SOL     OW12444   8.146   0.170   8.071 -0.2833  0.4955  0.4461
 1735SOL    HW112445   8.083   0.230   8.110 -0.9938  0.0311  0.0294
 1735SOL    HW212446   8.097   0.124   8.003  1.0526  1.7032 -1.4366
 1736SOL     OW12447   7.639   9.439   5.370  0.1886 -0.4928 -0.1325
 1736SOL    HW112448   7.554   9.409   5.338 -0.7394  0.1842  1.5956
 1736SOL    HW212449   7.702   9.406   5.305 -1.2918 -1.6818 -1.0289
 1737SOL     OW12450   7.003   7.642   6.513 -0.4210 -0.2326 -0.0895
 1737SOL    HW112451   6.954   7.656   6.432 -0.2350 -1.3222 -0.4035
 1737SOL    HW212452   7.093   7.663   6.490 -0.4496 -0.0270 -0.0164
 1738SOL     OW12453  12.664   1.920  11.683 -0.0968  0.0405 -0.6778
 1738SOL    HW112454  12.687   1.829  11.702 -0.4339  0.4553  2.0534
 1738SOL    HW212455  12.568   1.920  11.679 -0.0942  0.2549 -0.7630
 1739SOL     OW12456   8.089  12.693  12.597  0.1090 -0.5393 -0.2747
 1739SOL    HW112457   8.172  12.740  12.591  0.5306 -1.2522 -0.1326
 1739SOL    HW212458   8.091  12.632  12.523  0.0758 -1.1234  0.1963
 1740SOL     OW12459  11.760  11.087   8.235 -0.5725  0.4223  0.2742
 1740SOL    HW112460  11.766  11.182   8.225 -0.8199  0.3095 -1.2322
 1740SOL    HW212461  11.726  11.056   8.150 -1.4119 -0.9170  1.0615
 1741SOL     OW12462  11.968   7.011   2.304 -0.0868 -1.1352  0.7951
 1741SOL    HW112463  11.902   6.976   2.364 -0.0762 -1.0556  0.8546
 1741SOL    HW212464  11.922   7.020   2.220 -0.0639 -1.3739  0.7581
 1742SOL     OW12465   6.076   2.554   6.582  0.1204 -0.1723 -0.0210
 1742SOL    HW112466   6.130   2.499   6.525 -0.3130  0.3759 -0.9851
 1742SOL    HW212467   5.994   2.565   6.534 -0.8047 -0.8119  1.3218
 1743SOL     OW12468  12.397   9.342   6.180 -0.0021 -0.5625  0.2834
 1743SOL    HW112469  12.467   9.358   6.117 -1.2811  0.2009 -0.9994
 1743SOL    HW212470  12.319   9.380   6.140 -1.1309 -1.2175  1.7513
 1744SOL     OW12471   3.083  10.164   6.190  0.0422  0.0237 -0.1076
 1744SOL    HW112472   3.057  10.161   6.282 -2.0304  2.2051 -0.5073
 1744SOL    HW212473   3.008  10.127   6.143  0.4239  0.3355 -0.9746
 1745SOL     OW12474   0.456  11.455   6.665 -0.5012 -0.7120  0.3646
 1745SOL    HW112475   0.545  11.485   6.682 -0.6034 -1.0990  1.6567
 1745SOL    HW212476   0.448  11.456   6.569  0.5903  0.1645  0.2699
 1746SOL     OW12477   3.547   5.088   0.570  0.1306  0.0123  0.1556
 1746SOL    HW112478   3.456   5.060   0.582 -0.1049  0.3175 -0.7910
 1746SOL    HW212479   3.595   5.008   0.548 -0.0508 -0.0494 -0.0213
 1747SOL     OW12480   1.096   8.337   1.888  0.2432  0.3484 -0.3604
 1747SOL    HW112481   1.119   8.302   1.802 -0.1329  2.1934 -1.2653
 1747SOL    HW212482   1.170   8.394   1.911  0.9382 -1.0844  1.1641
 1748SOL     OW12483  12.591   8.143   8.618 -0.3275  0.0152  0.3411
 1748SOL    HW112484  12.575   8.175   8.529  0.1998  0.1698  0.3018
 1748SOL    HW212485  12.519   8.081   8.634  0.6891 -1.5796 -0.9608
 1749SOL     OW12486   7.848   9.716   7.288 -0.9594 -0.2714  0.5053
 1749SOL    HW112487   7.881   9.642   7.338 -0.7315 -0.3138  0.2986
 1749SOL    HW212488   7.891   9.792   7.327  0.9915 -0.4884 -1.0054
 1750SOL     OW12489   2.265   0.113   5.031  0.0665  0.3043  0.5625
 1750SOL    HW112490   2.171   0.117   5.015  0.0283  1.1640  0.9672
 1750SOL    HW212491   2.277   0.033   5.083 -0.5585  0.6753  1.2842
 1751SOL     OW12492   3.743  10.875   0.011 -0.1951  0.0931  0.1201
 1751SOL    HW112493   3.737  10.970   0.025 -1.3704 -0.0401  0.6585
 1751SOL    HW212494   3.701  10.861  -0.074 -0.6184 -0.0067  0.3419
 1752SOL     OW12495   9.945   7.438   8.614  0.2165 -0.8242 -0.3803
 1752SOL    HW112496  10.028   7.402   8.584 -0.0897 -0.7151 -1.3894
 1752SOL    HW212497   9.943   7.527   8.579 -1.4290 -1.6349 -2.6004
 1753SOL     OW12498   2.499   0.041   7.887  0.4764 -0.5341 -0.0165
 1753SOL    HW112499   2.550   0.120   7.871  0.2133 -0.0649  1.3725
 1753SOL    HW212500   2.562  -0.023   7.919  0.3807 -0.3108  0.6160
 1754SOL     OW12501   9.511   9.052  12.381 -0.3620 -0.2063 -0.4709
 1754SOL    HW112502   9.470   9.137  12.368 -2.8214 -1.2936 -0.3892
 1754SOL    HW212503   9.468   8.994  12.317  0.3916 -1.6430  0.2667
 1755SOL     OW12504  10.054   2.131   1.304 -0.0263 -0.3368  0.2176
 1755SOL    HW112505  10.059   2.227   1.307  0.6064  0.1581 -5.6216
 1755SOL    HW212506   9.962   2.112   1.287  0.0428 -0.6330  0.1670
 1756SOL     OW12507   7.069  11.973   6.161 -0.0503 -0.1456 -0.0844
 1756SOL    HW112508   7.117  12.004   6.084 -0.0514  0.9903  0.3509
 1756SOL    HW212509   7.115  11.893   6.187  0.7687  0.1806 -0.4769
 1757SOL     OW12510   4.282   4.084   4.366  0.2876 -0.6617 -0.1265
 1757SOL    HW112511   4.201   4.048   4.330  0.3146 -2.7165  1.6443
 1757SOL    HW212512   4.304   4.025   4.439  2.0022  1.3152  1.0649
 1758SOL     OW12513  12.607   2.946  11.366 -0.2058 -0.4629 -0.2197
 1758SOL    HW112514  12.518   2.921  11.341 -0.0824 -0.7395 -0.3939
 1758SOL    HW212515  12.661   2.872  11.336  0.1584 -0.0177 -0.6770
 1759SOL     OW12516   9.865   0.613  11.842 -0.2923  0.6753  0.9623
 1759SOL    HW112517   9.776   0.594  11.873 -0.2701  1.2674  1.4211
 1759SOL    HW212518   9.904   0.665  11.912 -0.5459  2.8600 -0.4053
 1760SOL     OW12519   2.900   3.648   3.298 -0.0538  0.0422  0.3481
 1760SOL    HW112520   2.921   3.736   3.331  1.1190  0.0408 -0.3362
 1760SOL    HW212521   2.970   3.629   3.236 -1.3697 -0.5677 -1.0102
 1761SOL     OW12522   7.806   3.264  12.651 -0.0439  0.5707  0.0790
 1761SOL    HW112523   7.853   3.344  12.674 -2.5144  1.8685  1.0240
 1761SOL    HW212524   7.723   3.270  12.699 -1.2804 -1.4646 -1.6055
 1762SOL     OW12525   2.302  11.897   5.038  0.1541 -0.3585  0.1993
 1762SOL    HW112526   2.229  11.900   5.099  0.4702  1.0682  0.5636
 1762SOL    HW212527   2.262  11.904   4.951 -0.1567  0.2346  0.3885
 1763SOL     OW12528  10.837  11.617   6.956 -0.5317 -0.0742 -0.0845
 1763SOL    HW112529  10.916  11.672   6.961 -0.6293  0.0611 -0.0437
 1763SOL    HW212530  10.770  11.674   6.918 -0.5130 -0.3022 -0.4562
 1764SOL     OW12531   7.999   5.729  10.316  0.2401  0.3193 -0.6347
 1764SOL    HW112532   8.077   5.783  10.306  0.5421 -0.1412 -0.7678
 1764SOL    HW212533   8.002   5.668  10.243  0.4458 -0.5488  0.0875
 1765SOL     OW12534   0.245   0.435  12.512 -0.2905 -0.0657 -0.7014
 1765SOL    HW112535   0.234   0.437  12.417  0.0947  0.3820 -0.7424
 1765SOL    HW212536   0.274   0.346  12.531 -0.7785 -0.2781 -0.9554
 1766SOL     OW12537   8.530   1.150   8.263  0.1994 -0.2576  0.5269
 1766SOL    HW112538   8.623   1.172   8.271  0.4686  0.2656 -2.6211
 1766SOL    HW212539   8.484   1.228   8.295  0.8406 -0.2290  1.4094
 1767SOL     OW12540  10.090  11.052   1.385 -0.0946  0.2944  0.3779
 1767SOL    HW112541  10.080  11.131   1.333 -0.0751  0.5969  0.8261
 1767SOL    HW212542  10.050  10.983   1.332 -0.0739  0.5960 -0.0327
 1768SOL     OW12543   9.186   1.602  10.444  0.3401 -0.3749  0.2958
 1768SOL    HW112544   9.204   1.680  10.391 -1.4263 -0.7314 -0.9163
 1768SOL    HW212545   9.165   1.636  10.531 -1.5878  0.6528 -0.5190
 1769SOL     OW12546   3.019   0.764   0.965  0.2489 -1.2039  0.1855
 1769SOL    HW112547   2.962   0.791   0.894  1.1584  1.0243  0.2178
 1769SOL    HW212548   2.975   0.688   1.004 -3.4498  1.1237  1.0639
 1770SOL     OW12549   2.120   9.107  11.760  0.0475 -0.6370 -0.5703
 1770SOL    HW112550   2.168   9.051  11.820  3.1825  1.0889 -1.2538
 1770SOL    HW212551   2.123   9.194  11.800 -1.0393 -0.1464 -1.4933
 1771SOL     OW12552   8.416   8.439   1.712 -0.0729  0.3434  0.8414
 1771SOL    HW112553   8.424   8.345   1.699 -0.1951  0.5853 -1.3209
 1771SOL    HW212554   8.345   8.449   1.775 -2.0829 -0.9744 -1.0860
 1772SOL     OW12555  10.285   0.831   9.220 -0.3745  0.6221  0.2717
 1772SOL    HW112556  10.229   0.859   9.292 -0.7600 -0.8669  0.5954
 1772SOL    HW212557  10.365   0.799   9.263 -0.3442  0.3275  0.0017
 1773SOL     OW12558   3.281   5.427  10.344 -0.6986 -0.6138  0.5800
 1773SOL    HW112559   3.351   5.490  10.324  0.3203 -1.9142 -0.1208
 1773SOL    HW212560   3.206   5.481  10.367  0.6488  0.8388  1.7927
 1774SOL     OW12561   6.093  11.379   8.277  0.1720 -0.5326 -0.0747
 1774SOL    HW112562   6.102  11.439   8.203  0.0303 -1.7961 -1.1485
 1774SOL    HW212563   6.051  11.432   8.345 -0.9208  0.3123 -1.3453
 1775SOL     OW12564   4.049   2.984   5.019  0.0805  0.4800  0.3278
 1775SOL    HW112565   4.068   3.026   4.935  0.2119  1.2205  0.7207
 1775SOL    HW212566   3.994   3.046   5.065 -0.5615 -0.2270  0.5235
 1776SOL     OW12567  11.146   8.804   4.098  0.4157 -0.3272  0.1711
 1776SOL    HW112568  11.166   8.744   4.170 -0.2738  0.3760  0.9611
 1776SOL    HW212569  11.231   8.844   4.076  0.5366 -0.1188  0.9863
 1777SOL     OW12570  11.703  10.569  11.068 -0.7770 -0.0450  0.0758
 1777SOL    HW112571  11.759  10.574  10.991 -0.5852 -0.6721  0.1716
 1777SOL    HW212572  11.755  10.520  11.132 -0.5380  1.2591  0.9402
 1778SOL     OW12573   2.584   5.165  11.990  0.2281  0.0363  0.2568
 1778SOL    HW112574   2.567   5.106  12.063 -0.1005 -0.9911 -0.6244
 1778SOL    HW212575   2.622   5.243  12.030 -0.6112 -0.2079  1.5995
 1779SOL     OW12576   8.905   2.920   3.842 -0.1602  0.5666  0.0272
 1779SOL    HW112577   8.956   2.961   3.912 -0.4309 -0.0222  0.5745
 1779SOL    HW212578   8.966   2.862   3.798  0.1046  1.2004 -0.4623
 1780SOL     OW12579  12.560   0.711   2.926  0.2359  0.3908 -0.3272
 1780SOL    HW112580  12.599   0.788   2.967  0.1682  0.2846 -0.0630
 1780SOL    HW212581  12.465   0.728   2.929  0.2709  0.8491 -1.3591
 1781SOL     OW12582   6.956  10.150  10.986 -0.1328 -0.7600  0.2574
 1781SOL    HW112583   6.967  10.064  10.945 -0.8454 -0.3338 -0.8723
 1781SOL    HW212584   6.863  10.169  10.976 -0.4888 -0.8842  2.6436
 1782SOL     OW12585   8.108  11.836   5.823 -0.1716  0.0246 -0.1548
 1782SOL    HW112586   8.082  11.825   5.914 -1.3930 -0.6339 -0.5606
 1782SOL    HW212587   8.200  11.864   5.827 -0.2136  0.0052  1.2628
 1783SOL     OW12588   2.975   4.028   2.614  0.0014 -0.2497  0.3384
 1783SOL    HW112589   2.964   4.110   2.663  0.6459  0.1794 -0.2191
 1783SOL    HW212590   2.900   3.974   2.641  0.4344 -0.1038  1.9370
 1784SOL     OW12591   7.423   8.302   6.033  0.1704 -0.2900 -0.4607
 1784SOL    HW112592   7.445   8.233   6.095  2.1170 -0.4935 -1.3026
 1784SOL    HW212593   7.439   8.263   5.947 -0.4146  0.6507 -1.0177
 1785SOL     OW12594   8.121  11.640   7.068 -0.2900  0.2521 -0.0040
 1785SOL    HW112595   8.125  11.574   6.999  1.5239 -2.5064  2.4358
 1785SOL    HW212596   8.194  11.699   7.050 -0.1968 -0.0834 -0.7473
 1786SOL     OW12597   9.088  11.524   0.120 -0.5965  0.1357  0.0996
 1786SOL    HW112598   9.052  11.585   0.184 -2.1334 -1.5903  0.9851
 1786SOL    HW212599   9.172  11.562   0.095 -1.2624  2.3232  0.9542
 1787SOL     OW12600   0.202   5.655   6.419 -0.1045 -0.3581 -0.3161
 1787SOL    HW112601   0.220   5.561   6.414  0.1149 -0.4395  1.5868
 1787SOL    HW212602   0.143   5.665   6.494  0.6814  1.1329  0.1416
 1788SOL     OW12603   0.690   7.391  11.208 -0.0741 -0.9536 -0.4246
 1788SOL    HW112604   0.761   7.371  11.270  0.9025 -0.6383 -1.4076
 1788SOL    HW212605   0.612   7.398  11.263  0.6636 -1.2277  0.7040
 1789SOL     OW12606   3.215   8.706   3.402 -0.4663  0.2988 -0.8416
 1789SOL    HW112607   3.297   8.712   3.451 -1.9358  1.0464  1.7567
 1789SOL    HW212608   3.229   8.759   3.324  0.7303  2.7199  0.8812
 1790SOL     OW12609   5.040   9.790   1.113  0.2278  0.2735 -0.3194
 1790SOL    HW112610   5.028   9.737   1.192  0.8715 -0.2034 -0.5316
 1790SOL    HW212611   5.045   9.880   1.145 -1.8488  0.3385 -0.0366
 1791SOL     OW12612  10.853   9.827   8.514  0.2223 -0.7612  0.1429
 1791SOL    HW112613  10.893   9.788   8.592  1.8321  0.4455 -0.0209
 1791SOL    HW212614  10.927   9.855   8.460 -0.8298  1.1808 -0.4048
 1792SOL     OW12615   2.510  12.397  10.521  0.1887  0.0721  0.4355
 1792SOL    HW112616   2.431  12.415  10.572  0.3315 -1.8224  1.4114
 1792SOL    HW212617   2.542  12.314  10.555  2.2899  0.4953 -0.3592
 1793SOL     OW12618   0.294   6.480   7.306 -0.6349  0.4698 -0.1671
 1793SOL    HW112619   0.255   6.548   7.251 -0.4946 -0.0296 -0.8939
 1793SOL    HW212620   0.380   6.515   7.329 -1.0532  1.0882  0.5260
 1794SOL     OW12621   1.839   5.743   6.470  0.3302  0.0007 -0.3434
 1794SOL    HW112622   1.892   5.774   6.543  1.0448  0.7848 -1.1757
 1794SOL    HW212623   1.876   5.658   6.448  1.3002  0.5595 -0.9432
 1795SOL     OW12624  11.497  10.217   1.784 -0.3826  0.7122  0.5558
 1795SOL    HW112625  11.558  10.153   1.747 -0.1211  0.1155  1.9755
 1795SOL    HW212626  11.416  10.168   1.799 -0.6082  1.0409  0.4369
 1796SOL     OW12627   7.734   6.974   5.263  0.2508  0.6529 -0.4199
 1796SOL    HW112628   7.775   7.003   5.344 -0.6838 -0.6136  0.5515
 1796SOL    HW212629   7.772   6.888   5.246 -0.5991  0.2886 -0.5278
 1797SOL     OW12630   1.783   0.802   9.295 -0.6914 -0.7565 -0.9539
 1797SOL    HW112631   1.810   0.712   9.313 -0.4873 -0.6307 -0.6148
 1797SOL    HW212632   1.782   0.844   9.381 -0.5763 -0.3795 -1.1347
 1798SOL     OW12633   4.283  12.300   5.550  0.5187 -0.3748  0.2162
 1798SOL    HW112634   4.256  12.382   5.591  2.4430  0.3874  0.0901
 1798SOL    HW212635   4.228  12.292   5.472  0.6128  1.0612 -0.0276
 1799SOL     OW12636   6.188   0.513  12.669 -0.3316 -0.1240 -0.2922
 1799SOL    HW112637   6.260   0.456  12.641 -0.2366 -0.1184 -0.0621
 1799SOL    HW212638   6.222   0.602  12.658 -0.7890 -0.0858 -1.4838
 1800SOL     OW12639   1.371   2.404   0.893 -0.4263 -0.0561 -0.0281
 1800SOL    HW112640   1.396   2.328   0.840 -0.4857  1.1510 -1.8465
 1800SOL    HW212641   1.432   2.473   0.866 -2.3449  1.4436 -0.7119
 1801SOL     OW12642  11.765  12.658  12.616  0.1225  0.5724 -0.6800
 1801SOL    HW112643  11.758  12.744  12.657  1.5070  0.2669  0.2584
 1801SOL    HW212644  11.717  12.600  12.676 -0.1655  0.5665 -0.9165
 1802SOL     OW12645   8.975   2.019  11.132  0.7743 -0.3706 -0.3404
 1802SOL    HW112646   9.038   2.084  11.162  1.0367 -0.2632 -1.1076
 1802SOL    HW212647   8.910   2.014  11.202  0.8299  0.6046 -0.2136
 1803SOL     OW12648  10.564   0.245   6.383  0.5891  0.5641 -0.0088
 1803SOL    HW112649  10.614   0.183   6.329 -1.8253 -1.0369 -0.5489
 1803SOL    HW212650  10.534   0.193   6.457 -1.7992  0.9180 -0.6572
 1804SOL     OW12651   6.234   4.130   7.430 -0.1920  0.3957 -0.1822
 1804SOL    HW112652   6.217   4.096   7.342 -0.3954 -0.7346  0.2736
 1804SOL    HW212653   6.154   4.177   7.453  0.5041  2.2021 -1.2507
 1805SOL     OW12654  10.429   5.945   0.641  0.0535  0.2079  0.0836
 1805SOL    HW112655  10.372   6.021   0.647  1.1430  1.0134  0.5161
 1805SOL    HW212656  10.470   5.938   0.727  2.8368  1.4648 -1.0155
 1806SOL     OW12657  10.784   2.480   1.601  0.2358  0.3413 -0.1064
 1806SOL    HW112658  10.760   2.519   1.685 -0.0410  1.6471 -0.7630
 1806SOL    HW212659  10.880   2.479   1.603  0.2444  0.9223 -0.0153
 1807SOL     OW12660   1.665   0.724   2.276 -0.4564 -0.3301  0.0711
 1807SOL    HW112661   1.709   0.641   2.258 -0.5924 -0.3043 -0.3968
 1807SOL    HW212662   1.664   0.769   2.192  1.1111  0.8771  0.6677
 1808SOL     OW12663  11.563   7.416   2.971 -0.7638  0.1921  0.1079
 1808SOL    HW112664  11.578   7.469   3.049 -0.2038  0.4346 -0.1560
 1808SOL    HW212665  11.616   7.458   2.903 -1.1989 -0.0485 -0.3897
 1809SOL     OW12666   9.153   1.363   0.503 -0.0055 -0.1101 -0.5256
 1809SOL    HW112667   9.160   1.341   0.410 -2.0903  2.0170 -1.2862
 1809SOL    HW212668   9.180   1.455   0.508  1.6201 -0.6030  1.3068
 1810SOL     OW12669   2.252  10.792  12.203 -0.1853 -0.3350  0.6012
 1810SOL    HW112670   2.245  10.702  12.172  3.2025 -0.0968 -1.3228
 1810SOL    HW212671   2.198  10.842  12.142 -2.7387 -0.9708  2.1436
 1811SOL     OW12672   7.897   4.211   9.479  0.0375 -0.3478 -0.7216
 1811SOL    HW112673   7.839   4.135   9.473 -1.7618  1.0534 -2.2964
 1811SOL    HW212674   7.903   4.228   9.573 -1.7388 -0.8465 -0.4740
 1812SOL     OW12675  11.917   5.106   7.035 -0.4849 -0.2604 -0.5263
 1812SOL    HW112676  11.864   5.059   6.971  1.4930 -1.1427 -1.5945
 1812SOL    HW212677  12.007   5.095   7.005  0.4677 -0.0008  1.9516
 1813SOL     OW12678   6.948  12.320   1.176 -0.1205  0.1870  0.2994
 1813SOL    HW112679   7.016  12.382   1.151  0.5498 -0.3281  0.8054
 1813SOL    HW212680   6.933  12.268   1.097  1.4024 -0.8989  0.6835
 1814SOL     OW12681   1.047   6.190  12.035 -0.5228  0.5354  0.0271
 1814SOL    HW112682   1.001   6.209  12.116  1.0449  1.4540  0.7385
 1814SOL    HW212683   1.003   6.244  11.969 -1.4278  0.2199  0.3543
 1815SOL     OW12684   9.530   3.475   6.813  0.1241 -0.1667  0.4759
 1815SOL    HW112685   9.444   3.460   6.773  0.1932 -3.3469  1.2487
 1815SOL    HW212686   9.581   3.398   6.788  2.1488  0.7569  1.5810
 1816SOL     OW12687   3.185   6.014   2.099 -0.1324 -0.4104  0.3202
 1816SOL    HW112688   3.200   6.033   2.006 -1.0761 -0.1849  0.1992
 1816SOL    HW212689   3.150   6.095   2.135  0.5334 -0.3968  0.9575
 1817SOL     OW12690   4.130   9.821   5.483  0.4023 -0.2635  0.1483
 1817SOL    HW112691   4.052   9.769   5.507  0.1263  0.0260 -0.1138
 1817SOL    HW212692   4.180   9.827   5.565 -1.6181  2.5988  1.3478
 1818SOL     OW12693   8.527   8.808   1.857 -0.6997 -0.4182  0.0667
 1818SOL    HW112694   8.548   8.895   1.823  0.2719 -0.6190  0.1288
 1818SOL    HW212695   8.452   8.779   1.805 -1.7485  0.9040  0.7836
 1819SOL     OW12696   4.056  11.620   7.630 -0.0751  0.3896 -0.2095
 1819SOL    HW112697   3.971  11.606   7.588 -1.9317  0.8682  2.9937
 1819SOL    HW212698   4.074  11.713   7.616 -0.8463  0.6242  0.2483
 1820SOL     OW12699   3.446  10.335   2.273  0.1750 -0.3874  0.4323
 1820SOL    HW112700   3.438  10.429   2.283  1.7373 -0.1250 -0.3817
 1820SOL    HW212701   3.454  10.321   2.179  0.7156 -1.2423  0.5834
 1821SOL     OW12702   8.840   0.838   1.966 -0.4063 -0.1747 -0.5700
 1821SOL    HW112703   8.795   0.920   1.946 -1.6721 -1.3309 -2.8549
 1821SOL    HW212704   8.933   0.862   1.971 -0.6321  1.2329 -2.2730
 1822SOL     OW12705   8.129   0.147  10.674  0.0802  0.1213 -0.6117
 1822SOL    HW112706   8.059   0.112  10.728 -0.0526 -2.1983 -2.1574
 1822SOL    HW212707   8.092   0.228  10.637 -0.7238  0.3984  0.7488
 1823SOL     OW12708   7.471   9.953   5.974 -0.5996  0.0560  0.3480
 1823SOL    HW112709   7.505   9.883   5.919 -1.4464 -0.3488  0.3205
 1823SOL    HW212710   7.471   9.916   6.063  2.1964  1.2229  0.9259
 1824SOL     OW12711   6.861   9.113   6.811 -0.3144 -0.4367  0.3052
 1824SOL    HW112712   6.906   9.166   6.878  2.3426  0.4803 -2.0407
 1824SOL    HW212713   6.923   9.044   6.789 -1.2576 -0.8965 -0.9972
 1825SOL     OW12714  12.230   4.976   3.336  0.1877  0.0607 -0.0696
 1825SOL    HW112715  12.288   5.050   3.320  1.5779 -0.8924  0.3180
 1825SOL    HW212716  12.144   5.015   3.349  0.5677  1.4598 -1.5015
 1826SOL     OW12717   9.135   4.002   0.965  0.3363  0.2938 -0.3487
 1826SOL    HW112718   9.227   4.000   0.990  0.1752 -0.0757  0.2538
 1826SOL    HW212719   9.088   3.994   1.048 -0.2145 -1.8135 -0.7998
 1827SOL     OW12720  11.971  12.350   4.900  0.1322 -0.7481 -0.8649
 1827SOL    HW112721  11.879  12.335   4.881 -0.6092  3.0650 -1.1758
 1827SOL    HW212722  11.995  12.426   4.846  2.1316  1.1777  2.3301
 1828SOL     OW12723   1.012   8.007  10.842 -0.0560 -0.1962 -0.0348
 1828SOL    HW112724   1.075   7.935  10.838  1.2087  0.9069 -0.7521
 1828SOL    HW212725   1.045   8.064  10.912 -1.2381 -0.4437  0.7667
 1829SOL     OW12726   8.518   1.010   4.900  0.2845  0.3592 -0.0830
 1829SOL    HW112727   8.571   0.931   4.892  0.0442 -0.0786  2.1310
 1829SOL    HW212728   8.539   1.045   4.987 -0.7352  1.9024 -0.4110
 1830SOL     OW12729   3.903   4.015   9.040  0.0424 -0.4327  0.2101
 1830SOL    HW112730   3.819   4.004   9.084 -1.1521 -0.6158 -1.9776
 1830SOL    HW212731   3.923   4.108   9.048  0.6957 -0.7017  2.4618
 1831SOL     OW12732   7.674  10.380   8.690  0.8176  0.3532  0.3847
 1831SOL    HW112733   7.723  10.307   8.650 -0.0820 -1.5869  2.5758
 1831SOL    HW212734   7.653  10.349   8.778 -0.4785  2.9285  1.0729
 1832SOL     OW12735   4.699   6.239   1.621  0.4844  0.3768  0.3442
 1832SOL    HW112736   4.773   6.299   1.617  0.2421  0.6631  0.1742
 1832SOL    HW212737   4.717   6.185   1.698 -0.3118  2.0069  1.7304
 1833SOL     OW12738   6.354  12.305  10.502  0.5567  0.3691 -0.0558
 1833SOL    HW112739   6.291  12.375  10.483  0.7295  0.4744 -0.2489
 1833SOL    HW212740   6.301  12.234  10.538  0.5028  0.9451  1.0324
 1834SOL     OW12741  11.962   1.669   9.495  0.1795 -0.0421 -0.0279
 1834SOL    HW112742  11.967   1.573   9.493  0.9941 -0.0124  0.3178
 1834SOL    HW212743  12.049   1.698   9.469  0.5732  0.5832  1.8478
 1835SOL     OW12744   3.239   4.979   8.188 -0.0207  0.1299  1.2000
 1835SOL    HW112745   3.323   4.942   8.160  0.2669  0.1068  2.0813
 1835SOL    HW212746   3.196   4.908   8.235 -0.3722  0.2679  1.0903
 1836SOL     OW12747   2.335   7.245   2.862 -0.0142  0.6821  0.3439
 1836SOL    HW112748   2.311   7.262   2.771 -2.1797  0.8563  0.8886
 1836SOL    HW212749   2.345   7.332   2.901  0.7225  0.6088  0.3359
 1837SOL     OW12750  11.290  11.015   5.577 -0.5152 -0.1951 -0.4384
 1837SOL    HW112751  11.292  10.928   5.617  0.3055 -0.6987 -1.5186
 1837SOL    HW212752  11.379  11.029   5.545 -0.8478  0.6832 -1.0207
 1838SOL     OW12753   2.183   9.288   3.675  0.2952 -0.8431 -1.0099
 1838SOL    HW112754   2.088   9.277   3.675  0.1828 -0.0681  0.3064
 1838SOL    HW212755   2.217   9.200   3.690 -0.2751 -0.8775  0.1736
 1839SOL     OW12756  10.011  11.030   4.732 -0.4210  0.5391  0.1725
 1839SOL    HW112757   9.948  11.102   4.730 -0.3047  0.8073  2.7148
 1839SOL    HW212758   9.999  10.990   4.818  1.9825 -0.2161  0.2200
 1840SOL     OW12759   1.291   2.104   5.662  0.1568  0.3725 -0.0960
 1840SOL    HW112760   1.238   2.179   5.688  0.7544  0.7148  0.1730
 1840SOL    HW212761   1.328   2.071   5.745  1.3155  0.8781 -0.3858
 1841SOL     OW12762   5.422   8.461   8.876  0.1122 -0.3810  0.0121
 1841SOL    HW112763   5.398   8.514   8.800  1.1811 -2.0116 -1.5247
 1841SOL    HW212764   5.468   8.522   8.934  0.4619  0.5937 -1.2463
 1842SOL     OW12765   7.984  10.503   6.251 -0.5716  0.4622 -0.2409
 1842SOL    HW112766   8.008  10.421   6.209 -0.8718  0.8209 -1.1250
 1842SOL    HW212767   8.047  10.567   6.216 -1.9329  1.1344 -1.5611
 1843SOL     OW12768   8.609   5.615   8.591  0.6249  0.0318 -0.1137
 1843SOL    HW112769   8.526   5.570   8.579  0.6651 -0.0965  0.0857
 1843SOL    HW212770   8.654   5.565   8.659  1.1038 -0.2288 -0.6245
 1844SOL     OW12771   1.846   8.026   1.176  0.3832 -0.4500 -0.0554
 1844SOL    HW112772   1.898   8.106   1.180 -0.1079 -0.0839 -0.8080
 1844SOL    HW212773   1.756   8.057   1.167 -0.1505 -1.0278  2.3312
 1845SOL     OW12774   1.232   6.727  10.710  0.5172  0.3130  0.2954
 1845SOL    HW112775   1.189   6.787  10.649  0.0846  0.7821  1.0427
 1845SOL    HW212776   1.298   6.781  10.754  1.3613 -0.2155 -0.3007
 1846SOL     OW12777   3.445   0.383   0.053 -0.2856  0.6368  0.3807
 1846SOL    HW112778   3.530   0.341   0.066 -0.6724  0.2515  1.7919
 1846SOL    HW212779   3.384   0.331   0.105 -1.1149  1.7936  0.6045
 1847SOL     OW12780  11.849   0.991   0.456  0.1392  0.0372 -0.5785
 1847SOL    HW112781  11.860   1.075   0.500 -1.1771  0.3418 -0.7895
 1847SOL    HW212782  11.821   0.931   0.525 -0.8013  0.2375 -0.7853
 1848SOL     OW12783   0.205   0.876   8.532 -0.1504  0.0766  0.3788
 1848SOL    HW112784   0.193   0.786   8.562  1.5854  0.4291  2.3385
 1848SOL    HW212785   0.246   0.867   8.446  0.0955 -1.0018  0.5873
 1849SOL     OW12786  12.191  12.518   5.888 -0.3818  0.0783 -0.5042
 1849SOL    HW112787  12.201  12.443   5.946  1.5235  1.4282  0.9990
 1849SOL    HW212788  12.178  12.479   5.801  1.4780 -2.0157  0.0707
 1850SOL     OW12789  12.081   9.874   1.247 -0.9655  0.2771  0.6273
 1850SOL    HW112790  12.085   9.779   1.244 -0.5544  0.3000  0.4859
 1850SOL    HW212791  12.148   9.904   1.185  0.5129  0.6769  2.3572
 1851SOL     OW12792   7.752  11.829   0.879  0.0380 -0.2285 -0.1192
 1851SOL    HW112793   7.721  11.850   0.791 -1.1073 -1.1617  0.0349
 1851SOL    HW212794   7.723  11.903   0.933 -0.3509 -0.2431 -0.3041
 1852SOL     OW12795   5.077   8.498   4.181  0.4637  0.5693  0.3271
 1852SOL    HW112796   5.127   8.487   4.262  0.0571  0.5273  0.5805
 1852SOL    HW212797   5.000   8.443   4.193  0.0849  1.0537  0.1785
 1853SOL     OW12798  11.065   6.607   2.218 -0.2913  0.2094  0.1857
 1853SOL    HW112799  11.130   6.541   2.195 -1.0930 -0.2934 -0.7217
 1853SOL    HW212800  11.010   6.565   2.284 -0.4578  0.1746  0.0251
 1854SOL     OW12801   2.313   8.186   8.746 -0.7469 -0.1401  0.0094
 1854SOL    HW112802   2.274   8.272   8.733 -1.0687 -0.0839  1.2215
 1854SOL    HW212803   2.298   8.140   8.663 -1.2621  0.7020 -0.3736
 1855SOL     OW12804   6.439  12.024   2.893 -0.4533  0.1287  0.2198
 1855SOL    HW112805   6.496  12.035   2.817  0.9088 -1.2158  0.9864
 1855SOL    HW212806   6.416  11.931   2.892  0.8524 -0.2695  2.2647
 1856SOL     OW12807   3.249  10.331   1.452  0.5146  0.1584  0.1580
 1856SOL    HW112808   3.261  10.328   1.357  0.2529 -0.6715  0.1439
 1856SOL    HW212809   3.336  10.350   1.486  0.5579  0.7416 -0.2555
 1857SOL     OW12810   6.591   1.431   8.628  0.1640 -0.1968 -0.3667
 1857SOL    HW112811   6.651   1.362   8.600 -0.6343 -0.8041 -0.6315
 1857SOL    HW212812   6.596   1.497   8.558  2.1762  0.8386  0.6810
 1858SOL     OW12813   2.387   1.439   0.448 -0.1832 -0.2859 -0.3555
 1858SOL    HW112814   2.415   1.375   0.383  1.6790  0.2229 -0.1093
 1858SOL    HW212815   2.391   1.392   0.531 -0.5018 -0.3264 -0.3600
 1859SOL     OW12816   7.400   0.539   4.524  0.0086 -0.9830  0.4378
 1859SOL    HW112817   7.424   0.517   4.614  1.1244 -0.8133  0.1947
 1859SOL    HW212818   7.483   0.548   4.478 -0.5398 -0.8301 -0.5623
 1860SOL     OW12819   3.764  10.084  12.060 -0.8207  0.0741  0.0790
 1860SOL    HW112820   3.678  10.042  12.056 -1.2190  0.9556 -1.1481
 1860SOL    HW212821   3.826  10.013  12.048 -1.4810 -0.2302 -1.8715
 1861SOL     OW12822   3.090   5.585   9.313  0.2226 -0.1723 -0.3202
 1861SOL    HW112823   3.118   5.664   9.360  1.0518 -0.5490 -0.1619
 1861SOL    HW212824   3.092   5.611   9.221  0.3369  0.0447 -0.2601
 1862SOL     OW12825   6.971  11.820  10.859 -0.5333 -0.2236 -0.0073
 1862SOL    HW112826   6.922  11.740  10.840  0.7337 -0.8704 -0.6277
 1862SOL    HW212827   7.017  11.840  10.777  1.0384 -0.2217  0.8371
 1863SOL     OW12828  12.076  11.532  10.473 -0.1103 -0.5540 -0.6815
 1863SOL    HW112829  12.166  11.563  10.462 -0.6910  1.5734 -0.0634
 1863SOL    HW212830  12.074  11.493  10.560  0.1737 -0.4622 -0.6330
 1864SOL     OW12831   9.060  12.347   6.729 -0.2666  0.3948 -0.6483
 1864SOL    HW112832   9.027  12.261   6.755 -0.2987  0.5624 -0.1204
 1864SOL    HW212833   9.086  12.389   6.811  1.6947  0.1057 -1.0536
 1865SOL     OW12834   5.424   0.950   3.934 -0.1142  0.2779 -0.0367
 1865SOL    HW112835   5.362   0.954   3.861  1.1432  1.1009 -1.0958
 1865SOL    HW212836   5.499   1.001   3.905  1.6916 -1.8479  0.6105
 1866SOL     OW12837   2.434   4.112  10.345 -0.0755 -0.2666  0.2420
 1866SOL    HW112838   2.377   4.062  10.404 -0.8107  0.5113  0.2134
 1866SOL    HW212839   2.426   4.203  10.376  1.2384 -0.1577  0.2996
 1867SOL     OW12840   7.200  10.834   7.420 -0.3242 -0.7671  0.2391
 1867SOL    HW112841   7.253  10.913   7.422 -1.7483  0.2406 -0.4589
 1867SOL    HW212842   7.261  10.765   7.393  1.1038 -0.0914  1.5647
 1868SOL     OW12843   8.904   8.892   2.710  0.3683 -0.6467 -0.3069
 1868SOL    HW112844   8.914   8.917   2.618 -1.2271  0.3684 -0.2538
 1868SOL    HW212845   8.811   8.909   2.729  0.5733 -1.2259  1.3830
 1869SOL     OW12846   2.703   4.693   5.145 -0.1325  0.0414 -0.1960
 1869SOL    HW112847   2.758   4.616   5.158  1.0590  0.8823 -0.0092
 1869SOL    HW212848   2.706   4.739   5.229  0.4828  1.0821 -0.7681
 1870SOL     OW12849   0.549   3.849   6.138  0.0869  0.1065 -0.4928
 1870SOL    HW112850   0.543   3.756   6.162  0.2216  0.0258 -0.7586
 1870SOL    HW212851   0.492   3.894   6.200 -1.0093 -0.3044 -1.1748
 1871SOL     OW12852   6.107  11.671   1.060 -0.1803 -0.1935  0.2781
 1871SOL    HW112853   6.032  11.612   1.061 -0.2573 -0.0952  1.0259
 1871SOL    HW212854   6.077  11.748   1.012 -1.0099  0.3914  1.6674
 1872SOL     OW12855   5.276  12.392   4.284  0.4432  0.2258  0.1837
 1872SOL    HW112856   5.245  12.400   4.194  1.1837  0.0873 -0.0848
 1872SOL    HW212857   5.363  12.432   4.284 -0.0343  1.3395  1.1151
 1873SOL     OW12858   6.217   9.068  12.353 -0.3493 -0.2592  0.0241
 1873SOL    HW112859   6.288   9.091  12.292  0.1977 -0.8157  0.4383
 1873SOL    HW212860   6.260   9.014  12.420 -0.5304  1.8472  1.9632
 1874SOL     OW12861   5.205  11.344   4.716 -0.0691  0.5429 -0.0739
 1874SOL    HW112862   5.217  11.249   4.713  1.5278  0.7321 -0.8279
 1874SOL    HW212863   5.230  11.368   4.806  0.4842  0.3460 -0.1690
 1875SOL     OW12864   9.293   9.064  10.275 -0.4251  0.0541 -0.2883
 1875SOL    HW112865   9.319   9.013  10.198 -2.0207 -1.1246 -0.1046
 1875SOL    HW212866   9.366   9.053  10.336 -0.7336 -2.1894 -0.2177
 1876SOL     OW12867   0.160   2.901   5.096 -0.3755  0.0269  0.4873
 1876SOL    HW112868   0.236   2.854   5.131  0.4405 -0.9922 -2.3702
 1876SOL    HW212869   0.165   2.987   5.137  3.2006  0.4937 -0.5733
 1877SOL     OW12870   8.492  11.919   9.539  0.6130 -0.8406  0.2887
 1877SOL    HW112871   8.436  11.841   9.542 -1.1548  0.3631  0.5872
 1877SOL    HW212872   8.445  11.984   9.591  2.2808  0.2917  0.4658
 1878SOL     OW12873   1.710   1.861  11.913 -0.5854 -0.0240 -0.1565
 1878SOL    HW112874   1.736   1.922  11.844  1.7217 -0.3679  0.2925
 1878SOL    HW212875   1.694   1.916  11.990  1.8540  0.1325  0.3539
 1879SOL     OW12876  10.656   9.889   7.290 -0.1996 -0.2787  0.1302
 1879SOL    HW112877  10.719   9.936   7.345 -0.4270  0.4197 -0.2007
 1879SOL    HW212878  10.608   9.833   7.352  0.3716 -0.4070  0.4631
 1880SOL     OW12879   9.270   8.198   6.151 -0.0387 -0.3718 -0.8145
 1880SOL    HW112880   9.234   8.226   6.236  0.0159  1.2715 -1.3020
 1880SOL    HW212881   9.216   8.243   6.086  1.7163  0.7119 -1.6035
 1881SOL     OW12882  10.295   1.097  10.444  0.2818  0.3044  0.0483
 1881SOL    HW112883  10.284   1.012  10.487 -0.6895  0.6667  0.5430
 1881SOL    HW212884  10.385   1.096  10.413  0.0424 -1.2595 -0.7113
 1882SOL     OW12885  12.338   1.051  11.106  0.1250  0.3833 -0.1254
 1882SOL    HW112886  12.377   1.124  11.153  0.4196 -0.0203  0.2684
 1882SOL    HW212887  12.276   1.091  11.044  1.3083  1.0435 -0.9041
 1883SOL     OW12888   5.802  12.600   4.240  0.1438 -0.2530 -0.3820
 1883SOL    HW112889   5.814  12.673   4.179  0.9205 -0.7090 -0.7948
 1883SOL    HW212890   5.856  12.529   4.203  1.4835 -0.2086  1.3844
 1884SOL     OW12891  11.403   5.001   9.283  0.0703  0.0961  0.3778
 1884SOL    HW112892  11.383   4.907   9.279  0.9174 -0.0518 -0.9020
 1884SOL    HW212893  11.378   5.027   9.372 -2.8257 -0.7247 -0.0667
 1885SOL     OW12894   2.846   1.876   7.198  0.4219 -0.0381 -0.6199
 1885SOL    HW112895   2.783   1.857   7.129 -0.6243 -1.9214  0.7575
 1885SOL    HW212896   2.851   1.972   7.201 -1.9411  0.1486 -1.1632
 1886SOL     OW12897  12.215   2.860   5.928 -0.2338  0.4227 -0.3894
 1886SOL    HW112898  12.202   2.912   5.849 -3.0115 -1.7326 -1.5164
 1886SOL    HW212899  12.301   2.820   5.917  0.0104  1.2446 -1.6094
 1887SOL     OW12900   9.768  11.024   1.537  0.7222  0.1135 -0.7488
 1887SOL    HW112901   9.818  11.065   1.608  0.8664  2.2682 -1.9803
 1887SOL    HW212902   9.692  11.081   1.525 -0.7337 -1.7151 -0.5892
 1888SOL     OW12903   8.000   3.336   9.637 -0.1805  0.0585 -0.6429
 1888SOL    HW112904   7.921   3.350   9.689  0.3101 -1.1809  0.4827
 1888SOL    HW212905   7.970   3.291   9.558 -0.6932  0.4089 -0.6560
 1889SOL     OW12906   8.835   4.857   5.667  0.1587  0.2535  0.4071
 1889SOL    HW112907   8.818   4.874   5.760  1.7959 -1.2278  1.0518
 1889SOL    HW212908   8.806   4.936   5.622  0.6022  1.5954  2.3501
 1890SOL     OW12909   1.314  11.274  11.645  0.1970  0.7772  0.0599
 1890SOL    HW112910   1.307  11.295  11.552 -0.6497 -0.3392 -0.1362
 1890SOL    HW212911   1.408  11.262  11.659  0.1333 -2.6124 -1.4982
 1891SOL     OW12912   2.615   0.694   6.142 -0.9782 -0.1448  0.0521
 1891SOL    HW112913   2.573   0.658   6.064 -1.3538  1.0506 -0.3138
 1891SOL    HW212914   2.573   0.779   6.155 -0.2833  0.0638  1.0316
 1892SOL     OW12915   4.969   3.843   8.761 -0.4673 -0.3783  0.1639
 1892SOL    HW112916   5.041   3.785   8.789  0.3699 -0.9086 -2.7175
 1892SOL    HW212917   5.011   3.928   8.746  0.0945 -1.1144 -3.2155
 1893SOL     OW12918   5.330   3.115   0.447 -0.6768 -0.4072 -0.1071
 1893SOL    HW112919   5.265   3.051   0.475 -1.0197  0.8227  2.1781
 1893SOL    HW212920   5.282   3.197   0.441  0.6897  0.7146  2.4889
 1894SOL     OW12921   2.698   8.630  12.443  0.8328  0.5062  0.2328
 1894SOL    HW112922   2.718   8.692  12.513 -0.3635  1.9035 -0.5907
 1894SOL    HW212923   2.724   8.675  12.363  0.1407 -0.1364 -0.3705
 1895SOL     OW12924   9.787   4.777   0.526  0.3546  0.1716  0.0427
 1895SOL    HW112925   9.723   4.737   0.584 -0.5277 -0.6441 -1.4291
 1895SOL    HW212926   9.854   4.710   0.513  0.6975  0.4535  0.3262
 1896SOL     OW12927  11.028   4.452  10.034 -0.1516 -0.6304 -0.3287
 1896SOL    HW112928  11.035   4.396  10.112 -0.1379 -2.9140 -1.8941
 1896SOL    HW212929  11.037   4.541  10.069  3.2012 -1.6409  1.9194
 1897SOL     OW12930   2.116   8.610   8.120  0.1053  0.1401  0.0160
 1897SOL    HW112931   2.022   8.616   8.138  0.0750 -0.3824  0.0430
 1897SOL    HW212932   2.151   8.555   8.190 -0.1678 -2.7274 -1.9244
 1898SOL     OW12933   3.763   3.815   3.753 -0.9425  0.6798  0.0990
 1898SOL    HW112934   3.827   3.864   3.805 -0.6181 -0.0332  0.3748
 1898SOL    HW212935   3.682   3.865   3.764 -0.3617  1.8326 -0.5937
 1899SOL     OW12936   4.202  10.422   4.339  0.0944 -0.0915 -0.2822
 1899SOL    HW112937   4.296  10.441   4.350 -0.0582  0.3284  0.3335
 1899SOL    HW212938   4.166  10.503   4.304 -0.0325 -0.2737 -0.5727
 1900SOL     OW12939   0.396   8.903   0.576 -0.0074 -0.7597  0.1308
 1900SOL    HW112940   0.377   8.840   0.507  0.7301 -0.7753 -0.0612
 1900SOL    HW212941   0.490   8.894   0.592  0.0938  0.2378  0.1512
 1901SOL     OW12942   0.700   5.867   3.060  0.3013  0.2281 -0.7385
 1901SOL    HW112943   0.615   5.851   3.101  1.1779 -2.0212  0.3743
 1901SOL    HW212944   0.717   5.787   3.010  1.9682  0.4433 -0.5492
 1902SOL     OW12945  11.787   6.202   8.313 -0.1767 -0.1884  0.0187
 1902SOL    HW112946  11.851   6.150   8.264  0.4688  0.9267 -0.3573
 1902SOL    HW212947  11.782   6.285   8.266 -3.9726 -1.1300 -1.6302
 1903SOL     OW12948   1.758   8.285   2.794 -0.2169 -0.3414  0.2944
 1903SOL    HW112949   1.676   8.334   2.804  0.2998  0.4478  0.7096
 1903SOL    HW212950   1.817   8.347   2.751 -0.0967 -1.2022 -0.8325
 1904SOL     OW12951   1.596   5.858   9.361  0.0178  0.4047  0.2215
 1904SOL    HW112952   1.549   5.886   9.439 -1.2081 -0.5758 -0.1263
 1904SOL    HW212953   1.578   5.764   9.355  1.3876  0.1473 -0.3806
 1905SOL     OW12954   5.134   4.804   6.013  0.0417  0.4378 -0.1862
 1905SOL    HW112955   5.156   4.869   5.946  0.6878  0.2134 -0.2046
 1905SOL    HW212956   5.156   4.847   6.095 -0.8887  0.7663 -0.1043
 1906SOL     OW12957  10.948   7.999   9.365 -0.5901 -0.5464 -0.2957
 1906SOL    HW112958  10.883   7.955   9.310 -1.2281 -0.3830  0.3202
 1906SOL    HW212959  10.900   8.023   9.445 -0.2777  1.2945 -0.6142
 1907SOL     OW12960   2.717   5.380  12.172 -0.3081 -0.0016  0.1906
 1907SOL    HW112961   2.699   5.367  12.265 -3.6360  1.9860 -0.0178
 1907SOL    HW212962   2.771   5.305  12.148 -0.7487 -1.5167  3.3329
 1908SOL     OW12963   2.349  12.406   3.419  0.1081  0.1029 -0.2791
 1908SOL    HW112964   2.324  12.345   3.489  1.0003 -1.3810 -1.1812
 1908SOL    HW212965   2.356  12.491   3.463 -2.7147 -0.0574  0.7373
 1909SOL     OW12966   0.448   7.389  12.521 -0.2798  0.2935  0.0635
 1909SOL    HW112967   0.473   7.374  12.430 -1.3927  1.7823 -0.5088
 1909SOL    HW212968   0.530   7.411  12.565 -0.2096  3.7087 -1.4890
 1910SOL     OW12969  12.276   2.870   5.182 -0.0889 -0.3072 -0.2889
 1910SOL    HW112970  12.352   2.868   5.123 -0.1154  0.2422 -0.3476
 1910SOL    HW212971  12.312   2.852   5.269 -0.0899 -1.4297 -0.5013
 1911SOL     OW12972   3.307   0.821   3.756 -0.6158  0.5057 -0.2610
 1911SOL    HW112973   3.266   0.812   3.842 -0.8844 -0.8042 -0.5034
 1911SOL    HW212974   3.355   0.904   3.761  0.2866 -0.0629  1.5418
 1912SOL     OW12975   3.786   4.998   7.180  0.0693 -0.1604  0.6467
 1912SOL    HW112976   3.781   4.976   7.273  1.4756 -2.7377  0.1929
 1912SOL    HW212977   3.878   5.019   7.164 -0.1639  0.3048 -0.1488
 1913SOL     OW12978   7.792  10.467  11.853 -0.4177 -0.0687 -0.0089
 1913SOL    HW112979   7.865  10.406  11.861  0.2921  0.7956  0.1750
 1913SOL    HW212980   7.809  10.534  11.919 -3.2269 -1.6751  2.6246
 1914SOL     OW12981   2.741   1.075  12.037  0.6471  0.1392 -0.5181
 1914SOL    HW112982   2.818   1.105  11.988  0.8978 -2.6833 -2.0241
 1914SOL    HW212983   2.679   1.047  11.970  0.0223 -1.6087  0.7390
 1915SOL     OW12984   7.952   8.179  12.235 -0.1419 -0.1332 -0.2545
 1915SOL    HW112985   7.856   8.179  12.243 -0.1878  0.4433 -0.7560
 1915SOL    HW212986   7.976   8.271  12.230  0.3456 -0.2972 -1.1954
 1916SOL     OW12987  11.507   8.683   4.746 -0.0704 -0.5395  0.0983
 1916SOL    HW112988  11.537   8.608   4.696  1.6380  0.2904 -0.2011
 1916SOL    HW212989  11.415   8.665   4.765 -0.0088 -2.1259 -0.9860
 1917SOL     OW12990  11.678   4.840   9.049  0.1854 -0.5405 -0.8965
 1917SOL    HW112991  11.612   4.775   9.027 -0.6982  0.1802 -0.4664
 1917SOL    HW212992  11.674   4.903   8.976  1.2829 -1.1287 -1.4925
 1918SOL     OW12993   4.527   0.760   0.691  0.1378  0.2932 -0.3149
 1918SOL    HW112994   4.588   0.814   0.642  1.0479  2.9605  3.3562
 1918SOL    HW212995   4.444   0.769   0.645  1.2976  0.9975 -2.3865
 1919SOL     OW12996   8.048   0.944   4.128  0.2406  0.0886  0.0396
 1919SOL    HW112997   7.998   1.022   4.104  2.6830  1.8908  0.4291
 1919SOL    HW212998   8.017   0.876   4.068 -0.3849  1.9628 -1.8897
 1920SOL     OW12999   4.580   5.069   6.600  0.0802  0.0379  0.2809
 1920SOL    HW113000   4.509   5.093   6.660 -2.2423  0.2176 -2.3692
 1920SOL    HW213001   4.585   4.974   6.605  1.0597  0.1182  1.8608
 1921SOL     OW13002   7.221   6.641   3.675  0.2304  0.1978  0.5673
 1921SOL    HW113003   7.206   6.548   3.660  2.6207 -0.2533  0.6472
 1921SOL    HW213004   7.197   6.683   3.592  1.0856 -0.7400 -0.1750
 1922SOL     OW13005  12.351   9.978   6.078 -0.1352  0.0261  0.5317
 1922SOL    HW113006  12.269  10.002   6.035 -0.3866 -1.3095  0.2371
 1922SOL    HW213007  12.336   9.997   6.171 -0.1050  1.5330  0.2569
 1923SOL     OW13008  10.893   7.430   6.264  0.3112  0.2414  0.3439
 1923SOL    HW113009  10.913   7.522   6.247 -0.0322  0.7105  2.2720
 1923SOL    HW213010  10.921   7.415   6.354 -0.7786 -1.2057  0.4863
 1924SOL     OW13011   5.162   3.409   3.477 -0.2649  0.5434 -0.1604
 1924SOL    HW113012   5.162   3.423   3.572  1.8076  0.2016 -0.0543
 1924SOL    HW213013   5.171   3.314   3.467  0.2342  0.6384 -0.6702
 1925SOL     OW13014   0.085   1.559   0.386 -0.1236 -0.3736  0.0719
 1925SOL    HW113015   0.092   1.582   0.294 -1.2119 -0.3329 -0.0167
 1925SOL    HW213016   0.140   1.481   0.396 -1.6197 -1.6466 -1.0903
 1926SOL     OW13017   2.486   6.679  11.692  0.0151  0.6195 -0.1300
 1926SOL    HW113018   2.476   6.765  11.732 -1.4464  1.2211 -1.6606
 1926SOL    HW213019   2.568   6.685  11.642  0.8397  0.4970  1.1756
 1927SOL     OW13020  11.662  11.981  12.248  0.5430 -0.0063  0.0003
 1927SOL    HW113021  11.688  12.003  12.159  0.7222  1.1558  0.3095
 1927SOL    HW213022  11.730  12.020  12.303  0.4314 -0.6986  0.6461
 1928SOL     OW13023   0.539  12.032   8.483 -0.3493 -0.1970  0.8387
 1928SOL    HW113024   0.514  11.951   8.528 -2.4411  0.2277  0.5587
 1928SOL    HW213025   0.558  12.094   8.553  2.6990 -1.2259  1.0805
 1929SOL     OW13026  10.269   4.295  11.375 -0.5321 -0.3327  0.1940
 1929SOL    HW113027  10.292   4.247  11.295  0.1330  0.1037  0.1132
 1929SOL    HW213028  10.256   4.227  11.441  0.0685 -0.6455 -0.0029
 1930SOL     OW13029  11.993   0.070   5.388  0.7180  0.0121  0.0121
 1930SOL    HW113030  11.994   0.115   5.472 -0.8015  0.5881 -0.2366
 1930SOL    HW213031  12.024   0.136   5.325 -1.4564  0.7906 -0.3441
 1931SOL     OW13032   3.391  10.479  12.534 -0.5367 -0.1222  0.3025
 1931SOL    HW113033   3.382  10.572  12.554 -2.2099 -0.1763 -0.0858
 1931SOL    HW213034   3.346  10.434  12.605  0.2247 -0.6609  0.4700
 1932SOL     OW13035   5.935   1.052  10.132 -0.3527 -0.3109 -0.1642
 1932SOL    HW113036   5.855   1.048  10.185  0.9246 -0.2221  1.8974
 1932SOL    HW213037   5.907   1.094  10.050 -1.4930  5.3065  2.5458
 1933SOL     OW13038   5.038   7.966   7.424  0.0414 -0.0365  0.0885
 1933SOL    HW113039   5.017   7.875   7.444 -0.4541  0.1722  0.5183
 1933SOL    HW213040   5.129   7.976   7.452 -0.5987  0.2326  2.2503
 1934SOL     OW13041   4.093   0.733   9.133 -0.0691  0.0634  0.2642
 1934SOL    HW113042   4.007   0.691   9.135 -0.3974  0.7459  1.3397
 1934SOL    HW213043   4.145   0.686   9.198 -0.7096  1.7966  2.1318
 1935SOL     OW13044   1.309   6.487   6.535 -0.3094  0.1962  0.4710
 1935SOL    HW113045   1.250   6.548   6.490 -0.3759 -0.2773 -0.1000
 1935SOL    HW213046   1.252   6.435   6.591 -0.2998  0.4186  0.6872
 1936SOL     OW13047  12.328   5.318   4.625  0.3717 -0.0709  0.2449
 1936SOL    HW113048  12.290   5.237   4.589  0.3106  0.1703 -0.2361
 1936SOL    HW213049  12.348   5.296   4.716  0.7171 -0.7545  0.0135
 1937SOL     OW13050  11.612   4.397   4.500 -0.0439  0.2762 -0.0237
 1937SOL    HW113051  11.697   4.391   4.543 -0.5140  1.1905  1.0713
 1937SOL    HW213052  11.574   4.478   4.533 -0.5712  0.8728 -1.9321
 1938SOL     OW13053   7.787   3.307   2.343 -0.4084  0.0898  0.2946
 1938SOL    HW113054   7.881   3.290   2.345 -0.4897 -0.3997  0.1113
 1938SOL    HW213055   7.752   3.243   2.281 -0.9815 -0.3449  1.0527
 1939SOL     OW13056  10.889   1.359   2.036  0.3652  0.0688 -0.2507
 1939SOL    HW113057  10.846   1.442   2.055  0.9461  0.1907  0.6162
 1939SOL    HW213058  10.819   1.301   2.006 -0.0333  0.8839 -0.8960
 1940SOL     OW13059   3.210   9.275   1.976  0.1328  0.5684 -0.0740
 1940SOL    HW113060   3.141   9.210   1.961  1.2135 -0.6051 -0.0609
 1940SOL    HW213061   3.187   9.315   2.060  0.0248 -0.5404  0.4401
 1941SOL     OW13062  10.012   1.540   0.145 -0.4480  0.3116 -0.4248
 1941SOL    HW113063   9.918   1.526   0.155 -0.8568  2.6204 -0.5289
 1941SOL    HW213064  10.021   1.582   0.059  0.5341  1.2019  0.0889
 1942SOL     OW13065   5.229   9.043   6.704  0.3975 -0.2177  0.2570
 1942SOL    HW113066   5.190   9.114   6.755  0.4952  0.4652 -0.6051
 1942SOL    HW213067   5.154   8.989   6.677  0.1761  0.3542 -0.2827
 1943SOL     OW13068   9.728   9.698   3.359  0.0571  0.0343  0.8884
 1943SOL    HW113069   9.751   9.701   3.452  2.2786  0.3588  0.3845
 1943SOL    HW213070   9.796   9.749   3.316  0.0271 -1.4952 -1.0914
 1944SOL     OW13071   2.187   9.703   1.181  0.3523 -0.1109  0.3737
 1944SOL    HW113072   2.244   9.720   1.106  2.2905  3.0866  2.3530
 1944SOL    HW213073   2.196   9.609   1.197  2.6243 -0.2611 -1.2928
 1945SOL     OW13074   9.105  11.268   5.643  0.1977 -0.2327 -0.0394
 1945SOL    HW113075   9.151  11.189   5.616  0.6418  0.4980 -1.5452
 1945SOL    HW213076   9.115  11.328   5.569  0.4185  1.4693  1.2870
 1946SOL     OW13077   6.247   7.791   9.743  0.3198 -0.2396  0.3550
 1946SOL    HW113078   6.219   7.883   9.739  1.3836  0.0939  0.2200
 1946SOL    HW213079   6.342   7.796   9.748  0.2959 -1.2815  2.7820
 1947SOL     OW13080   8.442   4.553   4.147 -0.1615 -0.4427  0.8138
 1947SOL    HW113081   8.440   4.638   4.191 -0.9444 -0.4311  0.7645
 1947SOL    HW213082   8.370   4.557   4.084  0.3788 -0.8032  0.1643
 1948SOL     OW13083   7.831   3.844   4.666  0.3809  0.1827  0.1385
 1948SOL    HW113084   7.800   3.817   4.753 -2.5123  0.2813 -0.7480
 1948SOL    HW213085   7.888   3.919   4.683 -1.0894  0.9799  1.9169
 1949SOL     OW13086  11.225   4.705   7.016 -0.1401  0.1085 -0.0485
 1949SOL    HW113087  11.152   4.732   7.072 -1.5748  0.1800 -1.8607
 1949SOL    HW213088  11.194   4.625   6.973  1.5647 -0.8621  0.4461
 1950SOL     OW13089   5.071   7.781  10.423  0.6198  0.1125  0.1568
 1950SOL    HW113090   4.988   7.815  10.454  1.0929  0.8985  0.5802
 1950SOL    HW213091   5.137   7.836  10.465  1.3318  0.0191 -0.8056
 1951SOL     OW13092   5.581   1.486   1.057 -0.5888  0.1025  0.4543
 1951SOL    HW113093   5.502   1.540   1.060 -0.0530  1.0700 -1.3803
 1951SOL    HW213094   5.552   1.400   1.089 -3.3842 -0.6695 -3.4026
 1952SOL     OW13095   9.760   5.659   0.996  0.4853 -0.1476 -0.0248
 1952SOL    HW113096   9.696   5.632   0.930  1.0533  0.6287 -0.9116
 1952SOL    HW213097   9.717   5.640   1.080 -0.8424  0.2149 -0.5888
 1953SOL     OW13098   5.978   3.227   3.638  0.0146 -0.0962 -0.2441
 1953SOL    HW113099   6.025   3.144   3.652  1.5648  0.7918  0.0816
 1953SOL    HW213100   5.891   3.212   3.674  1.1947 -0.6473  2.6045
 1954SOL     OW13101   1.342   2.848  12.529 -0.1473 -0.2634 -0.1950
 1954SOL    HW113102   1.375   2.761  12.550  1.6539  0.3317 -0.3449
 1954SOL    HW213103   1.282   2.835  12.456  2.6612 -1.0871 -2.5230
 1955SOL     OW13104   5.089   7.942   6.557  0.0306 -0.1725 -0.4018
 1955SOL    HW113105   5.122   7.861   6.517  0.4390 -0.0930 -0.2365
 1955SOL    HW213106   5.158   8.007   6.540 -0.2363  0.1057 -0.4217
 1956SOL     OW13107  10.303   4.908   9.898 -0.7817  0.2010  0.6280
 1956SOL    HW113108  10.364   4.864   9.957  0.3263  0.6302 -0.1615
 1956SOL    HW213109  10.242   4.839   9.871 -0.2649 -0.3886  0.9368
 1957SOL     OW13110   5.531   0.853   7.917  0.5526  0.2718  0.1368
 1957SOL    HW113111   5.538   0.941   7.881  0.8644  0.1644 -0.0613
 1957SOL    HW213112   5.545   0.795   7.843 -1.5131  0.0331 -0.1365
 1958SOL     OW13113  12.490   2.924   8.736  0.1274  0.0974  0.6973
 1958SOL    HW113114  12.507   2.864   8.808  0.7315  0.5375  0.9340
 1958SOL    HW213115  12.577   2.944   8.701 -0.1547 -0.1135 -0.1615
 1959SOL     OW13116   6.308   7.061   7.726  0.1614  0.0727  0.1478
 1959SOL    HW113117   6.399   7.042   7.749  0.3167  1.8885  1.2129
 1959SOL    HW213118   6.256   7.015   7.792  0.3310 -0.4419 -0.0778
 1960SOL     OW13119   6.846   5.000   6.575  0.3995 -0.0806 -0.0941
 1960SOL    HW113120   6.864   4.981   6.667  0.5110  1.6815  0.2750
 1960SOL    HW213121   6.825   5.093   6.573 -1.5530 -0.4898 -1.5784
 1961SOL     OW13122   6.857   2.403  10.037  0.2430 -0.4747  0.0389
 1961SOL    HW113123   6.812   2.460   9.975  0.9750 -0.9163 -0.9311
 1961SOL    HW213124   6.809   2.414  10.119  0.5765  1.8129 -0.0046
 1962SOL     OW13125   4.945   0.030  11.478 -0.1630 -0.3658 -0.1045
 1962SOL    HW113126   4.960   0.078  11.559 -0.6986  0.8830 -0.7284
 1962SOL    HW213127   5.033   0.009  11.445  0.0558 -1.5197  1.1437
 1963SOL     OW13128   3.162  11.514   9.548 -0.0483  0.1162  0.2774
 1963SOL    HW113129   3.163  11.605   9.577 -0.6145  0.8465 -1.7903
 1963SOL    HW213130   3.071  11.497   9.525  0.4530 -0.1037 -1.7458
 1964SOL     OW13131  10.203   8.784   4.651  0.8629  0.3078 -0.2347
 1964SOL    HW113132  10.149   8.707   4.634  0.9638  0.7216 -3.0096
 1964SOL    HW213133  10.168   8.851   4.591  2.1994  1.6953  0.4757
 1965SOL     OW13134  10.763   7.220  12.412 -0.3519  0.1629 -0.1284
 1965SOL    HW113135  10.847   7.219  12.457 -0.0021  1.7690 -0.7015
 1965SOL    HW213136  10.717   7.143  12.447  0.6705  0.2208  1.4713
 1966SOL     OW13137   9.011   1.150   2.367  0.1065 -0.1647  0.1170
 1966SOL    HW113138   9.034   1.153   2.460 -0.6381 -1.6121  0.3787
 1966SOL    HW213139   9.090   1.118   2.323  0.0291 -0.7795  0.4248
 1967SOL     OW13140   6.607   5.264   2.659  0.0277 -0.4169 -0.1692
 1967SOL    HW113141   6.601   5.298   2.570  0.3578  0.0732 -0.0076
 1967SOL    HW213142   6.611   5.342   2.715  0.8717 -0.7101  0.2029
 1968SOL     OW13143  11.107   9.217  11.702  0.1906  0.2093 -0.6052
 1968SOL    HW113144  11.086   9.133  11.661 -1.4894  0.5636 -0.5573
 1968SOL    HW213145  11.198   9.233  11.678  0.6003 -1.6846 -0.4960
 1969SOL     OW13146   1.851   3.305   4.105  0.1488  0.0590 -0.4815
 1969SOL    HW113147   1.916   3.235   4.106  1.0428  0.8576  0.7900
 1969SOL    HW213148   1.813   3.301   4.017  0.7739 -1.4588 -0.7131
 1970SOL     OW13149   0.293   9.628  10.131 -0.7678  0.3521  0.3705
 1970SOL    HW113150   0.308   9.721  10.149 -0.3704  0.2073  0.8260
 1970SOL    HW213151   0.270   9.591  10.216 -0.5973 -0.0256  0.2536
 1971SOL     OW13152   1.213   7.685   1.611 -0.2138 -0.1865 -0.2771
 1971SOL    HW113153   1.145   7.702   1.546  0.4974  0.6775 -0.8150
 1971SOL    HW213154   1.254   7.603   1.582 -0.6808 -0.4425 -0.2299
 1972SOL     OW13155   0.870   1.482   1.501  0.3638  0.9433 -0.1460
 1972SOL    HW113156   0.899   1.407   1.450 -1.4961 -1.1423  1.7090
 1972SOL    HW213157   0.776   1.472   1.510  0.5280  1.1887  3.5610
 1973SOL     OW13158   2.654  10.510   4.140  0.6192  0.4481  0.0628
 1973SOL    HW113159   2.560  10.527   4.137  0.4399 -0.5592 -0.4691
 1973SOL    HW213160   2.667  10.437   4.079  1.6347  0.1102  0.6607
 1974SOL     OW13161  10.517   5.572   5.631  0.3718 -0.0271 -0.6544
 1974SOL    HW113162  10.437   5.623   5.621  0.3416  1.0760  3.4661
 1974SOL    HW213163  10.491   5.494   5.679  1.3314 -1.4008 -2.2222
 1975SOL     OW13164   0.410   9.336  11.933 -0.2650  0.3175 -0.1931
 1975SOL    HW113165   0.452   9.314  12.016  0.6732 -1.2784 -1.0510
 1975SOL    HW213166   0.482   9.361  11.875 -0.9306  1.6275 -0.4875
 1976SOL     OW13167   9.056  11.131   4.375  0.3380  0.6277  0.1916
 1976SOL    HW113168   9.054  11.152   4.282  1.8598  0.1070  0.0120
 1976SOL    HW213169   9.029  11.039   4.380 -0.1177  0.7691  0.2970
 1977SOL     OW13170   4.927  10.680   2.659  0.3345 -0.0761 -0.7196
 1977SOL    HW113171   4.887  10.767   2.656  1.0858  0.4024  1.2937
 1977SOL    HW213172   5.021  10.697   2.668  0.5405 -1.1054 -0.7824
 1978SOL     OW13173   5.042   8.550   6.037  0.5487  0.6107  0.1949
 1978SOL    HW113174   5.126   8.512   6.012 -0.0960 -0.8293  0.1585
 1978SOL    HW213175   5.018   8.605   5.963  0.1249 -1.2121 -1.0786
 1979SOL     OW13176  10.801   2.877   0.332  1.0482 -0.1707 -0.3202
 1979SOL    HW113177  10.707   2.877   0.312  0.5407 -1.8560  1.7725
 1979SOL    HW213178  10.816   2.960   0.377  0.3804 -0.2886  0.1264
 1980SOL     OW13179   6.149   2.730  11.192 -0.0122 -0.2627 -0.0186
 1980SOL    HW113180   6.082   2.748  11.258  0.1902  1.3012 -0.2067
 1980SOL    HW213181   6.118   2.773  11.113 -0.4820 -2.5149 -1.1405
 1981SOL     OW13182   9.385   1.979   6.455 -0.1985 -0.2204  0.4529
 1981SOL    HW113183   9.423   1.949   6.537 -0.5309 -0.2983  0.5765
 1981SOL    HW213184   9.293   1.994   6.474 -0.0590  0.8256  0.3836
 1982SOL     OW13185   3.874   1.159   4.302  0.3195 -0.0981 -0.2572
 1982SOL    HW113186   3.940   1.121   4.244 -0.1892 -1.0672 -0.2320
 1982SOL    HW213187   3.806   1.092   4.307 -0.0783  0.3634  0.7210
 1983SOL     OW13188   6.510  11.008   9.049  0.5467  0.0584  0.8467
 1983SOL    HW113189   6.421  10.974   9.036 -0.0050  1.2656  1.3391
 1983SOL    HW213190   6.530  11.054   8.967  0.8383 -0.4530  0.6277
 1984SOL     OW13191   1.124   3.814   8.558  0.0257  0.2504  0.1486
 1984SOL    HW113192   1.148   3.746   8.620 -0.5774  0.2238  0.3594
 1984SOL    HW213193   1.147   3.778   8.472 -1.1179 -0.5967  0.1800
 1985SOL     OW13194   3.164  11.863  12.682 -0.5857  0.2317 -0.0172
 1985SOL    HW113195   3.206  11.778  12.675  0.1746  0.6142 -0.1750
 1985SOL    HW213196   3.228  11.925  12.646 -0.6578  1.0108  1.1542
 1986SOL     OW13197   5.988   3.254   8.958 -0.4827 -0.1284 -0.2057
 1986SOL    HW113198   5.982   3.178   8.901 -1.1891 -0.9012  0.8863
 1986SOL    HW213199   6.066   3.301   8.927  0.1489 -1.4595 -0.6827
 1987SOL     OW13200   6.085   9.162  10.060  0.8277 -0.5778 -0.3437
 1987SOL    HW113201   6.123   9.247  10.085 -0.8754  1.2002 -3.3239
 1987SOL    HW213202   6.137   9.134   9.985 -0.9290 -0.2554 -1.7326
 1988SOL     OW13203   3.634   3.867  11.577  0.0620  0.1091 -0.2749
 1988SOL    HW113204   3.684   3.859  11.659  1.1302 -0.0438 -0.9156
 1988SOL    HW213205   3.697   3.904  11.515 -0.9430  0.8825 -0.8523
 1989SOL     OW13206   9.577   6.121   3.012 -0.1291  0.2407 -0.0016
 1989SOL    HW113207   9.492   6.078   3.020 -0.9932  1.6416 -1.1493
 1989SOL    HW213208   9.638   6.050   2.992 -1.1068 -0.7223  0.3075
 1990SOL     OW13209   3.605   3.142   7.241  0.3000  0.2861  0.2472
 1990SOL    HW113210   3.671   3.168   7.305 -1.9196 -0.4008  3.0062
 1990SOL    HW213211   3.632   3.186   7.160  2.2698  2.7354  2.0608
 1991SOL     OW13212   0.548   1.251   8.573  0.6342 -0.1612  0.2023
 1991SOL    HW113213   0.482   1.218   8.512  1.3064 -2.2168  0.5311
 1991SOL    HW213214   0.564   1.341   8.544 -1.1659 -0.1202 -0.8211
 1992SOL     OW13215   1.041   9.982   2.335 -0.0298 -0.2612 -0.0718
 1992SOL    HW113216   1.048  10.075   2.315 -0.1819 -0.7029 -2.6095
 1992SOL    HW213217   0.994   9.945   2.260  1.3840 -2.6084  0.0880
 1993SOL     OW13218   1.630   0.389  11.183 -0.0974 -0.3208 -0.0120
 1993SOL    HW113219   1.615   0.456  11.116 -0.0053 -0.6769 -0.3915
 1993SOL    HW213220   1.618   0.306  11.138  4.0075 -0.7486 -0.6942
 1994SOL     OW13221   0.134   3.168   3.866 -0.0571 -0.5651  0.8343
 1994SOL    HW113222   0.161   3.258   3.849 -0.5363 -0.2844  1.4903
 1994SOL    HW213223   0.069   3.148   3.799  0.9500 -0.8665 -0.0796
 1995SOL     OW13224   0.940   8.012   6.712  0.6062  0.6321  0.3004
 1995SOL    HW113225   0.868   8.063   6.749 -1.6795 -0.8024 -1.8750
 1995SOL    HW213226   0.976   8.069   6.643 -2.3491 -0.6413 -2.5587
 1996SOL     OW13227   7.138   9.565   6.752 -0.0475  0.0296  0.2916
 1996SOL    HW113228   7.179   9.646   6.722  2.9028 -1.0215  1.0863
 1996SOL    HW213229   7.205   9.498   6.738 -1.4346 -1.8261  1.9596
 1997SOL     OW13230   9.806   7.381   1.455  0.1051 -0.6351  0.3294
 1997SOL    HW113231   9.767   7.468   1.449 -0.0116 -0.7186 -0.1216
 1997SOL    HW213232   9.732   7.322   1.470  0.0944 -0.7465 -0.1410
 1998SOL     OW13233   0.902  10.663   0.059 -0.0754 -0.0484 -0.3270
 1998SOL    HW113234   0.975  10.724   0.052  0.2825 -0.5500 -1.1319
 1998SOL    HW213235   0.935  10.592   0.114 -0.5572  0.5501  0.7754
 1999SOL     OW13236   9.610   7.082   1.105  0.0217 -0.7369  0.7473
 1999SOL    HW113237   9.586   6.999   1.064 -0.6873 -0.3683  0.4041
 1999SOL    HW213238   9.594   7.068   1.198  2.8196 -2.0038  1.1393
 2000SOL     OW13239   0.087  12.230  10.923  0.3546  0.1244 -0.1816
 2000SOL    HW113240   0.168  12.266  10.887 -0.0522  1.1820 -0.0494
 2000SOL    HW213241   0.113  12.146  10.961  1.6999  1.1522  1.2632
 2001SOL     OW13242   7.298  12.233   0.987  0.0564 -0.1092 -0.1373
 2001SOL    HW113243   7.322  12.323   0.963 -1.7026  0.1296 -1.1715
 2001SOL    HW213244   7.260  12.196   0.907 -4.1732  0.0394  1.5423
 2002SOL     OW13245   5.462  10.034  11.686  0.2384 -0.0118  0.0257
 2002SOL    HW113246   5.392  10.098  11.698 -1.5835 -1.8029 -0.4657
 2002SOL    HW213247   5.417   9.956  11.652  2.2973 -1.6550  0.8863
 2003SOL     OW13248   1.862   1.867   7.734  0.5292 -0.4102  0.7400
 2003SOL    HW113249   1.874   1.910   7.649  1.6416 -0.4143  0.8819
 2003SOL    HW213250   1.898   1.780   7.721 -2.8882 -1.8919  0.0532
 2004SOL     OW13251   6.458  11.917  11.277  0.2952  0.1053  0.0134
 2004SOL    HW113252   6.409  11.994  11.248 -0.3761  0.0081  0.8513
 2004SOL    HW213253   6.432  11.906  11.369  0.4368 -1.0748 -0.0821
 2005SOL     OW13254   2.111   1.724   8.528  0.1336 -0.0041  0.0358
 2005SOL    HW113255   2.094   1.631   8.515 -0.7359  0.1617 -0.1004
 2005SOL    HW213256   2.108   1.735   8.623  0.4434 -0.1463  0.0641
 2006SOL     OW13257   2.705   1.257   0.350 -0.1016  0.2656  0.2709
 2006SOL    HW113258   2.729   1.343   0.385 -0.8781  0.0625  1.3297
 2006SOL    HW213259   2.747   1.254   0.264 -0.0009  1.6700  0.2513
 2007SOL     OW13260   4.317  10.171   3.183  0.5407 -0.4019 -0.1673
 2007SOL    HW113261   4.226  10.142   3.192  0.5651 -0.4709 -0.1362
 2007SOL    HW213262   4.339  10.207   3.269  0.8795 -1.3672  0.1743
 2008SOL     OW13263  10.108   5.538  11.383  0.1576 -0.2852 -0.0140
 2008SOL    HW113264  10.143   5.449  11.384 -1.0466 -0.8324 -2.0821
 2008SOL    HW213265  10.046   5.540  11.457 -0.0258 -1.2624 -0.1285
 2009SOL     OW13266   4.720   8.860   6.931  0.3594 -0.0411 -0.6162
 2009SOL    HW113267   4.780   8.932   6.952  0.9933 -0.4465 -0.9884
 2009SOL    HW213268   4.742   8.791   6.994 -0.9334  0.4491  0.3935
 2010SOL     OW13269   8.600   2.054   0.316 -0.2751  0.0359  0.4545
 2010SOL    HW113270   8.608   1.959   0.307 -1.1947 -0.0011 -0.1271
 2010SOL    HW213271   8.527   2.066   0.378  0.1823  0.3662  0.9393
 2011SOL     OW13272   4.412   9.445   2.465  0.4411  0.0142 -0.2162
 2011SOL    HW113273   4.346   9.382   2.436 -0.5362  1.1699 -0.5869
 2011SOL    HW213274   4.415   9.511   2.396  0.3928  1.1287  0.8184
 2012SOL     OW13275   9.281   2.959   3.159 -1.1486 -0.3028  0.3499
 2012SOL    HW113276   9.290   2.888   3.097 -2.1300  0.8345 -1.1727
 2012SOL    HW213277   9.190   2.953   3.190 -1.0172 -0.1529  0.7840
 2013SOL     OW13278   9.548   8.669   7.489  0.0803 -0.0357 -0.3892
 2013SOL    HW113279   9.621   8.664   7.427  0.4060  0.6633 -0.0679
 2013SOL    HW213280   9.544   8.582   7.528 -0.4368 -0.6376 -1.7304
 2014SOL     OW13281   5.589  12.086   6.143 -0.4833  0.5786  0.0332
 2014SOL    HW113282   5.633  12.147   6.202 -1.2229  0.6428  0.5396
 2014SOL    HW213283   5.624  12.107   6.057 -1.9465  2.9283 -0.0850
 2015SOL     OW13284   0.902  11.722  12.626 -0.7505  0.2386  0.5638
 2015SOL    HW113285   0.960  11.772  12.683  0.4958 -1.7605  1.1384
 2015SOL    HW213286   0.868  11.653  12.682 -0.0345 -1.3587 -0.9014
 2016SOL     OW13287   6.640   0.984   2.367  0.0342  0.0126 -0.8238
 2016SOL    HW113288   6.698   0.914   2.336  0.5921 -0.2110  0.6223
 2016SOL    HW213289   6.556   0.967   2.325  0.5536 -0.6962 -1.5953
 2017SOL     OW13290   1.926  12.065   0.131 -0.3708  0.3449  0.4718
 2017SOL    HW113291   1.958  12.154   0.136 -1.2019  0.8101 -1.3496
 2017SOL    HW213292   2.002  12.013   0.107  0.2453  0.4376  2.1289
 2018SOL     OW13293  11.182   5.495   7.262  0.1394  0.3381 -0.3746
 2018SOL    HW113294  11.200   5.483   7.168 -1.0826  0.2577 -0.6186
 2018SOL    HW213295  11.094   5.458   7.274  0.1934  0.5479  0.7691
 2019SOL     OW13296   2.276   9.680   2.248 -0.0253  0.0945  0.0921
 2019SOL    HW113297   2.216   9.750   2.222  0.4671  0.1578 -0.9159
 2019SOL    HW213298   2.352   9.691   2.191  0.6643 -0.4011  0.8908
 2020SOL     OW13299   7.439   7.302   1.173 -0.3077  0.5702  0.2187
 2020SOL    HW113300   7.469   7.237   1.237 -1.5898  1.4200  1.7388
 2020SOL    HW213301   7.415   7.250   1.096 -0.1835 -0.6424  0.9694
 2021SOL     OW13302   4.426  10.208   5.892 -0.2705 -0.0129 -0.0275
 2021SOL    HW113303   4.435  10.290   5.842 -0.1903 -0.0583 -0.0866
 2021SOL    HW213304   4.469  10.142   5.838  0.9511  0.1649  0.6907
 2022SOL     OW13305   8.342   9.763  11.905 -0.7893 -0.4639 -0.1145
 2022SOL    HW113306   8.317   9.723  11.821  0.1601  2.3593 -1.9078
 2022SOL    HW213307   8.437   9.752  11.909 -0.4455  1.6534 -0.8223
 2023SOL     OW13308   2.863   8.812  10.364  0.1689 -0.0863  0.1705
 2023SOL    HW113309   2.946   8.774  10.335 -1.1311 -0.5697 -3.4466
 2023SOL    HW213310   2.874   8.907  10.353  0.7557  0.0079  1.4034
 2024SOL     OW13311   8.963   0.293  11.693  0.2728 -0.2336  0.6016
 2024SOL    HW113312   8.979   0.307  11.600 -0.4284 -1.4468  0.2839
 2024SOL    HW213313   9.033   0.235  11.722 -0.5281 -1.3158  0.4063
 2025SOL     OW13314   4.474   1.452   6.906  0.0999 -0.2619 -0.2398
 2025SOL    HW113315   4.505   1.497   6.828 -3.9917  2.4910 -0.5928
 2025SOL    HW213316   4.508   1.505   6.979 -0.3917  0.3322 -0.4333
 2026SOL     OW13317   9.295   6.375   1.644  0.0133 -0.2468  0.4472
 2026SOL    HW113318   9.240   6.404   1.572  0.2586  0.9396  0.7091
 2026SOL    HW213319   9.234   6.353   1.714 -0.2988 -2.5269 -0.4442
 2027SOL     OW13320   5.508   4.261   6.396  0.0879 -0.1456 -0.3997
 2027SOL    HW113321   5.525   4.250   6.303  1.8830 -1.9967  0.0645
 2027SOL    HW213322   5.432   4.205   6.413  1.2895 -1.8706 -0.3789
 2028SOL     OW13323   7.183   4.441   1.097 -0.0033  0.2055  0.3463
 2028SOL    HW113324   7.186   4.536   1.098 -1.1754  0.2497  0.7406
 2028SOL    HW213325   7.264   4.413   1.140  1.0950  0.9849 -1.1093
 2029SOL     OW13326   9.673   3.075  11.449  0.1979 -0.7153 -0.6719
 2029SOL    HW113327   9.617   3.142  11.486  0.1023 -0.8074 -0.6508
 2029SOL    HW213328   9.746   3.067  11.511  0.5811 -0.1244 -1.0344
 2030SOL     OW13329  11.554   5.112   1.587 -0.2640  0.4195 -0.0856
 2030SOL    HW113330  11.639   5.154   1.595 -0.7398  1.4711 -0.4629
 2030SOL    HW213331  11.491   5.184   1.579 -1.1149 -0.3494 -0.5432
 2031SOL     OW13332  10.139   0.530   1.592 -0.1749  0.2591 -0.1810
 2031SOL    HW113333  10.125   0.467   1.663  0.3934 -0.0392 -0.3279
 2031SOL    HW213334  10.193   0.599   1.631  0.0913  0.1230 -0.3065
 2032SOL     OW13335  10.598   8.825   2.978  0.0124 -0.4027 -0.1888
 2032SOL    HW113336  10.685   8.815   2.940 -0.1637 -2.8101 -0.0911
 2032SOL    HW213337  10.614   8.858   3.066  0.6463  1.2742 -0.8758
 2033SOL     OW13338   6.029  11.161   5.446 -0.2534 -0.0890 -0.7590
 2033SOL    HW113339   6.075  11.166   5.530 -0.8849 -0.0436 -0.4053
 2033SOL    HW213340   5.946  11.119   5.467 -0.6320  0.3839 -1.2712
 2034SOL     OW13341   6.716   6.192  11.330  0.3155  0.3788  0.0793
 2034SOL    HW113342   6.716   6.286  11.313  1.6964  0.5523  0.8670
 2034SOL    HW213343   6.626   6.172  11.358  0.0171  1.4585 -0.0818
 2035SOL     OW13344   5.125  10.054   7.220  0.2035  0.8599 -0.5353
 2035SOL    HW113345   5.109  10.018   7.307 -0.5648 -0.4306 -1.1841
 2035SOL    HW213346   5.143  10.147   7.236  1.5419  0.3609  1.1159
 2036SOL     OW13347   4.265   1.052   3.375 -0.1807  0.6248  0.0511
 2036SOL    HW113348   4.250   1.078   3.284 -0.8500  1.7229  0.4536
 2036SOL    HW213349   4.341   1.103   3.402 -1.9076  2.8987  1.0561
 2037SOL     OW13350   9.569   9.599   3.026 -0.2470 -0.2097  0.3392
 2037SOL    HW113351   9.482   9.580   2.990 -0.2138 -0.6703  0.4979
 2037SOL    HW213352   9.551   9.636   3.113 -0.2683 -1.1316  0.7438
 2038SOL     OW13353   8.744  12.686   1.763 -0.3276  0.0594  0.2041
 2038SOL    HW113354   8.741  12.591   1.778 -1.9316 -0.2850 -1.8405
 2038SOL    HW213355   8.657  12.707   1.729 -0.3487  2.4835  1.5434
 2039SOL     OW13356  11.822   0.437   7.989  0.0247  0.9081 -0.6984
 2039SOL    HW113357  11.818   0.343   7.970  2.4906  0.2178  1.6638
 2039SOL    HW213358  11.762   0.449   8.063 -1.7212  1.6505 -2.1439
 2040SOL     OW13359   5.498  10.939   6.997 -0.4797  0.0303  0.0072
 2040SOL    HW113360   5.410  10.975   6.988  0.1201  1.0076 -3.3106
 2040SOL    HW213361   5.550  10.986   6.931  2.2396 -1.4158  0.9697
 2041SOL     OW13362  11.857   4.777   0.315 -0.0613 -0.3127 -0.3666
 2041SOL    HW113363  11.771   4.736   0.317 -0.7215  1.0336  0.1679
 2041SOL    HW213364  11.873   4.797   0.223  0.1962 -1.5729 -0.6108
 2042SOL     OW13365   7.439   5.897   4.181  0.3949  0.4307  0.3436
 2042SOL    HW113366   7.493   5.958   4.231 -0.9252  1.0986  0.9900
 2042SOL    HW213367   7.497   5.822   4.164  1.6598  1.3221  0.5921
 2043SOL     OW13368  10.124  12.173   7.213 -0.0402  0.7880 -0.3693
 2043SOL    HW113369  10.099  12.102   7.273 -0.1021  1.4531  0.4116
 2043SOL    HW213370  10.202  12.140   7.168 -1.3831 -0.7073 -1.7270
 2044SOL     OW13371   9.649   7.305  12.545  0.2999  0.2599  0.4232
 2044SOL    HW113372   9.654   7.333  12.636  1.2154 -1.2445  0.8829
 2044SOL    HW213373   9.557   7.283  12.532  0.1853  0.3497  1.0369
 2045SOL     OW13374   8.757   8.446   9.253 -0.2445 -0.4076  0.3614
 2045SOL    HW113375   8.748   8.492   9.169  0.6078  0.6756  0.8513
 2045SOL    HW213376   8.763   8.515   9.318 -1.6452 -1.2446  1.4327
 2046SOL     OW13377   3.835  10.400   6.365 -0.0109  0.4410 -0.2414
 2046SOL    HW113378   3.817  10.493   6.376 -0.0582  0.2990  1.1425
 2046SOL    HW213379   3.927  10.390   6.388  0.0817  0.1943 -0.7078
 2047SOL     OW13380   9.186  10.376   2.220  0.1278  0.3245  0.2955
 2047SOL    HW113381   9.158  10.291   2.254 -1.2856  1.2121  1.4453
 2047SOL    HW213382   9.201  10.430   2.297  1.5220  0.9895 -0.4063
 2048SOL     OW13383   6.294  11.089  10.390  0.0076  0.0177  0.2194
 2048SOL    HW113384   6.318  11.181  10.379  0.4636 -0.1508 -0.2170
 2048SOL    HW213385   6.317  11.069  10.481  0.8287  0.0606  0.0207
 2049SOL     OW13386  11.610  11.478  10.131 -0.4082  0.5980  0.1190
 2049SOL    HW113387  11.666  11.530  10.073  0.8137 -1.0364 -0.2785
 2049SOL    HW213388  11.571  11.412  10.074 -0.4147 -0.0781  0.8744
 2050SOL     OW13389   1.337  10.487   8.915  0.2936 -0.7064  0.1267
 2050SOL    HW113390   1.334  10.441   9.000  1.5185  0.5582  0.8910
 2050SOL    HW213391   1.337  10.580   8.939  1.7711 -0.3314 -1.2037
 2051SOL     OW13392   0.724  10.267  11.621  0.1105  0.3204  0.6185
 2051SOL    HW113393   0.671  10.229  11.551  0.6575  0.4773  0.1135
 2051SOL    HW213394   0.807  10.219  11.618  0.9169  1.6999 -0.2133
 2052SOL     OW13395   9.187   1.435   4.029  0.0112 -0.5606 -0.5447
 2052SOL    HW113396   9.242   1.453   3.953 -0.6026  3.3883 -0.2810
 2052SOL    HW213397   9.116   1.381   3.995  0.3575  0.1372 -2.5259
 2053SOL     OW13398  12.193   5.290  12.060 -0.4319 -0.0599  0.1884
 2053SOL    HW113399  12.241   5.221  12.107 -1.4989 -1.1487 -0.2749
 2053SOL    HW213400  12.138   5.242  11.998 -0.0348  1.2887 -1.2625
 2054SOL     OW13401   4.252   7.560   4.189 -0.0720 -0.5390 -0.0383
 2054SOL    HW113402   4.314   7.609   4.244 -0.1187 -1.4684  0.8773
 2054SOL    HW213403   4.240   7.615   4.112 -1.6153  1.8530  1.7738
 2055SOL     OW13404  11.448   1.344   9.302 -0.6961  0.0545  0.0092
 2055SOL    HW113405  11.416   1.279   9.239 -1.4132 -0.3628  0.7810
 2055SOL    HW213406  11.400   1.325   9.382  2.3520 -1.4621  1.6770
 2056SOL     OW13407   3.761   1.642   2.285 -0.0294 -0.3581  0.1386
 2056SOL    HW113408   3.781   1.578   2.353  0.3539  0.7713  1.1128
 2056SOL    HW213409   3.847   1.672   2.254 -0.1981  0.3688  0.3558
 2057SOL     OW13410   4.267  12.471  11.561 -0.2074  0.1916 -0.9874
 2057SOL    HW113411   4.285  12.397  11.618 -0.3660 -0.0946 -1.3061
 2057SOL    HW213412   4.178  12.456  11.528  0.2273 -0.1584 -2.0599
 2058SOL     OW13413   4.278  10.888   5.580  0.2124  0.9666 -0.5675
 2058SOL    HW113414   4.339  10.884   5.506  0.4564 -1.5458 -0.2988
 2058SOL    HW213415   4.225  10.809   5.572  1.0373 -0.0172  2.6018
 2059SOL     OW13416   7.882   9.535   7.080 -0.0300 -0.3065  0.5084
 2059SOL    HW113417   7.844   9.583   7.154 -1.6073 -2.1820  1.0013
 2059SOL    HW213418   7.926   9.460   7.120 -1.9107 -2.0050 -0.4363
 2060SOL     OW13419  12.058   1.319   1.735 -0.3264  0.6213 -0.8022
 2060SOL    HW113420  12.031   1.390   1.677  0.2419  2.2902  0.8773
 2060SOL    HW213421  11.978   1.294   1.782 -0.6149 -0.1787 -1.6860
 2061SOL     OW13422   6.245   7.399   1.927  0.3541  0.0794  0.2327
 2061SOL    HW113423   6.295   7.434   1.853 -0.8643  1.2516 -0.0722
 2061SOL    HW213424   6.192   7.473   1.956 -2.2593 -1.4718 -0.3397
 2062SOL     OW13425   7.180   5.657   2.282  0.1804  0.2284  0.2737
 2062SOL    HW113426   7.228   5.597   2.340 -1.1221  1.1305  2.4287
 2062SOL    HW213427   7.237   5.734   2.276  0.4244  0.0415  0.1752
 2063SOL     OW13428   5.908   0.801   7.928 -0.0590 -0.7056 -0.0892
 2063SOL    HW113429   5.839   0.865   7.943 -0.5295 -1.3096  0.4221
 2063SOL    HW213430   5.987   0.841   7.963 -0.4484 -0.6122  0.6886
 2064SOL     OW13431   9.079   3.425   8.012 -0.1758 -0.4100 -0.1644
 2064SOL    HW113432   9.043   3.337   8.008  0.1673 -0.5273 -3.6678
 2064SOL    HW213433   9.171   3.413   8.032 -0.5152 -0.6007  1.4954
 2065SOL     OW13434   2.577   9.538  10.138 -0.7607 -0.1133  0.4958
 2065SOL    HW113435   2.642   9.475  10.167  0.1478  0.9653  0.8866
 2065SOL    HW213436   2.509   9.535  10.206  0.3249  0.8583  1.6624
 2066SOL     OW13437  12.078   5.010  10.324 -0.6067  0.2973 -0.0103
 2066SOL    HW113438  12.075   4.933  10.269 -0.9955  0.1438  0.2231
 2066SOL    HW213439  12.023   4.989  10.399  0.7678  0.0836  0.9838
 2067SOL     OW13440   4.530  10.427  10.520 -0.3852  0.0629  0.0570
 2067SOL    HW113441   4.505  10.471  10.438 -1.0725 -0.2243  0.1025
 2067SOL    HW213442   4.620  10.398  10.506 -0.9655 -1.2413 -1.1424
 2068SOL     OW13443   2.150   3.060   7.877 -0.0687  0.7370 -0.3617
 2068SOL    HW113444   2.207   3.055   7.954  1.1846  1.7163 -1.1890
 2068SOL    HW213445   2.123   2.969   7.861  1.4235  0.2183 -0.0572
 2069SOL     OW13446   1.870   6.720   8.680 -0.2610 -0.1420  0.0833
 2069SOL    HW113447   1.960   6.741   8.653 -0.4897  0.6400 -0.1125
 2069SOL    HW213448   1.831   6.806   8.699  0.0966 -0.6125  3.7300
 2070SOL     OW13449  11.207   1.383   5.120  0.1574  0.8910 -0.1147
 2070SOL    HW113450  11.189   1.290   5.133  2.0990  0.2802 -1.3777
 2070SOL    HW213451  11.271   1.405   5.188  1.4011  0.6890 -1.1828
 2071SOL     OW13452  10.853  10.335   1.575 -0.0899  0.6702 -0.2361
 2071SOL    HW113453  10.879  10.410   1.628  0.6325  0.0980  0.2419
 2071SOL    HW213454  10.912  10.338   1.499  0.5573  0.0872  0.2289
 2072SOL     OW13455  12.056   3.281   2.601 -0.8361  0.1680 -0.1573
 2072SOL    HW113456  12.070   3.345   2.671 -1.1627 -1.0867  1.1016
 2072SOL    HW213457  11.970   3.245   2.619 -1.6335  0.9486 -2.1855
 2073SOL     OW13458   1.818   7.359   7.224 -0.0324 -0.2460  0.2367
 2073SOL    HW113459   1.722   7.361   7.220  0.0143  0.4299 -1.7203
 2073SOL    HW213460   1.840   7.267   7.215 -0.4896 -0.2847 -0.6035
 2074SOL     OW13461   2.935  12.548   2.255 -0.4368 -0.2578 -0.2779
 2074SOL    HW113462   2.904  12.553   2.346  2.5858  0.5558  0.8253
 2074SOL    HW213463   2.888  12.619   2.210  0.2094  1.3422  1.4369
 2075SOL     OW13464   8.378   6.451   8.852  0.0204  0.0883 -0.5504
 2075SOL    HW113465   8.402   6.538   8.821 -0.5188  0.6222  0.4627
 2075SOL    HW213466   8.390   6.394   8.776  1.2883  0.8774 -0.9755
 2076SOL     OW13467  12.168   6.247   0.057 -0.3973  0.4916 -0.1803
 2076SOL    HW113468  12.085   6.275   0.019 -0.7562  0.9401  0.8958
 2076SOL    HW213469  12.179   6.156   0.028 -1.7348  0.1122  0.4275
 2077SOL     OW13470  11.674   0.165   6.132 -0.0917 -0.2082  0.2997
 2077SOL    HW113471  11.768   0.186   6.133 -0.1844  0.9801 -2.9044
 2077SOL    HW213472  11.670   0.075   6.100 -0.0044  0.2747 -1.1671
 2078SOL     OW13473   5.805  11.423   6.930 -0.3222  0.0718  0.4050
 2078SOL    HW113474   5.854  11.426   7.012  0.4501  2.6430 -0.0457
 2078SOL    HW213475   5.715  11.406   6.957  0.2269 -1.1180  1.5800
 2079SOL     OW13476   3.102  11.930   3.572 -0.1420  0.9338  0.1473
 2079SOL    HW113477   3.088  11.851   3.625 -1.5758  0.3690 -1.0024
 2079SOL    HW213478   3.055  11.999   3.618 -1.5775  0.3963 -0.4619
 2080SOL     OW13479   3.423   2.591   4.659 -0.2465  0.0746 -0.1472
 2080SOL    HW113480   3.499   2.636   4.622  0.1798  0.0130  0.6142
 2080SOL    HW213481   3.402   2.642   4.738  0.1720 -0.9772  0.6636
 2081SOL     OW13482   7.230   7.620   0.108 -0.1708 -0.2273 -0.2060
 2081SOL    HW113483   7.276   7.645   0.189 -1.8719 -1.6285  1.2706
 2081SOL    HW213484   7.299   7.583   0.052  0.7929 -0.8378  1.3111
 2082SOL     OW13485   4.597  12.595   9.587  0.2889  0.2432 -0.2292
 2082SOL    HW113486   4.654  12.520   9.571  0.7365  0.6144 -0.4351
 2082SOL    HW213487   4.618  12.623   9.676  0.5581  0.4832 -0.3656
 2083SOL     OW13488  12.207   3.550   1.513  0.0417  0.4104  0.1069
 2083SOL    HW113489  12.220   3.507   1.597  0.1472  0.3524  0.0604
 2083SOL    HW213490  12.285   3.606   1.502  0.0916  0.3185 -0.0133
 2084SOL     OW13491   1.071  10.955  11.145 -0.0033  0.2765 -0.4245
 2084SOL    HW113492   1.005  10.992  11.086 -1.0905  0.0864  0.6273
 2084SOL    HW213493   1.091  10.869  11.108 -0.6073  0.1955 -0.5733
 2085SOL     OW13494   7.634  12.387   0.981 -0.4243  0.2416  0.0735
 2085SOL    HW113495   7.679  12.362   1.062  2.9965  1.2259 -1.3328
 2085SOL    HW213496   7.653  12.481   0.972 -2.5208  0.6242 -0.8626
 2086SOL     OW13497   9.633   4.479   8.778  0.0208  0.1442  0.5054
 2086SOL    HW113498   9.719   4.502   8.742  0.2308 -0.9697  0.2634
 2086SOL    HW213499   9.593   4.563   8.800  0.4187  0.7787 -1.0834
 2087SOL     OW13500  11.973   6.212   0.746  0.5478 -0.5861  0.2335
 2087SOL    HW113501  12.012   6.299   0.745 -1.9228  0.6421 -1.5791
 2087SOL    HW213502  11.992   6.178   0.833  1.3161  1.8909  1.1224
 2088SOL     OW13503   8.556   6.313  10.409 -0.2724 -0.2692 -0.8883
 2088SOL    HW113504   8.548   6.293  10.502 -2.2769 -0.7292 -1.1024
 2088SOL    HW213505   8.648   6.298  10.388  0.0421 -0.9379  0.8371
 2089SOL     OW13506   7.375   4.540   0.283 -0.0502  0.2523  0.2323
 2089SOL    HW113507   7.328   4.512   0.205  0.3751  3.1257 -1.1729
 2089SOL    HW213508   7.309   4.582   0.337  0.0465  0.1414  0.4388
 2090SOL     OW13509   7.968   8.957   6.486  0.0333 -0.0951  0.0585
 2090SOL    HW113510   7.957   8.925   6.575  1.9082  1.3644  0.8689
 2090SOL    HW213511   8.031   8.897   6.446 -1.8345 -1.5863 -0.8181
 2091SOL     OW13512  12.590   1.162   4.932  0.0002 -0.7670  0.4640
 2091SOL    HW113513  12.645   1.084   4.930 -1.8484 -2.1428 -0.7067
 2091SOL    HW213514  12.607   1.206   4.849  0.0596 -0.6753  0.5255
 2092SOL     OW13515   8.037   1.180  11.727  0.3697  0.0945  0.0686
 2092SOL    HW113516   8.130   1.159  11.733  0.2524 -0.4621  0.0317
 2092SOL    HW213517   8.033   1.264  11.681  1.0084  1.6087  2.5785
 2093SOL     OW13518  12.520   3.771   7.841  0.7465  0.3982  0.1443
 2093SOL    HW113519  12.577   3.834   7.885 -0.0016  0.9704  0.3178
 2093SOL    HW213520  12.432   3.795   7.869  0.4717 -0.9635  0.5055
 2094SOL     OW13521  12.036   7.514   6.379  0.3554 -0.0608 -0.1926
 2094SOL    HW113522  12.052   7.583   6.444  3.6451 -0.8359 -0.0072
 2094SOL    HW213523  12.097   7.444   6.403 -0.2160 -1.4775 -2.5785
 2095SOL     OW13524   2.249   6.144  10.598 -0.2445  0.1827 -0.0520
 2095SOL    HW113525   2.339   6.176  10.610 -0.0845 -0.2680 -0.0256
 2095SOL    HW213526   2.239   6.134  10.503  0.0968 -0.7589 -0.0075
 2096SOL     OW13527   6.202   9.340   9.655 -0.5630 -0.6271 -0.2469
 2096SOL    HW113528   6.204   9.353   9.560 -2.1263 -3.7486 -0.8640
 2096SOL    HW213529   6.237   9.421   9.691  0.0959  0.6977 -3.4672
 2097SOL     OW13530  10.055   6.874   1.558  0.2146  0.0746  0.3541
 2097SOL    HW113531  10.001   6.795   1.567 -1.1352  0.9100  0.0350
 2097SOL    HW213532  10.062   6.887   1.463  1.4061 -0.2914  0.3872
 2098SOL     OW13533   0.233   7.248  12.693  0.3737 -0.6239 -0.3119
 2098SOL    HW113534   0.280   7.326  12.664 -2.4226  2.8793  3.3894
 2098SOL    HW213535   0.274   7.225  12.777  1.4177 -3.6478 -1.4872
 2099SOL     OW13536   5.013   4.791   3.156  0.2886  0.0859  0.2050
 2099SOL    HW113537   4.969   4.839   3.226  1.1982  0.5428  0.4775
 2099SOL    HW213538   4.942   4.759   3.100 -0.3656  1.1361  0.4125
 2100SOL     OW13539  11.777   6.841   9.115 -0.2432  0.0089  0.6530
 2100SOL    HW113540  11.690   6.880   9.131 -0.0501  0.4164  0.7218
 2100SOL    HW213541  11.838   6.907   9.147  0.1387  0.4488 -0.8922
 2101SOL     OW13542   1.230   0.613  11.476 -0.1790 -0.2982  0.2011
 2101SOL    HW113543   1.276   0.533  11.449 -1.4441 -1.1898  0.5673
 2101SOL    HW213544   1.140   0.584  11.493 -0.2496  0.8496  2.1141
 2102SOL     OW13545   7.121  10.396   2.374  0.3019  0.3100  0.4652
 2102SOL    HW113546   7.099  10.459   2.443  2.3728  0.6644  0.8726
 2102SOL    HW213547   7.165  10.449   2.307  1.9619 -0.6418  0.7512
 2103SOL     OW13548   4.640   6.069   0.027 -0.2906  0.1778 -0.4032
 2103SOL    HW113549   4.601   6.126   0.092  0.6256 -1.2981  1.5395
 2103SOL    HW213550   4.730   6.054   0.057 -0.9485 -3.6131  0.2414
 2104SOL     OW13551  11.298   6.728   9.206 -0.2456 -0.1182 -0.2594
 2104SOL    HW113552  11.322   6.695   9.119  1.2038  1.5032 -0.5464
 2104SOL    HW213553  11.264   6.652   9.253  1.9637 -1.7748 -1.1772
 2105SOL     OW13554  11.201   3.607  11.788 -0.1340  0.1193 -0.8399
 2105SOL    HW113555  11.228   3.698  11.802  1.0959 -0.3235 -0.1574
 2105SOL    HW213556  11.169   3.577  11.873 -2.1527  0.3833 -1.4484
 2106SOL     OW13557   8.380   5.820   5.965  0.0190 -0.0715 -0.7856
 2106SOL    HW113558   8.357   5.816   5.872 -0.1724  1.8652 -0.8571
 2106SOL    HW213559   8.475   5.811   5.967  0.1274  0.9034 -1.2602
 2107SOL     OW13560   9.149   3.599   7.049  0.6625 -0.5828 -0.1059
 2107SOL    HW113561   9.199   3.666   7.003  1.2078 -0.6187  0.4223
 2107SOL    HW213562   9.169   3.518   7.001  1.2196 -0.6179  0.1699
 2108SOL     OW13563  11.469   4.678   6.890  0.5168  0.4228 -0.0545
 2108SOL    HW113564  11.442   4.662   6.799  0.5666 -0.0844  0.0170
 2108SOL    HW213565  11.388   4.699   6.936  0.4347  0.2710 -0.1296
 2109SOL     OW13566   5.708   3.320   7.616 -0.0576  0.5974  0.8062
 2109SOL    HW113567   5.654   3.278   7.684 -2.4675  1.6111 -0.3763
 2109SOL    HW213568   5.645   3.362   7.558  2.0745  3.1800  0.1533
 2110SOL     OW13569   3.801   7.304  11.713  0.2227 -0.1237 -0.1069
 2110SOL    HW113570   3.783   7.368  11.782  2.5677  0.3052  0.2013
 2110SOL    HW213571   3.800   7.220  11.757 -1.5269 -0.2178 -0.2498
 2111SOL     OW13572   7.665   7.908   1.034 -0.3433  0.2552 -0.6165
 2111SOL    HW113573   7.606   7.835   1.049 -1.1270  1.1181  0.6369
 2111SOL    HW213574   7.722   7.910   1.111  1.2362 -0.4330 -1.7017
 2112SOL     OW13575   2.591   2.677   2.359  0.0333 -0.2742 -0.7497
 2112SOL    HW113576   2.624   2.609   2.418 -0.3599 -0.1532 -0.3852
 2112SOL    HW213577   2.598   2.638   2.272  0.1217 -0.6587 -0.5752
 2113SOL     OW13578   1.658  12.372  11.619 -0.3437 -0.0901  0.1068
 2113SOL    HW113579   1.751  12.370  11.640  0.9557  0.3463 -4.5343
 2113SOL    HW213580   1.631  12.462  11.640 -0.1990 -0.5657  2.6864
 2114SOL     OW13581   8.406   6.385   8.584  0.5398 -0.1991 -0.4434
 2114SOL    HW113582   8.485   6.406   8.535  1.5949 -2.4546  0.1460
 2114SOL    HW213583   8.350   6.340   8.520 -0.0024  0.8066 -0.6888
 2115SOL     OW13584   7.756   7.257   6.533  0.2266  0.1972 -0.2761
 2115SOL    HW113585   7.836   7.204   6.542  0.6887  0.3687 -2.5967
 2115SOL    HW213586   7.717   7.226   6.451 -0.0928  2.6578 -1.1175
 2116SOL     OW13587   8.827   2.700  11.600 -0.3103  0.1682 -0.0185
 2116SOL    HW113588   8.888   2.726  11.669 -1.5506  0.2219  1.0832
 2116SOL    HW213589   8.774   2.778  11.584  0.4589  0.4074 -1.6087
 2117SOL     OW13590   8.690   8.556   9.008  0.4161  0.6561  0.1928
 2117SOL    HW113591   8.729   8.614   8.944  0.1213  0.3817 -0.2416
 2117SOL    HW213592   8.598   8.583   9.013  0.2860  0.2662  0.0197
 2118SOL     OW13593   5.317   5.934   2.642  0.1852 -0.4725 -0.4953
 2118SOL    HW113594   5.251   5.921   2.711  1.2129  1.4809  0.9613
 2118SOL    HW213595   5.345   6.025   2.654  1.1916 -0.4215 -2.8418
 2119SOL     OW13596   6.346   8.740   5.192 -0.8520  0.5212  0.3789
 2119SOL    HW113597   6.438   8.749   5.218 -0.6085 -0.9603  0.1380
 2119SOL    HW213598   6.322   8.652   5.221 -2.2119  0.9000  0.4505
 2120SOL     OW13599   2.605   9.490   8.801  0.4487 -0.6883 -0.5937
 2120SOL    HW113600   2.585   9.584   8.796 -0.2870 -0.8177 -0.2876
 2120SOL    HW213601   2.523   9.447   8.776  0.8943 -1.2538 -1.1061
 2121SOL     OW13602   2.646   3.839   1.715  0.6506 -0.1120 -0.3286
 2121SOL    HW113603   2.603   3.818   1.798  1.2416 -1.1497 -0.2616
 2121SOL    HW213604   2.629   3.932   1.702 -0.9156 -0.3078  0.0898
 2122SOL     OW13605  10.535   1.759   4.086 -0.0513  0.0069 -0.5702
 2122SOL    HW113606  10.506   1.842   4.047 -1.1417 -0.1455 -0.1048
 2122SOL    HW213607  10.472   1.741   4.155  0.3791 -1.0457 -0.4346
 2123SOL     OW13608   2.880   5.474   3.349 -0.0212  0.1245 -0.0664
 2123SOL    HW113609   2.877   5.494   3.256 -0.2156  0.1198 -0.0617
 2123SOL    HW213610   2.927   5.391   3.355 -0.5617 -0.1972 -0.2131
 2124SOL     OW13611  10.964   4.236   6.766 -0.4614  0.0660 -0.3379
 2124SOL    HW113612  10.973   4.158   6.821 -0.0399  1.5220  1.7734
 2124SOL    HW213613  10.906   4.294   6.816 -0.5853  1.2137 -1.7549
 2125SOL     OW13614   1.831   2.024  12.602 -0.1964 -0.1080  0.4199
 2125SOL    HW113615   1.866   2.033  12.513 -0.5471 -0.7752  0.2023
 2125SOL    HW213616   1.769   1.950  12.596  0.1875 -0.5239  1.3416
 2126SOL     OW13617   9.768   4.066   8.377 -0.6008  0.1857  0.2724
 2126SOL    HW113618   9.734   3.985   8.415 -2.1929  0.4561 -0.4999
 2126SOL    HW213619   9.845   4.038   8.328 -0.2713 -0.6176  1.2026
 2127SOL     OW13620   0.972   7.428   1.753  0.1537 -0.0750 -0.7495
 2127SOL    HW113621   0.939   7.469   1.674 -1.1597 -0.3511 -0.3702
 2127SOL    HW213622   0.901   7.437   1.817  1.4392  0.7680  0.6361
 2128SOL     OW13623   5.201   5.737   4.736  0.4599 -0.1715  0.2827
 2128SOL    HW113624   5.268   5.696   4.681 -1.2902 -1.8309 -0.7400
 2128SOL    HW213625   5.220   5.705   4.825  2.0506  0.8466  0.3516
 2129SOL     OW13626   9.198   9.164   7.323 -0.6217 -0.0626 -0.1680
 2129SOL    HW113627   9.235   9.150   7.411 -0.0571  0.5610 -0.2948
 2129SOL    HW213628   9.228   9.251   7.298  1.4671 -1.1932 -2.0496
 2130SOL     OW13629   9.428   7.147   6.374 -0.3613  0.5496  0.2562
 2130SOL    HW113630   9.451   7.221   6.319 -0.5974  0.6054  0.2333
 2130SOL    HW213631   9.496   7.146   6.442  0.2994  0.0913 -0.3990
 2131SOL     OW13632  10.789  11.915   9.741  0.1006  0.2939  0.1490
 2131SOL    HW113633  10.879  11.928   9.713  0.4533  1.9600  1.9136
 2131SOL    HW213634  10.740  11.986   9.698 -0.6382 -1.2137 -1.6608
 2132SOL     OW13635   9.513   5.291  11.272 -0.1485  0.7684  0.7426
 2132SOL    HW113636   9.601   5.274  11.239 -0.6622  1.0786 -0.9326
 2132SOL    HW213637   9.488   5.212  11.319  0.3988 -0.0021 -0.2337
 2133SOL     OW13638  10.369   2.255   7.799  0.3482  0.6692  0.2012
 2133SOL    HW113639  10.391   2.313   7.726 -0.5946  1.5418  0.5803
 2133SOL    HW213640  10.302   2.197   7.764  0.5360  0.5039  0.1171
 2134SOL     OW13641   2.678   3.981   4.684 -0.4119 -0.2341 -0.3995
 2134SOL    HW113642   2.585   3.962   4.674 -0.2908 -1.0033 -0.1120
 2134SOL    HW213643   2.691   4.063   4.636 -1.4444  0.4796  0.5017
 2135SOL     OW13644   8.604   8.935   6.158 -0.1729 -0.6246 -0.3010
 2135SOL    HW113645   8.512   8.924   6.182  0.0026  0.4072  0.9879
 2135SOL    HW213646   8.609   9.024   6.123  0.5725 -0.0856  1.0730
 2136SOL     OW13647  11.954   0.592   7.014  0.0708  0.3978  0.0160
 2136SOL    HW113648  11.986   0.535   7.084 -2.6667 -1.7589 -0.2820
 2136SOL    HW213649  11.999   0.561   6.935 -0.8370 -0.9348 -0.0122
 2137SOL     OW13650   3.940   9.461   6.939  0.2809  0.1700 -0.1931
 2137SOL    HW113651   3.857   9.477   6.894  0.2157 -0.1130 -0.1745
 2137SOL    HW213652   3.980   9.548   6.948  0.5193  0.1828 -1.2379
 2138SOL     OW13653  10.254   4.971   1.031 -0.3927 -0.0783  0.6580
 2138SOL    HW113654  10.160   4.955   1.029 -0.2848 -0.7239  0.3792
 2138SOL    HW213655  10.293   4.885   1.017  0.2362  0.3067 -0.0306
 2139SOL     OW13656  10.735   6.204   5.068 -0.8777 -0.1278 -0.1427
 2139SOL    HW113657  10.679   6.248   5.132 -2.6507 -1.0737 -0.9565
 2139SOL    HW213658  10.720   6.251   4.986 -0.0627 -0.0803 -0.2762
 2140SOL     OW13659   9.049   4.071   7.219  0.0371 -0.4353  0.4161
 2140SOL    HW113660   9.080   4.159   7.240 -1.3003  0.1725 -0.0219
 2140SOL    HW213661   9.043   4.070   7.123 -0.9607 -0.6252  0.4707
 2141SOL     OW13662  10.485   0.504  11.381  0.4533 -0.6072  0.4779
 2141SOL    HW113663  10.417   0.438  11.368 -0.6939  0.4249  1.0577
 2141SOL    HW213664  10.551   0.461  11.436 -0.6066 -1.0610  1.4257
 2142SOL     OW13665   9.777  11.354  10.915  0.0515 -0.8515 -0.3770
 2142SOL    HW113666   9.766  11.294  10.989 -0.7247 -1.1600 -0.7323
 2142SOL    HW213667   9.799  11.297  10.841  1.4026 -0.4919 -0.2740
 2143SOL     OW13668   3.772   8.857   0.439 -0.4735 -0.2838 -0.1963
 2143SOL    HW113669   3.688   8.811   0.444 -0.3142 -0.5444  0.1574
 2143SOL    HW213670   3.779   8.902   0.523 -0.8644  0.8144 -0.7351
 2144SOL     OW13671   7.659  12.441  11.776 -0.0670 -0.0154 -0.2483
 2144SOL    HW113672   7.566  12.420  11.782  0.0167 -0.2921  0.1521
 2144SOL    HW213673   7.662  12.526  11.734 -0.6670  1.2865  2.1557
 2145SOL     OW13674   1.822   1.143  12.227 -0.3224 -0.0955  0.5242
 2145SOL    HW113675   1.880   1.122  12.155 -0.5753  0.3224  0.1934
 2145SOL    HW213676   1.878   1.142  12.305  0.2271  0.7604  0.1495
 2146SOL     OW13677   1.826   8.728   5.883  0.0761  0.0136 -0.2365
 2146SOL    HW113678   1.816   8.789   5.810 -2.7126  0.9065  0.7629
 2146SOL    HW213679   1.763   8.658   5.864 -1.2744  0.6546  1.5967
 2147SOL     OW13680  12.214  11.922   8.603  0.0361  0.2876  0.2993
 2147SOL    HW113681  12.228  11.969   8.521 -0.3526  0.1980  0.1806
 2147SOL    HW213682  12.192  11.832   8.576  1.3600 -0.1274  0.5343
 2148SOL     OW13683   4.238   3.876   5.712  0.8330 -0.0032  0.2389
 2148SOL    HW113684   4.158   3.826   5.726  0.5040  0.0916 -1.1907
 2148SOL    HW213685   4.217   3.964   5.744  0.6804 -0.2228  0.7417
 2149SOL     OW13686   7.053   7.286  10.698  0.2507 -0.2397  0.2114
 2149SOL    HW113687   7.126   7.277  10.759 -0.0955 -0.0596  0.6625
 2149SOL    HW213688   7.050   7.379  10.677  0.8106 -0.4059 -0.6458
 2150SOL     OW13689   0.163   7.998  10.084  0.4691 -0.6168 -0.2729
 2150SOL    HW113690   0.180   7.905  10.093  0.1455 -0.7665 -1.1642
 2150SOL    HW213691   0.077   8.011  10.122  0.3726 -0.7416 -0.4464
 2151SOL     OW13692  10.109  11.937  11.525  0.8047 -0.0502 -0.2064
 2151SOL    HW113693  10.072  11.920  11.438 -1.4077  1.1488  0.4284
 2151SOL    HW213694  10.103  11.853  11.570 -1.9203  0.1812  0.0721
 2152SOL     OW13695   7.388   6.752   2.275  0.3918 -0.0842 -0.2046
 2152SOL    HW113696   7.430   6.667   2.261  1.7714  0.5118  0.2048
 2152SOL    HW213697   7.316   6.733   2.336  0.9826 -0.8776  0.2624
 2153SOL     OW13698   9.520   2.585   1.184  0.2969  0.3501  0.3652
 2153SOL    HW113699   9.449   2.565   1.123 -0.3816 -1.8648  1.7296
 2153SOL    HW213700   9.485   2.654   1.241 -0.2260  0.2966  0.1158
 2154SOL     OW13701   5.180   7.856   9.125  0.0650  0.0385 -0.0752
 2154SOL    HW113702   5.092   7.820   9.116 -0.1220  0.0095  1.4950
 2154SOL    HW213703   5.194   7.905   9.044 -0.8492 -1.0575 -0.9407
 2155SOL     OW13704   1.270   7.085   9.468  0.0427  0.0619 -0.6677
 2155SOL    HW113705   1.274   7.180   9.481  0.6888 -0.0963  0.3467
 2155SOL    HW213706   1.362   7.058   9.465 -0.1230 -0.8009  1.1428
 2156SOL     OW13707   3.103  11.931   6.119  0.3347 -0.6983 -0.2407
 2156SOL    HW113708   3.171  11.877   6.078 -0.3767 -0.0483 -2.4082
 2156SOL    HW213709   3.045  11.955   6.046 -0.0730  1.9412  0.8718
 2157SOL     OW13710  12.442   1.693   2.249 -0.0985  0.0061 -0.3511
 2157SOL    HW113711  12.396   1.772   2.277  2.2208  1.0011  1.0136
 2157SOL    HW213712  12.421   1.627   2.315  0.6169  0.5533  0.4494
 2158SOL     OW13713   3.098   3.544   8.175 -0.1298  0.0276 -0.0664
 2158SOL    HW113714   3.030   3.584   8.229 -1.5367 -0.2231 -1.5700
 2158SOL    HW213715   3.140   3.617   8.131  0.7167  0.1967  0.9858
 2159SOL     OW13716   8.516  11.268   5.408  0.1141 -0.2126 -0.2393
 2159SOL    HW113717   8.439  11.292   5.460  1.9644  0.8378  2.2196
 2159SOL    HW213718   8.565  11.208   5.464  1.0873 -0.9155 -1.7811
 2160SOL     OW13719   1.317   8.728   3.095  0.0921  0.3488 -0.2992
 2160SOL    HW113720   1.282   8.656   3.041 -1.0783  0.5400  0.1783
 2160SOL    HW213721   1.405   8.699   3.119 -0.8563 -1.6287  1.0969
 2161SOL     OW13722   8.159   8.151  10.173  0.5247 -0.2566  0.0464
 2161SOL    HW113723   8.168   8.210  10.247  1.9240 -0.7948  0.3482
 2161SOL    HW213724   8.115   8.074  10.208 -1.8460  0.7670 -0.4814
 2162SOL     OW13725   4.882  11.863   7.871 -0.9331  0.2934 -0.1719
 2162SOL    HW113726   4.807  11.910   7.907 -2.6676 -2.2587 -0.1780
 2162SOL    HW213727   4.843  11.793   7.819  1.5000  0.8070 -2.9565
 2163SOL     OW13728   9.869  12.573   9.572 -0.5160 -0.2080  0.2928
 2163SOL    HW113729   9.874  12.542   9.482 -1.3611 -2.7657  1.0296
 2163SOL    HW213730   9.914  12.658   9.571  0.3732 -0.6176 -2.3045
 2164SOL     OW13731   0.717  12.689  11.306  0.0511  0.3799  0.3144
 2164SOL    HW113732   0.682  12.645  11.228  0.5430  0.2587  0.1601
 2164SOL    HW213733   0.759  12.768  11.273  0.6593  0.0955  0.4046
 2165SOL     OW13734   2.109   2.352   0.396  0.3368  0.6844  0.5445
 2165SOL    HW113735   2.180   2.375   0.335  1.3652 -1.0606  1.0142
 2165SOL    HW213736   2.095   2.258   0.382 -0.3841  0.5515  1.9864
 2166SOL     OW13737   5.014   0.987   0.926 -0.0257 -0.3976  0.5285
 2166SOL    HW113738   5.064   1.065   0.946  0.0182 -0.0054 -0.9641
 2166SOL    HW213739   4.959   0.973   1.003 -0.0448  1.1052  0.8180
 2167SOL     OW13740  10.713  11.584   0.745  0.3894 -0.2643  0.1680
 2167SOL    HW113741  10.639  11.541   0.788  1.4018 -1.5835  0.6783
 2167SOL    HW213742  10.673  11.652   0.692 -1.5035 -2.7763 -1.8957
 2168SOL     OW13743   5.696  10.331   2.517  0.3517  0.7482 -0.1312
 2168SOL    HW113744   5.761  10.333   2.447  0.4495  1.6949 -0.0247
 2168SOL    HW213745   5.627  10.391   2.489  1.7794  3.5274  1.8453
 2169SOL     OW13746   0.026   1.387  10.357 -0.5591  0.0727  0.6301
 2169SOL    HW113747  -0.004   1.322  10.293 -0.5753 -0.3735  1.0925
 2169SOL    HW213748   0.090   1.439  10.308  0.2620 -0.9666  0.5523
 2170SOL     OW13749   4.832  10.954   0.785  0.2552 -0.5915 -0.0927
 2170SOL    HW113750   4.864  10.973   0.697 -0.5264  1.4672 -0.0000
 2170SOL    HW213751   4.905  10.977   0.843 -0.0648  0.4339 -0.0852
 2171SOL     OW13752   9.914   5.579   8.817 -0.6386 -0.3102  0.3745
 2171SOL    HW113753   9.900   5.611   8.728  0.7314  1.8656  0.8689
 2171SOL    HW213754   9.931   5.657   8.868 -0.2183 -1.6180  2.3426
 2172SOL     OW13755   0.343   4.540   8.596 -0.2603 -0.3414  0.0329
 2172SOL    HW113756   0.302   4.468   8.547 -0.5253 -1.3149  1.6128
 2172SOL    HW213757   0.272   4.577   8.649  0.2007  0.1223  0.3360
 2173SOL     OW13758   9.483   1.244   2.711 -0.0398  0.1485  0.3016
 2173SOL    HW113759   9.530   1.319   2.746  0.4898  0.5135 -1.1444
 2173SOL    HW213760   9.497   1.248   2.617  0.1926 -1.9000  0.2016
 2174SOL     OW13761   5.410   3.753   4.666 -0.1645 -0.4679  0.0566
 2174SOL    HW113762   5.423   3.819   4.598 -2.1555 -1.4336 -1.3530
 2174SOL    HW213763   5.324   3.774   4.703 -0.5633 -1.8852 -0.0021
 2175SOL     OW13764   9.683   2.564  10.708 -0.0361  0.2020 -0.2957
 2175SOL    HW113765   9.710   2.620  10.781 -1.6598  0.0289  0.4684
 2175SOL    HW213766   9.723   2.605  10.631  0.3118  1.3602  0.4713
 2176SOL     OW13767  11.980   2.040   8.790 -0.1334  0.3097  0.1303
 2176SOL    HW113768  11.919   2.070   8.723 -0.9500 -0.9035  0.2895
 2176SOL    HW213769  11.924   2.013   8.863  0.4545 -1.9709 -0.1711
 2177SOL     OW13770   5.149   2.295  11.901  0.1856  0.8860  0.0155
 2177SOL    HW113771   5.067   2.299  11.852  0.3228  3.6881 -0.1804
 2177SOL    HW213772   5.126   2.323  11.989  0.5344 -0.8269  0.6846
 2178SOL     OW13773  11.489   6.211  11.320 -0.5869  0.4735  0.4051
 2178SOL    HW113774  11.411   6.260  11.347  1.1158  2.9099  1.3902
 2178SOL    HW213775  11.498   6.230  11.227 -2.0449 -1.2818 -0.1596
 2179SOL     OW13776  12.004  11.108  12.263 -0.2934 -0.4563 -0.0084
 2179SOL    HW113777  12.062  11.102  12.187  0.2961 -1.3111  0.4962
 2179SOL    HW213778  11.953  11.188  12.248  1.6853  0.8773  0.0098
 2180SOL     OW13779  12.526  10.637  11.287 -0.1598  0.1550  0.3435
 2180SOL    HW113780  12.585  10.702  11.249  2.3908 -2.2012 -0.0703
 2180SOL    HW213781  12.482  10.597  11.212 -1.2529  0.9198  0.5525
 2181SOL     OW13782   3.451   3.659   6.030 -0.0134  0.3419 -0.2128
 2181SOL    HW113783   3.379   3.663   6.093 -0.1017  1.9779 -0.3665
 2181SOL    HW213784   3.431   3.728   5.967  0.0027 -1.3414 -2.1451
 2182SOL     OW13785   9.198   1.265  11.508  0.6640 -0.4770  0.1425
 2182SOL    HW113786   9.139   1.230  11.575  0.6463  1.0448  0.9789
 2182SOL    HW213787   9.273   1.207  11.509  0.4253 -0.7956  1.1162
 2183SOL     OW13788   3.631  10.272   9.321 -0.0374 -0.1749  0.1257
 2183SOL    HW113789   3.704  10.278   9.259  0.2638 -1.1830  0.3707
 2183SOL    HW213790   3.565  10.219   9.277 -0.0860 -0.3621  0.4191
 2184SOL     OW13791   5.718   5.507  12.317 -0.3406  0.1476  0.1232
 2184SOL    HW113792   5.718   5.538  12.227  1.1597 -0.7782 -0.2379
 2184SOL    HW213793   5.713   5.586  12.370 -0.1068  0.7841 -0.7768
 2185SOL     OW13794   3.859   0.290   4.230  0.0175 -0.4956  0.3132
 2185SOL    HW113795   3.908   0.350   4.174  0.6099 -0.2935  1.0400
 2185SOL    HW213796   3.914   0.279   4.307 -0.3961 -1.4462  0.4824
 2186SOL     OW13797   6.392   7.881   0.983 -0.4835 -0.4510 -0.3671
 2186SOL    HW113798   6.480   7.844   0.989 -0.8013 -1.0713  0.8116
 2186SOL    HW213799   6.401   7.956   0.925  0.5811 -1.2061 -1.2218
 2187SOL     OW13800   3.467   1.237   0.597 -0.1266 -0.2646  0.0118
 2187SOL    HW113801   3.550   1.190   0.602 -0.5968 -1.1929 -0.6780
 2187SOL    HW213802   3.431   1.232   0.686  0.1286 -0.6541  0.0941
 2188SOL     OW13803   4.902   7.919  11.441 -0.0090 -0.4980 -0.4198
 2188SOL    HW113804   4.815   7.922  11.480  0.0782  2.0270 -0.2590
 2188SOL    HW213805   4.953   7.981  11.492  1.4599 -0.7766 -1.4998
 2189SOL     OW13806   7.497   5.625  11.517 -0.1841  0.3966 -0.0783
 2189SOL    HW113807   7.462   5.628  11.428  0.2705  2.9023 -0.2512
 2189SOL    HW213808   7.421   5.603  11.572 -1.1822  1.7651 -0.8366
 2190SOL     OW13809   6.110   7.003  12.636  0.0242 -0.5313 -0.0489
 2190SOL    HW113810   6.177   6.991  12.703  0.5423  0.7967 -0.3053
 2190SOL    HW213811   6.029   7.014  12.686  0.3035 -0.1855  0.3368
 2191SOL     OW13812  11.443   7.286   7.786 -0.0344 -0.0989  0.0093
 2191SOL    HW113813  11.413   7.261   7.698  0.4281  2.0279 -0.8213
 2191SOL    HW213814  11.366   7.326   7.827  0.4812  1.6583 -0.6152
 2192SOL     OW13815   5.690   0.821   2.691  0.4679  0.2626 -0.4972
 2192SOL    HW113816   5.760   0.880   2.661  0.4005  0.5908 -0.0199
 2192SOL    HW213817   5.671   0.850   2.780 -0.9254  0.7989 -0.9317
 2193SOL     OW13818   3.399   7.526   5.224  0.0523 -0.1207  0.4483
 2193SOL    HW113819   3.492   7.549   5.217 -0.2584  0.7865 -1.0323
 2193SOL    HW213820   3.356   7.608   5.248 -0.5214 -0.2528 -0.1273
 2194SOL     OW13821  10.776   7.959   0.356 -0.1480 -0.1529 -0.3051
 2194SOL    HW113822  10.853   7.924   0.401 -0.9064 -1.3217  0.1354
 2194SOL    HW213823  10.734   7.882   0.317 -2.1341  0.1475  1.0872
 2195SOL     OW13824   0.699   8.923   5.560  0.1669 -0.0492  0.3123
 2195SOL    HW113825   0.698   9.012   5.594  0.7823 -0.0518  0.3481
 2195SOL    HW213826   0.628   8.879   5.607 -1.8084  1.0570 -1.4936
 2196SOL     OW13827  10.826   1.391   9.581 -0.0033 -0.3057  0.3961
 2196SOL    HW113828  10.913   1.378   9.543  0.1861 -0.1840  0.7827
 2196SOL    HW213829  10.809   1.484   9.570  1.0477  0.2248  2.6625
 2197SOL     OW13830  11.806   6.063   2.440 -0.1061 -0.7402 -0.7957
 2197SOL    HW113831  11.890   6.032   2.407 -0.7815 -2.6055 -0.9056
 2197SOL    HW213832  11.743   5.996   2.411 -1.1263 -1.1206  2.0191
 2198SOL     OW13833   6.427   3.995  11.763  0.2250  0.0057 -0.2362
 2198SOL    HW113834   6.372   4.070  11.741  1.0683  0.4311 -0.9649
 2198SOL    HW213835   6.371   3.939  11.817 -1.0521  0.2169 -1.3015
 2199SOL     OW13836   2.902  12.115   7.826  0.0530  0.2636  0.3767
 2199SOL    HW113837   2.978  12.125   7.769  0.7678  1.2642  1.4730
 2199SOL    HW213838   2.827  12.115   7.766  0.9061 -1.0313 -0.7453
 2200SOL     OW13839   2.710   3.815   2.894 -0.4171  0.5399  0.4714
 2200SOL    HW113840   2.686   3.838   2.804  1.0346  0.7875  0.1253
 2200SOL    HW213841   2.717   3.720   2.892 -1.4860  0.4462  0.6227
 2201SOL     OW13842  11.356  10.985  11.600 -0.2735  0.4766 -0.4113
 2201SOL    HW113843  11.442  10.943  11.599 -0.3845  0.1540  1.2506
 2201SOL    HW213844  11.372  11.073  11.566  0.8845  0.6957  0.6275
 2202SOL     OW13845   6.129   8.897   9.024 -0.1742 -0.2724  0.5635
 2202SOL    HW113846   6.133   8.893   8.928  0.6854 -2.2815  0.6353
 2202SOL    HW213847   6.067   8.829   9.048 -0.1530  0.0150  1.4511
 2203SOL     OW13848  12.496   6.624   8.149 -0.6176 -0.0857 -0.6280
 2203SOL    HW113849  12.458   6.607   8.235  0.3782  0.3404 -0.0868
 2203SOL    HW213850  12.450   6.565   8.090 -1.0877 -0.6164  0.2548
 2204SOL     OW13851   6.164   5.864   6.874 -0.2906 -0.2939  0.1234
 2204SOL    HW113852   6.191   5.952   6.847  0.5916 -0.6153 -0.0730
 2204SOL    HW213853   6.068   5.866   6.869 -0.4611  1.3661  2.3501
 2205SOL     OW13854   2.345   2.098   3.684 -0.2360 -0.0741 -0.3270
 2205SOL    HW113855   2.390   2.020   3.716 -1.7394 -1.1512 -0.6832
 2205SOL    HW213856   2.260   2.096   3.728 -1.9282 -0.9488 -3.3135
 2206SOL     OW13857  10.337   8.834   5.734  0.6888 -0.0325 -0.4460
 2206SOL    HW113858  10.266   8.795   5.786  1.1609 -1.0270 -0.5466
 2206SOL    HW213859  10.416   8.788   5.762  1.0757  0.0054 -1.4375
 2207SOL     OW13860   5.342   6.809   2.422  0.5592  0.2159 -0.9542
 2207SOL    HW113861   5.310   6.884   2.473  2.2166 -0.0855  0.6405
 2207SOL    HW213862   5.263   6.769   2.386 -0.6369  0.9343  0.7256
 2208SOL     OW13863   0.511   6.899   6.580  0.3857  0.1779 -0.2914
 2208SOL    HW113864   0.434   6.842   6.582  2.0696 -2.2087  0.6893
 2208SOL    HW213865   0.572   6.860   6.643  2.1149  2.4379 -0.4379
 2209SOL     OW13866   0.396   5.714   2.034 -0.2574  0.0444 -0.0107
 2209SOL    HW113867   0.376   5.722   1.941  0.7351 -1.6372 -0.3976
 2209SOL    HW213868   0.457   5.641   2.040  1.1780  1.3048  1.7595
 2210SOL     OW13869  11.874   7.004   2.923 -0.5152 -0.9871  0.7136
 2210SOL    HW113870  11.845   7.081   2.874 -0.4777 -0.9799  0.7030
 2210SOL    HW213871  11.906   6.944   2.855 -0.7968 -1.1201  0.6967
 2211SOL     OW13872   6.773   2.392   4.409  0.5239 -0.0392  0.2659
 2211SOL    HW113873   6.835   2.319   4.412  0.4117 -0.1343  0.2995
 2211SOL    HW213874   6.695   2.355   4.368 -0.0363 -0.3133  1.5329
 2212SOL     OW13875   5.698   4.023  12.709 -0.4164  0.0505 -0.1697
 2212SOL    HW113876   5.689   3.934  12.743  1.3192  0.1403  0.6857
 2212SOL    HW213877   5.739   4.012  12.623  0.1393  0.0247  0.0942
 2213SOL     OW13878   2.947  10.801   8.759 -0.4430  0.1021 -0.1877
 2213SOL    HW113879   2.865  10.830   8.717 -0.4849  1.0041  0.4887
 2213SOL    HW213880   2.918  10.748   8.833 -0.4112  0.2576 -0.0637
 2214SOL     OW13881   4.844   5.023   7.985  0.0122  0.5578 -0.1792
 2214SOL    HW113882   4.811   4.941   8.021 -0.8230  1.0748  0.2715
 2214SOL    HW213883   4.939   5.010   7.978  0.2144  0.3859  2.1303
 2215SOL     OW13884   6.635   9.593   6.356  0.2007 -0.2884 -0.3319
 2215SOL    HW113885   6.720   9.548   6.356  0.1047 -0.6033  1.6966
 2215SOL    HW213886   6.571   9.523   6.370 -0.3461  0.0286 -1.1715
 2216SOL     OW13887   1.322   1.449   3.696  0.3415  0.0647 -0.2195
 2216SOL    HW113888   1.378   1.525   3.680  1.5263 -0.2666  1.9971
 2216SOL    HW213889   1.271   1.473   3.774 -0.0430 -0.9896 -0.1324
 2217SOL     OW13890   4.484   1.012   9.897  0.0677  0.0772  0.4152
 2217SOL    HW113891   4.556   0.978   9.843 -1.0293  0.1598 -1.1535
 2217SOL    HW213892   4.518   1.007   9.987  1.9480 -0.0817 -0.2511
 2218SOL     OW13893   6.825   1.192   9.149  0.7301 -0.7825 -0.2342
 2218SOL    HW113894   6.771   1.202   9.070 -0.5856 -0.0707  0.7206
 2218SOL    HW213895   6.903   1.245   9.132 -0.5979  1.2848 -0.1558
 2219SOL     OW13896   3.395  12.596   7.638  0.3282  0.0330  0.4162
 2219SOL    HW113897   3.455  12.591   7.564  0.7451  1.2161  0.6518
 2219SOL    HW213898   3.396  12.688   7.664 -0.2944 -0.2414  1.4982
 2220SOL     OW13899   6.009  11.618   6.284  0.2058  0.4515  0.1487
 2220SOL    HW113900   6.038  11.531   6.255 -0.9652  0.2382 -0.4512
 2220SOL    HW213901   5.914  11.613   6.283  0.0979  2.0145 -0.7290
 2221SOL     OW13902   9.984  10.871   4.995  0.5012 -0.0302  0.0693
 2221SOL    HW113903   9.921  10.923   5.046  2.0764  1.5470  0.4693
 2221SOL    HW213904   9.929  10.818   4.937 -1.3901 -1.6014  3.0286
 2222SOL     OW13905   1.030   9.148   7.992  0.9020 -0.5256 -0.5124
 2222SOL    HW113906   0.952   9.116   7.947  0.2953 -1.0481  0.8427
 2222SOL    HW213907   0.996   9.192   8.070  1.7856  2.4108 -1.6582
 2223SOL     OW13908   9.979   1.148   3.911  0.1637  0.2758  0.6692
 2223SOL    HW113909   9.901   1.172   3.860  0.2894 -0.3892  0.1550
 2223SOL    HW213910   9.967   1.193   3.995 -0.7478  0.2345  0.5725
 2224SOL     OW13911   5.522   4.838   4.333 -0.4169 -0.2903  0.2791
 2224SOL    HW113912   5.527   4.851   4.428 -1.5843  0.0930  0.2931
 2224SOL    HW213913   5.525   4.743   4.322 -0.6566 -0.3518  0.7242
 2225SOL     OW13914  12.598   4.333   3.188 -0.4974  0.2758 -0.0208
 2225SOL    HW113915  12.615   4.336   3.282  0.7177  0.7417 -0.2312
 2225SOL    HW213916  12.581   4.423   3.163 -1.3016  0.0876 -0.1757
 2226SOL     OW13917  12.568   0.584   3.548 -0.4608  0.2136 -0.5163
 2226SOL    HW113918  12.625   0.521   3.504  0.7226  0.6125  0.4040
 2226SOL    HW213919  12.542   0.645   3.478  1.1295  0.6494 -0.7688
 2227SOL     OW13920   9.105   1.253  10.338 -0.9540  0.1167  0.5934
 2227SOL    HW113921   9.054   1.191  10.287 -1.1784  1.4376 -0.8958
 2227SOL    HW213922   9.042   1.321  10.363 -0.4990  0.3195  1.2043
 2228SOL     OW13923   0.204  11.324   4.141 -0.1009  0.6458 -0.5544
 2228SOL    HW113924   0.200  11.251   4.078 -0.9644 -0.4884  0.7520
 2228SOL    HW213925   0.288  11.312   4.185 -0.6363 -0.1285  0.2837
 2229SOL     OW13926   6.385   5.010   1.642 -0.1655  0.1980  0.1013
 2229SOL    HW113927   6.440   5.066   1.587 -1.0681  1.2195  0.2241
 2229SOL    HW213928   6.317   5.067   1.675  0.0942 -0.4881  1.9602
 2230SOL     OW13929   9.588   8.767   3.399  0.2310 -0.2996 -0.2918
 2230SOL    HW113930   9.591   8.679   3.362 -0.3175 -1.5096  2.3186
 2230SOL    HW213931   9.523   8.761   3.469  0.0376  2.2515 -0.1781
 2231SOL     OW13932   5.861   7.281  10.238  0.0034  0.4761 -0.1450
 2231SOL    HW113933   5.798   7.209  10.246 -1.4712  1.7301 -0.1936
 2231SOL    HW213934   5.946   7.237  10.236 -0.7143 -1.1646  1.8073
 2232SOL     OW13935  10.563   2.265  12.434  0.4576  0.2994 -0.0670
 2232SOL    HW113936  10.655   2.253  12.413  0.7955  1.1015  0.8640
 2232SOL    HW213937  10.549   2.359  12.426 -0.3134  0.1661 -0.3352
 2233SOL     OW13938   3.308  10.061   0.222 -0.1435 -0.5390  0.2183
 2233SOL    HW113939   3.362  10.118   0.168 -0.4253 -0.9700 -0.5341
 2233SOL    HW213940   3.355  10.053   0.305  1.8133 -2.2452 -0.9683
 2234SOL     OW13941   2.161   2.089  11.156  0.2273 -0.5013  0.1222
 2234SOL    HW113942   2.232   2.032  11.188 -0.9839 -2.2436 -0.1523
 2234SOL    HW213943   2.207   2.164  11.118  1.8993 -1.1187  0.8028
 2235SOL     OW13944   6.292   0.616   3.713 -0.7058 -0.4470  0.8092
 2235SOL    HW113945   6.387   0.612   3.725 -0.2378  0.8958 -1.8770
 2235SOL    HW213946   6.261   0.661   3.792  0.7887 -1.2487  1.9254
 2236SOL     OW13947   2.667  10.491   3.327 -0.0039  0.4806 -0.7583
 2236SOL    HW113948   2.586  10.522   3.287 -0.5113 -3.0311 -2.9023
 2236SOL    HW213949   2.736  10.541   3.283 -0.8542  0.3465 -2.3464
 2237SOL     OW13950   8.336   1.787   9.737 -0.0396 -0.6975 -0.7122
 2237SOL    HW113951   8.320   1.876   9.767  2.4694 -0.6368  0.7018
 2237SOL    HW213952   8.275   1.774   9.665 -0.6074  2.0858 -0.8116
 2238SOL     OW13953  12.448   8.270   4.407  0.1986 -0.0552  0.0204
 2238SOL    HW113954  12.515   8.331   4.439  0.4859 -0.9217  1.1407
 2238SOL    HW213955  12.395   8.251   4.484 -0.3102 -0.6864 -0.4772
 2239SOL     OW13956   7.898   1.166   4.118  0.0277 -0.5149  0.0008
 2239SOL    HW113957   7.849   1.217   4.054 -0.9014 -0.6994  0.5420
 2239SOL    HW213958   7.831   1.129   4.175  0.8712  0.7827  1.9493
 2240SOL     OW13959   0.428   2.273   8.564 -0.6461 -0.1922  0.1945
 2240SOL    HW113960   0.388   2.238   8.644 -0.5695  0.6370  0.6045
 2240SOL    HW213961   0.358   2.272   8.499 -0.6614 -1.0431  0.2086
 2241SOL     OW13962   1.309   2.992   9.196 -0.2567 -0.1388  0.0123
 2241SOL    HW113963   1.252   3.013   9.122 -0.5911 -2.2687 -0.4065
 2241SOL    HW213964   1.253   2.948   9.258  0.3200  0.4314  0.9626
 2242SOL     OW13965   2.817  12.053   7.524  0.2179  0.6113 -0.5911
 2242SOL    HW113966   2.859  12.134   7.495 -1.2432  0.9670 -1.8242
 2242SOL    HW213967   2.881  11.984   7.504  1.0884  1.3477 -0.4093
 2243SOL     OW13968   2.560   4.280  10.589 -0.0757 -0.5372  0.0649
 2243SOL    HW113969   2.476   4.274  10.635  1.1380  0.0442  2.5546
 2243SOL    HW213970   2.571   4.373  10.572  0.7883 -0.3933  1.2925
 2244SOL     OW13971  12.415   7.098   1.318 -0.4475  0.0299 -0.1533
 2244SOL    HW113972  12.482   7.140   1.372 -0.2813  0.0852 -0.4048
 2244SOL    HW213973  12.421   7.140   1.233 -1.4885  0.7617  0.1106
 2245SOL     OW13974  10.842   4.508  12.041  0.0865  0.2828  0.0137
 2245SOL    HW113975  10.829   4.555  12.124  2.0622 -0.1849  0.6427
 2245SOL    HW213976  10.754   4.483  12.014 -0.5286 -1.5922  3.1980
 2246SOL     OW13977   1.750  10.847  12.529  0.1012 -0.1317  1.0845
 2246SOL    HW113978   1.779  10.891  12.608 -0.7622 -0.8032  1.8037
 2246SOL    HW213979   1.726  10.918  12.469  0.8329  0.3834  1.3901
 2247SOL     OW13980   8.943   8.306   9.420  0.0613  0.1661  0.0146
 2247SOL    HW113981   8.975   8.383   9.466  1.3558 -0.0860 -0.4415
 2247SOL    HW213982   8.874   8.339   9.362  0.4547  0.9439 -0.0179
 2248SOL     OW13983  12.205   8.391   6.786  0.3008 -0.0918  0.2495
 2248SOL    HW113984  12.271   8.390   6.854  1.5703 -0.9642 -0.9351
 2248SOL    HW213985  12.210   8.304   6.746 -2.2841 -0.5644  0.7614
 2249SOL     OW13986  10.051  10.317   2.844 -0.1471  0.6248 -0.4881
 2249SOL    HW113987  10.048  10.267   2.925  0.4003  0.0650 -0.7976
 2249SOL    HW213988   9.971  10.291   2.797 -0.7818  1.4236  0.1294
 2250SOL     OW13989   0.659   1.910   9.062  0.6017  0.0869  0.4626
 2250SOL    HW113990   0.671   1.954   9.147 -0.8509 -0.8442  1.1960
 2250SOL    HW213991   0.608   1.833   9.083 -0.1195  0.0368 -1.3443
 2251SOL     OW13992   1.682   1.779   6.729  0.1728 -0.5323 -0.6325
 2251SOL    HW113993   1.769   1.801   6.695  1.4236 -2.2946  1.2084
 2251SOL    HW213994   1.659   1.854   6.784  0.1875  0.2369 -1.6370
 2252SOL     OW13995  11.090   5.187  11.380 -0.5720  0.2340  0.1193
 2252SOL    HW113996  11.087   5.110  11.323  2.3360  1.3461 -1.7619
 2252SOL    HW213997  11.086   5.262  11.321 -0.4540  1.5030  1.6487
 2253SOL     OW13998  11.929   1.144   8.238 -0.0912 -0.1370  0.0861
 2253SOL    HW113999  11.944   1.212   8.304  1.4756 -0.3185 -0.0365
 2253SOL    HW214000  11.901   1.192   8.160 -0.3632  0.2331  0.4087
 2254SOL     OW14001   2.846  10.468   9.702  0.7550  0.0524 -0.6203
 2254SOL    HW114002   2.762  10.461   9.657 -0.0877 -0.6179  0.9544
 2254SOL    HW214003   2.865  10.379   9.732  1.4789  0.3936 -0.0237
 2255SOL     OW14004   7.069   6.556   8.099 -0.5103 -0.4684  0.0658
 2255SOL    HW114005   7.107   6.475   8.064  0.6403  0.0277  0.1191
 2255SOL    HW214006   7.016   6.528   8.174  0.7793 -1.0736  0.7781
 2256SOL     OW14007   9.513   8.840   6.357 -0.5263 -0.9108  0.4167
 2256SOL    HW114008   9.483   8.857   6.267 -1.3346  0.1329  0.8584
 2256SOL    HW214009   9.517   8.744   6.363 -2.8419 -1.1082 -0.0255
 2257SOL     OW14010   5.755  12.521   1.912 -0.6279 -0.1603 -0.3502
 2257SOL    HW114011   5.690  12.589   1.898 -0.1576  0.2579 -0.5679
 2257SOL    HW214012   5.733  12.453   1.849 -1.1011 -0.2086 -0.1317
 2258SOL     OW14013   3.451   1.688   8.585 -0.1080  0.2228  0.3951
 2258SOL    HW114014   3.399   1.701   8.505 -0.0259 -2.3057 -0.1594
 2258SOL    HW214015   3.399   1.628   8.638 -0.7800  2.8245  2.9757
 2259SOL     OW14016  11.008   7.286  11.766 -0.7131 -0.6777 -0.1731
 2259SOL    HW114017  11.085   7.322  11.810 -0.3335 -2.1342  0.4198
 2259SOL    HW214018  11.022   7.305  11.673 -0.0868 -0.1313  0.0259
 2260SOL     OW14019   1.665   9.948   5.118  0.4061  0.0516  0.1538
 2260SOL    HW114020   1.651  10.034   5.156 -1.7654 -0.3617  0.4137
 2260SOL    HW214021   1.577   9.912   5.106  0.8186 -0.0532 -4.8897
 2261SOL     OW14022   7.028  10.753  10.728  0.2062  0.9129 -0.4078
 2261SOL    HW114023   7.121  10.770  10.742 -0.5786  3.8051  2.5398
 2261SOL    HW214024   6.999  10.709  10.808 -1.1730  1.0648 -0.7939
 2262SOL     OW14025   9.731  11.629   9.769  0.2318 -0.5118  0.0752
 2262SOL    HW114026   9.798  11.643   9.703  0.2134 -1.5628 -0.1812
 2262SOL    HW214027   9.659  11.586   9.722 -1.5185  2.3865 -0.1383
 2263SOL     OW14028   7.232   2.098   4.541 -0.4642  0.1002  0.2676
 2263SOL    HW114029   7.301   2.048   4.584 -0.8754 -0.2259  0.5503
 2263SOL    HW214030   7.165   2.034   4.520 -0.0364  0.1488 -1.3889
 2264SOL     OW14031  10.149   0.464   0.714 -0.2670  0.0178 -0.0568
 2264SOL    HW114032  10.061   0.425   0.717 -0.6795  0.8985 -0.5107
 2264SOL    HW214033  10.149   0.529   0.784  0.4520 -0.8138  0.7540
 2265SOL     OW14034   4.119  10.026   8.748  0.1937 -0.2685  0.3340
 2265SOL    HW114035   4.074   9.983   8.676 -0.3932  0.2656  0.3765
 2265SOL    HW214036   4.181  10.086   8.706 -0.4117  0.3196  0.2601
 2266SOL     OW14037   8.470  12.609   8.786 -0.1970  0.4116  0.2623
 2266SOL    HW114038   8.503  12.695   8.762  1.3041 -0.1730  0.1198
 2266SOL    HW214039   8.388  12.627   8.832 -1.2127  1.7629 -1.8902
 2267SOL     OW14040  11.308   8.151   4.055 -0.4629  0.3491 -0.3400
 2267SOL    HW114041  11.376   8.131   4.120 -0.3432  0.0579 -0.5538
 2267SOL    HW214042  11.346   8.222   4.003 -0.3473  0.2279 -0.4219
 2268SOL     OW14043   1.165  11.282   5.132  0.2173  0.1232  0.2929
 2268SOL    HW114044   1.097  11.285   5.199  0.8157  0.0685  0.9107
 2268SOL    HW214045   1.245  11.259   5.179  0.9888  1.7466 -0.1703
 2269SOL     OW14046   5.775  12.698   3.214  0.0403 -0.1770  0.8031
 2269SOL    HW114047   5.800  12.759   3.145 -1.7188 -0.9380 -0.5914
 2269SOL    HW214048   5.738  12.753   3.283  0.3090  0.4605  0.4474
 2270SOL     OW14049   7.564  10.726   7.104  0.3325 -0.0458 -0.0966
 2270SOL    HW114050   7.586  10.770   7.022 -0.4553 -1.7359 -1.2653
 2270SOL    HW214051   7.475  10.756   7.124  0.6486  0.6316  0.3727
 2271SOL     OW14052  10.537   8.092   4.888 -0.2094  0.7531 -0.4337
 2271SOL    HW114053  10.493   8.157   4.943 -0.7349 -0.5411  0.7345
 2271SOL    HW214054  10.626   8.086   4.923 -0.1855  0.7965 -0.4885
 2272SOL     OW14055   9.981   2.031  11.584 -0.2206  0.1262  0.2769
 2272SOL    HW114056   9.913   2.021  11.650  0.9331 -0.7835  1.3776
 2272SOL    HW214057   9.971   1.956  11.526  1.5475 -1.6278  2.0968
 2273SOL     OW14058   6.568  10.453   6.989  0.5031 -0.0764 -0.0585
 2273SOL    HW114059   6.542  10.450   6.897 -0.0916 -0.4100  0.1174
 2273SOL    HW214060   6.621  10.532   6.997 -1.0321  1.0071 -0.2748
 2274SOL     OW14061  10.662   5.751   6.272  0.4297  0.5142  0.6641
 2274SOL    HW114062  10.710   5.676   6.236  0.0157  0.7180 -0.3521
 2274SOL    HW214063  10.724   5.793   6.331  0.4599 -0.9793  1.7384
 2275SOL     OW14064   1.384   3.396  11.203  0.0917 -0.5867 -0.3077
 2275SOL    HW114065   1.431   3.349  11.271 -1.7238 -0.9055  0.8012
 2275SOL    HW214066   1.301   3.348  11.194 -0.8855  1.0971 -0.7080
 2276SOL     OW14067   0.651   7.388   1.937  0.3105  0.2563 -0.2660
 2276SOL    HW114068   0.700   7.306   1.929  1.8540  1.2425 -1.5714
 2276SOL    HW214069   0.715   7.450   1.975 -0.0098  1.4819 -1.6410
 2277SOL     OW14070  11.370   7.429   4.302 -0.1172 -0.2854  0.0677
 2277SOL    HW114071  11.426   7.425   4.225 -0.3667  1.5698 -0.2562
 2277SOL    HW214072  11.282   7.445   4.266 -0.3032  0.1483  0.7065
 2278SOL     OW14073   4.197   1.695   6.351 -0.5416  0.1026  0.1198
 2278SOL    HW114074   4.207   1.778   6.398  0.4719 -0.9801  1.9444
 2278SOL    HW214075   4.115   1.658   6.383 -0.3201 -0.2112  0.3330
 2279SOL     OW14076   4.279   6.981  12.102  0.1961  0.0448  0.3599
 2279SOL    HW114077   4.250   7.059  12.150 -0.0285  0.3311 -0.2312
 2279SOL    HW214078   4.360   6.955  12.145 -0.3888 -0.1594  1.3856
 2280SOL     OW14079   3.924   2.961   0.904 -0.0575 -0.1298  0.0854
 2280SOL    HW114080   4.008   3.004   0.885  0.3883 -0.5725  0.9741
 2280SOL    HW214081   3.948   2.886   0.959 -1.1664  0.4911  1.4589
 2281SOL     OW14082   4.242   9.186   9.546  0.0845 -0.0442  0.6459
 2281SOL    HW114083   4.332   9.157   9.531 -0.0585  0.3363 -1.1245
 2281SOL    HW214084   4.250   9.280   9.565  0.0377  0.0492  0.2043
 2282SOL     OW14085   2.956   5.103   4.704  0.0198  0.3708 -0.1690
 2282SOL    HW114086   3.051   5.098   4.710 -0.0009  0.1128 -0.0409
 2282SOL    HW214087   2.937   5.104   4.610  0.0513 -1.6834 -0.2449
 2283SOL     OW14088   7.824   4.825   8.949 -0.4327 -0.5869 -0.0359
 2283SOL    HW114089   7.882   4.883   8.899  1.3734 -0.9115  1.5626
 2283SOL    HW214090   7.828   4.742   8.903 -2.1987  0.1971 -1.7346
 2284SOL     OW14091   2.232  11.835  10.720  0.0061 -0.4158 -0.3245
 2284SOL    HW114092   2.269  11.757  10.677 -0.5167 -1.7127  1.4535
 2284SOL    HW214093   2.164  11.801  10.777  1.1612  1.0871  2.1086
 2285SOL     OW14094   0.339   7.853   6.648  0.1505  0.0229  0.1420
 2285SOL    HW114095   0.398   7.897   6.710  0.3154  1.3126 -0.8719
 2285SOL    HW214096   0.265   7.824   6.701  0.7038  0.2854  1.0842
 2286SOL     OW14097   0.941  12.545  10.645 -0.0574  0.1093  0.4909
 2286SOL    HW114098   0.850  12.573  10.655 -0.3659  0.0855 -1.7337
 2286SOL    HW214099   0.961  12.498  10.727 -1.2040  2.1747  2.0518
 2287SOL     OW14100   7.981   2.873   4.324  0.0941 -0.0533  0.4229
 2287SOL    HW114101   7.956   2.866   4.416  0.6048  3.5743  0.9853
 2287SOL    HW214102   7.908   2.836   4.275 -1.3031  0.2043  2.2553
 2288SOL     OW14103   1.831   8.610  11.123  0.1328  0.0313 -0.2659
 2288SOL    HW114104   1.850   8.611  11.217 -0.1307  0.3073 -0.2168
 2288SOL    HW214105   1.736   8.601  11.118  0.2612 -1.4298 -0.5150
 2289SOL     OW14106   8.075   9.653  12.538  0.9909  0.5143 -0.0475
 2289SOL    HW114107   8.098   9.684  12.450 -0.9428 -1.2825 -1.3134
 2289SOL    HW214108   8.096   9.559  12.536  1.1758  0.4914  1.5327
 2290SOL     OW14109  12.060   8.197   9.990  0.2352  0.0833  0.1248
 2290SOL    HW114110  12.007   8.175   9.913  1.6429  0.3973 -0.9733
 2290SOL    HW214111  11.999   8.191  10.064 -1.0663 -0.5743 -0.9654
 2291SOL     OW14112   7.998   8.848   4.228  0.0635 -0.4534 -0.3698
 2291SOL    HW114113   7.946   8.768   4.215 -2.1006  0.8922 -0.5924
 2291SOL    HW214114   8.041   8.862   4.144 -1.9261  0.1362 -1.3704
 2292SOL     OW14115   7.039   6.273   5.976  0.5161  0.8624  0.0669
 2292SOL    HW114116   6.957   6.238   5.942  0.4118  0.7947  0.3786
 2292SOL    HW214117   7.081   6.316   5.901  0.5643  0.2268 -0.2708
 2293SOL     OW14118   6.372   6.271   8.125 -0.1149  0.0403 -0.5488
 2293SOL    HW114119   6.415   6.217   8.058  0.2538 -2.2103  1.3733
 2293SOL    HW214120   6.427   6.349   8.130  1.5132 -1.0090 -0.9438
 2294SOL     OW14121  10.542  11.508   7.091  0.2593  0.0395 -0.0944
 2294SOL    HW114122  10.505  11.542   7.009 -0.2645  1.4742  0.6994
 2294SOL    HW214123  10.566  11.586   7.141  2.5556 -0.8053  0.2807
 2295SOL     OW14124  11.524   0.492   5.467 -0.4184 -0.1083  0.0378
 2295SOL    HW114125  11.589   0.542   5.418 -1.3282  0.5063 -0.5950
 2295SOL    HW214126  11.486   0.555   5.528 -0.4951 -0.4347  0.3324
 2296SOL     OW14127   5.802   8.941   6.280 -0.4934 -0.1067 -0.7032
 2296SOL    HW114128   5.830   8.974   6.195  0.3944  0.7139 -0.1157
 2296SOL    HW214129   5.731   9.000   6.307  0.2501  0.5999 -0.2168
 2297SOL     OW14130  10.882   4.904   8.807 -0.3695  0.2686  0.4940
 2297SOL    HW114131  10.884   4.981   8.864  0.3889  0.6107  0.0291
 2297SOL    HW214132  10.895   4.830   8.865 -0.0879  0.5756  0.8257
 2298SOL     OW14133   5.077   1.276   4.404 -0.2679 -0.3639  0.6832
 2298SOL    HW114134   5.001   1.225   4.431 -1.1436  0.8819  0.6480
 2298SOL    HW214135   5.106   1.235   4.322  1.2711 -3.0116  2.4006
 2299SOL     OW14136   0.443   5.865  12.052  0.2228  0.5216 -0.0690
 2299SOL    HW114137   0.491   5.936  12.008 -0.1515  1.0030  0.2800
 2299SOL    HW214138   0.378   5.911  12.105  1.1556 -0.0049  1.6003
 2300SOL     OW14139   8.114   9.573   6.204  0.0377 -0.1020 -0.1738
 2300SOL    HW114140   8.074   9.654   6.172  0.1427 -1.0949 -3.2055
 2300SOL    HW214141   8.044   9.509   6.201  0.6232 -0.7377 -0.6323
 2301SOL     OW14142  11.376   0.780  12.409  0.5554 -0.2901  0.0077
 2301SOL    HW114143  11.334   0.838  12.345 -0.2064 -0.1929  0.5858
 2301SOL    HW214144  11.469   0.802  12.403  0.3526  0.5533 -0.2238
 2302SOL     OW14145   9.107   5.501  11.789 -0.5143 -0.4276 -0.4341
 2302SOL    HW114146   9.045   5.435  11.821  0.5967 -1.4715 -0.3739
 2302SOL    HW214147   9.175   5.504  11.856 -1.1286  1.7069  0.1873
 2303SOL     OW14148   1.355   4.621  11.556  0.3533 -0.2985 -0.4706
 2303SOL    HW114149   1.449   4.632  11.570  0.2401  0.1089 -0.0147
 2303SOL    HW214150   1.314   4.686  11.612 -0.1855 -0.0416 -1.1436
 2304SOL     OW14151  12.100  11.773   9.378  0.7046 -0.0949 -0.1361
 2304SOL    HW114152  12.124  11.695   9.427 -0.5187 -0.7166 -0.4792
 2304SOL    HW214153  12.184  11.816   9.359  1.4057 -1.3229  0.0480
 2305SOL     OW14154  12.207   6.726   2.598  0.7681 -0.0040  0.0880
 2305SOL    HW114155  12.277   6.668   2.627  1.3618 -1.4566 -3.7321
 2305SOL    HW214156  12.133   6.668   2.579  1.3273  0.2579 -3.6871
 2306SOL     OW14157  12.395   9.568   8.840  0.1949  0.2550 -0.0861
 2306SOL    HW114158  12.459   9.497   8.831  0.5666  0.7310 -1.6199
 2306SOL    HW214159  12.439   9.636   8.891  0.0829 -0.3175  0.7914
 2307SOL     OW14160   6.674   0.676  12.469  0.9215 -0.4694  0.4880
 2307SOL    HW114161   6.751   0.701  12.519 -0.6647  0.5370  2.5973
 2307SOL    HW214162   6.611   0.645  12.535 -0.7885 -0.4463 -1.0322
 2308SOL     OW14163   1.334  11.663   6.467  0.1648  0.6341  0.2301
 2308SOL    HW114164   1.368  11.595   6.408 -0.7644 -0.0514  0.4573
 2308SOL    HW214165   1.251  11.689   6.429 -1.2402 -0.9510  2.0055
 2309SOL     OW14166   7.663   1.213   0.994  0.1093  0.2036  0.1679
 2309SOL    HW114167   7.732   1.163   1.037 -0.3389  0.3572  1.0971
 2309SOL    HW214168   7.674   1.302   1.027 -0.0124  0.4077 -0.3327
 2310SOL     OW14169  11.809   7.245  11.068  0.4590  0.3453  0.2170
 2310SOL    HW114170  11.842   7.166  11.112 -1.1415  0.9767  2.7552
 2310SOL    HW214171  11.882   7.306  11.071  1.5863 -0.8214 -1.4238
 2311SOL     OW14172   0.865   3.190   6.818  0.1981  0.1799  0.9867
 2311SOL    HW114173   0.914   3.240   6.884  0.6152 -0.5848  1.2831
 2311SOL    HW214174   0.776   3.224   6.823  0.5098  1.0198  1.0354
 2312SOL     OW14175   1.993   0.336   8.749  0.3685 -0.8188 -0.6151
 2312SOL    HW114176   2.085   0.352   8.771  0.5065 -0.7841 -1.1784
 2312SOL    HW214177   1.944   0.365   8.826  0.9225 -2.3718  0.3538
 2313SOL     OW14178  12.696   7.819   8.640 -0.6108 -0.0187 -0.9246
 2313SOL    HW114179  12.677   7.807   8.547  0.1200 -0.7903 -0.9824
 2313SOL    HW214180  12.786   7.852   8.643 -0.2655 -0.9620 -0.4569
 2314SOL     OW14181   7.052   5.863   8.293 -0.0655  0.2146  0.5028
 2314SOL    HW114182   6.992   5.799   8.332  1.6347 -1.1387  1.0140
 2314SOL    HW214183   7.047   5.939   8.351 -1.6379  0.3381  0.2477
 2315SOL     OW14184   4.745   8.712   0.311  0.3246  0.1076  0.2053
 2315SOL    HW114185   4.726   8.697   0.404 -0.6817  0.0784  0.0139
 2315SOL    HW214186   4.835   8.683   0.299  0.9117  1.3233  1.4461
 2316SOL     OW14187   0.674  11.367   8.304 -0.4579 -0.1857 -0.5359
 2316SOL    HW114188   0.714  11.367   8.217  0.4975 -1.8397 -0.1462
 2316SOL    HW214189   0.586  11.331   8.289 -1.1713  1.6627 -1.1069
 2317SOL     OW14190  11.139   0.491   5.516  0.3343  0.3285  0.0849
 2317SOL    HW114191  11.047   0.473   5.533  0.2977 -0.0126 -0.4585
 2317SOL    HW214192  11.185   0.449   5.589  0.1020 -0.0421  0.0202
 2318SOL     OW14193   4.457   9.242  11.734 -0.0744  0.0520  0.1160
 2318SOL    HW114194   4.542   9.213  11.699 -0.2542  0.8441 -1.0268
 2318SOL    HW214195   4.400   9.166  11.726  0.1541 -0.0641 -0.4343
 2319SOL     OW14196   4.953  11.347   3.971 -0.5542 -0.1742 -0.0108
 2319SOL    HW114197   4.873  11.399   3.964  0.3307  1.2857  0.3693
 2319SOL    HW214198   4.959  11.300   3.888 -0.6408  1.4378 -0.9597
 2320SOL     OW14199   8.197   3.640  11.010 -0.0773 -0.3776 -0.2234
 2320SOL    HW114200   8.142   3.562  11.020  0.4696 -0.9661 -1.6724
 2320SOL    HW214201   8.286   3.608  11.020  0.1679  0.0148 -1.1171
 2321SOL     OW14202   1.044  11.559  11.856  0.0337  0.6221  0.3229
 2321SOL    HW114203   1.038  11.467  11.833  0.1081  0.6648  0.1358
 2321SOL    HW214204   1.107  11.562  11.928 -1.4314  0.2749  1.7021
 2322SOL     OW14205   7.594   0.414  10.702  0.3442 -0.2717  0.4529
 2322SOL    HW114206   7.606   0.426  10.796  0.6833 -0.2098  0.4026
 2322SOL    HW214207   7.533   0.341  10.694 -1.1257  0.8568  0.7653
 2323SOL     OW14208  11.110  10.642   3.431  0.0182  0.0005  0.1241
 2323SOL    HW114209  11.082  10.551   3.429 -1.7151  0.4685  1.1242
 2323SOL    HW214210  11.178  10.645   3.498  0.5976 -0.6619 -0.4184
 2324SOL     OW14211   6.058   8.713   4.702  0.1022  0.1620 -0.1174
 2324SOL    HW114212   6.080   8.631   4.745 -1.3723 -0.8637 -1.2300
 2324SOL    HW214213   5.980   8.694   4.650 -0.9283  2.5414  0.4070
 2325SOL     OW14214   8.530   9.391   8.075  0.1886 -0.0524  0.4582
 2325SOL    HW114215   8.507   9.298   8.066  0.7726 -0.2675  1.0741
 2325SOL    HW214216   8.451   9.432   8.110  0.6681 -0.7781  2.5435
 2326SOL     OW14217   4.957   6.109   7.509  0.1598  0.0710 -0.3854
 2326SOL    HW114218   4.952   6.162   7.589 -1.0541  0.6367 -0.8170
 2326SOL    HW214219   5.032   6.146   7.461  0.6001  0.0399  0.2626
 2327SOL     OW14220   7.273  10.004   7.863 -0.2901 -0.1465  0.4565
 2327SOL    HW114221   7.349   9.980   7.809  0.6135  0.2632  1.5197
 2327SOL    HW214222   7.199   9.994   7.804  0.5084 -1.2146 -0.4288
 2328SOL     OW14223   7.348   5.618   8.949  0.3155 -0.0416 -0.4404
 2328SOL    HW114224   7.433   5.658   8.969  0.9782 -1.8614  0.6048
 2328SOL    HW214225   7.368   5.528   8.924 -1.3081 -0.5540 -0.0646
 2329SOL     OW14226   8.317   7.097   2.361 -0.0170  0.7207 -0.0159
 2329SOL    HW114227   8.369   7.037   2.415 -0.6370  0.2703  0.0990
 2329SOL    HW214228   8.368   7.178   2.359 -0.3431  1.0251  1.8939
 2330SOL     OW14229  11.670   4.688   7.562 -0.2276 -0.0348 -0.0458
 2330SOL    HW114230  11.725   4.610   7.560 -1.3823 -0.8763 -1.5780
 2330SOL    HW214231  11.643   4.697   7.653 -2.1442 -2.9726 -0.2187
 2331SOL     OW14232   5.560   4.673  11.966  0.3838  0.1350 -0.5498
 2331SOL    HW114233   5.568   4.601  12.029  0.6620  1.4368  0.9501
 2331SOL    HW214234   5.468   4.698  11.969 -0.3415 -1.7469 -2.9908
 2332SOL     OW14235  10.252   0.397  11.188  0.3527  0.3868 -0.5870
 2332SOL    HW114236  10.171   0.350  11.170  1.2127 -1.4601  0.1060
 2332SOL    HW214237  10.224   0.479  11.229 -1.1365 -0.5575  0.3845
 2333SOL     OW14238   0.438   6.918   7.973 -0.2686  0.1486  0.1350
 2333SOL    HW114239   0.463   6.946   8.061 -1.0511 -1.4855  0.9107
 2333SOL    HW214240   0.372   6.981   7.946  0.1836  0.8339  0.5770
 2334SOL     OW14241   7.065   6.188   0.865 -0.4961  0.0923 -0.0993
 2334SOL    HW114242   7.091   6.254   0.801  1.3063 -1.3938 -0.9807
 2334SOL    HW214243   7.130   6.195   0.935  0.2331 -1.2835 -0.6092
 2335SOL     OW14244  11.992   6.089  11.261  0.0334 -0.3494 -0.1750
 2335SOL    HW114245  12.042   6.113  11.183  1.1291 -1.8646  0.0082
 2335SOL    HW214246  11.976   6.173  11.306 -0.9754  0.5921 -2.1819
 2336SOL     OW14247   3.038   2.037   6.523  0.1205  0.1473 -0.0289
 2336SOL    HW114248   3.079   1.966   6.573  1.3542  1.0197  0.2051
 2336SOL    HW214249   3.012   1.995   6.440  2.5222 -0.2021 -0.6843
 2337SOL     OW14250  10.913   3.252  11.267  0.5308  0.4423  0.0244
 2337SOL    HW114251  10.852   3.268  11.195  1.6850 -1.1785 -1.3953
 2337SOL    HW214252  11.000   3.251  11.225  1.1379 -1.7996  1.1733
 2338SOL     OW14253   6.169   5.538   7.759 -0.5990 -0.3697 -0.1146
 2338SOL    HW114254   6.225   5.538   7.836  0.7023 -2.0847 -1.0060
 2338SOL    HW214255   6.085   5.505   7.790 -0.2488 -0.5538  0.6640
 2339SOL     OW14256  10.420   3.956   8.490  0.2294 -0.0737  0.8766
 2339SOL    HW114257  10.460   4.035   8.454  0.7608  0.5257  2.6974
 2339SOL    HW214258  10.452   3.886   8.433  0.1260  0.9224 -0.4855
 2340SOL     OW14259   2.839   6.526   1.637 -0.6703  0.3051  0.5102
 2340SOL    HW114260   2.753   6.538   1.677 -0.5091 -1.2744  1.4399
 2340SOL    HW214261   2.834   6.439   1.596  0.5013  0.1647  0.6419
 2341SOL     OW14262   7.185  10.394   7.688  0.0571 -0.5367  0.0127
 2341SOL    HW114263   7.144  10.309   7.675 -0.9778  0.1271 -1.2741
 2341SOL    HW214264   7.114  10.451   7.717  0.0173  0.5872 -2.0744
 2342SOL     OW14265   8.302   0.392   9.724  0.2530 -0.2863 -0.1563
 2342SOL    HW114266   8.388   0.429   9.706  1.4485 -2.5793  0.3781
 2342SOL    HW214267   8.286   0.411   9.816  0.1454  0.1903 -0.2706
 2343SOL     OW14268   8.293   0.380   1.908 -0.5449  0.0112  0.1278
 2343SOL    HW114269   8.383   0.412   1.900 -0.6757  0.5606  0.7089
 2343SOL    HW214270   8.300   0.304   1.966 -0.6158  0.9453  1.4231
 2344SOL     OW14271   0.380   6.364  10.104 -0.0087 -0.0807 -0.3637
 2344SOL    HW114272   0.414   6.420  10.173 -0.4763  0.5060 -0.6010
 2344SOL    HW214273   0.430   6.389  10.026  0.1413 -0.3572 -0.3561
 2345SOL     OW14274  10.036   4.811   5.173 -0.7861 -0.0515 -0.3542
 2345SOL    HW114275  10.113   4.824   5.229 -1.4138 -0.8705  0.7411
 2345SOL    HW214276  10.068   4.825   5.084  0.8917 -1.4781 -0.0316
 2346SOL     OW14277   0.307   1.477  11.914 -0.5140  0.6373 -0.2908
 2346SOL    HW114278   0.362   1.449  11.841  1.4496  0.1425  1.2913
 2346SOL    HW214279   0.283   1.395  11.958 -0.0314  1.0112  0.7075
 2347SOL     OW14280   3.402   9.685   4.782 -0.4160 -0.3193  0.0899
 2347SOL    HW114281   3.451   9.645   4.711 -0.6429 -0.4284 -0.0043
 2347SOL    HW214282   3.403   9.779   4.762  1.0146 -0.1331  0.8555
 2348SOL     OW14283  10.126   7.115   2.580  0.1189 -0.5495  0.1009
 2348SOL    HW114284  10.169   7.154   2.656 -0.2135 -0.0424  0.0330
 2348SOL    HW214285  10.047   7.074   2.616 -0.1993 -0.0457 -0.0043
 2349SOL     OW14286   9.776   3.594   5.500  0.9404  0.2818 -0.4640
 2349SOL    HW114287   9.825   3.646   5.564 -0.9666  0.6926  0.7586
 2349SOL    HW214288   9.756   3.657   5.430  0.0938  0.8002  0.2118
 2350SOL     OW14289   9.437   5.419   3.594 -0.1879  0.4580 -0.6523
 2350SOL    HW114290   9.347   5.414   3.562 -0.3757  0.6845 -0.1704
 2350SOL    HW214291   9.445   5.508   3.628  0.0907  0.3039 -0.3155
 2351SOL     OW14292   4.373  10.219  11.011  0.1396 -0.1132 -0.2144
 2351SOL    HW114293   4.287  10.190  10.979  0.4252  0.2795 -1.3721
 2351SOL    HW214294   4.361  10.312  11.029 -0.0201 -0.3326  0.8580
 2352SOL     OW14295   2.338   2.864   9.594 -0.5154  0.1042 -0.0066
 2352SOL    HW114296   2.425   2.826   9.604 -0.2895  0.7627  0.5362
 2352SOL    HW214297   2.341   2.946   9.642 -1.2089  0.4981 -0.6106
 2353SOL     OW14298   6.740   3.035   0.122  0.2731  0.1033 -0.0680
 2353SOL    HW114299   6.673   3.066   0.060  0.3649  0.6260  0.0917
 2353SOL    HW214300   6.823   3.059   0.081  0.3447  0.0960  0.0754
 2354SOL     OW14301   9.750   9.387   8.653  0.0883  0.4235 -0.2281
 2354SOL    HW114302   9.729   9.293   8.650 -2.1711  0.5876  3.3852
 2354SOL    HW214303   9.668   9.429   8.680  2.2343  2.6191  3.9689
 2355SOL     OW14304  10.488  10.198   2.572 -0.9370 -0.3062  0.0757
 2355SOL    HW114305  10.434  10.145   2.514 -0.1053 -0.5710 -0.4845
 2355SOL    HW214306  10.432  10.217   2.647 -1.4824 -1.3999 -0.0302
 2356SOL     OW14307   5.654   9.225   6.562 -0.0883 -0.1984  0.0402
 2356SOL    HW114308   5.680   9.162   6.629  1.0210 -0.6289 -0.7456
 2356SOL    HW214309   5.716   9.297   6.570 -0.2274 -0.0454 -0.2249
 2357SOL     OW14310   8.584   1.616   6.739  0.0056  0.0916 -0.0123
 2357SOL    HW114311   8.643   1.568   6.680 -0.1586 -1.0789  0.7497
 2357SOL    HW214312   8.527   1.665   6.680 -1.1273 -2.1789 -0.9504
 2358SOL     OW14313  10.405  11.560   3.943  0.0800  0.2246 -0.1377
 2358SOL    HW114314  10.411  11.466   3.925 -0.6322  0.1608 -0.0915
 2358SOL    HW214315  10.434  11.568   4.034  2.4506  0.3813 -0.8596
 2359SOL     OW14316   7.671   6.999  10.940 -0.2305  0.1540  0.5797
 2359SOL    HW114317   7.677   6.934  11.010  3.7888  0.1948  0.5430
 2359SOL    HW214318   7.688   6.949  10.860 -1.0689  0.6785  0.0601
 2360SOL     OW14319  11.590   1.673   8.340  0.7456 -0.2000 -0.0745
 2360SOL    HW114320  11.605   1.699   8.430 -0.1837  0.5624 -0.1140
 2360SOL    HW214321  11.516   1.613   8.344  0.8937 -0.3970 -0.2909
 2361SOL     OW14322   0.599   4.374  10.888  0.5238  0.5095 -0.7371
 2361SOL    HW114323   0.550   4.446  10.927  1.3086  1.0184 -0.6878
 2361SOL    HW214324   0.668   4.416  10.837  0.3786 -0.1808 -1.5234
 2362SOL     OW14325   6.824  10.861   3.320  0.4411  0.4713 -0.9610
 2362SOL    HW114326   6.889  10.849   3.251  2.6186  0.5860  0.9781
 2362SOL    HW214327   6.873  10.895   3.394 -1.7371 -0.0398  0.8217
 2363SOL     OW14328   3.466   3.761  10.963 -0.0643 -0.3360 -0.1762
 2363SOL    HW114329   3.435   3.733  11.049 -1.6221 -0.6488 -0.7956
 2363SOL    HW214330   3.491   3.680  10.919 -1.1505 -0.4099 -0.6945
 2364SOL     OW14331   8.929   1.577  11.904 -0.1627 -0.4160 -0.5126
 2364SOL    HW114332   8.986   1.503  11.888 -0.5566 -0.8448  0.0170
 2364SOL    HW214333   8.850   1.559  11.854  0.9243  1.2129 -3.0259
 2365SOL     OW14334   4.095   9.300   1.888  0.4676 -0.8463  0.5738
 2365SOL    HW114335   4.028   9.237   1.862  1.0288 -0.8853 -0.9014
 2365SOL    HW214336   4.049   9.383   1.897  0.1403 -0.9629  0.0291
 2366SOL     OW14337   9.857   0.481   3.684  0.1433 -0.4326 -0.0319
 2366SOL    HW114338   9.846   0.570   3.720  1.8635  0.2735 -1.1286
 2366SOL    HW214339   9.942   0.452   3.717  0.3670 -0.9761 -1.0475
 2367SOL     OW14340   7.888  10.008  10.269  0.3146 -0.2418  0.1316
 2367SOL    HW114341   7.978   9.991  10.296  0.1491 -1.0751  0.1698
 2367SOL    HW214342   7.863   9.932  10.217  0.0373  0.5386 -0.9098
 2368SOL     OW14343  11.378   5.971   1.774 -0.1278 -0.0775 -0.2505
 2368SOL    HW114344  11.364   6.058   1.735  0.8018 -0.2381 -0.9785
 2368SOL    HW214345  11.420   5.989   1.858  2.4188  0.1473 -1.4774
 2369SOL     OW14346   8.233   0.829   0.262 -0.1687  0.0059 -0.4933
 2369SOL    HW114347   8.197   0.740   0.257  0.2862 -0.1835 -0.4632
 2369SOL    HW214348   8.201   0.872   0.183  0.7829 -0.6394 -1.2542
 2370SOL     OW14349   8.798  10.102   1.176 -0.4545  0.5539 -0.1939
 2370SOL    HW114350   8.874  10.069   1.224 -0.7636 -0.0404 -0.1045
 2370SOL    HW214351   8.817  10.082   1.084 -2.2337 -3.4038  0.0702
 2371SOL     OW14352   7.219  11.563   3.060  0.4781 -0.5307  0.1369
 2371SOL    HW114353   7.262  11.561   2.974  2.0508  0.5656  0.8371
 2371SOL    HW214354   7.265  11.497   3.111 -0.7525 -1.4948  0.0423
 2372SOL     OW14355   1.410   9.003   0.562  0.4190 -0.2271  0.0771
 2372SOL    HW114356   1.382   9.084   0.605  0.6654 -0.4276  0.6195
 2372SOL    HW214357   1.380   8.933   0.621 -0.7096 -0.5970 -0.8816
 2373SOL     OW14358   6.977   1.286   5.901  0.0648  0.3568  0.3524
 2373SOL    HW114359   6.947   1.226   5.969  0.1600 -1.2374 -0.9227
 2373SOL    HW214360   7.071   1.268   5.893 -0.1092 -0.1849 -0.7974
 2374SOL     OW14361  11.547   9.991   0.492  0.6152  0.5261 -0.1583
 2374SOL    HW114362  11.557  10.080   0.457 -0.5342  1.5039  1.8400
 2374SOL    HW214363  11.631   9.974   0.535  0.7171  0.7647 -0.2548
 2375SOL     OW14364   3.842   3.990  11.440  0.2451 -0.2493 -0.1668
 2375SOL    HW114365   3.799   4.045  11.374 -0.4145  0.1285  0.5563
 2375SOL    HW214366   3.893   3.927  11.390 -2.2246 -1.6102 -1.1008
 2376SOL     OW14367   7.232   2.393   2.181 -0.0800 -0.3685 -0.3186
 2376SOL    HW114368   7.256   2.455   2.113 -1.7248  1.2653  0.5232
 2376SOL    HW214369   7.214   2.312   2.134 -0.7006  0.5733 -1.7801
 2377SOL     OW14370  12.557  12.022   9.938  0.4411 -0.2713  0.2603
 2377SOL    HW114371  12.614  12.099   9.949 -1.4046  0.9118  2.0917
 2377SOL    HW214372  12.505  12.043   9.861 -0.2915  0.5087  0.9475
 2378SOL     OW14373   1.890  11.249   6.039 -0.0408 -0.0070  0.1703
 2378SOL    HW114374   1.815  11.294   6.078 -1.1825  1.1213 -2.9983
 2378SOL    HW214375   1.956  11.318   6.027 -0.2148 -0.0238 -0.9925
 2379SOL     OW14376  10.646  11.843   1.320  0.5593  0.0205  0.0401
 2379SOL    HW114377  10.627  11.750   1.330 -2.2009  0.5734  0.7704
 2379SOL    HW214378  10.619  11.863   1.230 -0.4238  0.3851  0.3953
 2380SOL     OW14379   7.225   1.184   9.936  0.0918  0.0833 -0.3266
 2380SOL    HW114380   7.174   1.156  10.012  0.9396 -0.5695  0.0027
 2380SOL    HW214381   7.304   1.131   9.938  0.9146  1.2630 -0.6974
 2381SOL     OW14382   1.143   1.684   4.712 -0.1260  0.1029  0.3842
 2381SOL    HW114383   1.069   1.629   4.738  0.8541 -1.1220  0.6957
 2381SOL    HW214384   1.161   1.738   4.789  0.1065 -0.5187  0.7720
 2382SOL     OW14385   7.426   5.793   7.593 -0.0529 -0.2504  0.4633
 2382SOL    HW114386   7.389   5.869   7.637  0.9458  0.5292  0.0073
 2382SOL    HW214387   7.385   5.717   7.636 -0.5501  0.5246  1.3868
 2383SOL     OW14388   2.992   9.673   0.041 -0.4551 -0.1924  0.1559
 2383SOL    HW114389   3.087   9.671   0.050 -0.3537 -2.4421 -0.6790
 2383SOL    HW214390   2.976   9.658  -0.052 -1.6164 -1.5057  0.5285
 2384SOL     OW14391   7.229   0.970   6.763  0.9083 -0.2743  0.0902
 2384SOL    HW114392   7.269   1.006   6.842  0.1952 -1.1330  0.8808
 2384SOL    HW214393   7.143   1.011   6.759  0.5900 -0.8958  0.2884
 2385SOL     OW14394   1.776   3.203   6.064  0.7146  0.2078 -0.4126
 2385SOL    HW114395   1.858   3.226   6.108  0.3575  2.9964 -1.0088
 2385SOL    HW214396   1.717   3.178   6.135  1.8679 -1.2337  0.0787
 2386SOL     OW14397   3.771   4.909   7.935 -0.1770 -0.0100 -0.1215
 2386SOL    HW114398   3.708   4.837   7.938 -0.7586  0.4669 -0.7096
 2386SOL    HW214399   3.799   4.919   8.026 -1.5792  0.3045  0.3107
 2387SOL     OW14400   2.203   7.354  12.170 -0.6425  0.1396  0.0702
 2387SOL    HW114401   2.264   7.331  12.240  0.1431  2.1314  0.0829
 2387SOL    HW214402   2.260   7.384  12.098 -1.5430  0.5309 -0.4892
 2388SOL     OW14403   7.144   4.523   7.641 -0.3449  0.6029  0.4530
 2388SOL    HW114404   7.225   4.479   7.668  0.9326  2.3442 -0.3653
 2388SOL    HW214405   7.117   4.574   7.718 -0.1164  0.7962  0.4039
 2389SOL     OW14406   7.225   8.641   8.942  0.0851 -0.8063 -0.3613
 2389SOL    HW114407   7.298   8.621   8.885  1.5374  2.5468  0.0732
 2389SOL    HW214408   7.214   8.736   8.935 -0.9763 -0.4842  3.3451
 2390SOL     OW14409   5.897   2.438   8.026 -0.2462 -0.0508  0.3004
 2390SOL    HW114410   5.880   2.453   7.933  1.2192 -1.0107 -0.1631
 2390SOL    HW214411   5.817   2.397   8.059  0.4373 -3.0702 -1.4169
 2391SOL     OW14412   6.371  11.049   7.916 -0.1015 -0.3772 -0.4075
 2391SOL    HW114413   6.289  11.008   7.890  0.2227 -1.8582  0.7715
 2391SOL    HW214414   6.345  11.127   7.965 -0.7447  0.1955 -1.6126
 2392SOL     OW14415  10.958   4.002   9.339  0.1484 -0.0739  0.1797
 2392SOL    HW114416  11.036   4.030   9.291 -0.1546  0.4375 -0.0290
 2392SOL    HW214417  10.937   4.076   9.395 -1.0595  0.4216 -0.8656
 2393SOL     OW14418   4.836   2.028   3.255 -0.2498  0.1945 -0.0751
 2393SOL    HW114419   4.887   1.953   3.223 -1.1488 -0.6348  0.3578
 2393SOL    HW214420   4.884   2.105   3.225 -0.4071 -0.5210 -2.3890
 2394SOL     OW14421   4.777   3.141   8.677 -0.4623  0.2087 -0.1354
 2394SOL    HW114422   4.712   3.075   8.699  0.2983  0.6926  4.8787
 2394SOL    HW214423   4.727   3.214   8.641 -1.9738 -1.1200 -0.8394
 2395SOL     OW14424   2.212   7.116   7.636  0.2335  0.0489  0.9797
 2395SOL    HW114425   2.296   7.157   7.615  0.3195 -0.1225  0.9777
 2395SOL    HW214426   2.209   7.039   7.580 -0.6874  0.9359 -0.2224
 2396SOL     OW14427  12.624   4.687  10.646 -0.6023  0.4843  0.3512
 2396SOL    HW114428  12.646   4.595  10.629 -3.1427 -0.0587 -0.3718
 2396SOL    HW214429  12.697   4.736  10.608  2.0026 -1.2103  2.7866
 2397SOL     OW14430   2.161   7.124  10.462 -0.7452  0.0346 -0.1842
 2397SOL    HW114431   2.100   7.052  10.445 -0.3616 -0.6091  1.0719
 2397SOL    HW214432   2.119   7.175  10.531 -0.0732 -0.1760  0.3944
 2398SOL     OW14433  10.787   2.981   9.541  0.3822  0.4080  0.0216
 2398SOL    HW114434  10.713   3.009   9.594  0.8267  1.3487  0.1725
 2398SOL    HW214435  10.748   2.955   9.457 -0.1031  1.1160  0.0172
 2399SOL     OW14436   5.604  11.461  11.310 -0.3069 -0.2836 -0.5108
 2399SOL    HW114437   5.607  11.481  11.403 -2.1742  0.2678 -0.5253
 2399SOL    HW214438   5.632  11.541  11.266  0.9525 -0.6662 -0.4466
 2400SOL     OW14439   9.081  12.443  10.168  0.4695  0.2939  0.2711
 2400SOL    HW114440   9.031  12.379  10.219  0.0446  0.7271  0.4143
 2400SOL    HW214441   9.138  12.485  10.232  0.9195 -0.0993  0.1339
 2401SOL     OW14442   3.283  10.672   9.605 -0.2234  0.3221  0.0795
 2401SOL    HW114443   3.294  10.696   9.697  1.2548  0.8184 -0.2049
 2401SOL    HW214444   3.193  10.639   9.600  0.2442 -1.4289  2.0574
 2402SOL     OW14445   4.999   3.676   3.752  0.4041 -0.3008  0.1661
 2402SOL    HW114446   5.069   3.620   3.784 -0.4420 -1.6296 -0.2316
 2402SOL    HW214447   4.996   3.749   3.814  1.6510 -0.5889  0.5889
 2403SOL     OW14448   8.218   8.533   9.517  0.7447 -0.6724 -0.0141
 2403SOL    HW114449   8.253   8.542   9.605  0.4262 -0.0261  0.0488
 2403SOL    HW214450   8.155   8.462   9.523 -0.5700  0.5143  0.6950
 2404SOL     OW14451   1.981   0.068   0.122 -0.2527 -0.6308  0.7291
 2404SOL    HW114452   2.029   0.022   0.191  1.4486  0.9602  0.7101
 2404SOL    HW214453   1.896   0.088   0.161 -0.3762 -2.1947  1.3343
 2405SOL     OW14454   3.413  11.406   2.747 -0.2452  0.2793 -0.4864
 2405SOL    HW114455   3.507  11.392   2.735 -0.1601  0.1708  0.2782
 2405SOL    HW214456   3.392  11.480   2.690  0.4449  0.7616 -0.1248
 2406SOL     OW14457   7.855  12.404   1.205  0.4420 -0.8171 -0.5714
 2406SOL    HW114458   7.873  12.320   1.247 -0.0480 -1.3087 -1.3070
 2406SOL    HW214459   7.792  12.447   1.262  0.9634 -0.7928 -0.0098
 2407SOL     OW14460   6.492   0.621   6.365  0.2835 -0.1502  1.1061
 2407SOL    HW114461   6.488   0.632   6.270  1.6694  0.2735  1.0609
 2407SOL    HW214462   6.403   0.638   6.396 -0.3086 -0.8217 -0.1552
 2408SOL     OW14463   5.593   2.152   3.199 -1.0819  0.1888  0.4547
 2408SOL    HW114464   5.526   2.126   3.136 -1.0104  0.2787  0.3410
 2408SOL    HW214465   5.658   2.198   3.147  0.5403 -2.3913  0.0368
 2409SOL     OW14466  10.096   3.306   7.925 -0.4365  0.1216  0.1772
 2409SOL    HW114467  10.160   3.243   7.959  0.2913  0.5699 -0.3433
 2409SOL    HW214468  10.115   3.387   7.971 -0.7625  0.2093  0.1594
 2410SOL     OW14469   1.553   5.110   8.481  0.3454  0.1351  0.6453
 2410SOL    HW114470   1.475   5.128   8.429  0.7417  0.5464  0.1912
 2410SOL    HW214471   1.519   5.095   8.570 -0.2195  0.6015  0.5139
 2411SOL     OW14472   8.388   5.985   1.515 -0.6668 -0.2769 -0.3834
 2411SOL    HW114473   8.439   5.953   1.589 -0.0952 -1.2881 -1.1919
 2411SOL    HW214474   8.298   5.957   1.533 -0.3432 -1.4801 -0.5891
 2412SOL     OW14475   7.479  12.631   3.251 -0.1913  0.3808  0.5792
 2412SOL    HW114476   7.403  12.665   3.298 -0.6672 -1.4352  1.2029
 2412SOL    HW214477   7.443  12.571   3.186  0.5582  1.7333 -1.2053
 2413SOL     OW14478  10.779   4.973   3.570  0.1064  0.5822  0.2818
 2413SOL    HW114479  10.824   5.027   3.635  1.8781  2.1585 -2.1056
 2413SOL    HW214480  10.697   5.019   3.553 -1.0307 -0.5551  2.2475
 2414SOL     OW14481   0.746   8.744   9.845  1.1690 -0.4317  0.1359
 2414SOL    HW114482   0.671   8.685   9.856  0.8843 -0.0951  0.0186
 2414SOL    HW214483   0.792   8.739   9.928  0.2617  0.3947  0.7079
 2415SOL     OW14484   2.103  10.206   4.952  0.4129 -0.4465  0.1729
 2415SOL    HW114485   2.130  10.115   4.945  0.5168 -0.3844 -0.2956
 2415SOL    HW214486   2.164  10.246   5.014  0.7398 -0.5557 -0.0766
 2416SOL     OW14487   1.484  10.388   6.127  0.0989  0.2203 -0.0835
 2416SOL    HW114488   1.511  10.424   6.043  1.1766  1.7265  0.8633
 2416SOL    HW214489   1.566  10.360   6.169 -0.4819 -1.0586  0.2408
 2417SOL     OW14490   2.060   4.408  11.082 -0.0745 -0.6349  0.2939
 2417SOL    HW114491   1.982   4.457  11.054 -1.1464 -1.9277  0.9439
 2417SOL    HW214492   2.062   4.332  11.025 -0.6533 -1.8155  1.7747
 2418SOL     OW14493   4.606   0.611   6.935  0.1014  0.3711  0.4394
 2418SOL    HW114494   4.684   0.564   6.908 -0.8378 -0.8160 -0.3069
 2418SOL    HW214495   4.590   0.581   7.025  0.5015  0.6314  0.5996
 2419SOL     OW14496   9.488   0.763   6.021 -0.3288 -0.3839 -0.5206
 2419SOL    HW114497   9.458   0.762   6.112  0.8710 -0.2561 -0.0976
 2419SOL    HW214498   9.409   0.747   5.969 -0.7566 -2.3801  0.6269
 2420SOL     OW14499   2.044   6.581   9.618 -0.4158 -0.1562  0.3491
 2420SOL    HW114500   2.020   6.668   9.649  0.4805 -0.2923  1.5115
 2420SOL    HW214501   2.002   6.521   9.680 -1.1190 -0.5708 -0.5076
 2421SOL     OW14502   7.287   6.590   7.253 -0.1530 -0.3061 -0.1265
 2421SOL    HW114503   7.301   6.655   7.183 -0.9427  0.2300  0.1950
 2421SOL    HW214504   7.201   6.612   7.289  0.7978  0.2883  1.9216
 2422SOL     OW14505  11.759   2.041   9.002 -0.4635  0.4740 -0.1538
 2422SOL    HW114506  11.669   2.071   9.015 -0.0702  1.0662  1.3901
 2422SOL    HW214507  11.805   2.065   9.082  0.7595 -1.0336 -0.3485
 2423SOL     OW14508  12.517   2.789   2.605  0.0418  0.2844  0.4045
 2423SOL    HW114509  12.508   2.828   2.691  1.3394 -0.5912  0.9632
 2423SOL    HW214510  12.507   2.695   2.619 -0.7869  0.1988 -0.5753
 2424SOL     OW14511   2.505   7.001   9.021  0.4778 -0.2144  0.6315
 2424SOL    HW114512   2.472   6.919   8.986  0.6839 -0.0641  0.0774
 2424SOL    HW214513   2.600   6.996   9.011  0.4272  0.5386 -0.4366
 2425SOL     OW14514   8.025  10.267   1.871  0.5413  0.2140  0.2929
 2425SOL    HW114515   8.053  10.356   1.891  1.4945 -0.4319  2.0256
 2425SOL    HW214516   8.073  10.243   1.792 -0.9108  1.7429 -1.1341
 2426SOL     OW14517   8.639  10.849  12.484  0.1258  0.0626  0.5799
 2426SOL    HW114518   8.699  10.822  12.414 -1.0691 -0.3820 -0.3034
 2426SOL    HW214519   8.665  10.939  12.504  0.1722  0.3727 -0.8014
 2427SOL     OW14520   4.744   3.835   7.060  0.5200 -0.2663  0.4013
 2427SOL    HW114521   4.800   3.913   7.056 -1.6974  1.4420  0.2113
 2427SOL    HW214522   4.742   3.803   6.970  0.3650  0.3126  0.1907
 2428SOL     OW14523   5.177   1.301   9.529  0.5672  0.5770 -0.0374
 2428SOL    HW114524   5.143   1.382   9.492 -0.0634  1.5895  2.5253
 2428SOL    HW214525   5.138   1.232   9.477 -1.1969  1.8625 -0.5161
 2429SOL     OW14526  12.607  10.054   3.288 -0.4498  0.6337  0.7335
 2429SOL    HW114527  12.520  10.023   3.314 -1.1938  1.3535 -0.7514
 2429SOL    HW214528  12.594  10.147   3.270  0.7897  0.8880  1.0958
 2430SOL     OW14529   9.775   3.618   8.675 -0.2556  0.1992  0.5498
 2430SOL    HW114530   9.836   3.627   8.749 -0.7330  0.3970  0.9298
 2430SOL    HW214531   9.766   3.524   8.662  2.4514  0.1014 -1.4846
 2431SOL     OW14532   5.892   6.979   2.250 -0.7366 -0.0581 -0.1450
 2431SOL    HW114533   5.957   7.041   2.216  0.5141 -0.8515  0.7108
 2431SOL    HW214534   5.809   7.012   2.218  0.1878  0.1605 -2.5973
 2432SOL     OW14535   2.866   4.327   7.956  0.0660 -0.1422 -0.0352
 2432SOL    HW114536   2.814   4.282   7.890 -0.3450  0.6281 -0.2375
 2432SOL    HW214537   2.946   4.354   7.911 -0.5470  1.0630 -0.4339
 2433SOL     OW14538  11.211   3.896   8.733  0.2159  0.4035  0.2024
 2433SOL    HW114539  11.146   3.853   8.677 -1.1063  0.5490  1.5830
 2433SOL    HW214540  11.198   3.858   8.819  2.7844 -0.4197  0.3121
 2434SOL     OW14541  10.869   8.103   3.012  0.0819 -0.4503 -0.3325
 2434SOL    HW114542  10.853   8.187   3.055 -1.1705 -0.0984 -1.4361
 2434SOL    HW214543  10.803   8.098   2.943  0.4390 -2.1368 -0.5940
 2435SOL     OW14544   7.902  11.310   6.378  0.0379  0.4034  0.5314
 2435SOL    HW114545   7.967  11.289   6.312 -0.8297  1.7040 -0.8021
 2435SOL    HW214546   7.845  11.233   6.382 -0.1697  0.4813 -0.5994
 2436SOL     OW14547   4.892   6.770   8.446 -0.3689  0.1217  0.4861
 2436SOL    HW114548   4.931   6.857   8.440 -1.7419  0.6954 -0.9451
 2436SOL    HW214549   4.910   6.729   8.361 -1.4625 -0.2079  0.3990
 2437SOL     OW14550   2.961   8.783   4.156 -0.6142  0.3370  0.0866
 2437SOL    HW114551   2.883   8.809   4.106 -0.3938  1.7913  0.4325
 2437SOL    HW214552   3.013   8.731   4.094 -1.7029 -0.3655 -0.2472
 2438SOL     OW14553   2.009   0.474   5.269 -0.0941 -0.6079  0.2969
 2438SOL    HW114554   2.098   0.506   5.256 -0.1493 -0.3252  0.6124
 2438SOL    HW214555   2.019   0.389   5.312  0.0453 -0.9240 -0.3463
 2439SOL     OW14556   6.990  12.480   1.866  0.2160  0.4043 -0.1993
 2439SOL    HW114557   7.019  12.537   1.795 -0.0785  1.8343  0.7938
 2439SOL    HW214558   7.064  12.479   1.928  0.1001 -0.0617 -0.0603
 2440SOL     OW14559   9.864  10.734   8.915  0.1744 -0.6685 -0.0704
 2440SOL    HW114560   9.784  10.703   8.871  0.3637 -0.6156 -0.4594
 2440SOL    HW214561   9.836  10.814   8.960 -0.4189 -1.6029  1.2950
 2441SOL     OW14562   5.607   5.757   6.206  0.0605 -0.0552 -0.3012
 2441SOL    HW114563   5.680   5.819   6.207  0.2816 -0.3089  0.2601
 2441SOL    HW214564   5.530   5.809   6.227  0.4048 -0.1383  1.3224
 2442SOL     OW14565   1.213   4.679   9.842 -0.3433  0.0816  0.4925
 2442SOL    HW114566   1.247   4.596   9.809 -1.5058 -0.7904  1.3869
 2442SOL    HW214567   1.260   4.746   9.792  1.1485 -1.0860  0.2575
 2443SOL     OW14568   6.366   0.892   2.789  0.1446  0.0819  0.0705
 2443SOL    HW114569   6.401   0.882   2.700  0.6809 -0.6174  0.3472
 2443SOL    HW214570   6.319   0.810   2.805  0.4288  0.0194  0.5927
 2444SOL     OW14571   5.334   9.803  11.578  0.2670 -0.9021  0.0734
 2444SOL    HW114572   5.289   9.742  11.520 -1.1185 -0.7597  0.9494
 2444SOL    HW214573   5.342   9.756  11.661  1.6958 -0.8888 -0.0199
 2445SOL     OW14574  12.243   6.115   9.478 -0.3886  0.2311  0.3692
 2445SOL    HW114575  12.226   6.150   9.390  2.8314  1.3642  0.0721
 2445SOL    HW214576  12.265   6.192   9.530 -0.8461 -0.5946  1.8449
 2446SOL     OW14577   8.603   6.779   4.128 -0.0998  0.5502 -0.0428
 2446SOL    HW114578   8.635   6.821   4.048 -0.3398  0.8762  0.0310
 2446SOL    HW214579   8.622   6.842   4.197  0.0582  0.2912  0.1489
 2447SOL     OW14580   7.870   6.372   0.031 -0.2356 -0.4837  0.2279
 2447SOL    HW114581   7.802   6.305   0.035  0.4648 -1.1806  0.7495
 2447SOL    HW214582   7.952   6.324   0.043  0.3681  0.3230 -0.5226
 2448SOL     OW14583   4.071   7.351   3.927 -0.0549 -0.3856  1.1060
 2448SOL    HW114584   4.079   7.350   4.023  0.5477 -0.7281  1.0499
 2448SOL    HW214585   3.981   7.322   3.911 -0.0814 -0.5666  1.5577
 2449SOL     OW14586   0.023  10.126  10.555  0.6133  0.1588  0.0428
 2449SOL    HW114587   0.044  10.201  10.610 -0.7489 -0.4936  1.5327
 2449SOL    HW214588   0.040  10.050  10.610  0.7309 -0.5808 -0.9871
 2450SOL     OW14589   8.967   0.132   2.941  0.2836  0.0650  0.2513
 2450SOL    HW114590   8.972   0.054   2.887  0.9537 -0.9945  1.7771
 2450SOL    HW214591   9.039   0.188   2.909  2.8567 -1.9585  2.0655
 2451SOL     OW14592   8.908   7.936   9.739 -0.0788 -0.1957 -0.5252
 2451SOL    HW114593   8.845   8.007   9.727 -1.6278 -1.6038 -1.2895
 2451SOL    HW214594   8.945   7.922   9.653  0.7350  0.1145 -0.2331
 2452SOL     OW14595   5.609  11.621  11.864  0.5453 -0.5651  0.2734
 2452SOL    HW114596   5.665  11.675  11.808  0.9000 -0.8351  0.3631
 2452SOL    HW214597   5.611  11.664  11.949  0.4392 -0.4520  0.2184
 2453SOL     OW14598  12.418   6.144  12.602 -0.2707  0.2637  0.2831
 2453SOL    HW114599  12.351   6.193  12.554  0.4304  2.6834  1.6047
 2453SOL    HW214600  12.372   6.106  12.676 -0.5456  0.1986  0.0818
 2454SOL     OW14601   8.249   7.217   9.590  0.6117 -0.1096  0.6015
 2454SOL    HW114602   8.286   7.131   9.611  0.5116 -0.8104 -1.8738
 2454SOL    HW214603   8.262   7.228   9.496  0.7131  2.6672  0.8482
 2455SOL     OW14604  12.021   4.516   9.483 -0.1432 -0.3303  0.2912
 2455SOL    HW114605  12.028   4.429   9.523  2.1451 -1.8096 -2.9451
 2455SOL    HW214606  12.010   4.500   9.390  1.2091  2.8330 -0.5651
 2456SOL     OW14607   3.239   9.085   7.049  0.1737 -0.0710 -0.9764
 2456SOL    HW114608   3.179   9.141   7.097  2.2417  1.1279  0.3897
 2456SOL    HW214609   3.297   9.146   7.002  2.3800 -0.9554  0.4196
 2457SOL     OW14610   6.496   8.299   4.991 -0.5825 -0.1162 -0.0960
 2457SOL    HW114611   6.433   8.312   4.921 -1.0191  0.9581  0.4700
 2457SOL    HW214612   6.475   8.213   5.027 -0.2115 -0.7750 -1.3960
 2458SOL     OW14613   9.281   0.864  10.182  0.3384 -0.1942 -0.1164
 2458SOL    HW114614   9.358   0.865  10.240 -0.3908  0.5136  0.8785
 2458SOL    HW214615   9.317   0.871  10.094  1.3883  0.7095  0.3649
 2459SOL     OW14616  10.508  11.141   4.375 -0.0125 -0.4253 -0.4014
 2459SOL    HW114617  10.562  11.106   4.304 -0.5901  0.0526 -1.0786
 2459SOL    HW214618  10.432  11.179   4.332 -1.0677 -1.3710  0.5574
 2460SOL     OW14619  12.276   2.550   9.018  0.2593  0.4258  0.7714
 2460SOL    HW114620  12.250   2.507   8.936 -0.3844  1.3321  0.4854
 2460SOL    HW214621  12.359   2.509   9.041  1.3171  1.2873 -1.2198
 2461SOL     OW14622   2.937   0.182   3.269  0.3223 -0.2171 -0.3266
 2461SOL    HW114623   2.999   0.192   3.196  0.3354  0.0958 -0.2739
 2461SOL    HW214624   2.866   0.243   3.249 -0.2662 -1.0050 -0.6890
 2462SOL     OW14625   1.098   4.565   4.584 -0.0321  0.3818  0.1020
 2462SOL    HW114626   1.158   4.577   4.658  1.3590  1.4500 -1.1204
 2462SOL    HW214627   1.011   4.567   4.623  0.6638 -2.3579  2.1050
 2463SOL     OW14628   6.260  11.665   7.551  1.0065 -0.0114 -0.3446
 2463SOL    HW114629   6.199  11.738   7.561  1.0882 -0.1217  1.1315
 2463SOL    HW214630   6.221  11.610   7.482  1.4161  1.8581 -2.1694
 2464SOL     OW14631   1.411   3.985  11.660 -0.4372 -0.3626 -0.6917
 2464SOL    HW114632   1.357   3.913  11.690 -0.1435 -0.4914 -0.4672
 2464SOL    HW214633   1.350   4.045  11.617 -0.7361 -0.5629 -0.5464
 2465SOL     OW14634   7.233   5.215   8.272  0.4089 -0.2294  0.6688
 2465SOL    HW114635   7.263   5.131   8.239 -0.5498 -0.6877  0.9173
 2465SOL    HW214636   7.312   5.268   8.280  0.7826 -0.3536 -1.5792
 2466SOL     OW14637   3.596   2.320   5.306  0.0852 -0.0062  0.7074
 2466SOL    HW114638   3.513   2.274   5.321 -0.9428  1.7804  0.8464
 2466SOL    HW214639   3.648   2.260   5.252 -1.2033 -1.2650  0.8097
 2467SOL     OW14640   2.053  11.731   9.845 -0.0275  0.0373  0.4106
 2467SOL    HW114641   1.968  11.760   9.811  0.4888 -0.0113 -0.9862
 2467SOL    HW214642   2.032  11.689   9.928 -1.4183 -0.2754 -0.0685
 2468SOL     OW14643   2.894   4.006   5.471  0.1558 -0.5183  0.4744
 2468SOL    HW114644   2.875   4.070   5.540 -1.0278 -0.2478 -0.0802
 2468SOL    HW214645   2.810   3.991   5.428  0.7855 -1.0368 -0.6224
 2469SOL     OW14646   3.341  12.552   2.347 -0.2468 -0.1021 -0.3102
 2469SOL    HW114647   3.392  12.471   2.354 -0.1349  0.0154  0.3215
 2469SOL    HW214648   3.272  12.541   2.412  0.5550  0.8716  0.7299
 2470SOL     OW14649   2.542   0.926   6.671  0.0134 -0.0641  0.1823
 2470SOL    HW114650   2.592   0.975   6.736  0.3778 -0.4479  0.1921
 2470SOL    HW214651   2.485   0.870   6.723 -2.1093  1.9776  0.2291
 2471SOL     OW14652   7.964   6.587   2.063  0.3041 -0.1250  0.5858
 2471SOL    HW114653   7.944   6.495   2.049  1.4353 -0.3415  0.2482
 2471SOL    HW214654   7.900   6.634   2.010  0.7231 -0.7733 -0.5201
 2472SOL     OW14655   6.826   6.161   0.985  0.1418  0.1066  0.0038
 2472SOL    HW114656   6.757   6.200   0.931 -0.2649 -1.5404 -0.7252
 2472SOL    HW214657   6.905   6.168   0.932  0.3404  1.0377  0.4009
 2473SOL     OW14658  10.160  11.897   9.056  0.3585  0.0576  0.3782
 2473SOL    HW114659  10.205  11.971   9.098  0.5381  0.8804 -1.1918
 2473SOL    HW214660  10.072  11.898   9.095  1.0426 -0.3338  2.0167
 2474SOL     OW14661   9.816   5.533   6.399  0.4010 -0.2374  0.5395
 2474SOL    HW114662   9.864   5.476   6.339  2.2676  0.8372  0.9512
 2474SOL    HW214663   9.815   5.618   6.355  0.4354  0.1890  1.3625
 2475SOL     OW14664  11.102   0.203  11.214 -0.5939 -0.0695 -0.0355
 2475SOL    HW114665  11.196   0.188  11.218 -0.2265  1.8251 -0.7702
 2475SOL    HW214666  11.078   0.182  11.124 -0.6607  0.5195 -0.1587
 2476SOL     OW14667   1.278   5.532   6.017  0.0116 -0.2492 -0.1888
 2476SOL    HW114668   1.294   5.505   5.926  1.2214  0.6897 -0.2802
 2476SOL    HW214669   1.362   5.569   6.046 -0.3851 -0.4346  1.2854
 2477SOL     OW14670   3.446   4.346  12.539 -0.0410 -0.5939  0.1083
 2477SOL    HW114671   3.389   4.420  12.557  0.4454 -0.1869  0.0005
 2477SOL    HW214672   3.443   4.335  12.444 -2.1980 -2.4117  0.3278
 2478SOL     OW14673   9.140   0.057   8.230  0.1485 -0.1919  0.0782
 2478SOL    HW114674   9.132  -0.008   8.300  0.3248 -0.7595 -0.4192
 2478SOL    HW214675   9.126   0.141   8.273  0.6328 -0.5067  0.8612
 2479SOL     OW14676   9.429   6.480  10.544 -0.3999  0.1203  0.1336
 2479SOL    HW114677   9.480   6.464  10.465  2.1634  0.3736  1.6269
 2479SOL    HW214678   9.393   6.568  10.532  0.8105  0.5711 -0.3241
 2480SOL     OW14679   6.251   0.709  11.096 -0.1113 -0.4507 -0.2293
 2480SOL    HW114680   6.280   0.774  11.160 -0.1280 -0.4836 -0.1888
 2480SOL    HW214681   6.311   0.635  11.108  0.7852  0.0769 -1.1916
 2481SOL     OW14682   1.303   5.297   2.289 -0.0869  0.8801 -0.0078
 2481SOL    HW114683   1.331   5.322   2.201 -1.7509  0.1432 -0.7766
 2481SOL    HW214684   1.273   5.206   2.280  1.1331  0.2482  1.6631
 2482SOL     OW14685   7.859  10.632  11.167  0.2023  0.5265 -0.4279
 2482SOL    HW114686   7.909  10.711  11.188 -1.4809  0.8615  3.1080
 2482SOL    HW214687   7.782  10.663  11.120  0.1006  0.8692 -0.0418
 2483SOL     OW14688  10.982   5.411   0.138 -0.1223 -0.3046 -0.2435
 2483SOL    HW114689  11.044   5.360   0.190  0.7967  2.3662  1.5334
 2483SOL    HW214690  10.963   5.487   0.193 -1.4385  1.2335 -2.6702
 2484SOL     OW14691   7.555  12.150   8.144 -0.2015  0.7085  0.0580
 2484SOL    HW114692   7.595  12.103   8.217 -0.9959  0.2258  0.1933
 2484SOL    HW214693   7.544  12.239   8.176 -0.1879  0.5922  0.3907
 2485SOL     OW14694  12.475  12.591   6.170  0.1958 -0.1952  0.2015
 2485SOL    HW114695  12.541  12.588   6.101 -0.2069 -0.1793 -0.1894
 2485SOL    HW214696  12.404  12.644   6.133 -0.9767 -1.9741 -0.2339
 2486SOL     OW14697  11.488   3.712   2.392  0.1402  0.0712  0.4863
 2486SOL    HW114698  11.524   3.636   2.346 -0.9875  0.2623 -0.7836
 2486SOL    HW214699  11.541   3.785   2.362  0.5591 -0.0628  0.8969
 2487SOL     OW14700   3.961   8.842   1.720  0.3098 -0.0536 -0.0062
 2487SOL    HW114701   4.013   8.761   1.722  1.5795  0.7414  1.6958
 2487SOL    HW214702   3.994   8.889   1.643 -1.3519 -1.6404 -1.8019
 2488SOL     OW14703   0.899   6.918  10.080 -0.1617 -0.0152 -0.0941
 2488SOL    HW114704   0.821   6.962  10.047 -0.8621 -1.0662  0.1007
 2488SOL    HW214705   0.876   6.895  10.170 -0.3604 -1.9688 -0.6012
 2489SOL     OW14706   6.171   1.678   5.155 -0.0586 -0.0049 -0.2446
 2489SOL    HW114707   6.211   1.653   5.238  0.2009 -0.1147 -0.4022
 2489SOL    HW214708   6.098   1.617   5.144  0.5081 -0.6344 -0.5770
 2490SOL     OW14709   1.715   3.776   2.882 -0.0015 -0.2330  0.0876
 2490SOL    HW114710   1.716   3.710   2.812 -1.7686  0.3551 -0.5639
 2490SOL    HW214711   1.644   3.835   2.857  0.5483  1.0558  1.4484
 2491SOL     OW14712  11.872   7.957   8.065 -0.4036 -0.2453 -0.5469
 2491SOL    HW114713  11.907   7.881   8.111 -0.9298 -0.4286 -0.4408
 2491SOL    HW214714  11.881   7.936   7.972  2.5165  0.9487 -0.6463
 2492SOL     OW14715   2.469   5.572   7.925 -0.5977  0.1778  0.1505
 2492SOL    HW114716   2.564   5.579   7.909 -0.6993  0.6685 -0.2531
 2492SOL    HW214717   2.431   5.564   7.837 -0.9638  0.3533  0.2950
 2493SOL     OW14718   1.538   8.466  10.831 -0.3014 -0.4146  0.2262
 2493SOL    HW114719   1.610   8.523  10.804  0.7211 -2.5281 -1.8182
 2493SOL    HW214720   1.492   8.516  10.899  2.7675  1.2113  1.2731
 2494SOL     OW14721   4.499   3.875  12.420 -0.3014 -0.2841  0.7392
 2494SOL    HW114722   4.520   3.815  12.348 -2.0376 -0.5323  0.3839
 2494SOL    HW214723   4.511   3.962  12.383  0.0300 -0.4086  0.5461
 2495SOL     OW14724   2.979   7.246   0.856  0.3741 -0.8762  0.4949
 2495SOL    HW114725   2.944   7.288   0.777  0.8453 -0.3286  0.5687
 2495SOL    HW214726   3.008   7.160   0.827  0.7880 -0.5792  0.0071
 2496SOL     OW14727   2.682   1.091   1.054  0.0260  0.2403 -0.5604
 2496SOL    HW114728   2.711   1.011   1.097  0.6867  0.5201 -0.4836
 2496SOL    HW214729   2.611   1.123   1.110  0.6818  0.4456  0.1765
 2497SOL     OW14730   8.239   8.844   2.511  0.0872  0.1075  0.0944
 2497SOL    HW114731   8.279   8.828   2.426  0.7167 -1.1323  0.5995
 2497SOL    HW214732   8.308   8.885   2.563 -0.1433  0.4184  0.1592
 2498SOL     OW14733   2.114   7.702   9.315 -0.2996  0.3930 -0.0249
 2498SOL    HW114734   2.045   7.753   9.357 -0.8919 -0.3408 -0.0907
 2498SOL    HW214735   2.082   7.612   9.317  1.8109 -0.4457  2.4623
 2499SOL     OW14736  12.471   9.501   4.022 -0.3408  0.1875  0.2816
 2499SOL    HW114737  12.538   9.453   4.071 -0.7580  0.3788  1.0534
 2499SOL    HW214738  12.430   9.434   3.967 -3.1184 -1.2092  3.6415
 2500SOL     OW14739   5.761  10.205   4.830  0.4755 -0.4477 -0.5340
 2500SOL    HW114740   5.704  10.184   4.756  0.7532  1.0426 -1.2027
 2500SOL    HW214741   5.797  10.120   4.857 -1.9906 -1.4474 -0.0966
 2501SOL     OW14742   9.777   9.091   9.164  0.2419  0.0947 -0.8740
 2501SOL    HW114743   9.734   9.137   9.091  1.7527  3.0363 -0.0927
 2501SOL    HW214744   9.852   9.047   9.124  0.1693  0.3690 -1.3189
 2502SOL     OW14745   1.334   0.238   7.256 -0.2173 -0.0801  0.3782
 2502SOL    HW114746   1.324   0.332   7.241 -0.7254 -0.3285 -0.9736
 2502SOL    HW214747   1.269   0.217   7.323  0.9327  0.7793  1.8196
 2503SOL     OW14748   9.687   7.725   7.827  0.1323  0.0999  0.4499
 2503SOL    HW114749   9.600   7.746   7.793  0.0871  0.4398  0.7603
 2503SOL    HW214750   9.673   7.652   7.887  0.7201 -3.1403 -2.9980
 2504SOL     OW14751   4.328  12.710  11.705 -0.0002  0.0562 -0.0475
 2504SOL    HW114752   4.261  12.769  11.670 -0.7774 -0.7770 -0.0045
 2504SOL    HW214753   4.319  12.630  11.653  0.2568 -0.4450  0.6653
 2505SOL     OW14754   0.649   6.062   5.876  0.0720  0.0281  0.2988
 2505SOL    HW114755   0.582   6.120   5.841 -0.8156 -1.2369 -0.1883
 2505SOL    HW214756   0.643   6.073   5.971 -1.3833 -0.6189  0.3103
 2506SOL     OW14757   7.997   1.551   4.918 -0.1396 -0.2386 -0.3731
 2506SOL    HW114758   7.923   1.511   4.873 -0.5096 -0.9216  0.8021
 2506SOL    HW214759   8.002   1.505   5.002  0.7527  0.7410  0.1344
 2507SOL     OW14760  10.648   5.872   9.939 -0.3798  0.5923 -0.2894
 2507SOL    HW114761  10.738   5.884   9.910  0.1396 -0.0246  0.9774
 2507SOL    HW214762  10.631   5.779   9.924 -0.5258  0.5371  0.2216
 2508SOL     OW14763   2.487   0.299   5.849 -0.1872  0.3913  0.6994
 2508SOL    HW114764   2.504   0.205   5.857  1.3086  0.6270  0.5513
 2508SOL    HW214765   2.394   0.308   5.871 -0.5974 -1.2280 -0.2084
 2509SOL     OW14766   0.578   3.780   5.386 -0.1919 -0.1758 -0.0209
 2509SOL    HW114767   0.602   3.703   5.438 -1.1109 -1.1162 -0.9598
 2509SOL    HW214768   0.483   3.774   5.376 -0.0837  0.1927 -1.4785
 2510SOL     OW14769   8.411   9.380   8.910  0.2357 -0.0595  0.0774
 2510SOL    HW114770   8.358   9.302   8.900 -0.1106  0.2091 -0.2304
 2510SOL    HW214771   8.348   9.450   8.929  0.3415  0.4745 -1.3496
 2511SOL     OW14772   5.413   1.859  11.273 -0.1744 -0.2956 -0.2119
 2511SOL    HW114773   5.432   1.840  11.365 -1.7091 -0.1087  0.1769
 2511SOL    HW214774   5.370   1.780  11.240 -0.1205 -0.1648 -0.6068
 2512SOL     OW14775   7.282  10.701   2.518 -0.0652  0.3751 -0.9447
 2512SOL    HW114776   7.278  10.790   2.552  0.8092  0.2661 -0.5214
 2512SOL    HW214777   7.193  10.667   2.528  0.1111  0.4010  1.0949
 2513SOL     OW14778   0.232  10.912   3.603 -0.4474  0.1681 -0.1198
 2513SOL    HW114779   0.319  10.874   3.612 -0.7715 -0.5052  0.2098
 2513SOL    HW214780   0.175  10.837   3.584 -0.9291  0.6241 -0.5027
 2514SOL     OW14781   9.844   0.477  12.342 -0.3691 -0.0124 -0.2535
 2514SOL    HW114782   9.799   0.562  12.341 -1.5620 -0.5820 -2.2354
 2514SOL    HW214783   9.908   0.484  12.413 -0.1897  2.6581 -0.5752
 2515SOL     OW14784  10.047   3.677  10.451  0.2701  0.2363 -0.2019
 2515SOL    HW114785  10.028   3.655  10.542  1.6521 -0.2011  0.0048
 2515SOL    HW214786  10.066   3.771  10.452 -1.2687  0.5644 -0.3238
 2516SOL     OW14787   8.035   9.147   6.246 -0.0380  0.5965  0.2929
 2516SOL    HW114788   7.959   9.110   6.201  1.0707 -0.3158 -0.9115
 2516SOL    HW214789   8.032   9.109   6.334 -1.1366  0.8190  0.3617
 2517SOL     OW14790   7.672   9.899   8.944  0.6909 -0.0536  0.5822
 2517SOL    HW114791   7.594   9.894   9.000  0.6684 -1.2008  0.4591
 2517SOL    HW214792   7.736   9.841   8.986  0.7706 -0.7164 -0.4159
 2518SOL     OW14793  12.274   2.450   1.159 -0.4290 -0.5426 -0.1519
 2518SOL    HW114794  12.198   2.469   1.103 -0.6367  0.0453  0.3132
 2518SOL    HW214795  12.269   2.516   1.228 -0.1825 -1.2578  0.5654
 2519SOL     OW14796  12.486  10.320  11.760  0.2302  0.1134 -0.0096
 2519SOL    HW114797  12.397  10.319  11.796 -0.2330  0.4699 -1.1122
 2519SOL    HW214798  12.477  10.366  11.677  1.5228  0.4863  0.0457
 2520SOL     OW14799   3.114   5.248   5.756 -0.6718 -0.2825 -0.7514
 2520SOL    HW114800   3.134   5.267   5.664  1.1320  0.9152 -0.1771
 2520SOL    HW214801   3.030   5.290   5.771 -1.3490 -1.1135 -2.0239
 2521SOL     OW14802   1.915   3.962   8.452 -0.1035 -0.2463 -0.6810
 2521SOL    HW114803   1.999   3.938   8.413 -0.1935 -1.3341 -0.2592
 2521SOL    HW214804   1.860   3.884   8.440 -1.0333  0.4266 -0.8901
 2522SOL     OW14805   1.369  10.534   3.225 -0.1378 -0.4618 -0.2152
 2522SOL    HW114806   1.398  10.624   3.240 -1.0262  0.0546 -1.4694
 2522SOL    HW214807   1.371  10.523   3.130  0.8997 -2.1083 -0.0425
 2523SOL     OW14808   3.184   0.883   3.989 -0.0893 -1.4618 -0.0922
 2523SOL    HW114809   3.159   0.974   4.005 -2.0692 -2.3276  2.3026
 2523SOL    HW214810   3.103   0.834   3.996  1.4107 -3.8202  2.4834
 2524SOL     OW14811   5.998  12.646   5.841  0.0657  0.3342 -0.1048
 2524SOL    HW114812   6.004  12.699   5.921 -1.5696  0.5219 -0.0613
 2524SOL    HW214813   5.971  12.709   5.774 -0.1305 -0.1192 -0.4509
 2525SOL     OW14814   3.801   0.155   3.904  0.2041  0.1300  0.0860
 2525SOL    HW114815   3.748   0.082   3.937 -0.9213  0.9408  0.1119
 2525SOL    HW214816   3.881   0.152   3.958 -1.5199  1.3436  2.9298
 2526SOL     OW14817   7.337   4.275  12.150  0.3187 -0.5324  0.3821
 2526SOL    HW114818   7.271   4.207  12.135  0.6128 -0.6715 -0.2887
 2526SOL    HW214819   7.353   4.314  12.064  2.3759 -1.6848  0.1675
 2527SOL     OW14820   2.208   9.731   8.800 -0.5311 -0.2457  0.1887
 2527SOL    HW114821   2.130   9.706   8.849 -0.2981 -2.0211 -0.2794
 2527SOL    HW214822   2.277   9.738   8.866 -0.0286 -3.4067  0.1612
 2528SOL     OW14823   4.074   5.686   0.204  0.5190  0.1470 -0.2192
 2528SOL    HW114824   4.157   5.639   0.203 -0.0017 -0.7944 -0.1515
 2528SOL    HW214825   4.027   5.654   0.127  0.1359  0.5161 -0.1426
 2529SOL     OW14826   0.794  11.830  10.031 -0.1946 -0.2082  0.2210
 2529SOL    HW114827   0.861  11.894  10.005 -0.3202  0.2604  1.0179
 2529SOL    HW214828   0.731  11.830   9.959  0.1370  0.0892 -0.0725
 2530SOL     OW14829   8.501   2.178   1.844 -0.0402  0.2176  0.3287
 2530SOL    HW114830   8.565   2.249   1.857  0.8902 -0.7402  1.1888
 2530SOL    HW214831   8.442   2.212   1.777  2.5993  0.3663 -2.1373
 2531SOL     OW14832  12.476  11.927   3.222 -0.1526  0.8131  0.1737
 2531SOL    HW114833  12.398  11.980   3.204 -1.1660 -0.0788  1.6963
 2531SOL    HW214834  12.451  11.871   3.296  1.7564  0.0915  0.3433
 2532SOL     OW14835   9.849   7.162   2.647  0.3374 -0.2575  0.2501
 2532SOL    HW114836   9.776   7.102   2.630  1.2906 -0.6480 -2.9818
 2532SOL    HW214837   9.825   7.242   2.601  1.9231 -0.3956 -0.8701
 2533SOL     OW14838  11.534   7.443   5.350  0.4507  0.8561  0.6514
 2533SOL    HW114839  11.585   7.371   5.313 -1.3817  0.8449 -2.1704
 2533SOL    HW214840  11.576   7.522   5.315 -0.2425  0.9111 -0.1078
 2534SOL     OW14841   5.431   8.139   1.781 -0.2907  0.5367  0.1558
 2534SOL    HW114842   5.447   8.068   1.719  0.7511  0.7625  0.1631
 2534SOL    HW214843   5.404   8.094   1.861 -1.5106  0.2385 -0.3977
 2535SOL     OW14844   4.769   6.781   7.802  0.3842  0.1407  0.2141
 2535SOL    HW114845   4.759   6.699   7.755 -0.7666  0.3700  0.0202
 2535SOL    HW214846   4.759   6.758   7.894  1.2599 -0.0994  0.2607
 2536SOL     OW14847   5.602   5.657   4.007 -0.0124 -0.0478  0.6355
 2536SOL    HW114848   5.647   5.741   4.016  0.0208 -0.0574  0.5575
 2536SOL    HW214849   5.573   5.655   3.916  0.4972 -0.3798  0.4810
 2537SOL     OW14850   6.888   0.246   3.443  0.8220  0.4229  0.0534
 2537SOL    HW114851   6.892   0.217   3.534 -0.1584  0.4209  0.1053
 2537SOL    HW214852   6.927   0.174   3.393  1.4990  0.4908  0.4822
 2538SOL     OW14853   2.776   3.256   2.837 -0.4917  0.3970  0.0119
 2538SOL    HW114854   2.870   3.260   2.857 -0.5302  0.0506  0.2734
 2538SOL    HW214855   2.768   3.301   2.753  0.0071 -0.1590 -0.3475
 2539SOL     OW14856   8.345   1.303   5.175 -0.2033 -0.6048  0.1378
 2539SOL    HW114857   8.440   1.290   5.178 -0.3759 -2.0646 -0.0400
 2539SOL    HW214858   8.332   1.365   5.104  0.6753  0.3103  0.7573
 2540SOL     OW14859   3.756   6.199   8.184  0.4632 -0.4920 -0.3699
 2540SOL    HW114860   3.837   6.237   8.219 -0.1273  0.8216 -0.3496
 2540SOL    HW214861   3.728   6.137   8.251 -0.1703  1.3330  1.1411
 2541SOL     OW14862   8.600  12.420   1.540  0.6279 -0.2404 -0.2269
 2541SOL    HW114863   8.643  12.424   1.625 -0.4061 -0.3345  0.3183
 2541SOL    HW214864   8.630  12.499   1.495  0.0979  0.5654  0.7734
 2542SOL     OW14865  10.719   2.456   0.417 -0.4093 -0.2239 -0.0509
 2542SOL    HW114866  10.687   2.449   0.327 -1.6586 -1.5043  0.4674
 2542SOL    HW214867  10.660   2.518   0.459  0.9184  1.3584 -0.3787
 2543SOL     OW14868   7.024   6.357  11.343 -0.0727  0.4481  0.2359
 2543SOL    HW114869   7.082   6.285  11.318  1.1366  1.6423 -0.5408
 2543SOL    HW214870   7.006   6.342  11.436  1.1104 -0.2315  0.3803
 2544SOL     OW14871   8.006   1.274  11.320  0.0008  0.2100 -0.4059
 2544SOL    HW114872   8.058   1.297  11.397 -0.5825 -0.5961  0.2423
 2544SOL    HW214873   8.006   1.354  11.267  1.0304  0.5460  0.0624
 2545SOL     OW14874   6.306   7.122   4.169  0.1130 -0.1932 -0.1206
 2545SOL    HW114875   6.345   7.138   4.083  2.1542 -0.5017  0.7014
 2545SOL    HW214876   6.256   7.042   4.158  1.2128 -0.8105 -0.7738
 2546SOL     OW14877   3.352   6.775  11.156  0.0724 -0.2058  0.1248
 2546SOL    HW114878   3.295   6.769  11.079 -1.3154 -0.7169  1.1474
 2546SOL    HW214879   3.354   6.868  11.177  1.7500  0.1586 -1.4186
 2547SOL     OW14880   9.190  11.022   9.787 -0.2990  0.1612  0.0355
 2547SOL    HW114881   9.172  10.939   9.832  3.6055  0.0468  1.8404
 2547SOL    HW214882   9.210  11.083   9.858  1.6130  1.2781 -1.3661
 2548SOL     OW14883   3.470  11.914   2.682  0.1340 -0.0060  0.5468
 2548SOL    HW114884   3.478  12.008   2.672 -0.8116 -0.0329 -0.5987
 2548SOL    HW214885   3.377  11.896   2.672 -0.1049 -0.8074  3.3339
 2549SOL     OW14886   7.949   1.071   8.008 -0.3137  0.6049 -0.3766
 2549SOL    HW114887   7.876   1.101   8.062 -0.8807 -1.0908 -0.1543
 2549SOL    HW214888   7.996   1.009   8.064  1.5695  1.9582 -0.3666
 2550SOL     OW14889   6.600  12.531   7.384  0.2141 -0.6024 -0.3951
 2550SOL    HW114890   6.670  12.591   7.408 -3.1915  2.6057  2.8094
 2550SOL    HW214891   6.619  12.451   7.434  2.8668 -0.9582 -1.7924
 2551SOL     OW14892   6.151   5.866  12.113  0.2980 -0.5646 -0.0104
 2551SOL    HW114893   6.153   5.930  12.042  1.3195  1.0170  1.3772
 2551SOL    HW214894   6.101   5.909  12.182  0.6645 -1.4292  0.8087
 2552SOL     OW14895   3.806   1.883   5.497  0.1851 -0.1570  0.3423
 2552SOL    HW114896   3.901   1.886   5.494  0.1866  1.7450  1.2921
 2552SOL    HW214897   3.786   1.820   5.567  0.7189 -0.7599 -0.0386
 2553SOL     OW14898   5.151   7.250   4.592 -0.2512 -0.1171 -0.3965
 2553SOL    HW114899   5.126   7.265   4.501  3.3227 -1.9148 -1.9206
 2553SOL    HW214900   5.227   7.306   4.606 -0.0372 -0.7126  1.0796
 2554SOL     OW14901  11.083   1.171   9.964 -0.5263 -0.1066  0.4002
 2554SOL    HW114902  11.036   1.243   9.921 -0.2884 -0.3651 -0.3060
 2554SOL    HW214903  11.119   1.120   9.892  0.6777 -0.0259  0.9232
 2555SOL     OW14904   2.687   6.051   9.587 -0.0637 -0.7039  0.2613
 2555SOL    HW114905   2.779   6.067   9.565  0.2620 -0.2932  1.8299
 2555SOL    HW214906   2.654   6.001   9.513  1.1512 -0.0041 -0.8088
 2556SOL     OW14907  10.702   9.233  12.346  0.2270  0.2120  0.3736
 2556SOL    HW114908  10.725   9.217  12.438  0.3833  1.0780  0.4958
 2556SOL    HW214909  10.759   9.305  12.319 -0.1497  0.2796 -0.2651
 2557SOL     OW14910   1.711   3.683   7.243  0.0538 -0.0041  0.2362
 2557SOL    HW114911   1.758   3.712   7.165  0.0856 -2.7446 -0.8916
 2557SOL    HW214912   1.780   3.656   7.303  0.0238 -1.5188 -0.3673
 2558SOL     OW14913   9.823  11.819   4.565 -0.1263  0.1155 -0.4187
 2558SOL    HW114914   9.762  11.757   4.606  0.7398 -1.3258 -1.2381
 2558SOL    HW214915   9.903  11.812   4.618  0.1719  0.0875 -0.8729
 2559SOL     OW14916   6.481  11.092   2.247 -0.0326 -0.1603 -0.0592
 2559SOL    HW114917   6.401  11.120   2.203 -0.3317 -1.0765 -0.1193
 2559SOL    HW214918   6.502  11.008   2.207  0.5413 -0.2805  0.4794
 2560SOL     OW14919  12.114   7.905   5.070  0.7155  0.3804 -0.5281
 2560SOL    HW114920  12.206   7.929   5.066  0.8593  0.1397  0.8439
 2560SOL    HW214921  12.077   7.935   4.987  1.8050  1.3952 -0.6646
 2561SOL     OW14922   2.438   7.805   8.484  0.4171  0.2823 -0.2475
 2561SOL    HW114923   2.356   7.850   8.502  0.7379  0.4881  0.7499
 2561SOL    HW214924   2.413   7.713   8.473  0.3097 -0.0992  2.5980
 2562SOL     OW14925  11.934   8.870   6.776 -0.0938 -0.6799  0.0505
 2562SOL    HW114926  11.873   8.837   6.710  0.6900 -1.1163 -0.4706
 2562SOL    HW214927  11.983   8.793   6.805  1.0577 -0.1599 -0.4496
 2563SOL     OW14928   6.533   5.141   9.205  0.1123 -0.1113 -0.3304
 2563SOL    HW114929   6.613   5.119   9.157 -2.4136 -2.1067 -4.0605
 2563SOL    HW214930   6.503   5.223   9.165 -1.1278 -0.8713 -1.0003
 2564SOL     OW14931   3.171   5.684   8.107  0.0039 -0.2769 -0.3948
 2564SOL    HW114932   3.164   5.741   8.183  0.1299 -0.8799  0.0781
 2564SOL    HW214933   3.245   5.718   8.058 -1.0937  1.1348 -1.1362
 2565SOL     OW14934   9.155  12.033   0.801 -0.8939  0.3485  0.3556
 2565SOL    HW114935   9.170  12.013   0.893 -0.8956  0.4993  0.3887
 2565SOL    HW214936   9.068  11.996   0.782 -1.4287  1.3805  0.7343
 2566SOL     OW14937   9.287   3.506  12.097 -0.1075 -0.3143 -0.4848
 2566SOL    HW114938   9.196   3.485  12.079  0.3429 -1.5534 -1.4959
 2566SOL    HW214939   9.336   3.460  12.028  1.2809  0.2268  0.1031
 2567SOL     OW14940   1.892   7.660   6.049 -0.2074 -0.0042 -0.3936
 2567SOL    HW114941   1.814   7.697   6.007 -1.2734 -0.3239  1.1914
 2567SOL    HW214942   1.864   7.573   6.077  1.3107 -0.8394 -1.3798
 2568SOL     OW14943   0.630   2.336  10.983  0.0501  0.1675  0.0740
 2568SOL    HW114944   0.714   2.295  10.960 -0.3434 -1.4401  1.3488
 2568SOL    HW214945   0.607   2.388  10.905  1.1591 -1.1084 -1.1648
 2569SOL     OW14946  12.655   4.503  12.706  0.1017  0.1912 -0.3561
 2569SOL    HW114947  12.748   4.484  12.692  0.0078  1.0864 -2.5391
 2569SOL    HW214948  12.614   4.488  12.621 -1.7291  0.1193  0.4858
 2570SOL     OW14949  11.020   0.584   3.925 -0.2714 -0.1087  0.6149
 2570SOL    HW114950  11.072   0.507   3.948  2.4437  2.2955  3.1725
 2570SOL    HW214951  10.984   0.615   4.008  0.7253  2.7078  0.1045
 2571SOL     OW14952   8.623  10.171   3.284 -0.7796 -0.1247  0.5520
 2571SOL    HW114953   8.706  10.211   3.256 -0.5290 -2.0998 -1.9643
 2571SOL    HW214954   8.649  10.104   3.346 -0.2645 -1.4617 -1.0232
 2572SOL     OW14955  11.346   3.493  12.203 -0.3646  0.7735 -0.1911
 2572SOL    HW114956  11.440   3.504  12.186 -0.1561 -1.1409 -0.4993
 2572SOL    HW214957  11.342   3.433  12.277 -1.3691  1.8928  0.7055
 2573SOL     OW14958   8.155   6.879   0.304  0.5312 -0.5128  0.0659
 2573SOL    HW114959   8.104   6.853   0.381  0.2215  0.3790  0.1734
 2573SOL    HW214960   8.214   6.805   0.288  0.7918 -0.6022  1.3231
 2574SOL     OW14961  10.675   7.990   2.777 -0.0156 -0.1068 -0.4978
 2574SOL    HW114962  10.611   8.062   2.771 -0.0100 -0.0370  0.1654
 2574SOL    HW214963  10.729   7.999   2.699  0.3713  0.9863 -0.1163
 2575SOL     OW14964   5.563   8.620   5.418  0.9562 -0.2788  0.4341
 2575SOL    HW114965   5.652   8.593   5.442  1.5684  2.2031  1.3060
 2575SOL    HW214966   5.554   8.595   5.326  1.9207 -2.0230  0.7690
 2576SOL     OW14967   9.173   6.481   3.335 -0.2860  0.2981 -0.0011
 2576SOL    HW114968   9.118   6.406   3.359 -1.0916  1.3668  1.6432
 2576SOL    HW214969   9.165   6.486   3.240 -1.3304 -0.8644 -0.0081
 2577SOL     OW14970   5.505   4.585   1.931  0.3903 -0.1312  0.5479
 2577SOL    HW114971   5.470   4.656   1.983 -0.4244  0.9185 -1.3271
 2577SOL    HW214972   5.465   4.506   1.967 -2.3091  0.8174 -0.1515
 2578SOL     OW14973  12.499   0.955  10.892 -0.2596 -0.3219 -0.2219
 2578SOL    HW114974  12.429   0.952  10.958 -0.5629  2.3556 -0.3291
 2578SOL    HW214975  12.559   1.023  10.923  1.5789 -1.5683 -0.8780
 2579SOL     OW14976  11.154   7.186   1.637 -0.8614  0.2931 -0.2179
 2579SOL    HW114977  11.152   7.244   1.561 -2.2850 -1.0247 -1.2363
 2579SOL    HW214978  11.095   7.114   1.615 -1.1347 -0.2664  2.0444
 2580SOL     OW14979   1.948  10.167   6.410  0.1669 -0.4711 -0.0312
 2580SOL    HW114980   2.028  10.194   6.455  0.4242 -0.9818 -0.1829
 2580SOL    HW214981   1.975  10.151   6.320 -0.1285 -0.5437 -0.1075
 2581SOL     OW14982  10.835  12.001   4.231  0.3296 -0.2988  0.0799
 2581SOL    HW114983  10.784  11.938   4.282 -0.0832  0.7146  0.9532
 2581SOL    HW214984  10.769  12.048   4.179  0.3583  0.9641  1.1537
 2582SOL     OW14985  11.070   2.715   7.466 -0.2192  0.1217 -0.9324
 2582SOL    HW114986  11.101   2.795   7.508 -1.9653  0.2701  0.1771
 2582SOL    HW214987  10.988   2.741   7.422 -1.7956 -1.3550  0.9411
 2583SOL     OW14988   5.969   7.403   2.787  0.6176 -0.0294 -0.2026
 2583SOL    HW114989   6.057   7.416   2.752  1.8228  0.1349  2.6209
 2583SOL    HW214990   5.915   7.387   2.710  2.7353  1.7337 -2.2143
 2584SOL     OW14991  11.098   6.615   4.351 -0.3582  0.3768  0.0597
 2584SOL    HW114992  11.154   6.693   4.353 -0.4023  0.5202 -2.2391
 2584SOL    HW214993  11.033   6.633   4.283 -0.1473 -1.7804 -0.8139
 2585SOL     OW14994  11.283   8.461  12.337  0.0644  0.1705  0.3963
 2585SOL    HW114995  11.275   8.534  12.399 -0.7930 -0.6309  1.2615
 2585SOL    HW214996  11.207   8.406  12.355  0.5417 -0.7899 -0.4429
 2586SOL     OW14997   6.427  11.760  12.032  0.1515 -0.3603  0.0433
 2586SOL    HW114998   6.464  11.686  11.984  0.9196 -0.5842  0.9602
 2586SOL    HW214999   6.480  11.835  12.004 -0.2044 -0.2638 -0.3877
 2587SOL     OW15000   5.094   2.548   4.372 -0.2282  0.2929 -0.6681
 2587SOL    HW115001   5.091   2.497   4.292 -1.3696  0.7543 -0.9435
 2587SOL    HW215002   5.153   2.500   4.430 -0.1442 -0.5432 -1.4413
 2588SOL     OW15003   1.803   3.650   5.227 -0.1977 -0.4876 -0.1342
 2588SOL    HW115004   1.777   3.690   5.310 -2.0488 -0.8984 -0.4741
 2588SOL    HW215005   1.806   3.723   5.165  1.6033 -0.1109  0.3359
 2589SOL     OW15006   4.970  12.663   0.681 -0.2261 -0.2893  0.2645
 2589SOL    HW115007   4.929  12.587   0.641 -0.2029 -0.1244 -0.0775
 2589SOL    HW215008   5.043  12.684   0.623  0.5495 -0.7809  1.0384
 2590SOL     OW15009   0.842   0.042   9.657 -0.1421  0.4677 -0.1682
 2590SOL    HW115010   0.937   0.049   9.651  0.0665 -1.5892 -0.2135
 2590SOL    HW215011   0.809   0.125   9.624  1.6481  1.6411  0.8263
 2591SOL     OW15012   4.166   0.180   8.362  0.5887  0.1196  0.5568
 2591SOL    HW115013   4.156   0.166   8.268  0.5448  0.1722  0.5537
 2591SOL    HW215014   4.169   0.092   8.400  1.0639  0.0888  0.4602
 2592SOL     OW15015   6.660  11.606   7.255  0.6784  0.2555 -0.0107
 2592SOL    HW115016   6.661  11.676   7.189  1.4984  1.1125  0.8597
 2592SOL    HW215017   6.576  11.562   7.243  0.3203  1.1310 -0.8644
 2593SOL     OW15018   4.532   0.301   0.039  0.0736 -0.4375 -0.0661
 2593SOL    HW115019   4.571   0.219   0.072  0.7647 -0.1186 -0.0787
 2593SOL    HW215020   4.466   0.323   0.104 -0.8101 -1.5302 -0.5646
 2594SOL     OW15021   9.907   7.167  11.349 -0.2514 -0.1930 -0.1447
 2594SOL    HW115022   9.913   7.182  11.443 -0.5502 -2.9369  0.4199
 2594SOL    HW215023   9.855   7.240  11.316  2.5315  2.6073  1.1961
 2595SOL     OW15024  11.212  11.710   7.565 -0.1790  0.4837  0.1279
 2595SOL    HW115025  11.125  11.690   7.601 -0.3919  1.1794  0.0102
 2595SOL    HW215026  11.209  11.676   7.476 -0.1461  0.0350  0.2960
 2596SOL     OW15027   2.417  12.419  11.039 -0.2400  0.5198  0.3738
 2596SOL    HW115028   2.336  12.392  11.083  0.0286 -3.9741 -1.2921
 2596SOL    HW215029   2.485  12.408  11.105 -0.3795 -1.5870  0.2329
 2597SOL     OW15030  11.978   9.168  10.110  0.3914  0.0736  0.1936
 2597SOL    HW115031  11.944   9.165  10.020 -0.6315  1.0028  0.5217
 2597SOL    HW215032  12.014   9.081  10.125 -1.2055 -0.7584 -0.4652
 2598SOL     OW15033   6.391  12.286   2.970  0.0320  0.3141  0.0392
 2598SOL    HW115034   6.315  12.253   3.018 -1.1711  0.6831 -1.5227
 2598SOL    HW215035   6.431  12.207   2.932  0.3295  0.1429  0.6902
 2599SOL     OW15036  11.759   1.490  10.590  0.2155 -0.1016  0.1947
 2599SOL    HW115037  11.852   1.491  10.610  0.3819 -0.2374 -0.5379
 2599SOL    HW215038  11.723   1.564  10.639  0.9347  0.7587 -0.5285
 2600SOL     OW15039   1.904  11.588   6.609  0.6474 -0.2294 -0.2834
 2600SOL    HW115040   1.891  11.597   6.515  1.2938 -0.3034 -0.3801
 2600SOL    HW215041   1.955  11.665   6.634 -0.6952  0.5375  0.2562
 2601SOL     OW15042   4.560   6.593   2.196 -0.0723  0.2353 -0.1395
 2601SOL    HW115043   4.482   6.594   2.251  0.2963  0.1039  0.3867
 2601SOL    HW215044   4.614   6.664   2.229  0.5263 -0.3755  0.2160
 2602SOL     OW15045  12.475   0.750   2.055 -0.4851 -0.1759  0.0827
 2602SOL    HW115046  12.542   0.687   2.079  2.3671  2.5855  0.0618
 2602SOL    HW215047  12.444   0.786   2.138 -0.4836 -0.0740  0.0401
 2603SOL     OW15048  10.421  11.083   9.037  0.1956 -0.6753  0.6637
 2603SOL    HW115049  10.466  11.009   8.995 -0.1495 -1.4609  1.6219
 2603SOL    HW215050  10.346  11.101   8.980  1.6451  0.6119 -0.9187
 2604SOL     OW15051  10.097   0.715  12.376  0.4186  0.4873 -0.3506
 2604SOL    HW115052  10.035   0.712  12.449 -1.4824  0.0610 -1.8946
 2604SOL    HW215053  10.142   0.799  12.386 -2.0516  1.9151 -0.4005
 2605SOL     OW15054   7.857   4.212   4.026 -0.0645  0.3687  0.3975
 2605SOL    HW115055   7.800   4.259   4.087  0.4432  0.0942  1.0975
 2605SOL    HW215056   7.810   4.214   3.943 -0.4756  1.3112  0.6389
 2606SOL     OW15057   8.133  12.703   6.083 -0.0543  0.9123  0.3803
 2606SOL    HW115058   8.143  12.773   6.019 -0.4589 -0.2776 -1.0362
 2606SOL    HW215059   8.150  12.745   6.167  2.0835  2.1806 -0.6151
 2607SOL     OW15060   9.319   8.962   2.059 -0.7436  0.2137  0.7001
 2607SOL    HW115061   9.403   8.941   2.098 -0.5825 -3.1303 -1.0768
 2607SOL    HW215062   9.340   9.021   1.986 -0.3228  1.5057  1.8342
 2608SOL     OW15063   0.534  11.354   3.378 -0.4908  0.6415 -0.1702
 2608SOL    HW115064   0.509  11.351   3.470  0.5449 -0.1116  0.1083
 2608SOL    HW215065   0.538  11.262   3.352  0.4675  0.7959 -0.6014
 2609SOL     OW15066   5.103  11.066   7.716 -0.8165  0.5512  0.1691
 2609SOL    HW115067   5.176  11.004   7.713  0.4412  1.9897  0.1252
 2609SOL    HW215068   5.039  11.023   7.773 -0.0531 -0.8407  0.0454
 2610SOL     OW15069   8.468   4.603   5.525  0.6287  0.1395  0.3432
 2610SOL    HW115070   8.452   4.685   5.477  1.7696 -0.1069 -0.4995
 2610SOL    HW215071   8.552   4.617   5.568  0.5167 -0.3602  0.7247
 2611SOL     OW15072   3.482   9.568   1.467  0.4067 -0.0471 -0.4436
 2611SOL    HW115073   3.535   9.637   1.427 -2.7301  1.8280 -1.7559
 2611SOL    HW215074   3.445   9.609   1.545 -2.3001  0.2973 -1.7714
 2612SOL     OW15075   8.230  10.561   8.321 -0.2066 -0.0251  0.0522
 2612SOL    HW115076   8.156  10.584   8.265  0.5973  1.4695 -0.4890
 2612SOL    HW215077   8.283  10.642   8.324  1.8112 -1.2543 -0.2620
 2613SOL     OW15078  10.193   5.849  10.188 -0.0914 -0.2771 -0.2345
 2613SOL    HW115079  10.124   5.798  10.232  1.0887 -0.4189  1.5527
 2613SOL    HW215080  10.241   5.785  10.137  2.1173 -1.3781  2.9069
 2614SOL     OW15081   8.278   3.344   6.752 -0.6245  0.1948 -0.4439
 2614SOL    HW115082   8.221   3.271   6.728 -0.7105  0.1978 -0.2498
 2614SOL    HW215083   8.246   3.373   6.837  1.4903 -1.6539  1.0816
 2615SOL     OW15084   6.640   5.411   0.627  0.4077 -0.0778  0.0960
 2615SOL    HW115085   6.611   5.413   0.718 -2.1790  1.4307 -0.6492
 2615SOL    HW215086   6.632   5.502   0.597  2.0704 -0.3664 -1.4163
 2616SOL     OW15087   6.195   9.290   5.032  0.0735 -0.5962 -0.3980
 2616SOL    HW115088   6.192   9.254   5.121 -2.7178  3.4285  1.4643
 2616SOL    HW215089   6.260   9.360   5.038 -0.1358 -0.2977 -1.5731
 2617SOL     OW15090   0.126   8.543   1.378 -0.3964  0.1048  0.4901
 2617SOL    HW115091   0.185   8.552   1.303  2.8160 -0.9697  2.6612
 2617SOL    HW215092   0.104   8.450   1.380  0.0532  0.0059  1.1859
 2618SOL     OW15093   9.732   5.033   1.103 -0.5318 -0.4972  0.0552
 2618SOL    HW115094   9.644   5.047   1.138  0.1703 -0.0025  1.6919
 2618SOL    HW215095   9.753   5.115   1.058 -0.6370 -0.3557  0.2645
 2619SOL     OW15096   4.836   9.623   7.076 -0.0651 -0.0923 -0.6107
 2619SOL    HW115097   4.782   9.590   7.147 -1.3791  2.4827 -0.2958
 2619SOL    HW215098   4.924   9.628   7.113 -0.5507  0.3355  0.5290
 2620SOL     OW15099   6.185   3.469   4.295  0.2307  0.2136  0.1648
 2620SOL    HW115100   6.154   3.388   4.335  0.6095  0.3058  0.6576
 2620SOL    HW215101   6.163   3.537   4.359 -0.3336  0.5453 -0.3659
 2621SOL     OW15102   9.667  11.648   4.689 -0.2051  0.5539  0.0024
 2621SOL    HW115103   9.642  11.569   4.641 -0.4392 -0.1933  1.3060
 2621SOL    HW215104   9.593  11.665   4.747  0.3233  1.0892  0.5337
 2622SOL     OW15105   8.604   5.181   2.332  0.0688 -0.5388 -0.3699
 2622SOL    HW115106   8.548   5.252   2.363 -1.5511 -1.6883 -0.5847
 2622SOL    HW215107   8.673   5.175   2.398  0.6494  1.6405 -0.6706
 2623SOL     OW15108   0.510   8.460   1.880  0.2549 -0.2471 -0.9666
 2623SOL    HW115109   0.485   8.547   1.849  1.9106  0.5321 -0.2036
 2623SOL    HW215110   0.605   8.460   1.879  0.3937 -0.9292  1.9464
 2624SOL     OW15111   4.073   9.531   8.605  0.4270 -0.1027  0.5086
 2624SOL    HW115112   4.095   9.454   8.553  0.2090  0.6968 -0.8159
 2624SOL    HW215113   4.009   9.578   8.552  0.0662  0.6641  1.5894
 2625SOL     OW15114   2.407   9.284  10.693  0.4308  0.8957  0.3176
 2625SOL    HW115115   2.312   9.276  10.680  0.4222  0.5018  0.5992
 2625SOL    HW215116   2.435   9.347  10.627  0.2534 -0.3348 -0.9949
 2626SOL     OW15117   6.284   7.159   4.453 -0.0125 -0.7459 -0.2554
 2626SOL    HW115118   6.301   7.096   4.383  0.1916 -1.9326  0.8422
 2626SOL    HW215119   6.194   7.141   4.479  0.0861 -0.6638  0.1416
 2627SOL     OW15120   9.759   7.029   6.921 -0.3601 -0.5247 -0.7594
 2627SOL    HW115121   9.823   7.018   6.991 -1.1452 -0.7965 -0.0786
 2627SOL    HW215122   9.802   7.088   6.858 -0.0627  0.5638  0.4360
 2628SOL     OW15123   9.478   8.189   3.782 -0.1301  0.3311 -0.0840
 2628SOL    HW115124   9.539   8.116   3.789 -1.1688 -0.5686 -0.2767
 2628SOL    HW215125   9.507   8.251   3.850  1.4608  0.2997 -0.6903
 2629SOL     OW15126   1.091   7.633   8.915 -0.1890 -0.2535 -0.2657
 2629SOL    HW115127   1.071   7.540   8.909 -2.4077  0.1436  0.2014
 2629SOL    HW215128   1.046   7.662   8.995 -0.8723  1.5222 -1.2386
 2630SOL     OW15129   9.617  12.169   7.035 -0.1893 -0.0395 -0.7013
 2630SOL    HW115130   9.533  12.133   7.008  0.4663 -1.2293 -1.2251
 2630SOL    HW215131   9.682  12.111   6.995  1.0077  2.7563 -3.1643
 2631SOL     OW15132   1.572   6.176   0.463  0.0721  0.0261 -0.6562
 2631SOL    HW115133   1.627   6.228   0.522  1.0893  1.1338 -2.4696
 2631SOL    HW215134   1.634   6.142   0.399 -1.2104  0.3955 -2.1314
 2632SOL     OW15135  11.441   7.679   7.817 -0.5504  0.6202 -0.4391
 2632SOL    HW115136  11.438   7.672   7.722 -1.3285 -1.1899 -0.3287
 2632SOL    HW215137  11.534   7.676   7.839 -0.3518 -3.6657 -0.9715
 2633SOL     OW15138   4.361   1.985   1.130 -0.1836 -0.0506  0.5628
 2633SOL    HW115139   4.289   2.047   1.141 -0.5735 -0.6851  1.7102
 2633SOL    HW215140   4.329   1.922   1.065  0.6422  1.5324 -1.4739
 2634SOL     OW15141   6.405   9.460   4.237  0.1125 -0.1439  0.3365
 2634SOL    HW115142   6.433   9.550   4.222 -1.4469  0.0747 -1.7331
 2634SOL    HW215143   6.481   9.406   4.215  0.3488  0.5848 -0.6772
 2635SOL     OW15144   0.862   3.278   4.885  0.2123 -0.0576  0.6519
 2635SOL    HW115145   0.873   3.364   4.843  3.4259 -0.4987  0.3204
 2635SOL    HW215146   0.914   3.218   4.831 -1.3726 -2.1156  1.2729
 2636SOL     OW15147   5.933  12.490   1.630  0.0066 -0.3173  0.0823
 2636SOL    HW115148   5.990  12.443   1.691  0.2887 -0.8031 -0.5437
 2636SOL    HW215149   5.902  12.423   1.570 -1.1364 -0.0289  0.3346
 2637SOL     OW15150   1.470  10.532   0.271  0.4337  0.3212  0.4337
 2637SOL    HW115151   1.562  10.530   0.245  0.4648  1.4843  0.3909
 2637SOL    HW215152   1.463  10.465   0.340  0.9082 -1.0011 -0.7546
 2638SOL     OW15153   7.356  11.937  11.068 -0.6229  0.1228  0.2719
 2638SOL    HW115154   7.400  11.873  11.125 -0.6404  0.3520  0.5406
 2638SOL    HW215155   7.265  11.906  11.064  0.0678 -1.8976 -2.4180
 2639SOL     OW15156   8.248   5.407   4.763  0.1371  0.4238  0.4698
 2639SOL    HW115157   8.309   5.356   4.710 -2.0452 -1.4010 -0.4923
 2639SOL    HW215158   8.289   5.414   4.849  0.9298 -2.3719  0.4198
 2640SOL     OW15159   9.306   1.536   7.819  0.3786 -0.4727  0.0245
 2640SOL    HW115160   9.370   1.504   7.755  0.8664  1.1403 -0.3352
 2640SOL    HW215161   9.358   1.564   7.894  0.1372  0.9070 -0.2903
 2641SOL     OW15162  11.377   1.526   8.366 -0.2716  0.5018 -0.3854
 2641SOL    HW115163  11.382   1.453   8.304  3.8628 -1.2878  1.6270
 2641SOL    HW215164  11.326   1.492   8.439  1.2036 -0.3103  0.3186
 2642SOL     OW15165  10.097   7.712  10.863  0.2703 -0.2296 -0.8057
 2642SOL    HW115166  10.163   7.739  10.926 -0.0967  0.8273 -0.8488
 2642SOL    HW215167  10.144   7.700  10.781  0.1723  2.5194 -1.3604
 2643SOL     OW15168   7.971   1.977   4.392  0.3499 -0.0191  0.3322
 2643SOL    HW115169   8.051   1.925   4.385  0.4560  0.1139  0.5439
 2643SOL    HW215170   7.934   1.975   4.304  0.3066 -0.5215  0.3582
 2644SOL     OW15171  10.428   6.399   2.500  0.3045  0.1585 -0.0928
 2644SOL    HW115172  10.352   6.438   2.543  0.2478 -0.9307  0.8323
 2644SOL    HW215173  10.472   6.473   2.458 -1.3019  0.7926 -0.7325
 2645SOL     OW15174   3.627   9.615   3.682  0.0467 -0.6199  0.1630
 2645SOL    HW115175   3.695   9.549   3.694  0.5461 -0.2091 -0.3404
 2645SOL    HW215176   3.662   9.673   3.614 -0.6812 -0.2358  0.1087
 2646SOL     OW15177   1.419   7.701  11.915 -0.0958 -0.0007  0.7044
 2646SOL    HW115178   1.335   7.687  11.871 -0.2235 -1.8840  1.4358
 2646SOL    HW215179   1.396   7.733  12.002 -0.2794 -2.7236  1.7610
 2647SOL     OW15180   3.625   8.777   9.589 -0.2370  0.3875  0.4750
 2647SOL    HW115181   3.668   8.840   9.530 -1.2999  0.1283 -0.6296
 2647SOL    HW215182   3.697   8.727   9.628  0.5318  1.0332 -0.0865
 2648SOL     OW15183   8.411   0.226   8.904  0.1768  0.2057 -0.6659
 2648SOL    HW115184   8.475   0.217   8.834 -1.3056 -1.9927 -1.8731
 2648SOL    HW215185   8.360   0.303   8.880  0.3717  0.1088 -1.4319
 2649SOL     OW15186  11.375   5.754   2.595  0.2549 -0.4921  0.1424
 2649SOL    HW115187  11.419   5.672   2.572 -2.1159 -1.1025 -2.7839
 2649SOL    HW215188  11.297   5.726   2.642  0.4858  0.2828  1.0102
 2650SOL     OW15189  11.307   1.883  11.467 -0.2536  0.3154  0.0380
 2650SOL    HW115190  11.252   1.832  11.408  0.5718  0.1572 -0.6156
 2650SOL    HW215191  11.315   1.969  11.425  2.1080 -0.4609 -1.2366
 2651SOL     OW15192   7.873   8.759   8.108 -0.1380  0.3261  0.0808
 2651SOL    HW115193   7.833   8.844   8.121 -2.0973 -0.3665 -0.9325
 2651SOL    HW215194   7.831   8.702   8.172 -2.9908 -1.0027 -2.6531
 2652SOL     OW15195   8.546   6.450   6.194 -0.1381  0.3998 -0.6761
 2652SOL    HW115196   8.567   6.429   6.103  3.3194 -0.6140  0.2217
 2652SOL    HW215197   8.536   6.365   6.236  0.4076  0.8126  0.2993
 2653SOL     OW15198   7.947   5.389   0.447  0.6033 -0.4578  0.9236
 2653SOL    HW115199   7.968   5.337   0.369 -0.4445  0.9964 -0.3804
 2653SOL    HW215200   8.025   5.383   0.502  1.8937 -0.4478 -0.8452
 2654SOL     OW15201   7.980  11.392   1.780  0.0320  0.2510 -0.0269
 2654SOL    HW115202   7.893  11.429   1.768 -0.0105  0.0126 -0.4997
 2654SOL    HW215203   8.027  11.414   1.700  0.7183  1.2077  0.6234
 2655SOL     OW15204   0.269   9.862  10.462 -0.2295  0.2357  0.1736
 2655SOL    HW115205   0.219   9.808  10.524 -1.9929  2.6958  1.0368
 2655SOL    HW215206   0.354   9.874  10.503 -0.4406 -0.3697  0.8096
 2656SOL     OW15207  10.228   2.100   6.265  0.5340  0.2401 -0.3391
 2656SOL    HW115208  10.244   2.006   6.265  0.3686  0.1814  1.2442
 2656SOL    HW215209  10.245   2.128   6.175  2.8937 -0.9211 -0.3183
 2657SOL     OW15210   3.419   7.207   2.660 -0.0233 -0.4068 -0.1536
 2657SOL    HW115211   3.487   7.251   2.608  0.4158  0.4135  1.0668
 2657SOL    HW215212   3.351   7.274   2.671 -0.8471 -1.0849 -0.9973
 2658SOL     OW15213   7.475  12.628   7.791 -0.0628 -0.2579 -0.9641
 2658SOL    HW115214   7.457  12.615   7.884  0.9850  0.4328 -0.6486
 2658SOL    HW215215   7.474  12.539   7.754 -2.0278 -0.4259 -0.6169
 2659SOL     OW15216   8.990   4.091   2.365  0.3696  0.8580 -0.6344
 2659SOL    HW115217   8.930   4.166   2.373 -0.5786  0.1759 -1.2533
 2659SOL    HW215218   9.013   4.088   2.272 -0.5320 -0.3197 -0.8339
 2660SOL     OW15219  12.383   2.526  10.841 -0.2843  0.3949 -0.0695
 2660SOL    HW115220  12.475   2.532  10.814  0.0115 -1.9292  0.2087
 2660SOL    HW215221  12.380   2.450  10.899 -2.6780 -0.5787 -1.3520
 2661SOL     OW15222   6.490  10.875   8.280 -0.0434 -0.3446  0.1412
 2661SOL    HW115223   6.457  10.805   8.224 -0.3313 -0.5523  0.5622
 2661SOL    HW215224   6.568  10.907   8.235 -0.7923  0.1262 -0.8530
 2662SOL     OW15225   8.168   5.959   6.417 -0.2990 -0.5607 -0.4725
 2662SOL    HW115226   8.163   6.013   6.338  0.9089  0.9594  0.4314
 2662SOL    HW215227   8.223   6.010   6.477 -3.1414 -0.4100  2.2863
 2663SOL     OW15228   5.419   6.480  10.430 -0.0236 -0.4759  0.1363
 2663SOL    HW115229   5.353   6.484  10.499 -1.3986  0.5354 -1.1820
 2663SOL    HW215230   5.478   6.553  10.448 -0.2578 -0.3415  0.3569
 2664SOL     OW15231  11.446   6.577   4.882  0.5670 -0.5302  0.1673
 2664SOL    HW115232  11.461   6.672   4.885  1.4579 -0.6775  0.6882
 2664SOL    HW215233  11.470   6.546   4.969  0.9245 -1.3227 -0.2054
 2665SOL     OW15234   2.854   5.822   4.992  0.1001  0.4871 -0.1524
 2665SOL    HW115235   2.795   5.897   4.991  0.7789  1.0280 -0.2000
 2665SOL    HW215236   2.796   5.746   4.985 -0.5440  1.0384 -1.0561
 2666SOL     OW15237  11.235   6.111  12.554 -0.0696 -0.1014 -0.2710
 2666SOL    HW115238  11.145   6.081  12.568  0.0277 -0.4168 -0.3061
 2666SOL    HW215239  11.264   6.142  12.640 -0.3207  0.3094 -0.3310
 2667SOL     OW15240   6.735  11.042   8.173  0.5719  0.0626  0.2837
 2667SOL    HW115241   6.671  11.108   8.200  0.4876 -0.2583  0.8868
 2667SOL    HW215242   6.766  11.073   8.088 -1.0972 -0.2862 -0.4868
 2668SOL     OW15243   6.035  10.468  12.686 -0.2198 -0.1223  0.0885
 2668SOL    HW115244   6.068  10.519  12.612  1.0543  1.0550  1.3866
 2668SOL    HW215245   5.947  10.502  12.702  0.7125  1.9937  1.1137
 2669SOL     OW15246  12.129  11.696   6.913 -0.6063  0.1196  0.3934
 2669SOL    HW115247  12.132  11.748   6.993 -0.1867 -0.0118  0.4643
 2669SOL    HW215248  12.100  11.610   6.941  0.7936 -0.3059  0.6154
 2670SOL     OW15249  10.395  11.592   4.204 -0.3869 -0.0628  0.2353
 2670SOL    HW115250  10.479  11.629   4.231  0.7332 -3.0673  1.3120
 2670SOL    HW215251  10.348  11.578   4.286 -1.8926  1.3540 -0.3407
 2671SOL     OW15252  10.040   7.969  10.522 -0.5182  0.0199  0.4916
 2671SOL    HW115253   9.963   7.966  10.465 -0.6453 -1.9760  0.6996
 2671SOL    HW215254  10.007   8.000  10.606 -0.4515  2.3219 -0.2423
 2672SOL     OW15255   3.022   6.843  11.542  0.2618  0.5416 -0.2513
 2672SOL    HW115256   3.005   6.864  11.450  0.0551 -1.0660 -0.6153
 2672SOL    HW215257   2.948   6.880  11.589 -0.3512  0.2056 -0.9223
 2673SOL     OW15258  11.771   0.957   7.604 -0.7456  0.0488  0.4979
 2673SOL    HW115259  11.764   0.861   7.600 -3.1630  0.2016 -0.5124
 2673SOL    HW215260  11.688   0.985   7.643 -0.5616  1.8017 -0.2813
 2674SOL     OW15261   8.376   9.654   1.230  0.3817 -0.1138 -0.0580
 2674SOL    HW115262   8.340   9.565   1.227  0.0980  0.0020 -0.0964
 2674SOL    HW215263   8.344   9.690   1.313 -2.5537  1.2324 -1.6502
 2675SOL     OW15264   6.244   0.203   0.566 -0.0200  0.0696 -0.2459
 2675SOL    HW115265   6.298   0.274   0.600 -2.0785  0.2526  2.9980
 2675SOL    HW215266   6.224   0.149   0.642 -0.4013 -2.7780 -2.2023
 2676SOL     OW15267   1.609   2.945   7.465 -0.3015  0.4856 -1.2847
 2676SOL    HW115268   1.647   2.997   7.536 -1.8436  1.3745 -1.0844
 2676SOL    HW215269   1.563   2.874   7.509  1.3733 -0.8504 -1.5440
 2677SOL     OW15270   9.472   1.927   8.501 -0.0896  0.3270 -0.1578
 2677SOL    HW115271   9.490   1.884   8.585 -0.8266  0.3125  0.0001
 2677SOL    HW215272   9.467   1.855   8.438  1.7284  0.4225 -0.4732
 2678SOL     OW15273   1.074  12.102   9.699 -0.4974 -0.1368 -0.2190
 2678SOL    HW115274   0.991  12.085   9.655 -0.0632 -1.2072 -0.6576
 2678SOL    HW215275   1.140  12.091   9.631 -0.0011  1.0969  0.0292
 2679SOL     OW15276   6.270  10.382  12.265 -0.3757  0.1174  0.0661
 2679SOL    HW115277   6.362  10.387  12.240 -0.0620  1.0864  1.3198
 2679SOL    HW215278   6.271  10.361  12.359 -1.4500 -0.2976  0.0067
 2680SOL     OW15279   8.417   5.969  12.387  0.3162  0.3960 -0.0703
 2680SOL    HW115280   8.502   6.009  12.406  0.7650 -0.2923 -0.5725
 2680SOL    HW215281   8.359   6.003  12.455  1.3589 -0.3327  1.2308
 2681SOL     OW15282   2.526   5.680   0.080  0.2181  0.0643  0.5248
 2681SOL    HW115283   2.463   5.685   0.151  0.3074  0.9278  0.5558
 2681SOL    HW215284   2.520   5.590   0.048 -1.0966  0.1529  0.4614
 2682SOL     OW15285   0.164   8.103   2.697 -0.6632  0.4777  0.9569
 2682SOL    HW115286   0.087   8.139   2.742 -0.0114 -1.8368  4.3444
 2682SOL    HW215287   0.239   8.145   2.741  0.0374  0.1647  0.0907
 2683SOL     OW15288   3.032  11.013   6.729  0.3427 -0.0586  0.6274
 2683SOL    HW115289   3.018  10.951   6.658  1.5745 -0.4290  0.6810
 2683SOL    HW215290   3.047  10.959   6.806 -1.7993  0.3318  1.3985
 2684SOL     OW15291   9.733   9.235   9.620  0.5447 -0.1478  0.1695
 2684SOL    HW115292   9.641   9.243   9.595  0.2184  1.0619  1.5938
 2684SOL    HW215293   9.733   9.167   9.688  0.9483 -1.2142 -0.8743
 2685SOL     OW15294  12.389  10.065  12.059  0.2341 -0.5349  0.2662
 2685SOL    HW115295  12.459  10.114  12.015 -1.1095  0.1866 -1.1626
 2685SOL    HW215296  12.332  10.133  12.095 -0.1650 -1.1029  0.7172
 2686SOL     OW15297   0.911   3.059   5.059 -0.0427  0.0425 -0.3071
 2686SOL    HW115298   0.900   3.145   5.018  1.0037  0.9549  1.2428
 2686SOL    HW215299   0.977   3.073   5.127 -0.3764 -1.8302  0.4537
 2687SOL     OW15300  10.733   9.365   3.074  0.5478  0.2995 -0.7177
 2687SOL    HW115301  10.736   9.449   3.119  0.1895  0.0083 -0.1471
 2687SOL    HW215302  10.790   9.377   2.997  0.8032  0.9347 -0.4345
 2688SOL     OW15303  12.273   5.132   9.638 -0.0458 -0.0830 -0.2118
 2688SOL    HW115304  12.216   5.083   9.579  0.0539  1.3643 -1.5830
 2688SOL    HW215305  12.261   5.224   9.613 -0.3989  0.6806  2.3777
 2689SOL     OW15306   3.319   0.217  11.077 -0.3449  0.4556 -0.0295
 2689SOL    HW115307   3.297   0.124  11.066 -0.5572  0.4315  0.5850
 2689SOL    HW215308   3.295   0.237  11.167 -0.7751  1.2441 -0.3119
 2690SOL     OW15309  10.065   8.878  11.565 -0.3737  0.0915 -0.4462
 2690SOL    HW115310   9.986   8.888  11.617 -0.6360  0.8529 -0.9691
 2690SOL    HW215311  10.136   8.872  11.629 -0.8183 -0.2054  0.0168
 2691SOL     OW15312  10.064   6.741   5.403  0.2882  0.2553 -0.8904
 2691SOL    HW115313  10.061   6.813   5.465 -0.8926  0.4757 -1.1853
 2691SOL    HW215314   9.979   6.742   5.360  1.0667  0.0779 -2.4927
 2692SOL     OW15315   8.096  11.319   9.004 -0.5756  0.1085 -0.0675
 2692SOL    HW115316   8.112  11.293   9.095 -0.1716  3.0985  0.8603
 2692SOL    HW215317   8.028  11.386   9.011 -0.3590  0.5628 -1.9423
 2693SOL     OW15318   3.702   0.180   2.036  0.1651 -0.0049  0.3898
 2693SOL    HW115319   3.670   0.164   2.125  0.3482  0.8589  0.6145
 2693SOL    HW215320   3.626   0.162   1.980 -0.6902  1.8440  0.9039
 2694SOL     OW15321   3.903  10.545  11.691  0.3076 -0.3486 -0.0382
 2694SOL    HW115322   3.904  10.633  11.729  1.1074 -1.1950  1.9895
 2694SOL    HW215323   3.917  10.486  11.765  0.2101 -2.1795 -1.4147
 2695SOL     OW15324   3.965  11.963   7.117 -0.7655 -0.0714  0.0145
 2695SOL    HW115325   3.999  12.052   7.105  0.3559 -0.4803  0.0429
 2695SOL    HW215326   4.040  11.907   7.100 -0.9178 -0.9561  2.0286
 2696SOL     OW15327   7.451   8.620   3.949 -0.5690  0.1282 -0.0620
 2696SOL    HW115328   7.442   8.527   3.928  0.0153 -0.1329  0.7809
 2696SOL    HW215329   7.544   8.630   3.970 -0.4075  1.1361 -1.1960
 2697SOL     OW15330  12.457   7.489   1.299  0.1357  0.1729 -0.1011
 2697SOL    HW115331  12.473   7.559   1.235  0.3741 -0.6183 -0.9201
 2697SOL    HW215332  12.486   7.526   1.382  0.7330  0.8766 -0.6095
 2698SOL     OW15333   0.966   5.273   2.241  0.0657 -0.0116 -0.4767
 2698SOL    HW115334   0.875   5.305   2.244 -0.2431 -0.5030 -2.8847
 2698SOL    HW215335   1.013   5.331   2.301 -1.4958  1.4592 -0.5694
 2699SOL     OW15336   0.675   2.089   1.987  0.5607  0.0299 -0.4481
 2699SOL    HW115337   0.718   2.021   1.936  2.6145  1.1744 -0.3427
 2699SOL    HW215338   0.624   2.042   2.053  0.7579 -1.4050 -1.3001
 2700SOL     OW15339  10.081   6.475   2.313  0.1090 -0.1606  0.0517
 2700SOL    HW115340  10.057   6.384   2.326  1.4695 -0.4512  0.7032
 2700SOL    HW215341  10.133   6.498   2.390 -0.2367  1.1808 -0.0802
 2701SOL     OW15342  11.288   3.650   3.072  0.1020 -0.2943 -0.2136
 2701SOL    HW115343  11.249   3.565   3.056 -1.8789  0.5932 -0.3543
 2701SOL    HW215344  11.329   3.643   3.158 -1.9298 -0.7556  0.7565
 2702SOL     OW15345  12.642   8.714  12.455 -0.1280 -0.1708 -0.2487
 2702SOL    HW115346  12.612   8.655  12.386 -1.1589  0.5972 -0.4874
 2702SOL    HW215347  12.651   8.799  12.411 -0.3272  0.2150  0.4467
 2703SOL     OW15348  12.602   1.741   8.350 -0.2585  0.0566  0.3449
 2703SOL    HW115349  12.529   1.775   8.402 -1.3463 -0.7817 -0.5904
 2703SOL    HW215350  12.576   1.756   8.259  0.7401 -0.2794 -0.0113
 2704SOL     OW15351  11.615   6.267   8.636 -0.2916  0.2118  0.3215
 2704SOL    HW115352  11.668   6.247   8.713 -0.1638  1.0665  0.4721
 2704SOL    HW215353  11.537   6.310   8.671 -0.5661 -0.0339  0.0187
 2705SOL     OW15354   4.420   9.090   7.641 -0.3367 -0.3599 -0.0294
 2705SOL    HW115355   4.426   9.186   7.644 -0.2344 -0.3646 -0.1199
 2705SOL    HW215356   4.489   9.060   7.701  0.4233 -0.4042 -0.9132
 2706SOL     OW15357   6.384   8.362   5.685  0.3189  0.5685 -0.2631
 2706SOL    HW115358   6.463   8.321   5.651 -0.4664 -2.1535  0.9343
 2706SOL    HW215359   6.392   8.454   5.659  3.6493  0.3301 -0.5104
 2707SOL     OW15360   8.072   8.587   6.388  0.4740 -0.0639 -0.5321
 2707SOL    HW115361   8.020   8.569   6.466  1.7401 -1.6494 -0.0105
 2707SOL    HW215362   8.007   8.600   6.318 -0.6537 -2.1755  0.0438
 2708SOL     OW15363   0.186   0.660   2.628  0.4257 -0.2389 -0.0186
 2708SOL    HW115364   0.152   0.734   2.680 -0.3129 -0.2558 -0.4563
 2708SOL    HW215365   0.108   0.611   2.603  0.9894 -1.8414  1.2267
 2709SOL     OW15366   2.770   9.602   8.525  0.4986 -0.0955 -0.1236
 2709SOL    HW115367   2.862   9.602   8.498  0.0638 -0.4003 -1.7112
 2709SOL    HW215368   2.764   9.529   8.587  1.0682 -0.9307 -1.0200
 2710SOL     OW15369   7.322   4.216   0.477  0.3557  0.5101 -0.0591
 2710SOL    HW115370   7.352   4.240   0.564 -0.8357  2.4208 -0.1088
 2710SOL    HW215371   7.239   4.171   0.492 -1.3613  3.3385 -0.1852
 2711SOL     OW15372   5.837  10.807   4.927  0.6748  0.4004 -0.5924
 2711SOL    HW115373   5.748  10.800   4.962 -0.1644  0.3748 -2.6217
 2711SOL    HW215374   5.892  10.772   4.997 -0.7765  1.4514  1.1670
 2712SOL     OW15375  11.514   9.636   8.660  0.5656 -0.0574 -0.9385
 2712SOL    HW115376  11.499   9.553   8.704  1.3153  0.0429 -0.4774
 2712SOL    HW215377  11.540   9.696   8.730 -0.9497  0.8579 -1.0951
 2713SOL     OW15378   6.490   9.605   5.152 -0.1108  0.4098 -0.5647
 2713SOL    HW115379   6.555   9.662   5.110 -1.0913  1.0061 -1.3430
 2713SOL    HW215380   6.480   9.531   5.092 -0.9973  0.9145 -1.0723
 2714SOL     OW15381   6.855  11.350   6.408  0.2405 -0.2937  0.2423
 2714SOL    HW115382   6.905  11.429   6.385 -1.5704  0.8748  0.1147
 2714SOL    HW215383   6.799  11.334   6.331 -1.5882  0.1357  1.4147
 2715SOL     OW15384   7.013   9.908   1.140  0.6241 -0.8775 -0.1711
 2715SOL    HW115385   7.041   9.879   1.227  1.8535  0.6348 -0.0098
 2715SOL    HW215386   6.918   9.912   1.144  0.6855 -0.5344  1.2138
 2716SOL     OW15387   5.152   2.655   6.237  0.1056  0.3039 -0.1060
 2716SOL    HW115388   5.168   2.622   6.149 -1.5329 -4.0392  0.9395
 2716SOL    HW215389   5.070   2.704   6.229 -0.9703 -1.5052 -0.8205
 2717SOL     OW15390   1.742   1.129   1.541 -0.1048  0.1385  0.0590
 2717SOL    HW115391   1.825   1.120   1.589  0.1229 -1.8243 -0.6012
 2717SOL    HW215392   1.756   1.080   1.461 -1.1011  1.8638 -1.2295
 2718SOL     OW15393   7.323  12.579   8.403 -0.3524 -0.0560 -0.4859
 2718SOL    HW115394   7.348  12.522   8.476  0.1772  1.7411  0.8152
 2718SOL    HW215395   7.228  12.567   8.395 -0.4535 -0.1435  0.6451
 2719SOL     OW15396   6.170  11.974   7.526  0.0816 -0.6907 -0.1266
 2719SOL    HW115397   6.261  11.990   7.551 -0.2196 -0.4470  0.8775
 2719SOL    HW215398   6.158  12.025   7.446  1.0987 -1.5193 -0.8327
 2720SOL     OW15399  11.064   2.193   5.440 -0.4625 -0.2038 -0.5356
 2720SOL    HW115400  11.138   2.148   5.481  0.6478  0.2450 -1.9757
 2720SOL    HW215401  11.067   2.282   5.475 -1.4663 -0.6459  0.7910
 2721SOL     OW15402   6.851   2.387  11.752  0.1410  0.0136 -0.6082
 2721SOL    HW115403   6.931   2.438  11.760 -0.2973  0.4618  1.6458
 2721SOL    HW215404   6.782   2.444  11.787 -0.9394 -0.8739 -1.2032
 2722SOL     OW15405   0.575   8.414   0.422 -0.0366  0.2685  0.3038
 2722SOL    HW115406   0.626   8.366   0.356  1.8046 -0.6377  2.2573
 2722SOL    HW215407   0.628   8.492   0.441 -1.3419  1.3621 -0.3968
 2723SOL     OW15408   3.957   2.394   9.508 -0.3368  0.4812  0.1958
 2723SOL    HW115409   3.872   2.431   9.530 -0.3190 -0.4094  1.9089
 2723SOL    HW215410   3.967   2.319   9.567  0.7948 -0.6314 -1.3028
 2724SOL     OW15411   5.237   8.428   0.227  0.5567 -0.0380 -0.2581
 2724SOL    HW115412   5.249   8.458   0.137  1.0242 -0.1492 -0.2375
 2724SOL    HW215413   5.315   8.460   0.274  0.4232 -0.1663  0.0561
 2725SOL     OW15414  11.911  12.052   7.007  0.0698  0.2512  0.1839
 2725SOL    HW115415  11.902  12.142   6.975  0.6920  0.4724  0.6152
 2725SOL    HW215416  11.958  12.006   6.938  0.3976  0.4442  0.2751
 2726SOL     OW15417   4.143   2.277   5.972  0.0530 -0.6145  0.4405
 2726SOL    HW115418   4.058   2.243   5.947 -0.1197 -1.3892  1.9847
 2726SOL    HW215419   4.169   2.224   6.047  0.8301  1.1511  1.4749
 2727SOL     OW15420   0.297   0.284   2.353  0.3913  0.1832 -0.4104
 2727SOL    HW115421   0.297   0.374   2.319 -0.3355  1.3437  2.3277
 2727SOL    HW215422   0.358   0.237   2.297  1.4436  2.6065 -1.4548
 2728SOL     OW15423  10.597  10.223  11.736 -0.1691 -0.0971 -0.0249
 2728SOL    HW115424  10.518  10.269  11.764  0.6730  2.5558 -1.6514
 2728SOL    HW215425  10.579  10.131  11.754 -3.5694  0.4106 -0.2247
 2729SOL     OW15426  12.494   5.622   6.019 -0.3095 -0.1979  0.0077
 2729SOL    HW115427  12.424   5.672   6.059  0.4262 -0.3428  1.5618
 2729SOL    HW215428  12.574   5.664   6.049  0.3018 -0.3555 -1.3096
 2730SOL     OW15429   3.289   5.027   0.718  0.0518 -0.3185 -0.1834
 2730SOL    HW115430   3.211   5.049   0.769 -0.4967 -0.4713 -0.9374
 2730SOL    HW215431   3.274   4.936   0.690  0.5747 -0.4003 -0.2102
 2731SOL     OW15432  12.616   5.144   2.980  0.8462  0.2910 -0.0610
 2731SOL    HW115433  12.542   5.118   2.925 -1.3154  0.0512  2.6938
 2731SOL    HW215434  12.664   5.063   2.996  0.0467 -0.1092  0.3640
 2732SOL     OW15435  11.799   8.454  11.320  0.0693  0.3906  0.5930
 2732SOL    HW115436  11.855   8.527  11.348  1.5861 -0.6722  0.4578
 2732SOL    HW215437  11.796   8.396  11.396 -2.4269  1.2743  1.2593
 2733SOL     OW15438  11.932  12.675   1.698  0.2584  0.1879  0.0725
 2733SOL    HW115439  11.910  12.623   1.775  0.0599  0.8594  0.4789
 2733SOL    HW215440  11.908  12.620   1.624 -1.6908  0.4076  0.4937
 2734SOL     OW15441   1.715   2.854   4.677  0.3849  0.0814  0.2929
 2734SOL    HW115442   1.700   2.790   4.608 -1.1342 -1.1778  1.7008
 2734SOL    HW215443   1.744   2.803   4.752  4.4119  1.6541  0.0432
 2735SOL     OW15444   7.964   6.107   3.861 -0.6911  0.0377 -0.1624
 2735SOL    HW115445   8.000   6.121   3.949  2.7400 -0.3254 -1.3815
 2735SOL    HW215446   7.902   6.179   3.850 -0.9120  0.3413  2.3772
 2736SOL     OW15447   9.985  11.448   5.379 -0.1572 -0.2574 -0.0380
 2736SOL    HW115448  10.033  11.519   5.422 -0.0969 -0.4716  0.2513
 2736SOL    HW215449  10.041  11.422   5.306  0.1902 -0.5299  0.3198
 2737SOL     OW15450   3.844   8.841   3.019 -0.4878 -0.3148  0.1536
 2737SOL    HW115451   3.907   8.774   2.995 -0.5427 -0.5552  0.6794
 2737SOL    HW215452   3.873   8.919   2.972  0.5585 -0.2526  0.8768
 2738SOL     OW15453   0.318   2.192   9.232 -0.3295 -0.1738 -0.0527
 2738SOL    HW115454   0.229   2.156   9.231 -0.6239  0.5321 -0.9725
 2738SOL    HW215455   0.371   2.125   9.188 -0.1368 -1.1722  1.6119
 2739SOL     OW15456   7.929   1.544   9.032 -0.6857 -0.3156 -0.1304
 2739SOL    HW115457   7.875   1.555   8.954 -0.8076  1.6030  0.1664
 2739SOL    HW215458   7.867   1.521   9.101 -1.0403  0.9567  0.0076
 2740SOL     OW15459   8.992   7.021   5.726  0.1934 -0.2843  0.0498
 2740SOL    HW115460   9.066   6.963   5.709  0.1894 -0.4759  0.6347
 2740SOL    HW215461   8.993   7.084   5.654  1.2607  0.0559  0.3474
 2741SOL     OW15462   6.985   3.457  12.484 -0.0730 -0.1354 -0.7918
 2741SOL    HW115463   7.067   3.407  12.479 -0.6892 -1.3114  0.1366
 2741SOL    HW215464   6.917   3.389  12.491 -0.9132  0.8147  0.9987
 2742SOL     OW15465   5.800   5.657   4.770 -0.0035 -0.4083  0.5251
 2742SOL    HW115466   5.859   5.696   4.834 -1.2220 -0.2100  1.5565
 2742SOL    HW215467   5.774   5.729   4.713 -0.2671 -0.2253  0.8751
 2743SOL     OW15468  12.342   3.607   4.569  0.0660  0.2909  0.4628
 2743SOL    HW115469  12.329   3.513   4.557  2.3082 -0.2918  2.0731
 2743SOL    HW215470  12.436   3.618   4.576  0.0690  3.0516 -2.1820
 2744SOL     OW15471   1.140   9.815   8.397  0.0791  0.5520  0.0603
 2744SOL    HW115472   1.209   9.787   8.338 -0.5868 -1.3646  0.1078
 2744SOL    HW215473   1.062   9.821   8.342 -0.3928 -0.5426  0.5812
 2745SOL     OW15474   6.290   5.866   6.109  0.1790  0.2569  0.0879
 2745SOL    HW115475   6.324   5.956   6.113 -2.4839  1.4258 -0.8741
 2745SOL    HW215476   6.283   5.838   6.200 -1.7047  2.2278  0.6234
 2746SOL     OW15477  12.651   2.403   5.040 -0.2545 -0.7067 -0.5087
 2746SOL    HW115478  12.680   2.312   5.029 -1.9052 -1.4437  0.7363
 2746SOL    HW215479  12.556   2.398   5.035 -0.4014  0.8680  0.1833
 2747SOL     OW15480   5.094   3.127  11.795 -1.1308  0.2397 -0.0728
 2747SOL    HW115481   5.042   3.052  11.765 -2.3489  1.3672 -0.8655
 2747SOL    HW215482   5.124   3.169  11.715  1.9798 -0.9544  0.3282
 2748SOL     OW15483   5.340  11.789   0.138 -0.3432  0.0404  0.2809
 2748SOL    HW115484   5.358  11.701   0.108 -1.8828 -0.5671  1.0271
 2748SOL    HW215485   5.423  11.821   0.172  0.1093 -1.3350  0.5082
 2749SOL     OW15486   5.594   0.780   4.085 -0.3083  0.0530 -0.3013
 2749SOL    HW115487   5.680   0.822   4.084 -0.9034  1.3041 -0.7247
 2749SOL    HW215488   5.534   0.846   4.051 -1.2273 -1.2949 -1.4327
 2750SOL     OW15489   9.433   2.604   7.819 -0.1116 -0.2173 -0.3249
 2750SOL    HW115490   9.484   2.601   7.900 -0.8615  0.8063  0.2064
 2750SOL    HW215491   9.365   2.538   7.830 -1.7196  1.5427  0.9721
 2751SOL     OW15492   9.659   9.769   6.621 -0.9560  0.2695  0.5989
 2751SOL    HW115493   9.751   9.767   6.649 -1.8923  2.1769  4.4363
 2751SOL    HW215494   9.659   9.828   6.546  0.8641  0.8854  1.0183
 2752SOL     OW15495   7.358   9.840  12.576 -0.0406  0.1701  0.9663
 2752SOL    HW115496   7.283   9.900  12.575 -0.1586  0.0167  0.6696
 2752SOL    HW215497   7.327   9.761  12.533 -0.3450 -0.6731  2.6454
 2753SOL     OW15498   0.423   2.535   2.006 -0.1087 -1.3310 -0.0435
 2753SOL    HW115499   0.429   2.591   1.928 -1.0155 -2.5260 -1.0019
 2753SOL    HW215500   0.450   2.592   2.078  2.8814 -0.7724 -1.4411
 2754SOL     OW15501   7.304   3.287  10.144  0.0980 -0.0711 -0.1199
 2754SOL    HW115502   7.275   3.368  10.103 -1.2528 -1.1136 -1.3164
 2754SOL    HW215503   7.228   3.256  10.192  1.0932  0.1542  1.6910
 2755SOL     OW15504   5.845   6.914   7.941 -0.6550 -0.7172 -0.0067
 2755SOL    HW115505   5.924   6.869   7.913  1.3057  2.7058 -0.4961
 2755SOL    HW215506   5.791   6.921   7.862 -0.0654 -0.4206 -0.3813
 2756SOL     OW15507   9.790  12.303   6.536 -0.7543 -0.8905 -0.2693
 2756SOL    HW115508   9.715  12.290   6.595 -0.0785 -0.7084  0.6492
 2756SOL    HW215509   9.758  12.276   6.450 -3.1214  2.6379 -0.7114
 2757SOL     OW15510  12.589   3.758   6.859  0.7678 -0.1670  0.0640
 2757SOL    HW115511  12.671   3.720   6.827  0.2658 -0.2382 -1.2225
 2757SOL    HW215512  12.608   3.851   6.869  0.6497  0.0834 -1.6389
 2758SOL     OW15513   9.048   2.772  11.711  0.1105 -0.4569  0.3425
 2758SOL    HW115514   9.085   2.810  11.791  2.9865 -0.1265 -1.0155
 2758SOL    HW215515   9.092   2.688  11.701 -0.7219 -0.8146 -0.5391
 2759SOL     OW15516   4.095   1.884  10.983 -0.4219 -0.1782  0.2390
 2759SOL    HW115517   4.140   1.838  11.054  1.0399  1.2113  0.2637
 2759SOL    HW215518   4.039   1.947  11.027 -0.7987 -0.4621  0.1708
 2760SOL     OW15519  12.269   9.963   0.953 -0.0731 -0.7853  0.4951
 2760SOL    HW115520  12.308  10.015   1.023  2.4344 -2.1834  0.2885
 2760SOL    HW215521  12.237  10.027   0.890 -0.7122  0.4822  2.0486
 2761SOL     OW15522   0.773   1.744   0.764 -0.2219 -0.1362 -0.1836
 2761SOL    HW115523   0.757   1.683   0.693  2.3471 -1.3454  0.1752
 2761SOL    HW215524   0.868   1.756   0.765 -0.4643  2.4022  0.9877
 2762SOL     OW15525   1.841   7.396  12.315 -0.7064 -0.2676  0.4931
 2762SOL    HW115526   1.873   7.484  12.296 -0.4472 -0.4526  0.0701
 2762SOL    HW215527   1.866   7.381  12.406 -2.1012  0.6800  1.0801
 2763SOL     OW15528   5.331   2.507   4.061  0.0626 -0.5459 -0.0967
 2763SOL    HW115529   5.378   2.585   4.092 -0.3320 -0.4853  0.3474
 2763SOL    HW215530   5.393   2.465   4.001  0.4887 -0.1850  0.0809
 2764SOL     OW15531   4.567   6.320   7.401  0.2904 -0.2365  0.6152
 2764SOL    HW115532   4.638   6.314   7.465 -0.7825  0.0517  1.8752
 2764SOL    HW215533   4.543   6.229   7.384  0.3881 -0.3065  0.8461
 2765SOL     OW15534   2.717  10.288   5.248  0.0837 -0.0729  0.4749
 2765SOL    HW115535   2.689  10.220   5.309  0.0938 -0.6256 -0.1361
 2765SOL    HW215536   2.813  10.284   5.249  0.1576  1.0998  1.7441
 2766SOL     OW15537  10.609   2.880   6.003  0.4969 -0.0419 -0.1758
 2766SOL    HW115538  10.637   2.969   6.022 -0.6494 -0.0002  1.5400
 2766SOL    HW215539  10.513   2.886   5.996  0.4559 -1.0268 -0.7901
 2767SOL     OW15540  12.331   3.944   6.866  0.6401 -0.5891  0.2386
 2767SOL    HW115541  12.417   3.956   6.905  1.1510 -0.4219 -0.9063
 2767SOL    HW215542  12.320   4.020   6.809 -1.1795  0.5252  1.9473
 2768SOL     OW15543  12.425  11.820   6.625 -0.1751 -0.0840  0.3884
 2768SOL    HW115544  12.395  11.900   6.668 -1.5852 -0.4219  0.0762
 2768SOL    HW215545  12.455  11.765   6.697  0.8400  0.7228  0.6019
 2769SOL     OW15546   8.178   8.950   1.437 -0.5588  0.1177  0.3164
 2769SOL    HW115547   8.237   9.012   1.480 -1.1697  0.6589  0.3932
 2769SOL    HW215548   8.225   8.867   1.437  1.4596  1.1335 -2.2336
 2770SOL     OW15549   7.692  12.437  10.474  0.0533 -0.1287  0.5257
 2770SOL    HW115550   7.657  12.390  10.549  0.7016 -0.5785  0.5604
 2770SOL    HW215551   7.745  12.507  10.512 -1.4568  1.0909  0.4762
 2771SOL     OW15552   4.882   0.615   6.390 -0.1435 -0.3206  0.1401
 2771SOL    HW115553   4.821   0.686   6.407  1.7821  1.4525 -0.0467
 2771SOL    HW215554   4.931   0.604   6.472  0.0691 -0.9531 -0.0576
 2772SOL     OW15555   5.413   3.406   5.674 -0.1191  0.4874 -0.5158
 2772SOL    HW115556   5.505   3.389   5.695 -0.2899  0.3151  0.1141
 2772SOL    HW215557   5.408   3.501   5.661  0.1058  0.5236 -0.3379
 2773SOL     OW15558   3.072   3.967  12.375 -0.3230  0.2397  0.4170
 2773SOL    HW115559   3.093   3.947  12.284 -0.5262 -2.6587  0.9150
 2773SOL    HW215560   3.004   4.035  12.370 -0.8365 -0.3667 -1.6153
 2774SOL     OW15561   9.082   8.688  10.621 -0.0695 -0.2472  0.1595
 2774SOL    HW115562   8.987   8.700  10.612 -0.5521 -3.7264 -0.6581
 2774SOL    HW215563   9.120   8.752  10.561 -1.9333  0.2364 -0.5760
 2775SOL     OW15564   6.065  12.702   5.494 -0.5452 -0.0015  0.0316
 2775SOL    HW115565   6.134  12.763   5.471  2.2048 -2.8624 -0.0527
 2775SOL    HW215566   6.030  12.672   5.410  1.5492 -2.0169 -0.2216
 2776SOL     OW15567   8.671   6.269   2.049  0.3204 -0.8665  0.4041
 2776SOL    HW115568   8.732   6.215   2.100  0.1879  0.3005  1.8768
 2776SOL    HW215569   8.672   6.354   2.094  0.4447  0.3368 -1.7691
 2777SOL     OW15570  10.256   7.360   0.896 -0.2164 -0.0814 -0.2424
 2777SOL    HW115571  10.261   7.433   0.835 -1.1208  0.1497 -0.0532
 2777SOL    HW215572  10.313   7.386   0.969  0.8368 -0.3443 -0.9536
 2778SOL     OW15573   1.522   2.710   4.428 -0.2694 -0.0978  0.6775
 2778SOL    HW115574   1.481   2.689   4.512  0.1668  0.6470  1.0884
 2778SOL    HW215575   1.614   2.689   4.440 -0.4238 -1.2707 -0.0759
 2779SOL     OW15576   8.798   5.747   6.688  0.6629  0.1236  0.2130
 2779SOL    HW115577   8.722   5.692   6.671  0.8172  0.2155 -0.8180
 2779SOL    HW215578   8.781   5.827   6.638  0.3145  1.1479  1.8899
 2780SOL     OW15579   0.585   3.697   7.182 -0.1813 -0.2317  0.1780
 2780SOL    HW115580   0.676   3.684   7.157 -0.0809  0.2440  0.2890
 2780SOL    HW215581   0.535   3.655   7.112  0.1255 -0.9045  0.3538
 2781SOL     OW15582   1.829   1.767   9.726  0.3396  0.0234 -0.2949
 2781SOL    HW115583   1.903   1.759   9.666  0.5712  0.2515 -0.0433
 2781SOL    HW215584   1.857   1.720   9.805 -0.2093 -0.8190 -0.5916
 2782SOL     OW15585   2.562   2.138   0.739  0.5917 -0.1385 -0.2642
 2782SOL    HW115586   2.606   2.081   0.676  3.2595  1.1788  0.2267
 2782SOL    HW215587   2.577   2.097   0.824 -0.7760 -0.5885 -0.2107
 2783SOL     OW15588  10.101   5.493   5.229 -0.2299  0.0542 -0.2112
 2783SOL    HW115589  10.184   5.532   5.202  0.0702 -0.1124  0.4331
 2783SOL    HW215590  10.111   5.478   5.324 -1.3544  0.9059  0.0625
 2784SOL     OW15591   0.008   8.827   0.387 -0.9742  0.7116 -0.1612
 2784SOL    HW115592  -0.032   8.790   0.466 -2.8316  1.6484 -0.5959
 2784SOL    HW215593   0.013   8.921   0.404  1.4146  0.6240 -0.0295
 2785SOL     OW15594   0.277   0.673   3.423 -0.2832 -0.3979  0.2958
 2785SOL    HW115595   0.272   0.597   3.481  0.9150  0.2289  1.2701
 2785SOL    HW215596   0.327   0.643   3.348 -2.2649 -1.3597 -0.7037
 2786SOL     OW15597  11.299   9.177   6.420  0.1222 -0.0907 -0.0913
 2786SOL    HW115598  11.335   9.266   6.411 -2.4680  1.1927  1.3019
 2786SOL    HW215599  11.302   9.142   6.331 -1.2623  2.4596 -1.2816
 2787SOL     OW15600   5.823   3.317   2.629  0.9531 -0.3957 -0.6230
 2787SOL    HW115601   5.830   3.335   2.723  3.2457 -1.2242 -0.5740
 2787SOL    HW215602   5.814   3.403   2.589  2.5593  0.2241  0.2224
 2788SOL     OW15603   2.498   5.039   1.157 -0.6110 -0.3012 -0.5513
 2788SOL    HW115604   2.545   5.110   1.200 -1.0762  0.2620 -0.9552
 2788SOL    HW215605   2.541   4.959   1.188  1.1511  0.2141 -1.5042
 2789SOL     OW15606   0.243   2.469  11.042 -0.0519 -0.2138  0.2974
 2789SOL    HW115607   0.245   2.507  10.954 -0.1510  1.0978  0.8356
 2789SOL    HW215608   0.179   2.522  11.089  0.7788 -0.2191  1.4650
 2790SOL     OW15609   6.943  10.205   1.273  0.5231  0.8351 -0.1720
 2790SOL    HW115610   6.880  10.146   1.233 -1.5036  1.2539  2.1469
 2790SOL    HW215611   6.999  10.149   1.326 -2.4875  0.8009  3.4655
 2791SOL     OW15612   7.920   4.086   0.799  0.5541 -0.1678 -0.0279
 2791SOL    HW115613   8.003   4.087   0.845 -0.1720  0.6002  1.3338
 2791SOL    HW215614   7.929   4.154   0.731  0.4647  1.1394  1.2258
 2792SOL     OW15615  12.522  12.597   3.852  0.0163 -0.1944  0.3407
 2792SOL    HW115616  12.437  12.639   3.849 -0.0033 -0.2809 -0.5641
 2792SOL    HW215617  12.557  12.618   3.939 -1.3257 -0.9751  1.0943
 2793SOL     OW15618   8.435   7.682   0.290  0.1544 -0.4572 -0.2685
 2793SOL    HW115619   8.421   7.588   0.287 -1.5454 -0.2112 -3.0696
 2793SOL    HW215620   8.519   7.696   0.247 -0.4205 -0.6024 -1.4643
 2794SOL     OW15621   8.857   3.578   4.961  0.2895 -0.0086  0.2194
 2794SOL    HW115622   8.909   3.517   5.013 -0.1886  0.3726  1.1759
 2794SOL    HW215623   8.921   3.631   4.914  0.8644  1.3309  2.3850
 2795SOL     OW15624   3.810   4.008   1.776 -0.0705 -0.6890 -0.7225
 2795SOL    HW115625   3.775   3.923   1.751  1.1983 -1.0564 -1.3143
 2795SOL    HW215626   3.759   4.071   1.725 -2.4523 -0.8666  1.2338
 2796SOL     OW15627   5.457  11.165   8.761 -0.5774 -0.2548 -0.0050
 2796SOL    HW115628   5.363  11.172   8.748 -0.2814  0.1852 -2.2725
 2796SOL    HW215629   5.482  11.084   8.716  0.1751 -0.2192  0.3212
 2797SOL     OW15630   6.678   8.044  10.649 -0.4657  0.2938 -0.0127
 2797SOL    HW115631   6.689   8.118  10.590 -1.7122 -0.0341 -0.6835
 2797SOL    HW215632   6.728   8.068  10.727  1.1599  0.7602 -1.1435
 2798SOL     OW15633  11.564   0.517   6.923 -0.0582  0.1255 -0.2064
 2798SOL    HW115634  11.486   0.488   6.970 -0.3414 -0.1077 -0.8078
 2798SOL    HW215635  11.637   0.489   6.978 -0.4023  1.4719  1.0044
 2799SOL     OW15636  11.859   7.241   6.440  0.1002  0.0481 -0.0553
 2799SOL    HW115637  11.950   7.270   6.442  0.7604 -1.8560 -0.1320
 2799SOL    HW215638  11.818   7.295   6.372  1.0955  1.1132  0.1663
 2800SOL     OW15639   2.174   7.669   2.067  0.5114  0.4276 -0.1565
 2800SOL    HW115640   2.203   7.731   2.134 -0.1019  0.1379  0.3823
 2800SOL    HW215641   2.239   7.599   2.070 -0.2348 -0.2354  1.0722
 2801SOL     OW15642  11.572   2.295   1.340  0.2519 -0.7439  0.0506
 2801SOL    HW115643  11.613   2.219   1.298 -1.0570  0.0100 -2.8569
 2801SOL    HW215644  11.482   2.267   1.357  0.2107 -0.3558  0.4881
 2802SOL     OW15645   2.992   6.518  12.450  0.2138 -0.2974  0.1662
 2802SOL    HW115646   2.906   6.559  12.455  0.9917  1.8775 -2.1393
 2802SOL    HW215647   2.998   6.487  12.360  2.2259  0.6681 -0.0900
 2803SOL     OW15648   1.347   7.216  11.349  0.3239 -0.1379  0.4093
 2803SOL    HW115649   1.356   7.228  11.443  0.8021  2.3053  0.1096
 2803SOL    HW215650   1.424   7.165  11.324 -0.1995 -1.4724  1.4033
 2804SOL     OW15651   9.448   9.271   6.408 -0.0673 -0.1885 -0.2653
 2804SOL    HW115652   9.474   9.312   6.325  0.0952  0.6069  0.1682
 2804SOL    HW215653   9.404   9.341   6.456 -0.8480 -0.8580  0.0096
 2805SOL     OW15654  10.451   6.850  10.290  0.5218  0.0899  0.1409
 2805SOL    HW115655  10.420   6.768  10.250 -0.4308  0.9815 -1.0393
 2805SOL    HW215656  10.389   6.867  10.361  0.5212 -0.0357  0.1703
 2806SOL     OW15657   9.455  11.020   5.756  0.4455 -0.6278 -0.2480
 2806SOL    HW115658   9.387  10.953   5.767 -1.7757  1.6874  1.4207
 2806SOL    HW215659   9.428  11.071   5.680 -0.9991  1.5278  1.5587
 2807SOL     OW15660   5.632   3.922  11.801 -0.3940  0.1357  0.7315
 2807SOL    HW115661   5.566   3.871  11.847  0.0328  0.4145  1.6848
 2807SOL    HW215662   5.667   3.981  11.868 -0.7667  1.5792 -0.2955
 2808SOL     OW15663   5.408   0.127   5.553 -0.2081  0.1526 -0.0444
 2808SOL    HW115664   5.478   0.071   5.588  0.1241  0.5803 -0.0200
 2808SOL    HW215665   5.345   0.134   5.625  0.1023  0.4018  0.2076
 2809SOL     OW15666   0.404  12.351   5.794  0.7900  0.2568 -0.1772
 2809SOL    HW115667   0.474  12.415   5.780  2.2730 -1.3665 -0.5721
 2809SOL    HW215668   0.424  12.280   5.732 -0.6129 -0.7312  0.4572
 2810SOL     OW15669   6.420   3.505   8.219 -0.1861 -0.3778 -0.1111
 2810SOL    HW115670   6.442   3.564   8.147 -2.0413  1.5895  0.8309
 2810SOL    HW215671   6.355   3.445   8.182 -0.0672 -0.3124 -0.4337
 2811SOL     OW15672  12.051   0.143   9.375 -0.2383 -0.2993  0.3213
 2811SOL    HW115673  12.010   0.137   9.289 -1.7853  1.9607  0.8120
 2811SOL    HW215674  12.144   0.151   9.356 -0.4037 -1.1411 -1.0394
 2812SOL     OW15675   6.565  10.444   4.292 -0.0880  0.8299  0.2414
 2812SOL    HW115676   6.537  10.357   4.320  0.6632  0.6715  0.5156
 2812SOL    HW215677   6.644  10.429   4.240 -0.3860  1.2889 -0.3624
 2813SOL     OW15678   4.887  11.864  12.342 -0.2864  0.4795 -0.0543
 2813SOL    HW115679   4.830  11.876  12.265  0.3346 -0.7288 -0.7359
 2813SOL    HW215680   4.941  11.943  12.344 -0.7633  0.8251 -0.4567
 2814SOL     OW15681  12.101   0.445   3.053 -0.4304  0.2923 -0.1847
 2814SOL    HW115682  12.154   0.365   3.049  0.2732  0.7784 -0.7701
 2814SOL    HW215683  12.117   0.480   3.141 -0.1636  0.1757 -0.1869
 2815SOL     OW15684  12.390   9.206   8.125 -0.6767 -0.2280 -0.2018
 2815SOL    HW115685  12.300   9.226   8.101 -0.9993 -0.8755  0.4509
 2815SOL    HW215686  12.387   9.116   8.158  0.0433  0.0513  0.6650
 2816SOL     OW15687   5.700   0.129   6.943 -0.0102  0.1777  0.3723
 2816SOL    HW115688   5.737   0.075   7.013 -0.1247 -0.9667 -0.4259
 2816SOL    HW215689   5.612   0.094   6.930  0.4498 -0.4572 -1.1934
 2817SOL     OW15690   3.238  11.474   8.952 -0.2774 -0.2195  0.2714
 2817SOL    HW115691   3.179  11.505   9.021 -0.2931 -2.2132  1.2112
 2817SOL    HW215692   3.187  11.409   8.904  0.6741 -0.8958  0.1652
 2818SOL     OW15693   1.534  12.374   6.177  0.0652 -0.1310 -0.2098
 2818SOL    HW115694   1.560  12.396   6.087 -0.2384 -3.0412 -1.1442
 2818SOL    HW215695   1.590  12.427   6.233  3.0013 -0.9349 -2.1357
 2819SOL     OW15696   0.003  11.879   4.930  0.4742  0.2116  0.1698
 2819SOL    HW115697  -0.076  11.903   4.978  0.5418  0.5662  0.1087
 2819SOL    HW215698   0.070  11.870   4.997  0.4549  0.2303  0.1921
 2820SOL     OW15699   0.074   0.363   3.155 -0.1504  0.7337  0.0594
 2820SOL    HW115700   0.067   0.448   3.111 -0.0787  0.4715 -0.4773
 2820SOL    HW215701   0.086   0.301   3.083  3.1990  0.6117  0.5680
 2821SOL     OW15702  12.582   7.615   8.784  0.1381 -0.0508 -0.0758
 2821SOL    HW115703  12.658   7.557   8.777  0.0537 -0.2457  0.5156
 2821SOL    HW215704  12.610   7.697   8.744  0.6773 -0.1103  0.1669
 2822SOL     OW15705   6.847   7.529   9.745 -0.2276 -0.3210 -0.0347
 2822SOL    HW115706   6.851   7.512   9.839  1.8911 -0.3248 -0.0787
 2822SOL    HW215707   6.875   7.620   9.735 -1.2421 -0.0497 -0.6251
 2823SOL     OW15708   3.685  11.592   0.337 -0.0779 -0.7011  0.3137
 2823SOL    HW115709   3.671  11.656   0.406  0.3606  0.9350 -1.0456
 2823SOL    HW215710   3.772  11.611   0.303 -1.3032  0.5039 -2.5403
 2824SOL     OW15711  10.056   9.547   2.564 -0.5874  0.1345 -0.5097
 2824SOL    HW115712   9.980   9.495   2.539 -0.4485 -0.4120  0.1819
 2824SOL    HW215713  10.097   9.571   2.480 -1.9770  1.1661 -0.9445
 2825SOL     OW15714   2.929   5.868  12.540  0.5590 -0.1724 -0.2176
 2825SOL    HW115715   2.929   5.934  12.610  1.5900 -0.9890  0.5932
 2825SOL    HW215716   2.865   5.803  12.568  0.8785 -0.4344 -0.0871
 2826SOL     OW15717   0.296  10.652   2.160 -0.1584  0.0767 -0.1612
 2826SOL    HW115718   0.256  10.726   2.205  0.5509 -0.4859  1.4719
 2826SOL    HW215719   0.252  10.648   2.075 -0.7719  1.8513  0.0444
 2827SOL     OW15720   5.813   0.952   3.363  0.0269  0.1926 -0.5001
 2827SOL    HW115721   5.846   1.041   3.351  1.5785 -0.5257 -1.8754
 2827SOL    HW215722   5.723   0.954   3.329 -0.2055  1.3630  0.1242
 2828SOL     OW15723   6.623   6.643   8.642  0.5192 -0.0119  0.1635
 2828SOL    HW115724   6.651   6.734   8.652  3.1988 -0.6915 -0.4347
 2828SOL    HW215725   6.665   6.597   8.715 -0.9812 -0.7923  0.5847
 2829SOL     OW15726   2.139   3.038  11.087  0.0052 -0.0395  0.3888
 2829SOL    HW115727   2.133   2.948  11.118 -0.0021 -0.2781 -0.2766
 2829SOL    HW215728   2.106   3.034  10.997  1.4458  0.3542 -0.1705
 2830SOL     OW15729   1.905   4.893   5.425  0.2680 -0.1020 -0.5381
 2830SOL    HW115730   1.918   4.800   5.405  1.2640  0.2830 -1.8448
 2830SOL    HW215731   1.889   4.933   5.339 -0.7178  0.8620  0.0722
 2831SOL     OW15732  12.266   4.077   2.554 -0.1821 -0.0676 -0.3848
 2831SOL    HW115733  12.227   4.032   2.479  0.1519  0.0568 -0.6343
 2831SOL    HW215734  12.222   4.040   2.630 -1.4235  0.6822 -0.7028
 2832SOL     OW15735  10.457   8.208   1.923  0.1125 -0.0892  0.2235
 2832SOL    HW115736  10.533   8.222   1.979 -0.3728 -0.9714  1.1161
 2832SOL    HW215737  10.495   8.190   1.836  0.9398 -0.7709  0.7098
 2833SOL     OW15738   8.256   8.985   1.014  0.5730  0.4341 -0.5130
 2833SOL    HW115739   8.253   9.067   0.965 -2.0177 -0.2893 -1.6975
 2833SOL    HW215740   8.197   8.999   1.088 -0.2325 -0.4786 -0.9676
 2834SOL     OW15741   1.221   7.487   0.960  0.1214  0.2909  0.2069
 2834SOL    HW115742   1.141   7.539   0.955  1.5262  2.5081 -1.0532
 2834SOL    HW215743   1.220   7.433   0.880 -0.2571  0.0705  0.3596
 2835SOL     OW15744   3.698  12.609   1.546 -0.1735 -0.3289 -0.0967
 2835SOL    HW115745   3.754  12.532   1.533 -0.8380 -1.1605  1.6393
 2835SOL    HW215746   3.756  12.673   1.586  0.2078 -0.1590 -0.8971
 2836SOL     OW15747  11.580   5.074   7.858 -0.2897 -0.6331  0.0073
 2836SOL    HW115748  11.587   5.058   7.764 -1.5790 -0.5234 -0.1271
 2836SOL    HW215749  11.488   5.057   7.879 -0.5244  1.3426  0.8583
 2837SOL     OW15750   5.632   4.558   8.721 -0.1808  0.4662 -0.4691
 2837SOL    HW115751   5.565   4.610   8.677 -0.7991  0.1060  0.0283
 2837SOL    HW215752   5.589   4.475   8.741  0.7740 -0.2422 -1.2097
 2838SOL     OW15753   7.742   4.345   8.571  0.0432 -0.0075  0.4386
 2838SOL    HW115754   7.694   4.388   8.642  0.2218 -1.6219  1.6087
 2838SOL    HW215755   7.799   4.282   8.616  1.8128  0.4540 -1.0293
 2839SOL     OW15756   2.436   8.701   9.856 -0.1529 -0.3901  0.0072
 2839SOL    HW115757   2.471   8.722   9.943  0.0875  0.9230 -0.3757
 2839SOL    HW215758   2.360   8.759   9.847  0.3763  0.1762 -1.0188
 2840SOL     OW15759   5.568   8.988   3.657 -0.0117 -0.6586  0.2511
 2840SOL    HW115760   5.496   8.985   3.594 -0.4814 -0.2432  0.7585
 2840SOL    HW215761   5.566   9.077   3.692 -0.8236 -1.3418  2.0646
 2841SOL     OW15762  10.865   8.413   9.049 -0.0167  0.3792 -0.5019
 2841SOL    HW115763  10.833   8.390   9.136 -0.1706 -1.3552 -0.9869
 2841SOL    HW215764  10.943   8.466   9.066 -0.3978  0.6068  0.6775
 2842SOL     OW15765   1.077   1.637  10.430 -0.0120  0.3030 -0.1421
 2842SOL    HW115766   1.118   1.637  10.343  0.4567  0.5296  0.0778
 2842SOL    HW215767   0.996   1.586  10.418 -0.0270  0.4616 -0.7448
 2843SOL     OW15768  12.221   6.975  10.623  0.4803 -0.0946  0.3269
 2843SOL    HW115769  12.231   6.949  10.714 -1.4274 -2.0550  0.0452
 2843SOL    HW215770  12.250   7.066  10.621  0.3797  0.0634  2.9145
 2844SOL     OW15771  11.155  10.750  11.149 -0.0015  0.3455 -0.0681
 2844SOL    HW115772  11.239  10.762  11.194 -0.8987  2.2767  1.2110
 2844SOL    HW215773  11.103  10.700  11.212 -0.3226  0.5025 -0.2133
 2845SOL     OW15774   6.708   5.531   1.011 -0.0365  0.4028 -0.0692
 2845SOL    HW115775   6.759   5.452   1.027  0.2087  0.8167  1.2894
 2845SOL    HW215776   6.773   5.597   0.986 -0.3357 -0.0396 -2.2198
 2846SOL     OW15777   8.596   6.142  11.976  0.3162 -0.9094  0.1563
 2846SOL    HW115778   8.645   6.068  11.939 -0.0281 -0.9935 -0.1411
 2846SOL    HW215779   8.575   6.197  11.900 -2.5740 -2.3348 -0.2241
 2847SOL     OW15780   0.240   1.163  11.755  0.1043  0.4444  0.0368
 2847SOL    HW115781   0.195   1.201  11.831  1.0815 -3.1862  2.7475
 2847SOL    HW215782   0.172   1.117  11.707 -0.4559  2.4604 -1.2134
 2848SOL     OW15783   5.340   5.829   7.516  0.2941  0.3682 -0.1415
 2848SOL    HW115784   5.360   5.867   7.430 -0.3944 -0.3590 -0.6506
 2848SOL    HW215785   5.415   5.851   7.571  0.3934  1.5208 -0.7072
 2849SOL     OW15786   6.973   8.496   8.673  0.2233 -0.2898 -0.2599
 2849SOL    HW115787   6.909   8.479   8.742  0.3412 -1.1116 -0.3413
 2849SOL    HW215788   6.997   8.588   8.684  0.9514 -0.6366  1.4042
 2850SOL     OW15789  10.522  12.543   0.363 -0.3752  0.4740  1.0589
 2850SOL    HW115790  10.600  12.531   0.308 -0.0609 -0.0761  1.6067
 2850SOL    HW215791  10.550  12.603   0.431  0.0516 -0.8825  2.1310
 2851SOL     OW15792   6.015   7.779  10.632 -0.3774  0.9419  0.4766
 2851SOL    HW115793   5.977   7.859  10.597 -1.2648 -0.1817 -1.2651
 2851SOL    HW215794   6.107   7.783  10.605 -0.8692  0.4709 -1.3626
 2852SOL     OW15795   7.271  10.796   7.068  0.4847 -0.0619  0.4132
 2852SOL    HW115796   7.242  10.705   7.071  0.7659 -0.3668 -2.8930
 2852SOL    HW215797   7.191  10.846   7.051  0.7460 -0.1208 -1.1835
 2853SOL     OW15798  11.373   8.014   0.748  0.0022 -0.0830  0.3088
 2853SOL    HW115799  11.295   8.068   0.742  0.4515  0.4438 -1.4151
 2853SOL    HW215800  11.439   8.070   0.790 -0.5119 -0.5560  1.8380
 2854SOL     OW15801   0.216   1.290   9.615  0.6824  0.0864 -0.1263
 2854SOL    HW115802   0.201   1.267   9.706 -1.2933 -0.1810 -0.4620
 2854SOL    HW215803   0.148   1.242   9.567  1.1737  0.8354 -1.6551
 2855SOL     OW15804   7.487   1.689   4.152  0.2098  0.3694  0.0842
 2855SOL    HW115805   7.582   1.691   4.161  0.2592  0.3201 -0.4184
 2855SOL    HW215806   7.462   1.602   4.185  0.3262  0.4280  0.3290
 2856SOL     OW15807   6.598   7.606  12.654  0.3784  0.0406  0.4642
 2856SOL    HW115808   6.541   7.530  12.666 -1.9126  1.5404 -0.1804
 2856SOL    HW215809   6.661   7.601  12.726  0.7344 -2.7811  0.0580
 2857SOL     OW15810   3.336   2.215   9.624 -0.1430  0.0984  0.1524
 2857SOL    HW115811   3.378   2.130   9.612  0.7344  0.2659  1.7866
 2857SOL    HW215812   3.374   2.249   9.705 -2.8063  0.6515  1.2602
 2858SOL     OW15813   3.726   8.981   7.946  0.3268  0.4950  0.2286
 2858SOL    HW115814   3.701   8.965   7.855 -0.9070  0.2791  0.5888
 2858SOL    HW215815   3.647   9.015   7.987  0.2482 -1.3214  1.7100
 2859SOL     OW15816   7.379   4.092  10.792 -0.0108  0.4945 -0.3800
 2859SOL    HW115817   7.355   4.019  10.849 -2.2041  2.0030  0.7890
 2859SOL    HW215818   7.343   4.069  10.707  0.0048 -0.1217 -0.2237
 2860SOL     OW15819   9.113   3.551   4.347  0.7562  0.2882 -0.0706
 2860SOL    HW115820   9.038   3.496   4.368 -0.4205  2.0655  0.5822
 2860SOL    HW215821   9.103   3.628   4.402  2.3978  1.1285 -0.8722
 2861SOL     OW15822   7.753   5.418  12.093 -0.1319  0.1218 -0.2114
 2861SOL    HW115823   7.792   5.505  12.086 -1.1147  0.5270 -0.9909
 2861SOL    HW215824   7.661   5.435  12.114 -0.0518 -0.7810  0.9686
 2862SOL     OW15825   4.224   8.030   1.669  0.5838 -0.5830 -0.7453
 2862SOL    HW115826   4.144   8.060   1.712  0.3643 -2.6682  0.4599
 2862SOL    HW215827   4.275   8.110   1.655 -1.4962  0.7509 -1.1600
 2863SOL     OW15828  10.383   6.865  12.487 -0.2919  0.3927  0.0133
 2863SOL    HW115829  10.457   6.808  12.506 -0.3243  0.9379  1.9765
 2863SOL    HW215830  10.404   6.903  12.401 -0.0145 -2.0714 -1.1078
 2864SOL     OW15831   8.933  11.233   8.636 -0.3711  0.2336  0.0300
 2864SOL    HW115832   8.914  11.157   8.690 -1.0473  0.6557  0.3931
 2864SOL    HW215833   8.848  11.261   8.602 -0.0047  0.2116 -0.9368
 2865SOL     OW15834   3.810  10.806   6.714  0.5799 -0.2702  0.0161
 2865SOL    HW115835   3.717  10.794   6.737  0.6301  0.7599  0.8689
 2865SOL    HW215836   3.850  10.835   6.796  1.5949 -0.3776 -0.4377
 2866SOL     OW15837  11.782   2.619   8.557  0.0855  0.1701  0.1454
 2866SOL    HW115838  11.697   2.648   8.589  0.4737  2.1961 -0.4851
 2866SOL    HW215839  11.842   2.635   8.630 -0.0618 -1.5263  0.6937
 2867SOL     OW15840   9.176   8.170   1.206  0.0922  0.1679  0.3297
 2867SOL    HW115841   9.087   8.185   1.176  0.5128  0.5042 -0.7913
 2867SOL    HW215842   9.184   8.224   1.284  0.4131  3.0755 -1.5629
 2868SOL     OW15843   1.893   5.219  10.729 -0.2254  0.0662  0.0574
 2868SOL    HW115844   1.981   5.191  10.756 -0.4022  0.6323  1.3032
 2868SOL    HW215845   1.834   5.167  10.783 -0.7161 -1.2481 -1.6960
 2869SOL     OW15846   4.197   8.022  10.337  0.2109  0.0334  0.0185
 2869SOL    HW115847   4.162   8.082  10.271  0.2621  1.4586  1.2290
 2869SOL    HW215848   4.165   7.936  10.311  1.3337  0.3241 -2.6031
 2870SOL     OW15849   5.435  11.600   6.814  0.0205 -0.4645  0.0833
 2870SOL    HW115850   5.480  11.576   6.895  1.7386 -0.6280 -0.8741
 2870SOL    HW215851   5.485  11.674   6.779 -0.5125 -0.5766 -0.9618
 2871SOL     OW15852   3.294   9.044   3.390  0.0936  0.4596 -0.2476
 2871SOL    HW115853   3.364   9.006   3.444 -0.9118  0.3502  1.0189
 2871SOL    HW215854   3.213   9.022   3.436 -0.7659  0.9631 -1.4530
 2872SOL     OW15855   1.786   3.146   1.827 -0.0545  0.0665 -0.2597
 2872SOL    HW115856   1.708   3.166   1.880  0.0163 -1.4196  0.4426
 2872SOL    HW215857   1.849   3.214   1.852  0.2236 -0.9577  2.1404
 2873SOL     OW15858   8.208   5.958   0.542  0.3397  0.1014  0.2249
 2873SOL    HW115859   8.222   5.953   0.636  1.9295 -2.0337 -0.0590
 2873SOL    HW215860   8.291   5.989   0.506  0.5154 -1.3018 -0.6269
 2874SOL     OW15861   2.656   5.764   3.211  0.1716 -0.4780  0.0739
 2874SOL    HW115862   2.659   5.835   3.147 -0.2621  0.5406  1.1407
 2874SOL    HW215863   2.748   5.742   3.226  0.2649 -1.2849 -1.4490
 2875SOL     OW15864   4.133   3.810   1.680 -0.1709  0.2015 -0.2851
 2875SOL    HW115865   4.089   3.725   1.675  0.6963 -0.3166  0.5867
 2875SOL    HW215866   4.113   3.843   1.767  0.0515  0.5793 -0.3726
 2876SOL     OW15867   6.502   2.338   0.736 -0.2142 -0.0967 -0.6012
 2876SOL    HW115868   6.441   2.405   0.770  0.4613  0.2109  0.0419
 2876SOL    HW215869   6.446   2.274   0.693 -0.9814  0.2823 -0.1879
 2877SOL     OW15870   2.079  10.453   7.773 -0.3877 -0.1101  0.6003
 2877SOL    HW115871   2.140  10.510   7.820 -1.3003  0.6524  0.8905
 2877SOL    HW215872   2.117  10.365   7.781  1.4910  0.5182 -0.5632
 2878SOL     OW15873   1.892   1.881   4.432 -0.4866  0.1015 -0.0019
 2878SOL    HW115874   1.969   1.832   4.461 -0.6764  0.2856  0.8236
 2878SOL    HW215875   1.917   1.973   4.441 -0.0061  0.2033 -1.8694
 2879SOL     OW15876   9.253   0.378   2.354 -0.1211  0.0388 -0.4000
 2879SOL    HW115877   9.311   0.449   2.380 -0.3472 -0.2229  0.9286
 2879SOL    HW215878   9.231   0.396   2.263  1.7401  0.3318 -0.8188
 2880SOL     OW15879   7.593   6.561  11.640 -0.3084 -0.2416  0.5844
 2880SOL    HW115880   7.502   6.545  11.667 -0.2322 -0.6593  0.6045
 2880SOL    HW215881   7.625   6.625  11.703 -1.0976  1.2096 -0.4367
 2881SOL     OW15882   9.385  11.581  10.431  0.3915  0.2245  0.0831
 2881SOL    HW115883   9.447  11.583  10.358 -0.2811 -0.7713 -0.5222
 2881SOL    HW215884   9.322  11.513  10.408 -1.6221  1.9662  0.1422
 2882SOL     OW15885   2.445   1.632   5.374  0.1058 -0.8896  0.0657
 2882SOL    HW115886   2.493   1.550   5.387  0.1796 -0.8476  0.0598
 2882SOL    HW215887   2.353   1.606   5.371  0.1768 -1.0690 -0.7387
 2883SOL     OW15888   7.361   7.599   8.929 -0.4669 -0.0083  0.2672
 2883SOL    HW115889   7.330   7.655   8.858  2.9661 -2.0042 -3.1757
 2883SOL    HW215890   7.327   7.512   8.907  0.7474 -0.6926  1.0181
 2884SOL     OW15891   7.403   2.457   0.783 -0.3879 -0.4478  0.1997
 2884SOL    HW115892   7.454   2.456   0.702 -1.6009  0.5952 -0.6073
 2884SOL    HW215893   7.464   2.423   0.849  1.5734  1.2798 -0.5960
 2885SOL     OW15894  11.790   0.649  11.124 -0.0057 -0.8736  0.4224
 2885SOL    HW115895  11.870   0.674  11.077 -0.5449 -1.4275 -0.8048
 2885SOL    HW215896  11.725   0.636  11.056 -1.0414 -0.8578  1.3898
 2886SOL     OW15897   8.066  10.564   8.725  0.3125  0.9467  0.1525
 2886SOL    HW115898   8.023  10.611   8.796 -2.4179 -0.0628 -0.6808
 2886SOL    HW215899   8.062  10.472   8.752  0.6671  0.7098 -0.5860
 2887SOL     OW15900   0.432   6.161   3.207  0.1200  0.0475 -0.2665
 2887SOL    HW115901   0.374   6.202   3.272  0.8471 -1.4132  1.4002
 2887SOL    HW215902   0.455   6.232   3.148  0.2644  1.7532  1.6942
 2888SOL     OW15903  12.300   1.043   6.236  0.1146  0.3229 -0.2954
 2888SOL    HW115904  12.302   1.094   6.156 -1.0546  1.1873  0.2008
 2888SOL    HW215905  12.322   0.954   6.209 -1.1981  0.4015 -1.7269
 2889SOL     OW15906   7.785   3.564  12.094 -0.1255  0.5966  0.5982
 2889SOL    HW115907   7.838   3.541  12.171  0.6850  2.0358  0.4942
 2889SOL    HW215908   7.744   3.647  12.117 -4.5551 -1.5661  1.7566
 2890SOL     OW15909   1.489   3.914   7.251 -0.0439 -0.3678  0.0829
 2890SOL    HW115910   1.534   3.880   7.174 -0.0645  0.1149 -0.1416
 2890SOL    HW215911   1.522   3.860   7.323 -0.9714 -1.6668 -0.4246
 2891SOL     OW15912   8.840   5.201   8.476 -0.2020 -0.4619 -0.1100
 2891SOL    HW115913   8.883   5.135   8.422 -1.0796 -0.2461 -1.1123
 2891SOL    HW215914   8.912   5.252   8.514  0.4451 -0.9255 -0.6889
 2892SOL     OW15915   9.738  10.723   8.285 -0.0109  0.5907 -0.2205
 2892SOL    HW115916   9.830  10.700   8.299 -0.4989 -1.1230  0.4853
 2892SOL    HW215917   9.705  10.655   8.226 -0.1025  2.9867 -3.1490
 2893SOL     OW15918  10.382   3.879   5.651 -0.0923  0.5103  0.7017
 2893SOL    HW115919  10.396   3.835   5.567  0.0767  1.1147  0.4123
 2893SOL    HW215920  10.394   3.972   5.633 -0.4901  0.6884  1.3040
 2894SOL     OW15921   9.632   0.553   7.623  0.1885 -0.2841 -0.1374
 2894SOL    HW115922   9.661   0.518   7.539  0.0147 -1.0187  0.1059
 2894SOL    HW215923   9.707   0.603   7.655  0.9326 -1.5202  0.1221
 2895SOL     OW15924  10.285   1.293   6.572  0.3955  0.5648 -0.2366
 2895SOL    HW115925  10.240   1.356   6.515 -0.9538 -1.0754 -1.0885
 2895SOL    HW215926  10.372   1.283   6.533  0.4987  1.6280 -0.2879
 2896SOL     OW15927   6.247   9.386   8.181  0.5985  0.0253  0.0697
 2896SOL    HW115928   6.159   9.382   8.144  0.6540 -2.4723  0.0069
 2896SOL    HW215929   6.234   9.374   8.275  0.9169 -2.7446 -0.1602
 2897SOL     OW15930  12.359   8.953   0.105 -0.7988 -0.4909  0.2078
 2897SOL    HW115931  12.344   8.860   0.090 -1.6336 -0.4014  0.4492
 2897SOL    HW215932  12.273   8.994   0.092 -0.4102  0.2675 -0.0642
 2898SOL     OW15933   9.546   3.967  11.435 -0.8717 -0.5576  0.4496
 2898SOL    HW115934   9.638   3.988  11.416 -0.7475 -2.2097 -1.0176
 2898SOL    HW215935   9.498   4.045  11.407 -0.0014 -0.0750  0.2532
 2899SOL     OW15936   8.739   2.932   6.738 -0.4956 -0.0205 -0.4017
 2899SOL    HW115937   8.796   3.008   6.729  0.1876 -0.4692  0.0174
 2899SOL    HW215938   8.674   2.958   6.803  1.1814 -0.6005  1.6080
 2900SOL     OW15939   3.003   2.631   2.387 -0.0320 -0.0583  0.6720
 2900SOL    HW115940   3.081   2.636   2.331 -0.7882 -0.2320 -0.4293
 2900SOL    HW215941   2.994   2.538   2.407 -0.2752 -0.1080  0.3333
 2901SOL     OW15942   1.255  12.415  10.276  0.2534  0.8850 -0.1243
 2901SOL    HW115943   1.165  12.397  10.302  0.4540  1.2404  0.8815
 2901SOL    HW215944   1.307  12.395  10.355  1.2358 -0.7447 -1.1209
 2902SOL     OW15945   0.905   4.815   3.945 -0.1272 -0.6739 -0.5149
 2902SOL    HW115946   0.939   4.902   3.925  0.2145 -0.7634 -0.3380
 2902SOL    HW215947   0.894   4.815   4.040 -1.0071 -0.5126 -0.6116
 2903SOL     OW15948   5.870   0.783   1.609 -0.2846  0.2255  0.5007
 2903SOL    HW115949   5.939   0.717   1.605  0.3799  0.8691  1.1091
 2903SOL    HW215950   5.798   0.746   1.557  1.2484  0.4094 -1.8896
 2904SOL     OW15951   7.514  12.076   5.631 -0.2432  0.0583 -0.1246
 2904SOL    HW115952   7.510  12.054   5.538  0.9396  0.0167 -0.1836
 2904SOL    HW215953   7.565  12.157   5.635  0.5812 -0.4682  0.5453
 2905SOL     OW15954   1.636   2.341   4.522  0.0789  0.0050 -0.1077
 2905SOL    HW115955   1.693   2.266   4.537 -2.2354 -1.7231  0.6548
 2905SOL    HW215956   1.569   2.334   4.589 -1.3878  1.5557 -1.3226
 2906SOL     OW15957   1.078   9.021   5.026 -0.0923 -0.2285  0.1136
 2906SOL    HW115958   1.150   8.964   4.996  0.8036 -0.1015  1.8851
 2906SOL    HW215959   1.063   9.081   4.953  1.9158  0.0043 -0.1762
 2907SOL     OW15960   2.588  11.895   7.880 -0.4216  0.8488  0.1720
 2907SOL    HW115961   2.578  11.987   7.906 -2.2576  0.6478  0.3452
 2907SOL    HW215962   2.501  11.858   7.892 -0.7134 -0.0084 -3.3814
 2908SOL     OW15963   6.136  11.085   0.827 -0.4531  0.2242  0.5498
 2908SOL    HW115964   6.197  11.146   0.868  0.0564  0.0510  0.0498
 2908SOL    HW215965   6.177  10.999   0.838 -0.5458  0.1205  0.1110
 2909SOL     OW15966   7.572  11.356   4.435 -0.2427  0.0503 -0.6025
 2909SOL    HW115967   7.519  11.436   4.433 -0.3679  0.0422 -4.1641
 2909SOL    HW215968   7.623  11.359   4.354 -0.5762 -3.6539 -1.1082
 2910SOL     OW15969   9.305   3.056   1.346 -0.0395  0.1300  0.5616
 2910SOL    HW115970   9.258   2.975   1.323  1.1016 -0.7392  1.1811
 2910SOL    HW215971   9.328   3.044   1.438  0.2777  1.1082  0.6212
 2911SOL     OW15972  11.350   9.082   9.713  0.2345 -0.2991 -0.3494
 2911SOL    HW115973  11.345   9.097   9.619 -1.1530  2.8058  0.0794
 2911SOL    HW215974  11.436   9.116   9.739  0.0307  0.2227 -0.3389
 2912SOL     OW15975  12.234   9.146   4.251 -0.0420  0.4714  0.2481
 2912SOL    HW115976  12.153   9.168   4.298  1.1753  1.1493  2.1710
 2912SOL    HW215977  12.215   9.167   4.160 -2.0752  0.4489  0.6079
 2913SOL     OW15978   5.453   5.117   8.092  0.0998  0.3841  0.4260
 2913SOL    HW115979   5.405   5.039   8.064 -0.4889  0.5124  1.0454
 2913SOL    HW215980   5.516   5.133   8.022  1.3698 -1.6133  1.0362
 2914SOL     OW15981   3.771   3.374   8.489 -0.1811 -0.3768  0.7439
 2914SOL    HW115982   3.710   3.309   8.455  0.2208 -0.8390  0.8921
 2914SOL    HW215983   3.836   3.323   8.537  0.4849  0.0698  0.3423
 2915SOL     OW15984   1.121   4.835   3.433 -0.0887  0.0862 -0.0304
 2915SOL    HW115985   1.082   4.854   3.348 -1.2243  0.2562  0.5080
 2915SOL    HW215986   1.089   4.747   3.455  0.4761 -0.0965  0.0648
 2916SOL     OW15987   8.073   7.065   7.622 -0.4036 -0.8701  0.1016
 2916SOL    HW115988   8.105   7.080   7.533 -1.6199 -3.6180 -0.9053
 2916SOL    HW215989   8.008   7.134   7.636  0.7576  0.4226 -0.5413
 2917SOL     OW15990   8.085  11.449   2.065  0.1745 -0.2084  0.1642
 2917SOL    HW115991   8.057  11.424   1.977 -0.4292  2.0437 -0.3612
 2917SOL    HW215992   8.152  11.515   2.051  0.4359 -0.1824  1.4121
 2918SOL     OW15993  10.463   0.517  10.792 -0.1219 -0.6787 -0.1179
 2918SOL    HW115994  10.486   0.521  10.884  1.7117 -1.1188 -0.5350
 2918SOL    HW215995  10.423   0.431  10.780  2.2940 -1.8454 -0.2690
 2919SOL     OW15996   6.321  12.277   1.137  0.2031 -0.2587  0.2830
 2919SOL    HW115997   6.329  12.184   1.159  0.8739 -0.3083 -0.1457
 2919SOL    HW215998   6.267  12.278   1.058  0.0456 -0.2746  0.3912
 2920SOL     OW15999   4.564   1.531  11.996 -0.1474  0.1246  0.2064
 2920SOL    HW116000   4.549   1.526  12.090 -0.0257  0.8696  0.2693
 2920SOL    HW216001   4.504   1.598  11.965 -0.0650  0.0068 -0.2200
 2921SOL     OW16002  10.564   5.425   3.782  0.5772  0.4970  0.2820
 2921SOL    HW116003  10.542   5.356   3.720 -0.4404 -0.3392  1.5119
 2921SOL    HW216004  10.660   5.431   3.779  0.5167  1.6448 -2.5223
 2922SOL     OW16005  10.655   5.148  11.370  0.6300  0.6069  0.4443
 2922SOL    HW116006  10.566   5.134  11.402 -0.2711  1.0456 -1.6679
 2922SOL    HW216007  10.710   5.097  11.429 -1.0440  0.0926  1.6450
 2923SOL     OW16008   4.581   8.553  10.991 -0.6434 -0.0421 -0.0945
 2923SOL    HW116009   4.544   8.613  10.926  0.3990  1.0105  0.2619
 2923SOL    HW216010   4.530   8.570  11.071 -0.8765 -0.2161 -0.2034
 2924SOL     OW16011   9.187   9.143   6.941 -0.2290  0.0146  0.1993
 2924SOL    HW116012   9.268   9.115   6.984 -0.5878 -2.6575 -0.6705
 2924SOL    HW216013   9.215   9.171   6.854 -0.1143  0.3293  0.3348
 2925SOL     OW16014   0.358  10.347   6.460  0.6840 -0.0072  0.1399
 2925SOL    HW116015   0.308  10.379   6.534  0.3491 -0.4275  0.1001
 2925SOL    HW216016   0.322  10.260   6.442  0.0687  0.5006 -1.1721
 2926SOL     OW16017   9.852  12.451  10.235 -0.0304  0.0419 -0.1243
 2926SOL    HW116018   9.926  12.510  10.220  0.0972  0.0476  0.4873
 2926SOL    HW216019   9.862  12.383  10.169  1.5765 -0.9534  1.0675
 2927SOL     OW16020   0.721  12.278   6.419  0.4416 -0.5166  0.1310
 2927SOL    HW116021   0.754  12.314   6.501  0.1009  1.8129 -0.6775
 2927SOL    HW216022   0.733  12.184   6.428  0.4320 -0.3504  2.8344
 2928SOL     OW16023  11.544   3.937  10.038 -0.2205 -0.4283  0.5145
 2928SOL    HW116024  11.483   4.007  10.061 -1.1332 -1.0500  0.0233
 2928SOL    HW216025  11.506   3.896   9.960  0.3271 -1.4562  0.7694
 2929SOL     OW16026   6.043   4.365   5.952 -0.6346 -0.1486 -0.4767
 2929SOL    HW116027   6.126   4.350   5.998  0.1252  2.0794 -1.0116
 2929SOL    HW216028   5.979   4.312   6.000  1.0336 -1.7682  0.0727
 2930SOL     OW16029   6.703   4.886  12.192  0.0165 -0.3843 -0.1599
 2930SOL    HW116030   6.675   4.833  12.267  0.7682 -1.2260 -0.4715
 2930SOL    HW216031   6.795   4.864  12.179  0.3603  1.0167 -0.2862
 2931SOL     OW16032   9.008   8.541  11.995 -0.2409 -0.3274 -0.4196
 2931SOL    HW116033   8.974   8.466  11.945  3.1056 -1.7297 -0.8613
 2931SOL    HW216034   9.004   8.513  12.086 -0.5068 -0.3348 -0.4310
 2932SOL     OW16035   2.445  10.534   8.061 -0.2829  0.2975 -0.3696
 2932SOL    HW116036   2.379  10.466   8.074  2.2043 -2.0143  1.1511
 2932SOL    HW216037   2.474  10.557   8.150  0.8927  1.3366 -0.9805
 2933SOL     OW16038  11.454   6.386   2.338 -0.5167  0.0972 -0.3844
 2933SOL    HW116039  11.463   6.480   2.321 -0.4705 -0.0112 -0.9756
 2933SOL    HW216040  11.436   6.380   2.432 -1.6482  0.7791 -0.5354
 2934SOL     OW16041   0.132   6.150   5.878 -0.1742  0.2502 -0.0266
 2934SOL    HW116042   0.180   6.089   5.822 -0.4462 -0.0089  0.0224
 2934SOL    HW216043   0.145   6.235   5.836  1.3571  0.3898  0.6592
 2935SOL     OW16044   9.998   6.055   8.316 -0.2964 -0.0373  0.2302
 2935SOL    HW116045  10.077   6.042   8.263 -0.2391 -0.9628  0.5260
 2935SOL    HW216046  10.014   6.006   8.396 -0.5946  0.9390  0.9045
 2936SOL     OW16047   3.257   1.223  10.297  0.2884 -0.7299  0.0013
 2936SOL    HW116048   3.223   1.222  10.208 -3.3826 -2.1508  1.2047
 2936SOL    HW216049   3.198   1.282  10.345  0.7199 -1.7541  1.9232
 2937SOL     OW16050   9.187   9.428   9.896  0.3519 -0.0447 -0.2399
 2937SOL    HW116051   9.236   9.510   9.903  0.1614  1.0295 -5.9561
 2937SOL    HW216052   9.096   9.455   9.887  0.2165 -0.8545 -1.6137
 2938SOL     OW16053   4.127   9.687   9.839 -0.5479 -0.4966  0.9109
 2938SOL    HW116054   4.101   9.730   9.757 -1.5551 -0.9403  0.9807
 2938SOL    HW216055   4.049   9.690   9.894  0.6913  1.6296  2.7062
 2939SOL     OW16056   0.912   6.180   7.568  0.2451 -0.0368 -0.5887
 2939SOL    HW116057   0.905   6.229   7.486  0.5159 -0.4220 -0.8435
 2939SOL    HW216058   0.990   6.215   7.610 -1.1310  1.7713  0.5931
 2940SOL     OW16059  10.230   3.457   7.112 -0.0231 -0.2605  0.0804
 2940SOL    HW116060  10.141   3.488   7.130 -0.6230 -0.0512 -2.7148
 2940SOL    HW216061  10.231   3.443   7.017  2.9718 -0.1771  0.0151
 2941SOL     OW16062   6.819  10.091   9.316  0.0798  0.2258 -0.3021
 2941SOL    HW116063   6.867  10.119   9.394 -0.6524  0.4767  0.0657
 2941SOL    HW216064   6.766  10.168   9.292 -1.0098 -0.4231 -0.0225
 2942SOL     OW16065   3.570   9.261   3.182 -0.2449 -0.2023  0.6641
 2942SOL    HW116066   3.586   9.173   3.149  1.3258 -0.1020  1.0810
 2942SOL    HW216067   3.488   9.254   3.230  0.0342 -1.5224  0.9874
 2943SOL     OW16068   3.466  10.115   3.257 -0.4393 -0.5641 -0.3046
 2943SOL    HW116069   3.493  10.027   3.229  0.5544 -0.2156 -0.4880
 2943SOL    HW216070   3.476  10.169   3.178 -0.5225 -0.1796 -0.0541
 2944SOL     OW16071   0.485  12.659   3.273 -0.0551 -0.9228  0.5958
 2944SOL    HW116072   0.568  12.650   3.225 -1.0286 -0.9140 -1.1564
 2944SOL    HW216073   0.490  12.592   3.341  0.5940 -2.2679 -0.7199
 2945SOL     OW16074  11.926   5.751  12.687 -0.2232 -0.4895 -0.1341
 2945SOL    HW116075  12.017   5.729  12.708 -1.0756 -2.2173  2.1978
 2945SOL    HW216076  11.906   5.827  12.741 -0.3678 -0.5817 -0.0550
 2946SOL     OW16077  12.146  11.769  10.637  0.0688  0.2458 -0.4012
 2946SOL    HW116078  12.176  11.758  10.727 -0.1908 -0.4168 -0.3943
 2946SOL    HW216079  12.074  11.831  10.644  0.2041  0.3824 -0.1865
 2947SOL     OW16080   7.720  12.495   9.408  0.5853 -0.3807  0.2271
 2947SOL    HW116081   7.624  12.498   9.404  0.4914 -1.9279  0.5708
 2947SOL    HW216082   7.749  12.551   9.337 -0.6005 -0.5555 -0.4183
 2948SOL     OW16083  10.188   1.509  10.457 -0.5493  0.1331  0.4467
 2948SOL    HW116084  10.208   1.486  10.548 -0.9018 -2.0066  0.0434
 2948SOL    HW216085  10.121   1.445  10.431  1.6572 -1.2634 -2.2200
 2949SOL     OW16086   3.629   8.293   9.225  0.0305  0.0625  0.5457
 2949SOL    HW116087   3.641   8.304   9.319  1.3638  3.3114  0.1213
 2949SOL    HW216088   3.690   8.223   9.202  1.0151  0.4468  1.8706
 2950SOL     OW16089   3.181   7.318   6.093 -0.0033  0.0234  0.2216
 2950SOL    HW116090   3.260   7.306   6.041 -0.9515 -1.6031 -0.9546
 2950SOL    HW216091   3.185   7.249   6.159  0.6877  1.4441  1.7448
 2951SOL     OW16092   1.303   2.033   1.076 -0.8263  0.5594  0.1799
 2951SOL    HW116093   1.273   2.117   1.112 -1.2297  0.5630 -0.1534
 2951SOL    HW216094   1.393   2.050   1.049 -1.4801  1.4687 -1.6379
 2952SOL     OW16095   7.966  11.073   9.428  0.4434 -0.0530  0.1389
 2952SOL    HW116096   8.062  11.067   9.428  0.3831 -1.7993 -0.4718
 2952SOL    HW216097   7.941  11.053   9.518  0.6331 -0.2239  0.1555
 2953SOL     OW16098   4.851  12.097   8.385 -0.2670 -0.3034  0.1382
 2953SOL    HW116099   4.792  12.136   8.320  0.0409  1.0780  0.6580
 2953SOL    HW216100   4.811  12.117   8.469  2.1366  3.0743  0.7081
 2954SOL     OW16101   1.947   5.095  11.329  0.0191  0.0548  0.1259
 2954SOL    HW116102   2.012   5.124  11.264 -1.7249  0.1053 -1.6888
 2954SOL    HW216103   1.923   5.007  11.301 -0.7650  0.0750  0.6984
 2955SOL     OW16104   2.921   3.442  11.324 -0.2760  0.3132 -0.0434
 2955SOL    HW116105   3.013   3.418  11.333 -0.2457  0.4332 -0.0275
 2955SOL    HW216106   2.923   3.526  11.279 -0.4626 -0.7446 -2.1106
 2956SOL     OW16107   9.247   0.581   9.864 -0.2148  0.5187  0.0462
 2956SOL    HW116108   9.224   0.645   9.797 -0.7522 -0.0084 -0.2781
 2956SOL    HW216109   9.221   0.496   9.827  2.2948 -0.1535 -0.4080
 2957SOL     OW16110   7.129   4.545   3.562 -0.0328  0.5151  0.1770
 2957SOL    HW116111   7.189   4.494   3.617  0.7070  1.9587  0.7485
 2957SOL    HW216112   7.186   4.595   3.505 -0.7503  0.8388 -0.2623
 2958SOL     OW16113  10.015   3.607   6.737  0.3158 -0.0295  0.3228
 2958SOL    HW116114   9.991   3.608   6.644  1.3450 -3.2859 -0.1013
 2958SOL    HW216115   9.933   3.589   6.783  0.2161 -1.0267 -0.2148
 2959SOL     OW16116   7.802   4.025   9.851  0.4146 -0.1905 -0.0988
 2959SOL    HW116117   7.757   3.941   9.863 -0.0930  0.1750  0.6480
 2959SOL    HW216118   7.732   4.090   9.851  0.9315  0.4013  1.2078
 2960SOL     OW16119   9.025   9.427   5.283  0.5241 -0.1665  0.0170
 2960SOL    HW116120   8.970   9.379   5.345 -0.3285  0.4940 -0.2099
 2960SOL    HW216121   8.982   9.512   5.275  1.6559  0.4085 -0.0692
 2961SOL     OW16122   2.040   7.421   5.307  1.0675 -0.0262 -0.3676
 2961SOL    HW116123   1.968   7.366   5.339  1.6762 -1.3690 -1.1853
 2961SOL    HW216124   2.011   7.449   5.220  1.2934 -0.1137 -0.4722
 2962SOL     OW16125  11.932   8.077   9.782  0.4018 -0.2958  0.6146
 2962SOL    HW116126  11.953   8.059   9.691  1.6875  0.4735  0.7452
 2962SOL    HW216127  11.867   8.010   9.805  1.3116 -1.5535 -0.3619
 2963SOL     OW16128   8.967  10.088   3.185 -0.1574 -0.3256  0.4187
 2963SOL    HW116129   9.020  10.157   3.225  1.8420 -0.1541 -2.2827
 2963SOL    HW216130   8.967  10.017   3.250  1.1770  0.6857  1.5769
 2964SOL     OW16131   6.327   9.703   5.349 -0.3751  0.1250  0.2807
 2964SOL    HW116132   6.350   9.665   5.434 -0.4961 -0.6914 -0.0453
 2964SOL    HW216133   6.394   9.670   5.289  0.2044  1.3708  0.2034
 2965SOL     OW16134   2.722   0.595  11.274 -0.6743 -0.1100 -0.3839
 2965SOL    HW116135   2.730   0.672  11.332 -2.3889 -0.4237  0.3171
 2965SOL    HW216136   2.800   0.543  11.294 -1.0437 -0.0477  1.4622
 2966SOL     OW16137   1.416  11.357  12.413  0.8901 -0.1238 -0.0762
 2966SOL    HW116138   1.387  11.414  12.484 -1.7094 -0.9627 -0.3717
 2966SOL    HW216139   1.409  11.268  12.449 -0.6426 -0.5743 -1.3640
 2967SOL     OW16140   9.789   8.678  10.337 -0.5258 -0.0748  0.1923
 2967SOL    HW116141   9.860   8.742  10.328  2.0109 -2.7136 -0.0919
 2967SOL    HW216142   9.792   8.652  10.429 -1.8883  0.5114  0.4296
 2968SOL     OW16143  12.405  10.932   4.835 -0.1166 -0.0839  0.1311
 2968SOL    HW116144  12.421  11.026   4.848 -0.2352  0.3876 -2.6781
 2968SOL    HW216145  12.315  10.927   4.804 -0.2811 -1.2020  0.7410
 2969SOL     OW16146   2.845   6.490  11.627 -0.0531  0.3395 -0.3730
 2969SOL    HW116147   2.870   6.528  11.543  1.2665 -0.2224 -0.2510
 2969SOL    HW216148   2.889   6.405  11.629 -0.6835  0.0209  0.5651
 2970SOL     OW16149  11.961   9.601   5.294 -0.1221 -0.2395  0.1700
 2970SOL    HW116150  12.001   9.686   5.316 -0.1756 -0.0781 -0.3344
 2970SOL    HW216151  11.930   9.612   5.204  0.3458 -0.9692 -0.0937
 2971SOL     OW16152   9.187   6.192  12.254  0.2886 -0.3239  0.2409
 2971SOL    HW116153   9.207   6.124  12.189  0.1173 -0.6115  0.4885
 2971SOL    HW216154   9.232   6.163  12.333 -1.3602 -1.1599  0.9117
 2972SOL     OW16155   3.039   2.306   0.384 -0.4399  0.5742  0.1507
 2972SOL    HW116156   3.047   2.377   0.321  0.3489  1.6166  1.3736
 2972SOL    HW216157   2.952   2.270   0.368 -1.7313  3.1444  0.7812
 2973SOL     OW16158   5.047   4.122   7.282 -0.2917  0.4441 -0.0915
 2973SOL    HW116159   5.104   4.194   7.252  1.5911 -1.0282 -0.2279
 2973SOL    HW216160   5.091   4.088   7.359 -0.9418 -0.8242 -0.2629
 2974SOL     OW16161   7.706   1.345   3.380 -0.4969  0.6390  0.3551
 2974SOL    HW116162   7.732   1.291   3.306 -1.1294  1.3743 -0.4169
 2974SOL    HW216163   7.611   1.334   3.385 -0.6304  1.6676  0.1966
 2975SOL     OW16164  10.024   4.782   5.472 -0.3431  0.4132 -0.5340
 2975SOL    HW116165  10.071   4.735   5.541 -0.8077 -0.0668 -0.5369
 2975SOL    HW216166  10.000   4.865   5.512 -0.5622  0.1601 -0.1329
 2976SOL     OW16167   2.390   1.347   6.229  0.1378 -0.0581 -0.5151
 2976SOL    HW116168   2.474   1.393   6.226  0.4399 -0.5882 -0.4571
 2976SOL    HW216169   2.334   1.395   6.168  0.9191 -0.5381 -1.6613
 2977SOL     OW16170   4.522   9.021   1.279  0.2578 -0.1739 -0.1564
 2977SOL    HW116171   4.560   8.967   1.210  0.4232 -0.1343 -0.0950
 2977SOL    HW216172   4.521   9.109   1.241  1.5053  0.0759  0.3566
 2978SOL     OW16173   1.437   1.940   4.798 -0.1395 -0.2477 -0.3621
 2978SOL    HW116174   1.472   1.935   4.886 -0.8217 -0.3142 -0.0878
 2978SOL    HW216175   1.512   1.963   4.743  0.8927 -2.9228 -0.1839
 2979SOL     OW16176   9.234  10.471   7.750  0.2716  0.0033 -0.0813
 2979SOL    HW116177   9.278  10.531   7.689 -1.1656 -1.3310 -2.5894
 2979SOL    HW216178   9.144  10.503   7.754  0.4866  0.5140  2.0617
 2980SOL     OW16179   1.141   5.261   8.408  0.2480 -0.4491  0.4566
 2980SOL    HW116180   1.168   5.307   8.328 -1.3520 -1.9024 -0.9966
 2980SOL    HW216181   1.091   5.186   8.376  1.3515 -2.2731  2.7866
 2981SOL     OW16182   2.924   8.893   1.064 -0.0807 -0.4813  0.3461
 2981SOL    HW116183   2.835   8.907   1.095 -0.1326 -0.6892  0.2920
 2981SOL    HW216184   2.929   8.942   0.981 -0.5449 -1.5131 -0.3109
 2982SOL     OW16185   5.810   1.395   8.533  0.0992 -0.4304  0.3515
 2982SOL    HW116186   5.731   1.384   8.480 -0.0612 -0.9350  0.6874
 2982SOL    HW216187   5.778   1.405   8.623  0.3554  0.6854  0.3358
 2983SOL     OW16188   3.682  11.958   8.461  0.0529  0.5603 -0.0440
 2983SOL    HW116189   3.592  11.989   8.463  0.2507  1.1224  1.1457
 2983SOL    HW216190   3.686  11.891   8.530  0.1592 -0.6475 -1.1746
 2984SOL     OW16191   3.534  12.389   0.477 -0.3872  0.0039 -0.0169
 2984SOL    HW116192   3.503  12.347   0.398 -1.4926 -1.2874  1.0561
 2984SOL    HW216193   3.630  12.386   0.470 -0.4742 -0.3765 -1.1396
 2985SOL     OW16194   9.029   9.141   6.210  0.4190  0.2101 -0.0641
 2985SOL    HW116195   8.977   9.061   6.206  2.2831 -1.0338 -0.7682
 2985SOL    HW216196   8.966   9.211   6.192 -0.9069 -1.2627 -1.5192
 2986SOL     OW16197   9.751  12.089   5.078 -0.3307 -0.6520 -0.2149
 2986SOL    HW116198   9.840  12.090   5.042 -0.2534  0.0208 -0.0167
 2986SOL    HW216199   9.761  12.052   5.165  0.3315  2.5055  1.1934
 2987SOL     OW16200  11.028  11.078   3.965  0.6539 -0.2835  0.0322
 2987SOL    HW116201  11.124  11.072   3.963  0.7474  0.6510  0.9149
 2987SOL    HW216202  11.006  11.120   3.881  0.9946 -0.6509 -0.2478
 2988SOL     OW16203   5.035   5.835  12.685 -0.2447 -0.2961 -0.0270
 2988SOL    HW116204   5.023   5.800  12.597  0.7312 -0.6078 -0.0447
 2988SOL    HW216205   5.009   5.764  12.743 -2.1391  0.3418 -0.0336
 2989SOL     OW16206   3.533   2.725   1.350  0.1195 -0.5106  0.0929
 2989SOL    HW116207   3.582   2.748   1.429 -0.3819 -0.5255  0.4105
 2989SOL    HW216208   3.516   2.631   1.359  0.4598 -0.6111 -0.2587
 2990SOL     OW16209   8.541   8.191   6.656 -0.3241 -0.0489 -0.3398
 2990SOL    HW116210   8.500   8.277   6.663 -1.0306 -0.2363 -1.8705
 2990SOL    HW216211   8.564   8.183   6.564  1.3973 -0.7738  0.1212
 2991SOL     OW16212   0.005   6.733   3.395  0.0150 -0.5341  0.6370
 2991SOL    HW116213  -0.089   6.752   3.404  0.4687  3.3798 -0.9844
 2991SOL    HW216214   0.013   6.688   3.311 -0.4006 -1.1575  0.9220
 2992SOL     OW16215   2.059   2.149   6.769  0.3846 -0.1398 -0.1039
 2992SOL    HW116216   1.964   2.150   6.762  0.1225 -1.9846  2.0094
 2992SOL    HW216217   2.080   2.227   6.820 -0.2995 -0.9324  1.4830
 2993SOL     OW16218   8.412   9.688   1.828  0.7012  0.0652  0.2964
 2993SOL    HW116219   8.369   9.734   1.899  1.8801  1.4192  0.1747
 2993SOL    HW216220   8.472   9.752   1.790  0.1231 -0.6023 -1.9358
 2994SOL     OW16221   0.554  11.237   2.499 -0.0868  0.0049  0.2723
 2994SOL    HW116222   0.507  11.266   2.422 -0.4374  0.2438  0.5734
 2994SOL    HW216223   0.578  11.318   2.545  0.1935 -0.1308  0.3692
 2995SOL     OW16224   6.377  12.543  12.123 -0.4337 -0.3585  0.1797
 2995SOL    HW116225   6.329  12.474  12.078  0.1130 -0.2937 -0.5192
 2995SOL    HW216226   6.377  12.616  12.061 -1.1033  0.3202  0.9514
 2996SOL     OW16227   4.136   0.941   8.964 -0.0379  0.0642  0.0656
 2996SOL    HW116228   4.179   0.904   8.887 -3.1650 -1.2882 -1.1990
 2996SOL    HW216229   4.091   0.867   9.004 -0.7969  1.2783  1.5702
 2997SOL     OW16230  10.678   0.020   0.487 -0.1343 -0.4696  0.7123
 2997SOL    HW116231  10.711   0.067   0.410 -0.9646 -1.1429 -0.0696
 2997SOL    HW216232  10.598   0.067   0.510 -2.6696 -3.1273 -1.8962
 2998SOL     OW16233   6.337   2.917   4.008 -0.1788 -0.1451  0.2614
 2998SOL    HW116234   6.412   2.867   3.977 -0.3672 -0.0157 -0.4194
 2998SOL    HW216235   6.263   2.856   4.002 -0.1400 -0.2608  0.8948
 2999SOL     OW16236   7.219  11.272   0.093  0.2126 -0.3295  0.2221
 2999SOL    HW116237   7.233  11.204   0.159 -0.0680 -1.2441 -0.6373
 2999SOL    HW216238   7.303  11.318   0.088  1.1958 -2.1307 -0.8397
 3000SOL     OW16239  11.644   0.733   8.429 -0.1166  0.0761 -0.2813
 3000SOL    HW116240  11.582   0.697   8.366 -0.7713  1.7038 -0.6185
 3000SOL    HW216241  11.692   0.800   8.380  1.4471 -0.6831  0.1662
 3001SOL     OW16242   3.979   0.670   0.751  0.1028 -0.1141  0.2593
 3001SOL    HW116243   4.004   0.605   0.817 -1.4342  0.6571  1.6617
 3001SOL    HW216244   4.044   0.739   0.760  1.3433 -1.0957 -0.7675
 3002SOL     OW16245   1.512   0.380   5.355 -0.0077 -0.7819 -0.2370
 3002SOL    HW116246   1.533   0.374   5.262 -0.5691  0.9016 -0.4997
 3002SOL    HW216247   1.598   0.384   5.399  0.3120  1.0646 -0.9223
 3003SOL     OW16248   6.125   1.069  12.458 -0.5004 -0.2900 -0.2812
 3003SOL    HW116249   6.034   1.038  12.465 -0.6237  0.0290 -0.4852
 3003SOL    HW216250   6.172   0.994  12.420 -0.9905  0.0983 -1.7047
 3004SOL     OW16251   3.345   2.797  12.537 -0.0759 -0.2088  0.3570
 3004SOL    HW116252   3.290   2.719  12.528 -0.2657  0.0996 -1.6526
 3004SOL    HW216253   3.283   2.869  12.549 -0.0162 -0.1075  0.0711
 3005SOL     OW16254   0.408   4.981   3.250  0.5935 -0.2591 -0.3818
 3005SOL    HW116255   0.369   4.977   3.337  0.3366 -2.6278 -0.5370
 3005SOL    HW216256   0.500   5.000   3.265  0.0143  2.5956  0.1531
 3006SOL     OW16257  11.631  11.671   1.749  0.1935 -0.1751  0.0513
 3006SOL    HW116258  11.619  11.582   1.716  1.0880 -0.0201 -0.7190
 3006SOL    HW216259  11.656  11.659   1.841  0.4649 -0.7324 -0.0911
 3007SOL     OW16260   2.810   5.469   2.585  0.4807  0.0959 -0.3055
 3007SOL    HW116261   2.765   5.465   2.501  1.5024  0.2709 -0.8826
 3007SOL    HW216262   2.770   5.400   2.637 -2.3423  1.9460  0.2069
 3008SOL     OW16263   4.086  11.553   0.825  0.3159 -0.7673  0.2768
 3008SOL    HW116264   4.121  11.576   0.911  0.2924 -0.9385  0.3331
 3008SOL    HW216265   4.150  11.587   0.763  0.9065 -1.6338  0.3958
 3009SOL     OW16266  11.959   7.410   6.027 -0.1283 -0.6329 -0.0339
 3009SOL    HW116267  11.962   7.486   6.086  0.5123 -1.1502  0.6107
 3009SOL    HW216268  12.007   7.438   5.949  0.3326 -0.4677  0.3081
 3010SOL     OW16269  12.505   3.636   6.032  0.2847  0.8565 -0.4805
 3010SOL    HW116270  12.475   3.726   6.016 -1.5715  0.2933 -0.3617
 3010SOL    HW216271  12.477   3.617   6.121  2.6445  0.8662  0.3453
 3011SOL     OW16272   4.303  11.223   1.735 -0.7126 -0.1791 -0.2505
 3011SOL    HW116273   4.312  11.204   1.828 -1.8931  0.8389  0.1006
 3011SOL    HW216274   4.383  11.189   1.695 -1.5192 -3.3991  0.6449
 3012SOL     OW16275   6.069   4.902  12.639 -0.5651 -0.0292 -0.1770
 3012SOL    HW116276   6.081   4.813  12.672  1.3186 -0.2000 -1.1438
 3012SOL    HW216277   5.995   4.936  12.688 -1.8655 -2.3907 -0.3583
 3013SOL     OW16278   8.545   8.607   9.478 -0.2462 -0.2082 -0.6045
 3013SOL    HW116279   8.628   8.649   9.502  0.6909 -1.5624 -1.3448
 3013SOL    HW216280   8.502   8.588   9.561  2.1290 -3.2183  0.1050
 3014SOL     OW16281   9.778   3.787  10.076 -0.1941  0.1344 -0.0886
 3014SOL    HW116282   9.745   3.700  10.100  1.1400 -0.9471 -1.9045
 3014SOL    HW216283   9.712   3.822  10.015  0.3824 -0.6431 -1.1903
 3015SOL     OW16284   4.999   7.157   7.458 -0.2606 -0.1217  0.2372
 3015SOL    HW116285   5.043   7.092   7.404  0.0222  1.1019 -1.0653
 3015SOL    HW216286   4.961   7.107   7.530  2.2370 -1.3852  0.7812
 3016SOL     OW16287   4.131   6.758   8.229  0.3150  0.2705 -0.2967
 3016SOL    HW116288   4.217   6.801   8.230 -0.1095  1.1222 -0.6052
 3016SOL    HW216289   4.123   6.723   8.141  0.9477 -1.0649  0.1395
 3017SOL     OW16290   1.996   3.400  12.249  0.0190 -0.2403 -0.0830
 3017SOL    HW116291   1.978   3.329  12.310  0.8583 -1.3560 -1.0992
 3017SOL    HW216292   2.048   3.360  12.179  0.5527  1.3821 -0.6610
 3018SOL     OW16293   6.055   7.890   3.440 -0.4190  0.6313 -0.3605
 3018SOL    HW116294   6.108   7.969   3.429  0.2172  0.3549  0.6812
 3018SOL    HW216295   5.965   7.922   3.441 -0.1478  1.3819  0.3643
 3019SOL     OW16296   2.341   0.012  12.337  0.3971 -0.7326  0.3935
 3019SOL    HW116297   2.299   0.081  12.285  2.6167  0.7803  0.4500
 3019SOL    HW216298   2.302  -0.069  12.305 -0.3861  0.3563 -1.5931
 3020SOL     OW16299   9.826   2.676   3.130  0.5241 -0.0948 -0.3690
 3020SOL    HW116300   9.811   2.586   3.099  0.8462 -0.4018  0.3394
 3020SOL    HW216301   9.755   2.727   3.091  0.9069 -0.4542 -1.6072
 3021SOL     OW16302   4.682   0.129   0.211  0.3192 -0.3186 -0.0539
 3021SOL    HW116303   4.668   0.037   0.236 -0.0258  0.3069  2.2826
 3021SOL    HW216304   4.776   0.142   0.222  0.4506 -0.4900 -0.8757
 3022SOL     OW16305   2.260   0.477   0.960 -0.0279 -0.1835  0.2848
 3022SOL    HW116306   2.241   0.571   0.966  1.0514  0.0598  0.1170
 3022SOL    HW216307   2.351   0.469   0.991 -0.0451 -1.1464  0.1116
 3023SOL     OW16308   1.518   1.855  10.032 -0.0841  0.4326 -0.4196
 3023SOL    HW116309   1.560   1.843  10.117  0.0309  0.0767 -0.5271
 3023SOL    HW216310   1.454   1.785  10.026  0.1370  0.2544 -0.7668
 3024SOL     OW16311  12.009   5.479   8.679 -0.2127  0.5890 -0.5299
 3024SOL    HW116312  11.917   5.494   8.655 -1.2168 -1.1440  1.7860
 3024SOL    HW216313  12.037   5.407   8.623 -2.2452 -2.8067  2.3561
 3025SOL     OW16314   1.410   4.795   1.960  0.0639  0.1381  0.4389
 3025SOL    HW116315   1.461   4.749   2.027  0.8233 -0.3636 -0.4548
 3025SOL    HW216316   1.344   4.844   2.009 -0.3935 -1.4270  1.4634
 3026SOL     OW16317   6.599   5.535  11.321  0.0700 -0.3476 -0.1750
 3026SOL    HW116318   6.643   5.583  11.390 -0.3161  1.3506 -1.0645
 3026SOL    HW216319   6.632   5.445  11.329 -0.0642 -0.2432  2.2602
 3027SOL     OW16320  11.363   2.573   1.573  0.0319  0.0685  0.1009
 3027SOL    HW116321  11.365   2.488   1.617  2.1378 -0.3336 -0.6493
 3027SOL    HW216322  11.382   2.636   1.643  1.8534 -0.4372  0.1324
 3028SOL     OW16323   9.997   0.007   0.547 -0.1391 -0.1348 -0.6195
 3028SOL    HW116324   9.914  -0.020   0.508 -0.8644  0.3733  0.5178
 3028SOL    HW216325   9.973   0.043   0.633  0.9754  2.1663 -1.1819
 3029SOL     OW16326   2.463   9.728   2.010  0.2717  0.0532  0.0839
 3029SOL    HW116327   2.372   9.711   1.989 -0.6219  2.0302  1.9622
 3029SOL    HW216328   2.495   9.783   1.938  0.4396 -1.7185 -1.2545
 3030SOL     OW16329  11.863  10.980   4.883 -0.5616 -0.1644  0.0521
 3030SOL    HW116330  11.858  11.004   4.790  1.3721  1.6369  0.3648
 3030SOL    HW216331  11.772  10.961   4.907 -0.9544 -2.4534 -2.5926
 3031SOL     OW16332   9.633   3.966  10.837  0.2957 -0.4052  0.2582
 3031SOL    HW116333   9.678   4.010  10.765  0.4369  1.0798  1.2129
 3031SOL    HW216334   9.671   4.004  10.917 -0.7157 -1.1111  1.1074
 3032SOL     OW16335   3.812   3.354  11.662 -0.0179 -0.1534 -0.3607
 3032SOL    HW116336   3.819   3.423  11.596  2.7141 -0.4273 -0.4788
 3032SOL    HW216337   3.863   3.386  11.736 -1.9179 -0.4376  1.1478
 3033SOL     OW16338  12.482   5.126   0.574  0.1298 -0.4001  0.4067
 3033SOL    HW116339  12.495   5.179   0.653  0.1972 -0.8075  0.6700
 3033SOL    HW216340  12.451   5.042   0.607 -0.3418 -0.4026 -0.0354
 3034SOL     OW16341   4.722   2.269   5.308  0.1898  0.1095 -0.0321
 3034SOL    HW116342   4.790   2.272   5.241 -0.4219 -0.2391 -0.6872
 3034SOL    HW216343   4.649   2.224   5.265  0.3166 -1.5082  1.3598
 3035SOL     OW16344   2.523  10.937   4.539 -0.1386 -0.4705 -0.0748
 3035SOL    HW116345   2.468  11.006   4.502 -1.1123 -1.4370 -0.4973
 3035SOL    HW216346   2.610  10.952   4.502 -0.4633  0.2154 -0.5678
 3036SOL     OW16347   3.445  12.507   2.931 -0.1452  0.4177  0.4291
 3036SOL    HW116348   3.529  12.528   2.973  0.6742 -1.2588 -0.2434
 3036SOL    HW216349   3.434  12.574   2.864  1.9269 -0.6656 -1.1023
 3037SOL     OW16350   6.280   3.602  11.518 -0.2522  0.2976 -0.5086
 3037SOL    HW116351   6.188   3.625  11.530 -1.5588 -4.1682 -0.0410
 3037SOL    HW216352   6.286   3.575  11.426  0.8467  1.2150 -0.7349
 3038SOL     OW16353   2.765   3.713   2.081  0.4488  0.1885  0.3838
 3038SOL    HW116354   2.843   3.673   2.042  0.9939  0.3044  1.3077
 3038SOL    HW216355   2.692   3.664   2.044  0.9027  0.5599 -1.0705
 3039SOL     OW16356  12.015   5.247   7.703  0.2423  0.2486 -0.0044
 3039SOL    HW116357  11.941   5.217   7.651 -0.2763  1.1598  0.1851
 3039SOL    HW216358  11.992   5.223   7.793  0.4624 -0.0117 -0.0160
 3040SOL     OW16359   0.524  11.652   5.107  0.1317  0.4483  0.2867
 3040SOL    HW116360   0.514  11.747   5.101  0.5115  0.4404 -0.6295
 3040SOL    HW216361   0.484  11.629   5.191 -0.9747  1.2753  0.0082
 3041SOL     OW16362   5.004   8.902   5.907  0.5584 -0.4232  0.1782
 3041SOL    HW116363   4.960   8.968   5.854  2.7456  1.5318  0.6790
 3041SOL    HW216364   4.980   8.819   5.866 -2.6576  0.5391 -0.2034
 3042SOL     OW16365   7.989   3.862   5.441  0.4894  0.3971  0.5991
 3042SOL    HW116366   7.906   3.863   5.489 -1.1869  1.3086 -2.0789
 3042SOL    HW216367   8.034   3.784   5.473 -0.9025  0.4639  2.9117
 3043SOL     OW16368   1.248   6.598   4.001 -0.0926 -0.7487 -0.1531
 3043SOL    HW116369   1.311   6.657   4.041  0.0549 -1.0503  0.0633
 3043SOL    HW216370   1.168   6.650   3.993  0.6290  0.1852 -1.9606
 3044SOL     OW16371   4.068   3.757  10.819 -0.4665 -0.2327  0.4133
 3044SOL    HW116372   4.068   3.668  10.857  1.1562 -0.2338  0.4768
 3044SOL    HW216373   4.020   3.810  10.883 -0.5712 -0.8692  0.8733
 3045SOL     OW16374   1.181   2.084  10.886 -0.0704 -0.1523 -0.4670
 3045SOL    HW116375   1.164   2.028  10.961 -0.4556 -0.8548 -1.0631
 3045SOL    HW216376   1.173   2.173  10.920 -3.6370 -0.3810 -0.3462
 3046SOL     OW16377   3.554   0.927   6.344  0.4156 -0.2069 -0.4878
 3046SOL    HW116378   3.634   0.877   6.330  0.5273  0.3868 -2.1393
 3046SOL    HW216379   3.509   0.926   6.260  0.2178  2.0826 -0.4765
 3047SOL     OW16380  10.655   7.156   9.771  0.8343  0.5544 -0.0647
 3047SOL    HW116381  10.638   7.074   9.817 -0.6978  0.7444 -0.2479
 3047SOL    HW216382  10.626   7.224   9.832  1.3299  0.9363 -0.2450
 3048SOL     OW16383   0.329  11.476   1.722 -0.4143 -0.3372 -0.2629
 3048SOL    HW116384   0.381  11.528   1.784  1.3587 -0.8795 -1.2129
 3048SOL    HW216385   0.324  11.531   1.643  0.3526 -1.0520 -0.8222
 3049SOL     OW16386   9.989  12.453  12.597  0.1520 -0.5202  0.3022
 3049SOL    HW116387   9.988  12.530  12.654 -1.4506 -0.9259  0.8789
 3049SOL    HW216388  10.003  12.489  12.509 -0.4589  0.4328  0.5743
 3050SOL     OW16389   1.061   5.729   6.028  0.0547 -0.1959 -0.0985
 3050SOL    HW116390   1.050   5.743   6.123  1.5947  1.6708 -0.1420
 3050SOL    HW216391   1.139   5.674   6.021 -0.8759 -1.5462 -0.2803
 3051SOL     OW16392  12.540   1.667   3.411 -0.2169 -0.2999 -0.5372
 3051SOL    HW116393  12.465   1.647   3.467 -0.0858  1.1005  0.1721
 3051SOL    HW216394  12.515   1.747   3.365  0.7575  0.0886 -0.4177
 3052SOL     OW16395   4.696   4.522   5.612  0.0442  0.1794 -0.4873
 3052SOL    HW116396   4.742   4.574   5.546 -0.6504  1.0178 -0.3213
 3052SOL    HW216397   4.641   4.585   5.659  0.1827 -0.4724  0.6014
 3053SOL     OW16398  11.833   9.763   2.567 -0.6914  0.0024 -0.3515
 3053SOL    HW116399  11.884   9.787   2.489 -1.3671 -0.9063 -1.1007
 3053SOL    HW216400  11.789   9.844   2.592 -0.3051  0.3559 -0.7910
 3054SOL     OW16401  10.310   1.337   6.196 -0.2647 -0.4755  0.3126
 3054SOL    HW116402  10.215   1.336   6.187 -0.1194 -0.8541 -1.6802
 3054SOL    HW216403  10.334   1.245   6.203  0.0574 -0.4855 -0.8034
 3055SOL     OW16404   8.558   4.669   0.437  0.3343 -0.1115  0.1070
 3055SOL    HW116405   8.606   4.592   0.407  0.6584  0.0723  0.1511
 3055SOL    HW216406   8.488   4.679   0.372  0.7548  0.0093 -0.3377
 3056SOL     OW16407   1.201   8.248   2.557 -0.0403 -0.2037 -0.0212
 3056SOL    HW116408   1.109   8.271   2.541 -0.0601 -0.2198  0.0665
 3056SOL    HW216409   1.228   8.201   2.478 -1.0816 -3.1416  1.2262
 3057SOL     OW16410   0.100   9.934   9.046  0.6579 -0.6273 -0.2682
 3057SOL    HW116411   0.157  10.007   9.070 -0.0749 -0.3731  0.7815
 3057SOL    HW216412   0.073   9.896   9.130  0.1489 -1.4158 -0.7717
 3058SOL     OW16413   1.872  10.780   5.039 -0.0277 -0.1812 -0.1375
 3058SOL    HW116414   1.807  10.745   4.979  1.5060 -2.4608 -0.5898
 3058SOL    HW216415   1.929  10.706   5.059  0.2527  0.7508  3.2327
 3059SOL     OW16416   0.633   7.541   9.159  0.0277 -0.4532 -0.1479
 3059SOL    HW116417   0.588   7.555   9.076 -2.7124 -1.9222  0.9745
 3059SOL    HW216418   0.596   7.607   9.218  1.1086 -0.1616  0.2343
 3060SOL     OW16419   0.486  11.556  10.088 -0.0188  0.7744  0.1899
 3060SOL    HW116420   0.492  11.469  10.049  0.6350  1.0148 -0.2566
 3060SOL    HW216421   0.493  11.541  10.182  0.2118  0.3573  0.1068
 3061SOL     OW16422  10.312   0.963   6.762  0.4461  0.2871 -0.0510
 3061SOL    HW116423  10.295   0.886   6.816  0.7499  0.6019  0.5082
 3061SOL    HW216424  10.227   1.006   6.753 -0.1521 -1.1608 -2.0621
 3062SOL     OW16425   9.481   4.029   3.865 -0.3677 -0.6981 -0.0902
 3062SOL    HW116426   9.571   4.060   3.880 -0.9766  1.4656 -0.5752
 3062SOL    HW216427   9.456   3.987   3.947  0.9794 -1.0943  0.1430
 3063SOL     OW16428   6.821  10.414  12.608  0.3692  0.0151 -0.0561
 3063SOL    HW116429   6.743  10.358  12.604 -0.6109  1.2435  1.0126
 3063SOL    HW216430   6.880  10.368  12.667 -0.7595  0.4488  1.4799
 3064SOL     OW16431  11.874  11.795  12.109 -0.7546  0.5777  0.4804
 3064SOL    HW116432  11.951  11.807  12.165 -1.7714  1.2432  1.7781
 3064SOL    HW216433  11.802  11.780  12.170 -1.6515 -0.0904 -0.7176
 3065SOL     OW16434  10.326   4.432   7.173 -0.1419 -0.1928 -0.5373
 3065SOL    HW116435  10.419   4.428   7.196 -0.1362 -2.4200 -0.7830
 3065SOL    HW216436  10.295   4.513   7.215  1.7559  0.2889  0.0499
 3066SOL     OW16437   5.061   9.623   8.596  0.2400 -0.4415 -0.1731
 3066SOL    HW116438   5.026   9.692   8.652  0.7081 -1.9460  2.1093
 3066SOL    HW216439   5.154   9.620   8.617  0.0097 -2.6022  0.8149
 3067SOL     OW16440   5.141   4.809   1.970  0.8920  0.0785 -0.3894
 3067SOL    HW116441   5.236   4.803   1.979  0.7456 -0.0755  1.6164
 3067SOL    HW216442   5.109   4.723   1.996  0.1532  0.4914  0.1004
 3068SOL     OW16443   7.393  10.511   6.487  0.4669  0.6136  0.0137
 3068SOL    HW116444   7.330  10.581   6.474 -0.1008 -0.2023 -2.0330
 3068SOL    HW216445   7.362  10.440   6.431  3.1079  0.1120 -0.9578
 3069SOL     OW16446  11.501   9.226   4.558 -0.2680  0.3144  0.1006
 3069SOL    HW116447  11.562   9.299   4.565  0.5261 -0.2456 -0.7343
 3069SOL    HW216448  11.529   9.164   4.625  0.5749 -0.2823 -0.7902
 3070SOL     OW16449   0.692   3.282   1.165  0.0568 -0.6784 -0.2279
 3070SOL    HW116450   0.665   3.347   1.231  1.1275  0.2736 -0.7037
 3070SOL    HW216451   0.678   3.326   1.081 -1.1189 -1.8152 -0.6635
 3071SOL     OW16452   2.915   4.337   3.151  0.2599  0.1492  0.0313
 3071SOL    HW116453   3.004   4.369   3.135  0.2921 -0.0984 -0.2802
 3071SOL    HW216454   2.891   4.376   3.236 -0.2548  2.1971 -0.9689
 3072SOL     OW16455   7.379   9.148   0.333 -0.3475 -0.1592  0.3044
 3072SOL    HW116456   7.320   9.194   0.274 -1.0889 -1.3287  0.1046
 3072SOL    HW216457   7.322   9.090   0.384  0.7808 -2.9479 -1.3711
 3073SOL     OW16458   4.884  11.500   2.298 -0.2180 -0.1542 -0.2747
 3073SOL    HW116459   4.822  11.464   2.361 -0.3901  1.2159  0.3635
 3073SOL    HW216460   4.940  11.558   2.349  1.1349 -0.7774 -0.9790
 3074SOL     OW16461  11.376   0.701  12.019  0.0225 -0.0300  0.2885
 3074SOL    HW116462  11.365   0.645  12.095  1.6481 -2.3656 -1.0666
 3074SOL    HW216463  11.468   0.726  12.020 -0.5689  2.3453  0.6046
 3075SOL     OW16464  11.502   0.515   1.193  0.0338 -0.2545 -0.7735
 3075SOL    HW116465  11.579   0.516   1.136  0.6426 -1.1653  0.0099
 3075SOL    HW216466  11.428   0.521   1.133  0.6986  0.2162 -1.5646
 3076SOL     OW16467   2.365  10.317  11.990  0.2992  0.2019  0.6775
 3076SOL    HW116468   2.455  10.284  11.991  0.4638  0.6275  0.3873
 3076SOL    HW216469   2.319  10.260  11.928  0.7484  0.9160 -0.3536
 3077SOL     OW16470   2.727   4.484  10.853  0.8242  0.1872 -0.5997
 3077SOL    HW116471   2.768   4.473  10.767  3.3900 -0.6889  0.6292
 3077SOL    HW216472   2.637   4.511  10.833  0.8482 -1.4345 -3.5775
 3078SOL     OW16473  11.948   7.519  12.504 -0.4963  0.1342  0.2464
 3078SOL    HW116474  12.028   7.541  12.457 -0.2566  2.0957  1.4446
 3078SOL    HW216475  11.922   7.433  12.470  1.0946  0.2836 -1.4781
 3079SOL     OW16476   7.639  11.048   5.287 -0.2757  0.4599 -0.4619
 3079SOL    HW116477   7.689  11.034   5.366 -1.4395  0.1704  0.2513
 3079SOL    HW216478   7.656  10.971   5.233  0.3669  0.5677 -0.4140
 3080SOL     OW16479   1.166   4.697   0.634 -0.1605  0.3137 -0.4593
 3080SOL    HW116480   1.192   4.753   0.706  2.1745 -2.5996  1.2285
 3080SOL    HW216481   1.223   4.723   0.561  0.5404  0.4687  0.1387
 3081SOL     OW16482   6.135   2.578  12.294 -0.1725  0.7074  0.5995
 3081SOL    HW116483   6.184   2.569  12.375  0.3793 -0.1492  0.1851
 3081SOL    HW216484   6.198   2.616  12.232 -0.6147  1.4450  0.5910
 3082SOL     OW16485   0.037  12.482   8.572  0.2575 -0.0474  0.4308
 3082SOL    HW116486  -0.009  12.504   8.653  0.5174 -0.9365  0.8356
 3082SOL    HW216487   0.127  12.513   8.586 -0.2176  1.9215 -0.4577
 3083SOL     OW16488   9.318   4.942   4.954 -0.1610 -0.3024 -0.4710
 3083SOL    HW116489   9.319   4.903   5.042  0.3189 -1.5143 -0.9849
 3083SOL    HW216490   9.371   5.022   4.962 -0.1551 -0.3842  0.3527
 3084SOL     OW16491   2.084   1.571  10.871 -0.2249  0.0050  0.3315
 3084SOL    HW116492   2.111   1.649  10.919 -1.1505  0.7879 -0.3945
 3084SOL    HW216493   2.048   1.513  10.938 -0.4925  0.6309  0.7415
 3085SOL     OW16494   5.265   3.810   8.185 -0.1298 -0.4200 -0.0112
 3085SOL    HW116495   5.182   3.811   8.138  0.1026 -0.7939 -0.4405
 3085SOL    HW216496   5.323   3.866   8.134 -0.2437  0.2132  0.5386
 3086SOL     OW16497   8.544   5.980   7.133  0.8412 -0.5738  0.4372
 3086SOL    HW116498   8.554   5.911   7.067  1.2915 -0.7885  0.7228
 3086SOL    HW216499   8.612   5.961   7.198  1.8060  0.8650 -0.0980
 3087SOL     OW16500   9.905   4.147  11.563 -0.4298  0.3930  0.0978
 3087SOL    HW116501   9.969   4.202  11.609  0.3794  0.4257 -1.0062
 3087SOL    HW216502   9.838   4.128  11.628 -0.4161  2.1739  0.6964
 3088SOL     OW16503   5.403   8.273   0.844 -0.1981  0.1628  0.3831
 3088SOL    HW116504   5.326   8.217   0.835 -0.6101  0.6780  0.6072
 3088SOL    HW216505   5.386   8.323   0.925 -0.2386  1.2006 -0.2478
 3089SOL     OW16506  10.486   2.735  11.432 -0.0778  0.5945 -0.1027
 3089SOL    HW116507  10.454   2.824  11.416  0.5680  0.6004 -1.6087
 3089SOL    HW216508  10.538   2.715  11.354  0.8924 -0.6088  0.8263
 3090SOL     OW16509   7.089   3.071   4.856 -0.1965 -0.1898 -0.2252
 3090SOL    HW116510   7.169   3.019   4.846  0.7604  1.1735 -0.0177
 3090SOL    HW216511   7.039   3.054   4.776  0.1600 -1.2913 -0.2213
 3091SOL     OW16512  11.899   2.616   1.301  0.1415 -0.3115 -0.3317
 3091SOL    HW116513  11.914   2.523   1.319  0.0681 -0.4438 -0.9060
 3091SOL    HW216514  11.813   2.635   1.338 -0.9544 -1.1004 -2.2936
 3092SOL     OW16515   1.663   5.942   3.943  0.3549 -0.3430 -0.2858
 3092SOL    HW116516   1.708   5.971   3.864 -0.5887 -1.1065 -1.1345
 3092SOL    HW216517   1.580   5.989   3.942  0.8621  0.6402  0.9751
 3093SOL     OW16518  11.885   9.050  10.514  0.1740  0.3178 -0.2702
 3093SOL    HW116519  11.929   8.969  10.490 -0.0836  0.3776 -0.9407
 3093SOL    HW216520  11.849   9.033  10.601 -0.7566 -0.6338 -0.8238
 3094SOL     OW16521   1.137   3.574   2.419 -0.2299  0.1043  0.1943
 3094SOL    HW116522   1.176   3.655   2.454  1.3121 -0.6015  0.1749
 3094SOL    HW216523   1.168   3.505   2.478 -0.0053 -0.7163 -0.8455
 3095SOL     OW16524   6.382   8.671   8.174  0.2966 -0.3271  0.0525
 3095SOL    HW116525   6.431   8.750   8.198  1.0264 -0.5732 -0.5951
 3095SOL    HW216526   6.449   8.604   8.161 -0.1788 -0.5853 -1.1678
 3096SOL     OW16527   3.636   0.657   9.993 -0.2003  0.1966 -0.0024
 3096SOL    HW116528   3.726   0.688  10.006 -0.0470 -0.3551  0.3086
 3096SOL    HW216529   3.640   0.606   9.912 -0.6720  1.7872 -1.0727
 3097SOL     OW16530   8.317  11.729   8.663 -0.0813  0.4601  0.0291
 3097SOL    HW116531   8.293  11.821   8.651 -0.3638  0.3133 -0.5777
 3097SOL    HW216532   8.383  11.712   8.596  0.0123  0.2382  0.1765
 3098SOL     OW16533   3.000   1.931  10.447  0.6400 -0.0328 -0.1073
 3098SOL    HW116534   2.918   1.908  10.404  1.9979 -1.5478 -2.0343
 3098SOL    HW216535   2.990   1.896  10.536 -0.6308 -0.5303 -0.4170
 3099SOL     OW16536  11.190   0.661   4.918 -0.7843 -0.2500  0.0202
 3099SOL    HW116537  11.166   0.585   4.971 -0.5511 -2.2610 -2.5492
 3099SOL    HW216538  11.118   0.723   4.930 -2.3403 -1.9975  0.1460
 3100SOL     OW16539   3.895   9.215   9.358 -0.5964  0.3678 -0.4413
 3100SOL    HW116540   3.843   9.211   9.438 -0.6134  0.9314 -0.4208
 3100SOL    HW216541   3.832   9.239   9.290 -1.2120 -2.9676 -1.2063
 3101SOL     OW16542   2.085   1.374   8.064 -0.1518 -0.0305  0.1004
 3101SOL    HW116543   2.113   1.464   8.082  3.0457 -0.2400 -2.7183
 3101SOL    HW216544   2.014   1.383   8.001  0.6304  0.6051 -0.7272
 3102SOL     OW16545   0.437   2.046  12.357 -0.5126  0.1072  0.3061
 3102SOL    HW116546   0.378   2.021  12.429 -1.3184 -1.2220 -0.7626
 3102SOL    HW216547   0.404   2.131  12.328 -1.2113 -0.0954  0.4740
 3103SOL     OW16548   9.089   5.926   6.152 -0.6504  0.0740  0.0390
 3103SOL    HW116549   9.157   5.928   6.084 -0.8971  1.1202 -0.1977
 3103SOL    HW216550   9.007   5.938   6.103 -1.0121 -1.1564  0.3230
 3104SOL     OW16551   4.200  11.385   2.065  0.5810  0.0571 -0.1801
 3104SOL    HW116552   4.218  11.296   2.036 -0.1203 -0.2713  0.3513
 3104SOL    HW216553   4.128  11.375   2.127 -0.1544  1.1051 -0.8403
 3105SOL     OW16554   0.563   7.336  10.955  0.3230 -0.5471 -0.5053
 3105SOL    HW116555   0.526   7.248  10.958  0.0997 -0.4681 -0.8904
 3105SOL    HW216556   0.622   7.340  11.031 -0.1947 -0.7916 -0.0856
 3106SOL     OW16557   5.217   3.856   5.854  0.1729 -0.4393  0.3274
 3106SOL    HW116558   5.309   3.880   5.847  0.2558 -0.8040  0.1364
 3106SOL    HW216559   5.206   3.830   5.946  0.4519 -1.1753  0.1521
 3107SOL     OW16560   9.517   2.006   3.233 -0.1400  0.2931 -0.0923
 3107SOL    HW116561   9.567   2.041   3.159  0.5316 -1.1870 -0.3679
 3107SOL    HW216562   9.506   2.081   3.292  2.5975  0.6416  0.0796
 3108SOL     OW16563  10.606   5.512   1.956 -0.3024 -0.1952  0.0875
 3108SOL    HW116564  10.628   5.421   1.972 -0.8629 -0.4605 -0.6003
 3108SOL    HW216565  10.686   5.550   1.919 -0.4001 -0.6797 -0.6320
 3109SOL     OW16566   4.271   8.787   3.049 -0.6021 -0.5578  0.3488
 3109SOL    HW116567   4.219   8.751   2.977 -2.0903  0.5737  0.8152
 3109SOL    HW216568   4.330   8.850   3.007  0.0980 -1.4950 -0.1225
 3110SOL     OW16569   7.195   9.166  11.074  0.2548  0.2011  0.0542
 3110SOL    HW116570   7.116   9.161  11.019  0.6024  0.0309 -0.4341
 3110SOL    HW216571   7.175   9.236  11.137 -0.8798 -0.8390  0.9008
 3111SOL     OW16572   5.229   6.567   8.343 -0.0157  0.0084  0.0836
 3111SOL    HW116573   5.317   6.563   8.380  0.0476  0.0824 -0.0587
 3111SOL    HW216574   5.190   6.482   8.362 -0.4837  0.5230  1.5819
 3112SOL     OW16575   2.316   0.286   8.164 -0.1282 -0.2053  0.0953
 3112SOL    HW116576   2.320   0.191   8.153  1.1043 -0.1024 -0.5992
 3112SOL    HW216577   2.229   0.310   8.134 -0.9802 -1.2560  1.6018
 3113SOL     OW16578   4.378   5.870   3.763 -0.5862 -0.0189  0.0239
 3113SOL    HW116579   4.420   5.798   3.809 -1.4119  0.4592  1.6354
 3113SOL    HW216580   4.291   5.877   3.804 -0.5790  1.7824 -0.1802
 3114SOL     OW16581   4.404   5.550   3.699 -0.2761  0.3360  0.6507
 3114SOL    HW116582   4.471   5.531   3.765 -0.4132  0.7453  0.9177
 3114SOL    HW216583   4.453   5.581   3.623 -0.1367  0.2078  0.6877
 3115SOL     OW16584   0.511   5.173   8.867 -0.0219 -0.0023 -0.0330
 3115SOL    HW116585   0.510   5.122   8.786 -0.3380  1.3048 -0.8789
 3115SOL    HW216586   0.479   5.113   8.934 -0.8439 -0.7619 -1.0902
 3116SOL     OW16587   7.238   6.351   8.639  0.4332 -0.4216 -0.2437
 3116SOL    HW116588   7.330   6.364   8.614  0.1484 -1.3654 -1.8841
 3116SOL    HW216589   7.191   6.423   8.596  0.3000 -0.3269  0.0534
 3117SOL     OW16590   0.626   8.300   6.148  0.0564  0.2847  0.4764
 3117SOL    HW116591   0.633   8.212   6.109  0.9453  0.8800 -0.7715
 3117SOL    HW216592   0.565   8.346   6.091  1.2662  1.1253 -0.1831
 3118SOL     OW16593   7.123   6.584   3.091 -0.1732 -0.2538 -0.5142
 3118SOL    HW116594   7.045   6.536   3.062 -0.4380 -0.9193  1.1754
 3118SOL    HW216595   7.189   6.565   3.025 -1.8132  1.5988 -2.8702
 3119SOL     OW16596   2.563   1.891   2.269  0.1284 -0.1762 -0.0276
 3119SOL    HW116597   2.510   1.811   2.257  0.0093  0.0304 -0.9664
 3119SOL    HW216598   2.533   1.927   2.353  2.3245 -2.7092  2.0276
 3120SOL     OW16599   3.946   1.901   0.711 -0.3131 -0.4434 -0.6121
 3120SOL    HW116600   3.866   1.900   0.764 -0.4862  2.2257 -0.6883
 3120SOL    HW216601   4.017   1.896   0.775 -0.5245 -0.6031 -0.3864
 3121SOL     OW16602   1.586   6.421   9.105 -1.0063  0.3184 -0.2782
 3121SOL    HW116603   1.587   6.492   9.041 -1.5762  0.2717 -0.3475
 3121SOL    HW216604   1.676   6.389   9.108 -1.3497 -1.1495 -2.7134
 3122SOL     OW16605   4.682   5.777   2.730  0.6178 -0.0712 -0.2224
 3122SOL    HW116606   4.711   5.868   2.731 -1.8290  0.7934 -0.4044
 3122SOL    HW216607   4.714   5.742   2.647  1.7814  0.5272 -0.0507
 3123SOL     OW16608   0.545  10.632   2.447 -0.1800 -0.1723  0.3474
 3123SOL    HW116609   0.501  10.555   2.483  2.0172 -0.4036  2.8155
 3123SOL    HW216610   0.497  10.707   2.484 -2.8184 -0.1287 -2.6680
 3124SOL     OW16611   1.855   5.877   8.543 -0.5508 -0.4614 -0.0919
 3124SOL    HW116612   1.811   5.793   8.555  0.3506 -1.4707 -3.0393
 3124SOL    HW216613   1.834   5.903   8.454  0.8711  1.4312  0.0704
 3125SOL     OW16614   5.462   6.903  10.342 -0.6140 -0.1693  0.4462
 3125SOL    HW116615   5.518   6.967  10.386  0.2809 -1.9683  2.0467
 3125SOL    HW216616   5.399   6.876  10.408 -1.6225 -0.2253 -0.5150
 3126SOL     OW16617   0.389   2.569   3.672 -0.4669  0.0072  0.0555
 3126SOL    HW116618   0.367   2.660   3.693 -0.1505 -0.2529  1.6610
 3126SOL    HW216619   0.455   2.545   3.737  0.9298 -0.7693 -1.5926
 3127SOL     OW16620   5.899  10.168   9.609 -0.7670  0.0869  0.7654
 3127SOL    HW116621   5.935  10.144   9.523 -0.4020  0.9988  0.6491
 3127SOL    HW216622   5.813  10.205   9.589  0.4862  3.0961  0.4200
 3128SOL     OW16623  12.628  11.068   6.163 -0.0356  0.2149 -0.1701
 3128SOL    HW116624  12.623  11.029   6.250 -0.0097  0.7118  0.0598
 3128SOL    HW216625  12.720  11.089   6.151 -0.2558  1.6054  0.3524
 3129SOL     OW16626   3.709   9.454  10.937 -0.2182  0.2024  0.0682
 3129SOL    HW116627   3.691   9.369  10.896 -1.0531  0.1215  0.5864
 3129SOL    HW216628   3.801   9.472  10.914 -0.4542 -0.1512 -1.2744
 3130SOL     OW16629   7.901   3.805   9.462 -0.3910  0.8168  0.4329
 3130SOL    HW116630   7.974   3.836   9.517  0.7407 -0.2689 -0.4069
 3130SOL    HW216631   7.938   3.799   9.374 -1.0037 -1.3989  0.2860
 3131SOL     OW16632   7.021   9.892  12.592  0.0969  0.2141 -0.0836
 3131SOL    HW116633   6.975   9.833  12.651  0.0343 -0.3875 -0.7216
 3131SOL    HW216634   7.010   9.979  12.631 -0.1937 -0.1357  0.6221
 3132SOL     OW16635   7.401   3.619   9.007  0.3064 -0.1954  0.1939
 3132SOL    HW116636   7.393   3.554   9.078 -0.9158 -0.0851  0.1864
 3132SOL    HW216637   7.490   3.654   9.016  0.5139 -0.8957  1.0482
 3133SOL     OW16638   4.754   4.734  10.872  0.1824 -0.0085 -0.2060
 3133SOL    HW116639   4.685   4.791  10.906  2.9639  3.1237  0.7122
 3133SOL    HW216640   4.760   4.756  10.779  2.3596  2.7214  0.4582
 3134SOL     OW16641  10.786   0.039   9.928  0.3210  0.0123 -0.1432
 3134SOL    HW116642  10.738   0.027   9.846 -1.6327 -4.3548  1.3022
 3134SOL    HW216643  10.727   0.089   9.984 -0.9315 -1.8306  0.2830
 3135SOL     OW16644   2.252  12.587  10.150  0.1576  0.3887  0.2630
 3135SOL    HW116645   2.180  12.641  10.116 -0.9229  0.4077  2.3937
 3135SOL    HW216646   2.309  12.650  10.195 -0.8747 -0.0777  2.3737
 3136SOL     OW16647   7.791   3.411   8.932 -0.8211  0.7074 -0.0816
 3136SOL    HW116648   7.764   3.486   8.985  0.0700  1.7000 -0.9781
 3136SOL    HW216649   7.723   3.401   8.866 -2.2109 -0.8666  1.4920
 3137SOL     OW16650   4.206   6.423   8.881 -0.0357 -0.7558  0.1953
 3137SOL    HW116651   4.220   6.334   8.914 -1.9969 -2.4653 -3.0542
 3137SOL    HW216652   4.228   6.417   8.788  0.5022  2.4258  0.0243
 3138SOL     OW16653   4.076  10.479   2.751  0.3687  0.2671 -0.5110
 3138SOL    HW116654   4.053  10.386   2.761  1.0631  0.3093  2.4765
 3138SOL    HW216655   4.133  10.481   2.675  2.4366 -2.2740  0.7864
 3139SOL     OW16656   2.469   9.018  10.657  0.3550 -0.3105  0.3334
 3139SOL    HW116657   2.450   9.112  10.654 -1.1881 -0.4778  2.5893
 3139SOL    HW216658   2.485   9.000  10.749  1.3195 -2.1594 -0.1635
 3140SOL     OW16659   7.353   3.395   2.466  0.1273 -0.8861 -0.0935
 3140SOL    HW116660   7.276   3.447   2.487  0.6055 -0.3984  0.5248
 3140SOL    HW216661   7.413   3.456   2.424 -0.3882 -1.6107 -1.9612
 3141SOL     OW16662   2.178   3.816   8.374  0.4174  0.1820 -0.2810
 3141SOL    HW116663   2.204   3.763   8.450 -1.3144  1.2267  1.1333
 3141SOL    HW216664   2.205   3.765   8.298  1.6606 -1.1997  1.0239
 3142SOL     OW16665  11.160   5.176   3.593 -0.2596 -0.2603  0.1057
 3142SOL    HW116666  11.136   5.106   3.533 -0.4860 -2.0078  2.1051
 3142SOL    HW216667  11.233   5.141   3.644 -0.8410  0.6459  1.6521
 3143SOL     OW16668   9.148   2.117   4.806  0.8437  0.1557 -0.3454
 3143SOL    HW116669   9.225   2.158   4.846  0.3210  0.7710  0.0578
 3143SOL    HW216670   9.182   2.039   4.764  1.3760 -0.7608  1.6652
 3144SOL     OW16671   7.846   8.806   2.364 -0.5179 -0.2935 -0.3510
 3144SOL    HW116672   7.766   8.815   2.415 -0.2606 -0.3279  0.0648
 3144SOL    HW216673   7.913   8.781   2.428 -0.1865 -0.3128 -0.6998
 3145SOL     OW16674   5.444   5.765  11.387  0.0970 -0.2832  0.0335
 3145SOL    HW116675   5.539   5.766  11.396 -0.0002 -0.0174  1.0942
 3145SOL    HW216676   5.411   5.760  11.476 -0.8917  0.5176 -0.2641
 3146SOL     OW16677   7.526   8.283   6.654 -0.5890  0.0217  0.0779
 3146SOL    HW116678   7.482   8.354   6.607  0.5673  1.3537  0.9259
 3146SOL    HW216679   7.536   8.213   6.588 -0.5611  1.1608 -1.1687
 3147SOL     OW16680   2.920   0.058   1.572  0.8124 -0.3758 -0.1830
 3147SOL    HW116681   2.927  -0.029   1.534  0.4476 -0.9918  1.1100
 3147SOL    HW216682   2.883   0.044   1.659  0.0565  1.1324 -0.2147
 3148SOL     OW16683   8.674  12.700  11.311  0.1682  0.0099 -1.0699
 3148SOL    HW116684   8.683  12.623  11.367 -1.4570  0.8667  0.4712
 3148SOL    HW216685   8.680  12.775  11.371  0.3528  1.0572 -2.3328
 3149SOL     OW16686   3.659   1.876   2.514  0.4051 -0.1413  0.1678
 3149SOL    HW116687   3.709   1.844   2.589  2.0509  0.7210 -0.5078
 3149SOL    HW216688   3.690   1.823   2.440 -0.4253 -0.2695 -0.0975
 3150SOL     OW16689   2.913   3.704  10.876  0.3255 -0.0357 -0.3237
 3150SOL    HW116690   2.997   3.666  10.902  0.6526  0.8658 -0.0052
 3150SOL    HW216691   2.908   3.787  10.925 -1.5810 -0.9068  1.1112
 3151SOL     OW16692   3.863   0.886   6.714  0.0757  0.1179 -0.2238
 3151SOL    HW116693   3.795   0.823   6.738  0.4515 -0.2061 -0.0086
 3151SOL    HW216694   3.815   0.956   6.670 -0.3304 -0.3664 -0.5630
 3152SOL     OW16695   7.694   9.603   6.384 -0.0819  0.1670 -0.4569
 3152SOL    HW116696   7.706   9.681   6.437 -2.1296  0.1961  0.0751
 3152SOL    HW216697   7.746   9.535   6.428 -3.4220 -0.4278  3.1564
 3153SOL     OW16698   1.285   4.020   1.700  0.4323  0.1946 -0.1601
 3153SOL    HW116699   1.276   3.929   1.673  1.1718  0.5674 -1.7866
 3153SOL    HW216700   1.310   4.015   1.793 -0.2630 -1.2163 -0.0200
 3154SOL     OW16701   2.269  11.722   8.719  0.3915  0.1439 -0.2957
 3154SOL    HW116702   2.246  11.808   8.754 -0.9074 -0.5536  0.6415
 3154SOL    HW216703   2.253  11.729   8.625 -2.6631  0.0863  0.1228
 3155SOL     OW16704   2.832   4.239   2.909  0.1776  0.1652 -0.1763
 3155SOL    HW116705   2.849   4.277   2.995  2.4398 -1.3470  0.1464
 3155SOL    HW216706   2.826   4.314   2.850  0.4061  1.1629  1.0394
 3156SOL     OW16707   6.677   0.787   1.034  0.2979 -0.1131 -0.2079
 3156SOL    HW116708   6.692   0.699   0.999 -0.9996  0.4990 -2.5068
 3156SOL    HW216709   6.667   0.842   0.956 -3.1171  1.3120  1.0674
 3157SOL     OW16710   9.767   7.044  10.733  0.6442  0.0511 -0.6248
 3157SOL    HW116711   9.787   6.958  10.771  1.4796  1.5587  2.7943
 3157SOL    HW216712   9.829   7.053  10.661  1.4011 -1.7081 -0.2567
 3158SOL     OW16713   6.228   5.990  11.344 -0.4346 -0.1565  0.2946
 3158SOL    HW116714   6.186   5.925  11.287 -0.8903  0.3480  0.0469
 3158SOL    HW216715   6.181   6.071  11.326  1.2670  0.6584 -0.6848
 3159SOL     OW16716   4.990   5.941   8.247 -0.2826 -0.6028 -0.2140
 3159SOL    HW116717   4.975   5.870   8.185  1.1992 -1.8627  0.7839
 3159SOL    HW216718   4.969   6.020   8.199 -3.2984 -1.7236 -0.9831
 3160SOL     OW16719   7.226   9.447   7.313  0.3492 -0.1846  0.0198
 3160SOL    HW116720   7.305   9.431   7.365  1.0905  0.7374 -0.7909
 3160SOL    HW216721   7.245   9.410   7.227  0.5178  1.3302 -0.6413
 3161SOL     OW16722   0.540   6.878   5.666 -0.0926 -0.3278  0.7298
 3161SOL    HW116723   0.576   6.964   5.644 -0.0315 -0.2966  0.9510
 3161SOL    HW216724   0.551   6.871   5.761  1.1667 -1.1476  0.5370
 3162SOL     OW16725   3.178   2.332   8.523  0.3915 -0.2380  0.3527
 3162SOL    HW116726   3.181   2.369   8.435 -1.2565 -0.1332  0.3016
 3162SOL    HW216727   3.113   2.385   8.569  0.8332 -0.6345  1.4736
 3163SOL     OW16728   5.310  10.147   9.996 -0.0376 -0.0338 -0.6156
 3163SOL    HW116729   5.401  10.131   9.972  0.3804  0.6292  0.4387
 3163SOL    HW216730   5.290  10.233   9.960  0.1132  0.2945  0.0563
 3164SOL     OW16731  11.910  11.944   1.696 -0.0649 -0.5006  0.0606
 3164SOL    HW116732  11.851  12.019   1.695  0.7070  0.1356  0.9489
 3164SOL    HW216733  11.881  11.892   1.772 -1.4628 -1.8592 -1.3082
 3165SOL     OW16734   0.875   5.990   0.945  0.5492 -0.3030 -0.5570
 3165SOL    HW116735   0.891   5.910   0.896 -0.3515 -0.0418 -1.3203
 3165SOL    HW216736   0.873   6.059   0.878  1.0575  0.3126  0.0568
 3166SOL     OW16737   4.240   2.821   1.626 -0.1052  0.1624  0.0618
 3166SOL    HW116738   4.255   2.732   1.595 -1.5725 -0.3946  0.8418
 3166SOL    HW216739   4.315   2.839   1.683 -0.4105 -1.0991  0.9270
 3167SOL     OW16740   2.316  11.100   5.104 -0.1370 -0.0158 -0.1489
 3167SOL    HW116741   2.319  11.134   5.014 -0.1432  0.2216 -0.0618
 3167SOL    HW216742   2.407  11.103   5.133 -0.2641  0.8425  0.1900
 3168SOL     OW16743   7.289   9.204   7.176  0.2434 -0.3936 -0.3134
 3168SOL    HW116744   7.341   9.280   7.149 -1.0590  1.0587  1.0606
 3168SOL    HW216745   7.308   9.138   7.110  2.6958  0.5476 -0.6522
 3169SOL     OW16746  12.432   1.948   6.228 -0.1085  0.5429  0.2823
 3169SOL    HW116747  12.498   1.881   6.210 -0.3951 -0.1006  1.5289
 3169SOL    HW216748  12.349   1.901   6.224 -0.3500  0.9389  0.6156
 3170SOL     OW16749   7.273   9.121   8.628  0.1603  0.0658  0.1682
 3170SOL    HW116750   7.225   9.043   8.599 -0.0853 -0.0325  0.8257
 3170SOL    HW216751   7.316   9.153   8.549 -0.8512  0.0639 -0.4039
 3171SOL     OW16752   6.155   1.017  10.269  0.1393 -0.1952  0.0225
 3171SOL    HW116753   6.081   1.038  10.211  0.4955  0.1813 -0.3103
 3171SOL    HW216754   6.120   1.028  10.357 -0.7416 -1.8929 -0.0704
 3172SOL     OW16755   4.276   3.473   1.511  0.4934 -0.9105  0.4604
 3172SOL    HW116756   4.236   3.501   1.593  1.4600  2.1898 -0.0035
 3172SOL    HW216757   4.210   3.491   1.444  0.3847 -1.7055  0.3473
 3173SOL     OW16758   3.190   5.612   6.997 -0.2699 -0.2015 -0.1652
 3173SOL    HW116759   3.210   5.677   6.930  0.5075 -0.4428 -0.1749
 3173SOL    HW216760   3.202   5.528   6.954  0.8036 -0.3696  0.4019
 3174SOL     OW16761  11.391   3.098   0.213 -0.0134 -0.4631 -0.4508
 3174SOL    HW116762  11.449   3.027   0.239 -2.4326 -1.6577  2.3468
 3174SOL    HW216763  11.418   3.172   0.268 -0.0870 -0.5063 -0.3562
 3175SOL     OW16764   1.326  10.369   7.477 -0.1874  0.5246  0.3605
 3175SOL    HW116765   1.336  10.455   7.437 -0.5112  1.1420  1.5424
 3175SOL    HW216766   1.314  10.388   7.570 -0.6835 -0.7802  0.5775
 3176SOL     OW16767   2.679   9.425   0.660  0.0791 -0.1119  0.0798
 3176SOL    HW116768   2.716   9.394   0.577  1.3733  0.8241  0.2686
 3176SOL    HW216769   2.632   9.349   0.695  0.6815 -0.9405 -0.8450
 3177SOL     OW16770   5.925   9.456   6.363  0.0519  0.6368  0.1888
 3177SOL    HW116771   5.965   9.411   6.438  1.7064  0.3196 -0.8359
 3177SOL    HW216772   5.834   9.468   6.388  0.2948 -0.5307  1.7647
 3178SOL     OW16773   3.272   3.543   5.162  0.0556 -0.2107 -0.0342
 3178SOL    HW116774   3.340   3.481   5.137 -2.0383 -3.1097  0.9271
 3178SOL    HW216775   3.306   3.585   5.241  0.7365 -1.7173  0.5191
 3179SOL     OW16776   8.359   2.470   1.082  0.4787 -0.4843  0.2089
 3179SOL    HW116777   8.292   2.519   1.036  0.2092 -1.6706 -0.7069
 3179SOL    HW216778   8.372   2.391   1.030  2.3710 -0.4342  0.5300
 3180SOL     OW16779   1.123   8.602   8.350 -0.4314 -0.3105  0.1149
 3180SOL    HW116780   1.145   8.689   8.384 -3.2066  0.3052  0.5883
 3180SOL    HW216781   1.190   8.584   8.284  1.6836  1.0383  1.7384
 3181SOL     OW16782   6.631   9.077  10.543  0.4547 -0.1960  0.9197
 3181SOL    HW116783   6.639   9.087  10.637  0.2433 -1.3259  1.0712
 3181SOL    HW216784   6.718   9.051  10.513  0.1623 -1.3363  1.0230
 3182SOL     OW16785   2.134   6.348  11.108  0.2294  0.1869 -0.3922
 3182SOL    HW116786   2.127   6.427  11.055 -1.4524 -0.0391 -0.5331
 3182SOL    HW216787   2.204   6.297  11.065  1.8861  1.8787  0.1466
 3183SOL     OW16788   9.804   5.312   4.449  0.2602 -0.1411  0.4593
 3183SOL    HW116789   9.830   5.377   4.514  0.4291  0.2548  0.0069
 3183SOL    HW216790   9.886   5.283   4.410  0.2152 -0.9246  0.9306
 3184SOL     OW16791  11.214   3.037   4.225 -0.4019  0.2515  0.0025
 3184SOL    HW116792  11.169   3.042   4.140 -0.2753  1.6424 -0.0002
 3184SOL    HW216793  11.253   3.123   4.237 -0.4062  0.0726  1.4832
 3185SOL     OW16794  11.270  10.469   9.415  0.9648  0.1570 -0.3221
 3185SOL    HW116795  11.241  10.517   9.337 -1.3053 -2.6127 -1.3445
 3185SOL    HW216796  11.218  10.504   9.487  0.6139  0.4314 -0.7082
 3186SOL     OW16797   9.176   4.550  11.419 -0.2334  0.1394  0.6570
 3186SOL    HW116798   9.091   4.565  11.377 -0.7976 -1.0354  1.3396
 3186SOL    HW216799   9.171   4.602  11.500  0.4723  1.6148 -0.2129
 3187SOL     OW16800  12.041   5.854   5.549  0.2071  0.4466  0.1187
 3187SOL    HW116801  12.045   5.795   5.474 -0.6358  0.8218 -0.2392
 3187SOL    HW216802  12.024   5.940   5.511  4.2896  1.5623  0.3559
 3188SOL     OW16803   1.261   6.110   6.628 -0.2895  0.2201 -0.1474
 3188SOL    HW116804   1.275   6.064   6.710 -2.2737 -1.9274 -0.8955
 3188SOL    HW216805   1.349   6.122   6.592  0.4640 -0.9325  1.2087
 3189SOL     OW16806   4.815   2.638   2.189  0.6084 -0.0138 -0.3062
 3189SOL    HW116807   4.880   2.705   2.208  1.4855 -0.8445 -0.2623
 3189SOL    HW216808   4.779   2.662   2.104  1.0762  0.3978 -0.3930
 3190SOL     OW16809   8.099   4.273   3.822  0.2225 -0.1510  0.1538
 3190SOL    HW116810   8.100   4.311   3.734  1.7666 -0.8138 -0.1543
 3190SOL    HW216811   8.024   4.313   3.865 -0.8163 -0.1265 -1.5994
 3191SOL     OW16812   8.946  11.606   9.668  0.1758 -0.1899  0.4416
 3191SOL    HW116813   8.902  11.690   9.681  0.3796  0.0515 -0.3662
 3191SOL    HW216814   8.947  11.566   9.755  1.2624  1.2306  1.1291
 3192SOL     OW16815   9.480   7.319   1.891 -0.0688  0.2662 -0.5346
 3192SOL    HW116816   9.433   7.256   1.945  0.2943  0.4912  0.0460
 3192SOL    HW216817   9.543   7.359   1.950  0.7952  0.0398 -1.2822
 3193SOL     OW16818   8.392   8.668   5.775  0.0411 -0.1829  0.1696
 3193SOL    HW116819   8.484   8.692   5.784  0.0231 -0.5466  1.6323
 3193SOL    HW216820   8.389   8.609   5.700  0.8051  0.7301 -0.5999
 3194SOL     OW16821  11.153   8.491   7.109  0.0003 -0.1587  0.7444
 3194SOL    HW116822  11.197   8.530   7.034 -1.2851  0.7386  0.4107
 3194SOL    HW216823  11.179   8.545   7.183 -0.9970  0.7735  0.4420
 3195SOL     OW16824   3.349   8.500   3.088  0.0480 -1.2657 -0.3115
 3195SOL    HW116825   3.326   8.420   3.135 -2.0954 -1.3959 -1.4461
 3195SOL    HW216826   3.438   8.521   3.117  0.3756 -3.6295  0.5638
 3196SOL     OW16827   4.437   5.998   9.247  0.3936 -0.0792  0.2856
 3196SOL    HW116828   4.478   5.960   9.325  0.8935 -1.5009 -0.6365
 3196SOL    HW216829   4.494   6.071   9.223 -0.1753  0.8569  1.6575
 3197SOL     OW16830   7.600  10.290  11.806  0.2610  1.0813  0.0159
 3197SOL    HW116831   7.649  10.217  11.768 -0.8953  1.3755 -2.1687
 3197SOL    HW216832   7.667  10.348  11.842  1.3024 -0.1136  0.0700
 3198SOL     OW16833   7.775   9.904   3.776  0.3000 -0.3833 -0.1790
 3198SOL    HW116834   7.710   9.836   3.790  1.5791 -1.3611  1.3481
 3198SOL    HW216835   7.805   9.891   3.686  1.1128 -2.4226  0.3371
 3199SOL     OW16836  11.263   1.711   3.049 -0.2129 -0.3342  0.3745
 3199SOL    HW116837  11.249   1.672   2.963 -2.1438  0.5179  0.2497
 3199SOL    HW216838  11.278   1.803   3.032  1.1229 -0.4368  0.8709
 3200SOL     OW16839   1.749   8.571   6.588  0.0067 -0.1809  0.5625
 3200SOL    HW116840   1.707   8.485   6.577  0.5186 -0.3933  0.2194
 3200SOL    HW216841   1.715   8.604   6.672  0.6496 -1.2031  1.2390
 3201SOL     OW16842  11.947   3.916   3.843 -0.0011 -0.2829  1.0309
 3201SOL    HW116843  11.938   3.843   3.781  0.8334 -0.6368  1.3144
 3201SOL    HW216844  11.871   3.907   3.901 -0.5531 -0.2072  0.3338
 3202SOL     OW16845   7.041   3.222  10.670 -0.2387  0.6795  0.3502
 3202SOL    HW116846   7.119   3.176  10.638 -1.2699 -1.2298  0.4521
 3202SOL    HW216847   7.026   3.186  10.757 -1.4928  0.6864  0.1476
 3203SOL     OW16848   6.331   5.352   6.355 -0.5961 -0.2917  0.5114
 3203SOL    HW116849   6.418   5.312   6.362 -0.2389  0.5291  0.8475
 3203SOL    HW216850   6.326   5.412   6.429 -2.0891 -1.5074  1.4572
 3204SOL     OW16851   3.827   4.463   9.240  0.3402  0.0867  0.0156
 3204SOL    HW116852   3.836   4.386   9.296  0.0857 -1.3186 -1.7618
 3204SOL    HW216853   3.865   4.535   9.290 -1.8628 -0.5821  2.8802
 3205SOL     OW16854  12.585   7.089   3.747  0.0535  0.2886 -0.3627
 3205SOL    HW116855  12.528   7.136   3.686  0.3710  1.9003  0.5281
 3205SOL    HW216856  12.670   7.133   3.739  0.1734  0.3534  1.0293
 3206SOL     OW16857   4.385   7.404   4.522  0.4723 -0.5861  0.0981
 3206SOL    HW116858   4.369   7.343   4.449  2.3033  0.8574 -1.6093
 3206SOL    HW216859   4.362   7.490   4.487  1.3401  0.1422  1.2385
 3207SOL     OW16860  11.282   8.437   3.407 -0.0120  0.9841  0.1886
 3207SOL    HW116861  11.325   8.489   3.475  0.1224  1.2311 -0.0823
 3207SOL    HW216862  11.271   8.351   3.447 -2.2425  1.7857  1.4379
 3208SOL     OW16863   3.041   3.761   6.596  0.4931  0.7563 -0.3221
 3208SOL    HW116864   3.011   3.743   6.507  1.1950 -2.6439 -0.0225
 3208SOL    HW216865   3.135   3.749   6.593  0.8632  2.9926  0.4721
 3209SOL     OW16866  12.144   9.112   1.616 -0.0082 -0.4362 -0.7121
 3209SOL    HW116867  12.171   9.185   1.560  0.1461 -0.5777 -0.8228
 3209SOL    HW216868  12.087   9.152   1.681  0.0721 -0.2168 -0.7743
 3210SOL     OW16869   1.600   3.469  11.583  0.0965  0.2793  0.0749
 3210SOL    HW116870   1.673   3.424  11.626 -1.1772 -0.5531  1.4726
 3210SOL    HW216871   1.561   3.402  11.527 -0.5846  0.1973  0.6254
 3211SOL     OW16872   4.193   5.421   0.394  0.2446  0.3243  0.7020
 3211SOL    HW116873   4.234   5.502   0.426 -0.2178  1.3069 -1.0771
 3211SOL    HW216874   4.266   5.369   0.361  0.2153  2.4149 -3.2247
 3212SOL     OW16875   7.460   9.856   8.082  0.2029 -0.9292  0.5751
 3212SOL    HW116876   7.493   9.792   8.019  0.0947 -0.5555  0.1338
 3212SOL    HW216877   7.504   9.834   8.164  2.4454  0.2194 -0.2199
 3213SOL     OW16878   6.712   3.591   6.410 -0.1182  0.1937 -0.5128
 3213SOL    HW116879   6.793   3.574   6.363 -0.4167 -1.1804 -0.5716
 3213SOL    HW216880   6.733   3.665   6.468  1.2272 -0.2752 -0.3770
 3214SOL     OW16881   4.497   2.409   0.950 -0.8695  0.4854  0.1489
 3214SOL    HW116882   4.564   2.346   0.978 -1.2123 -0.0877 -0.3107
 3214SOL    HW216883   4.528   2.493   0.985  0.2139  0.2699 -0.2442
 3215SOL     OW16884   7.895  10.667   7.372 -0.3645 -0.0784 -0.5214
 3215SOL    HW116885   7.856  10.625   7.449  1.0148 -1.4290 -0.5259
 3215SOL    HW216886   7.914  10.756   7.401 -2.7466  0.4361 -0.3080
 3216SOL     OW16887   2.751  10.444   4.860  0.7332  0.2172 -0.0579
 3216SOL    HW116888   2.758  10.384   4.786  0.9543  0.1749 -0.0016
 3216SOL    HW216889   2.662  10.479   4.853  0.3096 -0.7355  0.3848
 3217SOL     OW16890   7.976  10.079   1.265 -0.1776  0.1063  0.3468
 3217SOL    HW116891   7.885  10.049   1.267 -0.8578  1.8238 -1.5370
 3217SOL    HW216892   8.008  10.053   1.179  1.0726 -0.2285  0.8834
 3218SOL     OW16893   6.111   2.614   0.995  0.3255  0.0589  0.1392
 3218SOL    HW116894   6.022   2.602   1.029  0.5242 -0.5588  0.4514
 3218SOL    HW216895   6.147   2.686   1.047  0.8639 -1.3160  1.7492
 3219SOL     OW16896   4.741   0.544   1.825  0.4214 -0.3622  0.4477
 3219SOL    HW116897   4.836   0.552   1.837  0.8550 -2.8502 -0.7107
 3219SOL    HW216898   4.731   0.487   1.749 -2.0368 -0.2589  0.6032
 3220SOL     OW16899   7.714   7.165  12.010 -0.1516  0.2843 -0.2712
 3220SOL    HW116900   7.626   7.203  12.008 -0.2839 -0.0519 -0.9611
 3220SOL    HW216901   7.731   7.138  11.920 -0.2363 -1.7086  0.2541
 3221SOL     OW16902   3.318   4.167   3.738  0.1347 -0.2495  0.1585
 3221SOL    HW116903   3.298   4.077   3.765 -0.5676 -0.2053 -0.2009
 3221SOL    HW216904   3.253   4.187   3.671  2.0407 -0.4628 -1.8646
 3222SOL     OW16905   6.299   9.816   6.310 -0.4334  0.6631 -0.4545
 3222SOL    HW116906   6.291   9.721   6.299  0.7390  0.7887 -2.9104
 3222SOL    HW216907   6.387   9.828   6.347 -0.8200  0.7862  0.4510
 3223SOL     OW16908   1.218   2.016   8.464 -0.4508  0.3320  0.4041
 3223SOL    HW116909   1.164   1.977   8.533 -0.4776 -3.6712 -1.5780
 3223SOL    HW216910   1.155   2.051   8.401 -0.4549  2.2828  1.4216
 3224SOL     OW16911   1.375   6.666   3.579 -0.0704 -0.3467  0.4319
 3224SOL    HW116912   1.394   6.573   3.567  0.3512 -0.2197  0.0900
 3224SOL    HW216913   1.281   6.674   3.562 -0.4626 -0.9780  2.0801
 3225SOL     OW16914  12.645  10.931  12.009 -0.3134 -0.1247 -0.6397
 3225SOL    HW116915  12.708  10.982  12.059  0.4027 -0.3634 -1.2786
 3225SOL    HW216916  12.665  10.951  11.917  0.9906 -2.6239 -1.0142
 3226SOL     OW16917  11.236   1.020   2.570 -0.1426  0.6933  0.7379
 3226SOL    HW116918  11.254   0.950   2.632 -0.5191  0.5359  0.6750
 3226SOL    HW216919  11.144   1.043   2.586 -1.1920 -1.3564 -1.7384
 3227SOL     OW16920   5.387   7.560   1.510 -0.2216  0.0659 -0.2140
 3227SOL    HW116921   5.386   7.517   1.596 -1.5159  0.1138 -0.1970
 3227SOL    HW216922   5.331   7.637   1.521  1.6302  1.5161 -0.3926
 3228SOL     OW16923   7.822   0.241  10.497 -0.2514  0.1994  0.2213
 3228SOL    HW116924   7.841   0.148  10.484  2.8278  0.6946  0.5100
 3228SOL    HW216925   7.793   0.271  10.411  1.4778 -0.4764 -0.6464
 3229SOL     OW16926  11.090   5.823   8.310  0.0098  0.0197  0.1398
 3229SOL    HW116927  11.069   5.775   8.391 -1.1224 -0.1483 -0.2370
 3229SOL    HW216928  11.149   5.764   8.262 -2.3497 -1.6509 -0.9004
 3230SOL     OW16929  10.767   5.774   7.543 -0.8693  0.1590 -0.8619
 3230SOL    HW116930  10.832   5.837   7.512 -0.9679  1.2026  0.8901
 3230SOL    HW216931  10.818   5.705   7.586 -0.8285 -0.1819 -1.4532
 3231SOL     OW16932  12.429   0.035   0.575  0.0759 -0.1285  0.7188
 3231SOL    HW116933  12.394  -0.037   0.628 -1.3422 -0.4801 -0.6300
 3231SOL    HW216934  12.359   0.100   0.573  0.3554  0.1649 -0.1608
 3232SOL     OW16935   8.000   8.879   7.849 -0.3817 -0.6025 -0.2620
 3232SOL    HW116936   8.039   8.799   7.813  1.4130 -0.4631  1.2234
 3232SOL    HW216937   7.983   8.858   7.941  0.4544  0.8085  0.2459
 3233SOL     OW16938   3.844   6.987  12.697 -0.6491 -0.5471 -0.4388
 3233SOL    HW116939   3.847   7.003  12.603 -0.7335 -0.0206 -0.3573
 3233SOL    HW216940   3.759   6.946  12.712 -0.9842  0.1236 -0.4835
 3234SOL     OW16941  10.688   0.971   9.434 -0.0698 -0.3975  0.4309
 3234SOL    HW116942  10.743   1.037   9.477  0.0141  2.9761 -4.1836
 3234SOL    HW216943  10.599   0.992   9.463  0.2278 -0.2627  1.2910
 3235SOL     OW16944   6.530   9.333  10.541  0.7870 -0.7940  0.9129
 3235SOL    HW116945   6.468   9.326  10.468 -0.5893  1.7478  1.6868
 3235SOL    HW216946   6.573   9.248  10.544 -1.7486 -2.2777 -0.5267
 3236SOL     OW16947   7.722   3.919   1.878 -0.5116  0.1525 -0.5222
 3236SOL    HW116948   7.715   3.944   1.786  1.9297  0.9855 -0.5254
 3236SOL    HW216949   7.634   3.933   1.913 -1.2584  0.6924 -2.4971
 3237SOL     OW16950   5.807  11.159  11.849 -0.1761  0.5601  0.2728
 3237SOL    HW116951   5.896  11.144  11.819 -0.7284  0.1406 -1.2630
 3237SOL    HW216952   5.794  11.254  11.840 -0.3915  0.4154 -1.0241
 3238SOL     OW16953   0.841   3.106   8.886  0.1922  0.3052  0.3283
 3238SOL    HW116954   0.754   3.129   8.854  0.2251  2.9298  1.8617
 3238SOL    HW216955   0.899   3.123   8.812 -0.4276 -0.3991 -0.3430
 3239SOL     OW16956   2.845   1.146   5.022  0.1864 -0.2274 -0.3099
 3239SOL    HW116957   2.865   1.234   5.054 -0.7427 -0.1871  0.2189
 3239SOL    HW216958   2.825   1.157   4.929  3.4767 -0.4214 -1.1399
 3240SOL     OW16959   3.114   5.603   9.037  0.0918 -0.3405 -0.5299
 3240SOL    HW116960   3.196   5.644   9.006  0.6329 -2.1906 -1.7673
 3240SOL    HW216961   3.048   5.671   9.027  1.3424  0.9611 -0.2545
 3241SOL     OW16962  10.043   9.182   4.876  0.8883 -0.5170  0.6588
 3241SOL    HW116963   9.953   9.156   4.897  0.8127 -0.4724  0.3866
 3241SOL    HW216964  10.039   9.213   4.786  0.4990  2.5090  1.5818
 3242SOL     OW16965   2.415   0.499  10.671 -0.2404 -0.7649 -0.4304
 3242SOL    HW116966   2.376   0.471  10.588 -1.1092  0.1243 -0.3386
 3242SOL    HW216967   2.343   0.537  10.720  0.1635 -1.7051  0.9483
 3243SOL     OW16968   1.568   9.898   0.993 -0.3620  0.1296 -1.0907
 3243SOL    HW116969   1.484   9.860   0.965 -1.2582  2.5146 -1.8835
 3243SOL    HW216970   1.545   9.960   1.062  1.0068 -0.4822 -0.0333
 3244SOL     OW16971   1.629   5.110   3.903  0.0165 -0.1438 -0.3147
 3244SOL    HW116972   1.647   5.197   3.869 -2.4639  0.3329 -0.6023
 3244SOL    HW216973   1.659   5.050   3.834  1.8313  0.4141 -0.0655
 3245SOL     OW16974   1.424   1.724   6.119 -0.1845 -0.4624  0.2266
 3245SOL    HW116975   1.332   1.747   6.129  0.0792  0.3624  0.8743
 3245SOL    HW216976   1.439   1.720   6.025 -0.2801  1.9231  0.0639
 3246SOL     OW16977   0.117  10.900   2.176 -0.4622 -0.3486  0.3128
 3246SOL    HW116978   0.108  10.867   2.086  0.1026 -0.8009  0.4111
 3246SOL    HW216979   0.109  10.995   2.168 -1.0764 -0.4370 -0.1247
 3247SOL     OW16980   4.759  11.849   6.273  0.5078 -0.2252 -0.2020
 3247SOL    HW116981   4.791  11.793   6.344 -1.1110  0.2290  0.9572
 3247SOL    HW216982   4.689  11.799   6.232 -0.1761  0.4626  0.0991
 3248SOL     OW16983   3.642   9.813   2.700 -0.1679  1.0425 -0.1653
 3248SOL    HW116984   3.661   9.799   2.793  1.6559  0.8321 -0.5442
 3248SOL    HW216985   3.561   9.764   2.684  0.8003 -0.9295  0.7610
 3249SOL     OW16986   4.275  10.740   9.841  0.0146  0.8654 -0.3730
 3249SOL    HW116987   4.250  10.743   9.749 -0.8071  0.1923 -0.1808
 3249SOL    HW216988   4.265  10.831   9.871 -0.7533  0.8895 -0.6837
 3250SOL     OW16989  11.839   5.975   4.433  0.3691 -0.5672 -0.7020
 3250SOL    HW116990  11.818   5.966   4.340 -1.8872  0.8787 -0.4305
 3250SOL    HW216991  11.762   6.018   4.470 -0.5818 -4.4853  2.6108
 3251SOL     OW16992   7.966   4.639   4.340  0.0946 -0.6909  0.2119
 3251SOL    HW116993   7.894   4.691   4.304 -0.3837 -0.8429  0.9215
 3251SOL    HW216994   8.003   4.594   4.265  0.4931  0.6311 -0.4138
 3252SOL     OW16995   4.663   4.261   4.748 -0.1365  0.1035  0.1067
 3252SOL    HW116996   4.637   4.201   4.678  0.9351  0.0688 -0.2740
 3252SOL    HW216997   4.754   4.281   4.730  0.1469  0.1398  1.4702
 3253SOL     OW16998   4.690  10.984   5.562  0.4220  0.2218  0.5960
 3253SOL    HW116999   4.729  10.901   5.590  1.6032 -0.3194 -2.2945
 3253SOL    HW217000   4.762  11.047   5.566  0.8880 -0.0733 -1.8075
 3254SOL     OW17001   2.054   7.381  10.053 -0.3517 -0.2285 -0.3577
 3254SOL    HW117002   2.096   7.401  10.137  0.0499 -0.0257 -0.6061
 3254SOL    HW217003   2.119   7.331  10.004 -1.3237 -2.2012  0.2355
 3255SOL     OW17004   3.682  11.259   2.601  0.3998 -0.9194  0.0454
 3255SOL    HW117005   3.646  11.171   2.610 -2.0924  0.2199  2.9743
 3255SOL    HW217006   3.711  11.282   2.690  2.7433  0.5999 -1.0010
 3256SOL     OW17007   0.327   5.167  12.147 -0.0014 -0.0204  0.5892
 3256SOL    HW117008   0.343   5.072  12.150 -0.0111 -0.0431  0.0828
 3256SOL    HW217009   0.294   5.189  12.234 -1.5183 -0.7551  0.2307
 3257SOL     OW17010   6.362   2.507   0.908 -0.4164  0.0076  0.1513
 3257SOL    HW117011   6.420   2.582   0.922 -0.9617  0.3949  0.3992
 3257SOL    HW217012   6.278   2.535   0.946 -0.7866 -0.5089 -0.2726
 3258SOL     OW17013   3.428   4.400   3.288  0.3847 -0.5289 -0.4202
 3258SOL    HW117014   3.505   4.353   3.255  0.3606 -0.8359 -0.0488
 3258SOL    HW217015   3.403   4.459   3.217  1.1726 -0.1697 -0.3994
 3259SOL     OW17016  10.064   8.761  11.070  0.6876  0.7715  0.5752
 3259SOL    HW117017  10.122   8.791  11.140  2.5252 -0.3307 -0.4119
 3259SOL    HW217018  10.120   8.756  10.993 -0.9862  0.6770 -0.6901
 3260SOL     OW17019   4.484  10.689   7.508 -0.5131 -0.0349  0.3091
 3260SOL    HW117020   4.476  10.771   7.460 -2.0397 -0.5194 -0.3195
 3260SOL    HW217021   4.403  10.683   7.560 -0.3482 -1.0523  0.4789
 3261SOL     OW17022   5.687   1.912   7.990 -0.0061 -0.3758  0.6323
 3261SOL    HW117023   5.687   1.886   7.898  0.7646 -1.6335  0.9661
 3261SOL    HW217024   5.598   1.944   8.006 -1.1503 -3.0901  0.2290
 3262SOL     OW17025   5.726   3.717   2.660  0.5433  0.1126  0.2710
 3262SOL    HW117026   5.745   3.663   2.584  1.2998  0.9779 -0.1662
 3262SOL    HW217027   5.749   3.662   2.735  1.5276 -0.0935 -0.1734
 3263SOL     OW17028   7.160   5.961   4.793 -0.3734  0.4184  0.4164
 3263SOL    HW117029   7.158   5.972   4.698  2.7044  0.4808  0.2417
 3263SOL    HW217030   7.073   5.989   4.823 -1.2942  0.7479 -2.3129
 3264SOL     OW17031  10.184   2.581   0.657 -0.0700  0.1160  0.0094
 3264SOL    HW117032  10.195   2.570   0.752 -0.9008 -1.7248 -0.0683
 3264SOL    HW217033  10.116   2.648   0.648 -1.1396 -0.8191  0.7807
 3265SOL     OW17034  11.727   0.467   9.547 -0.5677  0.1008 -0.1394
 3265SOL    HW117035  11.748   0.375   9.532  1.2409  0.7544 -2.2796
 3265SOL    HW217036  11.638   0.477   9.512  0.5380 -0.1903 -3.3761
 3266SOL     OW17037   9.511  10.182   4.933  0.2568 -0.4429  0.5498
 3266SOL    HW117038   9.606  10.187   4.924  0.3167 -1.2954  0.6519
 3266SOL    HW217039   9.493  10.090   4.951 -0.8199 -0.9845 -2.6349
 3267SOL     OW17040   7.342   0.137   4.361 -0.4995 -0.0437  0.0305
 3267SOL    HW117041   7.381   0.094   4.438  0.3713 -1.7024 -1.2498
 3267SOL    HW217042   7.286   0.070   4.322 -1.2072  0.8874 -0.5959
 3268SOL     OW17043   2.482  10.104   9.526  0.0411  0.4694  0.1192
 3268SOL    HW117044   2.427  10.043   9.575  1.1657  0.4675  1.4384
 3268SOL    HW217045   2.431  10.185   9.522 -0.6261  0.0568  0.1051
 3269SOL     OW17046   3.839   8.514   4.052 -0.5487  0.0015  0.0640
 3269SOL    HW117047   3.780   8.588   4.066  1.3684  1.8592 -1.0882
 3269SOL    HW217048   3.845   8.505   3.957  0.6075 -0.4573  0.1544
 3270SOL     OW17049   4.693   0.833   6.542 -0.1783 -0.2296  0.0506
 3270SOL    HW117050   4.609   0.787   6.546 -0.3838 -0.1689 -2.2854
 3270SOL    HW217051   4.726   0.830   6.632 -1.8463 -1.7878  0.6739
 3271SOL     OW17052   2.976   8.694   3.558  0.0251  0.1206 -0.3770
 3271SOL    HW117053   3.062   8.690   3.518  0.3652  0.6863  0.2761
 3271SOL    HW217054   2.921   8.738   3.493  0.5875  1.1058 -0.1960
 3272SOL     OW17055   8.745   8.421   9.755 -0.0572 -0.6552  0.0967
 3272SOL    HW117056   8.713   8.511   9.757  0.5359 -0.3914 -1.1273
 3272SOL    HW217057   8.840   8.429   9.764 -0.0887 -1.2465  1.0666
 3273SOL     OW17058   8.758  12.246   6.278 -0.2519  0.0380 -0.0564
 3273SOL    HW117059   8.767  12.335   6.313  0.6727  0.3337 -0.9993
 3273SOL    HW217060   8.834  12.199   6.312  0.1993  0.0983 -0.9502
 3274SOL     OW17061   0.737   6.697   2.371 -0.4663  0.2985 -0.1191
 3274SOL    HW117062   0.680   6.622   2.386 -0.2530  0.3703  1.1309
 3274SOL    HW217063   0.686   6.772   2.403 -0.9315  0.8028 -1.9136
 3275SOL     OW17064  10.435  12.211   4.010  0.5247 -0.2433  0.8606
 3275SOL    HW117065  10.439  12.225   4.105 -0.3978 -0.8889  0.9984
 3275SOL    HW217066  10.348  12.240   3.985  0.6482 -0.3857  0.2490
 3276SOL     OW17067   5.505   0.868   1.856 -0.0239  1.0597 -0.2916
 3276SOL    HW117068   5.489   0.908   1.770  1.9130  1.2072 -0.6246
 3276SOL    HW217069   5.435   0.804   1.866  0.1987  0.4112 -2.3817
 3277SOL     OW17070   4.919   4.534  10.087  0.0502  0.7323 -0.2969
 3277SOL    HW117071   4.928   4.629  10.081  0.2221  0.7589  0.3193
 3277SOL    HW217072   4.863   4.520  10.162  1.6902  0.2927  0.9116
 3278SOL     OW17073   3.425   9.738  10.016 -0.6628 -0.4881 -0.1240
 3278SOL    HW117074   3.348   9.791   9.998 -1.5383 -1.7612 -0.2407
 3278SOL    HW217075   3.392   9.663  10.066  0.6746 -0.4751  0.8605
 3279SOL     OW17076  11.190   4.959   6.226 -0.0849  0.2036  0.3498
 3279SOL    HW117077  11.150   5.001   6.303 -0.3344  1.0262 -0.2064
 3279SOL    HW217078  11.127   4.892   6.200 -0.7085  0.9164 -0.0082
 3280SOL     OW17079   1.088   3.291   9.594  0.2294  0.0235  0.5857
 3280SOL    HW117080   1.155   3.342   9.639  0.6772  1.8760 -1.9730
 3280SOL    HW217081   1.016   3.284   9.657  2.1406 -0.6975  2.8383
 3281SOL     OW17082   6.664   8.872   6.432 -0.3490 -0.1649  0.4172
 3281SOL    HW117083   6.716   8.795   6.409  0.3950  0.0921  1.1546
 3281SOL    HW217084   6.667   8.927   6.354 -0.5073 -0.6815  0.0426
 3282SOL     OW17085   9.931   0.033   7.427 -0.2369  0.3892  0.6720
 3282SOL    HW117086   9.998  -0.004   7.369  2.4144  1.4580  2.8760
 3282SOL    HW217087   9.854  -0.022   7.411  1.2046 -1.1548 -1.7125
 3283SOL     OW17088   6.717  11.428   1.805  0.6304  0.2922 -0.0329
 3283SOL    HW117089   6.644  11.479   1.770 -1.4596 -2.1239  0.5259
 3283SOL    HW217090   6.750  11.378   1.730 -0.5466 -1.1222  0.3581
 3284SOL     OW17091  11.376   7.034   1.212  0.0818 -0.1716 -0.7764
 3284SOL    HW117092  11.324   6.978   1.269  1.9960 -0.6339  0.6275
 3284SOL    HW217093  11.443   6.976   1.176 -0.3011  0.4029 -2.5188
 3285SOL     OW17094   1.625   6.204  10.672  0.3375 -0.1409  0.8358
 3285SOL    HW117095   1.534   6.185  10.695 -0.6394  1.2757 -1.5017
 3285SOL    HW217096   1.637   6.165  10.585  2.5149 -1.7015  1.7570
 3286SOL     OW17097   8.639   1.860  11.275  0.3024 -0.0400 -0.1905
 3286SOL    HW117098   8.687   1.905  11.345  1.5291 -2.7696  0.8587
 3286SOL    HW217099   8.705   1.844  11.208  0.1935 -1.2839 -0.0148
 3287SOL     OW17100  10.263   7.229   8.908  0.3136  0.0362 -0.1125
 3287SOL    HW117101  10.333   7.196   8.851  0.0945 -0.5300 -0.0672
 3287SOL    HW217102  10.236   7.152   8.959 -0.3217  0.2492 -0.1155
 3288SOL     OW17103  10.210   0.597   0.937 -0.3310  0.2230  0.1883
 3288SOL    HW117104  10.171   0.650   1.007 -0.1129  0.1119  0.3933
 3288SOL    HW217105  10.234   0.661   0.870 -0.7188  0.3105  0.1275
 3289SOL     OW17106  12.552   4.473   7.258  0.0098 -0.3799  0.7424
 3289SOL    HW117107  12.641   4.482   7.292  0.3841 -0.1993 -0.2558
 3289SOL    HW217108  12.538   4.553   7.207 -0.3506 -0.8728  0.0617
 3290SOL     OW17109   1.460  10.053  11.117 -0.1750 -0.4932  0.3725
 3290SOL    HW117110   1.471  10.135  11.167  0.2829 -0.9159  0.9806
 3290SOL    HW217111   1.548  10.016  11.114 -0.6342 -1.7440  1.4679
 3291SOL     OW17112   0.803   0.127   6.849  0.3415  0.1798 -0.4027
 3291SOL    HW117113   0.892   0.135   6.814  0.2905  0.1503 -0.5399
 3291SOL    HW217114   0.749   0.179   6.790  0.8712  3.9392  2.1226
 3292SOL     OW17115   7.021  11.309   5.213  0.7260  0.3414 -0.1659
 3292SOL    HW117116   7.053  11.354   5.290  0.1214 -0.0446  0.3213
 3292SOL    HW217117   7.011  11.217   5.240 -0.5228  0.3964 -0.3598
 3293SOL     OW17118  10.489   4.486  11.377 -0.4847 -0.0509 -0.4377
 3293SOL    HW117119  10.418   4.432  11.409 -1.0865 -0.5415 -2.4554
 3293SOL    HW217120  10.568   4.448  11.416 -1.1365 -0.6746  0.2995
 3294SOL     OW17121   7.964   1.360   3.781  0.4710 -0.2495 -0.3416
 3294SOL    HW117122   7.871   1.380   3.779  0.2972 -1.1028 -2.5063
 3294SOL    HW217123   7.968   1.270   3.813  0.7761  0.5313  2.0568
 3295SOL     OW17124   4.404  10.854  12.274  0.6401 -0.1049 -0.0511
 3295SOL    HW117125   4.375  10.915  12.342 -2.2976  0.1104 -1.3312
 3295SOL    HW217126   4.419  10.772  12.319  0.8724  0.5665  1.1349
 3296SOL     OW17127   5.748   5.321   6.881  0.2374  0.2764  0.5067
 3296SOL    HW117128   5.804   5.380   6.830 -0.5549 -0.1170 -0.8662
 3296SOL    HW217129   5.668   5.371   6.895 -0.7679 -0.7253 -1.3895
 3297SOL     OW17130   6.480   8.609   7.407 -0.1409  0.0719 -0.3529
 3297SOL    HW117131   6.433   8.567   7.478  2.5502 -1.5179  0.6394
 3297SOL    HW217132   6.413   8.659   7.360 -2.6141 -1.4834  1.2847
 3298SOL     OW17133   1.557   3.750  10.948  0.2421 -0.4627 -0.6599
 3298SOL    HW117134   1.585   3.661  10.929 -0.6063 -0.8085 -0.3203
 3298SOL    HW217135   1.507   3.777  10.871 -0.6279 -0.7682 -0.2113
 3299SOL     OW17136   1.720   3.773  10.049 -0.2811 -0.2889  0.1900
 3299SOL    HW117137   1.813   3.753  10.033 -0.8538 -3.5235  0.2973
 3299SOL    HW217138   1.687   3.801   9.963  1.0102  2.3579  0.4465
 3300SOL     OW17139   9.891  12.341   7.161  0.2442  0.0643 -0.1180
 3300SOL    HW117140   9.890  12.326   7.067 -0.0622 -0.1089 -0.0865
 3300SOL    HW217141   9.965  12.290   7.193 -0.9993 -1.7048  0.0464
 3301SOL     OW17142   0.661   5.954  12.456 -0.1028 -0.1130  0.3489
 3301SOL    HW117143   0.737   5.944  12.399 -0.8191 -0.4753 -0.5634
 3301SOL    HW217144   0.663   6.046  12.483 -0.2664  0.3072 -1.0030
 3302SOL     OW17145   8.631  11.128   5.640 -0.4389 -0.3696  0.1094
 3302SOL    HW117146   8.594  11.058   5.694  0.2709  0.6759  2.0263
 3302SOL    HW217147   8.725  11.113   5.642 -0.4100 -0.5047 -1.1715
 3303SOL     OW17148  12.474   3.186   7.610 -0.3813 -0.1862  0.4636
 3303SOL    HW117149  12.493   3.261   7.666 -0.1625 -1.7553  2.5965
 3303SOL    HW217150  12.396   3.146   7.649 -0.9979 -0.6158 -1.1339
 3304SOL     OW17151   3.006  11.278   9.868 -0.6094  0.4385  0.0975
 3304SOL    HW117152   3.041  11.357   9.909 -1.8535  2.1310 -1.8764
 3304SOL    HW217153   2.912  11.280   9.884 -0.6899 -0.5735 -0.1137
 3305SOL     OW17154  11.477   1.215   0.927  0.0323 -0.4646 -0.1732
 3305SOL    HW117155  11.523   1.296   0.905  0.7022 -0.7437  0.1556
 3305SOL    HW217156  11.419   1.199   0.853  0.6488 -0.2311 -0.7134
 3306SOL     OW17157   6.422   4.761   9.477 -0.1434  0.3770  0.7616
 3306SOL    HW117158   6.462   4.722   9.555 -1.6805 -2.1143  0.4237
 3306SOL    HW217159   6.493   4.766   9.414  0.2456 -1.6315  0.9647
 3307SOL     OW17160   2.120   4.688   5.719  0.1570 -0.2065 -0.0675
 3307SOL    HW117161   2.154   4.605   5.686 -0.4189 -0.7926  0.7536
 3307SOL    HW217162   2.025   4.679   5.714  0.0811  0.2495  0.3756
 3308SOL     OW17163   2.051   8.904   0.876 -0.0992 -0.3756  0.2923
 3308SOL    HW117164   2.011   8.991   0.866  1.5186  0.4631  0.7162
 3308SOL    HW217165   2.075   8.879   0.786  0.3748  0.0979  0.2828
 3309SOL     OW17166   3.331   5.967  11.441  0.1232 -0.4035  0.4106
 3309SOL    HW117167   3.317   5.955  11.535  0.8069 -1.0212  0.4418
 3309SOL    HW217168   3.387   5.894  11.416  1.1702  0.5683 -0.1809
 3310SOL     OW17169   9.912   1.309   4.198 -0.1951 -0.0465 -0.2513
 3310SOL    HW117170   9.873   1.295   4.285  0.0719  0.3012 -0.0714
 3310SOL    HW217171   9.855   1.373   4.156  0.4442  0.8469  0.2030
 3311SOL     OW17172   5.986   2.195   3.755  0.1656  0.0521 -0.4588
 3311SOL    HW117173   6.060   2.222   3.810 -1.2172  0.8243  1.1179
 3311SOL    HW217174   6.008   2.106   3.728  2.0615  0.5661 -0.7651
 3312SOL     OW17175   0.323  12.138  10.278 -0.4257 -0.0649  0.1923
 3312SOL    HW117176   0.365  12.058  10.245 -0.5014  0.2044 -0.5651
 3312SOL    HW217177   0.229  12.121  10.273 -0.4890  0.5493 -1.2427
 3313SOL     OW17178  11.562   5.710   6.688 -0.4915  0.0395 -0.1720
 3313SOL    HW117179  11.528   5.764   6.616 -1.7095 -0.2522  0.1613
 3313SOL    HW217180  11.620   5.647   6.645 -0.7739  0.2214 -0.8385
 3314SOL     OW17181   9.364   4.623   1.955  0.0993 -0.5441 -0.0951
 3314SOL    HW117182   9.387   4.696   1.898  1.8558 -1.1651 -0.2515
 3314SOL    HW217183   9.284   4.586   1.916  0.0643  0.3497 -0.8956
 3315SOL     OW17184   4.460   6.191   0.660  0.3005 -0.0097 -0.9788
 3315SOL    HW117185   4.399   6.126   0.693  1.2076 -0.2822  0.2305
 3315SOL    HW217186   4.415   6.231   0.585 -0.9394 -0.8601 -0.7107
 3316SOL     OW17187   8.062   2.233  11.196  0.8294  0.3821 -0.0080
 3316SOL    HW117188   8.021   2.176  11.261 -1.2676  0.9270 -0.7803
 3316SOL    HW217189   8.036   2.197  11.112  0.1182  1.9631 -0.5083
 3317SOL     OW17190   1.942   0.550  11.039  0.2706 -0.2481  0.3678
 3317SOL    HW117191   1.966   0.529  11.129 -1.9162  0.5513  1.2110
 3317SOL    HW217192   1.956   0.469  10.991 -0.2525 -1.2447  1.8251
 3318SOL     OW17193   3.391   8.146   3.751 -0.3786  0.0895 -0.3356
 3318SOL    HW117194   3.324   8.188   3.804  1.0420  1.0510  0.8031
 3318SOL    HW217195   3.473   8.190   3.777  0.6664 -0.9131 -1.7689
 3319SOL     OW17196   9.465   0.232   2.775  0.2945 -0.5695 -0.2659
 3319SOL    HW117197   9.515   0.280   2.708  1.2267  0.4679  1.0974
 3319SOL    HW217198   9.378   0.223   2.738 -0.1524  2.8695 -0.3815
 3320SOL     OW17199   6.249   1.922   1.380 -0.3710 -0.3567 -0.1707
 3320SOL    HW117200   6.257   1.921   1.475 -2.8839 -0.5016  0.1157
 3320SOL    HW217201   6.338   1.910   1.348  0.4729 -0.7969  2.1571
 3321SOL     OW17202   1.715   8.101  11.291 -0.1303 -0.1882  0.7633
 3321SOL    HW117203   1.641   8.071  11.343  0.7153 -0.6196  1.7621
 3321SOL    HW217204   1.676   8.140  11.212 -1.4255  0.2174  1.5848
 3322SOL     OW17205  12.588  10.141   7.235 -1.4653  0.2752 -0.4898
 3322SOL    HW117206  12.629  10.203   7.295 -0.0841  0.6428 -1.7749
 3322SOL    HW217207  12.641  10.061   7.242 -2.7067 -0.5061  0.4984
 3323SOL     OW17208   6.288  11.615   4.219 -0.2266  0.2155 -0.0714
 3323SOL    HW117209   6.376  11.595   4.251 -0.5235  0.0050  0.6392
 3323SOL    HW217210   6.250  11.529   4.198 -0.8482  0.1532  1.2269
 3324SOL     OW17211   3.066  11.525   3.516 -0.1510 -0.1172 -0.1486
 3324SOL    HW117212   3.060  11.479   3.600  4.7805 -0.8453  0.1202
 3324SOL    HW217213   3.073  11.618   3.540  0.8361 -0.2883  0.3016
 3325SOL     OW17214   7.868  12.223   2.823  0.1789  0.2914  0.2796
 3325SOL    HW117215   7.864  12.276   2.744 -3.1107  0.6774  0.5939
 3325SOL    HW217216   7.850  12.284   2.894  0.8189 -0.4748  1.1290
 3326SOL     OW17217   6.986   8.824   0.644  0.3071  0.3124 -0.1509
 3326SOL    HW117218   6.993   8.918   0.628 -0.8690  0.3191 -0.7504
 3326SOL    HW217219   6.997   8.784   0.558 -0.9328  0.0275 -0.1964
 3327SOL     OW17220   8.479   9.360  12.358  0.3895  0.3705  0.2398
 3327SOL    HW117221   8.470   9.410  12.276 -1.6562  0.3155  0.3798
 3327SOL    HW217222   8.406   9.299  12.357  0.7382 -0.1201  1.7965
 3328SOL     OW17223   2.490   8.579  11.425 -0.2722 -0.2068 -0.1806
 3328SOL    HW117224   2.441   8.497  11.424 -0.4511 -0.1137  0.5523
 3328SOL    HW217225   2.488   8.607  11.517 -1.0738  1.1422 -0.5873
 3329SOL     OW17226   9.608   4.732   4.988  0.3099 -0.6968  0.5248
 3329SOL    HW117227   9.528   4.783   5.002  0.6060 -0.1924  0.3739
 3329SOL    HW217228   9.632   4.700   5.076  0.2624 -0.3738  0.6558
 3330SOL     OW17229   7.535  10.496   4.840  0.1892  0.5179  0.1346
 3330SOL    HW117230   7.593  10.430   4.801  0.2183  1.2333 -1.0993
 3330SOL    HW217231   7.449  10.454   4.842  0.6819 -0.4742  1.7823
 3331SOL     OW17232   7.213  10.311   0.142  0.1127 -0.0883  0.4665
 3331SOL    HW117233   7.121  10.307   0.117  0.4204 -0.3970 -0.7025
 3331SOL    HW217234   7.220  10.390   0.196 -0.9037 -0.2951  0.9199
 3332SOL     OW17235   1.330   2.089   6.570 -0.0323 -0.3416 -0.4931
 3332SOL    HW117236   1.395   2.154   6.598  0.1586 -0.9014  0.4278
 3332SOL    HW217237   1.383   2.012   6.546 -0.1737  0.1391 -2.5920
 3333SOL     OW17238   7.000   7.985   4.716 -0.1754  0.5423 -0.5674
 3333SOL    HW117239   7.021   7.911   4.659  0.3852  0.1149  0.1866
 3333SOL    HW217240   6.957   8.048   4.658 -2.0223 -0.9743 -0.9194
 3334SOL     OW17241  11.244   6.815   1.359 -0.2162  0.3735  0.5075
 3334SOL    HW117242  11.154   6.794   1.335 -0.0385 -0.0087  0.1757
 3334SOL    HW217243  11.240   6.837   1.452 -0.8290  1.3858  0.2521
 3335SOL     OW17244   1.415   1.357   6.082  0.2861 -0.7908  0.4791
 3335SOL    HW117245   1.452   1.271   6.068  1.0520 -0.6202  1.3374
 3335SOL    HW217246   1.427   1.374   6.176 -2.0603 -0.7643  0.8449
 3336SOL     OW17247   3.252   4.422   5.755  0.2217  0.4241 -0.1389
 3336SOL    HW117248   3.210   4.339   5.776  1.3438 -0.0422  0.3247
 3336SOL    HW217249   3.333   4.423   5.807  0.2970  1.7463 -0.2254
 3337SOL     OW17250   0.546   9.878   6.303 -0.3555 -0.2094 -0.0510
 3337SOL    HW117251   0.507   9.953   6.347  0.9265  0.3678  0.1619
 3337SOL    HW217252   0.482   9.808   6.312 -0.9085  0.4208  1.1174
 3338SOL     OW17253   6.998  11.903  11.150 -0.3875  0.2038  0.2734
 3338SOL    HW117254   6.912  11.864  11.164 -0.8020  0.7210 -0.7044
 3338SOL    HW217255   7.034  11.855  11.076 -0.5584  1.0961 -0.4099
 3339SOL     OW17256   5.510   6.204  12.636 -0.4626 -0.2102  0.0621
 3339SOL    HW117257   5.547   6.173  12.554 -2.2471  1.4697 -1.4752
 3339SOL    HW217258   5.586   6.230  12.689  0.6988 -0.6955 -1.3114
 3340SOL     OW17259   8.701  10.548   4.796 -0.2440  0.2016  0.1445
 3340SOL    HW117260   8.793  10.566   4.816 -0.2411  0.4998 -0.1307
 3340SOL    HW217261   8.700  10.457   4.766  0.0960  0.4438 -0.6410
 3341SOL     OW17262  11.365   6.174   0.083 -0.0191  0.1392 -0.6305
 3341SOL    HW117263  11.374   6.082   0.106 -0.3612 -0.3048 -2.1678
 3341SOL    HW217264  11.436   6.218   0.130 -0.2090 -0.8090  0.5748
 3342SOL     OW17265  12.367   0.348   6.908  0.2885  0.2989 -0.0041
 3342SOL    HW117266  12.376   0.306   6.822 -0.8413 -1.0944  0.5231
 3342SOL    HW217267  12.352   0.276   6.969  2.1625  1.1364  1.5845
 3343SOL     OW17268   7.938  12.374  10.110 -0.0051 -0.2818  0.0509
 3343SOL    HW117269   7.947  12.344  10.019  0.6028 -1.1069  0.3703
 3343SOL    HW217270   7.845  12.396  10.118 -0.5168 -2.1763 -0.1974
 3344SOL     OW17271  12.115   3.639   2.347 -0.0669  0.1158  0.1722
 3344SOL    HW117272  12.171   3.571   2.385 -0.9015 -0.5047  0.3241
 3344SOL    HW217273  12.090   3.604   2.262  1.8093  1.5048 -1.0392
 3345SOL     OW17274   7.694   6.546  10.667 -0.5859  0.0727  0.5789
 3345SOL    HW117275   7.745   6.482  10.715  1.9699  1.5189 -0.0464
 3345SOL    HW217276   7.737   6.630  10.685 -2.4062  1.2992 -0.4690
 3346SOL     OW17277   6.641   6.640   1.949 -0.5407 -0.1631  0.0985
 3346SOL    HW117278   6.617   6.591   1.871 -1.1738  0.7178 -0.2822
 3346SOL    HW217279   6.567   6.699   1.964  0.0031  0.3672  0.7920
 3347SOL     OW17280   0.642  11.127   1.201 -0.1360  0.4852 -0.2217
 3347SOL    HW117281   0.577  11.146   1.133  0.8230  0.6417 -1.1208
 3347SOL    HW217282   0.623  11.037   1.228 -0.0699  0.1516 -1.2407
 3348SOL     OW17283   2.366  12.369  12.535  0.2597  1.4047 -0.1624
 3348SOL    HW117284   2.380  12.389  12.442  0.8533  0.0832 -0.3906
 3348SOL    HW217285   2.445  12.401  12.579  1.3981 -0.6337 -0.5831
 3349SOL     OW17286  11.027   0.991   1.393 -0.4630  0.7740  0.8901
 3349SOL    HW117287  11.065   1.077   1.374  0.0619  0.3738  0.0124
 3349SOL    HW217288  10.944   0.990   1.344  0.6455 -0.0632 -1.1246
 3350SOL     OW17289   0.845  10.192   6.592  0.5018  0.3590  0.2966
 3350SOL    HW117290   0.862  10.224   6.681  2.8496  1.1730 -0.3767
 3350SOL    HW217291   0.856  10.097   6.600  0.0839  0.3595  0.9955
 3351SOL     OW17292   9.383   1.872   2.456  0.3959  0.0535  0.2211
 3351SOL    HW117293   9.336   1.864   2.373  0.0162  1.0144  0.3317
 3351SOL    HW217294   9.328   1.827   2.519  0.6891 -0.6883 -0.0402
 3352SOL     OW17295   8.854   1.347   6.044 -0.0566 -0.3145 -0.4023
 3352SOL    HW117296   8.833   1.354   6.138  0.6695 -1.2458 -0.1578
 3352SOL    HW217297   8.925   1.409   6.031  0.6943 -1.0862 -0.0537
 3353SOL     OW17298   9.809  10.384   7.434  0.8764 -0.2173  0.4772
 3353SOL    HW117299   9.832  10.473   7.407  1.6864 -0.5605  0.0326
 3353SOL    HW217300   9.844  10.376   7.523  2.3066 -0.6596 -0.1100
 3354SOL     OW17301   2.105   0.658   3.357  0.2770  0.2401 -0.1102
 3354SOL    HW117302   2.192   0.620   3.351 -0.0457 -0.6043  0.5019
 3354SOL    HW217303   2.063   0.636   3.274  0.4348  0.1341 -0.1614
 3355SOL     OW17304   0.670   8.609   3.999 -0.0971  0.0592  0.1669
 3355SOL    HW117305   0.660   8.528   3.948 -1.3970 -0.3754  1.0595
 3355SOL    HW217306   0.708   8.580   4.082  1.7379  0.7250 -0.3954
 3356SOL     OW17307   8.260  11.403  12.111 -0.6788 -0.2263  0.6581
 3356SOL    HW117308   8.171  11.413  12.146 -1.0439 -1.0455 -0.0046
 3356SOL    HW217309   8.277  11.309  12.116  0.9471  0.0917  2.6421
 3357SOL     OW17310  12.240   1.614  10.450 -0.3540  0.1771 -0.2460
 3357SOL    HW117311  12.270   1.541  10.396  0.2518  0.2572 -0.0236
 3357SOL    HW217312  12.304   1.619  10.521 -0.2269  1.0960 -0.4150
 3358SOL     OW17313   8.033   0.608  10.123  0.1665  0.2408 -0.0095
 3358SOL    HW117314   8.080   0.635  10.044 -0.8674  0.1814 -0.6570
 3358SOL    HW217315   8.102   0.585  10.185  0.9930  0.2065 -0.9176
 3359SOL     OW17316   6.369  12.283   7.426 -0.3019  0.2015 -1.1665
 3359SOL    HW117317   6.432  12.297   7.496 -0.1151 -1.4696 -0.9658
 3359SOL    HW217318   6.353  12.370   7.390  0.8407  0.8643 -0.1240
 3360SOL     OW17319   3.777   1.058   9.874 -0.1593 -0.5772 -0.2499
 3360SOL    HW117320   3.785   0.993   9.803  1.5501 -0.8531  0.1618
 3360SOL    HW217321   3.794   1.142   9.831  2.9830 -0.9176  0.1228
 3361SOL     OW17322   7.346   3.509   8.758 -0.1936 -0.1614 -0.1753
 3361SOL    HW117323   7.322   3.565   8.684 -1.2705 -1.5268 -0.9110
 3361SOL    HW217324   7.380   3.569   8.823  0.0373  1.1754 -1.4797
 3362SOL     OW17325  12.400   8.799   8.671 -0.0525 -0.2282 -0.3786
 3362SOL    HW117326  12.414   8.713   8.631 -1.0877  0.2490 -1.8283
 3362SOL    HW217327  12.338   8.782   8.742  1.3172 -0.9822  0.6790
 3363SOL     OW17328   4.129   4.351  10.978 -0.4622 -0.7562 -0.7567
 3363SOL    HW117329   4.043   4.368  11.016 -0.8584 -0.0962 -1.8692
 3363SOL    HW217330   4.168   4.438  10.967 -0.6931 -0.8275 -2.5139
 3364SOL     OW17331   7.242  11.119   3.334 -0.7353 -0.2649  0.6177
 3364SOL    HW117332   7.244  11.039   3.386  1.4980 -0.1143  0.8518
 3364SOL    HW217333   7.216  11.091   3.247  1.9602 -1.6552  0.1550
 3365SOL     OW17334   8.899   6.056   8.976 -0.2723 -0.6825  0.4021
 3365SOL    HW117335   8.808   6.047   8.950  0.2334 -1.6230 -1.1472
 3365SOL    HW217336   8.943   5.981   8.936  1.4722  0.6435 -0.2982
 3366SOL     OW17337   8.383  11.871   5.141 -0.0658 -0.1439  0.9109
 3366SOL    HW117338   8.330  11.830   5.072  1.2104  0.4519 -0.4976
 3366SOL    HW217339   8.359  11.825   5.221 -3.6842  1.0026  0.6509
 3367SOL     OW17340   4.561   0.904   1.925 -0.0708 -0.4101 -0.9974
 3367SOL    HW117341   4.522   0.986   1.896  3.5192  1.4182 -1.2383
 3367SOL    HW217342   4.541   0.899   2.019 -1.1794  0.1900 -1.1890
 3368SOL     OW17343  11.162   8.710   3.710  0.2608  0.0566 -0.4136
 3368SOL    HW117344  11.191   8.643   3.772 -2.0057 -2.5773 -1.9255
 3368SOL    HW217345  11.207   8.688   3.628 -1.3154 -0.4054 -1.2054
 3369SOL     OW17346   3.275   9.975   5.358  0.8277 -0.0176  0.4670
 3369SOL    HW117347   3.253  10.068   5.353  0.7790  0.0264  1.3829
 3369SOL    HW217348   3.278   9.955   5.452  2.2852 -0.5944  0.3267
 3370SOL     OW17349   1.179   5.347   6.539  0.1052  0.0331  0.3701
 3370SOL    HW117350   1.120   5.391   6.601 -0.1507  0.7609 -0.3666
 3370SOL    HW217351   1.251   5.409   6.528 -0.2160  0.2518 -0.6124
 3371SOL     OW17352   1.644   1.757   3.411 -0.0726  0.2794 -0.2420
 3371SOL    HW117353   1.585   1.789   3.343 -0.9093 -0.4884  0.1043
 3371SOL    HW217354   1.689   1.683   3.371  0.8373  0.9838 -0.5736
 3372SOL     OW17355  10.359   9.858   8.235 -0.2831  0.6649  0.5826
 3372SOL    HW117356  10.442   9.906   8.225  0.3722  0.1842  2.9674
 3372SOL    HW217357  10.382   9.767   8.217 -1.0365  0.8765 -1.7508
 3373SOL     OW17358   6.450   2.071  10.014  0.7283 -0.0805 -0.2410
 3373SOL    HW117359   6.494   2.146   9.973  1.6129 -0.9589 -0.9653
 3373SOL    HW217360   6.483   1.995   9.966 -0.1362 -0.9440  0.4857
 3374SOL     OW17361   1.361  10.806   2.697 -0.2262  0.4382 -0.4275
 3374SOL    HW117362   1.412  10.732   2.730 -0.0517  0.2576 -1.0854
 3374SOL    HW217363   1.427  10.870   2.671 -0.2551 -0.2371 -2.3285
 3375SOL     OW17364   5.534   0.268   1.517 -0.0248  0.5793 -0.1862
 3375SOL    HW117365   5.472   0.251   1.588 -0.2634  1.5291 -0.1442
 3375SOL    HW217366   5.590   0.338   1.551 -0.5500  1.4927 -1.1529
 3376SOL     OW17367   2.334   2.567   0.516  0.1493  0.3319 -0.3079
 3376SOL    HW117368   2.360   2.475   0.515 -0.5619  0.1157  0.2700
 3376SOL    HW217369   2.238   2.564   0.512  0.0754  1.0136  0.6613
 3377SOL     OW17370   7.482   7.755   9.576 -0.0023  0.2380  0.1435
 3377SOL    HW117371   7.482   7.780   9.669 -1.0542 -0.2945  0.2975
 3377SOL    HW217372   7.412   7.691   9.569 -1.9266  2.3980 -1.5940
 3378SOL     OW17373  10.635   6.542   2.777  0.1800 -0.4950 -0.1997
 3378SOL    HW117374  10.666   6.453   2.762  1.9719  0.0299  0.1141
 3378SOL    HW217375  10.715   6.595   2.777 -0.6384  0.8391  1.5459
 3379SOL     OW17376   2.894   2.150   0.871  0.1266 -0.7010  0.7761
 3379SOL    HW117377   2.879   2.169   0.964  1.0884 -1.8482  1.1822
 3379SOL    HW217378   2.958   2.216   0.843  3.4653 -3.0913  2.1884
 3380SOL     OW17379   6.855   5.371  12.519  0.3479 -0.6403  0.1773
 3380SOL    HW117380   6.946   5.364  12.490 -0.3889 -2.9576 -1.8741
 3380SOL    HW217381   6.809   5.410  12.445 -0.3018  1.2620  1.4872
 3381SOL     OW17382  10.950   6.689   5.927 -0.4177  0.2174  0.2223
 3381SOL    HW117383  10.976   6.692   5.835 -1.0332 -2.2416 -0.0874
 3381SOL    HW217384  10.939   6.596   5.946  1.5418  0.4945  3.3368
 3382SOL     OW17385   6.309   0.743   0.409 -0.3092  0.3175 -0.2281
 3382SOL    HW117386   6.310   0.657   0.450  1.1895  0.0940 -0.6765
 3382SOL    HW217387   6.325   0.804   0.481 -3.2128  0.4619  0.4394
 3383SOL     OW17388   2.758   2.177   9.568 -0.0483 -0.3966  0.1418
 3383SOL    HW117389   2.727   2.268   9.568  0.7005 -0.1047 -0.9814
 3383SOL    HW217390   2.681   2.125   9.590 -0.8481  0.4239 -0.5995
 3384SOL     OW17391   9.659   3.628   2.376 -0.1527 -0.4136  0.2178
 3384SOL    HW117392   9.696   3.712   2.349 -1.6160 -0.9001 -4.0347
 3384SOL    HW217393   9.735   3.575   2.402  0.8607  1.8519  2.2003
 3385SOL     OW17394   2.880   7.311   4.570 -0.5232  0.2062  0.3378
 3385SOL    HW117395   2.801   7.277   4.612 -1.0574 -1.7721 -2.0853
 3385SOL    HW217396   2.870   7.406   4.574 -1.2988  0.0851  3.1070
 3386SOL     OW17397   9.931   0.234  11.587 -0.2970  0.0950  0.3542
 3386SOL    HW117398   9.940   0.242  11.682  0.1174 -0.7256  0.3838
 3386SOL    HW217399   9.893   0.148  11.573 -1.0618  0.5021 -0.1985
 3387SOL     OW17400   8.134   5.555   9.296  0.2755 -0.8890  0.8089
 3387SOL    HW117401   8.187   5.574   9.374  1.4576  0.7483 -0.3193
 3387SOL    HW217402   8.171   5.475   9.261  1.4105 -0.2806  0.5697
 3388SOL     OW17403  12.154  10.399   9.866 -0.0686  0.3519  0.3858
 3388SOL    HW117404  12.181  10.314   9.900 -0.7872  0.3095  0.8662
 3388SOL    HW217405  12.062  10.388   9.842  0.3690  0.4008 -1.5256
 3389SOL     OW17406   9.454  10.953   2.925  0.1103  0.1150  0.2037
 3389SOL    HW117407   9.508  10.987   2.996  0.9262  0.8369 -0.7382
 3389SOL    HW217408   9.377  11.011   2.924  0.1841  0.2162  0.3815
 3390SOL     OW17409   4.175  11.702   4.813  0.4064 -0.2635  0.1140
 3390SOL    HW117410   4.214  11.659   4.737 -1.8559  0.3495 -1.4956
 3390SOL    HW217411   4.177  11.636   4.882  2.2580 -0.9376 -0.5381
 3391SOL     OW17412  10.826   7.366   7.014  0.1145 -0.2787 -0.2146
 3391SOL    HW117413  10.904   7.377   6.961  0.0967 -1.7531 -0.5905
 3391SOL    HW217414  10.756   7.348   6.951 -0.9634  2.7263 -0.0441
 3392SOL     OW17415  12.081   1.053   8.604  0.3618 -0.6493  0.0876
 3392SOL    HW117416  12.122   1.062   8.517  1.6268  0.3759  0.7550
 3392SOL    HW217417  12.153   1.065   8.666 -0.9760  1.7014  1.3378
 3393SOL     OW17418   3.047   9.838   5.674  0.2972 -0.3974 -0.0865
 3393SOL    HW117419   3.001   9.902   5.620  0.0763 -1.0433 -0.6788
 3393SOL    HW217420   3.021   9.753   5.638 -0.6462 -0.8918  1.6452
 3394SOL     OW17421   8.144  11.029  10.695 -0.3327 -0.0682  0.0386
 3394SOL    HW117422   8.219  10.973  10.677 -0.4570  0.0167 -0.7970
 3394SOL    HW217423   8.115  11.058  10.608 -0.9181  0.4335  0.3966
 3395SOL     OW17424   6.354  11.717  11.115 -0.0022 -0.1172 -0.3200
 3395SOL    HW117425   6.414  11.644  11.101 -0.8224 -0.5573 -1.7884
 3395SOL    HW217426   6.394  11.769  11.184  0.6181 -1.9511  0.7703
 3396SOL     OW17427   6.528  11.242   1.222 -0.5470 -0.1329  0.4864
 3396SOL    HW117428   6.488  11.230   1.308 -4.0658 -0.5873 -1.0505
 3396SOL    HW217429   6.478  11.312   1.182  2.9037  2.1584 -0.2857
 3397SOL     OW17430   2.108   8.798   3.883 -0.1631  0.4574 -0.1378
 3397SOL    HW117431   2.172   8.731   3.908 -0.5704 -0.5642 -1.6732
 3397SOL    HW217432   2.069   8.764   3.802 -0.6393  2.3927 -0.7675
 3398SOL     OW17433   3.631   9.383   7.015 -0.3788 -0.4972  0.3932
 3398SOL    HW117434   3.635   9.348   6.925 -0.6685 -2.2231  1.0074
 3398SOL    HW217435   3.580   9.463   7.008  0.6329  0.0536 -1.1706
 3399SOL     OW17436   6.090   6.535  10.520 -0.3136 -0.0699 -0.7051
 3399SOL    HW117437   6.114   6.506  10.433  1.4596  1.4404 -0.7608
 3399SOL    HW217438   6.122   6.625  10.526 -0.3255 -0.1545  1.5245
 3400SOL     OW17439  10.282   5.708   0.022 -0.2311 -0.1593 -0.0472
 3400SOL    HW117440  10.205   5.764   0.015  0.2865  0.5511 -0.1115
 3400SOL    HW217441  10.290   5.691   0.116 -0.0940  0.2899  0.0216
 3401SOL     OW17442   7.584  10.453  11.209 -0.3609 -0.5483 -0.3477
 3401SOL    HW117443   7.609  10.535  11.251  1.5373 -2.3534  2.3397
 3401SOL    HW217444   7.488  10.451  11.216 -0.4105  1.1625 -0.0328
 3402SOL     OW17445   0.653   9.750   6.036 -0.1029  0.3207  0.1162
 3402SOL    HW117446   0.624   9.779   5.950 -1.4059  0.1037  0.4597
 3402SOL    HW217447   0.593   9.792   6.098  0.4556  0.0243  0.8891
 3403SOL     OW17448  12.475   3.234   0.009 -0.2255 -0.0510  0.6322
 3403SOL    HW117449  12.398   3.265   0.058 -0.6010 -1.7970  1.2418
 3403SOL    HW217450  12.530   3.193   0.075  0.2575 -0.6109 -0.1014
 3404SOL     OW17451   5.093   2.771   1.579  0.1492 -0.1464  0.0554
 3404SOL    HW117452   5.183   2.756   1.606  0.1238  0.2506  0.3617
 3404SOL    HW217453   5.097   2.777   1.483  0.4124 -0.3485  0.0529
 3405SOL     OW17454   3.419  11.295   3.002  0.1701 -0.4100 -0.3603
 3405SOL    HW117455   3.384  11.360   3.064  0.8330 -2.0999  1.9159
 3405SOL    HW217456   3.406  11.335   2.916 -0.9202  2.0179  0.8270
 3406SOL     OW17457   4.380  10.265   8.329  0.1268 -0.0477 -0.0774
 3406SOL    HW117458   4.441  10.337   8.314 -1.1031  0.8163 -1.1147
 3406SOL    HW217459   4.373  10.222   8.244 -0.9803  0.0969 -0.0703
 3407SOL     OW17460   9.992   9.035   7.641  0.0653 -0.2452  0.0027
 3407SOL    HW117461  10.073   9.001   7.679  2.7126  2.7178 -2.3704
 3407SOL    HW217462   9.988   9.126   7.672 -2.1917 -0.1890 -0.3015
 3408SOL     OW17463   0.393   9.121   7.558 -0.4404 -0.4196 -0.9165
 3408SOL    HW117464   0.335   9.181   7.605  2.3558  1.5194  0.3922
 3408SOL    HW217465   0.441   9.075   7.626 -0.3278 -1.8890 -1.9421
 3409SOL     OW17466   3.683   2.646   5.309  0.3699 -0.4140  0.2838
 3409SOL    HW117467   3.645   2.695   5.382 -0.7463  0.4061 -0.7983
 3409SOL    HW217468   3.613   2.586   5.283  0.6093 -0.4207 -0.3489
 3410SOL     OW17469   0.181   3.048  12.371  0.1117  0.0332 -0.3706
 3410SOL    HW117470   0.235   3.027  12.447 -1.1019  0.6568  0.7157
 3410SOL    HW217471   0.242   3.049  12.297  0.8299 -3.9043 -0.0294
 3411SOL     OW17472   0.100   2.368  10.475  0.3509 -0.2753 -0.4732
 3411SOL    HW117473   0.074   2.311  10.547  0.7574  1.5948  1.2483
 3411SOL    HW217474   0.030   2.434  10.469  0.3075 -0.3984 -1.8440
 3412SOL     OW17475  11.674   4.008   1.871 -0.4512 -0.2017 -0.7503
 3412SOL    HW117476  11.711   4.020   1.784 -0.5110  1.7825 -0.5590
 3412SOL    HW217477  11.599   3.950   1.858 -0.8946  0.6226 -2.1668
 3413SOL     OW17478   7.063   3.440   5.151 -0.1963 -0.1316  0.0375
 3413SOL    HW117479   7.049   3.349   5.127 -0.9252  0.0946 -0.4334
 3413SOL    HW217480   7.084   3.484   5.069  2.4054 -0.2630  0.5692
 3414SOL     OW17481   5.592  11.890   0.250 -0.2465 -0.4472  0.2340
 3414SOL    HW117482   5.611  11.901   0.343  0.4525 -0.8076  0.1401
 3414SOL    HW217483   5.659  11.943   0.206  0.1153 -1.1697 -0.0886
 3415SOL     OW17484   0.366   0.762  11.082 -0.5022 -0.9038  0.2307
 3415SOL    HW117485   0.395   0.852  11.096  0.8800 -1.0389 -1.4565
 3415SOL    HW217486   0.270   0.767  11.083 -0.4434  0.4707  0.7615
 3416SOL     OW17487   9.207   6.282   4.763 -0.5215 -0.3643 -0.2516
 3416SOL    HW117488   9.177   6.208   4.711 -0.7987 -0.4190 -0.0187
 3416SOL    HW217489   9.139   6.349   4.751 -1.2335 -0.8105  0.9979
 3417SOL     OW17490   7.402   6.857   1.347  0.0766  0.2858 -0.0380
 3417SOL    HW117491   7.316   6.896   1.366  0.5839  1.7532 -0.5996
 3417SOL    HW217492   7.457   6.932   1.323  1.3297 -0.7134 -0.3698
 3418SOL     OW17493   0.494   1.649   4.711 -0.5867 -0.2766  0.3682
 3418SOL    HW117494   0.417   1.625   4.659  0.2035 -0.6451 -0.6560
 3418SOL    HW217495   0.555   1.577   4.698  0.7435  0.9510 -0.5322
 3419SOL     OW17496   4.375   3.882  11.931  0.1767 -0.2911 -0.0198
 3419SOL    HW117497   4.391   3.924  11.847 -0.8924  1.7009  0.6897
 3419SOL    HW217498   4.291   3.919  11.960  0.7071 -0.6239  2.0881
 3420SOL     OW17499  11.963   8.614   6.383 -0.1936  0.3895  0.1713
 3420SOL    HW117500  11.980   8.612   6.477 -1.7277 -1.6298  0.4740
 3420SOL    HW217501  12.050   8.617   6.343  0.6186 -1.2144  1.6652
 3421SOL     OW17502   8.743   7.727   3.656  0.3292  0.4583 -0.6908
 3421SOL    HW117503   8.815   7.772   3.612  1.3804 -0.9413 -0.4745
 3421SOL    HW217504   8.759   7.741   3.749  0.3470  0.1022 -0.6400
 3422SOL     OW17505   3.652   3.802   1.653 -0.4390 -0.1039  0.3573
 3422SOL    HW117506   3.618   3.808   1.564 -0.8448 -0.5607  0.4784
 3422SOL    HW217507   3.578   3.825   1.709 -0.1041  0.4740  0.5728
 3423SOL     OW17508  11.102   5.257   1.629  0.4726  0.0124 -0.4560
 3423SOL    HW117509  11.085   5.163   1.629 -1.4589  0.2541  2.0411
 3423SOL    HW217510  11.041   5.292   1.563  0.3651 -0.3737 -0.5640
 3424SOL     OW17511   5.191  11.807  10.011  0.8641 -0.0894  0.1310
 3424SOL    HW117512   5.107  11.767  10.035  0.7473 -0.0293 -0.1752
 3424SOL    HW217513   5.167  11.891   9.972  1.1941  1.5725  3.1842
 3425SOL     OW17514  11.718   2.000   4.844 -0.4944 -0.2642 -0.2007
 3425SOL    HW117515  11.805   1.961   4.857  0.7872  2.6539  1.0661
 3425SOL    HW217516  11.691   1.971   4.758  2.5505  0.0478 -1.3929
 3426SOL     OW17517  12.602   9.967   9.605  0.3922  0.4626 -0.0553
 3426SOL    HW117518  12.511   9.956   9.633  0.6127 -0.4682  0.3223
 3426SOL    HW217519  12.621   9.888   9.555  0.6324  1.1982 -1.1585
 3427SOL     OW17520   0.513  12.207   0.741  0.2525 -0.1325  0.1018
 3427SOL    HW117521   0.583  12.220   0.676  0.2210 -0.7861 -0.0682
 3427SOL    HW217522   0.540  12.260   0.816  0.4789  0.3310 -0.3007
 3428SOL     OW17523   3.276   8.438   2.180  0.0371  0.4721  0.5953
 3428SOL    HW117524   3.226   8.508   2.138  0.3375  1.0294  1.1478
 3428SOL    HW217525   3.319   8.481   2.254 -0.5444 -0.5055  1.5180
 3429SOL     OW17526   9.940   7.725   0.887  0.0684  0.4299 -0.7177
 3429SOL    HW117527   9.867   7.776   0.853 -1.3627 -0.6110  0.6962
 3429SOL    HW217528   9.915   7.702   0.976  2.2569  0.2761 -0.0818
 3430SOL     OW17529   7.256   8.605   1.294 -0.1272 -0.1301  0.8546
 3430SOL    HW117530   7.351   8.610   1.283 -0.1791 -0.2942  0.3154
 3430SOL    HW217531   7.244   8.549   1.371  0.2087 -0.3661  0.7382
 3431SOL     OW17532   3.861   7.898  10.878  0.0997 -0.4428 -0.5154
 3431SOL    HW117533   3.801   7.824  10.889 -0.6977  0.0660 -1.3042
 3431SOL    HW217534   3.937   7.876  10.933  0.2505 -2.2339 -1.3567
 3432SOL     OW17535   8.021   6.610   3.939 -0.0634 -1.0422 -0.1919
 3432SOL    HW117536   7.955   6.618   3.870 -0.7704  0.6191  0.6284
 3432SOL    HW217537   8.098   6.655   3.905  0.2808 -1.9868 -0.6898
 3433SOL     OW17538   5.810   2.798  11.026 -0.0488 -0.3324 -0.0040
 3433SOL    HW117539   5.740   2.858  11.049 -0.0421 -0.3623  0.0978
 3433SOL    HW217540   5.889   2.853  11.023 -0.1975 -0.1600 -0.8728
 3434SOL     OW17541   1.443   5.998   8.504  0.0435  0.2176 -0.6903
 3434SOL    HW117542   1.438   5.933   8.574  2.2014  0.8123  0.1167
 3434SOL    HW217543   1.449   5.947   8.423 -0.1630 -0.5279 -0.2365
 3435SOL     OW17544  10.673  12.211   2.161 -0.5332 -0.0529  0.0245
 3435SOL    HW117545  10.685  12.201   2.067  1.7854 -0.6705  0.3184
 3435SOL    HW217546  10.652  12.123   2.193  2.1216 -0.6236  0.4349
 3436SOL     OW17547  10.334   2.035   3.375 -0.0672 -0.4198 -0.6175
 3436SOL    HW117548  10.333   1.942   3.399 -1.9841 -0.2622  0.1019
 3436SOL    HW217549  10.250   2.068   3.406  0.6519  1.6085 -0.7180
 3437SOL     OW17550   0.129   7.965   6.032  0.0118 -0.2439  0.8851
 3437SOL    HW117551   0.197   8.032   6.036  0.1725 -0.3365  0.0550
 3437SOL    HW217552   0.117   7.949   5.938  1.1866 -2.5852  1.0665
 3438SOL     OW17553   3.327   0.723   9.406  0.3768  0.5650 -0.5745
 3438SOL    HW117554   3.293   0.668   9.476  2.2397  0.1039  0.0307
 3438SOL    HW217555   3.338   0.663   9.331  1.6329  0.2446 -0.1640
 3439SOL     OW17556   6.167   6.468  10.806 -0.1024  0.0158  0.2751
 3439SOL    HW117557   6.133   6.486  10.718 -0.9822 -2.1709  0.0989
 3439SOL    HW217558   6.258   6.497  10.803  0.3252 -1.3014 -1.8846
 3440SOL     OW17559   6.299   9.132   4.620 -0.2710  0.1253  0.3256
 3440SOL    HW117560   6.242   9.105   4.693 -1.1024  0.7012 -0.0936
 3440SOL    HW217561   6.328   9.049   4.581  0.7186 -0.2074  1.6909
 3441SOL     OW17562   9.064   9.259   2.376  0.1699 -0.1291  0.1170
 3441SOL    HW117563   9.141   9.230   2.328  0.5549  0.6937  0.2236
 3441SOL    HW217564   9.071   9.217   2.461  1.3014  1.0924  0.6608
 3442SOL     OW17565   3.664   7.389   3.439  0.7824 -0.0782  0.4108
 3442SOL    HW117566   3.728   7.452   3.475  0.5067  1.3395 -1.4039
 3442SOL    HW217567   3.672   7.312   3.495  5.3092 -0.6607 -0.6462
 3443SOL     OW17568   1.751   1.455   4.074  0.0741  0.4181  0.8591
 3443SOL    HW117569   1.757   1.533   4.020  0.8442  0.8796  1.5945
 3443SOL    HW217570   1.692   1.397   4.026 -1.2479  1.7913  0.7364
 3444SOL     OW17571   3.029   9.267   5.464 -0.1101 -0.2969 -0.4241
 3444SOL    HW117572   3.078   9.349   5.466 -0.4757 -0.0798  0.3597
 3444SOL    HW217573   3.056   9.221   5.544  1.5670 -1.8580 -1.7949
 3445SOL     OW17574  11.131   5.736   9.909  0.0465 -0.2136  0.1035
 3445SOL    HW117575  11.166   5.668   9.966  1.7734  0.6064  0.1110
 3445SOL    HW217576  11.209   5.773   9.866 -1.0134  0.5654 -1.2167
 3446SOL     OW17577   7.343  11.416   4.054 -0.5534 -0.4147  0.1464
 3446SOL    HW117578   7.341  11.338   4.109  0.3561  0.0513  0.8773
 3446SOL    HW217579   7.433  11.449   4.063 -0.9859  0.8308  0.0375
 3447SOL     OW17580   0.476  11.307   8.723 -0.3705  0.7510 -0.1462
 3447SOL    HW117581   0.563  11.285   8.689 -0.2156 -0.2026  0.8418
 3447SOL    HW217582   0.434  11.223   8.738 -0.7417  1.1648  1.2294
 3448SOL     OW17583   8.583   5.326   3.800 -0.3233 -0.0664  0.1906
 3448SOL    HW117584   8.626   5.257   3.749  1.7454  0.9082  0.4876
 3448SOL    HW217585   8.492   5.298   3.808 -0.0190 -1.6956 -1.4868
 3449SOL     OW17586   4.783  12.496   7.017  0.0025  0.2256 -0.5705
 3449SOL    HW117587   4.700  12.470   6.977  0.1261  0.5362 -1.0315
 3449SOL    HW217588   4.847  12.431   6.985 -0.0886 -0.1202 -0.0738
 3450SOL     OW17589   8.742   8.996  10.640  0.0938 -0.6270  0.6383
 3450SOL    HW117590   8.804   8.988  10.713 -0.7713  0.5812  1.5657
 3450SOL    HW217591   8.744   8.911  10.597  3.0355 -0.3760  0.0528
 3451SOL     OW17592  10.582   6.872   2.514 -0.1332  0.4844  0.0820
 3451SOL    HW117593  10.592   6.840   2.604 -1.8516 -0.0928  0.1240
 3451SOL    HW217594  10.541   6.798   2.467  1.2166  0.5798 -1.3250
 3452SOL     OW17595   6.152   0.493   8.456 -0.1796  0.2905  0.4825
 3452SOL    HW117596   6.090   0.544   8.405  0.9081  0.7741 -0.3954
 3452SOL    HW217597   6.238   0.524   8.429  0.4688 -0.3959  1.6254
 3453SOL     OW17598  10.296   6.356   0.527 -0.2546  0.5026  0.3771
 3453SOL    HW117599  10.286   6.407   0.447  0.8897  0.3554  0.1239
 3453SOL    HW217600  10.298   6.421   0.597 -2.5331  0.5727  0.4641
 3454SOL     OW17601  10.484   4.754   4.727 -0.5895 -0.1454  0.6544
 3454SOL    HW117602  10.397   4.768   4.766 -0.4774  0.2650  0.7628
 3454SOL    HW217603  10.511   4.669   4.761 -0.8808 -0.1997  0.7566
 3455SOL     OW17604   7.769   0.376   6.788 -0.9999  0.0408  0.0966
 3455SOL    HW117605   7.830   0.444   6.757 -1.4802  0.6500  0.4561
 3455SOL    HW217606   7.777   0.378   6.883  2.2352 -3.4711  0.1083
 3456SOL     OW17607   9.192  12.220  11.959  0.5545 -0.2910  0.2533
 3456SOL    HW117608   9.270  12.196  11.909  0.6420  0.4288  0.0228
 3456SOL    HW217609   9.184  12.315  11.946 -0.9496 -0.5061 -0.5685
 3457SOL     OW17610   1.101  11.214   9.042 -0.0509  0.0731  0.1660
 3457SOL    HW117611   1.022  11.263   9.065  0.0219 -0.0526  0.6926
 3457SOL    HW217612   1.166  11.281   9.023  0.4283  0.2216  2.1579
 3458SOL     OW17613   4.606   2.901   7.976  0.4729 -0.0599 -0.5464
 3458SOL    HW117614   4.598   2.893   8.071 -0.7511  0.1655 -0.6268
 3458SOL    HW217615   4.520   2.877   7.942  0.3787  1.4952 -1.5029
 3459SOL     OW17616   7.030   3.948   3.121  0.1740 -0.3056  0.6300
 3459SOL    HW117617   6.983   3.880   3.169 -0.6182  0.2883  0.7173
 3459SOL    HW217618   7.064   3.904   3.043 -0.0042 -0.8817  0.8734
 3460SOL     OW17619  12.555  11.077   9.337  0.1497 -0.3727  0.8822
 3460SOL    HW117620  12.644  11.062   9.369  0.4610 -0.4438  0.0241
 3460SOL    HW217621  12.556  11.168   9.307  0.1396 -0.5703  0.2614
 3461SOL     OW17622  12.629   4.089  12.419 -0.2774 -0.1374 -0.6833
 3461SOL    HW117623  12.643   4.131  12.334 -1.1883  0.6696 -0.4537
 3461SOL    HW217624  12.597   4.001  12.397  0.9695 -0.4952 -1.1675
 3462SOL     OW17625  12.543  10.611   7.404  1.0054 -0.3397  0.5035
 3462SOL    HW117626  12.494  10.685   7.441  0.1574 -0.3181 -0.6126
 3462SOL    HW217627  12.621  10.651   7.366  0.7659 -0.0764  0.2872
 3463SOL     OW17628   6.406   1.315   3.192 -0.2193 -0.3041 -0.3711
 3463SOL    HW117629   6.377   1.325   3.283 -1.1587 -1.6938 -0.4736
 3463SOL    HW217630   6.325   1.316   3.141  0.1997 -0.6659 -1.0610
 3464SOL     OW17631   4.629   6.475  10.312  0.4271  0.5507 -0.4701
 3464SOL    HW117632   4.625   6.539  10.383 -0.9984 -0.1698  0.1367
 3464SOL    HW217633   4.589   6.518  10.237 -1.3592  0.0885  0.1873
 3465SOL     OW17634   7.655  11.724   9.737 -0.3249  0.1554 -0.1422
 3465SOL    HW117635   7.628  11.799   9.790 -1.4879  0.5413 -1.2173
 3465SOL    HW217636   7.740  11.698   9.773 -1.0665  0.3617  1.9107
 3466SOL     OW17637   0.036   9.129  12.174  0.1079  0.0484 -0.3377
 3466SOL    HW117638   0.006   9.204  12.226 -0.0911 -0.6321  0.5526
 3466SOL    HW217639   0.130   9.123  12.192 -0.1576 -0.8529  0.8354
 3467SOL     OW17640   5.426   8.608   8.061 -0.1602  0.4651  0.3079
 3467SOL    HW117641   5.341   8.600   8.017  0.5738  1.5098 -1.4327
 3467SOL    HW217642   5.404   8.623   8.153 -1.8649  0.8289 -0.1219
 3468SOL     OW17643   5.434   7.884   6.597  0.0198 -0.4682  0.5733
 3468SOL    HW117644   5.391   7.820   6.654 -0.2450 -0.6008  0.2343
 3468SOL    HW217645   5.411   7.855   6.508 -0.3834  0.2814  0.4224
 3469SOL     OW17646   5.005  11.393  11.602  0.2142  0.1353  0.3505
 3469SOL    HW117647   5.043  11.473  11.565 -0.3258  0.3090  0.1657
 3469SOL    HW217648   4.918  11.419  11.631  0.2948 -0.2163  0.9353
 3470SOL     OW17649   8.069   9.150   0.046 -0.9225  0.1604  0.2722
 3470SOL    HW117650   7.986   9.135   0.092 -1.9315 -0.3513 -1.6076
 3470SOL    HW217651   8.098   9.063   0.020 -0.2474  0.4202  0.1399
 3471SOL     OW17652   9.060   6.266   7.885  0.1589 -0.7018 -0.1546
 3471SOL    HW117653   9.043   6.293   7.975 -0.6815  0.9321 -0.7692
 3471SOL    HW217654   9.154   6.251   7.881  0.6795  1.9601  0.3315
 3472SOL     OW17655   3.566   0.186  10.246 -0.1475 -1.0632 -0.1939
 3472SOL    HW117656   3.634   0.190  10.179 -0.8691 -0.4436 -0.9230
 3472SOL    HW217657   3.609   0.149  10.323  0.8267 -1.3303 -0.8500
 3473SOL     OW17658  10.094   2.957  11.307  0.0250  0.1323 -0.7769
 3473SOL    HW117659  10.171   2.965  11.364 -1.5083  5.4768  1.1327
 3473SOL    HW217660  10.128   2.967  11.219  1.6499  2.5143  0.0285
 3474SOL     OW17661   3.495  10.309  10.638 -0.6827 -0.3098  0.5381
 3474SOL    HW117662   3.415  10.336  10.591 -0.0906  2.7870  1.0946
 3474SOL    HW217663   3.567  10.343  10.584  0.2680 -2.0869  0.6230
 3475SOL     OW17664   6.043  12.626  12.232  0.0084 -0.6139 -0.5455
 3475SOL    HW117665   6.093  12.705  12.252  1.3909 -1.4115 -0.7399
 3475SOL    HW217666   6.083  12.557  12.284 -0.7140 -1.3446 -0.9182
 3476SOL     OW17667   6.511   0.069  12.430  0.3772 -0.3606  0.0436
 3476SOL    HW117668   6.463  -0.010  12.451  1.5502 -1.6597 -1.8451
 3476SOL    HW217669   6.553   0.095  12.512  0.3819 -2.0076  0.5912
 3477SOL     OW17670   5.430   5.073   3.102 -0.2295 -0.3604 -0.2293
 3477SOL    HW117671   5.430   5.108   3.191  0.8035  0.1350 -0.4126
 3477SOL    HW217672   5.499   5.007   3.101 -0.4932 -0.6361 -0.5610
 3478SOL     OW17673  10.718   1.920   1.244 -0.5663 -0.6895 -0.6630
 3478SOL    HW117674  10.639   1.927   1.191 -0.9057  0.0997 -0.0769
 3478SOL    HW217675  10.722   1.828   1.270 -1.3211 -0.7172 -0.6467
 3479SOL     OW17676   1.291   0.916   4.023 -0.2049 -0.6011 -0.2746
 3479SOL    HW117677   1.269   0.996   4.072  0.8272 -1.2460  1.3293
 3479SOL    HW217678   1.379   0.932   3.990  0.0544 -1.1227  0.1610
 3480SOL     OW17679   9.510   4.465   8.193 -0.3325 -0.0413 -0.5543
 3480SOL    HW117680   9.452   4.440   8.121 -0.9335 -0.8988  0.2142
 3480SOL    HW217681   9.502   4.394   8.257 -1.2735  1.5676  1.2187
 3481SOL     OW17682  11.652   7.751   2.584 -0.2662 -0.4660  0.1089
 3481SOL    HW117683  11.724   7.789   2.534 -0.6731 -0.7471 -0.7112
 3481SOL    HW217684  11.621   7.679   2.529 -0.5233 -0.9856  0.9149
 3482SOL     OW17685   8.675  11.216   2.620 -0.7887 -0.1294  0.3865
 3482SOL    HW117686   8.622  11.294   2.636 -1.4696 -0.6017  0.4647
 3482SOL    HW217687   8.612  11.144   2.617 -0.1268 -0.7373  0.7411
 3483SOL     OW17688   4.962  11.513   0.394 -0.2009  0.1844 -0.2141
 3483SOL    HW117689   5.057  11.499   0.394  0.1976  2.5292 -0.6210
 3483SOL    HW217690   4.952  11.608   0.401 -2.5484 -0.0612  0.4896
 3484SOL     OW17691   9.771  11.509   5.787 -0.5760 -0.1997  0.2628
 3484SOL    HW117692   9.841  11.523   5.850 -0.7417 -0.7411  0.5724
 3484SOL    HW217693   9.757  11.595   5.747 -0.9375  0.3197  1.4555
 3485SOL     OW17694  10.964   7.082   8.164  0.4689 -0.1962  0.3128
 3485SOL    HW117695  10.988   7.175   8.161 -1.5113  0.4856  2.6042
 3485SOL    HW217696  11.017   7.046   8.235  0.9938 -0.7717 -0.3591
 3486SOL     OW17697  11.639   2.693   5.350 -0.4589 -0.1845  0.2070
 3486SOL    HW117698  11.555   2.690   5.396 -0.2326  0.0023  0.6290
 3486SOL    HW217699  11.646   2.607   5.308 -1.1222  0.0027 -0.2976
 3487SOL     OW17700   7.397   7.653   2.532 -0.1109 -0.2653  0.0743
 3487SOL    HW117701   7.383   7.574   2.582  1.1719 -1.6444 -1.6145
 3487SOL    HW217702   7.429   7.623   2.447  0.9238  2.0725 -0.4616
 3488SOL     OW17703  12.082  11.637   5.514 -0.1948  0.0345 -0.0185
 3488SOL    HW117704  11.990  11.637   5.490 -0.4728  0.2404  0.9973
 3488SOL    HW217705  12.125  11.687   5.444 -0.8393 -0.0927 -0.5171
 3489SOL     OW17706   7.872  10.837   4.572  0.7359 -0.1651 -0.4964
 3489SOL    HW117707   7.813  10.908   4.548  1.5840 -0.1478 -2.7588
 3489SOL    HW217708   7.924  10.872   4.644 -0.0456  0.8475 -0.4031
 3490SOL     OW17709   2.032   6.191   3.015 -0.4651  0.7660  0.1482
 3490SOL    HW117710   2.025   6.235   3.099  0.0180  0.0852  0.5533
 3490SOL    HW217711   1.943   6.161   2.995 -0.3336 -0.3457  1.1247
 3491SOL     OW17712   3.142   5.727  12.681 -0.9529 -0.4746  0.8503
 3491SOL    HW117713   3.083   5.788  12.637 -0.8497 -0.9543  0.0399
 3491SOL    HW217714   3.228   5.747  12.647 -0.6737  0.0091  1.7998
 3492SOL     OW17715   9.035   8.414  10.656 -0.3673 -0.9447 -0.0303
 3492SOL    HW117716   9.025   8.508  10.645  0.0685 -0.8357  0.4831
 3492SOL    HW217717   9.056   8.382  10.568  1.9841 -0.2253  0.1966
 3493SOL     OW17718   4.703   6.386   2.320 -0.2950  0.1073 -0.0451
 3493SOL    HW117719   4.663   6.460   2.273  1.0375 -0.0249 -1.4707
 3493SOL    HW217720   4.777   6.425   2.366  1.5245 -0.5322 -2.2481
 3494SOL     OW17721  10.586  12.532   2.425  0.0603  0.0205  0.8561
 3494SOL    HW117722  10.642  12.528   2.348 -0.1853 -1.2672  0.7141
 3494SOL    HW217723  10.499  12.550   2.391  0.4450  2.7664  1.1364
 3495SOL     OW17724   6.231   6.794   2.355 -0.6812  0.5076 -0.4940
 3495SOL    HW117725   6.199   6.775   2.267  3.1521  2.8660 -2.7090
 3495SOL    HW217726   6.322   6.764   2.354 -0.0215  2.1093  2.1142
 3496SOL     OW17727   2.717   0.784   5.821 -0.2024  0.1221  0.0497
 3496SOL    HW117728   2.704   0.750   5.733  1.5461  0.2512 -0.3048
 3496SOL    HW217729   2.629   0.795   5.857 -0.9342 -0.0124 -1.6428
 3497SOL     OW17730   9.603   0.930   6.494 -0.3737 -0.3089  0.0188
 3497SOL    HW117731   9.529   0.924   6.433 -0.2629  0.6335 -0.2243
 3497SOL    HW217732   9.678   0.950   6.438 -0.2473  0.4363  0.4514
 3498SOL     OW17733   4.386   0.274  10.795  0.3886 -0.4134  0.0638
 3498SOL    HW117734   4.290   0.270  10.797  0.3191 -0.5205 -1.8825
 3498SOL    HW217735   4.413   0.229  10.875 -1.1528 -2.2713 -0.3981
 3499SOL     OW17736   2.074   1.511   9.746  0.2164  0.6471  0.2217
 3499SOL    HW117737   2.158   1.478   9.714  0.0720  0.7962 -0.3141
 3499SOL    HW217738   2.044   1.445   9.809 -1.1931 -1.5053 -2.5213
 3500SOL     OW17739  11.323   1.536   8.779 -0.0289  0.0112 -0.0902
 3500SOL    HW117740  11.268   1.534   8.857 -0.8912 -0.8102 -0.7055
 3500SOL    HW217741  11.358   1.447   8.770 -1.8122 -0.5794 -1.9155
 3501SOL     OW17742   0.686  11.169   6.889  0.0711 -0.5135  0.0888
 3501SOL    HW117743   0.616  11.228   6.918  0.0435 -0.2594 -0.4586
 3501SOL    HW217744   0.701  11.110   6.962  1.2075  1.1749  1.2978
 3502SOL     OW17745   4.247   2.670   2.809  0.2639 -0.0707  0.3419
 3502SOL    HW117746   4.271   2.592   2.859  0.1007 -1.3004 -1.4104
 3502SOL    HW217747   4.315   2.677   2.742  1.2469  2.3327  1.4648
 3503SOL     OW17748   6.812   1.864  12.346  0.0944  0.0819 -0.4567
 3503SOL    HW117749   6.764   1.791  12.385  1.3482  0.1676  1.3390
 3503SOL    HW217750   6.762   1.885  12.266 -1.5529 -1.2526  0.1563
 3504SOL     OW17751   1.748   4.365   3.619 -0.0658 -0.8442 -0.5932
 3504SOL    HW117752   1.681   4.434   3.621  0.3667 -0.4173 -0.9805
 3504SOL    HW217753   1.747   4.332   3.530 -0.4852 -1.5612 -0.3358
 3505SOL     OW17754   6.938   2.726   7.797  0.5988  0.4525  0.0357
 3505SOL    HW117755   6.935   2.630   7.805 -0.8132  0.2697 -1.9021
 3505SOL    HW217756   6.880   2.757   7.867 -0.2635 -0.2150 -0.3635
 3506SOL     OW17757  12.046   1.100   9.568 -0.3476  0.7129 -0.2101
 3506SOL    HW117758  12.111   1.093   9.638 -3.1900 -0.1190  2.5531
 3506SOL    HW217759  12.036   1.011   9.536  0.3082  0.9562 -1.1485
 3507SOL     OW17760   3.428   0.775   7.858  0.4155 -0.4904  0.3896
 3507SOL    HW117761   3.377   0.850   7.889  0.1532  0.2422 -1.6921
 3507SOL    HW217762   3.398   0.702   7.911 -0.3012  0.5991  1.5453
 3508SOL     OW17763   2.251   6.802   8.036 -0.4756 -0.2457  0.5204
 3508SOL    HW117764   2.257   6.714   7.999  1.8680 -0.1927  0.6371
 3508SOL    HW217765   2.281   6.859   7.965 -0.7763  0.3410  0.8611
 3509SOL     OW17766   4.330  10.015   0.404 -0.2606 -0.1919  0.4834
 3509SOL    HW117767   4.424  10.016   0.386 -0.1411  0.2069  1.1304
 3509SOL    HW217768   4.318   9.944   0.467 -0.3381  0.0336  0.7211
 3510SOL     OW17769   1.774   8.955   1.131 -0.1439 -0.1755 -0.2471
 3510SOL    HW117770   1.772   8.892   1.060 -2.2184 -0.3611 -0.0807
 3510SOL    HW217771   1.866   8.960   1.157  0.7403  0.1784 -3.1546
 3511SOL     OW17772   2.208   4.857  12.532 -0.2428  0.1915 -0.3213
 3511SOL    HW117773   2.297   4.849  12.497 -0.2575 -1.6720 -0.0022
 3511SOL    HW217774   2.154   4.806  12.472 -0.9291  0.4271  0.0926
 3512SOL     OW17775   2.286   9.473   0.813  0.0390 -0.6130 -0.1596
 3512SOL    HW117776   2.315   9.560   0.785  0.0787 -0.3839  0.5781
 3512SOL    HW217777   2.196   9.486   0.843 -0.2260 -0.9830 -0.7665
 3513SOL     OW17778   5.407   3.177   4.566 -0.1976  0.2218 -0.0215
 3513SOL    HW117779   5.431   3.219   4.483 -0.4911 -0.0575 -0.2529
 3513SOL    HW217780   5.402   3.084   4.545 -1.4945  0.2604  0.0035
 3514SOL     OW17781  12.542   1.484   7.123 -0.5936 -0.3028  0.0676
 3514SOL    HW117782  12.531   1.485   7.028 -0.1787  0.0695  0.0214
 3514SOL    HW217783  12.461   1.447   7.156  0.5470 -3.8081 -0.6187
 3515SOL     OW17784   1.761   4.006  12.600  0.2356  0.4566 -0.5720
 3515SOL    HW117785   1.689   4.028  12.660  0.9579 -0.2010  0.5526
 3515SOL    HW217786   1.719   3.954  12.531 -0.2549 -0.5789  0.4750
 3516SOL     OW17787   7.790   8.959   6.896 -0.2082  0.0910 -0.1611
 3516SOL    HW117788   7.865   8.986   6.948  0.0289 -1.2585  0.2076
 3516SOL    HW217789   7.721   9.021   6.920 -0.3897 -1.0309  2.4497
 3517SOL     OW17790   1.570   8.881   0.350 -0.3954  0.4110  0.5348
 3517SOL    HW117791   1.594   8.939   0.277 -0.9392 -0.5560 -0.4465
 3517SOL    HW217792   1.495   8.924   0.390 -2.0496 -0.4978 -1.3962
 3518SOL     OW17793  10.127  11.894  10.428 -0.2783 -0.3980  0.0571
 3518SOL    HW117794  10.133  11.826  10.362  1.0683 -0.0510 -0.2094
 3518SOL    HW217795  10.092  11.970  10.381  1.7844  0.2116 -0.6087
 3519SOL     OW17796  11.528   0.931   8.656  0.7430 -0.2025 -0.6623
 3519SOL    HW117797  11.492   1.007   8.611 -0.6519 -0.4025  0.0663
 3519SOL    HW217798  11.521   0.860   8.591 -0.1413 -0.2154 -0.5756
 3520SOL     OW17799   7.995  11.195   8.306 -0.1675 -0.2005  0.3922
 3520SOL    HW117800   8.068  11.250   8.335 -0.5393  0.3998  0.2138
 3520SOL    HW217801   7.940  11.186   8.383  0.7891 -1.8253  0.9195
 3521SOL     OW17802   9.219  12.521  12.380  0.3831 -0.3089 -0.0405
 3521SOL    HW117803   9.169  12.553  12.455  0.6386 -0.7186  0.3099
 3521SOL    HW217804   9.299  12.574  12.380  0.1243  0.0872 -0.3737
 3522SOL     OW17805   5.033   7.811   9.865  0.6761  0.1674  0.7549
 3522SOL    HW117806   5.126   7.822   9.843  0.5325  0.2123  0.1347
 3522SOL    HW217807   4.997   7.899   9.863  0.3190  0.0129 -0.4701
 3523SOL     OW17808   5.643   4.431  12.076  0.0777  0.6681 -0.3922
 3523SOL    HW117809   5.736   4.410  12.082  0.0048  0.6438  1.0243
 3523SOL    HW217810   5.601   4.372  12.138 -0.9205  0.5289 -1.1792
 3524SOL     OW17811   4.970   9.849  11.545 -0.4067  0.5420  0.4124
 3524SOL    HW117812   5.044   9.874  11.489  0.9028 -0.7827  1.4676
 3524SOL    HW217813   4.942   9.764  11.509  0.6572 -0.4830  1.8738
 3525SOL     OW17814  12.001   4.484   3.417 -0.7232 -0.1219  0.1732
 3525SOL    HW117815  12.036   4.572   3.401 -0.5781 -0.2332 -0.1260
 3525SOL    HW217816  11.908   4.498   3.433 -1.3548 -0.1766 -2.8237
 3526SOL     OW17817   0.345   0.896   6.831 -0.5810  0.0414  0.1370
 3526SOL    HW117818   0.258   0.928   6.853 -1.4078 -0.8716 -1.5897
 3526SOL    HW217819   0.361   0.928   6.743  0.5959 -0.3020  0.2090
 3527SOL     OW17820   8.228  11.738   4.365  0.0244  0.1172  0.0975
 3527SOL    HW117821   8.256  11.826   4.390  3.0093 -0.5942 -0.3321
 3527SOL    HW217822   8.221  11.691   4.448 -2.5483  0.9207  0.4166
 3528SOL     OW17823   4.701   3.392   2.074 -0.4442  0.4077 -0.1900
 3528SOL    HW117824   4.612   3.375   2.104 -0.0145  0.3645  1.1153
 3528SOL    HW217825   4.757   3.361   2.145  0.5698  1.4191 -0.5134
 3529SOL     OW17826   9.528  11.725  11.961 -0.2098 -0.3835  0.3982
 3529SOL    HW117827   9.587  11.690  12.028 -1.0637  0.9886  1.9585
 3529SOL    HW217828   9.577  11.795  11.920  0.9180 -2.2332 -1.6428
 3530SOL     OW17829   5.635  10.074  10.821  0.2181  0.0967  0.3436
 3530SOL    HW117830   5.594  10.031  10.746  0.7400  0.3823 -0.1204
 3530SOL    HW217831   5.585  10.155  10.833  0.1623  0.0728  0.2710
 3531SOL     OW17832   1.223   6.630   8.940 -0.3219  0.3518  0.0932
 3531SOL    HW117833   1.237   6.537   8.920 -0.2578  0.6103 -1.1976
 3531SOL    HW217834   1.301   6.673   8.904 -0.9510  1.0316 -0.4915
 3532SOL     OW17835   8.155   1.912   7.580 -0.0442 -0.2081 -0.2427
 3532SOL    HW117836   8.204   1.991   7.606  0.6486 -0.4730 -0.7233
 3532SOL    HW217837   8.219   1.842   7.585 -0.9103 -0.9406  1.1913
 3533SOL     OW17838   2.972   3.009   1.267 -0.6387 -0.4369 -0.0897
 3533SOL    HW117839   2.968   3.090   1.216  1.1104  1.0450  1.9727
 3533SOL    HW217840   2.942   3.033   1.354  1.3744 -1.6185  0.9927
 3534SOL     OW17841   8.213   4.967   3.052 -0.1009 -0.0497 -0.0257
 3534SOL    HW117842   8.257   5.001   2.975  0.4810 -0.7869 -0.0333
 3534SOL    HW217843   8.234   5.030   3.121  1.5120 -0.6970  0.1209
 3535SOL     OW17844  10.359   6.369   8.424 -0.3632 -0.0299  0.2607
 3535SOL    HW117845  10.389   6.279   8.433 -1.4191 -0.2595  1.8621
 3535SOL    HW217846  10.412   6.418   8.487  0.3798  0.5478 -0.7750
 3536SOL     OW17847   0.902   5.733   9.556  0.3024 -0.1025 -0.2412
 3536SOL    HW117848   0.825   5.697   9.600  0.6182  0.9864  1.2696
 3536SOL    HW217849   0.867   5.776   9.478 -0.5447 -0.2348  0.0541
 3537SOL     OW17850   3.094   5.715  12.351  0.3702  0.2910 -0.4282
 3537SOL    HW117851   3.059   5.626  12.359  1.5940 -0.2016 -0.3062
 3537SOL    HW217852   3.073   5.757  12.434  1.7555 -0.6384  0.4374
 3538SOL     OW17853   6.197  12.433   0.923 -0.1555 -0.1002 -0.4476
 3538SOL    HW117854   6.107  12.447   0.952  0.3640  1.0392  0.7042
 3538SOL    HW217855   6.214  12.506   0.863  0.3665  0.3550  0.2432
 3539SOL     OW17856   8.372   6.060   5.651 -0.2488  0.8007  0.4872
 3539SOL    HW117857   8.443   6.112   5.613  1.5688 -1.4390  0.5913
 3539SOL    HW217858   8.307   6.054   5.582  1.2543  0.0563 -0.9443
 3540SOL     OW17859   4.730   7.834   9.350  0.2130 -0.5627 -0.5809
 3540SOL    HW117860   4.706   7.891   9.276 -0.3845 -0.1019 -0.0479
 3540SOL    HW217861   4.648   7.790   9.374  0.5659 -1.2847 -0.6697
 3541SOL     OW17862   9.133   7.296   1.468  0.3349 -0.6125 -0.0617
 3541SOL    HW117863   9.059   7.280   1.410  0.9870  1.0014 -1.4046
 3541SOL    HW217864   9.202   7.237   1.436  0.6890  0.2644 -0.9808
 3542SOL     OW17865  10.285   7.237   6.549 -0.4576  0.1969  0.5359
 3542SOL    HW117866  10.243   7.241   6.635 -0.2917  1.1168  0.5849
 3542SOL    HW217867  10.332   7.154   6.549 -0.2469  0.3078  1.4460
 3543SOL     OW17868   8.320  10.028   4.940  0.0473  0.3296 -0.2595
 3543SOL    HW117869   8.341  10.121   4.933 -0.5622  0.4482 -0.6292
 3543SOL    HW217870   8.385   9.984   4.885 -1.8742  0.8777 -3.2138
 3544SOL     OW17871  12.127   5.226   1.130  0.4439  0.6698  0.3075
 3544SOL    HW117872  12.119   5.234   1.035 -0.5915  1.8773  0.4699
 3544SOL    HW217873  12.059   5.163   1.155  0.7567  0.3046  0.2563
 3545SOL     OW17874  10.009  11.519   6.645  0.1765  0.0851  0.7882
 3545SOL    HW117875  10.027  11.462   6.570 -1.4444 -0.1877  0.5535
 3545SOL    HW217876   9.920  11.495   6.671  0.6099  0.3658  2.6475
 3546SOL     OW17877   6.806   2.411   2.340 -0.5948 -0.0550  0.2868
 3546SOL    HW117878   6.870   2.343   2.362 -0.6947 -0.3649 -0.3784
 3546SOL    HW217879   6.735   2.364   2.297 -0.4689  0.5198 -0.5686
 3547SOL     OW17880   0.760   6.739   2.772 -0.3551 -0.3222  0.3565
 3547SOL    HW117881   0.808   6.782   2.842 -0.4730  0.1877  0.1328
 3547SOL    HW217882   0.823   6.732   2.700 -0.1835 -0.9988  0.5685
 3548SOL     OW17883   9.483   3.221  11.585  0.0308  0.0501 -0.2188
 3548SOL    HW117884   9.437   3.277  11.522 -0.9344 -0.2231  0.2236
 3548SOL    HW217885   9.517   3.282  11.650 -1.0382  0.1420  0.2736
 3549SOL     OW17886  11.871   6.492   7.331  0.5445  0.2664  0.5059
 3549SOL    HW117887  11.903   6.421   7.387  1.6936 -1.4284 -2.1266
 3549SOL    HW217888  11.938   6.560   7.338  1.1312 -0.3025  0.5262
 3550SOL     OW17889   5.451   7.843   8.163 -0.1489 -0.0558 -0.8871
 3550SOL    HW117890   5.490   7.896   8.232  0.7102 -0.9495 -0.6698
 3550SOL    HW217891   5.397   7.904   8.113 -0.4845  0.6822  0.3441
 3551SOL     OW17892   1.472   5.995  10.222 -0.3954  0.9444  0.1822
 3551SOL    HW117893   1.536   5.976  10.153  0.1211 -0.0883  0.9149
 3551SOL    HW217894   1.409   6.053  10.180  0.2054  0.7851 -1.0019
 3552SOL     OW17895   3.383   9.103  10.329 -0.1613 -0.0926  0.1161
 3552SOL    HW117896   3.323   9.169  10.364  2.0315  0.6475  2.8007
 3552SOL    HW217897   3.388   9.124  10.236 -0.5059  2.7918  0.6287
 3553SOL     OW17898  11.845   5.309   7.185  0.2419 -0.3401  0.1908
 3553SOL    HW117899  11.933   5.341   7.204  0.1083 -0.7290  1.5863
 3553SOL    HW217900  11.855   5.256   7.106  0.9528  0.8987 -0.5850
 3554SOL     OW17901   8.001   3.128   2.187  0.1556 -0.1953  0.1477
 3554SOL    HW117902   7.944   3.119   2.111  1.9862 -2.2479 -1.0687
 3554SOL    HW217903   8.026   3.221   2.186 -0.0207 -0.1319 -1.6173
 3555SOL     OW17904   4.500   8.429   1.851 -0.2153  0.3677 -0.2273
 3555SOL    HW117905   4.442   8.503   1.869 -0.4784  0.5386 -1.6180
 3555SOL    HW217906   4.458   8.382   1.779  0.1819 -0.8815  0.3353
 3556SOL     OW17907   1.647   3.321   1.609  0.0160 -0.2713 -0.2782
 3556SOL    HW117908   1.704   3.251   1.640 -0.6700 -0.2043  1.2548
 3556SOL    HW217909   1.569   3.315   1.664  0.1206  1.9617  0.2390
 3557SOL     OW17910  10.722   0.293   3.983 -0.2442  0.8195  0.2467
 3557SOL    HW117911  10.811   0.266   4.005 -0.6883  1.1460  2.7861
 3557SOL    HW217912  10.686   0.219   3.934  1.0047  0.1304  0.3186
 3558SOL     OW17913   1.958   0.922   5.630  0.4142 -0.0802 -0.4019
 3558SOL    HW117914   2.000   0.953   5.549  1.7171 -0.6166  0.0505
 3558SOL    HW217915   1.901   0.995   5.656  1.3870  0.8624 -0.8023
 3559SOL     OW17916   7.452   6.993   7.592 -0.0052 -0.0470 -0.1767
 3559SOL    HW117917   7.371   7.039   7.571 -0.2373 -0.5964 -0.4966
 3559SOL    HW217918   7.521   7.059   7.579 -0.3675  0.3297 -0.2042
 3560SOL     OW17919  11.182   6.070   2.760 -0.1237  0.3133  0.0841
 3560SOL    HW117920  11.146   6.154   2.731  2.9693  1.4454 -0.8771
 3560SOL    HW217921  11.216   6.087   2.847 -0.9342 -0.4450  0.5648
 3561SOL     OW17922  11.656   8.169   1.854 -0.3486 -0.5366  0.5418
 3561SOL    HW117923  11.717   8.239   1.880 -1.4576 -0.0145  1.9182
 3561SOL    HW217924  11.574   8.215   1.837 -0.6549 -1.3431 -0.2030
 3562SOL     OW17925   4.452   0.942   2.276 -0.1509  0.0666 -0.9710
 3562SOL    HW117926   4.547   0.927   2.279 -0.0710  0.7350  0.2156
 3562SOL    HW217927   4.432   0.989   2.357 -1.9173 -2.2884  0.0466
 3563SOL     OW17928  10.741  11.502   2.148  0.6316  0.1218  0.0113
 3563SOL    HW117929  10.714  11.418   2.183  1.8249  0.2773  1.4123
 3563SOL    HW217930  10.662  11.556   2.153  0.1703 -0.5594  0.2636
 3564SOL     OW17931   6.501   7.673  10.874 -0.4180  0.3014 -0.2117
 3564SOL    HW117932   6.424   7.685  10.818 -1.0856 -0.2678  0.5436
 3564SOL    HW217933   6.575   7.699  10.820 -1.0858  0.2230 -1.1888
 3565SOL     OW17934  10.506  12.175   8.867 -0.0720 -0.6836 -0.2859
 3565SOL    HW117935  10.563  12.225   8.808  0.9925 -1.5573 -0.0273
 3565SOL    HW217936  10.432  12.150   8.812  0.1532 -0.1704 -0.8412
 3566SOL     OW17937   1.280   0.409   8.974 -0.0685  0.1880 -0.2662
 3566SOL    HW117938   1.223   0.360   9.033 -0.2621 -1.4423 -1.7274
 3566SOL    HW217939   1.241   0.497   8.972 -1.1767 -0.2560  0.5321
 3567SOL     OW17940   5.391  10.373   1.194  0.2355  0.1847  0.2924
 3567SOL    HW117941   5.424  10.298   1.145  1.1354  0.8574 -0.1738
 3567SOL    HW217942   5.468  10.430   1.205 -0.0703  0.3059  2.0094
 3568SOL     OW17943   8.465   2.357  12.406 -0.5480  0.0670  0.0229
 3568SOL    HW117944   8.373   2.333  12.391  0.2427 -1.8793 -2.3970
 3568SOL    HW217945   8.515   2.285  12.368  2.0168  1.2061  1.0291
 3569SOL     OW17946   6.267   6.057   0.450 -0.1133 -0.3315  0.4319
 3569SOL    HW117947   6.320   5.998   0.503 -0.4118 -1.2812 -0.2927
 3569SOL    HW217948   6.226   6.116   0.513 -0.4730 -1.4414  1.2771
 3570SOL     OW17949   1.212  11.176   3.759 -0.3826 -0.9996  0.1788
 3570SOL    HW117950   1.255  11.091   3.754 -0.4534 -0.9873 -0.7759
 3570SOL    HW217951   1.221  11.202   3.851  3.9407  0.1518 -0.3335
 3571SOL     OW17952   8.053  11.234   3.479  0.5057 -0.0004  0.0390
 3571SOL    HW117953   8.061  11.326   3.505 -1.1790  0.8412 -2.0894
 3571SOL    HW217954   8.106  11.186   3.542  1.7127  2.4624  1.0124
 3572SOL     OW17955   7.239   9.114  12.511  0.1207 -0.3714  0.3902
 3572SOL    HW117956   7.293   9.149  12.583  0.0755 -0.1079  0.2982
 3572SOL    HW217957   7.192   9.190  12.477 -1.5177 -0.8457  1.4875
 3573SOL     OW17958   7.146   7.129   2.340 -0.2170 -0.1078 -0.0606
 3573SOL    HW117959   7.235   7.100   2.321  0.7268  2.5109 -0.1182
 3573SOL    HW217960   7.108   7.059   2.392  1.7817 -1.4101 -0.2519
 3574SOL     OW17961  12.375  12.292   3.452  0.0624  0.4591  0.4624
 3574SOL    HW117962  12.360  12.312   3.544 -0.0122 -0.8374  0.7461
 3574SOL    HW217963  12.384  12.197   3.448  1.4463  0.5917 -0.6792
 3575SOL     OW17964   5.663   9.402   7.719  0.2686  0.0726  0.0066
 3575SOL    HW117965   5.609   9.442   7.651  1.0543 -0.0381 -0.6989
 3575SOL    HW217966   5.753   9.419   7.691  0.6247 -1.6814 -0.0050
 3576SOL     OW17967   8.145   3.008  12.041 -0.2221 -0.2988 -0.0649
 3576SOL    HW117968   8.063   2.966  12.067 -1.1658  1.7778  0.5405
 3576SOL    HW217969   8.163   3.071  12.111  0.5255  1.0501 -1.4046
 3577SOL     OW17970  10.984   5.911   8.609 -0.2314 -0.8157 -0.0376
 3577SOL    HW117971  10.960   5.951   8.526 -0.5904  1.1495  0.9579
 3577SOL    HW217972  11.064   5.956   8.636 -0.7600 -0.5828  1.2262
 3578SOL     OW17973   4.634   7.659   7.550  0.1681  0.4694 -0.0778
 3578SOL    HW117974   4.621   7.610   7.468 -1.5514  1.7196 -0.6157
 3578SOL    HW217975   4.634   7.751   7.523 -1.0301  0.9331  1.3918
 3579SOL     OW17976   6.358   5.311  10.739  0.1162 -0.3658  0.5488
 3579SOL    HW117977   6.389   5.294  10.651 -2.1335 -1.9622 -0.0087
 3579SOL    HW217978   6.328   5.402  10.737 -1.1445 -0.7811 -0.7624
 3580SOL     OW17979   8.052  12.287   2.500  0.1834 -0.1480  0.2471
 3580SOL    HW117980   8.099  12.237   2.566  0.0718 -1.3415 -0.5529
 3580SOL    HW217981   8.106  12.366   2.487  1.9516 -1.4233 -0.5688
 3581SOL     OW17982   7.971  12.194  12.368  0.0836  0.2657  0.0421
 3581SOL    HW117983   8.017  12.117  12.335 -0.7588  0.2728 -1.2572
 3581SOL    HW217984   7.907  12.160  12.430 -0.5887 -0.1654 -0.8556
 3582SOL     OW17985   7.504  10.301   0.896  0.1949 -0.4164 -0.0273
 3582SOL    HW117986   7.487  10.227   0.838  1.7458 -0.1360 -0.8994
 3582SOL    HW217987   7.417  10.332   0.922 -0.5835 -0.4370 -2.3789
 3583SOL     OW17988   6.250   6.140   7.742 -0.4066  0.3255  0.3740
 3583SOL    HW117989   6.344   6.158   7.734 -0.3275  1.0717  2.4867
 3583SOL    HW217990   6.214   6.163   7.656  1.1703  1.1991 -0.0950
 3584SOL     OW17991  10.901   4.450   1.930 -0.2497  0.8839 -0.5805
 3584SOL    HW117992  10.988   4.482   1.905 -0.0136  0.7095  0.0039
 3584SOL    HW217993  10.877   4.389   1.860  0.5521  0.1453 -0.2289
 3585SOL     OW17994   0.605   2.828   3.707  0.2070  0.1549  0.1416
 3585SOL    HW117995   0.621   2.816   3.801 -0.0438 -0.2606  0.1309
 3585SOL    HW217996   0.513   2.854   3.702  0.3577  0.6793  0.0497
 3586SOL     OW17997   8.027   6.167   2.283  0.9514  0.6382  1.0125
 3586SOL    HW117998   8.018   6.124   2.368 -0.5815  0.1795  0.6517
 3586SOL    HW217999   7.965   6.240   2.287 -0.4373 -0.4121 -0.3000
 3587SOL     OW18000   7.028   0.380  10.156  0.0635 -0.4558 -0.0355
 3587SOL    HW118001   7.104   0.436  10.174 -1.0899  1.8561 -1.8957
 3587SOL    HW218002   6.955   0.441  10.147 -2.0122 -2.5776  1.3139
 3588SOL     OW18003   3.030  11.996   4.591  0.0677 -0.6070  0.0820
 3588SOL    HW118004   2.993  12.084   4.596  2.5275  0.5149  0.3590
 3588SOL    HW218005   3.022  11.961   4.680 -1.7892 -1.0931 -0.2498
 3589SOL     OW18006  12.267  10.739  11.212 -0.0508  0.4244  0.0139
 3589SOL    HW118007  12.250  10.648  11.185  0.0946  0.4767 -0.2530
 3589SOL    HW218008  12.356  10.737  11.248  0.0316  0.5017 -0.1833
 3590SOL     OW18009   1.240   1.615   9.595 -0.3622 -0.5602  0.4202
 3590SOL    HW118010   1.257   1.679   9.663 -0.0314 -1.4345  1.1851
 3590SOL    HW218011   1.150   1.632   9.568  0.0161  0.8147 -0.0568
 3591SOL     OW18012   2.245   7.006   0.678  0.7251 -0.3542  0.1768
 3591SOL    HW118013   2.156   6.971   0.678 -0.1886  1.7654 -1.3584
 3591SOL    HW218014   2.258   7.039   0.767  0.4124 -1.6403  0.7225
 3592SOL     OW18015   8.795   1.827   9.250  0.0127  0.1312 -0.7247
 3592SOL    HW118016   8.795   1.744   9.298 -1.5772 -0.8332 -2.2769
 3592SOL    HW218017   8.822   1.804   9.161  0.9345  1.5340 -0.8389
 3593SOL     OW18018   4.344   3.061   8.300 -0.5886  0.3337  0.1850
 3593SOL    HW118019   4.256   3.077   8.265 -1.8391  0.2948  3.0234
 3593SOL    HW218020   4.329   3.033   8.390  2.2238 -2.3832 -0.0073
 3594SOL     OW18021   0.684   6.016   0.607 -0.2448 -0.1220 -0.1608
 3594SOL    HW118022   0.610   6.056   0.652 -0.3898  0.0572 -0.5612
 3594SOL    HW218023   0.735   6.090   0.573  0.0991 -0.2443  0.0833
 3595SOL     OW18024   5.220   0.291  10.019  0.3148  0.4350 -0.3890
 3595SOL    HW118025   5.266   0.354   9.963 -2.7653  1.3803 -2.1041
 3595SOL    HW218026   5.224   0.209   9.971 -0.4058  0.7145 -0.9530
 3596SOL     OW18027   0.259   8.523   8.022  0.7374 -0.0623 -0.0386
 3596SOL    HW118028   0.239   8.559   7.936  1.6231 -1.2636 -0.7788
 3596SOL    HW218029   0.335   8.466   8.007 -0.8794 -2.6424  0.9170
 3597SOL     OW18030  10.207  12.617   7.670  0.0041 -0.0774 -0.1304
 3597SOL    HW118031  10.169  12.569   7.596  0.1018 -0.5403  0.1232
 3597SOL    HW218032  10.226  12.704   7.634 -0.3795 -0.1545 -0.5259
 3598SOL     OW18033   3.799   6.086  11.256 -0.4254  0.0717  0.0148
 3598SOL    HW118034   3.890   6.111  11.240 -0.0864 -1.4069 -0.5362
 3598SOL    HW218035   3.749   6.167  11.246  0.8322  0.9094  0.3575
 3599SOL     OW18036  11.796   0.726  10.666 -0.3169  0.5030 -0.2229
 3599SOL    HW118037  11.857   0.745  10.738 -1.3604  0.4452  0.7048
 3599SOL    HW218038  11.840   0.658  10.615  0.4315  0.5116  0.3913
 3600SOL     OW18039  10.729  12.565  11.252 -0.2204 -0.2453 -0.1488
 3600SOL    HW118040  10.668  12.604  11.315 -0.0114 -1.5353  0.8923
 3600SOL    HW218041  10.815  12.591  11.282 -0.0539 -1.7717  0.7906
 3601SOL     OW18042   7.454   2.630   6.716  0.2739  0.2547 -0.2793
 3601SOL    HW118043   7.475   2.570   6.788 -0.0303  0.5366  0.0441
 3601SOL    HW218044   7.535   2.634   6.664  1.7115  2.7133  1.9302
 3602SOL     OW18045   9.218   3.988   6.597  0.3822  0.3110  0.8275
 3602SOL    HW118046   9.189   3.908   6.640 -1.2277  0.9101  0.9339
 3602SOL    HW218047   9.278   3.958   6.528 -1.4100 -1.1610 -0.1809
 3603SOL     OW18048   5.087   0.125   6.123 -0.1789 -0.2524  0.4185
 3603SOL    HW118049   5.137   0.137   6.204  0.4872 -0.0496 -0.0184
 3603SOL    HW218050   5.061   0.032   6.125  0.3232 -0.3941  0.5936
 3604SOL     OW18051   6.328   5.096   3.309  0.1467  0.3554 -0.2081
 3604SOL    HW118052   6.399   5.086   3.245  0.6897 -0.0197  0.4383
 3604SOL    HW218053   6.263   5.150   3.264 -0.0116 -0.8606 -1.5089
 3605SOL     OW18054  10.323   3.170  12.191 -0.1172  0.1461  0.1656
 3605SOL    HW118055  10.308   3.192  12.099 -1.6602 -0.4920  0.2281
 3605SOL    HW218056  10.340   3.254  12.233 -2.3922  0.8626 -0.2093
 3606SOL     OW18057   8.373   5.575   9.566 -0.4809 -0.1995 -0.1962
 3606SOL    HW118058   8.343   5.636   9.634 -0.9263  0.4865 -0.9836
 3606SOL    HW218059   8.441   5.624   9.519 -0.1054 -0.7063 -0.1849
 3607SOL     OW18060  12.429   1.788   8.767  0.7604  0.7114 -0.0607
 3607SOL    HW118061  12.360   1.854   8.761  1.4875  1.4998  0.0506
 3607SOL    HW218062  12.454   1.787   8.859 -0.8272 -1.4061  0.4046
 3608SOL     OW18063   1.198   7.137   2.892  0.7721 -0.6136  0.6312
 3608SOL    HW118064   1.118   7.124   2.943 -0.2342  1.4507 -0.2889
 3608SOL    HW218065   1.168   7.145   2.801  2.2249 -1.4213  0.0442
 3609SOL     OW18066   4.173   8.445   0.521 -0.6898 -0.4798  0.3027
 3609SOL    HW118067   4.259   8.472   0.488 -1.1296  1.1740  0.4245
 3609SOL    HW218068   4.138   8.523   0.563 -1.5684 -1.5954  1.7227
 3610SOL     OW18069   6.858   2.145  12.028  0.0256 -0.0415  0.2718
 3610SOL    HW118070   6.773   2.125  11.988  0.3757 -0.2365 -0.3832
 3610SOL    HW218071   6.894   2.059  12.051  0.9757 -0.1489 -1.4022
 3611SOL     OW18072   0.402   0.581   7.591 -0.0745 -0.2209  0.1943
 3611SOL    HW118073   0.469   0.608   7.528  0.3990 -0.1175  0.7364
 3611SOL    HW218074   0.451   0.540   7.662 -0.6418 -0.7686  0.2769
 3612SOL     OW18075   1.034  12.525   8.221  0.7045  0.6087 -0.6712
 3612SOL    HW118076   1.077  12.456   8.271  0.7395  1.7385  0.9380
 3612SOL    HW218077   1.105  12.576   8.184  0.7559  1.4407  0.5279
 3613SOL     OW18078  12.552   2.804   4.105 -0.2905 -0.7604  0.2006
 3613SOL    HW118079  12.558   2.880   4.047 -0.8649 -0.9563 -0.1220
 3613SOL    HW218080  12.459   2.779   4.102 -0.1329 -1.3900  0.4084
 3614SOL     OW18081   8.800   4.200   6.259  0.2870  0.0282 -0.3031
 3614SOL    HW118082   8.870   4.142   6.286  0.5449  0.3496 -0.2757
 3614SOL    HW218083   8.838   4.288   6.262  0.3304  0.0724 -1.7096
 3615SOL     OW18084   1.791   7.185  11.479  0.2665  0.1185 -0.2754
 3615SOL    HW118085   1.798   7.094  11.509  0.0621 -0.4744 -1.9239
 3615SOL    HW218086   1.764   7.234  11.556 -0.9512 -1.4377  0.3279
 3616SOL     OW18087  12.606   6.429   8.419  0.0893 -0.0808 -0.1513
 3616SOL    HW118088  12.544   6.383   8.476  0.0045  0.2524  0.0329
 3616SOL    HW218089  12.613   6.375   8.341 -0.0920 -0.3474  0.0180
 3617SOL     OW18090   2.237  10.659   2.254  0.4851 -0.1785 -0.4163
 3617SOL    HW118091   2.173  10.670   2.183 -0.7208 -2.4620  0.1836
 3617SOL    HW218092   2.282  10.743   2.260 -2.0439  1.3651 -1.3085
 3618SOL     OW18093   1.303   2.285   1.617 -0.5834  0.2957  0.0424
 3618SOL    HW118094   1.374   2.345   1.596 -0.2327 -0.1644 -0.0933
 3618SOL    HW218095   1.255   2.274   1.535 -0.2426 -0.1412 -0.1010
 3619SOL     OW18096  12.259   6.876   9.408 -1.0338  0.6145 -0.6830
 3619SOL    HW118097  12.253   6.960   9.454  2.0227  0.0687  0.9213
 3619SOL    HW218098  12.254   6.810   9.477  0.0833 -0.3627 -1.4974
 3620SOL     OW18099   2.591   6.470   1.215 -0.1282  0.1550 -0.0156
 3620SOL    HW118100   2.548   6.529   1.277 -2.9047  0.8398 -2.3497
 3620SOL    HW218101   2.518   6.423   1.173  1.4189  0.7060 -3.6677
 3621SOL     OW18102   1.347   6.250   0.744 -0.1204 -0.2273 -0.4982
 3621SOL    HW118103   1.441   6.242   0.727 -0.1577 -0.2502 -0.6883
 3621SOL    HW218104   1.317   6.160   0.757  0.2407 -0.1186  1.4633
 3622SOL     OW18105  11.594   7.729   6.334  0.1914  0.1879 -0.1391
 3622SOL    HW118106  11.572   7.696   6.248  0.2563  1.3609 -0.6335
 3622SOL    HW218107  11.583   7.655   6.393  0.3289 -0.6728 -1.1805
 3623SOL     OW18108   2.535  11.856  12.581  0.4717 -0.4597  0.1102
 3623SOL    HW118109   2.578  11.791  12.637 -0.0549  0.1454  1.2707
 3623SOL    HW218110   2.464  11.809  12.539  0.7469 -0.8803  0.1089
 3624SOL     OW18111   7.060  11.299  10.036 -0.5235  0.2692  0.4958
 3624SOL    HW118112   7.109  11.361   9.982  0.4698 -1.4821 -0.7457
 3624SOL    HW218113   7.086  11.318  10.126  2.4870 -0.5159 -0.0995
 3625SOL     OW18114   6.377   2.020   8.357 -0.4077  0.2599  0.2699
 3625SOL    HW118115   6.462   1.985   8.383 -0.5813  0.6553  1.4571
 3625SOL    HW218116   6.390   2.115   8.354 -0.4560  0.2464 -0.9450
 3626SOL     OW18117   0.630   0.619   5.935 -0.2301  0.5893  0.2208
 3626SOL    HW118118   0.633   0.524   5.946 -2.4565  0.5136  0.7468
 3626SOL    HW218119   0.720   0.645   5.917  0.1184 -1.9181 -2.3602
 3627SOL     OW18120   8.988   1.264   9.140 -0.5226  0.2486 -0.1400
 3627SOL    HW118121   9.051   1.255   9.211 -0.0122  0.5792 -0.5418
 3627SOL    HW218122   9.027   1.330   9.082 -1.4820  0.8311 -0.1370
 3628SOL     OW18123   2.794   2.518   9.373 -0.2366  0.0294  0.2792
 3628SOL    HW118124   2.737   2.529   9.449  0.0140  1.9393  0.2425
 3628SOL    HW218125   2.880   2.500   9.409  0.1681  2.2559  0.5593
 3629SOL     OW18126   4.847   3.248   9.399  0.0885  0.2121  0.0145
 3629SOL    HW118127   4.889   3.184   9.341 -2.9741  0.2202 -2.4531
 3629SOL    HW218128   4.815   3.195   9.472  0.5478 -0.4673 -0.2603
 3630SOL     OW18129   1.110   5.512   0.934  0.0741 -0.7363  0.5355
 3630SOL    HW118130   1.116   5.532   1.028  0.9547  1.2502  0.1187
 3630SOL    HW218131   1.017   5.517   0.914  0.0093  0.4514  1.0277
 3631SOL     OW18132   8.433  10.151  12.155  0.4971  0.6538 -0.1378
 3631SOL    HW118133   8.374  10.097  12.207  0.2112  0.7412 -0.3649
 3631SOL    HW218134   8.519  10.140  12.196  0.2596  0.8006  0.4150
 3632SOL     OW18135   9.867   5.101   9.580 -0.4246 -0.3620  0.0971
 3632SOL    HW118136   9.897   5.058   9.500  1.9968  0.7828  0.2976
 3632SOL    HW218137   9.912   5.053   9.650 -0.9533 -0.0880  0.6294
 3633SOL     OW18138  12.441   6.977   8.766 -1.2468  0.4001  0.3845
 3633SOL    HW118139  12.530   6.972   8.801 -0.5762  0.5040 -1.1934
 3633SOL    HW218140  12.390   6.918   8.821 -0.3549  0.8414  1.7370
 3634SOL     OW18141   1.679   5.376   6.973 -1.0239  0.5074 -0.0876
 3634SOL    HW118142   1.758   5.431   6.972 -1.9165  1.8271 -0.6391
 3634SOL    HW218143   1.647   5.379   6.883 -2.6292  1.3833  0.4919
 3635SOL     OW18144   3.560  12.251  10.743 -0.1866  0.3812  0.7192
 3635SOL    HW118145   3.551  12.159  10.719 -2.6028  0.3364  1.5835
 3635SOL    HW218146   3.563  12.298  10.659 -3.0209 -0.2155  0.1800
 3636SOL     OW18147   0.443   8.785   5.626  0.1315  0.1412 -0.3218
 3636SOL    HW118148   0.400   8.771   5.542 -0.9513  1.1369  0.0303
 3636SOL    HW218149   0.396   8.860   5.664  1.1167  0.2052  0.8173
 3637SOL     OW18150  11.180   6.670   4.606  0.4082 -0.0139 -0.2573
 3637SOL    HW118151  11.274   6.656   4.589  0.2150 -0.4031 -1.0210
 3637SOL    HW218152  11.136   6.630   4.532 -0.3215  1.2676 -0.5477
 3638SOL     OW18153   1.684   4.398   1.944  0.3560  0.3304 -0.2060
 3638SOL    HW118154   1.642   4.457   1.882  0.8850 -0.0835 -0.9662
 3638SOL    HW218155   1.755   4.450   1.983  1.5467 -0.1173 -1.6973
 3639SOL     OW18156   7.834   3.064   5.575  0.3682  0.1189 -0.1282
 3639SOL    HW118157   7.924   3.067   5.606  0.3783 -0.8292 -0.0350
 3639SOL    HW218158   7.835   3.113   5.494  1.4482 -1.6366 -1.2492
 3640SOL     OW18159   9.561  10.777  10.599 -0.6948  0.0895 -0.1731
 3640SOL    HW118160   9.537  10.695  10.642 -0.0434 -0.2356 -0.4096
 3640SOL    HW218161   9.543  10.844  10.665  1.9910 -0.5470  1.3531
 3641SOL     OW18162  10.837   6.816  10.350 -0.2316  0.3203  0.0946
 3641SOL    HW118163  10.869   6.822  10.260 -2.0784 -1.4946 -0.7684
 3641SOL    HW218164  10.871   6.733  10.382  0.2893  0.8859  1.0434
 3642SOL     OW18165  11.991   1.629   8.069  0.4745 -0.2825 -0.5783
 3642SOL    HW118166  11.956   1.615   7.981  0.9023 -0.4797 -0.7184
 3642SOL    HW218167  11.920   1.603   8.127 -0.0757  0.5331 -0.8680
 3643SOL     OW18168   3.464   6.587   7.356 -0.2521  0.0830 -0.0390
 3643SOL    HW118169   3.376   6.551   7.345 -0.4190  0.7657 -1.0941
 3643SOL    HW218170   3.512   6.558   7.278 -0.2694  1.7512 -0.7103
 3644SOL     OW18171  12.207   6.202   2.525  1.0181  0.0128  0.1810
 3644SOL    HW118172  12.272   6.242   2.467  0.5059  1.6222  0.6556
 3644SOL    HW218173  12.138   6.171   2.467  0.7212  1.2034 -0.1402
 3645SOL     OW18174   8.347   6.100   7.724  0.4655  0.2026 -0.0110
 3645SOL    HW118175   8.397   6.043   7.783  0.9509  0.3431 -0.2788
 3645SOL    HW218176   8.393   6.094   7.640 -0.9752 -1.0288 -0.7573
 3646SOL     OW18177  12.465   9.628   9.265 -0.2411 -0.3175  0.0239
 3646SOL    HW118178  12.435   9.542   9.236 -0.2245 -0.3439  0.0848
 3646SOL    HW218179  12.510   9.612   9.348  0.6226 -0.3868 -0.4488
 3647SOL     OW18180   6.366   1.228   7.883  0.3479 -0.1952 -0.2820
 3647SOL    HW118181   6.273   1.218   7.902 -0.3511  2.7909 -1.4832
 3647SOL    HW218182   6.410   1.199   7.963 -1.8565  1.5550  1.7256
 3648SOL     OW18183   3.849   5.137  10.431  0.5412 -0.3883 -0.3409
 3648SOL    HW118184   3.887   5.052  10.410  1.6667 -0.4456  1.6659
 3648SOL    HW218185   3.868   5.149  10.524 -1.5679  1.0730 -0.0325
 3649SOL     OW18186   8.472   2.120   9.879 -0.7044  0.0316 -0.2586
 3649SOL    HW118187   8.546   2.069   9.913 -1.3810 -1.1872 -0.5723
 3649SOL    HW218188   8.510   2.205   9.859  0.1371  0.1638  1.6870
 3650SOL     OW18189   1.182  10.432  12.613  0.2566 -0.0033 -0.5682
 3650SOL    HW118190   1.210  10.454  12.524  1.0803  1.4207  0.0084
 3650SOL    HW218191   1.088  10.416  12.605  0.5760 -1.5361 -1.9552
 3651SOL     OW18192   6.549   3.296   1.841 -0.2408 -0.9381 -0.4653
 3651SOL    HW118193   6.564   3.258   1.754 -2.2594 -1.9365 -0.4265
 3651SOL    HW218194   6.511   3.224   1.892  2.3885 -0.8922  1.8081
 3652SOL     OW18195   1.213  12.484  11.321 -0.4772 -0.1577 -0.2706
 3652SOL    HW118196   1.234  12.502  11.413  1.6186 -0.5773 -0.6020
 3652SOL    HW218197   1.240  12.393  11.308  2.1704  0.7642 -1.9912
 3653SOL     OW18198   2.669   5.223   6.876 -0.6718 -0.1329  0.2106
 3653SOL    HW118199   2.685   5.259   6.789 -0.9320 -0.6336 -0.0515
 3653SOL    HW218200   2.702   5.289   6.936 -1.4106  0.6693 -0.2455
 3654SOL     OW18201   8.431   6.262   4.666 -0.1102  0.6851  0.3691
 3654SOL    HW118202   8.457   6.309   4.588  0.5181  0.2286  0.2949
 3654SOL    HW218203   8.446   6.323   4.738  2.5810  0.0048  0.5013
 3655SOL     OW18204   6.252   3.242  12.421  0.1917 -0.3210 -0.3317
 3655SOL    HW118205   6.240   3.318  12.365  0.7162  0.8832  1.1315
 3655SOL    HW218206   6.223   3.168  12.367 -1.6367  1.0306 -1.3304
 3656SOL     OW18207   6.446  11.835   5.998  0.0649  0.3110  0.3036
 3656SOL    HW118208   6.496  11.886   5.933 -0.3265  1.6947  1.0510
 3656SOL    HW218209   6.439  11.748   5.959 -1.6527  1.4932 -2.3678
 3657SOL     OW18210  12.434   3.911   8.612 -0.2008 -0.2716 -0.8227
 3657SOL    HW118211  12.401   3.821   8.620  0.8234 -0.5919  0.1124
 3657SOL    HW218212  12.359   3.961   8.580 -0.3813 -1.7087 -2.8617
 3658SOL     OW18213   5.215  12.607   7.306  0.6087  0.4594  0.3906
 3658SOL    HW118214   5.225  12.684   7.362  3.2941 -0.3022  1.1625
 3658SOL    HW218215   5.214  12.533   7.368  0.9847 -0.2542 -0.4368
 3659SOL     OW18216   7.159   2.842  10.759 -0.3537  0.6689 -0.3020
 3659SOL    HW118217   7.248   2.875  10.769  0.8947 -1.8918 -1.8577
 3659SOL    HW218218   7.123   2.891  10.685 -0.2934  1.7486  0.3658
 3660SOL     OW18219   4.983  10.179   5.548 -0.5544  0.1530  0.3806
 3660SOL    HW118220   4.909  10.119   5.557  0.3267 -0.6875  2.6117
 3660SOL    HW218221   5.022  10.157   5.463 -2.5905  0.3512 -0.6544
 3661SOL     OW18222   5.837   3.878  11.648 -1.0088  0.0903 -0.0219
 3661SOL    HW118223   5.760   3.874  11.705 -2.3824  0.2773 -1.7951
 3661SOL    HW218224   5.875   3.964  11.667 -0.3705 -0.5539  1.8787
 3662SOL     OW18225   6.671   7.294  12.610 -0.0586  0.0541  0.5357
 3662SOL    HW118226   6.739   7.361  12.609  1.6528 -1.5907  1.1095
 3662SOL    HW218227   6.591   7.341  12.636  0.8044  2.0540 -0.2486
 3663SOL     OW18228   2.863   5.981   8.708  0.4533 -0.3105  0.2217
 3663SOL    HW118229   2.824   5.960   8.623  0.5997  0.5123 -0.0572
 3663SOL    HW218230   2.808   5.935   8.772  0.3919 -1.0077 -0.3135
 3664SOL     OW18231   1.635  11.174   0.302 -0.0802  0.3031  0.3044
 3664SOL    HW118232   1.591  11.143   0.223 -0.2416  0.8967  0.1586
 3664SOL    HW218233   1.566  11.172   0.369  0.1435 -0.5414  0.5279
 3665SOL     OW18234   3.946  10.863  10.465  0.0429 -0.0255  0.2124
 3665SOL    HW118235   4.005  10.881  10.392  1.3967 -1.1108  0.9949
 3665SOL    HW218236   3.865  10.834  10.423  0.7967 -0.6541 -0.8708
 3666SOL     OW18237  12.014  11.779   9.942  0.3813 -0.4128  0.2764
 3666SOL    HW118238  12.094  11.794   9.991  0.3088 -0.6660  0.4768
 3666SOL    HW218239  11.999  11.860   9.893  1.1562 -0.6224 -0.3302
 3667SOL     OW18240  10.523   3.504  10.382 -0.4967 -0.2232  0.2474
 3667SOL    HW118241  10.579   3.581  10.383 -0.7257 -0.0318 -0.8421
 3667SOL    HW218242  10.560   3.447  10.450 -0.5126  0.9537  1.2716
 3668SOL     OW18243   4.622   8.637  11.446 -0.4523 -0.0952  0.1468
 3668SOL    HW118244   4.609   8.726  11.479  0.7377 -0.6894  2.4662
 3668SOL    HW218245   4.670   8.648  11.364 -1.6280  1.4166 -0.3860
 3669SOL     OW18246   1.447   2.938   8.290 -0.4910  0.2407  0.0276
 3669SOL    HW118247   1.441   3.025   8.328  1.1627  0.1249  0.6394
 3669SOL    HW218248   1.477   2.953   8.200 -2.6113  0.4076 -0.6999
 3670SOL     OW18249   8.516   6.161   2.384 -0.0653 -0.0378  0.4328
 3670SOL    HW118250   8.528   6.113   2.466  2.6550 -1.2783 -0.5891
 3670SOL    HW218251   8.590   6.222   2.381 -0.3185  0.2384 -0.9200
 3671SOL     OW18252   1.864   4.504   5.129 -0.0668 -0.4126  0.5584
 3671SOL    HW118253   1.838   4.562   5.057  1.2318 -0.9925 -0.4176
 3671SOL    HW218254   1.944   4.462   5.098  0.3425 -0.9326  2.2209
 3672SOL     OW18255  10.100   0.758   0.516 -0.0000  0.2911 -0.0736
 3672SOL    HW118256  10.008   0.733   0.518 -0.4911  1.8307 -1.4556
 3672SOL    HW218257  10.144   0.683   0.477 -0.8483  0.0192 -0.5243
 3673SOL     OW18258  10.312  10.955   8.780 -0.6757 -0.1283  0.3651
 3673SOL    HW118259  10.346  10.883   8.727 -1.2401 -0.8986  1.0103
 3673SOL    HW218260  10.256  11.005   8.721  0.2969  0.2160 -0.2803
 3674SOL     OW18261   2.637   4.902   7.450  0.3995  0.3807  0.3731
 3674SOL    HW118262   2.569   4.968   7.437  0.2731  0.1980  0.1252
 3674SOL    HW218263   2.611   4.828   7.397  0.4302  0.0408  0.8235
 3675SOL     OW18264   5.142  10.836   4.469  0.1478  0.3664 -0.2565
 3675SOL    HW118265   5.079  10.884   4.523  1.6374  2.1967 -0.0575
 3675SOL    HW218266   5.151  10.752   4.513  1.2206  1.7394  2.3814
 3676SOL     OW18267   7.737   0.860  10.503  0.4414  0.2050 -0.0067
 3676SOL    HW118268   7.674   0.899  10.563 -0.5712  0.3674 -1.1439
 3676SOL    HW218269   7.689   0.788  10.462  1.0762  0.1796 -0.7219
 3677SOL     OW18270   0.891   7.671   5.393  0.3756 -0.1544  0.2869
 3677SOL    HW118271   0.872   7.656   5.486 -3.2237 -1.1749 -0.4402
 3677SOL    HW218272   0.856   7.758   5.375  0.7393 -0.1038 -0.1890
 3678SOL     OW18273   6.143  10.358  10.824 -0.0442  0.3713  0.1277
 3678SOL    HW118274   6.056  10.392  10.804 -0.6503 -1.2191 -0.1212
 3678SOL    HW218275   6.148  10.276  10.775  1.6190  0.4467  0.1185
 3679SOL     OW18276   4.917   6.299  10.588 -0.3445 -0.8200 -0.1453
 3679SOL    HW118277   4.869   6.321  10.668  0.4855 -1.5827  0.5785
 3679SOL    HW218278   4.849   6.269  10.527 -1.2107  1.3648 -0.3541
 3680SOL     OW18279  11.450   9.344   3.396 -0.5319  0.1525 -0.3136
 3680SOL    HW118280  11.412   9.422   3.436  0.3024  0.4099 -0.0059
 3680SOL    HW218281  11.482   9.374   3.310 -0.9971 -0.0580 -0.5636
 3681SOL     OW18282  11.664   5.494   3.929 -0.5584 -0.1343  0.0195
 3681SOL    HW118283  11.690   5.405   3.907 -0.0193  0.4332 -1.8640
 3681SOL    HW218284  11.582   5.508   3.881  1.5380  1.7257 -3.4656
 3682SOL     OW18285   5.011   5.259   7.703 -0.0273 -0.1941 -0.0493
 3682SOL    HW118286   5.104   5.234   7.701 -0.6452 -2.8029 -0.7808
 3682SOL    HW218287   4.991   5.268   7.796  0.9238  0.2705  0.1232
 3683SOL     OW18288   6.890   9.735  11.843 -0.0880  0.2064 -0.1662
 3683SOL    HW118289   6.841   9.808  11.805  0.0480  0.0477 -0.6656
 3683SOL    HW218290   6.828   9.693  11.903 -0.2337  0.6063 -0.0356
 3684SOL     OW18291   0.966   6.406   3.831  0.0315 -0.4790 -0.0403
 3684SOL    HW118292   1.060   6.414   3.816  0.3701 -2.4392  0.6547
 3684SOL    HW218293   0.959   6.343   3.903 -1.7781  1.1420  1.2737
 3685SOL     OW18294   3.123   6.620  11.934  0.1452  0.4989  0.0574
 3685SOL    HW118295   3.139   6.527  11.916 -0.2730  0.3472  0.4523
 3685SOL    HW218296   3.157   6.665  11.857 -1.3095 -0.1101 -1.0085
 3686SOL     OW18297  10.170  11.104   5.324 -0.2222  0.1606 -0.0867
 3686SOL    HW118298  10.157  11.014   5.295  1.3063  0.2326 -1.0873
 3686SOL    HW218299  10.197  11.152   5.245 -1.7496  1.7016  0.2435
 3687SOL     OW18300   8.416   3.509  11.061 -0.0571 -0.0950 -0.4042
 3687SOL    HW118301   8.501   3.554  11.061  0.2977 -0.7139 -1.5955
 3687SOL    HW218302   8.420   3.449  11.136  1.5630 -1.8580 -1.7922
 3688SOL     OW18303   2.676  10.460  10.992 -0.2585 -0.0996  0.6152
 3688SOL    HW118304   2.656  10.388  10.933 -0.3796 -0.1301  0.6946
 3688SOL    HW218305   2.611  10.528  10.972 -0.9647 -0.5186  1.4400
 3689SOL     OW18306   4.904   6.151   9.738  0.2138  0.1747  0.0234
 3689SOL    HW118307   4.884   6.108   9.821 -0.4030 -0.2499 -0.3355
 3689SOL    HW218308   4.823   6.143   9.687  1.1300 -1.1842 -1.3117
 3690SOL     OW18309   7.845  12.708   5.737  0.3300 -0.1452  0.0141
 3690SOL    HW118310   7.799  12.734   5.658 -0.0252  0.1027  0.3011
 3690SOL    HW218311   7.823  12.775   5.801 -0.6893 -1.1980  0.7974
 3691SOL     OW18312  10.322   3.552   8.675  0.0592 -0.2107  0.1931
 3691SOL    HW118313  10.416   3.537   8.670  0.0909  0.1269 -0.2928
 3691SOL    HW218314  10.298   3.584   8.589 -0.0765  2.0401  1.0031
 3692SOL     OW18315   8.103   6.506   7.165  0.2766  0.3054 -0.3737
 3692SOL    HW118316   8.183   6.467   7.131  2.1020  2.9856  0.5645
 3692SOL    HW218317   8.051   6.431   7.195  2.3025 -1.5337 -1.1970
 3693SOL     OW18318   3.587   5.957   2.813 -0.8706  0.4999 -0.0434
 3693SOL    HW118319   3.676   5.947   2.780  0.1638 -0.7896  2.8170
 3693SOL    HW218320   3.579   6.050   2.834  0.3459  0.3798  1.0229
 3694SOL     OW18321   2.624   8.611   9.657  0.0153 -0.0264  0.6629
 3694SOL    HW118322   2.552   8.634   9.717  0.6287 -0.4479  1.5961
 3694SOL    HW218323   2.683   8.686   9.660 -1.4917  1.3909 -1.9672
 3695SOL     OW18324  10.966   7.791   8.990  0.4941 -0.2082 -0.4279
 3695SOL    HW118325  10.897   7.742   8.945 -0.1850 -0.6919  1.0517
 3695SOL    HW218326  10.962   7.878   8.951 -0.2655 -0.5201 -1.0892
 3696SOL     OW18327   4.530   3.935   7.215  0.2175  0.4177 -0.0578
 3696SOL    HW118328   4.599   3.894   7.163 -0.0130 -1.0999  0.7772
 3696SOL    HW218329   4.568   4.018   7.244  0.8421  0.6573 -1.4700
 3697SOL     OW18330   0.032   3.815   3.835 -0.0310 -0.3277 -0.3064
 3697SOL    HW118331   0.066   3.726   3.840 -0.0200 -0.3293 -0.4157
 3697SOL    HW218332   0.054   3.844   3.747  0.2803 -0.0889 -0.1521
 3698SOL     OW18333   7.197   5.874   9.953  0.4110 -0.2675  0.3473
 3698SOL    HW118334   7.149   5.871  10.036  0.4525  0.2725  0.3978
 3698SOL    HW218335   7.236   5.962   9.951  0.4759 -0.3030 -0.2074
 3699SOL     OW18336   9.516   5.777   1.726 -0.2213  0.8755 -0.1264
 3699SOL    HW118337   9.556   5.756   1.810  0.1790 -1.6065 -0.8787
 3699SOL    HW218338   9.455   5.706   1.710 -1.2592  1.9971 -1.3690
 3700SOL     OW18339   9.697  11.732   5.664 -0.5692  0.3025 -0.0450
 3700SOL    HW118340   9.638  11.722   5.590 -2.1964  2.4686  0.8296
 3700SOL    HW218341   9.643  11.771   5.733  1.4843  0.7705  1.4167
 3701SOL     OW18342  10.509   2.825   4.649  0.2434 -0.1632  0.6920
 3701SOL    HW118343  10.576   2.827   4.717 -0.0718  0.8649  0.9946
 3701SOL    HW218344  10.431   2.863   4.691  0.0033  0.3456 -0.1964
 3702SOL     OW18345   5.049   1.851   3.174  0.0756 -0.7509 -0.0917
 3702SOL    HW118346   5.142   1.867   3.189  0.4775 -3.0731  0.3349
 3702SOL    HW218347   5.048   1.785   3.104 -1.3802  1.1145 -1.9462
 3703SOL     OW18348   9.674  10.010   7.983  0.0052 -0.5373 -0.0807
 3703SOL    HW118349   9.588  10.026   7.945 -0.4104  0.7039  1.2884
 3703SOL    HW218350   9.724   9.968   7.913 -1.5287 -0.7727 -1.0809
 3704SOL     OW18351   2.500   0.751  11.525 -0.9797  0.0970  0.1423
 3704SOL    HW118352   2.540   0.688  11.585 -0.9772 -1.0035 -0.9723
 3704SOL    HW218353   2.453   0.813  11.582 -1.6140 -1.3466  1.2513
 3705SOL     OW18354  10.808   0.851   3.183 -0.8937 -0.2137 -0.2138
 3705SOL    HW118355  10.876   0.820   3.123 -0.8679 -2.1193  0.7039
 3705SOL    HW218356  10.826   0.804   3.264 -1.5248  1.5435  0.9947
 3706SOL     OW18357   2.046   3.718  10.596 -0.4323 -0.2102 -0.1659
 3706SOL    HW118358   1.973   3.664  10.565 -0.4985  0.6683 -1.6330
 3706SOL    HW218359   2.011   3.807  10.601  0.2293  0.0394  0.2505
 3707SOL     OW18360   5.731   3.192   2.268 -0.2212  0.1447  0.0897
 3707SOL    HW118361   5.680   3.264   2.304 -0.2452 -0.0437  0.4403
 3707SOL    HW218362   5.769   3.227   2.187 -1.5514  0.0351 -0.6038
 3708SOL     OW18363   5.703   8.838   4.864  0.3540  0.0174 -0.2885
 3708SOL    HW118364   5.615   8.861   4.895  0.1791 -0.6073 -0.3127
 3708SOL    HW218365   5.742   8.922   4.841  0.6326  0.5802  2.0005
 3709SOL     OW18366  12.405  11.765   9.755  0.0717 -0.2632  0.4110
 3709SOL    HW118367  12.451  11.748   9.838 -0.7422  1.2945  1.2291
 3709SOL    HW218368  12.333  11.702   9.754  0.3056 -0.5437  0.6944
 3710SOL     OW18369  10.952  10.505   7.928  0.4600 -0.1894 -0.2977
 3710SOL    HW118370  10.923  10.576   7.986 -1.6442 -1.6766  0.6092
 3710SOL    HW218371  10.961  10.546   7.842  0.3444  1.3631  0.3864
 3711SOL     OW18372   5.063   0.833  10.703  0.1099  0.4926 -0.0687
 3711SOL    HW118373   4.993   0.887  10.739 -0.5406  0.6276 -1.4600
 3711SOL    HW218374   5.104   0.793  10.779 -1.2956  0.6333  0.8073
 3712SOL     OW18375  12.482  12.523  12.292  0.1023  0.2746  0.1686
 3712SOL    HW118376  12.476  12.581  12.369  0.5162  2.6598 -1.4885
 3712SOL    HW218377  12.574  12.497  12.288  0.1300  0.3449  0.3412
 3713SOL     OW18378   3.992  12.166   1.580  0.3271 -0.2256 -0.0422
 3713SOL    HW118379   4.072  12.125   1.546 -0.4108 -0.8239 -1.1179
 3713SOL    HW218380   3.929  12.094   1.586  0.0143  0.1444  1.2817
 3714SOL     OW18381  12.493   1.703   8.101 -0.6831  0.3083  0.4865
 3714SOL    HW118382  12.399   1.718   8.107 -1.0524 -1.4880 -0.3879
 3714SOL    HW218383  12.511   1.697   8.007  0.1130 -0.5028  0.6757
 3715SOL     OW18384   9.981   1.209   7.371 -1.3779  0.1284 -0.2787
 3715SOL    HW118385   9.898   1.170   7.398 -0.2787 -0.8527  1.9822
 3715SOL    HW218386  10.024   1.234   7.453 -0.0388  1.9600 -1.4510
 3716SOL     OW18387  11.134  10.581   1.256  0.4451  0.3115 -0.0120
 3716SOL    HW118388  11.043  10.611   1.264  0.0252 -0.7581 -0.5618
 3716SOL    HW218389  11.163  10.567   1.346  0.6688  2.2932  0.2824
 3717SOL     OW18390   4.353   1.857   5.675 -0.0504  0.3775  0.0658
 3717SOL    HW118391   4.352   1.912   5.753  2.8240  0.1363  0.3991
 3717SOL    HW218392   4.347   1.919   5.602 -1.1376  0.7383  0.4502
 3718SOL     OW18393   5.571   2.853  11.329 -0.4646 -0.1176 -0.3417
 3718SOL    HW118394   5.613   2.902  11.399  1.3569 -0.8840 -0.8457
 3718SOL    HW218395   5.585   2.905  11.251 -0.0968 -0.5548 -0.5752
 3719SOL     OW18396  12.441   7.058   2.949 -0.6246 -0.0673 -0.6829
 3719SOL    HW118397  12.498   6.997   2.995 -0.1972  1.8038  1.4243
 3719SOL    HW218398  12.366   7.004   2.922 -0.0710 -1.6256  0.6787
 3720SOL     OW18399   1.686   5.613  10.776  0.6116  0.0521  0.1156
 3720SOL    HW118400   1.665   5.521  10.786 -1.3752  0.2478 -1.5434
 3720SOL    HW218401   1.643   5.656  10.850  1.4144 -0.3197  0.8060
 3721SOL     OW18402   9.872   4.635   8.785  0.0539  0.5526  0.1013
 3721SOL    HW118403   9.887   4.580   8.862  0.1741  0.7831  0.2424
 3721SOL    HW218404   9.794   4.685   8.807  0.0334  0.5499  0.0338
 3722SOL     OW18405   7.318   1.729   8.480 -0.3245 -0.3064  0.4318
 3722SOL    HW118406   7.244   1.696   8.429 -0.4592  0.8304 -0.1482
 3722SOL    HW218407   7.394   1.681   8.447 -0.6811 -0.9456  0.5132
 3723SOL     OW18408   3.181   3.011  12.578 -0.2270 -0.1963 -0.3530
 3723SOL    HW118409   3.160   2.998  12.671  1.8087 -0.8825  0.0460
 3723SOL    HW218410   3.107   3.062  12.545 -0.6598  0.7217  1.8182
 3724SOL     OW18411   5.049   9.335   0.562  0.0653 -0.0823  0.2273
 3724SOL    HW118412   5.115   9.302   0.623  0.2645  0.8050  0.5062
 3724SOL    HW218413   4.996   9.395   0.615 -1.5679 -1.4755  0.2506
 3725SOL     OW18414   5.861   9.107   9.115 -0.3735  0.4488  0.1487
 3725SOL    HW118415   5.871   9.094   9.020  0.2406 -0.7928  0.3601
 3725SOL    HW218416   5.794   9.175   9.122  0.9106  1.9362 -1.1937
 3726SOL     OW18417   8.673   0.008  11.049 -0.2117 -0.0328  0.2877
 3726SOL    HW118418   8.764  -0.010  11.023 -0.3451 -0.8858  0.3647
 3726SOL    HW218419   8.675   0.004  11.145  0.0322  1.8494  0.3898
 3727SOL     OW18420   3.963  11.923  12.623  0.4488  0.1252 -0.5513
 3727SOL    HW118421   3.994  12.000  12.671 -0.0400  1.2895 -2.0012
 3727SOL    HW218422   4.042  11.872  12.607  1.3313  1.8501 -2.1276
 3728SOL     OW18423   6.362   0.634   8.991  0.1917  0.1424  0.2829
 3728SOL    HW118424   6.441   0.591   9.025 -1.0492 -1.7557  0.9168
 3728SOL    HW218425   6.321   0.672   9.069 -1.6408 -2.5302  0.7597
 3729SOL     OW18426   5.326   4.936   6.825  0.5644  0.0763  0.3721
 3729SOL    HW118427   5.281   4.857   6.855 -0.0268  0.4784  0.5831
 3729SOL    HW218428   5.344   4.920   6.733 -1.4032  0.4842 -0.1393
 3730SOL     OW18429   2.757   5.015   6.627  0.4013  0.0078  0.2374
 3730SOL    HW118430   2.798   5.099   6.647  1.3101 -0.6586  1.3093
 3730SOL    HW218431   2.704   4.995   6.704 -1.0462  0.2888 -0.6419
 3731SOL     OW18432  11.739   0.342   8.744 -0.3112 -0.5012 -0.8153
 3731SOL    HW118433  11.760   0.359   8.835 -0.0269 -1.1703 -0.7522
 3731SOL    HW218434  11.761   0.423   8.698  1.6750 -0.8945 -0.6365
 3732SOL     OW18435   0.369  11.745   7.512 -0.2689 -0.2659  0.1307
 3732SOL    HW118436   0.345  11.713   7.425  0.9267  0.5700 -0.5359
 3732SOL    HW218437   0.459  11.714   7.525  0.1628  0.9861  0.3431
 3733SOL     OW18438   7.439  12.033  12.375 -0.3963  0.0402  0.4037
 3733SOL    HW118439   7.466  12.091  12.304  0.0333 -0.5872  0.0428
 3733SOL    HW218440   7.360  12.073  12.410 -0.5554  0.4156 -0.3671
 3734SOL     OW18441   8.202   0.888   7.637 -0.2391  0.3430  0.3612
 3734SOL    HW118442   8.111   0.887   7.666 -0.5602 -0.5927 -0.5847
 3734SOL    HW218443   8.239   0.806   7.671 -0.2650 -0.1384 -0.7021
 3735SOL     OW18444   7.136   7.582  11.785  0.0076 -0.4346  0.1571
 3735SOL    HW118445   7.211   7.603  11.841 -0.1391 -0.2304  0.2766
 3735SOL    HW218446   7.097   7.505  11.826 -0.2504 -0.1340  0.4831
 3736SOL     OW18447   7.049   1.551  10.240  0.0464 -0.2956  0.6282
 3736SOL    HW118448   6.993   1.522  10.168  1.6014  0.0921 -0.8014
 3736SOL    HW218449   6.994   1.611  10.291 -0.8720 -0.0091 -0.6531
 3737SOL     OW18450   1.840   3.009  10.524  0.3114  0.3401 -0.3486
 3737SOL    HW118451   1.902   3.058  10.578  0.2821  0.4669 -0.4279
 3737SOL    HW218452   1.768   2.989  10.583  0.4382  0.1698 -0.2480
 3738SOL     OW18453   3.605   5.211   1.416  0.0186 -0.7342  0.0395
 3738SOL    HW118454   3.643   5.179   1.498  1.5855 -0.3355 -0.4929
 3738SOL    HW218455   3.552   5.138   1.384 -0.2220 -1.0700  1.1592
 3739SOL     OW18456   7.076   1.750   7.422  0.4469 -0.2513  0.2972
 3739SOL    HW118457   7.165   1.718   7.411  1.1664  2.2724 -2.3561
 3739SOL    HW218458   7.028   1.713   7.348  0.2799  1.3905 -0.4460
 3740SOL     OW18459   7.467   0.783   7.639  0.0720  0.5320  0.1735
 3740SOL    HW118460   7.496   0.870   7.613 -0.0173  0.5985  0.2978
 3740SOL    HW218461   7.504   0.725   7.573 -0.4353  0.7374 -0.3083
 3741SOL     OW18462   0.605  12.603   7.982  0.2649 -0.2695 -0.1397
 3741SOL    HW118463   0.560  12.684   8.007 -0.1599 -0.7651  0.7699
 3741SOL    HW218464   0.540  12.534   7.996  1.5010 -1.1035  2.0089
 3742SOL     OW18465   9.495   5.453   6.585 -0.2205  0.1434  0.5817
 3742SOL    HW118466   9.406   5.488   6.579  0.1379  0.9347 -0.2999
 3742SOL    HW218467   9.483   5.358   6.587 -1.0512  0.2122 -0.4175
 3743SOL     OW18468   2.631   2.214   2.666  0.2374 -0.6149 -0.0714
 3743SOL    HW118469   2.585   2.133   2.685  1.2404 -1.4184 -0.9872
 3743SOL    HW218470   2.711   2.210   2.719  0.1614 -0.0895  0.0913
 3744SOL     OW18471   2.180   5.188   6.798  0.0197  0.4510  0.7258
 3744SOL    HW118472   2.214   5.133   6.727 -0.2477 -1.2321  1.8341
 3744SOL    HW218473   2.258   5.221   6.842  0.2137 -0.1609  0.8574
 3745SOL     OW18474   1.275   7.387  10.434  0.2995 -0.8775 -0.1235
 3745SOL    HW118475   1.225   7.344  10.504  0.1538  1.7795  1.5639
 3745SOL    HW218476   1.211   7.403  10.365 -0.4681 -0.3748  0.6778
 3746SOL     OW18477  11.879   4.426   9.253  0.3036 -0.6515  0.1940
 3746SOL    HW118478  11.815   4.412   9.322  0.3768 -1.0991  0.1738
 3746SOL    HW218479  11.939   4.352   9.261  0.3040 -0.7113 -0.3580
 3747SOL     OW18480   2.352   8.971  12.288 -0.1576  0.3748 -0.5719
 3747SOL    HW118481   2.443   8.996  12.271 -0.4042  0.9391 -1.1256
 3747SOL    HW218482   2.301   9.046  12.256 -0.9020 -0.6010 -1.7566
 3748SOL     OW18483   7.996   3.337  11.865 -0.0516 -0.3117 -0.3589
 3748SOL    HW118484   8.017   3.385  11.945 -0.9863  0.1097 -0.3551
 3748SOL    HW218485   8.045   3.255  11.873  0.8634  0.2552  0.0408
 3749SOL     OW18486   0.213   9.323  12.528 -0.0594 -0.3309  0.0800
 3749SOL    HW118487   0.219   9.247  12.585 -3.4014 -0.2715  0.6838
 3749SOL    HW218488   0.227   9.398  12.586 -0.1422 -0.3799  0.1634
 3750SOL     OW18489   6.536   1.327  12.609  0.7072 -0.4251 -0.2375
 3750SOL    HW118490   6.530   1.302  12.517 -0.6838  0.5731 -0.4627
 3750SOL    HW218491   6.450   1.305  12.645  1.0462 -0.2752  0.6867
 3751SOL     OW18492   0.120  10.383   5.685  0.1258 -0.3460 -0.1109
 3751SOL    HW118493   0.041  10.337   5.711 -0.4473  0.7401  0.1479
 3751SOL    HW218494   0.192  10.327   5.715 -0.5402 -0.8009  0.6708
 3752SOL     OW18495   7.509   7.798   9.839  0.1643 -0.4068  0.6269
 3752SOL    HW118496   7.482   7.713   9.872  1.7931 -0.8799  0.7955
 3752SOL    HW218497   7.601   7.806   9.863 -0.3106  2.0850  2.0617
 3753SOL     OW18498   1.615   1.245   2.424  0.2439 -0.1307 -0.5385
 3753SOL    HW118499   1.640   1.153   2.435  3.1726  0.7290  0.7392
 3753SOL    HW218500   1.564   1.246   2.342 -1.0718 -3.0359  0.0929
 3754SOL     OW18501   0.304   2.276  12.290  0.3246  0.0662  0.5274
 3754SOL    HW118502   0.245   2.310  12.357 -0.0358 -0.7088  0.6208
 3754SOL    HW218503   0.248   2.259  12.215  0.2860 -1.3065  0.8406
 3755SOL     OW18504   0.639   8.510   0.673  0.0368 -0.0723 -0.7194
 3755SOL    HW118505   0.626   8.479   0.763 -2.1295  3.3232  0.3375
 3755SOL    HW218506   0.567   8.471   0.624  0.0416 -0.3739 -0.4872
 3756SOL     OW18507   6.887   3.727  12.227 -0.5343  0.1081 -0.1819
 3756SOL    HW118508   6.842   3.811  12.238 -1.3673 -0.1685 -1.2538
 3756SOL    HW218509   6.817   3.665  12.208  0.1032 -0.7900  0.3553
 3757SOL     OW18510   7.836   4.020   0.268 -0.4568  0.3617  0.1772
 3757SOL    HW118511   7.840   4.115   0.261 -0.2172  0.3281 -0.2074
 3757SOL    HW218512   7.827   3.990   0.177 -0.1679  0.0054  0.2614
 3758SOL     OW18513   9.557  11.456   1.027 -0.2201 -0.1205 -0.0332
 3758SOL    HW118514   9.562  11.464   0.931  0.4560  0.4717  0.0494
 3758SOL    HW218515   9.601  11.373   1.046  0.5672  0.2604 -0.1539
 3759SOL     OW18516   2.369  12.503   6.401 -0.1649 -0.0771 -0.6429
 3759SOL    HW118517   2.348  12.429   6.458 -2.5675  0.4196 -0.7769
 3759SOL    HW218518   2.390  12.463   6.317 -1.4542 -0.6568 -0.7168
 3760SOL     OW18519   1.678   8.172   2.351 -0.0337  0.0170 -0.3664
 3760SOL    HW118520   1.652   8.263   2.360 -2.1661 -0.6912  1.8473
 3760SOL    HW218521   1.663   8.151   2.259 -0.5981  1.5788 -0.6536
 3761SOL     OW18522  10.655   3.186   8.948  0.3619  0.1423  0.2889
 3761SOL    HW118523  10.650   3.276   8.918  2.3787 -0.0830 -0.8982
 3761SOL    HW218524  10.690   3.137   8.873 -2.6581 -2.0661  0.1149
 3762SOL     OW18525   6.281   2.707   3.718 -0.0992 -0.6514 -0.1542
 3762SOL    HW118526   6.246   2.642   3.658 -0.6125 -1.7211  1.2437
 3762SOL    HW218527   6.236   2.691   3.801 -1.1224  2.2525 -0.0296
 3763SOL     OW18528   6.964   1.431   2.001  0.5387 -0.9264 -0.5669
 3763SOL    HW118529   6.870   1.413   2.002  0.1486  0.8953  0.4630
 3763SOL    HW218530   7.004   1.349   1.972 -1.3670 -1.6912 -1.1838
 3764SOL     OW18531  12.266   6.705   7.423  0.9859 -0.1691  0.1614
 3764SOL    HW118532  12.308   6.727   7.506 -1.3135  1.8179  0.9112
 3764SOL    HW218533  12.183   6.664   7.449  0.9537 -1.0382 -1.2057
 3765SOL     OW18534  11.568   8.657   0.058  0.4854  0.0478 -0.2123
 3765SOL    HW118535  11.662   8.639   0.052  0.7118  0.3443  1.6437
 3765SOL    HW218536  11.562   8.736   0.112 -0.8351 -0.0566 -0.1641
 3766SOL     OW18537   8.532   1.646   8.827  0.3501  0.5388  0.3844
 3766SOL    HW118538   8.563   1.572   8.774  0.0367 -0.8892  2.0787
 3766SOL    HW218539   8.437   1.648   8.812 -0.1495 -1.4740  2.6376
 3767SOL     OW18540   8.500   8.527   5.561  0.1637 -0.2714  0.0767
 3767SOL    HW118541   8.582   8.543   5.608 -0.4600  1.1389  0.7378
 3767SOL    HW218542   8.527   8.478   5.483  1.8332  1.1546 -0.3271
 3768SOL     OW18543   8.282   4.418   5.625  0.1147 -0.0709 -0.1564
 3768SOL    HW118544   8.318   4.472   5.554  0.2925 -1.3015 -1.0331
 3768SOL    HW218545   8.357   4.399   5.681 -0.1706  1.5488  0.8265
 3769SOL     OW18546   4.308   7.382   0.145  0.0076 -0.4719 -0.2261
 3769SOL    HW118547   4.216   7.370   0.165  0.2275 -0.5718  0.7848
 3769SOL    HW218548   4.339   7.446   0.209  1.0781 -1.8787  0.7273
 3770SOL     OW18549   2.327   3.552   0.451 -0.1560 -0.1358 -0.4981
 3770SOL    HW118550   2.387   3.479   0.466 -1.0287 -0.6972  0.4938
 3770SOL    HW218551   2.319   3.558   0.356  0.9935 -0.4359 -0.6253
 3771SOL     OW18552   7.734   6.770   5.535 -0.2273 -0.6252 -0.6536
 3771SOL    HW118553   7.721   6.861   5.565 -0.5565 -0.5928 -0.8842
 3771SOL    HW218554   7.751   6.778   5.441 -1.7365 -0.8939 -0.9749
 3772SOL     OW18555   5.635   9.445   4.169  0.5913 -0.2279  0.2637
 3772SOL    HW118556   5.607   9.360   4.135 -0.0431 -0.1045  0.4604
 3772SOL    HW218557   5.701   9.424   4.235  0.2555 -0.5863  0.4884
 3773SOL     OW18558   8.160   9.442   4.502  0.3788 -0.2964  0.2375
 3773SOL    HW118559   8.097   9.510   4.527 -0.0375 -1.2332  1.8542
 3773SOL    HW218560   8.116   9.393   4.433 -0.9006 -1.1965  1.6286
 3774SOL     OW18561  11.431   3.050   0.782  1.0616  0.1983  0.0649
 3774SOL    HW118562  11.420   3.078   0.873  0.8591  0.5550 -0.0690
 3774SOL    HW218563  11.523   3.025   0.776  1.4102  1.4303  0.0210
 3775SOL     OW18564   2.758   1.487  12.489  0.4310 -0.0802 -0.2451
 3775SOL    HW118565   2.821   1.542  12.534 -0.6738  0.2852  0.9001
 3775SOL    HW218566   2.784   1.398  12.511  0.4862  0.0702  0.3055
 3776SOL     OW18567   6.476   3.462   3.925  0.1452 -0.0429  0.1136
 3776SOL    HW118568   6.440   3.374   3.935 -0.9815  0.4632  0.7582
 3776SOL    HW218569   6.474   3.499   4.013  2.2540  0.0474  0.1809
 3777SOL     OW18570  10.099   8.407  10.740 -0.3617  0.1292 -0.0133
 3777SOL    HW118571  10.155   8.358  10.681  0.3205  0.2057  0.5581
 3777SOL    HW218572  10.038   8.342  10.775  0.0828 -0.1706  0.2075
 3778SOL     OW18573   9.142   6.149   8.815 -0.2076  0.2388  0.8336
 3778SOL    HW118574   9.105   6.212   8.877  0.5767  0.9961  0.5481
 3778SOL    HW218575   9.237   6.157   8.826 -0.0234  0.7260 -0.7611
 3779SOL     OW18576   5.007  10.421   2.576 -0.4593 -0.1647 -0.1211
 3779SOL    HW118577   5.099  10.431   2.599 -0.8700  1.2871  0.9699
 3779SOL    HW218578   4.966  10.504   2.601 -2.4457 -1.4771  1.2905
 3780SOL     OW18579  12.476   2.419   9.161  0.0390 -0.0500  0.2287
 3780SOL    HW118580  12.539   2.393   9.094 -0.4014 -3.0503  0.8638
 3780SOL    HW218581  12.517   2.394   9.244 -1.0190  0.1182  0.8210
 3781SOL     OW18582   1.441   4.654   0.048 -0.1492  0.4296  0.0032
 3781SOL    HW118583   1.533   4.659   0.023 -0.3921  2.7821 -0.6411
 3781SOL    HW218584   1.437   4.582   0.110  2.3351  0.8982  0.8112
 3782SOL     OW18585   5.131   0.884  12.082  0.2413  0.3014  0.0434
 3782SOL    HW118586   5.096   0.967  12.114 -0.3436 -0.5002  1.5831
 3782SOL    HW218587   5.224   0.886  12.107  0.6245  1.1345 -1.3396
 3783SOL     OW18588   2.633   3.949   5.383  0.0648  0.3999 -0.0448
 3783SOL    HW118589   2.621   4.043   5.375  4.4652  1.0256 -1.5475
 3783SOL    HW218590   2.647   3.918   5.293 -0.2933 -1.5551  0.5113
 3784SOL     OW18591   8.806   8.822   8.453  0.0631  0.1673 -0.2485
 3784SOL    HW118592   8.868   8.885   8.492  1.0557 -0.5260 -0.6640
 3784SOL    HW218593   8.862   8.762   8.403 -0.9951 -0.2623 -0.9344
 3785SOL     OW18594   8.681   6.274   4.856 -0.1883  0.2611  0.5349
 3785SOL    HW118595   8.709   6.308   4.941 -0.7139  1.0624  0.3984
 3785SOL    HW218596   8.718   6.335   4.793  0.0201 -0.2118  0.1957
 3786SOL     OW18597   0.867   8.781   3.176 -0.1898 -0.2003 -0.0091
 3786SOL    HW118598   0.849   8.783   3.082 -2.0829  0.4600  0.3127
 3786SOL    HW218599   0.866   8.874   3.201 -1.3750 -0.4334  0.9045
 3787SOL     OW18600   6.467   1.056   9.186 -0.1041 -0.2313  0.3689
 3787SOL    HW118601   6.488   1.068   9.278  1.5046 -1.2371  0.1804
 3787SOL    HW218602   6.395   0.992   9.186 -0.3878  0.0861  0.9359
 3788SOL     OW18603  10.887  11.656   0.966  0.0205  0.5462  0.5331
 3788SOL    HW118604  10.917  11.747   0.962 -0.4348  0.7108  0.7612
 3788SOL    HW218605  10.823  11.649   0.895 -3.1457  1.6255  3.0470
 3789SOL     OW18606   4.160   0.027   4.199  0.8605  0.2932  0.3932
 3789SOL    HW118607   4.143  -0.035   4.128  0.6119  0.1210  0.6024
 3789SOL    HW218608   4.091   0.011   4.263  0.5071  1.1110  0.2381
 3790SOL     OW18609   8.693   9.544   6.375  0.0893 -0.3114 -0.0913
 3790SOL    HW118610   8.600   9.556   6.394 -0.4505  1.3457 -3.1377
 3790SOL    HW218611   8.737   9.613   6.424 -0.5533  0.2297 -0.2520
 3791SOL     OW18612  11.328  11.197   6.434  0.1597  0.7541  0.2785
 3791SOL    HW118613  11.284  11.280   6.415 -0.8921  0.6250  1.9125
 3791SOL    HW218614  11.419  11.211   6.408  0.3128  2.8814  1.7461
 3792SOL     OW18615   9.465   1.902   9.312 -0.0228 -0.1947  0.2648
 3792SOL    HW118616   9.477   1.975   9.373 -2.7764 -0.2886  1.0554
 3792SOL    HW218617   9.517   1.925   9.236 -0.0053  2.1062  0.9006
 3793SOL     OW18618   4.206  12.170   7.054  0.1282  0.9221 -0.1575
 3793SOL    HW118619   4.190  12.245   6.997  0.5015  0.9564 -0.2200
 3793SOL    HW218620   4.283  12.194   7.104  1.3788 -0.1504 -1.4695
 3794SOL     OW18621   2.640   9.065   5.857  0.1451  0.3248  0.0521
 3794SOL    HW118622   2.570   9.041   5.918 -0.6632  1.8548 -0.2345
 3794SOL    HW218623   2.682   8.982   5.836 -0.2569 -0.3849  1.8335
 3795SOL     OW18624  11.910   9.410   0.365  0.4367  0.3044 -0.4343
 3795SOL    HW118625  11.891   9.496   0.327  0.7916  0.9401  0.7566
 3795SOL    HW218626  12.001   9.393   0.343  0.8498  0.9924  0.6929
 3796SOL     OW18627   8.095   6.311   3.741  0.2710 -0.4501  0.1629
 3796SOL    HW118628   8.017   6.366   3.729  0.4055 -0.7043 -2.4713
 3796SOL    HW218629   8.064   6.234   3.787 -1.5159 -1.3770 -2.3919
 3797SOL     OW18630   4.056   4.243  11.294 -0.1327 -0.2235 -0.0711
 3797SOL    HW118631   4.097   4.320  11.254 -1.5198  0.0669 -1.0108
 3797SOL    HW218632   4.117   4.172  11.278  0.2501  0.2916 -0.9888
 3798SOL     OW18633   5.925  10.963  10.340 -0.4707  0.3420 -0.1214
 3798SOL    HW118634   5.933  11.050  10.379  0.9556  0.4172 -0.5093
 3798SOL    HW218635   5.870  10.914  10.400 -0.3716  1.1861  0.6764
 3799SOL     OW18636  10.276   9.590   1.729  0.3485  0.1649  0.0754
 3799SOL    HW118637  10.205   9.548   1.779  0.7378 -1.6207 -0.7815
 3799SOL    HW218638  10.240   9.675   1.704 -1.2515 -0.4211  0.2380
 3800SOL     OW18639   9.726   5.706  11.886 -0.0970  0.2839  0.2490
 3800SOL    HW118640   9.666   5.718  11.813  0.0122  0.1187  0.1317
 3800SOL    HW218641   9.806   5.753  11.861  0.4109 -0.8524 -0.3049
 3801SOL     OW18642   6.839   8.337   9.143  0.5273  0.6260 -0.1107
 3801SOL    HW118643   6.859   8.314   9.052  0.4327 -0.1378  0.0553
 3801SOL    HW218644   6.917   8.310   9.192 -0.0545 -0.4290  0.2473
 3802SOL     OW18645   2.747   1.524   8.222 -0.5360 -0.4214  0.1484
 3802SOL    HW118646   2.753   1.536   8.316 -0.1791  1.2345 -0.0568
 3802SOL    HW218647   2.656   1.548   8.200 -0.9176 -1.7631  0.1740
 3803SOL     OW18648   9.878   3.384  11.845  0.0081 -0.3046  0.3064
 3803SOL    HW118649   9.939   3.337  11.789 -0.0755 -1.2189  0.9706
 3803SOL    HW218650   9.863   3.326  11.920 -0.8710  0.3474  0.6604
 3804SOL     OW18651   6.095   9.546   7.479 -0.2195 -0.2626  0.1232
 3804SOL    HW118652   6.150   9.480   7.437 -0.9078  0.0900 -1.3995
 3804SOL    HW218653   6.157   9.614   7.507  0.5211 -1.6246  1.9316
 3805SOL     OW18654   6.656   1.843   9.091  0.3962 -0.8077 -0.0203
 3805SOL    HW118655   6.632   1.808   9.006 -0.5510 -0.5964  0.1479
 3805SOL    HW218656   6.734   1.794   9.117  1.7250  0.2721 -1.7485
 3806SOL     OW18657   6.186   2.074  11.719 -0.6459  0.8141 -0.4980
 3806SOL    HW118658   6.208   2.165  11.737  0.8428  0.3465  0.1489
 3806SOL    HW218659   6.102   2.060  11.763 -0.8472  1.8325 -0.5397
 3807SOL     OW18660   5.236   8.360  10.365 -0.3665  0.2729  0.0560
 3807SOL    HW118661   5.250   8.277  10.319 -0.3571 -0.0689  0.6644
 3807SOL    HW218662   5.169   8.340  10.429 -0.3312  0.7284  0.2342
 3808SOL     OW18663   4.903   2.829   9.291 -0.7664 -0.4592 -0.5231
 3808SOL    HW118664   4.949   2.803   9.370  1.4895  0.7571 -1.3263
 3808SOL    HW218665   4.904   2.751   9.235  1.7915 -0.1004 -1.1091
 3809SOL     OW18666   2.919   4.077   5.030 -0.0989 -0.0318 -0.4246
 3809SOL    HW118667   2.929   4.170   5.047  1.1434  0.1506 -1.9032
 3809SOL    HW218668   2.943   4.035   5.113  0.4101  0.9347 -0.0612
 3810SOL     OW18669   3.964   6.086   1.274  0.6022 -0.2638 -0.0234
 3810SOL    HW118670   3.957   5.996   1.242  0.1682 -1.0071  2.0044
 3810SOL    HW218671   4.054   6.111   1.254  1.0378 -1.5196  0.2767
 3811SOL     OW18672  10.119   4.780  11.431 -0.3880  0.4075 -0.6503
 3811SOL    HW118673  10.117   4.690  11.465  1.0319 -0.7382 -3.2750
 3811SOL    HW218674  10.172   4.828  11.494 -0.4264 -0.8094  0.3591
 3812SOL     OW18675   9.114   2.491  12.184  0.2831  0.5540  0.2576
 3812SOL    HW118676   9.089   2.400  12.170 -0.1271  0.8171 -0.8333
 3812SOL    HW218677   9.195   2.502  12.134  0.5980  0.6621  0.7861
 3813SOL     OW18678   2.894   8.791   3.079 -0.2442 -0.5407  0.3940
 3813SOL    HW118679   2.979   8.801   3.036 -0.4357  0.2194  0.1736
 3813SOL    HW218680   2.835   8.848   3.029 -1.0055 -1.4367  0.2315
 3814SOL     OW18681   9.540   9.935   8.618 -0.1979  0.2356 -0.0897
 3814SOL    HW118682   9.629   9.910   8.643 -0.8873 -1.3490  0.9307
 3814SOL    HW218683   9.518  10.008   8.676 -0.9009 -1.8633  2.5136
 3815SOL     OW18684   1.897   5.852   5.466 -0.0962 -0.7238 -0.1985
 3815SOL    HW118685   1.816   5.852   5.414 -0.2469 -0.8185  0.0329
 3815SOL    HW218686   1.889   5.929   5.522  0.3484 -0.2721 -0.7463
 3816SOL     OW18687   4.927   8.089  10.291  0.4405  0.3118 -0.3119
 3816SOL    HW118688   4.918   8.124  10.380 -0.6804 -0.4678 -0.0979
 3816SOL    HW218689   4.866   8.142  10.239 -0.8550 -0.9045 -0.0914
 3817SOL     OW18690   2.819   8.363   7.333 -0.2395  0.6359  0.4325
 3817SOL    HW118691   2.904   8.401   7.357 -1.3468  3.1180  0.7907
 3817SOL    HW218692   2.839   8.304   7.261  1.6033  2.5007 -0.7214
 3818SOL     OW18693   7.797   9.815   9.973  0.6741  0.1759 -0.0548
 3818SOL    HW118694   7.806   9.771   9.888  1.2051 -1.1751  0.6728
 3818SOL    HW218695   7.873   9.872   9.978  1.4711 -0.8701  0.1351
 3819SOL     OW18696  12.149   8.603   1.208 -0.3087  0.1815 -0.5199
 3819SOL    HW118697  12.089   8.663   1.253  2.1458  3.1629 -0.8146
 3819SOL    HW218698  12.203   8.566   1.278  0.2932  0.9430 -0.5654
 3820SOL     OW18699   4.510   8.284  10.959  0.5377  0.5519 -0.3102
 3820SOL    HW118700   4.456   8.291  10.880 -0.4393  0.8302  0.3643
 3820SOL    HW218701   4.544   8.372  10.973 -0.2830  0.7934  0.2485
 3821SOL     OW18702   8.466   2.099   6.230  0.7840 -0.3747 -0.3891
 3821SOL    HW118703   8.446   2.097   6.324 -0.5475 -0.2644 -0.6506
 3821SOL    HW218704   8.541   2.158   6.224  0.8039 -0.2695  0.6026
 3822SOL     OW18705  12.709   1.253  12.368  0.2079  0.0590 -0.6896
 3822SOL    HW118706  12.675   1.311  12.436 -0.2264  0.4222 -1.2120
 3822SOL    HW218707  12.759   1.310  12.311  1.8929 -0.4843  0.1546
 3823SOL     OW18708   3.456   9.187   2.763  0.4431 -0.3158 -0.1563
 3823SOL    HW118709   3.408   9.249   2.818  0.8816 -1.2119  1.3165
 3823SOL    HW218710   3.481   9.237   2.686 -1.9601  0.4367 -0.5083
 3824SOL     OW18711   7.410   0.691   9.626  0.0986  0.1607 -0.1221
 3824SOL    HW118712   7.418   0.696   9.721  1.4076  1.1643 -0.2598
 3824SOL    HW218713   7.316   0.699   9.610 -0.2393 -0.9262  1.1092
 3825SOL     OW18714   2.755  10.547   4.397 -0.1398 -0.2745  0.1082
 3825SOL    HW118715   2.721  10.540   4.307 -1.8804  1.0069  0.6062
 3825SOL    HW218716   2.677  10.559   4.451  0.9745  0.4354  1.6286
 3826SOL     OW18717   6.109   4.267   1.021 -0.2894  0.9806  0.2207
 3826SOL    HW118718   6.114   4.351   1.068 -0.7834  0.5962  0.9913
 3826SOL    HW218719   6.163   4.207   1.072 -2.3801  0.0453  1.5016
 3827SOL     OW18720   6.944  12.455   5.637  0.4276 -0.2174  0.2882
 3827SOL    HW118721   6.985  12.402   5.568  1.5515  0.4731  0.4042
 3827SOL    HW218722   6.859  12.412   5.653 -0.1319 -0.0634 -1.9284
 3828SOL     OW18723   3.660  11.041   0.801 -0.1059  0.5723  0.6282
 3828SOL    HW118724   3.655  11.004   0.890 -0.1370 -0.2528  0.2946
 3828SOL    HW218725   3.577  11.018   0.761 -0.4197  1.6510  0.6378
 3829SOL     OW18726   4.024   5.826   0.783  0.4191 -0.4898 -0.3241
 3829SOL    HW118727   4.022   5.741   0.741 -0.3697 -1.2753  1.2362
 3829SOL    HW218728   3.951   5.875   0.744  1.0278 -0.4037 -1.4011
 3830SOL     OW18729   8.841   9.274   9.915  0.0445  0.1118  0.6056
 3830SOL    HW118730   8.753   9.289   9.949 -0.4557  0.2869 -0.7016
 3830SOL    HW218731   8.887   9.356   9.930  0.0213 -0.0084  1.3688
 3831SOL     OW18732  10.047   8.603   1.835  0.7906  0.4319 -0.0476
 3831SOL    HW118733  10.131   8.565   1.861  2.1062  2.2299 -1.4025
 3831SOL    HW218734  10.065   8.648   1.752 -1.4591  1.0706 -0.2660
 3832SOL     OW18735   5.944   7.704   5.641  0.2020 -0.1369 -0.2219
 3832SOL    HW118736   5.966   7.787   5.684  1.1426 -0.4647 -0.0530
 3832SOL    HW218737   5.981   7.712   5.554  0.5847 -0.5148 -0.0943
 3833SOL     OW18738   7.927  10.240   7.949  0.3236 -0.2278 -0.1222
 3833SOL    HW118739   7.897  10.156   7.914 -1.4251 -0.1488  1.0615
 3833SOL    HW218740   7.976  10.280   7.877 -0.9911 -1.1485 -1.5931
 3834SOL     OW18741  11.728   1.973   1.782 -0.3356 -0.0599 -0.5638
 3834SOL    HW118742  11.754   2.003   1.695 -0.0624 -1.1337 -0.8695
 3834SOL    HW218743  11.810   1.948   1.825 -0.3032  1.7100  0.5288
 3835SOL     OW18744   3.092   9.562  11.292 -0.1668 -0.2967 -0.2563
 3835SOL    HW118745   3.165   9.555  11.231 -0.5856 -0.8121 -0.7112
 3835SOL    HW218746   3.015   9.572  11.236 -0.4236  0.4648  0.2254
 3836SOL     OW18747   2.095   7.883   4.506  0.3954 -0.0720 -0.2091
 3836SOL    HW118748   2.079   7.794   4.476 -0.2566  0.3148 -1.0409
 3836SOL    HW218749   2.150   7.873   4.584  0.4093 -1.1878 -0.3553
 3837SOL     OW18750   2.283   1.322   0.072 -0.3064 -0.3138 -0.6272
 3837SOL    HW118751   2.307   1.413   0.052 -0.4924 -0.2493 -0.5615
 3837SOL    HW218752   2.341   1.297   0.145  1.4544 -1.0539 -2.1898
 3838SOL     OW18753   4.587  11.583   0.618 -0.0140 -0.0012 -0.0628
 3838SOL    HW118754   4.628  11.506   0.576 -0.0290 -0.2351  0.3461
 3838SOL    HW218755   4.652  11.611   0.683 -0.6385 -0.5794  0.8284
 3839SOL     OW18756   6.009   9.308   1.191 -0.0693  0.0735 -0.2407
 3839SOL    HW118757   5.982   9.284   1.280  0.2702  1.5929  0.3012
 3839SOL    HW218758   5.957   9.252   1.134 -1.5762  0.2728  0.8813
 3840SOL     OW18759   1.427   6.275   5.846 -0.3780  0.0355  0.0192
 3840SOL    HW118760   1.450   6.338   5.914  0.8768  0.7702 -1.0422
 3840SOL    HW218761   1.408   6.328   5.768 -3.6156 -0.6522  0.1662
 3841SOL     OW18762   8.012   8.724   9.584 -0.2410  0.2317  0.2657
 3841SOL    HW118763   8.052   8.681   9.509 -1.6093 -1.2009  0.3197
 3841SOL    HW218764   8.052   8.682   9.660  0.0291  0.6231  0.3463
 3842SOL     OW18765   3.303   3.631   4.535  0.0645  0.3586  0.0298
 3842SOL    HW118766   3.220   3.679   4.541 -0.0216  0.1524  0.5349
 3842SOL    HW218767   3.291   3.572   4.461 -0.6059 -0.3566  0.6941
 3843SOL     OW18768   0.251   8.267  10.187 -0.0479  0.3262  0.1526
 3843SOL    HW118769   0.248   8.171  10.179 -1.6839  0.3796 -0.2733
 3843SOL    HW218770   0.243   8.284  10.280  1.1433  0.0442  0.3193
 3844SOL     OW18771  11.711   1.415   9.567  0.7135  0.6892  0.2555
 3844SOL    HW118772  11.716   1.389   9.659  1.6378  1.4731  0.4467
 3844SOL    HW218773  11.791   1.379   9.528 -1.2014 -2.5829 -1.0871
 3845SOL     OW18774   9.875   2.961   3.820 -0.3121 -0.0632  0.2559
 3845SOL    HW118775   9.791   2.954   3.863 -1.4023  1.4107 -1.4772
 3845SOL    HW218776   9.929   3.014   3.879 -0.5034 -1.1620  1.4544
 3846SOL     OW18777   1.918   4.471   2.373  0.0442 -0.5113 -0.2141
 3846SOL    HW118778   1.895   4.481   2.465  0.6457  0.5174 -0.1617
 3846SOL    HW218779   1.992   4.411   2.373  0.1905 -0.3307 -0.0087
 3847SOL     OW18780   3.516   8.556   2.417 -0.4062 -0.1896  0.0707
 3847SOL    HW118781   3.436   8.510   2.443 -0.5048  0.0263  0.1517
 3847SOL    HW218782   3.565   8.568   2.498 -0.2050 -0.4801 -0.0048
 3848SOL     OW18783  11.465   3.565  12.709  0.1523  0.3582 -0.0300
 3848SOL    HW118784  11.405   3.611  12.768  0.1571 -1.3733  1.4053
 3848SOL    HW218785  11.448   3.473  12.724  2.2928 -0.1829 -0.5274
 3849SOL     OW18786   9.079  11.948  12.509  0.2541 -0.3560  0.5808
 3849SOL    HW118787   9.097  11.997  12.589 -0.1432  1.2399 -0.2733
 3849SOL    HW218788   8.997  11.984  12.475 -0.1480 -1.7424  0.0043
 3850SOL     OW18789   3.992   2.059   0.249  0.2991  0.1766 -0.0055
 3850SOL    HW118790   3.923   2.019   0.302 -0.2255  2.4204  1.1397
 3850SOL    HW218791   4.046   2.105   0.312  0.3662  1.9374 -1.2855
 3851SOL     OW18792   8.447   2.743   7.395 -0.0034  0.5576 -0.0857
 3851SOL    HW118793   8.500   2.669   7.422 -0.1861  1.1512  2.0380
 3851SOL    HW218794   8.509   2.805   7.357  0.3457 -0.0858 -0.5744
 3852SOL     OW18795   1.967   0.331   3.840  0.0705  0.2709 -0.2436
 3852SOL    HW118796   1.892   0.279   3.871  0.6838 -0.9763 -0.8143
 3852SOL    HW218797   2.031   0.325   3.911  1.0847 -1.7732 -1.2577
 3853SOL     OW18798  11.668  11.598   2.002  0.2392  0.0815 -0.5566
 3853SOL    HW118799  11.668  11.606   2.098 -2.2856  2.3511 -0.6041
 3853SOL    HW218800  11.621  11.517   1.985 -1.1606  0.6871  0.1948
 3854SOL     OW18801   8.269  12.462   6.009  0.0686 -0.5593 -0.2439
 3854SOL    HW118802   8.254  12.403   6.083 -1.9384 -0.1781 -0.2798
 3854SOL    HW218803   8.209  12.535   6.024 -0.2555 -0.3743 -2.1317
 3855SOL     OW18804   9.618   1.687  10.530  0.2477 -0.3447  0.7105
 3855SOL    HW118805   9.696   1.643  10.563  0.3642 -0.5467  0.1680
 3855SOL    HW218806   9.561   1.617  10.501  0.9096 -0.1376 -1.2415
 3856SOL     OW18807   6.108   1.661   1.050  0.0624 -0.1160  0.6660
 3856SOL    HW118808   6.108   1.688   1.142  0.1264 -0.4930  0.7801
 3856SOL    HW218809   6.043   1.590   1.046 -0.0956  0.0443  0.3783
 3857SOL     OW18810   7.302   2.759  11.960  0.4893 -0.0522 -0.3550
 3857SOL    HW118811   7.320   2.830  11.899  1.7911 -0.4190 -0.4251
 3857SOL    HW218812   7.373   2.697  11.947  0.2247 -0.6368  0.8031
 3858SOL     OW18813  12.255   5.425   6.266 -0.1545  0.0402  0.0105
 3858SOL    HW118814  12.323   5.491   6.277  0.6802 -1.0419  1.5510
 3858SOL    HW218815  12.276   5.357   6.330 -2.8152 -0.2205  0.7229
 3859SOL     OW18816   1.195   7.367   4.064  0.4380  0.4318 -0.2006
 3859SOL    HW118817   1.256   7.410   4.004  1.2019  0.8103  0.8254
 3859SOL    HW218818   1.231   7.279   4.076  0.1257  0.2573 -0.5023
 3860SOL     OW18819  10.667   6.726   5.658  0.5871 -0.8737 -1.1646
 3860SOL    HW118820  10.641   6.761   5.573 -0.2495 -0.9915 -0.9661
 3860SOL    HW218821  10.711   6.643   5.638  0.7211 -0.7225 -1.5004
 3861SOL     OW18822  12.652  10.159   4.987  0.0346  0.6617  0.4123
 3861SOL    HW118823  12.702  10.234   4.954 -0.3148  0.4189 -0.7392
 3861SOL    HW218824  12.715  10.087   4.988 -0.1335  0.4874 -0.5045
 3862SOL     OW18825   6.484   5.513   9.980 -0.4667  0.0321  0.4624
 3862SOL    HW118826   6.417   5.446   9.986 -1.3196  0.9475  1.8525
 3862SOL    HW218827   6.538   5.501  10.059  0.6680 -0.3278 -0.3433
 3863SOL     OW18828   2.932   5.310   7.018  0.3384  0.1830 -0.4418
 3863SOL    HW118829   2.863   5.374   7.001  1.6695  1.6070 -0.6994
 3863SOL    HW218830   2.935   5.256   6.939  0.4711  1.0366 -1.0325
 3864SOL     OW18831   5.269   2.490   8.837  0.3827 -0.1485  0.4878
 3864SOL    HW118832   5.284   2.487   8.743 -1.8019  0.3397  0.0606
 3864SOL    HW218833   5.219   2.570   8.851  2.1132  0.6948  2.3495
 3865SOL     OW18834  12.515   4.074   2.840  0.0041  0.1746  0.3924
 3865SOL    HW118835  12.518   4.036   2.752  0.3385  0.9789  0.0505
 3865SOL    HW218836  12.423   4.067   2.865 -0.9362  3.3232 -1.5731
 3866SOL     OW18837   1.428   6.263   6.466 -0.4660  0.5261  0.1981
 3866SOL    HW118838   1.521   6.280   6.457  0.0135  0.0528  3.2336
 3866SOL    HW218839   1.391   6.348   6.493 -1.0655  0.8750 -1.6217
 3867SOL     OW18840   4.530  11.052  10.313  0.0597 -0.0573  0.2873
 3867SOL    HW118841   4.587  11.043  10.237  0.9773  1.2440  0.7797
 3867SOL    HW218842   4.514  11.146  10.319 -1.1672 -0.2867  0.8798
 3868SOL     OW18843   0.316   5.625   1.776  0.1066 -0.0840 -0.0797
 3868SOL    HW118844   0.265   5.567   1.832  0.2977  0.1595  0.3498
 3868SOL    HW218845   0.261   5.637   1.698  0.5105 -1.6839 -0.6644
 3869SOL     OW18846   9.632   2.593   9.613 -0.3559  0.0662 -0.4014
 3869SOL    HW118847   9.560   2.653   9.633 -0.6222 -0.6001  0.7363
 3869SOL    HW218848   9.705   2.626   9.665  0.2057  0.7803 -1.6079
 3870SOL     OW18849   3.079   7.087   0.243  0.4771 -0.0029 -0.0296
 3870SOL    HW118850   3.083   7.158   0.307 -2.0892 -0.4612  0.7515
 3870SOL    HW218851   3.018   7.024   0.281 -1.4137 -0.1670 -2.9646
 3871SOL     OW18852  12.387  11.076   6.034 -0.1797 -0.2632  0.1392
 3871SOL    HW118853  12.463  11.052   6.087 -0.9016 -0.2914  1.1956
 3871SOL    HW218854  12.328  11.120   6.095 -0.7191  0.3801 -0.8174
 3872SOL     OW18855   6.501   4.336   2.260  0.2148  1.1959  0.5217
 3872SOL    HW118856   6.473   4.331   2.351 -0.3275 -0.7445  0.3037
 3872SOL    HW218857   6.420   4.326   2.209  0.6115  1.3729 -0.1631
 3873SOL     OW18858   3.231   0.214   7.051  0.5350 -0.0681  0.1762
 3873SOL    HW118859   3.233   0.290   6.993 -2.9946  0.7867  0.9404
 3873SOL    HW218860   3.217   0.140   6.992 -0.6620  0.5022 -0.2908
 3874SOL     OW18861   7.833   0.045   8.854 -0.3380  0.5686 -0.1295
 3874SOL    HW118862   7.817  -0.032   8.908  1.3486 -0.4120 -0.9377
 3874SOL    HW218863   7.801   0.118   8.906  0.5813 -0.4001  1.9097
 3875SOL     OW18864   8.364   5.574   5.501 -0.1300  0.1536 -0.0066
 3875SOL    HW118865   8.404   5.593   5.416 -2.2540  0.9694 -0.8743
 3875SOL    HW218866   8.389   5.648   5.556  1.6685 -0.6164  0.2901
 3876SOL     OW18867   0.316   5.276   4.609 -0.0896 -0.5362  0.3125
 3876SOL    HW118868   0.316   5.205   4.545  1.6528  0.0617 -0.4313
 3876SOL    HW218869   0.329   5.232   4.693 -0.7222 -1.2095  0.0708
 3877SOL     OW18870   7.800   2.434   8.707 -0.6278  0.1403 -0.1607
 3877SOL    HW118871   7.818   2.487   8.629 -0.8336 -0.6610 -0.7587
 3877SOL    HW218872   7.707   2.413   8.701 -0.4566 -0.6458 -0.1563
 3878SOL     OW18873   5.079   3.960   5.233 -0.7211  0.3816 -0.1057
 3878SOL    HW118874   5.077   4.051   5.264  1.5477  0.3930  0.1539
 3878SOL    HW218875   5.036   3.910   5.302  0.8811  0.8929  1.3213
 3879SOL     OW18876   1.128   1.226   6.124 -0.5705  0.4183  0.0436
 3879SOL    HW118877   1.221   1.213   6.110 -0.3604  0.0297  1.6880
 3879SOL    HW218878   1.088   1.202   6.040  0.7688  0.3448 -0.5954
 3880SOL     OW18879   4.772  12.218   2.301 -0.2286 -0.2459  0.1231
 3880SOL    HW118880   4.709  12.289   2.291 -0.0508  0.1554  1.6894
 3880SOL    HW218881   4.756  12.183   2.388  2.3309  0.5074  0.9741
 3881SOL     OW18882   3.085  10.055  11.216 -0.0589  0.2595  1.0028
 3881SOL    HW118883   3.138   9.987  11.257  0.8779  0.1412 -0.3156
 3881SOL    HW218884   3.100  10.133  11.269  0.3904 -0.1077  1.4221
 3882SOL     OW18885   0.131  10.734   6.952 -0.3318 -0.4723 -0.0180
 3882SOL    HW118886   0.153  10.781   6.871 -2.1528  2.7381  1.1724
 3882SOL    HW218887   0.215  10.708   6.989  0.6021 -0.7344 -2.1758
 3883SOL     OW18888  12.078   1.789   8.300 -0.3715 -0.0135 -0.1819
 3883SOL    HW118889  12.033   1.830   8.374  0.6019 -0.5369  0.7323
 3883SOL    HW218890  12.008   1.765   8.240 -1.3691 -0.9352  1.2628
 3884SOL     OW18891   0.863   5.288   5.293  0.0171 -0.0368  0.1108
 3884SOL    HW118892   0.870   5.376   5.256 -0.3892 -0.0989 -0.1180
 3884SOL    HW218893   0.774   5.285   5.330 -0.1957 -0.5571 -0.4311
 3885SOL     OW18894   0.203   2.567   9.603  0.4166  0.1031  0.2385
 3885SOL    HW118895   0.270   2.634   9.586  0.1670  0.4426  0.5632
 3885SOL    HW218896   0.246   2.503   9.658  0.8568 -0.3518 -0.6152
 3886SOL     OW18897  11.881   8.246   9.229 -0.2992  0.1114  0.4723
 3886SOL    HW118898  11.790   8.268   9.213 -0.0365  1.1503  0.3104
 3886SOL    HW218899  11.894   8.161   9.186 -0.0077  2.0187 -3.7285
 3887SOL     OW18900   9.340   3.484  12.377  0.0303 -0.3740  0.4414
 3887SOL    HW118901   9.379   3.561  12.418 -0.9286 -0.4446  1.4990
 3887SOL    HW218902   9.318   3.513  12.288  0.7573  0.2076  0.4365
 3888SOL     OW18903   5.229   6.560   9.157 -0.0963  0.0354 -0.0372
 3888SOL    HW118904   5.233   6.517   9.243 -1.1008  0.2637  0.1415
 3888SOL    HW218905   5.312   6.606   9.149  0.9467 -1.7541 -0.1500
 3889SOL     OW18906   5.956   9.352   3.545 -1.0862  0.1398  0.5695
 3889SOL    HW118907   5.997   9.415   3.604 -0.1599  1.1277 -1.0345
 3889SOL    HW218908   5.884   9.400   3.505 -1.4133 -0.3592  0.5566
 3890SOL     OW18909   0.837   1.776   8.901 -0.2635  0.4453  0.4730
 3890SOL    HW118910   0.896   1.830   8.953 -0.3874  0.3689  0.6958
 3890SOL    HW218911   0.751   1.814   8.916 -0.3556  0.1742  0.6523
 3891SOL     OW18912  10.329   2.262   2.442 -0.1694 -0.0858 -0.1199
 3891SOL    HW118913  10.396   2.267   2.510 -0.4112 -0.5049  0.1528
 3891SOL    HW218914  10.288   2.176   2.455  1.5423 -1.3661 -2.4076
 3892SOL     OW18915   3.339   0.606   4.640  0.2364 -0.1140  0.2622
 3892SOL    HW118916   3.335   0.528   4.695 -1.0663 -0.8564 -0.8274
 3892SOL    HW218917   3.353   0.572   4.551 -1.2670  0.7952 -0.3691
 3893SOL     OW18918  10.824   5.888  11.275 -0.4654 -0.1047 -0.0228
 3893SOL    HW118919  10.858   5.962  11.225 -0.4425  0.1355  0.3492
 3893SOL    HW218920  10.769   5.927  11.343  0.5752 -0.3404  0.9903
 3894SOL     OW18921   9.622   9.676   1.521 -0.0393  0.1663 -0.5147
 3894SOL    HW118922   9.690   9.689   1.455  1.8679 -0.0939  1.2740
 3894SOL    HW218923   9.624   9.582   1.539 -0.0086  0.3242  0.3846
 3895SOL     OW18924  10.236   3.302   6.497  0.0843 -0.3954 -0.3063
 3895SOL    HW118925  10.301   3.349   6.444  0.7854  0.5851  1.3490
 3895SOL    HW218926  10.279   3.289   6.582 -0.5461 -2.9905 -0.2761
 3896SOL     OW18927   5.253   9.115   9.301 -0.2049  0.5281 -0.0910
 3896SOL    HW118928   5.216   9.203   9.293 -1.2021  0.2535  1.1041
 3896SOL    HW218929   5.195   9.061   9.247  0.0449  0.5051 -0.3371
 3897SOL     OW18930   3.550   6.544   2.834  0.1970  0.2628 -0.5039
 3897SOL    HW118931   3.489   6.520   2.764 -1.4421  0.5178  0.7758
 3897SOL    HW218932   3.530   6.635   2.854  2.5118  1.0589 -1.4839
 3898SOL     OW18933   8.228   3.174  12.232  0.3262  0.6332  0.0228
 3898SOL    HW118934   8.289   3.247  12.228  0.3179  0.7398  1.5615
 3898SOL    HW218935   8.166   3.197  12.301 -0.2694 -0.3902 -0.1385
 3899SOL     OW18936   6.062   1.120   3.580 -0.3715  0.2767 -0.7891
 3899SOL    HW118937   6.004   1.093   3.651  0.7640 -0.4530 -0.1075
 3899SOL    HW218938   6.110   1.040   3.557  1.0218  1.0544 -0.6925
 3900SOL     OW18939  10.147   1.531  10.027  0.0402 -0.3050 -0.0675
 3900SOL    HW118940  10.127   1.492   9.941 -0.7321 -0.6852  0.2718
 3900SOL    HW218941  10.240   1.513  10.040 -0.2539 -1.9626  0.0231
 3901SOL     OW18942   7.900  12.446   3.319 -0.0338  0.3982  0.2238
 3901SOL    HW118943   7.846  12.523   3.333  2.0201  1.8880  0.3539
 3901SOL    HW218944   7.980  12.463   3.369  1.2174 -0.9881 -1.1944
 3902SOL     OW18945   5.183   1.456  11.737 -0.5742  0.1985 -0.2275
 3902SOL    HW118946   5.194   1.549  11.757  0.6459  0.3245 -1.4111
 3902SOL    HW218947   5.271   1.419  11.746 -0.9898 -0.7850 -0.1192
 3903SOL     OW18948  12.626   5.785   8.150  0.1421 -0.8664 -0.5867
 3903SOL    HW118949  12.670   5.847   8.208  0.2430  1.0308 -2.5405
 3903SOL    HW218950  12.697   5.729   8.119  0.9373  0.8381 -2.0812
 3904SOL     OW18951   4.620   5.295   9.615  0.3758  0.1632 -0.1407
 3904SOL    HW118952   4.701   5.337   9.644  0.9285 -1.0874  0.1929
 3904SOL    HW218953   4.550   5.343   9.660  0.5167  3.8070 -3.2966
 3905SOL     OW18954   0.485   2.807   7.278 -0.3536  0.4893  0.4640
 3905SOL    HW118955   0.556   2.743   7.278 -1.9441 -1.3651  0.6513
 3905SOL    HW218956   0.460   2.816   7.370 -2.0255 -0.9053  0.2052
 3906SOL     OW18957   8.974   5.206   3.324 -0.1762  0.1412 -0.1248
 3906SOL    HW118958   8.985   5.163   3.409 -0.1430  0.0629 -0.1686
 3906SOL    HW218959   9.023   5.288   3.333  0.6440 -0.3014 -0.3854
 3907SOL     OW18960   2.652   7.639   3.007  0.5205 -0.2091 -0.0047
 3907SOL    HW118961   2.737   7.680   2.992  0.3175  0.1205 -0.2615
 3907SOL    HW218962   2.673   7.549   3.033  0.8921 -0.8681 -2.3532
 3908SOL     OW18963   8.876  12.612   3.159  0.0245  0.3461 -0.0188
 3908SOL    HW118964   8.908  12.702   3.168  0.1319  0.2583  0.4770
 3908SOL    HW218965   8.788  12.622   3.123 -0.8138  0.7521  2.0370
 3909SOL     OW18966  12.213   4.749   9.982 -0.3697  0.6489  0.5127
 3909SOL    HW118967  12.150   4.700   9.929 -1.1177 -0.2718  2.1824
 3909SOL    HW218968  12.205   4.840   9.951 -1.4853  0.3036 -0.2689
 3910SOL     OW18969   1.053   4.245  11.978 -0.0866  0.6119  0.0828
 3910SOL    HW118970   0.996   4.184  12.024 -0.2625  0.9226  0.2776
 3910SOL    HW218971   1.007   4.329  11.981  0.8563  1.1271  1.1884
 3911SOL     OW18972   7.368   1.954  11.669 -0.1616  0.1065  0.2547
 3911SOL    HW118973   7.452   1.956  11.622 -0.0596  4.1773  0.1990
 3911SOL    HW218974   7.390   1.920  11.755  1.1561 -0.6966 -0.3702
 3912SOL     OW18975   2.579  10.278  10.806 -0.0258 -0.3673  0.2396
 3912SOL    HW118976   2.662  10.231  10.797 -0.1166 -0.7740  1.4251
 3912SOL    HW218977   2.543  10.279  10.717  0.8468 -0.9043 -0.1386
 3913SOL     OW18978   2.311   6.193  10.911  0.9363  0.0847  0.0245
 3913SOL    HW118979   2.393   6.241  10.896  0.6186  0.8273  0.6198
 3913SOL    HW218980   2.259   6.210  10.832  1.3996 -0.5057 -0.4205
 3914SOL     OW18981   9.747   6.254   6.560  0.1512 -0.0800  0.5579
 3914SOL    HW118982   9.760   6.174   6.509 -0.6949 -0.0142  0.2264
 3914SOL    HW218983   9.752   6.325   6.496 -1.8956 -0.0548  0.3550
 3915SOL     OW18984   1.224   1.616  12.524  0.4648 -0.1200 -0.6791
 3915SOL    HW118985   1.259   1.701  12.547  1.8494 -0.0104 -2.8626
 3915SOL    HW218986   1.182   1.630  12.438 -0.9860 -1.2440 -0.2017
 3916SOL     OW18987   4.701   2.616   6.590  0.5816  0.6230 -0.2327
 3916SOL    HW118988   4.641   2.690   6.589  1.9783  1.8319  0.7664
 3916SOL    HW218989   4.650   2.543   6.625 -0.0513  1.8687  1.5392
 3917SOL     OW18990   8.859  12.428   9.475  0.2306  0.1438  0.4493
 3917SOL    HW118991   8.831  12.510   9.435  1.1309 -0.6731 -2.0655
 3917SOL    HW218992   8.862  12.366   9.402 -0.2022 -2.1017  2.2068
 3918SOL     OW18993   4.085  10.050   5.123 -0.6242 -0.4548  0.4400
 3918SOL    HW118994   4.072   9.958   5.148 -1.2799 -1.0172 -1.7279
 3918SOL    HW218995   4.162  10.078   5.172  0.1943 -2.4750  0.4142
 3919SOL     OW18996  11.287   0.405  12.010 -0.0982  0.1791 -0.1092
 3919SOL    HW118997  11.380   0.411  11.985 -0.3795  1.2963 -0.9714
 3919SOL    HW218998  11.275   0.477  12.072 -0.7342  1.0229 -1.1844
 3920SOL     OW18999  11.039   4.895   2.011  0.3989  0.0370 -0.0850
 3920SOL    HW119000  11.080   4.981   2.019  1.2352 -0.2521 -1.0536
 3920SOL    HW219001  10.980   4.904   1.936  0.5757 -0.2672 -0.2593
 3921SOL     OW19002   7.885   4.986   1.344  0.1779 -0.3171  0.4909
 3921SOL    HW119003   7.904   5.015   1.433 -2.4296  2.6087  0.2861
 3921SOL    HW219004   7.905   5.062   1.289 -1.8584 -0.6733 -0.8707
 3922SOL     OW19005   8.621  12.010  12.667 -0.2010 -0.0991 -0.5241
 3922SOL    HW119006   8.610  12.104  12.674  0.8693 -0.0326  0.6581
 3922SOL    HW219007   8.623  11.992  12.573 -0.3948  1.0474 -0.7527
 3923SOL     OW19008   7.528   6.644   9.587 -0.9042  0.6965 -0.1793
 3923SOL    HW119009   7.521   6.613   9.497 -0.9442  1.4807 -0.4528
 3923SOL    HW219010   7.479   6.726   9.588 -0.0796  1.1899  0.3208
 3924SOL     OW19011  11.341  10.137   6.043  0.4827 -0.1402  0.0927
 3924SOL    HW119012  11.247  10.119   6.038  0.1806  1.2532  0.4848
 3924SOL    HW219013  11.347  10.230   6.062  1.9753  0.0809 -1.2532
 3925SOL     OW19014  11.186   8.075  12.115 -0.2967 -0.1096 -0.4151
 3925SOL    HW119015  11.118   8.035  12.061 -0.7694 -0.5127  0.4669
 3925SOL    HW219016  11.139   8.123  12.183  0.2519  1.8049 -1.3062
 3926SOL     OW19017   6.392  12.048   7.235 -0.8627 -0.4967  0.1617
 3926SOL    HW119018   6.429  11.971   7.192  1.0551  0.5811 -0.2131
 3926SOL    HW219019   6.415  12.038   7.327 -0.6799 -0.4106  0.1256
 3927SOL     OW19020   8.387   5.381   1.396 -0.5041 -0.2265 -0.4298
 3927SOL    HW119021   8.456   5.381   1.330  0.9763  2.4483  0.9343
 3927SOL    HW219022   8.315   5.429   1.355 -0.3459 -0.2861 -0.7806
 3928SOL     OW19023   5.062   5.718   3.376 -0.1486  0.1608 -0.0360
 3928SOL    HW119024   5.149   5.756   3.385 -0.1885  0.4177 -0.6485
 3928SOL    HW219025   5.066   5.670   3.293 -0.0638 -1.2888  0.7794
 3929SOL     OW19026   2.292  12.662   7.531  0.2213  0.0238  0.0014
 3929SOL    HW119027   2.310  12.748   7.568 -0.4416  0.3457 -0.4185
 3929SOL    HW219028   2.375  12.614   7.541  0.9497  1.0759 -0.7738
 3930SOL     OW19029   0.942   1.755   2.008  0.2720  0.3471 -0.0079
 3930SOL    HW119030   0.993   1.723   2.082  0.8286 -0.5722 -0.7826
 3930SOL    HW219031   1.003   1.756   1.935  0.1655  2.7899 -0.1330
 3931SOL     OW19032   3.391  10.097   9.248 -0.0471 -0.2363  0.0552
 3931SOL    HW119033   3.357  10.179   9.212  1.6819 -0.5065 -2.5720
 3931SOL    HW219034   3.322  10.064   9.305 -1.8464  1.7663 -0.8279
 3932SOL     OW19035   6.381   3.664  10.416 -0.0750 -0.2648 -0.4341
 3932SOL    HW119036   6.342   3.719  10.483 -1.1843  0.0972 -1.3613
 3932SOL    HW219037   6.447   3.612  10.463  0.7306  1.5397  0.5266
 3933SOL     OW19038   4.474   8.483   3.260  0.4541  0.1152  0.7097
 3933SOL    HW119039   4.555   8.468   3.212  0.5897  0.4459  0.8361
 3933SOL    HW219040   4.453   8.575   3.246 -1.3881 -0.5449 -1.6233
 3934SOL     OW19041  11.871  11.076   8.519  0.2264  0.2755  0.5393
 3934SOL    HW119042  11.929  11.070   8.443  1.3219  1.0286  1.2961
 3934SOL    HW219043  11.869  11.169   8.541 -0.9866  0.2163  0.7663
 3935SOL     OW19044   9.808   4.304   3.149  0.0979  0.4840 -0.0277
 3935SOL    HW119045   9.902   4.319   3.157  0.0826  0.1790  0.7632
 3935SOL    HW219046   9.772   4.391   3.130  0.4429  0.7597  0.5431
 3936SOL     OW19047   7.641   9.371   9.529 -0.0829  0.1262 -0.1171
 3936SOL    HW119048   7.652   9.362   9.434  1.0075 -0.2583  0.0258
 3936SOL    HW219049   7.642   9.465   9.544 -3.3321  0.3598 -0.7798
 3937SOL     OW19050  12.211  12.006   3.718 -0.0613 -0.1055  0.1835
 3937SOL    HW119051  12.233  12.057   3.795  0.4402 -0.3235  0.1866
 3937SOL    HW219052  12.151  11.939   3.750 -0.1766  0.0562  0.3058
 3938SOL     OW19053  10.148   3.093   3.867 -0.5297 -0.3952  0.1560
 3938SOL    HW119054  10.199   3.159   3.819  1.2323 -1.9367 -0.2143
 3938SOL    HW219055  10.176   3.103   3.958  0.3498 -1.1273 -0.0212
 3939SOL     OW19056   1.358   9.783   0.681 -0.1486 -0.3362  0.3355
 3939SOL    HW119057   1.332   9.802   0.771  1.1574  0.8187  0.4930
 3939SOL    HW219058   1.428   9.718   0.689 -0.4863 -0.7330  0.1067
 3940SOL     OW19059   1.978   6.161  11.765 -0.5130  0.1267  0.1464
 3940SOL    HW119060   1.940   6.075  11.749 -0.9916  0.5795 -1.3208
 3940SOL    HW219061   1.988   6.165  11.860  1.6336 -2.4166  0.1480
 3941SOL     OW19062   0.227   6.991   1.927 -0.2355  0.0171 -0.3307
 3941SOL    HW119063   0.256   7.027   2.011 -0.7667  2.2574 -1.0553
 3941SOL    HW219064   0.300   6.934   1.899  0.5785  0.3861  0.9398
 3942SOL     OW19065   7.514  11.623   5.868 -0.0639  0.3554  0.6437
 3942SOL    HW119066   7.599  11.659   5.894 -0.3831  1.3246  0.4189
 3942SOL    HW219067   7.466  11.699   5.835 -0.5296 -0.4138 -0.4974
 3943SOL     OW19068   3.465   7.997   5.688  0.3165 -0.0496 -0.3068
 3943SOL    HW119069   3.537   7.940   5.660 -0.5109 -0.7965 -0.9746
 3943SOL    HW219070   3.435   8.039   5.608 -0.6203 -0.4959 -0.2044
 3944SOL     OW19071   8.287   7.761   0.524  0.1597  0.1263  0.4718
 3944SOL    HW119072   8.329   7.741   0.440  0.5201 -0.8664  0.8744
 3944SOL    HW219073   8.294   7.856   0.532 -0.4182  0.3023 -0.8982
 3945SOL     OW19074   8.264   2.169   5.949  0.0413 -0.0722 -0.0405
 3945SOL    HW119075   8.339   2.228   5.946 -1.1243  1.4663 -1.0253
 3945SOL    HW219076   8.257   2.142   6.040  3.2561 -2.3418 -0.3063
 3946SOL     OW19077  10.234   5.989   3.317 -0.2226  0.4430  0.7161
 3946SOL    HW119078  10.266   6.038   3.242 -2.4509  1.0628  0.0910
 3946SOL    HW219079  10.149   6.029   3.337 -0.5004 -0.8851  2.4247
 3947SOL     OW19080   5.118   6.218   1.931 -0.2124 -0.0289  0.3131
 3947SOL    HW119081   5.212   6.236   1.931 -0.4599  1.3439  0.5675
 3947SOL    HW219082   5.098   6.194   1.840  0.2622  0.3026  0.1196
 3948SOL     OW19083   7.199   0.765   0.546  0.1742 -0.2169 -0.6650
 3948SOL    HW119084   7.282   0.729   0.578  1.0109  0.5960 -1.8699
 3948SOL    HW219085   7.212   0.859   0.545 -0.9720 -0.0389 -0.3607
 3949SOL     OW19086   7.284   2.247   7.074  0.2927  0.2532 -0.1773
 3949SOL    HW119087   7.378   2.267   7.071  0.3489 -0.0528 -0.4815
 3949SOL    HW219088   7.263   2.246   7.168  0.8017 -0.6507 -0.0655
 3950SOL     OW19089   8.621   5.966   2.865  0.5752 -0.6673 -0.8004
 3950SOL    HW119090   8.592   6.028   2.798  0.8064  1.0882  0.6537
 3950SOL    HW219091   8.717   5.975   2.866  0.4780  1.1949  1.3558
 3951SOL     OW19092   2.541  10.299   6.755 -0.1909  0.2068 -0.2732
 3951SOL    HW119093   2.483  10.313   6.680  0.6350 -0.0876 -0.9789
 3951SOL    HW219094   2.595  10.224   6.730  0.9788  0.9094  0.0502
 3952SOL     OW19095  10.981  11.617  12.586  0.7526 -0.3051 -0.0408
 3952SOL    HW119096  10.999  11.526  12.608  2.4431 -0.5219 -2.0220
 3952SOL    HW219097  11.067  11.660  12.591  0.3262  0.7077 -1.0792
 3953SOL     OW19098   6.952   9.201  11.288 -0.2106  0.6040 -1.0085
 3953SOL    HW119099   7.047   9.211  11.279  0.0847 -0.6709  0.1733
 3953SOL    HW219100   6.936   9.210  11.382 -1.2170  0.5240 -1.1587
 3954SOL     OW19101   0.939   3.481  11.815  0.3814 -0.2643 -0.2735
 3954SOL    HW119102   0.922   3.570  11.783 -1.0582  0.0238  1.1134
 3954SOL    HW219103   0.887   3.425  11.758 -0.3504  0.0046  0.1195
 3955SOL     OW19104  12.118   1.788   1.471  0.4031 -0.0406 -0.1743
 3955SOL    HW119105  12.203   1.756   1.501  0.0746 -1.0361 -0.2457
 3955SOL    HW219106  12.084   1.839   1.544  1.4906  1.2173 -0.5237
 3956SOL     OW19107   1.767  11.353  12.359  0.0790  0.3552  0.5393
 3956SOL    HW119108   1.860  11.341  12.342 -0.1479 -1.4198  0.3654
 3956SOL    HW219109   1.735  11.399  12.281  0.3430 -1.4748 -0.7259
 3957SOL     OW19110   1.544   3.788   5.175  0.1873  0.3517 -0.4051
 3957SOL    HW119111   1.623   3.770   5.124  1.7708 -3.6358  2.8543
 3957SOL    HW219112   1.479   3.726   5.142  0.7526 -1.2171  1.2976
 3958SOL     OW19113   5.219   2.927  12.372 -0.3458  0.0124 -0.2979
 3958SOL    HW119114   5.251   2.842  12.401 -0.7426 -0.6206 -1.6570
 3958SOL    HW219115   5.288   2.989  12.398  0.0467 -0.7396  0.4947
 3959SOL     OW19116   8.033   5.792   1.338  0.3115  0.2080 -0.4406
 3959SOL    HW119117   7.962   5.735   1.370  2.2851 -1.3576  1.4959
 3959SOL    HW219118   7.991   5.849   1.274 -2.6526 -0.7336  0.4858
 3960SOL     OW19119   6.743   5.319   9.980  0.2274 -0.0643 -0.3627
 3960SOL    HW119120   6.726   5.337  10.072  3.2871  0.9008  0.1104
 3960SOL    HW219121   6.775   5.228   9.978  0.5584  0.0508 -0.3989
 3961SOL     OW19122   2.404   7.712   5.749 -0.1928 -0.4423 -0.0870
 3961SOL    HW119123   2.311   7.690   5.747 -0.2823 -0.7971  2.8029
 3961SOL    HW219124   2.407   7.805   5.726 -1.3047 -0.3431  0.1105
 3962SOL     OW19125   9.199   4.023   8.025  0.2672  0.6457 -0.4679
 3962SOL    HW119126   9.227   3.934   8.003 -1.4526  0.0368 -0.2999
 3962SOL    HW219127   9.227   4.036   8.116  0.3187  0.1961 -0.4203
 3963SOL     OW19128  12.242   6.836   5.947  0.0765 -0.3930 -0.5559
 3963SOL    HW119129  12.290   6.890   6.009  0.4735  0.1446 -1.3073
 3963SOL    HW219130  12.309   6.803   5.887 -0.1639 -1.7153 -0.1221
 3964SOL     OW19131   7.224   5.894   0.109 -0.8256 -0.6954 -0.0895
 3964SOL    HW119132   7.238   5.934   0.023 -0.7431  2.5494  1.2966
 3964SOL    HW219133   7.313   5.880   0.144 -0.8667 -1.6069 -0.3123
 3965SOL     OW19134  11.083   3.799   6.824 -0.4469  0.3836  0.3765
 3965SOL    HW119135  11.094   3.742   6.900 -3.0249  0.8000  1.1591
 3965SOL    HW219136  11.051   3.881   6.860 -2.7092  0.2791 -1.1876
 3966SOL     OW19137  10.790   4.716  11.322  0.3689 -0.4911 -0.8436
 3966SOL    HW119138  10.707   4.708  11.368 -1.1489  0.0579 -3.2866
 3966SOL    HW219139  10.830   4.629  11.330 -0.5946 -0.8774  0.0489
 3967SOL     OW19140   5.933  10.537  10.861 -0.1676 -0.0506  0.5799
 3967SOL    HW119141   6.005  10.594  10.888  1.5735 -1.8469 -0.0052
 3967SOL    HW219142   5.904  10.496  10.942 -0.4200  0.5340  0.7928
 3968SOL     OW19143   9.000  12.115   0.390 -0.2688  0.3056 -0.2252
 3968SOL    HW119144   8.962  12.163   0.463 -0.6989  0.8949 -0.8313
 3968SOL    HW219145   8.950  12.142   0.314  0.0745 -0.4205 -0.7246
 3969SOL     OW19146   7.207   3.277   2.185 -0.3040  0.3399  0.3911
 3969SOL    HW119147   7.291   3.313   2.158 -0.2871  0.5951  0.7891
 3969SOL    HW219148   7.202   3.293   2.279  0.8065 -2.8189  1.1372
 3970SOL     OW19149  10.216   0.639  11.924 -0.5041  0.2510 -0.6371
 3970SOL    HW119150  10.136   0.640  11.977 -0.6636 -0.4328 -0.8510
 3970SOL    HW219151  10.285   0.618  11.987 -0.5083  0.7349 -0.4697
 3971SOL     OW19152   0.042   6.255   1.102  0.0210  0.0035  0.3489
 3971SOL    HW119153   0.112   6.317   1.081  0.4724 -0.4708  0.4305
 3971SOL    HW219154   0.085   6.187   1.154 -0.7501  0.3261  1.4412
 3972SOL     OW19155   9.223   2.734  10.337  0.8379 -0.3357 -0.5689
 3972SOL    HW119156   9.159   2.699  10.399 -1.6774  1.1851 -2.1189
 3972SOL    HW219157   9.255   2.656  10.291 -0.9679 -1.0849 -0.6677
 3973SOL     OW19158  10.525   6.639   2.381  0.3692 -0.0210 -0.1324
 3973SOL    HW119159  10.450   6.688   2.345  0.4820  0.6455  0.5331
 3973SOL    HW219160  10.589   6.638   2.309  0.7491  1.6376  0.1393
 3974SOL     OW19161  10.831   6.259   3.138  0.0941 -0.1352  0.2466
 3974SOL    HW119162  10.832   6.354   3.123  0.7790 -0.2538 -0.5126
 3974SOL    HW219163  10.751   6.244   3.189 -1.1751  0.5980 -1.3953
 3975SOL     OW19164  10.478   4.748   8.412  0.3044  0.2380 -0.1950
 3975SOL    HW119165  10.389   4.759   8.378  0.4852 -0.7435 -1.0058
 3975SOL    HW219166  10.530   4.813   8.364 -0.0616  1.2414  0.7172
 3976SOL     OW19167   6.976   2.190   2.386  0.2564  0.1964 -0.1184
 3976SOL    HW119168   6.912   2.120   2.376  0.4113 -0.0019  0.2639
 3976SOL    HW219169   7.026   2.190   2.305 -2.0041  2.1756 -1.6675
 3977SOL     OW19170   3.326   5.702   3.777 -0.3796  0.3028 -0.3114
 3977SOL    HW119171   3.287   5.654   3.850 -1.2372  1.8618  0.3120
 3977SOL    HW219172   3.326   5.640   3.704 -0.7682 -0.8537  0.6451
 3978SOL     OW19173   5.413  11.872  11.840 -0.6243  0.0703  0.1943
 3978SOL    HW119174   5.424  11.860  11.746  1.8441  0.8277  0.3064
 3978SOL    HW219175   5.333  11.925  11.849  0.3151  1.9408 -1.6576
 3979SOL     OW19176   8.891   3.654   5.350 -0.0374 -0.0054  0.2965
 3979SOL    HW119177   8.806   3.615   5.331 -1.3295  2.7816 -0.0236
 3979SOL    HW219178   8.939   3.585   5.397 -2.3533 -1.7308  0.2835
 3980SOL     OW19179  10.733   0.662   9.033  0.3135  0.0280  0.3607
 3980SOL    HW119180  10.690   0.620   8.958  0.9026  0.0995 -0.0221
 3980SOL    HW219181  10.815   0.696   8.998 -0.2970  1.8068  0.5960
 3981SOL     OW19182  11.074  10.197   1.069  0.2498  0.2691  0.1548
 3981SOL    HW119183  11.141  10.129   1.073  0.8844  0.6056 -2.5405
 3981SOL    HW219184  10.995  10.152   1.040  0.3042  0.4547 -0.2873
 3982SOL     OW19185  11.026   8.438   6.076  0.5191  0.3804  0.2968
 3982SOL    HW119186  11.086   8.503   6.039  0.9789  0.2085  0.7268
 3982SOL    HW219187  11.058   8.424   6.165  0.7153 -0.7903  0.0596
 3983SOL     OW19188   4.908   8.258  11.181  0.6895  0.2370 -0.0505
 3983SOL    HW119189   4.924   8.318  11.108 -0.1584  0.8687  0.2586
 3983SOL    HW219190   4.814   8.241  11.178  1.1076 -2.3527 -1.0613
 3984SOL     OW19191   1.808   5.603   1.338  0.3670 -0.2841  0.1967
 3984SOL    HW119192   1.732   5.582   1.393 -0.1313 -2.1423 -1.0937
 3984SOL    HW219193   1.781   5.578   1.250  1.7430  1.0394 -0.6417
 3985SOL     OW19194  10.034   7.073   8.047 -0.2577  0.5781  1.1743
 3985SOL    HW119195  10.002   7.122   8.123 -0.2283  3.2376 -0.3865
 3985SOL    HW219196  10.120   7.111   8.028  0.0594 -0.5458  0.2505
 3986SOL     OW19197   9.484   5.578   4.706 -0.2156 -0.3880  0.5683
 3986SOL    HW119198   9.548   5.647   4.724  0.6386 -1.2441  0.8804
 3986SOL    HW219199   9.510   5.543   4.621 -1.6606  0.7600 -0.4104
 3987SOL     OW19200   9.622  11.418   6.087  0.1448 -1.1634 -0.1520
 3987SOL    HW119201   9.678  11.495   6.082 -1.5754  0.0546 -2.6192
 3987SOL    HW219202   9.666  11.353   6.033 -1.1966  0.1955 -3.1346
 3988SOL     OW19203   2.926  11.079  10.965 -0.4987 -0.3215  0.5780
 3988SOL    HW119204   3.016  11.058  10.939 -1.2350 -1.6869 -1.0417
 3988SOL    HW219205   2.916  11.172  10.944 -0.2146 -0.7424 -1.6900
 3989SOL     OW19206   7.317   8.152  10.551 -0.2278 -0.2350  0.1089
 3989SOL    HW119207   7.336   8.190  10.637  0.1783  1.4035 -0.6518
 3989SOL    HW219208   7.222   8.157  10.543 -0.1592  1.2465 -0.1917
 3990SOL     OW19209   6.843  12.073   2.689 -0.0226  0.2870  0.7906
 3990SOL    HW119210   6.922  12.120   2.663 -0.4955  0.3151 -0.6656
 3990SOL    HW219211   6.865  11.980   2.676  0.1458  0.2184  1.5042
 3991SOL     OW19212   9.878   0.671  11.111  0.2726  0.0775  0.2203
 3991SOL    HW119213   9.813   0.710  11.053  0.3707  1.3583  0.9434
 3991SOL    HW219214   9.842   0.681  11.199  1.6543  1.3396  0.6965
 3992SOL     OW19215   9.839  10.221   2.685 -0.0932 -0.1371 -0.0587
 3992SOL    HW119216   9.761  10.167   2.696 -1.4308  1.4304 -1.2168
 3992SOL    HW219217   9.902  10.164   2.640 -1.6843 -0.5709 -1.8438
 3993SOL     OW19218  12.068   8.912  10.134  0.6372 -0.5144  0.2390
 3993SOL    HW119219  12.040   8.852  10.204  1.5447 -2.0199 -0.6226
 3993SOL    HW219220  12.078   8.855  10.058 -1.0579  1.1870 -1.3653
 3994SOL     OW19221   0.490  11.619   1.882 -0.6104  0.4813 -0.5491
 3994SOL    HW119222   0.572  11.587   1.846 -0.5877  2.1357 -2.0853
 3994SOL    HW219223   0.516  11.687   1.944 -0.7847 -0.1106  0.1900
 3995SOL     OW19224   8.901   1.228   4.912 -0.6182  0.2823  0.2326
 3995SOL    HW119225   8.834   1.165   4.937 -0.1618 -1.2706 -2.1609
 3995SOL    HW219226   8.864   1.275   4.837  0.8136 -0.5120 -1.0489
 3996SOL     OW19227   3.903  10.237   2.714 -0.1186 -0.2667 -0.3732
 3996SOL    HW119228   3.896  10.145   2.688  1.0402 -0.5578  0.3025
 3996SOL    HW219229   3.874  10.239   2.805  4.2149 -0.8557  1.2323
 3997SOL     OW19230  12.490   3.680   3.837 -0.8536  0.2979  0.1253
 3997SOL    HW119231  12.547   3.757   3.843 -1.5212  0.6929  2.2816
 3997SOL    HW219232  12.548   3.610   3.809  0.2276  1.1413  0.1534
 3998SOL     OW19233   9.993   5.253   2.317  0.2917  0.5462  0.5842
 3998SOL    HW119234   9.949   5.233   2.400  0.5604 -1.3278  0.3012
 3998SOL    HW219235  10.042   5.333   2.336  0.9588 -0.2491  2.4948
 3999SOL     OW19236   6.881   8.403   1.373  0.3766  0.0816 -0.0447
 3999SOL    HW119237   6.795   8.380   1.410 -0.6156  1.4855 -1.3825
 3999SOL    HW219238   6.888   8.497   1.386  1.1885  0.1648 -1.0053
 4000SOL     OW19239   4.735   2.604   6.994 -0.0301 -0.4264 -0.1123
 4000SOL    HW119240   4.753   2.673   7.057 -0.8987 -0.3859  0.1061
 4000SOL    HW219241   4.643   2.618   6.969  0.4260 -0.1525 -1.7437
 4001SOL     OW19242  10.986   0.201   4.052 -0.4958  0.8968 -0.1908
 4001SOL    HW119243  10.937   0.208   4.133  0.3297  1.3133  0.2831
 4001SOL    HW219244  11.034   0.119   4.059 -1.4283  0.2838 -0.8330
 4002SOL     OW19245   6.602  11.924   7.928 -0.1508 -0.2651 -0.4188
 4002SOL    HW119246   6.641  11.901   8.013 -0.3716 -1.6072 -0.6536
 4002SOL    HW219247   6.677  11.948   7.873  0.4149 -2.5869 -0.7910
 4003SOL     OW19248  11.238  11.818   3.712  0.0126 -0.1989 -0.1453
 4003SOL    HW119249  11.266  11.771   3.633  0.5039 -1.6335  0.8635
 4003SOL    HW219250  11.211  11.750   3.773  0.2545  0.8490  1.1808
 4004SOL     OW19251  10.735   3.129   3.863  0.8921  0.0160  0.7815
 4004SOL    HW119252  10.765   3.193   3.927  1.6093 -1.4335  1.9686
 4004SOL    HW219253  10.782   3.049   3.885  0.0864 -0.9133 -0.6849
 4005SOL     OW19254   1.890   4.075   0.729  0.0681 -0.2143  0.1379
 4005SOL    HW119255   1.859   4.083   0.639  0.3198 -0.7368  0.0037
 4005SOL    HW219256   1.923   3.986   0.736 -1.2189 -0.6490  1.1507
 4006SOL     OW19257   2.803   8.555  11.327  0.1708  0.1162 -0.1174
 4006SOL    HW119258   2.888   8.514  11.340  0.8663  1.2676 -0.8685
 4006SOL    HW219259   2.794   8.616  11.400 -0.6110 -0.9228  0.6846
 4007SOL     OW19260   1.774   6.457   1.501 -0.4775  0.2461 -0.6886
 4007SOL    HW119261   1.817   6.501   1.428 -0.3186 -0.9429 -1.3306
 4007SOL    HW219262   1.831   6.383   1.522  0.6916  1.7755  2.1587
 4008SOL     OW19263   5.892   2.205   1.988 -0.1097 -0.5106  0.2844
 4008SOL    HW119264   5.866   2.192   2.079 -0.4166  1.4715  0.5143
 4008SOL    HW219265   5.985   2.182   1.986 -0.4368 -2.0430  0.7179
 4009SOL     OW19266   4.793   9.673   8.779  0.0455  0.4969  0.0828
 4009SOL    HW119267   4.791   9.744   8.715 -1.3253  0.5276  0.1210
 4009SOL    HW219268   4.831   9.711   8.857 -1.4616  1.4777  0.3884
 4010SOL     OW19269   0.311   3.407   5.682 -0.3422 -0.1244 -0.0577
 4010SOL    HW119270   0.260   3.329   5.661 -0.0421 -0.9272  1.9735
 4010SOL    HW219271   0.370   3.379   5.752  0.4903  1.6754  0.0270
 4011SOL     OW19272   8.626   2.597   5.157  0.1994  0.0768 -0.5109
 4011SOL    HW119273   8.584   2.547   5.088 -0.1762 -0.6316  0.2237
 4011SOL    HW219274   8.569   2.673   5.171 -0.3903 -0.4271 -0.1242
 4012SOL     OW19275   3.041  10.241  12.477  0.7081  0.2933 -0.2483
 4012SOL    HW119276   3.002  10.206  12.397 -0.9653 -1.0638  1.0726
 4012SOL    HW219277   3.106  10.174  12.503 -0.2925 -0.3759  0.6299
 4013SOL     OW19278   0.119   9.205   8.520 -0.4392 -0.1059 -0.9427
 4013SOL    HW119279   0.201   9.235   8.479 -1.5293  1.8522 -1.8489
 4013SOL    HW219280   0.098   9.124   8.474  1.0291 -0.7447 -0.5802
 4014SOL     OW19281   6.217  10.689   2.737 -0.2715 -0.2849  0.4215
 4014SOL    HW119282   6.149  10.751   2.711 -1.8364 -2.9163 -2.4098
 4014SOL    HW219283   6.247  10.720   2.823 -3.9614  1.8590  1.1305
 4015SOL     OW19284  11.400   3.166  11.027  0.4307 -0.3758 -0.3691
 4015SOL    HW119285  11.360   3.239  11.073 -2.0059 -1.3271 -0.8101
 4015SOL    HW219286  11.451   3.120  11.094 -0.0927  0.2842  0.5030
 4016SOL     OW19287   8.542   9.294   4.728  0.1501 -0.0251  0.1820
 4016SOL    HW119288   8.566   9.230   4.661 -1.8686 -0.5009 -0.1326
 4016SOL    HW219289   8.625   9.313   4.773  1.0481 -1.7916 -0.6171
 4017SOL     OW19290   0.344   0.425   8.189  0.0417 -0.2985 -0.2846
 4017SOL    HW119291   0.353   0.486   8.263  0.0694 -2.5220  1.6512
 4017SOL    HW219292   0.250   0.405   8.186  0.1561 -0.8438 -0.3122
 4018SOL     OW19293   3.569   9.933   9.491  0.2207 -0.1031 -0.0395
 4018SOL    HW119294   3.610   9.926   9.404  1.9993 -0.0898  0.7561
 4018SOL    HW219295   3.525   9.849   9.503  0.1177 -0.1801 -0.8684
 4019SOL     OW19296   2.867  10.996  12.433  0.1834  0.1253 -0.1170
 4019SOL    HW119297   2.836  10.914  12.395  1.5659 -0.5408  0.1095
 4019SOL    HW219298   2.861  11.059  12.361  0.6315 -0.5812 -0.7925
 4020SOL     OW19299   7.907   5.631   0.332  0.2554 -0.1442  0.2436
 4020SOL    HW119300   7.945   5.705   0.380 -1.7087  0.8086  0.4029
 4020SOL    HW219301   7.923   5.555   0.388  2.1737  0.1218  0.1437
 4021SOL     OW19302   5.221  10.708   1.661  0.1150 -0.0350  0.1151
 4021SOL    HW119303   5.304  10.664   1.644  1.1436  1.8467  0.0252
 4021SOL    HW219304   5.231  10.747   1.747 -0.9655 -0.3808  0.4120
 4022SOL     OW19305   4.691   0.846   5.203 -0.1390  0.0984 -0.3215
 4022SOL    HW119306   4.657   0.892   5.279  0.8439  0.9908 -0.4050
 4022SOL    HW219307   4.616   0.796   5.169 -0.7417  0.1965  0.8387
 4023SOL     OW19308   9.518  12.602  12.599 -0.1039  0.5035  0.2299
 4023SOL    HW119309   9.602  12.640  12.574  0.6650 -1.1960  0.0947
 4023SOL    HW219310   9.453  12.651  12.548  1.1975 -1.2849 -3.4831
 4024SOL     OW19311   2.187   0.160   3.704 -0.5838 -0.0711  0.1634
 4024SOL    HW119312   2.263   0.177   3.760 -1.3720 -1.1732  1.6455
 4024SOL    HW219313   2.133   0.238   3.713 -0.0057  0.3927 -0.2871
 4025SOL     OW19314   0.603   8.949   6.401 -0.3495  0.1385  0.0375
 4025SOL    HW119315   0.551   8.869   6.390 -0.1020 -0.2796  1.6741
 4025SOL    HW219316   0.540   9.020   6.392 -0.7223 -0.2628 -0.6002
 4026SOL     OW19317   3.083   0.864   4.386  0.0271 -0.2799  0.4059
 4026SOL    HW119318   3.073   0.943   4.333 -0.3857 -0.6638 -0.0892
 4026SOL    HW219319   3.129   0.894   4.465 -0.6130  0.5607  0.4718
 4027SOL     OW19320   0.098   2.702  12.685  0.1261  0.2188 -0.2657
 4027SOL    HW119321   0.091   2.750  12.603 -0.1289 -0.4551 -0.6454
 4027SOL    HW219322   0.190   2.674  12.689  0.4735  1.3854  0.3394
 4028SOL     OW19323   0.784   6.627   0.152  0.5006  0.2315  0.6228
 4028SOL    HW119324   0.791   6.631   0.057  0.4929 -2.7629  0.3938
 4028SOL    HW219325   0.857   6.571   0.179 -0.8649 -0.9489  2.0843
 4029SOL     OW19326   4.168  10.613   5.012 -0.3784 -0.0850  0.1067
 4029SOL    HW119327   4.226  10.545   5.047 -0.4974 -0.8535 -1.1488
 4029SOL    HW219328   4.192  10.691   5.061 -1.2614 -1.3089  2.6548
 4030SOL     OW19329   4.943   5.075   2.457  0.1674 -0.3237  0.1523
 4030SOL    HW119330   5.006   5.003   2.452  0.7240  0.1975 -0.6566
 4030SOL    HW219331   4.983   5.138   2.516  0.6976  0.2713 -0.8231
 4031SOL     OW19332   0.059  12.516   6.921 -0.0934  0.0139 -0.2091
 4031SOL    HW119333  -0.027  12.481   6.945  0.1265 -1.1971 -1.1141
 4031SOL    HW219334   0.059  12.516   6.826  1.0966 -0.4987 -0.2222
 4032SOL     OW19335   0.008   1.893   7.950 -0.7115  0.0396  0.0733
 4032SOL    HW119336   0.093   1.875   7.990 -0.3164 -2.8185 -1.7689
 4032SOL    HW219337  -0.036   1.950   8.013  0.8984 -1.8841  3.2236
 4033SOL     OW19338   6.865  11.508  10.590  0.2234  0.7265 -0.1201
 4033SOL    HW119339   6.920  11.498  10.513  1.7647  0.2451  0.9875
 4033SOL    HW219340   6.815  11.426  10.595 -1.2271  1.4654 -1.5481
 4034SOL     OW19341   6.745   8.873  11.181  0.2591  0.3821 -0.2504
 4034SOL    HW119342   6.774   8.841  11.096 -0.8103  1.9029 -1.2269
 4034SOL    HW219343   6.664   8.920  11.163  0.2556  1.1350  1.5403
 4035SOL     OW19344   9.732   5.709   0.018 -0.0626  0.2445  0.4162
 4035SOL    HW119345   9.763   5.720   0.107  1.6910 -0.8639  0.0041
 4035SOL    HW219346   9.779   5.774  -0.033  0.4989 -0.4646  0.0052
 4036SOL     OW19347   0.150   9.501   4.971  0.2166  0.3743  0.5756
 4036SOL    HW119348   0.246   9.504   4.977  0.2304  0.0592  0.5190
 4036SOL    HW219349   0.123   9.591   4.989  0.5224  0.4635  0.6110
 4037SOL     OW19350   9.260   4.169   3.784  0.2639 -0.2026 -0.6295
 4037SOL    HW119351   9.343   4.122   3.793  0.7286  0.5483 -0.9064
 4037SOL    HW219352   9.275   4.231   3.713 -0.6381 -0.2636 -0.8816
 4038SOL     OW19353   3.821   3.386   4.971 -0.0957 -0.4079 -0.1804
 4038SOL    HW119354   3.731   3.376   5.002 -1.1105 -1.2848 -3.0849
 4038SOL    HW219355   3.824   3.335   4.890  3.2275 -0.8988  0.1318
 4039SOL     OW19356  10.390   2.969   1.686 -0.2625 -0.1252 -1.0129
 4039SOL    HW119357  10.414   2.977   1.594 -0.2180  0.9244 -0.9243
 4039SOL    HW219358  10.448   2.901   1.721 -0.1603 -0.4003 -1.7104
 4040SOL     OW19359   6.876   3.202   2.555 -0.1517 -0.0122  0.0111
 4040SOL    HW119360   6.905   3.165   2.638  0.7129  0.4902 -0.0613
 4040SOL    HW219361   6.905   3.293   2.557  2.4656 -0.6809 -2.0246
 4041SOL     OW19362   3.865   8.198   3.003  0.8084  0.1945  0.1521
 4041SOL    HW119363   3.921   8.202   3.080 -1.0481 -0.0834  1.5963
 4041SOL    HW219364   3.819   8.282   3.003 -2.7446 -1.4877  2.3026
 4042SOL     OW19365   1.374   8.790   8.816  0.6000 -0.5628  0.1334
 4042SOL    HW119366   1.357   8.699   8.791 -0.1035 -0.8605  1.5765
 4042SOL    HW219367   1.416   8.828   8.739 -0.9863 -1.5319 -1.2982
 4043SOL     OW19368   2.078   9.013   8.001  0.4532 -0.5579  0.6331
 4043SOL    HW119369   2.162   9.045   8.032  0.5669 -1.2242  1.0430
 4043SOL    HW219370   2.020   9.021   8.076  0.2186 -0.3418  0.4299
 4044SOL     OW19371   4.307   2.110   3.022  0.2127  0.8265 -0.3175
 4044SOL    HW119372   4.397   2.121   3.051  0.4630  0.9446 -1.0978
 4044SOL    HW219373   4.278   2.199   2.999 -0.7813  1.1052  1.7709
 4045SOL     OW19374   6.879  12.305   4.981  0.2083 -0.2837 -0.2002
 4045SOL    HW119375   6.911  12.331   5.067  0.4781  0.4686 -0.5135
 4045SOL    HW219376   6.831  12.382   4.949 -0.9791 -0.9962 -0.2057
 4046SOL     OW19377   3.341   4.478   1.158 -0.0088 -0.3059  0.4070
 4046SOL    HW119378   3.420   4.532   1.152 -0.5558  0.5927  0.9998
 4046SOL    HW219379   3.370   4.399   1.203  0.2848  0.6303  1.9540
 4047SOL     OW19380   9.655   0.043   9.330  0.3433  0.0898 -0.5349
 4047SOL    HW119381   9.575   0.092   9.310 -0.3495 -0.7497  0.0786
 4047SOL    HW219382   9.675  -0.005   9.250 -0.0092 -0.0092 -0.5663
 4048SOL     OW19383   7.263   6.312   5.170 -0.6331 -0.0232  0.1833
 4048SOL    HW119384   7.229   6.385   5.118  0.7717  1.6795  1.5291
 4048SOL    HW219385   7.343   6.285   5.125 -0.8446 -0.3579  0.0042
 4049SOL     OW19386   0.803   5.680   1.277 -0.7251 -0.3593 -0.0953
 4049SOL    HW119387   0.726   5.712   1.231 -1.0828 -1.6988 -0.4784
 4049SOL    HW219388   0.800   5.725   1.362 -2.3253 -0.8860  0.1724
 4050SOL     OW19389   0.932   3.860   0.737 -0.7319 -0.5926  0.3510
 4050SOL    HW119390   0.929   3.809   0.656 -1.2728 -1.3432  0.8319
 4050SOL    HW219391   1.022   3.849   0.769  0.2743  1.7308 -1.3844
 4051SOL     OW19392  10.369   7.573  11.511 -0.3767  1.1792  0.6693
 4051SOL    HW119393  10.386   7.487  11.551 -0.2731  0.4471 -0.8844
 4051SOL    HW219394  10.281   7.565  11.475 -1.0304  2.3156  1.9105
 4052SOL     OW19395  11.050  10.696   4.097  0.3043  0.2780  0.3272
 4052SOL    HW119396  11.023  10.723   4.185  0.2505  2.0057 -0.1902
 4052SOL    HW219397  10.996  10.749   4.038  0.8320 -0.3469 -0.7450
 4053SOL     OW19398  11.547   2.753   1.888 -0.2150  0.3288  0.3656
 4053SOL    HW119399  11.621   2.694   1.875 -0.7293 -0.7963  2.2243
 4053SOL    HW219400  11.585   2.829   1.932  0.6134  1.9145 -2.8255
 4054SOL     OW19401   4.690  10.048   5.759  0.3210  0.0591 -0.2003
 4054SOL    HW119402   4.643   9.966   5.775 -1.0614  0.7816 -0.4682
 4054SOL    HW219403   4.762  10.023   5.700  0.9354 -1.2438  1.0154
 4055SOL     OW19404   1.804   6.445   8.699  0.3178  0.2083 -0.1057
 4055SOL    HW119405   1.894   6.415   8.684  1.0586  1.4088  1.6123
 4055SOL    HW219406   1.806   6.538   8.675 -0.3911  0.3100  0.2166
 4056SOL     OW19407   1.249   2.160  11.235 -0.2044  0.4988  0.4276
 4056SOL    HW119408   1.315   2.174  11.303  0.4614  0.4190 -0.1815
 4056SOL    HW219409   1.219   2.071  11.248 -1.6336  1.1436  1.9152
 4057SOL     OW19410   5.115   9.307   7.625  0.0361  0.2171 -0.0938
 4057SOL    HW119411   5.076   9.337   7.707  0.9153  1.9754 -0.2823
 4057SOL    HW219412   5.044   9.314   7.561  0.6984  4.2195 -0.6208
 4058SOL     OW19413  11.224   9.316   4.877 -0.1409  0.2036  0.2207
 4058SOL    HW119414  11.313   9.299   4.910  0.7891  3.6202 -0.1285
 4058SOL    HW219415  11.228   9.290   4.785  0.0701 -0.9143  0.5359
 4059SOL     OW19416   1.072   3.103  11.592 -0.2946  0.3323 -0.2159
 4059SOL    HW119417   0.980   3.077  11.591 -0.4498  0.6110  2.1122
 4059SOL    HW219418   1.118   3.028  11.628 -0.2600  1.7095  2.9125
 4060SOL     OW19419   8.060   4.242  10.866 -0.4114 -0.2275  0.1537
 4060SOL    HW119420   8.087   4.311  10.806 -3.7041  1.1056  0.0244
 4060SOL    HW219421   8.097   4.267  10.950  0.1227  0.5585 -0.3057
 4061SOL     OW19422   0.127   6.710   1.336  0.2655 -0.0525  0.7718
 4061SOL    HW119423   0.152   6.802   1.333  0.6791 -0.1624 -1.5932
 4061SOL    HW219424   0.208   6.663   1.356  0.6012 -0.0067 -0.3876
 4062SOL     OW19425   6.107   1.191   1.726 -0.5762 -0.7635 -0.2949
 4062SOL    HW119426   6.031   1.145   1.690  0.0569 -1.9089 -0.2151
 4062SOL    HW219427   6.175   1.124   1.732  0.7508  0.4439 -1.2569
 4063SOL     OW19428   6.677   1.705   5.497 -0.2450  0.2914  0.7689
 4063SOL    HW119429   6.735   1.726   5.423 -1.0727 -3.7638 -1.3766
 4063SOL    HW219430   6.595   1.749   5.476  1.0589  3.9025  2.4709
 4064SOL     OW19431   6.152  12.427  10.959  0.3918  0.2805 -0.5710
 4064SOL    HW119432   6.241  12.439  10.992  1.3621 -1.9508 -2.1139
 4064SOL    HW219433   6.159  12.356  10.895 -2.0506  1.7376 -2.6655
 4065SOL     OW19434  10.266   9.543   7.117  0.1220 -0.2571  0.5941
 4065SOL    HW119435  10.314   9.519   7.038 -0.0493  1.1154  0.0489
 4065SOL    HW219436  10.174   9.541   7.091  0.1330  1.9707  0.1935
 4066SOL     OW19437   0.832   3.575   5.046 -0.5747  0.1458  0.2082
 4066SOL    HW119438   0.744   3.605   5.022 -0.2288  0.2043 -1.0602
 4066SOL    HW219439   0.863   3.528   4.969  0.0938 -0.8385  1.0526
 4067SOL     OW19440   1.584   4.085   4.976  0.3191  0.0839  0.2947
 4067SOL    HW119441   1.598   4.175   4.949  1.3520  0.4518  1.9195
 4067SOL    HW219442   1.491   4.081   5.000 -1.3464 -0.8199 -4.9461
 4068SOL     OW19443   6.972   9.501   8.820  0.2653 -0.2774 -0.2503
 4068SOL    HW119444   6.936   9.587   8.840 -0.2452 -0.3051 -1.0105
 4068SOL    HW219445   6.896   9.446   8.804  0.5508 -1.1261  1.1337
 4069SOL     OW19446   6.759   0.216   8.069  0.0592 -0.0604  0.3790
 4069SOL    HW119447   6.818   0.285   8.099  0.4157 -0.4225  0.5104
 4069SOL    HW219448   6.680   0.227   8.122  0.4207 -0.2597  0.9702
 4070SOL     OW19449  10.304  10.312   1.986 -0.3572 -0.0754 -0.0345
 4070SOL    HW119450  10.355  10.273   1.915 -0.6821  0.2317 -0.4360
 4070SOL    HW219451  10.244  10.373   1.943 -0.2203  0.4811  0.5383
 4071SOL     OW19452   4.552   0.198   0.430 -0.3822  0.0877 -0.5888
 4071SOL    HW119453   4.563   0.275   0.485  1.7709 -1.5934  1.5204
 4071SOL    HW219454   4.614   0.210   0.358 -0.0458  0.3042 -0.2614
 4072SOL     OW19455  10.400  11.332  10.103 -0.3534 -0.5340  0.3145
 4072SOL    HW119456  10.396  11.237  10.095  0.7286 -0.6623  1.0624
 4072SOL    HW219457  10.436  11.362  10.019 -1.5771 -0.6899 -0.2792
 4073SOL     OW19458   3.744  10.783   6.149 -0.3552 -0.3018 -0.2443
 4073SOL    HW119459   3.763  10.713   6.211 -0.9625 -0.2134  0.0502
 4073SOL    HW219460   3.806  10.769   6.077 -1.4111 -2.0351 -0.8974
 4074SOL     OW19461   6.600   1.298   6.713  0.8597 -0.5266  0.0447
 4074SOL    HW119462   6.588   1.393   6.719  0.5499 -0.4176 -1.8370
 4074SOL    HW219463   6.630   1.272   6.800 -3.5277  0.6160  2.1999
 4075SOL     OW19464   2.059   7.016   5.704 -0.0070  0.2233  0.0740
 4075SOL    HW119465   2.032   6.981   5.619 -1.0129  1.0024  0.0657
 4075SOL    HW219466   1.978   7.029   5.752  0.5830 -0.6575  1.3570
 4076SOL     OW19467  12.498   3.487   9.767 -0.5713  0.1296 -0.5955
 4076SOL    HW119468  12.459   3.458   9.685 -0.9208  1.2469 -0.8365
 4076SOL    HW219469  12.592   3.472   9.755 -0.6556 -0.0648 -1.0444
 4077SOL     OW19470   3.545   0.951   1.671  0.0107  0.2200  0.0031
 4077SOL    HW119471   3.566   0.995   1.753 -0.6591  1.3876 -0.4327
 4077SOL    HW219472   3.489   0.877   1.698  0.1322  0.3462  0.6266
 4078SOL     OW19473   3.496   0.035   6.165 -0.0982  0.0217 -0.3062
 4078SOL    HW119474   3.452  -0.015   6.233 -2.2144  4.8307  2.4345
 4078SOL    HW219475   3.581   0.057   6.203  0.7690 -1.2499 -1.4326
 4079SOL     OW19476  11.846   1.645   3.249 -0.3432 -0.3230 -0.1943
 4079SOL    HW119477  11.772   1.590   3.223  0.0647 -0.9574 -0.0407
 4079SOL    HW219478  11.889   1.595   3.318  1.6322 -1.0989 -1.8836
 4080SOL     OW19479   7.708   4.153  11.875 -0.0272  0.4585  0.2703
 4080SOL    HW119480   7.679   4.220  11.814 -0.3838  0.1927  0.1397
 4080SOL    HW219481   7.723   4.200  11.957  2.4513  1.1733 -0.5177
 4081SOL     OW19482   9.258   2.722  10.920 -0.1954  0.2351  0.7077
 4081SOL    HW119483   9.323   2.661  10.884  0.1892  1.2730 -0.4100
 4081SOL    HW219484   9.177   2.671  10.922  0.1735 -0.4039  0.0508
 4082SOL     OW19485   9.050   2.366   4.751 -0.0955  0.3762  0.2980
 4082SOL    HW119486   9.085   2.278   4.768 -0.8194  0.2968  1.5191
 4082SOL    HW219487   8.964   2.350   4.712  0.2858  0.5668 -0.6586
 4083SOL     OW19488   7.102   8.101   5.977 -0.1605 -0.0514  0.5510
 4083SOL    HW119489   7.179   8.101   6.034 -0.3196 -0.5284  0.7753
 4083SOL    HW219490   7.137   8.117   5.890  0.3295 -1.3445  0.4868
 4084SOL     OW19491   0.884   9.122  10.201  0.4994 -0.3289 -0.1646
 4084SOL    HW119492   0.844   9.115  10.288 -0.2664 -0.4119 -0.5144
 4084SOL    HW219493   0.969   9.080  10.210  0.7539  0.3335  0.7456
 4085SOL     OW19494   6.493   8.630   9.509 -0.3150 -0.4971  0.1798
 4085SOL    HW119495   6.463   8.567   9.575  0.6374 -0.6161  0.5139
 4085SOL    HW219496   6.429   8.622   9.438 -1.8757  0.2639  1.4312
 4086SOL     OW19497   6.033   0.347   1.169  0.2170 -0.4642 -0.2621
 4086SOL    HW119498   6.072   0.322   1.086 -0.3685 -1.9205 -0.1213
 4086SOL    HW219499   6.014   0.264   1.213  0.9962  0.2573  1.5607
 4087SOL     OW19500   1.288   6.202  10.707  0.4453 -0.4215 -0.5858
 4087SOL    HW119501   1.295   6.295  10.730  0.4991 -0.4460 -0.5034
 4087SOL    HW219502   1.308   6.199  10.613 -1.4500 -0.0872 -1.0485
 4088SOL     OW19503   0.096  10.485   4.855  0.4295 -0.1566 -0.2185
 4088SOL    HW119504   0.140  10.401   4.844  1.3554  0.2092  0.6127
 4088SOL    HW219505   0.049  10.498   4.772 -0.3120 -1.8134 -0.0989
 4089SOL     OW19506   4.070  10.636  11.438  0.5656  0.9029 -0.2586
 4089SOL    HW119507   4.088  10.548  11.471  1.1233  0.7185 -1.0406
 4089SOL    HW219508   4.017  10.677  11.507  0.6654  0.1063  0.3021
 4090SOL     OW19509  12.457  10.319   5.444  0.1432  0.3822 -0.2443
 4090SOL    HW119510  12.551  10.329   5.455  0.7390 -2.7092 -1.5121
 4090SOL    HW219511  12.435  10.380   5.373  1.4471  0.3157 -0.7369
 4091SOL     OW19512   4.993   6.471   9.082  0.1219  0.2122  0.3980
 4091SOL    HW119513   5.079   6.489   9.121  1.0966 -0.2147 -1.4011
 4091SOL    HW219514   5.011   6.466   8.988 -1.5600 -1.6437  0.1059
 4092SOL     OW19515   8.984   4.432  12.090  0.3013  0.1647 -0.8836
 4092SOL    HW119516   8.901   4.384  12.091  0.8404 -0.7960 -0.6585
 4092SOL    HW219517   8.995   4.464  12.179  0.3432 -0.0214 -0.8209
 4093SOL     OW19518   3.144   6.857   7.679  0.2885  0.4097 -0.1284
 4093SOL    HW119519   3.226   6.892   7.715  0.4943 -0.9994  0.8583
 4093SOL    HW219520   3.166   6.767   7.655 -1.1405 -0.1896  0.7435
 4094SOL     OW19521  10.666   2.281  11.519 -0.4151 -0.6696  0.1549
 4094SOL    HW119522  10.669   2.228  11.598  0.1344  0.7806  1.1650
 4094SOL    HW219523  10.752   2.271  11.479  0.3904  0.8645  1.3728
 4095SOL     OW19524   9.865   1.617  10.310  0.8477 -0.2713 -0.0676
 4095SOL    HW119525   9.885   1.600  10.402 -0.4279 -2.1059 -0.0685
 4095SOL    HW219526   9.770   1.617  10.306  0.8313  2.3425 -1.0083
 4096SOL     OW19527   8.259   6.815  12.178  0.4870  0.2189  0.1948
 4096SOL    HW119528   8.313   6.866  12.238  1.6683 -3.0393  2.2203
 4096SOL    HW219529   8.171   6.850  12.188  1.0962  1.3512  1.9981
 4097SOL     OW19530   5.356   6.755  11.758  0.0757 -0.3250  0.2604
 4097SOL    HW119531   5.349   6.760  11.662 -0.3777  1.2845  0.3387
 4097SOL    HW219532   5.284   6.809  11.789  0.6752 -0.2139  1.5045
 4098SOL     OW19533   9.078   8.955   4.552 -0.2482 -0.1743  0.3612
 4098SOL    HW119534   9.019   9.028   4.571  3.0910  2.8588  0.3478
 4098SOL    HW219535   9.066   8.894   4.624 -2.2755  1.0394  1.1091
 4099SOL     OW19536   4.577   5.588   2.973  0.6809  0.3102 -0.0834
 4099SOL    HW119537   4.631   5.616   2.899  0.8148  0.8623  0.2179
 4099SOL    HW219538   4.533   5.668   3.002 -2.3303 -0.5202 -1.9204
 4100SOL     OW19539   2.191  10.280   6.517 -0.2870 -0.1587 -0.0966
 4100SOL    HW119540   2.159  10.370   6.524 -0.4478 -0.0934 -1.4771
 4100SOL    HW219541   2.274  10.288   6.469 -0.1576 -0.7167  0.0302
 4101SOL     OW19542   3.231   7.775   6.680 -0.3508  0.1509 -0.6456
 4101SOL    HW119543   3.237   7.699   6.622  0.5863 -1.0355  0.9039
 4101SOL    HW219544   3.161   7.752   6.741  0.4086  0.1995  0.2648
 4102SOL     OW19545   4.854   3.488  10.802 -0.0505  0.4059  0.0704
 4102SOL    HW119546   4.789   3.442  10.749 -0.5961  0.4980  0.6447
 4102SOL    HW219547   4.854   3.441  10.885  0.5816  0.4434  0.0934
 4103SOL     OW19548  12.295   8.693   0.039  0.2622 -0.2706 -0.5444
 4103SOL    HW119549  12.389   8.676   0.029  0.2010 -0.6288 -0.5270
 4103SOL    HW219550  12.261   8.692  -0.051  0.3599  0.3773 -0.5926
 4104SOL     OW19551  10.617   2.272  11.171 -0.8310  0.1279 -0.8622
 4104SOL    HW119552  10.567   2.320  11.237 -0.7984  0.8948 -1.3834
 4104SOL    HW219553  10.709   2.289  11.193 -0.8142 -0.1876 -0.6910
 4105SOL     OW19554  10.680  10.961   0.359 -0.0724 -0.0943 -0.5159
 4105SOL    HW119555  10.721  11.047   0.345 -0.7509  0.3929  0.3915
 4105SOL    HW219556  10.754  10.903   0.379  0.2408  0.6943  0.7392
 4106SOL     OW19557   7.269   7.531   1.047 -0.4488 -0.5020 -0.6922
 4106SOL    HW119558   7.323   7.471   0.994 -1.6882 -1.6232 -0.7435
 4106SOL    HW219559   7.234   7.475   1.117 -0.4957  0.5066  0.1147
 4107SOL     OW19560   9.551   7.469   2.467 -0.1181 -0.4660 -0.3647
 4107SOL    HW119561   9.492   7.524   2.414  0.2157 -0.4497 -0.7220
 4107SOL    HW219562   9.495   7.435   2.537  0.2599  2.5431  1.5347
 4108SOL     OW19563  11.831   9.072   1.227  0.2408 -0.2500 -0.0453
 4108SOL    HW119564  11.855   9.089   1.136 -0.4838 -0.8000 -0.3532
 4108SOL    HW219565  11.738   9.092   1.232  0.4407  0.5391  0.7800
 4109SOL     OW19566   1.376   5.589   4.062  0.2061  0.3229 -0.3851
 4109SOL    HW119567   1.337   5.664   4.017  0.2780 -0.2165 -1.3624
 4109SOL    HW219568   1.358   5.514   4.005  1.0765 -0.2310  0.0425
 4110SOL     OW19569   2.302   4.438   8.270  0.1769 -0.4639 -0.2198
 4110SOL    HW119570   2.284   4.510   8.209  0.7875 -0.6651 -0.6471
 4110SOL    HW219571   2.326   4.365   8.214  1.4053 -0.4601  0.2815
 4111SOL     OW19572   5.967  10.421   2.352  0.5627 -0.4231 -0.1859
 4111SOL    HW119573   6.029  10.414   2.424  0.0012  0.8383  0.4349
 4111SOL    HW219574   6.021  10.413   2.273  1.1366 -2.2206  0.3348
 4112SOL     OW19575  10.115  12.481   0.226  0.2693  0.5608 -0.0200
 4112SOL    HW119576  10.034  12.468   0.277  1.0314 -2.3505  0.5931
 4112SOL    HW219577  10.100  12.434   0.144  1.2673  0.1177  0.0364
 4113SOL     OW19578  10.573   3.506   4.097 -0.6753 -0.9669  0.2022
 4113SOL    HW119579  10.626   3.495   4.175  0.2490  0.6799 -0.1481
 4113SOL    HW219580  10.492   3.459   4.116 -1.5668  1.5235  3.2176
 4114SOL     OW19581   1.367   5.036   0.518 -0.5292 -0.2816 -0.3940
 4114SOL    HW119582   1.453   5.025   0.476  0.4033 -2.1447  1.7384
 4114SOL    HW219583   1.309   4.976   0.471 -1.2804  2.2994 -3.0458
 4115SOL     OW19584   5.780   9.515   3.410 -0.0831 -0.0895  0.0556
 4115SOL    HW119585   5.814   9.566   3.336 -0.2166  0.4098  0.3313
 4115SOL    HW219586   5.685   9.518   3.398 -0.0675 -0.9989 -0.3970
 4116SOL     OW19587  11.229   3.920   6.600 -0.3912  0.0986  0.3712
 4116SOL    HW119588  11.166   3.986   6.569  1.0986  1.6133  0.4398
 4116SOL    HW219589  11.195   3.893   6.685 -1.1917  0.5410  0.2093
 4117SOL     OW19590   0.189  10.651   3.077  0.2797 -0.1887 -0.6219
 4117SOL    HW119591   0.096  10.655   3.102  0.0424 -0.2501 -1.4465
 4117SOL    HW219592   0.200  10.564   3.040  0.4334  0.1373 -1.3702
 4118SOL     OW19593   4.046   8.277   0.922 -0.5682  0.9796 -0.6332
 4118SOL    HW119594   4.040   8.192   0.966 -0.7122  1.3572  0.0965
 4118SOL    HW219595   4.030   8.258   0.830  0.4072  0.0688 -0.6354
 4119SOL     OW19596   8.631   0.888   7.486 -0.4020 -0.4565  0.2586
 4119SOL    HW119597   8.587   0.851   7.562  0.0029  0.4076  0.9299
 4119SOL    HW219598   8.637   0.982   7.505 -1.6352  0.0303 -1.4924
 4120SOL     OW19599  12.626  10.957   3.258  0.2543  0.0243  0.1725
 4120SOL    HW119600  12.565  11.021   3.221 -0.0912 -0.0462  0.6031
 4120SOL    HW219601  12.606  10.957   3.352  1.8059  0.9629  0.5533
 4121SOL     OW19602   5.667  10.780   6.370  0.6293  0.7025  0.1206
 4121SOL    HW119603   5.689  10.691   6.344 -1.0344  0.3720 -0.2301
 4121SOL    HW219604   5.636  10.822   6.290 -3.5728 -0.0192  1.1051
 4122SOL     OW19605   4.620  10.014   6.775  0.0761 -0.2755 -0.3063
 4122SOL    HW119606   4.525  10.015   6.789 -0.0306 -0.6169 -0.9808
 4122SOL    HW219607   4.649   9.929   6.809  0.0872 -0.3296 -0.4508
 4123SOL     OW19608  10.712   9.811   0.826  0.3912  0.5229 -0.0697
 4123SOL    HW119609  10.769   9.738   0.798 -0.3292  0.1474 -0.5947
 4123SOL    HW219610  10.772   9.876   0.862  1.3115  0.7348 -1.8752
 4124SOL     OW19611   4.172   6.891   5.866 -0.0275 -0.2204 -0.3115
 4124SOL    HW119612   4.189   6.859   5.777  1.6863  1.7928 -0.7766
 4124SOL    HW219613   4.236   6.846   5.920 -0.5847 -0.9000 -0.2133
 4125SOL     OW19614   1.040   4.666   0.938  0.4704  0.1882  0.3555
 4125SOL    HW119615   1.042   4.632   1.028  0.3030  0.3107  0.4059
 4125SOL    HW219616   1.072   4.756   0.946  1.2399 -0.0687  0.1716
 4126SOL     OW19617   2.447   8.815   4.360 -0.1025  0.3332 -0.9063
 4126SOL    HW119618   2.541   8.826   4.354 -0.2566  1.9957 -0.8400
 4126SOL    HW219619   2.412   8.904   4.361 -1.5017 -0.1200  1.6535
 4127SOL     OW19620   5.047  12.520   6.612 -0.0208 -0.0847  0.4711
 4127SOL    HW119621   5.121  12.578   6.630 -0.1484 -0.3953  2.1826
 4127SOL    HW219622   5.080  12.459   6.547  1.6657 -0.9381  2.0179
 4128SOL     OW19623   7.681  10.325   6.378  0.8316 -0.2360 -0.5101
 4128SOL    HW119624   7.721  10.309   6.464 -0.5387  0.3968  0.2739
 4128SOL    HW219625   7.681  10.421   6.369 -2.2634 -0.0287  0.4592
 4129SOL     OW19626   7.710   8.820   2.611 -0.4379  0.3430  0.0099
 4129SOL    HW119627   7.747   8.884   2.672  1.5887 -0.6119 -0.1402
 4129SOL    HW219628   7.732   8.735   2.650  0.8336 -0.2921 -1.9941
 4130SOL     OW19629  12.166   1.365   7.637  0.0706 -0.8544  0.1058
 4130SOL    HW119630  12.141   1.274   7.656 -0.0437 -0.8343  0.0563
 4130SOL    HW219631  12.243   1.381   7.691 -0.5265 -0.6491  0.9231
 4131SOL     OW19632   4.488  12.478  12.676  0.2408  0.4920  0.0303
 4131SOL    HW119633   4.544  12.553  12.658  0.6103 -0.0195 -1.0049
 4131SOL    HW219634   4.409  12.516  12.716  0.4767  1.4020 -0.3419
 4132SOL     OW19635   0.423   9.790   5.082 -0.0250  0.0204 -0.3678
 4132SOL    HW119636   0.382   9.793   5.169 -1.1964 -0.8519 -0.8573
 4132SOL    HW219637   0.480   9.867   5.079 -1.1642  0.9387  0.5857
 4133SOL     OW19638  12.012   3.990   8.006 -0.4833 -0.3851  1.0310
 4133SOL    HW119639  12.051   4.070   7.972 -0.9866 -0.4402  0.3001
 4133SOL    HW219640  12.047   3.921   7.951 -1.3479 -0.4675  0.5681
 4134SOL     OW19641   2.906   0.593   3.299 -0.1626  0.0525  0.3413
 4134SOL    HW119642   2.903   0.684   3.328 -2.8398 -0.2961  1.4710
 4134SOL    HW219643   2.993   0.562   3.327  0.2002  1.8119  1.3301
 4135SOL     OW19644   7.886   1.099  11.954 -0.7201 -0.8753  0.3941
 4135SOL    HW119645   7.938   1.112  11.874 -0.2919 -0.0025  0.8074
 4135SOL    HW219646   7.942   1.045  12.010 -0.9427 -1.3240  0.1957
 4136SOL     OW19647   0.130  10.259   8.821 -0.7654  0.6460 -0.0102
 4136SOL    HW119648   0.146  10.295   8.909  1.0483  1.7314 -0.7310
 4136SOL    HW219649   0.087  10.331   8.774  1.0357  1.2157 -0.8660
 4137SOL     OW19650  10.120  12.259   3.340 -0.0738  0.5120 -0.0514
 4137SOL    HW119651  10.063  12.294   3.409 -0.5946  2.1691 -1.2623
 4137SOL    HW219652  10.078  12.287   3.259  2.3681  1.6745 -0.9930
 4138SOL     OW19653  10.958   0.116   1.582  0.1182 -0.0962 -0.1602
 4138SOL    HW119654  11.053   0.126   1.575  0.0674  1.2217  0.5989
 4138SOL    HW219655  10.922   0.183   1.524 -0.3242  0.4389  0.7093
 4139SOL     OW19656   8.978   6.425   2.020 -0.4023  0.1363 -0.3895
 4139SOL    HW119657   8.921   6.374   1.962  1.0408 -1.0667 -0.8083
 4139SOL    HW219658   9.038   6.360   2.057  1.1219  1.4492 -0.4716
 4140SOL     OW19659   3.959   2.679   6.745 -0.0950 -0.1647  0.9457
 4140SOL    HW119660   3.956   2.694   6.840 -1.6239  3.5442  0.4658
 4140SOL    HW219661   4.009   2.753   6.711 -1.0575 -0.4953 -1.3034
 4141SOL     OW19662   6.350   8.800   9.148 -0.1104  0.1612 -0.0556
 4141SOL    HW119663   6.318   8.836   9.231  2.3090 -1.2599  1.6079
 4141SOL    HW219664   6.299   8.846   9.081 -1.3950  2.1717  2.1496
 4142SOL     OW19665   8.789   5.633   4.915  0.0053 -0.5216  0.0856
 4142SOL    HW119666   8.798   5.589   4.831 -0.3147 -1.7542  0.6647
 4142SOL    HW219667   8.879   5.660   4.937 -0.2051  2.0078 -1.7171
 4143SOL     OW19668   0.125  12.378   3.212  0.5121  0.7097 -0.3488
 4143SOL    HW119669   0.082  12.459   3.239  0.0219 -0.3127  2.1888
 4143SOL    HW219670   0.053  12.319   3.191  0.8663  0.8365 -2.0920
 4144SOL     OW19671   2.929   1.344   2.702 -0.2609 -0.4634  0.1897
 4144SOL    HW119672   2.905   1.436   2.713 -1.7571 -0.6662 -1.0129
 4144SOL    HW219673   3.021   1.339   2.728 -0.6201  1.0273  1.9236
 4145SOL     OW19674   5.340   3.245   9.399  0.2383  0.1722  0.0001
 4145SOL    HW119675   5.274   3.291   9.348 -0.9246  1.4134  2.4103
 4145SOL    HW219676   5.304   3.157   9.412 -0.8243  0.7369  1.0076
 4146SOL     OW19677   5.125   8.220   3.973 -0.2406  0.0281  0.2517
 4146SOL    HW119678   5.037   8.195   4.002 -1.1384  1.4107 -1.0764
 4146SOL    HW219679   5.116   8.232   3.878  1.2377  0.7376  0.1673
 4147SOL     OW19680   6.679   3.883   2.988  0.2381 -0.2624  0.1610
 4147SOL    HW119681   6.590   3.917   2.991  0.0978 -0.5509 -0.6929
 4147SOL    HW219682   6.676   3.804   3.042  0.2557  0.3360  1.0639
 4148SOL     OW19683  12.261  12.359   3.974 -0.4184  0.1871 -0.4291
 4148SOL    HW119684  12.340  12.363   4.029 -0.6559  1.2606 -0.1410
 4148SOL    HW219685  12.221  12.275   3.996  2.4934 -2.2045 -3.2406
 4149SOL     OW19686   0.141   2.060   8.990 -0.4559 -0.8409 -0.0528
 4149SOL    HW119687   0.078   2.071   8.918  2.7867  0.6152 -3.0278
 4149SOL    HW219688   0.183   1.976   8.973 -0.2754 -0.9181  0.7336
 4150SOL     OW19689   8.861  10.226   6.665 -0.3340 -0.5341  0.2271
 4150SOL    HW119690   8.862  10.275   6.747 -0.9942  0.6406 -0.4347
 4150SOL    HW219691   8.926  10.270   6.610 -0.2788 -0.9763 -0.0676
 4151SOL     OW19692   8.490   4.262   1.022 -0.6813 -0.2905  0.2819
 4151SOL    HW119693   8.457   4.184   1.068 -0.3368 -2.2638 -2.5479
 4151SOL    HW219694   8.510   4.231   0.934 -2.3289  3.4500 -1.6354
 4152SOL     OW19695   0.772  10.986  11.950 -0.0216  0.0991  0.1286
 4152SOL    HW119696   0.776  10.914  12.013 -1.1599 -0.9881 -0.9681
 4152SOL    HW219697   0.799  11.063  12.000  1.5333 -1.1180  1.2624
 4153SOL     OW19698   4.337   3.226   1.201  0.0978 -0.3684 -0.7634
 4153SOL    HW119699   4.345   3.226   1.296 -0.7271 -0.8578 -0.6788
 4153SOL    HW219700   4.247   3.257   1.185  0.5548  0.6792 -1.4253
 4154SOL     OW19701   7.361  11.751   4.635  0.0917  0.5199 -0.4274
 4154SOL    HW119702   7.379  11.845   4.644  2.9603  0.3000 -2.6767
 4154SOL    HW219703   7.268  11.743   4.659  0.6145  3.2797  3.4869
 4155SOL     OW19704   8.364  12.545   5.500 -0.2694  0.6612  0.0032
 4155SOL    HW119705   8.302  12.612   5.528  1.1188  2.3416 -0.7711
 4155SOL    HW219706   8.317  12.494   5.434 -1.4551  0.6455  0.8439
 4156SOL     OW19707   3.948   1.305  12.408  0.6195 -0.1976  0.3577
 4156SOL    HW119708   3.859   1.326  12.434  0.1448 -0.5258 -0.9347
 4156SOL    HW219709   3.976   1.237  12.470 -0.6890 -1.3881 -0.3060
 4157SOL     OW19710   2.249   2.574  10.535 -0.1000  0.2050  0.1319
 4157SOL    HW119711   2.307   2.509  10.575 -0.7499  0.1709  1.0517
 4157SOL    HW219712   2.190   2.523  10.480  0.2386  0.1608 -0.1939
 4158SOL     OW19713   7.174   9.547   4.601 -0.0494 -0.0483 -0.0709
 4158SOL    HW119714   7.254   9.527   4.554  0.5898  0.8155  0.6125
 4158SOL    HW219715   7.176   9.642   4.613 -0.0742 -0.2442  1.8454
 4159SOL     OW19716   6.229   1.514   6.649 -0.5497  0.2824 -0.2787
 4159SOL    HW119717   6.312   1.492   6.691 -0.4213  3.3243  1.3116
 4159SOL    HW219718   6.190   1.429   6.628  1.4282 -1.3128  1.9347
 4160SOL     OW19719   2.307  11.522   6.768  0.0253  0.3915 -0.5444
 4160SOL    HW119720   2.291  11.432   6.739 -1.7659  0.9989 -1.5752
 4160SOL    HW219721   2.403  11.531   6.764  0.1365 -0.8738 -2.3396
 4161SOL     OW19722   9.817   7.094   0.226 -0.7433  0.2927  0.0066
 4161SOL    HW119723   9.807   7.177   0.273  0.6026  0.7436 -0.4417
 4161SOL    HW219724   9.893   7.052   0.267  0.4009  0.6491 -1.6540
 4162SOL     OW19725   3.692   7.020   1.167  0.8008 -0.4185  0.5408
 4162SOL    HW119726   3.747   7.065   1.231  0.1755 -0.3111  1.0106
 4162SOL    HW219727   3.612   6.997   1.215  0.6828 -1.1118  0.0297
 4163SOL     OW19728   4.970   5.033   2.000  0.4378 -0.8070 -0.4283
 4163SOL    HW119729   5.022   5.093   1.946  0.8123 -0.7115  0.0409
 4163SOL    HW219730   5.000   4.946   1.974  2.8226 -0.7420  1.7548
 4164SOL     OW19731   9.719   2.036   6.130 -0.4358 -0.2822 -0.1218
 4164SOL    HW119732   9.670   1.954   6.123 -0.0431 -0.4892 -0.4898
 4164SOL    HW219733   9.792   2.026   6.069  0.3552 -0.1829  0.7730
 4165SOL     OW19734   3.995   2.585   9.769 -0.7955 -0.3823 -0.2571
 4165SOL    HW119735   3.934   2.638   9.821  0.5348  0.2108  0.7654
 4165SOL    HW219736   4.014   2.510   9.826  1.0939  0.5434  0.3935
 4166SOL     OW19737   0.891   0.075   8.523 -0.6020  0.7886 -0.4362
 4166SOL    HW119738   0.892   0.002   8.585 -1.3265  1.1295 -0.0086
 4166SOL    HW219739   0.872   0.034   8.438  0.4848  0.3109 -0.4567
 4167SOL     OW19740  11.233  12.034   2.492  0.3768  0.6531 -0.7413
 4167SOL    HW119741  11.183  12.015   2.571  2.9460  1.0597  1.1208
 4167SOL    HW219742  11.178  12.095   2.443 -1.9816 -0.8478 -0.1084
 4168SOL     OW19743   9.980   9.392   1.185  0.3105  0.4250 -0.1415
 4168SOL    HW119744  10.033   9.471   1.175  0.9397  0.0579  0.2083
 4168SOL    HW219745  10.015   9.331   1.120  2.4492 -0.9219  2.0993
 4169SOL     OW19746   4.950   2.993   8.833 -0.2983 -0.0181 -0.2212
 4169SOL    HW119747   4.891   3.051   8.787  0.7936  1.2199 -0.1131
 4169SOL    HW219748   5.018   3.050   8.869  0.6267 -1.3112  0.1838
 4170SOL     OW19749  11.543   7.993   5.821  0.0735  0.0435  0.3717
 4170SOL    HW119750  11.557   7.898   5.822 -0.5605 -0.0584  1.6633
 4170SOL    HW219751  11.615   8.030   5.871 -0.1746  0.1591  0.6495
 4171SOL     OW19752  12.384  12.209   4.489  0.0532 -0.0471 -0.4440
 4171SOL    HW119753  12.339  12.207   4.573 -2.1022  0.0919 -1.5411
 4171SOL    HW219754  12.437  12.289   4.492 -3.2036  2.2974 -0.7270
 4172SOL     OW19755   6.414   4.263   3.512  0.2820  0.3986 -0.0420
 4172SOL    HW119756   6.384   4.176   3.487  1.0189  0.1333 -0.0312
 4172SOL    HW219757   6.369   4.281   3.594  0.1461  0.0106 -0.0300
 4173SOL     OW19758   0.949  12.559   0.948  0.1314 -0.0520  0.0062
 4173SOL    HW119759   1.040  12.542   0.971 -0.1327  1.1028  2.1340
 4173SOL    HW219760   0.917  12.475   0.916  1.4278 -0.9951  1.0726
 4174SOL     OW19761  12.693   3.165   4.379 -0.0749 -0.1102  0.3612
 4174SOL    HW119762  12.705   3.248   4.333 -0.1009  0.2872  1.0424
 4174SOL    HW219763  12.771   3.114   4.358  0.3308  0.4076  0.5647
 4175SOL     OW19764   1.646  12.424   0.008 -0.0333  0.4159  0.0390
 4175SOL    HW119765   1.723  12.464  -0.032  0.0261 -0.6945 -1.0262
 4175SOL    HW219766   1.591  12.400  -0.066 -0.3424 -0.8672  0.6612
 4176SOL     OW19767   8.122  10.376  11.614  0.3841 -0.5236 -0.3600
 4176SOL    HW119768   8.068  10.407  11.541  1.8606  0.4182 -1.1188
 4176SOL    HW219769   8.135  10.453  11.669  0.5001 -0.8717  0.1044
 4177SOL     OW19770   4.298   5.616   9.036 -0.1242  0.3062  0.2306
 4177SOL    HW119771   4.295   5.553   8.964 -1.5649  0.8546 -0.2381
 4177SOL    HW219772   4.279   5.565   9.114  0.2144 -0.0977  0.0488
 4178SOL     OW19773   6.945   8.193   6.255  0.3725  0.1005  0.3526
 4178SOL    HW119774   7.012   8.247   6.214 -1.3783  1.6618 -0.6069
 4178SOL    HW219775   6.891   8.162   6.182 -1.3263  0.8570  1.2078
 4179SOL     OW19776   0.478   8.539   1.406  0.6248 -0.4126  0.7061
 4179SOL    HW119777   0.568   8.536   1.372  1.0926 -1.2714  1.9246
 4179SOL    HW219778   0.423   8.552   1.329  1.8067  0.3196 -0.0346
 4180SOL     OW19779   4.811   3.018   2.028  0.2508 -0.2045  0.4641
 4180SOL    HW119780   4.868   3.083   2.070 -1.2586  2.8905 -1.8353
 4180SOL    HW219781   4.728   3.026   2.076 -0.0761 -0.0629 -0.1189
 4181SOL     OW19782   3.985  11.527   3.604 -0.1575  0.0763  0.3042
 4181SOL    HW119783   3.913  11.468   3.627 -0.4438  0.6812  0.9792
 4181SOL    HW219784   4.047  11.517   3.676  0.7122 -0.8493 -0.5349
 4182SOL     OW19785  11.761   9.389  10.589  0.1043 -0.5021 -0.3340
 4182SOL    HW119786  11.707   9.402  10.668  1.7736  1.3835  0.5889
 4182SOL    HW219787  11.739   9.464  10.533  0.6335 -0.5625 -0.6236
 4183SOL     OW19788   7.016   7.903   9.076 -0.1604  0.1279  0.1133
 4183SOL    HW119789   6.920   7.912   9.079 -0.3455 -0.9171 -1.5315
 4183SOL    HW219790   7.034   7.868   8.989  1.8032  0.9794  0.1312
 4184SOL     OW19791   0.858   5.313   1.918 -0.5348  0.9288  0.2578
 4184SOL    HW119792   0.874   5.345   1.829 -0.0503  0.0578  0.0131
 4184SOL    HW219793   0.890   5.223   1.917 -0.8971  0.7738  1.2077
 4185SOL     OW19794   1.155   8.992   9.960 -0.4433 -0.1260 -0.1393
 4185SOL    HW119795   1.098   8.953   9.894 -1.1242  1.6357 -0.6447
 4185SOL    HW219796   1.139   9.086   9.954 -1.7944  0.0805  3.6692
 4186SOL     OW19797  11.776   0.374   9.021 -0.1645  0.1883 -0.1227
 4186SOL    HW119798  11.840   0.434   9.060 -0.0395  2.1849 -3.1156
 4186SOL    HW219799  11.691   0.407   9.051  0.0156  0.2417  0.3399
 4187SOL     OW19800   6.133   0.774   3.235 -0.0829 -0.5144 -0.5904
 4187SOL    HW119801   6.077   0.798   3.161 -2.4358  0.5852  1.4080
 4187SOL    HW219802   6.154   0.857   3.277  2.5557 -0.9779 -0.8621
 4188SOL     OW19803   0.087  10.765  11.701 -0.8669  0.0848 -0.8116
 4188SOL    HW119804   0.182  10.770  11.691 -0.7928 -0.4751 -0.4336
 4188SOL    HW219805   0.060  10.854  11.724 -0.3959  0.1755 -0.6120
 4189SOL     OW19806   7.799   9.633   8.131  0.8171 -0.0129 -0.0023
 4189SOL    HW119807   7.834   9.590   8.053  0.4402 -1.2528  0.4849
 4189SOL    HW219808   7.859   9.705   8.148  0.6790  0.5397 -1.6735
 4190SOL     OW19809   0.210   2.461   2.228 -0.2279 -0.3835 -0.4875
 4190SOL    HW119810   0.181   2.419   2.147 -1.5565  1.8272 -1.2223
 4190SOL    HW219811   0.131   2.463   2.283  0.2983 -0.5378  0.2910
 4191SOL     OW19812   1.061   2.444  10.633 -0.1521 -0.6113  0.7099
 4191SOL    HW119813   1.066   2.466  10.726  0.8779 -0.6104  0.6722
 4191SOL    HW219814   1.072   2.349  10.630  0.0009 -0.5907  0.5814
 4192SOL     OW19815   7.740   7.639  11.253  0.0534  0.8602 -0.0030
 4192SOL    HW119816   7.645   7.640  11.246  0.0591  2.0756 -0.1715
 4192SOL    HW219817   7.761   7.719  11.302  0.9975  0.7351 -0.1787
 4193SOL     OW19818  11.883  12.605   7.237  0.8117  0.5862 -0.6770
 4193SOL    HW119819  11.803  12.658   7.244 -1.0519 -2.1664  3.0566
 4193SOL    HW219820  11.854  12.524   7.195  1.8722 -0.0846 -0.1524
 4194SOL     OW19821   0.023   4.434  12.074  0.3413 -0.0085 -0.3454
 4194SOL    HW119822   0.037   4.461  11.983 -1.5461  1.1731 -0.3395
 4194SOL    HW219823  -0.071   4.446  12.088  0.5628 -0.3866  1.7077
 4195SOL     OW19824   1.410   2.063   3.796  0.2907 -0.0007  0.1152
 4195SOL    HW119825   1.386   2.008   3.720  1.6646  1.0649 -1.1422
 4195SOL    HW219826   1.349   2.137   3.791 -0.0722 -0.2708  0.4752
 4196SOL     OW19827  12.132  10.947   1.597 -0.5288 -0.3775 -0.1760
 4196SOL    HW119828  12.056  10.995   1.565 -1.6698 -1.8995  0.1457
 4196SOL    HW219829  12.124  10.860   1.558  0.5256 -0.8607  0.6258
 4197SOL     OW19830   7.577   0.780   9.279  1.2025 -0.4046  0.0501
 4197SOL    HW119831   7.541   0.702   9.237  1.4626 -0.7690  0.5019
 4197SOL    HW219832   7.665   0.754   9.306  1.0529 -0.1600  0.7846
 4198SOL     OW19833  10.240  10.330   9.585  0.8147  0.2256 -0.0247
 4198SOL    HW119834  10.290  10.287   9.654  0.5207 -1.4105 -0.7808
 4198SOL    HW219835  10.260  10.280   9.506 -0.6192  0.6347 -0.6771
 4199SOL     OW19836   7.483   8.201   5.801 -0.4840  0.4882 -0.6019
 4199SOL    HW119837   7.412   8.185   5.739 -1.2018 -0.4041  0.4013
 4199SOL    HW219838   7.561   8.209   5.747 -0.8512 -1.6839 -1.5695
 4200SOL     OW19839  10.533   2.785  10.418  0.0365  0.5841  0.1791
 4200SOL    HW119840  10.608   2.754  10.469 -0.2660 -0.4368  0.0245
 4200SOL    HW219841  10.563   2.867  10.378  0.1312  1.6940  2.3640
 4201SOL     OW19842   6.579   4.720   7.337  0.8191  0.1826  0.4082
 4201SOL    HW119843   6.515   4.660   7.299 -0.8934  0.4509  2.7035
 4201SOL    HW219844   6.528   4.792   7.372  2.4762  0.9828  1.3032
 4202SOL     OW19845   6.357   0.952   6.280  0.4909  0.4357  0.4035
 4202SOL    HW119846   6.304   1.027   6.305  0.2765  1.0670 -1.6991
 4202SOL    HW219847   6.297   0.894   6.234  1.0537 -0.1281  0.3644
 4203SOL     OW19848   3.896  10.037   5.859 -0.1469 -0.5197  0.0080
 4203SOL    HW119849   3.938   9.971   5.804 -0.2394  0.4326 -1.2832
 4203SOL    HW219850   3.805  10.038   5.831 -0.1418  0.1562 -0.0187
 4204SOL     OW19851  10.690  11.370   3.710  0.0341  0.2898  0.1237
 4204SOL    HW119852  10.740  11.451   3.700 -1.5354  1.3292  0.3168
 4204SOL    HW219853  10.600  11.395   3.690 -0.3882 -1.5963 -0.5890
 4205SOL     OW19854   5.377  11.544   3.902 -0.4021 -0.1178 -0.0164
 4205SOL    HW119855   5.473  11.544   3.891 -0.5862 -0.4407 -2.0527
 4205SOL    HW219856   5.362  11.484   3.975  0.9263 -0.4190  0.0515
 4206SOL     OW19857   1.527  10.121   1.135 -0.1031  0.3884  0.7719
 4206SOL    HW119858   1.448  10.174   1.129 -0.0113  0.5582  1.0696
 4206SOL    HW219859   1.546  10.115   1.228 -1.7630 -2.6194  1.0282
 4207SOL     OW19860  11.870   2.957   9.721  0.5221 -0.1755 -0.2865
 4207SOL    HW119861  11.928   2.895   9.676 -0.1669  0.4722 -2.1855
 4207SOL    HW219862  11.906   3.043   9.698 -0.0472  0.1820  0.1484
 4208SOL     OW19863   9.836   5.405   2.577 -0.3687  0.6070 -0.2001
 4208SOL    HW119864   9.780   5.429   2.651 -1.3806 -0.4730 -0.5826
 4208SOL    HW219865   9.886   5.330   2.608  0.1246  0.9297 -0.2057
 4209SOL     OW19866  11.650   5.887  10.691  0.0358  0.1431  0.5565
 4209SOL    HW119867  11.685   5.861  10.606  0.9637 -2.3814  1.6071
 4209SOL    HW219868  11.703   5.963  10.716 -0.6001  1.2532 -1.2941
 4210SOL     OW19869   3.626   8.228   8.135  0.2909 -0.0640  0.5380
 4210SOL    HW119870   3.675   8.296   8.181  0.2581  0.4109 -0.1233
 4210SOL    HW219871   3.560   8.199   8.198 -1.3849  2.2934  0.0093
 4211SOL     OW19872   9.963   9.037   7.205  0.1258  0.5549 -0.1495
 4211SOL    HW119873   9.928   9.033   7.293 -0.0900  1.4129 -0.1857
 4211SOL    HW219874  10.048   8.994   7.211 -0.7080 -1.1753  0.0293
 4212SOL     OW19875  10.010   2.100   7.488  0.5115  0.3348  0.2951
 4212SOL    HW119876  10.004   2.047   7.408 -1.2738  0.5839  0.2222
 4212SOL    HW219877  10.013   2.190   7.456 -0.4479  0.4464  0.4926
 4213SOL     OW19878  11.636   3.492   4.259 -0.4802 -0.1889  0.6821
 4213SOL    HW119879  11.630   3.587   4.271  0.0838 -0.1757  0.9021
 4213SOL    HW219880  11.667   3.481   4.169  1.5175 -0.0908  1.3245
 4214SOL     OW19881   6.810   2.215  12.633 -0.3344  0.1772  0.4589
 4214SOL    HW119882   6.793   2.308  12.649 -0.2996  0.7229 -2.2462
 4214SOL    HW219883   6.735   2.185  12.582  1.0026 -0.4912 -1.2038
 4215SOL     OW19884   3.419  12.237   0.259  0.0831  0.8138 -0.3686
 4215SOL    HW119885   3.342  12.264   0.208  0.2542  0.7606 -0.6569
 4215SOL    HW219886   3.396  12.150   0.291  0.3206  0.4798 -1.0818
 4216SOL     OW19887  12.306   5.823   0.891 -0.6172  0.2955 -0.1873
 4216SOL    HW119888  12.395   5.819   0.928 -0.8839  0.6881  0.5262
 4216SOL    HW219889  12.290   5.734   0.860 -0.1236  0.1162  0.0489
 4217SOL     OW19890   1.691  11.695  11.204 -0.5773  0.1700  0.0803
 4217SOL    HW119891   1.628  11.658  11.265  0.1809  1.1594  1.5189
 4217SOL    HW219892   1.733  11.767  11.252  0.8859  0.2393 -1.1904
 4218SOL     OW19893  10.780   4.355   2.236  0.1170  0.0044  0.3582
 4218SOL    HW119894  10.712   4.294   2.266 -0.6055 -0.0554 -1.2545
 4218SOL    HW219895  10.793   4.415   2.309 -1.8135  0.1040  0.6727
 4219SOL     OW19896   8.475  12.194   4.407 -0.1281  0.4555 -0.1264
 4219SOL    HW119897   8.452  12.220   4.496 -2.0690  1.2434 -0.8280
 4219SOL    HW219898   8.513  12.273   4.368  1.8152 -0.2039  0.3016
 4220SOL     OW19899   8.517   5.333   9.612  0.0110 -0.2468 -0.0316
 4220SOL    HW119900   8.473   5.415   9.590 -0.2960 -0.7209 -1.3091
 4220SOL    HW219901   8.457   5.265   9.580 -0.6640 -1.0726  2.6994
 4221SOL     OW19902   1.079  11.386   3.285 -0.4088  0.0825  0.0661
 4221SOL    HW119903   1.158  11.405   3.235 -0.3103  2.1011  0.8841
 4221SOL    HW219904   1.103  11.312   3.341  0.6950  0.2811 -0.1285
 4222SOL     OW19905  10.832   4.597   4.091  0.0004 -0.4209  0.3467
 4222SOL    HW119906  10.886   4.611   4.168 -1.0579  1.4900  0.7976
 4222SOL    HW219907  10.851   4.507   4.064 -0.0685 -1.3666  3.1778
 4223SOL     OW19908   8.989   4.772   7.923  0.3993  0.0268  0.2144
 4223SOL    HW119909   8.916   4.832   7.905 -1.4390 -1.8446  1.0980
 4223SOL    HW219910   9.061   4.830   7.949 -1.4595  1.8519  1.6302
 4224SOL     OW19911   0.462   4.110   3.449  0.4652  0.1905  0.2569
 4224SOL    HW119912   0.489   4.085   3.538 -2.2881 -2.9517  0.4107
 4224SOL    HW219913   0.510   4.050   3.392  1.2104  1.3148 -0.3395
 4225SOL     OW19914  11.006  10.849   6.490 -0.2087 -0.7579  0.3957
 4225SOL    HW119915  10.985  10.940   6.509 -1.8730 -0.8101 -0.9930
 4225SOL    HW219916  11.038  10.851   6.400  2.1420 -1.2595  1.1417
 4226SOL     OW19917   5.702  10.093   5.580  0.2323  0.0445  0.6594
 4226SOL    HW119918   5.607  10.103   5.572 -0.0148 -1.8787  0.7877
 4226SOL    HW219919   5.721  10.119   5.671  0.4427  3.9930 -0.3016
 4227SOL     OW19920   9.529   8.892   3.904 -0.2399  0.2944 -0.0755
 4227SOL    HW119921   9.437   8.867   3.899 -0.9023  2.5483 -0.2001
 4227SOL    HW219922   9.571   8.847   3.831 -1.7090  1.0255 -1.4122
 4228SOL     OW19923   1.690   4.314   6.963  0.4980 -0.3528 -0.3839
 4228SOL    HW119924   1.750   4.389   6.963 -0.4621  0.4465 -1.8340
 4228SOL    HW219925   1.604   4.351   6.945 -0.0506 -1.7654 -0.8201
 4229SOL     OW19926   3.744   0.910   3.342 -0.1451  0.3246  0.6059
 4229SOL    HW119927   3.777   0.993   3.376  1.2678  0.4295 -0.8701
 4229SOL    HW219928   3.652   0.927   3.321  0.7160  2.3525 -2.0057
 4230SOL     OW19929   3.471   3.073  12.088  0.3364  0.0399 -0.3985
 4230SOL    HW119930   3.423   2.995  12.060 -0.8680  0.2963  0.8758
 4230SOL    HW219931   3.483   3.061  12.183  0.0112  1.4646 -0.1603
 4231SOL     OW19932   3.369   6.367  11.639  0.1639 -0.3762  0.5735
 4231SOL    HW119933   3.287   6.323  11.615 -0.1033  0.1506  0.5018
 4231SOL    HW219934   3.437   6.303  11.618 -0.3002 -1.4090  2.0413
 4232SOL     OW19935   4.144   1.113  11.763  0.1386 -0.3835 -0.0443
 4232SOL    HW119936   4.063   1.080  11.725  0.9644 -1.6981 -0.7563
 4232SOL    HW219937   4.122   1.200  11.797 -1.1766 -0.0866 -1.5734
 4233SOL     OW19938   9.507  10.725   7.915 -0.4841  0.6040  0.3747
 4233SOL    HW119939   9.600  10.703   7.918 -0.3488  1.0731 -0.1348
 4233SOL    HW219940   9.462  10.642   7.931  0.0148  0.6761  2.2831
 4234SOL     OW19941  11.594   5.726   9.309 -0.3858  0.6937  0.2427
 4234SOL    HW119942  11.629   5.760   9.226  0.1034 -0.9829 -0.2761
 4234SOL    HW219943  11.672   5.705   9.360 -0.6615  3.0859  1.7809
 4235SOL     OW19944   1.696   4.383   4.597  0.2205 -0.2983  0.1175
 4235SOL    HW119945   1.738   4.468   4.609  1.0599 -0.6530 -0.2491
 4235SOL    HW219946   1.648   4.392   4.515 -0.4253  0.1040  0.5317
 4236SOL     OW19947   6.364   9.479   6.373 -0.2540  0.0622 -0.0528
 4236SOL    HW119948   6.279   9.491   6.331  0.4784 -0.3178 -1.7437
 4236SOL    HW219949   6.344   9.450   6.462 -1.8774  0.3229 -0.3125
 4237SOL     OW19950  10.553   8.393   4.674  0.2351 -0.4357 -0.2194
 4237SOL    HW119951  10.474   8.342   4.693  0.5994 -0.0251  2.8253
 4237SOL    HW219952  10.520   8.480   4.651 -0.2471 -0.9716 -1.6509
 4238SOL     OW19953   5.564   1.662   5.508  0.1619  0.2621  0.2300
 4238SOL    HW119954   5.563   1.610   5.589 -0.2224  1.3266  0.9333
 4238SOL    HW219955   5.599   1.747   5.535 -0.4822  0.8039 -0.6108
 4239SOL     OW19956   6.316   7.380  11.448  0.4168 -0.5956 -0.0530
 4239SOL    HW119957   6.354   7.341  11.527  2.3464 -2.7989 -1.8836
 4239SOL    HW219958   6.355   7.467  11.443  0.2714 -0.4203  1.3681
 4240SOL     OW19959   2.034   1.073   3.632 -0.0508 -0.3734 -0.2464
 4240SOL    HW119960   1.961   1.036   3.582 -1.4290  0.8043  0.8150
 4240SOL    HW219961   2.084   1.123   3.567 -0.5835 -0.6147 -0.8559
 4241SOL     OW19962   8.828   8.594   8.768  0.4430 -0.0935 -0.2425
 4241SOL    HW119963   8.905   8.645   8.794  0.6680  0.3003 -1.6106
 4241SOL    HW219964   8.859   8.540   8.696 -0.7597  0.6728 -1.3615
 4242SOL     OW19965  12.415   8.846   9.910 -0.1809  0.2339  0.0256
 4242SOL    HW119966  12.470   8.858   9.832 -1.4387  0.5931 -0.8377
 4242SOL    HW219967  12.365   8.766   9.891  1.3736 -1.2194  1.6467
 4243SOL     OW19968  10.366   4.800   2.622 -0.8921 -0.5355 -0.1444
 4243SOL    HW119969  10.415   4.879   2.599  0.0918 -1.0908 -0.0142
 4243SOL    HW219970  10.321   4.774   2.542  0.2409 -0.8560 -0.6986
 4244SOL     OW19971   9.750   0.947  11.352  0.0747  1.0301  0.4636
 4244SOL    HW119972   9.755   1.041  11.372  2.6106  0.9866  0.3991
 4244SOL    HW219973   9.824   0.909  11.399  0.1621 -0.6630 -0.9442
 4245SOL     OW19974   8.613   1.123   5.137  0.1727  0.9862  0.1003
 4245SOL    HW119975   8.642   1.184   5.204  1.1133 -1.3609  1.9661
 4245SOL    HW219976   8.665   1.044   5.152 -2.3082 -0.9939 -0.9074
 4246SOL     OW19977  10.113  12.224  10.745  0.4118 -0.2252  0.5750
 4246SOL    HW119978  10.078  12.212  10.833  0.5166 -1.0820  0.5076
 4246SOL    HW219979  10.061  12.166  10.690  0.1880  0.4806  0.0243
 4247SOL     OW19980   0.670   4.474  10.644  0.5027  0.2090  0.0880
 4247SOL    HW119981   0.646   4.562  10.613  0.2539  0.0292 -0.2441
 4247SOL    HW219982   0.690   4.426  10.564 -0.0229 -0.2311  0.2160
 4248SOL     OW19983   4.492  11.920   3.661 -0.5502 -0.0885  0.2401
 4248SOL    HW119984   4.563  11.859   3.680  2.1218  2.7505  0.1428
 4248SOL    HW219985   4.488  11.977   3.738 -0.5611  1.6849 -1.0093
 4249SOL     OW19986  11.404   5.536  11.901 -0.1445 -0.1843  0.7275
 4249SOL    HW119987  11.427   5.598  11.833 -3.2820 -0.5631 -0.8770
 4249SOL    HW219988  11.411   5.586  11.983 -0.0460  1.4705 -0.2563
 4250SOL     OW19989   9.225   5.269   0.686  0.2042 -0.4000 -0.2106
 4250SOL    HW119990   9.220   5.289   0.779  0.8316 -1.4500  0.0627
 4250SOL    HW219991   9.294   5.327   0.653  0.8446 -0.8993  0.2320
 4251SOL     OW19992   9.911   9.015  12.211  0.1017  0.5396 -0.1219
 4251SOL    HW119993   9.855   9.077  12.164  0.8606 -0.3442 -2.3738
 4251SOL    HW219994   9.857   8.984  12.284 -1.7719  0.8546 -1.3014
 4252SOL     OW19995   3.180   7.191  11.012 -0.0333 -0.3174  0.3566
 4252SOL    HW119996   3.135   7.174  11.095  1.3689 -0.3624  1.1365
 4252SOL    HW219997   3.225   7.274  11.026 -2.1600  1.2609 -1.4273
 4253SOL     OW19998   6.703   8.496  11.004 -0.3948 -0.4505 -0.7955
 4253SOL    HW119999   6.757   8.522  10.930 -0.7133 -0.7197 -1.1232
 4253SOL    HW220000   6.709   8.400  11.007  2.6493 -0.3400  1.7984
 4254SOL     OW20001   3.058  10.735  12.552  0.6659  0.3623 -1.4114
 4254SOL    HW120002   3.053  10.647  12.515  0.9958 -1.0462  1.6221
 4254SOL    HW220003   3.011  10.729  12.635 -0.2845  3.4020 -1.6061
 4255SOL     OW20004   5.261  11.554   8.953 -0.4376 -0.6132 -0.0148
 4255SOL    HW120005   5.264  11.465   8.989 -0.0024 -0.2625  0.8268
 4255SOL    HW220006   5.238  11.541   8.861 -0.7375 -1.5754  0.1807
 4256SOL     OW20007  10.087  11.274   3.744  0.5238  0.3677 -0.2209
 4256SOL    HW120008  10.060  11.347   3.801 -1.3640  0.6872 -1.4388
 4256SOL    HW220009  10.047  11.197   3.784  0.7058  0.3185 -0.1321
 4257SOL     OW20010   7.822   3.290   0.783  0.3516 -0.0745  0.6301
 4257SOL    HW120011   7.878   3.235   0.729 -1.0834  1.2746 -2.4466
 4257SOL    HW220012   7.872   3.371   0.795 -0.3513  0.6879 -1.1545
 4258SOL     OW20013   2.379   6.331   2.271 -0.6448  0.6253 -0.0121
 4258SOL    HW120014   2.340   6.269   2.332  0.9867  1.0253  1.5025
 4258SOL    HW220015   2.446   6.280   2.225  1.4624  1.4050  2.0038
 4259SOL     OW20016  12.548   3.106   3.368  0.0090  0.0016  0.1844
 4259SOL    HW120017  12.637   3.100   3.402  0.7296 -0.3909 -1.6563
 4259SOL    HW220018  12.523   3.016   3.350 -0.7246  0.1182  0.5946
 4260SOL     OW20019   9.950  10.335   7.651 -0.7390 -0.3757 -0.5505
 4260SOL    HW120020   9.911  10.283   7.721  1.8379 -1.4069  0.2065
 4260SOL    HW220021   9.984  10.413   7.694  1.4512 -1.3221 -0.4336
 4261SOL     OW20022   3.514   3.565   2.918 -0.5647  0.7242  0.3973
 4261SOL    HW120023   3.523   3.661   2.917 -0.3743  0.7055 -0.0434
 4261SOL    HW220024   3.549   3.537   2.834 -1.1907  0.3110  0.2721
 4262SOL     OW20025   8.123  12.274   4.357 -0.5054  0.0633 -0.3621
 4262SOL    HW120026   8.055  12.337   4.334 -0.6876  0.4207  1.0898
 4262SOL    HW220027   8.112  12.259   4.451  1.6711  0.4412  0.0012
 4263SOL     OW20028   5.960   8.057  10.604  0.9237  0.3179 -0.3515
 4263SOL    HW120029   6.051   8.063  10.636  1.7376 -0.9642 -2.2538
 4263SOL    HW220030   5.947   8.138  10.555  1.3956  0.0696 -0.8990
 4264SOL     OW20031   7.061  11.301  12.408  0.6182  0.6300 -0.6815
 4264SOL    HW120032   7.154  11.294  12.432  0.0414 -0.4511  1.4915
 4264SOL    HW220033   7.042  11.394  12.410  1.4961  0.8123 -0.4909
 4265SOL     OW20034  12.704  11.004   0.086  0.0272 -0.6066 -0.1723
 4265SOL    HW120035  12.701  11.095   0.116  1.0288 -0.8153  0.5752
 4265SOL    HW220036  12.619  10.990   0.044  0.1204  0.8764 -0.9022
 4266SOL     OW20037   2.797  11.071   0.418 -0.7738  0.3845 -0.1030
 4266SOL    HW120038   2.835  11.005   0.360 -0.5085  2.0830 -1.9914
 4266SOL    HW220039   2.872  11.123   0.447 -1.0286  0.1640  0.9829
 4267SOL     OW20040  12.242   2.096   1.561  0.2789 -0.0575 -0.1133
 4267SOL    HW120041  12.229   2.188   1.537 -0.1808 -0.2235 -0.5054
 4267SOL    HW220042  12.324   2.071   1.518  0.0739 -0.0147 -0.5288
 4268SOL     OW20043   6.756   0.428   6.064 -0.3730  0.4012 -0.2073
 4268SOL    HW120044   6.682   0.368   6.068  1.0806 -1.5004 -0.6933
 4268SOL    HW220045   6.817   0.387   6.004  1.5285  1.4226  0.9434
 4269SOL     OW20046   7.810   4.113  12.325 -0.0313  0.8268  0.1358
 4269SOL    HW120047   7.881   4.050  12.316 -0.6450  0.1720 -0.2582
 4269SOL    HW220048   7.767   4.089  12.408 -1.2004 -0.2825 -0.7477
 4270SOL     OW20049   0.511   3.902   2.862  0.2593 -0.3348  0.2276
 4270SOL    HW120050   0.428   3.920   2.907 -0.1447 -0.4370 -0.4682
 4270SOL    HW220051   0.570   3.877   2.933 -0.1386  0.2874  0.8026
 4271SOL     OW20052   2.729   3.199   6.191  0.5200  0.4729  0.7808
 4271SOL    HW120053   2.708   3.273   6.135  1.8149 -0.0047 -0.3751
 4271SOL    HW220054   2.643   3.165   6.218 -0.1380  0.7354 -0.8823
 4272SOL     OW20055   3.984   4.068   0.865  0.5163 -0.1042  0.2407
 4272SOL    HW120056   3.904   4.049   0.914  0.1276 -0.2309 -0.4228
 4272SOL    HW220057   3.957   4.064   0.773  0.9219  1.4916  0.0289
 4273SOL     OW20058   3.134   0.781  12.362 -0.0806  0.0210  0.4093
 4273SOL    HW120059   3.213   0.797  12.415 -0.7017  2.0004  0.8046
 4273SOL    HW220060   3.143   0.690  12.333  1.2569 -0.5057  2.2876
 4274SOL     OW20061   7.789   7.017   5.008 -0.1141 -0.2312  0.3703
 4274SOL    HW120062   7.853   6.988   4.943 -0.5699 -1.3058  0.3758
 4274SOL    HW220063   7.807   6.962   5.085 -1.8398 -1.4913 -0.0603
 4275SOL     OW20064   6.773   6.956  10.829  0.6287 -0.3148 -0.2921
 4275SOL    HW120065   6.865   6.978  10.814  0.2672  1.2345 -0.4388
 4275SOL    HW220066   6.763   6.954  10.924  0.5025  1.1516 -0.2383
 4276SOL     OW20067   5.220  10.314  10.322 -0.5645  0.3151 -0.1627
 4276SOL    HW120068   5.180  10.236  10.283 -0.5492 -0.3457  1.0777
 4276SOL    HW220069   5.310  10.287  10.342 -0.8654  0.2905  1.2384
 4277SOL     OW20070   4.904   8.504   2.556  0.0393  0.4197 -0.2751
 4277SOL    HW120071   4.927   8.578   2.612 -0.7409 -0.1150  0.7805
 4277SOL    HW220072   4.917   8.537   2.467 -0.2426  1.8159  0.1696
 4278SOL     OW20073   0.367   1.988   5.828  0.7010 -0.7410  0.2214
 4278SOL    HW120074   0.311   2.028   5.762  2.2741 -1.1280 -1.4242
 4278SOL    HW220075   0.371   2.054   5.898  0.0584  0.2622 -0.6506
 4279SOL     OW20076  11.450   7.183   0.995 -0.7715 -0.6878  0.0759
 4279SOL    HW120077  11.421   7.139   1.075 -0.0862 -0.8353  0.2520
 4279SOL    HW220078  11.545   7.179   0.999 -0.6873  0.7661  0.0618
 4280SOL     OW20079   8.584   1.476  12.055 -0.3434  0.0029 -0.2929
 4280SOL    HW120080   8.605   1.518  12.139  1.2782  1.3474 -1.3130
 4280SOL    HW220081   8.539   1.544  12.005 -1.8080 -0.9679 -0.3734
 4281SOL     OW20082  12.562   4.078   3.160 -0.3293 -0.1169 -0.5039
 4281SOL    HW120083  12.601   4.162   3.181  0.5738 -0.3399 -1.2412
 4281SOL    HW220084  12.600   4.053   3.076 -2.0651 -0.3514 -1.2713
 4282SOL     OW20085   9.040   1.709  11.117  0.3345  0.3147 -0.3747
 4282SOL    HW120086   9.068   1.787  11.165 -0.8240  0.5265 -0.0250
 4282SOL    HW220087   9.076   1.636  11.167 -1.4983  0.4940  1.3205
 4283SOL     OW20088   5.233   4.101   1.383  0.1016  0.0027  0.0336
 4283SOL    HW120089   5.292   4.039   1.426 -1.8598 -2.1461 -0.1356
 4283SOL    HW220090   5.197   4.153   1.455  0.2145 -0.5025  0.4637
 4284SOL     OW20091   0.225   5.638   3.758  0.3460  0.1276  0.0526
 4284SOL    HW120092   0.167   5.664   3.686 -1.2175 -0.3091  1.0868
 4284SOL    HW220093   0.270   5.718   3.782  0.4092  0.4191 -0.9855
 4285SOL     OW20094   6.087  10.325  11.156 -0.4245  0.4453 -0.3303
 4285SOL    HW120095   6.139  10.378  11.095  0.2870  0.5497  0.3432
 4285SOL    HW220096   6.005  10.374  11.167  0.2385  1.4602  0.3187
 4286SOL     OW20097   1.097   3.978   8.968  0.1235 -0.1951 -0.3985
 4286SOL    HW120098   1.156   3.908   8.940  0.4204 -0.2623  0.3598
 4286SOL    HW220099   1.056   4.009   8.887  2.7056  1.2435 -1.3042
 4287SOL     OW20100  10.974  11.974  12.117 -0.3988  0.0313  0.1560
 4287SOL    HW120101  10.956  11.939  12.204 -0.1588  0.6369  0.4574
 4287SOL    HW220102  10.912  12.047  12.108 -0.8916 -0.4555 -0.4570
 4288SOL     OW20103  10.620  10.873   3.166  0.0007  0.6521 -0.4918
 4288SOL    HW120104  10.530  10.840   3.173  0.2560 -0.4520 -1.9469
 4288SOL    HW220105  10.613  10.967   3.183 -0.8918  0.0790  2.9581
 4289SOL     OW20106   1.107   2.437  12.052  0.3253  0.2435 -0.1137
 4289SOL    HW120107   1.077   2.364  12.106  0.8916  0.6916  0.8260
 4289SOL    HW220108   1.140   2.502  12.115  2.9971 -0.0848 -1.0444
 4290SOL     OW20109  11.777   0.887   9.156 -0.2499  0.0025 -0.3684
 4290SOL    HW120110  11.748   0.977   9.164 -0.6345 -0.1965  0.5972
 4290SOL    HW220111  11.731   0.840   9.225  0.9368 -0.6909 -0.0102
 4291SOL     OW20112  12.106   1.158   3.181  0.3810  0.5801 -0.0039
 4291SOL    HW120113  12.124   1.199   3.096 -0.9143  0.1978 -0.4943
 4291SOL    HW220114  12.031   1.206   3.215  1.6970  1.6092  1.5776
 4292SOL     OW20115   8.150   6.491   4.179  0.3493 -0.4558  0.3198
 4292SOL    HW120116   8.066   6.499   4.134  0.8417 -0.4931 -0.6335
 4292SOL    HW220117   8.190   6.577   4.169  0.8487 -0.7348 -0.1002
 4293SOL     OW20118  10.890   5.760   2.243 -0.6688 -0.0781 -0.4708
 4293SOL    HW120119  10.957   5.758   2.174  0.3375  0.1709  0.4663
 4293SOL    HW220120  10.832   5.687   2.222  0.6420 -1.1359 -0.5942
 4294SOL     OW20121   1.257   1.255   0.996 -0.2220  0.3669  0.4026
 4294SOL    HW120122   1.352   1.259   1.003 -0.2904  1.0599  1.1275
 4294SOL    HW220123   1.234   1.166   1.023  0.2497  0.0449 -0.2445
 4295SOL     OW20124   2.715  10.242   8.743  0.4369 -0.1682 -0.4033
 4295SOL    HW120125   2.799  10.204   8.771  0.4173 -0.2328 -0.4317
 4295SOL    HW220126   2.673  10.269   8.825 -0.0635 -1.2861 -0.2740
 4296SOL     OW20127  10.626   0.908   6.878  0.2262 -0.1688  0.6900
 4296SOL    HW120128  10.685   0.833   6.883 -0.9260 -1.3939 -2.0486
 4296SOL    HW220129  10.624   0.931   6.785  0.1688  3.0129  1.3692
 4297SOL     OW20130   4.165  10.219   1.015  0.0398 -0.1945  0.4904
 4297SOL    HW120131   4.188  10.210   0.922 -2.5061  1.1887 -0.3845
 4297SOL    HW220132   4.075  10.185   1.021  0.7906 -2.0369  2.8980
 4298SOL     OW20133   6.934  10.309   5.566 -0.5760  0.2973  0.4990
 4298SOL    HW120134   6.877  10.332   5.492 -0.2104  0.7423  0.3498
 4298SOL    HW220135   6.914  10.374   5.633  1.6015  2.1487 -0.5016
 4299SOL     OW20136   6.628   9.849   8.508 -0.1067  0.0257  0.2102
 4299SOL    HW120137   6.698   9.877   8.449  0.7196  0.0249  1.1515
 4299SOL    HW220138   6.578   9.929   8.526 -1.8308 -0.3695 -2.2802
 4300SOL     OW20139   0.868  11.018  10.971 -0.0881  0.0201 -0.2218
 4300SOL    HW120140   0.836  11.086  11.030  0.0203  0.5983 -0.8176
 4300SOL    HW220141   0.793  10.995  10.917  0.0795  0.2450 -0.5574
 4301SOL     OW20142   3.094   7.836   3.894  0.2630  0.1822  0.5270
 4301SOL    HW120143   3.104   7.897   3.821  1.1049  0.2405  0.6843
 4301SOL    HW220144   3.091   7.749   3.853  0.9408  0.1991  0.4270
 4302SOL     OW20145   0.819  12.064   6.729 -0.5232  0.0498  0.5864
 4302SOL    HW120146   0.723  12.060   6.731 -0.5141 -0.5537  0.2509
 4302SOL    HW220147   0.843  12.104   6.812 -1.1051  1.2077  0.2085
 4303SOL     OW20148   5.887   8.445   9.532  0.5630  0.9465 -0.5939
 4303SOL    HW120149   5.840   8.479   9.456  2.7819  0.4919 -2.2452
 4303SOL    HW220150   5.875   8.350   9.527 -0.5329  0.9919  0.5447
 4304SOL     OW20151   6.232   2.253   4.197 -0.4259  0.5351 -0.2585
 4304SOL    HW120152   6.220   2.348   4.209  0.7889  0.5227  1.3724
 4304SOL    HW220153   6.324   2.238   4.218  0.1592 -0.6447 -3.2089
 4305SOL     OW20154   6.315   7.328  12.439  0.0247  0.3013 -0.5962
 4305SOL    HW120155   6.353   7.309  12.353  0.3024  0.2888 -0.4731
 4305SOL    HW220156   6.253   7.257  12.454 -0.1548  0.3979 -0.8621
 4306SOL     OW20157   9.269   5.759   1.158  0.0458  1.2040 -0.2017
 4306SOL    HW120158   9.289   5.725   1.245  0.2206  0.7162 -0.4323
 4306SOL    HW220159   9.231   5.845   1.175 -0.8761  0.6878  0.4067
 4307SOL     OW20160  12.674   0.760  10.821 -0.6599  0.4194 -0.3788
 4307SOL    HW120161  12.618   0.815  10.877  0.8059  1.2070  0.3604
 4307SOL    HW220162  12.733   0.821  10.778  2.5754 -0.6058  2.2060
 4308SOL     OW20163   4.827   7.677   3.565 -0.0073 -0.1179  0.1827
 4308SOL    HW120164   4.915   7.646   3.545 -0.0434 -0.2371  0.2104
 4308SOL    HW220165   4.837   7.729   3.644  0.0515 -0.0636  0.1400
 4309SOL     OW20166   2.131   4.171   5.476 -0.0316 -0.3814  0.0999
 4309SOL    HW120167   2.147   4.196   5.385  1.0863 -2.8808 -0.4618
 4309SOL    HW220168   2.042   4.202   5.494 -0.4342 -0.1976 -1.9797
 4310SOL     OW20169  12.702   2.301  12.487 -0.4313 -0.5623 -0.3154
 4310SOL    HW120170  12.644   2.232  12.519 -1.1611 -0.9173 -2.2653
 4310SOL    HW220171  12.743   2.264  12.408 -0.0516  0.8645 -0.8224
 4311SOL     OW20172  10.821  12.274   2.940 -0.1693  0.7256 -0.1548
 4311SOL    HW120173  10.733  12.307   2.921  0.2178  2.2249  0.4863
 4311SOL    HW220174  10.858  12.253   2.854 -1.1908 -0.0986 -0.4215
 4312SOL     OW20175   5.307   0.531  10.710  0.1886  0.0796  0.2774
 4312SOL    HW120176   5.397   0.515  10.737  0.7114 -2.5355 -2.4985
 4312SOL    HW220177   5.314   0.605  10.648  0.6041 -0.6553 -0.5764
 4313SOL     OW20178  11.179   9.381   1.828 -0.1988 -0.0381  0.0491
 4313SOL    HW120179  11.105   9.329   1.797 -0.7549 -0.5886  2.1402
 4313SOL    HW220180  11.146   9.471   1.826 -1.2835 -0.3506  1.7380
 4314SOL     OW20181   0.145   9.328   6.718 -0.4752 -0.8170 -0.1693
 4314SOL    HW120182   0.170   9.420   6.709 -0.5899 -0.5388  1.8584
 4314SOL    HW220183   0.122   9.300   6.629  3.3858 -0.0537 -1.5849
 4315SOL     OW20184   6.034   9.991   7.664  0.9184  0.4239 -0.2113
 4315SOL    HW120185   5.974  10.049   7.616 -0.5474 -2.5977 -2.3174
 4315SOL    HW220186   6.064  10.045   7.738 -0.2505  3.8284 -1.9920
 4316SOL     OW20187  11.921   1.559  11.388 -0.0973  0.1404  0.6129
 4316SOL    HW120188  11.906   1.483  11.331  0.5208  0.9541 -0.7099
 4316SOL    HW220189  11.877   1.538  11.470 -0.8619 -1.1711 -0.1085
 4317SOL     OW20190   4.826  10.946  12.324  0.4434  0.1062  0.1858
 4317SOL    HW120191   4.787  10.895  12.395 -0.6148 -2.1339 -1.8611
 4317SOL    HW220192   4.916  10.914  12.319  0.5551  0.3497  0.5517
 4318SOL     OW20193  12.315   9.366   5.654 -0.4597  0.0426 -0.7508
 4318SOL    HW120194  12.267   9.372   5.571 -2.8686 -2.8660  0.2646
 4318SOL    HW220195  12.280   9.438   5.706 -0.4786  0.5969 -1.5042
 4319SOL     OW20196   3.664   0.709   9.481  0.0123 -0.8898 -0.0368
 4319SOL    HW120197   3.599   0.714   9.411 -0.9379 -1.4468  0.7805
 4319SOL    HW220198   3.745   0.739   9.440 -0.7504 -0.1657 -1.0796
 4320SOL     OW20199  10.908  10.827   3.920 -0.4995 -0.3650  0.3252
 4320SOL    HW120200  10.937  10.814   3.829 -0.3839  0.0802  0.2946
 4320SOL    HW220201  10.914  10.922   3.933  2.3867 -0.6196  1.7314
 4321SOL     OW20202   0.175   6.849   1.628 -0.0958  0.4501 -0.2377
 4321SOL    HW120203   0.173   6.945   1.633  0.3539  0.3892  1.7975
 4321SOL    HW220204   0.085   6.824   1.610 -0.2922  1.2264 -0.3714
 4322SOL     OW20205  11.523   8.648   5.139  0.7250  0.1302  0.3552
 4322SOL    HW120206  11.513   8.670   5.232  1.7211  0.7710  0.3200
 4322SOL    HW220207  11.604   8.691   5.112  0.5193 -0.1586 -0.7872
 4323SOL     OW20208   7.370   3.092   4.051  0.2907  0.0397 -0.1485
 4323SOL    HW120209   7.385   3.002   4.021  0.5493  0.4054 -1.1501
 4323SOL    HW220210   7.317   3.082   4.130 -0.9571 -0.9480 -1.0611
 4324SOL     OW20211   8.238   7.501   8.259 -0.0967 -0.7806  0.3259
 4324SOL    HW120212   8.250   7.593   8.280 -0.1360 -0.8584  0.6990
 4324SOL    HW220213   8.277   7.491   8.171  0.1681 -0.4741  0.4056
 4325SOL     OW20214   5.686   0.662   1.472  0.2095  0.5519 -0.6528
 4325SOL    HW120215   5.605   0.705   1.446 -0.3021 -0.9912 -1.7489
 4325SOL    HW220216   5.659   0.596   1.536  0.6015  0.0980 -0.9478
 4326SOL     OW20217   8.625   6.983   1.150 -0.8197 -0.0755 -0.3316
 4326SOL    HW120218   8.620   7.046   1.077 -1.4687  1.3340  0.8711
 4326SOL    HW220219   8.549   7.003   1.204 -0.9571 -1.8351  0.1727
 4327SOL     OW20220   3.579   7.448  10.991  0.4803  0.3565  0.0444
 4327SOL    HW120221   3.542   7.456  10.903  0.4627 -1.5330 -0.1636
 4327SOL    HW220222   3.503   7.440  11.048  0.4599 -1.7889 -0.1921
 4328SOL     OW20223   9.690   1.454  12.705 -0.0412 -1.0340 -0.9559
 4328SOL    HW120224   9.694   1.435  12.798  0.4092 -1.9276 -1.1499
 4328SOL    HW220225   9.662   1.371  12.665 -0.5086 -0.5816 -1.5876
 4329SOL     OW20226   5.740  12.274   9.888  0.6922 -0.0489  0.0917
 4329SOL    HW120227   5.688  12.204   9.930 -0.3261  0.4498 -0.2938
 4329SOL    HW220228   5.775  12.233   9.809  0.4894 -0.2637  0.1097
 4330SOL     OW20229   7.936  11.294   3.808 -0.4898 -1.4423  0.1252
 4330SOL    HW120230   7.955  11.387   3.817 -0.7888 -1.4554  0.9994
 4330SOL    HW220231   7.877  11.289   3.733 -1.5449 -0.7601  0.8722
 4331SOL     OW20232   7.607   8.607   8.237  0.1359 -0.5084  0.0395
 4331SOL    HW120233   7.694   8.613   8.276  0.5920 -2.5258 -0.5613
 4331SOL    HW220234   7.571   8.525   8.271 -0.8660 -0.5298 -1.0053
 4332SOL     OW20235  10.723   1.740   3.880 -0.0221  0.1555 -0.0568
 4332SOL    HW120236  10.759   1.652   3.892  0.0321  0.2585  0.6128
 4332SOL    HW220237  10.659   1.749   3.951  1.3749  1.3790  1.1008
 4333SOL     OW20238   2.090   9.663  12.429 -0.5240 -0.0551  0.2855
 4333SOL    HW120239   2.043   9.649  12.512 -0.8120 -1.8399 -0.1427
 4333SOL    HW220240   2.034   9.623  12.363  0.0738  0.6883 -0.6881
 4334SOL     OW20241   9.739   2.968   7.473  0.1206  0.3342 -0.0215
 4334SOL    HW120242   9.828   2.969   7.438  0.3178 -1.6675  0.2926
 4334SOL    HW220243   9.694   2.899   7.423 -1.0046  0.7130  0.4199
 4335SOL     OW20244   5.280  10.684   5.555  0.1982 -0.3338 -0.2561
 4335SOL    HW120245   5.328  10.724   5.483  0.2865 -0.6840 -0.3901
 4335SOL    HW220246   5.271  10.755   5.619 -2.3224  0.8569 -1.7487
 4336SOL     OW20247   8.789   1.518   2.303  0.4822 -0.7873  0.5934
 4336SOL    HW120248   8.774   1.553   2.391  1.2119 -1.5628  1.0415
 4336SOL    HW220249   8.768   1.590   2.244  2.0935  0.4780  1.4806
 4337SOL     OW20250   0.533   1.386   4.557 -0.8672 -0.0755 -0.7012
 4337SOL    HW120251   0.545   1.464   4.503  0.4778 -0.6486 -1.2874
 4337SOL    HW220252   0.444   1.357   4.536 -1.5065  1.4425 -0.2355
 4338SOL     OW20253   8.130   9.526   5.086  0.3516 -0.2246  0.2561
 4338SOL    HW120254   8.216   9.566   5.096 -1.0849  3.1501  0.1948
 4338SOL    HW220255   8.119   9.514   4.992 -0.1755  1.7671  0.0219
 4339SOL     OW20256   5.424   4.699  11.682  0.7818 -0.0953  0.0775
 4339SOL    HW120257   5.453   4.608  11.689  2.0274  0.1534 -1.2830
 4339SOL    HW220258   5.440   4.736  11.769  2.2626 -0.6572  0.0791
 4340SOL     OW20259   6.288  12.264   2.454 -0.4520  0.0182  0.3522
 4340SOL    HW120260   6.197  12.264   2.483 -0.6532 -1.8038 -0.1624
 4340SOL    HW220261   6.309  12.172   2.441  0.0583  0.5240 -3.8608
 4341SOL     OW20262  10.458   7.799   9.824  0.2579  0.5333 -0.1134
 4341SOL    HW120263  10.434   7.829   9.737 -0.8419 -1.1847 -0.4492
 4341SOL    HW220264  10.378   7.760   9.859  1.0950 -0.2456  1.0268
 4342SOL     OW20265  10.252   9.326  12.416 -0.5975  0.0776  0.1370
 4342SOL    HW120266  10.166   9.303  12.383 -0.8020 -0.3191  0.9234
 4342SOL    HW220267  10.298   9.364  12.341 -1.7134  1.0195 -0.0912
 4343SOL     OW20268   5.756  10.207   0.386  0.0810 -0.3203 -0.2543
 4343SOL    HW120269   5.834  10.210   0.330  0.1582  1.0530 -0.0997
 4343SOL    HW220270   5.729  10.298   0.393 -0.2655 -0.5390  1.5004
 4344SOL     OW20271   1.165   3.088  10.763  0.0219 -0.0664  0.1128
 4344SOL    HW120272   1.122   3.123  10.685  0.0477  1.1858  0.6294
 4344SOL    HW220273   1.256   3.115  10.754 -0.3604  1.8931  1.5126
 4345SOL     OW20274   7.717   2.608   3.792  0.3151 -0.6754 -0.4568
 4345SOL    HW120275   7.768   2.557   3.854  0.0327  1.3299  1.5596
 4345SOL    HW220276   7.772   2.684   3.771 -1.1579  0.7738  0.6239
 4346SOL     OW20277   1.200  11.609   4.721 -0.2226 -0.2525  0.1262
 4346SOL    HW120278   1.220  11.616   4.814 -0.7921 -0.8153  0.2947
 4346SOL    HW220279   1.267  11.662   4.678  0.2894 -0.3184  0.8292
 4347SOL     OW20280   8.759   8.294   8.931 -0.3020 -0.2467 -0.2773
 4347SOL    HW120281   8.755   8.389   8.937  2.1234 -0.0154 -1.1757
 4347SOL    HW220282   8.722   8.273   8.845 -0.4771 -0.0924 -0.2398
 4348SOL     OW20283   3.438   9.745   5.672  0.5394  0.0179  0.6385
 4348SOL    HW120284   3.380   9.709   5.605 -1.0919  0.4497  1.7598
 4348SOL    HW220285   3.402   9.713   5.755 -0.3917  3.2732  1.6434
 4349SOL     OW20286  12.382   8.430  11.643  0.4491  0.1397  0.0948
 4349SOL    HW120287  12.409   8.338  11.645  0.1847  0.0785  0.8399
 4349SOL    HW220288  12.347   8.448  11.730  0.9224  1.0806  0.1107
 4350SOL     OW20289   3.743  11.018   6.293  0.2747 -0.9101  0.7129
 4350SOL    HW120290   3.743  10.943   6.234 -0.1840  0.4014 -1.0502
 4350SOL    HW220291   3.803  10.993   6.363 -0.2994 -3.1132  0.4810
 4351SOL     OW20292   4.222  11.037  10.627 -0.1394 -0.9009  0.5095
 4351SOL    HW120293   4.222  11.120  10.579  0.2027  0.0638  2.0971
 4351SOL    HW220294   4.298  10.990  10.594  0.4167 -0.0110  0.4986
 4352SOL     OW20295   3.196  10.787   0.444  0.6711 -0.0616 -0.7549
 4352SOL    HW120296   3.146  10.777   0.525 -0.4645 -0.5480 -1.4756
 4352SOL    HW220297   3.268  10.724   0.452  0.6792  0.0332 -0.0481
 4353SOL     OW20298   1.601  11.689   3.654 -0.5137  0.1855  0.5622
 4353SOL    HW120299   1.522  11.663   3.700 -0.4625  1.0136  1.1380
 4353SOL    HW220300   1.629  11.769   3.697  0.3107  0.2281 -0.0200
 4354SOL     OW20301   3.342   5.965   3.009 -0.5715  0.1595 -0.0890
 4354SOL    HW120302   3.427   5.976   2.966 -0.0085 -1.2681  0.5774
 4354SOL    HW220303   3.297   5.898   2.959 -0.7503 -0.0569  0.3548
 4355SOL     OW20304   6.750   0.921  10.045 -0.5766 -0.1785  0.8901
 4355SOL    HW120305   6.711   0.913   9.958 -1.4944 -2.3534  1.4333
 4355SOL    HW220306   6.788   0.835  10.063  2.2364  1.0787  1.4992
 4356SOL     OW20307  12.221   6.214   5.544  0.1492  0.5518 -0.0882
 4356SOL    HW120308  12.165   6.231   5.619  1.1262  2.8546  0.2186
 4356SOL    HW220309  12.305   6.187   5.582 -0.2237 -1.3129 -0.4933
 4357SOL     OW20310  11.927  10.936   5.770  0.4460  0.0642 -0.3097
 4357SOL    HW120311  11.922  10.851   5.725  0.3977 -0.2271  0.2287
 4357SOL    HW220312  11.981  10.990   5.714 -1.0118  0.2632 -1.5775
 4358SOL     OW20313   8.149   3.231  11.367 -0.5738 -1.0218  0.0541
 4358SOL    HW120314   8.146   3.196  11.278  0.3693  0.9894 -0.8275
 4358SOL    HW220315   8.062   3.211  11.403 -1.6119 -0.3914 -1.9307
 4359SOL     OW20316   3.605   0.300   9.878 -0.1614 -0.2159 -0.0289
 4359SOL    HW120317   3.608   0.210   9.912 -0.5329  0.4922  2.0549
 4359SOL    HW220318   3.696   0.323   9.863 -0.0703 -0.9828 -0.7031
 4360SOL     OW20319   4.083  10.401   8.837 -0.3540  0.0428 -0.0780
 4360SOL    HW120320   3.993  10.434   8.843  0.1951  1.6362 -0.2065
 4360SOL    HW220321   4.086  10.330   8.901 -1.8651 -0.4572 -0.5038
 4361SOL     OW20322   3.864   0.713   5.431  0.3236  0.6493  0.0755
 4361SOL    HW120323   3.797   0.670   5.379 -0.8549  1.5852  0.7700
 4361SOL    HW220324   3.817   0.781   5.479  1.5880  0.6672  1.3548
 4362SOL     OW20325   4.203  10.272   5.505  0.2925 -0.2357 -0.0084
 4362SOL    HW120326   4.262  10.316   5.566 -0.0914 -0.8788  0.8490
 4362SOL    HW220327   4.190  10.335   5.434  1.0421  0.3810  0.3957
 4363SOL     OW20328   5.649  11.454   4.092  0.0916  0.3072  0.3776
 4363SOL    HW120329   5.671  11.373   4.046  2.5389  1.7905 -1.3179
 4363SOL    HW220330   5.708  11.519   4.055 -0.7822  2.5907  2.6969
 4364SOL     OW20331   2.748  12.132   6.519  0.1695 -0.1176  0.3295
 4364SOL    HW120332   2.665  12.092   6.494  1.5946 -2.6847 -0.7160
 4364SOL    HW220333   2.744  12.138   6.615 -1.2776 -0.0205  0.2774
 4365SOL     OW20334   1.766  12.386   4.917 -0.0327  0.1538  0.2919
 4365SOL    HW120335   1.764  12.434   4.835 -1.8122  1.4470  1.0392
 4365SOL    HW220336   1.760  12.453   4.985  0.3511 -0.9513  1.4608
 4366SOL     OW20337   5.799  11.579   3.382 -0.3526  0.7096 -0.0090
 4366SOL    HW120338   5.890  11.554   3.400 -0.2037  1.7905  0.8438
 4366SOL    HW220339   5.759  11.587   3.468 -1.8564 -1.6901 -0.3775
 4367SOL     OW20340   1.617   5.379   2.355 -0.3294 -0.2018 -0.8081
 4367SOL    HW120341   1.547   5.317   2.373  0.5172 -0.5427  1.6702
 4367SOL    HW220342   1.598   5.412   2.267 -2.2971 -1.9456 -1.1105
 4368SOL     OW20343   2.710  12.419   2.892 -0.0367 -0.4625  0.3633
 4368SOL    HW120344   2.788  12.392   2.939  0.8885  0.8905 -0.3369
 4368SOL    HW220345   2.701  12.512   2.910 -0.6200 -0.2759 -0.7782
 4369SOL     OW20346  11.350   3.917   6.128  0.4631 -0.0726 -0.2888
 4369SOL    HW120347  11.305   3.887   6.049 -1.6178  0.0169  0.8068
 4369SOL    HW220348  11.405   3.843   6.153  2.1036  0.3150 -2.4250
 4370SOL     OW20349  11.164   0.960  10.367 -0.2489 -0.2606 -0.6665
 4370SOL    HW120350  11.246   1.009  10.381  0.3181 -1.7878  2.0327
 4370SOL    HW220351  11.191   0.868  10.365 -1.6907 -0.6889 -1.9786
 4371SOL     OW20352   6.802   4.444  12.515  0.1794 -0.5942 -0.8619
 4371SOL    HW120353   6.827   4.403  12.597 -0.5288 -0.7136 -0.7031
 4371SOL    HW220354   6.743   4.515  12.540 -0.8257 -1.2514 -1.3296
 4372SOL     OW20355   7.787   8.117   3.565  0.4098 -0.4334  0.0378
 4372SOL    HW120356   7.871   8.160   3.579  0.8244 -0.9894 -0.6958
 4372SOL    HW220357   7.804   8.049   3.500 -0.4513 -1.0394  0.4110
 4373SOL     OW20358   8.899   8.478   6.847  0.1358 -0.3483 -0.1115
 4373SOL    HW120359   8.855   8.400   6.882  0.5540 -0.7707 -0.5222
 4373SOL    HW220360   8.925   8.527   6.925  0.6137 -1.0330  0.1662
 4374SOL     OW20361  12.009   0.881   9.418 -0.4363  0.0603 -0.5318
 4374SOL    HW120362  12.072   0.877   9.346 -0.3062 -1.8229 -0.3619
 4374SOL    HW220363  11.926   0.857   9.378 -0.9903  1.9885 -0.6370
 4375SOL     OW20364   4.831   8.305  10.654  0.5295  1.2052 -0.7653
 4375SOL    HW120365   4.748   8.282  10.614  0.4275  0.6454 -0.2379
 4375SOL    HW220366   4.817   8.392  10.691  0.0647  0.9644 -0.3658
 4376SOL     OW20367   6.015   0.654  10.712 -0.5236 -0.1885  0.5741
 4376SOL    HW120368   6.008   0.559  10.704 -0.2111 -0.2427  0.9167
 4376SOL    HW220369   6.007   0.670  10.806  0.5522  0.0313  0.6365
 4377SOL     OW20370   8.591   4.802   3.690  0.6911  0.0297  0.6446
 4377SOL    HW120371   8.541   4.870   3.736 -1.1252 -1.2327  0.6217
 4377SOL    HW220372   8.562   4.720   3.730 -0.3904 -1.0595 -2.1817
 4378SOL     OW20373  12.065   4.453   7.724  0.3428 -0.3778 -0.1465
 4378SOL    HW120374  12.093   4.478   7.636 -3.4173 -0.5644 -1.6218
 4378SOL    HW220375  12.033   4.534   7.763 -0.7180 -0.7690 -0.1644
 4379SOL     OW20376   7.959  11.623   6.205  0.2977 -0.2028 -0.2211
 4379SOL    HW120377   8.011  11.619   6.284  1.1561 -0.9047 -0.8013
 4379SOL    HW220378   7.975  11.710   6.169 -0.8982  0.5133  0.8754
 4380SOL     OW20379  10.172   9.450   0.289  0.3644  0.0454  0.1238
 4380SOL    HW120380  10.187   9.373   0.235 -0.5337  0.0419 -0.1387
 4380SOL    HW220381  10.253   9.462   0.338  0.7407 -0.6762 -0.3189
 4381SOL     OW20382  12.098   8.534  10.241 -0.7942  0.2274  0.0432
 4381SOL    HW120383  12.093   8.605  10.305 -0.5710 -0.2745  0.6368
 4381SOL    HW220384  12.025   8.476  10.263 -1.3799  0.5994 -0.8602
 4382SOL     OW20385   8.696  10.370   0.564  0.5855 -0.1708  0.0919
 4382SOL    HW120386   8.650  10.335   0.487 -0.2068  2.8115 -0.9213
 4382SOL    HW220387   8.778  10.404   0.530  1.2810 -0.8770  1.0141
 4383SOL     OW20388   4.178  11.099  11.382  0.4009 -0.4138 -0.1070
 4383SOL    HW120389   4.179  11.004  11.368 -1.4019 -0.5844  0.7243
 4383SOL    HW220390   4.159  11.109  11.475  0.7843  0.7746 -0.1458
 4384SOL     OW20391  11.464  11.124  10.221 -0.4292 -0.3271  0.0361
 4384SOL    HW120392  11.532  11.058  10.226  0.3980  0.4489 -0.6661
 4384SOL    HW220393  11.496  11.197  10.274 -1.3915 -0.5091  0.9118
 4385SOL     OW20394   2.191  11.775   7.097 -0.4327 -0.4499  0.5871
 4385SOL    HW120395   2.160  11.755   7.185 -1.4933 -1.3862  0.0298
 4385SOL    HW220396   2.162  11.701   7.044  0.5439 -0.1032 -0.4775
 4386SOL     OW20397   7.731   2.623   4.809  0.0409  0.1653  0.1384
 4386SOL    HW120398   7.760   2.545   4.856 -2.2541 -1.4283 -0.8891
 4386SOL    HW220399   7.762   2.610   4.720 -1.6823 -0.4373 -0.4209
 4387SOL     OW20400   2.136   0.334   4.065 -0.2448  0.1059  0.1133
 4387SOL    HW120401   2.212   0.388   4.045  2.0498 -2.2588  1.9167
 4387SOL    HW220402   2.087   0.385   4.130  1.1061  0.6383  0.7474
 4388SOL     OW20403  10.749   1.940   8.755  0.0220 -0.6366 -0.1651
 4388SOL    HW120404  10.711   2.027   8.761 -1.9723 -1.4765  0.4047
 4388SOL    HW220405  10.720   1.908   8.669  0.7779 -0.7464 -0.3891
 4389SOL     OW20406  11.333  10.509   7.084  0.8888  0.0408  0.4006
 4389SOL    HW120407  11.307  10.445   7.149 -1.0564 -0.0172 -0.3679
 4389SOL    HW220408  11.272  10.582   7.097  0.1567 -0.1647 -1.6068
 4390SOL     OW20409   4.533   8.015   1.172  0.4883 -0.6015  0.0284
 4390SOL    HW120410   4.569   8.103   1.170 -1.0966  0.0900 -2.4770
 4390SOL    HW220411   4.511   8.000   1.264  1.1019  1.4806  0.5602
 4391SOL     OW20412   7.889  10.044   9.641 -0.2251  0.1703 -0.2530
 4391SOL    HW120413   7.820  10.029   9.576 -0.0594  1.3257 -0.7123
 4391SOL    HW220414   7.842  10.073   9.719 -0.3050  0.4133 -0.3902
 4392SOL     OW20415   5.492  12.124  10.738 -0.3714  0.2677  0.6639
 4392SOL    HW120416   5.553  12.052  10.753  0.1952  0.4381 -0.6520
 4392SOL    HW220417   5.502  12.181  10.814  1.8814  0.8101  0.0472
 4393SOL     OW20418   0.155   4.137   1.718 -0.7335  0.2801  0.3543
 4393SOL    HW120419   0.076   4.128   1.772  0.1025  2.4783  2.1492
 4393SOL    HW220420   0.146   4.224   1.678  0.6034  0.4299  0.3387
 4394SOL     OW20421   6.075   8.380   0.401  0.2066 -0.3961  0.2250
 4394SOL    HW120422   6.169   8.364   0.412  0.5015 -0.2750 -1.7419
 4394SOL    HW220423   6.063   8.471   0.426  0.8826 -0.0090 -0.7934
 4395SOL     OW20424  11.380   5.901   0.164  0.1784  0.1971  0.1357
 4395SOL    HW120425  11.284   5.899   0.174  0.1373  0.9913 -0.0555
 4395SOL    HW220426  11.395   5.862   0.077  0.0963 -0.6683  0.4933
 4396SOL     OW20427   9.969   6.910   5.599  0.0519 -0.6437 -0.0849
 4396SOL    HW120428   9.881   6.873   5.599 -0.7370  1.1392  0.7015
 4396SOL    HW220429   9.979   6.949   5.686  1.3161 -0.0997 -0.4436
 4397SOL     OW20430   9.122  12.710   7.214 -0.1439 -0.2753 -0.5339
 4397SOL    HW120431   9.072  12.658   7.152 -1.0490  1.3840 -1.2700
 4397SOL    HW220432   9.160  12.780   7.161 -0.3262  0.7648  0.6654
 4398SOL     OW20433   9.939   6.153   9.178 -0.7853  0.0790  0.0140
 4398SOL    HW120434   9.846   6.168   9.194 -1.0951 -0.9088 -0.7598
 4398SOL    HW220435   9.981   6.167   9.263 -1.9618 -1.8917  0.9944
 4399SOL     OW20436   7.474  12.238   5.037  0.1009  0.3569  0.4235
 4399SOL    HW120437   7.482  12.223   4.943  0.1482 -0.9492  0.6136
 4399SOL    HW220438   7.400  12.298   5.045  0.6220  1.1411 -0.4856
 4400SOL     OW20439   1.857   7.731   0.071 -0.1464 -0.1745  0.1621
 4400SOL    HW120440   1.830   7.755   0.160 -0.1122  0.2798  0.0499
 4400SOL    HW220441   1.776   7.701   0.030 -0.5699  1.4179 -0.2499
 4401SOL     OW20442   1.655   8.287   0.941 -0.6256 -0.0572 -0.3840
 4401SOL    HW120443   1.591   8.356   0.959 -1.1911 -0.0135 -2.3662
 4401SOL    HW220444   1.624   8.212   0.991 -2.5547 -0.1794 -1.6604
 4402SOL     OW20445   9.754  12.315  12.610  0.3006  0.2648 -0.2854
 4402SOL    HW120446   9.840  12.350  12.588  1.2428 -3.0416 -2.4768
 4402SOL    HW220447   9.725  12.269  12.531 -2.7730 -0.1386  0.9205
 4403SOL     OW20448  11.671  10.496   1.931 -0.3692  0.2889  0.1705
 4403SOL    HW120449  11.579  10.470   1.940 -0.5551  1.3838  1.8097
 4403SOL    HW220450  11.720  10.414   1.942 -1.1277 -0.8042 -3.2765
 4404SOL     OW20451   1.347   8.218   8.310  0.6663  0.5684 -0.3231
 4404SOL    HW120452   1.316   8.278   8.378 -0.9466 -0.0776 -0.4339
 4404SOL    HW220453   1.418   8.168   8.352  0.9236  1.4206  0.2788
 4405SOL     OW20454  10.794   8.556   3.784  0.1994  0.1633 -1.0119
 4405SOL    HW120455  10.869   8.497   3.782 -0.9083 -1.3631  0.2411
 4405SOL    HW220456  10.826   8.634   3.831  1.5041  0.3474 -2.1527
 4406SOL     OW20457   5.324  10.443   2.646 -0.0959  0.6306 -0.0968
 4406SOL    HW120458   5.357  10.526   2.681 -0.8622  1.2394 -0.7832
 4406SOL    HW220459   5.377  10.426   2.569  1.1183 -0.3483  0.9125
 4407SOL     OW20460   7.151   8.760  10.799 -0.5457  0.6613 -0.1211
 4407SOL    HW120461   7.209   8.819  10.848 -0.0960 -1.2676  1.7633
 4407SOL    HW220462   7.210   8.695  10.762 -1.2005  0.5087 -0.9212
 4408SOL     OW20463   0.372  10.116   9.429  0.1659  0.2856 -0.0648
 4408SOL    HW120464   0.289  10.107   9.477 -0.2396  2.9399 -0.0887
 4408SOL    HW220465   0.380  10.035   9.379 -2.7815  0.1878 -0.5694
 4409SOL     OW20466   3.031   8.041   5.443  0.6445  0.6166 -0.0030
 4409SOL    HW120467   2.986   7.958   5.429 -0.2478  0.7638  1.6806
 4409SOL    HW220468   3.020   8.059   5.537  0.5837  2.7467 -0.3601
 4410SOL     OW20469   0.587   3.474   4.935  0.0505 -0.0907  0.1403
 4410SOL    HW120470   0.527   3.477   4.861 -0.4946 -3.6966  0.2740
 4410SOL    HW220471   0.667   3.435   4.900  1.2509  1.7255  0.6837
 4411SOL     OW20472   5.278   7.538  10.413  0.1771  0.7641  0.0559
 4411SOL    HW120473   5.361   7.502  10.443  0.0004  0.3391  0.0453
 4411SOL    HW220474   5.215   7.512  10.480 -0.1488  0.1309 -0.4841
 4412SOL     OW20475  11.917  12.675   0.507  0.7976 -0.0050 -0.4047
 4412SOL    HW120476  11.879  12.686   0.420 -1.0078 -3.4948 -0.1898
 4412SOL    HW220477  11.974  12.598   0.500 -0.2900 -1.0983  1.7011
 4413SOL     OW20478   4.397   1.805   9.739  0.3586 -0.6649 -1.0824
 4413SOL    HW120479   4.306   1.821   9.714  0.3943 -0.4227 -1.0565
 4413SOL    HW220480   4.432   1.891   9.762 -0.2497 -1.1047  1.8060
 4414SOL     OW20481  10.424   9.858   8.998  0.0994  0.1433  0.8406
 4414SOL    HW120482  10.347   9.811   8.967  1.0197 -1.0676  0.3155
 4414SOL    HW220483  10.473   9.879   8.918  0.2995  0.9408  1.1656
 4415SOL     OW20484   1.473  11.680   5.130 -0.4059  0.4694  0.6144
 4415SOL    HW120485   1.445  11.656   5.218 -0.7858 -0.7485  0.1857
 4415SOL    HW220486   1.548  11.738   5.143 -1.0549  1.0636  1.7410
 4416SOL     OW20487   7.965   3.871  12.274 -0.0343 -0.6357 -0.1893
 4416SOL    HW120488   7.883   3.861  12.226  0.1068 -1.0162 -0.3525
 4416SOL    HW220489   8.019   3.796  12.246  0.4921 -0.2114 -0.3368
 4417SOL     OW20490   7.268  12.490   1.905 -0.4015 -0.0772  0.0436
 4417SOL    HW120491   7.236  12.562   1.851 -1.7044 -1.2054 -0.7678
 4417SOL    HW220492   7.321  12.437   1.846  1.8146  0.9551  1.0049
 4418SOL     OW20493  11.884   2.649  11.795  0.4568 -0.2085 -0.3836
 4418SOL    HW120494  11.869   2.586  11.865  0.0187  0.6263  0.2921
 4418SOL    HW220495  11.974   2.679  11.808  0.3602 -0.0193 -0.1450
 4419SOL     OW20496   0.882   1.247   7.771 -0.1197  0.0802  0.1030
 4419SOL    HW120497   0.868   1.163   7.814  1.4183  0.0140  0.5178
 4419SOL    HW220498   0.914   1.225   7.684  4.2514  0.0863  1.4819
 4420SOL     OW20499   9.321   5.325   8.772  0.1351  0.7848 -0.3773
 4420SOL    HW120500   9.350   5.328   8.863  0.2603 -0.3037 -0.3789
 4420SOL    HW220501   9.335   5.235   8.744  2.4658  1.6299 -2.2656
 4421SOL     OW20502   5.333   5.426   3.534  0.6063  0.4834  0.0636
 4421SOL    HW120503   5.283   5.363   3.586 -0.4733  1.2029 -0.0771
 4421SOL    HW220504   5.378   5.480   3.599  1.7830 -0.5780  0.1856
 4422SOL     OW20505   9.619   1.587  12.341 -0.1549 -0.2438  0.1099
 4422SOL    HW120506   9.675   1.584  12.264 -0.2194 -0.1515  0.0599
 4422SOL    HW220507   9.593   1.496  12.355 -1.4984 -0.0562 -0.9711
 4423SOL     OW20508   2.784   4.836   0.580  0.3737  0.2810 -0.1982
 4423SOL    HW120509   2.692   4.810   0.579  0.0868  1.2699 -0.4189
 4423SOL    HW220510   2.810   4.828   0.672 -0.1858  0.8189  0.0162
 4424SOL     OW20511   2.340   0.260   5.335  0.3627  0.0654 -0.2620
 4424SOL    HW120512   2.321   0.204   5.410  1.1996 -1.2798 -1.0061
 4424SOL    HW220513   2.434   0.273   5.338  0.5042 -0.5288 -1.3963
 4425SOL     OW20514  11.388  12.144  10.248  0.7419  0.1945  0.1899
 4425SOL    HW120515  11.333  12.074  10.215  1.0459 -0.0059  0.1037
 4425SOL    HW220516  11.347  12.224  10.216 -0.8069  0.2051  2.0302
 4426SOL     OW20517   8.684   1.445  10.952 -0.1559  0.0587  0.4575
 4426SOL    HW120518   8.698   1.492  11.034 -0.9952 -0.2246  0.7740
 4426SOL    HW220519   8.752   1.379  10.950  0.0073  0.2163  0.8196
 4427SOL     OW20520   9.541  10.693  10.071  0.0290  0.2399  0.2898
 4427SOL    HW120521   9.636  10.702  10.081  0.1306 -0.8466  0.3860
 4427SOL    HW220522   9.522  10.734   9.986  0.5469  0.6627  0.3725
 4428SOL     OW20523   6.104   2.944   4.989  0.3283 -0.5382 -0.1645
 4428SOL    HW120524   6.089   3.038   4.982  1.2891 -0.4693 -1.8268
 4428SOL    HW220525   6.016   2.906   4.983 -0.0133  0.2162 -0.1308
 4429SOL     OW20526   0.173   7.146   9.215 -0.6746  0.5069 -0.2301
 4429SOL    HW120527   0.106   7.139   9.282 -0.9116  0.6725 -0.4489
 4429SOL    HW220528   0.164   7.235   9.181  0.1274  0.7780  0.2412
 4430SOL     OW20529   0.821  10.827   6.701  0.6044 -0.0461  0.1004
 4430SOL    HW120530   0.849  10.824   6.609  0.6840 -0.3549  0.1321
 4430SOL    HW220531   0.728  10.849   6.697 -0.1184 -2.7340 -0.2223
 4431SOL     OW20532  10.619   6.274  10.541 -0.3104 -0.2570  0.1954
 4431SOL    HW120533  10.576   6.260  10.457 -0.1699 -0.1537  0.1066
 4431SOL    HW220534  10.640   6.367  10.542 -0.4387 -0.2287  0.4058
 4432SOL     OW20535  11.781   3.339  12.439  0.5570  0.3922 -0.0599
 4432SOL    HW120536  11.795   3.317  12.347 -0.7064 -0.3763 -0.0942
 4432SOL    HW220537  11.755   3.432  12.438 -0.0728  0.2167 -0.5527
 4433SOL     OW20538  10.924  11.990  10.065  0.4973  0.3225  0.1521
 4433SOL    HW120539  10.916  11.896  10.050  0.8163  0.0721  1.5074
 4433SOL    HW220540  10.867  12.008  10.139  0.7931  1.1263  0.1966
 4434SOL     OW20541   2.188   1.762   5.654 -0.3487 -0.9690  0.2572
 4434SOL    HW120542   2.281   1.758   5.635 -0.5368 -1.6064 -0.6266
 4434SOL    HW220543   2.172   1.852   5.681  0.7628 -1.2211  1.8650
 4435SOL     OW20544  10.765  11.380   6.108 -0.5177 -0.5422 -0.2260
 4435SOL    HW120545  10.833  11.448   6.110  0.3313 -1.3498 -0.8967
 4435SOL    HW220546  10.751  11.359   6.200  0.3022 -0.5126 -0.0820
 4436SOL     OW20547   5.189   4.282   1.761 -0.3500 -0.1189  0.3230
 4436SOL    HW120548   5.277   4.268   1.725 -0.0204  1.5479  0.3919
 4436SOL    HW220549   5.135   4.216   1.717  0.8520 -0.9179 -0.0139
 4437SOL     OW20550   5.031   6.662   9.389 -0.1676 -0.0251 -0.4943
 4437SOL    HW120551   5.046   6.570   9.367 -0.7497 -0.4698  0.8476
 4437SOL    HW220552   4.999   6.701   9.308  0.6380 -0.8689 -1.2388
 4438SOL     OW20553  12.405  12.036   9.688  0.3203  0.2718 -0.0821
 4438SOL    HW120554  12.374  11.946   9.691 -1.5394  0.7955 -1.7055
 4438SOL    HW220555  12.477  12.035   9.625 -0.4360  0.0873 -0.9646
 4439SOL     OW20556   3.174   0.341   0.516 -0.2948  0.0571  0.0783
 4439SOL    HW120557   3.078   0.349   0.523 -0.1384  1.2023  1.1349
 4439SOL    HW220558   3.191   0.249   0.538 -1.0959  0.0157  0.5868
 4440SOL     OW20559  12.370   7.322   6.374 -0.0523  0.2543  0.6026
 4440SOL    HW120560  12.344   7.403   6.329 -0.9127  1.7049  3.4562
 4440SOL    HW220561  12.463   7.313   6.355 -0.3943  0.6569 -1.5448
 4441SOL     OW20562   2.863   0.323   0.448 -0.0145  0.4527 -0.6060
 4441SOL    HW120563   2.903   0.374   0.377  1.7287 -1.2566 -0.9437
 4441SOL    HW220564   2.795   0.271   0.405  0.9736 -0.5074 -1.0895
 4442SOL     OW20565   0.782   1.101   8.605  0.1466 -0.1435  0.5454
 4442SOL    HW120566   0.847   1.168   8.584 -0.5762  0.0357 -1.3454
 4442SOL    HW220567   0.698   1.142   8.587 -0.3788 -1.0808  0.7967
 4443SOL     OW20568   2.784   3.470  12.385 -0.5356  0.5710 -0.0867
 4443SOL    HW120569   2.762   3.377  12.382  0.0688  0.4458 -1.0839
 4443SOL    HW220570   2.715   3.509  12.439  0.2765 -0.7423  2.0323
 4444SOL     OW20571   6.926   5.655   0.916  0.9467  0.1390  0.4836
 4444SOL    HW120572   6.963   5.741   0.900 -3.1881  2.1631  0.3420
 4444SOL    HW220573   6.901   5.623   0.829  0.1627  0.0325  0.7366
 4445SOL     OW20574   9.340   8.049  11.132  0.3016 -0.0376  0.0295
 4445SOL    HW120575   9.261   8.098  11.111  1.2456  2.5083  1.9324
 4445SOL    HW220576   9.377   8.093  11.208  2.9723 -1.8277 -0.0708
 4446SOL     OW20577   6.160   0.166   1.882 -0.2602 -0.3177  0.6982
 4446SOL    HW120578   6.208   0.133   1.807  1.4315  0.2784  1.4553
 4446SOL    HW220579   6.081   0.113   1.886  0.1635 -1.1115 -0.8134
 4447SOL     OW20580   2.975  11.646   4.356 -0.2550  0.0386 -0.2239
 4447SOL    HW120581   3.008  11.623   4.443  0.5706  0.7511 -0.3450
 4447SOL    HW220582   3.053  11.664   4.304 -0.7590  0.0105 -1.0080
 4448SOL     OW20583  10.210   3.634   8.454 -0.6580  0.3821  1.0585
 4448SOL    HW120584  10.120   3.600   8.450 -0.6868  0.3986  1.5449
 4448SOL    HW220585  10.208   3.715   8.403 -0.0279 -1.5408 -2.3429
 4449SOL     OW20586  10.729  11.607   9.370  0.0774  0.3904 -0.0190
 4449SOL    HW120587  10.784  11.676   9.333  1.0258 -0.2558  0.1471
 4449SOL    HW220588  10.680  11.650   9.440  1.1417  0.7643  0.5105
 4450SOL     OW20589   7.458   4.875   7.725  0.3818  0.6207  0.6093
 4450SOL    HW120590   7.381   4.892   7.671  0.6944 -0.2723 -0.1663
 4450SOL    HW220591   7.529   4.860   7.662  1.5905  2.9834  1.3023
 4451SOL     OW20592  10.442   7.674   0.036  0.0097 -0.2812  0.0465
 4451SOL    HW120593  10.521   7.622   0.049 -0.2141 -1.0349 -1.4292
 4451SOL    HW220594  10.452   7.712  -0.051 -1.2703 -0.4281 -0.1841
 4452SOL     OW20595  12.504   5.990   7.010  0.3135  0.2786  0.0861
 4452SOL    HW120596  12.465   5.904   7.024 -1.3399  1.0516  0.4292
 4452SOL    HW220597  12.565   6.001   7.083 -0.5554 -0.0124  0.8770
 4453SOL     OW20598   6.734   9.033   6.199  0.2091 -0.3617 -0.2427
 4453SOL    HW120599   6.695   9.119   6.179 -0.8354 -0.6326  0.5406
 4453SOL    HW220600   6.783   9.010   6.120 -0.3726  0.4801 -0.8688
 4454SOL     OW20601   2.267   7.936  10.085  0.0877  0.4277  0.4673
 4454SOL    HW120602   2.197   7.871  10.094  0.6777 -0.7491 -2.2442
 4454SOL    HW220603   2.221   8.017  10.062 -0.5325  0.5391  1.9637
 4455SOL     OW20604   3.597   3.187  11.514  0.2958  0.2874 -0.6858
 4455SOL    HW120605   3.509   3.224  11.506  0.0765  0.7804  2.7262
 4455SOL    HW220606   3.583   3.095  11.535  0.6383  0.2178 -0.7498
 4456SOL     OW20607   6.281   8.735  12.243 -0.2489 -0.1671 -0.1717
 4456SOL    HW120608   6.257   8.662  12.301 -1.6247  1.1712  1.0339
 4456SOL    HW220609   6.376   8.740  12.251 -0.2094 -1.2865  0.4005
 4457SOL     OW20610  12.629   0.683   7.935  0.4770 -0.2224 -0.6239
 4457SOL    HW120611  12.683   0.762   7.926  0.4881 -0.1076  0.2978
 4457SOL    HW220612  12.544   0.717   7.963  0.1600 -0.4651 -1.2764
 4458SOL     OW20613  12.397  10.279  10.113 -0.3277 -0.1920 -0.0010
 4458SOL    HW120614  12.413  10.281  10.207 -0.7479 -1.8794  0.1199
 4458SOL    HW220615  12.309  10.244  10.104 -0.4715  0.3930 -1.0227
 4459SOL     OW20616   7.931   4.765   8.509  0.3345 -0.2708 -0.2954
 4459SOL    HW120617   7.995   4.837   8.509  3.8169 -3.0153 -2.6265
 4459SOL    HW220618   7.933   4.731   8.420 -0.9701 -3.3361  0.7232
 4460SOL     OW20619   5.479   7.234   6.999  0.1259 -0.3565 -0.2393
 4460SOL    HW120620   5.522   7.261   7.080 -0.6505  0.9257 -0.2160
 4460SOL    HW220621   5.475   7.314   6.947 -0.5988 -0.8590 -0.9775
 4461SOL     OW20622   8.953   2.718   4.598 -0.0300  0.1637 -0.0883
 4461SOL    HW120623   8.908   2.664   4.664  2.4698 -1.7809  0.1897
 4461SOL    HW220624   9.009   2.776   4.649 -1.0750  1.5668 -0.4696
 4462SOL     OW20625   0.504   0.409   7.306 -0.4423 -0.2747 -0.0376
 4462SOL    HW120626   0.474   0.396   7.216  0.6102 -1.2341 -0.2748
 4462SOL    HW220627   0.535   0.500   7.307 -0.6692 -0.1845 -0.5850
 4463SOL     OW20628   3.735   2.051  12.690 -0.4558 -0.1262 -0.1433
 4463SOL    HW120629   3.820   2.060  12.648 -0.9832  0.3474 -1.1430
 4463SOL    HW220630   3.746   2.090  12.776  0.5910 -0.9413  0.1121
 4464SOL     OW20631   2.337   6.660  11.408  0.0053 -0.0400  0.4575
 4464SOL    HW120632   2.293   6.623  11.485  2.4549  0.3237  2.1265
 4464SOL    HW220633   2.407   6.714  11.444  1.1730  0.2620 -2.0620
 4465SOL     OW20634   9.781   0.186   1.514  0.1369  0.4977 -0.3957
 4465SOL    HW120635   9.858   0.222   1.469  0.6447 -0.4239 -0.2859
 4465SOL    HW220636   9.721   0.164   1.443  0.6742 -0.3516 -0.5967
 4466SOL     OW20637   3.569  10.816   7.357 -0.1675 -0.7791  0.0039
 4466SOL    HW120638   3.522  10.738   7.328 -0.7779 -0.6734  0.6899
 4466SOL    HW220639   3.572  10.809   7.452 -0.8644  0.3830  0.1296
 4467SOL     OW20640   1.124   0.191   9.916  0.3978  0.8995  0.0104
 4467SOL    HW120641   1.043   0.221   9.957 -0.5229 -0.6088 -0.6489
 4467SOL    HW220642   1.176   0.271   9.905  0.1689  1.5430  2.8787
 4468SOL     OW20643   4.209   9.403   6.246 -0.0268  0.2954  0.5225
 4468SOL    HW120644   4.193   9.428   6.337  1.0913 -0.1356  0.8570
 4468SOL    HW220645   4.264   9.474   6.211  2.5649 -1.2292  1.2673
 4469SOL     OW20646   8.695   3.311   0.216  0.1417 -0.0346  0.5610
 4469SOL    HW120647   8.692   3.346   0.305 -1.4381  0.9238  0.1718
 4469SOL    HW220648   8.630   3.241   0.215 -0.7495  0.7810 -0.1481
 4470SOL     OW20649   2.469   4.817  12.419  0.3061 -0.3878  0.4710
 4470SOL    HW120650   2.549   4.765  12.413  0.9699  0.7160 -1.1703
 4470SOL    HW220651   2.485   4.879  12.491  1.1436  0.1243 -0.1410
 4471SOL     OW20652   6.623   7.448   6.458 -0.4079  0.2769  0.0879
 4471SOL    HW120653   6.686   7.517   6.438 -1.4201  1.5252  0.9659
 4471SOL    HW220654   6.562   7.489   6.520 -1.3279 -1.2715  0.2663
 4472SOL     OW20655   7.626  11.555   2.698 -0.4941 -0.0441  0.6095
 4472SOL    HW120656   7.641  11.638   2.652 -1.7691 -0.3887 -0.4908
 4472SOL    HW220657   7.649  11.488   2.635 -1.9265 -0.5293  0.5584
 4473SOL     OW20658   2.960   9.154   2.359  0.0337  0.4530  0.0090
 4473SOL    HW120659   2.976   9.224   2.295 -0.2925  1.4492  0.9788
 4473SOL    HW220660   2.956   9.200   2.443  0.9272 -0.8892  0.8039
 4474SOL     OW20661   2.493  10.245   4.286  0.6502  0.0948  0.0191
 4474SOL    HW120662   2.572  10.201   4.253  0.6733  1.6709 -2.3211
 4474SOL    HW220663   2.431  10.239   4.213 -0.7538  0.4801  1.1425
 4475SOL     OW20664  11.342   2.559   1.302 -0.2625  0.0619 -1.1134
 4475SOL    HW120665  11.302   2.646   1.290 -0.9570 -0.2438 -1.0684
 4475SOL    HW220666  11.362   2.555   1.395 -3.2528 -1.0494 -0.3841
 4476SOL     OW20667   4.353   8.835  12.330 -0.1652 -0.2430 -0.7257
 4476SOL    HW120668   4.300   8.807  12.255  1.5461 -2.5874 -1.1527
 4476SOL    HW220669   4.435   8.786  12.321  0.1096 -0.5893  2.6882
 4477SOL     OW20670  10.345   5.007   6.773 -0.4414 -0.3289 -0.0196
 4477SOL    HW120671  10.434   4.996   6.808 -0.6803  0.0669  0.7442
 4477SOL    HW220672  10.342   5.098   6.743 -0.2272 -0.6758 -1.1417
 4478SOL     OW20673   6.230   6.607   4.234 -0.2601 -0.2372  0.0102
 4478SOL    HW120674   6.139   6.608   4.262 -0.7533  3.3705 -1.1981
 4478SOL    HW220675   6.229   6.561   4.150 -0.7010 -1.3720  0.6232
 4479SOL     OW20676   0.784   9.383   7.870 -0.7664  0.4229 -0.0019
 4479SOL    HW120677   0.773   9.289   7.860 -0.4139  0.2283  1.2179
 4479SOL    HW220678   0.697   9.415   7.893 -0.5882  0.1614  1.0794
 4480SOL     OW20679   5.072   0.611   2.694 -0.3959  0.2047 -0.7914
 4480SOL    HW120680   5.004   0.594   2.759  0.8161  1.0941  0.8093
 4480SOL    HW220681   5.102   0.525   2.666 -0.2586 -0.2420  0.6375
 4481SOL     OW20682   7.002   5.195  11.196 -0.5647 -0.2756 -0.1306
 4481SOL    HW120683   7.088   5.237  11.209  0.1058 -2.0066  1.5020
 4481SOL    HW220684   6.941   5.256  11.237  0.1487  0.0093  0.5488
 4482SOL     OW20685   0.552  10.079   3.947 -0.1997  0.0297  0.0406
 4482SOL    HW120686   0.614  10.090   4.019 -2.4253 -2.2919  2.5508
 4482SOL    HW220687   0.511  10.165   3.938  0.5827  0.5498  1.1486
 4483SOL     OW20688   7.447   6.076   1.615  0.1765  0.1735  0.3108
 4483SOL    HW120689   7.419   6.124   1.538  1.0965 -0.2649 -0.3181
 4483SOL    HW220690   7.523   6.125   1.647  0.8635 -0.6114 -0.0910
 4484SOL     OW20691   1.149  12.053   7.956 -0.3953  0.0909 -0.1521
 4484SOL    HW120692   1.144  11.973   8.008 -0.0356 -0.1234 -0.4427
 4484SOL    HW220693   1.171  12.023   7.867 -0.8084  0.4655 -0.3842
 4485SOL     OW20694   9.643  12.394  11.703  0.2861 -0.0136  0.3145
 4485SOL    HW120695   9.602  12.471  11.663  0.1539 -0.1351  0.2115
 4485SOL    HW220696   9.641  12.412  11.797  0.4309  0.1932  0.2773
 4486SOL     OW20697  11.004   0.801   5.615  0.5294 -0.0304  0.1185
 4486SOL    HW120698  10.980   0.740   5.686  2.4582 -0.6440  0.3043
 4486SOL    HW220699  11.063   0.863   5.657 -3.0979  3.5760  0.5302
 4487SOL     OW20700  11.049   7.119   5.000 -0.3536 -0.0406 -0.0444
 4487SOL    HW120701  10.970   7.080   4.963 -0.9612  1.0203  0.0794
 4487SOL    HW220702  11.031   7.123   5.094  0.7412 -1.7474  0.2754
 4488SOL     OW20703  11.347   0.460   7.532 -0.0534 -0.5467  0.1711
 4488SOL    HW120704  11.407   0.532   7.513  0.0536 -0.7242 -0.1835
 4488SOL    HW220705  11.260   0.501   7.534 -0.1198 -0.5792 -1.1549
 4489SOL     OW20706   2.254   5.363   0.771 -0.2793  1.2348  0.0153
 4489SOL    HW120707   2.329   5.344   0.715 -0.3446 -0.5236  0.4748
 4489SOL    HW220708   2.270   5.312   0.851 -2.7268 -0.5726 -0.5179
 4490SOL     OW20709   7.976   0.128   1.688  0.1490 -0.2610 -0.0258
 4490SOL    HW120710   7.897   0.163   1.730  0.1092 -0.2360 -0.1219
 4490SOL    HW220711   8.031   0.205   1.673  0.0474 -0.2356 -0.2663
 4491SOL     OW20712   6.931   0.075  11.796  0.1465 -0.2101  0.0049
 4491SOL    HW120713   6.999   0.011  11.775  0.0410 -0.6605  0.9698
 4491SOL    HW220714   6.910   0.058  11.888  0.7414  1.7823  0.5655
 4492SOL     OW20715  12.301   7.558   6.292  0.6521 -0.9645  0.5183
 4492SOL    HW120716  12.265   7.581   6.206 -2.2338  0.6269  1.9885
 4492SOL    HW220717  12.378   7.614   6.300 -1.2580  1.9290  0.4118
 4493SOL     OW20718  11.488   5.523   8.805  0.0176  0.2692  0.0608
 4493SOL    HW120719  11.466   5.441   8.850 -0.5611  0.4433  0.1003
 4493SOL    HW220720  11.424   5.529   8.734  0.4773  0.3582 -0.3462
 4494SOL     OW20721   6.807   5.673  10.465  0.2498 -0.0362  0.2826
 4494SOL    HW120722   6.767   5.756  10.438 -1.6564 -1.5260 -1.8594
 4494SOL    HW220723   6.833   5.631  10.384  0.2876 -1.9417  1.2241
 4495SOL     OW20724   2.065  11.795   2.857  0.3934  0.6752 -0.3205
 4495SOL    HW120725   2.132  11.744   2.903  1.1488  1.8739 -0.0649
 4495SOL    HW220726   2.095  11.885   2.862 -1.6156  1.3627  0.4900
 4496SOL     OW20727   7.648   6.790   0.455 -0.2988  0.5088  0.3514
 4496SOL    HW120728   7.659   6.883   0.477 -0.8944  0.5776  0.3721
 4496SOL    HW220729   7.703   6.777   0.378 -0.7755  1.0551 -0.0919
 4497SOL     OW20730   3.889   5.124   6.883 -0.3804  0.1271 -0.1647
 4497SOL    HW120731   3.882   5.218   6.897 -0.1443  0.2757 -0.9882
 4497SOL    HW220732   3.947   5.093   6.953  0.1184  0.7094 -0.3171
 4498SOL     OW20733   0.613  10.071   0.813 -0.1745  0.0960  0.3895
 4498SOL    HW120734   0.522  10.090   0.837 -0.3979 -1.6330  1.0856
 4498SOL    HW220735   0.608  10.036   0.725 -0.1063  0.5426  0.2061
 4499SOL     OW20736  12.396  11.669  11.173 -0.1808 -0.1088  0.1682
 4499SOL    HW120737  12.424  11.580  11.150 -2.7782 -0.9279 -0.1751
 4499SOL    HW220738  12.326  11.657  11.237 -1.8643  1.5609 -1.2370
 4500SOL     OW20739   7.031  11.892  12.461  0.0267 -0.1434 -0.3244
 4500SOL    HW120740   7.111  11.840  12.469  0.4123  0.4571 -0.1822
 4500SOL    HW220741   7.016  11.928  12.548  0.6387  1.2248 -0.7552
 4501SOL     OW20742   2.033   3.824   7.237 -0.5321 -0.2977  0.4207
 4501SOL    HW120743   2.010   3.859   7.151 -1.2113 -2.4268 -0.3376
 4501SOL    HW220744   2.044   3.730   7.222  1.7703 -0.4137  2.1880
 4502SOL     OW20745   0.523   4.009  10.552  0.0908 -0.0772 -0.2051
 4502SOL    HW120746   0.589   4.014  10.483  0.6911 -1.1664  0.2494
 4502SOL    HW220747   0.440   4.026  10.508  0.7250  2.2325 -0.6252
 4503SOL     OW20748   8.369   7.131   9.013  0.1055  0.2614  0.2997
 4503SOL    HW120749   8.384   7.037   9.007  0.3310  0.0276  3.1343
 4503SOL    HW220750   8.274   7.139   9.026 -0.0710  0.5509 -0.9896
 4504SOL     OW20751  10.732   5.980   2.120  0.0770  0.6754 -0.4168
 4504SOL    HW120752  10.645   5.940   2.110 -1.0369  2.6249  0.8711
 4504SOL    HW220753  10.780   5.918   2.175 -1.3590  0.7017  0.9433
 4505SOL     OW20754   4.049  12.674   9.459  0.3037  0.3565  0.0028
 4505SOL    HW120755   4.074  12.712   9.543  1.7974  1.2559 -0.8141
 4505SOL    HW220756   3.983  12.734   9.424  0.3957  0.5152  0.1004
 4506SOL     OW20757   2.345   6.304  12.445  0.4847  0.2635  0.0517
 4506SOL    HW120758   2.416   6.243  12.425  0.0017 -0.2999  0.0269
 4506SOL    HW220759   2.270   6.272  12.395 -0.3424 -0.3222  1.5889
 4507SOL     OW20760   4.226   2.646   7.326 -0.2231  0.7427  0.1095
 4507SOL    HW120761   4.267   2.718   7.278 -0.1350  0.1116 -0.7865
 4507SOL    HW220762   4.177   2.689   7.396 -1.0657  1.7686 -1.0538
 4508SOL     OW20763   0.945   8.498   2.726  0.5111  0.1924  0.6788
 4508SOL    HW120764   0.989   8.444   2.791 -0.8294  0.9248  2.2702
 4508SOL    HW220765   0.985   8.584   2.736  0.7983  0.1460 -0.0024
 4509SOL     OW20766   6.093   5.089   0.477 -0.1426 -0.5053 -0.3086
 4509SOL    HW120767   6.077   5.144   0.401 -0.2039  0.8404  0.6323
 4509SOL    HW220768   6.101   5.000   0.442 -1.0391 -0.0422 -1.7647
 4510SOL     OW20769  10.522   4.561  12.172  0.1580  0.7396 -0.2182
 4510SOL    HW120770  10.566   4.646  12.170  0.2728  0.6890  0.1569
 4510SOL    HW220771  10.452   4.572  12.236  1.2282  0.0422  1.1113
 4511SOL     OW20772   8.320   6.756   9.697  0.5392 -0.0449  0.6696
 4511SOL    HW120773   8.231   6.778   9.669 -0.2242  0.0724  2.9955
 4511SOL    HW220774   8.322   6.660   9.696  1.4747 -0.1084 -2.3369
 4512SOL     OW20775   4.589   2.987   3.136 -0.1859  0.2381 -0.5140
 4512SOL    HW120776   4.595   2.911   3.078 -0.2966  0.2869 -0.5889
 4512SOL    HW220777   4.572   2.950   3.222  4.3394 -0.2376  0.4511
 4513SOL     OW20778   6.425   9.457  11.179  0.3261  0.6999  0.1440
 4513SOL    HW120779   6.441   9.386  11.241 -0.7835  1.0995  0.9304
 4513SOL    HW220780   6.477   9.434  11.102 -0.5898 -1.3797  0.0697
 4514SOL     OW20781   6.371   7.134   6.644  0.4947 -0.3217 -0.5288
 4514SOL    HW120782   6.316   7.140   6.566 -0.4829 -0.5392  0.1350
 4514SOL    HW220783   6.329   7.190   6.708 -0.3620 -2.3717  0.8070
 4515SOL     OW20784  12.610   9.966   5.927 -0.2075 -0.1708  0.4151
 4515SOL    HW120785  12.670   9.927   5.990  0.1004 -1.4394 -0.5982
 4515SOL    HW220786  12.524   9.960   5.968  0.2762  1.2719  1.7016
 4516SOL     OW20787   8.769   6.053  10.629  0.5127  0.8938  0.6181
 4516SOL    HW120788   8.815   6.092  10.554 -2.1277  1.7912 -0.6504
 4516SOL    HW220789   8.694   6.110  10.643 -1.9685 -2.1064  0.5570
 4517SOL     OW20790   8.102   3.311   5.088  0.0554 -0.0571 -0.0987
 4517SOL    HW120791   8.172   3.367   5.123 -0.9711  1.4378 -0.3110
 4517SOL    HW220792   8.088   3.245   5.156  1.9024 -0.6437 -0.2276
 4518SOL     OW20793   0.992   0.887   8.072  0.2350  0.6700 -0.3823
 4518SOL    HW120794   0.904   0.911   8.100  0.3913  0.0575  0.7053
 4518SOL    HW220795   0.979   0.817   8.008 -0.1252  1.9351 -1.7166
 4519SOL     OW20796   8.257  11.790   1.624  0.2485  0.8959 -0.3715
 4519SOL    HW120797   8.161  11.794   1.625  0.2166  0.1519  0.6796
 4519SOL    HW220798   8.281  11.821   1.537 -0.9520  0.9332 -0.7074
 4520SOL     OW20799   8.698   0.477   0.368  0.0110  0.0486  0.1074
 4520SOL    HW120800   8.706   0.465   0.274 -0.2527  1.0179 -0.0500
 4520SOL    HW220801   8.718   0.570   0.382 -1.9143  0.4168  0.7447
 4521SOL     OW20802   7.139   3.395   7.857  0.2248  0.4846 -0.6893
 4521SOL    HW120803   7.202   3.463   7.833  0.0219  1.3365  1.0772
 4521SOL    HW220804   7.165   3.367   7.944 -0.5239 -0.7481 -0.8376
 4522SOL     OW20805   6.079  10.783   5.514  0.2443  0.2038 -0.7785
 4522SOL    HW120806   6.116  10.708   5.467  0.4122  0.1382 -0.5432
 4522SOL    HW220807   6.152  10.817   5.566 -0.4817 -1.1062  1.2130
 4523SOL     OW20808   0.144   2.564   7.598  0.0451  0.6698 -0.3735
 4523SOL    HW120809   0.125   2.571   7.691  0.7349 -0.7324 -0.0946
 4523SOL    HW220810   0.120   2.649   7.562 -1.0228  0.9593  0.9312
 4524SOL     OW20811   6.562  10.997   4.311 -0.3332 -0.1757  0.3353
 4524SOL    HW120812   6.616  11.072   4.287 -1.1419  0.1127 -0.6715
 4524SOL    HW220813   6.598  10.925   4.258 -0.1590 -0.2852  0.5974
 4525SOL     OW20814   1.107   0.413   0.980  0.3849 -0.3922 -0.0079
 4525SOL    HW120815   1.050   0.336   0.980  0.9760 -0.8405 -0.2411
 4525SOL    HW220816   1.094   0.452   1.066  1.0354 -1.4850  0.6152
 4526SOL     OW20817   2.514   4.173  11.840  0.2559  0.6280 -0.0570
 4526SOL    HW120818   2.606   4.157  11.862 -0.0736 -0.7595  0.3856
 4526SOL    HW220819   2.467   4.099  11.877 -1.1952  1.8550  0.6784
 4527SOL     OW20820   7.251   9.724   5.779 -0.1817 -0.0556  0.5128
 4527SOL    HW120821   7.269   9.653   5.717  0.3779  0.8250 -0.3726
 4527SOL    HW220822   7.214   9.681   5.856 -0.0573 -1.2731 -0.0919
 4528SOL     OW20823  10.171   5.271   4.589  0.4301  0.2819  0.1843
 4528SOL    HW120824  10.180   5.214   4.665 -1.0448 -0.0336  0.1502
 4528SOL    HW220825  10.093   5.323   4.607 -0.5045 -0.4681 -1.5090
 4529SOL     OW20826   3.515   4.085   7.284  0.7275  0.2344  0.3354
 4529SOL    HW120827   3.459   4.034   7.226 -0.3891  1.5187  0.2325
 4529SOL    HW220828   3.529   4.029   7.360 -0.9797 -0.0157  0.5023
 4530SOL     OW20829   3.482  11.186   4.136 -0.3253 -0.1366  0.2718
 4530SOL    HW120830   3.490  11.144   4.222  0.3116  0.1691  0.3707
 4530SOL    HW220831   3.561  11.239   4.129 -1.5009  1.7537  0.5392
 4531SOL     OW20832   1.170   1.884  11.394 -0.1714 -0.0107 -0.4582
 4531SOL    HW120833   1.087   1.853  11.429  0.1509  0.5355  0.8588
 4531SOL    HW220834   1.216   1.921  11.469  2.0545 -1.9033 -0.7704
 4532SOL     OW20835   8.407   6.080   1.967  0.4807 -0.0898  0.2410
 4532SOL    HW120836   8.438   6.010   2.025 -1.8548 -0.9494  0.5751
 4532SOL    HW220837   8.397   6.156   2.025 -0.1805 -0.4574  0.6258
 4533SOL     OW20838   5.113  10.715  11.161  0.6569 -0.2311 -0.3581
 4533SOL    HW120839   5.143  10.631  11.127  1.0588 -0.4651  0.5364
 4533SOL    HW220840   5.150  10.780  11.101 -0.5564 -0.7205 -1.6886
 4534SOL     OW20841  11.039   4.952   3.434  0.2014 -0.2369  0.2589
 4534SOL    HW120842  11.081   4.870   3.461 -1.3037 -1.0266  0.2660
 4534SOL    HW220843  10.964   4.962   3.493 -0.8490  0.0552 -1.0737
 4535SOL     OW20844   0.811   3.256  10.096  0.1424  0.3023 -0.0749
 4535SOL    HW120845   0.811   3.161  10.113  1.4941  0.4431  0.8170
 4535SOL    HW220846   0.824   3.262  10.001 -0.0074 -0.4036 -0.1515
 4536SOL     OW20847  10.372   2.286   9.834  0.3361 -0.2666 -0.8015
 4536SOL    HW120848  10.410   2.209   9.876 -2.1045 -0.8269  0.5757
 4536SOL    HW220849  10.412   2.360   9.880 -0.3533 -0.8301  0.7749
 4537SOL     OW20850   1.543   5.133   9.829 -0.3461 -0.1032  0.5268
 4537SOL    HW120851   1.592   5.172   9.757 -0.7979 -1.4861 -0.5936
 4537SOL    HW220852   1.604   5.071   9.870 -0.1645  0.5064  1.1890
 4538SOL     OW20853   1.495   2.396   6.020  0.2864 -0.2067 -0.3821
 4538SOL    HW120854   1.455   2.366   6.102  1.1621  0.8156  0.4590
 4538SOL    HW220855   1.540   2.477   6.044 -1.3333  1.3763 -2.3793
 4539SOL     OW20856   5.223  12.454  11.490  0.5378  0.5785  0.3752
 4539SOL    HW120857   5.244  12.547  11.478  0.1404  0.5279 -0.9504
 4539SOL    HW220858   5.209  12.422  11.401  0.1498 -0.6356  0.8590
 4540SOL     OW20859   5.306   9.280   0.694  0.2541 -0.5776 -0.3658
 4540SOL    HW120860   5.371   9.257   0.761  0.4264  1.5283  0.2339
 4540SOL    HW220861   5.285   9.196   0.653  1.8051 -1.6136  0.8157
 4541SOL     OW20862   0.861   4.340   8.158  0.0501 -0.1308 -0.0302
 4541SOL    HW120863   0.882   4.340   8.251 -0.6643 -0.8787  0.1369
 4541SOL    HW220864   0.869   4.249   8.131  1.6847  0.2712 -1.0542
 4542SOL     OW20865   9.912   7.811  11.866 -0.0224  0.1179 -0.5338
 4542SOL    HW120866   9.999   7.852  11.862 -0.1036  0.2593 -0.9775
 4542SOL    HW220867   9.872   7.833  11.781 -1.4806  2.2236  0.6110
 4543SOL     OW20868   3.439   2.251   5.586 -0.4104 -0.3516 -0.1479
 4543SOL    HW120869   3.415   2.201   5.509  0.9961 -1.1768 -0.0852
 4543SOL    HW220870   3.450   2.341   5.554 -1.2839 -0.4033 -0.5978
 4544SOL     OW20871   3.307  10.843   9.874  0.0170 -0.2032 -0.0207
 4544SOL    HW120872   3.214  10.835   9.899  0.1340 -1.1311  0.1379
 4544SOL    HW220873   3.319  10.937   9.859 -1.6102 -0.3284 -2.6486
 4545SOL     OW20874   5.079  11.911  11.000  0.0709 -0.0675  0.2095
 4545SOL    HW120875   5.119  11.882  10.919  0.7496  1.8099 -0.1970
 4545SOL    HW220876   4.988  11.929  10.977 -0.4998 -2.2100  0.5933
 4546SOL     OW20877   0.614   6.313   0.253 -0.1441 -0.2371 -0.7462
 4546SOL    HW120878   0.524   6.284   0.237 -0.2432  0.5968 -1.8461
 4546SOL    HW220879   0.607   6.409   0.257  0.4903 -0.2221  0.6108
 4547SOL     OW20880   0.006   0.146  12.369  0.1169  0.1802 -0.1931
 4547SOL    HW120881   0.021   0.110  12.456  0.6090 -2.9561 -1.4481
 4547SOL    HW220882   0.093   0.148  12.329 -0.2317  0.6606 -0.9445
 4548SOL     OW20883   5.913  10.365   9.360 -0.1351  0.2732  0.0937
 4548SOL    HW120884   5.836  10.369   9.416 -0.3849 -0.1106 -0.2124
 4548SOL    HW220885   5.932  10.456   9.338 -0.1578  0.4073  0.6284
 4549SOL     OW20886   2.953   0.477   4.844 -0.1751  0.4364 -0.2612
 4549SOL    HW120887   2.864   0.449   4.865 -0.7611  2.1600 -0.2548
 4549SOL    HW220888   2.956   0.479   4.748 -0.2768  0.7543 -0.2588
 4550SOL     OW20889   0.544   7.607   9.990 -0.5965  0.0869 -0.5029
 4550SOL    HW120890   0.530   7.688   9.942  0.1095 -0.2964 -1.3965
 4550SOL    HW220891   0.536   7.631  10.082 -1.1989  0.9953 -0.7844
 4551SOL     OW20892   0.222   9.066   0.689  0.2265 -0.4886 -0.2653
 4551SOL    HW120893   0.301   9.022   0.656  0.6608 -1.0893  1.4838
 4551SOL    HW220894   0.256   9.139   0.742 -0.4467  0.1943 -0.7416
 4552SOL     OW20895   0.080   7.703   6.893 -0.2524  0.0309 -0.8577
 4552SOL    HW120896  -0.016   7.703   6.898 -0.3212  3.2416  0.2259
 4552SOL    HW220897   0.102   7.789   6.856  2.2360 -0.1771 -0.0469
 4553SOL     OW20898   2.107   9.558  11.313 -0.0923 -0.1528 -0.3405
 4553SOL    HW120899   2.110   9.465  11.292  1.1093 -0.0004 -0.8676
 4553SOL    HW220900   2.188   9.575  11.361 -1.1280  0.2584  1.3939
 4554SOL     OW20901  12.272   6.066   2.819  0.0781 -0.3613 -0.1850
 4554SOL    HW120902  12.352   6.043   2.867 -0.3643  0.4841  0.9962
 4554SOL    HW220903  12.262   6.160   2.833 -0.9345 -0.3965 -0.6009
 4555SOL     OW20904  12.571   1.333  12.593 -0.2093 -0.4533 -0.6213
 4555SOL    HW120905  12.541   1.243  12.603 -0.2170 -0.4757 -0.8440
 4555SOL    HW220906  12.577   1.366  12.682 -1.6238 -0.2066 -0.5991
 4556SOL     OW20907   9.155   5.390  10.835  0.1964 -0.1512  0.3067
 4556SOL    HW120908   9.190   5.332  10.767 -0.3218 -0.3927  0.2412
 4556SOL    HW220909   9.065   5.360  10.848 -1.5509  3.0523 -2.5848
 4557SOL     OW20910   0.803  11.527   7.450 -0.0590 -0.0032 -0.2991
 4557SOL    HW120911   0.887  11.495   7.415 -0.0137 -0.0102 -0.1857
 4557SOL    HW220912   0.806  11.504   7.543 -0.0209  0.3421 -0.2141
 4558SOL     OW20913   9.836   1.674   1.369  0.1311  0.0105 -0.6546
 4558SOL    HW120914   9.928   1.697   1.355  0.2812  0.6411  1.1033
 4558SOL    HW220915   9.838   1.580   1.390  0.6379  0.3804  1.1519
 4559SOL     OW20916   5.761   3.934   4.763  0.1830 -0.7174  0.0274
 4559SOL    HW120917   5.821   3.988   4.711 -0.3962 -0.1256 -0.0483
 4559SOL    HW220918   5.806   3.920   4.846  0.2690  0.0476  0.1174
 4560SOL     OW20919  11.344   5.952   8.877 -0.3300 -0.7166  0.3078
 4560SOL    HW120920  11.310   5.863   8.872 -0.5257 -0.6972  1.1356
 4560SOL    HW220921  11.293   6.001   8.812  0.2574 -1.3418 -0.6516
 4561SOL     OW20922  10.501   4.682  10.920 -0.5889  0.8604  0.2644
 4561SOL    HW120923  10.497   4.605  10.864  2.8404  0.1969  0.7201
 4561SOL    HW220924  10.476   4.650  11.007 -1.4772  0.8579  0.0200
 4562SOL     OW20925   1.116   6.241   4.899  0.0436  0.0160 -0.6019
 4562SOL    HW120926   1.160   6.234   4.984  0.6149 -1.0354 -0.9774
 4562SOL    HW220927   1.081   6.331   4.898  0.3203  0.1547  0.5930
 4563SOL     OW20928   2.152   0.407   0.273  0.0856 -0.4745  0.1850
 4563SOL    HW120929   2.062   0.432   0.252 -0.6378 -2.6710  0.4836
 4563SOL    HW220930   2.206   0.457   0.212 -1.2198  1.7059  0.7161
 4564SOL     OW20931  10.697   5.333   9.319  0.3700 -0.0572 -0.1130
 4564SOL    HW120932  10.675   5.385   9.396  0.1771  1.0765 -0.9055
 4564SOL    HW220933  10.640   5.256   9.324 -0.6758  0.7194  0.1263
 4565SOL     OW20934   4.251   7.879   3.156  0.0434  0.0329  0.0217
 4565SOL    HW120935   4.308   7.868   3.232  0.0539 -1.0585 -0.1388
 4565SOL    HW220936   4.269   7.969   3.127  2.1156 -0.4379 -0.3480
 4566SOL     OW20937   6.811   5.774  12.313  0.2821  0.0535  0.2783
 4566SOL    HW120938   6.853   5.819  12.240 -0.9546 -0.0738 -0.5212
 4566SOL    HW220939   6.877   5.776  12.383  1.7174 -0.3566 -1.0118
 4567SOL     OW20940   5.400   0.237  12.582 -0.0055 -0.5344 -0.1023
 4567SOL    HW120941   5.465   0.189  12.633  1.1502  1.1705  0.1051
 4567SOL    HW220942   5.451   0.290  12.521 -1.1569  0.9693  0.1619
 4568SOL     OW20943  10.315   4.374  10.325 -0.3377 -0.6476  0.3960
 4568SOL    HW120944  10.263   4.367  10.245 -1.5454 -2.1749  1.2637
 4568SOL    HW220945  10.321   4.468  10.341 -0.9230 -0.3610 -0.9566
 4569SOL     OW20946   7.628   7.206   7.214 -0.0184 -0.9161 -0.3063
 4569SOL    HW120947   7.653   7.226   7.305  3.0843 -0.1614 -1.1924
 4569SOL    HW220948   7.648   7.112   7.204  0.5102 -0.7973 -0.4204
 4570SOL     OW20949   3.973   3.609   0.324  0.5333 -0.2255 -0.2721
 4570SOL    HW120950   4.041   3.557   0.368  0.4796 -1.0728 -1.1699
 4570SOL    HW220951   4.004   3.617   0.234 -0.0921  0.2139 -0.4525
 4571SOL     OW20952   9.934   7.208  12.268  0.4378 -0.7644 -0.0637
 4571SOL    HW120953   9.990   7.283  12.249  0.6217 -0.6051  1.0722
 4571SOL    HW220954   9.874   7.204  12.193  2.8163 -1.8081 -2.0729
 4572SOL     OW20955  12.465   1.464  10.377 -0.0850  0.2657 -0.3201
 4572SOL    HW120956  12.541   1.407  10.373  0.4526  0.9262  0.1829
 4572SOL    HW220957  12.499   1.551  10.353 -0.6461  0.6032  0.0772
 4573SOL     OW20958   7.097   5.151   6.264  0.9587 -0.3498 -0.4096
 4573SOL    HW120959   7.003   5.144   6.252  0.5206  0.1315  2.2279
 4573SOL    HW220960   7.113   5.243   6.284  1.4761 -0.9715  2.4237
 4574SOL     OW20961  11.572  12.559   0.890  0.5488 -0.0661 -0.0722
 4574SOL    HW120962  11.598  12.535   0.801  1.2068 -0.4149  0.2074
 4574SOL    HW220963  11.653  12.555   0.941  1.0208  3.8082 -0.2010
 4575SOL     OW20964  10.281   0.629   3.994  0.5802  0.9528 -0.9210
 4575SOL    HW120965  10.325   0.612   4.077 -1.6402  2.2408  0.6314
 4575SOL    HW220966  10.325   0.572   3.931  0.4343 -2.3577  1.7071
 4576SOL     OW20967   5.056   6.326   2.830  0.1357 -0.0645 -0.4539
 4576SOL    HW120968   4.975   6.278   2.810 -0.7529  1.4437 -0.6766
 4576SOL    HW220969   5.058   6.397   2.766  1.5320  0.0759 -0.2868
 4577SOL     OW20970  10.926   1.243   5.369 -0.0505 -0.7198 -0.0260
 4577SOL    HW120971  10.922   1.147   5.367 -0.6867 -0.6953 -0.1634
 4577SOL    HW220972  10.837   1.270   5.390 -0.2448 -0.1148 -1.5124
 4578SOL     OW20973   9.893  10.231  10.201  0.3179  0.0702 -0.7025
 4578SOL    HW120974   9.935  10.174  10.265  0.3185  3.2849  2.4732
 4578SOL    HW220975   9.964  10.262  10.145  1.5620  1.8766  1.6973
 4579SOL     OW20976   5.171   8.120   0.833  0.3256  0.0214  0.5525
 4579SOL    HW120977   5.224   8.045   0.859  0.4991 -0.0254  0.0710
 4579SOL    HW220978   5.090   8.082   0.800 -0.5279  0.1300  2.4051
 4580SOL     OW20979   8.058   9.999  12.554 -0.3703  0.5051 -0.4098
 4580SOL    HW120980   8.002  10.032  12.485 -3.1229 -2.2601  0.2963
 4580SOL    HW220981   8.001   9.993  12.631  1.5756 -0.1129  1.0739
 4581SOL     OW20982   6.355   7.257  10.295 -0.3681 -0.2200  0.2313
 4581SOL    HW120983   6.431   7.300  10.334  0.4192  0.9667 -2.4033
 4581SOL    HW220984   6.292   7.250  10.367  2.0579 -1.0304  2.4736
 4582SOL     OW20985   0.124   3.273   7.446  0.1624  0.5970 -0.1456
 4582SOL    HW120986   0.195   3.336   7.459 -0.0006  0.5382  1.1572
 4582SOL    HW220987   0.106   3.239   7.533 -2.0345  1.2038 -0.3106
 4583SOL     OW20988   1.883   3.470   7.336  0.0725  0.0744  0.0946
 4583SOL    HW120989   1.872   3.418   7.415  0.4297  0.9630  0.7349
 4583SOL    HW220990   1.851   3.413   7.266  0.5848 -1.0584  0.7606
 4584SOL     OW20991   3.552  11.300  10.417 -0.1396  0.2578  0.0478
 4584SOL    HW120992   3.598  11.384  10.408 -1.0399  0.8907  1.1283
 4584SOL    HW220993   3.622  11.234  10.412  0.4334  0.9494 -2.2094
 4585SOL     OW20994   8.608   2.075   3.833  0.0583 -0.1180 -0.0047
 4585SOL    HW120995   8.597   2.148   3.773  2.0469  1.4436  1.3619
 4585SOL    HW220996   8.639   2.116   3.914 -1.7927 -2.1878  1.8825
 4586SOL     OW20997   1.888  11.511   2.521  0.0720 -0.6211 -0.1883
 4586SOL    HW120998   1.933  11.578   2.469  2.5493 -2.9003 -1.2315
 4586SOL    HW220999   1.944  11.500   2.599 -0.8970 -0.7426  0.5075
 4587SOL     OW21000   0.081   6.596   3.078 -0.1653  0.2749 -0.5447
 4587SOL    HW121001   0.070   6.501   3.077 -1.3841  0.3687  0.7451
 4587SOL    HW221002   0.081   6.622   2.986  1.5213 -1.0943 -0.9710
 4588SOL     OW21003   5.186   5.316   7.926  0.2356  0.2332  0.1977
 4588SOL    HW121004   5.282   5.315   7.917  0.3485 -3.5086  0.5605
 4588SOL    HW221005   5.171   5.331   8.019  0.4447  0.6606  0.1675
 4589SOL     OW21006   1.691   8.528   4.589 -0.6951  0.1234  0.0200
 4589SOL    HW121007   1.655   8.482   4.666 -0.3450 -0.9082 -0.4087
 4589SOL    HW221008   1.772   8.481   4.569  0.8712  2.3168  0.8686
 4590SOL     OW21009   5.852   2.566   6.419  0.9356  0.3890  0.0688
 4590SOL    HW121010   5.851   2.589   6.326 -0.1022 -0.5533 -0.1667
 4590SOL    HW221011   5.816   2.478   6.423  1.5986  0.1507  1.3118
 4591SOL     OW21012   9.903   6.250  12.561 -0.2464  0.2541  0.1080
 4591SOL    HW121013   9.906   6.154  12.561  0.2246  0.2607 -0.4432
 4591SOL    HW221014   9.897   6.274  12.654 -0.8301 -0.3166  0.2226
 4592SOL     OW21015   1.962   4.820   4.963  0.1310  0.6172 -0.8386
 4592SOL    HW121016   1.959   4.892   4.899  0.7730 -0.9186 -2.7228
 4592SOL    HW221017   1.874   4.781   4.959 -0.0573  0.9698 -0.2076
 4593SOL     OW21018   3.034   1.735   2.389 -0.2592 -0.6642  0.2291
 4593SOL    HW121019   2.952   1.776   2.417 -0.4258 -1.1960  0.5396
 4593SOL    HW221020   3.099   1.766   2.452  0.3928  1.9130 -1.5368
 4594SOL     OW21021   0.162   8.694  12.651 -0.2330 -0.2224 -0.2567
 4594SOL    HW121022   0.137   8.682  12.742  0.8266 -1.2427 -0.0796
 4594SOL    HW221023   0.080   8.710  12.605 -0.8596 -0.5021  0.7418
 4595SOL     OW21024   5.888   0.555   0.990  0.8143  0.0395 -0.2346
 4595SOL    HW121025   5.900   0.464   1.015  0.9631  0.5725  1.7516
 4595SOL    HW221026   5.793   0.565   0.980  0.6494  0.0208  1.0995
 4596SOL     OW21027   5.861   3.574   5.362 -0.5346  0.3800 -0.2221
 4596SOL    HW121028   5.816   3.642   5.312  0.6171  2.2628  1.1652
 4596SOL    HW221029   5.899   3.620   5.437  0.3118 -1.8101  0.7846
 4597SOL     OW21030   1.103   7.540   3.801  0.7005 -0.7204  0.5804
 4597SOL    HW121031   1.180   7.509   3.849  0.2366  1.4265  2.9204
 4597SOL    HW221032   1.105   7.635   3.811 -1.2873 -0.4472 -0.8981
 4598SOL     OW21033  12.201  11.333  10.242 -0.7185  0.2432  0.3218
 4598SOL    HW121034  12.210  11.399  10.311 -0.1914  0.5796 -0.0560
 4598SOL    HW221035  12.272  11.271  10.259 -0.3665  0.5167 -0.1111
 4599SOL     OW21036   4.593   6.582  10.842  0.4604  0.1906  0.0344
 4599SOL    HW121037   4.575   6.676  10.851 -1.1661 -0.0667 -0.1914
 4599SOL    HW221038   4.669   6.566  10.898  0.5098  1.5681  0.3923
 4600SOL     OW21039  10.054  12.418   9.797  0.1084  0.2420 -0.3122
 4600SOL    HW121040  10.035  12.503   9.837 -1.1136  0.3718 -1.1281
 4600SOL    HW221041  10.012  12.422   9.712  1.3202 -0.6345 -0.9806
 4601SOL     OW21042   3.185   9.935   9.351 -0.2328 -0.0545  0.1984
 4601SOL    HW121043   3.105   9.983   9.331 -0.4262 -0.9742 -1.3753
 4601SOL    HW221044   3.156   9.844   9.363  0.1667  0.1015  2.8242
 4602SOL     OW21045   8.583  10.218  10.465  0.4662  0.1180 -0.3475
 4602SOL    HW121046   8.552  10.221  10.374 -0.2560  0.1290 -0.1005
 4602SOL    HW221047   8.522  10.161  10.510  1.6794 -1.0974 -0.1791
 4603SOL     OW21048   7.445   0.204   3.050 -0.7324  0.4501 -0.8150
 4603SOL    HW121049   7.506   0.168   3.115 -1.3260 -0.3533 -0.6908
 4603SOL    HW221050   7.454   0.147   2.974 -1.3888  0.2680 -0.7648
 4604SOL     OW21051   0.544  12.236   4.083 -0.2068 -0.0387 -0.0519
 4604SOL    HW121052   0.603  12.165   4.058 -0.0050 -0.4376  1.4739
 4604SOL    HW221053   0.553  12.243   4.178 -2.4822 -0.0047  0.2255
 4605SOL     OW21054   0.619   6.559   5.511 -0.1599  0.4855  0.2589
 4605SOL    HW121055   0.644   6.545   5.419  2.2638  1.9746  0.6116
 4605SOL    HW221056   0.533   6.600   5.506 -0.8770 -1.0717 -1.2518
 4606SOL     OW21057  11.791   4.309   0.617  0.2695 -0.5470  0.0049
 4606SOL    HW121058  11.732   4.383   0.601  0.6810  0.0642  1.2726
 4606SOL    HW221059  11.864   4.324   0.558  1.0024  0.8162  1.2080
 4607SOL     OW21060   8.239   4.313   8.591  0.6097  0.3438  0.0687
 4607SOL    HW121061   8.169   4.296   8.527 -1.0213  1.8323  1.3544
 4607SOL    HW221062   8.222   4.251   8.662 -0.3114  1.6179  1.0098
 4608SOL     OW21063  11.958   1.007   5.366  0.4945  0.0413  0.0610
 4608SOL    HW121064  11.888   0.963   5.318 -0.1028  2.8982 -1.9891
 4608SOL    HW221065  12.021   1.032   5.299  0.9098  1.9822  1.0992
 4609SOL     OW21066  12.086   9.312   9.277 -0.0655  0.0196  0.1825
 4609SOL    HW121067  12.023   9.241   9.274  0.7632 -0.7157 -1.0992
 4609SOL    HW221068  12.050   9.379   9.218 -1.0038  0.8431  1.6360
 4610SOL     OW21069   8.276   6.076   3.947 -0.3149  0.2834 -0.2884
 4610SOL    HW121070   8.238   6.113   3.867  0.0390  1.0018 -0.1373
 4610SOL    HW221071   8.229   6.119   4.018  0.3322  0.7148 -0.1074
 4611SOL     OW21072   4.421  11.530  11.039  0.2525  0.2367 -0.1624
 4611SOL    HW121073   4.440  11.550  11.131  2.8653 -1.0048 -0.3321
 4611SOL    HW221074   4.427  11.614  10.994  1.9233  0.4741  0.4267
 4612SOL     OW21075  12.254   5.044  10.708  0.0695 -0.0586 -0.2060
 4612SOL    HW121076  12.175   4.991  10.707 -2.8702  3.8902  1.0180
 4612SOL    HW221077  12.282   5.045  10.799  0.5002  0.0410 -0.3341
 4613SOL     OW21078   2.745   4.090  10.427 -0.3301  0.0898 -0.7884
 4613SOL    HW121079   2.809   4.129  10.487  0.0976 -1.7979  0.0291
 4613SOL    HW221080   2.665   4.140  10.442  0.2597  0.8064  0.0491
 4614SOL     OW21081  10.999   5.269   0.415 -0.1469  0.1515  0.4037
 4614SOL    HW121082  10.982   5.189   0.365  0.6509 -0.0146  0.3752
 4614SOL    HW221083  10.923   5.279   0.472 -0.6448 -0.1613 -0.1945
 4615SOL     OW21084   1.582   2.166  10.283 -0.1450  0.7681  0.0868
 4615SOL    HW121085   1.603   2.249  10.327 -1.2443  0.5173  1.1454
 4615SOL    HW221086   1.571   2.103  10.355  2.3127 -0.7511 -0.7344
 4616SOL     OW21087   4.061   7.138   0.111  0.1963  0.1891  0.4087
 4616SOL    HW121088   4.027   7.225   0.092  0.7312 -0.0714 -2.1019
 4616SOL    HW221089   3.994   7.078   0.078  0.3788 -0.3514  0.9948
 4617SOL     OW21090   3.030   1.461   1.014 -0.1059  0.0769  0.2923
 4617SOL    HW121091   3.045   1.483   0.922 -0.2039  0.4218  0.3573
 4617SOL    HW221092   2.943   1.498   1.033  0.4213  1.0622  0.8510
 4618SOL     OW21093  10.425   3.077  11.091 -0.4182  0.7234 -0.0441
 4618SOL    HW121094  10.420   3.160  11.043 -1.4328  0.8676  0.2880
 4618SOL    HW221095  10.334   3.047  11.095 -0.3370  0.6270  1.6285
 4619SOL     OW21096   9.143  11.256   6.946  0.1357  0.9502  0.3180
 4619SOL    HW121097   9.209  11.301   6.998  2.2500 -2.0728  0.4983
 4619SOL    HW221098   9.182  11.248   6.859 -2.2126  3.4923 -1.1293
 4620SOL     OW21099  10.142   2.814   0.876 -0.0179 -0.7250  0.0295
 4620SOL    HW121100  10.047   2.808   0.861 -0.3726  1.2617  1.0035
 4620SOL    HW221101  10.164   2.733   0.921 -1.0786 -1.6058 -0.9776
 4621SOL     OW21102   7.827   0.484   1.857  0.1103 -0.2113  0.2795
 4621SOL    HW121103   7.775   0.536   1.918 -3.0522 -1.4160 -1.1761
 4621SOL    HW221104   7.875   0.549   1.805 -0.8741  1.0416  0.8935
 4622SOL     OW21105   0.518  12.575   0.412  0.3238  0.0947  0.2955
 4622SOL    HW121106   0.453  12.517   0.373  0.5029  0.6316 -0.8698
 4622SOL    HW221107   0.479  12.605   0.494 -0.9023  0.3964 -0.3812
 4623SOL     OW21108   5.090   7.202   7.824  0.2034 -0.2211 -0.4397
 4623SOL    HW121109   5.157   7.135   7.808 -0.6636 -1.1112 -0.4303
 4623SOL    HW221110   5.007   7.158   7.803 -0.5391  0.2475  1.3410
 4624SOL     OW21111  12.434   2.491   4.434  0.1023 -0.2200  0.0162
 4624SOL    HW121112  12.473   2.574   4.405 -0.2716  0.1651  0.5808
 4624SOL    HW221113  12.456   2.487   4.528 -0.7440 -0.2588  0.2203
 4625SOL     OW21114   6.297  10.352   2.942 -0.7823  0.6191 -0.0971
 4625SOL    HW121115   6.348  10.376   2.864 -0.2834  1.5740  0.5039
 4625SOL    HW221116   6.244  10.278   2.913  1.5703 -1.0246 -0.5336
 4626SOL     OW21117  11.958   4.661  12.421 -0.3665  0.2682  0.6047
 4626SOL    HW121118  12.035   4.623  12.379 -0.8054  0.1206 -0.0878
 4626SOL    HW221119  11.987   4.747  12.450 -0.1671  0.5577 -0.4063
 4627SOL     OW21120   8.402  11.495   1.081  0.0565  0.0729  0.1566
 4627SOL    HW121121   8.324  11.492   1.026  0.0165  0.1312  0.2102
 4627SOL    HW221122   8.467  11.443   1.033  0.2630  0.7522 -0.3209
 4628SOL     OW21123   6.222  12.162  11.170  0.3178 -0.0687  0.1805
 4628SOL    HW121124   6.274  12.234  11.135  0.2634 -0.2342 -0.2409
 4628SOL    HW221125   6.175  12.201  11.244  0.5935  0.2269  0.2028
 4629SOL     OW21126   7.350   6.235   8.107  0.1488 -0.3220 -0.3408
 4629SOL    HW121127   7.381   6.145   8.091 -2.1326 -1.3566  0.6046
 4629SOL    HW221128   7.278   6.247   8.045 -0.2872  0.4304  0.2998
 4630SOL     OW21129   4.609   7.748  11.117  0.6631 -0.6904 -0.5163
 4630SOL    HW121130   4.680   7.718  11.174  0.3454 -0.2785  0.1198
 4630SOL    HW221131   4.643   7.826  11.075 -0.5570  1.7566  2.5714
 4631SOL     OW21132   1.888   5.764  10.959 -0.0597  0.3272 -0.4535
 4631SOL    HW121133   1.825   5.727  11.021  0.9190  1.7475  1.5018
 4631SOL    HW221134   1.852   5.850  10.937  1.9862  2.0213  2.2348
 4632SOL     OW21135   3.246   2.898  12.281 -0.3695  0.1852 -0.0361
 4632SOL    HW121136   3.290   2.852  12.353 -0.0337 -0.5571 -0.7038
 4632SOL    HW221137   3.242   2.989  12.311  0.7412  0.0963  0.4666
 4633SOL     OW21138   6.467  10.268   0.419  0.4895  0.3556 -0.0495
 4633SOL    HW121139   6.405  10.316   0.365  0.9719  2.0432  0.8430
 4633SOL    HW221140   6.433  10.274   0.508  0.9797 -0.2934  0.1989
 4634SOL     OW21141  10.911   6.037   9.979 -0.6734 -0.3090  0.2491
 4634SOL    HW121142  10.875   6.118   9.944 -0.0838  0.5053  1.4473
 4634SOL    HW221143  10.953   5.995   9.904  0.8966  1.5589 -0.0113
 4635SOL     OW21144   9.239   9.330   7.932 -0.4555 -0.3359 -0.6050
 4635SOL    HW121145   9.247   9.412   7.981  1.9924 -0.5882 -0.4237
 4635SOL    HW221146   9.199   9.355   7.849 -2.0301  0.5817  0.3759
 4636SOL     OW21147  11.361   9.475   1.636  0.1536  0.6055  0.2708
 4636SOL    HW121148  11.300   9.422   1.687  0.6361 -0.0595  0.1539
 4636SOL    HW221149  11.347   9.564   1.669  1.0612  0.0968  2.1938
 4637SOL     OW21150  11.237   1.756   1.333  0.4402 -0.4726  0.1342
 4637SOL    HW121151  11.310   1.816   1.346 -0.2613  0.6363 -0.9257
 4637SOL    HW221152  11.260   1.705   1.255 -0.9062  1.5180 -1.6746
 4638SOL     OW21153   8.547   7.777  12.026 -0.0520  0.3157  0.4317
 4638SOL    HW121154   8.574   7.725  11.950 -1.1858  0.9681 -0.4437
 4638SOL    HW221155   8.453   7.791  12.014 -0.2543  0.4268  1.9725
 4639SOL     OW21156   0.680   1.890  10.598 -0.6685  0.3168 -0.1428
 4639SOL    HW121157   0.713   1.800  10.592  1.3290  0.7719  2.3156
 4639SOL    HW221158   0.589   1.884  10.571 -0.6087 -2.4631  0.0011
 4640SOL     OW21159   1.513   7.717   7.115 -0.1694  0.4693 -0.3307
 4640SOL    HW121160   1.554   7.671   7.042  0.4078 -0.0692  0.3195
 4640SOL    HW221161   1.457   7.783   7.074  0.4906  0.4700 -1.2439
 4641SOL     OW21162   2.834   8.289   5.381  0.1205  0.3722  0.4623
 4641SOL    HW121163   2.834   8.206   5.428  0.5131  0.2048  0.1710
 4641SOL    HW221164   2.787   8.271   5.300  0.7009  0.2857  0.1431
 4642SOL     OW21165   7.873   7.800   9.685  0.2257 -0.8916 -0.2096
 4642SOL    HW121166   7.815   7.865   9.647 -1.4321 -1.7102  0.8088
 4642SOL    HW221167   7.959   7.819   9.648 -0.7277  0.1983 -1.9613
 4643SOL     OW21168   3.612   2.277   3.063  0.5126 -0.1588  0.4862
 4643SOL    HW121169   3.537   2.305   3.011 -1.0598  0.0396  2.7005
 4643SOL    HW221170   3.670   2.235   3.000 -1.7337 -0.9168 -1.2416
 4644SOL     OW21171   7.399   1.320  10.336 -0.3585 -0.0818 -0.0008
 4644SOL    HW121172   7.368   1.267  10.263  0.0037 -2.0675  1.2178
 4644SOL    HW221173   7.443   1.258  10.394 -0.7637  1.3967  1.9858
 4645SOL     OW21174   5.637   9.440   7.984 -0.1254  0.4240  0.1948
 4645SOL    HW121175   5.664   9.418   7.895 -2.6103 -0.7730 -0.3575
 4645SOL    HW221176   5.545   9.467   7.975 -0.9028 -1.1168  2.5133
 4646SOL     OW21177   0.075   0.762   8.977  0.4116 -0.4938  0.9445
 4646SOL    HW121178   0.158   0.716   8.988  1.1026  0.7520  1.1265
 4646SOL    HW221179   0.100   0.854   8.969 -0.9516 -0.1137  0.9095
 4647SOL     OW21180   2.266   3.748   1.030 -0.5963  0.0251 -0.4408
 4647SOL    HW121181   2.194   3.797   1.069 -0.1830  0.1858  0.1308
 4647SOL    HW221182   2.311   3.812   0.975 -0.5138  0.0806 -0.3061
 4648SOL     OW21183  10.529   7.404   1.556 -0.5938 -0.4678  0.0409
 4648SOL    HW121184  10.551   7.401   1.649  1.4912 -2.8782 -0.4086
 4648SOL    HW221185  10.465   7.335   1.544  0.0219 -0.9599 -0.4781
 4649SOL     OW21186   7.730   6.054   2.476  0.0901  0.0430 -0.4779
 4649SOL    HW121187   7.729   6.135   2.425 -1.7008  0.4828  0.1567
 4649SOL    HW221188   7.768   5.989   2.417 -1.8658  0.5260 -2.4183
 4650SOL     OW21189  10.105   1.748   3.176  0.4615  0.0717 -0.4367
 4650SOL    HW121190  10.096   1.748   3.081 -0.2435 -1.6029 -0.4007
 4650SOL    HW221191  10.181   1.692   3.194 -0.7900 -1.5496  0.0379
 4651SOL     OW21192   5.279   2.976   9.463  0.0374  0.2050  0.3727
 4651SOL    HW121193   5.293   2.904   9.525 -0.2046 -0.6462 -0.5357
 4651SOL    HW221194   5.242   2.934   9.386 -0.0951  1.3153 -0.1852
 4652SOL     OW21195   4.688   2.677   5.145 -0.4082  0.4099  0.2124
 4652SOL    HW121196   4.734   2.718   5.218 -0.5257 -0.1604  0.6060
 4652SOL    HW221197   4.753   2.617   5.107 -0.0127  1.4175 -0.7759
 4653SOL     OW21198   3.188   6.727   5.629  0.0455  0.6001  0.1664
 4653SOL    HW121199   3.131   6.699   5.701  0.4787  0.8996  0.6407
 4653SOL    HW221200   3.173   6.664   5.560 -0.3019  0.2382  0.5682
 4654SOL     OW21201  10.621   4.095   6.741 -0.0894  0.0058 -0.1570
 4654SOL    HW121202  10.662   4.147   6.671 -1.4678  0.2264 -0.8271
 4654SOL    HW221203  10.656   4.007   6.727 -1.2203 -0.2193 -1.8977
 4655SOL     OW21204   1.681   0.336   8.728 -0.5302  0.3519 -0.1967
 4655SOL    HW121205   1.772   0.310   8.744 -0.8095  0.0090  1.0177
 4655SOL    HW221206   1.679   0.430   8.745 -0.7877  0.0216  1.9243
 4656SOL     OW21207   3.530   8.166   4.658 -0.1688  0.4236 -0.1928
 4656SOL    HW121208   3.500   8.242   4.608  0.0093 -0.3866 -1.5633
 4656SOL    HW221209   3.469   8.097   4.635  0.2932 -0.1377  0.2416
 4657SOL     OW21210   2.711   2.799   6.553  0.2031 -0.1481 -0.2229
 4657SOL    HW121211   2.754   2.861   6.494 -0.3339  0.6732  0.2288
 4657SOL    HW221212   2.700   2.720   6.501 -1.2047  0.8899 -1.5955
 4658SOL     OW21213   6.449  12.468  10.082 -0.9414 -0.4833  0.8768
 4658SOL    HW121214   6.386  12.396  10.094  0.1854 -1.6021  0.2821
 4658SOL    HW221215   6.408  12.525  10.017 -1.1256 -1.4730  0.1080
 4659SOL     OW21216   1.826   6.860   9.473 -0.1077 -0.0955  0.2750
 4659SOL    HW121217   1.890   6.873   9.543  0.4425 -0.6173 -0.1158
 4659SOL    HW221218   1.774   6.785   9.502 -1.7877  1.4123  1.4559
 4660SOL     OW21219  10.513   9.021   1.589  0.1741  0.5700 -0.1417
 4660SOL    HW121220  10.436   9.003   1.644 -0.4862 -0.7140 -1.3963
 4660SOL    HW221221  10.484   8.999   1.500  2.1516 -0.4832 -0.5918
 4661SOL     OW21222   7.171   9.471  11.535  0.3563  0.3863  0.4372
 4661SOL    HW121223   7.206   9.418  11.463 -0.0709 -0.6733  0.9873
 4661SOL    HW221224   7.144   9.552  11.493 -1.7452 -0.9500 -1.0084
 4662SOL     OW21225   6.707   2.135  10.813 -0.0140  0.0978  0.5498
 4662SOL    HW121226   6.686   2.071  10.881  1.1291 -1.1511 -0.2215
 4662SOL    HW221227   6.793   2.170  10.837  0.4514 -0.4331 -0.2808
 4663SOL     OW21228  11.877   0.574   4.921 -0.0880  0.1474  0.6398
 4663SOL    HW121229  11.782   0.570   4.929 -0.2359  1.8703  0.0122
 4663SOL    HW221230  11.895   0.541   4.833  0.1486 -2.5453  1.6103
 4664SOL     OW21231   4.214  10.984   9.947  0.3378  0.3144  0.7667
 4664SOL    HW121232   4.137  11.009   9.998  0.5727  1.0678  0.7699
 4664SOL    HW221233   4.258  11.067   9.928  1.1956 -0.1071  0.8458
 4665SOL     OW21234   7.206  11.247   6.619  0.0446 -0.1353  0.2526
 4665SOL    HW121235   7.269  11.198   6.566  0.7648  0.0042  0.9553
 4665SOL    HW221236   7.164  11.307   6.558 -1.1776 -1.9220 -0.7243
 4666SOL     OW21237  10.787   3.979   4.010 -0.0475  0.0200 -0.2611
 4666SOL    HW121238  10.826   4.023   3.935 -2.4059  0.9405 -1.0551
 4666SOL    HW221239  10.756   3.895   3.974  0.2104 -0.2270  0.0870
 4667SOL     OW21240   0.633  10.842  11.588  0.3994 -0.4916  0.4373
 4667SOL    HW121241   0.672  10.909  11.532 -1.1508  0.2713  0.2051
 4667SOL    HW221242   0.691  10.767  11.580  1.4756  0.3790 -0.3329
 4668SOL     OW21243  10.773  11.344   1.885 -0.0291 -0.5066 -0.2373
 4668SOL    HW121244  10.688  11.302   1.872 -1.3966  2.4159 -1.5120
 4668SOL    HW221245  10.760  11.401   1.961  0.1161  1.3889 -1.5649
 4669SOL     OW21246   2.554   1.852   5.754 -0.4950 -0.0642 -0.1069
 4669SOL    HW121247   2.558   1.941   5.789  1.1854 -0.4963  0.9274
 4669SOL    HW221248   2.507   1.802   5.821  1.3618 -0.5685  0.8984
 4670SOL     OW21249  11.450  11.024   4.543 -0.4330 -0.5791 -0.0081
 4670SOL    HW121250  11.487  10.939   4.568 -2.1879 -1.4315 -0.1843
 4670SOL    HW221251  11.374  11.003   4.489 -0.8411  1.1149 -0.1626
 4671SOL     OW21252   4.150   0.389   2.574  0.3722  0.0535  0.1309
 4671SOL    HW121253   4.086   0.390   2.645 -0.2834  2.3734 -0.4006
 4671SOL    HW221254   4.097   0.378   2.495  0.7606  0.5883 -0.2090
 4672SOL     OW21255   4.232   5.720   3.113  0.3694  0.0326  0.1716
 4672SOL    HW121256   4.151   5.713   3.064  0.4977  0.5950 -0.1266
 4672SOL    HW221257   4.219   5.796   3.170  0.7109  0.1727  0.0655
 4673SOL     OW21258   9.887   9.884   0.599  0.0913 -0.3213  0.1715
 4673SOL    HW121259   9.884   9.789   0.604  2.2415 -0.4867 -0.7029
 4673SOL    HW221260   9.962   9.909   0.652 -0.6327  0.9258  0.6497
 4674SOL     OW21261  10.669   5.759  10.461  0.0970  0.3223  0.4910
 4674SOL    HW121262  10.689   5.743  10.554  1.3294 -0.9301  0.0436
 4674SOL    HW221263  10.605   5.691  10.438  1.8812 -1.1830 -0.2453
 4675SOL     OW21264   5.854   8.443   0.951 -0.5348  0.0647  0.7682
 4675SOL    HW121265   5.826   8.353   0.967  0.0044 -0.5288 -1.3363
 4675SOL    HW221266   5.783   8.496   0.987 -0.0470 -1.0736  3.6887
 4676SOL     OW21267   6.250   2.560   1.255 -0.7517 -0.2619  0.2948
 4676SOL    HW121268   6.172   2.525   1.212  0.0018  0.1802 -1.5025
 4676SOL    HW221269   6.245   2.654   1.241 -0.2330 -0.1620  0.7603
 4677SOL     OW21270   5.359  12.253   0.779  0.3802 -0.5384  0.2436
 4677SOL    HW121271   5.381  12.312   0.707 -0.3999 -0.6081 -0.0647
 4677SOL    HW221272   5.267  12.232   0.765  0.3346 -0.8946  1.0220
 4678SOL     OW21273   5.934   1.598   8.879  0.5238 -0.5007 -0.0350
 4678SOL    HW121274   5.855   1.560   8.918 -1.6177  0.6279 -2.9137
 4678SOL    HW221275   5.982   1.523   8.845  0.3777 -1.1501  1.1312
 4679SOL     OW21276   1.828   3.315   0.646 -0.0849 -0.1973 -0.2995
 4679SOL    HW121277   1.773   3.252   0.693  0.2609  0.3335  0.8531
 4679SOL    HW221278   1.853   3.379   0.712  0.2559  0.6945 -1.2709
 4680SOL     OW21279  10.598   4.759   0.034  0.0591  0.2980 -0.1254
 4680SOL    HW121280  10.542   4.730   0.106 -0.7675  2.2746  0.0963
 4680SOL    HW221281  10.648   4.681   0.009 -0.8591 -0.8487  1.4528
 4681SOL     OW21282   2.822   9.821   5.989  0.0214 -0.0996  0.0428
 4681SOL    HW121283   2.769   9.764   6.044  1.6828 -0.0105  1.8531
 4681SOL    HW221284   2.851   9.765   5.917 -1.8267 -0.3391 -0.5587
 4682SOL     OW21285   1.580   0.532  12.247 -0.6982 -0.0251  0.1809
 4682SOL    HW121286   1.542   0.573  12.169  0.3410  1.8902  0.6316
 4682SOL    HW221287   1.627   0.456  12.212 -1.7746 -0.2714 -0.8179
 4683SOL     OW21288  12.389   1.160   8.272  0.3850  0.0012  0.6020
 4683SOL    HW121289  12.306   1.112   8.279  0.7000 -0.6179  0.1331
 4683SOL    HW221290  12.426   1.157   8.361 -0.0450  0.1950  0.7919
 4684SOL     OW21291   1.607  12.060   9.660 -0.1898  0.1340 -0.2641
 4684SOL    HW121292   1.520  12.088   9.630  0.3950  1.3798 -0.8893
 4684SOL    HW221293   1.601  12.063   9.756 -0.9094 -0.0387 -0.2985
 4685SOL     OW21294   8.071   9.726   2.089 -0.2246 -0.5535  0.5269
 4685SOL    HW121295   8.163   9.750   2.076 -0.9585  1.2795 -2.2555
 4685SOL    HW221296   8.035   9.797   2.142 -0.3650 -0.4554  0.3013
 4686SOL     OW21297   5.585  12.077   0.736  0.4691 -0.4762 -0.2880
 4686SOL    HW121298   5.503  12.125   0.748 -0.0732 -1.4276 -0.0659
 4686SOL    HW221299   5.593  12.025   0.816  0.6799 -1.2642 -0.8089
 4687SOL     OW21300   0.200  10.424   6.662  0.3821 -0.1115  0.3088
 4687SOL    HW121301   0.112  10.386   6.667  0.8779 -1.1555  2.5074
 4687SOL    HW221302   0.184  10.518   6.649 -1.0341 -0.3445  0.1634
 4688SOL     OW21303   8.214  12.342   5.767 -0.2038  0.1928  0.2249
 4688SOL    HW121304   8.243  12.386   5.847 -2.1256  2.9129 -0.4170
 4688SOL    HW221305   8.218  12.410   5.700  1.4813 -2.0310 -2.1278
 4689SOL     OW21306  12.024   8.775  10.951  0.2355 -0.1970  0.1825
 4689SOL    HW121307  11.969   8.703  10.922 -2.3850  0.9504  1.9145
 4689SOL    HW221308  12.047   8.754  11.041 -0.4616  1.0230  0.6730
 4690SOL     OW21309   6.894   2.542   9.581 -0.4927 -0.1345  0.0438
 4690SOL    HW121310   6.987   2.536   9.563  0.1143  0.0405  2.6758
 4690SOL    HW221311   6.851   2.508   9.503  1.8415 -3.4216  0.0293
 4691SOL     OW21312   8.334   1.308   2.853 -0.1948  0.3938 -0.4504
 4691SOL    HW121313   8.270   1.378   2.840 -0.0143  1.1191  1.9715
 4691SOL    HW221314   8.419   1.351   2.842 -0.0716 -0.2634 -2.3295
 4692SOL     OW21315   4.404  12.686   0.511 -0.1239  0.1621  0.1252
 4692SOL    HW121316   4.462  12.759   0.491  1.3135 -0.7854  0.6113
 4692SOL    HW221317   4.464  12.614   0.534 -1.5003 -0.9151  0.4767
 4693SOL     OW21318   3.391   5.791  10.466 -0.3322 -0.0197  0.4304
 4693SOL    HW121319   3.478   5.764  10.437  0.1918  0.7757  1.2294
 4693SOL    HW221320   3.360   5.850  10.396 -0.9251 -1.5510 -0.6522
 4694SOL     OW21321   2.590   2.910   5.978  0.4624  0.4410  0.4058
 4694SOL    HW121322   2.586   2.858   5.898  0.5055  0.4922  0.3703
 4694SOL    HW221323   2.668   2.878   6.024 -0.0728 -0.2296  0.8736
 4695SOL     OW21324  10.321   9.408   2.330 -0.2873 -0.3431 -0.2211
 4695SOL    HW121325  10.294   9.500   2.328 -1.1259 -0.5125  1.8245
 4695SOL    HW221326  10.300   9.376   2.242 -0.5435  1.2429 -0.7802
 4696SOL     OW21327  11.501   6.776   2.665  0.4354  0.9595  0.4122
 4696SOL    HW121328  11.424   6.788   2.609  0.0977 -0.5349  0.5237
 4696SOL    HW221329  11.532   6.865   2.681 -2.4813  1.7969  2.0812
 4697SOL     OW21330  11.687   2.849   6.190 -0.1194  0.9379  0.2503
 4697SOL    HW121331  11.732   2.836   6.106  1.0601  0.3502  0.9492
 4697SOL    HW221332  11.622   2.779   6.193 -0.4595  1.2121 -0.3431
 4698SOL     OW21333   4.779   7.907   0.134 -0.0321 -0.0049 -0.1562
 4698SOL    HW121334   4.724   7.947   0.067  1.4831  1.4540 -0.6009
 4698SOL    HW221335   4.823   7.834   0.089 -1.5623 -1.2094  0.2162
 4699SOL     OW21336   8.475   4.302   4.272 -0.0970 -0.3291 -0.0159
 4699SOL    HW121337   8.446   4.388   4.242  1.0978 -0.2629 -1.0569
 4699SOL    HW221338   8.460   4.303   4.367  1.9586  1.8951  0.3668
 4700SOL     OW21339   4.671   5.314   6.521 -0.2758 -0.5313 -0.4391
 4700SOL    HW121340   4.630   5.242   6.568 -1.6788  0.9271  0.7105
 4700SOL    HW221341   4.601   5.351   6.467 -0.4083  1.5564  1.0008
 4701SOL     OW21342   5.095   1.997   9.746  0.8588 -0.1798  0.1732
 4701SOL    HW121343   5.175   1.953   9.717  0.5623 -1.6572  1.4664
 4701SOL    HW221344   5.089   1.977   9.839 -1.8729 -1.5622 -0.1898
 4702SOL     OW21345   0.988   6.673   7.487 -0.0742  0.7556 -0.9613
 4702SOL    HW121346   1.037   6.606   7.440 -0.1196  0.3078 -0.3686
 4702SOL    HW221347   0.991   6.647   7.579 -0.4759  1.3175 -0.7790
 4703SOL     OW21348   0.965   2.700   8.977 -0.1456 -0.2034 -0.8944
 4703SOL    HW121349   0.916   2.746   9.045 -1.5828 -0.9030 -1.4166
 4703SOL    HW221350   0.959   2.607   9.001  1.3002 -0.2916 -0.7576
 4704SOL     OW21351  10.326  10.382   0.106 -0.3689  0.1464  0.4981
 4704SOL    HW121352  10.276  10.437   0.166 -0.3045  0.0187  0.6670
 4704SOL    HW221353  10.267  10.368   0.032 -0.2419  0.7724  0.2735
 4705SOL     OW21354   7.846   8.261   7.912  0.0485  0.0748  0.2249
 4705SOL    HW121355   7.863   8.276   7.818  0.1004  2.0805  0.5004
 4705SOL    HW221356   7.888   8.335   7.955 -1.3032  0.0184  1.7118
 4706SOL     OW21357   4.062  10.879   0.838 -0.9097 -0.0787 -0.2446
 4706SOL    HW121358   4.027  10.801   0.880 -0.6787  0.6076  1.2743
 4706SOL    HW221359   3.991  10.911   0.783 -1.4687 -0.6012  0.1632
 4707SOL     OW21360   6.273  10.190   0.183  0.3589 -0.3698  0.1235
 4707SOL    HW121361   6.316  10.274   0.167  1.2368 -0.6520  0.8657
 4707SOL    HW221362   6.300  10.135   0.109 -0.4015  0.0568 -0.4815
 4708SOL     OW21363   2.607   7.286  11.464 -0.3733 -0.0553  0.4317
 4708SOL    HW121364   2.558   7.336  11.399 -1.0177 -2.9022 -1.4246
 4708SOL    HW221365   2.587   7.330  11.547 -0.5503  2.9240 -1.0504
 4709SOL     OW21366   8.941   6.264   4.050 -0.1976 -0.5725  0.1364
 4709SOL    HW121367   9.032   6.259   4.080  0.1047  0.3215 -0.6131
 4709SOL    HW221368   8.946   6.253   3.956 -0.9767 -1.5447  0.1973
 4710SOL     OW21369  12.311   4.984  10.985  0.4455  0.0379 -0.2061
 4710SOL    HW121370  12.307   4.889  10.985  1.0541  0.0036  0.0989
 4710SOL    HW221371  12.392   5.004  11.033  0.0220  0.7199  0.2375
 4711SOL     OW21372  10.602   4.746   5.428  0.3296 -0.0011 -0.0464
 4711SOL    HW121373  10.586   4.664   5.383 -1.6833  0.7597 -0.8366
 4711SOL    HW221374  10.534   4.752   5.495 -1.8996  2.5411 -2.3025
 4712SOL     OW21375   0.262   8.178   9.845 -0.3689  0.2239  0.4371
 4712SOL    HW121376   0.273   8.269   9.872  0.0998 -0.1782  1.6637
 4712SOL    HW221377   0.215   8.137   9.918  0.4311 -0.7745  0.4086
 4713SOL     OW21378   3.422   6.724   1.874 -0.0804 -0.4728  0.3513
 4713SOL    HW121379   3.401   6.633   1.894 -2.6380 -0.4753 -1.8098
 4713SOL    HW221380   3.339   6.762   1.845  0.7003  2.8358  1.9344
 4714SOL     OW21381   9.348   4.358   4.923  0.5630 -0.4434 -0.4095
 4714SOL    HW121382   9.363   4.287   4.985  0.0034 -0.3455 -0.1569
 4714SOL    HW221383   9.394   4.433   4.959 -1.4553  0.1971  1.0008
 4715SOL     OW21384   7.650  10.967   6.086 -0.5776 -0.2215  0.2232
 4715SOL    HW121385   7.567  10.982   6.039 -1.3984 -0.3934  1.5780
 4715SOL    HW221386   7.659  10.871   6.087 -0.3477 -0.2024  0.0764
 4716SOL     OW21387   3.465   8.413   8.002 -0.5424  0.0575 -0.0248
 4716SOL    HW121388   3.372   8.392   8.007 -0.4884  0.1510  2.0768
 4716SOL    HW221389   3.510   8.335   8.036 -0.0238  0.9920  1.5486
 4717SOL     OW21390   7.834   2.610  10.497 -0.1021 -0.6830  0.2285
 4717SOL    HW121391   7.844   2.677  10.563 -1.7223 -0.6133  0.4553
 4717SOL    HW221392   7.904   2.547  10.515  0.8616  0.4533  0.5765
 4718SOL     OW21393   0.382   0.365   7.049  0.5734  0.3551 -0.4761
 4718SOL    HW121394   0.385   0.301   6.978  0.6324 -0.6555  0.4171
 4718SOL    HW221395   0.289   0.375   7.069  0.6056  0.0407 -0.1673
 4719SOL     OW21396   2.685   2.960   5.410 -0.2871  0.4781 -0.4858
 4719SOL    HW121397   2.631   2.899   5.459  1.9657 -1.0483  0.2400
 4719SOL    HW221398   2.713   2.911   5.333  1.7746  0.4325  0.2404
 4720SOL     OW21399  10.464   9.858   2.699 -0.1221 -0.2456 -0.1251
 4720SOL    HW121400  10.397   9.915   2.661 -1.2134 -1.3884 -0.0078
 4720SOL    HW221401  10.510   9.823   2.623 -0.4716 -0.3864 -0.2771
 4721SOL     OW21402   7.206  12.386   1.373  0.2657  0.8452  0.0674
 4721SOL    HW121403   7.172  12.469   1.407 -1.9675  0.0807 -0.1405
 4721SOL    HW221404   7.171  12.380   1.284 -2.4408 -1.7108  1.1252
 4722SOL     OW21405   0.475   0.767   1.318 -0.0130  0.2858 -0.3264
 4722SOL    HW121406   0.508   0.846   1.276  1.9211 -0.7184 -0.7889
 4722SOL    HW221407   0.507   0.773   1.408  0.3668 -0.0937 -0.4347
 4723SOL     OW21408  10.804   9.723   9.777 -0.1859 -0.5236 -0.2516
 4723SOL    HW121409  10.782   9.787   9.709  0.3352  0.0433  0.0908
 4723SOL    HW221410  10.873   9.669   9.738  0.7277  0.3473  0.0965
 4724SOL     OW21411  12.004   8.974  12.220  0.0931 -0.0221 -0.3548
 4724SOL    HW121412  12.089   9.019  12.223  0.1294 -0.0571 -0.7240
 4724SOL    HW221413  12.026   8.883  12.201  0.1860 -0.7360  2.6855
 4725SOL     OW21414   0.498   6.829   2.151  0.3265 -0.1189  1.1362
 4725SOL    HW121415   0.429   6.805   2.213  0.1922  1.7091  1.7502
 4725SOL    HW221416   0.548   6.898   2.195  0.2187  1.2625 -0.7639
 4726SOL     OW21417   3.263   9.385   7.413  0.2676  0.0872  0.4269
 4726SOL    HW121418   3.353   9.366   7.439  0.4160  0.5035  0.2320
 4726SOL    HW221419   3.271   9.420   7.324 -0.1753 -0.8090  0.0234
 4727SOL     OW21420  10.654   8.249   9.241 -0.4246  0.3475  0.2568
 4727SOL    HW121421  10.660   8.163   9.283 -0.0485 -0.4224 -1.2813
 4727SOL    HW221422  10.681   8.311   9.308  1.6804 -0.9583  0.7252
 4728SOL     OW21423  10.895   1.969   5.793 -0.4428  0.0097 -0.1819
 4728SOL    HW121424  10.957   2.020   5.741 -0.1787  1.3591  1.3690
 4728SOL    HW221425  10.809   2.003   5.769 -0.4407 -0.4266 -0.8249
 4729SOL     OW21426  12.167   6.008   6.073 -0.2045  0.2845 -0.3780
 4729SOL    HW121427  12.252   6.030   6.036  0.2783 -0.7900  0.0558
 4729SOL    HW221428  12.104   6.052   6.015  0.6202  0.9581 -0.7963
 4730SOL     OW21429   2.326   0.892   0.485  0.2722  0.0886 -0.0838
 4730SOL    HW121430   2.283   0.964   0.439 -0.5092  1.0803  2.0926
 4730SOL    HW221431   2.295   0.813   0.439 -1.9544  0.9147 -0.1158
 4731SOL     OW21432   1.710   2.043  12.152  0.4271  0.1835 -0.8038
 4731SOL    HW121433   1.780   2.046  12.217  0.7426 -1.1010 -1.0733
 4731SOL    HW221434   1.678   2.133  12.149 -0.5427  0.0283  2.1330
 4732SOL     OW21435  12.210   6.492   1.479  0.0040  0.4936 -0.2286
 4732SOL    HW121436  12.115   6.484   1.473  0.0766 -1.0902  0.2569
 4732SOL    HW221437  12.241   6.402   1.486  1.4551  1.0355  0.8800
 4733SOL     OW21438   7.144   0.774  11.171 -0.3981  0.0909  0.4696
 4733SOL    HW121439   7.113   0.692  11.209 -1.0339  0.1153  0.0136
 4733SOL    HW221440   7.239   0.768  11.174 -0.4197  0.1920  2.2970
 4734SOL     OW21441  12.233   4.532   8.647  0.0662  0.1436 -0.8065
 4734SOL    HW121442  12.167   4.565   8.708  0.6018  0.1061 -0.1997
 4734SOL    HW221443  12.267   4.610   8.603  1.4433  0.4515  0.7372
 4735SOL     OW21444   1.836   2.675  10.689  0.6698  0.0494  0.4578
 4735SOL    HW121445   1.806   2.597  10.643 -0.1929  0.6814 -0.0777
 4735SOL    HW221446   1.853   2.645  10.779  2.8566 -1.3145 -0.3262
 4736SOL     OW21447   8.176   3.696   9.309  0.2275 -0.1007  0.4981
 4736SOL    HW121448   8.230   3.740   9.374 -1.1177  0.7851  1.0476
 4736SOL    HW221449   8.234   3.631   9.270  1.6234  0.6784  1.2034
 4737SOL     OW21450   4.872   0.419  11.968 -0.5319 -0.1820  0.2446
 4737SOL    HW121451   4.863   0.490  12.032  0.0683  0.1369 -0.0139
 4737SOL    HW221452   4.806   0.437  11.902 -1.5478 -0.8309  1.0522
 4738SOL     OW21453   0.725  10.679   0.487 -0.3014 -0.5557 -0.5114
 4738SOL    HW121454   0.781  10.604   0.467 -2.0116 -1.5597 -1.7753
 4738SOL    HW221455   0.750  10.746   0.423  0.0051 -0.6815 -0.5255
 4739SOL     OW21456   7.352  12.546  11.645 -0.0186 -0.3418  0.5003
 4739SOL    HW121457   7.343  12.631  11.688 -0.3396 -0.1463  0.0619
 4739SOL    HW221458   7.355  12.483  11.716 -1.8566 -0.1452  0.8122
 4740SOL     OW21459  10.121   3.778   1.776  0.3630 -0.0343  0.0948
 4740SOL    HW121460  10.051   3.739   1.723  1.1755 -1.2220 -0.1527
 4740SOL    HW221461  10.127   3.868   1.745 -0.6913 -0.0650 -0.2516
 4741SOL     OW21462   5.952   5.132  10.536 -0.2059 -0.5009  0.4231
 4741SOL    HW121463   5.956   5.108  10.443  0.9169  0.5413  0.1837
 4741SOL    HW221464   6.027   5.089  10.576 -1.9739 -2.9528  1.4099
 4742SOL     OW21465   2.335   5.881   9.438  0.9812  0.3567 -0.0433
 4742SOL    HW121466   2.420   5.840   9.454  0.1210 -1.4085  0.2890
 4742SOL    HW221467   2.335   5.900   9.345  1.5361 -0.1110 -0.1442
 4743SOL     OW21468   9.473   0.618   2.687 -0.0252 -0.5273  0.3505
 4743SOL    HW121469   9.479   0.691   2.748  0.3267 -1.2918  1.2645
 4743SOL    HW221470   9.559   0.576   2.693  0.1080 -0.4694 -0.8783
 4744SOL     OW21471   0.162   4.241  10.514  0.1233 -0.5145 -0.1395
 4744SOL    HW121472   0.241   4.236  10.459  1.5752  2.8183  1.3661
 4744SOL    HW221473   0.194   4.233  10.604 -1.4443 -0.3312  0.4725
 4745SOL     OW21474   0.828   5.626   5.505  0.3645 -0.1621 -0.3923
 4745SOL    HW121475   0.761   5.693   5.520 -0.3768 -0.9182 -0.2779
 4745SOL    HW221476   0.863   5.608   5.593 -0.2284 -0.7261 -0.2622
 4746SOL     OW21477   8.797   5.882   9.193 -0.2152 -0.1531  0.2124
 4746SOL    HW121478   8.796   5.795   9.152 -1.8002 -0.2926  0.4764
 4746SOL    HW221479   8.888   5.911   9.185  0.2385 -1.6157 -0.3396
 4747SOL     OW21480   6.982  10.686   9.954 -0.2760  0.0023 -0.9685
 4747SOL    HW121481   6.900  10.701  10.002  0.2851  0.9224 -0.2673
 4747SOL    HW221482   7.047  10.668  10.022  0.2689  0.0719 -1.4596
 4748SOL     OW21483   1.435   1.821   3.226  0.4407 -0.6937 -0.5267
 4748SOL    HW121484   1.464   1.771   3.150 -0.5138 -1.8189 -0.1802
 4748SOL    HW221485   1.339   1.824   3.217  0.4754  1.4166 -0.7312
 4749SOL     OW21486   4.198   5.748   6.669 -0.5604  0.3397 -0.0986
 4749SOL    HW121487   4.163   5.720   6.754  1.1199  2.1281  1.2662
 4749SOL    HW221488   4.261   5.680   6.646 -0.1425  0.4245  0.7263
 4750SOL     OW21489  12.428   5.900   9.516 -0.1244  0.0154 -0.4914
 4750SOL    HW121490  12.351   5.958   9.511 -0.9784 -0.7544  2.0011
 4750SOL    HW221491  12.491   5.948   9.570 -0.5685 -1.0029  1.0116
 4751SOL     OW21492   2.841   2.210   0.596 -0.1621  0.5033 -0.1857
 4751SOL    HW121493   2.830   2.203   0.691 -1.4254  0.4378 -0.3154
 4751SOL    HW221494   2.928   2.248   0.585  0.2912 -0.1555  0.9719
 4752SOL     OW21495   3.475  11.870   3.399  0.5204 -0.3204  0.0427
 4752SOL    HW121496   3.515  11.955   3.376 -1.2899  0.6422  0.3035
 4752SOL    HW221497   3.498  11.858   3.491  0.5945  0.0022  0.0697
 4753SOL     OW21498   3.681   1.878   0.788 -0.5083  0.0810  0.3583
 4753SOL    HW121499   3.649   1.964   0.759 -0.8608  0.0602  0.6813
 4753SOL    HW221500   3.602   1.826   0.800 -0.2723 -0.4074 -0.1988
 4754SOL     OW21501  10.620   2.122   3.228  0.4133 -1.1223 -0.5404
 4754SOL    HW121502  10.580   2.209   3.233  0.1217 -1.0578 -2.7837
 4754SOL    HW221503  10.713   2.136   3.246  0.2776 -0.4233 -0.3849
 4755SOL     OW21504   9.368   3.063   4.630  0.2028  0.2627 -0.7781
 4755SOL    HW121505   9.302   3.018   4.683  1.4535  2.0280  2.5774
 4755SOL    HW221506   9.326   3.146   4.606  1.0236  1.3257  1.2394
 4756SOL     OW21507   2.687  10.724  10.696 -0.1474 -0.3227  0.1420
 4756SOL    HW121508   2.724  10.749  10.611 -1.4131  0.2895 -0.2439
 4756SOL    HW221509   2.745  10.766  10.760 -0.0821  0.5237 -0.4523
 4757SOL     OW21510   6.289  11.015   2.761 -0.2938 -0.0434 -0.2608
 4757SOL    HW121511   6.219  11.078   2.777  0.2438  0.4083  0.3610
 4757SOL    HW221512   6.297  11.012   2.666 -3.4056 -2.6030 -0.6375
 4758SOL     OW21513   3.507   8.962   7.186 -0.4477 -0.0723  0.4667
 4758SOL    HW121514   3.425   8.992   7.148 -1.1686 -1.3623  0.9322
 4758SOL    HW221515   3.536   8.890   7.129 -0.6935 -0.9391  1.3994
 4759SOL     OW21516   0.318   4.343   2.160 -0.0664  0.3083  0.0059
 4759SOL    HW121517   0.381   4.399   2.116  0.8733 -1.2764 -0.7391
 4759SOL    HW221518   0.317   4.375   2.251  0.8078  1.1963 -0.2779
 4760SOL     OW21519  12.154  10.540   6.308 -0.4959  0.1131  0.2876
 4760SOL    HW121520  12.224  10.590   6.352  0.2488 -0.2175 -0.4942
 4760SOL    HW221521  12.130  10.473   6.371 -0.9998  1.0047  1.0673
 4761SOL     OW21522   8.574  12.710   7.897 -0.8485  0.0608  0.3501
 4761SOL    HW121523   8.480  12.696   7.891 -0.8266 -0.1803  0.5792
 4761SOL    HW221524   8.602  12.725   7.807 -1.0078 -0.4823  0.2092
 4762SOL     OW21525   6.067   0.389  10.670  0.5117  0.3892  0.2044
 4762SOL    HW121526   6.049   0.299  10.642  0.3360  0.1350  1.1159
 4762SOL    HW221527   6.130   0.380  10.742  1.6229  1.0818 -0.6454
 4763SOL     OW21528   0.889   8.819   9.330 -0.1315 -0.0769 -0.1810
 4763SOL    HW121529   0.867   8.726   9.334 -0.6882  0.0147 -0.8770
 4763SOL    HW221530   0.853   8.855   9.412  0.9003 -0.6221  0.5316
 4764SOL     OW21531  11.675   6.986   7.809  0.1069 -0.2832  0.3779
 4764SOL    HW121532  11.591   6.967   7.850 -0.5155  1.2916 -0.1137
 4764SOL    HW221533  11.718   7.047   7.870  0.4149 -0.2164  0.0931
 4765SOL     OW21534   7.931   8.068   6.160  1.1254  0.1440 -0.3535
 4765SOL    HW121535   7.925   7.990   6.105 -0.8279  0.5007 -0.7208
 4765SOL    HW221536   7.955   8.138   6.100 -1.3400  0.5993 -0.9092
 4766SOL     OW21537   5.733  12.575   8.729 -0.3132  0.3888 -0.0908
 4766SOL    HW121538   5.738  12.667   8.752 -1.0948  0.4600 -0.1515
 4766SOL    HW221539   5.662  12.541   8.784  0.2807 -0.2843  0.2769
 4767SOL     OW21540   5.897   9.008   4.207  0.0446  0.7409 -0.1848
 4767SOL    HW121541   5.845   8.984   4.130 -0.1466  1.3938 -0.2604
 4767SOL    HW221542   5.910   9.102   4.199  1.7672  0.5091 -0.5007
 4768SOL     OW21543   3.026  11.837  11.963 -0.4565  0.1579  0.3573
 4768SOL    HW121544   3.109  11.791  11.962 -0.4679  0.1152 -1.4078
 4768SOL    HW221545   3.029  11.890  12.043  1.9373  1.3293 -0.4003
 4769SOL     OW21546   9.543   0.466   6.718 -0.5428 -0.0799  0.1164
 4769SOL    HW121547   9.528   0.376   6.690  0.0614 -0.7069  1.6871
 4769SOL    HW221548   9.507   0.520   6.648 -1.9677 -1.5353 -0.3121
 4770SOL     OW21549   3.551   7.049   8.509 -0.4193 -0.0716 -0.3647
 4770SOL    HW121550   3.586   7.082   8.593  0.8761 -2.9067  0.3411
 4770SOL    HW221551   3.458   7.068   8.513  0.0187  2.2294  0.5037
 4771SOL     OW21552   0.903  11.457   1.234 -0.5714  0.1942 -0.4724
 4771SOL    HW121553   0.857  11.533   1.268 -0.6969  0.6622 -1.6377
 4771SOL    HW221554   0.863  11.383   1.277 -2.0580  0.6271 -1.0429
 4772SOL     OW21555   9.686   6.213   4.196 -0.0198 -0.5062  0.5858
 4772SOL    HW121556   9.600   6.241   4.227  0.3177  0.5928  0.5904
 4772SOL    HW221557   9.703   6.269   4.121  0.4009 -1.1891  0.1683
 4773SOL     OW21558  12.137   3.497   9.999  0.0447  0.3121  0.0175
 4773SOL    HW121559  12.166   3.587  10.009 -1.9456  0.8065  2.1429
 4773SOL    HW221560  12.167   3.453  10.079 -2.3492  0.1508  0.9125
 4774SOL     OW21561   7.765  11.737   8.406  0.3112 -0.1137 -0.1971
 4774SOL    HW121562   7.684  11.716   8.453 -0.6993  0.0809 -1.7628
 4774SOL    HW221563   7.769  11.673   8.336  0.4914  1.0090 -1.2597
 4775SOL     OW21564   3.726   6.581   4.659  0.1013  0.4691  0.5544
 4775SOL    HW121565   3.738   6.605   4.567  0.7892  0.2166  0.5656
 4775SOL    HW221566   3.738   6.486   4.660 -0.3943  0.4102  0.8350
 4776SOL     OW21567   8.221   4.444   0.550  0.0801 -0.0630  0.2715
 4776SOL    HW121568   8.203   4.513   0.486  1.0188  0.7277  0.8106
 4776SOL    HW221569   8.245   4.368   0.498 -3.4160 -0.8452 -0.4482
 4777SOL     OW21570  10.795   0.183   8.465  0.4491  0.4834  0.4446
 4777SOL    HW121571  10.711   0.154   8.429  0.1725  0.8119  0.8161
 4777SOL    HW221572  10.773   0.216   8.552  1.2317 -1.1141  1.2929
 4778SOL     OW21573   8.087   2.659   3.871  0.5041 -0.0183  0.5027
 4778SOL    HW121574   8.008   2.678   3.819 -0.3067 -1.9327  0.9276
 4778SOL    HW221575   8.155   2.642   3.806  0.2981  0.5578  0.1209
 4779SOL     OW21576  12.362   3.598   3.469  0.0692  0.1668  0.0664
 4779SOL    HW121577  12.330   3.623   3.555 -0.1022  1.8274 -0.4546
 4779SOL    HW221578  12.342   3.504   3.463  0.6461 -0.1220  2.0501
 4780SOL     OW21579  11.453   6.692   2.350  0.2021 -0.0861  0.4660
 4780SOL    HW121580  11.393   6.754   2.391  0.9929  0.9646  0.0827
 4780SOL    HW221581  11.485   6.737   2.272 -1.2592 -2.0395 -1.3526
 4781SOL     OW21582   6.712  12.623   5.547  0.0047  0.4737 -0.1581
 4781SOL    HW121583   6.797  12.580   5.555  1.2289  2.2431 -2.4832
 4781SOL    HW221584   6.675  12.618   5.635  1.8166 -1.6634  0.5875
 4782SOL     OW21585   8.167  12.143  12.097 -0.8225 -0.2899 -0.1941
 4782SOL    HW121586   8.154  12.234  12.124 -1.5496 -0.6079  0.5819
 4782SOL    HW221587   8.205  12.149  12.010 -1.1513  0.7527 -0.2813
 4783SOL     OW21588   6.335  10.026   2.787  0.4354 -0.5144 -0.0451
 4783SOL    HW121589   6.398  10.080   2.740  0.4782 -0.6439 -0.1366
 4783SOL    HW221590   6.262  10.014   2.726  0.2944 -0.3112  0.0837
 4784SOL     OW21591   8.586   7.845  10.789 -0.4005 -0.1279  0.4620
 4784SOL    HW121592   8.640   7.875  10.716 -1.2529 -0.9992 -0.5587
 4784SOL    HW221593   8.621   7.758  10.811 -1.2865 -0.6705 -0.1612
 4785SOL     OW21594   0.986   7.568  10.490  0.1657 -0.1873 -0.1836
 4785SOL    HW121595   0.970   7.480  10.457 -3.3304 -0.4337  1.6403
 4785SOL    HW221596   0.996   7.622  10.412  0.6135 -1.9245 -1.3716
 4786SOL     OW21597   3.113   0.858   9.237  0.5766  0.1822  0.9177
 4786SOL    HW121598   3.169   0.838   9.312  0.9121  0.3145  0.7020
 4786SOL    HW221599   3.097   0.953   9.245 -0.9725 -0.1228  1.9140
 4787SOL     OW21600   0.351   4.667   4.981 -0.5124 -0.0144  0.2211
 4787SOL    HW121601   0.277   4.725   4.995  0.1002  0.7410  0.3835
 4787SOL    HW221602   0.313   4.590   4.938 -1.0965  1.2084 -1.5735
 4788SOL     OW21603   3.826   0.098   5.420 -0.3752  0.1115 -0.5352
 4788SOL    HW121604   3.781   0.183   5.421 -0.3789  0.1066 -0.3334
 4788SOL    HW221605   3.775   0.043   5.478 -0.5279 -0.1114 -0.8785
 4789SOL     OW21606  11.270   4.547   9.664  0.1253  0.7102  0.1924
 4789SOL    HW121607  11.351   4.531   9.713  0.3586  2.2485  0.3792
 4789SOL    HW221608  11.299   4.597   9.587 -0.4939  0.1179 -0.4368
 4790SOL     OW21609   5.975   7.079   4.637 -0.6169  0.4004 -0.2230
 4790SOL    HW121610   5.963   6.992   4.598 -0.0796  0.2676 -0.0974
 4790SOL    HW221611   5.888   7.119   4.633 -0.7069  0.1507 -0.9852
 4791SOL     OW21612   9.514   0.528   9.621 -0.0457 -0.0919 -0.3807
 4791SOL    HW121613   9.594   0.549   9.573 -0.1849 -2.7360 -1.9637
 4791SOL    HW221614   9.544   0.502   9.708  0.5377  1.2315 -0.1566
 4792SOL     OW21615   1.264  12.147   9.944 -0.0715 -0.6059  0.3148
 4792SOL    HW121616   1.199  12.153   9.874 -0.7332 -2.0859  0.7427
 4792SOL    HW221617   1.344  12.118   9.900 -0.4442 -1.3849  0.1257
 4793SOL     OW21618  10.094   9.234   9.219 -0.1339 -0.1890  0.0001
 4793SOL    HW121619  10.180   9.230   9.261  0.1259  1.5145 -0.2731
 4793SOL    HW221620  10.033   9.205   9.286  0.7195 -2.8068 -0.2226
 4794SOL     OW21621   0.058   0.716   2.319  0.2776  0.0039 -0.0945
 4794SOL    HW121622   0.102   0.633   2.342 -0.9836 -0.4911  0.6395
 4794SOL    HW221623   0.016   0.699   2.235 -2.4599 -1.1730  1.3731
 4795SOL     OW21624  12.227   5.076   4.505  0.0014  0.2637  0.2612
 4795SOL    HW121625  12.295   5.072   4.438 -0.1831  0.2026  0.0768
 4795SOL    HW221626  12.147   5.047   4.460  0.0779 -0.7876  0.7703
 4796SOL     OW21627   5.181  11.756   5.599 -0.0897 -0.1478  0.3592
 4796SOL    HW121628   5.255  11.696   5.603 -0.8376 -1.0683  0.5949
 4796SOL    HW221629   5.153  11.767   5.690 -0.4484 -0.0767  0.2441
 4797SOL     OW21630   2.084   8.823   9.710  0.1707 -0.2698  0.0458
 4797SOL    HW121631   2.149   8.752   9.702 -0.1870 -0.5978  0.0284
 4797SOL    HW221632   2.009   8.781   9.752 -0.9489 -0.4857 -2.0813
 4798SOL     OW21633  12.448   4.090   7.461 -0.2564  0.1572  0.2962
 4798SOL    HW121634  12.372   4.138   7.430 -0.7461  0.5264  1.9577
 4798SOL    HW221635  12.460   4.020   7.397 -2.1293 -0.0478  0.1130
 4799SOL     OW21636   4.293  11.511   8.642 -0.5251 -0.6529  0.3622
 4799SOL    HW121637   4.336  11.597   8.635 -0.7748 -0.2621  2.8050
 4799SOL    HW221638   4.348  11.452   8.591 -0.4168  0.9563 -1.4883
 4800SOL     OW21639   2.853   6.083   4.053 -0.1795  0.1422  0.2743
 4800SOL    HW121640   2.812   6.104   4.137  0.4355 -0.0352  0.6247
 4800SOL    HW221641   2.851   6.165   4.004  0.5182  0.5563  0.9150
 4801SOL     OW21642   9.845  10.024   1.898 -0.0285  0.3258 -0.2575
 4801SOL    HW121643   9.939  10.009   1.888 -0.1231  0.1145 -0.8648
 4801SOL    HW221644   9.809  10.011   1.810 -0.5201  1.1869 -0.1881
 4802SOL     OW21645  10.588   1.849   7.607 -0.0817  0.3166  0.1679
 4802SOL    HW121646  10.555   1.842   7.518 -0.5590  0.9413  0.2914
 4802SOL    HW221647  10.673   1.806   7.604 -1.2822 -2.2367  0.0641
 4803SOL     OW21648   3.516  11.552   6.358 -0.0920 -0.3252  0.2855
 4803SOL    HW121649   3.567  11.620   6.313 -0.8383  0.7382  0.9836
 4803SOL    HW221650   3.483  11.497   6.288 -0.0024  0.4178 -0.3578
 4804SOL     OW21651   0.842   0.625   7.470 -0.0591 -0.3029  0.2289
 4804SOL    HW121652   0.916   0.659   7.419 -0.2991  0.4012  0.3326
 4804SOL    HW221653   0.845   0.531   7.458  0.7227 -0.2587  0.0427
 4805SOL     OW21654   7.709   3.188  11.285 -0.1570 -0.4919  0.0411
 4805SOL    HW121655   7.643   3.158  11.222  0.2173 -1.5484  0.1482
 4805SOL    HW221656   7.746   3.108  11.323 -0.8624  0.1190  2.1501
 4806SOL     OW21657  10.909   0.448   5.246 -0.4932  0.1002 -0.6484
 4806SOL    HW121658  10.922   0.354   5.256  0.0060  0.2366  0.0838
 4806SOL    HW221659  10.903   0.481   5.336 -3.1293  0.4643 -0.8634
 4807SOL     OW21660   1.944   7.021   6.630 -0.2371  0.2985 -0.0778
 4807SOL    HW121661   1.925   6.988   6.718  0.9842  1.1910  0.5636
 4807SOL    HW221662   1.972   6.944   6.581 -0.3819 -0.1204  0.4787
 4808SOL     OW21663   1.688   8.587   0.639 -0.3862 -0.1677 -0.0193
 4808SOL    HW121664   1.737   8.535   0.702 -0.9188 -0.7312 -0.0598
 4808SOL    HW221665   1.684   8.675   0.678  0.0288 -0.2927  0.3139
 4809SOL     OW21666  12.260   3.922   4.350 -1.0211  0.1737 -0.0034
 4809SOL    HW121667  12.218   3.836   4.351 -0.3012 -0.1779  0.4477
 4809SOL    HW221668  12.354   3.904   4.347 -0.8790  0.9582 -1.6938
 4810SOL     OW21669   4.786   3.256   0.828  0.1538  0.4110  0.0854
 4810SOL    HW121670   4.781   3.162   0.810 -2.3982  0.5191 -0.1958
 4810SOL    HW221671   4.724   3.270   0.900  0.6786  1.8457  0.2847
 4811SOL     OW21672   7.803  10.601   3.173  0.0874 -0.2731  0.3206
 4811SOL    HW121673   7.745  10.571   3.243 -0.5160  0.3094  0.0779
 4811SOL    HW221674   7.883  10.627   3.219  1.1958 -3.4984  0.4251
 4812SOL     OW21675  10.679   9.083   4.311  0.2004 -0.3081  0.2227
 4812SOL    HW121676  10.610   9.112   4.251  2.2120 -1.1523 -2.7218
 4812SOL    HW221677  10.730   9.162   4.329  0.7091 -0.3879 -0.8122
 4813SOL     OW21678   7.457   9.903   0.120 -0.5050  0.0402 -0.1818
 4813SOL    HW121679   7.387   9.870   0.063 -0.8850  2.9326 -1.5550
 4813SOL    HW221680   7.530   9.920   0.061 -0.4100  1.7525  0.3652
 4814SOL     OW21681  10.228  12.041   2.050 -0.2193  0.4815  0.1631
 4814SOL    HW121682  10.222  11.980   1.976  0.4773  0.3187  0.2325
 4814SOL    HW221683  10.252  11.985   2.125  0.3166  0.8187  0.2492
 4815SOL     OW21684   3.225   1.827   3.402  0.4184  0.1465  0.0692
 4815SOL    HW121685   3.199   1.846   3.492  0.6132  1.0561 -0.0551
 4815SOL    HW221686   3.302   1.881   3.387  0.5615 -0.2160 -0.5515
 4816SOL     OW21687   0.978   9.336   2.612  0.6048  0.1742 -0.0393
 4816SOL    HW121688   1.048   9.389   2.573  2.8387 -0.6470  2.5735
 4816SOL    HW221689   0.946   9.388   2.685  0.6080 -0.7228  0.6178
 4817SOL     OW21690   1.401   2.451  10.154  0.3273 -0.7118  0.6743
 4817SOL    HW121691   1.456   2.428  10.079 -0.7081 -0.1925 -0.2732
 4817SOL    HW221692   1.339   2.378  10.161  0.3721 -0.7231  0.9966
 4818SOL     OW21693   3.468   4.958   0.898 -0.7129 -0.0691 -0.7505
 4818SOL    HW121694   3.396   4.976   0.838 -0.5812  2.8088 -0.1962
 4818SOL    HW221695   3.517   5.041   0.902  0.1267 -0.5935  2.1715
 4819SOL     OW21696   3.486  11.951  11.673  0.2909  0.1448 -0.3218
 4819SOL    HW121697   3.488  11.981  11.763  4.8350 -1.1657  0.2800
 4819SOL    HW221698   3.422  11.879  11.672 -1.0739  1.2694  1.3245
 4820SOL     OW21699   3.572  10.263   0.331 -0.0914  0.3967  0.2413
 4820SOL    HW121700   3.662  10.234   0.314  0.4045  2.3756 -0.8475
 4820SOL    HW221701   3.524  10.236   0.253 -0.3932 -0.4031  0.6957
 4821SOL     OW21702   3.212   0.566  11.118  0.2562  0.1024 -0.1987
 4821SOL    HW121703   3.225   0.611  11.034  0.5964 -0.3789 -0.4069
 4821SOL    HW221704   3.291   0.513  11.130 -0.1745 -0.5074  0.0023
 4822SOL     OW21705  10.720  12.021   9.003 -0.5925  0.0235  0.8492
 4822SOL    HW121706  10.652  11.980   8.949  0.1715 -0.8767  0.5657
 4822SOL    HW221707  10.752  12.094   8.949  0.3047 -0.9861 -0.0264
 4823SOL     OW21708   1.995  11.657   3.660 -0.3278  0.0719 -0.2848
 4823SOL    HW121709   2.043  11.629   3.582 -0.3379  0.0210 -0.2732
 4823SOL    HW221710   1.908  11.619   3.649 -0.0177 -0.8362  0.2565
 4824SOL     OW21711   2.411  11.832   6.674 -0.7024 -0.3114  0.1237
 4824SOL    HW121712   2.321  11.802   6.659  0.2574 -2.2457 -2.4959
 4824SOL    HW221713   2.451  11.763   6.726 -0.4878  0.1613  0.5984
 4825SOL     OW21714   3.131   5.739   4.951 -0.2610 -1.1850  0.2800
 4825SOL    HW121715   3.132   5.681   4.876  0.0176 -1.5461  0.5597
 4825SOL    HW221716   3.040   5.768   4.958  0.0438  0.3275 -1.3089
 4826SOL     OW21717   3.046  11.131  11.892  0.3198 -0.1924  0.2463
 4826SOL    HW121718   3.070  11.129  11.985  0.0765 -0.6207  0.3002
 4826SOL    HW221719   2.960  11.090  11.888  0.5531 -0.6459 -0.2321
 4827SOL     OW21720   6.404  11.382   6.821  0.1902  0.3513  0.1952
 4827SOL    HW121721   6.349  11.349   6.750  0.7869  0.9110 -0.5448
 4827SOL    HW221722   6.465  11.442   6.778  1.2491 -0.0984  1.0179
 4828SOL     OW21723   6.905   1.331  11.982  0.0313 -0.2507 -0.1388
 4828SOL    HW121724   6.983   1.312  12.034  0.3503 -1.2877 -0.9855
 4828SOL    HW221725   6.923   1.416  11.942  0.2765  0.0013  0.4921
 4829SOL     OW21726   3.379   3.681   7.281  0.0052 -0.2609 -0.0476
 4829SOL    HW121727   3.338   3.760   7.245  0.3608  1.2522  2.5948
 4829SOL    HW221728   3.467   3.710   7.306 -0.4896 -0.9269  2.6757
 4830SOL     OW21729   7.130   4.136   0.792 -0.2088  0.6149 -0.2282
 4830SOL    HW121730   7.106   4.044   0.800  0.4291  0.5948  2.1738
 4830SOL    HW221731   7.086   4.165   0.712 -1.6602 -1.3666 -0.2245
 4831SOL     OW21732   3.577   1.911   1.405  0.2893 -0.1897  0.1634
 4831SOL    HW121733   3.648   1.853   1.433  0.8416  0.1772 -0.4448
 4831SOL    HW221734   3.601   1.996   1.441 -0.9239 -0.4630  1.7330
 4832SOL     OW21735  11.273   8.760   1.559  0.2574  0.6610 -0.7149
 4832SOL    HW121736  11.292   8.833   1.500  1.2625  2.0781  1.2539
 4832SOL    HW221737  11.356   8.744   1.604 -0.3532 -0.6956 -0.0184
 4833SOL     OW21738   9.677   5.539   2.783 -0.1290  0.0926  0.1488
 4833SOL    HW121739   9.600   5.539   2.726  0.8426  1.7900 -1.2810
 4833SOL    HW221740   9.670   5.621   2.832 -0.1430 -0.6204  1.3650
 4834SOL     OW21741   8.096   5.064   3.985  0.1502 -0.0185 -0.0592
 4834SOL    HW121742   8.095   5.135   4.050 -0.5842  0.3052 -0.4086
 4834SOL    HW221743   8.136   4.990   4.031  0.6316  0.5180  0.4162
 4835SOL     OW21744   3.968   4.741   9.941 -0.5663  0.3612  0.5116
 4835SOL    HW121745   3.881   4.709   9.918 -0.1696  0.1770 -0.8549
 4835SOL    HW221746   4.002   4.778   9.859  0.6837  0.3253  0.9950
 4836SOL     OW21747   8.289   8.769  11.560 -0.5141 -0.2833 -0.5635
 4836SOL    HW121748   8.263   8.846  11.611  0.8097  0.6708 -1.2614
 4836SOL    HW221749   8.348   8.804  11.492  1.6764 -2.1226  0.2547
 4837SOL     OW21750   5.309  11.783   0.412 -0.7817 -0.4359  0.1954
 4837SOL    HW121751   5.341  11.832   0.336  1.8934  0.4704  1.7996
 4837SOL    HW221752   5.254  11.846   0.459  0.2272  0.1028  0.6863
 4838SOL     OW21753   3.260   6.060   9.952  0.5180  0.4560 -0.7575
 4838SOL    HW121754   3.291   6.018  10.032 -2.7484  0.0262  0.4230
 4838SOL    HW221755   3.248   6.152   9.976 -0.3467  0.3525 -0.7594
 4839SOL     OW21756  11.244   3.754   7.953  0.3565  0.1132  0.2264
 4839SOL    HW121757  11.264   3.763   7.860  1.0370 -1.8291  0.1386
 4839SOL    HW221758  11.329   3.745   7.996  0.0804  1.5296  1.1410
 4840SOL     OW21759   6.979   4.162   2.016 -0.4230 -0.7360  0.0549
 4840SOL    HW121760   7.013   4.157   1.927 -2.0305  1.7997 -0.8154
 4840SOL    HW221761   6.953   4.073   2.037  0.5117 -1.4873 -1.7794
 4841SOL     OW21762   0.566   6.260  10.695 -0.1217 -0.1276 -0.1424
 4841SOL    HW121763   0.524   6.247  10.609  0.3413  0.2277 -0.4264
 4841SOL    HW221764   0.644   6.205  10.693 -1.3370 -1.9722  0.9649
 4842SOL     OW21765   7.898  12.446   5.059  0.6946 -0.3543 -0.7469
 4842SOL    HW121766   7.807  12.473   5.073  0.8929  0.4344 -0.9502
 4842SOL    HW221767   7.914  12.380   5.127  0.9500  1.7985  1.4096
 4843SOL     OW21768   9.199   5.684   3.094  0.0967 -0.2101 -0.4733
 4843SOL    HW121769   9.241   5.649   3.172 -2.8884 -1.3025  0.7864
 4843SOL    HW221770   9.115   5.717   3.125  0.7524  4.0096 -2.4105
 4844SOL     OW21771   8.365  10.522   2.837  0.2821  0.0134 -0.4941
 4844SOL    HW121772   8.437  10.461   2.853 -0.1061 -0.8191 -1.7397
 4844SOL    HW221773   8.389  10.601   2.885  2.0237 -0.2396 -0.8855
 4845SOL     OW21774  10.257   9.150   6.178  0.0604 -0.0019  0.9226
 4845SOL    HW121775  10.163   9.133   6.179 -0.1498  0.9656 -0.0742
 4845SOL    HW221776  10.292   9.086   6.115  0.0025 -0.0567  0.9460
 4846SOL     OW21777   4.753   5.108   8.399 -0.1786  0.1948 -0.7551
 4846SOL    HW121778   4.808   5.134   8.473  0.9475 -1.5763 -0.9203
 4846SOL    HW221779   4.711   5.190   8.371  1.1588  1.3242  0.3794
 4847SOL     OW21780   8.082  10.863   1.387 -0.2907  0.0757 -0.0752
 4847SOL    HW121781   8.165  10.820   1.405 -0.5485 -1.3523 -1.9082
 4847SOL    HW221782   8.106  10.937   1.331 -0.1112  0.6207  0.7180
 4848SOL     OW21783   0.547   0.893   2.521  0.3182  0.0539  0.0400
 4848SOL    HW121784   0.472   0.888   2.462 -0.5019  2.3690  0.7910
 4848SOL    HW221785   0.518   0.845   2.599  0.6987 -1.3772 -0.6499
 4849SOL     OW21786  10.553  11.900   9.883 -0.0762 -0.1467  0.2608
 4849SOL    HW121787  10.565  11.829   9.946 -0.7077 -0.8297 -0.3686
 4849SOL    HW221788  10.639  11.911   9.842  0.4772  0.6590  1.5843
 4850SOL     OW21789   8.096   8.224   9.895  0.5216 -0.3736 -0.4297
 4850SOL    HW121790   8.123   8.169   9.969  3.4901  0.2803 -0.8957
 4850SOL    HW221791   8.085   8.311   9.934  1.9780 -0.0525 -0.6746
 4851SOL     OW21792   5.699   4.967   2.011  0.1718  0.4422  0.0915
 4851SOL    HW121793   5.605   4.963   2.028  0.5112 -0.2891  1.9893
 4851SOL    HW221794   5.731   4.880   2.032  1.3882  0.8712  0.1002
 4852SOL     OW21795   3.368  11.691   8.597  0.6268  0.6169 -0.1115
 4852SOL    HW121796   3.329  11.682   8.684  0.8328 -0.9582 -0.1568
 4852SOL    HW221797   3.297  11.726   8.542 -1.3227 -3.4350 -0.5072
 4853SOL     OW21798   3.733   3.614   4.738 -0.3852  0.9273  0.3341
 4853SOL    HW121799   3.751   3.638   4.829 -2.4114  1.2762  0.7083
 4853SOL    HW221800   3.644   3.647   4.722  0.0116  1.0663 -1.8525
 4854SOL     OW21801  11.978   4.777   0.552  0.2179  0.0770 -0.4182
 4854SOL    HW121802  11.926   4.778   0.471  0.1359 -3.2411 -0.5293
 4854SOL    HW221803  11.914   4.755   0.621  0.4582  1.9596  0.4551
 4855SOL     OW21804   2.887   0.667   3.018 -0.1649 -0.0319  0.0994
 4855SOL    HW121805   2.839   0.750   3.012 -0.1841 -0.0887 -0.5584
 4855SOL    HW221806   2.887   0.647   3.112  0.1147  0.8723  0.3030
 4856SOL     OW21807   7.417   8.770   7.344 -0.2472  0.3109 -0.6142
 4856SOL    HW121808   7.377   8.804   7.263 -0.5299 -0.9889 -1.0533
 4856SOL    HW221809   7.346   8.724   7.388  0.6055 -1.6270 -1.1635
 4857SOL     OW21810  11.075   6.950   4.604  0.5254 -0.7938  0.5731
 4857SOL    HW121811  11.131   6.877   4.581  1.0364  0.1482 -1.3819
 4857SOL    HW221812  11.097   7.019   4.541 -1.2416  0.4007  1.1615
 4858SOL     OW21813  12.290   9.162   7.388 -0.0450 -0.1467 -0.3197
 4858SOL    HW121814  12.307   9.178   7.481 -0.1674 -1.8317  0.0346
 4858SOL    HW221815  12.224   9.092   7.388  1.0842 -1.2715 -1.6520
 4859SOL     OW21816  11.655   2.293   2.070 -0.0814 -0.2021  0.2272
 4859SOL    HW121817  11.636   2.271   1.980  0.2960  0.8169 -0.1220
 4859SOL    HW221818  11.682   2.385   2.067  1.5330 -0.6110  1.1389
 4860SOL     OW21819  10.308   6.650   0.735 -0.1112 -0.3283  0.9823
 4860SOL    HW121820  10.366   6.723   0.716 -1.3569  0.8200  1.4927
 4860SOL    HW221821  10.368   6.576   0.751  1.2303  0.8927  1.8643
 4861SOL     OW21822   3.759  10.493   4.327 -0.1342 -0.9089  0.2688
 4861SOL    HW121823   3.715  10.424   4.278 -0.1912 -0.1428 -0.7916
 4861SOL    HW221824   3.690  10.534   4.379 -0.6031 -0.0174 -1.0296
 4862SOL     OW21825   0.525   0.245  10.670  0.3604 -0.0078  0.3659
 4862SOL    HW121826   0.617   0.270  10.661  0.5316  0.0419  1.8918
 4862SOL    HW221827   0.524   0.185  10.745 -0.4839 -2.1310 -1.2178
 4863SOL     OW21828   8.472   1.768  11.469 -0.0110 -0.1200  0.1829
 4863SOL    HW121829   8.520   1.810  11.398 -1.9736  0.1125 -1.0728
 4863SOL    HW221830   8.413   1.837  11.502 -1.5178 -1.1452 -0.2610
 4864SOL     OW21831   4.048  11.858   0.949 -0.5114  0.4497  0.2530
 4864SOL    HW121832   3.989  11.815   1.010  0.4981 -0.6661  0.4764
 4864SOL    HW221833   4.117  11.793   0.932 -1.5553  0.0855 -3.3098
 4865SOL     OW21834   6.389  10.211   6.106  0.2099  0.3438 -0.6980
 4865SOL    HW121835   6.336  10.201   6.026  0.4046  0.4985 -0.8485
 4865SOL    HW221836   6.466  10.158   6.089 -0.2925 -0.6029 -0.1173
 4866SOL     OW21837  11.851  10.548  10.644 -0.4977 -0.2097  0.6270
 4866SOL    HW121838  11.808  10.504  10.571  0.3169  0.1738 -0.0943
 4866SOL    HW221839  11.910  10.611  10.603 -0.3771  0.3478  1.6244
 4867SOL     OW21840  11.943   6.160   4.898  0.3521 -0.3613 -0.1789
 4867SOL    HW121841  11.968   6.242   4.941 -1.0816 -1.1992  2.4310
 4867SOL    HW221842  12.015   6.143   4.836  0.9164  2.5768 -0.4896
 4868SOL     OW21843  12.638   6.229   8.232 -0.3775 -0.4857 -0.2452
 4868SOL    HW121844  12.626   6.167   8.304 -0.2836  1.3773  1.4619
 4868SOL    HW221845  12.654   6.174   8.155  1.4934 -2.5324  1.4937
 4869SOL     OW21846   1.274   4.975   2.184 -0.7803  0.2489 -0.1126
 4869SOL    HW121847   1.243   4.942   2.268 -0.4939  0.1225 -0.0541
 4869SOL    HW221848   1.194   4.998   2.136 -1.0232 -1.0770 -0.3826
 4870SOL     OW21849   0.540   2.503  10.435  0.1644  0.1516 -0.6108
 4870SOL    HW121850   0.576   2.571  10.379 -0.2998  0.2550 -0.7879
 4870SOL    HW221851   0.610   2.483  10.497  0.1888  1.0252 -0.3416
 4871SOL     OW21852  10.897   5.136   9.948  0.1295  0.1366 -0.2235
 4871SOL    HW121853  10.843   5.060   9.925 -0.1751  0.6795 -1.3860
 4871SOL    HW221854  10.913   5.180   9.865  0.1261  1.4691  0.4568
 4872SOL     OW21855   7.049   7.845   5.287  0.5928  0.4495 -0.1172
 4872SOL    HW121856   6.989   7.881   5.353 -0.0310 -0.8735  0.0726
 4872SOL    HW221857   7.006   7.864   5.203  0.3986  0.3661 -0.0366
 4873SOL     OW21858   0.446   6.896   0.016 -0.6131 -0.4471 -0.1206
 4873SOL    HW121859   0.481   6.933   0.097 -0.2222 -0.7649 -0.1396
 4873SOL    HW221860   0.359   6.935   0.007 -0.0464  0.8019 -0.3673
 4874SOL     OW21861  12.569   2.190   3.459 -1.0061 -0.4459  0.4779
 4874SOL    HW121862  12.637   2.123   3.455 -1.1928 -0.6778  1.0639
 4874SOL    HW221863  12.548   2.208   3.368  2.7308  2.6134 -0.0331
 4875SOL     OW21864   8.979   5.903  11.735  0.3855 -0.2391 -0.5013
 4875SOL    HW121865   9.004   5.946  11.653 -0.0016  0.0421 -0.4746
 4875SOL    HW221866   8.962   5.812  11.710  0.4303 -0.1925 -0.7044
 4876SOL     OW21867   2.888   2.726  10.362  0.8250 -1.0736  0.1595
 4876SOL    HW121868   2.826   2.797  10.377  4.0211  1.6804  1.4358
 4876SOL    HW221869   2.873   2.665  10.435 -0.3331 -0.4796  0.4389
 4877SOL     OW21870   8.893   1.746   3.660  0.5331 -0.3736  0.0796
 4877SOL    HW121871   8.817   1.764   3.716  0.9227  0.4593  0.3470
 4877SOL    HW221872   8.967   1.739   3.721  1.0872  1.2360 -0.3559
 4878SOL     OW21873  11.234   5.290   3.895 -0.2830  0.2266  0.0150
 4878SOL    HW121874  11.279   5.211   3.864  0.6650  0.1091  1.5778
 4878SOL    HW221875  11.141   5.273   3.877 -0.0266 -0.9506 -0.2769
 4879SOL     OW21876   0.834  11.912   6.053  0.0701  0.2419  0.2018
 4879SOL    HW121877   0.898  11.864   5.999  0.0527 -0.6408  0.9377
 4879SOL    HW221878   0.883  11.987   6.086  0.8959 -0.6801  1.1487
 4880SOL     OW21879   6.497   0.078   3.817 -0.8384 -0.4444  0.3110
 4880SOL    HW121880   6.438   0.017   3.773 -0.1834 -0.6862 -0.2596
 4880SOL    HW221881   6.476   0.163   3.779 -0.1802 -0.6723 -0.6038
 4881SOL     OW21882  10.723   7.819   3.979 -0.0836 -0.2245 -0.2308
 4881SOL    HW121883  10.675   7.873   4.042  0.0929 -0.3024 -0.0307
 4881SOL    HW221884  10.701   7.858   3.893 -2.0092 -1.3670 -0.3262
 4882SOL     OW21885  11.974  10.984   7.900 -0.0380 -0.0493 -0.2548
 4882SOL    HW121886  11.889  10.987   7.857  0.3054  2.4652 -0.9444
 4882SOL    HW221887  12.036  10.968   7.829  0.1256 -1.2634  0.1531
 4883SOL     OW21888  12.312   5.206   2.456 -0.4402  0.0222  0.0550
 4883SOL    HW121889  12.354   5.270   2.513 -1.3197  2.2541 -1.6290
 4883SOL    HW221890  12.233   5.251   2.424 -0.8386 -1.7211 -1.6121
 4884SOL     OW21891   3.816   4.537   8.118 -0.5000  0.2088 -0.1250
 4884SOL    HW121892   3.905   4.506   8.134 -0.2848 -0.3122 -2.1170
 4884SOL    HW221893   3.823   4.632   8.117  0.1693  0.1616 -0.8431
 4885SOL     OW21894  11.494  10.438   4.349 -0.1984 -0.0516  0.1817
 4885SOL    HW121895  11.433  10.375   4.308  1.4116 -1.1913 -0.5666
 4885SOL    HW221896  11.535  10.483   4.275  0.8891 -0.3100  0.6082
 4886SOL     OW21897  11.911  10.352   1.255  0.0021  0.2283 -0.2133
 4886SOL    HW121898  11.991  10.361   1.203 -0.4449 -0.5136 -1.0492
 4886SOL    HW221899  11.883  10.262   1.241  0.2361 -0.2045  1.8765
 4887SOL     OW21900   6.208   7.464   3.515 -0.2151 -0.3848 -0.4311
 4887SOL    HW121901   6.271   7.535   3.504 -2.4367  1.6214 -1.1907
 4887SOL    HW221902   6.174   7.476   3.604 -0.0662 -0.9617 -0.2973
 4888SOL     OW21903   9.618   8.823   4.946  0.0001 -0.4072  0.2550
 4888SOL    HW121904   9.639   8.851   4.857 -0.2383 -0.7027  0.1036
 4888SOL    HW221905   9.555   8.752   4.935  0.6618 -1.0684  0.6254
 4889SOL     OW21906   3.178  12.698   7.267  0.7310  0.4422 -0.0239
 4889SOL    HW121907   3.111  12.738   7.323  0.6537 -0.1073  0.2825
 4889SOL    HW221908   3.139  12.699   7.180  0.4281  0.3696  0.1068
 4890SOL     OW21909   8.077  11.221   7.771 -0.0822 -0.6614 -0.1272
 4890SOL    HW121910   8.109  11.193   7.685  0.6746 -2.9772  0.8324
 4890SOL    HW221911   8.145  11.279   7.804 -0.4381  0.3491 -1.1000
 4891SOL     OW21912   2.658   6.997  11.878  0.2548  0.2504 -0.3371
 4891SOL    HW121913   2.710   6.939  11.934 -0.0646 -0.1623 -0.4584
 4891SOL    HW221914   2.662   7.082  11.921  0.0956 -0.0398  0.2612
 4892SOL     OW21915   8.638  10.120   8.279 -0.1599 -0.0383  0.6139
 4892SOL    HW121916   8.570  10.115   8.347  0.9544  1.7337  1.9598
 4892SOL    HW221917   8.659  10.213   8.274  0.1158 -0.1817 -1.9043
 4893SOL     OW21918   6.534   6.071   1.170 -0.1672 -0.6078 -0.7441
 4893SOL    HW121919   6.626   6.060   1.145 -0.5099 -1.2989 -1.7265
 4893SOL    HW221920   6.537   6.133   1.243  1.1268 -1.0360 -0.4056
 4894SOL     OW21921   1.109  11.528   1.408 -0.3353  0.2271 -0.4635
 4894SOL    HW121922   1.041  11.571   1.460 -0.1189  0.3980 -0.3180
 4894SOL    HW221923   1.061  11.476   1.344 -0.6773 -2.3697  1.7470
 4895SOL     OW21924   1.990   2.776   7.604  0.0686 -0.1875 -0.9281
 4895SOL    HW121925   2.038   2.717   7.545 -0.4739 -2.9989  1.2183
 4895SOL    HW221926   2.050   2.790   7.677 -0.4998  0.4839 -0.5779
 4896SOL     OW21927   9.862   7.222   9.071 -0.2409  0.1267 -0.9132
 4896SOL    HW121928   9.911   7.257   9.146  0.2273 -0.0847 -1.1142
 4896SOL    HW221929   9.875   7.287   9.002 -1.7033  0.9444 -0.4519
 4897SOL     OW21930  12.515  10.403   1.146 -0.5495  0.5399  0.0009
 4897SOL    HW121931  12.532  10.494   1.170  0.1329  0.6186 -0.7274
 4897SOL    HW221932  12.530  10.400   1.052  1.1315 -0.6637  0.2443
 4898SOL     OW21933   7.822   7.234   5.186  0.2292  0.7524 -0.0356
 4898SOL    HW121934   7.773   7.159   5.152 -2.1914  2.6704 -1.1658
 4898SOL    HW221935   7.843   7.211   5.276 -1.1079 -0.9873 -0.1225
 4899SOL     OW21936   1.855   0.646   4.040  0.9222 -0.3979  0.1502
 4899SOL    HW121937   1.922   0.578   4.032  1.0669 -0.2288 -0.0797
 4899SOL    HW221938   1.833   0.669   3.949  0.7193 -0.2899  0.2259
 4900SOL     OW21939   5.204  10.257   6.959  0.2723  0.7501 -0.4051
 4900SOL    HW121940   5.183  10.165   6.944  0.3932  0.6412  0.0872
 4900SOL    HW221941   5.222  10.263   7.053  0.6182  1.2068 -0.4961
 4901SOL     OW21942   1.178  12.388   8.447 -0.0803  0.3297  0.3032
 4901SOL    HW121943   1.232  12.315   8.477 -1.4770 -0.9414 -0.1352
 4901SOL    HW221944   1.161  12.440   8.525  0.2613 -0.2660  0.7819
 4902SOL     OW21945   9.056  11.176  11.392 -0.1443  0.1086 -0.6629
 4902SOL    HW121946   8.980  11.117  11.385  0.0829 -0.2549 -0.1046
 4902SOL    HW221947   9.018  11.259  11.422 -0.5506  0.4541 -2.0380
 4903SOL     OW21948   2.531   5.437   0.499  0.4533 -0.5432 -0.6235
 4903SOL    HW121949   2.518   5.345   0.524 -1.7524  0.1243  1.0035
 4903SOL    HW221950   2.443   5.468   0.478  0.5354  2.0397  2.1454
 4904SOL     OW21951   9.222   8.453   1.713  0.1247  0.0534  0.4371
 4904SOL    HW121952   9.292   8.430   1.775  0.9642  0.2313 -0.4238
 4904SOL    HW221953   9.214   8.548   1.719  0.1610  0.0631  0.3145
 4905SOL     OW21954   7.028   6.496  10.949 -0.0482 -0.3810  0.1314
 4905SOL    HW121955   7.022   6.486  10.854  0.4966 -0.7573  0.1317
 4905SOL    HW221956   6.995   6.414  10.985 -1.0671  0.0882  0.2994
 4906SOL     OW21957  10.455   9.767  10.205  0.0981  0.3334  0.2663
 4906SOL    HW121958  10.381   9.776  10.145  0.2147  3.3686  0.4462
 4906SOL    HW221959  10.440   9.683  10.249 -0.2161 -1.8428 -3.5929
 4907SOL     OW21960  11.450   1.749   8.606  0.1426 -0.6466 -0.4638
 4907SOL    HW121961  11.408   1.787   8.529  0.4729  0.4085 -0.1436
 4907SOL    HW221962  11.392   1.678   8.633 -0.1539 -0.7996 -1.4696
 4908SOL     OW21963   2.243   5.573   1.004 -0.1195  0.2155  0.3923
 4908SOL    HW121964   2.329   5.545   1.035  1.1285  0.3446 -2.6181
 4908SOL    HW221965   2.259   5.610   0.918 -2.9825  2.0289  0.5099
 4909SOL     OW21966   4.650   3.384   0.041  0.2780 -0.2921  0.1597
 4909SOL    HW121967   4.732   3.372  -0.008  0.0687 -0.3046 -0.1855
 4909SOL    HW221968   4.670   3.457   0.101  0.9560 -1.1338  0.9968
 4910SOL     OW21969  11.786   9.141   6.770  0.0374 -0.3274 -0.2279
 4910SOL    HW121970  11.784   9.222   6.719 -0.1350 -0.0322  0.2418
 4910SOL    HW221971  11.876   9.109   6.761  0.3490  0.3709  0.2766
 4911SOL     OW21972  10.197  12.394   7.358  0.4728  0.0230 -0.1624
 4911SOL    HW121973  10.184  12.329   7.289 -0.2918  0.4016 -0.3871
 4911SOL    HW221974  10.292  12.407   7.362  0.6782 -1.4910  0.2488
 4912SOL     OW21975   8.995   1.167   3.815  0.1654 -0.0416 -0.3425
 4912SOL    HW121976   8.990   1.262   3.825  1.0238 -0.1950  2.2633
 4912SOL    HW221977   9.073   1.154   3.761  3.0251  0.7287  3.2156
 4913SOL     OW21978  12.281  10.987   1.832 -0.0739 -0.2248 -0.1967
 4913SOL    HW121979  12.306  10.896   1.848  0.1151 -0.1124  0.1580
 4913SOL    HW221980  12.219  10.982   1.760 -2.0301 -0.8981  1.4460
 4914SOL     OW21981   4.081   8.067   2.364 -0.2331  0.2097  0.3726
 4914SOL    HW121982   4.095   8.066   2.269  0.2084 -1.3320  0.4327
 4914SOL    HW221983   4.169   8.081   2.400 -0.3415  0.3597  0.5790
 4915SOL     OW21984   2.166   7.918   8.493  0.1583  0.4175  0.6759
 4915SOL    HW121985   2.081   7.932   8.452  0.6390 -0.0834 -0.5687
 4915SOL    HW221986   2.214   7.999   8.478  0.2392  0.3359  0.4909
 4916SOL     OW21987  10.262   1.128  10.117 -0.6546 -0.0061 -0.4941
 4916SOL    HW121988  10.324   1.118  10.189 -0.0011  0.4129 -0.9971
 4916SOL    HW221989  10.279   1.214  10.081 -0.8233 -0.3013 -1.3008
 4917SOL     OW21990   9.440   1.677   4.128 -0.0152 -0.3703  0.3420
 4917SOL    HW121991   9.474   1.716   4.208  2.8210  1.4920 -1.5526
 4917SOL    HW221992   9.465   1.585   4.133 -0.6082 -0.4655  1.9048
 4918SOL     OW21993   8.236   0.534  11.246 -0.3030  0.6166  0.7980
 4918SOL    HW121994   8.160   0.497  11.202 -0.8308 -0.2491  2.3818
 4918SOL    HW221995   8.230   0.628  11.228 -2.3380  0.7180  1.7101
 4919SOL     OW21996   1.115   4.399  10.917  0.4575  0.3898  0.1052
 4919SOL    HW121997   1.048   4.336  10.891 -0.1186 -0.3638  3.0978
 4919SOL    HW221998   1.197   4.360  10.886 -0.2191  0.2074 -1.5831
 4920SOL     OW21999   6.426   1.100   7.175  0.1341  0.3055 -0.4436
 4920SOL    HW122000   6.494   1.119   7.111 -0.1668  3.0644 -0.0916
 4920SOL    HW222001   6.459   1.137   7.257 -0.5909 -0.8606  0.4017
 4921SOL     OW22002   7.726   8.625   5.897  0.4977 -0.3120 -0.1340
 4921SOL    HW122003   7.810   8.671   5.890  0.1296  0.5407  0.8476
 4921SOL    HW222004   7.701   8.608   5.806  0.2971  2.0996 -0.5922
 4922SOL     OW22005  10.137   6.817   5.919 -0.4316  0.3895  0.3065
 4922SOL    HW122006  10.176   6.730   5.913 -2.0198 -0.2874 -1.1501
 4922SOL    HW222007  10.065   6.807   5.981 -1.1211  0.4492 -0.4767
 4923SOL     OW22008   1.214   2.187  11.822 -0.0501 -0.4488  0.1136
 4923SOL    HW122009   1.276   2.202  11.894  0.1642 -1.3952  0.1408
 4923SOL    HW222010   1.129   2.213  11.858  0.2293  0.1831  0.3183
 4924SOL     OW22011   8.332   3.035   4.895  0.1420  0.5196 -0.4180
 4924SOL    HW122012   8.256   3.060   4.948  0.9364  0.9899  0.5419
 4924SOL    HW222013   8.336   2.940   4.903  0.7063  0.6330  1.0760
 4925SOL     OW22014   6.957   3.035   8.868 -0.3869 -0.2040 -0.1085
 4925SOL    HW122015   6.925   3.007   8.782 -0.8281  0.4930 -0.1778
 4925SOL    HW222016   6.950   3.130   8.866 -0.1492 -0.1689  0.6075
 4926SOL     OW22017  12.661   7.367   9.769  0.3904 -0.7089  0.0358
 4926SOL    HW122018  12.675   7.291   9.825 -0.2852 -0.2614  0.8322
 4926SOL    HW222019  12.570   7.392   9.785  0.6990  0.4576  0.0171
 4927SOL     OW22020  10.983   4.614  10.653  0.0205 -0.3357 -0.1343
 4927SOL    HW122021  10.944   4.594  10.568  0.5996  0.8577 -0.7015
 4927SOL    HW222022  11.056   4.673  10.633  0.7062 -0.7245  1.1130
 4928SOL     OW22023   3.169  12.153   7.726  0.0413  0.1216 -0.5987
 4928SOL    HW122024   3.250  12.112   7.755 -0.6427  0.4358  2.0125
 4928SOL    HW222025   3.196  12.213   7.656  1.9462 -0.2867 -0.2609
 4929SOL     OW22026   3.478   5.794   6.145 -0.9619  0.5194 -0.4331
 4929SOL    HW122027   3.493   5.827   6.234  2.3774 -2.3738  0.3111
 4929SOL    HW222028   3.422   5.716   6.158 -1.0368  0.4854 -0.9567
 4930SOL     OW22029   6.151   3.226  10.595 -0.1894  0.3895 -0.3599
 4930SOL    HW122030   6.184   3.300  10.545  1.0754  0.8154  1.0376
 4930SOL    HW222031   6.229   3.186  10.634 -1.1104  0.1505  1.3470
 4931SOL     OW22032   7.672   7.865  11.701 -0.0623  0.0407  0.5315
 4931SOL    HW122033   7.643   7.839  11.789 -0.0635  1.1530  0.8739
 4931SOL    HW222034   7.763   7.836  11.696 -0.1561 -0.2949  0.7911
 4932SOL     OW22035   4.873   5.446   5.410 -0.0320  0.2670  0.3859
 4932SOL    HW122036   4.880   5.384   5.482  0.9701 -0.5442 -0.3798
 4932SOL    HW222037   4.780   5.445   5.386 -0.3805  0.5750  1.6703
 4933SOL     OW22038   6.568  11.287   0.265  0.2592 -0.3727 -0.0431
 4933SOL    HW122039   6.557  11.277   0.360 -1.9262  0.3760 -0.1618
 4933SOL    HW222040   6.583  11.380   0.252 -1.7063 -0.0693 -0.5375
 4934SOL     OW22041   8.170   6.613   0.578  0.3076  0.5373  0.2540
 4934SOL    HW122042   8.211   6.558   0.511 -1.4746  1.4633 -1.7013
 4934SOL    HW222043   8.184   6.566   0.660  1.1171 -1.4869 -0.9835
 4935SOL     OW22044   7.550   8.462   3.615  0.0349  0.5023  0.2525
 4935SOL    HW122045   7.641   8.487   3.601 -0.1397  0.5380 -0.9357
 4935SOL    HW222046   7.513   8.455   3.527 -0.3348 -2.3991  0.5398
 4936SOL     OW22047   4.661   9.267  10.888  0.0710 -0.0809  0.3414
 4936SOL    HW122048   4.730   9.202  10.872 -1.2017 -1.3410 -0.1916
 4936SOL    HW222049   4.700   9.350  10.860  2.1084 -0.3848  1.9748
 4937SOL     OW22050  12.674   9.402   6.939  0.0694  0.2524  0.1492
 4937SOL    HW122051  12.693   9.328   6.996 -0.6122 -0.9570 -1.1299
 4937SOL    HW222052  12.733   9.391   6.864 -0.9083  0.2776 -0.6460
 4938SOL     OW22053  10.752   5.620   5.885  0.4365 -0.3906 -1.0508
 4938SOL    HW122054  10.805   5.545   5.858 -2.8997 -2.9232 -1.1893
 4938SOL    HW222055  10.724   5.661   5.803  2.1389  1.0213 -0.9773
 4939SOL     OW22056   1.382   4.276  11.969  0.6235  0.1248  0.4220
 4939SOL    HW122057   1.341   4.348  12.016  0.4991  0.4830 -0.2305
 4939SOL    HW222058   1.392   4.207  12.035 -3.4067 -1.0052  0.1041
 4940SOL     OW22059   0.850   8.644   0.145  0.2024 -0.5017  0.5484
 4940SOL    HW122060   0.922   8.686   0.193  0.4538 -1.6871  1.2713
 4940SOL    HW222061   0.773   8.659   0.200  0.0900 -0.0770  0.2733
 4941SOL     OW22062   1.646   8.514   3.886  0.4241  0.2853  0.3858
 4941SOL    HW122063   1.708   8.461   3.938 -1.9582 -1.7529  1.3265
 4941SOL    HW222064   1.608   8.574   3.950 -0.1063  0.0557  0.2867
 4942SOL     OW22065   5.873   2.254   7.735  0.2044 -0.1877 -0.3952
 4942SOL    HW122066   5.818   2.177   7.720 -0.1530 -0.0204  0.0280
 4942SOL    HW222067   5.827   2.325   7.691  0.9128 -0.3420 -1.4292
 4943SOL     OW22068   9.656   6.005  11.697 -0.2072  0.4283  0.5396
 4943SOL    HW122069   9.653   6.101  11.698 -1.2480  0.4223 -0.2423
 4943SOL    HW222070   9.747   5.984  11.717  0.4825  1.6357 -1.0298
 4944SOL     OW22071  11.253   0.256   1.119  0.6365  0.1663  0.2412
 4944SOL    HW122072  11.199   0.181   1.144 -0.1924  0.4776 -0.5358
 4944SOL    HW222073  11.333   0.217   1.083  1.0424 -0.3001  1.5810
 4945SOL     OW22074  12.206  11.117   6.671  0.3936  0.5421  0.1310
 4945SOL    HW122075  12.229  11.170   6.595  0.2474 -0.3580 -0.5631
 4945SOL    HW222076  12.275  11.133   6.735  0.4400  1.4213 -0.1332
 4946SOL     OW22077   1.714   7.780   4.944 -0.1878 -0.7758  0.1326
 4946SOL    HW122078   1.652   7.708   4.949 -0.1524 -0.7424  1.3176
 4946SOL    HW222079   1.790   7.750   4.993  0.0067 -0.1036  0.2574
 4947SOL     OW22080   9.787   6.863   2.778 -0.3939 -0.4096  0.4718
 4947SOL    HW122081   9.863   6.850   2.722 -1.2738 -0.9858 -0.6275
 4947SOL    HW222082   9.819   6.844   2.866  0.8340 -0.2154  0.0858
 4948SOL     OW22083   8.177   8.578   3.248 -0.2237  0.2831  0.1685
 4948SOL    HW122084   8.228   8.585   3.329  0.9402 -0.5626 -0.4636
 4948SOL    HW222085   8.243   8.580   3.178 -0.9554 -1.8955 -0.6408
 4949SOL     OW22086  11.482   0.325   2.823 -0.2084  0.4532  0.5307
 4949SOL    HW122087  11.395   0.304   2.857 -0.4764  0.2298 -0.2691
 4949SOL    HW222088  11.534   0.247   2.839 -0.2198  0.5036  0.8081
 4950SOL     OW22089   2.853   9.611  11.637 -0.2870  0.0947  0.4805
 4950SOL    HW122090   2.945   9.591  11.617 -0.4821  0.0549 -0.4203
 4950SOL    HW222091   2.808   9.600  11.553 -0.4737  4.1512 -0.1406
 4951SOL     OW22092   8.182  10.095  10.401  0.4585 -0.1864  0.5403
 4951SOL    HW122093   8.166  10.021  10.460  0.6398 -1.3111 -0.7553
 4951SOL    HW222094   8.122  10.163  10.430  0.0415 -0.9643  1.5545
 4952SOL     OW22095  11.414   7.734   5.175  0.0312 -0.4269 -0.4723
 4952SOL    HW122096  11.374   7.725   5.089  0.1414  1.0064 -0.7078
 4952SOL    HW222097  11.502   7.769   5.157 -0.4286  1.2009  0.2487
 4953SOL     OW22098   4.929   4.521  10.873  0.8719  0.4588 -0.3058
 4953SOL    HW122099   4.927   4.506  10.967  1.8715 -0.6736 -0.4259
 4953SOL    HW222100   4.868   4.592  10.858 -1.0031 -0.7926  0.9297
 4954SOL     OW22101   0.614   2.698   0.744 -0.1165  0.4220  0.1778
 4954SOL    HW122102   0.566   2.615   0.750 -0.3429  0.4233 -1.2710
 4954SOL    HW222103   0.694   2.684   0.794 -0.1794 -0.6535 -0.0119
 4955SOL     OW22104   7.259   6.566   9.681  0.0023  0.6186  0.4890
 4955SOL    HW122105   7.293   6.493   9.630  0.6606  1.0709  0.2566
 4955SOL    HW222106   7.321   6.637   9.665 -0.4320  1.1237  0.9845
 4956SOL     OW22107   0.096  11.578   9.681  0.2413  0.2075 -0.5983
 4956SOL    HW122108   0.130  11.489   9.683 -0.2064  0.0382 -0.6294
 4956SOL    HW222109   0.089  11.600   9.588  1.2289  0.6120 -0.5915
 4957SOL     OW22110  10.207   3.341   9.770 -0.4891  0.2807 -0.4144
 4957SOL    HW122111  10.117   3.311   9.761 -0.2645 -0.5962  0.1062
 4957SOL    HW222112  10.259   3.268   9.736  0.0517  0.3954  0.1495
 4958SOL     OW22113   8.844   9.453   7.285 -0.1341 -0.8672  0.1132
 4958SOL    HW122114   8.834   9.361   7.259 -0.0504 -0.6990 -0.5224
 4958SOL    HW222115   8.754   9.485   7.295 -0.2170 -1.7432  3.0349
 4959SOL     OW22116   0.373   4.580   9.242 -0.9633  0.5316  0.0231
 4959SOL    HW122117   0.369   4.675   9.250  2.1423  0.8420 -0.7574
 4959SOL    HW222118   0.437   4.552   9.307  1.9150 -0.3237 -2.8937
 4960SOL     OW22119   6.207   8.362   3.986 -0.4723  0.1449 -0.3784
 4960SOL    HW122120   6.287   8.363   3.934 -0.5741 -0.2158 -0.5409
 4960SOL    HW222121   6.226   8.421   4.059 -0.3530  0.7103 -0.8566
 4961SOL     OW22122   7.831   4.532   4.556 -0.2187  0.2959 -0.8385
 4961SOL    HW122123   7.879   4.582   4.490 -1.0684  0.6691 -1.1929
 4961SOL    HW222124   7.885   4.454   4.572  0.2767  0.4866 -1.5553
 4962SOL     OW22125   7.650  10.194  11.523 -0.4334  0.4213  0.6080
 4962SOL    HW122126   7.558  10.217  11.539 -0.2489  1.3667  0.3967
 4962SOL    HW222127   7.699  10.271  11.552  0.3168 -0.1837  0.9711
 4963SOL     OW22128  11.549   2.493   1.095 -0.0160 -0.4913  0.5071
 4963SOL    HW122129  11.630   2.543   1.100  0.4848 -1.2962  0.6405
 4963SOL    HW222130  11.493   2.532   1.163 -0.4870  1.3268 -0.8601
 4964SOL     OW22131  11.624   1.979   5.854  0.0210  0.7075  0.0808
 4964SOL    HW122132  11.576   2.058   5.828  0.2318  1.1813  1.0750
 4964SOL    HW222133  11.559   1.924   5.898 -0.5639 -0.5192 -2.1836
 4965SOL     OW22134   4.212  12.579   0.041  0.7767 -0.0400  0.1601
 4965SOL    HW122135   4.252  12.650  -0.009 -2.2010  1.4643 -0.3323
 4965SOL    HW222136   4.184  12.619   0.123 -1.0733 -0.5416 -0.1700
 4966SOL     OW22137   3.913   6.200   3.671  0.4326 -0.1606 -0.7934
 4966SOL    HW122138   3.881   6.282   3.634 -0.1039 -0.6708 -1.5057
 4966SOL    HW222139   3.836   6.157   3.706  0.5549 -0.7697 -1.2533
 4967SOL     OW22140   7.552  10.991   3.273 -0.4936 -0.0943 -0.4350
 4967SOL    HW122141   7.601  11.031   3.344 -1.5266  0.1443  0.1497
 4967SOL    HW222142   7.511  11.064   3.227 -1.3640 -0.3664 -0.1197
 4968SOL     OW22143   7.529   7.703   6.377 -0.2884 -0.3217 -0.1697
 4968SOL    HW122144   7.558   7.793   6.393 -0.3496  0.0568 -1.9575
 4968SOL    HW222145   7.609   7.655   6.358 -0.4717  0.1010 -2.3190
 4969SOL     OW22146   0.863   9.189   8.226  0.5578  0.0087 -0.2262
 4969SOL    HW122147   0.938   9.229   8.271  0.7085 -0.6789  0.1514
 4969SOL    HW222148   0.886   9.097   8.221  0.5426  0.0686 -1.7318
 4970SOL     OW22149   9.011  10.535   9.858  0.2125 -0.2172  0.3945
 4970SOL    HW122150   8.996  10.567   9.769 -1.2771  0.9313  1.0108
 4970SOL    HW222151   9.000  10.440   9.852 -1.1099 -0.0389 -0.4420
 4971SOL     OW22152   2.952  11.171   9.638 -0.9297  0.2724  0.2910
 4971SOL    HW122153   2.978  11.199   9.726  1.2219 -1.8862  0.4595
 4971SOL    HW222154   3.027  11.194   9.583 -1.6996  0.3988 -0.7344
 4972SOL     OW22155   5.755  11.688   8.015  0.1617  0.0440  0.3636
 4972SOL    HW122156   5.775  11.694   7.922  1.4557 -1.3870  0.4959
 4972SOL    HW222157   5.675  11.739   8.026 -1.4403 -1.7366 -1.9588
 4973SOL     OW22158   5.385   7.251   0.109 -0.5674 -0.4819  0.1150
 4973SOL    HW122159   5.316   7.263   0.175 -1.3226  1.0220 -0.8836
 4973SOL    HW222160   5.411   7.340   0.085  1.2417 -1.0197 -0.0615
 4974SOL     OW22161   5.088   2.347  12.151 -0.5941 -0.2090  0.2400
 4974SOL    HW122162   5.024   2.393  12.205  1.0392  1.9971  0.4350
 4974SOL    HW222163   5.133   2.288  12.211 -0.4065  0.4872  0.8019
 4975SOL     OW22164   3.033  10.440   2.699 -0.2270 -0.1958  0.4495
 4975SOL    HW122165   2.995  10.482   2.777  2.9228  0.6962  1.6829
 4975SOL    HW222166   3.105  10.498   2.674  0.0227 -1.4576 -2.0449
 4976SOL     OW22167   7.770   9.487  11.278  0.0395 -0.0649  0.0559
 4976SOL    HW122168   7.809   9.411  11.235 -0.7073 -0.8531  0.7157
 4976SOL    HW222169   7.756   9.550  11.208 -0.4914 -1.0406 -0.7519
 4977SOL     OW22170   8.537  11.338   0.878 -0.4492 -0.2687  0.5089
 4977SOL    HW122171   8.519  11.373   0.791 -1.3386 -2.8123 -0.4315
 4977SOL    HW222172   8.632  11.345   0.888 -0.5302  1.9955  0.2907
 4978SOL     OW22173   9.477   6.521   2.394 -0.6070 -0.8870  0.1366
 4978SOL    HW122174   9.456   6.459   2.325 -1.0353 -0.3266 -0.2478
 4978SOL    HW222175   9.558   6.488   2.433 -0.1105 -0.9576 -0.9350
 4979SOL     OW22176   5.363   0.908   0.375  0.4773  0.3025  0.3195
 4979SOL    HW122177   5.304   0.838   0.403  1.2352 -0.6762 -0.4366
 4979SOL    HW222178   5.444   0.892   0.424 -0.0067  1.9638  1.7717
 4980SOL     OW22179   8.683   6.492  11.213 -0.5421  0.2918  0.3164
 4980SOL    HW122180   8.701   6.583  11.237 -0.2174  0.1810  0.4902
 4980SOL    HW222181   8.696   6.489  11.118 -1.8035  0.7246  0.1099
 4981SOL     OW22182   9.707  10.427  12.240 -0.1122 -0.1228 -0.0157
 4981SOL    HW122183   9.727  10.461  12.153 -1.9682  1.0031 -0.0628
 4981SOL    HW222184   9.748  10.489  12.300 -1.3608  0.8620 -0.1225
 4982SOL     OW22185  10.764  10.335  12.018  0.6317 -0.0360 -0.3862
 4982SOL    HW122186  10.796  10.421  11.991 -1.0375  0.3875 -1.1396
 4982SOL    HW222187  10.778  10.279  11.941 -0.0394  0.0512 -0.5754
 4983SOL     OW22188   8.938   8.442   8.587  0.2084 -0.4019 -0.3905
 4983SOL    HW122189   8.898   8.361   8.556 -1.2028  0.3970 -0.7576
 4983SOL    HW222190   9.010   8.458   8.526 -0.7870 -0.3262 -1.5960
 4984SOL     OW22191   5.048   7.907   4.919  0.6230  0.8255 -0.7541
 4984SOL    HW122192   5.076   7.995   4.893 -0.3984  0.7435 -2.2872
 4984SOL    HW222193   4.962   7.896   4.877  0.6297 -0.8130 -0.4109
 4985SOL     OW22194   9.092  11.039   3.373 -0.0473 -0.0811  0.2049
 4985SOL    HW122195   9.009  11.006   3.407  1.0830 -0.9811  2.2904
 4985SOL    HW222196   9.087  11.134   3.383 -0.0702 -0.2614  2.3038
 4986SOL     OW22197   8.847   4.758  10.549 -0.5512  0.2450 -0.3267
 4986SOL    HW122198   8.839   4.843  10.590 -1.6916  0.4618 -0.9377
 4986SOL    HW222199   8.941   4.739  10.550 -0.4973  0.3433  2.0823
 4987SOL     OW22200   2.344   3.600   3.912 -0.3697  0.1691  0.2107
 4987SOL    HW122201   2.406   3.633   3.848  2.9132 -1.7061  2.1456
 4987SOL    HW222202   2.315   3.516   3.877  2.0527 -1.2457  1.3627
 4988SOL     OW22203   5.145   2.768   2.530 -0.3576 -0.2867 -0.4495
 4988SOL    HW122204   5.185   2.690   2.492  0.6118 -0.0611  0.0697
 4988SOL    HW222205   5.108   2.738   2.613  1.4215  0.0870  0.5333
 4989SOL     OW22206   2.864   5.558  12.046 -0.1621  0.3524 -0.5339
 4989SOL    HW122207   2.811   5.501  12.101 -0.7239  0.5071 -0.9087
 4989SOL    HW222208   2.865   5.515  11.961  1.3179 -0.2714 -0.2436
 4990SOL     OW22209  11.612  11.967   8.753 -0.4849 -0.0738 -0.1340
 4990SOL    HW122210  11.678  12.036   8.755 -0.3035 -0.2439  2.2831
 4990SOL    HW222211  11.642  11.907   8.684  0.3685  1.2410 -0.9600
 4991SOL     OW22212   0.981   5.060   5.114 -0.0692 -0.6641 -0.1846
 4991SOL    HW122213   0.901   5.078   5.164 -1.0063 -1.8272 -1.2047
 4991SOL    HW222214   1.051   5.092   5.170 -1.3232  2.2266 -0.0835
 4992SOL     OW22215   0.756   5.315   8.359  0.1375 -0.0540  0.4350
 4992SOL    HW122216   0.771   5.290   8.451  0.9441 -2.1621 -0.2188
 4992SOL    HW222217   0.804   5.249   8.308  0.5049  1.6291 -1.5093
 4993SOL     OW22218   1.430   0.282   3.016 -0.0465  0.3551 -0.3700
 4993SOL    HW122219   1.383   0.365   3.008 -0.1105  0.5477  1.5082
 4993SOL    HW222220   1.404   0.248   3.102  1.4305 -0.6964 -0.3044
 4994SOL     OW22221  10.170  10.320   6.358  0.3758 -0.1991 -0.1790
 4994SOL    HW122222  10.154  10.298   6.450  2.0001 -0.6514  0.0269
 4994SOL    HW222223  10.135  10.247   6.309  2.4808 -1.6153  0.3025
 4995SOL     OW22224   5.431   0.710  10.097  0.0891  0.2760  0.0435
 4995SOL    HW122225   5.496   0.771  10.134 -1.1056  0.6261  1.7067
 4995SOL    HW222226   5.425   0.640  10.161 -0.9010  0.0595 -0.2727
 4996SOL     OW22227   9.276   4.020   5.388 -0.2721 -0.2459  0.4234
 4996SOL    HW122228   9.195   4.063   5.414 -0.3338 -0.1656  0.1083
 4996SOL    HW222229   9.248   3.938   5.347 -0.4059  0.9837 -2.1974
 4997SOL     OW22230   2.438   4.071   3.466  0.8961 -0.2650 -0.7721
 4997SOL    HW122231   2.517   4.112   3.503 -0.4414  0.1938  1.7830
 4997SOL    HW222232   2.377   4.144   3.453  0.3828 -0.7878 -1.3645
 4998SOL     OW22233   1.844   2.430  11.449 -0.6869  0.3689 -0.1692
 4998SOL    HW122234   1.868   2.372  11.522 -2.8375 -1.5780 -0.9031
 4998SOL    HW222235   1.927   2.446  11.404  0.4772  0.4987  1.8665
 4999SOL     OW22236   9.907   7.159   6.724  0.2650  0.1556 -0.1981
 4999SOL    HW122237   9.925   7.114   6.642 -0.4220 -0.7194  0.1166
 4999SOL    HW222238   9.991   7.161   6.770  0.3354 -0.6865 -0.2783
 5000SOL     OW22239   1.270  10.157  12.026 -0.2867 -0.0502  0.0918
 5000SOL    HW122240   1.280  10.243  12.067  0.6075 -0.0836 -0.0211
 5000SOL    HW222241   1.176  10.148  12.009 -0.3496  1.0382 -0.1816
 5001SOL     OW22242   9.371   6.923   7.475 -0.0322 -0.2465  0.1652
 5001SOL    HW122243   9.280   6.931   7.448 -0.1984 -0.3615  0.6786
 5001SOL    HW222244   9.415   6.999   7.437 -0.1849 -0.5828 -0.7087
 5002SOL     OW22245  12.508   7.865   5.442 -0.2269 -0.1773 -0.6466
 5002SOL    HW122246  12.459   7.848   5.522  1.0435 -0.4787  0.0976
 5002SOL    HW222247  12.500   7.959   5.428 -0.3482 -0.1011 -0.0758
 5003SOL     OW22248   8.902   5.063  12.617  1.1088  0.5787  0.2889
 5003SOL    HW122249   8.899   5.030  12.528  1.5425 -0.4883  0.6548
 5003SOL    HW222250   8.994   5.054  12.643  0.5797 -1.5319  1.6873
 5004SOL     OW22251   8.331   8.604   2.725  0.1698 -0.3097 -0.5333
 5004SOL    HW122252   8.350   8.533   2.787  1.1036 -0.6454 -1.1787
 5004SOL    HW222253   8.259   8.653   2.766  0.0698 -1.1341  0.3150
 5005SOL     OW22254   2.441   4.954   2.688  0.2175  0.2546  0.0053
 5005SOL    HW122255   2.353   4.961   2.725 -0.1958  0.0421 -0.9122
 5005SOL    HW222256   2.429   4.908   2.605  1.3993 -1.2659  0.6229
 5006SOL     OW22257   8.108   8.725   5.282  0.2847  0.1120 -0.0356
 5006SOL    HW122258   8.164   8.697   5.354 -0.2480 -0.3979  0.1903
 5006SOL    HW222259   8.063   8.645   5.254  0.4596  0.3130 -0.9107
 5007SOL     OW22260  10.272   7.253   4.896  0.3627 -0.1897 -0.4186
 5007SOL    HW122261  10.197   7.311   4.891  0.1582 -0.3085  0.8752
 5007SOL    HW222262  10.235   7.167   4.915  0.6076 -0.9402 -2.8879
 5008SOL     OW22263  12.681   8.434  11.745  0.2270  0.1458  0.1716
 5008SOL    HW122264  12.636   8.518  11.756  0.0018  0.1529 -0.7279
 5008SOL    HW222265  12.769   8.450  11.780 -0.0231  0.5490  0.6329
 5009SOL     OW22266   0.911  10.318   7.121  0.5138  0.3549  0.0609
 5009SOL    HW122267   0.915  10.276   7.207  0.5502  0.9490  0.3577
 5009SOL    HW222268   0.958  10.401   7.133 -1.3466  1.4577  0.0567
 5010SOL     OW22269   7.869   1.285   4.882  0.1960 -0.1840 -0.3422
 5010SOL    HW122270   7.957   1.257   4.906  0.0589  0.6866  1.2923
 5010SOL    HW222271   7.878   1.319   4.793  1.1063 -1.8529 -0.9217
 5011SOL     OW22272   6.385   9.870   0.158 -0.0940 -0.1296 -0.0683
 5011SOL    HW122273   6.465   9.908   0.194 -0.4284  0.2972  0.2483
 5011SOL    HW222274   6.352   9.936   0.098  0.1551 -0.5983 -0.7353
 5012SOL     OW22275   6.493   9.796   8.920  0.3287 -0.2592 -0.1872
 5012SOL    HW122276   6.407   9.760   8.942  0.5263 -1.3765 -1.1002
 5012SOL    HW222277   6.493   9.798   8.824  1.1941  0.0344 -0.1812
 5013SOL     OW22278   1.628  11.456   4.708 -0.4222  0.1417  0.2953
 5013SOL    HW122279   1.594  11.388   4.650  0.3426 -1.0365  1.1810
 5013SOL    HW222280   1.584  11.439   4.792 -0.7276  1.1744  0.3643
 5014SOL     OW22281  11.551   5.154  11.165  0.0761  0.0745 -0.6885
 5014SOL    HW122282  11.581   5.111  11.245  0.9230  1.2279 -0.3545
 5014SOL    HW222283  11.515   5.238  11.194  1.4422  1.0307 -1.5673
 5015SOL     OW22284   8.640  11.602   9.986  0.2374 -0.3878  0.2544
 5015SOL    HW122285   8.587  11.649  10.050 -1.5493  0.1225 -1.5012
 5015SOL    HW222286   8.693  11.670   9.944 -1.4192 -0.0672 -1.4106
 5016SOL     OW22287   4.864   4.471   4.903 -0.3539  0.2015  0.2991
 5016SOL    HW122288   4.771   4.484   4.922 -0.6465 -1.3422  0.1023
 5016SOL    HW222289   4.887   4.539   4.841 -0.8854  1.7001  1.6837
 5017SOL     OW22290   9.528   6.234  12.280  0.2897  0.4640 -0.6951
 5017SOL    HW122291   9.539   6.300  12.212  0.7629 -0.5338 -1.6125
 5017SOL    HW222292   9.499   6.156  12.233  0.5648 -0.2291  0.2575
 5018SOL     OW22293   2.102  11.564  10.286 -0.1673  0.2328 -0.0240
 5018SOL    HW122294   2.026  11.585  10.341  0.1807 -0.0139  0.5533
 5018SOL    HW222295   2.162  11.637  10.298 -0.1106  0.2041 -0.1267
 5019SOL     OW22296   9.008  12.458   3.933 -0.0401  0.1620  0.3574
 5019SOL    HW122297   8.974  12.451   3.843  0.0276  0.2021  0.3286
 5019SOL    HW222298   8.964  12.536   3.968  0.8213  0.8552 -0.0371
 5020SOL     OW22299   9.600   6.776  10.648 -0.2544  0.7104  0.3863
 5020SOL    HW122300   9.522   6.748  10.602 -0.0523  0.0879  0.4203
 5020SOL    HW222301   9.673   6.745  10.594 -0.0170  0.0473  1.0719
 5021SOL     OW22302   4.163   7.741  10.003  0.1398 -0.2672 -0.8965
 5021SOL    HW122303   4.104   7.669   9.976  0.5876 -1.2874  0.7071
 5021SOL    HW222304   4.240   7.697  10.037 -0.4666  0.8620  2.2219
 5022SOL     OW22305   0.197   2.047  10.836 -0.7293  0.7246  0.4810
 5022SOL    HW122306   0.216   2.028  10.744  0.0049  2.4481  0.2242
 5022SOL    HW222307   0.251   2.123  10.856 -0.4991  0.0826  2.5090
 5023SOL     OW22308   6.767   0.099   1.729  0.3817  0.0104 -0.4652
 5023SOL    HW122309   6.806   0.021   1.691 -0.8962 -1.5127  1.1782
 5023SOL    HW222310   6.795   0.099   1.820  0.3547  1.5042 -0.4170
 5024SOL     OW22311   5.899   5.700   2.122  0.5136  1.0031  0.2485
 5024SOL    HW122312   5.989   5.725   2.142  0.3971  0.3495  1.7349
 5024SOL    HW222313   5.846   5.759   2.175 -0.0638  2.5821 -1.9216
 5025SOL     OW22314   0.871   0.571   8.483 -0.4571  0.0665  0.4326
 5025SOL    HW122315   0.943   0.536   8.536  0.0445 -0.0516 -0.3196
 5025SOL    HW222316   0.914   0.619   8.413 -1.1039 -0.3637 -0.2714
 5026SOL     OW22317   4.025   8.981   6.084 -0.5794 -0.6380  0.5382
 5026SOL    HW122318   4.120   8.986   6.079 -0.3460 -3.8823 -0.4730
 5026SOL    HW222319   3.994   9.047   6.021  0.9808 -0.1246  0.2572
 5027SOL     OW22320   4.188  12.130   2.206  0.0514  0.1522 -0.1583
 5027SOL    HW122321   4.180  12.045   2.162 -0.4697  0.5016 -0.7568
 5027SOL    HW222322   4.133  12.189   2.154 -1.8856  0.2433  1.8672
 5028SOL     OW22323  11.582   5.441   7.228 -0.3682  0.8360  0.1273
 5028SOL    HW122324  11.604   5.494   7.305  0.2453  1.7167 -0.6198
 5028SOL    HW222325  11.667   5.420   7.189 -0.6535  0.0752 -0.0984
 5029SOL     OW22326   0.230  11.222   2.497  0.1376  0.0415 -0.0562
 5029SOL    HW122327   0.221  11.316   2.481  1.1960  0.4720  1.5790
 5029SOL    HW222328   0.151  11.197   2.544  0.0269  0.1963 -0.1604
 5030SOL     OW22329   1.981   3.722   4.736  0.3137 -0.6267 -0.1910
 5030SOL    HW122330   1.957   3.722   4.644  0.2792 -0.6606 -0.1817
 5030SOL    HW222331   1.969   3.813   4.763  2.1896 -0.1786 -0.7089
 5031SOL     OW22332  11.811   4.462   7.532  0.2537  0.1289 -0.5207
 5031SOL    HW122333  11.886   4.443   7.589  0.7016  1.3186 -0.6892
 5031SOL    HW222334  11.830   4.416   7.451  0.1361 -0.6853 -0.0993
 5032SOL     OW22335   6.985   8.055   9.343 -0.6410  0.2442  0.3424
 5032SOL    HW122336   7.055   8.011   9.295 -1.5144 -0.0425 -0.7212
 5032SOL    HW222337   7.022   8.141   9.366  1.0715 -0.9295  2.4077
 5033SOL     OW22338   4.474   3.633   3.195  0.2948  0.3197 -0.0139
 5033SOL    HW122339   4.529   3.702   3.159  0.7629 -0.0169  0.0387
 5033SOL    HW222340   4.509   3.617   3.282 -1.2528  1.5909  0.8964
 5034SOL     OW22341  10.176   9.996   4.532 -0.1385 -0.5807  0.1410
 5034SOL    HW122342  10.097  10.024   4.577 -0.6006  0.1318 -1.0535
 5034SOL    HW222343  10.238  10.067   4.547 -0.7403  0.3275 -1.4309
 5035SOL     OW22344   5.396   6.456   3.749  0.4940  0.1485  0.4125
 5035SOL    HW122345   5.440   6.371   3.747  0.7456  0.2881 -0.9722
 5035SOL    HW222346   5.468   6.519   3.760  0.3209  0.2066  1.3055
 5036SOL     OW22347  11.799   7.446   7.969  0.5160 -0.2325  0.3440
 5036SOL    HW122348  11.781   7.353   7.984  0.2336 -0.3908 -0.8295
 5036SOL    HW222349  11.742   7.493   8.029 -0.7460 -0.8031 -0.3829
 5037SOL     OW22350   3.669   5.917   1.424  0.3472  0.2764  0.6970
 5037SOL    HW122351   3.683   5.922   1.329  0.8583  0.5357  0.7831
 5037SOL    HW222352   3.575   5.905   1.433  0.3159  0.0398  0.1480
 5038SOL     OW22353  11.324   9.372   7.564 -0.2694 -0.1635 -0.4189
 5038SOL    HW122354  11.262   9.341   7.499  0.3115 -1.5197 -0.3578
 5038SOL    HW222355  11.405   9.386   7.515  0.5819 -2.5284  0.1701
 5039SOL     OW22356  10.602  12.570   9.834 -0.0126  0.1519  0.1754
 5039SOL    HW122357  10.544  12.593   9.907  0.6756 -0.9653  1.0941
 5039SOL    HW222358  10.633  12.482   9.854 -0.7359 -0.6840 -2.0708
 5040SOL     OW22359   0.881  11.350   6.094  0.1867 -0.4532 -0.1372
 5040SOL    HW122360   0.845  11.384   6.176 -0.6487 -1.4881 -0.0515
 5040SOL    HW222361   0.825  11.275   6.072  1.1241 -0.9216 -1.0322
 5041SOL     OW22362   6.659   0.300   3.743 -0.2938 -0.0885 -0.1708
 5041SOL    HW122363   6.605   0.290   3.665  1.1595 -0.0055 -1.2211
 5041SOL    HW222364   6.658   0.213   3.784 -4.8757  0.8637  2.4413
 5042SOL     OW22365  11.019   8.998  10.940  0.5247 -0.3051 -0.2704
 5042SOL    HW122366  11.108   8.993  10.905  0.9047  0.0306  0.6167
 5042SOL    HW222367  11.023   8.950  11.022 -0.6778 -2.2240 -1.2698
 5043SOL     OW22368   5.056   4.059   8.061 -0.5202  0.4360  0.0651
 5043SOL    HW122369   4.983   4.113   8.033 -0.0448  0.8255 -0.4232
 5043SOL    HW222370   5.133   4.097   8.020 -0.1147 -0.3364  0.0769
 5044SOL     OW22371   6.452   9.266   1.836 -0.3255 -0.2647 -0.5453
 5044SOL    HW122372   6.443   9.174   1.811 -0.8239 -0.3093 -0.2308
 5044SOL    HW222373   6.468   9.264   1.931 -0.5371 -0.0241 -0.5018
 5045SOL     OW22374   0.985   2.989   7.473 -0.5202 -0.3440  0.1570
 5045SOL    HW122375   0.912   3.000   7.412 -0.6639 -0.3065  0.3352
 5045SOL    HW222376   0.944   2.959   7.554 -0.5967  1.6842  0.9192
 5046SOL     OW22377   7.342   8.565   7.938  0.1123  0.0150 -0.1422
 5046SOL    HW122378   7.297   8.490   7.900 -0.4896 -0.6223  1.7382
 5046SOL    HW222379   7.422   8.529   7.975  0.7243  0.6419 -0.7991
 5047SOL     OW22380  11.740   1.023  11.816 -0.3434 -0.3840 -0.2978
 5047SOL    HW122381  11.789   1.100  11.787 -0.2820 -0.3007  0.0300
 5047SOL    HW222382  11.793   0.949  11.786  0.5904 -0.3002  1.0548
 5048SOL     OW22383   8.972   8.232   7.300  0.2255  0.0508  0.2220
 5048SOL    HW122384   8.996   8.216   7.209  0.7562  0.1584  0.3401
 5048SOL    HW222385   9.055   8.247   7.345  0.1025 -1.5344  1.0454
 5049SOL     OW22386   9.375   3.205   0.454 -0.1222  0.1452  0.1031
 5049SOL    HW122387   9.460   3.199   0.499 -0.8214  0.6108  1.5532
 5049SOL    HW222388   9.346   3.115   0.445  1.1798 -0.1419 -1.7810
 5050SOL     OW22389   2.267   2.883  12.454  0.0901  0.3413 -0.0178
 5050SOL    HW122390   2.211   2.814  12.489 -0.4005  0.2848 -0.8895
 5050SOL    HW222391   2.349   2.874  12.502 -1.0474  1.2485  2.2056
 5051SOL     OW22392   6.561   8.889   0.474  0.2351  0.3405 -0.5245
 5051SOL    HW122393   6.504   8.908   0.548  2.4642  0.6719  1.1817
 5051SOL    HW222394   6.539   8.955   0.409 -0.1848  1.4987  0.7548
 5052SOL     OW22395   6.148   1.670   9.323 -0.3750 -0.1027 -0.2906
 5052SOL    HW122396   6.180   1.599   9.378 -0.3829  0.0409 -0.0999
 5052SOL    HW222397   6.072   1.634   9.278 -0.3863 -0.2103 -0.1836
 5053SOL     OW22398   8.640  12.386   6.928  0.7606  0.1187  0.2876
 5053SOL    HW122399   8.641  12.422   7.016  0.9143  0.1530  0.2718
 5053SOL    HW222400   8.547  12.385   6.903  0.7000 -0.0720  0.5217
 5054SOL     OW22401   3.400   5.080  11.267 -0.0108  0.2172 -0.4225
 5054SOL    HW122402   3.366   5.160  11.307 -0.5843 -0.4502  0.4601
 5054SOL    HW222403   3.492   5.078  11.293 -0.8975 -1.4997  3.2089
 5055SOL     OW22404   2.913   7.378   3.027 -0.0914  0.4361  0.1636
 5055SOL    HW122405   3.000   7.384   2.987 -0.1810  0.4434 -0.0304
 5055SOL    HW222406   2.921   7.308   3.091  0.2010  0.7829  0.5113
 5056SOL     OW22407  11.969   0.988   0.228 -0.3914  0.2420  0.2718
 5056SOL    HW122408  11.917   0.982   0.308  1.3488  2.6787  1.7088
 5056SOL    HW222409  12.059   0.988   0.258  0.3038  1.8943 -1.6087
 5057SOL     OW22410  10.620   4.857   8.048 -0.2138  0.2518  0.4607
 5057SOL    HW122411  10.704   4.856   8.093 -0.6492  0.0294  1.2885
 5057SOL    HW222412  10.567   4.919   8.098 -0.4631  0.6055 -0.2210
 5058SOL     OW22413   0.540   2.487   4.656  0.1017  0.1448  0.0182
 5058SOL    HW122414   0.461   2.436   4.639  0.0884  0.5767 -1.3966
 5058SOL    HW222415   0.538   2.556   4.590  1.9083 -0.1296 -0.3811
 5059SOL     OW22416  10.192   8.767   7.688  0.4271  0.1108  0.2955
 5059SOL    HW122417  10.116   8.787   7.742  0.3067  0.1098  0.1242
 5059SOL    HW222418  10.201   8.672   7.694  0.5542  0.1341  0.5031
 5060SOL     OW22419   9.050   0.854   0.569  0.0284 -0.5234 -0.4885
 5060SOL    HW122420   9.133   0.821   0.602 -0.1909  0.3642  1.0659
 5060SOL    HW222421   9.002   0.882   0.648 -0.9892  0.6565 -1.4785
 5061SOL     OW22422   2.649   1.013  11.569 -0.3108 -0.7174 -0.0263
 5061SOL    HW122423   2.573   1.053  11.528  1.2969 -0.2896 -2.8335
 5061SOL    HW222424   2.695   1.085  11.612 -0.9809 -0.8313  0.9188
 5062SOL     OW22425   7.091   4.260   6.740 -0.0714  0.2345 -0.5634
 5062SOL    HW122426   7.134   4.323   6.798 -0.6178 -0.7840  1.0090
 5062SOL    HW222427   7.001   4.256   6.772  0.1194 -1.8733 -0.1554
 5063SOL     OW22428  10.452  12.117   5.755  0.4672  0.4841 -0.0250
 5063SOL    HW122429  10.463  12.060   5.832  1.8741 -0.0285 -0.5878
 5063SOL    HW222430  10.486  12.066   5.682  4.5520  2.9696 -0.1877
 5064SOL     OW22431   3.149   9.162   2.668 -0.0781 -0.3330 -0.0272
 5064SOL    HW122432   3.115   9.248   2.691 -1.7875 -0.7843 -0.7415
 5064SOL    HW222433   3.228   9.180   2.617 -0.4439  0.8126 -0.2075
 5065SOL     OW22434   0.139   9.732   9.765  0.2344 -0.5599  0.2978
 5065SOL    HW122435   0.221   9.693   9.795 -0.0549 -0.2982  1.4853
 5065SOL    HW222436   0.087   9.743   9.845 -0.8757 -0.5287 -0.4095
 5066SOL     OW22437   1.289  10.587   4.513 -0.0511  0.0532 -0.0882
 5066SOL    HW122438   1.197  10.579   4.536 -0.2566 -3.0014 -1.4259
 5066SOL    HW222439   1.334  10.525   4.570  1.3742  2.0434  1.0841
 5067SOL     OW22440  11.715   0.525   0.673  0.5588 -0.4464 -0.0833
 5067SOL    HW122441  11.644   0.550   0.733  0.8572  0.3846 -0.0607
 5067SOL    HW222442  11.786   0.497   0.731  1.1632  1.1786  0.0343
 5068SOL     OW22443   7.222   6.369   3.691 -0.6354 -0.8985  0.5779
 5068SOL    HW122444   7.130   6.344   3.699 -0.8486  0.3421  2.4731
 5068SOL    HW222445   7.268   6.315   3.754 -0.2947 -0.4297  0.7375
 5069SOL     OW22446  12.158   5.107   8.086  0.1639 -0.0149  0.4046
 5069SOL    HW122447  12.080   5.133   8.036 -0.0384 -0.8529  0.2669
 5069SOL    HW222448  12.212   5.060   8.024  1.1892  1.2599  0.2875
 5070SOL     OW22449   5.451   0.055   6.984  0.2802 -0.0755 -0.2819
 5070SOL    HW122450   5.467  -0.039   6.993  0.3148 -0.2569 -1.9441
 5070SOL    HW222451   5.429   0.084   7.073  0.5733 -1.5805  0.3178
 5071SOL     OW22452   2.924   0.739   9.443  0.0710  0.5630 -0.2823
 5071SOL    HW122453   2.989   0.809   9.432 -1.5040  2.2296  0.5551
 5071SOL    HW222454   2.911   0.704   9.355  1.9472  0.2656 -0.5021
 5072SOL     OW22455   0.944   8.403   3.464 -0.0945  0.2757 -0.0449
 5072SOL    HW122456   0.879   8.471   3.448  0.7373  0.8623 -1.0103
 5072SOL    HW222457   0.996   8.437   3.536 -0.9964 -0.3237  0.9302
 5073SOL     OW22458  12.441   5.807   0.592  0.0677 -0.5458 -0.2564
 5073SOL    HW122459  12.522   5.793   0.542  0.4565 -0.4862  0.3475
 5073SOL    HW222460  12.459   5.768   0.678 -0.9608 -1.5707 -0.4767
 5074SOL     OW22461   9.169   0.382   4.566 -0.3772 -0.4746  0.7202
 5074SOL    HW122462   9.162   0.438   4.489  0.6324 -2.1297 -0.6322
 5074SOL    HW222463   9.132   0.435   4.637 -1.7849  0.9172 -0.9538
 5075SOL     OW22464   8.891   3.059  10.404 -0.1059  0.2359 -0.1538
 5075SOL    HW122465   8.884   3.108  10.486 -0.2912 -0.9295  0.5365
 5075SOL    HW222466   8.981   3.028  10.401 -1.2632 -4.2235  2.3245
 5076SOL     OW22467   3.246   9.359   3.976 -0.0490  0.7917 -0.0920
 5076SOL    HW122468   3.259   9.454   3.974 -0.1173  0.7971 -0.2175
 5076SOL    HW222469   3.217   9.336   3.888  0.5487  0.5719 -0.2379
 5077SOL     OW22470   5.265   0.669   3.614  0.4786  0.2480 -0.7554
 5077SOL    HW122471   5.212   0.683   3.536 -1.6079  2.3932  0.9199
 5077SOL    HW222472   5.301   0.755   3.634 -1.6036  0.5484  2.3185
 5078SOL     OW22473   3.827   4.569  11.969 -0.3406  0.0024  0.1932
 5078SOL    HW122474   3.772   4.528  11.902 -0.8580  0.4750  0.3221
 5078SOL    HW222475   3.775   4.566  12.049 -0.4595  1.0399  0.1724
 5079SOL     OW22476   6.967   7.158   7.725  0.0703 -0.2251 -0.2620
 5079SOL    HW122477   6.909   7.212   7.779  0.4260  0.9390 -1.0108
 5079SOL    HW222478   6.910   7.087   7.694 -0.3169 -0.5034  1.0094
 5080SOL     OW22479   3.298  10.729  12.678 -0.3606  0.5901  0.3423
 5080SOL    HW122480   3.269  10.690  12.760 -1.4122 -3.1608 -1.5520
 5080SOL    HW222481   3.218  10.762  12.637 -0.0991  1.0092  0.1658
 5081SOL     OW22482  11.117   9.179   6.692  0.3590 -0.3243 -0.2436
 5081SOL    HW122483  11.158   9.254   6.735 -1.6416  0.9411 -0.4309
 5081SOL    HW222484  11.162   9.173   6.607 -0.8518  2.1227 -1.1801
 5082SOL     OW22485  12.470   1.146   8.523  0.3034  0.3204  0.1189
 5082SOL    HW122486  12.416   1.128   8.600  0.0821 -1.1262 -0.3432
 5082SOL    HW222487  12.541   1.201   8.556  0.8899 -1.2633  1.6256
 5083SOL     OW22488   7.899   6.737  10.378 -0.3460  0.2162 -0.3088
 5083SOL    HW122489   7.976   6.732  10.321  0.1928  1.6246  0.2520
 5083SOL    HW222490   7.931   6.712  10.464 -0.7714 -0.2744 -0.2915
 5084SOL     OW22491  10.671   6.571  11.402 -0.7624 -0.5187 -0.3487
 5084SOL    HW122492  10.623   6.559  11.320 -0.4564 -0.3172 -0.5553
 5084SOL    HW222493  10.621   6.519  11.466 -0.8713 -0.8612 -0.7069
 5085SOL     OW22494  11.878  11.194   5.945  0.1245 -0.4079 -0.1803
 5085SOL    HW122495  11.956  11.246   5.962  0.6231 -1.1452 -0.1701
 5085SOL    HW222496  11.910  11.117   5.897 -0.4879 -1.0651  0.4368
 5086SOL     OW22497   1.202   1.999   8.807 -0.5779 -0.1629  0.3064
 5086SOL    HW122498   1.110   2.025   8.800 -0.5554 -0.0534  0.4152
 5086SOL    HW222499   1.250   2.077   8.779 -0.5445 -0.6977 -1.2289
 5087SOL     OW22500   0.332   2.026   7.946 -0.0502  0.5531  0.2444
 5087SOL    HW122501   0.401   1.979   7.899 -0.4357  0.3192 -0.0996
 5087SOL    HW222502   0.295   1.961   8.006 -2.0117 -0.2969 -1.7031
 5088SOL     OW22503   4.805  11.983   1.889 -0.1535 -0.0672 -0.3236
 5088SOL    HW122504   4.839  11.897   1.866 -0.8973 -0.2935 -0.6109
 5088SOL    HW222505   4.723  11.990   1.841 -0.5320  0.4482  0.3778
 5089SOL     OW22506   1.052   5.595   8.509 -0.0556 -0.2619  0.1232
 5089SOL    HW122507   1.137   5.612   8.469 -0.5067 -0.4177 -0.9343
 5089SOL    HW222508   1.072   5.550   8.590  0.9429  1.1025  0.6727
 5090SOL     OW22509   7.874   5.893   7.365 -0.0124 -0.0578 -0.2155
 5090SOL    HW122510   7.860   5.970   7.309  1.5002  0.1952 -0.2854
 5090SOL    HW222511   7.864   5.927   7.454  1.7565  0.5344 -0.1892
 5091SOL     OW22512  11.015   6.102   4.334 -0.2182  0.4205  0.1583
 5091SOL    HW122513  11.006   6.197   4.334 -1.8188  0.4976 -4.2661
 5091SOL    HW222514  10.926   6.069   4.342  0.0505 -0.6021 -0.7822
 5092SOL     OW22515   9.215  11.912   7.431 -0.3546  0.8372  0.0799
 5092SOL    HW122516   9.129  11.949   7.410 -0.5598  0.1167 -0.4247
 5092SOL    HW222517   9.254  11.894   7.345 -0.1891  0.0713  0.3099
 5093SOL     OW22518   7.589   6.534   1.649  0.0071 -0.2198  0.0941
 5093SOL    HW122519   7.598   6.474   1.575 -1.8683 -2.1310  1.2936
 5093SOL    HW222520   7.530   6.602   1.618 -2.2134 -1.9655  0.2598
 5094SOL     OW22521   1.629   1.640   2.557  0.0298  0.0030  0.0417
 5094SOL    HW122522   1.666   1.698   2.625  1.2018  2.2582 -2.3268
 5094SOL    HW222523   1.601   1.700   2.488 -1.3665 -2.1733 -1.3823
 5095SOL     OW22524   6.916   1.337   8.813  0.2111  0.3055  0.4048
 5095SOL    HW122525   6.896   1.424   8.780 -0.2262 -0.4895 -1.5989
 5095SOL    HW222526   6.831   1.294   8.822  0.4420 -0.0417  1.0509
 5096SOL     OW22527  11.230   4.107   9.240  0.0887 -0.2727 -0.0034
 5096SOL    HW122528  11.208   4.196   9.267  2.2700 -0.2532  1.9388
 5096SOL    HW222529  11.318   4.114   9.203 -0.9084 -1.1751 -2.8025
 5097SOL     OW22530  12.618   9.480   6.363 -0.6629  0.4320  0.1661
 5097SOL    HW122531  12.564   9.462   6.439 -1.1551  0.7613 -0.1033
 5097SOL    HW222532  12.558   9.475   6.289  0.3033 -2.8162 -0.5632
 5098SOL     OW22533   2.225  11.887   9.526  0.2565  0.5350  0.1012
 5098SOL    HW122534   2.207  11.815   9.466 -2.2442  0.4106  0.8707
 5098SOL    HW222535   2.262  11.845   9.604 -1.7379 -0.1207  0.7881
 5099SOL     OW22536   1.753  11.775  11.543 -0.4929 -0.0660 -0.0883
 5099SOL    HW122537   1.781  11.867  11.538  0.8962 -0.4453  0.4889
 5099SOL    HW222538   1.665  11.780  11.582 -0.5743  1.0294 -0.3589
 5100SOL     OW22539   1.044   9.171   9.110 -0.1063 -0.3116  0.0243
 5100SOL    HW122540   0.978   9.119   9.156  0.2587 -1.8843 -1.1246
 5100SOL    HW222541   1.107   9.106   9.078  3.1858  1.2290  2.7755
 5101SOL     OW22542  12.706   8.557   8.160 -0.3037 -0.5811  0.5981
 5101SOL    HW122543  12.801   8.549   8.152 -0.4204 -0.9157 -0.6354
 5101SOL    HW222544  12.680   8.475   8.203  0.1488  0.4638  3.0804
 5102SOL     OW22545   8.093   5.735   5.565 -0.3488 -0.8825  0.2661
 5102SOL    HW122546   8.167   5.675   5.555  0.5967  0.2892 -0.0071
 5102SOL    HW222547   8.111   5.806   5.503 -1.7206 -0.5810  0.1835
 5103SOL     OW22548   8.521   2.298   7.690  0.1336 -0.1440  0.5537
 5103SOL    HW122549   8.615   2.284   7.693  0.0589 -0.5321  1.4978
 5103SOL    HW222550   8.483   2.220   7.731 -0.6062 -0.0758  0.0191
 5104SOL     OW22551  10.152  11.013   4.080 -0.0628 -0.0815 -0.2982
 5104SOL    HW122552  10.172  10.973   4.165  0.0254 -0.9648 -0.7195
 5104SOL    HW222553  10.159  11.107   4.095  0.0340 -0.2333  0.6526
 5105SOL     OW22554   8.652   1.966   9.998 -0.7268  0.3157 -0.3977
 5105SOL    HW122555   8.727   1.950  10.055  0.7360  1.6836 -1.8210
 5105SOL    HW222556   8.643   1.885   9.947 -1.0114 -0.3096  0.6382
 5106SOL     OW22557   5.745   4.876   8.661  0.4046 -0.3336 -0.1831
 5106SOL    HW122558   5.763   4.924   8.742 -1.0793  1.5798 -0.8960
 5106SOL    HW222559   5.832   4.859   8.624  1.0435  0.2611  0.9578
 5107SOL     OW22560   2.424  11.984  10.935 -0.2727 -0.2035 -0.2119
 5107SOL    HW122561   2.366  11.925  10.886 -0.0551 -0.7342  0.1633
 5107SOL    HW222562   2.511  11.945  10.925 -0.3055 -0.6223  1.0498
 5108SOL     OW22563   4.083  10.286   9.805  0.1138 -0.3012  0.1737
 5108SOL    HW122564   4.029  10.362   9.826 -2.0592 -1.9911  1.0783
 5108SOL    HW222565   4.151  10.286   9.872  0.8718  1.4772 -0.5477
 5109SOL     OW22566  12.043   2.507   7.542  0.0543 -0.1697 -0.1667
 5109SOL    HW122567  12.089   2.552   7.614 -3.3095  1.7234  1.0157
 5109SOL    HW222568  12.066   2.558   7.464 -0.6918  1.3593  0.5610
 5110SOL     OW22569   6.449   1.116  11.057 -0.1900  0.2373  0.3275
 5110SOL    HW122570   6.360   1.080  11.061  0.2174 -0.7258  1.0219
 5110SOL    HW222571   6.493   1.062  10.991 -0.2232  0.9987 -0.3434
 5111SOL     OW22572  11.076   7.152   2.470 -0.2620 -0.8562  0.5820
 5111SOL    HW122573  11.120   7.237   2.475  0.1795 -0.9700 -0.9786
 5111SOL    HW222574  10.985   7.173   2.448 -0.2728 -0.7733  0.7049
 5112SOL     OW22575   7.648   9.353   0.954 -0.1958 -0.4440  0.1161
 5112SOL    HW122576   7.713   9.304   1.006 -0.1778 -0.6628 -0.1087
 5112SOL    HW222577   7.627   9.294   0.882 -0.6164 -0.3553  0.1687
 5113SOL     OW22578  12.696  11.276   1.277 -0.2533 -0.0986  0.1027
 5113SOL    HW122579  12.654  11.332   1.341 -1.4502  0.3586 -1.0292
 5113SOL    HW222580  12.741  11.209   1.329 -0.2910  0.8670  1.4180
 5114SOL     OW22581   2.182  12.087   7.205  0.8849  0.1765  0.6913
 5114SOL    HW122582   2.150  12.010   7.252  2.0145 -0.2941  0.7083
 5114SOL    HW222583   2.126  12.158   7.236 -1.2013 -0.8567 -0.4449
 5115SOL     OW22584  11.160   5.752   8.967 -0.0081 -0.0100  0.0326
 5115SOL    HW122585  11.230   5.698   9.004 -0.4578 -0.7025 -0.1059
 5115SOL    HW222586  11.112   5.693   8.910 -0.5128  0.5453 -0.1252
 5116SOL     OW22587  12.484   7.588   4.006 -0.3641 -0.0086  0.2757
 5116SOL    HW122588  12.575   7.612   3.984 -0.6302  1.1454  0.3909
 5116SOL    HW222589  12.449   7.553   3.924 -0.6943  2.2929 -0.6452
 5117SOL     OW22590   9.776  11.553   0.496 -0.4761  0.2874  0.0767
 5117SOL    HW122591   9.694  11.559   0.448 -0.4418  0.2086  0.0065
 5117SOL    HW222592   9.827  11.488   0.448  0.0125  1.0344 -0.4536
 5118SOL     OW22593  10.106   1.613   8.546 -0.4470 -0.1647 -0.3280
 5118SOL    HW122594  10.016   1.636   8.524 -1.5506  0.2090  3.7507
 5118SOL    HW222595  10.107   1.518   8.550 -1.2105 -0.1368  1.2333
 5119SOL     OW22596   0.876   9.127  12.633 -0.2534  0.1355 -0.0553
 5119SOL    HW122597   0.926   9.199  12.595  0.6675 -0.0603  0.7600
 5119SOL    HW222598   0.905   9.049  12.586 -1.9686  0.3698 -1.6369
 5120SOL     OW22599   3.496   5.286   0.356 -0.5209  0.4316 -0.0586
 5120SOL    HW122600   3.577   5.283   0.305 -0.7345  0.9030 -0.4350
 5120SOL    HW222601   3.503   5.212   0.417  0.6323  1.0694  0.6076
 5121SOL     OW22602   1.225   7.794   3.570 -0.0240  0.7536 -0.5162
 5121SOL    HW122603   1.165   7.814   3.498  1.5387  1.5892 -1.6260
 5121SOL    HW222604   1.300   7.751   3.528 -0.1370 -0.9835  0.9450
 5122SOL     OW22605   1.913  12.625   5.945  0.1289 -0.0153 -0.2290
 5122SOL    HW122606   1.955  12.694   5.996 -0.0042  1.3283 -1.8520
 5122SOL    HW222607   1.819  12.642   5.955  0.1026  1.0918 -1.9078
 5123SOL     OW22608   0.294   9.120   4.035  0.4396 -0.1055  0.3596
 5123SOL    HW122609   0.381   9.110   3.995  1.3382  1.0780  1.8751
 5123SOL    HW222610   0.294   9.209   4.069 -1.9643  0.4389 -0.8646
 5124SOL     OW22611   7.510  12.622   2.326 -0.2301  0.0315  0.1195
 5124SOL    HW122612   7.569  12.630   2.250 -0.2451 -0.3148  0.0701
 5124SOL    HW222613   7.435  12.573   2.293  0.1525 -0.8877  0.5681
 5125SOL     OW22614   5.672   7.088   3.891 -0.6428  0.1323 -0.1998
 5125SOL    HW122615   5.766   7.074   3.883 -0.5603  0.2506  0.5047
 5125SOL    HW222616   5.636   7.058   3.808 -0.1966 -1.8333  0.2700
 5126SOL     OW22617   2.992   9.553   8.971 -0.3156  0.1903  0.3295
 5126SOL    HW122618   2.982   9.583   9.061 -1.8402  1.0248 -0.0827
 5126SOL    HW222619   2.908   9.513   8.949  0.9518 -2.6089  0.1512
 5127SOL     OW22620  11.868   3.812  12.127  0.1082 -0.0333  0.4026
 5127SOL    HW122621  11.947   3.774  12.088  0.8054 -1.2880  2.8022
 5127SOL    HW222622  11.830   3.740  12.178 -2.2214  0.7540 -0.0937
 5128SOL     OW22623   5.686   6.786   0.248 -0.1550  0.1187  0.0309
 5128SOL    HW122624   5.642   6.714   0.201 -0.6921  0.7733 -0.4886
 5128SOL    HW222625   5.615   6.833   0.291  0.2582 -0.0079  0.8699
 5129SOL     OW22626   0.768   4.611   8.338 -0.2198 -0.1523 -0.3414
 5129SOL    HW122627   0.727   4.527   8.359 -0.2617 -0.4385 -1.4714
 5129SOL    HW222628   0.807   4.596   8.252 -2.6652  1.8130 -1.9179
 5130SOL     OW22629   1.674   4.578   8.164 -0.4902  0.1406  0.3793
 5130SOL    HW122630   1.685   4.620   8.079  0.5809 -1.3288 -0.2415
 5130SOL    HW222631   1.608   4.511   8.149 -3.0181  2.1678  1.6225
 5131SOL     OW22632  12.532   0.360   7.739 -0.3582 -0.5600 -0.2379
 5131SOL    HW122633  12.502   0.337   7.652  0.2643  0.6891 -0.8130
 5131SOL    HW222634  12.563   0.278   7.777 -1.0448 -1.1939 -1.0131
 5132SOL     OW22635  11.569   9.608   1.186 -0.6778 -0.3884  0.1266
 5132SOL    HW122636  11.556   9.635   1.095  1.1895 -2.2471 -0.7854
 5132SOL    HW222637  11.489   9.635   1.231 -1.6190  0.6676 -2.0279
 5133SOL     OW22638   4.754   9.412   3.284 -0.3461  0.5796 -0.1368
 5133SOL    HW122639   4.806   9.473   3.336 -0.1191  0.7437 -0.5534
 5133SOL    HW222640   4.818   9.362   3.234 -0.5520  0.2484 -0.0734
 5134SOL     OW22641  12.619   1.118   1.791 -0.2779 -0.0963 -0.5180
 5134SOL    HW122642  12.603   1.150   1.702 -0.7773 -2.1596 -1.2280
 5134SOL    HW222643  12.606   1.023   1.786  3.9609 -0.9875  0.7683
 5135SOL     OW22644  12.632   3.334   0.265 -0.6462  0.0870  0.7177
 5135SOL    HW122645  12.716   3.370   0.236  0.0619 -1.2142  1.0684
 5135SOL    HW222646  12.573   3.409   0.266  0.4432  0.9847  0.2123
 5136SOL     OW22647   0.137   9.170   4.572 -0.7597 -0.5778  0.1980
 5136SOL    HW122648   0.099   9.240   4.520  1.8245  0.5922 -0.2614
 5136SOL    HW222649   0.164   9.104   4.507 -0.6513 -0.7254  0.3933
 5137SOL     OW22650   2.800  11.394   7.616  0.1111  0.2729  0.4526
 5137SOL    HW122651   2.873  11.444   7.580 -0.0875  0.6997  0.6416
 5137SOL    HW222652   2.743  11.376   7.541  0.2540  0.2021  0.3603
 5138SOL     OW22653   3.181   6.150   3.761 -0.0590  0.0380 -0.0913
 5138SOL    HW122654   3.152   6.242   3.758 -0.5076 -0.0983 -0.0865
 5138SOL    HW222655   3.216   6.134   3.673 -0.2576  0.1300 -0.1901
 5139SOL     OW22656   4.270   3.971   6.197  0.6061  0.2875 -0.0901
 5139SOL    HW122657   4.305   4.041   6.252 -0.7640  0.2536  0.8708
 5139SOL    HW222658   4.185   4.004   6.168 -0.5416 -1.3341  1.2074
 5140SOL     OW22659  11.165   1.459   8.563 -0.3971  0.3125 -0.5799
 5140SOL    HW122660  11.176   1.465   8.658 -0.5171  0.3944 -0.5715
 5140SOL    HW222661  11.093   1.519   8.544  0.1078  0.8535 -0.8117
 5141SOL     OW22662  11.950   0.230   5.605  0.3208  0.3141  0.0439
 5141SOL    HW122663  11.927   0.303   5.548 -0.0227  0.2161  0.0532
 5141SOL    HW222664  11.879   0.228   5.670 -0.3703 -0.8373 -0.7140
 5142SOL     OW22665   1.924  12.218   8.873  0.4040 -0.4189  0.1735
 5142SOL    HW122666   1.972  12.148   8.830 -0.0889  0.2207 -1.4891
 5142SOL    HW222667   1.988  12.288   8.885  0.5601 -0.6259  0.5948
 5143SOL     OW22668   8.412  11.327   0.590  0.0111  0.2070 -0.8306
 5143SOL    HW122669   8.398  11.243   0.634 -1.7052 -0.4066 -2.3847
 5143SOL    HW222670   8.484  11.310   0.530  1.2154  0.5564  0.4656
 5144SOL     OW22671   3.217   2.862   1.532  0.2305 -0.1822 -0.3367
 5144SOL    HW122672   3.152   2.892   1.596  1.3279  1.2630  0.1492
 5144SOL    HW222673   3.240   2.774   1.562 -0.0239  0.0743  0.6693
 5145SOL     OW22674   7.443   5.537   9.867  0.2730  0.5673  0.3417
 5145SOL    HW122675   7.448   5.453   9.821 -1.4698  0.1857  0.7603
 5145SOL    HW222676   7.420   5.601   9.799 -0.0609  0.3970  0.2897
 5146SOL     OW22677  10.044   3.675   3.878  0.0289 -0.0635 -0.6542
 5146SOL    HW122678  10.115   3.637   3.929 -1.0666 -0.9189  0.3037
 5146SOL    HW222679   9.985   3.601   3.861 -0.8797  0.7139 -0.9889
 5147SOL     OW22680   5.210  11.323   6.639  0.0813 -0.2068  0.4421
 5147SOL    HW122681   5.143  11.271   6.684  0.4320 -1.6722 -0.6597
 5147SOL    HW222682   5.283  11.263   6.626  0.8161  0.7916 -0.1972
 5148SOL     OW22683   9.501   9.430   1.325 -0.3103  0.5052  0.3254
 5148SOL    HW122684   9.533   9.348   1.288 -0.4691  0.6173 -0.0696
 5148SOL    HW222685   9.528   9.497   1.262  0.5322  0.8627  1.0496
 5149SOL     OW22686   0.374   1.954   0.042 -0.0696 -0.1412 -0.4627
 5149SOL    HW122687   0.464   1.972   0.017 -0.1339  0.7296 -0.1009
 5149SOL    HW222688   0.369   1.978   0.135 -0.1158 -2.2521  0.1401
 5150SOL     OW22689  11.751   3.734   8.657 -0.0346  0.8507 -0.7463
 5150SOL    HW122690  11.665   3.774   8.667 -0.5490 -0.5457  0.9578
 5150SOL    HW222691  11.769   3.739   8.563 -1.4267  2.2174 -0.9834
 5151SOL     OW22692  11.432   7.828   1.487  0.7506 -0.1480  0.1220
 5151SOL    HW122693  11.504   7.839   1.548 -0.2109  3.8122  0.8305
 5151SOL    HW222694  11.358   7.802   1.541  0.8806 -0.9434 -0.0763
 5152SOL     OW22695   7.806  10.179   5.964  0.3627  0.2061  0.6783
 5152SOL    HW122696   7.822  10.109   5.902 -0.8262 -0.0099  0.5803
 5152SOL    HW222697   7.892  10.200   6.001  0.8444 -0.7390  0.1178
 5153SOL     OW22698  11.348   1.853   2.395 -0.2615  0.0720 -0.0158
 5153SOL    HW122699  11.269   1.846   2.340 -1.7856 -1.4665  2.1998
 5153SOL    HW222700  11.413   1.799   2.351 -0.8127  0.3695 -1.2522
 5154SOL     OW22701   0.967   4.324  10.665 -0.4063 -0.1786  0.2402
 5154SOL    HW122702   0.904   4.263  10.705 -1.0597  0.7075  0.5861
 5154SOL    HW222703   1.043   4.270  10.646 -1.6456 -1.5222 -1.1952
 5155SOL     OW22704   8.427   6.037   8.116  0.4265  0.5984  0.4462
 5155SOL    HW122705   8.407   6.117   8.165  0.2666  0.8466 -0.0205
 5155SOL    HW222706   8.342   6.007   8.082  0.5223  0.3791  0.3947
 5156SOL     OW22707   0.295   5.808   4.125  0.4201  0.0055  0.1812
 5156SOL    HW122708   0.323   5.727   4.082 -1.3891 -1.1169  1.0389
 5156SOL    HW222709   0.236   5.849   4.063 -0.1706 -0.3235  0.5136
 5157SOL     OW22710   4.894   7.049   1.911  0.0354 -0.1466 -0.2795
 5157SOL    HW122711   4.931   7.076   1.995 -1.3813  0.1838  0.2514
 5157SOL    HW222712   4.872   7.131   1.868  0.1983 -0.3372 -0.7336
 5158SOL     OW22713   7.284   0.484  12.275  0.0109 -0.4447 -0.1747
 5158SOL    HW122714   7.223   0.415  12.299 -0.9919  1.0909  1.9511
 5158SOL    HW222715   7.239   0.532  12.205  0.1809 -1.1685 -0.7959
 5159SOL     OW22716   4.558   6.687   3.000 -0.1712  0.5070 -0.6103
 5159SOL    HW122717   4.485   6.638   2.963 -0.7143  1.7352 -1.2058
 5159SOL    HW222718   4.538   6.693   3.093  0.9032 -2.0760 -0.1075
 5160SOL     OW22719   6.839   1.754   8.371  0.0084  0.3982  0.8154
 5160SOL    HW122720   6.914   1.779   8.318 -0.1119  0.6953  0.7812
 5160SOL    HW222721   6.779   1.829   8.365 -0.9052 -0.3929 -0.2776
 5161SOL     OW22722  11.999   8.693   9.198 -0.2554  0.1488 -0.1496
 5161SOL    HW122723  12.079   8.730   9.237  0.5013 -1.4569 -0.1103
 5161SOL    HW222724  12.025   8.605   9.170 -2.5492 -1.2079  1.6987
 5162SOL     OW22725   1.950   3.182   8.557 -0.0593  0.2186 -0.2323
 5162SOL    HW122726   1.956   3.273   8.584  0.8311  0.0112  0.3313
 5162SOL    HW222727   1.858   3.159   8.568  0.0562  0.4541  1.7126
 5163SOL     OW22728   5.438  11.186   3.644 -0.0084 -0.3313  0.8022
 5163SOL    HW122729   5.496  11.116   3.673  0.2169 -0.6868 -0.4557
 5163SOL    HW222730   5.350  11.153   3.663  0.0853 -1.0490  0.0632
 5164SOL     OW22731   4.527  10.940   8.287 -0.0854 -0.6994  0.0002
 5164SOL    HW122732   4.549  11.033   8.290 -0.8441 -0.5329  1.3443
 5164SOL    HW222733   4.530  10.918   8.194  0.8683  0.4665 -0.2780
 5165SOL     OW22734   4.179   4.570   1.944  0.3442  0.4148  0.6858
 5165SOL    HW122735   4.100   4.577   1.890 -0.4085 -0.1402  1.6801
 5165SOL    HW222736   4.156   4.506   2.011  1.2806  1.0448  1.6318
 5166SOL     OW22737   4.316   9.187   2.652 -0.1786  0.1751 -0.7637
 5166SOL    HW122738   4.364   9.252   2.703 -1.3686  0.4260  0.0967
 5166SOL    HW222739   4.290   9.234   2.572 -3.2637  1.6945  0.9659
 5167SOL     OW22740   1.851   2.416   8.973  0.3234 -0.1183 -0.0903
 5167SOL    HW122741   1.891   2.384   8.892 -0.3592 -1.8496  0.2111
 5167SOL    HW222742   1.811   2.499   8.949  0.3630 -0.4716 -1.4562
 5168SOL     OW22743   7.184   4.199  11.853  0.2256  0.3630  0.0885
 5168SOL    HW122744   7.252   4.260  11.880 -0.1932  1.1575 -0.5994
 5168SOL    HW222745   7.142   4.171  11.934 -1.5536  3.2986  0.3131
 5169SOL     OW22746   6.050   3.622   6.810 -0.4581 -0.2416  0.2524
 5169SOL    HW122747   6.064   3.532   6.781 -0.4958 -0.0234 -0.4432
 5169SOL    HW222748   5.962   3.644   6.779  0.4029  0.8087 -1.5985
 5170SOL     OW22749   4.036   7.563   3.705  0.0125  0.1755 -0.1129
 5170SOL    HW122750   3.992   7.585   3.623 -0.8376 -1.0007  0.0147
 5170SOL    HW222751   3.977   7.503   3.750  0.6088  0.5367  1.2299
 5171SOL     OW22752  10.504   7.528   2.101 -0.2795 -0.1360 -0.2314
 5171SOL    HW122753  10.491   7.600   2.163  1.3897  0.3942 -0.4540
 5171SOL    HW222754  10.423   7.477   2.107 -0.5650  0.4456  1.6464
 5172SOL     OW22755   1.966   4.471   8.046  0.3104 -0.1848 -0.7396
 5172SOL    HW122756   1.944   4.511   7.962 -0.6758  0.1602 -0.3304
 5172SOL    HW222757   2.056   4.500   8.064 -0.4193  2.0272 -0.3754
 5173SOL     OW22758  11.050   8.670   3.438 -0.5306  0.4434 -0.1576
 5173SOL    HW122759  11.074   8.578   3.450 -1.8336  0.2513  1.2300
 5173SOL    HW222760  10.959   8.675   3.468 -1.2199  1.7590 -2.2678
 5174SOL     OW22761   8.292   7.589  11.402  0.0875 -0.0366 -0.2174
 5174SOL    HW122762   8.253   7.601  11.315  0.1152 -1.2504 -0.4147
 5174SOL    HW222763   8.385   7.576  11.385  0.3031  0.9558  0.1096
 5175SOL     OW22764   5.587   7.719   3.013 -0.0276  0.2953 -0.1526
 5175SOL    HW122765   5.520   7.785   3.030 -1.3156 -0.3154 -2.3749
 5175SOL    HW222766   5.627   7.748   2.930  1.6168 -0.0291  0.4984
 5176SOL     OW22767   9.752  10.169   6.361  0.2587 -0.0293  0.3556
 5176SOL    HW122768   9.826  10.165   6.300  0.7635  0.1343  0.9528
 5176SOL    HW222769   9.753  10.258   6.395 -1.2362  0.5113 -0.8743
 5177SOL     OW22770   1.357  10.957  11.891  0.4293  0.3312 -0.2584
 5177SOL    HW122771   1.303  10.879  11.907 -0.7260  1.4457  1.5834
 5177SOL    HW222772   1.369  10.958  11.796 -1.3378 -0.9155 -0.5518
 5178SOL     OW22773   6.917   6.073  11.861 -0.0307 -0.2611  0.3843
 5178SOL    HW122774   6.894   6.008  11.794  0.8928 -0.0356 -0.1597
 5178SOL    HW222775   6.945   6.150  11.811  0.3273  0.0312  1.0289
 5179SOL     OW22776   3.544   6.719   3.814  0.2917  0.2032  0.1889
 5179SOL    HW122777   3.483   6.692   3.883  2.7284  1.0846  2.8933
 5179SOL    HW222778   3.525   6.812   3.801 -0.2749  0.0005 -0.5054
 5180SOL     OW22779   9.734   6.547  11.498 -0.6553 -0.0071  0.4396
 5180SOL    HW122780   9.784   6.466  11.511 -0.1148  0.3483  0.6252
 5180SOL    HW222781   9.708   6.573  11.586  0.7938  1.0210  0.6043
 5181SOL     OW22782   5.285  11.222   1.422 -0.0792  0.3921 -0.4982
 5181SOL    HW122783   5.373  11.196   1.451 -0.6064 -2.1462 -0.9178
 5181SOL    HW222784   5.285  11.203   1.328 -0.2442  3.0539 -1.1165
 5182SOL     OW22785   9.469  11.728  12.330  0.4102 -0.5662  0.7201
 5182SOL    HW122786   9.521  11.788  12.277 -0.0973 -1.0355 -0.3428
 5182SOL    HW222787   9.465  11.769  12.417 -0.0978  1.0261 -0.0268
 5183SOL     OW22788   1.888  11.843   7.977 -0.3395  1.0618 -0.1781
 5183SOL    HW122789   1.970  11.800   7.999 -0.5105  1.2856  0.9632
 5183SOL    HW222790   1.907  11.893   7.898  0.4960  0.7593 -0.1713
 5184SOL     OW22791   1.613   3.278  12.282 -0.6538  0.3393 -0.1869
 5184SOL    HW122792   1.568   3.208  12.330  0.8027 -1.1196 -0.8659
 5184SOL    HW222793   1.702   3.247  12.272 -0.4750  1.3913 -2.3089
 5185SOL     OW22794   4.161  11.510   6.827 -0.1390  0.5888 -0.0936
 5185SOL    HW122795   4.095  11.442   6.839  2.1699 -1.7562  0.0905
 5185SOL    HW222796   4.175  11.514   6.732  0.5425 -0.0741 -0.0322
 5186SOL     OW22797   9.966   9.695   9.685  0.5039 -0.0598  0.2030
 5186SOL    HW122798   9.966   9.604   9.655  1.4493 -0.5738  1.6486
 5186SOL    HW222799   9.994   9.745   9.609 -0.9097 -0.8488 -0.8928
 5187SOL     OW22800   2.165   9.883   2.115  0.3796  0.1517  0.4868
 5187SOL    HW122801   2.116   9.944   2.169  0.7281  0.1480  0.8118
 5187SOL    HW222802   2.117   9.879   2.032 -0.1801  0.1221  0.8137
 5188SOL     OW22803   0.909   5.523  10.964  0.4214  0.1118  0.3051
 5188SOL    HW122804   0.843   5.482  10.908  1.1007 -0.8320  0.1829
 5188SOL    HW222805   0.968   5.567  10.903  0.7058 -0.2406  0.3249
 5189SOL     OW22806   4.470  12.265   5.736 -0.5703 -0.3277  0.3207
 5189SOL    HW122807   4.455  12.217   5.818 -1.1205  1.0878  1.0870
 5189SOL    HW222808   4.383  12.277   5.698 -0.3811 -0.4295 -0.1497
 5190SOL     OW22809   9.507   0.765   5.517 -0.5412  0.4430  0.2278
 5190SOL    HW122810   9.514   0.694   5.454 -1.6028 -0.0661  0.6690
 5190SOL    HW222811   9.428   0.813   5.491  0.0488  1.3514  0.0555
 5191SOL     OW22812   6.688   1.694   7.375  0.9789  0.8680  0.4794
 5191SOL    HW122813   6.759   1.741   7.419  0.1329  1.1080  1.6397
 5191SOL    HW222814   6.650   1.638   7.443 -0.6080  1.5270  0.1882
 5192SOL     OW22815   1.851  11.836   8.721  0.0459 -0.2688 -0.2834
 5192SOL    HW122816   1.774  11.856   8.774  1.0950 -0.5171  1.3701
 5192SOL    HW222817   1.906  11.781   8.776  0.8267 -1.2220 -1.9249
 5193SOL     OW22818   5.927   3.131  11.755  0.4104 -0.5373  0.6066
 5193SOL    HW122819   5.833   3.136  11.739  0.8270  0.9426 -1.8220
 5193SOL    HW222820   5.940   3.176  11.838 -0.7973  1.3423 -0.1704
 5194SOL     OW22821   2.439  11.508   8.148 -0.4726 -0.0369 -0.3974
 5194SOL    HW122822   2.357  11.545   8.183 -1.3484  0.3452 -2.6776
 5194SOL    HW222823   2.451  11.426   8.197 -1.7474  0.3327  0.5868
 5195SOL     OW22824   0.402   5.901   3.076 -0.4553  0.4947  0.1226
 5195SOL    HW122825   0.326   5.858   3.036 -0.3480  1.9994 -1.8467
 5195SOL    HW222826   0.367   5.942   3.155 -1.5568  0.6645 -0.4372
 5196SOL     OW22827   0.885   9.876   0.083 -0.1095  0.5994  0.4640
 5196SOL    HW122828   0.896   9.943   0.016  0.6955 -0.4093 -0.4463
 5196SOL    HW222829   0.913   9.918   0.164  1.2589  1.0830 -0.2352
 5197SOL     OW22830   6.785   7.489  10.742 -0.5431  0.3556 -0.0878
 5197SOL    HW122831   6.798   7.475  10.648 -1.2720  0.1574 -0.1643
 5197SOL    HW222832   6.762   7.403  10.777  0.5848  0.2500  0.4362
 5198SOL     OW22833   7.690   4.729   5.726 -0.0826 -0.0479 -0.0881
 5198SOL    HW122834   7.668   4.658   5.667 -0.1672 -1.5582  1.6685
 5198SOL    HW222835   7.767   4.698   5.774 -0.3050  0.9152  0.9327
 5199SOL     OW22836   1.284   3.874   2.200  0.1541  0.7758 -0.2563
 5199SOL    HW122837   1.339   3.904   2.272  1.2522  2.3489 -1.6800
 5199SOL    HW222838   1.195   3.877   2.235  0.7911 -0.3636  1.6110
 5200SOL     OW22839   5.911   4.492  10.240  0.3967 -0.2532 -0.0727
 5200SOL    HW122840   5.831   4.508  10.289  1.3183  2.3070  0.7899
 5200SOL    HW222841   5.967   4.444  10.300  0.5907  0.6723  0.5151
 5201SOL     OW22842   6.509  11.164   6.271  0.1287  0.3775 -0.0052
 5201SOL    HW122843   6.592  11.210   6.273  0.4009 -0.1181  0.3316
 5201SOL    HW222844   6.527  11.082   6.226 -0.0321  0.0161  0.5665
 5202SOL     OW22845   6.837  12.491   2.648 -0.4839 -0.0504  0.6819
 5202SOL    HW122846   6.821  12.441   2.567 -0.3401 -0.5494  0.9565
 5202SOL    HW222847   6.932  12.502   2.651 -0.5698  0.9159  0.2301
 5203SOL     OW22848   7.927   1.438   7.481 -0.0727 -0.2878  0.1613
 5203SOL    HW122849   7.931   1.492   7.560  0.7444  1.1444 -0.8063
 5203SOL    HW222850   8.012   1.395   7.477 -0.6721 -1.6132  0.8545
 5204SOL     OW22851  12.515   6.674   3.838  0.3459  0.0733 -0.0176
 5204SOL    HW122852  12.590   6.708   3.790  0.6269 -0.3315  0.1351
 5204SOL    HW222853  12.447   6.740   3.826  0.5090  0.1187 -0.7242
 5205SOL     OW22854   2.857   9.852   3.631  0.8306  0.0481 -0.1650
 5205SOL    HW122855   2.949   9.843   3.654  0.2768  0.3662  2.4575
 5205SOL    HW222856   2.858   9.884   3.541  3.2412 -0.7147 -0.4774
 5206SOL     OW22857   9.409   5.032   0.665  0.2079  0.6550  0.2998
 5206SOL    HW122858   9.338   5.095   0.651  2.7168  4.0442  1.4075
 5206SOL    HW222859   9.453   5.026   0.581  0.7052  1.4028  0.5025
 5207SOL     OW22860   2.054   5.543   0.104  0.2465  0.1861 -0.5098
 5207SOL    HW122861   2.029   5.494   0.026  1.1343 -0.8718 -0.1589
 5207SOL    HW222862   1.990   5.614   0.110  0.1882  0.3144 -2.2179
 5208SOL     OW22863   8.054  10.215   6.450  0.2648  0.5735  0.3351
 5208SOL    HW122864   8.068  10.120   6.446  0.7501  0.6035  1.0677
 5208SOL    HW222865   8.005  10.235   6.370 -3.4724 -0.8767  2.0508
 5209SOL     OW22866  10.867   5.071   9.052 -0.3369  0.0408  0.2212
 5209SOL    HW122867  10.833   5.160   9.055  0.7781  0.4781  0.1946
 5209SOL    HW222868  10.961   5.081   9.042 -0.1727 -1.1459  0.4138
 5210SOL     OW22869   4.899   4.267  11.644 -0.3291 -0.3253  0.2811
 5210SOL    HW122870   4.916   4.174  11.657  1.7348 -0.2607 -1.3976
 5210SOL    HW222871   4.860   4.272  11.556 -1.5721  0.3209  0.8410
 5211SOL     OW22872  12.029  11.884   1.027  0.1469  0.0742 -0.3697
 5211SOL    HW122873  11.959  11.824   1.055  1.6662 -2.4329 -1.5470
 5211SOL    HW222874  12.017  11.892   0.933  0.0653  1.5981 -0.2495
 5212SOL     OW22875   8.101   7.848   5.473  0.3532 -0.1114  0.2081
 5212SOL    HW122876   8.051   7.819   5.549  0.1681 -1.1432 -0.2851
 5212SOL    HW222877   8.036   7.889   5.416  0.0250 -1.4483 -0.4310
 5213SOL     OW22878   3.372   0.724  11.934  0.1438  0.2207 -0.4777
 5213SOL    HW122879   3.309   0.788  11.901  0.0435  0.0095 -0.6970
 5213SOL    HW222880   3.432   0.775  11.988 -0.2184  0.4256 -0.2594
 5214SOL     OW22881   3.987   8.525   8.486  0.1566 -0.2185 -0.2391
 5214SOL    HW122882   4.001   8.531   8.392  0.7907 -1.4758 -0.2387
 5214SOL    HW222883   4.053   8.463   8.517 -1.4448 -1.5606  0.6996
 5215SOL     OW22884   5.540   2.743  12.010  0.7333 -0.2017  0.4703
 5215SOL    HW122885   5.522   2.793  11.931 -2.8340 -1.5086  0.3218
 5215SOL    HW222886   5.518   2.653  11.988  2.1694 -1.0617  2.2438
 5216SOL     OW22887  11.333   6.652   8.948  0.1366  0.2073 -0.4952
 5216SOL    HW122888  11.414   6.603   8.938  0.0707 -0.0381  0.1558
 5216SOL    HW222889  11.264   6.589   8.925  0.1141  0.3333 -0.7766
 5217SOL     OW22890   4.415  12.495   3.497  0.0339 -0.0766 -0.5642
 5217SOL    HW122891   4.384  12.480   3.408 -2.1140 -1.3262  0.3200
 5217SOL    HW222892   4.494  12.442   3.504  0.2449  0.0605 -1.7106
 5218SOL     OW22893  10.440   4.694   5.925 -0.4184 -0.2417  0.1971
 5218SOL    HW122894  10.437   4.771   5.982  4.2161  0.9223 -0.7641
 5218SOL    HW222895  10.445   4.620   5.986  1.7548  0.7768  1.3914
 5219SOL     OW22896   5.467   5.267   1.740 -0.7871 -0.7779 -0.0482
 5219SOL    HW122897   5.394   5.205   1.732 -0.4320 -1.2219  0.1657
 5219SOL    HW222898   5.427   5.352   1.719 -1.6091 -0.8534  1.1072
 5220SOL     OW22899   4.054  12.033   0.269 -0.1319  0.8105  0.6250
 5220SOL    HW122900   4.064  12.070   0.357  0.3925  1.1441  0.4324
 5220SOL    HW222901   3.967  12.059   0.241 -0.2333  0.8537  0.9790
 5221SOL     OW22902   5.497   4.698   5.250 -0.0719  0.3103  0.0415
 5221SOL    HW122903   5.532   4.693   5.339  2.7231 -0.3935 -1.0054
 5221SOL    HW222904   5.410   4.659   5.256 -0.5226  1.5488  2.6913
 5222SOL     OW22905  11.833  11.819   1.928 -0.3873  0.3694  0.3519
 5222SOL    HW122906  11.758  11.764   1.947 -0.0312  0.1330  1.0824
 5222SOL    HW222907  11.878  11.829   2.011 -0.1134  1.2735  0.1096
 5223SOL     OW22908  11.123   2.744  11.969  0.4504  0.0956  0.2529
 5223SOL    HW122909  11.158   2.804  12.034  0.5167 -0.4217  0.7078
 5223SOL    HW222910  11.143   2.784  11.884  1.2401  0.2959  0.5338
 5224SOL     OW22911  11.509   6.628   5.153 -0.2674  0.4236  0.2453
 5224SOL    HW122912  11.455   6.699   5.117 -0.1350 -0.7233 -2.4518
 5224SOL    HW222913  11.589   6.672   5.182  0.0821  1.4133 -1.9642
 5225SOL     OW22914   7.487   9.535   1.620 -0.9318 -0.1254 -0.6505
 5225SOL    HW122915   7.399   9.564   1.644 -1.0454  0.4793 -1.7776
 5225SOL    HW222916   7.539   9.615   1.618 -0.2667 -0.5163  0.3217
 5226SOL     OW22917  12.020  12.511   3.298 -0.3138  0.6115 -0.2291
 5226SOL    HW122918  12.028  12.555   3.214 -1.2751 -0.1059 -0.7141
 5226SOL    HW222919  12.049  12.576   3.362  1.4897  0.8024 -1.1815
 5227SOL     OW22920   9.896   3.975   9.245 -0.2497 -0.1965  0.7006
 5227SOL    HW122921   9.867   3.974   9.154  2.6389 -0.5413 -0.3295
 5227SOL    HW222922   9.970   4.035   9.246  0.3749 -0.9175  2.6139
 5228SOL     OW22923  10.924  10.043   7.215 -0.1765  0.3126  0.5688
 5228SOL    HW122924  10.894  10.099   7.287  0.5525  1.9924 -0.3725
 5228SOL    HW222925  10.922  10.100   7.139  2.0379 -0.5074 -0.1699
 5229SOL     OW22926   1.117   2.240   0.430  0.4109 -0.2721 -0.2069
 5229SOL    HW122927   1.199   2.284   0.452 -0.2856  0.9647  0.0140
 5229SOL    HW222928   1.076   2.221   0.515 -0.6264  1.3048 -0.3090
 5230SOL     OW22929   5.742   0.586   6.643  0.2687  0.8777 -0.2360
 5230SOL    HW122930   5.832   0.605   6.669  0.3641  0.9764 -0.6203
 5230SOL    HW222931   5.722   0.503   6.685  1.1032  0.0396 -1.4176
 5231SOL     OW22932   9.982   0.204   5.434  0.3942 -0.1500 -0.3289
 5231SOL    HW122933   9.950   0.247   5.513 -0.2316  1.2275 -1.3042
 5231SOL    HW222934   9.905   0.195   5.378  1.1031  0.3238 -1.4125
 5232SOL     OW22935  11.503   5.630   9.692 -0.1504  0.5057  0.9267
 5232SOL    HW122936  11.530   5.594   9.607 -0.0706  1.9941  0.2856
 5232SOL    HW222937  11.560   5.588   9.756 -0.0242 -0.4366  0.2111
 5233SOL     OW22938   0.379   8.332  12.058 -0.6801  0.2784  0.3815
 5233SOL    HW122939   0.378   8.252  12.006  1.6045 -0.4479  1.3502
 5233SOL    HW222940   0.462   8.374  12.036 -0.5771  0.9590  1.9617
 5234SOL     OW22941   7.310   8.118   8.502  0.0051  0.5058 -0.4348
 5234SOL    HW122942   7.298   8.027   8.527 -0.5144  0.6155 -0.2769
 5234SOL    HW222943   7.389   8.146   8.550 -0.3002  0.3743  0.1548
 5235SOL     OW22944  11.680   6.687   5.734 -0.2258  0.0661  0.0485
 5235SOL    HW122945  11.734   6.743   5.789 -1.0591  0.8759  0.0556
 5235SOL    HW222946  11.609   6.658   5.791 -0.0289 -0.6718 -0.0700
 5236SOL     OW22947   3.054   8.215   1.196 -0.2032  0.2774 -0.2958
 5236SOL    HW122948   3.097   8.234   1.112 -0.0509 -0.7639 -0.4710
 5236SOL    HW222949   2.964   8.246   1.185 -0.0711  0.5250 -0.6957
 5237SOL     OW22950  10.175  10.047   8.000 -0.5910  0.1800  0.2923
 5237SOL    HW122951  10.126  10.128   8.008  0.1501  0.8780 -1.6262
 5237SOL    HW222952  10.164  10.021   7.908  2.7997  0.5542 -0.3587
 5238SOL     OW22953   1.644   6.532  11.527  0.8907  0.4699 -0.2704
 5238SOL    HW122954   1.711   6.589  11.490 -0.0086  0.9362 -1.2281
 5238SOL    HW222955   1.689   6.449  11.543  1.5609  0.6008 -1.4147
 5239SOL     OW22956   0.042  11.965   2.954 -0.3309 -0.6149 -0.1132
 5239SOL    HW122957   0.104  11.900   2.986 -0.6864 -0.5212  0.8062
 5239SOL    HW222958   0.096  12.037   2.923  0.0437 -0.9830 -0.3116
 5240SOL     OW22959   4.169   4.440   1.256  0.0365 -0.0114 -0.7876
 5240SOL    HW122960   4.250   4.485   1.282  0.0583 -0.1367 -0.6366
 5240SOL    HW222961   4.192   4.347   1.255 -0.2131 -0.0819 -0.3422
 5241SOL     OW22962   3.122   1.104   6.908  0.3982 -0.2666  0.0481
 5241SOL    HW122963   3.184   1.035   6.883 -1.0501 -1.8618  0.6877
 5241SOL    HW222964   3.118   1.160   6.831  1.9036 -0.6620 -0.3552
 5242SOL     OW22965  11.801  10.237   2.472  0.2852  0.0348  0.3649
 5242SOL    HW122966  11.896  10.235   2.483  0.5612 -3.2340 -1.4800
 5242SOL    HW222967  11.787  10.273   2.384 -0.2165  0.5771  0.6578
 5243SOL     OW22968   1.681  11.558   9.014 -0.0905  0.0948  0.0194
 5243SOL    HW122969   1.689  11.511   9.098  1.3060 -2.4614 -1.4301
 5243SOL    HW222970   1.749  11.626   9.018 -0.5511  0.5164  1.2257
 5244SOL     OW22971   2.161   1.404   9.408  0.3546 -0.0200  0.8020
 5244SOL    HW122972   2.181   1.369   9.495  2.5643 -0.3961  0.2111
 5244SOL    HW222973   2.086   1.354   9.378  0.2271 -0.6139  2.0688
 5245SOL     OW22974   7.300   1.562  10.325  0.4326  0.1702 -0.3710
 5245SOL    HW122975   7.334   1.475  10.306 -0.3582 -0.2908  0.2218
 5245SOL    HW222976   7.212   1.563  10.286  1.0381  1.3036 -1.8137
 5246SOL     OW22977   7.951   1.756   7.499 -0.3034 -0.1828  0.0841
 5246SOL    HW122978   8.013   1.817   7.539  0.5429 -0.6326 -0.5099
 5246SOL    HW222979   7.932   1.693   7.568  0.8950 -0.7695 -0.1096
 5247SOL     OW22980   3.131   9.511   3.300 -0.0392 -0.0523 -0.5440
 5247SOL    HW122981   3.179   9.434   3.332 -0.3055  0.3708  0.9820
 5247SOL    HW222982   3.042   9.498   3.333 -0.0906  0.8794 -0.3051
 5248SOL     OW22983  10.480  11.721   9.492 -0.3951  0.9717 -0.0717
 5248SOL    HW122984  10.451  11.766   9.413 -0.6049  1.4228  0.2572
 5248SOL    HW222985  10.402  11.719   9.548 -0.0881  1.1917  0.3658
 5249SOL     OW22986   5.916   4.093  10.383 -0.0978 -0.1761  0.8587
 5249SOL    HW122987   5.829   4.053  10.384 -0.6494  1.0201  1.7718
 5249SOL    HW222988   5.975   4.019  10.370 -1.1520 -1.1869  1.6104
 5250SOL     OW22989   7.179   4.010   6.680  0.0174  0.7163  0.0279
 5250SOL    HW122990   7.154   4.100   6.699 -0.2228  0.3520  1.5978
 5250SOL    HW222991   7.096   3.964   6.671  0.1122  0.2932  1.1703
 5251SOL     OW22992   2.460   1.232   4.177  0.1404  0.3333  0.2132
 5251SOL    HW122993   2.471   1.227   4.272  0.8324 -1.6325  0.0711
 5251SOL    HW222994   2.368   1.209   4.163  0.1969  0.0017  0.3711
 5252SOL     OW22995   5.727   0.313  11.469  0.1084 -0.4215  0.4028
 5252SOL    HW122996   5.765   0.226  11.465  2.5796  0.6140 -0.1220
 5252SOL    HW222997   5.671   0.319  11.392  0.0808 -1.4499  0.3377
 5253SOL     OW22998   9.514  10.051   3.418 -0.9435 -0.0823 -0.2433
 5253SOL    HW122999   9.521  10.040   3.513  0.7734 -0.0172 -0.3231
 5253SOL    HW223000   9.474  10.137   3.406 -3.1458 -0.9471  0.3835
 5254SOL     OW23001   4.166  10.046  11.935 -0.2062 -0.3967 -0.2764
 5254SOL    HW123002   4.180  10.138  11.959  0.4879 -1.0464  2.0764
 5254SOL    HW223003   4.138  10.004  12.016 -2.2322 -1.9694 -1.6790
 5255SOL     OW23004   2.932   3.947  10.999 -0.0048 -0.2227  0.0702
 5255SOL    HW123005   2.920   4.021  10.939  0.5389 -1.5975 -1.8486
 5255SOL    HW223006   2.982   3.983  11.072  0.4019  1.2841 -0.8974
 5256SOL     OW23007   6.323   3.998   7.664 -0.1426 -0.2993 -0.9932
 5256SOL    HW123008   6.287   4.071   7.715  0.0622 -0.8717 -0.0201
 5256SOL    HW223009   6.295   4.016   7.574 -3.3412 -0.9874 -0.2486
 5257SOL     OW23010   0.575   5.005  11.085  0.2217 -0.0332  0.1629
 5257SOL    HW123011   0.556   4.984  10.993  1.7923 -0.4087 -0.1146
 5257SOL    HW223012   0.637   5.077  11.080 -0.9473  1.0589  0.9990
 5258SOL     OW23013   5.173  11.153   9.985 -0.0974  0.5041 -0.4179
 5258SOL    HW123014   5.127  11.236   9.974 -2.2103 -0.3087  1.4668
 5258SOL    HW223015   5.118  11.089   9.940 -0.0655 -0.2946  0.6419
 5259SOL     OW23016   8.772   9.710  10.124 -0.2792  0.1516  0.4982
 5259SOL    HW123017   8.697   9.665  10.086 -0.1652 -1.0921  1.6746
 5259SOL    HW223018   8.766   9.691  10.218  0.9833  0.8076  0.7287
 5260SOL     OW23019   6.407   1.346   2.593  0.1403  0.1318  0.4092
 5260SOL    HW123020   6.357   1.318   2.670 -0.1629  1.7131  0.8185
 5260SOL    HW223021   6.380   1.437   2.578  0.7723  0.1012 -1.1095
 5261SOL     OW23022   0.249   8.584   7.343  0.4228  0.0355  0.0195
 5261SOL    HW123023   0.167   8.602   7.388 -0.6809 -1.8280 -1.1423
 5261SOL    HW223024   0.235   8.501   7.299  2.9724 -0.3705 -0.1759
 5262SOL     OW23025  10.724   4.039   9.084  0.0706 -0.4394  0.3121
 5262SOL    HW123026  10.756   3.959   9.042 -2.5975 -0.8841 -1.0996
 5262SOL    HW223027  10.691   4.010   9.169  0.5623 -0.5207  0.4805
 5263SOL     OW23028  10.691  10.321   5.190 -0.7112 -0.4136 -0.4202
 5263SOL    HW123029  10.652  10.403   5.219  1.0215 -0.3703  2.1622
 5263SOL    HW223030  10.633  10.290   5.120 -3.1420  1.4460  0.6111
 5264SOL     OW23031   2.633   1.742   1.047  0.4358  0.0091 -0.3735
 5264SOL    HW123032   2.542   1.720   1.065  0.9509 -1.2783  0.9183
 5264SOL    HW223033   2.643   1.730   0.953 -0.1677 -2.1778 -0.2084
 5265SOL     OW23034   4.151   0.501  12.674  0.0253  0.7802  0.6646
 5265SOL    HW123035   4.062   0.469  12.661  0.4797  0.2630 -1.5953
 5265SOL    HW223036   4.206   0.423  12.663  0.8779  1.5050 -0.3343
 5266SOL     OW23037   0.528   5.473   4.306  0.9907  0.2299 -0.4748
 5266SOL    HW123038   0.611   5.493   4.264  0.7761 -1.0840 -1.5890
 5266SOL    HW223039   0.549   5.471   4.400  1.7105  2.0630 -0.5537
 5267SOL     OW23040   3.874   9.970   3.348 -0.0551  1.0308  0.5668
 5267SOL    HW123041   3.826  10.047   3.379 -1.0814  0.9384 -0.7134
 5267SOL    HW223042   3.836   9.951   3.262 -0.4713 -1.4319  1.2054
 5268SOL     OW23043   2.466   7.935  10.233 -0.0038  0.3142  0.0464
 5268SOL    HW123044   2.524   7.867  10.199 -0.5322 -0.2766  0.2965
 5268SOL    HW223045   2.387   7.928  10.179  0.6441  2.0197 -1.1952
 5269SOL     OW23046  11.926   1.165   3.923  0.1196  0.5600  0.2971
 5269SOL    HW123047  11.980   1.099   3.967  1.0542  0.2247 -1.2696
 5269SOL    HW223048  11.907   1.229   3.991  0.4689 -0.5485  1.4818
 5270SOL     OW23049  10.983   1.011   7.490  0.1193 -0.0351  0.2223
 5270SOL    HW123050  11.044   1.062   7.544  0.4677  1.3706 -1.3821
 5270SOL    HW223051  10.952   1.074   7.424 -1.9826 -1.1054  0.1302
 5271SOL     OW23052   7.690   9.053   6.613 -0.4132 -0.1415 -0.6570
 5271SOL    HW123053   7.778   9.060   6.650 -0.2917 -0.6377 -0.8395
 5271SOL    HW223054   7.641   9.124   6.653  0.1280  0.2657 -0.7117
 5272SOL     OW23055   4.624   4.106   8.568 -0.7366 -0.1072 -0.3764
 5272SOL    HW123056   4.648   4.088   8.659  0.4201  1.5100 -0.3100
 5272SOL    HW223057   4.543   4.157   8.574 -0.4437  0.3473 -0.2123
 5273SOL     OW23058  12.703   5.791  10.399  0.2237 -0.1349 -0.4967
 5273SOL    HW123059  12.608   5.783  10.397  0.3854 -3.6227  0.1032
 5273SOL    HW223060  12.734   5.733  10.329  1.9036 -1.0964  0.9491
 5274SOL     OW23061   9.139   5.413   7.586  0.4903 -0.1135  0.0097
 5274SOL    HW123062   9.077   5.446   7.522  0.8849  0.9032  0.1327
 5274SOL    HW223063   9.220   5.461   7.569  1.1015 -1.0516  0.1775
 5275SOL     OW23064  10.318   6.869   1.692  0.0224 -0.1996  0.1701
 5275SOL    HW123065  10.357   6.789   1.658  1.7696  2.1398 -4.2661
 5275SOL    HW223066  10.228   6.869   1.659 -0.2407 -0.6665  0.8770
 5276SOL     OW23067   4.855   0.406   0.971 -0.9744 -0.1950  0.0053
 5276SOL    HW123068   4.787   0.370   1.027  0.3368 -0.9229  1.2079
 5276SOL    HW223069   4.822   0.394   0.882 -1.2396 -3.1678  0.3863
 5277SOL     OW23070   2.391   7.320   7.926  0.4081 -0.0190  0.7153
 5277SOL    HW123071   2.354   7.395   7.972  1.2760 -0.0774  1.5362
 5277SOL    HW223072   2.417   7.354   7.840 -3.1750 -0.3690 -0.6826
 5278SOL     OW23073   1.348   3.715   3.946  1.1140  0.2082 -0.5916
 5278SOL    HW123074   1.329   3.709   4.040 -1.2903 -0.2878 -1.0298
 5278SOL    HW223075   1.312   3.634   3.910  1.3394  0.7240 -2.0338
 5279SOL     OW23076  12.275  10.413   8.210 -0.3641 -0.6529 -0.2090
 5279SOL    HW123077  12.293  10.319   8.208  1.3814 -0.3610  0.2505
 5279SOL    HW223078  12.327  10.446   8.283 -0.0973  0.8413 -1.0353
 5280SOL     OW23079  11.142   2.251   8.625 -0.0761 -1.0005 -0.7599
 5280SOL    HW123080  11.115   2.285   8.540 -2.8353 -2.1133 -0.4225
 5280SOL    HW223081  11.126   2.324   8.686  0.7487 -0.6093 -0.9990
 5281SOL     OW23082  12.687   8.190  11.365  0.4418  0.0289 -0.0926
 5281SOL    HW123083  12.730   8.197  11.451  1.8746  0.0196 -0.7733
 5281SOL    HW223084  12.718   8.267  11.317  0.7438 -0.6738 -1.0519
 5282SOL     OW23085   2.192  11.860   3.693 -0.3296 -0.2171  1.0485
 5282SOL    HW123086   2.161  11.951   3.693  0.7680  0.2170  2.9225
 5282SOL    HW223087   2.122  11.811   3.650 -0.2749  1.6885 -1.4512
 5283SOL     OW23088   4.383   8.354   2.939  0.1853 -0.2872 -0.6466
 5283SOL    HW123089   4.431   8.437   2.941  0.2707 -0.2690 -2.0319
 5283SOL    HW223090   4.294   8.378   2.915 -0.0831 -0.4991  0.1061
 5284SOL     OW23091   4.518   2.218   3.496  0.2518 -0.1858  0.1346
 5284SOL    HW123092   4.534   2.244   3.405  0.5530  0.8749  0.4832
 5284SOL    HW223093   4.602   2.187   3.528  0.4620  0.6536  0.4299
 5285SOL     OW23094   0.668   4.990   6.569  0.1496 -0.4714 -0.1856
 5285SOL    HW123095   0.581   5.020   6.596  0.2999  0.0685 -0.2951
 5285SOL    HW223096   0.716   5.070   6.548  0.2314 -0.8421 -1.4637
 5286SOL     OW23097   6.116   4.933  10.350  0.0473 -0.6111 -0.3147
 5286SOL    HW123098   6.069   4.909  10.270 -1.9613 -1.5486  1.0684
 5286SOL    HW223099   6.123   4.852  10.400 -0.0624  0.2258  1.1149
 5287SOL     OW23100   5.858   6.326   6.974  0.2516  0.1290 -0.2384
 5287SOL    HW123101   5.925   6.259   6.961  0.8230  0.5422  0.5366
 5287SOL    HW223102   5.777   6.276   6.987  0.6205 -0.4075  0.0647
 5288SOL     OW23103   5.600   5.289   6.112  0.1041  0.4420 -0.6313
 5288SOL    HW123104   5.602   5.357   6.179 -0.7058 -1.1089  1.0404
 5288SOL    HW223105   5.637   5.212   6.154  0.7853 -0.2494 -2.3984
 5289SOL     OW23106  11.626  10.799   8.264  0.2327  0.3555 -0.1345
 5289SOL    HW123107  11.644  10.805   8.357 -0.3303 -2.5775  0.2816
 5289SOL    HW223108  11.709  10.818   8.221  0.5473  1.5324  0.9610
 5290SOL     OW23109  12.614   6.968   5.300  0.2216 -0.0570  0.3239
 5290SOL    HW123110  12.544   7.006   5.248  1.3503  1.3877 -0.1950
 5290SOL    HW223111  12.693   7.013   5.271  1.1645 -0.6036  1.9149
 5291SOL     OW23112   0.447  10.030   2.826 -1.1849  0.0576  0.0721
 5291SOL    HW123113   0.519  10.093   2.823  0.1378 -1.1475  2.9103
 5291SOL    HW223114   0.465   9.969   2.754  0.1706  0.2589  0.2193
 5292SOL     OW23115   9.335  12.381   6.670 -0.2610  0.2218  0.3426
 5292SOL    HW123116   9.240  12.374   6.684 -0.5473 -0.3737 -1.6695
 5292SOL    HW223117   9.345  12.391   6.576  1.7344 -0.4610  0.4358
 5293SOL     OW23118   1.058   7.279   9.471 -0.2410 -0.3175  0.2234
 5293SOL    HW123119   0.963   7.278   9.460 -0.0714 -0.4110 -1.4011
 5293SOL    HW223120   1.078   7.367   9.504 -0.7289  0.3543 -1.2171
 5294SOL     OW23121   8.942   9.620   4.252  0.2340 -0.2122 -0.3742
 5294SOL    HW123122   8.929   9.553   4.185 -1.6545  0.2916 -0.5697
 5294SOL    HW223123   8.883   9.692   4.226 -0.6012 -0.0240  1.8229
 5295SOL     OW23124   5.029   1.539   9.421 -0.1276  0.2180  0.2452
 5295SOL    HW123125   5.079   1.550   9.340 -0.6286 -1.0614 -0.2636
 5295SOL    HW223126   4.948   1.589   9.407 -0.5899 -0.6971 -0.3954
 5296SOL     OW23127   6.978   0.224   7.628 -0.2144 -0.3581 -0.2746
 5296SOL    HW123128   7.047   0.254   7.688  0.8922 -2.4408 -0.4406
 5296SOL    HW223129   6.897   0.254   7.668  0.6178 -0.1909  1.3561
 5297SOL     OW23130   1.449   9.050   9.615  0.2263  0.1062 -0.0917
 5297SOL    HW123131   1.425   9.078   9.527  2.2241 -0.3662 -0.8435
 5297SOL    HW223132   1.504   9.120   9.650 -0.4738  0.2511  0.7688
 5298SOL     OW23133   7.321   1.681   3.493  1.0241 -0.2466 -0.0060
 5298SOL    HW123134   7.404   1.723   3.472  0.6854  0.7392  0.5529
 5298SOL    HW223135   7.298   1.634   3.413  1.9585 -0.2682 -0.2756
 5299SOL     OW23136  11.158   7.321   3.512 -0.5017  0.2270 -0.3958
 5299SOL    HW123137  11.156   7.255   3.443  1.0350 -0.0246 -0.2246
 5299SOL    HW223138  11.186   7.401   3.468  0.8195 -0.0144 -0.0234
 5300SOL     OW23139   6.004   9.470   8.470 -0.4350  0.0614 -0.1055
 5300SOL    HW123140   6.018   9.465   8.564 -1.4415  0.6986  0.0902
 5300SOL    HW223141   5.913   9.443   8.457  0.0632 -1.2823 -1.0447
 5301SOL     OW23142   1.480   0.113   3.521  0.5367  0.0087  0.0015
 5301SOL    HW123143   1.494   0.199   3.483  1.5406  0.5771  1.5803
 5301SOL    HW223144   1.403   0.124   3.577  0.4553 -0.2230 -0.0629
 5302SOL     OW23145  10.919   0.085   8.815  0.1455  0.3666  0.2606
 5302SOL    HW123146  10.871   0.083   8.898 -0.2678 -0.3435  0.0112
 5302SOL    HW223147  10.951   0.175   8.809 -0.4727  0.6385  0.8210
 5303SOL     OW23148  10.139  10.460   8.228 -0.0480 -0.0896 -0.2415
 5303SOL    HW123149  10.132  10.452   8.323 -2.7579  2.3394 -0.0901
 5303SOL    HW223150  10.211  10.521   8.214 -0.3992  0.4656  0.3403
 5304SOL     OW23151   9.423   4.294   7.713  0.1055  0.8107 -0.1018
 5304SOL    HW123152   9.512   4.299   7.746  0.3929  0.5077 -0.8111
 5304SOL    HW223153   9.394   4.385   7.710  0.6325  0.9751 -0.4838
 5305SOL     OW23154  11.115   6.371   2.926  0.5568 -0.3961  0.4954
 5305SOL    HW123155  11.089   6.454   2.964 -2.4929 -1.3952  0.8686
 5305SOL    HW223156  11.096   6.379   2.833  0.4855 -0.5983  0.4908
 5306SOL     OW23157   9.528  11.402  11.146 -0.6322  0.4685  0.3031
 5306SOL    HW123158   9.471  11.406  11.069 -0.2746 -1.3870 -0.1096
 5306SOL    HW223159   9.589  11.331  11.127  0.8371  1.3813  1.4072
 5307SOL     OW23160   4.701  11.350   5.341  0.5617  0.2665 -0.4239
 5307SOL    HW123161   4.666  11.263   5.323  2.2152 -0.7387  0.9086
 5307SOL    HW223162   4.674  11.369   5.431  0.4271  1.0259 -0.6187
 5308SOL     OW23163  10.747  12.610   8.679 -0.0724  0.2083 -1.1281
 5308SOL    HW123164  10.799  12.562   8.744 -4.3613 -0.7217  2.0678
 5308SOL    HW223165  10.752  12.702   8.707 -0.2502  0.0999 -0.7377
 5309SOL     OW23166   8.543   5.720   1.498 -0.1252 -0.1455  0.2535
 5309SOL    HW123167   8.542   5.797   1.555  1.6585 -0.1043  0.2913
 5309SOL    HW223168   8.526   5.647   1.558 -0.2260  0.0696  0.4925
 5310SOL     OW23169  10.545   2.712   8.875  0.3445  0.0297 -0.4940
 5310SOL    HW123170  10.527   2.624   8.909  1.2734 -0.2927 -0.7782
 5310SOL    HW223171  10.640   2.721   8.884  0.6529 -0.0542 -2.9022
 5311SOL     OW23172  10.124   4.133  11.814 -0.2016  0.3691  0.3236
 5311SOL    HW123173  10.188   4.138  11.885  0.5408 -0.5094 -0.2544
 5311SOL    HW223174  10.062   4.203  11.832  1.9119  2.4468 -0.0424
 5312SOL     OW23175   2.707   9.743  10.486 -0.6674 -0.0639 -0.1505
 5312SOL    HW123176   2.715   9.813  10.552  0.7790  0.6230 -0.9943
 5312SOL    HW223177   2.779   9.684  10.507  0.6011  0.8119 -1.8085
 5313SOL     OW23178   6.055  11.629   3.016 -0.2110 -0.3037 -0.7625
 5313SOL    HW123179   6.150  11.629   3.029 -0.0155 -0.9441 -2.0433
 5313SOL    HW223180   6.042  11.673   2.932 -1.1557  0.8801 -0.0174
 5314SOL     OW23181   8.684   2.762   3.790 -0.0282  0.1812  0.5708
 5314SOL    HW123182   8.760   2.814   3.816 -0.0886 -0.2290  1.5911
 5314SOL    HW223183   8.635   2.819   3.730  1.6447  0.0579 -1.0117
 5315SOL     OW23184   1.554  10.656   2.905  0.4563  0.1779  0.3078
 5315SOL    HW123185   1.549  10.598   2.829 -0.2435  1.2429 -0.5081
 5315SOL    HW223186   1.643  10.692   2.903  0.5949 -0.1660  0.2823
 5316SOL     OW23187   2.203   2.809  10.397 -0.2268  0.6692 -0.1693
 5316SOL    HW123188   2.113   2.779  10.409  0.2017 -0.7040 -0.2411
 5316SOL    HW223189   2.253   2.761  10.463  0.4415  1.5137 -0.0479
 5317SOL     OW23190   5.430   1.280   0.050 -0.7253  0.0177 -0.7775
 5317SOL    HW123191   5.356   1.336   0.028 -2.1071 -0.4442  2.2539
 5317SOL    HW223192   5.421   1.263   0.143  3.2501 -0.0696 -0.2310
 5318SOL     OW23193   0.632  10.801   0.727  0.2211  0.2720  0.0233
 5318SOL    HW123194   0.718  10.829   0.757  0.1889  0.6153 -0.1974
 5318SOL    HW223195   0.642  10.786   0.633  0.1129  0.0171  0.0491
 5319SOL     OW23196   2.016   9.460   0.866  0.2715 -0.3094 -0.7679
 5319SOL    HW123197   1.952   9.491   0.802  1.1568 -0.1970 -1.6212
 5319SOL    HW223198   1.979   9.485   0.951  0.1416  1.6167 -1.3302
 5320SOL     OW23199   4.082   8.377   2.209  0.1668  0.0720 -0.1740
 5320SOL    HW123200   4.079   8.302   2.150  1.6835  0.0544 -0.2519
 5320SOL    HW223201   4.067   8.452   2.153  0.3434 -0.0374 -0.3662
 5321SOL     OW23202   9.083   1.447   3.250  0.0203  0.2239  0.2863
 5321SOL    HW123203   9.010   1.461   3.309  0.5151 -1.7204  1.4632
 5321SOL    HW223204   9.053   1.379   3.190  0.2922  0.5910 -0.2716
 5322SOL     OW23205  11.627   0.182  11.562 -0.0600  0.2339  0.3742
 5322SOL    HW123206  11.609   0.275  11.544 -0.5157  0.1804  0.5452
 5322SOL    HW223207  11.679   0.184  11.642  0.0716  0.3477  0.2892
 5323SOL     OW23208   6.655  11.862   0.753  0.4405 -0.7213  0.5007
 5323SOL    HW123209   6.641  11.952   0.726 -0.2265 -1.1230 -0.5702
 5323SOL    HW223210   6.730  11.866   0.812  0.5710  0.4948  0.2839
 5324SOL     OW23211  12.376  11.764   3.437  0.1690 -0.1211  0.4189
 5324SOL    HW123212  12.377  11.702   3.364 -0.5469 -0.7364  0.9190
 5324SOL    HW223213  12.297  11.743   3.486 -1.4729  2.7832 -0.7250
 5325SOL     OW23214  10.526   1.873   7.971  0.4907  0.0108  0.2128
 5325SOL    HW123215  10.438   1.842   7.952  0.7698 -2.1820  2.0673
 5325SOL    HW223216  10.516   1.968   7.982 -1.6612 -0.2076  0.5486
 5326SOL     OW23217   6.034   3.782  10.066 -0.3211 -0.0115 -0.5417
 5326SOL    HW123218   6.003   3.848  10.003 -0.7263  0.6397  0.3247
 5326SOL    HW223219   6.080   3.832  10.133  0.5010 -0.7454 -0.5463
 5327SOL     OW23220   8.913   8.569   2.778  0.2029  0.2033 -0.2105
 5327SOL    HW123221   8.889   8.630   2.708 -0.8785 -1.5420 -1.4307
 5327SOL    HW223222   8.842   8.574   2.841  1.3921  2.1177  1.1013
 5328SOL     OW23223   9.446  11.360  10.904  0.3685 -0.0703 -0.3225
 5328SOL    HW123224   9.363  11.407  10.917 -0.5300 -2.1171  2.2051
 5328SOL    HW223225   9.466  11.373  10.811 -2.4435  1.0390 -0.8921
 5329SOL     OW23226   6.427   0.462  11.875 -0.5459  0.0326 -0.5527
 5329SOL    HW123227   6.358   0.526  11.890  0.6894  2.1171 -2.9552
 5329SOL    HW223228   6.500   0.491  11.929 -0.9180 -1.1678  0.6545
 5330SOL     OW23229   5.153   3.489  12.202 -0.2386 -0.3247  0.2799
 5330SOL    HW123230   5.094   3.414  12.192 -1.4227  0.5746  0.3226
 5330SOL    HW223231   5.140   3.518  12.292  1.6060 -1.1761  0.8566
 5331SOL     OW23232  12.510   4.090   6.303  0.2430  0.7814 -0.0478
 5331SOL    HW123233  12.542   4.179   6.289 -0.5334  1.0581 -0.1140
 5331SOL    HW223234  12.416   4.101   6.319  0.3612  0.0972  1.2054
 5332SOL     OW23235   2.163   4.326   2.290 -0.1994  0.6670 -0.4347
 5332SOL    HW123236   2.258   4.329   2.295 -0.1746 -0.6583  0.2974
 5332SOL    HW223237   2.145   4.292   2.202  0.0488 -0.0563 -0.2162
 5333SOL     OW23238  10.817  10.778   0.549 -0.6620 -0.0524 -0.1540
 5333SOL    HW123239  10.737  10.727   0.535 -0.2841 -0.4278 -1.0400
 5333SOL    HW223240  10.888  10.718   0.526 -0.0057 -0.3344  2.3761
 5334SOL     OW23241  12.659  10.327   6.657  0.2431  0.2277 -0.0630
 5334SOL    HW123242  12.598  10.346   6.727 -0.1114  1.4919 -0.6799
 5334SOL    HW223243  12.621  10.370   6.580  1.1727 -0.2000 -0.7825
 5335SOL     OW23244   9.918   1.982   8.771  0.2486  0.1247 -0.3762
 5335SOL    HW123245   9.887   1.895   8.797 -0.5828  0.3402 -0.6127
 5335SOL    HW223246   9.934   2.027   8.854  0.4928 -0.1873 -0.2511
 5336SOL     OW23247   9.109  11.503  11.316 -0.3241 -0.1505 -0.3377
 5336SOL    HW123248   9.144  11.579  11.364  0.5673 -0.9666  0.3516
 5336SOL    HW223249   9.105  11.433  11.381  0.2074 -1.0890 -1.2680
 5337SOL     OW23250   3.027   5.522   7.952  0.7557 -0.2518  0.7986
 5337SOL    HW123251   2.938   5.556   7.939  1.3131  1.0293  0.0453
 5337SOL    HW223252   3.064   5.579   8.019  1.1399 -0.5080  0.8054
 5338SOL     OW23253   8.325  12.111   0.386  0.3218  0.3323 -0.4207
 5338SOL    HW123254   8.255  12.097   0.450 -0.8930 -0.2314 -1.8489
 5338SOL    HW223255   8.398  12.059   0.419 -0.4903 -0.4532  0.1763
 5339SOL     OW23256   3.439   6.837   5.692  0.1330 -0.3929 -0.2906
 5339SOL    HW123257   3.438   6.779   5.769 -0.0790  0.6412  0.5072
 5339SOL    HW223258   3.347   6.844   5.667 -0.3954  2.5176  1.9298
 5340SOL     OW23259   1.960   6.466   1.006 -0.0980  0.2531  0.2499
 5340SOL    HW123260   1.886   6.419   1.044 -0.8788  2.3314  1.4707
 5340SOL    HW223261   1.921   6.533   0.950  0.9257  0.2648 -0.4924
 5341SOL     OW23262   1.568   8.587  11.145  0.0703 -0.0762  0.1740
 5341SOL    HW123263   1.517   8.668  11.148 -0.2161 -0.1255 -2.0268
 5341SOL    HW223264   1.507   8.519  11.175 -0.3938  0.2059 -0.1267
 5342SOL     OW23265   8.903   7.714   1.858 -0.4010  0.7771 -0.4386
 5342SOL    HW123266   8.924   7.723   1.951  0.9760 -1.8684 -0.4088
 5342SOL    HW223267   8.860   7.628   1.851  0.9049  0.2137 -2.4081
 5343SOL     OW23268   8.095   5.279   2.062  0.2427 -0.0114  0.1624
 5343SOL    HW123269   8.056   5.313   2.143  0.3555  0.7272 -0.0966
 5343SOL    HW223270   8.023   5.278   1.999  0.1915 -0.4511  0.2190
 5344SOL     OW23271   6.864   8.128   9.970 -0.3774 -0.4417  0.5048
 5344SOL    HW123272   6.860   8.032   9.969  0.0457 -0.6340 -3.9532
 5344SOL    HW223273   6.946   8.149   9.924 -1.3755  1.9887 -0.3240
 5345SOL     OW23274   9.703   9.098   1.837 -0.4089  1.2110  0.2693
 5345SOL    HW123275   9.733   9.132   1.921 -1.6576  0.6575  0.9646
 5345SOL    HW223276   9.742   9.011   1.830  0.5598  1.6728 -0.2366
 5346SOL     OW23277  11.946  11.347   8.612 -0.0809  0.5318  0.3372
 5346SOL    HW123278  12.039  11.340   8.591  0.3812  3.0246  1.1159
 5346SOL    HW223279  11.933  11.286   8.684  0.8406 -0.1589 -0.0586
 5347SOL     OW23280   0.904  12.427   5.767 -0.4649 -0.7632 -0.2656
 5347SOL    HW123281   0.809  12.434   5.768 -0.5846 -2.1465  0.4464
 5347SOL    HW223282   0.922  12.336   5.793  1.0819  0.0079  1.6653
 5348SOL     OW23283   1.434   1.403   7.593 -0.4600 -0.3326 -0.6067
 5348SOL    HW123284   1.418   1.348   7.515 -0.0563 -0.0008 -0.9262
 5348SOL    HW223285   1.412   1.492   7.564 -1.3706 -0.3487 -0.0119
 5349SOL     OW23286   9.799   9.654   1.761  0.4780  0.3556  0.0033
 5349SOL    HW123287   9.765   9.738   1.731 -2.2850  0.2241  2.3256
 5349SOL    HW223288   9.762   9.590   1.700 -1.8903  0.4460  1.2002
 5350SOL     OW23289   6.757  11.998  10.668 -0.0681 -0.1319  0.0004
 5350SOL    HW123290   6.711  11.918  10.693 -1.0218  0.9222  1.7575
 5350SOL    HW223291   6.800  12.028  10.748 -0.1386  1.3817 -0.4941
 5351SOL     OW23292  12.647   3.935  10.877 -0.1944  0.7135  0.1328
 5351SOL    HW123293  12.681   3.932  10.967  0.2281  0.9213 -0.0176
 5351SOL    HW223294  12.565   3.886  10.881  0.8024 -1.0704  0.2206
 5352SOL     OW23295  11.676   6.659   3.214  0.3733  0.5712  0.0791
 5352SOL    HW123296  11.767   6.650   3.187 -0.2157 -3.6958 -1.2905
 5352SOL    HW223297  11.679   6.668   3.309  2.1494  2.6787 -0.0964
 5353SOL     OW23298   0.907   3.197   3.946 -0.1171  0.0634 -0.0275
 5353SOL    HW123299   0.899   3.287   3.977  1.3162  0.5101 -0.8302
 5353SOL    HW223300   0.997   3.172   3.968  0.1049 -0.4942 -1.4336
 5354SOL     OW23301   2.887  11.809  11.125 -0.3498  0.2332 -0.2658
 5354SOL    HW123302   2.847  11.869  11.188 -0.6364  0.1871 -0.4011
 5354SOL    HW223303   2.846  11.831  11.041 -0.2762  0.0139 -0.3602
 5355SOL     OW23304   2.516  10.907   1.668  0.7361  0.2330 -0.0835
 5355SOL    HW123305   2.604  10.891   1.703 -0.4838 -1.2835  2.5759
 5355SOL    HW223306   2.460  10.847   1.716 -2.1155  2.6826 -0.0457
 5356SOL     OW23307   1.939   1.125   3.080 -0.0142 -0.5417 -0.5490
 5356SOL    HW123308   1.886   1.066   3.026  0.9690 -0.3057 -1.8393
 5356SOL    HW223309   2.025   1.125   3.037  0.4139  0.7079  0.2609
 5357SOL     OW23310   9.547   0.896   2.033 -0.4963  0.2653  0.1372
 5357SOL    HW123311   9.623   0.943   1.997 -1.9189  0.9223 -2.2570
 5357SOL    HW223312   9.496   0.964   2.078 -0.3115  0.0825  0.6272
 5358SOL     OW23313   9.766   6.715   9.853 -0.4150 -0.0393 -0.3422
 5358SOL    HW123314   9.689   6.768   9.832 -0.8339  0.5964  2.3496
 5358SOL    HW223315   9.828   6.735   9.784 -1.5193  1.9878 -0.8550
 5359SOL     OW23316   9.710   5.616   6.609  0.0106  0.0202 -0.8303
 5359SOL    HW123317   9.758   5.583   6.533  1.7491 -1.0745  0.6530
 5359SOL    HW223318   9.639   5.553   6.621  0.5722 -0.6071 -0.7367
 5360SOL     OW23319   6.197   7.161   0.754 -0.1873 -0.1574 -0.5021
 5360SOL    HW123320   6.167   7.248   0.779 -0.2678 -0.4470  0.4351
 5360SOL    HW223321   6.154   7.102   0.815  1.2212 -0.7138 -0.0031
 5361SOL     OW23322   5.748   8.025   8.613  0.1618  0.4195  0.1332
 5361SOL    HW123323   5.769   7.953   8.672 -0.3972 -0.4866 -0.7350
 5361SOL    HW223324   5.797   8.100   8.647  2.5323 -0.8951 -0.2053
 5362SOL     OW23325   1.650   0.955  12.267  0.4909  0.0403  0.1850
 5362SOL    HW123326   1.644   0.905  12.186 -0.1926  0.5700 -0.0885
 5362SOL    HW223327   1.693   1.037  12.242  0.6233  0.0477  0.4318
 5363SOL     OW23328   2.957   7.870   4.154  0.2373 -0.4317  1.0293
 5363SOL    HW123329   2.963   7.854   4.060 -1.1025 -0.0064  0.8515
 5363SOL    HW223330   3.047   7.889   4.181  0.4853  0.4932 -0.3607
 5364SOL     OW23331   2.324   8.151   4.929 -0.4033 -0.2362 -0.2067
 5364SOL    HW123332   2.230   8.154   4.945 -0.6143 -2.0582 -0.9258
 5364SOL    HW223333   2.334   8.100   4.849  1.0749  2.1292 -1.6534
 5365SOL     OW23334   4.338   4.134   2.014  0.4200 -0.0515 -0.7962
 5365SOL    HW123335   4.404   4.203   2.013  1.9412 -1.2739  2.4343
 5365SOL    HW223336   4.387   4.052   2.003 -0.6523 -0.9101  0.4430
 5366SOL     OW23337   3.676   6.670   7.702  0.2005  0.1770  0.5648
 5366SOL    HW123338   3.730   6.618   7.761  0.1742  0.4418  0.8240
 5366SOL    HW223339   3.694   6.634   7.615 -1.0888 -1.3911  0.9008
 5367SOL     OW23340   0.140   5.674   8.392 -0.2006  0.5840 -0.0498
 5367SOL    HW123341   0.229   5.683   8.427 -0.8083  1.5989  1.3044
 5367SOL    HW223342   0.128   5.752   8.339  0.1993 -0.2616 -1.4559
 5368SOL     OW23343   7.358   9.577  10.920  0.1248  0.0182  0.3477
 5368SOL    HW123344   7.396   9.663  10.902  1.0441 -0.0254  1.8765
 5368SOL    HW223345   7.346   9.575  11.015  1.3677 -1.9941  0.5317
 5369SOL     OW23346   0.966  10.325   1.850  0.2891  0.0406  0.9334
 5369SOL    HW123347   0.908  10.250   1.863  1.0316 -0.5146  1.1058
 5369SOL    HW223348   1.039  10.309   1.909  1.5479 -0.2471 -0.6208
 5370SOL     OW23349   5.982   8.643   7.428  0.3433 -0.2503  0.2947
 5370SOL    HW123350   5.920   8.634   7.355  0.6834 -3.1261  0.2317
 5370SOL    HW223351   5.940   8.705   7.487 -1.2419  0.0784 -1.0810
 5371SOL     OW23352   4.717   2.073   6.565  0.2009 -0.0480  0.3054
 5371SOL    HW123353   4.762   2.156   6.577  0.7315 -0.4078  0.8967
 5371SOL    HW223354   4.624   2.094   6.573  0.3816  0.2678  1.9114
 5372SOL     OW23355   2.344   7.780   1.342  0.3562  0.1563 -0.2370
 5372SOL    HW123356   2.289   7.701   1.339 -0.2182  0.5090  0.6458
 5372SOL    HW223357   2.426   7.753   1.301  0.7536 -1.3891  1.4378
 5373SOL     OW23358   1.811   8.168   3.625 -0.0604 -0.7762  0.0580
 5373SOL    HW123359   1.805   8.129   3.712 -0.1317 -1.2103 -0.1388
 5373SOL    HW223360   1.831   8.260   3.641 -2.5225 -0.2862  0.6138
 5374SOL     OW23361   0.389   7.223   4.262  0.1970 -0.6209 -0.3324
 5374SOL    HW123362   0.329   7.244   4.190  0.8792 -0.9588 -1.0133
 5374SOL    HW223363   0.401   7.307   4.307  0.9852 -0.0444 -1.5666
 5375SOL     OW23364  12.114  12.661   7.634 -0.3821  0.7010 -0.3644
 5375SOL    HW123365  12.078  12.600   7.570 -0.5985 -1.0177  1.2905
 5375SOL    HW223366  12.197  12.621   7.661 -1.0563  0.4814  1.5572
 5376SOL     OW23367   2.000   3.964   7.696  0.2039 -0.0905 -0.2437
 5376SOL    HW123368   2.009   4.056   7.672  0.3806 -0.2090 -0.6412
 5376SOL    HW223369   2.012   3.916   7.614 -1.8617 -0.3798 -0.4382
 5377SOL     OW23370   4.952  12.366   1.025  0.3642 -0.0068  0.2538
 5377SOL    HW123371   4.865  12.405   1.033 -0.2844 -0.9658 -1.6082
 5377SOL    HW223372   4.954  12.297   1.092  0.0226  0.5569  0.8539
 5378SOL     OW23373   7.367  11.337   8.711 -0.3187 -0.3233  0.4928
 5378SOL    HW123374   7.292  11.286   8.741  0.9729 -2.4614  0.2939
 5378SOL    HW223375   7.428  11.334   8.785 -0.1876  0.9557  0.4612
 5379SOL     OW23376   5.360   9.733   4.658  1.0441 -0.1720  0.3001
 5379SOL    HW123377   5.452   9.742   4.684  0.7890  1.7206  0.7314
 5379SOL    HW223378   5.327   9.663   4.714  1.6481  0.7748  1.9233
 5380SOL     OW23379   0.403   7.672  11.818  0.2379 -0.2112  0.2265
 5380SOL    HW123380   0.465   7.620  11.869  2.2053  0.6986 -1.1156
 5380SOL    HW223381   0.394   7.625  11.735  0.8341  0.7303 -0.3985
 5381SOL     OW23382  10.813   2.736   8.564  0.2260 -0.3216  0.4148
 5381SOL    HW123383  10.750   2.686   8.512 -1.5151  0.3136  1.8237
 5381SOL    HW223384  10.814   2.823   8.524 -1.2584  0.2243  1.4876
 5382SOL     OW23385   7.008  12.262   7.674  0.2039 -0.4801  0.7137
 5382SOL    HW123386   7.095  12.302   7.667 -0.2680  0.8057  1.8313
 5382SOL    HW223387   6.973  12.265   7.585  0.4576  1.0385  0.6288
 5383SOL     OW23388   7.947   2.704   6.712  0.2238 -0.3906  0.2494
 5383SOL    HW123389   8.002   2.655   6.651 -0.1686  0.5245 -0.8766
 5383SOL    HW223390   7.977   2.677   6.798  2.1240 -0.2825 -0.3330
 5384SOL     OW23391  11.676  12.465   5.343 -0.1091  0.3061 -0.4260
 5384SOL    HW123392  11.678  12.502   5.255  1.3153 -0.9573 -0.9604
 5384SOL    HW223393  11.673  12.370   5.329  3.3600 -0.1208  0.7688
 5385SOL     OW23394   6.033   5.787   2.892  0.2222 -0.1956  0.3647
 5385SOL    HW123395   6.029   5.722   2.822  1.3104 -0.4116  0.4870
 5385SOL    HW223396   5.943   5.817   2.901 -0.3076 -1.6665  0.2919
 5386SOL     OW23397   0.765   6.039   5.617  0.3900 -0.1529 -0.3321
 5386SOL    HW123398   0.740   6.060   5.707  0.9889 -1.2893  0.1199
 5386SOL    HW223399   0.728   5.952   5.601  1.5786 -0.6290 -0.6287
 5387SOL     OW23400   9.437   2.747   5.947 -0.0579  0.2888  0.6349
 5387SOL    HW123401   9.481   2.707   5.872 -1.5586  0.6728 -0.4819
 5387SOL    HW223402   9.509   2.779   6.002  1.0986  1.1204 -1.2429
 5388SOL     OW23403  10.386   7.670   3.755  0.2777 -0.0717 -0.1112
 5388SOL    HW123404  10.457   7.715   3.709  0.0274 -0.5882 -1.0202
 5388SOL    HW223405  10.429   7.619   3.823  0.6560  0.7047  0.2414
 5389SOL     OW23406   7.767  10.882   9.338 -0.4276 -0.4212  0.2551
 5389SOL    HW123407   7.821  10.949   9.380  0.8816 -1.0760 -0.3136
 5389SOL    HW223408   7.785  10.803   9.387 -1.7639 -0.4199  0.7566
 5390SOL     OW23409   1.621   1.637   1.064  0.1828 -0.2640  0.4683
 5390SOL    HW123410   1.627   1.579   0.988 -0.0517  0.1775  0.1062
 5390SOL    HW223411   1.665   1.590   1.134 -0.3255 -1.0391  0.2793
 5391SOL     OW23412  10.274   6.322  11.786 -0.3490 -0.5510  0.0082
 5391SOL    HW123413  10.185   6.316  11.751 -0.0776  0.8256 -0.9511
 5391SOL    HW223414  10.284   6.413  11.813  1.2629 -0.2880 -1.2991
 5392SOL     OW23415   0.160   1.565   2.379 -0.0782  0.4460 -0.2952
 5392SOL    HW123416   0.246   1.559   2.420  0.4771  0.2803 -1.4435
 5392SOL    HW223417   0.115   1.635   2.427  0.4098  0.0470  0.7868
 5393SOL     OW23418   2.857   2.303   3.151  0.1440 -0.0089 -0.1176
 5393SOL    HW123419   2.831   2.355   3.075  1.8200  0.6456 -0.2903
 5393SOL    HW223420   2.862   2.367   3.223 -1.2514 -0.5880  0.5222
 5394SOL     OW23421   8.167   8.134  12.449 -0.0100  0.0543  0.1416
 5394SOL    HW123422   8.101   8.127  12.380 -1.8515 -0.9078  1.9018
 5394SOL    HW223423   8.248   8.103  12.407 -1.4278 -2.2471 -1.1365
 5395SOL     OW23424   0.738   1.210   0.178  0.3963  0.0872 -0.5035
 5395SOL    HW123425   0.650   1.231   0.147  0.4626 -1.2271 -1.6893
 5395SOL    HW223426   0.768   1.290   0.221 -1.4926  0.4685  0.2172
 5396SOL     OW23427   7.131   3.233   8.117  0.3858  0.6208  0.1434
 5396SOL    HW123428   7.203   3.292   8.141  0.2512  0.5610  0.7074
 5396SOL    HW223429   7.172   3.147   8.112  0.4358  0.6496  0.0600
 5397SOL     OW23430   2.616   0.772   5.302 -0.2597  0.4314  0.3239
 5397SOL    HW123431   2.567   0.756   5.222 -1.3774  1.9158  0.6756
 5397SOL    HW223432   2.681   0.839   5.278 -0.8655  1.1808  0.7328
 5398SOL     OW23433   9.585   3.038  10.323 -0.1340 -0.5760 -0.8574
 5398SOL    HW123434   9.591   2.964  10.384  1.3373  0.3350  0.1525
 5398SOL    HW223435   9.569   3.114  10.379 -0.8771  0.0062 -1.8273
 5399SOL     OW23436   7.349   2.453   3.361 -0.1394  0.0665 -0.0158
 5399SOL    HW123437   7.419   2.452   3.296 -0.6178 -0.7684 -0.5304
 5399SOL    HW223438   7.299   2.374   3.343  0.4788 -0.8948  2.2199
 5400SOL     OW23439   6.713  10.520  11.259  0.0519 -0.2313 -0.0849
 5400SOL    HW123440   6.691  10.543  11.349  1.5920  2.6675 -0.3430
 5400SOL    HW223441   6.639  10.466  11.230 -1.3638  0.2517  2.3058
 5401SOL     OW23442   2.277   8.799   4.165  0.3946  0.4241  0.5121
 5401SOL    HW123443   2.184   8.798   4.189  0.3845  1.2678  0.5423
 5401SOL    HW223444   2.324   8.798   4.248  0.3732  2.2635  0.5700
 5402SOL     OW23445   7.846   2.285   3.321 -0.0134  0.2778  0.0700
 5402SOL    HW123446   7.847   2.379   3.337  0.6743  0.2371  0.3124
 5402SOL    HW223447   7.922   2.252   3.368 -0.3706 -0.4331  0.1629
 5403SOL     OW23448  11.400   3.309  11.970  0.5228 -0.0001 -0.2043
 5403SOL    HW123449  11.338   3.238  11.986  0.8983 -0.2642  0.0901
 5403SOL    HW223450  11.367   3.382  12.023 -0.0640  0.1673 -0.7870
 5404SOL     OW23451   4.001   3.965   3.837  0.1222  0.2073 -0.4976
 5404SOL    HW123452   4.021   3.983   3.929 -0.4485  1.4443 -0.5964
 5404SOL    HW223453   3.981   4.051   3.799  1.5355 -0.0935 -2.0913
 5405SOL     OW23454   8.218   6.001   8.913 -0.4138 -0.2989  0.0521
 5405SOL    HW123455   8.259   6.079   8.950  0.0146 -0.4586 -0.0821
 5405SOL    HW223456   8.284   5.932   8.923 -1.0559 -0.8201  0.8259
 5406SOL     OW23457   8.603   8.670   2.670  0.3746 -0.1069  0.1143
 5406SOL    HW123458   8.631   8.613   2.742  0.3066 -1.6446 -1.0256
 5406SOL    HW223459   8.507   8.667   2.674  0.3528 -0.9908 -0.5939
 5407SOL     OW23460   7.778   9.190  10.790 -0.0513  0.0722 -0.3261
 5407SOL    HW123461   7.724   9.177  10.712  0.7991 -0.4439 -0.8428
 5407SOL    HW223462   7.727   9.152  10.861  0.2636 -1.7899 -1.0448
 5408SOL     OW23463   9.243   5.414   6.967  0.5610  0.0137  0.1744
 5408SOL    HW123464   9.286   5.476   7.025  1.0263 -0.5511  0.4425
 5408SOL    HW223465   9.203   5.468   6.899  0.5472  0.6343  0.6725
 5409SOL     OW23466   0.441   0.569   8.710  0.2738  0.0296  0.9178
 5409SOL    HW123467   0.504   0.514   8.663 -0.1458 -0.0399  0.4303
 5409SOL    HW223468   0.481   0.656   8.710 -0.1515  0.2414 -0.4104
 5410SOL     OW23469   7.321   7.518   4.037 -0.3093  0.5053 -0.4984
 5410SOL    HW123470   7.392   7.537   3.975 -0.1704  0.8617 -0.2332
 5410SOL    HW223471   7.347   7.563   4.117  0.8467 -2.0559  0.6954
 5411SOL     OW23472   2.856  10.048  12.623  0.4310 -0.1650 -0.5701
 5411SOL    HW123473   2.928  10.109  12.640  0.1085  0.2563 -0.6983
 5411SOL    HW223474   2.891   9.985  12.560  0.5676  0.2631 -0.9234
 5412SOL     OW23475   0.013   6.405   3.873 -0.7533  0.2837  0.1188
 5412SOL    HW123476  -0.027   6.379   3.791  0.4830  0.3491 -0.5245
 5412SOL    HW223477   0.064   6.484   3.851  1.3246 -0.8973  0.4332
 5413SOL     OW23478   1.212   1.542   1.409  0.5212  0.0266 -0.0787
 5413SOL    HW123479   1.271   1.482   1.454  0.9401  0.5531  0.0742
 5413SOL    HW223480   1.181   1.601   1.478 -0.2313 -0.2801 -0.1453
 5414SOL     OW23481   9.052   3.253  10.807  0.3557  0.5849 -0.2283
 5414SOL    HW123482   8.993   3.328  10.822  0.8178  1.1076 -0.9252
 5414SOL    HW223483   9.016   3.183  10.861 -0.6931  1.0047 -0.3442
 5415SOL     OW23484   3.250   6.439   3.020 -0.3529  0.3375  0.0240
 5415SOL    HW123485   3.309   6.480   3.083  0.0237  1.4540 -1.0135
 5415SOL    HW223486   3.301   6.366   2.984  0.1149  0.7980 -0.2743
 5416SOL     OW23487   1.351   9.516  11.421  0.4146 -0.5895  0.2761
 5416SOL    HW123488   1.345   9.491  11.514  0.7888  0.1843  0.5185
 5416SOL    HW223489   1.437   9.557  11.413  0.8540 -1.6603 -0.6754
 5417SOL     OW23490  10.434   0.424   2.301 -0.0831  0.0996 -0.4843
 5417SOL    HW123491  10.417   0.501   2.354  1.2177  1.9977 -2.6493
 5417SOL    HW223492  10.527   0.429   2.279 -0.0374 -1.9159 -0.9722
 5418SOL     OW23493   9.399  10.766   9.829 -0.5490 -0.1808  0.4869
 5418SOL    HW123494   9.333  10.749   9.762  0.1901 -4.2450  0.5244
 5418SOL    HW223495   9.474  10.800   9.780 -1.7492  2.2212  0.1469
 5419SOL     OW23496   8.815   0.367  11.101  0.3820  0.4225  0.2375
 5419SOL    HW123497   8.907   0.361  11.076  0.4480 -0.3346  0.6140
 5419SOL    HW223498   8.767   0.327  11.028  0.3215  1.1647 -0.1301
 5420SOL     OW23499  10.405   3.340   6.275  0.3870 -0.1632  0.2399
 5420SOL    HW123500  10.444   3.257   6.248  1.0234  0.1258  0.2557
 5420SOL    HW223501  10.325   3.347   6.223  0.8202 -0.3343 -0.4639
 5421SOL     OW23502   2.686   6.663   3.572 -0.3173  0.3628  0.2172
 5421SOL    HW123503   2.780   6.666   3.554 -0.0048 -0.8682  1.5262
 5421SOL    HW223504   2.652   6.742   3.529  1.0474  0.0254 -1.6375
 5422SOL     OW23505  12.502   3.200   1.084 -0.2598 -0.4248 -0.0957
 5422SOL    HW123506  12.567   3.228   1.020  0.0418 -0.1391  0.3300
 5422SOL    HW223507  12.464   3.282   1.117  0.5006 -0.5079  1.0340
 5423SOL     OW23508   4.573   8.298   9.855  0.2013 -0.5531 -0.0169
 5423SOL    HW123509   4.656   8.321   9.897 -0.0601  0.5635 -0.0854
 5423SOL    HW223510   4.532   8.236   9.915  0.2975  0.2362  0.8840
 5424SOL     OW23511  11.501   2.149   6.291  0.2595  0.0233  0.0792
 5424SOL    HW123512  11.508   2.242   6.314 -1.3461 -0.0933  1.1272
 5424SOL    HW223513  11.568   2.137   6.223 -0.2368  2.1952 -0.8753
 5425SOL     OW23514   4.678   2.235   1.068  0.0580  0.6459  0.2512
 5425SOL    HW123515   4.760   2.283   1.082  0.4022 -0.2034  1.2808
 5425SOL    HW223516   4.649   2.209   1.156  0.1392 -1.3955 -0.2626
 5426SOL     OW23517   9.754   4.731   0.160 -0.0974 -0.5783  0.0308
 5426SOL    HW123518   9.799   4.667   0.105 -0.7965  0.1989 -1.5303
 5426SOL    HW223519   9.729   4.682   0.239  0.8307 -1.7689 -0.3792
 5427SOL     OW23520   3.656   4.625   4.011  0.0014  0.4108 -0.4240
 5427SOL    HW123521   3.741   4.615   3.968  0.4355 -2.5855  0.8976
 5427SOL    HW223522   3.633   4.537   4.040 -2.7732  1.4209  0.7859
 5428SOL     OW23523   2.261  12.196   5.304 -0.1769  0.1496 -0.6815
 5428SOL    HW123524   2.242  12.222   5.394  1.9681  0.8369 -0.3683
 5428SOL    HW223525   2.203  12.250   5.251  0.2269  1.4997  0.2044
 5429SOL     OW23526   7.788   6.319   3.869 -0.0440  0.0097  0.1818
 5429SOL    HW123527   7.761   6.351   3.783  0.1622  0.0845  0.1451
 5429SOL    HW223528   7.752   6.383   3.931 -1.3009 -0.7211  0.2511
 5430SOL     OW23529  10.350   5.754   5.504 -0.3699 -0.0200 -0.7106
 5430SOL    HW123530  10.338   5.849   5.509  2.1539  0.3342 -0.0665
 5430SOL    HW223531  10.413   5.741   5.433 -0.8813 -1.2630 -0.9713
 5431SOL     OW23532   7.554   4.734   3.880 -0.1389 -0.3081  0.5252
 5431SOL    HW123533   7.511   4.653   3.854 -1.9773  1.2078 -1.6669
 5431SOL    HW223534   7.637   4.734   3.834  0.2841 -1.3065  1.2590
 5432SOL     OW23535   3.404  11.991  11.980 -0.3791  0.4996  0.3874
 5432SOL    HW123536   3.383  11.911  12.028 -1.2267  1.4778  1.7178
 5432SOL    HW223537   3.480  12.027  12.026  0.2336  0.2864 -0.4339
 5433SOL     OW23538   3.973  11.772  11.120 -0.0481  0.0248  0.1094
 5433SOL    HW123539   3.982  11.864  11.147  1.0504  0.2550 -0.9436
 5433SOL    HW223540   3.884  11.748  11.146 -0.6392  1.6393 -0.3069
 5434SOL     OW23541   9.528   0.055   6.056  0.3833  0.0574 -0.7415
 5434SOL    HW123542   9.559   0.084   5.970 -0.3068 -0.6286 -1.2341
 5434SOL    HW223543   9.565   0.118   6.117  1.5199  0.1082 -1.4618
 5435SOL     OW23544   4.307   8.062  11.102 -0.3085 -0.6807 -0.4300
 5435SOL    HW123545   4.233   8.120  11.120 -0.4777 -1.0198 -0.0151
 5435SOL    HW223546   4.335   8.085  11.013 -0.2272  0.1899 -0.1846
 5436SOL     OW23547   0.642   9.642   1.123  0.2025  0.1661  0.4421
 5436SOL    HW123548   0.568   9.588   1.151  0.4097 -0.9813 -1.1222
 5436SOL    HW223549   0.602   9.723   1.092 -0.5887 -0.9905 -1.7548
 5437SOL     OW23550   0.459   4.151   8.433  0.4341  0.6491  0.3380
 5437SOL    HW123551   0.397   4.204   8.382  0.0900  0.0273  0.0942
 5437SOL    HW223552   0.465   4.069   8.384  2.2437  1.0571 -0.1911
 5438SOL     OW23553  10.027   3.360  10.396 -0.4852 -0.2597  0.1568
 5438SOL    HW123554   9.985   3.303  10.460 -1.5537 -0.3469 -0.6037
 5438SOL    HW223555  10.024   3.447  10.435 -0.9888 -0.3386  0.2930
 5439SOL     OW23556   4.317   3.931  11.445  0.2341 -0.0717 -0.1324
 5439SOL    HW123557   4.332   3.969  11.358  2.6396 -0.8508 -0.1289
 5439SOL    HW223558   4.346   3.840  11.437 -3.1026 -1.3315  0.5329
 5440SOL     OW23559   8.722   4.330  12.131 -0.6531 -0.3749 -0.1334
 5440SOL    HW123560   8.720   4.244  12.090 -0.3609  0.2225 -1.4621
 5440SOL    HW223561   8.639   4.337  12.178 -0.8973 -1.1770 -0.4393
 5441SOL     OW23562   4.558   9.526   1.774 -0.6484  0.3689  0.1432
 5441SOL    HW123563   4.554   9.463   1.846 -0.4430  0.6043  0.3647
 5441SOL    HW223564   4.651   9.545   1.763 -0.7312  0.9564  0.3710
 5442SOL     OW23565  12.544   3.272  10.488  0.0151  0.1907  0.0008
 5442SOL    HW123566  12.509   3.341  10.544 -0.7397 -0.4755  0.3651
 5442SOL    HW223567  12.539   3.307  10.399 -0.1257  0.6970  0.2088
 5443SOL     OW23568   0.106  11.873   2.664  0.0678  0.3915 -0.1601
 5443SOL    HW123569   0.156  11.801   2.701  1.2795  0.8131 -0.9216
 5443SOL    HW223570   0.019  11.863   2.702  0.4929 -0.8420  0.5660
 5444SOL     OW23571   4.867  11.583   6.404  0.1467  0.5114 -0.0032
 5444SOL    HW123572   4.914  11.623   6.477  0.0798  0.7945 -0.1149
 5444SOL    HW223573   4.823  11.507   6.442 -0.2351  0.9027  0.3391
 5445SOL     OW23574   0.216   4.524  10.916 -0.1814 -0.0039 -0.1007
 5445SOL    HW123575   0.254   4.492  10.835 -1.0301  0.9396 -0.9116
 5445SOL    HW223576   0.204   4.618  10.901 -0.5631  0.1443  1.0270
 5446SOL     OW23577   4.845   9.139   8.585  0.5856  0.1391  0.0677
 5446SOL    HW123578   4.776   9.202   8.567  1.1476  0.4624 -1.0150
 5446SOL    HW223579   4.907   9.186   8.641  0.2641  0.0590  0.4958
 5447SOL     OW23580   2.710   1.201   8.376  0.0567  0.4692  0.0976
 5447SOL    HW123581   2.736   1.109   8.387 -1.3620  0.2030  1.6017
 5447SOL    HW223582   2.786   1.252   8.402  0.5570 -0.2696  0.1008
 5448SOL     OW23583   2.886   1.403  12.005 -0.3072  0.1027  0.1202
 5448SOL    HW123584   2.929   1.425  11.923 -2.1655 -0.4728 -1.0744
 5448SOL    HW223585   2.797   1.377  11.980 -0.5371 -1.3906  2.1704
 5449SOL     OW23586  12.037   1.446   6.827  0.1783  0.0721 -0.4104
 5449SOL    HW123587  12.097   1.393   6.880  1.4761  1.8897  0.0043
 5449SOL    HW223588  11.988   1.498   6.891  0.3250  0.8131 -0.8848
 5450SOL     OW23589   1.684   2.003   9.890  0.3204  0.4561 -0.1397
 5450SOL    HW123590   1.605   1.954   9.912  0.1350  0.1854 -1.3285
 5450SOL    HW223591   1.722   1.955   9.816  1.0172  1.1837 -0.2684
 5451SOL     OW23592   3.844   3.974   9.854 -0.4048  0.0267 -0.4124
 5451SOL    HW123593   3.883   4.060   9.839 -2.6635  1.7585  2.6074
 5451SOL    HW223594   3.765   3.974   9.799 -0.8351  0.2230  0.2043
 5452SOL     OW23595   7.457   9.963   7.676  0.0200  0.5625 -0.5229
 5452SOL    HW123596   7.501   9.880   7.658 -2.3945 -0.4961 -2.0193
 5452SOL    HW223597   7.524  10.016   7.720  2.4190 -1.2400 -1.7322
 5453SOL     OW23598   8.377  10.038   8.760  0.1115  0.1413  0.0159
 5453SOL    HW123599   8.326  10.105   8.716 -0.6686  0.3054  1.1175
 5453SOL    HW223600   8.426  10.085   8.828 -0.0392 -0.3325  0.4560
 5454SOL     OW23601   3.345  12.071  10.978 -0.3766  0.1484 -0.1961
 5454SOL    HW123602   3.294  12.048  10.901 -1.2664  0.1366  0.3783
 5454SOL    HW223603   3.296  12.142  11.019 -1.0461 -1.2146  1.4745
 5455SOL     OW23604   2.129   7.998  11.383 -0.0776  0.8256 -0.1536
 5455SOL    HW123605   2.081   8.075  11.352 -0.9380  0.3156 -0.0890
 5455SOL    HW223606   2.062   7.937  11.411  0.6071  0.0726 -0.1227
 5456SOL     OW23607  10.736   6.606  11.112  0.4999 -0.1003  0.0384
 5456SOL    HW123608  10.762   6.587  11.022 -0.7901 -1.8654 -0.0306
 5456SOL    HW223609  10.815   6.640  11.154  2.0225 -2.1901 -0.9584
 5457SOL     OW23610   0.999  11.397  11.369 -0.3854 -0.2687  0.3561
 5457SOL    HW123611   1.008  11.449  11.449 -2.3787  0.9954 -0.1814
 5457SOL    HW223612   1.048  11.317  11.387  1.9749  1.3303  1.5933
 5458SOL     OW23613   4.926   8.459   5.163  0.1018  0.1927  0.3235
 5458SOL    HW123614   4.842   8.504   5.162  0.2969  0.5844  0.9484
 5458SOL    HW223615   4.917   8.390   5.098 -1.3754 -0.9749  1.6685
 5459SOL     OW23616   2.120   9.588   7.451  0.5714 -0.1134  0.2513
 5459SOL    HW123617   2.130   9.535   7.529  1.7935 -0.1255  0.0936
 5459SOL    HW223618   2.129   9.678   7.482  0.5062 -0.0896  0.2027
 5460SOL     OW23619   6.799   2.828   1.472  0.3017 -0.2716  0.0081
 5460SOL    HW123620   6.748   2.895   1.426 -0.3783 -0.0715  1.0099
 5460SOL    HW223621   6.734   2.778   1.521  1.1359  0.6998  2.2189
 5461SOL     OW23622  11.485   0.072   4.472  0.0918 -0.1396 -0.3033
 5461SOL    HW123623  11.402   0.028   4.454  0.4194 -2.0382  2.3329
 5461SOL    HW223624  11.465   0.132   4.544  1.0698 -0.9263  0.6428
 5462SOL     OW23625   9.114   9.712   1.466 -0.7406  0.5203 -0.1379
 5462SOL    HW123626   9.200   9.675   1.444 -0.3980  1.2346 -0.0159
 5462SOL    HW223627   9.123   9.741   1.556 -1.0323  0.8418 -0.2119
 5463SOL     OW23628   6.165   3.601  10.967 -0.4536 -0.2717  0.1709
 5463SOL    HW123629   6.121   3.645  10.894  0.3405  1.0806  0.4839
 5463SOL    HW223630   6.216   3.670  11.009 -1.2889 -0.8906  2.3208
 5464SOL     OW23631  11.352  11.326   4.168  0.3091  0.0840 -0.4628
 5464SOL    HW123632  11.287  11.266   4.132 -0.9867  1.4427 -0.4569
 5464SOL    HW223633  11.413  11.342   4.096  2.4893 -3.4787  0.3162
 5465SOL     OW23634  11.984   3.570   8.357  0.3938  0.2139  0.1087
 5465SOL    HW123635  11.996   3.643   8.295  0.7593 -0.5117 -0.6964
 5465SOL    HW223636  11.889   3.557   8.361  0.3186  0.7965  0.3414
 5466SOL     OW23637  11.285  10.714   9.907  0.6966 -0.3307 -0.7132
 5466SOL    HW123638  11.333  10.633   9.888  0.1955 -0.2619 -2.4512
 5466SOL    HW223639  11.222  10.721   9.836 -0.9605  0.3196  0.7631
 5467SOL     OW23640   3.313   4.657   4.606  0.3795 -0.1909 -0.2171
 5467SOL    HW123641   3.385   4.720   4.596  0.5836 -0.1576  1.2046
 5467SOL    HW223642   3.255   4.697   4.670 -0.7685 -0.3645 -1.1288
 5468SOL     OW23643   1.390   4.917   9.762  0.1965  0.3788 -0.5015
 5468SOL    HW123644   1.477   4.879   9.745  0.1942  0.6814 -1.2264
 5468SOL    HW223645   1.407   4.988   9.824  0.2529 -0.5436  0.5614
 5469SOL     OW23646   0.269   0.828   2.899 -0.7937 -0.0544 -0.2448
 5469SOL    HW123647   0.177   0.847   2.881 -0.7782 -0.2324 -0.5164
 5469SOL    HW223648   0.294   0.890   2.968 -0.7961  0.7856 -0.9755
 5470SOL     OW23649   1.312  12.644   0.355 -0.3237  0.7466  0.4996
 5470SOL    HW123650   1.356  12.645   0.270 -1.7872 -1.2199 -0.3484
 5470SOL    HW223651   1.312  12.552   0.381 -2.1554  0.9628  1.4095
 5471SOL     OW23652   9.067   9.384   3.278 -0.0223 -0.4640  0.0991
 5471SOL    HW123653   9.046   9.459   3.334  1.0185  0.8034 -1.1089
 5471SOL    HW223654   9.133   9.418   3.217  0.7174 -2.4686 -0.2987
 5472SOL     OW23655   3.511  10.169   1.817  0.1304  0.1659  0.1659
 5472SOL    HW123656   3.439  10.192   1.876 -1.1049  2.4262 -2.0409
 5472SOL    HW223657   3.471  10.112   1.751  1.2519 -1.4760  0.8319
 5473SOL     OW23658   1.853  10.157   8.884 -0.5470  0.7131  0.2094
 5473SOL    HW123659   1.915  10.226   8.908  1.8092 -0.7913 -1.2041
 5473SOL    HW223660   1.799  10.196   8.816  0.4757  1.3162 -0.2758
 5474SOL     OW23661   7.485   6.085   6.149  0.5543 -0.0116  0.9471
 5474SOL    HW123662   7.538   6.154   6.109  0.3664 -1.0812 -1.3042
 5474SOL    HW223663   7.506   6.007   6.098 -1.8651 -0.8396  1.1106
 5475SOL     OW23664  11.870   9.904   8.816 -0.8886 -0.6016 -0.3691
 5475SOL    HW123665  11.957   9.871   8.839 -0.8567  0.5230  1.2712
 5475SOL    HW223666  11.873   9.997   8.838 -2.9158 -0.8202  1.0555
 5476SOL     OW23667   0.779  12.390   2.500  0.1436 -0.2152 -0.3518
 5476SOL    HW123668   0.706  12.330   2.517 -1.5161  1.9519  0.6219
 5476SOL    HW223669   0.817  12.406   2.587  1.2803 -0.6541 -0.7462
 5477SOL     OW23670  10.061  10.833   0.534  0.5364 -0.0133 -0.9603
 5477SOL    HW123671  10.051  10.806   0.625 -1.2171 -1.0146 -1.4144
 5477SOL    HW223672  10.130  10.776   0.500  2.5922  1.6377  0.1700
 5478SOL     OW23673   2.150   5.670   7.527  0.1215  0.0472  0.0435
 5478SOL    HW123674   2.122   5.578   7.522 -1.3660  0.5125 -1.0419
 5478SOL    HW223675   2.170   5.693   7.436  2.4741  0.2516  0.5742
 5479SOL     OW23676  12.403   0.599   9.807 -0.2023 -0.3526  0.3164
 5479SOL    HW123677  12.462   0.540   9.760  0.1432  1.1387 -1.1869
 5479SOL    HW223678  12.325   0.546   9.824  0.2912 -1.3920 -0.5302
 5480SOL     OW23679   3.216   6.278   7.282 -0.0137  0.0393 -0.0738
 5480SOL    HW123680   3.222   6.368   7.249 -0.2368  0.8038  1.8411
 5480SOL    HW223681   3.197   6.226   7.204  1.1696  1.4870 -1.4062
 5481SOL     OW23682   0.666   8.884   0.242  0.0250  0.3833  0.2539
 5481SOL    HW123683   0.599   8.942   0.279  1.0947  0.5366  2.0629
 5481SOL    HW223684   0.664   8.903   0.148 -1.4791  1.4092  0.4556
 5482SOL     OW23685  12.346   8.449   2.206 -0.3745 -0.5153  0.4578
 5482SOL    HW123686  12.298   8.372   2.176  0.3129 -0.6850 -0.2510
 5482SOL    HW223687  12.312   8.467   2.294 -0.5010 -1.6550  0.6484
 5483SOL     OW23688   0.573   9.470   1.511  0.5001 -0.8575  0.8651
 5483SOL    HW123689   0.662   9.505   1.514  0.3196  0.1321 -1.9995
 5483SOL    HW223690   0.584   9.380   1.480  0.5970 -1.4928  2.6579
 5484SOL     OW23691  10.928   9.784  11.785  1.1399  0.2510 -0.4870
 5484SOL    HW123692  10.918   9.705  11.732  1.2588  0.4777 -0.8477
 5484SOL    HW223693  10.935   9.752  11.875 -0.4604 -0.0720 -0.4404
 5485SOL     OW23694   4.304   5.810   9.674  0.2154  0.1168 -0.4196
 5485SOL    HW123695   4.252   5.729   9.675 -1.1519  0.9540  0.9286
 5485SOL    HW223696   4.388   5.784   9.638 -0.9354 -1.4368 -2.2044
 5486SOL     OW23697  11.999   6.524   4.497  0.2099 -0.2017  0.0117
 5486SOL    HW123698  12.047   6.551   4.419 -1.6434  0.0500 -1.0940
 5486SOL    HW223699  12.061   6.536   4.569  1.8633 -0.1698 -1.3759
 5487SOL     OW23700   5.563   4.186   7.774 -0.4657 -0.4596 -0.3100
 5487SOL    HW123701   5.651   4.148   7.767  0.2238  1.1072 -0.4102
 5487SOL    HW223702   5.547   4.226   7.688 -1.2106 -0.5586 -0.2278
 5488SOL     OW23703   3.124   7.782  10.563 -0.4563  0.0397  0.3097
 5488SOL    HW123704   3.047   7.733  10.537 -0.6339  1.1774 -1.5220
 5488SOL    HW223705   3.197   7.738  10.518 -0.4755  0.7552 -0.4540
 5489SOL     OW23706   4.649   6.889   8.870 -0.5765  0.1603  0.4519
 5489SOL    HW123707   4.562   6.852   8.854  0.1087 -1.3238 -0.0106
 5489SOL    HW223708   4.680   6.916   8.784 -0.2034 -0.1711  0.4824
 5490SOL     OW23709  11.534  11.272   3.315  0.3278 -0.1110 -0.2094
 5490SOL    HW123710  11.463  11.325   3.351  0.6344  0.7999 -0.9250
 5490SOL    HW223711  11.494  11.186   3.299 -0.2735  0.0138  0.5808
 5491SOL     OW23712   1.011   5.000  11.216  0.3336 -0.4532  0.4048
 5491SOL    HW123713   1.059   4.943  11.156 -0.6840 -1.0384  0.1269
 5491SOL    HW223714   0.929   4.953  11.234  0.5214 -0.1972  2.0987
 5492SOL     OW23715   4.162   9.681  10.449  0.3116  0.6319 -0.4509
 5492SOL    HW123716   4.082   9.649  10.491 -0.2176 -0.0333 -1.8682
 5492SOL    HW223717   4.233   9.645  10.501 -0.3037 -1.0725 -0.6996
 5493SOL     OW23718  10.217   4.794  10.319 -0.1020 -0.7770 -0.4083
 5493SOL    HW123719  10.241   4.750  10.400 -1.6896  0.0534  0.5702
 5493SOL    HW223720  10.130   4.830  10.336  0.2842  1.0128 -1.8434
 5494SOL     OW23721   2.191   4.193   8.067  0.2527  0.4994  0.2961
 5494SOL    HW123722   2.116   4.146   8.031 -0.0781  1.6004 -0.5381
 5494SOL    HW223723   2.218   4.142   8.143 -0.5346 -0.6116 -0.1493
 5495SOL     OW23724   5.481   4.402   0.572  0.0727  0.2809  0.8529
 5495SOL    HW123725   5.523   4.488   0.575  0.4541  0.0852  1.1619
 5495SOL    HW223726   5.536   4.351   0.513 -0.1330  0.2335  0.7005
 5496SOL     OW23727   5.995   5.948   6.350  0.3216 -0.3191 -0.1381
 5496SOL    HW123728   5.968   5.886   6.417 -0.4783 -0.7216 -0.8126
 5496SOL    HW223729   6.065   5.903   6.302 -0.5859 -0.9298 -0.9354
 5497SOL     OW23730   8.250  11.678  10.864 -0.1071  0.2904  0.0413
 5497SOL    HW123731   8.220  11.587  10.860  0.2168  0.2038 -2.2545
 5497SOL    HW223732   8.311  11.681  10.937  1.0965 -1.7782 -0.7759
 5498SOL     OW23733   2.228   2.144   9.434 -0.5989  0.5400  0.7029
 5498SOL    HW123734   2.234   2.087   9.357 -0.6223  1.2778  0.1293
 5498SOL    HW223735   2.143   2.126   9.472 -0.9905  0.8273 -0.0054
 5499SOL     OW23736  11.300  10.917  10.953 -0.0435 -0.2348 -0.0780
 5499SOL    HW123737  11.301  10.855  10.881  1.3940 -0.3264 -0.0042
 5499SOL    HW223738  11.298  10.863  11.032  3.4976 -0.3617  0.0645
 5500SOL     OW23739  12.550   0.097   9.303 -0.1816  0.2217  0.1588
 5500SOL    HW123740  12.574   0.006   9.289 -1.0462  0.1918 -1.4452
 5500SOL    HW223741  12.610   0.128   9.370  0.5416 -1.3476  0.2842
 5501SOL     OW23742  10.870  10.641   9.098 -0.4917 -0.2807 -0.1969
 5501SOL    HW123743  10.885  10.705   9.168  0.7629  0.3254 -0.9739
 5501SOL    HW223744  10.835  10.564   9.143 -0.8740  0.5243  0.9236
 5502SOL     OW23745   8.039  11.997   1.837  0.3410  0.2515  0.0109
 5502SOL    HW123746   8.087  11.979   1.917 -0.1188 -0.6151  0.1076
 5502SOL    HW223747   8.044  11.916   1.787 -1.0504  0.0957  0.0615
 5503SOL     OW23748   9.918  11.748   8.859 -0.3841 -0.0770 -0.0909
 5503SOL    HW123749   9.987  11.778   8.801 -0.6113 -0.0084 -0.3290
 5503SOL    HW223750   9.890  11.664   8.821 -1.1913  0.4244 -0.6421
 5504SOL     OW23751   3.540   5.140   4.596 -0.7125 -0.3622  0.1985
 5504SOL    HW123752   3.503   5.148   4.684  1.3617  1.0273  1.0160
 5504SOL    HW223753   3.508   5.217   4.550  2.1964  1.7062  1.3918
 5505SOL     OW23754   7.107  12.080  10.197 -0.3052 -0.3320 -0.7454
 5505SOL    HW123755   7.079  12.038  10.116  1.2922  0.5364 -1.8261
 5505SOL    HW223756   7.109  12.174  10.176  2.1775 -0.2390 -0.4592
 5506SOL     OW23757   7.199   3.475   9.488 -0.0684  0.2606  0.5479
 5506SOL    HW123758   7.122   3.524   9.515 -0.2358  0.5492 -0.4021
 5506SOL    HW223759   7.165   3.392   9.454  0.2807 -1.0548  3.1394
 5507SOL     OW23760   9.125   8.703   4.041  0.2091  0.0660 -0.4492
 5507SOL    HW123761   9.095   8.637   4.103  1.5088 -0.6609 -0.5639
 5507SOL    HW223762   9.204   8.740   4.081  1.8745 -1.3577 -2.2170
 5508SOL     OW23763   1.494  11.211   2.429 -0.0101  0.7887 -0.0438
 5508SOL    HW123764   1.525  11.292   2.469  0.0600  0.9448 -0.4114
 5508SOL    HW223765   1.420  11.238   2.374  0.6905  0.7787 -1.0197
 5509SOL     OW23766   6.830   9.423  12.263  0.6666  0.3070 -0.3393
 5509SOL    HW123767   6.911   9.473  12.250  0.7805  0.4632  0.8495
 5509SOL    HW223768   6.856   9.346  12.313 -0.0697  0.9862  1.1910
 5510SOL     OW23769   5.116   1.590   6.726  0.5790  0.0157  0.8096
 5510SOL    HW123770   5.128   1.526   6.796 -1.6502  0.4227  1.6600
 5510SOL    HW223771   5.119   1.675   6.769 -0.7666  0.2743  0.4578
 5511SOL     OW23772   7.338   7.567   5.695 -0.0657 -0.2555  0.0883
 5511SOL    HW123773   7.411   7.628   5.687 -0.3760  0.0599 -0.3915
 5511SOL    HW223774   7.265   7.621   5.726 -0.5863 -0.1863 -1.2053
 5512SOL     OW23775   9.162  12.695   6.634  0.2414  0.4737  0.5512
 5512SOL    HW123776   9.212  12.678   6.714  1.5864 -0.1330 -0.3784
 5512SOL    HW223777   9.227  12.727   6.571 -0.5526 -0.2105 -0.6674
 5513SOL     OW23778   9.201   6.010   3.460 -0.3257 -0.0390 -0.1363
 5513SOL    HW123779   9.278   5.974   3.415  0.1126  0.5155  0.1454
 5513SOL    HW223780   9.137   5.940   3.458 -0.1226 -0.2065 -1.1445
 5514SOL     OW23781   4.654   7.994   0.891  0.5423  0.5581  0.2672
 5514SOL    HW123782   4.576   7.987   0.947 -0.9257  2.7421 -1.3082
 5514SOL    HW223783   4.647   7.919   0.832  0.9526 -0.5666  1.5916
 5515SOL     OW23784   1.863   4.949  11.929 -0.4290  0.5775 -0.3042
 5515SOL    HW123785   1.910   5.031  11.914  2.1262 -0.7459 -0.1385
 5515SOL    HW223786   1.847   4.947  12.024 -0.2855  0.7674 -0.2769
 5516SOL     OW23787   3.784   5.417   9.570  0.3162 -0.1213 -0.2224
 5516SOL    HW123788   3.839   5.414   9.491 -1.0961 -1.1703 -1.2351
 5516SOL    HW223789   3.729   5.495   9.559 -1.6861 -1.6044 -1.6618
 5517SOL     OW23790   7.639   0.048   7.285 -0.1916 -0.3973  0.2435
 5517SOL    HW123791   7.547   0.064   7.307 -0.4836 -0.1364 -1.0823
 5517SOL    HW223792   7.688   0.105   7.345 -1.0418  1.9390 -1.1536
 5518SOL     OW23793  11.621  11.869  10.277  0.0637  0.7390  0.1016
 5518SOL    HW123794  11.577  11.834  10.354 -0.4735  0.8125 -0.1661
 5518SOL    HW223795  11.549  11.891  10.216  0.5254 -1.8179 -1.5258
 5519SOL     OW23796   8.492   1.354   1.933  0.0707 -0.8606  0.0466
 5519SOL    HW123797   8.481   1.402   1.851  1.4411 -0.6671 -0.0368
 5519SOL    HW223798   8.475   1.263   1.910 -2.3675 -0.5042  0.1677
 5520SOL     OW23799  10.430   1.679  10.737 -0.0998  0.0950  0.8113
 5520SOL    HW123800  10.373   1.721  10.802  0.7066  2.2092  0.2661
 5520SOL    HW223801  10.508   1.654  10.787  0.4958  1.6682  0.7426
 5521SOL     OW23802   6.936   9.432   9.994  0.5260  0.2949  0.0690
 5521SOL    HW123803   7.024   9.401   9.973  1.1938  2.2747 -0.2263
 5521SOL    HW223804   6.948   9.495  10.064 -0.7847 -0.0208  0.6280
 5522SOL     OW23805   1.181  12.029   7.324  0.2637 -0.1411  0.1553
 5522SOL    HW123806   1.186  11.996   7.235 -0.0800  1.4833 -0.4953
 5522SOL    HW223807   1.248  11.980   7.372  1.3374 -0.1273 -1.2836
 5523SOL     OW23808   4.656   3.357   3.165 -0.0535 -0.4902 -0.6163
 5523SOL    HW123809   4.607   3.439   3.161 -0.2623 -0.6419 -1.3336
 5523SOL    HW223810   4.600   3.293   3.121 -1.8449 -2.0673  3.4928
 5524SOL     OW23811   4.684   5.928   7.644 -0.2731  0.0896  0.3076
 5524SOL    HW123812   4.751   5.974   7.592  0.9031  0.1072  1.7641
 5524SOL    HW223813   4.662   5.990   7.713 -0.8244 -0.4479  0.6112
 5525SOL     OW23814   3.183   5.158   3.656  0.3736  0.0499 -0.0830
 5525SOL    HW123815   3.092   5.166   3.625  0.5639 -0.9072 -0.9549
 5525SOL    HW223816   3.183   5.078   3.708  0.9480 -0.5732 -1.0179
 5526SOL     OW23817   4.119   8.240   6.328  0.4375 -0.3596  0.6986
 5526SOL    HW123818   4.213   8.223   6.341  1.2227  3.3370  0.8825
 5526SOL    HW223819   4.114   8.275   6.239 -0.9568 -1.1585  0.4270
 5527SOL     OW23820   5.004   3.866   7.754  0.3205 -0.1063 -0.6596
 5527SOL    HW123821   5.071   3.929   7.778  0.8512 -0.2152 -1.8166
 5527SOL    HW223822   5.051   3.796   7.709 -0.6644  0.2156 -2.2384
 5528SOL     OW23823  10.807   9.423   5.665  0.4685 -0.5152 -0.2477
 5528SOL    HW123824  10.822   9.340   5.621  0.4232 -0.4548 -0.3783
 5528SOL    HW223825  10.767   9.400   5.748 -0.9942 -0.5513 -0.9263
 5529SOL     OW23826   6.355   6.583   5.102 -0.0867  0.3497  0.0605
 5529SOL    HW123827   6.370   6.521   5.173  0.1052  0.5260  0.1730
 5529SOL    HW223828   6.420   6.652   5.115  0.8894 -0.2977 -1.0720
 5530SOL     OW23829   0.367   1.085   6.018  0.0891  0.2695  0.0187
 5530SOL    HW123830   0.368   1.081   5.923 -0.7031  0.0157  0.0131
 5530SOL    HW223831   0.374   0.994   6.047 -4.9110 -0.4135  0.0754
 5531SOL     OW23832  12.116   4.299   9.231  0.3334  0.8015  0.2297
 5531SOL    HW123833  12.186   4.359   9.257  1.8854 -0.7586 -0.1610
 5531SOL    HW223834  12.161   4.218   9.208 -1.4551  0.3047 -1.8224
 5532SOL     OW23835  11.254   3.973  10.617 -0.1177  0.2700  0.0892
 5532SOL    HW123836  11.248   4.050  10.560  0.0529  1.0420  1.1035
 5532SOL    HW223837  11.266   4.008  10.705 -1.1205 -0.8908  0.7230
 5533SOL     OW23838   1.030   8.713   3.598 -0.8350 -0.0825  0.0681
 5533SOL    HW123839   1.025   8.634   3.651 -1.0926  0.1065  0.3343
 5533SOL    HW223840   0.943   8.721   3.559 -1.6893  1.4205  2.0532
 5534SOL     OW23841   6.962   7.549   0.262 -0.4720  0.3354  0.3366
 5534SOL    HW123842   6.960   7.459   0.231 -2.4374  0.8339 -1.1726
 5534SOL    HW223843   7.051   7.579   0.243 -0.0910 -0.9808 -0.0295
 5535SOL     OW23844   0.289   0.307   0.794  0.6110  0.3112  0.0470
 5535SOL    HW123845   0.306   0.338   0.883 -1.4763  0.6962  0.3649
 5535SOL    HW223846   0.372   0.271   0.765  1.2860 -0.0591  2.2459
 5536SOL     OW23847  11.884  11.157  11.563  0.2882  0.3176 -0.3429
 5536SOL    HW123848  11.801  11.144  11.607 -0.4807 -3.7968 -2.4596
 5536SOL    HW223849  11.861  11.189  11.476  0.9707  0.1449 -0.5976
 5537SOL     OW23850   6.337   5.185  11.469 -0.5797  0.1779  0.1515
 5537SOL    HW123851   6.255   5.184  11.419  0.0299  0.6987 -0.9040
 5537SOL    HW223852   6.339   5.100  11.513 -0.8209 -0.6237 -1.2899
 5538SOL     OW23853   2.150   6.892   3.140 -0.0910 -0.5668 -0.1751
 5538SOL    HW123854   2.084   6.956   3.114  1.3985  1.4552  0.7216
 5538SOL    HW223855   2.196   6.933   3.213  1.2439 -2.5036  0.1617
 5539SOL     OW23856   7.734   4.933   3.506  0.0803  0.0779  0.2394
 5539SOL    HW123857   7.709   4.905   3.419  1.3465  1.3230 -0.5767
 5539SOL    HW223858   7.652   4.960   3.548 -0.5951 -0.9738 -0.3824
 5540SOL     OW23859   7.127   2.040   8.883 -0.1336 -0.3231 -0.0353
 5540SOL    HW123860   7.116   2.126   8.844 -0.4015 -0.4732 -0.2910
 5540SOL    HW223861   7.171   1.988   8.815 -0.1436 -0.4425  0.0493
 5541SOL     OW23862   5.726  12.477   7.114 -0.2982 -0.2052  0.0381
 5541SOL    HW123863   5.756  12.567   7.127 -0.0083 -0.2123 -0.5434
 5541SOL    HW223864   5.798  12.423   7.145 -0.6308 -0.2407  0.7526
 5542SOL     OW23865   0.335   7.628   6.846 -0.3713 -0.2742  0.0588
 5542SOL    HW123866   0.246   7.632   6.882 -0.5065  1.0783 -0.3546
 5542SOL    HW223867   0.388   7.678   6.908  0.4385 -2.3207  1.1091
 5543SOL     OW23868   8.078  10.301   8.827  0.0387 -0.3065 -0.0740
 5543SOL    HW123869   8.004  10.272   8.879 -0.4983 -1.7318 -1.5309
 5543SOL    HW223870   8.152  10.302   8.888 -0.7860 -0.7792  0.9555
 5544SOL     OW23871   5.579   8.237   8.525 -0.5681 -0.4134 -0.3668
 5544SOL    HW123872   5.615   8.175   8.587 -0.7568  0.3487  0.5201
 5544SOL    HW223873   5.504   8.276   8.570 -0.6798  0.1901 -1.0452
 5545SOL     OW23874  11.805   8.654  12.101  0.2477 -0.5757 -0.6682
 5545SOL    HW123875  11.843   8.590  12.161 -0.6457  0.3293  0.9304
 5545SOL    HW223876  11.878   8.708  12.073  0.5332 -0.4230  0.3600
 5546SOL     OW23877   1.538   2.060   7.495 -0.4760  0.1426 -0.1713
 5546SOL    HW123878   1.631   2.036   7.498 -0.4977 -0.0902 -1.0836
 5546SOL    HW223879   1.493   1.978   7.514 -0.5064  0.0617 -0.5875
 5547SOL     OW23880   4.976   9.257  12.047 -0.0028 -0.3225 -0.5019
 5547SOL    HW123881   5.005   9.197  12.115  0.3993 -1.2221 -1.4405
 5547SOL    HW223882   4.930   9.327  12.094  4.3864  1.7530  1.2509
 5548SOL     OW23883   5.199   5.339   0.931 -0.2859  0.1280  0.4076
 5548SOL    HW123884   5.255   5.273   0.890  0.4993  0.1239  1.4299
 5548SOL    HW223885   5.183   5.304   1.019  0.1008  1.2828  0.9498
 5549SOL     OW23886   6.593   1.702   1.647 -0.1837 -0.4273 -0.3607
 5549SOL    HW123887   6.682   1.707   1.614 -0.6830 -2.4176 -2.1953
 5549SOL    HW223888   6.597   1.640   1.720 -0.3290 -2.0826 -1.6965
 5550SOL     OW23889   0.815   7.508   2.358 -0.0044  0.4531  0.0745
 5550SOL    HW123890   0.852   7.569   2.422 -0.2891  1.8359 -1.0445
 5550SOL    HW223891   0.773   7.563   2.292 -0.7818 -0.9703 -0.6857
 5551SOL     OW23892   6.630   6.797   2.700  0.2775 -0.4344 -0.1866
 5551SOL    HW123893   6.600   6.745   2.626  0.1097 -1.7408  0.7738
 5551SOL    HW223894   6.676   6.871   2.660 -3.4513  1.2991 -1.7653
 5552SOL     OW23895  10.100   0.377   1.097  0.3033  0.0058 -0.1985
 5552SOL    HW123896  10.151   0.300   1.070 -0.0757  0.2504 -1.7043
 5552SOL    HW223897  10.114   0.441   1.027 -1.8006  0.1985 -0.4992
 5553SOL     OW23898   2.652   8.807   3.540 -0.2207 -0.4388 -0.1686
 5553SOL    HW123899   2.719   8.860   3.495 -1.8031  1.6396 -0.2248
 5553SOL    HW223900   2.667   8.718   3.508  2.7052 -0.1506  0.0856
 5554SOL     OW23901  11.061   3.413   4.108 -0.1190  0.1476 -0.0367
 5554SOL    HW123902  11.000   3.356   4.154  0.0098  0.3214  0.3556
 5554SOL    HW223903  11.147   3.389   4.143  0.2333 -1.0688 -1.5620
 5555SOL     OW23904  12.663  10.266   5.861 -0.1499 -0.1916 -0.8861
 5555SOL    HW123905  12.671  10.300   5.950  1.6452 -1.6680 -0.4249
 5555SOL    HW223906  12.626  10.178   5.873  2.1526 -1.2811 -1.3515
 5556SOL     OW23907   3.689   8.619   7.032 -0.2482  0.0745  0.3618
 5556SOL    HW123908   3.717   8.693   6.978  0.9795 -1.0328 -0.5992
 5556SOL    HW223909   3.594   8.627   7.037 -0.2778  0.8879 -0.9807
 5557SOL     OW23910   3.223   3.710   9.517  0.6848 -0.2467 -0.1573
 5557SOL    HW123911   3.244   3.617   9.513 -0.0787 -0.4390  0.1937
 5557SOL    HW223912   3.129   3.713   9.533  0.7718  0.5850  0.2462
 5558SOL     OW23913  11.309   1.433   4.413 -0.1896 -0.5803  0.0454
 5558SOL    HW123914  11.255   1.367   4.457 -3.4519  1.2246 -0.9237
 5558SOL    HW223915  11.315   1.505   4.476  0.7587 -0.5826 -0.0288
 5559SOL     OW23916   1.467   8.072   8.530  0.3989  0.2816  0.3505
 5559SOL    HW123917   1.510   8.154   8.556  0.0544  0.4539  0.3776
 5559SOL    HW223918   1.435   8.034   8.611  0.5618  0.1167  0.3382
 5560SOL     OW23919  12.010   4.274   4.407 -0.2814  0.6748 -0.0799
 5560SOL    HW123920  11.987   4.201   4.464  0.9719  0.4782  0.2015
 5560SOL    HW223921  11.950   4.266   4.332 -1.2554  0.3483  0.7185
 5561SOL     OW23922   7.889   5.145   5.894  0.0825  0.7154 -0.2061
 5561SOL    HW123923   7.810   5.160   5.843  0.7785  1.0543 -1.1971
 5561SOL    HW223924   7.950   5.104   5.833  1.0768  1.5257  0.2290
 5562SOL     OW23925   2.366   8.445   6.865 -0.0681 -0.0776  0.3792
 5562SOL    HW123926   2.376   8.400   6.949 -1.3162  0.2467  0.7192
 5562SOL    HW223927   2.309   8.519   6.884 -1.0775 -0.4789 -0.9066
 5563SOL     OW23928   4.562   8.570   0.178  0.2995  0.4192 -0.5958
 5563SOL    HW123929   4.621   8.519   0.123  1.7608  0.0256  1.2542
 5563SOL    HW223930   4.618   8.637   0.218 -0.3510 -0.2750  1.6073
 5564SOL     OW23931   3.703   3.064   8.729 -0.4660 -0.1631 -0.0912
 5564SOL    HW123932   3.798   3.055   8.722 -0.3645  0.4569  0.3522
 5564SOL    HW223933   3.668   2.977   8.711  0.1628 -0.3066 -0.6553
 5565SOL     OW23934   9.596   7.129   6.599 -0.3440 -0.4792 -0.3914
 5565SOL    HW123935   9.679   7.108   6.641 -0.4586 -1.7508 -0.7834
 5565SOL    HW223936   9.530   7.117   6.668 -0.1575  1.3956  0.1783
 5566SOL     OW23937  11.310   4.877   1.198  0.3574  0.3386  0.4806
 5566SOL    HW123938  11.345   4.924   1.274  0.4313  0.2069  0.5270
 5566SOL    HW223939  11.278   4.794   1.234  1.7430 -0.3665  0.1371
 5567SOL     OW23940   1.121   6.053   4.677 -0.3246  0.1155 -0.1675
 5567SOL    HW123941   1.136   5.967   4.715 -4.1563 -0.5599  0.2232
 5567SOL    HW223942   1.124   6.113   4.752 -0.5767 -0.1375  0.0498
 5568SOL     OW23943   9.618   8.077   2.709  0.6414  0.0088  0.1334
 5568SOL    HW123944   9.633   8.115   2.622 -0.0010 -0.4283 -0.1755
 5568SOL    HW223945   9.705   8.067   2.746  1.1299 -1.8996 -1.3479
 5569SOL     OW23946  12.456  11.694   6.296 -0.8265  0.2386 -0.4035
 5569SOL    HW123947  12.400  11.714   6.371 -1.2502  0.5038 -0.7859
 5569SOL    HW223948  12.509  11.772   6.283  1.1627 -0.7519  1.2608
 5570SOL     OW23949   6.315   0.341   3.904  0.2284 -1.0130  0.0037
 5570SOL    HW123950   6.237   0.395   3.889  1.6037  1.4005  1.0166
 5570SOL    HW223951   6.377   0.369   3.837  0.6789 -1.9974 -0.0060
 5571SOL     OW23952   8.370   2.860  11.604 -0.2818  0.7333  0.0690
 5571SOL    HW123953   8.362   2.951  11.576  2.1003  0.7807 -0.6921
 5571SOL    HW223954   8.446   2.827  11.556  0.2875 -0.9823  2.0261
 5572SOL     OW23955   3.399   6.788   2.689 -0.2215 -0.1527 -0.5403
 5572SOL    HW123956   3.373   6.864   2.741  1.6515 -0.0070  0.2860
 5572SOL    HW223957   3.327   6.726   2.699 -1.3312  1.1126 -0.4005
 5573SOL     OW23958  10.309   7.725   8.497  0.5356  0.4246  0.0599
 5573SOL    HW123959  10.317   7.659   8.565 -1.3373  0.4405  0.3459
 5573SOL    HW223960  10.364   7.797   8.526  0.8188 -0.1159  0.8784
 5574SOL     OW23961  11.550   8.025   6.702 -0.1125  0.3127  0.4241
 5574SOL    HW123962  11.501   8.070   6.771  0.7585  1.0722  0.5706
 5574SOL    HW223963  11.490   7.958   6.670 -0.9199  0.6426  1.1927
 5575SOL     OW23964   6.391   5.115   9.689 -0.1864  0.1546 -0.2338
 5575SOL    HW123965   6.399   5.207   9.663 -1.2816  0.8524  1.6818
 5575SOL    HW223966   6.447   5.107   9.766 -1.7233 -0.1966  0.8987
 5576SOL     OW23967   8.702   0.829  10.118 -0.5117  0.2735 -0.4149
 5576SOL    HW123968   8.733   0.740  10.103  1.1619  0.3920  1.8556
 5576SOL    HW223969   8.757   0.884  10.061 -1.1970 -0.0702 -1.4286
 5577SOL     OW23970   0.294  10.273   3.783 -0.5151  0.1677  0.6871
 5577SOL    HW123971   0.304  10.177   3.784 -0.7813  0.0757 -1.3572
 5577SOL    HW223972   0.200  10.287   3.785 -0.5280  0.3203 -0.5939
 5578SOL     OW23973   2.742  11.279   9.940 -0.3347  0.0938 -0.4104
 5578SOL    HW123974   2.743  11.192   9.981 -0.5689 -0.3102 -1.2390
 5578SOL    HW223975   2.766  11.339  10.011  1.0587 -0.7704 -0.0998
 5579SOL     OW23976  11.284   1.137   9.190  0.6456  0.0485  0.0266
 5579SOL    HW123977  11.281   1.156   9.096  0.8266 -1.2500 -0.2522
 5579SOL    HW223978  11.208   1.182   9.226  0.2252  0.0478 -0.8380
 5580SOL     OW23979   1.284  12.634   8.121  0.5032  0.4259  0.0697
 5580SOL    HW123980   1.275  12.675   8.034  1.0947 -0.3253 -0.3597
 5580SOL    HW223981   1.309  12.706   8.179 -0.0852  0.9730 -0.3417
 5581SOL     OW23982   2.143  12.006   1.650 -0.1983 -0.1321 -0.3534
 5581SOL    HW123983   2.073  12.037   1.592 -0.5845  1.7097  0.9978
 5581SOL    HW223984   2.116  11.917   1.674 -0.9590 -0.2456 -1.5169
 5582SOL     OW23985   7.069   0.703   0.912 -0.5339  0.1585 -0.3062
 5582SOL    HW123986   7.118   0.779   0.878 -1.3143  0.4834 -0.7252
 5582SOL    HW223987   7.060   0.720   1.006 -0.5678  0.5076 -0.3719
 5583SOL     OW23988   5.785   0.858   6.581 -0.2725  0.4262  0.3354
 5583SOL    HW123989   5.870   0.818   6.599  0.0149  1.0690  0.4199
 5583SOL    HW223990   5.722   0.788   6.597  0.2973 -0.3303 -0.6075
 5584SOL     OW23991   3.521   7.093   8.028  0.0080  0.4219 -0.6988
 5584SOL    HW123992   3.451   7.117   8.088  0.4375 -1.0929  0.4956
 5584SOL    HW223993   3.593   7.065   8.085  0.5582 -0.7559 -1.8943
 5585SOL     OW23994   8.492  11.357   8.077  0.2481 -0.4983 -0.6759
 5585SOL    HW123995   8.476  11.392   7.989 -0.2833 -0.7701 -0.6914
 5585SOL    HW223996   8.406  11.333   8.109  0.4875 -0.7849 -0.2372
 5586SOL     OW23997   8.067   5.707   2.202  0.1394 -0.4623  0.0541
 5586SOL    HW123998   8.083   5.796   2.171  0.4400 -0.2070  0.9146
 5586SOL    HW223999   8.054   5.655   2.122 -0.2647  0.3919 -0.4410
 5587SOL     OW24000   4.789   9.423   6.022 -0.4537  0.4447 -0.1528
 5587SOL    HW124001   4.754   9.346   6.064  1.3530 -0.0577  0.5365
 5587SOL    HW224002   4.747   9.497   6.066 -2.6870 -0.0872 -1.2639
 5588SOL     OW24003   4.108   1.161   4.494  0.2749  0.2202 -0.0886
 5588SOL    HW124004   4.065   1.113   4.565  1.6927  0.6716  1.1532
 5588SOL    HW224005   4.160   1.094   4.448 -0.2837  0.0065 -0.4133
 5589SOL     OW24006  12.491   5.935   8.721  0.0605 -0.6471  0.0937
 5589SOL    HW124007  12.584   5.915   8.735  0.4700  0.3537 -1.0304
 5589SOL    HW224008  12.490   5.995   8.646 -1.1955  2.1731  2.1867
 5590SOL     OW24009   4.011   4.198   3.685 -0.2887 -0.0547  0.0596
 5590SOL    HW124010   3.933   4.252   3.699  0.6836  1.1076  1.1946
 5590SOL    HW224011   4.084   4.260   3.684  0.6835 -1.1634 -0.5213
 5591SOL     OW24012   1.319   1.667   9.968 -0.0710 -0.2914 -0.3764
 5591SOL    HW124013   1.389   1.634   9.911  1.7897  1.1506  0.9473
 5591SOL    HW224014   1.291   1.590  10.017  1.2072 -0.7527 -0.3164
 5592SOL     OW24015   8.247   4.576  11.388 -0.0362  0.2685  0.3542
 5592SOL    HW124016   8.228   4.640  11.320 -0.4854  0.4068  0.6036
 5592SOL    HW224017   8.251   4.627  11.469 -1.2705 -0.1244  0.6811
 5593SOL     OW24018  10.153   9.964   4.990 -0.1311  0.4836 -0.0094
 5593SOL    HW124019  10.103   9.888   5.022  0.8479  0.1294  0.7226
 5593SOL    HW224020  10.230   9.967   5.046 -0.0377  1.8952 -0.1885
 5594SOL     OW24021   1.768   2.335   7.789 -0.5531  0.1187  0.1459
 5594SOL    HW124022   1.806   2.377   7.866 -2.2239  0.3169  0.9138
 5594SOL    HW224023   1.690   2.291   7.823 -0.8003 -0.5824 -1.2823
 5595SOL     OW24024  10.945   6.342   5.220  0.2007 -0.3482 -0.3072
 5595SOL    HW124025  10.888   6.419   5.224  1.5547  0.7031 -0.5672
 5595SOL    HW224026  10.901   6.284   5.158 -1.0871 -0.0101  0.2457
 5596SOL     OW24027   2.183  12.212   4.499  0.3079 -0.5298  0.7190
 5596SOL    HW124028   2.098  12.254   4.507  1.1165  1.0161  1.9292
 5596SOL    HW224029   2.212  12.233   4.410  0.6453  1.5512  1.2426
 5597SOL     OW24030   1.823   3.424   5.050  0.3694 -0.1244 -0.0526
 5597SOL    HW124031   1.876   3.441   4.972  0.6744 -1.8190 -0.2396
 5597SOL    HW224032   1.821   3.508   5.096 -0.8606  1.2930 -2.4777
 5598SOL     OW24033   6.852   9.064   9.506 -0.0310  0.5442  0.2769
 5598SOL    HW124034   6.769   9.095   9.470 -0.2149  0.3630  0.5401
 5598SOL    HW224035   6.890   9.141   9.548 -1.5109 -0.0079  2.8631
 5599SOL     OW24036   8.771   5.422   7.865 -0.0159  0.6487 -0.1919
 5599SOL    HW124037   8.862   5.434   7.888  0.7566 -0.7250 -2.1841
 5599SOL    HW224038   8.722   5.475   7.927  1.9876 -0.2585  2.3133
 5600SOL     OW24039  11.751  11.074   3.591 -0.0375 -0.1950 -0.4093
 5600SOL    HW124040  11.786  11.097   3.505 -0.5290  0.8192 -0.3551
 5600SOL    HW224041  11.725  10.983   3.583  0.8016 -0.3927 -1.0380
 5601SOL     OW24042   8.351  10.812   1.801  0.0838  0.2519  0.0112
 5601SOL    HW124043   8.391  10.888   1.760 -2.0776  1.3730 -0.1709
 5601SOL    HW224044   8.265  10.842   1.829 -0.3539 -1.7951  1.0957
 5602SOL     OW24045   5.782   1.414   9.991  0.1958  0.2178  0.6032
 5602SOL    HW124046   5.778   1.412  10.087  0.9460 -0.7960  0.6371
 5602SOL    HW224047   5.695   1.386   9.963 -0.4393  1.7355  0.9529
 5603SOL     OW24048   0.385   0.045   0.218 -0.1406 -0.0572 -0.3374
 5603SOL    HW124049   0.421  -0.011   0.287 -0.8924 -1.6751 -1.1820
 5603SOL    HW224050   0.401  -0.004   0.137  1.8806  2.3684 -1.5453
 5604SOL     OW24051   0.879   1.375   2.112  0.1471 -0.0708 -0.0751
 5604SOL    HW124052   0.821   1.421   2.173  1.4790 -0.1663  1.3352
 5604SOL    HW224053   0.967   1.404   2.136  0.7578 -0.5264 -1.6372
 5605SOL     OW24054   1.812  11.119  11.585  0.1236 -0.2666  0.1802
 5605SOL    HW124055   1.872  11.194  11.593  2.2751 -1.8813  0.1233
 5605SOL    HW224056   1.870  11.042  11.584 -2.0485 -2.0343  1.3275
 5606SOL     OW24057  10.364   3.682   2.079 -0.2004  0.5910  0.2055
 5606SOL    HW124058  10.347   3.588   2.072 -1.0954  0.7426  0.2086
 5606SOL    HW224059  10.458   3.688   2.091  0.2204 -0.1854 -2.1527
 5607SOL     OW24060  10.769   2.158   9.385 -0.5775 -0.0201 -0.2921
 5607SOL    HW124061  10.825   2.126   9.456 -0.2255  1.2061  0.0085
 5607SOL    HW224062  10.787   2.100   9.312 -1.3266 -1.6373  0.7565
 5608SOL     OW24063   2.486   4.898   4.953  0.5149 -0.2380  0.3809
 5608SOL    HW124064   2.497   4.805   4.973  2.2823  0.1695  1.5458
 5608SOL    HW224065   2.393   4.914   4.967 -0.2315 -2.1971 -1.7097
 5609SOL     OW24066   9.858   2.295   9.823 -0.3008  0.3189  0.3121
 5609SOL    HW124067   9.895   2.381   9.802 -2.5206  1.2123 -0.1791
 5609SOL    HW224068   9.934   2.238   9.833  1.1622  1.8265 -1.5570
 5610SOL     OW24069   0.338  10.797  11.619  0.0061 -0.2402 -0.0008
 5610SOL    HW124070   0.326  10.712  11.576  1.0056 -0.3722 -0.0326
 5610SOL    HW224071   0.430  10.818  11.605 -0.3623  1.1364 -0.5037
 5611SOL     OW24072  12.108   9.401   6.501  0.3017 -0.5188  0.3446
 5611SOL    HW124073  12.118   9.495   6.518  3.3718 -0.6782  0.0166
 5611SOL    HW224074  12.141   9.359   6.581  1.0764 -1.2847 -0.3618
 5612SOL     OW24075   7.509   3.886   0.920 -0.2797 -0.4306  0.0534
 5612SOL    HW124076   7.579   3.889   0.854  0.2487 -0.2275  0.6213
 5612SOL    HW224077   7.445   3.824   0.884 -0.9717  1.1364 -1.6077
 5613SOL     OW24078   4.703   6.370   5.237 -0.1613  0.1591  0.2867
 5613SOL    HW124079   4.748   6.417   5.308  0.7774  0.3581 -0.4226
 5613SOL    HW224080   4.751   6.287   5.231 -0.7221 -0.1733  0.3857
 5614SOL     OW24081   4.910  12.378   2.518  0.0434 -0.1955  0.2386
 5614SOL    HW124082   4.920  12.383   2.613  1.1961  0.4925  0.0935
 5614SOL    HW224083   4.822  12.414   2.502 -0.1742 -0.3404  1.0327
 5615SOL     OW24084   2.034   7.798  10.041 -0.3326 -0.3069  0.2925
 5615SOL    HW124085   2.010   7.706  10.054  0.2500 -0.8778 -2.1992
 5615SOL    HW224086   1.951   7.846  10.051 -0.6656 -1.0733  1.4812
 5616SOL     OW24087   0.000  11.014   4.001  0.4276  0.0208 -0.0043
 5616SOL    HW124088   0.007  10.922   4.027  0.8467 -1.0341 -3.3964
 5616SOL    HW224089   0.080  11.030   3.950 -0.8309  1.4709 -1.6041
 5617SOL     OW24090  10.987   9.161   0.827 -0.7218 -0.2173  0.0567
 5617SOL    HW124091  11.011   9.239   0.877  1.7091 -1.0949  0.3809
 5617SOL    HW224092  10.932   9.193   0.756 -0.5657  1.6475  0.7332
 5618SOL     OW24093   6.982   4.397   1.760  0.0284 -0.2461 -0.1747
 5618SOL    HW124094   7.030   4.403   1.678 -0.6468  1.4020 -0.4925
 5618SOL    HW224095   7.012   4.315   1.800  0.7689 -0.8034 -1.7940
 5619SOL     OW24096   7.267   5.980   3.624 -0.2805 -0.1616 -0.1951
 5619SOL    HW124097   7.242   6.063   3.666 -0.7718  1.2888 -3.0992
 5619SOL    HW224098   7.194   5.922   3.641 -1.1413  0.8660 -0.2675
 5620SOL     OW24099   3.471   2.117   4.806 -0.4276  0.2696 -0.3023
 5620SOL    HW124100   3.548   2.171   4.787  2.0912 -2.6771  0.7880
 5620SOL    HW224101   3.445   2.082   4.721  0.5526 -0.0558 -0.4815
 5621SOL     OW24102   5.932   3.320  10.739 -0.2312  0.1259 -0.0279
 5621SOL    HW124103   6.021   3.303  10.707 -0.4442 -0.1978 -0.4538
 5621SOL    HW224104   5.919   3.255  10.808 -0.2242  0.0190 -0.1276
 5622SOL     OW24105   5.926  11.301   7.155 -0.0632 -0.2856 -0.1353
 5622SOL    HW124106   5.899  11.335   7.241 -0.5903 -2.1347  0.4675
 5622SOL    HW224107   5.893  11.212   7.153 -1.8849  0.3302 -3.1096
 5623SOL     OW24108   1.631   0.754   4.400  0.5217  0.1618 -0.6314
 5623SOL    HW124109   1.541   0.723   4.391  1.0951 -1.8810  0.0864
 5623SOL    HW224110   1.647   0.807   4.322 -1.8726  2.1913  0.1184
 5624SOL     OW24111   2.900   1.320   7.460  0.0677 -0.1441  0.0926
 5624SOL    HW124112   2.928   1.309   7.551 -1.5180 -1.0258  0.5108
 5624SOL    HW224113   2.917   1.236   7.419  1.6106  0.5188 -0.7090
 5625SOL     OW24114   3.113   5.219  11.945  0.0826 -0.0229 -0.2939
 5625SOL    HW124115   3.184   5.155  11.937  0.3664 -0.1495  2.3861
 5625SOL    HW224116   3.155   5.303  11.928  1.2546  0.0258  2.3547
 5626SOL     OW24117   3.330   0.840   3.122  0.3186 -0.2510 -0.0355
 5626SOL    HW124118   3.317   0.789   3.202  0.0685 -1.5285 -0.8579
 5626SOL    HW224119   3.262   0.808   3.063  2.0615 -1.2061 -1.6300
 5627SOL     OW24120   7.482  12.643   6.795 -0.3421 -0.2196  0.3612
 5627SOL    HW124121   7.540  12.719   6.792  0.6789 -1.0013 -0.6796
 5627SOL    HW224122   7.395  12.679   6.781  0.2899  0.6159 -1.7705
 5628SOL     OW24123  10.191  10.164   2.182 -0.3189  0.9336 -0.3266
 5628SOL    HW124124  10.227  10.227   2.119 -0.5608  1.2077 -0.1972
 5628SOL    HW224125  10.266  10.139   2.236 -0.1931  1.0166 -0.4590
 5629SOL     OW24126  10.933   6.625   0.829  0.4433 -0.2612 -0.0449
 5629SOL    HW124127  11.004   6.635   0.765  0.0402 -0.1114 -0.4738
 5629SOL    HW224128  10.956   6.547   0.879 -0.3977 -1.7340 -1.8797
 5630SOL     OW24129   6.063  11.219   2.738  0.2791 -0.1515 -0.2375
 5630SOL    HW124130   5.981  11.254   2.703 -0.4454 -0.6034  0.9410
 5630SOL    HW224131   6.066  11.250   2.828 -0.0621 -2.5023  0.6543
 5631SOL     OW24132  10.462   9.942  11.505  0.2213 -0.1700 -0.0604
 5631SOL    HW124133  10.431   9.880  11.439  1.2277 -0.3669 -0.3662
 5631SOL    HW224134  10.383   9.982  11.540 -0.6158 -2.7588  1.2945
 5632SOL     OW24135   2.009  10.555   5.733  0.5291  0.0489 -0.7642
 5632SOL    HW124136   1.942  10.493   5.759  1.0320 -0.2008 -0.0411
 5632SOL    HW224137   1.962  10.637   5.719  0.1238 -0.0356  0.0831
 5633SOL     OW24138  10.067   1.814   0.219  0.2189  0.6222  0.3754
 5633SOL    HW124139  10.158   1.823   0.192 -0.1369  1.8225 -0.5424
 5633SOL    HW224140  10.047   1.722   0.206  1.2246  0.4036  0.3195
 5634SOL     OW24141   2.966  12.241   7.404  0.3098  0.0595  0.4827
 5634SOL    HW124142   3.026  12.169   7.389 -0.3525 -0.3964 -0.0470
 5634SOL    HW224143   2.979  12.299   7.329  0.9909  0.6198  1.0097
 5635SOL     OW24144   2.932   7.574  11.692  0.0363 -0.2210 -0.1993
 5635SOL    HW124145   2.941   7.658  11.737  0.3965 -0.0056 -0.6601
 5635SOL    HW224146   2.867   7.591  11.623  2.2656  0.5342 -2.2258
 5636SOL     OW24147   0.411  10.326   6.079  0.1962  0.1642 -0.0562
 5636SOL    HW124148   0.343  10.382   6.117  0.1563 -0.5061  0.8931
 5636SOL    HW224149   0.485  10.385   6.065 -0.0424  0.5795  0.3913
 5637SOL     OW24150  11.740   0.039   4.470 -0.1831 -0.4976  0.6605
 5637SOL    HW124151  11.646   0.057   4.464 -0.0736  0.2279  0.9834
 5637SOL    HW224152  11.782   0.121   4.444  0.3345 -0.2836  2.0663
 5638SOL     OW24153   6.159  12.122   3.843 -0.3913 -0.0568  0.0886
 5638SOL    HW124154   6.202  12.162   3.919 -4.3634 -0.3036  2.7767
 5638SOL    HW224155   6.159  12.191   3.777  1.0434  1.0819  1.2098
 5639SOL     OW24156  10.601  10.598   5.050 -0.8127 -1.1155 -0.1528
 5639SOL    HW124157  10.602  10.649   5.132  1.0207 -0.8923 -0.2653
 5639SOL    HW224158  10.518  10.622   5.008 -0.6480  0.7243  0.4660
 5640SOL     OW24159   4.653   9.865  11.521 -0.1772  0.6059 -0.1172
 5640SOL    HW124160   4.748   9.875  11.517 -0.1065 -0.3178 -1.5892
 5640SOL    HW224161   4.623   9.884  11.432 -1.0825 -1.4171 -0.3166
 5641SOL     OW24162   0.548   3.567  10.053  0.1784 -1.3704  0.2388
 5641SOL    HW124163   0.579   3.582  10.142  0.0151 -0.2947  0.1349
 5641SOL    HW224164   0.628   3.554  10.002  0.5913  1.4154 -0.0329
 5642SOL     OW24165   7.589   4.830   7.458 -0.9897  0.4202  0.0304
 5642SOL    HW124166   7.665   4.860   7.408 -1.4873  0.4342 -0.7396
 5642SOL    HW224167   7.579   4.738   7.433 -1.0489  0.3416  0.3479
 5643SOL     OW24168   4.399   6.926   2.632 -0.0926 -0.2243 -0.1514
 5643SOL    HW124169   4.425   7.017   2.618  0.5117 -0.6147 -1.9125
 5643SOL    HW224170   4.444   6.878   2.562 -0.1077 -1.9284  0.9634
 5644SOL     OW24171   7.193   4.566   0.775  0.1090  0.2872 -0.4648
 5644SOL    HW124172   7.255   4.540   0.843  2.0897  0.1914 -2.2072
 5644SOL    HW224173   7.147   4.642   0.811  1.4712  0.5523  0.7825
 5645SOL     OW24174   4.397   8.502  11.562 -0.0343 -0.0545 -0.0028
 5645SOL    HW124175   4.378   8.516  11.655 -2.1762  0.1252 -0.4378
 5645SOL    HW224176   4.480   8.548  11.548  0.2751 -0.0009  1.7806
 5646SOL     OW24177   4.443   3.583   7.713  0.0152  0.3012 -0.3864
 5646SOL    HW124178   4.421   3.668   7.751  1.0519 -0.3267  1.8376
 5646SOL    HW224179   4.526   3.598   7.667 -0.7121  0.8481 -1.5518
 5647SOL     OW24180   5.655   4.661   5.010 -0.0711 -0.3769  0.5884
 5647SOL    HW124181   5.622   4.664   5.100  0.0089 -1.6441  0.6804
 5647SOL    HW224182   5.577   4.651   4.956  0.0230 -1.9920  0.7072
 5648SOL     OW24183   8.559   0.195   1.514  0.1596  0.2966 -0.0456
 5648SOL    HW124184   8.532   0.196   1.423  0.6836  1.6174 -0.2228
 5648SOL    HW224185   8.490   0.149   1.560 -0.1738 -0.2686 -1.0937
 5649SOL     OW24186   4.288   5.081   2.334  0.6478  0.4039 -0.1048
 5649SOL    HW124187   4.368   5.067   2.283  1.1316  2.1313  0.1346
 5649SOL    HW224188   4.274   5.176   2.333  0.6257  0.5416  2.8618
 5650SOL     OW24189   7.659   9.986   9.498  0.2372 -0.1407 -0.5252
 5650SOL    HW124190   7.668   9.898   9.462 -0.7692 -0.9642  1.1049
 5650SOL    HW224191   7.566   9.993   9.521  0.2554  1.4442 -0.8211
 5651SOL     OW24192   2.698   7.240   6.210 -0.1322 -0.1307  0.2764
 5651SOL    HW124193   2.618   7.278   6.248  0.6280  1.0595  0.7315
 5651SOL    HW224194   2.767   7.302   6.233  1.1235 -1.6774  0.7980
 5652SOL     OW24195   7.984   4.268   2.044  0.7257  1.0425  0.4531
 5652SOL    HW124196   7.971   4.282   2.138 -3.6954 -0.2504  0.2740
 5652SOL    HW224197   7.945   4.344   2.003 -1.5666 -0.4023 -0.2455
 5653SOL     OW24198   5.362   5.325   4.941 -0.7263 -0.1481  0.0472
 5653SOL    HW124199   5.436   5.375   4.905  0.3165 -1.5718  0.0862
 5653SOL    HW224200   5.403   5.265   5.004 -1.6808 -2.0967 -1.1008
 5654SOL     OW24201   0.443   2.778   8.491 -0.1204  0.1704  0.2337
 5654SOL    HW124202   0.492   2.850   8.452  0.5471 -0.6310 -0.4407
 5654SOL    HW224203   0.507   2.706   8.497 -0.7063 -0.3000  1.1058
 5655SOL     OW24204   8.731   8.146   9.664 -0.2338 -0.8439 -0.2914
 5655SOL    HW124205   8.728   8.240   9.683  3.6029 -0.7730  0.7582
 5655SOL    HW224206   8.721   8.142   9.568  1.5104  0.8929 -0.6228
 5656SOL     OW24207  11.422   1.981  11.886  0.4144 -0.4977  0.3208
 5656SOL    HW124208  11.509   2.022  11.889 -0.3811  1.3676 -0.1648
 5656SOL    HW224209  11.371   2.028  11.952 -0.9341  0.3564 -1.2360
 5657SOL     OW24210   7.949   2.947   2.378 -0.1933  0.3570  0.6543
 5657SOL    HW124211   7.882   2.983   2.436 -1.9481  0.0369 -1.0703
 5657SOL    HW224212   7.982   3.022   2.329  1.1619  0.5979  1.8521
 5658SOL     OW24213  11.078   1.513  12.624 -0.2795 -0.4387  0.7333
 5658SOL    HW124214  11.108   1.532  12.713 -1.1193 -0.3765  1.0135
 5658SOL    HW224215  11.145   1.550  12.568  0.3573 -0.6439  1.3450
 5659SOL     OW24216   9.726   2.820   2.011 -0.2765 -0.5319 -0.3009
 5659SOL    HW124217   9.818   2.802   2.031 -0.1715 -0.4832 -0.7337
 5659SOL    HW224218   9.726   2.851   1.921 -0.5176  1.1287  0.2360
 5660SOL     OW24219   8.684   2.109   6.517 -0.1513  0.2263 -0.2146
 5660SOL    HW124220   8.756   2.099   6.454  1.5857 -0.7202  1.7857
 5660SOL    HW224221   8.669   2.204   6.521  1.6831  0.5447  0.0143
 5661SOL     OW24222   7.443   8.793  11.307  0.2985  0.2504 -0.1651
 5661SOL    HW124223   7.376   8.860  11.296 -1.4752 -1.2790  0.9626
 5661SOL    HW224224   7.479   8.781  11.219 -3.3413 -1.3226 -1.6189
 5662SOL     OW24225   0.401   9.242   3.139 -0.6137 -0.4854 -0.2381
 5662SOL    HW124226   0.333   9.214   3.077 -0.7622  0.3907 -0.4852
 5662SOL    HW224227   0.483   9.229   3.092 -0.7363  0.3622 -0.7077
 5663SOL     OW24228  10.128  11.801   0.682  0.0997  0.5933 -0.0080
 5663SOL    HW124229  10.041  11.790   0.643 -0.0037  0.1669  0.3371
 5663SOL    HW224230  10.175  11.856   0.620 -0.4339  0.8710 -0.1726
 5664SOL     OW24231   7.397   0.235   4.805 -0.3968 -0.4179 -0.1998
 5664SOL    HW124232   7.432   0.272   4.723 -1.4847  0.9089 -0.1011
 5664SOL    HW224233   7.474   0.201   4.850  0.4854  0.4997 -0.9427
 5665SOL     OW24234   6.514   9.705  11.416 -0.0919 -0.0920 -0.0594
 5665SOL    HW124235   6.554   9.632  11.370  0.8483  0.6117 -0.3738
 5665SOL    HW224236   6.451   9.664  11.476  1.4017 -1.2399  0.7714
 5666SOL     OW24237   8.999   2.208   4.315  0.0445  0.1218 -0.4110
 5666SOL    HW124238   8.923   2.203   4.373 -0.2850 -0.3506 -0.8761
 5666SOL    HW224239   8.964   2.245   4.233  0.3853  0.2224 -0.5109
 5667SOL     OW24240  12.518   8.948   3.215  0.5353 -0.4290 -0.3435
 5667SOL    HW124241  12.506   8.919   3.125 -0.4821 -0.5704 -0.1752
 5667SOL    HW224242  12.446   8.906   3.263  1.7773 -1.3625  0.7743
 5668SOL     OW24243   3.222   5.953   8.959 -0.0710  0.8504 -0.0683
 5668SOL    HW124244   3.130   5.980   8.969 -0.0706  0.9194 -0.2451
 5668SOL    HW224245   3.230   5.930   8.866  0.5024  2.3896 -0.4256
 5669SOL     OW24246   8.730   2.915   2.778 -0.0767  0.5404  0.7597
 5669SOL    HW124247   8.791   2.919   2.852  1.6285  0.7362 -0.5985
 5669SOL    HW224248   8.784   2.887   2.704 -2.1890 -2.1143  0.0457
 5670SOL     OW24249   3.456   6.547   3.205 -0.4219  0.1859  0.2597
 5670SOL    HW124250   3.544   6.571   3.235 -0.3492 -0.4836  0.5898
 5670SOL    HW224251   3.413   6.631   3.190 -0.0155  0.5240  0.9424
 5671SOL     OW24252   4.422   3.319  11.055 -0.1257  0.0859  0.1166
 5671SOL    HW124253   4.333   3.351  11.044  0.0496  0.3476 -0.5691
 5671SOL    HW224254   4.431   3.248  10.991  0.6808  1.1695 -1.0289
 5672SOL     OW24255   7.319   9.194   3.350 -0.4976  0.5587 -0.0938
 5672SOL    HW124256   7.245   9.216   3.406 -0.8503 -0.0933 -0.2964
 5672SOL    HW224257   7.301   9.240   3.268 -1.2734 -0.5033 -0.5427
 5673SOL     OW24258  10.045   5.899   1.337  0.0053 -0.1463  0.2018
 5673SOL    HW124259  10.109   5.832   1.314  0.4109  0.6337 -1.0905
 5673SOL    HW224260  10.096   5.980   1.343 -0.5887  0.1901  0.9464
 5674SOL     OW24261   0.923  12.201   1.973 -0.0650  0.0970 -0.7273
 5674SOL    HW124262   0.848  12.149   1.944 -0.4021  0.5588 -0.7087
 5674SOL    HW224263   0.886  12.263   2.036  0.7977 -1.4030  1.3286
 5675SOL     OW24264   5.986   0.405  10.312  0.2181 -0.1661  0.4845
 5675SOL    HW124265   5.995   0.377  10.403 -0.3765 -0.9032  0.3324
 5675SOL    HW224266   5.991   0.323  10.262 -0.2305  0.1481 -0.0827
 5676SOL     OW24267   6.091   1.548   3.478  0.2332 -0.1806 -0.1301
 5676SOL    HW124268   6.139   1.631   3.483  1.5516 -0.9726  0.7674
 5676SOL    HW224269   6.026   1.563   3.410 -0.0914  1.8663  0.5409
 5677SOL     OW24270   5.939  11.146   0.627  0.5629  0.1163  0.0676
 5677SOL    HW124271   6.021  11.129   0.674  0.6264  1.0607  0.3313
 5677SOL    HW224272   5.948  11.098   0.545  1.1807 -0.1711  0.2972
 5678SOL     OW24273   2.594   6.640   4.565  0.4084 -0.3128 -0.1480
 5678SOL    HW124274   2.626   6.673   4.481  2.1916 -0.6405  0.3603
 5678SOL    HW224275   2.580   6.719   4.618 -1.1597 -0.0758 -0.8569
 5679SOL     OW24276  10.707   5.837   6.749 -0.3098  0.3108 -0.3721
 5679SOL    HW124277  10.752   5.757   6.775  2.4872  1.3973 -1.4440
 5679SOL    HW224278  10.715   5.895   6.825  0.8744  0.7723 -0.8282
 5680SOL     OW24279  12.221  12.224   4.698  0.1537  0.0747 -0.4309
 5680SOL    HW124280  12.228  12.318   4.710 -1.6144  0.1856  0.0745
 5680SOL    HW224281  12.143  12.212   4.644 -0.5375 -1.1314  0.7520
 5681SOL     OW24282  10.484   3.176   4.900 -0.4667 -0.3656  0.6589
 5681SOL    HW124283  10.545   3.105   4.882  0.0945  0.0370  0.9524
 5681SOL    HW224284  10.408   3.157   4.845  0.1023 -0.6339 -0.0436
 5682SOL     OW24285   7.296  11.644   9.217  0.2036  0.6188 -0.2912
 5682SOL    HW124286   7.210  11.685   9.215  0.0715  0.3343 -0.5828
 5682SOL    HW224287   7.357  11.717   9.205 -0.0054  0.7936 -0.3154
 5683SOL     OW24288   7.235   7.330   8.893  0.3379  0.2704  0.3022
 5683SOL    HW124289   7.153   7.328   8.944  0.9884  0.6139  1.4061
 5683SOL    HW224290   7.298   7.284   8.949  0.8420 -0.2366 -0.6648
 5684SOL     OW24291   8.668   6.606   8.726 -0.1367 -0.9677 -0.0294
 5684SOL    HW124292   8.593   6.664   8.740 -0.1071 -0.5580 -1.4567
 5684SOL    HW224293   8.743   6.658   8.753 -0.0719 -0.1574 -1.6899
 5685SOL     OW24294   6.151  12.489   1.265 -0.2329 -0.3948 -0.2068
 5685SOL    HW124295   6.204  12.536   1.329 -1.7376 -0.8963  1.4949
 5685SOL    HW224296   6.214  12.432   1.221  1.2923  1.7846 -1.0310
 5686SOL     OW24297   3.234   4.733   6.267  0.0116 -0.0570  0.5561
 5686SOL    HW124298   3.258   4.686   6.347  0.1410 -0.0225  0.5379
 5686SOL    HW224299   3.313   4.733   6.214 -0.6729 -2.0537 -0.5570
 5687SOL     OW24300   3.851   5.417   4.754  0.2071  0.8066  0.1225
 5687SOL    HW124301   3.832   5.341   4.807 -0.0050 -0.9406 -2.2820
 5687SOL    HW224302   3.765   5.453   4.730  0.2756  1.0907  0.3009
 5688SOL     OW24303   8.412   0.114  10.735  0.0446  1.0251 -0.0902
 5688SOL    HW124304   8.325   0.111  10.694  0.1484  1.1399 -0.3200
 5688SOL    HW224305   8.429   0.024  10.761  0.7852  0.5719 -2.0028
 5689SOL     OW24306   3.364  11.393   1.161 -0.6311 -0.2651  0.1894
 5689SOL    HW124307   3.406  11.373   1.077  2.4907  1.9197  1.0893
 5689SOL    HW224308   3.335  11.308   1.194  1.2109 -1.6454 -1.5204
 5690SOL     OW24309   1.316   2.681   6.702 -0.2012 -0.0446  0.3374
 5690SOL    HW124310   1.395   2.730   6.726 -0.5103  0.5775  0.0947
 5690SOL    HW224311   1.348   2.593   6.682  0.4372  0.2097  0.2087
 5691SOL     OW24312  12.064  12.615   0.133 -0.9089 -0.0141  0.4471
 5691SOL    HW124313  12.066  12.554   0.059  0.4933  1.5286 -0.8497
 5691SOL    HW224314  12.032  12.697   0.097 -2.5038  0.1592  2.1089
 5692SOL     OW24315   2.694   1.719   0.799 -0.5098  0.5020  0.1240
 5692SOL    HW124316   2.623   1.783   0.792 -0.2256  1.1539  2.4069
 5692SOL    HW224317   2.774   1.772   0.801  0.0141 -0.1704 -1.4866
 5693SOL     OW24318  11.422  10.654   0.867  0.1994  0.1398 -0.0899
 5693SOL    HW124319  11.363  10.685   0.937 -0.7345 -0.1729 -0.7185
 5693SOL    HW224320  11.498  10.621   0.914 -0.4158 -0.0742  0.7926
 5694SOL     OW24321  11.950   0.798   0.804  0.3125  0.1858  0.2403
 5694SOL    HW124322  11.948   0.795   0.709  1.1478  0.3037  0.2106
 5694SOL    HW224323  12.035   0.837   0.825 -0.5070  1.6481  1.0017
 5695SOL     OW24324   0.895   0.733  11.000 -0.7759 -0.2348 -0.8757
 5695SOL    HW124325   0.818   0.711  11.053 -0.6689 -0.4658 -0.8144
 5695SOL    HW224326   0.868   0.713  10.910 -1.2678  0.9979 -1.0234
 5696SOL     OW24327   7.622   4.235  10.186  0.0623 -0.5289  0.4699
 5696SOL    HW124328   7.537   4.193  10.198 -0.3016 -0.4756 -1.5310
 5696SOL    HW224329   7.635   4.236  10.091 -0.0018  3.9464  0.3374
 5697SOL     OW24330   0.260   6.120   6.111  0.1132  0.0685 -0.1225
 5697SOL    HW124331   0.246   6.210   6.140  1.7849  0.2418  0.2517
 5697SOL    HW224332   0.233   6.121   6.019 -0.0593  0.9053 -0.0772
 5698SOL     OW24333   1.124   7.916   9.722  0.0524 -0.3289  0.4371
 5698SOL    HW124334   1.202   7.885   9.767 -0.7891 -2.1292  0.7933
 5698SOL    HW224335   1.119   7.861   9.643 -0.0036  0.8724 -0.4234
 5699SOL     OW24336   5.364   2.510   9.289  0.3392 -0.1466  0.3940
 5699SOL    HW124337   5.279   2.527   9.247  0.4074 -0.6952  0.0158
 5699SOL    HW224338   5.376   2.582   9.350  0.3780  0.8566 -0.7697
 5700SOL     OW24339  10.913   0.350   8.007  0.8688  0.0380 -0.3637
 5700SOL    HW124340  10.974   0.341   7.934  0.6070 -0.0825 -0.5709
 5700SOL    HW224341  10.951   0.418   8.062  0.7061  0.6542 -0.9904
 5701SOL     OW24342   8.056   1.009   7.122  0.1327  0.4881  0.9681
 5701SOL    HW124343   8.107   0.968   7.192  1.0597 -0.2293 -0.0906
 5701SOL    HW224344   7.965   1.000   7.150  0.5053  0.7380  2.3440
 5702SOL     OW24345  10.261  10.229   8.971 -0.2365 -0.3267 -0.1397
 5702SOL    HW124346  10.234  10.198   8.884  1.6628  0.4421 -1.0591
 5702SOL    HW224347  10.356  10.218   8.971 -0.3505 -2.3471  2.7029
 5703SOL     OW24348   2.762   9.095   1.212  0.3770 -0.1435 -0.5210
 5703SOL    HW124349   2.851   9.103   1.246 -0.0953  1.6781  0.4012
 5703SOL    HW224350   2.706   9.116   1.287 -0.8163 -0.5241 -1.2829
 5704SOL     OW24351   4.127   8.662   4.834  0.5891 -0.2087  0.2047
 5704SOL    HW124352   4.065   8.734   4.844 -1.2937 -1.3218 -2.2368
 5704SOL    HW224353   4.104   8.601   4.904 -1.2764 -0.6465 -0.7109
 5705SOL     OW24354   0.561   4.677   5.992 -0.3331  0.2875  0.0604
 5705SOL    HW124355   0.610   4.734   5.933 -0.0453  0.3730  0.3786
 5705SOL    HW224356   0.499   4.735   6.036 -1.5207 -0.0027 -1.1597
 5706SOL     OW24357   1.287  12.384   0.379 -0.0691 -0.2383 -0.4514
 5706SOL    HW124358   1.214  12.390   0.317 -0.4667  0.2945  0.0537
 5706SOL    HW224359   1.307  12.291   0.385  0.0922 -0.2841 -1.5123
 5707SOL     OW24360   9.271  11.438   1.027  0.1882  0.1505 -0.0336
 5707SOL    HW124361   9.355  11.480   1.008  0.5784 -0.4989  0.2199
 5707SOL    HW224362   9.220  11.449   0.947 -0.2947  2.4237  0.5031
 5708SOL     OW24363   5.923   9.593  10.978  0.5525 -0.1109  0.3285
 5708SOL    HW124364   5.841   9.618  11.021 -1.8683 -3.7973 -1.5704
 5708SOL    HW224365   5.946   9.509  11.019  2.4767  0.0398 -0.3502
 5709SOL     OW24366   8.398   7.732   7.574 -0.3045  0.0985  0.2438
 5709SOL    HW124367   8.427   7.702   7.488  1.6316 -1.0398  1.2381
 5709SOL    HW224368   8.377   7.825   7.561 -0.3678 -0.1314 -1.5061
 5710SOL     OW24369   1.843   9.823   4.224 -0.1804  0.3680 -0.6692
 5710SOL    HW124370   1.748   9.825   4.218 -0.2459  1.9589  0.3473
 5710SOL    HW224371   1.869   9.915   4.223  1.3489 -0.0359 -0.8224
 5711SOL     OW24372   6.686  11.979  12.269 -0.5010  0.6667  0.3586
 5711SOL    HW124373   6.692  12.012  12.179 -0.4686  2.4993  1.0049
 5711SOL    HW224374   6.617  12.031  12.310  0.2910  0.6837  1.7315
 5712SOL     OW24375   0.948   5.905  11.545  0.0484 -0.1346 -0.1348
 5712SOL    HW124376   1.006   5.970  11.584  1.1189 -1.8514  1.3053
 5712SOL    HW224377   1.006   5.848  11.494 -0.4921 -1.3150  0.5266
 5713SOL     OW24378  12.129   2.069  11.691  0.1363  0.2443 -0.6829
 5713SOL    HW124379  12.116   2.087  11.598 -1.7316  1.8869 -0.1556
 5713SOL    HW224380  12.060   2.007  11.713  1.5437 -1.4038 -0.6731
 5714SOL     OW24381  12.647   8.422  10.241 -0.1161  0.2956 -0.0714
 5714SOL    HW124382  12.711   8.491  10.261 -1.0815  1.2787 -0.2431
 5714SOL    HW224383  12.589   8.462  10.176 -1.0528 -0.4833  0.2612
 5715SOL     OW24384   8.635   4.392   1.262 -0.3197  0.1708 -0.4128
 5715SOL    HW124385   8.595   4.413   1.177 -0.5091  0.9064 -0.1497
 5715SOL    HW224386   8.563   4.365   1.317 -0.2198 -0.1456 -0.4380
 5716SOL     OW24387   7.675   7.717  10.134 -0.1713  0.4321 -0.3805
 5716SOL    HW124388   7.708   7.786  10.076 -0.4404 -0.6018 -1.8296
 5716SOL    HW224389   7.711   7.636  10.098 -1.9446 -0.4444 -0.3149
 5717SOL     OW24390  12.223   0.608   0.690 -0.3527  0.1948 -0.1905
 5717SOL    HW124391  12.285   0.630   0.760  1.5223 -1.5809 -1.1969
 5717SOL    HW224392  12.209   0.692   0.645  1.8963  0.5607 -0.3411
 5718SOL     OW24393   1.608   5.419   7.242  0.0808 -0.1456 -0.0585
 5718SOL    HW124394   1.516   5.428   7.267  0.1711  0.0833  0.1900
 5718SOL    HW224395   1.607   5.427   7.146 -0.7111 -4.5728 -0.6442
 5719SOL     OW24396  12.269   8.787   1.470  0.6865  0.4073 -0.2122
 5719SOL    HW124397  12.192   8.834   1.438  0.3969  0.3942  0.4383
 5719SOL    HW224398  12.323   8.855   1.510  1.1182  0.4485 -0.8511
 5720SOL     OW24399   9.513  12.665   4.847  0.2528 -0.2064 -0.6919
 5720SOL    HW124400   9.480  12.753   4.860 -2.0610 -1.3062  1.8996
 5720SOL    HW224401   9.437  12.614   4.819  0.7813 -1.8981  0.7527
 5721SOL     OW24402  11.545  11.820  11.535 -0.7621 -0.0960  0.1207
 5721SOL    HW124403  11.560  11.809  11.629  1.0294 -0.4691 -0.1766
 5721SOL    HW224404  11.575  11.738  11.496 -0.8410  0.3133 -0.8338
 5722SOL     OW24405  10.289   7.215  12.473 -0.5374 -0.0697  0.3581
 5722SOL    HW124406  10.311   7.211  12.380  4.0371  1.8567  1.0600
 5722SOL    HW224407  10.282   7.308  12.493 -3.2631 -0.4539  1.7557
 5723SOL     OW24408   0.255   1.006   2.166  0.1778 -0.1949 -0.0749
 5723SOL    HW124409   0.174   1.018   2.116 -0.0369 -0.0130  0.3135
 5723SOL    HW224410   0.280   0.915   2.150 -0.0749 -0.2357 -0.2401
 5724SOL     OW24411   0.306   8.742   0.376 -0.3095 -0.0222  0.6353
 5724SOL    HW124412   0.218   8.766   0.349 -1.1079 -2.1282  1.2202
 5724SOL    HW224413   0.339   8.686   0.305 -0.0378 -0.5039  1.1330
 5725SOL     OW24414   0.330  12.239   6.062 -0.3958 -0.4209 -0.2404
 5725SOL    HW124415   0.257  12.181   6.043 -2.6085  2.4762 -1.3789
 5725SOL    HW224416   0.372  12.255   5.977 -0.4195  0.3510 -0.1173
 5726SOL     OW24417   3.812  12.430   3.470 -0.1960  0.1817 -0.4186
 5726SOL    HW124418   3.902  12.422   3.438  0.3475  0.7407  0.8737
 5726SOL    HW224419   3.793  12.346   3.512 -0.2101  0.1204 -0.5492
 5727SOL     OW24420   3.932   8.334   9.015  0.0992 -0.4291 -0.5723
 5727SOL    HW124421   4.018   8.376   9.024 -0.3450  1.2022 -3.0522
 5727SOL    HW224422   3.927   8.275   9.091  1.9249  1.9716  1.6152
 5728SOL     OW24423  10.458   5.825   2.193  0.4432 -0.1245 -0.8737
 5728SOL    HW124424  10.512   5.753   2.228 -0.8017 -0.6023  0.1211
 5728SOL    HW224425  10.403   5.783   2.126  0.0814  0.0023 -0.6566
 5729SOL     OW24426   2.145   6.396   3.774  0.0698  0.0379  0.1934
 5729SOL    HW124427   2.195   6.464   3.821 -0.4716 -1.4498  3.1318
 5729SOL    HW224428   2.056   6.403   3.809 -0.6575 -0.4349 -1.4902
 5730SOL     OW24429   5.724   0.745  10.997  0.1366  0.3053 -0.2275
 5730SOL    HW124430   5.806   0.785  10.967 -0.2363  0.1067 -1.6075
 5730SOL    HW224431   5.690   0.807  11.061  1.4014  0.3428  0.4435
 5731SOL     OW24432   3.412   6.912  11.751  0.2751  0.9341  0.1652
 5731SOL    HW124433   3.372   6.978  11.808  0.6594 -0.4891  2.1795
 5731SOL    HW224434   3.356   6.835  11.762  2.4163 -0.5035  1.5273
 5732SOL     OW24435  10.430  12.229   4.843 -0.6484  0.2476  0.1742
 5732SOL    HW124436  10.339  12.258   4.842 -1.2502 -1.5030  0.4916
 5732SOL    HW224437  10.475  12.288   4.783 -2.4158 -0.1100 -1.6168
 5733SOL     OW24438   8.706   1.722   8.136 -0.1169 -0.2979  0.6144
 5733SOL    HW124439   8.666   1.635   8.141 -2.3884  0.6827  0.9097
 5733SOL    HW224440   8.675   1.757   8.052  2.9354 -0.6966 -0.8007
 5734SOL     OW24441   0.682   6.783   6.752  0.2108 -0.2570  0.4740
 5734SOL    HW124442   0.746   6.740   6.808  0.5687 -0.0877  0.1952
 5734SOL    HW224443   0.729   6.857   6.713 -0.2101 -0.0023  0.4353
 5735SOL     OW24444   5.904  12.009   9.872  0.1789 -0.0254  0.2649
 5735SOL    HW124445   5.979  11.986   9.926  0.3140  1.6929  0.8901
 5735SOL    HW224446   5.828  11.982   9.923  0.2818 -3.2857 -1.0754
 5736SOL     OW24447   2.433   3.179   2.236  0.3255  0.0553  0.6128
 5736SOL    HW124448   2.460   3.088   2.229 -0.6524 -0.2147  0.2382
 5736SOL    HW224449   2.350   3.184   2.189  1.0098  1.4294 -0.5289
 5737SOL     OW24450   4.659  10.611  10.286 -0.8475  0.6262  0.0394
 5737SOL    HW124451   4.683  10.532  10.239 -0.2751 -0.1259  1.5397
 5737SOL    HW224452   4.594  10.654  10.230  0.4629  0.2609 -1.8522
 5738SOL     OW24453   9.754   2.020   4.146  0.5383 -0.1005 -0.6805
 5738SOL    HW124454   9.703   1.970   4.082 -2.6222  0.8374  0.9130
 5738SOL    HW224455   9.776   2.101   4.102 -1.2845  0.3820 -0.7720
 5739SOL     OW24456   5.821   7.815   2.475 -0.8309 -0.4831 -0.0959
 5739SOL    HW124457   5.758   7.873   2.432  1.1183  0.3657 -2.0341
 5739SOL    HW224458   5.880   7.874   2.521  0.3188 -0.9810 -0.8832
 5740SOL     OW24459   4.923  10.718  10.329 -0.4778  0.3058  0.0279
 5740SOL    HW124460   4.968  10.729  10.245  0.6107 -0.2557  0.5195
 5740SOL    HW224461   4.833  10.695  10.305 -0.0894 -0.1937 -0.9858
 5741SOL     OW24462  11.356  10.075   9.214  0.2141 -0.7307  0.1472
 5741SOL    HW124463  11.371  10.102   9.123  2.0151 -1.8332  0.0653
 5741SOL    HW224464  11.431  10.109   9.262 -0.6383 -0.3093  1.2048
 5742SOL     OW24465   4.451  10.621  12.398  0.3291 -0.0305 -0.7025
 5742SOL    HW124466   4.398  10.569  12.459  1.1053 -1.7293 -1.3984
 5742SOL    HW224467   4.540  10.587  12.410  1.2477  2.4812  0.1456
 5743SOL     OW24468   6.416   1.113   0.382 -0.7338 -0.2882 -0.3523
 5743SOL    HW124469   6.468   1.183   0.342  0.6720 -0.7125  0.6656
 5743SOL    HW224470   6.451   1.033   0.343 -0.0838 -0.6311  0.9141
 5744SOL     OW24471   7.027  11.691   0.959  0.4766 -0.0087  0.2460
 5744SOL    HW124472   7.114  11.678   0.995  0.0735 -1.5581  0.7750
 5744SOL    HW224473   6.995  11.602   0.942 -1.3203  0.4655  0.8988
 5745SOL     OW24474   3.424   3.256   6.803 -0.3508 -0.0103 -0.1453
 5745SOL    HW124475   3.351   3.227   6.748  0.9329  0.9818 -2.5150
 5745SOL    HW224476   3.445   3.343   6.770  0.2765  0.8021  2.2244
 5746SOL     OW24477   4.627   8.982   7.225 -0.1610  0.8047  0.5569
 5746SOL    HW124478   4.683   9.032   7.167 -0.7403 -0.2829 -1.0269
 5746SOL    HW224479   4.568   9.047   7.264  0.9756  1.6991  0.8186
 5747SOL     OW24480   6.723   4.020   1.770 -0.1311 -0.2403  0.4228
 5747SOL    HW124481   6.716   4.042   1.677  0.7307 -0.6395  0.2526
 5747SOL    HW224482   6.805   3.971   1.777  1.9130  3.0798  2.0340
 5748SOL     OW24483   8.568   6.632   3.662  0.3545  0.3913 -0.6650
 5748SOL    HW124484   8.572   6.590   3.747  0.6851 -0.6428 -1.1713
 5748SOL    HW224485   8.490   6.687   3.664 -0.5103 -0.8400 -0.2492
 5749SOL     OW24486   6.572  12.309   3.626  0.0685 -0.0770 -0.2429
 5749SOL    HW124487   6.521  12.247   3.574 -1.7253 -0.1871  1.5278
 5749SOL    HW224488   6.661  12.274   3.624 -0.4490 -1.4292 -1.1605
 5750SOL     OW24489  10.989   1.128   8.010  0.6229  0.6781 -0.2313
 5750SOL    HW124490  10.911   1.102   7.961  0.1050  0.3479  0.7315
 5750SOL    HW224491  10.963   1.210   8.054  0.7895  0.5249  0.1562
 5751SOL     OW24492   9.572  12.206   5.408 -0.4276 -0.6258 -0.0148
 5751SOL    HW124493   9.621  12.262   5.348 -0.9340  0.1429  0.2719
 5751SOL    HW224494   9.629  12.198   5.485  0.0307 -1.2489 -0.4129
 5752SOL     OW24495   5.754   8.408   0.461  0.1500  0.4730 -0.2286
 5752SOL    HW124496   5.683   8.407   0.525 -0.4680 -0.5047 -0.8979
 5752SOL    HW224497   5.834   8.405   0.514 -0.2868  1.5241  0.5329
 5753SOL     OW24498   6.898   7.618   4.971 -0.0394  0.1554 -0.4657
 5753SOL    HW124499   6.881   7.711   4.987 -0.9574  0.2722 -1.8978
 5753SOL    HW224500   6.993   7.613   4.963  0.0028  1.0457 -0.6743
 5754SOL     OW24501   5.518   4.458   5.884  0.1129 -0.4021  0.5204
 5754SOL    HW124502   5.517   4.482   5.791 -0.3782 -0.0207  0.6257
 5754SOL    HW224503   5.462   4.522   5.926 -1.1456 -1.6627  0.8193
 5755SOL     OW24504  11.217   7.559   6.610  0.3268  0.1607 -0.0895
 5755SOL    HW124505  11.191   7.482   6.561 -1.6309  0.4038  0.4861
 5755SOL    HW224506  11.211   7.631   6.547 -0.0062  0.1547 -0.0659
 5756SOL     OW24507   9.642   9.801   9.986 -0.0433  0.3787  0.0406
 5756SOL    HW124508   9.730   9.789  10.023  1.4382  1.8737 -2.7172
 5756SOL    HW224509   9.610   9.712   9.971  0.8121 -0.1954  1.4413
 5757SOL     OW24510   5.665   8.582  11.213  0.0321  0.2047  0.0451
 5757SOL    HW124511   5.635   8.573  11.122 -0.2165  0.3622  0.1085
 5757SOL    HW224512   5.760   8.585  11.207  0.0589 -0.7194 -0.1271
 5758SOL     OW24513   1.443   6.017   4.690 -0.2251  0.4499  0.0340
 5758SOL    HW124514   1.380   6.090   4.689 -1.2708 -0.3400 -3.1003
 5758SOL    HW224515   1.526   6.057   4.665 -0.6476  0.7574 -0.9684
 5759SOL     OW24516  11.894   4.659   7.801  0.5516 -0.0418  0.0916
 5759SOL    HW124517  11.917   4.673   7.893  1.4808  1.3203 -0.3170
 5759SOL    HW224518  11.800   4.641   7.803  0.1785  1.7698  1.1593
 5760SOL     OW24519  10.175   5.614   9.206 -0.2569 -0.5033 -0.5453
 5760SOL    HW124520  10.104   5.573   9.255  1.3505 -2.0182  0.6333
 5760SOL    HW224521  10.146   5.705   9.195 -2.2118 -0.9751  0.1644
 5761SOL     OW24522   0.513   9.078   0.375 -0.0964 -0.1586 -0.0045
 5761SOL    HW124523   0.547   9.119   0.454 -1.3129 -0.7830  0.8799
 5761SOL    HW224524   0.424   9.052   0.398 -1.5405  2.1120 -2.4149
 5762SOL     OW24525   8.801   7.388   0.395  0.4255  0.3977  0.6526
 5762SOL    HW124526   8.736   7.422   0.457  2.6852  2.1960  2.2233
 5762SOL    HW224527   8.885   7.409   0.436  2.0290 -2.0839 -1.1291
 5763SOL     OW24528   4.237   9.605   4.377  0.2695 -0.5494 -0.1450
 5763SOL    HW124529   4.185   9.629   4.300 -1.2787  0.9693  1.2806
 5763SOL    HW224530   4.270   9.688   4.411  1.1143 -1.2122  0.7208
 5764SOL     OW24531   3.500   0.880   6.943 -0.2037 -0.0605 -0.3487
 5764SOL    HW124532   3.509   0.961   6.893  3.1882  0.8126  1.4200
 5764SOL    HW224533   3.563   0.820   6.902 -0.0871 -0.5854  0.5783
 5765SOL     OW24534   7.922  11.506  12.536  0.0600  0.2383 -0.0182
 5765SOL    HW124535   7.950  11.597  12.544 -1.7011  1.2371 -3.2243
 5765SOL    HW224536   7.966  11.460  12.608 -0.2500  3.8515  2.7504
 5766SOL     OW24537   9.532   8.702   7.890  0.0649 -0.0590 -0.0858
 5766SOL    HW124538   9.561   8.759   7.819 -0.0355 -0.0468 -0.1179
 5766SOL    HW224539   9.612   8.667   7.928  0.1584  0.6968  0.4249
 5767SOL     OW24540   8.047   5.030   5.700  0.0244 -0.3297 -0.5065
 5767SOL    HW124541   8.129   5.058   5.741  0.1783 -1.1146 -0.2522
 5767SOL    HW224542   8.042   4.936   5.719 -0.4685 -0.4797 -1.3188
 5768SOL     OW24543   6.090   1.640   9.647 -0.8300  0.0986  0.5638
 5768SOL    HW124544   6.069   1.728   9.616  1.8140  0.7582  0.4000
 5768SOL    HW224545   6.009   1.608   9.686 -1.4690  3.2723  2.1763
 5769SOL     OW24546  11.166   9.400   0.488  0.2515 -0.3106 -0.4179
 5769SOL    HW124547  11.078   9.373   0.461  0.3156 -1.2882  0.2816
 5769SOL    HW224548  11.205   9.439   0.410 -0.5732 -0.4701 -0.9164
 5770SOL     OW24549   8.132   7.102   5.314  0.3032  0.0642 -0.0834
 5770SOL    HW124550   8.064   7.091   5.380  0.5712 -0.4888  0.1037
 5770SOL    HW224551   8.199   7.038   5.338 -0.5387 -1.7107 -2.1166
 5771SOL     OW24552   9.869   2.426   4.416 -0.3416 -0.1049  0.4579
 5771SOL    HW124553   9.940   2.417   4.353 -0.6043 -0.2637  0.1815
 5771SOL    HW224554   9.836   2.337   4.428 -0.5782 -0.0145  0.4853
 5772SOL     OW24555   7.014   1.807   2.033  0.4704  0.0655 -0.6669
 5772SOL    HW124556   7.035   1.725   1.988 -0.6575 -0.5682 -0.1096
 5772SOL    HW224557   7.044   1.876   1.974  0.1733 -0.7459 -1.8056
 5773SOL     OW24558   3.720   6.875   6.648  0.0804 -0.2329  0.5052
 5773SOL    HW124559   3.809   6.908   6.633 -0.0512  0.7226  1.7100
 5773SOL    HW224560   3.729   6.816   6.722 -0.1416 -0.8609  0.0356
 5774SOL     OW24561   7.855  12.394   3.021  0.1680  0.3503  0.1414
 5774SOL    HW124562   7.920  12.464   3.009  0.0577  0.8510  2.1152
 5774SOL    HW224563   7.875  12.358   3.108 -1.8553  0.1614  0.5695
 5775SOL     OW24564  12.451  10.138   3.613  0.3992 -0.5046  0.0737
 5775SOL    HW124565  12.372  10.094   3.580 -0.3442  0.5906  0.3442
 5775SOL    HW224566  12.428  10.167   3.701  1.1598 -0.3100  0.2189
 5776SOL     OW24567   2.349   7.545   9.418 -0.4916  0.2527 -0.2512
 5776SOL    HW124568   2.284   7.481   9.447  0.3517 -0.6577 -0.2982
 5776SOL    HW224569   2.299   7.612   9.372 -1.3503 -0.6264 -0.6233
 5777SOL     OW24570   3.333   3.262  10.326  0.3641 -0.3212  0.4523
 5777SOL    HW124571   3.308   3.247  10.235  0.2095 -0.4286  0.5126
 5777SOL    HW224572   3.414   3.212  10.337  1.6526  1.4768 -0.2643
 5778SOL     OW24573   1.413   4.933   7.464 -0.3183 -0.2402 -0.3512
 5778SOL    HW124574   1.364   4.873   7.520  0.4394  0.5959  1.2701
 5778SOL    HW224575   1.503   4.928   7.495  0.4020 -0.6804 -2.3410
 5779SOL     OW24576   5.468   5.723   5.538  0.2567  0.0601  0.3715
 5779SOL    HW124577   5.428   5.637   5.524  1.3139 -0.4319  0.2618
 5779SOL    HW224578   5.396   5.779   5.566 -0.5412 -0.7429 -0.0171
 5780SOL     OW24579   0.387  11.528   5.338  0.1322 -0.0439  1.0372
 5780SOL    HW124580   0.345  11.498   5.258 -0.1186 -0.4855  1.3272
 5780SOL    HW224581   0.314  11.555   5.395  0.3382  0.9049  0.8725
 5781SOL     OW24582   1.310   7.295   3.533 -0.3415 -1.8357  0.6756
 5781SOL    HW124583   1.390   7.255   3.500 -0.1431 -0.4123 -0.7112
 5781SOL    HW224584   1.334   7.331   3.618  1.0086 -0.0181 -0.4054
 5782SOL     OW24585  11.112   4.546  11.388 -0.5064  0.4092  0.6016
 5782SOL    HW124586  11.025   4.526  11.353  0.2427  0.2727 -1.3038
 5782SOL    HW224587  11.163   4.467  11.372 -0.6246 -0.5634  4.1343
 5783SOL     OW24588   9.416   3.542   9.466 -0.6913 -0.6139 -0.2411
 5783SOL    HW124589   9.458   3.595   9.533 -0.8951 -0.0240 -0.5744
 5783SOL    HW224590   9.334   3.513   9.506 -1.5080  0.9310 -0.7154
 5784SOL     OW24591  10.142   3.434   2.542 -1.0265  0.2736 -0.1971
 5784SOL    HW124592  10.121   3.396   2.627  1.3133  1.8848  1.2397
 5784SOL    HW224593  10.205   3.373   2.504 -4.9620 -2.5636 -2.7659
 5785SOL     OW24594   4.950   5.398   5.909 -0.2611 -0.6074  0.7363
 5785SOL    HW124595   4.963   5.484   5.951  0.0992 -0.1687 -0.2487
 5785SOL    HW224596   5.020   5.393   5.843  1.1345 -2.6050  2.2402
 5786SOL     OW24597   6.009   3.357  10.225  0.0958  0.1743  0.4345
 5786SOL    HW124598   5.934   3.303  10.249 -0.3555  0.6524  0.1232
 5786SOL    HW224599   5.997   3.374  10.131 -0.3394  1.6776  0.7402
 5787SOL     OW24600  11.945   2.677  10.307  0.0527  0.2552  0.2931
 5787SOL    HW124601  11.903   2.620  10.243  0.2549 -0.4920  0.8221
 5787SOL    HW224602  11.873   2.715  10.357 -0.1564  1.4087 -0.8173
 5788SOL     OW24603   5.271   0.473  12.048  0.2731 -0.3250  0.1384
 5788SOL    HW124604   5.347   0.520  12.012 -0.8462  1.0639 -0.4976
 5788SOL    HW224605   5.264   0.504  12.138 -0.7021  1.0732 -0.4006
 5789SOL     OW24606   2.214   2.808   1.423  0.1875  0.0371  0.3158
 5789SOL    HW124607   2.233   2.824   1.330  0.1032  0.1283  0.3138
 5789SOL    HW224608   2.241   2.717   1.438  0.3136  0.0607  0.2320
 5790SOL     OW24609   8.733   7.366   7.865 -0.8779 -0.1259 -0.1024
 5790SOL    HW124610   8.645   7.339   7.891 -1.3909  0.8968 -0.6991
 5790SOL    HW224611   8.743   7.334   7.776 -0.8975  0.3221 -0.2671
 5791SOL     OW24612  10.085   5.718   6.185 -0.3365  0.3833 -0.7424
 5791SOL    HW124613  10.041   5.695   6.103 -0.2885 -1.0319 -0.4056
 5791SOL    HW224614  10.102   5.634   6.227  0.4784  1.0378  0.2910
 5792SOL     OW24615  11.744   2.689   9.059 -0.5538  0.6695  0.8265
 5792SOL    HW124616  11.756   2.664   8.967 -0.7045 -0.8141  1.1954
 5792SOL    HW224617  11.651   2.674   9.076  0.0293 -2.1126  2.0474
 5793SOL     OW24618   6.092   4.692  10.510 -0.4964 -0.0515 -0.5222
 5793SOL    HW124619   6.013   4.699  10.564 -1.2616  2.1467 -1.7948
 5793SOL    HW224620   6.159   4.659  10.570 -1.5031  1.4435  1.5698
 5794SOL     OW24621   2.103   6.332   9.243 -0.2861 -0.2882 -0.5563
 5794SOL    HW124622   2.127   6.301   9.156 -0.5193  0.3847 -0.8656
 5794SOL    HW224623   2.097   6.427   9.234  0.2512 -0.1593  0.3381
 5795SOL     OW24624   8.032  10.868   0.419 -0.0153 -0.3531  0.1600
 5795SOL    HW124625   8.025  10.955   0.380  0.2740 -0.4001 -0.0021
 5795SOL    HW224626   7.970  10.869   0.492  1.9762  0.9342  1.9540
 5796SOL     OW24627   9.158   2.514   7.632 -0.6107 -0.4062  0.5335
 5796SOL    HW124628   9.072   2.509   7.591 -0.6017  1.1172  0.2935
 5796SOL    HW224629   9.154   2.590   7.689  0.8358  0.1894 -0.1080
 5797SOL     OW24630   8.105   4.443   5.929 -0.0803  0.0639  0.3103
 5797SOL    HW124631   8.149   4.410   5.851 -0.5563  0.8501 -0.3091
 5797SOL    HW224632   8.172   4.493   5.975 -0.4920  2.0414 -1.1057
 5798SOL     OW24633   8.701  12.635   0.513 -0.2878 -0.0563  0.5130
 5798SOL    HW124634   8.687  12.660   0.422  2.6855 -0.2683 -0.1151
 5798SOL    HW224635   8.711  12.719   0.560  1.1000  0.0736  0.0360
 5799SOL     OW24636   2.149   7.286   3.972  0.5407  0.1337  0.2094
 5799SOL    HW124637   2.120   7.349   3.906  2.9126  1.3396  0.2243
 5799SOL    HW224638   2.068   7.249   4.007 -0.8562  1.5455 -1.3607
 5800SOL     OW24639   0.204   3.047   0.637 -0.6011 -0.7696 -0.0348
 5800SOL    HW124640   0.128   3.070   0.690  0.8330 -1.3811  2.4835
 5800SOL    HW224641   0.274   3.103   0.671  0.3859 -1.1535 -1.3675
 5801SOL     OW24642  11.164   2.984   0.634 -0.2468 -0.2778  0.1935
 5801SOL    HW124643  11.248   2.944   0.658  0.8370  0.3269 -2.2878
 5801SOL    HW224644  11.187   3.073   0.606 -1.7436 -0.0751 -0.4673
 5802SOL     OW24645   2.281  10.915   5.337  0.2981  0.2812 -0.1572
 5802SOL    HW124646   2.377  10.921   5.346  0.0859  1.9271  1.6006
 5802SOL    HW224647   2.267  10.834   5.288  2.5483 -0.5810  0.4892
 5803SOL     OW24648   7.727   7.606   2.972  0.0974 -0.9013 -0.2409
 5803SOL    HW124649   7.723   7.560   3.056 -0.1245 -0.1412  0.1803
 5803SOL    HW224650   7.820   7.610   2.952  0.3360  0.5582  0.9363
 5804SOL     OW24651   9.420   2.238  10.592  0.4008  0.3522 -0.2083
 5804SOL    HW124652   9.498   2.182  10.584  0.4473  0.4976 -0.8931
 5804SOL    HW224653   9.396   2.233  10.684 -0.0087 -1.3543 -0.3827
 5805SOL     OW24654   9.717   1.570  11.484  0.6795  0.8982  0.3160
 5805SOL    HW124655   9.692   1.482  11.459 -0.8081  1.6722 -1.0812
 5805SOL    HW224656   9.813   1.569  11.485  0.6781 -0.9025  1.0861
 5806SOL     OW24657  11.455   2.680   6.248  0.3235  0.5497 -0.3472
 5806SOL    HW124658  11.431   2.753   6.305  1.8239  0.6458  0.1950
 5806SOL    HW224659  11.379   2.668   6.191 -0.8141  1.1041  1.0064
 5807SOL     OW24660   7.394   6.571   6.346  0.1498  0.4836  0.3190
 5807SOL    HW124661   7.399   6.505   6.276 -0.7704 -0.9109  1.4930
 5807SOL    HW224662   7.484   6.602   6.357  0.3303  0.6364 -1.3662
 5808SOL     OW24663   7.798   6.788   0.232 -0.0292 -0.5993 -0.6851
 5808SOL    HW124664   7.766   6.699   0.217 -0.5889 -0.4461 -0.4442
 5808SOL    HW224665   7.888   6.787   0.200  0.0869 -1.3505 -0.3517
 5809SOL     OW24666  10.429   1.270   0.258  0.5042 -0.0861  0.0856
 5809SOL    HW124667  10.500   1.213   0.226  2.6529  1.3043  2.0477
 5809SOL    HW224668  10.467   1.316   0.333 -1.7156  2.5795 -0.2654
 5810SOL     OW24669   8.638   3.991  11.907  0.3788  0.2338  0.6772
 5810SOL    HW124670   8.552   4.030  11.890  0.5273  0.5095  0.5281
 5810SOL    HW224671   8.697   4.040  11.849  0.5237 -0.4254  0.2679
 5811SOL     OW24672   1.949  10.300   0.361  0.4673 -0.3411  0.1970
 5811SOL    HW124673   1.889  10.297   0.286  1.1007  4.1056 -0.7547
 5811SOL    HW224674   1.891  10.317   0.436  0.1581 -0.9336  0.0999
 5812SOL     OW24675   3.070  12.422  12.294 -0.3925 -0.3614 -0.9200
 5812SOL    HW124676   2.995  12.379  12.335  0.4540 -1.6345 -0.6382
 5812SOL    HW224677   3.058  12.406  12.200 -0.7689 -0.0573 -0.9250
 5813SOL     OW24678   2.777   5.177  11.087  0.0706  0.2100  0.3358
 5813SOL    HW124679   2.808   5.258  11.046  0.5891  0.8784  1.9421
 5813SOL    HW224680   2.693   5.201  11.126  0.0128 -0.1546  0.4339
 5814SOL     OW24681   4.573   9.500   6.259  0.3193  0.0323  0.0867
 5814SOL    HW124682   4.578   9.432   6.327  0.5630 -0.3060 -0.2665
 5814SOL    HW224683   4.663   9.528   6.246  0.6032 -1.4575 -1.6388
 5815SOL     OW24684   2.279   2.148   0.859 -0.1201  0.0447 -0.4472
 5815SOL    HW124685   2.248   2.183   0.775 -0.7369 -1.4043 -0.8478
 5815SOL    HW224686   2.371   2.127   0.843 -0.1162  0.1922 -0.6255
 5816SOL     OW24687   2.795   5.308   7.772  0.5361 -0.1264  0.5841
 5816SOL    HW124688   2.810   5.403   7.778  2.1669 -0.2285 -1.0815
 5816SOL    HW224689   2.814   5.275   7.860  0.5781  1.0077  1.0158
 5817SOL     OW24690   2.824   4.282   3.630  0.3953  0.6281 -0.4806
 5817SOL    HW124691   2.839   4.306   3.538  2.4309  0.2174 -0.3143
 5817SOL    HW224692   2.824   4.366   3.676 -2.5388  1.0226 -0.9910
 5818SOL     OW24693   9.662   9.819   3.814  0.0076  0.1629 -0.3663
 5818SOL    HW124694   9.617   9.842   3.896 -0.5946 -1.3732 -0.2345
 5818SOL    HW224695   9.601   9.760   3.770  0.0540  1.4574 -2.2434
 5819SOL     OW24696   7.997   6.884  11.849 -0.1207 -0.1025  0.2100
 5819SOL    HW124697   7.948   6.819  11.899  1.4831 -2.0347 -0.6130
 5819SOL    HW224698   8.029   6.837  11.772 -0.2773  2.0968 -1.3116
 5820SOL     OW24699   3.456  11.833   2.328 -0.1367  0.1836  0.0870
 5820SOL    HW124700   3.392  11.763   2.325 -1.4868  1.1103  3.1474
 5820SOL    HW224701   3.526  11.800   2.386  0.4837  0.4294 -0.5048
 5821SOL     OW24702   0.884   5.449   1.656  0.5088 -0.0201  0.6189
 5821SOL    HW124703   0.796   5.479   1.633  0.9427  0.1965 -0.8785
 5821SOL    HW224704   0.941   5.489   1.590  1.8887  0.6995  2.1563
 5822SOL     OW24705   4.132   4.165   4.045 -0.1021 -0.0537 -0.3663
 5822SOL    HW124706   4.062   4.231   4.051  1.1321  1.3784 -1.1229
 5822SOL    HW224707   4.106   4.098   4.107 -2.1116  0.4778 -0.5543
 5823SOL     OW24708  11.385   9.765   0.478  0.0063 -0.1953  0.9642
 5823SOL    HW124709  11.457   9.703   0.473  1.3011  1.3250 -0.6410
 5823SOL    HW224710  11.426   9.848   0.503 -1.5758  0.2210  2.4080
 5824SOL     OW24711   2.659   0.961   2.675 -0.0969 -0.7069  0.4488
 5824SOL    HW124712   2.735   1.005   2.638 -2.0134  2.2208 -0.3653
 5824SOL    HW224713   2.647   1.001   2.761 -0.8894 -0.9128  0.4414
 5825SOL     OW24714   6.274   1.984  12.226 -0.5818  0.5975  0.5473
 5825SOL    HW124715   6.260   1.961  12.134  0.6999  0.4217  0.3892
 5825SOL    HW224716   6.270   2.080  12.227 -1.2182  0.5827  0.4315
 5826SOL     OW24717   9.644   0.281   5.518  0.1024  0.3055 -0.1521
 5826SOL    HW124718   9.598   0.297   5.600 -1.6983 -1.8592 -0.6399
 5826SOL    HW224719   9.615   0.194   5.491  2.1424  0.1446 -2.1176
 5827SOL     OW24720  11.897  10.261   7.782  0.2488  0.4514  0.2690
 5827SOL    HW124721  11.972  10.205   7.761  0.0145  0.5913 -1.0781
 5827SOL    HW224722  11.912  10.288   7.872  0.5088 -1.5381  0.8740
 5828SOL     OW24723   2.348   0.370   4.365  0.3521 -0.2014  0.1146
 5828SOL    HW124724   2.345   0.311   4.290  0.4312 -1.4181  1.0555
 5828SOL    HW224725   2.420   0.338   4.419  1.0571  1.3671  0.1700
 5829SOL     OW24726  12.445   6.621   5.385  0.1913 -0.1815 -0.1143
 5829SOL    HW124727  12.422   6.622   5.292 -0.9148  1.2978  0.1327
 5829SOL    HW224728  12.395   6.549   5.421  0.5640 -0.7165 -0.6429
 5830SOL     OW24729   6.957   3.060   2.873  0.0583  0.2504  0.4395
 5830SOL    HW124730   6.960   2.968   2.898 -0.4370  0.0752 -0.1246
 5830SOL    HW224731   7.049   3.086   2.862  0.2203 -0.0426  1.0489
 5831SOL     OW24732   3.085  11.263   8.894 -0.3544  0.2240 -0.5655
 5831SOL    HW124733   2.992  11.246   8.908 -1.0392  3.3312 -0.4816
 5831SOL    HW224734   3.099  11.244   8.801 -0.8279 -1.0570 -0.3984
 5832SOL     OW24735   4.021   3.336   1.886  0.7858  0.5193  0.1575
 5832SOL    HW124736   3.984   3.256   1.848  0.1627  1.1542 -0.6198
 5832SOL    HW224737   3.964   3.357   1.960  0.0877  1.0032 -0.4973
 5833SOL     OW24738   8.718   9.794   7.560 -0.2955 -0.6278  0.2724
 5833SOL    HW124739   8.780   9.843   7.507 -0.3030 -0.5197  0.3644
 5833SOL    HW224740   8.767   9.770   7.639  0.5250 -2.9805 -0.8503
 5834SOL     OW24741   7.777  11.333   4.258  0.1145 -0.4450  0.3969
 5834SOL    HW124742   7.802  11.297   4.173 -1.9770 -1.7705  0.2919
 5834SOL    HW224743   7.853  11.315   4.314  0.7481 -1.3295 -0.6987
 5835SOL     OW24744   0.870   2.448   5.201 -0.1589 -0.2417  0.0583
 5835SOL    HW124745   0.797   2.388   5.187  1.1053 -1.9020  0.2933
 5835SOL    HW224746   0.858   2.516   5.135 -1.2441 -1.1326 -0.7009
 5836SOL     OW24747  10.984   0.853   9.894  0.1773 -0.2740 -0.7508
 5836SOL    HW124748  10.935   0.904   9.959  0.0616 -0.3571 -0.7716
 5836SOL    HW224749  11.040   0.916   9.851 -1.6593  0.3124 -2.4425
 5837SOL     OW24750  12.013  11.685   0.257  0.0541  0.4535  0.0702
 5837SOL    HW124751  11.982  11.600   0.225  0.6554 -0.1427  1.0447
 5837SOL    HW224752  12.089  11.664   0.311 -0.9043  1.4369  1.8677
 5838SOL     OW24753   0.534   3.329  10.549  0.4289  0.0407 -0.6959
 5838SOL    HW124754   0.552   3.309  10.457 -0.3963  0.1129 -0.8813
 5838SOL    HW224755   0.500   3.247  10.585  0.6641  0.0390 -0.4792
 5839SOL     OW24756   6.378   4.798   4.087  0.2747  0.3898  1.0125
 5839SOL    HW124757   6.462   4.753   4.082  0.1655  0.1530  1.2346
 5839SOL    HW224758   6.396   4.880   4.132  0.2362 -0.0523  1.8509
 5840SOL     OW24759   3.252  10.203   2.784 -0.5554 -0.1422 -0.0401
 5840SOL    HW124760   3.193  10.273   2.755 -0.9051 -0.1761  0.5777
 5840SOL    HW224761   3.243  10.202   2.880  0.1720 -0.3914  0.0338
 5841SOL     OW24762   0.326   5.458   8.109 -0.3344  0.3466  0.0349
 5841SOL    HW124763   0.286   5.371   8.113  0.2482  0.0217 -0.8320
 5841SOL    HW224764   0.376   5.465   8.190 -0.1977 -0.2247  0.0057
 5842SOL     OW24765   8.229   2.547  11.310  0.4263  0.4894 -0.0825
 5842SOL    HW124766   8.248   2.639  11.328  3.0601  0.6292 -2.9686
 5842SOL    HW224767   8.164   2.549  11.240  1.2921  0.1808 -0.9013
 5843SOL     OW24768   8.269   6.951  11.001 -0.4504 -0.3355 -0.3416
 5843SOL    HW124769   8.338   7.017  11.001 -0.4670 -0.3003  0.5819
 5843SOL    HW224770   8.194   6.994  11.042 -0.7659 -0.6237 -0.6075
 5844SOL     OW24771   7.827   1.288  12.598  0.3397  0.3502  0.3980
 5844SOL    HW124772   7.826   1.249  12.685  0.1703  0.7753  0.5884
 5844SOL    HW224773   7.894   1.240  12.551 -1.0210 -1.3386  0.0893
 5845SOL     OW24774  10.481  10.932   0.166 -0.1881 -0.4642  0.5200
 5845SOL    HW124775  10.472  11.017   0.124  0.2832 -0.5342  0.2781
 5845SOL    HW224776  10.565  10.935   0.211 -0.7435 -0.3387  1.5992
 5846SOL     OW24777   9.969   5.278  10.325 -0.9594 -0.2516  0.0933
 5846SOL    HW124778   9.936   5.212  10.264 -0.3817 -0.4010 -0.0670
 5846SOL    HW224779   9.908   5.351  10.315 -0.2683  0.1698 -1.5122
 5847SOL     OW24780   9.928   6.626   1.562 -0.5299 -0.0841 -0.3122
 5847SOL    HW124781   9.951   6.590   1.476 -0.3700 -0.5064 -0.0928
 5847SOL    HW224782   9.977   6.573   1.624 -1.5273 -0.5213  0.1217
 5848SOL     OW24783  10.507   2.231   9.326  0.9731  0.0241  0.8448
 5848SOL    HW124784  10.567   2.296   9.290  0.1385  0.7164  0.6851
 5848SOL    HW224785  10.558   2.186   9.394  2.3833 -0.8971 -0.7534
 5849SOL     OW24786   6.642   5.864  11.870 -0.3882  0.4745 -0.0625
 5849SOL    HW124787   6.652   5.820  11.955  1.3427  0.4581 -0.2402
 5849SOL    HW224788   6.718   5.835  11.819 -0.9979  1.0802 -1.3606
 5850SOL     OW24789   7.978   9.938  11.700  0.6271  0.4558  0.2546
 5850SOL    HW124790   7.959   9.852  11.664 -0.2942  0.5668  0.4504
 5850SOL    HW224791   8.029   9.982  11.632 -2.3034  1.1948 -1.6473
 5851SOL     OW24792   4.508   4.358  12.144 -0.2977  0.3390  0.0863
 5851SOL    HW124793   4.441   4.376  12.078 -1.9187 -0.5459  1.4203
 5851SOL    HW224794   4.589   4.346  12.093 -0.8017  2.7864 -1.4509
 5852SOL     OW24795   8.567  10.972   2.307 -0.2525  0.0213  0.2913
 5852SOL    HW124796   8.563  10.987   2.402  1.8084 -1.0017  0.6062
 5852SOL    HW224797   8.565  10.877   2.299 -2.2275  0.1061 -0.8744
 5853SOL     OW24798   3.521   3.263   3.403  0.2468  0.6094 -0.0210
 5853SOL    HW124799   3.509   3.229   3.315 -1.2487  0.6775  0.1216
 5853SOL    HW224800   3.579   3.199   3.446  0.6900  0.3845 -0.9299
 5854SOL     OW24801   3.295   1.591  10.400 -0.6760 -0.2310 -0.1065
 5854SOL    HW124802   3.346   1.665  10.431 -1.7836  0.6079 -0.2315
 5854SOL    HW224803   3.319   1.519  10.459 -1.7125  0.9503  1.8563
 5855SOL     OW24804   2.142   9.813   5.722 -0.0612 -0.6026  0.1500
 5855SOL    HW124805   2.063   9.783   5.675  0.2117 -0.2254 -0.5592
 5855SOL    HW224806   2.125   9.905   5.741 -1.4033 -1.3821  3.3680
 5856SOL     OW24807   6.272   5.803   3.724  0.2452 -0.1515 -0.1569
 5856SOL    HW124808   6.338   5.871   3.739  0.1237 -0.2123  0.6981
 5856SOL    HW224809   6.194   5.851   3.698  0.3209  0.0015 -0.1045
 5857SOL     OW24810   0.432   9.899   6.020 -0.5453  0.1114 -0.3748
 5857SOL    HW124811   0.457   9.957   5.947  0.2976 -0.9403 -0.9657
 5857SOL    HW224812   0.387   9.956   6.082  2.1865  1.9242  0.1300
 5858SOL     OW24813   9.471   2.154   2.558  0.5280 -0.2507  0.0300
 5858SOL    HW124814   9.497   2.153   2.466 -2.1238  2.3051 -0.8671
 5858SOL    HW224815   9.421   2.073   2.570  2.8347 -1.7796 -0.0232
 5859SOL     OW24816   0.373   5.977   5.006 -0.4495 -0.4359  0.0817
 5859SOL    HW124817   0.282   5.950   4.993 -0.8119  0.5865  0.4168
 5859SOL    HW224818   0.392   5.954   5.097 -1.2061  1.6065  0.8073
 5860SOL     OW24819   2.916   8.686   7.256  0.0736 -0.5742 -0.0477
 5860SOL    HW124820   2.986   8.729   7.207 -0.4656 -0.5666 -0.8183
 5860SOL    HW224821   2.952   8.600   7.278 -0.4228 -1.4392 -2.3251
 5861SOL     OW24822   5.932   8.455   1.562  0.8674 -0.4186  0.3063
 5861SOL    HW124823   6.001   8.429   1.623 -0.4118 -1.4241  1.3998
 5861SOL    HW224824   5.860   8.395   1.581 -0.3278  0.6305 -0.7453
 5862SOL     OW24825   2.758   1.851   6.002  0.1664  0.2995 -0.1611
 5862SOL    HW124826   2.790   1.941   5.995 -0.5728  0.5070 -1.0217
 5862SOL    HW224827   2.762   1.818   5.912 -0.3992 -0.2359  0.0111
 5863SOL     OW24828   9.102   5.014   5.885  0.0563 -0.2556 -0.2528
 5863SOL    HW124829   9.059   4.936   5.919 -0.0213 -0.1306 -0.0580
 5863SOL    HW224830   9.154   4.983   5.811  0.3201 -0.5536  0.0537
 5864SOL     OW24831   6.502   9.590   1.409 -0.1438  0.0817 -0.3178
 5864SOL    HW124832   6.429   9.529   1.399 -1.6017  2.0533 -2.6510
 5864SOL    HW224833   6.578   9.541   1.377 -1.1165 -0.8088 -1.3479
 5865SOL     OW24834   0.482   8.014   9.420  0.2290  0.0876 -0.8316
 5865SOL    HW124835   0.427   7.945   9.455  2.1111 -1.4202 -0.6861
 5865SOL    HW224836   0.490   8.077   9.492  0.8740 -1.0269  0.0962
 5866SOL     OW24837   5.725   7.623   0.766  0.1397  0.3995 -0.2593
 5866SOL    HW124838   5.655   7.558   0.762 -0.4794  1.1343 -1.7195
 5866SOL    HW224839   5.728   7.649   0.858 -0.8798 -0.2937 -0.0145
 5867SOL     OW24840   9.911   3.180  11.307  0.0366 -0.0827  0.0101
 5867SOL    HW124841   9.945   3.261  11.269 -0.4940 -0.2057 -0.7569
 5867SOL    HW224842   9.987   3.123  11.312  0.2506  0.1755 -0.2472
 5868SOL     OW24843   5.570  12.691   9.874 -0.2486 -0.4938 -0.5231
 5868SOL    HW124844   5.540  12.669   9.785  0.6957 -0.8622 -0.7608
 5868SOL    HW224845   5.627  12.767   9.862 -1.8011  0.8168  0.0437
 5869SOL     OW24846   5.356   0.513   7.923  0.3510 -0.0962 -0.0277
 5869SOL    HW124847   5.317   0.444   7.976  1.0758  0.2008  0.9140
 5869SOL    HW224848   5.355   0.591   7.979 -0.0244  0.5531 -0.9044
 5870SOL     OW24849   4.953   0.635   9.051 -0.4558 -0.5133  0.4365
 5870SOL    HW124850   4.955   0.691   8.973 -0.4476 -0.2174  0.6449
 5870SOL    HW224851   5.039   0.592   9.051 -0.6236 -0.8573  0.0411
 5871SOL     OW24852  11.937   1.890   1.291 -0.0861  0.0868 -0.4668
 5871SOL    HW124853  11.973   1.935   1.215 -0.0217 -0.1234 -0.5610
 5871SOL    HW224854  12.013   1.853   1.336 -0.0071  1.1870  0.3410
 5872SOL     OW24855   2.769   1.163  12.527  0.4721 -0.2139 -0.2526
 5872SOL    HW124856   2.794   1.161  12.435 -0.3621  0.0743 -0.4834
 5872SOL    HW224857   2.750   1.071  12.548 -1.2033 -0.0439 -0.8899
 5873SOL     OW24858   5.319   1.610   9.488  0.8310 -0.0124 -0.2639
 5873SOL    HW124859   5.330   1.598   9.582 -1.0822  0.5376  0.0723
 5873SOL    HW224860   5.231   1.646   9.478  0.5113 -1.1615 -2.3520
 5874SOL     OW24861   5.918   0.323   9.779  0.2411 -0.3371  0.2575
 5874SOL    HW124862   5.919   0.388   9.709 -1.3910 -0.3353  0.2091
 5874SOL    HW224863   5.852   0.259   9.753  0.2091 -0.7902  1.3737
 5875SOL     OW24864  12.180   2.722  10.173 -0.5187 -0.1291 -0.7173
 5875SOL    HW124865  12.102   2.682  10.211  0.2487 -0.8007  0.2128
 5875SOL    HW224866  12.243   2.650  10.167  0.8377  0.8644  0.8372
 5876SOL     OW24867  12.560   1.538   4.639  1.1045 -0.2275 -0.8181
 5876SOL    HW124868  12.520   1.604   4.696 -0.4661 -3.8027  2.7263
 5876SOL    HW224869  12.491   1.513   4.579  0.5441 -0.9289  0.0936
 5877SOL     OW24870   6.522   6.457  11.403 -0.6013  0.5840  0.0519
 5877SOL    HW124871   6.448   6.416  11.448 -0.5524 -0.4205 -0.7424
 5877SOL    HW224872   6.586   6.474  11.472 -1.1642  0.5422  0.5965
 5878SOL     OW24873   4.602   0.893   0.440 -0.0097 -0.4946 -0.0197
 5878SOL    HW124874   4.526   0.878   0.383 -1.1691 -0.5702  1.4744
 5878SOL    HW224875   4.676   0.860   0.390 -0.8977 -0.0297 -1.7084
 5879SOL     OW24876   2.570   5.178  11.295 -0.1191 -0.0150  0.1308
 5879SOL    HW124877   2.647   5.231  11.318 -0.4352  0.5556 -0.0938
 5879SOL    HW224878   2.513   5.185  11.371  1.0355 -2.3941  1.3177
 5880SOL     OW24879  10.409   0.994   7.140 -0.0295 -0.0675  0.0553
 5880SOL    HW124880  10.491   0.972   7.185  0.9475  3.3480  0.2888
 5880SOL    HW224881  10.438   1.038   7.059 -1.6378  0.5407 -0.2173
 5881SOL     OW24882   0.855   4.456   4.295 -0.6269 -0.2413 -0.1031
 5881SOL    HW124883   0.776   4.495   4.334 -0.3652 -0.1792  0.3737
 5881SOL    HW224884   0.824   4.416   4.213 -1.1107 -0.0227 -0.0328
 5882SOL     OW24885   5.985   3.251   3.135  0.4306  0.4476  0.0155
 5882SOL    HW124886   6.024   3.279   3.217 -0.2945  0.6320  0.3064
 5882SOL    HW224887   5.953   3.162   3.153  1.0028  0.1707 -0.3186
 5883SOL     OW24888   0.695   0.285   0.870 -0.1880 -0.0890  0.3273
 5883SOL    HW124889   0.684   0.362   0.926  0.0594  1.1497 -1.2533
 5883SOL    HW224890   0.637   0.301   0.795  1.7268 -0.1442 -1.2793
 5884SOL     OW24891   2.721  10.547   6.058 -0.0805  0.1042 -0.5922
 5884SOL    HW124892   2.639  10.578   6.021 -0.6091 -0.4166  0.1173
 5884SOL    HW224893   2.783  10.551   5.985 -0.3092  2.0385 -0.7364
 5885SOL     OW24894   5.417  10.978  11.464 -0.6784 -0.6411 -0.1555
 5885SOL    HW124895   5.507  10.945  11.465  0.7723  2.8198 -0.9793
 5885SOL    HW224896   5.401  10.997  11.372 -2.1102 -0.7912  0.0530
 5886SOL     OW24897   3.357   0.479   3.080  0.1097 -0.1791 -0.2068
 5886SOL    HW124898   3.421   0.549   3.098  1.2538 -0.7367 -1.9062
 5886SOL    HW224899   3.406   0.398   3.095 -0.4114 -0.6131 -0.8316
 5887SOL     OW24900   7.954   6.050   3.499  0.2948 -0.4424  0.3146
 5887SOL    HW124901   7.972   6.062   3.406 -0.4058  0.7752  0.3250
 5887SOL    HW224902   7.929   6.137   3.531  1.3300 -0.6491  1.8274
 5888SOL     OW24903   2.474   4.857   0.330  0.1908 -0.6156 -0.4909
 5888SOL    HW124904   2.489   4.952   0.326 -0.0049 -0.6391 -2.1781
 5888SOL    HW224905   2.471   4.838   0.424  0.9029  0.9381 -0.1200
 5889SOL     OW24906  10.536   3.161   7.573 -0.4993  0.1283  0.3491
 5889SOL    HW124907  10.562   3.087   7.628  2.0419  1.3526  0.9453
 5889SOL    HW224908  10.454   3.133   7.533 -0.3830 -2.4135  1.6683
 5890SOL     OW24909   2.524   8.740   8.541 -0.1835 -0.2933  0.2658
 5890SOL    HW124910   2.459   8.743   8.612 -0.3631 -0.6338  0.1161
 5890SOL    HW224911   2.507   8.819   8.490 -0.8712 -0.6696 -0.1086
 5891SOL     OW24912   7.307   6.490  10.253  0.3373 -0.9399 -0.0012
 5891SOL    HW124913   7.240   6.522  10.314  0.0964 -1.5963  0.0851
 5891SOL    HW224914   7.390   6.511  10.295  0.1972 -0.1655 -0.0837
 5892SOL     OW24915   4.867  11.869   2.898 -0.6415  0.0947 -0.1844
 5892SOL    HW124916   4.959  11.876   2.871  0.0854  0.7731  2.1534
 5892SOL    HW224917   4.820  11.926   2.838  1.1087  2.9374  0.9110
 5893SOL     OW24918   5.067   1.021   6.917 -0.4254  0.4093 -1.1730
 5893SOL    HW124919   5.130   1.093   6.925  0.7240 -0.6406 -0.4517
 5893SOL    HW224920   5.003   1.037   6.988  0.1432  0.4221 -0.6563
 5894SOL     OW24921  11.223   1.981   2.707 -0.3797  0.0194 -0.3544
 5894SOL    HW124922  11.183   1.951   2.625  0.7968 -1.1281 -0.5556
 5894SOL    HW224923  11.181   1.928   2.774 -1.2583  0.8753 -0.2122
 5895SOL     OW24924   2.859   1.066  12.289 -0.1191 -0.2253 -0.0911
 5895SOL    HW124925   2.811   1.052  12.207  1.8965 -0.3379 -1.3352
 5895SOL    HW224926   2.902   0.982  12.306 -0.1607 -0.0613  0.8561
 5896SOL     OW24927   3.985   8.841   7.080  0.0250 -0.4231  0.5229
 5896SOL    HW124928   3.920   8.846   7.010 -1.2140 -4.9479  1.0621
 5896SOL    HW224929   3.934   8.848   7.160  0.7166 -0.3969  0.9701
 5897SOL     OW24930  10.766   9.435  11.219  0.0083  0.0828 -0.7881
 5897SOL    HW124931  10.858   9.436  11.192  0.4017 -0.1610  0.4651
 5897SOL    HW224932  10.750   9.522  11.255  0.3205 -0.4545  0.7301
 5898SOL     OW24933   7.834   8.863  12.560  0.1471 -0.4984  0.1991
 5898SOL    HW124934   7.886   8.896  12.634  1.3325 -1.7574 -0.0196
 5898SOL    HW224935   7.782   8.938  12.532 -0.1213  0.0931  2.1222
 5899SOL     OW24936   9.638   4.226   1.029 -0.3474 -0.3774 -0.1503
 5899SOL    HW124937   9.590   4.307   1.045  0.2407  0.1396 -0.9362
 5899SOL    HW224938   9.642   4.184   1.115  0.3103  0.9617  0.5105
 5900SOL     OW24939   2.988   6.749   1.151 -0.6611  0.1406  0.4192
 5900SOL    HW124940   3.049   6.761   1.224 -0.7002  1.2968  0.2846
 5900SOL    HW224941   2.922   6.818   1.163 -1.2155 -0.2735 -0.1624
 5901SOL     OW24942   6.190   5.896   0.196  0.1833  0.2684 -0.3055
 5901SOL    HW124943   6.236   5.959   0.252  1.1166  0.5788 -1.3739
 5901SOL    HW224944   6.125   5.855   0.253 -0.3951  2.1406  0.4403
 5902SOL     OW24945   3.842   0.620   5.843 -0.1174  0.7359  0.1167
 5902SOL    HW124946   3.847   0.557   5.772 -1.4366 -0.1054  0.7271
 5902SOL    HW224947   3.827   0.567   5.921  0.7245  1.6806  0.9425
 5903SOL     OW24948   9.824   0.120   8.661 -0.0504  0.4044  1.0262
 5903SOL    HW124949   9.800   0.028   8.647 -0.5443  0.7120 -0.2801
 5903SOL    HW224950   9.822   0.130   8.756 -1.2386 -0.6291  1.1498
 5904SOL     OW24951   1.133   8.163   1.640 -0.1925 -0.1798  0.3486
 5904SOL    HW124952   1.144   8.079   1.596  0.4211 -1.0678  2.1145
 5904SOL    HW224953   1.221   8.200   1.645 -0.5227  0.8529 -0.8771
 5905SOL     OW24954   1.847   8.978  11.697  0.3667  0.5124 -0.2728
 5905SOL    HW124955   1.867   9.056  11.749 -0.1802  0.7595 -0.4285
 5905SOL    HW224956   1.855   8.905  11.759 -2.7063  0.9875  0.8543
 5906SOL     OW24957   8.999   5.956   8.180  0.1552  0.1734  0.0598
 5906SOL    HW124958   9.084   5.993   8.204 -0.0598 -0.4707  1.9892
 5906SOL    HW224959   8.999   5.868   8.219 -0.8445 -0.4130 -1.1511
 5907SOL     OW24960   5.252   5.191   8.426 -0.0833  0.3325  0.2715
 5907SOL    HW124961   5.193   5.117   8.410  2.3659 -1.2752 -2.3687
 5907SOL    HW224962   5.253   5.239   8.343  2.8543 -0.2161 -0.1071
 5908SOL     OW24963   5.763   8.893   3.986  0.5016  0.2501  0.1064
 5908SOL    HW124964   5.683   8.869   3.939 -0.3037  0.5067  1.3091
 5908SOL    HW224965   5.828   8.829   3.957 -0.5284 -0.8856  0.2295
 5909SOL     OW24966  12.101  12.607  12.313  0.1749 -0.2095 -0.0103
 5909SOL    HW124967  12.007  12.617  12.331 -0.1344 -1.6692 -0.7396
 5909SOL    HW224968  12.143  12.664  12.378 -1.1809 -0.0856  0.8006
 5910SOL     OW24969   5.897   5.972   9.834 -0.2448  0.5577 -0.4534
 5910SOL    HW124970   5.818   5.937   9.875 -0.5567  0.5348 -1.0603
 5910SOL    HW224971   5.939   6.023   9.903 -1.3288  1.4387 -0.4009
 5911SOL     OW24972   5.327  12.330   0.347 -0.4151  0.0815  0.7112
 5911SOL    HW124973   5.404  12.329   0.403  0.6904 -0.9767 -0.7416
 5911SOL    HW224974   5.256  12.295   0.402 -0.0649  1.7146  2.2783
 5912SOL     OW24975   0.232  12.070   8.002  0.5468 -0.0842  0.1423
 5912SOL    HW124976   0.238  12.020   8.084 -2.2245 -1.1541 -0.1961
 5912SOL    HW224977   0.186  12.011   7.941  1.0250  1.3140 -1.6505
 5913SOL     OW24978  11.389  10.110   7.153  0.1242  0.0051  0.2107
 5913SOL    HW124979  11.338  10.034   7.182 -1.2648  0.5924 -0.6004
 5913SOL    HW224980  11.362  10.180   7.212 -0.7827  0.5698 -0.8587
 5914SOL     OW24981   9.905   7.514   9.245 -0.2111 -0.4639  0.1150
 5914SOL    HW124982   9.861   7.538   9.163 -1.0375  0.3753  0.7866
 5914SOL    HW224983   9.936   7.597   9.281 -1.8263 -0.4993  1.7484
 5915SOL     OW24984  10.771  10.021   2.938 -0.0867 -0.1468 -0.5011
 5915SOL    HW124985  10.769  10.103   2.987  1.2445 -1.0930  1.2390
 5915SOL    HW224986  10.857  10.020   2.896  0.3000 -1.0673  0.2839
 5916SOL     OW24987   5.556   3.820   6.686  0.3335 -0.1071  0.0953
 5916SOL    HW124988   5.476   3.838   6.734  0.0171 -1.4829  0.1277
 5916SOL    HW224989   5.549   3.873   6.606  0.6788  1.8728  1.3178
 5917SOL     OW24990  11.279   0.380   9.149 -0.2017 -0.3835  0.6095
 5917SOL    HW124991  11.276   0.431   9.230  2.4851 -1.1896  1.3015
 5917SOL    HW224992  11.222   0.305   9.165  2.4395 -2.0704  3.0002
 5918SOL     OW24993  12.640   4.694  12.376  0.4901 -0.1008 -0.0661
 5918SOL    HW124994  12.569   4.711  12.438  1.7359  1.5964  1.0005
 5918SOL    HW224995  12.622   4.754  12.303  0.0511 -0.7294 -0.4809
 5919SOL     OW24996   0.869   0.872   2.225  0.0271  0.8162  0.3799
 5919SOL    HW124997   0.834   0.951   2.185  1.2335  0.3807 -1.6913
 5919SOL    HW224998   0.949   0.901   2.270 -1.3199  1.3030  2.5774
 5920SOL     OW24999   4.306   4.076  11.191  0.3571  0.1121  0.1886
 5920SOL    HW125000   4.331   4.019  11.119  2.1263 -1.3287  1.8557
 5920SOL    HW225001   4.333   4.164  11.163  0.6657 -0.3517 -1.0227
 5921SOL     OW25002   5.791  10.557  10.613 -0.4017 -0.2677 -0.3359
 5921SOL    HW125003   5.790  10.650  10.592 -0.0008 -0.2498 -0.2868
 5921SOL    HW225004   5.859  10.548  10.680 -0.7939 -0.5211  0.0338
 5922SOL     OW25005   9.818  11.750   9.989 -0.6813 -0.4129  0.3609
 5922SOL    HW125006   9.908  11.754   9.956 -0.3486 -0.7805  1.2016
 5922SOL    HW225007   9.771  11.698   9.923  0.1692 -1.8837  0.8770
 5923SOL     OW25008   0.439   9.069   4.297  0.4143  0.2434  0.1722
 5923SOL    HW125009   0.472   9.158   4.297  0.0057  0.4006  1.1061
 5923SOL    HW225010   0.392   9.061   4.214 -1.0429  1.4631  0.8373
 5924SOL     OW25011   2.864   0.708  12.233 -0.2218 -0.1154 -0.1799
 5924SOL    HW125012   2.947   0.709  12.280 -0.7746 -1.0406  0.8496
 5924SOL    HW225013   2.798   0.689  12.300 -1.3483  1.1570 -0.8689
 5925SOL     OW25014  12.256   8.752   3.617 -0.1852 -0.2928  0.1835
 5925SOL    HW125015  12.215   8.671   3.648  0.1158 -0.8160 -0.7411
 5925SOL    HW225016  12.188   8.818   3.624 -0.1327 -0.3828  1.9322
 5926SOL     OW25017  10.863   2.813   7.250  0.0636  0.5783 -0.4651
 5926SOL    HW125018  10.798   2.880   7.274 -0.7181 -0.1480 -0.4853
 5926SOL    HW225019  10.908   2.850   7.174  0.7017  1.7337  0.4488
 5927SOL     OW25020   0.738   9.410   4.333  0.3706  0.4206 -0.1335
 5927SOL    HW125021   0.833   9.422   4.328  0.5744 -0.2778  1.5260
 5927SOL    HW225022   0.720   9.396   4.426 -0.9503 -2.5012 -0.7043
 5928SOL     OW25023   5.897  11.457   9.903  0.4863  0.8833 -0.0934
 5928SOL    HW125024   5.945  11.539   9.910 -0.7829  1.6983 -0.5181
 5928SOL    HW225025   5.927  11.419   9.821 -0.2073  1.8091 -0.7930
 5929SOL     OW25026   2.488   0.158   4.227 -0.3376  0.1758 -0.2309
 5929SOL    HW125027   2.488   0.081   4.170  0.2232 -0.0168  0.0247
 5929SOL    HW225028   2.549   0.136   4.298  1.0844  1.4622 -0.9910
 5930SOL     OW25029   3.552   4.837   6.645  0.4278 -0.3435  0.2240
 5930SOL    HW125030   3.620   4.769   6.641  1.7790  0.9939 -1.9868
 5930SOL    HW225031   3.599   4.916   6.670 -0.6211  0.3080  0.1789
 5931SOL     OW25032  10.196   5.945  11.540 -0.6183 -0.1954 -0.8163
 5931SOL    HW125033  10.276   5.986  11.572  0.0878 -0.7517 -1.7867
 5931SOL    HW225034  10.165   5.891  11.613  0.9820 -1.4927 -1.0443
 5932SOL     OW25035   0.806  11.525   4.631  0.3920 -0.0966  0.0059
 5932SOL    HW125036   0.821  11.550   4.723  0.5861  1.3163 -0.3862
 5932SOL    HW225037   0.872  11.458   4.614  0.4942 -0.2251  0.8387
 5933SOL     OW25038   5.087   4.883   1.649  0.7115 -0.2178  0.5728
 5933SOL    HW125039   5.025   4.882   1.722 -1.2819 -0.6081 -1.0119
 5933SOL    HW225040   5.131   4.798   1.654  1.5813  0.3037  2.0732
 5934SOL     OW25041   5.380   8.497   2.696 -0.7256 -0.3132 -0.1645
 5934SOL    HW125042   5.325   8.492   2.617 -1.0080 -0.5472  0.0431
 5934SOL    HW225043   5.446   8.429   2.683 -0.5732 -0.1364 -0.3427
 5935SOL     OW25044   0.561   4.109  10.947  0.5780  0.8562 -0.5139
 5935SOL    HW125045   0.511   4.118  11.028  0.7132  0.2160 -0.3592
 5935SOL    HW225046   0.593   4.198  10.930  0.6931  0.9698  0.2285
 5936SOL     OW25047   9.328   9.829   6.517 -0.3228  0.3669 -0.2848
 5936SOL    HW125048   9.399   9.858   6.574 -0.2045 -1.3387  0.5165
 5936SOL    HW225049   9.251   9.878   6.547 -0.7008 -1.7496  2.7050
 5937SOL     OW25050   6.166   8.136   9.419 -0.5819  0.2244  0.3508
 5937SOL    HW125051   6.257   8.109   9.429  0.1492  1.8164 -1.3851
 5937SOL    HW225052   6.132   8.140   9.508  1.2158  0.1596  1.0772
 5938SOL     OW25053  10.481  11.445   9.844 -0.4109  0.0318 -0.2291
 5938SOL    HW125054  10.543  11.506   9.804 -0.0568 -0.6719 -0.7636
 5938SOL    HW225055  10.440  11.401   9.770 -1.7638  0.6733  0.0981
 5939SOL     OW25056  12.285   0.046  12.710 -0.2534  0.7689 -0.3296
 5939SOL    HW125057  12.276   0.112  12.779  2.4899  0.1733  0.7153
 5939SOL    HW225058  12.296  -0.036  12.757  1.9937  0.3753 -1.3825
 5940SOL     OW25059  11.530   0.894   6.116 -0.1126  0.2419 -0.0402
 5940SOL    HW125060  11.475   0.968   6.138 -1.0776 -0.9514  1.8770
 5940SOL    HW225061  11.606   0.902   6.175  1.5291  1.5145 -2.1996
 5941SOL     OW25062   5.221   6.420   0.981 -0.4792 -0.1379  0.3991
 5941SOL    HW125063   5.185   6.362   0.914 -1.0373 -0.5424  1.0314
 5941SOL    HW225064   5.205   6.508   0.948 -0.3401 -0.3382 -0.2057
 5942SOL     OW25065  12.708   2.665  10.537 -0.0413  0.0583 -0.2053
 5942SOL    HW125066  12.623   2.697  10.510  0.3786  0.8244 -0.6525
 5942SOL    HW225067  12.759   2.661  10.456  0.2385 -0.7475  0.0010
 5943SOL     OW25068   0.529   6.588   7.343 -0.4227 -0.5585  0.1754
 5943SOL    HW125069   0.606   6.642   7.361 -2.0783  1.5871  1.1895
 5943SOL    HW225070   0.462   6.650   7.315 -1.6622 -2.4426 -1.2719
 5944SOL     OW25071   9.242  11.228   0.659 -0.7133  0.5361 -0.8074
 5944SOL    HW125072   9.271  11.139   0.681 -1.0766  0.4314 -0.7448
 5944SOL    HW225073   9.310  11.261   0.601  0.5197  0.9942  0.8273
 5945SOL     OW25074   9.064   0.098   4.574 -0.2969  0.2965  0.1367
 5945SOL    HW125075   9.076   0.049   4.656 -0.2092 -0.3331 -0.2487
 5945SOL    HW225076   9.145   0.147   4.562  0.2536 -0.7080 -0.3011
 5946SOL     OW25077   7.315   1.923   2.061 -0.0590  0.0918  0.0318
 5946SOL    HW125078   7.333   1.927   1.967  1.2516 -0.5774  0.2311
 5946SOL    HW225079   7.401   1.921   2.102 -0.5362  2.6838  1.4058
 5947SOL     OW25080   3.223   3.058  11.559 -0.9160  0.0684 -0.5721
 5947SOL    HW125081   3.255   3.148  11.549 -0.2186 -0.2048 -0.7790
 5947SOL    HW225082   3.280   3.005  11.505 -0.1770 -0.7523  0.9481
 5948SOL     OW25083   0.796  10.495   8.350 -0.2928  0.3665 -0.3724
 5948SOL    HW125084   0.721  10.472   8.406  0.0425 -0.5698 -0.2953
 5948SOL    HW225085   0.773  10.581   8.315 -0.7322  0.7644  0.8188
 5949SOL     OW25086   0.240  11.183  12.385  0.0958  0.1318  0.4515
 5949SOL    HW125087   0.225  11.278  12.391 -0.5229 -0.0295  4.5414
 5949SOL    HW225088   0.331  11.171  12.414  0.2395 -0.5412 -0.2468
 5950SOL     OW25089   0.899   8.859   6.399  0.2529 -0.4001  0.3297
 5950SOL    HW125090   0.929   8.822   6.482  0.0858 -0.4911  0.3514
 5950SOL    HW225091   0.818   8.905   6.422  0.8984  0.6913  0.4482
 5951SOL     OW25092   0.217   5.206  11.080 -0.1437  0.9497  0.0301
 5951SOL    HW125093   0.305   5.220  11.047  0.2585  0.1841  0.7478
 5951SOL    HW225094   0.196   5.286  11.128 -0.5763  1.9026 -1.6713
 5952SOL     OW25095   6.858  12.528  12.636  0.1166 -0.6616 -0.7345
 5952SOL    HW125096   6.870  12.586  12.561 -0.1272  0.7368  0.2654
 5952SOL    HW225097   6.836  12.443  12.598 -0.1699  0.0596 -2.2358
 5953SOL     OW25098   8.656   5.115  10.174 -0.2444  0.9588 -0.1707
 5953SOL    HW125099   8.645   5.031  10.131 -2.1810  2.4775 -2.9842
 5953SOL    HW225100   8.667   5.094  10.267 -1.5521 -2.3183 -0.6315
 5954SOL     OW25101   0.773  11.839   5.100 -0.2545  0.3054 -0.7710
 5954SOL    HW125102   0.689  11.885   5.100 -0.0938  0.6033 -0.7332
 5954SOL    HW225103   0.837  11.908   5.083  0.0064  0.1232 -0.5254
 5955SOL     OW25104   7.321  10.079   4.241  0.5307  0.6767 -0.0044
 5955SOL    HW125105   7.337  10.030   4.322 -0.7094 -3.1093 -1.7876
 5955SOL    HW225106   7.408  10.099   4.207  1.0877  0.4972  1.2778
 5956SOL     OW25107   2.451   9.020   7.503 -0.1310 -0.0887 -0.0364
 5956SOL    HW125108   2.422   8.936   7.538  0.3415 -0.4957 -0.6051
 5956SOL    HW225109   2.464   9.075   7.580 -0.3922 -0.5507  0.3423
 5957SOL     OW25110   3.956   0.938   4.930  0.4217 -0.0388 -0.0105
 5957SOL    HW125111   3.894   0.865   4.937  2.0507 -1.5303 -0.5549
 5957SOL    HW225112   3.970   0.966   5.021  0.2256 -0.7947  0.2616
 5958SOL     OW25113  11.002   7.428   4.420 -0.1143 -0.1539 -0.6240
 5958SOL    HW125114  10.916   7.393   4.445 -0.2077  0.7265  0.3179
 5958SOL    HW225115  11.065   7.366   4.458 -0.2790  0.6548  1.0333
 5959SOL     OW25116   7.407  10.447   1.229 -0.4410  0.0896 -0.3243
 5959SOL    HW125117   7.315  10.432   1.247 -0.0216 -1.1803  0.9315
 5959SOL    HW225118   7.425  10.395   1.151 -0.6265 -0.2260 -0.1564
 5960SOL     OW25119   9.560   0.604   0.005 -0.3298 -0.2543  0.0437
 5960SOL    HW125120   9.593   0.619  -0.084 -0.6587  1.3598  0.1576
 5960SOL    HW225121   9.537   0.691   0.037 -2.2614 -1.0252  0.9335
 5961SOL     OW25122   1.387  10.950   3.688 -0.3584 -0.4916  0.2194
 5961SOL    HW125123   1.456  10.912   3.743 -0.9154 -1.7182  0.1169
 5961SOL    HW225124   1.434  10.988   3.614  0.3410  0.4822  1.1402
 5962SOL     OW25125   2.565   6.180   1.036 -0.2567 -0.0055  0.5063
 5962SOL    HW125126   2.617   6.139   1.105  0.7286 -0.0527 -0.2305
 5962SOL    HW225127   2.586   6.130   0.957 -2.6179 -0.9988  0.4273
 5963SOL     OW25128   4.063   9.391   9.969  0.0692 -0.4151  0.2196
 5963SOL    HW125129   4.112   9.316  10.002 -0.6294 -0.6133  0.8342
 5963SOL    HW225130   4.108   9.467  10.004  0.1584 -0.5800  0.4635
 5964SOL     OW25131   2.094  10.835   2.452 -0.1961  0.4146 -0.3610
 5964SOL    HW125132   2.022  10.822   2.390 -0.0624 -0.1417 -0.4064
 5964SOL    HW225133   2.142  10.753   2.450  0.3728  0.7392 -0.2368
 5965SOL     OW25134  11.331  12.237   3.839  0.7255  0.0831 -0.1795
 5965SOL    HW125135  11.277  12.159   3.845  1.0491 -0.1192  0.1264
 5965SOL    HW225136  11.395  12.228   3.909 -1.1880  2.1517  2.0261
 5966SOL     OW25137   6.351   9.358   0.414 -0.8189 -0.1184 -0.5802
 5966SOL    HW125138   6.291   9.431   0.431  1.5264  1.8003  0.0250
 5966SOL    HW225139   6.382   9.374   0.325  1.6452  1.2149  0.4313
 5967SOL     OW25140   8.435   4.840  12.171 -0.3094 -0.7712  0.2105
 5967SOL    HW125141   8.352   4.888  12.178 -0.3980 -0.8985  0.0307
 5967SOL    HW225142   8.486   4.871  12.245  0.1965  0.7005 -0.7051
 5968SOL     OW25143   1.735   3.095   2.650  0.4279 -0.4015 -0.0956
 5968SOL    HW125144   1.703   3.171   2.601 -0.5180 -0.1856  0.7980
 5968SOL    HW225145   1.659   3.037   2.655  0.3116 -0.1527  1.5824
 5969SOL     OW25146   5.836   0.028   1.525  0.6952  0.0822 -0.0080
 5969SOL    HW125147   5.888  -0.049   1.546 -0.5148 -0.4752  1.0717
 5969SOL    HW225148   5.770   0.032   1.594  0.5725  1.9505 -0.1750
 5970SOL     OW25149  12.430  11.394  12.702  0.7460 -0.1070  0.2011
 5970SOL    HW125150  12.514  11.395  12.657  1.3686  2.0924  1.2465
 5970SOL    HW225151  12.382  11.469  12.665 -1.2978 -1.9724 -1.2029
 5971SOL     OW25152   7.568   5.603   5.313 -0.0820  0.1625  0.4697
 5971SOL    HW125153   7.550   5.696   5.307  0.0736  0.2076  0.7210
 5971SOL    HW225154   7.647   5.590   5.260  0.9972  0.4822  1.9247
 5972SOL     OW25155  10.156  10.664  12.365  0.6907 -0.1981  0.9759
 5972SOL    HW125156  10.114  10.747  12.342  2.1780 -0.3085 -2.9032
 5972SOL    HW225157  10.086  10.612  12.405 -0.3947  2.6367  3.1295
 5973SOL     OW25158   5.205  11.908   2.466  0.0899  0.2353 -0.1199
 5973SOL    HW125159   5.155  11.986   2.490  0.0425  0.2721 -0.3307
 5973SOL    HW225160   5.253  11.934   2.387  0.0606  0.0468 -0.2018
 5974SOL     OW25161   8.775   0.750   8.469 -0.2820 -0.0898  0.4544
 5974SOL    HW125162   8.695   0.800   8.460 -0.7292 -1.1647 -2.7551
 5974SOL    HW225163   8.846   0.812   8.451 -0.6341  0.0838 -0.3413
 5975SOL     OW25164   7.997   7.636   2.928 -0.4051  0.1315  0.2334
 5975SOL    HW125165   8.050   7.667   3.002 -1.6481  0.7381  0.9063
 5975SOL    HW225166   8.049   7.567   2.889  0.3180 -0.1723  1.6536
 5976SOL     OW25167   3.589   5.524   8.162 -0.0789 -0.2900 -0.0788
 5976SOL    HW125168   3.637   5.444   8.182  0.0017 -0.8601 -2.2835
 5976SOL    HW225169   3.570   5.563   8.248 -0.3041 -2.7480  1.0735
 5977SOL     OW25170   5.502   1.629   7.461  0.0300  0.1618 -0.3290
 5977SOL    HW125171   5.501   1.557   7.398  1.4864  0.5542 -0.8552
 5977SOL    HW225172   5.586   1.619   7.507 -0.0111  1.1766 -0.0047
 5978SOL     OW25173   5.175  11.585   6.734 -0.0224 -0.4323 -1.1138
 5978SOL    HW125174   5.264  11.606   6.763 -0.5008 -0.0166  0.1177
 5978SOL    HW225175   5.185  11.506   6.681  1.0336 -0.6100 -0.6727
 5979SOL     OW25176   4.537  10.758   8.633  0.1945 -0.1576  0.4747
 5979SOL    HW125177   4.575  10.783   8.549 -0.7731  1.4054  0.4609
 5979SOL    HW225178   4.482  10.683   8.612 -0.0084  0.1890 -0.2965
 5980SOL     OW25179   7.034   2.138   0.395  0.4135 -0.2009  0.0999
 5980SOL    HW125180   7.002   2.093   0.474  1.2076 -0.6660  0.1689
 5980SOL    HW225181   7.128   2.119   0.393  0.4923  0.2253 -0.6901
 5981SOL     OW25182   8.861   4.669   5.136  0.1610 -0.3834  0.2123
 5981SOL    HW125183   8.899   4.709   5.058  1.6113  0.2733  1.1953
 5981SOL    HW225184   8.800   4.604   5.103  1.0635 -0.4258 -1.4727
 5982SOL     OW25185   4.730   5.422   2.181 -0.1671  0.4078 -0.4499
 5982SOL    HW125186   4.657   5.407   2.122  0.0530  2.2146 -1.2361
 5982SOL    HW225187   4.791   5.350   2.162 -1.2706 -0.5660 -0.4606
 5983SOL     OW25188  12.288   0.021   6.063 -0.0494  0.1910  0.2690
 5983SOL    HW125189  12.224  -0.012   6.000 -0.3497  0.4558  0.4343
 5983SOL    HW225190  12.294   0.115   6.046 -0.7050  0.3995  1.1331
 5984SOL     OW25191   0.366   3.319  12.111  0.3309 -0.2147  0.6605
 5984SOL    HW125192   0.391   3.231  12.138 -0.4607 -0.3599  0.9242
 5984SOL    HW225193   0.272   3.313  12.092 -0.5621  1.3548  3.9957
 5985SOL     OW25194   6.638   9.762   7.948 -0.2006  0.9151 -0.2266
 5985SOL    HW125195   6.596   9.800   7.871  0.8702  1.5702 -0.5061
 5985SOL    HW225196   6.589   9.682   7.965 -0.2001  0.5452 -1.8387
 5986SOL     OW25197   4.300   0.761   0.568  0.0341  0.1960 -0.1126
 5986SOL    HW125198   4.248   0.755   0.488  1.7320  0.0068 -1.2691
 5986SOL    HW225199   4.316   0.670   0.593  0.0801  0.2449  0.0351
 5987SOL     OW25200   7.871  10.878   6.789  0.2335  0.8288  0.0303
 5987SOL    HW125201   7.902  10.937   6.858 -2.1178  1.1995  0.8667
 5987SOL    HW225202   7.849  10.937   6.716 -0.8001  0.8631  0.3570
 5988SOL     OW25203  11.762   5.845  12.359  0.1220  0.6260  0.2032
 5988SOL    HW125204  11.775   5.754  12.332 -0.6768  0.6700 -0.3640
 5988SOL    HW225205  11.711   5.839  12.440 -2.1600  0.5916 -1.1564
 5989SOL     OW25206   6.507   6.931   4.835  0.3753 -0.3532 -0.5409
 5989SOL    HW125207   6.497   6.873   4.911  0.1435 -0.3493 -0.5699
 5989SOL    HW225208   6.568   6.999   4.865 -0.6028  0.3055  0.0230
 5990SOL     OW25209   8.790   1.369   9.862  0.3423 -0.2294  0.5937
 5990SOL    HW125210   8.730   1.296   9.851 -0.8631  0.5900  1.3958
 5990SOL    HW225211   8.814   1.367   9.955  1.3617 -0.3902  0.3364
 5991SOL     OW25212   3.523   3.752   2.574  0.3834  0.3833 -0.2770
 5991SOL    HW125213   3.586   3.680   2.572 -1.4616 -1.3237 -1.4569
 5991SOL    HW225214   3.467   3.733   2.649 -0.2667  0.3926 -0.7432
 5992SOL     OW25215   1.237  12.371   3.991 -0.5104 -0.2647 -0.6341
 5992SOL    HW125216   1.319  12.363   4.040 -1.3823 -1.7780  0.6705
 5992SOL    HW225217   1.240  12.300   3.928 -0.5348  0.0820 -1.0261
 5993SOL     OW25218   8.754  10.230   5.140 -0.2463 -0.7363  0.1517
 5993SOL    HW125219   8.834  10.277   5.118 -1.3516  0.8104 -0.7188
 5993SOL    HW225220   8.783  10.140   5.157  1.8852  0.1286  1.5230
 5994SOL     OW25221   2.228   6.126  10.324  0.4254  0.1052  0.0205
 5994SOL    HW125222   2.297   6.189  10.302  2.2751 -1.5688  0.7256
 5994SOL    HW225223   2.271   6.040  10.320 -1.3945 -0.9537  1.3441
 5995SOL     OW25224   7.829   9.906   9.275  0.2361 -0.3179 -0.7965
 5995SOL    HW125225   7.798   9.828   9.319  0.5698 -1.0760 -1.8699
 5995SOL    HW225226   7.751   9.959   9.260 -0.0047 -0.4978 -0.1905
 5996SOL     OW25227   9.010   4.917   6.487  0.1397 -0.6587  0.2198
 5996SOL    HW125228   8.965   4.975   6.425  1.2391  0.0894  0.0891
 5996SOL    HW225229   8.949   4.846   6.502 -1.0251  0.2457 -0.0714
 5997SOL     OW25230  10.333   8.989   3.839  0.5845 -0.2696  0.1480
 5997SOL    HW125231  10.272   8.936   3.889  0.4616  0.4344  0.7554
 5997SOL    HW225232  10.418   8.948   3.854  0.2004 -1.7391 -1.3488
 5998SOL     OW25233   3.551   5.656  11.851  0.0949  0.8284  0.2189
 5998SOL    HW125234   3.572   5.625  11.763  0.3211  1.6376 -0.0221
 5998SOL    HW225235   3.627   5.710  11.876  0.3663  0.0195  1.2056
 5999SOL     OW25236   1.390   8.549   6.620  0.3489  0.4793  0.6029
 5999SOL    HW125237   1.408   8.631   6.575 -1.4160  1.4957  1.6569
 5999SOL    HW225238   1.442   8.484   6.573  2.1282  2.2422  0.0035
 6000SOL     OW25239   7.648   5.698   4.185 -0.4573  0.2628 -0.2817
 6000SOL    HW125240   7.685   5.744   4.261  0.3132  0.3345 -0.6899
 6000SOL    HW225241   7.723   5.654   4.145 -1.0543 -0.7553 -0.3273
 6001SOL     OW25242   4.959   8.177   1.813 -0.6986 -0.3557 -0.3107
 6001SOL    HW125243   4.888   8.222   1.860 -0.9997 -1.0695 -0.0765
 6001SOL    HW225244   4.972   8.229   1.734 -1.9885 -0.6245 -0.7166
 6002SOL     OW25245  11.163   7.731   5.957  0.0665  0.7198 -0.1610
 6002SOL    HW125246  11.211   7.779   5.889 -1.2898 -0.1740 -1.8308
 6002SOL    HW225247  11.087   7.695   5.911 -0.6914 -0.2655  1.7713
 6003SOL     OW25248  12.060   8.667  11.197  0.3919  0.2765 -0.2648
 6003SOL    HW125249  12.144   8.684  11.239 -0.1847  1.5029  0.4383
 6003SOL    HW225250  12.064   8.574  11.173  1.0690 -0.2835  1.8088
 6004SOL     OW25251  11.262   3.710  10.914 -0.3185 -0.3747 -0.5257
 6004SOL    HW125252  11.253   3.769  10.989 -0.5265 -1.1582  0.0679
 6004SOL    HW225253  11.194   3.645  10.926 -0.6080 -0.2920 -1.6112
 6005SOL     OW25254   8.439   0.302   0.223 -0.0322 -0.0430 -0.5679
 6005SOL    HW125255   8.411   0.388   0.190 -0.0712  1.2761  2.5744
 6005SOL    HW225256   8.526   0.289   0.183 -0.0986  1.3575 -1.2433
 6006SOL     OW25257   1.739   1.237   7.157  0.2988  0.3119 -0.5057
 6006SOL    HW125258   1.812   1.185   7.122 -0.0234 -0.7349  0.3418
 6006SOL    HW225259   1.781   1.307   7.206  0.7388  0.7769 -1.5139
 6007SOL     OW25260   2.853  12.680   3.436 -0.0959 -0.4702  0.1497
 6007SOL    HW125261   2.822  12.719   3.518  0.7355 -0.3179  0.3985
 6007SOL    HW225262   2.858  12.753   3.374 -0.7994 -0.5980 -0.0779
 6008SOL     OW25263  10.721   3.451   5.251 -0.1944  0.4274  0.1669
 6008SOL    HW125264  10.758   3.367   5.278 -0.3267  0.0148 -0.8935
 6008SOL    HW225265  10.692   3.437   5.161 -1.9139  1.0796  0.5819
 6009SOL     OW25266   1.901   5.389   3.815 -0.3859 -0.3582  0.3233
 6009SOL    HW125267   1.887   5.395   3.910  0.5744 -0.2887  0.4655
 6009SOL    HW225268   1.836   5.325   3.786 -0.0517 -1.1160  1.1762
 6010SOL     OW25269   4.240   4.844  10.726 -0.1412  0.3323  0.4693
 6010SOL    HW125270   4.292   4.786  10.671  1.2969  0.2801  1.7867
 6010SOL    HW225271   4.289   4.926  10.727 -1.4207  1.1286 -0.2557
 6011SOL     OW25272   2.372   6.553  11.157 -0.1232  0.1754  0.2740
 6011SOL    HW125273   2.298   6.579  11.102 -1.1038 -0.5529  1.2365
 6011SOL    HW225274   2.336   6.546  11.245  0.7998 -1.4079  0.5588
 6012SOL     OW25275  12.196  12.436  10.270 -0.7499 -0.0321 -0.8121
 6012SOL    HW125276  12.147  12.469  10.345  0.0969  0.6415 -0.5381
 6012SOL    HW225277  12.250  12.510  10.242 -1.9741  0.1333 -2.8944
 6013SOL     OW25278   9.878   8.140   9.409 -0.8871 -0.3838  0.5328
 6013SOL    HW125279   9.908   8.088   9.335 -0.2732 -0.3190  0.7262
 6013SOL    HW225280   9.896   8.086   9.486  0.7522  0.5005  0.8319
 6014SOL     OW25281   4.130  11.015   4.957 -0.1234  0.3185 -0.0840
 6014SOL    HW125282   4.217  11.054   4.954  0.6901 -1.4191 -0.6137
 6014SOL    HW225283   4.073  11.085   4.989  1.8241  0.8424  2.5205
 6015SOL     OW25284   4.315   9.568   1.899  0.0317  0.2379 -0.2541
 6015SOL    HW125285   4.399   9.585   1.858  0.4198 -2.0110 -0.4958
 6015SOL    HW225286   4.336   9.545   1.990 -0.7710  4.5619  1.3006
 6016SOL     OW25287   4.441   6.607   9.705  0.2951 -0.2650 -0.4937
 6016SOL    HW125288   4.494   6.570   9.634  1.8357  0.6551  0.1233
 6016SOL    HW225289   4.364   6.551   9.709  0.3302 -0.5743 -2.6459
 6017SOL     OW25290   0.790   6.350   9.267 -0.2816  0.1815 -0.1843
 6017SOL    HW125291   0.816   6.325   9.179  1.3417  1.1698 -0.0236
 6017SOL    HW225292   0.861   6.318   9.323 -1.9580 -1.7383  0.9982
 6018SOL     OW25293   6.407  10.100  10.702 -1.1089 -0.2031 -0.2331
 6018SOL    HW125294   6.432  10.010  10.724  2.1518  0.2188 -1.7239
 6018SOL    HW225295   6.317  10.091  10.668 -0.7108 -2.9896 -0.8249
 6019SOL     OW25296   4.594   0.575   8.403  0.2658 -0.1086 -0.2562
 6019SOL    HW125297   4.606   0.586   8.308 -0.5163 -0.6447 -0.4381
 6019SOL    HW225298   4.590   0.480   8.415 -0.3737 -0.0311  0.2028
 6020SOL     OW25299   2.540  12.006   2.312 -0.1586 -0.6240  0.1720
 6020SOL    HW125300   2.534  12.027   2.219 -2.2722 -2.6906 -0.2438
 6020SOL    HW225301   2.563  11.913   2.315 -0.6380 -0.7243  1.6922
 6021SOL     OW25302   3.569   1.570   4.076 -0.0193 -0.2433  0.4893
 6021SOL    HW125303   3.496   1.613   4.121 -0.4106  1.9305 -1.9465
 6021SOL    HW225304   3.576   1.484   4.118 -3.1017 -0.0299  1.7146
 6022SOL     OW25305   2.024  10.598   8.105  0.4598 -0.3534 -0.1298
 6022SOL    HW125306   2.058  10.634   8.187  0.1088 -1.0828  0.3508
 6022SOL    HW225307   1.979  10.671   8.063  2.5093  0.6062 -0.7343
 6023SOL     OW25308   3.910   2.595   8.082  0.3002  0.6972 -0.4291
 6023SOL    HW125309   3.839   2.555   8.031 -0.1128 -0.1525  0.7724
 6023SOL    HW225310   3.969   2.632   8.016 -0.5473  0.2017 -1.4967
 6024SOL     OW25311   3.849  10.799   5.480 -0.0259  0.2153  0.2502
 6024SOL    HW125312   3.882  10.810   5.569 -0.1849 -2.0852  0.6418
 6024SOL    HW225313   3.777  10.862   5.474  1.6910  2.3689  0.7599
 6025SOL     OW25314   2.448   5.932   7.809 -0.2651  0.5930 -0.0027
 6025SOL    HW125315   2.389   5.884   7.867 -0.8025  1.4768  0.1941
 6025SOL    HW225316   2.527   5.944   7.862 -0.5783  0.9796  0.3836
 6026SOL     OW25317  10.232   3.061   0.236  0.0495  0.6078 -0.7596
 6026SOL    HW125318  10.274   3.147   0.231  0.1220  0.5525 -1.2068
 6026SOL    HW225319  10.217   3.037   0.144  0.9532 -0.3062 -0.6902
 6027SOL     OW25320   1.674   2.689   8.960  0.3455 -0.1339  0.4226
 6027SOL    HW125321   1.726   2.766   8.939  0.1564 -0.3294 -0.8543
 6027SOL    HW225322   1.587   2.707   8.922  0.3689 -1.0523 -0.0989
 6028SOL     OW25323   6.361   0.599   5.416  0.1961 -0.2170  0.1721
 6028SOL    HW125324   6.362   0.690   5.385  1.0282  0.2928  1.6337
 6028SOL    HW225325   6.269   0.573   5.410  0.1424  0.2605 -1.4949
 6029SOL     OW25326   3.680   2.621  12.099 -0.1199  0.0169 -0.3608
 6029SOL    HW125327   3.584   2.618  12.097 -0.2742  2.7785 -2.1179
 6029SOL    HW225328   3.701   2.655  12.187 -0.8088  0.2250 -0.2710
 6030SOL     OW25329   9.924   5.934   2.670 -0.1593  0.7075 -0.0739
 6030SOL    HW125330   9.878   5.861   2.629 -1.4061  0.1625  2.1540
 6030SOL    HW225331   9.980   5.969   2.600  1.4099 -3.0631 -0.9901
 6031SOL     OW25332   2.173  12.392   5.523  0.3990 -0.3130 -0.3283
 6031SOL    HW125333   2.227  12.327   5.568 -2.2765 -1.8690  0.8290
 6031SOL    HW225334   2.140  12.449   5.592  0.0813  0.2491 -0.9283
 6032SOL     OW25335   4.319   6.031   4.791 -0.1054  0.2149 -0.1463
 6032SOL    HW125336   4.316   6.028   4.886  0.2304  1.4701 -0.0751
 6032SOL    HW225337   4.401   5.987   4.769  0.2264  0.6481  0.2020
 6033SOL     OW25338   4.890   4.524   5.404  0.1764  0.7210  0.2515
 6033SOL    HW125339   4.957   4.504   5.470  0.4271  2.0477  0.4397
 6033SOL    HW225340   4.848   4.440   5.385  0.1235  0.2948  2.0865
 6034SOL     OW25341   4.043   1.876   3.001  0.0183  0.1102 -0.1013
 6034SOL    HW125342   4.076   1.937   3.067  1.9408  0.1072 -0.9958
 6034SOL    HW225343   4.028   1.795   3.049  0.8274  0.2755  0.4591
 6035SOL     OW25344   7.536   5.283   7.255 -0.4644  0.1604  0.4423
 6035SOL    HW125345   7.533   5.204   7.309 -0.8136 -0.6519 -0.7348
 6035SOL    HW225346   7.467   5.339   7.292  0.1618  0.1675  1.6343
 6036SOL     OW25347   5.035   1.916   9.234 -0.4744  0.4416  0.4181
 6036SOL    HW125348   5.049   1.989   9.295 -0.5141  0.8301 -0.0334
 6036SOL    HW225349   5.122   1.875   9.226 -0.2551  0.9886 -0.0200
 6037SOL     OW25350   1.627  11.480   8.595  0.5399 -0.4640 -0.0222
 6037SOL    HW125351   1.692  11.474   8.665 -1.3982 -2.3794  1.7431
 6037SOL    HW225352   1.657  11.554   8.542  3.2373 -0.2397  1.6011
 6038SOL     OW25353   4.603   2.137  10.661 -0.3618 -0.1711  0.5256
 6038SOL    HW125354   4.626   2.202  10.594  1.2694 -1.5340 -0.3203
 6038SOL    HW225355   4.663   2.156  10.733 -1.3373  0.5692  1.1642
 6039SOL     OW25356   5.684  11.883   2.043  0.0479  0.0996 -0.2472
 6039SOL    HW125357   5.770  11.890   2.083 -0.7917  0.6135  1.5766
 6039SOL    HW225358   5.627  11.850   2.113 -1.6542  1.7425 -0.7468
 6040SOL     OW25359   7.572   9.727   0.327  0.2968 -0.0621  0.5128
 6040SOL    HW125360   7.519   9.648   0.323  0.1970  0.0559 -1.8138
 6040SOL    HW225361   7.519   9.793   0.281  1.5564  0.6006 -0.0158
 6041SOL     OW25362   3.400   0.792   5.124  0.1720  0.3680 -0.1716
 6041SOL    HW125363   3.401   0.882   5.091 -0.2914  0.4015 -0.1092
 6041SOL    HW225364   3.492   0.767   5.131  0.2945  0.4498 -1.2522
 6042SOL     OW25365   3.657   4.637   0.416 -0.0363  0.1076 -0.6076
 6042SOL    HW125366   3.703   4.595   0.343  0.5608  0.5726 -0.5023
 6042SOL    HW225367   3.578   4.583   0.429 -1.0031  0.9131 -2.6416
 6043SOL     OW25368  10.829   2.670   3.228  0.1041 -0.1553 -0.0703
 6043SOL    HW125369  10.812   2.755   3.190  1.7965  0.4118  0.3161
 6043SOL    HW225370  10.924   2.670   3.244 -0.0141 -1.7207  0.8463
 6044SOL     OW25371   7.414   9.001   1.948 -0.2284 -0.2052  0.0016
 6044SOL    HW125372   7.411   9.096   1.964 -0.3975 -0.2446  0.2119
 6044SOL    HW225373   7.504   8.976   1.970  0.1907  0.1144 -1.2827
 6045SOL     OW25374  12.466  11.261   5.820 -0.2823 -0.4958 -0.2479
 6045SOL    HW125375  12.536  11.231   5.763 -1.1684  0.4800 -1.9339
 6045SOL    HW225376  12.427  11.181   5.854  0.4372 -1.1017 -0.8162
 6046SOL     OW25377  12.672   5.057   4.300  0.1255  0.1901  0.1923
 6046SOL    HW125378  12.588   5.096   4.325 -0.9577 -1.0204 -1.3610
 6046SOL    HW225379  12.731   5.079   4.372 -1.4201  1.3632  1.1680
 6047SOL     OW25380   2.179   1.571  10.072 -0.1276 -0.2459  0.1509
 6047SOL    HW125381   2.102   1.601  10.024  0.2454  1.9396  0.8308
 6047SOL    HW225382   2.177   1.476  10.063 -2.2160 -0.1567 -0.8768
 6048SOL     OW25383   9.487  10.568  10.320  0.3020 -0.3835 -0.2894
 6048SOL    HW125384   9.549  10.502  10.290  1.7793 -0.0283  1.7660
 6048SOL    HW225385   9.475  10.626  10.245  1.8960 -0.8860 -0.9649
 6049SOL     OW25386   7.781   2.800   8.290 -0.2818  0.0013 -0.3514
 6049SOL    HW125387   7.772   2.728   8.227 -1.3234 -0.0321 -0.1798
 6049SOL    HW225388   7.863   2.843   8.265  0.4202 -1.3024 -0.3917
 6050SOL     OW25389  11.793  10.599   5.960  0.6455  0.3111 -0.6473
 6050SOL    HW125390  11.877  10.574   5.922  0.3788  0.5258 -1.4184
 6050SOL    HW225391  11.728  10.560   5.901  0.2179  1.6252 -1.0908
 6051SOL     OW25392   0.208  12.434   3.970  0.0798 -0.1813  0.0194
 6051SOL    HW125393   0.124  12.389   3.959  0.2721 -0.9754  1.5609
 6051SOL    HW225394   0.184  12.523   3.997 -0.2746 -0.3367  0.2266
 6052SOL     OW25395   5.056  10.085   1.960 -0.2968 -0.0299  0.3203
 6052SOL    HW125396   5.107  10.055   2.035 -0.7842 -2.5273 -0.2617
 6052SOL    HW225397   5.120  10.091   1.889 -0.3046 -0.3208  0.2880
 6053SOL     OW25398   0.472   5.614   4.888 -0.2074  0.1568  0.1058
 6053SOL    HW125399   0.565   5.623   4.910  0.6170 -1.3503 -2.2777
 6053SOL    HW225400   0.454   5.689   4.832 -0.2446  0.1491  0.1075
 6054SOL     OW25401   8.087   4.503   1.242  0.2212  0.1482 -0.4128
 6054SOL    HW125402   8.161   4.560   1.226  0.0631  1.2670  2.2849
 6054SOL    HW225403   8.125   4.420   1.270  0.4451  0.1558 -0.6956
 6055SOL     OW25404  10.073   6.556  12.158 -0.6892  0.0810 -0.0436
 6055SOL    HW125405  10.167   6.575  12.146 -0.6482 -0.2803 -0.2795
 6055SOL    HW225406  10.066   6.532  12.250 -0.5829  0.2907  0.0224
 6056SOL     OW25407   0.267   6.927   3.954 -0.8159 -0.2247  0.6094
 6056SOL    HW125408   0.320   7.005   3.940 -2.4030  1.0196  1.1331
 6056SOL    HW225409   0.271   6.880   3.871 -0.9125  1.1261 -0.1833
 6057SOL     OW25410  11.041   5.575  12.250  0.0341 -0.2742 -0.1392
 6057SOL    HW125411  11.036   5.632  12.326  0.4499  0.1783 -0.4464
 6057SOL    HW225412  11.126   5.531  12.258  0.8193  0.9854 -1.1759
 6058SOL     OW25413   5.439   7.313   8.827 -0.0722  0.3697  0.0261
 6058SOL    HW125414   5.365   7.286   8.773 -0.2041 -0.0067  0.3910
 6058SOL    HW225415   5.431   7.408   8.833  0.3358  0.4920 -1.1814
 6059SOL     OW25416   3.464   8.321  12.629  0.3638  0.3737  0.6438
 6059SOL    HW125417   3.475   8.360  12.542  0.4251 -1.2893 -0.1205
 6059SOL    HW225418   3.552   8.301  12.659  0.3014  0.3160  0.7922
 6060SOL     OW25419   6.245   9.037   1.180  0.4004  0.4243  0.3809
 6060SOL    HW125420   6.292   8.969   1.132  1.9392  1.3086  0.5881
 6060SOL    HW225421   6.292   9.118   1.160  0.8601  0.8999  3.0292
 6061SOL     OW25422  11.493   0.397   3.867 -0.1940  0.4291 -0.4501
 6061SOL    HW125423  11.568   0.341   3.890 -0.0517  0.9384  0.3738
 6061SOL    HW225424  11.425   0.372   3.930 -0.6856  0.0517 -1.1191
 6062SOL     OW25425   3.051  11.937   6.390 -0.1711 -0.4590 -0.3648
 6062SOL    HW125426   3.018  11.904   6.307  2.2541  0.3393 -1.7417
 6062SOL    HW225427   3.114  12.005   6.366  0.3455  0.0664  2.1508
 6063SOL     OW25428   6.549   5.077   8.625 -0.3757  0.1335 -0.2638
 6063SOL    HW125429   6.504   5.042   8.548  1.9322 -0.9829 -1.2289
 6063SOL    HW225430   6.514   5.027   8.699 -1.1135 -0.2763 -0.8791
 6064SOL     OW25431   2.002   7.066   2.357  1.2669  0.4588  0.0600
 6064SOL    HW125432   2.086   7.104   2.331 -0.0577  1.7140 -2.8498
 6064SOL    HW225433   1.937   7.109   2.300 -1.4335 -0.1912  2.4098
 6065SOL     OW25434   9.172   5.601   1.874 -0.6458 -0.8133  0.0627
 6065SOL    HW125435   9.104   5.582   1.809 -0.5086  0.1698 -0.3808
 6065SOL    HW225436   9.254   5.586   1.828 -0.5461  0.0354 -0.0459
 6066SOL     OW25437   8.426   3.004   5.364 -0.2906 -0.0314 -0.2875
 6066SOL    HW125438   8.481   3.073   5.403 -0.2700  0.0311 -0.4250
 6066SOL    HW225439   8.379   2.966   5.438 -0.9774  0.7348 -0.3232
 6067SOL     OW25440   9.838   6.499  12.016  1.0178  0.4634  0.0145
 6067SOL    HW125441   9.799   6.426  12.065  0.4101  2.0096  1.9655
 6067SOL    HW225442   9.919   6.518  12.062 -0.8007  3.6602  2.3094
 6068SOL     OW25443   9.711  10.660   6.879  0.2178  0.1250  0.1030
 6068SOL    HW125444   9.646  10.670   6.810  1.1638  0.5961 -0.7446
 6068SOL    HW225445   9.662  10.668   6.961 -0.6068  1.5708 -0.5161
 6069SOL     OW25446  12.356   5.923   4.876  0.3767 -0.0255  0.6230
 6069SOL    HW125447  12.288   5.973   4.830  2.5841  0.9753 -1.7769
 6069SOL    HW225448  12.365   5.842   4.824  0.9595 -0.1865  0.9724
 6070SOL     OW25449   2.808  12.438   0.846 -0.0457 -0.2942  0.0483
 6070SOL    HW125450   2.721  12.451   0.809 -0.0515  1.2072  0.5518
 6070SOL    HW225451   2.809  12.346   0.872 -0.0437 -1.5177 -3.6374
 6071SOL     OW25452  11.390   7.309  10.816  0.2721  0.1050  0.0772
 6071SOL    HW125453  11.459   7.317  10.883  0.3014  1.9475 -0.1434
 6071SOL    HW225454  11.427   7.349  10.738 -0.4572 -0.3701 -0.5283
 6072SOL     OW25455  11.953   6.149   6.710  0.0900 -0.2260  0.3407
 6072SOL    HW125456  12.035   6.176   6.669  0.0891 -0.7323 -0.0149
 6072SOL    HW225457  11.911   6.093   6.644 -1.3389  1.3554 -0.1650
 6073SOL     OW25458  12.224   7.231   5.074 -0.4969 -0.0895 -0.4476
 6073SOL    HW125459  12.219   7.140   5.045 -1.3137  0.0818 -0.8660
 6073SOL    HW225460  12.144   7.271   5.041 -0.5264  0.5880  0.4215
 6074SOL     OW25461   7.513   5.648   7.346  0.2004  0.1726 -0.1570
 6074SOL    HW125462   7.503   5.709   7.419 -0.2679  0.1382 -0.1890
 6074SOL    HW225463   7.449   5.579   7.363 -0.0823  0.2873 -0.7204
 6075SOL     OW25464   3.794  12.648   3.694  0.1177 -0.2412 -0.0725
 6075SOL    HW125465   3.712  12.678   3.654 -0.5507 -1.3362  0.4430
 6075SOL    HW225466   3.812  12.564   3.652 -0.5248 -1.3490  1.7476
 6076SOL     OW25467   6.319   1.235   4.738  0.2433  0.2312  0.4949
 6076SOL    HW125468   6.289   1.147   4.761  0.2880  0.3084  0.8498
 6076SOL    HW225469   6.313   1.238   4.643  0.5859 -0.2813  0.4515
 6077SOL     OW25470   7.319   5.382   4.889  0.2328  0.4469 -0.2192
 6077SOL    HW125471   7.361   5.384   4.803  0.4316 -2.1461 -0.2637
 6077SOL    HW225472   7.234   5.341   4.872 -0.6894  1.9858  0.5030
 6078SOL     OW25473   8.810   7.014   8.914  0.3874  0.1593 -0.0157
 6078SOL    HW125474   8.800   7.035   9.007  2.3049 -0.8615  0.4614
 6078SOL    HW225475   8.895   7.051   8.889  0.4814 -0.6854 -1.0285
 6079SOL     OW25476   2.240   2.242   6.608  0.0986  0.0054  0.3703
 6079SOL    HW125477   2.174   2.176   6.631 -0.9666  0.7765 -0.3397
 6079SOL    HW225478   2.317   2.217   6.658 -0.4990 -1.3576  0.6812
 6080SOL     OW25479   9.823  12.290   1.576  0.5899 -0.6710  0.5597
 6080SOL    HW125480   9.860  12.377   1.560 -0.5233 -0.3917 -0.6154
 6080SOL    HW225481   9.780  12.297   1.662 -0.1912  0.1892  0.1140
 6081SOL     OW25482   2.818   9.508   1.356  1.0079  0.7090 -0.2931
 6081SOL    HW125483   2.862   9.431   1.392 -0.0594  1.1144  2.0583
 6081SOL    HW225484   2.734   9.476   1.324  0.4907  0.8558  0.8415
 6082SOL     OW25485  12.183   9.754   7.738  0.4993  0.3332 -0.0469
 6082SOL    HW125486  12.116   9.722   7.678  0.7904 -0.2422 -0.0655
 6082SOL    HW225487  12.245   9.682   7.746  0.1738  0.1938  1.3772
 6083SOL     OW25488  12.015   2.764   5.073 -0.5653 -0.6168 -0.5181
 6083SOL    HW125489  12.104   2.789   5.100 -0.6783  0.8374 -1.3779
 6083SOL    HW225490  11.958   2.810   5.135 -0.7469  0.1232 -1.2218
 6084SOL     OW25491   0.427   1.468   7.654  0.4721  0.1248  0.4191
 6084SOL    HW125492   0.517   1.451   7.625 -0.4145 -3.3788 -0.8646
 6084SOL    HW225493   0.386   1.512   7.580  1.1019  2.0279  1.1283
 6085SOL     OW25494   3.685  11.321   3.375 -0.0120 -0.6733 -0.0342
 6085SOL    HW125495   3.648  11.409   3.362  0.0809 -0.5457  0.5287
 6085SOL    HW225496   3.658  11.272   3.297 -1.3017 -0.5685  0.3234
 6086SOL     OW25497  10.457   7.699   2.294 -0.3249 -0.0400 -0.0017
 6086SOL    HW125498  10.492   7.740   2.373 -1.3876  1.8117 -0.4157
 6086SOL    HW225499  10.399   7.630   2.326  3.1203 -2.8811  0.6926
 6087SOL     OW25500   0.710  11.222   5.221 -0.0710 -0.0473 -0.6376
 6087SOL    HW125501   0.802  11.195   5.231 -0.3389 -1.6261 -2.0270
 6087SOL    HW225502   0.713  11.292   5.157  0.1569 -0.1094 -0.6983
 6088SOL     OW25503   0.159   3.107   2.248 -0.2635 -0.0242 -0.1474
 6088SOL    HW125504   0.143   3.091   2.341 -1.0051  1.2311 -0.0399
 6088SOL    HW225505   0.233   3.051   2.227  1.2447  1.1496  1.7008
 6089SOL     OW25506   3.039   9.476  10.900 -0.6073  0.4326 -0.4167
 6089SOL    HW125507   2.973   9.426  10.947  0.1029  0.2537  0.4166
 6089SOL    HW225508   3.042   9.560  10.946  0.3934  0.1011  0.1440
 6090SOL     OW25509   3.663   4.266  12.280  0.5214 -0.3726 -0.6327
 6090SOL    HW125510   3.670   4.340  12.341 -0.4163 -1.5015  0.9101
 6090SOL    HW225511   3.753   4.236  12.268  0.7549  0.0824 -0.0630
 6091SOL     OW25512   3.493  10.811   8.050  0.0192  0.3089 -0.3774
 6091SOL    HW125513   3.449  10.894   8.029  1.3456  0.7604 -1.5735
 6091SOL    HW225514   3.429  10.761   8.099 -1.7596  1.0180 -1.8613
 6092SOL     OW25515   3.942   7.210  10.550 -0.7095  0.1688  0.0398
 6092SOL    HW125516   3.903   7.295  10.533 -0.1892  0.3363 -0.3170
 6092SOL    HW225517   4.010   7.227  10.616  1.5118  0.5857 -2.2133
 6093SOL     OW25518   2.482  10.054   1.604 -0.0336 -0.0386 -0.0255
 6093SOL    HW125519   2.568  10.096   1.614  1.1102 -1.9888 -1.0409
 6093SOL    HW225520   2.469  10.049   1.509  0.5736 -3.1462 -0.0414
 6094SOL     OW25521   8.343   3.690   0.043 -0.2994  0.4154 -0.2626
 6094SOL    HW125522   8.414   3.741   0.082  0.4940  2.0242 -3.4505
 6094SOL    HW225523   8.387   3.622  -0.008 -1.1716 -0.1835 -0.2367
 6095SOL     OW25524   2.633   4.609   7.069 -0.1857 -0.1141 -0.3813
 6095SOL    HW125525   2.591   4.537   7.021  2.5138 -2.1287  0.0659
 6095SOL    HW225526   2.702   4.640   7.011 -0.5119  1.3406 -0.0405
 6096SOL     OW25527   9.439   5.402   4.078 -0.3269 -0.1222  0.1765
 6096SOL    HW125528   9.419   5.482   4.029  0.2124 -0.7265 -1.0676
 6096SOL    HW225529   9.436   5.333   4.013 -0.9595 -1.1624  1.2722
 6097SOL     OW25530   0.846   7.465  10.193  0.5752  0.5010 -0.0312
 6097SOL    HW125531   0.788   7.440  10.265  2.3105 -0.2334  1.1794
 6097SOL    HW225532   0.859   7.559  10.204 -0.0143  0.5936 -0.0634
 6098SOL     OW25533   3.889   2.386   7.487 -0.5333  0.5086 -0.5559
 6098SOL    HW125534   3.955   2.398   7.555  1.2291  1.1574 -2.3011
 6098SOL    HW225535   3.816   2.441   7.516 -0.3886 -0.2693  1.4405
 6099SOL     OW25536   3.637   9.888   6.482  0.4765  0.6477 -0.1183
 6099SOL    HW125537   3.687   9.950   6.429 -0.9349  0.0453 -2.3112
 6099SOL    HW225538   3.688   9.807   6.479  0.1563  0.4678 -1.0522
 6100SOL     OW25539   0.085   5.627  10.645  0.2894 -0.2964  0.1348
 6100SOL    HW125540   0.037   5.688  10.588  3.0456  0.2830 -1.7429
 6100SOL    HW225541   0.028   5.550  10.650 -1.3873  0.7915 -0.9465
 6101SOL     OW25542   4.524   9.899   2.603  0.1509  0.2360  0.5340
 6101SOL    HW125543   4.474   9.817   2.609  0.4785  0.0952  1.5545
 6101SOL    HW225544   4.545   9.907   2.510 -0.3629 -0.5529  0.3342
 6102SOL     OW25545  11.658  11.551   3.404  0.5945 -0.0359  0.0333
 6102SOL    HW125546  11.618  11.555   3.491 -1.4628 -2.3772 -0.7078
 6102SOL    HW225547  11.744  11.512   3.419  1.3337  1.8859  1.2446
 6103SOL     OW25548   0.629   5.522   1.618 -0.8999 -0.1158  0.6409
 6103SOL    HW125549   0.593   5.523   1.529 -0.3856  0.0405  0.4318
 6103SOL    HW225550   0.572   5.462   1.666 -0.2171 -1.4713 -0.1971
 6104SOL     OW25551   7.404   2.887   4.787 -0.2301  0.0516 -0.2117
 6104SOL    HW125552   7.454   2.919   4.711 -1.4067  1.1535 -0.5587
 6104SOL    HW225553   7.392   2.965   4.842  1.4663 -0.9119  1.6704
 6105SOL     OW25554  12.255   0.076  10.790 -0.4399  0.1549  0.0062
 6105SOL    HW125555  12.347   0.102  10.794 -0.3398 -0.1647 -0.1732
 6105SOL    HW225556  12.233   0.080  10.697 -0.0846 -1.5374 -0.1756
 6106SOL     OW25557  11.623  10.022   9.077 -0.1280 -0.4473 -0.7562
 6106SOL    HW125558  11.552  10.063   9.027 -0.7954 -0.2349  0.3249
 6106SOL    HW225559  11.697  10.082   9.067 -1.1968  1.3290  1.1382
 6107SOL     OW25560   3.003   7.535  10.871 -0.0322  0.7846  0.0643
 6107SOL    HW125561   3.057   7.543  10.792 -1.5797 -0.0063 -1.1236
 6107SOL    HW225562   3.062   7.496  10.935  1.2756  1.4622 -0.6754
 6108SOL     OW25563   3.787   8.946   4.212  0.8251 -0.1370 -0.5111
 6108SOL    HW125564   3.726   9.013   4.182 -0.5408 -0.3104  1.6832
 6108SOL    HW225565   3.856   8.995   4.256 -0.2660 -0.0892  1.2562
 6109SOL     OW25566   8.005  11.354   0.090  0.3543  0.7147  0.0302
 6109SOL    HW125567   7.991  11.445   0.117 -1.4168  0.4801  0.0200
 6109SOL    HW225568   7.918  11.322   0.069  1.2245 -0.2835 -2.3271
 6110SOL     OW25569   8.868   5.104   1.491  0.0368 -0.3552  0.4197
 6110SOL    HW125570   8.942   5.110   1.551  0.5188  0.4062 -0.2374
 6110SOL    HW225571   8.815   5.181   1.512 -0.2456 -0.5558  0.4499
 6111SOL     OW25572   8.461   1.842   4.218 -0.4341  0.1348  0.1585
 6111SOL    HW125573   8.379   1.839   4.168  0.6556  0.4058 -1.7059
 6111SOL    HW225574   8.451   1.773   4.284 -2.5190  0.7510  0.5800
 6112SOL     OW25575  11.460   7.916   1.229  0.3213 -0.2270  0.8803
 6112SOL    HW125576  11.454   7.883   1.319  0.9239 -1.6414  0.4195
 6112SOL    HW225577  11.418   8.002   1.233 -0.4214 -0.6187  2.3322
 6113SOL     OW25578   5.115   8.700  12.709  0.4143 -0.0687  0.0684
 6113SOL    HW125579   5.039   8.645  12.728 -0.4582  1.3266  0.7592
 6113SOL    HW225580   5.078   8.778  12.668  1.3911  0.9590  1.0863
 6114SOL     OW25581   6.298   0.266   5.564 -0.2993  0.0095 -0.2831
 6114SOL    HW125582   6.292   0.199   5.632 -0.5948 -1.9412 -2.1321
 6114SOL    HW225583   6.354   0.334   5.602  1.0993 -1.8734  1.2001
 6115SOL     OW25584   0.617   0.973  12.150 -0.0462 -0.3319 -0.6698
 6115SOL    HW125585   0.582   0.978  12.239 -0.9878 -3.5624 -0.7280
 6115SOL    HW225586   0.540   0.966  12.094  0.5572  1.0004 -1.7206
 6116SOL     OW25587   4.250  10.559   4.730  0.4236  0.0374  0.1165
 6116SOL    HW125588   4.257  10.610   4.811  2.0682  0.2328 -0.1248
 6116SOL    HW225589   4.215  10.474   4.758 -0.6344  0.6621  0.7711
 6117SOL     OW25590   1.152   7.352  10.856  1.1804 -0.0930  0.1629
 6117SOL    HW125591   1.182   7.443  10.856 -0.9590  0.6727 -1.0171
 6117SOL    HW225592   1.069   7.354  10.904  0.9324 -1.3661 -0.1915
 6118SOL     OW25593  12.130   5.788   3.061 -0.0242 -0.2985  0.2346
 6118SOL    HW125594  12.112   5.742   2.979  0.3060  0.8871 -0.5232
 6118SOL    HW225595  12.224   5.777   3.075 -0.1002 -0.5972  0.5191
 6119SOL     OW25596   8.718   0.622   8.705 -0.4462  0.4211  0.4493
 6119SOL    HW125597   8.736   0.669   8.624 -0.5860 -1.2992 -0.6303
 6119SOL    HW225598   8.746   0.682   8.774  0.6929  1.5069 -0.8916
 6120SOL     OW25599  10.370  10.097   9.687 -0.0268  0.1458 -0.0309
 6120SOL    HW125600  10.438  10.060   9.632 -0.3510  2.1199 -1.8877
 6120SOL    HW225601  10.290  10.051   9.661  0.3069 -1.2141  1.1921
 6121SOL     OW25602   9.207   4.571   0.251 -0.9228  0.0379  0.0172
 6121SOL    HW125603   9.129   4.626   0.249  0.0447  1.5004 -2.1744
 6121SOL    HW225604   9.279   4.630   0.227  0.2169 -2.0702 -2.2756
 6122SOL     OW25605   4.244   0.103   6.221  0.7664  0.8455 -0.1206
 6122SOL    HW125606   4.203   0.188   6.240 -0.6138 -0.1129  1.5081
 6122SOL    HW225607   4.326   0.104   6.269  1.2560  1.6117 -0.9318
 6123SOL     OW25608   2.798   7.221   7.148  0.0358 -0.5064 -0.3008
 6123SOL    HW125609   2.800   7.258   7.236  1.0056 -0.2258 -0.4399
 6123SOL    HW225610   2.813   7.127   7.162 -0.1841 -0.5206 -0.1419
 6124SOL     OW25611   8.869   8.705   0.557 -0.1389  0.2420 -0.1852
 6124SOL    HW125612   8.892   8.709   0.464 -0.1151 -0.3558 -0.2086
 6124SOL    HW225613   8.885   8.794   0.589  2.0308 -0.0521 -0.2565
 6125SOL     OW25614   1.922  10.939  11.028 -0.3090 -0.0089 -0.3907
 6125SOL    HW125615   1.891  10.883  10.958 -1.4583 -0.5465  0.5126
 6125SOL    HW225616   1.905  11.028  10.998 -0.9563 -0.2383 -0.7076
 6126SOL     OW25617   8.973   0.925   0.840 -0.1974 -0.3556  0.1547
 6126SOL    HW125618   9.007   1.014   0.835 -0.9816 -0.0871 -0.5008
 6126SOL    HW225619   9.022   0.885   0.912  1.6476 -0.0570 -0.8803
 6127SOL     OW25620   8.963   4.092   4.738 -0.0886 -0.7210  0.0865
 6127SOL    HW125621   8.927   4.141   4.664  1.2545 -0.4386 -0.4076
 6127SOL    HW225622   8.912   4.122   4.813 -1.3868 -0.9147 -0.6799
 6128SOL     OW25623  11.117   1.092   9.482 -0.0426 -0.3093 -0.0814
 6128SOL    HW125624  11.139   1.004   9.452 -0.3723  0.7309 -3.9342
 6128SOL    HW225625  11.027   1.086   9.513 -0.9235 -1.0089 -2.5373
 6129SOL     OW25626  10.534   5.909  11.890 -0.2402  0.1665  0.4116
 6129SOL    HW125627  10.549   5.825  11.933 -0.5583 -0.3287 -0.4155
 6129SOL    HW225628  10.505   5.968  11.960 -0.2529 -0.4757  0.9515
 6130SOL     OW25629   1.312   8.732  11.835 -0.0688  0.3835 -0.0059
 6130SOL    HW125630   1.281   8.822  11.829 -0.8924  0.0344 -1.1000
 6130SOL    HW225631   1.356   8.728  11.920 -0.8328  1.5598  0.4630
 6131SOL     OW25632   3.150   9.137   7.723  0.1648 -0.0255 -0.2167
 6131SOL    HW125633   3.234   9.172   7.753  1.8282 -2.3860 -1.7169
 6131SOL    HW225634   3.137   9.058   7.776 -1.2780  0.4486  0.1730
 6132SOL     OW25635   8.149   5.141   8.916 -0.2024 -0.0679  0.2281
 6132SOL    HW125636   8.146   5.160   9.010  0.5608 -3.4972  1.0449
 6132SOL    HW225637   8.231   5.179   8.886  0.4801 -0.5942  1.3866
 6133SOL     OW25638   3.860  11.166  11.458  0.2074 -0.2485 -0.4249
 6133SOL    HW125639   3.925  11.115  11.506  0.8819 -0.7229 -1.7797
 6133SOL    HW225640   3.818  11.221  11.524  1.2263 -0.7370  0.6533
 6134SOL     OW25641   3.703   9.611   2.309 -0.2520 -0.5503 -0.1734
 6134SOL    HW125642   3.769   9.664   2.353 -1.4670  0.5924  0.3746
 6134SOL    HW225643   3.666   9.670   2.243 -1.8152 -0.5876  0.6227
 6135SOL     OW25644   3.386   3.548  11.953 -0.3167 -0.2564  0.0132
 6135SOL    HW125645   3.334   3.548  12.034  1.7577 -0.0330  1.4354
 6135SOL    HW225646   3.441   3.626  11.960 -0.0747 -0.2404 -1.6400
 6136SOL     OW25647   0.084   9.764   4.646 -0.0615 -0.4145  0.5703
 6136SOL    HW125648   0.023   9.695   4.621 -0.6752  0.3516 -0.1055
 6136SOL    HW225649   0.030   9.830   4.689  0.0758  0.7265 -0.9045
 6137SOL     OW25650   5.623   3.280   0.480 -0.6233 -0.1482 -0.2467
 6137SOL    HW125651   5.549   3.270   0.539 -0.7552  0.3890 -0.3151
 6137SOL    HW225652   5.589   3.254   0.394 -1.0515  1.1184 -0.4809
 6138SOL     OW25653   1.638   4.327  12.125 -0.0430  0.2944 -0.7987
 6138SOL    HW125654   1.605   4.409  12.161  0.1480  0.1465 -0.2775
 6138SOL    HW225655   1.652   4.345  12.032 -0.9679  0.5461 -0.8978
 6139SOL     OW25656   1.980   0.885   5.169  0.2965  0.0652  0.1312
 6139SOL    HW125657   1.917   0.832   5.217  0.5997 -0.3305  0.1031
 6139SOL    HW225658   2.061   0.877   5.219  0.6092 -0.3311 -0.4208
 6140SOL     OW25659   5.200   1.921   3.859 -0.2756  0.5319  0.3643
 6140SOL    HW125660   5.182   1.986   3.792  0.4783  1.2808  0.8640
 6140SOL    HW225661   5.155   1.842   3.829 -1.5519  1.3844 -0.0464
 6141SOL     OW25662   3.063   1.689  10.296 -0.4335 -0.5119  0.6994
 6141SOL    HW125663   3.059   1.768  10.351  0.6156 -0.2071  0.3635
 6141SOL    HW225664   3.132   1.636  10.336  0.3674 -0.2692 -0.3227
 6142SOL     OW25665   9.209   4.408   9.751  0.3143  0.0754 -0.3157
 6142SOL    HW125666   9.281   4.381   9.694 -1.5724 -2.2513 -1.7680
 6142SOL    HW225667   9.251   4.425   9.836  2.7947  0.7142 -1.5546
 6143SOL     OW25668   3.190   8.176   4.719  0.0035 -0.5828 -0.4829
 6143SOL    HW125669   3.247   8.242   4.679  3.4113 -1.1636  2.7791
 6143SOL    HW225670   3.216   8.094   4.677 -0.2164 -0.5301 -0.7200
 6144SOL     OW25671   5.738  11.268   5.297  0.1612 -0.2728  0.3840
 6144SOL    HW125672   5.816  11.317   5.268  0.9195 -1.9776 -0.6438
 6144SOL    HW225673   5.669  11.334   5.303  0.9259  0.8263 -1.7047
 6145SOL     OW25674   3.527   2.583   6.272 -0.0573 -0.2664 -0.3723
 6145SOL    HW125675   3.467   2.656   6.285  0.6022  0.4103 -1.0957
 6145SOL    HW225676   3.556   2.591   6.182 -0.2127 -1.6154 -0.5615
 6146SOL     OW25677   1.219   3.826   6.025 -0.5383 -0.1028 -0.3871
 6146SOL    HW125678   1.307   3.860   6.007 -0.6125 -0.3715 -1.3164
 6146SOL    HW225679   1.168   3.850   5.947 -1.3802  0.3516  0.2874
 6147SOL     OW25680   9.647  10.361  10.285  0.4345  0.3509 -0.0629
 6147SOL    HW125681   9.589  10.285  10.288  0.5872  0.2259 -0.2266
 6147SOL    HW225682   9.724  10.331  10.236  0.1227  0.8606 -0.8999
 6148SOL     OW25683   9.447   5.959   2.402  0.4790 -0.0516  0.0904
 6148SOL    HW125684   9.466   5.964   2.496 -1.0453 -0.3276  0.4392
 6148SOL    HW225685   9.403   5.875   2.391  2.7795 -1.1447 -1.3178
 6149SOL     OW25686   0.674  12.480   5.626 -0.1002  0.0220  0.6980
 6149SOL    HW125687   0.633  12.547   5.682 -0.0396  1.4164 -0.8416
 6149SOL    HW225688   0.610  12.465   5.556  0.2703 -0.8886  0.5398
 6150SOL     OW25689   9.026   0.947   5.499 -0.1358 -0.3063  0.4187
 6150SOL    HW125690   9.048   1.027   5.547 -0.5603 -0.2077  0.4501
 6150SOL    HW225691   8.962   0.903   5.555  0.5258 -0.9594  0.6825
 6151SOL     OW25692   2.265   6.031   3.366 -0.3512 -0.0503  0.5184
 6151SOL    HW125693   2.195   6.084   3.403 -1.1353 -0.5529 -0.2265
 6151SOL    HW225694   2.338   6.093   3.354 -0.4662  0.3630  1.7868
 6152SOL     OW25695   9.340   3.550   2.811  0.4225  0.2805 -0.0791
 6152SOL    HW125696   9.400   3.558   2.736 -0.0946 -0.3686 -0.5691
 6152SOL    HW225697   9.377   3.478   2.863  0.2738  0.1221 -0.1915
 6153SOL     OW25698   7.025   8.238  11.496 -0.2368 -1.2708 -0.3564
 6153SOL    HW125699   7.038   8.322  11.452  1.0014 -0.8996  0.6314
 6153SOL    HW225700   6.935   8.214  11.475 -0.5646  0.2066 -0.8269
 6154SOL     OW25701   0.467   8.209   9.622 -0.0082 -0.5776 -0.5816
 6154SOL    HW125702   0.473   8.302   9.640 -0.4112 -0.5389 -0.6306
 6154SOL    HW225703   0.394   8.179   9.677 -1.1814 -0.4778 -2.0147
 6155SOL     OW25704   7.500  11.891  10.704  0.0342  0.6224 -0.0845
 6155SOL    HW125705   7.474  11.850  10.622 -2.4709  1.0304  0.4155
 6155SOL    HW225706   7.458  11.977  10.702  0.6050  0.9616  1.2603
 6156SOL     OW25707   2.890   2.815   8.180 -0.0985  0.1169 -0.2800
 6156SOL    HW125708   2.979   2.806   8.214 -0.4727 -1.4393  0.3813
 6156SOL    HW225709   2.838   2.845   8.255 -0.7213 -2.2847  0.3577
 6157SOL     OW25710   4.251   6.563   9.123  0.2391  0.5046  0.2551
 6157SOL    HW125711   4.295   6.646   9.105  0.3995  0.5470  0.8352
 6157SOL    HW225712   4.225   6.530   9.036 -0.4248  1.4893  0.0667
 6158SOL     OW25713   2.784   5.349  11.376 -0.3344  0.1026 -0.1148
 6158SOL    HW125714   2.817   5.433  11.343  0.1563 -0.8738 -2.2864
 6158SOL    HW225715   2.861   5.306  11.411 -0.8476  1.1196  2.4898
 6159SOL     OW25716   3.397   2.097   1.709  0.0101  0.1584 -0.2960
 6159SOL    HW125717   3.366   2.116   1.798  1.4054  0.9044  0.0442
 6159SOL    HW225718   3.338   2.027   1.679 -2.8558  2.3032 -0.1688
 6160SOL     OW25719  10.301   8.881   5.461 -0.5886 -0.1357  0.1877
 6160SOL    HW125720  10.360   8.950   5.432  1.0819 -1.9458 -0.9815
 6160SOL    HW225721  10.312   8.878   5.556 -0.1958  0.7645  0.1738
 6161SOL     OW25722   4.123   8.109   0.247 -0.3501  0.2006 -0.4321
 6161SOL    HW125723   4.191   8.156   0.199  0.3763  0.2253  0.6003
 6161SOL    HW225724   4.050   8.171   0.252  0.0686  0.6855 -0.3284
 6162SOL     OW25725   4.904  12.667   3.032 -0.5157  0.2139  0.6170
 6162SOL    HW125726   4.865  12.587   2.997 -1.4758  1.4615 -1.3391
 6162SOL    HW225727   4.985  12.637   3.073 -1.0091 -1.8050  0.2516
 6163SOL     OW25728   6.814   0.461   1.923  0.2624 -0.2668 -0.1861
 6163SOL    HW125729   6.726   0.501   1.920  1.2366  1.9916 -0.6988
 6163SOL    HW225730   6.804   0.386   1.981 -1.8063  0.4872  0.5197
 6164SOL     OW25731   0.579   8.413   2.555 -0.1729  0.1150  0.0124
 6164SOL    HW125732   0.592   8.507   2.542  1.0547  0.2378  1.7878
 6164SOL    HW225733   0.639   8.372   2.492 -0.6573  0.4980 -0.7189
 6165SOL     OW25734  10.702   7.984   8.252  0.0046  0.2271 -0.3693
 6165SOL    HW125735  10.726   7.906   8.203 -0.6734  0.3829 -0.9546
 6165SOL    HW225736  10.777   8.043   8.241  0.3831 -0.2091 -0.1805
 6166SOL     OW25737   4.323   2.385   1.698 -0.2987  0.1495 -0.3583
 6166SOL    HW125738   4.350   2.443   1.769  0.0210 -1.8489  1.2465
 6166SOL    HW225739   4.268   2.441   1.641 -1.4645  1.5851  2.0114
 6167SOL     OW25740  10.169   7.250   2.346 -0.3543  0.2129 -0.1395
 6167SOL    HW125741  10.081   7.224   2.320  0.4496 -1.5112 -1.2963
 6167SOL    HW225742  10.181   7.212   2.433 -1.1106  1.4160  0.5277
 6168SOL     OW25743   4.498   9.923   8.655 -0.4676 -0.3537 -0.7027
 6168SOL    HW125744   4.415   9.947   8.613 -0.4177 -0.2771 -0.7573
 6168SOL    HW225745   4.474   9.852   8.715 -0.5426 -0.4452 -0.8411
 6169SOL     OW25746   0.955   9.271   0.474  0.5044  0.5127  0.6704
 6169SOL    HW125747   0.920   9.323   0.402  0.6273  0.5921  0.6680
 6169SOL    HW225748   0.951   9.180   0.443 -0.6812  0.4174  1.0744
 6170SOL     OW25749   2.673  10.891   6.551  0.4832 -0.7021  0.2704
 6170SOL    HW125750   2.590  10.843   6.555 -0.5254  1.0376  1.8451
 6170SOL    HW225751   2.719  10.867   6.631  0.5633 -0.0561  0.4219
 6171SOL     OW25752   1.349  11.868   8.816  0.6822 -0.0921 -0.7979
 6171SOL    HW125753   1.433  11.912   8.802 -0.3768  1.4299 -2.7670
 6171SOL    HW225754   1.366  11.777   8.792  2.0783 -0.1229  0.1612
 6172SOL     OW25755   6.254   9.695   0.675  0.2324 -0.6181 -0.2603
 6172SOL    HW125756   6.193   9.704   0.748 -0.7278 -1.3024 -0.9440
 6172SOL    HW225757   6.323   9.758   0.693 -0.4883 -0.0847  0.7349
 6173SOL     OW25758   7.440   8.962   3.379  0.0701 -0.2749  0.4135
 6173SOL    HW125759   7.409   9.047   3.347  2.0084 -0.1718 -1.3515
 6173SOL    HW225760   7.410   8.899   3.314 -1.0892 -0.9733  1.5566
 6174SOL     OW25761   9.332   7.451   6.258 -0.5111  0.1298 -0.1952
 6174SOL    HW125762   9.394   7.458   6.331 -1.4975  0.4411  0.6290
 6174SOL    HW225763   9.376   7.393   6.196  1.1599  1.3224 -0.2047
 6175SOL     OW25764   4.033   2.137   6.545  0.2216 -0.0044 -0.7705
 6175SOL    HW125765   4.098   2.077   6.508 -1.4655 -2.2917 -0.2382
 6175SOL    HW225766   4.079   2.179   6.619  1.4393 -0.6657 -1.1252
 6176SOL     OW25767   6.498   1.027  12.332 -0.4183  0.4763 -0.7454
 6176SOL    HW125768   6.496   1.121  12.315 -0.7397  0.4311 -0.9466
 6176SOL    HW225769   6.448   1.016  12.413  1.5696  0.7610  0.6006
 6177SOL     OW25770   9.150   1.046   6.769 -0.1583 -0.4389  0.4094
 6177SOL    HW125771   9.113   1.054   6.858  0.3492  0.6757  0.5300
 6177SOL    HW225772   9.215   0.976   6.777 -0.5906 -0.8194  0.7416
 6178SOL     OW25773   8.985   5.513  10.221 -0.2702  0.2348  0.1794
 6178SOL    HW125774   8.992   5.541  10.130 -1.8842  1.1267  0.2991
 6178SOL    HW225775   8.942   5.428  10.217  0.1350  0.0310  0.0929
 6179SOL     OW25776  11.530   3.919   0.335 -0.5657 -1.1963 -0.2453
 6179SOL    HW125777  11.569   4.006   0.342 -0.7052 -1.0220 -1.3910
 6179SOL    HW225778  11.441   3.929   0.369 -0.3373 -1.0679  0.3140
 6180SOL     OW25779  10.359   0.762   9.630 -0.7147 -0.3183  0.3118
 6180SOL    HW125780  10.444   0.748   9.588 -1.7075 -3.5279 -0.9007
 6180SOL    HW225781  10.303   0.796   9.561 -1.1725 -1.1577  0.2594
 6181SOL     OW25782   7.216  11.956   7.208  0.2203 -0.6138 -0.3438
 6181SOL    HW125783   7.228  12.003   7.125  0.1326 -1.7011 -0.9870
 6181SOL    HW225784   7.260  11.872   7.195  0.2667 -0.7737  0.7436
 6182SOL     OW25785   9.036   7.790   6.614  0.1297  0.5528  0.1426
 6182SOL    HW125786   8.947   7.759   6.632  0.2233 -1.8064 -2.6370
 6182SOL    HW225787   9.085   7.770   6.694 -1.2862 -0.5735  0.7751
 6183SOL     OW25788  12.386  12.215   2.877  0.1617 -0.4695  0.2528
 6183SOL    HW125789  12.323  12.269   2.925 -0.9096 -1.0328 -0.4942
 6183SOL    HW225790  12.462  12.273   2.865 -0.1884  0.2163  1.1739
 6184SOL     OW25791   0.123   1.180   2.808 -0.1351 -0.2904 -0.0727
 6184SOL    HW125792   0.116   1.237   2.731 -0.2324 -0.8921 -0.5130
 6184SOL    HW225793   0.218   1.170   2.822 -0.0424 -2.0193 -1.5171
 6185SOL     OW25794   5.403   0.469   5.016 -0.1277 -0.1489  0.1298
 6185SOL    HW125795   5.364   0.387   4.986 -1.3067  0.1884  0.6733
 6185SOL    HW225796   5.350   0.494   5.092  1.0123  0.4588  0.7515
 6186SOL     OW25797   0.304   1.943   0.743 -0.3721  0.1781  0.1234
 6186SOL    HW125798   0.267   1.876   0.685 -0.2909 -1.2844  1.6823
 6186SOL    HW225799   0.378   1.979   0.694 -2.2885  1.4128 -2.0283
 6187SOL     OW25800  11.068  11.347   1.982  0.2999 -0.1888  0.7254
 6187SOL    HW125801  10.994  11.288   1.998  0.6537 -0.6981  0.5143
 6187SOL    HW225802  11.058  11.374   1.891  1.5770 -2.0108 -0.0112
 6188SOL     OW25803  12.387   5.697   5.250  0.0108 -0.1783  0.0613
 6188SOL    HW125804  12.386   5.609   5.212  0.8305  0.2923 -1.1157
 6188SOL    HW225805  12.327   5.747   5.195 -0.4502  0.0109  0.7276
 6189SOL     OW25806   9.231   6.719   6.431  0.2707  0.4164  0.1866
 6189SOL    HW125807   9.242   6.812   6.411  1.7348  0.0379 -0.9053
 6189SOL    HW225808   9.255   6.674   6.351 -0.2615 -0.9327  0.7534
 6190SOL     OW25809  10.863  12.479   6.149  0.3380 -0.4070 -0.0396
 6190SOL    HW125810  10.775  12.445   6.141  0.4602 -0.7235 -0.0416
 6190SOL    HW225811  10.919  12.402   6.151  0.4336 -0.3747  2.8075
 6191SOL     OW25812   4.988   0.336   8.414  0.8761 -0.1371  0.1819
 6191SOL    HW125813   5.065   0.386   8.441 -0.8617  1.1890  3.2518
 6191SOL    HW225814   4.967   0.281   8.490 -0.1310 -1.8856 -1.2853
 6192SOL     OW25815   8.136   0.132  11.413  0.1287 -0.0552  0.2091
 6192SOL    HW125816   8.112   0.197  11.347 -2.6297 -1.2517 -0.1289
 6192SOL    HW225817   8.186   0.066  11.365  0.7767  0.5790  0.0061
 6193SOL     OW25818  10.795  11.943   4.542 -0.0126 -0.0991 -0.1409
 6193SOL    HW125819  10.830  11.936   4.631 -1.1810 -3.0727  0.2045
 6193SOL    HW225820  10.706  11.977   4.555  0.0624  0.1332 -0.2381
 6194SOL     OW25821   3.534  12.333  11.009  0.3212 -0.3635 -0.5484
 6194SOL    HW125822   3.575  12.312  10.926 -0.6618 -0.0485 -1.1277
 6194SOL    HW225823   3.550  12.256  11.064  1.6297 -0.2598 -0.7547
 6195SOL     OW25824   0.077   3.631   6.744 -0.3089  0.4672  0.0036
 6195SOL    HW125825  -0.003   3.598   6.703  0.6624 -1.4116 -0.5226
 6195SOL    HW225826   0.100   3.562   6.807  0.6522  1.2003  0.4664
 6196SOL     OW25827   2.459   9.926   3.484 -0.1440 -0.1734  0.0352
 6196SOL    HW125828   2.463  10.017   3.516 -0.4180 -0.3573  0.6027
 6196SOL    HW225829   2.480   9.873   3.561  0.6093 -0.5762 -0.4385
 6197SOL     OW25830   9.255   4.802  11.179  0.6457 -0.1277 -0.2315
 6197SOL    HW125831   9.217   4.779  11.264 -1.6897  1.6725 -0.6818
 6197SOL    HW225832   9.345   4.768  11.182  0.5558 -0.3119  2.8373
 6198SOL     OW25833   2.162   6.582  11.600  0.2715 -0.6012 -0.0374
 6198SOL    HW125834   2.152   6.493  11.633 -2.2557  0.0616  1.2314
 6198SOL    HW225835   2.133   6.638  11.673  1.7685  1.2938 -0.7990
 6199SOL     OW25836   5.385   0.198  11.956 -0.3150 -0.3358 -0.0326
 6199SOL    HW125837   5.328   0.275  11.953 -0.0889 -0.2027 -1.6562
 6199SOL    HW225838   5.326   0.123  11.954 -0.4597 -0.1976 -1.0295
 6200SOL     OW25839   7.376   4.227   9.402 -0.5235 -0.6578 -0.0770
 6200SOL    HW125840   7.421   4.214   9.485  0.2883  0.4211 -0.3302
 6200SOL    HW225841   7.317   4.152   9.395  1.1464 -2.0813  0.3193
 6201SOL     OW25842   6.336  10.513   7.395 -0.4741 -0.3161 -0.0615
 6201SOL    HW125843   6.430  10.504   7.383 -0.5723  1.2198 -2.7419
 6201SOL    HW225844   6.322  10.605   7.416 -1.3843 -0.5347  0.3504
 6202SOL     OW25845  10.693   1.131   7.064 -0.8013 -0.1763 -0.2954
 6202SOL    HW125846  10.694   1.041   7.032  1.7493 -0.3048 -0.1043
 6202SOL    HW225847  10.744   1.128   7.145 -0.4106  1.4760 -0.4442
 6203SOL     OW25848   9.361   9.069   4.870  0.1532 -0.2466  0.1130
 6203SOL    HW125849   9.418   9.091   4.944  1.5573  0.9093 -1.2429
 6203SOL    HW225850   9.288   9.130   4.877 -0.4545 -1.0813  1.3160
 6204SOL     OW25851   4.410   6.368   0.217  0.4040 -0.3746  0.0952
 6204SOL    HW125852   4.430   6.459   0.240 -0.6168  0.6940 -2.8069
 6204SOL    HW225853   4.431   6.362   0.124 -1.9486 -2.3840 -0.4089
 6205SOL     OW25854  11.487  12.328  11.286  0.0841  0.2964 -0.0154
 6205SOL    HW125855  11.430  12.366  11.219 -0.0753 -0.2741 -0.2142
 6205SOL    HW225856  11.456  12.238  11.295 -1.6288  1.0494  2.7172
 6206SOL     OW25857   9.578   8.939   7.257  0.6373 -0.4676 -0.1050
 6206SOL    HW125858   9.519   8.892   7.316  0.5877 -0.8593 -0.4615
 6206SOL    HW225859   9.658   8.954   7.309 -0.0022  0.6750  0.6150
 6207SOL     OW25860   2.414   9.866   5.970  0.1339 -0.4794  0.1626
 6207SOL    HW125861   2.334   9.826   5.936 -0.5555  0.8618  0.1036
 6207SOL    HW225862   2.409   9.852   6.065 -0.0102 -0.6967  0.1229
 6208SOL     OW25863   2.413   5.503   9.375 -0.1457 -0.0808 -0.3914
 6208SOL    HW125864   2.398   5.540   9.288 -1.2855  1.5913  0.4600
 6208SOL    HW225865   2.329   5.511   9.420  0.3052 -1.3013  0.7450
 6209SOL     OW25866   5.782   5.343   3.304  0.1724 -0.0350  0.4746
 6209SOL    HW125867   5.720   5.414   3.288  1.3814  1.5262  2.1607
 6209SOL    HW225868   5.828   5.331   3.221 -0.5419  0.6821 -0.0334
 6210SOL     OW25869  11.129   9.188   9.833 -0.6740 -0.1840 -0.3909
 6210SOL    HW125870  11.208   9.145   9.800  0.4309  0.5194  1.2262
 6210SOL    HW225871  11.058   9.149   9.783  0.5905 -1.6485 -1.1157
 6211SOL     OW25872  11.930   1.502   7.617  0.1756 -0.6460  0.2589
 6211SOL    HW125873  12.009   1.459   7.650  0.6507  0.7832  1.0814
 6211SOL    HW225874  11.870   1.430   7.598  2.3136 -1.9649 -2.3252
 6212SOL     OW25875   7.173   2.556   6.438 -0.1810  0.5072  0.4300
 6212SOL    HW125876   7.196   2.636   6.484  2.1498 -0.2815  0.7585
 6212SOL    HW225877   7.201   2.485   6.497 -2.8399 -0.6243  0.4848
 6213SOL     OW25878   9.457   8.138  12.690 -0.1586 -0.1074  0.4020
 6213SOL    HW125879   9.431   8.051  12.658 -1.1605 -0.2533  1.5474
 6213SOL    HW225880   9.491   8.121  12.778  1.0724  0.4873  0.0657
 6214SOL     OW25881   5.863   8.295  11.184 -0.0092 -0.3217 -0.1679
 6214SOL    HW125882   5.884   8.278  11.276  2.4283  0.1040 -0.5655
 6214SOL    HW225883   5.910   8.377  11.164 -1.5618  0.2929 -1.4620
 6215SOL     OW25884   0.781   1.573   3.510 -0.1609  0.1436 -0.6554
 6215SOL    HW125885   0.687   1.581   3.495 -0.6781 -2.5435  0.5548
 6215SOL    HW225886   0.794   1.606   3.599  0.4515  2.2691 -1.4497
 6216SOL     OW25887  12.178  11.607   9.802  0.3354 -0.2962 -0.5511
 6216SOL    HW125888  12.170  11.531   9.860 -0.1258  0.0456 -0.1539
 6216SOL    HW225889  12.118  11.671   9.840 -0.0391 -0.0990 -1.4602
 6217SOL     OW25890  10.425   6.105   8.402 -0.0277  0.1020  0.2180
 6217SOL    HW125891  10.360   6.035   8.407 -0.7954  0.8675  2.0340
 6217SOL    HW225892  10.493   6.079   8.465 -0.2173  0.8662  0.7530
 6218SOL     OW25893   9.517   3.336   1.746 -0.8093  0.4380  0.0985
 6218SOL    HW125894   9.441   3.353   1.690 -1.6948 -0.2137  1.0760
 6218SOL    HW225895   9.581   3.402   1.720 -1.0540 -0.0570 -1.9239
 6219SOL     OW25896   5.700  10.064   3.883 -0.2320 -0.2444  0.1776
 6219SOL    HW125897   5.619  10.115   3.888  0.5092  0.8499  2.1842
 6219SOL    HW225898   5.670   9.973   3.878 -1.5672  0.2409 -1.9771
 6220SOL     OW25899   5.237   4.262   8.489 -0.3947 -0.4185 -0.3637
 6220SOL    HW125900   5.308   4.201   8.474 -0.0637  0.3529 -2.2154
 6220SOL    HW225901   5.264   4.312   8.567  0.4014 -1.0772 -0.2069
 6221SOL     OW25902  10.670   1.033  10.761 -0.0805 -0.4094  0.3577
 6221SOL    HW125903  10.657   0.944  10.729  2.6973 -1.3986  1.6385
 6221SOL    HW225904  10.662   1.088  10.683  0.0029 -1.9701 -0.8016
 6222SOL     OW25905  11.882   2.261  10.946  0.4509 -0.2044  0.1268
 6222SOL    HW125906  11.881   2.317  11.024 -1.4918  0.3932 -0.2793
 6222SOL    HW225907  11.933   2.310  10.882  1.0913 -0.1822  0.6431
 6223SOL     OW25908   3.460   8.671   9.370 -0.0806  0.4612  0.1756
 6223SOL    HW125909   3.404   8.699   9.442 -0.0394 -0.2389  0.4810
 6223SOL    HW225910   3.549   8.687   9.401 -0.0888  0.9784 -0.0630
 6224SOL     OW25911   2.870   1.236   4.639  0.4834 -0.3861 -0.1260
 6224SOL    HW125912   2.940   1.269   4.695  1.1291 -0.3379 -0.9410
 6224SOL    HW225913   2.789   1.264   4.682  0.9462 -0.5842  0.9148
 6225SOL     OW25914   5.540   6.693   3.161  0.5547  0.0042 -0.2165
 6225SOL    HW125915   5.622   6.733   3.189 -0.1549  0.9002  0.6294
 6225SOL    HW225916   5.504   6.754   3.096  0.2615 -0.0821 -0.1381
 6226SOL     OW25917   7.856   3.683  11.547  0.0680  0.2075 -0.2185
 6226SOL    HW125918   7.944   3.718  11.559  0.1176 -0.0724  0.2444
 6226SOL    HW225919   7.802   3.761  11.532  0.3644  0.3926 -0.3340
 6227SOL     OW25920   5.027   6.183  10.088 -0.2118  0.3266 -0.7282
 6227SOL    HW125921   5.034   6.240  10.165 -0.4577  1.5009 -1.5528
 6227SOL    HW225922   4.947   6.134  10.102  0.2384 -0.1678  0.2130
 6228SOL     OW25923   8.921   2.516   1.344 -0.5309  0.5562 -0.5556
 6228SOL    HW125924   8.978   2.457   1.295  0.6759  1.8709 -0.7999
 6228SOL    HW225925   8.942   2.499   1.436 -2.1364 -1.2573 -0.4642
 6229SOL     OW25926   1.382   0.732   3.041  0.1478  0.3517 -0.2246
 6229SOL    HW125927   1.303   0.707   2.993 -1.2710  3.7183  0.0713
 6229SOL    HW225928   1.429   0.790   2.981  0.5382  1.2046  0.8701
 6230SOL     OW25929   2.493  12.593   0.522  0.7270  0.0983 -0.3336
 6230SOL    HW125930   2.425  12.536   0.559  1.5573  0.7806  2.4850
 6230SOL    HW225931   2.537  12.630   0.598  2.5620  1.7371 -2.0802
 6231SOL     OW25932   7.781   3.794   5.587 -0.2700  0.1263 -0.1423
 6231SOL    HW125933   7.798   3.717   5.641 -0.7601  0.3921  0.4073
 6231SOL    HW225934   7.702   3.772   5.538 -0.3947  0.2674 -0.0046
 6232SOL     OW25935   6.816  10.833   7.262 -0.2884  0.1593  0.5155
 6232SOL    HW125936   6.852  10.785   7.337  1.1695 -1.9685 -1.4129
 6232SOL    HW225937   6.868  10.914   7.258 -0.9880  0.7565  2.2462
 6233SOL     OW25938  12.617   3.404   6.351  0.6319 -0.2466  0.2751
 6233SOL    HW125939  12.530   3.421   6.315  0.7474  0.0684  0.1368
 6233SOL    HW225940  12.622   3.458   6.430  0.4433 -0.8033  0.6741
 6234SOL     OW25941   5.346   2.424   3.478 -0.3897  0.2342  0.4026
 6234SOL    HW125942   5.277   2.435   3.412 -0.5398 -0.6165  0.4149
 6234SOL    HW225943   5.399   2.351   3.446 -0.6021 -0.3434  1.3434
 6235SOL     OW25944   7.426   5.398   3.185 -0.2507 -0.0337  0.1554
 6235SOL    HW125945   7.418   5.402   3.089 -1.4992 -0.9127  0.2001
 6235SOL    HW225946   7.498   5.337   3.200  0.3482  0.5711 -0.2274
 6236SOL     OW25947   9.359   3.294   8.966  0.0615 -0.1333 -0.2903
 6236SOL    HW125948   9.293   3.234   8.999 -0.7131  0.3541 -0.9258
 6236SOL    HW225949   9.365   3.363   9.033  0.4067 -0.5195  0.0785
 6237SOL     OW25950   4.878   5.275   9.293 -0.4748  0.2756 -0.5501
 6237SOL    HW125951   4.938   5.214   9.250 -0.8025 -1.6209  1.5082
 6237SOL    HW225952   4.809   5.220   9.330 -2.5220  2.2220 -1.2056
 6238SOL     OW25953   6.139   8.206  12.149  0.1121 -0.2072  0.6540
 6238SOL    HW125954   6.096   8.224  12.233  0.3221 -0.2221  0.7641
 6238SOL    HW225955   6.116   8.282  12.094  0.4957  0.1076  0.9266
 6239SOL     OW25956   7.568  11.877   3.777  0.2280 -0.8672 -0.4038
 6239SOL    HW125957   7.488  11.828   3.754 -0.0764 -0.7616  0.3931
 6239SOL    HW225958   7.580  11.859   3.870 -0.3631  1.2415  0.1252
 6240SOL     OW25959   5.065   9.496   2.367 -0.1131  0.4658  0.2879
 6240SOL    HW125960   5.120   9.428   2.329 -0.0956 -0.5581  2.0344
 6240SOL    HW225961   5.111   9.522   2.447 -0.8276  1.5384  0.3675
 6241SOL     OW25962   4.732  12.207   0.206 -0.1234 -0.0212  0.1219
 6241SOL    HW125963   4.640  12.193   0.183 -0.2443 -3.5146  2.1040
 6241SOL    HW225964   4.771  12.243   0.126 -2.7525 -0.5227 -1.5102
 6242SOL     OW25965   7.422  10.684   7.425 -0.2543 -0.3164 -0.1080
 6242SOL    HW125966   7.420  10.631   7.505  1.3829 -0.0145  0.1615
 6242SOL    HW225967   7.465  10.765   7.451  1.3893 -0.6820 -1.5581
 6243SOL     OW25968   2.324   3.132   8.071  0.7482 -0.0456 -0.1940
 6243SOL    HW125969   2.390   3.151   8.005 -0.4834  2.6189 -0.7576
 6243SOL    HW225970   2.343   3.042   8.098  1.9706 -0.8661 -3.3501
 6244SOL     OW25971  11.090   1.200   7.673  0.4786  0.2549  0.2750
 6244SOL    HW125972  11.033   1.258   7.723  0.0416  0.5331 -0.5283
 6244SOL    HW225973  11.172   1.248   7.664  0.6258  0.1265  0.8650
 6245SOL     OW25974  11.621   7.836   8.765  0.5326 -0.0051  0.0703
 6245SOL    HW125975  11.667   7.753   8.770  1.5606  0.6146  1.8872
 6245SOL    HW225976  11.532   7.816   8.795  0.7387 -0.4776  0.3717
 6246SOL     OW25977   6.650  10.665   9.287  0.6605  0.2017  0.8266
 6246SOL    HW125978   6.562  10.639   9.259  1.1954  0.5438 -1.2980
 6246SOL    HW225979   6.657  10.757   9.261  1.5286  0.2760  1.2989
 6247SOL     OW25980   4.108  10.869   3.658 -0.1596 -0.0339 -0.3399
 6247SOL    HW125981   4.041  10.808   3.691  0.4604  0.1759  1.3900
 6247SOL    HW225982   4.078  10.955   3.686  0.8251  0.0604  0.4862
 6248SOL     OW25983   4.063   4.294   6.066 -0.2478 -0.2472 -0.2911
 6248SOL    HW125984   4.060   4.199   6.057 -1.4101 -0.2127 -0.3849
 6248SOL    HW225985   3.990   4.326   6.013  0.5803  0.7545 -0.8642
 6249SOL     OW25986  11.846   5.320   6.334  0.1299 -0.6789 -0.1485
 6249SOL    HW125987  11.923   5.290   6.381 -0.6548 -1.1575  0.8750
 6249SOL    HW225988  11.843   5.265   6.255  1.1593 -0.2273 -0.5172
 6250SOL     OW25989   2.749   5.347   6.631  0.1728  0.3435  0.2115
 6250SOL    HW125990   2.692   5.385   6.565 -1.4637  1.9883  2.4161
 6250SOL    HW225991   2.828   5.401   6.629  0.0809  0.4570 -0.3056
 6251SOL     OW25992   1.352   0.911   7.212  0.2884  0.1216  0.0036
 6251SOL    HW125993   1.373   0.904   7.119 -0.8344 -0.7973 -0.2084
 6251SOL    HW225994   1.436   0.927   7.255  1.2920 -2.3159 -0.8842
 6252SOL     OW25995   6.201   6.630  12.024  0.2456  0.3152  0.2455
 6252SOL    HW125996   6.211   6.674  12.108 -1.4773  1.9506 -0.3284
 6252SOL    HW225997   6.249   6.547  12.034  0.0579  0.4336  2.8279
 6253SOL     OW25998  11.153   9.515   8.397 -1.0402  0.2863  0.0377
 6253SOL    HW125999  11.140   9.609   8.384 -1.7406  0.2539  0.4395
 6253SOL    HW226000  11.078   9.475   8.353  0.0268 -0.1880 -1.4562
 6254SOL     OW26001   5.459   4.167   3.566  0.1797  0.2679 -0.1733
 6254SOL    HW126002   5.519   4.095   3.586  0.8816  1.0305  0.5869
 6254SOL    HW226003   5.433   4.201   3.652 -0.2825  0.8091 -0.5178
 6255SOL     OW26004  12.066   8.023  10.841 -0.3500  0.1339 -0.3952
 6255SOL    HW126005  12.152   8.017  10.801 -1.0839 -2.1634 -1.8392
 6255SOL    HW226006  12.077   7.988  10.929  0.2391  0.1943 -0.4411
 6256SOL     OW26007   8.827   0.085   5.662  0.1756  0.1183  0.6829
 6256SOL    HW126008   8.732   0.072   5.652  0.1361  0.3534  0.7245
 6256SOL    HW226009   8.835   0.179   5.683  0.4388  0.1628  0.3818
 6257SOL     OW26010   1.788   6.736   0.442  0.5353  0.0522  0.6473
 6257SOL    HW126011   1.797   6.734   0.537 -0.0461 -1.0532  0.6958
 6257SOL    HW226012   1.733   6.813   0.425  0.6477  0.2588  1.2060
 6258SOL     OW26013   3.115  10.962   3.643 -0.6601 -0.3626  0.1335
 6258SOL    HW126014   3.167  10.888   3.610  0.9483 -0.0638  1.8514
 6258SOL    HW226015   3.092  11.011   3.565 -0.0678 -1.6085 -0.8707
 6259SOL     OW26016  11.662   5.978   0.572 -0.0862  0.2456  0.1624
 6259SOL    HW126017  11.692   6.067   0.590 -0.7015  0.3364  0.7908
 6259SOL    HW226018  11.721   5.947   0.503  1.5585  0.3398  1.4639
 6260SOL     OW26019   7.837   3.679   1.839 -0.2492  0.4983 -0.2919
 6260SOL    HW126020   7.774   3.614   1.870 -0.6785  0.4740 -1.2000
 6260SOL    HW226021   7.790   3.762   1.842  0.2027  0.7372  0.5729
 6261SOL     OW26022   9.304  10.252   1.752  0.0633  0.1220 -0.0034
 6261SOL    HW126023   9.273  10.212   1.670 -1.6200 -1.5543  1.3631
 6261SOL    HW226024   9.224  10.279   1.797  0.8113 -0.6441  1.8728
 6262SOL     OW26025   3.550   9.619   7.314 -0.4621  0.0631  0.0404
 6262SOL    HW126026   3.513   9.636   7.228 -1.7868 -0.5254  0.4691
 6262SOL    HW226027   3.585   9.530   7.309  0.5121  0.4507 -0.2248
 6263SOL     OW26028  12.335   2.538  11.581 -0.1181 -0.1656  0.5042
 6263SOL    HW126029  12.274   2.611  11.590 -0.3599 -0.1237 -1.1450
 6263SOL    HW226030  12.407   2.559  11.641 -0.0531  1.5745 -0.1277
 6264SOL     OW26031   0.515   2.972   8.298 -0.0265 -0.2356 -0.2926
 6264SOL    HW126032   0.424   2.973   8.266  0.0225 -0.0864 -0.4296
 6264SOL    HW226033   0.525   3.054   8.345  0.4391  0.3873 -1.4318
 6265SOL     OW26034  10.242   1.315   9.471 -0.4316 -0.1367 -0.1628
 6265SOL    HW126035  10.206   1.255   9.537 -0.6640 -1.4497 -1.4300
 6265SOL    HW226036  10.165   1.348   9.424 -0.2862  0.9695  0.3499
 6266SOL     OW26037   9.493  11.471   0.311 -0.5983 -0.1403 -0.0291
 6266SOL    HW126038   9.451  11.552   0.339 -1.6189  0.2709 -2.5226
 6266SOL    HW226039   9.499  11.478   0.216  0.7131 -2.3319 -0.1824
 6267SOL     OW26040   2.691   1.996   0.575  0.5779  0.0781 -0.0242
 6267SOL    HW126041   2.723   2.086   0.571  1.7364 -0.0132  3.4340
 6267SOL    HW226042   2.759   1.944   0.532  1.7610  0.5721  1.1703
 6268SOL     OW26043  12.167   4.652  11.432 -0.1579  0.4854  0.8021
 6268SOL    HW126044  12.183   4.730  11.485 -1.1378  0.9064  0.5067
 6268SOL    HW226045  12.151   4.686  11.344  1.6418 -0.2186  0.1574
 6269SOL     OW26046   1.525  10.659   6.831 -0.1169  0.0765 -0.0657
 6269SOL    HW126047   1.521  10.622   6.743  3.1706 -0.9186  0.0804
 6269SOL    HW226048   1.523  10.583   6.889  0.7966  0.4828  0.5245
 6270SOL     OW26049   1.529   5.763   2.597  0.0037 -0.8905  0.4648
 6270SOL    HW126050   1.530   5.742   2.504 -0.6910 -1.7876  0.6477
 6270SOL    HW226051   1.449   5.722   2.631 -0.5829  0.7353  1.1685
 6271SOL     OW26052   5.204   7.439   0.661  0.1720  0.0566 -0.0019
 6271SOL    HW126053   5.188   7.376   0.731  1.3359 -0.6946 -0.3750
 6271SOL    HW226054   5.276   7.492   0.693  2.1516 -1.6121 -1.3698
 6272SOL     OW26055   8.015  12.070   2.303 -0.6313 -0.5657 -0.0548
 6272SOL    HW126056   8.017  12.148   2.359 -2.2224  0.1055 -0.8837
 6272SOL    HW226057   8.035  12.103   2.216 -1.0249 -1.1388 -0.3641
 6273SOL     OW26058   8.504  10.424   7.801  0.0092 -0.0108 -0.5092
 6273SOL    HW126059   8.469  10.401   7.715  1.3689 -0.1042 -1.0497
 6273SOL    HW226060   8.529  10.340   7.839 -0.2634  0.0662 -0.1519
 6274SOL     OW26061  12.509   8.161   9.935  0.4970 -0.4418  0.4050
 6274SOL    HW126062  12.581   8.115   9.892  0.1860  0.2397 -0.9116
 6274SOL    HW226063  12.509   8.248   9.895  1.7685  1.1637  3.5806
 6275SOL     OW26064   8.688  12.208   3.196 -1.0076  0.0696 -0.2423
 6275SOL    HW126065   8.672  12.136   3.257 -0.5984  0.3634  0.2276
 6275SOL    HW226066   8.775  12.192   3.162 -1.5197 -0.4870 -1.3263
 6276SOL     OW26067   0.618   6.217   0.865  0.0195 -0.8878 -0.0475
 6276SOL    HW126068   0.611   6.306   0.900 -0.7784 -1.2618  0.8132
 6276SOL    HW226069   0.707   6.211   0.832 -0.0843  0.3991 -0.6104
 6277SOL     OW26070   6.013  12.296   2.245  0.2327 -0.0952  0.6803
 6277SOL    HW126071   6.086  12.257   2.198 -0.3892  0.2697 -0.6387
 6277SOL    HW226072   5.937  12.280   2.189 -0.6202 -0.0373  1.7879
 6278SOL     OW26073   7.137   3.175   5.124 -0.4124 -0.6743 -0.3824
 6278SOL    HW126074   7.102   3.169   5.035 -1.0944  1.6322 -0.3274
 6278SOL    HW226075   7.229   3.150   5.115  0.3052  2.2015 -2.3338
 6279SOL     OW26076   1.813   3.535   9.817 -0.0198 -0.1020  0.3637
 6279SOL    HW126077   1.888   3.561   9.870 -0.0993 -0.0551  0.4531
 6279SOL    HW226078   1.836   3.449   9.783  1.2848  1.0578 -1.8853
 6280SOL     OW26079   4.692  11.251   6.260 -0.0019 -0.4104 -0.3655
 6280SOL    HW126080   4.716  11.338   6.292  0.1431 -0.4182 -0.4487
 6280SOL    HW226081   4.728  11.191   6.325  0.5083 -0.4379 -0.6638
 6281SOL     OW26082   1.482   0.129   3.805 -0.5135 -1.0040  0.2054
 6281SOL    HW126083   1.471   0.037   3.780  1.6286 -1.5997  1.2403
 6281SOL    HW226084   1.408   0.147   3.862 -1.7855 -1.6028 -1.1720
 6282SOL     OW26085   5.532  12.295  12.503  0.4722 -0.1699  0.2762
 6282SOL    HW126086   5.451  12.331  12.538  1.2351  0.8004  1.1088
 6282SOL    HW226087   5.513  12.203  12.488 -0.8616  0.0931  0.2008
 6283SOL     OW26088   6.234  10.611  12.534 -0.0505 -0.4630  0.1434
 6283SOL    HW126089   6.296  10.636  12.603  1.8329 -2.2445 -0.7793
 6283SOL    HW226090   6.216  10.693  12.488  0.2864  0.3921  1.4712
 6284SOL     OW26091   7.443   3.899  12.329  0.2716 -0.0531 -0.0654
 6284SOL    HW126092   7.374   3.840  12.360  1.1030 -0.4270  1.1048
 6284SOL    HW226093   7.412   3.927  12.242 -1.7511  0.4268  0.7401
 6285SOL     OW26094   6.783  12.691   0.573  0.3386  0.5813  0.4784
 6285SOL    HW126095   6.805  12.764   0.631  1.3528  0.6938 -0.0336
 6285SOL    HW226096   6.807  12.721   0.485 -3.7328  1.5306 -0.5314
 6286SOL     OW26097   2.580  10.524   2.552 -0.4229 -0.2001 -0.4662
 6286SOL    HW126098   2.509  10.514   2.488 -1.8032  1.2331  0.7460
 6286SOL    HW226099   2.572  10.449   2.610 -0.6631 -0.2664 -0.5857
 6287SOL     OW26100   5.784  12.271  12.356  0.3706 -0.5960  0.8745
 6287SOL    HW126101   5.778  12.191  12.304  0.1332  1.0779 -1.8811
 6287SOL    HW226102   5.693  12.292  12.378  0.0419  0.5245 -1.2263
 6288SOL     OW26103   8.522   9.037  10.786 -0.5559  0.0306 -0.0221
 6288SOL    HW126104   8.578   9.046  10.709 -0.0184 -1.5551  0.1610
 6288SOL    HW226105   8.499   9.127  10.809  0.8402  0.6360 -0.8779
 6289SOL     OW26106   6.698   7.544   0.208 -0.0697  0.5432 -0.5879
 6289SOL    HW126107   6.654   7.490   0.273 -0.4272  0.4835 -0.8753
 6289SOL    HW226108   6.786   7.559   0.244 -0.3607  0.7647  0.0429
 6290SOL     OW26109  11.364   6.808  10.587  0.2240 -0.0969  0.4646
 6290SOL    HW126110  11.386   6.899  10.568  0.0510 -0.0117  0.6616
 6290SOL    HW226111  11.354   6.806  10.683 -0.3592 -0.1923  0.4018
 6291SOL     OW26112   1.284   7.331   9.990  0.5518  0.1897 -0.2773
 6291SOL    HW126113   1.281   7.277   9.911  0.5658 -0.8306  0.4146
 6291SOL    HW226114   1.198   7.322  10.029  0.6124  0.5294 -0.0608
 6292SOL     OW26115   4.653  11.723   9.371  0.0366 -0.5454  0.2930
 6292SOL    HW126116   4.585  11.665   9.405 -0.6311 -0.1404 -0.3123
 6292SOL    HW226117   4.674  11.781   9.444  1.2707 -2.0000  1.1625
 6293SOL     OW26118  12.118  11.462   7.262  0.1151 -0.2317  0.1620
 6293SOL    HW126119  12.036  11.498   7.295  0.8903  0.7776  1.0448
 6293SOL    HW226120  12.184  11.486   7.327  1.0099 -1.6341 -0.1656
 6294SOL     OW26121   4.888   2.951   6.581  0.1121 -0.8295 -0.1322
 6294SOL    HW126122   4.961   2.893   6.558  0.3434  0.0422 -1.7841
 6294SOL    HW226123   4.913   2.990   6.665  1.2513 -1.0478 -0.3567
 6295SOL     OW26124  10.797   8.089   6.547 -0.0163  0.0996  0.0883
 6295SOL    HW126125  10.822   8.138   6.468 -0.3608  2.4896  1.3454
 6295SOL    HW226126  10.881   8.067   6.589  0.2957 -3.2875 -1.9901
 6296SOL     OW26127  11.684   0.809   5.432 -0.2577  0.2459 -0.1375
 6296SOL    HW126128  11.690   0.840   5.522 -1.4576 -0.7250  0.3071
 6296SOL    HW226129  11.636   0.878   5.386  0.4976  0.8181 -0.0939
 6297SOL     OW26130   4.277  11.928   9.724 -0.8933 -0.6577  0.0256
 6297SOL    HW126131   4.258  12.016   9.691  0.6895 -0.6353 -0.9195
 6297SOL    HW226132   4.297  11.941   9.817  2.5430  0.5653 -0.7423
 6298SOL     OW26133   9.407   9.640  10.714 -0.4932 -0.2542  0.0017
 6298SOL    HW126134   9.427   9.612  10.625 -1.0838 -0.4696 -0.0703
 6298SOL    HW226135   9.313   9.659  10.712 -0.2354  1.1454  0.2003
 6299SOL     OW26136   5.925   5.115   9.765  0.1373 -0.4765  0.4123
 6299SOL    HW126137   5.897   5.034   9.724 -0.6507  0.5421 -1.1592
 6299SOL    HW226138   6.021   5.107   9.771  0.1576 -1.1329 -0.6040
 6300SOL     OW26139   0.498  11.617  10.390  0.3234  0.7002 -0.5358
 6300SOL    HW126140   0.561  11.546  10.382 -1.3997 -1.1202  1.1331
 6300SOL    HW226141   0.489  11.632  10.484 -2.9721 -0.3840 -0.5398
 6301SOL     OW26142   1.583  12.655  12.317  0.3006 -0.2923 -0.1344
 6301SOL    HW126143   1.541  12.651  12.403  0.1702 -0.1378 -0.1911
 6301SOL    HW226144   1.650  12.587  12.320 -1.1292 -1.7856 -0.6994
 6302SOL     OW26145  12.318   4.391   0.544  0.1607  0.2153 -0.2650
 6302SOL    HW126146  12.296   4.448   0.618  0.4155  1.2234 -0.9516
 6302SOL    HW226147  12.302   4.302   0.577  4.4859  0.1973  2.5779
 6303SOL     OW26148   7.842   0.372   7.070  0.1277 -0.2771  0.4720
 6303SOL    HW126149   7.883   0.347   7.153 -1.4642 -0.3414  1.2869
 6303SOL    HW226150   7.860   0.465   7.060  1.1616 -0.4817  0.3803
 6304SOL     OW26151   3.922  10.160   6.109  0.1364  0.2950 -0.0658
 6304SOL    HW126152   3.853  10.219   6.079 -0.3942 -0.6885 -0.8500
 6304SOL    HW226153   3.941  10.104   6.034  0.5058 -0.6440  0.6935
 6305SOL     OW26154   9.417   3.129   8.426  0.1110  0.1430 -0.4111
 6305SOL    HW126155   9.401   3.145   8.519 -0.0211  2.0242 -0.7162
 6305SOL    HW226156   9.488   3.189   8.404 -1.1370  1.1059 -1.9474
 6306SOL     OW26157   8.631   4.849   3.096  0.0422  0.4950  0.3610
 6306SOL    HW126158   8.590   4.852   3.009  0.4854 -0.7720  0.0936
 6306SOL    HW226159   8.695   4.920   3.094 -2.1257  2.6098  0.8276
 6307SOL     OW26160  11.382   1.545   0.816 -0.2662 -0.1515 -0.0042
 6307SOL    HW126161  11.470   1.557   0.781 -0.0884  0.4814  0.6403
 6307SOL    HW226162  11.352   1.463   0.777  1.0020 -0.9323  0.5736
 6308SOL     OW26163   6.360  11.215  11.938  0.4090 -0.1489 -1.3372
 6308SOL    HW126164   6.412  11.137  11.916  1.9566  0.5672 -0.4380
 6308SOL    HW226165   6.346  11.208  12.032  1.3904  1.0984 -1.0700
 6309SOL     OW26166   8.218  12.343  10.840 -0.3474 -0.2528 -0.1862
 6309SOL    HW126167   8.281  12.391  10.786 -0.1461 -0.4551 -0.1303
 6309SOL    HW226168   8.223  12.252  10.809 -1.5658 -0.0509 -1.0932
 6310SOL     OW26169   7.432   1.071   8.884  0.5224 -0.0977  0.0777
 6310SOL    HW126170   7.511   1.053   8.834  0.5154  0.7969 -0.2820
 6310SOL    HW226171   7.385   0.988   8.886 -0.4534  0.2207 -3.1653
 6311SOL     OW26172   8.738   5.737   2.178 -0.0581 -0.0558  0.2594
 6311SOL    HW126173   8.784   5.750   2.261  0.0641  1.7395 -0.0438
 6311SOL    HW226174   8.754   5.645   2.155 -0.4905 -0.7276  2.4372
 6312SOL     OW26175   1.622   8.339   2.002 -0.2856  0.8155  0.4546
 6312SOL    HW126176   1.712   8.347   2.034 -0.3273 -0.9627  1.1263
 6312SOL    HW226177   1.586   8.427   2.010  1.1379  1.3832  0.9753
 6313SOL     OW26178  12.469  12.707   2.854  0.8937  0.2467  0.2997
 6313SOL    HW126179  12.564  12.699   2.857  0.8532 -0.5762 -0.3191
 6313SOL    HW226180  12.442  12.649   2.783 -0.1476 -0.2338  1.0651
 6314SOL     OW26181   3.330   9.698   7.527  0.4952 -0.2994 -0.3589
 6314SOL    HW126182   3.396   9.706   7.459  0.4463  0.4075 -0.3298
 6314SOL    HW226183   3.259   9.650   7.486  0.9085 -0.8283 -0.4726
 6315SOL     OW26184   6.926   9.525   2.772 -0.0573 -0.9609  0.1683
 6315SOL    HW126185   6.859   9.562   2.830  0.6326  0.2312  0.2472
 6315SOL    HW226186   6.981   9.600   2.749  0.6678 -1.7350 -0.6874
 6316SOL     OW26187   2.149  11.423  11.295  0.4401  0.1934  0.0072
 6316SOL    HW126188   2.066  11.438  11.251 -1.1838 -1.5323  2.2424
 6316SOL    HW226189   2.161  11.500  11.350  0.5689  0.6528 -0.6562
 6317SOL     OW26190   4.354   0.320   1.605  0.4905  0.0416 -0.2672
 6317SOL    HW126191   4.397   0.239   1.630  0.0193  0.0193  0.5036
 6317SOL    HW226192   4.415   0.363   1.546  0.1979 -1.4996 -1.7881
 6318SOL     OW26193  10.090   9.896   2.888 -0.0164 -0.5965 -0.0657
 6318SOL    HW126194  10.095   9.803   2.867 -1.0256 -0.2577 -2.0888
 6318SOL    HW226195   9.998   9.911   2.909 -0.1259  0.1380 -0.9695
 6319SOL     OW26196   2.719   3.638   9.038 -0.2111 -0.1835  0.4433
 6319SOL    HW126197   2.631   3.601   9.033 -0.2153 -0.0838 -0.2754
 6319SOL    HW226198   2.765   3.580   9.099 -0.6038 -0.5886  0.3629
 6320SOL     OW26199  10.451   5.665   6.098  0.0007  0.5804 -0.0898
 6320SOL    HW126200  10.523   5.710   6.142  0.4291  0.0894 -0.2675
 6320SOL    HW226201  10.435   5.587   6.152  0.7092 -0.1655 -0.9282
 6321SOL     OW26202   1.190   4.109   2.698 -0.3393 -0.2031  0.1192
 6321SOL    HW126203   1.213   4.021   2.727 -1.7657 -0.4072  0.7359
 6321SOL    HW226204   1.105   4.126   2.739 -0.7477  0.9110 -1.1122
 6322SOL     OW26205  11.121   3.072  10.742  0.5108 -0.1296 -0.1146
 6322SOL    HW126206  11.183   3.020  10.691  0.0812 -0.5906 -0.1689
 6322SOL    HW226207  11.166   3.156  10.755  1.0972 -0.4132 -0.2567
 6323SOL     OW26208   0.490  10.520  10.048  0.3496 -0.2777  0.6146
 6323SOL    HW126209   0.464  10.612  10.052 -1.5960 -0.7123 -0.7424
 6323SOL    HW226210   0.470  10.486  10.135  1.6328  0.6559  1.3272
 6324SOL     OW26211  11.084   8.086   2.287  0.8816 -0.6540 -0.7655
 6324SOL    HW126212  11.123   8.100   2.374  0.7403  0.9265 -0.9210
 6324SOL    HW226213  11.096   7.993   2.270  1.7176 -0.8215  0.5688
 6325SOL     OW26214   8.067   7.699  12.033 -0.1287  0.1052  0.1604
 6325SOL    HW126215   7.982   7.701  11.988 -0.4549 -1.9391  0.5708
 6325SOL    HW226216   8.045   7.704  12.126  0.1298 -0.8382  0.2895
 6326SOL     OW26217   9.340   7.392   5.412  0.4248 -0.2045  0.0895
 6326SOL    HW126218   9.288   7.471   5.422 -0.5109 -0.8343  0.2967
 6326SOL    HW226219   9.361   7.365   5.501  2.0684  0.6466 -0.0064
 6327SOL     OW26220   5.091   3.060   5.604  0.1062  0.1727 -0.0528
 6327SOL    HW126221   5.161   2.994   5.598  0.8625  0.8235  1.2926
 6327SOL    HW226222   5.025   3.019   5.659 -0.2325 -0.1416 -0.6855
 6328SOL     OW26223   4.581   1.182   0.530  0.2236  0.0649  0.4742
 6328SOL    HW126224   4.593   1.088   0.512 -2.1478 -0.4337  1.1713
 6328SOL    HW226225   4.669   1.218   0.525  0.9237 -1.6972 -2.4808
 6329SOL     OW26226   2.224   1.097   7.329  0.2121 -0.0791  0.2991
 6329SOL    HW126227   2.139   1.053   7.326 -0.0306  0.3495 -2.6510
 6329SOL    HW226228   2.277   1.048   7.266  1.9152  0.1758  1.4731
 6330SOL     OW26229   5.507  12.279   0.142 -0.3900  0.6178  0.4845
 6330SOL    HW126230   5.467  12.214   0.084  0.6358  1.2170 -0.9549
 6330SOL    HW226231   5.440  12.297   0.208 -1.6765  0.0420 -0.6161
 6331SOL     OW26232   4.908   3.911   6.838  0.6270  0.3884 -0.2278
 6331SOL    HW126233   4.986   3.965   6.829  0.3736  1.3454  2.3330
 6331SOL    HW226234   4.842   3.956   6.784  1.2772  0.7690 -0.7289
 6332SOL     OW26235  10.316   1.407  11.629  0.2301 -0.0453 -0.2542
 6332SOL    HW126236  10.229   1.411  11.669  0.9430  0.3194  1.3835
 6332SOL    HW226237  10.351   1.322  11.657  0.4809 -0.0920 -0.7095
 6333SOL     OW26238   2.108   9.843  10.677  0.1003 -0.0154 -0.5155
 6333SOL    HW126239   2.183   9.848  10.736 -1.7876 -1.0607  2.1738
 6333SOL    HW226240   2.078   9.934  10.669  1.5009  0.4028 -1.5592
 6334SOL     OW26241   0.286   3.116   8.672 -0.2788  0.5029 -0.0446
 6334SOL    HW126242   0.330   3.160   8.599  0.8958 -0.8630 -0.2055
 6334SOL    HW226243   0.348   3.124   8.745 -0.2326 -0.5156  0.0344
 6335SOL     OW26244   3.175  11.499   6.161 -0.4343 -0.1834 -0.1143
 6335SOL    HW126245   3.142  11.458   6.242 -0.7913  0.5910  0.1461
 6335SOL    HW226246   3.259  11.456   6.145  0.6824  1.0777  1.8476
 6336SOL     OW26247   8.300   9.003  10.083  0.2192 -0.4245 -0.2846
 6336SOL    HW126248   8.302   9.029  10.175 -0.8982 -0.2819 -0.2758
 6336SOL    HW226249   8.343   8.917  10.081 -1.9156 -1.6165  0.8338
 6337SOL     OW26250  11.067   9.066   4.396  0.0553 -0.3736 -0.4486
 6337SOL    HW126251  11.036   9.148   4.358  0.5863 -0.8611 -2.0101
 6337SOL    HW226252  11.052   9.076   4.490  1.7981  2.2433 -0.3468
 6338SOL     OW26253   4.005   2.463   4.130  0.1172  0.4785 -0.4371
 6338SOL    HW126254   3.932   2.410   4.161  0.0611 -0.9881 -2.8609
 6338SOL    HW226255   3.965   2.527   4.071  0.5999  0.9231 -0.2974
 6339SOL     OW26256   8.768   4.084   7.021  0.3821 -0.1136 -0.1935
 6339SOL    HW126257   8.812   4.158   7.063  1.2645 -0.7635  0.0486
 6339SOL    HW226258   8.770   4.014   7.086 -1.2555 -0.0912 -0.0794
 6340SOL     OW26259   0.883   7.403   8.297 -1.0969  0.6020  0.5145
 6340SOL    HW126260   0.872   7.312   8.322 -4.0772 -0.0218 -2.3629
 6340SOL    HW226261   0.972   7.408   8.262 -1.1791 -1.4818 -0.1168
 6341SOL     OW26262  11.267   3.454   9.662  0.1512 -0.5209  0.0816
 6341SOL    HW126263  11.210   3.523   9.628 -1.1741 -0.7400  1.7528
 6341SOL    HW226264  11.265   3.386   9.595 -1.6548 -0.5573  0.1269
 6342SOL     OW26265   1.071   1.993  10.135  0.0844 -0.5211 -0.2724
 6342SOL    HW126266   0.999   1.947  10.091 -0.7306  0.3377  0.1230
 6342SOL    HW226267   1.084   2.073  10.083  1.6649 -1.2651 -1.1058
 6343SOL     OW26268   1.851   7.311   7.645  0.4623 -0.0336  0.4225
 6343SOL    HW126269   1.789   7.379   7.670  0.9638  0.4393  0.4010
 6343SOL    HW226270   1.917   7.311   7.714  1.5789  0.9307 -0.5969
 6344SOL     OW26271   1.686   4.292  12.619 -0.4789 -0.2062  0.2000
 6344SOL    HW126272   1.709   4.265  12.707  0.2213 -0.4557 -0.0539
 6344SOL    HW226273   1.744   4.366  12.601 -0.0202 -0.6894 -0.3571
 6345SOL     OW26274   8.583   3.957  10.876 -0.0488  0.8338  0.2233
 6345SOL    HW126275   8.609   3.971  10.785 -1.5523  0.4423 -0.3042
 6345SOL    HW226276   8.499   4.002  10.885 -0.0675  0.6196  1.3362
 6346SOL     OW26277  10.104   7.439   9.021 -0.0165  0.0644 -0.5467
 6346SOL    HW126278  10.148   7.368   8.974 -2.2119 -0.5421 -1.8569
 6346SOL    HW226279  10.173   7.479   9.074  1.6021 -2.1439 -0.8224
 6347SOL     OW26280  10.733   4.221   8.601  0.4978  0.2291 -0.1965
 6347SOL    HW126281  10.731   4.165   8.679 -2.1739  0.5502  0.0436
 6347SOL    HW226282  10.764   4.306   8.633 -1.4608  0.6298  0.7782
 6348SOL     OW26283  10.282   3.805   3.511 -0.2073  0.7034  0.2708
 6348SOL    HW126284  10.369   3.830   3.543  0.4273 -0.6653 -0.2868
 6348SOL    HW226285  10.253   3.736   3.570 -1.5070  2.0149  1.2216
 6349SOL     OW26286   9.610   1.698   7.653  0.0265  0.1055 -0.2904
 6349SOL    HW126287   9.606   1.787   7.688  0.2594  0.2998 -0.7474
 6349SOL    HW226288   9.685   1.658   7.696  1.4453  0.9342 -1.8833
 6350SOL     OW26289   1.579  10.596   2.161 -0.2502  0.4036 -0.1689
 6350SOL    HW126290   1.502  10.596   2.216 -1.6601  0.4773 -2.0401
 6350SOL    HW226291   1.591  10.687   2.135  1.8693  0.7969  1.8654
 6351SOL     OW26292  10.152   3.511   4.075  0.2735 -0.4505 -0.3561
 6351SOL    HW126293  10.234   3.472   4.105  1.1335  1.2189 -0.3793
 6351SOL    HW226294  10.092   3.438   4.064  1.6896 -1.6862 -0.0853
 6352SOL     OW26295   0.715  11.639   4.881 -0.2732  0.5271 -0.1410
 6352SOL    HW126296   0.793  11.693   4.883  1.2281 -1.5321  1.2596
 6352SOL    HW226297   0.678  11.646   4.969 -0.6444  0.0883 -0.2557
 6353SOL     OW26298   9.201   6.005   1.768  0.1098  0.1556  0.6419
 6353SOL    HW126299   9.182   6.051   1.686 -1.2370  0.2569  1.0023
 6353SOL    HW226300   9.294   6.022   1.783  1.0460 -1.8292 -2.0797
 6354SOL     OW26301   2.139   6.287   7.470  0.2261 -0.1198  0.0882
 6354SOL    HW126302   2.050   6.311   7.445 -0.0903  2.2087  2.9178
 6354SOL    HW226303   2.133   6.194   7.495 -1.5232  0.1129  0.6592
 6355SOL     OW26304  12.587  12.236   1.791 -0.4685  0.0813 -0.2017
 6355SOL    HW126305  12.679  12.263   1.786 -0.9071  1.4372 -1.7425
 6355SOL    HW226306  12.572  12.187   1.710 -1.2551  0.3467 -0.2188
 6356SOL     OW26307   4.076   5.586   0.590  0.1720 -0.4066 -0.3451
 6356SOL    HW126308   4.111   5.533   0.662 -1.6800 -0.8955  0.2493
 6356SOL    HW226309   4.134   5.662   0.586  2.0780 -1.7796 -0.3220
 6357SOL     OW26310  12.382   2.585   7.104 -0.0232  0.0931  0.5246
 6357SOL    HW126311  12.314   2.518   7.095 -0.1399  0.2972 -0.1626
 6357SOL    HW226312  12.440   2.550   7.171 -0.3879 -0.4396  0.5742
 6358SOL     OW26313   0.724   2.279   8.666  0.0182  0.2078  0.2171
 6358SOL    HW126314   0.632   2.265   8.646 -0.3934  2.6937  0.0382
 6358SOL    HW226315   0.726   2.300   8.759  0.0936  2.1204 -0.1821
 6359SOL     OW26316  10.969   4.255   2.944  0.3609 -0.0155  0.0208
 6359SOL    HW126317  10.922   4.173   2.932 -0.5314  0.4657  0.1180
 6359SOL    HW226318  10.990   4.285   2.856  0.8434 -0.4336 -0.0065
 6360SOL     OW26319  10.312   3.824   7.019  0.2890 -0.2388 -0.0805
 6360SOL    HW126320  10.352   3.888   6.960 -0.3956  0.2449 -0.0241
 6360SOL    HW226321  10.387   3.775   7.055  0.7754  0.1171 -0.5856
 6361SOL     OW26322   4.081   8.130   7.695  0.5350  0.5379 -0.5655
 6361SOL    HW126323   4.172   8.101   7.681  0.0307 -0.5924 -1.6997
 6361SOL    HW226324   4.032   8.089   7.623 -1.1246 -0.0891  0.8572
 6362SOL     OW26325   1.782  11.416   8.173 -0.1709  0.8892  0.2430
 6362SOL    HW126326   1.849  11.349   8.185 -1.4921 -0.4533  0.5641
 6362SOL    HW226327   1.799  11.480   8.242  0.1312 -0.0093  1.0214
 6363SOL     OW26328   8.928  10.015  11.298 -0.4343 -0.6029 -0.0702
 6363SOL    HW126329   8.965  10.082  11.356  0.1064 -0.7432 -0.2476
 6363SOL    HW226330   8.960  10.039  11.211 -0.1540 -1.1492 -0.1200
 6364SOL     OW26331   1.235  12.557   7.674 -0.6247 -0.2251 -0.6367
 6364SOL    HW126332   1.152  12.541   7.719  0.0926  1.3256  1.4386
 6364SOL    HW226333   1.292  12.486   7.702 -1.2005 -1.3076 -2.0873
 6365SOL     OW26334   6.684   8.810   9.258 -0.0899  0.1960 -0.0869
 6365SOL    HW126335   6.708   8.725   9.294  0.1434  0.5825  0.7118
 6365SOL    HW226336   6.601   8.795   9.213  0.0833 -0.5052 -0.1777
 6366SOL     OW26337  11.460   2.226   2.442 -0.2992 -0.4333  0.1877
 6366SOL    HW126338  11.554   2.212   2.435 -0.3364 -0.8907  0.5046
 6366SOL    HW226339  11.424   2.189   2.361 -0.1108  0.8693 -0.5247
 6367SOL     OW26340   8.898   7.353   6.609 -0.5913 -0.4046  0.2837
 6367SOL    HW126341   8.960   7.394   6.668  0.7164  0.7208 -1.7432
 6367SOL    HW226342   8.817   7.346   6.659  0.1769  1.3955  1.8570
 6368SOL     OW26343   6.641   5.816  10.731 -0.0747 -0.2554 -0.0724
 6368SOL    HW126344   6.696   5.846  10.659 -2.2485  2.1067 -0.8680
 6368SOL    HW226345   6.595   5.740  10.695 -0.3470  0.2425 -0.7917
 6369SOL     OW26346   6.233  12.703   2.873 -1.2007 -0.0017 -0.2467
 6369SOL    HW126347   6.139  12.698   2.858 -1.3920 -0.5316  0.9589
 6369SOL    HW226348   6.253  12.797   2.874 -1.7511  0.1181 -0.2896
 6370SOL     OW26349   1.256   5.394   3.134 -1.0040  0.2245  0.2625
 6370SOL    HW126350   1.281   5.436   3.052 -1.0473  0.2931  0.2849
 6370SOL    HW226351   1.307   5.439   3.201  0.6410 -1.1947  0.0583
 6371SOL     OW26352   9.427   0.862   8.692 -0.3566 -0.6922 -0.5349
 6371SOL    HW126353   9.503   0.884   8.639 -0.8342 -0.2545 -1.0520
 6371SOL    HW226354   9.459   0.796   8.753  0.7444  0.3342  0.0471
 6372SOL     OW26355   1.590   3.278   8.108  0.3863  0.1267 -0.3157
 6372SOL    HW126356   1.577   3.360   8.060 -0.4235  0.0746 -0.2019
 6372SOL    HW226357   1.629   3.304   8.191 -0.7391  0.5016  0.1067
 6373SOL     OW26358   9.977   0.924   1.994 -0.2611 -0.0770  0.6157
 6373SOL    HW126359  10.007   0.869   1.922 -1.5505 -0.6054  0.4494
 6373SOL    HW226360   9.933   0.864   2.054  0.3815  0.4273  1.6220
 6374SOL     OW26361   2.517   6.668   2.939 -0.1748 -0.4392  0.3571
 6374SOL    HW126362   2.554   6.746   2.980  1.0197 -1.3075  1.0075
 6374SOL    HW226363   2.425   6.690   2.924  0.5443  1.7878 -1.2657
 6375SOL     OW26364   5.908   9.883   9.625 -0.4249 -0.0010 -0.2425
 6375SOL    HW126365   5.928   9.962   9.675 -0.2469 -0.5129  0.5173
 6375SOL    HW226366   5.912   9.911   9.533 -0.9594  0.9987  0.0236
 6376SOL     OW26367   6.211   2.596  10.142 -0.0732 -1.0288 -0.0875
 6376SOL    HW126368   6.289   2.617  10.091  0.1168  1.7089  1.1786
 6376SOL    HW226369   6.245   2.573  10.229 -0.6256  1.1732  0.7740
 6377SOL     OW26370   3.558  12.090  11.137  0.0000 -0.4189 -0.1761
 6377SOL    HW126371   3.567  12.008  11.186 -0.8276  0.1273  0.9587
 6377SOL    HW226372   3.476  12.081  11.089 -1.6090  0.7460  2.1390
 6378SOL     OW26373  10.717  10.953   9.016 -0.1913 -0.0921  0.0536
 6378SOL    HW126374  10.804  10.958   9.055 -0.1728  1.2053 -0.1110
 6378SOL    HW226375  10.664  10.906   9.080  0.7795 -1.4863 -0.1419
 6379SOL     OW26376   3.112   3.808   4.558 -0.1536  0.3897  0.3060
 6379SOL    HW126377   3.139   3.887   4.605 -1.4098  0.7120  0.5469
 6379SOL    HW226378   3.025   3.830   4.524 -0.6766 -0.9975  0.6645
 6380SOL     OW26379   4.650   6.757   7.491 -0.4339  0.2884  0.1899
 6380SOL    HW126380   4.731   6.737   7.538 -1.4926  1.0880  2.5015
 6380SOL    HW226381   4.673   6.826   7.429  0.3924  1.4934  1.7949
 6381SOL     OW26382   8.007   6.262   0.574  0.0424  0.2812  0.0622
 6381SOL    HW126383   8.093   6.229   0.547  0.9397  2.4464  0.0796
 6381SOL    HW226384   8.004   6.246   0.669 -0.2113 -1.0919 -0.1568
 6382SOL     OW26385   6.130  10.294   3.797  0.0027 -0.2185 -0.1548
 6382SOL    HW126386   6.215  10.273   3.758 -0.1996 -1.3095 -0.0283
 6382SOL    HW226387   6.117  10.387   3.778  1.4375  0.0756  0.2387
 6383SOL     OW26388   0.197   3.516  12.300  0.6117  0.5348 -0.5308
 6383SOL    HW126389   0.270   3.454  12.302  1.3438  1.3684 -0.8187
 6383SOL    HW226390   0.121   3.462  12.276  1.2084 -0.2639 -0.6827
 6384SOL     OW26391  10.762   6.051  10.890 -0.2829 -0.0232  0.2311
 6384SOL    HW126392  10.780   6.137  10.852 -1.2418  0.4439  0.7877
 6384SOL    HW226393  10.707   6.069  10.967  0.2833 -1.0622  0.9106
 6385SOL     OW26394   3.987  11.998   4.400  0.5460 -0.3476 -0.0280
 6385SOL    HW126395   4.030  12.081   4.377 -0.9581  0.2012 -1.0139
 6385SOL    HW226396   3.903  12.024   4.438  0.4274 -1.4072  0.4555
 6386SOL     OW26397   8.836   6.022   1.304 -0.5038 -0.2886 -0.2263
 6386SOL    HW126398   8.841   6.067   1.388 -2.9918 -0.9258  0.3551
 6386SOL    HW226399   8.743   6.027   1.280  0.0540 -0.5601 -2.7060
 6387SOL     OW26400   7.994   7.778   7.819 -0.1228  0.4262  0.2523
 6387SOL    HW126401   8.075   7.829   7.826  0.1870 -0.1339  0.9508
 6387SOL    HW226402   7.924   7.841   7.830  0.2586  0.6799  1.2589
 6388SOL     OW26403   8.967   3.388   0.917 -0.5472 -0.0156  0.3235
 6388SOL    HW126404   9.039   3.342   0.875 -1.2161 -0.5688 -0.2396
 6388SOL    HW226405   8.935   3.450   0.851  0.9524  2.0216  1.3716
 6389SOL     OW26406   9.368   4.386  11.686 -0.3644  0.0659  0.4629
 6389SOL    HW126407   9.394   4.451  11.751  2.0235  0.4958 -0.8297
 6389SOL    HW226408   9.385   4.427  11.601 -2.8533 -0.6875 -0.5116
 6390SOL     OW26409  10.722   5.305   5.094  0.4460  0.3805 -0.1807
 6390SOL    HW126410  10.694   5.298   5.186  0.5908 -0.7188 -0.2164
 6390SOL    HW226411  10.648   5.272   5.044  1.3784 -1.6725 -0.3160
 6391SOL     OW26412   7.849   7.628   1.016  0.2070 -0.5484 -0.4793
 6391SOL    HW126413   7.811   7.700   1.066 -0.0046 -0.0514 -1.3243
 6391SOL    HW226414   7.829   7.650   0.925  1.5378 -0.8566 -0.8692
 6392SOL     OW26415   5.214   0.736   5.962 -0.0115 -0.5796 -0.6704
 6392SOL    HW126416   5.301   0.701   5.943  0.9229  0.6734  1.0712
 6392SOL    HW226417   5.186   0.689   6.040  0.1140  0.5996  0.1099
 6393SOL     OW26418   5.078  10.231   9.107 -0.5024 -0.3249 -0.4215
 6393SOL    HW126419   4.988  10.228   9.074 -0.4847 -0.3317 -0.4693
 6393SOL    HW226420   5.121  10.157   9.066 -0.6368 -0.6890  0.0829
 6394SOL     OW26421  12.134   8.932   8.406  0.2166  0.0617 -0.0868
 6394SOL    HW126422  12.098   8.981   8.332 -0.2960  1.2289  0.8943
 6394SOL    HW226423  12.181   8.998   8.458  1.3793 -0.9153  0.1398
 6395SOL     OW26424  11.238   8.118   1.162 -0.3860  0.1207  0.0506
 6395SOL    HW126425  11.236   8.210   1.190 -0.1732 -0.1388  0.9492
 6395SOL    HW226426  11.212   8.120   1.070 -3.2388  0.7850  0.7897
 6396SOL     OW26427   6.283   1.415   6.167 -0.0828 -0.0756 -0.1780
 6396SOL    HW126428   6.194   1.396   6.138 -0.1899 -0.2439  0.2471
 6396SOL    HW226429   6.298   1.355   6.240 -0.2456  1.0992  0.8672
 6397SOL     OW26430   9.371   6.587   9.027  0.0480  0.3119  0.1272
 6397SOL    HW126431   9.321   6.648   8.973 -0.1382 -0.3551 -0.4756
 6397SOL    HW226432   9.445   6.638   9.059 -0.7360  1.1802  0.6271
 6398SOL     OW26433   2.728   9.574  11.411 -0.4265 -0.8959  0.0986
 6398SOL    HW126434   2.721   9.497  11.354 -0.9845 -1.6771  1.1872
 6398SOL    HW226435   2.648   9.624  11.392  0.9130  0.5686 -2.1598
 6399SOL     OW26436   2.568  11.711   6.438  0.4009 -0.0726 -0.1335
 6399SOL    HW126437   2.637  11.693   6.502 -1.0072 -1.8588  0.9690
 6399SOL    HW226438   2.489  11.723   6.491 -0.4238  0.5325 -1.4471
 6400SOL     OW26439   2.249   8.459   2.651  0.0147  0.6030 -0.3286
 6400SOL    HW126440   2.291   8.478   2.734 -1.5959 -0.3123  0.7485
 6400SOL    HW226441   2.162   8.427   2.674 -0.7935  1.0783 -2.3891
 6401SOL     OW26442   1.252   7.056   3.318 -0.1097  0.2126 -0.9803
 6401SOL    HW126443   1.203   7.121   3.269  0.2864  2.1536  1.0341
 6401SOL    HW226444   1.238   7.079   3.410  0.0816 -2.5550 -0.1381
 6402SOL     OW26445   3.019  12.233   1.063  0.0871  0.2427  0.1442
 6402SOL    HW126446   3.087  12.180   1.103  1.4292  1.0446 -0.9860
 6402SOL    HW226447   3.022  12.317   1.109 -0.1627  0.2620  0.1284
 6403SOL     OW26448   1.921   8.701   0.137  0.0665  0.1476 -0.2754
 6403SOL    HW126449   1.992   8.645   0.104 -1.6297 -1.9192 -0.6873
 6403SOL    HW226450   1.939   8.711   0.230  0.6237 -0.8132 -0.2681
 6404SOL     OW26451   9.123   6.371   2.829  0.6426  0.1953 -0.5252
 6404SOL    HW126452   9.155   6.442   2.774  0.4530  1.1552  0.5612
 6404SOL    HW226453   9.028   6.380   2.827  0.5677  2.9164  3.1183
 6405SOL     OW26454   3.506   7.845  10.794 -0.3967  0.0625  0.0181
 6405SOL    HW126455   3.523   7.870  10.885  0.9936 -1.2164  0.1561
 6405SOL    HW226456   3.421   7.802  10.797 -0.2554 -0.1924  0.7875
 6406SOL     OW26457  10.964   8.773   3.892 -0.3683  0.1315  0.0239
 6406SOL    HW126458  11.040   8.761   3.835 -0.4920 -1.7124  0.1764
 6406SOL    HW226459  10.999   8.770   3.981 -0.6831 -1.5531  0.1131
 6407SOL     OW26460   2.274   3.420  10.773 -0.2662  0.2426 -0.4196
 6407SOL    HW126461   2.264   3.383  10.861 -1.8654  0.9643 -0.2712
 6407SOL    HW226462   2.189   3.407  10.731  1.2823 -2.8128 -3.0118
 6408SOL     OW26463   4.802   3.846   2.160  0.2489  0.1079 -0.8455
 6408SOL    HW126464   4.789   3.879   2.071  1.2893  1.4363 -0.5479
 6408SOL    HW226465   4.767   3.915   2.216  1.2562  0.1282 -0.2167
 6409SOL     OW26466  10.249  10.231  11.241 -0.3988  0.0733 -0.0371
 6409SOL    HW126467  10.279  10.297  11.303  1.4363 -2.7436  2.4126
 6409SOL    HW226468  10.214  10.161  11.297  2.2275 -3.0608 -1.9696
 6410SOL     OW26469   6.752  12.431   1.534  0.0733 -0.7910  0.6108
 6410SOL    HW126470   6.668  12.404   1.496 -0.2721  2.0490 -0.9824
 6410SOL    HW226471   6.739  12.424   1.629 -2.0445 -0.2884  0.4125
 6411SOL     OW26472   9.734   7.900   7.274  0.0243 -0.0553 -0.3550
 6411SOL    HW126473   9.766   7.815   7.304  0.1149  0.2604  0.4758
 6411SOL    HW226474   9.675   7.930   7.344 -2.7425 -0.9524 -2.1250
 6412SOL     OW26475   4.483   3.085  10.452  0.0146 -0.3171 -0.4246
 6412SOL    HW126476   4.453   3.175  10.463 -2.3184 -1.1090  0.3388
 6412SOL    HW226477   4.553   3.091  10.387 -2.2617  1.7054 -2.9499
 6413SOL     OW26478   0.229   1.836   3.438  0.0146 -0.7607  0.0539
 6413SOL    HW126479   0.313   1.879   3.420 -0.6583  0.1083 -1.1959
 6413SOL    HW226480   0.193   1.885   3.512  0.8399 -1.5095  0.9795
 6414SOL     OW26481   7.296  10.082   3.793  0.2840 -0.3349  0.3533
 6414SOL    HW126482   7.243  10.039   3.860 -1.7433  0.3597 -0.6953
 6414SOL    HW226483   7.307  10.172   3.826 -0.5841 -0.0369 -0.1184
 6415SOL     OW26484   8.515   1.211  12.059 -0.2109  0.5676  0.6759
 6415SOL    HW126485   8.544   1.302  12.066 -0.9835  0.8477  0.3585
 6415SOL    HW226486   8.479   1.190  12.146 -0.6271  0.7838  0.5604
 6416SOL     OW26487  10.166   0.940  11.927  0.6145 -0.0792 -0.1173
 6416SOL    HW126488  10.210   0.855  11.922 -0.7011 -1.0188  2.4075
 6416SOL    HW226489  10.194   0.976  12.011  0.8929  1.9126 -1.0009
 6417SOL     OW26490  11.256   7.166  10.160 -0.2968 -0.6000 -0.5006
 6417SOL    HW126491  11.231   7.075  10.147 -2.3469  0.0614 -1.6946
 6417SOL    HW226492  11.183   7.216  10.123 -0.6182  1.5505  2.6594
 6418SOL     OW26493   2.438   3.648  12.359  0.1821 -0.6828 -0.5975
 6418SOL    HW126494   2.464   3.589  12.430 -0.8237  1.0078  1.3126
 6418SOL    HW226495   2.444   3.735  12.398 -1.3773  0.2522 -2.2884
 6419SOL     OW26496   3.108   9.935  12.053 -0.3830 -0.8275 -0.2970
 6419SOL    HW126497   3.159   9.970  11.980 -1.2857  0.3500 -0.3939
 6419SOL    HW226498   3.131   9.989  12.128 -2.2163  0.4363 -0.5754
 6420SOL     OW26499   1.276   3.355   8.612 -0.0295 -0.2605  0.3719
 6420SOL    HW126500   1.351   3.296   8.624 -0.6676 -1.5370 -1.5042
 6420SOL    HW226501   1.202   3.306   8.647 -0.6083 -0.7084 -1.4308
 6421SOL     OW26502   4.718  10.844   3.167  0.3089 -0.0812  0.2457
 6421SOL    HW126503   4.704  10.874   3.077  0.2125  0.7075  0.5178
 6421SOL    HW226504   4.632  10.851   3.208  0.0342 -1.7402  0.0432
 6422SOL     OW26505   3.201  11.580  12.310  0.1353  0.6810  0.6127
 6422SOL    HW126506   3.266  11.649  12.326  0.3967  0.2643  1.4472
 6422SOL    HW226507   3.239  11.528  12.239  0.2008  1.0663  0.3605
 6423SOL     OW26508   0.488   7.529   3.566 -0.3437 -0.3460 -0.9696
 6423SOL    HW126509   0.506   7.595   3.499 -0.3571 -0.4207 -1.0488
 6423SOL    HW226510   0.491   7.576   3.649  0.0596 -0.3300 -0.9950
 6424SOL     OW26511   6.078   8.749   9.410 -0.3996  0.0260 -0.4967
 6424SOL    HW126512   6.114   8.832   9.440 -0.4824  0.0281 -0.4038
 6424SOL    HW226513   5.989   8.770   9.381 -1.1057 -0.3510  1.2402
 6425SOL     OW26514   9.317   8.624   2.653  0.7984  0.2483 -0.0336
 6425SOL    HW126515   9.396   8.579   2.682  0.2238 -0.7883 -0.0104
 6425SOL    HW226516   9.247   8.558   2.662 -0.2586  1.4440  0.9420
 6426SOL     OW26517   5.964   7.792   4.515  0.4358  0.0429  0.0904
 6426SOL    HW126518   5.934   7.781   4.606  0.5496 -0.7778  0.0412
 6426SOL    HW226519   6.045   7.741   4.511  1.6918  1.9602  0.1319
 6427SOL     OW26520   3.524   6.832   5.413 -0.5441  0.1728 -0.4988
 6427SOL    HW126521   3.461   6.903   5.398 -0.3642  0.4056 -0.1584
 6427SOL    HW226522   3.480   6.773   5.474  0.4128  1.4871  1.5496
 6428SOL     OW26523   3.256   4.695   3.662  0.0314 -0.2742  0.4284
 6428SOL    HW126524   3.230   4.615   3.707  1.0340 -0.1924  1.1898
 6428SOL    HW226525   3.319   4.666   3.596  0.6606 -0.0692  0.9416
 6429SOL     OW26526   8.586   4.037   2.360 -0.3987 -0.5216 -0.0190
 6429SOL    HW126527   8.637   4.049   2.440 -1.8563 -1.7430  1.1477
 6429SOL    HW226528   8.608   4.113   2.306  0.0668  0.7343  1.8431
 6430SOL     OW26529  12.176   5.237  10.451  0.1666 -0.2729 -0.0080
 6430SOL    HW126530  12.145   5.159  10.405 -0.2144  0.0280 -0.2700
 6430SOL    HW226531  12.141   5.310  10.401 -1.6534  0.0865  1.6445
 6431SOL     OW26532   4.135   1.205   5.972  0.1738 -0.2174  0.5252
 6431SOL    HW126533   4.077   1.276   5.999 -0.1162  0.4873 -1.7159
 6431SOL    HW226534   4.077   1.142   5.929  0.8592 -0.1827 -0.4750
 6432SOL     OW26535   0.654   9.598   8.720 -0.1251  0.5604  0.4909
 6432SOL    HW126536   0.738   9.643   8.731 -0.3638  1.0849  0.2491
 6432SOL    HW226537   0.615   9.598   8.807  0.0025  0.5817  0.5477
 6433SOL     OW26538   3.884   0.377   9.060  0.1845  0.5831 -0.2830
 6433SOL    HW126539   3.915   0.373   9.151 -0.2673 -0.2612 -0.1540
 6433SOL    HW226540   3.846   0.291   9.044  0.2240  0.7381 -1.2681
 6434SOL     OW26541  10.990  11.299   9.848 -0.3692  0.8185  0.1246
 6434SOL    HW126542  11.011  11.213   9.811 -1.1873  0.3700  0.6691
 6434SOL    HW226543  10.937  11.342   9.780 -0.2814  0.7411  0.0064
 6435SOL     OW26544   1.776   6.518  12.110  0.5436  0.2148  0.2957
 6435SOL    HW126545   1.779   6.425  12.088  1.1734  0.1536  0.6072
 6435SOL    HW226546   1.809   6.522  12.199  0.8656  0.7753  0.1540
 6436SOL     OW26547   5.793   2.055   0.548 -0.5098  0.2301  0.1740
 6436SOL    HW126548   5.732   2.026   0.615  0.7523  0.1778  1.3322
 6436SOL    HW226549   5.878   2.056   0.591  0.5579 -1.0233 -1.7565
 6437SOL     OW26550   5.880   7.340   3.452  0.2875 -0.2935 -0.4698
 6437SOL    HW126551   5.892   7.397   3.528 -0.7248 -2.8836  1.7926
 6437SOL    HW226552   5.795   7.367   3.416  1.4132  1.9062 -1.6751
 6438SOL     OW26553   6.805   1.256   0.057 -0.3363 -0.3765 -0.1021
 6438SOL    HW126554   6.711   1.242   0.049 -0.3191 -0.6796  0.2201
 6438SOL    HW226555   6.823   1.329  -0.002 -0.8632  0.0508  0.2575
 6439SOL     OW26556   5.178  12.047   9.481 -0.3488 -0.7458  0.2870
 6439SOL    HW126557   5.172  11.966   9.429 -1.4972  0.5007 -1.6424
 6439SOL    HW226558   5.183  12.016   9.571  0.5162 -3.0033 -0.4515
 6440SOL     OW26559  10.136  12.165   5.173 -0.3756 -0.1914 -0.1625
 6440SOL    HW126560  10.061  12.181   5.116  0.5331 -0.6542 -1.5554
 6440SOL    HW226561  10.173  12.252   5.189 -0.8526 -0.0218  0.0102
 6441SOL     OW26562   8.434   8.221   5.842  0.2326  0.2181 -0.2224
 6441SOL    HW126563   8.377   8.144   5.839  0.4459 -0.0663  1.6766
 6441SOL    HW226564   8.479   8.215   5.926  2.6801  0.7414 -1.3941
 6442SOL     OW26565   9.817   0.383  12.092  0.2723 -0.1166 -0.0093
 6442SOL    HW126566   9.851   0.400  12.180  0.1604 -2.4406  0.5347
 6442SOL    HW226567   9.729   0.419  12.093  0.6493  0.8415  0.4433
 6443SOL     OW26568   7.028   3.147  10.923  0.4807 -0.1771  0.2713
 6443SOL    HW126569   7.115   3.130  10.958  1.5955  2.5289 -0.8555
 6443SOL    HW226570   6.988   3.206  10.987  0.5774  0.7662 -0.5199
 6444SOL     OW26571   5.141   6.764  11.561  0.0781 -0.8661 -0.4371
 6444SOL    HW126572   5.149   6.857  11.539 -0.8207 -0.0634  2.2311
 6444SOL    HW226573   5.087   6.728  11.492 -3.2792  1.6161  0.6394
 6445SOL     OW26574   4.310   9.801   9.299  0.6617 -0.0436 -0.7936
 6445SOL    HW126575   4.299   9.882   9.350  1.6511  0.3447 -1.1650
 6445SOL    HW226576   4.239   9.744   9.328 -0.9871  1.4977 -1.5897
 6446SOL     OW26577  11.691   4.986  12.012  0.4069 -0.2547 -0.0024
 6446SOL    HW126578  11.720   4.913  11.957 -1.9525  0.0169 -1.7934
 6446SOL    HW226579  11.668   5.055  11.949 -1.4175  0.4684  1.3598
 6447SOL     OW26580   3.926   1.284   0.415 -0.9187  0.8553 -0.5400
 6447SOL    HW126581   3.967   1.325   0.339 -0.1556  1.0320 -0.0483
 6447SOL    HW226582   3.833   1.277   0.392 -0.5470 -0.0493 -1.9100
 6448SOL     OW26583  11.106   5.244   8.125 -0.0697 -0.3003  0.0048
 6448SOL    HW126584  11.102   5.167   8.183  0.5044 -0.6669 -0.4266
 6448SOL    HW226585  11.084   5.209   8.038  1.8225 -0.3282 -0.5042
 6449SOL     OW26586   7.533   4.477   0.628 -0.1301 -0.3474 -0.0494
 6449SOL    HW126587   7.588   4.414   0.674 -0.6095 -0.5218  0.2915
 6449SOL    HW226588   7.447   4.468   0.668 -0.4983 -0.3265 -0.8115
 6450SOL     OW26589   0.336  12.428   0.247 -0.2285 -0.4653  0.2877
 6450SOL    HW126590   0.260  12.409   0.301 -1.0873  0.9574 -0.3754
 6450SOL    HW226591   0.300  12.456   0.163  0.9857  0.6969  0.1170
 6451SOL     OW26592  10.377   9.285   8.511 -0.1392  0.0081  0.1186
 6451SOL    HW126593  10.452   9.316   8.561 -0.6295 -0.1950  0.9949
 6451SOL    HW226594  10.414   9.221   8.449  0.7679  1.7067 -1.1861
 6452SOL     OW26595   8.064   4.436   8.829  0.2139 -0.0347  0.1903
 6452SOL    HW126596   8.120   4.364   8.855 -0.4715 -1.3360 -1.7136
 6452SOL    HW226597   8.118   4.488   8.769  0.2865  0.3357  0.5683
 6453SOL     OW26598   8.901   0.623   0.776  0.0793  0.4813 -0.0658
 6453SOL    HW126599   8.931   0.712   0.793  0.3085  0.4362 -0.2332
 6453SOL    HW226600   8.981   0.572   0.766 -0.0402  0.0443  1.0858
 6454SOL     OW26601  10.010  11.667  11.625  0.4809  0.0013  0.0509
 6454SOL    HW126602  10.037  11.625  11.707 -3.6172 -1.1443  1.0332
 6454SOL    HW226603   9.994  11.595  11.565 -1.9141  0.3676  0.1547
 6455SOL     OW26604   7.380   1.908   1.082  0.0544 -0.7987  0.3917
 6455SOL    HW126605   7.391   1.898   0.987 -0.4535  1.1107  0.0878
 6455SOL    HW226606   7.293   1.947   1.092  0.0450 -1.1127  1.6530
 6456SOL     OW26607   3.989  11.652   7.174  0.0062 -0.0717 -0.1723
 6456SOL    HW126608   4.026  11.676   7.089 -0.1907 -0.7759 -0.4700
 6456SOL    HW226609   4.046  11.694   7.238  0.6724 -0.2299 -0.6437
 6457SOL     OW26610  10.672  10.829   2.518 -0.7407 -0.4725  0.0668
 6457SOL    HW126611  10.759  10.797   2.543 -0.7591  0.7385  1.8623
 6457SOL    HW226612  10.613  10.757   2.539 -0.2919 -0.9384 -0.2418
 6458SOL     OW26613  10.700   1.097   2.362  0.2616  0.5160 -0.3135
 6458SOL    HW126614  10.666   1.011   2.339 -0.2752  0.7672 -0.4655
 6458SOL    HW226615  10.704   1.144   2.278  1.6303  0.2736 -0.4182
 6459SOL     OW26616  10.745   0.308   1.043 -0.1067  0.3730 -0.7494
 6459SOL    HW126617  10.663   0.354   1.061 -1.2104 -1.0811 -1.8508
 6459SOL    HW226618  10.720   0.235   0.986  1.6006 -1.4211  0.6631
 6460SOL     OW26619  12.528   2.292   3.221 -0.0800  0.1774  0.0197
 6460SOL    HW126620  12.460   2.263   3.159 -1.8468 -0.3644  2.0847
 6460SOL    HW226621  12.514   2.387   3.229 -2.1944 -0.2273  2.1109
 6461SOL     OW26622   0.383   4.978  11.313 -0.2308  0.6345  0.4041
 6461SOL    HW126623   0.445   4.980  11.240 -0.5977 -2.0929 -0.0803
 6461SOL    HW226624   0.350   5.068  11.318  0.0221  0.9998 -2.5945
 6462SOL     OW26625  11.911  11.738  11.686 -0.0813  0.4893 -1.0301
 6462SOL    HW126626  11.817  11.728  11.674 -0.0510  0.2374 -1.0566
 6462SOL    HW226627  11.920  11.808  11.751 -0.3257 -0.7912  0.4182
 6463SOL     OW26628  11.490   6.341   7.478 -0.4213  0.6268 -0.0308
 6463SOL    HW126629  11.558   6.393   7.520 -1.5349 -1.1541  4.5766
 6463SOL    HW226630  11.532   6.257   7.457 -0.1290  1.1593 -1.7386
 6464SOL     OW26631   5.067  12.106   1.907  0.0222 -0.3010  0.0362
 6464SOL    HW126632   4.983  12.062   1.901  0.2581 -0.6861 -0.5407
 6464SOL    HW226633   5.055  12.172   1.975 -0.7665 -0.2980 -0.0988
 6465SOL     OW26634   6.447   3.149   8.271 -0.3938  0.1933 -0.0168
 6465SOL    HW126635   6.466   3.086   8.201 -3.0543 -1.7147  0.7978
 6465SOL    HW226636   6.381   3.207   8.234 -1.1461 -0.2629  0.5766
 6466SOL     OW26637   4.411   0.116   8.509  0.0140  0.6921  0.5657
 6466SOL    HW126638   4.356   0.106   8.586  1.4848 -0.3532  1.5446
 6466SOL    HW226639   4.375   0.192   8.463 -3.3666 -0.9921  0.1120
 6467SOL     OW26640  10.179   3.402   1.659  0.0253  0.6951 -0.1026
 6467SOL    HW126641  10.138   3.320   1.630  2.1270 -0.8026  0.9036
 6467SOL    HW226642  10.194   3.390   1.752  2.3528  1.2834 -0.3310
 6468SOL     OW26643   0.810  12.213   7.482  0.0016 -0.1718 -0.3576
 6468SOL    HW126644   0.753  12.280   7.519  0.0151 -0.8409  0.9618
 6468SOL    HW226645   0.765  12.131   7.500  1.2705 -0.7083  0.5968
 6469SOL     OW26646  11.237   1.028   0.848  0.4444 -0.3019  0.0795
 6469SOL    HW126647  11.200   1.092   0.910  2.4689  0.0665  1.0066
 6469SOL    HW226648  11.161   0.987   0.807 -0.9728  0.1933  2.0645
 6470SOL     OW26649   0.654   4.640  12.109 -0.3461 -0.4307  0.4949
 6470SOL    HW126650   0.657   4.607  12.199  0.0868 -3.5215 -0.5381
 6470SOL    HW226651   0.561   4.647  12.089 -0.4472  0.3901  1.1853
 6471SOL     OW26652  10.823   2.150   9.800 -0.1726  0.2082 -0.2937
 6471SOL    HW126653  10.889   2.215   9.824 -0.1255  0.4067 -0.9532
 6471SOL    HW226654  10.871   2.069   9.787 -0.2710 -0.0666  0.8746
 6472SOL     OW26655  11.885  11.241  11.038 -0.0524 -0.0711 -0.1835
 6472SOL    HW126656  11.850  11.156  11.012  0.1401 -0.4450  0.7368
 6472SOL    HW226657  11.975  11.242  11.005 -1.1676  1.3777 -3.6189
 6473SOL     OW26658   9.846  10.017  12.312  0.0413 -0.2721 -0.2371
 6473SOL    HW126659   9.794   9.987  12.387  2.2087 -1.7740  0.7525
 6473SOL    HW226660   9.910  10.077  12.350 -0.6340  1.2515 -1.3842
 6474SOL     OW26661   1.628  10.691   4.856 -0.3856  0.2979  0.2819
 6474SOL    HW126662   1.543  10.707   4.897 -0.9489  0.3914 -0.8983
 6474SOL    HW226663   1.610  10.687   4.762  1.1516  1.9851 -0.1380
 6475SOL     OW26664   6.922   2.387   1.940 -0.1546 -0.8695 -0.0453
 6475SOL    HW126665   6.860   2.430   1.881 -0.3520 -0.1721  0.6444
 6475SOL    HW226666   6.882   2.303   1.959 -0.7956 -0.5179  0.2125
 6476SOL     OW26667   5.833  12.076   9.433  0.2347  0.0659 -0.4815
 6476SOL    HW126668   5.922  12.058   9.463 -0.1032  1.6071  1.6692
 6476SOL    HW226669   5.839  12.163   9.393 -0.4398  0.5469  0.4410
 6477SOL     OW26670   2.485   3.568   8.230  0.8278  0.2031 -0.3017
 6477SOL    HW126671   2.564   3.514   8.226  0.8853  0.2525  0.1369
 6477SOL    HW226672   2.496   3.621   8.309 -0.0229 -0.3746  0.2203
 6478SOL     OW26673  11.843   5.692   9.941  0.2749 -0.6685 -0.1086
 6478SOL    HW126674  11.825   5.723  10.030  0.9055 -1.3962  0.2915
 6478SOL    HW226675  11.934   5.717   9.925 -0.1757  0.4709 -1.0050
 6479SOL     OW26676   2.259   2.946   1.169 -0.3655 -0.3970 -0.0914
 6479SOL    HW126677   2.296   2.936   1.082 -0.2234  0.3852 -0.1275
 6479SOL    HW226678   2.195   3.016   1.160 -2.1402 -1.9414 -0.1068
 6480SOL     OW26679   7.768   0.428   9.414 -0.1676 -0.0362  0.1618
 6480SOL    HW126680   7.691   0.401   9.463 -0.1376 -0.5513 -0.0700
 6480SOL    HW226681   7.824   0.351   9.412  0.7753  0.5869  1.1072
 6481SOL     OW26682   3.770   0.613   9.731  0.3569  0.2719 -0.1746
 6481SOL    HW126683   3.712   0.624   9.655 -0.9102  0.9699  0.8474
 6481SOL    HW226684   3.832   0.686   9.724  1.2536 -0.5654 -1.3590
 6482SOL     OW26685   9.926   7.035   6.465  0.2594  0.3810 -0.3838
 6482SOL    HW126686   9.934   7.012   6.373 -0.1162 -0.6794 -0.1673
 6482SOL    HW226687   9.917   6.951   6.510 -0.0797  0.9091  0.5645
 6483SOL     OW26688  11.036   2.258   2.747 -0.2720 -0.5402 -0.6145
 6483SOL    HW126689  10.989   2.227   2.824 -1.5211 -1.6848 -1.7760
 6483SOL    HW226690  11.038   2.182   2.689  3.5491 -0.7656 -0.4559
 6484SOL     OW26691  10.429   8.970   1.920  0.5986 -0.2171  0.0688
 6484SOL    HW126692  10.396   8.996   2.006  1.5726  1.6038 -0.0753
 6484SOL    HW226693  10.439   9.052   1.872 -0.7396 -1.2389 -2.1187
 6485SOL     OW26694   5.021   4.716   1.247 -0.5703 -0.2815  0.2042
 6485SOL    HW126695   4.995   4.671   1.167  0.4629 -2.2155  0.8809
 6485SOL    HW226696   5.115   4.700   1.254 -0.3427  1.2290  0.9878
 6486SOL     OW26697  12.252   0.620   8.817  0.7278 -0.0070 -0.2544
 6486SOL    HW126698  12.175   0.674   8.801  0.3562 -0.6474 -0.7131
 6486SOL    HW226699  12.293   0.611   8.731  1.5311  0.6481  0.0583
 6487SOL     OW26700   9.589   2.919   8.821  0.2735  0.0653 -0.7293
 6487SOL    HW126701   9.667   2.891   8.868  1.0241  0.6184 -1.6233
 6487SOL    HW226702   9.588   3.015   8.831 -1.1635 -0.0337  0.5929
 6488SOL     OW26703  10.911   6.044   4.060  0.2807  0.5755  0.1388
 6488SOL    HW126704  10.851   6.093   4.117  0.5708  0.3251  0.6639
 6488SOL    HW226705  10.975   6.109   4.031  1.1118  0.3598  1.4463
 6489SOL     OW26706  12.228   2.685   1.323  0.4326  0.3906 -0.0809
 6489SOL    HW126707  12.209   2.730   1.241  1.7004  0.4953 -0.3310
 6489SOL    HW226708  12.293   2.739   1.367  0.6350 -0.2642  0.4558
 6490SOL     OW26709   7.269  10.096   8.196 -0.3174 -0.3895 -0.0339
 6490SOL    HW126710   7.210  10.156   8.242 -1.3675 -0.5910 -1.0782
 6490SOL    HW226711   7.347  10.093   8.251 -1.0292  0.3708  1.0620
 6491SOL     OW26712   7.486   4.951   1.657  0.8682  0.0604 -0.4059
 6491SOL    HW126713   7.483   4.881   1.722  1.3175  1.3000  1.0023
 6491SOL    HW226714   7.412   4.932   1.599  0.8772 -1.4703  0.0273
 6492SOL     OW26715   1.976   7.154  12.160  0.1308 -0.2078  0.2514
 6492SOL    HW126716   2.043   7.220  12.141 -0.6462  0.6953  0.5577
 6492SOL    HW226717   1.909   7.202  12.209 -1.8431 -0.4874 -1.9737
 6493SOL     OW26718  10.131   3.536   9.554  0.2039  0.1239 -0.1993
 6493SOL    HW126719  10.209   3.539   9.499  0.1573 -0.5834 -0.3099
 6493SOL    HW226720  10.147   3.462   9.613 -1.0839 -1.0541 -1.2815
 6494SOL     OW26721  12.300  10.458   2.907 -0.5078 -0.8459  0.2523
 6494SOL    HW126722  12.315  10.399   2.981  3.6987 -0.6524 -0.2306
 6494SOL    HW226723  12.271  10.400   2.836  1.2964 -2.0222  0.4246
 6495SOL     OW26724   2.208   8.984   4.481 -0.3106 -0.0717  0.6324
 6495SOL    HW126725   2.286   9.008   4.431  0.0196 -0.4675  0.9545
 6495SOL    HW226726   2.174   9.067   4.514 -1.0369  0.3142 -0.9624
 6496SOL     OW26727   9.204   6.615   4.498 -0.0615 -0.1428  0.6765
 6496SOL    HW126728   9.157   6.591   4.418  2.0823 -0.9853 -0.4207
 6496SOL    HW226729   9.249   6.697   4.476  1.0711 -0.7253  0.7607
 6497SOL     OW26730   8.596   3.399   4.240 -0.5396  0.1153  0.7404
 6497SOL    HW126731   8.585   3.305   4.249  2.3288 -0.3354  0.3320
 6497SOL    HW226732   8.666   3.410   4.176 -1.3384  2.5828  0.1291
 6498SOL     OW26733   0.061   8.940   6.611  0.3793  0.1548  0.3414
 6498SOL    HW126734   0.082   8.847   6.606  0.1489  0.0615  0.9135
 6498SOL    HW226735   0.141   8.981   6.645 -0.2451 -0.1769  2.3539
 6499SOL     OW26736   4.645  12.362  11.416 -0.3187 -0.2925 -0.4465
 6499SOL    HW126737   4.657  12.279  11.463 -1.8050 -0.4055 -0.2343
 6499SOL    HW226738   4.607  12.421  11.481  1.1531  0.7180 -0.4676
 6500SOL     OW26739  10.690   7.371  10.314 -0.5292  0.3084 -0.1328
 6500SOL    HW126740  10.600   7.358  10.344 -0.4190  0.8380  0.4466
 6500SOL    HW226741  10.743   7.324  10.378 -0.4280 -0.7410 -0.9540
 6501SOL     OW26742   5.506   5.418   6.547  0.4799  0.2714  0.1892
 6501SOL    HW126743   5.598   5.422   6.522  0.0935 -0.1560 -1.4183
 6501SOL    HW226744   5.478   5.509   6.554  1.1227  0.4056  1.1147
 6502SOL     OW26745   0.885   5.795   4.104 -0.1667  0.5194  0.2058
 6502SOL    HW126746   0.840   5.761   4.027  3.1033 -0.5704 -1.4096
 6502SOL    HW226747   0.905   5.717   4.156 -0.9409  1.0827  1.3855
 6503SOL     OW26748   8.772   2.898   0.107 -0.5499  0.3323  0.5076
 6503SOL    HW126749   8.740   2.936   0.025 -0.2138  0.8291  0.6057
 6503SOL    HW226750   8.775   2.971   0.168 -0.6592 -0.0108  0.9240
 6504SOL     OW26751   4.005   0.522   2.150 -0.0309  0.6451  0.0268
 6504SOL    HW126752   3.928   0.534   2.093 -0.2091  0.0497  0.1382
 6504SOL    HW226753   3.967   0.508   2.237  0.2299  1.0824  0.2140
 6505SOL     OW26754   1.197   3.011   6.993  0.0974 -0.4680  0.6855
 6505SOL    HW126755   1.222   3.101   7.014 -4.0450  0.7794  1.1202
 6505SOL    HW226756   1.235   2.959   7.064  0.2500  1.3809  2.0425
 6506SOL     OW26757   8.122   6.860   2.989 -0.0126 -0.2943 -0.2083
 6506SOL    HW126758   8.062   6.795   2.951 -0.3179 -0.3962  0.4444
 6506SOL    HW226759   8.147   6.822   3.073  1.9497 -0.8423 -0.9956
 6507SOL     OW26760   5.263  11.714   5.273  0.8183 -0.5610  0.0770
 6507SOL    HW126761   5.257  11.702   5.178  1.4343  1.8775 -0.3250
 6507SOL    HW226762   5.212  11.793   5.290  0.0111 -1.4293  1.9287
 6508SOL     OW26763   5.995   2.451   4.245  0.3514  0.8427  0.0874
 6508SOL    HW126764   5.959   2.424   4.161 -0.0334  2.3192 -0.2488
 6508SOL    HW226765   6.081   2.488   4.223  1.6700 -1.6529  0.7489
 6509SOL     OW26766   7.527   1.860   2.224 -0.4892  0.0640  0.2139
 6509SOL    HW126767   7.462   1.890   2.288  0.5393  0.8095  0.9499
 6509SOL    HW226768   7.567   1.941   2.192 -1.1115 -0.2760 -1.5568
 6510SOL     OW26769  12.208   4.286   5.253  0.1523  0.2500  0.1321
 6510SOL    HW126770  12.224   4.304   5.160  0.8581  0.9878  0.3907
 6510SOL    HW226771  12.217   4.190   5.260 -3.4164 -0.3267 -1.1931
 6511SOL     OW26772   8.709   4.879   1.508  0.3964  0.1755  0.3969
 6511SOL    HW126773   8.648   4.874   1.436  1.1499  2.6438 -0.5142
 6511SOL    HW226774   8.759   4.959   1.493  2.6941 -0.8021  2.0082
 6512SOL     OW26775   7.491   8.632   0.004 -0.2329  0.2607  0.4839
 6512SOL    HW126776   7.465   8.541   0.022 -1.4817  0.8850  2.1585
 6512SOL    HW226777   7.411   8.683   0.018  0.0808  1.5030 -1.8684
 6513SOL     OW26778  10.535   9.986   9.485 -0.1367  0.7116 -0.3821
 6513SOL    HW126779  10.618   9.950   9.518 -0.9164  0.4703  1.4230
 6513SOL    HW226780  10.528   9.951   9.396  2.5957  2.2835 -1.3358
 6514SOL     OW26781  12.078   0.614   2.498 -0.3251  0.2191  0.3291
 6514SOL    HW126782  12.105   0.704   2.513  0.8718 -0.5309  3.1811
 6514SOL    HW226783  11.989   0.610   2.533 -0.2300  0.1889  0.5663
 6515SOL     OW26784   4.730   1.768   2.688  0.6023  0.2403  0.3064
 6515SOL    HW126785   4.770   1.799   2.769  0.4327 -1.7395  1.1869
 6515SOL    HW226786   4.699   1.680   2.708 -0.8067  0.2737 -1.4741
 6516SOL     OW26787   9.739   2.876   1.751  0.2945  0.2575  0.1480
 6516SOL    HW126788   9.820   2.836   1.719 -0.0984 -0.2908 -0.1850
 6516SOL    HW226789   9.753   2.970   1.745  1.7953  0.2482  2.2681
 6517SOL     OW26790  10.168   2.801   6.809 -0.3467  0.3032  0.2656
 6517SOL    HW126791  10.197   2.721   6.766  0.1312  1.0841 -0.9028
 6517SOL    HW226792  10.085   2.822   6.768 -1.3882 -0.5457  1.8373
 6518SOL     OW26793   6.169  10.507  11.465  0.2107 -0.0184  0.5851
 6518SOL    HW126794   6.074  10.516  11.470  0.2978  0.4577  1.5046
 6518SOL    HW226795   6.202  10.550  11.544  1.2572  0.7232 -0.2361
 6519SOL     OW26796   5.514  10.372   3.372 -0.8044 -0.2187  0.4668
 6519SOL    HW126797   5.576  10.299   3.376  3.0121  2.6886 -0.2474
 6519SOL    HW226798   5.536  10.426   3.448 -0.5814  2.2497 -1.2585
 6520SOL     OW26799   5.048   2.669   3.014  0.0852 -0.1885  0.0231
 6520SOL    HW126800   5.003   2.749   2.987  1.7270  1.2145  1.2916
 6520SOL    HW226801   4.977   2.604   3.021 -1.3860  1.2958 -0.3499
 6521SOL     OW26802   5.918   9.238   5.323  0.1459  0.5506 -0.0433
 6521SOL    HW126803   5.868   9.292   5.261 -2.8127 -1.4834  0.3359
 6521SOL    HW226804   5.854   9.215   5.391  2.6299  0.7017  2.5264
 6522SOL     OW26805   4.126   6.145  11.602  0.4460 -0.1185 -0.5200
 6522SOL    HW126806   4.191   6.135  11.672  1.6049  0.0017 -1.5272
 6522SOL    HW226807   4.108   6.239  11.600 -1.9158 -0.4269  1.5637
 6523SOL     OW26808   7.433   5.763   5.097 -0.4695  0.2675  0.2622
 6523SOL    HW126809   7.440   5.811   5.015  0.6252  0.8906  0.7028
 6523SOL    HW226810   7.339   5.747   5.107 -0.7099  1.0574 -0.6076
 6524SOL     OW26811  12.618  12.679   4.474  0.8689  0.0962  0.4404
 6524SOL    HW126812  12.572  12.759   4.499 -1.5324 -1.3103  0.7959
 6524SOL    HW226813  12.692  12.710   4.421 -1.2708  2.4886 -1.4391
 6525SOL     OW26814   0.197   7.708  12.014 -0.7680 -0.8392 -0.3153
 6525SOL    HW126815   0.267   7.704  11.949 -1.9766 -1.7568 -1.6112
 6525SOL    HW226816   0.223   7.644  12.081  1.0970  0.9810  0.8322
 6526SOL     OW26817  12.552  12.602   1.670 -0.5439 -0.4870 -0.0548
 6526SOL    HW126818  12.558  12.517   1.714 -1.5519 -0.2440  0.5970
 6526SOL    HW226819  12.595  12.663   1.730 -0.5090 -0.4152 -0.1532
 6527SOL     OW26820   0.505   5.149  12.641  0.6051  0.4300  0.5651
 6527SOL    HW126821   0.444   5.167  12.569  1.0750 -0.3567 -0.0509
 6527SOL    HW226822   0.458   5.175  12.720  0.9343  3.5552 -0.1533
 6528SOL     OW26823   8.994   7.598   4.103  0.4335 -0.4375 -0.0575
 6528SOL    HW126824   9.075   7.578   4.057  0.9326 -1.1238  1.0741
 6528SOL    HW226825   8.925   7.561   4.048  0.9969 -1.0993 -0.3318
 6529SOL     OW26826  11.967   6.420   3.743  0.0784 -0.1714  0.3590
 6529SOL    HW126827  11.946   6.462   3.827 -0.7095  0.1244  0.0240
 6529SOL    HW226828  11.903   6.349   3.736  1.6627 -1.7611  1.1281
 6530SOL     OW26829  11.686   8.763   8.225  0.0825 -0.1728 -0.2752
 6530SOL    HW126830  11.724   8.832   8.279  0.8924  0.7971 -1.9954
 6530SOL    HW226831  11.759   8.706   8.203 -0.3721 -0.9561  0.2055
 6531SOL     OW26832  11.948   4.032   9.591 -0.2141  0.3140  0.3416
 6531SOL    HW126833  11.994   3.964   9.542  2.0744  1.8882  0.1333
 6531SOL    HW226834  11.876   3.987   9.634  1.4200 -2.3194  0.5059
 6532SOL     OW26835   8.403   8.234  11.728 -0.5426  0.3028 -0.2685
 6532SOL    HW126836   8.355   8.313  11.751 -0.0195  0.0425  1.9391
 6532SOL    HW226837   8.433   8.198  11.812  0.7370 -1.2839 -1.3278
 6533SOL     OW26838   6.858   0.633   7.341 -0.1350  0.5018 -0.3247
 6533SOL    HW126839   6.849   0.577   7.264  0.8270 -0.9849  0.5828
 6533SOL    HW226840   6.796   0.704   7.327  0.7407  0.8573 -2.9581
 6534SOL     OW26841   8.064   2.168   1.903 -0.0284 -0.4417 -0.0952
 6534SOL    HW126842   8.119   2.186   1.826  0.0611  0.1959  0.1134
 6534SOL    HW226843   8.068   2.073   1.913  0.8814 -0.4235 -0.1987
 6535SOL     OW26844   8.415   1.119   7.973 -0.2537 -0.2020  0.0561
 6535SOL    HW126845   8.367   1.200   7.958 -0.8282 -0.1198  2.0975
 6535SOL    HW226846   8.456   1.130   8.058  0.3185 -1.7482  0.0105
 6536SOL     OW26847   2.988   6.638   2.817 -0.0643  0.4435  0.1267
 6536SOL    HW126848   2.973   6.564   2.875 -1.3892 -1.8401 -2.8579
 6536SOL    HW226849   2.902   6.679   2.808 -0.3914 -0.5083 -1.6791
 6537SOL     OW26850   7.478   8.994  12.201  0.3944  0.0044 -0.1542
 6537SOL    HW126851   7.445   8.904  12.209 -0.3419  0.3060  0.2040
 6537SOL    HW226852   7.433   9.029  12.125  1.1038 -0.1019 -0.6356
 6538SOL     OW26853   6.042  10.898   9.022 -0.0061 -0.2229 -0.3886
 6538SOL    HW126854   5.951  10.924   9.031 -0.0202 -0.7196  1.0862
 6538SOL    HW226855   6.088  10.947   9.091  0.5828 -1.1241 -0.1193
 6539SOL     OW26856   3.229   5.806   7.389 -0.5942 -0.1327 -0.2792
 6539SOL    HW126857   3.320   5.836   7.391 -0.5971  0.0718  3.2763
 6539SOL    HW226858   3.184   5.863   7.452 -2.6912 -1.7164 -0.2381
 6540SOL     OW26859  11.400  10.122   8.373  0.0976 -0.5367 -0.0239
 6540SOL    HW126860  11.442  10.045   8.410 -1.3130 -1.0806  0.5129
 6540SOL    HW226861  11.379  10.177   8.448 -0.2381 -0.3153 -0.2772
 6541SOL     OW26862   1.576   4.648  12.496 -0.2673  0.1294  0.3948
 6541SOL    HW126863   1.620   4.681  12.417 -1.0535  1.7439  0.5898
 6541SOL    HW226864   1.647   4.617  12.552  0.7602  2.9549  0.8376
 6542SOL     OW26865   7.727   5.147   0.600  0.0123 -0.4675 -0.3455
 6542SOL    HW126866   7.815   5.172   0.628 -0.1560  1.2726 -1.2655
 6542SOL    HW226867   7.712   5.063   0.644  2.6681 -1.5563 -1.2516
 6543SOL     OW26868   3.207   7.347   0.673  0.2091  0.3024 -0.3366
 6543SOL    HW126869   3.276   7.330   0.737  1.6949  0.0823 -1.9137
 6543SOL    HW226870   3.181   7.438   0.688  0.4590  0.2154  0.6314
 6544SOL     OW26871  10.139   4.103   9.948  0.4095  0.0607 -0.2012
 6544SOL    HW126872  10.123   4.107   9.853 -1.6262  0.0143  0.0965
 6544SOL    HW226873  10.171   4.014   9.963 -0.5851 -0.4042 -0.6995
 6545SOL     OW26874  12.575   0.559  12.152  0.1656  0.2094  0.6285
 6545SOL    HW126875  12.482   0.536  12.152  0.0869  0.4387 -0.6634
 6545SOL    HW226876  12.577   0.651  12.128  0.7408  0.1325  0.3599
 6546SOL     OW26877   3.686   1.054   9.506 -0.0512  0.3850  0.4958
 6546SOL    HW126878   3.605   1.023   9.546  0.3299  1.1119  1.8926
 6546SOL    HW226879   3.671   1.047   9.412 -1.3806 -0.3676  0.7460
 6547SOL     OW26880   3.294   2.809   3.591 -0.4093  0.6984 -0.1681
 6547SOL    HW126881   3.288   2.841   3.681  3.3109  0.7115  0.1995
 6547SOL    HW226882   3.234   2.734   3.588 -0.3039  0.4354  2.4546
 6548SOL     OW26883   0.333  11.357   5.042  0.0968  0.1666 -0.2134
 6548SOL    HW126884   0.337  11.434   4.985  0.3244  0.5752  0.3452
 6548SOL    HW226885   0.246  11.320   5.026  0.0363  0.4622 -0.5862
 6549SOL     OW26886  12.658   3.391   8.429 -0.5005 -0.0203  0.2931
 6549SOL    HW126887  12.657   3.365   8.521  2.1172 -0.1596  0.3670
 6549SOL    HW226888  12.580   3.351   8.391 -0.8056 -1.2551  2.1097
 6550SOL     OW26889   5.116   6.307   9.728 -0.4956 -0.5927 -0.5090
 6550SOL    HW126890   5.144   6.316   9.819 -1.7162 -0.4843 -0.1248
 6550SOL    HW226891   5.042   6.246   9.732 -0.4299 -0.7493 -1.4597
 6551SOL     OW26892   4.835   7.667   2.279  0.3967 -0.0258 -0.0959
 6551SOL    HW126893   4.759   7.648   2.223 -0.3023 -0.0248  0.8373
 6551SOL    HW226894   4.851   7.760   2.265 -0.3411  0.1774  0.3878
 6552SOL     OW26895   1.641   0.747   6.888 -0.1243 -0.2921 -0.2295
 6552SOL    HW126896   1.699   0.754   6.964 -0.7672 -0.3048  0.2802
 6552SOL    HW226897   1.699   0.732   6.814  0.5646  0.3428  0.1683
 6553SOL     OW26898  11.056   4.423  10.858 -0.4935  0.0451  0.2657
 6553SOL    HW126899  11.038   4.486  10.787 -0.4393 -1.1345 -0.8451
 6553SOL    HW226900  11.022   4.340  10.824  1.1699 -0.9191  0.8758
 6554SOL     OW26901   6.691  10.126   7.090  0.6894 -0.4774  0.2096
 6554SOL    HW126902   6.622  10.108   7.025  2.4139 -1.4878 -1.4526
 6554SOL    HW226903   6.703  10.043   7.136  1.2826 -0.5307 -0.0296
 6555SOL     OW26904   3.822  12.558  11.489  0.1857 -0.6855 -0.6041
 6555SOL    HW126905   3.781  12.502  11.423  1.0219  0.5264 -2.2138
 6555SOL    HW226906   3.763  12.634  11.495  0.0231 -0.8678  0.1882
 6556SOL     OW26907   8.036   6.933   4.078  0.1318  0.0428 -0.4314
 6556SOL    HW126908   8.104   6.868   4.091 -0.3761 -0.3172  0.6005
 6556SOL    HW226909   8.008   6.922   3.988  0.7937 -0.4358 -0.5813
 6557SOL     OW26910   1.633   1.250   4.619 -1.2380  0.0596  0.5455
 6557SOL    HW126911   1.633   1.213   4.707 -3.1902  0.5972  0.8244
 6557SOL    HW226912   1.542   1.274   4.603 -0.8219  0.5452 -1.3941
 6558SOL     OW26913   0.795   9.159   8.580 -0.2650 -0.5192  0.0732
 6558SOL    HW126914   0.853   9.224   8.620  0.9912 -1.3692 -0.2956
 6558SOL    HW226915   0.709   9.177   8.618  0.5096 -0.1180  1.7220
 6559SOL     OW26916   8.174   9.223   5.631 -0.1518 -0.3135  0.1149
 6559SOL    HW126917   8.212   9.186   5.710  0.1790 -1.3891 -0.5312
 6559SOL    HW226918   8.191   9.317   5.638  0.7527 -0.5220  0.8490
 6560SOL     OW26919   4.486  12.603   5.581  0.5115 -0.4512 -0.0664
 6560SOL    HW126920   4.569  12.583   5.538  0.4206 -0.5600 -0.1914
 6560SOL    HW226921   4.494  12.561   5.667  0.4544 -0.7456 -0.2022
 6561SOL     OW26922   3.648   4.743   7.663  0.1426  0.0275 -0.5503
 6561SOL    HW126923   3.642   4.754   7.758  1.4701 -1.2874 -0.2698
 6561SOL    HW226924   3.571   4.692   7.639 -1.0658  1.7382 -0.4614
 6562SOL     OW26925   8.619   8.506   5.898 -0.2464 -0.4166  0.0657
 6562SOL    HW126926   8.653   8.429   5.944  0.3862 -0.2954 -0.1806
 6562SOL    HW226927   8.663   8.504   5.813 -1.4400 -0.6654 -0.5561
 6563SOL     OW26928   0.359   1.964   3.885  0.2059  0.4151 -0.5789
 6563SOL    HW126929   0.388   1.915   3.961 -0.1589 -0.1285 -0.7822
 6563SOL    HW226930   0.347   2.053   3.917  0.5962  0.3109 -0.1371
 6564SOL     OW26931   3.685  11.311   0.812  0.2912  0.0139  0.2775
 6564SOL    HW126932   3.671  11.217   0.816 -0.1697  0.1098  1.3507
 6564SOL    HW226933   3.777  11.321   0.786  1.1347 -0.8117  2.6496
 6565SOL     OW26934   6.169   1.572   8.539 -0.2208  0.2162  0.5365
 6565SOL    HW126935   6.165   1.489   8.491 -2.9882 -1.0655  2.6809
 6565SOL    HW226936   6.104   1.627   8.496  0.4002  0.6626  0.1650
 6566SOL     OW26937   7.791   8.318  12.553 -0.0079 -0.2996  0.3993
 6566SOL    HW126938   7.880   8.336  12.585  2.0228 -4.5403 -1.9640
 6566SOL    HW226939   7.775   8.385  12.487  1.4988  0.4750  0.7752
 6567SOL     OW26940   5.423  10.420   9.966  0.0112  0.2542 -0.0768
 6567SOL    HW126941   5.517  10.419   9.985  0.1375 -0.5774 -0.6765
 6567SOL    HW226942   5.418  10.398   9.873 -0.6714  2.3404 -0.5857
 6568SOL     OW26943   4.663   7.063   0.648  0.3521  0.0378 -0.4104
 6568SOL    HW126944   4.623   6.999   0.707  1.0198 -1.4220 -1.4782
 6568SOL    HW226945   4.609   7.141   0.658 -0.5583 -0.7105  0.8722
 6569SOL     OW26946   4.967   6.445   5.093  0.0307 -0.3796  0.1546
 6569SOL    HW126947   4.928   6.384   5.030  1.6135  0.3742 -1.6866
 6569SOL    HW226948   5.006   6.513   5.038  0.9693  0.6463  2.0139
 6570SOL     OW26949   1.418  10.221  10.805 -0.1356 -0.2254 -0.3108
 6570SOL    HW126950   1.464  10.229  10.888  2.3702  0.6536 -1.6584
 6570SOL    HW226951   1.399  10.127  10.798  1.1639 -0.5837  0.5113
 6571SOL     OW26952   4.635   4.635   3.741  0.1899  0.5126  0.1772
 6571SOL    HW126953   4.631   4.655   3.647 -2.7615 -0.9705 -0.1507
 6571SOL    HW226954   4.567   4.690   3.780 -0.4946 -0.8311  0.9544
 6572SOL     OW26955  11.535   1.396   3.731  0.4096  0.2578  0.3263
 6572SOL    HW126956  11.489   1.471   3.768  1.8325  0.9164  0.8615
 6572SOL    HW226957  11.566   1.346   3.807  0.1962 -0.4260 -0.0230
 6573SOL     OW26958   8.105  10.209   5.848 -0.3092 -0.5983  0.1544
 6573SOL    HW126959   8.116  10.121   5.810  0.0597 -0.0173 -1.1478
 6573SOL    HW226960   8.057  10.258   5.781 -0.3425  0.2622  0.7873
 6574SOL     OW26961   3.833   4.838  10.916 -0.0542 -0.1074  0.2518
 6574SOL    HW126962   3.885   4.854  10.837  0.3278  1.0411  0.7259
 6574SOL    HW226963   3.879   4.884  10.985  0.5398 -2.4500  1.5213
 6575SOL     OW26964   6.919   8.840   2.382 -0.0899 -0.2607  0.6413
 6575SOL    HW126965   6.969   8.759   2.386  1.1280  0.4721  0.9644
 6575SOL    HW226966   6.983   8.906   2.355 -0.9488  0.6727  0.8235
 6576SOL     OW26967   0.566  10.472  11.722 -0.0509  0.0340  0.2305
 6576SOL    HW126968   0.483  10.438  11.688 -0.9514  1.3820  0.9715
 6576SOL    HW226969   0.631  10.406  11.699 -1.1562 -0.5916 -1.2452
 6577SOL     OW26970   8.740   0.648   6.404  0.3798 -0.9802  0.3902
 6577SOL    HW126971   8.706   0.563   6.375  1.0025 -1.3060  0.6010
 6577SOL    HW226972   8.664   0.706   6.401  0.1222 -1.3454 -0.5305
 6578SOL     OW26973   7.433   6.939   5.751  0.2825 -0.0493 -0.3575
 6578SOL    HW126974   7.351   6.986   5.767  0.4566  0.2946 -0.4482
 6578SOL    HW226975   7.424   6.905   5.662 -0.3786 -1.3205  0.1692
 6579SOL     OW26976   5.939   5.720   8.349  0.7546 -0.3773 -0.2588
 6579SOL    HW126977   5.858   5.769   8.337  1.7784  1.5430  0.3421
 6579SOL    HW226978   5.912   5.641   8.395 -0.8550 -0.0789 -0.6247
 6580SOL     OW26979   0.302   9.021   8.263  0.7715  0.0224  0.7423
 6580SOL    HW126980   0.392   9.021   8.296  1.1048 -2.6690  0.0602
 6580SOL    HW226981   0.311   9.048   8.172  0.8159  0.3563  0.8459
 6581SOL     OW26982   5.296   5.069   4.772 -0.3745 -0.0692  0.3776
 6581SOL    HW126983   5.293   4.973   4.767 -0.8607 -0.0128 -1.1152
 6581SOL    HW226984   5.237   5.091   4.844 -2.0849 -0.8362 -0.7193
 6582SOL     OW26985   8.056   0.549   7.363 -0.5495  0.6797 -0.0054
 6582SOL    HW126986   7.993   0.620   7.347 -0.5101  1.0299  1.2369
 6582SOL    HW226987   8.121   0.589   7.421 -1.2573 -0.7086  1.8494
 6583SOL     OW26988   6.642   9.397   5.648 -0.3621 -0.3912 -0.0649
 6583SOL    HW126989   6.585   9.321   5.635  1.9185 -2.4333  1.0900
 6583SOL    HW226990   6.663   9.395   5.741  1.1510  0.5900 -0.3578
 6584SOL     OW26991   5.890   5.704  11.895 -0.2237 -0.4682  0.3941
 6584SOL    HW126992   5.870   5.789  11.858  2.4130 -0.7647 -2.0513
 6584SOL    HW226993   5.918   5.650  11.821  1.7730 -2.2976  2.2909
 6585SOL     OW26994   7.080  11.569   0.315  0.2108 -0.1380  0.4520
 6585SOL    HW126995   7.114  11.489   0.356  0.4922  0.4505  1.3850
 6585SOL    HW226996   7.059  11.542   0.226  2.8905 -0.6006 -0.1288
 6586SOL     OW26997   9.229  12.538  10.372  0.1685 -0.0421  0.2007
 6586SOL    HW126998   9.254  12.480  10.444 -2.1640  0.7450  1.7567
 6586SOL    HW226999   9.151  12.583  10.403 -0.6619  0.7174 -2.6622
 6587SOL     OW27000  11.114  11.102   5.199 -0.2224 -0.1971  0.0438
 6587SOL    HW127001  11.080  11.037   5.137  0.3521  0.3856 -0.9109
 6587SOL    HW227002  11.080  11.075   5.284 -0.4787 -1.4043 -0.4280
 6588SOL     OW27003   9.372   9.919   1.982 -0.4834 -0.4344 -0.6523
 6588SOL    HW127004   9.378   9.848   2.046 -1.6697 -0.5829 -0.6917
 6588SOL    HW227005   9.280   9.919   1.955 -0.3357  0.6551 -1.1837
 6589SOL     OW27006   6.725   4.109   2.291  0.2518 -0.1142 -0.2169
 6589SOL    HW127007   6.791   4.088   2.357  0.3403  0.1203 -0.2288
 6589SOL    HW227008   6.776   4.123   2.210  0.3633  1.7456  0.1471
 6590SOL     OW27009   6.048  10.252   0.658 -0.1254  0.7046  0.0949
 6590SOL    HW127010   6.009  10.191   0.720  1.3484  1.7906  2.2201
 6590SOL    HW227011   6.141  10.254   0.681  0.0862  2.7795 -0.7193
 6591SOL     OW27012   7.650   0.115   1.544 -0.2466 -0.9665 -1.1641
 6591SOL    HW127013   7.594   0.177   1.591 -0.4588 -1.2269 -1.0699
 6591SOL    HW227014   7.662   0.042   1.605  0.7648 -0.6058 -0.9279
 6592SOL     OW27015   8.394  11.413  10.674  0.0174 -0.3141 -0.2828
 6592SOL    HW127016   8.474  11.361  10.669  0.1463 -0.0535 -0.9815
 6592SOL    HW227017   8.423  11.504  10.665 -0.4026 -0.2499 -1.0608
 6593SOL     OW27018  12.153   0.289  11.226 -0.2167 -0.2782  0.1001
 6593SOL    HW127019  12.124   0.198  11.227 -0.9397 -0.0519  0.9705
 6593SOL    HW227020  12.073   0.340  11.220  0.2374  0.3038 -1.2940
 6594SOL     OW27021   8.790   7.335  10.167  0.3308 -0.7755  0.4226
 6594SOL    HW127022   8.866   7.306  10.218  2.1710  0.8493 -1.1894
 6594SOL    HW227023   8.823   7.410  10.118 -2.2420 -0.3067 -0.7136
 6595SOL     OW27024   8.080   8.449   3.771 -0.1965 -0.3138 -0.1580
 6595SOL    HW127025   8.089   8.523   3.711 -2.0280  1.5791  1.7419
 6595SOL    HW227026   8.166   8.440   3.812 -0.5330  2.6179  1.4743
 6596SOL     OW27027   8.295   3.203   1.656 -0.0841 -0.3963  0.1459
 6596SOL    HW127028   8.325   3.134   1.597 -2.3903 -1.6654  0.3288
 6596SOL    HW227029   8.312   3.284   1.609  1.8851 -1.1055 -0.4559
 6597SOL     OW27030   2.283   7.172   4.362 -0.1061  0.3438 -0.1025
 6597SOL    HW127031   2.215   7.139   4.303 -1.1228 -1.1065  1.7909
 6597SOL    HW227032   2.360   7.119   4.342  0.2953  1.4543 -1.7019
 6598SOL     OW27033  11.292   4.721  11.530  0.1762  0.6024  0.5029
 6598SOL    HW127034  11.238   4.676  11.465  0.4350 -2.2432  2.0745
 6598SOL    HW227035  11.380   4.721  11.492  0.1206 -0.0300  0.3660
 6599SOL     OW27036   0.076   2.153   7.533  0.2600  0.0286 -0.1950
 6599SOL    HW127037   0.099   2.073   7.485  0.8348 -0.6910  1.2178
 6599SOL    HW227038   0.008   2.125   7.594  0.9633  0.4456  0.7962
 6600SOL     OW27039   8.662   2.303   3.664  0.2117  0.5675  0.4839
 6600SOL    HW127040   8.698   2.376   3.713  2.8138 -0.3165  0.0666
 6600SOL    HW227041   8.739   2.253   3.636 -1.3496 -1.0459 -1.2227
 6601SOL     OW27042   4.446   0.526   4.388 -0.0828 -0.0688 -0.0988
 6601SOL    HW127043   4.490   0.501   4.307  0.2475  0.9262 -0.2473
 6601SOL    HW227044   4.460   0.452   4.447 -1.6815 -1.4761 -1.4307
 6602SOL     OW27045   3.509  12.085   3.725 -0.8838  0.5619 -0.1066
 6602SOL    HW127046   3.585  12.123   3.770 -0.0237 -1.4475  0.2219
 6602SOL    HW227047   3.446  12.068   3.794 -0.4810 -0.4008  0.0316
 6603SOL     OW27048   7.463   3.908  11.469  0.0116  0.4665 -0.0441
 6603SOL    HW127049   7.545   3.924  11.516 -1.3632 -0.7166  2.9722
 6603SOL    HW227050   7.394   3.927  11.533 -2.0385 -0.4295 -1.8660
 6604SOL     OW27051   0.946   1.957   2.548  0.1891  1.0670 -0.2461
 6604SOL    HW127052   0.909   1.872   2.526 -0.2108  1.0772  0.3615
 6604SOL    HW227053   0.982   1.990   2.466  3.8541 -1.3677  0.1433
 6605SOL     OW27054  10.411   0.756   3.235 -0.1327  0.0740  0.2311
 6605SOL    HW127055  10.464   0.777   3.158 -3.0348  2.0836 -1.4721
 6605SOL    HW227056  10.412   0.661   3.240  0.2067 -0.1398 -2.3433
 6606SOL     OW27057   0.408   7.072   6.091  0.5866 -0.0902 -0.3131
 6606SOL    HW127058   0.356   7.085   6.012  0.7225 -0.0652 -0.3983
 6606SOL    HW227059   0.350   7.098   6.163  0.6345  0.3522 -0.4364
 6607SOL     OW27060  10.158   0.126   8.381  0.3160 -0.5494  0.4101
 6607SOL    HW127061  10.093   0.091   8.320  1.5415 -0.8831 -0.7707
 6607SOL    HW227062  10.148   0.075   8.461  0.8330 -2.3874 -0.6524
 6608SOL     OW27063   0.660   7.610   6.794  0.4770  0.2212  0.5516
 6608SOL    HW127064   0.586   7.569   6.839  1.4434 -1.9765  0.2740
 6608SOL    HW227065   0.696   7.671   6.858  0.4444 -1.1697  1.9583
 6609SOL     OW27066   0.212   9.345  11.302  0.3691 -0.3147 -0.6526
 6609SOL    HW127067   0.220   9.399  11.380 -1.8442 -0.1772 -0.4627
 6609SOL    HW227068   0.167   9.266  11.332 -1.1920  0.0648 -1.8826
 6610SOL     OW27069   2.577  10.264   0.618 -0.4470 -0.1213  0.1702
 6610SOL    HW127070   2.488  10.258   0.653 -0.8604 -1.7006 -1.0312
 6610SOL    HW227071   2.602  10.173   0.602  1.2991  0.3150  0.2301
 6611SOL     OW27072   2.519   5.532  11.527  0.3785 -0.2143 -0.6989
 6611SOL    HW127073   2.491   5.503  11.441  3.1981 -0.7782 -1.5317
 6611SOL    HW227074   2.614   5.527  11.524  0.5900  0.1010  2.3381
 6612SOL     OW27075   0.975  11.197   2.591  0.2429  0.2562  0.9451
 6612SOL    HW127076   0.992  11.268   2.529  0.5116 -2.0962 -1.9260
 6612SOL    HW227077   1.060  11.181   2.632  0.0639  1.8633  2.0169
 6613SOL     OW27078   0.101   5.705  10.974 -0.2656 -0.1979 -0.4615
 6613SOL    HW127079   0.157   5.665  10.907  0.2469  0.6251 -0.5399
 6613SOL    HW227080   0.116   5.652  11.053 -0.3053 -0.7195 -0.8012
 6614SOL     OW27081  12.008   8.948   3.970  0.2628  0.2564  0.2102
 6614SOL    HW127082  11.968   8.998   3.899  3.3178  0.0882 -1.8624
 6614SOL    HW227083  12.102   8.964   3.959  1.0290 -1.9754  2.5822
 6615SOL     OW27084  11.471   7.108   0.539  0.0398 -0.5937  0.4914
 6615SOL    HW127085  11.438   7.041   0.479  1.0437 -0.9924  0.3560
 6615SOL    HW227086  11.546   7.067   0.581 -0.3740 -0.1449  1.6898
 6616SOL     OW27087   5.473  11.345   1.098  0.9615 -0.0519  0.1929
 6616SOL    HW127088   5.534  11.401   1.051  0.1018  0.5140 -0.2558
 6616SOL    HW227089   5.529  11.279   1.139  1.8292  0.1411 -0.6430
 6617SOL     OW27090   4.133   1.446   4.524  0.0980 -0.8529  0.2061
 6617SOL    HW127091   4.126   1.350   4.526 -2.3931 -0.8593 -2.4856
 6617SOL    HW227092   4.196   1.463   4.454  0.7104 -0.4726  0.8341
 6618SOL     OW27093   5.544  11.051   3.901 -0.3650 -0.1364  0.2865
 6618SOL    HW127094   5.491  11.008   3.968 -0.5002 -0.0478  0.2379
 6618SOL    HW227095   5.562  10.982   3.837 -0.2454 -0.2183  0.4070
 6619SOL     OW27096   4.088  12.040   3.533  0.0549  0.3700 -0.0927
 6619SOL    HW127097   4.147  12.041   3.608  1.7525 -1.3715 -1.2679
 6619SOL    HW227098   4.004  12.010   3.568  0.2164  1.6066  1.4188
 6620SOL     OW27099   1.978   1.557   9.239  0.2014  0.8898 -0.6133
 6620SOL    HW127100   2.060   1.547   9.190  0.3995  1.9996 -0.5316
 6620SOL    HW227101   2.004   1.551   9.331 -0.2586 -1.8526 -0.5806
 6621SOL     OW27102   9.397   0.384   3.521  0.3940 -0.0538  0.4205
 6621SOL    HW127103   9.385   0.313   3.584  0.7584 -0.4856  0.0166
 6621SOL    HW227104   9.365   0.462   3.566  1.8263 -0.1225  1.6104
 6622SOL     OW27105   1.497   2.941   2.680  0.3708 -0.3018 -0.1070
 6622SOL    HW127106   1.411   2.985   2.683  0.1975 -0.6343 -0.1499
 6622SOL    HW227107   1.508   2.906   2.768 -0.0514 -1.2275 -0.4130
 6623SOL     OW27108   7.331   4.451   6.556 -0.5599 -0.0943 -0.0533
 6623SOL    HW127109   7.281   4.403   6.622 -1.3879 -1.4712 -1.6040
 6623SOL    HW227110   7.349   4.536   6.597  0.2072 -1.3711  2.4630
 6624SOL     OW27111   0.033   1.961   2.949  0.2748  0.0711  0.1833
 6624SOL    HW127112   0.022   1.996   3.037  1.5117 -0.0896  0.4195
 6624SOL    HW227113   0.109   2.009   2.914  1.4494 -1.7230  0.1853
 6625SOL     OW27114  11.132  10.399   0.608 -0.2020 -0.8404  0.2928
 6625SOL    HW127115  11.096  10.413   0.696  0.5363  0.7374  0.3913
 6625SOL    HW227116  11.226  10.408   0.619 -0.2090  1.7759 -0.9945
 6626SOL     OW27117   9.970   8.237   0.047  0.3475 -0.3854 -0.0515
 6626SOL    HW127118  10.040   8.229  -0.018 -0.5638 -0.5941 -1.0478
 6626SOL    HW227119   9.974   8.156   0.097  2.0568  0.4352  1.2223
 6627SOL     OW27120   4.974   4.109   1.187 -0.2093  0.2553  0.1568
 6627SOL    HW127121   4.944   4.199   1.180 -0.2777  0.2215  0.0014
 6627SOL    HW227122   5.002   4.086   1.098 -0.2494  0.1041  0.1830
 6628SOL     OW27123   0.736   1.690   9.893 -0.1596 -0.0967 -0.3335
 6628SOL    HW127124   0.712   1.675   9.801 -0.3170  0.5286 -0.3965
 6628SOL    HW227125   0.757   1.783   9.898  1.4611 -0.4514 -0.0879
 6629SOL     OW27126   5.681   0.067   5.333 -0.3055 -0.2641  0.0747
 6629SOL    HW127127   5.773   0.053   5.311 -0.1857  0.5382  0.0303
 6629SOL    HW227128   5.659   0.150   5.292 -1.1564 -0.6167 -0.2096
 6630SOL     OW27129  10.909   4.841  11.832 -0.0787  0.0423 -0.0161
 6630SOL    HW127130  10.986   4.887  11.798  0.2269 -1.6836 -1.8199
 6630SOL    HW227131  10.943   4.791  11.906  0.1243  0.6850  0.3372
 6631SOL     OW27132  12.129  12.672   4.830  0.0218  0.2267  0.0248
 6631SOL    HW127133  12.195  12.648   4.895  1.6218  1.0794 -1.2092
 6631SOL    HW227134  12.147  12.616   4.755 -1.2756 -0.1733 -0.0085
 6632SOL     OW27135   2.555   8.302  10.194  0.3412 -0.1719  0.1441
 6632SOL    HW127136   2.466   8.273  10.212  0.7898 -1.0737  0.9595
 6632SOL    HW227137   2.549   8.398  10.198 -0.6102 -0.2142  0.0588
 6633SOL     OW27138   3.471   6.924   7.395  0.3118  0.0299  0.3154
 6633SOL    HW127139   3.399   6.861   7.391  1.2326 -0.9773 -1.2648
 6633SOL    HW227140   3.514   6.917   7.310 -0.5026  3.9828 -0.6435
 6634SOL     OW27141   3.558   1.902  10.373 -0.6441 -0.2290 -0.0739
 6634SOL    HW127142   3.597   1.815  10.371 -0.7632 -0.2721 -1.4851
 6634SOL    HW227143   3.564   1.933  10.282  0.0337  1.5147  0.5335
 6635SOL     OW27144  10.575  10.342   6.041  0.5474  0.2055  0.1563
 6635SOL    HW127145  10.555  10.422   5.991 -1.0207  0.0538  0.5119
 6635SOL    HW227146  10.541  10.360   6.129  1.0117 -0.5154  0.4865
 6636SOL     OW27147   2.250   5.196   4.677  0.0932 -0.3373 -0.2714
 6636SOL    HW127148   2.185   5.129   4.698 -0.0721  0.1884  0.9563
 6636SOL    HW227149   2.335   5.152   4.690 -0.0080 -0.2185  0.9504
 6637SOL     OW27150   2.786   6.803   6.527 -0.7279 -0.0482  0.1152
 6637SOL    HW127151   2.694   6.795   6.552 -0.7596  0.0072  0.0153
 6637SOL    HW227152   2.788   6.874   6.464 -0.6571 -0.2290 -0.0895
 6638SOL     OW27153   5.791   0.216   0.558  0.0461 -0.0580 -0.1932
 6638SOL    HW127154   5.858   0.267   0.513  0.5428 -0.3166  0.2437
 6638SOL    HW227155   5.719   0.211   0.495 -0.1147  1.3712 -0.1570
 6639SOL     OW27156   9.067   8.784  12.150  0.3973 -0.8625 -0.2826
 6639SOL    HW127157   9.054   8.698  12.110  2.0586 -1.0784 -0.4136
 6639SOL    HW227158   9.009   8.783  12.227 -0.8393 -1.4452 -1.1838
 6640SOL     OW27159   9.487   5.754   8.550 -0.0262 -0.0037  0.1441
 6640SOL    HW127160   9.535   5.799   8.618  0.6288 -0.6808  0.1428
 6640SOL    HW227161   9.413   5.713   8.595 -1.8771  2.7752 -0.1683
 6641SOL     OW27162  12.608   1.831   7.443 -0.3243  0.4226 -0.0458
 6641SOL    HW127163  12.671   1.766   7.416 -0.1193  1.7742 -3.3150
 6641SOL    HW227164  12.525   1.784   7.449 -0.1118 -0.2608 -1.9624
 6642SOL     OW27165   8.969   1.955   2.576  0.5580  0.5575  0.0144
 6642SOL    HW127166   9.011   1.871   2.557  1.7201  1.1897 -0.2750
 6642SOL    HW227167   8.876   1.938   2.563  0.2921 -1.6872  3.4891
 6643SOL     OW27168   7.430   8.606   4.755  0.3448 -0.1709 -0.0882
 6643SOL    HW127169   7.513   8.649   4.776 -0.3911  1.2834 -0.0611
 6643SOL    HW227170   7.430   8.527   4.810  0.5650  1.1483  1.9273
 6644SOL     OW27171  10.544   4.464   1.696 -0.1688  0.2050 -0.7112
 6644SOL    HW127172  10.571   4.415   1.774 -0.2706  0.9120 -0.2239
 6644SOL    HW227173  10.502   4.399   1.640  0.1085 -0.3561 -0.2707
 6645SOL     OW27174   7.019   5.751   5.404 -0.4442  0.4849  0.0399
 6645SOL    HW127175   7.016   5.792   5.318 -0.5753  0.2601 -0.0631
 6645SOL    HW227176   7.104   5.777   5.440  1.6017 -2.7857 -1.8593
 6646SOL     OW27177   4.567   9.675   5.565 -0.3057  0.1186 -0.3187
 6646SOL    HW127178   4.489   9.626   5.591 -1.1099  1.4509 -0.1383
 6646SOL    HW227179   4.544   9.714   5.481  0.0698  0.7393 -0.1346
 6647SOL     OW27180  12.038  11.179   8.114 -0.2534  0.5835  0.0205
 6647SOL    HW127181  12.034  11.100   8.060 -2.3637 -0.6290  1.8120
 6647SOL    HW227182  11.968  11.235   8.081 -0.0243  0.8702  0.0124
 6648SOL     OW27183   4.813  12.086   9.414 -0.2282 -0.4925 -0.2170
 6648SOL    HW127184   4.782  12.030   9.485 -1.3450  0.7486  0.3239
 6648SOL    HW227185   4.814  12.174   9.452  3.3020 -0.2705 -0.4200
 6649SOL     OW27186   0.313   2.617   8.938 -0.1045 -0.0682 -0.0242
 6649SOL    HW127187   0.304   2.711   8.954 -1.4945 -0.0873 -0.5736
 6649SOL    HW227188   0.330   2.610   8.845  0.3061 -0.3484  0.0707
 6650SOL     OW27189   7.565  11.772   4.919  0.3058 -0.0375  0.2260
 6650SOL    HW127190   7.624  11.835   4.877  0.1044  1.6937  2.4038
 6650SOL    HW227191   7.478  11.811   4.910 -0.0429 -0.7941  0.2383
 6651SOL     OW27192   5.776  10.053   2.952 -0.1412  0.3028  0.0077
 6651SOL    HW127193   5.768  10.058   2.856 -2.2753 -1.3243  0.0323
 6651SOL    HW227194   5.859  10.096   2.971  0.9801 -0.4487 -2.6964
 6652SOL     OW27195   2.548  11.652   9.192  0.1480  0.3874 -0.5550
 6652SOL    HW127196   2.551  11.734   9.241  0.6508 -0.2104  0.4594
 6652SOL    HW227197   2.522  11.677   9.103 -0.2421  1.5673 -0.1222
 6653SOL     OW27198   3.923   4.355   5.097  0.1553 -0.2262  0.7114
 6653SOL    HW127199   3.924   4.322   5.187 -1.3928  0.4636  1.0076
 6653SOL    HW227200   3.833   4.381   5.081  0.4294 -0.1660 -0.9998
 6654SOL     OW27201   1.508   7.327   5.524 -0.0903  0.4308  0.0685
 6654SOL    HW127202   1.430   7.323   5.579  0.6902  0.1632  1.1842
 6654SOL    HW227203   1.531   7.420   5.523 -0.8185  0.6097 -0.8477
 6655SOL     OW27204   6.028   8.736   5.956 -0.6672 -0.6157 -0.3035
 6655SOL    HW127205   5.943   8.780   5.952 -0.3227  0.0784 -0.1041
 6655SOL    HW227206   6.014   8.661   6.014 -0.9575 -0.0889  0.3174
 6656SOL     OW27207   8.226   1.728   3.336 -0.0321 -0.0828  0.2498
 6656SOL    HW127208   8.163   1.796   3.313  0.0060 -0.2305 -0.2981
 6656SOL    HW227209   8.173   1.656   3.371 -0.0236  0.4851  1.5069
 6657SOL     OW27210   2.421  11.698   4.471  0.0944  0.0190  0.5079
 6657SOL    HW127211   2.384  11.638   4.536 -0.6775 -1.6305 -1.3592
 6657SOL    HW227212   2.515  11.697   4.488 -0.1679  0.3862  2.1707
 6658SOL     OW27213  11.782   3.012   8.668 -0.1660 -0.0720 -0.1341
 6658SOL    HW127214  11.747   3.095   8.634  4.2947  1.3915 -1.7917
 6658SOL    HW227215  11.813   3.034   8.756 -0.2877 -0.3871 -0.0127
 6659SOL     OW27216   8.059   5.456   6.230  0.2184 -0.7394  0.3471
 6659SOL    HW127217   8.051   5.393   6.159 -0.3041 -0.9338  0.5721
 6659SOL    HW227218   8.127   5.517   6.201  0.3261 -1.0792 -0.1170
 6660SOL     OW27219  12.363  11.641  10.513 -0.2333 -0.6925  0.1814
 6660SOL    HW127220  12.451  11.660  10.543  0.0590  0.0771 -1.0938
 6660SOL    HW227221  12.310  11.714  10.545 -0.2719 -0.7712  0.3023
 6661SOL     OW27222   0.270   1.382   0.511  0.2001 -0.6833  0.1432
 6661SOL    HW127223   0.346   1.323   0.511  1.2025  0.4318  2.9064
 6661SOL    HW227224   0.307   1.467   0.535 -1.7358  0.2402 -0.0181
 6662SOL     OW27225   5.620  10.805   4.199 -0.6418 -0.2397 -0.4816
 6662SOL    HW127226   5.714  10.792   4.212 -0.6717  0.3470  0.4247
 6662SOL    HW227227   5.602  10.770   4.112  0.5808  0.4291 -1.0302
 6663SOL     OW27228   8.323   4.520   1.622  0.5144 -0.6804 -0.4855
 6663SOL    HW127229   8.318   4.504   1.717  1.8969 -0.3989 -0.3504
 6663SOL    HW227230   8.248   4.576   1.604  0.3426 -0.5663  0.4879
 6664SOL     OW27231  10.170   2.642   4.276  0.0234  0.2175 -0.1010
 6664SOL    HW127232  10.180   2.676   4.187 -2.3997  0.3091 -0.4149
 6664SOL    HW227233  10.213   2.707   4.332  1.0356  0.4694 -1.1555
 6665SOL     OW27234   9.021   0.462   1.370  0.0788 -0.1090  0.0109
 6665SOL    HW127235   8.999   0.530   1.307  2.0289  0.0286 -0.5787
 6665SOL    HW227236   8.938   0.417   1.387 -0.8011  0.9507 -1.3257
 6666SOL     OW27237   2.380   7.946   7.558 -0.5670 -0.2499 -0.0778
 6666SOL    HW127238   2.406   7.867   7.511 -0.7710 -0.6313  0.4467
 6666SOL    HW227239   2.294   7.968   7.523  0.0347  0.4968 -1.1633
 6667SOL     OW27240   1.157   0.952   8.645 -1.0284 -0.5370  0.4338
 6667SOL    HW127241   1.088   0.906   8.692 -0.1456 -0.7618  1.5309
 6667SOL    HW227242   1.112   1.025   8.602 -1.7341  0.1819  2.3138
 6668SOL     OW27243   5.934   8.662   5.165  0.7683 -0.0996  0.1673
 6668SOL    HW127244   5.870   8.604   5.125 -0.7120  0.1598  1.9991
 6668SOL    HW227245   5.964   8.718   5.094 -0.8596 -0.4165 -0.8071
 6669SOL     OW27246   2.597   8.685   1.750  0.2985  0.8316 -0.2802
 6669SOL    HW127247   2.529   8.642   1.698 -0.0349  1.2103 -0.1657
 6669SOL    HW227248   2.553   8.707   1.833 -0.1111  3.0686 -1.0165
 6670SOL     OW27249   3.405   0.313   6.432  0.1701  0.3280  0.2434
 6670SOL    HW127250   3.403   0.341   6.524 -1.0408 -0.5956  0.5219
 6670SOL    HW227251   3.456   0.232   6.433  1.4183  1.0871 -0.1500
 6671SOL     OW27252   0.636   2.639   7.750  0.2269 -0.2640 -0.0916
 6671SOL    HW127253   0.617   2.551   7.719  1.4854 -0.2326 -1.0527
 6671SOL    HW227254   0.730   2.639   7.767  0.1810  0.7853  0.2645
 6672SOL     OW27255   2.941   3.890   7.052 -0.0748  0.7050 -0.2800
 6672SOL    HW127256   3.034   3.888   7.072 -0.2010  1.7155  0.4474
 6672SOL    HW227257   2.898   3.902   7.136 -0.9345 -0.7546 -0.4795
 6673SOL     OW27258   8.775   7.147   1.890 -0.1070  0.0711 -0.3269
 6673SOL    HW127259   8.800   7.129   1.799  0.6353  0.2198 -0.1620
 6673SOL    HW227260   8.858   7.164   1.934 -0.4622 -0.0265  0.3879
 6674SOL     OW27261   6.260   4.046   4.108 -1.0404  0.0145 -0.2692
 6674SOL    HW127262   6.171   4.077   4.091 -1.2177  1.3902  2.4706
 6674SOL    HW227263   6.257   4.016   4.199  1.1735 -0.4168 -0.2914
 6675SOL     OW27264   3.906   0.384  12.691 -0.1840 -0.5625 -0.2468
 6675SOL    HW127265   3.855   0.377  12.611 -1.1965  0.2705  0.2859
 6675SOL    HW227266   3.900   0.298  12.732 -2.5186 -0.1059  0.5458
 6676SOL     OW27267  10.081   8.100   9.760 -0.1811  0.2897  0.1080
 6676SOL    HW127268  10.107   8.063   9.844  0.3805 -1.0651 -0.6346
 6676SOL    HW227269  10.034   8.029   9.716 -0.8365  1.1193 -0.5628
 6677SOL     OW27270   3.013   5.480  12.425  0.0657  0.7717 -0.3955
 6677SOL    HW127271   2.960   5.423  12.481  0.0689  1.6734  0.5576
 6677SOL    HW227272   3.042   5.424  12.354 -0.9385 -0.1095 -0.1297
 6678SOL     OW27273  11.065   7.998   4.251  0.6619 -0.2168  0.3232
 6678SOL    HW127274  11.125   7.965   4.318 -0.1319 -1.8685  0.2415
 6678SOL    HW227275  10.990   8.031   4.301 -0.1703 -1.9357  0.2815
 6679SOL     OW27276  12.216   0.690  11.457  0.1326 -0.1617 -0.1630
 6679SOL    HW127277  12.127   0.658  11.442  0.1326  0.7801 -2.5846
 6679SOL    HW227278  12.206   0.783  11.475  0.5622 -0.3294  1.0644
 6680SOL     OW27279   9.481   9.594   9.004  0.0892 -0.7484 -0.1288
 6680SOL    HW127280   9.568   9.625   8.979 -0.0209 -0.0418  0.3373
 6680SOL    HW227281   9.421   9.648   8.952 -0.1421  0.7572  1.6054
 6681SOL     OW27282   6.384  12.564   9.150  0.5325 -0.1828  0.0603
 6681SOL    HW127283   6.473  12.567   9.114  0.6694 -1.0962  0.2938
 6681SOL    HW227284   6.356  12.655   9.153  1.0790  0.0341 -0.9685
 6682SOL     OW27285   9.642  10.997   2.361  0.2475 -0.3946  0.3575
 6682SOL    HW127286   9.715  11.052   2.333 -0.5994  0.8176  0.4536
 6682SOL    HW227287   9.600  10.970   2.279  0.7714 -1.0657  0.3035
 6683SOL     OW27288   7.114   7.347   2.796  0.6531 -0.2934 -0.8786
 6683SOL    HW127289   7.112   7.251   2.799 -0.6362 -0.2657 -0.3584
 6683SOL    HW227290   7.188   7.367   2.738  1.1979 -1.5867 -0.6808
 6684SOL     OW27291  10.915   1.942   8.194 -0.4807 -0.0132  0.0872
 6684SOL    HW127292  10.859   1.868   8.216  0.1652 -0.6806 -0.4567
 6684SOL    HW227293  10.923   1.939   8.099  1.3087 -0.5738  0.2172
 6685SOL     OW27294   5.514   7.128   2.589  0.1697  0.2197  0.0656
 6685SOL    HW127295   5.543   7.084   2.669  2.1913  0.6171 -0.3777
 6685SOL    HW227296   5.506   7.220   2.614  1.9371  0.5444 -0.3878
 6686SOL     OW27297   9.023   3.691  11.495 -0.7884 -0.1103 -0.1777
 6686SOL    HW127298   8.963   3.617  11.488 -2.1868  0.8625  0.9939
 6686SOL    HW227299   9.010   3.725  11.583  1.7527 -0.0472  0.2557
 6687SOL     OW27300   5.339   5.844   9.235  0.2946  0.2881  0.0514
 6687SOL    HW127301   5.304   5.758   9.211 -0.5113  0.7688 -0.5389
 6687SOL    HW227302   5.392   5.870   9.160  0.4316  0.3723  0.1765
 6688SOL     OW27303   8.827  11.246   5.067  0.0726 -0.6139  0.2416
 6688SOL    HW127304   8.921  11.247   5.086  0.0581  1.7739  0.4734
 6688SOL    HW227305   8.785  11.223   5.150  0.4284 -1.6607  0.1425
 6689SOL     OW27306   6.371   3.990   6.332  0.0681  0.9077 -0.5018
 6689SOL    HW127307   6.346   3.985   6.240  0.0920  0.1196 -0.4675
 6689SOL    HW227308   6.381   4.084   6.348  0.5304  1.0307 -1.4262
 6690SOL     OW27309   4.498   6.906   0.791  0.1905 -0.4491  0.1118
 6690SOL    HW127310   4.424   6.925   0.849 -0.3030 -0.3216 -0.5571
 6690SOL    HW227311   4.515   6.813   0.804 -1.2653 -0.9126 -1.0691
 6691SOL     OW27312   6.228   6.105   6.780 -0.2155  0.0491 -0.1142
 6691SOL    HW127313   6.201   6.154   6.702  0.3115 -0.6161 -0.7337
 6691SOL    HW227314   6.322   6.091   6.768 -0.2524 -0.6180  0.3180
 6692SOL     OW27315   4.081   0.925   3.528  0.4043  0.0073 -0.3450
 6692SOL    HW127316   4.116   0.999   3.479 -1.0280  2.1753  1.6381
 6692SOL    HW227317   4.120   0.934   3.615 -1.0082 -0.5927  0.3890
 6693SOL     OW27318   2.273   4.366  10.312 -0.5818 -0.1503 -0.4777
 6693SOL    HW127319   2.248   4.441  10.365  1.7695  0.6926 -0.4266
 6693SOL    HW227320   2.216   4.295  10.341 -1.0490  0.9389  1.3909
 6694SOL     OW27321   9.006   0.982  10.821  0.0903  0.3550 -0.4831
 6694SOL    HW127322   8.959   0.989  10.738 -1.9142 -0.1794  0.5225
 6694SOL    HW227323   9.067   1.055  10.821 -0.5970  0.9656 -1.9836
 6695SOL     OW27324   7.443   9.214   7.815 -0.2856 -0.2068 -0.4657
 6695SOL    HW127325   7.421   9.133   7.768 -1.4127 -0.0297 -0.2783
 6695SOL    HW227326   7.492   9.185   7.891 -3.2200 -1.0998  1.2694
 6696SOL     OW27327   8.095   1.226   7.814  0.1979  0.3493  0.1495
 6696SOL    HW127328   8.034   1.294   7.843  0.0486 -0.7579  2.6790
 6696SOL    HW227329   8.057   1.144   7.846  2.1028 -0.5595  0.2545
 6697SOL     OW27330   3.593   4.505  11.346  0.0758 -0.2161  0.1212
 6697SOL    HW127331   3.544   4.581  11.378  1.8272  1.7429 -1.5868
 6697SOL    HW227332   3.677   4.510  11.391  0.0179 -1.5645  0.4417
 6698SOL     OW27333  12.662  11.056   0.709 -0.4566  0.9714 -0.3128
 6698SOL    HW127334  12.663  10.968   0.670 -0.6060 -0.5073  2.7490
 6698SOL    HW227335  12.748  11.064   0.751 -0.6922  2.0646 -0.0202
 6699SOL     OW27336  11.340   4.271   0.194  1.0129  0.1797  0.0543
 6699SOL    HW127337  11.267   4.286   0.133 -0.5836 -2.0496  1.2649
 6699SOL    HW227338  11.320   4.326   0.269  0.5586 -0.4217  0.3807
 6700SOL     OW27339   8.613   9.388   0.049 -0.5696  0.1370 -0.2512
 6700SOL    HW127340   8.697   9.406   0.091 -0.2557 -0.8958 -0.3998
 6700SOL    HW227341   8.587   9.472   0.010  1.0436  0.1819 -1.3473
 6701SOL     OW27342   1.960   5.163   5.019  0.2382  0.5938 -0.5198
 6701SOL    HW127343   1.912   5.165   5.102  0.8973 -0.7959 -0.0580
 6701SOL    HW227344   2.035   5.221   5.034  0.3586  0.3429 -0.1351
 6702SOL     OW27345   6.512   8.064   2.382 -0.6259 -0.1752 -0.1595
 6702SOL    HW127346   6.519   8.142   2.327  0.9453 -0.2717 -0.1505
 6702SOL    HW227347   6.525   8.096   2.471  0.5199 -0.4819 -0.1979
 6703SOL     OW27348   0.115   2.916   6.911  0.4882  0.2196  0.0637
 6703SOL    HW127349   0.067   2.893   6.832  0.1901  0.2267  0.2381
 6703SOL    HW227350   0.088   2.851   6.976  0.8507  0.1189  0.1153
 6704SOL     OW27351  10.092   0.214   6.196  0.2822  0.1338  0.4344
 6704SOL    HW127352  10.133   0.128   6.185  1.1877  0.3311  1.9123
 6704SOL    HW227353  10.166   0.275   6.204 -0.2371  0.5328  2.9298
 6705SOL     OW27354  11.973   4.393   2.007  1.0051  0.0442  0.7984
 6705SOL    HW127355  11.971   4.299   2.026  2.3678  0.2198  2.0157
 6705SOL    HW227356  11.997   4.433   2.090 -0.0397  1.5264  0.4155
 6706SOL     OW27357   4.068   3.956   4.205 -0.8854 -0.7292  0.4620
 6706SOL    HW127358   4.044   3.931   4.294 -2.7189 -3.1554 -0.6116
 6706SOL    HW227359   4.097   3.875   4.164  3.3679  0.8979 -0.2774
 6707SOL     OW27360   1.247   3.320   4.949 -0.3658  0.1276 -0.0745
 6707SOL    HW127361   1.211   3.408   4.951 -0.5571  0.0492 -0.0216
 6707SOL    HW227362   1.218   3.280   5.031 -1.3411 -0.3997 -0.6489
 6708SOL     OW27363   5.865   3.583   8.190  0.1273 -0.8167 -0.1721
 6708SOL    HW127364   5.830   3.597   8.278 -0.1019  0.9269 -0.4996
 6708SOL    HW227365   5.956   3.614   8.195 -0.1211  0.0295 -0.7226
 6709SOL     OW27366  11.373   2.329   1.688 -0.0266 -0.1265  0.0980
 6709SOL    HW127367  11.383   2.282   1.605 -0.3535 -0.1974  0.0977
 6709SOL    HW227368  11.446   2.298   1.742  0.4729  0.2777 -0.3250
 6710SOL     OW27369   6.434   9.370   3.095  0.6287  0.0191 -0.2182
 6710SOL    HW127370   6.368   9.362   3.164  1.1387 -0.3237  0.2403
 6710SOL    HW227371   6.475   9.284   3.092  1.0222  0.2157 -0.5344
 6711SOL     OW27372   3.048   4.377   6.254  0.8273  0.2326 -0.1353
 6711SOL    HW127373   3.058   4.385   6.349  0.3870 -1.9422  0.1343
 6711SOL    HW227374   3.028   4.466   6.225 -0.3762  0.7169  1.9793
 6712SOL     OW27375   8.708   2.160   4.444  0.0491 -0.1853  0.9811
 6712SOL    HW127376   8.622   2.129   4.415  0.4607  0.0847 -0.6657
 6712SOL    HW227377   8.758   2.081   4.461  0.6848 -0.5251 -1.9407
 6713SOL     OW27378   7.264   2.767   8.231 -0.1430  0.6807  0.1896
 6713SOL    HW127379   7.210   2.833   8.274  1.1340  2.4431 -0.7411
 6713SOL    HW227380   7.334   2.818   8.189 -0.1460 -1.0818 -2.1822
 6714SOL     OW27381   9.828   3.029   0.575  0.2955  0.1364 -0.1574
 6714SOL    HW127382   9.763   3.060   0.513 -0.0395 -0.5581 -0.1630
 6714SOL    HW227383   9.905   3.009   0.522 -0.0447 -0.6146 -0.3880
 6715SOL     OW27384   4.079   7.412  11.821  0.3984  0.7695 -0.7305
 6715SOL    HW127385   4.052   7.396  11.731 -0.5704  2.2029 -0.7303
 6715SOL    HW227386   4.099   7.506  11.824  1.8431  0.4612  0.2033
 6716SOL     OW27387  11.858   3.902   9.943  0.2379 -0.4143  0.1557
 6716SOL    HW127388  11.829   3.968  10.008  0.8021  1.5085 -1.4417
 6716SOL    HW227389  11.787   3.838   9.942 -0.1701 -0.0684  2.0722
 6717SOL     OW27390   6.381  11.807   5.318 -0.1774  0.1416 -0.1575
 6717SOL    HW127391   6.450  11.751   5.353  0.6134  0.4322 -1.2169
 6717SOL    HW227392   6.300  11.772   5.356  0.3651 -1.2893 -0.2759
 6718SOL     OW27393   6.613   0.380  12.587 -0.6768 -0.2564  0.7056
 6718SOL    HW127394   6.606   0.296  12.632 -0.9365  0.0527  1.2467
 6718SOL    HW227395   6.544   0.435  12.625 -0.8828  0.0240 -0.0459
 6719SOL     OW27396  11.905   3.412   8.992 -0.0499 -0.0117 -0.0008
 6719SOL    HW127397  11.935   3.457   9.071 -0.1437 -0.4487  0.2934
 6719SOL    HW227398  11.811   3.432   8.987 -0.0738 -0.1022  0.0804
 6720SOL     OW27399   6.650   7.108   7.139  0.0275  0.4616  0.7000
 6720SOL    HW127400   6.569   7.062   7.114 -0.1916  1.3369 -0.2677
 6720SOL    HW227401   6.698   7.118   7.057  0.1982  1.7107  0.9434
 6721SOL     OW27402   6.867   3.591   4.804  0.4008  0.1840  0.1213
 6721SOL    HW127403   6.831   3.669   4.845 -1.4951 -0.3783 -0.3640
 6721SOL    HW227404   6.867   3.610   4.710 -0.0469 -0.3615  0.0007
 6722SOL     OW27405   0.713   3.231   8.469 -0.3246  0.4641 -0.1513
 6722SOL    HW127406   0.693   3.201   8.557 -1.8855 -1.3146 -1.0459
 6722SOL    HW227407   0.799   3.192   8.450 -0.2891  0.2963  0.3269
 6723SOL     OW27408   2.428   4.063   2.627  0.2027  0.2670 -0.2436
 6723SOL    HW127409   2.486   4.127   2.586  1.2046  0.1792  0.9675
 6723SOL    HW227410   2.355   4.115   2.661 -0.0986  0.4689 -1.1701
 6724SOL     OW27411  12.495   1.785  10.481  0.9541 -0.6398  0.6371
 6724SOL    HW127412  12.414   1.820  10.444  0.1652 -0.9497  1.9993
 6724SOL    HW227413  12.563   1.812  10.419 -0.2704 -1.0662 -0.9761
 6725SOL     OW27414   6.063   3.712   7.556  0.3924  0.1012 -0.0152
 6725SOL    HW127415   6.011   3.790   7.575 -0.6346 -0.8804  1.4773
 6725SOL    HW227416   6.111   3.695   7.637  0.2329 -1.0630 -0.1497
 6726SOL     OW27417   6.271   3.867  11.084 -0.6147  0.4267 -0.0990
 6726SOL    HW127418   6.314   3.868  11.170 -0.7355  0.0705 -0.0342
 6726SOL    HW227419   6.180   3.846  11.103 -0.4140 -0.7913 -0.4079
 6727SOL     OW27420  10.451   9.052   0.260 -0.1535 -0.5677  0.3898
 6727SOL    HW127421  10.363   9.088   0.264 -0.5593 -1.5875  0.8951
 6727SOL    HW227422  10.440   8.964   0.222  0.5752 -0.8877  0.8958
 6728SOL     OW27423   3.605   1.799  12.622  0.0702  0.1580  0.1817
 6728SOL    HW127424   3.531   1.814  12.564  0.0585 -0.7435 -0.0625
 6728SOL    HW227425   3.633   1.886  12.649 -0.5856  0.5422 -0.3421
 6729SOL     OW27426  11.629   7.441   3.501  0.0673  0.1339  0.7502
 6729SOL    HW127427  11.606   7.436   3.594  1.5677 -0.0548  1.1332
 6729SOL    HW227428  11.722   7.420   3.498  0.1423  0.5672 -0.7616
 6730SOL     OW27429   3.201  11.139   3.374 -0.1890  0.5673 -0.1784
 6730SOL    HW127430   3.283  11.106   3.410  0.2312 -1.0694 -2.4418
 6730SOL    HW227431   3.202  11.233   3.395  0.6608  0.0389  2.6398
 6731SOL     OW27432   2.094   7.201   0.057 -0.3533 -0.0128  0.2239
 6731SOL    HW127433   2.046   7.233  -0.020  0.3951  1.9450  0.4913
 6731SOL    HW227434   2.036   7.138   0.098 -1.2299 -0.2608 -1.3325
 6732SOL     OW27435   0.420   6.595   0.857 -0.1095  0.2067 -0.7481
 6732SOL    HW127436   0.375   6.563   0.935  0.0336  1.5825 -0.0772
 6732SOL    HW227437   0.512   6.575   0.872 -0.1198  0.1962 -0.6997
 6733SOL     OW27438  11.251   1.118   6.997 -0.3617  0.0016  0.2422
 6733SOL    HW127439  11.293   1.187   6.946  0.7023 -1.9177 -1.6457
 6733SOL    HW227440  11.160   1.118   6.968 -0.3980  0.6423  0.3340
 6734SOL     OW27441   4.611  12.697   3.516 -0.1778  0.8682  0.3287
 6734SOL    HW127442   4.557  12.625   3.550 -0.0669  1.4856  1.9076
 6734SOL    HW227443   4.636  12.669   3.428  0.7526 -1.5278  1.2803
 6735SOL     OW27444   4.435   0.436   5.106  0.5911  0.2054 -0.1810
 6735SOL    HW127445   4.506   0.409   5.046  0.2290  0.3701 -0.6921
 6735SOL    HW227446   4.421   0.360   5.162 -0.6980 -0.8697 -1.8726
 6736SOL     OW27447   5.507   6.546   8.832 -0.3855 -0.2731 -0.1399
 6736SOL    HW127448   5.426   6.511   8.795 -0.0976 -1.0665 -0.0485
 6736SOL    HW227449   5.576   6.495   8.789 -0.0103 -0.6026  0.8333
 6737SOL     OW27450  12.387   8.412   1.922 -0.2458 -0.4489 -0.0072
 6737SOL    HW127451  12.409   8.501   1.896 -2.8064  0.4302  0.6087
 6737SOL    HW227452  12.394   8.412   2.017 -2.8978 -0.0532  0.2454
 6738SOL     OW27453   8.092   4.040   1.210  0.0984  0.7126  0.2382
 6738SOL    HW127454   8.017   4.058   1.153  0.0918 -0.3814 -0.1186
 6738SOL    HW227455   8.132   4.126   1.223  0.6138  0.9170 -2.1546
 6739SOL     OW27456  12.293   8.205   4.611 -0.2584 -0.6930 -0.1288
 6739SOL    HW127457  12.208   8.233   4.579 -0.4132 -0.4896  0.4495
 6739SOL    HW227458  12.296   8.111   4.591  0.7420 -0.1200 -3.1307
 6740SOL     OW27459   6.783   4.322   4.993  0.1621  0.3079 -0.6514
 6740SOL    HW127460   6.750   4.397   5.042  0.7787  1.0190 -1.2827
 6740SOL    HW227461   6.818   4.360   4.912 -1.1783 -0.8604 -1.8239
 6741SOL     OW27462  12.053   4.518   5.774 -0.4313 -0.1361 -0.6939
 6741SOL    HW127463  11.991   4.511   5.701 -0.2367 -0.9273 -0.7915
 6741SOL    HW227464  12.138   4.531   5.732 -0.3818 -0.1276 -0.5917
 6742SOL     OW27465   3.487   9.386  11.968  0.7923 -0.1135  0.0653
 6742SOL    HW127466   3.438   9.415  11.892 -0.2186  0.2636  0.8311
 6742SOL    HW227467   3.523   9.300  11.943 -2.1693 -1.5228  0.2072
 6743SOL     OW27468   2.447   1.177   4.886  0.3811 -0.1193  0.0853
 6743SOL    HW127469   2.426   1.230   4.963 -1.2969  0.2393 -0.5686
 6743SOL    HW227470   2.367   1.179   4.833  1.3408 -0.7079 -1.4666
 6744SOL     OW27471  11.081  10.998   5.437 -0.1338 -0.1750  0.3430
 6744SOL    HW127472  11.165  11.003   5.481 -0.4188  0.4927  0.8242
 6744SOL    HW227473  11.017  11.026   5.503 -0.4780  1.7724 -0.7440
 6745SOL     OW27474  11.055   8.358   4.970  0.0545 -0.3106  0.4344
 6745SOL    HW127475  11.130   8.415   4.952 -0.1933  0.3165  1.3052
 6745SOL    HW227476  10.988   8.387   4.908 -0.0250  0.2712  0.7815
 6746SOL     OW27477   8.974  10.801   2.997  0.0299  0.3598 -0.4101
 6746SOL    HW127478   8.959  10.712   2.965 -2.4378  0.0623  1.3133
 6746SOL    HW227479   9.013  10.847   2.922 -0.4186 -1.6509 -1.9749
 6747SOL     OW27480   2.990   6.588   3.200  0.4055 -0.1977  0.3600
 6747SOL    HW127481   3.022   6.558   3.115 -0.4211 -0.0136 -0.0319
 6747SOL    HW227482   2.915   6.644   3.179 -0.4413 -0.9460  1.2367
 6748SOL     OW27483   2.115  10.637  11.418  0.1650 -0.2302  0.1569
 6748SOL    HW127484   2.161  10.607  11.340 -0.4680 -0.8558  0.0180
 6748SOL    HW227485   2.059  10.708  11.386 -0.1793 -0.5627  0.0202
 6749SOL     OW27486   8.924   4.744   1.613  0.2555 -0.7434  0.3072
 6749SOL    HW127487   8.872   4.808   1.563  0.2654 -0.2527  0.9157
 6749SOL    HW227488   8.862   4.709   1.677  1.0218  1.0017  2.1077
 6750SOL     OW27489   4.228  12.530  10.470 -0.1656  0.1791 -0.0593
 6750SOL    HW127490   4.183  12.452  10.503 -0.5694  0.2427 -0.4514
 6750SOL    HW227491   4.178  12.556  10.393  0.9346 -0.1458 -0.9114
 6751SOL     OW27492   0.835   1.988   8.356  0.5201  0.0429  0.1238
 6751SOL    HW127493   0.785   2.066   8.334  0.4777 -0.0495 -0.1113
 6751SOL    HW227494   0.919   1.999   8.312 -0.1512 -0.9006 -1.4992
 6752SOL     OW27495   5.522   7.112   0.274 -0.0371  0.2573 -0.4483
 6752SOL    HW127496   5.612   7.145   0.275  0.3559 -0.5233 -2.8342
 6752SOL    HW227497   5.475   7.172   0.216 -0.3788 -0.8527 -1.3548
 6753SOL     OW27498  11.064   1.837   0.151 -0.0187  0.0254 -0.1179
 6753SOL    HW127499  11.111   1.755   0.168  1.6235  1.3003  2.0021
 6753SOL    HW227500  11.124   1.888   0.096  0.9277  1.4068  2.0711
 6754SOL     OW27501   9.941   9.017   2.327 -0.1244  0.1227 -0.1571
 6754SOL    HW127502   9.905   9.065   2.402  0.9615 -0.7265  0.9413
 6754SOL    HW227503   9.914   8.926   2.341  1.1706 -0.2703 -0.0972
 6755SOL     OW27504   6.392   7.626   2.224  0.0991 -0.2266  0.2636
 6755SOL    HW127505   6.351   7.706   2.257 -0.8800 -0.8243  0.5179
 6755SOL    HW227506   6.351   7.611   2.139  1.2154  0.2298 -0.3911
 6756SOL     OW27507   0.936   8.558  11.155  0.2011 -0.2082  0.4189
 6756SOL    HW127508   0.869   8.592  11.214  2.0332 -0.0291  2.5540
 6756SOL    HW227509   0.929   8.612  11.076 -0.7158  1.2644  1.4582
 6757SOL     OW27510   8.329   9.269   0.669  0.0371 -0.0512  0.6556
 6757SOL    HW127511   8.354   9.312   0.587  0.3490  0.6155  1.0960
 6757SOL    HW227512   8.293   9.185   0.641 -0.9021  0.6214 -0.2505
 6758SOL     OW27513   4.917   6.895   6.249  0.2521 -0.0020 -0.2989
 6758SOL    HW127514   4.873   6.878   6.332  2.3606 -1.1498  0.6615
 6758SOL    HW227515   4.935   6.989   6.250 -0.5584  0.1545  0.1072
 6759SOL     OW27516   0.536  10.638   9.171  0.1142 -0.1597  0.1458
 6759SOL    HW127517   0.517  10.728   9.199  0.0757  0.2599 -1.1694
 6759SOL    HW227518   0.586  10.601   9.244 -0.6857  0.6102  1.1208
 6760SOL     OW27519   4.321  10.870   8.801 -0.1659 -0.3221  0.4339
 6760SOL    HW127520   4.379  10.818   8.745  1.2280 -1.1296  2.4847
 6760SOL    HW227521   4.238  10.822   8.799 -0.6844  0.5359 -2.1027
 6761SOL     OW27522  12.336   6.696   6.610 -0.1200 -0.2727  0.0349
 6761SOL    HW127523  12.241   6.705   6.612 -0.0659  0.2972  2.1997
 6761SOL    HW227524  12.351   6.623   6.550 -2.0688 -1.7469  1.1831
 6762SOL     OW27525   3.180   6.133   9.650 -0.2231  0.6949 -0.5383
 6762SOL    HW127526   3.213   6.045   9.669  0.2462  1.2180  1.2752
 6762SOL    HW227527   3.256   6.180   9.615 -0.5771  0.2992 -1.9054
 6763SOL     OW27528  11.314   8.555   0.113 -0.1273 -0.2192 -0.0765
 6763SOL    HW127529  11.349   8.505   0.187  0.8708  1.8783  0.9718
 6763SOL    HW227530  11.380   8.621   0.096 -1.6169  1.0961 -1.0045
 6764SOL     OW27531   5.366   3.751   0.078 -0.8793 -0.2054 -0.6645
 6764SOL    HW127532   5.417   3.770   0.157 -0.3283 -0.7951 -0.8678
 6764SOL    HW227533   5.423   3.775   0.005 -2.2787  2.7522 -0.9556
 6765SOL     OW27534  12.389  10.294   6.052 -0.6373 -0.6040  0.2061
 6765SOL    HW127535  12.327  10.257   6.116  0.5926 -1.7108  0.8067
 6765SOL    HW227536  12.416  10.219   5.999  1.6866 -0.5777  1.2373
 6766SOL     OW27537   0.015   8.653   6.925 -0.0471 -0.3052 -0.0032
 6766SOL    HW127538   0.090   8.650   6.865 -0.6281 -3.9725 -0.8004
 6766SOL    HW227539   0.049   8.616   7.007 -0.5724 -0.4000  0.1719
 6767SOL     OW27540   3.944   0.421   7.761 -0.5096 -0.3121 -0.0494
 6767SOL    HW127541   3.945   0.335   7.719  0.7631  0.2260 -1.1931
 6767SOL    HW227542   4.016   0.419   7.823 -1.4019 -0.5466  1.0234
 6768SOL     OW27543   8.668  12.480   5.617  0.1502  0.1818 -0.6384
 6768SOL    HW127544   8.721  12.468   5.539 -0.3890  0.2845 -1.0305
 6768SOL    HW227545   8.577  12.472   5.585 -0.1379  1.8279 -0.3227
 6769SOL     OW27546   0.088   4.770   3.402 -0.4497 -0.1732 -0.1826
 6769SOL    HW127547   0.118   4.855   3.370  1.1559 -0.3048  0.8564
 6769SOL    HW227548   0.168   4.718   3.412 -1.1081 -0.9266  1.7033
 6770SOL     OW27549   7.993   9.830   8.206  0.8790 -0.3066 -0.1313
 6770SOL    HW127550   8.035   9.900   8.256 -0.2711  0.1051  0.3106
 6770SOL    HW227551   8.046   9.821   8.127  1.6115  0.3865  0.2717
 6771SOL     OW27552  11.160   7.374   3.015  0.2506  0.0547 -0.2685
 6771SOL    HW127553  11.150   7.412   2.928  0.5964  1.9889  0.4795
 6771SOL    HW227554  11.092   7.416   3.068 -1.7202 -3.0157 -0.1054
 6772SOL     OW27555  11.544   7.219  11.042 -0.3440 -0.0127  0.5460
 6772SOL    HW127556  11.552   7.128  11.071  0.0583 -0.0333  0.3785
 6772SOL    HW227557  11.634   7.251  11.040 -0.6330  1.1193  2.9030
 6773SOL     OW27558   1.735   7.750   0.610 -0.0873  0.3159  0.5855
 6773SOL    HW127559   1.707   7.838   0.586 -0.1631 -0.2616 -1.7004
 6773SOL    HW227560   1.679   7.726   0.684 -0.9475  1.7034  0.4172
 6774SOL     OW27561   3.688   4.127   4.443 -0.0491 -0.0991 -0.0686
 6774SOL    HW127562   3.658   4.203   4.392  2.2601  0.4717 -0.6803
 6774SOL    HW227563   3.607   4.090   4.479 -1.3881  1.8488 -0.8466
 6775SOL     OW27564  10.915   0.095   2.056 -0.6179  0.3093 -0.2864
 6775SOL    HW127565  10.983   0.156   2.029  0.5138 -0.4401  0.7382
 6775SOL    HW227566  10.963   0.022   2.096 -1.9367 -1.0154 -1.0033
 6776SOL     OW27567   8.316   1.600  11.581  0.6799  0.0136  0.1685
 6776SOL    HW127568   8.376   1.563  11.645  1.2913 -0.7693 -0.8214
 6776SOL    HW227569   8.371   1.655  11.525  0.1693  0.6342  0.2564
 6777SOL     OW27570   7.405   2.772   3.155 -0.5667 -0.1994 -0.1603
 6777SOL    HW127571   7.337   2.724   3.106  1.6812 -2.8434 -0.9475
 6777SOL    HW227572   7.413   2.725   3.237  1.5421 -1.1598 -0.8492
 6778SOL     OW27573   1.670  10.469   9.590  0.1046  0.3823  0.0068
 6778SOL    HW127574   1.586  10.491   9.630  0.4367  0.0113  0.9357
 6778SOL    HW227575   1.731  10.532   9.626  0.3248  0.3277 -0.2673
 6779SOL     OW27576   5.268   9.880   2.642 -0.0776 -0.1050  0.2847
 6779SOL    HW127577   5.279   9.826   2.721 -2.3354  0.3264  0.9910
 6779SOL    HW227578   5.242   9.966   2.675 -3.4339 -0.5363 -0.8345
 6780SOL     OW27579  11.715  10.312   9.481 -0.4948  0.2156  0.0546
 6780SOL    HW127580  11.645  10.345   9.424  1.7842  1.7694 -2.1236
 6780SOL    HW227581  11.743  10.389   9.531  0.1659 -0.1736  0.2941
 6781SOL     OW27582   1.420  10.386   5.343 -0.5684  0.0047 -0.2034
 6781SOL    HW127583   1.376  10.333   5.276  0.2123 -0.0482 -0.6853
 6781SOL    HW227584   1.350  10.413   5.402 -1.0962 -0.9198 -0.3843
 6782SOL     OW27585   4.342  11.480  12.547  0.0721  0.4014  0.2577
 6782SOL    HW127586   4.417  11.538  12.534  0.9530 -0.5514  0.8295
 6782SOL    HW227587   4.355  11.444  12.635 -0.9716  0.0769  0.2967
 6783SOL     OW27588  12.251  11.706   6.457 -0.2970  0.2070  0.3601
 6783SOL    HW127589  12.189  11.639   6.485 -1.1292  1.0160  0.4994
 6783SOL    HW227590  12.289  11.739   6.539  2.3638 -2.1043  0.2074
 6784SOL     OW27591   4.305   9.596   0.311 -0.3792 -0.6197 -0.1888
 6784SOL    HW127592   4.343   9.553   0.234 -0.8507 -0.4411 -0.5235
 6784SOL    HW227593   4.380   9.615   0.367  0.0376 -0.2429 -0.8598
 6785SOL     OW27594   0.906   6.927   0.512 -0.1902 -0.2021  0.3715
 6785SOL    HW127595   0.819   6.942   0.476  0.0712 -0.0787 -0.2166
 6785SOL    HW227596   0.955   6.885   0.441  0.4273  0.3467  0.4606
 6786SOL     OW27597   6.263  11.873   8.991  0.4875  0.1325  0.5077
 6786SOL    HW127598   6.300  11.786   8.974  0.7751  0.2245  0.6603
 6786SOL    HW227599   6.334  11.921   9.033  0.1419  0.2555  0.9650
 6787SOL     OW27600   8.105   1.210  10.457  0.0051  0.3086 -0.3232
 6787SOL    HW127601   8.198   1.234  10.466 -0.0638  0.5340 -0.1978
 6787SOL    HW227602   8.060   1.294  10.451 -0.3851  0.2655  1.5025
 6788SOL     OW27603  12.059   8.114   6.685  0.0265 -0.1338 -0.2671
 6788SOL    HW127604  12.072   8.058   6.762 -0.7385  1.5178  1.1275
 6788SOL    HW227605  11.967   8.101   6.662 -0.2686  0.8267  0.3223
 6789SOL     OW27606   6.947   2.673   5.849 -0.2616 -0.1786 -0.1752
 6789SOL    HW127607   6.932   2.644   5.759  1.3911  0.3783 -0.6663
 6789SOL    HW227608   6.895   2.612   5.903 -2.3037  0.2715 -1.5306
 6790SOL     OW27609   2.154   9.104   3.312 -0.3949  0.0844 -0.5365
 6790SOL    HW127610   2.144   9.117   3.218 -1.5050  2.6047 -0.1612
 6790SOL    HW227611   2.248   9.099   3.326 -0.1560  1.0522 -1.6704
 6791SOL     OW27612   2.438  11.527   7.151 -0.6766  0.2699 -0.1178
 6791SOL    HW127613   2.367  11.467   7.173 -1.8315  1.7031  0.2150
 6791SOL    HW227614   2.413  11.609   7.193  0.2079  1.3586 -1.6519
 6792SOL     OW27615  10.800  10.663   0.174 -0.7134 -0.4626 -0.1678
 6792SOL    HW127616  10.716  10.622   0.193 -0.2679 -0.8103  1.1974
 6792SOL    HW227617  10.780  10.734   0.113 -1.5547 -2.5222 -2.4484
 6793SOL     OW27618   3.808   6.819   8.935  0.4894  0.5135 -0.2150
 6793SOL    HW127619   3.866   6.743   8.932 -0.4169 -0.1684 -1.7446
 6793SOL    HW227620   3.806   6.844   9.028  0.6780 -1.4437  0.3542
 6794SOL     OW27621   2.220   7.685   0.775 -0.2474  0.3844  0.0037
 6794SOL    HW127622   2.253   7.729   0.696  0.4079  0.6730  0.4215
 6794SOL    HW227623   2.132   7.656   0.752  0.1020  0.0755 -0.9777
 6795SOL     OW27624   1.130  11.457   3.695 -1.1252 -0.2743  0.4338
 6795SOL    HW127625   1.153  11.368   3.722 -1.7213 -0.0256  1.8321
 6795SOL    HW227626   1.043  11.448   3.656 -1.1301 -0.3269  0.4563
 6796SOL     OW27627   0.378   4.118   4.717  0.7515 -0.0164  0.5185
 6796SOL    HW127628   0.296   4.112   4.767 -0.1338 -0.9099 -0.9699
 6796SOL    HW227629   0.390   4.212   4.702 -1.2240  0.0543 -1.1062
 6797SOL     OW27630   5.488   2.344   7.720  0.2144 -0.1803  0.0890
 6797SOL    HW127631   5.430   2.398   7.667  2.4273  1.6586 -0.6261
 6797SOL    HW227632   5.482   2.257   7.681 -0.0194  0.5845 -1.6820
 6798SOL     OW27633   8.120   2.146   6.749 -0.4953  0.1037 -0.0203
 6798SOL    HW127634   8.208   2.114   6.732 -1.2581 -1.6971 -0.8520
 6798SOL    HW227635   8.074   2.136   6.665 -1.5627  0.7638  0.4622
 6799SOL     OW27636   9.308   8.047   7.397 -0.0696  0.2172 -0.4116
 6799SOL    HW127637   9.319   8.059   7.303  1.4027 -0.2507 -0.3180
 6799SOL    HW227638   9.292   8.135   7.431  2.5742  0.9064 -0.7303
 6800SOL     OW27639   4.116  12.188  10.774  0.2419 -0.4317 -0.0751
 6800SOL    HW127640   4.126  12.281  10.756 -0.6341 -0.3943 -0.3913
 6800SOL    HW227641   4.141  12.145  10.693  1.6170 -0.5378  0.3769
 6801SOL     OW27642   9.740   5.843   2.900 -0.0511  0.2460  0.2042
 6801SOL    HW127643   9.815   5.825   2.956 -0.3545 -0.0263  0.5306
 6801SOL    HW227644   9.777   5.862   2.814  0.4042  0.3751  0.4270
 6802SOL     OW27645   6.594   9.333   2.060 -0.7088 -0.2564 -0.0280
 6802SOL    HW127646   6.637   9.416   2.078 -0.7705 -0.3095  0.3834
 6802SOL    HW227647   6.559   9.306   2.145  0.3900 -1.3169  0.1167
 6803SOL     OW27648   9.937  12.662   0.040  0.0635 -0.1141  0.9547
 6803SOL    HW127649   9.848  12.682   0.011 -0.3359  0.1670  2.3104
 6803SOL    HW227650   9.943  12.698   0.129  0.8925 -1.7984  1.6336
 6804SOL     OW27651  12.260  12.030   9.066  0.1010  0.2123 -0.1148
 6804SOL    HW127652  12.272  12.109   9.118 -1.3671  0.1206  0.4151
 6804SOL    HW227653  12.215  12.060   8.987 -0.3870 -0.0629  0.0503
 6805SOL     OW27654   3.013   9.491  12.470 -0.4004  0.3953 -0.4234
 6805SOL    HW127655   3.078   9.536  12.415 -0.7404  3.4825  1.4311
 6805SOL    HW227656   3.062   9.466  12.548 -0.4899 -1.5369 -0.9512
 6806SOL     OW27657   2.948   9.630   9.208 -0.1549 -0.2246 -0.3903
 6806SOL    HW127658   3.019   9.646   9.269 -0.8997  2.3562 -0.0864
 6806SOL    HW227659   2.885   9.577   9.256  0.8880 -1.3194 -0.1966
 6807SOL     OW27660   4.798   1.541   1.459 -0.0937 -0.8554 -0.3727
 6807SOL    HW127661   4.825   1.508   1.545  1.0657  1.4319  0.2066
 6807SOL    HW227662   4.731   1.479   1.430 -0.1830 -1.9512  1.9584
 6808SOL     OW27663   7.511   1.980   1.730 -0.4201  0.6601 -0.8731
 6808SOL    HW127664   7.532   2.016   1.644 -0.2497 -0.0123 -1.1181
 6808SOL    HW227665   7.570   2.027   1.790  0.1530  0.4349 -1.2511
 6809SOL     OW27666   1.302  10.747   3.403 -0.0573  0.2650  0.3980
 6809SOL    HW127667   1.379  10.798   3.427  0.4273 -0.3394  0.1453
 6809SOL    HW227668   1.314  10.663   3.448 -0.7742  0.3124  0.6901
 6810SOL     OW27669   3.667   9.037   0.209  0.0531  0.0162  0.5552
 6810SOL    HW127670   3.577   9.016   0.232  0.0432 -0.9685 -0.3175
 6810SOL    HW227671   3.720   8.973   0.257  0.3285  0.8561  1.3961
 6811SOL     OW27672   8.860  12.081  10.142  0.0675 -0.1204  0.2004
 6811SOL    HW127673   8.790  12.041  10.195  0.8016 -1.9525 -0.1175
 6811SOL    HW227674   8.834  12.063  10.052  0.2120  0.5211  0.0279
 6812SOL     OW27675   5.405   6.245   4.707  0.1933 -0.4529 -0.1119
 6812SOL    HW127676   5.412   6.225   4.613  0.3109 -0.1521 -0.1695
 6812SOL    HW227677   5.443   6.168   4.750 -2.2581 -1.7914 -0.2000
 6813SOL     OW27678   1.591   7.418  11.411  0.2443  0.0008 -0.1594
 6813SOL    HW127679   1.604   7.390  11.321  0.2132  1.8538 -0.7823
 6813SOL    HW227680   1.586   7.336  11.461  0.4225 -1.0591 -1.7917
 6814SOL     OW27681   2.813   3.941  11.470 -0.6620 -0.0505 -0.4108
 6814SOL    HW127682   2.722   3.915  11.480 -0.2931 -0.9775  0.6379
 6814SOL    HW227683   2.863   3.863  11.492  0.4656  1.3281  2.2995
 6815SOL     OW27684   5.950   9.560   2.871 -0.2253  0.1750  0.1026
 6815SOL    HW127685   5.880   9.515   2.824  1.4893 -1.9499 -0.5438
 6815SOL    HW227686   6.030   9.520   2.840  1.4017  2.9923  0.3207
 6816SOL     OW27687   8.945  10.388   8.532 -0.3047  0.1617 -0.0707
 6816SOL    HW127688   9.010  10.326   8.498  0.5595 -0.0795  1.8543
 6816SOL    HW227689   8.998  10.460   8.567 -1.1079  0.2832  0.9209
 6817SOL     OW27690   9.626  10.330  10.580 -0.4889  0.4800 -0.3434
 6817SOL    HW127691   9.601  10.377  10.500  1.2310  1.9288 -0.0743
 6817SOL    HW227692   9.618  10.238  10.556 -4.3365  0.7354 -0.7748
 6818SOL     OW27693  10.708   1.850   6.486  0.3608 -0.1379  0.1094
 6818SOL    HW127694  10.752   1.866   6.569  2.1628 -3.6078  0.0449
 6818SOL    HW227695  10.680   1.758   6.491 -1.7375  0.2509 -2.1887
 6819SOL     OW27696   1.715   3.712   5.491 -0.6778  0.1360 -0.0719
 6819SOL    HW127697   1.736   3.650   5.561 -0.7364 -0.5215 -0.6273
 6819SOL    HW227698   1.764   3.791   5.513 -0.5909 -0.1148  0.6390
 6820SOL     OW27699   8.528   9.119   8.083  0.1527  0.2024 -0.0788
 6820SOL    HW127700   8.536   9.072   8.000  1.9179 -0.6657  0.5378
 6820SOL    HW227701   8.603   9.090   8.135  0.2386  2.2643  1.0724
 6821SOL     OW27702   5.375   3.487   0.436 -0.3364  0.6924 -0.1250
 6821SOL    HW127703   5.373   3.436   0.517 -0.3248  0.0005 -0.5560
 6821SOL    HW227704   5.320   3.438   0.375 -2.2109  2.3576  0.1109
 6822SOL     OW27705   7.776   3.718   2.930  0.2942 -0.0431  0.2591
 6822SOL    HW127706   7.846   3.710   2.864  0.7623 -0.3535  0.7787
 6822SOL    HW227707   7.709   3.772   2.888  0.7801  0.1299 -0.3093
 6823SOL     OW27708  10.203   9.276  11.120  0.3938 -0.0871  0.1660
 6823SOL    HW127709  10.138   9.259  11.052 -0.2935 -1.2368  1.0694
 6823SOL    HW227710  10.257   9.196  11.122  0.1355 -0.2500  1.2455
 6824SOL     OW27711   8.606   8.608   8.598  0.0236  0.4697  0.2488
 6824SOL    HW127712   8.667   8.592   8.670 -1.0572 -1.3632  0.8456
 6824SOL    HW227713   8.633   8.691   8.561  1.9126  0.4519  1.4560
 6825SOL     OW27714   6.667   1.135   4.570  0.3099  0.2124 -0.3626
 6825SOL    HW127715   6.614   1.214   4.578 -0.9859 -0.6434 -0.0695
 6825SOL    HW227716   6.686   1.128   4.476  0.0882  0.6481 -0.4408
 6826SOL     OW27717  12.462   1.037  10.057 -0.0697  0.0795  0.0506
 6826SOL    HW127718  12.519   0.965  10.084  0.1094 -0.2725 -1.1757
 6826SOL    HW227719  12.391   0.994  10.009 -1.3606  0.5233  1.4916
 6827SOL     OW27720   2.730   8.552   0.511  0.8182  0.3563 -0.2480
 6827SOL    HW127721   2.798   8.542   0.445 -0.3628  0.7112 -1.5536
 6827SOL    HW227722   2.648   8.553   0.462 -0.2078 -0.8118  1.3441
 6828SOL     OW27723   0.327  10.221   4.390  0.1978 -0.3909 -0.2207
 6828SOL    HW127724   0.379  10.268   4.324  0.3000 -0.7112 -0.3696
 6828SOL    HW227725   0.260  10.176   4.339 -0.4859  0.3564  0.0091
 6829SOL     OW27726   7.958   2.804  12.455  0.0637 -0.1180  0.4135
 6829SOL    HW127727   7.946   2.874  12.519  2.6675  2.2445 -1.4318
 6829SOL    HW227728   8.038   2.760  12.482 -1.1250 -1.9735  1.0932
 6830SOL     OW27729   2.010   1.234   5.117  0.1642  0.0120  0.0855
 6830SOL    HW127730   2.072   1.259   5.186  0.2473  1.1808 -0.3748
 6830SOL    HW227731   2.038   1.147   5.090  1.7153  0.5562 -0.1833
 6831SOL     OW27732   5.255   1.158  12.581 -0.3462 -0.2208 -0.1687
 6831SOL    HW127733   5.165   1.176  12.608 -0.4437  1.3098 -1.3623
 6831SOL    HW227734   5.305   1.161  12.663 -1.1708  0.4153  0.3318
 6832SOL     OW27735   7.236   2.938   8.785  0.5531  0.3611 -0.1725
 6832SOL    HW127736   7.210   2.855   8.746  0.6888  0.6597 -0.9339
 6832SOL    HW227737   7.155   2.990   8.787  0.7713  0.7839 -1.2302
 6833SOL     OW27738  10.693   1.275   7.742 -0.2186 -0.0038  0.2137
 6833SOL    HW127739  10.645   1.192   7.738  1.4747 -0.9894 -0.6703
 6833SOL    HW227740  10.677   1.315   7.656 -2.0260  1.2384  1.0528
 6834SOL     OW27741   3.371   6.855   5.024 -0.4875  0.1942 -0.0745
 6834SOL    HW127742   3.377   6.942   5.064  1.2868  0.8089 -1.5482
 6834SOL    HW227743   3.402   6.796   5.092  1.1111  1.0625  0.0038
 6835SOL     OW27744   0.619   0.986   3.527  0.2436  0.3843  0.4296
 6835SOL    HW127745   0.625   0.905   3.578 -0.4559 -0.0724 -0.1943
 6835SOL    HW227746   0.700   0.988   3.477  0.0633 -0.1753  0.1050
 6836SOL     OW27747   8.962  12.675   6.446  0.7483  0.3706 -0.3011
 6836SOL    HW127748   8.919  12.758   6.427 -0.7619 -0.6386 -1.5226
 6836SOL    HW227749   9.004  12.689   6.531 -1.2337  1.7032  0.5294
 6837SOL     OW27750   7.072   5.016   4.663  0.0302 -0.2853 -1.1226
 6837SOL    HW127751   7.110   4.929   4.648 -0.2651 -0.4330 -1.0179
 6837SOL    HW227752   7.109   5.070   4.593  1.2317 -0.1766 -0.4326
 6838SOL     OW27753   1.126   7.469  10.222 -0.5620 -0.6934  0.2153
 6838SOL    HW127754   1.164   7.513  10.146 -1.1329 -1.5325 -0.5862
 6838SOL    HW227755   1.034   7.494  10.220 -0.6022 -0.8160  0.5615
 6839SOL     OW27756   8.961  10.930  11.591 -0.2022 -0.4261  0.2281
 6839SOL    HW127757   8.886  10.876  11.615  0.2331 -1.9021 -1.4894
 6839SOL    HW227758   8.934  10.973  11.510  0.0247  0.7948  0.7782
 6840SOL     OW27759   3.877   2.044  12.086 -0.1768  0.1760 -0.3604
 6840SOL    HW127760   3.932   2.078  12.015 -1.1443  1.5937 -0.4635
 6840SOL    HW227761   3.923   2.069  12.166 -0.5234  1.1334 -0.4507
 6841SOL     OW27762  10.674   8.344   8.513 -0.1725 -0.3401 -0.3580
 6841SOL    HW127763  10.643   8.434   8.527 -0.4101 -0.6422  1.1832
 6841SOL    HW227764  10.765   8.354   8.487  0.1849  0.3229  1.0490
 6842SOL     OW27765   8.769   9.052   3.458  0.2620 -0.2134  0.0166
 6842SOL    HW127766   8.724   9.133   3.481 -0.1111 -0.3830 -0.0990
 6842SOL    HW227767   8.860   9.078   3.445  0.3643  0.0004  1.0377
 6843SOL     OW27768   2.360  10.472   0.427  0.0025 -0.0365  0.1282
 6843SOL    HW127769   2.339  10.528   0.501 -1.5794 -0.5847  0.1360
 6843SOL    HW227770   2.455  10.476   0.420 -0.0283  2.5276  0.1861
 6844SOL     OW27771  11.076   1.827   0.958  1.0754  1.0058 -0.0258
 6844SOL    HW127772  11.072   1.848   0.865 -0.8498  1.2962  0.0708
 6844SOL    HW227773  11.126   1.746   0.963 -2.6445 -1.7467 -1.9107
 6845SOL     OW27774   8.288   4.716  11.652  0.0085 -0.1719  0.3885
 6845SOL    HW127775   8.358   4.766  11.609  0.3989 -0.8137  0.2667
 6845SOL    HW227776   8.316   4.707  11.743 -1.2228  1.9354  1.0478
 6846SOL     OW27777   8.404  10.802   7.891  0.2538  0.1810 -0.4245
 6846SOL    HW127778   8.431  10.759   7.973  1.9724  0.3226 -0.8812
 6846SOL    HW227779   8.409  10.895   7.911 -0.6541  0.2090 -0.3001
 6847SOL     OW27780  11.529   9.849   2.919  0.4701 -0.5348  0.4339
 6847SOL    HW127781  11.590   9.777   2.927  0.4238 -0.6641 -0.3220
 6847SOL    HW227782  11.448   9.809   2.886 -0.3746 -0.5366  2.3338
 6848SOL     OW27783   9.336  11.093   8.434 -0.1141 -0.3242 -0.2572
 6848SOL    HW127784   9.394  11.110   8.360  0.6782  0.0398  0.4181
 6848SOL    HW227785   9.360  11.004   8.463  0.8224  0.1815  0.6110
 6849SOL     OW27786   6.573   6.824   1.323 -0.3798 -0.1720 -0.2623
 6849SOL    HW127787   6.534   6.898   1.368 -0.6929 -0.8044  0.5286
 6849SOL    HW227788   6.666   6.847   1.314 -0.8463  1.3053 -2.0819
 6850SOL     OW27789   0.599  11.691   8.764 -0.3175  0.7314 -0.1181
 6850SOL    HW127790   0.591  11.634   8.841 -1.7140  1.3401  0.2106
 6850SOL    HW227791   0.693  11.710   8.758 -0.3096  1.7202  2.2242
 6851SOL     OW27792   3.277  10.879  10.192 -0.0724 -0.0238 -0.6651
 6851SOL    HW127793   3.234  10.960  10.162 -0.1466 -0.2285 -1.1186
 6851SOL    HW227794   3.348  10.866  10.130  0.1023 -0.1670 -0.4334
 6852SOL     OW27795   3.747  12.669   5.120  0.3330 -0.3166 -0.2590
 6852SOL    HW127796   3.726  12.724   5.195 -0.7359 -0.8755 -0.1230
 6852SOL    HW227797   3.819  12.614   5.150  3.7058  3.0265 -1.3813
 6853SOL     OW27798   8.601  12.294   3.963 -0.1618 -0.4623  0.3436
 6853SOL    HW127799   8.684  12.247   3.970  0.9028  1.4558  2.2136
 6853SOL    HW227800   8.559  12.280   4.048 -1.7264 -1.2994 -0.5389
 6854SOL     OW27801  12.119   7.562   3.259  0.5031 -0.0814  0.3163
 6854SOL    HW127802  12.066   7.640   3.249  0.4374 -0.2567 -0.8760
 6854SOL    HW227803  12.200   7.592   3.300  0.2860  0.5176  0.3061
 6855SOL     OW27804   3.780   6.624  10.846 -0.4797  0.8101 -0.3895
 6855SOL    HW127805   3.872   6.634  10.871 -0.1466  0.7910 -1.5478
 6855SOL    HW227806   3.734   6.612  10.929  0.7222 -0.5094  0.1339
 6856SOL     OW27807  11.708   5.628   8.891  0.1752  0.6319 -0.3270
 6856SOL    HW127808  11.620   5.598   8.870  0.1782  0.2224  0.2314
 6856SOL    HW227809  11.765   5.577   8.834  0.0272  1.2948 -1.0967
 6857SOL     OW27810  11.049   8.665  11.471  0.1054 -0.0856 -0.2433
 6857SOL    HW127811  10.978   8.647  11.533 -0.1983 -1.5303 -0.9678
 6857SOL    HW227812  11.006   8.676  11.387  0.5598  1.4264 -0.3229
 6858SOL     OW27813   4.463  10.935   5.784 -0.3580  0.3319 -0.4100
 6858SOL    HW127814   4.416  10.903   5.707 -0.1107 -2.3005  0.4286
 6858SOL    HW227815   4.551  10.900   5.774 -0.1295  0.5429  0.7314
 6859SOL     OW27816  10.796   5.082  12.126 -0.0340 -0.3187  0.1149
 6859SOL    HW127817  10.800   4.994  12.087 -0.8584 -1.5681  2.6441
 6859SOL    HW227818  10.887   5.104  12.146  0.0854 -1.0813  0.4449
 6860SOL     OW27819   1.360  12.612  12.521 -0.0535  0.9063 -0.2498
 6860SOL    HW127820   1.297  12.684  12.522 -0.2053  0.7702  0.9399
 6860SOL    HW227821   1.384  12.600  12.612  0.1354 -0.4185 -0.4566
 6861SOL     OW27822  12.305   9.869   3.770  0.6373 -0.1812 -0.2277
 6861SOL    HW127823  12.242   9.797   3.770  0.2352  0.1662 -0.6080
 6861SOL    HW227824  12.386   9.830   3.803  0.0882 -0.5111  0.7703
 6862SOL     OW27825   3.907   7.225   3.142 -0.0736  0.1433 -0.1433
 6862SOL    HW127826   3.993   7.236   3.100 -0.0411  1.0392  0.1504
 6862SOL    HW227827   3.897   7.302   3.197  0.6499 -1.7397  2.8948
 6863SOL     OW27828   6.440   2.934   9.608  0.5461 -0.1574  0.9054
 6863SOL    HW127829   6.359   2.883   9.599 -1.4923  2.8048  1.1828
 6863SOL    HW227830   6.489   2.916   9.527 -2.5262  1.3872 -1.4693
 6864SOL     OW27831   7.693   0.451   3.404  0.1052  0.3943  0.0470
 6864SOL    HW127832   7.639   0.485   3.476 -0.7085  0.9200 -0.7914
 6864SOL    HW227833   7.743   0.527   3.375  0.9784  0.0134  0.5165
 6865SOL     OW27834   0.767   0.833  10.587  0.2164  0.0257  0.3020
 6865SOL    HW127835   0.815   0.850  10.506  1.5415 -0.0659  1.0408
 6865SOL    HW227836   0.747   0.920  10.622  2.5399  0.1629  1.5016
 6866SOL     OW27837  10.133  10.964   6.422  0.5714  0.0420  0.1695
 6866SOL    HW127838  10.178  11.019   6.486 -1.1358  0.8111  0.7702
 6866SOL    HW227839  10.166  10.994   6.338 -0.0030  1.7622  0.5088
 6867SOL     OW27840   5.894  10.532   8.925  0.1096 -0.3285 -0.1618
 6867SOL    HW127841   5.967  10.588   8.897 -0.7245  0.0892 -1.5774
 6867SOL    HW227842   5.892  10.461   8.861 -0.4470 -0.5717  0.1189
 6868SOL     OW27843   7.499  10.815   6.343  0.1580 -0.0779  0.6122
 6868SOL    HW127844   7.432  10.762   6.299 -1.6201  1.8226  0.8773
 6868SOL    HW227845   7.457  10.900   6.357  2.4019  0.9644  1.4859
 6869SOL     OW27846   9.653   6.577   1.496 -1.1829 -0.0512  0.0450
 6869SOL    HW127847   9.741   6.610   1.515 -1.1399  0.6137 -1.2208
 6869SOL    HW227848   9.594   6.647   1.524 -1.3680 -0.6770  1.3117
 6870SOL     OW27849   2.398  10.930   0.149  0.0053  0.3506 -0.2097
 6870SOL    HW127850   2.440  11.014   0.132  1.7756 -0.3392  0.5890
 6870SOL    HW227851   2.373  10.933   0.241 -0.2386  0.1373 -0.2665
 6871SOL     OW27852  11.662   2.808   9.354  0.4252 -0.6332  0.2974
 6871SOL    HW127853  11.634   2.786   9.443  0.0884  0.8417  0.5782
 6871SOL    HW227854  11.710   2.730   9.324 -1.0189 -1.8830  1.0662
 6872SOL     OW27855   5.690   1.732   5.808 -0.5876 -0.2011 -0.2150
 6872SOL    HW127856   5.683   1.775   5.893  1.0766 -0.1066 -0.0897
 6872SOL    HW227857   5.679   1.639   5.828  0.5515 -0.2600  0.2559
 6873SOL     OW27858   1.496   9.605  10.956 -0.0421  0.5226  0.3712
 6873SOL    HW127859   1.445   9.590  10.876  0.8728 -1.8611  0.1386
 6873SOL    HW227860   1.432   9.598  11.027 -0.5214  0.5088 -0.0582
 6874SOL     OW27861  10.305   6.068  11.298 -0.5629 -1.2267  0.2924
 6874SOL    HW127862  10.227   6.025  11.332 -0.9783 -1.3076 -0.7306
 6874SOL    HW227863  10.323   6.023  11.215 -2.1760  1.7872 -1.8709
 6875SOL     OW27864   7.107   5.675   0.238 -0.3661  0.3027 -0.9578
 6875SOL    HW127865   7.150   5.757   0.212  1.6921 -0.8919 -1.5939
 6875SOL    HW227866   7.166   5.636   0.303 -0.5536 -1.3386 -1.7120
 6876SOL     OW27867   5.778   7.178   0.243 -0.3609 -0.5680 -0.5996
 6876SOL    HW127868   5.862   7.207   0.276  0.0133 -0.5682 -1.5208
 6876SOL    HW227869   5.781   7.195   0.149 -1.5832 -0.0844 -0.5782
 6877SOL     OW27870  10.710   1.373   7.477 -0.2513  0.5406 -0.4003
 6877SOL    HW127871  10.782   1.427   7.510 -1.4690  1.6652  0.5275
 6877SOL    HW227872  10.647   1.437   7.443 -0.3260 -0.4679 -2.2833
 6878SOL     OW27873   3.429  10.106  10.796  0.0242  0.3898 -0.3044
 6878SOL    HW127874   3.464  10.173  10.738 -0.5188  0.5646 -0.4390
 6878SOL    HW227875   3.381  10.155  10.863  0.6079  0.1878  0.2683
 6879SOL     OW27876   1.861   2.606   0.089 -0.9763 -0.2994  0.3478
 6879SOL    HW127877   1.855   2.609  -0.006  0.4270 -3.9412 -0.0007
 6879SOL    HW227878   1.954   2.619   0.108 -0.2694 -4.4022  0.6528
 6880SOL     OW27879   0.749   6.114  11.859 -0.1458  0.4764 -0.5781
 6880SOL    HW127880   0.782   6.069  11.782  0.7379  0.5112 -0.2343
 6880SOL    HW227881   0.815   6.182  11.877  0.0630 -0.0256  0.6430
 6881SOL     OW27882   2.160   0.347   7.278 -0.0799 -0.2199 -0.7925
 6881SOL    HW127883   2.083   0.317   7.326 -1.1055  2.9823 -0.1943
 6881SOL    HW227884   2.229   0.354   7.343  0.2821 -1.5177 -1.0108
 6882SOL     OW27885   5.609   1.577   7.910 -0.1875 -0.2060 -0.6333
 6882SOL    HW127886   5.614   1.672   7.924 -1.6191 -0.0142 -1.2288
 6882SOL    HW227887   5.700   1.548   7.913  0.2162  1.0479  0.4558
 6883SOL     OW27888   3.247  11.665  11.937 -0.1876 -0.2844 -0.0802
 6883SOL    HW127889   3.178  11.601  11.953 -1.5656  1.7787  3.3659
 6883SOL    HW227890   3.326  11.627  11.976 -0.5337 -0.6682  0.2442
 6884SOL     OW27891   8.881   0.565   8.012  0.3737 -0.4324  0.4474
 6884SOL    HW127892   8.885   0.490   8.072  0.6620  0.8442  2.0731
 6884SOL    HW227893   8.968   0.569   7.973  0.1811 -1.2742 -0.1217
 6885SOL     OW27894   1.649   3.002  12.707 -0.2607  0.3291 -0.0685
 6885SOL    HW127895   1.559   3.021  12.735 -0.3070  1.1584 -0.7414
 6885SOL    HW227896   1.685   2.950  12.779 -1.2124  0.1547  0.3060
 6886SOL     OW27897   5.908  11.232   0.967 -0.4318  0.1046 -0.7673
 6886SOL    HW127898   5.981  11.257   1.024  0.5819 -0.2441 -1.8886
 6886SOL    HW227899   5.949  11.194   0.890 -1.7777  0.5825 -1.7605
 6887SOL     OW27900   3.047   4.870   1.012  0.2491 -0.1690  0.3222
 6887SOL    HW127901   3.070   4.955   0.976 -0.3712 -0.6578 -1.3498
 6887SOL    HW227902   3.029   4.886   1.104  0.5343  1.4274  0.1180
 6888SOL     OW27903  10.179   3.104   9.610  0.5400 -0.6713  0.3607
 6888SOL    HW127904  10.152   3.040   9.677 -0.6229 -1.2064 -0.5929
 6888SOL    HW227905  10.114   3.096   9.541  1.2473  0.4811 -0.4760
 6889SOL     OW27906   9.979  10.535  12.542 -0.2715  0.0488 -0.9784
 6889SOL    HW127907   9.949  10.625  12.559 -0.3571  0.2434 -2.0831
 6889SOL    HW227908   9.926  10.481  12.601 -1.1281  0.6102 -1.2125
 6890SOL     OW27909   0.566  10.319   9.848  0.1424  0.0288  0.0491
 6890SOL    HW127910   0.616  10.377   9.905  0.8447  0.5284 -1.0391
 6890SOL    HW227911   0.480  10.312   9.891  0.1510  1.5913  0.4093
 6891SOL     OW27912   2.644   5.661   4.413  0.1101 -0.0319  0.3336
 6891SOL    HW127913   2.707   5.680   4.343  0.3229  0.6979  0.7141
 6891SOL    HW227914   2.593   5.587   4.380 -0.4376  0.9179 -1.0313
 6892SOL     OW27915   2.847   8.620   3.785  0.3220  0.1844 -0.4202
 6892SOL    HW127916   2.894   8.657   3.710  1.1819  1.8605  0.8938
 6892SOL    HW227917   2.912   8.614   3.854 -1.5982  4.6255  2.1851
 6893SOL     OW27918   5.233   0.760   8.713 -0.0687  0.0136 -0.4807
 6893SOL    HW127919   5.306   0.812   8.747  0.4862  0.4582 -2.2513
 6893SOL    HW227920   5.156   0.797   8.757  0.8174 -1.3194  2.4072
 6894SOL     OW27921   1.575   6.256  10.333  0.4156 -0.0991  0.1716
 6894SOL    HW127922   1.493   6.211  10.353 -0.7932  1.8155 -0.2248
 6894SOL    HW227923   1.549   6.347  10.318  2.5063  0.3742 -0.8770
 6895SOL     OW27924   3.497   9.849   9.210 -0.0490 -0.3547  0.2910
 6895SOL    HW127925   3.467   9.940   9.202  0.7682 -0.2475 -3.1495
 6895SOL    HW227926   3.419   9.800   9.233 -1.5865  0.7165 -2.2507
 6896SOL     OW27927   4.487   6.151   5.872 -0.3294  0.8272  0.8727
 6896SOL    HW127928   4.578   6.178   5.859 -0.0726  0.2044  1.2979
 6896SOL    HW227929   4.436   6.214   5.822  0.3655  0.8924  0.2228
 6897SOL     OW27930  11.414   1.098   1.181 -0.2261  0.4605 -0.0456
 6897SOL    HW127931  11.499   1.063   1.208 -1.1157 -1.7611  0.0624
 6897SOL    HW227932  11.423   1.112   1.087 -0.3767 -1.9444 -0.4770
 6898SOL     OW27933   0.091   4.984  12.028 -0.3659  0.0937  0.2474
 6898SOL    HW127934   0.084   4.942  11.942 -0.0941 -0.9880  0.7367
 6898SOL    HW227935   0.092   5.077  12.009  0.5522 -0.1447 -0.9889
 6899SOL     OW27936   8.159   7.148  10.141  0.1421 -0.0939  0.8531
 6899SOL    HW127937   8.088   7.208  10.164 -0.2845 -0.0409 -0.4932
 6899SOL    HW227938   8.165   7.155  10.045  0.0804 -2.1945  0.6548
 6900SOL     OW27939   8.475   9.420   1.987 -0.6622  0.0103 -0.1036
 6900SOL    HW127940   8.466   9.514   2.005 -0.1160  0.0019  0.2250
 6900SOL    HW227941   8.447   9.377   2.068 -1.1890 -0.1247 -0.3509
 6901SOL     OW27942   1.635   3.563  11.311 -0.3927 -0.5654  0.2675
 6901SOL    HW127943   1.658   3.521  11.394  0.1645  0.3304  0.5847
 6901SOL    HW227944   1.552   3.607  11.329  0.9195  1.7089  1.1480
 6902SOL     OW27945  10.206  12.287   9.041 -0.2483 -0.1827 -0.2877
 6902SOL    HW127946  10.229  12.242   9.122  2.1443  0.1456 -0.7036
 6902SOL    HW227947  10.238  12.229   8.972 -0.6521  0.3717 -0.9531
 6903SOL     OW27948   4.747   0.682   2.638 -0.3816 -0.5149  0.0885
 6903SOL    HW127949   4.669   0.642   2.600  1.0372 -1.4883 -2.0082
 6903SOL    HW227950   4.778   0.618   2.702  0.0947 -1.3392 -0.9396
 6904SOL     OW27951  10.100   6.575   2.937  0.0467 -0.1349 -0.3699
 6904SOL    HW127952  10.104   6.663   2.974  0.0525 -0.6264  0.8344
 6904SOL    HW227953  10.188   6.559   2.904 -0.0937  0.5053 -1.0781
 6905SOL     OW27954  10.237   5.920   8.166 -0.1416  0.4027  0.2170
 6905SOL    HW127955  10.324   5.960   8.174  0.4418 -0.4366 -1.5150
 6905SOL    HW227956  10.222   5.879   8.251  1.3929  0.1262  0.3891
 6906SOL     OW27957  10.492   2.129   6.851  0.3788  0.4709 -0.1945
 6906SOL    HW127958  10.406   2.131   6.892  0.4986 -0.8426  0.1837
 6906SOL    HW227959  10.553   2.137   6.925  0.6336  3.6107 -0.6344
 6907SOL     OW27960   6.572   0.059   1.191 -0.3400 -0.2109  0.1669
 6907SOL    HW127961   6.559   0.118   1.117  0.4495 -0.6912 -0.3679
 6907SOL    HW227962   6.544  -0.027   1.158  0.1137 -0.4462  0.3959
 6908SOL     OW27963   4.695   0.893   2.815 -0.7431  0.3304  0.0500
 6908SOL    HW127964   4.719   0.822   2.756 -2.2775  0.9276 -1.3751
 6908SOL    HW227965   4.778   0.938   2.833 -0.1713 -0.1024 -1.3610
 6909SOL     OW27966  10.782   8.071   4.308 -0.0023 -0.2266 -0.1804
 6909SOL    HW127967  10.780   8.166   4.297 -1.0222 -0.4522 -2.5162
 6909SOL    HW227968  10.699   8.040   4.271  0.9648 -2.1283 -0.9375
 6910SOL     OW27969   9.054  11.363   2.900  0.3554  0.0794  0.1561
 6910SOL    HW127970   9.108  11.369   2.821  1.7424  0.1295  1.0910
 6910SOL    HW227971   8.988  11.432   2.888 -1.0176 -1.4828 -2.0759
 6911SOL     OW27972   0.261  12.688   5.002  0.0840 -0.4752 -0.8428
 6911SOL    HW127973   0.271  12.715   5.093  1.7102 -0.6445 -0.9444
 6911SOL    HW227974   0.239  12.595   5.007  0.2161 -0.4949 -0.6298
 6912SOL     OW27975  11.840   4.613   1.753  0.2098  0.3267 -0.3880
 6912SOL    HW127976  11.849   4.528   1.796  0.4364  1.2359  1.4734
 6912SOL    HW227977  11.747   4.634   1.762 -0.7064 -1.2768 -4.1392
 6913SOL     OW27978   5.906   1.739   2.891  0.2438  0.0168  0.4823
 6913SOL    HW127979   5.932   1.656   2.850  2.1882  1.8352 -2.3065
 6913SOL    HW227980   5.963   1.747   2.967  1.4196 -0.3307 -0.3407
 6914SOL     OW27981   2.134   2.637   5.300  0.3395  0.8998 -0.2460
 6914SOL    HW127982   2.175   2.555   5.328  2.3973  2.1266  0.5733
 6914SOL    HW227983   2.062   2.651   5.361  0.6529  0.2484  0.2786
 6915SOL     OW27984   5.240  10.811  10.773 -0.1972  0.0506 -0.2013
 6915SOL    HW127985   5.216  10.893  10.730 -0.0834 -0.7024 -1.7615
 6915SOL    HW227986   5.293  10.837  10.848  0.4865  1.3628 -1.1240
 6916SOL     OW27987   0.220  11.481  12.379 -0.1815 -0.9142 -0.1207
 6916SOL    HW127988   0.295  11.450  12.329 -1.7195 -2.5765 -1.5470
 6916SOL    HW227989   0.240  11.572  12.400  2.3200 -1.3946 -0.1891
 6917SOL     OW27990   6.095  11.639   5.981  0.1148 -0.0740 -0.0213
 6917SOL    HW127991   6.175  11.588   5.970  0.0638 -0.3026  0.6025
 6917SOL    HW227992   6.104  11.678   6.068  0.7647  2.0712 -0.9921
 6918SOL     OW27993   3.593   9.934   5.787  0.3563 -1.3861  0.3069
 6918SOL    HW127994   3.547   9.859   5.748 -0.6308  0.5537 -2.6477
 6918SOL    HW227995   3.533   9.968   5.852 -1.6451 -0.1760 -2.0034
 6919SOL     OW27996   8.432   4.479   8.903 -0.3851  0.4242  0.2550
 6919SOL    HW127997   8.524   4.475   8.929 -0.6546  2.5126  1.7948
 6919SOL    HW227998   8.403   4.388   8.904  1.3647 -0.1738  0.8292
 6920SOL     OW27999   3.323   5.123   6.154  0.0883  0.7253  0.0734
 6920SOL    HW128000   3.290   5.143   6.066  0.6696 -2.2165 -0.9281
 6920SOL    HW228001   3.417   5.138   6.149  0.0678  0.9648  0.3489
 6921SOL     OW28002  11.791   8.328   8.304 -0.2894  0.7309 -0.2032
 6921SOL    HW128003  11.782   8.423   8.305 -0.7082  0.6968  0.5454
 6921SOL    HW228004  11.811   8.306   8.213 -1.9047  1.4016 -0.7678
 6922SOL     OW28005   8.250   5.894   3.376  0.1097 -0.1834  0.3730
 6922SOL    HW128006   8.223   5.859   3.461 -0.2893  0.3362  0.4689
 6922SOL    HW228007   8.311   5.829   3.341  0.2739 -0.4024  1.0562
 6923SOL     OW28008   4.877   9.808   5.000  0.2020  0.2355  0.0314
 6923SOL    HW128009   4.786   9.833   4.984 -0.1454 -1.4972 -0.9920
 6923SOL    HW228010   4.915   9.798   4.913  2.2112  3.4936  0.3937
 6924SOL     OW28011   1.351   1.396  11.152  0.3247 -0.3865  0.1082
 6924SOL    HW128012   1.402   1.317  11.138 -0.5516 -0.7602 -1.0825
 6924SOL    HW228013   1.323   1.391  11.244  2.0149 -0.3881  0.6560
 6925SOL     OW28014  10.517  11.581  10.934 -0.2480 -0.1861  0.0433
 6925SOL    HW128015  10.536  11.492  10.965 -0.7022 -0.7477 -1.2283
 6925SOL    HW228016  10.497  11.630  11.014  1.1073 -0.9290  0.8880
 6926SOL     OW28017   5.624   9.652   2.097 -0.2330  0.7529 -0.2801
 6926SOL    HW128018   5.693   9.688   2.152 -0.5048 -1.2115  1.4436
 6926SOL    HW228019   5.549   9.643   2.155 -0.5943 -1.1991 -0.9813
 6927SOL     OW28020   9.593   9.539   2.361 -0.7411  0.5124 -0.2371
 6927SOL    HW128021   9.510   9.506   2.397  0.3123 -1.4506  0.5639
 6927SOL    HW228022   9.580   9.536   2.266 -0.7292 -2.4098 -0.2277
 6928SOL     OW28023   8.369   1.174   1.444  0.3373 -0.2991 -0.3984
 6928SOL    HW128024   8.325   1.110   1.388 -0.3038 -1.2049  1.0695
 6928SOL    HW228025   8.428   1.121   1.498  0.0028  0.3515  0.6424
 6929SOL     OW28026   8.147   6.066   5.053  0.1508  0.1388  0.0937
 6929SOL    HW128027   8.220   6.057   4.992 -0.6336 -0.4417 -0.7754
 6929SOL    HW228028   8.176   6.021   5.133 -0.1431 -2.2037 -1.0434
 6930SOL     OW28029   6.843   6.801   6.489  0.2593 -0.0259 -0.2714
 6930SOL    HW128030   6.769   6.741   6.477  0.1672 -0.4782  2.0539
 6930SOL    HW228031   6.914   6.746   6.520  0.0822  1.0020  2.2274
 6931SOL     OW28032   8.116  10.165   7.263  0.4109 -0.4233 -0.6737
 6931SOL    HW128033   8.203  10.155   7.303  0.1315  0.0537  0.0714
 6931SOL    HW228034   8.106  10.260   7.254 -1.5801 -0.1148  2.8389
 6932SOL     OW28035   6.277   0.312   4.413  0.2220  0.1730  0.3186
 6932SOL    HW128036   6.320   0.360   4.343  0.6971  0.1217  0.5700
 6932SOL    HW228037   6.332   0.236   4.428 -0.4351 -0.3600  0.0444
 6933SOL     OW28038   4.514  11.443  10.759  0.7321  0.0611 -0.0269
 6933SOL    HW128039   4.467  11.410  10.835  0.2560  0.6018 -0.0847
 6933SOL    HW228040   4.598  11.472  10.794  0.9436 -0.6925  0.1123
 6934SOL     OW28041   7.619   7.574  10.956 -0.8874  0.5119  0.0758
 6934SOL    HW128042   7.672   7.651  10.977 -2.6641  2.0049 -0.6394
 6934SOL    HW228043   7.678   7.517  10.907  0.9456  0.6364  2.0134
 6935SOL     OW28044   8.994   1.654   4.890  0.6656  0.3836  0.2439
 6935SOL    HW128045   8.981   1.626   4.799 -1.1311  1.0247  0.2728
 6935SOL    HW228046   8.971   1.577   4.942 -3.2784  1.3617  0.2812
 6936SOL     OW28047   4.224   0.339   7.006 -0.3633  0.1553 -0.3728
 6936SOL    HW128048   4.301   0.394   6.992  0.7345 -1.0106  0.9643
 6936SOL    HW228049   4.207   0.300   6.920 -1.6999  3.1422 -1.6118
 6937SOL     OW28050   3.219   9.296  10.376 -0.0001 -0.2702  0.0308
 6937SOL    HW128051   3.180   9.232  10.436  1.2805  0.7097  1.9845
 6937SOL    HW228052   3.251   9.366  10.432  2.7831 -0.0840 -1.6276
 6938SOL     OW28053   3.112  11.360   4.281  0.4371 -0.2805  0.2456
 6938SOL    HW128054   3.177  11.415   4.324  1.6328 -0.5572 -1.1361
 6938SOL    HW228055   3.071  11.312   4.353  2.9093 -1.3058  1.1091
 6939SOL     OW28056   9.673   6.671   7.626 -0.2042  0.0884  0.1692
 6939SOL    HW128057   9.746   6.610   7.635  0.9723  1.4514  0.2721
 6939SOL    HW228058   9.619   6.655   7.703 -0.6079 -1.6418 -0.4169
 6940SOL     OW28059  11.974   7.881   4.816  0.2232 -0.1683  0.3293
 6940SOL    HW128060  11.910   7.814   4.791  0.7531 -0.3719 -0.5148
 6940SOL    HW228061  11.937   7.963   4.783 -0.5434  0.0038  1.5766
 6941SOL     OW28062   4.031   5.124   7.109  0.1588 -0.1070 -0.2502
 6941SOL    HW128063   4.112   5.074   7.122 -0.3446 -0.9745 -0.3476
 6941SOL    HW228064   4.045   5.205   7.158  1.3373  0.0441 -0.8040
 6942SOL     OW28065   6.052   9.212   6.878  0.1083 -0.4528 -0.4944
 6942SOL    HW128066   6.141   9.176   6.881  0.0035 -0.7221  2.1581
 6942SOL    HW228067   6.037   9.243   6.967 -2.5116 -0.5167 -0.8581
 6943SOL     OW28068   0.293  12.134   0.614  0.4151 -0.0042  0.1669
 6943SOL    HW128069   0.292  12.203   0.547  0.6953 -0.0324  0.1304
 6943SOL    HW228070   0.373  12.151   0.664  0.1554  0.0768  0.5609
 6944SOL     OW28071   8.036   0.931   2.902  0.2696  0.3265 -0.0888
 6944SOL    HW128072   8.067   0.926   2.811  0.4819  1.4281 -0.0846
 6944SOL    HW228073   8.057   0.845   2.938 -1.5312 -0.8411 -1.6099
 6945SOL     OW28074   4.306  11.861   2.238 -0.2831 -0.3155  0.7072
 6945SOL    HW128075   4.357  11.934   2.203  0.1523 -1.1483 -0.4635
 6945SOL    HW228076   4.371  11.792   2.255 -0.7322 -0.5642  1.4469
 6946SOL     OW28077  12.453  12.505   0.418 -0.6542  0.0466  0.4404
 6946SOL    HW128078  12.406  12.577   0.460  1.9318  0.3642  3.1839
 6946SOL    HW228079  12.435  12.429   0.474 -1.0082 -0.7407 -0.7197
 6947SOL     OW28080   1.080   7.366  11.577 -0.0066  0.3244  0.4176
 6947SOL    HW128081   1.127   7.290  11.613 -1.1454  0.6412  2.7606
 6947SOL    HW228082   1.136   7.441  11.599 -0.5580  0.4904  1.2853
 6948SOL     OW28083   2.742   8.337   7.951  0.5894  0.1974  0.3430
 6948SOL    HW128084   2.837   8.331   7.952  0.6000 -0.3249 -1.2885
 6948SOL    HW228085   2.712   8.256   7.993  0.8854 -1.1076 -1.8328
 6949SOL     OW28086  12.387   3.547   2.918 -0.2592 -0.1540 -0.2484
 6949SOL    HW128087  12.348   3.472   2.874  0.1400  0.2603 -1.3438
 6949SOL    HW228088  12.313   3.593   2.958 -0.6299 -0.5261 -0.5033
 6950SOL     OW28089   8.740  11.105   5.272  0.0402 -0.1752  0.3603
 6950SOL    HW128090   8.820  11.073   5.314  0.4055 -1.0416 -0.9305
 6950SOL    HW228091   8.670  11.053   5.312  0.3926 -1.0575 -0.1423
 6951SOL     OW28092   3.859   0.900   1.805  0.2854  0.2591 -0.0783
 6951SOL    HW128093   3.894   0.891   1.894 -0.6426  1.8601  0.4949
 6951SOL    HW228094   3.931   0.941   1.756  0.7631 -0.5346 -0.0716
 6952SOL     OW28095   8.541   7.090   9.924 -0.2430 -0.3560 -0.0775
 6952SOL    HW128096   8.463   7.035   9.928 -0.3728 -0.1814 -0.2189
 6952SOL    HW228097   8.598   7.056   9.994 -1.1259  0.5638  1.1107
 6953SOL     OW28098   3.517  10.164   5.309 -0.1328 -0.3491 -0.0749
 6953SOL    HW128099   3.608  10.188   5.291 -0.0916  0.2906  0.9102
 6953SOL    HW228100   3.522  10.110   5.389 -0.6390 -0.0646  0.1559
 6954SOL     OW28101   7.904   1.176   4.602 -0.0969 -0.1701  0.2395
 6954SOL    HW128102   7.949   1.254   4.569  0.0152 -0.5800 -0.6240
 6954SOL    HW228103   7.811   1.195   4.588 -0.2282  0.6341  1.9287
 6955SOL     OW28104  11.954   6.487   8.643  0.0603 -0.3980  0.2176
 6955SOL    HW128105  11.965   6.403   8.687 -0.2085 -0.5865 -0.0763
 6955SOL    HW228106  11.871   6.480   8.597 -0.6581  0.5348  1.3245
 6956SOL     OW28107   4.472  11.754   1.447 -0.2768 -0.0242  0.2911
 6956SOL    HW128108   4.495  11.699   1.522  1.0714 -1.0038 -0.7798
 6956SOL    HW228109   4.523  11.834   1.459 -3.4760  1.8774  2.7237
 6957SOL     OW28110  11.080   9.090   2.348 -0.1685  0.0874 -0.2032
 6957SOL    HW128111  11.037   9.146   2.413 -1.2389  0.9684 -1.6129
 6957SOL    HW228112  11.113   9.151   2.282  0.0389 -0.8406 -0.9793
 6958SOL     OW28113   2.827   6.901   2.184 -0.2811 -0.7359 -0.0423
 6958SOL    HW128114   2.858   6.863   2.101  0.7738  0.9082 -0.4474
 6958SOL    HW228115   2.882   6.859   2.250  1.1797  0.3074 -0.5274
 6959SOL     OW28116  11.952   9.930   2.383  0.0945 -0.2161  0.2105
 6959SOL    HW128117  11.864   9.955   2.356 -0.1909  0.9988  2.0612
 6959SOL    HW228118  12.000  10.013   2.389  0.6722 -0.6184  1.4414
 6960SOL     OW28119   0.982  10.804   1.596 -0.0219 -0.1759  0.1922
 6960SOL    HW128120   1.049  10.864   1.627  0.3862 -0.2136 -0.5829
 6960SOL    HW228121   1.011  10.718   1.626 -0.7874  0.0336  1.6038
 6961SOL     OW28122   8.599   3.092   4.322 -0.1880  0.4622 -0.3756
 6961SOL    HW128123   8.532   3.031   4.291  1.2093 -1.2555 -0.2007
 6961SOL    HW228124   8.563   3.129   4.402 -1.9302  1.4960 -1.5583
 6962SOL     OW28125  10.906  12.161   5.839 -0.2358 -0.1050  0.2810
 6962SOL    HW128126  10.940  12.248   5.819 -0.6079  0.2491  1.1329
 6962SOL    HW228127  10.898  12.160   5.934  1.0724 -1.5564  0.4177
 6963SOL     OW28128   8.770   5.925   8.685  0.4919  0.3762  0.3206
 6963SOL    HW128129   8.831   5.974   8.631  0.9870 -0.3915  0.1759
 6963SOL    HW228130   8.724   5.992   8.736  1.4352  0.9616  0.4160
 6964SOL     OW28131   8.830   8.783  10.950 -0.3788 -0.0605 -0.3983
 6964SOL    HW128132   8.757   8.798  11.010  1.3445  1.4723  1.4923
 6964SOL    HW228133   8.791   8.744  10.873 -2.8980 -1.1202  1.2961
 6965SOL     OW28134   0.948   2.456   9.117  0.6656  0.0491 -0.0654
 6965SOL    HW128135   0.898   2.376   9.108 -0.8281  0.7315  1.5740
 6965SOL    HW228136   0.942   2.478   9.210  2.3714  1.2209 -0.1815
 6966SOL     OW28137  12.442   4.039   3.641 -0.1621  0.0630  0.1766
 6966SOL    HW128138  12.446   4.100   3.567 -1.0491 -0.0766  0.0044
 6966SOL    HW228139  12.448   3.952   3.601 -0.4298 -0.0077  0.2940
 6967SOL     OW28140   6.276  12.572   3.151 -0.0974 -0.4052 -0.0034
 6967SOL    HW128141   6.368  12.545   3.160 -0.0305  0.0784  0.9694
 6967SOL    HW228142   6.272  12.615   3.065  1.1507  1.5574  0.8303
 6968SOL     OW28143   0.492   2.823   1.515  0.2935  0.5308  0.5735
 6968SOL    HW128144   0.415   2.804   1.569  1.2846  0.8008  2.1354
 6968SOL    HW228145   0.510   2.741   1.470 -0.3253  0.1845  0.9414
 6969SOL     OW28146   5.822   0.601   4.493 -0.2981  0.5186 -0.7026
 6969SOL    HW128147   5.861   0.561   4.414 -0.4290  0.7583 -0.8885
 6969SOL    HW228148   5.786   0.527   4.541 -1.1004  0.4643 -1.3575
 6970SOL     OW28149   6.504   0.699   5.646 -0.4491 -0.2711  0.2473
 6970SOL    HW128150   6.483   0.714   5.554  0.5169 -1.5196 -0.2068
 6970SOL    HW228151   6.527   0.606   5.650 -2.0801 -0.6512  2.0821
 6971SOL     OW28152   1.435   9.622  12.139  0.4689 -0.2036 -0.5398
 6971SOL    HW128153   1.513   9.609  12.086  1.1109 -1.5178  0.6562
 6971SOL    HW228154   1.469   9.642  12.227 -0.5425  0.1285 -0.2077
 6972SOL     OW28155   9.605  10.268  11.435 -0.1399 -0.0478 -0.4827
 6972SOL    HW128156   9.625  10.186  11.481  3.1815  0.4671 -0.7230
 6972SOL    HW228157   9.622  10.337  11.499 -0.1257  0.5372 -1.1032
 6973SOL     OW28158   0.125   4.678   8.225  0.5684  0.0755  0.5720
 6973SOL    HW128159   0.137   4.590   8.261 -0.3955 -0.8237 -1.1980
 6973SOL    HW228160   0.198   4.689   8.163 -0.5853 -0.4575 -0.9474
 6974SOL     OW28161   7.409  10.280   7.951 -0.2034  0.7065 -0.2900
 6974SOL    HW128162   7.337  10.306   7.893 -0.8679  1.9004  1.0083
 6974SOL    HW228163   7.368  10.218   8.012  0.6953 -1.2611 -1.5598
 6975SOL     OW28164   6.431   4.501   0.210  0.3381  0.4756  0.3912
 6975SOL    HW128165   6.429   4.593   0.185 -0.3505  0.2062 -0.6311
 6975SOL    HW228166   6.498   4.462   0.154  1.4072  0.5359  1.5808
 6976SOL     OW28167  12.617   4.270   9.903  0.8531 -0.1977 -0.5456
 6976SOL    HW128168  12.675   4.324   9.849 -0.0043 -1.4517 -2.8554
 6976SOL    HW228169  12.540   4.326   9.918  0.9614  0.0641 -0.9329
 6977SOL     OW28170   3.968  10.634   9.351  0.0639 -0.3816  0.2995
 6977SOL    HW128171   3.955  10.602   9.440 -1.2137 -0.4399  0.1048
 6977SOL    HW228172   3.955  10.729   9.357 -0.6946 -0.4650  0.0655
 6978SOL     OW28173   8.539  11.445   4.392 -0.2731 -0.0955 -0.1568
 6978SOL    HW128174   8.492  11.369   4.357  0.3036  0.0092 -1.2221
 6978SOL    HW228175   8.591  11.410   4.464 -1.1225 -0.4223  0.3059
 6979SOL     OW28176   0.900   7.473   4.053  0.1909  0.7884 -0.0460
 6979SOL    HW128177   0.974   7.446   3.999  0.8790 -2.6284  2.2744
 6979SOL    HW228178   0.823   7.451   4.001  0.8377 -2.3080  0.0705
 6980SOL     OW28179   3.077   0.900  10.981  0.0658  0.0681  0.0729
 6980SOL    HW128180   3.160   0.935  11.015 -0.1361 -0.6809  1.3903
 6980SOL    HW228181   3.098   0.809  10.958 -0.1120  0.2147 -0.6952
 6981SOL     OW28182  10.795   3.100   8.200  0.4750  1.1893  0.1729
 6981SOL    HW128183  10.818   3.141   8.116  0.0869  1.0756  0.0114
 6981SOL    HW228184  10.795   3.006   8.182 -0.5147  1.2035  0.0686
 6982SOL     OW28185   5.554   7.252   7.440  0.5343 -0.1684  0.8124
 6982SOL    HW128186   5.470   7.296   7.433  0.8523  0.2753 -0.7101
 6982SOL    HW228187   5.602   7.279   7.361  2.1941 -0.2235  1.7502
 6983SOL     OW28188   3.547   3.697   7.669 -0.4070 -0.2082 -0.7315
 6983SOL    HW128189   3.540   3.629   7.737  1.3976  0.7890  0.5411
 6983SOL    HW228190   3.459   3.706   7.634 -1.8436  0.4653  2.7250
 6984SOL     OW28191  11.349   4.103   8.079 -0.0765 -0.6623  0.1382
 6984SOL    HW128192  11.347   4.145   7.993  0.9112  1.3183  0.9989
 6984SOL    HW228193  11.442   4.087   8.096 -0.1607 -0.0882  1.2322
 6985SOL     OW28194   0.103   4.398   9.734  0.2006 -0.6428 -0.6680
 6985SOL    HW128195   0.107   4.486   9.697 -0.7178 -1.1257 -2.0024
 6985SOL    HW228196   0.193   4.377   9.758  0.2496  1.1542  0.9432
 6986SOL     OW28197   0.104   1.813   6.835  0.1299 -0.7494  0.1139
 6986SOL    HW128198   0.184   1.843   6.878 -1.3679  0.0352  2.5625
 6986SOL    HW228199   0.037   1.877   6.860 -1.4552 -1.7953 -1.1984
 6987SOL     OW28200   9.673   1.693  11.139 -0.3958  0.1006 -1.1207
 6987SOL    HW128201   9.657   1.602  11.117  0.7153 -0.5681  0.6979
 6987SOL    HW228202   9.768   1.703  11.136 -0.0654 -0.0937  3.1150
 6988SOL     OW28203  10.662  12.654  12.270 -0.2664 -0.9544  0.7506
 6988SOL    HW128204  10.680  12.746  12.253  1.8773 -1.2708  0.9845
 6988SOL    HW228205  10.651  12.649  12.365  1.6013 -1.1659  1.0038
 6989SOL     OW28206   6.429   1.090   1.061  0.5154 -0.1143 -0.3044
 6989SOL    HW128207   6.452   1.061   1.149 -1.8356 -2.1684 -0.2381
 6989SOL    HW228208   6.510   1.126   1.026  2.0863 -1.1531  1.9413
 6990SOL     OW28209   2.246   9.786   7.993  0.1181  0.5578  0.3780
 6990SOL    HW128210   2.282   9.798   8.081  0.9149  2.4727 -0.1544
 6990SOL    HW228211   2.199   9.867   7.975  0.2330  0.3255 -1.0803
 6991SOL     OW28212   0.575   9.184  10.269 -0.0617 -0.1850  0.2659
 6991SOL    HW128213   0.610   9.241  10.337 -0.6131 -1.9551  2.1701
 6991SOL    HW228214   0.496   9.145  10.308 -0.6502 -0.9754 -1.5608
 6992SOL     OW28215   6.602  12.476   8.704 -0.0446  0.0230 -0.7464
 6992SOL    HW128216   6.570  12.563   8.682  1.5626  0.3393 -1.9831
 6992SOL    HW228217   6.689  12.490   8.739 -0.3511 -0.9891  0.5223
 6993SOL     OW28218   2.879   5.177   7.994  0.4339 -0.0653 -0.9563
 6993SOL    HW128219   2.864   5.109   8.061 -1.8171  0.6367 -0.6572
 6993SOL    HW228220   2.957   5.224   8.025 -1.0680  0.8426  1.7831
 6994SOL     OW28221  12.043   1.512  10.625  0.0737 -0.0691  0.1897
 6994SOL    HW128222  12.077   1.445  10.684  0.7276  0.1624  0.0882
 6994SOL    HW228223  12.120   1.545  10.579 -0.1044  1.3014  0.8022
 6995SOL     OW28224   5.211   9.540  10.790 -0.1257  0.6917  0.5962
 6995SOL    HW128225   5.306   9.534  10.776 -0.0412  0.2128  1.3379
 6995SOL    HW228226   5.194   9.482  10.864 -1.2309 -0.3900 -0.4823
 6996SOL     OW28227   6.039   4.618  12.077  0.2502  0.2497  0.1027
 6996SOL    HW128228   6.032   4.615  12.173  0.9501 -0.0331  0.1474
 6996SOL    HW228229   5.957   4.659  12.049 -0.7572 -1.2856  0.7089
 6997SOL     OW28230   9.940   1.427   4.620  0.2195  0.4904 -0.0570
 6997SOL    HW128231   9.880   1.387   4.557 -0.0404  2.8740 -1.4040
 6997SOL    HW228232   9.922   1.381   4.702 -1.5141 -0.6894 -1.0403
 6998SOL     OW28233   1.361   4.094   9.820 -0.0617  0.3444  0.2583
 6998SOL    HW128234   1.363   4.119   9.912  1.2122 -1.5241  0.7904
 6998SOL    HW228235   1.274   4.056   9.807  0.3298 -0.9014  1.1505
 6999SOL     OW28236   9.943   8.976   0.684  0.5489  0.1382 -0.2628
 6999SOL    HW128237   9.964   9.027   0.762  1.0864  0.5692 -0.6812
 6999SOL    HW228238  10.007   8.905   0.685 -0.5507 -0.9064  0.6291
 7000SOL     OW28239   9.451   4.348   9.597 -0.0705 -0.6708 -0.1128
 7000SOL    HW128240   9.449   4.442   9.613 -0.5872 -0.6783 -0.1059
 7000SOL    HW228241   9.450   4.341   9.501 -0.6033 -0.6682 -0.1156
 7001SOL     OW28242   1.216   7.684   4.319  0.1469 -0.6477  0.0157
 7001SOL    HW128243   1.285   7.749   4.324  0.8738 -1.3453 -0.6388
 7001SOL    HW228244   1.160   7.702   4.394  1.9115 -1.0383  1.4893
 7002SOL     OW28245  11.714   9.362   7.807  0.1568 -0.1694 -0.6348
 7002SOL    HW128246  11.746   9.444   7.767  2.7207 -0.6054  0.2992
 7002SOL    HW228247  11.712   9.381   7.901  0.1762 -0.9944 -0.4665
 7003SOL     OW28248   3.773   0.925   4.684  0.1315 -0.0897 -0.5629
 7003SOL    HW128249   3.710   0.874   4.735 -2.0685  0.3963 -2.6343
 7003SOL    HW228250   3.798   0.996   4.743 -1.2076 -0.3223  0.3548
 7004SOL     OW28251   8.192   9.578  10.315  0.4418  0.0110  0.1802
 7004SOL    HW128252   8.185   9.500  10.260  0.5961 -0.0532  0.2517
 7004SOL    HW228253   8.272   9.622  10.284 -0.9037  1.4133 -1.5136
 7005SOL     OW28254  10.587   6.227   0.635 -0.0655  0.0782 -0.2887
 7005SOL    HW128255  10.588   6.198   0.544 -0.3178  3.0882 -1.3549
 7005SOL    HW228256  10.679   6.224   0.661  0.1103 -0.0608 -0.9028
 7006SOL     OW28257   7.732   8.398   2.527 -0.3694  0.0110 -0.7878
 7006SOL    HW128258   7.712   8.451   2.605  1.8966 -0.1328 -0.0344
 7006SOL    HW228259   7.792   8.452   2.476 -0.6944 -0.5020 -1.7378
 7007SOL     OW28260  10.726   5.892  12.268  0.1119 -0.2514 -0.0323
 7007SOL    HW128261  10.796   5.927  12.323  0.7181 -0.3086 -0.7481
 7007SOL    HW228262  10.651   5.950  12.285  0.6453  0.4532 -0.0365
 7008SOL     OW28263   0.711   3.509   6.560 -0.5855  0.5778  0.2662
 7008SOL    HW128264   0.800   3.536   6.584 -0.2495  0.0843 -0.3585
 7008SOL    HW228265   0.724   3.426   6.512 -1.3199  0.8377 -0.4050
 7009SOL     OW28266   6.123   8.068  10.384  0.2416 -0.6323  0.5622
 7009SOL    HW128267   6.113   7.973  10.384  0.7583 -0.7049  2.0003
 7009SOL    HW228268   6.055   8.099  10.323  0.6107 -1.9525 -0.5735
 7010SOL     OW28269   1.764   0.671  11.841  0.6030  0.4448  0.1862
 7010SOL    HW128270   1.857   0.647  11.836  0.4755  0.1216 -0.8744
 7010SOL    HW228271   1.757   0.750  11.788  0.5554  1.4426  1.6129
 7011SOL     OW28272   0.288   3.427  10.962 -0.0393  0.2902 -0.1586
 7011SOL    HW128273   0.227   3.494  10.993 -0.6292 -0.8858  1.3457
 7011SOL    HW228274   0.250   3.395  10.881 -0.9032  0.2836  0.2345
 7012SOL     OW28275   6.471   1.373   9.644  0.2567  0.2176 -0.0246
 7012SOL    HW128276   6.518   1.366   9.727  1.5466  1.5219 -0.6087
 7012SOL    HW228277   6.409   1.300   9.646  2.1238 -1.4221  0.8873
 7013SOL     OW28278  12.019   1.063   9.912 -0.5540  0.1599  0.2990
 7013SOL    HW128279  11.925   1.073   9.895 -0.5988 -0.4912  0.1604
 7013SOL    HW228280  12.025   0.988   9.971  0.0152 -1.0177 -1.1974
 7014SOL     OW28281   0.127  10.698   7.933  0.4191 -1.0158  0.2274
 7014SOL    HW128282   0.137  10.659   8.020 -0.1593 -2.7035 -0.4347
 7014SOL    HW228283   0.056  10.762   7.943  0.7672 -0.7422  1.1125
 7015SOL     OW28284   4.596  10.403   6.130 -0.0515  0.5438 -0.4236
 7015SOL    HW128285   4.676  10.443   6.164 -0.0844  0.4262 -0.2046
 7015SOL    HW228286   4.614  10.388   6.037  0.4082 -0.0416 -0.2503
 7016SOL     OW28287   0.876   1.003   0.998  0.5733  0.5148  0.1035
 7016SOL    HW128288   0.865   0.944   1.072  2.3632 -0.7791 -0.5927
 7016SOL    HW228289   0.788   1.011   0.961 -0.5078  1.8259  2.7508
 7017SOL     OW28290   4.445   4.820   9.883 -0.0163  0.4320  0.2220
 7017SOL    HW128291   4.485   4.883   9.822 -0.3353  1.1325  0.7146
 7017SOL    HW228292   4.363   4.862   9.910 -0.5198 -0.4679  0.1137
 7018SOL     OW28293   8.031  11.199   5.878  0.4884  0.3576  0.2963
 7018SOL    HW128294   8.008  11.141   5.950 -1.2689  0.7228  0.0919
 7018SOL    HW228295   8.126  11.208   5.882  0.6045 -1.1419  1.3747
 7019SOL     OW28296   7.908   8.314   0.968 -0.0354 -0.2311 -0.2577
 7019SOL    HW128297   7.885   8.406   0.983  0.7725 -0.1227  0.3639
 7019SOL    HW228298   7.824   8.268   0.966 -0.3708  0.3136  0.9072
 7020SOL     OW28299  10.825   0.258   6.563 -0.9941  0.1824  0.0997
 7020SOL    HW128300  10.857   0.319   6.629  0.2923 -1.2812  0.8996
 7020SOL    HW228301  10.812   0.176   6.611  0.0819 -0.9524 -1.4629
 7021SOL     OW28302   3.861   5.330   4.391 -0.1475  0.6610 -0.2893
 7021SOL    HW128303   3.851   5.399   4.325  1.7145  1.0268 -0.2458
 7021SOL    HW228304   3.921   5.367   4.456  1.2143 -1.0995 -0.4717
 7022SOL     OW28305   3.757   8.009   4.760 -0.6331 -0.2384  0.4470
 7022SOL    HW128306   3.695   8.032   4.691  0.4217  0.1436 -0.3943
 7022SOL    HW228307   3.811   8.087   4.772  1.5833 -1.4682 -0.9113
 7023SOL     OW28308   4.212   1.370  12.353 -0.2533 -0.0033  0.0421
 7023SOL    HW128309   4.274   1.421  12.405 -2.1197  0.1027  2.2747
 7023SOL    HW228310   4.139   1.352  12.412 -3.1162  1.1727 -2.8236
 7024SOL     OW28311   7.160  11.957   4.209 -0.0641 -0.5734  0.3980
 7024SOL    HW128312   7.115  11.918   4.284  0.5187 -1.5488  0.2492
 7024SOL    HW228313   7.146  12.052   4.220 -2.2342 -0.8350  0.2886
 7025SOL     OW28314   5.255   4.375   4.993 -0.0381  0.8263 -0.0060
 7025SOL    HW128315   5.176   4.328   5.020  0.6100 -0.3000 -0.0261
 7025SOL    HW228316   5.280   4.335   4.909  0.4926  1.2359 -0.0483
 7026SOL     OW28317   1.054   6.488   3.333 -0.0850  0.0165 -0.3406
 7026SOL    HW128318   1.105   6.421   3.379  1.0322  0.9762 -0.1434
 7026SOL    HW228319   1.009   6.439   3.263 -0.1482 -1.1039  0.4515
 7027SOL     OW28320   3.177   4.193   3.014 -0.1826  0.8261  0.4026
 7027SOL    HW128321   3.108   4.137   2.978 -0.6491  0.9302  1.1142
 7027SOL    HW228322   3.213   4.238   2.937 -1.8887  1.8584  0.1450
 7028SOL     OW28323   0.920   9.732   9.392 -0.0337  0.1468 -0.1206
 7028SOL    HW128324   1.010   9.764   9.396  0.1558 -0.3498 -0.2999
 7028SOL    HW228325   0.892   9.724   9.483 -0.2916  1.3697 -0.0749
 7029SOL     OW28326   3.864  10.959   3.328  0.0990  0.5395  0.1831
 7029SOL    HW128327   3.797  10.956   3.260  0.4373 -0.6855 -0.1319
 7029SOL    HW228328   3.921  10.884   3.308  2.2657  2.1904 -0.2846
 7030SOL     OW28329   9.876   9.178  11.228  0.1945  0.0233  0.4788
 7030SOL    HW128330   9.795   9.229  11.225 -0.2752 -0.7415 -0.1289
 7030SOL    HW228331   9.922   9.211  11.306  0.5126  2.2400 -0.5780
 7031SOL     OW28332   7.511  12.158   9.986 -0.2044  0.0330 -0.2525
 7031SOL    HW128333   7.510  12.218  10.060  1.1989  0.2679 -0.3965
 7031SOL    HW228334   7.598  12.169   9.947 -0.1485 -1.5882 -0.6857
 7032SOL     OW28335   1.586   7.720   9.386 -0.4819  0.3467  0.2744
 7032SOL    HW128336   1.522   7.733   9.316 -0.0812 -1.1283 -0.4134
 7032SOL    HW228337   1.618   7.808   9.405 -1.0111  0.8531 -1.0053
 7033SOL     OW28338   3.274  11.382   3.409 -0.1989  0.1268  0.2085
 7033SOL    HW128339   3.300  11.417   3.324 -0.8146 -1.1183 -0.5249
 7033SOL    HW228340   3.208  11.443   3.441  1.6247  1.8559  0.8768
 7034SOL     OW28341  11.781   6.733  11.735 -0.1061  0.4081  0.1700
 7034SOL    HW128342  11.868   6.752  11.770  0.8284  1.7141 -2.5646
 7034SOL    HW228343  11.745   6.819  11.712 -2.1782 -0.0943  1.2142
 7035SOL     OW28344  11.680   6.387   5.694  0.5072  0.0577 -0.3591
 7035SOL    HW128345  11.712   6.364   5.781 -0.2884  0.3953  0.0332
 7035SOL    HW228346  11.594   6.347   5.688 -0.1056  1.3043 -0.3757
 7036SOL     OW28347   6.085   3.579   0.912  0.0864  0.1930  0.4171
 7036SOL    HW128348   6.079   3.673   0.924  0.3647  0.4828 -1.3889
 7036SOL    HW228349   5.995   3.550   0.903  0.0618  0.6832 -1.3611
 7037SOL     OW28350  11.826   1.530  11.691  0.5544  0.3799 -0.0738
 7037SOL    HW128351  11.865   1.533  11.778  0.4836 -0.6262  0.0014
 7037SOL    HW228352  11.745   1.580  11.699  0.2893 -0.1466  0.5748
 7038SOL     OW28353   6.827   3.572   5.240  0.4263 -0.0961  0.1000
 7038SOL    HW128354   6.856   3.612   5.158 -0.5786  0.0186 -0.2149
 7038SOL    HW228355   6.880   3.492   5.248  0.1972 -0.3636 -0.9140
 7039SOL     OW28356   5.449   1.065   2.931 -0.3444  0.4392  0.0602
 7039SOL    HW128357   5.541   1.043   2.915 -0.3841  1.1155 -1.1774
 7039SOL    HW228358   5.400   0.994   2.890 -0.3895 -0.6823  1.9436
 7040SOL     OW28359   5.410   8.501  10.656 -0.6879  0.4237  0.0326
 7040SOL    HW128360   5.414   8.407  10.676 -1.9546 -0.0021 -1.4823
 7040SOL    HW228361   5.361   8.539  10.729 -4.1538 -0.8971 -1.3585
 7041SOL     OW28362   0.289   6.729   4.130  0.0697  0.1620 -0.2463
 7041SOL    HW128363   0.290   6.805   4.071 -0.1538 -0.4878 -1.1107
 7041SOL    HW228364   0.332   6.660   4.080  3.3047  0.5360  1.7084
 7042SOL     OW28365   1.284  11.390   8.865  0.3256 -0.0162 -0.0038
 7042SOL    HW128366   1.210  11.417   8.811  0.1359 -0.7367 -0.1252
 7042SOL    HW228367   1.337  11.336   8.807 -0.2969 -1.4686  0.7221
 7043SOL     OW28368  10.445   3.259   6.669 -0.2926 -0.2571  0.1634
 7043SOL    HW128369  10.490   3.209   6.602  0.7115  1.0015 -0.1383
 7043SOL    HW228370  10.512   3.318   6.705 -1.2595  0.4030  0.9670
 7044SOL     OW28371   1.460   3.719   9.503  0.2266 -0.2686  0.2133
 7044SOL    HW128372   1.535   3.701   9.559  0.9858  1.4126 -0.2238
 7044SOL    HW228373   1.397   3.763   9.560  0.1083 -0.5136  0.2713
 7045SOL     OW28374   6.808   3.041  10.041 -0.6302  0.6243  0.1996
 7045SOL    HW128375   6.730   3.080  10.082 -0.9436  0.5102 -0.2764
 7045SOL    HW228376   6.881   3.078  10.089 -0.9821  0.7345  0.6581
 7046SOL     OW28377   7.084   9.765   3.509 -0.1331 -0.3552 -0.1114
 7046SOL    HW128378   7.135   9.687   3.533  1.2812  0.3252 -0.7553
 7046SOL    HW228379   7.034   9.786   3.587  1.8329 -0.1333  1.1678
 7047SOL     OW28380   8.170   8.640   6.918  0.0767  0.7757 -0.2950
 7047SOL    HW128381   8.207   8.589   6.990 -0.3991 -0.7054 -1.0565
 7047SOL    HW228382   8.230   8.625   6.845 -0.0323  1.3774 -0.5103
 7048SOL     OW28383  11.087   1.800   2.535  0.1377  0.2845 -0.4057
 7048SOL    HW128384  11.158   1.834   2.481  1.8919 -2.2241  0.1146
 7048SOL    HW228385  11.035   1.745   2.476 -0.2112  0.5409 -0.3436
 7049SOL     OW28386   1.039   5.057   2.091 -0.1669 -0.3069  0.1219
 7049SOL    HW128387   1.025   5.132   2.149  1.6574 -0.2126  0.4841
 7049SOL    HW228388   1.001   4.983   2.139 -0.1024  0.0356  0.7136
 7050SOL     OW28389   0.688   2.801   9.121  0.1720 -0.3908  0.1292
 7050SOL    HW128390   0.635   2.725   9.146 -0.7949  0.0844 -0.4189
 7050SOL    HW228391   0.734   2.826   9.202 -1.6163  0.1129  1.0530
 7051SOL     OW28392   7.506   1.776   4.864  0.2187  0.6525 -0.5342
 7051SOL    HW128393   7.415   1.750   4.873  1.0226 -2.2867  0.3295
 7051SOL    HW228394   7.540   1.723   4.792  2.3137 -2.2262  2.2349
 7052SOL     OW28395   4.340  11.780   6.515  0.0897 -0.5246 -0.1597
 7052SOL    HW128396   4.275  11.792   6.583  0.1642 -1.8339  0.1617
 7052SOL    HW228397   4.424  11.792   6.560  0.1110  0.8606 -0.5120
 7053SOL     OW28398   8.938   8.056   8.908  0.1399  0.4154 -0.0915
 7053SOL    HW128399   8.876   8.126   8.931  0.1541  0.0440  1.1344
 7053SOL    HW228400   8.975   8.028   8.992  1.4136  0.1039 -0.7328
 7054SOL     OW28401   8.299  10.973   2.223  0.2212 -0.5754  0.4525
 7054SOL    HW128402   8.394  10.963   2.224  0.3040  0.1137 -0.2205
 7054SOL    HW228403   8.278  11.004   2.135 -0.3369  1.9805  1.3843
 7055SOL     OW28404   0.078   4.457   5.552  0.6668 -0.0891  0.1135
 7055SOL    HW128405   0.073   4.528   5.488 -0.8083 -0.2474  0.0366
 7055SOL    HW228406   0.100   4.379   5.500  0.5499 -0.0152 -0.0464
 7056SOL     OW28407   8.317   1.832   6.156 -0.0780  0.1579  0.7429
 7056SOL    HW128408   8.323   1.920   6.120 -1.2680  0.6417  1.6643
 7056SOL    HW228409   8.225   1.820   6.177  0.3285 -0.6049  2.3059
 7057SOL     OW28410   5.502   3.387   1.956  0.3938 -0.3365 -0.2260
 7057SOL    HW128411   5.587   3.358   1.924  1.2094 -0.5454  1.9872
 7057SOL    HW228412   5.490   3.341   2.039 -2.4597 -1.2610 -1.0046
 7058SOL     OW28413   1.963   3.370  11.421 -0.1946  0.0236 -0.1765
 7058SOL    HW128414   1.963   3.311  11.346  0.3987 -1.3716  0.8753
 7058SOL    HW228415   1.881   3.352  11.466  0.4467 -0.7824  0.7112
 7059SOL     OW28416  11.074   3.551   7.892 -0.7816 -0.1394 -0.3150
 7059SOL    HW128417  11.122   3.623   7.933 -1.0655 -0.9633  1.5664
 7059SOL    HW228418  11.137   3.512   7.830  0.4358 -0.1501  0.8695
 7060SOL     OW28419  12.283   1.318  11.298  0.6771  0.1572  0.0080
 7060SOL    HW128420  12.339   1.286  11.369  0.0038 -0.2946  0.3500
 7060SOL    HW228421  12.255   1.405  11.327  1.0351  0.2993 -0.0690
 7061SOL     OW28422   0.019   2.531   4.095  0.1610 -0.3783 -0.7106
 7061SOL    HW128423  -0.036   2.608   4.086  0.6441  0.1618  0.7361
 7061SOL    HW228424  -0.042   2.460   4.116 -0.1229 -0.0652 -0.4739
 7062SOL     OW28425   7.301   3.199  10.562  0.7850 -0.2010 -0.4434
 7062SOL    HW128426   7.333   3.203  10.472  0.9026 -2.3364 -0.5451
 7062SOL    HW228427   7.380   3.193  10.616  0.6857 -0.8741 -0.3611
 7063SOL     OW28428   5.407   4.126  12.388 -0.2362 -0.6496 -0.7165
 7063SOL    HW128429   5.311   4.122  12.395 -0.3535 -2.4556 -2.4569
 7063SOL    HW228430   5.438   4.051  12.438  0.0482 -1.6851 -2.3469
 7064SOL     OW28431   3.213   7.779  10.087 -0.2664  0.0572 -0.2865
 7064SOL    HW128432   3.172   7.801  10.004 -0.5244 -0.0792 -0.1974
 7064SOL    HW228433   3.205   7.683  10.093  0.0420  0.0321 -0.2566
 7065SOL     OW28434  10.650   4.983  11.827  0.2662  0.3756 -0.0614
 7065SOL    HW128435  10.584   4.919  11.853  0.8198 -0.0773  0.2417
 7065SOL    HW228436  10.733   4.941  11.846  0.6793  0.5142 -1.4471
 7066SOL     OW28437   9.842  10.634  11.695 -0.0619  0.5411 -0.2469
 7066SOL    HW128438   9.848  10.719  11.737  2.9312  1.4354 -2.1398
 7066SOL    HW228439   9.933  10.608  11.680 -0.8530 -2.8882 -0.0323
 7067SOL     OW28440  12.204  12.294   6.935  0.3480  0.1936 -0.4465
 7067SOL    HW128441  12.157  12.371   6.966  2.1025  0.9553  0.4905
 7067SOL    HW228442  12.160  12.270   6.854 -2.2116  0.2598  0.8098
 7068SOL     OW28443  12.097   9.062   3.083 -0.1312  0.4364  0.6497
 7068SOL    HW128444  12.052   9.141   3.051 -1.2579 -0.1016  0.8563
 7068SOL    HW228445  12.185   9.093   3.106 -0.2065  1.4087 -0.2754
 7069SOL     OW28446   9.917   8.605   0.824  0.2055  0.0517 -0.3739
 7069SOL    HW128447   9.948   8.514   0.824  0.8023  0.1772  2.0207
 7069SOL    HW228448   9.996   8.657   0.807  0.8471  0.2285  2.5703
 7070SOL     OW28449  10.497   2.003   4.200  0.1294  0.0700  0.0393
 7070SOL    HW128450  10.513   1.937   4.267  1.0448 -0.3524 -0.5717
 7070SOL    HW228451  10.549   2.078   4.227 -1.0130  0.6068  0.8017
 7071SOL     OW28452   3.401   8.960   4.877  0.3990 -0.1253  0.2651
 7071SOL    HW128453   3.496   8.955   4.872  0.4124 -3.6220  1.4843
 7071SOL    HW228454   3.370   8.918   4.797 -0.2575  2.1329 -0.7687
 7072SOL     OW28455  11.807   5.626  10.218  0.1350  0.7366 -0.1783
 7072SOL    HW128456  11.898   5.650  10.236 -0.0548  1.4344 -0.1109
 7072SOL    HW228457  11.808   5.531  10.208  1.0117  0.8234 -1.0297
 7073SOL     OW28458   3.595   2.582   6.939  0.3670 -0.4452 -0.3091
 7073SOL    HW128459   3.634   2.628   6.864  0.9340 -0.4327 -0.0044
 7073SOL    HW228460   3.520   2.637   6.964  1.5056  0.7754  0.5698
 7074SOL     OW28461  11.636   4.614   7.819 -0.7582  0.7064  0.5334
 7074SOL    HW128462  11.628   4.519   7.823 -0.0355  0.6248  0.2584
 7074SOL    HW228463  11.567   4.647   7.877 -1.9705  0.0680 -0.5023
 7075SOL     OW28464   6.878  12.340   6.331 -0.3549 -0.1428  0.1072
 7075SOL    HW128465   6.942  12.364   6.265 -1.4025 -0.6722 -1.1541
 7075SOL    HW228466   6.929  12.309   6.405  0.8369 -0.2710 -0.7516
 7076SOL     OW28467   5.551  12.218  10.990 -0.0050  0.3069 -0.0210
 7076SOL    HW128468   5.535  12.300  11.037  1.1208  0.7359 -0.3282
 7076SOL    HW228469   5.582  12.157  11.056 -1.3782 -0.0600  0.3062
 7077SOL     OW28470   4.999  12.185   4.454  0.0389 -0.0069  0.1605
 7077SOL    HW128471   4.959  12.100   4.470  1.7525 -1.0756 -0.9201
 7077SOL    HW228472   5.005  12.226   4.540 -1.1601 -0.8024  0.6400
 7078SOL     OW28473   7.864   7.997  10.707  0.0508 -0.2498  0.1295
 7078SOL    HW128474   7.957   8.019  10.715 -0.1106 -0.1691  2.3289
 7078SOL    HW228475   7.822   8.047  10.776 -1.4765 -1.2224 -0.0587
 7079SOL     OW28476   4.530  11.261   7.294 -0.0618  0.2053  0.2778
 7079SOL    HW128477   4.597  11.262   7.363  0.8721  2.1056 -0.5867
 7079SOL    HW228478   4.572  11.304   7.220 -1.5706 -0.4320 -0.9854
 7080SOL     OW28479   4.957   5.651   2.337  0.1947  0.3580 -0.7002
 7080SOL    HW128480   4.999   5.702   2.406 -1.1400  0.4401  0.0799
 7080SOL    HW228481   5.016   5.577   2.323  1.0891  0.9894 -0.3496
 7081SOL     OW28482   0.437   3.474   9.446  0.7033 -1.1332  0.4449
 7081SOL    HW128483   0.470   3.562   9.426  0.7892 -1.3120 -0.2193
 7081SOL    HW228484   0.390   3.447   9.367  0.8717 -1.7755  0.5544
 7082SOL     OW28485   9.426  12.567   7.453 -0.1866 -0.2531  0.1590
 7082SOL    HW128486   9.338  12.529   7.456 -0.6429  0.8316  1.0650
 7082SOL    HW228487   9.414  12.655   7.417  0.9094 -0.9824 -2.2545
 7083SOL     OW28488   1.400   5.251   9.463 -0.5150 -0.5196 -0.4728
 7083SOL    HW128489   1.479   5.245   9.516 -0.3835  2.4466 -0.1505
 7083SOL    HW228490   1.330   5.218   9.519  0.2611 -1.8244 -0.2443
 7084SOL     OW28491   5.507   0.504   0.443 -0.4123 -0.1277  0.2928
 7084SOL    HW128492   5.568   0.576   0.429 -1.5896  0.4647 -2.3229
 7084SOL    HW228493   5.563   0.430   0.468  1.2369  0.7251 -0.6970
 7085SOL     OW28494  12.453  11.398  11.183 -0.1674  0.7658  0.0717
 7085SOL    HW128495  12.475  11.406  11.276  1.1584  0.2135 -0.1740
 7085SOL    HW228496  12.535  11.374  11.141 -1.4195 -2.5859 -0.7680
 7086SOL     OW28497   9.286   2.072   8.756  0.4120 -0.7045  0.4167
 7086SOL    HW128498   9.307   1.979   8.767  2.6601 -0.4502 -1.0758
 7086SOL    HW228499   9.341   2.117   8.820 -0.1187 -0.3220  0.6201
 7087SOL     OW28500   5.387   5.974   0.989  0.2050  0.0115  0.3241
 7087SOL    HW128501   5.304   5.958   0.944  1.0689 -1.1408 -0.9626
 7087SOL    HW228502   5.408   5.891   1.031  1.3418 -0.1389 -0.5001
 7088SOL     OW28503   8.383   0.616   1.386  0.2188 -0.0716  0.3428
 7088SOL    HW128504   8.435   0.589   1.311  0.1778 -0.2027  0.3613
 7088SOL    HW228505   8.436   0.591   1.462  0.4569  0.4475  0.3556
 7089SOL     OW28506   2.574   5.600  11.794 -0.6157  0.4348  0.0284
 7089SOL    HW128507   2.658   5.561  11.769 -0.6804 -0.5400  1.2113
 7089SOL    HW228508   2.523   5.600  11.714  0.5850  1.2672 -0.7710
 7090SOL     OW28509   4.522  11.001   6.262  0.3993  0.0214 -0.0489
 7090SOL    HW128510   4.586  10.982   6.331  0.2815 -0.3788 -0.0506
 7090SOL    HW228511   4.558  11.078   6.218  1.4813 -0.8691 -0.7797
 7091SOL     OW28512   9.847   1.966   0.205 -0.0247  0.1905 -0.3809
 7091SOL    HW128513   9.817   1.958   0.296 -0.7017 -1.6442 -0.7301
 7091SOL    HW228514   9.917   1.903   0.197 -0.3271 -0.0437 -1.2748
 7092SOL     OW28515   4.671   4.559   7.689 -0.2416 -0.2463  0.0594
 7092SOL    HW128516   4.757   4.601   7.684 -0.9910  1.2882 -0.4834
 7092SOL    HW228517   4.651   4.533   7.599 -0.4865 -0.3257  0.1352
 7093SOL     OW28518   6.713   5.439   0.242 -0.1071  0.2130  0.4718
 7093SOL    HW128519   6.797   5.458   0.282 -0.1115 -0.6824  0.9363
 7093SOL    HW228520   6.674   5.524   0.225  1.7047  0.7126 -1.5589
 7094SOL     OW28521   4.200   9.103  11.015 -0.0617  0.1473 -0.6606
 7094SOL    HW128522   4.294   9.096  11.033 -0.0362 -0.7656 -1.0629
 7094SOL    HW228523   4.182   9.028  10.959 -1.1591 -0.0336 -0.0737
 7095SOL     OW28524  10.531  11.167   5.751  0.3294  0.2500  0.7341
 7095SOL    HW128525  10.453  11.196   5.702  1.6289  0.6426 -1.2017
 7095SOL    HW228526  10.587  11.244   5.753  1.5476 -0.6052  0.2731
 7096SOL     OW28527  11.681   4.984   8.521 -0.1481  0.1759 -0.2654
 7096SOL    HW128528  11.682   5.011   8.429  0.7842  0.6283 -0.1323
 7096SOL    HW228529  11.704   4.891   8.520  0.3225  0.2920 -0.4616
 7097SOL     OW28530   1.497   0.455  10.295 -0.5951  0.4625  0.5175
 7097SOL    HW128531   1.427   0.433  10.235 -0.6581  0.0489  0.7364
 7097SOL    HW228532   1.530   0.370  10.326  0.2780  0.6373  0.0977
 7098SOL     OW28533  10.989   4.066  11.872 -0.2530 -0.1490 -0.3572
 7098SOL    HW128534  10.967   4.036  11.784  1.8634  3.0929 -2.1666
 7098SOL    HW228535  10.915   4.121  11.898 -0.1346  0.2425 -0.8398
 7099SOL     OW28536   8.328  11.503   9.281  0.2520  0.1991 -0.5230
 7099SOL    HW128537   8.401  11.500   9.218 -0.9929  0.2821 -2.0257
 7099SOL    HW228538   8.298  11.593   9.279  0.1633  0.1926  0.1891
 7100SOL     OW28539   3.395   5.964   3.741 -0.3018  0.1004 -0.3058
 7100SOL    HW128540   3.367   5.877   3.771 -1.6827  0.8710  0.7651
 7100SOL    HW228541   3.318   6.020   3.756  0.9155  1.7369  0.0899
 7101SOL     OW28542  12.292   4.978  11.799 -0.0216 -0.4026  0.1871
 7101SOL    HW128543  12.311   4.941  11.885  0.7957  1.6767  0.9833
 7101SOL    HW228544  12.219   5.038  11.815 -2.2049 -2.4725 -1.3044
 7102SOL     OW28545   8.736   5.738  12.683 -0.3392 -0.2034 -0.7853
 7102SOL    HW128546   8.801   5.668  12.688 -0.8731 -0.6698 -0.0652
 7102SOL    HW228547   8.713   5.744  12.591 -1.0680 -1.7286 -0.7303
 7103SOL     OW28548   7.673   8.784  11.465  0.0717 -0.0907  0.0047
 7103SOL    HW128549   7.699   8.692  11.476  0.0521 -0.3834 -1.9692
 7103SOL    HW228550   7.585   8.780  11.427 -0.2330  0.7664  0.5969
 7104SOL     OW28551   0.883  10.719  11.211 -0.2028  0.1062  0.1383
 7104SOL    HW128552   0.931  10.638  11.195  0.1904  0.6395 -1.5124
 7104SOL    HW228553   0.943  10.771  11.265  1.6994  1.2377 -2.8487
 7105SOL     OW28554   6.904   6.029  11.224 -0.3927  0.5897  0.4800
 7105SOL    HW128555   6.962   5.988  11.287 -0.0480 -0.6404 -0.5903
 7105SOL    HW228556   6.842   6.079  11.277  0.5527  0.4873  1.7167
 7106SOL     OW28557   7.268  10.009   1.757  0.4646 -0.0619  0.1629
 7106SOL    HW128558   7.349   9.959   1.770  0.0240 -0.6032  0.9213
 7106SOL    HW228559   7.274  10.082   1.818  2.2014  2.3096 -2.5727
 7107SOL     OW28560  10.192   5.409   8.887 -0.2159  0.3434 -0.3257
 7107SOL    HW128561  10.134   5.342   8.852 -0.8938  0.7758 -0.0529
 7107SOL    HW228562  10.167   5.489   8.841  0.8603  0.3463 -0.9470
 7108SOL     OW28563   4.962   0.073   1.464  0.1826 -0.1760 -0.7500
 7108SOL    HW128564   5.019   0.038   1.396 -0.5160 -2.4473 -0.2304
 7108SOL    HW228565   4.935   0.159   1.431  2.1183  0.0021 -1.9924
 7109SOL     OW28566   1.342  12.354   7.825 -0.4172 -0.1526 -0.1598
 7109SOL    HW128567   1.307  12.265   7.817  0.5156 -0.6755  1.2156
 7109SOL    HW228568   1.317  12.382   7.913  1.7182 -0.2054  0.5389
 7110SOL     OW28569   6.185   7.461  10.223 -0.2916 -0.0022 -0.1725
 7110SOL    HW128570   6.219   7.498  10.142  0.8165 -0.3378  0.1242
 7110SOL    HW228571   6.244   7.388  10.243  0.4415  1.0267  1.7501
 7111SOL     OW28572  11.422   6.604   1.295 -0.2757 -0.5185  0.2888
 7111SOL    HW128573  11.410   6.610   1.201  0.7619 -0.0834  0.1663
 7111SOL    HW228574  11.355   6.662   1.332  0.3083  0.5427 -0.2655
 7112SOL     OW28575   4.282   2.817   5.811 -0.2746  0.2253 -0.1987
 7112SOL    HW128576   4.273   2.850   5.901 -1.3720  1.8523 -0.8447
 7112SOL    HW228577   4.238   2.883   5.758 -1.0054 -1.4811 -1.7983
 7113SOL     OW28578   5.361  10.835   7.951 -0.2025 -0.2691  0.5459
 7113SOL    HW128579   5.406  10.771   8.006  0.5762 -1.7840 -1.7169
 7113SOL    HW228580   5.269  10.828   7.976  0.1728 -0.6383  1.8886
 7114SOL     OW28581  10.742  11.985   5.443 -0.3050  0.0795  0.0806
 7114SOL    HW128582  10.668  12.045   5.449  0.2537  1.0297 -1.7184
 7114SOL    HW228583  10.771  11.991   5.352  1.6951 -0.5914  0.6075
 7115SOL     OW28584  11.787   6.642  12.015 -0.7440 -0.0854  0.3252
 7115SOL    HW128585  11.875   6.617  12.041 -0.6117  0.9779  0.9556
 7115SOL    HW228586  11.787   6.637  11.919  0.7150  2.1088  0.1479
 7116SOL     OW28587   7.951   6.653   6.017 -0.5288 -0.3007 -0.4562
 7116SOL    HW128588   8.032   6.670   6.065 -1.6296  0.2016  1.2889
 7116SOL    HW228589   7.977   6.591   5.948  1.4046  0.1867 -0.2185
 7117SOL     OW28590   9.363   2.364  10.372 -0.5344 -0.2181 -0.0753
 7117SOL    HW128591   9.396   2.348  10.460 -0.4533  1.0558  0.1349
 7117SOL    HW228592   9.413   2.304  10.316  0.0129 -0.4241  0.6294
 7118SOL     OW28593   7.048   6.539  10.090 -0.3196 -0.2776  0.0690
 7118SOL    HW128594   6.985   6.499  10.031 -1.1808  0.6664  0.3312
 7118SOL    HW228595   7.039   6.490  10.172 -1.1956  0.2695  0.3120
 7119SOL     OW28596   8.092   2.737   8.330  0.1334 -0.1152 -0.0146
 7119SOL    HW128597   8.095   2.831   8.313 -0.9872 -0.2073 -0.8709
 7119SOL    HW228598   8.085   2.697   8.243  0.3862 -0.9872  0.3480
 7120SOL     OW28599   5.232   4.794   4.714  0.9819  0.1182  0.7505
 7120SOL    HW128600   5.212   4.776   4.623  1.3852  1.2717  0.4161
 7120SOL    HW228601   5.265   4.710   4.748  0.8817 -0.3089 -0.1714
 7121SOL     OW28602  12.431   9.547   1.383 -0.1109  0.0576 -0.2233
 7121SOL    HW128603  12.437   9.642   1.394  0.3072  0.0371 -0.2566
 7121SOL    HW228604  12.469   9.511   1.463 -1.1087 -0.0847  0.2026
 7122SOL     OW28605   9.449   4.588   6.136  0.3239 -0.3792 -0.3889
 7122SOL    HW128606   9.502   4.562   6.212  0.2605 -0.9857 -0.5408
 7122SOL    HW228607   9.431   4.681   6.149 -1.7209 -0.9565  1.6012
 7123SOL     OW28608   8.140  10.091  11.551  0.1672  0.2054 -0.9115
 7123SOL    HW128609   8.112  10.179  11.575 -0.4367  0.1688 -1.4614
 7123SOL    HW228610   8.109  10.079  11.461 -0.2805 -0.7946 -0.6346
 7124SOL     OW28611   6.905   0.490   4.498  0.7250  0.1876 -0.1475
 7124SOL    HW128612   6.826   0.448   4.532  2.2053 -1.9889  0.8272
 7124SOL    HW228613   6.901   0.475   4.404 -1.0235  2.0171 -0.4412
 7125SOL     OW28614   4.425   7.499  11.680  0.3020 -0.2821  0.0843
 7125SOL    HW128615   4.454   7.483  11.590 -1.2128 -1.3617 -0.2435
 7125SOL    HW228616   4.331   7.484  11.678 -0.0185  1.2207  1.5301
 7126SOL     OW28617   1.053   6.686   5.055 -0.0598  0.4949 -0.4282
 7126SOL    HW128618   1.109   6.664   5.130 -2.9666 -1.4313  1.3740
 7126SOL    HW228619   1.085   6.771   5.026  2.2458  0.5881  1.9457
 7127SOL     OW28620   7.079  12.396   2.279  0.3868 -0.2590 -0.0111
 7127SOL    HW128621   7.025  12.466   2.245  1.2497  0.5430  0.2131
 7127SOL    HW228622   7.169  12.423   2.259  1.0148  0.5494  3.2634
 7128SOL     OW28623   2.248   0.049   6.321  0.0843 -0.3427 -0.2733
 7128SOL    HW128624   2.290  -0.023   6.368 -0.1495  0.9433  2.0921
 7128SOL    HW228625   2.292   0.127   6.352 -0.9653  0.6940 -1.2809
 7129SOL     OW28626   0.128   1.639  11.783 -0.1133  0.0133 -0.3956
 7129SOL    HW128627   0.171   1.659  11.700  0.9463  2.7741  0.7018
 7129SOL    HW228628   0.194   1.594  11.835 -0.3919 -0.6613 -0.6157
 7130SOL     OW28629   5.682   1.883   1.845 -0.5009 -0.3252 -0.5205
 7130SOL    HW128630   5.620   1.811   1.832  0.5097 -1.0415 -1.6048
 7130SOL    HW228631   5.768   1.842   1.834  0.1758  0.6559  0.8822
 7131SOL     OW28632   0.299   1.607   7.863  0.2489  0.1113  0.1901
 7131SOL    HW128633   0.363   1.573   7.800  0.4568 -0.7758  0.8551
 7131SOL    HW228634   0.214   1.585   7.825  0.3069  1.6103 -0.8693
 7132SOL     OW28635   7.447   4.226   2.845  0.4487  0.4395 -0.0239
 7132SOL    HW128636   7.477   4.275   2.769 -1.1779  1.2134 -0.2174
 7132SOL    HW228637   7.416   4.143   2.809  1.5986 -0.0574  0.0860
 7133SOL     OW28638   2.240   7.502  11.131  0.1831 -0.2822  0.3085
 7133SOL    HW128639   2.163   7.461  11.091 -0.3308  2.2566 -1.5947
 7133SOL    HW228640   2.204   7.567  11.191  0.5898  2.5127 -2.2266
 7134SOL     OW28641   7.115   2.496  12.075 -0.4130 -0.0903  0.6674
 7134SOL    HW128642   7.177   2.556  12.118  0.0454 -0.4825  0.5661
 7134SOL    HW228643   7.061   2.462  12.147  0.5901 -1.0273  1.0244
 7135SOL     OW28644   5.331   8.146   8.607  0.5701  0.0898 -0.2069
 7135SOL    HW128645   5.344   8.180   8.518  4.3372  0.1836  0.2333
 7135SOL    HW228646   5.316   8.052   8.594  0.1021  0.2523 -0.9489
 7136SOL     OW28647   7.255   5.972   2.534 -0.2553 -0.2033 -0.1184
 7136SOL    HW128648   7.195   5.930   2.596 -0.1253  0.4730  0.4789
 7136SOL    HW228649   7.323   6.011   2.589  1.1528 -1.5488 -0.8182
 7137SOL     OW28650   4.429   3.924  10.998 -0.2654  0.6855  0.1168
 7137SOL    HW128651   4.398   3.834  11.007  0.8058  0.3685  0.8544
 7137SOL    HW228652   4.483   3.923  10.918 -2.0569  1.2320 -1.1552
 7138SOL     OW28653  12.343   4.816  10.327  0.5125 -0.5049  0.1455
 7138SOL    HW128654  12.346   4.802  10.422  1.0752  0.7310  0.3289
 7138SOL    HW228655  12.254   4.848  10.311  0.0722 -1.7067  0.0875
 7139SOL     OW28656   3.874   8.541   7.258  0.3064 -0.3994  0.2588
 7139SOL    HW128657   3.944   8.485   7.226 -1.4429 -2.4924 -0.1083
 7139SOL    HW228658   3.819   8.557   7.181  0.2459  1.0831  0.5683
 7140SOL     OW28659   3.251  11.280   1.776 -0.6108  0.1073  0.1644
 7140SOL    HW128660   3.159  11.257   1.759 -1.2010  0.2022  2.8544
 7140SOL    HW228661   3.297  11.197   1.776 -0.9382 -0.0774  0.1211
 7141SOL     OW28662   2.124   2.235   3.017  0.0109 -0.5654  0.5761
 7141SOL    HW128663   2.218   2.226   2.998 -0.1258 -1.5596  0.2984
 7141SOL    HW228664   2.083   2.239   2.931  0.0140  3.2794  0.5797
 7142SOL     OW28665   3.382   0.977   7.490 -0.3184 -0.0831  0.0220
 7142SOL    HW128666   3.299   0.958   7.534 -0.1344  0.6339  0.6885
 7142SOL    HW228667   3.425   0.892   7.484 -1.7133 -0.7305 -1.6524
 7143SOL     OW28668  11.072   3.092   8.326 -0.7724  0.1646  0.0753
 7143SOL    HW128669  11.165   3.078   8.343 -0.0990  1.7348 -1.8686
 7143SOL    HW228670  11.038   3.004   8.307  0.4971 -0.3378 -0.0099
 7144SOL     OW28671   8.909   1.455   4.205  0.0269 -0.2403  0.4223
 7144SOL    HW128672   8.917   1.485   4.115 -1.0793  0.4599  0.5480
 7144SOL    HW228673   8.957   1.520   4.256 -2.5563  1.5558  0.7195
 7145SOL     OW28674  11.781   4.564   7.021  0.0663 -0.0356  0.2096
 7145SOL    HW128675  11.877   4.563   7.020  0.1314 -0.9045  2.2466
 7145SOL    HW228676  11.758   4.562   7.114 -1.9448  1.5964 -0.1896
 7146SOL     OW28677   7.562   0.350   2.433  0.0532 -0.5197 -0.1340
 7146SOL    HW128678   7.565   0.371   2.340  0.4314 -2.4205 -0.5987
 7146SOL    HW228679   7.648   0.374   2.466 -0.5494  1.4992  0.0846
 7147SOL     OW28680  12.617  11.876   1.160  0.2188  0.1881  0.2570
 7147SOL    HW128681  12.538  11.901   1.111 -0.2390  0.6926  1.2126
 7147SOL    HW228682  12.647  11.795   1.119 -1.5139 -0.6955  0.6589
 7148SOL     OW28683   7.065   9.472   2.230  0.3950 -0.3451 -0.3649
 7148SOL    HW128684   7.045   9.490   2.322  1.2750  0.9428 -0.4037
 7148SOL    HW228685   7.051   9.556   2.186  0.7792 -0.7499 -1.2769
 7149SOL     OW28686   8.543  11.714  12.633 -0.1446  0.0803 -0.0448
 7149SOL    HW128687   8.585  11.757  12.558  1.0555 -1.7036 -0.4552
 7149SOL    HW228688   8.458  11.685  12.600  0.4603 -0.8782 -0.8101
 7150SOL     OW28689  10.103   9.107   0.873 -0.4801 -0.1143  0.0274
 7150SOL    HW128690  10.114   9.102   0.968  0.7853  1.0613 -0.0234
 7150SOL    HW228691  10.181   9.153   0.843  0.2176 -2.3354 -1.8330
 7151SOL     OW28692  10.151   2.017   5.329  0.5294  0.7709 -0.3124
 7151SOL    HW128693  10.214   1.991   5.261  1.5734  2.2505  0.0384
 7151SOL    HW228694  10.206   2.045   5.402 -0.5166  2.3006 -0.0690
 7152SOL     OW28695   9.182  12.126   5.767  0.0310 -0.0301  0.2305
 7152SOL    HW128696   9.179  12.221   5.755  0.6780 -0.0532 -0.2096
 7152SOL    HW228697   9.102  12.105   5.814 -1.1279  0.4875 -1.4091
 7153SOL     OW28698   0.407   6.390   4.294 -0.7694  0.2788 -0.2206
 7153SOL    HW128699   0.356   6.445   4.354 -1.7635 -2.5525  1.7447
 7153SOL    HW228700   0.343   6.354   4.234 -0.7539 -1.2694  0.6307
 7154SOL     OW28701   8.105   6.407   2.434 -0.2048 -0.2305 -0.1431
 7154SOL    HW128702   8.129   6.375   2.347 -1.0331 -1.5629  0.0813
 7154SOL    HW228703   8.188   6.411   2.482  0.0288 -1.4527 -0.4042
 7155SOL     OW28704   2.389   0.075  11.387 -0.0728 -0.0411 -0.5336
 7155SOL    HW128705   2.475   0.086  11.346  0.0389 -2.0090 -0.9559
 7155SOL    HW228706   2.381   0.150  11.446  0.9372  1.3947 -2.1326
 7156SOL     OW28707  12.464   5.425   8.797 -0.8156 -0.2851  0.3445
 7156SOL    HW128708  12.523   5.379   8.857  2.2960  1.5714 -1.0550
 7156SOL    HW228709  12.405   5.474   8.855  0.9508  0.0863  1.9328
 7157SOL     OW28710   6.375  10.625   9.235  1.3940 -0.1496 -0.0584
 7157SOL    HW128711   6.359  10.706   9.284  0.0979 -0.7809  0.6039
 7157SOL    HW228712   6.311  10.563   9.270  0.3490 -0.6163 -2.5909
 7158SOL     OW28713   2.416   8.511   9.516 -0.6437  0.2515  0.0231
 7158SOL    HW128714   2.487   8.565   9.551  0.2816  0.0788 -1.4804
 7158SOL    HW228715   2.442   8.421   9.534 -1.1224  0.2271  0.6097
 7159SOL     OW28716   5.462   7.131  10.094 -0.5671 -0.4767 -0.7200
 7159SOL    HW128717   5.443   7.090  10.010  0.1351 -0.6731 -0.7868
 7159SOL    HW228718   5.506   7.062  10.145  0.1827  0.0434 -0.6562
 7160SOL     OW28719   6.655   4.256   7.622  0.4658 -0.2371  0.2402
 7160SOL    HW128720   6.619   4.264   7.710  0.3773 -0.4994  0.2301
 7160SOL    HW228721   6.741   4.295   7.627 -0.0603  0.9733  0.1159
 7161SOL     OW28722  12.335   3.051   1.764  0.5432 -0.0854  0.2415
 7161SOL    HW128723  12.362   3.089   1.848  1.2654 -1.5958  0.7120
 7161SOL    HW228724  12.321   2.958   1.782 -0.9277 -0.1466 -0.9485
 7162SOL     OW28725   2.617   3.819  11.629 -0.1006 -0.3058 -0.1382
 7162SOL    HW128726   2.564   3.762  11.685  0.7354  0.9841  2.0876
 7162SOL    HW228727   2.553   3.860  11.570 -1.1201 -1.1751  0.3252
 7163SOL     OW28728   1.718   2.728   1.041 -0.0902  0.2707  0.1686
 7163SOL    HW128729   1.812   2.717   1.026  0.1327 -1.4938  2.4390
 7163SOL    HW228730   1.712   2.805   1.097  0.1273 -0.2820  0.9677
 7164SOL     OW28731  11.336   9.992   1.843  0.0163 -0.9674 -0.2203
 7164SOL    HW128732  11.328   9.924   1.777  1.2339 -1.8685  0.5111
 7164SOL    HW228733  11.404   9.960   1.903 -0.9965 -0.1641  1.4390
 7165SOL     OW28734   1.939   6.901   1.174  0.2475 -0.4552  0.6397
 7165SOL    HW128735   1.846   6.882   1.160  0.5259 -0.9535 -0.6339
 7165SOL    HW228736   1.942   6.997   1.182 -0.2296 -0.3151 -0.6260
 7166SOL     OW28737  10.995   7.446  11.049 -0.0784  0.2775 -0.2340
 7166SOL    HW128738  11.076   7.497  11.057  1.1164 -1.0540 -2.9168
 7166SOL    HW228739  10.953   7.479  10.970 -2.4630  1.1913  1.2824
 7167SOL     OW28740  11.822   4.274   8.798  0.7037 -0.3892 -0.0811
 7167SOL    HW128741  11.883   4.253   8.869  1.6626  0.1420 -0.7393
 7167SOL    HW228742  11.769   4.195   8.789  0.8846 -0.6431  0.8976
 7168SOL     OW28743   0.079   1.342   2.580  0.4552  0.1440  0.0026
 7168SOL    HW128744   0.087   1.424   2.531  0.3214 -0.6997 -1.5023
 7168SOL    HW228745   0.059   1.276   2.513 -0.0763 -1.0129  1.2597
 7169SOL     OW28746  12.075   7.847  12.428 -0.2274  0.2537  0.0888
 7169SOL    HW128747  12.151   7.818  12.377 -0.0658  1.0147 -0.1218
 7169SOL    HW228748  12.000   7.828  12.372  0.1180  3.8301 -1.8829
 7170SOL     OW28749   2.218   3.583   8.536  0.5416 -0.2633  0.7775
 7170SOL    HW128750   2.253   3.518   8.474  1.0552 -0.9294  1.7451
 7170SOL    HW228751   2.126   3.559   8.546  0.5169 -0.3077  0.4580
 7171SOL     OW28752  12.701   2.070   6.223  0.5583  0.2928  0.2140
 7171SOL    HW128753  12.613   2.053   6.256 -0.0917 -0.2021 -1.6635
 7171SOL    HW228754  12.734   1.985   6.195  2.3305  0.1768  2.3496
 7172SOL     OW28755  12.250   7.533   5.284 -0.3860 -0.1798  0.6345
 7172SOL    HW128756  12.251   7.605   5.347 -0.8651 -1.2819  1.9376
 7172SOL    HW228757  12.342   7.517   5.264 -0.2895  1.1851 -0.1759
 7173SOL     OW28758   7.584   9.572   9.018 -0.0868 -0.0056 -0.1204
 7173SOL    HW128759   7.602   9.636   9.087 -1.0366 -0.6524  0.7544
 7173SOL    HW228760   7.668   9.529   9.002  0.4213  1.0175 -0.2806
 7174SOL     OW28761   8.333  12.425   0.714 -0.2186 -0.4637  0.2520
 7174SOL    HW128762   8.280  12.360   0.667  2.4357 -3.7576  1.4014
 7174SOL    HW228763   8.409  12.440   0.657  0.4762 -0.4658  1.1501
 7175SOL     OW28764   8.230  10.600   6.510 -0.0829 -0.1659 -0.3569
 7175SOL    HW128765   8.276  10.628   6.589  1.3788 -1.3128 -0.7700
 7175SOL    HW228766   8.141  10.635   6.521  0.5280  1.0558  1.0277
 7176SOL     OW28767   8.519  10.531  10.643  0.3744 -0.4397 -0.3431
 7176SOL    HW128768   8.427  10.509  10.656 -0.1183  0.9186 -1.2996
 7176SOL    HW228769   8.544  10.484  10.564 -0.0134  0.4983 -1.0507
 7177SOL     OW28770  12.030   8.978   0.485 -0.0705 -0.1171 -0.8175
 7177SOL    HW128771  12.081   9.024   0.551 -1.7128 -1.7253  1.8142
 7177SOL    HW228772  12.095   8.935   0.429  1.4019  0.8705  0.0643
 7178SOL     OW28773  11.150   0.656   7.383  0.0380 -0.6514 -0.1639
 7178SOL    HW128774  11.206   0.722   7.342 -0.1526 -0.5038 -0.1881
 7178SOL    HW228775  11.130   0.595   7.312 -1.3165  0.2819 -0.6133
 7179SOL     OW28776   3.216   6.922   1.050  0.8899 -0.6917 -0.1308
 7179SOL    HW128777   3.155   6.849   1.055 -1.9673  1.0954 -3.6436
 7179SOL    HW228778   3.176   6.992   1.102  1.7487 -0.5001  0.3016
 7180SOL     OW28779  12.507   0.695   3.947  0.3746 -0.0933  0.1342
 7180SOL    HW128780  12.448   0.718   3.875  1.0804  0.7444 -0.1892
 7180SOL    HW228781  12.457   0.716   4.026  0.9496  2.6362 -0.1368
 7181SOL     OW28782  11.955   7.680  10.366 -0.0122 -0.3570  0.0446
 7181SOL    HW128783  11.900   7.755  10.390  0.5310 -0.2282  0.8968
 7181SOL    HW228784  11.916   7.648  10.284  0.7829  1.9046 -1.2856
 7182SOL     OW28785   9.557   9.415   0.568  0.1454  0.1025  0.2132
 7182SOL    HW128786   9.555   9.511   0.567  1.8553  0.2037  1.6917
 7182SOL    HW228787   9.478   9.389   0.519 -0.8030  2.2419  0.4853
 7183SOL     OW28788   2.429   0.960  10.817  0.4530  0.5267 -0.3960
 7183SOL    HW128789   2.400   0.905  10.890 -1.2907  1.8612 -0.0288
 7183SOL    HW228790   2.482   0.901  10.763 -1.0976 -1.4677  0.1290
 7184SOL     OW28791   2.399   1.642   8.630 -0.4217  0.4074  0.0871
 7184SOL    HW128792   2.367   1.671   8.544  0.2305 -1.3858 -0.8235
 7184SOL    HW228793   2.489   1.675   8.634 -0.1427 -0.2768 -0.3428
 7185SOL     OW28794   2.653  11.685   1.945  1.1148 -0.2248 -0.0620
 7185SOL    HW128795   2.666  11.598   1.980  0.1054 -0.6861 -0.7776
 7185SOL    HW228796   2.558  11.694   1.936  1.0121  1.8458  2.1909
 7186SOL     OW28797   3.426  10.562   8.340  0.1485  0.1913 -0.2356
 7186SOL    HW128798   3.414  10.650   8.304  0.9009 -0.0642 -1.1375
 7186SOL    HW228799   3.368  10.507   8.288  1.8388 -0.3150 -1.6761
 7187SOL     OW28800   8.951   2.025  12.393 -0.0223 -0.4691  0.0583
 7187SOL    HW128801   9.027   1.968  12.397 -0.3982 -0.9019  1.4166
 7187SOL    HW228802   8.894   1.995  12.464 -0.8492  0.7072 -0.0766
 7188SOL     OW28803   3.759   9.231   6.585  0.2345 -0.3231 -0.0981
 7188SOL    HW128804   3.793   9.183   6.660 -0.5152 -1.7360 -0.6068
 7188SOL    HW228805   3.815   9.205   6.512  0.0321 -0.1679 -0.3120
 7189SOL     OW28806   9.049  10.837  10.373 -0.0140 -0.2371  0.2577
 7189SOL    HW128807   9.116  10.856  10.439 -0.2605 -1.1365  0.7925
 7189SOL    HW228808   9.088  10.768  10.319 -0.0163  0.1407 -0.2407
 7190SOL     OW28809   7.445   1.280   3.444 -0.0137  0.0020 -1.3087
 7190SOL    HW128810   7.463   1.329   3.524 -1.0240 -1.0722 -0.3853
 7190SOL    HW228811   7.386   1.335   3.393  0.5176  0.6248 -1.2641
 7191SOL     OW28812  11.632   3.273   0.359 -0.1223  0.1682 -0.2585
 7191SOL    HW128813  11.549   3.290   0.404  0.2266  0.1096  0.4132
 7191SOL    HW228814  11.656   3.356   0.319  0.5110  0.7459  1.2469
 7192SOL     OW28815   9.932   9.568   0.349 -0.1133  0.1138 -0.0551
 7192SOL    HW128816   9.871   9.494   0.339 -1.9941  1.3262  1.6066
 7192SOL    HW228817  10.019   9.528   0.347 -0.9773 -1.8694 -1.2464
 7193SOL     OW28818  12.067   7.984   9.529  0.2567  0.2121 -0.6008
 7193SOL    HW128819  12.100   8.044   9.462  0.4621  1.5467  0.6563
 7193SOL    HW228820  12.145   7.937   9.559 -0.0178 -1.3239 -2.1407
 7194SOL     OW28821   3.288   5.979   5.992 -0.0407  0.7856 -0.2156
 7194SOL    HW128822   3.292   6.069   6.024  0.0060  0.2282  1.4880
 7194SOL    HW228823   3.225   5.936   6.050 -1.2211  0.0526 -1.9498
 7195SOL     OW28824   5.082   3.558   4.262 -0.0842 -0.2892  0.5269
 7195SOL    HW128825   5.022   3.588   4.329  0.4395 -0.8259  1.2536
 7195SOL    HW228826   5.107   3.470   4.290 -0.5819 -0.9103 -0.8614
 7196SOL     OW28827  10.163   7.615   1.213 -1.1334 -0.6254  0.1680
 7196SOL    HW128828  10.133   7.546   1.272  1.6207  0.9525  3.8535
 7196SOL    HW228829  10.116   7.694   1.243 -1.4430 -0.1625 -1.4343
 7197SOL     OW28830   8.858  11.228   9.764  0.4465  0.0821 -0.3948
 7197SOL    HW128831   8.772  11.262   9.791  0.2284 -1.5280  1.0905
 7197SOL    HW228832   8.845  11.199   9.674  0.1796  2.1805 -1.1063
 7198SOL     OW28833   4.776   2.871   1.818  0.2822 -0.4677  0.4437
 7198SOL    HW128834   4.723   2.803   1.860  1.5728 -0.3665  2.3708
 7198SOL    HW228835   4.786   2.939   1.886 -1.7265  2.1720 -1.6762
 7199SOL     OW28836   3.648   7.850   3.487  0.2568 -0.9805 -0.5892
 7199SOL    HW128837   3.580   7.894   3.538  1.1394  2.1619 -1.8748
 7199SOL    HW228838   3.626   7.870   3.396  1.3510 -2.3772 -1.2024
 7200SOL     OW28839   1.817   6.293   3.523 -0.9766 -0.2327  0.6373
 7200SOL    HW128840   1.890   6.254   3.571 -0.8972  0.1205  0.8095
 7200SOL    HW228841   1.841   6.386   3.516  0.9551 -0.7760 -3.3936
 7201SOL     OW28842   0.659   6.645  10.551  0.0479  0.8903 -0.2521
 7201SOL    HW128843   0.696   6.583  10.615 -0.4564 -0.3963 -1.1699
 7201SOL    HW228844   0.598   6.698  10.602  0.0751  0.2604  0.4579
 7202SOL     OW28845   2.568  12.200   4.656 -0.3098 -0.6204 -0.2642
 7202SOL    HW128846   2.476  12.173   4.660 -0.6369  0.3689 -0.8058
 7202SOL    HW228847   2.611  12.148   4.724 -1.2688 -1.0819  0.0119
 7203SOL     OW28848  12.462   0.680   5.135 -0.2715 -0.3546  0.0079
 7203SOL    HW128849  12.379   0.637   5.155  0.0112 -1.7809 -1.6307
 7203SOL    HW228850  12.460   0.694   5.041  0.1248  2.3525  0.3299
 7204SOL     OW28851   3.998   3.641   8.101 -0.2438  0.0716  0.4120
 7204SOL    HW128852   4.022   3.732   8.079  0.6625 -0.5170 -1.1969
 7204SOL    HW228853   4.070   3.611   8.157 -0.4718  0.2812  0.8271
 7205SOL     OW28854   1.670   6.654   9.551  0.0035  0.1281 -0.1887
 7205SOL    HW128855   1.639   6.610   9.630  1.3686  0.0285  0.3215
 7205SOL    HW228856   1.721   6.588   9.504  0.8572  0.7373 -0.1482
 7206SOL     OW28857   4.618   0.290   2.056  0.4442 -0.2785 -0.1584
 7206SOL    HW128858   4.603   0.344   1.978  0.3703 -0.9624 -0.6314
 7206SOL    HW228859   4.697   0.326   2.096 -0.4129  1.1023  0.3596
 7207SOL     OW28860   5.506   8.820   3.883 -0.2888  0.6077  0.0590
 7207SOL    HW128861   5.537   8.872   3.808  0.2721  1.6254  0.9677
 7207SOL    HW228862   5.441   8.760   3.846  1.1944 -0.0964 -1.5548
 7208SOL     OW28863   9.941   0.794  10.464  0.2173  0.2218 -0.4502
 7208SOL    HW128864   9.939   0.807  10.369  0.8874 -0.1692 -0.5318
 7208SOL    HW228865   9.992   0.713  10.475 -0.5504 -0.1826  0.2008
 7209SOL     OW28866   2.622   5.841   1.305  0.1761  0.0729  0.0670
 7209SOL    HW128867   2.642   5.760   1.259 -0.2196  1.0081 -1.8552
 7209SOL    HW228868   2.527   5.850   1.299  0.2016  0.6062  0.3898
 7210SOL     OW28869   9.066   0.831   3.207 -0.3464  0.1118 -0.0469
 7210SOL    HW128870   9.092   0.745   3.241 -0.4506  0.5488  1.1985
 7210SOL    HW228871   9.125   0.893   3.250 -1.1241  0.7828  0.0926
 7211SOL     OW28872   9.089   9.665   8.526 -0.7506  0.0512 -0.0683
 7211SOL    HW128873   9.182   9.675   8.505 -0.1888 -3.9482 -0.3401
 7211SOL    HW228874   9.043   9.718   8.461  1.3079  0.0404 -1.6244
 7212SOL     OW28875   7.955   9.730   5.306  0.0603 -0.2875 -0.1665
 7212SOL    HW128876   8.025   9.796   5.304 -1.3780  1.3258 -0.2804
 7212SOL    HW228877   7.979   9.672   5.378  1.6202  0.0981 -0.3412
 7213SOL     OW28878  11.018   0.106   5.069 -0.0493  0.0121  0.3782
 7213SOL    HW128879  11.015   0.115   5.164  0.5137 -0.3255  0.4331
 7213SOL    HW228880  11.109   0.127   5.046 -0.6409  2.0366 -0.3023
 7214SOL     OW28881   7.242   0.586   7.116 -0.0443  0.5488 -0.1815
 7214SOL    HW128882   7.307   0.656   7.127  1.1753 -0.4025 -0.9901
 7214SOL    HW228883   7.248   0.534   7.196  3.4535 -2.0659 -1.8848
 7215SOL     OW28884   9.159   8.237   9.706 -0.4768  0.6058 -0.0459
 7215SOL    HW128885   9.248   8.274   9.703  0.4286 -1.4751 -2.6852
 7215SOL    HW228886   9.113   8.282   9.635 -0.2881 -1.0280 -1.2522
 7216SOL     OW28887   5.486  12.473   3.893  0.2268 -0.1152  0.1626
 7216SOL    HW128888   5.504  12.459   3.800  2.2438 -1.4365  0.6918
 7216SOL    HW228889   5.391  12.462   3.901  0.0004  0.0950 -1.7270
 7217SOL     OW28890   3.223   8.206   5.005  0.1087  0.1737 -0.4176
 7217SOL    HW128891   3.204   8.207   4.911  2.1380  2.7370 -0.9000
 7217SOL    HW228892   3.168   8.135   5.040  1.2684 -2.7761 -3.9250
 7218SOL     OW28893   9.384   2.911  12.096  0.3411  0.0804 -0.6164
 7218SOL    HW128894   9.448   2.977  12.072 -0.9178  0.4984 -3.1216
 7218SOL    HW228895   9.435   2.832  12.113  1.5719  0.4960 -2.2008
 7219SOL     OW28896   2.487   1.735   3.410  0.2750  0.0340 -0.4419
 7219SOL    HW128897   2.558   1.733   3.346  1.2030 -1.7807  0.5637
 7219SOL    HW228898   2.422   1.794   3.372  1.8893  0.9904 -1.8435
 7220SOL     OW28899   9.024   6.509   6.994 -0.3266 -0.2582  0.1556
 7220SOL    HW128900   8.929   6.504   6.990 -0.3011  0.0001 -1.2031
 7220SOL    HW228901   9.054   6.426   6.956 -0.0162  0.5107 -1.3410
 7221SOL     OW28902   7.163   0.440   1.080  0.3187  0.6974  0.2998
 7221SOL    HW128903   7.148   0.434   0.986 -2.5007  0.4545  0.6853
 7221SOL    HW228904   7.171   0.534   1.097 -0.4463  0.8227 -0.0240
 7222SOL     OW28905   5.605   0.355   2.600  0.0595  0.1221  0.0784
 7222SOL    HW128906   5.687   0.325   2.560  0.8751 -0.8885  2.3261
 7222SOL    HW228907   5.553   0.275   2.609 -0.1311  0.3361  0.9261
 7223SOL     OW28908  11.539   7.489   9.846 -0.2242 -0.5161  0.9669
 7223SOL    HW128909  11.543   7.576   9.807 -0.4949  0.1241  2.3053
 7223SOL    HW228910  11.603   7.437   9.796 -0.9305  0.0993 -0.6395
 7224SOL     OW28911   8.145   3.700  12.109 -0.6979 -0.3157  0.3763
 7224SOL    HW128912   8.136   3.605  12.110 -0.0279 -0.3906  1.9550
 7224SOL    HW228913   8.155   3.722  12.017 -1.0592 -1.7514 -0.0306
 7225SOL     OW28914  10.785   1.304   6.031 -0.0587 -0.5385 -0.0513
 7225SOL    HW128915  10.878   1.282   6.027 -0.0369 -0.2978 -1.5630
 7225SOL    HW228916  10.741   1.220   6.042  0.3332 -0.6251  0.9604
 7226SOL     OW28917  10.795  10.079   2.251  0.2042 -0.6542  0.2417
 7226SOL    HW128918  10.798   9.995   2.207 -1.3806 -0.8378  0.4293
 7226SOL    HW228919  10.766  10.059   2.340 -1.0526  0.1477  0.0398
 7227SOL     OW28920  11.274   8.729   3.300  0.1122 -0.1825  0.3562
 7227SOL    HW128921  11.320   8.656   3.342 -0.6333 -1.6886 -1.3245
 7227SOL    HW228922  11.188   8.732   3.343  0.1928 -0.2058  0.5182
 7228SOL     OW28923   9.951   6.468  10.544 -0.1531 -0.2108 -0.3148
 7228SOL    HW128924  10.038   6.432  10.562 -0.0167  0.0647 -0.4178
 7228SOL    HW228925   9.891   6.409  10.589  0.2589  1.4351  2.6652
 7229SOL     OW28926   1.271   0.791   5.461  0.0896  0.2178  0.1897
 7229SOL    HW128927   1.321   0.763   5.385 -0.3352  0.0260 -0.0244
 7229SOL    HW228928   1.197   0.730   5.465 -0.3580  0.7486  0.2466
 7230SOL     OW28929   2.759   0.241   9.139 -0.1714 -0.0310 -0.2673
 7230SOL    HW128930   2.790   0.255   9.049  1.7193 -0.3189  0.2912
 7230SOL    HW228931   2.728   0.151   9.139 -2.2011  0.6036 -1.1281
 7231SOL     OW28932   8.874   6.355   0.678  0.0993 -0.3711 -0.3009
 7231SOL    HW128933   8.908   6.392   0.760 -0.6845 -0.9921  0.3188
 7231SOL    HW228934   8.948   6.358   0.618  0.6530  0.2144  0.3913
 7232SOL     OW28935   9.709   9.348   0.949  0.2178  0.7611  0.0374
 7232SOL    HW128936   9.783   9.334   0.889  0.0698  0.9563 -0.1943
 7232SOL    HW228937   9.667   9.262   0.955  0.2722  0.7251 -0.0868
 7233SOL     OW28938   5.111   5.329   4.767  0.3357 -0.1768 -0.1781
 7233SOL    HW128939   5.179   5.345   4.832 -0.0474 -0.3691  0.2765
 7233SOL    HW228940   5.067   5.250   4.797 -1.0185  0.7304  0.3541
 7234SOL     OW28941   0.638   3.189   0.741 -0.0431 -0.0273  0.4869
 7234SOL    HW128942   0.575   3.129   0.781 -0.9198  1.1458  0.9151
 7234SOL    HW228943   0.666   3.144   0.661 -0.5546 -1.0578  0.8637
 7235SOL     OW28944   8.742   1.311   3.236 -0.1577  0.4773 -0.3526
 7235SOL    HW128945   8.788   1.261   3.169 -0.8979 -0.2651 -0.3213
 7235SOL    HW228946   8.781   1.281   3.319 -1.1392 -0.6712 -0.2755
 7236SOL     OW28947   2.714   2.753   3.798 -0.4358 -0.2455 -0.5164
 7236SOL    HW128948   2.724   2.737   3.892 -0.8740  0.1785 -0.3943
 7236SOL    HW228949   2.783   2.816   3.776  0.6521 -1.4969 -0.7976
 7237SOL     OW28950   8.077   2.796   7.797  0.5903  0.0030 -0.3441
 7237SOL    HW128951   8.139   2.724   7.795 -0.3099 -0.8147 -2.9563
 7237SOL    HW228952   7.992   2.755   7.812  0.2838  0.7291 -0.0360
 7238SOL     OW28953   0.027   9.745   5.111  0.5264  0.2789  0.9836
 7238SOL    HW128954  -0.063   9.759   5.079  0.8871  1.2244  0.3445
 7238SOL    HW228955   0.016   9.686   5.186 -0.3348 -2.1513 -0.9179
 7239SOL     OW28956   6.518  11.387   8.057  0.0984 -0.3706 -0.1427
 7239SOL    HW128957   6.555  11.417   7.973 -1.2641  1.2510 -0.2242
 7239SOL    HW228958   6.424  11.378   8.039 -0.1847 -0.1539  1.1728
 7240SOL     OW28959   0.610   4.325  11.537 -0.2756  0.0688  1.1493
 7240SOL    HW128960   0.648   4.362  11.457 -0.8465 -0.3943  0.6524
 7240SOL    HW228961   0.684   4.319  11.598  0.8652 -2.3148 -0.3299
 7241SOL     OW28962   0.456   6.265   6.401 -0.1245  0.2651 -0.2703
 7241SOL    HW128963   0.467   6.359   6.384 -1.2392  0.9754  2.3392
 7241SOL    HW228964   0.361   6.253   6.403  0.0059 -0.8747 -0.3196
 7242SOL     OW28965   1.625   3.131   0.753  0.3685  0.4258  0.4273
 7242SOL    HW128966   1.562   3.166   0.816 -0.6502  0.1117 -0.3826
 7242SOL    HW228967   1.574   3.118   0.673  0.9020 -1.9732  0.3981
 7243SOL     OW28968  10.669   5.005   7.758 -0.2076  0.2579 -0.0561
 7243SOL    HW128969  10.668   4.957   7.675  2.4800  1.3455 -0.8003
 7243SOL    HW228970  10.665   4.936   7.824 -1.6558 -0.6711 -1.0416
 7244SOL     OW28971  10.564  11.591   1.361 -0.3558  0.4806 -0.0507
 7244SOL    HW128972  10.564  11.554   1.273  1.8424 -2.2847  0.9518
 7244SOL    HW228973  10.509  11.532   1.412 -1.3534  1.8692  0.5543
 7245SOL     OW28974   7.987   1.002   2.150  0.0781  0.0587  0.0585
 7245SOL    HW128975   8.029   0.927   2.192 -0.4661 -0.4393 -0.2559
 7245SOL    HW228976   7.996   0.985   2.057 -0.4659  0.1314 -0.0141
 7246SOL     OW28977  10.834   2.280  12.678 -0.0350  0.3873  0.1358
 7246SOL    HW128978  10.749   2.289  12.720 -0.1260  2.5951 -0.4255
 7246SOL    HW228979  10.862   2.191  12.699 -2.4213 -0.3504  0.4128
 7247SOL     OW28980   0.956   3.915   5.418  0.0373  0.3902  0.2622
 7247SOL    HW128981   0.871   3.957   5.432  0.1541  0.0770  2.2129
 7247SOL    HW228982   0.978   3.934   5.327 -1.2366  2.0963  0.2661
 7248SOL     OW28983   0.816  12.492   3.312  0.0714 -0.0453 -0.8951
 7248SOL    HW128984   0.793  12.497   3.405  0.0663 -1.2151 -0.8186
 7248SOL    HW228985   0.742  12.446   3.272  0.3694 -0.1137 -1.3671
 7249SOL     OW28986   5.603   4.287   6.960  0.2511 -0.5516  0.3266
 7249SOL    HW128987   5.544   4.290   6.884 -0.7906  0.6441  1.1440
 7249SOL    HW228988   5.664   4.360   6.944 -0.9143  0.7005  1.3282
 7250SOL     OW28989   4.395   1.082   8.736  0.3531 -0.1338  0.9586
 7250SOL    HW128990   4.342   1.047   8.664  0.1402  1.2364  0.4209
 7250SOL    HW228991   4.477   1.032   8.731  0.3459 -0.0592 -0.2555
 7251SOL     OW28992  10.856  12.700  10.692 -0.4105  0.4211 -0.4866
 7251SOL    HW128993  10.948  12.703  10.666 -0.5578 -0.2968 -1.1160
 7251SOL    HW228994  10.851  12.626  10.753 -0.7154 -0.0517 -1.0748
 7252SOL     OW28995  10.324   8.807   8.120 -0.5997 -0.1348  0.3508
 7252SOL    HW128996  10.263   8.879   8.138 -1.2055 -0.4079 -0.5650
 7252SOL    HW228997  10.410   8.849   8.116 -0.8976  0.4799  0.2319
 7253SOL     OW28998   2.796   8.673   5.422  0.0954 -0.0654 -0.2138
 7253SOL    HW128999   2.737   8.659   5.348  0.4807  0.7972 -0.7031
 7253SOL    HW229000   2.739   8.708   5.491 -0.2819 -0.9567 -0.0599
 7254SOL     OW29001  11.484   1.823   9.304  0.5508 -0.2335 -0.2812
 7254SOL    HW129002  11.571   1.812   9.340  0.6750  0.3465 -0.3857
 7254SOL    HW229003  11.497   1.822   9.209  0.5520  0.5993 -0.2970
 7255SOL     OW29004  11.799   3.953  11.885  0.1543  0.0533  0.2096
 7255SOL    HW129005  11.717   3.924  11.844  0.0728 -0.5351  0.7813
 7255SOL    HW229006  11.809   3.897  11.961 -0.6249  2.2477  2.0475
 7256SOL     OW29007   1.784   3.845   2.539 -0.0890  0.0190 -0.0884
 7256SOL    HW129008   1.771   3.764   2.588 -0.0219  0.5488  0.8278
 7256SOL    HW229009   1.772   3.820   2.447  1.8735 -1.4534 -0.0103
 7257SOL     OW29010   9.864   0.931   6.332  0.1135 -0.2832 -0.2693
 7257SOL    HW129011   9.903   0.846   6.352  2.7649  0.6831 -0.9593
 7257SOL    HW229012   9.857   0.931   6.236  2.7655  1.2407 -0.5530
 7258SOL     OW29013   7.735   4.062   5.725 -0.2899 -0.0760 -0.1818
 7258SOL    HW129014   7.762   3.982   5.680  1.4719  0.5183 -0.2871
 7258SOL    HW229015   7.817   4.110   5.738 -1.2534  1.5218  0.2487
 7259SOL     OW29016  11.281   0.452   4.524  0.3824 -0.1963 -0.0978
 7259SOL    HW129017  11.232   0.508   4.586  0.2162  1.1616 -1.3932
 7259SOL    HW229018  11.213   0.407   4.474  0.5185 -1.3965  0.7491
 7260SOL     OW29019  10.619   6.237   3.300 -0.2758  0.3109  0.2641
 7260SOL    HW129020  10.593   6.319   3.343 -0.1435  0.5095 -0.0269
 7260SOL    HW229021  10.609   6.170   3.367 -4.2789 -0.1235 -0.5143
 7261SOL     OW29022   9.966   5.729  10.355 -0.5476  0.4226 -0.1673
 7261SOL    HW129023  10.049   5.718  10.402  0.3842  0.9807 -1.6324
 7261SOL    HW229024   9.914   5.787  10.412  0.7925  1.6115 -0.0909
 7262SOL     OW29025   2.906   4.863   7.387 -0.0173 -0.0705  0.2462
 7262SOL    HW129026   2.815   4.891   7.400 -0.1134  0.7729 -1.8572
 7262SOL    HW229027   2.915   4.786   7.443 -1.8571  0.1361  0.9202
 7263SOL     OW29028   9.992   2.681  11.906 -0.3610 -0.2558 -0.2021
 7263SOL    HW129029  10.019   2.592  11.930  1.4266  0.2233 -0.2838
 7263SOL    HW229030  10.059   2.710  11.845 -0.3293  1.5199  0.6286
 7264SOL     OW29031   5.667   2.396  11.333 -0.5317  0.2695 -0.1514
 7264SOL    HW129032   5.595   2.440  11.379 -1.3529 -1.6110  0.4504
 7264SOL    HW229033   5.745   2.441  11.364 -1.3827  2.0448 -0.4448
 7265SOL     OW29034   6.450   9.719   2.529 -0.2050 -0.0701 -0.0017
 7265SOL    HW129035   6.544   9.733   2.524 -0.3624  1.8348  1.1575
 7265SOL    HW229036   6.436   9.633   2.491  2.2204 -1.2810  1.6108
 7266SOL     OW29037  11.140   1.014  11.893 -0.1366  0.0593 -0.2320
 7266SOL    HW129038  11.182   1.088  11.937 -0.0638 -0.2823  0.2749
 7266SOL    HW229039  11.046   1.030  11.903 -0.1194 -0.0808  0.1520
 7267SOL     OW29040  12.467   0.356   8.304  0.0714 -0.1764 -0.5348
 7267SOL    HW129041  12.445   0.274   8.348 -2.9432  0.7417 -0.0569
 7267SOL    HW229042  12.433   0.346   8.215  0.9259  0.0819 -0.9010
 7268SOL     OW29043   6.361   8.993   3.764 -0.0887 -0.3405 -0.2474
 7268SOL    HW129044   6.425   9.064   3.772  2.1985 -2.1189 -1.5227
 7268SOL    HW229045   6.276   9.037   3.755  0.8555  2.1218  1.7185
 7269SOL     OW29046   2.277   0.141  11.725 -0.2226 -0.0590  0.1009
 7269SOL    HW129047   2.292   0.124  11.818 -1.2352  1.8505  0.6590
 7269SOL    HW229048   2.354   0.192  11.698  0.0594 -0.5927 -0.1287
 7270SOL     OW29049   2.317  10.972  11.914  0.2657  0.4214 -0.8355
 7270SOL    HW129050   2.281  10.885  11.895 -0.8916  0.3838  1.2720
 7270SOL    HW229051   2.274  11.030  11.852  0.2786 -0.3377 -1.5747
 7271SOL     OW29052   3.965  11.762   2.865  0.2319 -0.6617  0.0899
 7271SOL    HW129053   3.940  11.763   2.957  0.2006 -0.7746  0.0834
 7271SOL    HW229054   3.963  11.669   2.841  0.9450 -0.7034  0.1689
 7272SOL     OW29055   4.211   6.744   7.733 -0.3767 -0.3816 -0.3511
 7272SOL    HW129056   4.292   6.768   7.778 -1.1506 -0.6298  1.2653
 7272SOL    HW229057   4.227   6.766   7.642  1.0023  0.8904  0.1497
 7273SOL     OW29058  11.434   1.838  12.600  0.0645  0.1926  0.3379
 7273SOL    HW129059  11.435   1.758  12.652  2.7114 -0.1420 -0.0886
 7273SOL    HW229060  11.450   1.809  12.510  3.3009  1.2451  0.4535
 7274SOL     OW29061  10.247   5.801   9.638  0.5157  0.3901  0.0593
 7274SOL    HW129062  10.278   5.853   9.712  1.2245  0.6349 -0.4035
 7274SOL    HW229063  10.297   5.719   9.644 -0.9998 -0.5341  1.1268
 7275SOL     OW29064   4.418   7.560   5.419 -0.5301  0.1029  0.5045
 7275SOL    HW129065   4.359   7.618   5.467  0.4712  1.3207  0.3280
 7275SOL    HW229066   4.505   7.599   5.431  0.0277 -0.7700 -0.5072
 7276SOL     OW29067   0.042  10.271   7.425 -0.6485  0.4958 -0.3604
 7276SOL    HW129068   0.117  10.249   7.480  0.0042 -0.6067 -1.6111
 7276SOL    HW229069  -0.017  10.321   7.482  0.7827  0.9261  0.8027
 7277SOL     OW29070   5.119   5.078  10.888  0.0928  0.0976  0.0352
 7277SOL    HW129071   5.043   5.054  10.941 -0.9153  0.2733 -1.2840
 7277SOL    HW229072   5.122   5.012  10.818 -0.7624  1.8220 -1.7367
 7278SOL     OW29073  12.187   3.780   6.691  0.1519  0.4936  0.0781
 7278SOL    HW129074  12.257   3.829   6.735  0.9073  1.6754 -2.2718
 7278SOL    HW229075  12.146   3.844   6.633 -0.0257 -1.2118 -1.7814
 7279SOL     OW29076   8.537   6.805   3.356  0.0782 -0.0027  0.8642
 7279SOL    HW129077   8.555   6.769   3.269 -0.2412  1.2702  0.2532
 7279SOL    HW229078   8.623   6.822   3.394  0.2255 -0.9644  0.9925
 7280SOL     OW29079   3.649   8.980   2.437 -0.3137 -0.0009 -0.2062
 7280SOL    HW129080   3.673   9.063   2.397 -0.5694  0.6114  0.8710
 7280SOL    HW229081   3.693   8.981   2.523  2.1432 -2.2766 -1.2877
 7281SOL     OW29082   6.085   5.971  12.353  0.3046 -0.4559  0.0219
 7281SOL    HW129083   6.092   6.030  12.428 -0.1282  0.6442 -0.7715
 7281SOL    HW229084   6.138   5.895  12.377 -0.7912 -0.6877  1.9436
 7282SOL     OW29085  11.851   8.974   6.420 -0.2951  0.3573 -0.0063
 7282SOL    HW129086  11.929   8.981   6.365 -1.0096  2.1022 -0.8884
 7282SOL    HW229087  11.873   9.025   6.499 -0.7880  1.5271 -0.6015
 7283SOL     OW29088   2.386   9.294   2.938 -0.7896  0.0963 -0.0820
 7283SOL    HW129089   2.297   9.261   2.941 -1.1389  0.9771 -0.5037
 7283SOL    HW229090   2.433   9.232   2.883 -1.2262 -0.1784 -0.1489
 7284SOL     OW29091   2.042   1.765   2.615  0.0425 -0.0816 -0.1486
 7284SOL    HW129092   1.969   1.750   2.675  1.7012 -0.0972  1.9923
 7284SOL    HW229093   2.056   1.860   2.617  0.9876 -0.2178  0.6594
 7285SOL     OW29094   9.105   7.803   2.391  0.6870 -0.2593  0.5631
 7285SOL    HW129095   9.099   7.750   2.470  1.5810  1.7938  2.1268
 7285SOL    HW229096   9.171   7.870   2.412 -0.6318  1.6888 -1.0862
 7286SOL     OW29097   9.591   9.089   0.914  0.3869  0.1683  0.0730
 7286SOL    HW129098   9.617   9.062   0.826  1.6706 -1.6497  0.9268
 7286SOL    HW229099   9.592   9.007   0.965  4.7287  1.6360  2.9627
 7287SOL     OW29100  11.268   7.154   3.125 -0.1928 -0.5837 -0.1304
 7287SOL    HW129101  11.230   7.239   3.102 -0.3462 -0.5902  0.1009
 7287SOL    HW229102  11.361   7.163   3.104 -0.5767 -1.1308 -2.3816
 7288SOL     OW29103   5.273   4.999   7.714 -0.1195 -0.8323 -0.9033
 7288SOL    HW129104   5.273   5.066   7.646  0.0258  1.4968  1.2349
 7288SOL    HW229105   5.365   4.985   7.735 -0.1183  2.3025  2.1322
 7289SOL     OW29106   3.076   9.573   7.594 -0.0770 -0.2135 -0.2973
 7289SOL    HW129107   3.023   9.531   7.661  0.3324 -0.7476 -0.3019
 7289SOL    HW229108   3.113   9.501   7.543  1.0585  0.1201  0.0194
 7290SOL     OW29109  11.223   7.490   5.221 -0.2899  0.4307 -0.3627
 7290SOL    HW129110  11.305   7.539   5.227 -0.5999  0.9473 -0.3793
 7290SOL    HW229111  11.241   7.423   5.155  0.5974 -0.4012  0.6818
 7291SOL     OW29112   1.355   9.358   8.370  0.1730 -0.1694  0.3376
 7291SOL    HW129113   1.438   9.399   8.394 -1.1050  4.0487 -1.5042
 7291SOL    HW229114   1.306   9.354   8.452  1.1783 -0.0284  0.9616
 7292SOL     OW29115   6.482   7.555   6.650 -0.0319 -0.3511 -0.3178
 7292SOL    HW129116   6.490   7.496   6.725 -0.3630  0.2282  0.1810
 7292SOL    HW229117   6.388   7.562   6.635  0.0098 -0.0216 -0.4311
 7293SOL     OW29118   8.672   9.086   8.685  0.6797 -0.3373  0.0835
 7293SOL    HW129119   8.743   9.066   8.745 -1.0196 -1.4907  1.8045
 7293SOL    HW229120   8.618   9.150   8.731  0.3917  0.2829 -1.0581
 7294SOL     OW29121  10.804  10.740  11.212  0.2151  0.1434  0.3090
 7294SOL    HW129122  10.868  10.669  11.218  0.0896 -0.1806 -1.5985
 7294SOL    HW229123  10.748  10.715  11.138  0.7643  2.6512 -1.0567
 7295SOL     OW29124   0.971   6.021   3.172  0.4142  0.0903  0.0258
 7295SOL    HW129125   0.893   5.971   3.196 -1.0162  1.7496 -0.9317
 7295SOL    HW229126   1.010   6.045   3.256 -0.3578 -0.3740  0.5405
 7296SOL     OW29127   6.379  10.799   3.962 -0.4180  0.6170  0.3723
 7296SOL    HW129128   6.381  10.707   3.989  0.1320  0.8025  0.9805
 7296SOL    HW229129   6.315  10.801   3.891 -0.3567 -0.2550  0.2795
 7297SOL     OW29130   7.229   3.702  12.447  0.0390  0.0241 -0.0795
 7297SOL    HW129131   7.175   3.742  12.515  0.0029 -0.1887  0.0146
 7297SOL    HW229132   7.169   3.645  12.399  0.3735 -0.8972  0.5717
 7298SOL     OW29133   9.827   4.966   8.996 -0.4817 -0.3083 -0.0361
 7298SOL    HW129134   9.879   5.046   9.009  0.8956 -1.3880  1.4531
 7298SOL    HW229135   9.748   4.996   8.950 -1.3930  2.4368  2.9426
 7299SOL     OW29136   7.890   6.087   1.732  0.8173 -0.0576  0.0516
 7299SOL    HW129137   7.951   6.076   1.805  2.1197  0.9612 -0.8576
 7299SOL    HW229138   7.850   6.172   1.747 -0.6371 -0.8232  0.7816
 7300SOL     OW29139   9.637   1.034   3.044 -0.2957 -0.3531 -0.0779
 7300SOL    HW129140   9.714   1.081   3.013  0.5097 -0.9190  0.9712
 7300SOL    HW229141   9.593   1.097   3.102  0.7143 -0.7867  1.2277
 7301SOL     OW29142   7.935   2.131  11.459  0.8565 -0.3695 -0.0320
 7301SOL    HW129143   7.888   2.117  11.541  0.7271  0.1547 -0.0136
 7301SOL    HW229144   7.934   2.226  11.446 -0.3472 -0.5287 -1.3393
 7302SOL     OW29145   4.323   1.916   0.297  0.9299 -0.4265 -0.0617
 7302SOL    HW129146   4.290   2.006   0.298  2.0007  0.0147 -1.2724
 7302SOL    HW229147   4.284   1.875   0.373 -1.4859  0.3768 -0.7805
 7303SOL     OW29148   4.851   0.810   7.314 -0.7968  0.0766 -0.6284
 7303SOL    HW129149   4.762   0.822   7.346 -0.4508  0.0867  0.3766
 7303SOL    HW229150   4.901   0.882   7.354  0.1236 -1.2613  0.7794
 7304SOL     OW29151   3.156   0.466   3.351  0.1907 -0.1447 -0.3337
 7304SOL    HW129152   3.187   0.403   3.416 -0.7460  0.5462  0.8485
 7304SOL    HW229153   3.227   0.530   3.345  0.1383 -0.0105  0.3239
 7305SOL     OW29154   6.916  10.905   2.645 -0.0778  0.0947 -0.3053
 7305SOL    HW129155   7.009  10.898   2.626 -0.0978  0.6962 -0.6366
 7305SOL    HW229156   6.909  10.887   2.739  0.1806 -1.5041 -0.5589
 7306SOL     OW29157  12.485  12.470   4.557 -0.0001 -0.2488  0.4610
 7306SOL    HW129158  12.487  12.490   4.651  2.7236  0.6412  0.3122
 7306SOL    HW229159  12.541  12.536   4.517  0.6110 -1.8486 -1.5257
 7307SOL     OW29160   5.869   2.906   3.583 -0.0057 -0.4695 -0.1355
 7307SOL    HW129161   5.864   2.811   3.577  0.3293 -0.6330  1.6278
 7307SOL    HW229162   5.783   2.933   3.617  0.2708 -0.2662  0.4219
 7308SOL     OW29163   0.150   8.883  12.004  0.1737  0.5386  0.4444
 7308SOL    HW129164   0.057   8.901  12.017 -0.4147 -1.0496 -1.1281
 7308SOL    HW229165   0.171   8.927  11.922  0.6703  0.4404  0.5174
 7309SOL     OW29166   4.590   3.362  10.096  0.4150  0.4103  0.1153
 7309SOL    HW129167   4.515   3.420  10.079 -0.1319  0.0016  1.0132
 7309SOL    HW229168   4.661   3.421  10.119  0.3194  0.7981 -0.5659
 7310SOL     OW29169  12.519   1.454   8.386 -0.1313 -0.2975  0.2450
 7310SOL    HW129170  12.489   1.541   8.359 -0.7994 -0.4649  0.4442
 7310SOL    HW229171  12.487   1.395   8.318 -2.2507 -0.7951  1.5590
 7311SOL     OW29172  12.570   0.216   5.830 -0.1868 -0.7980  0.0320
 7311SOL    HW129173  12.572   0.121   5.824  2.7756 -0.9997  2.1303
 7311SOL    HW229174  12.644   0.245   5.777  1.1508 -0.0037  2.1927
 7312SOL     OW29175   1.209   5.192   5.263  0.0926  0.0942  0.6916
 7312SOL    HW129176   1.289   5.173   5.215  1.4556 -0.2678  2.9806
 7312SOL    HW229177   1.226   5.275   5.307 -1.3525  0.7392  0.0991
 7313SOL     OW29178   2.748   6.465   5.108 -0.1820  0.3114  0.3695
 7313SOL    HW129179   2.756   6.406   5.033  0.9564 -0.1891  0.8520
 7313SOL    HW229180   2.685   6.423   5.165 -1.3294  0.8746 -0.4507
 7314SOL     OW29181   3.542   4.978   0.257 -0.2165 -0.2938  0.5495
 7314SOL    HW129182   3.562   5.029   0.179 -1.1521 -0.7376  0.0037
 7314SOL    HW229183   3.626   4.970   0.303 -0.0260  1.6224  0.5914
 7315SOL     OW29184  10.555   1.007   4.915 -0.0960 -0.1331  0.2328
 7315SOL    HW129185  10.543   1.007   4.820 -0.2736 -0.4064  0.2535
 7315SOL    HW229186  10.466   1.008   4.950 -0.0492  1.7196  0.4092
 7316SOL     OW29187   6.826  12.331  12.356  0.5354 -0.2472 -0.6046
 7316SOL    HW129188   6.842  12.270  12.429  1.2320 -1.3688 -1.6645
 7316SOL    HW229189   6.752  12.292  12.309 -0.7542  1.1398  0.1701
 7317SOL     OW29190   4.865   0.189   0.578  0.0982 -0.4982  0.3768
 7317SOL    HW129191   4.887   0.096   0.588 -0.1411 -0.4126  1.9459
 7317SOL    HW229192   4.945   0.229   0.544  0.0132 -1.3560 -0.9083
 7318SOL     OW29193   7.861   5.156  11.495  0.0977 -0.3233  0.0313
 7318SOL    HW129194   7.936   5.104  11.466 -0.7755 -1.2645 -0.5988
 7318SOL    HW229195   7.796   5.092  11.524 -1.2857  0.3415 -1.4287
 7319SOL     OW29196   0.610   7.634  10.226  0.5660  0.4942  0.3279
 7319SOL    HW129197   0.691   7.686  10.233 -0.1851  1.6319  0.9246
 7319SOL    HW229198   0.603   7.590  10.311  0.3181  0.7926  0.4672
 7320SOL     OW29199   6.811   4.793   6.374 -0.1599 -0.6375 -0.2856
 7320SOL    HW129200   6.727   4.791   6.328  0.5354  3.8830 -2.3125
 7320SOL    HW229201   6.800   4.863   6.439  2.1357  0.5950 -1.1114
 7321SOL     OW29202   9.671   5.838   9.389  0.3109 -0.4447  0.3862
 7321SOL    HW129203   9.697   5.861   9.478  1.5464  0.7572 -0.2477
 7321SOL    HW229204   9.589   5.885   9.375  0.9090  0.6111  0.3712
 7322SOL     OW29205   3.486   9.625   8.693 -0.1601  0.1053  0.6228
 7322SOL    HW129206   3.508   9.692   8.628 -0.6648  0.2417  0.5841
 7322SOL    HW229207   3.569   9.601   8.733 -0.0311  1.0877  0.9550
 7323SOL     OW29208   5.724   9.717  11.148  0.0766  0.3987 -0.0891
 7323SOL    HW129209   5.793   9.779  11.174  2.2739 -2.3051  1.0807
 7323SOL    HW229210   5.681   9.692  11.230 -1.5185  1.1112 -0.6700
 7324SOL     OW29211   2.475   8.590   7.217  0.0863  0.2372  0.1298
 7324SOL    HW129212   2.383   8.616   7.224 -1.0181 -3.2400  0.9397
 7324SOL    HW229213   2.514   8.616   7.300 -0.6001  0.3772  0.4146
 7325SOL     OW29214   9.465   2.002   7.491 -0.6329  0.5953 -0.4315
 7325SOL    HW129215   9.494   2.062   7.422 -0.9830 -0.8227 -1.8893
 7325SOL    HW229216   9.502   1.917   7.467 -2.3579 -0.3510  0.0260
 7326SOL     OW29217   2.866   1.024  10.156 -0.5859 -0.0676 -0.2697
 7326SOL    HW129218   2.917   1.048  10.233 -0.3898 -0.9715 -0.0997
 7326SOL    HW229219   2.930   1.019  10.085 -0.5852 -0.2625 -0.2578
 7327SOL     OW29220   5.170   9.198   5.411 -0.0609  0.0966  0.1970
 7327SOL    HW129221   5.179   9.218   5.504 -0.1462 -0.6321  0.3701
 7327SOL    HW229222   5.225   9.263   5.367  0.2216  0.2614  0.7764
 7328SOL     OW29223  12.414   2.009   7.017 -0.6094 -0.6019 -0.0625
 7328SOL    HW129224  12.377   1.926   6.987  0.7637 -0.4851 -2.3083
 7328SOL    HW229225  12.350   2.075   6.988  0.2764 -0.5722 -2.1674
 7329SOL     OW29226   0.884   9.853   4.765 -0.2492 -0.0541 -0.0024
 7329SOL    HW129227   0.866   9.906   4.844 -0.3061  0.7082 -0.5127
 7329SOL    HW229228   0.939   9.910   4.711 -0.7798 -0.3037 -0.8167
 7330SOL     OW29229   3.243   1.450   1.484 -0.5128  0.3792 -0.0397
 7330SOL    HW129230   3.228   1.540   1.456  1.3095  0.0880 -2.2463
 7330SOL    HW229231   3.181   1.397   1.434 -0.8306  0.2897  0.4370
 7331SOL     OW29232   4.125  12.118   0.586 -0.2300 -0.2741  0.1132
 7331SOL    HW129233   4.065  12.192   0.596 -0.2316 -0.3635  0.7635
 7331SOL    HW229234   4.154  12.098   0.675  0.4453 -0.5004 -0.1535
 7332SOL     OW29235   3.848   3.064   8.427  0.4614 -0.5095  0.2667
 7332SOL    HW129236   3.861   2.970   8.435 -0.6844 -0.6101  1.2708
 7332SOL    HW229237   3.756   3.074   8.402  0.6880  0.3306 -0.2918
 7333SOL     OW29238  12.167   3.859  10.427 -0.4611 -0.7939  0.6154
 7333SOL    HW129239  12.255   3.893  10.443 -1.0549  0.1849  1.9481
 7333SOL    HW229240  12.113   3.937  10.412 -0.6791 -1.4341 -2.9509
 7334SOL     OW29241   1.513   8.051   3.556  0.2535 -0.3975  0.0073
 7334SOL    HW129242   1.449   8.092   3.497  0.2240  1.4530  1.2597
 7334SOL    HW229243   1.587   8.111   3.557  1.0421 -1.3382  0.4411
 7335SOL     OW29244  11.730  10.507   7.448 -0.6101 -0.5550 -0.0845
 7335SOL    HW129245  11.781  10.465   7.379 -1.0042 -1.9805  0.4450
 7335SOL    HW229246  11.639  10.491   7.424 -0.7537 -0.7438  0.5551
 7336SOL     OW29247   0.815   4.939   7.361 -0.1997 -0.1980 -0.2343
 7336SOL    HW129248   0.777   4.865   7.409 -1.6462  1.0780  0.6669
 7336SOL    HW229249   0.901   4.952   7.400 -0.8255 -0.0243  1.1332
 7337SOL     OW29250   2.580   4.304  10.185 -0.1660  0.0171  0.1579
 7337SOL    HW129251   2.599   4.316  10.092 -0.3889  2.2824  0.3595
 7337SOL    HW229252   2.518   4.231  10.187  0.5323 -0.6694 -1.3775
 7338SOL     OW29253   2.663   9.864   4.386  0.1728  0.2271 -0.1222
 7338SOL    HW129254   2.575   9.873   4.351  0.1622 -3.2918 -1.4240
 7338SOL    HW229255   2.650   9.845   4.479 -0.4941 -0.4618 -0.3473
 7339SOL     OW29256   1.767   2.082   8.534  0.0768 -0.2091 -0.3278
 7339SOL    HW129257   1.699   2.107   8.597  0.3831 -1.6033  0.6023
 7339SOL    HW229258   1.758   1.987   8.525  2.4267 -0.5675  0.4766
 7340SOL     OW29259  10.718   6.668   3.337 -0.3002 -0.6002 -0.3129
 7340SOL    HW129260  10.744   6.756   3.364 -0.4970 -0.6433  0.0192
 7340SOL    HW229261  10.671   6.682   3.254  0.8722 -0.5355 -0.9920
 7341SOL     OW29262   1.370   4.484  12.381 -0.6381 -0.7030  0.2108
 7341SOL    HW129263   1.308   4.494  12.453  0.5993 -0.6308  1.2943
 7341SOL    HW229264   1.438   4.548  12.398  0.4245 -1.6703 -0.2200
 7342SOL     OW29265   6.972   5.775  10.638 -0.7247 -0.1843  0.1036
 7342SOL    HW129266   6.924   5.711  10.586 -0.4091 -0.6354  0.3621
 7342SOL    HW229267   6.961   5.858  10.590  1.2729 -0.9551 -1.8324
 7343SOL     OW29268   4.374   3.111   6.947 -0.4502  0.4380 -0.6435
 7343SOL    HW129269   4.416   3.059   6.877  0.9474  0.0537  0.4262
 7343SOL    HW229270   4.286   3.127   6.915 -0.4753 -1.3942 -1.6581
 7344SOL     OW29271   1.124   7.938   2.945 -0.2755 -0.1471  0.0699
 7344SOL    HW129272   1.052   7.881   2.973 -0.4189 -0.0239 -0.0518
 7344SOL    HW229273   1.140   7.913   2.854  0.8402 -1.2336  0.5389
 7345SOL     OW29274  12.407   1.169   1.956  0.6413  0.3897  0.0984
 7345SOL    HW129275  12.492   1.147   1.918  0.9167  1.5529  0.0137
 7345SOL    HW229276  12.400   1.264   1.947  0.1910  0.5725  1.8827
 7346SOL     OW29277   0.759  11.667   1.308  0.1547  0.4681  0.2827
 7346SOL    HW129278   0.673  11.667   1.350 -0.4817 -0.3911 -0.9578
 7346SOL    HW229279   0.754  11.736   1.243  0.0809 -0.1466 -0.3773
 7347SOL     OW29280   5.353   0.086   1.345  0.3126 -0.3194 -0.0655
 7347SOL    HW129281   5.366   0.129   1.429  1.0802  0.9263 -0.7891
 7347SOL    HW229282   5.440   0.053   1.321  0.4377  0.6911 -1.0718
 7348SOL     OW29283  12.530   2.626  11.765  0.5278  0.2178 -0.0541
 7348SOL    HW129284  12.499   2.702  11.716  0.5174 -0.0650 -0.4895
 7348SOL    HW229285  12.493   2.636  11.853  0.4546  0.6662 -0.1378
 7349SOL     OW29286  12.650   0.146  11.289 -0.5963 -0.3472  0.6965
 7349SOL    HW129287  12.698   0.200  11.226 -1.6177 -0.5695 -0.3019
 7349SOL    HW229288  12.700   0.155  11.371  0.4036  0.4510  0.0299
 7350SOL     OW29289   6.259   3.038   9.012  0.8212  0.2531  0.2111
 7350SOL    HW129290   6.310   3.084   9.078  0.5380  0.8648  0.0140
 7350SOL    HW229291   6.309   2.959   8.993  1.1814  0.3474  0.7491
 7351SOL     OW29292   6.481   1.511   2.289 -0.0873 -0.1753 -0.2675
 7351SOL    HW129293   6.400   1.545   2.328 -0.5708 -1.4948 -0.0641
 7351SOL    HW229294   6.468   1.417   2.286  1.6883 -0.4638  0.2523
 7352SOL     OW29295   2.346   2.897   9.970 -0.1620 -0.2489  0.2038
 7352SOL    HW129296   2.270   2.861   9.923  1.2733 -2.8165 -0.3277
 7352SOL    HW229297   2.380   2.965   9.912  1.3584 -3.0858 -2.5535
 7353SOL     OW29298   7.174   4.048   1.110  0.8359  0.1198  0.7597
 7353SOL    HW129299   7.093   4.077   1.066  1.1066 -0.3980 -0.1011
 7353SOL    HW229300   7.244   4.092   1.062  1.2122 -1.3757 -0.1224
 7354SOL     OW29301   1.258   0.868   2.550  0.0734  0.4156  0.0465
 7354SOL    HW129302   1.296   0.783   2.576 -0.3302  0.0520 -0.5166
 7354SOL    HW229303   1.291   0.882   2.461  0.6897  1.1901  0.3830
 7355SOL     OW29304   3.069   0.937   9.977 -0.7657  0.1015 -0.1103
 7355SOL    HW129305   3.111   0.917  10.060  0.8184  0.7159 -0.7225
 7355SOL    HW229306   3.140   0.969   9.921 -2.1980  2.2931 -0.8400
 7356SOL     OW29307   3.174   0.292   8.483 -0.0160 -0.7027  0.1542
 7356SOL    HW129308   3.207   0.222   8.540  2.4819  0.9356  0.9022
 7356SOL    HW229309   3.143   0.359   8.544 -0.2549 -0.2233 -0.4953
 7357SOL     OW29310   7.910   8.214   4.267 -0.3120  0.5713  0.1476
 7357SOL    HW129311   7.959   8.175   4.339  0.0147  0.6137 -0.0466
 7357SOL    HW229312   7.818   8.202   4.290 -0.2400 -1.1177 -0.3332
 7358SOL     OW29313   5.130   6.527   3.728  0.2757 -0.3334  0.6916
 7358SOL    HW129314   5.221   6.512   3.705 -0.0123  0.4607 -1.1238
 7358SOL    HW229315   5.130   6.606   3.782  0.6456 -0.2905  0.6249
 7359SOL     OW29316   7.835   0.910  11.254  0.4521 -0.0980  0.1097
 7359SOL    HW129317   7.760   0.866  11.292 -1.1681  1.9197 -0.5814
 7359SOL    HW229318   7.870   0.847  11.191  0.2526 -1.6102  1.4574
 7360SOL     OW29319   1.723  11.709   2.307 -0.0736 -0.0257 -0.2954
 7360SOL    HW129320   1.658  11.777   2.288  1.3200  1.2949 -0.6206
 7360SOL    HW229321   1.807  11.753   2.292  0.8775 -1.8746 -0.5975
 7361SOL     OW29322   1.746  10.107   3.730 -0.2654  0.3437 -0.0070
 7361SOL    HW129323   1.676  10.137   3.673  1.0564  0.9230 -1.4019
 7361SOL    HW229324   1.793  10.042   3.678  1.2212  1.1877  0.2105
 7362SOL     OW29325  11.746   6.995  11.701 -0.0176 -0.0366  0.4896
 7362SOL    HW129326  11.652   7.013  11.695 -0.3647 -1.3654  1.3637
 7362SOL    HW229327  11.780   7.015  11.614 -1.5121 -1.5824 -0.5091
 7363SOL     OW29328   9.874   2.239   8.409 -0.1995 -0.2818 -0.3739
 7363SOL    HW129329   9.782   2.221   8.426 -1.0382  1.6885 -2.3717
 7363SOL    HW229330   9.894   2.316   8.463  0.7378 -1.4731  1.0860
 7364SOL     OW29331   9.768   6.597  11.774  0.4170 -0.1127  0.0705
 7364SOL    HW129332   9.694   6.650  11.803  0.6322  0.1035  0.2239
 7364SOL    HW229333   9.791   6.545  11.851  2.2338  1.8485  0.9472
 7365SOL     OW29334  11.770   1.367   9.821  0.0335 -0.2177 -0.0726
 7365SOL    HW129335  11.711   1.357   9.896  0.2230 -2.8208 -0.1752
 7365SOL    HW229336  11.832   1.295   9.830  0.9075  0.2412 -1.9894
 7366SOL     OW29337   9.775   1.337   5.212  0.6557  0.1435 -0.4257
 7366SOL    HW129338   9.713   1.303   5.275 -0.3798  1.4735 -0.6931
 7366SOL    HW229339   9.731   1.330   5.127  1.1430  0.4325 -0.7161
 7367SOL     OW29340   0.549   9.094  10.671  0.2238 -0.2188 -0.3786
 7367SOL    HW129341   0.609   9.142  10.729 -0.4903 -1.7997  1.7751
 7367SOL    HW229342   0.602   9.021  10.638  0.5382  0.5056 -1.5276
 7368SOL     OW29343   8.011   4.049   4.445  0.2768  0.0493  0.7627
 7368SOL    HW129344   8.085   4.057   4.386 -0.3520 -3.7005 -0.8301
 7368SOL    HW229345   8.047   4.011   4.525  0.5895  1.9837  1.6015
 7369SOL     OW29346   0.381   7.529   3.145 -0.3648 -0.3537 -0.2460
 7369SOL    HW129347   0.373   7.482   3.063  0.5530 -0.8474 -0.0661
 7369SOL    HW229348   0.313   7.596   3.141 -0.0892 -0.1268 -1.5678
 7370SOL     OW29349   4.941   1.943   7.581 -0.1699 -0.0786  0.2649
 7370SOL    HW129350   4.996   2.002   7.530 -0.1802  1.4665  1.9212
 7370SOL    HW229351   4.974   1.855   7.561  1.1467  0.6203 -0.7913
 7371SOL     OW29352   6.733  11.326   9.772  0.1085  0.2267  0.0258
 7371SOL    HW129353   6.765  11.343   9.683 -1.5500  0.2402 -0.6052
 7371SOL    HW229354   6.749  11.233   9.786  1.5852  0.4844  0.2583
 7372SOL     OW29355  11.696   6.583   9.078  0.5683 -0.4011 -0.0448
 7372SOL    HW129356  11.715   6.674   9.103  1.3392 -0.2901 -0.9866
 7372SOL    HW229357  11.779   6.548   9.048 -0.2643 -0.5651 -2.3274
 7373SOL     OW29358   7.910   8.529  11.848 -0.2603 -0.0320 -0.5419
 7373SOL    HW129359   7.820   8.537  11.816 -0.2998  0.1294 -0.3929
 7373SOL    HW229360   7.934   8.438  11.829 -0.9613 -0.5042  0.7277
 7374SOL     OW29361   0.971   7.084   2.008 -0.6923 -0.0033 -0.1260
 7374SOL    HW129362   1.006   7.125   2.087 -1.0231 -0.8182  0.4604
 7374SOL    HW229363   1.004   6.994   2.011 -0.9151 -0.1113 -0.7868
 7375SOL     OW29364   2.134   6.452   6.116 -0.2276  0.0355  0.0278
 7375SOL    HW129365   2.225   6.475   6.097 -0.3713  0.5586 -0.0520
 7375SOL    HW229366   2.098   6.423   6.032  0.4984 -2.4631  0.4990
 7376SOL     OW29367   9.111  12.587  11.141 -0.3360 -0.1227  0.5211
 7376SOL    HW129368   9.151  12.673  11.127 -0.1796 -0.3770 -0.7370
 7376SOL    HW229369   9.184  12.526  11.136 -0.6024 -0.4213  0.2081
 7377SOL     OW29370   9.311   6.580   0.173 -0.1167 -0.6754  0.6493
 7377SOL    HW129371   9.377   6.635   0.131  0.0090 -1.2537  0.0685
 7377SOL    HW229372   9.294   6.623   0.256  0.0191  0.2037  0.2335
 7378SOL     OW29373   1.456   7.975   8.797 -0.9263  0.3720 -0.3629
 7378SOL    HW129374   1.404   7.905   8.836  1.8361 -0.7834  1.5883
 7378SOL    HW229375   1.472   8.036   8.869  1.1530  0.1502 -0.5668
 7379SOL     OW29376   6.017   0.388   0.166  0.3558  0.0839 -0.4269
 7379SOL    HW129377   6.053   0.442   0.095  3.6809 -0.8922  0.3419
 7379SOL    HW229378   6.059   0.302   0.154 -2.3203 -1.4127  0.2469
 7380SOL     OW29379   2.246  12.208   0.422  0.0383  0.5482 -0.4363
 7380SOL    HW129380   2.159  12.181   0.452  0.4004  0.6062  0.7481
 7380SOL    HW229381   2.260  12.293   0.464  1.3404 -0.2372  0.8217
 7381SOL     OW29382  11.616   3.480  11.889  0.8631  0.1502  0.0317
 7381SOL    HW129383  11.538   3.431  11.915  1.6752 -0.9481  0.5234
 7381SOL    HW229384  11.687   3.416  11.896  2.3791  1.9415  3.0142
 7382SOL     OW29385   1.435  12.575   3.778 -0.4968  0.4378  0.5785
 7382SOL    HW129386   1.344  12.564   3.749  0.4950  1.5864 -3.6419
 7382SOL    HW229387   1.468  12.486   3.787 -1.1559 -0.0745 -1.4541
 7383SOL     OW29388   9.485   5.079   6.057 -0.1258  0.2611  0.1418
 7383SOL    HW129389   9.424   5.025   6.108  0.8984  0.6612  1.8691
 7383SOL    HW229390   9.570   5.066   6.100  0.8186  0.5882 -1.5233
 7384SOL     OW29391   7.972   3.132   0.623  0.1767  0.2483  0.1671
 7384SOL    HW129392   7.959   3.051   0.672  0.3985  0.0996 -0.0209
 7384SOL    HW229393   7.989   3.104   0.534 -1.2185  0.5419 -0.2212
 7385SOL     OW29394   2.524   1.039   1.997 -0.5222 -0.3829 -0.3215
 7385SOL    HW129395   2.606   1.056   1.950  0.4084  0.1969  1.4203
 7385SOL    HW229396   2.526   1.100   2.071 -1.2752 -2.1235  1.2093
 7386SOL     OW29397   7.514  10.115   6.298  0.0377  0.2644 -0.4403
 7386SOL    HW129398   7.590  10.068   6.263 -0.7519 -1.9923  0.6482
 7386SOL    HW229399   7.549  10.199   6.328  1.8741 -0.2596 -0.9601
 7387SOL     OW29400   4.632   5.829   9.021  0.7827 -0.4267  0.1170
 7387SOL    HW129401   4.638   5.754   9.081  2.7934 -0.3727  0.0519
 7387SOL    HW229402   4.668   5.903   9.072 -0.0231  0.2276 -0.2420
 7388SOL     OW29403   1.617   1.569   4.305  0.2908  0.4926  0.3724
 7388SOL    HW129404   1.529   1.546   4.335  0.4418  2.1281  2.2685
 7388SOL    HW229405   1.638   1.503   4.239 -2.8838  0.8266 -1.1780
 7389SOL     OW29406  12.252   2.115   9.983  0.1979  0.3566 -0.0907
 7389SOL    HW129407  12.276   2.067   9.904  0.1898 -1.2895  0.8534
 7389SOL    HW229408  12.278   2.057  10.055 -0.0565  1.6763  1.1192
 7390SOL     OW29409   9.699   9.774   0.939  0.0420 -0.2658  0.7658
 7390SOL    HW129410   9.670   9.707   0.877 -3.2765  0.4335  1.3540
 7390SOL    HW229411   9.710   9.726   1.021  2.9242 -0.9169  0.0882
 7391SOL     OW29412   0.689  10.637   8.095  0.4069  0.2372  0.4915
 7391SOL    HW129413   0.679  10.542   8.101 -0.5294 -0.0407 -3.1070
 7391SOL    HW229414   0.622  10.664   8.032  0.6342  3.3373  1.4134
 7392SOL     OW29415   0.295  10.280  12.464  0.1437  0.2701  0.6132
 7392SOL    HW129416   0.262  10.357  12.418 -2.2799 -0.5666  0.8360
 7392SOL    HW229417   0.291  10.209  12.400  1.5164  0.1067  0.6721
 7393SOL     OW29418   0.769   5.572   0.918 -0.1364 -0.7489  0.2039
 7393SOL    HW129419   0.741   5.642   0.977  0.2930 -0.2265 -0.1971
 7393SOL    HW229420   0.816   5.618   0.848 -0.5636 -1.3650 -0.4972
 7394SOL     OW29421   6.008   6.555   4.090  0.1999  0.6460  0.0861
 7394SOL    HW129422   5.949   6.480   4.100 -0.6088  1.0596 -1.2211
 7394SOL    HW229423   5.994   6.584   4.000  0.3619  2.4760  0.6045
 7395SOL     OW29424   8.536   7.581   9.926 -0.1922  0.1287  0.6890
 7395SOL    HW129425   8.492   7.619  10.002  0.1126 -1.3909  1.6878
 7395SOL    HW229426   8.579   7.655   9.883 -1.6586  1.2524  1.0994
 7396SOL     OW29427   3.016   3.564   4.649  0.0874  0.3017  0.1574
 7396SOL    HW129428   3.047   3.653   4.632  2.1179  0.1310  2.4507
 7396SOL    HW229429   2.972   3.569   4.734  1.5064 -1.0983  1.0274
 7397SOL     OW29430   2.453   4.225   5.334 -0.3402  0.2289  0.5785
 7397SOL    HW129431   2.470   4.279   5.411 -1.3202  0.9577  0.2981
 7397SOL    HW229432   2.538   4.219   5.289 -0.1414  1.2257  0.8055
 7398SOL     OW29433  11.910  10.761   2.954  0.2751  0.4598 -0.3489
 7398SOL    HW129434  11.867  10.831   2.905 -0.9255  0.4238  0.5968
 7398SOL    HW229435  11.929  10.694   2.889 -2.0112  0.0643 -0.6933
 7399SOL     OW29436  10.300   3.048   7.786 -0.1500 -0.3658 -0.0110
 7399SOL    HW129437  10.361   2.980   7.815  0.0264 -0.6916 -1.1131
 7399SOL    HW229438  10.230   3.000   7.741 -1.1141  0.0211  1.0352
 7400SOL     OW29439   1.360   4.574   0.935  0.0120 -0.1181 -0.2056
 7400SOL    HW129440   1.415   4.636   0.983 -0.3885 -0.2374  0.4117
 7400SOL    HW229441   1.344   4.503   0.997 -1.8507  0.4906  0.0534
 7401SOL     OW29442   9.771   7.121  11.021  0.1215  0.3739  0.5318
 7401SOL    HW129443   9.862   7.134  11.047  0.5281 -0.9177 -0.1953
 7401SOL    HW229444   9.776   7.092  10.930 -1.0639  0.9452  0.2661
 7402SOL     OW29445   0.052   3.047   3.005  0.2279 -0.1581  0.2266
 7402SOL    HW129446   0.120   3.113   3.017 -1.6684  1.6838  1.6910
 7402SOL    HW229447   0.020   3.061   2.915  0.7639 -0.0588  0.0482
 7403SOL     OW29448   5.514   2.981   4.067  0.4288  0.5299 -0.3361
 7403SOL    HW129449   5.472   2.965   3.983 -1.0928  1.6835  0.1612
 7403SOL    HW229450   5.443   2.982   4.130  1.3761  1.0876  0.7718
 7404SOL     OW29451   8.736   2.208   8.320 -0.4585  0.2700 -0.2341
 7404SOL    HW129452   8.816   2.220   8.372 -1.0356  0.4036  0.6552
 7404SOL    HW229453   8.726   2.113   8.314 -0.1577  0.2513 -0.4741
 7405SOL     OW29454   1.327   1.076   6.744 -0.0736  0.1776 -0.4462
 7405SOL    HW129455   1.304   1.152   6.690 -1.2597 -0.2612 -0.5909
 7405SOL    HW229456   1.250   1.020   6.741 -0.6488  0.6210  2.5948
 7406SOL     OW29457   9.563   2.799   3.295  0.6575  0.4491 -0.1877
 7406SOL    HW129458   9.580   2.706   3.279 -0.7128 -0.0038  0.7398
 7406SOL    HW229459   9.546   2.836   3.208 -0.7400 -0.6275 -0.4056
 7407SOL     OW29460  10.983   9.334   4.587 -0.1052  0.7631  0.0581
 7407SOL    HW129461  11.071   9.306   4.612  0.0660  0.5709 -0.7346
 7407SOL    HW229462  10.927   9.258   4.606  0.1798  0.2582 -1.0337
 7408SOL     OW29463   1.471  10.951   7.919  0.4545 -0.4292  0.1399
 7408SOL    HW129464   1.449  10.860   7.941 -1.1362 -0.2640 -0.5923
 7408SOL    HW229465   1.563  10.948   7.892  1.2452 -1.3277  2.6523
 7409SOL     OW29466   8.356   9.017   6.206 -0.0470  0.0726  0.5795
 7409SOL    HW129467   8.338   9.065   6.125 -1.5752  0.3431  1.0360
 7409SOL    HW229468   8.344   9.081   6.276 -0.3539 -0.5360  1.0982
 7410SOL     OW29469  10.944   7.156  10.212 -0.0750  0.6582  0.0254
 7410SOL    HW129470  10.997   7.229  10.243 -0.6717  1.3106 -0.4616
 7410SOL    HW229471  10.898   7.124  10.290  1.6958 -0.5116  0.6455
 7411SOL     OW29472   2.521   6.913  10.805  0.5743 -0.3673  0.2466
 7411SOL    HW129473   2.501   7.005  10.820 -1.2633 -0.9364  1.6185
 7411SOL    HW229474   2.615   6.905  10.823  1.1792  1.5239 -1.6234
 7412SOL     OW29475  10.624  11.803   0.584  0.8448 -0.1652 -0.3655
 7412SOL    HW129476  10.702  11.830   0.536 -0.2859  0.0102 -2.2512
 7412SOL    HW229477  10.586  11.885   0.616  0.3944 -0.0248 -1.2159
 7413SOL     OW29478  10.565  12.279   7.537  0.3836 -0.0137 -0.1981
 7413SOL    HW129479  10.493  12.223   7.565  0.3434  0.6192  1.0169
 7413SOL    HW229480  10.555  12.359   7.589  1.8785  0.1396 -0.1102
 7414SOL     OW29481   8.440   9.987   4.424 -0.5235  0.2538 -0.1594
 7414SOL    HW129482   8.469   9.896   4.432  0.9723  0.5712 -1.4362
 7414SOL    HW229483   8.499  10.025   4.358 -2.5985  1.5103 -1.4100
 7415SOL     OW29484   4.926   0.529   6.000  0.1916  0.6277 -0.8902
 7415SOL    HW129485   4.913   0.454   5.941  0.4734  1.0957 -1.5538
 7415SOL    HW229486   5.016   0.519   6.032  0.0157  0.3356 -0.4746
 7416SOL     OW29487   3.025   6.796   8.350 -0.2795  0.3221 -0.0680
 7416SOL    HW129488   3.084   6.729   8.383 -0.8455 -0.2718 -0.2276
 7416SOL    HW229489   3.045   6.802   8.256  0.3556  0.9980  0.0991
 7417SOL     OW29490   6.967   3.828   8.987  0.0823 -0.2419  0.7419
 7417SOL    HW129491   6.891   3.883   9.006  1.1103  1.7203 -0.5391
 7417SOL    HW229492   6.961   3.811   8.893  0.2344 -1.6950  0.9634
 7418SOL     OW29493  10.635   9.724   7.071 -0.1002  0.0523  0.5360
 7418SOL    HW129494  10.650   9.783   7.144 -0.6476  0.9992 -0.0930
 7418SOL    HW229495  10.708   9.663   7.073  1.2236  1.5790  0.4124
 7419SOL     OW29496  12.041  11.014   2.482  0.1475 -0.0031  0.3326
 7419SOL    HW129497  12.000  10.994   2.398  2.4214  0.2684 -0.9267
 7419SOL    HW229498  11.999  10.954   2.544 -0.9933 -0.8052 -1.1390
 7420SOL     OW29499   7.740  12.522   8.980 -0.4656  0.0932 -0.2616
 7420SOL    HW129500   7.668  12.467   9.010  0.8598 -2.0933 -0.8533
 7420SOL    HW229501   7.770  12.481   8.899 -0.1770  2.4346 -1.4487
 7421SOL     OW29502   4.101   8.316   6.078  0.1026  0.3969 -0.0296
 7421SOL    HW129503   4.051   8.258   6.020  0.9979 -1.0682  0.5943
 7421SOL    HW229504   4.145   8.377   6.018 -0.7335  0.3309 -0.7284
 7422SOL     OW29505   7.821   2.183   2.204 -0.4337  0.3276  0.3014
 7422SOL    HW129506   7.854   2.260   2.157  2.6953 -1.0105  0.0182
 7422SOL    HW229507   7.867   2.185   2.288 -0.3120 -1.1719  0.3036
 7423SOL     OW29508   4.474   4.958   6.142  0.2547  0.7509 -0.4516
 7423SOL    HW129509   4.423   4.878   6.133 -0.7829  1.4581 -1.2458
 7423SOL    HW229510   4.565   4.929   6.152 -0.0676 -0.5037 -1.0520
 7424SOL     OW29511  12.394   2.601  11.187  0.4186 -0.3341  0.3559
 7424SOL    HW129512  12.436   2.587  11.272 -0.3422 -0.2004  0.7631
 7424SOL    HW229513  12.320   2.539  11.187 -0.4197  0.6368  0.3844
 7425SOL     OW29514   9.345  10.096   4.687 -0.0793  0.1703  0.3236
 7425SOL    HW129515   9.392  10.154   4.747 -1.6760  0.8653  0.9705
 7425SOL    HW229516   9.346  10.010   4.730  1.4330 -0.0761 -0.1596
 7426SOL     OW29517   3.347   8.688   6.551  0.1198  0.2256  0.1896
 7426SOL    HW129518   3.357   8.703   6.645 -1.4022  0.8265  0.2785
 7426SOL    HW229519   3.367   8.596   6.538  0.7916  0.2477  1.0250
 7427SOL     OW29520   3.476  12.253   6.918 -0.1772 -0.1505 -0.2239
 7427SOL    HW129521   3.492  12.184   6.854  2.1214 -0.8568  1.0002
 7427SOL    HW229522   3.492  12.334   6.872  2.4142 -0.6745 -0.3962
 7428SOL     OW29523   6.176   0.196   7.648  0.0070  0.4850 -0.0921
 7428SOL    HW129524   6.190   0.187   7.554 -1.2769  0.0854 -0.2710
 7428SOL    HW229525   6.148   0.287   7.660 -1.0027  0.2180 -0.2867
 7429SOL     OW29526  10.717  12.653   9.495  0.3285 -0.8913 -0.1265
 7429SOL    HW129527  10.755  12.579   9.446 -0.0410 -0.2287 -1.4665
 7429SOL    HW229528  10.639  12.617   9.536 -0.4163 -1.0362 -1.6035
 7430SOL     OW29529   1.826   9.201   1.771  0.6391  0.1263  0.0659
 7430SOL    HW129530   1.868   9.279   1.804  1.6512  0.1719 -1.2455
 7430SOL    HW229531   1.887   9.166   1.706 -0.2767 -1.1485 -0.1555
 7431SOL     OW29532  10.645  11.334   9.440 -0.6662 -0.1900 -0.1185
 7431SOL    HW129533  10.593  11.313   9.362  1.0107 -0.9138 -1.1014
 7431SOL    HW229534  10.692  11.414   9.416 -1.5414  0.6542  0.8881
 7432SOL     OW29535  11.848   4.075  12.221  0.0527 -0.0957  0.5283
 7432SOL    HW129536  11.843   3.992  12.174  0.1095 -0.1429  0.6048
 7432SOL    HW229537  11.863   4.141  12.153 -0.3065 -0.1096  0.4342
 7433SOL     OW29538   9.415  11.615   6.306 -0.7705  0.0650  0.1189
 7433SOL    HW129539   9.358  11.628   6.230 -0.3735 -1.0620 -0.3995
 7433SOL    HW229540   9.411  11.698   6.354 -2.2514  0.2626 -0.2934
 7434SOL     OW29541  12.577   5.330   0.876 -0.4434 -0.1139  0.6246
 7434SOL    HW129542  12.523   5.328   0.955 -0.3241  0.2578  0.7221
 7434SOL    HW229543  12.660   5.290   0.903  0.0684  1.1637  1.0723
 7435SOL     OW29544   5.113   5.433   2.278  0.8429 -0.6602 -0.5449
 7435SOL    HW129545   5.177   5.368   2.306  1.3079  0.1140  0.2101
 7435SOL    HW229546   5.043   5.381   2.238  2.3744 -1.4647 -2.3410
 7436SOL     OW29547  12.250  10.550   4.059 -0.4841 -0.2399  0.4006
 7436SOL    HW129548  12.169  10.557   4.110 -1.3870  1.5710 -1.1516
 7436SOL    HW229549  12.241  10.617   3.991  2.2703 -0.0830  0.0834
 7437SOL     OW29550   1.123  10.209   8.365 -0.2089 -0.0435 -0.3134
 7437SOL    HW129551   1.096  10.155   8.291 -0.4629 -0.5350  0.1292
 7437SOL    HW229552   1.043  10.222   8.416  0.2893 -1.2724  0.8653
 7438SOL     OW29553   3.860  10.739   3.767  0.2745 -0.4958  0.5093
 7438SOL    HW129554   3.828  10.666   3.820 -2.7208 -0.6017 -1.2096
 7438SOL    HW229555   3.844  10.817   3.820 -1.0560 -0.7346  0.4896
 7439SOL     OW29556  11.374   3.435   1.564 -0.5943  0.2372  0.4432
 7439SOL    HW129557  11.351   3.485   1.643 -1.9463  0.7304 -0.2197
 7439SOL    HW229558  11.383   3.501   1.496  1.0933 -0.1414  0.2720
 7440SOL     OW29559   3.115   4.386  12.005 -0.0976  0.0137 -0.0666
 7440SOL    HW129560   3.092   4.387  11.912 -0.3720  0.8782 -0.0012
 7440SOL    HW229561   3.041   4.343  12.048 -0.9072  1.3589 -0.0417
 7441SOL     OW29562   8.587   9.910   0.752 -0.4518  0.3799 -0.3045
 7441SOL    HW129563   8.537   9.912   0.671  1.8008  0.4532 -1.7800
 7441SOL    HW229564   8.565   9.826   0.792 -1.3850  0.2205 -1.1055
 7442SOL     OW29565   5.652   0.671   0.243  0.1328  0.2720  0.2649
 7442SOL    HW129566   5.690   0.619   0.171  0.7896 -0.6130  1.2302
 7442SOL    HW229567   5.573   0.709   0.205 -1.2232 -2.6093 -0.0882
 7443SOL     OW29568  12.224  10.002   9.097  0.2243  0.6716 -0.2088
 7443SOL    HW129569  12.320  10.004   9.095  0.3128  0.4588  1.9090
 7443SOL    HW229570  12.199  10.087   9.135 -0.4790  1.0248 -1.4124
 7444SOL     OW29571  11.142   7.903   1.291  0.2279 -0.1329  0.4013
 7444SOL    HW129572  11.206   7.975   1.289  0.1396 -0.0680 -0.2521
 7444SOL    HW229573  11.066   7.938   1.244  0.4873 -0.9390 -0.6592
 7445SOL     OW29574   9.448   6.014   2.685 -0.3526 -0.2475  0.5532
 7445SOL    HW129575   9.515   6.073   2.651 -0.1609 -0.9258 -0.2739
 7445SOL    HW229576   9.382   6.072   2.723  0.5419  0.4376  1.1073
 7446SOL     OW29577   6.545   1.826   7.701  0.2277 -0.4642  0.2125
 7446SOL    HW129578   6.476   1.763   7.720 -0.6654  0.0273 -1.2458
 7446SOL    HW229579   6.600   1.825   7.779 -1.8040 -0.3501  1.7320
 7447SOL     OW29580  10.055  10.156   9.132  0.0987 -0.8658 -0.0204
 7447SOL    HW129581  10.129  10.198   9.088 -0.4408  0.4789  0.3059
 7447SOL    HW229582  10.013  10.104   9.064  0.0614  0.1236 -0.7720
 7448SOL     OW29583   4.928   9.082  11.147  0.0401 -0.5461 -0.3996
 7448SOL    HW129584   4.985   9.055  11.219  0.5808  1.0222 -0.2023
 7448SOL    HW229585   4.985   9.084  11.071  0.4172  1.3589 -0.1392
 7449SOL     OW29586  10.344   3.542   0.839  0.2981 -0.1786 -0.1189
 7449SOL    HW129587  10.301   3.592   0.770 -1.0220 -1.4167 -0.2484
 7449SOL    HW229588  10.363   3.457   0.798  0.1343 -0.6777  0.8160
 7450SOL     OW29589   6.759   3.883  10.253  0.1864  0.0140  0.2875
 7450SOL    HW129590   6.843   3.928  10.261 -0.6933  1.5808  1.1099
 7450SOL    HW229591   6.702   3.927  10.315 -1.7667  0.1828 -1.5076
 7451SOL     OW29592   1.278   6.774   9.747 -0.0779  0.4264 -1.0233
 7451SOL    HW129593   1.192   6.789   9.706 -1.2962 -2.2208  0.2793
 7451SOL    HW229594   1.257   6.735   9.832  2.3920 -1.9427 -1.3683
 7452SOL     OW29595  11.998  10.437   8.870 -0.5521 -0.2916 -0.0832
 7452SOL    HW129596  12.064  10.376   8.903 -0.4261 -0.0480  0.1245
 7452SOL    HW229597  12.031  10.464   8.784  0.5522  1.2050  0.7666
 7453SOL     OW29598   8.866   4.102   9.214 -0.1981 -0.4452 -0.4300
 7453SOL    HW129599   8.925   4.081   9.142  1.1490  2.4042 -0.2619
 7453SOL    HW229600   8.917   4.085   9.293  0.8376  2.6777 -0.2854
 7454SOL     OW29601  10.935  11.785   1.385  0.0657 -0.1974  0.1375
 7454SOL    HW129602  10.865  11.842   1.352  0.8876  0.1208 -1.1291
 7454SOL    HW229603  10.897  11.743   1.462 -1.2861  0.4837 -0.1211
 7455SOL     OW29604   0.222   5.342   7.312  0.2931  0.1734  0.3954
 7455SOL    HW129605   0.219   5.252   7.281 -0.3687  0.1098  0.6421
 7455SOL    HW229606   0.287   5.341   7.382  1.9954  0.3663 -1.0964
 7456SOL     OW29607   3.382   0.773   5.389 -0.6422 -0.1665 -0.5757
 7456SOL    HW129608   3.387   0.802   5.298 -1.2318  2.1277  0.0523
 7456SOL    HW229609   3.297   0.806   5.419  0.5762  1.3269  1.4669
 7457SOL     OW29610   3.119   3.598   5.539 -0.2921  0.1043 -0.5061
 7457SOL    HW129611   3.137   3.689   5.518 -0.8330  0.2007 -0.5657
 7457SOL    HW229612   3.035   3.580   5.497 -1.4110  0.2966  1.5187
 7458SOL     OW29613   3.945   9.864   2.731  0.7064  0.2273 -0.3655
 7458SOL    HW129614   3.982   9.822   2.808  0.0942 -0.1691 -0.2805
 7458SOL    HW229615   3.920   9.792   2.674  0.2330  0.4901 -0.4942
 7459SOL     OW29616  10.772  11.630   1.542 -0.3619  0.6205  0.1533
 7459SOL    HW129617  10.693  11.604   1.494 -0.3123 -1.6434  1.1646
 7459SOL    HW229618  10.741  11.651   1.630 -0.1811  2.6707 -0.2342
 7460SOL     OW29619   4.091   7.982   7.318 -0.5028 -0.0379 -0.3295
 7460SOL    HW129620   4.136   7.909   7.360  1.1385  1.4990  0.7444
 7460SOL    HW229621   4.162   8.041   7.291 -1.7825  1.4664 -0.5685
 7461SOL     OW29622  12.530   2.857   3.265 -0.3643  0.3963 -0.0594
 7461SOL    HW129623  12.464   2.869   3.197 -1.0121  0.0096  0.4811
 7461SOL    HW229624  12.493   2.789   3.323  0.5165  0.1506  0.2410
 7462SOL     OW29625   4.634  11.647  11.172  0.2172  0.2312 -0.1763
 7462SOL    HW129626   4.726  11.621  11.168  0.2597  0.1735  0.8463
 7462SOL    HW229627   4.601  11.605  11.252 -0.3085  1.4213  0.2588
 7463SOL     OW29628   0.845   1.128   0.520 -0.3143 -0.8582  0.3195
 7463SOL    HW129629   0.879   1.110   0.432 -2.0426  2.2490 -1.1447
 7463SOL    HW229630   0.904   1.194   0.556 -1.1608 -0.0612  0.3027
 7464SOL     OW29631  12.330   6.949   8.516  0.6968  0.1212 -0.3614
 7464SOL    HW129632  12.376   6.965   8.598  1.4586 -1.8211 -0.3482
 7464SOL    HW229633  12.257   6.892   8.540  0.4069  0.2557 -0.8966
 7465SOL     OW29634   2.776   2.108   1.658 -0.0735 -0.5765  0.6191
 7465SOL    HW129635   2.770   2.172   1.587 -0.3422  0.8573  1.9018
 7465SOL    HW229636   2.859   2.064   1.643 -0.3904 -0.7280 -0.9144
 7466SOL     OW29637   4.460   1.549   2.808  0.3934  0.0248  0.0537
 7466SOL    HW129638   4.440   1.528   2.717  0.1843 -0.4977  0.2196
 7466SOL    HW229639   4.485   1.466   2.847 -1.1958 -0.0866  0.9156
 7467SOL     OW29640   4.023   2.393   9.976  0.6302 -0.4484  0.7123
 7467SOL    HW129641   4.040   2.426  10.064  0.7598 -0.9592  0.8823
 7467SOL    HW229642   4.109   2.393   9.933  0.5499 -0.0938  0.5438
 7468SOL     OW29643   6.964   5.517   7.377  0.2392  0.0779  0.2761
 7468SOL    HW129644   6.922   5.453   7.319 -0.0180  0.3808  0.1290
 7468SOL    HW229645   7.045   5.474   7.405  0.3462 -0.0816 -0.2726
 7469SOL     OW29646   3.262  10.898   4.156  0.0841 -0.6470  0.5471
 7469SOL    HW129647   3.255  10.973   4.098  0.1804 -1.6171 -0.7503
 7469SOL    HW229648   3.193  10.838   4.127  2.3264 -2.6830 -0.9159
 7470SOL     OW29649   3.511   5.873   5.407  0.0352 -0.4751  0.2200
 7470SOL    HW129650   3.497   5.801   5.469 -1.4532 -1.1115 -0.8022
 7470SOL    HW229651   3.600   5.860   5.376  0.4335 -0.7692  1.4343
 7471SOL     OW29652   8.718   8.022   7.554 -0.3821  0.4870 -0.3823
 7471SOL    HW129653   8.626   8.012   7.530 -0.4449 -0.0743  0.0861
 7471SOL    HW229654   8.747   8.098   7.503 -0.7518 -0.1243 -1.5472
 7472SOL     OW29655   0.237   6.224  10.838  0.0916  0.4861 -0.4486
 7472SOL    HW129656   0.296   6.297  10.824  2.4932 -0.9325  1.4097
 7472SOL    HW229657   0.174   6.229  10.766  1.8784  2.6827 -1.9815
 7473SOL     OW29658   9.074   9.079   6.476  0.4685 -0.3443  0.0504
 7473SOL    HW129659   9.139   9.009   6.472  0.3742 -0.5245  1.3310
 7473SOL    HW229660   9.080   9.122   6.391  1.4668 -1.0670 -0.2612
 7474SOL     OW29661   0.583   1.543   1.576  0.3474  0.2601 -0.5836
 7474SOL    HW129662   0.526   1.480   1.533  0.1424  0.8777 -1.2390
 7474SOL    HW229663   0.531   1.624   1.579  0.6022  0.4077  0.2342
 7475SOL     OW29664   3.200   3.380   6.607  0.1985 -0.1339 -0.0066
 7475SOL    HW129665   3.215   3.461   6.558 -0.2629  0.1328  0.2760
 7475SOL    HW229666   3.160   3.320   6.544 -0.0085  0.0642 -0.0652
 7476SOL     OW29667   5.060   3.542  11.255  0.2380  0.3037 -0.1394
 7476SOL    HW129668   4.987   3.602  11.238 -0.2318 -0.5691 -1.2766
 7476SOL    HW229669   5.032   3.493  11.333 -1.2098 -1.2363 -1.5564
 7477SOL     OW29670   9.962   4.266   9.603 -0.0172 -0.4388 -0.0923
 7477SOL    HW129671   9.895   4.219   9.554 -0.4391 -0.1079  0.1643
 7477SOL    HW229672  10.027   4.199   9.626  0.3126 -0.5514 -1.3050
 7478SOL     OW29673   9.364   0.056   6.391 -0.1286 -0.3429 -0.0248
 7478SOL    HW129674   9.366   0.024   6.301 -0.1052  0.7314 -0.4164
 7478SOL    HW229675   9.301   0.128   6.390 -0.4779 -0.6176  0.9231
 7479SOL     OW29676   8.590   9.213   2.498  0.6668  0.1457  0.3843
 7479SOL    HW129677   8.673   9.245   2.464  0.6513 -0.4884 -0.2825
 7479SOL    HW229678   8.548   9.290   2.536 -0.0069  1.2897 -2.3860
 7480SOL     OW29679   1.502   5.865   9.611 -0.8261  0.1926 -0.0688
 7480SOL    HW129680   1.500   5.915   9.692  0.2715  0.9461 -0.4733
 7480SOL    HW229681   1.485   5.774   9.637 -0.1747  0.3766  1.0450
 7481SOL     OW29682   7.837   6.353   2.048 -0.2858 -0.0634 -0.0779
 7481SOL    HW129683   7.800   6.353   2.136 -1.9883  0.1533 -0.7552
 7481SOL    HW229684   7.804   6.272   2.008 -1.0459  0.7370 -1.1014
 7482SOL     OW29685   6.910  11.518  11.456  0.0641 -0.0097  0.2527
 7482SOL    HW129686   7.003  11.540  11.468  0.0181  0.5239 -0.3306
 7482SOL    HW229687   6.902  11.499  11.362 -0.1037 -1.5801  0.5620
 7483SOL     OW29688   5.007   5.586   7.824  0.3025 -0.0253 -0.1657
 7483SOL    HW129689   5.083   5.643   7.840  0.8026 -0.9171  0.7962
 7483SOL    HW229690   5.040   5.497   7.840 -1.1964 -0.3654  1.4310
 7484SOL     OW29691   8.619   5.060  11.462  0.1082  0.1326 -0.2084
 7484SOL    HW129692   8.715   5.062  11.461  0.1663 -0.1469  1.3981
 7484SOL    HW229693   8.593   5.152  11.467  0.2803  0.2090 -0.6341
 7485SOL     OW29694   9.941  12.346   5.887 -0.4638 -0.2089 -0.2584
 7485SOL    HW129695  10.020  12.337   5.834  0.7914 -0.5002  1.5704
 7485SOL    HW229696   9.894  12.263   5.874  1.0559 -1.3204  0.9138
 7486SOL     OW29697   9.488   7.197  11.535  0.1160 -0.4312  0.0127
 7486SOL    HW129698   9.494   7.282  11.492  1.0728 -1.3064 -1.6874
 7486SOL    HW229699   9.560   7.196  11.597  0.4077 -0.1787 -0.3181
 7487SOL     OW29700   3.218   8.323  11.277  0.2644 -0.1386 -0.3994
 7487SOL    HW129701   3.205   8.242  11.326  0.4502 -0.6650 -1.1956
 7487SOL    HW229702   3.258   8.383  11.339 -1.8255  0.0679  0.8368
 7488SOL     OW29703   8.848   5.676   6.103  0.1506  0.2468  0.1153
 7488SOL    HW129704   8.853   5.583   6.126  0.7787  0.7431  2.2293
 7488SOL    HW229705   8.924   5.690   6.047  0.3707 -0.4207  0.2332
 7489SOL     OW29706  11.583   4.716   1.236 -0.4574 -0.7063 -0.7228
 7489SOL    HW129707  11.670   4.679   1.225 -0.2968 -0.3995 -0.5175
 7489SOL    HW229708  11.599   4.807   1.264 -0.8409 -0.7398 -0.3771
 7490SOL     OW29709  10.883   7.494   2.578 -0.1204  1.1460  0.0184
 7490SOL    HW129710  10.831   7.416   2.559  1.1921  0.1381  0.4624
 7490SOL    HW229711  10.839   7.533   2.654 -0.4725  0.5519  0.1301
 7491SOL     OW29712   1.269   8.086   3.420  0.7451 -0.1716 -0.3346
 7491SOL    HW129713   1.263   8.009   3.364  0.8536 -0.7229  0.3972
 7491SOL    HW229714   1.219   8.153   3.373 -1.7448 -1.4565  0.2612
 7492SOL     OW29715   2.725  12.205   3.868 -0.1603  0.3136  0.1530
 7492SOL    HW129716   2.765  12.237   3.949 -0.1441  2.0447 -0.4982
 7492SOL    HW229717   2.655  12.147   3.898 -0.0548  0.7924  1.4022
 7493SOL     OW29718   2.708   5.241   2.713 -0.4777 -0.2017 -0.1138
 7493SOL    HW129719   2.623   5.212   2.745  0.7002 -2.0397  1.5911
 7493SOL    HW229720   2.753   5.274   2.791  0.2225  1.2183 -1.0726
 7494SOL     OW29721   2.651   2.318   4.711 -0.4060 -0.1347 -0.2823
 7494SOL    HW129722   2.685   2.379   4.777 -0.2801  0.3886 -0.8181
 7494SOL    HW229723   2.710   2.244   4.714  0.2157  0.3403 -0.5215
 7495SOL     OW29724   1.112   0.776   9.937  0.3247  0.3526 -0.4955
 7495SOL    HW129725   1.114   0.871   9.922 -1.7908  0.9768  2.3849
 7495SOL    HW229726   1.124   0.767  10.032 -1.4023 -2.1326 -0.4418
 7496SOL     OW29727   3.138   1.116   5.321  1.0431  0.3930  0.3608
 7496SOL    HW129728   3.107   1.026   5.322  1.2946  0.1740 -2.4261
 7496SOL    HW229729   3.063   1.168   5.350  0.2645 -0.5927  0.1608
 7497SOL     OW29730   1.594  11.646  12.323 -0.7858  0.2713  0.4922
 7497SOL    HW129731   1.626  11.599  12.246  0.0986  0.9348  0.4480
 7497SOL    HW229732   1.560  11.577  12.380 -0.3506 -0.3402  0.0328
 7498SOL     OW29733   8.801   6.530  12.518  0.2320  0.1692  0.1415
 7498SOL    HW129734   8.862   6.574  12.577  0.5973 -0.5916  0.3526
 7498SOL    HW229735   8.855   6.507  12.442  0.4177 -1.2024  0.6645
 7499SOL     OW29736   0.217   0.374  12.221  0.2223 -0.2231 -0.3361
 7499SOL    HW129737   0.185   0.345  12.135 -1.6153 -1.3301  0.6599
 7499SOL    HW229738   0.247   0.294  12.264 -0.1912  0.0955  0.5719
 7500SOL     OW29739   1.481   7.378   1.963 -0.0671 -0.2002  0.0652
 7500SOL    HW129740   1.434   7.379   1.879  0.7003  0.4526 -0.3680
 7500SOL    HW229741   1.558   7.433   1.948  0.0637 -0.0505  1.2113
 7501SOL     OW29742   6.483   1.909   5.708 -0.8952  0.1244  0.1874
 7501SOL    HW129743   6.389   1.892   5.722 -0.9775 -1.3296 -1.7720
 7501SOL    HW229744   6.492   1.915   5.613  1.0545  0.0778  0.3439
 7502SOL     OW29745   9.525   2.129   0.549  0.3444 -0.1867  0.4639
 7502SOL    HW129746   9.488   2.073   0.618  0.6619 -2.0313 -0.7908
 7502SOL    HW229747   9.450   2.161   0.501  0.1062  1.2916  1.7501
 7503SOL     OW29748   6.986   7.707  12.115  0.5136 -0.4091  0.1787
 7503SOL    HW129749   6.987   7.750  12.201 -0.4837 -0.1917  0.0961
 7503SOL    HW229750   6.944   7.770  12.057  2.6731  0.1386 -0.8785
 7504SOL     OW29751   4.123  12.241   4.384  0.2008  0.0509 -0.5742
 7504SOL    HW129752   4.167  12.245   4.469  0.3544 -2.4621 -0.4484
 7504SOL    HW229753   4.089  12.329   4.370 -0.7129  0.3041  2.5613
 7505SOL     OW29754   3.107   7.256   2.856  0.1373  0.1574 -0.3137
 7505SOL    HW129755   3.149   7.302   2.783  0.9908  0.6520  0.4630
 7505SOL    HW229756   3.180   7.228   2.912 -0.3441 -2.4601 -0.9138
 7506SOL     OW29757   2.074   8.041   3.877 -0.0889  0.0377  0.0624
 7506SOL    HW129758   2.068   8.035   3.972 -0.4016 -0.7261  0.0014
 7506SOL    HW229759   1.984   8.050   3.847  0.1225  3.5631 -0.0108
 7507SOL     OW29760   8.874   7.946   1.636  0.4327 -0.1647  0.0314
 7507SOL    HW129761   8.870   7.866   1.690 -2.6079 -0.6109 -0.6813
 7507SOL    HW229762   8.876   8.017   1.700  0.9239 -0.7427  0.6868
 7508SOL     OW29763   3.859   2.840   5.589  0.8802  0.1256 -0.4076
 7508SOL    HW129764   3.763   2.846   5.582  0.5351 -1.3810  1.8882
 7508SOL    HW229765   3.876   2.748   5.610  2.8468  0.3811 -0.7215
 7509SOL     OW29766   5.979   5.253  12.446 -0.4411 -0.1801 -0.1235
 7509SOL    HW129767   6.038   5.298  12.506 -1.4989  1.0003  0.0705
 7509SOL    HW229768   5.895   5.249  12.492 -1.6109  1.8205 -1.9228
 7510SOL     OW29769   1.076   9.216   1.843  0.2870 -0.2460  0.0835
 7510SOL    HW129770   1.018   9.291   1.857  0.4363 -0.2406  0.7173
 7510SOL    HW229771   1.078   9.204   1.748  1.1674  1.2786 -0.1147
 7511SOL     OW29772   8.544   4.038   5.052 -0.0243 -0.2285  0.3588
 7511SOL    HW129773   8.630   4.080   5.059 -0.5782  1.2306 -0.9202
 7511SOL    HW229774   8.496   4.068   5.130  0.1073  0.2550  0.2574
 7512SOL     OW29775   4.113  12.012  11.769 -0.1506 -0.0191 -0.0026
 7512SOL    HW129776   4.032  11.991  11.815 -0.5872  0.2907 -0.6025
 7512SOL    HW229777   4.167  11.934  11.778  0.1037  0.3175  1.6906
 7513SOL     OW29778   6.744   2.820   9.282  0.3407 -0.4388 -0.4075
 7513SOL    HW129779   6.803   2.860   9.346 -1.6557 -0.1000  1.3231
 7513SOL    HW229780   6.773   2.729   9.278  1.2536 -0.1881  0.0540
 7514SOL     OW29781   4.704   8.412   2.186  0.1532 -0.0138  0.2118
 7514SOL    HW129782   4.647   8.489   2.179  1.4809  1.0784  0.9764
 7514SOL    HW229783   4.644   8.338   2.177 -1.0500  1.0718 -1.6132
 7515SOL     OW29784   5.178   8.016   2.722  0.3413 -0.5683 -0.8286
 7515SOL    HW129785   5.123   8.094   2.711  0.0513 -0.1306  2.6141
 7515SOL    HW229786   5.117   7.943   2.714  0.1425 -0.3425 -1.4967
 7516SOL     OW29787   0.822   4.100   4.317  0.0123 -0.1534 -0.3028
 7516SOL    HW129788   0.762   4.154   4.369 -0.0887 -0.5638  0.0152
 7516SOL    HW229789   0.909   4.125   4.348 -0.0613 -0.6616  0.3367
 7517SOL     OW29790   9.358  11.622   3.465  0.4533  0.3978 -0.3784
 7517SOL    HW129791   9.428  11.600   3.527 -2.6156 -0.2249  3.2163
 7517SOL    HW229792   9.346  11.543   3.413  1.9466  0.3106 -0.6436
 7518SOL     OW29793  10.082   5.872   2.248 -0.0525  0.3862 -0.3185
 7518SOL    HW129794  10.109   5.786   2.280  0.5556  0.2806 -1.0660
 7518SOL    HW229795   9.996   5.857   2.209 -0.0236  0.1490 -0.2942
 7519SOL     OW29796   9.997   7.462  12.117  0.9304  0.5783  0.2423
 7519SOL    HW129797   9.902   7.476  12.123  0.9317  0.6678  0.0432
 7519SOL    HW229798  10.026   7.522  12.049  1.0991  0.3890  0.1469
 7520SOL     OW29799  10.589   0.794   0.936 -0.1769  0.3373 -0.0230
 7520SOL    HW129800  10.523   0.795   1.005 -0.9906 -1.7433 -0.6897
 7520SOL    HW229801  10.567   0.717   0.882  2.6502 -0.3282 -0.4071
 7521SOL     OW29802  10.411  11.328   9.592 -0.3057  0.1666  0.5092
 7521SOL    HW129803  10.475  11.311   9.522  0.4449 -1.0150  1.4408
 7521SOL    HW229804  10.327  11.331   9.547  0.2669  0.4192 -0.5748
 7522SOL     OW29805   4.295  12.412   6.948 -0.0683 -0.0179 -0.2048
 7522SOL    HW129806   4.390  12.400   6.951 -0.0395 -0.0299 -0.9556
 7522SOL    HW229807   4.282  12.503   6.975  0.1729  0.0420 -0.2893
 7523SOL     OW29808   5.254   4.659   7.190  0.2408  0.1741  0.0055
 7523SOL    HW129809   5.333   4.708   7.210  0.0670  1.0948 -1.3832
 7523SOL    HW229810   5.186   4.699   7.245  0.3753  0.6395 -0.1605
 7524SOL     OW29811   2.075   8.172   8.220 -0.0851  0.0008  0.0845
 7524SOL    HW129812   1.997   8.193   8.169  0.6104  1.0200 -0.5977
 7524SOL    HW229813   2.127   8.252   8.218  0.8453 -0.5699  0.7771
 7525SOL     OW29814   1.932   3.229   7.896 -0.2022  0.0224  0.2207
 7525SOL    HW129815   1.847   3.208   7.858  0.4931  1.1259 -2.1235
 7525SOL    HW229816   1.992   3.167   7.855  0.3280  0.0799  0.8939
 7526SOL     OW29817   8.051   8.431  12.194  0.1811 -0.1604  0.0409
 7526SOL    HW129818   7.966   8.476  12.192  0.7419  0.9558  0.6022
 7526SOL    HW229819   8.087   8.451  12.280  1.3281 -0.0336 -0.4492
 7527SOL     OW29820   2.922  10.450  10.343 -0.2777  0.3362  0.3467
 7527SOL    HW129821   3.007  10.488  10.362 -0.9754  1.0716  2.2288
 7527SOL    HW229822   2.869  10.468  10.421 -2.7359  1.6011 -1.4317
 7528SOL     OW29823   1.863   0.934   8.698 -0.1603 -0.3849  0.2488
 7528SOL    HW129824   1.775   0.898   8.688 -0.6484 -0.0764  2.6398
 7528SOL    HW229825   1.894   0.947   8.609 -2.5595 -0.4393 -0.6859
 7529SOL     OW29826   5.870   4.541  11.626  0.3336 -0.0272  0.1193
 7529SOL    HW129827   5.840   4.465  11.675 -0.5061 -0.1344 -0.5367
 7529SOL    HW229828   5.895   4.506  11.540  2.0952  0.1041  0.5451
 7530SOL     OW29829   3.684  11.811   7.688 -0.1318  0.0103 -0.3704
 7530SOL    HW129830   3.747  11.858   7.742 -1.9979  1.8591  0.3534
 7530SOL    HW229831   3.671  11.868   7.612 -2.9966  1.1951  0.8714
 7531SOL     OW29832   6.572   1.554   7.910 -0.0427  0.2415 -0.7588
 7531SOL    HW129833   6.642   1.550   7.845 -0.2604 -1.2124 -0.9204
 7531SOL    HW229834   6.493   1.532   7.861 -0.8308  2.7784 -0.8011
 7532SOL     OW29835   9.665  10.168  12.135 -0.1303  0.3352  0.2422
 7532SOL    HW129836   9.676  10.255  12.175 -0.6064 -0.1042  1.3708
 7532SOL    HW229837   9.735  10.115  12.173  0.2159  0.2416 -0.5176
 7533SOL     OW29838   8.747  10.331  11.923  0.0666  0.0306 -0.1662
 7533SOL    HW129839   8.760  10.328  12.017  2.6320  0.7742 -0.3991
 7533SOL    HW229840   8.711  10.245  11.900 -1.3409  0.1313  1.5329
 7534SOL     OW29841   7.593   6.414   1.079  0.5832 -0.4237 -0.0899
 7534SOL    HW129842   7.573   6.341   1.139  1.0483 -0.7730 -0.3506
 7534SOL    HW229843   7.514   6.424   1.026  0.9833 -1.6703 -0.9890
 7535SOL     OW29844   6.786   5.255   4.921  0.2723  0.0924  0.3049
 7535SOL    HW129845   6.808   5.169   4.958  2.4746  1.4735  2.4991
 7535SOL    HW229846   6.838   5.261   4.841 -0.2468 -0.7382 -0.1194
 7536SOL     OW29847   8.155   9.020   9.359  0.1496 -0.0012 -0.4015
 7536SOL    HW129848   8.157   8.936   9.405  1.3413 -0.2018 -0.8012
 7536SOL    HW229849   8.239   9.060   9.378 -1.4679  2.5093  2.2717
 7537SOL     OW29850   9.680   7.462   2.013 -0.3024  0.6731 -0.2891
 7537SOL    HW129851   9.760   7.489   1.968 -0.8223  0.9540 -1.0455
 7537SOL    HW229852   9.640   7.543   2.043  1.0189  0.4279  2.4519
 7538SOL     OW29853  12.210   3.339   2.868 -0.5890  0.3568  0.0776
 7538SOL    HW129854  12.148   3.400   2.908  0.8701  0.2742  2.7286
 7538SOL    HW229855  12.193   3.255   2.911 -1.3349 -0.7343 -2.1845
 7539SOL     OW29856   6.651  11.314  12.019  0.0620  0.6195 -0.1278
 7539SOL    HW129857   6.646  11.220  12.038 -1.1159  0.4766 -1.0885
 7539SOL    HW229858   6.704  11.319  11.940 -2.9739  0.3910 -2.3339
 7540SOL     OW29859  10.436   3.100   4.314  0.1681 -0.2533  0.2845
 7540SOL    HW129860  10.461   3.130   4.401  1.5891  0.8819 -0.4741
 7540SOL    HW229861  10.493   3.025   4.297  0.1935 -0.2074  0.1646
 7541SOL     OW29862   8.244  10.966   5.433  0.5916 -0.0001  0.6363
 7541SOL    HW129863   8.262  10.936   5.522  0.2828 -0.4792  0.5408
 7541SOL    HW229864   8.156  10.933   5.414  1.2717 -1.2963 -0.4334
 7542SOL     OW29865   3.697   0.343   5.476  0.0464 -0.1467  0.2386
 7542SOL    HW129866   3.663   0.420   5.432  1.8597 -0.4673 -1.9230
 7542SOL    HW229867   3.701   0.367   5.569  0.1593  2.1840 -0.3231
 7543SOL     OW29868   4.637   1.165   4.530 -0.0359 -0.0966 -0.2765
 7543SOL    HW129869   4.640   1.260   4.521  0.1409 -0.0977 -0.2302
 7543SOL    HW229870   4.574   1.150   4.601 -1.9103 -0.1138 -1.8453
 7544SOL     OW29871   5.639   0.452   2.092 -0.5681 -1.0042 -0.6100
 7544SOL    HW129872   5.668   0.471   2.182 -0.3671 -0.2399 -0.8277
 7544SOL    HW229873   5.545   0.469   2.093 -0.1715  1.7117 -1.1892
 7545SOL     OW29874   3.156   1.754  10.667 -0.6119  0.0957  0.1309
 7545SOL    HW129875   3.248   1.731  10.676 -0.2280  1.8845  1.1834
 7545SOL    HW229876   3.109   1.684  10.711  0.2150 -0.9199 -0.5586
 7546SOL     OW29877   6.839   6.627   3.678  0.2714  0.0365  0.8375
 7546SOL    HW129878   6.849   6.699   3.740  0.5089  0.1836  0.6279
 7546SOL    HW229879   6.744   6.622   3.662  0.4065  1.7127 -0.7926
 7547SOL     OW29880   0.991  11.389   5.783 -0.4140  0.5542 -0.4171
 7547SOL    HW129881   0.946  11.416   5.863  0.8660  0.5263  0.3271
 7547SOL    HW229882   1.076  11.357   5.812 -0.2872 -0.3542 -1.7044
 7548SOL     OW29883   6.220   2.968   6.101  0.3514 -0.5037  0.2315
 7548SOL    HW129884   6.250   2.929   6.019  0.6043  0.1079  0.0201
 7548SOL    HW229885   6.259   2.914   6.170  0.5184 -0.7473 -0.0545
 7549SOL     OW29886   5.122   2.427   7.805  0.5348 -0.5287  0.1039
 7549SOL    HW129887   5.150   2.488   7.736  0.2063  1.1869  1.4197
 7549SOL    HW229888   5.115   2.482   7.883  1.0055 -2.4513  1.5435
 7550SOL     OW29889   1.979   1.433  12.215  0.5975  0.3653 -0.2378
 7550SOL    HW129890   1.960   1.354  12.265  2.9424  1.1585  2.1658
 7550SOL    HW229891   1.953   1.505  12.272  0.3541  1.3612 -1.5445
 7551SOL     OW29892   2.933   2.954   3.871  0.1618 -0.3211 -0.1657
 7551SOL    HW129893   2.987   2.925   3.797  1.5246 -0.2941  0.7828
 7551SOL    HW229894   2.989   3.015   3.919 -0.6310 -0.4904  0.9976
 7552SOL     OW29895   2.096   8.911   7.319 -0.0355  0.3806 -0.3912
 7552SOL    HW129896   2.016   8.886   7.364 -0.3935  1.3889 -0.4506
 7552SOL    HW229897   2.118   8.997   7.354  1.9837 -0.5708  0.8868
 7553SOL     OW29898  12.388   9.744  11.308  0.3886  0.2063  0.4991
 7553SOL    HW129899  12.425   9.788  11.231  1.1678 -1.7681 -0.3184
 7553SOL    HW229900  12.451   9.761  11.378  0.1720  1.1953  0.4683
 7554SOL     OW29901  11.571   1.671   2.380 -0.4547  0.0739 -0.0964
 7554SOL    HW129902  11.573   1.705   2.291 -1.8461 -0.9492 -0.5636
 7554SOL    HW229903  11.663   1.662   2.405 -0.0591  1.1387 -1.1079
 7555SOL     OW29904   3.511   6.324   8.116  0.4963  0.0846  0.6029
 7555SOL    HW129905   3.579   6.257   8.123 -0.2829 -0.8747 -0.4370
 7555SOL    HW229906   3.429   6.275   8.115 -0.0815  0.9931 -0.6517
 7556SOL     OW29907   1.588   3.315   1.931 -0.3351  0.0108  0.8634
 7556SOL    HW129908   1.519   3.272   1.880  1.3868 -1.6172 -0.2605
 7556SOL    HW229909   1.582   3.407   1.908 -0.1544 -0.5503 -1.7359
 7557SOL     OW29910   6.179   9.272  11.741 -0.0736  0.5436 -0.1416
 7557SOL    HW129911   6.099   9.280  11.793  0.4857  0.2236  0.8074
 7557SOL    HW229912   6.157   9.210  11.672  0.1970 -2.0089  1.9081
 7558SOL     OW29913   8.852   4.333   2.326 -0.0115  0.5587  0.5358
 7558SOL    HW129914   8.834   4.395   2.397 -0.0225 -0.4812  1.4624
 7558SOL    HW229915   8.928   4.370   2.281  0.0747  1.1678  1.1721
 7559SOL     OW29916   7.701   5.292   7.585 -0.1800  0.1029 -0.6501
 7559SOL    HW129917   7.716   5.376   7.629 -1.8607 -0.0489  0.2970
 7559SOL    HW229918   7.708   5.228   7.656  1.9710 -0.7038 -1.5094
 7560SOL     OW29919   5.003   1.671   6.469 -0.0627 -0.4294 -0.0816
 7560SOL    HW129920   4.966   1.750   6.509 -1.1853 -0.7472 -0.4812
 7560SOL    HW229921   5.041   1.623   6.542  0.2635  0.2730  0.2261
 7561SOL     OW29922   9.225   2.089   6.730  0.1729  0.1610 -0.2962
 7561SOL    HW129923   9.163   2.106   6.801 -0.4259  0.6629 -0.9256
 7561SOL    HW229924   9.170   2.068   6.655  0.8317 -2.8526 -0.0342
 7562SOL     OW29925  10.853   9.296   7.459  0.2023  0.3354 -0.0952
 7562SOL    HW129926  10.843   9.241   7.537  1.3576  1.0641  0.5990
 7562SOL    HW229927  10.764   9.304   7.424 -0.5346  0.9349  1.8070
 7563SOL     OW29928   3.499  10.170   2.755  0.0564  0.3198 -0.2691
 7563SOL    HW129929   3.404  10.166   2.760  0.1758 -1.4991  1.8343
 7563SOL    HW229930   3.528  10.195   2.843  1.5249  1.7683 -1.0996
 7564SOL     OW29931  11.720   8.424   4.668  0.1923  0.0619 -0.1209
 7564SOL    HW129932  11.669   8.421   4.587 -2.5826 -0.4943  1.5351
 7564SOL    HW229933  11.701   8.341   4.711  2.2197  0.0280  0.8154
 7565SOL     OW29934   5.317   3.066   3.647 -0.5903  0.0882 -0.2143
 7565SOL    HW129935   5.372   3.080   3.724  1.0121 -3.4821 -0.5060
 7565SOL    HW229936   5.379   3.038   3.579 -2.3922 -0.8363 -1.5538
 7566SOL     OW29937   4.211  11.179   7.664  0.3304  0.1239  0.7607
 7566SOL    HW129938   4.241  11.146   7.579 -0.5176 -0.4240  0.6655
 7566SOL    HW229939   4.134  11.231   7.644  0.0606 -0.0987  1.2038
 7567SOL     OW29940   4.522   3.891   0.577 -0.1369  0.6421 -0.4986
 7567SOL    HW129941   4.505   3.900   0.670  0.1722  0.1618 -0.3911
 7567SOL    HW229942   4.472   3.961   0.536  0.9831  1.8699  0.1616
 7568SOL     OW29943   2.315  12.165   5.596  0.0182 -0.6527  0.1804
 7568SOL    HW129944   2.367  12.107   5.540 -1.2844 -1.6429 -0.0417
 7568SOL    HW229945   2.375  12.189   5.667  1.7043  0.6033 -1.5620
 7569SOL     OW29946  11.513   6.417   3.176  0.1519 -0.1685 -0.0678
 7569SOL    HW129947  11.564   6.496   3.191 -0.7868  0.4934 -0.2526
 7569SOL    HW229948  11.423   6.443   3.195 -0.1381 -1.2586  0.0829
 7570SOL     OW29949   7.605  11.860   5.196  0.1484  0.0639 -0.1746
 7570SOL    HW129950   7.669  11.813   5.250  1.8134  1.0535 -1.2086
 7570SOL    HW229951   7.606  11.813   5.112 -0.8230 -0.1646 -0.0686
 7571SOL     OW29952   6.706   8.098   3.457  0.4997  0.0141  0.0493
 7571SOL    HW129953   6.627   8.149   3.439  0.0514  0.7064  3.3882
 7571SOL    HW229954   6.765   8.159   3.501  1.4397 -1.4044  0.8460
 7572SOL     OW29955   6.300   5.373   4.512 -0.6489  0.0428 -0.7856
 7572SOL    HW129956   6.305   5.446   4.450  0.8421  1.2524  0.6476
 7572SOL    HW229957   6.391   5.344   4.523 -0.7636  0.3005  1.2591
 7573SOL     OW29958   4.821   4.680   1.424 -0.1341 -0.0300 -1.3165
 7573SOL    HW129959   4.849   4.595   1.458  0.7012  0.7506  0.0280
 7573SOL    HW229960   4.897   4.713   1.376  0.2811  0.8152 -0.1280
 7574SOL     OW29961   5.806   1.259   4.669  0.3413 -0.9003  0.5216
 7574SOL    HW129962   5.793   1.179   4.719 -0.2509  0.2984  2.3819
 7574SOL    HW229963   5.797   1.232   4.577 -1.1514 -2.7066  1.1455
 7575SOL     OW29964   9.865   7.392   9.869  0.0424  0.3368 -0.1713
 7575SOL    HW129965   9.814   7.417   9.792  0.3391 -0.8047 -0.7579
 7575SOL    HW229966   9.821   7.314   9.902  2.5705 -2.0470 -1.9842
 7576SOL     OW29967   2.873  11.543   2.752  0.2360  0.2459  0.2584
 7576SOL    HW129968   2.865  11.635   2.777 -2.5495  0.2442 -0.2888
 7576SOL    HW229969   2.915  11.545   2.666 -1.8313  1.2320 -0.7917
 7577SOL     OW29970   0.324  10.984   2.387 -0.1967 -0.0222 -0.2050
 7577SOL    HW129971   0.248  10.962   2.333 -0.4579 -1.0757  0.5421
 7577SOL    HW229972   0.297  11.060   2.438  0.9106  2.6176 -3.2550
 7578SOL     OW29973   8.877   4.687   5.424 -0.2144  0.2561  0.0724
 7578SOL    HW129974   8.806   4.752   5.418 -0.1886  0.3510  0.7091
 7578SOL    HW229975   8.907   4.676   5.334  0.2750  1.6903  0.0365
 7579SOL     OW29976   3.034   3.475  10.663  0.1322  0.1360 -0.7963
 7579SOL    HW129977   3.096   3.465  10.735  1.8854  0.9346 -2.1272
 7579SOL    HW229978   3.008   3.386  10.641  2.3017 -0.3995 -1.4101
 7580SOL     OW29979   2.627   3.253  10.775 -0.4131 -0.2582 -0.8251
 7580SOL    HW129980   2.605   3.331  10.724  0.3133  0.0944 -0.6118
 7580SOL    HW229981   2.549   3.237  10.828 -0.2925  0.7794 -0.3124
 7581SOL     OW29982   8.538  10.675   4.386  0.1150 -0.6625  0.2957
 7581SOL    HW129983   8.450  10.649   4.360  0.3011 -0.1473 -0.9349
 7581SOL    HW229984   8.585  10.686   4.303  0.5588  1.7849  0.7937
 7582SOL     OW29985   2.100  11.566  10.662  0.6114  0.4013  0.2114
 7582SOL    HW129986   2.115  11.561  10.756  0.0263  1.0861  0.3499
 7582SOL    HW229987   2.103  11.476  10.632  2.3467  0.2880  0.6397
 7583SOL     OW29988  10.036  11.320   0.154  0.2233  0.4737 -0.0899
 7583SOL    HW129989  10.072  11.265   0.224 -2.3756  2.1591  2.8358
 7583SOL    HW229990  10.072  11.407   0.171  0.5174  0.6904 -1.6866
 7584SOL     OW29991   5.255   6.788   1.479 -0.1591 -0.4777  0.1969
 7584SOL    HW129992   5.345   6.765   1.504  0.0874 -0.1197 -0.3315
 7584SOL    HW229993   5.266   6.854   1.411 -0.8261  1.0037  1.4698
 7585SOL     OW29994   7.742  11.972   5.960  0.4908 -0.3640  0.0369
 7585SOL    HW129995   7.773  12.062   5.971  1.2577 -0.8523  2.3477
 7585SOL    HW229996   7.792  11.938   5.885  2.1625  0.3237  0.8046
 7586SOL     OW29997   8.813   6.118   2.205  0.1126  0.2993 -0.1504
 7586SOL    HW129998   8.821   6.032   2.245 -0.9900 -0.0459 -0.6165
 7586SOL    HW229999   8.898   6.135   2.165  1.4394  0.8888  2.7066
 7587SOL     OW30000  11.054   5.554   0.407 -0.3773  0.0866  0.0094
 7587SOL    HW130001  11.150   5.558   0.405 -0.4221  2.3215  0.0180
 7587SOL    HW230002  11.034   5.462   0.423  1.7497 -0.5424 -0.6415
 7588SOL     OW30003   7.082   8.891  11.851 -0.0012 -0.1641  0.6245
 7588SOL    HW130004   6.997   8.924  11.821  0.4760 -0.0688 -0.6629
 7588SOL    HW230005   7.077   8.796  11.835 -0.0115 -0.2204  0.9449
 7589SOL     OW30006  10.962   6.652  11.951  0.1740  0.4313  0.2014
 7589SOL    HW130007  10.935   6.734  11.991  0.0240  0.5939 -0.2371
 7589SOL    HW230008  10.882   6.599  11.947  0.5985 -0.4637  2.1887
 7590SOL     OW30009  11.834   8.655   2.056  0.1317  0.1528 -0.2550
 7590SOL    HW130010  11.892   8.642   1.980  1.1547  2.0570  0.1252
 7590SOL    HW230011  11.877   8.724   2.107  0.1936 -1.9560  2.8074
 7591SOL     OW30012   4.021  11.595   0.043  0.4741  0.9365 -0.1494
 7591SOL    HW130013   3.979  11.551  -0.031  2.1460 -0.2619 -0.4578
 7591SOL    HW230014   4.104  11.627   0.007  1.0318  0.8743  1.0531
 7592SOL     OW30015   4.694   3.748  11.901 -0.6710  0.0980  0.7722
 7592SOL    HW130016   4.695   3.839  11.931 -0.8435 -0.0908  1.3734
 7592SOL    HW230017   4.606   3.735  11.866 -0.2656  0.5052 -0.4244
 7593SOL     OW30018  11.007   0.157   3.138  0.3865  0.3372  0.6068
 7593SOL    HW130019  11.070   0.229   3.139  1.3670 -0.4912 -0.0831
 7593SOL    HW230020  10.964   0.163   3.053  1.3081 -0.5829  0.0599
 7594SOL     OW30021   6.401   5.919  10.551 -0.1369 -0.1799 -0.2703
 7594SOL    HW130022   6.444   5.986  10.605  0.6003  1.2253 -2.4533
 7594SOL    HW230023   6.472   5.885  10.496 -0.6064 -2.4806  0.4428
 7595SOL     OW30024   7.987   3.062  10.795 -0.3102 -0.1874 -0.5977
 7595SOL    HW130025   8.016   2.976  10.765  0.9047  0.0557 -0.1852
 7595SOL    HW230026   8.033   3.075  10.879  0.5152  1.3791 -1.2454
 7596SOL     OW30027  10.698   1.790   8.195 -0.4111  0.1267 -0.1437
 7596SOL    HW130028  10.699   1.694   8.187 -0.7529  0.0324  0.8237
 7596SOL    HW230029  10.635   1.818   8.129 -1.1819 -0.4053  0.3508
 7597SOL     OW30030   3.719   6.620   4.390 -0.2076 -0.3564 -0.0785
 7597SOL    HW130031   3.760   6.549   4.341  2.1470  0.4611  0.5799
 7597SOL    HW230032   3.659   6.661   4.327 -0.8517 -2.2583 -0.7607
 7598SOL     OW30033   9.018  10.209   1.538 -0.2426  0.0174 -0.0645
 7598SOL    HW130034   8.959  10.265   1.488  1.1960  0.4469 -1.3448
 7598SOL    HW230035   9.100  10.211   1.490  1.0925  0.0767  2.0675
 7599SOL     OW30036  12.605   5.600   2.462 -0.2927  0.9491 -0.3127
 7599SOL    HW130037  12.663   5.538   2.505 -0.4345  0.6052 -0.6174
 7599SOL    HW230038  12.517   5.565   2.479 -0.2967 -0.1838 -2.3846
 7600SOL     OW30039   2.513   9.785   3.728  0.3772 -0.6481 -0.1852
 7600SOL    HW130040   2.579   9.717   3.739  1.8729  1.1060  3.0816
 7600SOL    HW230041   2.446   9.765   3.793  0.1557  0.2571 -0.1163
 7601SOL     OW30042   9.863   6.317   4.657 -0.0272 -0.0915  0.3253
 7601SOL    HW130043   9.915   6.393   4.632 -2.1834  1.2078 -0.4209
 7601SOL    HW230044   9.864   6.261   4.579  0.3228 -0.1154  0.3458
 7602SOL     OW30045   2.493  10.692   5.975  0.0503  0.2235 -0.1757
 7602SOL    HW130046   2.486  10.714   6.068  0.1943 -0.2614 -0.0474
 7602SOL    HW230047   2.404  10.668   5.950  0.4635 -2.2741  0.5198
 7603SOL     OW30048   1.965   0.100   4.326 -1.1434  0.0302  0.2676
 7603SOL    HW130049   1.950   0.008   4.346 -1.7464  0.0313 -0.1495
 7603SOL    HW230050   1.940   0.109   4.234  0.4074  0.2760 -0.1610
 7604SOL     OW30051   5.154   8.885  11.646  0.1304 -0.2512 -0.1829
 7604SOL    HW130052   5.161   8.896  11.551 -2.0443  2.8966 -0.1496
 7604SOL    HW230053   5.064   8.856  11.660 -0.5791  2.1527  0.9246
 7605SOL     OW30054   6.414   9.176  12.623 -0.1820  0.2804  0.6995
 7605SOL    HW130055   6.338   9.199  12.676 -0.6529  0.4707 -0.0345
 7605SOL    HW230056   6.391   9.092  12.584 -0.7012  1.0284 -0.7240
 7606SOL     OW30057   9.410   4.753   8.191 -0.1000 -0.5482  0.4552
 7606SOL    HW130058   9.395   4.753   8.285 -2.9423  0.1771  0.1204
 7606SOL    HW230059   9.437   4.663   8.170  0.9706 -0.6022  1.9710
 7607SOL     OW30060   9.126   5.900   9.154 -0.0773  0.1132 -0.2744
 7607SOL    HW130061   9.221   5.906   9.145  0.0216  0.2187  0.7020
 7607SOL    HW230062   9.092   5.923   9.067  0.8240 -1.3569 -1.0544
 7608SOL     OW30063   2.243   7.668   4.335 -0.3282 -0.3933  0.1522
 7608SOL    HW130064   2.315   7.652   4.396 -1.3977 -1.1740  1.2543
 7608SOL    HW230065   2.172   7.611   4.365 -0.4935 -1.7984 -2.6046
 7609SOL     OW30066   8.030  10.142  11.262 -0.1208  0.2600 -0.0378
 7609SOL    HW130067   8.018  10.111  11.172 -1.3163 -3.0150  1.1406
 7609SOL    HW230068   7.946  10.182  11.285 -0.4601 -0.6015  0.2298
 7610SOL     OW30069   1.333   8.775   9.333  0.4791 -0.7218 -0.1240
 7610SOL    HW130070   1.304   8.685   9.316 -2.3333 -0.0666  0.7022
 7610SOL    HW230071   1.386   8.797   9.256  0.1886 -2.6548 -0.9542
 7611SOL     OW30072   2.319   6.303   7.964 -0.7872 -0.4781 -0.2469
 7611SOL    HW130073   2.343   6.338   8.050 -2.5047 -0.2880  0.1771
 7611SOL    HW230074   2.302   6.211   7.980  0.2692 -0.7584 -0.6775
 7612SOL     OW30075   0.909   5.000  12.325  0.5390  0.1172 -0.6840
 7612SOL    HW130076   0.827   4.997  12.374  1.4546 -2.0434  0.8749
 7612SOL    HW230077   0.892   4.950  12.245  0.3387 -0.3395 -0.3570
 7613SOL     OW30078   7.373   9.637  11.959 -0.0648  0.1828  0.0153
 7613SOL    HW130079   7.383   9.578  11.884  0.5682 -0.0720  0.2956
 7613SOL    HW230080   7.286   9.675  11.948 -0.7010 -1.2062  0.1209
 7614SOL     OW30081   9.955   0.271   3.438 -0.2342  0.1685  0.6159
 7614SOL    HW130082   9.960   0.221   3.519 -0.0349  2.4820  2.1192
 7614SOL    HW230083   9.878   0.327   3.449 -0.1156  0.6311 -0.7481
 7615SOL     OW30084  11.477   2.089   8.410 -0.5402 -0.1024  0.2842
 7615SOL    HW130085  11.560   2.092   8.363 -0.5394 -1.2481  0.1824
 7615SOL    HW230086  11.422   2.032   8.357 -1.0759 -0.1055  0.8376
 7616SOL     OW30087   9.265  11.720   2.781 -0.4356 -0.1534  0.4745
 7616SOL    HW130088   9.223  11.700   2.697 -2.7700  0.5225  1.4030
 7616SOL    HW230089   9.225  11.802   2.809  0.7129 -0.0694  2.0039
 7617SOL     OW30090   5.612   4.697   0.998 -0.2324  0.1832  0.3353
 7617SOL    HW130091   5.639   4.762   1.063  2.4883 -0.3340 -0.1149
 7617SOL    HW230092   5.615   4.614   1.045 -0.4423  0.0402  0.0978
 7618SOL     OW30093   8.105   1.091   9.864  0.1582 -0.2799  0.0063
 7618SOL    HW130094   8.085   1.163   9.924 -0.5344 -0.3596 -0.1173
 7618SOL    HW230095   8.057   1.016   9.899 -0.3084 -0.3138 -0.6710
 7619SOL     OW30096  10.747  12.304   0.050 -0.7804  0.6047 -0.0519
 7619SOL    HW130097  10.652  12.306   0.039 -1.1298  1.3570  2.5330
 7619SOL    HW230098  10.774  12.395   0.037 -0.2679  0.2937 -1.4033
 7620SOL     OW30099   2.909   8.502   5.887  0.0969 -0.4580  0.3219
 7620SOL    HW130100   2.893   8.419   5.933 -1.0816 -1.4933 -1.8399
 7620SOL    HW230101   2.827   8.551   5.897 -0.0800 -0.5885 -0.4514
 7621SOL     OW30102  11.794   6.309   3.063 -0.0216 -0.5446 -0.2742
 7621SOL    HW130103  11.771   6.379   3.002 -0.0108 -0.2605  0.0431
 7621SOL    HW230104  11.890   6.305   3.059 -0.0894 -1.3845 -1.2179
 7622SOL     OW30105   5.361   1.659   1.043 -0.1187  0.2262 -0.3478
 7622SOL    HW130106   5.372   1.742   1.089 -0.4364 -0.4550  1.0212
 7622SOL    HW230107   5.324   1.683   0.959  0.5394  1.5299 -0.2887
 7623SOL     OW30108   3.579   1.622   0.202  0.3308 -0.7153 -0.0662
 7623SOL    HW130109   3.556   1.608   0.111 -0.1343 -0.1054 -0.0533
 7623SOL    HW230110   3.533   1.554   0.250 -1.7294  0.6190 -0.0144
 7624SOL     OW30111   4.058   6.772   1.025 -0.6505 -0.9081  0.1487
 7624SOL    HW130112   3.983   6.830   1.014 -0.8055 -1.0728  0.3304
 7624SOL    HW230113   4.035   6.717   1.100  0.1761 -0.1285  0.9981
 7625SOL     OW30114   1.443  10.926   2.336  0.1976  0.5127  0.0463
 7625SOL    HW130115   1.468  11.018   2.344 -0.2484  0.6666 -0.2637
 7625SOL    HW230116   1.453  10.891   2.424  3.2560  0.0788 -0.3773
 7626SOL     OW30117   3.422   1.497   5.851  0.3456 -0.2865  0.4570
 7626SOL    HW130118   3.517   1.500   5.859  0.4106 -0.1877 -0.2709
 7626SOL    HW230119   3.393   1.586   5.874  0.3916 -0.4209  1.0498
 7627SOL     OW30120  11.561   2.628   6.719 -0.0728  0.0903  0.0013
 7627SOL    HW130121  11.507   2.658   6.792  0.1317  0.4091  0.0206
 7627SOL    HW230122  11.523   2.543   6.695 -0.2924  0.0974  0.3172
 7628SOL     OW30123  12.385  10.762   5.252 -0.4508 -0.1963  0.1628
 7628SOL    HW130124  12.418  10.793   5.168 -0.3879 -0.4533  0.0930
 7628SOL    HW230125  12.410  10.830   5.314 -1.0486  0.2957 -0.1286
 7629SOL     OW30126  12.698   7.902   9.885  0.3984  0.2140 -0.0607
 7629SOL    HW130127  12.700   7.812   9.853 -1.2083 -0.2820  1.0643
 7629SOL    HW230128  12.757   7.902   9.960  0.2841  0.0443  0.0299
 7630SOL     OW30129   5.320   5.068   2.520 -0.6143 -0.1493 -0.0256
 7630SOL    HW130130   5.337   5.101   2.608 -0.7413 -0.1565  0.0009
 7630SOL    HW230131   5.240   5.017   2.528 -2.2585  2.1417 -0.6842
 7631SOL     OW30132   3.350   6.829   2.371  0.5383 -0.6653 -0.5618
 7631SOL    HW130133   3.325   6.916   2.405  0.9971  0.0400 -1.9607
 7631SOL    HW230134   3.362   6.843   2.278  0.7762 -2.2300 -0.7818
 7632SOL     OW30135   4.235   2.175   6.778  0.2545 -0.5553  0.4048
 7632SOL    HW130136   4.268   2.173   6.868 -0.8276 -0.3759  0.8143
 7632SOL    HW230137   4.191   2.260   6.771  0.6342 -0.4187 -0.4116
 7633SOL     OW30138  11.562  12.419   5.966  0.5234  0.3876  0.8773
 7633SOL    HW130139  11.567  12.445   5.874  0.4770  3.8708  1.7041
 7633SOL    HW230140  11.469  12.407   5.982  0.3751  1.2783  0.7655
 7634SOL     OW30141   2.287  12.089  12.505 -0.1054 -0.2836 -0.0925
 7634SOL    HW130142   2.351  12.087  12.434  0.0116  1.9960 -0.1087
 7634SOL    HW230143   2.291  12.178  12.539 -3.6856  0.1772 -0.4890
 7635SOL     OW30144   3.813   8.168  10.868 -0.1318 -0.8636 -0.9161
 7635SOL    HW130145   3.812   8.073  10.863  2.0501 -0.9029 -2.0275
 7635SOL    HW230146   3.896   8.193  10.828 -0.6326  1.5187 -0.6337
 7636SOL     OW30147   9.924   9.264   7.403 -0.0763 -0.0050  0.2238
 7636SOL    HW130148   9.915   9.178   7.443  0.4053 -0.4574 -0.6037
 7636SOL    HW230149   9.834   9.296   7.392 -0.3685 -1.1349 -0.9643
 7637SOL     OW30150  10.597  10.475  12.624  0.5461 -0.2224  0.4431
 7637SOL    HW130151  10.527  10.537  12.603 -1.0135 -1.6884  1.0730
 7637SOL    HW230152  10.552  10.392  12.639  2.2366 -0.8566  2.5715
 7638SOL     OW30153   7.423  12.594   1.515 -0.1768 -0.0433  0.6828
 7638SOL    HW130154   7.337  12.555   1.530 -0.2523 -0.0683  0.1995
 7638SOL    HW230155   7.405  12.674   1.465  0.1137 -0.2724  0.2018
 7639SOL     OW30156   7.755   8.241  11.278 -0.4672 -0.2397  0.7035
 7639SOL    HW130157   7.682   8.190  11.244  1.8458 -1.9015 -2.3027
 7639SOL    HW230158   7.764   8.213  11.369 -2.1345 -1.6781  0.4787
 7640SOL     OW30159   9.552  11.555   3.636  0.7698 -0.3170 -0.0557
 7640SOL    HW130160   9.543  11.503   3.716  0.6486  0.8516  0.6957
 7640SOL    HW230161   9.647  11.554   3.618  0.8714 -0.0666  0.4534
 7641SOL     OW30162   0.925   1.858   3.788  0.2814 -0.1560  0.6622
 7641SOL    HW130163   0.910   1.891   3.876  1.7549 -0.3862  1.0327
 7641SOL    HW230164   0.847   1.808   3.767 -0.8936  1.4166  1.0875
 7642SOL     OW30165  11.170   5.596   1.174  0.1197  0.5311 -0.2300
 7642SOL    HW130166  11.110   5.666   1.199 -1.2903  0.5530 -3.3009
 7642SOL    HW230167  11.257   5.633   1.188 -0.5974  2.2498 -0.1222
 7643SOL     OW30168   5.956   0.780   3.543 -0.0444 -0.6304  0.3078
 7643SOL    HW130169   6.047   0.809   3.539  0.3617 -1.9290 -0.3003
 7643SOL    HW230170   5.909   0.843   3.488  0.3095  0.5877  1.3437
 7644SOL     OW30171   7.068  10.472   1.223 -0.3636 -0.2623 -0.3585
 7644SOL    HW130172   7.048  10.523   1.302  1.2786 -1.3875  0.8585
 7644SOL    HW230173   7.025  10.388   1.237 -0.0452 -0.4738 -0.6376
 7645SOL     OW30174  10.912   5.993   3.247 -0.0205  0.4031 -0.2983
 7645SOL    HW130175  10.940   6.049   3.175  1.0916  0.8242  0.4198
 7645SOL    HW230176  10.831   5.953   3.217  1.3602 -0.9375 -2.5567
 7646SOL     OW30177  10.538   0.742   9.339 -0.1067 -0.1392 -0.0982
 7646SOL    HW130178  10.553   0.647   9.340  0.4885 -0.0485  0.5933
 7646SOL    HW230179  10.625   0.780   9.353 -0.1727  0.5385 -1.3755
 7647SOL     OW30180   2.075   5.614   2.429  0.3001  0.3075 -0.2525
 7647SOL    HW130181   2.051   5.632   2.520 -0.3741  1.0450 -0.5571
 7647SOL    HW230182   1.991   5.604   2.385  0.5848  1.0538 -0.9945
 7648SOL     OW30183  11.584   7.212  12.458  0.0741  0.1355 -0.0197
 7648SOL    HW130184  11.561   7.210  12.551 -1.2352  0.0547 -0.3245
 7648SOL    HW230185  11.552   7.297  12.428 -0.3086 -0.2137 -0.5928
 7649SOL     OW30186  12.302   6.302   5.971 -0.2340 -0.0279  0.7328
 7649SOL    HW130187  12.350   6.219   5.968  0.6338  0.4338  1.3961
 7649SOL    HW230188  12.257   6.307   5.887 -0.7736 -1.4401  0.8952
 7650SOL     OW30189   5.083   6.883   3.262 -0.0705 -0.3532 -0.4609
 7650SOL    HW130190   5.083   6.792   3.232 -0.3516 -0.9319  1.2027
 7650SOL    HW230191   5.140   6.883   3.339 -0.4428  0.7766 -0.1667
 7651SOL     OW30192   2.658   9.919   8.950 -0.1173 -0.0743  0.0837
 7651SOL    HW130193   2.674   9.855   8.881 -1.3723  0.0401 -0.3321
 7651SOL    HW230194   2.730   9.906   9.012 -0.5282 -2.1424  0.1973
 7652SOL     OW30195   3.204   0.268  12.134 -0.3593  0.5089 -0.4237
 7652SOL    HW130196   3.246   0.186  12.158 -1.1955  0.0004 -0.6683
 7652SOL    HW230197   3.263   0.307  12.069  0.8966  0.9303  0.9165
 7653SOL     OW30198   4.298   3.270   6.515  0.2402 -0.1779  0.4584
 7653SOL    HW130199   4.284   3.216   6.593 -1.0922 -1.2498 -0.4700
 7653SOL    HW230200   4.382   3.241   6.481 -0.4150 -1.6620  0.0242
 7654SOL     OW30201   9.363   2.257   2.116 -0.3204  0.3890 -0.5424
 7654SOL    HW130202   9.375   2.254   2.021 -0.5744  0.8655 -0.5962
 7654SOL    HW230203   9.316   2.177   2.137 -0.1524  0.2196 -0.7998
 7655SOL     OW30204   6.839  11.421   5.523 -0.4607  0.7155  0.5412
 7655SOL    HW130205   6.811  11.510   5.501  0.2388  0.7798 -0.1160
 7655SOL    HW230206   6.894  11.395   5.450  2.2306  1.0418  2.3346
 7656SOL     OW30207   9.108   9.992  11.668 -0.4058  0.3881  0.0523
 7656SOL    HW130208   9.180  10.055  11.680 -0.1820  0.5125 -1.6402
 7656SOL    HW230209   9.042  10.041  11.619 -0.8187 -0.3072 -0.0929
 7657SOL     OW30210  12.598  12.167  11.527  0.1417  0.5787 -0.1114
 7657SOL    HW130211  12.570  12.156  11.617  2.9189  0.4331  0.8243
 7657SOL    HW230212  12.675  12.224  11.532  0.6856  0.1610 -2.3225
 7658SOL     OW30213   3.643   5.335   1.133 -0.1841  0.2259  0.6232
 7658SOL    HW130214   3.711   5.340   1.065 -1.0846 -1.7291 -0.4970
 7658SOL    HW230215   3.668   5.261   1.187 -1.4893 -0.6327  0.0890
 7659SOL     OW30216   2.358   2.460   7.954  0.3135  0.1802  0.2797
 7659SOL    HW130217   2.292   2.407   7.998  1.0779 -0.5004  0.6251
 7659SOL    HW230218   2.320   2.477   7.867 -1.1632  1.4579  1.1100
 7660SOL     OW30219   4.737   4.283   4.232 -0.0546  0.3445 -0.0153
 7660SOL    HW130220   4.681   4.216   4.191  0.0115 -0.0352  0.4998
 7660SOL    HW230221   4.677   4.331   4.290 -0.1414  0.8568 -0.5243
 7661SOL     OW30222   8.879   3.322   8.601 -0.1669 -0.4192 -0.2546
 7661SOL    HW130223   8.898   3.354   8.513 -0.2375  2.8264  0.8016
 7661SOL    HW230224   8.964   3.304   8.640 -0.1303 -1.7052 -0.8673
 7662SOL     OW30225   9.699   7.383   9.561  0.3048 -0.2249  0.3521
 7662SOL    HW130226   9.644   7.308   9.584 -1.0373  0.5817 -0.1171
 7662SOL    HW230227   9.654   7.458   9.599  0.5053  0.5816 -0.9613
 7663SOL     OW30228  10.449   0.855   5.562 -0.3595  0.0601  0.2518
 7663SOL    HW130229  10.469   0.940   5.601 -2.3240  0.4364  0.5123
 7663SOL    HW230230  10.372   0.871   5.507  1.4005 -0.7656 -2.6963
 7664SOL     OW30231   9.598   9.992   2.989 -0.0299 -0.0092 -0.1966
 7664SOL    HW130232   9.554   9.939   3.056  1.7311 -0.8934  0.3312
 7664SOL    HW230233   9.558  10.079   2.996 -3.0157 -1.1752 -1.0736
 7665SOL     OW30234  11.282   8.807   0.669  0.1771 -0.0209  0.1008
 7665SOL    HW130235  11.228   8.884   0.651 -0.2241 -0.4960 -0.7825
 7665SOL    HW230236  11.225   8.733   0.650  1.2883 -0.5374 -1.4238
 7666SOL     OW30237  11.447   8.898   3.630 -0.2322 -0.4527  0.2178
 7666SOL    HW130238  11.366   8.939   3.602  0.1839  1.3987  1.4687
 7666SOL    HW230239  11.477   8.952   3.704  1.8093 -1.4307  0.1966
 7667SOL     OW30240   2.075  10.703   3.389  0.1235  0.0431 -0.3262
 7667SOL    HW130241   2.105  10.623   3.346 -0.4327  0.2814 -1.1990
 7667SOL    HW230242   2.101  10.773   3.329  2.2719  0.7264  1.2883
 7668SOL     OW30243   1.711  11.931   3.500  0.4371 -0.7017  0.3432
 7668SOL    HW130244   1.803  11.945   3.479  0.2954 -0.8108 -0.3870
 7668SOL    HW230245   1.711  11.905   3.592  1.1090 -0.4453  0.4236
 7669SOL     OW30246  11.871   3.073   3.895  0.1326 -0.0249  0.3496
 7669SOL    HW130247  11.798   3.107   3.947  1.6666 -0.1217  2.6997
 7669SOL    HW230248  11.949   3.109   3.937  1.5177 -1.2327 -1.0775
 7670SOL     OW30249   8.562   3.319   9.837  0.3372 -0.1407  0.0386
 7670SOL    HW130250   8.467   3.330   9.827  0.3306  0.3090  0.5467
 7670SOL    HW230251   8.593   3.297   9.750 -0.1138  0.5671 -0.3064
 7671SOL     OW30252  10.086   9.568   4.919  0.5531 -0.4771  0.1716
 7671SOL    HW130253  10.101   9.493   4.977  2.3797 -0.5812 -0.3883
 7671SOL    HW230254  10.047   9.531   4.840 -1.6717 -0.3714  1.1340
 7672SOL     OW30255   0.172   4.101   0.555 -0.4692  0.5397  0.5603
 7672SOL    HW130256   0.225   4.178   0.536 -2.8613  1.8558 -1.4271
 7672SOL    HW230257   0.188   4.042   0.481 -0.0348 -0.1090  1.1563
 7673SOL     OW30258  12.220  10.646   6.615 -0.4224  0.0061  0.0406
 7673SOL    HW130259  12.210  10.735   6.583 -1.8706 -0.3028 -0.4415
 7673SOL    HW230260  12.244  10.656   6.707 -0.5964  0.8879 -0.0024
 7674SOL     OW30261  11.630   6.482   7.684  0.0028 -0.5169 -0.1393
 7674SOL    HW130262  11.554   6.452   7.734  0.1596 -1.7907 -0.6142
 7674SOL    HW230263  11.681   6.534   7.745 -0.8411 -0.3168  0.4124
 7675SOL     OW30264   7.431   2.604   1.396 -0.1295 -0.7906  0.1507
 7675SOL    HW130265   7.362   2.669   1.380  0.0135 -1.0338 -1.7503
 7675SOL    HW230266   7.471   2.630   1.479 -1.1957  0.5299  0.2826
 7676SOL     OW30267   3.937  10.638   5.699  0.1448  0.7112 -0.1530
 7676SOL    HW130268   3.945  10.626   5.794  1.3852  0.0443 -0.3308
 7676SOL    HW230269   3.843  10.628   5.682  0.0591 -0.4167  0.8399
 7677SOL     OW30270   6.742   8.850   8.007  0.3264 -0.5004 -0.8700
 7677SOL    HW130271   6.807   8.841   8.077  0.3005 -1.2640 -0.9333
 7677SOL    HW230272   6.672   8.903   8.045 -0.9516 -3.0860  0.6158
 7678SOL     OW30273  10.712  11.529   6.537  0.1768  0.3582  0.6178
 7678SOL    HW130274  10.642  11.562   6.482  1.2876  1.8921  0.0535
 7678SOL    HW230275  10.671  11.515   6.623 -1.5728 -2.0485 -0.5048
 7679SOL     OW30276   1.846   2.584   4.199  0.4565 -0.1736 -0.5476
 7679SOL    HW130277   1.926   2.625   4.232  0.5197 -0.9473  0.3091
 7679SOL    HW230278   1.787   2.658   4.182  0.9259  0.3315 -0.0413
 7680SOL     OW30279   3.994  12.484   4.283  0.0064 -0.3493  0.1669
 7680SOL    HW130280   3.982  12.488   4.378 -1.2185  1.6693 -0.0071
 7680SOL    HW230281   3.914  12.522   4.247  2.2225  3.4050 -1.5066
 7681SOL     OW30282   9.856   4.227   0.450 -0.2360  0.7381  0.0562
 7681SOL    HW130283   9.888   4.167   0.383 -0.6394  3.0240 -2.3771
 7681SOL    HW230284   9.935   4.266   0.487 -0.0255  0.0020  0.3953
 7682SOL     OW30285  12.544   3.173   0.483 -0.6341  0.2548 -0.4521
 7682SOL    HW130286  12.507   3.091   0.450 -1.7494  0.6316 -0.1910
 7682SOL    HW230287  12.585   3.213   0.407  0.2692 -0.7119 -0.5029
 7683SOL     OW30288   5.524   1.318   9.010 -0.2476 -0.1907  0.6790
 7683SOL    HW130289   5.518   1.223   9.021 -0.6881 -0.4884 -1.6062
 7683SOL    HW230290   5.453   1.354   9.063 -1.4256 -1.3104 -0.1004
 7684SOL     OW30291   7.319   5.538   7.651 -0.1006  0.0599 -0.3355
 7684SOL    HW130292   7.241   5.511   7.699  0.2549  0.2295  0.3444
 7684SOL    HW230293   7.307   5.501   7.563 -0.0406 -1.5261  0.3091
 7685SOL     OW30294  10.400  10.897   2.916  0.2598  0.0455 -0.4788
 7685SOL    HW130295  10.325  10.945   2.952 -0.5876 -1.0692 -0.6998
 7685SOL    HW230296  10.449  10.962   2.867  1.5418  1.6964  2.7166
 7686SOL     OW30297   3.878   8.624   3.393  0.4756  0.5180  0.0318
 7686SOL    HW130298   3.945   8.556   3.399  1.9855  1.9456  0.0722
 7686SOL    HW230299   3.865   8.653   3.484 -1.2795 -0.6770  0.2264
 7687SOL     OW30300   5.928  12.307   6.244 -0.3394  0.2991  0.8661
 7687SOL    HW130301   5.961  12.351   6.166  1.8362 -0.0954  1.5016
 7687SOL    HW230302   5.940  12.214   6.225  1.3426  0.2226  2.0730
 7688SOL     OW30303   8.820   1.317  12.081  0.4999  0.1171  0.0197
 7688SOL    HW130304   8.755   1.385  12.064 -0.2704 -0.6734 -0.2998
 7688SOL    HW230305   8.799   1.285  12.169  0.9917  0.4213  0.2530
 7689SOL     OW30306   1.078   6.046  10.784 -0.3679 -0.3538  0.1805
 7689SOL    HW130307   1.155   6.103  10.781 -0.2657 -0.5117 -0.5076
 7689SOL    HW230308   1.075   6.005  10.697 -1.2024 -0.3832  0.2117
 7690SOL     OW30309   0.682   7.091   6.166  0.1068 -0.1525 -0.2541
 7690SOL    HW130310   0.683   7.070   6.259  0.0170  0.3605 -0.1362
 7690SOL    HW230311   0.591   7.076   6.139 -0.1866  0.9949  0.0458
 7691SOL     OW30312  11.400   2.050   4.993 -0.2648 -0.0036 -0.0848
 7691SOL    HW130313  11.437   2.131   4.960 -0.7577 -0.3637 -1.5743
 7691SOL    HW230314  11.476   2.000   5.023  0.2100  0.3103 -0.7371
 7692SOL     OW30315   7.442  10.757   5.680  0.3201  0.1331  0.2078
 7692SOL    HW130316   7.429  10.847   5.651 -1.7792  0.0015  0.6013
 7692SOL    HW230317   7.517  10.726   5.630  0.3299  1.7138 -0.8070
 7693SOL     OW30318   9.383   3.163   7.607  0.2101 -0.6255 -0.0817
 7693SOL    HW130319   9.354   3.248   7.577 -1.9997 -1.1748  0.3211
 7693SOL    HW230320   9.474   3.156   7.578  1.2432  2.7721  1.8335
 7694SOL     OW30321  11.253   4.464   6.671 -0.2876  0.5736 -0.5578
 7694SOL    HW130322  11.268   4.390   6.612 -0.3731 -0.1908  0.3605
 7694SOL    HW230323  11.335   4.515   6.666  0.9526 -1.1471  0.9821
 7695SOL     OW30324  11.042   4.101   5.985  0.2249 -0.4623 -0.3665
 7695SOL    HW130325  10.971   4.041   5.962 -0.2977  0.2589 -0.6762
 7695SOL    HW230326  11.067   4.075   6.074 -0.0275 -1.1004 -0.4742
 7696SOL     OW30327   1.894  10.660   7.321 -0.1383  0.0064 -0.0571
 7696SOL    HW130328   1.818  10.698   7.367 -0.1210 -0.1748  0.1216
 7696SOL    HW230329   1.950  10.627   7.391  0.8213  1.4551 -0.0991
 7697SOL     OW30330  10.912   1.620  10.681  0.6530 -0.3047 -0.2358
 7697SOL    HW130331  10.913   1.540  10.733  0.0588 -0.2174 -0.0902
 7697SOL    HW230332  10.867   1.595  10.600 -3.3725  0.8438  1.4099
 7698SOL     OW30333   1.411   0.510   3.222 -0.7623  0.3947  0.6018
 7698SOL    HW130334   1.411   0.576   3.154 -0.9473  1.4564  1.6040
 7698SOL    HW230335   1.318   0.487   3.234 -0.6424 -0.6312 -0.2679
 7699SOL     OW30336   3.050   1.728   2.947  0.2018 -0.4827  0.2490
 7699SOL    HW130337   3.109   1.653   2.957  0.6336 -0.0567  0.9192
 7699SOL    HW230338   3.106   1.800   2.918 -0.0047 -0.1234  0.7165
 7700SOL     OW30339   4.423   0.692   3.367 -0.8923  0.1289 -0.4518
 7700SOL    HW130340   4.460   0.775   3.336 -1.2580  0.0854 -1.0140
 7700SOL    HW230341   4.427   0.699   3.462 -0.3017  0.5132 -0.4963
 7701SOL     OW30342  10.551  10.422   7.475 -0.5051 -0.2207 -0.3350
 7701SOL    HW130343  10.624  10.481   7.495  1.7085 -2.1377 -2.1649
 7701SOL    HW230344  10.520  10.452   7.390 -0.2580 -0.8132 -0.6433
 7702SOL     OW30345   7.208   7.007   5.202 -0.0905 -0.0497  0.7433
 7702SOL    HW130346   7.296   7.018   5.165  0.2332 -0.8906  1.2313
 7702SOL    HW230347   7.181   6.920   5.171 -2.1791  1.5073 -2.2775
 7703SOL     OW30348   8.297   7.218  10.386 -0.2911 -0.0253  0.4433
 7703SOL    HW130349   8.316   7.311  10.371 -1.6563  0.3841  1.0446
 7703SOL    HW230350   8.245   7.192  10.310  1.6512 -0.8401 -0.6639
 7704SOL     OW30351   8.765   2.007  12.192  0.1433  0.2994 -0.3610
 7704SOL    HW130352   8.821   1.987  12.267 -1.7704 -1.5849  0.6761
 7704SOL    HW230353   8.775   1.932  12.134 -1.0798  0.0458 -0.2687
 7705SOL     OW30354   1.320   4.083   5.065 -0.1579 -0.3224  0.5016
 7705SOL    HW130355   1.266   4.005   5.067 -2.5078  1.1742 -0.6101
 7705SOL    HW230356   1.258   4.156   5.062  1.9173  1.5350 -0.5963
 7706SOL     OW30357   3.412   7.923   3.589  0.6273 -0.3424 -0.0728
 7706SOL    HW130358   3.409   7.989   3.658  0.0420  1.6208 -1.8641
 7706SOL    HW230359   3.333   7.871   3.602 -0.1940  0.8751 -0.0514
 7707SOL     OW30360   9.033   3.775   4.458 -0.2352 -0.3083  0.0565
 7707SOL    HW130361   8.973   3.795   4.530 -0.9971  0.1608 -0.7054
 7707SOL    HW230362   9.076   3.858   4.438  1.4647 -0.8297  1.2687
 7708SOL     OW30363   2.140   2.525   4.283 -0.1813  0.2488  0.3445
 7708SOL    HW130364   2.137   2.592   4.352 -1.2879  0.6871 -0.1165
 7708SOL    HW230365   2.218   2.473   4.304 -0.2647  0.6332  1.6844
 7709SOL     OW30366   5.494   8.792   2.315  0.1103  0.4516 -0.0412
 7709SOL    HW130367   5.410   8.837   2.329  0.7586  1.2756  1.3824
 7709SOL    HW230368   5.486   8.710   2.363 -0.3042 -0.0353 -0.9146
 7710SOL     OW30369   7.837   7.219   8.593  0.2726 -0.2558  0.2337
 7710SOL    HW130370   7.839   7.256   8.505  1.9287  0.5324  0.5723
 7710SOL    HW230371   7.799   7.288   8.648  0.2174 -0.3501  0.3174
 7711SOL     OW30372   4.478   1.554   0.055  0.3775  0.3879  0.0004
 7711SOL    HW130373   4.464   1.648   0.040  1.0920  0.3445 -1.0059
 7711SOL    HW230374   4.443   1.539   0.143 -2.3882  1.0084 -0.9120
 7712SOL     OW30375   2.552   0.669   8.121 -0.7384  0.1469 -0.2190
 7712SOL    HW130376   2.592   0.734   8.178 -0.4835 -0.3046  0.1190
 7712SOL    HW230377   2.458   0.687   8.127 -0.7262 -0.0003  0.4705
 7713SOL     OW30378   1.557   4.983   4.147  0.0525  0.8093  0.0993
 7713SOL    HW130379   1.604   5.024   4.075  1.4254  3.8767  2.4783
 7713SOL    HW230380   1.619   4.919   4.183 -0.5714 -0.5984 -1.1963
 7714SOL     OW30381   4.061   6.748  11.279 -0.1682 -0.0271 -0.3106
 7714SOL    HW130382   4.130   6.797  11.323 -0.3084 -0.0963 -0.0159
 7714SOL    HW230383   3.980   6.791  11.306 -0.4215 -1.3527  1.1793
 7715SOL     OW30384  12.402   2.260  10.518 -0.1720 -0.1311 -0.5364
 7715SOL    HW130385  12.397   2.336  10.575  0.5848  1.1001 -2.0379
 7715SOL    HW230386  12.355   2.191  10.565  1.5202  0.4246  2.1505
 7716SOL     OW30387   1.800   4.389   1.393 -0.0067 -0.0693 -0.5233
 7716SOL    HW130388   1.847   4.320   1.347  0.3205  0.3403 -0.8160
 7716SOL    HW230389   1.862   4.422   1.458  0.7542  1.5931 -1.9981
 7717SOL     OW30390   8.860  11.805   5.166 -0.0032 -0.4879 -0.9712
 7717SOL    HW130391   8.886  11.751   5.241  1.6916  2.8607  1.1074
 7717SOL    HW230392   8.784  11.855   5.197 -0.0253  0.0933 -1.9001
 7718SOL     OW30393   1.920   9.494   8.860  0.2801  0.4270  0.2086
 7718SOL    HW130394   1.998   9.478   8.806  0.8907  3.0091  0.1828
 7718SOL    HW230395   1.947   9.562   8.922 -1.6958  0.7491  0.7870
 7719SOL     OW30396  11.225   5.961  11.784 -0.2046  0.1801  0.1026
 7719SOL    HW130397  11.318   5.986  11.791 -0.8848  2.6191  1.4358
 7719SOL    HW230398  11.217   5.927  11.695  1.6030  1.7472 -0.7420
 7720SOL     OW30399  10.317   4.140   5.859  0.0745 -0.4878 -0.3805
 7720SOL    HW130400  10.381   4.112   5.925 -0.7734 -1.7395 -0.0489
 7720SOL    HW230401  10.280   4.220   5.894 -0.2717 -1.0665  0.6234
 7721SOL     OW30402   1.234   4.088   6.312 -0.5530 -0.6423 -0.4691
 7721SOL    HW130403   1.259   4.174   6.347  0.5727 -1.1107 -0.0955
 7721SOL    HW230404   1.139   4.085   6.324 -0.4360 -0.0416  0.8650
 7722SOL     OW30405  11.636  12.155   3.106  0.5177 -0.3625 -0.1002
 7722SOL    HW130406  11.652  12.154   3.201  0.8975  0.7543 -0.1350
 7722SOL    HW230407  11.719  12.182   3.068 -0.0186  0.5608 -0.6475
 7723SOL     OW30408   0.951   5.706  10.056  0.5005 -0.1489 -0.0392
 7723SOL    HW130409   0.938   5.677   9.966 -1.5255 -0.8933  0.4461
 7723SOL    HW230410   1.046   5.703  10.069  0.9186  0.7426 -2.3694
 7724SOL     OW30411   0.438   8.515   6.051 -0.5795  0.0073  0.4086
 7724SOL    HW130412   0.454   8.590   5.994 -0.9167 -0.3706 -0.1836
 7724SOL    HW230413   0.356   8.478   6.020 -0.4071 -0.6197  0.6932
 7725SOL     OW30414   3.093   4.077  10.005 -0.4017 -0.8196 -0.5121
 7725SOL    HW130415   3.016   4.067  10.061 -0.5896 -1.3282 -0.8559
 7725SOL    HW230416   3.143   4.148  10.045 -1.3841 -0.0250 -0.6668
 7726SOL     OW30417  12.496   6.352   9.894 -0.7894 -0.2054 -0.1315
 7726SOL    HW130418  12.524   6.441   9.874  0.1739 -0.4945 -0.1025
 7726SOL    HW230419  12.574   6.299   9.883 -0.5147 -0.6126  2.9582
 7727SOL     OW30420   2.836   1.837   5.720  0.2805  0.5177 -0.6865
 7727SOL    HW130421   2.751   1.880   5.706 -0.4957 -0.9722 -0.7672
 7727SOL    HW230422   2.868   1.817   5.633 -0.1316 -0.4642 -0.6280
 7728SOL     OW30423   9.454   4.171   0.382 -0.0624 -0.5646  0.5013
 7728SOL    HW130424   9.400   4.187   0.459 -0.4050  0.0152  0.1487
 7728SOL    HW230425   9.437   4.246   0.325  1.0582 -0.4128  0.3497
 7729SOL     OW30426   5.332  10.925   8.934 -0.0827 -0.3566  0.1587
 7729SOL    HW130427   5.390  10.931   9.009  0.0777 -0.5149  0.0498
 7729SOL    HW230428   5.391  10.917   8.859 -0.1795  1.8026 -0.2055
 7730SOL     OW30429  11.935   5.847   7.493 -0.1175 -0.1197 -0.2825
 7730SOL    HW130430  12.028   5.866   7.495 -0.0264 -0.4454 -1.0513
 7730SOL    HW230431  11.899   5.908   7.428 -0.1531 -1.1025 -1.2246
 7731SOL     OW30432   6.640   0.799   4.506 -0.0395  0.4475  0.1349
 7731SOL    HW130433   6.615   0.890   4.521 -0.3590  0.5035 -0.6557
 7731SOL    HW230434   6.630   0.787   4.411  0.9967 -0.1153  0.0797
 7732SOL     OW30435  12.392   0.336   2.149  0.7718 -0.0254  0.5979
 7732SOL    HW130436  12.347   0.405   2.196  0.4455 -0.9191  1.6394
 7732SOL    HW230437  12.441   0.289   2.216 -0.0938 -1.6219  0.1758
 7733SOL     OW30438  12.610   8.457   4.482  0.1375  0.1229  0.7824
 7733SOL    HW130439  12.660   8.391   4.530  2.3737  0.9895 -0.2042
 7733SOL    HW230440  12.629   8.539   4.528  0.6883  0.6518 -0.3444
 7734SOL     OW30441   0.496   6.924  10.445  0.4158 -0.0264  0.4210
 7734SOL    HW130442   0.526   6.864  10.377  1.6080  0.3401  0.6095
 7734SOL    HW230443   0.417   6.964  10.409  1.0266  0.1672 -0.7425
 7735SOL     OW30444   8.093  10.508   2.784  0.3307 -0.2011  0.3279
 7735SOL    HW130445   8.108  10.526   2.691  0.4035 -1.1247  0.1486
 7735SOL    HW230446   8.181  10.499   2.821  0.2916 -0.3858  0.3729
 7736SOL     OW30447  12.231  10.218   6.246 -0.0879 -0.2108  0.0494
 7736SOL    HW130448  12.138  10.200   6.255  0.1193 -1.2505  0.2304
 7736SOL    HW230449  12.255  10.266   6.325 -0.2516 -0.8913  0.5176
 7737SOL     OW30450   2.886   3.641   8.314  0.0219 -0.5767  0.5926
 7737SOL    HW130451   2.858   3.698   8.386  0.9449 -0.8045  1.1403
 7737SOL    HW230452   2.805   3.597   8.287 -0.4909  0.1251  0.9273
 7738SOL     OW30453  12.356  12.234   5.833 -0.4536  0.0290  0.5524
 7738SOL    HW130454  12.355  12.143   5.803 -1.5686  0.0655  0.4510
 7738SOL    HW230455  12.444  12.266   5.810  1.1473 -1.9033  3.3521
 7739SOL     OW30456   2.996   3.965   2.145 -0.0188  0.1700 -0.2158
 7739SOL    HW130457   2.968   3.927   2.228 -0.8496 -1.0655 -1.0296
 7739SOL    HW230458   2.924   4.022   2.119  0.3188  0.6983 -0.0237
 7740SOL     OW30459   2.772  11.332   3.088 -0.4431 -0.7936  0.8571
 7740SOL    HW130460   2.842  11.342   3.153 -0.5182 -0.1370  0.8383
 7740SOL    HW230461   2.792  11.248   3.046  0.5231 -0.4711  0.6312
 7741SOL     OW30462  12.692   7.325   7.375  0.3096  0.2054  0.2654
 7741SOL    HW130463  12.671   7.276   7.295  1.7748 -1.1173  0.6553
 7741SOL    HW230464  12.608   7.361   7.403 -0.2736  0.5266 -1.7404
 7742SOL     OW30465  11.095   3.821   0.697 -0.4266 -0.0847  0.5207
 7742SOL    HW130466  11.157   3.852   0.764  2.0890 -1.9749 -0.7347
 7742SOL    HW230467  11.137   3.842   0.614 -2.6857  0.7046 -0.4866
 7743SOL     OW30468   7.307  11.448   9.403  0.2404 -0.3521 -0.1952
 7743SOL    HW130469   7.320  11.523   9.346 -0.7941 -0.1194 -0.1483
 7743SOL    HW230470   7.310  11.372   9.345  0.8077 -0.2437 -0.3122
 7744SOL     OW30471   1.656  11.922  12.394  0.2040  0.4290 -0.2631
 7744SOL    HW130472   1.606  11.844  12.370 -0.3188  0.7591 -0.2795
 7744SOL    HW230473   1.689  11.956  12.311  1.3917 -0.3915 -0.1530
 7745SOL     OW30474  11.468   2.163   9.450  0.2100  0.2420  0.5142
 7745SOL    HW130475  11.475   2.078   9.495  0.1420 -0.5076 -0.8244
 7745SOL    HW230476  11.552   2.172   9.404 -0.4241  0.0907 -0.6958
 7746SOL     OW30477   9.057   9.149   8.361 -0.1228  0.2084 -0.0746
 7746SOL    HW130478   9.134   9.095   8.377  0.0189  0.0695 -1.1667
 7746SOL    HW230479   9.009   9.147   8.444 -0.1115 -1.5506 -0.0709
 7747SOL     OW30480   8.337   3.094   8.419  0.5197 -0.3200  0.0636
 7747SOL    HW130481   8.331   3.186   8.444  2.0340  0.1662 -1.2372
 7747SOL    HW230482   8.313   3.092   8.326 -1.5688 -1.5920  0.5430
 7748SOL     OW30483   9.791   4.793   7.981  0.0713 -0.0454  0.4949
 7748SOL    HW130484   9.845   4.714   7.980 -1.1353 -0.9308 -1.4872
 7748SOL    HW230485   9.800   4.829   7.893 -2.6697 -0.3584  0.0051
 7749SOL     OW30486   8.465   7.308   7.885 -0.4825  0.4050  0.2588
 7749SOL    HW130487   8.432   7.219   7.873 -2.5372  0.9727  1.1237
 7749SOL    HW230488   8.448   7.352   7.802  1.1977 -0.1713 -0.4137
 7750SOL     OW30489   0.633   1.249   1.192  0.0165 -0.0366 -0.0975
 7750SOL    HW130490   0.684   1.258   1.111  0.7594 -2.5693  0.0087
 7750SOL    HW230491   0.550   1.291   1.172  1.8331  3.7722 -0.4509
 7751SOL     OW30492  11.255  11.794  10.369  0.0906 -0.1277 -0.0504
 7751SOL    HW130493  11.331  11.760  10.416 -2.2290 -1.0170  3.4775
 7751SOL    HW230494  11.240  11.881  10.405 -0.2947  0.2403 -1.0561
 7752SOL     OW30495   2.851   8.760   8.715  0.1601  0.4277  0.1772
 7752SOL    HW130496   2.902   8.826   8.763  0.2180  0.5167 -0.0048
 7752SOL    HW230497   2.766   8.760   8.758 -0.0288  1.0377 -0.1915
 7753SOL     OW30498   3.268   8.981   1.166  0.3028  0.3755  0.6819
 7753SOL    HW130499   3.241   8.952   1.079  0.9531 -0.2701  0.6889
 7753SOL    HW230500   3.186   8.999   1.212 -0.0293  1.7281 -0.3914
 7754SOL     OW30501   3.914   9.536   6.626  0.2204 -0.0169  0.4410
 7754SOL    HW130502   3.976   9.579   6.686 -0.6602 -0.5332  1.7780
 7754SOL    HW230503   3.951   9.448   6.614 -2.3905 -2.1054  5.0429
 7755SOL     OW30504   9.037   9.115   9.345 -0.2101 -0.4134 -0.2609
 7755SOL    HW130505   9.081   9.156   9.420 -1.3197  0.1332  0.1096
 7755SOL    HW230506   9.041   9.021   9.364  0.3029 -0.3381  0.0353
 7756SOL     OW30507  10.032   4.200   5.119  0.4958  0.4376  1.5899
 7756SOL    HW130508   9.960   4.145   5.088  1.5920 -0.5362  0.6700
 7756SOL    HW230509  10.017   4.285   5.076 -0.9076  0.7378  2.5899
 7757SOL     OW30510  10.841   0.614   5.040 -0.7263 -0.5265 -0.1532
 7757SOL    HW130511  10.873   0.560   5.112  0.9255  1.3583  0.5968
 7757SOL    HW230512  10.800   0.689   5.083  0.9301  0.9972 -1.0927
 7758SOL     OW30513  12.033   0.426   7.672  0.7446 -0.5981  0.1766
 7758SOL    HW130514  12.067   0.438   7.761  0.6009  0.9123  0.0481
 7758SOL    HW230515  12.059   0.505   7.625 -0.6964 -0.5736 -0.6362
 7759SOL     OW30516   8.160   8.051   3.854  0.1000 -0.3413  0.1347
 7759SOL    HW130517   8.140   8.046   3.948  0.6286 -0.9795  0.2199
 7759SOL    HW230518   8.234   8.112   3.849  1.2658 -1.6724  0.3501
 7760SOL     OW30519  12.044   9.105   6.733 -0.1998 -0.3298  0.9154
 7760SOL    HW130520  12.112   9.096   6.667 -1.4800 -0.3795 -0.4731
 7760SOL    HW230521  12.026   9.016   6.763 -1.7946 -0.7616 -1.0687
 7761SOL     OW30522  11.342   5.376   8.041 -0.8480 -0.2493  0.3229
 7761SOL    HW130523  11.430   5.364   8.076 -0.5717  1.7758  0.4365
 7761SOL    HW230524  11.285   5.336   8.107 -0.1084 -0.1638  1.0354
 7762SOL     OW30525   7.612   0.805   4.366 -0.3570 -0.2175  0.2412
 7762SOL    HW130526   7.627   0.749   4.289  0.6513 -0.9462  0.9440
 7762SOL    HW230527   7.614   0.745   4.440  0.1454  0.6609  0.9572
 7763SOL     OW30528   3.833   3.122   1.263 -0.0324  0.0275 -0.3761
 7763SOL    HW130529   3.855   3.036   1.299  0.4525 -0.0929 -0.9408
 7763SOL    HW230530   3.760   3.106   1.204 -2.5569  0.5881  2.3197
 7764SOL     OW30531  10.212   7.912   6.310 -0.0639  0.0249  0.0079
 7764SOL    HW130532  10.223   7.934   6.217  0.6509  1.1107  0.3300
 7764SOL    HW230533  10.202   7.817   6.310  0.9552 -0.1204 -1.1111
 7765SOL     OW30534   1.019   7.864   1.935 -0.3727  0.0763 -0.5210
 7765SOL    HW130535   0.998   7.958   1.927 -1.7981 -0.2393 -0.7826
 7765SOL    HW230536   0.942   7.820   1.900  0.4991 -1.2048 -0.8744
 7766SOL     OW30537   4.412   5.794   9.939 -0.6189 -0.2482  0.5351
 7766SOL    HW130538   4.364   5.711   9.935 -1.1842  0.0898 -0.0306
 7766SOL    HW230539   4.496   5.775   9.898 -0.6565 -0.6081  0.6254
 7767SOL     OW30540   1.101   7.838   4.525 -0.3382 -0.0601 -1.0159
 7767SOL    HW130541   1.041   7.912   4.525  1.1334  1.1608 -1.5078
 7767SOL    HW230542   1.119   7.823   4.618  0.4633  1.1324 -0.9656
 7768SOL     OW30543   0.892   9.390   8.721  0.1418  0.3505 -0.2615
 7768SOL    HW130544   0.935   9.414   8.804  0.2270 -0.6926  0.0067
 7768SOL    HW230545   0.830   9.462   8.705 -1.5053 -0.4698  1.8837
 7769SOL     OW30546   9.649   8.277  11.557 -0.0033 -0.1026 -0.3137
 7769SOL    HW130547   9.657   8.211  11.488 -1.3392  0.8370 -1.3967
 7769SOL    HW230548   9.590   8.237  11.621 -0.5491 -0.1007 -0.8074
 7770SOL     OW30549  11.672   3.596   5.570 -0.1662  0.6023  0.0803
 7770SOL    HW130550  11.698   3.686   5.550  0.8097  0.0900 -1.0950
 7770SOL    HW230551  11.666   3.554   5.485  0.4965 -0.7373  0.6633
 7771SOL     OW30552   3.062   4.289   9.018  0.0742  0.1036  0.1403
 7771SOL    HW130553   2.980   4.268   8.974 -0.4391  0.3360  0.9635
 7771SOL    HW230554   3.116   4.211   9.009 -0.5205 -0.3206  0.2326
 7772SOL     OW30555   1.028   3.993   5.882  0.4268 -0.0232 -0.0190
 7772SOL    HW130556   0.961   4.005   5.814  1.5389 -0.4585 -1.2257
 7772SOL    HW230557   0.978   3.978   5.962 -0.9347 -1.1036 -1.0297
 7773SOL     OW30558   9.606   7.577   9.734 -0.2548 -0.3878 -0.6926
 7773SOL    HW130559   9.595   7.566   9.829  0.1652 -0.7617 -0.6865
 7773SOL    HW230560   9.588   7.670   9.719 -1.2088 -0.5042 -0.3775
 7774SOL     OW30561   3.779   9.765   3.523 -0.1410  0.2745  0.0795
 7774SOL    HW130562   3.868   9.760   3.557 -0.5601 -0.9770  1.1118
 7774SOL    HW230563   3.783   9.830   3.454  1.3736  0.9019  0.7050
 7775SOL     OW30564   0.403  11.451   7.457  0.5540 -0.2459  0.0437
 7775SOL    HW130565   0.379  11.501   7.379  0.6282 -1.6771 -0.9256
 7775SOL    HW230566   0.379  11.508   7.530  1.8337  1.7700 -1.0025
 7776SOL     OW30567  11.380   1.319   0.656 -0.4396  0.5402  0.2006
 7776SOL    HW130568  11.332   1.268   0.591 -0.1546  0.0585  0.3585
 7776SOL    HW230569  11.468   1.328   0.619  0.4782 -1.8387  1.5532
 7777SOL     OW30570   0.660   7.396  10.400 -0.0147  0.1653 -0.2239
 7777SOL    HW130571   0.567   7.418  10.411 -0.0300  0.4093 -0.8072
 7777SOL    HW230572   0.680   7.341  10.475 -0.7997 -0.4224 -0.4330
 7778SOL     OW30573   5.866   5.993   0.603  0.2374  0.1605  0.1401
 7778SOL    HW130574   5.881   6.073   0.554  0.1030  1.1790  1.6972
 7778SOL    HW230575   5.866   6.020   0.695 -0.2176 -1.5530  0.6917
 7779SOL     OW30576   4.919   2.523  12.241  0.3230  0.6815 -0.2185
 7779SOL    HW130577   4.857   2.489  12.306 -0.7703 -0.3601 -1.7369
 7779SOL    HW230578   4.870   2.591  12.194  0.0943 -0.4872 -1.7591
 7780SOL     OW30579   7.732   6.601   2.977 -0.4482  0.3209 -0.0742
 7780SOL    HW130580   7.706   6.509   2.964  0.5657 -0.2984  1.8307
 7780SOL    HW230581   7.672   6.634   3.044  0.3519  0.4558  0.5946
 7781SOL     OW30582   7.909  11.243  11.337 -0.9382 -0.2958  0.1272
 7781SOL    HW130583   7.885  11.307  11.270 -1.6358  0.4225  1.0172
 7781SOL    HW230584   7.858  11.165  11.316 -1.7079  0.1707  0.2160
 7782SOL     OW30585   5.580   8.205   2.785  0.0524  0.0014 -0.0372
 7782SOL    HW130586   5.505   8.158   2.820 -0.3077 -0.1516 -0.9727
 7782SOL    HW230587   5.653   8.178   2.840 -0.0254 -2.1169 -0.8492
 7783SOL     OW30588   8.598   2.265   4.057 -0.1046  0.5323 -0.7392
 7783SOL    HW130589   8.528   2.211   4.091 -0.0048  0.3965 -0.7484
 7783SOL    HW230590   8.554   2.341   4.018 -0.2380  0.4986 -0.6521
 7784SOL     OW30591   9.434  11.136   4.646 -0.6236 -0.4375 -0.3654
 7784SOL    HW130592   9.389  11.165   4.566 -1.4870  0.8965  0.5665
 7784SOL    HW230593   9.468  11.217   4.685  1.9000 -1.3075 -0.5777
 7785SOL     OW30594   4.117   0.402   4.329  0.0352 -0.3759  0.2530
 7785SOL    HW130595   4.185   0.336   4.345  0.1408 -0.3072  0.0849
 7785SOL    HW230596   4.119   0.417   4.234 -0.3303 -0.4998  0.2213
 7786SOL     OW30597  12.600  11.818   7.621  0.0615  0.7552  0.4869
 7786SOL    HW130598  12.683  11.862   7.601  0.1590 -0.0917 -1.1370
 7786SOL    HW230599  12.533  11.872   7.579  0.2293 -0.8097 -2.0161
 7787SOL     OW30600   9.717  10.375   6.865  0.2251 -0.5011  0.4685
 7787SOL    HW130601   9.671  10.459   6.861  1.3729  0.1340 -3.0774
 7787SOL    HW230602   9.671  10.320   6.802  0.7871 -1.8202  1.1835
 7788SOL     OW30603   9.993  10.475  11.398  0.3794 -0.3525  0.0896
 7788SOL    HW130604  10.048  10.490  11.321 -0.6725 -0.0742 -0.6273
 7788SOL    HW230605   9.905  10.497  11.369  0.2580  2.2589  2.0734
 7789SOL     OW30606  12.016   3.728   6.248  0.2943  0.2704 -0.4142
 7789SOL    HW130607  11.943   3.701   6.192 -0.0482 -0.6754  0.4454
 7789SOL    HW230608  12.068   3.787   6.194 -1.0184  0.8299 -1.1103
 7790SOL     OW30609   1.497   7.489   1.242  0.2784 -0.5974  0.1957
 7790SOL    HW130610   1.524   7.580   1.255  0.0369 -0.3300 -1.0790
 7790SOL    HW230611   1.569   7.437   1.278  2.0648  0.1007 -2.1789
 7791SOL     OW30612   8.491   8.349   9.800  0.3723 -0.2123  0.0505
 7791SOL    HW130613   8.587   8.353   9.799  0.3313  2.6084  0.2538
 7791SOL    HW230614   8.470   8.302   9.881  1.5769 -0.5753  0.1687
 7792SOL     OW30615  10.812   6.124   5.987 -0.3737 -0.2934  0.4015
 7792SOL    HW130616  10.766   6.157   6.064 -0.3277  0.3201  0.1779
 7792SOL    HW230617  10.826   6.031   6.004 -1.5838 -0.4671  0.5236
 7793SOL     OW30618  11.291  10.845   3.349  0.3049  0.6605 -0.3800
 7793SOL    HW130619  11.204  10.866   3.316  0.1574  0.8895  0.1519
 7793SOL    HW230620  11.291  10.750   3.358 -0.0727  0.7076  0.1312
 7794SOL     OW30621   7.874   3.904  10.974  0.2511 -0.5099  0.4194
 7794SOL    HW130622   7.902   3.876  11.061 -0.1393 -0.5432  0.5359
 7794SOL    HW230623   7.779   3.905  10.978  0.2350 -0.2670  0.0684
 7795SOL     OW30624  11.554   8.200   7.686 -0.4526  0.0982  0.3335
 7795SOL    HW130625  11.463   8.171   7.688 -0.4757  0.1064 -0.3829
 7795SOL    HW230626  11.568   8.242   7.770 -1.3203  0.7268  0.1723
 7796SOL     OW30627   7.014   2.837   0.671 -0.4129  0.3972 -0.2413
 7796SOL    HW130628   6.996   2.753   0.630 -0.5850  0.0669  0.4865
 7796SOL    HW230629   7.098   2.825   0.715 -1.1180  0.1059  1.1016
 7797SOL     OW30630   3.300   8.531  12.169 -0.3011  0.2818 -0.0717
 7797SOL    HW130631   3.274   8.440  12.183 -0.3528  0.3778  0.4596
 7797SOL    HW230632   3.391   8.535  12.197 -0.0790  0.2333 -0.7701
 7798SOL     OW30633   4.274  10.356   7.909 -0.3955 -0.1619 -0.0878
 7798SOL    HW130634   4.355  10.407   7.917  0.1239 -1.0664  0.5917
 7798SOL    HW230635   4.237  10.383   7.825 -0.0201  1.1547  0.1417
 7799SOL     OW30636   4.329  12.127   5.107 -0.1845  0.5514 -0.4997
 7799SOL    HW130637   4.390  12.154   5.039 -0.3422  1.7734 -0.1863
 7799SOL    HW230638   4.336  12.031   5.110  2.6346  0.6837  0.3847
 7800SOL     OW30639   6.532   2.863   9.861 -0.8272 -0.0171  0.0022
 7800SOL    HW130640   6.492   2.898   9.781 -0.4299  0.6670  0.0999
 7800SOL    HW230641   6.626   2.873   9.847 -0.5719 -2.4425 -0.6217
 7801SOL     OW30642   4.366   0.658   1.554 -0.0535  0.3267  0.1643
 7801SOL    HW130643   4.365   0.753   1.543  1.1835  0.5623  1.6968
 7801SOL    HW230644   4.308   0.642   1.629  0.1951 -0.0478  0.2811
 7802SOL     OW30645   3.825  12.394  10.331 -1.0234  0.0653 -0.0861
 7802SOL    HW130646   3.763  12.329  10.297 -1.1979 -0.7006  1.6086
 7802SOL    HW230647   3.834  12.372  10.424 -0.0759  1.6792  0.2320
 7803SOL     OW30648  11.771   5.068  11.709  0.8243  0.4937 -0.0649
 7803SOL    HW130649  11.786   5.012  11.633  0.3279  0.4259 -0.1161
 7803SOL    HW230650  11.679   5.094  11.702  0.5805 -0.0576  0.8739
 7804SOL     OW30651  10.585   9.359   6.503  1.0177  0.0520 -0.4056
 7804SOL    HW130652  10.565   9.448   6.532 -0.3415  0.3490 -2.1229
 7804SOL    HW230653  10.578   9.362   6.408  2.6242 -1.5231 -0.6270
 7805SOL     OW30654   8.772   3.625   5.975 -0.5952 -0.3868 -0.1239
 7805SOL    HW130655   8.801   3.715   5.959 -0.8709  0.0308  1.5530
 7805SOL    HW230656   8.752   3.590   5.888 -0.7046  1.2392 -0.7758
 7806SOL     OW30657   8.456   0.601  11.432  0.0355 -0.3267  0.2278
 7806SOL    HW130658   8.511   0.645  11.367  0.7292  0.3179  1.2293
 7806SOL    HW230659   8.390   0.554  11.380  1.1411 -0.6072 -0.9785
 7807SOL     OW30660  12.286   0.971   1.123  0.1663  0.3089 -0.3177
 7807SOL    HW130661  12.365   0.936   1.164  0.0471  0.4201  0.0086
 7807SOL    HW230662  12.290   1.065   1.138  0.2953  0.3879 -0.8646
 7808SOL     OW30663  10.112  10.658   2.466  0.2227  0.3564 -0.0835
 7808SOL    HW130664  10.027  10.621   2.440  0.1171  0.8569 -0.4584
 7808SOL    HW230665  10.125  10.626   2.555 -0.4848  0.4894  0.0751
 7809SOL     OW30666  10.201  12.626  10.248  0.1691 -0.0938 -0.2373
 7809SOL    HW130667  10.283  12.576  10.254 -0.5624 -1.1764  1.9730
 7809SOL    HW230668  10.204  12.666  10.162  1.7868 -2.2738 -1.3032
 7810SOL     OW30669   8.023   8.287  11.234  0.5267 -0.6329  0.5160
 7810SOL    HW130670   7.927   8.284  11.237  0.3477  1.4383 -0.7361
 7810SOL    HW230671   8.046   8.361  11.290  1.1990  0.3119 -0.9475
 7811SOL     OW30672  12.354   6.785   1.628 -0.2662  0.0987  0.5787
 7811SOL    HW130673  12.305   6.841   1.689  1.2862  1.6875  0.4498
 7811SOL    HW230674  12.310   6.797   1.544 -1.8579 -1.3938  1.1268
 7812SOL     OW30675  11.951   6.184   0.292 -0.0108  0.0901 -0.0121
 7812SOL    HW130676  11.912   6.243   0.357 -1.9056 -0.9889 -0.1126
 7812SOL    HW230677  11.923   6.219   0.208  0.1371 -0.0962 -0.1385
 7813SOL     OW30678   7.022  11.126   4.801  0.3192 -0.6178  0.1947
 7813SOL    HW130679   7.056  11.208   4.836  1.0927 -0.1024 -1.6598
 7813SOL    HW230680   6.944  11.108   4.854 -1.2933  2.5944 -0.8473
 7814SOL     OW30681   7.865   5.426  10.318 -0.0245  0.0881 -0.5785
 7814SOL    HW130682   7.891   5.517  10.329 -2.1323  0.7616 -0.7169
 7814SOL    HW230683   7.839   5.419  10.226  1.2352 -0.9811 -0.8775
 7815SOL     OW30684  12.167  12.221   5.049 -0.9520 -0.3016  0.1524
 7815SOL    HW130685  12.139  12.144   5.098 -0.0328 -0.3353  0.6483
 7815SOL    HW230686  12.088  12.251   5.003 -1.4585 -1.1699  0.4428
 7816SOL     OW30687  11.132   7.407   2.482  0.0307 -0.6538 -0.0445
 7816SOL    HW130688  11.049   7.418   2.527 -1.3281 -2.5351 -1.9130
 7816SOL    HW230689  11.187   7.479   2.514 -2.1852  0.4583  1.4590
 7817SOL     OW30690   8.530   3.772   3.816  0.4060 -0.1724  0.0384
 7817SOL    HW130691   8.526   3.868   3.809 -0.3159 -0.1611  0.5726
 7817SOL    HW230692   8.586   3.756   3.892  2.5950 -0.2282 -1.4794
 7818SOL     OW30693  12.641   6.122   0.112 -0.2667  0.5912  0.1593
 7818SOL    HW130694  12.631   6.208   0.153  1.5177  0.0985  1.7251
 7818SOL    HW230695  12.582   6.065   0.162  1.1766  0.2025  1.5018
 7819SOL     OW30696   5.000   9.570   0.716 -0.3600 -0.1997  0.5055
 7819SOL    HW130697   5.027   9.635   0.651 -2.1840  0.7961  0.6611
 7819SOL    HW230698   5.065   9.575   0.786 -0.1454  1.0367  0.2255
 7820SOL     OW30699   7.209  11.865   3.551 -0.0283  0.2702 -0.5021
 7820SOL    HW130700   7.119  11.900   3.552 -0.1426 -0.0191  0.3307
 7820SOL    HW230701   7.219  11.828   3.464 -0.2453  1.5008 -1.0796
 7821SOL     OW30702  10.214  11.993   1.668 -0.1057 -0.2472 -0.3726
 7821SOL    HW130703  10.121  12.011   1.683 -0.1768 -0.6827 -0.2755
 7821SOL    HW230704  10.216  11.901   1.641  0.1870  0.0814 -1.4951
 7822SOL     OW30705   0.992   3.288   1.126  0.2745  0.1016  0.0231
 7822SOL    HW130706   0.903   3.279   1.161  0.5417 -1.0888  0.4566
 7822SOL    HW230707   0.980   3.293   1.032 -0.2245 -0.7747  0.0256
 7823SOL     OW30708   2.655   9.746   8.733 -0.0491 -0.0154  0.2237
 7823SOL    HW130709   2.708   9.700   8.668  0.7080  1.4639 -0.2349
 7823SOL    HW230710   2.598   9.803   8.682  1.0528  1.7036  0.8455
 7824SOL     OW30711   0.147  11.745   6.547  0.1015 -0.0637 -0.1435
 7824SOL    HW130712   0.107  11.825   6.582 -0.6762  0.0725 -1.3043
 7824SOL    HW230713   0.143  11.683   6.619 -1.1699  0.3117  0.1279
 7825SOL     OW30714   6.784  10.117  11.412  0.1948  0.0044  0.0616
 7825SOL    HW130715   6.726  10.131  11.337  0.4050  1.4970  0.1546
 7825SOL    HW230716   6.752  10.036  11.453 -1.7400  0.7233  0.0448
 7826SOL     OW30717  11.829   6.567  11.283 -0.1235  0.1744  0.8465
 7826SOL    HW130718  11.873   6.594  11.202  0.1260  0.8413  1.1997
 7826SOL    HW230719  11.899   6.562  11.348 -0.2009 -1.1322  0.8438
 7827SOL     OW30720   0.223  12.027   9.956 -0.3448 -0.0542 -0.3365
 7827SOL    HW130721   0.220  11.934   9.978  1.2816 -0.1674 -0.4509
 7827SOL    HW230722   0.177  12.070  10.028 -0.5945 -0.9060  0.0237
 7828SOL     OW30723  12.058   1.946   5.967  0.1200 -0.2345  0.1861
 7828SOL    HW130724  12.149   1.923   5.948  0.0168 -0.3536 -0.1873
 7828SOL    HW230725  12.027   1.989   5.887  0.1081  0.6043  0.6264
 7829SOL     OW30726   3.946   4.297  12.651 -0.2215 -0.0186  0.3094
 7829SOL    HW130727   3.860   4.336  12.632 -1.3209 -1.8509  1.2643
 7829SOL    HW230728   3.928   4.228  12.714  1.9495 -0.6515  0.3230
 7830SOL     OW30729   8.654   1.360   0.679 -0.2502 -0.1812  0.2372
 7830SOL    HW130730   8.674   1.267   0.676 -1.5465 -0.4680 -2.3734
 7830SOL    HW230731   8.731   1.403   0.642  0.4760 -0.1283  1.7254
 7831SOL     OW30732   2.758   0.632   6.652  0.2758  0.2378  0.5697
 7831SOL    HW130733   2.672   0.673   6.644 -0.9546 -2.4544 -1.1493
 7831SOL    HW230734   2.776   0.635   6.746 -0.8402  2.3659  0.7949
 7832SOL     OW30735   2.529   0.600  10.191  0.4227  0.1425 -0.3634
 7832SOL    HW130736   2.574   0.681  10.213 -2.3185  2.6905 -3.1774
 7832SOL    HW230737   2.574   0.533  10.242  2.7949  3.3776  2.2329
 7833SOL     OW30738   9.723   2.651   4.654 -0.1641  0.2030  0.5327
 7833SOL    HW130739   9.709   2.647   4.560 -1.3524  1.2214  0.6367
 7833SOL    HW230740   9.813   2.621   4.667 -0.6047 -1.8317 -0.7201
 7834SOL     OW30741   3.204   5.465   6.606  0.2127  0.3954  0.1539
 7834SOL    HW130742   3.235   5.395   6.548 -1.6968 -1.3602  1.1248
 7834SOL    HW230743   3.240   5.442   6.692 -0.4140  0.6167  0.4779
 7835SOL     OW30744   8.519   1.533   7.004 -0.2828  0.4668  0.8560
 7835SOL    HW130745   8.572   1.530   6.924  0.3623 -1.6250  1.2991
 7835SOL    HW230746   8.432   1.501   6.977 -1.0759  2.8661  0.3588
 7836SOL     OW30747  10.972   8.082   4.702 -0.2627 -0.0082 -0.3588
 7836SOL    HW130748  11.055   8.062   4.657  0.3642 -0.3943  0.9256
 7836SOL    HW230749  10.905   8.047   4.644  0.4297  0.7911 -1.6952
 7837SOL     OW30750   9.764   1.601   0.507  0.6246  0.1162  0.2624
 7837SOL    HW130751   9.726   1.674   0.556  2.2581  0.8858  0.4689
 7837SOL    HW230752   9.739   1.523   0.557  0.2481  0.6919  0.9862
 7838SOL     OW30753   1.792   3.934  11.761  0.1463 -0.4659  0.3814
 7838SOL    HW130754   1.817   3.842  11.747  0.4813 -0.0281 -2.2165
 7838SOL    HW230755   1.848   3.963  11.833  0.1445 -2.2313  1.1531
 7839SOL     OW30756   4.303   0.403   9.799  0.0987  0.2881 -0.3003
 7839SOL    HW130757   4.352   0.485   9.809  0.8455 -0.2232  0.4050
 7839SOL    HW230758   4.346   0.359   9.725 -0.8311  0.8846 -1.2162
 7840SOL     OW30759   4.642  12.179   1.178  0.0537  0.2066 -0.0978
 7840SOL    HW130760   4.587  12.238   1.128  0.6473 -0.1569 -1.2185
 7840SOL    HW230761   4.582  12.135   1.238 -0.9444 -0.3920 -1.4800
 7841SOL     OW30762  10.084   8.458   8.755  0.2263 -0.2856  0.5740
 7841SOL    HW130763  10.128   8.409   8.825 -0.1223 -2.7468 -0.7957
 7841SOL    HW230764  10.015   8.399   8.725 -0.0396  0.9518 -1.4213
 7842SOL     OW30765   8.318   6.593   2.907  0.0982  0.2077  0.8270
 7842SOL    HW130766   8.269   6.644   2.842 -0.3127  0.1467  1.0802
 7842SOL    HW230767   8.402   6.575   2.866 -1.4159 -3.0024 -1.2128
 7843SOL     OW30768   6.585  10.124   0.177  0.4120  1.1667 -0.4380
 7843SOL    HW130769   6.657  10.062   0.192  0.6681  1.0365 -2.0244
 7843SOL    HW230770   6.546  10.136   0.263  1.2214 -0.1374  0.1503
 7844SOL     OW30771   6.022   0.050   4.837 -0.5830  0.3141 -0.1177
 7844SOL    HW130772   6.089  -0.013   4.808  1.7668  2.5900 -0.0280
 7844SOL    HW230773   5.945   0.028   4.785  0.4246 -2.0122 -0.7638
 7845SOL     OW30774   6.187   8.036   3.132 -0.1831  0.2670  0.0504
 7845SOL    HW130775   6.113   7.975   3.131 -2.3304  2.6690  0.2487
 7845SOL    HW230776   6.205   8.050   3.225  1.1157 -0.8845  0.0079
 7846SOL     OW30777  11.424   9.773  10.482 -0.0503 -0.2502  0.6066
 7846SOL    HW130778  11.336   9.781  10.447  0.2705  3.3308  0.2569
 7846SOL    HW230779  11.414   9.720  10.561 -2.4635 -0.1986  0.3947
 7847SOL     OW30780   5.850  10.026   8.926 -0.3908 -0.7462 -0.4029
 7847SOL    HW130781   5.915   9.957   8.934 -0.9403 -1.1659  0.7302
 7847SOL    HW230782   5.830  10.051   9.017 -1.1497 -0.0101 -0.7532
 7848SOL     OW30783   9.993   5.526   9.412 -0.2557 -0.1629  0.2986
 7848SOL    HW130784   9.949   5.599   9.455  0.2383  0.9293 -0.9969
 7848SOL    HW230785   9.922   5.466   9.389 -0.7498  0.2607  0.6702
 7849SOL     OW30786   7.044   8.452   8.238  0.3632  0.1668  0.2415
 7849SOL    HW130787   7.123   8.500   8.211  0.3480 -0.3141 -0.6667
 7849SOL    HW230788   7.060   8.430   8.330  0.8465  0.9530  0.3548
 7850SOL     OW30789   5.276   4.451   6.418  0.1005  0.3348 -0.2737
 7850SOL    HW130790   5.302   4.474   6.507  1.0520 -0.6887 -0.2660
 7850SOL    HW230791   5.267   4.355   6.420 -1.8963  0.4637 -0.7612
 7851SOL     OW30792   8.499   2.350  12.706 -0.1115  0.0753 -0.3920
 7851SOL    HW130793   8.423   2.406  12.718  0.0990  0.6565 -1.6347
 7851SOL    HW230794   8.518   2.355  12.613 -0.4603 -2.5610 -0.6875
 7852SOL     OW30795   8.915   0.834   2.297 -0.0395  0.3796 -0.1825
 7852SOL    HW130796   8.989   0.781   2.327  0.2013 -0.0132 -1.4000
 7852SOL    HW230797   8.950   0.882   2.222 -0.0410  2.8615  1.3245
 7853SOL     OW30798   2.023   7.433   2.211  0.1262  0.0009  0.8447
 7853SOL    HW130799   2.111   7.449   2.245  1.0680  0.6652 -1.6614
 7853SOL    HW230800   1.978   7.517   2.220  0.7765  0.5250 -0.5745
 7854SOL     OW30801  12.140  10.445   5.084  0.2707 -0.1921 -0.3482
 7854SOL    HW130802  12.229  10.415   5.106  0.4774  0.4761 -0.2665
 7854SOL    HW230803  12.102  10.371   5.035  0.9703 -0.3727 -0.6371
 7855SOL     OW30804   3.621   6.850  10.784  1.0093 -0.1856  0.4705
 7855SOL    HW130805   3.600   6.872  10.875 -0.9400  2.2909 -0.4516
 7855SOL    HW230806   3.691   6.785  10.790  0.7472 -0.3146  3.7146
 7856SOL     OW30807   2.164   2.242  11.575 -0.3530 -0.6523  0.2854
 7856SOL    HW130808   2.221   2.268  11.647 -0.2283 -0.9752  0.3044
 7856SOL    HW230809   2.076   2.256  11.608 -0.3156  1.9901 -0.5027
 7857SOL     OW30810   0.814  11.251  12.046  0.0644  0.4519 -0.8999
 7857SOL    HW130811   0.769  11.312  11.987  0.8816  0.6690 -1.3192
 7857SOL    HW230812   0.852  11.307  12.114  0.8255  0.4208 -1.2914
 7858SOL     OW30813   4.935   3.469   3.276 -0.0527 -0.4310 -0.1257
 7858SOL    HW130814   4.895   3.555   3.292 -1.9202 -1.1919 -0.3942
 7858SOL    HW230815   5.021   3.474   3.317 -1.3403  0.5078  2.7266
 7859SOL     OW30816   9.464   3.912   4.675 -0.2144  0.4115  0.4650
 7859SOL    HW130817   9.381   3.935   4.716 -0.4531  1.3421 -0.4898
 7859SOL    HW230818   9.474   3.976   4.604  0.8567 -0.2803 -0.0331
 7860SOL     OW30819   4.256   9.917   4.113 -0.6030 -0.1256 -0.1647
 7860SOL    HW130820   4.196   9.975   4.067 -0.4677  0.1023 -0.0518
 7860SOL    HW230821   4.253   9.946   4.204  0.9983  1.0342 -0.4372
 7861SOL     OW30822   8.848   0.942   1.391 -0.2551 -0.3671  0.4248
 7861SOL    HW130823   8.866   0.940   1.485 -0.8505  0.7269  0.5829
 7861SOL    HW230824   8.802   1.025   1.378 -0.9036 -0.8844 -0.7036
 7862SOL     OW30825  10.676   3.654   7.538 -0.0659 -0.3208 -0.6110
 7862SOL    HW130826  10.620   3.718   7.582  0.7272 -1.0850  1.6591
 7862SOL    HW230827  10.630   3.571   7.547  0.2575 -0.5447 -0.9776
 7863SOL     OW30828   7.198   8.829   4.422 -0.3605  0.4225 -0.3963
 7863SOL    HW130829   7.213   8.919   4.453  2.2543 -0.3499  0.9114
 7863SOL    HW230830   7.285   8.789   4.422 -1.6258 -2.6733  0.9462
 7864SOL     OW30831   7.247   7.916   0.680 -0.4990  0.0248 -0.0053
 7864SOL    HW130832   7.321   7.915   0.620 -0.6981 -0.8141 -0.2454
 7864SOL    HW230833   7.240   7.827   0.712 -0.0337  0.5840  1.7432
 7865SOL     OW30834   7.613   9.462  10.318 -0.0626  0.1317  0.2808
 7865SOL    HW130835   7.642   9.461  10.227  1.4349 -0.0907  0.7276
 7865SOL    HW230836   7.663   9.533  10.359  2.3408 -2.2823  1.8165
 7866SOL     OW30837   1.260  10.745   8.995  0.2709 -0.0120 -0.1569
 7866SOL    HW130838   1.286  10.834   9.019  0.8934  0.0040 -0.8478
 7866SOL    HW230839   1.164  10.747   8.995  0.2810  0.6980 -0.3132
 7867SOL     OW30840   1.995   6.757   3.593 -0.6360 -0.1969  0.3168
 7867SOL    HW130841   1.988   6.840   3.545 -0.4073 -0.3996 -0.0699
 7867SOL    HW230842   2.083   6.726   3.575 -1.4367 -1.6473 -1.4158
 7868SOL     OW30843   9.936   7.517   2.933 -0.2988  0.5275  0.5095
 7868SOL    HW130844   9.843   7.510   2.916 -0.0281 -0.8977 -0.5670
 7868SOL    HW230845   9.966   7.426   2.939  1.0822  0.9595  0.4911
 7869SOL     OW30846   4.279   9.776   0.588 -0.0704  0.0618 -0.4090
 7869SOL    HW130847   4.275   9.716   0.662  0.4275  1.4384  0.7804
 7869SOL    HW230848   4.188   9.786   0.560 -0.3356 -0.0430  0.3921
 7870SOL     OW30849   0.656  10.682   1.488  0.8653 -0.2712  0.0067
 7870SOL    HW130850   0.617  10.656   1.572  1.7913 -1.8131  0.0015
 7870SOL    HW230851   0.582  10.704   1.433  0.2248  0.5695  1.1641
 7871SOL     OW30852   1.493   7.579   0.970 -0.2857 -1.0871 -0.3648
 7871SOL    HW130853   1.404   7.553   0.949 -0.2830 -1.4941  0.1128
 7871SOL    HW230854   1.503   7.558   1.063 -0.3995  0.9224  0.1446
 7872SOL     OW30855   3.483  11.100   9.600  0.0920  0.2683 -0.3642
 7872SOL    HW130856   3.429  11.079   9.676  0.1488  1.4571  0.0296
 7872SOL    HW230857   3.529  11.180   9.625 -0.9595  1.5109 -2.1738
 7873SOL     OW30858   6.565  12.446  10.427 -0.0068  0.2756 -0.4524
 7873SOL    HW130859   6.488  12.406  10.468  1.2183 -1.1898  0.5460
 7873SOL    HW230860   6.639  12.405  10.471  1.3949  0.0282 -2.8679
 7874SOL     OW30861   5.117  12.496   8.894  0.6948 -0.5589 -0.2379
 7874SOL    HW130862   5.196  12.521   8.845  1.7344 -2.2361  0.4814
 7874SOL    HW230863   5.144  12.420   8.946 -1.4012 -1.1590  0.0756
 7875SOL     OW30864   9.074   2.124   0.386  0.5472  0.5268  0.4196
 7875SOL    HW130865   8.997   2.181   0.384  0.4685  0.4105 -0.0803
 7875SOL    HW230866   9.131   2.160   0.317  0.1829 -0.4288 -0.4115
 7876SOL     OW30867   8.752   0.362   6.230 -0.4138  0.0849 -0.8036
 7876SOL    HW130868   8.695   0.318   6.293  1.4085  1.0632  1.6878
 7876SOL    HW230869   8.692   0.415   6.177 -2.0857 -1.3099 -0.4287
 7877SOL     OW30870   6.020   1.025   0.303 -0.0417  0.0112 -0.7343
 7877SOL    HW130871   6.106   1.008   0.264 -0.3199 -0.5661 -1.1139
 7877SOL    HW230872   5.988   0.938   0.328  0.9233  0.4500  2.5407
 7878SOL     OW30873  10.699   3.142   9.955  0.0775  0.4644 -0.3904
 7878SOL    HW130874  10.651   3.127   9.873 -0.0561  1.5764 -0.5321
 7878SOL    HW230875  10.773   3.197   9.929 -1.6355  3.4682  0.6605
 7879SOL     OW30876   1.319   8.153   7.667 -0.1153 -0.1421  0.0381
 7879SOL    HW130877   1.402   8.173   7.625  0.8236  1.6186  2.5271
 7879SOL    HW230878   1.338   8.076   7.722 -0.9701 -1.5616 -1.5541
 7880SOL     OW30879   1.673   0.803  10.392 -0.2913 -0.1321 -0.2508
 7880SOL    HW130880   1.724   0.818  10.472  0.1671  0.5094 -0.6575
 7880SOL    HW230881   1.726   0.741  10.342  0.7558  1.4947 -1.2472
 7881SOL     OW30882   5.389   5.503   0.004 -0.2746  0.3726  0.0882
 7881SOL    HW130883   5.460   5.451  -0.034 -0.4582  1.1508 -1.4164
 7881SOL    HW230884   5.342   5.538  -0.072 -2.2528 -0.0750  1.0367
 7882SOL     OW30885   3.760   3.565  11.922  0.1512 -0.3960 -0.0576
 7882SOL    HW130886   3.692   3.516  11.876  1.6229 -1.0280 -1.6446
 7882SOL    HW230887   3.746   3.544  12.015 -0.9582 -1.6057 -0.4726
 7883SOL     OW30888  10.874   3.238   5.351  0.3287  0.2526  0.0216
 7883SOL    HW130889  10.851   3.146   5.352 -0.2686  0.4013  1.4396
 7883SOL    HW230890  10.922   3.250   5.268  1.1636 -1.4918  0.2114
 7884SOL     OW30891   9.249  10.371   6.715 -0.5055 -0.1648  0.0890
 7884SOL    HW130892   9.189  10.359   6.788 -1.1821  0.6928 -0.3051
 7884SOL    HW230893   9.259  10.284   6.678 -1.4176 -0.3439  0.2370
 7885SOL     OW30894   0.555   2.310  12.537 -0.1645 -0.2901 -0.0084
 7885SOL    HW130895   0.585   2.315  12.628  0.1335 -0.3381 -0.1004
 7885SOL    HW230896   0.460   2.306  12.542 -0.2263  1.0899  0.2499
 7886SOL     OW30897   3.832  12.324  10.581  0.0036 -0.2242 -0.2867
 7886SOL    HW130898   3.835  12.393  10.646 -1.6406 -0.4520  0.0626
 7886SOL    HW230899   3.821  12.243  10.632 -0.9112 -0.4458 -0.8244
 7887SOL     OW30900   6.633   1.617   3.845 -0.0520 -0.0500 -0.2250
 7887SOL    HW130901   6.728   1.603   3.841 -0.0597 -0.7413  1.3243
 7887SOL    HW230902   6.601   1.585   3.761  0.8259 -2.3568  0.2379
 7888SOL     OW30903  10.092   7.817   4.751  0.3296 -0.4968 -0.0244
 7888SOL    HW130904  10.104   7.796   4.658  0.6050 -0.9142  0.1053
 7888SOL    HW230905  10.062   7.735   4.790 -2.1682  0.2526 -0.1767
 7889SOL     OW30906   4.036   9.985   9.938  0.6624 -0.0610 -0.6135
 7889SOL    HW130907   4.129   9.999   9.919  0.7292 -0.3607 -0.5143
 7889SOL    HW230908   4.004   9.931   9.866  0.5941 -0.0608 -0.5835
 7890SOL     OW30909  10.682  11.088   9.482  0.1089 -0.3245 -0.4196
 7890SOL    HW130910  10.680  11.183   9.473  0.4811 -0.1746  0.8745
 7890SOL    HW230911  10.592  11.060   9.464 -0.2536  0.3883  0.2279
 7891SOL     OW30912   4.556   5.601   7.908  0.2263  0.2300  0.3197
 7891SOL    HW130913   4.481   5.551   7.876  0.3058  0.0236  0.4562
 7891SOL    HW230914   4.617   5.604   7.835 -0.3508  1.2765 -0.1438
 7892SOL     OW30915   0.737   3.105   7.635 -0.0116  0.4321  0.0523
 7892SOL    HW130916   0.739   3.021   7.679 -0.1294  1.1942  1.5709
 7892SOL    HW230917   0.819   3.148   7.660 -0.1995  0.9818 -0.2456
 7893SOL     OW30918   1.282   0.681   0.526 -0.3668 -0.2441  0.6142
 7893SOL    HW130919   1.293   0.776   0.527 -1.5628 -0.0363 -1.2565
 7893SOL    HW230920   1.369   0.646   0.547  0.1994  1.2440  0.8626
 7894SOL     OW30921  12.661   8.381   7.906  0.2061  0.2398  0.0319
 7894SOL    HW130922  12.634   8.467   7.874 -0.0210  0.3647  0.5624
 7894SOL    HW230923  12.589   8.323   7.881 -0.2059  0.4307  0.7521
 7895SOL     OW30924   4.545  10.610   1.785  0.2208 -0.8778 -0.3120
 7895SOL    HW130925   4.623  10.589   1.837 -0.2481 -1.3261  0.2314
 7895SOL    HW230926   4.522  10.699   1.811 -0.5091 -1.3999  0.9234
 7896SOL     OW30927  11.571   3.514   2.178  0.2117 -0.1590  0.5435
 7896SOL    HW130928  11.479   3.488   2.178  0.3307 -0.6692  1.6929
 7896SOL    HW230929  11.614   3.449   2.123  0.0354 -0.5368  0.8491
 7897SOL     OW30930   4.048   0.356   4.028  0.2139 -0.0840 -0.2543
 7897SOL    HW130931   4.001   0.410   3.964 -0.2474 -0.6352 -0.3900
 7897SOL    HW230932   4.106   0.302   3.974 -0.1164 -0.4923 -0.1978
 7898SOL     OW30933  11.714   8.924  11.796  0.0137 -0.3425 -0.1566
 7898SOL    HW130934  11.788   8.865  11.780 -1.2147 -1.9956 -0.0083
 7898SOL    HW230935  11.696   8.964  11.711  0.3137 -0.8603 -0.4677
 7899SOL     OW30936  12.221   9.515   4.788 -0.1160 -0.0605 -0.0367
 7899SOL    HW130937  12.190   9.576   4.721 -2.2859 -0.0849  0.8275
 7899SOL    HW230938  12.273   9.451   4.741 -0.2193  0.8345 -1.4312
 7900SOL     OW30939  10.017   4.273   8.351  0.1952  0.0050  0.0891
 7900SOL    HW130940   9.955   4.303   8.417 -0.2374 -0.3210 -0.1632
 7900SOL    HW230941   9.962   4.231   8.284  0.7121 -0.5280 -0.0063
 7901SOL     OW30942   7.881   3.461   1.194 -0.0351 -0.1703 -0.3045
 7901SOL    HW130943   7.874   3.538   1.251 -1.3137  0.1612 -0.8621
 7901SOL    HW230944   7.871   3.387   1.253 -3.6191  0.1870 -0.2373
 7902SOL     OW30945  11.429  12.129  10.789 -0.2834  0.0500  0.0056
 7902SOL    HW130946  11.407  12.216  10.821  2.7810  0.6759  0.7642
 7902SOL    HW230947  11.362  12.072  10.825 -1.3831  1.8560  0.9385
 7903SOL     OW30948   0.028   8.392   1.749 -0.4590  0.5470  0.1170
 7903SOL    HW130949   0.065   8.383   1.837 -1.0605 -0.4945  0.2812
 7903SOL    HW230950   0.103   8.383   1.691 -0.2472 -0.2210  0.4908
 7904SOL     OW30951   4.512  12.197   4.942 -0.4133  0.2691 -0.2332
 7904SOL    HW130952   4.503  12.265   4.875 -0.6536  1.5253  1.0355
 7904SOL    HW230953   4.594  12.219   4.986 -1.2588  0.6657  1.1867
 7905SOL     OW30954   1.931   9.907   5.065 -0.2169  0.2155  0.2065
 7905SOL    HW130955   1.956   9.842   5.130  0.2411  0.8323  0.6556
 7905SOL    HW230956   1.839   9.926   5.085 -0.4879 -0.6038 -0.2082
 7906SOL     OW30957   3.022   9.206   1.201 -1.1366  0.6049 -0.1841
 7906SOL    HW130958   2.968   9.220   1.124  2.3307  0.5037 -2.9286
 7906SOL    HW230959   3.071   9.287   1.211  1.3090 -0.6903 -0.7124
 7907SOL     OW30960   6.034   1.735  10.012 -0.1802 -0.1512 -0.3167
 7907SOL    HW130961   6.070   1.657   9.969  0.0814 -0.8858  1.1549
 7907SOL    HW230962   6.110   1.778  10.052 -0.6233 -0.5240  0.9745
 7908SOL     OW30963   7.389   1.611   2.363  0.0434  0.3052  0.1216
 7908SOL    HW130964   7.396   1.588   2.271 -0.8760 -0.2176  0.1665
 7908SOL    HW230965   7.309   1.663   2.369 -0.0344  0.1368  0.6607
 7909SOL     OW30966   7.210   2.378   1.816 -0.0748 -0.5171 -0.0094
 7909SOL    HW130967   7.183   2.370   1.724 -2.0591  0.5510  0.4074
 7909SOL    HW230968   7.135   2.345   1.865 -0.5763  2.2258  1.2515
 7910SOL     OW30969   6.007   7.366   2.406 -0.0820 -0.7303  0.2768
 7910SOL    HW130970   6.020   7.389   2.315  0.6834  1.2386  0.8264
 7910SOL    HW230971   6.094   7.371   2.445 -0.4308 -1.3222  1.1772
 7911SOL     OW30972   8.725   6.039  10.985 -0.0218 -0.3337 -0.1998
 7911SOL    HW130973   8.782   6.037  10.909  1.2285  0.7432  0.6690
 7911SOL    HW230974   8.669   6.116  10.971  1.1452  0.6921  0.5829
 7912SOL     OW30975  11.707   6.330   2.493 -0.4427 -0.1844 -0.2749
 7912SOL    HW130976  11.746   6.247   2.466 -0.5100 -0.7029  1.1418
 7912SOL    HW230977  11.626   6.304   2.537 -0.7111  0.6799 -0.2514
 7913SOL     OW30978   3.158   0.822  11.553 -0.2218  0.3457 -0.0708
 7913SOL    HW130979   3.125   0.734  11.573  0.7250 -0.0032 -0.0284
 7913SOL    HW230980   3.186   0.856  11.638 -0.6260  0.7082 -0.0814
 7914SOL     OW30981  12.612   5.429   1.264  0.0550  0.3837  0.3987
 7914SOL    HW130982  12.684   5.370   1.288  1.8247  1.8920 -0.9005
 7914SOL    HW230983  12.554   5.374   1.211  1.7393 -0.2383 -0.9160
 7915SOL     OW30984  12.688  10.417  10.098  0.4475 -0.2076  0.3299
 7915SOL    HW130985  12.765  10.448  10.146  0.0042  1.5153  0.0081
 7915SOL    HW230986  12.652  10.347  10.153  0.9327  0.5473  1.6706
 7916SOL     OW30987   8.915   0.180   9.944 -0.3705 -0.1937 -0.0101
 7916SOL    HW130988   8.970   0.108   9.973  0.5564  0.9906  1.3409
 7916SOL    HW230989   8.830   0.165   9.986 -1.1359 -1.9754 -2.0268
 7917SOL     OW30990  10.901   9.294  10.230 -0.3744 -0.3599  0.3272
 7917SOL    HW130991  10.952   9.229  10.183  0.5450  1.4810 -1.3436
 7917SOL    HW230992  10.853   9.342  10.162 -2.1452 -0.1783  1.6196
 7918SOL     OW30993   3.797   6.611   1.806  0.3406  0.2194  0.0362
 7918SOL    HW130994   3.864   6.548   1.832  0.5452  1.4372  2.7483
 7918SOL    HW230995   3.846   6.680   1.761  0.3028 -0.7996 -1.6455
 7919SOL     OW30996   6.516  11.808   1.408  0.2922  0.3610  0.5641
 7919SOL    HW130997   6.502  11.753   1.331  1.8251  0.3961  0.2427
 7919SOL    HW230998   6.476  11.892   1.384 -0.1772  0.0488  0.2351
 7920SOL     OW30999   2.487   1.089   2.910 -0.0140 -0.2946 -0.3872
 7920SOL    HW131000   2.445   1.159   2.959  2.4901  1.0017  0.0462
 7920SOL    HW231001   2.513   1.025   2.977  0.9073  0.1367 -0.3113
 7921SOL     OW31002   0.321   6.062   0.430 -0.0402  0.3137 -0.0453
 7921SOL    HW131003   0.348   6.104   0.511 -0.5170 -0.9724  0.8033
 7921SOL    HW231004   0.336   6.128   0.363  1.7213  0.9177  0.8771
 7922SOL     OW31005   2.561   7.113   5.388 -0.2176  0.3597 -0.6091
 7922SOL    HW131006   2.475   7.152   5.370 -0.7913 -0.0595  1.1032
 7922SOL    HW231007   2.602   7.173   5.450  0.2874 -0.0298 -0.5614
 7923SOL     OW31008   7.936   6.969   9.231 -0.1081  0.0944 -0.1681
 7923SOL    HW131009   7.989   6.998   9.305  0.6194 -0.1799 -0.5695
 7923SOL    HW231010   7.972   7.015   9.156 -1.0312  0.5936 -0.3176
 7924SOL     OW31011   0.477   1.496   1.192 -0.4513 -0.3269  0.0968
 7924SOL    HW131012   0.475   1.581   1.237 -0.9688 -0.9015  1.1889
 7924SOL    HW231013   0.496   1.519   1.101  3.8593  0.6418  1.0120
 7925SOL     OW31014   6.393   9.908   4.953 -0.0198  0.1795 -0.3648
 7925SOL    HW131015   6.391   9.966   5.029  0.1553 -0.3339  0.0332
 7925SOL    HW231016   6.486   9.898   4.933  0.0090 -0.8776  0.2712
 7926SOL     OW31017   8.067  10.404   7.776  0.4078 -0.2112  0.1465
 7926SOL    HW131018   8.029  10.416   7.689  1.2198  0.6372 -0.1072
 7926SOL    HW231019   8.120  10.324   7.768  2.4293  1.1322 -0.8841
 7927SOL     OW31020   8.653   3.570   3.116 -0.3334 -0.1946 -0.4396
 7927SOL    HW131021   8.581   3.509   3.099 -0.4973 -0.2038  0.2569
 7927SOL    HW231022   8.718   3.518   3.164 -0.7021  0.2948  0.6231
 7928SOL     OW31023   8.300   6.127   7.097 -0.6455 -0.3547 -0.4801
 7928SOL    HW131024   8.378   6.072   7.092 -1.1807 -1.3072  0.9886
 7928SOL    HW231025   8.247   6.087   7.165 -1.3062  1.6895  0.2812
 7929SOL     OW31026   5.053   9.770   5.564  0.0183  0.0433 -0.3031
 7929SOL    HW131027   4.968   9.760   5.608  1.2738 -0.4884  2.2376
 7929SOL    HW231028   5.069   9.864   5.564  0.2709  0.0196  1.0443
 7930SOL     OW31029   7.838   5.227  10.710  0.6686 -0.0248  0.3965
 7930SOL    HW131030   7.928   5.226  10.741  0.2123  1.0347  1.8836
 7930SOL    HW231031   7.786   5.247  10.789 -0.9350 -1.4506 -0.2484
 7931SOL     OW31032   5.499   7.825   0.188 -0.3708 -0.1705  0.3546
 7931SOL    HW131033   5.467   7.856   0.272 -0.0222 -1.4730  0.9892
 7931SOL    HW231034   5.504   7.730   0.197  1.4664 -0.2053 -0.4804
 7932SOL     OW31035  12.431   9.036   0.780 -0.0013  0.0836  0.6737
 7932SOL    HW131036  12.356   9.084   0.816  0.7456  2.3949 -0.6258
 7932SOL    HW231037  12.503   9.058   0.839  0.0787 -0.5513  0.8177
 7933SOL     OW31038   5.564   8.133   8.212  0.1540  0.2890 -0.1362
 7933SOL    HW131039   5.556   8.217   8.167 -0.3298 -0.1828 -0.9635
 7933SOL    HW231040   5.657   8.111   8.206 -0.0516 -0.2802 -1.9168
 7934SOL     OW31041  10.584  12.208   0.898  0.0059 -0.4906  0.3328
 7934SOL    HW131042  10.629  12.198   0.815  0.3151  1.3445  0.2388
 7934SOL    HW231043  10.585  12.120   0.937 -0.8314 -1.5742 -1.8997
 7935SOL     OW31044   9.244   1.046   2.232 -0.1382 -0.5310 -0.0830
 7935SOL    HW131045   9.329   1.086   2.216 -0.6397  0.6535  0.0906
 7935SOL    HW231046   9.258   0.989   2.308  0.3141  0.2944  0.4664
 7936SOL     OW31047  10.520   4.600   8.105 -0.3024 -0.2643  0.2731
 7936SOL    HW131048  10.435   4.600   8.061 -1.5523  0.9003  2.4868
 7936SOL    HW231049  10.555   4.688   8.089 -0.7954  0.1907  1.5476
 7937SOL     OW31050   3.432  11.477   4.656 -0.3908 -0.3007  0.3567
 7937SOL    HW131051   3.520  11.501   4.685  0.0848 -0.4701 -0.8823
 7937SOL    HW231052   3.374  11.529   4.711  0.4960  0.1059  0.9323
 7938SOL     OW31053   3.247   0.875   6.804 -0.3166 -0.3352 -0.4020
 7938SOL    HW131054   3.330   0.834   6.826 -0.7343 -0.6102  0.7031
 7938SOL    HW231055   3.218   0.830   6.724  1.7394  1.4254 -2.2724
 7939SOL     OW31056   4.471   3.573   1.349  0.1068  0.1030  0.1972
 7939SOL    HW131057   4.554   3.572   1.396 -0.8962  0.7062  2.0830
 7939SOL    HW231058   4.411   3.523   1.404 -0.8700 -0.0369 -0.9530
 7940SOL     OW31059   8.409   3.640   8.313 -0.6009 -0.4761  0.4141
 7940SOL    HW131060   8.450   3.595   8.239 -1.1456 -2.1998  1.0989
 7940SOL    HW231061   8.327   3.675   8.278  0.2185  0.7627 -0.3339
 7941SOL     OW31062  10.515  10.217   6.450 -0.5088 -0.2135 -0.0759
 7941SOL    HW131063  10.608  10.204   6.432 -0.4969  0.7051 -0.7692
 7941SOL    HW231064  10.480  10.129   6.465  0.4990 -0.5539  0.3781
 7942SOL     OW31065   9.139   2.359   0.226  0.3376  0.1105 -0.4432
 7942SOL    HW131066   9.098   2.427   0.173  0.4444 -0.9203 -1.9120
 7942SOL    HW231067   9.220   2.337   0.180 -0.1894 -1.7262 -0.5987
 7943SOL     OW31068  11.363  11.033   9.706  0.6157 -0.0868 -0.1594
 7943SOL    HW131069  11.310  11.048   9.784  0.1372  0.7375 -0.6283
 7943SOL    HW231070  11.418  11.111   9.699 -0.0713  0.3149 -1.2068
 7944SOL     OW31071   6.610   4.662   7.592  0.4618  0.1891 -0.3259
 7944SOL    HW131072   6.656   4.740   7.562  0.7839 -0.4381 -1.4962
 7944SOL    HW231073   6.542   4.646   7.526  0.8794 -0.9380 -0.5012
 7945SOL     OW31074  12.603   1.238  10.184  0.3894 -0.1563 -0.7335
 7945SOL    HW131075  12.535   1.201  10.128 -0.4455  1.3569 -0.7962
 7945SOL    HW231076  12.677   1.179  10.175 -0.7477 -1.5963 -1.0494
 7946SOL     OW31077   5.865   6.836   5.857 -0.3671 -0.0070 -0.0815
 7946SOL    HW131078   5.869   6.865   5.948  1.8033  1.2091 -0.4983
 7946SOL    HW231079   5.908   6.750   5.857 -0.6339 -0.1399  0.0880
 7947SOL     OW31080   0.863   2.217   6.088  0.3120 -0.4721 -0.3223
 7947SOL    HW131081   0.922   2.149   6.055  1.3075  1.0386 -1.8415
 7947SOL    HW231082   0.911   2.257   6.161 -0.0962 -1.1117  0.3046
 7948SOL     OW31083   6.838   1.275   0.359 -0.3500  0.2330 -0.0176
 7948SOL    HW131084   6.888   1.199   0.389  0.3360  0.9940  0.8497
 7948SOL    HW231085   6.851   1.277   0.265  0.9412  0.1800  0.1469
 7949SOL     OW31086   2.502   0.976   3.261  0.0114  0.0082  0.1366
 7949SOL    HW131087   2.506   1.071   3.266  0.6488  0.0120 -0.3167
 7949SOL    HW231088   2.502   0.947   3.353  0.6293  0.4215  0.2718
 7950SOL     OW31089  12.302   8.038   6.581  0.2989  0.1397 -0.2155
 7950SOL    HW131090  12.222   8.087   6.596  0.4648  0.0105  1.1407
 7950SOL    HW231091  12.274   7.946   6.576  0.1319  0.2416 -1.6869
 7951SOL     OW31092   1.289  12.233   3.277 -0.2669  0.0116 -0.0645
 7951SOL    HW131093   1.339  12.205   3.201  1.9620  0.4166  1.1829
 7951SOL    HW231094   1.291  12.158   3.337 -0.2898  0.3795  0.4059
 7952SOL     OW31095   9.614   1.178  12.676  0.1453  0.0231 -0.3980
 7952SOL    HW131096   9.644   1.149  12.762  1.4628 -0.4115 -0.9742
 7952SOL    HW231097   9.690   1.163  12.619 -0.0428  2.1367 -1.2547
 7953SOL     OW31098   2.947   1.191   9.695 -0.5328 -0.4212 -0.0019
 7953SOL    HW131099   2.852   1.177   9.690 -0.6700 -0.9639  2.6823
 7953SOL    HW231100   2.957   1.265   9.754  0.7406  0.3014 -1.0611
 7954SOL     OW31101   5.546   5.826  10.972 -0.3322  0.5628 -0.2999
 7954SOL    HW131102   5.561   5.772  10.894  0.2992  0.2630  0.0232
 7954SOL    HW231103   5.479   5.889  10.945 -0.9394 -0.2494 -0.7486
 7955SOL     OW31104   5.778   1.689   3.726  0.4030  0.6391 -0.2061
 7955SOL    HW131105   5.811   1.726   3.645 -2.1694  3.3053 -0.2093
 7955SOL    HW231106   5.819   1.741   3.795  0.9055 -0.1657  0.1200
 7956SOL     OW31107   5.916   4.479   6.594  0.3553  0.2075  0.2084
 7956SOL    HW131108   5.952   4.410   6.539 -0.4448  0.7981 -1.1213
 7956SOL    HW231109   5.837   4.507   6.548  0.2902  1.5366  1.0699
 7957SOL     OW31110   7.206   0.643  12.055  0.4880 -0.1724  0.3845
 7957SOL    HW131111   7.122   0.688  12.058 -0.4629 -1.9128  1.5614
 7957SOL    HW231112   7.270   0.712  12.038 -1.1966  1.1283 -0.8830
 7958SOL     OW31113  11.234  10.354  12.506  0.6594  1.2208 -0.0478
 7958SOL    HW131114  11.184  10.383  12.582 -1.4365  1.6528 -1.4830
 7958SOL    HW231115  11.167  10.331  12.441  2.3554  1.2284 -1.8919
 7959SOL     OW31116   1.843   9.536   4.203 -0.2658  0.0865 -0.0919
 7959SOL    HW131117   1.772   9.536   4.267  1.4435  0.2386  1.9304
 7959SOL    HW231118   1.880   9.625   4.208  0.5228 -0.2027 -0.5551
 7960SOL     OW31119   5.934   8.560   4.462 -0.3538 -0.4743 -0.5943
 7960SOL    HW131120   5.994   8.485   4.467 -0.5242 -0.5371  0.8102
 7960SOL    HW231121   5.972   8.615   4.394  1.9210 -0.0340  0.9104
 7961SOL     OW31122  10.144   8.930   1.811  0.7976 -0.2209 -0.8054
 7961SOL    HW131123  10.096   8.949   1.891  1.0052 -1.6996 -0.2971
 7961SOL    HW231124  10.234   8.913   1.840  1.0823  0.1288 -1.4592
 7962SOL     OW31125   7.404  12.330  11.798 -0.2741  0.2660  0.2273
 7962SOL    HW131126   7.351  12.304  11.874  0.6123  1.3212  1.2558
 7962SOL    HW231127   7.358  12.293  11.723 -1.5674 -0.2251  1.2139
 7963SOL     OW31128   7.923   4.255   0.043  0.0087  0.5493 -0.4130
 7963SOL    HW131129   7.852   4.318   0.028 -0.4253 -0.1490 -1.3596
 7963SOL    HW231130   7.885   4.170   0.020  0.3113 -0.2029  1.6604
 7964SOL     OW31131   4.146   5.455   3.182 -0.4248  0.3015 -0.7444
 7964SOL    HW131132   4.210   5.386   3.168 -1.1151 -0.3650 -0.6451
 7964SOL    HW231133   4.196   5.536   3.172  0.7293 -0.1919  0.6815
 7965SOL     OW31134   0.180   7.450  12.387  0.1088  0.0002 -0.0610
 7965SOL    HW131135   0.095   7.483  12.418 -0.7721 -2.0487 -0.1242
 7965SOL    HW231136   0.234   7.447  12.466  0.6938  2.6990 -0.2497
 7966SOL     OW31137   8.089  10.728   3.809 -0.2353 -0.0851  1.0941
 7966SOL    HW131138   8.057  10.815   3.834 -0.2673  0.1657  0.1979
 7966SOL    HW231139   8.114  10.687   3.892  1.6534  1.5170  1.3974
 7967SOL     OW31140  10.463  12.149   6.567  0.0739  0.4063 -0.1377
 7967SOL    HW131141  10.408  12.072   6.555  1.8251 -0.9777  0.3051
 7967SOL    HW231142  10.401  12.219   6.588 -1.6107 -0.7297 -1.0525
 7968SOL     OW31143   1.150   0.572   6.119 -0.3355 -0.5713  0.5041
 7968SOL    HW131144   1.078   0.519   6.086 -1.4485  1.1674  0.0231
 7968SOL    HW231145   1.137   0.576   6.213 -1.5912  0.6763  0.3080
 7969SOL     OW31146  11.252  10.792   2.614  0.2450  0.1208 -0.0304
 7969SOL    HW131147  11.319  10.855   2.641  0.1883  0.2117 -0.1017
 7969SOL    HW231148  11.210  10.832   2.538  0.5862 -0.2616 -0.4241
 7970SOL     OW31149   9.861  10.245  10.797 -0.1329  0.0809  0.1788
 7970SOL    HW131150   9.838  10.307  10.728 -0.3700 -0.5082 -0.2743
 7970SOL    HW231151   9.789  10.182  10.799  0.0993 -0.1794  0.6453
 7971SOL     OW31152   3.298   8.054  12.008 -0.0381 -0.3941  0.2800
 7971SOL    HW131153   3.205   8.040  12.030 -0.7223  2.0834 -0.7269
 7971SOL    HW231154   3.305   8.026  11.917 -0.0225  0.2211  0.0875
 7972SOL     OW31155   5.641  10.064   4.624  0.1937 -0.2789  0.3315
 7972SOL    HW131156   5.583  10.090   4.552 -0.9932 -0.2881  1.2626
 7972SOL    HW231157   5.722  10.039   4.580 -0.2276  0.4749 -0.9506
 7973SOL     OW31158   1.169   2.367   6.740  0.6073 -0.0096  0.0542
 7973SOL    HW131159   1.137   2.283   6.774 -0.4633  0.1257 -0.5804
 7973SOL    HW231160   1.091   2.413   6.710  1.0702  1.6019  1.1707
 7974SOL     OW31161   0.609  12.011   7.160 -0.5278  0.5265 -0.3916
 7974SOL    HW131162   0.649  11.943   7.214  1.7814 -0.0999 -2.6618
 7974SOL    HW231163   0.547  11.965   7.105  0.4188  0.3545 -1.3426
 7975SOL     OW31164  11.730  12.179   3.396 -0.9541  0.3850  0.3807
 7975SOL    HW131165  11.808  12.184   3.452  0.2500  2.3326 -1.2995
 7975SOL    HW231166  11.728  12.263   3.351 -3.4574 -0.0375 -0.4436
 7976SOL     OW31167   8.900   6.725   3.850  0.1252 -0.2439 -0.3135
 7976SOL    HW131168   8.830   6.782   3.883  0.3701 -1.5409  2.7825
 7976SOL    HW231169   8.876   6.708   3.759 -3.1790  0.0023  0.3860
 7977SOL     OW31170   4.595   0.080   9.170 -0.0307  0.1042  0.1032
 7977SOL    HW131171   4.595   0.117   9.258 -1.0459  0.5002 -0.0486
 7977SOL    HW231172   4.581  -0.014   9.183 -1.2370  0.3005  0.3335
 7978SOL     OW31173   0.515   8.446   8.730  0.0571  0.1709  0.4636
 7978SOL    HW131174   0.458   8.372   8.746  0.7239 -0.5107 -0.2262
 7978SOL    HW231175   0.488   8.480   8.644  2.6843 -2.1615 -1.4929
 7979SOL     OW31176  11.000   4.370  12.362  0.6354  0.3411  0.0461
 7979SOL    HW131177  11.001   4.294  12.420  1.4784  0.0529 -0.3225
 7979SOL    HW231178  10.969   4.336  12.279  0.5955  0.4940 -0.0012
 7980SOL     OW31179   2.471   2.931  11.704 -0.4940 -0.1044 -0.3636
 7980SOL    HW131180   2.438   2.999  11.645 -2.5321 -1.2565 -0.6276
 7980SOL    HW231181   2.547   2.896  11.659 -1.9767 -0.9296 -2.3734
 7981SOL     OW31182   1.048   1.787  10.900 -0.4107 -0.0745  0.6630
 7981SOL    HW131183   1.005   1.709  10.866  0.5195 -0.3131 -0.0097
 7981SOL    HW231184   1.024   1.857  10.838  2.5076 -0.8043 -1.5788
 7982SOL     OW31185  10.443   9.811  12.488 -0.2426  0.4048 -0.1765
 7982SOL    HW131186  10.433   9.812  12.583 -0.3616 -0.2135 -0.1800
 7982SOL    HW231187  10.360   9.845  12.454 -1.4589 -2.2946 -0.1317
 7983SOL     OW31188   9.137  12.205  11.617 -0.7753 -0.3172  0.2958
 7983SOL    HW131189   9.111  12.143  11.685 -3.0584  0.0462 -0.1812
 7983SOL    HW231190   9.057  12.224  11.569  0.3300  1.2023 -1.0760
 7984SOL     OW31191   5.061   9.347  11.280 -0.1366 -0.2707  0.7822
 7984SOL    HW131192   5.038   9.344  11.373  0.8588 -0.9300  1.0227
 7984SOL    HW231193   5.123   9.275  11.268 -0.0135  0.0009 -0.3299
 7985SOL     OW31194   0.382  12.042   2.691 -0.0080 -0.0137 -0.4522
 7985SOL    HW131195   0.305  11.988   2.671 -1.9070  2.8395 -1.4509
 7985SOL    HW231196   0.395  12.031   2.785 -0.4272 -1.9582 -0.5694
 7986SOL     OW31197   3.848  10.056  10.966  0.5135  0.8368 -0.1702
 7986SOL    HW131198   3.769  10.080  11.016  1.1542  0.5869  0.9882
 7986SOL    HW231199   3.822  10.069  10.874 -0.6212  1.5254  0.2168
 7987SOL     OW31200   2.477  10.823   1.418 -0.8394 -0.2756  0.4196
 7987SOL    HW131201   2.413  10.886   1.386  1.5176  1.7415 -0.6834
 7987SOL    HW231202   2.479  10.836   1.513  0.3575  2.2599  0.1457
 7988SOL     OW31203  11.774  12.597   4.983  0.6581  0.4731 -0.1777
 7988SOL    HW131204  11.768  12.690   5.003  0.5547  0.4353 -0.0309
 7988SOL    HW231205  11.776  12.593   4.887 -0.5284  0.5537 -0.2098
 7989SOL     OW31206   0.728  10.137   8.017 -0.0465 -0.2967 -0.3339
 7989SOL    HW131207   0.799  10.081   7.986  0.4142 -0.8846  1.6339
 7989SOL    HW231208   0.688  10.171   7.937  1.3411 -1.3248 -1.5302
 7990SOL     OW31209   6.538  10.012   3.007 -0.1657  0.1779  0.4224
 7990SOL    HW131210   6.512  10.054   2.924  0.1880  0.2271  0.3366
 7990SOL    HW231211   6.615   9.960   2.984 -0.7017 -0.6623  0.4922
 7991SOL     OW31212  12.161   8.588   5.085 -0.3435 -0.1138 -0.4417
 7991SOL    HW131213  12.157   8.660   5.148 -0.3040  0.7639 -1.4293
 7991SOL    HW231214  12.214   8.621   5.013 -0.3234 -1.1361 -0.9170
 7992SOL     OW31215   4.697   8.850  10.724  0.3428 -0.1088  0.4532
 7992SOL    HW131216   4.617   8.799  10.733 -0.2334  0.7253  0.2245
 7992SOL    HW231217   4.697   8.879  10.633 -1.4023  3.4953  1.4291
 7993SOL     OW31218   9.784  12.104   8.944  0.5706 -0.5111 -0.2395
 7993SOL    HW131219   9.781  12.027   9.001 -1.4059 -0.6601 -0.4732
 7993SOL    HW231220   9.692  12.129   8.933  0.9261 -0.0341 -2.7274
 7994SOL     OW31221   7.156  11.041   8.138 -0.3280  0.1831  0.5395
 7994SOL    HW131222   7.133  11.113   8.197  0.4130  0.3372  0.6606
 7994SOL    HW231223   7.192  11.083   8.060  1.4161 -0.0372  1.1640
 7995SOL     OW31224   8.813   7.002   3.271 -0.1143  0.1783  0.1725
 7995SOL    HW131225   8.875   6.934   3.244  1.9603  1.6485  0.9603
 7995SOL    HW231226   8.863   7.057   3.331 -1.4559  2.8128 -0.9624
 7996SOL     OW31227   1.863   2.366  10.654 -0.6638 -0.0564 -0.0923
 7996SOL    HW131228   1.830   2.288  10.697  1.3468 -1.4415 -0.9186
 7996SOL    HW231229   1.833   2.358  10.563 -0.1640 -0.0476 -0.2594
 7997SOL     OW31230   8.422   9.987   9.416 -0.0848  0.2547 -0.0309
 7997SOL    HW131231   8.409   9.949   9.503  0.7683 -0.0190 -0.0159
 7997SOL    HW231232   8.478  10.063   9.430 -0.1345  0.3455 -0.3094
 7998SOL     OW31233   3.741   9.190   3.763 -0.9424  0.1026  0.5876
 7998SOL    HW131234   3.760   9.126   3.833 -1.7088 -1.4256 -0.5332
 7998SOL    HW231235   3.651   9.169   3.736 -0.3371 -0.0145 -1.5001
 7999SOL     OW31236   1.256   2.620   4.337 -0.1688  0.0981 -0.8534
 7999SOL    HW131237   1.263   2.555   4.267  2.8699 -0.9510  0.2295
 7999SOL    HW231238   1.314   2.586   4.406 -3.2310  0.8898  2.3825
 8000SOL     OW31239   7.390   3.404   5.106  0.7295 -0.2024  0.0742
 8000SOL    HW131240   7.428   3.403   5.018 -0.5231 -2.3131 -0.5062
 8000SOL    HW231241   7.297   3.420   5.092  0.8146  1.4803  1.2118
 8001SOL     OW31242   7.228   8.384  10.034  0.0801  0.1692  0.0203
 8001SOL    HW131243   7.295   8.371  10.101 -0.9498 -1.2414  0.8217
 8001SOL    HW231244   7.235   8.476  10.011  1.3364  0.3778  1.1095
 8002SOL     OW31245   5.263  10.333   5.151 -0.1505 -0.0616 -1.0404
 8002SOL    HW131246   5.268  10.276   5.074 -1.7558 -1.9517  0.1898
 8002SOL    HW231247   5.354  10.339   5.182  0.1720 -1.2814 -1.6774
 8003SOL     OW31248   1.052   7.587  12.530  0.2944  0.3441  0.3773
 8003SOL    HW131249   0.965   7.576  12.567 -0.0363  1.3699 -0.0423
 8003SOL    HW231250   1.105   7.519  12.570 -1.3987 -2.3674 -1.6739
 8004SOL     OW31251   9.491  10.365  11.833 -0.3337  0.1349  0.2918
 8004SOL    HW131252   9.510  10.453  11.864 -0.7614  0.8208 -1.2632
 8004SOL    HW231253   9.569  10.339  11.784 -0.6957  0.1718 -0.3167
 8005SOL     OW31254  10.138   3.763   0.209  0.0206  0.6666  0.1278
 8005SOL    HW131255  10.085   3.703   0.157  0.3673  0.4616  0.0088
 8005SOL    HW231256  10.165   3.712   0.285 -0.3779  0.9258  0.4504
 8006SOL     OW31257   1.956   8.508   8.951  0.6866 -0.7894  0.1915
 8006SOL    HW131258   1.947   8.557   9.032  0.2086 -0.8102  0.1517
 8006SOL    HW231259   2.014   8.562   8.896  2.4302 -1.5678  1.1727
 8007SOL     OW31260   6.565   9.430  11.618 -0.0366  0.4444  0.4947
 8007SOL    HW131261   6.529   9.346  11.591 -0.4317  1.2144 -1.5211
 8007SOL    HW231262   6.494   9.471  11.668 -1.0132  0.8389 -1.1668
 8008SOL     OW31263  11.803   7.394   1.393  0.3438 -0.0264  0.4205
 8008SOL    HW131264  11.746   7.471   1.400 -0.8805 -0.9106  0.6288
 8008SOL    HW231265  11.768   7.333   1.458 -1.3392 -2.3343 -2.4172
 8009SOL     OW31266   6.482   7.132   3.219  0.1707  0.1134  0.0785
 8009SOL    HW131267   6.459   7.070   3.288 -0.4880  0.8315  0.5177
 8009SOL    HW231268   6.507   7.212   3.265  2.1500 -0.1482 -0.4453
 8010SOL     OW31269   8.974   8.012  11.153  0.0493  0.0174 -0.5397
 8010SOL    HW131270   8.907   7.951  11.184 -0.2305  0.0136 -1.1393
 8010SOL    HW231271   8.956   8.022  11.060 -0.6350  1.8981 -0.2572
 8011SOL     OW31272   0.032   7.485   6.327 -0.4348  0.6567  0.0466
 8011SOL    HW131273   0.055   7.503   6.418 -0.2045  0.1090  0.1042
 8011SOL    HW231274   0.068   7.559   6.278  1.7110 -0.2521  0.1041
 8012SOL     OW31275  11.531  10.359   4.885 -0.0072  0.3252 -0.3002
 8012SOL    HW131276  11.601  10.416   4.851  0.5392  0.6653  1.3403
 8012SOL    HW231277  11.577  10.287   4.927 -0.5457  1.3143  2.1350
 8013SOL     OW31278   5.119   4.889   5.463 -0.5077 -0.4525 -0.0068
 8013SOL    HW131279   5.144   4.801   5.491 -1.4768 -0.2178  1.7253
 8013SOL    HW231280   5.025   4.883   5.446 -0.4905  0.1375 -0.3366
 8014SOL     OW31281   1.267   4.371   3.811 -0.0481  0.4170 -0.0762
 8014SOL    HW131282   1.201   4.333   3.869  1.1493  0.1434  1.1581
 8014SOL    HW231283   1.219   4.392   3.730 -1.2990 -1.2222  0.1951
 8015SOL     OW31284   8.351   1.049   2.908  0.2259 -0.2889  0.7498
 8015SOL    HW131285   8.285   1.041   2.977 -0.7412 -0.0255 -0.1280
 8015SOL    HW231286   8.354   1.142   2.888  1.8188 -0.1072  1.6656
 8016SOL     OW31287  10.338   1.014   0.323 -0.4921  0.3599  0.0068
 8016SOL    HW131288  10.354   1.108   0.329  0.4537  0.1490  1.3219
 8016SOL    HW231289  10.423   0.974   0.340 -0.3937 -0.7441 -2.7019
 8017SOL     OW31290   6.486  10.368  11.270  0.0558  0.5981  0.3434
 8017SOL    HW131291   6.400  10.329  11.281 -0.2854  0.7248 -1.6287
 8017SOL    HW231292   6.539  10.300  11.229 -0.0812  1.5815 -1.5672
 8018SOL     OW31293   8.802   3.978   8.451 -0.0860  0.1643 -0.1780
 8018SOL    HW131294   8.726   3.923   8.467  1.1962 -1.4467  0.6989
 8018SOL    HW231295   8.818   3.971   8.356 -1.2112  0.8359 -0.4350
 8019SOL     OW31296   8.027   4.440   4.152  0.4737  0.2450  0.1953
 8019SOL    HW131297   8.075   4.391   4.219  1.4252  2.1708  0.9847
 8019SOL    HW231298   7.964   4.376   4.117  1.2855 -1.3756  1.5234
 8020SOL     OW31299   7.812  10.960   1.083 -0.3054  0.2484  0.2366
 8020SOL    HW131300   7.718  10.951   1.062 -0.5643  2.6649  0.1196
 8020SOL    HW231301   7.843  10.870   1.088 -2.4508 -0.6212 -0.5736
 8021SOL     OW31302   6.425   1.349   6.405  0.6165 -0.0330 -0.0580
 8021SOL    HW131303   6.369   1.301   6.466  1.8680 -0.5046  0.7499
 8021SOL    HW231304   6.494   1.286   6.383  1.2043  0.7636 -0.5095
 8022SOL     OW31305   1.123  10.272  10.878 -0.1792  0.2887  0.2331
 8022SOL    HW131306   1.119  10.180  10.850 -0.5998  0.2755  0.3338
 8022SOL    HW231307   1.069  10.275  10.958 -0.8366  0.7897 -0.2191
 8023SOL     OW31308   6.943  10.725   1.033 -0.4221 -0.5545 -0.1011
 8023SOL    HW131309   6.975  10.720   0.943 -0.5866  0.3686 -0.2165
 8023SOL    HW231310   6.966  10.640   1.071 -0.0776 -0.8381 -0.9183
 8024SOL     OW31311   5.157   4.396   3.309 -0.1936  0.4127  0.1948
 8024SOL    HW131312   5.127   4.420   3.221  0.9519  1.2265 -0.0076
 8024SOL    HW231313   5.133   4.470   3.364 -0.3370  0.1906  0.4321
 8025SOL     OW31314   1.206  12.089   0.388 -1.0905  0.2257 -0.0180
 8025SOL    HW131315   1.187  12.065   0.297 -1.0779 -1.3317  0.3745
 8025SOL    HW231316   1.296  12.062   0.402 -0.5825  1.8341  0.0403
 8026SOL     OW31317   0.056  11.527   5.252  0.2312 -0.2472  0.3654
 8026SOL    HW131318   0.085  11.558   5.338 -3.5250 -1.1420  2.1532
 8026SOL    HW231319   0.032  11.435   5.267 -0.9810 -0.2891 -1.5063
 8027SOL     OW31320   9.481   3.180  10.919  0.2509 -0.2791 -0.2344
 8027SOL    HW131321   9.428   3.185  10.999  0.3313 -1.0646 -0.1193
 8027SOL    HW231322   9.418   3.195  10.848  0.1781  0.4172 -0.0287
 8028SOL     OW31323   8.561   9.421   2.693  0.2184  0.5534  0.1758
 8028SOL    HW131324   8.477   9.440   2.734 -1.1291 -1.5169 -1.4031
 8028SOL    HW231325   8.618   9.394   2.765 -0.8977  0.6843  1.1323
 8029SOL     OW31326   1.441  12.616   6.521  0.6454  0.0755 -0.0416
 8029SOL    HW131327   1.374  12.656   6.465 -0.3491 -1.6734 -0.1953
 8029SOL    HW231328   1.395  12.543   6.564  2.3753 -1.0301  0.0324
 8030SOL     OW31329  10.685   3.426   2.378  0.0895  0.0782 -0.1821
 8030SOL    HW131330  10.655   3.337   2.358 -2.8080  1.3522 -2.2966
 8030SOL    HW231331  10.706   3.463   2.292  1.6650  1.3530  0.7032
 8031SOL     OW31332  10.323   4.754  10.568 -0.3480  0.4097  0.1955
 8031SOL    HW131333  10.375   4.807  10.627 -1.3702  0.6609  0.8981
 8031SOL    HW231334  10.382   4.684  10.540 -0.3220 -0.7433  2.8902
 8032SOL     OW31335  12.642   4.826   3.632 -0.2930 -0.0895 -0.3106
 8032SOL    HW131336  12.683   4.825   3.545 -0.8365 -0.3118 -0.5718
 8032SOL    HW231337  12.702   4.876   3.687  0.8313 -1.2595 -0.4300
 8033SOL     OW31338   7.196  10.148   3.102 -0.1561 -0.0016  0.1859
 8033SOL    HW131339   7.204  10.181   3.191  0.1216  1.2170 -0.2751
 8033SOL    HW231340   7.112  10.183   3.071  0.4749  0.9046 -0.5490
 8034SOL     OW31341   2.922   7.736   3.033 -0.2164  0.0041  0.4408
 8034SOL    HW131342   3.005   7.772   3.000 -0.0677  0.1611  0.9829
 8034SOL    HW231343   2.944   7.696   3.117 -0.8903  1.0623  1.1533
 8035SOL     OW31344   9.960   4.068   6.089  0.6459  0.1624  0.1991
 8035SOL    HW131345   9.960   4.043   6.182  0.3941  0.2201  0.2145
 8035SOL    HW231346  10.007   4.151   6.086 -1.4490  1.4266  0.6182
 8036SOL     OW31347   6.071   3.682   8.529 -0.3765  0.1698  0.5203
 8036SOL    HW131348   6.123   3.644   8.599  0.9911  0.5848 -0.2406
 8036SOL    HW231349   5.984   3.644   8.540  0.2057 -0.9159  1.5263
 8037SOL     OW31350  11.845   8.070   4.675 -0.0514 -0.3418 -0.2239
 8037SOL    HW131351  11.793   8.010   4.622 -0.8015 -1.5906  1.8127
 8037SOL    HW231352  11.782   8.110   4.735  0.7719  0.9612 -0.1792
 8038SOL     OW31353   4.174  11.653  11.282 -1.0421  0.3036 -0.6152
 8038SOL    HW131354   4.145  11.564  11.301 -1.9669  0.6602 -0.2969
 8038SOL    HW231355   4.102  11.692  11.233 -1.3364  1.3595  0.5950
 8039SOL     OW31356   6.530   1.780   0.542 -0.1825 -0.1798  0.6185
 8039SOL    HW131357   6.597   1.765   0.608  0.6501 -1.1852 -0.4289
 8039SOL    HW231358   6.463   1.714   0.561  0.0840 -0.5068  0.4430
 8040SOL     OW31359   4.252   8.440   5.276 -0.1025 -0.0626  0.3581
 8040SOL    HW131360   4.224   8.385   5.349 -1.9382 -1.1587 -1.0981
 8040SOL    HW231361   4.211   8.525   5.293  1.1008  0.3137  1.5746
 8041SOL     OW31362   5.682  11.165   1.148  0.2102  0.3220 -0.3112
 8041SOL    HW131363   5.761  11.152   1.095  0.1511 -0.2013 -0.2716
 8041SOL    HW231364   5.715  11.190   1.234  0.3405 -0.3076 -0.1791
 8042SOL     OW31365  11.197   7.501   4.737 -0.0216 -0.2932  0.9777
 8042SOL    HW131366  11.284   7.502   4.699 -0.2149 -0.6051  0.5248
 8042SOL    HW231367  11.186   7.411   4.769  0.0183 -0.1175  1.4878
 8043SOL     OW31368  10.634   2.864   6.414  0.3629  0.8789 -0.4504
 8043SOL    HW131369  10.652   2.797   6.347  1.7153  0.6489  0.1117
 8043SOL    HW231370  10.716   2.874   6.460 -0.2848  1.7636  0.5529
 8044SOL     OW31371  11.783   9.153   5.343  0.4149 -0.2650  0.4033
 8044SOL    HW131372  11.868   9.142   5.300 -0.4233  1.0681 -1.7532
 8044SOL    HW231373  11.769   9.248   5.343 -1.4353 -0.5033 -0.0419
 8045SOL     OW31374  12.027   1.668   4.464  0.3507  0.1358 -0.0133
 8045SOL    HW131375  11.938   1.671   4.429  0.5909  0.1339 -0.6334
 8045SOL    HW231376  12.075   1.733   4.413  0.0578  2.2642  2.2078
 8046SOL     OW31377   6.204   4.000   7.971 -0.3904  0.2614  0.0476
 8046SOL    HW131378   6.215   3.962   8.059  0.4179  0.6077  0.1015
 8046SOL    HW231379   6.277   3.965   7.920 -0.4841  0.5775 -0.3105
 8047SOL     OW31380  12.538   7.210  11.318  0.0038 -0.1906  0.4163
 8047SOL    HW131381  12.477   7.219  11.245 -0.3512 -0.8638  0.6254
 8047SOL    HW231382  12.611   7.269  11.296  0.1594 -0.7928 -0.7389
 8048SOL     OW31383   1.809  12.088   6.661 -0.0516  0.1161 -0.2676
 8048SOL    HW131384   1.806  12.033   6.583 -4.8459 -1.5988  0.7702
 8048SOL    HW231385   1.824  12.177   6.627 -2.3490 -0.4760 -3.2620
 8049SOL     OW31386   3.799  11.985   1.866 -0.2530  0.8571 -0.3037
 8049SOL    HW131387   3.748  12.059   1.832 -1.6158 -0.5650 -1.5133
 8049SOL    HW231388   3.741  11.943   1.930  0.1664  0.3412 -0.2557
 8050SOL     OW31389   7.138   5.020   0.404 -0.1947 -0.5594  0.9965
 8050SOL    HW131390   7.106   5.019   0.494  0.9777  1.6369  1.4990
 8050SOL    HW231391   7.065   4.986   0.352 -1.8192  0.4722  2.5104
 8051SOL     OW31392  12.599   4.526   1.795  0.1599  0.2866  0.4148
 8051SOL    HW131393  12.675   4.496   1.844 -0.2606 -1.5270  0.0253
 8051SOL    HW231394  12.527   4.471   1.826 -0.3446 -0.1345 -1.4119
 8052SOL     OW31395   9.986   3.373   1.382  0.7047 -0.3927  0.3416
 8052SOL    HW131396  10.001   3.431   1.457 -0.9334 -0.7796  1.0173
 8052SOL    HW231397   9.994   3.429   1.305  0.5275  0.4237  0.9084
 8053SOL     OW31398   0.923   5.070   1.600  0.0639 -0.1641  0.1056
 8053SOL    HW131399   0.839   5.076   1.647  1.6629 -0.6582  3.2667
 8053SOL    HW231400   0.988   5.053   1.668  2.4820 -2.2391 -2.4790
 8054SOL     OW31401  11.548   4.511  10.299  0.1602 -0.1325  0.1170
 8054SOL    HW131402  11.478   4.453  10.328  0.9979 -0.9615  0.5472
 8054SOL    HW231403  11.624   4.454  10.287  0.7738  0.7394 -0.3281
 8055SOL     OW31404   9.997   2.158   0.602 -0.0588  0.1701  0.7049
 8055SOL    HW131405   9.905   2.167   0.576  0.4915 -1.1127 -2.0186
 8055SOL    HW231406  10.040   2.234   0.563  0.3657 -0.3815  0.0851
 8056SOL     OW31407  10.231   7.469   0.030  0.4108 -0.1617  0.2147
 8056SOL    HW131408  10.287   7.446  -0.044 -0.9149  0.0995 -0.9226
 8056SOL    HW231409  10.248   7.562   0.045 -0.6989  0.2774 -1.0600
 8057SOL     OW31410   1.923   2.110  12.351 -0.3114  0.2812  0.2667
 8057SOL    HW131411   2.009   2.134  12.317  0.4678 -0.1368  1.8508
 8057SOL    HW231412   1.882   2.194  12.374  0.6651  0.3803  1.7510
 8058SOL     OW31413   0.316   3.965   3.139  0.3238 -0.4893 -0.1749
 8058SOL    HW131414   0.299   3.871   3.131  0.1189 -0.5515  0.8855
 8058SOL    HW231415   0.256   4.005   3.076  0.1514 -1.0427 -0.3751
 8059SOL     OW31416  10.061  11.150   0.628 -0.3386  0.5116 -0.1149
 8059SOL    HW131417  10.141  11.111   0.661 -0.3534 -1.0617 -1.7609
 8059SOL    HW231418   9.994  11.082   0.641 -0.7497  0.6344 -1.4622
 8060SOL     OW31419   6.752  10.695   4.820  0.3424  0.4537  0.2792
 8060SOL    HW131420   6.767  10.721   4.729 -1.1128  1.5743  0.3219
 8060SOL    HW231421   6.838  10.670   4.853  0.8214 -0.4015 -1.5211
 8061SOL     OW31422   9.017   5.732   5.919  0.0200  0.6394 -0.0751
 8061SOL    HW131423   9.021   5.743   5.824 -0.1989 -0.0743 -0.1711
 8061SOL    HW231424   9.101   5.693   5.942  1.2519  3.3336  0.4085
 8062SOL     OW31425  12.515  10.776   1.595 -0.3306 -0.6204  0.2373
 8062SOL    HW131426  12.555  10.859   1.621 -0.3393 -0.3099 -0.6912
 8062SOL    HW231427  12.468  10.797   1.514  0.0914 -1.6390 -0.2928
 8063SOL     OW31428   9.083   8.740  11.110  0.1519  0.5892 -0.0314
 8063SOL    HW131429   9.050   8.659  11.070  1.0237  0.6325 -0.8780
 8063SOL    HW231430   9.057   8.809  11.050  0.6063  0.7792 -0.0086
 8064SOL     OW31431   8.581   6.437   7.806 -0.1708  0.0300 -0.4522
 8064SOL    HW131432   8.486   6.446   7.818 -0.1920 -1.6296  0.9086
 8064SOL    HW231433   8.601   6.349   7.837  1.7389  0.0992 -1.3602
 8065SOL     OW31434  12.140   4.701   3.343  0.1018 -0.2104  0.1397
 8065SOL    HW131435  12.193   4.628   3.310  1.2302  0.2786  0.8257
 8065SOL    HW231436  12.200   4.774   3.350 -0.6535  0.3606  0.9570
 8066SOL     OW31437   0.709   0.477   9.631 -0.1693 -0.0184  0.2289
 8066SOL    HW131438   0.688   0.385   9.612  1.6729 -0.3799 -0.2644
 8066SOL    HW231439   0.650   0.527   9.575  1.9488 -1.0020 -3.1941
 8067SOL     OW31440   9.979   9.343  11.461 -0.4498  0.2995  0.2211
 8067SOL    HW131441  10.019   9.430  11.460 -0.2192  0.1944 -1.1206
 8067SOL    HW231442  10.052   9.282  11.471 -0.6608  0.2597  1.7500
 8068SOL     OW31443   5.276   3.154   7.544 -0.2576  0.0988  0.6676
 8068SOL    HW131444   5.191   3.171   7.586 -0.4502 -0.2167  0.4109
 8068SOL    HW231445   5.266   3.188   7.456 -0.2502 -0.2897  0.5150
 8069SOL     OW31446   9.790   1.188   3.362 -0.3445  0.4397 -0.1096
 8069SOL    HW131447   9.755   1.233   3.286 -1.1423 -0.5593 -0.3591
 8069SOL    HW231448   9.885   1.184   3.346 -0.5452 -0.0900 -1.2373
 8070SOL     OW31449   7.015   0.853   8.646 -0.3544  0.0712 -0.7836
 8070SOL    HW131450   6.928   0.847   8.605 -1.1372  1.7859  0.4636
 8070SOL    HW231451   7.008   0.929   8.705  0.4834 -2.4191  2.8650
 8071SOL     OW31452   2.681   4.450  12.590 -0.1623 -0.5214 -0.3871
 8071SOL    HW131453   2.658   4.360  12.566  0.9014 -0.5909 -1.2268
 8071SOL    HW231454   2.752   4.473  12.531 -0.1443  0.7416  0.0939
 8072SOL     OW31455  12.639   8.664   4.129 -0.1659  0.4454  0.1403
 8072SOL    HW131456  12.615   8.675   4.037 -1.5756 -1.4329  0.2047
 8072SOL    HW231457  12.557   8.637   4.171  1.2784 -3.1384  1.0361
 8073SOL     OW31458   6.998   0.318  10.560  0.1169  0.9748  0.0778
 8073SOL    HW131459   6.923   0.322  10.620 -0.6575 -1.4973 -0.6290
 8073SOL    HW231460   6.958   0.308  10.473  1.1536 -2.3923 -0.1385
 8074SOL     OW31461  10.852  10.596   3.284 -0.1477 -0.0198 -0.9896
 8074SOL    HW131462  10.875  10.617   3.374 -0.0544  0.4194 -1.1146
 8074SOL    HW231463  10.776  10.538   3.291 -0.0624 -0.0851 -0.6262
 8075SOL     OW31464   7.402  11.674   0.899  0.1942 -0.2469  0.0336
 8075SOL    HW131465   7.426  11.657   0.990 -0.9120 -0.0735  0.3784
 8075SOL    HW231466   7.369  11.764   0.899  2.3643  0.6125 -1.0216
 8076SOL     OW31467  10.230   2.133   8.116  0.2764 -0.3548 -0.5718
 8076SOL    HW131468  10.194   2.049   8.087  0.1609 -0.1139 -1.1440
 8076SOL    HW231469  10.325   2.118   8.123  0.0053 -1.3467  2.1372
 8077SOL     OW31470  11.338   3.184   6.897 -0.3063  0.0438 -0.2656
 8077SOL    HW131471  11.351   3.170   6.991 -1.2094  0.8231 -0.0159
 8077SOL    HW231472  11.243   3.184   6.885 -0.2144  0.4999 -1.0889
 8078SOL     OW31473   0.103   0.317   6.573  0.2175 -0.2088 -0.1314
 8078SOL    HW131474   0.036   0.382   6.549 -2.0517 -2.1933  0.4825
 8078SOL    HW231475   0.128   0.342   6.662 -1.9166 -1.0839  0.7768
 8079SOL     OW31476  10.501   9.068   5.300  0.1528  0.0333  0.2577
 8079SOL    HW131477  10.571   9.073   5.235 -1.2325 -0.7356 -1.3451
 8079SOL    HW231478  10.444   9.143   5.281 -0.9146 -0.8775 -0.2379
 8080SOL     OW31479  10.808   2.512   3.026  0.0548 -0.1593 -0.6800
 8080SOL    HW131480  10.841   2.558   3.104  0.4449 -0.0237 -0.9245
 8080SOL    HW231481  10.729   2.561   3.002  1.4995  1.6258 -2.0841
 8081SOL     OW31482   3.640  10.837   8.305  0.1107 -0.2121  0.3415
 8081SOL    HW131483   3.662  10.928   8.285 -1.0331  0.2182  0.9259
 8081SOL    HW231484   3.604  10.802   8.223 -2.3428  0.8308  0.8559
 8082SOL     OW31485   9.576  11.228   0.713 -0.0394 -0.2444 -0.0158
 8082SOL    HW131486   9.521  11.223   0.635  1.2417 -4.4101 -0.9657
 8082SOL    HW231487   9.529  11.177   0.779  1.5581 -2.1620 -0.2246
 8083SOL     OW31488   9.109   8.442   2.637  0.7404 -0.3398 -0.0146
 8083SOL    HW131489   9.049   8.484   2.699  1.0766 -0.7791  0.6126
 8083SOL    HW231490   9.072   8.354   2.624  0.2499 -0.0056 -1.0321
 8084SOL     OW31491   9.843  10.056   3.549 -0.2661 -0.2861 -0.3066
 8084SOL    HW131492   9.853   9.961   3.551  1.0067 -0.1602  0.3040
 8084SOL    HW231493   9.763  10.073   3.598 -1.7831 -1.1532 -2.3211
 8085SOL     OW31494   8.611  11.348   6.116 -0.5818 -0.1779 -0.5778
 8085SOL    HW131495   8.670  11.418   6.142  1.0624 -1.2572 -1.2184
 8085SOL    HW231496   8.668  11.280   6.079 -2.1308 -1.6854 -0.3746
 8086SOL     OW31497   8.636   5.559  11.442 -0.0751  0.2357  0.4918
 8086SOL    HW131498   8.726   5.528  11.435 -0.5314 -1.2664  0.9250
 8086SOL    HW231499   8.583   5.483  11.421 -1.2508  0.9916  0.6507
 8087SOL     OW31500   5.898   1.928   1.021 -0.4400 -0.9988  0.0750
 8087SOL    HW131501   5.834   1.927   1.093  1.7006  3.2770  2.4324
 8087SOL    HW231502   5.961   1.860   1.044 -0.5890 -0.6790  1.5592
 8088SOL     OW31503   8.114   8.552   7.458 -0.1245  0.2809 -0.6324
 8088SOL    HW131504   8.148   8.538   7.547 -0.4033  0.8585 -0.4266
 8088SOL    HW231505   8.022   8.573   7.471  0.1014  1.5386 -0.9559
 8089SOL     OW31506  10.297  11.808   8.825 -0.5017  0.0474 -0.0616
 8089SOL    HW131507  10.246  11.804   8.906 -0.8622  1.0139 -0.2287
 8089SOL    HW231508  10.385  11.779   8.851 -1.2763 -2.3314  0.0703
 8090SOL     OW31509   9.163   8.737  11.624 -0.4482 -0.4664 -0.0036
 8090SOL    HW131510   9.098   8.753  11.556 -0.5133 -0.7326 -0.0031
 8090SOL    HW231511   9.176   8.642  11.624  0.7497 -0.3194 -0.7477
 8091SOL     OW31512   7.232   4.936   8.223  0.2468 -0.1533  0.2933
 8091SOL    HW131513   7.271   4.929   8.136  1.2724  0.3768  0.7014
 8091SOL    HW231514   7.286   4.880   8.278  1.2241  1.5385  1.1142
 8092SOL     OW31515   1.562   9.254   3.716 -0.2802  0.1338 -0.5406
 8092SOL    HW131516   1.567   9.175   3.663 -2.3450 -0.0869 -0.4737
 8092SOL    HW231517   1.469   9.274   3.722  0.0214  1.2651  1.3844
 8093SOL     OW31518   4.682   0.336  10.743  0.4657 -0.5694  0.1148
 8093SOL    HW131519   4.592   0.331  10.711 -0.1416  0.3644  1.5554
 8093SOL    HW231520   4.717   0.247  10.735 -0.8381 -1.1030  0.2467
 8094SOL     OW31521   8.528  12.235   2.950 -0.4221 -0.3821  0.6020
 8094SOL    HW131522   8.597  12.239   3.017  0.5797  2.1948 -0.4378
 8094SOL    HW231523   8.576  12.235   2.867 -1.6721 -0.6662 -0.1376
 8095SOL     OW31524   1.489   8.725   9.096 -0.1438 -0.2145 -0.1233
 8095SOL    HW131525   1.442   8.758   9.019  0.8481 -0.0669 -0.6961
 8095SOL    HW231526   1.468   8.632   9.100  1.1826 -0.6410 -1.6777
 8096SOL     OW31527  11.374   0.817   2.703  0.3880 -0.3775 -0.3897
 8096SOL    HW131528  11.436   0.870   2.753 -0.5007  0.6113 -0.2735
 8096SOL    HW231529  11.344   0.750   2.764  1.1465 -0.6955 -0.3687
 8097SOL     OW31530   6.310   7.557  11.954  0.0077  0.1545 -0.2560
 8097SOL    HW131531   6.239   7.580  11.895 -2.1621 -1.4482  1.5230
 8097SOL    HW231532   6.332   7.639  11.998 -1.9621  0.4274  0.3258
 8098SOL     OW31533   6.013   2.837   2.126  0.2427  0.1564  0.0146
 8098SOL    HW131534   5.938   2.878   2.170  0.1446  1.3819 -1.2468
 8098SOL    HW231535   6.087   2.854   2.185 -0.0252  1.0766  0.1055
 8099SOL     OW31536   6.111   3.862   1.410  0.2733  0.4393 -0.0443
 8099SOL    HW131537   6.057   3.830   1.482 -1.7220  2.1145 -0.6922
 8099SOL    HW231538   6.200   3.865   1.445 -0.4353 -0.0548  1.8948
 8100SOL     OW31539   8.850   9.345   5.463 -0.8481  0.3481 -0.6216
 8100SOL    HW131540   8.818   9.434   5.446 -1.1940  0.3349 -0.0697
 8100SOL    HW231541   8.788   9.310   5.527 -0.1120  0.0788 -0.0365
 8101SOL     OW31542   5.517  11.076  10.140  0.1696 -0.2421 -0.2045
 8101SOL    HW131543   5.610  11.057  10.124  0.0358 -0.0113 -1.2982
 8101SOL    HW231544   5.475  10.990  10.144  0.1093 -0.3104 -1.7821
 8102SOL     OW31545   6.020   3.219   4.873  0.0290  0.6656  0.2521
 8102SOL    HW131546   6.096   3.258   4.917  0.5674 -0.3258  0.2267
 8102SOL    HW231547   6.003   3.277   4.799  0.9915  0.7066  0.0496
 8103SOL     OW31548  12.479   1.537   2.034  0.0823  0.1349  0.1466
 8103SOL    HW131549  12.457   1.597   2.105 -0.6458  0.0711 -0.0219
 8103SOL    HW231550  12.557   1.491   2.065  1.1754  1.7737 -0.0831
 8104SOL     OW31551   2.245   1.968  11.583  0.0431 -0.4460 -0.2267
 8104SOL    HW131552   2.171   1.918  11.617 -0.2175 -0.4813 -0.8358
 8104SOL    HW231553   2.217   2.059  11.587  0.5910 -0.3175  1.0624
 8105SOL     OW31554   8.033   7.450   1.120  0.0297  0.0999 -0.2879
 8105SOL    HW131555   8.077   7.514   1.175  0.5816 -0.3716 -0.1758
 8105SOL    HW231556   7.969   7.501   1.070 -0.9874  0.4509  1.2870
 8106SOL     OW31557   7.844   8.536   6.554  0.3738  0.1384  0.2716
 8106SOL    HW131558   7.781   8.520   6.483  0.4983 -0.2915  0.2584
 8106SOL    HW231559   7.845   8.455   6.604 -1.3320  1.1268  2.0728
 8107SOL     OW31560   8.233   1.153   5.777  0.3204 -0.0257 -0.0564
 8107SOL    HW131561   8.203   1.102   5.853  0.0985  1.3225  0.7838
 8107SOL    HW231562   8.289   1.092   5.728 -1.7830 -1.8772 -0.3826
 8108SOL     OW31563   3.162  11.314   7.023 -0.2057  0.2234  0.0095
 8108SOL    HW131564   3.149  11.233   7.071  0.6589  1.2066  2.0311
 8108SOL    HW231565   3.249  11.345   7.050 -0.0921  1.3034 -1.4832
 8109SOL     OW31566   5.357   2.498   6.080  0.1288 -0.1646  0.3931
 8109SOL    HW131567   5.391   2.493   6.169 -0.8987  0.9693  0.8840
 8109SOL    HW231568   5.376   2.587   6.052  0.0958 -0.3918 -0.3749
 8110SOL     OW31569   2.577  12.534   1.895 -0.6126 -0.1586 -0.0794
 8110SOL    HW131570   2.541  12.495   1.815 -0.1377 -1.8599  0.4919
 8110SOL    HW231571   2.542  12.480   1.966 -0.0394  0.5585  0.7742
 8111SOL     OW31572   0.875   0.490   9.229 -0.2868 -0.4069  0.1126
 8111SOL    HW131573   0.962   0.467   9.199 -0.4102 -0.6171 -0.0871
 8111SOL    HW231574   0.879   0.584   9.246 -0.3904 -0.1399 -1.1927
 8112SOL     OW31575   6.639   0.636   3.510  0.4628  0.3997 -0.3491
 8112SOL    HW131576   6.635   0.622   3.605  0.3264  0.5143 -0.3370
 8112SOL    HW231577   6.550   0.618   3.480  0.5832  0.0409 -0.5010
 8113SOL     OW31578   2.278   2.750   3.683  0.3899 -0.2115 -0.1068
 8113SOL    HW131579   2.190   2.788   3.685  0.0855 -0.9031  0.8021
 8113SOL    HW231580   2.291   2.717   3.772  0.6222 -2.2422 -0.8472
 8114SOL     OW31581  10.534   8.806   1.141 -0.0870 -0.2722  0.2651
 8114SOL    HW131582  10.471   8.864   1.098  0.6258 -0.1022 -0.5727
 8114SOL    HW231583  10.504   8.718   1.119 -1.8071 -0.3329  2.4310
 8115SOL     OW31584   4.431   0.705   8.575  0.1128 -0.3436 -0.0888
 8115SOL    HW131585   4.499   0.662   8.524 -0.7329 -0.7154 -0.9360
 8115SOL    HW231586   4.391   0.766   8.513  0.7380  1.0857  0.8538
 8116SOL     OW31587   5.907   5.556   1.872  0.5777  0.3448  0.3176
 8116SOL    HW131588   5.888   5.596   1.956 -1.6283 -1.0769  0.5952
 8116SOL    HW231589   5.865   5.614   1.808  0.2310  0.2169  0.4255
 8117SOL     OW31590   1.429   3.746  11.402 -0.1816 -0.1976 -0.6813
 8117SOL    HW131591   1.352   3.701  11.439 -0.5456  0.9978  0.0696
 8117SOL    HW231592   1.453   3.810  11.468  1.5892 -0.6432 -0.8353
 8118SOL     OW31593   3.680   9.559  10.357  0.1116 -0.1241 -0.0502
 8118SOL    HW131594   3.719   9.605  10.431  0.6523 -0.0531 -0.3694
 8118SOL    HW231595   3.752   9.549  10.295 -0.4645  0.3402 -0.8143
 8119SOL     OW31596   3.924   4.312   6.298  0.4028  0.1338  0.0522
 8119SOL    HW131597   3.945   4.283   6.209 -0.6617  1.2760 -0.5999
 8119SOL    HW231598   3.853   4.254   6.326  0.7661 -0.2531  0.1859
 8120SOL     OW31599   4.932   8.895   8.786 -0.3458  0.9575 -0.4017
 8120SOL    HW131600   4.912   8.843   8.708 -0.0423  1.1921 -0.6362
 8120SOL    HW231601   4.978   8.835   8.844  0.3706  1.0673 -0.8398
 8121SOL     OW31602   7.102   6.657  10.376 -0.5572  0.1896  0.9549
 8121SOL    HW131603   7.138   6.739  10.341 -0.5576  1.5550  3.8842
 8121SOL    HW231604   7.008   6.665  10.363 -0.5116  0.3701  0.7166
 8122SOL     OW31605   0.535  10.814   3.461  0.6183  0.0181 -0.5822
 8122SOL    HW131606   0.485  10.732   3.464  0.7730 -0.0967  2.7279
 8122SOL    HW231607   0.624  10.787   3.441  0.2907 -0.3441 -1.6192
 8123SOL     OW31608   5.157   3.534   3.937  1.1789 -0.5669  0.2688
 8123SOL    HW131609   5.252   3.542   3.929  1.0525  0.0655 -0.8818
 8123SOL    HW231610   5.130   3.609   3.988  1.0800  0.6759 -1.5068
 8124SOL     OW31611   3.294   4.103   0.775 -0.7575  0.2667  0.2818
 8124SOL    HW131612   3.272   4.046   0.848  0.6211 -0.8133 -0.0888
 8124SOL    HW231613   3.216   4.157   0.761 -1.1026  0.3801  2.4097
 8125SOL     OW31614   1.362  10.759   4.866  0.4086  0.1122 -0.3486
 8125SOL    HW131615   1.271  10.735   4.847 -0.4483  1.9448  1.0704
 8125SOL    HW231616   1.386  10.819   4.795  1.3675 -2.0450 -1.9748
 8126SOL     OW31617   5.036   5.055   0.271  0.6360  0.1916  0.0861
 8126SOL    HW131618   5.073   5.045   0.358  1.5137  2.1868 -0.0050
 8126SOL    HW231619   5.094   5.117   0.227 -1.2231  1.2446 -1.0254
 8127SOL     OW31620  12.294   1.126   9.196 -0.0049  0.4236 -0.2234
 8127SOL    HW131621  12.361   1.142   9.131  0.5323  2.9619  0.8301
 8127SOL    HW231622  12.342   1.099   9.275 -0.4777 -0.5056 -0.2305
 8128SOL     OW31623  11.405   3.039   6.478 -0.1656  0.1699 -0.0691
 8128SOL    HW131624  11.366   2.964   6.431  2.9816 -0.1373 -2.5977
 8128SOL    HW231625  11.440   3.001   6.558 -0.9994 -0.4664  0.0119
 8129SOL     OW31626   6.648   0.420  11.526  0.0560  0.3732 -0.2916
 8129SOL    HW131627   6.697   0.494  11.563  2.3628 -1.1080 -0.2050
 8129SOL    HW231628   6.695   0.343  11.557 -0.5061 -1.0567 -2.7879
 8130SOL     OW31629   4.170   1.107  10.171  0.4270 -0.1828 -0.1393
 8130SOL    HW131630   4.103   1.164  10.208  0.4676  1.0746 -1.8936
 8130SOL    HW231631   4.202   1.154  10.094  2.1825 -1.4946 -0.2755
 8131SOL     OW31632   6.184   8.043   1.725  0.2093 -0.4647  0.1050
 8131SOL    HW131633   6.235   7.980   1.674 -0.2920 -1.1941  0.4915
 8131SOL    HW231634   6.222   8.039   1.813  1.2745  1.0122 -0.2456
 8132SOL     OW31635   0.732   4.158  11.278 -0.4153 -0.4581  0.3406
 8132SOL    HW131636   0.722   4.066  11.302  0.7480 -0.9571 -0.9231
 8132SOL    HW231637   0.647   4.182  11.239  0.4656 -2.3135 -3.2063
 8133SOL     OW31638   0.041   7.245  12.509 -0.0847  0.6456 -0.0295
 8133SOL    HW131639   0.111   7.244  12.574 -0.2451  0.2357  0.1383
 8133SOL    HW231640  -0.010   7.323  12.530 -0.8586 -0.1335  1.1196
 8134SOL     OW31641   8.653   5.603   2.461  0.4113 -0.6204  0.3645
 8134SOL    HW131642   8.669   5.689   2.500  0.6005 -0.4686 -0.0398
 8134SOL    HW231643   8.723   5.548   2.494  0.7472 -0.4143  0.0089
 8135SOL     OW31644   4.931  11.018   5.692 -0.3290  0.4022  0.2526
 8135SOL    HW131645   4.908  11.071   5.768 -0.5210 -0.1849  0.6159
 8135SOL    HW231646   4.952  10.932   5.729 -0.4036  0.1173 -0.3597
 8136SOL     OW31647   4.872  11.360  12.269  0.2731  0.0151 -0.2228
 8136SOL    HW131648   4.919  11.443  12.261  0.3748  0.1331  1.4126
 8136SOL    HW231649   4.940  11.293  12.259  0.3047  0.1296 -0.8187
 8137SOL     OW31650   7.555   0.073   2.577  0.0147 -0.1265 -0.2211
 8137SOL    HW131651   7.548   0.028   2.493  0.6375 -1.5635  0.4632
 8137SOL    HW231652   7.646   0.101   2.582  1.0045 -3.2751  1.4901
 8138SOL     OW31653   5.992   6.175  10.104  0.0986  0.0612 -0.0690
 8138SOL    HW131654   6.031   6.106  10.158  0.0676  0.4762  0.4835
 8138SOL    HW231655   6.066   6.229  10.076 -0.0538  0.7587  0.8520
 8139SOL     OW31656   5.812   8.435   3.005  0.3039 -0.0475 -0.0473
 8139SOL    HW131657   5.827   8.367   3.070 -0.2591 -2.0536 -1.8788
 8139SOL    HW231658   5.899   8.468   2.985  0.4050  1.3600  2.3865
 8140SOL     OW31659   4.669   5.956   4.494  0.3887 -0.3170 -0.3266
 8140SOL    HW131660   4.615   5.977   4.571 -1.0373  0.9214 -1.6049
 8140SOL    HW231661   4.739   6.022   4.495  0.2038 -0.1205 -0.2461
 8141SOL     OW31662   7.471  12.074   2.699  0.1892  0.3597  0.4239
 8141SOL    HW131663   7.447  12.092   2.608  1.4795  0.2733  0.0470
 8141SOL    HW231664   7.416  12.133   2.750 -1.7702 -0.7624 -0.2936
 8142SOL     OW31665   9.810   0.888   8.841 -0.1537  0.1925 -0.2093
 8142SOL    HW131666   9.860   0.807   8.830  0.0720 -0.1863  2.7758
 8142SOL    HW231667   9.721   0.858   8.863 -1.1278  0.8656 -2.7690
 8143SOL     OW31668  11.182   2.083   7.464  0.1226 -0.6183 -0.5223
 8143SOL    HW131669  11.110   2.133   7.426  0.4742  0.2543 -0.0805
 8143SOL    HW231670  11.168   1.994   7.433 -1.9636 -0.7888  0.7112
 8144SOL     OW31671   4.981   8.495   8.120  0.3076  0.2974 -0.2939
 8144SOL    HW131672   4.935   8.430   8.174 -0.8830  0.3778 -1.1657
 8144SOL    HW231673   5.058   8.518   8.172 -1.4040  1.3240  2.0200
 8145SOL     OW31674   9.115   7.093   7.137 -0.2367  0.6114  0.6071
 8145SOL    HW131675   9.093   7.159   7.203  0.1367  0.1773  1.1795
 8145SOL    HW231676   9.035   7.040   7.128  0.1619 -0.2397  1.8163
 8146SOL     OW31677  10.863   5.767  12.084 -0.3015 -0.4357 -0.2441
 8146SOL    HW131678  10.784   5.820  12.093  0.1528  0.6145 -2.0529
 8146SOL    HW231679  10.857   5.704  12.156 -2.1786  0.3649  0.3749
 8147SOL     OW31680   3.047   5.129   0.868  0.4619  0.0329  0.3493
 8147SOL    HW131681   3.071   5.196   0.933  1.9959  0.0487 -0.2093
 8147SOL    HW231682   2.953   5.144   0.853 -0.6505 -1.5132  4.3273
 8148SOL     OW31683   7.971   3.396   1.605 -0.4391  0.0243 -0.5195
 8148SOL    HW131684   7.987   3.372   1.696 -0.1181  1.1566 -0.2522
 8148SOL    HW231685   8.059   3.404   1.567 -0.5012  1.0674 -0.4897
 8149SOL     OW31686   9.559   2.893   2.445  0.0356 -0.6964  0.2511
 8149SOL    HW131687   9.581   2.883   2.537  3.2690 -0.4908 -0.3836
 8149SOL    HW231688   9.562   2.988   2.430 -0.8770 -0.6990 -0.0016
 8150SOL     OW31689   0.771  10.870   9.420  0.2007  0.0631 -0.0528
 8150SOL    HW131690   0.813  10.899   9.501 -0.6918 -0.0829  0.4741
 8150SOL    HW231691   0.805  10.782   9.405  0.6114  0.2121 -0.0152
 8151SOL     OW31692   3.253   5.553  12.041  0.0120 -0.0241  0.2133
 8151SOL    HW131693   3.242   5.647  12.055  0.5060  0.1987 -0.7623
 8151SOL    HW231694   3.199   5.512  12.108 -1.2673  0.9575 -0.1844
 8152SOL     OW31695   9.630   4.285  10.810 -0.0402 -0.2779  0.3110
 8152SOL    HW131696   9.559   4.227  10.838 -0.0408 -0.3431  0.1806
 8152SOL    HW231697   9.689   4.288  10.885  0.4399 -1.2143 -0.0075
 8153SOL     OW31698   7.791  10.130   0.996 -0.0063 -0.6183 -0.3368
 8153SOL    HW131699   7.718  10.077   0.965  0.2257 -1.8629  1.1343
 8153SOL    HW231700   7.752  10.193   1.056  0.1596 -1.6180  0.8497
 8154SOL     OW31701   4.279   4.470   0.772  0.0490  0.1579 -0.2506
 8154SOL    HW131702   4.211   4.409   0.743 -0.9640  1.4745 -0.7283
 8154SOL    HW231703   4.287   4.453   0.866  1.2640 -2.1083 -0.6947
 8155SOL     OW31704   9.021   2.075   7.662  0.1332  0.1869 -0.4136
 8155SOL    HW131705   9.011   2.050   7.754 -0.5049  0.3959 -0.4170
 8155SOL    HW231706   9.107   2.117   7.657  0.7932 -1.1014 -0.2098
 8156SOL     OW31707   9.899   2.979   7.768 -0.3358 -0.6148 -0.5237
 8156SOL    HW131708   9.946   2.946   7.845  0.2375  0.6331 -0.3174
 8156SOL    HW231709   9.887   2.902   7.713 -0.8832 -1.5774  0.8580
 8157SOL     OW31710   9.572   5.133   8.913 -0.4922  0.3095  0.5566
 8157SOL    HW131711   9.530   5.129   8.827 -0.3342  1.2469  0.4196
 8157SOL    HW231712   9.616   5.219   8.914  0.7499 -0.3023  0.9968
 8158SOL     OW31713  11.441   7.667   6.032 -0.4011  0.0941 -0.1872
 8158SOL    HW131714  11.415   7.585   6.076 -1.5823  0.1986 -0.6471
 8158SOL    HW231715  11.364   7.723   6.039  0.5326  1.3500  0.4861
 8159SOL     OW31716  11.988  12.015   7.566 -0.0328  0.5984  0.1556
 8159SOL    HW131717  12.004  11.988   7.656 -0.7362 -1.7780 -0.3629
 8159SOL    HW231718  11.921  11.955   7.534 -0.3696  1.8729 -1.7300
 8160SOL     OW31719   3.566   2.860  10.988 -0.7372 -0.4243  0.0892
 8160SOL    HW131720   3.660   2.852  11.003 -0.8347  1.2527  1.9722
 8160SOL    HW231721   3.532   2.771  11.001  0.1204 -0.3732  3.6627
 8161SOL     OW31722   7.356  11.185   9.862 -0.4427 -0.1447 -0.3069
 8161SOL    HW131723   7.270  11.151   9.886 -0.5043 -0.1262 -0.5028
 8161SOL    HW231724   7.339  11.246   9.790 -0.1623 -0.9131 -1.0487
 8162SOL     OW31725   6.614   3.056   6.082 -0.7644 -0.0789  1.1188
 8162SOL    HW131726   6.631   2.963   6.069  0.6642  0.2051  0.7326
 8162SOL    HW231727   6.679   3.100   6.026 -1.5942  1.1459  1.0733
 8163SOL     OW31728   2.290   4.194  11.168  0.3443  0.4539  0.2396
 8163SOL    HW131729   2.204   4.154  11.179  0.2323  0.5704 -0.1994
 8163SOL    HW231730   2.307   4.237  11.251  1.0048 -1.5122  1.1815
 8164SOL     OW31731   3.587  10.762   9.867 -0.3549  0.1791  0.0401
 8164SOL    HW131732   3.582  10.756   9.772  1.1822  2.3364 -0.2647
 8164SOL    HW231733   3.499  10.787   9.895 -0.1327  2.5991 -1.1971
 8165SOL     OW31734   6.506  11.061   8.713  0.7465  0.0935 -0.4782
 8165SOL    HW131735   6.418  11.043   8.748  0.0415  0.3425 -2.0660
 8165SOL    HW231736   6.524  10.986   8.656  1.4424  0.2120 -0.4178
 8166SOL     OW31737   5.933   7.645  12.413  0.0807 -0.0140 -0.0501
 8166SOL    HW131738   5.958   7.558  12.383 -0.1910 -0.7761  1.7997
 8166SOL    HW231739   5.989   7.704  12.364  0.9064 -1.2870 -0.6960
 8167SOL     OW31740  11.371   3.681   5.042 -0.2178  0.1968  0.7020
 8167SOL    HW131741  11.386   3.641   5.127  0.9427  0.3536  0.5900
 8167SOL    HW231742  11.419   3.624   4.981  0.5249  1.1152  0.4045
 8168SOL     OW31743   6.088  12.114   0.123 -0.1249 -0.3920  0.4258
 8168SOL    HW131744   6.101  12.206   0.099 -2.9469 -0.5915 -2.4663
 8168SOL    HW231745   6.021  12.117   0.191 -1.0138 -0.3167 -0.4370
 8169SOL     OW31746   4.679   4.106  12.334  0.5017 -0.3781  0.1876
 8169SOL    HW131747   4.703   4.039  12.270  0.2445 -0.2062 -0.0905
 8169SOL    HW231748   4.629   4.171  12.284 -0.7226 -0.8293  0.7853
 8170SOL     OW31749  12.582   9.523  11.953  0.1185 -0.3748 -0.3136
 8170SOL    HW131750  12.659   9.547  11.902 -0.4070 -0.3231 -1.1035
 8170SOL    HW231751  12.582   9.585  12.026  0.7409 -0.2734 -0.3963
 8171SOL     OW31752  12.234   1.955   8.077 -0.1196 -0.2117  0.1570
 8171SOL    HW131753  12.189   1.964   7.993  0.7181 -0.9006 -0.3753
 8171SOL    HW231754  12.182   1.890   8.125  0.4287 -1.1957 -0.5549
 8172SOL     OW31755   0.307  12.702   8.246 -0.4372  0.0930 -0.0227
 8172SOL    HW131756   0.217  12.732   8.249  0.6050  3.6371  0.0656
 8172SOL    HW231757   0.337  12.724   8.158  0.2502 -1.4923 -0.2161
 8173SOL     OW31758  12.080   2.898   9.319  0.8776 -0.3271 -0.5118
 8173SOL    HW131759  12.053   2.986   9.293  1.2952  0.4372  1.4437
 8173SOL    HW231760  12.164   2.885   9.275  0.3754 -0.1313 -1.5470
 8174SOL     OW31761   2.198   3.287  10.129  0.4112  0.0573  0.8318
 8174SOL    HW131762   2.174   3.288  10.037  1.8978 -0.8130  0.4081
 8174SOL    HW231763   2.186   3.195  10.155 -0.6900  0.4249  1.7189
 8175SOL     OW31764   9.638  10.626   1.759 -0.3627  0.4310 -0.4421
 8175SOL    HW131765   9.553  10.582   1.755  0.5290 -1.6050  1.1863
 8175SOL    HW231766   9.636  10.672   1.843  0.4192 -0.3258  0.0060
 8176SOL     OW31767   3.040   1.379   1.320 -0.0155  0.4465  0.4365
 8176SOL    HW131768   3.107   1.419   1.264 -1.2278  2.3300  0.2447
 8176SOL    HW231769   2.976   1.343   1.258  0.4020 -0.6919  0.6302
 8177SOL     OW31770   7.571   8.874   2.190  0.6089  0.1031  0.2328
 8177SOL    HW131771   7.638   8.836   2.133  1.1133  0.6064  0.4805
 8177SOL    HW231772   7.567   8.816   2.265  0.8751  0.1475  0.2832
 8178SOL     OW31773   1.089  10.608   3.005  0.1342 -0.7258 -0.5147
 8178SOL    HW131774   1.061  10.620   2.914 -0.4693  0.7068 -0.1680
 8178SOL    HW231775   1.012  10.572   3.049 -0.1339  0.1862 -0.2254
 8179SOL     OW31776   4.637  12.586  12.176 -0.2092  0.2615  0.1102
 8179SOL    HW131777   4.672  12.574  12.264 -3.1512 -0.8320  1.2635
 8179SOL    HW231778   4.627  12.680  12.167 -0.8193  0.3470  1.4011
 8180SOL     OW31779   2.944   2.566  10.578  0.0433 -0.0375  0.3081
 8180SOL    HW131780   2.981   2.638  10.629 -2.1048  1.0645  0.4295
 8180SOL    HW231781   2.989   2.488  10.611 -0.5477  0.7264  3.2394
 8181SOL     OW31782   1.090   3.511   5.123 -0.0759  0.3938 -0.1165
 8181SOL    HW131783   1.004   3.552   5.119  0.7360  2.1877 -0.0986
 8181SOL    HW231784   1.128   3.543   5.205  0.3685 -0.9032  0.1986
 8182SOL     OW31785   4.318   5.165   4.231 -0.0641  0.7370  0.2958
 8182SOL    HW131786   4.398   5.112   4.225 -0.6540 -0.0084 -1.4776
 8182SOL    HW231787   4.336   5.242   4.177 -0.0868  1.2003  0.9372
 8183SOL     OW31788  10.845   1.486   3.939  0.1217 -0.4705  0.4134
 8183SOL    HW131789  10.835   1.418   3.872  0.2535  1.0804 -1.2565
 8183SOL    HW231790  10.789   1.457   4.011 -2.9932 -0.4929 -1.7907
 8184SOL     OW31791   5.101   7.824   3.940  0.3380  0.3252  0.0047
 8184SOL    HW131792   5.132   7.845   4.028  2.3514 -0.2566 -0.5195
 8184SOL    HW231793   5.086   7.729   3.942  0.6479  0.2660 -0.3375
 8185SOL     OW31794   7.578  12.701  10.449 -0.0359 -0.0865 -0.4948
 8185SOL    HW131795   7.556  12.747  10.530  1.1218 -0.7750  0.2277
 8185SOL    HW231796   7.618  12.619  10.478  1.0795 -0.0163 -1.7626
 8186SOL     OW31797   0.058   6.764   9.095 -0.2372  0.1121  0.2409
 8186SOL    HW131798  -0.032   6.742   9.120 -0.6666  1.1963 -0.2784
 8186SOL    HW231799   0.112   6.730   9.167 -1.1352  0.1924  0.9698
 8187SOL     OW31800   6.007   6.898  11.365 -0.2259 -0.6985 -0.0524
 8187SOL    HW131801   6.052   6.968  11.318 -1.0569 -0.6506 -0.8182
 8187SOL    HW231802   6.076   6.853  11.414  0.5651 -0.3224 -0.7965
 8188SOL     OW31803   2.220   7.562   4.066  0.2179 -0.0969 -0.1267
 8188SOL    HW131804   2.281   7.595   4.000 -0.0127  2.0668  0.6806
 8188SOL    HW231805   2.247   7.605   4.147 -0.9766 -0.8809  0.7160
 8189SOL     OW31806   9.930  12.461   3.510 -0.4588  0.0355 -0.2471
 8189SOL    HW131807   9.911  12.382   3.561  3.5173 -1.2940 -0.4534
 8189SOL    HW231808   9.974  12.520   3.572  1.2479 -0.1446 -1.2181
 8190SOL     OW31809   8.843   0.580   9.402  0.1644 -0.2551  0.3628
 8190SOL    HW131810   8.804   0.493   9.408  1.3355 -0.8558 -0.4782
 8190SOL    HW231811   8.798   0.621   9.328  0.0133 -0.3651  0.3930
 8191SOL     OW31812   6.370   5.392   9.676 -0.0509  0.2390 -0.2852
 8191SOL    HW131813   6.327   5.443   9.745  0.1680  0.7424 -0.5183
 8191SOL    HW231814   6.463   5.409   9.688 -0.0393  0.7588 -1.0293
 8192SOL     OW31815   1.444  11.438   2.800  0.0441  0.1305 -0.4344
 8192SOL    HW131816   1.524  11.462   2.849  0.9714  1.6346 -2.5286
 8192SOL    HW231817   1.376  11.433   2.867  1.8341 -1.0894  1.4216
 8193SOL     OW31818   6.222   5.324   0.292 -0.1381  0.1974 -0.8227
 8193SOL    HW131819   6.219   5.404   0.239 -0.9843  1.0753  0.4567
 8193SOL    HW231820   6.315   5.309   0.307  0.0395  1.9535  0.2652
 8194SOL     OW31821   4.740   7.472   7.754  0.0423 -0.2710  0.2159
 8194SOL    HW131822   4.688   7.524   7.815 -0.2650  1.5786 -1.5380
 8194SOL    HW231823   4.702   7.489   7.668  1.5922 -1.3608 -0.7531
 8195SOL     OW31824   7.242  11.180   2.058  0.1713 -0.0561  0.7109
 8195SOL    HW131825   7.230  11.275   2.060 -2.7973 -0.3085 -0.6245
 8195SOL    HW231826   7.321  11.167   2.005 -0.6497  1.6564 -1.0440
 8196SOL     OW31827   6.789   1.278   6.521 -0.4796 -0.0836  0.2961
 8196SOL    HW131828   6.704   1.287   6.564  0.1252  0.5253  1.3951
 8196SOL    HW231829   6.831   1.363   6.532  0.8656 -0.8189  1.0895
 8197SOL     OW31830   2.240  11.816   5.812  0.3150 -0.6168 -0.1609
 8197SOL    HW131831   2.201  11.729   5.802  0.0196 -0.6330  0.9453
 8197SOL    HW231832   2.197  11.853   5.889  1.9863 -0.3764  0.7138
 8198SOL     OW31833   3.973  12.254   4.913 -0.4488 -0.3542 -0.2432
 8198SOL    HW131834   3.976  12.161   4.937  2.4715 -0.2259  0.3396
 8198SOL    HW231835   3.979  12.300   4.997  1.4559  0.2496 -0.6681
 8199SOL     OW31836  12.166   5.783   2.442  0.1055 -0.1178 -0.0664
 8199SOL    HW131837  12.075   5.784   2.411 -0.0983 -0.1618  0.5207
 8199SOL    HW231838  12.164   5.833   2.524  0.8264  0.8837 -0.6337
 8200SOL     OW31839  11.019   5.684   3.125  0.0818 -0.1473 -0.2231
 8200SOL    HW131840  11.020   5.674   3.220  0.5845 -0.1404 -0.2252
 8200SOL    HW231841  11.022   5.779   3.110 -1.3843 -0.0759 -0.2400
 8201SOL     OW31842   7.157  12.654   7.625 -0.1614  0.6089 -0.2019
 8201SOL    HW131843   7.226  12.672   7.689 -0.0977  0.2464 -0.1682
 8201SOL    HW231844   7.097  12.728   7.633 -0.6052  0.1539  0.8811
 8202SOL     OW31845   2.966   6.841   6.173 -0.0497 -0.0163  0.1096
 8202SOL    HW131846   3.042   6.783   6.164 -0.4960 -0.3718 -1.9071
 8202SOL    HW231847   2.893   6.782   6.192 -0.7200 -0.3800 -3.0638
 8203SOL     OW31848   9.961   9.841  10.567  0.2342 -0.5209 -0.0203
 8203SOL    HW131849   9.966   9.867  10.659 -0.9722 -0.9948  0.1968
 8203SOL    HW231850  10.053   9.835  10.538  0.6364 -0.7557  1.2546
 8204SOL     OW31851   5.255   1.312   3.940 -0.8206  0.5730  0.1538
 8204SOL    HW131852   5.191   1.245   3.919 -0.3735  1.0032 -2.9666
 8204SOL    HW231853   5.319   1.267   3.996 -0.8154 -1.4991 -1.4149
 8205SOL     OW31854   9.988   6.081   3.989 -0.2019  0.1772  0.0158
 8205SOL    HW131855   9.971   6.153   3.929  1.2403 -0.1508 -0.8273
 8205SOL    HW231856  10.065   6.110   4.039  0.3246 -0.7223 -0.2619
 8206SOL     OW31857   2.106   5.151   7.282  0.5209  0.3592 -0.0635
 8206SOL    HW131858   2.136   5.101   7.206 -1.7058 -0.6530 -0.3489
 8206SOL    HW231859   2.105   5.242   7.252  1.3382  0.1867 -0.6544
 8207SOL     OW31860  10.383   9.097  12.510 -0.7545 -0.5738  0.6931
 8207SOL    HW131861  10.354   9.182  12.476 -0.2840  0.0689  1.8311
 8207SOL    HW231862  10.450   9.119  12.575  0.2739 -1.8854  0.1143
 8208SOL     OW31863   1.229   0.581   4.221 -0.2859 -0.0547 -0.3197
 8208SOL    HW131864   1.261   0.499   4.260 -0.3474 -0.2714 -0.7160
 8208SOL    HW231865   1.304   0.615   4.173 -0.0968  0.4082  0.2963
 8209SOL     OW31866   2.248   9.559   1.969 -0.0716  0.2774  0.5001
 8209SOL    HW131867   2.235   9.611   1.889  2.0443  1.5785  0.9322
 8209SOL    HW231868   2.321   9.502   1.949 -1.8679 -2.1019  0.3184
 8210SOL     OW31869  11.687   4.183   3.362  0.1475  0.4550  0.1749
 8210SOL    HW131870  11.614   4.172   3.302 -0.8100 -0.1956  1.4154
 8210SOL    HW231871  11.680   4.273   3.394 -0.7552  0.0882  1.0673
 8211SOL     OW31872   1.536  12.680   6.814  0.1715 -0.1663 -0.5731
 8211SOL    HW131873   1.489  12.597   6.803 -0.9852  0.7412 -3.4212
 8211SOL    HW231874   1.484  12.729   6.877  0.9324 -1.5886  1.2270
 8212SOL     OW31875   8.447  10.141   1.567  0.3511  0.2145 -0.1871
 8212SOL    HW131876   8.528  10.092   1.553 -0.2483 -0.9301  0.2541
 8212SOL    HW231877   8.475  10.225   1.604  1.4971  0.7770 -2.1956
 8213SOL     OW31878   9.243   8.325   1.414  0.2012  0.1118 -0.0064
 8213SOL    HW131879   9.240   8.380   1.493  1.4361  1.5327 -0.8865
 8213SOL    HW231880   9.334   8.332   1.384 -0.5380  0.7666 -2.3106
 8214SOL     OW31881   8.907   8.248   1.790  0.7709  0.6999 -0.2175
 8214SOL    HW131882   8.864   8.313   1.734  3.0048  0.2890 -2.5762
 8214SOL    HW231883   8.936   8.299   1.866  1.7358  2.3670 -1.6122
 8215SOL     OW31884  10.554   9.093   9.644  0.0400 -0.3312  0.1650
 8215SOL    HW131885  10.611   9.022   9.614 -0.4477 -1.5601  1.9250
 8215SOL    HW231886  10.593   9.121   9.727 -1.1507 -0.2851  0.7252
 8216SOL     OW31887   3.078   8.572   8.657 -0.0173  0.1159  0.5427
 8216SOL    HW131888   3.106   8.661   8.634  1.5402  0.1821  2.4093
 8216SOL    HW231889   2.986   8.568   8.631 -0.4673  2.7030  1.4739
 8217SOL     OW31890   5.658   1.131   6.682  0.3742  0.0032  0.5107
 8217SOL    HW131891   5.676   1.038   6.697 -1.3386  0.0154  3.2033
 8217SOL    HW231892   5.670   1.172   6.767 -0.6489  1.9699 -0.2234
 8218SOL     OW31893   9.166   9.984   7.745 -0.3378 -0.1721  0.1866
 8218SOL    HW131894   9.149   9.913   7.683  3.0861 -1.2494  0.2505
 8218SOL    HW231895   9.216  10.049   7.694 -2.6635  1.8928  0.3594
 8219SOL     OW31896  10.593   7.446   3.773  0.3689  0.0040 -0.2991
 8219SOL    HW131897  10.529   7.425   3.706 -0.2320  1.9488 -0.3818
 8219SOL    HW231898  10.663   7.492   3.727  1.0252 -0.5853  0.0758
 8220SOL     OW31899   0.151   1.561   0.861 -0.4873  0.5161  0.3045
 8220SOL    HW131900   0.205   1.634   0.891 -0.9815  0.1292  2.3523
 8220SOL    HW231901   0.194   1.529   0.782  1.0194  1.5871  0.6505
 8221SOL     OW31902   7.818  11.743  11.348 -0.0479  0.5382  0.2793
 8221SOL    HW131903   7.878  11.808  11.386  0.7405  0.4635 -0.7864
 8221SOL    HW231904   7.875  11.679  11.307 -0.8615  0.1012 -0.1928
 8222SOL     OW31905   9.136   2.232   9.651 -0.0998  0.1114  0.0687
 8222SOL    HW131906   9.198   2.160   9.666 -0.0565 -0.3564 -2.0479
 8222SOL    HW231907   9.177   2.285   9.583 -1.2457  0.7780 -0.1278
 8223SOL     OW31908  11.667  11.416   2.287  0.0722  0.7168 -0.1946
 8223SOL    HW131909  11.676  11.336   2.236 -2.1586  1.3259 -1.6841
 8223SOL    HW231910  11.757  11.437   2.315  1.2753 -0.2793 -2.9382
 8224SOL     OW31911   0.060   4.868  11.764  0.1010 -0.1088 -0.1031
 8224SOL    HW131912  -0.023   4.873  11.717  0.8266  0.4705 -1.3626
 8224SOL    HW231913   0.127   4.879  11.696  1.1872  0.8629  1.0847
 8225SOL     OW31914   4.953   4.240   6.254  0.5482 -0.4535  0.2278
 8225SOL    HW131915   4.973   4.292   6.332  0.7357 -1.0747  0.6001
 8225SOL    HW231916   5.014   4.166   6.259 -0.1743 -1.0652  0.0612
 8226SOL     OW31917   2.432   5.764   2.829  0.5242 -0.2119  0.0368
 8226SOL    HW131918   2.419   5.858   2.819 -1.1730 -0.2076  1.7532
 8226SOL    HW231919   2.385   5.725   2.755  0.7707  0.2605 -0.3725
 8227SOL     OW31920  11.497   0.341   3.503  0.4594 -0.1810 -0.0671
 8227SOL    HW131921  11.429   0.367   3.564 -0.3622 -1.6565 -0.2961
 8227SOL    HW231922  11.478   0.390   3.423  0.7988  0.8136  0.4488
 8228SOL     OW31923   4.550   0.141   4.700 -0.3565  0.6164 -0.1980
 8228SOL    HW131924   4.585   0.228   4.678  0.6959  0.2839  0.0981
 8228SOL    HW231925   4.624   0.082   4.689 -0.8114 -0.1114  0.5117
 8229SOL     OW31926  11.637  10.000   1.261  0.2693 -0.4672 -0.3938
 8229SOL    HW131927  11.712  10.057   1.246  0.6910 -0.4125  1.7165
 8229SOL    HW231928  11.576  10.053   1.313 -1.8921 -0.0512 -3.0986
 8230SOL     OW31929   7.549  11.473   0.762 -0.3264  0.2645 -0.0033
 8230SOL    HW131930   7.531  11.403   0.825  0.0468  1.0847  1.0359
 8230SOL    HW231931   7.494  11.545   0.790 -1.2172  0.2091 -1.4656
 8231SOL     OW31932   1.294  10.275  12.329  0.0283  0.0963 -0.5634
 8231SOL    HW131933   1.215  10.234  12.294  0.2058 -0.1553 -0.6772
 8231SOL    HW231934   1.357  10.203  12.336  0.7066  0.5237 -1.8300
 8232SOL     OW31935  10.363   8.220   5.070 -0.4349  0.1575  0.1258
 8232SOL    HW131936  10.353   8.305   5.027 -0.6200 -0.1478 -0.4502
 8232SOL    HW231937  10.413   8.238   5.149  1.1565  0.5231 -0.9281
 8233SOL     OW31938  11.566   8.163   4.197 -0.7027 -0.0578 -0.2933
 8233SOL    HW131939  11.591   8.169   4.104 -1.0661  1.3403 -0.3224
 8233SOL    HW231940  11.650   8.164   4.244 -0.5544  1.1839 -0.5413
 8234SOL     OW31941   3.091   1.810   7.002  0.1857  0.0997  0.3977
 8234SOL    HW131942   3.028   1.841   7.067 -0.9284 -0.1848 -0.5114
 8234SOL    HW231943   3.037   1.771   6.933  1.3435  0.2401 -0.6209
 8235SOL     OW31944   2.246  10.113   6.723 -0.0548  0.0360 -0.2809
 8235SOL    HW131945   2.292  10.036   6.691  1.6672  0.6520  0.6201
 8235SOL    HW231946   2.226  10.164   6.644  0.7070 -0.3120 -0.7055
 8236SOL     OW31947  10.558   4.096  10.184  0.2751  0.0341  0.4817
 8236SOL    HW131948  10.641   4.051  10.174  1.3615  1.3520  2.9201
 8236SOL    HW231949  10.494   4.026  10.195  1.3211 -0.9671  0.3713
 8237SOL     OW31950  11.941   9.517  12.116 -0.0572  0.8860 -0.3975
 8237SOL    HW131951  11.939   9.597  12.063 -0.1300 -0.0901 -1.9118
 8237SOL    HW231952  11.990   9.455  12.063 -2.9289 -1.1768 -0.8590
 8238SOL     OW31953  10.576   9.875   2.297  0.2811  0.1383  0.1515
 8238SOL    HW131954  10.585   9.794   2.246  0.6608  1.5637 -2.1762
 8238SOL    HW231955  10.612   9.853   2.383 -0.3197 -2.3678 -0.1636
 8239SOL     OW31956   3.177   3.606  10.923  0.5912 -0.1497 -0.3010
 8239SOL    HW131957   3.221   3.623  11.006 -0.4105 -0.8109  0.3894
 8239SOL    HW231958   3.242   3.627  10.856  1.2484  0.8560  0.6333
 8240SOL     OW31959   7.186  11.530  11.496 -0.6455  0.3218 -0.7850
 8240SOL    HW131960   7.234  11.506  11.417 -0.0960  2.5405 -1.1733
 8240SOL    HW231961   7.235  11.489  11.568  1.5295  2.0059 -1.2181
 8241SOL     OW31962   7.473   4.004   3.584  0.1141  0.0477  0.0064
 8241SOL    HW131963   7.442   4.094   3.593 -0.1416 -0.1837  1.7053
 8241SOL    HW231964   7.495   3.996   3.491  1.0221  2.1370 -0.0330
 8242SOL     OW31965   4.959  11.419   4.617  0.2361 -0.2754  0.0116
 8242SOL    HW131966   4.948  11.338   4.568 -0.3842 -0.2102  0.0394
 8242SOL    HW231967   5.047  11.413   4.655 -0.5248 -1.8587  1.6962
 8243SOL     OW31968   8.476  10.371   9.423  0.0713  0.6942  0.0398
 8243SOL    HW131969   8.532  10.296   9.403  0.7552  1.6530 -1.8714
 8243SOL    HW231970   8.514  10.408   9.503  1.0101  0.2368 -0.1794
 8244SOL     OW31971   6.285   9.931   9.385  0.4435 -0.0198  0.0579
 8244SOL    HW131972   6.241   9.897   9.463 -0.9415 -0.2789 -0.7958
 8244SOL    HW231973   6.361   9.875   9.374  0.8828  0.2548  1.4121
 8245SOL     OW31974   4.158   2.668   9.569 -0.4057 -0.4394 -0.0349
 8245SOL    HW131975   4.096   2.653   9.640 -1.4399 -0.0113 -0.8284
 8245SOL    HW231976   4.207   2.746   9.595 -1.1382  0.0243 -0.0170
 8246SOL     OW31977   4.322  12.682   9.769 -0.2047  0.2418  0.6841
 8246SOL    HW131978   4.229  12.699   9.754  0.0371 -0.8315 -3.2655
 8246SOL    HW231979   4.367  12.758   9.730  0.5548 -0.7838 -0.5200
 8247SOL     OW31980   9.072   1.169   8.843  0.3061  0.1901  0.5071
 8247SOL    HW131981   9.121   1.229   8.900 -0.5744  0.6197  0.8235
 8247SOL    HW231982   9.099   1.193   8.755  0.7667  0.3290  0.6809
 8248SOL     OW31983   8.929   6.445   0.960 -1.0222 -0.5353 -0.3409
 8248SOL    HW131984   8.861   6.507   0.986 -0.7982 -0.5966  0.3911
 8248SOL    HW231985   8.929   6.379   1.029  1.7508  0.9637  1.2814
 8249SOL     OW31986   9.812   8.418   5.622  0.2627  0.0344  0.4653
 8249SOL    HW131987   9.871   8.379   5.558  0.4221  1.5211 -0.3244
 8249SOL    HW231988   9.817   8.359   5.698 -1.6472 -3.0758 -1.5883
 8250SOL     OW31989   0.242   5.610   9.185 -0.3574 -0.1415  0.2153
 8250SOL    HW131990   0.225   5.628   9.092  1.1595  0.2278 -0.0249
 8250SOL    HW231991   0.156   5.589   9.222 -1.0002 -0.2099 -1.2500
 8251SOL     OW31992   7.506   6.242   3.031  0.1140 -0.3464 -0.6900
 8251SOL    HW131993   7.546   6.191   3.101  1.0980  1.2567 -0.0255
 8251SOL    HW231994   7.580   6.280   2.984 -0.5836  0.5478 -1.0933
 8252SOL     OW31995  10.132   7.906   3.059  0.1594  0.2206 -0.0795
 8252SOL    HW131996  10.049   7.942   3.092  0.0442  0.2406 -0.3866
 8252SOL    HW231997  10.128   7.813   3.081  0.7276  0.4980  1.2702
 8253SOL     OW31998   0.987  12.083   6.236  0.2933  0.0955 -0.2956
 8253SOL    HW131999   1.063  12.046   6.280  0.1845 -1.7627 -1.5501
 8253SOL    HW232000   0.912  12.046   6.281  0.1699 -0.4031 -0.8943
 8254SOL     OW32001  10.419   4.790   6.193 -0.2751  0.1336 -0.1857
 8254SOL    HW132002  10.363   4.865   6.173 -0.0393  0.3025 -0.2239
 8254SOL    HW232003  10.370   4.739   6.257 -1.0072 -0.3615 -1.1064
 8255SOL     OW32004  10.078   0.053   1.638 -0.2874 -0.2800 -0.3511
 8255SOL    HW132005  10.037   0.032   1.722  0.8550 -1.8914 -0.1516
 8255SOL    HW232006  10.017   0.020   1.573 -0.2038 -0.9338 -0.1018
 8256SOL     OW32007   4.711   1.401  10.038 -0.0272  0.4045  0.2542
 8256SOL    HW132008   4.634   1.458  10.030  0.0257  0.6273  1.1860
 8256SOL    HW232009   4.763   1.440  10.108  0.5694 -0.1659  0.1444
 8257SOL     OW32010   2.371   4.671   7.537  0.0080  0.7865 -0.2501
 8257SOL    HW132011   2.435   4.640   7.474  0.5704  1.5505 -0.0613
 8257SOL    HW232012   2.411   4.655   7.622 -1.0190 -0.8600 -0.0233
 8258SOL     OW32013   3.336   2.949   0.665 -0.4068 -0.1417 -0.3393
 8258SOL    HW132014   3.389   2.990   0.733  0.8512 -0.3410 -1.1729
 8258SOL    HW232015   3.365   2.989   0.583 -0.9731 -0.8370 -0.9052
 8259SOL     OW32016   5.858   4.763   9.424  0.8193 -0.5408 -0.3834
 8259SOL    HW132017   5.774   4.727   9.453  0.6927  0.3803  0.4864
 8259SOL    HW232018   5.833   4.835   9.365  0.9591  0.0077  0.2056
 8260SOL     OW32019   6.709  11.374  10.798  0.1069 -0.1716  0.2433
 8260SOL    HW132020   6.717  11.358  10.892 -0.0108  2.6759  0.8127
 8260SOL    HW232021   6.791  11.416  10.774 -0.1151 -0.3217 -0.8234
 8261SOL     OW32022   4.796  11.686   9.062 -0.5825  0.0745  0.2434
 8261SOL    HW132023   4.820  11.671   9.154 -0.7522  0.8943  0.4330
 8261SOL    HW232024   4.724  11.625   9.046  0.4612 -1.1734  0.1816
 8262SOL     OW32025   4.753   3.653   5.862  0.0330  0.1878  0.9281
 8262SOL    HW132026   4.677   3.653   5.804  1.2052 -0.6018 -0.6996
 8262SOL    HW232027   4.765   3.745   5.886 -1.7052  0.2668  1.6427
 8263SOL     OW32028   3.613   2.180   2.634  0.4862  0.2228  0.1335
 8263SOL    HW132029   3.699   2.179   2.676 -0.5515 -0.7583  2.3874
 8263SOL    HW232030   3.608   2.098   2.585  1.4439  1.0727 -1.4914
 8264SOL     OW32031   7.166   3.081   4.265 -0.5852  0.1852 -0.5555
 8264SOL    HW132032   7.202   3.093   4.353 -1.1520  2.0503 -0.5177
 8264SOL    HW232033   7.129   3.167   4.243 -1.0773 -0.4385 -2.3382
 8265SOL     OW32034   8.050  11.927   8.310 -0.6921 -0.0155 -0.9003
 8265SOL    HW132035   8.072  11.984   8.237 -1.6064  2.3087  0.5195
 8265SOL    HW232036   8.086  11.842   8.286  1.5023  1.3163 -2.7841
 8266SOL     OW32037   1.862   3.474   1.181  0.0841  0.2361 -0.5479
 8266SOL    HW132038   1.828   3.413   1.116 -1.6766  1.0356 -0.4461
 8266SOL    HW232039   1.889   3.551   1.130 -0.4401  0.5053 -0.4228
 8267SOL     OW32040   6.255   8.048   2.027  0.5301  0.0643  0.2396
 8267SOL    HW132041   6.326   7.984   2.030 -1.1885 -1.9531  0.3267
 8267SOL    HW232042   6.228   8.058   2.119 -1.0597 -1.3377 -0.0352
 8268SOL     OW32043  10.912   9.027   2.047 -0.1397 -0.0233 -0.6442
 8268SOL    HW132044  10.867   9.090   2.104 -0.0714 -0.2461 -0.3428
 8268SOL    HW232045  11.002   9.057   2.045 -0.3458  0.5560 -1.4320
 8269SOL     OW32046   3.306   3.857   1.049  0.3973 -0.1141  0.0213
 8269SOL    HW132047   3.251   3.810   0.986  0.5029 -0.1591 -0.0378
 8269SOL    HW232048   3.393   3.819   1.038  0.3049 -0.4956  0.5714
 8270SOL     OW32049   0.813  10.534   3.101 -0.1228 -0.1330 -0.0278
 8270SOL    HW132050   0.789  10.499   3.187 -0.1658 -1.0327 -0.3962
 8270SOL    HW232051   0.759  10.612   3.091  0.5856  0.5347  1.1741
 8271SOL     OW32052   0.504   1.103   7.754 -0.1177  0.8459 -0.3232
 8271SOL    HW132053   0.453   1.023   7.738 -1.4975  1.6119  0.1505
 8271SOL    HW232054   0.590   1.070   7.781 -0.2780 -0.4726 -1.2921
 8272SOL     OW32055   3.551   7.679  12.702  0.0245 -0.2211  0.0074
 8272SOL    HW132056   3.540   7.769  12.732  1.6938  0.0475 -0.0935
 8272SOL    HW232057   3.612   7.685  12.628  0.5439 -1.4555  0.3003
 8273SOL     OW32058  10.127  10.566   2.737  0.8086 -0.7179  0.0261
 8273SOL    HW132059  10.104  10.487   2.786  0.4396 -0.7689 -0.2316
 8273SOL    HW232060  10.219  10.580   2.758  0.7823 -1.0116  0.3589
 8274SOL     OW32061  10.407  10.124   5.976  0.4165  0.0227 -0.2837
 8274SOL    HW132062  10.459  10.204   5.986 -1.0649  0.8824  0.9024
 8274SOL    HW232063  10.376  10.127   5.886  1.0102  0.3750 -0.4836
 8275SOL     OW32064   2.117   4.493   3.526 -0.4866 -0.1694  0.3577
 8275SOL    HW132065   2.195   4.524   3.572 -1.1852 -0.4807  1.8425
 8275SOL    HW232066   2.107   4.551   3.451 -0.2276  1.4698  1.5518
 8276SOL     OW32067  12.127   5.778   9.885  0.4596  0.2127  0.7102
 8276SOL    HW132068  12.171   5.844   9.830 -1.3362  1.2993  0.5016
 8276SOL    HW232069  12.137   5.810   9.974  0.4598  0.2131  0.7097
 8277SOL     OW32070   6.991   1.464   7.957  0.0729 -0.1940  0.0361
 8277SOL    HW132071   7.013   1.372   7.941  1.2166 -0.1069  0.9663
 8277SOL    HW232072   7.072   1.512   7.942 -0.7517  0.8147 -1.3944
 8278SOL     OW32073   9.405   0.860   9.337 -0.6588 -0.3269 -0.0230
 8278SOL    HW132074   9.325   0.912   9.335 -0.4583  0.0573  1.3053
 8278SOL    HW232075   9.416   0.836   9.429  0.7635 -0.3399 -0.1762
 8279SOL     OW32076  10.743   4.687   1.757 -0.2169  0.1584 -0.6094
 8279SOL    HW132077  10.793   4.630   1.815  0.4877  0.9395 -0.4329
 8279SOL    HW232078  10.694   4.627   1.700  1.2228 -0.6324 -1.0572
 8280SOL     OW32079  12.683   9.864   2.958  0.7882  0.2105  0.4893
 8280SOL    HW132080  12.689   9.776   2.996  1.7628  0.3770  0.7414
 8280SOL    HW232081  12.763   9.908   2.986 -0.8004  2.0557  2.5254
 8281SOL     OW32082  10.486   7.938   1.525 -0.0937 -0.1957  0.0279
 8281SOL    HW132083  10.450   8.020   1.558 -0.3359 -0.6889  1.0530
 8281SOL    HW232084  10.409   7.882   1.510 -0.0802  0.3721 -2.5063
 8282SOL     OW32085  11.318   4.908   7.820 -0.1031 -0.1023 -0.4297
 8282SOL    HW132086  11.362   4.830   7.853  1.0912  1.0469  0.7915
 8282SOL    HW232087  11.351   4.919   7.731  0.6051 -0.3330 -0.1968
 8283SOL     OW32088  12.222  12.166   8.777 -0.2848  0.6482 -0.0745
 8283SOL    HW132089  12.216  12.087   8.723  0.4944  0.0061  0.7514
 8283SOL    HW232090  12.308  12.203   8.755  0.7303 -0.4526  1.7887
 8284SOL     OW32091   6.729   8.857   1.768 -0.1022  0.1626 -0.1728
 8284SOL    HW132092   6.732   8.877   1.862 -2.3908 -2.6178  0.6398
 8284SOL    HW232093   6.800   8.795   1.754  0.3355  0.6939 -0.3361
 8285SOL     OW32094  12.039   2.798   3.941 -0.2488  0.5618 -0.6322
 8285SOL    HW132095  12.010   2.708   3.956  1.6855 -0.2169 -1.2389
 8285SOL    HW232096  12.003   2.848   4.015  2.7146 -1.6753  2.6289
 8286SOL     OW32097   0.774   3.552   7.655 -0.0316  0.1037 -0.1981
 8286SOL    HW132098   0.864   3.584   7.656 -0.0959  0.2950 -0.5340
 8286SOL    HW232099   0.760   3.519   7.744  0.5686 -0.4847 -0.3077
 8287SOL     OW32100   8.431   0.699   9.428  0.0343 -0.1399  0.2234
 8287SOL    HW132101   8.419   0.637   9.356 -1.8481 -0.1720  0.5132
 8287SOL    HW232102   8.459   0.780   9.384 -0.8449 -0.2302 -0.5426
 8288SOL     OW32103   1.127   5.393  12.146  0.3341  0.1899 -0.3031
 8288SOL    HW132104   1.197   5.416  12.208  1.2729 -2.0395 -0.4184
 8288SOL    HW232105   1.155   5.308  12.110 -1.1500  0.5095 -2.3452
 8289SOL     OW32106  11.076   2.917   8.733  0.5110  0.3013 -0.1922
 8289SOL    HW132107  11.109   2.954   8.651 -1.2528 -0.1712 -1.1623
 8289SOL    HW232108  11.120   2.832   8.739 -1.8898 -1.2712 -2.5682
 8290SOL     OW32109   1.261   1.844   9.759  0.3932  0.2911 -0.2787
 8290SOL    HW132110   1.260   1.790   9.838  0.1341 -0.1913 -0.6084
 8290SOL    HW232111   1.249   1.933   9.791  1.0590  0.1837  0.2873
 8291SOL     OW32112   5.194   3.750  11.444  0.7286 -0.3780  0.1719
 8291SOL    HW132113   5.140   3.683  11.486  1.4251 -1.0038  0.0882
 8291SOL    HW232114   5.132   3.820  11.422  0.2149 -0.3789  1.5057
 8292SOL     OW32115   5.217   5.914   8.444  0.3287  0.3929 -0.2839
 8292SOL    HW132116   5.213   5.905   8.349  1.1962  0.8778 -0.3800
 8292SOL    HW232117   5.164   5.842   8.477 -1.4595  1.2205 -1.1538
 8293SOL     OW32118   5.378   3.887   7.062 -0.1575  0.4020 -0.2309
 8293SOL    HW132119   5.396   3.847   7.147  1.2851 -0.3221 -0.8404
 8293SOL    HW232120   5.464   3.912   7.028 -0.5669 -0.4122 -1.9880
 8294SOL     OW32121   8.204  12.481   9.798 -0.5706 -0.0000  0.2118
 8294SOL    HW132122   8.225  12.436   9.716 -3.3279 -0.6489 -0.2529
 8294SOL    HW232123   8.221  12.573   9.779  1.7964 -0.4251  0.0007
 8295SOL     OW32124  10.764  12.329   4.857 -0.3775 -0.3778 -0.6530
 8295SOL    HW132125  10.760  12.416   4.897  0.2804 -0.1886 -0.9799
 8295SOL    HW232126  10.840  12.333   4.798  0.9136 -1.8090  0.8369
 8296SOL     OW32127   3.675   7.129   3.571  0.2156  0.2158  0.5632
 8296SOL    HW132128   3.604   7.089   3.521 -0.5110  0.8726  1.0406
 8296SOL    HW232129   3.694   7.066   3.641  0.9814 -0.5332 -0.2991
 8297SOL     OW32130   9.254  10.232   5.087 -0.0658 -0.0428 -0.5473
 8297SOL    HW132131   9.315  10.243   5.014  2.3084 -0.0472  1.3007
 8297SOL    HW232132   9.243  10.137   5.095  0.9427 -0.1314  0.0188
 8298SOL     OW32133   7.801   2.785   2.215  0.6653 -0.1378  0.1271
 8298SOL    HW132134   7.822   2.692   2.222  0.1674 -0.1534  1.7547
 8298SOL    HW232135   7.873   2.829   2.260  2.2178  0.4898 -2.7544
 8299SOL     OW32136   5.743  11.185   1.490 -0.1183 -0.5121  0.4464
 8299SOL    HW132137   5.679  11.121   1.519  0.9140 -1.2200  1.2679
 8299SOL    HW232138   5.802  11.195   1.565  0.9091 -0.1109 -0.3864
 8300SOL     OW32139   5.344   3.881   0.350  0.0823  0.0131 -0.0628
 8300SOL    HW132140   5.412   3.938   0.313  0.4695 -0.0763  0.4918
 8300SOL    HW232141   5.288   3.940   0.400 -0.6434  0.1860 -1.0548
 8301SOL     OW32142   7.208   0.291   3.361 -0.5724  0.0164  0.4350
 8301SOL    HW132143   7.239   0.314   3.273 -1.7471 -1.3064 -0.3578
 8301SOL    HW232144   7.232   0.199   3.372  0.0850  0.3244  1.7573
 8302SOL     OW32145   6.033  12.068   9.642 -0.6235 -0.4004  0.2239
 8302SOL    HW132146   6.100  12.135   9.657  0.0914 -1.6414  3.3293
 8302SOL    HW232147   5.981  12.068   9.722 -2.2438 -1.7969 -0.7595
 8303SOL     OW32148   6.889   6.016  12.553 -0.1986  0.3317 -0.0268
 8303SOL    HW132149   6.798   6.020  12.581  0.0491  2.8199  0.7249
 8303SOL    HW232150   6.913   6.108  12.537  1.8760 -0.3483 -1.2131
 8304SOL     OW32151  12.408   6.559   5.715  0.2144 -0.2589 -0.4597
 8304SOL    HW132152  12.438   6.649   5.703  1.2156 -0.5976 -0.5363
 8304SOL    HW232153  12.488   6.507   5.724 -0.3575 -0.8426  1.9328
 8305SOL     OW32154   0.378   6.602   2.694 -0.0448  0.1318  0.0766
 8305SOL    HW132155   0.443   6.641   2.636 -0.7956  1.0963 -0.1250
 8305SOL    HW232156   0.327   6.544   2.637 -0.3855  0.5998 -0.0896
 8306SOL     OW32157  12.288   2.264   8.167 -0.3240 -0.3082 -0.3699
 8306SOL    HW132158  12.210   2.228   8.123  0.4852 -0.9810 -1.2804
 8306SOL    HW232159  12.344   2.294   8.096  0.5060 -0.3428  0.2565
 8307SOL     OW32160   3.873  10.278  12.508 -0.0080  0.5391  0.4957
 8307SOL    HW132161   3.919  10.359  12.483 -1.5468  1.5221  0.7208
 8307SOL    HW232162   3.784  10.307  12.530 -1.1824 -1.4837 -1.2717
 8308SOL     OW32163   9.732  10.829  11.393 -0.2169  0.2331  0.7079
 8308SOL    HW132164   9.644  10.855  11.367 -0.0925  1.6074  1.5732
 8308SOL    HW232165   9.788  10.858  11.320 -0.3751  0.1054  0.5338
 8309SOL     OW32166  12.018   0.753  11.006  0.2073  0.4767  0.1055
 8309SOL    HW132167  12.101   0.757  11.054  1.3633 -0.3231 -1.7218
 8309SOL    HW232168  12.019   0.830  10.950  0.3275 -0.1700 -0.8129
 8310SOL     OW32169   3.952   1.381   3.541  0.3277 -0.2795  0.4758
 8310SOL    HW132170   3.944   1.357   3.449 -0.6778 -0.2851  0.5467
 8310SOL    HW232171   3.946   1.477   3.541 -0.2974 -0.3150  0.5816
 8311SOL     OW32172  11.842  10.993   1.777 -0.0596 -0.1506 -0.8747
 8311SOL    HW132173  11.886  11.045   1.844 -1.4539 -0.3043  0.1883
 8311SOL    HW232174  11.839  10.904   1.811 -1.9205  0.0059 -0.4968
 8312SOL     OW32175   8.256   0.671   5.414  0.0164  0.2737 -0.7165
 8312SOL    HW132176   8.198   0.626   5.353  1.6725 -0.4874 -1.8212
 8312SOL    HW232177   8.254   0.762   5.385 -0.8814  0.3269 -0.5119
 8313SOL     OW32178   7.453  12.392   1.721 -0.0829 -0.2634  0.6849
 8313SOL    HW132179   7.475  12.450   1.648  0.9824  1.3580  2.2145
 8313SOL    HW232180   7.437  12.307   1.680 -1.7932  1.0689 -1.6687
 8314SOL     OW32181   0.031  10.881  10.659  0.1238  0.3790  0.2220
 8314SOL    HW132182  -0.004  10.806  10.612 -1.7586  0.3744  1.4896
 8314SOL    HW232183  -0.025  10.889  10.736  0.3137  3.0132  0.1884
 8315SOL     OW32184   7.956   0.745   4.753  0.2313  0.3377 -0.8364
 8315SOL    HW132185   8.010   0.728   4.675  1.4786 -0.7153  0.2126
 8315SOL    HW232186   8.006   0.707   4.825 -2.4632 -1.8656  0.0512
 8316SOL     OW32187  10.289   1.371   0.752 -0.4076  0.4486  0.2157
 8316SOL    HW132188  10.244   1.336   0.675  0.7294 -0.2052 -0.1685
 8316SOL    HW232189  10.302   1.296   0.809  1.2888  0.3571 -0.2382
 8317SOL     OW32190  10.208   8.684   8.657 -0.5910  0.3286 -0.5248
 8317SOL    HW132191  10.174   8.600   8.689  0.6527 -0.6187 -1.5736
 8317SOL    HW232192  10.157   8.703   8.579 -0.1978  0.0146 -0.8636
 8318SOL     OW32193   5.064   6.501   0.584  0.1002 -0.1441 -0.2753
 8318SOL    HW132194   5.026   6.451   0.657  0.3632  0.0554 -0.0002
 8318SOL    HW232195   5.112   6.572   0.626 -2.3244  1.8806 -0.6882
 8319SOL     OW32196   3.354   9.666   3.327 -0.4007  0.5539  0.3028
 8319SOL    HW132197   3.271   9.619   3.316  0.5462 -1.0873 -0.2098
 8319SOL    HW232198   3.362   9.679   3.421 -0.8353 -0.0466  0.4292
 8320SOL     OW32199   8.846   0.945   2.591 -0.0969 -0.0064 -0.0896
 8320SOL    HW132200   8.761   0.974   2.560 -1.3818 -1.9679  1.3965
 8320SOL    HW232201   8.897   0.932   2.511 -0.8788  1.9551 -0.9635
 8321SOL     OW32202   0.532   2.710   6.938  0.1867  0.4627 -0.2485
 8321SOL    HW132203   0.625   2.730   6.927  0.9945 -1.2472  2.3509
 8321SOL    HW232204   0.530   2.616   6.959 -2.1759  0.3543 -0.6631
 8322SOL     OW32205   5.657   0.319   7.937 -0.4820 -0.8563 -0.4509
 8322SOL    HW132206   5.621   0.401   7.969 -0.2354 -0.8198 -0.2634
 8322SOL    HW232207   5.585   0.256   7.944 -0.3742 -0.8920  0.3593
 8323SOL     OW32208   1.193   1.421  10.167  0.4336  0.0351  0.2617
 8323SOL    HW132209   1.253   1.353  10.135 -1.4488 -1.9799  0.7829
 8323SOL    HW232210   1.106   1.387  10.148 -0.6117  1.9441  1.3415
 8324SOL     OW32211  10.436   4.312  12.399  0.3835 -0.0188 -0.1149
 8324SOL    HW132212  10.522   4.352  12.404  0.6298 -0.5643  0.0524
 8324SOL    HW232213  10.432   4.253  12.475 -0.9582  1.5901  1.1666
 8325SOL     OW32214   2.872   7.738  10.005  0.3143  0.3686 -0.1738
 8325SOL    HW132215   2.941   7.714   9.942 -0.3064 -0.0482 -0.7149
 8325SOL    HW232216   2.837   7.821   9.973  1.6173  1.4083  0.9973
 8326SOL     OW32217   0.108  12.308   0.371 -0.1631 -0.2128  0.4719
 8326SOL    HW132218   0.072  12.245   0.432  0.3743 -0.5629  0.4344
 8326SOL    HW232219   0.105  12.264   0.286 -4.7247  1.6498 -0.6668
 8327SOL     OW32220   5.080   8.651  10.275 -0.8255 -0.2287  0.6572
 8327SOL    HW132221   5.035   8.573  10.243  0.5819 -1.8411  2.3650
 8327SOL    HW232222   5.094   8.634  10.368  0.0150  1.8508  0.9673
 8328SOL     OW32223   6.469  11.564  10.161  0.0745 -0.3182 -0.1647
 8328SOL    HW132224   6.393  11.506  10.167  0.9954 -1.5330  0.2344
 8328SOL    HW232225   6.517  11.549  10.242  0.7756  0.3696 -0.4416
 8329SOL     OW32226   3.368  11.069   8.277 -0.2682  0.1781  0.7076
 8329SOL    HW132227   3.339  11.003   8.340 -2.5791 -0.6034 -1.0178
 8329SOL    HW232228   3.459  11.085   8.299 -0.4750 -1.3969  3.0654
 8330SOL     OW32229   9.707   4.403   3.444 -0.1079  0.2546  0.5293
 8330SOL    HW132230   9.721   4.386   3.350 -0.3693 -0.2604  0.5801
 8330SOL    HW232231   9.738   4.492   3.457 -0.3449  0.4334 -0.1121
 8331SOL     OW32232   9.692  11.444   5.118 -0.0256 -0.0137  0.3989
 8331SOL    HW132233   9.678  11.438   5.212  0.8008  1.2331  0.6217
 8331SOL    HW232234   9.641  11.522   5.092 -0.1127 -0.2549 -0.1577
 8332SOL     OW32235  10.385   5.590   4.435 -0.7902  0.2929  0.5397
 8332SOL    HW132236  10.380   5.631   4.348  0.5175 -4.1303 -1.9423
 8332SOL    HW232237  10.468   5.623   4.471 -1.5837  2.5783  0.4164
 8333SOL     OW32238   8.489   3.924   4.149  0.5691 -0.1115 -0.2005
 8333SOL    HW132239   8.556   3.872   4.104  1.3005 -0.6938  1.4680
 8333SOL    HW232240   8.516   3.923   4.241  0.4052  2.9561 -0.0305
 8334SOL     OW32241  10.084   9.717  10.267  0.2142 -0.0588  0.8263
 8334SOL    HW132242  10.107   9.786  10.328  0.6992  0.9816 -0.4923
 8334SOL    HW232243  10.153   9.652  10.277  0.9637  0.6777  0.5144
 8335SOL     OW32244   8.314   8.737   1.690 -0.5799  0.8364  0.2325
 8335SOL    HW132245   8.299   8.643   1.704  1.3967  0.4721  0.1583
 8335SOL    HW232246   8.288   8.752   1.599  2.4264 -0.4709 -0.9514
 8336SOL     OW32247   1.215   0.142   3.633  0.8362  0.2660 -0.4027
 8336SOL    HW132248   1.180   0.053   3.641  2.0262 -0.1367  0.6861
 8336SOL    HW232249   1.149   0.198   3.673  0.6287 -0.2855  0.0390
 8337SOL     OW32250   3.312   3.006   9.927 -0.3973  0.0145  0.0996
 8337SOL    HW132251   3.398   2.969   9.909 -0.3058  0.7342 -1.0552
 8337SOL    HW232252   3.271   2.943   9.986  0.0808 -1.4895 -1.0982
 8338SOL     OW32253   1.174   4.361  11.216  0.8958  0.7819  0.3914
 8338SOL    HW132254   1.133   4.378  11.131  1.4037 -1.4588 -0.3671
 8338SOL    HW232255   1.197   4.447  11.250 -1.1041  1.8572 -0.8290
 8339SOL     OW32256   9.081   6.076   0.487 -0.3297  0.4453  0.1841
 8339SOL    HW132257   9.160   6.045   0.444 -0.7340 -0.8295  0.3225
 8339SOL    HW232258   9.014   6.074   0.418 -0.3713  1.0428  0.1958
 8340SOL     OW32259   0.513   5.042   9.580  0.2104 -0.4242  0.3961
 8340SOL    HW132260   0.470   5.035   9.495 -0.1931 -0.3641  0.5877
 8340SOL    HW232261   0.603   5.066   9.560  0.2271 -0.8238 -0.0302
 8341SOL     OW32262   8.582  12.423   4.246 -0.2411  0.5044  0.5912
 8341SOL    HW132263   8.494  12.462   4.240 -0.3731 -0.0313 -1.4961
 8341SOL    HW232264   8.641  12.492   4.216 -0.4327 -0.5712 -2.6323
 8342SOL     OW32265   0.612  10.613  11.953 -0.5088  0.1995 -0.2855
 8342SOL    HW132266   0.595  10.568  11.870  1.0538 -0.8769 -0.0676
 8342SOL    HW232267   0.563  10.563  12.018  0.1490 -0.3981 -0.2383
 8343SOL     OW32268  12.159  12.501   5.624  0.0014  0.4993  0.0690
 8343SOL    HW132269  12.169  12.597   5.625  0.5456  0.4576 -0.4219
 8343SOL    HW232270  12.162  12.479   5.530  0.0350 -0.0103  0.1902
 8344SOL     OW32271   3.554   0.560   0.272  0.3069 -0.2644 -0.5428
 8344SOL    HW132272   3.489   0.545   0.340  1.5008  0.0661  0.7289
 8344SOL    HW232273   3.509   0.539   0.191 -0.7025 -2.3072  0.4576
 8345SOL     OW32274   3.421   6.324   5.426 -0.2339  0.0188  0.0495
 8345SOL    HW132275   3.407   6.273   5.505  0.6425  0.8405  0.7568
 8345SOL    HW232276   3.443   6.259   5.359  1.9990 -0.5049  1.1994
 8346SOL     OW32277   7.138   9.769  11.983 -0.5283  0.4261  0.1453
 8346SOL    HW132278   7.139   9.842  12.045 -0.4259  0.7400 -0.2221
 8346SOL    HW232279   7.053   9.775  11.939  0.0375  1.2014 -0.8972
 8347SOL     OW32280   3.950   0.459  10.155  0.0445  0.1787  0.0019
 8347SOL    HW132281   3.936   0.547  10.190 -1.0512  0.3615 -0.8555
 8347SOL    HW232282   3.914   0.401  10.223 -2.7058  0.5529 -0.9972
 8348SOL     OW32283   7.471  11.999   3.456  0.5454  0.1458 -0.0483
 8348SOL    HW132284   7.408  11.937   3.492  1.1152 -0.3119  0.1625
 8348SOL    HW232285   7.480  12.066   3.524  1.5745 -0.6844  0.6495
 8349SOL     OW32286   6.859   0.558  11.894 -0.1561 -0.5197 -0.0772
 8349SOL    HW132287   6.866   0.566  11.799 -1.1414  1.7138 -0.0277
 8349SOL    HW232288   6.918   0.625  11.928 -1.2942  0.0559  0.8247
 8350SOL     OW32289   9.932   7.970   7.941  0.4085 -0.3858 -0.3968
 8350SOL    HW132290   9.904   7.915   7.867  1.1836  0.8049 -1.6324
 8350SOL    HW232291  10.008   7.924   7.977 -0.1807 -1.1525 -0.1118
 8351SOL     OW32292   5.584   6.279   7.025  0.0209  0.1072 -0.1811
 8351SOL    HW132293   5.546   6.318   7.104  1.5687  0.2117  0.5422
 8351SOL    HW232294   5.524   6.208   7.003 -0.6426  0.3144  0.8682
 8352SOL     OW32295   6.352   8.380   8.050  0.4360 -0.3602 -0.3281
 8352SOL    HW132296   6.381   8.429   7.973  0.3382  0.7258  0.3038
 8352SOL    HW232297   6.423   8.318   8.067  1.7687  1.2588  0.3173
 8353SOL     OW32298   9.943   9.778   0.050  0.3397  0.0163  0.5680
 8353SOL    HW132299  10.025   9.751   0.008  0.2095 -0.8736  0.8678
 8353SOL    HW232300   9.959   9.868   0.078  1.1164 -0.0504  0.3655
 8354SOL     OW32301   8.825   0.159   9.216  0.1405  0.0286 -0.0749
 8354SOL    HW132302   8.838   0.078   9.266  0.3793 -0.6583 -1.2040
 8354SOL    HW232303   8.744   0.144   9.167 -0.2872  0.8378  0.3616
 8355SOL     OW32304   9.413   8.877  10.120  0.5290 -0.3569  0.4827
 8355SOL    HW132305   9.402   8.824  10.199 -0.7727  0.4255  0.8638
 8355SOL    HW232306   9.499   8.852  10.085  0.4219 -1.8761  1.2565
 8356SOL     OW32307  10.331  11.405   1.211  0.9653 -0.3746 -0.4366
 8356SOL    HW132308  10.349  11.374   1.122 -1.9342 -1.9336 -0.6008
 8356SOL    HW232309  10.302  11.496   1.199 -0.3246 -0.8611 -1.2621
 8357SOL     OW32310   1.800   8.157   5.156 -0.1178 -0.1320 -0.1671
 8357SOL    HW132311   1.782   8.153   5.062 -2.0530 -0.5065  0.1713
 8357SOL    HW232312   1.753   8.234   5.186 -0.3801 -0.5912  0.6474
 8358SOL     OW32313  12.567   3.051   9.323 -0.1034 -0.6254 -0.0969
 8358SOL    HW132314  12.630   3.007   9.266 -0.7022  0.1331 -1.3941
 8358SOL    HW232315  12.482   3.032   9.284 -0.5216  0.0139  0.4790
 8359SOL     OW32316   7.336   6.305   2.225 -0.3264 -0.1308  0.1658
 8359SOL    HW132317   7.355   6.223   2.179 -1.1555  0.7051 -1.7877
 8359SOL    HW232318   7.291   6.358   2.160 -0.1662  1.7366  1.5191
 8360SOL     OW32319   7.374   6.820   9.954 -0.0615  0.5934 -0.0658
 8360SOL    HW132320   7.414   6.793  10.037 -1.1950  1.2327  0.7254
 8360SOL    HW232321   7.281   6.801   9.965 -0.3783  1.6461 -0.7821
 8361SOL     OW32322   4.232  12.603   1.839 -0.0354 -0.3617 -0.1255
 8361SOL    HW132323   4.192  12.690   1.850 -0.8884 -0.9420  1.7002
 8361SOL    HW232324   4.181  12.546   1.896  1.7837 -1.6602  0.2776
 8362SOL     OW32325   0.433   3.216   2.864  0.1483  0.2247  0.0239
 8362SOL    HW132326   0.521   3.253   2.853  0.2459  0.2242  0.7089
 8362SOL    HW232327   0.447   3.122   2.869 -0.0608  0.1080 -1.3521
 8363SOL     OW32328   4.721   0.845   6.821  0.0178  0.5608 -0.1066
 8363SOL    HW132329   4.715   0.757   6.858 -0.1862  0.0634 -1.2895
 8363SOL    HW232330   4.762   0.897   6.890  2.2435 -0.9381 -0.1881
 8364SOL     OW32331   9.623   2.733   1.546 -0.4234  0.1409 -0.3729
 8364SOL    HW132332   9.563   2.764   1.478 -1.5590  1.4704  1.1883
 8364SOL    HW232333   9.645   2.811   1.597 -0.5396 -1.0016  1.5188
 8365SOL     OW32334   2.001   8.539   1.518 -0.3465 -0.0551 -0.4240
 8365SOL    HW132335   2.061   8.523   1.445  0.2116 -0.5360  0.1249
 8365SOL    HW232336   2.003   8.457   1.569  0.1205  0.6346  0.7132
 8366SOL     OW32337   3.198   7.150   7.645  0.5612  0.3435  0.0757
 8366SOL    HW132338   3.256   7.102   7.706 -0.2189  1.2062  1.5450
 8366SOL    HW232339   3.197   7.096   7.567  0.0054 -1.8976  1.5324
 8367SOL     OW32340   9.610  10.489   1.304 -0.1171  0.4300 -0.3429
 8367SOL    HW132341   9.587  10.400   1.333  0.4381  0.6142  0.7071
 8367SOL    HW232342   9.541  10.544   1.339  0.1083  0.5453 -0.0762
 8368SOL     OW32343  12.218   6.374   3.614 -0.2152  0.3604  0.2484
 8368SOL    HW132344  12.256   6.294   3.649 -0.2339  0.5261  0.6643
 8368SOL    HW232345  12.140   6.389   3.668 -0.5013  0.3767 -0.1663
 8369SOL     OW32346   9.133   2.086   1.552 -0.1542 -0.1634 -0.6047
 8369SOL    HW132347   9.043   2.065   1.526 -0.6388  0.3672  0.5517
 8369SOL    HW232348   9.184   2.008   1.532 -0.8369 -0.4078 -1.4339
 8370SOL     OW32349   9.581   1.573   6.825  0.6919 -0.6297 -0.0176
 8370SOL    HW132350   9.630   1.625   6.888  0.0863 -0.3126  0.2011
 8370SOL    HW232351   9.639   1.501   6.803  1.0214 -0.5897  0.6903
 8371SOL     OW32352   3.858   2.241   5.940  0.4786  0.1994 -0.5534
 8371SOL    HW132353   3.894   2.152   5.932 -0.6213 -0.2595 -0.6543
 8371SOL    HW232354   3.823   2.260   5.853  1.2024  0.9736 -0.6869
 8372SOL     OW32355   7.980   7.983   0.837  0.0088 -0.1723  0.4001
 8372SOL    HW132356   7.942   8.045   0.900 -2.0617  1.1220 -1.9485
 8372SOL    HW232357   8.072   8.008   0.832 -0.6482  2.4386 -0.0440
 8373SOL     OW32358  12.065   1.163  12.481  0.2844  0.1326  0.2772
 8373SOL    HW132359  12.103   1.080  12.511  2.6658  0.8430 -0.5567
 8373SOL    HW232360  12.108   1.181  12.398 -1.3648  1.4605 -0.3494
 8374SOL     OW32361  11.361   3.271  12.353 -0.2375  0.4026  0.6097
 8374SOL    HW132362  11.293   3.210  12.381 -0.3802 -0.7344 -1.9315
 8374SOL    HW232363  11.434   3.255  12.413 -0.9835 -0.8394  1.2261
 8375SOL     OW32364   0.935   5.491   3.962 -0.4980  0.0322  0.8531
 8375SOL    HW132365   0.991   5.532   4.028  1.0386 -0.2690 -0.2018
 8375SOL    HW232366   0.946   5.397   3.977 -0.7101 -0.0279  0.6360
 8376SOL     OW32367   4.560   6.504  11.352 -0.4047 -0.6921  0.3139
 8376SOL    HW132368   4.605   6.430  11.311  0.7685  0.6521 -0.9393
 8376SOL    HW232369   4.591   6.504  11.442  0.3645 -1.1449  0.0594
 8377SOL     OW32370   8.753   0.978   7.047 -0.3155  0.1664  0.5891
 8377SOL    HW132371   8.839   0.936   7.040  0.1344  0.9615  1.2250
 8377SOL    HW232372   8.770   1.062   7.089 -0.8345  2.0265 -2.5725
 8378SOL     OW32373  10.028   6.118   0.550  0.2875 -0.4502  0.5447
 8378SOL    HW132374  10.011   6.201   0.506 -1.2224 -0.3308  1.3175
 8378SOL    HW232375  10.065   6.062   0.481  0.9061  0.6930 -0.0887
 8379SOL     OW32376   3.045   5.663   4.163  0.4857 -0.0534 -0.8513
 8379SOL    HW132377   3.039   5.756   4.141 -1.1210 -0.2416 -1.3295
 8379SOL    HW232378   2.954   5.634   4.169  0.9615 -1.8406 -1.7108
 8380SOL     OW32379   8.838   1.508   3.564 -0.4528 -0.0447  0.0427
 8380SOL    HW132380   8.860   1.593   3.603 -0.5867 -0.0604  0.1520
 8380SOL    HW232381   8.820   1.529   3.472 -1.1781  0.1543  0.2245
 8381SOL     OW32382   1.323   9.620   0.120 -0.1204 -0.7777  0.2122
 8381SOL    HW132383   1.318   9.527   0.141  1.0789 -0.8665  0.1453
 8381SOL    HW232384   1.416   9.637   0.104 -0.3833  0.3203 -0.2925
 8382SOL     OW32385  11.672   9.930   0.862 -0.1362  0.0601 -0.0410
 8382SOL    HW132386  11.723   9.931   0.780 -1.2863 -1.1655 -0.8097
 8382SOL    HW232387  11.688   9.843   0.899 -1.9329 -0.4954 -0.4975
 8383SOL     OW32388   6.895   3.186   4.413 -0.1029  0.0584 -0.0855
 8383SOL    HW132389   6.898   3.162   4.321 -1.7675  0.6370 -0.3382
 8383SOL    HW232390   6.815   3.238   4.421 -0.9296 -1.4030  2.0218
 8384SOL     OW32391   6.040   1.774   5.475  0.7011 -0.2643 -0.2385
 8384SOL    HW132392   5.960   1.799   5.523  1.6026  1.7234  0.3466
 8384SOL    HW232393   6.078   1.704   5.527 -0.2578 -0.7245 -0.1224
 8385SOL     OW32394   0.453   3.538   0.392 -0.1536 -0.1613  0.6702
 8385SOL    HW132395   0.442   3.493   0.308  1.3816 -1.1698  0.9776
 8385SOL    HW232396   0.515   3.609   0.374  1.1638 -1.1451  1.1786
 8386SOL     OW32397   1.663   4.144  10.053 -0.2538  0.3210 -0.1411
 8386SOL    HW132398   1.698   4.096  10.129  0.9326 -0.3199 -1.0447
 8386SOL    HW232399   1.677   4.084   9.980 -0.5003  1.3122 -1.0117
 8387SOL     OW32400   2.195   6.056   5.396 -0.4883  0.1739  0.4715
 8387SOL    HW132401   2.242   6.070   5.314 -0.1833  1.8276  0.8739
 8387SOL    HW232402   2.198   6.142   5.439 -0.6097 -0.6541  2.2155
 8388SOL     OW32403  11.437   7.952  10.192  0.3344 -0.2256  0.2256
 8388SOL    HW132404  11.447   7.860  10.168 -1.1310 -0.4633  0.4164
 8388SOL    HW232405  11.421   7.997  10.109  3.6750  0.3424 -0.2404
 8389SOL     OW32406   0.846   3.632   6.000  0.3980  0.7747  0.0739
 8389SOL    HW132407   0.900   3.570   6.050  0.6409 -1.3842 -2.6046
 8389SOL    HW232408   0.756   3.615   6.029  0.5694 -0.2083  0.0576
 8390SOL     OW32409  12.192   7.459   2.401  0.3667 -0.0086 -0.6327
 8390SOL    HW132410  12.147   7.513   2.336 -1.4881 -1.5206 -0.6995
 8390SOL    HW232411  12.228   7.386   2.350  1.2285  0.1726 -0.2991
 8391SOL     OW32412   7.597   1.694   9.834 -0.3268 -0.1508  0.3706
 8391SOL    HW132413   7.609   1.615   9.780 -0.7537 -0.7083  1.0649
 8391SOL    HW232414   7.684   1.734   9.837 -0.0901 -0.6237  0.0479
 8392SOL     OW32415   6.089  10.962   0.470  0.0024  0.1712 -0.6842
 8392SOL    HW132416   6.179  10.972   0.502 -0.3516  2.0291 -0.1647
 8392SOL    HW232417   6.059  10.880   0.509  0.9168  0.3875  0.5340
 8393SOL     OW32418   6.302   2.663   8.716  0.2237 -0.1976  0.1463
 8393SOL    HW132419   6.342   2.692   8.798  0.2356  0.2476 -0.0139
 8393SOL    HW232420   6.373   2.665   8.652  0.0088  0.3693 -0.0840
 8394SOL     OW32421   9.882   4.469   4.792  0.1661  0.1453  0.2391
 8394SOL    HW132422   9.966   4.436   4.824 -1.2748 -1.6551  2.5863
 8394SOL    HW232423   9.865   4.420   4.712  0.9323 -0.1906  0.2755
 8395SOL     OW32424   1.196  11.018   5.773 -0.2499  0.5303  0.0695
 8395SOL    HW132425   1.245  11.081   5.826 -1.1284  0.1618  1.3654
 8395SOL    HW232426   1.263  10.960   5.736  0.4377  1.2440  0.1729
 8396SOL     OW32427   0.991  11.385   0.642 -0.3236  0.3150  0.2450
 8396SOL    HW132428   0.988  11.313   0.706 -2.5629  0.4837  0.4017
 8396SOL    HW232429   0.986  11.464   0.695 -0.2824  0.5198 -0.0535
 8397SOL     OW32430   0.509   9.030   2.870  0.7079  0.2742  0.4068
 8397SOL    HW132431   0.515   8.957   2.808 -0.8925 -0.3841  0.9861
 8397SOL    HW232432   0.579   9.090   2.843  1.0687 -0.7473 -1.0320
 8398SOL     OW32433   2.171   9.187   0.928  0.0109 -0.3183 -0.3768
 8398SOL    HW132434   2.253   9.216   0.967  0.3616 -1.1225 -0.4812
 8398SOL    HW232435   2.106   9.250   0.958  0.4822 -0.2494  0.5563
 8399SOL     OW32436   1.968  10.980  12.049 -0.1146 -0.4528  0.4085
 8399SOL    HW132437   1.956  10.992  12.144 -1.7630 -1.4396  0.3775
 8399SOL    HW232438   1.882  10.952  12.018  0.9157 -2.2143 -1.0482
 8400SOL     OW32439   9.258   4.830   6.453 -0.0674 -0.0858  0.1049
 8400SOL    HW132440   9.170   4.866   6.463 -0.3385 -0.1695 -1.7216
 8400SOL    HW232441   9.246   4.735   6.454  0.2802 -0.1548  1.8100
 8401SOL     OW32442   6.749   9.830   2.985 -0.2960 -0.6732  0.0221
 8401SOL    HW132443   6.844   9.833   2.981 -0.3253  1.7616 -0.3404
 8401SOL    HW232444   6.723   9.776   2.910  0.7642 -0.5041 -0.4801
 8402SOL     OW32445   3.171  12.612  10.857 -0.3681 -0.2166  0.0964
 8402SOL    HW132446   3.154  12.526  10.818 -2.5049 -0.2090  0.9078
 8402SOL    HW232447   3.200  12.592  10.946 -0.6625 -0.1144  0.2163
 8403SOL     OW32448   6.883   0.210  10.324 -0.1300  0.4257  0.1512
 8403SOL    HW132449   6.917   0.264  10.253 -2.8881 -0.3225 -1.8794
 8403SOL    HW232450   6.895   0.120  10.293  0.4215 -0.0131  1.5509
 8404SOL     OW32451   2.618   7.934   0.115 -0.0461  0.5842 -0.1443
 8404SOL    HW132452   2.577   7.939   0.201  1.7938 -0.6068  0.8890
 8404SOL    HW232453   2.705   7.973   0.128  0.7044 -0.6530 -1.1278
 8405SOL     OW32454   5.722  12.279   1.763  0.1233 -0.2491  0.7670
 8405SOL    HW132455   5.781  12.204   1.755 -2.1646 -2.0157 -1.3227
 8405SOL    HW232456   5.723  12.320   1.676 -0.9706  0.2273  0.9513
 8406SOL     OW32457   3.114   1.593   5.848  0.0973 -0.6223 -0.0365
 8406SOL    HW132458   3.060   1.558   5.778  1.0054 -0.2043 -0.9655
 8406SOL    HW232459   3.187   1.531   5.855  0.5532 -0.1097 -0.1794
 8407SOL     OW32460  12.598   3.827   1.794  0.1534  0.1629 -0.8271
 8407SOL    HW132461  12.509   3.823   1.760  0.1849  0.3073 -0.9256
 8407SOL    HW232462  12.615   3.920   1.807  0.2720  0.1327 -0.7611
 8408SOL     OW32463  12.527   0.424   2.885  0.4285  0.8096  0.1601
 8408SOL    HW132464  12.615   0.412   2.849  0.9892  1.5015  1.2155
 8408SOL    HW232465  12.529   0.513   2.922 -0.4098  0.4885  1.0169
 8409SOL     OW32466   4.431   9.915   0.077 -0.0429 -0.2580 -0.1012
 8409SOL    HW132467   4.500   9.949   0.135  0.3192  0.2848 -0.8402
 8409SOL    HW232468   4.477   9.853   0.020 -0.4225 -0.8836  0.2606
 8410SOL     OW32469   3.509   8.430  10.396  0.1734 -0.1162 -0.2132
 8410SOL    HW132470   3.452   8.369  10.349  0.1345 -2.3897  2.5138
 8410SOL    HW232471   3.576   8.375  10.436  1.1507  1.8476  1.0289
 8411SOL     OW32472   0.504   1.172   2.086  0.3715  0.1035 -0.5514
 8411SOL    HW132473   0.432   1.120   2.122  0.4865  0.9090  0.9039
 8411SOL    HW232474   0.463   1.254   2.059  0.8915  1.0587  1.4148
 8412SOL     OW32475  10.445   3.826   5.190  0.6092 -0.1361 -0.3593
 8412SOL    HW132476  10.424   3.778   5.270  0.9435 -0.7437 -0.6319
 8412SOL    HW232477  10.504   3.768   5.141 -0.3615 -0.2008 -1.4985
 8413SOL     OW32478   7.328  10.897  12.094  0.0202  0.2493  0.0331
 8413SOL    HW132479   7.335  10.857  12.180 -0.3932  0.0089 -0.0429
 8413SOL    HW232480   7.294  10.985  12.111 -0.8028 -0.0639  0.0612
 8414SOL     OW32481   8.047   0.040   5.095 -0.1180  0.3968 -0.6599
 8414SOL    HW132482   7.994  -0.039   5.108 -1.0544  1.2039  0.7652
 8414SOL    HW232483   8.001   0.108   5.145  1.0793  1.6637 -1.2152
 8415SOL     OW32484   3.675   8.811   6.525  0.1422 -0.3036  0.2337
 8415SOL    HW132485   3.753   8.810   6.581  0.9845  1.2880 -0.8438
 8415SOL    HW232486   3.612   8.866   6.572  0.0772 -0.6463  0.5565
 8416SOL     OW32487   9.100   3.086   8.914 -0.2733 -0.2274  0.5355
 8416SOL    HW132488   9.040   3.038   8.857 -0.3548 -0.0357  0.4585
 8416SOL    HW232489   9.173   3.026   8.929  0.5052  0.2936 -1.0507
 8417SOL     OW32490   1.590   8.692   2.667 -0.0657 -0.1558  0.6073
 8417SOL    HW132491   1.536   8.616   2.648 -0.4263  0.4010 -0.7229
 8417SOL    HW232492   1.591   8.698   2.762 -0.3048 -1.6136  0.7247
 8418SOL     OW32493  11.531   1.452   3.423 -0.3224  0.3159  0.1359
 8418SOL    HW132494  11.578   1.533   3.444  0.6146  0.6193 -2.7240
 8418SOL    HW232495  11.473   1.438   3.498  1.5634  2.0220  2.0608
 8419SOL     OW32496   2.027  10.388  11.790 -0.4232 -0.0257  0.0332
 8419SOL    HW132497   2.101  10.356  11.738 -0.4610  1.0319 -0.6929
 8419SOL    HW232498   2.036  10.483  11.789 -0.9665  0.0456  1.1832
 8420SOL     OW32499   9.355  10.744   8.392 -0.5579  0.4030 -0.6059
 8420SOL    HW132500   9.313  10.702   8.467 -1.3654  0.0661 -1.2345
 8420SOL    HW232501   9.285  10.793   8.350 -0.2915 -0.0126 -1.5599
 8421SOL     OW32502  11.655   1.775   3.959  0.3642  0.0383 -0.0093
 8421SOL    HW132503  11.656   1.870   3.956  2.5282  0.0913  0.7135
 8421SOL    HW232504  11.700   1.753   4.041 -0.4735 -1.5983  0.0441
 8422SOL     OW32505   9.775   2.578   6.522 -0.1540  0.1773 -0.1215
 8422SOL    HW132506   9.782   2.655   6.466  0.2124  0.2524  0.0296
 8422SOL    HW232507   9.863   2.564   6.555 -0.2420 -0.2441 -0.0627
 8423SOL     OW32508   9.493   7.056  11.867  0.2959 -0.5678 -0.2078
 8423SOL    HW132509   9.440   7.114  11.922  0.1684 -1.0729  0.2095
 8423SOL    HW232510   9.541   7.115  11.809 -0.4724 -0.0811 -0.3689
 8424SOL     OW32511   0.966   3.382  11.395 -0.4856  0.1355 -0.3547
 8424SOL    HW132512   0.998   3.403  11.482  0.9611  2.2798 -1.3070
 8424SOL    HW232513   0.997   3.293  11.378  1.4847  0.6480  0.3429
 8425SOL     OW32514  10.818  11.602  10.630 -0.3105  0.2987  0.1680
 8425SOL    HW132515  10.867  11.665  10.683 -0.9497 -0.5203  1.8034
 8425SOL    HW232516  10.869  11.521  10.637 -0.6711  0.0494 -0.0557
 8426SOL     OW32517   2.161   6.381  11.984  0.0725 -0.2286  0.2138
 8426SOL    HW132518   2.135   6.471  12.007  2.4037  0.4959  0.2501
 8426SOL    HW232519   2.231   6.393  11.920  0.1282 -2.0539 -0.0947
 8427SOL     OW32520   9.063   4.086   8.980  0.4774  0.3366  0.1955
 8427SOL    HW132521   9.108   4.077   8.896  0.4654  2.7107 -0.1536
 8427SOL    HW232522   9.120   4.145   9.031  0.2884 -0.7368  1.7222
 8428SOL     OW32523   0.678   1.449   6.701 -0.3685  0.2398  0.0965
 8428SOL    HW132524   0.607   1.485   6.648 -1.3396  0.9271  1.7710
 8428SOL    HW232525   0.658   1.356   6.709 -0.6505  0.2839 -0.1001
 8429SOL     OW32526   8.941   8.409   7.696  0.5467 -0.3082 -0.0751
 8429SOL    HW132527   9.035   8.392   7.702  0.5992  0.4795  1.8591
 8429SOL    HW232528   8.934   8.501   7.668  0.3678 -0.1274  0.5491
 8430SOL     OW32529   7.754   3.125   8.951 -0.2097  0.4033 -0.1929
 8430SOL    HW132530   7.850   3.123   8.942 -0.2196  0.2950 -0.2777
 8430SOL    HW232531   7.729   3.209   8.912 -0.2234  0.0637 -0.9215
 8431SOL     OW32532   6.660  10.176   3.166  0.4470  0.2977  0.2590
 8431SOL    HW132533   6.615  10.114   3.109  1.6466 -0.9265  0.5853
 8431SOL    HW232534   6.605  10.254   3.166  0.6153  0.5312 -2.9210
 8432SOL     OW32535   6.753  12.389  11.425  0.0219  0.0853 -0.1382
 8432SOL    HW132536   6.725  12.417  11.338 -1.6923  1.7429  0.8970
 8432SOL    HW232537   6.848  12.377  11.416 -0.1885 -0.4119 -2.3722
 8433SOL     OW32538   4.703   6.281   1.996  0.0911 -0.1261 -0.1817
 8433SOL    HW132539   4.653   6.283   2.078  1.6253  2.0871  0.8034
 8433SOL    HW232540   4.662   6.348   1.941  1.0748  0.7417  0.1095
 8434SOL     OW32541   4.004   4.918   5.677  0.1945 -0.6936 -0.6566
 8434SOL    HW132542   4.067   4.924   5.748 -0.4198 -2.0470  0.0450
 8434SOL    HW232543   3.936   4.859   5.710 -1.2233  0.3626 -1.5460
 8435SOL     OW32544  11.384  10.579   6.169  0.1827  0.0282  0.2368
 8435SOL    HW132545  11.337  10.521   6.228 -2.6897  1.0492 -0.9080
 8435SOL    HW232546  11.316  10.629   6.124  2.3767  1.6151 -1.5604
 8436SOL     OW32547   0.822   3.217  10.901 -0.3204 -0.3397 -0.0879
 8436SOL    HW132548   0.885   3.157  10.941  1.4049  1.1661 -0.3837
 8436SOL    HW232549   0.778   3.164  10.835 -1.1474 -2.0867  1.7636
 8437SOL     OW32550   5.864   6.076   0.857 -0.2417  0.1054 -0.3607
 8437SOL    HW132551   5.824   6.044   0.937  0.0982 -1.1509 -0.6613
 8437SOL    HW232552   5.958   6.061   0.869  0.1593  2.5070  0.1144
 8438SOL     OW32553   9.405   6.590  12.366  0.4646  0.1136  0.3097
 8438SOL    HW132554   9.397   6.684  12.351  0.0769  0.2252  1.2001
 8438SOL    HW232555   9.491   6.567  12.328 -0.6764  0.2320 -2.6382
 8439SOL     OW32556   5.408   4.598   4.888 -0.2744  0.4317  0.0645
 8439SOL    HW132557   5.410   4.549   4.806  0.3873 -2.1212  1.4705
 8439SOL    HW232558   5.350   4.547   4.945 -0.1417  1.7128  1.4149
 8440SOL     OW32559   8.912   2.712   2.229  0.1792 -0.0568 -0.3196
 8440SOL    HW132560   8.953   2.797   2.243  2.1834 -1.1132  0.5962
 8440SOL    HW232561   8.979   2.659   2.188 -0.6498 -1.5322  0.1519
 8441SOL     OW32562   6.736   8.046  11.007 -0.0079 -0.2356  0.5015
 8441SOL    HW132563   6.650   8.086  10.997  0.4832  0.7759  0.1746
 8441SOL    HW232564   6.727   7.988  11.083 -1.4491 -1.5393 -0.5943
 8442SOL     OW32565   1.234  10.923   9.824  0.1400  0.1301 -0.0132
 8442SOL    HW132566   1.324  10.944   9.846 -0.0899  0.1178  1.0040
 8442SOL    HW232567   1.184  11.001   9.848 -0.2381 -0.2220  0.3900
 8443SOL     OW32568   2.425   7.202   2.090 -0.5765  0.5214  0.0144
 8443SOL    HW132569   2.361   7.159   2.034 -0.5492  1.2636 -0.6017
 8443SOL    HW232570   2.480   7.251   2.030  1.9202 -1.7055  0.2660
 8444SOL     OW32571   0.720  12.017  12.126  0.0310  0.0888  0.1394
 8444SOL    HW132572   0.787  12.065  12.175  1.6760 -1.1926 -0.7647
 8444SOL    HW232573   0.677  11.963  12.192  0.4551  0.3021  0.5994
 8445SOL     OW32574   4.523   7.881   2.824 -0.6345 -0.2097  0.1151
 8445SOL    HW132575   4.441   7.930   2.812 -0.8379 -0.8084 -1.0465
 8445SOL    HW232576   4.591   7.948   2.823 -0.8921  0.0606 -1.6688
 8446SOL     OW32577   1.995   5.645  10.700 -0.9554 -0.3523 -0.5144
 8446SOL    HW132578   1.936   5.604  10.637 -1.6124 -1.3120  0.6897
 8446SOL    HW232579   1.949   5.640  10.784  0.1101  0.4441  0.1487
 8447SOL     OW32580   2.020   4.764   9.615 -0.2245 -0.3870  0.2492
 8447SOL    HW132581   1.978   4.716   9.686  0.1229  0.5516  1.1187
 8447SOL    HW232582   1.947   4.796   9.562 -0.4935 -0.9330  0.2804
 8448SOL     OW32583   8.807   5.087   8.077 -0.5102  0.6443  0.5458
 8448SOL    HW132584   8.850   5.033   8.144 -1.1316 -2.3888 -1.2876
 8448SOL    HW232585   8.752   5.147   8.126  0.1976 -0.4176  2.7897
 8449SOL     OW32586  10.343   4.244   4.425 -1.2263 -0.5088 -0.1698
 8449SOL    HW132587  10.410   4.302   4.461 -1.0590  0.8363 -2.4364
 8449SOL    HW232588  10.272   4.247   4.490  0.9717 -2.3745  2.5320
 8450SOL     OW32589   3.245   0.780   2.741 -0.1725 -0.5576 -0.1418
 8450SOL    HW132590   3.217   0.733   2.819 -0.3226 -0.7090 -0.2850
 8450SOL    HW232591   3.336   0.802   2.758  0.8522 -3.4468 -1.2468
 8451SOL     OW32592  12.050   8.900   1.395 -0.1200 -0.4946 -0.7179
 8451SOL    HW132593  12.021   8.964   1.459  1.4683 -1.1913  0.7838
 8451SOL    HW232594  12.054   8.948   1.312 -0.5151  0.8853  0.0401
 8452SOL     OW32595   6.256  12.260  10.223  0.3803  0.6480  0.2210
 8452SOL    HW132596   6.211  12.181  10.193 -1.7841  1.4866  1.0713
 8452SOL    HW232597   6.346  12.232  10.238  0.4763 -0.8783 -2.5636
 8453SOL     OW32598   4.122   3.986   9.240 -0.5979  1.0408 -0.4494
 8453SOL    HW132599   4.066   3.925   9.192  0.7716  0.2498 -1.0844
 8453SOL    HW232600   4.122   3.953   9.330 -1.3248  1.1976 -0.3820
 8454SOL     OW32601  10.061  10.329   8.003 -0.3528  0.6307  0.1667
 8454SOL    HW132602  10.080  10.367   8.089  1.8375 -0.6645  0.3515
 8454SOL    HW232603  10.090  10.396   7.941  0.3494  0.6117  0.4627
 8455SOL     OW32604   6.268   4.980   9.469 -0.6717  0.0791 -0.0363
 8455SOL    HW132605   6.292   5.042   9.538  1.0433 -0.3703 -0.1802
 8455SOL    HW232606   6.326   4.905   9.483 -1.7740 -0.9266 -0.6830
 8456SOL     OW32607   0.654  10.778   3.067  0.4892  0.3232  0.5753
 8456SOL    HW132608   0.734  10.829   3.080  0.5414  0.7457 -1.1344
 8456SOL    HW232609   0.584  10.844   3.067  0.5602  0.4720 -1.6590
 8457SOL     OW32610   0.978   8.299   4.634  0.5610  0.2331  0.1638
 8457SOL    HW132611   1.056   8.283   4.688  1.3424  0.7657 -0.7838
 8457SOL    HW232612   0.940   8.379   4.670  0.1384 -0.3178  0.9678
 8458SOL     OW32613   2.234   6.153   2.464  0.7234 -0.5233 -0.1604
 8458SOL    HW132614   2.200   6.080   2.411 -0.4086  0.4395 -0.8156
 8458SOL    HW232615   2.251   6.114   2.549  1.1966 -1.8012 -0.8078
 8459SOL     OW32616   4.428   4.250   2.861  0.2421 -0.2500  0.1213
 8459SOL    HW132617   4.465   4.162   2.875 -0.8623 -0.7616 -0.0316
 8459SOL    HW232618   4.365   4.261   2.933  0.6217  0.5659  0.3366
 8460SOL     OW32619   3.105   5.823   2.902  0.0703 -0.1145 -0.1028
 8460SOL    HW132620   3.045   5.780   2.841  1.4475 -0.0477 -1.5732
 8460SOL    HW232621   3.084   5.785   2.987 -0.0974 -2.2525 -1.0350
 8461SOL     OW32622  10.528   4.455   4.297 -0.0261  0.0403 -0.6066
 8461SOL    HW132623  10.439   4.490   4.298 -0.4126 -0.9275  0.6995
 8461SOL    HW232624  10.578   4.514   4.352 -0.5799 -1.1060  1.2248
 8462SOL     OW32625   1.804   6.009  10.528 -0.2728 -0.2095 -0.1375
 8462SOL    HW132626   1.895   5.984  10.544 -0.2666 -0.0185  0.1212
 8462SOL    HW232627   1.755   5.928  10.539  0.0336 -0.6696 -1.8067
 8463SOL     OW32628   7.351   2.849   3.956 -0.7347  0.3737 -0.3598
 8463SOL    HW132629   7.374   2.855   3.863 -1.4201  1.4791 -0.4836
 8463SOL    HW232630   7.286   2.779   3.960 -0.6478  0.2714 -0.7050
 8464SOL     OW32631   8.916  12.247   0.612 -0.1703  0.3578  0.4865
 8464SOL    HW132632   8.835  12.235   0.661 -0.0245 -0.9372  0.4406
 8464SOL    HW232633   8.958  12.322   0.653  0.3673 -1.1751  2.9634
 8465SOL     OW32634   8.932   7.977   6.391 -0.4456  0.3907 -0.3020
 8465SOL    HW132635   9.001   7.931   6.438 -1.7707 -0.2663  1.0772
 8465SOL    HW232636   8.922   7.929   6.309  0.6441  0.4493 -0.4834
 8466SOL     OW32637   9.589  11.493   8.183  0.3034 -0.0409 -0.2589
 8466SOL    HW132638   9.623  11.536   8.261  0.0049 -1.3478  0.6116
 8466SOL    HW232639   9.565  11.565   8.125 -1.9678  1.1086  1.8968
 8467SOL     OW32640   7.679  11.045   3.528 -0.1264 -0.1141 -0.7681
 8467SOL    HW132641   7.606  11.035   3.589  1.2337 -0.4510  0.8903
 8467SOL    HW232642   7.722  11.126   3.555  0.3551 -0.1254 -1.4611
 8468SOL     OW32643  10.376   9.600   6.125 -0.0300  0.1298 -0.3926
 8468SOL    HW132644  10.405   9.523   6.076 -0.7346 -1.6998  1.8970
 8468SOL    HW232645  10.407   9.674   6.073  0.5667 -1.6560 -2.7759
 8469SOL     OW32646   6.673   4.432   4.132 -0.2435  0.2858 -0.0027
 8469SOL    HW132647   6.720   4.355   4.100 -0.6350  0.1294 -0.2055
 8469SOL    HW232648   6.582   4.417   4.106 -0.6280  0.0312  1.3699
 8470SOL     OW32649   4.663   1.695  10.820 -0.1764 -0.1834  0.2882
 8470SOL    HW132650   4.680   1.783  10.853 -0.0196 -0.6698  1.5870
 8470SOL    HW232651   4.570   1.680  10.838  0.0543 -0.6848  1.1217
 8471SOL     OW32652   1.659  11.351   1.221  0.7260  0.1999  0.1454
 8471SOL    HW132653   1.676  11.275   1.276 -0.5732  0.4221  0.8859
 8471SOL    HW232654   1.593  11.322   1.158  0.5147  0.5872  0.1807
 8472SOL     OW32655   1.704   4.898   5.639 -0.5502 -0.5509 -0.1345
 8472SOL    HW132656   1.736   4.912   5.549  1.6381 -1.1812  0.4683
 8472SOL    HW232657   1.775   4.849   5.681 -1.8144 -0.8307  1.7670
 8473SOL     OW32658   5.199  11.662   2.819  0.3907 -0.6800 -0.1872
 8473SOL    HW132659   5.145  11.670   2.898  1.2568  0.3145  0.3198
 8473SOL    HW232660   5.154  11.595   2.767 -0.5509 -0.8924  0.8493
 8474SOL     OW32661   8.701   3.433   5.567 -0.2624 -0.1035  0.1676
 8474SOL    HW132662   8.794   3.438   5.547 -0.0345 -0.0921  1.1793
 8474SOL    HW232663   8.677   3.520   5.598 -0.3059 -0.4439  1.1247
 8475SOL     OW32664   0.346   4.506   4.168 -0.3777 -1.2812 -0.9341
 8475SOL    HW132665   0.270   4.473   4.120  0.5796 -1.8597 -2.1091
 8475SOL    HW232666   0.409   4.531   4.100  1.3266 -2.8167 -0.0188
 8476SOL     OW32667   7.356   1.291   7.083  0.1408 -0.9013 -0.2455
 8476SOL    HW132668   7.429   1.347   7.057 -0.4229  0.8496  1.6721
 8476SOL    HW232669   7.323   1.331   7.163 -1.0932 -3.3311  0.5429
 8477SOL     OW32670   3.949   5.985   7.651 -0.1033 -0.0524  0.5264
 8477SOL    HW132671   3.946   5.950   7.740 -1.2267  0.2471  0.6224
 8477SOL    HW232672   3.898   6.066   7.655 -0.9089 -0.4771 -0.5706
 8478SOL     OW32673   8.227   2.229  12.374 -0.1551  0.0533 -0.0202
 8478SOL    HW132674   8.179   2.209  12.454  1.0642 -0.3721  0.6372
 8478SOL    HW232675   8.276   2.149  12.355  0.4248  0.5294 -0.5603
 8479SOL     OW32676  12.417   5.496   1.423  0.5873 -0.2914 -0.0374
 8479SOL    HW132677  12.486   5.466   1.363  0.3666  0.8008 -0.8623
 8479SOL    HW232678  12.341   5.443   1.399  0.2047  0.8596 -1.4732
 8480SOL     OW32679   2.491   3.113  12.458 -0.1832 -0.4415  0.9731
 8480SOL    HW132680   2.586   3.113  12.470  0.0817  0.4255 -0.8963
 8480SOL    HW232681   2.457   3.160  12.535  1.1763  2.2908  0.0187
 8481SOL     OW32682   2.059  10.285  12.066 -0.5575  0.5887 -0.3924
 8481SOL    HW132683   2.020  10.198  12.064 -0.2499  0.3561  1.7731
 8481SOL    HW232684   2.048  10.318  11.977 -2.7486 -0.7374 -0.6738
 8482SOL     OW32685   9.327   4.144   1.253  0.5516  0.1059 -1.3388
 8482SOL    HW132686   9.259   4.091   1.212 -1.3826  2.1875 -0.9790
 8482SOL    HW232687   9.344   4.214   1.190  2.1226 -0.1488 -1.2378
 8483SOL     OW32688  11.266   2.982  12.217 -0.2809  0.2136 -0.2923
 8483SOL    HW132689  11.218   2.907  12.253 -0.9870  0.9244  0.2842
 8483SOL    HW232690  11.346   2.986  12.269 -0.2054 -0.1743 -0.3707
 8484SOL     OW32691   6.024   7.861   4.793  0.2534 -0.0494  0.1695
 8484SOL    HW132692   6.048   7.769   4.784 -0.5073 -0.3433  0.9919
 8484SOL    HW232693   6.051   7.884   4.882  1.4662  0.8590 -0.3998
 8485SOL     OW32694  11.979  10.030   2.085 -0.5811  0.1187 -0.2218
 8485SOL    HW132695  12.074  10.019   2.090 -0.2726  1.1781 -2.3910
 8485SOL    HW232696  11.944   9.965   2.146  1.5323  0.0002  0.9666
 8486SOL     OW32697  12.613   3.848   5.404  0.1997 -0.0927  0.1421
 8486SOL    HW132698  12.704   3.841   5.377 -0.3012 -0.9331 -1.5075
 8486SOL    HW232699  12.594   3.764   5.446  0.2356  0.1747  0.7049
 8487SOL     OW32700  10.364   4.465   5.623 -0.1083 -0.1550 -0.2867
 8487SOL    HW132701  10.431   4.531   5.641  0.1193 -0.6276  0.6329
 8487SOL    HW232702  10.288   4.493   5.675  0.2570 -1.0437  0.7545
 8488SOL     OW32703   3.181   9.410  12.691  0.8507  0.4392 -0.2796
 8488SOL    HW132704   3.168   9.393  12.784 -0.8971  1.6159 -0.2603
 8488SOL    HW232705   3.272   9.385  12.674  1.6864  1.6316  2.0823
 8489SOL     OW32706   5.123   4.345   4.493  0.5166 -0.2845 -0.7501
 8489SOL    HW132707   5.126   4.438   4.473 -0.6662 -0.4360 -1.7625
 8489SOL    HW232708   5.215   4.317   4.491  0.7358  0.4453 -2.5720
 8490SOL     OW32709   7.890  11.822   9.519 -0.4103 -0.3667 -0.0381
 8490SOL    HW132710   7.835  11.745   9.505 -0.6487 -0.4437  1.2277
 8490SOL    HW232711   7.967  11.789   9.564 -2.1879  0.5439  4.1771
 8491SOL     OW32712   6.326   1.687  10.398 -0.2384 -0.3525  0.3934
 8491SOL    HW132713   6.278   1.663  10.478  0.4764 -1.2323  0.5858
 8491SOL    HW232714   6.415   1.702  10.429  0.0379 -0.6817 -0.2396
 8492SOL     OW32715   6.965   4.906   5.818 -0.1467 -0.2628 -0.4758
 8492SOL    HW132716   7.029   4.853   5.865 -2.3384  0.1301  3.3085
 8492SOL    HW232717   7.005   4.992   5.812  0.2773 -0.3720  0.5591
 8493SOL     OW32718  10.578   5.133   0.057  0.0487 -0.1629  0.1181
 8493SOL    HW132719  10.493   5.128   0.101  0.2650 -2.0363  0.3871
 8493SOL    HW232720  10.623   5.053   0.083  1.5753  0.4023 -0.6995
 8494SOL     OW32721   2.655   1.836  12.390  0.3421  0.6074  0.2521
 8494SOL    HW132722   2.631   1.754  12.347  0.4838  0.0263  1.2496
 8494SOL    HW232723   2.685   1.810  12.477 -0.2630  1.7784  0.8400
 8495SOL     OW32724   0.860  12.548   8.001  0.2178  0.0212 -0.0123
 8495SOL    HW132725   0.918  12.567   8.074 -0.4905 -1.4010  0.9546
 8495SOL    HW232726   0.778  12.593   8.023 -0.0738 -0.6065  0.1863
 8496SOL     OW32727   2.198   9.791  12.160 -0.3964  0.3234 -0.2382
 8496SOL    HW132728   2.259   9.792  12.086 -1.2765  0.1492 -0.9747
 8496SOL    HW232729   2.155   9.705  12.156 -1.5145  0.8753 -0.4133
 8497SOL     OW32730   0.150   6.437   7.546  0.0122  0.9585 -0.1738
 8497SOL    HW132731   0.176   6.452   7.455 -0.2825  0.8939 -0.2718
 8497SOL    HW232732   0.228   6.458   7.597 -0.1787  2.1968 -0.3492
 8498SOL     OW32733   3.238   8.442   4.657  0.2474  0.4794  1.0139
 8498SOL    HW132734   3.328   8.446   4.691 -0.0768 -1.0694  2.1478
 8498SOL    HW232735   3.184   8.475   4.729 -0.1974  0.2284  0.7940
 8499SOL     OW32736   9.518   1.331   2.470 -0.6384  0.4107  0.1624
 8499SOL    HW132737   9.519   1.297   2.380  2.9048  1.4164 -0.3206
 8499SOL    HW232738   9.471   1.414   2.464 -1.1946  0.0537 -0.5683
 8500SOL     OW32739   1.658  10.219   4.488  0.2542  0.6538 -0.7701
 8500SOL    HW132740   1.648  10.312   4.468  1.8012  0.9908 -0.1115
 8500SOL    HW232741   1.618  10.208   4.574  0.4466  0.8113 -0.6592
 8501SOL     OW32742   4.373   0.347   2.292 -0.1584 -0.4746  0.3875
 8501SOL    HW132743   4.337   0.262   2.267 -1.0301 -0.3283  1.1020
 8501SOL    HW232744   4.431   0.371   2.220 -1.8037 -0.5424 -1.0317
 8502SOL     OW32745   3.693   5.226   9.962 -0.2002 -0.5268 -0.4572
 8502SOL    HW132746   3.638   5.301   9.937  1.2482  0.7836  0.1197
 8502SOL    HW232747   3.705   5.235  10.056  0.1006 -1.4351 -0.3987
 8503SOL     OW32748   0.483   6.867   3.113  0.0868  0.0485  0.3952
 8503SOL    HW132749   0.544   6.867   3.187  0.0139  0.6429  0.4604
 8503SOL    HW232750   0.498   6.783   3.070  0.4790 -0.0952  0.7998
 8504SOL     OW32751   7.191   8.670   9.744 -0.0222  0.2939  0.0711
 8504SOL    HW132752   7.233   8.595   9.702  2.1477  0.8307  1.1394
 8504SOL    HW232753   7.142   8.712   9.674 -0.0404 -1.2547 -0.8927
 8505SOL     OW32754   0.072   2.964   8.920  0.0586 -0.4397 -0.1866
 8505SOL    HW132755   0.042   2.957   9.011 -0.9946  0.7050 -0.4081
 8505SOL    HW232756   0.167   2.953   8.925  0.0693  0.0435  1.1234
 8506SOL     OW32757  11.540  11.707   5.717 -0.0917  0.6536 -0.1305
 8506SOL    HW132758  11.581  11.728   5.634  1.1706 -0.6378  0.1284
 8506SOL    HW232759  11.455  11.670   5.693  0.0381  0.7947 -0.8109
 8507SOL     OW32760   6.832   1.812   7.625 -0.1494 -1.0462 -0.6173
 8507SOL    HW132761   6.807   1.725   7.657  2.1597 -0.6314  2.7834
 8507SOL    HW232762   6.922   1.800   7.594 -0.2922 -0.1203 -1.4099
 8508SOL     OW32763   7.420   1.471   9.263 -0.1725  0.2740  0.3910
 8508SOL    HW132764   7.346   1.477   9.323 -1.5112  0.5571 -1.2233
 8508SOL    HW232765   7.381   1.450   9.179  1.6113  0.2804 -0.4797
 8509SOL     OW32766  11.044   3.900   8.355  0.5671 -0.0530  0.3620
 8509SOL    HW132767  11.128   3.938   8.382  0.0602  1.5275 -0.1827
 8509SOL    HW232768  11.043   3.910   8.260 -1.3760  2.5879  0.5513
 8510SOL     OW32769   9.323  12.621   3.282  0.3246  0.3114  0.1750
 8510SOL    HW132770   9.261  12.685   3.316 -0.9629 -1.6186  1.6769
 8510SOL    HW232771   9.362  12.582   3.360  1.1021 -0.7236 -0.6978
 8511SOL     OW32772   1.150   6.889   4.885  0.4080 -0.5248  0.3929
 8511SOL    HW132773   1.074   6.916   4.834  0.6055 -0.8547 -0.0854
 8511SOL    HW232774   1.223   6.892   4.823  0.5566 -1.4789  0.4948
 8512SOL     OW32775  11.357  10.265   6.490  0.1410  0.5685 -0.1129
 8512SOL    HW132776  11.321  10.343   6.447 -1.1755  0.3778  0.5741
 8512SOL    HW232777  11.279  10.217   6.521  0.9374 -0.7889 -0.1336
 8513SOL     OW32778   2.182   4.792   4.151  0.5046 -0.6009 -0.3921
 8513SOL    HW132779   2.225   4.764   4.070  1.5492  0.9717 -0.4181
 8513SOL    HW232780   2.099   4.830   4.122  1.3684  1.0038 -0.8925
 8514SOL     OW32781   2.366   8.721  10.613  0.2950  0.3147  0.0002
 8514SOL    HW132782   2.414   8.663  10.554 -0.0853 -0.9745  0.9200
 8514SOL    HW232783   2.413   8.715  10.696  0.4627  1.6320  0.0137
 8515SOL     OW32784   2.909   7.337  12.209 -0.2351  0.1568  0.2945
 8515SOL    HW132785   2.984   7.348  12.267 -0.9681  3.3674  0.8519
 8515SOL    HW232786   2.947   7.336  12.121  0.6236 -1.0271  0.6574
 8516SOL     OW32787  12.549   0.989   0.288 -0.5716  0.0383 -0.2884
 8516SOL    HW132788  12.588   1.021   0.369 -1.2404  1.4677 -0.4948
 8516SOL    HW232789  12.621   0.987   0.225 -0.7694  2.9602 -0.7595
 8517SOL     OW32790   4.166   6.722   0.765 -0.1080 -0.1177 -0.4355
 8517SOL    HW132791   4.124   6.711   0.850 -0.5846 -0.7849 -0.7457
 8517SOL    HW232792   4.172   6.816   0.753 -1.6130  0.0099 -0.4169
 8518SOL     OW32793   0.235   2.157   7.231 -0.0331 -0.1217 -0.2110
 8518SOL    HW132794   0.207   2.234   7.279  0.0689  0.6740 -1.3950
 8518SOL    HW232795   0.155   2.107   7.217 -0.1800  0.0240  0.1096
 8519SOL     OW32796   4.923   9.271  10.653 -0.3148 -0.6046  0.8127
 8519SOL    HW132797   4.874   9.198  10.691  0.1231 -1.1695  0.3033
 8519SOL    HW232798   4.868   9.303  10.581  0.7866 -2.3514 -0.8918
 8520SOL     OW32799   2.640   8.208   2.387  0.6488 -0.0324  0.0715
 8520SOL    HW132800   2.571   8.270   2.409 -1.5814 -1.3654 -2.6484
 8520SOL    HW232801   2.653   8.158   2.467 -0.6911  1.0028  0.9861
 8521SOL     OW32802  11.275   5.918   7.228  0.4257  0.4064  0.4195
 8521SOL    HW132803  11.291   5.838   7.278  1.1535  0.8076  0.8450
 8521SOL    HW232804  11.354   5.931   7.177 -0.5922 -0.4142 -1.4757
 8522SOL     OW32805  11.014  10.389   3.750  0.4804  0.6658  0.1099
 8522SOL    HW132806  11.105  10.381   3.779  0.3329 -0.2989  0.3346
 8522SOL    HW232807  10.964  10.406   3.830  0.6078  2.6300 -0.1806
 8523SOL     OW32808   7.083   7.902   9.617  0.0323  0.4708 -0.9300
 8523SOL    HW132809   7.174   7.929   9.628  0.2835 -0.5945 -0.2725
 8523SOL    HW232810   7.066   7.915   9.523  1.6832 -1.7010 -1.6163
 8524SOL     OW32811   3.981  10.660   5.281 -0.1839  0.0704 -0.2152
 8524SOL    HW132812   3.933  10.719   5.339  0.0766 -1.2070  1.3903
 8524SOL    HW232813   4.053  10.712   5.246 -0.4794  0.9271  0.4327
 8525SOL     OW32814   9.885   6.531   5.721 -0.1425 -0.2899  0.2699
 8525SOL    HW132815   9.916   6.528   5.811  0.6122 -1.3323 -0.0079
 8525SOL    HW232816   9.853   6.621   5.710 -0.7097 -0.2857  1.7108
 8526SOL     OW32817   0.413   6.169   1.280  0.2788  0.3200 -0.0996
 8526SOL    HW132818   0.433   6.260   1.302  1.8238 -0.2556  1.0382
 8526SOL    HW232819   0.334   6.150   1.330  1.9747 -0.0021  2.7082
 8527SOL     OW32820   7.339   8.007   9.767 -0.4796  0.3012  0.2606
 8527SOL    HW132821   7.396   8.084   9.773  0.5847 -0.4561  0.0322
 8527SOL    HW232822   7.392   7.935   9.800 -1.6206 -0.2785  0.8963
 8528SOL     OW32823   7.711   9.222  11.508  0.8158 -0.5053 -0.3973
 8528SOL    HW132824   7.758   9.228  11.425  1.0612  0.7142 -0.1802
 8528SOL    HW232825   7.644   9.155  11.492 -0.5285  1.1596 -2.2924
 8529SOL     OW32826   5.042   8.540   1.354  0.0780 -0.0595  0.0020
 8529SOL    HW132827   5.137   8.528   1.361  0.1884 -0.9900 -2.1681
 8529SOL    HW232828   5.031   8.632   1.331  0.3980  0.2051  0.8787
 8530SOL     OW32829   8.777  11.829  10.846 -0.1274 -0.1941 -0.4694
 8530SOL    HW132830   8.866  11.860  10.829 -0.1668  0.4603  0.4125
 8530SOL    HW232831   8.786  11.735  10.862  0.3448 -0.2033 -0.7767
 8531SOL     OW32832  11.164  12.231   0.794 -0.1092 -0.2743  0.1822
 8531SOL    HW132833  11.078  12.266   0.818  0.7031  2.2378 -0.3191
 8531SOL    HW232834  11.146  12.177   0.717 -1.1884  0.6394 -0.2400
 8532SOL     OW32835   9.223   9.481   5.807  0.6378  0.6974 -0.7241
 8532SOL    HW132836   9.233   9.508   5.715  0.0394  3.9572  0.0191
 8532SOL    HW232837   9.309   9.495   5.846  0.3170  1.6806 -0.3249
 8533SOL     OW32838   8.591   0.467   9.680  0.6737 -0.0660 -0.5714
 8533SOL    HW132839   8.589   0.461   9.584  0.7942 -1.1809 -0.5129
 8533SOL    HW232840   8.656   0.535   9.698 -0.7233  1.5451 -1.3093
 8534SOL     OW32841   2.753   9.385  10.271  0.8653 -0.0655  0.1313
 8534SOL    HW132842   2.824   9.447  10.288  1.3929 -0.9171  1.1652
 8534SOL    HW232843   2.793   9.299  10.280  0.2104 -0.5867 -1.5933
 8535SOL     OW32844  11.341   2.216   6.644 -0.2793 -0.6038  0.9202
 8535SOL    HW132845  11.272   2.276   6.671 -1.0348 -0.7301 -0.6094
 8535SOL    HW232846  11.416   2.273   6.624 -0.1218 -0.4166  1.9823
 8536SOL     OW32847   3.005   9.716  11.024  0.3163  0.2819 -0.3525
 8536SOL    HW132848   3.084   9.771  11.028 -0.6415  1.6849  0.2863
 8536SOL    HW232849   2.946   9.754  11.090 -1.1180 -0.3626 -1.2144
 8537SOL     OW32850   5.659  11.106  10.588  0.1776  0.6748  0.2819
 8537SOL    HW132851   5.711  11.106  10.508 -0.5031  2.4621 -0.2158
 8537SOL    HW232852   5.699  11.175  10.641 -0.6439  0.9101  0.6067
 8538SOL     OW32853   5.260   8.760   1.160 -0.0749 -0.2732 -0.0754
 8538SOL    HW132854   5.276   8.675   1.201 -0.5191 -1.4377 -2.1398
 8538SOL    HW232855   5.198   8.741   1.089  0.9824  1.4755 -1.5670
 8539SOL     OW32856  10.835  12.157   8.491  0.4196  0.5106 -0.2582
 8539SOL    HW132857  10.923  12.139   8.526  1.2649  1.3306 -1.8457
 8539SOL    HW232858  10.845  12.240   8.443 -0.6847 -0.4342 -2.2454
 8540SOL     OW32859  10.554  12.708  10.762  0.1232 -0.0331  0.3990
 8540SOL    HW132860  10.639  12.669  10.744  0.0985 -0.2389  0.7210
 8540SOL    HW232861  10.547  12.707  10.857 -1.1065 -1.9056  0.3414
 8541SOL     OW32862   9.150   5.575  12.364 -0.5231  0.8764 -0.4237
 8541SOL    HW132863   9.149   5.490  12.408  2.6410  0.6753 -0.4783
 8541SOL    HW232864   9.127   5.555  12.273 -2.1207  0.5020  0.0297
 8542SOL     OW32865   9.903   1.956   3.225 -0.0027 -0.1438  0.4610
 8542SOL    HW132866   9.957   1.876   3.223 -0.3235 -0.3634  0.6534
 8542SOL    HW232867   9.838   1.942   3.156 -0.3233 -0.2314  0.7817
 8543SOL     OW32868   1.248  10.420  11.585  0.0274 -0.2132  0.0374
 8543SOL    HW132869   1.194  10.362  11.638  0.7955 -1.0066 -0.0270
 8543SOL    HW232870   1.308  10.362  11.539 -0.8879  0.3988 -2.0554
 8544SOL     OW32871   6.885   4.733   7.696  0.0853  0.1281 -0.2671
 8544SOL    HW132872   6.797   4.737   7.732  0.7483  0.0565  1.4410
 8544SOL    HW232873   6.872   4.709   7.604 -1.6836  0.6756 -0.1944
 8545SOL     OW32874   7.446   3.270   2.860 -0.0157  0.0144  0.2439
 8545SOL    HW132875   7.456   3.365   2.854  0.6443 -0.0697 -0.0704
 8545SOL    HW232876   7.511   3.243   2.924  0.0736 -0.2686  0.0351
 8546SOL     OW32877  10.614   7.202   7.368  0.3468 -0.4919 -0.3634
 8546SOL    HW132878  10.553   7.129   7.373  0.9818 -0.9931  0.3232
 8546SOL    HW232879  10.581   7.256   7.296 -0.5135 -1.0970 -0.4377
 8547SOL     OW32880   3.339   0.019   1.318 -0.1517  0.1363 -0.3360
 8547SOL    HW132881   3.299   0.008   1.405 -0.3509  0.5365 -0.3733
 8547SOL    HW232882   3.432   0.003   1.333 -0.2013  0.0774 -0.0741
 8548SOL     OW32883   5.705   5.386   4.118  0.5657 -0.3545  0.0902
 8548SOL    HW132884   5.673   5.371   4.207  0.5621  3.6398  0.9229
 8548SOL    HW232885   5.626   5.401   4.066  0.6268 -1.6504 -0.4215
 8549SOL     OW32886   0.925  11.994   9.211 -0.6156 -0.1332  0.6859
 8549SOL    HW132887   0.901  12.083   9.238 -2.4447 -0.7838  1.3741
 8549SOL    HW232888   0.997  11.971   9.270  1.2786  1.5503 -0.8081
 8550SOL     OW32889  11.715   0.137   1.618  0.3072  0.6774  0.6616
 8550SOL    HW132890  11.740   0.197   1.547  0.4035  0.1960  0.2817
 8550SOL    HW232891  11.790   0.079   1.629  0.6567  1.3291  1.8044
 8551SOL     OW32892   5.170   3.936   4.293  0.7558 -0.1096  0.0205
 8551SOL    HW132893   5.248   3.963   4.342  0.9932 -1.4147  0.4127
 8551SOL    HW232894   5.119   4.016   4.282  1.4732  0.5044  1.0159
 8552SOL     OW32895  12.685  11.034   5.811  0.2488 -0.1557 -0.1473
 8552SOL    HW132896  12.687  10.960   5.872 -0.6568 -0.0730  0.0001
 8552SOL    HW232897  12.658  10.995   5.728 -1.1714  0.1364  0.1537
 8553SOL     OW32898  10.959   6.356   0.969 -0.2185  0.4795  0.5421
 8553SOL    HW132899  10.959   6.262   0.948 -0.9876  0.3026  1.2613
 8553SOL    HW232900  10.967   6.359   1.064 -3.6539  0.9792  0.9329
 8554SOL     OW32901  10.424   8.203   8.871 -0.2160  0.0788  0.1479
 8554SOL    HW132902  10.365   8.147   8.921 -1.2481 -0.9119 -2.0367
 8554SOL    HW232903  10.506   8.202   8.921 -0.9276 -1.4583  1.3888
 8555SOL     OW32904   1.122   9.939   5.141  0.3446 -0.2008 -0.2549
 8555SOL    HW132905   1.142   9.963   5.050 -0.5362  1.3459 -0.0764
 8555SOL    HW232906   1.057  10.003   5.168  0.6027 -0.6423  1.4875
 8556SOL     OW32907   0.872   4.153   3.147  0.1091  0.6904  0.3062
 8556SOL    HW132908   0.792   4.107   3.173  0.3283 -0.8987 -1.6147
 8556SOL    HW232909   0.940   4.087   3.151  0.5830  0.9986 -1.8163
 8557SOL     OW32910   5.522   8.076   1.528 -0.2970  0.7661  0.3846
 8557SOL    HW132911   5.516   7.986   1.495 -0.8979  1.1903 -0.7014
 8557SOL    HW232912   5.502   8.131   1.452  1.7264  1.8748  0.5812
 8558SOL     OW32913   5.912   5.772   6.838 -0.0203 -0.1942 -0.0292
 8558SOL    HW132914   5.817   5.776   6.828 -0.0676 -0.5487  0.2599
 8558SOL    HW232915   5.945   5.776   6.748 -0.3585 -1.2845 -0.2219
 8559SOL     OW32916  10.726  11.759   1.768 -0.0933  0.2288  0.5670
 8559SOL    HW132917  10.638  11.758   1.804 -0.4332  3.8093  0.2477
 8559SOL    HW232918  10.784  11.767   1.844  0.0168 -1.8889  0.7609
 8560SOL     OW32919   7.948  10.659   6.492 -0.4323  0.0088 -0.0545
 8560SOL    HW132920   7.976  10.624   6.408 -2.4833 -1.0588 -0.3455
 8560SOL    HW232921   7.854  10.677   6.481 -1.1261 -1.6033  2.4092
 8561SOL     OW32922   5.792   0.329   3.089  0.7851 -0.2220  0.9037
 8561SOL    HW132923   5.760   0.348   3.001  1.4024  2.0103  1.0915
 8561SOL    HW232924   5.831   0.242   3.082 -1.2494 -1.0982 -0.4052
 8562SOL     OW32925   6.119   4.349   4.172  0.3166  0.0273  0.5329
 8562SOL    HW132926   6.159   4.317   4.253  2.2692 -1.1580 -0.7959
 8562SOL    HW232927   6.086   4.270   4.128 -2.1106  0.8078  0.8003
 8563SOL     OW32928   8.993   1.270   0.107 -0.0367 -0.2262 -0.4620
 8563SOL    HW132929   9.020   1.359   0.127  0.8624 -0.7534  0.8852
 8563SOL    HW232930   9.075   1.220   0.106 -0.4089 -0.8574 -2.3150
 8564SOL     OW32931   0.352   7.870   5.406 -0.2192 -0.3335  0.0936
 8564SOL    HW132932   0.306   7.954   5.405 -1.8881 -1.2004  0.6552
 8564SOL    HW232933   0.297   7.813   5.459  1.5467 -1.4368  0.8259
 8565SOL     OW32934   6.908   2.365   0.397  0.0259  0.3236  0.3671
 8565SOL    HW132935   6.829   2.351   0.343 -0.6807 -1.2529  1.7095
 8565SOL    HW232936   6.971   2.302   0.363  0.2009  0.5554  0.2584
 8566SOL     OW32937   6.697   7.450   2.554 -0.3521 -0.0071 -0.2829
 8566SOL    HW132938   6.615   7.432   2.507 -0.6330 -2.3398  0.9426
 8566SOL    HW232939   6.762   7.394   2.511  0.0724  0.0995  0.2152
 8567SOL     OW32940  10.619   3.384   7.455 -0.8393  0.2419  0.4131
 8567SOL    HW132941  10.584   3.304   7.494  0.1920 -1.6347 -2.2175
 8567SOL    HW232942  10.562   3.400   7.379 -0.0567  1.0680 -0.0115
 8568SOL     OW32943  10.159   8.706   8.346 -0.1662 -0.4176 -0.4508
 8568SOL    HW132944  10.218   8.759   8.293 -0.5551  0.4271 -0.0468
 8568SOL    HW232945  10.072   8.721   8.307 -0.1447 -1.6826 -1.0714
 8569SOL     OW32946  11.905   1.525   7.061  0.4200 -1.0255 -0.2391
 8569SOL    HW132947  11.913   1.554   7.153  0.5955  0.6070 -0.7296
 8569SOL    HW232948  11.821   1.561   7.032  1.0610 -0.2151 -1.1461
 8570SOL     OW32949   5.416   1.657   6.534 -0.2575  0.8310 -0.5489
 8570SOL    HW132950   5.388   1.566   6.529  0.3017  0.4576  1.9662
 8570SOL    HW232951   5.355   1.698   6.595  1.4971  1.2740  0.9824
 8571SOL     OW32952  11.726   5.582   8.331  0.4825  0.2709  0.6708
 8571SOL    HW132953  11.805   5.635   8.345  0.8565 -0.3334  0.8788
 8571SOL    HW232954  11.655   5.637   8.363  0.9885  0.1828  2.0173
 8572SOL     OW32955   4.791   9.943  11.031  0.4355  0.5199  0.4370
 8572SOL    HW132956   4.856  10.008  11.005 -0.6075  1.7334  0.7351
 8572SOL    HW232957   4.712   9.968  10.983  0.3086 -1.2479 -0.3377
 8573SOL     OW32958   2.236   0.234   0.826 -0.0925 -0.4765  1.1767
 8573SOL    HW132959   2.275   0.320   0.842 -0.4228 -0.2768  0.9173
 8573SOL    HW232960   2.203   0.239   0.736  1.8954 -1.6321  0.3105
 8574SOL     OW32961  11.881  11.166   8.831 -0.4650 -0.3598  0.5167
 8574SOL    HW132962  11.788  11.146   8.814 -0.9878  2.9634 -1.4494
 8574SOL    HW232963  11.882  11.198   8.921 -0.9927 -1.4821  0.9417
 8575SOL     OW32964   8.405   1.617   9.234 -0.0175 -0.8338  0.0966
 8575SOL    HW132965   8.357   1.535   9.247  1.4060 -1.5864  0.8567
 8575SOL    HW232966   8.465   1.599   9.162 -0.3800 -0.1207 -0.3970
 8576SOL     OW32967   6.067  11.440  10.487  0.0193  0.0387  0.0876
 8576SOL    HW132968   6.161  11.420  10.496  0.4909  1.2519 -1.6783
 8576SOL    HW232969   6.064  11.533  10.465 -1.4878 -0.3275 -1.4643
 8577SOL     OW32970  11.765   8.359   2.693  0.3026 -0.4948  0.0650
 8577SOL    HW132971  11.757   8.358   2.598  0.4491  0.0893  0.0427
 8577SOL    HW232972  11.688   8.311   2.724 -0.9667  1.2427 -0.2820
 8578SOL     OW32973   9.010   4.528   5.606 -0.0169 -0.0291 -0.5332
 8578SOL    HW132974   9.096   4.570   5.618  0.0979 -0.3233 -0.3113
 8578SOL    HW232975   8.963   4.586   5.547  0.2681  0.2348 -0.5044
 8579SOL     OW32976  12.131   1.309   2.866 -0.0703  0.0876 -0.5104
 8579SOL    HW132977  12.188   1.235   2.885  1.2187  1.0483 -0.4390
 8579SOL    HW232978  12.177   1.384   2.904 -1.7357  0.8190  0.1499
 8580SOL     OW32979   8.178   2.449   9.274  0.0073  0.2535  0.3040
 8580SOL    HW132980   8.177   2.500   9.194  0.5695  0.7258  0.5883
 8580SOL    HW232981   8.090   2.412   9.281 -0.1515  0.5083 -0.3369
 8581SOL     OW32982  12.243   1.083   9.780  0.2933  0.2768  0.1199
 8581SOL    HW132983  12.267   0.997   9.814 -1.3576 -1.0639 -1.9377
 8581SOL    HW232984  12.155   1.099   9.814 -0.2041  0.2257 -1.0937
 8582SOL     OW32985  10.621   3.058   0.660 -0.0943 -0.2271 -0.2031
 8582SOL    HW132986  10.548   3.057   0.598  0.2239 -0.5699 -0.5826
 8582SOL    HW232987  10.652   3.148   0.659 -0.0891 -0.2322 -0.5460
 8583SOL     OW32988   9.741   4.900   3.362 -0.3359 -0.1391 -0.6121
 8583SOL    HW132989   9.714   4.953   3.437 -0.5928  1.4844 -1.7919
 8583SOL    HW232990   9.759   4.814   3.399  1.1520  1.0004  1.6192
 8584SOL     OW32991   1.327  10.017   2.593 -0.5055  0.5344  0.5231
 8584SOL    HW132992   1.389  10.034   2.664  0.2245  1.3414 -0.2712
 8584SOL    HW232993   1.260  10.085   2.602 -1.6097 -0.6435  1.6904
 8585SOL     OW32994   5.029  11.614  12.399  0.5173  0.7255  0.3066
 8585SOL    HW132995   4.978  11.693  12.382 -1.4609 -0.9066 -2.1571
 8585SOL    HW232996   5.077  11.599  12.317 -1.3557 -2.0092 -0.4361
 8586SOL     OW32997   8.208   0.333   2.898  0.0183 -0.0434  0.0001
 8586SOL    HW132998   8.236   0.270   2.831 -0.7313 -0.6749  0.2743
 8586SOL    HW232999   8.281   0.394   2.904  0.3089 -0.2624 -1.0409
 8587SOL     OW33000  12.368   2.910   3.584  0.3716 -0.6820  0.3878
 8587SOL    HW133001  12.321   2.957   3.516  0.4521 -0.0406  0.7653
 8587SOL    HW233002  12.349   2.959   3.664 -0.9737 -2.2754  1.1103
 8588SOL     OW33003   1.492   6.104   2.621 -0.3918 -0.1488 -0.6294
 8588SOL    HW133004   1.551   6.057   2.562  0.5155  0.8884 -0.5746
 8588SOL    HW233005   1.424   6.139   2.565  0.6207  1.0786 -1.1333
 8589SOL     OW33006   2.937  12.535   7.182 -0.1253 -0.3168  0.2934
 8589SOL    HW133007   2.878  12.502   7.115 -0.9862  1.2241  0.2440
 8589SOL    HW233008   3.014  12.478   7.177  0.1533  0.1605 -2.5089
 8590SOL     OW33009   5.443   3.395  12.571  0.3901 -0.1945 -0.3092
 8590SOL    HW133010   5.465   3.431  12.485  1.0800  0.4401  0.1147
 8590SOL    HW233011   5.495   3.448  12.632  1.0425 -1.5957  0.3819
 8591SOL     OW33012   3.939  10.101   6.884 -0.7015 -0.4182  0.1947
 8591SOL    HW133013   3.899  10.090   6.798 -0.5722 -0.5620  0.1525
 8591SOL    HW233014   3.866  10.120   6.942 -1.0280 -2.2246  0.4015
 8592SOL     OW33015   4.580   1.133   7.262 -0.1259 -0.3330 -0.4159
 8592SOL    HW133016   4.524   1.170   7.330  0.7708  0.0571  0.1262
 8592SOL    HW233017   4.543   1.167   7.180  0.2070  1.1592  0.0214
 8593SOL     OW33018   0.301   1.239  10.443  0.3232  0.1602 -0.1269
 8593SOL    HW133019   0.297   1.251  10.348  0.5193  0.8067 -0.0574
 8593SOL    HW233020   0.389   1.205  10.459  0.1379 -0.3627 -0.2200
 8594SOL     OW33021  10.173   3.701  11.514 -0.4365 -0.3457  0.5731
 8594SOL    HW133022  10.181   3.628  11.453 -1.9723 -0.0873  0.0372
 8594SOL    HW233023  10.260   3.741  11.514  0.1221 -1.5004  0.0483
 8595SOL     OW33024   7.330  10.737  10.249 -0.5593 -0.2788 -0.2850
 8595SOL    HW133025   7.307  10.762  10.338 -0.9547  0.8085 -0.6759
 8595SOL    HW233026   7.259  10.680  10.221 -0.6317 -0.3133 -0.0338
 8596SOL     OW33027   9.793  12.045   2.455 -0.0770  0.0882 -0.3374
 8596SOL    HW133028   9.714  12.086   2.490 -0.1430 -0.4480  0.1498
 8596SOL    HW233029   9.761  11.983   2.390  0.0274  0.8450 -1.1314
 8597SOL     OW33030   8.688   2.819   7.208 -0.5054 -0.0869 -0.4767
 8597SOL    HW133031   8.771   2.774   7.226 -0.1441  1.6652  3.0889
 8597SOL    HW233032   8.714   2.901   7.166 -0.3014  0.6654  1.0446
 8598SOL     OW33033  11.582   4.866   6.388 -0.0634 -0.4139  0.2402
 8598SOL    HW133034  11.501   4.815   6.393 -0.0408 -0.7774 -2.2164
 8598SOL    HW233035  11.552   4.957   6.388 -0.3688 -0.5101  0.6462
 8599SOL     OW33036  10.842   4.183   5.791  0.4697 -0.1344 -0.3327
 8599SOL    HW133037  10.759   4.231   5.785  0.8637  0.4216 -1.7781
 8599SOL    HW233038  10.816   4.091   5.794 -0.2033  0.0242 -0.9429
 8600SOL     OW33039   9.785   7.367   4.359 -0.1971  0.1322 -0.5618
 8600SOL    HW133040   9.867   7.349   4.405  0.0066 -1.3890 -1.4505
 8600SOL    HW233041   9.803   7.446   4.309  0.7134 -0.1503 -0.7032
 8601SOL     OW33042   5.013   7.261  11.814 -0.2469 -0.5629 -0.2866
 8601SOL    HW133043   5.066   7.310  11.751 -1.8941 -1.4152 -2.4229
 8601SOL    HW233044   5.067   7.185  11.836  1.4858  1.0534  1.5495
 8602SOL     OW33045   6.921   3.465   8.340  0.2692 -0.0144 -0.1795
 8602SOL    HW133046   6.902   3.559   8.338 -0.7389 -0.1820  0.5467
 8602SOL    HW233047   7.015   3.460   8.355  0.1168  0.9056  1.3231
 8603SOL     OW33048   6.521   8.902  10.222  0.1994 -0.1107  0.1078
 8603SOL    HW133049   6.461   8.951  10.278  1.1704  2.3473 -0.8614
 8603SOL    HW233050   6.467   8.837  10.179 -1.1783  0.1013  1.4616
 8604SOL     OW33051  10.049   1.259  10.659 -0.2032  0.4892 -0.2381
 8604SOL    HW133052  10.038   1.270  10.564  1.5834  0.3991 -0.4848
 8604SOL    HW233053  10.060   1.165  10.671  0.7970  0.6138 -0.1094
 8605SOL     OW33054   3.932   3.899   5.255  0.0859 -0.1063 -0.3672
 8605SOL    HW133055   3.864   3.842   5.218 -0.8993  0.2890  0.7522
 8605SOL    HW233056   3.886   3.981   5.275  1.1168  0.5106 -0.4559
 8606SOL     OW33057  11.844   7.432   2.338  0.4942  0.3127  0.8143
 8606SOL    HW133058  11.816   7.524   2.332 -1.9426 -0.4452 -1.6934
 8606SOL    HW233059  11.932   7.432   2.299  1.0920  1.7170  2.0526
 8607SOL     OW33060   6.605   7.070   7.767  0.6238  0.0418  0.1106
 8607SOL    HW133061   6.619   7.164   7.779  2.0755  0.0214 -1.1574
 8607SOL    HW233062   6.671   7.044   7.703  0.1572 -1.8276  0.3403
 8608SOL     OW33063   6.082   1.968   6.930  0.1102 -0.1168 -0.2230
 8608SOL    HW133064   6.102   1.874   6.925 -0.6118 -0.2429 -0.9900
 8608SOL    HW233065   5.988   1.973   6.912  0.5197  0.9307 -2.2880
 8609SOL     OW33066  11.183   9.497  10.455  0.3042  0.1590  0.2750
 8609SOL    HW133067  11.255   9.559  10.441 -0.0630  1.2798  2.7148
 8609SOL    HW233068  11.107   9.553  10.470 -0.0901 -0.8540  2.3373
 8610SOL     OW33069   4.605   4.031   7.627 -0.0549 -0.4912 -0.2558
 8610SOL    HW133070   4.622   3.954   7.682  0.9826 -0.5526 -0.6476
 8610SOL    HW233071   4.560   3.995   7.550 -1.9815 -0.3417  0.7307
 8611SOL     OW33072   4.865   4.529  11.721 -0.0937  0.2034 -0.1545
 8611SOL    HW133073   4.774   4.551  11.741 -0.8307 -0.7947 -2.0615
 8611SOL    HW233074   4.870   4.434  11.732  0.3209  0.0610 -1.3982
 8612SOL     OW33075   8.944   6.127  11.268  0.8115  0.4854  0.4715
 8612SOL    HW133076   8.973   6.216  11.244 -0.2350  0.9136  0.7301
 8612SOL    HW233077   8.997   6.069  11.214 -0.1307  1.3532 -1.5027
 8613SOL     OW33078  11.316  11.229  12.320  0.1676  0.2717 -0.5208
 8613SOL    HW133079  11.406  11.262  12.319  1.0800 -1.9790 -2.5364
 8613SOL    HW233080  11.262  11.305  12.298  1.9253  0.9982 -2.6969
 8614SOL     OW33081  10.143   1.148   5.957 -0.1665 -0.0269  0.1643
 8614SOL    HW133082  10.166   1.055   5.951  1.2994  0.3134  0.2475
 8614SOL    HW233083  10.160   1.183   5.869 -1.4547  0.0259 -0.0870
 8615SOL     OW33084  11.520   4.750  10.420  0.3295  0.0670 -0.1626
 8615SOL    HW133085  11.549   4.662  10.396 -1.9324 -0.4510 -1.1796
 8615SOL    HW233086  11.440   4.765  10.370  0.0822  2.3258  0.7505
 8616SOL     OW33087   7.370   8.378   4.932  0.3789  0.2979 -0.4277
 8616SOL    HW133088   7.275   8.367   4.921  0.3103  1.2714 -0.8990
 8616SOL    HW233089   7.378   8.443   5.002  0.7639 -1.9470  1.7771
 8617SOL     OW33090  12.639   2.533  10.767 -0.1247 -0.6710  0.2450
 8617SOL    HW133091  12.675   2.584  10.839 -0.0388  0.7471 -0.7698
 8617SOL    HW233092  12.660   2.583  10.688 -1.0923 -1.6671 -0.6890
 8618SOL     OW33093   0.804   2.612   8.420 -0.8115  0.1791 -0.2970
 8618SOL    HW133094   0.719   2.571   8.430 -0.9601  0.7966  1.1440
 8618SOL    HW233095   0.833   2.631   8.509  0.2148  1.2095 -0.8158
 8619SOL     OW33096   0.179   7.302  11.523 -0.0352  0.0578  0.1583
 8619SOL    HW133097   0.123   7.339  11.455  0.5823  0.3904 -0.1803
 8619SOL    HW233098   0.209   7.219  11.486 -1.3335 -0.7685  0.8737
 8620SOL     OW33099   1.695  12.655   5.239  0.0562 -0.1464  0.7674
 8620SOL    HW133100   1.725  12.685   5.153 -0.3867  0.0623  0.6822
 8620SOL    HW233101   1.760  12.590   5.266  0.0741 -0.3833  0.1743
 8621SOL     OW33102   5.115  11.413   1.799 -0.1201  0.7469  0.0487
 8621SOL    HW133103   5.169  11.335   1.787 -0.8807  0.0841  0.8326
 8621SOL    HW233104   5.081  11.405   1.888 -3.7352 -0.3143 -1.2515
 8622SOL     OW33105  10.414   8.863   7.842 -0.4538  0.3228  0.5508
 8622SOL    HW133106  10.331   8.852   7.796 -0.8058 -1.0141  1.4270
 8622SOL    HW233107  10.391   8.855   7.935  0.8220 -1.7044  0.7707
 8623SOL     OW33108   7.665  10.806   4.119  0.6476 -0.1020 -0.0254
 8623SOL    HW133109   7.586  10.834   4.167 -0.2871 -3.1927  0.5002
 8623SOL    HW233110   7.731  10.795   4.188  0.7884  0.0993 -0.1284
 8624SOL     OW33111   6.481  12.445   0.011 -0.0316 -0.0661 -0.0025
 8624SOL    HW133112   6.440  12.443  -0.076  0.0332 -0.3707 -0.0261
 8624SOL    HW233113   6.544  12.373   0.009  0.8279  0.6757 -0.1201
 8625SOL     OW33114   6.158   3.686   5.938  0.1919  0.2120 -0.0762
 8625SOL    HW133115   6.090   3.619   5.947  0.0217  0.1336 -1.6815
 8625SOL    HW233116   6.189   3.677   5.848  1.7892  0.7870  0.3803
 8626SOL     OW33117  11.658   6.496   1.440  0.4376 -0.0176  0.2356
 8626SOL    HW133118  11.600   6.549   1.387 -0.3332 -1.1474 -0.0882
 8626SOL    HW233119  11.625   6.407   1.430  3.1405 -0.9640 -1.2148
 8627SOL     OW33120  10.815   1.225   5.774  0.1925  0.1037 -0.2917
 8627SOL    HW133121  10.816   1.140   5.729 -3.1808  0.9079 -2.2290
 8627SOL    HW233122  10.760   1.211   5.851 -1.0443  0.6176 -1.0410
 8628SOL     OW33123   6.917   5.279   0.519 -0.1569  0.0946  0.3622
 8628SOL    HW133124   6.879   5.344   0.577 -0.9473 -0.4335  0.4591
 8628SOL    HW233125   6.856   5.204   0.523 -0.0964 -0.0579 -0.9197
 8629SOL     OW33126   8.677   9.365   3.475  0.3526  0.1066 -0.4169
 8629SOL    HW133127   8.734   9.344   3.401 -0.3577  0.3992 -1.0628
 8629SOL    HW233128   8.629   9.443   3.447  0.0877  0.2337  0.3662
 8630SOL     OW33129  11.726   7.716  12.510  0.1552 -0.0398 -0.2883
 8630SOL    HW133130  11.758   7.644  12.565  1.9165  1.5669  0.9345
 8630SOL    HW233131  11.774   7.706  12.428 -0.5221 -0.9466 -0.5821
 8631SOL     OW33132   9.059   4.405   7.492 -0.2973  0.1474  0.5707
 8631SOL    HW133133   8.978   4.456   7.490 -1.1004 -1.1215  0.1967
 8631SOL    HW233134   9.069   4.374   7.402 -0.4947 -1.3850  1.0544
 8632SOL     OW33135  10.726   3.618   9.093  0.1272  0.1146 -0.5889
 8632SOL    HW133136  10.816   3.649   9.093 -0.3042  1.4867 -1.7335
 8632SOL    HW233137  10.722   3.555   9.022  0.4129 -0.7412  0.1365
 8633SOL     OW33138   6.374   7.949   3.623 -0.0818  0.3027 -0.5125
 8633SOL    HW133139   6.415   8.032   3.649  0.4480 -0.9843  3.4226
 8633SOL    HW233140   6.446   7.886   3.619 -0.7946 -0.5144 -0.8297
 8634SOL     OW33141   7.412   1.968   8.611 -0.0224  0.2911  0.4786
 8634SOL    HW133142   7.393   1.877   8.588  1.0501  0.2700 -0.4660
 8634SOL    HW233143   7.421   1.968   8.706 -0.5304 -0.4833  0.5342
 8635SOL     OW33144   1.832   7.666   2.287 -0.1971 -0.0643  0.0915
 8635SOL    HW133145   1.742   7.698   2.289 -0.2360 -0.0558 -1.2181
 8635SOL    HW233146   1.880   7.727   2.343 -0.7163  0.8726 -0.4465
 8636SOL     OW33147   7.157   4.810  10.005 -0.0967  0.2789 -0.9534
 8636SOL    HW133148   7.244   4.809   9.965  2.1618 -0.9355  3.2991
 8636SOL    HW233149   7.140   4.903  10.021  1.1096  0.4731 -0.6472
 8637SOL     OW33150   3.989   3.453  11.844 -0.2641  0.2235 -0.5764
 8637SOL    HW133151   4.034   3.526  11.888  1.9799 -0.4016 -1.6766
 8637SOL    HW233152   3.962   3.395  11.915  4.0273 -1.1956  0.2204
 8638SOL     OW33153  11.741   1.618  12.446 -0.2763 -0.2241  0.0818
 8638SOL    HW133154  11.723   1.668  12.525  1.1675  1.3310 -0.4972
 8638SOL    HW233155  11.704   1.670  12.375  0.5932 -0.3328 -0.4764
 8639SOL     OW33156   9.379  10.263   3.368 -0.4029  0.1219 -0.1093
 8639SOL    HW133157   9.407  10.350   3.341  1.4335 -0.4253 -0.0580
 8639SOL    HW233158   9.284  10.271   3.380 -0.9121  1.1621 -3.7857
 8640SOL     OW33159   8.400   9.223   0.007 -0.7668 -0.4048  0.1532
 8640SOL    HW133160   8.396   9.188   0.096  1.5795  1.1431  0.9551
 8640SOL    HW233161   8.487   9.262   0.000 -1.0701 -0.0193 -2.6720
 8641SOL     OW33162   8.394   1.454  11.796 -0.1112 -0.2647 -0.1833
 8641SOL    HW133163   8.365   1.501  11.874 -1.3141  0.1713 -0.8675
 8641SOL    HW233164   8.342   1.375  11.795 -0.4430 -0.0431 -0.7924
 8642SOL     OW33165   7.544  12.223   3.013 -0.1697  0.1175 -0.3183
 8642SOL    HW133166   7.579  12.187   3.095 -0.8718 -1.4533 -0.6714
 8642SOL    HW233167   7.622  12.248   2.963  0.2471  2.4101  1.3431
 8643SOL     OW33168   6.487   2.754   0.931  0.7869  0.1228  0.3533
 8643SOL    HW133169   6.437   2.821   0.977  0.4276  0.7539 -0.8945
 8643SOL    HW233170   6.552   2.724   0.994  0.1416  0.7490  1.3413
 8644SOL     OW33171   7.932   8.883   0.312 -0.0004 -0.1439 -0.1555
 8644SOL    HW133172   7.976   8.924   0.237 -1.7043  0.8166 -0.6846
 8644SOL    HW233173   7.872   8.820   0.274 -1.4231  0.8804  0.3143
 8645SOL     OW33174   0.757   1.347   5.560  0.7597 -0.4996  0.4649
 8645SOL    HW133175   0.819   1.285   5.598  1.1898 -0.3398  0.0340
 8645SOL    HW233176   0.784   1.432   5.594  0.1428 -0.5461  1.0896
 8646SOL     OW33177  10.389   8.399   8.688 -0.0278 -0.0183  0.2276
 8646SOL    HW133178  10.369   8.358   8.604 -3.4459 -0.9418  1.3124
 8646SOL    HW233179  10.384   8.327   8.751 -1.8659  1.2838  1.6751
 8647SOL     OW33180   7.397   1.203   5.066 -0.5935 -0.2331  0.1399
 8647SOL    HW133181   7.485   1.168   5.080 -0.9824 -0.8376  1.1472
 8647SOL    HW233182   7.344   1.127   5.041 -0.8739  0.0959 -0.2916
 8648SOL     OW33183   8.628   7.571   5.353 -0.2593 -0.3336 -0.1477
 8648SOL    HW133184   8.605   7.644   5.295  2.3298 -0.9753 -2.1969
 8648SOL    HW233185   8.691   7.608   5.415  0.7255 -0.6637 -0.9174
 8649SOL     OW33186   7.467  11.068   4.550  0.6036 -0.9066  0.5777
 8649SOL    HW133187   7.491  11.135   4.614  2.6160 -1.1595  0.1585
 8649SOL    HW233188   7.390  11.103   4.506  0.0566 -0.0653  2.1043
 8650SOL     OW33189   8.475   8.231  11.979  0.1722 -0.5455  0.6168
 8650SOL    HW133190   8.503   8.194  12.062  2.8706 -0.1546 -0.0390
 8650SOL    HW233191   8.532   8.306  11.964 -1.0648  0.1549 -1.0229
 8651SOL     OW33192   4.359   3.550   9.087  0.8170  0.6078  0.0379
 8651SOL    HW133193   4.334   3.554   9.179 -2.7912  1.2853 -0.8273
 8651SOL    HW233194   4.396   3.636   9.069  1.2668  0.5757  0.7505
 8652SOL     OW33195   6.480   7.249   5.710 -0.0451  0.1770 -0.2624
 8652SOL    HW133196   6.550   7.295   5.663  1.3135 -1.0252  0.5121
 8652SOL    HW233197   6.452   7.310   5.777  1.6147 -0.0017  0.6425
 8653SOL     OW33198  10.320   6.657  12.216  0.4916  0.2962  0.1271
 8653SOL    HW133199  10.277   6.741  12.232  1.8710  0.9991  0.3401
 8653SOL    HW233200  10.412   6.673  12.238  1.1205 -0.7769 -1.5192
 8654SOL     OW33201   0.146   6.223  11.394  0.1827  0.2204  0.2529
 8654SOL    HW133202   0.220   6.280  11.373 -0.1167  0.6491  0.3549
 8654SOL    HW233203   0.163   6.194  11.483  0.9872 -0.8734 -0.2259
 8655SOL     OW33204  12.339   8.268  10.784  0.1439  0.2870  0.4721
 8655SOL    HW133205  12.302   8.190  10.742  1.6413 -1.1021  1.6351
 8655SOL    HW233206  12.291   8.276  10.866 -1.2555  1.7186 -0.4121
 8656SOL     OW33207   5.083   0.784   9.660 -0.3861  0.3578  0.1375
 8656SOL    HW133208   5.084   0.761   9.753 -0.7001  4.5304  1.3748
 8656SOL    HW233209   4.990   0.797   9.639 -0.4671 -1.9168 -1.2910
 8657SOL     OW33210   8.466   7.567   8.877 -0.6188 -0.2667  0.0525
 8657SOL    HW133211   8.507   7.632   8.934 -0.2424  0.2744 -0.8276
 8657SOL    HW233212   8.391   7.612   8.839  0.0118 -0.1258 -1.0591
 8658SOL     OW33213   2.186   9.850   2.495  0.2359  0.5824  0.2830
 8658SOL    HW133214   2.203   9.785   2.427  2.0792  0.1734  1.0736
 8658SOL    HW233215   2.212   9.934   2.455  2.2528  0.2245  0.7564
 8659SOL     OW33216   5.714   2.523  10.133  0.1354 -0.2136  0.4275
 8659SOL    HW133217   5.656   2.566  10.071 -0.6094 -1.1180  0.4687
 8659SOL    HW233218   5.704   2.572  10.214  1.1521  1.0052 -0.1561
 8660SOL     OW33219   9.040   6.106   5.754 -0.0230  0.3290  0.0265
 8660SOL    HW133220   9.121   6.158   5.749  0.2499 -0.0481  0.5064
 8660SOL    HW233221   8.980   6.150   5.694  0.0953  1.4003  0.6680
 8661SOL     OW33222  10.688   8.977  10.596 -0.1978 -0.5505  0.1804
 8661SOL    HW133223  10.723   8.888  10.595  0.8743 -0.1420 -0.8874
 8661SOL    HW233224  10.756   9.030  10.555 -1.8198  0.3963 -1.3932
 8662SOL     OW33225   6.222   1.201   1.336  0.2286  0.0313  0.0783
 8662SOL    HW133226   6.211   1.120   1.386 -1.3031 -0.1699 -0.5196
 8662SOL    HW233227   6.311   1.196   1.303  0.1075 -1.5425 -0.1328
 8663SOL     OW33228   4.335   0.207  12.378  0.1481  0.2475 -0.2705
 8663SOL    HW133229   4.410   0.266  12.377 -0.8492  1.5576 -0.7165
 8663SOL    HW233230   4.321   0.185  12.286 -0.4474  0.5944 -0.2681
 8664SOL     OW33231   2.396   4.809   2.471 -0.2758  0.3912 -0.7556
 8664SOL    HW133232   2.389   4.838   2.380 -1.1323  1.4196 -0.3801
 8664SOL    HW233233   2.483   4.768   2.476 -0.9100 -1.2834 -2.4454
 8665SOL     OW33234   1.054   3.545   0.259  0.0770  0.5043 -0.5006
 8665SOL    HW133235   0.991   3.502   0.201  0.0172  0.0227 -0.0828
 8665SOL    HW233236   1.137   3.539   0.212 -0.1988  1.2182 -1.0928
 8666SOL     OW33237   9.194   2.001   3.103  0.0386  0.2049  0.8806
 8666SOL    HW133238   9.288   2.014   3.115 -0.3096  3.0223  1.2278
 8666SOL    HW233239   9.163   1.977   3.191  0.4164 -0.9910  0.7127
 8667SOL     OW33240  12.500   3.981   5.176 -0.7490  0.0597 -0.0181
 8667SOL    HW133241  12.544   4.053   5.222 -2.9032  0.5763  1.4187
 8667SOL    HW233242  12.469   3.924   5.246 -0.7215 -1.2667 -1.0600
 8668SOL     OW33243   8.479  10.770  10.082 -0.4627 -0.4891  0.3200
 8668SOL    HW133244   8.522  10.688  10.109 -0.7505 -0.1975  1.7957
 8668SOL    HW233245   8.440  10.750   9.997  1.7180 -1.0638 -0.6181
 8669SOL     OW33246   6.803   6.660  10.285 -0.3631  0.2184 -0.3037
 8669SOL    HW133247   6.753   6.601  10.341 -0.2831 -0.3256 -0.7956
 8669SOL    HW233248   6.752   6.665  10.205 -0.4578  0.9643 -0.2003
 8670SOL     OW33249   2.558  10.412  10.008  0.3324  0.3692  0.3703
 8670SOL    HW133250   2.651  10.413  10.032  0.5518  0.3117 -0.4455
 8670SOL    HW233251   2.512  10.418  10.092  1.0657 -0.5440  0.8623
 8671SOL     OW33252   8.906   6.778   9.609  0.4715  0.2943  0.1531
 8671SOL    HW133253   8.890   6.848   9.673 -1.3075 -0.7962  0.9618
 8671SOL    HW233254   8.882   6.818   9.524  0.4880  0.9884  0.4648
 8672SOL     OW33255   6.425   2.402  12.607  0.0352  0.2858 -0.2992
 8672SOL    HW133256   6.511   2.378  12.573 -0.5273 -0.8863 -1.0040
 8672SOL    HW233257   6.439   2.419  12.700  1.0756  0.3948 -0.4702
 8673SOL     OW33258   5.930   6.029   8.786  0.0620 -0.0257  0.2112
 8673SOL    HW133259   5.843   6.019   8.823 -0.5070  0.5992 -0.9193
 8673SOL    HW233260   5.949   5.945   8.745 -0.9825  0.5234 -1.5081
 8674SOL     OW33261   5.088   7.564   3.509  0.0298  0.2252  0.1661
 8674SOL    HW133262   5.082   7.490   3.447 -2.7463  0.3212  0.1963
 8674SOL    HW233263   5.173   7.604   3.490  0.7559 -1.7934 -1.2077
 8675SOL     OW33264   6.322   5.062  10.997 -0.0167 -0.3568  0.4160
 8675SOL    HW133265   6.387   5.015  11.050 -0.1543  0.4501  1.3234
 8675SOL    HW233266   6.367   5.143  10.971  0.4614 -1.2406 -1.7153
 8676SOL     OW33267   8.266   8.386   5.160  0.2836  0.2000  0.1141
 8676SOL    HW133268   8.199   8.454   5.164  0.9389  0.8743 -0.1250
 8676SOL    HW233269   8.260   8.342   5.245 -0.7685 -0.0591 -0.0802
 8677SOL     OW33270   3.420  10.638  10.409 -0.0192  0.3892 -0.0779
 8677SOL    HW133271   3.402  10.561  10.464  1.2642 -0.0579 -0.2477
 8677SOL    HW233272   3.445  10.707  10.470  1.2141 -0.0504 -0.0592
 8678SOL     OW33273   4.646  11.996  10.069  0.3747  0.1178  0.3053
 8678SOL    HW133274   4.629  12.088  10.090 -1.1538 -0.2750  0.9263
 8678SOL    HW233275   4.647  11.993   9.973 -0.8065  0.5955  0.2641
 8679SOL     OW33276   7.625   6.682  12.006  0.1116  0.0247  0.0682
 8679SOL    HW133277   7.614   6.643  12.092  0.4241 -1.9956 -0.7619
 8679SOL    HW233278   7.714   6.657  11.979 -0.0346  0.4823 -0.9016
 8680SOL     OW33279  12.035   8.335  11.735 -0.5056 -0.4969 -0.0388
 8680SOL    HW133280  12.076   8.249  11.732 -0.2608 -0.6030  3.1615
 8680SOL    HW233281  11.951   8.321  11.779 -0.8083  0.7922 -0.1468
 8681SOL     OW33282   4.472  11.875   7.750  0.2191  0.2878 -0.1333
 8681SOL    HW133283   4.529  11.832   7.815 -1.1102 -0.4689  0.5693
 8681SOL    HW233284   4.422  11.939   7.801  0.1224  0.6415 -0.6653
 8682SOL     OW33285  11.973   8.212   3.127  0.2601  0.4223 -0.5968
 8682SOL    HW133286  12.036   8.153   3.169 -0.5431 -0.3546 -0.4402
 8682SOL    HW233287  11.903   8.222   3.192  0.9498  2.5746 -0.1134
 8683SOL     OW33288   1.209  11.980   7.687 -0.1447 -0.1444 -0.4533
 8683SOL    HW133289   1.292  12.015   7.654 -0.5667  1.1292 -0.2060
 8683SOL    HW233290   1.144  12.047   7.665 -1.1336 -1.1377 -0.6729
 8684SOL     OW33291  12.541   8.074   9.156  0.3087 -0.2799 -0.0278
 8684SOL    HW133292  12.492   8.067   9.075 -1.0652 -0.8719  0.8230
 8684SOL    HW233293  12.498   8.145   9.204 -0.1750 -1.2434  1.0117
 8685SOL     OW33294   1.997   1.342  11.083 -0.1385 -0.0959  0.0713
 8685SOL    HW133295   2.067   1.278  11.072 -0.4794 -0.2040 -1.7716
 8685SOL    HW233296   1.993   1.358  11.178  1.5072 -1.0280  0.3229
 8686SOL     OW33297  10.441   1.288  11.121 -0.6376 -0.6155  0.0361
 8686SOL    HW133298  10.440   1.199  11.084 -1.4144 -0.1390 -1.1424
 8686SOL    HW233299  10.368   1.332  11.078  0.5014  0.9693 -0.3264
 8687SOL     OW33300   7.433   6.598   8.806  0.2628  0.7711 -0.1086
 8687SOL    HW133301   7.400   6.540   8.738  0.5755 -0.7341  0.9589
 8687SOL    HW233302   7.481   6.666   8.759  1.4974 -0.8776 -1.3625
 8688SOL     OW33303   8.555   4.218   3.480 -0.0261 -0.1837 -0.2776
 8688SOL    HW133304   8.512   4.175   3.406  1.9107 -0.2811 -1.4065
 8688SOL    HW233305   8.648   4.217   3.458  0.5375  0.5005  1.8081
 8689SOL     OW33306  10.617   7.412   2.760  0.3273 -0.4525  0.1821
 8689SOL    HW133307  10.585   7.324   2.779 -0.4467  0.0145  1.1257
 8689SOL    HW233308  10.605   7.422   2.665  1.1168 -1.6155 -0.0604
 8690SOL     OW33309   3.874  12.142   0.883 -0.0975  0.1410 -0.1347
 8690SOL    HW133310   3.969  12.133   0.872 -0.0023 -1.3593  1.4255
 8690SOL    HW233311   3.843  12.169   0.797  1.6691 -0.0155 -0.8803
 8691SOL     OW33312   3.114   8.354   9.345 -0.5577 -0.3912 -0.5283
 8691SOL    HW133313   3.171   8.381   9.417 -0.2508 -2.0175 -0.1200
 8691SOL    HW233314   3.112   8.429   9.286 -0.4117  0.8000  0.9212
 8692SOL     OW33315   4.373   3.735   7.106  0.3906  0.4009 -0.0717
 8692SOL    HW133316   4.341   3.765   7.021  1.7228  2.0399 -0.0337
 8692SOL    HW233317   4.411   3.813   7.147  0.7108 -0.5808  1.5956
 8693SOL     OW33318   6.076   7.976   1.151  0.1596 -0.1854 -0.0208
 8693SOL    HW133319   6.036   8.023   1.225 -1.1068  0.4421 -1.0641
 8693SOL    HW233320   6.132   8.042   1.109 -1.4520  0.3772 -1.3599
 8694SOL     OW33321   9.289   6.885  10.964 -0.0922  0.1303  0.2351
 8694SOL    HW133322   9.247   6.943  10.900  0.3656  0.0145 -0.1760
 8694SOL    HW233323   9.368   6.931  10.990 -0.9369  0.8142  1.7683
 8695SOL     OW33324   8.826   2.213   0.359 -0.3249 -0.1199  0.1223
 8695SOL    HW133325   8.794   2.281   0.299 -3.2723 -0.0681  1.5712
 8695SOL    HW233326   8.752   2.153   0.368  1.5655 -2.5857  0.3194
 8696SOL     OW33327  11.129   2.162   9.945  0.2031  0.1809  0.0321
 8696SOL    HW133328  11.213   2.156   9.990 -0.8737  0.2148  2.1859
 8696SOL    HW233329  11.085   2.079   9.964  0.1438 -0.3301 -2.0387
 8697SOL     OW33330  10.195  11.879   6.850  0.4083  0.6875  0.1159
 8697SOL    HW133331  10.263  11.813   6.866 -0.0742  0.2233  0.2916
 8697SOL    HW233332  10.118  11.846   6.896 -1.8472 -2.0048 -4.7293
 8698SOL     OW33333   3.928   6.858  12.453  0.4725  0.5776 -0.2458
 8698SOL    HW133334   4.020   6.864  12.425  0.8763 -3.1720 -0.2472
 8698SOL    HW233335   3.879   6.852  12.371  0.4615  0.3631 -0.2230
 8699SOL     OW33336   0.861   9.720   8.888 -0.1857  0.1984 -0.1213
 8699SOL    HW133337   0.848   9.777   8.964  2.4302  1.3487 -0.4336
 8699SOL    HW233338   0.868   9.780   8.814  1.2335 -0.5935 -0.6652
 8700SOL     OW33339   5.931  10.570   1.255  0.2855  0.0871 -0.2630
 8700SOL    HW133340   5.955  10.580   1.347  1.7140 -2.3711 -0.2605
 8700SOL    HW233341   5.835  10.573   1.254  0.2411 -0.0508  1.3248
 8701SOL     OW33342   5.145   1.407   4.733  0.2874 -0.1611  0.2861
 8701SOL    HW133343   5.118   1.483   4.786 -0.9166  0.7572 -1.5388
 8701SOL    HW233344   5.122   1.431   4.643  2.7243 -1.4583 -0.7699
 8702SOL     OW33345   0.421   8.761  12.598 -0.0826 -0.2396  0.1144
 8702SOL    HW133346   0.368   8.718  12.666 -0.4613 -1.4234 -0.8856
 8702SOL    HW233347   0.359   8.815  12.550  0.1060  0.2862  0.4618
 8703SOL     OW33348   9.728   5.998   4.555  0.2000 -0.5980 -0.3468
 8703SOL    HW133349   9.798   6.053   4.520 -0.8580  1.2805  0.3548
 8703SOL    HW233350   9.647   6.039   4.524 -0.6324 -2.0444 -0.1740
 8704SOL     OW33351   8.582   0.180   9.685  0.2809  0.1365 -0.4691
 8704SOL    HW133352   8.652   0.117   9.670 -0.6366 -1.1562  0.4019
 8704SOL    HW233353   8.625   0.265   9.684  2.3620 -0.7144  2.4645
 8705SOL     OW33354   4.507   4.276  11.769  0.7563  0.1823 -0.1535
 8705SOL    HW133355   4.520   4.311  11.681 -0.7011  2.3925  0.4266
 8705SOL    HW233356   4.486   4.183  11.755  2.0727  0.1039 -1.9820
 8706SOL     OW33357   6.638  11.555  10.376  0.6046  0.3462 -1.0435
 8706SOL    HW133358   6.590  11.586  10.453  0.6593 -1.4405 -0.2482
 8706SOL    HW233359   6.723  11.599  10.382 -0.1775  1.9852 -1.3734
 8707SOL     OW33360   8.768  12.200   2.771  0.2511 -0.1514 -0.4654
 8707SOL    HW133361   8.758  12.106   2.756 -2.1059 -0.0687  0.2111
 8707SOL    HW233362   8.756  12.239   2.685  1.8094 -0.4684 -0.8518
 8708SOL     OW33363   6.232   6.825  12.248  0.0592  0.1636  0.0488
 8708SOL    HW133364   6.146   6.865  12.231  0.6144  1.4919  0.1961
 8708SOL    HW233365   6.221   6.780  12.332  0.0496  2.1515  1.1863
 8709SOL     OW33366   1.901   1.464   5.672 -0.5797  0.1920 -0.2104
 8709SOL    HW133367   1.860   1.507   5.597 -0.9000  0.8873  0.3604
 8709SOL    HW233368   1.898   1.528   5.743 -4.1932 -1.7866  1.7346
 8710SOL     OW33369   1.521  11.334   8.229 -0.0832  0.3957  0.4457
 8710SOL    HW133370   1.460  11.395   8.269 -0.1082  1.2975 -0.8866
 8710SOL    HW233371   1.603  11.383   8.224  0.1398 -0.0010  0.1911
 8711SOL     OW33372   3.642   7.830   4.929 -0.4526  0.3566 -0.6218
 8711SOL    HW133373   3.696   7.871   4.863  1.4902  1.2449  1.4021
 8711SOL    HW233374   3.564   7.885   4.934  0.6548  1.9466 -0.2278
 8712SOL     OW33375   6.541   8.617   6.623 -0.1857  0.1826 -0.4488
 8712SOL    HW133376   6.472   8.637   6.685  0.2585 -0.9491  0.4256
 8712SOL    HW233377   6.612   8.580   6.676  1.3601  1.8427 -1.2129
 8713SOL     OW33378   7.319   9.890   7.044  0.5189  0.0536 -0.0937
 8713SOL    HW133379   7.247   9.863   7.102  1.0376  0.1490  0.6028
 8713SOL    HW233380   7.340   9.979   7.072 -1.3882  1.4196 -2.5738
 8714SOL     OW33381  10.917   5.382   1.463 -0.5453  0.7740 -0.4357
 8714SOL    HW133382  10.846   5.324   1.490 -1.0612  0.0558 -3.0612
 8714SOL    HW233383  10.882   5.428   1.386  0.4954  3.2939  0.5038
 8715SOL     OW33384  12.148   4.912   7.886  0.6867  0.0144  0.5342
 8715SOL    HW133385  12.055   4.927   7.867  0.4915  2.3204  2.7357
 8715SOL    HW233386  12.148   4.846   7.955  0.8302 -1.0317 -0.4270
 8716SOL     OW33387   5.511  10.703  11.969 -0.3809  0.4721 -0.1129
 8716SOL    HW133388   5.606  10.703  11.959 -0.0867  0.3216  2.2602
 8716SOL    HW233389   5.487  10.795  11.961  0.2172  0.7496  1.0392
 8717SOL     OW33390   8.022   6.742  12.553  0.0665  0.0139 -0.4139
 8717SOL    HW133391   8.014   6.757  12.459 -3.1247 -0.6264 -0.3537
 8717SOL    HW233392   8.067   6.820  12.586 -1.1280  1.5259 -2.1616
 8718SOL     OW33393  11.508   6.409   7.956 -0.2043 -0.4336 -0.5242
 8718SOL    HW133394  11.532   6.327   7.999 -0.3132 -0.2909 -0.1825
 8718SOL    HW233395  11.416   6.398   7.933 -0.7281  0.2276  1.0767
 8719SOL     OW33396  11.853   9.940  10.874 -0.1995 -0.3522  0.2704
 8719SOL    HW133397  11.926   9.929  10.813 -1.2790  1.1999 -1.4381
 8719SOL    HW233398  11.891   9.926  10.960  1.6289 -1.6598 -0.6872
 8720SOL     OW33399   5.475  11.573   6.112  0.1816 -0.3688 -0.3078
 8720SOL    HW133400   5.447  11.488   6.147 -0.5189  0.1649  0.4766
 8720SOL    HW233401   5.440  11.575   6.023 -0.2761 -0.6868 -0.1391
 8721SOL     OW33402  12.228   3.862   7.631  0.2247  0.0511 -0.3622
 8721SOL    HW133403  12.299   3.831   7.574  0.9261 -0.8273  0.9573
 8721SOL    HW233404  12.191   3.936   7.583 -0.0736 -1.4262 -2.5985
 8722SOL     OW33405   2.793   9.981  10.621 -0.4546 -0.6414 -0.1709
 8722SOL    HW133406   2.809  10.038  10.546  0.7209  0.8157  1.1360
 8722SOL    HW233407   2.863  10.002  10.682 -1.7317 -1.3630  1.6044
 8723SOL     OW33408  10.294   2.484   5.688  0.0108 -0.2692  0.0199
 8723SOL    HW133409  10.271   2.412   5.630  0.6315 -1.7386  1.5304
 8723SOL    HW233410  10.288   2.447   5.776  0.9858  1.3384  0.8098
 8724SOL     OW33411   7.977   5.881   0.454  0.1520 -0.2798  0.5081
 8724SOL    HW133412   7.937   5.897   0.540  1.4919  0.7012  0.9772
 8724SOL    HW233413   8.071   5.888   0.469  0.3795  1.7949 -1.3665
 8725SOL     OW33414  11.942   9.430  11.338 -0.2189  0.4493 -0.0119
 8725SOL    HW133415  11.979   9.512  11.372 -1.8251  0.4978  1.8126
 8725SOL    HW233416  11.944   9.440  11.243  2.2422  1.3678  0.0679
 8726SOL     OW33417   6.161   8.627   8.308  0.2199  0.1082  0.1395
 8726SOL    HW133418   6.129   8.715   8.325 -0.7784 -0.3537  0.7735
 8726SOL    HW233419   6.242   8.639   8.258 -1.2273  1.3075 -2.0497
 8727SOL     OW33420   0.185   7.367   2.508 -0.4726  0.3078  0.6372
 8727SOL    HW133421   0.115   7.308   2.478  0.3150 -0.9094  1.1128
 8727SOL    HW233422   0.208   7.419   2.430 -1.7510  0.5925  0.4246
 8728SOL     OW33423   2.509   7.340  12.638  0.0717  0.2740 -0.4100
 8728SOL    HW133424   2.431   7.285  12.630  0.1048 -0.0950  1.2976
 8728SOL    HW233425   2.579   7.289  12.598 -0.1037 -0.4691  0.2142
 8729SOL     OW33426   0.486   2.472   9.992  0.3225  0.0103 -0.2302
 8729SOL    HW133427   0.456   2.392  10.035 -0.5357 -2.0038 -4.1103
 8729SOL    HW233428   0.456   2.543  10.050  0.3882 -2.3569  2.9602
 8730SOL     OW33429   7.937  11.395   0.690 -0.3236  0.4337  0.6456
 8730SOL    HW133430   7.948  11.325   0.754  2.5468 -0.7868 -1.0031
 8730SOL    HW233431   7.956  11.475   0.738 -0.8274 -0.1918  1.9087
 8731SOL     OW33432   1.557   8.208   8.095 -0.5636  0.3743  0.4817
 8731SOL    HW133433   1.472   8.182   8.130 -1.5897  1.5896 -0.9618
 8731SOL    HW233434   1.556   8.304   8.099  0.2630  0.4456 -0.6104
 8732SOL     OW33435   7.733   9.675   1.510 -0.0206 -0.0657  0.2144
 8732SOL    HW133436   7.782   9.757   1.502 -0.3059  0.0165 -0.8116
 8732SOL    HW233437   7.730   9.659   1.604  2.5860 -0.4694  0.3081
 8733SOL     OW33438  11.562   2.031   4.523 -0.2288  0.1732 -0.1695
 8733SOL    HW133439  11.645   2.071   4.549  1.3870 -0.1695 -4.1557
 8733SOL    HW233440  11.583   1.938   4.513 -0.8404  0.1846 -1.8762
 8734SOL     OW33441   3.242  12.632   0.149 -0.7924  0.0603 -0.1395
 8734SOL    HW133442   3.220  12.594   0.064 -1.0225 -1.4782  0.5722
 8734SOL    HW233443   3.204  12.572   0.213  1.0130  0.1412  1.0899
 8735SOL     OW33444   4.091   8.153   9.197 -0.2879 -1.0572 -0.3604
 8735SOL    HW133445   4.126   8.125   9.282 -0.4363  0.9612  0.4406
 8735SOL    HW233446   4.157   8.212   9.162 -1.6681  0.8078 -0.0057
 8736SOL     OW33447   1.597   7.804   3.951  0.6208 -0.6275  0.0726
 8736SOL    HW133448   1.522   7.853   3.917 -0.2829 -1.9073  0.1609
 8736SOL    HW233449   1.655   7.794   3.876  0.6882  0.2912 -0.0172
 8737SOL     OW33450   5.027   4.506  11.191 -0.3925  0.1740  0.8310
 8737SOL    HW133451   5.042   4.424  11.239  0.0278 -0.2364  0.0265
 8737SOL    HW233452   5.115   4.540  11.175 -0.5576  0.6562  0.9321
 8738SOL     OW33453   7.279   3.679   2.709 -0.0313 -0.0640  0.2945
 8738SOL    HW133454   7.363   3.643   2.738 -1.0686 -0.8627  2.5282
 8738SOL    HW233455   7.249   3.619   2.641 -0.0138 -1.3272  1.3709
 8739SOL     OW33456   5.359   3.115   1.691  0.4495  0.1267  0.1970
 8739SOL    HW133457   5.380   3.208   1.694  0.4670  0.1513 -0.5597
 8739SOL    HW233458   5.423   3.074   1.749  1.1526  0.4578 -0.3343
 8740SOL     OW33459   8.738   8.672   6.651  0.0183 -0.1737  0.5770
 8740SOL    HW133460   8.800   8.723   6.598 -0.1118 -0.4126  0.1934
 8740SOL    HW233461   8.794   8.610   6.699 -0.0715 -2.0984 -1.6225
 8741SOL     OW33462   6.392   8.265   5.373  0.3732 -0.0310 -0.2695
 8741SOL    HW133463   6.464   8.265   5.436 -0.6485 -2.1488  1.0364
 8741SOL    HW233464   6.333   8.195   5.403 -1.7447  0.9329 -1.8347
 8742SOL     OW33465   7.282  10.374   9.160  0.1668 -0.2934  0.1013
 8742SOL    HW133466   7.249  10.441   9.221 -1.3703  0.3215 -1.3287
 8742SOL    HW233467   7.271  10.413   9.073  1.7415 -1.3864 -0.6524
 8743SOL     OW33468   9.097   0.545  11.408 -0.2029 -0.3453  0.4687
 8743SOL    HW133469   9.141   0.515  11.487  1.0020 -0.6672 -0.3076
 8743SOL    HW233470   9.011   0.502  11.411 -0.0534 -0.5982  1.4363
 8744SOL     OW33471   6.672   5.995   2.539 -0.4788 -0.1745  0.3505
 8744SOL    HW133472   6.733   5.926   2.514 -0.0977  1.2133 -2.9764
 8744SOL    HW233473   6.718   6.042   2.609  0.2162 -1.8321  1.0870
 8745SOL     OW33474   5.823   8.276   7.610  0.4232  0.0815 -0.2914
 8745SOL    HW133475   5.871   8.314   7.684 -0.8867 -1.5390  1.4881
 8745SOL    HW233476   5.790   8.353   7.562  0.1159  1.2386  1.6418
 8746SOL     OW33477   6.043   5.211   9.168  0.2133  0.3745  0.3291
 8746SOL    HW133478   5.988   5.197   9.245 -0.2058  0.3988  0.0373
 8746SOL    HW233479   5.995   5.274   9.115  1.3320  1.7504  0.8777
 8747SOL     OW33480   9.870  11.755   5.994 -0.3695 -0.2759 -0.1868
 8747SOL    HW133481   9.956  11.759   6.035 -0.8688 -0.8855  0.9571
 8747SOL    HW233482   9.812  11.720   6.062 -1.1772 -1.5964 -1.4978
 8748SOL     OW33483   3.919   7.321   5.147  0.1663  0.1082 -0.4592
 8748SOL    HW133484   3.919   7.396   5.088  0.2410  1.1550  0.8320
 8748SOL    HW233485   3.876   7.353   5.227  1.4168 -0.8069  0.6200
 8749SOL     OW33486   0.870   4.372   0.219 -0.5150 -0.3959 -0.1129
 8749SOL    HW133487   0.844   4.404   0.306 -0.3437 -0.0554 -0.1843
 8749SOL    HW233488   0.957   4.408   0.206  0.0900 -1.6672  0.2016
 8750SOL     OW33489   3.626   8.366   9.800 -0.1301  0.4012 -0.2597
 8750SOL    HW133490   3.656   8.434   9.861  0.2971  0.6315 -0.7297
 8750SOL    HW233491   3.701   8.347   9.745 -0.9774  1.3663 -1.8055
 8751SOL     OW33492   0.133   6.430  11.706  0.4757 -0.6633  0.1462
 8751SOL    HW133493   0.198   6.491  11.740  1.8977 -1.3772 -1.1146
 8751SOL    HW233494   0.060   6.485  11.678  0.6348  0.1929  1.3460
 8752SOL     OW33495   5.839   6.226   4.484  0.7585  0.0920  0.3748
 8752SOL    HW133496   5.823   6.312   4.444 -1.7043 -0.7724 -0.7160
 8752SOL    HW233497   5.846   6.166   4.410  1.3299 -0.8132  1.1478
 8753SOL     OW33498  12.410   4.590   9.213 -0.3321 -0.5235 -0.3203
 8753SOL    HW133499  12.417   4.562   9.121  0.5194  1.1183 -0.8006
 8753SOL    HW233500  12.324   4.632   9.218  0.1372  0.5329 -0.7393
 8754SOL     OW33501   6.254   7.904   2.823 -0.0144 -0.1499 -0.0716
 8754SOL    HW133502   6.187   7.843   2.853  0.3176 -0.6812 -0.3870
 8754SOL    HW233503   6.323   7.848   2.788 -0.2916  0.4152 -1.6222
 8755SOL     OW33504   6.754   8.051   9.467  0.3449  0.0760 -0.3912
 8755SOL    HW133505   6.832   8.034   9.414 -0.3772 -2.1654 -0.8479
 8755SOL    HW233506   6.699   8.106   9.412 -0.3954 -2.2227 -2.1032
 8756SOL     OW33507   8.740   0.325   9.411  0.1866 -0.1720  0.5882
 8756SOL    HW133508   8.808   0.338   9.478  0.6757  2.6347 -0.3273
 8756SOL    HW233509   8.786   0.280   9.339  0.4539 -0.3925  0.8937
 8757SOL     OW33510   2.634   8.679  11.101 -0.1257 -0.0010  0.3221
 8757SOL    HW133511   2.661   8.697  11.191  0.2536 -1.7903  0.6029
 8757SOL    HW233512   2.617   8.766  11.063  3.5226  1.1476  0.8940
 8758SOL     OW33513   4.272  11.576   6.101 -0.2901  0.5536 -0.3898
 8758SOL    HW133514   4.261  11.540   6.013  1.4767  0.3717 -0.5704
 8758SOL    HW233515   4.279  11.499   6.158  0.8206  0.6111 -0.4197
 8759SOL     OW33516   1.968  11.105  10.438  0.2983 -0.2285 -0.5123
 8759SOL    HW133517   1.893  11.065  10.481 -0.1253  2.5713  1.6364
 8759SOL    HW233518   1.929  11.165  10.374  0.7065  0.3053 -0.2725
 8760SOL     OW33519   1.416   8.844   8.098 -0.1722 -0.5697  0.0936
 8760SOL    HW133520   1.444   8.902   8.169  0.9151  0.3583 -1.0639
 8760SOL    HW233521   1.325   8.868   8.082 -0.4454 -0.8134  1.1679
 8761SOL     OW33522  10.268  11.327   8.568  0.3779 -0.0207  0.6079
 8761SOL    HW133523  10.268  11.253   8.508 -0.6992 -1.9227  2.8027
 8761SOL    HW233524  10.325  11.301   8.640  0.1050  1.3465  1.3684
 8762SOL     OW33525   5.047  11.517   2.671  0.3436 -0.0076  0.3442
 8762SOL    HW133526   4.997  11.437   2.658  1.8151 -0.6849 -1.5473
 8762SOL    HW233527   5.022  11.573   2.597  1.8531 -0.1218 -0.2875
 8763SOL     OW33528   2.771   3.611  10.373  0.0896  0.2608 -0.5820
 8763SOL    HW133529   2.767   3.518  10.354  1.0220  0.1229 -0.1614
 8763SOL    HW233530   2.767   3.616  10.469 -1.1135  0.7262 -0.6491
 8764SOL     OW33531   2.467   6.695   6.899 -0.3478  0.2771 -0.3357
 8764SOL    HW133532   2.393   6.684   6.958 -0.2534 -1.8808 -0.5596
 8764SOL    HW233533   2.431   6.743   6.824 -1.7829 -1.4358 -0.8180
 8765SOL     OW33534   8.075   9.233   3.565 -0.2881  0.0431  0.4743
 8765SOL    HW133535   8.005   9.191   3.615 -0.2654  0.8058  1.1693
 8765SOL    HW233536   8.068   9.195   3.477 -0.9714 -0.5745  0.7841
 8766SOL     OW33537   8.827   1.375  10.493 -0.0056 -0.3158  0.2247
 8766SOL    HW133538   8.894   1.336  10.550  0.8350  1.6531  0.6709
 8766SOL    HW233539   8.801   1.455  10.538  1.0028  1.5739 -2.3169
 8767SOL     OW33540  11.223   2.087   5.224 -0.0949 -0.2446  0.0943
 8767SOL    HW133541  11.257   2.022   5.285  0.9294 -1.7431 -1.9715
 8767SOL    HW233542  11.284   2.085   5.150 -0.7004  2.2524 -0.5675
 8768SOL     OW33543   5.131   6.121   5.728  0.9957 -0.2135 -0.2593
 8768SOL    HW133544   5.219   6.152   5.751 -0.2792  2.8377  1.1038
 8768SOL    HW233545   5.095   6.190   5.674 -1.0188 -0.7948  0.2758
 8769SOL     OW33546   7.891   5.397  12.376 -0.4389  0.2072  0.1050
 8769SOL    HW133547   7.847   5.478  12.351  0.1220  1.5493  3.0575
 8769SOL    HW233548   7.919   5.359  12.293 -3.1573  1.5565 -1.5846
 8770SOL     OW33549   1.406   0.973   9.833  0.3223  0.3683 -0.2893
 8770SOL    HW133550   1.442   1.057   9.803 -0.7333  0.3339 -1.7330
 8770SOL    HW233551   1.451   0.956   9.916 -0.4206  3.0344  0.7614
 8771SOL     OW33552   2.098   8.742   9.268  0.3101  0.3322 -0.0702
 8771SOL    HW133553   2.057   8.656   9.256 -0.8437  0.7833  0.4860
 8771SOL    HW233554   2.186   8.723   9.302  0.5090 -0.6523 -1.0899
 8772SOL     OW33555   5.682  10.878   9.837  0.3742  0.0463  0.8385
 8772SOL    HW133556   5.682  10.898   9.930  1.0866  0.0298  0.8529
 8772SOL    HW233557   5.774  10.887   9.811 -0.0950  2.3178 -0.3519
 8773SOL     OW33558   5.660  10.507   2.221 -0.5398  0.2135 -0.1916
 8773SOL    HW133559   5.705  10.590   2.239 -2.1186  1.1906 -0.5518
 8773SOL    HW233560   5.640  10.509   2.128 -0.3608 -0.7105 -0.2649
 8774SOL     OW33561   9.833   7.529  10.182  0.3308  0.1215  0.5359
 8774SOL    HW133562   9.826   7.451  10.238 -1.9703 -1.0851 -1.2757
 8774SOL    HW233563   9.825   7.602  10.243  3.4560 -0.9025  2.4222
 8775SOL     OW33564   8.339   0.012   3.622 -0.8913  0.2893 -0.1574
 8775SOL    HW133565   8.388  -0.055   3.575  1.8637  2.8243 -1.1915
 8775SOL    HW233566   8.267   0.034   3.562  0.9794  1.5365 -2.0783
 8776SOL     OW33567   2.045   4.037   2.442 -0.0467  0.1102 -0.1111
 8776SOL    HW133568   2.057   4.001   2.354 -2.2096 -3.4211  0.8327
 8776SOL    HW233569   2.006   3.966   2.492 -1.0715  2.6976  3.1589
 8777SOL     OW33570   3.386  10.402   3.633  0.4810 -0.4544 -0.3288
 8777SOL    HW133571   3.476  10.432   3.631 -0.3882  2.7229  1.2697
 8777SOL    HW233572   3.372  10.375   3.724 -0.2002 -0.8803 -0.5533
 8778SOL     OW33573  10.036   1.043  12.633 -0.8892  0.0231 -0.1503
 8778SOL    HW133574  10.035   1.127  12.588  0.0970 -0.5424 -1.2966
 8778SOL    HW233575  10.076   1.061  12.718  1.0506  0.3976 -1.1088
 8779SOL     OW33576   3.206   9.760   9.683 -0.3880 -0.2046 -0.2848
 8779SOL    HW133577   3.125   9.783   9.637 -1.3494 -1.3762  0.7597
 8779SOL    HW233578   3.212   9.825   9.754  1.0962  1.6032 -1.9544
 8780SOL     OW33579   7.885   4.674  11.532  0.3524 -0.3345  0.1980
 8780SOL    HW133580   7.942   4.678  11.608  1.6466  1.3566 -0.7849
 8780SOL    HW233581   7.838   4.591  11.541  1.5224 -0.8489  2.0568
 8781SOL     OW33582  12.164   0.761   1.529 -0.4881 -0.0702 -0.0631
 8781SOL    HW133583  12.103   0.826   1.561  0.6998  0.9425  0.2244
 8781SOL    HW233584  12.214   0.733   1.606 -0.7015 -1.0282 -0.2528
 8782SOL     OW33585  10.487  11.205   1.845 -0.2470 -0.6604  0.4088
 8782SOL    HW133586  10.430  11.128   1.850 -1.5179  0.2504  0.5895
 8782SOL    HW233587  10.551  11.184   1.778 -0.5454 -1.8950  0.4951
 8783SOL     OW33588  12.547   9.489  12.580  0.1059 -0.0980  1.1062
 8783SOL    HW133589  12.524   9.414  12.635 -1.7423 -0.2452  0.2140
 8783SOL    HW233590  12.548   9.564  12.640 -4.0614  0.1415  1.1761
 8784SOL     OW33591  11.513   4.691   9.637  0.5831  0.3815 -0.1252
 8784SOL    HW133592  11.558   4.770   9.609  1.4166 -0.3694 -1.0135
 8784SOL    HW233593  11.525   4.629   9.564  1.8817 -1.2835  1.3900
 8785SOL     OW33594  12.576   8.010   3.547  0.3230  0.2946  0.1488
 8785SOL    HW133595  12.487   8.008   3.511  0.1974 -2.4166  0.4474
 8785SOL    HW233596  12.564   8.016   3.642  0.4547 -0.0967  0.1913
 8786SOL     OW33597  10.492   0.484   3.220  0.1227 -0.2778  0.4369
 8786SOL    HW133598  10.555   0.499   3.289 -0.4429 -0.0843  0.9194
 8786SOL    HW233599  10.543   0.446   3.148  0.5089 -1.7098  1.4198
 8787SOL     OW33600   0.223   6.040   6.783  0.2655  0.0047  0.3402
 8787SOL    HW133601   0.156   6.032   6.715 -0.7412  0.4583  1.2520
 8787SOL    HW233602   0.306   6.036   6.735 -0.4100 -0.0259 -0.8715
 8788SOL     OW33603   8.056   8.073   7.840  0.3437 -0.2079 -0.4778
 8788SOL    HW133604   8.141   8.111   7.859  0.2567 -0.1919 -0.1183
 8788SOL    HW233605   7.993   8.130   7.885  0.1150 -0.0128 -1.0337
 8789SOL     OW33606  10.805   8.574   3.226 -0.1009  0.6228  0.0171
 8789SOL    HW133607  10.755   8.525   3.291  1.3563 -0.2866  0.5015
 8789SOL    HW233608  10.786   8.666   3.245 -2.5133  0.3192 -0.6077
 8790SOL     OW33609   9.043   0.877  11.242 -0.3957 -0.3242  0.3558
 8790SOL    HW133610   8.987   0.838  11.309  1.8988 -1.5300  1.6920
 8790SOL    HW233611   9.008   0.965  11.230 -0.7826  0.0245  3.3225
 8791SOL     OW33612  10.858   6.933  12.669  0.5423 -0.0045 -0.2668
 8791SOL    HW133613  10.838   7.027  12.665  2.0045  0.3486  0.2937
 8791SOL    HW233614  10.922   6.919  12.599  0.3124 -0.5989 -0.3643
 8792SOL     OW33615   8.894  10.262   9.695  0.4123 -0.4897  0.1428
 8792SOL    HW133616   8.833  10.250   9.622  0.0085  3.5902 -0.4110
 8792SOL    HW233617   8.973  10.216   9.668 -0.0028  0.2048 -2.5184
 8793SOL     OW33618   9.555   2.478   0.288 -0.4417  0.0907  0.9071
 8793SOL    HW133619   9.602   2.421   0.349 -1.5145 -1.7273  0.1169
 8793SOL    HW233620   9.624   2.518   0.235  0.3679 -0.2197  1.7012
 8794SOL     OW33621   4.425   0.209   9.645 -0.2745  0.2029  0.4070
 8794SOL    HW133622   4.518   0.205   9.667 -0.4481 -2.1821  0.9905
 8794SOL    HW233623   4.417   0.156   9.566 -0.8726  2.1880 -0.9568
 8795SOL     OW33624   6.190   4.191   9.069 -0.5195 -0.3963 -0.1673
 8795SOL    HW133625   6.262   4.157   9.016 -0.1263 -0.3529  0.3334
 8795SOL    HW233626   6.219   4.277   9.097  0.6264 -1.5546  2.6093
 8796SOL     OW33627  10.323   6.808   3.546  0.0687  0.6298 -0.2634
 8796SOL    HW133628  10.385   6.877   3.570  1.2878 -0.0106 -1.4618
 8796SOL    HW233629  10.337   6.739   3.610  0.4959  0.5415 -0.4532
 8797SOL     OW33630   2.879   9.570  10.580 -0.2742 -0.1446  0.5088
 8797SOL    HW133631   2.929   9.532  10.508 -0.5587  0.5816 -0.0752
 8797SOL    HW233632   2.941   9.572  10.654  0.0697 -0.7158  0.2408
 8798SOL     OW33633   4.008  10.209   8.149  0.0071  0.6596  0.1136
 8798SOL    HW133634   4.040  10.266   8.079 -0.6621  1.3147  0.3216
 8798SOL    HW233635   3.998  10.267   8.225  1.5819 -0.2161  1.0332
 8799SOL     OW33636   2.191   6.903   1.056  0.3736  0.3488  0.0212
 8799SOL    HW133637   2.106   6.917   1.097 -0.4682  1.7361 -2.0331
 8799SOL    HW233638   2.198   6.808   1.047  0.9051 -0.0986  3.7673
 8800SOL     OW33639   9.964   1.042  10.903  0.3779 -1.0602  0.8889
 8800SOL    HW133640  10.001   0.994  10.829  0.8953 -0.7871  0.9652
 8800SOL    HW233641  10.001   0.999  10.980  0.9630 -0.4463  0.9547
 8801SOL     OW33642   6.213   0.617   1.850 -0.1884  0.5148  0.1808
 8801SOL    HW133643   6.209   0.707   1.820 -0.0909  0.5008  0.1251
 8801SOL    HW233644   6.124   0.584   1.839 -0.0754  0.3989 -0.4454
 8802SOL     OW33645  12.555   2.245   5.515  0.4920  0.3880  0.2696
 8802SOL    HW133646  12.466   2.249   5.479 -0.2182 -0.2951  1.8700
 8802SOL    HW233647  12.609   2.284   5.447 -0.9984  0.6451 -0.8375
 8803SOL     OW33648   5.312   4.329   1.141 -0.1153 -0.2613  0.0284
 8803SOL    HW133649   5.345   4.310   1.053  2.7380 -2.7300  1.4394
 8803SOL    HW233650   5.307   4.244   1.184  2.1248  1.0358  3.2915
 8804SOL     OW33651   9.008   3.798   2.986  0.4900 -0.0975 -0.6964
 8804SOL    HW133652   8.941   3.756   2.931 -0.6287  2.2789 -1.3001
 8804SOL    HW233653   9.078   3.821   2.925  1.0050 -0.8492 -0.4047
 8805SOL     OW33654   0.372  11.193   1.122  0.8149 -0.2003 -0.5506
 8805SOL    HW133655   0.356  11.215   1.213  1.9069  1.3829 -0.6935
 8805SOL    HW233656   0.387  11.278   1.079 -1.3309 -0.7554 -2.5670
 8806SOL     OW33657   5.187   7.895   0.236 -0.4837  1.2253 -0.2233
 8806SOL    HW133658   5.249   7.962   0.207  0.1562  1.4993  1.6379
 8806SOL    HW233659   5.107   7.943   0.255 -1.1354  0.9496 -2.0838
 8807SOL     OW33660   2.250  10.970  11.134 -0.0749  0.2275 -0.1704
 8807SOL    HW133661   2.209  11.038  11.188 -0.1049  0.1172 -0.0529
 8807SOL    HW233662   2.337  10.958  11.173 -1.5322 -2.9439  2.7043
 8808SOL     OW33663   0.729   1.675   3.760  0.0685  0.0998  0.4789
 8808SOL    HW133664   0.731   1.651   3.852 -1.1412  3.1931  1.4436
 8808SOL    HW233665   0.656   1.736   3.752  1.1467  1.2385 -2.1853
 8809SOL     OW33666  10.597   0.153   7.742 -0.2709  0.1057  0.7183
 8809SOL    HW133667  10.630   0.207   7.670 -0.8006 -0.2250  0.2189
 8809SOL    HW233668  10.633   0.194   7.821  0.9503  0.0078  0.2276
 8810SOL     OW33669   4.292  12.573   7.193 -0.1386 -0.0279  0.1769
 8810SOL    HW133670   4.220  12.530   7.239 -2.0497  0.2396 -2.3509
 8810SOL    HW233671   4.253  12.652   7.156  1.1833 -0.2967 -1.9827
 8811SOL     OW33672   8.583   1.079   0.677 -0.4533  0.6164  0.1233
 8811SOL    HW133673   8.494   1.053   0.698 -0.2608  0.0790  0.2819
 8811SOL    HW233674   8.631   1.068   0.759  0.4490 -2.1018 -0.6821
 8812SOL     OW33675   4.227   2.298   2.661 -0.1011 -0.0756  0.4700
 8812SOL    HW133676   4.234   2.237   2.735 -0.9788 -1.1654 -0.3045
 8812SOL    HW233677   4.315   2.303   2.625  0.0554 -0.6508  0.7534
 8813SOL     OW33678   7.145   4.405  12.519 -0.0297  0.3891 -0.2040
 8813SOL    HW133679   7.205   4.334  12.497  0.3358  0.6495 -0.0479
 8813SOL    HW233680   7.118   4.440  12.434  0.9695  1.0460 -0.2668
 8814SOL     OW33681  10.922   8.088   8.937  1.3718  0.2763  0.5565
 8814SOL    HW133682  10.830   8.098   8.961  0.8374 -1.7637 -0.3461
 8814SOL    HW233683  10.938   8.154   8.870  0.8880  1.3347  1.4599
 8815SOL     OW33684   9.212   2.720   0.934  0.2594  0.3351 -0.2081
 8815SOL    HW133685   9.307   2.719   0.921  0.3545  0.2942  0.4681
 8815SOL    HW233686   9.193   2.810   0.958 -0.1653  0.8612 -2.3463
 8816SOL     OW33687   3.294  11.544   8.214 -0.1072 -0.6240 -0.1015
 8816SOL    HW133688   3.265  11.460   8.179 -0.3011 -0.2741 -0.7874
 8816SOL    HW233689   3.383  11.527   8.246 -0.1013 -1.0546 -0.3398
 8817SOL     OW33690   8.688   7.547   4.941  0.5536  0.4287  0.5236
 8817SOL    HW133691   8.727   7.503   4.865 -1.5864 -0.7993  0.0491
 8817SOL    HW233692   8.695   7.483   5.011 -1.7105 -0.4315  0.0739
 8818SOL     OW33693   1.803  12.513  12.157  0.0641  0.0763  0.1395
 8818SOL    HW133694   1.878  12.458  12.177 -1.1921 -2.2259 -1.0742
 8818SOL    HW233695   1.827  12.559  12.077  0.7048  0.5083  0.5649
 8819SOL     OW33696   7.224   7.466   8.420 -0.5369  0.1402  0.2461
 8819SOL    HW133697   7.151   7.525   8.402 -0.3902  0.1090 -0.5057
 8819SOL    HW233698   7.270   7.506   8.494 -0.0359  1.3680 -0.6760
 8820SOL     OW33699   2.152  12.008  10.534  0.0405 -0.1768  0.3498
 8820SOL    HW133700   2.178  12.097  10.558 -1.9517  0.3802  0.5964
 8820SOL    HW233701   2.170  11.956  10.613 -1.1301  0.5247  1.1066
 8821SOL     OW33702   8.774  10.028   2.708 -0.0878 -0.3985  0.1418
 8821SOL    HW133703   8.810  10.049   2.794 -0.1256  1.1969 -0.2013
 8821SOL    HW233704   8.848   9.993   2.658 -0.0671 -1.3288  0.7946
 8822SOL     OW33705   0.763   6.452  12.363  0.0524  0.2097  0.2435
 8822SOL    HW133706   0.680   6.435  12.319  0.7110 -0.2754 -0.8695
 8822SOL    HW233707   0.791   6.538  12.329  0.4425 -0.0521 -0.1097
 8823SOL     OW33708   8.917  10.996   0.925 -0.0638  0.9250 -0.3696
 8823SOL    HW133709   9.003  11.004   0.885 -0.0524  1.5927 -0.2271
 8823SOL    HW233710   8.855  11.004   0.853 -0.0094  0.6179 -0.4499
 8824SOL     OW33711   9.858   1.234   7.779 -0.0710  0.3992  0.0291
 8824SOL    HW133712   9.770   1.219   7.814  0.3842  1.3999  1.7114
 8824SOL    HW233713   9.914   1.237   7.856  1.1286  1.8304 -0.8478
 8825SOL     OW33714  10.520   7.522   5.558 -0.3623 -0.1787  0.0060
 8825SOL    HW133715  10.435   7.557   5.531 -0.5277 -0.0742  0.6441
 8825SOL    HW233716  10.530   7.441   5.508 -2.6094 -2.2824  2.6699
 8826SOL     OW33717  10.443   8.322   5.794  0.3302  0.0379  0.3915
 8826SOL    HW133718  10.525   8.313   5.745  0.7062  0.0093  1.0201
 8826SOL    HW233719  10.398   8.394   5.750 -0.0337 -0.9675 -0.9520
 8827SOL     OW33720   8.210   0.194   0.962  0.1727 -0.1060 -0.7725
 8827SOL    HW133721   8.271   0.206   0.890  1.1722 -0.9265 -0.0974
 8827SOL    HW233722   8.226   0.268   1.020  1.7650 -1.1641  0.2241
 8828SOL     OW33723   0.085  12.436  12.304  0.2313 -0.0371  0.8090
 8828SOL    HW133724   0.099  12.346  12.276 -0.7663 -0.2687  1.0256
 8828SOL    HW233725   0.159  12.485  12.266 -0.2274 -0.6148 -0.8966
 8829SOL     OW33726  11.162  11.715   5.780 -0.3872  0.1243 -0.1800
 8829SOL    HW133727  11.243  11.732   5.733  0.4812  1.1759  1.6164
 8829SOL    HW233728  11.133  11.630   5.747  0.4322  0.5708 -2.1930
 8830SOL     OW33729   9.113   5.218   6.152 -0.4387 -0.3220 -0.0154
 8830SOL    HW133730   9.035   5.253   6.195 -1.0190  1.1522 -2.0698
 8830SOL    HW233731   9.078   5.166   6.079  0.4744  0.2496 -0.8895
 8831SOL     OW33732   4.347  10.073  12.500 -0.0987  0.1696 -0.1528
 8831SOL    HW133733   4.260  10.112  12.513  0.3138  1.2119 -0.4628
 8831SOL    HW233734   4.329   9.987  12.462 -1.0256  0.0722  0.4768
 8832SOL     OW33735   6.272   5.596   4.336  0.1323  0.0054 -0.0923
 8832SOL    HW133736   6.315   5.678   4.311 -1.6659  0.7236 -1.0151
 8832SOL    HW233737   6.180   5.620   4.347 -0.2888 -1.7373  0.4549
 8833SOL     OW33738   9.512   9.854   7.438  0.1915 -0.2583 -0.8583
 8833SOL    HW133739   9.581   9.791   7.459  0.7093  0.8916  1.2190
 8833SOL    HW233740   9.526   9.926   7.500 -3.1665 -0.2056  0.0388
 8834SOL     OW33741   9.341   6.286   7.873 -0.3364 -0.4186 -0.3211
 8834SOL    HW133742   9.346   6.228   7.797 -0.3124  0.0009 -0.6424
 8834SOL    HW233743   9.395   6.361   7.849  1.7703 -1.3945  1.1130
 8835SOL     OW33744   1.603   6.840   9.196  0.3028 -0.6332  0.0836
 8835SOL    HW133745   1.521   6.792   9.188 -0.8172  1.3834 -1.4875
 8835SOL    HW233746   1.601   6.876   9.285 -0.9923  0.1957 -0.2663
 8836SOL     OW33747   5.383   8.329   5.121 -0.1418 -0.0681 -0.5385
 8836SOL    HW133748   5.451   8.293   5.177  0.0708  1.1207 -0.0090
 8836SOL    HW233749   5.392   8.281   5.038  0.7634 -0.5169 -0.1876
 8837SOL     OW33750   8.416   6.915  12.371  0.2920 -0.0850  0.4172
 8837SOL    HW133751   8.497   6.966  12.372 -0.4664  1.2001  1.4818
 8837SOL    HW233752   8.356   6.966  12.426 -1.4360 -0.6509 -0.8478
 8838SOL     OW33753   0.139   0.373   7.191 -0.5051  0.0438  0.1129
 8838SOL    HW133754   0.186   0.347   7.270 -0.1935  1.4555  0.4340
 8838SOL    HW233755   0.054   0.330   7.197 -0.5673  0.3140  1.3403
 8839SOL     OW33756   6.515   4.563  12.483  0.4422  0.0570  0.2640
 8839SOL    HW133757   6.430   4.558  12.440  0.1200  0.6862  0.8075
 8839SOL    HW233758   6.504   4.514  12.565  0.2540  1.0815  0.8669
 8840SOL     OW33759   0.076   1.613   4.948 -0.1324  0.5500 -0.2503
 8840SOL    HW133760   0.083   1.560   4.869 -0.2447 -0.0873  0.1549
 8840SOL    HW233761   0.166   1.618   4.981 -0.4339 -1.5890  1.0924
 8841SOL     OW33762   5.453   8.890  12.142 -0.5591  0.3957  0.2851
 8841SOL    HW133763   5.513   8.889  12.067  0.7445  0.5503  1.2982
 8841SOL    HW233764   5.510   8.892  12.218 -1.8739  1.6262  1.2744
 8842SOL     OW33765  12.014   9.057   8.189 -0.3976 -0.0318 -0.0733
 8842SOL    HW133766  11.968   9.012   8.117  0.6934 -0.1600 -0.7036
 8842SOL    HW233767  12.074   9.117   8.145  0.5754 -0.3972  0.7249
 8843SOL     OW33768   1.943   7.630  12.220 -0.2341  0.2041  0.1696
 8843SOL    HW133769   1.983   7.621  12.133  0.9528 -0.1723  0.7411
 8843SOL    HW233770   1.939   7.725  12.234  1.6264  0.2459  0.6107
 8844SOL     OW33771   3.604   3.829   1.084  0.0642  0.2671 -0.3038
 8844SOL    HW133772   3.595   3.735   1.067  0.5055  0.1752 -0.0626
 8844SOL    HW233773   3.660   3.861   1.013  0.2096  0.2783 -0.1844
 8845SOL     OW33774  12.365   2.950  12.658 -0.0477  0.1325 -0.7007
 8845SOL    HW133775  12.341   3.027  12.607 -1.2772 -0.0278 -0.3980
 8845SOL    HW233776  12.439   2.978  12.711  0.0343  0.8614 -1.1967
 8846SOL     OW33777   5.782   5.035   3.913  0.6157 -0.8052 -0.4247
 8846SOL    HW133778   5.739   5.118   3.893 -0.2384 -1.2456 -0.4749
 8846SOL    HW233779   5.848   5.024   3.845  1.2159  0.1638 -0.0151
 8847SOL     OW33780  11.801   3.622   5.006 -0.4664 -0.4570  0.3109
 8847SOL    HW133781  11.783   3.706   5.048  0.7417  0.1587 -0.3770
 8847SOL    HW233782  11.741   3.619   4.932 -0.3981 -0.1254  0.2404
 8848SOL     OW33783   0.982   0.999  11.055  0.1059  0.1672 -0.6923
 8848SOL    HW133784   0.948   0.910  11.048  0.9818 -0.3000  0.6248
 8848SOL    HW233785   1.077   0.990  11.046  0.1646  1.0362 -1.0865
 8849SOL     OW33786   5.674   4.331   1.726 -0.5758  0.0022  0.5495
 8849SOL    HW133787   5.765   4.323   1.754 -0.5162  0.2650  0.4346
 8849SOL    HW233788   5.651   4.422   1.746 -1.3033 -0.4655  2.0421
 8850SOL     OW33789   8.343   5.432   0.796 -0.1385  0.5887  0.4107
 8850SOL    HW133790   8.299   5.509   0.758  2.2229  0.6453 -2.5789
 8850SOL    HW233791   8.398   5.399   0.725  1.0114 -2.2799  2.4769
 8851SOL     OW33792   1.794   1.479   2.360  0.1843  0.0267  0.4045
 8851SOL    HW133793   1.865   1.416   2.373 -0.9934 -1.5671 -0.4722
 8851SOL    HW233794   1.828   1.541   2.296  1.1979 -0.0020  0.9043
 8852SOL     OW33795   4.896   2.667   0.924  0.8917  0.0444 -0.0830
 8852SOL    HW133796   4.891   2.595   0.861  1.2335 -0.9908  1.0339
 8852SOL    HW233797   4.820   2.721   0.904  1.2137 -0.0297 -1.6353
 8853SOL     OW33798   5.517   2.315   0.037  0.2289 -0.1341  0.5740
 8853SOL    HW133799   5.582   2.347  -0.026  0.6649  0.2564  1.2219
 8853SOL    HW233800   5.529   2.220   0.037  2.1173  0.0489  2.0740
 8854SOL     OW33801   3.267   4.968  11.060  0.5722 -0.1701  0.5529
 8854SOL    HW133802   3.247   5.056  11.029 -1.8905  0.1419  2.6601
 8854SOL    HW233803   3.342   4.980  11.119  0.8591  0.3138  0.1049
 8855SOL     OW33804   5.081   6.452  12.001 -0.1477  0.7545 -0.2286
 8855SOL    HW133805   5.042   6.522  11.948 -0.5726  1.1564  0.5831
 8855SOL    HW233806   5.006   6.408  12.041  0.0543 -0.8484 -1.5231
 8856SOL     OW33807   5.578   3.819   6.056  0.0477 -0.5434 -0.1900
 8856SOL    HW133808   5.669   3.836   6.032 -0.0763 -0.6856 -0.7821
 8856SOL    HW233809   5.583   3.749   6.121  0.4693  0.6855  1.1622
 8857SOL     OW33810   8.107   7.782   9.032  0.1268  0.1308 -0.1761
 8857SOL    HW133811   8.074   7.732   8.957  2.2874  1.4999 -2.1701
 8857SOL    HW233812   8.055   7.862   9.032  1.5609  1.1252 -1.6934
 8858SOL     OW33813   7.584  10.984   4.985  0.6682 -0.2237 -0.4615
 8858SOL    HW133814   7.633  11.065   4.997  1.1038 -0.5882  0.2515
 8858SOL    HW233815   7.618  10.925   5.052  0.0885 -0.8726 -0.7302
 8859SOL     OW33816   9.779   9.287   5.885  0.1453 -0.0732  0.1957
 8859SOL    HW133817   9.809   9.322   5.969  1.7702  1.0779 -0.8099
 8859SOL    HW233818   9.685   9.274   5.897  0.5636 -1.4790  2.6937
 8860SOL     OW33819   9.833   6.147  10.886  0.2886 -1.0800  0.0296
 8860SOL    HW133820   9.887   6.103  10.821 -1.4636 -2.8864 -0.2875
 8860SOL    HW233821   9.833   6.089  10.961 -0.9096 -0.9566  0.1479
 8861SOL     OW33822  12.179   3.086   8.211 -0.6620  0.6154 -0.3844
 8861SOL    HW133823  12.092   3.047   8.222 -0.6612  0.8271  0.4297
 8861SOL    HW233824  12.202   3.120   8.298 -1.1023  3.3695 -1.2449
 8862SOL     OW33825   9.302   5.994  10.554 -0.3443  0.0421 -0.8706
 8862SOL    HW133826   9.394   5.973  10.541 -0.7148 -0.9780 -1.9241
 8862SOL    HW233827   9.271   6.023  10.469 -1.1066  0.0013 -0.6161
 8863SOL     OW33828   9.157   9.390   1.070  0.4473 -0.2451  0.3676
 8863SOL    HW133829   9.231   9.410   1.127  0.1140  0.1229  0.6808
 8863SOL    HW233830   9.194   9.384   0.982  0.4772  2.5916  0.0993
 8864SOL     OW33831   0.667   6.754   6.404 -0.4984  0.3574 -0.0583
 8864SOL    HW133832   0.748   6.795   6.375  0.5272  0.2353  2.3725
 8864SOL    HW233833   0.630   6.815   6.468 -0.5056 -1.0603  1.3822
 8865SOL     OW33834  10.945   5.285   5.271  0.3171 -0.0716  0.5368
 8865SOL    HW133835  10.950   5.190   5.283  1.4877 -0.1024 -0.0225
 8865SOL    HW233836  10.938   5.297   5.177 -0.6429  0.3957  0.6489
 8866SOL     OW33837   5.932  10.669   2.597 -0.3284 -0.5607 -0.0418
 8866SOL    HW133838   5.896  10.665   2.508 -3.5131 -0.8409  1.1065
 8866SOL    HW233839   5.912  10.758   2.627  2.2158  0.0901 -0.0957
 8867SOL     OW33840   7.436   8.476   5.203 -0.6579  0.0657  0.6254
 8867SOL    HW133841   7.474   8.551   5.157  0.7671 -0.6119  0.6684
 8867SOL    HW233842   7.405   8.512   5.286 -0.6650  0.7413  0.3371
 8868SOL     OW33843   5.195   1.391   8.463  0.1064  0.2823 -0.3490
 8868SOL    HW133844   5.221   1.429   8.547 -1.8534 -0.8644  0.8426
 8868SOL    HW233845   5.127   1.450   8.431  0.3260  0.3075 -0.7689
 8869SOL     OW33846  10.738   0.995  10.146 -0.1751 -0.5208  0.4042
 8869SOL    HW133847  10.798   1.067  10.161 -1.5283  0.7011  0.2361
 8869SOL    HW233848  10.730   0.990  10.050  1.1084 -1.9621  0.3393
 8870SOL     OW33849   7.740   2.816   5.820 -0.3318  0.1232  0.1023
 8870SOL    HW133850   7.757   2.742   5.762 -0.6759  1.0284 -1.2024
 8870SOL    HW233851   7.794   2.798   5.898  1.0944 -0.5405 -0.9781
 8871SOL     OW33852  10.808   2.913   3.081 -0.2763  0.2623  0.1811
 8871SOL    HW133853  10.830   2.922   2.989  3.1483 -0.4461  0.7907
 8871SOL    HW233854  10.865   2.974   3.126 -2.0857  0.8154  1.8791
 8872SOL     OW33855   8.536   4.032   3.788  0.1938 -0.0611  0.2632
 8872SOL    HW133856   8.609   4.083   3.753  0.3945 -0.2275  0.4376
 8872SOL    HW233857   8.478   4.098   3.826 -1.9458  0.5710 -3.6086
 8873SOL     OW33858  10.506   1.665   6.780 -0.0188 -0.0367 -0.0548
 8873SOL    HW133859  10.584   1.719   6.765 -0.5211  0.7101 -0.0599
 8873SOL    HW233860  10.535   1.575   6.764  0.7298  0.2699 -0.4749
 8874SOL     OW33861  11.395   5.274   4.283  0.2170  0.0981  0.2192
 8874SOL    HW133862  11.357   5.358   4.310 -0.4305 -0.3246  0.6581
 8874SOL    HW233863  11.324   5.230   4.236  0.2087 -0.6412  0.9146
 8875SOL     OW33864   0.608   5.766   1.106 -0.0348  0.1937 -0.0960
 8875SOL    HW133865   0.549   5.707   1.154 -0.1511 -1.3292 -1.9750
 8875SOL    HW233866   0.554   5.842   1.085 -0.4140  0.1976  0.8471
 8876SOL     OW33867   8.719   4.758   8.144 -0.9950  0.5311  0.4997
 8876SOL    HW133868   8.761   4.823   8.201  0.1896 -0.2870  0.5831
 8876SOL    HW233869   8.773   4.680   8.152 -2.6469 -0.6363  0.7444
 8877SOL     OW33870   1.624   2.204  12.677  0.5293  0.2675 -0.0023
 8877SOL    HW133871   1.683   2.155  12.619  0.0407 -0.1560 -0.1431
 8877SOL    HW233872   1.683   2.246  12.740  0.9360 -0.7406  0.3056
 8878SOL     OW33873   8.727   1.184   1.345 -0.1449 -0.3731 -0.4037
 8878SOL    HW133874   8.696   1.201   1.434 -0.0487 -3.2724  0.2944
 8878SOL    HW233875   8.647   1.183   1.293 -0.1143  2.4181 -0.6631
 8879SOL     OW33876   7.164  11.819   3.099  0.5629 -0.5738 -0.2982
 8879SOL    HW133877   7.236  11.867   3.058 -0.9243  0.0457 -2.4031
 8879SOL    HW233878   7.170  11.731   3.061  0.5853 -0.7177  0.0330
 8880SOL     OW33879   1.149   7.298   5.972 -0.3263  0.5044  0.5894
 8880SOL    HW133880   1.112   7.211   5.985 -2.2482  0.8778 -1.8362
 8880SOL    HW233881   1.087   7.358   6.014  0.7697  0.7991  1.8756
 8881SOL     OW33882  11.813   4.706   3.454 -0.2158  0.0569  0.4075
 8881SOL    HW133883  11.889   4.752   3.490  0.2986 -2.1679  2.3540
 8881SOL    HW233884  11.770   4.666   3.529 -1.1278 -1.9108 -1.0560
 8882SOL     OW33885   0.793   3.081  12.334  0.6225  0.8604  0.2838
 8882SOL    HW133886   0.771   3.155  12.391 -2.7936 -1.4961  2.3534
 8882SOL    HW233887   0.785   3.117  12.245 -0.7822  3.0359  1.1894
 8883SOL     OW33888   9.228   5.773   2.124 -0.2491  0.2459 -0.6562
 8883SOL    HW133889   9.165   5.837   2.091  0.6738  0.9698 -1.0328
 8883SOL    HW233890   9.229   5.704   2.058 -1.7348 -0.5223  0.0649
 8884SOL     OW33891   8.331  12.623   3.922 -0.4166  0.1222 -0.1363
 8884SOL    HW133892   8.413  12.583   3.951 -0.5311 -0.4735 -0.6030
 8884SOL    HW233893   8.353  12.715   3.906  0.1300 -0.0082 -0.1548
 8885SOL     OW33894   6.337   9.819   8.674 -0.3066 -0.1404  0.3103
 8885SOL    HW133895   6.289   9.813   8.591  0.9376  0.0387 -0.4475
 8885SOL    HW233896   6.341   9.913   8.692  0.5816 -0.0854 -0.1379
 8886SOL     OW33897   6.917   4.395   7.521  0.3900  0.2503  0.2888
 8886SOL    HW133898   7.007   4.414   7.547 -0.6049  2.5936  2.4507
 8886SOL    HW233899   6.885   4.478   7.483 -1.3133 -0.0161  1.0646
 8887SOL     OW33900   0.515   7.969   6.819 -0.3325 -0.0748  0.5101
 8887SOL    HW133901   0.503   8.064   6.830  0.8315  0.4214 -1.9389
 8887SOL    HW233902   0.600   7.960   6.776 -1.3858 -2.0605 -1.3519
 8888SOL     OW33903   5.315   8.691  10.848 -0.0551 -0.8792  0.6114
 8888SOL    HW133904   5.315   8.780  10.813 -2.6613 -1.6952 -1.8311
 8888SOL    HW233905   5.269   8.699  10.932  0.2560  0.1347  0.7014
 8889SOL     OW33906   1.002   4.181   1.280  0.1594  0.1201  0.1465
 8889SOL    HW133907   0.965   4.193   1.367 -1.5789  0.6544 -0.6386
 8889SOL    HW233908   0.927   4.179   1.221  1.1341 -2.2800 -1.1721
 8890SOL     OW33909   7.854   7.408   4.737 -0.1048 -0.0604  0.0868
 8890SOL    HW133910   7.869   7.337   4.675 -2.3036  0.7608 -1.4834
 8890SOL    HW233911   7.927   7.468   4.723  0.1315 -0.5283 -0.7458
 8891SOL     OW33912   1.371   8.184   0.801  0.0001  0.3311  0.0142
 8891SOL    HW133913   1.448   8.199   0.746  0.1190 -0.4793 -0.0544
 8891SOL    HW233914   1.404   8.190   0.890  0.4228 -1.2735 -0.0088
 8892SOL     OW33915  12.150   9.819   9.486 -0.2180 -0.4860  0.2268
 8892SOL    HW133916  12.139   9.786   9.397  3.5388 -2.3289  0.2306
 8892SOL    HW233917  12.111   9.906   9.484 -1.3189 -0.9114 -2.8510
 8893SOL     OW33918   4.305   8.167  11.757  0.0629  0.1121  0.2323
 8893SOL    HW133919   4.230   8.197  11.704  0.1559  0.1137  0.1004
 8893SOL    HW233920   4.362   8.244  11.762 -0.0920  0.2033  0.5945
 8894SOL     OW33921  10.209   0.217   0.629  0.1493  0.0381  0.0641
 8894SOL    HW133922  10.130   0.193   0.581 -0.4034  1.5661  0.1592
 8894SOL    HW233923  10.197   0.309   0.652  1.9945  0.3442  0.0033
 8895SOL     OW33924  11.180   2.081   1.247  0.4278  0.0052  0.2852
 8895SOL    HW133925  11.093   2.064   1.212 -0.5695  0.0313  2.5475
 8895SOL    HW233926  11.233   2.101   1.171 -1.5115 -0.1193 -1.1814
 8896SOL     OW33927   6.365   3.852   1.498 -0.1975 -0.1709 -0.6579
 8896SOL    HW133928   6.444   3.803   1.520 -0.3065 -0.4563 -0.8945
 8896SOL    HW233929   6.392   3.908   1.424 -0.2463 -0.3454 -0.8069
 8897SOL     OW33930   2.350   8.785   8.803  0.3429  0.7449 -0.1686
 8897SOL    HW133931   2.439   8.764   8.832 -0.1955 -2.1663 -0.3220
 8897SOL    HW233932   2.301   8.800   8.884  0.4278 -0.2036  0.0692
 8898SOL     OW33933   4.042   3.111   2.801 -0.3288 -0.3836  0.2716
 8898SOL    HW133934   4.118   3.164   2.824  0.0686 -0.5459 -0.6097
 8898SOL    HW233935   4.046   3.104   2.705 -1.4772 -0.3595  0.2038
 8899SOL     OW33936   6.512  11.982   9.059  0.2000 -0.2318 -0.2823
 8899SOL    HW133937   6.506  11.938   9.144  2.7707  0.0028  0.1059
 8899SOL    HW233938   6.489  12.073   9.077  1.6755  0.0366  0.4451
 8900SOL     OW33939   8.453   1.395  11.261  0.3259 -0.1022  0.8123
 8900SOL    HW133940   8.541   1.368  11.289  0.0767 -1.2707  0.4931
 8900SOL    HW233941   8.441   1.354  11.176 -0.5393  0.0402  0.8549
 8901SOL     OW33942   1.564   7.798   4.702  0.1672  0.6726  0.1579
 8901SOL    HW133943   1.566   7.893   4.693  0.4179  0.9171  2.1970
 8901SOL    HW233944   1.625   7.780   4.774 -1.3830 -0.8317  1.1800
 8902SOL     OW33945   6.995   4.369   5.364 -0.4155 -0.7555 -0.1798
 8902SOL    HW133946   7.083   4.350   5.397 -0.5181 -1.0892 -0.0983
 8902SOL    HW233947   6.937   4.317   5.419 -0.7592  0.3053  0.4841
 8903SOL     OW33948   2.506   2.277  11.442 -0.5503  0.1444  0.3059
 8903SOL    HW133949   2.587   2.270  11.393  0.0988 -1.2880  1.4980
 8903SOL    HW233950   2.454   2.201  11.415  0.3109 -1.3655  2.5720
 8904SOL     OW33951  12.067   5.387   6.088 -0.3160 -0.3293 -0.7500
 8904SOL    HW133952  12.129   5.411   6.157  0.9535  0.2728 -2.0575
 8904SOL    HW233953  11.997   5.452   6.095  0.3800  0.4354 -0.7552
 8905SOL     OW33954   6.430   8.381  11.976  0.1813 -0.0153  0.2572
 8905SOL    HW133955   6.414   8.354  11.886 -0.2008  1.1655 -0.0407
 8905SOL    HW233956   6.420   8.300  12.027  1.1952 -0.8494 -0.8208
 8906SOL     OW33957   8.473   1.135   4.216  0.0278  0.0412  0.2360
 8906SOL    HW133958   8.539   1.127   4.285  0.5575  0.0082 -0.2657
 8906SOL    HW233959   8.524   1.141   4.135 -0.5279  1.5140 -0.0432
 8907SOL     OW33960   7.163   0.445   3.726  0.1390 -0.1515  0.1431
 8907SOL    HW133961   7.168   0.471   3.818  1.8005  0.9296 -0.2015
 8907SOL    HW233962   7.105   0.509   3.686  0.3425  0.0897  0.2291
 8908SOL     OW33963   1.976   8.256   1.157  0.0504  0.3507  0.3104
 8908SOL    HW133964   2.049   8.255   1.094  1.6131  0.8280  2.0103
 8908SOL    HW233965   1.988   8.338   1.205 -2.6668  1.2991 -0.4457
 8909SOL     OW33966   6.413   2.638   5.783  0.0920  0.4933 -0.2575
 8909SOL    HW133967   6.505   2.635   5.759  0.1648 -0.2885  0.1060
 8909SOL    HW233968   6.395   2.552   5.821 -0.4073  1.1671  1.0755
 8910SOL     OW33969   9.280   7.076  11.675 -0.1194  0.0320  0.0985
 8910SOL    HW133970   9.307   6.991  11.641  0.7332 -0.3292  1.6246
 8910SOL    HW233971   9.338   7.139  11.633  1.4726 -0.4902  1.4322
 8911SOL     OW33972   4.034   9.731   0.408  0.6271  0.0790 -0.6559
 8911SOL    HW133973   4.107   9.719   0.348  1.0506 -0.5027 -0.0369
 8911SOL    HW233974   3.976   9.657   0.391 -0.1202  0.8546 -1.5547
 8912SOL     OW33975   1.837   9.025   3.258  0.8170 -0.0303  0.3857
 8912SOL    HW133976   1.793   9.038   3.342  0.3828 -0.0982  0.1731
 8912SOL    HW233977   1.923   8.990   3.281  0.1613 -1.4839  0.7451
 8913SOL     OW33978   6.868   5.247   3.957  0.0602 -0.1154 -0.1467
 8913SOL    HW133979   6.874   5.152   3.943  0.8446  0.0739 -1.1984
 8913SOL    HW233980   6.781   5.270   3.925  0.0924 -0.3968 -0.4450
 8914SOL     OW33981  10.456   9.355  11.049  0.4248  0.2296 -0.2977
 8914SOL    HW133982  10.373   9.343  11.095  1.0710 -1.8975  0.4189
 8914SOL    HW233983  10.490   9.438  11.083 -0.6383  0.3149  0.6111
 8915SOL     OW33984  10.459  11.022   9.351  0.2897 -0.0526  0.1757
 8915SOL    HW133985  10.374  11.010   9.308  0.3698 -1.6386  0.4079
 8915SOL    HW233986  10.523  10.991   9.287  0.5496 -0.5776  0.6783
 8916SOL     OW33987  12.676   0.038   7.653 -0.1639  0.1137 -0.7832
 8916SOL    HW133988  12.590   0.014   7.618  0.5239 -0.5568 -2.0869
 8916SOL    HW233989  12.695   0.123   7.613 -0.4103  0.4699 -0.1467
 8917SOL     OW33990   3.831   2.785  10.591  0.3099  0.4139  0.1317
 8917SOL    HW133991   3.774   2.718  10.628  0.0682  1.3791  1.6104
 8917SOL    HW233992   3.781   2.866  10.598  1.1791  0.9990 -0.1738
 8918SOL     OW33993  12.310   5.214   5.500  0.2267 -0.3118  0.1378
 8918SOL    HW133994  12.399   5.248   5.511  0.5965 -1.5990  1.4605
 8918SOL    HW233995  12.317   5.150   5.429  0.3912 -0.4758  0.2991
 8919SOL     OW33996  11.834   1.828   6.062 -0.3595  0.0725 -0.0324
 8919SOL    HW133997  11.909   1.851   6.006  0.6481 -2.9295 -0.1175
 8919SOL    HW233998  11.871   1.768   6.127 -2.7655 -2.0626 -0.4779
 8920SOL     OW33999   9.224   0.727  11.867 -0.1256 -0.5139 -0.4593
 8920SOL    HW134000   9.205   0.805  11.919  0.1198 -0.9484  0.2917
 8920SOL    HW234001   9.149   0.718  11.808 -0.1934  0.2339 -0.4880
 8921SOL     OW34002   0.005   3.419   9.166 -0.1544  0.5818 -0.1792
 8921SOL    HW134003   0.042   3.376   9.244 -1.0095 -0.0785 -0.1300
 8921SOL    HW234004   0.037   3.366   9.093  0.8592  1.3496 -0.3233
 8922SOL     OW34005   4.295   8.779   1.149 -0.1590  0.5024  0.5369
 8922SOL    HW134006   4.357   8.768   1.077  0.8421  2.3703  1.0222
 8922SOL    HW234007   4.240   8.701   1.147  0.2939  0.1792 -1.7889
 8923SOL     OW34008   3.968   9.432   7.559 -0.2435 -0.1643 -0.7416
 8923SOL    HW134009   3.988   9.338   7.566 -0.2679 -0.2911 -2.0410
 8923SOL    HW234010   3.881   9.441   7.597 -0.3219 -0.7119 -0.7747
 8924SOL     OW34011   5.230   2.304  11.023  0.3271  0.4293 -0.2286
 8924SOL    HW134012   5.290   2.339  11.089 -0.0166 -0.3243  0.4993
 8924SOL    HW234013   5.146   2.299  11.068  0.2315 -0.7296 -0.5032
 8925SOL     OW34014   6.249   9.367   8.450  0.4754 -0.4737 -0.5016
 8925SOL    HW134015   6.245   9.318   8.532  2.0661  0.0622 -0.0802
 8925SOL    HW234016   6.168   9.418   8.449  1.0122  0.5106  1.3863
 8926SOL     OW34017   6.139   8.859   5.727  0.1064 -0.2420  0.3072
 8926SOL    HW134018   6.063   8.849   5.669  0.1268 -0.0835  0.2527
 8926SOL    HW234019   6.106   8.836   5.814 -0.3703  1.2081  0.5256
 8927SOL     OW34020   5.087  10.850   2.279  0.6251 -0.1901 -0.7932
 8927SOL    HW134021   5.118  10.791   2.210  2.2166 -0.8274  0.3834
 8927SOL    HW234022   5.037  10.917   2.233  2.9584  0.3282 -2.7996
 8928SOL     OW34023   2.342   5.569  11.265 -0.0874  0.6354  0.3322
 8928SOL    HW134024   2.410   5.613  11.315 -0.2101  0.1175  0.9628
 8928SOL    HW234025   2.299   5.640  11.215 -0.8858  1.4021  2.0337
 8929SOL     OW34026  10.797   9.777  12.709 -0.0487  0.0902 -0.2008
 8929SOL    HW134027  10.880   9.729  12.714 -0.6342 -1.3169 -2.4431
 8929SOL    HW234028  10.742   9.723  12.652 -2.3810  1.1943  0.8781
 8930SOL     OW34029   5.316   9.457   6.316  0.3454 -0.1499 -0.1082
 8930SOL    HW134030   5.294   9.548   6.300 -0.2845 -0.5155 -1.5581
 8930SOL    HW234031   5.260   9.430   6.389  1.5904  0.9854  1.3166
 8931SOL     OW34032  11.831  10.990  10.974 -0.2788 -0.3450  0.3748
 8931SOL    HW134033  11.861  10.934  10.903  1.6882 -0.0082  0.8837
 8931SOL    HW234034  11.821  10.932  11.049  0.0214 -0.2952  0.4514
 8932SOL     OW34035   4.888   2.310   6.626 -0.1110  0.1719  0.1480
 8932SOL    HW134036   4.906   2.380   6.563 -0.9362 -0.0539 -0.3488
 8932SOL    HW234037   4.832   2.352   6.692  1.6002  0.6951  1.3336
 8933SOL     OW34038   1.509   6.926   1.535  0.0382  0.1986 -0.3321
 8933SOL    HW134039   1.477   6.874   1.461 -1.1466 -0.2580  0.4686
 8933SOL    HW234040   1.451   7.003   1.537  0.8622  0.8436 -0.6216
 8934SOL     OW34041   6.512   7.397  11.922 -0.2569 -0.2152  0.2734
 8934SOL    HW134042   6.439   7.451  11.951  0.1888  0.5650 -0.0399
 8934SOL    HW234043   6.538   7.433  11.837  0.7501 -0.2028  0.5629
 8935SOL     OW34044   9.127   0.277   0.946  0.9608 -0.0987  0.1095
 8935SOL    HW134045   9.044   0.231   0.939 -0.5229  2.4797 -0.6391
 8935SOL    HW234046   9.151   0.269   1.039 -0.6179 -0.1076  0.5524
 8936SOL     OW34047   1.785  12.035  11.470 -0.3852 -0.0521 -0.2766
 8936SOL    HW134048   1.748  12.111  11.424  0.6416  0.4519 -0.3164
 8936SOL    HW234049   1.880  12.050  11.467 -0.2629  0.0454  2.0674
 8937SOL     OW34050   9.756   3.766   7.945  0.6010 -0.3256 -0.3624
 8937SOL    HW134051   9.754   3.674   7.921 -1.2417 -0.9619  1.8540
 8937SOL    HW234052   9.693   3.808   7.886 -2.2349 -1.4613  1.6324
 8938SOL     OW34053   9.969  10.820   3.775 -0.2833  0.3481  0.0225
 8938SOL    HW134054   9.927  10.815   3.861 -0.8158  0.8542 -0.2042
 8938SOL    HW234055   9.953  10.910   3.746  0.8564  0.5102 -0.1210
 8939SOL     OW34056   2.061   6.351   2.272  0.1766  0.3180  0.6569
 8939SOL    HW134057   2.030   6.406   2.343  0.3776  1.0194  0.2197
 8939SOL    HW234058   2.141   6.395   2.241 -0.5919  0.7372 -0.8196
 8940SOL     OW34059   9.900   6.115  11.855  0.1168 -0.6946  0.0246
 8940SOL    HW134060   9.934   6.204  11.843 -2.4317  0.5419  1.3362
 8940SOL    HW234061   9.976   6.065  11.884  1.6418  1.0055 -0.7916
 8941SOL     OW34062   4.658   5.954  11.195 -0.8522  0.0794  0.3446
 8941SOL    HW134063   4.574   5.943  11.151 -0.8351  1.8090 -0.1734
 8941SOL    HW234064   4.723   5.935  11.128 -0.8364  1.1556  0.0377
 8942SOL     OW34065   5.386   1.373   4.919  0.4631 -0.3079 -0.2569
 8942SOL    HW134066   5.346   1.401   5.001  0.7229 -1.7375  0.3865
 8942SOL    HW234067   5.316   1.383   4.854 -0.3517 -0.9171  0.4894
 8943SOL     OW34068   0.267  10.919  12.699 -0.0406  0.3605 -0.4199
 8943SOL    HW134069   0.174  10.915  12.718 -0.1076 -1.0581 -0.9677
 8943SOL    HW234070   0.294  11.006  12.731 -1.7599  1.2734 -1.3301
 8944SOL     OW34071  10.772  10.901  10.163 -0.0790  1.0824  0.8644
 8944SOL    HW134072  10.793  10.808  10.175  0.6880  1.2263  0.6626
 8944SOL    HW234073  10.781  10.939  10.250 -2.0007  0.6751  1.2914
 8945SOL     OW34074   5.338  11.097  11.216 -0.3431 -0.4388  0.6096
 8945SOL    HW134075   5.307  11.163  11.154  0.5870  1.1325  1.7513
 8945SOL    HW234076   5.313  11.131  11.302 -0.1595 -1.7586  1.2087
 8946SOL     OW34077   7.303   6.274  12.410  0.5420  0.7479 -0.2442
 8946SOL    HW134078   7.267   6.359  12.382  1.1566  0.9413 -0.4730
 8946SOL    HW234079   7.328   6.231  12.328 -0.3302  0.0826 -0.1670
 8947SOL     OW34080   2.511   2.905   8.949  0.4435  0.3405  0.4742
 8947SOL    HW134081   2.560   2.984   8.927 -1.5906  1.1885 -1.4444
 8947SOL    HW234082   2.510   2.854   8.868 -0.5694 -0.3226  0.8895
 8948SOL     OW34083   9.247  11.054  11.165 -0.3324  0.1477 -0.0684
 8948SOL    HW134084   9.213  11.118  11.228 -0.6244  0.1243 -0.2022
 8948SOL    HW234085   9.264  11.105  11.086  0.6417  0.3025  0.2195
 8949SOL     OW34086   4.570  10.977   7.368  0.3048 -0.0300 -0.1464
 8949SOL    HW134087   4.655  10.972   7.412 -1.1967 -1.2840  2.9382
 8949SOL    HW234088   4.560  11.069   7.344  1.5833  0.5892  1.5192
 8950SOL     OW34089   0.520   3.897   5.850 -0.3800 -0.2680  0.1951
 8950SOL    HW134090   0.499   3.813   5.809 -0.5396 -1.5475  2.7244
 8950SOL    HW234091   0.545   3.875   5.939  1.8905  2.1902  0.2880
 8951SOL     OW34092   1.814   9.646  10.421  0.4239 -0.1301 -0.5143
 8951SOL    HW134093   1.883   9.581  10.437  0.0751 -0.6606 -1.1250
 8951SOL    HW234094   1.861   9.723  10.390  0.8221 -0.1523  0.0064
 8952SOL     OW34095   5.152   1.606   9.214  0.2813  0.1781  0.5092
 8952SOL    HW134096   5.201   1.687   9.201 -2.1919  2.0635  2.0652
 8952SOL    HW234097   5.105   1.593   9.131  0.3044  0.6019  0.4297
 8953SOL     OW34098   5.496   2.282  12.096 -0.0123 -0.4361  0.5540
 8953SOL    HW134099   5.433   2.349  12.120  0.9083  1.2929 -1.5434
 8953SOL    HW234100   5.574   2.302  12.147 -0.1148 -0.6103  0.7781
 8954SOL     OW34101  10.625  10.419   2.494  0.3363 -0.3830  0.2463
 8954SOL    HW134102  10.592  10.334   2.523  0.4358 -0.0590  1.3672
 8954SOL    HW234103  10.556  10.481   2.517  0.8995  0.0359  0.8631
 8955SOL     OW34104  10.438   8.704  11.044 -0.1178 -0.1888 -0.1234
 8955SOL    HW134105  10.526   8.674  11.020  0.4063  0.8826  0.3691
 8955SOL    HW234106  10.424   8.781  10.990 -0.8414 -0.4701 -0.3398
 8956SOL     OW34107   2.675   8.324   1.557  0.0334 -0.0952  0.3936
 8956SOL    HW134108   2.680   8.269   1.635 -0.7152 -0.2897  0.3165
 8956SOL    HW234109   2.707   8.268   1.486 -0.7396 -0.4632  0.3121
 8957SOL     OW34110   2.822   7.576  12.627  0.1429  0.4101 -0.2082
 8957SOL    HW134111   2.802   7.606  12.539  0.2679  0.0591 -0.3573
 8957SOL    HW234112   2.744   7.598  12.678 -0.4888 -0.6099 -0.7022
 8958SOL     OW34113   7.690  10.064   9.865 -0.2276 -0.3604  0.2265
 8958SOL    HW134114   7.690   9.968   9.874  0.6074 -0.2661  1.4749
 8958SOL    HW234115   7.731  10.095   9.945 -0.5095  1.0620 -0.1620
 8959SOL     OW34116   2.679   0.423   1.451 -0.3631 -0.5730  0.1244
 8959SOL    HW134117   2.736   0.419   1.528 -0.6826  0.3818  0.4175
 8959SOL    HW234118   2.659   0.331   1.431  1.4539 -0.9688 -0.1258
 8960SOL     OW34119   2.293  10.765   7.669  0.0501  0.0664 -0.0163
 8960SOL    HW134120   2.382  10.797   7.682 -0.2299  1.6856 -1.6450
 8960SOL    HW234121   2.266  10.733   7.755  2.4484 -1.2038  0.3658
 8961SOL     OW34122   1.663   5.257   1.676  0.0849 -0.0860  0.3902
 8961SOL    HW134123   1.611   5.251   1.596 -0.4015 -2.6107  0.8142
 8961SOL    HW234124   1.602   5.235   1.746  0.7526  1.0892  1.3913
 8962SOL     OW34125   9.751   1.607   6.419  0.0781 -0.0730  0.5883
 8962SOL    HW134126   9.656   1.608   6.437  0.2654 -2.2728  2.1241
 8962SOL    HW234127   9.783   1.688   6.458 -0.8754 -0.4150  2.1831
 8963SOL     OW34128   5.973   6.429   8.287 -0.2424 -0.3442 -0.3928
 8963SOL    HW134129   5.892   6.480   8.284  0.9024  1.5423 -0.8696
 8963SOL    HW234130   5.992   6.418   8.380 -0.4010  0.2925 -0.2833
 8964SOL     OW34131   9.941   1.394   3.112 -0.4573 -0.2143 -0.3891
 8964SOL    HW134132  10.005   1.400   3.183 -1.1639  0.9117  0.1705
 8964SOL    HW234133   9.915   1.302   3.111  1.1003 -0.6785 -0.5825
 8965SOL     OW34134   1.221   8.299   7.938 -0.2156  0.1509  0.5436
 8965SOL    HW134135   1.239   8.205   7.936  0.3707  0.2678 -0.9760
 8965SOL    HW234136   1.174   8.316   7.856  1.6247  1.5276 -0.2941
 8966SOL     OW34137  11.068  11.566   5.514 -0.3538  0.4789 -0.0426
 8966SOL    HW134138  11.032  11.478   5.522  2.1238 -0.5473  0.6094
 8966SOL    HW234139  11.011  11.609   5.451 -2.2530 -1.2247  0.4147
 8967SOL     OW34140   4.839   7.379  12.011  0.1772  0.2911  0.1952
 8967SOL    HW134141   4.911   7.443  12.009 -0.2611  0.8221  0.9213
 8967SOL    HW234142   4.798   7.392  12.097  2.7002 -3.9140  2.3607
 8968SOL     OW34143  11.068  10.078   9.175 -0.3919 -0.4546 -0.0376
 8968SOL    HW134144  11.053  10.105   9.084 -1.5632 -2.2907 -0.4374
 8968SOL    HW234145  11.160  10.049   9.176 -0.5073 -0.8857 -0.7850
 8969SOL     OW34146   4.208  10.399   5.944  0.1141  0.3566 -0.2045
 8969SOL    HW134147   4.175  10.345   5.872  0.5507 -1.4466  0.8863
 8969SOL    HW234148   4.300  10.374   5.952  0.6864  2.1986 -0.4373
 8970SOL     OW34149   1.346   2.247   7.466 -0.2956 -0.1603  0.3060
 8970SOL    HW134150   1.274   2.195   7.430 -0.4716  0.3489 -0.0856
 8970SOL    HW234151   1.419   2.185   7.473 -0.8617 -0.7621  1.0149
 8971SOL     OW34152  10.086  10.033   7.732  0.3125  0.0209 -0.3939
 8971SOL    HW134153  10.008   9.978   7.742  1.8574 -2.3983 -0.9595
 8971SOL    HW234154  10.082  10.062   7.640  0.1952 -0.3014 -0.4924
 8972SOL     OW34155   2.921   4.937   8.729 -0.2995 -0.1816  0.3684
 8972SOL    HW134156   2.900   4.880   8.655 -0.5302 -0.0417  0.3276
 8972SOL    HW234157   2.863   5.012   8.719  0.2860  0.2597  0.1899
 8973SOL     OW34158   8.645   9.837  10.614 -0.1770  0.2530  0.4976
 8973SOL    HW134159   8.602   9.751  10.616  1.7070 -0.7219  1.0264
 8973SOL    HW234160   8.710   9.833  10.684  2.2051  0.8758 -1.5743
 8974SOL     OW34161   6.775   5.439   8.945  0.3031  0.6128  0.3349
 8974SOL    HW134162   6.698   5.383   8.953  0.0358  0.7572 -1.0929
 8974SOL    HW234163   6.762   5.506   9.012 -0.3167  0.0746  0.7692
 8975SOL     OW34164   4.298  11.684   5.352  0.0283 -0.0955 -0.1369
 8975SOL    HW134165   4.285  11.619   5.420 -0.5536 -0.6580 -0.7662
 8975SOL    HW234166   4.390  11.710   5.359  0.4150 -1.3951 -0.2335
 8976SOL     OW34167   0.283  10.306   2.826  0.2659 -0.1399  0.1072
 8976SOL    HW134168   0.364  10.319   2.876 -0.3636  0.0165  1.1188
 8976SOL    HW234169   0.284  10.212   2.805  0.7680 -0.1173  0.0067
 8977SOL     OW34170   4.552   9.549  11.836  0.1940  0.1976  0.0605
 8977SOL    HW134171   4.483   9.494  11.799 -0.3287  0.7685  0.1778
 8977SOL    HW234172   4.505   9.621  11.878  0.8642  0.5723  0.1716
 8978SOL     OW34173   5.612  10.028   0.489 -0.2746  0.7640  0.6504
 8978SOL    HW134174   5.681  10.081   0.450  1.5768  0.6715  3.5114
 8978SOL    HW234175   5.547  10.017   0.419  2.0242  1.8370 -1.7978
 8979SOL     OW34176   4.149   5.355   5.552  0.3443 -0.6293  0.2500
 8979SOL    HW134177   4.103   5.376   5.633  2.1840  2.4867  0.6509
 8979SOL    HW234178   4.197   5.274   5.571 -1.5377 -1.5913  1.1820
 8980SOL     OW34179   5.851  12.075   1.573 -0.3265  0.0476  0.4506
 8980SOL    HW134180   5.857  12.000   1.513  0.1046  0.0724  0.4538
 8980SOL    HW234181   5.881  12.040   1.657  2.3242  0.7856 -0.0737
 8981SOL     OW34182  11.124  11.297  11.830 -0.0585 -0.1680 -0.6452
 8981SOL    HW134183  11.098  11.298  11.738  0.3601 -1.6056 -0.8051
 8981SOL    HW234184  11.151  11.207  11.846 -0.1348  0.0585  0.8979
 8982SOL     OW34185  11.632   7.678   1.022  0.4218 -0.3413 -0.1572
 8982SOL    HW134186  11.543   7.691   0.990  0.3145 -0.7179 -0.0187
 8982SOL    HW234187  11.666   7.604   0.971  0.7657  0.0019 -0.4302
 8983SOL     OW34188   6.054   5.561   9.809 -0.1756 -0.1611 -0.3837
 8983SOL    HW134189   6.041   5.639   9.755  0.7386 -0.2142 -0.6969
 8983SOL    HW234190   6.068   5.595   9.897 -2.8930 -0.1218  0.1095
 8984SOL     OW34191  10.080   3.226   0.878 -0.2833 -0.0334 -0.9498
 8984SOL    HW134192  10.066   3.298   0.816 -1.0488 -0.7698 -1.6732
 8984SOL    HW234193  10.094   3.150   0.822 -2.8679 -1.0984 -0.2958
 8985SOL     OW34194  11.338   3.869   3.693  0.4075  0.7337  0.0701
 8985SOL    HW134195  11.429   3.842   3.709 -0.3430 -0.6100  2.5554
 8985SOL    HW234196  11.313   3.916   3.773 -1.6593 -0.6189  0.2869
 8986SOL     OW34197   3.102  12.143   3.240  0.2683  0.4021  0.2171
 8986SOL    HW134198   3.162  12.090   3.294  0.7349  0.5996 -0.0947
 8986SOL    HW234199   3.160  12.206   3.197 -0.0352 -0.0144 -0.8306
 8987SOL     OW34200   0.668   3.542   5.513 -0.0706 -0.5039  0.1510
 8987SOL    HW134201   0.667   3.499   5.598 -0.3214 -0.1261  0.3422
 8987SOL    HW234202   0.617   3.485   5.456 -0.8832 -0.1745  0.5437
 8988SOL     OW34203   7.238   1.202   5.914  0.1979 -0.2502  0.2754
 8988SOL    HW134204   7.285   1.159   5.842  0.5138  2.9370 -1.6169
 8988SOL    HW234205   7.288   1.177   5.992  1.8968 -1.1600 -1.0126
 8989SOL     OW34206   2.361   9.607   4.453  0.1145  0.3941 -0.5418
 8989SOL    HW134207   2.298   9.639   4.388  0.4467  2.1503 -0.0540
 8989SOL    HW234208   2.389   9.522   4.419 -1.6779  0.0642 -1.3241
 8990SOL     OW34209  12.588   0.847  10.196  0.1005 -0.4811  0.0279
 8990SOL    HW134210  12.559   0.816  10.282 -0.3743  0.5934  0.2728
 8990SOL    HW234211  12.632   0.771  10.157  1.7242 -0.5691  1.8388
 8991SOL     OW34212   5.894   1.216   3.343 -0.4168  0.6785 -0.1593
 8991SOL    HW134213   5.847   1.258   3.415 -0.2496  0.2528  0.2047
 8991SOL    HW234214   5.986   1.220   3.370 -0.4247 -0.1821  0.0219
 8992SOL     OW34215   6.492  10.173   9.991  0.1107 -0.1540 -0.6042
 8992SOL    HW134216   6.418  10.227  10.019  0.2317 -0.2413 -0.1092
 8992SOL    HW234217   6.540  10.229   9.929 -0.1192  0.0671 -0.5847
 8993SOL     OW34218   3.007   3.990   0.881 -0.1369 -0.2485 -0.0560
 8993SOL    HW134219   2.964   4.057   0.828  0.0918  0.8293  1.0976
 8993SOL    HW234220   3.025   3.919   0.819 -1.4152  0.2622 -1.0553
 8994SOL     OW34221  11.633   4.800   2.039 -0.0817 -0.4540 -0.2341
 8994SOL    HW134222  11.696   4.838   1.978 -0.9058  2.4737  0.5580
 8994SOL    HW234223  11.664   4.827   2.126 -1.6290 -0.0974  0.2508
 8995SOL     OW34224   8.744   4.909   4.652 -0.1659 -0.2921 -0.1234
 8995SOL    HW134225   8.768   4.818   4.666  0.7603  0.0556  0.6120
 8995SOL    HW234226   8.822   4.950   4.615 -1.0005 -0.0751 -1.7651
 8996SOL     OW34227   4.331   6.554   4.505 -0.0261  0.0405  0.5253
 8996SOL    HW134228   4.302   6.529   4.593  0.3571 -1.5437  0.2371
 8996SOL    HW234229   4.255   6.539   4.449 -0.3527  1.3097  0.6175
 8997SOL     OW34230  10.292   4.388   3.867  0.3146 -0.1608  0.9211
 8997SOL    HW134231  10.230   4.454   3.838  0.4597 -0.5952 -0.4957
 8997SOL    HW234232  10.378   4.423   3.842  0.3759 -0.9485 -0.0360
 8998SOL     OW34233   0.031   1.644   2.642  0.0705 -0.4754 -0.0533
 8998SOL    HW134234   0.073   1.585   2.705  0.6182 -1.5465 -1.3904
 8998SOL    HW234235   0.082   1.725   2.648  1.2236 -1.1587 -0.3573
 8999SOL     OW34236   6.235   2.686   1.588 -0.0187 -0.3732 -0.5710
 8999SOL    HW134237   6.216   2.772   1.551  0.1713 -0.4181 -0.7717
 8999SOL    HW234238   6.163   2.630   1.558 -1.3229  0.1953  1.2868
 9000SOL     OW34239   1.227   6.836   7.140 -0.3047 -0.5718  0.0304
 9000SOL    HW134240   1.133   6.821   7.129 -0.5923  0.8092  0.3380
 9000SOL    HW234241   1.233   6.926   7.173  1.2609  0.7783 -3.3807
 9001SOL     OW34242   8.575   2.013  11.961  0.5917 -0.0300  0.1176
 9001SOL    HW134243   8.619   2.035  12.044  1.9459 -2.7118  0.2125
 9001SOL    HW234244   8.604   2.082  11.901  1.7386  0.5078  1.2231
 9002SOL     OW34245  10.868   5.379   5.799 -0.2129 -0.0352 -0.0196
 9002SOL    HW134246  10.875   5.284   5.794  1.1751  0.1069 -1.9726
 9002SOL    HW234247  10.817   5.403   5.721 -0.4123  0.8401  0.3693
 9003SOL     OW34248   3.992   3.889   2.766  1.0736 -0.5587  0.1983
 9003SOL    HW134249   3.998   3.793   2.756  0.8453 -0.4017 -2.0017
 9003SOL    HW234250   3.996   3.922   2.676  2.7981  1.6210  1.0068
 9004SOL     OW34251   5.007   3.126  11.128 -0.1641 -0.3452  0.9189
 9004SOL    HW134252   5.061   3.074  11.188  0.3301  1.5442  2.2187
 9004SOL    HW234253   4.919   3.123  11.167 -0.2666 -0.6732  0.6665
 9005SOL     OW34254  12.280   2.518   6.600  0.7943  0.1634 -0.1799
 9005SOL    HW134255  12.307   2.595   6.551 -0.7575  0.8341 -0.0530
 9005SOL    HW234256  12.307   2.444   6.546 -0.0621  0.8634 -1.6278
 9006SOL     OW34257   6.260  11.628   1.419 -0.6369 -0.0241  0.0727
 9006SOL    HW134258   6.316  11.627   1.341  0.4443  0.4552  0.8254
 9006SOL    HW234259   6.307  11.575   1.484 -1.6508 -0.6443  0.3422
 9007SOL     OW34260   9.643   0.595   0.287 -0.1261  0.3157  0.1543
 9007SOL    HW134261   9.730   0.561   0.269  0.9101  2.0085  1.7087
 9007SOL    HW234262   9.601   0.600   0.200  1.3249 -0.4344 -0.6201
 9008SOL     OW34263  11.461   7.499   0.823  0.1867  0.0692 -0.0298
 9008SOL    HW134264  11.417   7.434   0.768  0.6664 -0.9104  0.7157
 9008SOL    HW234265  11.554   7.477   0.816  0.3418  0.5817  0.3551
 9009SOL     OW34266   0.565   0.033   4.342  0.4007  0.3864 -0.1287
 9009SOL    HW134267   0.531   0.105   4.288 -0.7396  1.2731  1.6758
 9009SOL    HW234268   0.659   0.049   4.346  0.4046  0.7314 -1.2368
 9010SOL     OW34269   5.227   0.314   2.624 -0.6019  0.4246 -0.2507
 9010SOL    HW134270   5.303   0.292   2.677 -0.2703  1.3485 -0.3280
 9010SOL    HW234271   5.158   0.255   2.654  0.0103 -0.0925  0.1454
 9011SOL     OW34272   8.784   8.063   4.943  0.3567 -0.2047  0.0239
 9011SOL    HW134273   8.819   8.124   5.008  1.0450  1.0426 -1.4591
 9011SOL    HW234274   8.791   7.977   4.985  0.2604  0.6013  1.7925
 9012SOL     OW34275   1.614   3.612   0.719  0.2426  0.2014  0.4652
 9012SOL    HW134276   1.578   3.642   0.636 -0.1715 -2.0224 -0.2172
 9012SOL    HW234277   1.560   3.654   0.786 -0.3486  0.8674 -0.4164
 9013SOL     OW34278   4.254   7.502  10.334  0.4072  1.1074 -1.0082
 9013SOL    HW134279   4.172   7.551  10.332  1.0017  2.1540 -0.6296
 9013SOL    HW234280   4.258   7.463  10.421 -0.3564 -0.1530 -1.5172
 9014SOL     OW34281   6.511   6.091   6.787 -0.1242 -0.5660  0.0081
 9014SOL    HW134282   6.520   6.180   6.753 -1.5564 -0.6195 -0.5643
 9014SOL    HW234283   6.537   6.098   6.879  1.9344 -0.0303 -0.5716
 9015SOL     OW34284  11.555   9.422   6.607  0.2454 -0.6071 -0.0863
 9015SOL    HW134285  11.644   9.408   6.575  0.4927 -0.6455  0.5963
 9015SOL    HW234286  11.558   9.508   6.649  0.3066 -1.1348  1.0462
 9016SOL     OW34287   1.896   1.400  11.944  0.1804  0.3643  0.2766
 9016SOL    HW134288   1.934   1.421  12.029 -0.8876 -0.1873  0.9024
 9016SOL    HW234289   1.926   1.472  11.887  1.5452  0.3293  0.8983
 9017SOL     OW34290   0.847   6.171   9.032 -0.6738 -0.3383  0.0251
 9017SOL    HW134291   0.918   6.209   8.981 -0.2795  1.9561  2.0918
 9017SOL    HW234292   0.889   6.105   9.086 -0.5772 -0.7294 -0.5215
 9018SOL     OW34293   2.996   9.701  12.114  0.1223  0.2686  0.1993
 9018SOL    HW134294   2.940   9.689  12.038  1.5195  2.2505 -1.2583
 9018SOL    HW234295   3.036   9.787  12.101  1.7857 -0.1053  2.2725
 9019SOL     OW34296   1.337   6.466  10.654 -0.0264  0.3975 -0.1780
 9019SOL    HW134297   1.320   6.555  10.686 -0.4157  0.6677 -1.0929
 9019SOL    HW234298   1.431   6.466  10.635  0.0675  0.4599  0.2722
 9020SOL     OW34299   8.726   5.357  12.460  0.1672  0.1313 -0.0212
 9020SOL    HW134300   8.657   5.421  12.479 -1.3848 -1.4431 -0.1241
 9020SOL    HW234301   8.754   5.325  12.546 -0.5037 -0.5048 -0.0317
 9021SOL     OW34302   3.451  10.521   0.273  0.1824  0.0089  0.1076
 9021SOL    HW134303   3.463  10.429   0.300 -1.1870 -0.3649 -0.4678
 9021SOL    HW234304   3.537  10.548   0.240  0.4172 -1.3140 -0.4269
 9022SOL     OW34305  11.211   3.854  10.144 -0.4249  0.0872  0.4099
 9022SOL    HW134306  11.213   3.917  10.071 -1.0270  0.9086  1.0750
 9022SOL    HW234307  11.218   3.769  10.103 -2.8830  0.4036 -0.8198
 9023SOL     OW34308   2.613   0.032   7.261  0.0712  0.1670  0.2334
 9023SOL    HW134309   2.609  -0.010   7.174 -0.6514  0.5703  0.0615
 9023SOL    HW234310   2.532   0.083   7.266  1.2737  2.1915  0.1145
 9024SOL     OW34311   5.988   7.084   5.098  0.5729 -0.1136 -0.1877
 9024SOL    HW134312   6.035   7.005   5.073 -0.1117 -0.4915 -0.3202
 9024SOL    HW234313   5.909   7.083   5.044  0.8548  0.9879 -0.6394
 9025SOL     OW34314   1.779   4.195   2.466  0.2800  0.6806  0.1257
 9025SOL    HW134315   1.837   4.225   2.395  1.4414  1.5286  1.3692
 9025SOL    HW234316   1.790   4.100   2.468 -0.5656  0.5029 -1.4586
 9026SOL     OW34317   5.820   2.075   8.590 -0.4703 -0.8102 -0.6006
 9026SOL    HW134318   5.862   2.097   8.507 -1.1644 -0.8422 -0.9658
 9026SOL    HW234319   5.874   2.120   8.656  0.6938 -1.6156 -0.9596
 9027SOL     OW34320   1.296   0.232   8.746  0.2865 -0.6515 -0.0056
 9027SOL    HW134321   1.228   0.169   8.770  1.0657 -1.2121  0.7901
 9027SOL    HW234322   1.293   0.299   8.814 -0.3294  0.0343 -0.6818
 9028SOL     OW34323  12.277  11.106  11.784  0.2008  0.0563 -0.0612
 9028SOL    HW134324  12.221  11.110  11.707  0.1933  1.3751 -0.0154
 9028SOL    HW234325  12.300  11.014  11.793  0.6913 -0.0512 -2.0010
 9029SOL     OW34326   2.981   0.587   5.734 -0.5245  0.3985  0.3453
 9029SOL    HW134327   2.933   0.666   5.709 -2.2704 -1.1727 -1.6147
 9029SOL    HW234328   2.914   0.527   5.767  0.6334 -0.5865  1.0111
 9030SOL     OW34329  11.418   7.561   8.964  0.0965  0.0923  0.0378
 9030SOL    HW134330  11.368   7.544   9.043  2.0061 -0.0791  1.2762
 9030SOL    HW234331  11.402   7.654   8.945 -1.1809 -0.1184  0.0004
 9031SOL     OW34332   8.854  12.180   9.658  0.2847 -0.1293 -0.2854
 9031SOL    HW134333   8.818  12.164   9.571  0.6686  0.8658 -0.6439
 9031SOL    HW234334   8.931  12.124   9.663  0.2167 -0.2474 -0.5534
 9032SOL     OW34335   1.821   7.078   2.565 -0.0590 -0.3097 -0.1667
 9032SOL    HW134336   1.903   7.058   2.519 -0.0496 -1.2232  0.2323
 9032SOL    HW234337   1.802   7.169   2.542  1.0092 -0.1243 -0.3576
 9033SOL     OW34338   2.108   9.830   2.906  0.6556 -0.0125 -0.1443
 9033SOL    HW134339   2.164   9.900   2.873  1.1876 -0.0857  0.5732
 9033SOL    HW234340   2.019   9.863   2.897  0.8767  0.5572 -0.2511
 9034SOL     OW34341   5.550   0.474   6.452 -0.1444 -0.6009 -0.5388
 9034SOL    HW134342   5.611   0.526   6.505  0.1513 -0.4412 -1.0307
 9034SOL    HW234343   5.581   0.486   6.362  0.0529 -1.7974 -0.6385
 9035SOL     OW34344  12.554   9.015   1.334 -0.2065 -0.6743 -0.1951
 9035SOL    HW134345  12.613   8.954   1.379 -2.4682 -2.4132  0.5662
 9035SOL    HW234346  12.592   9.101   1.351  0.3863 -1.4353  3.0798
 9036SOL     OW34347   2.372   8.740   4.777 -0.1670  0.2261 -0.1322
 9036SOL    HW134348   2.297   8.791   4.809  1.3002  2.2089  0.3041
 9036SOL    HW234349   2.444   8.803   4.772  1.1172 -1.2761 -1.9997
 9037SOL     OW34350   0.309   7.350  11.943  0.5304  0.0511  0.0185
 9037SOL    HW134351   0.320   7.414  12.013 -1.6246  0.0514  0.4515
 9037SOL    HW234352   0.319   7.400  11.862  1.1341  0.4518  0.3345
 9038SOL     OW34353  11.278   3.050   5.934 -0.0906  0.0562  0.1670
 9038SOL    HW134354  11.325   3.118   5.886  0.2849  0.5324  1.1813
 9038SOL    HW234355  11.224   3.099   5.997 -0.9933 -0.5326 -0.1363
 9039SOL     OW34356   8.145  12.512   3.393  0.3662 -0.3841  0.3201
 9039SOL    HW134357   8.174  12.510   3.302 -0.8016  0.7356 -0.1241
 9039SOL    HW234358   8.207  12.457   3.440  0.1288 -2.1986 -1.3884
 9040SOL     OW34359   0.560  11.671   4.349  0.0770  0.2080  0.0788
 9040SOL    HW134360   0.507  11.633   4.279  0.6305 -1.5402  0.5754
 9040SOL    HW234361   0.646  11.684   4.310  0.0957  0.2660  0.1384
 9041SOL     OW34362  11.122   3.047   7.273 -0.3156  0.3397  1.3739
 9041SOL    HW134363  11.165   2.982   7.329 -0.0743  0.0891  0.9026
 9041SOL    HW234364  11.088   3.113   7.334  1.2917  0.8873  1.7074
 9042SOL     OW34365   6.730   7.791   8.527 -0.4498  0.7151  0.6041
 9042SOL    HW134366   6.823   7.785   8.507 -0.4973 -1.1640  0.7634
 9042SOL    HW234367   6.693   7.842   8.455  0.2682 -0.9845 -1.0670
 9043SOL     OW34368   3.312  12.108  12.654  0.0852 -0.0882  0.4805
 9043SOL    HW134369   3.232  12.124  12.703 -0.6270 -1.0513 -0.3453
 9043SOL    HW234370   3.306  12.165  12.578  0.2858 -0.0126  0.5196
 9044SOL     OW34371   5.276   0.377   0.593 -0.0628 -0.1691 -0.4542
 9044SOL    HW134372   5.319   0.336   0.668 -1.0974  0.8067  0.7309
 9044SOL    HW234373   5.343   0.436   0.557  1.0435 -1.9624 -1.4712
 9045SOL     OW34374   1.143   2.904   6.741  0.0263 -0.2291  0.2858
 9045SOL    HW134375   1.173   2.909   6.832  2.3985 -1.1630 -0.3596
 9045SOL    HW234376   1.190   2.828   6.705 -1.5277 -0.4040 -1.4943
 9046SOL     OW34377   0.106   4.975   4.783  0.4376  0.2672  0.0728
 9046SOL    HW134378   0.177   5.040   4.787  0.6037  0.0377  1.1219
 9046SOL    HW234379   0.125   4.914   4.854 -0.9461  0.3424  0.5380
 9047SOL     OW34380   3.411   1.107   6.047 -0.6027 -0.3025 -0.5469
 9047SOL    HW134381   3.374   1.191   6.071  1.5934  1.0669 -1.5627
 9047SOL    HW234382   3.374   1.088   5.961 -0.3518  0.1576 -0.7615
 9048SOL     OW34383  10.590   9.940   3.254  0.4635  0.2434 -0.0239
 9048SOL    HW134384  10.626   9.915   3.338 -0.6274 -2.2093 -0.1894
 9048SOL    HW234385  10.511   9.886   3.245 -0.5129  1.8461 -1.7688
 9049SOL     OW34386   1.637   3.533   3.878 -0.0406 -0.4845 -0.3210
 9049SOL    HW134387   1.602   3.591   3.811  0.0994 -1.7202 -1.5346
 9049SOL    HW234388   1.662   3.454   3.830  0.5147 -1.2407  1.1328
 9050SOL     OW34389   9.953   5.145   5.664  0.0374  0.3797 -0.0316
 9050SOL    HW134390   9.923   5.097   5.741 -0.4150  1.6105  0.5813
 9050SOL    HW234391  10.041   5.175   5.686  0.2208  0.0554 -0.3126
 9051SOL     OW34392   5.792   8.241   6.120 -0.0920  0.0935 -0.0619
 9051SOL    HW134393   5.841   8.217   6.042 -1.1684 -2.5859 -0.0322
 9051SOL    HW234394   5.827   8.183   6.189  0.1760  1.7291  1.2545
 9052SOL     OW34395  10.833   4.827   6.827  0.4899  0.1631 -0.9138
 9052SOL    HW134396  10.846   4.758   6.762  0.7103  1.3277 -2.1435
 9052SOL    HW234397  10.904   4.890   6.809  0.6710  0.4140  0.5878
 9053SOL     OW34398   3.487   8.526   6.099 -0.2200 -0.5390 -0.2987
 9053SOL    HW134399   3.544   8.555   6.171  0.3900 -1.2419 -0.4777
 9053SOL    HW234400   3.517   8.576   6.024 -0.2497 -0.4578 -0.2566
 9054SOL     OW34401   8.310  12.344   1.229 -0.3343 -0.7419 -0.2992
 9054SOL    HW134402   8.276  12.324   1.317  0.4718 -2.4462 -0.3373
 9054SOL    HW234403   8.251  12.298   1.170 -1.5504  1.3040 -0.7909
 9055SOL     OW34404  11.290   8.123   7.727  0.1421  0.1021  0.1590
 9055SOL    HW134405  11.216   8.182   7.713 -0.4129 -0.0172  2.1427
 9055SOL    HW234406  11.249   8.041   7.757  1.0481  0.5060  2.7990
 9056SOL     OW34407   8.034   4.951  11.438 -0.4118  0.4327 -0.4322
 9056SOL    HW134408   8.099   5.015  11.467 -0.3302  0.5189 -0.7996
 9056SOL    HW234409   8.062   4.869  11.479  1.2799 -0.0507 -2.3730
 9057SOL     OW34410   3.231  10.652   1.145 -0.2055 -0.3078 -0.7069
 9057SOL    HW134411   3.241  10.692   1.059 -1.3380  0.4581 -0.5032
 9057SOL    HW234412   3.260  10.719   1.206  1.4340 -1.1609 -0.5032
 9058SOL     OW34413   5.417   5.429   3.896 -0.9511 -0.6282 -0.2520
 9058SOL    HW134414   5.321   5.437   3.901 -0.7448  2.5264  1.0496
 9058SOL    HW234415   5.445   5.508   3.849  1.0817 -0.6318  0.8309
 9059SOL     OW34416  12.439   8.381   0.185 -0.5494  0.8933  0.2205
 9059SOL    HW134417  12.360   8.327   0.184 -0.4494  0.7072  1.4981
 9059SOL    HW234418  12.481   8.362   0.101 -0.7084 -0.7530  0.4743
 9060SOL     OW34419   6.264   3.527   2.052 -0.5537 -0.7866  0.3448
 9060SOL    HW134420   6.314   3.608   2.059 -1.3947 -0.3943  2.9549
 9060SOL    HW234421   6.234   3.525   1.961 -1.5424  2.5076  0.4509
 9061SOL     OW34422   6.153  11.444   3.767  0.0361 -0.0109  0.3678
 9061SOL    HW134423   6.185  11.515   3.824  0.8038  0.6150 -0.8108
 9061SOL    HW234424   6.099  11.488   3.702  0.4776 -0.5043 -0.3453
 9062SOL     OW34425  11.578  11.424   1.681 -0.0973 -0.0094 -0.6417
 9062SOL    HW134426  11.666  11.387   1.678  0.3773  1.0876 -0.9581
 9062SOL    HW234427  11.530  11.369   1.742  1.1980  0.1685  0.5828
 9063SOL     OW34428  11.486  12.608   5.495 -0.3253  0.1747 -0.0231
 9063SOL    HW134429  11.434  12.660   5.435 -0.3557  0.0522 -0.1023
 9063SOL    HW234430  11.533  12.546   5.440 -1.7159 -1.1557  0.2074
 9064SOL     OW34431   1.260   9.373   0.231 -0.6862 -0.1482  0.4406
 9064SOL    HW134432   1.205   9.307   0.190 -0.4201  0.6254 -1.2700
 9064SOL    HW234433   1.199   9.434   0.273 -1.1595  0.5241 -1.1648
 9065SOL     OW34434  10.536   3.358   2.125 -0.1181 -0.6658  0.2696
 9065SOL    HW134435  10.569   3.415   2.055 -0.4376 -2.0035 -1.0211
 9065SOL    HW234436  10.517   3.275   2.081 -0.8946 -1.3606  1.8507
 9066SOL     OW34437  12.382   5.329   5.993 -0.2294 -0.2976  0.2899
 9066SOL    HW134438  12.420   5.400   6.045  1.8661 -1.5696  0.6431
 9066SOL    HW234439  12.307   5.299   6.044  1.2815 -0.9644  2.2473
 9067SOL     OW34440   4.824   0.965   4.053 -0.3914  0.5203  0.2002
 9067SOL    HW134441   4.874   0.912   3.991 -1.5091 -1.2715  0.7446
 9067SOL    HW234442   4.783   1.032   4.000 -0.3621 -0.2487 -0.8315
 9068SOL     OW34443  10.741   8.032   5.344  0.1049  0.2512  0.0040
 9068SOL    HW134444  10.777   7.976   5.274  1.4448  3.7902 -2.4308
 9068SOL    HW234445  10.647   8.012   5.345  0.7610 -3.5697  0.9696
 9069SOL     OW34446   2.190  12.645  11.081  0.3631  0.0390  0.4516
 9069SOL    HW134447   2.244  12.720  11.057  1.2909 -0.1949  1.6804
 9069SOL    HW234448   2.252  12.582  11.119 -0.2672 -1.7109 -1.2775
 9070SOL     OW34449   1.395  12.148  10.279 -0.0097 -0.0039  0.0840
 9070SOL    HW134450   1.486  12.176  10.271 -0.6355  2.3283  0.5238
 9070SOL    HW234451   1.368  12.179  10.365 -1.8173  1.3105 -0.8953
 9071SOL     OW34452  10.015   9.286   4.439 -0.1900  0.2628  0.5876
 9071SOL    HW134453   9.948   9.223   4.467 -0.7511  0.0924 -1.0203
 9071SOL    HW234454  10.097   9.253   4.476 -0.5789 -1.0438  0.3356
 9072SOL     OW34455   8.168   9.856   0.257 -0.0464  0.2213 -0.2435
 9072SOL    HW134456   8.210   9.853   0.171 -0.4045 -1.6772 -0.3844
 9072SOL    HW234457   8.085   9.810   0.245  0.1454 -0.5639  1.2252
 9073SOL     OW34458   0.307   0.198   1.981  0.0101  0.2622 -0.2680
 9073SOL    HW134459   0.227   0.165   1.939  0.9604 -0.6951 -1.4065
 9073SOL    HW234460   0.365   0.122   1.984  1.5857  1.3901 -1.1972
 9074SOL     OW34461   5.872   2.136   6.085  0.5045 -0.0721 -0.3070
 9074SOL    HW134462   5.874   2.045   6.115 -0.4677  0.0341  0.1302
 9074SOL    HW234463   5.878   2.129   5.989  0.1674 -0.6169 -0.2945
 9075SOL     OW34464   1.457   9.743   9.500  0.4219  0.4717 -0.2452
 9075SOL    HW134465   1.505   9.804   9.444  1.6190  0.3567  0.6268
 9075SOL    HW234466   1.456   9.786   9.586  0.4620 -0.3103  0.1517
 9076SOL     OW34467  10.219   4.717   0.924  0.2312  0.7262  0.4790
 9076SOL    HW134468  10.212   4.758   0.837  0.5790 -1.9040 -0.8902
 9076SOL    HW234469  10.129   4.707   0.953  0.1153  1.7421  0.5144
 9077SOL     OW34470   6.165   8.279   7.069 -0.0947  0.5927  0.5127
 9077SOL    HW134471   6.247   8.229   7.072 -0.1189  0.5679  0.7193
 9077SOL    HW234472   6.191   8.368   7.094  0.0494  0.8175 -0.3825
 9078SOL     OW34473  12.070   7.832  11.504 -0.2437  0.4101 -0.4491
 9078SOL    HW134474  12.034   7.844  11.592 -1.6849  0.1722 -0.9827
 9078SOL    HW234475  12.111   7.916  11.483  0.4193  0.3575  0.5700
 9079SOL     OW34476   0.188   1.749   5.610 -0.0427 -0.6904 -0.0868
 9079SOL    HW134477   0.123   1.709   5.668  0.1468 -0.9714 -0.0667
 9079SOL    HW234478   0.157   1.839   5.598 -1.2019 -1.2020 -1.2048
 9080SOL     OW34479  12.566   5.568   0.763  0.0740 -0.3563 -0.2771
 9080SOL    HW134480  12.616   5.554   0.683 -1.1630  0.8855 -1.3125
 9080SOL    HW234481  12.554   5.481   0.800  1.3224 -0.8618 -1.0189
 9081SOL     OW34482   7.425  11.951   9.635 -0.3175 -0.2506 -0.0067
 9081SOL    HW134483   7.515  11.968   9.663 -0.4966  1.0780 -0.1970
 9081SOL    HW234484   7.376  12.028   9.663 -1.1122 -0.2951 -1.1918
 9082SOL     OW34485   1.582   5.094   5.823 -0.1511 -0.0036 -0.2786
 9082SOL    HW134486   1.579   5.063   5.914 -2.7214  0.7649 -0.0345
 9082SOL    HW234487   1.627   5.024   5.776  4.2816  0.9322  1.9905
 9083SOL     OW34488  10.965   8.866   0.885 -0.4101  0.0114  0.5195
 9083SOL    HW134489  11.024   8.928   0.842 -1.0928  0.5235  0.3131
 9083SOL    HW234490  10.878   8.888   0.851 -0.5736 -1.5524 -0.1426
 9084SOL     OW34491   4.749   5.266   4.361  0.0327 -0.1898 -0.3975
 9084SOL    HW134492   4.745   5.200   4.292 -0.0757 -3.3487  2.3554
 9084SOL    HW234493   4.670   5.319   4.349 -0.1138 -0.8119 -2.4911
 9085SOL     OW34494   8.321  11.531   1.510 -0.3726 -0.0044  0.7662
 9085SOL    HW134495   8.229  11.508   1.525 -0.6444  0.9305  0.6214
 9085SOL    HW234496   8.328  11.623   1.538  0.1455  0.4166 -0.6242
 9086SOL     OW34497   1.370   0.794  11.826  0.1067 -0.2899 -0.4542
 9086SOL    HW134498   1.452   0.809  11.780 -0.5933  1.7385 -1.1250
 9086SOL    HW234499   1.393   0.801  11.919  0.8060 -0.5165 -0.5997
 9087SOL     OW34500   0.745   3.811  10.481 -0.2162  0.1723  0.2671
 9087SOL    HW134501   0.668   3.767  10.516 -0.2115  0.1993  0.3116
 9087SOL    HW234502   0.812   3.799  10.548  0.2579 -1.1096 -0.3985
 9088SOL     OW34503   8.643   4.194   0.679 -0.4446  0.4892 -0.4269
 9088SOL    HW134504   8.628   4.285   0.706 -0.0302  0.0527  1.3822
 9088SOL    HW234505   8.557   4.153   0.685 -0.1727  0.0872  1.6342
 9089SOL     OW34506   7.111  10.276   5.769  0.3491 -0.2144 -0.3341
 9089SOL    HW134507   7.123  10.184   5.793  0.5189 -0.0283  0.3036
 9089SOL    HW234508   7.051  10.273   5.694 -0.0852 -0.8176  0.0234
 9090SOL     OW34509   6.662   3.248   8.449 -0.3302 -0.4412  0.2741
 9090SOL    HW134510   6.595   3.233   8.383  0.3939 -1.6007 -0.2327
 9090SOL    HW234511   6.685   3.340   8.440 -0.1727 -0.6077 -1.1586
 9091SOL     OW34512   5.559   3.341   2.450  0.0560 -0.5870 -0.0639
 9091SOL    HW134513   5.617   3.353   2.525 -1.3565  0.3197  0.9367
 9091SOL    HW234514   5.474   3.373   2.481 -0.7709 -1.0635 -1.7613
 9092SOL     OW34515  11.529   8.670  10.732 -0.4058  0.2750  0.1018
 9092SOL    HW134516  11.604   8.702  10.782 -0.0487 -0.5436  0.0977
 9092SOL    HW234517  11.563   8.654  10.644  0.0763 -2.4631  0.6924
 9093SOL     OW34518   5.953   1.492   1.597  0.1988 -0.5965  0.2328
 9093SOL    HW134519   6.032   1.487   1.542  0.0951 -0.4218  0.0704
 9093SOL    HW234520   5.881   1.492   1.535 -0.0335 -2.7511  0.4059
 9094SOL     OW34521   1.465   5.683   5.422  0.0933 -0.2357 -0.6552
 9094SOL    HW134522   1.420   5.735   5.488  0.8163 -0.1848 -0.1861
 9094SOL    HW234523   1.403   5.614   5.399 -0.5561  0.3485 -0.6807
 9095SOL     OW34524   7.956   6.915   4.773 -0.4982 -0.3063  0.0343
 9095SOL    HW134525   8.035   6.909   4.720 -0.5798 -0.8875 -0.0318
 9095SOL    HW234526   7.897   6.970   4.721 -0.4642 -0.6147 -0.3372
 9096SOL     OW34527   0.426  12.357  11.552 -0.2701 -0.3540 -0.3303
 9096SOL    HW134528   0.495  12.424  11.551 -1.9670  1.4893 -2.1165
 9096SOL    HW234529   0.388  12.363  11.640  1.0033 -0.5722  0.2687
 9097SOL     OW34530   7.434   9.811  11.695 -0.2833  0.0930  0.2713
 9097SOL    HW134531   7.436   9.738  11.757 -0.0812  2.6030  3.4734
 9097SOL    HW234532   7.341   9.829  11.683 -0.3460  1.0749  1.8866
 9098SOL     OW34533   0.291  11.629   3.939  0.0949 -0.0508 -1.1516
 9098SOL    HW134534   0.277  11.674   3.856 -0.3265  1.2996 -0.3808
 9098SOL    HW234535   0.288  11.698   4.005 -1.1744 -1.2730  0.1552
 9099SOL     OW34536   7.763   1.240   1.475  0.2077 -0.5065 -0.4586
 9099SOL    HW134537   7.833   1.259   1.412  0.6463  0.2527  0.2369
 9099SOL    HW234538   7.798   1.269   1.559 -1.0568  0.1597 -0.1339
 9100SOL     OW34539   0.047  11.735   0.437  0.4871  0.2433  0.0216
 9100SOL    HW134540   0.037  11.661   0.377 -1.4925  0.5638 -0.0978
 9100SOL    HW234541   0.123  11.712   0.490 -0.2909 -2.0782  0.2400
 9101SOL     OW34542   5.361  12.002   5.204 -0.1230 -0.3359 -0.1817
 9101SOL    HW134543   5.298  12.074   5.200  0.6946  0.5162  1.2788
 9101SOL    HW234544   5.395  12.005   5.294  1.6715 -1.0280 -0.7866
 9102SOL     OW34545   8.857   8.151   2.174  0.2677 -0.6897 -1.1079
 9102SOL    HW134546   8.938   8.141   2.123  1.1941  0.1077  0.1470
 9102SOL    HW234547   8.869   8.094   2.249  0.0360  0.0836 -0.4718
 9103SOL     OW34548   8.570   7.519   0.766 -0.7612 -0.0940 -0.1174
 9103SOL    HW134549   8.566   7.440   0.713 -0.8552 -0.1225 -0.0690
 9103SOL    HW234550   8.540   7.589   0.707 -1.1752 -0.1755 -0.0096
 9104SOL     OW34551   7.127   0.251   8.269  0.3621  0.1237  0.1330
 9104SOL    HW134552   7.069   0.185   8.230  1.1774  1.0894 -2.9829
 9104SOL    HW234553   7.199   0.200   8.306  0.2177 -0.8533 -0.8465
 9105SOL     OW34554   8.181   9.322   2.644  0.1333  0.3598 -0.3300
 9105SOL    HW134555   8.203   9.231   2.623 -0.4663 -0.0039  0.5731
 9105SOL    HW234556   8.224   9.339   2.727  0.7213  1.1025 -0.7727
 9106SOL     OW34557   7.814   0.591  10.283 -0.4287  0.1039 -0.1473
 9106SOL    HW134558   7.818   0.496  10.298 -1.4120 -0.0021 -0.4754
 9106SOL    HW234559   7.884   0.608  10.221  0.6119 -0.1918  0.9130
 9107SOL     OW34560   1.639  10.253   0.353 -0.1507 -1.0028  0.3042
 9107SOL    HW134561   1.640  10.285   0.443 -1.1304  2.7183 -0.8097
 9107SOL    HW234562   1.546  10.236   0.335 -0.0417 -1.1309 -0.1483
 9108SOL     OW34563  10.166   7.377   7.819 -0.5574 -0.8096 -0.3696
 9108SOL    HW134564  10.155   7.377   7.914 -0.3514 -2.7404 -0.3209
 9108SOL    HW234565  10.184   7.469   7.798 -0.5097 -0.3549  1.4508
 9109SOL     OW34566   7.379   4.687   6.185 -0.6159 -0.0531 -0.4124
 9109SOL    HW134567   7.360   4.778   6.205 -0.0200  0.0861 -0.4742
 9109SOL    HW234568   7.328   4.668   6.106 -1.2233  0.0436 -0.0456
 9110SOL     OW34569   0.651   8.157   4.571 -0.0939 -0.2139 -0.0569
 9110SOL    HW134570   0.569   8.201   4.593  1.3015  1.7744  1.5773
 9110SOL    HW234571   0.672   8.104   4.648 -0.8428 -2.4889 -1.3096
 9111SOL     OW34572  11.908   9.090   2.736  0.3103 -0.0466 -0.1344
 9111SOL    HW134573  11.956   9.119   2.814 -2.6679  0.2602  1.7671
 9111SOL    HW234574  11.935   9.150   2.667  2.1464  0.4428  0.9427
 9112SOL     OW34575   3.898  10.923   6.474  0.2309 -0.0461  0.4464
 9112SOL    HW134576   3.863  10.912   6.563 -1.0817  0.7278  0.0495
 9112SOL    HW234577   3.976  10.977   6.486 -0.3712  0.7111  1.0735
 9113SOL     OW34578   1.527   5.487   2.105  0.0973 -0.0102 -0.5042
 9113SOL    HW134579   1.593   5.485   2.036  0.3626  1.5323 -0.3405
 9113SOL    HW234580   1.464   5.553   2.075 -0.6028 -0.4355  0.0094
 9114SOL     OW34581   0.591  11.321   0.901 -0.5293  0.0939  0.5915
 9114SOL    HW134582   0.574  11.229   0.884  0.0453  0.3479 -1.6598
 9114SOL    HW234583   0.513  11.366   0.869 -0.0529  0.5116  0.0045
 9115SOL     OW34584   8.559  11.750   3.887 -0.2991 -0.0026  0.1263
 9115SOL    HW134585   8.544  11.839   3.918 -0.5007 -0.5816  1.8037
 9115SOL    HW234586   8.472  11.715   3.869 -0.4954 -0.7491  2.2166
 9116SOL     OW34587  10.342   7.882   7.851  0.1809 -0.7698  0.0078
 9116SOL    HW134588  10.267   7.841   7.807 -1.2766 -0.3183  1.9463
 9116SOL    HW234589  10.345   7.970   7.814 -0.4959 -0.6677  0.1779
 9117SOL     OW34590   9.171   9.052   4.214  0.0308  0.4395  0.5604
 9117SOL    HW134591   9.104   9.097   4.265  0.2433 -0.5516  1.7569
 9117SOL    HW234592   9.213   9.121   4.162 -1.7834  1.1022 -0.0933
 9118SOL     OW34593   5.312   2.381   4.304 -0.2764  0.4651  0.0766
 9118SOL    HW134594   5.244   2.313   4.300 -0.1568  0.2691  1.0903
 9118SOL    HW234595   5.311   2.420   4.217 -1.3656  0.1519 -0.0746
 9119SOL     OW34596   3.411   4.159   2.122  0.0592 -0.3194  0.0088
 9119SOL    HW134597   3.448   4.171   2.035  0.5489  0.6533  0.3347
 9119SOL    HW234598   3.480   4.189   2.181 -1.3383  1.8513  0.6410
 9120SOL     OW34599   1.269   8.011   6.239  0.2408  0.9229 -1.1700
 9120SOL    HW134600   1.282   8.104   6.257 -0.7393  0.7444  0.7473
 9120SOL    HW234601   1.199   7.985   6.299  0.5207 -1.0654 -1.6425
 9121SOL     OW34602   9.896   9.985   7.516  0.3516 -0.1697  0.2411
 9121SOL    HW134603   9.907  10.060   7.457 -1.0981 -0.2195 -0.1249
 9121SOL    HW234604   9.971   9.929   7.497 -1.0823 -1.2357 -3.2039
 9122SOL     OW34605  11.292   7.711   2.096  0.5819  0.3753 -0.2167
 9122SOL    HW134606  11.332   7.624   2.105  2.3917  1.3212  1.7773
 9122SOL    HW234607  11.207   7.694   2.057  0.1369 -2.5154  1.6997
 9123SOL     OW34608   8.594   5.392  10.058  0.1410  0.7084  0.0446
 9123SOL    HW134609   8.637   5.312  10.025  2.4834  1.5916  0.7607
 9123SOL    HW234610   8.535   5.360  10.127 -0.6535 -0.5887 -1.1731
 9124SOL     OW34611   2.862   1.109   2.576 -0.7115  0.2851 -0.2223
 9124SOL    HW134612   2.867   1.196   2.617 -1.8352 -0.0004  0.5772
 9124SOL    HW234613   2.872   1.126   2.482 -1.8026  1.3878 -0.1600
 9125SOL     OW34614   4.988   1.622   0.965 -0.4476  0.2618 -0.4244
 9125SOL    HW134615   4.939   1.697   0.932  0.7082  1.1083 -0.2425
 9125SOL    HW234616   5.019   1.576   0.886 -1.1470 -0.0359 -0.5334
 9126SOL     OW34617   9.918   3.022  12.653  0.3613  0.9961  0.2630
 9126SOL    HW134618   9.953   3.107  12.682  1.4236  0.7869 -0.3441
 9126SOL    HW234619   9.824   3.029  12.666  0.4288  2.2872  0.2051
 9127SOL     OW34620   0.655   2.004   0.040  0.3022  0.8775 -0.3197
 9127SOL    HW134621   0.650   2.068   0.110  1.2833  0.0521  0.5312
 9127SOL    HW234622   0.743   2.016   0.003  0.8130 -0.4974  0.3923
 9128SOL     OW34623   1.437  12.652  10.649 -0.1332  0.3099  0.6110
 9128SOL    HW134624   1.358  12.656  10.704  1.0492  3.5494  2.3892
 9128SOL    HW234625   1.484  12.575  10.680 -0.6623  0.6958  2.5427
 9129SOL     OW34626   9.493   7.031   6.042 -0.2129 -0.0670  0.8434
 9129SOL    HW134627   9.465   6.969   6.110  0.5462 -0.4451  0.8185
 9129SOL    HW234628   9.524   6.977   5.970 -0.5478  0.3404  0.3836
 9130SOL     OW34629   7.602   8.567   4.310 -0.0906 -0.5206 -0.7295
 9130SOL    HW134630   7.663   8.572   4.383 -0.3092 -1.8072 -0.4340
 9130SOL    HW234631   7.628   8.639   4.252  0.7866 -0.1725  0.0746
 9131SOL     OW34632   8.635   8.260   2.329  0.1858 -0.2570  0.3506
 9131SOL    HW134633   8.670   8.340   2.367 -1.5662  0.7739 -0.0877
 9131SOL    HW234634   8.697   8.237   2.259  1.4601 -0.1233  1.3968
 9132SOL     OW34635   0.264   3.696   3.145 -0.1661 -0.5334 -0.1590
 9132SOL    HW134636   0.177   3.678   3.108 -0.6048 -2.1897  1.5019
 9132SOL    HW234637   0.295   3.610   3.176  1.1699  0.3682  1.1384
 9133SOL     OW34638  10.845   1.626   0.053  0.6855 -0.3467  0.3821
 9133SOL    HW134639  10.764   1.632   0.103 -0.9073 -1.6793 -1.8368
 9133SOL    HW234640  10.906   1.683   0.099 -1.9742  2.0525  1.2613
 9134SOL     OW34641   4.205   3.016   0.880 -0.0438 -0.2903  1.4201
 9134SOL    HW134642   4.264   2.956   0.833 -2.3291 -1.4629 -0.1328
 9134SOL    HW234643   4.212   2.990   0.972 -0.5251 -2.6101  0.8559
 9135SOL     OW34644  10.140  12.569   2.524 -0.1552 -0.2210  0.6490
 9135SOL    HW134645  10.106  12.484   2.549 -1.3816  0.3518  1.0155
 9135SOL    HW234646  10.216  12.583   2.581  0.6035 -1.4338 -0.0353
 9136SOL     OW34647   3.093   0.153  11.549  0.2909 -0.2777 -0.2019
 9136SOL    HW134648   3.136   0.208  11.615  0.0073  0.3843 -0.5578
 9136SOL    HW234649   3.046   0.087  11.599  0.9377 -0.4253  0.2239
 9137SOL     OW34650   9.878  11.761   0.597  0.2595 -0.3812 -0.4003
 9137SOL    HW134651   9.845  11.675   0.570 -0.5052  0.1905 -1.2938
 9137SOL    HW234652   9.800  11.811   0.620  0.7042  0.0873  0.1076
 9138SOL     OW34653   1.280   6.975   8.002  0.0597  0.3765  0.4491
 9138SOL    HW134654   1.262   6.962   7.909 -1.1973 -0.3725  0.7689
 9138SOL    HW234655   1.272   7.069   8.016 -0.8270  0.3802 -0.0121
 9139SOL     OW34656   4.528   1.286   6.201  0.2870 -0.4080 -0.6290
 9139SOL    HW134657   4.457   1.346   6.225  0.1934 -1.0533  0.8078
 9139SOL    HW234658   4.604   1.319   6.248  0.4829 -0.8280 -0.6454
 9140SOL     OW34659   6.237  10.903  12.436  0.1299  0.6666 -0.1454
 9140SOL    HW134660   6.330  10.916  12.418  0.4403  1.9710  2.0592
 9140SOL    HW234661   6.203  10.991  12.451 -1.3260  0.1513 -0.2600
 9141SOL     OW34662   4.393  12.034   6.354  0.1321 -0.1737  0.4408
 9141SOL    HW134663   4.343  11.966   6.400  0.1116 -0.9003 -0.6227
 9141SOL    HW234664   4.327  12.092   6.317  0.1132 -0.3881  0.1398
 9142SOL     OW34665  11.844   9.817   4.476  0.6370 -0.4179  0.7639
 9142SOL    HW134666  11.895   9.876   4.419 -1.1419  0.8683  0.4205
 9142SOL    HW234667  11.851   9.857   4.563 -0.1544  0.0590  0.6226
 9143SOL     OW34668   9.865   6.588   9.430 -0.5135 -0.2525  0.2576
 9143SOL    HW134669   9.772   6.612   9.434 -0.4815 -0.1968  0.6734
 9143SOL    HW234670   9.905   6.633   9.504 -0.6609 -2.5119  1.8121
 9144SOL     OW34671   1.631   0.601   0.556  0.0342  0.2399 -0.2890
 9144SOL    HW134672   1.660   0.579   0.645  2.7009  1.1833 -0.8384
 9144SOL    HW234673   1.582   0.524   0.527  0.6159 -0.8029  1.3574
 9145SOL     OW34674   3.488  11.737   6.574 -0.0195  0.1626  0.2598
 9145SOL    HW134675   3.406  11.785   6.558  0.4564  0.7294 -0.5978
 9145SOL    HW234676   3.494  11.676   6.501 -1.0993 -1.9571  1.8422
 9146SOL     OW34677   0.138  11.325   3.258  0.0680 -0.0459  0.0759
 9146SOL    HW134678   0.177  11.282   3.334  1.2082  0.1404 -0.3784
 9146SOL    HW234679   0.162  11.269   3.184 -0.2630  0.2473 -0.2555
 9147SOL     OW34680   7.377   4.388   8.599 -0.5619 -0.1857 -0.2544
 9147SOL    HW134681   7.399   4.295   8.589 -0.7773 -0.1365 -1.2949
 9147SOL    HW234682   7.458   4.429   8.629  0.0044 -0.4600 -1.3502
 9148SOL     OW34683   8.310   1.053   3.913 -0.0484  0.5113 -0.1629
 9148SOL    HW134684   8.404   1.045   3.929  0.3611  1.6365 -1.7857
 9148SOL    HW234685   8.292   0.990   3.843 -1.0174 -1.4080  1.6937
 9149SOL     OW34686  12.416   9.475   2.791  0.4205  0.0513  0.0183
 9149SOL    HW134687  12.447   9.427   2.714 -1.6171 -1.3563 -0.0404
 9149SOL    HW234688  12.437   9.418   2.865 -2.6888 -1.5183 -0.1159
 9150SOL     OW34689   0.737   2.041   3.452 -0.2557 -0.1004 -0.4087
 9150SOL    HW134690   0.787   2.077   3.378  0.9556 -1.1316 -0.1484
 9150SOL    HW234691   0.687   2.115   3.486  1.4891  1.1413 -0.3887
 9151SOL     OW34692   6.293   2.222  12.449  0.1138  0.1301 -0.1954
 9151SOL    HW134693   6.207   2.202  12.486  0.0331 -1.7352 -1.2571
 9151SOL    HW234694   6.330   2.287  12.508 -1.9107  0.7808  0.4270
 9152SOL     OW34695   2.996  12.571   3.096  0.1403 -0.4901 -0.1837
 9152SOL    HW134696   3.047  12.643   3.134  1.8977 -1.7951  0.0848
 9152SOL    HW234697   2.920  12.613   3.057  0.3748  1.3490  1.1977
 9153SOL     OW34698   7.902  12.203   9.332 -0.4727  0.5349  0.4506
 9153SOL    HW134699   7.886  12.294   9.356 -2.0640  0.5589 -0.4925
 9153SOL    HW234700   7.892  12.201   9.237 -0.5512 -0.6364  0.4609
 9154SOL     OW34701   6.600   4.919   4.675  0.0884  0.3199  0.0310
 9154SOL    HW134702   6.694   4.900   4.675 -0.2419 -1.5155  0.3331
 9154SOL    HW234703   6.587   4.977   4.601  1.3454 -0.0618 -0.5166
 9155SOL     OW34704  11.935   2.648   5.772 -0.0073  0.2332 -0.0578
 9155SOL    HW134705  11.995   2.686   5.709 -0.1815 -0.2746 -0.5405
 9155SOL    HW234706  11.892   2.723   5.813  0.4241  0.5770 -0.2232
 9156SOL     OW34707   6.406   8.150  12.124  0.2915 -0.1088  0.7206
 9156SOL    HW134708   6.314   8.164  12.146  0.2148  1.8020 -0.5142
 9156SOL    HW234709   6.404   8.096  12.045  0.3286 -1.6065  1.7163
 9157SOL     OW34710   4.811   2.733   3.687  0.1967 -0.0086 -0.1356
 9157SOL    HW134711   4.899   2.705   3.710 -0.3598 -2.4434 -0.7446
 9157SOL    HW234712   4.781   2.669   3.623 -2.2266  0.4263  0.4608
 9158SOL     OW34713   3.792   3.101   0.233 -0.5151 -0.3827 -0.2398
 9158SOL    HW134714   3.756   3.161   0.298 -1.3894  0.8019 -1.7491
 9158SOL    HW234715   3.873   3.069   0.273  0.8900  3.0749  0.0461
 9159SOL     OW34716   5.917   4.052   1.024 -0.3670  0.2494  0.3096
 9159SOL    HW134717   5.930   4.060   1.119 -0.6505 -0.9711  0.4708
 9159SOL    HW234718   5.978   4.116   0.986  2.3421 -1.5994  1.2164
 9160SOL     OW34719   4.301   1.748   9.119 -0.5020 -0.4484 -0.3215
 9160SOL    HW134720   4.348   1.689   9.179 -2.2835 -1.2650  0.3180
 9160SOL    HW234721   4.213   1.755   9.156 -0.9438  0.9464 -1.5611
 9161SOL     OW34722   4.870   1.307   9.067  0.7128  0.4849  0.4148
 9161SOL    HW134723   4.965   1.297   9.058  0.9034  1.5719  1.0430
 9161SOL    HW234724   4.835   1.221   9.043  1.8810 -0.0786  0.6215
 9162SOL     OW34725   7.774   3.492   5.347 -0.0008  0.2946  1.1399
 9162SOL    HW134726   7.774   3.402   5.379  0.6772  0.1390  0.7197
 9162SOL    HW234727   7.765   3.484   5.252 -2.6483  0.7723  1.2751
 9163SOL     OW34728  11.768   3.755   7.980  0.0923  0.5340  0.0943
 9163SOL    HW134729  11.680   3.723   8.001  0.3164 -0.3922 -0.3232
 9163SOL    HW234730  11.826   3.688   8.017  0.6201  1.1115  0.3157
 9164SOL     OW34731  11.995   1.644  10.095 -0.2549  0.1805  0.9043
 9164SOL    HW134732  11.934   1.601  10.035 -0.8596  0.8892  1.0016
 9164SOL    HW234733  11.994   1.589  10.174  1.9627 -1.8390 -0.3322
 9165SOL     OW34734   8.278   0.651  11.624  0.1510  0.3781  0.3685
 9165SOL    HW134735   8.209   0.692  11.571  0.0277  0.6565  0.7433
 9165SOL    HW234736   8.348   0.634  11.561 -1.3026 -2.5430 -0.6520
 9166SOL     OW34737  10.208   1.518   7.352 -0.0220 -0.1665  0.0334
 9166SOL    HW134738  10.261   1.477   7.283  0.6263  2.3019 -1.0699
 9166SOL    HW234739  10.257   1.597   7.375 -1.9692  0.8706  0.8386
 9167SOL     OW34740   2.340   7.776   5.437 -0.1504 -0.5571 -0.7191
 9167SOL    HW134741   2.281   7.836   5.483  0.0268 -1.6673  1.0477
 9167SOL    HW234742   2.329   7.798   5.344 -1.8221  0.6178 -0.2860
 9168SOL     OW34743   2.335  11.668   0.982  0.6689  0.2312  0.0142
 9168SOL    HW134744   2.253  11.714   0.970  0.3149 -0.6137 -0.9869
 9168SOL    HW234745   2.391  11.698   0.910  1.3487  1.0161  0.8518
 9169SOL     OW34746  10.635   5.999  11.455  0.0005  0.8461  0.1261
 9169SOL    HW134747  10.557   6.054  11.456  0.3466  1.4566 -1.9065
 9169SOL    HW234748  10.705   6.055  11.488  0.0480  1.1515 -0.4717
 9170SOL     OW34749   0.840   6.741   2.109  0.1512  0.3727 -0.1344
 9170SOL    HW134750   0.776   6.704   2.047  0.3898 -0.4208  0.0805
 9170SOL    HW234751   0.794   6.742   2.193  0.5503 -0.6079  0.1098
 9171SOL     OW34752   5.722  10.203   2.214  0.0619  0.5210 -0.2334
 9171SOL    HW134753   5.756  10.167   2.132  2.7296  0.7300  0.6989
 9171SOL    HW234754   5.703  10.295   2.195 -1.1380  0.1235 -1.0669
 9172SOL     OW34755   3.503   4.580   9.956  0.4575 -0.1204  0.1569
 9172SOL    HW134756   3.455   4.497   9.945 -1.0024  0.6130  0.7252
 9172SOL    HW234757   3.436   4.648   9.948  1.2655  0.9251  1.7346
 9173SOL     OW34758  10.231   0.527   1.308  0.2015  0.0265 -0.0108
 9173SOL    HW134759  10.177   0.511   1.230 -0.6880  0.3639  0.5178
 9173SOL    HW234760  10.168   0.553   1.375  1.0101  0.1887  0.6958
 9174SOL     OW34761   8.702   5.635   9.997  0.0951  0.3946  0.2863
 9174SOL    HW134762   8.702   5.640   9.902  0.8998 -0.1067  0.2504
 9174SOL    HW234763   8.655   5.555  10.017  1.3706 -0.3990  0.2298
 9175SOL     OW34764   5.496   6.088   5.062 -0.3791  0.8883  0.1394
 9175SOL    HW134765   5.549   6.166   5.044  0.1332  0.6871  0.7263
 9175SOL    HW234766   5.474   6.053   4.976 -0.9112  1.8770 -0.1435
 9176SOL     OW34767   6.847   8.182   4.570 -0.2752  0.0593  0.1736
 9176SOL    HW134768   6.826   8.134   4.490  1.4271 -0.2999 -0.1026
 9176SOL    HW234769   6.856   8.273   4.542  0.1664 -0.0430 -0.0343
 9177SOL     OW34770   1.443  10.230   0.731  0.1740 -0.7880  0.0200
 9177SOL    HW134771   1.519  10.200   0.781  2.1123  2.1467 -0.9030
 9177SOL    HW234772   1.457  10.194   0.643 -0.0835 -1.0675  0.0893
 9178SOL     OW34773  11.879   1.366  11.197  0.4740 -0.1529 -0.0326
 9178SOL    HW134774  11.942   1.294  11.185 -2.0970 -2.3962 -1.0810
 9178SOL    HW234775  11.834   1.373  11.113 -1.5768  0.4174  1.0502
 9179SOL     OW34776  10.803   2.575  10.203  1.0704  0.0542  0.3088
 9179SOL    HW134777  10.852   2.644  10.160  2.4098 -1.6892 -1.1248
 9179SOL    HW234778  10.729   2.557  10.145  0.4653  0.5523  0.9047
 9180SOL     OW34779   5.581   9.759   8.816  0.1546  0.4728 -0.2308
 9180SOL    HW134780   5.542   9.830   8.764  0.3883  0.9462  0.2366
 9180SOL    HW234781   5.673   9.784   8.824  0.0901  0.4680  0.5200
 9181SOL     OW34782   9.145   3.170   9.773  0.1665  0.8432  0.1371
 9181SOL    HW134783   9.069   3.112   9.771  0.1281  0.7241  2.6016
 9181SOL    HW234784   9.154   3.196   9.864  4.9616 -1.6897  0.7299
 9182SOL     OW34785   6.899   5.157   9.609  0.7214 -0.5228  0.0098
 9182SOL    HW134786   6.836   5.125   9.675  0.8478  0.8245  0.8140
 9182SOL    HW234787   6.872   5.114   9.528 -0.8075 -0.5217  0.4861
 9183SOL     OW34788   1.494  10.302   3.346 -0.2746  0.5513 -0.3040
 9183SOL    HW134789   1.454  10.266   3.268 -1.6363  1.0731  0.1139
 9183SOL    HW234790   1.561  10.362   3.314 -0.5317  0.4406 -1.0556
 9184SOL     OW34791   2.823   3.661   9.872  0.2574  0.3472 -0.5275
 9184SOL    HW134792   2.834   3.755   9.888  1.1104  0.2697 -0.6431
 9184SOL    HW234793   2.765   3.657   9.796  0.1333  0.7739 -0.4625
 9185SOL     OW34794  12.230   2.362   4.323 -0.1756 -0.4247  0.1482
 9185SOL    HW134795  12.296   2.410   4.373 -1.1361  1.6855 -0.4876
 9185SOL    HW234796  12.149   2.412   4.336 -1.7837 -3.0289  1.0990
 9186SOL     OW34797  11.115   5.894   5.179  0.1558  0.3862  0.0339
 9186SOL    HW134798  11.025   5.923   5.173  0.5056  1.6333  0.4423
 9186SOL    HW234799  11.160   5.938   5.107  0.7102  0.9224  0.6886
 9187SOL     OW34800   8.493   2.651   4.286 -0.2455  0.2138  0.8649
 9187SOL    HW134801   8.549   2.659   4.364 -0.3481  1.0565  0.8637
 9187SOL    HW234802   8.545   2.689   4.215 -0.1771 -0.4974  0.5197
 9188SOL     OW34803   3.366   5.832  11.946  0.4925  0.1167 -0.3399
 9188SOL    HW134804   3.366   5.849  12.040 -0.6306  0.3133 -0.3566
 9188SOL    HW234805   3.424   5.757  11.934  1.1020  0.4549  0.4349
 9189SOL     OW34806  10.133   1.750   1.329 -0.0869 -0.3782  0.6747
 9189SOL    HW134807  10.128   1.822   1.266 -0.8865 -1.6781 -0.8229
 9189SOL    HW234808  10.189   1.783   1.399  0.5829  1.2491 -0.5628
 9190SOL     OW34809   2.982   0.842   3.730 -0.3202  0.2619  0.0779
 9190SOL    HW134810   3.005   0.929   3.698  0.7577 -0.0993 -0.1920
 9190SOL    HW234811   2.939   0.858   3.814  0.7798  1.0205  0.5232
 9191SOL     OW34812   5.854   6.594   3.365  0.0201 -0.0863 -0.4036
 9191SOL    HW134813   5.800   6.600   3.444 -0.9717  1.3735 -1.1421
 9191SOL    HW234814   5.811   6.652   3.302  0.9877 -0.9432 -1.9108
 9192SOL     OW34815   2.252   6.574   7.896 -0.1388  0.4871  0.5119
 9192SOL    HW134816   2.303   6.496   7.920 -0.7759  0.2471  1.1004
 9192SOL    HW234817   2.247   6.570   7.800  0.8766  0.4723  0.4493
 9193SOL     OW34818   7.432   0.163   9.527  0.1299 -0.0389 -0.2685
 9193SOL    HW134819   7.512   0.112   9.512  0.6694  0.6260  0.2728
 9193SOL    HW234820   7.398   0.129   9.610 -1.4147 -1.8849 -1.5518
 9194SOL     OW34821   6.397   7.315   7.663  0.0185  0.3134 -0.5204
 9194SOL    HW134822   6.376   7.223   7.679 -0.0236  0.0428 -1.9413
 9194SOL    HW234823   6.398   7.355   7.749 -1.2660 -0.7408  0.0198
 9195SOL     OW34824  10.920   9.334   0.360 -0.1745 -0.2589  0.2008
 9195SOL    HW134825  10.855   9.282   0.312 -1.5625  0.2507  1.4631
 9195SOL    HW234826  10.895   9.425   0.343 -0.9853 -0.0690  2.2036
 9196SOL     OW34827   5.190   8.286   8.780 -0.2744  0.4287  0.3663
 9196SOL    HW134828   5.250   8.346   8.823  0.7847 -0.4801  0.1964
 9196SOL    HW234829   5.240   8.249   8.707 -1.6448  1.0544 -0.9578
 9197SOL     OW34830   2.402  10.606   7.355  0.0948 -0.1155 -0.2275
 9197SOL    HW134831   2.478  10.660   7.334 -1.0269  1.0694 -1.4884
 9197SOL    HW234832   2.367  10.581   7.270 -1.2207 -0.2100  0.3236
 9198SOL     OW34833  12.351   2.930  11.929 -0.1835  0.0037 -0.0458
 9198SOL    HW134834  12.411   2.857  11.911  1.8146  1.4436  0.3969
 9198SOL    HW234835  12.408   3.007  11.932 -1.9217  1.3069  1.5195
 9199SOL     OW34836   2.365   2.332  10.622  0.3409  0.1849  0.4169
 9199SOL    HW134837   2.422   2.313  10.696 -0.6601  2.1066  1.7565
 9199SOL    HW234838   2.285   2.283  10.641  0.1746  0.4846  0.4976
 9200SOL     OW34839   9.842   3.833   9.572 -0.1345  0.1896  0.0170
 9200SOL    HW134840   9.927   3.809   9.536  0.9996  1.7951  1.4920
 9200SOL    HW234841   9.833   3.926   9.553 -1.1538  0.2432  0.6724
 9201SOL     OW34842   2.946  11.853   8.646 -0.2030  0.1271  0.2545
 9201SOL    HW134843   2.945  11.759   8.660  0.4084 -0.1541 -1.3175
 9201SOL    HW234844   2.971  11.891   8.730 -2.7456 -0.9256  1.6051
 9202SOL     OW34845   1.878  10.173   1.336  0.4631  0.3758 -0.1423
 9202SOL    HW134846   1.813  10.105   1.350 -1.0141  1.4578 -1.3978
 9202SOL    HW234847   1.828  10.248   1.304  2.1855  1.6622  0.0396
 9203SOL     OW34848   3.160  10.925   5.633  0.1727 -0.1986 -0.1286
 9203SOL    HW134849   3.201  10.935   5.718  1.5830 -0.2236 -0.7782
 9203SOL    HW234850   3.174  10.833   5.611  2.3146  0.3945 -1.5671
 9204SOL     OW34851   6.435   7.467   0.929  0.0996  0.2322  0.3160
 9204SOL    HW134852   6.475   7.398   0.981  0.6189  0.9563  0.8946
 9204SOL    HW234853   6.411   7.534   0.993 -0.3696  0.6019 -0.2410
 9205SOL     OW34854  12.068   2.361   2.969  0.0004  0.0350  0.0003
 9205SOL    HW134855  12.104   2.328   2.887  1.5211  2.5906 -0.4604
 9205SOL    HW234856  11.988   2.310   2.982 -0.0079 -0.8242 -2.7682
 9206SOL     OW34857   5.400   1.104   7.068 -0.2926 -0.0479 -0.4777
 9206SOL    HW134858   5.351   1.170   7.019 -1.3167 -2.0480 -2.3648
 9206SOL    HW234859   5.486   1.103   7.027 -0.8038 -0.9495 -1.6248
 9207SOL     OW34860   3.640   9.202   5.534 -1.0329  0.2126 -0.3717
 9207SOL    HW134861   3.730   9.235   5.545 -1.2621  0.6367  0.2858
 9207SOL    HW234862   3.585   9.267   5.577 -1.8469  0.9183 -2.3813
 9208SOL     OW34863   6.730   5.818   5.879 -0.1944  0.4803 -0.8170
 9208SOL    HW134864   6.700   5.841   5.791  1.2801  1.0870 -1.2002
 9208SOL    HW234865   6.825   5.808   5.870  0.0020  0.7070  0.7305
 9209SOL     OW34866   8.525   1.601  12.711  0.3979  0.7311 -0.6892
 9209SOL    HW134867   8.606   1.641  12.678  0.8705 -0.1759 -0.6618
 9209SOL    HW234868   8.551   1.559  12.793  0.0128 -0.0067 -0.9403
 9210SOL     OW34869   6.072   5.211  11.395 -0.4183 -0.0593  0.1362
 9210SOL    HW134870   6.022   5.223  11.314 -1.7908  0.0198  0.9739
 9210SOL    HW234871   6.022   5.259  11.461  0.1292 -0.9827  1.2404
 9211SOL     OW34872   3.809   5.527  12.180 -0.2404  0.1966  0.4197
 9211SOL    HW134873   3.864   5.513  12.103 -1.5014  0.9823 -0.6521
 9211SOL    HW234874   3.844   5.606  12.221  1.4677 -1.1142  1.6369
 9212SOL     OW34875   0.576  11.982   6.732  0.7534  0.3265 -0.4670
 9212SOL    HW134876   0.518  11.933   6.790  1.5346 -1.0667 -0.8358
 9212SOL    HW234877   0.529  11.986   6.649 -0.2099  2.0200  0.1041
 9213SOL     OW34878   5.418   9.549   1.579  0.0693 -0.4268 -0.2485
 9213SOL    HW134879   5.376   9.466   1.558 -1.1675  0.1106 -0.0035
 9213SOL    HW234880   5.389   9.568   1.669  0.1441  0.3725 -0.3874
 9214SOL     OW34881   6.920   1.776   3.281  0.3012 -0.6423  0.4979
 9214SOL    HW134882   6.829   1.782   3.250  0.6460 -1.7659 -0.7858
 9214SOL    HW234883   6.949   1.689   3.254  1.0636 -1.1968  2.8887
 9215SOL     OW34884   7.441   5.230  11.527  0.4834 -0.0060 -0.3542
 9215SOL    HW134885   7.440   5.154  11.584  0.8182 -0.4559 -0.9373
 9215SOL    HW234886   7.499   5.293  11.571  0.2782 -0.1215  0.0821
 9216SOL     OW34887   6.129  10.534   4.192 -0.2853  0.7942 -0.3195
 9216SOL    HW134888   6.099  10.447   4.167 -2.0428  1.7169 -1.6567
 9216SOL    HW234889   6.222  10.535   4.168 -0.5847 -0.2586 -1.6158
 9217SOL     OW34890   3.544   0.858   0.522 -0.3471  0.4189 -0.4553
 9217SOL    HW134891   3.502   0.799   0.586 -0.1263  0.0167 -0.6766
 9217SOL    HW234892   3.633   0.869   0.555  0.2563 -1.0278 -1.4852
 9218SOL     OW34893   5.778   8.547   5.734  0.1520 -0.1140 -0.4419
 9218SOL    HW134894   5.729   8.495   5.797 -0.6435  0.4866 -0.5496
 9218SOL    HW234895   5.740   8.525   5.649  0.4573 -0.0751 -0.5928
 9219SOL     OW34896   3.198   7.184   0.024 -0.2825 -0.0807  0.2454
 9219SOL    HW134897   3.164   7.273   0.033 -0.1277  0.0132 -0.0722
 9219SOL    HW234898   3.141   7.131   0.080  0.7801  0.4949  1.9605
 9220SOL     OW34899   7.844   0.450   8.498  0.2886 -0.0777 -0.4199
 9220SOL    HW134900   7.920   0.490   8.455 -0.5752  1.3294 -0.7109
 9220SOL    HW234901   7.772   0.461   8.436  0.0369 -2.3590 -0.6075
 9221SOL     OW34902   8.780   8.504   2.399  0.4679  0.5545 -0.0416
 9221SOL    HW134903   8.862   8.547   2.377  0.8614  1.1102  2.1793
 9221SOL    HW234904   8.739   8.562   2.464 -0.0664 -1.2815  1.3752
 9222SOL     OW34905   6.187   0.959   1.484  0.0858  0.1812 -0.3483
 9222SOL    HW134906   6.104   0.935   1.444  0.0396 -1.9605  0.8746
 9222SOL    HW234907   6.251   0.902   1.442  0.8785  1.4980 -0.9626
 9223SOL     OW34908   7.010   9.184   4.502  0.3457 -0.7631  0.1829
 9223SOL    HW134909   7.103   9.170   4.485  0.7346  0.8508  0.8370
 9223SOL    HW234910   6.972   9.096   4.500  1.6886 -1.3471 -1.1416
 9224SOL     OW34911   0.006   7.476   7.717 -0.3565  0.1407  0.0812
 9224SOL    HW134912   0.042   7.452   7.802  2.0356 -1.6648 -1.3066
 9224SOL    HW234913  -0.064   7.413   7.702 -0.6394  0.3245  0.6238
 9225SOL     OW34914   6.550  10.836   5.757  0.2555  0.1010 -0.0251
 9225SOL    HW134915   6.623  10.897   5.768  0.2425 -0.1209  1.5243
 9225SOL    HW234916   6.591  10.756   5.725  0.5422  0.2893 -0.1386
 9226SOL     OW34917   5.724   5.019  10.946  0.0749 -0.4539  0.3616
 9226SOL    HW134918   5.736   5.095  10.889 -0.3715  1.0712  2.2344
 9226SOL    HW234919   5.797   4.961  10.923  1.3249  1.2093 -0.0468
 9227SOL     OW34920  12.484  11.835  12.261  0.2597 -0.1800 -0.1700
 9227SOL    HW134921  12.388  11.827  12.263  0.1304  1.1812 -0.0755
 9227SOL    HW234922  12.511  11.777  12.190 -0.6008 -0.8799  0.0582
 9228SOL     OW34923   6.545   6.737   6.240  0.0874  0.1103  0.7486
 9228SOL    HW134924   6.466   6.690   6.268 -0.1682  0.7752  1.1799
 9228SOL    HW234925   6.542   6.734   6.145 -0.2726 -0.1756  0.7648
 9229SOL     OW34926   6.227   4.977   5.889  0.0723 -0.4366  0.4444
 9229SOL    HW134927   6.213   4.945   5.979 -1.5954 -1.6502 -0.2005
 9229SOL    HW234928   6.191   4.908   5.833  1.7991 -0.0700 -1.2188
 9230SOL     OW34929   0.143   1.221   0.675  0.0710  0.1339 -0.1061
 9230SOL    HW134930   0.172   1.273   0.601  0.6323 -0.4357 -0.2927
 9230SOL    HW234931   0.064   1.177   0.644 -0.5017  0.9769  0.1057
 9231SOL     OW34932   9.754  11.434   0.766 -0.1853 -0.4337 -0.1395
 9231SOL    HW134933   9.766  11.474   0.680  0.8813 -1.7685 -0.6465
 9231SOL    HW234934   9.687  11.366   0.752  0.5669 -1.1949 -0.1186
 9232SOL     OW34935  12.105  11.907   6.347  0.1039 -0.4452 -0.1429
 9232SOL    HW134936  12.167  11.843   6.379  0.3978 -0.4112 -0.6285
 9232SOL    HW234937  12.145  11.992   6.367 -0.4533 -0.4025  0.8254
 9233SOL     OW34938  10.439   7.361  10.456 -0.0821  0.3544 -0.4258
 9233SOL    HW134939  10.412   7.281  10.501  1.9665  0.5984  1.4252
 9233SOL    HW234940  10.386   7.430  10.496 -1.1007  0.0921 -1.2801
 9234SOL     OW34941   4.107   4.807   3.950 -0.1571  0.2928 -1.1506
 9234SOL    HW134942   4.060   4.730   3.918  2.5346 -2.0490  0.1683
 9234SOL    HW234943   4.074   4.820   4.039 -0.7524  0.8607 -1.4393
 9235SOL     OW34944   0.282   3.889   4.896 -0.3526 -0.0266  0.4121
 9235SOL    HW134945   0.239   3.845   4.822 -0.9357 -0.5931  1.0802
 9235SOL    HW234946   0.245   3.977   4.897 -0.2307  0.0333 -0.0565
 9236SOL     OW34947   9.499  12.234  10.080  0.0196  0.0410 -0.8567
 9236SOL    HW134948   9.507  12.167  10.012  0.1213 -0.5787 -0.2465
 9236SOL    HW234949   9.579  12.224  10.131 -0.2575  0.2087 -0.3911
 9237SOL     OW34950   3.945   0.483   0.299  0.0783 -0.6902 -0.1213
 9237SOL    HW134951   3.871   0.424   0.317 -1.9196  1.6289 -0.2411
 9237SOL    HW234952   3.927   0.519   0.212  1.7794 -0.6034 -0.4753
 9238SOL     OW34953  10.684   0.498   2.199  0.4673  0.0183  0.0251
 9238SOL    HW134954  10.695   0.588   2.170  1.4462  0.2578  1.0795
 9238SOL    HW234955  10.748   0.448   2.148  0.8200  0.1331  0.3475
 9239SOL     OW34956  11.627   0.632   7.809  0.5338 -0.0261 -0.2113
 9239SOL    HW134957  11.624   0.663   7.718  0.5054 -2.5681 -1.1626
 9239SOL    HW234958  11.687   0.557   7.807 -0.4792 -0.9658  1.5669
 9240SOL     OW34959   0.514   2.150   7.401 -0.4107  0.0660 -0.1347
 9240SOL    HW134960   0.453   2.109   7.463 -1.6240  1.1302 -0.5788
 9240SOL    HW234961   0.472   2.233   7.378  0.5803  0.2171 -1.4941
 9241SOL     OW34962   9.595  10.166  11.055  0.5514  0.0292 -0.2206
 9241SOL    HW134963   9.591  10.261  11.062 -0.6122  0.1981 -2.3858
 9241SOL    HW234964   9.550  10.135  11.133 -1.1371  1.3389 -0.6164
 9242SOL     OW34965  11.981  12.688   6.129  0.1631  0.4108 -0.7147
 9242SOL    HW134966  12.011  12.667   6.041 -1.7575  1.2649 -1.6338
 9242SOL    HW234967  11.908  12.629   6.145  0.9553 -0.2489  0.6437
 9243SOL     OW34968   3.992   2.871   1.738  0.3086 -0.2005  0.2365
 9243SOL    HW134969   3.942   2.790   1.743  0.5417 -0.3313  0.4386
 9243SOL    HW234970   4.074   2.846   1.696 -0.7738  0.4637 -2.5130
 9244SOL     OW34971   4.306   7.500   7.387  0.0384  0.6087 -0.6917
 9244SOL    HW134972   4.278   7.430   7.327  0.1287  0.6492 -0.7811
 9244SOL    HW234973   4.394   7.523   7.357  1.2101 -1.2071  1.0798
 9245SOL     OW34974  12.132  10.910   4.777  0.3156 -0.3791  0.3729
 9245SOL    HW134975  12.062  10.951   4.829 -1.3678 -0.8694 -1.3876
 9245SOL    HW234976  12.089  10.835   4.735  1.7724 -0.3875 -1.1882
 9246SOL     OW34977   2.868  12.324   4.078 -0.0571 -0.0544 -0.0736
 9246SOL    HW134978   2.863  12.318   4.173 -1.7272  0.5649 -0.0953
 9246SOL    HW234979   2.866  12.417   4.059  1.1317 -0.1351 -0.7005
 9247SOL     OW34980   0.771   8.273   0.233  0.6911  0.1939 -0.3810
 9247SOL    HW134981   0.845   8.213   0.238 -0.4446 -1.1763  1.3067
 9247SOL    HW234982   0.706   8.227   0.180  0.5129  0.7717 -0.6757
 9248SOL     OW34983   9.589  11.431   8.701 -0.9359  0.0688 -0.0374
 9248SOL    HW134984   9.528  11.386   8.642  0.2350 -0.3318 -0.9863
 9248SOL    HW234985   9.584  11.382   8.783  0.7294 -2.2438 -1.2133
 9249SOL     OW34986   8.129   2.569  10.289  0.1293 -0.6401  0.3848
 9249SOL    HW134987   8.114   2.512  10.365 -0.8758  0.0271  0.7156
 9249SOL    HW234988   8.177   2.515  10.227 -1.0424 -1.9596  0.5736
 9250SOL     OW34989   3.214   8.878   7.400  0.1428 -0.5846 -0.0309
 9250SOL    HW134990   3.205   8.825   7.479  1.8119  0.6482  1.0615
 9250SOL    HW234991   3.177   8.963   7.424  1.4949  0.0858 -0.2217
 9251SOL     OW34992  11.033  12.523  12.464  0.2804  0.0722 -0.4583
 9251SOL    HW134993  11.008  12.615  12.478  1.1796  0.0535  1.6748
 9251SOL    HW234994  11.079  12.499  12.544  1.8299 -1.6567 -1.7925
 9252SOL     OW34995   9.704   5.118   9.260 -0.6747 -0.5327 -0.8424
 9252SOL    HW134996   9.631   5.130   9.199 -0.5453  0.1839 -0.8679
 9252SOL    HW234997   9.775   5.170   9.222 -0.8917  0.7433  0.4107
 9253SOL     OW34998   3.255  12.141  12.242 -0.5920  0.0144  0.1109
 9253SOL    HW134999   3.271  12.150  12.148 -0.2268 -2.1818 -0.0892
 9253SOL    HW235000   3.253  12.046  12.257  1.1507  0.2810  2.6032
 9254SOL     OW35001   7.763  12.661   7.623  0.2453 -0.4334  0.5294
 9254SOL    HW135002   7.813  12.612   7.558 -2.5182 -1.3776 -1.0733
 9254SOL    HW235003   7.694  12.601   7.651 -2.3081  1.8764 -0.2848
 9255SOL     OW35004   7.113   0.095  12.238 -0.2090 -0.1539 -0.3478
 9255SOL    HW135005   7.102   0.190  12.242 -0.3902 -0.1278 -1.3160
 9255SOL    HW235006   7.203   0.080  12.268  0.3868  0.4710 -1.7381
 9256SOL     OW35007   6.176   4.691  11.438 -0.2462 -0.3779 -0.3263
 9256SOL    HW135008   6.104   4.628  11.441  0.9987 -1.8302  0.7003
 9256SOL    HW235009   6.186   4.720  11.528 -0.8604  1.4628 -0.7876
 9257SOL     OW35010   7.273   3.584   3.114 -0.3366 -0.2731  0.5144
 9257SOL    HW135011   7.209   3.527   3.073  0.8245 -0.7178 -0.7922
 9257SOL    HW235012   7.293   3.649   3.046 -0.8397  1.0572  1.5961
 9258SOL     OW35013   3.336   5.020   9.174  0.4093  0.5061  0.1713
 9258SOL    HW135014   3.306   5.014   9.265  0.3575  0.8801  0.1805
 9258SOL    HW235015   3.266   4.981   9.122  0.7657 -0.4035  0.3487
 9259SOL     OW35016   5.258   9.825   3.162 -0.0053 -0.0673  0.1996
 9259SOL    HW135017   5.228   9.913   3.188 -0.9318 -0.5460  0.7876
 9259SOL    HW235018   5.351   9.823   3.188 -0.2008  0.4370  0.9700
 9260SOL     OW35019   4.438   1.404   5.478 -0.1777  0.9732  0.5279
 9260SOL    HW135020   4.430   1.361   5.563  2.0877  1.5509  1.0924
 9260SOL    HW235021   4.464   1.494   5.499 -0.0765  1.2671 -0.7697
 9261SOL     OW35022   0.423  12.669   6.904 -0.5250 -0.2317  0.0497
 9261SOL    HW135023   0.346  12.695   6.955 -1.7221 -1.0421 -1.2488
 9261SOL    HW235024   0.465  12.601   6.956 -0.1645  0.8335  1.1854
 9262SOL     OW35025   4.228   9.404   4.605  0.0846  0.3201 -0.0691
 9262SOL    HW135026   4.247   9.493   4.576 -1.5182  0.6457 -0.1733
 9262SOL    HW235027   4.275   9.396   4.689  1.2951  0.7961 -0.6829
 9263SOL     OW35028   8.359  11.284  11.033  0.0887  0.2356 -0.4702
 9263SOL    HW135029   8.425  11.245  10.975 -1.4290 -0.9591 -1.4578
 9263SOL    HW235030   8.326  11.210  11.084  0.7876  1.1346  1.3714
 9264SOL     OW35031   0.475  12.032   0.177 -0.0660  0.6025 -0.4577
 9264SOL    HW135032   0.534  12.072   0.241  0.0104  1.5508 -1.0956
 9264SOL    HW235033   0.531  12.014   0.101 -0.5157  1.2146 -0.9482
 9265SOL     OW35034   6.056  11.174   0.270  0.3339  0.1317 -0.8835
 9265SOL    HW135035   6.065  11.080   0.289  0.5726  0.2101 -0.5968
 9265SOL    HW235036   6.111  11.217   0.336  0.9166  0.4264 -1.5421
 9266SOL     OW35037   0.340   4.811   5.775  0.2180 -0.6624  0.3240
 9266SOL    HW135038   0.284   4.799   5.852 -0.3528 -0.6522 -0.0804
 9266SOL    HW235039   0.311   4.742   5.714 -0.8401  0.6658 -0.7354
 9267SOL     OW35040  10.992   6.780   5.648  0.3521  0.4348  0.0539
 9267SOL    HW135041  10.901   6.798   5.670  0.4150 -0.3143  0.9621
 9267SOL    HW235042  10.993   6.773   5.553 -0.9265 -1.5955  0.1392
 9268SOL     OW35043  10.613   5.020   6.861 -0.4257 -0.0733  0.0978
 9268SOL    HW135044  10.635   5.034   6.770  0.2433  1.0109  0.4178
 9268SOL    HW235045  10.651   4.935   6.882 -0.2389 -0.1447 -0.5147
 9269SOL     OW35046   5.348   8.320   1.559 -0.0091 -0.2101  0.5854
 9269SOL    HW135047   5.371   8.239   1.605 -1.9043 -1.2847 -0.2634
 9269SOL    HW235048   5.387   8.310   1.472 -1.3860 -0.8882  0.0103
 9270SOL     OW35049   4.996   6.669   0.349  0.4492  0.0585 -0.5136
 9270SOL    HW135050   5.031   6.631   0.430 -0.2863  0.7945  0.1753
 9270SOL    HW235051   5.026   6.760   0.350 -2.1000  0.9857  0.5597
 9271SOL     OW35052   5.689   9.127   4.491  0.1540  0.0915  0.5882
 9271SOL    HW135053   5.615   9.144   4.549  1.3760  0.7583  2.0084
 9271SOL    HW235054   5.714   9.214   4.459 -0.0793 -0.2025 -0.4347
 9272SOL     OW35055   6.275  10.806   7.494  0.0930 -0.3144 -0.1370
 9272SOL    HW135056   6.359  10.850   7.482  1.5062 -2.4549  1.1231
 9272SOL    HW235057   6.236  10.850   7.570  1.3183 -0.9555  0.9018
 9273SOL     OW35058   4.556  10.153   4.228  0.0192 -0.5582 -0.6316
 9273SOL    HW135059   4.639  10.196   4.205  0.1141  0.2076  1.0141
 9273SOL    HW235060   4.583  10.075   4.278 -0.2357 -0.3218 -0.1161
 9274SOL     OW35061   3.924   5.017   2.470  0.0797  0.1811 -0.1153
 9274SOL    HW135062   3.974   5.099   2.474 -0.9975  0.8149  0.7656
 9274SOL    HW235063   3.859   5.031   2.401 -1.4494  0.8897  1.3967
 9275SOL     OW35064   6.273   4.650   5.549  0.1809  0.2409  0.0971
 9275SOL    HW135065   6.311   4.570   5.511  1.2938  1.0442 -0.5678
 9275SOL    HW235066   6.326   4.667   5.627 -0.4777 -0.0179  0.6085
 9276SOL     OW35067   9.754  10.205   2.342  0.4181  0.2393 -0.4114
 9276SOL    HW135068   9.821  10.268   2.368  0.2427  1.2802 -2.2794
 9276SOL    HW235069   9.799  10.146   2.281 -0.1411  0.4504 -1.0431
 9277SOL     OW35070   2.371  10.716   3.440 -0.6030 -0.5022 -0.3242
 9277SOL    HW135071   2.307  10.729   3.370 -0.7694 -1.7386 -0.4159
 9277SOL    HW235072   2.404  10.804   3.458 -0.4733 -0.1683 -2.0256
 9278SOL     OW35073   7.029  12.343  10.098 -0.1946 -0.2010  0.0605
 9278SOL    HW135074   7.093  12.363  10.030  0.8274  1.1409  1.3492
 9278SOL    HW235075   7.056  12.396  10.173 -1.9437 -0.7605  1.1529
 9279SOL     OW35076  11.156   8.987   7.808 -0.3614 -0.0184 -0.1079
 9279SOL    HW135077  11.173   9.058   7.870  2.7417 -1.3585  0.7934
 9279SOL    HW235078  11.200   9.015   7.727 -1.4439  0.2080 -0.6372
 9280SOL     OW35079   6.600   6.021   4.682  0.0946  0.6422  0.2996
 9280SOL    HW135080   6.681   5.981   4.713 -0.2265 -1.1212 -0.9537
 9280SOL    HW235081   6.627   6.077   4.609  0.0930 -1.6000 -1.5734
 9281SOL     OW35082  10.954   5.762   1.229  0.6139 -0.6892  0.0112
 9281SOL    HW135083  10.954   5.857   1.219  0.6356 -0.6232  0.5843
 9281SOL    HW235084  10.875   5.733   1.183  0.1226 -0.3053  0.5907
 9282SOL     OW35085   4.828  12.066   0.976  0.5014  0.0530 -0.1397
 9282SOL    HW135086   4.771  12.109   1.040 -0.0852  0.6544 -1.0447
 9282SOL    HW235087   4.842  11.978   1.012 -0.0937  0.2623  0.6347
 9283SOL     OW35088   3.147   2.457  10.135 -0.3967  0.6650  0.4336
 9283SOL    HW135089   3.185   2.458  10.223 -2.8704  1.2271  1.5677
 9283SOL    HW235090   3.195   2.387  10.090 -0.7005 -1.4129  3.0187
 9284SOL     OW35091   9.409   3.820   7.378 -0.3137  0.1780  0.3961
 9284SOL    HW135092   9.324   3.825   7.334  0.4214  3.7607 -1.0279
 9284SOL    HW235093   9.401   3.881   7.451  1.0024  0.5823  0.2211
 9285SOL     OW35094   5.541   9.176   4.201  0.5190 -0.6263 -0.1503
 9285SOL    HW135095   5.585   9.173   4.286  0.0741  3.3469  0.4525
 9285SOL    HW235096   5.447   9.176   4.223  0.3967  0.1016 -0.6271
 9286SOL     OW35097   5.179   7.719   0.018  0.0590  0.0352 -0.2359
 9286SOL    HW135098   5.191   7.749   0.109  0.8114 -0.1895 -0.2525
 9286SOL    HW235099   5.237   7.644   0.010 -1.2692 -1.0109 -0.4080
 9287SOL     OW35100   4.167   5.787  12.619  0.3099  0.0033  0.0872
 9287SOL    HW135101   4.220   5.847  12.567  2.9996 -2.2000  0.0623
 9287SOL    HW235102   4.223   5.763  12.692 -1.3439 -1.1374  1.0440
 9288SOL     OW35103   8.583   0.272   6.429 -0.2117 -0.1517  0.3913
 9288SOL    HW135104   8.517   0.308   6.489 -0.8577 -1.3811  0.4469
 9288SOL    HW235105   8.541   0.195   6.391  1.3870 -1.2916  0.8372
 9289SOL     OW35106  11.079   0.928   7.822 -0.3015  0.3357 -0.1259
 9289SOL    HW135107  11.100   1.015   7.787  1.4861 -0.1377 -0.3304
 9289SOL    HW235108  11.044   0.945   7.909  1.2461  1.2269  0.3612
 9290SOL     OW35109   7.797   6.603  10.161 -0.1279 -0.0482 -0.6274
 9290SOL    HW135110   7.828   6.617  10.251  0.8316 -3.5259 -0.2624
 9290SOL    HW235111   7.759   6.687  10.135  3.2804  2.4015  1.4810
 9291SOL     OW35112   3.760   4.544   8.980  0.6526 -0.3298  0.4558
 9291SOL    HW135113   3.717   4.459   8.974 -4.3605  1.9271 -0.3367
 9291SOL    HW235114   3.787   4.550   9.072 -1.2070 -1.8183  1.1731
 9292SOL     OW35115   4.890  11.754   4.810  0.2201  0.2296  0.0525
 9292SOL    HW135116   4.892  11.673   4.861 -1.1417 -0.3286 -0.7271
 9292SOL    HW235117   4.838  11.814   4.863  1.3279  0.6670  0.6861
 9293SOL     OW35118   9.332   4.372   5.442  0.5493 -0.4247 -0.2479
 9293SOL    HW135119   9.408   4.359   5.499  0.7765  0.1781 -0.3991
 9293SOL    HW235120   9.267   4.311   5.474  1.2213 -1.1996 -0.3359
 9294SOL     OW35121   5.777   7.085   3.498  0.2903 -0.2039  0.0052
 9294SOL    HW135122   5.817   7.169   3.524  1.1133  0.0276 -1.8193
 9294SOL    HW235123   5.840   7.019   3.528  0.5604 -0.0423 -0.2009
 9295SOL     OW35124   4.705   4.441   3.923 -0.0114 -0.0151 -0.6846
 9295SOL    HW135125   4.625   4.451   3.975  0.0379  2.0381 -0.9296
 9295SOL    HW235126   4.707   4.518   3.866  2.4082  0.2905 -0.2935
 9296SOL     OW35127  10.541   4.520   5.294  0.1238 -0.3087  0.9475
 9296SOL    HW135128  10.535   4.425   5.283  0.4936 -0.2236 -0.0463
 9296SOL    HW235129  10.490   4.556   5.222 -0.0812  0.2562  1.3619
 9297SOL     OW35130   2.102   2.821   9.847 -0.2892 -0.1441  0.3522
 9297SOL    HW135131   2.015   2.793   9.817 -0.0703  0.5606 -1.0600
 9297SOL    HW235132   2.162   2.787   9.781  0.4216  0.0451  0.8913
 9298SOL     OW35133  10.449  10.522   8.587 -0.3021  0.3454 -0.0942
 9298SOL    HW135134  10.454  10.453   8.522 -0.9255 -0.2077  0.4257
 9298SOL    HW235135  10.492  10.486   8.664 -1.0775  0.3186  0.3449
 9299SOL     OW35136  12.193   6.607  10.432  0.1190 -0.7543  0.2887
 9299SOL    HW135137  12.184   6.528  10.484 -0.5118 -1.0277 -0.2275
 9299SOL    HW235138  12.281   6.639  10.451 -0.4018 -0.3550  2.2034
 9300SOL     OW35139   7.077   1.282   7.547 -0.2145 -0.0380  0.3034
 9300SOL    HW135140   7.071   1.188   7.563 -1.2553  0.0690  0.5856
 9300SOL    HW235141   7.167   1.305   7.574  0.4137 -1.1218 -0.8012
 9301SOL     OW35142   9.785   1.964   3.718  0.0630 -0.4716 -0.1688
 9301SOL    HW135143   9.800   2.059   3.719  0.2891 -0.5010 -0.7070
 9301SOL    HW235144   9.839   1.932   3.646  1.3722 -1.2345  1.0865
 9302SOL     OW35145   4.644   5.436  10.369  0.1093 -0.4085  0.3002
 9302SOL    HW135146   4.623   5.527  10.388 -1.1212 -0.6926  0.4282
 9302SOL    HW235147   4.618   5.388  10.448  1.5796 -0.7717  0.5782
 9303SOL     OW35148   5.358   2.339  10.184  0.5399  0.0597 -0.4844
 9303SOL    HW135149   5.268   2.365  10.203  0.9127  1.0842 -0.0392
 9303SOL    HW235150   5.371   2.363  10.092  0.4328  0.1644 -0.4722
 9304SOL     OW35151   4.551  12.475   7.875  0.1377  0.6732 -0.0091
 9304SOL    HW135152   4.466  12.518   7.888  0.8864  2.1995  0.0537
 9304SOL    HW235153   4.605  12.541   7.833  0.6325 -1.0206 -2.2443
 9305SOL     OW35154  10.900   2.750  11.036 -0.0296  0.1170  0.0856
 9305SOL    HW135155  10.967   2.772  10.972  0.7155  1.6958  1.3279
 9305SOL    HW235156  10.903   2.822  11.100 -1.5242 -0.7943  1.2607
 9306SOL     OW35157   0.580  10.196   4.948 -0.0151  0.3690 -0.2971
 9306SOL    HW135158   0.509  10.146   4.908 -0.3715  0.0463  0.7244
 9306SOL    HW235159   0.546  10.285   4.953 -0.9645 -0.0600  1.5592
 9307SOL     OW35160  11.205   8.223   8.414  0.1971  0.1684 -0.6071
 9307SOL    HW135161  11.260   8.289   8.372  2.5950  1.4006  3.8290
 9307SOL    HW235162  11.259   8.144   8.414  0.1588  0.1369 -0.1141
 9308SOL     OW35163   9.297   7.782   4.281  0.7357  0.5578  0.5196
 9308SOL    HW135164   9.298   7.730   4.362 -1.0437 -2.9539 -1.4587
 9308SOL    HW235165   9.205   7.786   4.257  1.3655 -0.6810 -2.5032
 9309SOL     OW35166   0.103   4.758   9.116 -0.6555  0.3918  0.7215
 9309SOL    HW135167   0.133   4.675   9.080  0.5597  0.4919  1.4866
 9309SOL    HW235168   0.072   4.737   9.204 -0.5939  0.7131  0.8211
 9310SOL     OW35169   6.217   8.089   3.375 -0.0636 -0.0439  0.5012
 9310SOL    HW135170   6.178   8.168   3.412 -0.8468 -1.0754  2.0103
 9310SOL    HW235171   6.308   8.091   3.406  0.1471  0.6361 -0.1288
 9311SOL     OW35172   3.507   0.175   4.506  0.6895 -0.8510  0.2199
 9311SOL    HW135173   3.472   0.179   4.417  1.9070 -0.4447 -0.2665
 9311SOL    HW235174   3.601   0.162   4.494  0.9794 -0.0408  1.4353
 9312SOL     OW35175   2.183   7.068   8.811  0.1423 -0.3302  0.1767
 9312SOL    HW135176   2.235   6.988   8.803 -0.0780 -0.6945  1.9535
 9312SOL    HW235177   2.110   7.043   8.868  0.8439  1.4761  1.9627
 9313SOL     OW35178  12.120   9.694   3.921  0.0299 -0.5793 -0.1167
 9313SOL    HW135179  12.048   9.746   3.885  1.0841  0.3521 -0.9541
 9313SOL    HW235180  12.118   9.613   3.871 -0.4020 -0.5442 -0.1658
 9314SOL     OW35181   7.569   6.569   2.128 -0.2065  0.5975  0.2830
 9314SOL    HW135182   7.554   6.541   2.037 -0.9875 -0.7831  0.8114
 9314SOL    HW235183   7.644   6.517   2.157 -0.2998  0.6381  0.5998
 9315SOL     OW35184   5.045   2.588  10.697 -0.6117  0.2431 -0.1184
 9315SOL    HW135185   5.129   2.542  10.689 -0.2106  0.8268  0.5208
 9315SOL    HW235186   5.068   2.670  10.741 -1.4808  0.5379 -0.2026
 9316SOL     OW35187   8.045   2.588   5.296 -0.2458 -0.5816  0.3131
 9316SOL    HW135188   7.996   2.670   5.289 -2.0381 -1.6722 -0.8688
 9316SOL    HW235189   8.136   2.615   5.306 -0.8145  1.5400  0.2720
 9317SOL     OW35190  12.281   7.893   0.340 -0.6436  0.4277  0.8041
 9317SOL    HW135191  12.251   7.846   0.418 -1.1603 -0.4532  0.0867
 9317SOL    HW235192  12.213   7.958   0.323 -0.1963  1.0844  1.4771
 9318SOL     OW35193   8.393   2.068   6.721  0.3432  0.3529 -0.4509
 9318SOL    HW135194   8.360   1.988   6.761 -0.8250  0.5690 -0.9420
 9318SOL    HW235195   8.482   2.077   6.755  0.1354 -0.6108  0.3924
 9319SOL     OW35196   7.547   1.698   3.860  0.1594 -0.1401 -0.3623
 9319SOL    HW135197   7.529   1.682   3.953  0.9850 -0.0904 -0.1853
 9319SOL    HW235198   7.518   1.788   3.846 -1.3416 -0.6136 -0.5310
 9320SOL     OW35199   8.325   8.831  11.241 -0.1965 -0.1652 -0.5258
 9320SOL    HW135200   8.374   8.750  11.253  0.8995  0.6586  0.9349
 9320SOL    HW235201   8.238   8.803  11.213  0.4488 -1.7749 -1.0147
 9321SOL     OW35202   4.643   8.555   6.608  0.1909  0.2918 -0.4378
 9321SOL    HW135203   4.655   8.649   6.596 -1.5763  0.5438 -0.4273
 9321SOL    HW235204   4.590   8.547   6.687 -1.4061 -0.5659 -1.5316
 9322SOL     OW35205   0.901   7.848  11.032  0.3136  0.1791  0.0369
 9322SOL    HW135206   0.912   7.760  10.997 -0.8552  0.4184 -1.0367
 9322SOL    HW235207   0.912   7.905  10.956 -1.0093  0.8131  0.2918
 9323SOL     OW35208  11.421  11.853   8.917  0.2233  0.1148  0.2336
 9323SOL    HW135209  11.453  11.870   9.006  0.3629  0.0238  0.2009
 9323SOL    HW235210  11.481  11.901   8.860 -0.7449  1.4247  0.2589
 9324SOL     OW35211   1.387   9.855  12.499  0.1589 -0.0509 -0.2477
 9324SOL    HW135212   1.404   9.868  12.593  0.4593 -1.8590 -0.0171
 9324SOL    HW235213   1.297   9.885  12.486  0.5796  1.5758  0.2925
 9325SOL     OW35214  11.887   9.784   5.557  0.2995  0.4243  0.1883
 9325SOL    HW135215  11.904   9.691   5.567 -0.2658  0.3204  0.1653
 9325SOL    HW235216  11.961   9.816   5.505 -0.5372 -0.3925 -1.5820
 9326SOL     OW35217  12.210   1.494   3.945 -0.9025 -0.0516 -0.0157
 9326SOL    HW135218  12.239   1.410   3.980 -0.5433  0.8804  2.0098
 9326SOL    HW235219  12.121   1.504   3.978 -1.3648 -0.0983 -1.1738
 9327SOL     OW35220  10.234  10.857   9.292 -0.1678  0.4589  0.3718
 9327SOL    HW135221  10.164  10.799   9.322 -2.4650  0.9292 -3.4142
 9327SOL    HW235222  10.243  10.837   9.199  4.7063  0.6337  0.5509
 9328SOL     OW35223   0.234   6.834  12.202 -0.6302 -0.0011  0.0016
 9328SOL    HW135224   0.177   6.765  12.168  0.0267 -0.7185  0.3074
 9328SOL    HW235225   0.259   6.803  12.289  1.6145 -0.5799 -0.7760
 9329SOL     OW35226   0.783   1.725   1.623 -0.3404 -0.0968 -0.0829
 9329SOL    HW135227   0.838   1.650   1.601  0.0857 -0.2617  1.4781
 9329SOL    HW235228   0.694   1.698   1.598 -0.2993 -1.3955  1.0960
 9330SOL     OW35229   5.267   8.957   0.241 -0.1547  0.1844 -0.1477
 9330SOL    HW135230   5.298   8.962   0.151  0.6662  0.6011  0.1477
 9330SOL    HW235231   5.345   8.972   0.295 -0.5124 -0.6698  0.6449
 9331SOL     OW35232   4.866   0.252   5.993 -0.5183 -0.5857 -0.2629
 9331SOL    HW135233   4.839   0.301   6.071  0.5309 -1.2914  0.5845
 9331SOL    HW235234   4.934   0.192   6.025 -1.1791 -2.0119 -1.4022
 9332SOL     OW35235   6.324   8.722  10.080  0.4764 -0.1381  0.0944
 9332SOL    HW135236   6.327   8.716   9.984 -0.1114  0.6939  0.0141
 9332SOL    HW235237   6.252   8.782  10.098 -0.1189 -1.1170  1.0983
 9333SOL     OW35238  10.326  11.179  10.850  0.2462  0.3692  0.5721
 9333SOL    HW135239  10.322  11.235  10.928  0.6199 -0.4290  1.1787
 9333SOL    HW235240  10.303  11.237  10.778  1.9129  1.6413  1.0088
 9334SOL     OW35241  11.822   1.368   8.847 -0.3402  0.5030  0.3794
 9334SOL    HW135242  11.776   1.322   8.776  1.8802 -0.9710 -0.2152
 9334SOL    HW235243  11.837   1.456   8.812  0.9383 -0.2622 -1.1973
 9335SOL     OW35244   8.499   6.853   2.396  0.0933 -0.9452 -0.2281
 9335SOL    HW135245   8.539   6.768   2.413 -0.4206 -1.1640 -0.0905
 9335SOL    HW235246   8.490   6.857   2.301 -3.7602 -2.9062 -0.1383
 9336SOL     OW35247   4.674   0.369   7.469  0.1113  0.6529  0.5026
 9336SOL    HW135248   4.654   0.451   7.513  0.5169  0.8226  0.3726
 9336SOL    HW235249   4.764   0.380   7.437 -0.2926  0.6864 -0.6887
 9337SOL     OW35250   2.955   7.545   5.279  0.1742 -0.2880 -0.2605
 9337SOL    HW135251   2.957   7.516   5.370 -0.5743 -0.7385 -0.3724
 9337SOL    HW235252   2.866   7.524   5.249  0.9462 -1.8414 -1.6242
 9338SOL     OW35253   6.647   9.948  12.463 -0.2070 -0.0875  0.6036
 9338SOL    HW135254   6.585   9.901  12.407 -0.3679  0.8424 -0.0280
 9338SOL    HW235255   6.696  10.003  12.402  1.2509 -0.8034  1.0895
 9339SOL     OW35256   6.340   9.050  11.198 -0.0529  0.5320  0.3915
 9339SOL    HW135257   6.337   9.038  11.293 -0.0936  2.2007  0.6296
 9339SOL    HW235258   6.261   9.007  11.165  1.0407 -2.0025  0.8312
 9340SOL     OW35259   8.880   3.194   3.432  0.3394 -0.0848  0.2111
 9340SOL    HW135260   8.885   3.166   3.523 -2.0992 -1.3973  0.0318
 9340SOL    HW235261   8.787   3.211   3.417  0.8737  1.6963 -1.6155
 9341SOL     OW35262   8.808  10.424  12.555 -0.1885 -0.2096 -0.1742
 9341SOL    HW135263   8.739  10.368  12.590 -0.1345 -0.9886 -1.2507
 9341SOL    HW235264   8.822  10.490  12.623  1.2846 -2.7394  2.2221
 9342SOL     OW35265   6.828  10.090   5.263 -0.4096 -0.1659  0.1821
 9342SOL    HW135266   6.751  10.038   5.288 -2.3576  0.9826 -2.9185
 9342SOL    HW235267   6.882  10.030   5.211 -0.8585 -0.0663 -0.3975
 9343SOL     OW35268   5.637  10.518   1.931  0.1943 -0.3894 -0.0022
 9343SOL    HW135269   5.617  10.609   1.911  1.2218 -0.5242 -1.8793
 9343SOL    HW235270   5.730  10.508   1.909  0.5724 -1.4964  1.7996
 9344SOL     OW35271   4.256   3.997   7.215 -0.4907  0.3137 -0.1864
 9344SOL    HW135272   4.348   3.972   7.229 -0.1780  1.5358  0.0575
 9344SOL    HW235273   4.261   4.074   7.159 -1.4357 -0.3029 -1.1579
 9345SOL     OW35274  10.978   8.233   7.788  0.2931 -0.0976  0.1023
 9345SOL    HW135275  10.998   8.162   7.849  1.3496 -0.7481 -0.9541
 9345SOL    HW235276  10.886   8.255   7.806 -0.6892 -3.0258 -0.7747
 9346SOL     OW35277   1.510   3.836   9.801 -0.1977  0.7060  0.0051
 9346SOL    HW135278   1.449   3.903   9.771 -0.4235  0.4715 -0.0674
 9346SOL    HW235279   1.454   3.769   9.842 -0.0423  0.2044 -0.5864
 9347SOL     OW35280   0.018   0.021   2.751  0.0455 -0.0499  0.1604
 9347SOL    HW135281   0.049   0.064   2.671 -0.2023  1.0556  0.6455
 9347SOL    HW235282   0.030  -0.073   2.733  0.8461  0.2133 -0.8158
 9348SOL     OW35283  11.798   5.212  11.020 -0.0496  0.4216 -0.1473
 9348SOL    HW135284  11.883   5.167  11.029 -1.2228 -2.1488 -0.9678
 9348SOL    HW235285  11.739   5.160  11.075 -1.2485  1.8146 -0.0805
 9349SOL     OW35286   2.402  10.651   0.659  0.0417  0.0921 -0.2959
 9349SOL    HW135287   2.407  10.605   0.743  0.5478 -1.7542 -1.2723
 9349SOL    HW235288   2.312  10.683   0.655 -0.2124 -0.4295  0.6336
 9350SOL     OW35289   3.612  11.659  10.333  0.1917  0.1845  0.1143
 9350SOL    HW135290   3.667  11.584  10.310 -0.7817 -0.5346  0.0599
 9350SOL    HW235291   3.544  11.623  10.389 -0.4643  0.9691 -0.1484
 9351SOL     OW35292   5.408  10.153   3.920  0.6834 -0.5816 -0.3942
 9351SOL    HW135293   5.332  10.166   3.864  0.8856 -2.1885 -1.0841
 9351SOL    HW235294   5.375  10.100   3.993  1.0835 -1.0872 -0.5762
 9352SOL     OW35295   6.006   3.512   1.501 -0.2639  0.7842 -0.3956
 9352SOL    HW135296   6.009   3.417   1.493 -0.3429  0.8325 -1.0524
 9352SOL    HW235297   6.059   3.544   1.428  0.9940  1.2220  0.6652
 9353SOL     OW35298   3.767  10.134   8.568 -0.5820 -0.0159  0.0412
 9353SOL    HW135299   3.856  10.144   8.534 -0.4761  1.0027  0.5994
 9353SOL    HW235300   3.715  10.194   8.515 -1.6834 -3.1728 -2.8126
 9354SOL     OW35301   6.954   6.135   8.263 -0.3371  0.0449 -0.1941
 9354SOL    HW135302   6.874   6.110   8.309 -0.0599  0.1990  0.3840
 9354SOL    HW235303   6.933   6.126   8.170 -0.9174 -0.2354 -0.0360
 9355SOL     OW35304   1.846  12.172   8.198 -0.9033  0.5127 -0.2688
 9355SOL    HW135305   1.843  12.170   8.102  1.4808 -1.4425 -0.3984
 9355SOL    HW235306   1.756  12.154   8.225 -1.5713  0.8481 -2.1406
 9356SOL     OW35307  11.112   3.621   3.841  0.2654 -0.1583  0.2087
 9356SOL    HW135308  11.016   3.622   3.847  0.1161  1.6354 -1.4402
 9356SOL    HW235309  11.137   3.714   3.840  1.8004 -0.5266 -1.8025
 9357SOL     OW35310  12.446   0.073   7.858 -0.1947 -0.0626 -1.1250
 9357SOL    HW135311  12.509   0.060   7.929 -0.7624 -0.6673 -0.7207
 9357SOL    HW235312  12.426  -0.015   7.826 -1.7530 -0.0015 -0.4231
 9358SOL     OW35313   6.276   1.383   0.462  0.4572  0.0371 -0.3711
 9358SOL    HW135314   6.291   1.289   0.471 -0.6000 -0.0789  0.2897
 9358SOL    HW235315   6.239   1.392   0.374 -2.4479 -0.6175  0.6509
 9359SOL     OW35316  12.502   0.281   7.482 -0.1287  0.0652 -0.3711
 9359SOL    HW135317  12.595   0.294   7.466  0.1888 -0.7481  0.6977
 9359SOL    HW235318  12.489   0.186   7.475 -0.5173 -0.0244  1.1969
 9360SOL     OW35319  10.055   5.827   0.367 -0.0515 -0.1465 -0.0480
 9360SOL    HW135320  10.073   5.835   0.273 -0.2667 -2.7629 -0.3761
 9360SOL    HW235321  10.142   5.826   0.408  0.0522  0.6486 -0.2385
 9361SOL     OW35322  10.460   6.067  10.657 -0.1650 -0.4069 -0.4117
 9361SOL    HW135323  10.535   6.122  10.634 -0.2899 -0.3774 -0.7583
 9361SOL    HW235324  10.431   6.030  10.573 -0.9019  0.0555 -0.3745
 9362SOL     OW35325   1.703   7.105   1.683 -0.3143  0.0469 -0.4269
 9362SOL    HW135326   1.672   7.153   1.607  2.2127 -1.2400 -2.4203
 9362SOL    HW235327   1.626   7.057   1.715 -1.6562  1.4056 -1.4884
 9363SOL     OW35328   5.437   2.462   2.218  0.1273 -0.4405 -0.1012
 9363SOL    HW135329   5.420   2.497   2.130 -1.6639 -2.5910 -0.6836
 9363SOL    HW235330   5.529   2.436   2.216 -0.6099 -3.4888 -2.5879
 9364SOL     OW35331   4.728   8.447   7.007 -0.1068 -0.0793  0.0853
 9364SOL    HW135332   4.753   8.450   6.915 -0.1211  0.7571  0.1061
 9364SOL    HW235333   4.633   8.461   7.007 -0.6075 -2.8650  0.0314
 9365SOL     OW35334   5.765   2.424  11.994  0.1237 -0.2843  0.6362
 9365SOL    HW135335   5.734   2.447  11.906 -1.8238 -0.4213  1.2210
 9365SOL    HW235336   5.780   2.508  12.037 -0.5874 -0.1734  0.6875
 9366SOL     OW35337  11.446  12.557   9.746 -0.0842  0.1023 -0.3792
 9366SOL    HW135338  11.508  12.494   9.782  0.1359 -0.1815 -1.2352
 9366SOL    HW235339  11.390  12.581   9.820  1.3759  0.7758  0.5574
 9367SOL     OW35340   0.806   5.184   4.445 -0.3377  1.1603 -0.4566
 9367SOL    HW135341   0.883   5.132   4.423 -1.3224 -1.3225  1.5274
 9367SOL    HW235342   0.836   5.245   4.512 -0.2272 -0.4518  1.0184
 9368SOL     OW35343   6.922   9.332   7.989  0.3239 -0.6303 -0.6556
 9368SOL    HW135344   6.951   9.416   8.023  1.0480 -1.0282 -0.2722
 9368SOL    HW235345   6.861   9.354   7.918 -1.5033  0.2231  1.0818
 9369SOL     OW35346   4.254   9.254   4.150  0.0553  0.2001  0.1209
 9369SOL    HW135347   4.185   9.291   4.205 -1.1047  1.2213 -1.8835
 9369SOL    HW235348   4.216   9.253   4.062  1.5725 -1.9534 -0.6020
 9370SOL     OW35349   6.027   4.897  12.365 -0.2230  0.6248  0.1432
 9370SOL    HW135350   6.091   4.961  12.334 -0.2242  0.4232 -0.2675
 9370SOL    HW235351   6.045   4.890  12.459 -2.0986  3.4147  0.8432
 9371SOL     OW35352   3.431  12.068   8.464  0.4889 -0.0384  0.1093
 9371SOL    HW135353   3.351  12.054   8.413  0.3003 -0.1243  0.4286
 9371SOL    HW235354   3.416  12.020   8.546  0.2766  1.1063  0.7655
 9372SOL     OW35355   0.675   3.074   0.502 -0.2938  0.3369  0.1118
 9372SOL    HW135356   0.640   2.986   0.491 -1.1049  0.1969  2.8648
 9372SOL    HW235357   0.600   3.132   0.487  0.1266  0.5622 -1.2324
 9373SOL     OW35358   6.551   9.668   3.239 -0.1797  0.0794  1.4258
 9373SOL    HW135359   6.577   9.759   3.252 -0.7785  0.2769  1.2819
 9373SOL    HW235360   6.458   9.667   3.259 -0.5862 -0.1148 -0.3373
 9374SOL     OW35361   5.522  10.544   3.590  0.3298  0.0983 -0.2251
 9374SOL    HW135362   5.538  10.638   3.602 -0.4315  0.1852  0.1199
 9374SOL    HW235363   5.429  10.532   3.606  0.0297 -0.4345 -2.0543
 9375SOL     OW35364   6.753  10.276   9.569  0.1365  0.1906 -0.2307
 9375SOL    HW135365   6.728  10.292   9.478 -0.9823  1.7463  0.3111
 9375SOL    HW235366   6.690  10.212   9.601  0.9542 -0.8870 -0.7198
 9376SOL     OW35367   5.375   9.643  11.837  0.1246 -0.3605  0.0966
 9376SOL    HW135368   5.368   9.681  11.924 -2.0338  0.4217 -0.3639
 9376SOL    HW235369   5.348   9.551  11.849  0.3913 -0.4042  0.3549
 9377SOL     OW35370   1.897   7.103   4.385 -0.5281 -0.1345 -0.1326
 9377SOL    HW135371   1.871   7.010   4.381  2.3647 -1.0509  0.3444
 9377SOL    HW235372   1.922   7.125   4.295  1.7986 -0.8580  0.2659
 9378SOL     OW35373   9.960   7.710   3.149  0.3415  0.2745  0.2990
 9378SOL    HW135374   9.934   7.665   3.069  0.6629  0.3562  0.1457
 9378SOL    HW235375   9.926   7.799   3.139 -1.8780 -0.3837  1.3927
 9379SOL     OW35376   1.719   0.085  11.345 -0.2248  0.0758 -0.1466
 9379SOL    HW135377   1.639   0.035  11.334  0.1618 -1.0190  1.6136
 9379SOL    HW235378   1.690   0.173  11.367 -0.9183  0.1401 -1.2564
 9380SOL     OW35379   0.839   0.834   4.069 -0.0292  0.6098 -0.3100
 9380SOL    HW135380   0.799   0.760   4.114 -0.0091  1.5901  1.4171
 9380SOL    HW235381   0.911   0.795   4.018  0.5406 -0.4726  1.2510
 9381SOL     OW35382   7.812   0.479  12.218 -0.3478  0.0127 -0.3953
 9381SOL    HW135383   7.778   0.454  12.303  0.9588  1.1873  0.5156
 9381SOL    HW235384   7.832   0.396  12.174 -1.8351 -0.6215  0.0606
 9382SOL     OW35385   5.809   6.052   9.333 -0.2931  0.2288  0.4013
 9382SOL    HW135386   5.881   6.060   9.396 -0.5285  0.5638  0.6290
 9382SOL    HW235387   5.823   5.967   9.293  1.4153  1.1124 -1.0270
 9383SOL     OW35388   7.799   0.446   0.533 -0.0632  1.1311  0.3868
 9383SOL    HW135389   7.733   0.470   0.469  0.2188 -0.6412 -0.6320
 9383SOL    HW235390   7.755   0.453   0.618 -1.3914  0.5106 -0.2352
 9384SOL     OW35391   3.092  10.587  10.817  0.0096  0.6374  0.6629
 9384SOL    HW135392   3.049  10.656  10.868 -0.4384  0.3966  0.6197
 9384SOL    HW235393   3.020  10.530  10.790  0.4392 -0.1497  1.1688
 9385SOL     OW35394  12.062   5.158   4.947  0.4906 -0.1726  0.0242
 9385SOL    HW135395  12.001   5.223   4.913  0.5881  0.4233  0.9683
 9385SOL    HW235396  12.089   5.192   5.032  1.9647 -0.5346 -0.2722
 9386SOL     OW35397  11.958   8.349   0.101 -0.4666 -0.0377  0.9309
 9386SOL    HW135398  11.924   8.438   0.085  0.4382  0.4420  1.5942
 9386SOL    HW235399  11.933   8.300   0.023 -0.8337  0.8509  0.4711
 9387SOL     OW35400   8.589  10.197  12.428 -0.4649 -0.1219 -0.3580
 9387SOL    HW135401   8.544  10.145  12.495 -0.1076  0.0211 -0.0020
 9387SOL    HW235402   8.536  10.276  12.420 -0.9637 -0.4979 -0.8396
 9388SOL     OW35403  11.811   7.643   8.759  0.2648  0.6980  0.8199
 9388SOL    HW135404  11.889   7.674   8.806  1.0383  1.5376 -0.9214
 9388SOL    HW235405  11.828   7.550   8.745  1.1596  0.9349  0.1670
 9389SOL     OW35406   2.468   3.555   9.015 -0.1734  0.3482  0.1594
 9389SOL    HW135407   2.395   3.573   9.075 -1.1624  1.8675 -1.3990
 9389SOL    HW235408   2.427   3.544   8.929  1.2835 -0.8483 -0.4416
 9390SOL     OW35409   6.754  11.528   8.352 -0.1203  0.3453 -0.4178
 9390SOL    HW135410   6.769  11.556   8.443 -0.1201  1.2941 -0.6925
 9390SOL    HW235411   6.660  11.513   8.346 -0.0414 -0.3058 -0.1106
 9391SOL     OW35412   5.519   9.134   0.101 -0.0866  0.8564  0.4706
 9391SOL    HW135413   5.513   9.039   0.108 -0.7495  0.8874  0.4004
 9391SOL    HW235414   5.612   9.152   0.092  0.0096  0.1834  0.0792
 9392SOL     OW35415   2.947   2.420   6.373  0.4912  0.1825  0.2412
 9392SOL    HW135416   3.020   2.471   6.335  0.6482 -0.2081  0.0126
 9392SOL    HW235417   2.880   2.485   6.391 -0.4656  0.1799 -2.7245
 9393SOL     OW35418   0.452   1.328   3.451  0.5411 -0.3521  0.0455
 9393SOL    HW135419   0.458   1.378   3.370  3.1108  0.2231  0.5113
 9393SOL    HW235420   0.388   1.375   3.505  0.7414  0.7369 -0.6529
 9394SOL     OW35421  11.627   0.382   4.147 -0.2982 -0.1631  0.1848
 9394SOL    HW135422  11.681   0.306   4.129  0.2078  0.4016 -0.6971
 9394SOL    HW235423  11.554   0.347   4.198  1.6569 -0.7074  2.8380
 9395SOL     OW35424   1.619  11.152   1.405 -0.5419 -0.5572 -0.3946
 9395SOL    HW135425   1.535  11.140   1.448 -1.2338 -1.2010 -1.8418
 9395SOL    HW235426   1.681  11.104   1.459 -0.3087  2.9091  2.7810
 9396SOL     OW35427   3.320   8.823   4.672  0.6800  0.0832 -0.3059
 9396SOL    HW135428   3.227   8.801   4.672  0.9823 -1.6023  2.0724
 9396SOL    HW235429   3.349   8.805   4.583 -1.4523  1.8405 -1.4552
 9397SOL     OW35430  12.704  11.422   2.725  0.2447 -0.0434  0.1707
 9397SOL    HW135431  12.608  11.428   2.718  0.3314 -0.0736 -1.3330
 9397SOL    HW235432  12.721  11.328   2.732  0.1802 -0.0458  0.3220
 9398SOL     OW35433   6.993   1.900   5.195  0.6309  0.4895  0.0781
 9398SOL    HW135434   7.005   1.965   5.126  1.2346 -2.3477 -2.7024
 9398SOL    HW235435   6.899   1.903   5.215  0.2544  0.7092 -1.6246
 9399SOL     OW35436   7.621   9.534   4.126 -0.1546 -0.3099 -0.4638
 9399SOL    HW135437   7.625   9.625   4.154 -0.9465 -0.1974 -0.7067
 9399SOL    HW235438   7.713   9.506   4.122  0.1049 -0.9947  4.3376
 9400SOL     OW35439   0.868   9.076  11.506  0.2823  0.3017  0.1823
 9400SOL    HW135440   0.956   9.067  11.470 -0.4105  0.3558 -1.5839
 9400SOL    HW235441   0.812   9.027  11.446 -0.6803 -1.3721  2.3208
 9401SOL     OW35442   5.915   3.524   7.805  0.4848 -0.1274  0.0387
 9401SOL    HW135443   5.920   3.436   7.841  0.4989 -0.6640 -1.2352
 9401SOL    HW235444   6.007   3.548   7.787  0.5474  0.4513  1.0721
 9402SOL     OW35445   0.345   6.592  10.805 -0.8804  0.2581  0.2432
 9402SOL    HW135446   0.322   6.632  10.721  2.0437  0.8207 -0.3699
 9402SOL    HW235447   0.261   6.581  10.849 -2.3002  2.0298 -1.8082
 9403SOL     OW35448   3.046  10.656   1.998 -0.6122 -0.0455  0.2551
 9403SOL    HW135449   3.064  10.585   2.060  0.1584 -1.1805 -1.2119
 9403SOL    HW235450   2.971  10.625   1.948 -1.5453  1.0862  0.9014
 9404SOL     OW35451  11.489   0.140   1.053 -0.0374  0.0307  0.5767
 9404SOL    HW135452  11.568   0.193   1.055 -0.4188  0.6051  0.5277
 9404SOL    HW235453  11.516   0.055   1.089  0.7123  0.0619  0.1136
 9405SOL     OW35454   0.378   1.722   0.307  0.2769  0.2416 -0.2173
 9405SOL    HW135455   0.302   1.744   0.360 -0.6266  1.4534 -1.9190
 9405SOL    HW235456   0.448   1.779   0.340  0.0356  0.2078  0.3589
 9406SOL     OW35457   2.339   7.155  11.357  0.4912 -0.1312  0.0514
 9406SOL    HW135458   2.409   7.100  11.391  0.9360 -0.2747 -1.0528
 9406SOL    HW235459   2.382   7.237  11.335 -0.2058  0.7947  1.8862
 9407SOL     OW35460   5.816  11.580  12.483 -0.0556 -0.6402  0.2756
 9407SOL    HW135461   5.911  11.584  12.499 -0.2114 -0.8377  1.3173
 9407SOL    HW235462   5.808  11.535  12.400  0.7672 -0.8495  0.3018
 9408SOL     OW35463   9.956  11.360   7.520  0.9410 -0.6562 -0.3392
 9408SOL    HW135464   9.875  11.343   7.472  1.3645 -1.6560 -0.7193
 9408SOL    HW235465   9.930  11.360   7.612  0.6188 -1.6887 -0.4212
 9409SOL     OW35466  10.534  10.188   4.933  0.0855 -0.0421  0.4135
 9409SOL    HW135467  10.499  10.142   4.857  0.5007  0.7701 -0.2924
 9409SOL    HW235468  10.594  10.126   4.975 -1.2110 -0.9946  0.9069
 9410SOL     OW35469   7.081   7.031   4.251 -0.0321  0.3322 -0.0319
 9410SOL    HW135470   7.156   6.995   4.297  0.2683  1.5136  0.4125
 9410SOL    HW235471   7.118   7.081   4.178 -0.4687 -0.6759 -0.9779
 9411SOL     OW35472   0.342   2.005  10.543  0.3340 -0.2334 -0.2195
 9411SOL    HW135473   0.362   2.096  10.522  1.3453 -0.3826  0.0371
 9411SOL    HW235474   0.289   1.974  10.470 -0.0051  0.5499 -0.3157
 9412SOL     OW35475   4.264   8.673  11.049 -0.0597  0.5280 -0.3610
 9412SOL    HW135476   4.219   8.637  11.125 -1.5019  1.8101 -0.5686
 9412SOL    HW235477   4.336   8.725  11.086  0.8040 -0.8939  0.0037
 9413SOL     OW35478   3.099   4.235   0.651  0.3611 -0.7769 -0.1032
 9413SOL    HW135479   3.105   4.304   0.586 -0.4512 -0.2909  0.3249
 9413SOL    HW235480   3.006   4.212   0.654  0.5586 -1.5898  0.0683
 9414SOL     OW35481  11.983   4.360   3.170  0.6617 -0.0529  0.0230
 9414SOL    HW135482  11.998   4.385   3.261  2.0970 -1.1648  0.1321
 9414SOL    HW235483  12.068   4.373   3.127  0.3555 -0.7885 -0.8434
 9415SOL     OW35484   7.417   4.233  11.254  0.2015  0.8269  0.3330
 9415SOL    HW135485   7.419   4.317  11.301  1.9109  0.4617  0.9726
 9415SOL    HW235486   7.357   4.178  11.305 -0.8844  1.6109 -0.0536
 9416SOL     OW35487  11.206   2.528  12.129 -0.1299 -0.0587 -0.4137
 9416SOL    HW135488  11.176   2.597  12.070 -0.2300 -1.3217 -1.9410
 9416SOL    HW235489  11.301   2.539  12.133 -0.1895  0.4180 -0.3114
 9417SOL     OW35490   8.934  11.058   2.440 -0.0079  0.3890  0.5851
 9417SOL    HW135491   8.994  11.001   2.391 -2.2044 -0.2765 -1.5542
 9417SOL    HW235492   8.872  10.997   2.482 -1.6564  1.0701 -0.7232
 9418SOL     OW35493   9.993  11.481  10.391  0.2692  0.1650  0.3722
 9418SOL    HW135494  10.067  11.486  10.330 -0.5304  0.3770 -0.6134
 9418SOL    HW235495   9.916  11.472  10.334 -0.4453 -0.3081  1.3815
 9419SOL     OW35496   9.483   3.134   0.847  0.5081  0.0965 -0.0010
 9419SOL    HW135497   9.406   3.078   0.841 -0.1404  0.7600  1.5436
 9419SOL    HW235498   9.478   3.191   0.770  0.3419 -0.9158 -0.7555
 9420SOL     OW35499   0.839   7.991   0.551  0.6994 -0.0869 -0.1591
 9420SOL    HW135500   0.835   8.039   0.469  0.3702 -0.5866 -0.4348
 9420SOL    HW235501   0.927   8.011   0.585 -0.1455  2.4366  0.8002
 9421SOL     OW35502   0.491   9.328   1.114  0.5113  0.3330  0.8024
 9421SOL    HW135503   0.490   9.238   1.148  2.0237  0.3922  1.0679
 9421SOL    HW235504   0.580   9.340   1.081  0.4403  1.8472  1.0933
 9422SOL     OW35505   5.522   7.762   8.766  0.1931  0.0824  0.2075
 9422SOL    HW135506   5.507   7.849   8.805 -1.0437 -0.1770  0.3570
 9422SOL    HW235507   5.603   7.732   8.807  0.1552  0.7961  0.8427
 9423SOL     OW35508   5.061   8.463   5.406 -0.5821 -0.1566 -0.1963
 9423SOL    HW135509   5.025   8.457   5.317  0.1495  1.8654 -0.6809
 9423SOL    HW235510   5.126   8.393   5.410 -1.4495 -1.0293 -0.8158
 9424SOL     OW35511  10.210   2.659   7.930  0.1648  0.2273  0.6066
 9424SOL    HW135512  10.281   2.653   7.868 -0.4302 -1.4345  0.0416
 9424SOL    HW235513  10.204   2.572   7.970 -3.0889 -0.5192 -1.1610
 9425SOL     OW35514  11.459  11.955   5.872  0.5801  0.3005  0.0058
 9425SOL    HW135515  11.507  11.881   5.835  0.6882  1.0816 -1.4615
 9425SOL    HW235516  11.525  12.025   5.879 -0.2322  1.2909 -1.7651
 9426SOL     OW35517   7.199   9.182   4.901  0.4317 -0.3408 -0.1395
 9426SOL    HW135518   7.173   9.141   4.983  0.0972 -0.5575 -0.3507
 9426SOL    HW235519   7.119   9.226   4.870  0.6054 -0.1029 -0.2541
 9427SOL     OW35520   1.293  10.751   0.964  0.2633  0.2273  0.7590
 9427SOL    HW135521   1.202  10.726   0.951  1.1299 -2.3365 -1.0730
 9427SOL    HW235522   1.300  10.838   0.923 -0.9964 -0.2897 -0.6332
 9428SOL     OW35523   1.672   1.874   6.365 -0.1575  0.0988  0.1179
 9428SOL    HW135524   1.744   1.915   6.414 -0.7129  1.1315  0.0921
 9428SOL    HW235525   1.708   1.791   6.335  0.1778 -0.6224  2.3679
 9429SOL     OW35526   7.927   4.044  10.731 -0.0475 -0.0905 -0.6832
 9429SOL    HW135527   7.986   4.116  10.753  1.5060 -0.2718 -3.7084
 9429SOL    HW235528   7.906   4.003  10.815  1.1097  2.2885  0.8622
 9430SOL     OW35529  12.467   9.541  12.320 -0.2469 -0.1259  0.0623
 9430SOL    HW135530  12.512   9.540  12.404 -1.1071  0.1748  0.5352
 9430SOL    HW235531  12.407   9.616  12.325  1.1220  1.1777 -1.5919
 9431SOL     OW35532   1.225   2.614  11.324 -0.0815 -0.2476 -0.1814
 9431SOL    HW135533   1.163   2.541  11.326 -0.4837  0.0841 -0.4864
 9431SOL    HW235534   1.272   2.607  11.407 -1.3486  0.2109  0.5919
 9432SOL     OW35535   0.654   4.949   4.612  0.1502 -0.4456 -0.5678
 9432SOL    HW135536   0.674   5.042   4.599  0.2070 -0.2958  0.5343
 9432SOL    HW235537   0.735   4.904   4.589  0.4979 -0.1308  0.0271
 9433SOL     OW35538   9.574   8.721   5.217 -0.3175  0.2115  0.4807
 9433SOL    HW135539   9.493   8.741   5.171 -0.2998  3.8495  1.7179
 9433SOL    HW235540   9.643   8.748   5.156 -0.0809 -0.7853  0.2941
 9434SOL     OW35541  11.612  10.729   6.321  0.5553  0.0606 -0.2040
 9434SOL    HW135542  11.558  10.660   6.282  2.1977 -2.0088  0.9950
 9434SOL    HW235543  11.560  10.809   6.310 -0.4634 -0.8887 -3.6837
 9435SOL     OW35544   5.314   2.679  12.478  0.0778  0.4977 -0.0047
 9435SOL    HW135545   5.350   2.726  12.554  1.8725 -1.0031  0.1600
 9435SOL    HW235546   5.390   2.635  12.440 -1.2513 -0.9761 -1.0545
 9436SOL     OW35547   7.152   8.438  10.932  0.4224 -0.1035  0.0406
 9436SOL    HW135548   7.210   8.367  10.904 -1.0621 -1.2633 -0.2473
 9436SOL    HW235549   7.099   8.399  11.002 -1.6942  0.0970 -1.3661
 9437SOL     OW35550   1.036   0.168   9.456 -0.1437 -0.1980  0.6380
 9437SOL    HW135551   1.089   0.246   9.472  0.3777 -0.4368  0.1447
 9437SOL    HW235552   1.074   0.101   9.513  0.9889 -0.7397 -0.6867
 9438SOL     OW35553   0.043   7.380   5.075 -0.1044 -0.0496  0.1614
 9438SOL    HW135554   0.084   7.302   5.112 -0.2587  0.3068  1.1215
 9438SOL    HW235555  -0.050   7.359   5.070 -0.1916  0.1793  0.7272
 9439SOL     OW35556   3.967   5.553   7.277  0.3701 -0.1662 -0.2058
 9439SOL    HW135557   3.897   5.614   7.299  0.6221  0.1518 -0.2809
 9439SOL    HW235558   4.038   5.608   7.244  0.9932 -0.4028  0.6909
 9440SOL     OW35559  10.973   8.361   8.485 -0.3986  0.5093 -0.0403
 9440SOL    HW135560  10.977   8.452   8.457 -1.1191  0.2376 -1.0976
 9440SOL    HW235561  11.065   8.335   8.496 -0.2078  1.7326  1.6208
 9441SOL     OW35562  11.768   1.752   1.038  0.0680  0.1130 -0.9845
 9441SOL    HW135563  11.698   1.693   1.067  0.7661 -0.8174 -1.1217
 9441SOL    HW235564  11.837   1.741   1.103 -0.1500  1.5175 -0.4917
 9442SOL     OW35565   9.669  11.535   4.318  0.2711 -0.5123 -0.0340
 9442SOL    HW135566   9.646  11.595   4.247  1.1207  0.4326  0.4621
 9442SOL    HW235567   9.753  11.498   4.292  1.1612  0.7148  0.9853
 9443SOL     OW35568   4.514   2.509   8.649 -0.0693 -0.5769  0.6496
 9443SOL    HW135569   4.564   2.441   8.695 -0.8469 -1.3667  0.3573
 9443SOL    HW235570   4.428   2.507   8.690 -0.3981 -0.4460 -0.0237
 9444SOL     OW35571   8.882   9.975   5.784 -0.1033 -0.0538 -0.4366
 9444SOL    HW135572   8.944   9.940   5.721 -0.5864  0.2596 -1.0951
 9444SOL    HW235573   8.863  10.064   5.752 -1.6972 -0.5144 -0.8466
 9445SOL     OW35574   9.864  12.205   9.436 -0.1871 -0.2512 -0.4569
 9445SOL    HW135575   9.866  12.284   9.382  1.0150  1.3495  1.7373
 9445SOL    HW235576   9.781  12.211   9.483  0.1027 -0.0333  0.0354
 9446SOL     OW35577   5.785   2.980   5.951 -0.2260  0.1018  0.1001
 9446SOL    HW135578   5.777   2.900   5.900 -0.7012  0.6789 -0.7473
 9446SOL    HW235579   5.704   2.986   6.001 -0.8782  0.8497 -1.0205
 9447SOL     OW35580   7.266   3.258  11.996 -0.1232 -0.3497 -0.6301
 9447SOL    HW135581   7.314   3.338  12.018  1.6977 -1.3723 -0.7025
 9447SOL    HW235582   7.174   3.285  11.994  0.1586  1.1466  2.0788
 9448SOL     OW35583   5.812   9.862  10.398 -0.4811  0.4850 -0.2909
 9448SOL    HW135584   5.813   9.799  10.470  0.3507  0.8029 -0.0203
 9448SOL    HW235585   5.720   9.867  10.373 -0.4163 -1.7714 -1.1574
 9449SOL     OW35586   8.261   9.555   8.160 -0.3904  0.0314  0.2389
 9449SOL    HW135587   8.231   9.645   8.175  1.1069  0.3722  1.3743
 9449SOL    HW235588   8.241   9.539   8.068 -0.0325  1.7967 -0.1871
 9450SOL     OW35589   0.749  12.246   0.613 -0.1633 -0.9946 -0.3536
 9450SOL    HW135590   0.744  12.341   0.600 -0.1369 -0.7573  1.1647
 9450SOL    HW235591   0.826  12.234   0.669 -0.5843 -1.8459  0.0572
 9451SOL     OW35592   1.063   1.271   9.124  0.9085 -0.5242 -0.7994
 9451SOL    HW135593   1.021   1.231   9.200  0.7127  0.2160 -0.5084
 9451SOL    HW235594   1.052   1.207   9.054 -0.8108 -0.3327 -0.7584
 9452SOL     OW35595   0.531   8.113   6.468  0.0400  0.3192 -0.6347
 9452SOL    HW135596   0.615   8.069   6.465  0.3231  0.9169 -1.8536
 9452SOL    HW235597   0.471   8.054   6.423 -0.0929  0.1297 -0.2179
 9453SOL     OW35598   0.708   9.752  12.587  0.2551 -0.0284 -0.1780
 9453SOL    HW135599   0.799   9.732  12.563 -0.0405 -0.0308 -1.3556
 9453SOL    HW235600   0.713   9.777  12.680  1.3807 -0.4929 -0.0943
 9454SOL     OW35601   4.637   5.512   8.589 -0.6863  0.0920  0.0252
 9454SOL    HW135602   4.542   5.504   8.587 -0.6307 -0.4745 -0.5782
 9454SOL    HW235603   4.653   5.591   8.641 -1.4089 -1.2160  2.3607
 9455SOL     OW35604   2.556   5.090  10.783  0.8864 -0.2463  0.2246
 9455SOL    HW135605   2.534   5.010  10.830  0.4993 -0.7180 -0.7322
 9455SOL    HW235606   2.472   5.130  10.762  1.0299 -0.2436 -0.3808
 9456SOL     OW35607   2.658  11.371   4.846 -0.0262 -0.4446 -0.2933
 9456SOL    HW135608   2.649  11.466   4.856  2.2517 -0.1449 -0.4338
 9456SOL    HW235609   2.666  11.357   4.752  0.5343 -0.6522 -0.2213
 9457SOL     OW35610   8.137   9.848   7.640  0.0649  0.6954 -0.1851
 9457SOL    HW135611   8.129   9.762   7.600  0.9452 -0.0659  1.1583
 9457SOL    HW235612   8.080   9.844   7.717  2.1717  0.2682  1.4424
 9458SOL     OW35613   6.537   3.163   3.704 -0.3863 -0.5406  1.0018
 9458SOL    HW135614   6.504   3.076   3.684 -1.0263 -0.6779  2.5319
 9458SOL    HW235615   6.459   3.218   3.707 -0.0080  0.0491  0.2666
 9459SOL     OW35616  10.848   1.788   7.547 -0.1533  0.8248 -0.0680
 9459SOL    HW135617  10.938   1.794   7.580  0.6888  0.1603 -2.0894
 9459SOL    HW235618  10.843   1.702   7.505 -1.0991  1.6199 -1.7040
 9460SOL     OW35619   1.841   0.402   1.518 -0.0017 -0.2353 -0.3364
 9460SOL    HW135620   1.916   0.374   1.570  0.0843  2.1986  0.9940
 9460SOL    HW235621   1.854   0.361   1.433  2.6226 -0.2080 -0.0191
 9461SOL     OW35622  10.718   6.878  10.745 -0.0232  0.0855  0.0176
 9461SOL    HW135623  10.697   6.957  10.794  0.3918  1.1040 -1.3924
 9461SOL    HW235624  10.813   6.870  10.750  0.0939  0.5596 -1.1057
 9462SOL     OW35625   8.313   5.356   7.524 -0.0561 -0.1009 -0.9047
 9462SOL    HW135626   8.222   5.346   7.497 -0.2627  2.0780 -1.2140
 9462SOL    HW235627   8.363   5.315   7.454 -0.7510  0.8118 -1.9658
 9463SOL     OW35628   9.768   5.682   1.885  0.2917  0.3236 -0.2751
 9463SOL    HW135629   9.770   5.608   1.825  0.2007 -1.6247  1.9567
 9463SOL    HW235630   9.858   5.714   1.887  0.4109  0.0508 -0.9726
 9464SOL     OW35631   1.047  11.581   5.584  0.2672 -0.1735 -0.0194
 9464SOL    HW135632   1.122  11.605   5.639 -1.0585 -0.1608  1.9110
 9464SOL    HW235633   1.005  11.509   5.631  0.1607 -1.5256 -2.0797
 9465SOL     OW35634  12.225   2.492   9.494 -0.6565  0.8277 -0.7317
 9465SOL    HW135635  12.179   2.441   9.427 -2.3008  1.4138 -0.0936
 9465SOL    HW235636  12.284   2.549   9.444 -0.1376 -0.3728 -1.5409
 9466SOL     OW35637   9.819  10.696   0.306  0.1129 -0.1505 -0.0867
 9466SOL    HW135638   9.891  10.758   0.314  0.4797 -0.6956  1.0008
 9466SOL    HW235639   9.819  10.670   0.214  1.0160  0.1985 -0.1874
 9467SOL     OW35640   8.335  12.129  11.589 -0.1534  0.2048  0.3889
 9467SOL    HW135641   8.415  12.088  11.557 -0.4151 -0.5758  0.7052
 9467SOL    HW235642   8.345  12.222  11.567 -0.3680 -0.2745 -2.0611
 9468SOL     OW35643   6.457   8.136   3.057 -0.0137 -0.1283  0.6272
 9468SOL    HW135644   6.379   8.096   3.095  1.0738 -0.1611  3.0054
 9468SOL    HW235645   6.514   8.062   3.035  0.5349 -0.0464  1.6973
 9469SOL     OW35646   5.409   4.281  10.953  0.2007  0.1181  0.3605
 9469SOL    HW135647   5.449   4.194  10.958  0.2693  0.1810  1.1977
 9469SOL    HW235648   5.456   4.326  10.884 -1.1525 -1.1560 -1.4747
 9470SOL     OW35649   0.251   9.014   6.803 -0.0178  0.2492  0.0556
 9470SOL    HW135650   0.295   9.034   6.885  0.4948  0.3709 -0.2492
 9470SOL    HW235651   0.301   9.060   6.736 -0.6997  0.5194 -0.2765
 9471SOL     OW35652   7.203   2.636   7.053 -0.0602  0.0321 -0.1861
 9471SOL    HW135653   7.257   2.562   7.025  0.3244 -0.6612  2.1535
 9471SOL    HW235654   7.264   2.710   7.056  0.6618 -0.5747  1.6834
 9472SOL     OW35655   7.456  12.587   4.979  0.0443 -0.2033  0.1392
 9472SOL    HW135656   7.476  12.520   4.913 -2.3873 -0.3545 -0.5163
 9472SOL    HW235657   7.509  12.662   4.953  0.3700 -0.8025 -1.0014
 9473SOL     OW35658   8.046   8.230   3.592  0.3985  0.0939  0.2095
 9473SOL    HW135659   8.129   8.190   3.618  0.6726  0.8933  0.6041
 9473SOL    HW235660   8.045   8.314   3.638 -0.5730  0.1480  0.1051
 9474SOL     OW35661   2.463  10.747   6.234 -0.4318 -0.6238  0.2253
 9474SOL    HW135662   2.531  10.697   6.281  0.3836 -1.1219 -1.3807
 9474SOL    HW235663   2.490  10.838   6.243 -0.5157 -0.6723  1.0488
 9475SOL     OW35664   4.413   1.976  10.562 -0.0416  0.0581  0.0526
 9475SOL    HW135665   4.408   1.893  10.609  1.3760  0.0635  0.2488
 9475SOL    HW235666   4.496   2.014  10.589 -0.4045  1.2794 -0.4790
 9476SOL     OW35667   3.011   0.240   3.538  0.0324 -0.1407 -0.3333
 9476SOL    HW135668   3.098   0.220   3.572 -0.0797  1.5058  1.0581
 9476SOL    HW235669   3.015   0.215   3.446  1.5243 -1.3653  0.0196
 9477SOL     OW35670  10.283   7.487  11.110  0.0025  0.1349 -0.5616
 9477SOL    HW135671  10.248   7.443  11.187 -1.0849  0.3459 -0.9279
 9477SOL    HW235672  10.317   7.417  11.055 -0.0045 -0.0840 -0.2906
 9478SOL     OW35673   4.252   4.463   9.894  0.1007 -0.4742 -0.2127
 9478SOL    HW135674   4.196   4.475   9.817 -0.5845 -1.0036  0.1946
 9478SOL    HW235675   4.339   4.451   9.858  0.0149  0.6583 -0.8501
 9479SOL     OW35676   5.565   7.576   0.275 -0.1308 -0.5007 -0.6021
 9479SOL    HW135677   5.654   7.542   0.283  0.0314  0.1708  0.7812
 9479SOL    HW235678   5.528   7.567   0.363 -0.9753  0.4612 -0.8374
 9480SOL     OW35679  11.862  10.294   0.166  0.1104 -0.5046  0.1804
 9480SOL    HW135680  11.896  10.252   0.087 -1.2457 -0.7825 -0.2870
 9480SOL    HW235681  11.782  10.337   0.137  0.4753  0.8255  1.0687
 9481SOL     OW35682  11.229  12.405   4.581  0.1802 -0.1595  0.4292
 9481SOL    HW135683  11.302  12.378   4.636  0.7626  1.3311  0.4262
 9481SOL    HW235684  11.224  12.338   4.513  0.7042 -0.9665  1.1772
 9482SOL     OW35685   7.869  12.365   8.799  0.0404 -0.0561  0.3656
 9482SOL    HW135686   7.944  12.308   8.783  1.2345  1.6809 -0.6445
 9482SOL    HW235687   7.803  12.338   8.735  0.5053 -0.4258  0.0348
 9483SOL     OW35688   0.308   6.173   8.171 -0.1361 -0.2296  0.5911
 9483SOL    HW135689   0.234   6.123   8.137 -0.3651 -0.4929  1.4604
 9483SOL    HW235690   0.384   6.119   8.152 -0.0309  0.4563 -1.1382
 9484SOL     OW35691   3.929   1.642   3.132 -0.2938  0.0852 -0.1820
 9484SOL    HW135692   3.841   1.648   3.094 -0.7754  0.6703  0.9665
 9484SOL    HW235693   3.928   1.705   3.204  0.2624 -1.5692  1.3621
 9485SOL     OW35694   3.185   0.665   2.979 -0.0036  0.1836  0.2190
 9485SOL    HW135695   3.240   0.590   3.003 -0.3590  0.5449  2.2679
 9485SOL    HW235696   3.097   0.640   3.007 -0.7056  0.1666 -1.8360
 9486SOL     OW35697   9.733   6.559   8.483  0.1372  0.2980  0.0643
 9486SOL    HW135698   9.799   6.536   8.419  1.0337  0.2645  0.9819
 9486SOL    HW235699   9.782   6.592   8.558 -0.8850  0.3301  0.7424
 9487SOL     OW35700   7.659  11.336   8.869  0.2245  0.7530  0.1638
 9487SOL    HW135701   7.676  11.248   8.902  0.1424  1.5757  2.6383
 9487SOL    HW235702   7.745  11.370   8.844  0.5048  0.5190  0.7818
 9488SOL     OW35703   0.359   7.894   5.142  0.0452 -0.1042  0.6384
 9488SOL    HW135704   0.356   7.880   5.236  0.2960  0.1585  0.6861
 9488SOL    HW235705   0.269   7.879   5.113 -0.4261  1.5023  1.1717
 9489SOL     OW35706   0.559   0.341  11.776 -0.6663  0.2919  0.0662
 9489SOL    HW135707   0.539   0.363  11.867  3.4250  0.3370  1.1336
 9489SOL    HW235708   0.553   0.246  11.773  2.2839 -0.0455  1.4216
 9490SOL     OW35709   2.153   1.228   1.865 -0.0532 -0.0982 -0.3727
 9490SOL    HW135710   2.241   1.240   1.829  1.1497 -1.8715  1.7195
 9490SOL    HW235711   2.168   1.187   1.950 -2.9485 -0.6616 -0.0519
 9491SOL     OW35712  12.492  11.992   0.346 -0.1430  0.5382  0.5767
 9491SOL    HW135713  12.425  11.943   0.298  0.3820  1.8890 -1.6864
 9491SOL    HW235714  12.444  12.066   0.384 -0.0261  1.4261 -0.9216
 9492SOL     OW35715   8.153   2.891   9.252  0.5826 -0.1820  0.1081
 9492SOL    HW135716   8.232   2.916   9.203 -0.4847  0.7898 -1.2235
 9492SOL    HW235717   8.118   2.975   9.284 -0.0466 -0.5669  0.4443
 9493SOL     OW35718  12.293   4.512   5.641  0.1932 -0.0638  0.2357
 9493SOL    HW135719  12.382   4.482   5.657 -0.3160 -0.9884  1.6038
 9493SOL    HW235720  12.298   4.562   5.560  1.9946  0.1375  0.4295
 9494SOL     OW35721   9.579   1.453   9.132  0.0475 -0.0247  0.3896
 9494SOL    HW135722   9.514   1.384   9.140 -0.0860 -0.0888 -0.9583
 9494SOL    HW235723   9.629   1.430   9.053  1.3198  0.3385  1.0553
 9495SOL     OW35724  11.995   1.566   2.718  0.4999 -0.0456 -0.0854
 9495SOL    HW135725  12.039   1.604   2.795  1.5694  0.9201 -1.1259
 9495SOL    HW235726  12.060   1.570   2.649 -0.4132 -0.9909 -1.0370
 9496SOL     OW35727   3.325   5.223   5.910  0.0516 -0.0531  0.4061
 9496SOL    HW135728   3.242   5.231   5.862 -0.1103  1.8451  0.9083
 9496SOL    HW235729   3.390   5.263   5.852  0.5602 -1.1434  0.2032
 9497SOL     OW35730   6.147   6.323   6.186 -0.9085 -0.2051 -0.2117
 9497SOL    HW135731   6.191   6.331   6.101 -1.2342  0.1014 -0.3596
 9497SOL    HW235732   6.091   6.401   6.190 -0.4462  0.0904  0.5516
 9498SOL     OW35733   9.478  12.520  10.825  0.6194  0.3025 -0.4169
 9498SOL    HW135734   9.568  12.541  10.850  1.2852 -0.2386 -2.2174
 9498SOL    HW235735   9.452  12.451  10.887  1.8046 -0.2290 -0.4796
 9499SOL     OW35736   1.122   2.823   4.037  0.4757  0.1739  0.2067
 9499SOL    HW135737   1.157   2.867   3.960  1.3161  1.1522  1.0977
 9499SOL    HW235738   1.171   2.862   4.110 -1.0379  0.0623  1.3258
 9500SOL     OW35739   4.284   9.750   6.448 -0.1747  0.0542  0.0088
 9500SOL    HW135740   4.270   9.656   6.456  0.6284 -0.0075  0.8124
 9500SOL    HW235741   4.331   9.774   6.528  0.8357  0.8975 -0.8154
 9501SOL     OW35742   4.615   4.942  10.256  0.0391  0.4169 -0.3498
 9501SOL    HW135743   4.567   4.860  10.245 -0.4843  0.7525 -0.5902
 9501SOL    HW235744   4.694   4.917  10.305 -0.6342 -0.0515  0.5368
 9502SOL     OW35745   3.628   5.144   7.485  0.1118 -0.1801 -0.2000
 9502SOL    HW135746   3.681   5.159   7.564  0.2862  1.0256 -0.5274
 9502SOL    HW235747   3.652   5.056   7.457  0.1183 -0.5951  1.0345
 9503SOL     OW35748   8.980  10.942   2.078 -0.3339  0.1198 -0.0790
 9503SOL    HW135749   8.905  10.975   2.028 -0.2141  0.3570 -0.1010
 9503SOL    HW235750   8.947  10.935   2.168 -0.1504  0.9687  0.0571
 9504SOL     OW35751   2.401   8.484   2.896 -0.5859  0.0154  0.2531
 9504SOL    HW135752   2.491   8.487   2.865 -0.3004 -0.7402  0.9540
 9504SOL    HW235753   2.395   8.401   2.944 -0.5517  1.7234  3.4564
 9505SOL     OW35754   3.328  11.568   2.346  0.4346 -0.1851 -0.1280
 9505SOL    HW135755   3.330  11.482   2.389  2.1950 -0.0292  0.1881
 9505SOL    HW235756   3.333  11.549   2.253  1.1798 -0.4241 -0.0415
 9506SOL     OW35757   4.442  11.161   8.757  0.2934 -0.0490  0.5851
 9506SOL    HW135758   4.406  11.074   8.775  0.8808 -0.3340  0.4037
 9506SOL    HW235759   4.368  11.220   8.770 -0.1582 -0.5915  0.5405
 9507SOL     OW35760   7.950   9.927   6.475  1.0097  0.0051  0.1501
 9507SOL    HW135761   7.877   9.938   6.414  2.4526  2.2133 -1.2953
 9507SOL    HW235762   7.908   9.925   6.561 -0.8661 -0.4877 -0.7222
 9508SOL     OW35763   1.371   5.664   6.297 -0.0197  0.2555  0.8522
 9508SOL    HW135764   1.386   5.627   6.384  0.1007 -2.6454 -0.2881
 9508SOL    HW235765   1.448   5.639   6.246 -1.3224 -0.6441 -0.8077
 9509SOL     OW35766   2.382  12.072   0.721  0.1368  0.7304 -0.6179
 9509SOL    HW135767   2.474  12.096   0.710 -0.0934  1.6833 -0.5720
 9509SOL    HW235768   2.337  12.155   0.737 -0.4168  0.0428  1.6709
 9510SOL     OW35769   6.557   4.055   8.608 -0.0102 -0.5355  0.0361
 9510SOL    HW135770   6.575   3.981   8.550  0.1418  0.2725 -0.9809
 9510SOL    HW235771   6.641   4.074   8.649  0.3199  0.0255 -0.8684
 9511SOL     OW35772   1.156   7.075  11.612 -0.0343  0.2856  0.1862
 9511SOL    HW135773   1.212   6.999  11.596  0.4364  0.6708 -0.0052
 9511SOL    HW235774   1.091   7.072  11.542  0.0546  0.1218  0.1107
 9512SOL     OW35775   7.245  10.960   3.565  0.3831  0.0406 -0.0594
 9512SOL    HW135776   7.223  10.868   3.575  0.8417 -0.1794 -0.9404
 9512SOL    HW235777   7.327  10.971   3.613  1.0166 -0.3226 -1.0317
 9513SOL     OW35778   0.926  10.059   9.867 -0.5437  0.1152  0.7898
 9513SOL    HW135779   0.950   9.998   9.937 -1.3532 -1.1430  0.0252
 9513SOL    HW235780   0.958  10.144   9.896  1.6727 -0.8595  1.3769
 9514SOL     OW35781   4.630  12.455   2.607  0.3294  0.5559 -0.4498
 9514SOL    HW135782   4.595  12.391   2.669 -1.0779  0.6949 -1.0511
 9514SOL    HW235783   4.585  12.435   2.525  0.5053  1.7684 -0.8623
 9515SOL     OW35784   1.929   2.552  12.108 -0.6284  0.1093  0.5481
 9515SOL    HW135785   1.980   2.509  12.177  0.7911  0.7420 -0.0847
 9515SOL    HW235786   1.925   2.644  12.135  0.0722  0.3919 -0.2796
 9516SOL     OW35787  10.869   9.669   2.396  0.1362 -0.3342 -0.4185
 9516SOL    HW135788  10.928   9.596   2.377  0.1978  0.0502 -1.8395
 9516SOL    HW235789  10.883   9.730   2.323 -2.2491 -0.3896 -0.9931
 9517SOL     OW35790  12.131   7.756   7.588  0.3919  0.2981 -0.4690
 9517SOL    HW135791  12.179   7.681   7.553  0.3562  0.3211 -0.5683
 9517SOL    HW235792  12.166   7.832   7.541 -0.2568  0.2312 -1.0840
 9518SOL     OW35793   8.284   8.485   2.471  0.0398 -0.3735 -0.2700
 9518SOL    HW135794   8.310   8.512   2.559  0.9532 -1.3988 -0.1985
 9518SOL    HW235795   8.270   8.566   2.424 -0.6803  0.1973  0.8790
 9519SOL     OW35796   1.456   4.180   4.402  0.4544 -0.4467 -0.0638
 9519SOL    HW135797   1.410   4.262   4.418  0.2073 -0.0932 -2.3121
 9519SOL    HW235798   1.388   4.113   4.403  0.0979 -0.1316 -1.8040
 9520SOL     OW35799   5.169   1.199   0.156 -1.1300 -0.0585 -0.4616
 9520SOL    HW135800   5.100   1.135   0.171 -0.9900  0.0338  0.6267
 9520SOL    HW235801   5.172   1.251   0.236  1.0188 -0.8325  0.0005
 9521SOL     OW35802   1.689   7.993   8.350  0.0062 -0.4176 -0.4793
 9521SOL    HW135803   1.624   8.054   8.385  2.4767  2.7500 -0.9899
 9521SOL    HW235804   1.638   7.931   8.298 -2.9572 -0.6186  2.3068
 9522SOL     OW35805   3.198   6.199   8.419 -0.5943 -0.1653 -0.1178
 9522SOL    HW135806   3.120   6.150   8.445 -1.3740  0.2001 -1.6637
 9522SOL    HW235807   3.253   6.135   8.374  0.1370 -0.4712  1.1434
 9523SOL     OW35808  12.353  10.641   9.540  0.4159  0.1719  0.0989
 9523SOL    HW135809  12.417  10.669   9.605  0.3615  0.4848  0.0238
 9523SOL    HW235810  12.333  10.721   9.491  1.5718 -0.3569 -1.2742
 9524SOL     OW35811   2.886   0.594   6.095 -0.0592 -0.3598  0.0412
 9524SOL    HW135812   2.919   0.673   6.050  1.2469 -1.3109 -0.7490
 9524SOL    HW235813   2.807   0.570   6.046 -0.5870  0.5534  0.4158
 9525SOL     OW35814   0.311   9.273   0.871 -0.7485  0.3992 -0.2109
 9525SOL    HW135815   0.354   9.358   0.862 -2.0457  1.2872  1.4397
 9525SOL    HW235816   0.327   9.247   0.961  0.2047 -1.4911 -0.8594
 9526SOL     OW35817  11.992   9.753   0.633  0.5561 -0.7005 -0.0649
 9526SOL    HW135818  12.017   9.661   0.623 -1.6961 -1.3688 -0.0080
 9526SOL    HW235819  11.920   9.752   0.696  0.3120  1.0891 -0.2580
 9527SOL     OW35820   3.034  10.589   9.540 -0.3338  0.0514 -0.1576
 9527SOL    HW135821   3.007  10.672   9.502 -0.3643 -1.0758 -2.8004
 9527SOL    HW235822   2.955  10.554   9.580 -0.1718  1.5250  1.5743
 9528SOL     OW35823  12.449   0.138  12.357  0.2261  0.3790 -0.4227
 9528SOL    HW135824  12.543   0.118  12.358  0.3075  0.3447 -2.7439
 9528SOL    HW235825  12.428   0.150  12.264 -2.8687 -3.3765 -0.4628
 9529SOL     OW35826   3.913   4.459   0.292 -0.3036 -0.0964  0.2000
 9529SOL    HW135827   3.902   4.388   0.355  0.4353  0.3892  0.8966
 9529SOL    HW235828   3.953   4.530   0.342 -0.7076  0.6999 -0.5620
 9530SOL     OW35829   2.137   0.627   1.597 -0.3000  0.2177  0.7333
 9530SOL    HW135830   2.083   0.597   1.669  0.2577  0.1098  1.1141
 9530SOL    HW235831   2.217   0.575   1.603 -0.3191  0.0707 -0.0768
 9531SOL     OW35832   6.847   5.318   2.314  0.0585 -0.3238  0.0095
 9531SOL    HW135833   6.770   5.331   2.369 -1.0669  1.3433 -1.8194
 9531SOL    HW235834   6.813   5.276   2.235  0.8299  1.0841 -1.1322
 9532SOL     OW35835   1.701   8.742   8.899 -0.4144  0.3457 -0.4068
 9532SOL    HW135836   1.633   8.738   8.966 -0.2653 -0.3737 -0.2916
 9532SOL    HW235837   1.781   8.760   8.949 -0.2809 -0.3245 -0.3642
 9533SOL     OW35838   4.571   6.109   7.810 -0.1084 -0.1470 -0.2424
 9533SOL    HW135839   4.485   6.067   7.797 -0.0878 -0.4503  0.5437
 9533SOL    HW235840   4.551   6.191   7.855  0.0149 -0.2164 -0.0616
 9534SOL     OW35841   2.872   6.517  10.797 -0.2222 -0.1294 -0.2726
 9534SOL    HW135842   2.911   6.431  10.779 -2.9066 -1.2205 -1.4510
 9534SOL    HW235843   2.787   6.496  10.837 -0.8085  1.9917 -0.2878
 9535SOL     OW35844   3.474   8.008  11.732  0.0888 -0.1746 -0.1567
 9535SOL    HW135845   3.516   7.956  11.663  1.7831 -0.1701  0.7999
 9535SOL    HW235846   3.395   7.959  11.754 -0.0551 -0.6083 -1.5066
 9536SOL     OW35847   1.457   0.408   7.893 -0.3333  0.1071 -0.0056
 9536SOL    HW135848   1.535   0.383   7.941  1.3732 -1.0132 -3.0535
 9536SOL    HW235849   1.385   0.388   7.952  1.5834 -0.7955  2.1651
 9537SOL     OW35850   6.090   0.947   8.601  0.1916  0.7968 -0.3177
 9537SOL    HW135851   6.099   0.969   8.509  0.8443 -0.2267 -0.5149
 9537SOL    HW235852   6.178   0.922   8.629 -0.3948 -1.1871 -0.0464
 9538SOL     OW35853  10.728   3.670   9.704 -0.4905  0.2935  0.2001
 9538SOL    HW135854  10.816   3.632   9.711 -0.0071  1.4277  0.6121
 9538SOL    HW235855  10.731   3.724   9.625 -0.8081  0.3603  0.2325
 9539SOL     OW35856   9.279   2.282   1.428  0.2615  0.1295  0.1373
 9539SOL    HW135857   9.247   2.206   1.476  0.7498 -0.0449  0.1914
 9539SOL    HW235858   9.200   2.327   1.398 -0.0286 -0.5507 -0.1333
 9540SOL     OW35859   7.710  10.034  11.767 -0.9395 -0.1832  0.3816
 9540SOL    HW135860   7.791   9.983  11.777  0.3735  2.0446  2.0300
 9540SOL    HW235861   7.689  10.028  11.674  1.0596 -0.9358 -0.0711
 9541SOL     OW35862   2.952   5.506   6.609 -0.2429 -0.5744 -0.3758
 9541SOL    HW135863   2.940   5.587   6.659  1.2310  0.3131 -1.4007
 9541SOL    HW235864   3.046   5.500   6.596 -0.1979 -3.0333  0.5789
 9542SOL     OW35865   5.264   7.408   1.786  0.0228  0.8939  0.0724
 9542SOL    HW135866   5.223   7.440   1.866 -1.5760 -0.7425 -0.0063
 9542SOL    HW235867   5.354   7.388   1.811 -0.3711  0.6794  1.4032
 9543SOL     OW35868   3.031  12.582   0.366 -0.2229  1.0472  0.3014
 9543SOL    HW135869   2.936  12.586   0.362 -0.3399 -0.8768 -0.0680
 9543SOL    HW235870   3.050  12.495   0.402  1.3969  1.5401  0.7374
 9544SOL     OW35871   8.066   1.968   8.698 -0.3672 -0.0354  0.4540
 9544SOL    HW135872   8.121   1.935   8.768  0.2190 -2.0228 -0.8496
 9544SOL    HW235873   8.023   2.045   8.735  0.7595 -0.3599  2.5868
 9545SOL     OW35874   6.788  10.723   9.657 -0.0651  0.3396  0.0501
 9545SOL    HW135875   6.700  10.744   9.627  0.5047  1.9536 -0.5591
 9545SOL    HW235876   6.846  10.773   9.600  1.2965 -1.1843  0.0314
 9546SOL     OW35877   3.954  10.809   8.898  0.1599  0.1855 -0.3684
 9546SOL    HW135878   3.977  10.821   8.806 -0.5248  5.2047 -0.1876
 9546SOL    HW235879   4.038  10.793   8.942  0.8173  0.1863 -1.5897
 9547SOL     OW35880   6.003  11.853   1.786 -0.8550 -1.1023 -0.1033
 9547SOL    HW135881   6.063  11.864   1.712 -1.0447 -0.2300 -0.1336
 9547SOL    HW235882   6.003  11.759   1.803  1.8639 -1.0071  0.9730
 9548SOL     OW35883  10.719   6.771   0.750  0.1861  0.3782 -0.1627
 9548SOL    HW135884  10.803   6.729   0.770 -0.1915 -0.8717 -1.0282
 9548SOL    HW235885  10.741   6.843   0.691  0.6134 -0.3848 -0.9708
 9549SOL     OW35886   8.034   0.084   9.058  0.0308  0.2692 -0.3346
 9549SOL    HW135887   8.008   0.175   9.048  0.7663  0.5493  0.1899
 9549SOL    HW235888   8.067   0.058   8.972 -1.3571  0.1004 -0.8314
 9550SOL     OW35889   8.568   3.799   8.530 -0.1085  0.4924 -0.1272
 9550SOL    HW135890   8.491   3.834   8.486 -0.3899  0.3317  0.2412
 9550SOL    HW235891   8.580   3.712   8.492 -1.8052 -0.6777  1.8297
 9551SOL     OW35892   2.354   5.658  12.384 -0.3863  0.2564 -0.3471
 9551SOL    HW135893   2.271   5.612  12.374 -0.3636  0.0004  0.5796
 9551SOL    HW235894   2.406   5.630  12.309 -1.1588  0.4727 -0.9700
 9552SOL     OW35895   2.185   8.885   7.062 -0.4528  0.2320  0.2127
 9552SOL    HW135896   2.243   8.960   7.048  0.9884 -0.8312  0.1906
 9552SOL    HW235897   2.183   8.876   7.158  0.5762 -0.5508  0.1826
 9553SOL     OW35898   8.737   6.398   2.503 -0.1006  0.2420 -0.1691
 9553SOL    HW135899   8.746   6.342   2.580 -1.2386 -0.6213 -0.6355
 9553SOL    HW235900   8.817   6.383   2.453  0.8469  1.1390  1.0282
 9554SOL     OW35901   3.699   1.758   9.926  0.5511  0.2627 -0.0165
 9554SOL    HW135902   3.723   1.803   9.846  0.0150  0.4424 -0.0771
 9554SOL    HW235903   3.727   1.667   9.912  2.8976  0.8050  0.6364
 9555SOL     OW35904   0.830   1.960   9.910  0.3779 -0.0263  0.0608
 9555SOL    HW135905   0.811   2.053   9.921  0.5846 -0.0539  0.6910
 9555SOL    HW235906   0.848   1.950   9.816 -1.6003  0.1890 -0.3835
 9556SOL     OW35907   5.049  12.294   8.281  0.1221  0.0214 -0.0883
 9556SOL    HW135908   4.996  12.252   8.348  0.8379  0.8465  1.0248
 9556SOL    HW235909   5.023  12.386   8.282  0.7111  0.1993 -0.3728
 9557SOL     OW35910   6.403   3.528   3.299  0.3855  0.5577 -0.9725
 9557SOL    HW135911   6.398   3.517   3.394  0.5163 -0.0763 -1.0313
 9557SOL    HW235912   6.427   3.441   3.266 -0.5904  0.5264 -1.6630
 9558SOL     OW35913   1.536   9.089  10.623  0.4645 -0.0598  0.0194
 9558SOL    HW135914   1.586   9.097  10.704  1.0609 -0.6348 -0.2761
 9558SOL    HW235915   1.538   9.176  10.583  2.7407 -0.4443 -0.8388
 9559SOL     OW35916   1.908   6.393   3.872  0.7340  0.3943  0.0205
 9559SOL    HW135917   1.814   6.378   3.871  1.0850 -2.2385 -0.7024
 9559SOL    HW235918   1.918   6.480   3.911 -1.8230 -0.3977  2.8099
 9560SOL     OW35919   6.053   2.022   1.581  0.3872  0.1172  0.7703
 9560SOL    HW135920   6.086   1.942   1.621  2.5699  1.5131  1.9594
 9560SOL    HW235921   5.973   2.041   1.630 -1.1658 -2.1593 -0.6832
 9561SOL     OW35922  12.023   0.555  10.639 -0.1030  0.3370  0.1551
 9561SOL    HW135923  12.103   0.533  10.688 -0.4385 -0.9822  0.1406
 9561SOL    HW235924  12.016   0.486  10.573 -2.4065 -0.8292  1.5207
 9562SOL     OW35925   3.914   1.866   3.298  0.1474  0.4335  0.4926
 9562SOL    HW135926   3.819   1.861   3.287  0.2359  1.5518 -0.9506
 9562SOL    HW235927   3.937   1.955   3.271  1.6574  0.0622  0.4731
 9563SOL     OW35928   0.117  11.317   0.058 -0.0559 -0.3619 -0.4011
 9563SOL    HW135929   0.200  11.271   0.067 -0.1593 -0.4038  0.5067
 9563SOL    HW235930   0.138  11.409   0.076 -0.1586 -0.3334 -0.4218
 9564SOL     OW35931   7.838   0.294   2.252  0.1267 -0.1801 -0.6023
 9564SOL    HW135932   7.900   0.325   2.186  1.1794 -1.0799 -0.0736
 9564SOL    HW235933   7.760   0.269   2.203  0.4150  0.3654 -1.3558
 9565SOL     OW35934   3.214   0.204   2.049  0.0810 -0.5347 -0.3859
 9565SOL    HW135935   3.194   0.196   1.956  0.4829  0.2359 -0.5423
 9565SOL    HW235936   3.226   0.114   2.078  0.3581 -0.7627 -1.1695
 9566SOL     OW35937   4.062   9.374  12.196  0.4292 -0.3989 -0.3349
 9566SOL    HW135938   4.033   9.286  12.220 -1.6555  0.2675 -0.2170
 9566SOL    HW235939   3.986   9.414  12.155  1.7589  0.8984 -1.6961
 9567SOL     OW35940  10.365   9.446   2.586 -0.1334 -0.2068  0.1911
 9567SOL    HW135941  10.323   9.531   2.577 -0.6602 -0.5561 -0.7334
 9567SOL    HW235942  10.378   9.416   2.497  3.1869  0.3972  0.3399
 9568SOL     OW35943   6.528   1.409   4.529 -0.1558 -0.1008 -0.0678
 9568SOL    HW135944   6.445   1.370   4.555 -0.4376  1.3321  1.3201
 9568SOL    HW235945   6.518   1.425   4.435 -1.8414  0.8943  0.2323
 9569SOL     OW35946   4.805   3.238  10.523 -0.1551  0.0746  0.0072
 9569SOL    HW135947   4.756   3.293  10.583 -1.0405  0.4643 -1.0579
 9569SOL    HW235948   4.739   3.185  10.478  0.5224 -0.4917 -0.3530
 9570SOL     OW35949   0.316   2.180   8.801  0.2474 -0.0210  0.4134
 9570SOL    HW135950   0.382   2.187   8.870 -0.8293  1.6286  1.3538
 9570SOL    HW235951   0.237   2.150   8.846 -0.3454  0.6202 -0.1672
 9571SOL     OW35952   2.909   0.344   7.723  0.2248  0.0389 -0.0289
 9571SOL    HW135953   2.962   0.335   7.643 -1.0691  0.2740 -0.9441
 9571SOL    HW235954   2.869   0.431   7.715 -0.7356 -0.3623  0.3685
 9572SOL     OW35955  10.115   4.407   4.906 -0.3378 -0.1132 -0.7667
 9572SOL    HW135956  10.183   4.361   4.957  1.0435  1.8938 -0.6843
 9572SOL    HW235957  10.162   4.442   4.831 -1.3296  1.1346 -0.8335
 9573SOL     OW35958   1.985   6.896   7.186  0.1307 -0.5023 -0.2164
 9573SOL    HW135959   1.970   6.928   7.097  1.3656 -0.2136 -0.3342
 9573SOL    HW235960   2.022   6.971   7.232  2.5039 -1.5398 -0.3209
 9574SOL     OW35961   0.419   6.767   5.445  0.0148 -0.2466 -0.4616
 9574SOL    HW135962   0.346   6.713   5.475 -0.3941  0.0193 -0.9541
 9574SOL    HW235963   0.458   6.801   5.525 -0.8535  0.1843 -0.2021
 9575SOL     OW35964   1.439   5.608   9.396 -0.1160  0.6064  0.5780
 9575SOL    HW135965   1.401   5.643   9.316  2.8739 -0.5204 -1.5457
 9575SOL    HW235966   1.396   5.524   9.409  0.7867 -0.1911 -1.1896
 9576SOL     OW35967   9.965   5.166   3.886 -0.6685 -0.6490  0.7914
 9576SOL    HW135968   9.893   5.106   3.906 -0.7264 -0.0825  2.3793
 9576SOL    HW235969   9.934   5.217   3.812 -1.1178 -1.7108  0.2199
 9577SOL     OW35970   3.374   2.350   7.631 -0.1061 -0.3819 -0.6659
 9577SOL    HW135971   3.414   2.430   7.664 -0.9592  0.5071 -1.6791
 9577SOL    HW235972   3.391   2.285   7.698 -0.8396  1.0681  1.0056
 9578SOL     OW35973  10.016   2.607   8.256 -0.1604 -0.3508 -0.1661
 9578SOL    HW135974  10.027   2.548   8.181 -1.9249  1.0827 -1.6719
 9578SOL    HW235975   9.923   2.600   8.278 -1.0452  3.4141 -1.9251
 9579SOL     OW35976   2.652  11.689   4.829  0.3811  0.3983 -0.1187
 9579SOL    HW135977   2.605  11.764   4.794  0.7955  1.8120  2.1170
 9579SOL    HW235978   2.674  11.714   4.919 -1.1252 -3.1166  1.4539
 9580SOL     OW35979   0.857   2.834  12.318 -0.0907  0.1314  0.1546
 9580SOL    HW135980   0.825   2.922  12.340  0.9870  0.4730  0.4198
 9580SOL    HW235981   0.848   2.828  12.223  0.6679  0.8799  0.0274
 9581SOL     OW35982  10.353  12.500   1.556  0.0541  0.4975  0.3714
 9581SOL    HW135983  10.443  12.506   1.587  0.0762 -1.6165  0.8687
 9581SOL    HW235984  10.299  12.515   1.634  0.0092  0.4604  0.3479
 9582SOL     OW35985   0.438   3.826   4.558 -0.2478 -0.5077  0.1886
 9582SOL    HW135986   0.439   3.914   4.596  0.2515 -0.8151  0.9184
 9582SOL    HW235987   0.352   3.790   4.583  0.2613 -0.8813  1.4745
 9583SOL     OW35988   7.669   7.686   4.042 -0.4275 -0.5590 -0.5350
 9583SOL    HW135989   7.687   7.632   4.120  0.6752  0.0370 -0.3631
 9583SOL    HW235990   7.612   7.756   4.075 -1.1135 -1.0853 -0.5703
 9584SOL     OW35991   6.329  11.563  10.833 -0.0653  0.0067  0.3416
 9584SOL    HW135992   6.265  11.628  10.862 -0.8453 -0.0022 -1.2926
 9584SOL    HW235993   6.407  11.582  10.886 -0.8523  1.1099  1.1598
 9585SOL     OW35994   4.809   5.029   6.399  0.0138 -0.4304 -0.2427
 9585SOL    HW135995   4.855   4.970   6.459  0.7988  0.0645 -0.3450
 9585SOL    HW235996   4.726   5.048   6.443  0.7394  0.2364  0.8690
 9586SOL     OW35997  11.728   4.234   8.288 -0.4284  0.1242 -0.4213
 9586SOL    HW135998  11.700   4.173   8.220 -0.2468 -0.3695 -0.0643
 9586SOL    HW235999  11.754   4.177   8.361 -0.4923  0.6393  0.0063
 9587SOL     OW36000   2.803  10.073   0.941  0.4447  0.4553  0.0081
 9587SOL    HW136001   2.840  10.125   0.869  1.9612 -1.8105 -0.9695
 9587SOL    HW236002   2.877  10.060   1.001  0.3421 -1.2022 -0.1858
 9588SOL     OW36003   2.293   8.267   1.127  0.4612 -0.4745 -0.1976
 9588SOL    HW136004   2.351   8.193   1.107  0.9350 -0.2801  0.4452
 9588SOL    HW236005   2.317   8.334   1.062 -0.6697 -1.2216 -1.4519
 9589SOL     OW36006   0.376   1.013   4.540 -0.4081  0.2221 -0.6846
 9589SOL    HW136007   0.456   1.048   4.501  1.0582 -2.2997 -0.1682
 9589SOL    HW236008   0.323   0.984   4.465  0.1825 -0.1303 -0.9704
 9590SOL     OW36009   6.975   5.911   6.524  0.6291  0.0147 -0.0627
 9590SOL    HW136010   7.026   5.968   6.467  1.5861 -0.2216  0.5370
 9590SOL    HW236011   6.892   5.957   6.536  0.2871 -0.0636 -1.8530
 9591SOL     OW36012   9.986   2.319   6.748 -0.6340 -0.5947 -0.3422
 9591SOL    HW136013  10.010   2.369   6.670 -1.1110 -0.7078 -0.5626
 9591SOL    HW236014  10.027   2.233   6.734  1.2344  0.0870  0.6070
 9592SOL     OW36015   2.600  10.170  12.615  0.1010  0.2556 -0.6021
 9592SOL    HW136016   2.680  10.120  12.600  0.4382  0.4228  0.5937
 9592SOL    HW236017   2.549  10.117  12.677  0.1287  1.0210  0.0987
 9593SOL     OW36018   7.845   5.298   9.874 -0.1526 -0.2999 -0.1270
 9593SOL    HW136019   7.838   5.391   9.892  0.0908 -0.2095 -0.4843
 9593SOL    HW236020   7.756   5.271   9.850 -0.0816 -0.0002 -0.7482
 9594SOL     OW36021   0.207   1.849   1.637 -0.0362  0.3432 -0.6462
 9594SOL    HW136022   0.120   1.824   1.668  1.1611 -1.0343  1.9182
 9594SOL    HW236023   0.197   1.940   1.609 -1.9804  0.7080  0.9792
 9595SOL     OW36024   7.086   1.836   7.111  0.6474 -0.2905 -0.1394
 9595SOL    HW136025   7.034   1.765   7.072 -1.0274  0.7965 -0.0171
 9595SOL    HW236026   7.139   1.869   7.039  1.0998 -1.3287 -0.3104
 9596SOL     OW36027   0.952   0.743   9.315 -0.1958 -0.3673  0.5606
 9596SOL    HW136028   0.925   0.743   9.407  0.1681 -1.1175  0.6711
 9596SOL    HW236029   1.048   0.737   9.318 -0.2681 -1.9849  0.1174
 9597SOL     OW36030   5.168   9.238   3.686 -0.3497  0.1704 -0.4130
 9597SOL    HW136031   5.160   9.292   3.607 -1.3402  0.2415 -0.2792
 9597SOL    HW236032   5.237   9.280   3.737  2.6777 -1.6587 -2.6303
 9598SOL     OW36033  11.571  10.239   7.396  0.4552  0.1857 -0.7153
 9598SOL    HW136034  11.609  10.220   7.482  2.6806 -0.0695 -1.6662
 9598SOL    HW236035  11.605  10.169   7.339 -1.8113 -0.2549 -1.6236
 9599SOL     OW36036  10.088   0.659   5.793 -0.1983 -0.2000 -0.2288
 9599SOL    HW136037  10.123   0.740   5.831 -0.1653 -0.8968  1.3156
 9599SOL    HW236038  10.015   0.636   5.851 -0.5035 -1.0270 -0.9254
 9600SOL     OW36039   6.165  10.061  11.028  0.1357  0.3373  0.1697
 9600SOL    HW136040   6.114  10.095  11.102 -0.4488  0.3330 -0.2249
 9600SOL    HW236041   6.099  10.038  10.962  0.5612 -0.8862  0.1442
 9601SOL     OW36042  10.481   8.503   6.532 -0.1083  0.9406 -0.1480
 9601SOL    HW136043  10.414   8.527   6.469 -1.3475  1.2089  1.2145
 9601SOL    HW236044  10.443   8.429   6.580  0.2478  1.5395  1.1127
 9602SOL     OW36045   6.598  10.602   7.357  0.2278  0.3932 -0.1163
 9602SOL    HW136046   6.643  10.685   7.373  0.7205 -0.0334  0.8196
 9602SOL    HW236047   6.668  10.541   7.336 -0.0759  0.0794 -0.2196
 9603SOL     OW36048   8.786   2.671   3.067 -0.1051 -0.3322  0.1098
 9603SOL    HW136049   8.691   2.663   3.063 -0.1102  0.2663 -1.9596
 9603SOL    HW236050   8.816   2.645   2.980  1.8341 -2.6550  1.3574
 9604SOL     OW36051   0.988  11.838   6.779 -0.0931 -0.1094  0.6065
 9604SOL    HW136052   0.994  11.934   6.779 -1.3487 -0.0077  0.1722
 9604SOL    HW236053   1.079  11.808   6.782  0.3068  1.0855  1.5588
 9605SOL     OW36054   5.456   2.420   6.321 -0.0472 -0.2891  0.4235
 9605SOL    HW136055   5.500   2.370   6.252 -1.7293 -0.2918 -0.6964
 9605SOL    HW236056   5.516   2.414   6.396  2.1663  0.2724 -1.1746
 9606SOL     OW36057  11.576   9.578   0.452 -0.3234 -0.1880 -0.6887
 9606SOL    HW136058  11.620   9.537   0.527 -1.1769  0.7416  0.3475
 9606SOL    HW236059  11.647   9.599   0.391  0.5446  0.2428  0.4442
 9607SOL     OW36060  12.610   4.583  10.041  0.7960  0.4492 -0.4105
 9607SOL    HW136061  12.572   4.581   9.953 -1.3395  1.9874  0.3855
 9607SOL    HW236062  12.541   4.549  10.098  1.4585  1.1812  0.8731
 9608SOL     OW36063   8.042  11.757   2.877 -0.0390 -0.7169 -0.6130
 9608SOL    HW136064   7.988  11.751   2.956 -0.9960 -0.3263 -1.2101
 9608SOL    HW236065   7.990  11.712   2.810  0.5548 -0.6529 -1.1172
 9609SOL     OW36066   6.770   4.172   8.745  0.6708  0.0805  0.0477
 9609SOL    HW136067   6.860   4.168   8.711  0.5880 -1.4445 -0.0533
 9609SOL    HW236068   6.756   4.265   8.764  1.8340  0.5250 -1.0947
 9610SOL     OW36069   7.274  11.650  11.833 -0.5229  0.0320 -0.2306
 9610SOL    HW136070   7.250  11.677  11.744 -1.0530  0.6190  0.0825
 9610SOL    HW236071   7.239  11.719  11.889 -1.2477 -0.9349  0.5363
 9611SOL     OW36072  10.043  11.877   2.521 -1.2379  0.2755  0.5367
 9611SOL    HW136073   9.953  11.910   2.522 -1.4931 -0.2661 -1.0602
 9611SOL    HW236074  10.089  11.937   2.461 -0.1739  1.3395  2.3357
 9612SOL     OW36075   6.487  10.408   8.440 -0.1187  0.1890 -0.7178
 9612SOL    HW136076   6.405  10.424   8.487 -0.0567 -2.3983  0.4784
 9612SOL    HW236077   6.536  10.490   8.448 -1.7680  1.1377  0.2732
 9613SOL     OW36078   2.522   2.251  10.878  0.1959 -0.0324 -0.4044
 9613SOL    HW136079   2.588   2.205  10.929 -0.3017 -0.4316 -0.1120
 9613SOL    HW236080   2.571   2.315  10.826  0.7879 -0.2114 -0.0648
 9614SOL     OW36081   3.905   5.420   9.821  0.3094  0.4051  0.0748
 9614SOL    HW136082   3.862   5.407   9.736  0.6324 -0.2506  0.0072
 9614SOL    HW236083   3.848   5.374   9.883 -0.1971  1.3026  0.3044
 9615SOL     OW36084   5.135   7.324   1.344 -0.2578 -0.2880 -0.6202
 9615SOL    HW136085   5.201   7.276   1.394 -0.7658 -0.6032 -0.2501
 9615SOL    HW236086   5.100   7.388   1.406 -0.0586  0.1198 -0.9182
 9616SOL     OW36087   1.940   5.878   7.736 -0.3476 -0.5105  0.6553
 9616SOL    HW136088   1.875   5.907   7.671 -1.3395 -4.8079 -0.6471
 9616SOL    HW236089   2.017   5.855   7.683  0.5499  0.1519  1.6412
 9617SOL     OW36090   7.541   9.295   2.339 -0.0893  0.1939 -0.1721
 9617SOL    HW136091   7.563   9.382   2.372  1.5091 -0.9156  1.9640
 9617SOL    HW236092   7.597   9.236   2.389  0.2703 -1.9578 -2.8968
 9618SOL     OW36093   5.509  12.031   7.086  0.3350  0.9030 -0.4998
 9618SOL    HW136094   5.490  12.122   7.064 -2.4747  0.4273 -0.4660
 9618SOL    HW236095   5.496  11.983   7.004  1.3147  0.4559 -0.4087
 9619SOL     OW36096   4.504   4.747   4.220 -0.3008 -0.0908 -0.0753
 9619SOL    HW136097   4.456   4.698   4.153 -1.3922 -0.0786  0.6756
 9619SOL    HW236098   4.558   4.681   4.264  0.4634 -0.0906 -0.9765
 9620SOL     OW36099  11.975   9.296   2.959  0.3979  0.0120  0.1557
 9620SOL    HW136100  11.887   9.326   2.935  0.8552  2.3257  1.1345
 9620SOL    HW236101  12.033   9.365   2.929  1.7641 -0.8303  0.7774
 9621SOL     OW36102   3.966  10.714   0.476  0.8963  0.7622 -0.0927
 9621SOL    HW136103   4.042  10.770   0.464 -0.0378  1.7795 -1.5799
 9621SOL    HW236104   3.895  10.760   0.431 -0.3294 -0.7187  0.2517
 9622SOL     OW36105   4.411   4.516   8.150  0.8643 -0.3743 -0.8064
 9622SOL    HW136106   4.431   4.604   8.120  1.4676  0.4261  1.7139
 9622SOL    HW236107   4.315   4.513   8.154  0.8435  0.1682 -0.8408
 9623SOL     OW36108   9.274   5.929   0.319 -0.4592  0.2537  0.7960
 9623SOL    HW136109   9.289   5.889   0.405  0.8941 -0.5342  0.2091
 9623SOL    HW236110   9.230   5.861   0.268  0.2753  0.1083  0.3424
 9624SOL     OW36111   4.982   2.743   8.977  0.1694 -0.0626 -0.5423
 9624SOL    HW136112   4.890   2.717   8.973  0.8111 -2.7764  0.3976
 9624SOL    HW236113   4.982   2.835   8.949 -2.8015  0.0390 -0.5318
 9625SOL     OW36114  11.199   2.970  11.110  0.5935 -0.7485  0.3111
 9625SOL    HW136115  11.246   3.038  11.062  1.5688 -0.9998  0.8960
 9625SOL    HW236116  11.151   2.922  11.042 -0.6488  0.9065 -0.0474
 9626SOL     OW36117   7.185   4.248  10.217  0.0368  1.1432  0.0189
 9626SOL    HW136118   7.208   4.255  10.125 -1.5717  2.6139 -0.3188
 9626SOL    HW236119   7.199   4.336  10.252 -0.8271  0.9937  0.7889
 9627SOL     OW36120   5.710   6.503   8.199 -0.1277 -0.0772 -0.4388
 9627SOL    HW136121   5.702   6.589   8.159 -0.2704 -0.4004 -1.1374
 9627SOL    HW236122   5.620   6.472   8.208 -0.0401 -0.5380 -1.0777
 9628SOL     OW36123   4.015   2.212   3.567 -0.2062 -0.0227  0.1081
 9628SOL    HW136124   3.966   2.240   3.489 -1.9485  1.4052  1.6118
 9628SOL    HW236125   4.098   2.258   3.560 -0.6144  0.6489 -0.5612
 9629SOL     OW36126   5.778   3.053   9.965  0.2409  0.2325  0.2328
 9629SOL    HW136127   5.709   3.019  10.022  0.3025  1.2382  0.9384
 9629SOL    HW236128   5.732   3.097   9.894  0.1610  0.1613  0.2412
 9630SOL     OW36129   0.406   4.357   4.546 -0.3073  0.2493  0.1920
 9630SOL    HW136130   0.361   4.302   4.482  0.1014 -0.6454  0.6472
 9630SOL    HW236131   0.339   4.418   4.577 -0.6298  0.3797 -0.7238
 9631SOL     OW36132   2.401   6.752   3.241  0.5279  0.0065  0.1254
 9631SOL    HW136133   2.332   6.797   3.192  0.7746 -0.8814 -1.0971
 9631SOL    HW236134   2.449   6.822   3.285 -0.8623  0.6730  0.6389
 9632SOL     OW36135   7.464   4.844   5.620  0.0470  0.2533 -0.1758
 9632SOL    HW136136   7.437   4.889   5.700 -0.8193 -0.0671 -0.2757
 9632SOL    HW236137   7.557   4.826   5.632 -0.3259 -0.8198  1.2522
 9633SOL     OW36138   6.610   8.388   3.080  0.3656 -0.2830  0.5230
 9633SOL    HW136139   6.569   8.306   3.053  2.9780 -1.1582 -1.2549
 9633SOL    HW236140   6.689   8.394   3.025  0.7002  3.0298  1.1690
 9634SOL     OW36141   4.438  11.739  11.432 -0.2365 -0.1242 -0.1241
 9634SOL    HW136142   4.492  11.666  11.463 -2.3682 -0.7878  2.3702
 9634SOL    HW236143   4.351  11.701  11.420 -0.7891  1.4662 -1.5527
 9635SOL     OW36144   8.407   3.311   5.438 -0.4699 -0.2787  0.2928
 9635SOL    HW136145   8.354   3.366   5.380  0.4767  0.1407 -0.1926
 9635SOL    HW236146   8.475   3.369   5.470  0.3698 -1.0847  0.0137
 9636SOL     OW36147  11.609   1.795   2.116  0.2363 -0.3171 -0.3978
 9636SOL    HW136148  11.601   1.857   2.044 -1.2118 -0.6355 -0.5362
 9636SOL    HW236149  11.677   1.734   2.087  0.9029  0.5613 -0.7258
 9637SOL     OW36150   5.254   0.874   0.898  0.3865  0.7039  0.0967
 9637SOL    HW136151   5.160   0.881   0.917  0.2858  0.7019 -0.3865
 9637SOL    HW236152   5.267   0.783   0.871  0.5914  0.6146  0.4922
 9638SOL     OW36153  10.273  12.270   2.576  0.0321  0.3490  0.2690
 9638SOL    HW136154  10.184  12.269   2.542  0.2382 -0.0181 -0.2827
 9638SOL    HW236155  10.328  12.284   2.499  0.6201 -2.0810  0.1594
 9639SOL     OW36156  12.077   6.152   7.686 -0.5214 -0.1517 -0.2649
 9639SOL    HW136157  12.084   6.241   7.721 -1.5423 -0.5770  1.1215
 9639SOL    HW236158  12.142   6.101   7.735  1.7704  0.2298 -2.6981
 9640SOL     OW36159  10.419   9.432   9.427  0.3262  0.4973 -0.3746
 9640SOL    HW136160  10.423   9.346   9.469 -1.8380 -0.1415 -1.3296
 9640SOL    HW236161  10.488   9.482   9.469  1.8076 -1.7647  0.0470
 9641SOL     OW36162   9.139   6.218   7.570 -0.3052 -0.5102 -0.2704
 9641SOL    HW136163   9.229   6.213   7.539 -0.4213 -0.7377 -0.5803
 9641SOL    HW236164   9.117   6.129   7.596 -0.5391 -0.5181 -0.4855
 9642SOL     OW36165   6.452   6.726   4.575 -0.0550  0.1979  0.0479
 9642SOL    HW136166   6.527   6.703   4.629 -0.2834 -0.1237  0.2358
 9642SOL    HW236167   6.377   6.685   4.620 -0.2833  0.1563 -0.3641
 9643SOL     OW36168   9.958   4.324  11.123 -0.1686 -0.0047  0.2442
 9643SOL    HW136169  10.038   4.330  11.072  0.2277 -0.0672  0.8424
 9643SOL    HW236170   9.985   4.345  11.212 -1.2743  2.5001  0.0653
 9644SOL     OW36171   1.579   2.395   6.991  0.0336  1.0726 -0.5453
 9644SOL    HW136172   1.637   2.319   7.000  1.7481  2.4017  0.1950
 9644SOL    HW236173   1.638   2.470   6.994 -1.6385  2.4559 -1.0701
 9645SOL     OW36174  11.345   7.903   9.480  0.0017  0.2486 -0.1116
 9645SOL    HW136175  11.408   7.870   9.415  1.5613  3.3433 -0.3576
 9645SOL    HW236176  11.259   7.878   9.446  0.9296 -0.9823 -1.6706
 9646SOL     OW36177   7.001  12.326   9.636 -0.3194 -0.0588 -0.4587
 9646SOL    HW136178   6.988  12.291   9.725 -1.0701  0.3043 -0.4175
 9646SOL    HW236179   6.977  12.418   9.643  2.2477  0.6889 -0.4227
 9647SOL     OW36180   7.416   3.035   6.559  0.1870  0.0289  0.1620
 9647SOL    HW136181   7.342   3.062   6.505  1.1495 -1.2292 -1.9287
 9647SOL    HW236182   7.468   3.114   6.570 -0.5644  0.5356  0.1396
 9648SOL     OW36183  11.003   5.461  11.140  0.2132  0.1238 -0.7222
 9648SOL    HW136184  11.031   5.551  11.159 -0.2966 -0.0170  0.8643
 9648SOL    HW236185  10.938   5.441  11.208  0.2554 -1.4143 -1.0909
 9649SOL     OW36186   8.407   0.880   6.693  0.6691 -0.2646  0.0919
 9649SOL    HW136187   8.493   0.922   6.699 -0.0220  1.2777 -0.0764
 9649SOL    HW236188   8.396   0.836   6.777  2.1144 -1.5489 -0.3489
 9650SOL     OW36189   1.114  11.116   7.094  0.3748 -0.3433  0.0157
 9650SOL    HW136190   1.046  11.125   7.027 -1.2791 -0.6399  1.5619
 9650SOL    HW236191   1.149  11.204   7.105  1.3320 -0.4388 -1.8221
 9651SOL     OW36192  11.878   4.247   7.288  0.3941  0.2901  0.1176
 9651SOL    HW136193  11.830   4.194   7.224 -1.1664  1.0245  0.6345
 9651SOL    HW236194  11.861   4.205   7.372  0.9303  0.3908  0.2827
 9652SOL     OW36195   1.167   5.106  12.133  0.0282  0.3294 -0.0899
 9652SOL    HW136196   1.173   5.028  12.078 -1.7184  0.8651 -1.1137
 9652SOL    HW236197   1.153   5.073  12.221 -3.2006 -0.5878 -0.8214
 9653SOL     OW36198   6.173   2.540   9.525 -0.1308 -0.0055 -0.3343
 9653SOL    HW136199   6.085   2.574   9.508 -0.3162 -0.2485  0.1214
 9653SOL    HW236200   6.171   2.513   9.617  0.3947 -0.0929 -0.3450
 9654SOL     OW36201   5.334   7.229  10.338 -0.4263 -0.3740 -0.4140
 9654SOL    HW136202   5.401   7.285  10.377 -0.5095 -0.2230 -0.4890
 9654SOL    HW236203   5.368   7.207  10.251 -0.6577  0.0289 -0.6060
 9655SOL     OW36204  12.670  10.035   8.135 -0.1847 -0.1078 -0.0723
 9655SOL    HW136205  12.754   9.999   8.107 -0.1968  0.7371 -1.2601
 9655SOL    HW236206  12.690  10.080   8.218  0.1130 -1.5556  0.6688
 9656SOL     OW36207  10.800  12.203  12.136  0.4432  0.1481 -0.0084
 9656SOL    HW136208  10.810  12.186  12.042 -1.4797 -0.4187 -0.1589
 9656SOL    HW236209  10.715  12.246  12.143  0.0523 -0.8129  1.5647
 9657SOL     OW36210   2.624  11.793  10.564 -0.3808  0.0935 -0.1502
 9657SOL    HW136211   2.572  11.866  10.532 -0.5459 -0.0630 -0.2437
 9657SOL    HW236212   2.672  11.828  10.639 -2.1056 -0.2736  1.1788
 9658SOL     OW36213   0.552   7.774  12.114 -0.0032 -0.0019 -0.3378
 9658SOL    HW136214   0.639   7.814  12.125  0.2671 -0.7002  0.1620
 9658SOL    HW236215   0.568   7.699  12.057 -0.2417 -0.2328 -0.1035
 9659SOL     OW36216   2.927  12.541   6.388  0.2878 -0.1355 -0.3712
 9659SOL    HW136217   2.924  12.448   6.408  0.0842 -0.0364  0.0545
 9659SOL    HW236218   2.925  12.585   6.473  0.0763  0.2639 -0.5768
 9660SOL     OW36219  10.269   3.597   3.287  0.1549 -0.2051  0.0012
 9660SOL    HW136220  10.185   3.569   3.323  0.1711 -1.5549 -0.9442
 9660SOL    HW236221  10.254   3.687   3.258 -1.7587 -1.2111 -2.4513
 9661SOL     OW36222   8.032   1.732   4.715 -0.0314 -0.5062 -0.1106
 9661SOL    HW136223   8.127   1.728   4.704  0.1240  1.1743  0.3088
 9661SOL    HW236224   8.013   1.670   4.785  1.2364  1.5742  2.2055
 9662SOL     OW36225   3.498   3.430   3.150  0.1556  0.9387 -0.1710
 9662SOL    HW136226   3.514   3.469   3.064  1.6561 -1.1332 -0.9026
 9662SOL    HW236227   3.494   3.336   3.133 -1.6644  0.6046  1.7579
 9663SOL     OW36228   1.670   0.345  12.055  0.3941  0.5830  1.3284
 9663SOL    HW136229   1.751   0.395  12.057  1.1614 -0.6267  1.5853
 9663SOL    HW236230   1.693   0.260  12.094  0.2745 -1.6646 -2.9769
 9664SOL     OW36231   1.754   9.778   7.181 -0.6864 -0.0267 -0.0877
 9664SOL    HW136232   1.769   9.805   7.272 -0.8819  0.1853 -0.1197
 9664SOL    HW236233   1.672   9.729   7.184 -0.7723  0.1129 -0.1777
 9665SOL     OW36234   3.775   7.635  11.502 -0.1836 -0.3081  0.3286
 9665SOL    HW136235   3.723   7.623  11.581 -0.6944 -1.4249 -0.1613
 9665SOL    HW236236   3.865   7.649  11.534 -0.6686  1.0957  1.1542
 9666SOL     OW36237   9.641   3.672   4.204 -0.3714 -0.6133  0.1255
 9666SOL    HW136238   9.719   3.727   4.203 -0.6681 -0.1900 -1.2867
 9666SOL    HW236239   9.605   3.682   4.292  0.8788 -0.4154  0.6217
 9667SOL     OW36240  12.479   1.637   2.566 -0.3956  0.0563 -0.6039
 9667SOL    HW136241  12.572   1.634   2.588 -0.9344 -1.2085  1.9211
 9667SOL    HW236242  12.453   1.728   2.586  0.3263  0.4872 -1.5756
 9668SOL     OW36243  12.188  12.396   2.976  0.4552  0.4115  0.1706
 9668SOL    HW136244  12.223  12.380   3.064 -0.8775 -1.8646  0.3878
 9668SOL    HW236245  12.133  12.473   2.985 -1.6567 -1.1776  2.0522
 9669SOL     OW36246   3.640   0.094  12.147 -0.1223  0.2082  0.6605
 9669SOL    HW136247   3.569   0.030  12.159  0.3388 -1.1322 -2.7859
 9669SOL    HW236248   3.715   0.054  12.190  0.1531 -1.7131 -1.4137
 9670SOL     OW36249   7.111   0.193   3.639  0.0555 -0.5659  0.3654
 9670SOL    HW136250   7.133   0.208   3.547 -1.1436 -1.1738 -0.0421
 9670SOL    HW236251   7.114   0.280   3.678 -0.4359 -0.1510 -0.4879
 9671SOL     OW36252   3.137  11.505   7.906  0.2491 -0.4124 -0.2013
 9671SOL    HW136253   3.204  11.516   7.974 -0.1631 -0.0042  0.1398
 9671SOL    HW236254   3.123  11.593   7.872  0.8724 -0.6842 -1.2362
 9672SOL     OW36255   6.765  12.208   8.193 -0.0091  0.1834  0.3104
 9672SOL    HW136256   6.675  12.227   8.217 -0.2767 -0.8010  0.1587
 9672SOL    HW236257   6.783  12.264   8.117  0.0202  1.4784  1.2526
 9673SOL     OW36258  10.826   2.725   8.825  0.0653 -0.4350  0.4167
 9673SOL    HW136259  10.811   2.756   8.736 -2.1019  0.3826  1.0136
 9673SOL    HW236260  10.866   2.638   8.814 -0.1463 -0.3413 -1.3380
 9674SOL     OW36261  10.671   1.751  11.156  0.0812  0.4865  0.5430
 9674SOL    HW136262  10.654   1.732  11.249  0.4537 -0.1870  0.4848
 9674SOL    HW236263  10.714   1.837  11.156 -0.6452  0.8551  0.9253
 9675SOL     OW36264  12.347   1.822   1.844  0.1847  0.0328  0.1131
 9675SOL    HW136265  12.420   1.761   1.832  0.8417  0.6899  0.5938
 9675SOL    HW236266  12.321   1.847   1.755 -0.3869 -1.2568 -0.1034
 9676SOL     OW36267   2.826   2.227   3.914 -0.0955  0.2670  0.5260
 9676SOL    HW136268   2.779   2.264   3.839  2.3512  1.5868 -0.4343
 9676SOL    HW236269   2.779   2.145   3.932 -1.7389  0.6838 -1.3961
 9677SOL     OW36270  10.388   4.008   6.807 -0.2031  0.7183  0.1440
 9677SOL    HW136271  10.480   4.017   6.781  0.0172  0.7429  0.9183
 9677SOL    HW236272  10.339   4.055   6.740  0.3365  0.5777 -0.3569
 9678SOL     OW36273   8.689   8.041   3.743  0.1778  0.5932  0.3239
 9678SOL    HW136274   8.785   8.044   3.748  0.2777 -1.0486 -0.0064
 9678SOL    HW236275   8.671   8.008   3.655 -0.6781  0.3416  0.5847
 9679SOL     OW36276   5.554   6.887  11.014 -0.6354 -0.3416 -0.3978
 9679SOL    HW136277   5.596   6.856  11.094 -2.1116 -0.2577  0.4444
 9679SOL    HW236278   5.484   6.944  11.045  0.1283  1.4752 -1.8174
 9680SOL     OW36279   2.038   4.642   1.866  0.0536  0.0854  0.1129
 9680SOL    HW136280   1.955   4.623   1.909 -0.4775 -0.5503 -1.1159
 9680SOL    HW236281   2.083   4.557   1.862  1.1703  0.5711  1.5280
 9681SOL     OW36282   3.740   4.965  12.528  0.2962 -0.2904  0.2514
 9681SOL    HW136283   3.663   5.004  12.568  0.5905  0.6815 -0.1016
 9681SOL    HW236284   3.800   4.950  12.601  1.0100  1.8971  0.1738
 9682SOL     OW36285   8.223   5.474   2.907  0.1716 -0.0273  0.2514
 9682SOL    HW136286   8.281   5.466   2.982  0.6067 -0.4807 -0.1203
 9682SOL    HW236287   8.282   5.490   2.833 -0.1640 -0.5882 -0.1482
 9683SOL     OW36288  12.394   8.885   8.127 -0.3747 -0.2813 -0.1458
 9683SOL    HW136289  12.472   8.918   8.171 -1.2389  0.7984  0.6088
 9683SOL    HW236290  12.413   8.792   8.113  1.2022  0.0298 -0.3419
 9684SOL     OW36291   9.511   6.115   4.468 -0.5821 -0.9387 -0.4758
 9684SOL    HW136292   9.442   6.051   4.488  0.1498 -1.5708  0.0586
 9684SOL    HW236293   9.464   6.188   4.426 -1.8872 -0.4735  1.6219
 9685SOL     OW36294   5.261   3.320   6.919 -0.3782 -0.3994  0.4566
 9685SOL    HW136295   5.166   3.320   6.930 -0.8656  2.2874 -2.2880
 9685SOL    HW236296   5.285   3.413   6.926  1.8754 -0.8799 -0.1336
 9686SOL     OW36297   1.757   8.157   5.448 -0.4785 -0.9745  0.2663
 9686SOL    HW136298   1.722   8.073   5.419 -0.5187 -1.1388  0.7910
 9686SOL    HW236299   1.705   8.222   5.400 -0.0740 -1.2525 -0.5637
 9687SOL     OW36300   8.620   2.934   1.254  0.2533 -0.0621  0.0790
 9687SOL    HW136301   8.652   2.938   1.163  2.4235  0.4354  0.7921
 9687SOL    HW236302   8.631   2.842   1.279  1.3443  0.1348  0.3674
 9688SOL     OW36303   8.745   1.048   3.779  0.1988 -0.8227  0.2673
 9688SOL    HW136304   8.741   0.964   3.733  0.9742 -0.6552 -0.1288
 9688SOL    HW236305   8.838   1.072   3.777  0.1926 -0.6408  1.6339
 9689SOL     OW36306  10.634   2.975   7.286 -0.2355 -0.0401 -0.1234
 9689SOL    HW136307  10.684   3.024   7.351 -0.8978  1.5190 -0.7364
 9689SOL    HW236308  10.543   2.993   7.308 -0.4948  1.9425 -2.4320
 9690SOL     OW36309   1.166   2.874   4.923 -0.7968 -0.0271 -0.3962
 9690SOL    HW136310   1.168   2.961   4.883  1.8163 -0.3578 -1.2338
 9690SOL    HW236311   1.135   2.817   4.853 -1.5607  0.1022 -0.1642
 9691SOL     OW36312   8.667  10.665   3.603 -0.7230  0.0683  0.1252
 9691SOL    HW136313   8.703  10.740   3.650 -1.2883  0.3957  0.0514
 9691SOL    HW236314   8.638  10.605   3.671  0.0043 -0.2162  0.1827
 9692SOL     OW36315   5.037   8.577   3.722 -0.0163 -0.4262  0.2083
 9692SOL    HW136316   5.074   8.597   3.808  1.1788 -0.9376 -0.1776
 9692SOL    HW236317   5.096   8.619   3.660  0.4624 -2.0270 -0.4533
 9693SOL     OW36318   7.875   6.607   4.480  0.0518 -0.3449  0.1299
 9693SOL    HW136319   7.873   6.582   4.388 -1.1108  0.8982 -0.2177
 9693SOL    HW236320   7.787   6.641   4.498  0.3850 -0.1851  1.5803
 9694SOL     OW36321   9.856   0.586   8.370  0.1774  0.1917  0.2439
 9694SOL    HW136322   9.902   0.552   8.293 -2.6492 -1.2059 -0.9577
 9694SOL    HW236323   9.844   0.509   8.426 -1.5813  0.2516  0.0050
 9695SOL     OW36324   7.502  11.902   7.055  0.0644 -0.5821  0.8703
 9695SOL    HW136325   7.463  11.982   7.019 -2.0251 -2.1408 -0.5483
 9695SOL    HW236326   7.591  11.928   7.080 -0.1267  1.8632 -0.6770
 9696SOL     OW36327   4.051   0.630   9.573 -0.4190 -0.3260 -0.6361
 9696SOL    HW136328   3.989   0.703   9.572 -2.8301 -2.2420 -0.8941
 9696SOL    HW236329   4.085   0.629   9.662 -2.4366 -0.4654  0.1909
 9697SOL     OW36330  11.528  10.002  10.608  0.6407  0.0780  0.4489
 9697SOL    HW136331  11.546  10.074  10.548  1.6521 -0.7527 -0.3019
 9697SOL    HW236332  11.494   9.932  10.553 -0.0601 -0.1258  1.1193
 9698SOL     OW36333   9.281   9.422   7.283  0.0771  0.0512 -0.6841
 9698SOL    HW136334   9.308   9.491   7.223 -3.5419  0.9267 -1.4922
 9698SOL    HW236335   9.349   9.421   7.351  0.6939  3.8391 -1.0786
 9699SOL     OW36336   1.236   9.460   2.574 -0.4119 -0.2009  0.3571
 9699SOL    HW136337   1.276   9.431   2.656  1.9700  0.7557 -0.3742
 9699SOL    HW236338   1.302   9.517   2.534 -1.9985  0.3468 -1.6502
 9700SOL     OW36339   4.295  10.885   2.743  0.3295 -0.0769 -0.0433
 9700SOL    HW136340   4.213  10.919   2.779  0.0417  0.5533 -1.2516
 9700SOL    HW236341   4.335  10.837   2.816 -1.0209 -0.2510  0.6145
 9701SOL     OW36342   7.161   3.577   0.129 -0.3290  0.3114  1.1665
 9701SOL    HW136343   7.164   3.575   0.225  0.3288  0.1872  1.1511
 9701SOL    HW236344   7.253   3.579   0.102 -0.4675 -0.7437  0.5253
 9702SOL     OW36345   7.862   2.313   5.701  0.3009 -0.6865 -0.6014
 9702SOL    HW136346   7.924   2.349   5.764 -0.0977 -1.5880  0.3333
 9702SOL    HW236347   7.792   2.378   5.697  1.6364  0.7761 -2.3269
 9703SOL     OW36348  12.139   3.969  12.041 -0.1214 -0.4724  0.2865
 9703SOL    HW136349  12.203   3.990  11.972  0.3576 -0.8911  0.5938
 9703SOL    HW236350  12.065   4.028  12.024  0.2665 -0.1100 -0.1878
 9704SOL     OW36351  10.396   9.222   1.803  0.6554  0.1052  0.8444
 9704SOL    HW136352  10.305   9.233   1.773  0.8870 -0.5574 -0.1423
 9704SOL    HW236353  10.447   9.279   1.746  0.7902  1.0672  1.8997
 9705SOL     OW36354   7.501   5.026   3.684  0.8788 -0.2275  0.1488
 9705SOL    HW136355   7.498   5.014   3.779  0.0154  1.4923  0.3768
 9705SOL    HW236356   7.447   5.103   3.667 -0.0068 -1.2034 -1.8903
 9706SOL     OW36357   1.208   5.440   5.399  0.1772  0.2075 -0.2347
 9706SOL    HW136358   1.153   5.458   5.476 -0.9801 -2.8672 -0.2037
 9706SOL    HW236359   1.189   5.512   5.339 -1.2733  1.0575  1.1614
 9707SOL     OW36360   8.816  12.427   5.379 -0.3867 -0.4367 -0.0040
 9707SOL    HW136361   8.740  12.467   5.338 -0.7262 -1.8429 -0.8007
 9707SOL    HW236362   8.804  12.333   5.367  1.9151 -0.6815 -0.9807
 9708SOL     OW36363  11.084   6.584   7.377  0.2071 -0.3026 -0.4178
 9708SOL    HW136364  11.116   6.508   7.328 -0.2314  0.4442 -1.9060
 9708SOL    HW236365  11.138   6.657   7.346 -0.6765  0.3483 -0.4428
 9709SOL     OW36366  12.122   6.002  11.722  0.1559  0.4760  0.0253
 9709SOL    HW136367  12.061   6.003  11.796  0.9993 -1.8212  0.8042
 9709SOL    HW236368  12.066   5.985  11.646 -0.2685 -1.3964  0.7040
 9710SOL     OW36369   8.967   1.164  11.621  0.1194  0.1969 -0.0098
 9710SOL    HW136370   8.874   1.146  11.613 -0.1270  1.5872 -0.4864
 9710SOL    HW236371   9.010   1.082  11.594 -0.9124  0.2150 -1.8394
 9711SOL     OW36372  10.617   4.019   3.177 -0.2239 -0.2479  0.2705
 9711SOL    HW136373  10.707   3.991   3.157  0.4677 -0.0813  2.8178
 9711SOL    HW236374  10.621   4.050   3.267 -2.9613 -0.6745  0.6170
 9712SOL     OW36375   0.369   4.716   4.363 -1.0527 -0.1848 -0.1426
 9712SOL    HW136376   0.339   4.781   4.301 -0.5827  0.3765  0.2098
 9712SOL    HW236377   0.369   4.633   4.314 -2.6284 -0.1095 -0.3013
 9713SOL     OW36378   0.044  10.407   2.243 -0.0592  0.2192 -0.6612
 9713SOL    HW136379   0.127  10.408   2.291 -1.1084  1.0531  1.2345
 9713SOL    HW236380   0.033  10.497   2.214 -1.2325  0.6044  0.8627
 9714SOL     OW36381   1.947  11.061   3.641 -0.0818 -0.3492  0.0611
 9714SOL    HW136382   1.872  11.117   3.661 -0.2527 -0.2719 -0.7365
 9714SOL    HW236383   1.995  11.054   3.723 -0.6454  0.0846  0.4355
 9715SOL     OW36384   1.498   1.096   1.359 -0.4423  0.6799 -0.0793
 9715SOL    HW136385   1.517   1.055   1.275 -0.3467  0.3002  0.1246
 9715SOL    HW236386   1.506   1.025   1.422  0.0782  1.0907  0.3259
 9716SOL     OW36387   2.389   9.366   9.972  0.2342 -0.2682  0.2195
 9716SOL    HW136388   2.435   9.282   9.965 -1.0082 -0.9644  0.0577
 9716SOL    HW236389   2.441   9.417  10.035  2.5085 -0.1172 -1.6197
 9717SOL     OW36390   1.216   9.477   3.118 -0.2406  0.3134 -0.5408
 9717SOL    HW136391   1.234   9.441   3.205  0.9389  1.4319 -0.2982
 9717SOL    HW236392   1.207   9.399   3.062  2.7229 -0.4344 -0.1275
 9718SOL     OW36393  10.280   1.927   7.206 -0.1497  0.0040  0.0010
 9718SOL    HW136394  10.184   1.928   7.198 -0.1801  1.8307  0.0579
 9718SOL    HW236395  10.311   1.904   7.119 -0.6518  0.3393 -0.2752
 9719SOL     OW36396  11.826   3.477   7.702  0.1372 -0.3721  0.1354
 9719SOL    HW136397  11.822   3.570   7.723 -1.5150 -0.1745 -0.8861
 9719SOL    HW236398  11.890   3.471   7.631  0.1456  0.0070  0.1111
 9720SOL     OW36399   6.461   6.637   2.344 -0.1310  0.0082 -0.3434
 9720SOL    HW136400   6.539   6.637   2.399  1.1756 -1.1741 -2.0804
 9720SOL    HW236401   6.446   6.545   2.323 -1.2954  0.3164 -1.0006
 9721SOL     OW36402   8.873   3.431   3.217  0.2495 -0.5626  0.0307
 9721SOL    HW136403   8.860   3.395   3.304 -0.0277 -2.4690 -0.7408
 9721SOL    HW236404   8.827   3.370   3.159  1.6897 -0.1840 -1.5851
 9722SOL     OW36405  11.770  10.900   6.519  0.4511 -0.2703  0.0425
 9722SOL    HW136406  11.720  10.870   6.443  1.7321  1.2918 -1.4944
 9722SOL    HW236407  11.775  10.823   6.576 -1.4859 -1.1871 -0.9167
 9723SOL     OW36408  11.445   5.036  12.278  0.1532 -0.3531  0.5233
 9723SOL    HW136409  11.420   5.008  12.191 -0.0167  0.4614  0.2999
 9723SOL    HW236410  11.485   4.959  12.318  3.0635  0.0299 -1.3507
 9724SOL     OW36411   0.124   9.658  12.049  0.6773  0.5541 -0.3760
 9724SOL    HW136412   0.156   9.617  12.130  0.9683  1.5484  0.0319
 9724SOL    HW236413   0.147   9.596  11.980  0.1207 -0.4800  0.3318
 9725SOL     OW36414   1.366   2.320  12.003 -0.2921 -0.1308 -0.2342
 9725SOL    HW136415   1.278   2.339  12.037 -0.3958 -0.4281 -0.3261
 9725SOL    HW236416   1.403   2.405  11.983  1.1859  0.4376  3.9990
 9726SOL     OW36417   1.282   9.675   2.929 -0.1776  0.0301  0.2668
 9726SOL    HW136418   1.237   9.606   2.978 -0.9191  0.3549  0.0528
 9726SOL    HW236419   1.223   9.695   2.856  0.8342 -0.3357 -0.6861
 9727SOL     OW36420   8.912   1.628   7.874 -0.1510 -0.0776  0.0851
 9727SOL    HW136421   8.941   1.659   7.960 -0.0283  0.3522 -0.1093
 9727SOL    HW236422   8.979   1.659   7.813 -0.5013  0.0668 -0.2363
 9728SOL     OW36423   9.550   7.799   6.100 -0.3509 -0.0152 -0.6463
 9728SOL    HW136424   9.633   7.784   6.146  0.5607 -2.8854 -2.9320
 9728SOL    HW236425   9.542   7.894   6.097  0.8795  0.3474  2.9135
 9729SOL     OW36426   2.560   2.729   1.063  0.0117  0.6634 -0.0671
 9729SOL    HW136427   2.579   2.736   1.157 -2.3314  1.3576  0.4051
 9729SOL    HW236428   2.536   2.818   1.037  0.1927  0.3816 -1.2398
 9730SOL     OW36429   9.045   3.204   4.759 -0.0092 -0.3227  0.2195
 9730SOL    HW136430   8.963   3.190   4.711 -0.9546 -1.1902  1.9969
 9730SOL    HW236431   9.086   3.118   4.759  0.9120  0.0993 -0.6152
 9731SOL     OW36432   1.654   3.688  11.957  0.3748 -0.9556 -0.1493
 9731SOL    HW136433   1.716   3.655  12.022  1.1492  0.2223 -0.2488
 9731SOL    HW236434   1.648   3.782  11.976 -0.1642 -0.7813 -1.1440
 9732SOL     OW36435   9.747   9.623   4.136 -0.4009  0.2505  0.1182
 9732SOL    HW136436   9.729   9.716   4.131  1.0397  0.5406 -0.3700
 9732SOL    HW236437   9.747   9.603   4.229 -0.1405  0.8652  0.2543
 9733SOL     OW36438   3.244   0.734   1.280  0.4525 -0.1616  0.0441
 9733SOL    HW136439   3.223   0.673   1.209 -0.8450 -0.2895  0.5105
 9733SOL    HW236440   3.265   0.816   1.236 -1.1690  0.0079 -0.4954
 9734SOL     OW36441   3.790  12.240  11.624  0.1672  0.0796  0.2962
 9734SOL    HW136442   3.837  12.226  11.705  1.1450 -1.8293 -0.5391
 9734SOL    HW236443   3.700  12.261  11.651  1.1812  2.8654  1.8849
 9735SOL     OW36444   5.933   7.258   1.381 -0.1744  0.5223 -0.1741
 9735SOL    HW136445   5.857   7.216   1.420 -0.0809  0.4264 -0.0936
 9735SOL    HW236446   5.902   7.344   1.353 -0.8322 -0.2520 -1.9623
 9736SOL     OW36447   5.273   2.259   7.231 -0.0250  0.1148  0.0456
 9736SOL    HW136448   5.338   2.255   7.161 -1.6143 -1.7968 -1.4429
 9736SOL    HW236449   5.314   2.215   7.305  1.1539  0.8940 -0.1124
 9737SOL     OW36450  12.436   5.942  10.345  0.3110  0.3678 -0.0464
 9737SOL    HW136451  12.500   5.985  10.289 -2.0128  1.5747 -1.9385
 9737SOL    HW236452  12.406   6.011  10.405  0.3331 -0.0119  0.4082
 9738SOL     OW36453  11.939   9.888   4.730 -0.5290 -0.4140 -0.3328
 9738SOL    HW136454  11.986   9.839   4.798  1.4922  0.1499 -1.2331
 9738SOL    HW236455  11.912   9.969   4.773  0.7187 -0.0652 -0.1637
 9739SOL     OW36456  10.269  10.069   7.353 -0.4716 -0.3432  0.7796
 9739SOL    HW136457  10.229  10.035   7.273  2.2535  1.0084 -1.3231
 9739SOL    HW236458  10.209  10.139   7.381  0.3172  1.8592 -2.4446
 9740SOL     OW36459   3.928   7.790   2.108 -0.0237  0.3604  0.0599
 9740SOL    HW136460   3.914   7.695   2.109  1.2602  0.1192 -1.1380
 9740SOL    HW236461   3.852   7.826   2.153 -1.0998 -1.1755 -0.4323
 9741SOL     OW36462   7.851  11.076   2.070  0.1334  0.2247  0.7491
 9741SOL    HW136463   7.931  11.054   2.119 -0.5257 -0.3364  1.5974
 9741SOL    HW236464   7.881  11.086   1.979  0.9091 -1.6342  0.7517
 9742SOL     OW36465   9.380   5.541   7.538  0.1614 -0.0996 -0.2347
 9742SOL    HW136466   9.467   5.561   7.573  0.2403 -1.5181  0.4601
 9742SOL    HW236467   9.395   5.525   7.445  0.3016  1.5724 -0.5353
 9743SOL     OW36468   7.622   0.630   7.391 -0.4897 -0.2859 -0.2524
 9743SOL    HW136469   7.644   0.538   7.375 -0.5159 -0.3274 -0.0426
 9743SOL    HW236470   7.706   0.672   7.409 -0.5229 -0.3438  0.0359
 9744SOL     OW36471   0.401   1.071   3.372  0.1451 -0.4540  0.0237
 9744SOL    HW136472   0.408   1.161   3.402 -0.1884 -0.3930 -0.0722
 9744SOL    HW236473   0.473   1.025   3.415 -0.9279 -0.6037  1.7671
 9745SOL     OW36474  10.011   3.546   1.133  0.7627 -0.2852 -0.4752
 9745SOL    HW136475   9.923   3.543   1.096 -0.2167 -0.1020  1.6571
 9745SOL    HW236476  10.038   3.638   1.124  0.4820 -0.2142 -0.5949
 9746SOL     OW36477   3.658   8.064   7.412  0.1972 -0.5500  0.7119
 9746SOL    HW136478   3.587   8.012   7.449 -0.3086 -0.0780  0.4103
 9746SOL    HW236479   3.614   8.131   7.360  0.7366  1.5292  2.7721
 9747SOL     OW36480   9.001   4.148   2.090  0.3139  0.2930 -0.4980
 9747SOL    HW136481   9.079   4.145   2.034  1.5919  2.3624  0.9979
 9747SOL    HW236482   9.008   4.233   2.135  0.5210 -1.9586  4.3321
 9748SOL     OW36483  11.027   6.288  10.208  0.3888  0.2112 -0.5352
 9748SOL    HW136484  11.109   6.335  10.221  2.1657 -1.8885 -3.1034
 9748SOL    HW236485  10.997   6.313  10.121 -0.2696 -1.0394 -0.6996
 9749SOL     OW36486   7.711  10.959   2.716  0.9437  0.4099  0.3146
 9749SOL    HW136487   7.672  10.953   2.629  1.1580  3.0399 -0.0550
 9749SOL    HW236488   7.777  10.890   2.718 -0.0029 -0.5824 -1.0754
 9750SOL     OW36489   3.315  10.352  11.703  0.6174 -0.8126  0.1387
 9750SOL    HW136490   3.221  10.352  11.685 -0.0394 -0.2589  3.0502
 9750SOL    HW236491   3.349  10.276  11.655 -1.2440 -0.9340 -1.1052
 9751SOL     OW36492   8.729   3.838   8.033  0.0926  0.3597 -0.3312
 9751SOL    HW136493   8.694   3.843   7.945 -0.1446 -1.1780 -0.3467
 9751SOL    HW236494   8.656   3.862   8.090 -0.6589 -1.5366 -0.4329
 9752SOL     OW36495   8.411   1.598   4.372  0.1674  0.6531  0.1128
 9752SOL    HW136496   8.388   1.607   4.464 -0.1918  1.6761 -0.0696
 9752SOL    HW236497   8.472   1.524   4.370 -0.5599  0.0120  1.0318
 9753SOL     OW36498   0.593  12.157   8.076 -0.4943  0.2687  0.3765
 9753SOL    HW136499   0.594  12.143   7.981  1.0012 -2.5558  0.6983
 9753SOL    HW236500   0.685  12.156   8.101 -0.9202 -2.0067  2.1568
 9754SOL     OW36501   3.784   9.168   4.999 -0.0419 -0.5951 -0.0160
 9754SOL    HW136502   3.714   9.173   5.064  0.6628  0.7878  0.6712
 9754SOL    HW236503   3.842   9.099   5.032  0.8833  0.8083  1.4697
 9755SOL     OW36504   0.377  12.288   7.724 -0.3578  0.2160  0.1198
 9755SOL    HW136505   0.399  12.379   7.745 -0.0280  0.1276  0.1594
 9755SOL    HW236506   0.315  12.295   7.651 -0.1910  0.4645 -0.0003
 9756SOL     OW36507   1.517   4.916  11.553 -0.1083 -0.2365  0.0766
 9756SOL    HW136508   1.521   4.906  11.648  0.7489  0.3898  0.1116
 9756SOL    HW236509   1.535   5.009  11.538 -4.3069  0.7152 -0.4550
 9757SOL     OW36510   0.919   8.110   3.137  0.4148  0.1330 -0.1668
 9757SOL    HW136511   0.846   8.053   3.161  0.4053  0.7505  1.3827
 9757SOL    HW236512   0.964   8.063   3.067 -1.4831 -0.2324 -1.2252
 9758SOL     OW36513  11.297   8.206  12.554 -0.4498  0.8429 -0.1745
 9758SOL    HW136514  11.349   8.205  12.634  1.5069 -1.0769 -1.3642
 9758SOL    HW236515  11.332   8.279  12.503  0.1582  0.4096 -0.3883
 9759SOL     OW36516   6.241   9.657   6.719 -0.0458  0.0228 -0.2581
 9759SOL    HW136517   6.250   9.563   6.702 -0.0259  0.2260 -1.4944
 9759SOL    HW236518   6.147   9.671   6.729  0.0026 -0.2267  0.6239
 9760SOL     OW36519   8.745  11.033  11.953  0.2212  0.1552 -0.7249
 9760SOL    HW136520   8.683  11.050  11.882 -0.9086  0.7863  0.3642
 9760SOL    HW236521   8.798  11.112  11.957 -0.6601  0.7349  0.0270
 9761SOL     OW36522   9.926   7.987   6.356  0.4283 -0.6244 -0.1255
 9761SOL    HW136523   9.878   8.069   6.363 -0.1262 -0.7068 -2.1774
 9761SOL    HW236524  10.005   8.010   6.307  0.0620 -1.3672 -1.0974
 9762SOL     OW36525   1.104   9.698   5.470 -0.4368  0.2007  0.0724
 9762SOL    HW136526   1.170   9.651   5.521  0.0521  1.7808  0.9734
 9762SOL    HW236527   1.155   9.748   5.406 -0.4477  3.2166  2.2199
 9763SOL     OW36528  12.156  12.061   2.914 -0.0303  0.5987 -0.2432
 9763SOL    HW136529  12.192  12.035   2.999  1.8682 -1.5469 -1.5949
 9763SOL    HW236530  12.224  12.118   2.876 -0.3918  0.6940 -0.7590
 9764SOL     OW36531   1.697  11.079  12.399  0.0249 -0.5116  0.5565
 9764SOL    HW136532   1.723  11.170  12.411  2.2949 -0.8191 -1.2550
 9764SOL    HW236533   1.614  11.084  12.352 -0.0518  0.6313  0.7864
 9765SOL     OW36534   7.521  12.328   0.134  0.8576 -0.1651  0.2537
 9765SOL    HW136535   7.441  12.277   0.147  0.9957 -0.4565 -0.0300
 9765SOL    HW236536   7.572  12.313   0.214  0.0881  1.0375  1.0113
 9766SOL     OW36537   9.607   5.632   6.086  0.2122 -0.8811 -0.0746
 9766SOL    HW136538   9.669   5.692   6.128  2.0568 -3.7151  1.5713
 9766SOL    HW236539   9.615   5.651   5.993  2.2449  0.0614  0.2387
 9767SOL     OW36540   5.761   7.408   8.441 -0.5107 -0.1176 -0.0611
 9767SOL    HW136541   5.680   7.359   8.429 -1.4306  0.3566  3.1797
 9767SOL    HW236542   5.735   7.500   8.439  0.2758  0.1020 -0.7577
 9768SOL     OW36543   6.201   5.691   2.147  0.1161 -0.4336  0.0340
 9768SOL    HW136544   6.210   5.786   2.150  2.5450 -0.6092  1.1160
 9768SOL    HW236545   6.242   5.666   2.063 -0.0562 -0.5530 -0.0139
 9769SOL     OW36546   8.484   8.257   6.127 -0.4571  0.1285 -0.3831
 9769SOL    HW136547   8.465   8.227   6.216 -0.2710  0.3843 -0.2576
 9769SOL    HW236548   8.429   8.334   6.115  0.1854  0.6172 -0.1716
 9770SOL     OW36549  10.658   9.923  11.190  0.2668 -0.6105  0.5595
 9770SOL    HW136550  10.692   9.890  11.107 -0.1470 -1.1064  0.5836
 9770SOL    HW236551  10.580   9.973  11.165  1.7987  1.8376  0.3322
 9771SOL     OW36552   1.855  11.211  11.237  0.8615 -0.4309 -0.6111
 9771SOL    HW136553   1.797  11.157  11.184 -0.2578  0.8011 -0.6966
 9771SOL    HW236554   1.797  11.270  11.284  2.0139  0.4619 -0.2492
 9772SOL     OW36555  12.271   2.764   1.886  0.2248  0.5322  0.5058
 9772SOL    HW136556  12.328   2.707   1.937 -0.5826  0.3204  1.1967
 9772SOL    HW236557  12.222   2.704   1.829  0.4411  0.6803  0.1609
 9773SOL     OW36558  10.867   9.212   0.586  0.3693  0.2646 -0.1149
 9773SOL    HW136559  10.854   9.126   0.546  1.1447 -0.5607  1.3152
 9773SOL    HW236560  10.903   9.266   0.516  1.3603 -1.0269 -0.6403
 9774SOL     OW36561   6.625   5.312   3.874  0.3606  0.1380 -0.1185
 9774SOL    HW136562   6.565   5.356   3.814  0.0175  3.0981  2.1972
 9774SOL    HW236563   6.570   5.252   3.925 -0.3624  1.5443  0.8009
 9775SOL     OW36564   9.678   0.443   1.558  0.3511 -0.1263  0.0204
 9775SOL    HW136565   9.713   0.355   1.567  0.7468  0.0479  0.2325
 9775SOL    HW236566   9.584   0.434   1.574  0.5328 -0.3635  1.0284
 9776SOL     OW36567   2.915  10.449   8.987 -0.1224  0.0554 -0.3260
 9776SOL    HW136568   2.897  10.540   9.011  0.8048  0.1276  0.1233
 9776SOL    HW236569   2.848  10.398   9.033 -2.2441  0.6622 -2.5128
 9777SOL     OW36570   5.794   9.205   1.056  0.2329  0.0080  0.4746
 9777SOL    HW136571   5.709   9.163   1.040  0.4707  0.6224 -3.1490
 9777SOL    HW236572   5.773   9.297   1.069  0.3529  0.6985 -3.2438
 9778SOL     OW36573  12.393   9.875   3.017  0.2528  0.2745  0.1548
 9778SOL    HW136574  12.486   9.898   3.012  0.3476 -0.3636 -1.6438
 9778SOL    HW236575  12.359   9.895   2.930 -0.6774 -2.0345 -0.0693
 9779SOL     OW36576   9.970   0.827  10.119  0.0481 -0.5623 -0.5633
 9779SOL    HW136577   9.938   0.806  10.032  0.8472 -2.5072 -0.4413
 9779SOL    HW236578  10.065   0.818  10.113  0.1647 -0.1189  0.3569
 9780SOL     OW36579   9.434   1.580   2.376 -0.5955  0.0243  0.7464
 9780SOL    HW136580   9.473   1.623   2.300 -0.6146 -1.8211 -0.3732
 9780SOL    HW236581   9.341   1.604   2.371 -0.5620  0.0814  0.3004
 9781SOL     OW36582  11.424   0.092   7.447  0.5739 -0.1661  0.9126
 9781SOL    HW136583  11.403   0.129   7.533  0.7032 -0.1290  0.9275
 9781SOL    HW236584  11.519   0.082   7.448  0.6177  0.2169  0.6133
 9782SOL     OW36585   6.977   0.805  10.955  0.2561 -0.2807 -0.0775
 9782SOL    HW136586   6.917   0.735  10.982 -1.9574  2.5463  3.1561
 9782SOL    HW236587   7.051   0.797  11.015 -0.2884  0.4419  0.7123
 9783SOL     OW36588   4.395   8.469   0.384 -0.3704  0.3166  0.3324
 9783SOL    HW136589   4.464   8.512   0.335  0.0310 -0.3006  0.3468
 9783SOL    HW236590   4.420   8.376   0.385 -2.3176 -0.3042 -1.5911
 9784SOL     OW36591   1.064   6.458   5.513  0.2505 -0.2438 -0.0503
 9784SOL    HW136592   1.061   6.375   5.467  1.3218 -0.6546  0.5805
 9784SOL    HW236593   0.985   6.459   5.567  0.4396 -1.0564  0.2531
 9785SOL     OW36594   6.844   0.603   9.814  0.9180  0.7241  0.3674
 9785SOL    HW136595   6.830   0.612   9.908  1.1569  0.3723  0.4432
 9785SOL    HW236596   6.901   0.526   9.806 -2.0731 -1.5943 -0.2765
 9786SOL     OW36597  11.451   0.542   8.351  0.4495 -0.5364 -0.6126
 9786SOL    HW136598  11.409   0.571   8.270 -0.2851  1.4928  0.4124
 9786SOL    HW236599  11.458   0.447   8.342  1.1354 -0.3124 -3.3598
 9787SOL     OW36600   5.114  10.845   5.085  0.0428  0.0087 -0.2221
 9787SOL    HW136601   5.021  10.825   5.070 -0.0270  0.0036  0.2159
 9787SOL    HW236602   5.158  10.761   5.076  0.0949  0.1110 -1.0780
 9788SOL     OW36603   5.750   8.353   8.349  0.5054  0.0905  0.3753
 9788SOL    HW136604   5.698   8.306   8.414 -0.9219  0.4249 -0.5025
 9788SOL    HW236605   5.816   8.289   8.321 -1.2721 -1.3613 -0.6470
 9789SOL     OW36606   3.127   0.936   7.628  0.1866 -0.5829  0.2112
 9789SOL    HW136607   3.177   0.918   7.708 -2.5700  0.5397  2.3229
 9789SOL    HW236608   3.086   1.020   7.644 -1.5803 -0.9772 -1.8378
 9790SOL     OW36609  11.249   7.147   5.908 -0.4244 -0.5271  0.3952
 9790SOL    HW136610  11.236   7.168   6.001 -1.8023 -0.7699  0.2868
 9790SOL    HW236611  11.179   7.085   5.888  0.1306 -0.8205 -0.7059
 9791SOL     OW36612   7.809  10.618   2.577 -0.8616  0.2750  0.0481
 9791SOL    HW136613   7.832  10.525   2.576  0.0880  0.4737  0.8551
 9791SOL    HW236614   7.716  10.621   2.557 -0.7711 -0.8075 -0.5810
 9792SOL     OW36615   0.890   7.055   8.451 -0.2467  0.3325  0.2756
 9792SOL    HW136616   0.825   7.065   8.520 -2.7603 -0.8985 -1.7228
 9792SOL    HW236617   0.935   6.973   8.472 -0.7408  0.1562  0.6711
 9793SOL     OW36618  11.142   6.974   0.592 -0.1696 -0.2056 -1.0870
 9793SOL    HW136619  11.204   7.034   0.634  0.5606 -1.8883  0.3313
 9793SOL    HW236620  11.061   7.025   0.584  0.0464  0.6056  1.2273
 9794SOL     OW36621  12.256   1.330   0.542  0.1439  0.0024 -0.2548
 9794SOL    HW136622  12.255   1.243   0.581  0.1302 -0.3005 -0.9301
 9794SOL    HW236623  12.291   1.317   0.454  0.8006  0.7759 -0.1253
 9795SOL     OW36624   7.156   3.958   8.666  0.7492 -0.6134 -0.1298
 9795SOL    HW136625   7.075   3.921   8.631  0.9880 -3.0796  1.6607
 9795SOL    HW236626   7.221   3.888   8.656  1.6692 -0.1259  1.9638
 9796SOL     OW36627   3.657   8.284   3.782 -0.6273  0.5637  0.0103
 9796SOL    HW136628   3.719   8.218   3.753  0.0095  1.4052 -0.5797
 9796SOL    HW236629   3.658   8.351   3.713 -1.3067  1.1558  0.5530
 9797SOL     OW36630   9.925   8.144   4.021 -0.0323 -0.1226 -0.4370
 9797SOL    HW136631   9.962   8.209   4.080 -0.5044 -0.3236  0.0929
 9797SOL    HW236632   9.958   8.168   3.935 -0.8886  1.3394 -0.3794
 9798SOL     OW36633  11.190   4.408   7.800 -0.3642 -0.4087 -0.0424
 9798SOL    HW136634  11.111   4.373   7.758 -2.2862  3.6311 -0.1959
 9798SOL    HW236635  11.185   4.502   7.787  3.6982  0.2147  1.4623
 9799SOL     OW36636   2.875   6.358   6.200 -0.2093 -0.1597 -0.1382
 9799SOL    HW136637   2.908   6.300   6.268  0.1662  0.8916  0.6164
 9799SOL    HW236638   2.851   6.438   6.247 -1.4835  0.0074 -1.0287
 9800SOL     OW36639   7.486   6.436   1.874  0.2285 -0.2368  0.6932
 9800SOL    HW136640   7.527   6.490   1.807 -0.5475 -0.0706  0.3386
 9800SOL    HW236641   7.393   6.433   1.849 -0.3969  1.1424  2.6259
 9801SOL     OW36642   8.308   5.346   8.154  0.0034  0.1565  0.3325
 9801SOL    HW136643   8.395   5.355   8.193  0.4055 -1.7704 -0.0100
 9801SOL    HW236644   8.250   5.331   8.229 -0.0160  1.1450  0.5349
 9802SOL     OW36645   0.127   2.403   5.840  1.0408  0.3427 -0.3768
 9802SOL    HW136646   0.209   2.446   5.818  0.4596  1.6152 -0.1800
 9802SOL    HW236647   0.083   2.464   5.900 -0.2979 -0.0337 -0.9313
 9803SOL     OW36648   9.299   9.872   1.269 -0.1913  0.3367  0.5064
 9803SOL    HW136649   9.321   9.783   1.295 -2.0355 -0.1186  0.6333
 9803SOL    HW236650   9.257   9.863   1.183 -2.7402  0.7127  1.6206
 9804SOL     OW36651   8.304   6.926   9.940 -0.0358  0.1112  0.0738
 9804SOL    HW136652   8.330   6.863   9.872 -0.6432 -0.4405  0.3384
 9804SOL    HW236653   8.328   6.884  10.022  1.3820  1.1003  0.1958
 9805SOL     OW36654   7.116   6.987  11.995  0.0289  0.2625  0.2302
 9805SOL    HW136655   7.049   7.052  11.972  0.3464  0.2068 -0.9136
 9805SOL    HW236656   7.164   6.974  11.914  2.4320  1.4541  1.3668
 9806SOL     OW36657   1.740   3.668   9.597  0.3542  0.4861  0.0683
 9806SOL    HW136658   1.757   3.639   9.687 -1.2829  1.6263  0.7779
 9806SOL    HW236659   1.798   3.613   9.544  2.5917  0.8939  1.9207
 9807SOL     OW36660   1.398   7.953   3.792  0.6968  0.1171 -0.2133
 9807SOL    HW136661   1.468   8.008   3.757  0.6518 -0.9257 -2.0543
 9807SOL    HW236662   1.345   7.931   3.716 -1.1431  0.1543  1.0160
 9808SOL     OW36663  12.606  12.531  11.008  0.2395  0.5347  0.4357
 9808SOL    HW136664  12.562  12.611  10.980 -0.1820 -0.2681 -1.2965
 9808SOL    HW236665  12.698  12.545  10.986  0.0429  0.2486 -0.6290
 9809SOL     OW36666   5.167  12.558   3.420  0.0176  0.3608 -0.1464
 9809SOL    HW136667   5.121  12.578   3.338  0.1488  0.4762 -0.1939
 9809SOL    HW236668   5.258  12.545   3.393  0.0840  0.5208 -0.0014
 9810SOL     OW36669   7.382   3.308   8.484  0.2271 -0.6140  0.0588
 9810SOL    HW136670   7.395   3.262   8.401 -1.6686 -0.3593 -0.4296
 9810SOL    HW236671   7.371   3.237   8.548 -0.9819 -0.8622 -0.3948
 9811SOL     OW36672  11.995   3.183   7.751 -0.2025 -0.0037  0.2394
 9811SOL    HW136673  11.899   3.182   7.752 -0.2341 -0.6531  2.2350
 9811SOL    HW236674  12.018   3.258   7.696 -1.8755  0.6261  0.3350
 9812SOL     OW36675   3.586   6.607  11.047 -0.6550  0.1518  0.0921
 9812SOL    HW136676   3.591   6.597  11.142 -1.0558 -1.5400 -0.0347
 9812SOL    HW236677   3.501   6.646  11.031 -0.5731  0.4753  0.4228
 9813SOL     OW36678   2.839   0.191   5.502  0.1306 -0.5423  0.3595
 9813SOL    HW136679   2.846   0.106   5.458 -0.6096 -0.6666  0.4764
 9813SOL    HW236680   2.929   0.212   5.527  0.1582 -1.9076  1.4939
 9814SOL     OW36681   5.480  12.212   1.830 -0.1075  0.6197 -0.2160
 9814SOL    HW136682   5.561  12.260   1.814 -1.0680  1.8344 -1.7742
 9814SOL    HW236683   5.460  12.169   1.747 -1.3240  0.7895 -0.0342
 9815SOL     OW36684   6.419   0.064  11.565  0.0053  0.0330 -0.1844
 9815SOL    HW136685   6.482   0.076  11.635  0.4377 -0.8454 -0.4168
 9815SOL    HW236686   6.393   0.153  11.540  0.3497  0.3620  0.6241
 9816SOL     OW36687  10.488   7.777  11.374 -0.2469 -0.9008  0.2077
 9816SOL    HW136688  10.433   7.840  11.422  0.0578  0.3056 -0.9571
 9816SOL    HW236689  10.477   7.695  11.421 -0.8036 -0.0223  1.6860
 9817SOL     OW36690   7.250  12.249  11.544 -0.1871  0.2531  0.6643
 9817SOL    HW136691   7.197  12.299  11.482  0.1549  1.3176  1.1995
 9817SOL    HW236692   7.190  12.182  11.577 -0.0607 -1.0743 -1.6096
 9818SOL     OW36693   6.819   2.616  12.245 -0.4598  0.3266  0.2509
 9818SOL    HW136694   6.869   2.545  12.206  1.3709  2.6055 -1.9379
 9818SOL    HW236695   6.728   2.591  12.233  0.1178 -1.6034 -0.4487
 9819SOL     OW36696   5.204  11.137  11.821  0.0249 -0.5576 -0.3291
 9819SOL    HW136697   5.145  11.078  11.773  0.4694 -0.5332 -0.9234
 9819SOL    HW236698   5.285  11.088  11.829  0.0069 -0.4978  0.2766
 9820SOL     OW36699   0.848   5.104   8.210 -0.1126 -0.0620  0.0171
 9820SOL    HW136700   0.878   5.101   8.119  1.2486 -0.5887  0.4457
 9820SOL    HW236701   0.876   5.020   8.247  0.9646  0.8440  1.3775
 9821SOL     OW36702   5.962   1.575   9.157  0.6304 -0.1500 -0.4740
 9821SOL    HW136703   6.007   1.573   9.072  1.1092  1.0757 -0.2789
 9821SOL    HW236704   5.871   1.550   9.136  0.8451 -0.3059 -1.2702
 9822SOL     OW36705  10.666   5.518   8.949  0.0177 -0.5939  0.2552
 9822SOL    HW136706  10.676   5.608   8.980  0.4944 -0.5950  0.1140
 9822SOL    HW236707  10.573   5.499   8.958 -0.8924  1.2798 -3.4096
 9823SOL     OW36708   8.583  11.687   2.840 -0.4934 -0.2626 -0.2809
 9823SOL    HW136709   8.546  11.639   2.914  2.4312  0.4634  1.8387
 9823SOL    HW236710   8.551  11.776   2.851 -1.1821 -0.4443 -0.7503
 9824SOL     OW36711   8.658  12.685   7.619  0.0467  0.1539  0.1256
 9824SOL    HW136712   8.744  12.706   7.582 -0.0206 -0.0883 -0.1659
 9824SOL    HW236713   8.607  12.766   7.608  0.1098  0.1672 -0.0729
 9825SOL     OW36714   7.186   8.528  10.480 -0.6024  0.2497  0.3436
 9825SOL    HW136715   7.103   8.483  10.497 -0.6485 -0.2292 -1.0559
 9825SOL    HW236716   7.234   8.520  10.563 -0.3831 -2.8879  0.0348
 9826SOL     OW36717   3.308   9.456   7.150 -0.1120 -0.1328 -0.0374
 9826SOL    HW136718   3.331   9.387   7.089  1.2672 -0.0627  0.3655
 9826SOL    HW236719   3.285   9.531   7.095  0.9446 -0.1245 -0.4767
 9827SOL     OW36720   6.560  11.887   5.613 -0.2574  0.0243 -0.0258
 9827SOL    HW136721   6.576  11.896   5.707  0.9111 -2.9934  0.1756
 9827SOL    HW236722   6.472  11.921   5.600 -1.1252 -1.0218  2.5194
 9828SOL     OW36723  12.386   5.170   3.550  0.3451 -0.4815  0.4901
 9828SOL    HW136724  12.450   5.166   3.620 -0.7597 -1.4020  1.4948
 9828SOL    HW236725  12.387   5.261   3.520 -0.0285  0.2466  2.5441
 9829SOL     OW36726   3.228  12.595   5.523 -0.7273 -0.2510 -0.2018
 9829SOL    HW136727   3.143  12.639   5.519 -1.5279 -1.4919  1.7408
 9829SOL    HW236728   3.289  12.664   5.549 -1.1901  0.5480 -1.1485
 9830SOL     OW36729   2.661   7.356  11.056 -0.3449  0.1059 -0.4587
 9830SOL    HW136730   2.580   7.369  11.007 -0.7521 -0.5278  0.0255
 9830SOL    HW236731   2.645   7.277  11.108  0.7597 -0.3020 -0.7172
 9831SOL     OW36732   5.077   6.901   6.533  0.0554  0.5681 -0.4282
 9831SOL    HW136733   5.057   6.817   6.493 -1.3317  0.9771 -0.6491
 9831SOL    HW236734   5.124   6.879   6.614 -1.7494 -0.5112  0.3886
 9832SOL     OW36735   2.940   6.020   5.869 -0.4271 -0.6334  0.6069
 9832SOL    HW136736   2.949   6.115   5.869 -2.3119 -0.3808  2.1415
 9832SOL    HW236737   2.956   5.995   5.961 -1.1007 -1.6534  0.4593
 9833SOL     OW36738   8.924   7.847   6.152 -0.1434 -0.2359 -0.3332
 9833SOL    HW136739   8.873   7.794   6.090  0.3897 -0.1735 -0.8344
 9833SOL    HW236740   8.998   7.791   6.176  0.0446  0.0179 -0.3221
 9834SOL     OW36741  10.369   6.536  10.439  0.7561 -0.3552  0.6582
 9834SOL    HW136742  10.413   6.580  10.512  0.3396 -0.9482  1.2795
 9834SOL    HW236743  10.311   6.603  10.402 -0.5048 -0.5955  2.1321
 9835SOL     OW36744   8.098   0.652   3.034 -0.0345  0.5431  0.0405
 9835SOL    HW136745   8.176   0.635   2.979  0.4898  2.0992  0.2528
 9835SOL    HW236746   8.127   0.630   3.123 -0.4759 -0.7194 -0.1006
 9836SOL     OW36747   0.605   6.124   6.162 -0.0525 -0.1052  0.1705
 9836SOL    HW136748   0.615   6.041   6.209  0.5415  0.3893  0.9457
 9836SOL    HW236749   0.543   6.174   6.214  0.5845  0.4345  0.4236
 9837SOL     OW36750  12.517  11.338   6.586  0.9182 -0.2624 -0.0752
 9837SOL    HW136751  12.519  11.373   6.497  1.9004  0.3605  0.1682
 9837SOL    HW236752  12.593  11.281   6.591  1.6525  0.7347  0.7361
 9838SOL     OW36753   5.590   1.532  10.278  0.2096  0.2411  0.0534
 9838SOL    HW136754   5.565   1.448  10.242 -1.4299  0.4373  0.6562
 9838SOL    HW236755   5.611   1.514  10.370  0.1117  0.4470  0.1173
 9839SOL     OW36756  10.089   2.255  10.367 -0.1697  0.3251  0.4675
 9839SOL    HW136757  10.075   2.284  10.457 -1.2784 -0.0914  0.4560
 9839SOL    HW236758  10.047   2.323  10.313 -0.6738 -0.0832  0.3354
 9840SOL     OW36759  11.005   6.810   6.183  0.0711  0.2100  0.2105
 9840SOL    HW136760  11.015   6.784   6.091 -1.7060 -2.2343  0.5972
 9840SOL    HW236761  11.072   6.760   6.229 -0.1656  0.1082  0.4426
 9841SOL     OW36762  11.089   3.070  10.445 -0.4647  0.0317 -0.6159
 9841SOL    HW136763  11.024   3.108  10.504  0.8213  1.6915 -0.1822
 9841SOL    HW236764  11.091   3.129  10.369  2.0487  1.3715  0.3601
 9842SOL     OW36765   1.936   1.734   3.639 -0.1182 -0.0927  0.2996
 9842SOL    HW136766   1.986   1.689   3.707  2.7132  0.5147 -1.2701
 9842SOL    HW236767   1.894   1.663   3.590  0.5243 -0.7388  0.6679
 9843SOL     OW36768  12.658   6.922   6.045 -0.4795 -0.5906 -0.0122
 9843SOL    HW136769  12.652   6.907   6.139  0.7715 -0.2115  0.1369
 9843SOL    HW236770  12.729   6.865   6.015 -0.2530 -0.0289 -0.5700
 9844SOL     OW36771   0.170   9.554  10.385 -0.1625 -0.0226 -0.3430
 9844SOL    HW136772   0.119   9.577  10.462 -0.1316 -0.0388 -0.3178
 9844SOL    HW236773   0.255   9.526  10.420  0.3408  1.3008 -0.4522
 9845SOL     OW36774   3.138  10.916  11.466  0.1929 -0.4164 -0.0598
 9845SOL    HW136775   3.176  10.991  11.513 -1.4589  0.2910  0.2315
 9845SOL    HW236776   3.171  10.925  11.376  1.0354 -0.0815  0.2741
 9846SOL     OW36777  12.113   0.441   6.833  0.0399  0.1010 -0.0198
 9846SOL    HW136778  12.126   0.458   6.740  0.0583 -0.9567 -0.2208
 9846SOL    HW236779  12.199   0.412   6.864  0.3638  1.6364  0.6179
 9847SOL     OW36780   8.544   3.011   0.258  0.4811  0.2657  0.2373
 9847SOL    HW136781   8.508   3.002   0.170 -2.4196  1.6503  1.1521
 9847SOL    HW236782   8.586   2.927   0.275 -1.2664 -1.0639 -1.4808
 9848SOL     OW36783   3.866   0.252   1.216 -0.2130 -0.2384  0.6194
 9848SOL    HW136784   3.898   0.253   1.306  1.8243  0.6853 -0.0309
 9848SOL    HW236785   3.771   0.253   1.223 -0.0941  0.6956  2.7579
 9849SOL     OW36786  11.303   4.081   3.528 -0.2390 -0.3422 -0.6892
 9849SOL    HW136787  11.383   4.032   3.546  0.7077  1.0464 -0.9790
 9849SOL    HW236788  11.254   4.078   3.610  0.1612 -1.0856 -0.4696
 9850SOL     OW36789   1.902   5.384  10.059 -0.5147  0.3351 -0.0469
 9850SOL    HW136790   1.907   5.289  10.068 -1.7781  0.0579 -1.7552
 9850SOL    HW236791   1.935   5.402   9.971 -1.8613  1.2793 -0.3926
 9851SOL     OW36792   8.715  11.986   9.005  0.9709 -0.1923 -0.1136
 9851SOL    HW136793   8.756  11.966   9.089  0.1336 -1.3031  0.0498
 9851SOL    HW236794   8.667  11.906   8.982 -0.8029  0.9154 -0.4631
 9852SOL     OW36795   0.516   9.546  12.605  0.2947  0.4105 -0.4782
 9852SOL    HW136796   0.582   9.614  12.619  1.1735 -0.0832 -1.9724
 9852SOL    HW236797   0.480   9.528  12.692  1.5663  1.2551  0.2414
 9853SOL     OW36798   5.669   3.515   1.042 -0.5683 -0.1896 -0.1327
 9853SOL    HW136799   5.714   3.586   1.088 -2.7277  0.4220  1.2365
 9853SOL    HW236800   5.589   3.555   1.008 -0.9242 -1.5449 -0.9941
 9854SOL     OW36801   4.081   4.962   6.177 -0.1126 -0.3232  0.0152
 9854SOL    HW136802   4.105   5.038   6.230 -0.5454 -1.1559  1.4547
 9854SOL    HW236803   4.033   4.905   6.237  0.8022 -2.0623 -0.8284
 9855SOL     OW36804   3.884  10.406   0.715 -0.2345  0.0405  0.3107
 9855SOL    HW136805   3.935  10.389   0.794  0.7826 -0.9546 -0.5235
 9855SOL    HW236806   3.804  10.354   0.727 -1.0701  1.5472  1.5884
 9856SOL     OW36807  10.493   7.868  10.804 -0.8148 -0.4041  0.5299
 9856SOL    HW136808  10.468   7.783  10.841  0.9392 -0.9160  0.6166
 9856SOL    HW236809  10.569   7.895  10.855  2.0230 -1.3527 -2.8366
 9857SOL     OW36810   1.386   3.580   4.534  0.2111  0.2738  0.6756
 9857SOL    HW136811   1.459   3.522   4.512  1.8233  1.7471  1.8781
 9857SOL    HW236812   1.366   3.625   4.452 -0.3485 -1.1508 -0.0103
 9858SOL     OW36813   2.529   0.174  10.041  0.8590  0.2004 -0.4314
 9858SOL    HW136814   2.549   0.226   9.963  2.2870  1.2632  0.5760
 9858SOL    HW236815   2.571   0.089  10.025  0.3009  0.0719 -1.2211
 9859SOL     OW36816  11.139   7.732  10.200 -0.5196 -0.6290 -0.3459
 9859SOL    HW136817  11.059   7.729  10.147 -1.2241  0.3867  0.6187
 9859SOL    HW236818  11.183   7.812  10.173 -0.3289 -0.6715 -0.1628
 9860SOL     OW36819   1.586   8.182   7.640 -0.0836  0.0523  0.4321
 9860SOL    HW136820   1.571   8.272   7.669 -0.5264  0.1185  0.0060
 9860SOL    HW236821   1.627   8.190   7.555 -2.8256 -0.1072 -1.0183
 9861SOL     OW36822  11.129   2.163   0.356  0.0119 -0.1205 -0.3572
 9861SOL    HW136823  11.113   2.186   0.448 -0.7168  1.0678 -0.7489
 9861SOL    HW236824  11.145   2.247   0.313 -2.5925 -0.2924 -1.8577
 9862SOL     OW36825   3.516   9.295  11.246  0.3286  0.2591 -0.2193
 9862SOL    HW136826   3.520   9.227  11.313  2.1682  0.1411 -0.4083
 9862SOL    HW236827   3.607   9.320  11.231 -0.1174  0.9629 -2.0004
 9863SOL     OW36828   4.679   5.755   1.899  0.6137 -0.1552  0.1356
 9863SOL    HW136829   4.759   5.721   1.940  1.2235 -0.3155 -1.1375
 9863SOL    HW236830   4.667   5.842   1.939  0.4259 -0.8304  1.6080
 9864SOL     OW36831  10.877  12.576   1.031 -0.3578 -0.2489 -0.1883
 9864SOL    HW136832  10.969  12.592   1.054 -0.4931  1.7152 -0.8577
 9864SOL    HW236833  10.830  12.591   1.113 -0.1040 -1.2294  0.1502
 9865SOL     OW36834   9.760   0.884   6.706  0.2447  0.7140 -0.5556
 9865SOL    HW136835   9.716   0.903   6.623 -1.1186  2.2353  0.4496
 9865SOL    HW236836   9.741   0.792   6.723 -1.7294  1.0420 -0.6925
 9866SOL     OW36837   0.786   0.036   0.282 -0.1184 -0.7184  0.7666
 9866SOL    HW136838   0.812   0.076   0.365 -0.2850  0.0299  0.4678
 9866SOL    HW236839   0.737  -0.042   0.308  0.0528 -0.6341  1.3670
 9867SOL     OW36840   0.709   0.304   2.479  0.1011 -0.0751 -0.1554
 9867SOL    HW136841   0.761   0.253   2.418 -1.5084 -1.6579 -0.2725
 9867SOL    HW236842   0.671   0.240   2.539 -0.4828  1.1769  0.8808
 9868SOL     OW36843   4.358  10.441   5.141  0.1958  0.1301 -0.2599
 9868SOL    HW136844   4.330  10.355   5.170  0.4027 -0.6993 -2.3577
 9868SOL    HW236845   4.433  10.424   5.083 -0.5490  1.5687 -1.7463
 9869SOL     OW36846   7.364  11.949   0.784  0.4008  0.2160  0.6660
 9869SOL    HW136847   7.421  11.906   0.720  0.2469 -0.0111  0.6785
 9869SOL    HW236848   7.277  11.946   0.744  0.4741  0.9776  0.4404
 9870SOL     OW36849  11.899   0.728   1.827 -0.1418  0.0183  0.4876
 9870SOL    HW136850  11.937   0.787   1.762 -1.1771  0.2905  0.0995
 9870SOL    HW236851  11.824   0.688   1.781 -0.2941 -0.5269  1.1995
 9871SOL     OW36852   5.492   5.682   1.369  0.4122 -0.1198 -0.3103
 9871SOL    HW136853   5.510   5.636   1.451  1.7980  1.8071  0.5615
 9871SOL    HW236854   5.399   5.668   1.353  0.3398 -1.3876  1.0416
 9872SOL     OW36855   1.845   9.777   9.907  0.0924 -0.0829  0.5220
 9872SOL    HW136856   1.768   9.747   9.859 -0.6551  0.1411  1.5426
 9872SOL    HW236857   1.850   9.871   9.890  0.5964 -0.2256 -0.1544
 9873SOL     OW36858   7.228  10.650  11.709 -0.5883 -0.1775 -0.3929
 9873SOL    HW136859   7.137  10.678  11.697 -0.7807 -0.6086  0.0312
 9873SOL    HW236860   7.231  10.619  11.799  0.2349  0.7600 -0.0812
 9874SOL     OW36861   9.656   9.372   3.394  0.2686  0.3147 -0.0642
 9874SOL    HW136862   9.731   9.413   3.436  0.2897 -0.0359  0.2493
 9874SOL    HW236863   9.686   9.353   3.305  0.2882  0.8843 -0.1822
 9875SOL     OW36864   8.494   0.661   8.205  0.5525 -0.4772  0.1586
 9875SOL    HW136865   8.460   0.574   8.186  0.6408 -0.3560 -0.5548
 9875SOL    HW236866   8.431   0.721   8.166 -0.4896 -0.1550  2.1875
 9876SOL     OW36867  10.179  10.841   8.012 -0.1078 -0.0566 -0.0682
 9876SOL    HW136868  10.191  10.929   7.978 -1.3341 -0.4333 -1.5982
 9876SOL    HW236869  10.216  10.784   7.945 -1.3073 -0.7643 -0.1628
 9877SOL     OW36870   0.029   0.775  11.865  0.7169 -0.3182  0.1384
 9877SOL    HW136871   0.009   0.681  11.867  0.4569 -0.2736 -0.2970
 9877SOL    HW236872   0.036   0.799  11.957  1.0598 -0.8220  0.2495
 9878SOL     OW36873   7.620   2.123   0.906  0.1370  0.0998  0.2181
 9878SOL    HW136874   7.669   2.101   0.985  0.6556 -3.0224 -0.8315
 9878SOL    HW236875   7.672   2.192   0.864  2.5551 -1.5675  0.2397
 9879SOL     OW36876   8.976   4.793   0.230 -0.1299 -0.2648 -0.0260
 9879SOL    HW136877   8.945   4.883   0.219 -0.7920 -0.4462  0.3369
 9879SOL    HW236878   8.929   4.760   0.306 -0.8707 -1.3304 -0.9042
 9880SOL     OW36879  10.611   7.553  11.189 -0.4401 -0.2391  0.2702
 9880SOL    HW136880  10.682   7.526  11.247 -0.8216 -0.2367  0.7433
 9880SOL    HW236881  10.571   7.629  11.233 -0.9300 -0.4283  0.1637
 9881SOL     OW36882   0.645   2.876  11.622 -0.4568 -0.3085  0.0892
 9881SOL    HW136883   0.621   2.793  11.580  0.2230 -0.6888  0.4205
 9881SOL    HW236884   0.622   2.943  11.558  1.0560 -0.9017 -1.1621
 9882SOL     OW36885  12.591  11.634   8.410  0.1030  0.1457 -0.1880
 9882SOL    HW136886  12.583  11.572   8.482  0.2254 -1.1589 -1.2363
 9882SOL    HW236887  12.507  11.629   8.364 -0.7728  2.5424  1.0168
 9883SOL     OW36888   3.266   7.686  11.045 -0.5760 -0.1967  0.0452
 9883SOL    HW136889   3.197   7.694  11.111 -1.0021  3.1945 -0.6411
 9883SOL    HW236890   3.228   7.725  10.966  1.8027  0.9903 -0.5918
 9884SOL     OW36891   1.732   4.125   6.728 -0.5132 -0.2111 -0.0094
 9884SOL    HW136892   1.793   4.062   6.767 -1.9219 -0.8328  1.3047
 9884SOL    HW236893   1.712   4.186   6.799  0.5724  1.5993 -1.1753
 9885SOL     OW36894  11.709   1.127  10.840  0.3696  0.0217 -0.0997
 9885SOL    HW136895  11.688   1.079  10.920 -0.3751 -1.1993 -0.9811
 9885SOL    HW236896  11.666   1.077  10.771  1.8080  0.4937 -1.3805
 9886SOL     OW36897   0.079   5.234  11.949  0.5349 -0.5828  0.5491
 9886SOL    HW136898   0.028   5.305  11.910  0.5047 -0.9533 -0.0959
 9886SOL    HW236899   0.130   5.277  12.018  1.4134  0.3109 -0.6050
 9887SOL     OW36900   0.539   4.397   8.730  0.0854  0.3912  0.3309
 9887SOL    HW136901   0.474   4.434   8.670  1.4905  0.0677 -1.4916
 9887SOL    HW236902   0.551   4.464   8.797 -1.3192  0.9072  0.0951
 9888SOL     OW36903   3.452   9.984   4.773  0.4567 -0.0003 -0.0219
 9888SOL    HW136904   3.375  10.006   4.826  0.1131 -0.8989 -0.1340
 9888SOL    HW236905   3.526   9.999   4.832  0.0902 -0.7512  0.6511
 9889SOL     OW36906   2.298   6.657   2.454  0.1022  0.0820  0.1926
 9889SOL    HW136907   2.274   6.698   2.537 -3.0580  0.5068 -0.7968
 9889SOL    HW236908   2.314   6.566   2.476 -1.6077 -0.0206  1.2156
 9890SOL     OW36909   6.884   5.784   2.153  0.2082  0.1609 -0.0876
 9890SOL    HW136910   6.862   5.800   2.061 -0.7880 -1.5077 -0.1996
 9890SOL    HW236911   6.919   5.695   2.154 -0.6296 -0.1952  1.2420
 9891SOL     OW36912   8.151  10.091   9.559  0.0717  0.5670  0.1523
 9891SOL    HW136913   8.152  10.086   9.464  1.0197  0.4564  0.1632
 9891SOL    HW236914   8.058  10.099   9.582 -0.0492  3.6705 -0.9406
 9892SOL     OW36915   8.272   6.613   3.242  0.3467 -0.2131 -0.1240
 9892SOL    HW136916   8.358   6.594   3.205 -0.0736 -1.0912 -0.6936
 9892SOL    HW236917   8.248   6.533   3.288 -0.4859 -0.2612 -0.6248
 9893SOL     OW36918   6.527   6.150  10.655 -0.3921  0.1938 -0.0906
 9893SOL    HW136919   6.622   6.158  10.658 -0.2702 -1.0093 -0.1324
 9893SOL    HW236920   6.500   6.149  10.747 -0.2904 -0.1709 -0.0643
 9894SOL     OW36921  12.208   2.240  11.983 -0.7269  0.0923 -0.0764
 9894SOL    HW136922  12.182   2.183  11.911  1.1198 -0.1298 -0.6318
 9894SOL    HW236923  12.188   2.190  12.062 -2.1783  0.0710 -0.4311
 9895SOL     OW36924   8.433   5.220   7.310  0.1214 -0.0483  0.1155
 9895SOL    HW136925   8.367   5.151   7.299  0.5904 -0.7593  1.5481
 9895SOL    HW236926   8.433   5.266   7.226 -1.4747 -0.6618 -0.2724
 9896SOL     OW36927  10.289   4.579   6.285 -0.2417  0.6159  0.0036
 9896SOL    HW136928  10.200   4.545   6.293 -0.1694  0.0524 -1.2564
 9896SOL    HW236929  10.328   4.566   6.371 -1.4681  1.1503  0.6581
 9897SOL     OW36930   1.464  11.794   0.652 -0.0193 -0.7255 -0.7339
 9897SOL    HW136931   1.541  11.770   0.600  1.5292 -1.7538  1.8697
 9897SOL    HW236932   1.451  11.720   0.711 -1.7676  0.3396  0.2823
 9898SOL     OW36933   2.051   6.334   4.917 -0.2145  0.3213 -0.1034
 9898SOL    HW136934   2.107   6.263   4.948 -0.2610  0.1666 -0.3695
 9898SOL    HW236935   2.077   6.409   4.970  1.0732  0.5512 -1.0002
 9899SOL     OW36936   9.413   2.156   1.824 -0.2589 -0.4695  0.5827
 9899SOL    HW136937   9.321   2.185   1.820 -1.1588 -3.1350  0.3476
 9899SOL    HW236938   9.457   2.207   1.756 -1.9328 -0.3579 -0.4836
 9900SOL     OW36939   8.116   6.986   0.837 -0.0771  0.0610  0.0305
 9900SOL    HW136940   8.054   6.914   0.841 -0.2499  0.2202  0.2185
 9900SOL    HW236941   8.082   7.052   0.898  0.9634 -0.3807  1.1404
 9901SOL     OW36942   5.713   7.692   9.333  0.3530  0.7463  0.1770
 9901SOL    HW136943   5.667   7.745   9.398  0.4804  0.5667  0.4158
 9901SOL    HW236944   5.688   7.730   9.249  0.9769  1.6121  0.3751
 9902SOL     OW36945   6.699  10.648   5.152  0.8071 -0.3164 -0.0902
 9902SOL    HW136946   6.604  10.647   5.165  0.8708 -2.0309  0.5044
 9902SOL    HW236947   6.710  10.664   5.059 -0.0707 -0.0650 -0.1646
 9903SOL     OW36948   9.168   5.464  12.107 -0.5038  0.0872 -0.6840
 9903SOL    HW136949   9.187   5.401  12.038 -1.4102  1.3806 -2.1774
 9903SOL    HW236950   9.078   5.492  12.091  0.0999  2.3179 -0.5840
 9904SOL     OW36951  10.849   9.837   7.830  0.0298 -0.1664  0.3760
 9904SOL    HW136952  10.799   9.914   7.857  0.0646  0.3447 -0.9516
 9904SOL    HW236953  10.784   9.767   7.824 -0.0538 -0.1790  1.2992
 9905SOL     OW36954  10.068  11.935   4.649  0.2556  0.1575  0.0103
 9905SOL    HW136955  10.077  12.018   4.603 -0.8244  0.2094 -0.1191
 9905SOL    HW236956  10.142  11.934   4.711  0.6617  0.9008 -0.4476
 9906SOL     OW36957  12.074  11.704   7.473  0.0392  0.2839  0.1243
 9906SOL    HW136958  11.986  11.701   7.511 -0.1532 -0.3945 -0.3626
 9906SOL    HW236959  12.132  11.677   7.543 -0.1131  0.9174  0.5067
 9907SOL     OW36960   1.288   0.349   4.347  0.3177 -0.0692 -0.0958
 9907SOL    HW136961   1.356   0.316   4.288 -0.4220 -1.2620 -0.3175
 9907SOL    HW236962   1.332   0.358   4.432  0.9427 -0.0596 -0.4167
 9908SOL     OW36963   6.790   7.231   6.926  0.1473 -0.1239  0.0753
 9908SOL    HW136964   6.698   7.217   6.904  0.1660 -1.1479  0.6053
 9908SOL    HW236965   6.827   7.276   6.850 -0.5813 -0.5117 -0.5143
 9909SOL     OW36966   2.803  10.076   7.967  0.7272 -0.2751  0.2394
 9909SOL    HW136967   2.773  10.073   7.877 -0.1930 -2.9363  0.5656
 9909SOL    HW236968   2.784  10.166   7.996  0.2744  0.3725 -1.9170
 9910SOL     OW36969   8.876   4.208   5.339  0.3977  0.2198 -0.3731
 9910SOL    HW136970   8.845   4.181   5.252  0.1472  2.3039 -0.9866
 9910SOL    HW236971   8.832   4.292   5.355  2.3900  1.1350  0.6277
 9911SOL     OW36972  11.877   3.115   8.897  0.8327  0.1736 -0.1560
 9911SOL    HW136973  11.811   3.091   8.961 -0.9714  0.6663 -1.7428
 9911SOL    HW236974  11.930   3.183   8.939  0.8350 -0.7677  1.4067
 9912SOL     OW36975   4.597  11.210   3.690 -1.1323  0.0009  0.1023
 9912SOL    HW136976   4.502  11.199   3.677 -0.8949 -1.8062 -0.3464
 9912SOL    HW236977   4.633  11.203   3.602 -0.5343  0.2669  0.3260
 9913SOL     OW36978   0.271   9.433  11.564  0.1837  0.1830 -0.2902
 9913SOL    HW136979   0.360   9.413  11.535  0.2336  1.9884 -1.5220
 9913SOL    HW236980   0.279   9.518  11.608 -0.5129 -0.8537  1.9809
 9914SOL     OW36981   5.543   2.431  10.761 -0.2971 -0.0937 -0.4160
 9914SOL    HW136982   5.624   2.380  10.755 -0.6183 -0.6154 -0.4453
 9914SOL    HW236983   5.572   2.521  10.770  0.3015 -0.3807  0.7437
 9915SOL     OW36984  11.001   1.970   9.652 -0.0078 -0.1491 -0.1335
 9915SOL    HW136985  11.067   2.025   9.610  0.1247  0.1874  0.4926
 9915SOL    HW236986  11.049   1.895   9.685 -0.0805 -0.3194 -0.4125
 9916SOL     OW36987   3.073   0.863   5.210  0.8376  0.2770 -0.1033
 9916SOL    HW136988   3.151   0.882   5.159  4.0453 -0.2073  4.1224
 9916SOL    HW236989   3.080   0.770   5.232 -1.2497  0.0927  0.0035
 9917SOL     OW36990   3.127  12.402   0.575  0.0695 -1.0734 -0.1326
 9917SOL    HW136991   3.194  12.364   0.632 -0.0718 -0.3164  0.5640
 9917SOL    HW236992   3.081  12.464   0.631  1.1177  1.0994 -1.5464
 9918SOL     OW36993   7.768   4.336   4.309  0.3331  0.2143  0.1376
 9918SOL    HW136994   7.773   4.364   4.400 -2.5957 -0.2388  0.5192
 9918SOL    HW236995   7.727   4.410   4.263  3.9382  1.4813 -1.4457
 9919SOL     OW36996   8.469   2.574   0.760  0.8061  0.3892 -0.2251
 9919SOL    HW136997   8.558   2.577   0.726  0.2390  0.0890 -1.7968
 9919SOL    HW236998   8.441   2.484   0.747  0.0205  0.6558 -0.4228
 9920SOL     OW36999   2.776   8.877   1.713 -0.1536 -0.0664  0.2623
 9920SOL    HW137000   2.714   8.807   1.729  0.4454 -0.4743  0.8884
 9920SOL    HW237001   2.815   8.856   1.628 -1.9326  1.0253 -0.8925
 9921SOL     OW37002   8.237  10.949   9.812  0.2272  0.6153 -0.3537
 9921SOL    HW137003   8.166  10.989   9.762 -1.3453  0.3101  1.5456
 9921SOL    HW237004   8.316  10.969   9.761 -1.0801  1.8049 -2.0186
 9922SOL     OW37005  12.430   3.598   5.783  0.3977  0.7195 -0.5093
 9922SOL    HW137006  12.433   3.503   5.781 -0.4797  0.6380  0.6079
 9922SOL    HW237007  12.442   3.620   5.876  0.7399  1.7068 -0.7709
 9923SOL     OW37008   5.761   3.032   8.890 -0.3694 -0.3260  0.2591
 9923SOL    HW137009   5.850   3.035   8.856 -0.3848 -0.4706  0.2034
 9923SOL    HW237010   5.771   3.005   8.982 -0.3618 -0.4572  0.2205
 9924SOL     OW37011   0.455   4.172   6.894  0.5264 -0.6258 -0.7712
 9924SOL    HW137012   0.508   4.201   6.820  0.8016 -1.3203 -0.8528
 9924SOL    HW237013   0.484   4.083   6.911  1.8082  0.1279  1.3945
 9925SOL     OW37014   5.971  12.441   9.822 -0.3177  0.0232 -0.6350
 9925SOL    HW137015   5.930  12.522   9.791 -0.5670 -0.6312 -2.0832
 9925SOL    HW237016   5.897  12.383   9.842 -0.1351  0.0096  0.0182
 9926SOL     OW37017   8.322  10.047   6.936 -0.0576 -0.2920  0.2692
 9926SOL    HW137018   8.409  10.084   6.927  0.0433 -0.5443  0.2097
 9926SOL    HW237019   8.329   9.988   7.012 -0.3156  0.0974  0.6017
 9927SOL     OW37020   6.722   0.123   4.390 -0.3449 -0.0288 -0.0419
 9927SOL    HW137021   6.800   0.169   4.358  1.2655 -3.0358 -0.8216
 9927SOL    HW237022   6.745   0.096   4.479 -0.1841 -1.4563 -0.4879
 9928SOL     OW37023   5.486  10.802   2.228  1.0569  0.1232  0.1084
 9928SOL    HW137024   5.573  10.834   2.251  0.7782  1.2218 -0.3060
 9928SOL    HW237025   5.454  10.864   2.163  0.2415 -0.6711 -0.2632
 9929SOL     OW37026   3.732   9.140  11.363 -0.2711 -0.3806  0.2131
 9929SOL    HW137027   3.766   9.217  11.319  2.6241 -0.9742  1.2001
 9929SOL    HW237028   3.765   9.066  11.312 -0.9707 -1.0129  0.6409
 9930SOL     OW37029  12.255   3.160   5.188  0.2166 -0.0346 -0.1305
 9930SOL    HW137030  12.215   3.167   5.275  0.5139 -0.2496  0.0222
 9930SOL    HW237031  12.254   3.067   5.169 -1.1840  0.1280 -0.9853
 9931SOL     OW37032   3.897   2.566   9.266  0.1764  0.7547 -0.1204
 9931SOL    HW137033   3.841   2.513   9.209  0.2179  0.3876  0.1780
 9931SOL    HW237034   3.941   2.502   9.323 -1.0595  1.2180  1.4011
 9932SOL     OW37035   1.050  11.403  10.368  0.3203  0.1532  0.0757
 9932SOL    HW137036   1.121  11.340  10.360  1.2139  0.9150  1.4841
 9932SOL    HW237037   1.093  11.488  10.364 -0.8311  0.7181 -1.5400
 9933SOL     OW37038  10.378   3.091   7.166  0.5665  0.9142 -0.5937
 9933SOL    HW137039  10.367   3.004   7.129  1.1739  0.8954 -0.7407
 9933SOL    HW237040  10.397   3.147   7.091 -0.2315  1.2554 -0.5512
 9934SOL     OW37041   7.005  11.489  11.887 -0.0596  0.2780 -0.4327
 9934SOL    HW137042   6.964  11.470  11.972 -0.0636 -1.2421 -0.7441
 9934SOL    HW237043   7.096  11.511  11.909  0.3459 -1.5746 -0.1076
 9935SOL     OW37044   5.956  10.439   1.500  0.4949  0.4681  0.3069
 9935SOL    HW137045   6.025  10.377   1.523  0.2070 -0.5044 -1.2675
 9935SOL    HW237046   5.883  10.384   1.472  0.2385  1.5029 -1.1524
 9936SOL     OW37047   2.350   0.879   5.228 -0.0665  0.1122  0.5164
 9936SOL    HW137048   2.420   0.856   5.289  0.0684  1.8006  1.0546
 9936SOL    HW237049   2.395   0.915   5.152 -0.2985 -0.3201  0.1725
 9937SOL     OW37050   0.131   6.593  10.091 -0.0878 -0.4972 -0.3567
 9937SOL    HW137051   0.041   6.619  10.074  0.0426  0.0408 -0.2628
 9937SOL    HW237052   0.165   6.564  10.006  0.0173  0.4584 -0.6501
 9938SOL     OW37053   6.350   4.224  11.919 -0.2827 -0.8984 -0.3088
 9938SOL    HW137054   6.300   4.189  11.992 -1.7647  3.1582  0.8765
 9938SOL    HW237055   6.285   4.270  11.866  1.4997  0.4742 -1.4007
 9939SOL     OW37056  10.297   3.992   7.385  0.4492 -0.5702  0.3229
 9939SOL    HW137057  10.278   4.034   7.301 -1.9175  0.7305  1.4078
 9939SOL    HW237058  10.238   3.917   7.388  1.8150 -1.7001  0.1228
 9940SOL     OW37059   5.406   4.502   6.661  0.6003 -0.4686  0.2964
 9940SOL    HW137060   5.496   4.501   6.629  0.8862  0.2341  1.0471
 9940SOL    HW237061   5.406   4.568   6.731 -0.9335  0.9030 -0.9321
 9941SOL     OW37062   0.525  11.393   9.153 -0.5294 -0.3434  0.1091
 9941SOL    HW137063   0.448  11.440   9.185  0.0004  0.5224  0.1183
 9941SOL    HW237064   0.600  11.446   9.181  0.1268 -1.6002  0.8209
 9942SOL     OW37065   1.352  10.253   0.356 -0.4074  0.0845  0.1663
 9942SOL    HW137066   1.309  10.169   0.370 -2.0861  0.8202 -0.3144
 9942SOL    HW237067   1.316  10.285   0.273  0.4574  1.1209  0.1636
 9943SOL     OW37068   3.533   9.807   7.705 -0.0958 -0.2817  0.3449
 9943SOL    HW137069   3.505   9.850   7.786 -0.0752 -0.6590  0.5533
 9943SOL    HW237070   3.452   9.785   7.660 -0.1083  0.7836 -0.2038
 9944SOL     OW37071   3.801   1.961   6.525 -0.4351 -0.0165  0.1339
 9944SOL    HW137072   3.864   2.033   6.520 -1.8192  1.2084 -0.6013
 9944SOL    HW237073   3.853   1.885   6.553  0.9162  1.4425  1.8247
 9945SOL     OW37074   6.141   0.995   4.851  0.4622  0.0706  0.1149
 9945SOL    HW137075   6.046   1.000   4.843  0.5183 -0.2885 -0.9366
 9945SOL    HW237076   6.171   0.967   4.764  1.2797 -2.7486  1.1716
 9946SOL     OW37077   5.215   4.052   1.036  0.1175 -0.1607  0.0439
 9946SOL    HW137078   5.194   4.096   0.954  0.4299  0.3359  0.2316
 9946SOL    HW237079   5.309   4.065   1.048  0.6087 -2.4122 -0.8123
 9947SOL     OW37080  11.420   4.294   9.396 -1.1192 -0.2598  0.6918
 9947SOL    HW137081  11.410   4.245   9.477  1.1507  0.5345  1.5206
 9947SOL    HW237082  11.468   4.235   9.337  1.0634  0.6211  1.4784
 9948SOL     OW37083   7.983   2.655   7.531 -0.2462 -0.1579 -0.2479
 9948SOL    HW137084   7.908   2.712   7.546 -0.9754 -0.9713 -0.6962
 9948SOL    HW237085   8.007   2.622   7.618 -0.8774 -0.4577 -0.1788
 9949SOL     OW37086   3.989   4.910  10.695  0.2993 -0.0070  0.0927
 9949SOL    HW137087   3.994   4.906  10.600 -0.1585 -1.5334  0.1060
 9949SOL    HW237088   4.069   4.866  10.725 -0.4463 -1.2323  0.3763
 9950SOL     OW37089  10.301   0.980   2.774 -0.6714 -0.0696  0.0716
 9950SOL    HW137090  10.318   0.890   2.800 -0.8244 -0.3630 -0.7993
 9950SOL    HW237091  10.342   0.988   2.688 -0.3196  0.8145  0.3146
 9951SOL     OW37092   8.352   5.305   0.356  0.0616 -0.2880  0.0210
 9951SOL    HW137093   8.322   5.289   0.267  2.2163  0.3188 -0.8589
 9951SOL    HW237094   8.444   5.279   0.357  0.2403  0.2089  1.9253
 9952SOL     OW37095   0.129   2.414   1.341  0.2509 -0.0933  1.0916
 9952SOL    HW137096   0.115   2.397   1.248  1.6941 -1.5938  1.0940
 9952SOL    HW237097   0.068   2.354   1.385 -1.6560  1.7984  1.1824
 9953SOL     OW37098   4.377   0.224  11.434  0.0396 -0.4741 -0.0708
 9953SOL    HW137099   4.290   0.215  11.472  0.4422  2.1868  1.7288
 9953SOL    HW237100   4.424   0.146  11.462 -1.0817 -0.8098  0.9565
 9954SOL     OW37101   5.358  11.732   2.625  0.4759 -0.2610  0.2935
 9954SOL    HW137102   5.305  11.718   2.703 -1.0999 -1.0716 -0.8846
 9954SOL    HW237103   5.308  11.793   2.572  0.8143 -0.8513 -0.7376
 9955SOL     OW37104   7.378   2.032  11.050 -0.7509 -0.0700  0.2729
 9955SOL    HW137105   7.324   1.955  11.033 -2.2064  1.3281 -1.9956
 9955SOL    HW237106   7.322   2.089  11.103  0.3658 -0.5434  2.0520
 9956SOL     OW37107   9.798  10.105   6.907 -0.0288  0.1155  0.1953
 9956SOL    HW137108   9.780  10.194   6.878 -1.0526 -0.7856 -2.2494
 9956SOL    HW237109   9.789  10.052   6.827  2.2381 -1.9765  1.1927
 9957SOL     OW37110   1.183   4.140   1.969 -0.1093  0.1796 -0.0422
 9957SOL    HW137111   1.199   4.111   2.059  0.2284 -0.5852 -0.3364
 9957SOL    HW237112   1.255   4.200   1.950  1.0798 -1.3165 -0.5092
 9958SOL     OW37113   2.760  12.408   4.562  0.7749  0.4599  0.8473
 9958SOL    HW137114   2.697  12.453   4.506  2.2096 -0.7927 -1.9835
 9958SOL    HW237115   2.709  12.343   4.609 -0.0080 -2.1187 -3.0649
 9959SOL     OW37116   7.183   5.206   1.069 -0.0297 -0.1186  0.2695
 9959SOL    HW137117   7.158   5.241   1.154 -0.6362 -1.1214  0.5181
 9959SOL    HW237118   7.138   5.263   1.006 -0.0179  0.2900  0.6238
 9960SOL     OW37119   0.971   0.344  11.734 -0.0122  0.5287  0.2907
 9960SOL    HW137120   0.900   0.360  11.797  0.9749  2.3460  1.0353
 9960SOL    HW237121   1.049   0.378  11.778  1.3786 -1.5242 -0.4605
 9961SOL     OW37122   2.847  10.581   8.158  0.0802  0.5090  0.3814
 9961SOL    HW137123   2.917  10.595   8.222 -1.8945  0.5532  2.6817
 9961SOL    HW237124   2.792  10.660   8.164 -0.2260  0.4762 -1.3494
 9962SOL     OW37125   0.892   8.793   2.640  0.6532  0.1374 -0.1849
 9962SOL    HW137126   0.892   8.744   2.558  0.5924 -0.5471  0.2144
 9962SOL    HW237127   0.948   8.869   2.623  0.0423  0.4066 -1.0873
 9963SOL     OW37128  11.860  10.814   8.076  0.4754  0.1159 -0.2369
 9963SOL    HW137129  11.892  10.899   8.045  0.8118 -0.4257 -1.4655
 9963SOL    HW237130  11.939  10.766   8.101  0.1892  0.6661  1.9333
 9964SOL     OW37131   3.092   9.459  11.541  0.1878 -0.5114  0.5002
 9964SOL    HW137132   3.026   9.408  11.494 -0.7242 -1.7376  2.9699
 9964SOL    HW237133   3.140   9.505  11.471 -1.8570 -1.2301 -1.5116
 9965SOL     OW37134   2.739   4.361   0.127 -0.2691 -0.0191  0.4891
 9965SOL    HW137135   2.673   4.413   0.172 -1.4018 -1.5018  0.5817
 9965SOL    HW237136   2.731   4.387   0.035 -1.1149 -0.3056  0.4738
 9966SOL     OW37137   4.946  12.370   4.270  0.0364 -0.1628  0.1614
 9966SOL    HW137138   4.968  12.313   4.344 -1.0260 -0.3592  0.3459
 9966SOL    HW237139   4.967  12.318   4.193  1.9866  0.3691  0.2844
 9967SOL     OW37140   6.671   3.395  11.735  0.3390 -0.4943 -0.3167
 9967SOL    HW137141   6.646   3.447  11.812  1.8476 -0.7598  0.3982
 9967SOL    HW237142   6.713   3.317  11.772 -0.5957 -1.5549 -1.4005
 9968SOL     OW37143  10.892   5.232   7.014 -0.8011  0.3739  0.4970
 9968SOL    HW137144  10.825   5.166   6.998 -1.3536  1.5393 -2.7582
 9968SOL    HW237145  10.850   5.295   7.072 -1.9076  0.1839 -0.0644
 9969SOL     OW37146   0.582   7.780   0.120 -0.4122 -0.1043 -0.5901
 9969SOL    HW137147   0.553   7.776   0.211  0.6842  1.2548 -0.1475
 9969SOL    HW237148   0.597   7.688   0.095  1.3064 -0.4037  1.3012
 9970SOL     OW37149   0.116   3.128   8.340 -0.3539 -0.1615  0.5010
 9970SOL    HW137150   0.083   3.196   8.281  0.2505 -0.6288 -0.3926
 9970SOL    HW237151   0.183   3.173   8.392 -2.0505  0.6942  2.0729
 9971SOL     OW37152  12.593   9.263   8.424  0.3532 -0.7281 -0.7982
 9971SOL    HW137153  12.551   9.177   8.416 -0.4117 -0.5277  0.7198
 9971SOL    HW237154  12.662   9.249   8.489  0.8976 -0.4282 -1.3136
 9972SOL     OW37155   1.507  11.887   9.402 -0.8514  0.0780  0.3771
 9972SOL    HW137156   1.458  11.962   9.435 -1.9665 -0.8134  0.8181
 9972SOL    HW237157   1.550  11.851   9.479 -2.9725 -1.6467  0.8501
 9973SOL     OW37158   5.411   6.410  11.109 -0.7562  0.2202  0.0008
 9973SOL    HW137159   5.346   6.372  11.050  1.1941 -0.7138 -1.7128
 9973SOL    HW237160   5.495   6.387  11.069  0.6415  1.4292  2.0490
 9974SOL     OW37161  11.436   5.829  11.530 -0.1856  0.1040  0.2007
 9974SOL    HW137162  11.341   5.824  11.542 -0.2849  1.0610 -0.1440
 9974SOL    HW237163  11.472   5.777  11.602 -0.9926 -1.2080 -0.3050
 9975SOL     OW37164  11.074   1.742   9.434  0.1242  0.4725  0.0750
 9975SOL    HW137165  11.053   1.757   9.342 -0.3710  3.2648  0.5520
 9975SOL    HW237166  11.152   1.795   9.450 -1.0394  1.8036  1.7175
 9976SOL     OW37167  12.452  11.018   5.348  0.8777 -0.0594 -0.9411
 9976SOL    HW137168  12.442  11.059   5.262  2.1291  1.1746 -0.5408
 9976SOL    HW237169  12.381  11.054   5.400  0.9511  0.3060 -1.0837
 9977SOL     OW37170   5.686   8.046   3.905 -0.2872 -0.1065 -0.1740
 9977SOL    HW137171   5.716   8.134   3.929 -3.0797  0.0546  3.5719
 9977SOL    HW237172   5.615   8.061   3.844  0.5707  0.0638 -1.1559
 9978SOL     OW37173   6.908   3.350  11.087 -0.3108 -0.0883  0.5531
 9978SOL    HW137174   6.932   3.396  11.006 -0.2391 -1.3765 -0.2010
 9978SOL    HW237175   6.969   3.383  11.152  0.5545 -0.0233 -0.2620
 9979SOL     OW37176   4.583   6.985   2.078  0.5319  0.4194  0.0093
 9979SOL    HW137177   4.668   7.025   2.058  1.4690 -0.9078  1.1238
 9979SOL    HW237178   4.567   6.926   2.005  1.0674 -0.0418  0.2507
 9980SOL     OW37179  11.336  11.394   3.486  0.6329 -0.2276 -0.2383
 9980SOL    HW137180  11.366  11.374   3.575 -2.1414  2.9002  1.6061
 9980SOL    HW237181  11.375  11.479   3.466 -0.5381  0.1222 -1.1271
 9981SOL     OW37182  10.184   3.316   6.110  0.2761 -0.5535 -0.0518
 9981SOL    HW137183  10.107   3.355   6.150  0.1984 -0.7931  0.0357
 9981SOL    HW237184  10.149   3.256   6.044  0.4074  0.4085 -1.0270
 9982SOL     OW37185  10.416   2.692   7.766 -0.4504  0.1503 -0.4844
 9982SOL    HW137186  10.431   2.762   7.704  1.0116  0.9651  0.7233
 9982SOL    HW237187  10.494   2.691   7.821 -1.1683 -1.3161  0.5885
 9983SOL     OW37188   4.533   2.553   5.530  0.4662  0.6188 -0.6965
 9983SOL    HW137189   4.477   2.505   5.469  0.7012 -0.6032  0.0174
 9983SOL    HW237190   4.606   2.493   5.547  2.0218  2.1732 -1.6114
 9984SOL     OW37191  11.737   9.463   8.852 -0.2833 -0.1743  0.3064
 9984SOL    HW137192  11.711   9.518   8.778  0.9152 -0.5423 -0.4151
 9984SOL    HW237193  11.759   9.524   8.922  0.0904  0.2409 -0.1677
 9985SOL     OW37194   2.295   5.813   9.764  0.2180 -0.2197 -0.7080
 9985SOL    HW137195   2.369   5.827   9.822 -1.0259  1.1520  0.6581
 9985SOL    HW237196   2.305   5.879   9.696  0.4745 -0.3277 -0.7766
 9986SOL     OW37197   8.135   2.119   7.973 -0.2397 -0.1873 -0.5311
 9986SOL    HW137198   8.202   2.103   7.906 -1.0903 -2.2555 -0.9768
 9986SOL    HW237199   8.181   2.106   8.056  0.2318 -0.1863 -0.7871
 9987SOL     OW37200   0.416   8.557   0.176 -0.0377  0.0783  0.0117
 9987SOL    HW137201   0.396   8.463   0.173 -2.0406  0.4629  0.0365
 9987SOL    HW237202   0.502   8.565   0.134 -0.3264 -1.6359 -0.9736
 9988SOL     OW37203  10.917   8.753   7.231 -0.1270  0.1591 -0.3066
 9988SOL    HW137204  10.880   8.667   7.212 -1.0999  0.6682 -0.8690
 9988SOL    HW237205  10.960   8.743   7.316  0.6695 -1.1285 -0.8382
 9989SOL     OW37206  10.361   2.474   2.247 -0.4382  0.2176 -0.7351
 9989SOL    HW137207  10.352   2.417   2.322 -0.7402  0.3456 -0.6724
 9989SOL    HW237208  10.435   2.532   2.269 -0.9445  0.6911 -0.2497
 9990SOL     OW37209  10.757   1.074   3.567 -0.3477 -0.9515  0.6873
 9990SOL    HW137210  10.706   1.088   3.488  1.6116 -1.7785 -0.8086
 9990SOL    HW237211  10.840   1.036   3.536  0.0884 -2.2962  3.2187
 9991SOL     OW37212   2.253   8.235   4.574 -0.3652 -0.3129 -0.8556
 9991SOL    HW137213   2.300   8.310   4.612  0.4038 -1.2072  0.0459
 9991SOL    HW237214   2.297   8.219   4.490  1.0044 -1.1131 -0.0397
 9992SOL     OW37215   0.470   4.615   2.874 -0.1403  0.4671  0.0733
 9992SOL    HW137216   0.431   4.680   2.933  0.0209  0.4139  0.2383
 9992SOL    HW237217   0.419   4.535   2.888 -1.2291  0.9086 -1.1115
 9993SOL     OW37218   6.112  12.409  10.577 -0.1418  0.4940  0.2018
 9993SOL    HW137219   6.052  12.457  10.633 -1.8589 -1.2340 -0.0483
 9993SOL    HW237220   6.064  12.398  10.494  1.0367  0.1884 -0.4671
 9994SOL     OW37221   9.737   4.466  11.168 -0.0236  0.1126  0.2160
 9994SOL    HW137222   9.756   4.505  11.253  0.6353 -0.2900  0.2660
 9994SOL    HW237223   9.817   4.418  11.146 -0.7503 -1.0990  0.1046
 9995SOL     OW37224   0.265   7.626  11.452 -0.0286  0.0202 -0.1065
 9995SOL    HW137225   0.199   7.654  11.516 -1.1658  2.0786 -2.0458
 9995SOL    HW237226   0.229   7.652  11.368  1.8053 -1.8260 -1.5617
 9996SOL     OW37227   1.263   0.210   3.230 -0.3233 -0.0809 -0.0235
 9996SOL    HW137228   1.193   0.147   3.246  0.1089 -0.3189  0.9954
 9996SOL    HW237229   1.218   0.294   3.224 -1.0320 -0.5319 -2.4154
 9997SOL     OW37230   8.081   9.247   4.302 -0.9646 -0.2906 -0.2318
 9997SOL    HW137231   8.011   9.189   4.273  0.4279 -1.2452 -1.9574
 9997SOL    HW237232   8.159   9.213   4.258  0.1729  2.0509 -0.1696
 9998SOL     OW37233   9.108  11.238   4.755  0.7869 -0.0871  0.2526
 9998SOL    HW137234   9.088  11.233   4.848 -3.0843  0.2625 -0.3990
 9998SOL    HW237235   9.131  11.148   4.731 -2.4602 -1.2311  0.8738
 9999SOL     OW37236  10.509  10.909   1.302  0.5056  0.4537 -0.6808
 9999SOL    HW137237  10.529  10.981   1.241  1.4833  2.0956  1.4511
 9999SOL    HW237238  10.443  10.945   1.361  0.1051 -0.8411 -0.3141
10000SOL     OW37239   3.920   7.070   6.348  1.1112  0.1563 -0.4176
10000SOL    HW137240   3.965   7.008   6.406 -0.4074 -2.0078 -1.3856
10000SOL    HW237241   3.990   7.115   6.301  2.3015  0.3529  1.4581
10001SOL     OW37242   9.366   9.811   3.586 -0.4482 -0.3162 -0.3948
10001SOL    HW137243   9.396   9.721   3.600  0.8724  0.2740  0.9090
10001SOL    HW237244   9.366   9.821   3.491  2.2279 -0.8398 -0.5511
10002SOL     OW37245   9.238  10.481  12.272 -0.1076 -0.0561  0.0025
10002SOL    HW137246   9.173  10.535  12.316  0.2186  0.1788  0.1982
10002SOL    HW237247   9.236  10.398  12.320  2.3539  1.1396  2.4845
10003SOL     OW37248   9.163   8.899  10.471 -0.4739 -0.2731  0.3933
10003SOL    HW137249   9.250   8.936  10.459 -0.5602 -0.0133  0.5552
10003SOL    HW237250   9.106   8.948  10.412 -0.6546  0.1087  0.8721
10004SOL     OW37251  12.352   8.793   2.671 -0.3626 -0.4251  0.2347
10004SOL    HW137252  12.318   8.788   2.760 -0.0409 -0.4362  0.3585
10004SOL    HW237253  12.391   8.707   2.655 -0.5367 -0.4697  0.0337
10005SOL     OW37254   3.453   5.465   8.801  0.1964  0.1384 -0.1588
10005SOL    HW137255   3.390   5.405   8.841 -1.2163  1.1226 -0.8018
10005SOL    HW237256   3.538   5.431   8.826 -0.4942 -2.6138 -1.1367
10006SOL     OW37257  11.144  10.286  11.218  0.1266  0.3460 -0.0335
10006SOL    HW137258  11.213  10.263  11.280  0.8680  0.2357 -0.8668
10006SOL    HW237259  11.111  10.202  11.187  0.7638  0.3862 -0.8521
10007SOL     OW37260   2.320   2.777   6.794  0.3843 -0.4808 -0.1640
10007SOL    HW137261   2.296   2.720   6.867  1.0476 -0.0948  0.3633
10007SOL    HW237262   2.263   2.854   6.803  2.0228  0.6414  1.3515
10008SOL     OW37263   9.178   0.830   9.722 -0.0007 -0.7313 -0.4846
10008SOL    HW137264   9.157   0.923   9.708  0.0036 -0.4726  1.0511
10008SOL    HW237265   9.093   0.787   9.724  0.0639 -1.2889 -4.1332
10009SOL     OW37266   7.747   2.330   2.715 -0.0635 -0.2816 -0.1132
10009SOL    HW137267   7.699   2.292   2.641  0.0421 -0.6413 -0.0035
10009SOL    HW237268   7.839   2.311   2.696 -0.0305 -0.3148  0.0727
10010SOL     OW37269   2.442  12.018   3.783  0.1794  0.2142  0.2975
10010SOL    HW137270   2.357  11.976   3.771  0.3275 -0.2981  0.9421
10010SOL    HW237271   2.481  11.972   3.858  0.7885  0.8132  0.3610
10011SOL     OW37272  10.093  11.382  10.645 -0.0312  0.1950 -0.1653
10011SOL    HW137273  10.070  11.419  10.559 -0.9224  1.1674  0.4566
10011SOL    HW237274  10.084  11.456  10.705 -1.1990 -0.8790  1.0428
10012SOL     OW37275  10.247   5.360  12.516  0.0874 -0.0516  0.5713
10012SOL    HW137276  10.216   5.448  12.496  2.1906  0.7911  0.8139
10012SOL    HW237277  10.226   5.309  12.437  0.7269  1.1908 -0.4419
10013SOL     OW37278   3.811   9.434   3.655 -0.3532 -0.0928  0.7633
10013SOL    HW137279   3.823   9.358   3.713  3.9156  0.0149  0.3225
10013SOL    HW237280   3.777   9.397   3.574 -0.3761 -1.1965  1.2548
10014SOL     OW37281   4.552   0.874  11.226 -0.6894  0.3369  0.3006
10014SOL    HW137282   4.608   0.798  11.214 -2.2236 -0.8000  0.0592
10014SOL    HW237283   4.498   0.852  11.302  0.2390  2.0860  1.5363
10015SOL     OW37284   2.440   5.928   0.382  0.5644  0.1960  0.4213
10015SOL    HW137285   2.519   5.889   0.419  0.8731  1.6958  1.4920
10015SOL    HW237286   2.401   5.976   0.456 -1.0439 -0.0359 -0.2286
10016SOL     OW37287   4.622   1.956  12.693 -0.4632 -0.1842  0.4960
10016SOL    HW137288   4.572   2.025  12.735 -0.9921 -0.9577  1.1639
10016SOL    HW237289   4.713   1.975  12.716 -0.5410  0.6127  0.1753
10017SOL     OW37290  10.481   3.933  11.269 -0.1727 -0.5625  0.2391
10017SOL    HW137291  10.433   3.854  11.247  0.7159 -0.8258 -0.8468
10017SOL    HW237292  10.446   4.000  11.211  0.0910 -0.5212  0.1253
10018SOL     OW37293   1.287  10.742  12.326 -0.3445  0.0741  0.1146
10018SOL    HW137294   1.255  10.803  12.392  1.3144  2.7446 -1.3498
10018SOL    HW237295   1.369  10.708  12.362 -1.9311 -2.5651  1.5361
10019SOL     OW37296  11.018  11.494   4.518  0.0185 -0.3336 -0.8689
10019SOL    HW137297  10.981  11.418   4.563  0.9896 -0.1821  0.2415
10019SOL    HW237298  11.106  11.465   4.491  0.9705  0.8241  0.8520
10020SOL     OW37299  10.705   8.561   7.077  0.0360  0.0012 -0.1685
10020SOL    HW137300  10.651   8.534   7.151  2.9917  1.4421  2.7543
10020SOL    HW237301  10.765   8.488   7.064  0.0881  0.1200 -0.6065
10021SOL     OW37302   0.116   6.559  12.162 -0.4472  0.0919 -0.9650
10021SOL    HW137303   0.189   6.528  12.109  1.2409 -0.3096  1.4156
10021SOL    HW237304   0.038   6.522  12.122  0.9198 -1.7611 -2.0127
10022SOL     OW37305   3.767   9.317   8.035 -0.3184  0.0547  0.0031
10022SOL    HW137306   3.706   9.336   8.106 -1.6307  1.4716 -1.4115
10022SOL    HW237307   3.734   9.369   7.961  2.2692  0.3870 -1.0035
10023SOL     OW37308   6.222  12.266   9.662  0.6251 -0.1533  0.0281
10023SOL    HW137309   6.316  12.250   9.650  0.2476 -0.8254 -2.8366
10023SOL    HW237310   6.210  12.357   9.633  0.3442 -0.2121 -0.0407
10024SOL     OW37311   7.908  12.350   4.719  0.6709 -0.0501 -0.2615
10024SOL    HW137312   7.913  12.376   4.811 -0.6647  1.9913 -0.7160
10024SOL    HW237313   7.992  12.378   4.682  0.6199  0.4859  0.0227
10025SOL     OW37314   6.710  10.528   8.869  0.7677  0.0887  1.0677
10025SOL    HW137315   6.702  10.611   8.915 -2.0358  1.3237 -1.3065
10025SOL    HW237316   6.750  10.551   8.785  0.2370 -0.9594  0.5019
10026SOL     OW37317   1.013  11.807   3.845  0.4851  0.0906 -0.2191
10026SOL    HW137318   1.093  11.792   3.795  0.6639  0.3537 -0.0157
10026SOL    HW237319   0.943  11.772   3.790  0.8454 -1.1121  0.0688
10027SOL     OW37320   8.387   6.663   6.536 -0.5570 -0.1722 -0.1519
10027SOL    HW137321   8.447   6.590   6.548  0.6834  0.6917 -0.8595
10027SOL    HW237322   8.367   6.662   6.442  0.4256  1.0822 -0.4018
10028SOL     OW37323  10.311  11.748   8.146 -0.1233  0.3318 -0.5653
10028SOL    HW137324  10.330  11.660   8.178 -3.3778 -0.8434 -1.5275
10028SOL    HW237325  10.382  11.802   8.181  1.1486 -2.3675  1.3348
10029SOL     OW37326   3.068   8.502   1.676  0.5018  0.1761 -0.4769
10029SOL    HW137327   3.100   8.436   1.614  0.8736 -0.2831  0.1926
10029SOL    HW237328   2.973   8.504   1.662  0.7262  1.2842 -2.2205
10030SOL     OW37329  11.727   7.822   5.484  0.0099 -0.2573  0.1690
10030SOL    HW137330  11.639   7.784   5.494  0.0280 -1.0402 -2.1404
10030SOL    HW237331  11.721   7.876   5.406  1.1275  1.2139  1.0676
10031SOL     OW37332   9.241  11.435   8.175  0.4278 -0.1760  0.2474
10031SOL    HW137333   9.200  11.443   8.262  1.7386  0.2020  0.8524
10031SOL    HW237334   9.216  11.516   8.130  0.6742  0.1510  0.6862
10032SOL     OW37335   3.033   6.364   9.010  0.2713 -0.8137 -0.4720
10032SOL    HW137336   3.124   6.392   8.998  0.3520 -1.3803 -1.3008
10032SOL    HW237337   3.003   6.346   8.921 -0.0275 -2.5458 -0.0553
10033SOL     OW37338   0.283   7.086   3.652  0.4998  0.0409 -0.2861
10033SOL    HW137339   0.252   7.024   3.585  2.0815  0.6961 -1.6848
10033SOL    HW237340   0.370   7.054   3.676  0.7345  0.9026  0.0388
10034SOL     OW37341   5.860   9.447   9.340  0.0375 -0.0003 -0.0332
10034SOL    HW137342   5.834   9.460   9.432 -0.0702  1.5548 -0.2464
10034SOL    HW237343   5.913   9.368   9.341 -0.6868 -0.5066  1.2271
10035SOL     OW37344   0.120   1.172   4.462 -0.0664 -0.0947  0.0742
10035SOL    HW137345   0.184   1.228   4.417  0.6785 -0.3406  0.8047
10035SOL    HW237346   0.066   1.137   4.392  0.7523 -0.0743 -0.5904
10036SOL     OW37347   6.869   9.921   9.572  0.3891 -0.3767 -0.3840
10036SOL    HW137348   6.836   9.850   9.516  1.2429 -2.0985  1.1883
10036SOL    HW237349   6.791   9.961   9.609 -0.1035 -0.4360 -1.3146
10037SOL     OW37350   7.366   4.546  12.365  0.5873  0.4482 -0.2800
10037SOL    HW137351   7.306   4.588  12.427  0.0130  0.3757 -0.7695
10037SOL    HW237352   7.410   4.478  12.415  0.1300  0.3885  0.0458
10038SOL     OW37353   9.338   9.039   9.912 -0.6653  0.9858 -0.2732
10038SOL    HW137354   9.243   9.037   9.906 -0.7265  0.1514  0.7284
10038SOL    HW237355   9.359   8.978   9.982  0.6524  0.5921 -0.9673
10039SOL     OW37356  11.390   4.412   2.396  0.5577  0.0199  0.0971
10039SOL    HW137357  11.425   4.447   2.314  2.2437  1.4477  1.3416
10039SOL    HW237358  11.302   4.449   2.403  0.2689 -0.3746 -1.1856
10040SOL     OW37359   7.692  10.214   2.114  0.0301 -0.7372 -0.1549
10040SOL    HW137360   7.632  10.253   2.051  1.0399  1.2394  0.0570
10040SOL    HW237361   7.665  10.250   2.199  0.7448 -0.7964  0.1044
10041SOL     OW37362   6.338   4.652   0.864 -0.0274 -0.1052  0.1145
10041SOL    HW137363   6.407   4.662   0.929  0.9963  1.7554 -1.1360
10041SOL    HW237364   6.327   4.740   0.827 -0.3888 -1.0913 -2.3424
10042SOL     OW37365   2.054  12.529  11.551 -0.0346 -0.4117  0.2954
10042SOL    HW137366   2.149  12.521  11.537  0.0577 -0.1159  0.7377
10042SOL    HW237367   2.039  12.624  11.551 -0.6951 -0.4296 -2.1952
10043SOL     OW37368   4.888  10.476   2.274 -0.0982 -0.0981 -0.3716
10043SOL    HW137369   4.927  10.470   2.361  1.0010  0.7507 -0.7817
10043SOL    HW237370   4.818  10.540   2.283  0.4337  0.4781 -0.2448
10044SOL     OW37371   4.114   4.825   2.525 -0.0614 -0.6419  0.0048
10044SOL    HW137372   4.193   4.874   2.503  1.3077 -2.5396  0.4953
10044SOL    HW237373   4.042   4.885   2.504  1.4503  0.7545 -1.4171
10045SOL     OW37374   1.956   9.408   1.882 -0.4317 -0.4656  0.1288
10045SOL    HW137375   1.976   9.447   1.967  0.7511 -0.7571 -0.0101
10045SOL    HW237376   2.036   9.362   1.856 -0.4653  0.3612 -1.5563
10046SOL     OW37377   3.703  10.445   1.986 -0.1809  0.8236 -0.2567
10046SOL    HW137378   3.613  10.478   1.986  0.6597  3.5248  1.8126
10046SOL    HW237379   3.751  10.508   1.931  0.5701 -0.2042 -0.7990
10047SOL     OW37380  12.520   0.851   1.159 -0.2965  0.5811  0.3370
10047SOL    HW137381  12.555   0.774   1.204 -0.3879 -0.3560 -1.1447
10047SOL    HW237382  12.584   0.920   1.177  0.4155 -0.1520  0.6835
10048SOL     OW37383  12.071   6.566   3.944 -0.4053  0.0582 -0.3442
10048SOL    HW137384  12.070   6.630   4.016  0.0642  0.3743 -0.6121
10048SOL    HW237385  12.162   6.568   3.913 -0.8616  0.7848 -1.7130
10049SOL     OW37386   1.081   5.302   0.711  0.5135 -0.2641  0.0520
10049SOL    HW137387   1.164   5.270   0.747  0.9520 -2.1886 -2.3821
10049SOL    HW237388   1.107   5.355   0.636 -0.4379  1.1382  0.6833
10050SOL     OW37389   3.512   6.391   4.274  0.3116 -0.1447  0.4590
10050SOL    HW137390   3.516   6.344   4.191 -0.2068 -0.6816  0.7364
10050SOL    HW237391   3.563   6.470   4.259 -0.2578  0.0411 -0.5566
10051SOL     OW37392   7.610  11.251   5.592  0.7363  0.2185  0.0018
10051SOL    HW137393   7.690  11.199   5.599  0.4400 -0.0960  1.4830
10051SOL    HW237394   7.615  11.312   5.666 -0.1752  0.5078 -0.1606
10052SOL     OW37395   9.664   8.659   6.172 -0.3489  0.4129 -0.2919
10052SOL    HW137396   9.594   8.700   6.121  0.1366  2.7589  0.7742
10052SOL    HW237397   9.659   8.566   6.150 -3.8775  0.4313 -0.1435
10053SOL     OW37398  11.151  12.292   2.394 -0.6623  0.1777 -0.1573
10053SOL    HW137399  11.080  12.343   2.433  0.3554  1.4646  0.1184
10053SOL    HW237400  11.227  12.350   2.400  0.1943 -0.7761 -1.3249
10054SOL     OW37401  10.592   7.999   9.388 -0.2866 -0.5261 -0.6638
10054SOL    HW137402  10.513   8.005   9.333 -1.1626 -1.0209  0.4866
10054SOL    HW237403  10.602   7.905   9.404  0.6842 -0.4798 -0.9846
10055SOL     OW37404  11.927   6.997   7.510  0.3752 -0.0274  0.1125
10055SOL    HW137405  11.836   7.025   7.514  0.1771 -0.6313 -0.0869
10055SOL    HW237406  11.977   7.078   7.511 -0.1089  0.2728  1.4894
10056SOL     OW37407   0.223   4.758   2.269  0.2883 -0.4157 -0.0642
10056SOL    HW137408   0.314   4.760   2.240  0.4125  0.6963  0.3405
10056SOL    HW237409   0.189   4.845   2.246 -0.0838 -0.0803  1.6089
10057SOL     OW37410   5.743   7.345   1.632  0.3840  0.0835  0.4255
10057SOL    HW137411   5.827   7.362   1.675  0.6880 -0.3933  0.0245
10057SOL    HW237412   5.725   7.424   1.581  1.2463 -0.3308 -0.5443
10058SOL     OW37413   6.284   2.265   1.170  0.0459 -0.3453 -0.1472
10058SOL    HW137414   6.282   2.287   1.263  0.3362 -0.0125 -0.2178
10058SOL    HW237415   6.236   2.336   1.127 -1.5245 -1.3323 -0.0987
10059SOL     OW37416   4.153   7.628   3.103 -0.5350  0.1214  0.6073
10059SOL    HW137417   4.111   7.617   3.018  0.0052 -1.1688  0.4802
10059SOL    HW237418   4.169   7.722   3.110 -0.1234  0.2020 -0.9586
10060SOL     OW37419  11.521  12.326   6.482  0.4309 -0.2268 -0.3227
10060SOL    HW137420  11.581  12.351   6.553  1.0467 -1.3262 -0.4298
10060SOL    HW237421  11.579  12.307   6.408 -0.1585  0.1517 -0.8888
10061SOL     OW37422  11.084   5.112  10.557 -0.5333  0.1838  0.2733
10061SOL    HW137423  11.143   5.083  10.628 -0.7633  0.2355  0.4889
10061SOL    HW237424  11.055   5.199  10.584 -0.7792  0.1216  0.2150
10062SOL     OW37425   8.164   0.943   8.799  0.3492  0.5733 -0.4678
10062SOL    HW137426   8.228   0.890   8.846 -0.1296 -0.2458 -0.7071
10062SOL    HW237427   8.211   1.022   8.773  0.6923  0.9171  1.1457
10063SOL     OW37428   9.308   6.146   3.186 -0.4687  0.0442  0.0513
10063SOL    HW137429   9.241   6.175   3.248 -1.7072 -1.5429 -0.4749
10063SOL    HW237430   9.315   6.052   3.201  1.1121  0.0584 -0.4502
10064SOL     OW37431   1.697   0.991   1.788 -0.0537 -0.1965 -0.2373
10064SOL    HW137432   1.669   0.993   1.696 -0.0387  1.7883 -0.2486
10064SOL    HW237433   1.785   1.027   1.786 -0.5872  1.2486  0.6832
10065SOL     OW37434   2.599   8.939   2.603  0.2687  0.0141  0.0979
10065SOL    HW137435   2.559   8.897   2.526 -0.9291  1.4946 -0.1265
10065SOL    HW237436   2.686   8.963   2.574 -0.0731  0.3004 -0.7192
10066SOL     OW37437   7.010   3.506   5.789  0.0310  0.5601  0.5875
10066SOL    HW137438   6.981   3.470   5.705  1.1453  0.3589  0.2609
10066SOL    HW237439   7.102   3.480   5.795  0.0651  0.8860  1.7099
10067SOL     OW37440  10.905  12.369   0.848  0.5648  0.0727  0.1149
10067SOL    HW137441  10.874  12.399   0.763  0.2472  1.0574  0.5548
10067SOL    HW237442  10.890  12.444   0.906  2.4350  0.0821  0.6597
10068SOL     OW37443   0.914   2.666   4.003 -0.0357 -0.2901  0.3666
10068SOL    HW137444   0.983   2.728   4.027 -1.3374  1.3159  0.0856
10068SOL    HW237445   0.835   2.719   3.997 -1.1645 -1.9577 -0.1018
10069SOL     OW37446  10.552   4.145   1.718  0.4533 -0.0111 -0.4864
10069SOL    HW137447  10.531   4.103   1.801  0.8749  0.9060  0.0997
10069SOL    HW237448  10.647   4.151   1.717  0.4026  1.0661 -0.4698
10070SOL     OW37449   1.319   8.505  10.176 -0.2080  0.5719  0.4632
10070SOL    HW137450   1.230   8.530  10.152 -0.2425  1.9215  1.8546
10070SOL    HW237451   1.353   8.580  10.225  2.3551  0.9125 -1.5639
10071SOL     OW37452   0.840  10.828  12.173  0.3245 -0.3151  0.2826
10071SOL    HW137453   0.868  10.741  12.201  1.1834  0.0393  0.5422
10071SOL    HW237454   0.886  10.888  12.230 -2.1023  0.2943  1.7428
10072SOL     OW37455   3.183   7.089   5.682 -0.0427  0.0044  0.3819
10072SOL    HW137456   3.227   7.074   5.766  0.7356 -0.3853 -0.0816
10072SOL    HW237457   3.212   7.176   5.655 -0.7598  0.3795  0.7857
10073SOL     OW37458   5.263   1.581  12.655  0.2794  0.3748 -0.2378
10073SOL    HW137459   5.259   1.676  12.644  2.2199  0.3232 -1.8790
10073SOL    HW237460   5.187   1.548  12.606 -1.2201  1.0681  1.4750
10074SOL     OW37461  10.790   3.819  10.674 -0.1638 -0.2028  0.4389
10074SOL    HW137462  10.854   3.757  10.640  0.0512  1.2522 -2.0956
10074SOL    HW237463  10.839   3.872  10.737  0.3457 -0.8787  0.6270
10075SOL     OW37464   3.676   0.707  10.466 -1.0084  0.2009 -0.2934
10075SOL    HW137465   3.587   0.740  10.464 -1.1145 -0.0588  0.0494
10075SOL    HW237466   3.667   0.611  10.467 -0.9836 -0.0476  5.0670
10076SOL     OW37467   9.460   8.780  12.069  0.4753 -0.4257 -0.3087
10076SOL    HW137468   9.469   8.719  12.142  0.6386  1.1426  1.0577
10076SOL    HW237469   9.403   8.849  12.103 -0.0031  0.0100 -1.9194
10077SOL     OW37470   9.103   4.032  12.536 -0.0302  0.1666  0.3659
10077SOL    HW137471   9.008   4.022  12.546  0.1519 -0.9981  1.1254
10077SOL    HW237472   9.140   3.993  12.615  1.1009  0.0033 -0.2219
10078SOL     OW37473  12.414  11.214   1.730 -0.1951  0.0631  0.1393
10078SOL    HW137474  12.330  11.228   1.686 -0.2296 -0.4712  0.0376
10078SOL    HW237475  12.402  11.136   1.783  0.9458 -1.4438 -1.6966
10079SOL     OW37476   8.079   4.052  11.359 -0.3515 -0.0007  0.5665
10079SOL    HW137477   8.084   3.972  11.306  0.7974  1.3100 -1.4371
10079SOL    HW237478   7.988   4.055  11.388 -0.6448 -1.5593 -0.0564
10080SOL     OW37479   0.366   3.122   5.402  0.3028  0.1326  0.6845
10080SOL    HW137480   0.384   3.034   5.367 -2.0551  0.0307 -0.4627
10080SOL    HW237481   0.301   3.108   5.471  0.2635  0.9232  0.8171
10081SOL     OW37482   7.710   1.509   4.092  0.3124  0.1186 -0.1383
10081SOL    HW137483   7.699   1.431   4.039  0.2289  0.7061 -1.0134
10081SOL    HW237484   7.705   1.478   4.183 -3.0194 -0.4635 -0.4023
10082SOL     OW37485   2.726   9.964  10.931 -0.1288  1.0036  0.2105
10082SOL    HW137486   2.707   9.882  10.976  0.3147  1.2912  0.9527
10082SOL    HW237487   2.693   9.952  10.842 -0.9826  0.3962  0.5949
10083SOL     OW37488   7.123   8.138   9.880  0.4137  0.0716 -0.1608
10083SOL    HW137489   7.129   8.123   9.974 -1.3291 -0.1957 -0.0592
10083SOL    HW237490   7.195   8.087   9.843  1.3082  0.4325  1.0463
10084SOL     OW37491   0.472   2.057   6.380 -0.1643  0.1387  0.1745
10084SOL    HW137492   0.487   2.070   6.286  0.3146  1.0305  0.3679
10084SOL    HW237493   0.378   2.040   6.387  0.0430 -1.5670 -0.6348
10085SOL     OW37494  10.644   6.577   8.490 -0.2054 -0.0450  0.3409
10085SOL    HW137495  10.729   6.543   8.461  0.0774  0.0765  1.0069
10085SOL    HW237496  10.617   6.517   8.561 -0.8875 -0.3439 -0.1544
10086SOL     OW37497  12.656   1.715  12.009  0.3941  0.0037  0.2234
10086SOL    HW137498  12.712   1.731  11.933  0.0070  0.7504  0.0845
10086SOL    HW237499  12.700   1.645  12.057  1.5439  0.6924  0.2062
10087SOL     OW37500   9.470   4.276  10.057 -0.8250  0.2044 -0.3459
10087SOL    HW137501   9.449   4.301  10.147  0.7654  2.5942 -0.5309
10087SOL    HW237502   9.496   4.184  10.062 -1.7577  0.0002  1.4333
10088SOL     OW37503   2.693  10.001   9.401  0.5090  0.0588 -0.4251
10088SOL    HW137504   2.692   9.935   9.470  2.3742 -1.2204 -1.5188
10088SOL    HW237505   2.620  10.058   9.421 -0.7699 -1.9395  0.9773
10089SOL     OW37506   5.886   6.874   6.842 -0.2840  0.3160 -0.1211
10089SOL    HW137507   5.846   6.831   6.918  0.0247 -0.6352 -0.4750
10089SOL    HW237508   5.843   6.959   6.837 -3.6497 -1.2888 -1.5655
10090SOL     OW37509  11.124   5.810  10.232  0.0361 -0.1283 -0.0738
10090SOL    HW137510  11.150   5.864  10.158 -1.1460  0.2395 -0.2483
10090SOL    HW237511  11.205   5.791  10.279  0.8555 -0.6391 -1.6313
10091SOL     OW37512   1.546   9.910   6.290 -0.2628  0.2024 -0.1813
10091SOL    HW137513   1.498   9.993   6.285 -0.1167  0.2377 -1.0516
10091SOL    HW237514   1.486   9.851   6.337 -0.1869  0.9149  0.8378
10092SOL     OW37515   9.724   8.997  10.195 -0.4684  0.1782  0.3543
10092SOL    HW137516   9.704   8.962  10.108  0.3438  2.8831 -1.0302
10092SOL    HW237517   9.646   8.981  10.247 -1.4477 -0.4027 -1.2544
10093SOL     OW37518   9.540   8.049   0.783 -0.8366 -0.2223 -0.2828
10093SOL    HW137519   9.509   8.009   0.864 -0.1436  0.6212  0.4110
10093SOL    HW237520   9.499   7.997   0.714 -4.4680  1.2224  0.5444
10094SOL     OW37521   3.379  11.651   2.628  0.4710  0.1770  0.3624
10094SOL    HW137522   3.319  11.657   2.554 -0.2602  1.3655  1.0162
10094SOL    HW237523   3.466  11.662   2.590  0.2354 -0.7220 -0.4888
10095SOL     OW37524   8.757  11.569   5.646 -0.3502  0.2251  1.0511
10095SOL    HW137525   8.695  11.502   5.676 -0.5534  0.3521  0.9237
10095SOL    HW237526   8.842  11.537   5.673 -0.4339 -0.1544  0.8701
10096SOL     OW37527   2.555   9.265   5.504  0.2040  0.4996 -0.0268
10096SOL    HW137528   2.565   9.231   5.415 -0.4366 -0.0452  0.1028
10096SOL    HW237529   2.512   9.195   5.552  0.8526  0.6590  0.8066
10097SOL     OW37530   3.889   4.427  11.418 -0.4332  0.3868  0.2707
10097SOL    HW137531   3.964   4.372  11.392 -0.4017 -0.2573  1.6286
10097SOL    HW237532   3.825   4.365  11.451 -0.3810  1.1591  1.8858
10098SOL     OW37533   9.621  10.810   0.596 -0.3172 -0.0466 -0.1305
10098SOL    HW137534   9.711  10.805   0.562  0.2483 -1.4776  1.4103
10098SOL    HW237535   9.632  10.822   0.690 -1.7504  0.0436  0.0447
10099SOL     OW37536  10.888   5.755  11.561  0.1186 -0.0175  0.0582
10099SOL    HW137537  10.876   5.779  11.469  0.0556  1.1067  0.3399
10099SOL    HW237538  10.834   5.818  11.609  1.5157  0.5233  0.9634
10100SOL     OW37539   7.076   1.797   5.996 -0.5195 -0.2219  0.2595
10100SOL    HW137540   7.088   1.850   6.074  0.7190 -0.2108  0.0705
10100SOL    HW237541   7.023   1.722   6.026  1.6460 -1.3015  1.6213
10101SOL     OW37542   8.397   9.153   9.378  0.3675  0.0510  0.3531
10101SOL    HW137543   8.431   9.242   9.381 -0.0696  0.2415 -0.2041
10101SOL    HW237544   8.474   9.097   9.386  0.4892  0.4601  2.5313
10102SOL     OW37545  11.111  10.957  10.238  0.0344 -0.1362  0.1961
10102SOL    HW137546  11.131  10.981  10.329  1.3899 -0.7299  0.0816
10102SOL    HW237547  11.028  11.000  10.220 -2.0668 -2.6750  2.7901
10103SOL     OW37548   4.361   4.220   7.714 -0.0774  0.1730 -0.7374
10103SOL    HW137549   4.384   4.297   7.766  0.6324  0.0359 -0.8373
10103SOL    HW237550   4.441   4.200   7.665 -0.4687 -0.2166 -1.2314
10104SOL     OW37551  10.225   7.991   6.975  0.2722 -0.5050  0.6097
10104SOL    HW137552  10.290   8.052   7.011 -1.1293  1.1488  0.4404
10104SOL    HW237553  10.198   8.031   6.892 -1.8176 -0.5180  1.2337
10105SOL     OW37554   9.842  11.717   3.971 -0.6046 -0.2468  0.4481
10105SOL    HW137555   9.788  11.794   3.955 -0.9241 -0.5854 -0.1217
10105SOL    HW237556   9.794  11.668   4.037 -0.9609 -0.5031  0.0079
10106SOL     OW37557   9.908  11.339   4.968 -0.4578 -0.1394 -0.2887
10106SOL    HW137558   9.848  11.390   5.023  1.0161  0.6484  0.6382
10106SOL    HW237559   9.984  11.322   5.024  0.3910 -0.7353 -1.5691
10107SOL     OW37560   3.028   7.918   9.610  0.6194 -0.6013 -0.3749
10107SOL    HW137561   2.935   7.938   9.598  1.3024  1.6097 -3.0225
10107SOL    HW237562   3.067   8.001   9.634  2.2030 -1.0272 -1.3621
10108SOL     OW37563  10.877   0.647   5.868  0.0256 -0.3516 -0.2980
10108SOL    HW137564  10.916   0.637   5.955  1.1092  1.4521 -0.5104
10108SOL    HW237565  10.846   0.560   5.844  0.6953 -1.0947  1.4350
10109SOL     OW37566   3.244   4.082   8.972  0.1329 -0.2481  0.0896
10109SOL    HW137567   3.259   4.039   9.056 -2.9233  1.1155  1.4619
10109SOL    HW237568   3.251   4.011   8.908  0.8170 -1.6611  1.6241
10110SOL     OW37569   8.896   9.073   5.245  0.9359 -0.0159 -0.2661
10110SOL    HW137570   8.905   9.068   5.340 -0.1031 -0.9488 -0.1872
10110SOL    HW237571   8.840   8.998   5.223 -1.2311  1.7791 -1.2800
10111SOL     OW37572   3.872   1.189  12.644  0.0351 -0.6951 -0.1263
10111SOL    HW137573   3.822   1.111  12.666 -3.1758  1.3732  0.7202
10111SOL    HW237574   3.867   1.243  12.723  2.4917  0.2512 -0.5377
10112SOL     OW37575   1.126   6.186   9.861  0.1544 -0.4342  0.5365
10112SOL    HW137576   1.048   6.169   9.809  0.0944 -0.6304  0.6905
10112SOL    HW237577   1.181   6.241   9.805  0.2164 -0.8760  0.1537
10113SOL     OW37578  12.699   3.576   8.103 -0.2539 -0.1936  1.0185
10113SOL    HW137579  12.757   3.609   8.034 -3.8530  1.4464 -1.5038
10113SOL    HW237580  12.672   3.489   8.072 -2.0565  0.6395  0.1018
10114SOL     OW37581   4.004   3.991  11.728 -0.3280  0.0881 -0.5320
10114SOL    HW137582   4.025   4.011  11.636 -0.0316  0.6051 -0.3558
10114SOL    HW237583   3.950   3.912  11.723  1.3656 -1.1050 -1.0375
10115SOL     OW37584   2.468   9.008  10.061 -0.2346  0.2484  0.4167
10115SOL    HW137585   2.555   8.970  10.065  0.5539  2.0464  2.1514
10115SOL    HW237586   2.470   9.067   9.985  0.2740  0.6931  0.7640
10116SOL     OW37587   3.288   6.974  12.155  0.1446 -0.1733 -0.2913
10116SOL    HW137588   3.226   6.907  12.184  0.4458 -0.5595 -0.5476
10116SOL    HW237589   3.365   6.926  12.126  0.5568  0.3093 -0.0026
10117SOL     OW37590  11.396  11.062   7.127 -0.1610  0.5478 -0.3523
10117SOL    HW137591  11.415  11.127   7.195 -0.3833  0.8051 -0.5352
10117SOL    HW237592  11.446  10.985   7.154 -2.2959 -0.2919  1.6078
10118SOL     OW37593  10.732  11.931   2.789  0.4628  0.0401 -0.6023
10118SOL    HW137594  10.792  11.999   2.758  0.5905 -0.2216 -0.9348
10118SOL    HW237595  10.772  11.898   2.869  1.8120 -1.5068 -1.8536
10119SOL     OW37596   8.547   8.035   3.453  0.3215 -0.0327  0.4762
10119SOL    HW137597   8.560   7.990   3.370  0.5673  1.0161 -0.0829
10119SOL    HW237598   8.595   8.118   3.443 -0.5857  0.6126  1.2285
10120SOL     OW37599   4.251   7.313  10.572 -0.2189 -0.5131 -0.3498
10120SOL    HW137600   4.342   7.333  10.591 -0.7943  2.5030 -0.3254
10120SOL    HW237601   4.201   7.356  10.642 -1.7060 -1.3630 -0.8332
10121SOL     OW37602  12.188   7.476  12.324  0.1636  0.0101 -0.1643
10121SOL    HW137603  12.218   7.566  12.313 -0.4195  0.1408 -0.6974
10121SOL    HW237604  12.267   7.428  12.351  0.3866  0.7568  0.5752
10122SOL     OW37605  11.725   4.478   4.921 -0.2118  0.1777 -0.1351
10122SOL    HW137606  11.768   4.535   4.857 -0.8067  0.1449 -0.5723
10122SOL    HW237607  11.751   4.514   5.006 -0.2011  0.8193 -0.4030
10123SOL     OW37608   2.837   8.027   2.257  0.0511 -0.3435  0.0139
10123SOL    HW137609   2.911   8.016   2.317  1.6398  2.8379 -1.0995
10123SOL    HW237610   2.775   8.081   2.306 -1.1121 -2.0828  0.5438
10124SOL     OW37611   6.193   5.950  11.784  0.2111 -0.2164 -0.7641
10124SOL    HW137612   6.196   5.912  11.697 -1.0631  2.7306 -2.2468
10124SOL    HW237613   6.283   5.981  11.800  0.2027  0.2352 -1.5557
10125SOL     OW37614   9.246   0.559  12.637 -0.3183  0.4097 -0.2614
10125SOL    HW137615   9.271   0.471  12.666  0.0584 -0.0432 -1.8450
10125SOL    HW237616   9.309   0.581  12.569 -2.0939  0.6990 -1.9073
10126SOL     OW37617  11.118  11.282  10.104 -0.3830  0.4207 -0.4052
10126SOL    HW137618  11.164  11.206  10.069  0.7808  1.3682 -1.0250
10126SOL    HW237619  11.055  11.306  10.036 -0.4762  0.2548 -0.3778
10127SOL     OW37620   6.309  12.204   9.077  0.0097  0.3679  0.3646
10127SOL    HW137621   6.368  12.236   9.009 -1.7017  1.6924 -0.5850
10127SOL    HW237622   6.239  12.269   9.081 -1.7589 -1.4517  0.9325
10128SOL     OW37623   0.583   1.447   9.517  0.1650  0.1642  0.0348
10128SOL    HW137624   0.580   1.355   9.543  1.0676  0.1379  0.1049
10128SOL    HW237625   0.615   1.445   9.427  0.7868  0.4218  0.2381
10129SOL     OW37626  11.340   4.942   0.922 -0.0878  0.9269 -0.3348
10129SOL    HW137627  11.261   4.906   0.882  0.5238 -0.6684 -0.1813
10129SOL    HW237628  11.331   4.923   1.015  0.3110  1.0423 -0.2692
10130SOL     OW37629   9.418  10.967  10.785 -0.1988 -0.4626  0.0067
10130SOL    HW137630   9.416  11.037  10.720 -0.1244  0.4765  1.0019
10130SOL    HW237631   9.331  10.969  10.826  0.3706  0.2152  1.2360
10131SOL     OW37632   9.802   4.456   1.560 -0.3358 -0.4063 -0.2525
10131SOL    HW137633   9.790   4.431   1.469 -1.0056  1.3994 -0.6970
10131SOL    HW237634   9.720   4.497   1.586  0.7467  1.5430  0.3048
10132SOL     OW37635   5.877   1.020   4.825  0.0998  0.1520 -0.1452
10132SOL    HW137636   5.846   0.929   4.819 -2.2563  0.7857  1.1846
10132SOL    HW237637   5.821   1.060   4.891  2.9673  1.8731  1.4373
10133SOL     OW37638   3.954  11.327   6.908  0.2513  0.2268 -0.2144
10133SOL    HW137639   3.911  11.261   6.962  1.5985  0.9166  1.8272
10133SOL    HW237640   3.888  11.351   6.843 -0.8233 -1.9282 -0.0254
10134SOL     OW37641  11.611   6.767  10.853 -0.4817  0.0218 -0.3659
10134SOL    HW137642  11.612   6.672  10.870 -0.0381 -0.1901 -1.4424
10134SOL    HW237643  11.632   6.774  10.760  2.2458  1.3134  0.2689
10135SOL     OW37644   8.537   3.843  12.238 -0.2165  0.1029 -0.2477
10135SOL    HW137645   8.529   3.929  12.278 -1.5841  0.1309 -0.5142
10135SOL    HW237646   8.449   3.806  12.243  0.0942 -0.8243 -1.1373
10136SOL     OW37647   1.719  10.951  10.123 -0.3795 -0.4580  0.0992
10136SOL    HW137648   1.803  10.960  10.078 -0.0810 -1.2001  0.4878
10136SOL    HW237649   1.661  11.014  10.079 -0.3476 -1.7440 -1.9195
10137SOL     OW37650   3.081   8.497   9.863 -0.6725 -0.2902  0.1570
10137SOL    HW137651   3.090   8.404   9.840 -1.2203 -0.4203  0.4438
10137SOL    HW237652   3.170   8.532   9.858 -0.4517 -0.8484  0.1160
10138SOL     OW37653  10.935  10.312   2.152  0.2914 -0.3792 -0.4649
10138SOL    HW137654  10.899  10.224   2.161  0.5692 -0.3873  0.6400
10138SOL    HW237655  10.880  10.366   2.209  1.6452 -0.2912  0.7959
10139SOL     OW37656  10.870   1.619   2.869  0.0419 -0.3391  0.1856
10139SOL    HW137657  10.891   1.583   2.955  1.4039 -0.6970 -0.2757
10139SOL    HW237658  10.898   1.551   2.807  1.1795  0.8353 -0.6297
10140SOL     OW37659   6.088  11.674   8.028 -0.1610  0.2543  0.5002
10140SOL    HW137660   6.161  11.687   7.967  1.2388 -2.2702  1.5098
10140SOL    HW237661   6.098  11.744   8.093  0.5487  0.7401 -0.1227
10141SOL     OW37662   8.651   0.114  11.571  0.4514 -0.1877 -0.3553
10141SOL    HW137663   8.619   0.205  11.577  1.0507  0.0766 -1.1147
10141SOL    HW237664   8.579   0.062  11.606  0.2685  0.6106  0.5051
10142SOL     OW37665   5.873   0.796   0.368  0.0840  0.1200  0.0790
10142SOL    HW137666   5.818   0.742   0.312  1.5994 -0.8216 -0.5737
10142SOL    HW237667   5.906   0.735   0.434  2.2706  0.0484 -1.0015
10143SOL     OW37668   9.743   5.696   6.867  0.2893 -0.0865  0.2628
10143SOL    HW137669   9.717   5.611   6.902  1.4217 -0.5242  0.0997
10143SOL    HW237670   9.731   5.688   6.773  0.2984 -0.0319  0.2571
10144SOL     OW37671   9.133  12.340   5.046 -0.4951 -0.0280 -0.4715
10144SOL    HW137672   9.151  12.425   5.085 -1.3516 -0.1450  0.1927
10144SOL    HW237673   9.200  12.282   5.083 -0.3423  0.1994 -0.3905
10145SOL     OW37674   3.796   1.111   2.209  0.3750 -0.2681 -0.3272
10145SOL    HW137675   3.725   1.059   2.171 -0.0257  0.2065 -0.2371
10145SOL    HW237676   3.876   1.062   2.187  0.1113 -0.2707 -1.3266
10146SOL     OW37677   1.521   9.351  12.349  0.5002  0.2046 -0.1320
10146SOL    HW137678   1.463   9.344  12.424  1.0898  1.2243  0.4421
10146SOL    HW237679   1.538   9.445  12.340  0.7158  0.0692 -1.3280
10147SOL     OW37680   1.771   4.505  10.343  0.1172  0.0866  0.9032
10147SOL    HW137681   1.680   4.535  10.335 -0.1251 -0.9206 -0.4052
10147SOL    HW237682   1.821   4.567  10.289  0.0132 -0.1416  0.5399
10148SOL     OW37683   6.223   1.883  11.945 -0.5805 -0.1101 -0.0562
10148SOL    HW137684   6.269   1.918  11.869 -1.2285 -1.1591 -0.9681
10148SOL    HW237685   6.136   1.923  11.940  0.0424  1.5682  1.4425
10149SOL     OW37686   1.060   5.729   3.138 -0.1037 -0.3274 -0.2879
10149SOL    HW137687   1.134   5.788   3.152 -1.2521  1.3765 -1.1418
10149SOL    HW237688   1.062   5.670   3.214  0.9530  0.9490  0.7144
10150SOL     OW37689   9.606   6.367   9.877 -0.0280 -0.2284 -0.8255
10150SOL    HW137690   9.621   6.367   9.782 -1.7543  2.4079 -1.1846
10150SOL    HW237691   9.517   6.333   9.887 -0.3145  0.6701 -0.2715
10151SOL     OW37692   6.983   6.515   2.281 -0.6749  0.3710 -0.2524
10151SOL    HW137693   6.933   6.583   2.327 -0.4251 -0.2992  1.0525
10151SOL    HW237694   7.060   6.501   2.337  1.4020  1.8695 -2.5120
10152SOL     OW37695  12.510   2.766   8.965  0.2627 -0.2573  0.4302
10152SOL    HW137696  12.585   2.715   8.995  0.2216 -0.4079  0.2774
10152SOL    HW237697  12.439   2.742   9.024 -0.2102 -1.6372 -0.6311
10153SOL     OW37698   1.337  12.466  12.044 -0.3884  0.1114  0.0388
10153SOL    HW137699   1.399  12.537  12.030 -2.2556  1.5376 -1.5614
10153SOL    HW237700   1.320  12.466  12.138  0.5438  0.9681  0.2209
10154SOL     OW37701   9.661   9.914   6.383 -0.2913 -0.1024  0.0724
10154SOL    HW137702   9.661   9.868   6.299  1.1871 -1.0908  0.5682
10154SOL    HW237703   9.706   9.997   6.366  1.0286 -0.7814  0.0799
10155SOL     OW37704  12.642   2.035   7.186 -0.0145 -0.1458 -0.0260
10155SOL    HW137705  12.570   2.005   7.131 -0.4143  0.7507 -0.0108
10155SOL    HW237706  12.634   1.984   7.267 -1.8906  1.3249  0.7987
10156SOL     OW37707  12.411   8.928  11.217  0.4945  0.0104  0.1276
10156SOL    HW137708  12.444   8.943  11.306 -0.5130 -1.6906  0.8387
10156SOL    HW237709  12.396   9.016  11.182  1.5324  0.7344  1.3771
10157SOL     OW37710   5.238   2.520   2.398 -0.0989  0.4891  0.1868
10157SOL    HW137711   5.148   2.497   2.375  0.4181 -1.9724  0.4155
10157SOL    HW237712   5.291   2.477   2.331  1.0301 -0.3570  1.5832
10158SOL     OW37713   5.322   9.683  12.136 -0.3853  0.9426 -0.6785
10158SOL    HW137714   5.271   9.613  12.176  2.8362  0.0148  2.3724
10158SOL    HW237715   5.258   9.752  12.118 -3.0825 -1.1875  0.0862
10159SOL     OW37716   2.179   6.649   2.212 -0.0304 -0.1329  0.1557
10159SOL    HW137717   2.237   6.650   2.287  1.8765  1.4112 -1.2221
10159SOL    HW237718   2.173   6.741   2.185 -1.4365 -0.5228 -1.0182
10160SOL     OW37719  10.442   4.983   9.536 -0.4863  0.6204  0.3941
10160SOL    HW137720  10.354   4.988   9.573 -1.7685 -0.5016 -2.2283
10160SOL    HW237721  10.486   4.917   9.589 -2.0898 -0.6267  0.2580
10161SOL     OW37722   4.435   9.430   4.765  0.5759 -0.3083 -0.1543
10161SOL    HW137723   4.407   9.357   4.820 -3.2081 -0.0328 -1.4318
10161SOL    HW237724   4.531   9.422   4.762  0.5863 -3.0534  2.5886
10162SOL     OW37725   2.712   0.668   4.659 -0.5446  0.0524 -0.5719
10162SOL    HW137726   2.701   0.744   4.716  3.4177  0.3666  0.0366
10162SOL    HW237727   2.763   0.700   4.585 -0.3372 -1.6479 -1.2179
10163SOL     OW37728   5.292  12.079  11.128 -0.0094 -0.2982 -0.6554
10163SOL    HW137729   5.213  12.052  11.081  0.4538 -2.6591 -0.2215
10163SOL    HW237730   5.286  12.174  11.133 -1.8742 -0.2641 -2.2700
10164SOL     OW37731   1.028   5.864  12.371 -0.3231  0.0929 -0.1456
10164SOL    HW137732   1.094   5.843  12.305 -0.5713 -1.3518  0.0160
10164SOL    HW237733   0.974   5.785  12.376 -3.3725  1.8767 -1.7645
10165SOL     OW37734   4.163   8.063   4.914 -0.1692 -0.4098 -0.0120
10165SOL    HW137735   4.250   8.104   4.906 -0.5857  1.0868  2.2366
10165SOL    HW237736   4.105   8.135   4.939 -1.6488 -1.7845  0.6470
10166SOL     OW37737   3.465   3.723   3.762 -0.5449  0.3436 -0.7546
10166SOL    HW137738   3.538   3.674   3.801 -0.3886  1.6521  0.6773
10166SOL    HW237739   3.464   3.694   3.670  2.2190  0.7639 -1.0074
10167SOL     OW37740   3.317   1.694   9.822 -0.3713 -0.0108 -0.0743
10167SOL    HW137741   3.312   1.629   9.752 -1.3423  0.7300 -0.7249
10167SOL    HW237742   3.339   1.644   9.900 -0.8729 -1.0789 -0.6014
10168SOL     OW37743   3.241   8.436   9.580 -0.2563  0.1653 -0.3336
10168SOL    HW137744   3.305   8.506   9.591 -0.8327  0.4475  1.6723
10168SOL    HW237745   3.283   8.359   9.619 -0.0455 -0.3835 -1.5819
10169SOL     OW37746   6.990   9.325  11.732 -0.4585  0.4264  0.4400
10169SOL    HW137747   6.917   9.380  11.763  0.8747  0.7924  3.1765
10169SOL    HW237748   7.037   9.381  11.670 -0.3325  1.6212  1.5810
10170SOL     OW37749   1.312   7.456  11.720  0.3801  0.3770 -0.2450
10170SOL    HW137750   1.344   7.444  11.810 -1.0939 -2.1601  0.0363
10170SOL    HW237751   1.369   7.401  11.667 -0.4872 -0.3839 -0.4166
10171SOL     OW37752   3.532   6.758   0.341 -0.3856  0.0307 -0.3584
10171SOL    HW137753   3.555   6.716   0.258  3.2518  2.6090 -0.8798
10171SOL    HW237754   3.464   6.821   0.318  0.3064  0.4406 -1.3817
10172SOL     OW37755   4.913   0.135   1.721 -0.2969 -0.1573 -0.1489
10172SOL    HW137756   4.922   0.109   1.630  1.8745  0.5071 -0.1743
10172SOL    HW237757   4.850   0.207   1.719 -0.0316  0.0604 -1.1667
10173SOL     OW37758  11.247   6.857   4.303  0.6447 -0.6088 -0.5392
10173SOL    HW137759  11.262   6.800   4.228  1.2810 -1.6331  0.3523
10173SOL    HW237760  11.200   6.932   4.266  0.4634 -1.3391 -1.8593
10174SOL     OW37761  11.044  11.608   3.850  0.2239  0.0441 -0.2707
10174SOL    HW137762  10.969  11.589   3.793 -0.2411 -0.6930  0.5574
10174SOL    HW237763  11.017  11.577   3.936  1.8622 -1.1903 -0.1551
10175SOL     OW37764   0.949   3.685   0.510  0.0108 -0.6315 -0.2767
10175SOL    HW137765   1.012   3.687   0.439 -1.0011  0.9276 -1.1777
10175SOL    HW237766   0.864   3.699   0.468 -0.5714  0.6803  1.2549
10176SOL     OW37767   3.801   9.069   0.646 -0.4875 -0.0591  0.4186
10176SOL    HW137768   3.771   9.057   0.736 -0.0872  0.7687  0.6730
10176SOL    HW237769   3.873   9.132   0.653 -2.1559  2.1139 -0.7569
10177SOL     OW37770   4.456   4.438   6.058  0.0819  0.6677  0.2422
10177SOL    HW137771   4.408   4.404   5.983  1.9305  0.3661 -0.8470
10177SOL    HW237772   4.395   4.499   6.100 -0.9373  0.9494 -1.5824
10178SOL     OW37773   4.806  10.609   3.686 -0.4615  0.6957  0.4311
10178SOL    HW137774   4.820  10.514   3.688  0.4314  0.7555 -1.2957
10178SOL    HW237775   4.712  10.619   3.671 -0.8942  0.1580  2.4280
10179SOL     OW37776   5.982   7.495  10.425  0.7343 -0.0157  0.4366
10179SOL    HW137777   6.067   7.521  10.390 -1.3872  3.8093 -2.6579
10179SOL    HW237778   5.963   7.560  10.493 -0.6754  0.8338 -0.6995
10180SOL     OW37779   5.313   4.873   8.083 -1.0442  0.1158  0.6900
10180SOL    HW137780   5.247   4.932   8.046 -1.9189 -0.4270  1.3394
10180SOL    HW237781   5.262   4.805   8.128 -0.0558 -0.8347  0.4226
10181SOL     OW37782  10.532  10.564   8.987 -0.0958 -0.1550  0.1428
10181SOL    HW137783  10.489  10.541   9.069 -0.1437  0.8177  0.4051
10181SOL    HW237784  10.492  10.507   8.922 -2.6005  1.3947  0.1806
10182SOL     OW37785  10.285  12.055   8.100  0.0656 -0.4090 -0.2763
10182SOL    HW137786  10.215  12.067   8.164  0.8957  0.3993  0.5155
10182SOL    HW237787  10.352  12.006   8.147 -0.1674 -1.6379 -1.1879
10183SOL     OW37788   2.797   1.265   3.166 -0.1883 -0.3900  0.4590
10183SOL    HW137789   2.804   1.170   3.172 -0.7828 -0.4252  0.6608
10183SOL    HW237790   2.886   1.295   3.150  0.0943 -0.9372  1.0033
10184SOL     OW37791  10.313  10.033  10.826  0.1721  0.0703 -0.0677
10184SOL    HW137792  10.336   9.945  10.796  0.6730  0.4797 -0.9085
10184SOL    HW237793  10.241  10.059  10.770 -0.1835  0.0770  0.3903
10185SOL     OW37794   7.751  10.265   0.084  0.1193 -0.4240  0.2221
10185SOL    HW137795   7.730  10.292  -0.005 -1.3272 -0.7844  0.4371
10185SOL    HW237796   7.667  10.259   0.128  0.6889 -1.7006  1.2066
10186SOL     OW37797   7.374   7.250   9.459 -0.7008 -0.4129  0.1274
10186SOL    HW137798   7.318   7.223   9.532  0.5347 -0.2973  1.1508
10186SOL    HW237799   7.318   7.306   9.405 -2.1238 -1.7949  0.0933
10187SOL     OW37800   6.124   2.453   7.528  0.4394 -0.5492  0.2119
10187SOL    HW137801   6.123   2.487   7.439 -0.6859 -0.9542  0.0478
10187SOL    HW237802   6.171   2.518   7.579  2.0301 -0.8022 -0.8562
10188SOL     OW37803   4.117   8.460  12.092  0.1376  0.1863  0.3319
10188SOL    HW137804   4.040   8.463  12.035  0.5266  0.9802 -0.1614
10188SOL    HW237805   4.183   8.413  12.040  0.5636  1.1056  0.0328
10189SOL     OW37806   9.613   5.541   7.926  0.0929  0.2431 -0.3471
10189SOL    HW137807   9.551   5.599   7.971  1.0570  0.1793  1.1447
10189SOL    HW237808   9.692   5.546   7.979  0.8172 -0.9871 -1.2672
10190SOL     OW37809  12.494   8.625   6.224 -0.2279  0.2380 -0.3754
10190SOL    HW137810  12.426   8.571   6.184  0.1920 -0.8884  0.3930
10190SOL    HW237811  12.513   8.582   6.307  0.2170  1.5034  0.2041
10191SOL     OW37812   3.972   8.512  11.176  0.0753  0.2498 -0.1491
10191SOL    HW137813   3.888   8.554  11.157  0.8639  0.9557 -2.4159
10191SOL    HW237814   3.958   8.420  11.156 -1.0455 -0.3294  2.7670
10192SOL     OW37815  10.057   5.220   0.317 -0.1331 -0.2769  0.1157
10192SOL    HW137816  10.009   5.139   0.334  0.9671 -0.9557  0.0600
10192SOL    HW237817  10.149   5.194   0.316  0.3038  1.1435  1.0101
10193SOL     OW37818  11.997   1.140  11.074 -0.0195 -0.7577 -0.9596
10193SOL    HW137819  11.988   1.084  10.997  1.3529 -1.5201 -0.6000
10193SOL    HW237820  11.986   1.081  11.149 -0.1609 -0.2470 -0.5695
10194SOL     OW37821   2.116   4.163   1.799 -0.3578 -0.0159 -0.3876
10194SOL    HW137822   2.144   4.157   1.890 -3.8208 -1.6828  0.7159
10194SOL    HW237823   2.034   4.114   1.795 -1.3761  1.6367 -3.9947
10195SOL     OW37824   1.703   9.355   6.308  0.0934 -0.3252  0.1361
10195SOL    HW137825   1.724   9.374   6.216  0.3890 -0.5625  0.1573
10195SOL    HW237826   1.787   9.341   6.350 -0.0233  0.1048  0.5169
10196SOL     OW37827   9.123   4.903   5.640  0.4550  0.2790 -0.4550
10196SOL    HW137828   9.035   4.865   5.643  0.1236  1.0961  0.6564
10196SOL    HW237829   9.117   4.972   5.574 -0.1044  1.1635  0.4874
10197SOL     OW37830   0.305   7.568   2.319  0.2308 -0.4303 -0.3990
10197SOL    HW137831   0.378   7.521   2.276  0.4217 -1.4825  1.0082
10197SOL    HW237832   0.337   7.657   2.330  0.9186 -0.6334 -0.6787
10198SOL     OW37833  11.928  12.429   0.322 -0.5754 -0.0262  0.1705
10198SOL    HW137834  11.977  12.403   0.400 -1.7372 -0.3301  0.8181
10198SOL    HW237835  11.990  12.482   0.272  1.0303 -1.9262  0.0337
10199SOL     OW37836   5.161  11.397   4.388 -0.5629  0.2112  0.0777
10199SOL    HW137837   5.162  11.348   4.470 -1.9423 -0.1059 -0.0651
10199SOL    HW237838   5.098  11.349   4.333  0.0975  0.5995 -1.0489
10200SOL     OW37839   1.663   9.501  10.241 -0.8337 -0.2755 -0.0094
10200SOL    HW137840   1.704   9.544  10.316  1.2054 -1.7157 -0.2261
10200SOL    HW237841   1.632   9.573  10.186 -0.1666  0.8331  1.0227
10201SOL     OW37842   6.769   3.864   0.606  0.2941 -0.3343 -0.7776
10201SOL    HW137843   6.838   3.868   0.541  2.6449  0.3394  1.5710
10201SOL    HW237844   6.730   3.777   0.596  0.8082 -0.3750 -2.7592
10202SOL     OW37845   3.182   0.185   0.975  0.0693 -0.3129  0.1117
10202SOL    HW137846   3.272   0.154   0.969 -0.2984 -1.4622  0.3114
10202SOL    HW237847   3.172   0.214   1.066  0.0608 -0.7839  0.2640
10203SOL     OW37848   9.650   6.941   8.567 -0.1231 -0.2927 -0.1592
10203SOL    HW137849   9.618   7.022   8.528  0.5935  0.1082  0.0664
10203SOL    HW237850   9.575   6.907   8.616  0.0471  1.1496  1.1885
10204SOL     OW37851  12.336  10.802   1.357 -0.1039  0.1857 -0.4936
10204SOL    HW137852  12.261  10.767   1.403 -0.2100  0.5873 -0.3594
10204SOL    HW237853  12.301  10.873   1.303  0.0484 -0.1517 -1.0480
10205SOL     OW37854   0.890   9.495   2.825 -0.2133  0.1618  0.5796
10205SOL    HW137855   0.818   9.559   2.826  0.1257  0.5929  2.6269
10205SOL    HW237856   0.967   9.546   2.852  0.5048 -0.6763  0.1605
10206SOL     OW37857  11.800   0.858  10.353  0.3554  0.6144 -0.4294
10206SOL    HW137858  11.881   0.841  10.400  0.4898 -2.3781 -1.5177
10206SOL    HW237859  11.786   0.952  10.362  1.8771  0.6664  3.0075
10207SOL     OW37860   4.809   5.274   3.078 -0.1214 -0.7789 -1.1033
10207SOL    HW137861   4.810   5.201   3.140  1.4594 -1.0344 -1.3984
10207SOL    HW237862   4.861   5.243   3.004 -0.0715  0.3700 -1.5582
10208SOL     OW37863   3.788   4.170   5.628 -0.1464  0.2209 -0.4324
10208SOL    HW137864   3.791   4.088   5.679  0.0883  0.1216 -0.6055
10208SOL    HW237865   3.799   4.239   5.693 -1.5096  0.1737 -0.1250
10209SOL     OW37866   1.335  11.290   7.022  0.0266 -0.5026  0.0094
10209SOL    HW137867   1.334  11.286   7.118  0.2118 -1.3778 -0.0122
10209SOL    HW237868   1.400  11.358   7.002  1.4826 -1.6835  0.5020
10210SOL     OW37869   4.420  11.709   9.772 -0.0664  0.0260 -0.0842
10210SOL    HW137870   4.428  11.652   9.695 -1.0340  0.3026 -0.4104
10210SOL    HW237871   4.374  11.787   9.739 -0.6445  0.0774  0.8084
10211SOL     OW37872   6.463   2.844   3.065 -0.3301  0.1054 -0.2209
10211SOL    HW137873   6.443   2.828   2.973 -0.4515  0.3959 -0.2478
10211SOL    HW237874   6.377   2.849   3.108 -0.2732 -0.0970 -0.0795
10212SOL     OW37875   1.681   7.707  12.378  0.1719 -0.0837  0.3065
10212SOL    HW137876   1.607   7.687  12.321 -0.4563 -1.5703  1.5481
10212SOL    HW237877   1.754   7.724  12.319 -0.6083 -0.9315 -0.9377
10213SOL     OW37878   4.534   5.605   9.337  0.4779 -0.3392 -0.4649
10213SOL    HW137879   4.603   5.564   9.389 -0.5178  0.6454  1.7853
10213SOL    HW237880   4.470   5.536   9.323 -0.3951 -0.0886  1.8432
10214SOL     OW37881   1.223   4.136   2.325 -0.2024  0.5891 -0.4929
10214SOL    HW137882   1.236   4.206   2.389  0.1818  1.1785 -1.2126
10214SOL    HW237883   1.137   4.099   2.348  0.3230  0.1875  0.9236
10215SOL     OW37884   8.772   8.329  11.466 -0.4438  0.2819 -0.3291
10215SOL    HW137885   8.727   8.361  11.544  1.1652  1.3185  0.2301
10215SOL    HW237886   8.719   8.361  11.393 -0.2641  2.0990  0.2859
10216SOL     OW37887   0.860  12.194   7.988  0.8315  0.0600 -0.3485
10216SOL    HW137888   0.810  12.245   7.923  0.6387 -1.6376 -1.5902
10216SOL    HW237889   0.952  12.207   7.962  0.7745 -0.3112 -0.7565
10217SOL     OW37890   9.298   8.911   4.409  0.7476 -0.2505  0.3208
10217SOL    HW137891   9.239   8.933   4.482  2.8730  1.7192  1.5782
10217SOL    HW237892   9.258   8.952   4.333  0.7445  1.6357  1.2762
10218SOL     OW37893   6.563  12.396   8.154 -0.0353 -0.3575 -0.2188
10218SOL    HW137894   6.493  12.415   8.217  1.6541 -0.5773  1.8321
10218SOL    HW237895   6.529  12.323   8.102 -1.8786  0.4698 -0.2703
10219SOL     OW37896   9.654  10.821   0.872  0.1537  0.4487  0.4521
10219SOL    HW137897   9.609  10.863   0.945 -0.1828 -2.0088  1.7791
10219SOL    HW237898   9.709  10.754   0.914 -0.1567 -1.1447 -1.5417
10220SOL     OW37899   0.596  10.484  12.603 -0.3421 -0.4540 -0.4659
10220SOL    HW137900   0.556  10.415  12.550 -0.3246 -0.3344 -0.6370
10220SOL    HW237901   0.573  10.462  12.693  0.9135 -1.5447 -0.3566
10221SOL     OW37902   9.135   8.305   5.325  0.2852 -0.0080 -0.5578
10221SOL    HW137903   9.215   8.253   5.314  0.9552  1.1251 -1.2545
10221SOL    HW237904   9.103   8.318   5.236  0.1104  0.7211 -0.3975
10222SOL     OW37905  10.526   9.270   7.965 -0.2305  0.0762 -0.6234
10222SOL    HW137906  10.557   9.343   8.019 -0.6489 -0.3465  0.1954
10222SOL    HW237907  10.431   9.269   7.977 -0.2098 -0.7266 -0.4610
10223SOL     OW37908   1.858  11.729  12.514 -0.0800 -0.3884 -0.2024
10223SOL    HW137909   1.794  11.766  12.453  1.8837  1.2180 -1.4129
10223SOL    HW237910   1.938  11.720  12.462  1.7234  1.1313  2.1004
10224SOL     OW37911   8.131   0.681  12.240  0.1603  0.1375 -0.8115
10224SOL    HW137912   8.104   0.606  12.293 -1.2323  0.8719 -0.4533
10224SOL    HW237913   8.222   0.662  12.218  0.6265 -0.4547  1.3726
10225SOL     OW37914   5.845  12.648   9.658  0.3485 -0.1533  0.2555
10225SOL    HW137915   5.918  12.665   9.598  0.4195  0.3706  0.4890
10225SOL    HW237916   5.794  12.729   9.658  0.7801  0.1524  1.4939
10226SOL     OW37917   0.466   9.934   7.783  0.4277  0.2719  0.1792
10226SOL    HW137918   0.452   9.840   7.785 -1.2626  0.4976  0.1080
10226SOL    HW237919   0.434   9.965   7.868  0.4981  0.8434 -0.0007
10227SOL     OW37920   6.772   3.250  12.544 -0.0646  0.4681 -0.1628
10227SOL    HW137921   6.689   3.222  12.582 -0.0020 -0.4402 -0.6691
10227SOL    HW237922   6.838   3.217  12.605 -0.0242  0.2565 -0.3235
10228SOL     OW37923  12.706   5.577   8.764 -1.2217 -0.7514 -0.1477
10228SOL    HW137924  12.682   5.634   8.691 -0.9728 -1.5974 -0.9049
10228SOL    HW237925  12.625   5.530   8.786 -1.5460  0.1926  0.7803
10229SOL     OW37926   6.897   8.513   7.763 -0.1489 -0.3172 -0.0574
10229SOL    HW137927   6.960   8.454   7.803  0.8167 -0.1666 -1.2892
10229SOL    HW237928   6.948   8.562   7.699 -1.4459  0.0773 -0.8179
10230SOL     OW37929   7.220   8.389   2.375  0.0163 -0.2730  0.1037
10230SOL    HW137930   7.145   8.448   2.368  2.2155  2.7081 -0.3201
10230SOL    HW237931   7.231   8.353   2.287 -0.1525  0.3243 -0.1671
10231SOL     OW37932   1.780   7.804   1.862  0.5314  0.2160 -0.5792
10231SOL    HW137933   1.772   7.786   1.769 -0.8813 -2.6614 -0.0063
10231SOL    HW237934   1.874   7.798   1.879  0.6571 -1.0051 -1.5440
10232SOL     OW37935   8.479   7.633   2.553 -0.8031  0.0958  0.4555
10232SOL    HW137936   8.507   7.723   2.569 -0.0991 -0.3604  1.8755
10232SOL    HW237937   8.387   7.642   2.528 -0.3535  1.3178 -0.9672
10233SOL     OW37938   0.007  12.396   8.995  0.0069  0.2826 -0.1831
10233SOL    HW137939   0.057  12.463   8.949  0.8138 -1.2583 -1.6851
10233SOL    HW237940  -0.072  12.384   8.943  0.5956 -0.9738 -0.8484
10234SOL     OW37941   6.457   4.514   6.159 -0.1128  0.4411 -0.3786
10234SOL    HW137942   6.377   4.561   6.182 -0.2591 -0.7130  1.6566
10234SOL    HW237943   6.527   4.575   6.182 -0.3513  0.3177  0.7595
10235SOL     OW37944   1.288   8.090   1.329 -0.3789  0.0154 -0.3932
10235SOL    HW137945   1.307   8.045   1.412 -1.0574  0.0995 -0.1934
10235SOL    HW237946   1.370   8.082   1.279  0.7726  1.7442  1.0663
10236SOL     OW37947   1.876   1.553  10.409 -0.3611  0.1836  0.2842
10236SOL    HW137948   1.838   1.485  10.353  0.1798  0.7775 -0.8257
10236SOL    HW237949   1.921   1.504  10.479  0.5584 -0.6433 -0.8467
10237SOL     OW37950   5.935   2.256   6.713 -0.2956  0.1722 -0.0698
10237SOL    HW137951   6.005   2.278   6.774  0.6949 -0.6684 -0.8603
10237SOL    HW237952   5.882   2.191   6.759  0.2990 -0.2743 -0.0031
10238SOL     OW37953   5.170   7.284   5.726  0.1804  0.9110  0.3236
10238SOL    HW137954   5.160   7.340   5.649  0.8754  0.4433 -0.1224
10238SOL    HW237955   5.234   7.218   5.699 -2.0595 -1.3291  0.0984
10239SOL     OW37956   1.340  10.699   9.348 -0.8031 -0.5474  0.2249
10239SOL    HW137957   1.304  10.787   9.353  0.7418  0.0324  2.5333
10239SOL    HW237958   1.302  10.653   9.424 -0.0522 -1.2458  0.1923
10240SOL     OW37959  12.708   4.488  11.602  0.5346  0.3604 -0.3033
10240SOL    HW137960  12.758   4.470  11.523 -1.1149 -1.3343 -1.0582
10240SOL    HW237961  12.620   4.511  11.571 -0.2853 -0.8022  0.9707
10241SOL     OW37962   9.677  10.150   6.023 -0.6107  0.7526 -0.1649
10241SOL    HW137963   9.736  10.218   6.053  2.9543 -2.7053  1.6546
10241SOL    HW237964   9.734  10.084   5.984 -3.9080 -0.7499 -2.9485
10242SOL     OW37965   9.117  10.735   5.602 -0.0565  0.4171 -0.5279
10242SOL    HW137966   9.206  10.731   5.567  1.1269 -0.0389  2.2370
10242SOL    HW237967   9.096  10.644   5.624 -1.3489  0.4833 -1.4010
10243SOL     OW37968   5.752   0.695   9.097  0.3965  0.0056 -0.2101
10243SOL    HW137969   5.796   0.616   9.067 -1.0754 -1.1017  0.3896
10243SOL    HW237970   5.816   0.739   9.153  1.5781 -0.2261 -1.3450
10244SOL     OW37971  10.834   3.074   7.433  0.2474 -0.0433 -0.0261
10244SOL    HW137972  10.886   3.154   7.441  2.0755 -1.0871 -0.7069
10244SOL    HW237973  10.853   3.026   7.513 -1.2201  0.3698  0.5999
10245SOL     OW37974   8.541   2.613  12.506  0.3917  0.3848 -0.3413
10245SOL    HW137975   8.516   2.524  12.481 -0.0620  0.7263 -1.1618
10245SOL    HW237976   8.585   2.648  12.428 -1.0522  1.4862 -0.7130
10246SOL     OW37977   3.039   9.328   9.898  0.2199 -0.4665  0.6982
10246SOL    HW137978   3.014   9.414   9.932 -3.4590 -0.8950 -0.4108
10246SOL    HW237979   3.010   9.267   9.965  0.7494 -0.9449  0.4951
10247SOL     OW37980   6.873  10.750   3.619 -0.0656 -0.1380  0.3299
10247SOL    HW137981   6.783  10.739   3.590 -0.5961  2.8753  0.5224
10247SOL    HW237982   6.877  10.703   3.703 -1.4471 -0.3428  0.3010
10248SOL     OW37983   0.058   9.987  10.812 -0.2960  0.3080  0.3113
10248SOL    HW137984   0.121  10.037  10.862 -0.0109  2.2278 -1.7722
10248SOL    HW237985   0.038   9.911  10.866  2.0557  0.8030  2.0149
10249SOL     OW37986   0.973  10.299   5.971 -0.2184  0.0382 -0.6004
10249SOL    HW137987   0.962  10.340   5.885 -0.7740  0.8838 -0.1396
10249SOL    HW237988   0.925  10.216   5.964 -0.3004  0.1229 -1.0856
10250SOL     OW37989   9.039   7.476   3.208 -0.0429 -0.0258 -0.0197
10250SOL    HW137990   9.079   7.415   3.147 -0.1303  0.4432 -0.5514
10250SOL    HW237991   8.947   7.483   3.180 -0.3251 -0.5361  0.7455
10251SOL     OW37992   5.917   3.643   5.615  0.1114 -0.4598  0.3854
10251SOL    HW137993   6.009   3.667   5.610  0.0096 -0.0968  0.1960
10251SOL    HW237994   5.906   3.609   5.704  0.6895 -1.6502  0.0219
10252SOL     OW37995   2.639   3.028  11.412 -0.6143 -0.1242  0.0682
10252SOL    HW137996   2.570   3.090  11.437  1.0433  1.3343  1.3302
10252SOL    HW237997   2.672   2.994  11.495  1.1538  0.3511 -0.3939
10253SOL     OW37998   9.426   8.659  11.630  0.2875 -0.2808 -0.4725
10253SOL    HW137999   9.491   8.726  11.654  0.3704  0.0545 -1.5690
10253SOL    HW238000   9.371   8.650  11.708  0.0014  1.3950 -0.4369
10254SOL     OW38001   5.619   9.912   4.274  0.5005  0.4229  0.1722
10254SOL    HW138002   5.578   9.871   4.198 -1.4571 -0.9780  1.8860
10254SOL    HW238003   5.630  10.004   4.248  1.0301 -0.2284 -2.1940
10255SOL     OW38004   5.739  10.417  12.533 -0.0199  0.4928 -0.2022
10255SOL    HW138005   5.688  10.490  12.569 -0.9953 -0.4713  0.4000
10255SOL    HW238006   5.677  10.367  12.480  0.5622 -0.0968 -0.3410
10256SOL     OW38007   5.224   4.798  12.292  0.0515 -0.3109  0.2984
10256SOL    HW138008   5.145   4.763  12.333  0.1074  0.1144  0.7903
10256SOL    HW238009   5.295   4.744  12.327  0.0177 -0.4618  0.1365
10257SOL     OW38010   1.970   8.644   0.403  0.3868 -0.1443 -0.1656
10257SOL    HW138011   2.060   8.673   0.414  0.0156  0.7375  0.6691
10257SOL    HW238012   1.917   8.708   0.452 -0.7315 -0.3649 -1.0299
10258SOL     OW38013   6.024   7.072  12.378  0.5073 -0.0112 -0.2341
10258SOL    HW138014   5.941   7.082  12.424  0.5255 -1.4996  0.1966
10258SOL    HW238015   6.078   7.019  12.437  0.6960 -1.5710 -1.7336
10259SOL     OW38016   6.661   8.531   7.220 -0.3545 -0.0661 -0.3288
10259SOL    HW138017   6.611   8.524   7.139  0.5078 -0.6258 -0.8261
10259SOL    HW238018   6.601   8.571   7.282 -1.1369  0.0535 -1.1500
10260SOL     OW38019   5.570  11.866  11.599  0.0634 -0.6625 -0.2020
10260SOL    HW138020   5.650  11.814  11.607  0.6945  0.2695 -0.3625
10260SOL    HW238021   5.592  11.951  11.637 -0.2302  0.2551 -1.9879
10261SOL     OW38022   5.461   0.035  11.352 -0.4049  0.1855 -0.4549
10261SOL    HW138023   5.526  -0.024  11.315  0.2377  0.5646  0.0470
10261SOL    HW238024   5.483   0.121  11.315 -1.0117  0.2115 -0.7730
10262SOL     OW38025   8.959   1.168   4.594  1.2073  0.9319  0.1576
10262SOL    HW138026   9.011   1.148   4.672  2.3498  2.3586 -0.1995
10262SOL    HW238027   9.000   1.247   4.557 -1.1423  2.0403 -0.2293
10263SOL     OW38028  11.736   2.749   3.485  0.1989 -0.4616 -0.7997
10263SOL    HW138029  11.681   2.792   3.419  0.4417 -1.8045 -1.9249
10263SOL    HW238030  11.710   2.790   3.568  0.8862  2.3374 -1.8369
10264SOL     OW38031   0.766   8.872   8.387 -0.6416 -0.3118 -0.2368
10264SOL    HW138032   0.701   8.937   8.362  0.0874  0.7328  0.5048
10264SOL    HW238033   0.847   8.901   8.344 -0.1029 -0.2042  0.8105
10265SOL     OW38034   8.261  11.139   8.141 -0.0993 -0.1824 -0.1595
10265SOL    HW138035   8.325  11.125   8.071  0.8718  0.9597  0.4628
10265SOL    HW238036   8.289  11.080   8.211 -0.1808 -0.2322 -0.1684
10266SOL     OW38037   5.170   9.241   2.921 -0.2679  0.2257  0.2648
10266SOL    HW138038   5.157   9.253   2.827  0.8594  0.9615  0.1835
10266SOL    HW238039   5.149   9.149   2.936  0.5274 -0.1824 -0.9052
10267SOL     OW38040  11.149   4.570   2.466 -0.1311  0.3671 -0.0180
10267SOL    HW138041  11.065   4.559   2.511 -1.3737 -0.4838 -2.3915
10267SOL    HW238042  11.141   4.653   2.420 -0.8548 -0.9713 -2.4755
10268SOL     OW38043   3.914   2.480   6.119 -0.4432 -0.0095 -0.1567
10268SOL    HW138044   3.917   2.426   6.198  1.4903 -0.5072 -0.5131
10268SOL    HW238045   3.896   2.417   6.049  1.9516 -0.2976 -0.5912
10269SOL     OW38046  10.465   8.910   9.839  0.1748 -0.8796 -0.0709
10269SOL    HW138047  10.374   8.911   9.810  0.0723  1.8916  0.0443
10269SOL    HW238048  10.510   8.970   9.780  1.2907 -0.0060  1.5813
10270SOL     OW38049   1.358   6.687   0.781 -0.4787 -0.2527 -0.1358
10270SOL    HW138050   1.385   6.768   0.739  1.2907 -1.5415 -1.6213
10270SOL    HW238051   1.415   6.680   0.858 -0.5021 -0.2135 -0.1143
10271SOL     OW38052  10.227   3.313   3.590  0.0848  0.4608 -0.1861
10271SOL    HW138053  10.249   3.396   3.632 -0.0165 -0.1735  1.1930
10271SOL    HW238054  10.312   3.277   3.562  0.4976 -0.3088  1.8788
10272SOL     OW38055  12.218   5.003   2.608 -0.2644 -0.0769 -0.1405
10272SOL    HW138056  12.226   5.054   2.528 -0.1178  0.4985  0.2325
10272SOL    HW238057  12.150   5.047   2.658 -0.1986 -0.2997  0.1490
10273SOL     OW38058   9.474   7.889   8.105 -0.2586  0.1362 -0.5793
10273SOL    HW138059   9.495   7.801   8.136  2.4220  0.4946 -1.1710
10273SOL    HW238060   9.408   7.921   8.166  0.4137 -1.4215  1.0357
10274SOL     OW38061   1.799  11.397   9.241  0.5353  0.0302  0.4907
10274SOL    HW138062   1.737  11.380   9.312  0.9993 -0.4255  0.7979
10274SOL    HW238063   1.885  11.380   9.279  0.7059 -2.1045 -0.6589
10275SOL     OW38064   1.659   3.328   7.702 -0.0940 -0.2319  0.2017
10275SOL    HW138065   1.639   3.281   7.783 -1.0699 -0.9907 -0.4462
10275SOL    HW238066   1.573   3.356   7.669  0.2401 -0.3322 -0.7976
10276SOL     OW38067   3.665   9.005   5.970  0.3614 -0.2690  0.0238
10276SOL    HW138068   3.717   9.000   5.889  0.8715 -0.1234  0.3359
10276SOL    HW238069   3.579   9.036   5.941  0.8711  0.8798 -0.3407
10277SOL     OW38070  12.437   2.729   4.814  0.7869  0.2104 -0.0951
10277SOL    HW138071  12.496   2.669   4.768 -0.6292 -1.3271 -0.0089
10277SOL    HW238072  12.494   2.797   4.849  2.0896  0.8358 -3.1176
10278SOL     OW38073  12.643   3.352   8.686  0.1262  0.5040  0.0230
10278SOL    HW138074  12.680   3.437   8.707  2.3590 -0.3679 -0.0454
10278SOL    HW238075  12.682   3.293   8.751 -1.7213 -0.4009  0.3525
10279SOL     OW38076   2.999   8.932   8.894 -0.7373 -0.0211 -0.2601
10279SOL    HW138077   3.017   9.017   8.855  0.8673  0.2514  0.9512
10279SOL    HW238078   3.001   8.948   8.989  0.8821 -1.5969  0.0213
10280SOL     OW38079   5.138   1.209   9.082  0.5359  0.8274 -0.3046
10280SOL    HW138080   5.146   1.135   9.141 -0.9415 -1.0357 -2.2970
10280SOL    HW238081   5.212   1.199   9.021  0.9954  1.6799  0.0955
10281SOL     OW38082   0.502   5.455   2.795  0.0060 -0.2814  0.1262
10281SOL    HW138083   0.414   5.454   2.756  0.4668 -0.8022 -0.9443
10281SOL    HW238084   0.504   5.375   2.849 -1.2525  1.3222  2.7679
10282SOL     OW38085   6.820   3.925   1.405  0.3393 -0.0829 -0.0863
10282SOL    HW138086   6.817   4.014   1.440  0.4977  0.6672 -1.8862
10282SOL    HW238087   6.782   3.931   1.318  0.9494 -1.6520 -0.5094
10283SOL     OW38088  11.674  11.318   0.509  0.2412 -0.3974 -0.3589
10283SOL    HW138089  11.669  11.249   0.443 -0.4643 -0.3668 -0.3425
10283SOL    HW238090  11.723  11.279   0.582 -0.8716 -1.1662 -0.0067
10284SOL     OW38091   2.606   4.418  12.268 -0.0469 -0.2167 -0.1250
10284SOL    HW138092   2.622   4.457  12.182 -0.5378  0.0498 -0.0981
10284SOL    HW238093   2.531   4.360  12.254 -1.1842  1.0574  0.4686
10285SOL     OW38094  10.070   3.671   2.058 -0.2315  0.0626  0.3533
10285SOL    HW138095  10.106   3.709   1.978 -2.0093  1.4616  0.1653
10285SOL    HW238096  10.147   3.655   2.114  0.9139  0.2499 -1.1040
10286SOL     OW38097   8.130   1.885   0.706 -0.4780  0.0324  0.1959
10286SOL    HW138098   8.085   1.966   0.681  1.3252  1.4414  1.3569
10286SOL    HW238099   8.156   1.898   0.797  0.1280 -1.7476  0.3187
10287SOL     OW38100  10.899   8.296   2.339 -0.1254  0.0698  0.1215
10287SOL    HW138101  10.823   8.242   2.321 -0.0335 -0.5047  1.3740
10287SOL    HW238102  10.973   8.247   2.302 -0.1234 -0.3444  0.6727
10288SOL     OW38103   4.669   8.837  12.337  0.3129 -0.8264  0.6323
10288SOL    HW138104   4.737   8.883  12.387  0.4574 -1.4858  1.0557
10288SOL    HW238105   4.671   8.878  12.251  1.0077 -0.5954  0.7495
10289SOL     OW38106   2.809   4.628  11.131  0.0090  0.0623 -0.2168
10289SOL    HW138107   2.856   4.547  11.151  0.0358  0.2761  0.6292
10289SOL    HW238108   2.717   4.603  11.136  0.0202 -0.0154 -0.3901
10290SOL     OW38109  11.651   5.536   3.587  0.2264 -0.5304  0.1140
10290SOL    HW138110  11.572   5.492   3.557  0.0498 -2.7636  3.2892
10290SOL    HW238111  11.719   5.469   3.583  0.9689  0.1245  1.1300
10291SOL     OW38112   8.959   5.077  10.631  0.3742  0.4401 -0.1788
10291SOL    HW138113   8.926   5.149  10.684  0.5822 -0.1461  0.7739
10291SOL    HW238114   8.972   5.006  10.694  0.4811 -0.3182 -1.0516
10292SOL     OW38115   1.138   3.123   1.325  0.0665 -0.0014 -0.4058
10292SOL    HW138116   1.069   3.173   1.282 -0.9150 -0.7998  0.1822
10292SOL    HW238117   1.113   3.031   1.312  1.1994 -0.3243 -0.4619
10293SOL     OW38118   1.001   1.027   3.622 -0.6900  0.0857 -0.0810
10293SOL    HW138119   1.001   1.000   3.530 -0.0055 -0.3708  0.0462
10293SOL    HW238120   0.983   0.947   3.671 -2.1031  0.5090  0.1561
10294SOL     OW38121   2.843   0.612   9.194  0.0986  0.3423  0.3761
10294SOL    HW138122   2.830   0.600   9.100 -0.1552  0.6328  0.3733
10294SOL    HW238123   2.784   0.549   9.235  0.5177 -0.0813  0.3397
10295SOL     OW38124   2.287  10.678   5.182 -0.0320  0.2681  0.2078
10295SOL    HW138125   2.362  10.620   5.196 -0.2513 -0.0671  0.0064
10295SOL    HW238126   2.265  10.667   5.090 -0.0430  0.7162  0.1537
10296SOL     OW38127   1.385   2.613   8.962 -0.1049 -0.4640 -0.0277
10296SOL    HW138128   1.386   2.640   9.053 -0.3597 -0.4337 -0.0344
10296SOL    HW238129   1.326   2.537   8.959  1.8350 -2.0939  0.2969
10297SOL     OW38130   0.473  12.708   9.512 -0.4495  0.1615  0.1550
10297SOL    HW138131   0.425  12.711   9.595  0.5831 -0.3484  0.7955
10297SOL    HW238132   0.481  12.615   9.493 -0.2683  0.2633 -0.2691
10298SOL     OW38133  10.826   0.680  10.894  0.4658 -0.4824 -0.0015
10298SOL    HW138134  10.774   0.610  10.934  1.5132 -1.0608  0.4030
10298SOL    HW238135  10.870   0.722  10.968  0.1791  0.3511 -0.2844
10299SOL     OW38136   7.927   0.273   7.866 -0.7597  0.4157  0.6145
10299SOL    HW138137   7.849   0.319   7.897 -0.0452  2.0352  0.0904
10299SOL    HW238138   7.982   0.341   7.828 -0.4462 -1.1033 -1.8902
10300SOL     OW38139  10.103   1.829  10.556 -0.3228  0.5302 -0.3325
10300SOL    HW138140  10.031   1.863  10.609  0.0434  1.5287 -0.4493
10300SOL    HW238141  10.121   1.742  10.592  0.5547  1.5441  1.8749
10301SOL     OW38142  10.094   0.919  11.117  0.8285 -0.5180  0.0729
10301SOL    HW138143  10.078   0.913  11.211  1.1358 -1.4639  0.0750
10301SOL    HW238144  10.151   0.844  11.098 -2.1775 -2.6070 -1.4953
10302SOL     OW38145  12.395   1.309   5.417 -0.2931  0.0520 -0.5698
10302SOL    HW138146  12.354   1.328   5.333 -0.7626 -0.3647 -0.4466
10302SOL    HW238147  12.322   1.284   5.474  0.0955 -0.4104 -0.2584
10303SOL     OW38148   8.764   0.495  10.813  0.7179  0.3701 -0.3959
10303SOL    HW138149   8.731   0.548  10.885  0.5884 -0.2120 -0.0175
10303SOL    HW238150   8.699   0.426  10.802  1.0678  0.0728 -0.6317
10304SOL     OW38151   7.039  12.123   9.464  0.1351  0.4079 -0.2637
10304SOL    HW138152   7.003  12.203   9.501 -1.9348  0.0616 -1.3554
10304SOL    HW238153   7.087  12.082   9.536  0.0795  1.9510  0.6835
10305SOL     OW38154   7.268  11.143   6.858 -0.5210 -1.0717  0.4838
10305SOL    HW138155   7.250  11.057   6.822 -1.1150 -1.0714  0.7780
10305SOL    HW238156   7.247  11.204   6.787  1.5796 -1.2353 -0.3545
10306SOL     OW38157   0.206   8.086   4.538 -0.3075 -0.1862 -0.1033
10306SOL    HW138158   0.180   8.082   4.630 -1.5923  1.4140 -0.3449
10306SOL    HW238159   0.126   8.111   4.491  0.8696  1.5910 -1.3233
10307SOL     OW38160   4.555   1.370  11.496  0.1522 -0.4183 -0.1292
10307SOL    HW138161   4.562   1.345  11.588 -0.2146 -0.1393 -0.0205
10307SOL    HW238162   4.611   1.308  11.449  2.8118  1.3336  0.5785
10308SOL     OW38163   6.925   5.561  11.705  0.4150 -0.2293 -0.4163
10308SOL    HW138164   6.988   5.594  11.770 -1.4893  0.7070  1.0559
10308SOL    HW238165   6.851   5.531  11.756 -0.3644 -1.3352 -2.1060
10309SOL     OW38166   9.996   9.548  11.717 -0.7557  0.1782 -0.0773
10309SOL    HW138167   9.931   9.586  11.658 -1.0610  0.6646  0.5696
10309SOL    HW238168   9.975   9.583  11.803  0.1022  0.0045  0.2163
10310SOL     OW38169   6.162  12.594  12.602  0.0100 -0.2953 -0.0665
10310SOL    HW138170   6.173  12.577  12.696 -0.4656 -1.8498 -0.2636
10310SOL    HW238171   6.155  12.689  12.595  1.8512 -0.0113  1.2760
10311SOL     OW38172   8.107  11.075   0.763 -0.2552  0.8384  0.0136
10311SOL    HW138173   8.018  11.107   0.779 -1.0270  0.4707 -2.9967
10311SOL    HW238174   8.117  11.075   0.668  2.1975 -1.2156  0.1306
10312SOL     OW38175  11.150   1.760   6.433 -0.0666 -0.5031  0.4029
10312SOL    HW138176  11.187   1.841   6.468  1.6668 -0.8522 -0.5592
10312SOL    HW238177  11.120   1.783   6.345  2.2780 -1.3036 -0.6893
10313SOL     OW38178   6.295  11.221   3.103  0.0750  0.4965  0.0804
10313SOL    HW138179   6.365  11.190   3.161  0.9512  1.0003 -0.6807
10313SOL    HW238180   6.340  11.253   3.025 -0.9417  1.5959 -0.1004
10314SOL     OW38181  12.000   4.820   1.284 -0.0456  0.0296 -0.0746
10314SOL    HW138182  11.927   4.784   1.334 -0.3382 -0.5535 -0.9044
10314SOL    HW238183  11.971   4.818   1.193  1.4760 -1.4145 -0.5764
10315SOL     OW38184   8.192   0.838  10.478  0.0590 -0.3864 -0.3947
10315SOL    HW138185   8.111   0.878  10.448  0.0854 -0.7749 -1.0154
10315SOL    HW238186   8.260   0.902  10.458  0.3244 -1.3346 -2.9060
10316SOL     OW38187   3.787  10.070   3.913  0.8403 -0.0046 -0.0658
10316SOL    HW138188   3.848  10.141   3.895  1.0871 -0.6239 -1.9342
10316SOL    HW238189   3.762  10.038   3.826 -0.9305 -0.8017  0.6801
10317SOL     OW38190  12.633   9.672   1.517 -0.3475 -0.5619 -0.5554
10317SOL    HW138191  12.639   9.582   1.549 -2.2118 -0.1998  0.9875
10317SOL    HW238192  12.723   9.694   1.490  0.5769 -2.2016  0.9400
10318SOL     OW38193  10.154   3.164  10.678  0.7317 -0.0735  0.2625
10318SOL    HW138194  10.191   3.089  10.631  0.9157 -0.7653  1.4573
10318SOL    HW238195  10.178   3.240  10.626 -0.0670 -0.8889 -1.3586
10319SOL     OW38196   1.093   0.649   5.764  0.2619 -0.3085  0.1765
10319SOL    HW138197   1.094   0.630   5.670 -0.6734 -0.2497  0.1420
10319SOL    HW238198   1.164   0.712   5.777  0.8585 -0.8520 -0.3665
10320SOL     OW38199   3.711   9.328   2.793  0.1026  0.1454  0.2250
10320SOL    HW138200   3.730   9.239   2.820  1.9292  0.9590  1.8612
10320SOL    HW238201   3.661   9.366   2.865 -1.3282  0.2825 -0.7813
10321SOL     OW38202   4.530   6.704   5.787 -0.5648 -0.1555  0.2531
10321SOL    HW138203   4.544   6.768   5.718 -0.0927 -0.3336  0.1749
10321SOL    HW238204   4.488   6.630   5.743  0.6182 -0.6688 -0.0644
10322SOL     OW38205   8.618   5.019   6.471  0.5455 -0.7108  0.6085
10322SOL    HW138206   8.620   5.097   6.416  0.5806 -1.2222 -0.1305
10322SOL    HW238207   8.662   4.952   6.419 -0.2243 -1.4505  0.8835
10323SOL     OW38208   8.945   7.249   1.282 -0.0214 -0.7156 -0.0127
10323SOL    HW138209   8.881   7.319   1.291 -2.0899 -2.5860  0.5235
10323SOL    HW238210   8.954   7.237   1.187  1.3876  1.0821 -0.1709
10324SOL     OW38211   3.025   3.693   2.020 -0.0968 -0.2374 -0.5397
10324SOL    HW138212   2.986   3.779   2.035  1.2293  0.3443 -0.2255
10324SOL    HW238213   3.072   3.673   2.101  1.6257 -0.1088 -1.4531
10325SOL     OW38214   5.635   7.656   4.256 -0.5324  0.0997 -0.1604
10325SOL    HW138215   5.617   7.732   4.200 -1.9452 -0.9010 -1.1132
10325SOL    HW238216   5.657   7.586   4.194 -1.3245 -0.8198  0.5801
10326SOL     OW38217  10.257   9.845   3.544  0.5745 -0.3089 -0.2839
10326SOL    HW138218  10.292   9.792   3.615  0.2889 -0.3756 -0.1892
10326SOL    HW238219  10.308   9.926   3.547  0.9003 -0.5104 -0.3229
10327SOL     OW38220   8.312   9.019   8.230 -0.4959  0.0144 -0.5421
10327SOL    HW138221   8.386   9.036   8.171  0.0407  2.4644  0.7013
10327SOL    HW238222   8.348   8.962   8.298  0.0639  0.6316 -0.3149
10328SOL     OW38223   7.263   1.749   0.464 -0.7561  0.5495 -0.3464
10328SOL    HW138224   7.357   1.735   0.450 -1.0657 -0.3580 -1.6864
10328SOL    HW238225   7.254   1.758   0.559  0.3904 -1.8124  0.0630
10329SOL     OW38226   4.283   5.788  12.217 -0.0721 -0.2430  0.1707
10329SOL    HW138227   4.212   5.737  12.258 -0.3906 -0.2454 -0.3826
10329SOL    HW238228   4.242   5.828  12.141  0.1288  1.0079  0.7049
10330SOL     OW38229   6.769   7.243   8.413 -0.3898  0.1775  0.2503
10330SOL    HW138230   6.816   7.220   8.493  1.7946 -0.4589 -1.1190
10330SOL    HW238231   6.773   7.164   8.359 -0.9508  0.8922 -0.8844
10331SOL     OW38232   8.767   1.708   4.359  0.0850 -0.5566 -0.7338
10331SOL    HW138233   8.741   1.740   4.446  2.1553 -2.4010  0.6854
10331SOL    HW238234   8.722   1.624   4.351  2.0967 -1.7623 -0.0925
10332SOL     OW38235  10.226   8.449   0.797 -0.1189  0.1968 -0.0411
10332SOL    HW138236  10.287   8.385   0.760  0.5279 -0.3719  1.8875
10332SOL    HW238237  10.266   8.534   0.778  0.1880 -0.0732 -0.6308
10333SOL     OW38238   1.606  10.524   8.889  0.2468  0.8909  0.1197
10333SOL    HW138239   1.614  10.551   8.981  1.9989 -0.1021  0.3167
10333SOL    HW238240   1.512  10.525   8.871 -0.1014  1.5034  1.7949
10334SOL     OW38241  11.346   6.505  12.004  0.0634 -0.0093 -0.4181
10334SOL    HW138242  11.405   6.438  12.039 -1.7063 -1.1353  0.5057
10334SOL    HW238243  11.283   6.521  12.074 -2.0811 -0.4781 -2.1424
10335SOL     OW38244   1.131   1.214   4.710 -0.3484 -0.4400 -0.3349
10335SOL    HW138245   1.166   1.129   4.682 -0.5578 -0.6713  0.0931
10335SOL    HW238246   1.143   1.271   4.634  0.6492 -0.6055 -0.3098
10336SOL     OW38247   6.934   1.806   8.733 -0.1754 -0.1939  0.0445
10336SOL    HW138248   6.993   1.852   8.673  0.2414 -0.2454  0.4111
10336SOL    HW238249   6.860   1.779   8.678  0.1902 -0.2207 -0.4439
10337SOL     OW38250   3.837  12.382   6.709  0.1814  0.6468 -0.2609
10337SOL    HW138251   3.826  12.457   6.650 -1.3121  0.2902 -0.4725
10337SOL    HW238252   3.885  12.318   6.657  0.4415  1.0146 -0.4788
10338SOL     OW38253   3.778   9.671   6.394 -0.5165  0.3024 -0.3395
10338SOL    HW138254   3.727   9.591   6.384 -1.1048  0.4650  1.0141
10338SOL    HW238255   3.841   9.651   6.464 -0.0353  0.7188 -0.6491
10339SOL     OW38256   9.237   6.392   6.690 -0.7959 -0.0914  0.0562
10339SOL    HW138257   9.192   6.348   6.763  1.5470 -0.6955  1.2493
10339SOL    HW238258   9.329   6.368   6.702 -0.0004  1.8785 -1.6633
10340SOL     OW38259   2.104   4.630  11.613  0.3897  0.1787 -0.7038
10340SOL    HW138260   2.063   4.681  11.684  1.4843 -0.8905  0.7464
10340SOL    HW238261   2.062   4.545  11.617  0.4083  0.1271 -1.4178
10341SOL     OW38262   4.890  11.232   9.065 -0.5490  0.0329 -0.3263
10341SOL    HW138263   4.883  11.295   8.993  0.0252 -2.1641 -2.4355
10341SOL    HW238264   4.920  11.151   9.024  2.4430 -0.6741  2.7925
10342SOL     OW38265   2.527   4.334   5.551 -0.0583  0.5250 -1.0147
10342SOL    HW138266   2.493   4.389   5.621 -1.3601 -0.0516 -1.1502
10342SOL    HW238267   2.596   4.282   5.592  0.5566  1.5943 -0.6720
10343SOL     OW38268   0.795   5.020   2.517 -0.3396  0.2921 -0.1358
10343SOL    HW138269   0.743   5.086   2.563 -0.2780 -0.8428  1.6377
10343SOL    HW238270   0.882   5.026   2.557 -0.0094 -0.1047 -0.7700
10344SOL     OW38271  12.596   6.370   5.744 -0.1722  0.7933  0.1215
10344SOL    HW138272  12.615   6.386   5.652  0.9785  1.0535  0.3830
10344SOL    HW238273  12.682   6.369   5.786 -0.4212 -2.1423  0.7692
10345SOL     OW38274   5.275   8.527   7.035 -0.5749 -0.0432  0.3082
10345SOL    HW138275   5.278   8.573   6.951 -0.0504  0.3475  0.5344
10345SOL    HW238276   5.187   8.489   7.039 -0.7123  0.2082 -0.2698
10346SOL     OW38277   2.479   2.887   1.929 -0.7069 -0.3549  0.2833
10346SOL    HW138278   2.401   2.935   1.903 -0.3843 -0.0198 -0.0720
10346SOL    HW238279   2.452   2.838   2.007 -0.9820  0.5564  0.7757
10347SOL     OW38280   1.102   7.989  11.362 -0.4156  0.0163 -0.1722
10347SOL    HW138281   1.167   8.056  11.381 -0.3118  0.1158 -0.8539
10347SOL    HW238282   1.037   7.998  11.432  0.6861 -0.5932  0.9714
10348SOL     OW38283   1.579   8.661   7.976  0.1013 -0.5372  0.4747
10348SOL    HW138284   1.524   8.733   8.009  0.1361  0.7161 -2.0023
10348SOL    HW238285   1.525   8.583   7.989 -1.7175  0.4691 -0.4935
10349SOL     OW38286   8.299   1.746   0.034 -0.4976 -0.5469  0.3975
10349SOL    HW138287   8.341   1.828   0.059  0.1706 -1.3496  2.0150
10349SOL    HW238288   8.372   1.687   0.015 -0.9495 -1.1712  0.5976
10350SOL     OW38289   3.281   9.089  12.645  0.3611 -0.0753 -0.4106
10350SOL    HW138290   3.333   9.052  12.574  0.3663 -2.5552  0.7642
10350SOL    HW238291   3.316   9.047  12.724 -2.4202 -0.7487  0.5701
10351SOL     OW38292   3.026   9.230  11.163 -0.1831 -0.6862  0.0089
10351SOL    HW138293   3.113   9.223  11.202 -0.6918 -0.7011  1.1867
10351SOL    HW238294   3.041   9.223  11.069  0.9468 -2.0709  0.2562
10352SOL     OW38295   3.205   8.342   3.828  0.2168  0.4463  0.4278
10352SOL    HW138296   3.245   8.428   3.819 -0.9276  1.0461  0.8747
10352SOL    HW238297   3.120   8.350   3.784  0.0073 -0.3862  0.6601
10353SOL     OW38298  12.517   7.199   0.541 -0.3532 -0.4833 -0.1847
10353SOL    HW138299  12.516   7.291   0.513 -1.1345 -0.8778 -1.5635
10353SOL    HW238300  12.583   7.196   0.610  0.7158  0.8524 -1.0732
10354SOL     OW38301   4.319  10.286   9.946  0.0548  0.2167 -0.5751
10354SOL    HW138302   4.380  10.360   9.943  1.7012 -0.9341  1.3460
10354SOL    HW238303   4.327  10.252  10.036 -0.9575 -2.0100 -1.2417
10355SOL     OW38304   0.682   9.385   3.503  0.3363  0.4542  0.3664
10355SOL    HW138305   0.645   9.303   3.471 -1.2620  0.6681  1.5459
10355SOL    HW238306   0.772   9.363   3.527 -0.4627 -1.3603  1.9741
10356SOL     OW38307   5.515  10.773   1.130 -0.9398 -0.6951  0.0933
10356SOL    HW138308   5.593  10.827   1.122  0.0307 -1.7143  2.0643
10356SOL    HW238309   5.545  10.694   1.175 -2.9041 -1.5845 -0.0640
10357SOL     OW38310   0.643   0.186   0.034 -0.0900 -0.8190 -0.2995
10357SOL    HW138311   0.732   0.214   0.016 -0.1950  0.3490  0.8829
10357SOL    HW238312   0.641   0.169   0.128 -0.8569 -1.8395 -0.4782
10358SOL     OW38313  11.325   7.845   2.667  0.5911 -0.3717  0.1742
10358SOL    HW138314  11.248   7.862   2.612  0.3122  0.3893  0.7724
10358SOL    HW238315  11.359   7.761   2.636 -0.7948 -0.9867  0.2455
10359SOL     OW38316   9.659   0.246  10.512 -0.1888  0.4879  0.3079
10359SOL    HW138317   9.583   0.276  10.563 -0.7938 -0.7202  0.1751
10359SOL    HW238318   9.688   0.167  10.557  0.5862  0.5689 -0.0304
10360SOL     OW38319   8.160  10.363   3.306  0.7783  0.0184 -0.7209
10360SOL    HW138320   8.097  10.291   3.306  0.5533  0.0815  2.3489
10360SOL    HW238321   8.145  10.408   3.223 -2.8010 -0.3433 -0.4168
10361SOL     OW38322   0.539   8.300   7.388  0.3857 -0.4785  0.5408
10361SOL    HW138323   0.496   8.367   7.440  1.4516  0.9128 -0.3167
10361SOL    HW238324   0.627   8.292   7.426  0.2720 -1.3978  0.6383
10362SOL     OW38325   4.886   4.657   4.438 -0.3277  0.2810 -0.0651
10362SOL    HW138326   4.980   4.661   4.455 -0.2149 -1.3655 -0.1479
10362SOL    HW238327   4.856   4.748   4.445  1.3393  0.8922 -0.5202
10363SOL     OW38328  11.869   1.915   2.523  0.7385 -0.1335 -0.7833
10363SOL    HW138329  11.775   1.930   2.511  0.5556 -0.2281  0.4344
10363SOL    HW238330  11.877   1.820   2.530  0.9725 -0.1481 -1.2634
10364SOL     OW38331   8.142   2.088   6.221  0.1944 -0.4087  0.4373
10364SOL    HW138332   8.219   2.110   6.274 -0.9886  1.5041  1.4947
10364SOL    HW238333   8.076   2.062   6.285 -0.6091 -0.1793 -0.2826
10365SOL     OW38334   5.414  10.146  11.051  0.1501  0.3036  0.4891
10365SOL    HW138335   5.445  10.059  11.025  0.6379  0.8125 -0.7150
10365SOL    HW238336   5.321  10.134  11.070 -0.1677 -0.2019 -1.1798
10366SOL     OW38337  11.127   8.428   0.336 -0.4813 -0.4734 -0.0477
10366SOL    HW138338  11.143   8.447   0.244 -1.4487 -0.0961 -0.1549
10366SOL    HW238339  11.210   8.394   0.369  0.1616  0.3236 -0.8084
10367SOL     OW38340   0.185   4.910   6.397  0.1669 -0.0993  0.1205
10367SOL    HW138341   0.172   4.989   6.345  1.1238  0.2706  0.4228
10367SOL    HW238342   0.112   4.853   6.373  0.8135 -0.1360 -1.9750
10368SOL     OW38343   9.849   5.892   4.105  0.3472  0.1915 -0.3343
10368SOL    HW138344   9.904   5.955   4.059  1.1425  1.4897  2.2441
10368SOL    HW238345   9.784   5.944   4.151 -1.1930 -1.1402 -0.8958
10369SOL     OW38346   8.371   3.147   1.065 -0.4662 -0.6533 -0.0544
10369SOL    HW138347   8.374   3.052   1.058  0.4364 -0.7342  1.2340
10369SOL    HW238348   8.439   3.169   1.129  0.1684  0.9524 -1.2078
10370SOL     OW38349  11.552   1.703   5.631  0.3140  0.3412  0.0753
10370SOL    HW138350  11.539   1.708   5.536  0.1825  0.7085  0.1134
10370SOL    HW238351  11.588   1.789   5.655  1.4438 -0.1423  0.1828
10371SOL     OW38352   2.477  10.541   8.335 -0.3312  0.5211  0.7621
10371SOL    HW138353   2.538  10.529   8.408 -1.1518 -1.2992  1.1931
10371SOL    HW238354   2.417  10.467   8.340 -1.3493  1.1588 -0.8753
10372SOL     OW38355   7.501   9.371   5.630  0.6613 -0.1179  0.1294
10372SOL    HW138356   7.591   9.356   5.603  0.0201 -2.6793 -0.9246
10372SOL    HW238357   7.498   9.341   5.721  0.5861 -1.4581 -0.2963
10373SOL     OW38358  11.988   7.628  10.658 -0.7600  0.2953  0.6829
10373SOL    HW138359  11.960   7.687  10.729 -3.2587  1.5016 -1.1541
10373SOL    HW238360  11.990   7.684  10.580  1.4332 -1.1031 -0.3325
10374SOL     OW38361   5.106  10.805   9.030  0.3723  0.2627  0.2899
10374SOL    HW138362   5.191  10.838   9.000  1.3185 -0.7945  1.6617
10374SOL    HW238363   5.088  10.730   8.974 -0.5835  1.5247 -1.1916
10375SOL     OW38364   6.674   1.310   9.348  0.2520  0.1563 -0.2199
10375SOL    HW138365   6.633   1.252   9.411 -0.5406 -0.0259 -0.8806
10375SOL    HW238366   6.712   1.251   9.283  1.3873  0.3294  0.2656
10376SOL     OW38367   3.152   3.476   8.811  0.0275 -0.2548  0.0739
10376SOL    HW138368   3.130   3.507   8.723 -2.5484  0.2381  0.8040
10376SOL    HW238369   3.122   3.546   8.869  1.1325 -0.8382  1.3963
10377SOL     OW38370   1.549   7.326   9.071 -0.4949  0.1916  0.1763
10377SOL    HW138371   1.537   7.402   9.128  0.2321  0.8633 -0.5256
10377SOL    HW238372   1.499   7.347   8.992  0.5917  0.4781 -0.4722
10378SOL     OW38373   9.900   0.338   2.603 -0.3926  0.4415 -0.2118
10378SOL    HW138374   9.990   0.342   2.571 -0.1547 -0.1949  0.3531
10378SOL    HW238375   9.898   0.262   2.661 -0.6429  1.8583  1.7595
10379SOL     OW38376   9.730   8.353   8.408  0.2287 -0.1879  0.3553
10379SOL    HW138377   9.813   8.364   8.362  0.2935 -3.2489 -0.4842
10379SOL    HW238378   9.718   8.258   8.413 -3.2990  0.1352  0.3169
10380SOL     OW38379   6.247   5.547   3.430  0.0415  0.6868 -0.1656
10380SOL    HW138380   6.224   5.639   3.416 -1.4890  0.3762  0.1737
10380SOL    HW238381   6.163   5.503   3.445  0.8058 -0.6515  0.3412
10381SOL     OW38382   4.499   5.007   2.185 -0.1755 -0.0813  0.3297
10381SOL    HW138383   4.548   5.017   2.267 -0.3004  1.2233  0.2693
10381SOL    HW238384   4.566   5.013   2.116 -0.1760 -0.3349  0.3060
10382SOL     OW38385   4.747   4.085   5.249 -0.5857 -0.5636  0.1409
10382SOL    HW138386   4.789   4.075   5.164  0.4652 -0.9552  0.6934
10382SOL    HW238387   4.704   4.001   5.265  2.0691 -1.7788  1.4796
10383SOL     OW38388   3.010   0.269   4.435  0.2986  0.1820  0.7999
10383SOL    HW138389   2.965   0.353   4.440 -1.2659 -0.6295  0.9849
10383SOL    HW238390   3.034   0.250   4.526  1.5304  0.8509  0.6393
10384SOL     OW38391   1.869   9.130   2.871  0.2714 -0.4622  0.3754
10384SOL    HW138392   1.797   9.082   2.913  0.7969 -1.8956 -0.2796
10384SOL    HW238393   1.854   9.221   2.894  0.3606 -1.1244  3.4582
10385SOL     OW38394   4.924   7.032  12.026  0.0678  0.5125  0.3294
10385SOL    HW138395   4.990   6.990  11.972  2.0218  1.3343  1.9706
10385SOL    HW238396   4.941   7.125  12.019 -1.5653  0.8262  0.0327
10386SOL     OW38397   5.750   7.180  11.301  0.5374 -0.3772  0.1944
10386SOL    HW138398   5.767   7.165  11.208 -0.6554 -2.2143  0.2327
10386SOL    HW238399   5.755   7.093  11.341  2.5643  0.5319  2.1595
10387SOL     OW38400  10.243   4.504   8.260 -0.0164 -0.1805  0.0562
10387SOL    HW138401  10.267   4.465   8.176 -1.6229  0.9395 -0.9712
10387SOL    HW238402  10.326   4.509   8.308  0.9218 -0.9336 -1.4106
10388SOL     OW38403   2.066   0.804   4.340 -0.0420  0.5765 -0.0599
10388SOL    HW138404   2.041   0.826   4.250  2.7360 -1.1442 -1.3845
10388SOL    HW238405   2.162   0.804   4.339  0.1393 -2.7293  1.9898
10389SOL     OW38406   6.314   1.308  11.278  0.1496  0.4188 -0.5484
10389SOL    HW138407   6.309   1.395  11.239 -0.1882 -0.5362 -2.7742
10389SOL    HW238408   6.262   1.253  11.221  0.1647 -1.2360  0.9418
10390SOL     OW38409   0.600   6.145   6.814 -0.4871  0.1031  0.0003
10390SOL    HW138410   0.682   6.106   6.845  1.7944  2.2698 -2.7698
10390SOL    HW238411   0.596   6.230   6.858 -0.5123  0.5654 -0.8844
10391SOL     OW38412   7.894   0.495   8.788  0.4737 -0.2693 -0.2460
10391SOL    HW138413   7.887   0.473   8.695  0.7039  0.4648 -0.4428
10391SOL    HW238414   7.907   0.590   8.789  1.3207 -0.3818  0.4988
10392SOL     OW38415   2.574   7.030   4.433  0.6949  0.0019  0.2354
10392SOL    HW138416   2.543   7.013   4.344  0.2742  1.6816  0.0174
10392SOL    HW238417   2.640   6.963   4.449 -0.5887 -1.5141 -0.6033
10393SOL     OW38418  11.842   0.605   8.602  0.4017  0.2466 -0.1244
10393SOL    HW138419  11.877   0.687   8.636  0.4970  0.8721 -1.6201
10393SOL    HW238420  11.764   0.631   8.553 -0.9397 -0.8655  1.3254
10394SOL     OW38421  10.116   3.515  11.730 -0.0303 -0.5715  0.4641
10394SOL    HW138422  10.082   3.440  11.680 -0.8277  0.1281 -0.0576
10394SOL    HW238423  10.142   3.578  11.663 -0.1463 -0.0380  0.9211
10395SOL     OW38424   7.345   3.060   6.059 -0.1997  0.0565 -0.3468
10395SOL    HW138425   7.303   2.977   6.037 -1.4011  0.9279 -1.5129
10395SOL    HW238426   7.326   3.072   6.153 -1.7383 -0.0653 -0.6092
10396SOL     OW38427  11.379   8.767  10.926 -0.3456 -0.5235 -0.0748
10396SOL    HW138428  11.426   8.701  10.876  0.3767  0.1815 -0.3564
10396SOL    HW238429  11.352   8.723  11.006  0.9607 -0.9057  0.1784
10397SOL     OW38430   5.186  11.411   1.192  0.4049 -0.3032 -0.5730
10397SOL    HW138431   5.240  11.347   1.146 -1.4524 -1.4722 -1.2844
10397SOL    HW238432   5.146  11.362   1.263 -2.2279 -0.4599 -2.0136
10398SOL     OW38433   2.368   6.486  11.838 -0.5272 -0.1625  0.3692
10398SOL    HW138434   2.392   6.550  11.772 -0.2444 -0.8023 -0.1611
10398SOL    HW238435   2.449   6.437  11.855 -0.6112 -0.0552  1.1374
10399SOL     OW38436   7.319   0.739   9.880 -0.3239 -0.1918 -0.0621
10399SOL    HW138437   7.230   0.774   9.870 -1.4493 -2.4393  1.4227
10399SOL    HW238438   7.331   0.728   9.974  1.3131 -0.5464 -0.2682
10400SOL     OW38439   9.283   4.492  10.538  0.4093  0.9432  0.1802
10400SOL    HW138440   9.367   4.466  10.576  0.9942  1.1599 -0.9209
10400SOL    HW238441   9.263   4.423  10.474 -2.0430 -1.0602  2.8365
10401SOL     OW38442   4.445   5.730   2.467  0.2617  0.2497 -0.0580
10401SOL    HW138443   4.383   5.687   2.526 -0.0582  1.2329  0.3493
10401SOL    HW238444   4.515   5.666   2.455 -0.8094 -0.8576 -0.5049
10402SOL     OW38445   2.527   1.852   6.176 -0.3124 -0.4737  0.5004
10402SOL    HW138446   2.520   1.931   6.229 -0.1415  0.8246 -1.3094
10402SOL    HW238447   2.612   1.860   6.133 -0.2613 -1.6988  0.3537
10403SOL     OW38448   3.215  10.731   3.524  0.0076  0.1234 -1.1531
10403SOL    HW138449   3.302  10.700   3.548 -0.0048  0.2250 -0.9763
10403SOL    HW238450   3.192  10.680   3.446 -1.1589 -2.3352  0.6724
10404SOL     OW38451   3.935   7.319   2.830 -0.0714 -0.6556  0.3252
10404SOL    HW138452   4.013   7.265   2.816 -0.0695 -1.1361  1.9960
10404SOL    HW238453   3.872   7.260   2.871 -0.7292  0.1544  0.5005
10405SOL     OW38454   7.158   8.016  10.958 -0.2999 -0.2719  0.0982
10405SOL    HW138455   7.250   8.037  10.974 -0.4540  1.0017 -0.5411
10405SOL    HW238456   7.114   8.035  11.041  0.1649 -2.0516  0.7916
10406SOL     OW38457   5.035  11.662   0.791 -0.1903 -0.8971  0.5345
10406SOL    HW138458   5.054  11.577   0.749  0.7983  0.0603 -1.0867
10406SOL    HW238459   5.108  11.675   0.851  0.4893 -0.5139 -0.3556
10407SOL     OW38460   3.296   6.847   6.304  0.0900 -0.3019  0.8502
10407SOL    HW138461   3.272   6.828   6.395  1.2836 -0.9802  1.0358
10407SOL    HW238462   3.302   6.761   6.262  2.4169 -0.2240  0.8963
10408SOL     OW38463  12.545   9.498   7.824  0.2065 -0.4800  0.1813
10408SOL    HW138464  12.536   9.412   7.782  0.8378 -0.3488 -0.2271
10408SOL    HW238465  12.571   9.478   7.914  1.4775 -0.6984 -0.2170
10409SOL     OW38466   9.407   3.711   0.773  0.2904 -0.3726 -0.6828
10409SOL    HW138467   9.376   3.676   0.857  1.1103 -0.4767 -0.4172
10409SOL    HW238468   9.373   3.649   0.708  1.5351 -1.5657 -0.2341
10410SOL     OW38469   5.414   2.849  12.659 -0.5644 -0.4948 -0.3048
10410SOL    HW138470   5.469   2.862  12.736  0.0664 -1.7093 -0.5351
10410SOL    HW238471   5.425   2.929  12.607 -0.4024  0.0050  0.4808
10411SOL     OW38472   3.973   4.262   1.864 -0.6017  0.4859 -0.3513
10411SOL    HW138473   3.894   4.276   1.915 -0.0713 -0.0400  0.6395
10411SOL    HW238474   3.959   4.312   1.784 -2.1607 -0.0342 -0.4334
10412SOL     OW38475   5.292   3.427   8.977 -0.4949 -0.5009  0.2076
10412SOL    HW138476   5.252   3.341   8.990 -0.2394 -0.6351  0.1301
10412SOL    HW238477   5.248   3.462   8.900 -1.0912 -0.2620  0.6530
10413SOL     OW38478   8.867  10.266   7.242  0.5357  0.2395 -0.1810
10413SOL    HW138479   8.942  10.322   7.260  1.4252 -1.1283  0.5587
10413SOL    HW238480   8.899  10.201   7.179  0.3644 -1.0759  1.0341
10414SOL     OW38481   5.495  12.472  11.101  0.5881  0.1930  0.2583
10414SOL    HW138482   5.467  12.519  11.023 -0.1712  1.4922  1.2552
10414SOL    HW238483   5.548  12.536  11.149  2.2446 -1.0432  0.1606
10415SOL     OW38484   8.466   1.517  12.459  0.0769  0.6193 -0.7491
10415SOL    HW138485   8.480   1.536  12.552 -0.9563  3.7929 -1.1357
10415SOL    HW238486   8.371   1.516  12.448  0.1164 -1.9412 -1.4580
10416SOL     OW38487   4.651   3.655   0.162 -0.0922  0.5427  0.4439
10416SOL    HW138488   4.661   3.682   0.253  0.7649 -0.1998  0.5879
10416SOL    HW238489   4.713   3.710   0.114  1.1344 -0.5871  0.6435
10417SOL     OW38490  11.350  12.235   4.387 -0.5538  0.3928 -0.0866
10417SOL    HW138491  11.370  12.246   4.480 -3.4340 -0.9764  0.8033
10417SOL    HW238492  11.357  12.141   4.372 -1.1019  0.4927 -1.0176
10418SOL     OW38493   6.278  12.624   8.776 -0.7520 -1.1735 -0.4769
10418SOL    HW138494   6.351  12.666   8.731 -0.8101  0.1666  0.6284
10418SOL    HW238495   6.315  12.543   8.812 -0.7850 -2.4892 -3.1191
10419SOL     OW38496   7.880   9.052   8.872 -0.6933 -0.0999 -0.3684
10419SOL    HW138497   7.876   9.145   8.896  0.8819 -0.3053  0.8279
10419SOL    HW238498   7.815   9.043   8.803 -1.2929  1.7754 -0.1173
10420SOL     OW38499   2.765  11.121   9.449 -0.1121  0.1041  0.1135
10420SOL    HW138500   2.828  11.122   9.521 -1.4742 -0.6826  1.3796
10420SOL    HW238501   2.702  11.189   9.471 -1.3919 -1.1461  0.5194
10421SOL     OW38502   0.061   7.404   7.968 -0.2032  0.5054  0.5309
10421SOL    HW138503   0.156   7.399   7.960 -0.2160  0.5486  0.3466
10421SOL    HW238504   0.044   7.390   8.061  0.0973  2.1304  0.8672
10422SOL     OW38505   2.745   8.665  10.104  0.1656 -0.2083  0.6533
10422SOL    HW138506   2.778   8.586  10.148  1.1811  0.3233  0.8895
10422SOL    HW238507   2.769   8.653  10.012 -2.1848 -1.4365  0.1301
10423SOL     OW38508  11.562  12.024   7.105  0.0598 -0.0492 -0.0981
10423SOL    HW138509  11.538  12.044   7.196 -2.5361 -1.1049 -0.4808
10423SOL    HW238510  11.657  12.037   7.103  0.1221  0.6304  2.5928
10424SOL     OW38511   7.106   3.866   7.004 -0.7325 -0.1984  0.6721
10424SOL    HW138512   7.014   3.880   6.984 -0.5505  0.2828  0.1545
10424SOL    HW238513   7.146   3.953   7.001  0.3477 -0.6532 -2.2643
10425SOL     OW38514   0.089   1.625   3.369  0.3009 -0.3447  0.3379
10425SOL    HW138515   0.146   1.696   3.399 -0.2330 -0.4374  1.6835
10425SOL    HW238516   0.001   1.652   3.399 -0.2812 -0.4778 -1.1738
10426SOL     OW38517  10.497   8.443  12.128 -0.6653  0.2672  0.0475
10426SOL    HW138518  10.539   8.445  12.042 -0.3597 -0.6409  0.1642
10426SOL    HW238519  10.546   8.377  12.177 -1.3728  0.1716  0.6391
10427SOL     OW38520   9.902   1.609  11.904  0.2639  0.4719 -0.3137
10427SOL    HW138521   9.849   1.659  11.843 -0.1383  0.7813  0.2801
10427SOL    HW238522   9.960   1.674  11.944 -0.2287  0.4780  0.4235
10428SOL     OW38523   4.243  10.927   8.268  0.1258 -0.0044  0.2211
10428SOL    HW138524   4.338  10.939   8.275  0.3136 -1.1048 -0.1824
10428SOL    HW238525   4.232  10.834   8.248 -1.0537  0.0731  0.4221
10429SOL     OW38526   7.723   1.730   1.675  0.0303  0.3544  0.1093
10429SOL    HW138527   7.724   1.825   1.670 -1.0059  0.3582 -0.1682
10429SOL    HW238528   7.754   1.701   1.589  0.2240  0.4306  0.1520
10430SOL     OW38529   6.450   7.928  11.078 -0.1398  0.3530  0.0424
10430SOL    HW138530   6.507   7.906  11.152 -0.8044 -1.2356  0.1216
10430SOL    HW238531   6.436   7.845  11.033 -0.9613  1.0371 -1.0071
10431SOL     OW38532   9.599   3.206   7.353 -0.4845 -0.0456 -0.2053
10431SOL    HW138533   9.670   3.211   7.417 -0.6485 -1.8570  0.1567
10431SOL    HW238534   9.612   3.123   7.308 -1.0048  0.6920 -1.8043
10432SOL     OW38535   4.665  10.322   8.898  0.4139  0.1417 -0.3228
10432SOL    HW138536   4.757  10.329   8.923  0.5085  1.2974 -0.9426
10432SOL    HW238537   4.624  10.401   8.932 -0.0883  0.2348 -1.1052
10433SOL     OW38538   8.900   7.201   8.105 -0.1258  0.3894 -0.0937
10433SOL    HW138539   8.845   7.276   8.082  0.6114  0.3961 -2.0462
10433SOL    HW238540   8.975   7.207   8.045  1.3068 -0.4162  1.5332
10434SOL     OW38541  10.657   7.475   0.916  0.0981 -0.6652  0.0953
10434SOL    HW138542  10.585   7.531   0.887 -0.6215 -0.9854  1.1522
10434SOL    HW238543  10.731   7.500   0.862 -0.4481  0.6557 -0.0893
10435SOL     OW38544   2.203   5.217   1.749  0.0764 -0.4146  0.5472
10435SOL    HW138545   2.239   5.223   1.837  0.8124 -1.5465  0.3372
10435SOL    HW238546   2.108   5.213   1.762  0.1059  0.6557  1.2084
10436SOL     OW38547   8.363  10.397   6.987  0.5823 -0.6054  0.2906
10436SOL    HW138548   8.440  10.380   6.933  0.8575 -0.4435  0.6271
10436SOL    HW238549   8.289  10.389   6.927  0.8320 -1.1519  0.0493
10437SOL     OW38550  10.787   9.219  12.591  0.3508  0.3168 -0.3772
10437SOL    HW138551  10.867   9.167  12.587 -0.0627 -0.5962  1.6118
10437SOL    HW238552  10.807   9.290  12.652 -0.3566  0.0284  0.2054
10438SOL     OW38553   4.271   8.150   3.132  0.4790 -0.5748 -0.0718
10438SOL    HW138554   4.178   8.171   3.124  0.6021  0.1930  0.3863
10438SOL    HW238555   4.314   8.209   3.071  0.8805  0.9950  1.6274
10439SOL     OW38556   3.311  11.663   9.981  0.2354  0.1556 -0.3161
10439SOL    HW138557   3.341  11.738  10.031  0.9854 -0.7696  0.6851
10439SOL    HW238558   3.355  11.671   9.896 -0.6285  1.4564 -0.6659
10440SOL     OW38559   0.307   5.173   7.594  0.2015 -0.1840  0.2095
10440SOL    HW138560   0.256   5.208   7.667 -1.2979 -1.0152 -0.3989
10440SOL    HW238561   0.343   5.091   7.626 -1.9168 -1.4545 -0.4701
10441SOL     OW38562   3.017   3.433   6.793 -0.0381 -0.4734  0.2611
10441SOL    HW138563   2.932   3.410   6.755 -0.0420 -1.4445  0.8232
10441SOL    HW238564   3.080   3.412   6.724 -0.3384  2.1652 -0.9653
10442SOL     OW38565   5.722   8.327  10.571 -0.6106  0.4686  0.2180
10442SOL    HW138566   5.718   8.421  10.584 -0.2471  0.3788  1.0473
10442SOL    HW238567   5.724   8.290  10.660 -0.1387 -0.2863 -0.0900
10443SOL     OW38568   7.317   6.952   3.832 -0.4657 -0.6239  0.1898
10443SOL    HW138569   7.350   6.965   3.921  2.4147  0.8977 -0.9801
10443SOL    HW238570   7.222   6.962   3.841 -0.1882  0.6381  2.9036
10444SOL     OW38571   9.339   8.030   0.257  0.3285 -0.3369  0.6726
10444SOL    HW138572   9.412   8.068   0.306  1.3635 -1.6398  0.1774
10444SOL    HW238573   9.285   8.106   0.234  2.2998  0.8839 -0.2468
10445SOL     OW38574  11.571   7.261   5.778  0.0338  0.1088  0.0059
10445SOL    HW138575  11.648   7.290   5.730  0.4438 -1.2776 -0.2144
10445SOL    HW238576  11.600   7.256   5.869  0.5895 -1.5336 -0.2256
10446SOL     OW38577   0.889  10.605   9.046  0.4062  0.0159  0.5543
10446SOL    HW138578   0.853  10.519   9.066  3.0020 -1.5141 -0.7931
10446SOL    HW238579   0.824  10.646   8.988 -0.8976 -0.9690  1.2716
10447SOL     OW38580   6.285  10.471   7.720  0.1183 -0.5538  0.3579
10447SOL    HW138581   6.346  10.425   7.778 -1.2153 -3.1099 -0.1071
10447SOL    HW238582   6.262  10.405   7.654 -1.5851  0.9748 -0.6376
10448SOL     OW38583   3.028   5.816  11.789  0.3311 -0.3042 -0.3642
10448SOL    HW138584   2.953   5.863  11.754  1.0908  0.5636 -0.8519
10448SOL    HW238585   3.025   5.833  11.884 -0.1616 -0.4035 -0.3572
10449SOL     OW38586   7.029   1.824   7.906 -0.7470  0.3219 -0.5389
10449SOL    HW138587   7.046   1.909   7.865  0.2769  0.0301 -0.7496
10449SOL    HW238588   7.092   1.764   7.865  0.4406  0.0447  1.5610
10450SOL     OW38589   3.838   8.529   3.747  0.2634 -0.2679  0.8463
10450SOL    HW138590   3.911   8.586   3.724  0.3585 -0.8342 -0.2883
10450SOL    HW238591   3.879   8.446   3.772  0.0240 -0.5314  0.3743
10451SOL     OW38592  11.677   1.176   7.906  0.9766 -0.6411 -0.2530
10451SOL    HW138593  11.757   1.228   7.898  1.3609 -1.0997  0.5169
10451SOL    HW238594  11.706   1.093   7.943  0.1154 -0.7418  0.2249
10452SOL     OW38595   1.066   7.401   3.535 -0.0041 -0.1987  0.6142
10452SOL    HW138596   1.157   7.374   3.534  0.9255  2.5755  0.0049
10452SOL    HW238597   1.051   7.433   3.624  1.0800  3.3634 -0.3280
10453SOL     OW38598  10.751  11.472   8.864  0.5026 -0.0983  0.3166
10453SOL    HW138599  10.704  11.388   8.866 -0.6330  0.5231  0.7921
10453SOL    HW238600  10.750  11.502   8.955  0.6244  0.5751  0.1008
10454SOL     OW38601  12.309   6.159   4.129  0.1130 -0.0247  0.0689
10454SOL    HW138602  12.366   6.235   4.118  0.0644 -0.1876 -1.4787
10454SOL    HW238603  12.220   6.194   4.126  0.0654  0.1548  1.9378
10455SOL     OW38604   1.264   9.381   3.372 -0.0630  0.0516  0.4839
10455SOL    HW138605   1.223   9.302   3.337 -0.8228  1.1865 -1.3430
10455SOL    HW238606   1.307   9.352   3.452  2.8717 -3.0218 -1.9356
10456SOL     OW38607   9.279   2.070  12.276 -0.1618 -0.3410 -0.0424
10456SOL    HW138608   9.352   2.088  12.216 -0.3963 -0.8065 -0.4787
10456SOL    HW238609   9.241   1.989  12.242 -1.3358  0.2830 -0.2565
10457SOL     OW38610   4.808   0.407   6.228 -0.2749 -0.0211 -0.7286
10457SOL    HW138611   4.808   0.468   6.301  1.3222 -0.6680 -0.1332
10457SOL    HW238612   4.849   0.456   6.156 -0.1155  0.0091 -0.6184
10458SOL     OW38613  10.038   1.649  10.757 -1.1860 -0.2296  0.1955
10458SOL    HW138614  10.084   1.724  10.796  0.5562 -0.7889 -0.6433
10458SOL    HW238615  10.027   1.587  10.829 -0.1020 -0.2964  0.3254
10459SOL     OW38616  10.598   3.512   1.923 -0.3835  0.7549  0.0219
10459SOL    HW138617  10.629   3.584   1.977  0.0911  0.7802 -0.2725
10459SOL    HW238618  10.602   3.547   1.833  1.0062 -0.0142 -0.2491
10460SOL     OW38619  12.225   6.506   5.522  0.0882 -0.3211 -0.3904
10460SOL    HW138620  12.213   6.594   5.487  2.3296 -0.2620 -1.1495
10460SOL    HW238621  12.274   6.519   5.604 -0.0052 -0.8374 -0.2478
10461SOL     OW38622   1.110   4.595   9.181 -0.0016 -0.1077  0.0826
10461SOL    HW138623   1.080   4.541   9.254  0.9028 -0.1408  0.4471
10461SOL    HW238624   1.189   4.550   9.149  0.9177  1.0995  0.5466
10462SOL     OW38625   5.786   5.823   7.411  0.2648 -0.0755  0.0666
10462SOL    HW138626   5.726   5.866   7.349  1.2310 -0.4385 -1.1725
10462SOL    HW238627   5.730   5.791   7.481 -0.8317  0.6692 -0.4420
10463SOL     OW38628  12.638   0.260   0.756  0.2458  0.0476  0.4621
10463SOL    HW138629  12.542   0.252   0.760  0.2113  0.7250  1.6195
10463SOL    HW238630  12.654   0.352   0.778  1.2115 -0.3504  1.5008
10464SOL     OW38631   6.297   0.765  12.650  0.3112  0.8934  0.5610
10464SOL    HW138632   6.387   0.799  12.646  0.6543 -0.1282 -1.5026
10464SOL    HW238633   6.263   0.774  12.561 -0.5226 -1.5585  0.5400
10465SOL     OW38634   1.167  11.002   7.552  0.7910  0.3008 -0.0466
10465SOL    HW138635   1.109  11.078   7.563  0.2504  0.3230 -2.4577
10465SOL    HW238636   1.249  11.028   7.593  0.7255  2.3763 -1.0991
10466SOL     OW38637   6.109   5.107  10.760 -0.1055  0.2780  0.0172
10466SOL    HW138638   6.085   5.193  10.793 -0.3179 -0.7280  2.7648
10466SOL    HW238639   6.204   5.106  10.762 -0.0855  0.5839 -0.4944
10467SOL     OW38640   8.558   3.880   9.409 -0.4399  0.1734 -0.2722
10467SOL    HW138641   8.647   3.845   9.412 -0.8521 -0.9260  3.1515
10467SOL    HW238642   8.504   3.810   9.444 -2.1086  2.1457  1.3035
10468SOL     OW38643   6.939   2.824   3.174 -0.5760 -0.4026 -0.2556
10468SOL    HW138644   6.862   2.870   3.205  0.4750  1.0644  0.2861
10468SOL    HW238645   6.929   2.822   3.078 -1.9468 -1.5233 -0.1266
10469SOL     OW38646  10.606   1.413   6.742  0.0416 -0.5875  0.0223
10469SOL    HW138647  10.538   1.347   6.728  0.2984 -1.1083  1.1090
10469SOL    HW238648  10.660   1.377   6.813  0.9587  0.1976 -0.2565
10470SOL     OW38649   4.692   4.947  11.213 -0.3515 -0.0759  0.3036
10470SOL    HW138650   4.665   5.023  11.266 -2.3254  1.6695 -2.9149
10470SOL    HW238651   4.612   4.897  11.200  0.3523 -1.1367 -0.0736
10471SOL     OW38652  12.570   6.939   9.305  0.3650 -0.3681 -0.4584
10471SOL    HW138653  12.626   6.867   9.333  0.1743  0.1714  1.4675
10471SOL    HW238654  12.486   6.922   9.347 -0.1594  0.1691 -1.2504
10472SOL     OW38655   0.545   4.188   7.887 -0.0142 -0.6103  0.7313
10472SOL    HW138656   0.551   4.139   7.805 -2.0653 -1.5261  1.0593
10472SOL    HW238657   0.559   4.279   7.862  0.0211 -0.9502 -0.5470
10473SOL     OW38658   7.541   9.734  10.088 -0.0264  0.5605 -0.0845
10473SOL    HW138659   7.533   9.794  10.163 -1.1909 -0.2173  0.4547
10473SOL    HW238660   7.632   9.742  10.060  0.3990  0.9876  1.3278
10474SOL     OW38661  12.374   9.296   4.984 -0.0150  0.5988 -0.0164
10474SOL    HW138662  12.360   9.277   5.077  0.4429  0.4381  0.0254
10474SOL    HW238663  12.460   9.339   4.982  0.0159  0.5199 -0.3729
10475SOL     OW38664   4.893   8.479   7.656  0.5784 -0.4710 -0.2700
10475SOL    HW138665   4.907   8.516   7.743 -2.3752 -0.0976  0.1593
10475SOL    HW238666   4.844   8.398   7.673  0.3898 -0.6455 -1.5756
10476SOL     OW38667   2.849   3.493   1.871 -0.2052  0.5998 -0.2184
10476SOL    HW138668   2.848   3.421   1.809 -1.9731 -0.5513  1.0450
10476SOL    HW238669   2.889   3.457   1.950  3.0458  2.3537 -0.8996
10477SOL     OW38670   3.231   2.106  12.379 -0.4669  0.8615  0.1927
10477SOL    HW138671   3.166   2.174  12.394 -1.5684 -0.3442  1.0896
10477SOL    HW238672   3.210   2.070  12.293  1.4938  3.0567 -1.3349
10478SOL     OW38673  11.792  11.604   0.987 -0.1153  0.6349 -0.6246
10478SOL    HW138674  11.729  11.673   0.963 -2.1415 -0.9520 -0.1505
10478SOL    HW238675  11.737  11.528   1.007  1.8934 -0.4445  1.1808
10479SOL     OW38676  12.636   1.374   3.175 -0.3779 -0.5214  0.6384
10479SOL    HW138677  12.640   1.461   3.136 -0.0986 -0.7790  0.0788
10479SOL    HW238678  12.585   1.386   3.255  0.5427  0.3524  1.1043
10480SOL     OW38679   2.448  10.105  12.274 -0.0974 -0.0027 -0.2456
10480SOL    HW138680   2.415  10.053  12.348 -0.2193  0.1122 -0.2186
10480SOL    HW238681   2.378  10.168  12.256 -0.2038 -0.2347 -0.6603
10481SOL     OW38682  10.724   3.841   9.496 -0.2402  0.5497 -0.2350
10481SOL    HW138683  10.733   3.874   9.585  0.2450  0.4874 -0.2550
10481SOL    HW238684  10.783   3.895   9.444  0.5168 -0.2885 -0.2793
10482SOL     OW38685   2.641   8.206   5.787  0.3087 -0.4815  0.2842
10482SOL    HW138686   2.674   8.288   5.749  2.1401 -0.9049  0.8632
10482SOL    HW238687   2.652   8.217   5.882 -0.6621 -0.9010  0.4561
10483SOL     OW38688   1.435  12.629   5.089  0.1244 -0.5320 -0.1454
10483SOL    HW138689   1.386  12.706   5.116  0.4933 -0.4980  0.4433
10483SOL    HW238690   1.511  12.627   5.147  1.3478 -0.0342 -1.6251
10484SOL     OW38691   5.140   5.676   7.382  0.7147  0.2216  0.4719
10484SOL    HW138692   5.090   5.750   7.346  1.3314  1.3612  1.8727
10484SOL    HW238693   5.202   5.716   7.442  1.3104 -1.4306  1.0022
10485SOL     OW38694   4.433  12.187   4.201 -0.0411  0.5745 -0.9531
10485SOL    HW138695   4.522  12.172   4.233 -0.1432  0.4079 -0.7487
10485SOL    HW238696   4.435  12.277   4.167  0.3216  0.4230 -1.3447
10486SOL     OW38697   1.468   0.305   5.748  0.0198 -0.0119  0.1821
10486SOL    HW138698   1.411   0.378   5.724  0.5225 -0.1803 -1.6848
10486SOL    HW238699   1.524   0.341   5.817 -0.6035  0.9473  0.2121
10487SOL     OW38700  12.236   9.264   5.961 -0.7301 -0.0249 -0.8718
10487SOL    HW138701  12.201   9.274   6.049  0.5841 -0.3318 -0.2925
10487SOL    HW238702  12.211   9.175   5.935  1.5391 -1.1575  0.4866
10488SOL     OW38703   3.474   9.921   7.942  0.0418  0.4772 -0.0355
10488SOL    HW138704   3.515   9.879   8.017 -1.2339  0.4264  0.6651
10488SOL    HW238705   3.381   9.902   7.952 -0.3266  1.7549 -0.8145
10489SOL     OW38706   2.111   8.329  11.636  0.1569  1.1526 -0.0336
10489SOL    HW138707   2.029   8.327  11.685 -1.4163 -0.2035 -2.5030
10489SOL    HW238708   2.113   8.416  11.596 -0.3075  1.0474 -0.2937
10490SOL     OW38709  10.730  11.399   9.144 -0.0377  0.5699 -0.2415
10490SOL    HW138710  10.726  11.485   9.187  1.1840  1.3547 -1.6035
10490SOL    HW238711  10.644  11.360   9.161 -0.3281  1.7048  1.1080
10491SOL     OW38712   4.571  10.325   4.790  0.3643  0.1358  0.1562
10491SOL    HW138713   4.640  10.386   4.768 -0.7993  1.5434  0.2889
10491SOL    HW238714   4.591  10.298   4.880  1.3059 -0.3007 -0.1717
10492SOL     OW38715   3.142   2.031  10.741 -0.0416 -0.2451 -0.4854
10492SOL    HW138716   3.176   2.064  10.658 -1.2404 -0.1733 -0.9761
10492SOL    HW238717   3.134   1.936  10.729  0.4117 -0.3203 -0.2097
10493SOL     OW38718  10.388  12.160   6.202  0.3893 -0.3433 -0.0990
10493SOL    HW138719  10.462  12.212   6.233 -1.0483  1.4526  0.5191
10493SOL    HW238720  10.333  12.148   6.280 -0.6757 -0.3583 -0.8347
10494SOL     OW38721   2.968  10.066   8.812  0.3188 -0.0208  0.1389
10494SOL    HW138722   2.941   9.985   8.856  0.5442 -1.4009 -2.0984
10494SOL    HW238723   3.052  10.088   8.851 -0.6782  0.3403  2.2120
10495SOL     OW38724  10.362   3.036  11.384 -0.3251  0.1980 -0.2150
10495SOL    HW138725  10.373   3.081  11.300  0.2317  0.8923  0.2115
10495SOL    HW238726  10.334   3.105  11.444  0.9342  0.0791  0.5486
10496SOL     OW38727   6.802   2.350   3.542  0.4038  0.0649 -0.1288
10496SOL    HW138728   6.792   2.443   3.561 -0.4034  0.0362 -0.3714
10496SOL    HW238729   6.745   2.307   3.606  0.8703 -0.2706  0.0623
10497SOL     OW38730   0.302   9.816   8.890 -0.6912 -0.3833  0.1920
10497SOL    HW138731   0.217   9.837   8.928 -0.8272 -1.5721  0.5936
10497SOL    HW238732   0.283   9.753   8.821 -0.2314  0.1600 -0.4482
10498SOL     OW38733   0.424  11.986   8.918 -0.8254  0.7170 -0.1827
10498SOL    HW138734   0.404  11.982   8.824 -1.0099 -0.5794 -0.1079
10498SOL    HW238735   0.425  12.079   8.938  0.7579  1.1025 -1.7994
10499SOL     OW38736   7.526   0.339   6.121  0.5130 -0.0144  0.0660
10499SOL    HW138737   7.448   0.284   6.131  0.7966 -0.6049 -0.8358
10499SOL    HW238738   7.494   0.428   6.137 -0.2959 -0.2775 -0.0120
10500SOL     OW38739   3.984   3.718   5.708  0.1977 -0.4394 -0.0892
10500SOL    HW138740   3.961   3.665   5.632 -2.1100 -0.2448  0.4037
10500SOL    HW238741   3.982   3.657   5.782  0.8564 -0.3090  0.0457
10501SOL     OW38742   9.523   3.746  12.469  0.0772  0.4933 -0.3293
10501SOL    HW138743   9.454   3.794  12.423 -1.2506 -0.0884  0.9757
10501SOL    HW238744   9.514   3.771  12.560  1.6711  0.4545 -0.1350
10502SOL     OW38745   1.290  11.450   9.763 -0.5200 -0.1851 -0.3292
10502SOL    HW138746   1.204  11.474   9.729 -0.2578  1.3209  0.0238
10502SOL    HW238747   1.339  11.532   9.766  0.5033 -0.7995  0.7125
10503SOL     OW38748  10.800  12.020  11.497  0.1743 -0.2570 -0.0027
10503SOL    HW138749  10.882  12.009  11.449  0.0726 -1.6639  0.1072
10503SOL    HW238750  10.825  12.016  11.589  0.1927  1.1116  0.0780
10504SOL     OW38751  10.418   9.622   5.794  0.1616 -0.3115  0.0729
10504SOL    HW138752  10.432   9.670   5.875 -0.0200  0.2601 -0.2347
10504SOL    HW238753  10.408   9.531   5.822 -0.9852  0.0210  0.8022
10505SOL     OW38754   9.623  10.973   1.799 -0.4224  0.0702  0.7257
10505SOL    HW138755   9.628  10.902   1.863  1.4565 -0.4653  0.0395
10505SOL    HW238756   9.531  10.973   1.770 -0.5700 -1.7564  1.0855
10506SOL     OW38757   9.989  11.307   5.709  0.1610  0.2947  0.1004
10506SOL    HW138758   9.957  11.396   5.721  1.2861  0.6635  0.4642
10506SOL    HW238759  10.035  11.286   5.790 -0.7816 -0.9301  0.3534
10507SOL     OW38760  11.240   8.217   6.952 -0.2425 -0.0969 -0.0147
10507SOL    HW138761  11.222   8.227   7.046 -0.3993  0.3454 -0.0903
10507SOL    HW238762  11.158   8.239   6.909 -0.3593 -0.9254 -0.2327
10508SOL     OW38763  10.598   6.735  12.202  0.7481  0.1582  0.4401
10508SOL    HW138764  10.582   6.829  12.206 -1.6036 -0.1546 -0.0291
10508SOL    HW238765  10.684   6.724  12.243  0.6630  2.3957  1.4036
10509SOL     OW38766  11.841   3.626   7.028  0.0587  0.3242  0.2006
10509SOL    HW138767  11.782   3.616   7.103  0.0174  0.6846  0.2134
10509SOL    HW238768  11.797   3.687   6.970 -0.2406 -0.4999 -0.4586
10510SOL     OW38769   0.776   0.108   8.983 -0.5591  0.3512 -0.4785
10510SOL    HW138770   0.693   0.121   8.938  0.1816 -0.0635 -2.0514
10510SOL    HW238771   0.822   0.192   8.973 -0.6494  0.4823  0.1313
10511SOL     OW38772   7.292   2.730   4.239 -0.2911  0.1929  0.3585
10511SOL    HW138773   7.245   2.673   4.300  0.0443 -0.6179 -0.1252
10511SOL    HW238774   7.223   2.777   4.192 -0.6156 -0.6913 -0.0662
10512SOL     OW38775   2.001   5.763   6.662  0.4329  0.6489  0.4558
10512SOL    HW138776   2.041   5.823   6.726 -0.5401 -1.2224  3.0023
10512SOL    HW238777   2.065   5.693   6.653  0.7132  1.0643 -0.9751
10513SOL     OW38778   9.730  10.205   5.539  0.2256 -0.2256  0.4334
10513SOL    HW138779   9.669  10.270   5.504  1.5807  1.4689  1.0511
10513SOL    HW238780   9.781  10.253   5.604  0.5825 -2.2073  1.7163
10514SOL     OW38781   1.771   7.563  11.184 -0.7013 -0.0067  0.0491
10514SOL    HW138782   1.798   7.649  11.216  0.5036 -0.6196  0.7166
10514SOL    HW238783   1.689   7.580  11.136  0.2545  1.7322 -1.0666
10515SOL     OW38784  12.627   3.008  10.401 -0.0251 -0.2146  0.2913
10515SOL    HW138785  12.591   3.082  10.449 -1.6289 -1.0589  0.4589
10515SOL    HW238786  12.562   2.990  10.333  0.2440 -1.5740  0.3650
10516SOL     OW38787   1.152   6.549  10.936  0.2566  0.4241  0.2451
10516SOL    HW138788   1.110   6.562  10.851 -0.6376  0.5694  0.7069
10516SOL    HW238789   1.245   6.565  10.918  0.2519 -0.6498 -0.9502
10517SOL     OW38790   7.986   6.850  12.200  0.0408  0.0619 -0.3921
10517SOL    HW138791   7.905   6.893  12.175 -0.1012  0.2213  0.3284
10517SOL    HW238792   7.977   6.760  12.166 -1.1679 -0.4320  1.1228
10518SOL     OW38793   6.990  11.522   1.737 -0.1682  0.6080 -0.1196
10518SOL    HW138794   6.992  11.601   1.790  0.2089  0.3497  0.2556
10518SOL    HW238795   6.897  11.498   1.734 -0.2227  0.7707  0.2027
10519SOL     OW38796   7.998   0.359   9.010  0.1152 -0.0581 -0.9422
10519SOL    HW138797   7.949   0.418   8.953  0.3345  0.4034 -0.6581
10519SOL    HW238798   8.088   0.363   8.978  0.1332 -0.2356 -0.9170
10520SOL     OW38799   8.413  12.158   3.420  0.0854 -0.2965  0.0575
10520SOL    HW138800   8.493  12.106   3.405  0.0508  0.0206 -1.3418
10520SOL    HW238801   8.357  12.136   3.345 -0.8832 -0.0201  0.6960
10521SOL     OW38802   4.069   6.214  11.231 -0.0914 -0.2453  0.3061
10521SOL    HW138803   4.076   6.281  11.299 -0.9434 -0.2634  0.4195
10521SOL    HW238804   4.154   6.170  11.231 -0.2946 -0.6946  1.8274
10522SOL     OW38805   4.890  10.246  11.671  0.3224 -0.2127 -0.2679
10522SOL    HW138806   4.977  10.229  11.634  0.3574  0.3040 -0.4405
10522SOL    HW238807   4.829  10.223  11.601  0.2853 -1.1844  0.0768
10523SOL     OW38808   8.408   6.208   9.001  0.0962 -0.4318  0.3909
10523SOL    HW138809   8.452   6.216   9.086  0.8717  1.0465 -0.1308
10523SOL    HW238810   8.390   6.298   8.974 -3.1226 -0.9179  0.4773
10524SOL     OW38811  11.983   5.268   5.814 -0.2320 -0.1777 -0.1837
10524SOL    HW138812  12.014   5.305   5.896  1.7695 -1.8621 -0.0928
10524SOL    HW238813  11.998   5.338   5.750  0.0762  0.4509  0.5541
10525SOL     OW38814   2.548   6.222   2.702 -0.8440 -0.7012 -0.1139
10525SOL    HW138815   2.545   6.133   2.666 -0.1022 -0.3352 -1.1269
10525SOL    HW238816   2.618   6.218   2.768 -2.6282 -1.5363  1.8675
10526SOL     OW38817   2.992   3.307  11.778 -0.0508  0.0479  0.0443
10526SOL    HW138818   2.972   3.217  11.802 -0.8484  0.1408 -0.2357
10526SOL    HW238819   2.917   3.335  11.726  0.1284  0.9214  0.2430
10527SOL     OW38820  10.795   3.345   4.018 -0.3102 -0.1384  0.5701
10527SOL    HW138821  10.875   3.397   4.013 -0.1591 -0.3180  1.0459
10527SOL    HW238822  10.731   3.403   4.060 -0.4190 -0.0060  0.2190
10528SOL     OW38823   2.013  12.614   5.662 -0.7178  0.2551 -0.3186
10528SOL    HW138824   1.984  12.586   5.749  1.6047 -0.3063  0.3281
10528SOL    HW238825   2.057  12.698   5.677  0.6867 -0.3882 -0.7487
10529SOL     OW38826   2.109   3.705   3.868 -0.0403  0.3414  0.4670
10529SOL    HW138827   2.050   3.695   3.943 -0.6422 -0.6005 -0.1133
10529SOL    HW238828   2.193   3.669   3.898 -0.1485  0.3935  0.8344
10530SOL     OW38829   7.205   9.122  10.437 -0.0755 -0.1305 -0.0674
10530SOL    HW138830   7.226   9.116  10.530 -0.9828  0.1767  0.1602
10530SOL    HW238831   7.180   9.213  10.424  0.4551 -0.0687 -0.7094
10531SOL     OW38832   5.905  11.728   0.153  0.0063  0.1311 -0.4273
10531SOL    HW138833   5.996  11.736   0.125 -0.0450 -1.5158 -1.1931
10531SOL    HW238834   5.859  11.799   0.109  0.5142 -0.4680 -1.9807
10532SOL     OW38835   5.758   1.571   7.547  0.7876  0.0965  0.1492
10532SOL    HW138836   5.750   1.633   7.619  0.0668  0.4214 -0.2045
10532SOL    HW238837   5.731   1.487   7.584 -1.6543  0.6477 -0.2704
10533SOL     OW38838   5.808   2.342   9.031  0.3286 -0.2009 -0.0725
10533SOL    HW138839   5.746   2.386   9.088 -0.4067 -1.5432  0.2107
10533SOL    HW238840   5.874   2.408   9.011 -0.4721  0.8638  0.7084
10534SOL     OW38841   1.645   8.735   2.916  0.0943  0.3640  0.2855
10534SOL    HW138842   1.620   8.663   2.975 -0.4305 -0.7868 -1.2864
10534SOL    HW238843   1.650   8.812   2.973  0.0384 -0.7833  1.9073
10535SOL     OW38844   4.932   4.840   8.641  0.2651  1.1274  0.1531
10535SOL    HW138845   4.922   4.864   8.549  1.1965 -1.9560 -0.8692
10535SOL    HW238846   5.013   4.790   8.644 -1.4037 -1.7244  1.9472
10536SOL     OW38847  11.882  10.848  12.056  0.0607 -0.2703 -0.0486
10536SOL    HW138848  11.958  10.838  11.998 -0.9530 -1.8519 -1.2048
10536SOL    HW238849  11.829  10.916  12.014 -0.4895 -1.1474 -0.8015
10537SOL     OW38850   9.582  10.416   5.418  0.1289  0.0230 -0.5744
10537SOL    HW138851   9.638  10.378   5.350  0.4465 -0.3524 -0.1089
10537SOL    HW238852   9.493  10.407   5.384  0.3879  1.3399 -1.6712
10538SOL     OW38853   4.362   6.440  11.684 -0.3047 -0.1581  0.2305
10538SOL    HW138854   4.416   6.406  11.613 -1.1482  0.7681 -0.8812
10538SOL    HW238855   4.423   6.492  11.737  0.0271  0.4578 -0.7235
10539SOL     OW38856   6.496  12.286   0.514  0.6967 -0.4870 -0.5257
10539SOL    HW138857   6.429  12.355   0.509  0.5557 -0.6868 -2.0270
10539SOL    HW238858   6.565  12.316   0.455  0.7287 -1.5264 -1.0382
10540SOL     OW38859   4.840  11.818   6.580 -0.0214  0.6470 -0.0406
10540SOL    HW138860   4.864  11.765   6.655 -2.0242  0.7463  0.7256
10540SOL    HW238861   4.910  11.884   6.573  0.6711  0.0588  1.1354
10541SOL     OW38862  10.539   9.820   0.368 -0.2043  0.1384  0.0167
10541SOL    HW138863  10.587   9.855   0.443  0.3556 -1.4993  0.4570
10541SOL    HW238864  10.587   9.851   0.292  0.7083 -0.2562  0.4189
10542SOL     OW38865   3.220   9.204   9.137 -0.6234  0.4324 -0.2904
10542SOL    HW138866   3.242   9.268   9.069 -1.0013  1.9491  0.9738
10542SOL    HW238867   3.139   9.236   9.175 -1.5246 -1.5141 -0.4590
10543SOL     OW38868  10.802   4.351   7.717 -0.0783 -0.5789 -0.1647
10543SOL    HW138869  10.783   4.424   7.776 -2.2427 -1.6489  0.5683
10543SOL    HW238870  10.881   4.378   7.670 -0.5087  2.0002  0.4329
10544SOL     OW38871   8.432   0.506   2.900  0.5778  0.1989  0.1462
10544SOL    HW138872   8.510   0.476   2.854  1.7425  1.2393  1.3613
10544SOL    HW238873   8.450   0.598   2.920 -0.0261 -0.0939  2.2910
10545SOL     OW38874   5.436   0.843   0.035 -0.9831  0.3047 -0.6216
10545SOL    HW138875   5.443   0.762  -0.016  2.8861 -1.3059  1.9499
10545SOL    HW238876   5.353   0.836   0.081 -0.3141 -2.9122  0.3569
10546SOL     OW38877   2.952   8.172   5.705 -0.2601  0.3791  0.4647
10546SOL    HW138878   2.875   8.134   5.662 -0.2468  2.1808 -1.2752
10546SOL    HW238879   2.968   8.115   5.781  0.2608 -3.5459 -2.3139
10547SOL     OW38880  10.102  10.043   6.872  0.7365  0.0630  0.2186
10547SOL    HW138881  10.101  10.138   6.882  0.5886  0.2319 -1.2669
10547SOL    HW238882  10.010  10.019   6.862  0.8500 -0.0979 -0.4944
10548SOL     OW38883   7.430   1.484   5.034  0.2252 -0.8900 -0.5960
10548SOL    HW138884   7.449   1.489   4.940  0.7884 -0.3560 -0.4604
10548SOL    HW238885   7.403   1.393   5.049  0.2097 -0.9965 -1.2586
10549SOL     OW38886   4.010   3.244   5.982  0.4220  0.4201  0.7037
10549SOL    HW138887   4.095   3.201   5.970  0.7327  1.3651 -0.7499
10549SOL    HW238888   3.963   3.187   6.043  1.3437 -1.2119 -0.0349
10550SOL     OW38889   9.550   0.991   7.837 -0.0229 -0.0848 -0.3713
10550SOL    HW138890   9.597   0.984   7.754  0.0587  0.1923 -0.3507
10550SOL    HW238891   9.545   0.901   7.870  0.2046 -0.1573 -0.5330
10551SOL     OW38892   0.001   6.783   8.162  0.2731  0.1468  0.0978
10551SOL    HW138893   0.059   6.734   8.221  2.7552 -1.6404 -3.4412
10551SOL    HW238894  -0.077   6.728   8.155 -0.2334  0.5699  1.8723
10552SOL     OW38895   4.358   4.319   0.190  0.2745 -0.2897 -0.0593
10552SOL    HW138896   4.380   4.348   0.278  0.9051  2.1376 -0.9421
10552SOL    HW238897   4.380   4.226   0.189 -2.5910 -1.2273  3.2129
10553SOL     OW38898   1.503   6.870   8.105  0.4956  0.0180 -0.4236
10553SOL    HW138899   1.433   6.922   8.066  0.5067 -0.2423 -0.8033
10553SOL    HW238900   1.515   6.906   8.192 -1.0994 -0.8361  0.1917
10554SOL     OW38901  10.008   2.574   5.504  0.2160  0.1553  0.2206
10554SOL    HW138902   9.961   2.649   5.468 -1.8466 -0.9577  0.4018
10554SOL    HW238903   9.949   2.539   5.571 -0.6238 -3.6653 -2.1825
10555SOL     OW38904   7.147  10.703   3.602  0.6370  0.2076 -0.2747
10555SOL    HW138905   7.065  10.752   3.612  0.8796  0.2408  2.4357
10555SOL    HW238906   7.131  10.643   3.529 -1.3627  1.0470 -0.5893
10556SOL     OW38907  12.566   7.667   5.168 -0.8049  0.5735 -0.3928
10556SOL    HW138908  12.545   7.685   5.260  2.3136  0.8610  0.3821
10556SOL    HW238909  12.552   7.751   5.124 -1.7970  0.5776 -0.1012
10557SOL     OW38910   4.806   7.308   7.195  0.1943 -0.1282  0.5934
10557SOL    HW138911   4.739   7.376   7.204  0.4872  0.3388 -0.5624
10557SOL    HW238912   4.778   7.238   7.254 -0.2318  0.8977  1.6331
10558SOL     OW38913  11.923   8.982   4.232 -1.0112  0.1537 -0.2231
10558SOL    HW138914  11.958   8.973   4.143  1.1626 -0.5765  0.6292
10558SOL    HW238915  11.956   9.067   4.261 -0.9958  0.0095  0.1796
10559SOL     OW38916  12.681   4.203   4.434 -0.3819  0.1343 -0.0128
10559SOL    HW138917  12.776   4.204   4.430 -0.3052  2.8798  0.8824
10559SOL    HW238918  12.659   4.126   4.487  1.3520  0.0065  0.5525
10560SOL     OW38919   2.484   7.467   9.119 -0.0561  0.1685 -0.6611
10560SOL    HW138920   2.501   7.420   9.037 -1.7819  0.6288 -1.3242
10560SOL    HW238921   2.394   7.444   9.141  0.0656  0.8269  0.6075
10561SOL     OW38922   9.177  11.785   8.363  0.1240  0.2326 -0.2421
10561SOL    HW138923   9.191  11.845   8.437 -2.4195 -0.7579  1.1922
10561SOL    HW238924   9.243  11.810   8.299  1.6029  2.0356  1.8221
10562SOL     OW38925   3.826   0.104   7.557 -0.1936 -0.1005 -0.1901
10562SOL    HW138926   3.910   0.096   7.602 -0.8966 -0.2281  1.1439
10562SOL    HW238927   3.848   0.144   7.473  1.4021 -1.5926 -0.5545
10563SOL     OW38928   5.410   6.792   2.055 -0.0082 -0.7065  0.2582
10563SOL    HW138929   5.334   6.745   2.090 -0.4427 -0.2511 -0.0504
10563SOL    HW238930   5.376   6.879   2.034  0.9294 -0.0290  1.4454
10564SOL     OW38931  10.827   4.073   2.592  0.1241  0.2182  0.2344
10564SOL    HW138932  10.752   4.015   2.603  0.4488 -0.6973 -1.9957
10564SOL    HW238933  10.903   4.015   2.593  0.5650  0.7646 -0.5728
10565SOL     OW38934   6.538   3.155   9.699  0.4146 -0.8361 -0.0041
10565SOL    HW138935   6.524   3.223   9.633 -0.6593  0.0997  1.1442
10565SOL    HW238936   6.498   3.077   9.660  2.5138 -1.1545 -1.7572
10566SOL     OW38937   0.059   2.181   4.097  0.3750  0.1238 -0.1514
10566SOL    HW138938  -0.020   2.227   4.127 -1.5847 -2.7056 -0.6482
10566SOL    HW238939   0.103   2.154   4.178  0.4236  0.9888  0.1246
10567SOL     OW38940   7.259   3.548  10.045  0.2321  0.0049  0.1134
10567SOL    HW138941   7.247   3.596   9.964 -0.6579  0.0107  0.2305
10567SOL    HW238942   7.306   3.608  10.102  0.8456  0.0050 -0.3893
10568SOL     OW38943   2.472   8.183  11.791  0.4082 -0.0598  0.1916
10568SOL    HW138944   2.481   8.094  11.755  0.4649  0.2461 -0.5614
10568SOL    HW238945   2.559   8.204  11.824  1.2613  0.8836 -2.3995
10569SOL     OW38946  10.959   7.871   9.698  0.6327  0.2924  0.1699
10569SOL    HW138947  10.880   7.868   9.751  0.8305 -0.7442  0.4149
10569SOL    HW238948  10.966   7.784   9.658  1.2283  0.6152 -0.4631
10570SOL     OW38949   0.705   8.007   7.079 -0.2999  0.2641 -0.2326
10570SOL    HW138950   0.736   7.924   7.043 -0.1634 -0.1496  0.8044
10570SOL    HW238951   0.741   8.074   7.020  1.6775 -0.2648  0.3179
10571SOL     OW38952   0.281  12.485   7.294  0.7658  0.3876 -0.4914
10571SOL    HW138953   0.265  12.421   7.363 -0.1453  0.5404 -0.5526
10571SOL    HW238954   0.260  12.439   7.213  0.2831  0.6991 -0.5475
10572SOL     OW38955   9.272  10.531   9.987  0.3321  0.5403  0.3031
10572SOL    HW138956   9.313  10.614   9.963  0.8451 -0.4571 -2.6661
10572SOL    HW238957   9.215  10.509   9.913  0.2697 -1.7785  0.9360
10573SOL     OW38958   3.506   4.751  11.054  0.0234 -0.1804  0.4619
10573SOL    HW138959   3.442   4.690  11.019 -1.9316  1.7730  0.4506
10573SOL    HW238960   3.591   4.708  11.039 -1.1783 -2.4296 -0.3444
10574SOL     OW38961  12.119   2.334  10.250 -0.5251  0.3559 -0.2647
10574SOL    HW138962  12.160   2.250  10.228 -1.8487 -0.7386  1.2544
10574SOL    HW238963  12.072   2.359  10.170 -1.7132 -1.3627 -0.1501
10575SOL     OW38964   5.246  12.077   1.161 -0.1792  0.5242  0.0708
10575SOL    HW138965   5.302  11.999   1.163 -0.2513  0.4663 -0.1061
10575SOL    HW238966   5.175  12.057   1.222  0.7874  1.2198  1.4700
10576SOL     OW38967  10.533  10.051  10.322 -0.0290 -0.2131  0.5385
10576SOL    HW138968  10.525   9.976  10.262 -2.2863 -0.5165  1.1099
10576SOL    HW238969  10.606  10.029  10.380 -0.4508 -1.8388  0.4870
10577SOL     OW38970   1.520   8.683   4.081  0.4492 -0.1439 -0.1949
10577SOL    HW138971   1.557   8.766   4.051 -1.4859  0.7694 -0.1754
10577SOL    HW238972   1.531   8.685   4.176 -1.3424  1.0284  0.0233
10578SOL     OW38973  11.242   6.364   7.270 -0.4554 -0.4700  0.0148
10578SOL    HW138974  11.171   6.305   7.296  0.1966 -2.6087 -2.6189
10578SOL    HW238975  11.318   6.334   7.320 -0.4225 -1.0543 -0.3774
10579SOL     OW38976   7.022   4.768   8.304 -0.3263 -0.0833 -0.1811
10579SOL    HW138977   7.040   4.700   8.240 -0.1686  0.8637 -1.1646
10579SOL    HW238978   7.086   4.837   8.286 -0.9096  0.6271  0.3470
10580SOL     OW38979   4.649   3.830   5.296  0.3166 -0.5043  0.2642
10580SOL    HW138980   4.600   3.877   5.363  0.9406 -0.4986  0.7258
10580SOL    HW238981   4.623   3.739   5.307  2.5351 -0.9631  2.4510
10581SOL     OW38982   2.615   7.826   5.518 -0.8665  0.9555 -0.1220
10581SOL    HW138983   2.647   7.737   5.500 -1.1675  0.7346  0.3989
10581SOL    HW238984   2.524   7.825   5.491 -1.2227  0.7244  1.0326
10582SOL     OW38985   4.389  10.480  10.220 -0.3766 -0.7039  0.0396
10582SOL    HW138986   4.410  10.487  10.127 -1.6686  0.5423 -0.1873
10582SOL    HW238987   4.392  10.386  10.238  3.3633 -0.8085 -0.3673
10583SOL     OW38988   6.048   6.060   9.172 -0.1485  0.0495 -0.5756
10583SOL    HW138989   6.102   6.067   9.093  1.7599  0.4930  0.6897
10583SOL    HW238990   6.036   6.150   9.201 -0.0698 -0.1527  0.1079
10584SOL     OW38991   4.391   0.391   7.277 -0.0228 -0.2795 -0.4858
10584SOL    HW138992   4.484   0.414   7.269  0.6567 -2.1467  1.2213
10584SOL    HW238993   4.345   0.462   7.233  2.1283  1.6351  0.1707
10585SOL     OW38994   7.627   8.562   7.966  0.5356  0.1321 -0.3848
10585SOL    HW138995   7.601   8.599   8.051  0.4289  3.3697 -1.6918
10585SOL    HW238996   7.684   8.489   7.988 -2.5131 -1.6646  2.4893
10586SOL     OW38997   4.601   1.238   3.923  0.4189 -0.2921  0.0936
10586SOL    HW138998   4.653   1.304   3.877 -0.0616 -1.0916 -1.6888
10586SOL    HW238999   4.571   1.282   4.003 -0.9767  2.1342 -1.6313
10587SOL     OW39000  12.307   1.754   3.984 -0.2363 -0.0428 -0.3462
10587SOL    HW139001  12.282   1.664   4.008  0.1194 -0.8545 -2.7130
10587SOL    HW239002  12.388   1.743   3.934  2.4698  2.0918  3.1409
10588SOL     OW39003   4.723   4.156   6.001 -0.1039 -0.5114  0.4665
10588SOL    HW139004   4.641   4.110   6.019 -0.5228  0.1528  0.3082
10588SOL    HW239005   4.700   4.220   5.934 -0.1640  1.6652  2.4218
10589SOL     OW39006   4.508   4.028   6.497  0.3176  0.4268  0.6130
10589SOL    HW139007   4.463   3.945   6.479 -1.7694  1.5790  0.3464
10589SOL    HW239008   4.565   4.040   6.421  0.7235 -0.7856  0.6934
10590SOL     OW39009   2.680   1.212  11.103  0.1427 -0.0482 -0.2257
10590SOL    HW139010   2.725   1.128  11.095  0.3111  0.0261 -0.0533
10590SOL    HW239011   2.750   1.278  11.098  0.0882  0.0577  0.3398
10591SOL     OW39012   8.987   5.530   1.635  0.2658  0.3050  0.0262
10591SOL    HW139013   8.910   5.505   1.687 -0.5818 -0.1908 -1.3988
10591SOL    HW239014   8.975   5.624   1.620 -0.4525  0.1028 -0.7609
10592SOL     OW39015  11.464   3.078   3.144 -0.1233  0.3343  0.1301
10592SOL    HW139016  11.512   3.042   3.069 -0.1577  1.3448 -0.3872
10592SOL    HW239017  11.382   3.109   3.107  0.0764  1.3123  0.4824
10593SOL     OW39018   6.462   3.915   1.828  0.3672 -0.2486 -0.3313
10593SOL    HW139019   6.423   3.846   1.775  1.3470  0.0215 -1.4490
10593SOL    HW239020   6.556   3.911   1.808  0.2510  2.8001 -2.1815
10594SOL     OW39021   2.625   8.436   5.488 -0.2272 -0.8196  0.1890
10594SOL    HW139022   2.695   8.380   5.455  0.9315  0.1523  0.8985
10594SOL    HW239023   2.549   8.379   5.496  0.3669 -1.8107 -0.9980
10595SOL     OW39024   4.681   3.137   5.571  0.3051 -0.2465 -0.1927
10595SOL    HW139025   4.746   3.085   5.619  0.7641 -0.1440 -0.6939
10595SOL    HW239026   4.727   3.217   5.546 -0.5227  0.6144  0.9416
10596SOL     OW39027  12.239   1.989   8.749  0.2592 -0.2897  0.5743
10596SOL    HW139028  12.256   2.067   8.696  0.7805  0.2551  1.5280
10596SOL    HW239029  12.166   2.014   8.806 -0.8471 -1.1428 -0.3940
10597SOL     OW39030   6.511   9.696   9.615 -0.4914 -0.4779  0.3277
10597SOL    HW139031   6.573   9.731   9.679 -0.7812  0.0892  0.3001
10597SOL    HW239032   6.459   9.633   9.665 -0.3128 -0.4931  0.4977
10598SOL     OW39033   6.919   3.930   2.118 -0.4767 -0.0635 -0.2766
10598SOL    HW139034   6.832   3.892   2.135 -0.6113 -0.6904 -2.1689
10598SOL    HW239035   6.980   3.865   2.155 -0.7795  0.1126  0.5664
10599SOL     OW39036   7.184  11.230  11.819  0.5996  0.0136 -0.1519
10599SOL    HW139037   7.103  11.270  11.789  0.4860  1.5470  1.9864
10599SOL    HW239038   7.250  11.257  11.755  0.1362  2.0677  0.1835
10600SOL     OW39039   6.236  12.532   9.593 -0.5682  0.2087  0.4395
10600SOL    HW139040   6.153  12.580   9.585 -0.8000 -0.1579  0.6192
10600SOL    HW239041   6.288  12.586   9.653  0.0665  1.4365 -1.1503
10601SOL     OW39042   2.982   9.525   5.075  0.1172 -0.3140 -0.6615
10601SOL    HW139043   3.016   9.545   4.987  0.2083 -2.2968 -1.1379
10601SOL    HW239044   3.060   9.503   5.126  0.1609  1.7425  0.2273
10602SOL     OW39045  12.608   5.361   6.452 -0.0381  0.0454  0.3813
10602SOL    HW139046  12.701   5.365   6.427 -0.6075  0.1401 -2.0519
10602SOL    HW239047  12.596   5.274   6.488  0.7456 -0.4829 -0.5863
10603SOL     OW39048   9.936   1.926  12.424 -0.7465  0.1202 -0.9783
10603SOL    HW139049   9.894   1.973  12.496 -1.5546 -2.6647  0.5184
10603SOL    HW239050  10.015   1.977  12.403 -0.7021  1.2242  1.6287
10604SOL     OW39051  10.419   5.494   6.324  0.1266 -0.0750  0.5916
10604SOL    HW139052  10.469   5.415   6.305 -0.3251 -0.6253  1.5716
10604SOL    HW239053  10.478   5.547   6.378 -0.0908 -0.4399  1.2094
10605SOL     OW39054   8.641  11.113   6.425 -0.2075  0.3854 -0.2401
10605SOL    HW139055   8.651  11.196   6.472  1.9484 -0.0259  0.1434
10605SOL    HW239056   8.691  11.125   6.345 -0.7948 -0.1817 -0.6963
10606SOL     OW39057   9.841   1.252  11.033 -0.5817 -0.3634  0.4578
10606SOL    HW139058   9.876   1.231  11.119 -0.2746 -1.4784  0.0831
10606SOL    HW239059   9.875   1.183  10.976  0.5650  1.2422 -0.9022
10607SOL     OW39060   4.543   5.824   6.652 -0.4504 -0.0669  0.0223
10607SOL    HW139061   4.502   5.856   6.571 -1.2377 -1.6543 -0.2284
10607SOL    HW239062   4.535   5.897   6.713 -2.6602  0.0677 -0.3673
10608SOL     OW39063   3.412   1.069  11.421  0.1530  0.2552 -0.0172
10608SOL    HW139064   3.359   1.125  11.477 -2.2722 -0.2055 -1.7137
10608SOL    HW239065   3.457   1.129  11.362 -0.3344  0.5452 -0.0965
10609SOL     OW39066   2.774  10.466  12.185 -0.0103 -0.0509  0.6046
10609SOL    HW139067   2.800  10.533  12.248 -1.5322 -0.6044  1.8798
10609SOL    HW239068   2.723  10.513  12.119 -0.8657  0.1053  1.3609
10610SOL     OW39069  12.296   6.622   7.891 -0.2816  0.3891  0.0596
10610SOL    HW139070  12.344   6.672   7.825 -0.8754 -0.2221 -0.8555
10610SOL    HW239071  12.355   6.551   7.915 -0.1322  0.5134  0.0627
10611SOL     OW39072   9.098   8.876   7.430  0.0926  0.1301 -0.7015
10611SOL    HW139073   9.117   8.966   7.403  0.0550  0.1147 -0.7777
10611SOL    HW239074   9.025   8.884   7.491  1.2216  0.3407  0.6912
10612SOL     OW39075   4.506  10.310   1.044  0.3503  0.2459  0.2074
10612SOL    HW139076   4.438  10.371   1.015  0.3983 -0.5970 -1.8198
10612SOL    HW239077   4.461  10.252   1.105 -0.5350  0.2344 -0.4419
10613SOL     OW39078   0.077  10.003   1.410 -0.2109 -0.3271  0.2334
10613SOL    HW139079  -0.016  10.023   1.398 -0.3656  0.0507  1.8283
10613SOL    HW239080   0.122  10.084   1.387 -0.3081 -0.3563 -0.0645
10614SOL     OW39081   7.831  10.039   4.635 -0.1747 -0.0295  0.0864
10614SOL    HW139082   7.871  10.035   4.721 -0.3314 -0.8201  0.1301
10614SOL    HW239083   7.893   9.994   4.577 -0.4966 -0.3250 -0.0372
10615SOL     OW39084  11.289  10.332   3.128  0.5853 -0.3903  0.3243
10615SOL    HW139085  11.212  10.355   3.180 -1.7903 -1.8410 -2.2569
10615SOL    HW239086  11.273  10.372   3.043  1.1343 -3.1378 -1.1925
10616SOL     OW39087  11.190  12.532   8.501 -0.5638  0.4605  0.3030
10616SOL    HW139088  11.184  12.582   8.583 -1.2864  0.3209  0.3408
10616SOL    HW239089  11.267  12.477   8.513 -0.9121  0.1194  1.0729
10617SOL     OW39090   6.296   1.163   2.801  0.3310  0.2292  0.8298
10617SOL    HW139091   6.223   1.131   2.854 -0.3592 -0.7607 -0.6633
10617SOL    HW239092   6.314   1.092   2.740 -0.5753  2.2135 -1.9392
10618SOL     OW39093   4.013   6.897  10.982  0.5353 -0.6974  0.6324
10618SOL    HW139094   4.026   6.965  11.048  0.5736 -0.2952  0.2105
10618SOL    HW239095   3.968   6.941  10.910 -0.8570 -1.4697  0.9997
10619SOL     OW39096   4.889   5.515  11.028  0.0127  0.5894  0.4505
10619SOL    HW139097   4.839   5.511  10.947  1.0963 -0.7265 -0.1808
10619SOL    HW239098   4.899   5.424  11.056  0.3359  0.9655  1.6449
10620SOL     OW39099   0.890  11.753   8.671 -0.2126 -0.0589 -0.8871
10620SOL    HW139100   0.907  11.795   8.756 -1.7467 -1.1485  0.0145
10620SOL    HW239101   0.974  11.755   8.626  0.6615  0.5143  0.6744
10621SOL     OW39102   0.313   3.473   6.500  0.2946 -0.0371  0.2917
10621SOL    HW139103   0.287   3.463   6.591  0.7338 -0.7978  0.3422
10621SOL    HW239104   0.352   3.560   6.495  0.1653  0.0510  0.8040
10622SOL     OW39105   3.259   0.711   0.282 -0.1958  0.4542 -0.5734
10622SOL    HW139106   3.266   0.689   0.375  0.7909  0.5692 -0.6182
10622SOL    HW239107   3.207   0.791   0.280  2.6280  2.4642  0.1756
10623SOL     OW39108  10.656   8.312   3.004  0.2068  0.3546 -0.0129
10623SOL    HW139109  10.676   8.336   2.913 -0.2206 -0.6176 -0.3813
10623SOL    HW239110  10.563   8.291   3.003  0.1724  0.4685  0.6852
10624SOL     OW39111   8.985   0.928   0.281 -0.1879  0.2235  0.3035
10624SOL    HW139112   9.038   0.866   0.331 -2.8250 -2.3843  0.1575
10624SOL    HW239113   8.922   0.962   0.345  1.3282  3.1072  0.4341
10625SOL     OW39114   8.381   9.348   1.288 -0.2922 -0.0268  0.1784
10625SOL    HW139115   8.342   9.286   1.350  0.9421 -0.7306  0.3048
10625SOL    HW239116   8.451   9.391   1.338 -0.0770  0.2817 -0.3770
10626SOL     OW39117   6.768   3.774   4.081  0.1350 -0.1648  0.5411
10626SOL    HW139118   6.766   3.681   4.103  2.2560 -0.3003  0.4319
10626SOL    HW239119   6.799   3.818   4.161  1.7722  0.0718 -0.1667
10627SOL     OW39120   2.541  11.121   5.224 -0.2732  0.0024 -0.2687
10627SOL    HW139121   2.528  11.151   5.314 -1.8662  2.1998 -1.1295
10627SOL    HW239122   2.605  11.051   5.231  0.9349  1.2284  2.3753
10628SOL     OW39123   5.699   8.845   9.053 -0.0652 -0.7030 -0.1946
10628SOL    HW139124   5.671   8.890   9.133 -2.3258 -2.5113  0.1264
10628SOL    HW239125   5.688   8.911   8.984  1.2270  0.6558  0.8233
10629SOL     OW39126  12.438   6.203   9.670 -0.7156  0.0571  0.0480
10629SOL    HW139127  12.439   6.261   9.746  0.8033  0.4996 -0.2763
10629SOL    HW239128  12.441   6.262   9.594  0.2443 -0.4060 -0.2951
10630SOL     OW39129  11.174   2.667  11.338  0.4650 -0.2066  0.3467
10630SOL    HW139130  11.176   2.759  11.364  1.1265  0.2175 -1.1041
10630SOL    HW239131  11.244   2.626  11.389  0.7892  0.2967  0.3149
10631SOL     OW39132   6.794   9.601   8.335  0.4540 -0.1653 -0.1195
10631SOL    HW139133   6.825   9.604   8.426 -0.3539 -0.2663  0.1673
10631SOL    HW239134   6.753   9.514   8.327 -0.9219  0.4562 -0.0918
10632SOL     OW39135   4.684   9.120   6.488 -0.7866  0.2057 -0.3981
10632SOL    HW139136   4.683   9.130   6.392 -0.4405  0.0647 -0.4170
10632SOL    HW239137   4.768   9.158   6.515  0.1375 -1.7175 -0.3783
10633SOL     OW39138   4.841   3.518  12.481  0.0312 -0.0320 -0.2815
10633SOL    HW139139   4.808   3.605  12.504  0.4753  0.3945 -1.2075
10633SOL    HW239140   4.798   3.497  12.398  1.8715  0.4636 -1.4340
10634SOL     OW39141   8.882   3.893   5.063  0.0332  0.3992 -0.3915
10634SOL    HW139142   8.831   3.841   5.126 -0.4129 -1.5490 -2.2642
10634SOL    HW239143   8.841   3.980   5.066 -2.7100 -0.7686 -0.9713
10635SOL     OW39144   2.578  10.072   5.367  0.2712  0.0868 -0.0714
10635SOL    HW139145   2.485  10.062   5.386 -0.0742  1.2954 -0.9754
10635SOL    HW239146   2.608   9.984   5.346 -1.4176  0.0591 -2.9000
10636SOL     OW39147   3.032  10.692   4.906 -0.2955  0.6810  0.3589
10636SOL    HW139148   3.115  10.675   4.862  0.2600 -0.3839  1.7406
10636SOL    HW239149   3.036  10.784   4.931  0.3099  0.7261  0.1066
10637SOL     OW39150   4.834   2.606   7.533  0.5465  0.1978 -0.4095
10637SOL    HW139151   4.830   2.512   7.513  2.3943 -0.1789  0.7059
10637SOL    HW239152   4.748   2.639   7.509 -1.1805 -2.3058  1.6275
10638SOL     OW39153  12.271  11.295  10.979 -0.1614  0.7008 -0.1621
10638SOL    HW139154  12.202  11.360  10.968 -1.0019 -0.0113  0.7183
10638SOL    HW239155  12.335  11.336  11.037 -0.9341  0.5655  0.7936
10639SOL     OW39156   1.618   0.722   1.234 -0.0206  0.2342 -0.2284
10639SOL    HW139157   1.691   0.698   1.177 -0.9461 -1.9290 -0.5947
10639SOL    HW239158   1.600   0.643   1.285 -0.9310  1.3043  1.1981
10640SOL     OW39159   7.787   2.234  12.705  0.0612  0.2255  0.1958
10640SOL    HW139160   7.694   2.223  12.686  0.3337  0.2288 -1.2626
10640SOL    HW239161   7.789   2.292  12.782 -1.1296  0.2117  0.2626
10641SOL     OW39162   1.433   9.895   2.980  0.5389  0.0615 -0.2516
10641SOL    HW139163   1.373   9.826   2.949 -0.0809 -0.2570  1.5605
10641SOL    HW239164   1.506   9.847   3.019 -0.6067  0.3140  2.4123
10642SOL     OW39165   0.114   0.866   7.036  0.2367 -0.4932  0.2008
10642SOL    HW139166   0.107   0.771   7.045  2.3354 -0.7228 -0.2259
10642SOL    HW239167   0.069   0.885   6.953 -0.2560 -1.0801  0.3217
10643SOL     OW39168  10.186   0.201   7.298 -0.3104 -0.5081  0.3759
10643SOL    HW139169  10.196   0.178   7.390  1.2983 -0.7056  0.1938
10643SOL    HW239170  10.276   0.200   7.264 -0.6021  1.7926 -0.6683
10644SOL     OW39171   8.483   2.357   3.119  0.2124  0.2624  0.4652
10644SOL    HW139172   8.425   2.365   3.043 -1.9318 -1.1560  1.8416
10644SOL    HW239173   8.481   2.443   3.160 -0.4576  0.4130  0.1392
10645SOL     OW39174  12.488   4.090   1.042 -0.3033 -0.0334 -0.5951
10645SOL    HW139175  12.578   4.061   1.060 -0.0954  1.0910  0.2587
10645SOL    HW239176  12.437   4.009   1.042  0.5875 -0.6163 -0.3591
10646SOL     OW39177   6.728   6.534   0.989 -0.3728  0.0177  0.2376
10646SOL    HW139178   6.793   6.507   1.054 -0.5883  1.0076  0.8946
10646SOL    HW239179   6.778   6.580   0.922 -0.2119 -0.5696 -0.0491
10647SOL     OW39180   5.957   5.088   9.421  0.1701  0.1371  0.0436
10647SOL    HW139181   5.902   5.140   9.480  2.8739  2.0200  1.0903
10647SOL    HW239182   6.044   5.088   9.461  1.2513 -1.8490 -2.0074
10648SOL     OW39183   4.939   9.291   5.274 -0.7194  0.5910  0.5378
10648SOL    HW139184   4.888   9.338   5.340 -0.7718  0.4433  0.6024
10648SOL    HW239185   5.019   9.264   5.320 -0.7371  0.5239  0.5298
10649SOL     OW39186   6.992   6.392  11.876  0.3359  0.4323  0.2555
10649SOL    HW139187   6.964   6.374  11.966 -0.9019  0.0139 -0.1825
10649SOL    HW239188   7.071   6.339  11.864  0.4200  0.3697  1.0369
10650SOL     OW39189  10.159   9.632  12.216 -0.2091  0.0958  0.7435
10650SOL    HW139190  10.106   9.625  12.296  0.3310  1.6626  1.2729
10650SOL    HW239191  10.131   9.714  12.176 -1.2303 -1.1564 -1.2877
10651SOL     OW39192   6.819  10.096   1.794  0.4492 -0.1988  0.0148
10651SOL    HW139193   6.881  10.023   1.800 -2.4597 -2.8140  0.7477
10651SOL    HW239194   6.785  10.106   1.882 -0.9301  0.4500 -0.5627
10652SOL     OW39195   9.871   4.623  11.743  0.6460  0.3545  0.0009
10652SOL    HW139196   9.860   4.712  11.777  0.4155 -0.1419  1.3035
10652SOL    HW239197   9.783   4.586  11.746  1.1805 -0.9210  2.5121
10653SOL     OW39198   0.366   2.118   0.424  0.3520 -0.2282 -0.2587
10653SOL    HW139199   0.418   2.160   0.356  1.9844 -1.0255  0.4546
10653SOL    HW239200   0.371   2.178   0.498  3.2815 -1.8501  1.0068
10654SOL     OW39201   1.277   5.129  12.472 -0.3458  0.2418 -0.2241
10654SOL    HW139202   1.346   5.065  12.456 -2.6668 -2.3722 -0.5560
10654SOL    HW239203   1.312   5.185  12.541  2.5918 -0.0666 -1.3353
10655SOL     OW39204   7.170   3.723   1.987  0.4134  0.0860 -0.1126
10655SOL    HW139205   7.162   3.811   1.949 -0.0591  0.3764  0.6299
10655SOL    HW239206   7.112   3.669   1.933 -1.5672  0.8321  1.1573
10656SOL     OW39207  10.716   0.512   7.684 -0.3262 -0.6817 -0.1466
10656SOL    HW139208  10.747   0.531   7.596 -1.6388 -0.4583 -0.5745
10656SOL    HW239209  10.646   0.575   7.700  0.1270 -0.4706  1.2100
10657SOL     OW39210  11.124   5.334   5.609 -0.1676  0.2823  0.3017
10657SOL    HW139211  11.109   5.419   5.651  2.2691  0.7840  0.3326
10657SOL    HW239212  11.143   5.356   5.518 -3.2216 -0.6224 -0.6791
10658SOL     OW39213   0.997  10.540   1.703 -0.0454 -0.4058 -0.4938
10658SOL    HW139214   1.000  10.469   1.767 -0.4877  1.0620  1.2461
10658SOL    HW239215   0.940  10.508   1.634 -1.1799 -1.3167  0.8202
10659SOL     OW39216   4.644   4.874   3.276 -0.1110  0.0828 -0.0273
10659SOL    HW139217   4.664   4.899   3.186  0.2775 -0.0290  0.0276
10659SOL    HW239218   4.592   4.947   3.311 -1.7367 -0.6187 -0.8737
10660SOL     OW39219  12.142  11.551  10.995 -0.1184  0.1094 -0.4416
10660SOL    HW139220  12.083  11.594  11.057  0.1482  0.0417 -0.1401
10660SOL    HW239221  12.204  11.619  10.969 -0.6872  0.3465 -1.2235
10661SOL     OW39222  10.617   2.955  10.881 -0.4624  0.1007 -0.3083
10661SOL    HW139223  10.570   3.001  10.812 -2.0608 -1.8533 -0.5891
10661SOL    HW239224  10.567   2.974  10.961 -1.8622 -1.9645 -0.6063
10662SOL     OW39225   7.080   6.121   3.791  0.2000  0.2245  0.8923
10662SOL    HW139226   7.056   6.108   3.882 -1.1215 -1.3198  0.3702
10662SOL    HW239227   7.023   6.191   3.760  0.1205  0.2240  1.0379
10663SOL     OW39228  11.138   2.906   3.132 -0.2495 -0.1835 -0.4254
10663SOL    HW139229  11.154   2.851   3.209  0.9780  0.9176  0.1665
10663SOL    HW239230  11.079   2.974   3.163 -1.2170 -0.7586 -0.9688
10664SOL     OW39231   5.315  11.043   5.640 -0.2125 -0.3230  0.2933
10664SOL    HW139232   5.405  11.008   5.643  0.2365  0.8114  0.5729
10664SOL    HW239233   5.310  11.089   5.556 -0.4482 -0.1787  0.3864
10665SOL     OW39234   2.103   6.746   7.445 -0.3259  0.0468 -0.3644
10665SOL    HW139235   2.162   6.819   7.429 -0.2372 -0.1849 -1.1756
10665SOL    HW239236   2.077   6.717   7.357 -0.0246 -1.1685 -0.0777
10666SOL     OW39237   7.154   8.059   1.748 -0.1299 -0.4969 -0.0761
10666SOL    HW139238   7.092   8.002   1.703  1.0962 -1.6633 -0.3635
10666SOL    HW239239   7.183   8.008   1.823 -0.6384  0.6381  0.9208
10667SOL     OW39240   2.712   1.160   8.093  0.1143 -0.0541  0.3267
10667SOL    HW139241   2.706   1.201   8.179 -1.1374  0.6223 -0.0670
10667SOL    HW239242   2.793   1.109   8.097  1.1692  1.6047  1.2019
10668SOL     OW39243   8.436  12.152   3.708  0.2691  0.5644 -0.0676
10668SOL    HW139244   8.509  12.091   3.700  0.7336  0.8556  1.5490
10668SOL    HW239245   8.416  12.178   3.618 -0.0505 -2.0577 -0.8300
10669SOL     OW39246   6.231   5.692   0.430  0.2903  0.9156 -0.2282
10669SOL    HW139247   6.142   5.725   0.430  0.5106  1.5504 -1.3135
10669SOL    HW239248   6.230   5.618   0.369  0.3190  0.3583  0.4305
10670SOL     OW39249   6.269   6.985   7.409 -0.3655 -0.2708 -0.2693
10670SOL    HW139250   6.363   7.005   7.402 -0.2469 -0.4199  0.7825
10670SOL    HW239251   6.254   6.971   7.503 -1.5191  0.1085 -0.3844
10671SOL     OW39252   0.921   4.542   8.622 -0.5364  0.3410  0.6044
10671SOL    HW139253   0.895   4.593   8.545 -0.1559  0.9870  0.8993
10671SOL    HW239254   1.013   4.520   8.606 -0.8359 -0.6937  0.2415
10672SOL     OW39255   1.639   2.964   2.291  0.0705  0.0689 -1.0124
10672SOL    HW139256   1.564   3.020   2.311 -0.1774  0.4785 -2.9148
10672SOL    HW239257   1.714   3.025   2.288  0.2770 -0.1443 -0.3959
10673SOL     OW39258   8.898   1.484  12.436 -0.3077  0.0824  0.2662
10673SOL    HW139259   8.991   1.503  12.423 -0.6021  1.6324  0.2146
10673SOL    HW239260   8.896   1.396  12.474  1.0725 -0.6500 -1.2768
10674SOL     OW39261   0.060   2.680  11.631 -0.1623  0.1322 -0.4423
10674SOL    HW139262  -0.004   2.662  11.701  1.4506  0.2072  1.1192
10674SOL    HW239263   0.040   2.769  11.603 -1.3135 -0.1669 -0.6442
10675SOL     OW39264   4.619   6.816   3.301  0.4517 -0.2138  0.1881
10675SOL    HW139265   4.685   6.864   3.351  0.3194 -0.6669  0.8032
10675SOL    HW239266   4.572   6.764   3.366  0.1807 -0.7025 -0.3853
10676SOL     OW39267   4.711   4.415   2.001 -0.2536 -0.0806 -0.3611
10676SOL    HW139268   4.722   4.510   1.993 -2.5545  0.2600 -0.1841
10676SOL    HW239269   4.795   4.384   2.035  1.0161  1.6909 -1.6666
10677SOL     OW39270   6.420   0.100   4.683 -0.4746  0.3119 -0.2586
10677SOL    HW139271   6.372   0.036   4.735  0.5611  0.8416  1.4244
10677SOL    HW239272   6.406   0.073   4.592 -1.1132 -1.5364  0.3516
10678SOL     OW39273  10.751   4.266   6.581 -0.3510 -0.4101 -0.2392
10678SOL    HW139274  10.747   4.360   6.564 -2.3997  0.4860  3.9073
10678SOL    HW239275  10.821   4.256   6.646 -2.2009 -1.1182  1.7684
10679SOL     OW39276   7.278   1.197   1.110  0.9152 -0.0331 -0.3355
10679SOL    HW139277   7.362   1.239   1.129  0.4199  1.5335 -1.4535
10679SOL    HW239278   7.262   1.141   1.186  2.3328  0.6472  0.5103
10680SOL     OW39279   1.829   7.793  11.927  0.3248 -0.2771  0.3026
10680SOL    HW139280   1.765   7.736  11.885  1.4117 -0.3873 -1.2888
10680SOL    HW239281   1.899   7.734  11.956 -0.5406 -0.2540  2.6808
10681SOL     OW39282   6.743   2.675   6.322  0.3149  0.6888  0.2194
10681SOL    HW139283   6.805   2.627   6.267  0.4403 -1.4012  2.0538
10681SOL    HW239284   6.784   2.677   6.408 -0.5596  2.5310  0.6565
10682SOL     OW39285  12.567   5.900   6.752 -0.0027  0.9808  0.0448
10682SOL    HW139286  12.556   5.995   6.747 -0.4342  0.8470 -2.7173
10682SOL    HW239287  12.552   5.880   6.844 -0.9587  3.4565  0.5162
10683SOL     OW39288   4.508   3.585  10.777 -0.3521  0.0991  0.1696
10683SOL    HW139289   4.482   3.596  10.869  1.4343 -0.6489  0.8174
10683SOL    HW239290   4.518   3.674  10.744 -1.2921  0.3809  0.6079
10684SOL     OW39291  10.841   1.087   1.686  0.1215  0.0343  0.6837
10684SOL    HW139292  10.748   1.065   1.676 -0.3874  1.9044  0.7955
10684SOL    HW239293  10.848   1.175   1.647  1.8046  0.0060  0.8653
10685SOL     OW39294  12.691   2.007   5.595  0.2886  0.5029  0.5727
10685SOL    HW139295  12.632   2.079   5.573  1.0245  1.3148  1.1819
10685SOL    HW239296  12.775   2.050   5.612  1.5941 -0.7605 -2.0343
10686SOL     OW39297   6.347   9.884   7.795 -0.2407  0.2731 -0.5803
10686SOL    HW139298   6.341   9.973   7.828 -0.6288 -0.0944  0.3578
10686SOL    HW239299   6.284   9.834   7.847  1.6884 -1.0489  0.5998
10687SOL     OW39300   3.998   2.344  11.238 -0.1659 -0.9572 -1.1204
10687SOL    HW139301   3.965   2.433  11.248  1.1486 -0.4273 -1.3341
10687SOL    HW239302   4.092   2.350  11.257 -0.5466 -2.9190  2.4151
10688SOL     OW39303  11.912  10.213   1.558 -0.0431  0.0161  0.1658
10688SOL    HW139304  11.871  10.137   1.599 -1.3421  1.7133  2.2299
10688SOL    HW239305  11.911  10.194   1.465 -2.0908 -1.6558  0.4666
10689SOL     OW39306   0.021   1.387   6.865 -0.3035  0.4974  0.4037
10689SOL    HW139307   0.092   1.349   6.812 -0.5128 -0.1724  0.5974
10689SOL    HW239308  -0.035   1.313   6.887 -0.6241  0.8926  0.9418
10690SOL     OW39309  10.536   8.591   8.485 -1.0312 -0.0219  0.0460
10690SOL    HW139310  10.458   8.543   8.456 -1.2368 -0.7018  1.6317
10690SOL    HW239311  10.516   8.617   8.575  0.9041 -1.0178  0.8241
10691SOL     OW39312   2.285   3.643  10.566  0.1155  0.3024  0.8257
10691SOL    HW139313   2.192   3.657  10.584 -0.4012 -1.6390 -0.0325
10691SOL    HW239314   2.296   3.668  10.474  0.4168  0.3527  0.8729
10692SOL     OW39315   7.114   1.046   2.927  0.0864 -0.5695  0.1531
10692SOL    HW139316   7.186   1.018   2.983 -0.2447 -1.7318  0.0283
10692SOL    HW239317   7.035   1.018   2.973 -0.4918  2.7622  1.4611
10693SOL     OW39318   7.005   3.890   4.769  0.0780  0.0412  0.0690
10693SOL    HW139319   6.967   3.878   4.681 -1.0890 -2.0529  0.7770
10693SOL    HW239320   6.929   3.905   4.825  0.7689  0.7378  0.8284
10694SOL     OW39321   4.350  12.482   5.955 -0.0157 -0.4606  0.3588
10694SOL    HW139322   4.300  12.431   6.019 -1.9515 -2.9939 -2.8690
10694SOL    HW239323   4.415  12.420   5.921  0.8377  0.7634 -0.3277
10695SOL     OW39324  11.922   8.229   2.092  0.6092  0.3242 -0.3267
10695SOL    HW139325  11.898   8.238   2.185  0.1925 -0.3908 -0.3572
10695SOL    HW239326  11.876   8.300   2.048 -2.0536 -1.3420 -0.4779
10696SOL     OW39327  10.817   7.352   7.622  0.0111 -0.3385 -0.2931
10696SOL    HW139328  10.799   7.328   7.531 -0.3453 -0.6490 -0.1464
10696SOL    HW239329  10.792   7.274   7.673  1.5774 -0.7049 -0.0483
10697SOL     OW39330   8.657   4.338   3.853 -0.1719 -0.5805 -0.0573
10697SOL    HW139331   8.744   4.344   3.813 -0.3728  0.0729 -0.4012
10697SOL    HW239332   8.672   4.289   3.934  0.2020 -2.0922 -1.0027
10698SOL     OW39333   4.029   2.899   0.300  0.2638 -0.3273  0.7917
10698SOL    HW139334   4.116   2.865   0.321  0.0840 -0.2241  1.7684
10698SOL    HW239335   3.969   2.845   0.352 -0.3034 -0.6900 -0.2089
10699SOL     OW39336  12.447   8.226   6.847  0.2391 -0.0490 -0.0746
10699SOL    HW139337  12.429   8.179   6.929  2.3830 -0.1146  0.4168
10699SOL    HW239338  12.481   8.159   6.788  0.1377  0.2806 -0.5100
10700SOL     OW39339   3.760   3.533   3.708 -0.1523  0.3799  0.0782
10700SOL    HW139340   3.773   3.625   3.687  1.3720  0.6682  2.0324
10700SOL    HW239341   3.790   3.486   3.631  1.1509  1.4776 -0.1093
10701SOL     OW39342   9.859   0.232   5.117 -0.1620 -0.2919 -0.3472
10701SOL    HW139343   9.813   0.293   5.175  0.8715  1.0745 -0.9079
10701SOL    HW239344   9.842   0.265   5.029  2.2346  0.5820 -0.5631
10702SOL     OW39345   6.542   4.216   5.438  0.4513 -0.1996 -0.3115
10702SOL    HW139346   6.593   4.228   5.358  0.7705 -0.3397 -0.1263
10702SOL    HW239347   6.515   4.124   5.436  0.8760 -0.3312 -0.0085
10703SOL     OW39348   1.443   6.034   1.068  0.1996  0.0818  0.1644
10703SOL    HW139349   1.407   5.999   1.150 -0.8206 -0.1981 -0.3777
10703SOL    HW239350   1.497   6.108   1.095  0.1980 -0.2499  1.1224
10704SOL     OW39351   0.316   2.559   8.670 -0.0736  0.3858 -0.2172
10704SOL    HW139352   0.285   2.487   8.614  0.8802 -0.4816  0.3253
10704SOL    HW239353   0.315   2.636   8.613 -0.7765 -0.1268 -0.9189
10705SOL     OW39354  12.214   9.353   6.740 -0.3337  0.3023 -0.2112
10705SOL    HW139355  12.137   9.321   6.787 -0.6789  0.2516 -0.8072
10705SOL    HW239356  12.284   9.294   6.767 -0.3158  0.8140  0.9372
10706SOL     OW39357   1.327   1.984   9.246 -0.1141  0.0194  0.2598
10706SOL    HW139358   1.280   1.958   9.325 -0.1420  1.5420  0.7741
10706SOL    HW239359   1.417   1.954   9.261  0.4001  2.1422  1.8668
10707SOL     OW39360   7.756   8.257   4.730 -0.0669  0.5562  0.3311
10707SOL    HW139361   7.833   8.279   4.678  0.0594 -0.9670 -0.1740
10707SOL    HW239362   7.789   8.201   4.800 -0.7308 -0.3952 -0.0876
10708SOL     OW39363   3.296   1.312   9.266  0.4869  0.2669 -0.0103
10708SOL    HW139364   3.360   1.290   9.199  1.0309 -0.7293  0.8180
10708SOL    HW239365   3.343   1.369   9.327  0.5612 -0.4043  0.5587
10709SOL     OW39366   1.732  10.506   1.825  0.1841  0.1230 -0.3189
10709SOL    HW139367   1.650  10.551   1.845  0.2096 -0.3425  0.9178
10709SOL    HW239368   1.798  10.576   1.823  0.2785  0.1760  1.9024
10710SOL     OW39369  10.446   3.997   9.754 -0.3125  0.6894 -0.4711
10710SOL    HW139370  10.470   3.914   9.795 -0.3264 -0.0102 -1.8189
10710SOL    HW239371  10.448   4.060   9.825 -0.8237 -0.5575  0.7049
10711SOL     OW39372   9.466  10.710   3.709  0.0518 -0.9349 -0.0678
10711SOL    HW139373   9.451  10.787   3.763  0.0969 -2.1951  1.8324
10711SOL    HW239374   9.551  10.677   3.737 -0.6244 -2.5016  0.2122
10712SOL     OW39375  12.566   5.170   8.102 -0.1401  0.3209  1.0838
10712SOL    HW139376  12.647   5.148   8.149  2.4404 -0.7953 -3.3428
10712SOL    HW239377  12.521   5.086   8.093  1.2313 -0.2699 -1.2738
10713SOL     OW39378   1.776   6.940   8.811 -0.5592  0.3870  0.0776
10713SOL    HW139379   1.788   6.903   8.898 -0.2790  1.0098  0.3112
10713SOL    HW239380   1.732   7.024   8.826 -0.8922  0.3002 -0.4109
10714SOL     OW39381   0.684   1.591   6.050 -0.3642 -0.0689  0.1762
10714SOL    HW139382   0.708   1.561   6.137 -1.2188  0.4245  0.5891
10714SOL    HW239383   0.745   1.545   5.991  0.8157  0.2674  1.0832
10715SOL     OW39384   3.260   4.537   4.101  0.0391  0.6586 -0.4480
10715SOL    HW139385   3.255   4.575   4.189 -0.6099  0.3274 -0.3340
10715SOL    HW239386   3.177   4.562   4.060 -0.0230  0.1069 -0.6693
10716SOL     OW39387   1.121   6.092  11.276  0.0228  0.1314 -0.0819
10716SOL    HW139388   1.216   6.094  11.286  0.1906  0.9148 -1.5208
10716SOL    HW239389   1.095   6.184  11.283 -0.5503 -0.0124 -0.3377
10717SOL     OW39390   6.824   6.815   2.213  0.1623 -0.4658 -0.1843
10717SOL    HW139391   6.870   6.895   2.187  0.6096 -0.5551  0.3048
10717SOL    HW239392   6.732   6.837   2.203  0.2728  0.1858  0.1274
10718SOL     OW39393   2.620   4.760   3.877  0.4983  0.0935 -0.5073
10718SOL    HW139394   2.603   4.811   3.798  0.7054 -0.9774 -1.2690
10718SOL    HW239395   2.675   4.687   3.847 -0.0722 -0.7668  0.4658
10719SOL     OW39396   8.320   9.687   0.774  0.4471  0.0824  0.4102
10719SOL    HW139397   8.394   9.646   0.730  0.4058  1.7143 -1.2900
10719SOL    HW239398   8.249   9.624   0.765  1.0195 -0.5202  0.0200
10720SOL     OW39399   0.419  11.375  12.238  0.3959 -0.0217 -0.3829
10720SOL    HW139400   0.441  11.282  12.236  0.5252  0.0038 -0.1906
10720SOL    HW239401   0.497  11.418  12.275  0.5332  0.2233 -0.9395
10721SOL     OW39402   7.584  11.785   4.051 -0.0117  0.2254 -0.2116
10721SOL    HW139403   7.628  11.806   4.133  0.7173  0.3963 -0.6325
10721SOL    HW239404   7.626  11.704   4.022  0.2134  0.5300 -0.7503
10722SOL     OW39405   1.109   5.752   6.289 -0.0369 -0.2089 -0.8311
10722SOL    HW139406   1.121   5.781   6.379 -1.7169 -1.6958 -0.0655
10722SOL    HW239407   1.196   5.725   6.260  1.2565  3.5754 -0.9617
10723SOL     OW39408   7.020   0.679   7.584  0.4023 -0.1695  0.0405
10723SOL    HW139409   6.960   0.743   7.623  1.6750  0.7340  0.5590
10723SOL    HW239410   6.964   0.628   7.525 -1.4288 -1.1131  2.4376
10724SOL     OW39411   7.300   6.066   2.962  0.2118 -0.4836  0.5089
10724SOL    HW139412   7.217   6.114   2.955  0.6809  0.0461 -2.7739
10724SOL    HW239413   7.365   6.133   2.980  0.4565 -0.2404 -1.1403
10725SOL     OW39414  10.957   3.240   3.490  0.1108 -0.2438 -0.0688
10725SOL    HW139415  10.867   3.268   3.507 -0.1599 -1.0014 -0.2399
10725SOL    HW239416  11.011   3.309   3.530 -0.5175 -0.7577  1.7861
10726SOL     OW39417   8.152   2.709   3.489  0.5725  0.2128  0.4326
10726SOL    HW139418   8.143   2.613   3.490  0.6813  0.2026  1.2020
10726SOL    HW239419   8.063   2.741   3.474  0.4991 -0.0071  0.3917
10727SOL     OW39420  12.298   8.856   5.419  0.0226  0.5910 -0.4012
10727SOL    HW139421  12.272   8.927   5.478 -2.0492 -1.8623  1.8893
10727SOL    HW239422  12.236   8.862   5.346 -0.9985  0.4360  0.4204
10728SOL     OW39423   2.919  11.157   0.959  0.1591  0.2744 -0.0059
10728SOL    HW139424   2.908  11.247   0.930  0.6183  0.7077  1.0963
10728SOL    HW239425   2.999  11.128   0.916  1.0833  1.0576  1.1338
10729SOL     OW39426   8.771   8.719   9.553 -0.2900  0.1147 -0.5357
10729SOL    HW139427   8.790   8.770   9.475  0.1140  1.7095  0.5531
10729SOL    HW239428   8.729   8.782   9.613 -0.2567 -0.9580  0.6602
10730SOL     OW39429   5.825   2.969   4.556  0.0341 -0.3482  0.1408
10730SOL    HW139430   5.785   3.046   4.518 -1.3457 -0.8623  0.4812
10730SOL    HW239431   5.917   2.992   4.567  0.0677  0.5012 -1.6384
10731SOL     OW39432   6.680  12.009   9.849 -0.0227  0.3447 -0.0833
10731SOL    HW139433   6.595  12.048   9.829  0.3860  1.4046  0.1547
10731SOL    HW239434   6.708  12.053   9.930  0.9355  0.3303 -0.3890
10732SOL     OW39435   1.221   6.979   7.726  0.8061  0.0448  0.2379
10732SOL    HW139436   1.140   6.965   7.678  0.2034 -1.3912  1.6169
10732SOL    HW239437   1.265   7.050   7.678 -0.9581  0.4413 -0.8728
10733SOL     OW39438   1.710   8.789  10.723 -0.5602  0.4434  0.0381
10733SOL    HW139439   1.794   8.744  10.730 -2.0082 -2.4351  0.1400
10733SOL    HW239440   1.702   8.838  10.805  1.2680  1.3666 -0.2808
10734SOL     OW39441  10.797   2.192   5.278  0.6800 -0.0607  0.2219
10734SOL    HW139442  10.729   2.124   5.274  0.6562  0.0206 -1.1193
10734SOL    HW239443  10.765   2.253   5.346  0.2509 -0.8917  0.7889
10735SOL     OW39444   4.752   5.899  10.756 -0.0321  0.1308 -0.4811
10735SOL    HW139445   4.680   5.845  10.790  0.6775 -0.8244 -0.4435
10735SOL    HW239446   4.713   5.949  10.685 -1.3496  1.5144  1.1154
10736SOL     OW39447   4.890   4.419   8.183  0.7574 -0.0185 -0.4458
10736SOL    HW139448   4.877   4.349   8.119 -0.1589 -0.7561  0.4986
10736SOL    HW239449   4.865   4.499   8.136 -0.7366 -0.6411 -0.7857
10737SOL     OW39450   7.444  12.559   4.201  0.0356 -0.1718 -0.1654
10737SOL    HW139451   7.477  12.613   4.272 -1.5458 -0.2281  0.6373
10737SOL    HW239452   7.489  12.592   4.123  2.4576 -0.6775  0.9340
10738SOL     OW39453   6.733   8.494   0.115 -0.5696 -0.0593 -0.2155
10738SOL    HW139454   6.643   8.511   0.144 -0.6370  0.0475 -0.4873
10738SOL    HW239455   6.751   8.404   0.144 -0.8532 -0.1718 -0.3909
10739SOL     OW39456  11.107   1.517   0.476 -0.4161 -0.1133 -0.6721
10739SOL    HW139457  11.097   1.611   0.496 -0.8284  0.0492 -1.5926
10739SOL    HW239458  11.033   1.475   0.519 -1.5227  0.2839 -2.0936
10740SOL     OW39459   8.881   2.630  11.086  0.2776  0.8309 -0.1236
10740SOL    HW139460   8.966   2.612  11.048  0.1829 -2.3565  0.8910
10740SOL    HW239461   8.820   2.573  11.038 -0.9797  1.7410  0.3338
10741SOL     OW39462   2.092  11.309  12.313 -0.4549 -0.3741 -0.2924
10741SOL    HW139463   2.097  11.277  12.223  1.7009  1.0346 -0.7658
10741SOL    HW239464   2.179  11.291  12.350 -1.0997 -0.3645  1.3027
10742SOL     OW39465   2.449   4.547   4.409  0.7993  0.0618 -0.2926
10742SOL    HW139466   2.509   4.622   4.409 -0.0245  0.8232  2.2527
10742SOL    HW239467   2.363   4.586   4.394  0.7181 -0.9298 -3.0608
10743SOL     OW39468  12.281   3.272  11.348  0.0836  0.7417 -0.2643
10743SOL    HW139469  12.202   3.217  11.349 -0.3855  1.3871  0.8112
10743SOL    HW239470  12.249   3.360  11.368  1.1138  0.9455  0.5846
10744SOL     OW39471  11.503   1.537   7.722  0.8963 -0.0963 -0.1217
10744SOL    HW139472  11.555   1.497   7.652  0.8037 -0.0632 -0.2087
10744SOL    HW239473  11.490   1.628   7.694 -0.7626 -0.5712 -0.9822
10745SOL     OW39474   5.069   7.527   1.519 -0.1810  0.1982  0.2801
10745SOL    HW139475   5.116   7.609   1.536 -0.7281  0.3823  0.9563
10745SOL    HW239476   5.092   7.471   1.593  0.5057 -0.4232 -0.3752
10746SOL     OW39477   6.711  11.301   6.165 -0.5157 -0.6078  0.3907
10746SOL    HW139478   6.794  11.304   6.119 -0.7154  0.1099  0.0672
10746SOL    HW239479   6.650  11.346   6.107 -1.3445 -1.9151  0.1901
10747SOL     OW39480  10.531   7.963  10.349 -0.1069 -0.1707  0.1482
10747SOL    HW139481  10.518   7.871  10.324 -0.2882 -0.3722  0.9535
10747SOL    HW239482  10.456   8.009  10.313  0.7111 -0.0581 -1.5555
10748SOL     OW39483   8.892   0.447   9.950  0.0916 -0.2021  0.0740
10748SOL    HW139484   8.877   0.356   9.925 -0.9430 -0.3316  1.0931
10748SOL    HW239485   8.971   0.444  10.005  0.3711 -0.4065 -0.3392
10749SOL     OW39486  12.612   9.462   2.304  0.5221 -0.1460 -0.0914
10749SOL    HW139487  12.597   9.529   2.371  0.5484 -1.0160  0.8100
10749SOL    HW239488  12.674   9.402   2.345  1.4377 -0.0969 -1.3307
10750SOL     OW39489   5.180   7.453  12.248 -0.1246  0.0598 -0.2435
10750SOL    HW139490   5.113   7.430  12.312  0.3051  1.4911  0.7681
10750SOL    HW239491   5.135   7.511  12.186  0.4544  2.2512  1.2765
10751SOL     OW39492   9.400   5.610   9.348 -0.3159  0.3072 -0.2663
10751SOL    HW139493   9.479   5.613   9.294 -0.6460 -0.3312 -0.8019
10751SOL    HW239494   9.430   5.578   9.433 -0.2432 -1.8418 -1.0162
10752SOL     OW39495   8.954   9.631   2.206  0.1616  0.2561  0.2863
10752SOL    HW139496   8.868   9.662   2.179  0.3406  0.6452  0.1368
10752SOL    HW239497   8.965   9.664   2.295  0.1095  0.1115  0.3457
10753SOL     OW39498   9.243   3.928   2.231 -0.4581 -0.0236 -0.4245
10753SOL    HW139499   9.305   3.863   2.197  0.3699 -0.0439  1.0658
10753SOL    HW239500   9.202   3.885   2.306 -2.0971  0.1008 -1.2182
10754SOL     OW39501  10.673   0.500   1.631  0.0675 -0.3892 -0.2150
10754SOL    HW139502  10.674   0.591   1.602  0.6860 -0.0319  0.8723
10754SOL    HW239503  10.757   0.465   1.602 -0.0241 -0.5168 -0.3277
10755SOL     OW39504   9.311   0.439   8.523  0.3301 -0.1699 -0.1147
10755SOL    HW139505   9.331   0.423   8.616  0.8453  0.5961 -0.0861
10755SOL    HW239506   9.390   0.410   8.476 -0.2366 -1.3163 -0.4009
10756SOL     OW39507  10.988   9.884  11.394 -0.3216  0.3723  0.1789
10756SOL    HW139508  11.061   9.835  11.430 -0.9042 -2.5295 -2.2284
10756SOL    HW239509  10.940   9.914  11.471  1.7842 -0.1353  1.7915
10757SOL     OW39510   4.960   8.819   1.296  0.1866  0.5993  0.2363
10757SOL    HW139511   5.014   8.828   1.217  1.1733 -1.8318  0.5446
10757SOL    HW239512   4.914   8.903   1.303  1.3731  1.5249 -1.9346
10758SOL     OW39513   6.881   8.579  12.612 -0.5808 -0.3355  0.4473
10758SOL    HW139514   6.950   8.514  12.595 -1.0282 -0.3144 -1.7829
10758SOL    HW239515   6.844   8.553  12.696  0.0742 -2.2365  0.2032
10759SOL     OW39516   2.342   0.330   9.727  0.0452  0.4741  0.1037
10759SOL    HW139517   2.269   0.335   9.789 -1.1324  0.4976 -1.2137
10759SOL    HW239518   2.345   0.238   9.701 -1.8559  1.0199 -2.4281
10760SOL     OW39519   1.779  10.141   2.252 -0.0749 -0.3771 -0.7052
10760SOL    HW139520   1.757  10.217   2.199  0.7612  1.4849  1.4464
10760SOL    HW239521   1.697  10.093   2.261 -1.3134  1.7650  0.0884
10761SOL     OW39522  10.398   8.503  10.873 -0.2712 -0.0975  0.1324
10761SOL    HW139523  10.389   8.583  10.925  0.9819  1.2627 -1.5849
10761SOL    HW239524  10.321   8.503  10.817  1.3714  1.9895 -2.3736
10762SOL     OW39525   1.594   2.618   5.071 -0.4219  0.2630 -1.0734
10762SOL    HW139526   1.543   2.626   4.990 -0.5164  1.9767 -0.8777
10762SOL    HW239527   1.551   2.677   5.133 -1.4422 -2.3386  0.8583
10763SOL     OW39528   9.894   4.003   8.722 -0.2746 -0.2982  0.4595
10763SOL    HW139529   9.897   4.098   8.713  0.0018 -0.3936 -0.5662
10763SOL    HW239530   9.976   3.972   8.684  0.1894 -0.8847  1.8864
10764SOL     OW39531   8.617   1.278  10.352  0.3182  0.3343  0.3273
10764SOL    HW139532   8.629   1.183  10.345 -2.2964 -0.2077  1.8848
10764SOL    HW239533   8.693   1.309  10.400  1.1455 -0.9660 -0.0859
10765SOL     OW39534  11.487   0.094   0.789 -0.4962 -0.1350  0.6127
10765SOL    HW139535  11.487   0.134   0.876 -0.3011  0.0353  0.5337
10765SOL    HW239536  11.522   0.006   0.804  0.1185  0.1009  0.6157
10766SOL     OW39537   4.568  11.131   1.633  0.3075 -0.0259 -0.8097
10766SOL    HW139538   4.578  11.041   1.601  0.6426 -0.4440  0.4477
10766SOL    HW239539   4.621  11.183   1.572  0.8193 -0.7871 -1.0392
10767SOL     OW39540  11.389   8.980   5.200 -0.1801  0.2315  0.0389
10767SOL    HW139541  11.388   9.074   5.218 -1.6444  0.2936 -0.2719
10767SOL    HW239542  11.377   8.974   5.105  0.2927 -0.2682  0.0056
10768SOL     OW39543   2.494  10.399  11.633 -0.1785  0.0211  0.2764
10768SOL    HW139544   2.571  10.343  11.633 -0.6817 -0.8846  3.6077
10768SOL    HW239545   2.503  10.453  11.712 -2.3830  0.6974  0.1433
10769SOL     OW39546   5.521   1.286  10.200  0.5168 -0.1376 -0.2284
10769SOL    HW139547   5.505   1.259  10.110 -3.7273  0.0002  0.2818
10769SOL    HW239548   5.447   1.252  10.249  1.4179  1.8245  2.8010
10770SOL     OW39549   4.118   6.110   3.495  0.0838 -0.0760 -0.4334
10770SOL    HW139550   4.035   6.126   3.540 -0.0578 -2.3860  0.2549
10770SOL    HW239551   4.184   6.134   3.560 -0.0717  0.0180 -0.3077
10771SOL     OW39552   3.142   7.267   9.999 -0.3529  0.4909 -0.0080
10771SOL    HW139553   3.078   7.231   9.937  1.4163 -2.2920 -0.3775
10771SOL    HW239554   3.104   7.250  10.085 -0.5670 -0.2925 -0.2469
10772SOL     OW39555   0.746   2.621  10.075 -0.2086  0.1521  0.5733
10772SOL    HW139556   0.684   2.628  10.148 -1.2536 -0.0890 -0.2701
10772SOL    HW239557   0.723   2.693  10.017 -0.6909 -0.8189 -0.4791
10773SOL     OW39558  11.634   5.474   1.351 -0.3507  0.2124 -0.5908
10773SOL    HW139559  11.601   5.406   1.409  1.8782 -1.7185 -1.4335
10773SOL    HW239560  11.676   5.537   1.411 -1.5536  0.3901  0.1126
10774SOL     OW39561   3.074   9.191   4.148  0.7228 -0.4793 -0.1501
10774SOL    HW139562   3.120   9.257   4.096  0.9310 -0.8403 -0.4361
10774SOL    HW239563   3.076   9.112   4.093  3.0642 -1.5848  1.3283
10775SOL     OW39564  10.409  11.827   8.544 -0.3476  0.6211 -0.2516
10775SOL    HW139565  10.396  11.810   8.638 -1.4213  2.1211 -0.0999
10775SOL    HW239566  10.480  11.892   8.541  0.6113 -0.4078 -0.5769
10776SOL     OW39567   5.306  10.863  10.444 -0.2917  0.6715  0.1150
10776SOL    HW139568   5.219  10.880  10.480 -1.0607 -2.0414 -0.2702
10776SOL    HW239569   5.292  10.859  10.349  0.0454 -0.5970  0.1011
10777SOL     OW39570   5.013   2.805   5.995  0.0027  0.7077 -0.2050
10777SOL    HW139571   5.070   2.870   6.036  1.6702 -0.5595 -0.4107
10777SOL    HW239572   4.952   2.856   5.943  0.9596  2.1284  0.0031
10778SOL     OW39573   1.635  12.302  10.605  0.1150  0.4178 -0.2791
10778SOL    HW139574   1.712  12.334  10.653  0.1160 -0.4235  0.3056
10778SOL    HW239575   1.647  12.207  10.601 -1.7875  0.0303  1.4627
10779SOL     OW39576  11.709   0.095  11.180 -0.2487  0.4430  0.1337
10779SOL    HW139577  11.654   0.136  11.247 -1.7057  1.0777 -1.3913
10779SOL    HW239578  11.780   0.055  11.230 -0.9700  1.3499  2.0162
10780SOL     OW39579   4.597   9.262   9.920  0.0423  0.2038 -0.1927
10780SOL    HW139580   4.655   9.324   9.964  1.0098  0.4459 -1.7322
10780SOL    HW239581   4.541   9.228   9.990  1.1821  0.9183  1.1260
10781SOL     OW39582   9.833   9.979   4.618 -0.4457  0.0771  0.2457
10781SOL    HW139583   9.857   9.888   4.600  0.8008  0.6079 -1.0670
10781SOL    HW239584   9.902  10.011   4.676 -0.1948  0.4943 -0.2682
10782SOL     OW39585   2.619   2.344   3.344 -0.2206 -0.2538 -0.4718
10782SOL    HW139586   2.674   2.266   3.348  0.8099  0.4187 -1.1003
10782SOL    HW239587   2.535   2.316   3.380  0.6672 -1.1790  0.9831
10783SOL     OW39588   9.076   3.701   9.739 -0.1069  0.4228  0.2682
10783SOL    HW139589   9.122   3.767   9.687  1.4516 -1.8679 -1.4245
10783SOL    HW239590   9.027   3.649   9.675 -3.6620  1.5057  1.8108
10784SOL     OW39591  12.625  11.337   6.121 -0.1314 -0.6864  0.3185
10784SOL    HW139592  12.622  11.368   6.030 -0.0376 -0.6778  0.3182
10784SOL    HW239593  12.629  11.242   6.114  2.0895 -0.6408  0.2505
10785SOL     OW39594   3.377  10.268   6.643 -0.1853  0.0493  0.1113
10785SOL    HW139595   3.326  10.289   6.565 -1.8093  1.1049  1.3813
10785SOL    HW239596   3.311  10.247   6.710  1.0695  0.5644  1.5763
10786SOL     OW39597   7.275   8.128  11.416 -0.2211 -0.4297  0.3553
10786SOL    HW139598   7.184   8.151  11.433 -0.5232 -2.0155  1.0155
10786SOL    HW239599   7.314   8.116  11.502  0.5207 -0.1760  0.0696
10787SOL     OW39600   2.459  10.806   8.289  0.4914 -0.0800 -0.5168
10787SOL    HW139601   2.438  10.713   8.291 -0.3849  0.0988 -0.8988
10787SOL    HW239602   2.531  10.816   8.351 -0.8002 -0.6961  1.1758
10788SOL     OW39603   0.085   9.887   5.481  0.3652 -0.2173  0.1095
10788SOL    HW139604   0.068   9.955   5.417 -0.7881 -0.2946  0.3174
10788SOL    HW239605   0.139   9.930   5.548 -1.2465  0.8245  0.7941
10789SOL     OW39606  12.232   4.420   3.107  0.1402 -0.5837  0.5884
10789SOL    HW139607  12.266   4.475   3.178  1.4186 -1.7928  0.9509
10789SOL    HW239608  12.305   4.413   3.046 -1.8567  3.2159 -2.7526
10790SOL     OW39609  12.238   9.590   5.798 -0.2651  0.0029 -0.1004
10790SOL    HW139610  12.284   9.619   5.876 -0.5369 -0.3505  0.1956
10790SOL    HW239611  12.148   9.621   5.810 -0.5672 -0.9806  0.2398
10791SOL     OW39612   6.155   8.366   3.359  0.1205  0.3564 -0.2167
10791SOL    HW139613   6.204   8.432   3.407 -1.1182  1.3930 -0.3020
10791SOL    HW239614   6.203   8.355   3.277  0.5861  0.8349 -0.0120
10792SOL     OW39615   3.207   8.929  11.726  0.6485 -0.4375  0.4246
10792SOL    HW139616   3.197   8.883  11.810 -2.7436  0.6630  0.7659
10792SOL    HW239617   3.147   8.883  11.667  1.0733  0.3982 -0.6755
10793SOL     OW39618   8.179   9.327  12.594 -0.0351  0.4078  0.2090
10793SOL    HW139619   8.118   9.266  12.635  0.1450  1.1684  1.6913
10793SOL    HW239620   8.264   9.304  12.633  0.7933 -0.9410 -2.1520
10794SOL     OW39621   9.400  11.371   0.038 -0.1750  0.0520 -0.3169
10794SOL    HW139622   9.352  11.433  -0.016  1.5418  0.6434 -1.2559
10794SOL    HW239623   9.356  11.287   0.024 -1.0792  0.6119 -0.9185
10795SOL     OW39624   4.672  11.962   0.312  0.8057  0.0005  0.0372
10795SOL    HW139625   4.715  11.887   0.269  0.6044 -1.4571  2.1748
10795SOL    HW239626   4.707  12.039   0.268  1.8400 -1.3274 -1.5657
10796SOL     OW39627   1.244   4.183  11.420 -0.7056 -0.5192  0.0889
10796SOL    HW139628   1.211   4.255  11.367 -0.3482 -0.2092  0.2829
10796SOL    HW239629   1.330   4.212  11.450 -1.2370 -0.3182  1.5338
10797SOL     OW39630  12.433   5.764   2.695  0.0774 -0.0392 -0.1451
10797SOL    HW139631  12.522   5.799   2.689  0.0842 -0.0069  0.1320
10797SOL    HW239632  12.430   5.695   2.629  0.3549 -0.1332 -0.0608
10798SOL     OW39633   1.867   6.800   2.265  0.6416 -0.6274 -0.0532
10798SOL    HW139634   1.906   6.877   2.307  1.8894 -1.0616 -0.3996
10798SOL    HW239635   1.819   6.836   2.190 -1.3484  0.1211  1.4787
10799SOL     OW39636  11.124   7.484  12.380 -0.1321  0.1035  0.2228
10799SOL    HW139637  11.079   7.449  12.456 -1.3902  1.3275  0.0785
10799SOL    HW239638  11.105   7.423  12.309 -0.1265 -0.2937  0.5634
10800SOL     OW39639   7.221  12.493   4.317 -0.4660  0.1165  0.5378
10800SOL    HW139640   7.297  12.514   4.264 -1.1076  0.7324 -0.1696
10800SOL    HW239641   7.255  12.482   4.405  0.5543 -0.4577  0.0781
10801SOL     OW39642   4.342  10.944   6.070  0.1382  0.1912  0.6421
10801SOL    HW139643   4.378  10.914   5.987 -1.7254 -0.3899  0.0043
10801SOL    HW239644   4.419  10.956   6.126  1.2889 -1.4015 -0.5034
10802SOL     OW39645   8.798   6.316   1.154 -0.0871 -0.1652  0.5123
10802SOL    HW139646   8.751   6.247   1.200 -1.5369 -2.0121 -3.2647
10802SOL    HW239647   8.733   6.384   1.139 -0.3338 -0.6478 -0.7336
10803SOL     OW39648   9.022   6.639  11.897 -0.2738 -0.0686 -0.0215
10803SOL    HW139649   9.016   6.732  11.877  0.9502  0.6444  2.5656
10803SOL    HW239650   9.101   6.630  11.950  1.4560 -3.1389 -2.7361
10804SOL     OW39651  10.512   7.889  12.571 -0.1600  0.2629 -0.2937
10804SOL    HW139652  10.576   7.876  12.640 -2.2194  0.1528  1.7439
10804SOL    HW239653  10.558   7.939  12.504  2.0707  0.0024  0.9470
10805SOL     OW39654   8.817  11.342  11.697  0.2659  1.1500 -0.1239
10805SOL    HW139655   8.848  11.286  11.768 -0.1117 -0.0203 -0.8435
10805SOL    HW239656   8.722  11.342  11.706  0.0894 -0.2216 -1.4429
10806SOL     OW39657   7.284   0.854  10.326  0.2677  0.2883 -0.0915
10806SOL    HW139658   7.277   0.873  10.232  0.1613 -1.4065 -0.4623
10806SOL    HW239659   7.214   0.906  10.366  0.1070  0.7918 -0.9828
10807SOL     OW39660   2.161  11.141   9.812  1.0331 -0.3969  0.2271
10807SOL    HW139661   2.128  11.057   9.781  0.6254 -0.6455  1.2899
10807SOL    HW239662   2.231  11.164   9.751 -0.2776 -0.4443 -1.3649
10808SOL     OW39663   5.574   3.244   6.431 -0.1371 -0.3725 -0.7036
10808SOL    HW139664   5.586   3.218   6.340  1.0025 -0.4004 -0.5570
10808SOL    HW239665   5.646   3.202   6.478 -1.9838 -2.2903  0.6303
10809SOL     OW39666   9.154  11.378   0.392  0.4567 -0.0148 -0.7107
10809SOL    HW139667   9.198  11.400   0.310  0.8394  1.8220 -0.0597
10809SOL    HW239668   9.206  11.420   0.460 -0.4015 -0.6728  0.4062
10810SOL     OW39669   1.957  12.583   6.554  0.3771  0.3954 -0.4795
10810SOL    HW139670   1.942  12.496   6.591  0.5680  0.5563 -0.0176
10810SOL    HW239671   1.984  12.566   6.463  0.8470 -0.0499 -0.2605
10811SOL     OW39672   0.692   0.719   3.604 -0.2254  0.0118  0.2042
10811SOL    HW139673   0.706   0.624   3.604 -0.9393 -0.1965 -2.6724
10811SOL    HW239674   0.666   0.739   3.693 -0.7164 -2.6259  0.7428
10812SOL     OW39675   1.862   7.114   7.444  0.6595 -0.3956  0.3432
10812SOL    HW139676   1.852   7.195   7.495  0.1317  1.7972 -2.9048
10812SOL    HW239677   1.948   7.123   7.402 -0.0266 -0.7266 -1.2183
10813SOL     OW39678   3.359  12.049   5.902 -0.0091  0.1579 -0.0137
10813SOL    HW139679   3.277  12.030   5.857 -0.5287  0.3655  0.8343
10813SOL    HW239680   3.352  12.141   5.929 -0.4501 -0.4152  1.9846
10814SOL     OW39681   5.740   4.385  10.060 -0.1366 -0.5122  0.3949
10814SOL    HW139682   5.770   4.436  10.135  0.4548 -0.7696  0.3439
10814SOL    HW239683   5.783   4.300  10.071 -0.6171 -0.7917  0.1484
10815SOL     OW39684   7.377   6.604   1.316  0.1209  0.1939 -0.3226
10815SOL    HW139685   7.453   6.575   1.266  0.2796  2.1032 -1.2743
10815SOL    HW239686   7.394   6.697   1.334  0.1048 -0.3369  3.3585
10816SOL     OW39687  10.400   8.783  10.076  0.1907 -0.4499 -0.0244
10816SOL    HW139688  10.307   8.788  10.098  0.2827 -0.7309  0.4425
10816SOL    HW239689  10.411   8.845  10.004  0.0694  1.2420  1.3439
10817SOL     OW39690   0.309  11.623   7.262 -1.1090 -0.1862  0.0290
10817SOL    HW139691   0.219  11.596   7.278 -1.1783 -0.4562 -0.7819
10817SOL    HW239692   0.319  11.620   7.167  0.2141 -1.6935  0.1783
10818SOL     OW39693  12.135   5.983   1.465  0.9385 -0.0687 -0.2706
10818SOL    HW139694  12.206   6.044   1.486  2.0535 -1.6061  0.5795
10818SOL    HW239695  12.066   6.005   1.527  0.6644  1.3734 -1.0349
10819SOL     OW39696   0.397   7.724   8.422 -0.3114  0.2605  0.2205
10819SOL    HW139697   0.464   7.656   8.428  0.0747  0.3931 -1.7070
10819SOL    HW239698   0.314   7.677   8.414 -0.0620 -0.0247 -0.9368
10820SOL     OW39699   1.938   5.667   2.068 -0.0298  0.9580  0.0366
10820SOL    HW139700   1.976   5.593   2.021  0.9468  1.4864 -0.0478
10820SOL    HW239701   1.894   5.628   2.144 -2.5404 -0.0123 -1.8115
10821SOL     OW39702   2.261  10.608   5.865 -0.0826  0.1767 -0.0712
10821SOL    HW139703   2.224  10.695   5.848  1.8870  0.8630 -1.2333
10821SOL    HW239704   2.199  10.548   5.825 -1.6747  0.9850  1.0742
10822SOL     OW39705  10.956  10.220   5.166 -0.2987 -0.2187 -0.8476
10822SOL    HW139706  10.867  10.249   5.187 -0.5300 -0.9981 -0.7250
10822SOL    HW239707  10.981  10.164   5.240  0.2964 -0.0005 -0.8782
10823SOL     OW39708   1.822   8.838   3.655  0.9895 -0.2696 -0.3772
10823SOL    HW139709   1.878   8.869   3.585 -0.4800 -1.1075 -2.0158
10823SOL    HW239710   1.814   8.912   3.715  1.0522  1.0140 -1.9088
10824SOL     OW39711  11.369   1.680   1.038 -0.1369  0.2183 -0.6554
10824SOL    HW139712  11.378   1.629   0.957  1.0534  1.5747 -1.4250
10824SOL    HW239713  11.376   1.771   1.010  0.4485  0.7155  1.0069
10825SOL     OW39714   2.733   5.927  12.208  0.1283 -0.0732 -0.4456
10825SOL    HW139715   2.786   5.854  12.241 -0.7139 -0.6575 -0.3407
10825SOL    HW239716   2.705   5.898  12.121 -0.5018 -0.0342 -0.2601
10826SOL     OW39717   7.636  11.046   2.225 -0.4200 -0.0853 -0.1595
10826SOL    HW139718   7.704  11.042   2.157  1.4110 -0.6279  1.6140
10826SOL    HW239719   7.585  11.124   2.203 -0.0103 -0.3547 -2.2571
10827SOL     OW39720  11.091   5.754   9.597 -0.1730  0.1944 -0.0937
10827SOL    HW139721  11.186   5.756   9.598 -0.1640 -0.2258  0.7993
10827SOL    HW239722  11.068   5.662   9.583 -0.4631  0.3953 -1.0735
10828SOL     OW39723   1.199   1.375   4.931  0.0564 -0.0285 -0.0379
10828SOL    HW139724   1.124   1.432   4.916 -0.0637 -0.3021 -0.5164
10828SOL    HW239725   1.194   1.310   4.861  0.7687 -0.0206 -0.1040
10829SOL     OW39726  12.293  11.454   5.823 -0.4242 -0.4155 -0.3498
10829SOL    HW139727  12.321  11.494   5.905 -0.9976  0.5837 -0.6262
10829SOL    HW239728  12.355  11.383   5.809  1.4497  1.1608 -0.4914
10830SOL     OW39729   9.352  10.524   8.984 -0.4671  0.1032 -0.0053
10830SOL    HW139730   9.324  10.518   8.893  0.8045  0.1338 -0.4261
10830SOL    HW239731   9.289  10.470   9.032 -0.3279 -1.1020 -1.1005
10831SOL     OW39732   8.281  11.567   5.985  0.4666  0.1371  0.2408
10831SOL    HW139733   8.224  11.608   6.050  0.7649  1.5944 -0.3769
10831SOL    HW239734   8.369  11.600   6.006  0.6778  0.0410 -0.4522
10832SOL     OW39735   5.655   1.840   2.982 -0.1690 -0.0236 -0.3424
10832SOL    HW139736   5.646   1.814   3.073  2.1992 -1.9648 -0.5684
10832SOL    HW239737   5.738   1.803   2.954 -0.3604  1.3102 -3.0539
10833SOL     OW39738   4.816   3.672   6.664  0.0886 -0.4580 -0.2174
10833SOL    HW139739   4.882   3.628   6.609  1.3500  0.3002  0.6211
10833SOL    HW239740   4.865   3.741   6.709 -1.4562  0.6080 -0.0952
10834SOL     OW39741  11.301   9.002  10.819 -0.0804  0.4032  0.0546
10834SOL    HW139742  11.371   9.066  10.833  0.4712 -0.5151  1.8522
10834SOL    HW239743  11.341   8.918  10.840 -1.3245 -0.3210 -0.3570
10835SOL     OW39744   9.012   8.378   5.098  0.2433 -0.2530  0.5844
10835SOL    HW139745   8.970   8.424   5.025 -0.5393  0.3655  1.4124
10835SOL    HW239746   8.957   8.302   5.113  2.1427 -2.2104 -1.5275
10836SOL     OW39747   2.461   7.790  11.140 -0.5724  0.1976 -0.2757
10836SOL    HW139748   2.546   7.829  11.120  0.1992 -0.9615  0.5761
10836SOL    HW239749   2.443   7.733  11.066  0.0815 -0.6163  0.1768
10837SOL     OW39750   2.607   6.172   2.144 -0.2393 -0.4372  0.2894
10837SOL    HW139751   2.637   6.227   2.072  1.2793 -0.2605  1.0178
10837SOL    HW239752   2.568   6.096   2.102  0.5772 -0.3049 -0.7387
10838SOL     OW39753   6.700   9.829   4.203  0.0786  0.2464 -0.3309
10838SOL    HW139754   6.710   9.774   4.280 -0.5365 -0.5289 -0.7945
10838SOL    HW239755   6.606   9.842   4.194  0.2122  1.3528 -0.2538
10839SOL     OW39756  10.747   5.546   3.406  0.1416 -0.0893 -0.0724
10839SOL    HW139757  10.666   5.576   3.364  1.5297  2.7106 -0.9905
10839SOL    HW239758  10.742   5.580   3.495  0.8242  1.2795 -0.5224
10840SOL     OW39759  11.116   8.853   8.298  0.4637 -0.4894 -0.6035
10840SOL    HW139760  11.183   8.824   8.236 -0.9767 -1.4557 -1.7952
10840SOL    HW239761  11.160   8.917   8.354  2.3045 -0.9557 -1.4472
10841SOL     OW39762   0.148  10.986   8.336  0.2080 -0.3154  0.4950
10841SOL    HW139763   0.095  11.040   8.277  0.8929  2.7497  2.4314
10841SOL    HW239764   0.084  10.941   8.391 -0.4060  0.1968  0.2127
10842SOL     OW39765   1.395   8.268   1.716  0.6626 -0.7524 -0.4854
10842SOL    HW139766   1.377   8.335   1.783  1.4763 -0.1164 -0.8763
10842SOL    HW239767   1.462   8.213   1.755  0.3533 -1.0379 -0.3576
10843SOL     OW39768  12.051   5.573   6.487 -0.2363 -0.5819 -0.2190
10843SOL    HW139769  12.101   5.633   6.431  0.7629 -0.5011  0.7312
10843SOL    HW239770  12.101   5.568   6.568 -0.4014 -2.5467 -0.1850
10844SOL     OW39771  11.822  11.579  11.955 -0.1198 -0.5498 -0.1836
10844SOL    HW139772  11.731  11.590  11.981  0.0554 -2.8551  1.7115
10844SOL    HW239773  11.866  11.655  11.993 -1.0285 -0.1081  0.0149
10845SOL     OW39774   7.623   4.488   3.166  0.0037  0.4762  0.4609
10845SOL    HW139775   7.591   4.403   3.198  0.4503  0.1308  0.0064
10845SOL    HW239776   7.614   4.546   3.241  0.7158 -0.2388  1.1247
10846SOL     OW39777   8.969   1.793   8.107  0.3130 -0.6024  0.5042
10846SOL    HW139778   9.001   1.839   8.184  1.8167 -0.3414 -0.2436
10846SOL    HW239779   8.900   1.735   8.140 -0.1738  0.6535  1.7786
10847SOL     OW39780   5.374  10.820   6.253 -0.0739 -0.1510 -0.5065
10847SOL    HW139781   5.281  10.840   6.250 -0.0615  0.3599  1.3926
10847SOL    HW239782   5.384  10.745   6.194 -1.9790 -1.2781  0.5028
10848SOL     OW39783   1.584   4.370   2.400 -0.6966 -0.5602  0.5191
10848SOL    HW139784   1.558   4.322   2.322  1.2217 -0.1064 -0.4679
10848SOL    HW239785   1.653   4.316   2.440 -0.3207  0.1164  0.8145
10849SOL     OW39786  10.690  11.306   5.519  0.0996  0.0336  0.4319
10849SOL    HW139787  10.600  11.313   5.487 -0.8815  1.4729  3.1772
10849SOL    HW239788  10.716  11.396   5.540  1.1630 -0.6272  2.1874
10850SOL     OW39789   1.540   9.682   4.399 -0.0511 -0.0704 -0.1558
10850SOL    HW139790   1.600   9.737   4.450 -0.3259  1.2551 -1.2128
10850SOL    HW239791   1.551   9.712   4.309 -0.6528 -1.3740 -0.6876
10851SOL     OW39792   1.241   4.724   9.495  0.3677 -1.0288  0.0830
10851SOL    HW139793   1.160   4.692   9.534  0.6915 -1.8162  0.1272
10851SOL    HW239794   1.287   4.645   9.466  0.7718 -0.5452 -0.6295
10852SOL     OW39795  10.089   9.532  11.244  0.0948  0.3469  0.3369
10852SOL    HW139796  10.120   9.542  11.334 -1.0260 -1.7520  1.0186
10852SOL    HW239797  10.101   9.439  11.225 -0.6331  0.5670 -1.3288
10853SOL     OW39798   0.455  11.774  11.787  0.5750 -0.0683  0.1752
10853SOL    HW139799   0.487  11.684  11.792 -2.8189 -1.4358  0.0875
10853SOL    HW239800   0.490  11.808  11.704  2.7247 -0.8783  0.6894
10854SOL     OW39801   9.525   1.928   9.796 -0.4024 -0.2925 -0.4225
10854SOL    HW139802   9.537   1.871   9.720 -0.4739 -0.6838 -0.1419
10854SOL    HW239803   9.607   1.978   9.800 -0.6016  0.1063 -1.0631
10855SOL     OW39804   0.959   1.118   2.370  0.4581 -0.1702  0.2853
10855SOL    HW139805   0.865   1.137   2.377  0.3101 -1.0782  1.0569
10855SOL    HW239806   1.001   1.180   2.430  0.4137  0.5676 -0.4266
10856SOL     OW39807   0.180   6.298   6.469  0.4431  0.2790 -0.0042
10856SOL    HW139808   0.090   6.266   6.467  0.1871  0.9583 -1.6403
10856SOL    HW239809   0.183   6.356   6.545 -0.6879  0.6712 -0.2245
10857SOL     OW39810   0.485  12.206   4.351 -0.2581 -0.8060 -0.1109
10857SOL    HW139811   0.488  12.224   4.445  0.0161 -1.4957  0.0197
10857SOL    HW239812   0.498  12.112   4.344  3.0489 -0.4413 -0.9764
10858SOL     OW39813   1.851  12.275   5.248 -0.0220 -0.2365 -0.4222
10858SOL    HW139814   1.764  12.288   5.212 -0.2075  0.1763  0.1595
10858SOL    HW239815   1.846  12.192   5.295  0.2573 -0.8409 -1.4354
10859SOL     OW39816   3.880   9.494   4.543  0.1017 -0.0542  0.3225
10859SOL    HW139817   3.889   9.578   4.587  2.4188  0.2693 -0.6217
10859SOL    HW239818   3.837   9.515   4.460  2.1322  0.5501 -0.6443
10860SOL     OW39819  11.489   0.061   3.408  0.2421 -0.2373  0.0838
10860SOL    HW139820  11.577   0.031   3.430  1.2881  1.7774 -1.0284
10860SOL    HW239821  11.488   0.153   3.435 -1.7037 -0.3302  0.4788
10861SOL     OW39822   9.445   0.658   3.703 -0.3089 -0.1675 -0.2613
10861SOL    HW139823   9.503   0.586   3.728  0.9166  0.7190 -0.4086
10861SOL    HW239824   9.399   0.681   3.784 -1.5202 -1.7729 -0.4480
10862SOL     OW39825   5.398   4.423   6.184  0.4769 -0.5826  0.3307
10862SOL    HW139826   5.358   4.438   6.269  2.3872 -0.3413  1.2423
10862SOL    HW239827   5.412   4.511   6.148  0.8132 -0.6330  0.3334
10863SOL     OW39828   5.543   8.182   6.327 -0.0654  0.1890  0.2946
10863SOL    HW139829   5.554   8.240   6.402  0.3149  0.3804  0.0953
10863SOL    HW239830   5.545   8.240   6.251 -1.2918  0.0962  0.1669
10864SOL     OW39831   2.789   9.820   0.436  0.5667  0.1424 -0.6580
10864SOL    HW139832   2.849   9.747   0.452  2.0310  1.7487  1.8659
10864SOL    HW239833   2.801   9.840   0.343  0.6073 -2.3520 -1.2647
10865SOL     OW39834  11.576   0.265   1.358 -0.3942  0.0839 -0.0412
10865SOL    HW139835  11.578   0.347   1.309  0.4979  0.7598  1.0652
10865SOL    HW239836  11.668   0.237   1.363 -0.3140  0.5305  1.9796
10866SOL     OW39837   1.585   0.172   7.404 -0.1935 -0.0167  0.2738
10866SOL    HW139838   1.508   0.175   7.347 -1.4429  2.9444  1.8926
10866SOL    HW239839   1.623   0.260   7.397  3.6666 -1.5739 -1.0933
10867SOL     OW39840   2.366   0.399   5.019 -0.1824  0.1342  0.3007
10867SOL    HW139841   2.368   0.311   5.055  1.1542  0.0801  0.1312
10867SOL    HW239842   2.309   0.393   4.942  0.2584 -0.6749  0.0382
10868SOL     OW39843   5.827   1.602  12.359  0.3111 -0.0362  0.3395
10868SOL    HW139844   5.757   1.611  12.425 -0.7539  0.7540 -0.8406
10868SOL    HW239845   5.908   1.612  12.408 -0.4792  1.6026  1.4043
10869SOL     OW39846   4.122   2.193   9.334 -0.3243 -0.1314  0.2523
10869SOL    HW139847   4.097   2.148   9.414 -1.3776  1.3572  0.7960
10869SOL    HW239848   4.077   2.146   9.264  0.8980 -1.6687  0.4597
10870SOL     OW39849   3.204   4.212   9.364 -0.0674 -0.0229  0.6710
10870SOL    HW139850   3.224   4.126   9.401  0.9358  0.8452  2.2687
10870SOL    HW239851   3.176   4.193   9.274 -1.1563 -2.1072  1.3762
10871SOL     OW39852   3.556  12.475   7.252 -0.0431  0.4769  0.7345
10871SOL    HW139853   3.584  12.521   7.172 -0.6179  0.9123  0.7806
10871SOL    HW239854   3.578  12.535   7.323  0.9682 -0.1361  0.9692
10872SOL     OW39855   1.949  11.955   2.336  0.0803 -0.1323  0.3561
10872SOL    HW139856   1.953  11.940   2.430 -1.9143 -0.5596  0.4063
10872SOL    HW239857   1.926  12.048   2.328  2.1660  0.4338  0.2039
10873SOL     OW39858   2.542   1.502   0.128  0.4835  0.0684 -0.1429
10873SOL    HW139859   2.608   1.433   0.126 -0.3624 -0.7535 -1.7767
10873SOL    HW239860   2.572   1.565   0.063  0.3884  0.3952  0.1299
10874SOL     OW39861   8.402   8.790   4.637 -0.4241  0.3274 -0.4217
10874SOL    HW139862   8.458   8.750   4.571  0.2283 -1.3758  1.0866
10874SOL    HW239863   8.314   8.786   4.600 -0.7559 -4.3100  0.2494
10875SOL     OW39864   4.926   2.176   9.254 -0.1027 -0.4068  0.2842
10875SOL    HW139865   5.018   2.192   9.277  0.0571 -1.8446  0.7389
10875SOL    HW239866   4.929   2.102   9.194 -0.9550 -0.3493  0.1663
10876SOL     OW39867  10.242  12.007   0.494  0.5146 -0.1332 -0.6383
10876SOL    HW139868  10.195  12.091   0.497 -0.4920 -0.6886 -0.2379
10876SOL    HW239869  10.235  11.980   0.402  2.0207  0.8357 -1.0835
10877SOL     OW39870   1.276   0.216   0.394 -0.5110  0.4766  0.0973
10877SOL    HW139871   1.278   0.127   0.357  1.1402  1.0016 -1.1660
10877SOL    HW239872   1.191   0.251   0.366  0.2540  0.4981 -2.4785
10878SOL     OW39873  10.154   5.464   2.340 -0.5016 -0.6242  0.2466
10878SOL    HW139874  10.163   5.529   2.410  0.3115 -0.1189 -0.3115
10878SOL    HW239875  10.146   5.515   2.260  1.6231 -1.1635 -0.3798
10879SOL     OW39876   1.119   7.001   3.909 -0.1128 -0.7561  0.6133
10879SOL    HW139877   1.172   6.965   3.838 -0.6306 -1.2162  0.4503
10879SOL    HW239878   1.069   7.071   3.869 -0.6042 -1.1928  0.4589
10880SOL     OW39879   3.180  10.446   4.586 -0.2997 -0.4013  0.4998
10880SOL    HW139880   3.218  10.373   4.538 -0.7393 -0.0946 -0.3415
10880SOL    HW239881   3.115  10.405   4.644  1.2220 -0.9183  1.9107
10881SOL     OW39882   2.925   9.298   7.715 -0.0473  0.0567  0.2230
10881SOL    HW139883   2.946   9.383   7.754 -0.1243 -0.1785  0.7918
10881SOL    HW239884   3.005   9.247   7.725 -0.2573 -0.1978  0.6082
10882SOL     OW39885   3.134  11.271  10.210  0.0522  0.0316  0.0755
10882SOL    HW139886   3.160  11.222  10.132 -1.0709  0.4886 -0.6087
10882SOL    HW239887   3.174  11.357  10.199 -1.3975  0.6177 -0.8014
10883SOL     OW39888  11.221   5.633   1.581  0.4443 -0.3376  0.4348
10883SOL    HW139889  11.130   5.640   1.551  0.6295  2.5929  0.2886
10883SOL    HW239890  11.215   5.583   1.662 -0.9172 -2.5258 -0.9139
10884SOL     OW39891  11.333   3.672  11.341  0.5342 -0.2029 -0.2591
10884SOL    HW139892  11.249   3.642  11.375  0.0281  0.7287 -0.6841
10884SOL    HW239893  11.384   3.692  11.420  1.0157 -2.4223  0.0653
10885SOL     OW39894   9.942  12.498   3.809  0.1197  0.8610 -0.0331
10885SOL    HW139895   9.977  12.564   3.869  1.2637  0.1671  0.0971
10885SOL    HW239896   9.873  12.455   3.858 -0.5684  1.8875 -0.0858
10886SOL     OW39897   1.584   1.861   2.384 -0.1508  0.3742 -0.2229
10886SOL    HW139898   1.530   1.882   2.308  1.1906 -0.5645 -1.4955
10886SOL    HW239899   1.659   1.921   2.377  1.3602 -1.5395 -1.2594
10887SOL     OW39900   8.729   1.385   6.301  0.1022 -0.1602 -0.1107
10887SOL    HW139901   8.679   1.466   6.287  0.0993 -0.1798 -0.2178
10887SOL    HW239902   8.764   1.394   6.389 -1.9489 -1.1327  0.8694
10888SOL     OW39903  12.342   7.059  11.816  0.0410 -0.1958 -0.1442
10888SOL    HW139904  12.334   7.012  11.899  0.1543 -0.4733 -0.2885
10888SOL    HW239905  12.252   7.074  11.788 -0.0126  0.6694  0.4585
10889SOL     OW39906   6.010   8.551   7.115  0.0546 -0.0380 -0.7584
10889SOL    HW139907   6.071   8.577   7.183  1.4152  0.4983 -2.1210
10889SOL    HW239908   5.927   8.590   7.140  1.0630  2.1032 -0.5783
10890SOL     OW39909   4.946  11.071  10.897 -0.2196 -0.3105  0.6612
10890SOL    HW139910   4.901  11.020  10.829  0.0824  0.0417  0.1851
10890SOL    HW239911   5.034  11.085  10.862 -0.3493  0.6973  0.6905
10891SOL     OW39912   3.048   4.619   7.220 -0.4512  0.0611  0.2502
10891SOL    HW139913   2.996   4.611   7.300 -0.9918  0.8869 -0.0018
10891SOL    HW239914   2.996   4.573   7.154 -0.8663  0.8450  0.0092
10892SOL     OW39915   2.183   5.573   1.799  0.0956 -0.6561  0.3061
10892SOL    HW139916   2.098   5.611   1.822 -1.1274 -1.4161 -2.4442
10892SOL    HW239917   2.185   5.490   1.847 -0.9924 -0.8598  0.0451
10893SOL     OW39918   1.360   8.462   2.658  0.1801  0.0054 -0.5715
10893SOL    HW139919   1.300   8.392   2.634 -0.6557  0.4245  0.2208
10893SOL    HW239920   1.326   8.539   2.612  0.6481  0.0608 -0.8337
10894SOL     OW39921  12.342   4.188   9.720 -0.2159  0.1090  0.1598
10894SOL    HW139922  12.290   4.202   9.799 -0.4510 -0.0089  0.0254
10894SOL    HW239923  12.341   4.093   9.707  0.5256  0.0496  0.4935
10895SOL     OW39924   1.582   5.457  11.991  0.2414  0.2239  0.3354
10895SOL    HW139925   1.655   5.481  12.048  0.2562 -2.0250  1.3517
10895SOL    HW239926   1.538   5.386  12.036 -1.4411  0.2297 -1.1810
10896SOL     OW39927   3.120  12.327   4.946  0.8272 -0.0155  0.1043
10896SOL    HW139928   3.104  12.385   5.021  0.4375  1.1468 -0.8255
10896SOL    HW239929   3.201  12.360   4.908  0.6798 -0.1652 -0.3456
10897SOL     OW39930   4.328  12.144   3.191 -0.1173  0.6893  0.5723
10897SOL    HW139931   4.387  12.079   3.228 -1.3956  0.6980  2.8682
10897SOL    HW239932   4.246  12.096   3.177  0.5155  0.4178 -3.4986
10898SOL     OW39933   6.138  12.098   0.980  0.1777 -0.5490  0.0373
10898SOL    HW139934   6.093  12.148   1.048  0.1993  0.1852 -0.4774
10898SOL    HW239935   6.097  12.011   0.984 -0.8606 -0.0815  0.0005
10899SOL     OW39936  11.440   0.385   8.744 -0.1972 -0.3509 -0.3418
10899SOL    HW139937  11.359   0.392   8.794  1.2608 -2.1359  2.5425
10899SOL    HW239938  11.509   0.392   8.810  1.9090 -2.2264 -2.1869
10900SOL     OW39939   0.915   7.156   3.822 -0.2487  0.5935 -0.2515
10900SOL    HW139940   0.868   7.091   3.876  1.3580 -0.5546 -0.1486
10900SOL    HW239941   0.874   7.239   3.844  0.1737  0.1594  2.6630
10901SOL     OW39942   9.733   2.639   5.455 -0.4976  0.3081 -0.2280
10901SOL    HW139943   9.768   2.566   5.404  0.5176  0.9655 -0.5024
10901SOL    HW239944   9.644   2.650   5.424 -0.1826  0.1216 -1.2330
10902SOL     OW39945   3.052   1.144   5.944 -0.5190  0.1664 -0.4335
10902SOL    HW139946   3.144   1.119   5.931 -0.4649  0.0667  0.0993
10902SOL    HW239947   3.055   1.204   6.019 -0.9389 -0.2036 -0.1172
10903SOL     OW39948   4.931   2.741   0.583 -0.2074  0.0397  0.1212
10903SOL    HW139949   4.910   2.657   0.626 -0.3265  0.8936  1.8293
10903SOL    HW239950   4.852   2.764   0.535 -1.6067  0.9311  2.6725
10904SOL     OW39951   6.316   5.576   1.631 -0.9747 -0.3875 -0.0838
10904SOL    HW139952   6.314   5.632   1.553 -2.1938  0.5656  0.6114
10904SOL    HW239953   6.234   5.527   1.627 -2.3724  1.6159  1.9501
10905SOL     OW39954   9.605   7.526  10.001  0.3869  0.6450 -0.5167
10905SOL    HW139955   9.603   7.434   9.976  2.0066  0.8080 -1.3362
10905SOL    HW239956   9.681   7.534  10.059  0.7349  1.6065 -1.0794
10906SOL     OW39957   1.275   3.163   0.352 -0.1865  0.4801  0.6940
10906SOL    HW139958   1.181   3.166   0.332  0.4204 -0.5345 -3.0836
10906SOL    HW239959   1.295   3.250   0.386 -2.3111  1.0642  0.6116
10907SOL     OW39960   2.968   4.787   0.358  0.2385  0.5236  0.4965
10907SOL    HW139961   2.898   4.805   0.421 -0.4337 -0.0365 -0.0832
10907SOL    HW239962   2.994   4.873   0.325 -1.0111  0.6552 -0.1798
10908SOL     OW39963   1.605  10.048   2.725 -0.0158 -0.2092  0.5618
10908SOL    HW139964   1.676  10.056   2.661  1.6307  0.4256  2.3551
10908SOL    HW239965   1.618   9.962   2.764 -1.2450 -0.7527 -0.1775
10909SOL     OW39966   5.933   5.902   4.894  0.3421 -0.5291  0.6313
10909SOL    HW139967   5.938   5.929   4.985  0.2108 -1.4477  0.9231
10909SOL    HW239968   6.014   5.852   4.879  0.7976  0.3732 -0.0231
10910SOL     OW39969   8.266   8.512   1.933  0.1991  0.2853 -0.4954
10910SOL    HW139970   8.182   8.500   1.977 -0.1636  0.3261 -1.1663
10910SOL    HW239971   8.323   8.551   2.000  0.0135 -0.7711  0.2960
10911SOL     OW39972   2.567  10.480   7.807  0.0716  0.5443  0.4894
10911SOL    HW139973   2.534  10.514   7.724 -1.4907  1.4562  1.4237
10911SOL    HW239974   2.509  10.518   7.873  0.5659 -1.0283  1.9169
10912SOL     OW39975   9.488   2.073  12.114  0.0419 -0.2830 -0.7501
10912SOL    HW139976   9.543   2.027  12.177 -0.7371  0.1490  0.2736
10912SOL    HW239977   9.531   2.059  12.030  1.9935  0.4504  0.0723
10913SOL     OW39978   4.823   1.894   2.913 -0.0506 -0.3577 -0.0699
10913SOL    HW139979   4.873   1.817   2.939 -0.8100 -0.3812  1.4635
10913SOL    HW239980   4.882   1.968   2.930  0.4177 -0.5369 -0.8624
10914SOL     OW39981   0.775   4.245   2.041  0.2082  0.3939 -0.1592
10914SOL    HW139982   0.856   4.263   2.090  0.7371 -0.0314 -0.8549
10914SOL    HW239983   0.708   4.295   2.087  0.4214 -0.9921  1.7778
10915SOL     OW39984  10.706  11.089  12.676 -0.7663  0.3881  0.3132
10915SOL    HW139985  10.791  11.095  12.719 -0.3351 -0.0434 -0.4727
10915SOL    HW239986  10.680  11.180  12.661 -0.2089  0.5098  0.0898
10916SOL     OW39987   1.040   6.812   8.787  0.0523  0.0991  0.1481
10916SOL    HW139988   1.090   6.736   8.816  0.7607  0.2346 -0.7042
10916SOL    HW239989   0.973   6.823   8.855 -1.8071 -2.9239 -0.9913
10917SOL     OW39990   5.685   3.479   4.753  0.6146  0.3964  0.0320
10917SOL    HW139991   5.683   3.532   4.673  0.2809  1.6904  0.8580
10917SOL    HW239992   5.691   3.544   4.824 -0.8167 -0.6175  1.1426
10918SOL     OW39993  10.634   2.563   2.134 -0.3946  0.0085  0.3516
10918SOL    HW139994  10.675   2.606   2.209 -0.0595 -0.0726  0.2179
10918SOL    HW239995  10.667   2.473   2.137  0.0951  0.1621 -0.2351
10919SOL     OW39996   9.484   6.719   3.006 -0.0090 -0.2185 -0.6492
10919SOL    HW139997   9.539   6.764   3.069  1.2464  1.1847 -2.6200
10919SOL    HW239998   9.526   6.634   2.993 -1.2505 -1.2634  1.5821
10920SOL     OW39999   0.590   4.758   0.570 -1.0836  0.8514 -0.6154
10920SOL    HW140000   0.581   4.816   0.646 -2.8400  0.2595 -0.3241
10920SOL    HW240001   0.625   4.814   0.501 -1.2701  1.8712  0.0960
10921SOL     OW40002   2.872   4.491  10.626  0.3864 -0.0587  0.3370
10921SOL    HW140003   2.917   4.470  10.545 -0.3699  0.8467 -0.3354
10921SOL    HW240004   2.912   4.573  10.656 -1.0277  0.9670 -0.4760
10922SOL     OW40005   8.436   8.667  10.513  0.1831  0.3272 -0.6484
10922SOL    HW140006   8.525   8.700  10.502  0.8512 -0.6897  1.2482
10922SOL    HW240007   8.382   8.746  10.521  1.2718  0.9828  0.5511
10923SOL     OW40008   1.494   2.788   5.819 -0.5668 -0.2955 -0.4397
10923SOL    HW140009   1.524   2.700   5.795 -2.8098 -1.1941 -0.2140
10923SOL    HW240010   1.574   2.841   5.821  0.7293 -2.0866 -1.5522
10924SOL     OW40011   1.984   0.712   2.674 -0.6335  0.1670 -0.4748
10924SOL    HW140012   2.057   0.652   2.660 -0.7810 -0.1724  0.1781
10924SOL    HW240013   2.024   0.799   2.673 -0.1505 -0.0325  0.2223
10925SOL     OW40014   5.027   6.680   6.743  0.0962 -0.5837  0.0126
10925SOL    HW140015   5.013   6.624   6.667 -0.6161 -2.1293  1.2138
10925SOL    HW240016   4.938   6.704   6.771  0.3300 -0.4741  0.6686
10926SOL     OW40017   9.987   6.810  11.114 -0.8201  0.5021 -0.2407
10926SOL    HW140018   9.943   6.794  11.031 -1.0950  0.7288 -0.1405
10926SOL    HW240019   9.975   6.904  11.130  0.3683  0.7323 -0.5945
10927SOL     OW40020   9.653   4.733   9.124 -0.3620  0.0638  0.5666
10927SOL    HW140021   9.719   4.802   9.136  1.8912 -1.3521 -2.3777
10927SOL    HW240022   9.636   4.732   9.030 -1.3134 -2.4941  0.6852
10928SOL     OW40023   5.536   1.230   3.385  0.4371 -0.0555  0.0027
10928SOL    HW140024   5.558   1.304   3.329  0.8612 -0.5521 -0.5016
10928SOL    HW240025   5.476   1.177   3.333  0.0700 -0.0308  0.3921
10929SOL     OW40026   4.577   3.730   4.131 -0.3933 -0.2774  0.3562
10929SOL    HW140027   4.666   3.721   4.096  0.3149  0.8857  1.7648
10929SOL    HW240028   4.535   3.647   4.109  0.2409  0.0476 -2.4761
10930SOL     OW40029   4.364   9.447  12.094  0.6043 -0.3395  0.1110
10930SOL    HW140030   4.300   9.395  12.143  1.9294 -0.6649  1.5788
10930SOL    HW240031   4.312   9.513  12.048 -0.9845 -1.9745 -0.5817
10931SOL     OW40032  11.429   0.894   7.355 -0.4779 -0.4931 -0.1937
10931SOL    HW140033  11.506   0.869   7.304  0.3738 -0.3233  0.9614
10931SOL    HW240034  11.362   0.914   7.290  1.3398  2.2777 -1.3935
10932SOL     OW40035   5.081  10.553   8.450  0.0864 -0.1679  0.1689
10932SOL    HW140036   5.159  10.577   8.400 -0.3254  1.1539  0.1242
10932SOL    HW240037   5.052  10.470   8.412  1.5783 -0.7995  0.3290
10933SOL     OW40038   7.423   3.117   8.853  0.0933 -0.2554  0.2614
10933SOL    HW140039   7.354   3.051   8.844  1.6309 -1.9923  0.6187
10933SOL    HW240040   7.478   3.105   8.776  2.2974 -1.7971  1.9437
10934SOL     OW40041   6.414   6.432  10.637  0.0282 -0.4486  0.3339
10934SOL    HW140042   6.438   6.370  10.705 -2.4623  1.1446  2.8669
10934SOL    HW240043   6.454   6.514  10.664 -0.5607  0.1023 -0.4064
10935SOL     OW40044   5.996   6.105  12.670 -0.2477  0.1427  0.8463
10935SOL    HW140045   5.996   6.182  12.613 -0.6073  0.5753  1.4231
10935SOL    HW240046   6.032   6.136  12.753  1.1789 -0.7052  0.5903
10936SOL     OW40047   0.012   3.241  12.296 -0.3790  0.1154  0.7063
10936SOL    HW140048  -0.055   3.226  12.364 -1.6555  2.3986  0.0613
10936SOL    HW240049   0.092   3.204  12.333 -1.7798 -1.9563  1.8908
10937SOL     OW40050   1.580   3.584   4.155 -0.2021  0.5105 -0.6695
10937SOL    HW140051   1.489   3.562   4.172 -0.1852  1.1240  0.2470
10937SOL    HW240052   1.583   3.601   4.060 -0.8251 -0.4381 -0.8750
10938SOL     OW40053  11.181   0.636   9.940 -0.1479 -0.3067  0.4662
10938SOL    HW140054  11.238   0.704   9.904 -1.4371  0.0189 -1.0827
10938SOL    HW240055  11.099   0.681   9.959 -1.4929 -1.5978 -1.8348
10939SOL     OW40056   6.236   4.206   7.796  0.2850  0.3599 -0.3151
10939SOL    HW140057   6.214   4.153   7.873 -0.6416  0.2300 -0.6619
10939SOL    HW240058   6.172   4.277   7.796 -0.3400 -0.1804 -1.4985
10940SOL     OW40059   2.260   7.059   1.908  0.1818  0.3368  0.3009
10940SOL    HW140060   2.202   7.134   1.900 -0.0668  0.3832  2.2257
10940SOL    HW240061   2.288   7.041   1.818  1.0487  3.3473 -0.1277
10941SOL     OW40062   7.127  12.143   2.227  0.4490  0.5771 -0.3245
10941SOL    HW140063   7.041  12.110   2.202  0.1020  1.2892 -0.0843
10941SOL    HW240064   7.112  12.234   2.251  1.3577  0.8669 -0.7950
10942SOL     OW40065  10.658   8.974   5.075  0.1869  0.1537  0.5755
10942SOL    HW140066  10.736   8.919   5.080  0.8261  1.0770  1.0963
10942SOL    HW240067  10.585   8.912   5.069  0.7964 -0.7778  2.1751
10943SOL     OW40068   4.778   5.978   8.421  0.3378 -0.0628  0.3501
10943SOL    HW140069   4.746   6.010   8.336 -0.1995  1.0984  0.9708
10943SOL    HW240070   4.873   5.974   8.411  0.2452 -0.4904 -0.4825
10944SOL     OW40071   1.208   8.484  11.797 -0.1980  0.6262 -0.6303
10944SOL    HW140072   1.244   8.572  11.810 -2.1397  1.3833 -0.1263
10944SOL    HW240073   1.170   8.461  11.881  0.6013 -0.8859 -0.6532
10945SOL     OW40074   8.734  12.576   2.286 -0.7285  0.0923 -0.1381
10945SOL    HW140075   8.760  12.641   2.352  2.8559  1.2294 -2.3704
10945SOL    HW240076   8.786  12.499   2.307 -1.1854 -0.2950 -0.4230
10946SOL     OW40077   0.843   5.134   6.869  0.2844  0.6268 -0.2327
10946SOL    HW140078   0.800   5.186   6.800  2.1491  0.4434 -1.5989
10946SOL    HW240079   0.829   5.186   6.949 -2.9841  0.2536 -0.3944
10947SOL     OW40080   6.237  11.509  11.465 -0.2718  0.1044 -0.1575
10947SOL    HW140081   6.281  11.591  11.488 -0.9280  0.6530 -0.8086
10947SOL    HW240082   6.157  11.510  11.517 -0.5734  0.1687 -0.6200
10948SOL     OW40083   8.581  12.592   3.988  0.5827 -0.0243  0.4087
10948SOL    HW140084   8.633  12.604   3.908  1.3787 -3.3483  0.2702
10948SOL    HW240085   8.644  12.560   4.053 -0.5760 -0.2203  1.4830
10949SOL     OW40086   0.439   9.060   1.796  0.3399 -0.6238 -0.7761
10949SOL    HW140087   0.438   9.024   1.708  1.2252  1.4592 -1.6873
10949SOL    HW240088   0.383   9.137   1.792  1.2862  0.1558  0.1535
10950SOL     OW40089   1.788   8.025   9.895  0.2115  0.1070  0.3458
10950SOL    HW140090   1.740   7.984   9.967 -0.0458 -0.5939 -0.2094
10950SOL    HW240091   1.778   8.119   9.910 -0.7821 -0.0261  0.6088
10951SOL     OW40092   8.822  11.944   0.246 -0.1106  0.6501 -0.1555
10951SOL    HW140093   8.813  12.017   0.184 -1.0149  0.2547 -0.5143
10951SOL    HW240094   8.853  11.984   0.327  3.8202  0.8519 -1.5606
10952SOL     OW40095   2.557   4.539  11.193  0.1165  0.2168 -0.0750
10952SOL    HW140096   2.532   4.477  11.262  1.1674  0.0982  0.2098
10952SOL    HW240097   2.490   4.528  11.126 -0.1553 -0.6590  0.3252
10953SOL     OW40098   9.445  12.050   7.917  0.3733  0.3177 -0.7093
10953SOL    HW140099   9.388  11.973   7.922  1.7655 -0.7672 -0.8154
10953SOL    HW240100   9.437  12.092   8.002  1.5040 -1.4019  0.3038
10954SOL     OW40101   0.947   1.590   9.483  0.0040  0.3583 -0.6599
10954SOL    HW140102   0.881   1.615   9.418 -0.0789  1.0771 -0.3081
10954SOL    HW240103   0.941   1.495   9.488 -0.7202  0.3853 -0.9333
10955SOL     OW40104   8.918   4.503  12.341  0.0865 -0.0506  0.4042
10955SOL    HW140105   8.983   4.548  12.395  0.1714  1.0747 -0.5928
10955SOL    HW240106   8.835   4.519  12.384  0.1813  0.6347  0.3425
10956SOL     OW40107   9.025   8.418   3.139 -0.1727  0.0195 -0.6963
10956SOL    HW140108   9.078   8.440   3.063  0.2167  0.6736 -0.2466
10956SOL    HW240109   9.066   8.339   3.175  1.0642  1.0125  0.1540
10957SOL     OW40110   5.044  12.154   5.239  0.4386 -0.2416 -0.1481
10957SOL    HW140111   5.089  12.090   5.294  1.3235 -0.7037 -1.3812
10957SOL    HW240112   4.955  12.121   5.232  0.8584 -1.3079 -0.6968
10958SOL     OW40113   9.798   5.567  12.116  0.1726  0.3182  0.3230
10958SOL    HW140114   9.703   5.559  12.123  0.1150 -3.3998 -2.2235
10958SOL    HW240115   9.811   5.646  12.062 -1.5379  0.2776 -0.2134
10959SOL     OW40116   2.160  10.789   8.499  0.3370 -0.0654  0.6316
10959SOL    HW140117   2.112  10.784   8.581 -3.0014 -0.1976 -1.1709
10959SOL    HW240118   2.143  10.706   8.455 -0.3741  1.0453 -1.3503
10960SOL     OW40119   8.482   8.183  11.129  0.0562 -0.3256 -0.0475
10960SOL    HW140120   8.498   8.091  11.110  0.0788 -0.0804 -1.3476
10960SOL    HW240121   8.397   8.202  11.087  0.6999  0.5599 -1.0276
10961SOL     OW40122   5.477   3.221   8.498  0.4250  0.6878 -0.2310
10961SOL    HW140123   5.566   3.215   8.534  0.5841 -3.5099 -0.7292
10961SOL    HW240124   5.420   3.212   8.574  0.6992 -3.0327 -0.2566
10962SOL     OW40125   5.449   1.737   5.280 -0.1475 -0.0378 -0.1207
10962SOL    HW140126   5.504   1.706   5.352  1.2178  0.2748 -0.9882
10962SOL    HW240127   5.399   1.659   5.252  0.4145 -0.5201  0.2028
10963SOL     OW40128  12.182   6.357   9.904 -0.3961  0.1821  0.4019
10963SOL    HW140129  12.130   6.310   9.839  0.4393  1.2055 -1.0679
10963SOL    HW240130  12.254   6.394   9.854  0.9649 -0.0011  2.1423
10964SOL     OW40131   9.716   7.450  12.096 -0.1405  0.3996 -0.4125
10964SOL    HW140132   9.699   7.509  12.023 -0.0387 -0.4175 -1.1075
10964SOL    HW240133   9.629   7.422  12.124 -0.1507  0.1694 -0.6736
10965SOL     OW40134   9.183   4.399   1.584 -0.1485 -0.1663  0.2127
10965SOL    HW140135   9.160   4.466   1.520  1.7545  1.9896  1.6253
10965SOL    HW240136   9.117   4.331   1.573 -0.7291  0.7620 -2.9995
10966SOL     OW40137   2.303   2.375   0.182 -0.6743 -0.6662  0.1448
10966SOL    HW140138   2.276   2.292   0.143 -0.6280 -0.3150 -0.6438
10966SOL    HW240139   2.393   2.388   0.153 -1.0081  0.1369 -0.5465
10967SOL     OW40140  11.558   4.214  10.930 -0.0853 -0.0832 -0.4113
10967SOL    HW140141  11.483   4.205  10.989  1.9639 -1.4635  2.1913
10967SOL    HW240142  11.590   4.125  10.918  1.6152  0.5412 -0.7598
10968SOL     OW40143   7.875   3.456   3.134  0.6647  0.2834 -0.6998
10968SOL    HW140144   7.865   3.547   3.105 -2.2460 -0.3295 -2.0002
10968SOL    HW240145   7.787   3.430   3.160  1.8288 -1.5587  1.7674
10969SOL     OW40146  10.235  10.362   3.951  0.0802 -0.2176 -0.2823
10969SOL    HW140147  10.157  10.397   3.994  0.5676  1.4085 -0.6484
10969SOL    HW240148  10.205  10.283   3.906 -1.3861  0.4663 -0.5438
10970SOL     OW40149   6.519   1.334   6.070  0.2212  0.3394 -0.0315
10970SOL    HW140150   6.516   1.266   6.138  0.6641  0.0069 -0.3388
10970SOL    HW240151   6.436   1.381   6.080  0.3783  0.4492  0.8896
10971SOL     OW40152   8.512   7.939   6.717  0.5614  0.3625  0.3394
10971SOL    HW140153   8.517   8.033   6.701  0.6429  0.3255  0.1500
10971SOL    HW240154   8.593   7.903   6.679  0.1198  0.1053 -0.3720
10972SOL     OW40155   4.980   0.781   6.641  0.0174  0.0916  0.5729
10972SOL    HW140156   4.968   0.799   6.734 -1.0515  0.5083  0.3700
10972SOL    HW240157   4.975   0.867   6.599  0.1105 -0.1284  0.0977
10973SOL     OW40158   0.402  12.023   6.247 -0.1072 -0.0275 -0.3977
10973SOL    HW140159   0.462  11.950   6.231  0.4333  0.1117  0.8255
10973SOL    HW240160   0.435  12.095   6.193 -0.1772 -0.4505 -1.0078
10974SOL     OW40161   3.002  12.396  12.036  0.0756  0.5307 -0.0527
10974SOL    HW140162   2.999  12.491  12.023 -0.9361  0.5249  0.0477
10974SOL    HW240163   3.073  12.366  11.979  0.5543  1.3663  0.0832
10975SOL     OW40164   8.791   4.359   8.256  0.2253  0.0319  0.0028
10975SOL    HW140165   8.746   4.415   8.319  0.7168  0.1292  0.2800
10975SOL    HW240166   8.883   4.384   8.265  0.5698 -1.3414  0.6813
10976SOL     OW40167   9.848   5.367   2.113 -0.0999  0.2297 -0.2446
10976SOL    HW140168   9.874   5.357   2.021  1.1676  1.3767 -0.0314
10976SOL    HW240169   9.923   5.335   2.163 -0.2976  0.7470  0.3993
10977SOL     OW40170   8.368   2.679   6.948  0.3184  0.0920 -0.6318
10977SOL    HW140171   8.451   2.642   6.980 -1.1063 -1.6849  1.2967
10977SOL    HW240172   8.320   2.604   6.913 -1.3369  0.6462  0.3216
10978SOL     OW40173   1.939   1.197   6.175  0.1374  0.0852 -0.1226
10978SOL    HW140174   2.025   1.238   6.172 -0.9643  2.4889 -1.2112
10978SOL    HW240175   1.927   1.159   6.088 -0.3761  0.8223 -0.3790
10979SOL     OW40176   2.644   4.037   8.743 -0.4211  0.5940 -0.0032
10979SOL    HW140177   2.625   3.943   8.743  0.9165  0.3105  0.0326
10979SOL    HW240178   2.558   4.079   8.750 -0.8914 -0.6559  3.3183
10980SOL     OW40179  12.249   0.385   2.543  0.7830 -0.1874  0.4129
10980SOL    HW140180  12.206   0.461   2.503  0.0360 -0.6054  0.4012
10980SOL    HW240181  12.341   0.393   2.517  0.5428  0.2210 -0.3466
10981SOL     OW40182  11.654   6.043   5.592 -0.0975 -0.6668 -0.1217
10981SOL    HW140183  11.685   6.014   5.678 -0.3265 -0.4627  0.0299
10981SOL    HW240184  11.733   6.049   5.539 -0.0788 -1.8676 -0.2457
10982SOL     OW40185  12.489   9.287  10.772 -0.1447  0.8639  0.4483
10982SOL    HW140186  12.407   9.312  10.730  0.5424  1.1399 -0.7814
10982SOL    HW240187  12.551   9.276  10.700  0.3621 -1.5022  1.1473
10983SOL     OW40188   2.971  11.993   5.908  0.1303  0.3966 -0.3572
10983SOL    HW140189   2.898  12.053   5.895  1.0279  1.6240  0.1229
10983SOL    HW240190   2.989  11.958   5.821 -1.5190 -0.5603 -0.3674
10984SOL     OW40191  11.468  10.767   9.243 -0.0691 -0.4741  0.5078
10984SOL    HW140192  11.399  10.821   9.282 -1.5465 -2.1319  0.3180
10984SOL    HW240193  11.424  10.687   9.216  2.1095 -2.0622  1.2930
10985SOL     OW40194   0.305  11.764   3.702 -0.2922  0.0264 -0.5838
10985SOL    HW140195   0.367  11.770   3.630  0.1026  1.3840 -0.1717
10985SOL    HW240196   0.278  11.855   3.718  0.2435 -0.1317  1.4813
10986SOL     OW40197   8.103   1.448   9.810  0.4895  0.4013 -0.5114
10986SOL    HW140198   8.161   1.388   9.765 -1.3356 -1.0997 -1.0017
10986SOL    HW240199   8.075   1.401   9.888  0.5256  1.3996  0.1245
10987SOL     OW40200   4.780   7.457   3.062 -0.4770  0.4732 -0.3244
10987SOL    HW140201   4.757   7.411   2.981  0.4462 -0.1906 -0.2270
10987SOL    HW240202   4.851   7.406   3.099  1.4917  2.6755 -0.8444
10988SOL     OW40203   3.495   1.412   9.603  0.3978  0.0300 -0.5887
10988SOL    HW140204   3.430   1.475   9.633 -0.0717 -0.7343  0.0455
10988SOL    HW240205   3.505   1.351   9.676 -0.3235 -1.5397 -1.7363
10989SOL     OW40206  10.333   1.762   0.115  0.4647 -0.3866 -0.7920
10989SOL    HW140207  10.288   1.714   0.045 -0.8758  0.2626 -0.4177
10989SOL    HW240208  10.344   1.697   0.185 -1.6134 -0.1383 -0.1689
10990SOL     OW40209   2.317   3.965  10.540  0.6973  0.1085  0.3688
10990SOL    HW140210   2.334   3.981  10.633 -0.7890  1.4465  0.4447
10990SOL    HW240211   2.260   3.888  10.539 -0.4836  0.9500  0.6903
10991SOL     OW40212   7.818   8.421   7.659  0.1273 -0.0967 -0.2870
10991SOL    HW140213   7.737   8.472   7.669 -0.7429 -1.4496 -0.1456
10991SOL    HW240214   7.888   8.483   7.679 -0.9232  0.8127  0.7151
10992SOL     OW40215   7.763   1.179   9.959  0.0832  0.2054 -0.7027
10992SOL    HW140216   7.815   1.105   9.990 -3.7877 -2.0965  1.0647
10992SOL    HW240217   7.797   1.196   9.871  1.7838 -3.1351 -0.8670
10993SOL     OW40218   1.218   2.183   7.092  0.3116  0.0676 -0.4063
10993SOL    HW140219   1.140   2.187   7.037  0.6576  0.4607 -0.8836
10993SOL    HW240220   1.247   2.274   7.100  0.2071  0.0273  0.5258
10994SOL     OW40221   4.530  11.781  10.966  0.2007  0.3768 -0.2257
10994SOL    HW140222   4.580  11.723  11.024 -1.1006 -0.0932  0.4748
10994SOL    HW240223   4.487  11.843  11.026 -1.9056 -0.6778 -0.5260
10995SOL     OW40224  12.407  10.705   2.988  0.7763  0.1042  0.1583
10995SOL    HW140225  12.366  10.622   2.963  1.1922  0.2284 -1.0406
10995SOL    HW240226  12.334  10.762   3.014  0.3304 -0.1430 -0.5332
10996SOL     OW40227   2.437   8.005   4.373  0.0027  1.2255  0.6716
10996SOL    HW140228   2.476   8.041   4.293 -1.1596  0.3867 -0.3032
10996SOL    HW240229   2.456   7.911   4.368 -1.6206  0.8898  0.4652
10997SOL     OW40230   1.674   7.304   8.142  0.2186 -0.0763  0.3369
10997SOL    HW140231   1.699   7.212   8.152  0.2633  0.0517  1.6301
10997SOL    HW240232   1.595   7.313   8.195 -0.3007  0.4330 -0.5113
10998SOL     OW40233  12.506  11.782  11.656  0.5312 -0.0471 -0.7293
10998SOL    HW140234  12.597  11.760  11.677  0.3690 -1.4982 -1.3846
10998SOL    HW240235  12.510  11.822  11.569  0.6276  0.6819 -0.3906
10999SOL     OW40236   8.751   8.424   5.667 -0.0076 -0.1116  0.2285
10999SOL    HW140237   8.710   8.343   5.638  1.1845 -0.8676  0.5485
10999SOL    HW240238   8.844   8.413   5.644 -0.1064  1.9772 -1.5009
11000SOL     OW40239   0.488   2.455   0.603 -0.4591  0.2303 -0.6450
11000SOL    HW140240   0.557   2.454   0.536  1.0723  0.7375  0.8501
11000SOL    HW240241   0.422   2.514   0.568  1.6285  2.8454 -0.5690
11001SOL     OW40242   8.232  10.151   8.217 -0.0050 -0.7777 -0.4745
11001SOL    HW140243   8.139  10.170   8.212  0.1764  1.0201  1.6080
11001SOL    HW240244   8.245  10.077   8.156 -3.1544 -2.6574  0.8921
11002SOL     OW40245  12.268   9.604   3.095 -0.4673 -0.1401 -0.1543
11002SOL    HW140246  12.247   9.606   3.188 -1.1037 -1.3486 -0.2541
11002SOL    HW240247  12.265   9.695   3.067 -1.0111  0.1518  0.8464
11003SOL     OW40248  10.784   4.186   9.902 -0.4055 -0.8357 -0.1420
11003SOL    HW140249  10.815   4.144   9.982 -0.4819 -0.4286  0.1073
11003SOL    HW240250  10.844   4.260   9.889 -1.0364 -0.2577  0.1476
11004SOL     OW40251   5.197   6.408  10.644  0.0573  0.3301  0.1615
11004SOL    HW140252   5.199   6.480  10.707  1.0094  0.5713 -0.1233
11004SOL    HW240253   5.106   6.402  10.618  0.0765  2.0636 -0.5005
11005SOL     OW40254   1.524   0.910   5.606 -0.3966 -0.1557  0.3389
11005SOL    HW140255   1.570   0.894   5.688 -1.1345 -1.9923  0.4484
11005SOL    HW240256   1.521   1.005   5.598  3.0339  0.0737  0.4924
11006SOL     OW40257   4.348   4.720   6.139 -0.0618  0.6037  0.2704
11006SOL    HW140258   4.370   4.668   6.216 -0.4519  1.7695  1.1803
11006SOL    HW240259   4.258   4.696   6.118  0.1316  0.0862 -0.0176
11007SOL     OW40260   1.107   9.604   3.367 -0.9052  0.0446  0.3283
11007SOL    HW140261   1.170   9.669   3.337 -0.1168 -1.4879 -1.5291
11007SOL    HW240262   1.156   9.522   3.371 -2.5140 -1.0057 -0.2551
11008SOL     OW40263  12.455   3.926  11.896  0.1251 -0.0270 -0.4178
11008SOL    HW140264  12.462   3.837  11.931 -1.9688  0.7183  2.2328
11008SOL    HW240265  12.544   3.959  11.898  0.6627 -1.4075  0.5319
11009SOL     OW40266   7.445   0.574   9.114  0.3943  0.4860  0.1951
11009SOL    HW140267   7.519   0.551   9.058  0.3387 -0.8902  0.6366
11009SOL    HW240268   7.413   0.489   9.146 -0.7378  1.1285  0.8070
11010SOL     OW40269   0.160   0.995   3.492 -0.7970  0.1030 -0.1473
11010SOL    HW140270   0.245   1.011   3.450 -1.1161 -1.7794 -1.6093
11010SOL    HW240271   0.127   1.083   3.513  0.5446  0.9799 -1.5031
11011SOL     OW40272  10.553   8.406   3.868 -0.7025  0.1887 -0.0906
11011SOL    HW140273  10.643   8.430   3.846 -0.8514  0.1038 -0.7990
11011SOL    HW240274  10.534   8.330   3.813 -1.5271  0.7711 -0.6338
11012SOL     OW40275   1.660  11.487  10.702  0.1660 -0.3015 -0.4354
11012SOL    HW140276   1.709  11.448  10.774  0.4599 -0.8602 -0.9273
11012SOL    HW240277   1.571  11.454  10.713  0.1184 -0.0688 -0.1037
11013SOL     OW40278   9.117   3.287   8.733 -0.0025  0.0698  0.1179
11013SOL    HW140279   9.195   3.242   8.700 -2.4759 -2.6800 -2.5585
11013SOL    HW240280   9.088   3.233   8.806  0.1980  0.7270  0.6941
11014SOL     OW40281  12.275   1.529   3.302  0.3343 -0.6638  0.4930
11014SOL    HW140282  12.230   1.611   3.324 -0.2608 -1.4544  2.4397
11014SOL    HW240283  12.280   1.530   3.206 -1.5850  0.6343  0.3374
11015SOL     OW40284   6.588   3.795   0.145 -0.0912 -0.1901  0.1979
11015SOL    HW140285   6.571   3.802   0.051 -1.8338  0.4107  0.5212
11015SOL    HW240286   6.587   3.701   0.163  1.1481 -0.3615 -0.5117
11016SOL     OW40287   1.658   4.133   9.300  0.2357 -0.2848 -0.1856
11016SOL    HW140288   1.584   4.073   9.292  0.3089 -0.3267 -0.5630
11016SOL    HW240289   1.719   4.087   9.357  0.4142 -0.6963 -0.6995
11017SOL     OW40290   1.632   2.488  11.176 -0.1179 -0.0875  0.3171
11017SOL    HW140291   1.692   2.473  11.250  0.8447 -0.4446 -0.5175
11017SOL    HW240292   1.647   2.414  11.118  1.2798  1.6191 -1.6423
11018SOL     OW40293   2.132   5.517   5.310  0.3927 -0.1070 -0.6435
11018SOL    HW140294   2.132   5.606   5.345  0.1302 -0.4165  0.1743
11018SOL    HW240295   2.169   5.464   5.380  2.7401 -0.3519 -1.9578
11019SOL     OW40296  10.944   1.432   2.690 -0.7308 -0.2491  0.0070
11019SOL    HW140297  11.039   1.427   2.678 -0.6722  2.8553 -2.5464
11019SOL    HW240298  10.908   1.386   2.614 -1.3314 -1.9192  1.2712
11020SOL     OW40299   8.791   5.746   9.733 -0.0481 -0.0147  0.5179
11020SOL    HW140300   8.714   5.787   9.773 -0.1018  0.1148  0.2895
11020SOL    HW240301   8.793   5.783   9.644  1.0360  1.0075  0.9453
11021SOL     OW40302  12.280  10.693   0.944 -0.5084  0.0672 -0.0236
11021SOL    HW140303  12.245  10.767   0.895  0.8810  0.9184  0.1828
11021SOL    HW240304  12.356  10.664   0.893  0.4303  0.3965  1.1314
11022SOL     OW40305   0.163   8.983   2.408  0.6652  0.3917  0.5224
11022SOL    HW140306   0.165   9.009   2.315  0.1838 -0.9838  0.1094
11022SOL    HW240307   0.084   8.930   2.416  0.1527  1.3245  1.9715
11023SOL     OW40308   7.394  12.572  10.695  0.2079  0.4418  0.2690
11023SOL    HW140309   7.474  12.584  10.746 -0.1186 -0.8924  1.1579
11023SOL    HW240310   7.335  12.526  10.754 -1.2236  1.3792 -0.3821
11024SOL     OW40311   0.501   2.726  10.874 -0.2638 -0.5846 -0.3395
11024SOL    HW140312   0.595   2.746  10.876 -0.2949 -0.4332  0.9129
11024SOL    HW240313   0.495   2.640  10.833  0.4653 -0.7374 -0.1384
11025SOL     OW40314   9.074   9.906   2.113  0.0107 -0.1399  0.6376
11025SOL    HW140315   9.063   9.821   2.155 -2.3748  0.0545  0.5242
11025SOL    HW240316   9.041   9.969   2.177  0.9194  0.6314  0.3688
11026SOL     OW40317   0.029  12.706   3.201 -0.4828 -0.3384 -0.0439
11026SOL    HW140318   0.112  12.711   3.154 -1.3732  0.6175 -1.5945
11026SOL    HW240319  -0.027  12.770   3.157 -2.1891 -1.2834  0.6830
11027SOL     OW40320   0.060   9.240   7.899 -0.8584  0.6769 -0.3157
11027SOL    HW140321   0.044   9.146   7.893  0.1596  0.5558 -1.6688
11027SOL    HW240322  -0.018   9.276   7.942 -0.5070 -0.9744  1.8427
11028SOL     OW40323   8.851   9.901   1.940 -0.2287 -0.2917 -0.4189
11028SOL    HW140324   8.865   9.985   1.898  0.9056 -0.0234  0.4181
11028SOL    HW240325   8.921   9.895   2.005 -1.3261 -1.1071  0.7460
11029SOL     OW40326   8.785   3.505  10.384  0.0752 -0.0899  0.7078
11029SOL    HW140327   8.719   3.437  10.374 -0.2056  0.4094 -1.0535
11029SOL    HW240328   8.846   3.470  10.449 -0.6023 -1.5840  0.5710
11030SOL     OW40329  11.121   3.299   3.844 -0.1791  0.6596 -0.3458
11030SOL    HW140330  11.085   3.350   3.917  2.3670  3.2079 -0.6543
11030SOL    HW240331  11.138   3.364   3.776  2.5474 -0.7067 -1.1035
11031SOL     OW40332   0.205   5.431   5.474 -0.1007 -0.1182 -0.2753
11031SOL    HW140333   0.287   5.471   5.506 -0.2143  0.1873 -0.3686
11031SOL    HW240334   0.138   5.466   5.532 -0.2470  0.0878 -0.5669
11032SOL     OW40335   1.780   5.068   4.836 -0.3382  0.6943  0.5117
11032SOL    HW140336   1.685   5.070   4.847 -0.2114  1.2005  1.6859
11032SOL    HW240337   1.814   5.108   4.916  0.8923 -0.2191  0.4751
11033SOL     OW40338   6.588   7.504   3.397  0.1689 -0.3120 -0.3966
11033SOL    HW140339   6.596   7.586   3.348 -1.0991 -0.5184 -0.9858
11033SOL    HW240340   6.520   7.522   3.462 -0.5013 -1.0439 -0.8744
11034SOL     OW40341   3.252   2.451   8.033 -0.2203  0.1371 -0.6037
11034SOL    HW140342   3.221   2.505   7.960  1.2717  2.3232  0.2678
11034SOL    HW240343   3.312   2.389   7.993 -0.1762  0.6537 -1.3564
11035SOL     OW40344   5.303   1.826   9.217  0.0996  0.0603 -0.3338
11035SOL    HW140345   5.326   1.820   9.310 -3.2475 -0.5418  0.5842
11035SOL    HW240346   5.325   1.915   9.193  3.4476 -0.4992  0.2253
11036SOL     OW40347   3.696   6.511   7.496  0.4649 -0.2143 -0.1674
11036SOL    HW140348   3.607   6.531   7.467 -1.1239 -2.4372  2.6576
11036SOL    HW240349   3.716   6.425   7.459  0.5819 -0.6417  0.8509
11037SOL     OW40350  11.850  12.391   6.454 -0.3723  0.4779 -0.1802
11037SOL    HW140351  11.862  12.358   6.365  3.7522  0.4286  0.2111
11037SOL    HW240352  11.830  12.313   6.506  0.3070 -0.0019 -0.6199
11038SOL     OW40353   2.014  12.637   2.210 -0.3084 -0.2313  0.4014
11038SOL    HW140354   1.929  12.651   2.169  0.4638 -1.6230 -1.9179
11038SOL    HW240355   2.074  12.692   2.160  0.4355 -0.6973  0.7589
11039SOL     OW40356   6.952  11.655   5.221  0.3440  0.7510  0.0924
11039SOL    HW140357   6.999  11.738   5.220  1.1978  0.2739  0.4493
11039SOL    HW240358   6.980  11.611   5.141 -2.2038  1.9201 -1.6192
11040SOL     OW40359   9.004   6.727   5.841  0.3104 -0.5310  0.9825
11040SOL    HW140360   8.995   6.672   5.763  1.0885 -0.9967  1.2097
11040SOL    HW240361   8.987   6.816   5.809  2.4985 -0.4643 -0.1686
11041SOL     OW40362   0.234   3.478   8.947 -0.3972  0.3363 -0.1527
11041SOL    HW140363   0.217   3.391   8.913  0.5911 -0.0309  0.2712
11041SOL    HW240364   0.203   3.537   8.878  0.8451 -0.3823 -1.3835
11042SOL     OW40365   8.983   6.730   0.416 -0.3360 -0.2737 -0.0203
11042SOL    HW140366   9.068   6.686   0.417 -0.3051 -0.2448  1.8653
11042SOL    HW240367   8.965   6.745   0.323  1.2495 -1.1639 -0.5090
11043SOL     OW40368   8.912   4.582   7.020 -0.2240 -0.6999 -0.0040
11043SOL    HW140369   8.963   4.551   7.095  0.5708 -0.6854 -0.5346
11043SOL    HW240370   8.961   4.657   6.987 -1.7134  0.6937  0.7892
11044SOL     OW40371   0.843   5.564   5.237  0.0913 -0.4390  0.6029
11044SOL    HW140372   0.863   5.591   5.327 -0.1820 -1.9025  1.1400
11044SOL    HW240373   0.764   5.612   5.215  0.1884 -0.0239  1.1259
11045SOL     OW40374   3.615   7.375   9.341 -0.4787  0.6990 -0.7456
11045SOL    HW140375   3.576   7.394   9.426 -2.5045  0.4160 -1.5426
11045SOL    HW240376   3.681   7.444   9.328  0.4820  0.2359  1.3771
11046SOL     OW40377   0.837   8.332   8.759  0.3249  0.0953 -0.4850
11046SOL    HW140378   0.817   8.421   8.786 -0.8548 -0.5074  0.7824
11046SOL    HW240379   0.856   8.286   8.840 -0.6404 -1.1598 -0.9297
11047SOL     OW40380   9.363  12.009   9.110  0.0556 -0.2798 -0.4415
11047SOL    HW140381   9.407  11.933   9.147  1.3444  1.0783  0.9540
11047SOL    HW240382   9.325  12.054   9.185  0.1922  0.9851 -1.1078
11048SOL     OW40383   9.742   4.861   2.841  0.4314  0.4503 -0.1430
11048SOL    HW140384   9.748   4.915   2.762 -1.4201 -1.0176 -1.3785
11048SOL    HW240385   9.663   4.893   2.885  0.6657  0.3064  0.3919
11049SOL     OW40386   0.366   1.398   2.089 -0.7665 -0.2082 -0.2061
11049SOL    HW140387   0.344   1.468   2.150 -0.8404 -0.5907  0.2153
11049SOL    HW240388   0.285   1.381   2.041 -0.9458 -0.4857  0.1881
11050SOL     OW40389   9.327   7.596   8.049 -0.2536  0.2720  0.9051
11050SOL    HW140390   9.342   7.626   8.138 -1.2452 -0.6869  1.4116
11050SOL    HW240391   9.301   7.505   8.058 -0.2399  0.1190 -0.3799
11051SOL     OW40392  10.207   4.698   2.408  0.3311 -0.5495 -0.5960
11051SOL    HW140393  10.158   4.758   2.353 -1.3374 -1.5684 -0.2858
11051SOL    HW240394  10.208   4.616   2.360  2.3108 -0.4129 -0.8721
11052SOL     OW40395   6.121   3.647   2.265  0.1325 -0.4709  0.0614
11052SOL    HW140396   6.096   3.577   2.325  0.1256  0.3993  1.1182
11052SOL    HW240397   6.176   3.605   2.199 -2.1501 -1.9871 -0.9924
11053SOL     OW40398   0.505   7.111   3.876 -0.1247 -0.1470 -0.0495
11053SOL    HW140399   0.546   7.102   3.790  1.3719  0.4060  0.5803
11053SOL    HW240400   0.467   7.198   3.875 -2.1346 -0.9682 -0.9466
11054SOL     OW40401   7.717   3.484   6.512 -0.6841 -0.4277  0.0964
11054SOL    HW140402   7.738   3.413   6.451 -0.7966 -0.1176 -0.3073
11054SOL    HW240403   7.621   3.488   6.512 -0.6879 -0.4689  0.3492
11055SOL     OW40404   2.502   8.098  12.317  0.1132  0.1886  0.0728
11055SOL    HW140405   2.525   8.175  12.266  1.5742 -0.5690 -0.4484
11055SOL    HW240406   2.517   8.124  12.408 -0.2998  0.8056 -0.0317
11056SOL     OW40407   5.214   0.105   9.474 -0.0666  0.2836  0.4777
11056SOL    HW140408   5.120   0.090   9.467 -0.2143  1.6642 -1.1071
11056SOL    HW240409   5.222   0.194   9.508  0.6287  0.6938 -0.6982
11057SOL     OW40410   3.934   7.117   3.416 -0.3946 -0.1892 -0.0958
11057SOL    HW140411   3.957   7.155   3.332 -1.4313 -0.4995 -0.5422
11057SOL    HW240412   3.840   7.131   3.424 -0.7325 -2.1313 -0.0389
11058SOL     OW40413  10.901   7.053   6.224 -0.3174 -0.4526 -0.1201
11058SOL    HW140414  10.962   7.078   6.294 -1.3754  1.4346  0.2084
11058SOL    HW240415  10.925   6.963   6.202  2.0470 -0.0484  0.5284
11059SOL     OW40416   3.483   0.805   0.926 -0.5723  0.5079 -0.0603
11059SOL    HW140417   3.502   0.759   1.008 -0.8007  0.1084 -0.2304
11059SOL    HW240418   3.543   0.880   0.926  0.9724 -0.6766 -0.5608
11060SOL     OW40419   0.352   6.519   5.911  0.4067 -0.0020  0.4323
11060SOL    HW140420   0.415   6.559   5.972 -0.4232 -1.6857  2.5093
11060SOL    HW240421   0.273   6.506   5.963  0.0527 -2.6893 -0.6298
11061SOL     OW40422   4.585  11.480  11.424 -0.7543  0.2385  0.1073
11061SOL    HW140423   4.626  11.468  11.509  0.1151 -0.4360 -0.3893
11061SOL    HW240424   4.538  11.398  11.408  1.5861 -0.9472 -1.3564
11062SOL     OW40425   5.930   6.847  12.158  0.1456 -0.4013 -0.7960
11062SOL    HW140426   5.851   6.825  12.208 -0.3104 -0.3227 -1.4645
11062SOL    HW240427   5.911   6.933  12.120  1.4445  0.6637  0.8402
11063SOL     OW40428   0.136   8.002   9.648 -0.2169 -0.0135 -0.5551
11063SOL    HW140429   0.191   8.060   9.701 -1.0811  0.3415 -0.0157
11063SOL    HW240430   0.080   7.958   9.712 -0.5745 -0.3389 -1.0906
11064SOL     OW40431   6.626   1.818  11.456  0.1830 -0.2573 -0.0635
11064SOL    HW140432   6.689   1.760  11.499  0.8528  1.0854  0.8372
11064SOL    HW240433   6.567   1.759  11.409  1.7517 -1.5894 -0.4498
11065SOL     OW40434   8.696  10.307   4.656  0.1489 -0.8280 -0.2033
11065SOL    HW140435   8.786  10.292   4.683 -0.1678 -0.9131  0.8635
11065SOL    HW240436   8.695  10.288   4.562  0.8337 -2.7136  0.1215
11066SOL     OW40437   8.830  10.458  10.904  0.4464  0.4888  0.2578
11066SOL    HW140438   8.798  10.535  10.858  1.6561  0.9432  0.1208
11066SOL    HW240439   8.839  10.391  10.836  0.4848  0.5850  0.1693
11067SOL     OW40440   1.824   0.158   5.765  0.7259 -0.3602 -0.1885
11067SOL    HW140441   1.742   0.158   5.815  0.4801  1.5131 -0.5329
11067SOL    HW240442   1.798   0.137   5.675  0.5663  0.5589 -0.3623
11068SOL     OW40443   7.137   7.121   3.141 -0.6451  0.0320 -0.1746
11068SOL    HW140444   7.215   7.066   3.149 -1.1864 -0.5957  0.9370
11068SOL    HW240445   7.101   7.097   3.055  0.6683  0.7417 -0.9614
11069SOL     OW40446   3.014   7.014   5.941  0.0852 -0.4700  0.4959
11069SOL    HW140447   2.998   6.952   6.012  0.4338 -2.5160 -1.1161
11069SOL    HW240448   3.110   7.022   5.938  0.2112 -1.9016 -0.8743
11070SOL     OW40449   6.131  10.029  11.971  0.6889 -0.2653 -0.5796
11070SOL    HW140450   6.161   9.950  11.925 -1.0720 -1.8815  0.8817
11070SOL    HW240451   6.207  10.057  12.022  1.8667  0.0425 -2.3822
11071SOL     OW40452  11.887   6.156  10.012 -0.2559  0.4658  0.6905
11071SOL    HW140453  11.872   6.242   9.972  1.8436  0.3401 -0.5209
11071SOL    HW240454  11.887   6.172  10.106 -1.1573  1.5381  0.5259
11072SOL     OW40455   6.035   5.989   7.401  0.7167 -0.2637  0.0964
11072SOL    HW140456   5.959   6.045   7.394  0.7056 -0.0991  1.3630
11072SOL    HW240457   6.005   5.912   7.450  1.6204  0.3367  1.6565
11073SOL     OW40458   7.866   8.614   8.366  0.0431  0.0777  0.3014
11073SOL    HW140459   7.945   8.666   8.382  1.0481 -0.9406 -1.1358
11073SOL    HW240460   7.873   8.541   8.428 -0.0494  0.2734  0.5446
11074SOL     OW40461   1.767   3.106   4.537  0.2865 -0.0799  0.3739
11074SOL    HW140462   1.738   3.071   4.621 -0.5872  0.2805  0.2351
11074SOL    HW240463   1.853   3.066   4.522  0.7113  0.2795  1.7022
11075SOL     OW40464   3.329   9.997   3.754 -0.1844 -0.1345 -0.1292
11075SOL    HW140465   3.303   9.916   3.711  0.2669 -0.4492  0.1835
11075SOL    HW240466   3.376  10.047   3.687 -0.6341 -0.0462 -0.3771
11076SOL     OW40467  12.188   5.882   4.071 -0.6875 -0.5673 -0.8438
11076SOL    HW140468  12.217   5.970   4.094  0.2798 -0.7621 -1.2819
11076SOL    HW240469  12.185   5.881   3.975  0.2893 -1.3022 -0.8810
11077SOL     OW40470   2.477   5.041   4.688  0.0872  0.2921  1.2867
11077SOL    HW140471   2.439   4.961   4.651  0.9854  0.4083  0.0347
11077SOL    HW240472   2.551   5.010   4.739  0.4887  0.3060  0.7297
11078SOL     OW40473   2.614   4.299   2.617 -0.4054 -0.5719  0.5030
11078SOL    HW140474   2.668   4.325   2.543  0.7922 -2.2746  0.7077
11078SOL    HW240475   2.587   4.381   2.658  0.9440  0.3490 -0.3896
11079SOL     OW40476   6.201   3.403   8.859  0.2660  0.2839  0.1193
11079SOL    HW140477   6.283   3.354   8.854  0.1305  0.0705 -0.0868
11079SOL    HW240478   6.209   3.472   8.794 -0.6698 -1.2204 -1.6765
11080SOL     OW40479   6.108   4.983   5.402 -0.0257 -0.4721 -0.6447
11080SOL    HW140480   6.078   5.053   5.343  1.8138  1.9641  1.1025
11080SOL    HW240481   6.165   4.929   5.347 -0.0149  0.4702 -1.6018
11081SOL     OW40482   5.414  10.837  10.120  0.3312 -0.1236 -0.4158
11081SOL    HW140483   5.355  10.816  10.047  0.9512  0.0292 -0.9759
11081SOL    HW240484   5.438  10.752  10.157  0.6810 -0.2592 -0.9380
11082SOL     OW40485   4.568   7.086   6.279 -0.5396  0.5699  0.4233
11082SOL    HW140486   4.542   6.997   6.302  0.3592  0.4216  0.9008
11082SOL    HW240487   4.554   7.091   6.184 -0.1324 -0.2354  0.3157
11083SOL     OW40488   7.867   2.491   6.376  0.3506  0.6328 -0.0900
11083SOL    HW140489   7.887   2.416   6.319  0.0502  0.6892 -0.2714
11083SOL    HW240490   7.953   2.528   6.396  0.5879 -0.4154  0.9155
11084SOL     OW40491   5.537   8.238  12.039  0.4163  0.0231  0.2039
11084SOL    HW140492   5.564   8.268  12.126  0.3377 -2.7460  1.2983
11084SOL    HW240493   5.458   8.289  12.019  0.4460  0.7261  1.7397
11085SOL     OW40494   9.869   6.211  10.324  0.5037  0.6542 -0.1953
11085SOL    HW140495   9.873   6.294  10.371 -1.3043 -0.3017  1.8067
11085SOL    HW240496   9.776   6.189  10.323  1.0201 -1.7871  0.1358
11086SOL     OW40497   2.812  10.529   2.423  0.2563 -0.0754  0.5061
11086SOL    HW140498   2.797  10.599   2.359  1.3761 -0.1493  0.1386
11086SOL    HW240499   2.725  10.509   2.457 -0.7131 -1.2535 -2.2928
11087SOL     OW40500  11.362   8.294   9.662  0.3420  0.1888  0.3666
11087SOL    HW140501  11.307   8.221   9.631  0.6560  0.8224 -1.8924
11087SOL    HW240502  11.435   8.252   9.707 -1.2351 -0.7227  2.2068
11088SOL     OW40503   2.234   3.391   2.734  0.0362 -0.3963  0.0326
11088SOL    HW140504   2.190   3.306   2.727  1.0312 -0.9187 -0.1057
11088SOL    HW240505   2.164   3.456   2.725 -1.2248 -1.1709  3.1208
11089SOL     OW40506   5.565  10.800   8.502  0.0339 -0.3138  0.2346
11089SOL    HW140507   5.536  10.710   8.515 -0.0680 -0.1266  1.4323
11089SOL    HW240508   5.630  10.795   8.433  0.9021 -1.5003  1.0941
11090SOL     OW40509   6.972  10.806   8.712  0.1294  0.1016  0.1997
11090SOL    HW140510   7.004  10.806   8.802 -1.0577 -0.2666  0.6444
11090SOL    HW240511   6.927  10.722   8.702 -0.0523  0.2803 -0.6291
11091SOL     OW40512  11.829   1.070   2.974  0.1258 -0.3049 -0.6707
11091SOL    HW140513  11.808   1.058   2.881  0.3365 -1.3675 -0.5944
11091SOL    HW240514  11.871   0.987   3.000 -0.7140 -0.3586  0.5865
11092SOL     OW40515   3.532   6.594  11.580  0.0138 -0.1937 -0.0488
11092SOL    HW140516   3.573   6.652  11.644 -0.6430 -0.2479  0.4287
11092SOL    HW240517   3.497   6.522  11.632  0.6127 -0.9134 -0.6110
11093SOL     OW40518  10.368   2.032   6.597  0.4758  0.4478 -0.3739
11093SOL    HW140519  10.430   1.987   6.540  3.1231  2.5114  0.6900
11093SOL    HW240520  10.419   2.055   6.675 -1.9281  1.3585  1.0545
11094SOL     OW40521  12.364   9.534   8.551  0.2721  0.1525  0.1029
11094SOL    HW140522  12.278   9.559   8.518  0.4661  1.7896  0.7209
11094SOL    HW240523  12.368   9.572   8.639  0.5899 -2.2565  1.1895
11095SOL     OW40524   9.357  11.185   1.010 -0.1905  0.5873  0.1000
11095SOL    HW140525   9.354  11.167   1.104 -1.7395  1.1798  0.1964
11095SOL    HW240526   9.334  11.278   1.003  1.4739  0.9701 -0.7849
11096SOL     OW40527  10.181   7.132   1.292  0.1364 -0.0733 -0.4921
11096SOL    HW140528  10.227   7.154   1.211  1.8486 -1.2977  0.0716
11096SOL    HW240529  10.150   7.043   1.279 -1.4598  0.4645 -0.5575
11097SOL     OW40530   8.920  12.365   8.176  0.1545  0.2519  0.0375
11097SOL    HW140531   8.923  12.380   8.270 -0.1597  0.1197  0.0714
11097SOL    HW240532   8.842  12.413   8.147  0.1654  0.1671 -0.1314
11098SOL     OW40533   9.035   8.656   1.898 -0.8131 -0.0373  0.0891
11098SOL    HW140534   8.960   8.671   1.841  0.2453 -1.8706 -1.9723
11098SOL    HW240535   9.103   8.715   1.866 -0.3075 -0.8613 -0.4171
11099SOL     OW40536   1.480   7.828   0.809  0.2249 -0.1407  0.0833
11099SOL    HW140537   1.532   7.870   0.878 -0.2396 -0.0127  0.3629
11099SOL    HW240538   1.472   7.737   0.838  0.0454 -0.0912  0.1917
11100SOL     OW40539   1.117   4.256   9.624 -0.2711 -0.5453 -0.0151
11100SOL    HW140540   1.030   4.246   9.664  1.0298 -0.6770  3.0696
11100SOL    HW240541   1.165   4.178   9.654  0.7970 -0.7502 -2.1094
11101SOL     OW40542   5.669   7.128   2.183  0.2949  0.3598 -0.0111
11101SOL    HW140543   5.584   7.114   2.226 -0.7926  1.7784 -1.5680
11101SOL    HW240544   5.686   7.222   2.193  0.8912  0.3795 -1.0788
11102SOL     OW40545   7.288   1.843  12.190 -0.2632 -0.3335  0.4243
11102SOL    HW140546   7.311   1.823  12.099 -1.5736 -0.3641  0.0853
11102SOL    HW240547   7.370   1.871  12.230  0.4221 -0.7584 -0.6455
11103SOL     OW40548   6.528   4.485   9.032 -0.3391  0.3716 -0.0375
11103SOL    HW140549   6.573   4.553   9.082 -0.4215  2.2290 -2.2812
11103SOL    HW240550   6.590   4.461   8.963 -1.4363  0.4396 -1.0937
11104SOL     OW40551  12.414   1.872  12.548 -0.8145 -0.0065 -0.5123
11104SOL    HW140552  12.377   1.849  12.463 -2.8136  0.0235  0.2927
11104SOL    HW240553  12.400   1.794  12.602 -0.2523  0.2404 -0.0086
11105SOL     OW40554  12.136   3.222   1.677  0.5457 -0.1072 -0.5323
11105SOL    HW140555  12.199   3.155   1.705 -1.7592 -1.4161  1.9275
11105SOL    HW240556  12.190   3.301   1.665  3.4235 -2.2157 -3.7852
11106SOL     OW40557  10.065  10.552   7.801 -0.0875  0.0414 -0.6607
11106SOL    HW140558  10.038  10.643   7.802 -0.2716  0.0340 -2.0308
11106SOL    HW240559  10.161  10.555   7.807 -0.1653  0.2469  0.6120
11107SOL     OW40560   5.904   8.165   1.927 -0.1552 -0.8782  0.6052
11107SOL    HW140561   5.824   8.143   1.880  1.0237 -1.0327 -1.4569
11107SOL    HW240562   5.911   8.260   1.920  0.2067 -0.9354  0.1008
11108SOL     OW40563   7.633   2.653   1.556 -0.1703  0.0653 -0.2894
11108SOL    HW140564   7.664   2.679   1.469 -0.9866  0.7818 -0.3809
11108SOL    HW240565   7.667   2.720   1.615 -1.9440  1.1960 -0.4692
11109SOL     OW40566  12.297   9.004  12.165  0.1778 -0.8743 -0.3739
11109SOL    HW140567  12.353   9.051  12.227 -0.6705 -1.5555  0.9598
11109SOL    HW240568  12.295   9.059  12.087 -1.6730  1.9232  1.4975
11110SOL     OW40569  11.728   7.247   4.860 -0.1907 -0.2700  0.5170
11110SOL    HW140570  11.692   7.334   4.841 -0.4000 -0.5212 -0.2783
11110SOL    HW240571  11.812   7.265   4.903 -0.6497  0.3185  1.2015
11111SOL     OW40572  11.512   6.879   4.127 -0.1907 -0.0219 -0.3426
11111SOL    HW140573  11.552   6.824   4.060  2.4392  1.2901  0.0232
11111SOL    HW240574  11.514   6.825   4.206  1.8149  0.2911 -0.1226
11112SOL     OW40575   1.622  12.573   3.508  0.2224 -0.0412  0.0872
11112SOL    HW140576   1.576  12.644   3.552 -2.3926 -0.3393 -1.8956
11112SOL    HW240577   1.619  12.500   3.569 -3.1543 -0.4084 -0.3440
11113SOL     OW40578  12.042  12.328   3.642  0.2675  0.1287  0.3996
11113SOL    HW140579  12.000  12.404   3.683  2.4569  0.5162  2.0629
11113SOL    HW240580  12.136  12.344   3.652  0.8121 -2.9444  1.1004
11114SOL     OW40581   0.305   3.457   7.412 -0.2938  0.3617 -0.0441
11114SOL    HW140582   0.295   3.545   7.376 -1.7699  0.2605  0.0688
11114SOL    HW240583   0.399   3.438   7.401 -0.1035  1.5966 -0.8515
11115SOL     OW40584   5.927   7.779   1.403 -0.5056  0.1644 -0.3653
11115SOL    HW140585   5.914   7.836   1.326 -0.3158  0.7136  0.0023
11115SOL    HW240586   5.906   7.835   1.478 -2.5893 -0.9022 -0.0705
11116SOL     OW40587   6.028   2.135  10.960  0.1552 -0.1469 -0.8928
11116SOL    HW140588   5.948   2.182  10.984  0.9117  1.0933 -0.6925
11116SOL    HW240589   6.099   2.190  10.994  1.1474 -0.3274 -2.5607
11117SOL     OW40590  11.486   9.812   7.549  0.1031  0.1926  0.3515
11117SOL    HW140591  11.479   9.745   7.617  1.3004  0.0714  0.3858
11117SOL    HW240592  11.404   9.806   7.501 -0.7653  0.2830  1.7717
11118SOL     OW40593   8.809   4.228   2.796 -0.3246  0.2925 -0.4755
11118SOL    HW140594   8.887   4.279   2.774 -0.3209 -0.2092 -1.7550
11118SOL    HW240595   8.830   4.186   2.879  1.0321 -0.3366 -1.1110
11119SOL     OW40596   7.626   0.942   1.233 -0.1698  0.3224  0.3400
11119SOL    HW140597   7.536   0.967   1.253 -0.2108 -0.0421  0.6388
11119SOL    HW240598   7.617   0.874   1.166 -0.3616 -2.3628  2.8814
11120SOL     OW40599  11.979   4.329   0.424 -0.0846 -0.4446  0.7865
11120SOL    HW140600  12.009   4.417   0.400 -1.1749  0.2475  1.8407
11120SOL    HW240601  11.957   4.289   0.340 -0.1244  0.5063  0.3221
11121SOL     OW40602  10.224   2.973   5.010 -0.1070  0.3325 -0.0276
11121SOL    HW140603  10.219   2.997   5.102 -1.4110  0.5247 -0.1261
11121SOL    HW240604  10.214   3.056   4.963  1.5195  0.3717 -0.3584
11122SOL     OW40605  10.115   8.928   5.249 -0.2744  0.2290  0.4377
11122SOL    HW140606  10.181   8.899   5.186  1.9011  3.4715  0.9771
11122SOL    HW240607  10.147   8.893   5.333 -0.0447  0.5686  0.4939
11123SOL     OW40608  12.004   8.085   3.998  0.0080  0.0928 -0.0255
11123SOL    HW140609  12.032   8.152   4.060 -2.9123  2.9702 -1.4922
11123SOL    HW240610  11.963   8.134   3.927 -2.8147 -3.2485 -0.9981
11124SOL     OW40611   9.303   8.198   3.408  0.1249  0.0100 -0.2808
11124SOL    HW140612   9.398   8.195   3.391  0.0159  0.1295 -0.9273
11124SOL    HW240613   9.265   8.221   3.324 -0.3673  1.6538  0.3591
11125SOL     OW40614   5.984   7.793   6.288 -0.2746 -0.4060 -0.3900
11125SOL    HW140615   5.911   7.854   6.303 -0.0156 -0.0223 -0.6879
11125SOL    HW240616   6.063   7.846   6.301 -0.0383 -0.9127  0.3139
11126SOL     OW40617   6.597   9.744   3.585  0.5498  0.3093 -0.2971
11126SOL    HW140618   6.661   9.703   3.527  0.4447  1.8481 -1.5723
11126SOL    HW240619   6.535   9.786   3.526 -1.0599 -0.2564  0.9319
11127SOL     OW40620  11.701   9.269  11.103 -0.4947 -0.0654  0.0872
11127SOL    HW140621  11.652   9.273  11.021 -0.0448  1.4195 -0.1394
11127SOL    HW240622  11.693   9.357  11.140  1.7507  0.1582  0.1794
11128SOL     OW40623   7.984  12.320   0.801 -0.4705 -0.2920  0.4373
11128SOL    HW140624   8.006  12.295   0.711  1.4993  1.5889  0.3183
11128SOL    HW240625   7.890  12.301   0.809 -0.8408  0.0430 -2.2209
11129SOL     OW40626   4.233  10.125   6.103 -0.5516 -0.3843  0.1637
11129SOL    HW140627   4.192  10.198   6.150 -0.1709 -0.1416  0.1309
11129SOL    HW240628   4.319  10.160   6.077 -1.1383 -0.1444 -1.5952
11130SOL     OW40629   6.226   8.918   6.897  0.7100  0.6007 -0.2424
11130SOL    HW140630   6.134   8.904   6.920  0.4609  0.9487 -0.9989
11130SOL    HW240631   6.268   8.941   6.980 -0.0636  1.3689 -0.0512
11131SOL     OW40632  10.342   6.201   3.964  0.1245  0.1373  0.0754
11131SOL    HW140633  10.283   6.169   4.032 -0.6775  0.8779 -0.2536
11131SOL    HW240634  10.288   6.257   3.909  1.2326  1.1937  0.0072
11132SOL     OW40635   1.581   2.363   4.260  0.2168  0.2743  0.1824
11132SOL    HW140636   1.609   2.447   4.223 -1.3476  1.3514  1.3270
11132SOL    HW240637   1.608   2.367   4.352  1.7960 -1.3011 -0.1596
11133SOL     OW40638   8.645   6.519   5.315  0.2367 -0.4357  0.0918
11133SOL    HW140639   8.700   6.597   5.313  0.2874 -0.4269  1.1954
11133SOL    HW240640   8.705   6.447   5.292 -0.0365 -0.0729 -1.9940
11134SOL     OW40641   3.155   8.196   2.899 -0.3364  0.3231 -0.1320
11134SOL    HW140642   3.234   8.160   2.939  0.5102  1.0586 -1.1159
11134SOL    HW240643   3.084   8.165   2.956  0.4730 -1.6973 -0.1363
11135SOL     OW40644   5.999   4.198   7.039  0.4194  0.0078 -0.5286
11135SOL    HW140645   6.034   4.246   6.964  1.6304  0.7061  0.4460
11135SOL    HW240646   5.956   4.121   7.001 -0.5154  1.2227 -2.0422
11136SOL     OW40647   5.449   1.500   6.939 -0.3384 -0.1471 -0.5685
11136SOL    HW140648   5.381   1.433   6.931  2.1002 -3.2742  2.0304
11136SOL    HW240649   5.500   1.493   6.859  0.1922 -1.8978 -0.1182
11137SOL     OW40650   0.975   4.622   3.393 -0.6465 -0.0665 -0.1971
11137SOL    HW140651   0.929   4.544   3.360 -2.3239  1.3180 -1.3130
11137SOL    HW240652   0.907   4.689   3.400  0.4082  0.8517  2.4445
11138SOL     OW40653  11.349   0.214   9.518  0.1465 -0.1575  0.3185
11138SOL    HW140654  11.352   0.218   9.422 -3.1203 -0.9798  0.0689
11138SOL    HW240655  11.429   0.168   9.543  0.7013 -0.5946 -2.0588
11139SOL     OW40656  11.594  10.799  12.624 -0.3324  0.4170 -0.2141
11139SOL    HW140657  11.527  10.861  12.598 -0.2882  0.6596  0.2561
11139SOL    HW240658  11.653  10.848  12.681 -2.0007 -0.8221  2.7622
11140SOL     OW40659   2.161   2.733   4.679  0.0034 -0.5769  0.0818
11140SOL    HW140660   2.077   2.695   4.705 -0.4416  1.7296  2.4946
11140SOL    HW240661   2.226   2.674   4.716 -0.5864 -1.3035 -0.0200
11141SOL     OW40662   9.105   1.168   5.124  0.2147  0.0577 -0.2235
11141SOL    HW140663   9.035   1.189   5.062 -0.5492 -1.4150  0.0998
11141SOL    HW240664   9.088   1.225   5.199 -0.6070 -0.2348 -0.1785
11142SOL     OW40665  12.091  11.295   7.048  0.1662 -1.1893 -0.0110
11142SOL    HW140666  12.079  11.343   7.130  0.0769 -1.3844  0.0922
11142SOL    HW240667  12.173  11.247   7.059  0.9820  0.0140 -0.6525
11143SOL     OW40668  12.255   5.010   4.762  0.3132  0.3165  0.4178
11143SOL    HW140669  12.239   5.039   4.671  0.5372 -1.1435 -0.1062
11143SOL    HW240670  12.350   5.003   4.768  0.2881  0.2340  0.7151
11144SOL     OW40671  12.420   1.000  10.378 -0.4439 -0.0920 -0.6481
11144SOL    HW140672  12.373   0.926  10.341 -0.2137  0.1782 -1.5259
11144SOL    HW240673  12.505   0.998  10.334  0.3167 -0.4848  0.7974
11145SOL     OW40674  10.942   6.824   1.567  0.5973 -0.0612 -0.5922
11145SOL    HW140675  10.989   6.903   1.541  0.7564 -0.9319 -3.3190
11145SOL    HW240676  10.992   6.789   1.641  2.3341  0.7872 -1.2997
11146SOL     OW40677   1.253   1.179   9.421  0.0788  0.7321  0.3570
11146SOL    HW140678   1.273   1.146   9.333  0.3224  0.4349  0.5203
11146SOL    HW240679   1.199   1.111   9.461 -0.5572  1.1509  0.2203
11147SOL     OW40680  11.266   3.239   7.570  0.1535  0.1724 -0.0244
11147SOL    HW140681  11.288   3.189   7.648  0.0870 -1.6874 -1.1579
11147SOL    HW240682  11.349   3.252   7.525  0.3266  2.0022  0.7331
11148SOL     OW40683   7.320   2.497   3.636 -0.0501 -0.2286 -0.1140
11148SOL    HW140684   7.356   2.476   3.550 -0.1288  0.4437 -0.3147
11148SOL    HW240685   7.227   2.515   3.620 -0.2586 -0.9367  0.2459
11149SOL     OW40686   0.446   7.386  10.690 -0.2511  0.4223 -0.2532
11149SOL    HW140687   0.365   7.400  10.738  0.7564 -0.8887  2.0116
11149SOL    HW240688   0.515   7.411  10.752  1.0884 -0.0119 -1.5155
11150SOL     OW40689   5.626   4.579   4.519  0.3603 -0.5162 -0.3008
11150SOL    HW140690   5.641   4.638   4.594 -1.0964 -1.5559  0.8827
11150SOL    HW240691   5.713   4.564   4.483  1.1658 -0.2100  1.3824
11151SOL     OW40692   9.974   8.183   5.850  0.9545 -0.2573 -0.1259
11151SOL    HW140693  10.011   8.104   5.889 -1.6747 -1.3416  0.3665
11151SOL    HW240694   9.905   8.152   5.792  0.1197  1.6542 -0.2539
11152SOL     OW40695   9.860   1.831   6.531 -0.0927 -0.0072 -0.2279
11152SOL    HW140696   9.819   1.887   6.597 -2.1377 -0.2281 -1.2247
11152SOL    HW240697   9.878   1.890   6.458  1.4629  0.0901  0.2121
11153SOL     OW40698   7.057   3.968   6.178  0.0992 -0.1377 -0.4218
11153SOL    HW140699   7.149   3.941   6.183  0.0800 -0.3151 -0.9524
11153SOL    HW240700   7.029   3.974   6.269  0.5355 -0.4341 -0.2639
11154SOL     OW40701   9.231  11.944   5.278 -0.0445 -0.1049 -0.1684
11154SOL    HW140702   9.318  11.983   5.267  0.6184 -1.8619 -1.6444
11154SOL    HW240703   9.200  11.978   5.362  2.6982 -0.5411  1.1294
11155SOL     OW40704   9.277   2.963   6.305 -0.3303 -0.4971  0.3597
11155SOL    HW140705   9.327   2.888   6.339  0.7574 -0.1266 -0.3413
11155SOL    HW240706   9.249   3.011   6.382  1.1167 -0.2845  0.7781
11156SOL     OW40707   1.812   7.366   2.573  0.2403  0.5078  0.1491
11156SOL    HW140708   1.854   7.430   2.631 -1.0490  2.1825 -0.6962
11156SOL    HW240709   1.740   7.331   2.624  1.0450 -0.4228  0.6713
11157SOL     OW40710   2.845  11.234   7.833 -0.1952 -0.0375  0.3197
11157SOL    HW140711   2.827  11.292   7.759  0.7093  0.4728  0.4912
11157SOL    HW240712   2.891  11.159   7.795 -1.8500 -0.9489  0.0099
11158SOL     OW40713   2.050   0.215   1.595 -0.1034 -0.2323  0.9368
11158SOL    HW140714   2.016   0.149   1.655  2.7086 -0.9587  1.8463
11158SOL    HW240715   2.094   0.165   1.526  0.0182  0.6757  0.3326
11159SOL     OW40716   3.899   1.805  10.204 -0.2580  0.6938  0.5903
11159SOL    HW140717   3.969   1.848  10.155 -0.1810  0.1267  0.1915
11159SOL    HW240718   3.892   1.855  10.285  0.7257  0.6606  0.7084
11160SOL     OW40719   4.269  11.350   3.304 -0.1413  0.1940  0.0015
11160SOL    HW140720   4.303  11.282   3.247  0.5663 -0.7464  1.4949
11160SOL    HW240721   4.310  11.431   3.273  1.5871 -0.5594  0.2535
11161SOL     OW40722   9.857   8.931   2.845 -0.3082 -0.2653  0.1155
11161SOL    HW140723   9.888   8.945   2.934 -1.8661  0.3711  0.5859
11161SOL    HW240724   9.820   9.016   2.819  0.1750 -0.4181 -1.1713
11162SOL     OW40725   8.760   7.518   3.155  0.2362  0.0156 -0.1950
11162SOL    HW140726   8.747   7.577   3.230 -2.5737  0.2962 -0.7683
11162SOL    HW240727   8.691   7.452   3.165 -0.3654  0.1840 -2.6059
11163SOL     OW40728   2.763   3.290   8.490  0.0483  0.2934  0.0780
11163SOL    HW140729   2.669   3.269   8.486  0.0807 -0.2206  1.5305
11163SOL    HW240730   2.767   3.385   8.477 -0.4466  0.0436 -2.4045
11164SOL     OW40731   8.318   7.922   0.833 -0.1095 -0.0081  0.4135
11164SOL    HW140732   8.273   7.888   0.910  0.9868  0.1208  1.1392
11164SOL    HW240733   8.408   7.891   0.843  0.7826  2.4239  0.7265
11165SOL     OW40734  11.541   2.216   7.555 -0.5969 -0.0377  0.2664
11165SOL    HW140735  11.617   2.273   7.569 -0.6115 -0.0806  0.5174
11165SOL    HW240736  11.541   2.156   7.630  0.1148 -1.1642 -0.6054
11166SOL     OW40737   4.918   8.964   5.056  0.1844  0.1806 -0.5120
11166SOL    HW140738   4.969   8.981   5.136  0.6035 -0.5194 -0.6200
11166SOL    HW240739   4.889   9.050   5.028 -0.4499  0.3824  0.7108
11167SOL     OW40740   2.641   4.742   4.391 -0.3182  0.4633 -0.3482
11167SOL    HW140741   2.610   4.759   4.302 -0.4742  0.7434 -0.2390
11167SOL    HW240742   2.724   4.789   4.397  1.5472 -2.3888 -1.5332
11168SOL     OW40743  12.122   9.927  12.197  0.0507 -0.2067 -0.0001
11168SOL    HW140744  12.190   9.994  12.192 -0.6362  0.7922  2.4673
11168SOL    HW240745  12.069   9.941  12.118  1.5828  0.2196 -0.9961
11169SOL     OW40746   9.381   5.388   2.994  0.1516 -0.2516 -0.5559
11169SOL    HW140747   9.358   5.340   3.073 -2.4338 -0.5718 -1.4262
11169SOL    HW240748   9.317   5.360   2.929 -0.5179  3.1595 -1.5687
11170SOL     OW40749   2.372  12.693   2.792  0.1094 -0.2871  0.1773
11170SOL    HW140750   2.336  12.606   2.773 -0.1836 -0.0580 -0.3400
11170SOL    HW240751   2.332  12.750   2.726  1.3690 -0.0042 -0.3560
11171SOL     OW40752  10.619   1.643   3.052 -0.1921 -0.3777  0.1642
11171SOL    HW140753  10.659   1.676   2.971 -2.9471  0.6900 -0.8869
11171SOL    HW240754  10.628   1.715   3.114  0.2099 -0.4651  0.2136
11172SOL     OW40755   2.098   3.799   9.283  0.2326  0.6476  0.4989
11172SOL    HW140756   2.081   3.803   9.378  1.2333  1.4104  0.6660
11172SOL    HW240757   2.012   3.783   9.244 -0.4090  1.5422  1.4693
11173SOL     OW40758  12.672   5.609   2.996  0.1612  0.3069 -0.0243
11173SOL    HW140759  12.712   5.522   3.005  0.0430  0.0048 -1.9117
11173SOL    HW240760  12.702   5.657   3.073  1.9893 -0.7373 -0.0097
11174SOL     OW40761  11.468  11.432   8.022  0.3219 -0.2369 -0.3675
11174SOL    HW140762  11.547  11.431   8.075  1.2346  1.5453 -1.5683
11174SOL    HW240763  11.496  11.397   7.937 -0.5444 -0.8991 -0.3965
11175SOL     OW40764   9.088  11.790  11.775  0.3130  0.4765 -0.2186
11175SOL    HW140765   9.181  11.814  11.780  0.4073  0.0648  0.0755
11175SOL    HW240766   9.079  11.748  11.690  0.5976 -0.3002  0.1292
11176SOL     OW40767   8.002  12.577   0.137  0.6597 -0.0063  0.1662
11176SOL    HW140768   8.073  12.579   0.072 -0.0246  0.1787 -0.5978
11176SOL    HW240769   7.922  12.585   0.085  0.0625 -0.4412  0.9958
11177SOL     OW40770   9.471  12.092  11.155  0.2406 -0.3286  0.5398
11177SOL    HW140771   9.454  12.000  11.135 -0.2580 -0.2070  0.3683
11177SOL    HW240772   9.390  12.123  11.197  0.4586 -0.0084  0.7303
11178SOL     OW40773   5.430   9.165  10.942 -0.0478  0.0651  0.1059
11178SOL    HW140774   5.410   9.182  10.850  1.9369  0.3795 -0.3255
11178SOL    HW240775   5.476   9.244  10.972  1.2817 -0.8956  0.7053
11179SOL     OW40776   1.009   0.501   1.230  0.5749  0.1926  0.0157
11179SOL    HW140777   0.967   0.583   1.257 -0.9678 -0.4466 -0.2986
11179SOL    HW240778   0.990   0.441   1.302 -1.6773 -0.9164 -1.3921
11180SOL     OW40779   9.262   7.545   1.041  0.2752  0.7449 -0.3632
11180SOL    HW140780   9.265   7.457   1.004 -1.3606  0.9814 -1.1352
11180SOL    HW240781   9.182   7.546   1.094  0.0795  1.8693 -0.6588
11181SOL     OW40782   6.115   0.743   2.328 -0.2318  0.0301 -1.0947
11181SOL    HW140783   6.139   0.668   2.383  0.2781  0.3733 -0.8484
11181SOL    HW240784   6.177   0.741   2.255  0.2438  0.6262 -0.7154
11182SOL     OW40785   9.487   1.247   4.425  0.0540  0.0131  0.4932
11182SOL    HW140786   9.505   1.153   4.429  0.1810  0.0412  0.5948
11182SOL    HW240787   9.392   1.253   4.414 -0.0413 -0.1227  1.1703
11183SOL     OW40788   3.397   6.285   9.549 -0.1546  0.3254 -0.4453
11183SOL    HW140789   3.438   6.351   9.605 -1.2934 -0.2964  1.1987
11183SOL    HW240790   3.369   6.333   9.471  1.5972  1.1954 -0.5944
11184SOL     OW40791   0.125   1.873  11.459 -0.1151  0.0278  0.4280
11184SOL    HW140792   0.066   1.936  11.500  0.4217  1.2301 -0.5697
11184SOL    HW240793   0.190   1.927  11.413 -0.9858 -1.1813 -2.4601
11185SOL     OW40794   5.274  10.055   8.314  0.6696 -0.0607  0.1001
11185SOL    HW140795   5.189  10.097   8.324 -0.8228 -2.2910 -2.0691
11185SOL    HW240796   5.284  10.002   8.392 -0.2490 -0.2760  0.0752
11186SOL     OW40797   5.018   9.617  12.701  0.1870  0.5992 -0.5986
11186SOL    HW140798   4.975   9.535  12.676  0.2996  0.4180 -0.2014
11186SOL    HW240799   5.058   9.648  12.620  0.5175  0.0364 -0.6591
11187SOL     OW40800   0.200   4.495   7.900 -0.1149 -0.2301 -0.5343
11187SOL    HW140801   0.256   4.494   7.822 -0.1125  0.4582 -0.5498
11187SOL    HW240802   0.118   4.535   7.871 -0.7316 -1.4981 -0.5775
11188SOL     OW40803  10.589   4.396   9.432  0.0188  0.0677 -0.0883
11188SOL    HW140804  10.516   4.378   9.372 -0.4621 -0.6873  0.7071
11188SOL    HW240805  10.547   4.420   9.514  0.6728  0.4466  0.1397
11189SOL     OW40806   3.697   3.727   8.966 -0.0665  0.7036  0.4615
11189SOL    HW140807   3.764   3.660   8.961  0.8092  1.6635 -1.3810
11189SOL    HW240808   3.614   3.678   8.969  0.6313 -0.4604  1.4335
11190SOL     OW40809  10.926  11.642  12.310  0.2122  0.4909 -0.3870
11190SOL    HW140810  10.950  11.648  12.403  1.4572  0.5540 -0.6938
11190SOL    HW240811  10.918  11.733  12.282 -1.3228  0.4755 -0.0798
11191SOL     OW40812   5.283   5.188   7.522  0.0062 -0.5690 -0.3355
11191SOL    HW140813   5.262   5.122   7.456  0.1534  0.0983 -1.0617
11191SOL    HW240814   5.217   5.256   7.511  1.0447  0.3860 -1.0106
11192SOL     OW40815   4.998  10.318   7.527 -0.4498  0.2004 -0.1852
11192SOL    HW140816   4.972  10.388   7.466 -0.3820 -0.3373 -0.8484
11192SOL    HW240817   5.089  10.339   7.549  0.2357 -0.7253 -1.9307
11193SOL     OW40818   5.124   1.393   6.253 -0.2716  0.6011 -0.1132
11193SOL    HW140819   5.043   1.411   6.300 -0.8799 -2.4315  0.2062
11193SOL    HW240820   5.180   1.348   6.316  1.2643  1.6404 -0.6565
11194SOL     OW40821   4.969   7.553   0.710 -0.1798  0.1293  0.3538
11194SOL    HW140822   5.001   7.643   0.719 -0.1390  0.0437  1.1494
11194SOL    HW240823   5.049   7.500   0.699 -0.1668  0.1318  0.4340
11195SOL     OW40824   4.030  12.260   1.104  0.0697  0.2650 -0.0705
11195SOL    HW140825   4.074  12.312   1.172 -2.0297  0.4913  1.2145
11195SOL    HW240826   4.016  12.321   1.032 -0.1495  0.8305  0.4346
11196SOL     OW40827   4.205   1.078   2.203  0.2015 -0.6111 -0.3303
11196SOL    HW140828   4.172   1.008   2.259  0.2465 -0.1126  0.3388
11196SOL    HW240829   4.299   1.080   2.220  0.2162 -0.4550 -0.4262
11197SOL     OW40830   2.869   1.049   7.271 -0.0732  0.0366  0.1513
11197SOL    HW140831   2.849   0.967   7.226  0.1467 -1.8094  3.1104
11197SOL    HW240832   2.837   1.117   7.212 -0.9238 -2.1661 -2.1363
11198SOL     OW40833   7.616   3.389  10.048 -0.0280  0.4857  0.3001
11198SOL    HW140834   7.566   3.311  10.074  1.7695 -0.9034 -0.1852
11198SOL    HW240835   7.627   3.438  10.129 -0.2853 -0.3229  0.8441
11199SOL     OW40836   6.158   0.229   9.031  0.2478 -0.6272  0.0969
11199SOL    HW140837   6.158   0.316   8.990  0.5831 -1.0713 -0.8670
11199SOL    HW240838   6.099   0.177   8.978 -0.1347 -0.9367  0.8156
11200SOL     OW40839  11.552   8.976  12.463  0.2296 -0.3741 -0.3194
11200SOL    HW140840  11.495   8.976  12.386  0.4478 -1.5934 -0.5071
11200SOL    HW240841  11.539   9.062  12.503 -1.4361 -0.4683 -0.5805
11201SOL     OW40842   6.278   0.924  11.769 -0.1734  0.6809  0.9679
11201SOL    HW140843   6.223   0.998  11.796 -0.9377  0.2723  0.5546
11201SOL    HW240844   6.255   0.854  11.829 -1.3901 -0.0266 -0.2620
11202SOL     OW40845  11.412   5.367   1.472  0.1170 -0.5181  0.2561
11202SOL    HW140846  11.325   5.331   1.454  0.0458 -0.7325  0.9681
11202SOL    HW240847  11.426   5.434   1.405 -0.6831 -0.3433  0.2590
11203SOL     OW40848   0.138   7.157  12.248  0.6751 -0.6146  0.2888
11203SOL    HW140849   0.099   7.176  12.333  0.2308 -2.2572  0.4883
11203SOL    HW240850   0.123   7.236  12.196 -1.0990 -0.4383  1.0048
11204SOL     OW40851   8.308   2.236   5.098 -0.0663 -0.1502  0.4846
11204SOL    HW140852   8.375   2.168   5.108  1.4120  1.3758  1.5296
11204SOL    HW240853   8.316   2.264   5.006  1.4428  0.6589  0.8240
11205SOL     OW40854   4.609   3.733   9.395 -0.0285  0.0488  0.3391
11205SOL    HW140855   4.521   3.713   9.426 -0.3780 -0.1123 -0.7209
11205SOL    HW240856   4.644   3.649   9.365 -0.0280  0.3304 -0.4862
11206SOL     OW40857   6.880  12.675   0.874  0.6400 -0.2465 -0.1695
11206SOL    HW140858   6.950  12.612   0.857  0.2671 -0.3636 -1.4087
11206SOL    HW240859   6.908  12.755   0.831 -0.2788 -0.5002 -1.2981
11207SOL     OW40860   5.145   3.356   9.267 -0.4667  0.0127  0.5111
11207SOL    HW140861   5.105   3.422   9.211 -3.7213 -0.1915  2.3495
11207SOL    HW240862   5.097   3.276   9.248 -0.9063 -0.3040  2.7074
11208SOL     OW40863   6.839  10.462   5.787  0.1583 -0.1752 -0.2472
11208SOL    HW140864   6.795  10.409   5.853  0.6871 -2.0855 -1.3432
11208SOL    HW240865   6.894  10.523   5.837 -0.7083 -0.4247  1.0602
11209SOL     OW40866   9.257   2.611   9.673 -0.1711 -0.1542 -0.3635
11209SOL    HW140867   9.330   2.665   9.703 -0.6976 -0.2624  1.1958
11209SOL    HW240868   9.179   2.657   9.705 -0.6167 -1.9424  1.2733
11210SOL     OW40869  10.495   2.321   1.705  0.6382  0.4659  0.1825
11210SOL    HW140870  10.400   2.310   1.707  0.6895  0.1031  0.7635
11210SOL    HW240871  10.521   2.326   1.797  1.2257  0.1539  0.0371
11211SOL     OW40872   5.449   6.644  10.936  0.5577  0.5912 -0.0806
11211SOL    HW140873   5.484   6.733  10.935  1.1630  0.4136  1.6826
11211SOL    HW240874   5.472   6.610  11.023 -0.3587 -1.0098 -0.4218
11212SOL     OW40875   8.126  11.867   2.436  0.6569 -0.3384  0.2042
11212SOL    HW140876   8.087  11.786   2.402 -1.0372  1.1381 -1.6539
11212SOL    HW240877   8.092  11.936   2.379  1.0194  1.8670  2.4523
11213SOL     OW40878   5.124   8.686   2.314 -0.1246 -0.4714  0.2900
11213SOL    HW140879   5.170   8.610   2.349 -0.4078 -1.2369 -0.9263
11213SOL    HW240880   5.038   8.652   2.289 -0.3590  0.3196 -0.0110
11214SOL     OW40881   1.222   2.334  11.034 -0.0221  0.0138 -0.1729
11214SOL    HW140882   1.218   2.265  11.100 -0.6340 -2.4529 -2.6067
11214SOL    HW240883   1.294   2.391  11.063  2.0620 -2.9124  0.8788
11215SOL     OW40884   1.864   6.680  11.487  0.2539 -0.4164 -0.2235
11215SOL    HW140885   1.914   6.734  11.548  0.2515 -1.6083  0.8883
11215SOL    HW240886   1.923   6.664  11.414  0.1394  1.3232 -0.7353
11216SOL     OW40887   8.186   9.050   3.830  0.0057  0.1935 -0.2089
11216SOL    HW140888   8.121   9.021   3.766  0.1230  0.0924 -0.2819
11216SOL    HW240889   8.174   8.992   3.905  0.6367 -0.4327 -0.5806
11217SOL     OW40890   6.976  11.987   9.946 -0.0958  0.5332 -1.0953
11217SOL    HW140891   6.943  11.899   9.965 -1.8187  1.5650  1.0991
11217SOL    HW240892   6.899  12.035   9.916  0.2863  1.9087  0.0553
11218SOL     OW40893   9.055   5.627   5.003  0.8816  0.4901  0.1051
11218SOL    HW140894   9.120   5.620   4.934  0.4692  0.3949 -0.2799
11218SOL    HW240895   9.104   5.612   5.084  1.5067  1.3596 -0.1038
11219SOL     OW40896   9.395   1.974   4.310  0.4987  0.2221 -0.6846
11219SOL    HW140897   9.310   2.000   4.275 -0.2057  0.6381  1.2023
11219SOL    HW240898   9.415   2.041   4.375  1.3828 -0.8814  0.2177
11220SOL     OW40899   3.524  10.919   0.438 -0.6332  0.0451 -0.1539
11220SOL    HW140900   3.496  10.864   0.511 -1.2306  0.4444 -0.0834
11220SOL    HW240901   3.445  10.935   0.387 -0.3678  0.4273 -0.4549
11221SOL     OW40902   4.438  11.414   2.179 -0.2547  0.5412 -0.3490
11221SOL    HW140903   4.401  11.344   2.232  0.9627 -0.5332 -0.8808
11221SOL    HW240904   4.365  11.444   2.125 -1.2225  0.8769  1.0816
11222SOL     OW40905  11.714   2.832  11.477 -0.8111  0.2238 -0.4239
11222SOL    HW140906  11.759   2.750  11.455 -0.6646 -0.0282  0.7555
11222SOL    HW240907  11.636   2.833  11.421 -1.1859 -1.0758  0.0361
11223SOL     OW40908   3.557   6.247   1.522  0.1687 -0.0962 -0.4468
11223SOL    HW140909   3.576   6.312   1.589  1.3594 -1.7664  0.9519
11223SOL    HW240910   3.625   6.259   1.456  0.9359 -0.4725  0.2556
11224SOL     OW40911  11.783   9.645   8.530 -0.0672 -0.1630  0.1843
11224SOL    HW140912  11.690   9.659   8.551 -0.8515 -1.6228 -2.0219
11224SOL    HW240913  11.793   9.682   8.443  1.2845 -0.6091  0.1358
11225SOL     OW40914   6.405   6.725   3.637  0.5789 -0.2855 -0.0664
11225SOL    HW140915   6.363   6.784   3.575  2.4090  1.0500 -0.0999
11225SOL    HW240916   6.358   6.738   3.719 -2.4964 -2.7589 -1.2529
11226SOL     OW40917   7.412   3.181   1.852 -0.3335  0.5649 -0.4360
11226SOL    HW140918   7.436   3.254   1.910 -0.6901 -0.4319  1.0127
11226SOL    HW240919   7.339   3.139   1.897  0.2409 -1.0358 -0.9539
11227SOL     OW40920   6.881  10.015   3.202 -0.1365  0.0534  0.4649
11227SOL    HW140921   6.817  10.080   3.232  0.3974 -0.0436  1.8868
11227SOL    HW240922   6.829   9.938   3.180 -0.7394  0.7974 -0.8779
11228SOL     OW40923   0.621   8.204   2.921 -0.2047  0.1598 -0.1325
11228SOL    HW140924   0.599   8.287   2.962 -1.8720  0.5119 -1.6443
11228SOL    HW240925   0.615   8.140   2.992 -0.4287  1.0911  0.7080
11229SOL     OW40926   1.597  11.977   4.556  0.5801  0.1994 -0.3352
11229SOL    HW140927   1.527  11.918   4.583 -0.7058  0.7508 -2.2677
11229SOL    HW240928   1.675  11.921   4.551 -0.2012 -0.9185 -0.3084
11230SOL     OW40929   1.152  10.976   6.419 -0.2594  0.3640 -0.0708
11230SOL    HW140930   1.071  10.978   6.368 -1.3575 -0.8964  1.5542
11230SOL    HW240931   1.202  10.904   6.382 -0.4798  0.2788 -0.2022
11231SOL     OW40932   2.807   0.224   5.919  0.1000  0.4738  0.4911
11231SOL    HW140933   2.889   0.226   5.968 -0.1770  1.4012  0.9405
11231SOL    HW240934   2.802   0.309   5.876 -0.3583  0.2102  0.0071
11232SOL     OW40935   6.508   9.570  10.716 -0.1021  0.3891  0.3915
11232SOL    HW140936   6.527   9.647  10.662 -0.5586  1.0555  1.1544
11232SOL    HW240937   6.496   9.499  10.653  0.1207  0.9863 -0.3397
11233SOL     OW40938   8.272   8.397   7.957  0.2943  0.2385 -0.2454
11233SOL    HW140939   8.213   8.441   7.896  0.7021 -0.9591 -1.5495
11233SOL    HW240940   8.249   8.433   8.043 -0.8106  1.4034 -1.0028
11234SOL     OW40941   0.400   8.617   1.658  0.2418 -0.2632  0.1825
11234SOL    HW140942   0.438   8.570   1.584  0.2891 -0.7027  0.4850
11234SOL    HW240943   0.310   8.584   1.663  0.2829 -0.3413  0.4112
11235SOL     OW40944   8.422   2.882   1.005  0.3269  0.1016 -0.0874
11235SOL    HW140945   8.504   2.926   0.982  1.7056 -2.7229 -0.8940
11235SOL    HW240946   8.388   2.848   0.923 -0.5148 -0.6704  0.5617
11236SOL     OW40947   4.289   1.174  10.829  0.1967 -0.1836  0.4762
11236SOL    HW140948   4.307   1.223  10.910  1.3979 -1.5403  1.0858
11236SOL    HW240949   4.208   1.127  10.847  0.8263 -1.0338  1.2064
11237SOL     OW40950   0.709   7.009  11.459 -0.3888 -0.0179 -0.0307
11237SOL    HW140951   0.666   7.022  11.374  0.8153 -0.7399 -0.7784
11237SOL    HW240952   0.647   7.044  11.522 -0.9037  1.4321 -1.2734
11238SOL     OW40953   6.545   7.973   2.091 -0.4706  0.1974  0.1886
11238SOL    HW140954   6.636   7.988   2.068 -0.1030 -1.5913  0.3031
11238SOL    HW240955   6.537   8.007   2.180 -0.8877  3.5474 -0.9740
11239SOL     OW40956   0.279   5.416   2.657  0.5438  0.1915 -0.6065
11239SOL    HW140957   0.277   5.457   2.570  0.3045 -0.6558 -1.0185
11239SOL    HW240958   0.191   5.379   2.667  0.3015  1.0006  0.3660
11240SOL     OW40959   3.655   9.230   9.207 -0.0129 -0.2941  0.5755
11240SOL    HW140960   3.601   9.304   9.179 -0.3670  0.1085  2.2321
11240SOL    HW240961   3.593   9.165   9.238  0.3791 -0.5716  0.7772
11241SOL     OW40962   6.645   7.165   8.728 -0.1172  0.7271  0.1598
11241SOL    HW140963   6.697   7.211   8.794  0.5656  0.0105  0.1423
11241SOL    HW240964   6.565   7.216   8.720  0.7326  2.0850 -0.0783
11242SOL     OW40965   2.187  12.368   8.619  0.0613 -0.3063 -0.1546
11242SOL    HW140966   2.179  12.378   8.713 -0.5371  0.5811 -0.2847
11242SOL    HW240967   2.110  12.413   8.583  1.6617  1.8076 -1.1602
11243SOL     OW40968  10.466  10.654   2.559  0.5987 -0.2265 -0.2004
11243SOL    HW140969  10.454  10.634   2.652  1.3006  1.5291  0.3215
11243SOL    HW240970  10.378  10.656   2.522  0.2279  0.2079  0.6941
11244SOL     OW40971   4.439   8.894   5.266  0.1407  0.4356 -0.8298
11244SOL    HW140972   4.511   8.956   5.254 -0.5396  1.6480  1.0454
11244SOL    HW240973   4.360   8.948   5.260 -0.4433 -0.0595  1.6486
11245SOL     OW40974   9.462   1.184  11.629 -0.2282  0.8909  0.0487
11245SOL    HW140975   9.452   1.159  11.538 -1.6691  1.1806  0.1025
11245SOL    HW240976   9.540   1.137  11.659  0.6473  1.3275 -1.4984
11246SOL     OW40977   8.685  11.186   6.720  0.0532 -0.8303 -0.3721
11246SOL    HW140978   8.749  11.206   6.788 -1.0221 -3.1268  1.4513
11246SOL    HW240979   8.686  11.263   6.663  3.1750 -0.0859  0.4922
11247SOL     OW40980   9.155   5.915   2.785  0.2385 -0.5341  0.0797
11247SOL    HW140981   9.232   5.870   2.751  0.5276  0.0969 -0.1073
11247SOL    HW240982   9.187   5.999   2.817 -0.6492  0.6129 -1.8346
11248SOL     OW40983   5.699  11.255   3.911  0.2320 -0.2343  0.2864
11248SOL    HW140984   5.690  11.308   3.832 -0.0225 -2.0892 -0.9866
11248SOL    HW240985   5.631  11.188   3.904  0.4023 -0.6355  1.9445
11249SOL     OW40986  12.493   9.959  12.325  0.0434  0.4333  0.0674
11249SOL    HW140987  12.433   9.885  12.320  1.6362 -0.8311 -1.0993
11249SOL    HW240988  12.452  10.027  12.272 -1.7385  0.6712  1.6489
11250SOL     OW40989   5.652   1.183   0.210 -0.0614 -0.2325 -0.1068
11250SOL    HW140990   5.724   1.218   0.264 -0.7927  0.9755  0.1239
11250SOL    HW240991   5.577   1.179   0.270 -0.9541  1.3572 -1.0719
11251SOL     OW40992  11.326  12.691   8.191  0.2302 -0.1127 -0.5248
11251SOL    HW140993  11.234  12.698   8.215  0.4384  0.6053  0.1220
11251SOL    HW240994  11.374  12.717   8.270  1.0022 -1.0860 -0.6522
11252SOL     OW40995   9.951   9.428   9.597  0.1196  0.2167  0.0147
11252SOL    HW140996  10.001   9.380   9.663 -0.7418 -1.3130 -0.3954
11252SOL    HW240997   9.865   9.385   9.597 -0.6728  1.7454 -0.4229
11253SOL     OW40998  10.349  10.258   5.151  0.4622 -0.2966 -0.0175
11253SOL    HW140999  10.403  10.201   5.097 -0.5873  0.3473 -1.8054
11253SOL    HW241000  10.304  10.315   5.089 -2.9311 -1.3188  1.3061
11254SOL     OW41001   5.551  10.951   1.516  0.0532  0.3092  0.0854
11254SOL    HW141002   5.552  10.862   1.552  0.7695  0.4599  0.4624
11254SOL    HW241003   5.542  11.008   1.592  2.5746  0.6769  0.2100
11255SOL     OW41004   8.405   9.733   6.189  0.2423  0.3628  0.0555
11255SOL    HW141005   8.492   9.762   6.216 -0.3194  1.1438  1.1010
11255SOL    HW241006   8.355   9.814   6.175 -0.7013 -0.0565  0.8171
11256SOL     OW41007   6.120  12.053  12.195 -0.3860  0.4173  0.3368
11256SOL    HW141008   6.196  12.075  12.249 -0.4072  0.8248  0.2014
11256SOL    HW241009   6.053  12.026  12.258  0.1214 -0.7255  0.4149
11257SOL     OW41010   2.502   2.705   3.493  0.6595 -0.6422  0.3675
11257SOL    HW141011   2.423   2.718   3.544 -0.5578 -1.8320 -1.1013
11257SOL    HW241012   2.558   2.780   3.514 -1.1441  0.5974  0.9268
11258SOL     OW41013  11.700   8.006   7.255 -0.2026 -0.5005  0.2832
11258SOL    HW141014  11.670   8.002   7.164  1.3746  1.1134 -0.3572
11258SOL    HW241015  11.697   7.915   7.285 -0.8827 -1.0461 -1.3224
11259SOL     OW41016   6.907   2.626   4.456 -0.1449 -0.6028  0.3132
11259SOL    HW141017   6.851   2.703   4.469  1.1616  0.5188 -0.4748
11259SOL    HW241018   6.846   2.555   4.436 -1.3447  0.3611  0.4620
11260SOL     OW41019   3.582   2.796   7.734 -0.2152  0.0585  0.1479
11260SOL    HW141020   3.662   2.750   7.709 -1.2538 -0.6906 -2.1150
11260SOL    HW241021   3.597   2.887   7.706  0.1451  0.0932  0.4578
11261SOL     OW41022   9.745   8.636  12.477 -0.1592 -0.4121  0.1746
11261SOL    HW141023   9.766   8.554  12.522  0.1014 -0.6754 -0.4242
11261SOL    HW241024   9.829   8.679  12.464 -0.1997 -0.4922 -0.3636
11262SOL     OW41025   1.510  11.566  10.248 -0.1533  0.0528  0.2006
11262SOL    HW141026   1.496  11.482  10.291  0.8414 -0.1117  0.2213
11262SOL    HW241027   1.548  11.544  10.163 -0.5626  0.4538 -0.0938
11263SOL     OW41028   3.341   2.647   7.454  0.5984  0.7296 -0.5946
11263SOL    HW141029   3.399   2.723   7.462  0.8427  0.4464  0.5782
11263SOL    HW241030   3.397   2.572   7.476 -0.2324  0.4726  0.7911
11264SOL     OW41031   0.739   3.900   3.797 -0.7340  0.0905  0.1702
11264SOL    HW141032   0.718   3.986   3.760 -0.3255  0.3115  0.4524
11264SOL    HW241033   0.794   3.918   3.873 -0.5745 -0.4241  0.1841
11265SOL     OW41034   4.824  10.747   1.156 -0.6216  0.1601 -0.3694
11265SOL    HW141035   4.733  10.757   1.126 -0.7203 -0.2425 -0.2110
11265SOL    HW241036   4.877  10.763   1.078 -0.8586 -0.4287 -0.6549
11266SOL     OW41037   3.668   5.533  10.668  0.0923  0.3298  0.1746
11266SOL    HW141038   3.620   5.579  10.737 -1.6821 -0.3660 -0.5210
11266SOL    HW241039   3.685   5.446  10.705  0.0023  0.2828  0.1087
11267SOL     OW41040   6.983   7.202  11.914 -0.6085 -0.6914  0.2453
11267SOL    HW141041   6.889   7.191  11.901 -0.8405  0.9173  0.4223
11267SOL    HW241042   6.994   7.293  11.939  0.9103 -1.0974  1.1990
11268SOL     OW41043  10.892   1.354   8.888 -0.0128 -0.0229 -0.1488
11268SOL    HW141044  10.956   1.351   8.959 -0.0753  1.5814  0.0151
11268SOL    HW241045  10.881   1.263   8.862  1.0795 -0.4989  0.9412
11269SOL     OW41046   1.091   4.264   5.055  0.1997 -0.3657  0.4560
11269SOL    HW141047   1.153   4.308   4.997  0.6845 -0.6946  0.7235
11269SOL    HW241048   1.068   4.330   5.121  1.3853 -0.6741  1.2115
11270SOL     OW41049   5.999   0.749  11.000 -0.1216 -0.0706  0.3240
11270SOL    HW141050   5.957   0.667  11.026 -0.5148 -0.1582 -0.5317
11270SOL    HW241051   6.088   0.743  11.034 -1.0094  0.4769  2.9226
11271SOL     OW41052   1.935  11.716   8.952 -0.4224  1.1357  0.3597
11271SOL    HW141053   1.951  11.788   9.013 -1.1891  0.2963  1.5938
11271SOL    HW241054   2.001  11.650   8.975 -0.2356  1.1072 -0.2325
11272SOL     OW41055   6.650   3.276   3.262  0.0463 -0.5025 -0.1013
11272SOL    HW141056   6.555   3.269   3.256  0.1727 -2.7762 -0.1731
11272SOL    HW241057   6.671   3.355   3.211 -1.7494 -0.1542 -0.3885
11273SOL     OW41058  10.852   6.032   3.514 -0.7810  0.1847 -0.2156
11273SOL    HW141059  10.823   6.124   3.510 -1.1939  0.0210 -1.4514
11273SOL    HW241060  10.914   6.024   3.441  2.0478  0.3791  2.0130
11274SOL     OW41061   7.423  11.415   8.142 -0.5732 -0.0479 -0.3358
11274SOL    HW141062   7.509  11.388   8.174 -0.3767  0.8532 -0.0566
11274SOL    HW241063   7.442  11.482   8.076 -1.0555  0.0927 -0.3363
11275SOL     OW41064   1.090   2.974   9.584  0.0417 -0.1715  0.1022
11275SOL    HW141065   1.092   2.960   9.489 -0.4426  1.3509 -0.1731
11275SOL    HW241066   1.109   3.068   9.594 -0.3936 -0.2124  1.4774
11276SOL     OW41067   0.360   1.019   9.208  0.8240  0.3339  0.0805
11276SOL    HW141068   0.269   1.044   9.189  1.0122  1.0837  0.1491
11276SOL    HW241069   0.377   1.057   9.294  0.3957 -1.9506  1.2325
11277SOL     OW41070   2.436   0.523   3.789 -0.1181  0.5810 -0.6740
11277SOL    HW141071   2.467   0.440   3.752  0.1093 -0.9658  2.6594
11277SOL    HW241072   2.511   0.582   3.782  0.9504 -0.6462  0.1212
11278SOL     OW41073   9.538   5.009   4.096 -0.3915 -0.5644  0.1926
11278SOL    HW141074   9.569   5.097   4.117  2.2610 -1.4311  0.2171
11278SOL    HW241075   9.451   5.023   4.056 -1.5183  1.7623  3.1224
11279SOL     OW41076   0.354   7.904  10.921 -0.0887 -0.4672 -0.2264
11279SOL    HW141077   0.358   7.961  10.998  3.6386 -0.7080 -0.0995
11279SOL    HW241078   0.362   7.964  10.847  0.6087 -0.5764 -0.2384
11280SOL     OW41079   0.396   9.593   0.328 -0.3127 -0.1851  0.1139
11280SOL    HW141080   0.448   9.537   0.386  0.7414 -1.7177 -2.1317
11280SOL    HW241081   0.375   9.536   0.254 -0.9641  1.8544 -1.3374
11281SOL     OW41082   8.843   3.297   9.722 -0.1826  0.2380 -0.3526
11281SOL    HW141083   8.861   3.342   9.805 -1.4840  0.9074 -0.4097
11281SOL    HW241084   8.848   3.366   9.656 -0.7099  0.0144 -0.6310
11282SOL     OW41085   8.410   9.646   8.674 -0.3279  0.0942 -0.3741
11282SOL    HW141086   8.425   9.686   8.589 -0.2612  0.2943 -0.2698
11282SOL    HW241087   8.339   9.698   8.713  0.3430  0.6569  0.1171
11283SOL     OW41088   2.468   0.327   6.189  0.7509 -0.3719  0.6358
11283SOL    HW141089   2.495   0.291   6.105  0.5630  3.4211 -1.2781
11283SOL    HW241090   2.543   0.379   6.218 -0.8027  2.2599  0.2483
11284SOL     OW41091   6.876  10.684   3.885 -0.2409 -0.0902 -0.1484
11284SOL    HW141092   6.849  10.762   3.933  1.9779  0.9238 -0.3896
11284SOL    HW241093   6.917  10.628   3.951  1.2995  0.5625 -0.4878
11285SOL     OW41094   1.783  11.284   2.245 -0.4208 -0.9376 -0.7810
11285SOL    HW141095   1.823  11.371   2.236 -0.7385 -0.7113 -0.0374
11285SOL    HW241096   1.851  11.230   2.283 -1.7593  0.2973  4.0098
11286SOL     OW41097  10.156   0.100   6.937  0.2684  0.6011  0.3327
11286SOL    HW141098  10.180   0.010   6.958 -2.5099 -0.1226  0.7926
11286SOL    HW241099  10.134   0.098   6.844 -4.4759 -0.5706  1.1932
11287SOL     OW41100  11.016   0.366   8.415  0.1412 -0.0960 -0.7918
11287SOL    HW141101  11.074   0.292   8.436  0.4360 -0.3967 -2.4973
11287SOL    HW241102  10.937   0.325   8.380  0.0916  0.3889 -1.2541
11288SOL     OW41103  11.650   3.596   7.293 -0.2436 -0.0890  0.6223
11288SOL    HW141104  11.611   3.608   7.206  0.4530 -0.6957  0.2060
11288SOL    HW241105  11.604   3.520   7.329  0.2797 -0.5755  0.2840
11289SOL     OW41106   5.340   8.914  12.688  0.1205 -0.0491  0.3690
11289SOL    HW141107   5.407   8.888  12.625 -1.3080  0.8089 -1.6562
11289SOL    HW241108   5.295   8.833  12.710 -0.8703 -0.1277 -1.6728
11290SOL     OW41109   6.554  11.105   4.750  0.0651  0.0054 -0.0218
11290SOL    HW141110   6.509  11.101   4.834  0.8287 -0.4777  0.3756
11290SOL    HW241111   6.501  11.164   4.697  0.0624  1.0564  1.1091
11291SOL     OW41112   5.729   9.456   1.950  0.0226 -0.1050  0.1838
11291SOL    HW141113   5.754   9.479   1.861 -0.2304  0.6458  0.3036
11291SOL    HW241114   5.708   9.539   1.992  2.2736 -0.1675  1.6181
11292SOL     OW41115   5.864   1.443  10.273  0.2417 -0.5046 -0.2687
11292SOL    HW141116   5.952   1.422  10.303  0.0595 -1.5268 -0.4181
11292SOL    HW241117   5.808   1.429  10.349  0.2197  0.3684 -0.1072
11293SOL     OW41118   0.098   2.094   4.900 -0.1624  0.3607 -0.4972
11293SOL    HW141119   0.109   2.099   4.805 -1.4185 -0.7741 -0.7289
11293SOL    HW241120   0.045   2.015   4.914 -1.1913  1.2864  1.0523
11294SOL     OW41121   6.197   8.896   2.938  0.4787 -0.5631 -0.3185
11294SOL    HW141122   6.291   8.904   2.923  0.5940 -2.3320 -0.7214
11294SOL    HW241123   6.157   8.924   2.856  0.6673 -0.1774 -0.2796
11295SOL     OW41124   4.999   6.809   4.317  0.0955 -0.2214  0.0255
11295SOL    HW141125   5.019   6.874   4.250 -0.1749 -0.7814 -0.6198
11295SOL    HW241126   5.083   6.769   4.338  0.4797  1.2468  1.4226
11296SOL     OW41127  10.465   5.586  11.160  0.0094 -0.2065 -0.0555
11296SOL    HW141128  10.378   5.613  11.132 -0.1556 -0.2415  0.4161
11296SOL    HW241129  10.483   5.638  11.238  1.1371  1.0806 -1.1126
11297SOL     OW41130   2.222  12.290   1.571  0.2635 -0.1180  1.1989
11297SOL    HW141131   2.263  12.263   1.489 -1.8067 -0.1631  0.1242
11297SOL    HW241132   2.193  12.209   1.611  0.0362  0.0063  1.2892
11298SOL     OW41133   2.410   3.444  11.556  0.5506  0.5605  0.4208
11298SOL    HW141134   2.422   3.539  11.566 -0.5388  0.6271  1.2521
11298SOL    HW241135   2.315   3.432  11.555  0.6803 -0.5269  0.2729
11299SOL     OW41136  11.640   7.176   4.323  0.2290  0.8368  0.2091
11299SOL    HW141137  11.654   7.119   4.247 -0.7389  2.2106 -1.0520
11299SOL    HW241138  11.728   7.196   4.355  0.6278 -0.1517 -0.2518
11300SOL     OW41139   8.876   2.228   4.070 -0.6219  0.5593  0.5923
11300SOL    HW141140   8.896   2.189   3.984 -1.9132 -0.3304  0.6652
11300SOL    HW241141   8.797   2.182   4.099 -0.0241  0.6106  2.4268
11301SOL     OW41142   5.066   5.113   5.235 -0.2614 -0.2438  0.0700
11301SOL    HW141143   5.052   5.208   5.242 -0.3083 -0.0668 -1.7461
11301SOL    HW241144   4.983   5.075   5.262 -0.3972  0.2578  0.3818
11302SOL     OW41145   4.305   6.464   6.049  0.1316 -0.5375 -0.1206
11302SOL    HW141146   4.330   6.452   5.957 -0.2325  0.0581 -0.3048
11302SOL    HW241147   4.384   6.440   6.098 -0.0987 -2.1581 -0.5111
11303SOL     OW41148  11.360   0.287   5.992 -0.3382 -0.0584  0.2594
11303SOL    HW141149  11.429   0.298   6.058  0.8404  2.3766 -1.2433
11303SOL    HW241150  11.383   0.206   5.947  0.5474 -0.1918  0.9171
11304SOL     OW41151  10.704  10.047   2.491 -0.3273  0.1016  0.1411
11304SOL    HW141152  10.710   9.969   2.547  0.5234  0.3786  0.4565
11304SOL    HW241153  10.619  10.085   2.512 -1.2799 -1.3757 -0.8837
11305SOL     OW41154   2.602  12.694   0.743  0.2959 -0.4354  0.3271
11305SOL    HW141155   2.675  12.701   0.805  0.1394 -2.7626  0.8617
11305SOL    HW241156   2.561  12.781   0.745  1.4103  0.1062  2.0793
11306SOL     OW41157   1.209   4.119  12.647  0.0173 -0.7990  0.0698
11306SOL    HW141158   1.115   4.113  12.634  0.1487 -3.3371 -0.3499
11306SOL    HW241159   1.247   4.105  12.560  0.7362 -3.2044  0.6650
11307SOL     OW41160   6.299   7.181   9.165  0.1861 -0.6677 -0.2173
11307SOL    HW141161   6.294   7.168   9.260  0.0224  0.1931 -0.1003
11307SOL    HW241162   6.220   7.140   9.131  0.0120 -0.5741  0.0681
11308SOL     OW41163   4.657   2.323   7.024  0.0447 -0.5424 -0.0873
11308SOL    HW141164   4.734   2.269   7.008 -0.3795 -0.3605 -3.5168
11308SOL    HW241165   4.690   2.398   7.074  1.7385 -1.3253  0.0325
11309SOL     OW41166   5.736  11.727   2.484 -0.7671  0.6793 -0.0066
11309SOL    HW141167   5.655  11.758   2.444 -0.8361 -0.2840 -0.6603
11309SOL    HW241168   5.733  11.632   2.471  0.1003  0.5572  0.6532
11310SOL     OW41169   1.239  10.023   0.371  0.0806  0.3898 -0.2366
11310SOL    HW141170   1.260   9.931   0.382 -0.6951  0.2037 -0.2242
11310SOL    HW241171   1.148  10.023   0.341  0.1641  1.1393 -0.5108
11311SOL     OW41172   3.656  11.307   7.111 -0.4044 -0.6978  0.7190
11311SOL    HW141173   3.719  11.235   7.116  0.2318 -0.1928  0.1094
11311SOL    HW241174   3.669  11.354   7.194  0.9730  0.1643  0.0538
11312SOL     OW41175   0.450   4.592   1.487  0.4731  0.2803 -0.1647
11312SOL    HW141176   0.403   4.539   1.551 -0.2030  0.4455 -0.5212
11312SOL    HW241177   0.442   4.542   1.405 -0.9338  1.3648 -0.7056
11313SOL     OW41178   5.039   5.254  11.968 -0.4270 -0.2620 -0.4402
11313SOL    HW141179   5.096   5.328  11.988 -0.7272  0.5190 -2.2644
11313SOL    HW241180   5.094   5.177  11.985 -0.1523  0.3402  1.5834
11314SOL     OW41181   2.016   7.372  11.791  0.2642  0.2317 -0.2307
11314SOL    HW141182   2.053   7.381  11.703  1.5978 -0.8685  0.1781
11314SOL    HW241183   2.045   7.286  11.820 -1.5146 -0.0976  0.6813
11315SOL     OW41184   4.777   3.137   9.113 -0.0803 -0.0464  0.4234
11315SOL    HW141185   4.868   3.108   9.109 -0.3612 -0.8600 -0.5798
11315SOL    HW241186   4.779   3.228   9.083  0.4124 -0.0497  0.4516
11316SOL     OW41187   8.836   5.240   2.776  0.4510 -0.0786  0.2509
11316SOL    HW141188   8.782   5.264   2.851  1.3455 -0.2496  0.9741
11316SOL    HW241189   8.918   5.209   2.815  0.3788 -1.6110 -0.7556
11317SOL     OW41190   8.385   1.983  11.082 -0.1475 -0.1833 -1.1225
11317SOL    HW141191   8.303   1.940  11.105  0.1763 -0.7230 -0.9561
11317SOL    HW241192   8.446   1.911  11.065  0.9427  0.1634  1.0431
11318SOL     OW41193  10.823   4.759   8.182  0.3981  0.2686  0.5201
11318SOL    HW141194  10.871   4.790   8.259  0.2488  2.0255 -0.0683
11318SOL    HW241195  10.889   4.755   8.113  0.1070  0.6881  0.2211
11319SOL     OW41196   6.973   9.636  10.610 -0.6779  0.6129 -0.1536
11319SOL    HW141197   7.043   9.618  10.549 -0.8233  1.8035 -0.6976
11319SOL    HW241198   6.925   9.709  10.572 -1.1511  0.9806  1.0717
11320SOL     OW41199   2.497   7.358   6.321  0.4284  0.8494 -0.0470
11320SOL    HW141200   2.414   7.395   6.294 -0.0060 -0.3981 -0.5078
11320SOL    HW241201   2.497   7.363   6.417 -0.6216 -0.0058  0.0171
11321SOL     OW41202   7.528  11.568   7.414  0.1651  1.0277 -0.1799
11321SOL    HW141203   7.535  11.582   7.508 -0.0932  0.8930 -0.1400
11321SOL    HW241204   7.608  11.606   7.378  0.4273  0.7757  0.1279
11322SOL     OW41205  10.195   3.974   8.654 -0.1469  0.2838 -0.2511
11322SOL    HW141206  10.234   3.963   8.567  0.1248 -0.7147 -0.0233
11322SOL    HW241207  10.266   3.954   8.714 -0.8570 -1.1400  0.1727
11323SOL     OW41208   1.410   5.539   6.556 -0.4208  0.2085  0.1719
11323SOL    HW141209   1.360   5.575   6.629 -0.3853  0.2210  0.1906
11323SOL    HW241210   1.479   5.488   6.598 -1.5451 -1.4032  0.1355
11324SOL     OW41211  12.187   9.001   5.855  0.8479 -0.3098  0.6921
11324SOL    HW141212  12.271   8.996   5.809 -0.5264 -0.0948 -2.0812
11324SOL    HW241213  12.171   8.912   5.886  1.5058 -0.6711  0.0366
11325SOL     OW41214   5.069   3.870   3.922 -0.2203  0.1105  0.2153
11325SOL    HW141215   5.099   3.827   4.002 -1.5278 -0.7606  0.2720
11325SOL    HW241216   5.093   3.962   3.934  2.0852 -0.4525  0.3634
11326SOL     OW41217  10.913   1.459  10.180  0.3332 -0.0247  0.5264
11326SOL    HW141218  10.885   1.464  10.088 -1.3902 -2.6200  0.8273
11326SOL    HW241219  10.991   1.515  10.183  2.3706 -2.2414 -3.2846
11327SOL     OW41220   7.743   0.945   1.487  0.1011  0.0398 -0.1768
11327SOL    HW141221   7.705   0.913   1.405 -2.4482  0.5702  0.7169
11327SOL    HW241222   7.778   1.031   1.464  1.6381 -0.7957 -1.2077
11328SOL     OW41223  10.610   5.178   0.518  0.0060 -0.5196 -0.4686
11328SOL    HW141224  10.524   5.216   0.535  1.0294  0.9969  1.8759
11328SOL    HW241225  10.671   5.253   0.524  1.5162 -1.4892 -2.2793
11329SOL     OW41226   5.821  10.779  11.215 -0.2849  0.0234  0.0936
11329SOL    HW141227   5.876  10.717  11.167 -0.6150 -1.5852  1.6684
11329SOL    HW241228   5.772  10.825  11.147  2.1103  0.7050 -1.2950
11330SOL     OW41229   0.370   3.687   0.767  0.6815  0.1648 -0.1965
11330SOL    HW141230   0.395   3.778   0.750  0.3483 -0.1580 -2.9778
11330SOL    HW241231   0.429   3.636   0.710 -0.4656 -1.1924 -0.2059
11331SOL     OW41232   4.791  12.651   1.973  0.0440  0.0785  0.0568
11331SOL    HW141233   4.801  12.667   1.880 -1.0907  3.1982  0.3685
11331SOL    HW241234   4.880  12.630   2.003  0.5975  0.0177 -1.5331
11332SOL     OW41235   2.173  12.521  10.516 -0.1300  0.1705  0.1012
11332SOL    HW141236   2.197  12.614  10.520 -1.9166  0.6141  1.9469
11332SOL    HW241237   2.087  12.520  10.475 -0.8700 -0.4749  1.5952
11333SOL     OW41238   4.678   5.057  10.490 -0.2177 -0.4828 -0.0248
11333SOL    HW141239   4.622   5.070  10.413  0.0157  0.2362 -0.0801
11333SOL    HW241240   4.728   4.978  10.469 -2.1319 -1.9537  0.5869
11334SOL     OW41241   5.102   0.570   5.011  0.1218 -0.6138  0.0780
11334SOL    HW141242   5.120   0.629   4.938  2.4944  0.6375  1.5364
11334SOL    HW241243   5.109   0.482   4.974  1.4570 -0.0177 -1.1581
11335SOL     OW41244   9.477   1.134   6.168 -0.9489 -0.2668 -0.1215
11335SOL    HW141245   9.554   1.159   6.220 -0.7487 -2.6241  0.8659
11335SOL    HW241246   9.506   1.141   6.077  0.0323  0.1037  0.2068
11336SOL     OW41247   7.158   9.132   6.927 -0.1051  0.4432 -0.2621
11336SOL    HW141248   7.094   9.170   6.988  0.0058 -1.1119  0.8954
11336SOL    HW241249   7.131   9.040   6.918  1.6949 -0.1470 -0.0662
11337SOL     OW41250   2.203   1.431   0.816  0.4039  0.1280 -0.2619
11337SOL    HW141251   2.157   1.412   0.734 -1.0009 -0.2800  0.5891
11337SOL    HW241252   2.143   1.400   0.884  1.9334 -0.3869  0.8978
11338SOL     OW41253   0.706   2.221  11.620 -0.0648 -0.3216 -0.2680
11338SOL    HW141254   0.674   2.307  11.646 -0.0575 -0.9600  2.0484
11338SOL    HW241255   0.798   2.235  11.596  0.1395  0.2268  0.7869
11339SOL     OW41256   7.534   4.550  11.062 -0.1387  0.5006  0.1153
11339SOL    HW141257   7.604   4.577  11.121 -0.3007  2.9507 -0.7310
11339SOL    HW241258   7.455   4.553  11.115  0.1003 -0.3374  0.5433
11340SOL     OW41259  10.003  10.115   5.580  0.7273 -0.3506  0.3096
11340SOL    HW141260  10.021  10.083   5.492  0.5921  0.5929 -0.0766
11340SOL    HW241261   9.987  10.209   5.568 -1.2872 -0.5609  1.0531
11341SOL     OW41262  12.329  11.171   7.097 -0.1014 -0.7018  0.7551
11341SOL    HW141263  12.273  11.100   7.129 -0.1844  0.3330  3.0824
11341SOL    HW241264  12.390  11.188   7.168 -0.6721  2.1504  0.6857
11342SOL     OW41265   8.274  12.646  11.254 -0.3442 -0.6065 -0.4153
11342SOL    HW141266   8.328  12.704  11.200 -0.6805 -0.5999 -0.7484
11342SOL    HW241267   8.274  12.563  11.206  0.6409 -1.0821  0.3697
11343SOL     OW41268   6.853   2.118   9.708 -0.5222  0.6888 -0.0935
11343SOL    HW141269   6.780   2.056   9.702  2.2894 -2.9011 -0.9661
11343SOL    HW241270   6.845   2.172   9.630 -1.1694 -0.9818 -1.2435
11344SOL     OW41271  11.098   4.930   0.793 -0.2305  0.3471  0.1654
11344SOL    HW141272  11.026   4.885   0.837 -0.7123 -0.0577 -0.9902
11344SOL    HW241273  11.059   5.009   0.757  0.1318  0.6224  0.3667
11345SOL     OW41274  10.135   6.105  11.072  0.2851 -0.1973  0.6023
11345SOL    HW141275  10.169   6.041  11.009 -0.9846 -0.3438  0.0159
11345SOL    HW241276  10.081   6.052  11.132 -0.5237  0.2643  0.2984
11346SOL     OW41277   8.403   8.071   4.265 -0.0863 -0.1124  0.3274
11346SOL    HW141278   8.362   8.069   4.352 -0.2127  0.3120  0.2806
11346SOL    HW241279   8.358   8.003   4.216  0.5917 -0.9653  0.8569
11347SOL     OW41280   4.329   2.505   1.967 -0.4668  0.6636  0.0693
11347SOL    HW141281   4.362   2.568   2.032  1.1206  1.5079 -1.4741
11347SOL    HW241282   4.387   2.429   1.976 -1.7461 -0.2148  1.2299
11348SOL     OW41283   6.515   1.810   0.204  0.0967  0.5779  0.3158
11348SOL    HW141284   6.520   1.873   0.275  1.0521 -0.2509  1.0149
11348SOL    HW241285   6.446   1.749   0.231 -0.0043  0.6455  0.2112
11349SOL     OW41286   3.409   5.484   9.140 -0.0257  0.4160  0.2814
11349SOL    HW141287   3.341   5.417   9.142  0.2888  0.1068  1.2191
11349SOL    HW241288   3.362   5.566   9.124 -0.3548 -0.0662 -1.4231
11350SOL     OW41289   7.454   9.406   7.102  0.5249  0.2330  0.0521
11350SOL    HW141290   7.449   9.495   7.066  0.3318  0.2220  0.0506
11350SOL    HW241291   7.546   9.396   7.128  0.7054  0.1737 -0.6000
11351SOL     OW41292   8.083   2.563   1.026 -0.5412 -0.0082 -0.3679
11351SOL    HW141293   8.021   2.532   1.091 -1.2163  0.5666 -0.7246
11351SOL    HW241294   8.086   2.658   1.038  0.3265 -0.0298 -0.3120
11352SOL     OW41295   3.185   3.257   9.928 -0.1619  0.4591  0.3994
11352SOL    HW141296   3.233   3.175   9.920 -1.8196 -0.4138 -1.4666
11352SOL    HW241297   3.109   3.235   9.981  0.4042  1.3447  1.6369
11353SOL     OW41298   9.319   4.879   6.179  0.3549  0.2566  0.5230
11353SOL    HW141299   9.239   4.843   6.141  0.9596  0.8438 -1.3878
11353SOL    HW241300   9.298   4.890   6.272 -0.6068 -2.8524  0.7988
11354SOL     OW41301   4.847  12.050   2.690  0.1992 -0.6255 -0.5320
11354SOL    HW141302   4.760  12.026   2.657 -0.7773  1.6074  0.1945
11354SOL    HW241303   4.898  12.068   2.611 -0.8360  0.5939 -0.9635
11355SOL     OW41304   2.636   7.861   7.889 -0.1332 -0.2807 -0.4983
11355SOL    HW141305   2.702   7.854   7.820  1.1325 -3.6764  0.8399
11355SOL    HW241306   2.684   7.892   7.966 -0.6410 -0.4892 -0.0879
11356SOL     OW41307   4.959   7.606   9.517 -0.1958  0.0770 -0.2835
11356SOL    HW141308   5.003   7.686   9.489  1.8719 -0.6494  0.7273
11356SOL    HW241309   4.939   7.620   9.609 -1.1263 -0.0353 -0.4588
11357SOL     OW41310   6.027   1.026   6.522 -0.1160  0.4654  0.2500
11357SOL    HW141311   5.961   1.024   6.592  0.7495  1.7488  1.1618
11357SOL    HW241312   6.110   1.009   6.567  0.2392 -0.9565 -0.8539
11358SOL     OW41313   2.382   1.599   2.735 -0.0438 -0.6265  0.1564
11358SOL    HW141314   2.340   1.567   2.654 -1.1230  0.4590  0.2601
11358SOL    HW241315   2.310   1.636   2.786  0.9669  0.7859  0.6008
11359SOL     OW41316   4.085   0.152   3.078 -0.1162  0.6650  0.1816
11359SOL    HW141317   3.999   0.151   3.121 -0.8566 -0.5205 -1.2398
11359SOL    HW241318   4.134   0.219   3.125 -0.9937 -0.2895  2.6461
11360SOL     OW41319  11.206   8.622   7.352 -0.0057  0.2153  0.0883
11360SOL    HW141320  11.204   8.718   7.355 -1.5174  0.1961  0.7036
11360SOL    HW241321  11.298   8.600   7.361  0.4192  1.6230 -0.4908
11361SOL     OW41322   0.918   9.789   3.396 -0.0966 -1.0799 -0.2016
11361SOL    HW141323   0.962   9.710   3.364 -0.2650 -1.6262  0.8491
11361SOL    HW241324   0.832   9.788   3.354  0.1855 -1.0303 -0.7894
11362SOL     OW41325   5.967   0.258   9.232 -0.1681 -0.0066 -0.1399
11362SOL    HW141326   5.973   0.164   9.218  0.8941 -0.6217  3.5938
11362SOL    HW241327   6.054   0.291   9.209 -0.2609 -0.0588 -0.5758
11363SOL     OW41328   1.836   9.282   4.705  0.4968  0.0013 -0.1726
11363SOL    HW141329   1.850   9.216   4.773  0.1905  0.7035  0.5899
11363SOL    HW241330   1.841   9.365   4.752  2.0815  0.5871 -1.3110
11364SOL     OW41331   3.858   1.513   3.874 -0.8703  0.0721  0.1000
11364SOL    HW141332   3.945   1.477   3.892 -1.3033 -0.7851  0.5474
11364SOL    HW241333   3.854   1.594   3.925 -0.8598 -0.6333  1.2482
11365SOL     OW41334   2.845   2.171   6.298  0.0165 -0.4209  0.1824
11365SOL    HW141335   2.908   2.239   6.322  1.9582 -1.9664 -0.3450
11365SOL    HW241336   2.760   2.207   6.327  0.9190  2.2560 -0.1891
11366SOL     OW41337  11.302   7.259   7.215 -0.1541 -0.5049 -0.0706
11366SOL    HW141338  11.382   7.297   7.180 -0.1674 -0.3806  0.0316
11366SOL    HW241339  11.325   7.168   7.236 -0.7277 -1.2466 -2.4066
11367SOL     OW41340   2.760  11.098  12.678  0.1395  0.3453 -0.0256
11367SOL    HW141341   2.803  11.053  12.606  1.2275 -0.2724  0.9925
11367SOL    HW241342   2.700  11.033  12.716  0.9433  0.0577  0.7860
11368SOL     OW41343   4.618   3.918  11.201  0.3268 -0.0296  0.0363
11368SOL    HW141344   4.568   3.956  11.129  1.2369  2.4236  0.6093
11368SOL    HW241345   4.557   3.858  11.244 -0.5204 -0.8394 -2.1570
11369SOL     OW41346   4.443   8.208  12.455 -0.3939  0.4944  0.2592
11369SOL    HW141347   4.383   8.280  12.472 -0.1499  0.5269  1.0130
11369SOL    HW241348   4.390   8.129  12.465 -0.2634  0.5103  1.2165
11370SOL     OW41349  11.237  11.951  10.145  0.3750 -0.5127 -0.0197
11370SOL    HW141350  11.150  11.957  10.105  0.1806  1.7972  0.5617
11370SOL    HW241351  11.227  11.886  10.215 -0.7061 -0.7470 -0.3736
11371SOL     OW41352  11.453   8.470   9.895 -0.1521  0.0736  0.2930
11371SOL    HW141353  11.466   8.465   9.800  1.9375 -1.3364  0.5661
11371SOL    HW241354  11.493   8.553   9.921  0.2717 -0.0479  0.0412
11372SOL     OW41355   2.673   8.531   3.426  0.4437  0.3512 -0.1228
11372SOL    HW141356   2.726   8.451   3.424  0.5679  0.4371 -0.2402
11372SOL    HW241357   2.705   8.583   3.352  1.8286  1.4642  1.1820
11373SOL     OW41358  10.685   7.209   4.689  0.3198  0.3287 -0.0244
11373SOL    HW141359  10.720   7.135   4.739 -1.6934  0.6694  2.0979
11373SOL    HW241360  10.714   7.286   4.738 -0.4441  0.7563 -0.2371
11374SOL     OW41361   9.677   9.556   1.114  0.1000  0.1649 -0.1160
11374SOL    HW141362   9.722   9.499   1.052 -0.3332  1.0762 -1.2939
11374SOL    HW241363   9.734   9.556   1.191 -1.1691 -4.0390  1.1160
11375SOL     OW41364  10.006  10.506   8.702  0.2736 -0.4700 -0.4546
11375SOL    HW141365  10.032  10.502   8.794  1.6098  0.2897 -0.7723
11375SOL    HW241366   9.972  10.595   8.691 -1.9248 -1.2271 -0.2165
11376SOL     OW41367   9.618  11.107   7.714  0.5388  0.0940 -0.2621
11376SOL    HW141368   9.538  11.160   7.716 -0.1907 -0.9269 -1.1734
11376SOL    HW241369   9.625  11.072   7.803  0.5957  1.0692  0.1309
11377SOL     OW41370   5.811   2.064  11.567  0.2106  0.0258  0.4283
11377SOL    HW141371   5.721   2.095  11.553  0.8666  1.0658 -1.8532
11377SOL    HW241372   5.838   2.105  11.649 -0.9271  0.7938  0.4478
11378SOL     OW41373   7.239  11.661  12.456  0.1000 -0.1187 -0.1652
11378SOL    HW141374   7.274  11.642  12.543  0.6908 -0.9909 -0.5770
11378SOL    HW241375   7.316  11.672  12.401 -0.2545 -0.8986 -0.8413
11379SOL     OW41376   7.225  11.999   0.126  0.2445  0.2848 -0.1797
11379SOL    HW141377   7.185  12.086   0.126 -1.3437 -0.3720 -2.1900
11379SOL    HW241378   7.284  12.000   0.051  0.3312 -0.3064 -0.1236
11380SOL     OW41379   9.705   6.121   5.802  0.1366 -0.1753  0.0686
11380SOL    HW141380   9.667   6.034   5.816  0.6016 -0.7418 -1.8706
11380SOL    HW241381   9.782   6.123   5.858  0.1502 -1.0345  0.0933
11381SOL     OW41382  10.379   2.049  10.845  0.1454  0.1494 -0.6701
11381SOL    HW141383  10.456   2.043  10.788  0.5976  1.1266 -0.1883
11381SOL    HW241384  10.387   1.975  10.904 -0.5036 -1.0829 -2.0492
11382SOL     OW41385   4.030   1.181   9.386  0.2110 -0.5774 -0.3867
11382SOL    HW141386   4.077   1.114   9.435 -0.1883 -1.6523 -1.4268
11382SOL    HW241387   4.046   1.160   9.294 -1.1073 -0.1209 -0.7505
11383SOL     OW41388  11.677   1.702   3.534  0.0604 -0.1713  0.0228
11383SOL    HW141389  11.721   1.714   3.450 -1.5028 -2.2020 -1.1789
11383SOL    HW241390  11.645   1.789   3.557 -0.7579  0.2011 -2.2684
11384SOL     OW41391   8.124  12.073   6.517 -0.3059  0.1765 -0.1519
11384SOL    HW141392   8.187  12.145   6.520 -0.4210  0.3013 -0.5499
11384SOL    HW241393   8.053  12.101   6.575 -0.9984  1.0279 -1.3574
11385SOL     OW41394  11.941   6.980   5.992  0.0319  0.1161  0.8853
11385SOL    HW141395  11.995   6.972   6.071  0.6164 -3.6796  0.2958
11385SOL    HW241396  11.995   7.031   5.931  0.2591  1.6897  2.3319
11386SOL     OW41397  10.200  10.555   9.899 -0.8395 -0.0172  0.5032
11386SOL    HW141398  10.287  10.526   9.924 -1.0019 -0.2699  0.7803
11386SOL    HW241399  10.143  10.527   9.971 -1.1445  0.1732  0.3421
11387SOL     OW41400   9.173   0.084  12.617 -0.2073  0.2591  0.6240
11387SOL    HW141401   9.264   0.098  12.591 -0.3453  3.3389  1.4395
11387SOL    HW241402   9.158   0.145  12.689 -2.0657 -2.4609  2.7652
11388SOL     OW41403   9.698   3.550   2.910 -0.7966  0.0769  0.6857
11388SOL    HW141404   9.734   3.539   2.998 -2.3712  1.0894  1.5109
11388SOL    HW241405   9.606   3.571   2.925 -1.1792 -0.0945 -1.2333
11389SOL     OW41406  11.144   8.615   0.890  0.1879 -0.9433  0.6567
11389SOL    HW141407  11.105   8.701   0.908  0.7430 -0.8212  1.2788
11389SOL    HW241408  11.220   8.610   0.948  0.5062 -1.6086  0.1904
11390SOL     OW41409   5.227  11.150  10.236 -0.4590 -0.1020 -0.0902
11390SOL    HW141410   5.214  11.142  10.141 -0.1516  0.3836 -0.1753
11390SOL    HW241411   5.301  11.093  10.255 -0.7841 -0.5235 -0.0738
11391SOL     OW41412   0.323   5.277   9.142  0.1457  0.2631  0.1539
11391SOL    HW141413   0.312   5.217   9.069 -0.6979 -0.1614  0.6177
11391SOL    HW241414   0.246   5.334   9.139  1.4646  2.1429 -0.9785
11392SOL     OW41415  12.130   7.308   6.515  0.1985 -0.2942 -0.0285
11392SOL    HW141416  12.140   7.259   6.596 -0.8952  0.5532  0.6400
11392SOL    HW241417  12.210   7.289   6.466  1.4288  0.0988  1.7377
11393SOL     OW41418   7.351   4.923   1.258  0.1000  0.0994  0.7928
11393SOL    HW141419   7.440   4.900   1.282  0.0386 -0.4359  0.5077
11393SOL    HW241420   7.360   4.970   1.175  0.0820 -0.2840  0.5744
11394SOL     OW41421   1.721   9.317   3.409 -0.0803 -0.4719 -0.0668
11394SOL    HW141422   1.648   9.283   3.357  0.8965 -3.7574  0.4478
11394SOL    HW241423   1.739   9.403   3.372 -2.4162 -0.7168 -2.0305
11395SOL     OW41424   5.988   4.922   7.453 -0.3651  0.5560 -0.4961
11395SOL    HW141425   6.008   4.838   7.411  1.1395  1.4354 -1.6659
11395SOL    HW241426   5.896   4.938   7.432 -0.0041  0.3416 -2.4256
11396SOL     OW41427  10.782   5.387  11.305 -0.7216  0.1780 -0.1402
11396SOL    HW141428  10.746   5.299  11.318 -0.0361  0.1281  1.6377
11396SOL    HW241429  10.835   5.403  11.383  1.7827  0.8875 -1.8766
11397SOL     OW41430   3.210  10.151   2.334 -0.3394 -0.3418 -0.0024
11397SOL    HW141431   3.144  10.200   2.384  0.2768  0.9305 -0.3827
11397SOL    HW241432   3.273  10.218   2.307  1.2024 -1.5369  0.5026
11398SOL     OW41433  11.025   3.130   9.731  0.3624 -0.5301  0.0053
11398SOL    HW141434  11.003   3.071   9.658  1.8777  0.7888 -1.6137
11398SOL    HW241435  10.976   3.210   9.713  1.6639  0.2380 -0.2771
11399SOL     OW41436   4.614   3.939   2.379  0.5597 -0.7258 -0.8742
11399SOL    HW141437   4.531   3.908   2.342  1.1418 -1.4423 -1.5984
11399SOL    HW241438   4.599   4.033   2.394 -0.7277 -1.0359  0.0033
11400SOL     OW41439  10.821   3.693   2.633  0.2937 -0.1827  0.0247
11400SOL    HW141440  10.896   3.674   2.577 -0.1229  0.1389 -0.6568
11400SOL    HW241441  10.851   3.764   2.690  0.2872  0.4393 -0.7306
11401SOL     OW41442   3.276  11.255   2.044 -0.4742 -1.0119  0.0921
11401SOL    HW141443   3.260  11.271   1.951 -0.3396 -1.0138  0.0687
11401SOL    HW241444   3.321  11.170   2.047  0.2194 -0.6528  0.1012
11402SOL     OW41445   8.661   1.731  11.715 -0.4118 -0.1023 -0.1994
11402SOL    HW141446   8.702   1.785  11.647  1.0160 -0.1989  0.5480
11402SOL    HW241447   8.649   1.645  11.673  0.9107 -0.3022 -0.1994
11403SOL     OW41448   8.987   9.934  10.172  0.0050 -0.0854 -0.6634
11403SOL    HW141449   8.932  10.007  10.146  0.4507 -0.1783 -1.9421
11403SOL    HW241450   8.935   9.856  10.153 -0.2589 -0.1354  0.1952
11404SOL     OW41451  11.754   9.138   6.202  0.2578  0.2078 -0.0704
11404SOL    HW141452  11.817   9.097   6.262 -1.0107 -0.2797  0.9609
11404SOL    HW241453  11.782   9.229   6.197  2.5945 -0.5055 -1.7002
11405SOL     OW41454  11.718   4.560  10.661 -0.0085  0.3526  0.2559
11405SOL    HW141455  11.747   4.574  10.571  0.4867  1.7776  0.6152
11405SOL    HW241456  11.693   4.467  10.664 -0.5209  0.4025 -1.4747
11406SOL     OW41457   6.911   7.798  10.919 -0.3172 -0.5481 -0.1432
11406SOL    HW141458   6.878   7.816  11.007  0.6801 -1.2739  0.3997
11406SOL    HW241459   7.000   7.833  10.919 -0.8866  1.0309 -1.4548
11407SOL     OW41460  11.455   3.464   4.890 -0.0832 -0.8326 -0.0110
11407SOL    HW141461  11.435   3.375   4.917  0.2118 -1.7106 -2.4492
11407SOL    HW241462  11.487   3.456   4.800  1.8220  1.5397  0.3419
11408SOL     OW41463   2.053   9.085   1.637  0.2479  0.0258 -0.0565
11408SOL    HW141464   1.985   9.060   1.575 -1.5117  0.3909  1.6056
11408SOL    HW241465   2.135   9.053   1.599 -1.0973 -2.3148 -1.1690
11409SOL     OW41466   9.307   9.222   8.580  0.2989 -0.1159 -0.7394
11409SOL    HW141467   9.218   9.228   8.616  0.1374 -0.1713 -1.1239
11409SOL    HW241468   9.350   9.302   8.608 -0.1054  0.2570 -1.1826
11410SOL     OW41469   2.266   4.276  10.025  0.1339 -0.1798 -0.3617
11410SOL    HW141470   2.309   4.327  10.094 -0.6296 -2.3493  1.8726
11410SOL    HW241471   2.173   4.278  10.047 -0.1816 -0.5430 -1.5915
11411SOL     OW41472   1.198  12.616   1.110 -0.1840  0.2748 -0.1021
11411SOL    HW141473   1.185  12.698   1.156 -3.9827 -0.2637  0.0492
11411SOL    HW241474   1.210  12.641   1.018 -1.7220  1.0267 -0.1200
11412SOL     OW41475   8.812   4.835   8.575 -0.1263 -0.5592 -0.1735
11412SOL    HW141476   8.844   4.858   8.488  0.2983 -3.9558 -1.0538
11412SOL    HW241477   8.731   4.886   8.585  1.2140  1.9510 -1.3409
11413SOL     OW41478  10.414  12.288  11.958  0.1425  0.3000 -0.4053
11413SOL    HW141479  10.482  12.330  12.011  1.6420 -0.8685 -1.3116
11413SOL    HW241480  10.395  12.352  11.889 -0.0675  0.8416  0.1445
11414SOL     OW41481  11.611   1.197   5.597 -0.0932  0.1065 -0.1927
11414SOL    HW141482  11.602   1.288   5.625 -2.8395  0.0392 -0.6192
11414SOL    HW241483  11.648   1.152   5.674  2.7173  1.7423 -0.4539
11415SOL     OW41484   8.148  10.598   6.034  0.5816  0.1714 -0.1787
11415SOL    HW141485   8.223  10.558   5.991  0.5902 -0.0300  0.0209
11415SOL    HW241486   8.078  10.596   5.969  0.2554 -1.1771  0.1888
11416SOL     OW41487  12.532  10.765   5.017 -0.1551 -0.2183 -0.3772
11416SOL    HW141488  12.621  10.788   4.990 -0.3078  2.4156  1.0903
11416SOL    HW241489  12.476  10.800   4.948 -0.1352 -2.0806 -1.4221
11417SOL     OW41490   4.136   4.187   5.558 -0.5536 -0.0846  0.3333
11417SOL    HW141491   4.162   4.179   5.650 -0.9470  0.8556  0.5436
11417SOL    HW241492   4.213   4.225   5.515 -1.0888  1.5111  0.7121
11418SOL     OW41493   0.860   2.086   5.031  0.3244  0.1682  0.3969
11418SOL    HW141494   0.937   2.118   4.985 -0.5288 -0.4955 -1.6011
11418SOL    HW241495   0.878   1.993   5.048 -0.0413 -0.0005 -0.1157
11419SOL     OW41496   9.120   7.728   4.847  0.0972 -0.0612 -0.8363
11419SOL    HW141497   9.055   7.791   4.815  1.4349  0.3744 -2.9457
11419SOL    HW241498   9.176   7.779   4.905  1.0567  0.7492 -2.3809
11420SOL     OW41499   7.746  12.330   8.395  0.4624  0.2398  0.4740
11420SOL    HW141500   7.804  12.282   8.336  1.2658  0.9561  0.6727
11420SOL    HW241501   7.804  12.379   8.452 -0.3368  1.7067  0.0785
11421SOL     OW41502   6.498   4.838  11.988 -0.1245 -0.3531  0.6436
11421SOL    HW141503   6.505   4.880  11.903 -2.3560  0.4395  0.7986
11421SOL    HW241504   6.572   4.872  12.038 -1.9448  3.8363  0.8960
11422SOL     OW41505   5.574   8.501   2.400 -0.6089  0.1155 -0.1681
11422SOL    HW141506   5.648   8.475   2.345 -1.8897 -2.8263 -0.7178
11422SOL    HW241507   5.560   8.426   2.458 -3.4829  0.2907 -0.4796
11423SOL     OW41508   6.016   7.150   9.055 -0.0517 -0.0100 -0.7135
11423SOL    HW141509   5.957   7.215   9.094 -0.3447  0.7683 -2.3413
11423SOL    HW241510   5.994   7.151   8.962  1.9499 -0.3344 -1.2425
11424SOL     OW41511   4.753  11.926   3.422 -0.0933 -0.1357  0.0412
11424SOL    HW141512   4.752  11.984   3.498  0.1088  1.0361 -0.8366
11424SOL    HW241513   4.749  11.838   3.460  0.7978  0.3900  1.4318
11425SOL     OW41514   9.973  12.478   2.324 -0.3970 -0.5221  0.6146
11425SOL    HW141515  10.001  12.532   2.398 -0.0470 -1.0528  0.8810
11425SOL    HW241516  10.053  12.433   2.296  0.0266  1.4388 -1.6194
11426SOL     OW41517  11.874   9.201   0.518 -0.2820  0.4818  0.1908
11426SOL    HW141518  11.926   9.122   0.502 -1.5896 -0.5024  0.6223
11426SOL    HW241519  11.890   9.256   0.442 -0.1422 -0.6405 -0.6195
11427SOL     OW41520  12.246  10.490   7.392  0.0485 -0.2647 -0.1530
11427SOL    HW141521  12.212  10.420   7.448 -0.0891  0.5409  0.7992
11427SOL    HW241522  12.310  10.446   7.336  0.3664 -1.0726  0.7905
11428SOL     OW41523   9.501   6.431   9.369  0.0823 -0.1240  0.0500
11428SOL    HW141524   9.410   6.448   9.390 -0.2834 -1.1289 -0.6505
11428SOL    HW241525   9.543   6.518   9.370 -0.9716  0.3945 -0.0606
11429SOL     OW41526  11.987   2.105  11.154  0.1912 -0.4761 -0.0228
11429SOL    HW141527  11.965   2.165  11.083 -0.1084 -1.8209 -1.1208
11429SOL    HW241528  12.073   2.070  11.132 -0.4206 -1.8251 -0.4259
11430SOL     OW41529   5.104  10.222   5.898 -1.0137 -0.4826 -0.0053
11430SOL    HW141530   5.092  10.314   5.921  0.0535 -0.3176 -0.0547
11430SOL    HW241531   5.035  10.176   5.946 -0.8036  0.2136  1.0039
11431SOL     OW41532   1.267  11.165   8.417  0.1276 -0.2434 -0.6094
11431SOL    HW141533   1.245  11.133   8.505  0.3819 -2.5250 -1.2931
11431SOL    HW241534   1.262  11.087   8.362  2.6060  0.5630 -2.1425
11432SOL     OW41535   4.513   4.544   9.834  0.2761 -0.3620  0.3428
11432SOL    HW141536   4.495   4.637   9.847  0.4050 -0.4666  1.2742
11432SOL    HW241537   4.480   4.526   9.746  0.9030  0.7295 -0.1379
11433SOL     OW41538   7.371   3.678   0.816 -0.0075 -0.0685  0.1743
11433SOL    HW141539   7.304   3.635   0.764 -0.9317  0.3032  1.0146
11433SOL    HW241540   7.401   3.610   0.877  0.3969 -0.2370 -0.2070
11434SOL     OW41541   8.239  12.705   8.545  0.3892 -0.5161 -0.0166
11434SOL    HW141542   8.159  12.735   8.588  1.4356  0.8414  1.1315
11434SOL    HW241543   8.238  12.610   8.554 -2.1453 -0.7858 -2.0497
11435SOL     OW41544   9.730   9.888   8.245  0.0855 -0.2071 -0.1896
11435SOL    HW141545   9.713   9.907   8.153 -0.1757 -0.5579 -0.2159
11435SOL    HW241546   9.825   9.897   8.254  0.0541  0.3607 -0.3670
11436SOL     OW41547   5.642   4.983   4.547  0.2619 -0.1317 -0.0511
11436SOL    HW141548   5.715   5.019   4.496  1.8255 -0.4809  1.8244
11436SOL    HW241549   5.609   5.058   4.597 -0.0500 -0.1777 -0.1860
11437SOL     OW41550   1.032   1.326   7.970  0.3332 -0.5962 -0.8838
11437SOL    HW141551   0.981   1.301   7.893  1.3856 -0.0318 -1.7912
11437SOL    HW241552   1.122   1.305   7.946  1.0255  2.1265 -0.9040
11438SOL     OW41553   7.188   3.522   8.369  0.0597 -0.2250 -0.2723
11438SOL    HW141554   7.228   3.444   8.408 -1.1089 -0.2732  0.8904
11438SOL    HW241555   7.227   3.528   8.282  0.9104 -1.5360 -0.0065
11439SOL     OW41556   5.115   1.245  10.455  0.7205  0.2418 -0.1211
11439SOL    HW141557   5.093   1.338  10.450 -1.0394 -0.0157  1.5616
11439SOL    HW241558   5.030   1.201  10.458  1.5242 -1.4350 -0.8250
11440SOL     OW41559  11.958   2.807   4.251 -0.6134  0.1476  0.0387
11440SOL    HW141560  11.943   2.714   4.233 -0.2529 -0.3093  1.8228
11440SOL    HW241561  11.908   2.823   4.331  1.2991  0.8266  1.1618
11441SOL     OW41562   5.478   1.887  12.459  0.3343 -0.4420 -0.3067
11441SOL    HW141563   5.474   1.793  12.440 -1.4881 -0.3421 -0.6362
11441SOL    HW241564   5.553   1.919  12.410  1.0599 -1.7461 -0.0769
11442SOL     OW41565   4.022   6.014   4.906 -0.0273  0.7150 -0.1117
11442SOL    HW141566   3.939   6.048   4.873 -0.3534  0.5231  0.4892
11442SOL    HW241567   4.016   6.023   5.001  1.3932  2.3838 -0.1419
11443SOL     OW41568   9.818  12.671  11.515 -0.5137  0.8665 -0.5410
11443SOL    HW141569   9.889  12.658  11.578 -0.6863  1.4802 -0.2104
11443SOL    HW241570   9.738  12.658  11.567 -0.6553 -0.7831 -1.1197
11444SOL     OW41571  10.071   4.156   3.690  0.2697 -0.1323 -0.0715
11444SOL    HW141572  10.019   4.084   3.654 -0.0392  0.0731 -0.0367
11444SOL    HW241573  10.016   4.234   3.679  0.0776 -0.0937  1.0287
11445SOL     OW41574   5.708   0.509  11.655 -0.0700 -0.1295 -0.2710
11445SOL    HW141575   5.739   0.455  11.582 -0.7466 -1.4372  0.3749
11445SOL    HW241576   5.722   0.455  11.733 -1.2396  0.4238  0.3528
11446SOL     OW41577   9.670   1.262   4.964  0.7573 -0.5134 -0.3273
11446SOL    HW141578   9.598   1.211   4.927  0.7104 -0.0393 -0.9024
11446SOL    HW241579   9.731   1.276   4.891  0.6657  0.4352 -0.2413
11447SOL     OW41580   8.343   9.379   2.861 -0.2748  0.5256  0.5556
11447SOL    HW141581   8.356   9.454   2.920 -1.4431  0.1959  1.2727
11447SOL    HW241582   8.308   9.310   2.918 -1.7659  0.3115 -0.5772
11448SOL     OW41583   3.538   5.430   6.333 -0.6102  0.5511  0.8158
11448SOL    HW141584   3.481   5.457   6.261  0.4309  0.0024 -0.2511
11448SOL    HW241585   3.608   5.496   6.334 -0.6191  0.5557  1.3279
11449SOL     OW41586  10.562  11.462  10.607  0.1957  0.2054 -0.3616
11449SOL    HW141587  10.624  11.531  10.630  0.8035  0.5869 -2.8050
11449SOL    HW241588  10.477  11.505  10.603  0.3004  0.4274 -0.1828
11450SOL     OW41589  11.678  10.662  10.377 -0.1911  0.0580  0.0073
11450SOL    HW141590  11.588  10.680  10.402 -0.7277 -0.0334 -1.7529
11450SOL    HW241591  11.689  10.568  10.394 -0.1401  0.2294  0.9976
11451SOL     OW41592   1.029   4.744   7.030 -0.1611  0.0148  0.5949
11451SOL    HW141593   1.022   4.831   6.990 -0.4783 -0.4050 -0.2978
11451SOL    HW241594   0.960   4.693   6.988  0.2480 -0.7676  0.8503
11452SOL     OW41595   2.366   1.508   6.492  0.3251 -0.7489  0.1028
11452SOL    HW141596   2.347   1.600   6.474  1.0132 -0.1372  2.2067
11452SOL    HW241597   2.320   1.460   6.423  0.6391  1.1838 -1.5548
11453SOL     OW41598  10.062  12.056  10.084 -0.3942 -0.6507 -0.3008
11453SOL    HW141599  10.007  12.036  10.008 -0.2375  1.7423 -1.1399
11453SOL    HW241600  10.150  12.071  10.047  0.1288 -1.3629  0.6151
11454SOL     OW41601   4.551   8.699   1.572  0.3673  0.1881  0.0437
11454SOL    HW141602   4.481   8.675   1.634 -0.3895 -0.2266 -0.9445
11454SOL    HW241603   4.523   8.783   1.536 -0.7463 -0.9233 -1.8861
11455SOL     OW41604   6.194   4.427  11.775  0.5491 -0.3268  0.1318
11455SOL    HW141605   6.133   4.488  11.734  1.3184 -0.1510 -0.7819
11455SOL    HW241606   6.253   4.482  11.827  0.3603 -0.4259  0.4500
11456SOL     OW41607   7.203  12.136   5.988 -0.2465  0.0090 -0.4342
11456SOL    HW141608   7.290  12.167   5.964  0.2489 -1.5132 -0.7070
11456SOL    HW241609   7.163  12.109   5.905 -0.4079 -0.6682 -0.1436
11457SOL     OW41610   2.899   4.522   5.247 -0.3477  0.1687 -0.2638
11457SOL    HW141611   2.986   4.561   5.238 -0.3849  0.0649 -1.1362
11457SOL    HW241612   2.912   4.451   5.310  0.0714  0.5190  0.0528
11458SOL     OW41613   3.065  11.178   5.536 -0.5662  0.1644  0.2418
11458SOL    HW141614   3.047  11.173   5.442  1.4748  1.2943 -0.2703
11458SOL    HW241615   3.093  11.089   5.560 -0.7446 -0.0362 -0.2890
11459SOL     OW41616   4.502   7.424   4.800  0.4848 -0.8093  0.4970
11459SOL    HW141617   4.414   7.402   4.829  0.3410 -0.9504 -0.0377
11459SOL    HW241618   4.494   7.438   4.706  0.8586  0.0819  0.5908
11460SOL     OW41619  12.407   6.283   5.251  0.2492 -0.5995  0.0643
11460SOL    HW141620  12.500   6.284   5.275  0.2185 -0.3949  0.1780
11460SOL    HW241621  12.407   6.259   5.158  0.3471 -1.8584  0.3646
11461SOL     OW41622   2.241   7.101   2.278  0.1278 -0.3270  0.1066
11461SOL    HW141623   2.315   7.137   2.229 -0.0237 -0.5650 -0.3025
11461SOL    HW241624   2.208   7.030   2.223 -0.7059  0.0838  0.0507
11462SOL     OW41625   7.754   5.837   6.947  0.1283  0.3152  0.5961
11462SOL    HW141626   7.727   5.811   7.035  0.6182 -1.0148  0.3731
11462SOL    HW241627   7.692   5.792   6.889  2.6269 -2.8403  0.0716
11463SOL     OW41628  10.914   1.013   4.475 -0.0158 -0.0210  0.1797
11463SOL    HW141629  10.915   0.988   4.567 -2.4482 -0.6142  0.1141
11463SOL    HW241630  10.828   0.987   4.444  0.5101  0.7350 -2.1298
11464SOL     OW41631  12.010   7.399   1.032  0.1377  0.5022  0.2046
11464SOL    HW141632  11.996   7.439   1.118  1.3114 -0.7211  1.0056
11464SOL    HW241633  11.929   7.416   0.984 -1.1858 -0.1546  2.1084
11465SOL     OW41634  12.530   8.302   8.392  0.4899  0.7686 -0.0742
11465SOL    HW141635  12.435   8.304   8.389  0.2951 -2.5717 -0.6172
11465SOL    HW241636  12.555   8.384   8.435 -2.8180  0.1309  3.6363
11466SOL     OW41637   9.877   2.678   3.754  0.5720  0.5411  0.3773
11466SOL    HW141638   9.801   2.628   3.722  1.0203  0.1338 -0.0748
11466SOL    HW241639   9.851   2.769   3.742 -0.4061  0.4505  1.5648
11467SOL     OW41640   7.410   2.634   8.654 -0.5246  0.3817 -0.7495
11467SOL    HW141641   7.463   2.667   8.727 -0.0255 -2.3341  0.2648
11467SOL    HW241642   7.436   2.687   8.579  3.2660 -0.3973 -0.1912
11468SOL     OW41643   4.274   6.604   6.939  0.3110  0.5266 -0.5410
11468SOL    HW141644   4.290   6.699   6.943  1.7448  0.2851  0.0285
11468SOL    HW241645   4.281   6.575   7.030  1.3269 -0.3347 -0.8778
11469SOL     OW41646   3.291  11.379   3.846  0.8761 -0.7409  0.0250
11469SOL    HW141647   3.303  11.285   3.830 -1.6160 -1.2897  0.7748
11469SOL    HW241648   3.204  11.398   3.810  0.4322  0.7707  1.7539
11470SOL     OW41649   3.406  12.362   7.776 -0.4053 -0.2118  0.3254
11470SOL    HW141650   3.396  12.445   7.729  2.1206  0.4084  0.7598
11470SOL    HW241651   3.356  12.299   7.724  1.1461  0.7139 -2.4872
11471SOL     OW41652   9.873  10.944  12.104  0.1363  0.3824 -0.0950
11471SOL    HW141653   9.917  10.916  12.184  1.2015 -0.6095 -0.9991
11471SOL    HW241654   9.783  10.914  12.114  0.1291  0.7226  0.9446
11472SOL     OW41655   6.219   4.708   2.411 -0.1181 -0.5600  0.4935
11472SOL    HW141656   6.127   4.723   2.389  0.0044 -1.3051 -0.6255
11472SOL    HW241657   6.237   4.771   2.480 -1.3440 -0.0831  0.4180
11473SOL     OW41658  11.333  12.250  12.260 -0.1419  0.2861 -0.0137
11473SOL    HW141659  11.368  12.201  12.186  0.1733  1.1952 -0.4834
11473SOL    HW241660  11.246  12.278  12.231 -0.3959 -0.1323  0.3242
11474SOL     OW41661   5.531   1.807  11.526  0.4580 -0.3385  0.5127
11474SOL    HW141662   5.496   1.839  11.609  0.3014 -0.5456  0.5304
11474SOL    HW241663   5.533   1.711  11.537  1.3867 -0.3095  0.6497
11475SOL     OW41664   6.960  11.286   8.563  0.4109  0.0630  0.1401
11475SOL    HW141665   6.908  11.206   8.551 -0.3714  0.6804 -0.7300
11475SOL    HW241666   6.896  11.352   8.587  0.6638  1.0074 -1.6387
11476SOL     OW41667   8.900   5.591   6.447  0.0506 -0.4801  0.2910
11476SOL    HW141668   8.828   5.650   6.424  0.0817 -1.0604 -1.3587
11476SOL    HW241669   8.887   5.514   6.393  0.3675 -1.7765  1.9660
11477SOL     OW41670   5.049  12.539   1.719 -0.2251  0.8038  0.2557
11477SOL    HW141671   4.985  12.491   1.667  0.5993 -0.2013  0.1205
11477SOL    HW241672   5.021  12.630   1.714 -1.2929  0.4647 -0.2891
11478SOL     OW41673   6.178   1.869   5.997 -0.0188 -0.5822 -0.1582
11478SOL    HW141674   6.190   1.960   6.022 -0.6787 -0.6993  0.6267
11478SOL    HW241675   6.191   1.868   5.902 -1.9218  0.6758 -0.4724
11479SOL     OW41676   8.588  10.145   2.329  0.2301 -0.4902  0.1995
11479SOL    HW141677   8.562  10.234   2.354  0.9114 -0.2319  0.0160
11479SOL    HW241678   8.666  10.157   2.275  1.0026 -1.2584  1.1052
11480SOL     OW41679   9.045  10.559   3.498  0.0507 -0.1324  0.3507
11480SOL    HW141680   9.039  10.605   3.414 -1.5356  1.5402  1.3162
11480SOL    HW241681   9.139  10.541   3.508  0.6154  1.9326 -0.6158
11481SOL     OW41682   9.151   8.725   9.957  0.5004 -0.1802  0.3840
11481SOL    HW141683   9.138   8.792  10.024  0.9679 -0.3248  0.6239
11481SOL    HW241684   9.242   8.698   9.967  0.4878 -0.4243 -0.1083
11482SOL     OW41685   9.228   8.831   4.793  0.1895 -0.1650  0.0246
11482SOL    HW141686   9.279   8.768   4.844 -0.4115 -0.0552  0.7787
11482SOL    HW241687   9.274   8.914   4.803 -0.0382 -0.0994  0.5756
11483SOL     OW41688   7.203   9.303   8.144  0.6053 -0.5123  0.1810
11483SOL    HW141689   7.252   9.373   8.099  1.1050 -0.6418  0.5157
11483SOL    HW241690   7.114   9.337   8.151  0.4559 -0.5953 -1.1378
11484SOL     OW41691  11.584   0.170  10.328  0.2524 -0.6878  0.6225
11484SOL    HW141692  11.667   0.192  10.286 -0.0594 -0.1099  0.3063
11484SOL    HW241693  11.609   0.118  10.405  0.8904 -0.7061  0.4045
11485SOL     OW41694  11.151  11.812   2.320 -0.1964  0.4804 -0.5104
11485SOL    HW141695  11.057  11.807   2.305  0.1671 -0.3374 -3.0081
11485SOL    HW241696  11.164  11.891   2.371 -2.1421  1.2896 -1.1946
11486SOL     OW41697   7.076   6.674  11.971 -0.3940  0.4003 -0.1346
11486SOL    HW141698   7.017   6.636  12.036  0.0269 -1.0812 -0.5757
11486SOL    HW241699   7.081   6.767  11.994 -2.6562  0.5289  0.0885
11487SOL     OW41700   7.721   4.608   4.803 -0.1624  0.8426  0.3406
11487SOL    HW141701   7.765   4.589   4.720 -0.8352 -1.2994  0.4205
11487SOL    HW241702   7.713   4.523   4.846 -2.0156  1.5510  1.5008
11488SOL     OW41703   6.297   8.125  11.237 -0.1258 -0.3222 -0.1936
11488SOL    HW141704   6.223   8.091  11.187 -0.0683 -1.2389  0.3103
11488SOL    HW241705   6.374   8.098  11.186 -0.1173  0.4224 -0.5937
11489SOL     OW41706   6.169   7.355   4.240  0.0778 -0.2804  0.5629
11489SOL    HW141707   6.214   7.375   4.322  0.8563  0.7148 -0.0765
11489SOL    HW241708   6.222   7.286   4.200 -0.7575 -1.3487  1.2475
11490SOL     OW41709   6.075   2.746  11.533  0.3650 -0.6730 -0.2637
11490SOL    HW141710   6.127   2.815  11.573  1.9852 -1.9285 -0.0758
11490SOL    HW241711   6.038   2.786  11.454 -0.7793  1.0869  1.0942
11491SOL     OW41712   5.660   1.760   9.858  0.2876 -0.2013 -0.2074
11491SOL    HW141713   5.670   1.678   9.906  1.6360  0.3945  0.5974
11491SOL    HW241714   5.706   1.825   9.912 -0.6912  1.0735 -0.8520
11492SOL     OW41715   8.779  12.042  11.145 -0.1992 -0.2938 -0.0845
11492SOL    HW141716   8.709  11.995  11.100 -1.4696  1.7480 -0.3786
11492SOL    HW241717   8.734  12.092  11.214  0.6009  2.5888 -1.4948
11493SOL     OW41718   9.390   7.722   3.042  0.6580 -0.1148  0.1409
11493SOL    HW141719   9.295   7.727   3.027  0.5973 -0.6543  0.3301
11493SOL    HW241720   9.429   7.756   2.962  0.2997  0.9701  0.4105
11494SOL     OW41721  10.888   3.872   1.346  0.0849  0.0171 -0.1231
11494SOL    HW141722  10.895   3.854   1.440  0.7374 -0.7482 -0.2982
11494SOL    HW241723  10.812   3.822   1.318 -0.9894  1.3892  0.2351
11495SOL     OW41724   6.152   6.840   6.789 -0.8640  0.0304  0.7274
11495SOL    HW141725   6.058   6.825   6.790 -0.5549 -2.6434 -0.3474
11495SOL    HW241726   6.190   6.755   6.814  1.2600  0.4769 -0.6900
11496SOL     OW41727  12.011   1.187  10.478  0.1904 -0.3684 -0.2243
11496SOL    HW141728  12.088   1.150  10.436  0.1921 -1.0843  0.3782
11496SOL    HW241729  12.046   1.239  10.551  0.1423  0.1282 -0.5467
11497SOL     OW41730   4.538   8.323   5.649 -0.1438  0.5604 -0.4895
11497SOL    HW141731   4.594   8.342   5.724 -2.1972  1.3528  0.9405
11497SOL    HW241732   4.575   8.373   5.577  1.6510  0.0888  0.0651
11498SOL     OW41733   2.585   4.087   0.714  0.0784  0.1266 -0.2238
11498SOL    HW141734   2.583   3.998   0.749  1.3464  0.0716 -0.2495
11498SOL    HW241735   2.585   4.143   0.792  1.3070  0.0445 -0.1558
11499SOL     OW41736  12.329   3.753   7.260  0.2511 -0.0387  0.0325
11499SOL    HW141737  12.249   3.775   7.213 -0.1732 -0.1064  0.7103
11499SOL    HW241738  12.346   3.662   7.238  0.6146  0.2080 -0.7728
11500SOL     OW41739   8.292   1.673   3.893  0.5508  0.4387  0.3358
11500SOL    HW141740   8.382   1.678   3.923  0.6551 -0.5343  0.2168
11500SOL    HW241741   8.239   1.705   3.967  0.9846  1.1593  0.3476
11501SOL     OW41742   3.601   7.923   9.923  0.1563  0.2914 -0.0291
11501SOL    HW141743   3.551   7.855   9.879 -0.8493  0.8649  0.1977
11501SOL    HW241744   3.542   7.957   9.990  1.4520 -0.1952  1.4323
11502SOL     OW41745  11.436  10.016   2.468 -0.4809 -0.4443  0.1317
11502SOL    HW141746  11.426  10.111   2.464 -2.1483 -0.5777  0.6070
11502SOL    HW241747  11.512  10.002   2.525  0.9790  0.6104 -1.4565
11503SOL     OW41748  10.433   4.290  10.947  0.1135 -0.0857 -0.0306
11503SOL    HW141749  10.478   4.206  10.952  0.6917  0.2544  0.7662
11503SOL    HW241750  10.473   4.335  10.873  1.9924  0.7004  1.3921
11504SOL     OW41751   9.711  12.435   8.927  0.0568  0.1651  0.0324
11504SOL    HW141752   9.630  12.383   8.926  0.0727  0.1436 -0.3106
11504SOL    HW241753   9.778  12.375   8.959 -0.0080  0.0968  0.0396
11505SOL     OW41754  11.945   8.173   7.290 -0.6857  0.4735 -0.0028
11505SOL    HW141755  11.883   8.245   7.304 -0.7152  0.5700 -0.6123
11505SOL    HW241756  11.889   8.095   7.283 -0.6461  0.3627  0.7742
11506SOL     OW41757   8.757   5.860   9.488 -0.0292  0.0007  0.2701
11506SOL    HW141758   8.759   5.899   9.400  1.4464  0.2004  0.3539
11506SOL    HW241759   8.714   5.775   9.476 -3.8849  1.7564  0.1804
11507SOL     OW41760   2.918   5.261   2.063  0.5482 -0.2799 -0.1849
11507SOL    HW141761   2.921   5.354   2.039 -1.0846 -0.5000 -1.4180
11507SOL    HW241762   2.900   5.216   1.981  2.1270 -1.8074  0.2442
11508SOL     OW41763   7.279   0.273  11.032  0.2087  0.4065 -0.4165
11508SOL    HW141764   7.281   0.179  11.050 -0.7016  0.3660 -0.4471
11508SOL    HW241765   7.259   0.313  11.117  0.2621  0.5441 -0.4681
11509SOL     OW41766   0.252   8.543   5.707  0.2877  0.2574  0.4111
11509SOL    HW141767   0.303   8.475   5.664 -0.9704 -0.9476  0.7573
11509SOL    HW241768   0.305   8.622   5.697  2.0604 -0.8587  0.4835
11510SOL     OW41769  12.005  10.770   1.255  0.1457  0.0879 -0.2408
11510SOL    HW141770  12.063  10.793   1.182  0.4922 -1.7144 -0.5696
11510SOL    HW241771  11.961  10.852   1.276  0.1416  0.7103 -2.3741
11511SOL     OW41772   6.845  11.072   9.800  0.0659  0.0602  0.3074
11511SOL    HW141773   6.902  11.051   9.875 -0.2554 -1.8633  0.0416
11511SOL    HW241774   6.902  11.121   9.741  0.7526  0.2763  1.1132
11512SOL     OW41775   7.280   9.559   1.407  0.0364  0.1681  0.2881
11512SOL    HW141776   7.258   9.481   1.458 -1.8108 -0.9019 -1.9284
11512SOL    HW241777   7.332   9.526   1.334 -0.3944  1.0563 -0.4436
11513SOL     OW41778  10.754  11.778   6.310 -0.2053  0.3297 -0.2878
11513SOL    HW141779  10.695  11.703   6.321  2.1045 -1.9183 -1.9651
11513SOL    HW241780  10.756  11.820   6.396 -1.8878 -1.2864  0.6235
11514SOL     OW41781   7.743   5.970   2.768 -0.4455 -0.0518  0.2237
11514SOL    HW141782   7.822   6.015   2.797  1.8624 -3.2013 -0.6501
11514SOL    HW241783   7.746   5.977   2.672 -0.1947 -1.6557  0.0850
11515SOL     OW41784  11.098   8.147   9.157 -0.0736 -0.0109 -0.1680
11515SOL    HW141785  11.057   8.119   9.239 -1.3881  1.9079 -0.0909
11515SOL    HW241786  11.031   8.130   9.091 -0.7938  2.4400 -0.1597
11516SOL     OW41787   3.223  10.845  10.535 -0.1134  0.0515  0.0872
11516SOL    HW141788   3.199  10.937  10.524 -2.1555 -0.6120 -1.7573
11516SOL    HW241789   3.278  10.844  10.614 -0.0955  2.8030  0.2215
11517SOL     OW41790   2.227   0.130   1.393 -0.3097  0.2362 -0.0673
11517SOL    HW141791   2.228   0.038   1.364 -1.4949 -0.1463  1.0045
11517SOL    HW241792   2.215   0.180   1.312  0.8969 -0.4993 -0.7287
11518SOL     OW41793  12.061   4.782  10.198  0.0170  0.3817  0.1861
11518SOL    HW141794  11.980   4.733  10.180  1.0600 -1.3580 -0.0864
11518SOL    HW241795  12.119   4.759  10.125  0.9673  1.1083  0.6878
11519SOL     OW41796   1.082   4.879  10.649 -0.1239  0.4523  0.1190
11519SOL    HW141797   1.163   4.930  10.659 -0.7406  1.4539  0.0659
11519SOL    HW241798   1.108   4.790  10.674  0.5884  1.0760  1.8246
11520SOL     OW41799   6.402   4.945   8.101  0.2249 -0.5555  0.4055
11520SOL    HW141800   6.349   4.898   8.037  0.6816 -2.2697  1.2172
11520SOL    HW241801   6.479   4.889   8.114  1.2509  0.8770  0.7675
11521SOL     OW41802   1.711   2.612   7.292 -0.1628 -0.3283 -0.0302
11521SOL    HW141803   1.792   2.566   7.268  0.2343 -0.7216  1.9343
11521SOL    HW241804   1.655   2.545   7.330 -0.2573  0.4818  1.3054
11522SOL     OW41805   0.350   8.732   2.314 -0.3129 -0.2202 -0.0946
11522SOL    HW141806   0.384   8.705   2.228  1.9892  1.3461  0.2432
11522SOL    HW241807   0.306   8.815   2.297 -0.6796 -0.3753  0.0962
11523SOL     OW41808   4.589  10.619   5.335 -1.0525  0.0749  0.0946
11523SOL    HW141809   4.581  10.628   5.240  0.7350  1.2547  0.0096
11523SOL    HW241810   4.618  10.529   5.348 -3.5963 -0.8688 -0.2583
11524SOL     OW41811   4.319   9.461   0.079  0.1600  0.4014 -0.1948
11524SOL    HW141812   4.414   9.461   0.067  0.1334  0.8772 -0.4475
11524SOL    HW241813   4.286   9.517   0.008 -0.1530  1.9266  1.1069
11525SOL     OW41814  10.875   3.712   1.596  0.2960 -0.3634  0.2198
11525SOL    HW141815  10.905   3.758   1.675 -0.0384 -0.2832  0.3052
11525SOL    HW241816  10.899   3.621   1.610  0.3219 -0.3334  0.3741
11526SOL     OW41817   5.024   7.531   3.962  0.1709  0.0248  0.3479
11526SOL    HW141818   4.937   7.530   3.923 -0.2185 -0.8509  1.2075
11526SOL    HW241819   5.011   7.567   4.050  0.7736  0.4006  0.2942
11527SOL     OW41820   0.755   4.925  10.660 -0.3799  0.1954 -0.5138
11527SOL    HW141821   0.828   4.902  10.717 -1.7728 -1.5580  0.6625
11527SOL    HW241822   0.796   4.967  10.584  2.1526 -3.1829 -1.2348
11528SOL     OW41823  10.845   3.241   2.968 -0.0709 -0.6028  0.2920
11528SOL    HW141824  10.814   3.319   3.013 -0.4902 -0.5401 -0.1082
11528SOL    HW241825  10.909   3.203   3.029  0.4689  0.2850  0.2997
11529SOL     OW41826   8.564   0.308  10.503  0.0880 -0.1770  0.1039
11529SOL    HW141827   8.651   0.270  10.512 -0.0387 -1.2215 -2.3100
11529SOL    HW241828   8.508   0.251  10.557  0.8360  0.5080  1.6822
11530SOL     OW41829   9.414   9.265   2.722  0.1768 -0.1909  0.0791
11530SOL    HW141830   9.494   9.215   2.737 -0.2291 -0.9460 -0.2410
11530SOL    HW241831   9.386   9.291   2.810 -0.0482 -1.2305  0.3286
11531SOL     OW41832  11.037  10.578   8.465  0.3220 -0.0569  0.2833
11531SOL    HW141833  11.083  10.661   8.452  2.6751 -1.2015  0.7467
11531SOL    HW241834  11.044  10.533   8.381 -0.4777 -0.0197  0.1901
11532SOL     OW41835   2.709   8.771  11.517  0.2407  0.2058 -0.0745
11532SOL    HW141836   2.635   8.774  11.456  0.6075  0.7857 -0.5062
11532SOL    HW241837   2.670   8.787  11.603 -0.2668 -0.4869 -0.1619
11533SOL     OW41838   5.476   0.272   5.911 -0.6634  0.1851 -0.7602
11533SOL    HW141839   5.537   0.203   5.886  0.8533  0.6675  1.3309
11533SOL    HW241840   5.435   0.239   5.991 -0.9102  1.1586 -0.4713
11534SOL     OW41841   1.016   0.686   0.938  0.7320  0.2823 -0.4314
11534SOL    HW141842   1.026   0.672   0.843 -0.9366  0.2022 -0.6324
11534SOL    HW241843   0.925   0.662   0.956  0.6313  1.5593  0.9677
11535SOL     OW41844   7.776   9.938  12.133 -0.0098  0.4364  0.3456
11535SOL    HW141845   7.832   9.890  12.193  0.0634  0.5641  0.3803
11535SOL    HW241846   7.797  10.030  12.149 -0.2931  0.4885  0.4205
11536SOL     OW41847   2.636   9.422   2.999 -0.0448  0.3912 -0.2109
11536SOL    HW141848   2.644   9.453   3.089  3.0101  0.3215 -0.3691
11536SOL    HW241849   2.632   9.327   3.006 -0.2955  0.4050 -0.1480
11537SOL     OW41850   5.180   3.728   8.901 -0.2859 -0.2329  0.0684
11537SOL    HW141851   5.203   3.683   8.820 -1.6161 -0.8849  0.0200
11537SOL    HW241852   5.259   3.775   8.926  0.7144 -1.4824 -0.6335
11538SOL     OW41853   7.898   6.322  11.468 -0.0579 -0.1805 -0.7492
11538SOL    HW141854   7.931   6.260  11.533  0.0489 -0.3587 -0.9688
11538SOL    HW241855   7.946   6.300  11.388 -1.7780 -1.4757 -1.5067
11539SOL     OW41856   7.449   0.308   3.637  0.4536 -0.3976  0.6164
11539SOL    HW141857   7.381   0.355   3.589  1.2851  0.7142  0.4721
11539SOL    HW241858   7.470   0.366   3.711  1.3838 -0.6049  0.5324
11540SOL     OW41859   4.481   4.805  11.215 -0.4647  0.2729  0.7081
11540SOL    HW141860   4.424   4.792  11.292 -1.4905  0.3401 -0.0212
11540SOL    HW241861   4.518   4.718  11.198  2.0637  0.7687  2.9654
11541SOL     OW41862  10.620   1.972   5.507  0.1619 -0.1580  0.6196
11541SOL    HW141863  10.590   1.966   5.416 -0.8861 -0.2831  0.9573
11541SOL    HW241864  10.705   1.929   5.508  1.6618  2.4738 -0.9261
11542SOL     OW41865   5.801   9.740   9.367  0.0056 -0.5367 -0.5306
11542SOL    HW141866   5.851   9.659   9.352 -0.4562 -0.7366 -0.9971
11542SOL    HW241867   5.714   9.722   9.333  0.2611  0.6142 -1.9150
11543SOL     OW41868   4.593   6.534  12.458 -0.1049 -0.5775  0.9871
11543SOL    HW141869   4.526   6.561  12.395 -0.2890 -0.9652  1.0133
11543SOL    HW241870   4.621   6.615  12.499 -0.0046 -0.3236  0.4264
11544SOL     OW41871   2.187   9.287   1.791  0.5165 -0.6760  0.4409
11544SOL    HW141872   2.182   9.194   1.769  2.6645 -0.5873 -0.6311
11544SOL    HW241873   2.247   9.291   1.865  0.8468 -0.1014  0.1502
11545SOL     OW41874   5.508   0.782   7.632 -0.2256  0.0421  0.4351
11545SOL    HW141875   5.437   0.804   7.571 -0.6604 -1.6226  0.3006
11545SOL    HW241876   5.585   0.826   7.596 -0.5584 -0.5489 -1.0774
11546SOL     OW41877   1.966   7.466   1.916  0.2178 -0.3095  0.5062
11546SOL    HW141878   2.012   7.525   1.976  0.6014 -0.6558  0.5525
11546SOL    HW241879   2.035   7.413   1.876 -0.2609 -1.9469  1.7495
11547SOL     OW41880   7.994  10.384  11.094  0.4244  0.2522 -0.4120
11547SOL    HW141881   7.951  10.322  11.153 -1.7022  1.6098 -0.4377
11547SOL    HW241882   7.943  10.464  11.103  3.8785  2.5431  0.6875
11548SOL     OW41883  10.514   2.518   5.471 -0.4901 -0.0536 -0.1850
11548SOL    HW141884  10.438   2.577   5.475 -0.5071 -0.0928  0.0683
11548SOL    HW241885  10.477   2.431   5.487 -0.1920  0.0858  1.4537
11549SOL     OW41886   1.869   2.633  12.528 -0.5860  0.4544 -0.4421
11549SOL    HW141887   1.793   2.683  12.498 -1.6761  0.6210  2.2555
11549SOL    HW241888   1.938   2.698  12.538 -0.9078  0.7940 -0.4046
11550SOL     OW41889   1.597   3.204   0.334 -0.1801 -0.3580 -0.1929
11550SOL    HW141890   1.556   3.276   0.382 -0.1398 -0.0971 -0.5429
11550SOL    HW241891   1.565   3.214   0.245 -1.0359 -1.4234 -0.0231
11551SOL     OW41892   0.356   0.060   7.982 -0.3418  0.2777  0.3572
11551SOL    HW141893   0.309  -0.019   7.956 -0.6955  0.6842 -0.2820
11551SOL    HW241894   0.317   0.130   7.928  1.8045  0.4313 -1.1518
11552SOL     OW41895  10.134   1.212   8.264  0.6192 -0.5175 -0.1107
11552SOL    HW141896  10.117   1.212   8.358 -0.3087  0.3538 -0.2621
11552SOL    HW241897  10.206   1.274   8.252 -0.5160  0.8354 -0.1566
11553SOL     OW41898  12.419  10.912   3.838  0.1536 -0.0840 -0.2712
11553SOL    HW141899  12.427  10.852   3.764  1.6149 -0.6945  0.3334
11553SOL    HW241900  12.429  10.856   3.916 -2.3239  0.3848  0.4667
11554SOL     OW41901   7.356   2.070  10.696 -0.3470  0.2935  0.1982
11554SOL    HW141902   7.272   2.023  10.689  0.5017 -1.5876  1.6472
11554SOL    HW241903   7.345   2.127  10.772  0.0420 -0.9045  1.2020
11555SOL     OW41904   8.584  12.108   9.230 -0.3743 -0.9801  0.1948
11555SOL    HW141905   8.597  12.052   9.154  1.2260  0.7820 -0.9172
11555SOL    HW241906   8.597  12.197   9.198  2.3064 -0.2394  2.8035
11556SOL     OW41907  11.097   2.394   5.796 -0.2360 -0.2978  0.3097
11556SOL    HW141908  11.074   2.486   5.779 -0.2571 -0.3086  0.2781
11556SOL    HW241909  11.189   2.387   5.769 -0.5979 -0.6007 -0.9073
11557SOL     OW41910   5.321   8.028   5.085 -0.3399 -0.2303 -0.3018
11557SOL    HW141911   5.406   8.040   5.043 -0.0006  0.5364  0.5668
11557SOL    HW241912   5.258   8.066   5.023  0.0625  0.1739 -0.4709
11558SOL     OW41913  12.180   6.884   9.811 -0.3453  0.1089  0.6719
11558SOL    HW141914  12.163   6.978   9.814 -0.4544  0.0695  1.3858
11558SOL    HW241915  12.254   6.871   9.870  0.4640 -0.0948 -0.3524
11559SOL     OW41916  12.634   9.205   0.936 -0.1159 -0.9415  0.3882
11559SOL    HW141917  12.687   9.156   0.999  0.6277 -0.2503  0.3052
11559SOL    HW241918  12.588   9.270   0.989  1.9375  0.8994  0.0497
11560SOL     OW41919   8.902   8.576  10.279  0.6722 -0.5303 -0.3646
11560SOL    HW141920   8.913   8.645  10.212  1.8191 -1.4021 -1.1065
11560SOL    HW241921   8.855   8.620  10.350  0.4302  0.7375 -1.2594
11561SOL     OW41922   3.772   2.988  10.302  0.2525 -0.1856  0.0919
11561SOL    HW141923   3.737   2.919  10.246  1.7041 -0.7258 -0.1707
11561SOL    HW241924   3.751   2.960  10.391 -0.0253 -0.4733 -0.0622
11562SOL     OW41925   2.058   7.408  10.606  0.1880 -0.5320 -0.1740
11562SOL    HW141926   2.011   7.440  10.529  1.1849 -1.0724 -1.0382
11562SOL    HW241927   1.990   7.396  10.672 -0.5039  1.3204 -0.4794
11563SOL     OW41928   5.330   6.335   9.300 -0.1152 -0.1763  0.1174
11563SOL    HW141929   5.309   6.243   9.284  0.8360 -0.3069 -0.4265
11563SOL    HW241930   5.401   6.354   9.240  0.9522  0.4128  1.5091
11564SOL     OW41931   9.337  10.953   7.103  0.0889  0.5194  0.1092
11564SOL    HW141932   9.293  10.868   7.091  3.3455 -1.7331  2.3550
11564SOL    HW241933   9.296  10.990   7.181 -2.6514  2.1582 -1.9057
11565SOL     OW41934   9.079   4.704   0.715 -0.2904 -0.0292  0.6737
11565SOL    HW141935   9.086   4.632   0.777 -2.0038  0.9760  2.1175
11565SOL    HW241936   9.133   4.773   0.753  0.2133 -0.0463  0.0169
11566SOL     OW41937  12.468   9.410  10.513  0.2543  0.2693  0.3667
11566SOL    HW141938  12.542   9.416  10.452  0.7987  0.2407  1.0164
11566SOL    HW241939  12.468   9.494  10.559 -0.8728  0.7552 -0.4649
11567SOL     OW41940  11.084  11.332  10.363 -0.6558  0.3856  0.3313
11567SOL    HW141941  11.103  11.309  10.272 -4.1874 -2.0561  0.0048
11567SOL    HW241942  11.136  11.270  10.414  1.1548  1.6086  0.0769
11568SOL     OW41943   4.984  12.549   8.516  0.1901 -0.2897  0.5139
11568SOL    HW141944   4.924  12.545   8.442  0.7978 -0.4405  0.0179
11568SOL    HW241945   4.990  12.643   8.536  0.3594 -0.1991  0.0761
11569SOL     OW41946  11.211   5.961   5.501 -1.0469 -0.2910 -0.1984
11569SOL    HW141947  11.165   6.002   5.428 -1.0230 -1.2093 -0.7453
11569SOL    HW241948  11.294   5.931   5.464 -0.9167 -0.5263  0.2719
11570SOL     OW41949   4.254   2.631  12.146  0.4819 -0.0311 -0.3006
11570SOL    HW141950   4.160   2.635  12.132  0.2756  1.3710  1.1370
11570SOL    HW241951   4.285   2.718  12.122  1.1161  0.1074  0.9026
11571SOL     OW41952   3.272   1.291   7.614  0.0884 -0.3901 -0.3357
11571SOL    HW141953   3.251   1.260   7.702  1.0687 -1.4800 -0.4675
11571SOL    HW241954   3.272   1.387   7.622  0.4702 -0.4819  0.9258
11572SOL     OW41955   5.100   8.940  10.185  0.1714 -0.3453 -0.0024
11572SOL    HW141956   5.165   8.878  10.153 -1.4113 -0.8118 -2.5515
11572SOL    HW241957   5.018   8.891  10.187 -0.8310  1.2023 -0.6004
11573SOL     OW41958   8.584  11.541   7.406  0.2624  0.4248 -0.2520
11573SOL    HW141959   8.489  11.550   7.397  0.1129 -2.1472 -2.0721
11573SOL    HW241960   8.596  11.496   7.490  0.1674  3.1037  1.3479
11574SOL     OW41961   6.693  11.414   7.553 -0.2373 -0.3023  0.1995
11574SOL    HW141962   6.619  11.386   7.607  0.4300 -3.2466 -0.2604
11574SOL    HW241963   6.668  11.390   7.463  0.9262 -0.6181 -0.0594
11575SOL     OW41964   4.115   4.297   0.617 -0.1430 -0.1223 -0.3431
11575SOL    HW141965   4.175   4.304   0.542  0.6937 -2.2136  0.0697
11575SOL    HW241966   4.055   4.226   0.594 -0.7516  0.1381  0.3997
11576SOL     OW41967   7.709   2.915   3.319 -0.1536  0.0540  0.1461
11576SOL    HW141968   7.694   2.919   3.224  0.6478  0.4058  0.0248
11576SOL    HW241969   7.628   2.879   3.354 -2.2519  3.8113 -0.2461
11577SOL     OW41970   4.052  11.184   4.383  0.2745  0.2412 -0.0987
11577SOL    HW141971   4.101  11.261   4.412 -0.2855  0.9388 -0.9322
11577SOL    HW241972   3.962  11.200   4.412  0.1549 -0.0960 -0.2716
11578SOL     OW41973   0.005   3.691  12.561 -0.5302 -0.0296  0.1454
11578SOL    HW141974   0.077   3.694  12.625  1.0318  0.2926 -1.5245
11578SOL    HW241975  -0.036   3.606  12.575  1.2085 -0.9239  0.1164
11579SOL     OW41976  11.943   2.777   1.502  0.4756 -0.7436  0.3284
11579SOL    HW141977  12.017   2.744   1.552  0.8036 -1.6263 -0.7063
11579SOL    HW241978  11.947   2.730   1.419 -0.7470 -0.1807 -0.0733
11580SOL     OW41979   7.868   0.325   4.174  0.0842  0.1421 -0.7091
11580SOL    HW141980   7.800   0.259   4.185 -0.6304  0.8730 -0.5617
11580SOL    HW241981   7.905   0.308   4.087  0.3025 -0.7920 -0.4332
11581SOL     OW41982   8.419  11.701   0.373  0.4025  0.2669 -0.2136
11581SOL    HW141983   8.441  11.793   0.360 -1.2773  0.8246  0.6441
11581SOL    HW241984   8.351  11.683   0.308 -0.2705  0.0436  0.5359
11582SOL     OW41985   0.536   0.377   9.014  0.6711  0.1464 -0.1189
11582SOL    HW141986   0.532   0.283   8.996  2.0407  0.2840 -1.2855
11582SOL    HW241987   0.588   0.384   9.094  0.6207 -0.0691 -0.0648
11583SOL     OW41988   2.228   5.043   4.994 -0.2908  0.1359  0.5774
11583SOL    HW141989   2.170   5.043   5.071  0.0213  1.2775  0.8400
11583SOL    HW241990   2.168   5.045   4.919 -0.6008  0.3434  0.8233
11584SOL     OW41991   5.815   3.678   1.621  0.5257  0.4257 -0.3711
11584SOL    HW141992   5.848   3.593   1.592  0.6579  0.3968 -0.1374
11584SOL    HW241993   5.744   3.699   1.559  0.7402  0.3200 -0.6521
11585SOL     OW41994  12.417  12.615  10.079 -0.6259  0.4720 -0.2522
11585SOL    HW141995  12.360  12.692  10.087 -0.3947  0.7656 -1.3688
11585SOL    HW241996  12.413  12.592   9.986 -0.0929 -0.4085 -0.0609
11586SOL     OW41997  11.775   9.381   8.377  0.4718 -0.2796  0.4610
11586SOL    HW141998  11.750   9.471   8.399  0.5156 -0.4789  1.3587
11586SOL    HW241999  11.843   9.359   8.441  3.0643  0.2582 -1.8692
11587SOL     OW42000  10.018   1.967   7.847 -0.5120 -0.6757 -0.1049
11587SOL    HW142001  10.067   1.895   7.806  2.4997  1.1007  0.0996
11587SOL    HW242002  10.064   2.046   7.820 -1.6388  0.9549  2.3603
11588SOL     OW42003   3.763   9.500   1.672  0.3328  0.0190  0.4859
11588SOL    HW142004   3.825   9.521   1.742  0.9380  3.0907 -0.8325
11588SOL    HW242005   3.752   9.581   1.623 -1.2494 -1.5842 -2.1040
11589SOL     OW42006   7.169   4.101   2.608  0.3697  0.2658  0.7443
11589SOL    HW142007   7.176   4.132   2.699 -0.1754  0.1302  0.8365
11589SOL    HW242008   7.181   4.180   2.555  1.3322  0.2425  0.9084
11590SOL     OW42009   7.945   4.350   8.370  0.0508 -0.0475 -0.8775
11590SOL    HW142010   7.987   4.434   8.351  0.4676 -0.1099 -0.2725
11590SOL    HW242011   7.867   4.373   8.421  0.3072 -0.0349 -0.4821
11591SOL     OW42012  12.436   4.422   8.208  0.2325 -0.2437 -0.0363
11591SOL    HW142013  12.399   4.500   8.249  1.0255 -0.4193  1.0333
11591SOL    HW242014  12.391   4.349   8.251  1.8946 -0.4693  1.4235
11592SOL     OW42015   0.093   7.680  11.623  0.4949  0.1665  0.0444
11592SOL    HW142016   0.005   7.664  11.590  0.3084 -0.1287  0.6619
11592SOL    HW242017   0.094   7.638  11.709  0.7823  1.3805  0.6472
11593SOL     OW42018   1.070   9.978   5.762 -0.2298 -0.3360  0.5993
11593SOL    HW142019   1.017   9.921   5.818 -1.3030 -0.6523 -0.6902
11593SOL    HW242020   1.142  10.007   5.818 -0.2832 -2.0583  1.6117
11594SOL     OW42021   5.611  12.358   1.271 -0.3448  0.1991  0.7362
11594SOL    HW142022   5.604  12.363   1.176 -0.8069 -0.3278  0.7409
11594SOL    HW242023   5.605  12.449   1.300 -3.8313  0.1730  0.5089
11595SOL     OW42024   4.984  12.506   0.311 -0.7210  0.1270 -0.1828
11595SOL    HW142025   4.998  12.438   0.376 -1.5212  0.7060  0.6234
11595SOL    HW242026   4.894  12.493   0.282  0.0746 -1.0541 -2.3146
11596SOL     OW42027   9.863  10.770   2.193  0.1680  0.1707  0.3140
11596SOL    HW142028   9.775  10.760   2.158 -0.6501  1.6136  1.8314
11596SOL    HW242029   9.911  10.694   2.160 -2.1674 -1.7519  1.0556
11597SOL     OW42030   2.398   3.551   8.757  0.1483 -0.0109  0.6684
11597SOL    HW142031   2.351   3.559   8.674  2.0795  0.5322 -0.4423
11597SOL    HW242032   2.433   3.461   8.756  1.3304  0.4376  0.2123
11598SOL     OW42033   3.732   1.609  11.581  0.4340 -0.6363 -0.0756
11598SOL    HW142034   3.738   1.515  11.567  1.6436 -0.5392 -0.3846
11598SOL    HW242035   3.744   1.621  11.675  1.4597 -0.7405 -0.1748
11599SOL     OW42036   9.209   8.028   4.833  0.1997  0.6533 -0.0869
11599SOL    HW142037   9.226   8.027   4.927  2.3145  0.8820 -0.4170
11599SOL    HW242038   9.206   8.120   4.810 -0.4602  0.6013 -0.2436
11600SOL     OW42039   3.648   8.193   2.444 -0.0036  0.2370 -0.0233
11600SOL    HW142040   3.669   8.254   2.373 -0.1267 -0.1439 -0.3938
11600SOL    HW242041   3.715   8.208   2.510  1.7709 -1.2916 -1.3779
11601SOL     OW42042   7.130   1.221   1.914  0.1765  0.4159 -0.4534
11601SOL    HW142043   7.205   1.278   1.897 -0.4247  0.8691 -1.7113
11601SOL    HW242044   7.142   1.146   1.856 -0.1060  0.2709 -0.3290
11602SOL     OW42045   3.340   4.271   1.814  0.3030 -0.0119 -0.8515
11602SOL    HW142046   3.340   4.361   1.844  0.5899 -0.5193  0.7736
11602SOL    HW242047   3.261   4.233   1.853  1.3055 -0.9973  0.2970
11603SOL     OW42048  11.101   0.478   8.159  0.8469  0.2029  0.2369
11603SOL    HW142049  11.158   0.417   8.206  1.3198  1.7255  1.7261
11603SOL    HW242050  11.156   0.555   8.143  0.5272 -0.0169 -2.3853
11604SOL     OW42051   8.341  10.087   7.863  0.4769 -0.1181  0.5551
11604SOL    HW142052   8.401  10.034   7.811 -0.3373  0.4041 -0.9910
11604SOL    HW242053   8.281  10.024   7.903  0.3129 -0.4652 -0.2179
11605SOL     OW42054  10.280  10.096   2.985  0.2369  0.0431  0.1973
11605SOL    HW142055  10.350  10.031   2.992  0.1808 -0.3548 -2.2320
11605SOL    HW242056  10.211  10.051   2.937 -0.8683  1.0879  0.7739
11606SOL     OW42057  11.029   2.109  11.895  0.2129 -0.6538 -0.2332
11606SOL    HW142058  11.080   2.177  11.939 -1.7609  1.4277 -0.9670
11606SOL    HW242059  11.047   2.122  11.802 -0.5168 -0.8520 -0.4096
11607SOL     OW42060   1.726   0.884   9.588  0.9423 -0.2685  0.4859
11607SOL    HW142061   1.654   0.915   9.533  1.3971  2.6865  1.3952
11607SOL    HW242062   1.685   0.826   9.652 -0.8454  1.9505  1.4745
11608SOL     OW42063   8.454   2.018   2.543 -0.6144  0.1237 -1.1457
11608SOL    HW142064   8.398   1.941   2.530  0.9078 -1.0513 -1.0292
11608SOL    HW242065   8.446   2.037   2.637 -0.2615 -0.5010 -0.9829
11609SOL     OW42066  11.995   1.627   5.781  0.3362  0.0914  0.3803
11609SOL    HW142067  11.989   1.584   5.696 -0.5967  0.2197  0.3692
11609SOL    HW242068  11.913   1.604   5.825  0.2971  0.9871  0.7854
11610SOL     OW42069  11.273   5.382  10.299  0.0127  0.0142  0.1400
11610SOL    HW142070  11.362   5.415  10.295 -0.2868  0.6730 -2.1368
11610SOL    HW242071  11.270   5.309  10.238 -0.7681 -0.7152  0.9953
11611SOL     OW42072   9.555   3.193   1.315  0.3235  0.4181  0.3244
11611SOL    HW142073   9.555   3.283   1.283 -1.0188  0.2798 -0.1356
11611SOL    HW242074   9.464   3.177   1.342  0.4246 -0.9431 -0.0516
11612SOL     OW42075   7.123   9.937   6.147  0.5892  0.2022 -0.5695
11612SOL    HW142076   7.211   9.906   6.166  0.0558 -1.6292 -0.9072
11612SOL    HW242077   7.093   9.882   6.074 -0.5262  1.3598 -1.0257
11613SOL     OW42078   9.714   1.599   3.803  0.0266  0.0027 -0.0757
11613SOL    HW142079   9.782   1.625   3.741  0.8375 -1.3413  0.2030
11613SOL    HW242080   9.635   1.592   3.750  0.6555 -0.9103 -0.9385
11614SOL     OW42081   8.780   2.204   7.700  1.0017  0.0831 -0.0360
11614SOL    HW142082   8.834   2.218   7.623 -2.4152 -1.6169 -3.0381
11614SOL    HW242083   8.764   2.109   7.701 -2.4824  0.5389  0.0862
11615SOL     OW42084  10.176   1.722   0.647 -0.2019  0.1847  0.0352
11615SOL    HW142085  10.181   1.804   0.598  0.2382 -0.6708 -1.3980
11615SOL    HW242086  10.124   1.664   0.591 -1.7346 -0.0952  1.6664
11616SOL     OW42087   9.571   4.530   2.096 -0.6487 -0.0966  0.4208
11616SOL    HW142088   9.526   4.501   2.175 -1.1450  0.8092  0.4841
11616SOL    HW242089   9.502   4.567   2.041 -0.0548  1.0401  0.3997
11617SOL     OW42090   7.163   3.471   9.184 -0.1917 -0.8163 -0.0750
11617SOL    HW142091   7.124   3.401   9.237 -1.2799 -0.1800 -0.0261
11617SOL    HW242092   7.089   3.517   9.146  0.5491 -0.6874 -1.4367
11618SOL     OW42093   0.299  10.826   9.125  0.4026 -0.2624  0.1642
11618SOL    HW142094   0.249  10.767   9.180 -1.1066  0.5499 -0.2714
11618SOL    HW242095   0.365  10.864   9.183  1.2543 -2.1445  0.5004
11619SOL     OW42096   2.295   0.063   9.699  0.3108 -0.2634 -0.2231
11619SOL    HW142097   2.345   0.004   9.756  0.4884  0.1509  0.0566
11619SOL    HW242098   2.267   0.008   9.626  1.2656 -0.4814 -0.4346
11620SOL     OW42099   3.991   3.175  10.250 -0.3869 -0.4344  0.3085
11620SOL    HW142100   4.057   3.128  10.302 -1.2166 -0.8402  1.0045
11620SOL    HW242101   3.923   3.110  10.234 -0.7657  0.0687 -0.1518
11621SOL     OW42102   3.419   5.545   8.542 -0.1852  0.0750  0.0688
11621SOL    HW142103   3.488   5.579   8.486  0.4286  0.8709  1.2814
11621SOL    HW242104   3.464   5.516   8.622 -1.1560 -0.0536  0.5867
11622SOL     OW42105   7.220   6.407   9.907  0.3022  0.3452  0.3210
11622SOL    HW142106   7.165   6.454   9.970  3.2954  2.4337  1.6225
11622SOL    HW242107   7.255   6.476   9.850  3.3708 -0.4645  1.0796
11623SOL     OW42108   1.928  10.754   2.242  0.1821 -0.3146  0.2834
11623SOL    HW142109   1.972  10.721   2.164  2.7529  0.4164  1.2970
11623SOL    HW242110   1.885  10.834   2.214  2.1364  0.6329 -0.2031
11624SOL     OW42111   9.858   3.609   6.515  0.0928  0.5985  0.3585
11624SOL    HW142112   9.824   3.522   6.534 -1.1059  1.4496  2.3717
11624SOL    HW242113   9.785   3.668   6.532  1.2790  2.1246  0.4043
11625SOL     OW42114   1.544   5.547   1.513 -0.5415  0.2941  0.1127
11625SOL    HW142115   1.486   5.547   1.589  1.6155  0.4728  1.8712
11625SOL    HW242116   1.528   5.463   1.470  0.4055 -1.3293  2.6571
11626SOL     OW42117   1.396   4.372   7.398  0.1427  0.2740  0.1305
11626SOL    HW142118   1.308   4.402   7.421 -0.2697 -0.5559 -0.3232
11626SOL    HW242119   1.420   4.312   7.468 -0.8625 -1.7714 -1.1854
11627SOL     OW42120   5.995  11.610   8.439 -0.0506 -0.5190  0.5752
11627SOL    HW142121   5.905  11.625   8.465 -0.0950 -1.5948  1.1237
11627SOL    HW242122   6.044  11.683   8.477 -0.6301 -0.1258  0.5768
11628SOL     OW42123   2.455  11.198  12.077 -0.0449 -0.1188  0.3434
11628SOL    HW142124   2.471  11.166  12.166 -1.7515 -0.1875  0.6690
11628SOL    HW242125   2.397  11.132  12.039 -1.6931  1.3319  0.2129
11629SOL     OW42126   6.778   3.504   4.140 -0.6611  0.2164 -0.1372
11629SOL    HW142127   6.740   3.489   4.227  1.7890  0.9053  1.1618
11629SOL    HW242128   6.743   3.433   4.086  0.0814 -2.1224  2.2346
11630SOL     OW42129   9.486   9.476  10.232  0.1972 -0.4939  0.3884
11630SOL    HW142130   9.440   9.436  10.158  0.4343 -0.9550  0.4884
11630SOL    HW242131   9.476   9.570  10.218 -0.6359 -0.5827  0.3169
11631SOL     OW42132   5.192   8.748   1.555 -0.1101  0.4584  0.2151
11631SOL    HW142133   5.124   8.694   1.594 -0.4341  0.4677 -0.3302
11631SOL    HW242134   5.145   8.818   1.510  0.2733  0.6841  0.1625
11632SOL     OW42135   9.454  10.608   9.320 -0.7288  0.4706  0.2286
11632SOL    HW142136   9.381  10.579   9.375 -2.2255 -0.0723 -1.9250
11632SOL    HW242137   9.434  10.699   9.299  2.0479  2.2132  3.8833
11633SOL     OW42138   8.080   7.229   1.305 -0.1862  0.4069  0.4596
11633SOL    HW142139   8.028   7.303   1.274  1.0026  1.1574  0.1902
11633SOL    HW242140   8.143   7.213   1.234  1.1732  0.7489  1.5465
11634SOL     OW42141   7.167   8.687   0.017 -0.5311  0.2807 -0.0391
11634SOL    HW142142   7.183   8.606   0.064  0.1220  0.5488  0.2058
11634SOL    HW242143   7.072   8.697   0.018 -0.7947 -1.4044 -1.6306
11635SOL     OW42144   7.679   1.457   0.777  0.2130 -0.2827  0.4388
11635SOL    HW142145   7.722   1.442   0.861 -1.3927 -1.8479  1.0416
11635SOL    HW242146   7.736   1.519   0.731  0.8876  0.9957  2.8556
11636SOL     OW42147   9.117   3.763   8.403  0.0469 -0.1441 -0.3206
11636SOL    HW142148   9.179   3.829   8.370  0.9533  0.2879  2.0204
11636SOL    HW242149   9.149   3.680   8.367  1.2261  0.2425 -0.2040
11637SOL     OW42150   8.465   1.904   8.937 -0.7320  0.1355 -0.6059
11637SOL    HW142151   8.526   1.937   9.002 -2.2386 -0.3973  1.1668
11637SOL    HW242152   8.509   1.828   8.898  0.3042  0.6333 -0.4200
11638SOL     OW42153   6.705  12.188   8.845 -0.6629  0.4579  0.1198
11638SOL    HW142154   6.735  12.226   8.928 -0.1022 -0.4072  0.3218
11638SOL    HW242155   6.694  12.094   8.863 -0.7028  0.2836 -0.7422
11639SOL     OW42156   9.794  10.482   8.123  0.1933  0.4543  0.0389
11639SOL    HW142157   9.859  10.414   8.143 -0.4403 -0.8851 -2.1770
11639SOL    HW242158   9.725  10.468   8.187 -1.9364 -3.9158 -2.7452
11640SOL     OW42159   9.024   2.332   9.373 -0.2343 -0.4907  0.0594
11640SOL    HW142160   8.988   2.247   9.400 -0.8845  0.3251  1.9595
11640SOL    HW242161   8.951   2.393   9.384  0.8668  0.7103  1.0700
11641SOL     OW42162  10.499  10.823   4.471 -0.0691 -0.0004 -0.2343
11641SOL    HW142163  10.536  10.747   4.514  0.6382  0.3667 -0.1688
11641SOL    HW242164  10.472  10.881   4.542  1.9349  1.0093 -0.2023
11642SOL     OW42165   0.890  12.289   0.888 -0.6033 -0.1622 -0.0276
11642SOL    HW142166   0.959  12.223   0.876 -0.2965 -0.4134  2.5939
11642SOL    HW242167   0.854  12.270   0.974 -1.5450  2.1916  0.1612
11643SOL     OW42168   8.878   5.335  10.848 -0.4719 -0.4315 -0.2306
11643SOL    HW142169   8.814   5.349  10.778  1.0886  0.1963 -1.6035
11643SOL    HW242170   8.858   5.403  10.913 -0.8558  0.0838 -0.8773
11644SOL     OW42171   1.228   8.580   5.009  0.3764 -0.8844 -0.2986
11644SOL    HW142172   1.167   8.639   5.053 -0.2806 -0.0411 -2.2060
11644SOL    HW242173   1.208   8.591   4.916  2.9135 -1.1575 -0.9479
11645SOL     OW42174  11.728   5.104   7.354 -0.0663 -0.3251 -0.5765
11645SOL    HW142175  11.635   5.094   7.331  0.0339 -0.6873 -0.8204
11645SOL    HW242176  11.751   5.192   7.323 -0.2902 -0.2867 -0.6379
11646SOL     OW42177  10.087   6.366   4.346  0.0734  0.0913  0.3122
11646SOL    HW142178  10.087   6.415   4.428  1.6960  0.2358  0.2600
11646SOL    HW242179  10.108   6.431   4.279  0.0212 -0.2578 -0.0471
11647SOL     OW42180   0.882  11.282   8.142 -0.0771 -0.0064 -0.2511
11647SOL    HW142181   0.902  11.211   8.204  0.5427  1.0329  0.7783
11647SOL    HW242182   0.925  11.359   8.179 -0.9404  0.9744 -1.2163
11648SOL     OW42183   0.254   5.761   6.840 -0.9174  0.6191  0.2239
11648SOL    HW142184   0.246   5.854   6.824 -0.3466  0.5417 -0.5872
11648SOL    HW242185   0.197   5.719   6.776 -1.0661  0.4072  0.4910
11649SOL     OW42186   6.532   9.475   7.377 -0.2505 -0.4645 -0.3396
11649SOL    HW142187   6.614   9.511   7.343 -0.4582  0.3640  0.0068
11649SOL    HW242188   6.464   9.512   7.320 -0.5999  0.9073  0.9159
11650SOL     OW42189   2.807   8.207  10.544  0.1764 -0.6007 -0.0940
11650SOL    HW142190   2.713   8.223  10.556  0.1159 -0.6943 -0.4285
11650SOL    HW242191   2.848   8.292  10.558  0.0452 -0.5696  0.1003
11651SOL     OW42192   8.806  11.898   1.287  0.0147  0.2849  0.1518
11651SOL    HW142193   8.838  11.986   1.304  1.4743 -0.3823  1.1102
11651SOL    HW242194   8.754  11.905   1.207  0.1608  1.9807  0.1859
11652SOL     OW42195  11.537   3.457   3.131 -0.5781 -0.0869  0.3639
11652SOL    HW142196  11.617   3.502   3.157 -0.6132 -0.3960  1.0129
11652SOL    HW242197  11.540   3.456   3.035 -0.0558  0.3428  0.3716
11653SOL     OW42198  11.137   0.190   3.687  0.2307 -0.2085  0.2123
11653SOL    HW142199  11.198   0.122   3.660  1.1200  0.7342 -0.2418
11653SOL    HW242200  11.064   0.143   3.726  1.0134 -1.3933  0.2973
11654SOL     OW42201   6.700   2.626  11.891  0.3278  0.4911  0.5136
11654SOL    HW142202   6.684   2.575  11.970  0.7794 -0.8110 -0.2052
11654SOL    HW242203   6.636   2.594  11.828  2.5245 -1.4481 -0.8989
11655SOL     OW42204   9.528   9.621  12.302  0.0127 -0.7956  0.2479
11655SOL    HW142205   9.515   9.711  12.332  1.0120 -0.4166 -0.4231
11655SOL    HW242206   9.491   9.619  12.214  2.1913 -0.3397 -0.7351
11656SOL     OW42207   3.344   6.588  10.175  0.4981 -0.0825  0.5650
11656SOL    HW142208   3.380   6.506  10.209  0.0848 -0.8409 -0.7810
11656SOL    HW242209   3.259   6.564  10.139  1.6541  0.2042 -2.7526
11657SOL     OW42210   5.864   8.818   2.592  0.0990 -0.0663 -0.1639
11657SOL    HW142211   5.876   8.725   2.615 -0.7209 -0.4221 -1.1109
11657SOL    HW242212   5.909   8.828   2.508  1.6246  0.8194  0.7143
11658SOL     OW42213  10.327   3.709  11.219  0.0593  0.1367  0.5748
11658SOL    HW142214  10.309   3.617  11.236  0.4211 -0.5498 -2.3053
11658SOL    HW242215  10.247   3.742  11.178  0.5987  0.6118 -0.1125
11659SOL     OW42216   3.203   5.357   6.891 -0.0156 -0.5095 -0.0749
11659SOL    HW142217   3.122   5.316   6.861  0.1459 -0.9552  0.0884
11659SOL    HW242218   3.225   5.310   6.971 -0.2143  0.3907  0.5182
11660SOL     OW42219   0.766   8.654   0.442  0.2286 -0.5033 -0.3560
11660SOL    HW142220   0.789   8.713   0.513  1.2093  1.2051 -2.0195
11660SOL    HW242221   0.725   8.710   0.375 -3.0593 -2.4094 -0.1980
11661SOL     OW42222   6.861  11.193   2.389  0.0171 -0.3165  0.2412
11661SOL    HW142223   6.809  11.222   2.313 -1.6563 -0.6811  1.1918
11661SOL    HW242224   6.892  11.106   2.365  0.8855  0.2266 -0.6626
11662SOL     OW42225  10.109   9.292   5.899 -0.0851  0.2176  0.0246
11662SOL    HW142226  10.034   9.247   5.939 -0.0593 -1.0972 -1.2918
11662SOL    HW242227  10.125   9.243   5.818  1.7574  0.9173 -0.0728
11663SOL     OW42228   4.764   7.996   7.815  0.3709  0.3287  0.1615
11663SOL    HW142229   4.762   7.954   7.901  0.3790 -2.9532 -1.2875
11663SOL    HW242230   4.857   8.004   7.794  0.3625 -0.0117 -0.0188
11664SOL     OW42231   9.139  11.871   4.075 -0.1538  0.3020  0.5283
11664SOL    HW142232   9.076  11.802   4.097  0.2436 -0.7394 -1.3942
11664SOL    HW242233   9.091  11.953   4.086 -1.3017 -0.3867  0.7247
11665SOL     OW42234   4.630   4.602   9.243  0.1593  0.3434 -0.0580
11665SOL    HW142235   4.615   4.551   9.164 -1.7296  2.8986 -1.5177
11665SOL    HW242236   4.555   4.581   9.300 -1.2013  2.1243 -1.1010
11666SOL     OW42237   0.368   7.080   8.747  0.2734  0.2466  0.0211
11666SOL    HW142238   0.373   7.066   8.842  0.0476 -3.9619 -0.4426
11666SOL    HW242239   0.455   7.059   8.715 -0.1943 -0.3035 -0.9082
11667SOL     OW42240   9.683   2.691   4.375  0.0380 -0.7702  0.3105
11667SOL    HW142241   9.595   2.715   4.405  0.4375  1.3359 -0.0244
11667SOL    HW242242   9.669   2.648   4.291 -0.6487  0.0672 -0.0116
11668SOL     OW42243  11.203   0.340   3.054 -0.4035 -0.1110 -0.4183
11668SOL    HW142244  11.227   0.423   3.013 -2.2771 -0.1774 -1.8140
11668SOL    HW242245  11.193   0.279   2.980 -2.6990 -0.5784  0.1949
11669SOL     OW42246   5.571   8.197   8.821 -0.6802 -0.1301 -0.2659
11669SOL    HW142247   5.494   8.240   8.783  1.0062  1.2708 -2.3108
11669SOL    HW242248   5.636   8.267   8.828  0.9912 -1.6256 -0.3344
11670SOL     OW42249   5.955   6.233   6.364 -0.4287  0.2735 -0.1803
11670SOL    HW142250   5.995   6.258   6.281  0.7021 -1.2983 -0.1643
11670SOL    HW242251   5.976   6.140   6.374 -0.5505  0.4074  1.8471
11671SOL     OW42252   9.537   9.249   6.806  0.4752  0.7026  0.7634
11671SOL    HW142253   9.535   9.342   6.783 -1.7155  0.4208 -0.4641
11671SOL    HW242254   9.484   9.206   6.739  0.1227 -1.2329  2.1711
11672SOL     OW42255   2.946   4.572   8.866  0.2436  0.0994  0.5342
11672SOL    HW142256   3.010   4.603   8.930  1.8484  0.9324 -1.3224
11672SOL    HW242257   2.873   4.634   8.873  0.5482  0.3801  1.3182
11673SOL     OW42258   8.424  12.527   4.640  0.3741 -0.0307  0.6249
11673SOL    HW142259   8.399  12.542   4.549  0.6338  0.5975  0.6520
11673SOL    HW242260   8.383  12.444   4.663  1.5807 -1.0024 -0.5454
11674SOL     OW42261  10.578   3.873   0.023 -0.4098  0.2393 -0.3974
11674SOL    HW142262  10.580   3.867  -0.072  0.6407 -0.5747 -0.3303
11674SOL    HW242263  10.513   3.809   0.050  0.9328 -1.1942 -0.4586
11675SOL     OW42264   3.195   1.936   2.813 -0.2411 -0.8541 -0.0095
11675SOL    HW142265   3.190   1.935   2.717  0.1982  1.2118 -0.0897
11675SOL    HW242266   3.268   1.995   2.833 -2.1919  1.1675  1.5991
11676SOL     OW42267   6.318   6.408   4.025 -0.2441 -0.2454 -0.0736
11676SOL    HW142268   6.348   6.328   4.070 -0.7249 -0.3867 -0.0054
11676SOL    HW242269   6.223   6.399   4.020 -0.2821  0.2285 -0.2519
11677SOL     OW42270   6.191   1.162   7.573  0.0913 -0.4698 -0.2423
11677SOL    HW142271   6.216   1.073   7.600  1.0120 -0.7223 -1.8236
11677SOL    HW242272   6.109   1.178   7.620  1.2898 -1.0542  2.2256
11678SOL     OW42273   2.510   0.946   5.031 -0.1138  0.1620 -0.3649
11678SOL    HW142274   2.486   1.023   4.980  1.4612  2.2025  1.7719
11678SOL    HW242275   2.605   0.938   5.020 -0.3667 -2.1416 -1.3498
11679SOL     OW42276   8.343   5.249  12.083  0.5831 -0.0869  0.1558
11679SOL    HW142277   8.307   5.163  12.105  1.1160 -0.1311  0.8839
11679SOL    HW242278   8.438   5.236  12.081  0.6131  0.2351 -0.8381
11680SOL     OW42279   1.377   7.383   2.524 -0.3763 -0.5746  0.3560
11680SOL    HW142280   1.394   7.329   2.447 -1.0792  1.2544 -1.1496
11680SOL    HW242281   1.283   7.373   2.540 -0.2255 -0.9790  1.0214
11681SOL     OW42282   7.778   6.444  11.143  0.2933  0.4940 -0.0737
11681SOL    HW142283   7.728   6.372  11.107 -0.9558  1.2319  0.1251
11681SOL    HW242284   7.791   6.504  11.069 -0.4243  1.0007  0.1959
11682SOL     OW42285   9.189   7.028   1.842 -0.2117  0.0819 -0.2275
11682SOL    HW142286   9.238   7.079   1.906 -1.0790  1.5975 -0.7013
11682SOL    HW242287   9.162   6.949   1.889  0.9870  0.1446  0.6051
11683SOL     OW42288   3.254   2.179   3.768  1.3517  0.0933  0.6168
11683SOL    HW142289   3.184   2.219   3.821  1.2548 -0.4318  0.8879
11683SOL    HW242290   3.324   2.161   3.831  1.6491  0.4120  0.3833
11684SOL     OW42291   0.019   8.784   1.385 -0.2432  0.0857 -0.1183
11684SOL    HW142292   0.089   8.719   1.381  0.2679  0.5649  0.6956
11684SOL    HW242293  -0.056   8.737   1.421 -0.4972 -0.5449 -1.4250
11685SOL     OW42294   6.036  12.646  10.036 -0.4517  0.0235 -0.2668
11685SOL    HW142295   6.097  12.616  10.103  0.7977  1.1496 -0.8417
11685SOL    HW242296   6.035  12.575   9.971  1.3613  0.5593 -0.9277
11686SOL     OW42297   9.740   4.200   5.968 -0.1129 -0.9604  0.5360
11686SOL    HW142298   9.798   4.198   5.892 -0.2079 -1.3172  0.4742
11686SOL    HW242299   9.789   4.154   6.037  1.9982  3.1326  2.1291
11687SOL     OW42300   6.729   9.218   8.191 -0.2601  0.2785  0.2142
11687SOL    HW142301   6.795   9.251   8.129  0.9022 -0.6416  0.9197
11687SOL    HW242302   6.660   9.182   8.136  0.0697  0.7945 -0.5492
11688SOL     OW42303  12.482  11.436   6.332  0.0609  0.4265  0.2038
11688SOL    HW142304  12.474  11.530   6.323  0.5738  0.4586  0.0454
11688SOL    HW242305  12.536  11.409   6.258  0.9091  0.1696  0.8914
11689SOL     OW42306   8.012   2.361   4.759 -0.1162  0.5992 -0.2062
11689SOL    HW142307   8.043   2.413   4.833 -0.7440  0.2222  0.3406
11689SOL    HW242308   7.953   2.297   4.799  1.6360 -1.4093 -0.6515
11690SOL     OW42309   6.416   0.119   6.587 -0.0311  0.4303 -0.3262
11690SOL    HW142310   6.411   0.200   6.536  1.0864  0.4772 -0.4015
11690SOL    HW242311   6.353   0.060   6.545 -0.6284  1.1570 -0.4645
11691SOL     OW42312  10.938   6.038   9.403 -0.6554 -0.0632 -0.5855
11691SOL    HW142313  10.957   5.946   9.384  1.0020  0.0116  0.4460
11691SOL    HW242314  11.017   6.085   9.374 -0.6752  0.7677  0.6305
11692SOL     OW42315   1.408  11.978   2.640 -0.1052  0.2019 -0.4864
11692SOL    HW142316   1.314  11.982   2.660  0.0431 -1.4092  0.6990
11692SOL    HW242317   1.428  11.885   2.638  1.2578  0.4899 -1.9400
11693SOL     OW42318   6.729   7.573   5.851  0.0321 -0.0650 -0.5850
11693SOL    HW142319   6.683   7.581   5.935  2.2632  2.6527  0.4962
11693SOL    HW242320   6.662   7.592   5.785 -0.3380  6.0772  0.9897
11694SOL     OW42321   9.301   5.919   4.486  0.3884  0.0499 -0.2712
11694SOL    HW142322   9.259   5.894   4.404  1.1513  0.1610 -0.7029
11694SOL    HW242323   9.375   5.858   4.495 -0.9863 -1.4945  1.4891
11695SOL     OW42324   5.553   2.342   0.509 -0.9362 -0.0302  0.4593
11695SOL    HW142325   5.468   2.386   0.509 -0.7285  0.4059 -0.7173
11695SOL    HW242326   5.608   2.395   0.451 -1.1249 -2.6358 -2.3783
11696SOL     OW42327   1.151   7.017   9.221  0.3557  0.6795 -0.3408
11696SOL    HW142328   1.177   7.034   9.311 -1.8737  0.7455  0.3420
11696SOL    HW242329   1.169   7.100   9.175 -0.0960  1.2199  0.4352
11697SOL     OW42330  10.923   8.144   8.243  0.6603 -0.4857  0.1107
11697SOL    HW142331  10.931   8.210   8.175 -1.7358 -0.4750 -0.2571
11697SOL    HW242332  10.971   8.179   8.317 -0.2137  1.5150 -0.2037
11698SOL     OW42333  11.986   1.011  11.303  0.0824  0.2376 -0.0715
11698SOL    HW142334  11.915   1.067  11.335 -1.4757  0.0640 -2.8905
11698SOL    HW242335  11.970   0.926  11.344 -0.1322  0.7113  0.8575
11699SOL     OW42336   2.533   8.090   7.717  0.5565 -0.1767  0.5000
11699SOL    HW142337   2.492   8.080   7.802  1.6549 -2.2177  0.8506
11699SOL    HW242338   2.493   8.022   7.662 -0.8826  1.7463 -0.9876
11700SOL     OW42339   7.531   8.110   3.678  0.1371 -0.3615  0.0815
11700SOL    HW142340   7.483   8.165   3.616  1.0122 -0.0271 -0.3071
11700SOL    HW242341   7.617   8.099   3.639  0.8514  0.2078  1.4455
11701SOL     OW42342   4.458  12.685  11.450  0.0228 -0.4280  0.3323
11701SOL    HW142343   4.542  12.680  11.495 -0.8907  0.6261  2.2906
11701SOL    HW242344   4.417  12.599  11.465 -1.0776  0.5156  3.3469
11702SOL     OW42345   6.486   1.822   9.840  0.0654 -0.2805 -0.2059
11702SOL    HW142346   6.433   1.743   9.834 -0.7972  0.1666  1.1286
11702SOL    HW242347   6.577   1.791   9.836 -0.2653 -1.2879 -0.0999
11703SOL     OW42348   4.176  10.992   0.062 -0.0427  0.0397  1.0696
11703SOL    HW142349   4.123  10.922   0.100 -0.6790  0.9935  1.9990
11703SOL    HW242350   4.115  11.065   0.051  0.2118 -0.0497 -1.4450
11704SOL     OW42351  10.445  11.929   0.879  0.3539 -0.4527 -0.3657
11704SOL    HW142352  10.450  11.912   0.785 -1.6867 -2.0098 -0.2578
11704SOL    HW242353  10.358  11.967   0.892  0.3027 -0.9984  0.9798
11705SOL     OW42354   4.273   7.462   1.949 -0.1825 -0.0899 -0.4403
11705SOL    HW142355   4.287   7.458   1.855  1.0246  1.9746 -0.4251
11705SOL    HW242356   4.342   7.406   1.986 -2.6573 -3.6735 -0.7435
11706SOL     OW42357   8.564   3.168  10.819 -0.1084  0.0478 -0.3346
11706SOL    HW142358   8.607   3.216  10.890  0.7603  0.4560 -1.1169
11706SOL    HW242359   8.503   3.109  10.864 -0.0535  0.7535  0.7170
11707SOL     OW42360   0.798   8.161   1.055 -0.1447 -0.1394  0.0893
11707SOL    HW142361   0.748   8.210   1.120 -0.9952 -0.3480 -0.3807
11707SOL    HW242362   0.792   8.070   1.085  2.9153  0.1469  1.9353
11708SOL     OW42363   9.226   7.933   5.925 -0.0677 -0.1373  0.0337
11708SOL    HW142364   9.320   7.929   5.943 -0.3151 -1.2309  1.2611
11708SOL    HW242365   9.197   8.012   5.971  0.3311  0.5436 -0.8539
11709SOL     OW42366   9.253  12.445   3.574 -0.3725 -0.0906  0.5842
11709SOL    HW142367   9.226  12.373   3.516 -0.4687 -0.5407  1.1831
11709SOL    HW242368   9.280  12.402   3.655  2.6144  0.2611 -0.0977
11710SOL     OW42369  10.530   8.160   4.470 -0.1805  0.0754 -0.2641
11710SOL    HW142370  10.513   8.156   4.564  1.0295 -0.4536 -0.0469
11710SOL    HW242371  10.542   8.068   4.444 -1.9652  0.0757 -1.2480
11711SOL     OW42372   9.731   2.693   2.382 -0.0381 -0.0144 -0.6821
11711SOL    HW142373   9.665   2.762   2.385  1.2670  1.3400 -1.8197
11711SOL    HW242374   9.810   2.737   2.350  1.2502 -1.7194  0.0212
11712SOL     OW42375  10.940   9.905   8.165 -0.0441 -0.8502  0.1108
11712SOL    HW142376  10.893   9.832   8.124 -1.8899 -0.1507  0.8490
11712SOL    HW242377  10.898   9.983   8.127 -0.0138 -0.2016  1.3724
11713SOL     OW42378   6.422   0.519   9.267 -0.5194 -0.3809 -0.0269
11713SOL    HW142379   6.476   0.598   9.264  1.1568 -1.2626  3.1541
11713SOL    HW242380   6.484   0.447   9.253 -0.9844 -1.3553  2.5260
11714SOL     OW42381   4.229   4.704  10.059  0.1774  0.1498  0.0293
11714SOL    HW142382   4.164   4.761  10.019 -0.4245  1.5290  2.7491
11714SOL    HW242383   4.227   4.624  10.006 -2.7710  0.6424 -0.7421
11715SOL     OW42384   2.754   2.477  12.618 -0.1611 -0.6188  0.4084
11715SOL    HW142385   2.797   2.423  12.685 -0.5081 -1.8590 -0.3290
11715SOL    HW242386   2.673   2.430  12.598  0.2706 -0.6894 -1.3937
11716SOL     OW42387  10.037   4.807   9.016 -0.1325  0.4205 -0.1314
11716SOL    HW142388   9.958   4.861   9.007  1.0519  2.2923  0.2210
11716SOL    HW242389  10.033   4.773   9.105 -0.0944  1.2785  0.2084
11717SOL     OW42390  10.788   6.192  12.382 -0.0807 -0.2123 -0.1975
11717SOL    HW142391  10.859   6.128  12.378 -1.0688 -1.2984 -2.1887
11717SOL    HW242392  10.787   6.231  12.294  0.3408  2.4127  0.8932
11718SOL     OW42393   6.832   1.233   7.753 -0.2861 -0.4147  0.3602
11718SOL    HW142394   6.891   1.205   7.823  1.2957  0.9406 -0.3543
11718SOL    HW242395   6.890   1.263   7.684 -1.8354 -0.4430 -1.0084
11719SOL     OW42396   3.637   0.993   4.235  0.5365  0.1947  0.2233
11719SOL    HW142397   3.662   0.901   4.249  0.8165  0.4177  1.2404
11719SOL    HW242398   3.545   0.989   4.209  0.8007 -0.4322 -0.6738
11720SOL     OW42399   5.851   4.896   3.541 -0.1142 -0.0804  0.3708
11720SOL    HW142400   5.768   4.942   3.526 -0.0532 -0.6387 -2.1110
11720SOL    HW242401   5.910   4.963   3.576 -1.0907  0.7558  0.4615
11721SOL     OW42402  10.235   5.894   8.455  0.7088  0.0925  0.4312
11721SOL    HW142403  10.263   5.913   8.545  0.1916  0.7824  0.4523
11721SOL    HW242404  10.271   5.807   8.437  0.4853 -0.2221  1.4425
11722SOL     OW42405  10.517   8.659   3.424 -0.4301 -0.2628  0.4937
11722SOL    HW142406  10.454   8.731   3.436  0.4179  0.3620  1.3103
11722SOL    HW242407  10.492   8.620   3.340 -1.5059  0.3776  0.4915
11723SOL     OW42408   6.173  11.330  12.252  0.5389 -0.5361 -0.4031
11723SOL    HW142409   6.131  11.410  12.220  1.9993  0.2923 -0.3420
11723SOL    HW242410   6.264  11.336  12.220  1.3830 -0.8802  1.7534
11724SOL     OW42411  12.695   6.957   8.896 -0.2791  0.2697 -0.9753
11724SOL    HW142412  12.735   6.904   8.965 -0.4183  0.4888 -0.7227
11724SOL    HW242413  12.769   7.002   8.855 -0.0675 -0.7050 -1.7099
11725SOL     OW42414   9.580   6.879   0.949  0.3372  0.0926  0.2208
11725SOL    HW142415   9.567   6.899   0.856 -1.9969  1.5889  0.7836
11725SOL    HW242416   9.521   6.806   0.966 -0.2531  0.6783  0.7657
11726SOL     OW42417   6.331   8.831   7.934 -0.1517  0.0799 -0.0269
11726SOL    HW142418   6.311   8.791   8.018  1.9811  0.7080  0.8339
11726SOL    HW242419   6.391   8.771   7.891  0.9670  1.0634  0.1220
11727SOL     OW42420   1.903   6.914  10.746 -0.2542 -0.0780  0.0328
11727SOL    HW142421   1.994   6.905  10.774 -0.0269  0.3223 -0.5657
11727SOL    HW242422   1.884   6.833  10.700  0.3872  0.5631 -1.4380
11728SOL     OW42423   4.333   0.615   6.889 -0.1420  0.2347 -0.6820
11728SOL    HW142424   4.420   0.627   6.927 -1.1061 -0.1816  1.8432
11728SOL    HW242425   4.294   0.703   6.890 -0.8215 -0.0428  1.1467
11729SOL     OW42426  11.590   2.886   6.645  0.1516  0.1904 -0.1396
11729SOL    HW142427  11.571   2.796   6.673  0.9017  0.6378  2.0172
11729SOL    HW242428  11.581   2.938   6.725  1.1191  1.8142 -1.0400
11730SOL     OW42429  12.111   8.729   7.557 -0.0659  0.2401 -0.2851
11730SOL    HW142430  12.029   8.685   7.533  1.0059 -1.5986 -0.7622
11730SOL    HW242431  12.104   8.816   7.516 -1.7480  0.1189 -0.3370
11731SOL     OW42432   2.296   7.092   1.261 -0.2780  0.1568 -0.2294
11731SOL    HW142433   2.230   7.064   1.326 -0.5611 -0.8891 -0.9407
11731SOL    HW242434   2.310   7.014   1.207  0.2289  0.9036 -1.1963
11732SOL     OW42435   8.087  11.821  11.766  0.0841 -0.3073 -0.0139
11732SOL    HW142436   8.049  11.907  11.749 -0.8318 -1.2285 -3.2101
11732SOL    HW242437   8.169  11.821  11.716  0.7530 -0.8698  1.0352
11733SOL     OW42438   5.870   9.148   8.814  0.7053 -0.1413  0.3599
11733SOL    HW142439   5.961   9.143   8.783 -0.1344 -1.5620 -2.1782
11733SOL    HW242440   5.848   9.240   8.808  1.0687 -0.1453 -2.1605
11734SOL     OW42441   3.172   9.335  12.265  0.3087  0.1422 -0.2030
11734SOL    HW142442   3.205   9.297  12.183  0.0102 -1.0392  0.2070
11734SOL    HW242443   3.217   9.420  12.272  0.7984 -0.0110 -1.2766
11735SOL     OW42444   4.866  12.296  10.568 -0.5483 -0.7436  0.4984
11735SOL    HW142445   4.876  12.241  10.490 -0.2491 -1.1134  0.7886
11735SOL    HW242446   4.776  12.282  10.596 -1.9135  2.2670 -1.8881
11736SOL     OW42447   0.485   1.596   2.882 -0.1481 -0.1099 -0.0121
11736SOL    HW142448   0.441   1.681   2.883 -0.1778 -0.1298  0.6090
11736SOL    HW242449   0.543   1.599   2.958  0.2494 -0.4391 -0.3011
11737SOL     OW42450  10.027   7.750   7.449 -0.0294  0.1750  0.3539
11737SOL    HW142451  10.054   7.807   7.377  0.0978  1.5337  1.4562
11737SOL    HW242452   9.973   7.683   7.406  2.1705 -0.6059 -1.3948
11738SOL     OW42453   4.617  11.947  10.423  0.5536  0.7933 -0.0241
11738SOL    HW142454   4.650  12.022  10.472  0.1335  1.4454 -0.7182
11738SOL    HW242455   4.562  11.900  10.484 -0.2092  1.7614  0.0520
11739SOL     OW42456   2.048  11.031   6.800 -0.2242 -0.5513  0.7352
11739SOL    HW142457   1.984  11.020   6.870 -0.7427 -0.3954  0.2977
11739SOL    HW242458   1.995  11.044   6.721  0.3456 -0.7248  0.3141
11740SOL     OW42459  12.509   0.600   8.347  0.1292  0.0391 -0.2102
11740SOL    HW142460  12.485   0.507   8.343 -0.5448  0.2187 -0.4498
11740SOL    HW242461  12.591   0.601   8.396 -1.3421 -0.4161  2.4181
11741SOL     OW42462   4.159  11.646  11.601  0.4113  0.3325  0.0415
11741SOL    HW142463   4.081  11.700  11.588 -0.4921 -0.8293  0.4539
11741SOL    HW242464   4.197  11.678  11.683 -0.0506  0.4194  0.2234
11742SOL     OW42465  10.747  12.366   5.652  0.0603  0.2231  0.2524
11742SOL    HW142466  10.651  12.370   5.645 -0.1161 -1.8448  0.9348
11742SOL    HW242467  10.763  12.330   5.739  1.4774  0.6325  0.1818
11743SOL     OW42468  10.582   7.255   0.157 -0.1769 -0.3808 -0.1603
11743SOL    HW142469  10.491   7.229   0.173 -0.5900  0.4506 -1.0159
11743SOL    HW242470  10.615   7.279   0.243 -1.0386  0.0952  0.0582
11744SOL     OW42471   3.331   1.234   5.179  0.3440  0.4279 -0.0899
11744SOL    HW142472   3.329   1.153   5.128  1.5703 -0.4151  1.1125
11744SOL    HW242473   3.281   1.214   5.258 -0.4491  1.2978 -0.3537
11745SOL     OW42474  11.664   4.469   8.618  0.0650 -0.3128 -0.3496
11745SOL    HW142475  11.660   4.563   8.634  0.7524 -0.1148 -1.2649
11745SOL    HW242476  11.703   4.433   8.698 -1.3646  0.0126  0.5246
11746SOL     OW42477   6.081  12.238   5.591  0.2905  0.0806  0.4686
11746SOL    HW142478   6.078  12.168   5.526  0.7459  1.7989 -1.5355
11746SOL    HW242479   6.169  12.275   5.581 -0.4194  1.8590  0.3600
11747SOL     OW42480   9.426  10.190  10.335 -0.3714 -0.5059 -0.0046
11747SOL    HW142481   9.373  10.226  10.406  0.2333  1.0743 -0.3261
11747SOL    HW242482   9.409  10.096  10.338 -0.5047 -0.4608  2.1134
11748SOL     OW42483   8.273   0.174   5.012  0.4455 -0.4036 -0.2199
11748SOL    HW142484   8.317   0.127   4.941  2.4539  0.5357  0.3542
11748SOL    HW242485   8.218   0.107   5.054  2.7686 -2.1341  0.2364
11749SOL     OW42486   5.043   7.926   4.502 -0.0715  0.1560 -0.0800
11749SOL    HW142487   4.962   7.946   4.548  0.1477  0.5710  0.1366
11749SOL    HW242488   5.054   7.832   4.512  1.0963  0.4645  2.6644
11750SOL     OW42489   5.609   9.726  12.209  0.3339 -0.6620  0.5508
11750SOL    HW142490   5.524   9.684  12.194  0.6468 -0.9292 -0.5468
11750SOL    HW242491   5.673   9.659  12.184  0.8460  0.2396 -0.6081
11751SOL     OW42492   5.423   7.454  12.125 -0.4526  0.2286 -0.3996
11751SOL    HW142493   5.433   7.548  12.133  0.9383 -0.0127  1.4535
11751SOL    HW242494   5.336   7.436  12.162 -0.0910  0.6554  0.6969
11752SOL     OW42495  10.658   1.641   3.617  0.0923  0.4465  0.4832
11752SOL    HW142496  10.669   1.671   3.708  0.9215 -0.3084  0.6426
11752SOL    HW242497  10.567   1.611   3.614 -0.7782  2.8718  0.3214
11753SOL     OW42498   8.272   8.634   5.480 -0.0245  0.1284  0.5446
11753SOL    HW142499   8.209   8.565   5.499 -1.0955  1.2571  1.2613
11753SOL    HW242500   8.351   8.609   5.528 -1.0855  0.4185  2.5821
11754SOL     OW42501   5.969  10.778   4.649 -0.1998 -0.0481 -0.5953
11754SOL    HW142502   5.940  10.793   4.739 -0.6838 -0.1437 -0.7308
11754SOL    HW242503   6.027  10.702   4.654  0.1623  0.2479 -0.2932
11755SOL     OW42504   1.153   9.942   7.650  0.4637 -0.0738 -0.0086
11755SOL    HW142505   1.146  10.004   7.577  2.2433 -0.2542 -0.3837
11755SOL    HW242506   1.157   9.998   7.728  1.2525  0.2765 -0.2847
11756SOL     OW42507   5.196   0.576   2.098  0.0579 -0.3457  0.5865
11756SOL    HW142508   5.203   0.658   2.048  0.2661 -1.4299 -1.2537
11756SOL    HW242509   5.248   0.592   2.177  0.1584  1.2674  0.2289
11757SOL     OW42510   7.691   9.744  11.911 -0.1531  0.9295  0.2270
11757SOL    HW142511   7.710   9.815  11.972  1.8999  1.3493 -0.8156
11757SOL    HW242512   7.654   9.787  11.834  2.8807  1.2369 -1.1990
11758SOL     OW42513   1.833   4.585   2.124 -0.2844  0.3576 -0.0066
11758SOL    HW142514   1.833   4.681   2.118 -0.8445  0.3425 -0.3466
11758SOL    HW242515   1.865   4.567   2.212 -2.0523  0.9310  0.8193
11759SOL     OW42516   5.470  10.816   0.368 -0.7018 -0.1863 -0.2210
11759SOL    HW142517   5.433  10.803   0.455  0.4696  0.2246  0.3550
11759SOL    HW242518   5.548  10.760   0.366  0.8459  1.8554  0.0178
11760SOL     OW42519   1.087  10.716  10.969  0.0614  0.0873 -0.4905
11760SOL    HW142520   1.062  10.678  10.884 -0.6599 -3.3294  1.0979
11760SOL    HW242521   1.131  10.646  11.015  2.1585  2.4446  1.3499
11761SOL     OW42522   7.324   4.429   6.264 -0.5964  0.2404 -0.2597
11761SOL    HW142523   7.336   4.438   6.359  0.0568  0.3234 -0.3415
11761SOL    HW242524   7.350   4.514   6.229 -2.3195  0.7492 -0.4097
11762SOL     OW42525   6.700  10.599   8.442 -0.5038  0.2647  0.1797
11762SOL    HW142526   6.795  10.587   8.441 -0.4513  0.6808 -0.4203
11762SOL    HW242527   6.686  10.678   8.493 -0.6385 -0.5667  1.4856
11763SOL     OW42528  11.241   3.215   2.787 -0.2005 -0.0194  0.0978
11763SOL    HW142529  11.153   3.229   2.750 -0.6045  0.0362  1.0557
11763SOL    HW242530  11.242   3.123   2.814 -0.8637  0.5685  2.3288
11764SOL     OW42531   3.192   9.238   0.861  0.7784  0.1986 -0.3077
11764SOL    HW142532   3.123   9.304   0.865  1.1042  0.5700 -0.6809
11764SOL    HW242533   3.152   9.164   0.814  0.4947  0.2345 -0.1195
11765SOL     OW42534   5.915   0.566   5.651  0.8103 -0.6935 -0.1093
11765SOL    HW142535   5.852   0.519   5.596  1.6791 -0.5042 -1.2887
11765SOL    HW242536   5.861   0.605   5.721 -0.4371 -0.2497 -1.2858
11766SOL     OW42537   2.600   7.964   0.386  0.1149  0.3814 -0.6626
11766SOL    HW142538   2.658   8.034   0.415  0.6575 -0.1435 -0.4576
11766SOL    HW242539   2.621   7.890   0.444  1.3592 -0.7675 -2.4832
11767SOL     OW42540   1.449  12.136   2.411  0.3315 -0.6333  0.1785
11767SOL    HW142541   1.462  12.079   2.487 -0.4737 -0.6231  0.3333
11767SOL    HW242542   1.499  12.215   2.432 -1.2756  0.0980  1.5336
11768SOL     OW42543  12.070   2.447   8.306 -0.1114  0.6178  0.0711
11768SOL    HW142544  12.051   2.379   8.242  0.7504 -0.1166  0.5828
11768SOL    HW242545  12.099   2.522   8.254  1.2818 -0.2035 -0.3774
11769SOL     OW42546   2.865  10.337   5.878 -0.5756 -0.3133 -0.4535
11769SOL    HW142547   2.923  10.261   5.876 -1.1242 -0.7886  0.7003
11769SOL    HW242548   2.777  10.300   5.866 -0.6857  0.3804 -2.1138
11770SOL     OW42549   0.254   5.914   9.099  0.1441 -0.3996  0.6697
11770SOL    HW142550   0.242   5.833   9.049  1.5297 -1.1986  1.5661
11770SOL    HW242551   0.241   5.984   9.035 -2.2374 -1.2577  0.1152
11771SOL     OW42552  12.236  10.238  12.180  0.0102 -0.1443  0.2187
11771SOL    HW142553  12.311  10.282  12.219 -0.1585  1.1479 -0.8493
11771SOL    HW242554  12.182  10.308  12.143 -0.2735 -1.2003 -1.5365
11772SOL     OW42555   4.206   9.936  11.158 -0.2693  1.0918  0.4574
11772SOL    HW142556   4.271   9.919  11.090 -0.2909 -0.9447  0.8805
11772SOL    HW242557   4.216  10.028  11.179 -1.0020  2.0899 -3.0530
11773SOL     OW42558   2.866   0.622  11.978  0.0865 -0.3125 -0.3392
11773SOL    HW142559   2.863   0.671  12.060 -0.4351  0.3648 -0.7451
11773SOL    HW242560   2.778   0.631  11.941  0.3127 -0.6005 -0.9704
11774SOL     OW42561   9.471  11.947   3.699 -0.2716 -0.0132  0.0893
11774SOL    HW142562   9.551  11.903   3.725  1.7653  2.8432 -0.7894
11774SOL    HW242563   9.402  11.906   3.752  1.4299 -3.6243 -0.2273
11775SOL     OW42564   4.826   6.789   1.967 -0.3508 -0.2495 -0.8755
11775SOL    HW142565   4.855   6.873   1.931 -1.1896  0.9674  1.1011
11775SOL    HW242566   4.732   6.786   1.946 -0.3012 -0.7384 -1.0233
11776SOL     OW42567   0.954  11.435   5.018  0.1428 -0.6382 -0.2898
11776SOL    HW142568   0.912  11.487   5.087 -0.9401 -0.2162 -1.2262
11776SOL    HW242569   1.018  11.381   5.064  1.2095  1.3849  0.7637
11777SOL     OW42570  12.125   0.480   9.771 -0.9737 -0.5061  0.2115
11777SOL    HW142571  12.125   0.541   9.698 -1.2983  0.1440  0.7376
11777SOL    HW242572  12.152   0.397   9.733  1.9897  0.4627 -0.0942
11778SOL     OW42573   4.353   7.060  11.817 -0.1281 -0.1145  0.1855
11778SOL    HW142574   4.386   7.051  11.906  1.6010  0.7223 -0.3039
11778SOL    HW242575   4.261   7.081  11.826  0.4349  1.9111  1.8748
11779SOL     OW42576   4.246  12.014  10.933 -0.3252  0.4789 -0.1331
11779SOL    HW142577   4.320  12.075  10.926 -0.1376  0.2223 -0.3828
11779SOL    HW242578   4.176  12.057  10.883 -0.1158  0.3758 -0.5197
11780SOL     OW42579  10.156   1.712   2.369 -0.2541  1.0452  0.1144
11780SOL    HW142580  10.208   1.791   2.386 -0.8647  1.9044 -1.6231
11780SOL    HW242581  10.089   1.742   2.307  0.6909 -1.2484 -2.1823
11781SOL     OW42582   4.695  12.699   9.832 -0.0069 -0.3742 -0.2148
11781SOL    HW142583   4.738  12.773   9.788  0.8001 -0.7258 -0.0429
11781SOL    HW242584   4.672  12.732   9.919  2.0998 -0.8467  0.5906
11782SOL     OW42585   6.616   9.928   4.488  0.0984 -0.2014  0.2248
11782SOL    HW142586   6.696   9.955   4.443  1.0181 -1.6239  0.9411
11782SOL    HW242587   6.546   9.946   4.424  0.8607  1.6734 -0.1784
11783SOL     OW42588   9.652   1.908   4.942  0.2391  0.1588 -0.3834
11783SOL    HW142589   9.690   1.829   4.903 -0.0969  0.1446 -0.6824
11783SOL    HW242590   9.587   1.874   5.004  1.2852  0.1576  0.7519
11784SOL     OW42591   8.835   2.908   4.467  0.0098  0.0752 -0.3288
11784SOL    HW142592   8.756   2.868   4.431  0.5847 -0.5164 -0.9442
11784SOL    HW242593   8.883   2.836   4.506  0.6398  0.3004 -0.6749
11785SOL     OW42594  11.659   7.133   3.663 -0.1834 -0.6086  0.1120
11785SOL    HW142595  11.705   7.183   3.731 -1.1217 -1.1061  1.1532
11785SOL    HW242596  11.707   7.051   3.656  0.0878 -0.4377 -0.0415
11786SOL     OW42597   2.703   7.300   9.875  0.2267  0.3912 -0.5153
11786SOL    HW142598   2.740   7.212   9.868 -0.0087  0.3922 -2.5879
11786SOL    HW242599   2.772   7.351   9.918  1.2882 -0.3414 -1.2779
11787SOL     OW42600   5.494  10.293  12.034  0.3228  0.0279 -0.0744
11787SOL    HW142601   5.462  10.356  11.970 -1.5612 -0.2895  0.4927
11787SOL    HW242602   5.566  10.248  11.990  0.0965  0.9041 -1.3762
11788SOL     OW42603   8.148   1.159   9.322  0.1006 -0.2695  0.1811
11788SOL    HW142604   8.120   1.180   9.233  1.3848 -0.7917 -0.3741
11788SOL    HW242605   8.117   1.070   9.337  0.8962 -0.6296 -0.2163
11789SOL     OW42606  11.393  11.047   3.214 -0.3028  0.0474  0.0238
11789SOL    HW142607  11.302  11.077   3.210 -0.0691  0.7742 -0.0013
11789SOL    HW242608  11.390  10.969   3.270 -0.9466  0.0367 -0.0172
11790SOL     OW42609   4.914  11.668   1.482 -0.2858  0.1412  0.3544
11790SOL    HW142610   4.831  11.648   1.438 -0.1804 -0.2206  0.3248
11790SOL    HW242611   4.964  11.587   1.477 -0.5630 -0.1459  1.7942
11791SOL     OW42612   6.444   9.189   8.126  0.2862 -0.1062 -0.8014
11791SOL    HW142613   6.397   9.265   8.160 -2.2527 -2.2561  0.9874
11791SOL    HW242614   6.410   9.176   8.038 -2.1641 -1.2030  0.2140
11792SOL     OW42615   7.633   1.878   3.117 -0.2989 -0.0883  0.1942
11792SOL    HW142616   7.626   1.973   3.132  2.5261  0.5375 -1.7113
11792SOL    HW242617   7.665   1.870   3.028 -0.3255 -2.8750  0.3536
11793SOL     OW42618  11.844   8.600   0.064 -0.0539  0.3775 -0.3414
11793SOL    HW142619  11.903   8.621   0.137 -0.9813  1.0780  0.2246
11793SOL    HW242620  11.880   8.648  -0.011  0.2383  0.6018 -0.0615
11794SOL     OW42621  11.452  11.953   9.976  0.1300  0.0629  0.2606
11794SOL    HW142622  11.466  11.859   9.991  0.6831  0.1787  0.4841
11794SOL    HW242623  11.372  11.973  10.026  0.2553 -0.1956  0.5721
11795SOL     OW42624   8.713   0.703   9.180  0.6707 -0.1522 -0.0029
11795SOL    HW142625   8.784   0.761   9.151  0.6345 -0.4593 -0.7331
11795SOL    HW242626   8.652   0.761   9.226  0.7338  0.3573 -0.5509
11796SOL     OW42627   3.582   9.419   3.962  0.4802  0.1473  0.3375
11796SOL    HW142628   3.541   9.474   4.029  0.8802  0.4661  0.3220
11796SOL    HW242629   3.577   9.471   3.882  0.4377 -0.0352  0.2214
11797SOL     OW42630   9.427   1.121  11.367  0.3575  0.2158 -0.8419
11797SOL    HW142631   9.468   1.205  11.347 -1.6164  1.0770 -1.5565
11797SOL    HW242632   9.424   1.075  11.284  0.7068 -0.2233 -0.6125
11798SOL     OW42633   0.148   5.262   9.945 -0.1547  0.0153 -0.0455
11798SOL    HW142634   0.191   5.216   9.872 -1.0801 -0.6686 -0.1810
11798SOL    HW242635   0.192   5.347   9.949  0.3149 -0.1669 -1.0201
11799SOL     OW42636   3.335  10.114  11.523 -0.1845 -0.1664 -0.0576
11799SOL    HW142637   3.410  10.098  11.581  0.8126 -1.2266 -1.5591
11799SOL    HW242638   3.355  10.063  11.444 -2.1414  0.1511 -0.7978
11800SOL     OW42639   9.247   9.232   2.178 -0.7115  0.3425  0.0755
11800SOL    HW142640   9.171   9.228   2.120 -1.2510  1.4558  0.6759
11800SOL    HW242641   9.302   9.157   2.151 -2.1263 -0.6325 -0.1906
11801SOL     OW42642   6.278   1.752   6.536 -0.8741 -0.0219 -0.2807
11801SOL    HW142643   6.370   1.770   6.517 -0.8840  2.1604  1.3183
11801SOL    HW242644   6.279   1.669   6.584  0.3095  0.1325 -0.0121
11802SOL     OW42645   0.179   8.031   0.634 -0.2104  0.1612 -0.5948
11802SOL    HW142646   0.152   8.091   0.703  0.3945 -0.3666  0.1184
11802SOL    HW242647   0.150   8.072   0.553  1.1194  1.9637 -0.2236
11803SOL     OW42648   0.543   0.939   4.833 -0.3323 -0.6891 -0.5230
11803SOL    HW142649   0.581   1.014   4.880 -1.8219 -0.2863  0.0893
11803SOL    HW242650   0.552   0.961   4.741 -0.7754  0.2799 -0.3477
11804SOL     OW42651   1.915   0.284   7.412 -0.4742 -0.2712  0.5460
11804SOL    HW142652   1.847   0.351   7.420  0.3831  0.6485  0.3286
11804SOL    HW242653   1.912   0.237   7.496  0.7525  1.8582  1.8830
11805SOL     OW42654  11.956   5.726   8.337 -0.0151  0.3799  0.0223
11805SOL    HW142655  12.045   5.692   8.346  0.3349  1.3824  0.5264
11805SOL    HW242656  11.948   5.750   8.245  1.1924  2.7359  0.4562
11806SOL     OW42657  11.315   4.593   3.018  0.2875 -0.2676 -0.5420
11806SOL    HW142658  11.343   4.648   3.091 -0.5161 -1.5276  0.7651
11806SOL    HW242659  11.361   4.629   2.942  0.7011  1.4414  0.4633
11807SOL     OW42660   4.663   7.088   5.661  0.0347 -0.1352  0.0886
11807SOL    HW142661   4.592   7.148   5.682  0.1692 -0.1130  0.4948
11807SOL    HW242662   4.621   7.013   5.619 -0.2139 -0.0716  0.2244
11808SOL     OW42663   9.041   2.434   8.079 -0.0766 -0.1571 -0.2045
11808SOL    HW142664   9.137   2.440   8.081 -0.0777 -0.3961  1.0889
11808SOL    HW242665   9.019   2.438   7.986  1.1750  0.1235 -0.5051
11809SOL     OW42666   5.281  10.145   3.158  0.1582 -0.2532 -0.3233
11809SOL    HW142667   5.376  10.136   3.144  0.0510  0.3758 -1.6290
11809SOL    HW242668   5.272  10.227   3.206  0.3649 -1.1598  1.3246
11810SOL     OW42669  10.150   6.112  10.204 -0.7781  0.3393 -0.0542
11810SOL    HW142670  10.188   6.024  10.203 -1.2040  0.1514 -1.1340
11810SOL    HW242671  10.114   6.121  10.292 -0.7926 -0.6056  0.0476
11811SOL     OW42672   9.051   1.881  11.788 -0.3749 -0.9803 -0.1735
11811SOL    HW142673   8.979   1.819  11.772 -1.4481  0.1728  0.0837
11811SOL    HW242674   9.038   1.950  11.723 -0.6247  0.1735  1.0504
11812SOL     OW42675  11.094   8.235  10.537  0.5026 -0.2235 -0.0152
11812SOL    HW142676  11.148   8.277  10.469  0.5795 -0.0633  0.1423
11812SOL    HW242677  11.037   8.305  10.569  1.6860  0.1745  1.3214
11813SOL     OW42678   4.991   7.694   7.441  0.0449 -0.2603 -0.7602
11813SOL    HW142679   4.915   7.721   7.390  1.1153 -0.3483 -2.4704
11813SOL    HW242680   5.009   7.604   7.411  0.9321 -0.1684 -0.5272
11814SOL     OW42681   6.674   4.541   5.112  0.4635 -0.3604  0.2381
11814SOL    HW142682   6.737   4.580   5.051 -1.7021  0.1793 -1.7815
11814SOL    HW242683   6.706   4.567   5.199  1.5656  2.1732 -0.8234
11815SOL     OW42684   0.431   0.250   4.809 -0.8587  0.2375 -0.1280
11815SOL    HW142685   0.455   0.200   4.887  1.7345 -1.2255 -1.7170
11815SOL    HW242686   0.462   0.339   4.826  1.6267 -0.5303 -0.1763
11816SOL     OW42687   9.197  10.248  12.412  0.0442 -0.3026 -0.1137
11816SOL    HW142688   9.288  10.219  12.414 -0.2849 -1.4693 -0.7599
11816SOL    HW242689   9.157  10.208  12.490 -0.4660 -1.8509 -1.1287
11817SOL     OW42690   0.801  12.491   3.606  0.9252 -0.3504 -0.1272
11817SOL    HW142691   0.825  12.583   3.616 -1.2496  0.4592 -1.6429
11817SOL    HW242692   0.758  12.468   3.689  1.6712 -0.1028  0.3397
11818SOL     OW42693   0.232   2.444   9.285 -0.3908  0.0382 -0.7237
11818SOL    HW142694   0.313   2.487   9.314 -0.9782  0.4487  0.3754
11818SOL    HW242695   0.260   2.361   9.247  0.3434 -1.6708  3.1194
11819SOL     OW42696   5.875   1.766  12.653  0.4984 -0.1496 -0.2109
11819SOL    HW142697   5.933   1.715  12.710 -0.3542 -0.9871 -0.0526
11819SOL    HW242698   5.798   1.710  12.642 -0.8574  1.4392  0.6555
11820SOL     OW42699   6.931   5.257  11.962 -0.6068  0.2410  0.2489
11820SOL    HW142700   6.903   5.268  11.871 -0.2085  0.3793  0.1394
11820SOL    HW242701   6.980   5.175  11.962 -1.0654 -0.0369  0.4541
11821SOL     OW42702   3.201   6.085   1.841 -0.2804  0.3316 -0.3090
11821SOL    HW142703   3.157   6.001   1.829 -0.6896  0.4742  0.1315
11821SOL    HW242704   3.253   6.097   1.762 -1.7556  0.5853 -1.2833
11822SOL     OW42705  12.591   3.638   2.787 -0.2747 -0.3789 -0.6825
11822SOL    HW142706  12.557   3.710   2.733 -3.3385 -0.2030  1.2391
11822SOL    HW242707  12.516   3.610   2.839  1.7619 -2.5216  1.3211
11823SOL     OW42708   4.466  11.944  12.453 -0.2838  0.0091 -0.1363
11823SOL    HW142709   4.512  12.015  12.497  1.3711 -1.4373  0.5976
11823SOL    HW242710   4.478  11.963  12.359  1.0176  0.1832  0.0411
11824SOL     OW42711   8.227   0.690   3.267  0.5602  0.0167 -0.3735
11824SOL    HW142712   8.229   0.639   3.348  0.3090  0.3097 -0.1808
11824SOL    HW242713   8.202   0.778   3.294  1.3160  0.3307 -0.6592
11825SOL     OW42714   1.013   9.877  10.060 -0.2347  0.6473 -0.4618
11825SOL    HW142715   0.928   9.837  10.043 -0.2575  0.3778  0.2374
11825SOL    HW242716   1.074   9.803  10.058 -0.4924  0.2477  2.4831
11826SOL     OW42717   0.945   8.362   5.072  0.2712  0.4352  0.2529
11826SOL    HW142718   1.008   8.299   5.034 -0.0538  0.7172 -0.8024
11826SOL    HW242719   0.913   8.411   4.996 -0.9016  0.5897  0.8279
11827SOL     OW42720   1.742   8.474   0.399  0.0701 -0.0406  0.3455
11827SOL    HW142721   1.730   8.474   0.494  1.2037  0.5144  0.5067
11827SOL    HW242722   1.837   8.476   0.387 -0.0682  0.3707 -0.8061
11828SOL     OW42723   8.595  11.825   8.463  0.5981  0.2735 -0.0707
11828SOL    HW142724   8.532  11.868   8.407  1.0183  2.1582  0.8316
11828SOL    HW242725   8.639  11.896   8.510  0.9393 -1.1449  1.9154
11829SOL     OW42726  11.723   0.591   3.970 -0.0109  0.0982  0.2952
11829SOL    HW142727  11.795   0.533   3.997 -0.2669  0.9926  3.2335
11829SOL    HW242728  11.644   0.546   4.000 -0.4118  0.6629  0.0939
11830SOL     OW42729  10.924   2.160   3.718 -0.6359 -0.5325 -0.1744
11830SOL    HW142730  11.009   2.151   3.761 -0.6156 -0.0489 -0.1062
11830SOL    HW242731  10.862   2.118   3.778 -0.2328 -2.4284 -1.0194
11831SOL     OW42732  12.270   8.375   3.330 -0.2264  0.2135  0.1952
11831SOL    HW142733  12.204   8.384   3.399 -1.2367  0.0477 -0.7065
11831SOL    HW242734  12.329   8.307   3.361  1.0210  2.0501  2.1342
11832SOL     OW42735   2.371   5.623   7.673  0.1301  0.5296  0.1423
11832SOL    HW142736   2.430   5.687   7.633  1.6799 -1.0897 -0.3118
11832SOL    HW242737   2.284   5.646   7.640  0.8121  1.6707 -0.9465
11833SOL     OW42738   6.384  11.435   5.257  0.3035  0.1614  0.5968
11833SOL    HW142739   6.328  11.358   5.259  0.5666 -0.0520  0.0008
11833SOL    HW242740   6.473  11.400   5.263  0.5633  0.2147 -1.9609
11834SOL     OW42741  11.806   1.976   5.387  0.1883  0.1737 -1.1927
11834SOL    HW142742  11.859   1.939   5.316  2.3948 -0.0300  0.4474
11834SOL    HW242743  11.870   2.006   5.452 -1.7283  0.1228  0.8530
11835SOL     OW42744  12.376   2.713   2.231  0.0264 -0.1210  0.3593
11835SOL    HW142745  12.422   2.788   2.269  0.9635 -0.6722  0.3225
11835SOL    HW242746  12.297   2.705   2.285 -0.2610  1.1027  0.1401
11836SOL     OW42747   0.969   0.037   0.072 -0.5523  0.2463  0.0383
11836SOL    HW142748   1.005  -0.052   0.065  0.4651  0.5947  0.6866
11836SOL    HW242749   0.908   0.032   0.145 -1.4367 -0.2036 -0.7014
11837SOL     OW42750   1.159  10.768   8.699 -0.0274  0.4640  0.0051
11837SOL    HW142751   1.068  10.742   8.712 -0.0219  0.6723  0.4930
11837SOL    HW242752   1.207  10.686   8.688  0.3142  0.0542  3.4915
11838SOL     OW42753  11.189   5.515   5.810 -0.4935  0.0720  0.5208
11838SOL    HW142754  11.168   5.427   5.842 -0.9977  0.4548  1.2865
11838SOL    HW242755  11.238   5.555   5.882 -1.3044  0.8209  0.6778
11839SOL     OW42756   3.824   9.470  12.119  0.0613 -0.6470 -0.2649
11839SOL    HW142757   3.745   9.442  12.164 -0.9354  1.3928 -0.6324
11839SOL    HW242758   3.803   9.463  12.026  0.7479 -1.1972 -0.3908
11840SOL     OW42759   8.122   0.708   4.959  0.5239  0.3957  0.0241
11840SOL    HW142760   8.162   0.779   4.909  1.4851  0.1395  0.4137
11840SOL    HW242761   8.193   0.645   4.974 -0.3329 -0.6946 -0.3791
11841SOL     OW42762   4.591   7.622   0.924  0.3032 -0.1457 -0.1943
11841SOL    HW142763   4.515   7.588   0.972  0.8206  0.2663  0.9447
11841SOL    HW242764   4.666   7.576   0.962  0.9343  1.5892  0.8065
11842SOL     OW42765   6.986  12.069   0.412 -0.7654 -0.2651  0.4340
11842SOL    HW142766   6.942  12.101   0.491  0.1560 -0.5084  1.0554
11842SOL    HW242767   6.973  11.974   0.414  2.1038 -0.7286  2.1305
11843SOL     OW42768   0.604   5.585   0.331 -0.0367 -0.2874 -0.4392
11843SOL    HW142769   0.523   5.611   0.375  0.9098 -0.3989  1.4741
11843SOL    HW242770   0.645   5.668   0.306  1.1098  0.0374  2.1789
11844SOL     OW42771  12.574   5.162   2.365  0.2470 -0.1172 -0.0256
11844SOL    HW142772  12.485   5.144   2.333 -1.0123  2.1037  1.9082
11844SOL    HW242773  12.584   5.105   2.441 -0.1561  0.7208  0.6682
11845SOL     OW42774   5.645   9.184   9.525 -0.1121  0.3597  0.0517
11845SOL    HW142775   5.739   9.198   9.527 -0.1659  0.6902  1.4223
11845SOL    HW242776   5.615   9.209   9.612 -1.4040 -0.1919 -0.2071
11846SOL     OW42777   9.953   7.229   2.901 -0.2301  0.4373 -0.7940
11846SOL    HW142778  10.043   7.198   2.905 -0.1522  0.4757 -2.0206
11846SOL    HW242779   9.919   7.194   2.819 -1.7392 -0.6467  0.2361
11847SOL     OW42780   5.328   9.931   8.545  0.1846  0.1228 -0.1051
11847SOL    HW142781   5.313   9.837   8.556  0.2975  0.2579  1.3836
11847SOL    HW242782   5.379   9.956   8.621  0.9605  1.2346 -0.9590
11848SOL     OW42783   3.128  10.276   1.703 -0.6448  0.1645  0.2905
11848SOL    HW142784   3.136  10.287   1.608 -1.9589 -1.7682 -0.1039
11848SOL    HW242785   3.193  10.336   1.740 -0.6332  1.5430 -1.7862
11849SOL     OW42786   8.761   0.636   9.812 -0.0284  0.4041  0.2399
11849SOL    HW142787   8.802   0.560   9.854  0.1716  0.5768  0.3572
11849SOL    HW242788   8.674   0.641   9.851 -0.1275  0.0949  0.0608
11850SOL     OW42789   5.955   8.906   3.102  0.3244 -0.2355  0.1817
11850SOL    HW142790   6.021   8.901   3.032 -1.5827 -0.1295 -1.7288
11850SOL    HW242791   5.885   8.849   3.072 -1.5862  1.6558  0.8201
11851SOL     OW42792   6.617   5.128   4.467 -0.0593  0.1396 -0.4284
11851SOL    HW142793   6.709   5.101   4.459  0.4404  1.8841 -1.0833
11851SOL    HW242794   6.617   5.219   4.439 -2.1503 -0.0637 -1.2139
11852SOL     OW42795   6.055   9.615   3.665 -0.5663  0.1932 -0.4712
11852SOL    HW142796   6.122   9.666   3.710 -1.0505  0.8100 -0.4302
11852SOL    HW242797   6.024   9.673   3.595  0.6136 -0.9838 -2.0242
11853SOL     OW42798   8.944  12.415   9.176  0.5154 -0.2915  0.2273
11853SOL    HW142799   9.012  12.468   9.219  1.3730 -0.0130 -1.4018
11853SOL    HW242800   8.959  12.428   9.082 -0.9684 -1.2939 -0.1807
11854SOL     OW42801  11.377  12.444   2.457  0.7725 -0.0769  0.1006
11854SOL    HW142802  11.472  12.444   2.459  1.0897 -0.0066 -4.6222
11854SOL    HW242803  11.354  12.521   2.404 -1.8048 -0.8959 -0.1177
11855SOL     OW42804   1.511   3.005   3.508  0.3192  0.1631 -0.6032
11855SOL    HW142805   1.443   2.946   3.476  0.7059  0.0040 -1.1271
11855SOL    HW242806   1.593   2.962   3.485  0.6095  1.1138 -1.3927
11856SOL     OW42807   3.693   5.938  11.499 -0.1687 -0.2209  0.4415
11856SOL    HW142808   3.742   5.948  11.581  1.4167 -0.4542 -0.4329
11856SOL    HW242809   3.758   5.956  11.431 -1.4090 -0.2292 -0.7719
11857SOL     OW42810   9.282   2.475   3.479 -0.0931  0.0635  0.2388
11857SOL    HW142811   9.273   2.548   3.418 -2.5235  0.9418  1.5468
11857SOL    HW242812   9.292   2.398   3.423 -1.7735  0.9012 -1.2776
11858SOL     OW42813   0.718   7.082   5.640 -0.1249 -0.1822  0.5228
11858SOL    HW142814   0.771   7.041   5.708 -0.0806  0.2235  0.7346
11858SOL    HW242815   0.774   7.082   5.563  1.6979  3.5630  1.5993
11859SOL     OW42816   8.856   3.271  12.586  0.1878  1.3351 -0.1788
11859SOL    HW142817   8.819   3.352  12.551  0.2792  2.3245  1.8671
11859SOL    HW242818   8.862   3.286  12.681  1.3421 -0.6115  0.1169
11860SOL     OW42819   2.641   1.705   0.514 -0.0799  0.4975  0.4627
11860SOL    HW142820   2.692   1.625   0.502  0.8111  1.0917  0.1597
11860SOL    HW242821   2.663   1.734   0.602 -0.5132  0.3346  0.6249
11861SOL     OW42822   8.656   2.473  11.710 -0.0746  0.9422 -0.6664
11861SOL    HW142823   8.576   2.522  11.728  0.6839  1.6897  0.8134
11861SOL    HW242824   8.675   2.490  11.617 -1.9374  0.2479 -1.2156
11862SOL     OW42825   1.162   2.680   5.856  0.6668 -0.2771  0.2683
11862SOL    HW142826   1.124   2.627   5.926 -1.3129 -1.4311 -1.5296
11862SOL    HW242827   1.255   2.658   5.857  0.3956 -1.4853  1.5309
11863SOL     OW42828   9.668  12.169  10.798 -0.5044 -0.3256  0.4322
11863SOL    HW142829   9.695  12.183  10.889  1.4607 -0.8971 -0.0085
11863SOL    HW242830   9.637  12.079  10.795  0.2621 -0.5924  0.3685
11864SOL     OW42831   3.586   0.259   1.333 -1.1138  0.5635  0.4677
11864SOL    HW142832   3.594   0.306   1.417 -0.0008  0.5919  0.3515
11864SOL    HW242833   3.591   0.167   1.357 -0.5892  0.5761  0.4184
11865SOL     OW42834   9.706   3.655  10.384 -0.8815  0.0336 -0.0229
11865SOL    HW142835   9.740   3.633  10.471  1.5940  0.3968 -0.8307
11865SOL    HW242836   9.677   3.572  10.347  1.9253 -0.8780 -0.3818
11866SOL     OW42837  11.534   2.186  10.450 -0.6942 -0.0119  0.0251
11866SOL    HW142838  11.460   2.240  10.420 -0.6448 -0.1761 -0.4007
11866SOL    HW242839  11.608   2.246  10.452 -0.1889 -0.4607 -2.3315
11867SOL     OW42840   4.228   5.686  11.394 -0.0585  0.1015  0.1335
11867SOL    HW142841   4.137   5.696  11.367  0.2062  1.9108 -0.2282
11867SOL    HW242842   4.275   5.663  11.314  0.0764  1.1877 -0.1217
11868SOL     OW42843   3.076  11.291   9.237  0.2469  0.3404  0.1201
11868SOL    HW142844   3.107  11.381   9.228 -1.9069  1.1692  0.4571
11868SOL    HW242845   3.147  11.245   9.280  2.0381  1.4720 -1.4646
11869SOL     OW42846   6.179   5.802  10.465  0.1930  0.5073 -0.0838
11869SOL    HW142847   6.261   5.846  10.489 -0.2929  1.5534 -0.2698
11869SOL    HW242848   6.205   5.712  10.444  1.0371  0.3354  1.5385
11870SOL     OW42849   8.434   6.852   6.169  0.3632  0.6498  0.0572
11870SOL    HW142850   8.347   6.823   6.140  1.2296 -0.2001 -1.8605
11870SOL    HW242851   8.436   6.945   6.147  0.6427  0.2334 -1.8794
11871SOL     OW42852   9.742   0.361   4.633  0.6378  0.1316 -0.0148
11871SOL    HW142853   9.666   0.349   4.577  1.0617  0.5714 -0.6955
11871SOL    HW242854   9.809   0.398   4.576  1.2056  0.2287  0.6929
11872SOL     OW42855   5.023   1.317   2.917 -0.4599  0.4858  0.1364
11872SOL    HW142856   5.026   1.378   2.990 -0.1889 -0.8180  1.2489
11872SOL    HW242857   5.111   1.319   2.881 -0.2078  0.1096  0.7221
11873SOL     OW42858   8.552   9.413  11.836  0.0926 -0.1179 -0.9616
11873SOL    HW142859   8.458   9.411  11.819  0.1696 -1.7924 -1.3675
11873SOL    HW242860   8.560   9.385  11.927  0.2252 -0.9044 -1.2030
11874SOL     OW42861   2.123   1.658   7.494  0.0664  0.0233  0.2663
11874SOL    HW142862   2.187   1.591   7.469 -2.1031 -1.6553 -1.1395
11874SOL    HW242863   2.130   1.725   7.425 -0.0074 -0.3805 -0.1372
11875SOL     OW42864   6.508  11.027   4.027 -0.4272  0.4445  0.4170
11875SOL    HW142865   6.482  10.935   4.033 -0.6500  0.5757  1.9946
11875SOL    HW242866   6.441  11.074   4.077  0.6641  1.2342  1.2020
11876SOL     OW42867   9.548   6.743   3.959 -0.5874  0.1380 -0.0516
11876SOL    HW142868   9.629   6.755   4.010 -1.6844  0.1375  1.7842
11876SOL    HW242869   9.530   6.830   3.923 -0.3927  0.4304  0.5297
11877SOL     OW42870   9.728  12.482  12.351  0.0489 -0.5885  0.1814
11877SOL    HW142871   9.645  12.452  12.389 -0.0587 -0.2655  0.2031
11877SOL    HW242872   9.739  12.571  12.385 -1.2211  0.6403 -2.3970
11878SOL     OW42873   3.369   1.695  10.133 -0.0510  0.3035  0.1133
11878SOL    HW142874   3.314   1.686  10.210  0.0080 -0.2024  0.0970
11878SOL    HW242875   3.382   1.606  10.101 -1.2424  0.5881 -1.3047
11879SOL     OW42876  12.206   4.659   2.251  0.7806 -0.4993 -0.2933
11879SOL    HW142877  12.275   4.722   2.230  1.1935 -1.3305 -1.5304
11879SOL    HW242878  12.185   4.618   2.168 -2.5915  1.0349 -0.3728
11880SOL     OW42879   2.931   4.771  10.443  0.3541  0.1519 -0.9233
11880SOL    HW142880   3.012   4.812  10.474  0.8350 -1.4167 -0.0141
11880SOL    HW242881   2.872   4.774  10.518  0.3875 -0.7493 -0.8498
11881SOL     OW42882   2.406   8.107   1.741  0.7880 -0.3491 -0.4455
11881SOL    HW142883   2.413   8.203   1.743 -1.5942 -0.1223  0.3351
11881SOL    HW242884   2.357   8.088   1.661 -2.0111 -0.5259  1.1688
11882SOL     OW42885  10.759   9.617   1.281  0.0642 -0.2052 -0.3900
11882SOL    HW142886  10.760   9.709   1.255 -2.1871  0.5050  1.5854
11882SOL    HW242887  10.842   9.603   1.326  0.6185  0.7066 -1.0955
11883SOL     OW42888   4.174   6.967   6.172  0.0394 -0.0797 -0.0347
11883SOL    HW142889   4.159   7.060   6.184  1.9100  0.1328  0.8907
11883SOL    HW242890   4.202   6.959   6.080  0.4902  0.3549  0.0630
11884SOL     OW42891   3.044   1.618   6.305 -0.5321  0.3845  0.1450
11884SOL    HW142892   3.020   1.526   6.295  1.4950 -0.1102 -0.7296
11884SOL    HW242893   2.988   1.665   6.243 -2.0457 -0.1397  1.0731
11885SOL     OW42894   2.565   4.891   8.302 -0.3455 -0.1053 -0.7159
11885SOL    HW142895   2.542   4.861   8.390  1.6675 -0.1720 -0.1744
11885SOL    HW242896   2.481   4.894   8.256 -1.1745 -2.2982  0.4881
11886SOL     OW42897   7.603  11.575   4.721 -0.3067 -0.7547  0.0788
11886SOL    HW142898   7.524  11.602   4.675 -0.9303 -2.4312  0.0792
11886SOL    HW242899   7.590  11.603   4.812 -0.4044 -0.0732 -0.1453
11887SOL     OW42900  10.196  10.173  12.093 -0.1347 -0.3276 -0.2916
11887SOL    HW142901  10.193  10.179  11.998  0.2729 -0.4713 -0.3145
11887SOL    HW242902  10.154  10.253  12.124 -0.2072 -0.2507 -0.5901
11888SOL     OW42903   1.739  10.529   0.161  0.6696  0.3795 -0.2930
11888SOL    HW142904   1.790  10.579   0.225  0.3081 -0.7693  0.9303
11888SOL    HW242905   1.773  10.440   0.169  1.7192  0.4649 -2.8527
11889SOL     OW42906   2.804  11.401  10.193  0.3101  0.2151  0.0984
11889SOL    HW142907   2.835  11.354  10.270  1.7897  1.4607  0.3211
11889SOL    HW242908   2.721  11.439  10.220  0.0056 -0.7145  0.5122
11890SOL     OW42909   2.805   2.340  11.029 -0.1931  0.3909  0.3218
11890SOL    HW142910   2.839   2.269  10.974 -0.2751 -0.2917  1.1493
11890SOL    HW242911   2.881   2.372  11.077 -0.3692  0.0746  0.8204
11891SOL     OW42912   7.017   8.012   8.634 -0.0319  0.1378  0.3310
11891SOL    HW142913   7.108   7.982   8.635  0.7241  2.2152 -0.4350
11891SOL    HW242914   7.015   8.083   8.699 -1.6265 -1.1255  1.7664
11892SOL     OW42915   6.471   2.833   7.595  0.1006  0.0419 -0.0854
11892SOL    HW142916   6.448   2.912   7.645 -0.9046 -1.1463  1.4560
11892SOL    HW242917   6.505   2.773   7.661 -0.5718 -1.3369 -0.9524
11893SOL     OW42918   7.643   1.188   6.452 -0.3865 -0.1705  0.4601
11893SOL    HW142919   7.601   1.103   6.442  0.3423 -0.5465  0.5423
11893SOL    HW242920   7.604   1.242   6.383 -1.1140 -0.4655  0.6380
11894SOL     OW42921   8.188   2.518   2.407  0.0224 -0.0118  0.3862
11894SOL    HW142922   8.240   2.525   2.488 -1.3510 -1.8244  1.5017
11894SOL    HW242923   8.252   2.497   2.339  0.9843 -0.3675  1.3748
11895SOL     OW42924   2.665   2.244   8.679  0.9657 -0.0466 -0.2108
11895SOL    HW142925   2.693   2.335   8.672 -1.0572  0.5810 -0.7946
11895SOL    HW242926   2.601   2.233   8.609 -1.1542 -0.9840  1.7233
11896SOL     OW42927   1.788   7.006   2.064  0.2502 -1.0937  0.2607
11896SOL    HW142928   1.696   7.026   2.048 -0.4904 -2.6573  2.1627
11896SOL    HW242929   1.823   7.083   2.108  0.0708 -0.1940 -1.1392
11897SOL     OW42930   7.881   6.654   6.387  0.9617 -0.3064 -0.0739
11897SOL    HW142931   7.948   6.586   6.389 -0.2268 -1.5240 -0.0402
11897SOL    HW242932   7.815   6.625   6.451  0.6137  1.0954  0.2485
11898SOL     OW42933   8.430   8.914   4.300  0.7332  0.8051 -0.5750
11898SOL    HW142934   8.472   8.857   4.236  1.3067 -0.1197  0.5881
11898SOL    HW242935   8.488   8.912   4.376 -0.4136  1.0815  0.3438
11899SOL     OW42936   9.480   4.335  12.136 -0.0664  0.0470  0.4077
11899SOL    HW142937   9.480   4.359  12.228 -2.0483 -0.5052  0.5956
11899SOL    HW242938   9.457   4.416  12.090 -1.1366 -0.1594  0.5748
11900SOL     OW42939  11.855   3.508   1.828 -0.2173 -0.1526 -0.6324
11900SOL    HW142940  11.820   3.473   1.910 -0.0776  1.4037  0.1344
11900SOL    HW242941  11.794   3.480   1.761 -1.5060  0.3223  0.3105
11901SOL     OW42942   2.621   7.746   5.226 -0.1871  0.6426 -0.8164
11901SOL    HW142943   2.564   7.823   5.220 -0.0691  0.9831  1.4520
11901SOL    HW242944   2.561   7.672   5.233 -0.2982  0.4707 -2.8256
11902SOL     OW42945   8.989   6.291   7.324 -0.5488 -0.0290 -0.2377
11902SOL    HW142946   8.982   6.256   7.413  0.6303  0.8200  0.2308
11902SOL    HW242947   9.083   6.298   7.309 -0.7337 -0.2175 -1.5874
11903SOL     OW42948   0.439   8.432   5.539 -0.0973  0.3594 -0.1017
11903SOL    HW142949   0.519   8.442   5.590 -0.3935  3.1504 -0.0229
11903SOL    HW242950   0.470   8.424   5.448  0.2920 -0.3392  0.0828
11904SOL     OW42951   2.797   6.969   4.961  0.1816  0.1147  0.2990
11904SOL    HW142952   2.731   7.029   4.928  1.2533  1.7066  0.9039
11904SOL    HW242953   2.756   6.925   5.036  0.3033  2.3870  1.8005
11905SOL     OW42954   0.002  12.275   8.414  0.1076  0.3264  0.1528
11905SOL    HW142955  -0.031  12.319   8.335 -0.8356  0.8897  0.8398
11905SOL    HW242956   0.009  12.345   8.479 -0.6392 -0.3804  1.0252
11906SOL     OW42957   3.164  12.433   2.876 -0.1717  0.0834 -0.1843
11906SOL    HW142958   3.232  12.436   2.943  1.4435  0.8323 -1.7814
11906SOL    HW242959   3.096  12.492   2.908  0.4878  0.3002  0.8663
11907SOL     OW42960  10.925   8.894   9.464  0.1266  0.0224  0.5083
11907SOL    HW142961  10.846   8.891   9.517 -0.1154 -1.1324  0.1049
11907SOL    HW242962  10.896   8.871   9.375  0.1708  3.7658 -0.6480
11908SOL     OW42963  12.479   1.743   4.244  0.0564  0.3148 -0.0685
11908SOL    HW142964  12.548   1.791   4.290 -0.4204  1.8432 -0.8899
11908SOL    HW242965  12.483   1.775   4.154 -2.3616  1.2517  0.0641
11909SOL     OW42966   4.802   8.752   9.716 -0.3369 -0.6747  0.1677
11909SOL    HW142967   4.795   8.661   9.685 -1.0908 -0.2945 -0.8310
11909SOL    HW242968   4.846   8.798   9.645 -2.5401  0.3246 -0.6592
11910SOL     OW42969   0.616   0.491   6.963  0.7401 -0.2060 -0.1730
11910SOL    HW142970   0.554   0.423   6.990  1.5633 -0.5838  0.8266
11910SOL    HW242971   0.562   0.556   6.918 -0.4952 -0.1600  1.3131
11911SOL     OW42972  10.774   3.488  11.930 -0.0271  0.8613  0.1993
11911SOL    HW142973  10.736   3.423  11.989  0.7790  0.4079  0.2334
11911SOL    HW242974  10.724   3.568  11.947 -0.2271  0.5668  1.0325
11912SOL     OW42975   6.380  10.652   5.180 -0.7205 -0.1567 -0.0772
11912SOL    HW142976   6.418  10.663   5.093 -1.8426  0.3747 -0.5172
11912SOL    HW242977   6.324  10.574   5.172 -2.1758  0.8793 -0.3427
11913SOL     OW42978  10.433   1.268   5.868 -0.0603  0.1682 -0.1052
11913SOL    HW142979  10.464   1.194   5.921 -0.7512 -2.3272 -2.9200
11913SOL    HW242980  10.376   1.318   5.927  0.5046 -1.4405  1.9357
11914SOL     OW42981   7.279   5.784   0.582  0.2678 -0.5617 -0.1745
11914SOL    HW142982   7.354   5.820   0.628 -0.4875 -1.2094  1.6418
11914SOL    HW242983   7.317   5.728   0.514  1.4214  1.6517 -1.4809
11915SOL     OW42984   1.487   7.212   2.327  0.0260  0.2957 -0.0988
11915SOL    HW142985   1.535   7.291   2.301 -0.1334 -0.2212 -2.0833
11915SOL    HW242986   1.495   7.153   2.252 -1.5746 -0.7983  0.5368
11916SOL     OW42987   2.713   0.267  11.900  0.3549  0.1691 -0.1392
11916SOL    HW142988   2.639   0.324  11.921  0.4562  0.0838  0.4919
11916SOL    HW242989   2.770   0.274  11.977 -0.3587 -1.9725  0.6506
11917SOL     OW42990   0.311   0.385   1.067 -0.0298  0.4805  0.4280
11917SOL    HW142991   0.284   0.360   1.156 -2.6471  0.1154 -0.3596
11917SOL    HW242992   0.288   0.477   1.060  0.7035  0.6597  0.2894
11918SOL     OW42993   3.048   0.086  10.665 -0.6318 -0.8812 -0.4696
11918SOL    HW142994   3.132   0.051  10.694 -0.2653 -0.6160 -1.1990
11918SOL    HW242995   3.008   0.122  10.744  0.1248 -0.6222 -0.2030
11919SOL     OW42996   5.587   7.886   0.864  0.6049  0.0741 -0.1548
11919SOL    HW142997   5.606   7.978   0.882  2.3679 -0.4853  1.1889
11919SOL    HW242998   5.672   7.849   0.839  0.0924 -1.3684  0.1757
11920SOL     OW42999  11.749   2.958   9.971 -0.1313 -0.0992  0.2998
11920SOL    HW143000  11.775   2.951   9.879 -0.9125  1.9580 -0.1357
11920SOL    HW243001  11.797   3.035  10.003  0.4196 -1.0167  1.7389
11921SOL     OW43002   4.407   7.135  11.544 -0.4214  0.0734 -0.7970
11921SOL    HW143003   4.450   7.219  11.526  1.7371 -0.7524  0.1121
11921SOL    HW243004   4.389   7.138  11.638  1.1945 -1.0530 -0.3979
11922SOL     OW43005   5.525  10.756   5.851  0.0087  0.1389 -0.1664
11922SOL    HW143006   5.527  10.820   5.780  1.0747  1.5476  1.0479
11922SOL    HW243007   5.436  10.722   5.851 -0.6206  1.7162 -0.7983
11923SOL     OW43008  12.456  12.433   5.528  0.4540 -0.1555  0.0106
11923SOL    HW143009  12.391  12.470   5.587  1.0941 -0.9514  1.2645
11923SOL    HW243010  12.506  12.372   5.582  0.5280 -1.5765 -1.5612
11924SOL     OW43011   2.223   2.970   7.183 -0.2440 -0.5708 -0.5279
11924SOL    HW143012   2.197   2.892   7.135  0.0825 -0.7933 -0.3410
11924SOL    HW243013   2.180   3.042   7.136 -0.3421 -0.8347 -0.8457
11925SOL     OW43014  10.302   4.890  12.476  0.1262  0.0501  0.2760
11925SOL    HW143015  10.397   4.902  12.477  0.4552 -2.0533  1.3055
11925SOL    HW243016  10.278   4.881  12.569 -0.9002 -0.5011 -0.0221
11926SOL     OW43017   4.395   5.389   5.754 -0.1585 -0.1152  0.3442
11926SOL    HW143018   4.403   5.484   5.746  1.3893 -0.1445  1.1408
11926SOL    HW243019   4.301   5.373   5.762 -0.5169  1.2506 -0.7008
11927SOL     OW43020   0.040  11.727  11.739  0.3555 -0.6429 -0.1436
11927SOL    HW143021   0.106  11.761  11.800  0.9845  1.7975 -2.0068
11927SOL    HW243022   0.084  11.656  11.692  1.3177  0.2041 -0.5631
11928SOL     OW43023   4.625   8.815   6.523  0.6348 -0.0695  0.4198
11928SOL    HW143024   4.543   8.864   6.532 -0.0458 -0.9699 -0.5779
11928SOL    HW243025   4.693   8.880   6.535 -0.2202  0.6620  1.5284
11929SOL     OW43026   7.866   4.951   2.635  0.2902 -0.0525  0.0112
11929SOL    HW143027   7.832   5.004   2.564  1.1824  0.1808 -0.2573
11929SOL    HW243028   7.842   4.999   2.715  0.4255  0.3586 -0.1940
11930SOL     OW43029   0.445  10.066   8.316  0.4508 -0.0254  0.0985
11930SOL    HW143030   0.487  10.099   8.395 -3.3112 -0.2256  2.4589
11930SOL    HW243031   0.385  10.136   8.289 -0.4995 -1.1053 -0.7443
11931SOL     OW43032   0.070   6.827   9.908 -0.2150 -0.4727 -0.0652
11931SOL    HW143033   0.119   6.762   9.858 -1.3557 -0.8441 -0.7092
11931SOL    HW243034  -0.006   6.847   9.855 -0.0481  1.1798  0.2589
11932SOL     OW43035   5.940   2.653   9.473 -0.4822 -0.1575  0.5231
11932SOL    HW143036   5.852   2.637   9.438  0.6320 -1.5813 -1.8404
11932SOL    HW243037   5.949   2.749   9.470 -1.7943 -0.0097  0.4606
11933SOL     OW43038  10.239   3.415   9.183  0.4496 -0.4034 -0.0816
11933SOL    HW143039  10.182   3.347   9.220 -1.3802  1.3615  0.5104
11933SOL    HW243040  10.234   3.402   9.088  1.2096 -1.8869  0.0500
11934SOL     OW43041   1.260   4.096  10.843 -0.1905  0.4906 -0.0657
11934SOL    HW143042   1.336   4.128  10.893 -0.5380 -0.2805  1.0046
11934SOL    HW243043   1.279   4.120  10.753  1.8725 -0.6337 -0.0029
11935SOL     OW43044   6.531   0.230   9.849 -0.0075  0.7147  0.1283
11935SOL    HW143045   6.620   0.241   9.815  0.3643 -0.4683  0.6451
11935SOL    HW243046   6.540   0.238   9.944 -0.3773  0.2064  0.2128
11936SOL     OW43047   9.964   5.467   5.801  0.3236  0.2161 -0.6893
11936SOL    HW143048   9.974   5.375   5.825 -0.7106  0.2048 -0.2488
11936SOL    HW243049   9.998   5.472   5.711  1.7855 -0.2693 -0.1928
11937SOL     OW43050   4.593   1.600   9.831 -0.1804 -0.6106  0.2552
11937SOL    HW143051   4.595   1.548   9.751  0.1899  0.6217 -0.5524
11937SOL    HW243052   4.552   1.682   9.806 -2.2076 -1.0465  1.8730
11938SOL     OW43053   0.599   8.542  11.709  0.3421  0.5880 -0.0069
11938SOL    HW143054   0.563   8.575  11.792  2.3663  0.3553  1.0374
11938SOL    HW243055   0.548   8.464  11.690  0.3240  0.2087  1.4693
11939SOL     OW43056  11.685   3.584   9.801 -0.0347 -0.1893 -0.0000
11939SOL    HW143057  11.716   3.509   9.750  0.4453  0.6063 -0.9117
11939SOL    HW243058  11.697   3.557   9.892 -0.8112 -1.5937 -0.2873
11940SOL     OW43059   4.021  12.297   8.392 -0.1935  0.7362  0.0155
11940SOL    HW143060   4.090  12.307   8.327 -0.3310  0.7062 -0.1351
11940SOL    HW243061   3.940  12.296   8.342 -0.2716  0.2551  0.1481
11941SOL     OW43062   1.469   4.999  10.905  0.2930 -0.0603 -0.1463
11941SOL    HW143063   1.443   5.021  10.816  2.1936 -0.7332 -0.9184
11941SOL    HW243064   1.416   4.922  10.927 -0.8013  0.6130 -0.3334
11942SOL     OW43065  11.697   5.043   9.228 -0.3431  0.3622  0.2908
11942SOL    HW143066  11.721   4.971   9.171 -1.1910  0.5026 -0.2622
11942SOL    HW243067  11.614   5.017   9.268 -1.0957  1.3434 -0.5482
11943SOL     OW43068   9.936   1.969   9.335  0.7197 -1.0610 -0.3214
11943SOL    HW143069  10.003   1.959   9.266  0.0099 -0.3777 -1.1388
11943SOL    HW243070   9.913   1.880   9.360  1.0409 -1.3215 -0.9296
11944SOL     OW43071  12.055   8.498   4.692 -0.8576 -0.1292 -0.6881
11944SOL    HW143072  12.075   8.588   4.665 -0.3850 -0.2207 -0.6483
11944SOL    HW243073  12.052   8.448   4.611 -1.6212  0.0126 -0.7572
11945SOL     OW43074   5.950   2.553  10.471  1.1876 -0.3758 -0.1536
11945SOL    HW143075   5.868   2.594  10.445  2.3434  1.7763 -0.6051
11945SOL    HW243076   5.928   2.507  10.552 -0.2680  0.9308  0.2521
11946SOL     OW43077   1.366   1.985   5.907  0.0660 -0.1413 -0.3882
11946SOL    HW143078   1.320   1.999   5.990 -2.1231  2.4004 -1.8621
11946SOL    HW243079   1.438   2.048   5.909 -0.4787  0.5042 -0.7136
11947SOL     OW43080   3.765  12.708   4.851 -0.8346  0.5551  0.0959
11947SOL    HW143081   3.751  12.684   4.943 -0.4238  1.9624  0.5521
11947SOL    HW243082   3.860  12.720   4.844 -0.9389  1.1196 -0.3417
11948SOL     OW43083  12.434   0.749   0.199 -0.0940  0.1100  0.2764
11948SOL    HW143084  12.419   0.779   0.110 -0.4150 -0.8925 -0.0188
11948SOL    HW243085  12.448   0.829   0.250  1.9109  0.6343 -0.9952
11949SOL     OW43086   2.965   9.013   1.893  0.0390 -0.0013  0.1974
11949SOL    HW143087   3.042   8.964   1.866  0.9964  0.6376  1.6370
11949SOL    HW243088   2.892   8.972   1.846  0.7239 -2.9776  1.5352
11950SOL     OW43089  12.115   6.719   8.322  0.4420 -0.5000 -0.1992
11950SOL    HW143090  12.091   6.675   8.240  1.9121 -1.5400 -0.1140
11950SOL    HW243091  12.185   6.779   8.297 -0.5076  0.7123 -0.0380
11951SOL     OW43092   9.827   2.916   9.057  0.2294  0.3598 -0.0421
11951SOL    HW143093   9.865   2.839   9.101 -1.4741  0.4012  1.6102
11951SOL    HW243094   9.876   2.923   8.975  2.6299 -0.5535  1.2096
11952SOL     OW43095   0.071   8.994   1.593 -0.2766 -0.2761 -0.3547
11952SOL    HW143096   0.053   8.939   1.517  3.3109 -1.4946 -0.5148
11952SOL    HW243097   0.087   8.932   1.664  0.4337  0.6725  0.3416
11953SOL     OW43098   0.324   4.992   3.508 -0.7018  0.2087  0.1029
11953SOL    HW143099   0.240   4.946   3.507  0.2053 -1.5207  0.4034
11953SOL    HW243100   0.358   4.978   3.597  0.6217 -0.4864 -0.4944
11954SOL     OW43101  10.295   4.131   7.126  0.1310  0.1364  0.2988
11954SOL    HW143102  10.329   4.221   7.129  1.9491 -0.4116  5.0441
11954SOL    HW243103  10.371   4.078   7.102 -0.1361 -0.3770  0.5804
11955SOL     OW43104   1.315  12.344   2.289  0.5094 -0.0365 -0.6716
11955SOL    HW143105   1.381  12.402   2.325  1.4416 -1.1338 -0.5556
11955SOL    HW243106   1.359  12.259   2.281 -0.6811 -0.6301 -1.2249
11956SOL     OW43107  11.710   8.328  10.651  0.2682  0.0317 -0.3249
11956SOL    HW143108  11.694   8.258  10.587 -1.9621  0.2600 -0.1029
11956SOL    HW243109  11.717   8.407  10.598  0.1265 -0.0127 -0.4141
11957SOL     OW43110   7.914  12.678   1.419  0.2109 -0.2172  0.0759
11957SOL    HW143111   7.837  12.621   1.414 -0.7869  1.0422  0.6405
11957SOL    HW243112   7.903  12.727   1.501  1.2889  0.4586 -0.1563
11958SOL     OW43113   9.811   6.569   7.350 -0.0336 -0.3493 -0.3403
11958SOL    HW143114   9.842   6.559   7.441  1.3667  0.6106 -0.6760
11958SOL    HW243115   9.727   6.522   7.348 -0.2889 -0.0598  1.5508
11959SOL     OW43116  11.820   6.943   6.391 -0.3518  0.0654  0.3574
11959SOL    HW143117  11.836   7.034   6.415 -1.2702  0.4951 -0.5615
11959SOL    HW243118  11.895   6.918   6.338 -1.0427  0.9883 -1.1413
11960SOL     OW43119  10.774   0.026   6.668 -0.3039 -0.5140 -0.6529
11960SOL    HW143120  10.733  -0.057   6.692  1.4911 -1.0387  0.8372
11960SOL    HW243121  10.817   0.008   6.585  0.5493 -1.2930 -0.0687
11961SOL     OW43122   2.346   2.187   1.442  0.2718  0.3565 -0.4184
11961SOL    HW143123   2.348   2.258   1.506 -1.5302 -0.0689  0.1826
11961SOL    HW243124   2.429   2.141   1.455  0.9313  1.6172  0.0243
11962SOL     OW43125   5.326   6.879   3.956 -0.4569 -0.4229 -0.2626
11962SOL    HW143126   5.278   6.925   4.025  0.5454 -0.0202  0.1821
11962SOL    HW243127   5.402   6.842   4.000  0.7770  0.7535 -1.3442
11963SOL     OW43128   2.724   2.857   5.733  0.1560  0.2398  0.2286
11963SOL    HW143129   2.780   2.790   5.770  0.3617  0.0016 -0.4867
11963SOL    HW243130   2.782   2.932   5.718 -0.2712  0.9605  1.9495
11964SOL     OW43131  11.908   3.285   8.146 -0.0977  0.1205 -0.0263
11964SOL    HW143132  11.934   3.224   8.215 -0.5082  1.2934  1.1944
11964SOL    HW243133  11.977   3.277   8.080 -1.1126 -3.0866 -0.8688
11965SOL     OW43134  11.283   0.930  12.194  0.1070  0.3194  0.1545
11965SOL    HW143135  11.334   1.009  12.177  1.6438 -0.8518 -0.9531
11965SOL    HW243136  11.264   0.894  12.108 -0.3751 -0.6621  0.6526
11966SOL     OW43137   6.299  11.375   8.880 -0.0472 -0.1650 -0.4719
11966SOL    HW143138   6.285  11.428   8.802  2.2252 -1.4872 -1.8620
11966SOL    HW243139   6.255  11.292   8.861  1.8413 -1.0774 -1.1094
11967SOL     OW43140  10.436  11.808   4.917 -0.1617  0.0741  0.0539
11967SOL    HW143141  10.412  11.721   4.885 -1.4328  0.8009 -1.0766
11967SOL    HW243142  10.523  11.796   4.956 -0.3248 -1.6967 -0.0327
11968SOL     OW43143   9.649   2.999  10.782  0.6152  0.5010 -0.6744
11968SOL    HW143144   9.580   3.062  10.800  1.9372  2.2085 -1.2661
11968SOL    HW243145   9.653   2.943  10.860 -2.2862 -0.5557 -1.1756
11969SOL     OW43146   1.708  12.274  11.346  0.2633 -0.1252  0.2233
11969SOL    HW143147   1.677  12.339  11.283 -0.9522 -0.1408  0.7630
11969SOL    HW243148   1.706  12.320  11.430  4.4337  0.7818  0.0437
11970SOL     OW43149   4.244   3.330   9.621  0.6562  0.4444 -0.3765
11970SOL    HW143150   4.200   3.350   9.704  0.2389  1.6925 -0.8801
11970SOL    HW243151   4.175   3.299   9.564  0.5407  1.6302 -0.9119
11971SOL     OW43152   4.726   3.379   4.553 -0.1490 -0.0670 -0.2654
11971SOL    HW143153   4.683   3.463   4.540 -0.9732 -0.5158 -0.4768
11971SOL    HW243154   4.806   3.400   4.601 -1.3039  0.6236  1.4510
11972SOL     OW43155   7.186   2.440  11.566  0.5900  0.2694  0.2573
11972SOL    HW143156   7.222   2.353  11.585  1.1779  0.4409 -0.0385
11972SOL    HW243157   7.174   2.480  11.652 -1.7308 -0.8701  0.5557
11973SOL     OW43158   4.602   8.960   7.790 -0.1378  0.1608  0.2040
11973SOL    HW143159   4.669   9.020   7.822 -0.3250  0.3451  0.2538
11973SOL    HW243160   4.651   8.890   7.748  0.0443  1.2050 -1.4001
11974SOL     OW43161   5.432   1.983   0.675 -0.0206  0.4318 -0.6186
11974SOL    HW143162   5.519   1.945   0.683  0.4547  1.4554 -0.8075
11974SOL    HW243163   5.407   1.967   0.584  0.5546  1.3530 -0.9450
11975SOL     OW43164   2.195   5.630  11.983  0.1054 -0.2875 -0.1989
11975SOL    HW143165   2.203   5.580  11.901  0.5847  0.3089 -0.5173
11975SOL    HW243166   2.240   5.712  11.966 -0.6248  0.2410  0.3496
11976SOL     OW43167   4.069   3.901   8.054 -0.1531  0.8231  0.1139
11976SOL    HW143168   4.113   3.943   7.979 -0.5734 -0.1806 -0.7092
11976SOL    HW243169   4.034   3.975   8.104  1.7584  1.6239  0.3708
11977SOL     OW43170   3.158  11.889   5.731 -0.3280 -0.8557  0.3815
11977SOL    HW143171   3.188  11.798   5.725  2.7657  0.0585  0.3705
11977SOL    HW243172   3.160  11.921   5.640 -0.3603 -0.4900  0.5074
11978SOL     OW43173   3.194  11.890   2.688  0.2017  0.3813  0.0615
11978SOL    HW143174   3.190  11.857   2.777  0.1379 -0.2210 -0.1596
11978SOL    HW243175   3.185  11.985   2.697  0.7345  0.3767  0.7344
11979SOL     OW43176   1.516   1.203  11.068  0.1540  0.1820  0.2949
11979SOL    HW143177   1.551   1.145  11.136 -0.0452 -0.0152  0.2291
11979SOL    HW243178   1.583   1.270  11.057  0.3460  0.0124  0.4325
11980SOL     OW43179   0.401   3.037  12.212  0.1445  0.2790  0.6588
11980SOL    HW143180   0.439   3.015  12.298  1.8070  1.1277  0.1844
11980SOL    HW243181   0.420   2.961  12.158  2.6828  1.2795  0.0019
11981SOL     OW43182  12.334   1.954   7.728  0.0481  0.3570  0.2920
11981SOL    HW143183  12.246   1.974   7.760  0.5542  2.3393  0.5889
11981SOL    HW243184  12.386   2.031   7.752  1.8643 -0.7606  0.1045
11982SOL     OW43185  10.312   8.464   8.387  0.6656  0.0785  0.0674
11982SOL    HW143186  10.297   8.553   8.356 -0.1489 -0.2728 -0.5991
11982SOL    HW243187  10.228   8.437   8.423  0.8550 -0.4762  0.1000
11983SOL     OW43188   9.269   4.813  11.526  0.3133 -0.0531  0.8428
11983SOL    HW143189   9.228   4.763  11.597 -0.7922 -0.9181 -0.3482
11983SOL    HW243190   9.196   4.857  11.482  1.0290  0.8213  0.5078
11984SOL     OW43191   6.776  12.491   9.515  0.1688  0.1408 -0.3908
11984SOL    HW143192   6.822  12.559   9.566 -1.6353  0.2881  1.1729
11984SOL    HW243193   6.704  12.464   9.572  0.8908 -3.2515 -0.8838
11985SOL     OW43194   0.044   6.841   7.330 -0.2314 -0.1303 -0.3031
11985SOL    HW143195  -0.016   6.913   7.310 -1.9982 -1.0249  1.3777
11985SOL    HW243196  -0.000   6.792   7.400  1.1746 -2.5034 -0.9535
11986SOL     OW43197   3.189   5.843  10.955 -0.4606  0.2309  0.2456
11986SOL    HW143198   3.211   5.900  11.029 -0.8987 -0.7714  1.1963
11986SOL    HW243199   3.094   5.835  10.959 -0.4340 -0.2830 -0.0712
11987SOL     OW43200  10.234   0.562   6.104  0.2648 -0.1681  0.2869
11987SOL    HW143201  10.266   0.511   6.029 -1.3447  0.2708 -0.7610
11987SOL    HW243202  10.284   0.529   6.178  1.3036 -1.2434 -0.8303
11988SOL     OW43203   5.706   5.343   4.398 -0.8330  0.2178  0.3177
11988SOL    HW143204   5.767   5.270   4.412 -0.3650  0.5035 -0.1833
11988SOL    HW243205   5.632   5.324   4.456 -1.5910 -1.6662 -1.1366
11989SOL     OW43206  10.806   8.397   9.926  0.1466 -0.2854 -0.0858
11989SOL    HW143207  10.795   8.317   9.874 -2.2924 -0.8993  1.2518
11989SOL    HW243208  10.879   8.377   9.985  1.1632 -0.5699 -1.3722
11990SOL     OW43209   2.468   3.980   0.171 -0.2624  0.1537  0.3258
11990SOL    HW143210   2.472   4.049   0.105  0.1686  1.8492  2.0419
11990SOL    HW243211   2.531   4.007   0.238 -0.4321 -1.6775  1.2996
11991SOL     OW43212   3.665   2.677   4.098 -0.5150 -0.2366  0.2123
11991SOL    HW143213   3.650   2.645   4.187  0.4921  0.3183  0.5968
11991SOL    HW243214   3.679   2.597   4.047 -2.8238 -0.6756  0.1648
11992SOL     OW43215  12.203   5.402  10.767  0.2699  0.2746  0.2639
11992SOL    HW143216  12.249   5.485  10.767 -2.2913  1.8185  0.3650
11992SOL    HW243217  12.146   5.406  10.844 -0.1515 -1.4347  0.0973
11993SOL     OW43218  12.589   4.013   8.406  0.1635 -0.2426 -0.2411
11993SOL    HW143219  12.640   4.079   8.451  0.9391 -1.0188  0.0522
11993SOL    HW243220  12.541   3.968   8.475 -1.2348  0.7196 -0.5498
11994SOL     OW43221  10.234   1.454   2.744 -0.0307 -0.2006 -0.5756
11994SOL    HW143222  10.141   1.434   2.748 -0.0108 -0.1443  0.1941
11994SOL    HW243223  10.238   1.549   2.742  0.0647 -0.1257  1.4491
11995SOL     OW43224   5.766   7.454  12.054 -0.4499 -0.2921  0.0232
11995SOL    HW143225   5.860   7.439  12.069 -0.1502  0.4049 -1.0459
11995SOL    HW243226   5.759   7.472  11.961 -1.4278  1.2095  0.3485
11996SOL     OW43227   6.358   9.071  10.357 -0.3673 -0.1797  0.5084
11996SOL    HW143228   6.369   9.165  10.339  1.1367 -0.6312 -1.2393
11996SOL    HW243229   6.336   9.067  10.450 -1.3773  1.9491  0.4249
11997SOL     OW43230   0.550  11.140   9.063  0.0060 -0.2420 -0.9248
11997SOL    HW143231   0.466  11.136   9.017  0.3146 -1.6718 -1.4164
11997SOL    HW243232   0.556  11.230   9.095 -1.4698  0.0236 -1.3310
11998SOL     OW43233   1.942   3.693  11.698 -0.7584  0.3868  0.1930
11998SOL    HW143234   1.935   3.728  11.609 -2.6397  1.6774  0.7839
11998SOL    HW243235   2.016   3.742  11.737  0.2139 -0.3421 -0.6826
11999SOL     OW43236  10.201  10.436   5.849  0.7227 -0.4359  0.6047
11999SOL    HW143237  10.257  10.489   5.906  0.3838  0.2357  0.3166
11999SOL    HW243238  10.190  10.489   5.770  0.4708 -0.9848  0.2677
12000SOL     OW43239   0.489   6.056  11.286  0.1133  0.6064 -0.3873
12000SOL    HW143240   0.467   6.139  11.329  1.7241 -0.0713  1.9069
12000SOL    HW243241   0.582   6.063  11.266  0.1623 -0.4626 -0.6139
12001SOL     OW43242   8.412   7.088  10.706 -0.6120 -0.1103 -0.3676
12001SOL    HW143243   8.448   7.045  10.628 -2.0247  0.5648 -1.4472
12001SOL    HW243244   8.364   7.164  10.671  2.4324  2.9152  1.4748
12002SOL     OW43245  11.527   1.790   4.362  0.3736 -0.1891 -0.3306
12002SOL    HW143246  11.499   1.725   4.298 -2.0733  1.2139 -0.8011
12002SOL    HW243247  11.446   1.817   4.405  1.5856  1.1072  1.2375
12003SOL     OW43248  10.376   4.955   3.262  0.4624  0.2119  0.3979
12003SOL    HW143249  10.353   4.947   3.355  3.3019  0.5343  1.2264
12003SOL    HW243250  10.362   4.867   3.226 -1.5879  0.3066  0.8340
12004SOL     OW43251   1.847   4.250   5.496  0.0089  0.3321 -0.2748
12004SOL    HW143252   1.818   4.212   5.413 -0.2624 -1.0551  0.4326
12004SOL    HW243253   1.768   4.291   5.532 -0.7774 -2.0196  0.8691
12005SOL     OW43254  10.840   0.515  11.923  0.1027 -0.2281  0.3684
12005SOL    HW143255  10.907   0.446  11.917 -0.0942 -0.3131 -1.0895
12005SOL    HW243256  10.812   0.512  12.014 -0.7251 -2.8726  0.1217
12006SOL     OW43257   6.997   3.096   5.916  0.3486  0.4249  0.1128
12006SOL    HW143258   7.056   3.170   5.929  0.8976 -0.0731  0.4820
12006SOL    HW243259   7.017   3.036   5.987 -0.0215 -0.1333 -0.2442
12007SOL     OW43260  11.890   7.690   1.504  0.0326 -0.2472  0.3823
12007SOL    HW143261  11.868   7.613   1.556  2.3322 -0.7203  0.7748
12007SOL    HW243262  11.844   7.676   1.421 -1.0666 -1.1075  1.0980
12008SOL     OW43263   3.785   0.084   4.576 -0.2675  0.0491  0.2601
12008SOL    HW143264   3.776  -0.010   4.594  0.8820 -0.0104  0.6110
12008SOL    HW243265   3.809   0.122   4.660  0.7716  0.4365 -0.2015
12009SOL     OW43266   5.530   1.096   0.706 -0.3793  0.2594 -0.1030
12009SOL    HW143267   5.617   1.073   0.738  0.9867  1.9302 -2.3296
12009SOL    HW243268   5.503   1.019   0.655  1.6212  1.1216 -2.6855
12010SOL     OW43269   4.168   0.667   1.342  0.5268 -0.3600 -0.2426
12010SOL    HW143270   4.180   0.726   1.268 -1.5589  3.2847  2.0139
12010SOL    HW243271   4.244   0.684   1.398  0.2475 -0.3096  0.1244
12011SOL     OW43272   8.442  11.069   9.715  0.0555  0.2734 -0.6088
12011SOL    HW143273   8.512  11.103   9.659  2.0607 -1.5679  0.6099
12011SOL    HW243274   8.473  11.085   9.804 -1.0037 -0.7030 -0.0381
12012SOL     OW43275   6.521   8.801   7.660 -0.4202 -0.0709  0.1889
12012SOL    HW143276   6.609   8.826   7.633  0.0922 -2.6192 -0.8567
12012SOL    HW243277   6.489   8.746   7.588 -2.4621 -0.0555  1.0188
12013SOL     OW43278   1.613   3.408   8.383  0.0197 -0.6709 -0.0487
12013SOL    HW143279   1.613   3.348   8.457 -0.0816  0.6200  1.0277
12013SOL    HW243280   1.701   3.445   8.381 -0.1987 -0.1517 -0.1256
12014SOL     OW43281   7.086   8.962   7.473  0.3995 -0.0515 -0.1512
12014SOL    HW143282   7.037   8.914   7.540 -0.0248  0.9937  0.3096
12014SOL    HW243283   7.139   8.895   7.429 -1.2663 -1.1716 -0.5104
12015SOL     OW43284   0.765   1.037   4.598 -0.0523 -0.8509  0.5807
12015SOL    HW143285   0.787   1.097   4.526 -0.6291 -1.7839 -0.4068
12015SOL    HW243286   0.847   1.023   4.644 -0.0169  1.1879  1.2336
12016SOL     OW43287   4.240   8.521   6.732  0.1454 -0.0410  0.1617
12016SOL    HW143288   4.173   8.544   6.797  0.0252  0.0174  0.0185
12016SOL    HW243289   4.311   8.583   6.748  0.5379 -0.6561  0.8875
12017SOL     OW43290   2.850  10.295   5.566  0.3288 -0.0233 -0.1864
12017SOL    HW143291   2.857  10.329   5.656 -0.9922 -1.2466  0.4088
12017SOL    HW243292   2.765  10.252   5.563 -0.8038  2.0901 -2.7762
12018SOL     OW43293  10.530  12.272  10.248  0.2681  0.3066 -0.4068
12018SOL    HW143294  10.438  12.287  10.268  0.7666  1.1983  1.4925
12018SOL    HW243295  10.547  12.182  10.274 -0.2518 -0.1857 -1.6778
12019SOL     OW43296  11.841   0.837   7.006 -0.0534 -0.6519  0.3131
12019SOL    HW143297  11.855   0.743   7.019  1.3039 -0.8258 -1.8519
12019SOL    HW243298  11.839   0.848   6.911 -1.5855  1.3500  0.5077
12020SOL     OW43299   0.378   3.062   7.232 -0.1193  0.3526 -0.2726
12020SOL    HW143300   0.447   2.996   7.222 -0.2101  0.2718 -0.3647
12020SOL    HW243301   0.371   3.074   7.327 -1.8758 -1.6621 -0.0629
12021SOL     OW43302   4.449   2.329  11.024 -0.1023 -0.5453 -0.1376
12021SOL    HW143303   4.409   2.265  10.965 -0.7687  0.9502 -1.3759
12021SOL    HW243304   4.450   2.410  10.974  0.9344  0.3770  1.3062
12022SOL     OW43305   4.603   8.838   3.321  0.3944  0.1272  0.6039
12022SOL    HW143306   4.545   8.910   3.298  0.3540  0.3363  1.3300
12022SOL    HW243307   4.581   8.818   3.412  1.1922 -0.0504  0.7652
12023SOL     OW43308   0.550   8.838   4.022  0.3899 -0.1503  0.0260
12023SOL    HW143309   0.583   8.752   3.998  0.7853 -0.4796  1.6402
12023SOL    HW243310   0.514   8.827   4.110 -1.5044  0.8628 -0.5655
12024SOL     OW43311   9.559  10.341   6.638  0.3508  0.4819 -0.2651
12024SOL    HW143312   9.538  10.428   6.672 -0.7861  0.0896  0.1040
12024SOL    HW243313   9.630  10.355   6.576 -1.0222  1.9460 -1.6193
12025SOL     OW43314   6.156  10.277  11.789  0.2336 -0.4111 -0.2575
12025SOL    HW143315   6.129  10.204  11.845  0.3774  0.5624  1.1260
12025SOL    HW243316   6.243  10.254  11.758  0.1721 -0.9412 -0.0356
12026SOL     OW43317  12.484   6.698   4.520 -0.1338 -0.7592 -0.1120
12026SOL    HW143318  12.559   6.755   4.500 -0.3630  0.1164  1.3791
12026SOL    HW243319  12.425   6.708   4.445 -0.5121  1.5796  0.4501
12027SOL     OW43320   8.726   5.766   7.994 -0.3818 -0.4112  0.1066
12027SOL    HW143321   8.811   5.775   7.953 -0.6392 -2.4350 -0.9807
12027SOL    HW243322   8.735   5.690   8.052 -1.7682 -1.4428 -0.9764
12028SOL     OW43323  10.663   8.638   0.697 -0.0327 -0.4473  0.3654
12028SOL    HW143324  10.688   8.560   0.747 -0.2776 -0.1522  0.9667
12028SOL    HW243325  10.719   8.637   0.620  2.7367  0.7926  2.2081
12029SOL     OW43326  12.403   0.740  10.687 -0.4086  0.1102 -0.7850
12029SOL    HW143327  12.465   0.794  10.737 -1.0493 -0.5176  0.7688
12029SOL    HW243328  12.399   0.657  10.735 -3.0051  0.3886 -0.3335
12030SOL     OW43329   4.378   8.287   1.592 -0.1981 -1.0789  0.1800
12030SOL    HW143330   4.466   8.258   1.569  1.2468  1.1267  2.4126
12030SOL    HW243331   4.371   8.375   1.555  0.2139  0.4213  3.3670
12031SOL     OW43332   9.008   3.138   2.081 -0.5125 -0.1088 -0.0797
12031SOL    HW143333   8.943   3.082   2.040 -1.0237 -0.0911  0.6770
12031SOL    HW243334   9.060   3.173   2.009 -0.3771 -1.3107 -0.5806
12032SOL     OW43335   2.292   4.144   7.706 -0.1494  0.4068  0.3041
12032SOL    HW143336   2.312   4.174   7.794 -1.6613 -0.2626  0.9226
12032SOL    HW243337   2.218   4.198   7.678 -1.5226 -1.2243  0.6023
12033SOL     OW43338  11.101   2.038   7.755  0.6539 -0.0418 -0.3241
12033SOL    HW143339  11.023   2.090   7.735  0.0298 -0.4423  0.9923
12033SOL    HW243340  11.140   2.019   7.669 -1.1954 -0.5942 -1.0811
12034SOL     OW43341   3.525  11.900   8.037  0.2589  0.1676  0.2163
12034SOL    HW143342   3.538  11.811   8.003  1.1489 -0.2629  1.6136
12034SOL    HW243343   3.437  11.898   8.075 -0.6140  0.5594 -1.6788
12035SOL     OW43344  10.340   1.751   7.411 -0.1289  0.0624 -0.0446
12035SOL    HW143345  10.341   1.800   7.329  0.6214  0.2774  0.0827
12035SOL    HW243346  10.336   1.818   7.479 -1.0751 -0.1269  0.0922
12036SOL     OW43347   6.779  11.512   8.732 -0.0369  0.6924  0.1086
12036SOL    HW143348   6.728  11.453   8.677  0.5166  0.1804  0.1294
12036SOL    HW243349   6.753  11.491   8.821  2.0533 -1.4286  0.3137
12037SOL     OW43350  12.062   5.551   1.241 -0.1052  0.3117 -0.2222
12037SOL    HW143351  12.108   5.484   1.293  0.6193  0.8552 -0.1476
12037SOL    HW243352  12.072   5.521   1.150  0.3579  0.3866 -0.2019
12038SOL     OW43353   1.322   7.632  10.032  0.5157  0.0522  0.1089
12038SOL    HW143354   1.301   7.552   9.983  2.6183 -0.5601  0.1063
12038SOL    HW243355   1.317   7.702   9.966 -0.6692 -0.1477 -0.0403
12039SOL     OW43356   0.466   4.911   4.910  0.0671  0.7807  0.1060
12039SOL    HW143357   0.491   4.895   4.819  0.8099  0.2885  0.3748
12039SOL    HW243358   0.436   4.826   4.942  1.5098  0.4925  0.8079
12040SOL     OW43359   2.172   4.179   7.321 -0.5088  0.4537 -0.2032
12040SOL    HW143360   2.095   4.235   7.330 -0.2328  1.0221 -1.3290
12040SOL    HW243361   2.240   4.235   7.285  0.7154  0.1722  1.5059
12041SOL     OW43362   6.388  11.754   3.476 -0.3205 -0.0910  0.3166
12041SOL    HW143363   6.312  11.708   3.513 -1.2231  0.3205 -0.9419
12041SOL    HW243364   6.356  11.788   3.393  1.3972 -0.2551 -0.4381
12042SOL     OW43365  12.601   7.603   3.481 -0.1505  0.3190  0.0840
12042SOL    HW143366  12.556   7.680   3.446 -0.2441 -0.2987 -1.2456
12042SOL    HW243367  12.596   7.539   3.410  1.6071 -0.2559  0.4436
12043SOL     OW43368   6.836   2.015   1.672 -0.2205 -0.0609  0.0169
12043SOL    HW143369   6.847   2.039   1.580 -0.1440 -0.6601 -0.1357
12043SOL    HW243370   6.836   1.919   1.672  0.2062 -0.0703  0.6899
12044SOL     OW43371  10.006   0.150   4.566 -0.6039 -0.3773 -0.4170
12044SOL    HW143372  10.013   0.224   4.626  0.6063  1.2962 -2.5047
12044SOL    HW243373   9.914   0.126   4.568 -0.6354 -0.2616  1.9244
12045SOL     OW43374   0.716   6.040   3.900 -0.0759 -0.1941 -0.6634
12045SOL    HW143375   0.758   6.098   3.837 -1.6213  1.6774 -0.0843
12045SOL    HW243376   0.722   6.088   3.983 -3.1799  0.2033 -0.5379
12046SOL     OW43377  11.121   3.948  12.289 -0.2351  0.0505  0.4068
12046SOL    HW143378  11.185   3.878  12.302 -0.6284 -0.2485  0.7668
12046SOL    HW243379  11.042   3.917  12.334 -0.7624  0.2351 -0.3805
12047SOL     OW43380  10.186   2.090   2.854 -0.1850  0.0968 -0.5303
12047SOL    HW143381  10.173   2.181   2.827 -1.7711  0.1050  0.1423
12047SOL    HW243382  10.208   2.095   2.947  1.0341 -0.1526 -0.7911
12048SOL     OW43383   4.634  11.857   2.247 -0.1904  0.3459  0.4800
12048SOL    HW143384   4.604  11.904   2.169  1.9438 -1.8199 -1.8403
12048SOL    HW243385   4.576  11.782   2.254  0.5765 -0.3063 -0.0145
12049SOL     OW43386   6.135  12.350   1.776  0.3769 -0.2034 -0.0268
12049SOL    HW143387   6.218  12.384   1.742  0.1021 -0.5757 -1.1204
12049SOL    HW243388   6.109  12.412   1.843  0.6218  0.9548 -0.9649
12050SOL     OW43389   6.776   1.483  10.435  0.1678 -0.3382 -0.0226
12050SOL    HW143390   6.698   1.475  10.380 -1.0973 -1.3452  1.8071
12050SOL    HW243391   6.811   1.570  10.415 -1.7629  0.3789 -0.4657
12051SOL     OW43392   5.954   8.194   5.278  0.2274 -0.0433 -0.0845
12051SOL    HW143393   5.987   8.230   5.361  0.7233 -0.8263  0.0703
12051SOL    HW243394   5.860   8.211   5.281  0.3569  0.6682  0.2614
12052SOL     OW43395   9.260  11.001   9.517 -0.2130  0.5773 -0.3825
12052SOL    HW143396   9.239  11.029   9.606 -1.1454  1.1324 -0.7668
12052SOL    HW243397   9.203  11.053   9.461  0.1292 -0.0003 -1.2954
12053SOL     OW43398   5.447  10.957  11.903 -0.5981 -0.2100 -0.3623
12053SOL    HW143399   5.510  10.997  11.964  0.4869 -0.3830 -1.3389
12053SOL    HW243400   5.497  10.944  11.822 -1.0134 -3.1232 -0.2574
12054SOL     OW43401   4.322   6.317   7.820 -0.0294  0.2349  0.0136
12054SOL    HW143402   4.354   6.369   7.894 -0.2545 -0.0786  0.3367
12054SOL    HW243403   4.362   6.357   7.743  1.7369 -0.6210  0.4539
12055SOL     OW43404   4.511   0.363  12.201 -0.1408  0.8565  0.6584
12055SOL    HW143405   4.549   0.421  12.267 -0.1362  1.0044  0.5280
12055SOL    HW243406   4.454   0.420  12.149  0.2475  0.8504  0.2168
12056SOL     OW43407  11.883   3.306  11.090  0.3385 -0.4602  0.6245
12056SOL    HW143408  11.899   3.401  11.095 -0.1863 -0.3922  1.1670
12056SOL    HW243409  11.840   3.285  11.173 -2.1588 -0.6710 -0.6248
12057SOL     OW43410  12.344  10.843   7.915 -0.2658  0.3138  0.7778
12057SOL    HW143411  12.348  10.749   7.933 -0.1169  0.2132  0.2360
12057SOL    HW243412  12.279  10.852   7.845 -0.1332  0.5923  0.6866
12058SOL     OW43413  10.339  12.529   9.706 -0.4025  0.3937 -0.2519
12058SOL    HW143414  10.288  12.515   9.786 -0.3374 -0.4895 -0.3544
12058SOL    HW243415  10.429  12.509   9.731  0.0260  2.5649  0.0928
12059SOL     OW43416   9.587   3.170   2.396 -0.2085  0.0528  0.0453
12059SOL    HW143417   9.641   3.169   2.316  0.3491  0.2224  0.4135
12059SOL    HW243418   9.651   3.167   2.467 -0.6677  0.8543  0.5021
12060SOL     OW43419   0.495   8.028   3.272  0.4523  0.0846 -0.1478
12060SOL    HW143420   0.483   8.078   3.352  3.1665  0.5653  0.0323
12060SOL    HW243421   0.462   7.941   3.293 -0.2763  0.6127  0.9690
12061SOL     OW43422   1.278   9.103   7.317  0.2836  0.1295 -0.6381
12061SOL    HW143423   1.329   9.044   7.261  0.2199  0.2764 -0.8526
12061SOL    HW243424   1.229   9.044   7.375  0.2466 -0.0274 -0.8274
12062SOL     OW43425  10.710   8.275  10.258 -0.1780  0.1331  0.4252
12062SOL    HW143426  10.752   8.355  10.290  0.7805 -0.5970  1.0776
12062SOL    HW243427  10.697   8.222  10.337 -0.9832 -0.2795  0.0297
12063SOL     OW43428  11.729   1.368   0.889 -0.2029 -0.3765  0.6681
12063SOL    HW143429  11.747   1.293   0.945 -0.1014 -0.6726  0.2508
12063SOL    HW243430  11.795   1.433   0.914  1.0745 -1.2006 -0.3846
12064SOL     OW43431   7.429   0.932   9.458  0.4110  0.4832 -0.0230
12064SOL    HW143432   7.410   0.858   9.516  0.3759  2.2157  2.3436
12064SOL    HW243433   7.486   0.896   9.391  2.4127 -1.2421  2.4116
12065SOL     OW43434   8.583  10.849  11.112  0.0025  0.2868 -0.4734
12065SOL    HW143435   8.543  10.763  11.095  0.7143  0.1640 -1.6185
12065SOL    HW243436   8.529  10.910  11.061  0.7594  0.2285 -1.3611
12066SOL     OW43437   4.350   8.658   1.895 -0.1487  0.4225  0.1590
12066SOL    HW143438   4.383   8.745   1.917  0.8796  0.2307 -0.5583
12066SOL    HW243439   4.322   8.666   1.804  0.9794 -0.2693 -0.2660
12067SOL     OW43440  10.376   6.355   1.561 -0.0506 -0.0813  0.1074
12067SOL    HW143441  10.391   6.341   1.468 -0.3512 -0.1610  0.0703
12067SOL    HW243442  10.366   6.267   1.597  1.0868 -0.1092  0.3954
12068SOL     OW43443   1.225   2.392   4.166 -0.1466  0.7738  0.7243
12068SOL    HW143444   1.258   2.304   4.148 -1.9867  0.6441 -2.7983
12068SOL    HW243445   1.130   2.381   4.176 -0.3855  2.3053  0.4505
12069SOL     OW43446  11.703   1.668   4.887 -0.7276 -0.2381  0.4336
12069SOL    HW143447  11.615   1.694   4.858 -1.2668  1.4263  3.1751
12069SOL    HW243448  11.760   1.739   4.857 -0.2564 -1.3180 -1.3451
12070SOL     OW43449   0.373   0.186  12.616 -0.0818  0.2054  0.2617
12070SOL    HW143450   0.456   0.195  12.662 -1.9712  2.2129  3.7004
12070SOL    HW243451   0.328   0.116  12.662 -0.1435 -1.3244 -1.9929
12071SOL     OW43452  11.688   9.366  12.227  0.2240  1.1207  0.0976
12071SOL    HW143453  11.710   9.405  12.142  0.3456  1.3803  0.2462
12071SOL    HW243454  11.724   9.277  12.223 -0.3764  0.8931 -0.3839
12072SOL     OW43455  11.380  12.512  12.519 -0.1949 -0.2277 -0.8008
12072SOL    HW143456  11.323  12.580  12.484 -0.4741  0.4357  0.8258
12072SOL    HW243457  11.459  12.517  12.465 -0.5679  0.7833 -1.2831
12073SOL     OW43458   0.894   7.626   1.533  0.5952 -0.0718 -0.5221
12073SOL    HW143459   0.844   7.701   1.565 -2.8013 -0.9273 -3.2237
12073SOL    HW243460   0.916   7.649   1.442  3.9021 -0.4457  0.0552
12074SOL     OW43461   3.927   3.084   6.174  0.0920 -0.0540  0.1323
12074SOL    HW143462   3.960   3.022   6.239  0.2299 -0.4523 -0.3104
12074SOL    HW243463   3.880   3.029   6.110 -1.0902  0.4448  0.5305
12075SOL     OW43464   4.689   1.289   4.825  0.0854 -0.0175  0.0142
12075SOL    HW143465   4.732   1.255   4.747 -0.1344 -0.5307  0.1108
12075SOL    HW243466   4.722   1.378   4.834  0.0070  0.0934 -0.7431
12076SOL     OW43467   1.462   9.093   2.428  0.0138  0.4151  0.3036
12076SOL    HW143468   1.459   9.131   2.516  1.1262  1.4290 -0.0724
12076SOL    HW243469   1.505   9.160   2.374  1.1522 -0.9790 -0.5932
12077SOL     OW43470  12.205   7.947   5.342 -0.1053  0.2464 -0.1592
12077SOL    HW143471  12.288   7.990   5.320 -1.0027  2.8650  1.1495
12077SOL    HW243472  12.157   8.013   5.392 -2.3905 -1.7202  0.3954
12078SOL     OW43473   2.603   1.201   5.165 -0.2129  0.0848  0.0609
12078SOL    HW143474   2.634   1.119   5.203  0.6852  0.8981  1.1586
12078SOL    HW243475   2.655   1.213   5.086 -0.7738 -0.6930 -0.4325
12079SOL     OW43476   2.214   9.743   1.755 -0.0244  1.0755 -0.2955
12079SOL    HW143477   2.146   9.774   1.814  0.7055  1.4485  0.3570
12079SOL    HW243478   2.226   9.814   1.691  0.1254  1.2350 -0.0909
12080SOL     OW43479   0.720   5.031   5.598 -0.0887 -0.0294  0.0815
12080SOL    HW143480   0.804   4.993   5.571  0.2396  0.4564  0.3975
12080SOL    HW243481   0.656   4.991   5.540  0.4885  0.2908 -0.7936
12081SOL     OW43482   5.587   8.692  10.927  0.3920 -0.2083  0.1445
12081SOL    HW143483   5.515   8.699  10.865  0.8228 -1.9715 -0.6029
12081SOL    HW243484   5.621   8.782  10.933 -0.0009  0.1250 -1.7721
12082SOL     OW43485   9.054   1.176   0.900 -0.3314  0.8876 -0.4954
12082SOL    HW143486   9.006   1.190   0.981 -1.4855 -1.5224 -0.6799
12082SOL    HW243487   9.145   1.195   0.923 -0.6518  0.3912  1.3250
12083SOL     OW43488   0.609   8.463   8.186  0.0191 -0.7822  0.4247
12083SOL    HW143489   0.704   8.452   8.180 -0.0387 -0.8917 -0.4464
12083SOL    HW243490   0.595   8.506   8.271  0.7182 -2.0963  1.2394
12084SOL     OW43491   8.582   8.985  10.319 -0.3519 -0.3499 -0.0065
12084SOL    HW143492   8.600   9.075  10.291 -1.6779 -0.3094 -0.7998
12084SOL    HW243493   8.601   8.984  10.413 -1.5840  1.1066  0.2823
12085SOL     OW43494  12.140   0.419   3.769 -0.5397  0.6203 -0.3611
12085SOL    HW143495  12.101   0.405   3.683  1.3696 -1.2605 -1.0157
12085SOL    HW243496  12.170   0.332   3.797  0.7562  1.5085  1.2509
12086SOL     OW43497   2.862   4.502   0.801  0.1732  0.5200 -0.2942
12086SOL    HW143498   2.955   4.522   0.791  0.2937  0.7716  1.1651
12086SOL    HW243499   2.835   4.468   0.715  1.9879 -1.0457 -0.3098
12087SOL     OW43500   8.933   2.936   2.943 -0.4291 -0.1380  0.1445
12087SOL    HW143501   9.005   2.998   2.930 -0.7823  1.2544  3.8051
12087SOL    HW243502   8.975   2.850   2.937  0.9696  0.5473 -0.4809
12088SOL     OW43503   9.409   7.124   0.330 -0.4008  0.3520  0.2144
12088SOL    HW143504   9.315   7.123   0.351 -0.2942 -0.1906  0.6996
12088SOL    HW243505   9.447   7.184   0.394 -0.3040 -0.0537  0.5397
12089SOL     OW43506  11.693   5.861   6.878  0.1590  0.2677  0.6452
12089SOL    HW143507  11.769   5.809   6.853  0.3696  0.8115  0.1358
12089SOL    HW243508  11.619   5.816   6.836  0.4699  0.9859 -0.7625
12090SOL     OW43509   0.755   8.200   6.855  0.2127 -0.0440  0.3545
12090SOL    HW143510   0.667   8.229   6.830  0.0407 -1.5102 -0.8571
12090SOL    HW243511   0.808   8.279   6.849 -0.8466  0.6866  0.2668
12091SOL     OW43512   0.545   7.311   1.233  0.0976 -0.1004 -0.2552
12091SOL    HW143513   0.544   7.295   1.328  2.6498  0.6033 -0.0441
12091SOL    HW243514   0.509   7.231   1.195 -0.2291 -0.7089  1.2629
12092SOL     OW43515   0.319   7.988  11.211  0.2681  0.0509  0.0179
12092SOL    HW143516   0.281   7.900  11.211  1.2956 -0.4990  2.5937
12092SOL    HW243517   0.245   8.045  11.190 -0.3498 -1.3934 -2.0538
12093SOL     OW43518   6.895  10.852   8.322 -0.1247 -0.2949 -0.2889
12093SOL    HW143519   6.893  10.873   8.415  0.1993 -0.3719 -0.2626
12093SOL    HW243520   6.819  10.897   8.285  0.0008  0.1068 -0.0637
12094SOL     OW43521   3.644   3.217  11.010  0.7591 -0.5711  0.0015
12094SOL    HW143522   3.638   3.304  11.050 -0.3151 -0.2580 -0.7901
12094SOL    HW243523   3.602   3.158  11.073 -1.1000 -0.0543 -0.6932
12095SOL     OW43524   4.520   3.709  11.677 -0.2173 -0.0570 -0.2107
12095SOL    HW143525   4.491   3.639  11.735  1.8159 -0.5900  0.2659
12095SOL    HW243526   4.501   3.677  11.589 -0.4980 -0.6362  0.0560
12096SOL     OW43527   3.635   6.751   2.058 -0.1608 -0.3864  0.4513
12096SOL    HW143528   3.685   6.705   1.991  0.4485 -1.4227  1.5823
12096SOL    HW243529   3.547   6.758   2.022  0.5314  0.6151 -1.1684
12097SOL     OW43530   4.249   3.633  11.964 -0.2638 -0.6633 -0.0478
12097SOL    HW143531   4.273   3.725  11.954 -1.5788 -0.2789  0.0628
12097SOL    HW243532   4.293   3.588  11.892  1.6370 -0.2216  0.7887
12098SOL     OW43533   5.723   5.202  12.158  0.3101 -0.5543 -0.4650
12098SOL    HW143534   5.790   5.135  12.150 -0.1817 -1.6082  2.6972
12098SOL    HW243535   5.761   5.267  12.218 -1.3732 -1.2034  1.4374
12099SOL     OW43536   8.815   4.128  11.745 -0.0648 -0.0466 -0.4567
12099SOL    HW143537   8.902   4.158  11.771 -1.0247  1.5541  1.1920
12099SOL    HW243538   8.827   4.090  11.659  2.8096 -2.7766  0.9509
12100SOL     OW43539  11.204   0.588  10.238 -0.2063  0.2385  0.5132
12100SOL    HW143540  11.181   0.616  10.149  0.8165  1.3726  0.5673
12100SOL    HW243541  11.248   0.504  10.226 -0.5264  0.1395  0.0021
12101SOL     OW43542   5.733   4.874   1.162 -0.0970  0.4241 -0.2688
12101SOL    HW143543   5.803   4.909   1.107  1.0261 -1.6778 -0.3063
12101SOL    HW243544   5.761   4.892   1.252 -0.0169  0.4829 -0.3056
12102SOL     OW43545   1.093   1.465   3.500  0.0035  0.0011  0.4856
12102SOL    HW143546   1.134   1.462   3.587 -1.1385  0.9806  1.0852
12102SOL    HW243547   1.042   1.546   3.501  1.0223  0.7340 -1.5952
12103SOL     OW43548   8.858   5.298   0.269 -0.2528 -0.0895 -0.8232
12103SOL    HW143549   8.784   5.306   0.329  0.1384 -1.3534 -0.1224
12103SOL    HW243550   8.933   5.329   0.320  0.1666 -1.6364 -0.4256
12104SOL     OW43551  10.405   7.974   8.531 -0.1659 -0.3717  0.4684
12104SOL    HW143552  10.438   8.039   8.469  0.2095 -1.1705 -0.1869
12104SOL    HW243553  10.471   7.973   8.601 -0.5234  0.4315  0.8413
12105SOL     OW43554   3.229   5.563   3.991  0.1418 -0.4440 -0.1505
12105SOL    HW143555   3.255   5.473   4.010 -0.2060 -0.6676 -0.7001
12105SOL    HW243556   3.160   5.582   4.055 -0.4471 -0.9040 -0.6330
12106SOL     OW43557  11.051   2.437   0.021  0.1793  0.1762 -0.0599
12106SOL    HW143558  11.051   2.349   0.060  0.5704 -0.8516 -2.2665
12106SOL    HW243559  10.964   2.446  -0.018  0.6425  0.1372 -1.1377
12107SOL     OW43560   3.936  11.114   3.769 -0.0222  0.3065 -0.1374
12107SOL    HW143561   3.948  11.182   3.836  2.4956  0.6320 -0.8334
12107SOL    HW243562   3.918  11.163   3.689 -0.6408  0.0188 -0.1805
12108SOL     OW43563   4.381   1.564  12.480  0.2165  0.4851  0.1320
12108SOL    HW143564   4.315   1.607  12.534  1.3714  1.2820  0.9434
12108SOL    HW243565   4.424   1.502  12.539 -0.7321 -1.1021 -0.7629
12109SOL     OW43566  11.979   0.481   5.172  0.2614  0.6149 -0.3308
12109SOL    HW143567  11.911   0.522   5.226 -0.4339  0.7455 -1.2801
12109SOL    HW243568  11.958   0.507   5.083  1.0418 -0.0849 -0.7363
12110SOL     OW43569   1.723   8.449   3.443 -0.0143  0.5334 -0.1245
12110SOL    HW143570   1.667   8.373   3.428 -1.3173  1.2500  0.9435
12110SOL    HW243571   1.669   8.510   3.494  0.8761  2.3340 -1.2347
12111SOL     OW43572   1.756   8.880  10.971 -0.0877  0.3037  0.1058
12111SOL    HW143573   1.764   8.930  11.052  1.7115  2.4372 -1.2706
12111SOL    HW243574   1.774   8.790  10.997  1.3538  1.0572  1.9608
12112SOL     OW43575   2.497   2.524   7.229  0.4103  0.3071  0.1271
12112SOL    HW143576   2.546   2.512   7.310  0.1477  1.0664  0.4084
12112SOL    HW243577   2.406   2.531   7.256  0.3504  0.8888 -0.1926
12113SOL     OW43578  12.522   4.707   7.111  0.4342 -0.1791 -0.1643
12113SOL    HW143579  12.524   4.735   7.020 -1.0222 -3.8848 -1.5097
12113SOL    HW243580  12.446   4.750   7.149 -1.9052 -2.2018 -2.2136
12114SOL     OW43581   7.179  10.314  11.427 -0.3581  0.2303  0.1315
12114SOL    HW143582   7.228  10.333  11.507  0.1253  0.5491 -0.2365
12114SOL    HW243583   7.234  10.348  11.357  0.8499 -2.9831 -0.6467
12115SOL     OW43584  10.637  10.029   5.267  0.3351  0.4078  0.6208
12115SOL    HW143585  10.652   9.941   5.301  1.5940  0.9180  1.4753
12115SOL    HW243586  10.717  10.050   5.218 -0.4355  0.6468 -0.5932
12116SOL     OW43587   5.267  10.579   5.016  0.0408  0.1799 -0.4014
12116SOL    HW143588   5.361  10.595   5.025 -0.1472  1.2463 -0.1780
12116SOL    HW243589   5.253  10.492   5.055  0.6249  0.9073  1.5756
12117SOL     OW43590   5.001   8.581   0.278  0.1754 -0.8159  0.6426
12117SOL    HW143591   5.016   8.661   0.328 -0.4638 -0.2427 -0.0634
12117SOL    HW243592   5.086   8.537   0.278  0.9363  0.5852 -0.2075
12118SOL     OW43593   6.618   5.225  11.213 -0.0518 -0.2463  0.3685
12118SOL    HW143594   6.659   5.139  11.200  1.0121  0.5317 -1.9203
12118SOL    HW243595   6.558   5.234  11.139  0.3755  1.2437  0.1662
12119SOL     OW43596   6.904   2.469   2.943 -0.0101 -0.1521 -0.2273
12119SOL    HW143597   6.951   2.436   2.867  0.2394  0.8627 -0.5327
12119SOL    HW243598   6.877   2.558   2.918  2.6872  1.4349  1.9245
12120SOL     OW43599   5.009  10.148  12.621  0.3345 -0.0026 -0.2254
12120SOL    HW143600   5.075  10.202  12.666 -0.8160  1.0076  0.3103
12120SOL    HW243601   4.983  10.083  12.687 -2.4313  2.3763  1.2957
12121SOL     OW43602  10.695   6.079   4.260 -0.2264  0.3784  0.1195
12121SOL    HW143603  10.722   6.000   4.307  0.8287  0.5847 -0.1121
12121SOL    HW243604  10.604   6.063   4.236 -0.2202 -0.4886  0.6478
12122SOL     OW43605   1.749   9.077   0.740  0.1174 -0.3351  0.5818
12122SOL    HW143606   1.719   9.167   0.727 -2.2013 -0.9717  0.9997
12122SOL    HW243607   1.761   9.042   0.652  3.3178  0.9697  0.3581
12123SOL     OW43608   5.601   3.834   0.723 -0.8898 -0.6265 -0.1075
12123SOL    HW143609   5.623   3.808   0.634  1.8071 -1.8970  0.7966
12123SOL    HW243610   5.607   3.929   0.723  1.1848 -0.7121 -0.8560
12124SOL     OW43611  10.115   9.205   1.757  0.4355  0.0530  0.5832
12124SOL    HW143612  10.136   9.112   1.745  0.0586  0.0363  0.0101
12124SOL    HW243613  10.073   9.231   1.675 -1.6126  0.1164  1.5700
12125SOL     OW43614   8.537   4.971   2.164  0.6347 -0.1452 -0.4254
12125SOL    HW143615   8.515   5.036   2.231  0.9748 -0.3150 -0.1455
12125SOL    HW243616   8.478   4.990   2.091  0.1375 -0.0731 -0.0058
12126SOL     OW43617   3.021  12.593   1.388  0.1954 -0.1313  0.7810
12126SOL    HW143618   3.014  12.622   1.297  0.5605  3.3029  1.6925
12126SOL    HW243619   2.985  12.504   1.388 -2.2324  0.6741 -2.2586
12127SOL     OW43620   6.653   8.603   7.912  0.0311 -0.1502 -0.3142
12127SOL    HW143621   6.663   8.698   7.913  0.5801 -0.0986 -3.0243
12127SOL    HW243622   6.733   8.571   7.869  0.3091 -1.9541  1.3949
12128SOL     OW43623  12.108   5.249   5.209 -0.6524  0.3241 -0.1351
12128SOL    HW143624  12.133   5.336   5.238  0.7005  0.8208 -2.5527
12128SOL    HW243625  12.039   5.223   5.270 -0.2295  2.5335  1.4198
12129SOL     OW43626   8.370   2.263   9.370 -0.2179 -0.1004  0.4513
12129SOL    HW143627   8.298   2.324   9.353 -0.0182  0.2834  0.9223
12129SOL    HW243628   8.447   2.320   9.379  0.2137 -0.5381 -0.4305
12130SOL     OW43629  10.105   4.354   7.794  0.2192  0.1293 -0.1629
12130SOL    HW143630  10.153   4.272   7.784  0.0190 -0.1532  1.0868
12130SOL    HW243631  10.047   4.358   7.718  1.7450  0.1713 -1.3733
12131SOL     OW43632  12.442   9.439   3.613 -0.3607 -0.0193 -0.3264
12131SOL    HW143633  12.353   9.442   3.579 -0.0635 -0.4859 -1.2157
12131SOL    HW243634  12.494   9.485   3.547 -0.0972  1.2745  0.7562
12132SOL     OW43635   6.504   9.418   8.518  0.2940  0.5731  0.5414
12132SOL    HW143636   6.529   9.501   8.560 -1.4714  1.7751 -0.6120
12132SOL    HW243637   6.409   9.426   8.506  0.5927  0.1150 -3.1586
12133SOL     OW43638  12.198   8.707   4.605  0.3701 -0.6570  0.5001
12133SOL    HW143639  12.262   8.659   4.551  0.8884  0.7863 -0.2119
12133SOL    HW243640  12.154   8.766   4.544  0.4899  0.5280  1.5238
12134SOL     OW43641   9.814   8.028   1.336  0.0929  0.8383  0.0452
12134SOL    HW143642   9.719   8.028   1.348 -0.0195 -0.2659 -0.6518
12134SOL    HW243643   9.843   8.113   1.370 -1.1332  1.1688  0.3123
12135SOL     OW43644  10.411  10.074   2.357  0.6195 -0.3487  0.0774
12135SOL    HW143645  10.457  10.150   2.321 -1.3017 -0.6763 -3.4115
12135SOL    HW243646  10.466   9.999   2.333  1.4000 -0.2982  1.5876
12136SOL     OW43647   5.513  10.612   2.778 -0.4304 -0.1446 -0.5531
12136SOL    HW143648   5.603  10.592   2.802 -0.8462 -1.7130 -0.1560
12136SOL    HW243649   5.473  10.644   2.858 -0.3278  0.1590 -0.6240
12137SOL     OW43650  10.199   1.366   4.841  0.0571 -0.1796 -0.0839
12137SOL    HW143651  10.209   1.324   4.927 -0.0732  4.0469  2.2470
12137SOL    HW243652  10.285   1.356   4.799  0.7294 -0.7188  1.3554
12138SOL     OW43653   6.972   2.248   9.239  0.8787  0.5545  0.1098
12138SOL    HW143654   6.911   2.177   9.259  1.1521  0.4688  0.6624
12138SOL    HW243655   6.930   2.326   9.273  0.7885  0.5903 -0.0834
12139SOL     OW43656   9.619   3.581   5.076 -0.6361  0.2905  0.4332
12139SOL    HW143657   9.565   3.637   5.020 -1.3266  1.9986  2.6459
12139SOL    HW243658   9.572   3.498   5.079 -1.8501  0.9483  0.3550
12140SOL     OW43659   6.365   3.646   6.383  0.0653 -0.1368 -0.9213
12140SOL    HW143660   6.281   3.622   6.344  0.0340  2.0613 -2.3674
12140SOL    HW243661   6.353   3.632   6.477 -1.4973 -1.0275 -1.2282
12141SOL     OW43662   9.490   7.872   4.122  0.1198 -0.0296 -0.3430
12141SOL    HW143663   9.421   7.833   4.176  0.6164  0.0489  0.3565
12141SOL    HW243664   9.561   7.892   4.184  0.5637  0.3699 -0.9701
12142SOL     OW43665   0.956   9.412   5.935 -0.0732  0.5650 -0.0346
12142SOL    HW143666   0.952   9.451   5.847 -1.4280 -0.6890 -0.5684
12142SOL    HW243667   0.885   9.348   5.936  1.2851 -1.0073  1.2426
12143SOL     OW43668   5.845   3.202   5.512  0.3835 -0.3626 -0.2124
12143SOL    HW143669   5.872   3.146   5.585  0.5032 -0.1583 -0.1003
12143SOL    HW243670   5.810   3.281   5.553  1.3487  0.1658 -0.3862
12144SOL     OW43671  10.615  10.166   5.502  0.4181  0.2747 -0.3684
12144SOL    HW143672  10.647  10.139   5.416  1.1901 -2.0409  0.5448
12144SOL    HW243673  10.522  10.142   5.502  0.9526 -2.0305  0.2042
12145SOL     OW43674   5.425   0.185   2.737  0.5127  0.2024 -0.7818
12145SOL    HW143675   5.440   0.108   2.682 -0.2258 -1.0582  0.7162
12145SOL    HW243676   5.449   0.157   2.825 -2.3678  0.7489  0.2922
12146SOL     OW43677  11.093   1.430   5.446  0.1769 -0.1492  0.5126
12146SOL    HW143678  11.051   1.461   5.526 -0.1148 -1.2026  0.7862
12146SOL    HW243679  11.040   1.356   5.418 -0.5588  1.0417 -1.4578
12147SOL     OW43680   0.792  11.767   4.211 -0.1894 -0.4049  0.1867
12147SOL    HW143681   0.825  11.736   4.126 -0.3623 -0.1013  0.0081
12147SOL    HW243682   0.870  11.769   4.267 -0.0806 -0.6424  0.0472
12148SOL     OW43683  12.279   4.796   5.567  0.8047 -0.3945 -0.3417
12148SOL    HW143684  12.309   4.734   5.633  0.9472 -0.3498 -0.3653
12148SOL    HW243685  12.269   4.878   5.615  0.4923 -0.4655 -0.2814
12149SOL     OW43686  10.491   9.588   6.367 -0.6868 -0.1814  0.3737
12149SOL    HW143687  10.437   9.585   6.288 -1.6173  0.4034  0.9750
12149SOL    HW243688  10.429   9.588   6.439  0.1116  0.4208  1.0888
12150SOL     OW43689   0.272  10.863  10.441 -0.4119 -0.4059 -0.2018
12150SOL    HW143690   0.247  10.945  10.484 -2.2374 -1.6936  1.3278
12150SOL    HW243691   0.220  10.861  10.361 -0.6025 -0.2260 -0.0834
12151SOL     OW43692   5.811   5.615  10.044  0.0634  0.2517  0.5071
12151SOL    HW143693   5.764   5.660   9.974  0.2770 -0.3535 -0.0386
12151SOL    HW243694   5.792   5.665  10.123 -0.3502  0.8214  0.0475
12152SOL     OW43695  11.862   8.849   5.118  0.4962  0.4640 -0.0073
12152SOL    HW143696  11.790   8.858   5.181 -0.9013  1.1759 -1.6402
12152SOL    HW243697  11.820   8.818   5.038  2.1612  0.0518 -0.7563
12153SOL     OW43698  12.678   5.964  11.747 -0.2201  0.3234  0.1054
12153SOL    HW143699  12.698   5.899  11.814  0.0159  0.1653 -0.1188
12153SOL    HW243700  12.594   5.936  11.710 -0.4268  0.4972  0.4400
12154SOL     OW43701  10.244  10.946   4.329 -0.4469  0.1321 -0.0783
12154SOL    HW143702  10.335  10.942   4.359 -1.0401  0.9445  1.9689
12154SOL    HW243703  10.200  11.004   4.391 -2.0364  1.0588 -1.9553
12155SOL     OW43704   1.989   1.323   3.811  0.0538  0.1145  0.1256
12155SOL    HW143705   1.914   1.301   3.755 -0.7151  1.2352  0.6703
12155SOL    HW243706   2.062   1.277   3.771 -0.1313  1.9880 -2.7351
12156SOL     OW43707  11.892   9.692   1.691  0.3809  0.2073 -0.1698
12156SOL    HW143708  11.845   9.627   1.638  0.2467 -0.3259  0.5846
12156SOL    HW243709  11.882   9.661   1.781  1.6635  0.4222  0.0655
12157SOL     OW43710   4.786   6.278   2.832 -0.0014 -0.1835  0.6509
12157SOL    HW143711   4.782   6.373   2.836  1.3804  0.0589 -1.9630
12157SOL    HW243712   4.716   6.253   2.772 -0.5586 -0.8999  1.5539
12158SOL     OW43713   5.123   5.729   5.431  0.2926 -0.7387 -0.0389
12158SOL    HW143714   5.061   5.694   5.495 -0.7494  0.0971 -0.5659
12158SOL    HW243715   5.172   5.795   5.479  0.8427 -1.4584  0.4021
12159SOL     OW43716   1.968   1.131   1.695  0.2890  0.1682  0.3664
12159SOL    HW143717   2.014   1.169   1.621  0.1653  0.0351  0.2201
12159SOL    HW243718   2.028   1.143   1.769  0.4604  0.2021  0.2237
12160SOL     OW43719   0.856   7.640   9.801 -0.5047  0.0968 -0.5888
12160SOL    HW143720   0.823   7.702   9.735 -0.4649 -0.2697 -0.9515
12160SOL    HW243721   0.839   7.684   9.885  0.7386  1.2004 -0.8887
12161SOL     OW43722   9.030  12.315  12.473 -0.4671  0.9579  0.1253
12161SOL    HW143723   9.102  12.352  12.422  0.2172  1.3472  1.3478
12161SOL    HW243724   9.067  12.235  12.512 -1.3165  0.0613 -0.8391
12162SOL     OW43725   5.022   2.464  11.172  0.6191  0.5379  0.0289
12162SOL    HW143726   5.029   2.554  11.203 -0.2500  0.1229  1.5713
12162SOL    HW243727   5.058   2.411  11.244 -0.5605 -0.4288 -0.0519
12163SOL     OW43728   4.092   5.203   4.064  0.3357  0.1907 -0.0829
12163SOL    HW143729   4.030   5.132   4.078 -0.3534  0.8070  0.0238
12163SOL    HW243730   4.162   5.187   4.128 -0.5215  0.4158  0.9277
12164SOL     OW43731   4.880   0.642   4.845  0.0279 -0.0249 -0.1694
12164SOL    HW143732   4.908   0.729   4.816  0.2094 -0.4213 -1.2281
12164SOL    HW243733   4.916   0.582   4.780 -1.6335 -0.7302 -0.4849
12165SOL     OW43734   6.496   2.546   0.124 -0.5590 -0.9600 -0.3999
12165SOL    HW143735   6.474   2.520   0.213 -0.8973 -0.8530 -0.4531
12165SOL    HW243736   6.444   2.624   0.108  1.4294  0.5726  0.2273
12166SOL     OW43737   8.157   3.355   8.107  0.1345  0.2573  0.4031
12166SOL    HW143738   8.061   3.354   8.115  0.0403  0.2850 -0.5189
12166SOL    HW243739   8.174   3.422   8.040  0.6622 -0.9687 -0.7438
12167SOL     OW43740   3.151   7.105   4.754 -0.8297 -0.3377  0.4605
12167SOL    HW143741   3.067   7.068   4.726 -0.3237 -0.9781 -0.2691
12167SOL    HW243742   3.169   7.173   4.690 -1.7717  1.2441  1.8180
12168SOL     OW43743   2.164   7.624  10.852 -0.0933 -0.3018 -0.3057
12168SOL    HW143744   2.250   7.609  10.891 -0.0826 -2.2310 -0.9921
12168SOL    HW243745   2.106   7.565  10.899 -0.8973  0.3593 -0.4364
12169SOL     OW43746   0.206   3.767   5.866  0.0980  0.1692  0.3223
12169SOL    HW143747   0.169   3.808   5.944 -1.5677 -1.0218  0.1955
12169SOL    HW243748   0.255   3.692   5.899  1.5633  1.0911  0.3841
12170SOL     OW43749   0.275  12.354   1.299  0.6062 -0.0970  0.2714
12170SOL    HW143750   0.252  12.440   1.264 -0.5257 -0.2165  0.6925
12170SOL    HW243751   0.287  12.369   1.392 -0.7208 -0.5898  0.5403
12171SOL     OW43752   6.268   2.890   5.832  0.1203 -0.0402  0.5494
12171SOL    HW143753   6.340   2.831   5.810  0.1522  0.7070 -1.5297
12171SOL    HW243754   6.296   2.975   5.797 -2.1649  0.0652 -1.2274
12172SOL     OW43755  10.280   2.738  11.097 -0.1817  0.6801 -0.3384
12172SOL    HW143756  10.241   2.657  11.129  0.3705 -0.0314 -1.4091
12172SOL    HW243757  10.371   2.716  11.078 -0.0500  1.5145 -0.7516
12173SOL     OW43758   4.841   3.076   6.314  0.2640 -0.9383  0.4195
12173SOL    HW143759   4.852   3.015   6.387  0.3489  0.3692  1.5394
12173SOL    HW243760   4.756   3.118   6.331  0.3229 -0.5644 -0.1949
12174SOL     OW43761   1.812   4.924   2.397 -0.4025  0.3853  0.2739
12174SOL    HW143762   1.765   5.001   2.430  0.6206  1.3300 -0.3792
12174SOL    HW243763   1.862   4.893   2.472 -2.8676 -1.3512  1.3183
12175SOL     OW43764   2.172   8.888   5.449  0.7933 -0.9234 -0.3532
12175SOL    HW143765   2.091   8.938   5.459  1.8447  0.6811  0.7415
12175SOL    HW243766   2.192   8.894   5.356  1.2011  1.3731 -0.1965
12176SOL     OW43767   6.096  11.707   2.752  0.1876 -0.0209 -0.0902
12176SOL    HW143768   6.081  11.652   2.675 -0.2119 -0.5372  0.3458
12176SOL    HW243769   6.153  11.777   2.721  1.3055 -1.0656 -0.5102
12177SOL     OW43770   4.031   7.503   2.048 -0.6966 -0.0231  0.3242
12177SOL    HW143771   4.005   7.423   2.092 -2.1258  0.4609  0.4007
12177SOL    HW243772   4.123   7.489   2.024 -0.1531 -0.6635  2.5945
12178SOL     OW43773  11.636   4.371  11.935 -0.3937 -0.0664  0.1193
12178SOL    HW143774  11.707   4.373  11.871 -0.0075  1.3886  0.5498
12178SOL    HW243775  11.676   4.401  12.017 -1.4693  0.6983  0.3872
12179SOL     OW43776   4.450   9.021   6.565 -0.0425 -0.6411  0.1076
12179SOL    HW143777   4.465   9.030   6.659 -0.7369 -0.3149  0.1970
12179SOL    HW243778   4.514   9.080   6.525  0.3236 -0.8596  0.3701
12180SOL     OW43779   3.690   9.269   6.124  0.4262 -0.3391  0.5328
12180SOL    HW143780   3.681   9.176   6.104 -0.5896  0.1481 -1.6266
12180SOL    HW243781   3.783   9.288   6.111  0.8660 -1.2492  2.1378
12181SOL     OW43782   3.309   6.172  12.076  0.3128 -0.6286 -0.3851
12181SOL    HW143783   3.313   6.117  12.155  0.0532 -1.5302 -0.9853
12181SOL    HW243784   3.219   6.161  12.044 -0.7198  2.4634  1.0752
12182SOL     OW43785   4.796   8.111   7.545 -0.0845 -0.0106 -0.0035
12182SOL    HW143786   4.884   8.079   7.524  0.2528 -0.2784  1.6912
12182SOL    HW243787   4.739   8.036   7.528  0.1914 -0.2572  0.1467
12183SOL     OW43788  10.362   8.461   3.597 -0.4421 -0.1903  0.1493
12183SOL    HW143789  10.417   8.405   3.652 -1.2014 -0.0398  1.0816
12183SOL    HW243790  10.423   8.501   3.535  0.0200 -2.7463 -1.1874
12184SOL     OW43791   3.975   2.710   1.049  0.2784  0.1591 -0.1758
12184SOL    HW143792   3.916   2.661   1.105  1.2641 -0.8257  0.0379
12184SOL    HW243793   3.989   2.653   0.973  0.5636  0.5949 -0.4568
12185SOL     OW43794   9.189   3.798   2.796  0.0028  0.1853 -0.0637
12185SOL    HW143795   9.148   3.794   2.710  0.2191 -2.1948 -0.1093
12185SOL    HW243796   9.215   3.708   2.815 -0.2801  0.5744  2.6116
12186SOL     OW43797   8.796   8.648   7.592 -0.0302  0.2069 -0.0148
12186SOL    HW143798   8.812   8.734   7.631 -1.5891  1.0930 -1.2441
12186SOL    HW243799   8.782   8.665   7.499  0.0439 -1.4357 -0.3625
12187SOL     OW43800   9.817   4.744  12.369  0.1630  0.0562 -0.1522
12187SOL    HW143801   9.801   4.770  12.460 -0.8810  0.8496 -0.5522
12187SOL    HW243802   9.902   4.783  12.348  0.4209 -0.1470  0.4759
12188SOL     OW43803  11.893   0.396   7.371 -0.5654 -0.4906  0.0711
12188SOL    HW143804  11.968   0.338   7.360  0.9707  1.7124 -2.1208
12188SOL    HW243805  11.901   0.429   7.460  2.0488  0.8258 -0.5471
12189SOL     OW43806   4.969   3.820   8.103  0.1580 -0.2592 -0.0007
12189SOL    HW143807   4.995   3.908   8.077  2.5353 -1.0550 -0.5267
12189SOL    HW243808   4.910   3.834   8.177 -0.0161  1.7816 -0.4603
12190SOL     OW43809   8.960   8.173   1.027  0.0150  0.5336  0.6620
12190SOL    HW143810   8.892   8.110   1.050  0.0452  1.4016  3.5099
12190SOL    HW243811   8.919   8.231   0.963 -1.4115  0.1432  1.1908
12191SOL     OW43812   1.753   5.471  12.233  0.5555  0.2486  0.3988
12191SOL    HW143813   1.707   5.417  12.296  0.0217  0.0478 -0.1538
12191SOL    HW243814   1.744   5.560  12.267 -0.2799  0.2169  0.2818
12192SOL     OW43815   6.871   6.946   3.334  0.0712 -0.5646  0.0162
12192SOL    HW143816   6.779   6.921   3.343 -0.6803  1.5341 -1.0662
12192SOL    HW243817   6.898   6.907   3.251  0.2834 -1.4446  0.4844
12193SOL     OW43818   8.655   5.740  11.052 -0.0215 -0.3689 -0.3362
12193SOL    HW143819   8.588   5.765  11.117 -0.4441 -0.0491 -0.8877
12193SOL    HW243820   8.714   5.815  11.050  0.0482 -0.4207 -0.2512
12194SOL     OW43821   9.584   9.183   1.207  0.1727  0.4277 -0.0467
12194SOL    HW143822   9.660   9.138   1.244  0.6130  0.6334 -0.6940
12194SOL    HW243823   9.543   9.117   1.152  1.1517  0.9696 -1.4659
12195SOL     OW43824   0.852  11.071   5.946  0.3393  0.0755 -0.3528
12195SOL    HW143825   0.846  11.089   5.852 -0.8498 -1.1114 -0.5313
12195SOL    HW243826   0.922  11.006   5.953  1.5051  1.3092 -0.2167
12196SOL     OW43827  12.299   4.049   5.796 -0.0177  0.0828  0.4215
12196SOL    HW143828  12.363   4.046   5.725  0.7693  1.1924  1.0600
12196SOL    HW243829  12.234   4.113   5.766  0.5615  0.9004  0.8887
12197SOL     OW43830   2.928   8.370   4.012  0.2202  0.8432 -0.2811
12197SOL    HW143831   2.918   8.344   3.920 -0.0122  1.0951 -0.3264
12197SOL    HW243832   2.846   8.414   4.034  0.2835  0.8009  0.0435
12198SOL     OW43833   6.823   4.143   7.443  0.1304 -0.2959  0.4372
12198SOL    HW143834   6.742   4.153   7.493  0.3888  0.2423  0.7497
12198SOL    HW243835   6.847   4.232   7.417 -0.4101 -0.6261 -1.3199
12199SOL     OW43836  12.123  10.661   1.463 -0.1822 -0.3587 -0.2386
12199SOL    HW143837  12.079  10.701   1.388 -1.3057 -0.4210  0.3670
12199SOL    HW243838  12.081  10.575   1.472 -0.3153 -0.2056  0.6772
12200SOL     OW43839   3.018   1.134  11.710  0.1296 -0.1056  0.4318
12200SOL    HW143840   2.938   1.180  11.736  0.0549 -0.5185  0.9623
12200SOL    HW243841   2.991   1.078  11.638  0.2333  0.7137 -0.2576
12201SOL     OW43842  11.604  12.284  12.655 -0.0573  0.5763  0.0547
12201SOL    HW143843  11.523  12.233  12.646  0.3857  0.0814 -1.3515
12201SOL    HW243844  11.617  12.324  12.569  3.1423 -2.3774 -1.0908
12202SOL     OW43845   9.188   5.873  10.766  0.1008  0.3971  0.1987
12202SOL    HW143846   9.195   5.781  10.740  1.2932  0.6065 -0.2934
12202SOL    HW243847   9.213   5.922  10.687  1.6201  1.0953  1.0588
12203SOL     OW43848   5.122   3.480   2.768  0.0481 -0.8392 -0.4174
12203SOL    HW143849   5.165   3.400   2.797 -0.1557 -0.5273  0.8079
12203SOL    HW243850   5.042   3.485   2.821  1.1351  1.2999  1.1856
12204SOL     OW43851  12.180   6.341  10.167  0.4828  0.0153  0.3268
12204SOL    HW143852  12.166   6.362  10.075  0.1823 -0.3257  0.2895
12204SOL    HW243853  12.228   6.258  10.167  2.0129  0.8622  0.4691
12205SOL     OW43854  12.318   3.931   3.233  0.0906 -0.4262  0.2842
12205SOL    HW143855  12.309   4.019   3.195  0.1063 -0.3691  0.4095
12205SOL    HW243856  12.374   3.884   3.172  0.7413 -0.1026  0.6137
12206SOL     OW43857  11.884   9.077   3.757 -0.4002 -1.0102  0.0949
12206SOL    HW143858  11.877   9.064   3.663 -2.6467 -1.3665  0.2618
12206SOL    HW243859  11.837   9.158   3.774  1.1627 -0.1932  0.8024
12207SOL     OW43860   8.077   9.291   1.910  0.1589 -0.0634 -0.2520
12207SOL    HW143861   8.129   9.347   1.853 -2.0523  0.7311 -1.6240
12207SOL    HW243862   8.100   9.318   1.998  1.9038  0.3635 -0.8103
12208SOL     OW43863   5.536   9.936   6.073  0.0108 -0.3931  0.8478
12208SOL    HW143864   5.598   9.983   6.017 -0.1783 -1.8068 -0.6162
12208SOL    HW243865   5.501  10.003   6.132  0.4550  1.0817 -0.5035
12209SOL     OW43866  10.494   8.938   6.741 -0.3567 -0.4611 -0.3616
12209SOL    HW143867  10.521   8.973   6.656 -0.3614  1.3256  0.3337
12209SOL    HW243868  10.553   8.979   6.803 -1.6033 -0.2355  0.7025
12210SOL     OW43869  11.081   4.356   0.812 -0.3647 -0.5996 -0.2418
12210SOL    HW143870  11.129   4.386   0.889 -0.6360 -2.1956  0.5962
12210SOL    HW243871  11.149   4.319   0.755 -0.2996 -0.4749 -0.2463
12211SOL     OW43872  11.211   7.680   6.358  0.2474 -0.0627  0.3743
12211SOL    HW143873  11.147   7.643   6.297 -1.4620 -1.1203  2.6499
12211SOL    HW243874  11.259   7.745   6.306 -1.9794  0.0597 -1.7293
12212SOL     OW43875   1.824   1.199   0.264 -0.2063 -0.4291 -0.2889
12212SOL    HW143876   1.742   1.153   0.246  0.9148 -2.9475  0.5495
12212SOL    HW243877   1.805   1.252   0.342 -0.9116 -1.4271  0.2445
12213SOL     OW43878   8.065   5.486  11.996  0.2596 -0.4670  0.4310
12213SOL    HW143879   8.003   5.412  11.991 -0.3383  0.0707 -0.2603
12213SOL    HW243880   8.140   5.458  11.944  1.1419 -1.5933  2.1864
12214SOL     OW43881   0.015   4.652   6.762  0.5045 -0.4242  0.5253
12214SOL    HW143882  -0.008   4.635   6.670  0.8337 -0.1255  0.3853
12214SOL    HW243883  -0.020   4.577   6.809 -1.4453  0.3775  0.4309
12215SOL     OW43884   8.539   3.364   6.724 -0.1200  0.0559 -0.0855
12215SOL    HW143885   8.449   3.381   6.754  0.1661 -0.4162  1.0838
12215SOL    HW243886   8.593   3.425   6.774  0.3839 -0.8464  0.5057
12216SOL     OW43887   7.321   3.886   2.547 -0.2738  1.5906  0.0840
12216SOL    HW143888   7.293   3.952   2.610 -0.2982  1.9929 -0.3433
12216SOL    HW243889   7.292   3.803   2.584 -0.1999  1.8164  0.6472
12217SOL     OW43890   1.458  12.475   7.436  0.3033 -0.2954 -0.0799
12217SOL    HW143891   1.393  12.406   7.450 -0.3341  0.4086  0.5347
12217SOL    HW243892   1.416  12.534   7.373  0.3166  0.2019  0.3767
12218SOL     OW43893   9.548   2.695  10.226 -0.1358  0.6344 -0.3606
12218SOL    HW143894   9.562   2.759  10.156 -1.2174 -0.4798 -1.6706
12218SOL    HW243895   9.471   2.646  10.197  0.5748 -1.1657  0.6584
12219SOL     OW43896   9.356   5.657   1.395  0.7296  0.0427 -0.0651
12219SOL    HW143897   9.320   5.736   1.435  0.8740  0.4549 -0.7448
12219SOL    HW243898   9.367   5.596   1.469  1.6565  1.0350  0.6577
12220SOL     OW43899   8.538  12.166   6.405  0.0089 -0.0887  0.3920
12220SOL    HW143900   8.486  12.135   6.330 -0.0021 -2.5718  1.3213
12220SOL    HW243901   8.618  12.200   6.366 -0.1459 -1.0150 -0.8064
12221SOL     OW43902   2.304   2.506   2.928  0.0754 -0.1472 -0.6909
12221SOL    HW143903   2.303   2.422   2.882 -1.2993  1.0632 -3.0395
12221SOL    HW243904   2.214   2.519   2.958 -0.0819  1.1197 -1.6407
12222SOL     OW43905   6.889  10.059   6.318 -0.0650 -0.0178 -0.4882
12222SOL    HW143906   6.965  10.029   6.269 -0.1453 -1.2412  0.0776
12222SOL    HW243907   6.858  10.136   6.271  0.0586 -0.9426 -2.1620
12223SOL     OW43908   0.318   8.156   7.497  0.0710 -0.1641  0.0723
12223SOL    HW143909   0.318   8.177   7.590  1.0745 -2.5518  0.6978
12223SOL    HW243910   0.411   8.146   7.475 -0.1560  0.3341 -1.1756
12224SOL     OW43911   1.877   9.592   3.682 -0.5531 -0.8250  0.2901
12224SOL    HW143912   1.793   9.581   3.726 -0.7791  0.2792  0.1724
12224SOL    HW243913   1.942   9.563   3.746 -1.0458 -2.6123  0.0377
12225SOL     OW43914   1.243   8.618   6.329 -0.3656  0.2981 -0.8547
12225SOL    HW143915   1.211   8.591   6.415 -0.6371 -0.3980 -1.1624
12225SOL    HW243916   1.164   8.641   6.280 -0.3150 -0.3227 -1.2489
12226SOL     OW43917  10.187  10.954   7.348 -0.1294  0.3164  0.7985
12226SOL    HW143918  10.185  10.877   7.404 -0.2368  0.1854  0.6124
12226SOL    HW243919  10.278  10.983   7.350 -0.2544  0.6997  1.5716
12227SOL     OW43920   2.389   1.920  11.163  0.3795 -0.0484 -1.0542
12227SOL    HW143921   2.463   1.880  11.209  1.0519 -0.4994 -2.4816
12227SOL    HW243922   2.428   1.979  11.100 -0.5423  0.7880 -0.8772
12228SOL     OW43923  11.060  10.329   9.894  0.1704 -0.2634  0.1977
12228SOL    HW143924  11.064  10.406   9.837  1.5553 -1.2971 -1.2031
12228SOL    HW243925  11.064  10.364   9.983 -1.0421  1.3526 -0.3404
12229SOL     OW43926   3.393  10.382   5.111 -0.3639 -0.2960  0.2792
12229SOL    HW143927   3.299  10.400   5.115  0.1553  2.9253  0.5314
12229SOL    HW243928   3.407  10.350   5.022 -1.7321 -1.5367  0.4491
12230SOL     OW43929   8.842   7.347   5.924  0.0181  0.0969  0.0742
12230SOL    HW143930   8.853   7.354   5.829  0.6861  0.2870  0.1601
12230SOL    HW243931   8.841   7.253   5.940 -0.5081  0.0572 -0.1627
12231SOL     OW43932   2.973   2.725  11.071 -0.1065  0.3162 -0.1043
12231SOL    HW143933   2.946   2.636  11.094 -0.9957  0.9163  1.3173
12231SOL    HW243934   2.899   2.760  11.022  0.8149 -0.1574 -1.9173
12232SOL     OW43935   4.055   9.363  10.995 -0.3241 -0.1086 -0.1335
12232SOL    HW143936   4.128   9.301  11.009  1.3517  2.1780  2.2624
12232SOL    HW243937   3.994   9.343  11.066 -0.0820  0.5150  0.2609
12233SOL     OW43938   4.281   1.950   5.909  0.1068 -0.0612 -0.9027
12233SOL    HW143939   4.287   1.884   5.978 -0.6087 -0.4161 -1.1703
12233SOL    HW243940   4.192   1.985   5.916  0.6099  1.2152 -0.4700
12234SOL     OW43941  11.416   0.498   4.911 -0.7506 -0.0078  0.4288
12234SOL    HW143942  11.328   0.535   4.915 -1.4594 -1.2030 -2.0096
12234SOL    HW243943  11.420   0.454   4.826  1.8085 -1.0312  0.9703
12235SOL     OW43944   4.494   9.419  12.402  0.0753 -0.4650 -0.6901
12235SOL    HW143945   4.568   9.360  12.386 -0.9044 -1.5520 -1.3568
12235SOL    HW243946   4.433   9.367  12.454  0.3147  0.8542  0.9984
12236SOL     OW43947   8.353   2.606   0.392 -0.0445 -0.1608  0.2243
12236SOL    HW143948   8.412   2.535   0.417  0.7853  0.2721 -0.4660
12236SOL    HW243949   8.403   2.686   0.411 -0.9368  0.2495  0.9231
12237SOL     OW43950  12.415   7.351   7.362 -0.2187  0.2369  0.4431
12237SOL    HW143951  12.400   7.267   7.405 -1.0423  0.7529  1.1884
12237SOL    HW243952  12.416   7.330   7.269 -1.0845 -0.5127  0.5869
12238SOL     OW43953   8.453   2.699   0.045  0.1807  0.2637  0.0209
12238SOL    HW143954   8.475   2.689  -0.048  1.8459 -0.4259  0.4486
12238SOL    HW243955   8.414   2.615   0.069  4.0642 -1.5061  0.9762
12239SOL     OW43956   9.065   7.182   2.278 -0.3381  0.6758  0.2336
12239SOL    HW143957   9.096   7.116   2.216 -0.5634  0.7012  0.0915
12239SOL    HW243958   9.112   7.262   2.254 -1.1426  0.9292 -0.5328
12240SOL     OW43959   6.309   3.086  11.830 -0.1730 -0.4930 -0.1022
12240SOL    HW143960   6.392   3.071  11.875 -0.2841  2.5117  1.3970
12240SOL    HW243961   6.304   3.182  11.823 -2.6681 -0.6849 -1.8083
12241SOL     OW43962   1.665   5.016   6.087 -0.6136  0.0108  0.1457
12241SOL    HW143963   1.725   5.065   6.143 -1.9035  1.2313  0.5431
12241SOL    HW243964   1.701   4.928   6.083  1.0597  0.6399  0.5367
12242SOL     OW43965   7.106   2.107   8.188  0.1114  0.2929  0.4433
12242SOL    HW143966   7.141   2.195   8.176  0.4054  0.0570 -0.5357
12242SOL    HW243967   7.178   2.058   8.228  0.0194  0.4396  0.7928
12243SOL     OW43968   7.897  10.510   0.083 -0.5086 -0.2319 -0.5949
12243SOL    HW143969   7.843  10.432   0.081 -0.5177 -0.2912  0.9435
12243SOL    HW243970   7.987  10.478   0.075 -0.5883 -0.2563 -1.5274
12244SOL     OW43971   1.347   9.548   4.206 -0.1952 -0.2318  0.4930
12244SOL    HW143972   1.356   9.517   4.116 -2.4189  2.6115 -0.8476
12244SOL    HW243973   1.379   9.475   4.259 -0.9009 -2.9258 -2.4725
12245SOL     OW43974   1.723  10.623  10.993 -0.0011 -0.2951 -0.2674
12245SOL    HW143975   1.672  10.683  11.047 -0.6325  0.7113 -1.8962
12245SOL    HW243976   1.756  10.557  11.054  0.5423  1.5718  1.5539
12246SOL     OW43977   9.250  10.836   4.418 -0.7126 -0.2699  0.0951
12246SOL    HW143978   9.254  10.769   4.487 -1.6854 -1.2965 -0.8013
12246SOL    HW243979   9.170  10.885   4.437  0.1638  0.9064  0.9396
12247SOL     OW43980   8.565   5.450  11.926  0.2060 -0.6182 -0.3146
12247SOL    HW143981   8.593   5.442  12.018  2.3845 -1.5354 -0.9827
12247SOL    HW243982   8.540   5.542  11.916 -0.2849 -0.5530  1.2284
12248SOL     OW43983   7.341   1.605   2.899 -0.3739 -0.0573 -0.4156
12248SOL    HW143984   7.285   1.537   2.936  0.3899 -0.2759  0.3859
12248SOL    HW243985   7.292   1.639   2.825 -2.7001  1.4343  1.6260
12249SOL     OW43986  12.660   1.306   8.917 -0.1645  0.3815  0.6578
12249SOL    HW143987  12.746   1.286   8.879  0.9781  1.6044  2.4562
12249SOL    HW243988  12.616   1.358   8.849  0.1251 -0.9829 -0.6403
12250SOL     OW43989   9.950   8.837   8.856  0.5959 -0.4593  0.2684
12250SOL    HW143990   9.953   8.761   8.914  0.0274  0.6333  1.8057
12250SOL    HW243991   9.997   8.905   8.904 -0.4533  0.6791 -0.2524
12251SOL     OW43992   4.625   8.284   0.835  0.0986  0.0262  0.9520
12251SOL    HW143993   4.533   8.299   0.812  0.3215 -2.2550 -2.0844
12251SOL    HW243994   4.630   8.191   0.854  2.2380 -0.6192 -2.1223
12252SOL     OW43995  10.070   3.649   4.984 -0.6331 -0.1787  0.5342
12252SOL    HW143996  10.042   3.727   4.936  2.4219  0.2872 -0.7059
12252SOL    HW243997  10.065   3.578   4.921 -0.0134 -0.2569  0.5596
12253SOL     OW43998   7.531   5.383  10.727 -0.4082 -0.1848  0.3174
12253SOL    HW143999   7.528   5.476  10.749  0.4680  0.5049 -2.1351
12253SOL    HW244000   7.600   5.376  10.661  1.3488 -3.0334  2.2137
12254SOL     OW44001   5.665   3.047  12.338  0.0236 -0.5493 -0.3235
12254SOL    HW144002   5.659   3.086  12.426  0.4986  0.3411 -0.6690
12254SOL    HW244003   5.586   2.994  12.330  0.2026 -1.0167  0.8148
12255SOL     OW44004   3.719   0.446   8.609 -0.2832  0.2685  0.0467
12255SOL    HW144005   3.719   0.439   8.514 -0.8859 -0.4167  0.0847
12255SOL    HW244006   3.649   0.507   8.629  0.5264  1.2269  0.0138
12256SOL     OW44007   3.481   4.740   6.163  0.3396 -0.4840  0.2226
12256SOL    HW144008   3.547   4.756   6.230  0.7124  1.0389 -0.4641
12256SOL    HW244009   3.529   4.702   6.089 -0.0489 -2.0336  0.7326
12257SOL     OW44010   8.540   9.379   6.665 -0.1541 -0.1140  0.1887
12257SOL    HW144011   8.483   9.427   6.725 -0.6258  1.0468 -1.1318
12257SOL    HW244012   8.601   9.332   6.722 -1.1595  0.2069  1.5837
12258SOL     OW44013   4.043  11.587  10.296  0.1343  0.1694  0.3972
12258SOL    HW144014   4.083  11.559  10.378  3.3082 -1.8502 -1.6206
12258SOL    HW244015   4.056  11.682  10.294  0.7258  0.1427  1.8760
12259SOL     OW44016   5.451  11.566   1.687 -0.7370  0.7957  0.0735
12259SOL    HW144017   5.378  11.600   1.636  0.5015  2.1721 -0.8734
12259SOL    HW244018   5.498  11.644   1.717  3.1210  0.1737 -3.4859
12260SOL     OW44019   7.791  11.335   3.297  0.2526 -1.0766 -0.0053
12260SOL    HW144020   7.816  11.302   3.383  1.2051  1.2704  0.6917
12260SOL    HW244021   7.802  11.430   3.303 -2.8060 -0.4737 -1.7048
12261SOL     OW44022   2.178   4.547   5.346  0.3487 -0.1461 -0.1141
12261SOL    HW144023   2.088   4.576   5.338  0.6516  0.5062 -1.4926
12261SOL    HW244024   2.177   4.456   5.315  0.2459  0.0137 -0.5761
12262SOL     OW44025   9.580  10.762   4.200  0.9461 -0.3054  0.9172
12262SOL    HW144026   9.560  10.850   4.166  1.1051 -0.9975 -1.1276
12262SOL    HW244027   9.668  10.770   4.237  0.3933  0.7147  2.0973
12263SOL     OW44028  11.551   4.750   5.049  0.3492 -0.0663  0.4443
12263SOL    HW144029  11.580   4.836   5.081  0.8140 -0.7557  1.9415
12263SOL    HW244030  11.476   4.728   5.103  0.5777 -0.8522  0.4543
12264SOL     OW44031   8.069   9.894   8.541 -0.2528 -0.3383  0.2452
12264SOL    HW144032   8.083   9.982   8.576  0.4019  0.9017 -2.7966
12264SOL    HW244033   8.140   9.842   8.579  1.2665  1.2655 -0.2329
12265SOL     OW44034   2.820   8.591   1.935 -0.1309 -0.2734 -0.2793
12265SOL    HW144035   2.851   8.501   1.922 -0.4104 -0.3008 -0.7902
12265SOL    HW244036   2.794   8.620   1.848  1.5620  0.9249 -0.4289
12266SOL     OW44037  10.740  10.046   5.724 -0.0798  0.3865 -0.4127
12266SOL    HW144038  10.759   9.954   5.712 -0.5213  0.0305  1.2899
12266SOL    HW244039  10.675  10.067   5.657  1.8114  0.1407 -2.4357
12267SOL     OW44040   2.112   5.736   9.504 -0.2525 -0.1332 -0.3516
12267SOL    HW144041   2.133   5.651   9.541  2.2891  0.3611 -0.4317
12267SOL    HW244042   2.198   5.773   9.480 -1.2208  2.6161  0.0897
12268SOL     OW44043  11.912   3.014   8.205 -0.8306 -0.6170 -0.5173
12268SOL    HW144044  11.914   2.934   8.256  0.6238 -0.6444 -0.5601
12268SOL    HW244045  11.851   2.996   8.133 -1.7530 -1.0928  0.3670
12269SOL     OW44046  10.105   1.474  12.254  0.2750  0.5471  0.0639
12269SOL    HW144047  10.199   1.491  12.258  0.5425 -0.7409 -0.2933
12269SOL    HW244048  10.064   1.556  12.283  1.5188  0.8764  0.9568
12270SOL     OW44049   2.381   1.474  10.960  0.2007 -0.2765 -0.2652
12270SOL    HW144050   2.434   1.512  11.030  0.3170  1.3323 -1.1901
12270SOL    HW244051   2.391   1.379  10.971 -0.1699 -0.0959  2.1730
12271SOL     OW44052   4.851   5.642   4.032 -0.2100 -0.1017  0.1724
12271SOL    HW144053   4.856   5.553   3.996  1.4521 -0.1785  0.4876
12271SOL    HW244054   4.941   5.662   4.058 -0.2774  2.1812 -1.0831
12272SOL     OW44055   1.701   2.619   2.864 -0.2325  0.4097  0.0080
12272SOL    HW144056   1.750   2.658   2.791 -0.1094  0.2290 -0.0090
12272SOL    HW244057   1.648   2.690   2.899  0.4397  0.7516  0.3629
12273SOL     OW44058   5.670  12.239  10.298  0.0658  0.5395  0.7379
12273SOL    HW144059   5.591  12.196  10.266 -0.7706  2.7585 -0.3904
12273SOL    HW244060   5.741  12.195  10.253 -0.8036  0.6707 -0.8289
12274SOL     OW44061   1.081   4.054   3.665 -0.0682 -0.2945 -0.2355
12274SOL    HW144062   1.064   4.078   3.573 -0.2217 -0.6735 -0.3063
12274SOL    HW244063   1.015   3.988   3.685 -0.6745  0.4953  0.4490
12275SOL     OW44064  10.082   7.099   5.375 -0.2976  0.0626  0.6709
12275SOL    HW144065  10.063   7.121   5.284  0.2450 -1.1413  0.2535
12275SOL    HW244066  10.014   7.036   5.400  1.2307 -1.9049  0.1269
12276SOL     OW44067   6.631   8.943   2.320 -0.0199  0.3403  0.1393
12276SOL    HW144068   6.633   9.039   2.321  0.2200  0.3844 -1.3383
12276SOL    HW244069   6.719   8.917   2.348 -0.0521  0.5478  0.4384
12277SOL     OW44070   8.528   6.532   2.754  0.3026  1.1050 -0.0016
12277SOL    HW144071   8.488   6.477   2.687  0.9723  0.4972  0.0766
12277SOL    HW244072   8.610   6.487   2.776  1.5022  2.7496 -0.8268
12278SOL     OW44073   2.567   6.439  11.581  0.0163  0.1996 -0.5582
12278SOL    HW144074   2.525   6.518  11.617  0.6893 -0.6218  2.3090
12278SOL    HW244075   2.661   6.453  11.597  0.2432 -0.6643 -1.0835
12279SOL     OW44076   6.275   7.390   7.412  0.4916  0.0336  0.2442
12279SOL    HW144077   6.279   7.485   7.398 -0.6530  0.2792  1.3585
12279SOL    HW244078   6.295   7.379   7.505  0.9826 -0.8707  0.0429
12280SOL     OW44079  10.550   4.019  10.960  0.1425  0.0048 -0.2251
12280SOL    HW144080  10.544   3.924  10.952 -1.3235 -0.0505  0.9524
12280SOL    HW244081  10.640   4.035  10.987  0.3919 -1.0622 -0.3756
12281SOL     OW44082  11.286  12.441   0.925  0.0310 -0.2409 -0.6066
12281SOL    HW144083  11.345  12.490   0.868  0.5725 -1.5667 -1.2302
12281SOL    HW244084  11.256  12.367   0.872 -0.6739 -0.6454  0.3205
12282SOL     OW44085   9.473  11.388   3.848  0.4713 -0.4022  0.5712
12282SOL    HW144086   9.381  11.364   3.835  0.3426 -0.2631  1.1840
12282SOL    HW244087   9.478  11.414   3.940  0.9805  0.2450  0.3659
12283SOL     OW44088  11.483   5.149  11.786  0.0010  0.1589  0.3761
12283SOL    HW144089  11.461   5.063  11.750 -0.7879 -0.4872  2.3119
12283SOL    HW244090  11.413   5.206  11.755  0.0789 -0.0575 -0.2230
12284SOL     OW44091   8.969   3.500   7.674  0.2059 -0.2315 -0.3507
12284SOL    HW144092   9.043   3.447   7.644  0.7391 -0.1374  0.7411
12284SOL    HW244093   9.009   3.581   7.705 -0.4026  0.0194 -0.2130
12285SOL     OW44094   8.277   4.176   5.934 -0.5573  0.3794  0.5381
12285SOL    HW144095   8.368   4.192   5.959 -0.8758  1.2699  1.1743
12285SOL    HW244096   8.232   4.162   6.017 -0.9054 -0.6131  0.1900
12286SOL     OW44097   9.799   1.920   1.490  0.2178  0.8516 -0.1506
12286SOL    HW144098   9.803   1.833   1.450 -0.2345  0.4565  0.6328
12286SOL    HW244099   9.784   1.979   1.417 -0.3958  0.1694 -0.5935
12287SOL     OW44100   4.124  11.792   5.601  0.3204 -0.0638 -0.3796
12287SOL    HW144101   4.100  11.755   5.686 -0.2329 -0.9166 -0.8987
12287SOL    HW244102   4.220  11.786   5.598  0.2508 -1.4746 -0.4461
12288SOL     OW44103   2.986   0.022  11.966 -0.0072  0.0775 -0.2242
12288SOL    HW144104   2.945   0.003  11.882 -0.7499 -2.0699  0.5531
12288SOL    HW244105   3.079   0.026  11.947 -0.0388 -1.7671 -0.9808
12289SOL     OW44106   1.647   9.086   5.715  0.5814 -0.8016  0.1837
12289SOL    HW144107   1.577   9.150   5.731  0.8399 -0.1993 -0.9922
12289SOL    HW244108   1.708   9.099   5.788  0.5813  0.2364  0.0177
12290SOL     OW44109   5.691   4.029   3.676 -0.0467 -0.1964  0.5161
12290SOL    HW144110   5.681   4.018   3.771 -0.9515  1.0896  0.5966
12290SOL    HW244111   5.772   3.982   3.655  1.6918  1.6884  2.3915
12291SOL     OW44112   2.108   9.986   1.059 -0.3064  0.1678  0.4749
12291SOL    HW144113   2.167   9.912   1.074 -0.0664  0.1236 -0.6104
12291SOL    HW244114   2.166  10.059   1.036 -0.7062 -0.1251 -1.5845
12292SOL     OW44115   2.830   6.442   2.549  0.3766 -0.1549  0.2674
12292SOL    HW144116   2.809   6.441   2.642  0.6130  1.4566  0.3756
12292SOL    HW244117   2.746   6.456   2.505 -0.0475 -2.8606  0.0568
12293SOL     OW44118   8.497  12.531   9.425 -0.4464 -0.2866 -0.7297
12293SOL    HW144119   8.520  12.451   9.471 -2.1141  0.1316  0.9939
12293SOL    HW244120   8.420  12.508   9.373  0.4610 -0.3484 -2.0813
12294SOL     OW44121   7.260  12.463   4.586 -0.0792 -0.1629  0.7018
12294SOL    HW144122   7.342  12.471   4.635 -0.4235  0.7314  1.1587
12294SOL    HW244123   7.197  12.514   4.637 -0.6132  0.2347 -0.3361
12295SOL     OW44124   9.577  11.728   8.020  0.1156 -0.1444 -0.1325
12295SOL    HW144125   9.661  11.772   8.031 -0.3093  0.6178  0.0695
12295SOL    HW244126   9.569  11.717   7.925  0.4827 -0.3022 -0.1473
12296SOL     OW44127  10.174  10.118   8.726  0.3662  0.2880 -0.3135
12296SOL    HW144128  10.092  10.082   8.693  0.7515 -0.7054 -0.2243
12296SOL    HW244129  10.241  10.056   8.697  0.8143 -0.2129  1.6266
12297SOL     OW44130   5.013   8.032   7.142  0.2474 -0.6825  0.2491
12297SOL    HW144131   5.023   8.014   7.236 -0.1755 -1.2558  0.1866
12297SOL    HW244132   4.940   8.093   7.138  1.7690  1.2510  0.4734
12298SOL     OW44133   8.606  11.385   5.755  0.1575  0.4915  0.6416
12298SOL    HW144134   8.615  11.299   5.713 -2.1803  0.2737  0.4482
12298SOL    HW244135   8.619  11.367   5.848  1.1114  0.2007  0.4628
12299SOL     OW44136   2.022  11.348   1.845 -0.5368  0.7611  0.1187
12299SOL    HW144137   1.941  11.360   1.796 -1.1760  0.6845  1.1314
12299SOL    HW244138   2.032  11.253   1.852 -0.8339  0.7711  0.7430
12300SOL     OW44139   0.457   1.863   4.130 -0.3586  0.2035 -0.3516
12300SOL    HW144140   0.516   1.922   4.175 -1.8403  0.0763  1.9194
12300SOL    HW244141   0.435   1.796   4.195 -1.4456 -0.8645 -1.7450
12301SOL     OW44142  12.306   1.899   5.537 -0.0889 -0.8239  0.4363
12301SOL    HW144143  12.357   1.936   5.465 -0.0441 -1.4558  0.1419
12301SOL    HW244144  12.295   1.807   5.515 -0.9514 -0.8023  0.7349
12302SOL     OW44145   8.914  12.325  11.184  0.3271 -0.0089 -0.5179
12302SOL    HW144146   8.892  12.300  11.094  1.4804  1.3949 -1.2462
12302SOL    HW244147   8.928  12.420  11.179  2.6475 -0.2249  0.6241
12303SOL     OW44148   3.602   3.221  10.014  0.5598  0.1178  0.0081
12303SOL    HW144149   3.587   3.146   9.958  0.3681 -0.9741  1.4647
12303SOL    HW244150   3.692   3.247   9.996  0.1516  0.5427 -1.6183
12304SOL     OW44151   7.317   0.828   5.093 -0.1919  0.6925 -0.1104
12304SOL    HW144152   7.401   0.790   5.068 -0.7093 -0.7423  0.2486
12304SOL    HW244153   7.271   0.841   5.010 -0.4959 -0.6805 -0.1797
12305SOL     OW44154   3.216   6.206   4.380 -0.5687  0.3046 -0.1729
12305SOL    HW144155   3.292   6.263   4.373 -0.1969 -0.0751  0.6921
12305SOL    HW244156   3.245   6.132   4.433 -1.2033 -0.4329 -0.8107
12306SOL     OW44157   5.273   5.939   0.020 -0.0963  0.3102  0.0702
12306SOL    HW144158   5.284   6.023  -0.025 -1.3976  0.4196 -0.0881
12306SOL    HW244159   5.187   5.908  -0.009 -0.3597 -0.2736  1.4130
12307SOL     OW44160   1.740   6.150   7.918  0.6668  0.2064 -0.6135
12307SOL    HW144161   1.746   6.129   7.825  0.8074 -0.6118 -0.4281
12307SOL    HW244162   1.707   6.239   7.920  0.5966  0.2090 -1.4498
12308SOL     OW44163   9.755   2.401   5.300 -0.0910 -0.2238 -0.0756
12308SOL    HW144164   9.797   2.405   5.214  0.7520  0.9126  0.3623
12308SOL    HW244165   9.788   2.320   5.339 -0.5202 -0.7749 -0.8237
12309SOL     OW44166   8.122   4.567   7.200  0.0338 -0.0602 -0.1876
12309SOL    HW144167   8.155   4.491   7.247 -1.0565  0.3195  1.2565
12309SOL    HW244168   8.184   4.580   7.128  0.5254 -1.9768 -0.1567
12310SOL     OW44169   6.408   0.669   9.855  0.0411 -0.4856  0.2227
12310SOL    HW144170   6.349   0.615   9.802 -0.2474  0.5320 -0.5270
12310SOL    HW244171   6.448   0.608   9.917 -1.7593 -1.2106  0.7189
12311SOL     OW44172   4.640   4.955   3.015  0.0261 -0.2737  0.2641
12311SOL    HW144173   4.629   5.021   2.946  0.2634 -1.5635 -1.0519
12311SOL    HW244174   4.557   4.909   3.017  0.1185 -0.4248  0.6588
12312SOL     OW44175  11.910  11.282   7.448  0.1366 -0.0690 -0.4817
12312SOL    HW144176  11.882  11.285   7.540 -1.1047 -0.6776 -0.8105
12312SOL    HW244177  11.886  11.368   7.413 -1.1081 -0.4615 -0.6711
12313SOL     OW44178   0.668   3.067  10.724  0.2537  0.2732 -0.2103
12313SOL    HW144179   0.573   3.079  10.718  0.2909  0.0208 -1.8441
12313SOL    HW244180   0.679   2.998  10.789 -0.5452  1.6296  1.4455
12314SOL     OW44181  11.666   5.771   0.753  0.0521  0.0164  0.2626
12314SOL    HW144182  11.736   5.813   0.804 -0.2948  0.6316  0.2453
12314SOL    HW244183  11.650   5.831   0.681  0.3484 -0.7213 -0.4301
12315SOL     OW44184   9.372   6.894   5.152  0.2955 -0.0983  0.1442
12315SOL    HW144185   9.279   6.904   5.171  0.3184  0.2705  0.0769
12315SOL    HW244186   9.399   6.817   5.202 -0.0186 -0.1356  0.2562
12316SOL     OW44187   8.021   8.683   2.554  0.3263 -0.0792  0.2765
12316SOL    HW144188   8.008   8.652   2.644  1.2111 -0.9719  0.1109
12316SOL    HW244189   8.093   8.746   2.561 -0.1485  0.4791  0.2991
12317SOL     OW44190   9.903   8.330   7.092 -0.7855  0.0181 -0.0081
12317SOL    HW144191   9.889   8.402   7.153  1.2243 -0.1679  0.7409
12317SOL    HW244192   9.915   8.253   7.147  3.3336  0.2026 -0.3185
12318SOL     OW44193   6.090   8.809   2.388  0.1323 -0.4190 -0.6133
12318SOL    HW144194   6.078   8.842   2.299  0.5408 -1.5260 -1.1045
12318SOL    HW244195   6.126   8.721   2.376  1.5168 -0.0660  0.6688
12319SOL     OW44196   6.774   9.109   0.016 -0.4837  0.1867  0.1679
12319SOL    HW144197   6.772   9.052   0.092  0.0061 -1.0099 -0.6876
12319SOL    HW244198   6.802   9.052  -0.056  0.1984  1.5400 -0.6775
12320SOL     OW44199   1.210   8.575   8.707 -0.0995 -0.3368  0.5464
12320SOL    HW144200   1.190   8.649   8.650  2.6350  0.9055  1.0731
12320SOL    HW244201   1.153   8.587   8.783 -0.4128  0.6282  0.1810
12321SOL     OW44202   0.902   4.771   7.754 -0.1732  0.2829  0.0187
12321SOL    HW144203   0.938   4.788   7.666  0.2394  1.3943  0.3777
12321SOL    HW244204   0.818   4.818   7.754  0.1719  0.9215  0.4496
12322SOL     OW44205  12.361   4.925   6.663 -0.0741  0.2704  0.6728
12322SOL    HW144206  12.417   4.874   6.721 -0.0512  1.4052  1.6868
12322SOL    HW244207  12.274   4.887   6.673  0.7477 -3.2747 -2.8923
12323SOL     OW44208   0.880   6.311   7.325  0.2791 -0.2073 -0.2514
12323SOL    HW144209   0.804   6.279   7.276 -0.3817  1.0962 -0.1368
12323SOL    HW244210   0.943   6.336   7.258  0.1658 -0.2614 -0.3781
12324SOL     OW44211   7.199   6.144   1.897  0.4003  0.6012  0.6350
12324SOL    HW144212   7.274   6.184   1.853 -0.9340  2.2611 -0.2306
12324SOL    HW244213   7.126   6.202   1.878 -0.7537  0.0747  3.0266
12325SOL     OW44214   5.206   9.760   7.149 -0.1998  0.5349 -0.0194
12325SOL    HW144215   5.147   9.835   7.152  0.1935  0.8300  0.4071
12325SOL    HW244216   5.273   9.784   7.086  0.4231  0.9164  0.7775
12326SOL     OW44217  12.508   9.481  10.996 -0.0636 -0.2819 -0.2479
12326SOL    HW144218  12.496   9.422  10.921  0.1168 -1.8463  0.9004
12326SOL    HW244219  12.532   9.423  11.068  0.2547  1.2386  0.9177
12327SOL     OW44220   1.539   4.027   0.053  0.1929 -0.1124  0.3520
12327SOL    HW144221   1.512   4.000   0.141 -2.9117 -0.7539 -0.6945
12327SOL    HW244222   1.483   4.101   0.032  0.2297 -0.5625 -1.4464
12328SOL     OW44223   9.369   6.300   3.876 -0.1574  0.7591 -0.1492
12328SOL    HW144224   9.363   6.392   3.851 -2.1518  0.1246 -2.4241
12328SOL    HW244225   9.362   6.252   3.793 -2.7123 -1.4883  1.1980
12329SOL     OW44226   4.130   4.565   8.960  0.0862 -0.3597 -0.8275
12329SOL    HW144227   4.077   4.516   8.898 -0.2476 -1.7767  0.5087
12329SOL    HW244228   4.217   4.524   8.955  0.1752 -0.1913 -0.6764
12330SOL     OW44229   2.907  10.970   4.150  0.2073 -0.0346  0.3189
12330SOL    HW144230   2.992  10.960   4.106  0.7167 -1.3890  1.5523
12330SOL    HW244231   2.852  10.902   4.110 -0.4715  1.1401 -0.8070
12331SOL     OW44232   1.354   6.017  12.706 -0.4659 -0.3931 -0.0494
12331SOL    HW144233   1.354   6.044  12.614  1.7115 -1.0234 -0.2693
12331SOL    HW244234   1.392   6.091  12.753  1.5367 -1.3284 -0.1163
12332SOL     OW44235   3.406   8.333   0.880 -0.2268  0.6236  0.2568
12332SOL    HW144236   3.500   8.314   0.885 -0.2886  0.3537  0.4052
12332SOL    HW244237   3.402   8.424   0.851  0.0620 -0.0737 -2.1350
12333SOL     OW44238  12.314   3.968   7.958 -0.8640  0.3351 -0.1972
12333SOL    HW144239  12.365   4.030   8.010 -1.8263  1.3464 -0.4224
12333SOL    HW244240  12.305   4.010   7.872 -0.8830 -0.4747 -0.6078
12334SOL     OW44241   7.180   7.794  10.235 -0.0069 -0.0147 -0.3909
12334SOL    HW144242   7.236   7.725  10.201 -0.3358 -0.9364  0.8565
12334SOL    HW244243   7.229   7.830  10.310 -0.3760  0.2637 -0.2784
12335SOL     OW44244   2.393   3.924   1.322  0.2692  0.6293 -0.2985
12335SOL    HW144245   2.465   3.946   1.381 -0.0128  2.5130 -0.5981
12335SOL    HW244246   2.404   3.984   1.248 -0.8540  0.0256 -0.9789
12336SOL     OW44247   5.253   1.231  12.281 -0.2914  0.6215  0.3718
12336SOL    HW144248   5.255   1.215  12.375 -2.1603 -0.0847  0.3341
12336SOL    HW244249   5.259   1.144  12.241  0.0803  0.8786 -0.1445
12337SOL     OW44250   4.341   9.028   7.262  0.2341 -0.5762 -0.1725
12337SOL    HW144251   4.263   9.012   7.315  1.0147  0.8406  1.5092
12337SOL    HW244252   4.325   8.981   7.181 -2.2337 -0.5731  0.2394
12338SOL     OW44253   8.699  10.050  12.224 -0.7026 -0.5687 -0.0873
12338SOL    HW144254   8.770  10.103  12.188 -0.0660 -1.9575 -0.9490
12338SOL    HW244255   8.698  10.071  12.318  1.0416 -0.7437 -0.0047
12339SOL     OW44256   9.419   5.887   9.110  0.5649  0.2257  0.3137
12339SOL    HW144257   9.452   5.951   9.048  0.8859 -0.9657 -0.7876
12339SOL    HW244258   9.464   5.908   9.192  0.3169  1.6611  0.1148
12340SOL     OW44259  11.861   8.146   6.200 -0.2805 -0.4378  0.9216
12340SOL    HW144260  11.834   8.073   6.257 -0.3820  0.1717  1.6744
12340SOL    HW244261  11.903   8.208   6.260 -0.2032  0.1219  0.2893
12341SOL     OW44262   7.355   2.683  11.084 -0.0179  0.2347  0.2416
12341SOL    HW144263   7.345   2.777  11.066 -2.0527  0.4373  2.0921
12341SOL    HW244264   7.266   2.648  11.082  0.7852 -1.9399 -1.5135
12342SOL     OW44265   1.260   7.155  11.986  0.2486  0.0347  0.2448
12342SOL    HW144266   1.239   7.233  12.039 -0.1811 -0.0834  0.2428
12342SOL    HW244267   1.176   7.115  11.967  0.5742 -2.3749  3.1511
12343SOL     OW44268  11.288   2.044  10.822 -0.5052 -0.1846  1.0147
12343SOL    HW144269  11.248   2.053  10.735 -0.4302  0.3650  1.0350
12343SOL    HW244270  11.358   2.109  10.823  0.4900 -1.2293  0.9319
12344SOL     OW44271   0.108   3.765  10.059 -0.2009  0.2555 -0.4216
12344SOL    HW144272   0.049   3.818  10.112  0.7072  0.7660  0.1029
12344SOL    HW244273   0.051   3.723   9.994 -1.1646  0.5204  0.2338
12345SOL     OW44274  12.189   7.648   4.572  0.1661  0.2486 -0.2429
12345SOL    HW144275  12.114   7.665   4.629 -1.6967 -2.8326 -1.5284
12345SOL    HW244276  12.251   7.601   4.628 -0.4413 -0.3367 -0.0468
12346SOL     OW44277  12.063  11.360   5.997 -0.2467 -0.3232 -0.1629
12346SOL    HW144278  12.118  11.395   5.927 -1.5203  2.5793  0.1229
12346SOL    HW244279  12.121  11.352   6.072  0.7238 -1.7184 -1.0077
12347SOL     OW44280  12.614   4.114   1.822 -0.0158  0.0930  0.4979
12347SOL    HW144281  12.550   4.160   1.767  0.3428 -0.0139 -0.0124
12347SOL    HW244282  12.612   4.161   1.906 -0.8348  0.0275  0.5266
12348SOL     OW44283   5.950   6.368   1.979 -0.4659  0.3290 -0.1850
12348SOL    HW144284   5.982   6.389   2.066  1.2781  0.1476 -0.7370
12348SOL    HW244285   5.927   6.275   1.984 -0.3867  0.3239  0.0837
12349SOL     OW44286  11.308   0.946   3.535 -0.3731  0.4731 -0.4344
12349SOL    HW144287  11.345   1.026   3.572 -1.7502  0.0547  2.0596
12349SOL    HW244288  11.365   0.925   3.461  2.7793  1.2579  1.5940
12350SOL     OW44289   4.902   7.356  11.122 -0.2373  0.3790  0.0022
12350SOL    HW144290   4.988   7.325  11.153 -0.7717 -0.0456  1.1058
12350SOL    HW244291   4.908   7.349  11.027  0.5174 -0.8549  0.1075
12351SOL     OW44292   0.888   0.922  10.090  0.0731  0.0165  0.1996
12351SOL    HW144293   0.976   0.885  10.096  0.2467  0.1942 -0.9886
12351SOL    HW244294   0.902   1.016  10.079 -0.2967  0.1519  0.8391
12352SOL     OW44295   7.882   6.062  10.030  0.1416  0.0578 -0.1500
12352SOL    HW144296   7.838   6.139  10.065  1.4540  0.8413 -0.1754
12352SOL    HW244297   7.974   6.075  10.050  0.4017 -1.5136 -0.1477
12353SOL     OW44298   9.722   8.935   7.849  0.3879 -0.0713  0.0991
12353SOL    HW144299   9.682   8.981   7.922  1.0950  1.3509 -0.3805
12353SOL    HW244300   9.651   8.924   7.786  0.2829  0.6686  0.0814
12354SOL     OW44301  10.271  12.363   4.493  0.7857  0.9971  0.2583
12354SOL    HW144302  10.313  12.414   4.562 -0.1933 -0.4430  2.0169
12354SOL    HW244303  10.200  12.418   4.461  1.2066  1.6533  0.4419
12355SOL     OW44304   7.500   8.621  12.435  0.3558 -0.1773  0.5296
12355SOL    HW144305   7.454   8.537  12.442 -0.1488  0.2189  2.6197
12355SOL    HW244306   7.527   8.641  12.525  0.2863  2.0104  0.1059
12356SOL     OW44307  12.585   0.586   4.292  0.6499  0.2113  0.2436
12356SOL    HW144308  12.668   0.618   4.326 -0.1306  0.8013  1.6675
12356SOL    HW244309  12.580   0.495   4.323  0.2257  0.5533  1.2004
12357SOL     OW44310   7.704   1.983   7.038  0.0271 -0.2310 -0.4667
12357SOL    HW144311   7.775   1.964   6.976 -0.9686  0.5858 -1.9194
12357SOL    HW244312   7.683   2.075   7.022 -1.2080 -0.4033  0.0874
12358SOL     OW44313   0.348   6.230   0.209  0.0212 -0.0288 -0.5584
12358SOL    HW144314   0.288   6.301   0.185 -0.8408 -0.5324  0.0850
12358SOL    HW244315   0.344   6.169   0.136 -1.9493 -1.1388  0.4096
12359SOL     OW44316   5.525   1.250   5.968 -0.3504 -0.0199 -0.6283
12359SOL    HW144317   5.573   1.313   6.021 -3.5965  1.7744  0.4612
12359SOL    HW244318   5.544   1.165   6.009  1.0608  0.7185  0.3192
12360SOL     OW44319   5.020   1.157   4.129 -0.3751 -0.5829 -0.1168
12360SOL    HW144320   5.058   1.140   4.043  0.0589  0.8673 -0.2345
12360SOL    HW244321   4.964   1.081   4.146 -0.2039 -1.0474 -1.5209
12361SOL     OW44322   2.476   8.163   9.215 -0.1251  0.1204 -0.1526
12361SOL    HW144323   2.525   8.208   9.146 -1.2575  2.3973  0.4223
12361SOL    HW244324   2.401   8.124   9.169 -1.6392  2.8060 -0.1289
12362SOL     OW44325   1.926   0.519  12.547  0.1388  0.5765  0.3005
12362SOL    HW144326   1.841   0.549  12.516  0.2506  0.0384 -0.5582
12362SOL    HW244327   1.983   0.596  12.538 -0.2760  0.9750  0.9991
12363SOL     OW44328   8.103   1.862   3.134 -0.4961 -0.8441 -0.3785
12363SOL    HW144329   8.041   1.857   3.062  0.2244 -1.3167 -0.9762
12363SOL    HW244330   8.116   1.955   3.148 -0.8340 -0.7471 -0.6808
12364SOL     OW44331   1.432  11.699   1.381  0.3016  0.0631  0.3866
12364SOL    HW144332   1.522  11.721   1.404  0.6088 -0.5468 -0.2108
12364SOL    HW244333   1.390  11.679   1.464  1.0767 -0.9511  0.5511
12365SOL     OW44334   2.532   6.112  10.280 -0.2665  0.5510 -0.2483
12365SOL    HW144335   2.515   6.046  10.347  0.4409  0.3939 -0.2073
12365SOL    HW244336   2.607   6.078  10.231  0.8180  1.8018  0.4615
12366SOL     OW44337   6.993   2.864  11.042  0.1152 -0.9560 -0.4609
12366SOL    HW144338   7.052   2.859  10.967 -0.8781  1.0424 -1.4368
12366SOL    HW244339   7.038   2.921  11.104 -0.2776 -0.3177 -0.7489
12367SOL     OW44340   5.842  12.629   4.638  0.1011 -0.4325 -0.0900
12367SOL    HW144341   5.822  12.590   4.724  1.5366 -0.7626  0.1149
12367SOL    HW244342   5.848  12.554   4.579 -0.5671 -0.2279 -0.4264
12368SOL     OW44343  12.050   2.733  12.444  0.7074  0.3724  0.4685
12368SOL    HW144344  12.117   2.742  12.376  0.4747 -1.6065 -0.0862
12368SOL    HW244345  12.029   2.823  12.469  2.3798  1.0857 -0.5055
12369SOL     OW44346   8.681   1.324   5.331  0.3209 -0.4841 -0.1781
12369SOL    HW144347   8.624   1.369   5.392  0.9904 -2.1971  1.8382
12369SOL    HW244348   8.767   1.325   5.373  1.0278 -0.8789 -1.5489
12370SOL     OW44349   6.581   7.464   7.545 -0.2360 -0.0020  0.3632
12370SOL    HW144350   6.673   7.456   7.573 -0.1806  0.0925  0.2132
12370SOL    HW244351   6.536   7.393   7.589 -0.0992 -0.0171  0.4802
12371SOL     OW44352   1.158   6.442  10.446  0.0790  0.3108 -0.4723
12371SOL    HW144353   1.214   6.466  10.519 -0.4641 -0.0483  0.0769
12371SOL    HW244354   1.106   6.368  10.479 -1.8970  1.6585 -0.3662
12372SOL     OW44355   2.503   5.911   4.458 -0.1663 -0.2090  0.3695
12372SOL    HW144356   2.552   5.829   4.451  0.6994  0.0794  2.1934
12372SOL    HW244357   2.571   5.979   4.457 -0.6622  0.3190  1.1806
12373SOL     OW44358   7.960   7.122   6.652 -0.6426  0.2809 -0.1832
12373SOL    HW144359   7.945   7.028   6.644 -3.3940  0.6991 -1.0929
12373SOL    HW244360   8.018   7.131   6.728  0.2595 -2.1470 -0.5067
12374SOL     OW44361   9.769   4.850   5.327  0.0458 -0.1338  0.0478
12374SOL    HW144362   9.763   4.941   5.299 -0.9528 -0.1208  0.2665
12374SOL    HW244363   9.710   4.844   5.402  1.6881 -0.4675  1.3859
12375SOL     OW44364   3.817   4.828   6.261 -0.4612  0.1893  0.0788
12375SOL    HW144365   3.832   4.763   6.330  2.5148  1.8306  1.1451
12375SOL    HW244366   3.725   4.852   6.270 -1.1194 -2.3609  0.9487
12376SOL     OW44367  11.749  12.435   2.962  0.2180  0.1676  0.5139
12376SOL    HW144368  11.790  12.349   2.977  0.5015 -0.0744 -1.3599
12376SOL    HW244369  11.817  12.486   2.918 -1.4138 -0.3314 -2.9249
12377SOL     OW44370   0.315   7.472   1.511  0.2515  0.4581  0.3491
12377SOL    HW144371   0.256   7.461   1.585  2.0027 -0.3161  1.6992
12377SOL    HW244372   0.399   7.499   1.550  0.9335  1.1287 -1.4462
12378SOL     OW44373  10.695   4.043   3.454 -0.6468  0.1794  0.6312
12378SOL    HW144374  10.691   3.948   3.451  0.1718  0.1377  0.4117
12378SOL    HW244375  10.681   4.065   3.546 -1.1078 -0.1308  0.6389
12379SOL     OW44376   2.477   4.265   1.935 -0.0048  0.3095  0.0730
12379SOL    HW144377   2.559   4.308   1.960 -0.2037  0.7786 -0.0694
12379SOL    HW244378   2.482   4.179   1.975  0.8054  0.1264 -0.3992
12380SOL     OW44379   5.436   0.552   6.834 -0.0962 -0.6957 -0.1589
12380SOL    HW144380   5.376   0.486   6.871 -0.6714 -0.3684 -0.4974
12380SOL    HW244381   5.408   0.561   6.743  0.1358 -0.1579 -0.1770
12381SOL     OW44382   8.304   1.401   8.664 -1.1836  0.4496 -0.5109
12381SOL    HW144383   8.287   1.494   8.678  0.4206  0.7406 -0.2290
12381SOL    HW244384   8.399   1.396   8.653 -1.3328 -1.0608 -1.3214
12382SOL     OW44385   0.193   1.363   5.806 -0.3725 -0.6644 -0.3407
12382SOL    HW144386   0.282   1.328   5.816 -0.7329 -2.8441 -3.3859
12382SOL    HW244387   0.137   1.300   5.851 -0.5456 -0.0553  0.3293
12383SOL     OW44388   2.034   2.105  10.115  0.5270 -0.2991 -0.1774
12383SOL    HW144389   2.056   2.050  10.040 -0.8597 -0.2918 -0.6271
12383SOL    HW244390   1.951   2.146  10.090  0.7805  0.8412  0.7682
12384SOL     OW44391   7.444   7.255  12.523 -0.4744  0.2674 -0.5108
12384SOL    HW144392   7.374   7.191  12.537 -2.0549  2.2788  1.3412
12384SOL    HW244393   7.519   7.218  12.569 -1.0412 -0.7313 -0.3592
12385SOL     OW44394   7.359   9.358   5.320  0.5200  0.2754 -0.1987
12385SOL    HW144395   7.304   9.351   5.398  1.6007  0.4033  0.5761
12385SOL    HW244396   7.362   9.269   5.285  0.8642  0.0152  0.4820
12386SOL     OW44397  10.933   1.183  10.202  0.2242 -0.3955 -0.1858
12386SOL    HW144398  10.929   1.278  10.190  0.5916 -0.3677 -0.1135
12386SOL    HW244399  11.010   1.156  10.152 -0.0449 -0.6957 -0.4412
12387SOL     OW44400   1.760   5.661   9.698 -0.1302 -0.2907 -0.0402
12387SOL    HW144401   1.676   5.703   9.681 -0.1573 -0.0152  0.7066
12387SOL    HW244402   1.778   5.610   9.620  0.2479  1.6592 -1.3088
12388SOL     OW44403   5.917  12.123   8.668 -0.4640  0.6436  0.4058
12388SOL    HW144404   5.841  12.084   8.710 -0.0981 -0.6732 -0.0706
12388SOL    HW244405   5.945  12.192   8.727 -1.5016  0.5626  1.0162
12389SOL     OW44406  10.419   2.890   5.358  1.0110  0.0526 -0.4930
12389SOL    HW144407  10.363   2.953   5.312  0.8917 -0.0446 -0.4808
12389SOL    HW244408  10.365   2.812   5.368  0.6556  0.4566  0.8090
12390SOL     OW44409  10.937   5.343   2.356 -0.2600  0.5929 -0.4534
12390SOL    HW144410  10.910   5.391   2.434 -0.3506  1.3664 -0.9544
12390SOL    HW244411  10.983   5.408   2.302  0.9275 -0.2353 -0.4806
12391SOL     OW44412   4.715   0.187   3.878 -0.7366  0.0867 -0.1095
12391SOL    HW144413   4.764   0.225   3.951 -1.3582  0.1584  0.2764
12391SOL    HW244414   4.782   0.162   3.815 -0.0612 -1.5085  1.1838
12392SOL     OW44415   1.206  12.487   7.248  0.7320  0.0927  0.4471
12392SOL    HW144416   1.117  12.480   7.213  0.9830 -2.8979  0.1693
12392SOL    HW244417   1.214  12.414   7.309  1.3984  3.2274  4.5626
12393SOL     OW44418   1.970   5.508   4.345 -1.1378 -0.0647 -0.0222
12393SOL    HW144419   1.879   5.485   4.329 -1.5416  2.1462 -1.3743
12393SOL    HW244420   1.984   5.587   4.293  1.3902  0.0019  0.6313
12394SOL     OW44421   7.039   9.288  10.823  0.2208 -0.5806  0.0268
12394SOL    HW144422   7.018   9.379  10.843 -2.0353 -1.3161  1.3506
12394SOL    HW244423   7.006   9.274  10.735  1.2271  0.0349 -0.4681
12395SOL     OW44424   7.338  12.485   2.183 -0.2761 -0.3482 -0.9665
12395SOL    HW144425   7.378  12.400   2.198 -0.4174 -0.0941  1.0864
12395SOL    HW244426   7.347  12.499   2.088  1.5644 -1.7262 -1.0635
12396SOL     OW44427   1.188   5.718   4.427  0.2747 -0.2757 -0.3601
12396SOL    HW144428   1.148   5.675   4.503  0.5810  0.4407  0.2156
12396SOL    HW244429   1.124   5.784   4.401  1.2717  1.2504  0.9037
12397SOL     OW44430  10.832   5.634   9.421 -0.2407 -0.0426 -0.0718
12397SOL    HW144431  10.765   5.567   9.436  0.9534 -1.0515  0.9651
12397SOL    HW244432  10.901   5.614   9.485 -0.0917  2.5437  0.6844
12398SOL     OW44433  11.734   6.161   0.980  0.1093  0.0084  0.3058
12398SOL    HW144434  11.682   6.143   0.901  0.9127 -1.1479  0.0211
12398SOL    HW244435  11.683   6.228   1.027 -1.4023 -0.7469 -0.1807
12399SOL     OW44436   5.976   7.379  12.358  0.0360 -0.0732  0.6203
12399SOL    HW144437   5.915   7.308  12.335  0.1633 -0.1711  0.5837
12399SOL    HW244438   6.015   7.405  12.275  0.5018 -0.4311  0.7228
12400SOL     OW44439   5.561   5.950   7.627 -0.1155 -0.0295 -0.8606
12400SOL    HW144440   5.614   6.010   7.575  0.0615  1.9892  1.4562
12400SOL    HW244441   5.496   6.006   7.671 -2.0391 -1.9845 -1.0174
12401SOL     OW44442   9.449   3.752   1.761  0.4962  0.4200 -0.7552
12401SOL    HW144443   9.427   3.844   1.756 -0.6274  0.1234 -1.5234
12401SOL    HW244444   9.366   3.706   1.747  0.7388 -0.7083  1.2393
12402SOL     OW44445  11.328   7.324   5.557 -0.1755 -0.0588  0.6724
12402SOL    HW144446  11.383   7.368   5.492 -0.0890  1.8840  2.0058
12402SOL    HW244447  11.288   7.251   5.508  0.8725  0.5492 -1.2081
12403SOL     OW44448  11.404   6.412   0.892 -0.2528  0.9613  0.0507
12403SOL    HW144449  11.343   6.372   0.831  0.2523  0.0069  0.1561
12403SOL    HW244450  11.437   6.489   0.846 -0.4959  0.7097 -0.5525
12404SOL     OW44451   9.070  10.675   5.198 -0.1104  0.3666 -0.2643
12404SOL    HW144452   8.975  10.664   5.189  0.0386 -0.1921 -1.2788
12404SOL    HW244453   9.101  10.689   5.109  0.7034  1.1655  0.1222
12405SOL     OW44454   7.915   6.404   1.440 -0.2768  0.0764  0.3443
12405SOL    HW144455   7.971   6.328   1.423 -0.7446 -0.4938  1.2915
12405SOL    HW244456   7.835   6.386   1.391 -0.6462 -0.3742  1.0923
12406SOL     OW44457   1.343   4.066   3.020  0.1037 -0.5742 -0.3939
12406SOL    HW144458   1.306   3.990   2.976  1.7278 -0.9625 -1.1966
12406SOL    HW244459   1.327   4.139   2.960 -3.1933  0.2111  1.2374
12407SOL     OW44460  11.644   6.321   4.403 -0.0639  0.4929 -0.4082
12407SOL    HW144461  11.635   6.363   4.489  0.8616  0.7069 -0.4041
12407SOL    HW244462  11.722   6.361   4.365 -0.3983  0.3165 -1.3089
12408SOL     OW44463  10.699   4.622  10.652 -0.1641  0.6721  0.2458
12408SOL    HW144464  10.793   4.633  10.658 -0.2537  2.0069 -0.4761
12408SOL    HW244465  10.662   4.708  10.672 -1.1915  0.3682 -0.2304
12409SOL     OW44466   5.511   8.271   2.169  0.5234  0.5128  0.2579
12409SOL    HW144467   5.456   8.206   2.124  0.0688  0.0535  1.4238
12409SOL    HW244468   5.479   8.355   2.137  0.8509  0.1828 -0.9804
12410SOL     OW44469   4.948   9.284   6.545  0.4575 -0.4877 -0.0730
12410SOL    HW144470   4.962   9.232   6.465 -1.6686 -1.1684 -0.0624
12410SOL    HW244471   5.026   9.339   6.551  0.9048 -0.7547 -2.3525
12411SOL     OW44472   0.957   4.750   6.174  0.1793  0.1634  0.4159
12411SOL    HW144473   0.910   4.780   6.097 -0.1572 -0.5964  0.3192
12411SOL    HW244474   0.895   4.762   6.246  0.5859  1.1245  0.6285
12412SOL     OW44475   0.461   2.647  11.133  0.1199  0.4116 -0.8545
12412SOL    HW144476   0.375   2.606  11.133 -0.1641  0.9591 -1.7874
12412SOL    HW244477   0.474   2.675  11.042  0.0810  2.8031 -0.1824
12413SOL     OW44478   2.700   6.751  12.055  0.7532  0.1838  0.7537
12413SOL    HW144479   2.608   6.738  12.077  1.0691 -2.2882  0.9734
12413SOL    HW244480   2.700   6.763  11.960  0.2868 -1.4812  0.5075
12414SOL     OW44481   1.011  12.406  10.401  0.4438 -0.7015  0.4214
12414SOL    HW144482   0.943  12.448  10.348  0.7476 -0.1687  0.4545
12414SOL    HW244483   1.014  12.457  10.482  1.2779 -0.3766  0.1900
12415SOL     OW44484   9.423   2.681   6.747 -0.6651  0.0073 -0.2862
12415SOL    HW144485   9.509   2.650   6.777 -0.6036  0.2203 -0.2379
12415SOL    HW244486   9.394   2.615   6.685  0.4482  0.9451 -1.8819
12416SOL     OW44487   2.152   5.891   2.345  0.3548  0.0654 -0.3746
12416SOL    HW144488   2.114   5.820   2.398 -1.2517  1.2250  0.1167
12416SOL    HW244489   2.076   5.939   2.313  1.2944 -0.1949 -3.2511
12417SOL     OW44490   1.773   6.715   7.246 -0.6181 -0.2630  0.4735
12417SOL    HW144491   1.719   6.748   7.174 -1.1512 -1.3179  0.3705
12417SOL    HW244492   1.852   6.769   7.244 -0.8641  0.0744 -0.5510
12418SOL     OW44493   2.867   0.704   8.394  0.1151  0.1119  0.5194
12418SOL    HW144494   2.928   0.708   8.467 -0.9289 -1.3339  1.5045
12418SOL    HW244495   2.889   0.623   8.349  0.2058  0.5830 -0.3097
12419SOL     OW44496   2.981   4.126   1.248  0.0000 -0.1677 -0.7606
12419SOL    HW144497   3.069   4.094   1.268  0.7116  1.6812 -0.7847
12419SOL    HW244498   2.995   4.201   1.191 -1.4681  1.4029  0.8195
12420SOL     OW44499  11.495   7.040   8.444 -0.1831 -0.2231 -0.0143
12420SOL    HW144500  11.492   7.027   8.349  0.2855 -1.3743  0.1087
12420SOL    HW244501  11.445   6.967   8.479  1.0738 -0.7836  0.6805
12421SOL     OW44502  11.652  11.460   9.441  0.4002  0.4802 -0.4641
12421SOL    HW144503  11.634  11.529   9.504  0.0376 -1.1017  1.2688
12421SOL    HW244504  11.587  11.393   9.459  0.1024  0.0608 -2.7603
12422SOL     OW44505   5.849  12.671  12.484 -0.4411  0.2491  0.8140
12422SOL    HW144506   5.888  12.584  12.492  0.1872  0.4570  0.0924
12422SOL    HW244507   5.840  12.701  12.575  0.7931  0.0655  1.0195
12423SOL     OW44508   1.263   8.340   1.396 -0.2607  0.5509 -0.7941
12423SOL    HW144509   1.344   8.348   1.446 -1.3130  0.1684  1.0746
12423SOL    HW244510   1.265   8.252   1.360 -0.4197  0.0396  0.3886
12424SOL     OW44511   0.958   6.971  10.933  0.3564 -0.1068 -0.9938
12424SOL    HW144512   1.044   7.005  10.908  0.8329  1.0030  1.7443
12424SOL    HW244513   0.975   6.918  11.011 -1.5989  1.7225  0.7989
12425SOL     OW44514   0.479   4.520   9.674  0.3422  0.5302  0.2202
12425SOL    HW144515   0.457   4.612   9.686 -1.4671 -0.1403  3.2205
12425SOL    HW244516   0.514   4.493   9.759 -1.0584 -1.9634  0.1010
12426SOL     OW44517   6.982   4.358   3.400  0.4995  0.3093 -0.0599
12426SOL    HW144518   7.006   4.436   3.451 -1.1767  0.8845 -0.1089
12426SOL    HW244519   7.042   4.290   3.432  3.0300  1.9240 -1.0384
12427SOL     OW44520   6.337   8.752  10.850 -0.2794  0.4148  0.0733
12427SOL    HW144521   6.394   8.805  10.794 -0.9687 -0.2469 -1.3081
12427SOL    HW244522   6.309   8.680  10.794 -1.8491  0.2978  0.9585
12428SOL     OW44523  10.517   2.344   3.535  0.0943  0.0473 -0.2119
12428SOL    HW144524  10.495   2.418   3.479  0.5447  0.1980 -0.1928
12428SOL    HW244525  10.443   2.336   3.594 -0.5900 -0.3851 -1.1041
12429SOL     OW44526   7.590   8.150   8.573  1.0683 -0.3440 -0.0362
12429SOL    HW144527   7.574   8.167   8.480 -0.0065 -0.7847  0.0587
12429SOL    HW244528   7.674   8.104   8.575 -0.8487 -4.2731 -1.2245
12430SOL     OW44529  10.898   6.410   5.954  0.2430 -0.2394 -0.5516
12430SOL    HW144530  10.856   6.331   5.987  0.8269 -1.1569 -1.9232
12430SOL    HW244531  10.929   6.386   5.867 -0.3542  1.7710 -1.3772
12431SOL     OW44532   6.068   4.426   3.431  0.1333  0.5703  0.3366
12431SOL    HW144533   6.146   4.422   3.376 -1.1880  0.4217 -1.6568
12431SOL    HW244534   6.027   4.510   3.408 -0.3876  0.5634  1.2090
12432SOL     OW44535   4.663   0.748   3.047 -0.2706 -0.1801  0.4688
12432SOL    HW144536   4.637   0.785   2.963 -1.1099 -0.3572  0.6438
12432SOL    HW244537   4.635   0.812   3.112 -0.3713 -0.4246  0.6699
12433SOL     OW44538   2.570   1.623   9.292 -0.1737  0.2630 -0.2928
12433SOL    HW144539   2.577   1.700   9.236 -1.8885 -0.7316 -1.9742
12433SOL    HW244540   2.636   1.563   9.258  0.2882  0.4829  0.1987
12434SOL     OW44541   8.252   6.858   1.769  0.2880 -0.6024  0.3430
12434SOL    HW144542   8.343   6.884   1.752  0.3283 -1.6333 -1.2531
12434SOL    HW244543   8.199   6.929   1.733  0.4523 -0.8429 -0.3943
12435SOL     OW44544   0.766   2.850   4.300 -0.7122 -0.4381  0.4263
12435SOL    HW144545   0.723   2.765   4.304  0.0885 -0.9088 -0.6652
12435SOL    HW244546   0.813   2.856   4.384 -3.1624  0.2895  1.8546
12436SOL     OW44547   6.135   6.368   9.604 -0.5942 -0.2176 -0.6163
12436SOL    HW144548   6.088   6.399   9.527  0.8805  0.8643 -1.1173
12436SOL    HW244549   6.130   6.272   9.597 -2.9104 -0.1682 -0.4832
12437SOL     OW44550   1.180  12.140   3.783 -0.3096 -0.4604  0.0930
12437SOL    HW144551   1.227  12.202   3.727 -0.4040 -1.5431 -1.2223
12437SOL    HW244552   1.097  12.125   3.738 -1.3087  0.2559  1.6219
12438SOL     OW44553   5.253   9.137  11.708 -0.2272  0.0431 -0.7688
12438SOL    HW144554   5.241   9.054  11.661 -2.0442 -0.4491  0.4556
12438SOL    HW244555   5.218   9.120  11.795 -1.1081  2.2385 -0.6352
12439SOL     OW44556   5.708  11.238  12.282 -0.1186 -0.1260 -0.5994
12439SOL    HW144557   5.773  11.212  12.347  1.2563  0.3428 -1.7507
12439SOL    HW244558   5.719  11.332  12.273 -0.4576 -0.1506 -1.3444
12440SOL     OW44559   6.326   5.042   0.184  0.3623 -0.1234  0.1092
12440SOL    HW144560   6.358   5.007   0.100  0.7123  1.0634 -0.2764
12440SOL    HW244561   6.255   4.983   0.209  2.5509 -2.6642  0.8069
12441SOL     OW44562   3.176   1.073   4.984  0.2303 -0.5995 -0.1535
12441SOL    HW144563   3.177   1.130   4.907 -1.3911  1.1579  1.0383
12441SOL    HW244564   3.126   1.122   5.049 -0.1241 -2.8745  1.3841
12442SOL     OW44565   2.893   0.224  12.125 -0.1931 -0.3626  0.2359
12442SOL    HW144566   2.974   0.271  12.145 -0.4546 -0.2783  1.1583
12442SOL    HW244567   2.919   0.156  12.064  0.4047  0.2441 -0.2014
12443SOL     OW44568  10.154   8.943  10.087  0.4697  0.3301 -0.3936
12443SOL    HW144569  10.182   8.942   9.996  0.3128 -2.8368 -0.5000
12443SOL    HW244570  10.159   9.035  10.112  0.4531  1.3292 -3.5898
12444SOL     OW44571   0.284   9.232  10.677 -0.4550 -0.2995  0.2174
12444SOL    HW144572   0.243   9.296  10.735 -0.5378 -0.6806  0.5764
12444SOL    HW244573   0.349   9.188  10.732 -2.2802 -2.4522  0.7611
12445SOL     OW44574  10.672   8.224  11.074 -0.4384 -0.8299  0.3069
12445SOL    HW144575  10.735   8.152  11.065  0.6132 -0.0522  1.1448
12445SOL    HW244576  10.723   8.303  11.056 -0.8435 -0.0894  2.2060
12446SOL     OW44577  11.672   1.264   8.624  0.2464 -0.0070 -0.1238
12446SOL    HW144578  11.624   1.269   8.541  0.6262  1.2937 -0.2805
12446SOL    HW244579  11.726   1.186   8.615  0.0725 -0.0435 -0.9822
12447SOL     OW44580   1.911   2.659   1.785 -0.2699  0.0707  0.3630
12447SOL    HW144581   1.911   2.581   1.840 -0.7966 -0.8133 -0.8312
12447SOL    HW244582   1.835   2.648   1.728 -0.6841  1.7514  0.5556
12448SOL     OW44583   2.474  10.519   4.822  0.1720  0.2948  0.0499
12448SOL    HW144584   2.498  10.565   4.741  0.7636 -1.0891 -0.6086
12448SOL    HW244585   2.399  10.464   4.798 -0.3713  0.7145  0.7488
12449SOL     OW44586   8.466  10.171  10.218  0.0344  0.0881  0.0049
12449SOL    HW144587   8.380  10.188  10.180  0.4552  4.2458  0.4870
12449SOL    HW244588   8.525  10.172  10.143 -0.1890 -2.2270 -0.2617
12450SOL     OW44589   0.537   9.944   1.416  0.1613 -0.1036 -0.0207
12450SOL    HW144590   0.579   9.960   1.332 -1.7516  0.0212 -1.0108
12450SOL    HW244591   0.495   9.858   1.406 -2.0829  0.9204 -0.1248
12451SOL     OW44592  11.611   5.691  11.180  0.4526  0.0700 -0.0356
12451SOL    HW144593  11.573   5.635  11.248  0.8838 -0.4893 -0.2478
12451SOL    HW244594  11.615   5.778  11.220  0.0060 -0.0972  0.3871
12452SOL     OW44595   1.976   0.404   0.967 -0.6689 -0.0364  0.4832
12452SOL    HW144596   2.070   0.424   0.966 -1.0029  1.8321  0.9928
12452SOL    HW244597   1.956   0.391   1.060 -1.1845  1.2236  0.5714
12453SOL     OW44598   7.995   4.565   5.668 -0.1747 -0.3961  0.0130
12453SOL    HW144599   8.017   4.553   5.761 -1.6890  0.0576  0.4607
12453SOL    HW244600   8.019   4.655   5.649 -1.8640  0.2316  0.6153
12454SOL     OW44601  11.015   5.562   5.012  0.0069  0.2315 -0.6867
12454SOL    HW144602  11.042   5.613   4.936  0.3443  0.4352 -0.4352
12454SOL    HW244603  11.024   5.471   4.984 -0.6088  0.3062 -1.1369
12455SOL     OW44604   9.576   6.100   5.503  0.4116 -0.1670 -0.1898
12455SOL    HW144605   9.582   6.008   5.530  0.2060 -0.5080 -1.2613
12455SOL    HW244606   9.566   6.148   5.585  0.5493 -1.0964  0.3895
12456SOL     OW44607   1.074  11.629   9.261  0.6057  0.1323 -0.1336
12456SOL    HW144608   1.139  11.585   9.316  0.6879 -0.3303 -0.5928
12456SOL    HW244609   1.114  11.714   9.241  0.0730  0.7757  1.4609
12457SOL     OW44610   4.814   2.151   0.727  0.1050  0.4361 -0.4273
12457SOL    HW144611   4.781   2.216   0.790 -0.4765 -0.1232 -0.1385
12457SOL    HW244612   4.740   2.092   0.714  0.3487  0.3328 -1.3630
12458SOL     OW44613   3.442   9.992   5.092  0.9553  0.2160  0.3514
12458SOL    HW144614   3.446  10.060   5.159 -2.4271  0.4066  0.5275
12458SOL    HW244615   3.380  10.026   5.027 -0.0252 -2.2186 -0.0851
12459SOL     OW44616   2.281   1.730   8.118 -0.0823 -0.1080  0.4111
12459SOL    HW144617   2.350   1.767   8.063  0.3445  0.4398  1.2866
12459SOL    HW244618   2.203   1.731   8.063  0.3893  0.1984 -0.2638
12460SOL     OW44619   8.066  10.271   6.123  0.7601  0.0732  0.2879
12460SOL    HW144620   8.078  10.264   6.028 -2.2097  1.8409 -0.3325
12460SOL    HW244621   8.155  10.286   6.157  2.1024 -2.0259 -1.9703
12461SOL     OW44622   8.613   4.506  10.126 -0.4054  0.4572 -0.0393
12461SOL    HW144623   8.639   4.548  10.209 -0.5363  2.0659 -0.7858
12461SOL    HW244624   8.668   4.548  10.060 -1.6674  0.6134 -1.0258
12462SOL     OW44625   8.266   0.231   9.150 -0.1109 -0.1233 -0.0072
12462SOL    HW144626   8.334   0.220   9.084 -0.5774 -1.2205 -0.3227
12462SOL    HW244627   8.199   0.167   9.127 -0.9971  0.5470  0.6312
12463SOL     OW44628   8.551   6.958   2.150 -0.1940 -0.1717 -0.6821
12463SOL    HW144629   8.537   7.048   2.122 -0.0065 -0.4548 -1.7264
12463SOL    HW244630   8.509   6.905   2.082 -2.7725 -0.8608  1.3146
12464SOL     OW44631   3.980   0.398   9.311  0.9775 -0.6162 -0.0480
12464SOL    HW144632   3.967   0.458   9.384 -1.2378  0.0552 -0.9266
12464SOL    HW244633   3.956   0.312   9.346 -1.1371 -0.1385 -0.2153
12465SOL     OW44634   1.304   9.804   3.235 -0.1677  0.3405  0.6104
12465SOL    HW144635   1.243   9.877   3.241 -0.1064  0.3570  1.0842
12465SOL    HW244636   1.359   9.823   3.159 -0.6348  0.4167  0.2916
12466SOL     OW44637  11.221   2.252  12.001 -0.2661  0.6094  0.5278
12466SOL    HW144638  11.291   2.280  11.943 -0.1811 -0.5164  0.0634
12466SOL    HW244639  11.253   2.274  12.089 -0.5751  2.7069  0.1749
12467SOL     OW44640   1.540   1.829   9.668  0.2668 -0.3167 -0.2064
12467SOL    HW144641   1.627   1.799   9.694  0.6274  1.6891  1.0621
12467SOL    HW244642   1.483   1.802   9.739  0.1612 -0.1284 -0.2179
12468SOL     OW44643  10.550   1.164  12.257 -0.3520  0.5279  0.3505
12468SOL    HW144644  10.632   1.115  12.246  0.8265  2.6585 -1.1587
12468SOL    HW244645  10.577   1.256  12.261 -2.6982  1.3695 -0.8776
12469SOL     OW44646   0.546   9.010  12.687  0.3551  0.3816 -0.5606
12469SOL    HW144647   0.512   8.932  12.642  1.3717 -1.0701  1.0373
12469SOL    HW244648   0.623   9.036  12.636  0.8023 -0.5137 -0.3716
12470SOL     OW44649   0.369  11.554   4.864  0.0944 -0.8243 -0.0803
12470SOL    HW144650   0.283  11.579   4.830 -1.0817 -1.0402  2.5617
12470SOL    HW244651   0.406  11.636   4.897  1.0658 -0.6841 -1.4344
12471SOL     OW44652   2.088  10.982   4.780  0.5478 -0.4221  0.6730
12471SOL    HW144653   2.028  10.920   4.741  0.0238  0.8019 -0.5678
12471SOL    HW244654   2.093  11.054   4.717  1.0890  0.8207  2.0478
12472SOL     OW44655   3.999   7.816   7.092 -0.2427 -0.1247  0.0720
12472SOL    HW144656   4.044   7.879   7.148 -0.4505  2.3380 -2.3331
12472SOL    HW244657   4.066   7.786   7.030 -1.0970  1.1236 -1.5177
12473SOL     OW44658  11.686   0.862   5.701 -0.5064  0.4101  0.0800
12473SOL    HW144659  11.619   0.822   5.757  1.4371 -0.5408  1.8505
12473SOL    HW244660  11.723   0.932   5.755  0.7377  0.1179 -0.3764
12474SOL     OW44661   9.619  11.217   5.856 -0.6833  0.2980 -0.0441
12474SOL    HW144662   9.555  11.155   5.821  0.8952 -1.6521  0.3177
12474SOL    HW244663   9.672  11.242   5.780 -0.3500 -0.0268  0.0799
12475SOL     OW44664   0.354   3.248   0.724  0.2354 -0.1450 -0.0248
12475SOL    HW144665   0.277   3.304   0.716  0.3671 -0.1248 -1.4528
12475SOL    HW244666   0.410   3.274   0.651 -0.1744 -2.8416 -1.4372
12476SOL     OW44667   9.977   0.477   4.523 -0.1743 -0.1307 -0.0373
12476SOL    HW144668   9.960   0.571   4.512  1.7864  0.0716 -2.5836
12476SOL    HW244669  10.047   0.473   4.588  1.9162  0.5874 -2.0607
12477SOL     OW44670   9.819   2.096   2.421 -0.0351 -0.4953  0.3020
12477SOL    HW144671   9.756   2.030   2.451 -1.4627  0.9704  0.7224
12477SOL    HW244672   9.775   2.138   2.347 -0.5879  1.9886  1.9124
12478SOL     OW44673   7.222  10.847   2.739 -0.1921 -0.5371  0.1504
12478SOL    HW144674   7.185  10.878   2.822 -0.7979  0.4824 -0.4849
12478SOL    HW244675   7.313  10.825   2.761  0.4361  2.1364  0.5834
12479SOL     OW44676  10.462   5.318  11.166 -0.7911 -0.5381 -0.3375
12479SOL    HW144677  10.489   5.410  11.169  0.8286 -1.0010  0.1263
12479SOL    HW244678  10.541   5.269  11.188 -1.6399 -2.0523 -0.5383
12480SOL     OW44679  10.533   4.038   4.125  0.0488 -0.0292 -0.0291
12480SOL    HW144680  10.538   4.132   4.109 -2.4800  0.5828  2.0429
12480SOL    HW244681  10.604   4.001   4.073  1.3519  3.0301 -0.6460
12481SOL     OW44682   8.594  10.480  11.097  0.1532  0.1926 -0.7238
12481SOL    HW144683   8.633  10.450  11.179 -0.8959  1.4560  0.2746
12481SOL    HW244684   8.667  10.516  11.047  0.4394  1.8678  0.8100
12482SOL     OW44685   6.724   0.224   1.351  0.1379 -0.3950 -0.2242
12482SOL    HW144686   6.762   0.284   1.286 -0.2461 -0.5224 -0.5734
12482SOL    HW244687   6.671   0.163   1.299  1.3192 -1.6637  0.0251
12483SOL     OW44688   7.970   7.175   7.366 -0.0989  0.0965 -0.6990
12483SOL    HW144689   7.974   7.094   7.315  0.0798 -0.1969 -0.2271
12483SOL    HW244690   7.882   7.175   7.404  0.2953 -0.4596  0.2343
12484SOL     OW44691   5.951  10.536   5.946 -0.0659 -0.0907 -0.7714
12484SOL    HW144692   5.995  10.613   5.982 -0.9157  0.3713 -0.7051
12484SOL    HW244693   5.981  10.532   5.855 -0.7633  0.8841 -1.0523
12485SOL     OW44694   9.566  12.669   5.674 -0.3077  0.3601 -0.0277
12485SOL    HW144695   9.528  12.676   5.586 -0.8682 -1.0477  0.0712
12485SOL    HW244696   9.558  12.576   5.696  1.9896  0.2421  0.5627
12486SOL     OW44697   9.220   9.748   7.563  0.1154  0.4026  0.0570
12486SOL    HW144698   9.270   9.793   7.495  0.3627  1.3412  0.8333
12486SOL    HW244699   9.167   9.683   7.516  1.5180 -0.1206 -0.8521
12487SOL     OW44700   9.784   0.632  11.371 -0.4491 -0.3185  0.1168
12487SOL    HW144701   9.763   0.603  11.459 -2.2649 -0.6548 -0.3768
12487SOL    HW244702   9.700   0.629  11.324  0.4014  0.1610 -1.5271
12488SOL     OW44703   3.284  11.402   9.764 -0.4254 -0.2308  0.1649
12488SOL    HW144704   3.301  11.492   9.794  0.7214  0.2176 -1.6618
12488SOL    HW244705   3.226  11.413   9.689  1.0463 -0.8388 -1.1144
12489SOL     OW44706   5.694  11.387   4.845 -0.1320 -0.3317  0.5968
12489SOL    HW144707   5.694  11.292   4.837  0.0019 -0.2698 -0.1834
12489SOL    HW244708   5.787  11.412   4.841 -0.1668 -0.1636  0.7910
12490SOL     OW44709   8.630   2.657  11.921  0.7393 -0.0185 -0.3725
12490SOL    HW144710   8.700   2.635  11.860  0.2691 -0.0314 -0.9213
12490SOL    HW244711   8.595   2.573  11.950  0.7143 -0.0115 -0.3819
12491SOL     OW44712   2.566  10.371  12.362 -0.3264 -0.2368  0.6033
12491SOL    HW144713   2.628  10.423  12.310 -0.4965  0.0712  0.7005
12491SOL    HW244714   2.538  10.301  12.303 -2.2748  1.3921 -0.6013
12492SOL     OW44715   3.817   2.642   1.744 -0.0226  0.5533  0.1560
12492SOL    HW144716   3.783   2.679   1.826  1.2212 -0.0791  1.0014
12492SOL    HW244717   3.872   2.568   1.773 -1.2034 -0.9881 -1.3832
12493SOL     OW44718   4.875   9.734   1.954  0.3260 -0.4039 -0.1290
12493SOL    HW144719   4.877   9.802   2.022 -0.0912 -0.4921 -0.0308
12493SOL    HW244720   4.870   9.652   2.003 -0.8288 -0.4315 -0.2831
12494SOL     OW44721  10.991   8.414   6.406  0.3119 -0.0268  0.0190
12494SOL    HW144722  10.910   8.423   6.456 -1.1219 -1.7171 -1.8430
12494SOL    HW244723  10.991   8.322   6.378  0.5513  0.9637 -3.7085
12495SOL     OW44724  12.390   5.534   9.170  0.3507 -0.4364  0.3244
12495SOL    HW144725  12.392   5.606   9.232  1.9939 -0.2625  0.1364
12495SOL    HW244726  12.317   5.553   9.112 -1.0493 -0.4695  2.0196
12496SOL     OW44727   5.387  10.940   4.509 -0.2983 -0.0931  0.0995
12496SOL    HW144728   5.401  10.986   4.426 -2.0043  1.5464  0.6726
12496SOL    HW244729   5.307  10.889   4.496 -0.5494  0.1326  0.7063
12497SOL     OW44730   2.814   2.623   0.332 -0.1956  0.5637 -0.0039
12497SOL    HW144731   2.829   2.633   0.238 -0.5988 -0.5685 -0.2037
12497SOL    HW244732   2.764   2.700   0.356 -0.0856  0.8710 -0.7175
12498SOL     OW44733   0.478   5.390   8.330  0.3300 -0.7653  0.3014
12498SOL    HW144734   0.462   5.299   8.356  0.0504 -1.0674 -0.8455
12498SOL    HW244735   0.572   5.393   8.312  0.5135 -0.5682  1.2725
12499SOL     OW44736   2.669   3.433   7.576 -0.2738 -0.7131 -0.1967
12499SOL    HW144737   2.621   3.461   7.654 -0.5989 -0.6920 -0.4034
12499SOL    HW244738   2.630   3.350   7.551 -0.4890 -0.4948 -0.6085
12500SOL     OW44739   8.461   3.995   0.854  0.3768  0.1772  0.5928
12500SOL    HW144740   8.528   3.926   0.847  0.2110  0.0188  0.5671
12500SOL    HW244741   8.419   3.979   0.939  0.9617  0.8144  1.0197
12501SOL     OW44742   1.289   1.613   9.311  0.3486  0.0724 -0.0125
12501SOL    HW144743   1.206   1.611   9.264  0.2645 -0.7152  0.1566
12501SOL    HW244744   1.265   1.618   9.403  0.4734 -1.0516  0.0848
12502SOL     OW44745   2.016   5.707   4.162 -0.9592 -0.0492  0.2297
12502SOL    HW144746   1.971   5.690   4.080  2.0505  0.3508 -1.6613
12502SOL    HW244747   1.998   5.799   4.181 -0.7033  0.1963 -0.6890
12503SOL     OW44748   2.371   5.100   6.616  0.3769 -0.7341  0.1278
12503SOL    HW144749   2.445   5.160   6.601  1.1232 -1.4709  0.7984
12503SOL    HW244750   2.394   5.022   6.566  0.1059 -1.0067  0.4313
12504SOL     OW44751   5.300   7.300   6.204  0.7173  0.0516 -0.0510
12504SOL    HW144752   5.300   7.274   6.296 -2.7253 -0.6292 -0.0886
12504SOL    HW244753   5.254   7.384   6.203 -1.4306 -1.0253 -1.2419
12505SOL     OW44754   1.245   0.650   1.675  0.4522  0.3964 -0.0949
12505SOL    HW144755   1.292   0.694   1.745  3.2116 -2.0619 -0.2247
12505SOL    HW244756   1.225   0.563   1.711 -1.1345  0.2379 -1.2411
12506SOL     OW44757  10.615   1.527  11.001  0.4435 -0.0654  0.6973
12506SOL    HW144758  10.592   1.445  11.045 -1.7187 -0.4267 -0.9069
12506SOL    HW244759  10.602   1.594  11.067 -0.1076 -0.8156  1.3719
12507SOL     OW44760  11.135   5.462   1.785 -0.0070 -0.5603  0.7145
12507SOL    HW144761  11.048   5.494   1.806  0.1206 -0.3035  0.8515
12507SOL    HW244762  11.120   5.379   1.740 -0.3724  0.0145 -0.2554
12508SOL     OW44763   0.156   8.979   3.192  0.0119  0.4208  0.0573
12508SOL    HW144764   0.161   8.883   3.182  0.1311  0.3191  1.0177
12508SOL    HW244765   0.207   9.013   3.119  2.0829 -0.2999  1.0815
12509SOL     OW44766   3.729   6.481   9.093  0.3276 -0.4021  0.0231
12509SOL    HW144767   3.688   6.396   9.110  1.0149 -0.9105 -0.8133
12509SOL    HW244768   3.784   6.466   9.016  0.3666  0.8310 -0.1993
12510SOL     OW44769   5.421   3.356   0.678 -0.3432 -0.4493 -0.0473
12510SOL    HW144770   5.381   3.425   0.729 -1.8176 -1.8671  0.7964
12510SOL    HW244771   5.378   3.276   0.707  0.9176 -1.6736 -1.3681
12511SOL     OW44772   9.044   0.872  11.609 -0.1949 -0.0983 -0.1863
12511SOL    HW144773   9.127   0.907  11.641 -0.4529 -0.3999  0.8625
12511SOL    HW244774   9.055   0.777  11.612 -0.9735 -0.1739  1.1342
12512SOL     OW44775   4.062   9.340   7.281  0.5106  0.1997  0.0088
12512SOL    HW144776   3.974   9.350   7.320  0.1328  0.1110 -0.8084
12512SOL    HW244777   4.045   9.306   7.193  1.3777  0.1042 -0.1226
12513SOL     OW44778   8.101   1.569   2.509 -0.7510  0.0947 -0.1246
12513SOL    HW144779   8.100   1.541   2.600  1.9205 -0.7449 -0.2756
12513SOL    HW244780   8.057   1.499   2.462 -2.9491  0.9429  0.5372
12514SOL     OW44781  10.731   9.924  11.555 -0.1118 -0.2605  0.2343
12514SOL    HW144782  10.766   9.974  11.628  0.4449  2.1200 -1.5121
12514SOL    HW244783  10.641   9.903  11.581 -0.2703  1.4440  1.2324
12515SOL     OW44784   9.760   9.848  12.049  0.1812 -0.5914  0.6698
12515SOL    HW144785   9.701   9.901  11.996  0.8109 -0.6516 -0.1102
12515SOL    HW244786   9.721   9.848  12.137 -1.5847 -1.5401 -0.0614
12516SOL     OW44787  11.077   2.861   5.955  0.0707  0.2417  0.3342
12516SOL    HW144788  11.034   2.937   5.995 -1.6093  0.7035 -2.0979
12516SOL    HW244789  11.155   2.898   5.912 -0.1059  0.3925  0.1404
12517SOL     OW44790  10.034   7.687   5.307 -0.9121 -0.1965  0.0787
12517SOL    HW144791  10.074   7.608   5.269  2.1336  0.4649  1.6046
12517SOL    HW244792  10.024   7.666   5.400 -0.4632  1.0540  0.4226
12518SOL     OW44793   0.635   8.979   1.436 -0.6595 -0.1892 -0.1470
12518SOL    HW144794   0.658   8.954   1.347 -0.0757  0.0653 -0.0701
12518SOL    HW244795   0.589   8.903   1.472 -2.1235  0.1983 -1.1126
12519SOL     OW44796   4.727   9.785   6.862 -0.5752  0.4205 -0.1483
12519SOL    HW144797   4.662   9.716   6.850  0.5801 -0.6586 -0.4457
12519SOL    HW244798   4.781   9.753   6.935  0.2181  0.8152 -0.5579
12520SOL     OW44799   5.951   9.013  12.493  0.1278 -0.7269  0.4495
12520SOL    HW144800   6.044   9.020  12.469  0.1533 -1.9771  0.1524
12520SOL    HW244801   5.923   9.104  12.505  0.9972 -0.2427 -0.9481
12521SOL     OW44802   1.098   2.308   8.485 -0.0392 -0.3234  0.8420
12521SOL    HW144803   1.096   2.249   8.410  2.5379 -0.4048  0.7472
12521SOL    HW244804   1.049   2.385   8.456 -0.2250 -0.8993 -0.4255
12522SOL     OW44805   9.680  12.096   1.436  0.0861  0.3535 -0.7510
12522SOL    HW144806   9.611  12.124   1.376 -1.7957  0.6295  1.4205
12522SOL    HW244807   9.720  12.178   1.467  2.1106  0.1869 -2.6640
12523SOL     OW44808   3.262   6.926   3.999  0.1776  0.0435 -0.6382
12523SOL    HW144809   3.351   6.942   4.030 -0.3801  1.8183  0.1868
12523SOL    HW244810   3.269   6.929   3.903  0.9525  0.5189 -0.5713
12524SOL     OW44811   9.359   1.567   0.384 -0.6727 -0.3356  0.0012
12524SOL    HW144812   9.359   1.629   0.312 -0.1836  0.1828  0.4393
12524SOL    HW244813   9.385   1.618   0.460  0.8494 -1.2808  0.1646
12525SOL     OW44814   9.294   8.553   1.138  0.3493 -0.0194  0.3620
12525SOL    HW144815   9.251   8.638   1.146  1.1951  0.6359 -1.4029
12525SOL    HW244816   9.288   8.533   1.044 -0.0682 -2.0510  0.7890
12526SOL     OW44817   9.910  12.161  12.449 -0.1033  0.6629 -0.7041
12526SOL    HW144818   9.955  12.224  12.394  0.7212  3.1434  2.5072
12526SOL    HW244819   9.980  12.113  12.494 -0.5746  1.9410  1.5369
12527SOL     OW44820   7.643   5.360   0.482 -0.1569  0.2290  0.1803
12527SOL    HW144821   7.663   5.277   0.527  1.1875  0.0092 -0.7503
12527SOL    HW244822   7.727   5.406   0.480 -0.5052  0.8447 -0.8615
12528SOL     OW44823   4.228   2.545   6.567 -0.6318  0.3306 -0.1900
12528SOL    HW144824   4.169   2.597   6.513  0.2079 -1.8458 -3.5581
12528SOL    HW244825   4.242   2.465   6.516  0.7756 -1.7320  3.0867
12529SOL     OW44826   7.391  10.608   3.728 -0.0279 -0.3770  0.2306
12529SOL    HW144827   7.319  10.646   3.677  1.1289 -1.0864 -2.1169
12529SOL    HW244828   7.455  10.581   3.661  2.6191  0.5937  2.2011
12530SOL     OW44829   9.205   1.114   0.296 -0.0586  0.7859  0.2212
12530SOL    HW144830   9.261   1.040   0.273  0.2511  1.4431 -1.2491
12530SOL    HW244831   9.116   1.080   0.289  0.0952  0.3770  0.2180
12531SOL     OW44832  10.255   5.486   7.400 -0.2220  0.0685 -0.3558
12531SOL    HW144833  10.208   5.545   7.459  0.2227  0.5826 -0.5133
12531SOL    HW244834  10.249   5.528   7.315 -0.9987 -0.7509 -0.7144
12532SOL     OW44835   9.867   2.873  12.081 -0.1226  0.5344  0.1448
12532SOL    HW144836   9.911   2.799  12.038 -3.0837  0.1726 -2.5732
12532SOL    HW244837   9.938   2.936  12.096  1.5865 -0.3358 -3.1596
12533SOL     OW44838   5.295   2.817  11.172 -0.1440 -0.0460  0.3548
12533SOL    HW144839   5.349   2.836  11.095  1.4024  0.9786  1.6201
12533SOL    HW244840   5.356   2.777  11.234 -1.6483 -2.1196  0.5977
12534SOL     OW44841   2.466   5.932   5.606 -0.2155 -0.0903 -0.4379
12534SOL    HW144842   2.489   5.988   5.681 -1.7974 -0.6775  0.5155
12534SOL    HW244843   2.478   5.989   5.530 -1.3485  1.4503  0.4776
12535SOL     OW44844   7.085   3.775  11.441  0.1949  0.9193  0.6153
12535SOL    HW144845   7.122   3.834  11.507  1.9097  0.8668 -0.2631
12535SOL    HW244846   7.097   3.821  11.358 -1.1435  0.5975  0.2127
12536SOL     OW44847  10.781   7.003   8.860  0.1081 -0.1681 -0.1670
12536SOL    HW144848  10.869   6.984   8.827 -0.1694  2.2326 -2.7519
12536SOL    HW244849  10.784   6.980   8.953  2.5617 -2.7797 -0.7477
12537SOL     OW44850   8.905   1.430   3.816 -0.4513 -0.0389  0.0120
12537SOL    HW144851   8.908   1.505   3.876 -0.5807 -0.5978  0.7357
12537SOL    HW244852   8.849   1.458   3.744  0.2760  0.8992 -0.2044
12538SOL     OW44853   8.603  10.436   2.532 -0.5196 -0.5456  0.9061
12538SOL    HW144854   8.560  10.507   2.579 -1.4224 -1.1484  0.9981
12538SOL    HW244855   8.572  10.445   2.442  1.0920  0.5210  0.4110
12539SOL     OW44856   1.066   1.120   8.912 -0.4156  0.4992 -0.5928
12539SOL    HW144857   1.099   1.038   8.874 -0.8407  0.0874 -0.0901
12539SOL    HW244858   1.121   1.188   8.874 -0.9818  0.1319 -2.1416
12540SOL     OW44859   9.686  12.326   0.836 -0.9115  0.2829  0.7751
12540SOL    HW144860   9.696  12.318   0.931 -0.2477 -0.0528  0.6861
12540SOL    HW244861   9.748  12.262   0.800 -0.6250  0.9137  0.1128
12541SOL     OW44862   5.573  11.141   9.013 -0.3336 -0.1438 -0.3571
12541SOL    HW144863   5.485  11.127   9.048 -0.2104  0.1372  0.0784
12541SOL    HW244864   5.565  11.126   8.919 -1.0943  0.9482 -0.4884
12542SOL     OW44865  10.847   9.881   1.362 -0.7484 -0.0596  0.1940
12542SOL    HW144866  10.801   9.940   1.423 -1.5460 -0.3330 -0.1244
12542SOL    HW244867  10.881   9.811   1.417  2.4854  1.9350  1.0001
12543SOL     OW44868   5.697  11.456   1.548  0.2056 -0.1171 -0.0544
12543SOL    HW144869   5.714  11.366   1.521 -1.9015 -0.0409 -1.9939
12543SOL    HW244870   5.601  11.464   1.546  0.3349  2.2817 -0.5058
12544SOL     OW44871   9.310   6.034   8.596 -0.0010  0.0513  0.6478
12544SOL    HW144872   9.373   5.997   8.535  0.0849 -0.0313  0.7855
12544SOL    HW244873   9.362   6.085   8.658  0.0220 -0.6783  1.2446
12545SOL     OW44874   7.501   6.105  11.815  0.2788 -0.6837 -0.1944
12545SOL    HW144875   7.539   6.177  11.865 -1.0662  0.0518 -0.2167
12545SOL    HW244876   7.457   6.147  11.741  2.2854 -1.7391 -2.1408
12546SOL     OW44877  11.366   4.734   9.265  0.0412 -0.0570 -0.1359
12546SOL    HW144878  11.431   4.685   9.316  0.4702 -0.1132 -0.7278
12546SOL    HW244879  11.297   4.671   9.247 -0.3485  0.0914  0.7852
12547SOL     OW44880  11.041   3.745  10.607 -0.3499  0.2356  0.2948
12547SOL    HW144881  11.118   3.799  10.627 -1.3771  1.5259  0.8852
12547SOL    HW244882  11.052   3.723  10.514  0.5151  0.7563  0.2566
12548SOL     OW44883   2.722   1.451   7.702  0.2203 -0.1369 -0.4487
12548SOL    HW144884   2.674   1.416   7.778 -0.4166  1.7745  0.0738
12548SOL    HW244885   2.706   1.387   7.633 -0.3965 -1.1883  0.6106
12549SOL     OW44886   0.359   5.685   5.171 -0.0129  0.1212 -0.3562
12549SOL    HW144887   0.385   5.598   5.202 -3.4127 -0.5644  1.0739
12549SOL    HW244888   0.298   5.667   5.099  1.3225  1.4935 -1.9140
12550SOL     OW44889   5.212   4.167  11.684  0.4700  0.2641 -0.0062
12550SOL    HW144890   5.231   4.082  11.644 -0.2748  0.6890 -1.3387
12550SOL    HW244891   5.117   4.179  11.671  0.4558  1.0328  0.7055
12551SOL     OW44892   7.416   5.116   3.218 -0.5525  0.6943 -0.2299
12551SOL    HW144893   7.383   5.147   3.302 -0.0336 -1.0027  0.6387
12551SOL    HW244894   7.430   5.022   3.230  1.4015  0.7455 -1.6064
12552SOL     OW44895   2.307   7.248   5.308  0.0745  0.0789  0.4777
12552SOL    HW144896   2.212   7.236   5.315  0.2158 -1.0672  0.4633
12552SOL    HW244897   2.319   7.291   5.223 -0.2557 -2.1757 -0.7797
12553SOL     OW44898   8.730  12.531   8.345  0.1616  0.1776  0.6502
12553SOL    HW144899   8.758  12.469   8.412 -1.0093  0.9408  1.9043
12553SOL    HW244900   8.657  12.578   8.385 -0.4277  0.8276 -1.0858
12554SOL     OW44901   9.766   5.812   4.368  0.1704  0.2812  0.2098
12554SOL    HW144902   9.858   5.830   4.344  0.9258 -1.7282  1.3997
12554SOL    HW244903   9.751   5.867   4.445  0.8909 -0.4527  0.9023
12555SOL     OW44904   7.413   7.490   9.819 -1.1945 -0.1799  0.4805
12555SOL    HW144905   7.343   7.447   9.868 -0.8683 -2.4117 -0.8851
12555SOL    HW244906   7.390   7.476   9.727  0.3265  0.2742 -0.0014
12556SOL     OW44907   0.518   5.445   9.040  0.5052 -0.0151  0.3699
12556SOL    HW144908   0.476   5.515   8.990  0.3145  0.1788  0.7992
12556SOL    HW244909   0.446   5.393   9.074  0.6471 -1.3346 -1.1911
12557SOL     OW44910  11.775   8.893   9.122  0.2856 -0.8882 -0.2078
12557SOL    HW144911  11.850   8.873   9.178  0.3336  1.7549  0.8110
12557SOL    HW244912  11.811   8.895   9.033  1.3228 -0.2155  0.2115
12558SOL     OW44913   2.435  10.673   1.781  0.2096 -0.1498 -0.1820
12558SOL    HW144914   2.361  10.618   1.757  1.3887 -1.9220  0.0782
12558SOL    HW244915   2.510  10.614   1.782  1.1952  1.0144  2.2088
12559SOL     OW44916   9.682   8.556   8.740  0.6111 -0.1308  0.3294
12559SOL    HW144917   9.655   8.591   8.824  0.6271 -1.4850  0.9292
12559SOL    HW244918   9.768   8.518   8.755  2.4656  3.0330 -1.2714
12560SOL     OW44919   7.537   3.635   7.915 -0.4552 -0.2647  0.9222
12560SOL    HW144920   7.557   3.624   8.008  1.9759 -0.7163  0.4040
12560SOL    HW244921   7.564   3.725   7.896 -0.8890 -0.1965  0.6378
12561SOL     OW44922   8.130   6.445  11.103  0.0163 -0.6993  0.3946
12561SOL    HW144923   8.085   6.501  11.167 -2.5421 -1.8283 -0.3006
12561SOL    HW244924   8.132   6.359  11.143 -1.3830 -1.3654 -0.8658
12562SOL     OW44925   3.982   7.458   0.388  0.2030 -0.3063 -0.0173
12562SOL    HW144926   3.930   7.389   0.346 -0.4596 -0.8273  1.5931
12562SOL    HW244927   3.975   7.533   0.329 -0.8839 -0.9344 -0.7215
12563SOL     OW44928   2.124  10.723  11.065 -0.2354  0.0438 -0.2402
12563SOL    HW144929   2.035  10.758  11.069 -0.4888 -0.2004 -2.2355
12563SOL    HW244930   2.181  10.800  11.073 -0.6150  0.2296  0.8094
12564SOL     OW44931  11.254   9.599   2.357 -0.0679  0.6548 -0.8826
12564SOL    HW144932  11.265   9.652   2.436  1.5374 -0.3128 -0.4044
12564SOL    HW244933  11.343   9.574   2.333 -0.7681 -3.5118  0.1176
12565SOL     OW44934   8.871   3.534   0.671  0.1127 -0.4282  0.0900
12565SOL    HW144935   8.857   3.491   0.586  0.1338 -0.4644  0.1046
12565SOL    HW244936   8.812   3.609   0.670 -0.0537 -0.5587  0.1361
12566SOL     OW44937   5.544   7.123   3.346  0.7592  0.1809  0.0323
12566SOL    HW144938   5.628   7.103   3.388  1.0545 -2.6171 -1.6469
12566SOL    HW244939   5.482   7.130   3.419  1.9764 -0.3063  1.1592
12567SOL     OW44940   0.380  10.556   1.393 -0.0343  0.0426  0.5236
12567SOL    HW144941   0.377  10.466   1.425 -0.2745 -0.3099 -0.4810
12567SOL    HW244942   0.408  10.549   1.302 -2.3402  0.7585 -0.3168
12568SOL     OW44943  11.504   8.649   5.430  0.0106  0.2842 -0.3748
12568SOL    HW144944  11.597   8.662   5.446 -0.0001  1.5017 -1.2074
12568SOL    HW244945  11.466   8.637   5.517  0.9092 -0.1205 -0.0222
12569SOL     OW44946   6.143  12.301  11.742  0.6221 -0.2204  0.3743
12569SOL    HW144947   6.171  12.389  11.768 -1.9597  1.5358 -2.1873
12569SOL    HW244948   6.221  12.262  11.704  0.8102  3.0941 -3.2683
12570SOL     OW44949   7.022   4.201   0.543 -0.4019  0.6182  0.4468
12570SOL    HW144950   7.015   4.122   0.489 -1.2446  0.0352  1.3735
12570SOL    HW244951   6.935   4.213   0.580  0.7306 -0.7105  3.9721
12571SOL     OW44952  10.838   8.343   4.132  0.4048  0.2954 -0.3448
12571SOL    HW144953  10.808   8.358   4.222  2.0195  1.1423  0.1017
12571SOL    HW244954  10.844   8.431   4.094  3.0679  0.3183 -0.0885
12572SOL     OW44955   9.500   6.593   6.930  0.0985  0.3587 -0.2795
12572SOL    HW144956   9.468   6.587   6.840 -2.3719 -0.1127  0.5426
12572SOL    HW244957   9.527   6.685   6.939  3.1923 -0.2263 -2.2647
12573SOL     OW44958   3.370   2.162  12.098 -0.2009  0.0261 -0.4868
12573SOL    HW144959   3.374   2.224  12.026 -0.6236  0.4413 -0.1636
12573SOL    HW244960   3.276   2.143  12.108 -0.3773  1.4807  1.1942
12574SOL     OW44961  12.349   8.880  10.357  0.0207 -0.2077 -0.1965
12574SOL    HW144962  12.336   8.969  10.388  2.6818 -0.2972  1.5160
12574SOL    HW244963  12.430   8.885  10.305  0.1868 -1.6195 -0.1037
12575SOL     OW44964  10.644   0.805   5.115  0.1775  0.3001 -0.0772
12575SOL    HW144965  10.575   0.752   5.155  1.6836 -0.6810  1.3721
12575SOL    HW244966  10.598   0.865   5.056 -1.9060 -0.1546  1.0011
12576SOL     OW44967   2.458   2.153   6.738  0.1994 -0.1841 -0.3749
12576SOL    HW144968   2.500   2.234   6.765  1.6431 -0.4887 -1.5657
12576SOL    HW244969   2.489   2.088   6.801 -0.9926  0.1555  0.6053
12577SOL     OW44970   2.885   0.009   9.872 -0.8345  1.0051 -0.6450
12577SOL    HW144971   2.940   0.036   9.946 -1.6230 -1.2837  0.8792
12577SOL    HW244972   2.800  -0.012   9.911 -0.5995 -2.5421 -1.6894
12578SOL     OW44973   6.835   4.308  12.182  0.3608  0.1268 -0.6404
12578SOL    HW144974   6.887   4.388  12.185 -0.4490  0.6336  1.3573
12578SOL    HW244975   6.875   4.250  12.246 -0.3811 -0.1960 -0.4549
12579SOL     OW44976   2.621   6.151   4.645 -0.3090 -0.7486  0.1261
12579SOL    HW144977   2.643   6.245   4.645  0.3688 -0.9020 -0.3983
12579SOL    HW244978   2.561   6.141   4.719 -0.5351  0.1366  0.0730
12580SOL     OW44979  10.149   1.518   7.902  0.6014  0.3980  0.3171
12580SOL    HW144980  10.215   1.503   7.970  0.8086 -0.1656 -0.0036
12580SOL    HW244981  10.165   1.607   7.872  0.4574  0.6823  1.0619
12581SOL     OW44982   8.819   1.037   7.881 -0.3773  0.3637  0.3938
12581SOL    HW144983   8.750   1.028   7.946 -1.2838  0.4214 -0.5483
12581SOL    HW244984   8.900   1.025   7.931 -1.0990 -1.3575  1.2245
12582SOL     OW44985   0.828   2.283   6.475  0.2152  0.2003  0.4221
12582SOL    HW144986   0.898   2.218   6.476 -0.4083 -0.4819  1.0085
12582SOL    HW244987   0.753   2.238   6.514 -1.0504  0.3278 -1.6550
12583SOL     OW44988   7.022  10.275   4.518 -0.6239 -0.6453 -0.4370
12583SOL    HW144989   6.954  10.340   4.534 -0.7634 -0.8694 -0.1294
12583SOL    HW244990   6.981  10.212   4.459 -1.3359 -1.8395  1.2717
12584SOL     OW44991   0.834   7.845   0.963 -0.6459  0.4604 -0.3184
12584SOL    HW144992   0.854   7.937   0.945 -0.2081  0.5749  0.6913
12584SOL    HW244993   0.832   7.803   0.877  0.7442  1.1086 -0.6920
12585SOL     OW44994   7.680   6.027   1.132  0.2912 -0.2118 -0.2019
12585SOL    HW144995   7.606   6.067   1.178 -0.2035 -3.1994  1.8221
12585SOL    HW244996   7.674   5.934   1.152  4.1289 -0.7164 -0.6681
12586SOL     OW44997   8.444   1.321   2.481 -0.3619  0.9972  0.5680
12586SOL    HW144998   8.462   1.412   2.505  1.9490  0.4032  1.3754
12586SOL    HW244999   8.409   1.281   2.561 -0.6329  0.9717  0.4403
12587SOL     OW45000  11.042   5.791   7.108 -0.2628  0.3121 -0.0645
12587SOL    HW145001  11.132   5.773   7.081 -0.0867  1.3923 -0.2327
12587SOL    HW245002  11.037   5.759   7.198 -0.1634 -1.1482 -0.5567
12588SOL     OW45003   2.449  11.216   3.819  0.3683 -0.2029  0.5978
12588SOL    HW145004   2.540  11.245   3.829  0.8828 -1.0313 -1.2378
12588SOL    HW245005   2.456  11.125   3.792 -0.9410  0.0879 -0.8591
12589SOL     OW45006   6.968   7.055  11.562  0.0161  0.7351 -0.1987
12589SOL    HW145007   7.033   7.087  11.625 -0.9547  0.8323  0.7818
12589SOL    HW245008   6.916   6.991  11.611 -0.9627  1.0501 -0.7967
12590SOL     OW45009   1.721   1.816   1.643 -0.1042  0.0253 -0.3262
12590SOL    HW145010   1.689   1.768   1.567  0.8817 -2.3934  0.6824
12590SOL    HW245011   1.814   1.828   1.626 -0.0227  0.1219  0.1781
12591SOL     OW45012   0.112   4.161   0.273 -0.0310 -0.6288 -0.1401
12591SOL    HW145013   0.116   4.149   0.368 -0.0483 -0.3565 -0.1041
12591SOL    HW245014   0.024   4.195   0.256 -0.5920 -2.1788 -0.4264
12592SOL     OW45015   4.504   6.597   5.105  0.0686 -0.5065 -0.1295
12592SOL    HW145016   4.572   6.533   5.122 -0.3249 -0.8929  0.0000
12592SOL    HW245017   4.449   6.557   5.038  0.1796 -0.0399 -0.5037
12593SOL     OW45018   9.112   4.661   4.688  0.2814  0.3582 -0.1491
12593SOL    HW145019   9.145   4.576   4.717 -1.1110 -0.3310 -0.4579
12593SOL    HW245020   9.116   4.657   4.592  1.9429  1.3980 -0.1591
12594SOL     OW45021   5.220   8.373  12.033 -0.1090  0.0353 -0.3119
12594SOL    HW145022   5.198   8.337  11.947  1.6874  2.6682 -2.0264
12594SOL    HW245023   5.147   8.432  12.053 -0.6927 -0.8318  0.1721
12595SOL     OW45024   4.611  12.611   0.783  0.4756 -0.0495  0.3250
12595SOL    HW145025   4.524  12.652   0.785  0.4879  0.1988 -1.7770
12595SOL    HW245026   4.672  12.684   0.797  0.3873 -0.0080  0.4981
12596SOL     OW45027   1.229   5.623   0.714 -0.4027 -0.5431 -0.3898
12596SOL    HW145028   1.193   5.586   0.795  0.9186  2.4323  1.7129
12596SOL    HW245029   1.183   5.706   0.702  1.3680  0.4022 -1.0750
12597SOL     OW45030   9.104   2.721   7.803 -1.3185  0.0771 -0.1164
12597SOL    HW145031   9.123   2.796   7.747  0.9561 -0.8520 -0.6916
12597SOL    HW245032   9.174   2.720   7.868 -2.1447 -0.7084  0.8044
12598SOL     OW45033   9.459  11.460   6.834  0.4195  0.2097 -0.4807
12598SOL    HW145034   9.398  11.454   6.761  0.6903  0.7814 -0.7573
12598SOL    HW245035   9.442  11.547   6.872  3.6890  2.1790 -2.9453
12599SOL     OW45036   2.406   4.126   6.455 -0.4841  0.2584  0.1635
12599SOL    HW145037   2.380   4.062   6.522  0.0248 -2.0710 -1.7165
12599SOL    HW245038   2.341   4.116   6.386  0.1593  1.1119 -0.5852
12600SOL     OW45039  10.591   0.896  11.750 -0.3739 -0.0836  0.5169
12600SOL    HW145040  10.577   0.821  11.808  2.6134 -0.2917  1.1091
12600SOL    HW245041  10.547   0.872  11.669 -0.5239 -1.9464  1.1101
12601SOL     OW45042   4.954   9.499   9.383 -0.1065  0.4093 -0.9137
12601SOL    HW145043   4.996   9.584   9.397  4.2684 -1.6180 -0.0921
12601SOL    HW245044   4.983   9.445   9.457 -1.3699 -2.2426 -2.2098
12602SOL     OW45045  11.212  10.299   2.155  0.5356 -0.1488  0.2225
12602SOL    HW145046  11.213  10.287   2.250 -0.4901  1.1650  0.4327
12602SOL    HW245047  11.119  10.292   2.131  0.8407 -1.0622 -0.7874
12603SOL     OW45048   1.163   0.891   4.374 -0.2175  0.1830 -0.4174
12603SOL    HW145049   1.180   0.983   4.352 -0.4970  0.3376  0.0074
12603SOL    HW245050   1.146   0.849   4.290 -0.3927  0.5854 -0.5859
12604SOL     OW45051   0.239   8.918  12.458 -0.1555 -0.8808 -0.5819
12604SOL    HW145052   0.290   8.963  12.390  0.4883  0.7271  0.8744
12604SOL    HW245053   0.152   8.909  12.421  0.0386  0.4651 -1.4317
12605SOL     OW45054   4.288   1.387  11.768 -0.3344 -0.3921  0.0869
12605SOL    HW145055   4.379   1.361  11.753 -0.0178  1.6570 -2.2327
12605SOL    HW245056   4.244   1.369  11.685 -1.5975  0.3423  0.5671
12606SOL     OW45057   9.182   4.197  12.015 -0.0547 -0.0980 -0.2015
12606SOL    HW145058   9.276   4.213  12.005 -0.2671  0.7572 -0.9668
12606SOL    HW245059   9.155   4.256  12.085 -0.0786 -0.1107 -0.2003
12607SOL     OW45060   2.978   0.504   4.593 -0.2076  0.3888 -0.4352
12607SOL    HW145061   2.927   0.570   4.546  1.1561  1.9187  0.1112
12607SOL    HW245062   3.069   0.527   4.574  0.3128 -1.5202 -0.4278
12608SOL     OW45063   4.189   8.274   7.444  0.4628 -0.0403 -0.2128
12608SOL    HW145064   4.098   8.249   7.426 -0.9232  1.3943  3.7554
12608SOL    HW245065   4.185   8.368   7.458  2.5250  0.0043  0.3650
12609SOL     OW45066   6.412  11.958  12.621  0.2685 -0.0659  0.4528
12609SOL    HW145067   6.354  11.970  12.696  1.1910  0.6548  1.0703
12609SOL    HW245068   6.414  11.864  12.607 -1.1566 -0.1010  0.3183
12610SOL     OW45069   6.220   7.584  11.088 -0.4146 -0.0038 -0.2825
12610SOL    HW145070   6.249   7.668  11.052  0.1752 -0.1255 -0.1025
12610SOL    HW245071   6.244   7.519  11.022 -0.4817 -0.0801 -0.2320
12611SOL     OW45072   1.877   7.733   9.125  0.3629  0.4334 -0.1039
12611SOL    HW145073   1.938   7.718   9.197 -0.7437 -2.0190  0.4213
12611SOL    HW245074   1.892   7.661   9.064  0.0921  1.5175 -1.5296
12612SOL     OW45075  10.201   8.975   2.857 -0.0684  0.3080  0.2263
12612SOL    HW145076  10.266   9.011   2.918  0.5482 -0.8858  0.3027
12612SOL    HW245077  10.232   8.886   2.839 -0.8659  0.2516 -0.9439
12613SOL     OW45078   4.948  12.150  11.351  0.3070 -0.5607  0.6905
12613SOL    HW145079   4.858  12.119  11.350  0.1932 -0.3768  2.2897
12613SOL    HW245080   4.964  12.181  11.262 -1.3983 -0.0677  0.5177
12614SOL     OW45081  10.188   9.774   6.884 -0.6559  0.2664 -0.5171
12614SOL    HW145082  10.157   9.862   6.861 -3.5213 -0.2879  0.7758
12614SOL    HW245083  10.112   9.732   6.924  1.0748 -2.3032  0.2967
12615SOL     OW45084   9.340   2.501   1.729  0.1834 -0.1198  0.2200
12615SOL    HW145085   9.353   2.538   1.642  0.1200 -0.5168  0.0435
12615SOL    HW245086   9.428   2.496   1.766  0.2088  0.0590  0.1836
12616SOL     OW45087   0.094   4.480   4.073 -0.4799 -0.3932  0.6276
12616SOL    HW145088   0.002   4.491   4.052 -0.2926  0.0017 -0.0171
12616SOL    HW245089   0.101   4.391   4.108 -0.9476 -0.7737 -0.2198
12617SOL     OW45090   8.080  12.691   2.777 -0.2113  0.2482 -0.7792
12617SOL    HW145091   8.060  12.635   2.852  1.4363  1.8817  1.0089
12617SOL    HW245092   8.051  12.778   2.804  1.7404  1.1385 -1.3845
12618SOL     OW45093   3.578   3.156   5.995  0.1371  0.1409 -0.0893
12618SOL    HW145094   3.576   3.105   6.076 -1.3678 -0.7353 -0.6248
12618SOL    HW245095   3.637   3.229   6.013 -0.4037  0.1413  1.9082
12619SOL     OW45096   8.232  11.340   9.720 -0.3626 -0.1644 -0.4684
12619SOL    HW145097   8.285  11.418   9.706 -0.6840  0.3472  1.0190
12619SOL    HW245098   8.294  11.267   9.715  0.0592  0.2381 -1.1403
12620SOL     OW45099   4.863   1.447   2.128  0.8223 -0.2040  0.0573
12620SOL    HW145100   4.874   1.389   2.053  0.5566 -0.8058  0.4813
12620SOL    HW245101   4.907   1.528   2.101  0.5684 -0.3452 -0.8163
12621SOL     OW45102   6.264   3.142   6.382 -0.3435  0.2105 -0.3678
12621SOL    HW145103   6.341   3.196   6.363 -0.9457  1.3627  0.3134
12621SOL    HW245104   6.190   3.197   6.356 -0.9951 -0.1320  0.7010
12622SOL     OW45105   5.389   1.604   8.771 -0.0214  0.6363 -0.2374
12622SOL    HW145106   5.471   1.571   8.733 -0.1170  0.5308 -0.3512
12622SOL    HW245107   5.405   1.604   8.865 -0.6553 -1.4985 -0.0768
12623SOL     OW45108   9.916   6.285   0.371 -0.3967  0.3509  1.3710
12623SOL    HW145109   9.859   6.295   0.295  0.3460 -0.7783  0.6352
12623SOL    HW245110   9.939   6.374   0.397 -0.6083  0.7465  0.2351
12624SOL     OW45111   0.895  12.003   5.628  0.4521 -0.1326 -0.1437
12624SOL    HW145112   0.892  11.929   5.567 -1.5476 -0.0351 -0.2125
12624SOL    HW245113   0.971  11.985   5.683 -0.1966 -2.4853  0.1054
12625SOL     OW45114   5.561  10.938   7.650 -0.2428 -0.6308  0.2811
12625SOL    HW145115   5.577  11.032   7.637  0.9043 -0.9490 -0.9097
12625SOL    HW245116   5.603  10.917   7.733 -1.3108  0.0791  1.0142
12626SOL     OW45117  10.073  11.041   1.852  0.4483  0.0998  0.1021
12626SOL    HW145118  10.034  11.070   1.934 -0.8572 -0.8191 -0.1485
12626SOL    HW245119  10.036  11.099   1.786  0.3765 -0.0609 -0.0006
12627SOL     OW45120   8.012   2.440   5.893 -0.1212 -0.5453 -0.2426
12627SOL    HW145121   8.084   2.400   5.942 -1.3556 -1.6785  0.7211
12627SOL    HW245122   8.053   2.510   5.843  1.7576 -1.5640 -0.2235
12628SOL     OW45123   0.471   1.563   5.720 -0.4496  0.1396 -0.0669
12628SOL    HW145124   0.439   1.492   5.777  0.0630  0.3459  0.4925
12628SOL    HW245125   0.414   1.560   5.644 -1.6294  0.3223  0.7783
12629SOL     OW45126   2.070   9.151   4.625  0.6172  0.0965 -1.2745
12629SOL    HW145127   2.040   9.067   4.661 -1.6459 -0.8358 -4.7928
12629SOL    HW245128   1.992   9.206   4.625  1.8867  2.0485  0.2108
12630SOL     OW45129  11.489  10.530   3.428  0.2181  0.1599 -0.3469
12630SOL    HW145130  11.409  10.558   3.472  0.6288 -0.9248  1.1606
12630SOL    HW245131  11.555  10.528   3.497  0.7087 -2.3789 -0.7903
12631SOL     OW45132   0.659   8.449   9.770  0.7099 -0.1321 -0.1383
12631SOL    HW145133   0.572   8.418   9.794  0.2621  0.8011 -0.5360
12631SOL    HW245134   0.648   8.488   9.683  0.8648  2.7037  1.0272
12632SOL     OW45135   8.247   1.346  11.462  0.1359 -0.2927  0.0622
12632SOL    HW145136   8.270   1.432  11.498 -1.7178  0.2535  0.0801
12632SOL    HW245137   8.288   1.344  11.376  0.1170  0.6696  0.0231
12633SOL     OW45138   3.465  11.434  11.773  0.0204 -0.0843  0.1188
12633SOL    HW145139   3.444  11.444  11.680 -0.2782 -2.4985 -0.1543
12633SOL    HW245140   3.543  11.378  11.774 -0.5513 -0.9229  1.3053
12634SOL     OW45141  11.591   9.122   0.582  0.1609  0.5416 -0.7362
12634SOL    HW145142  11.652   9.152   0.515  1.4941  1.2362  0.7284
12634SOL    HW245143  11.646   9.103   0.658 -1.3025 -0.1660  0.1983
12635SOL     OW45144   0.332  10.612  11.425  0.6661 -0.3369 -0.3000
12635SOL    HW145145   0.368  10.687  11.377  0.1778 -0.1040 -0.3037
12635SOL    HW245146   0.276  10.567  11.362 -0.8841  0.6109  0.3528
12636SOL     OW45147  11.004   9.978   1.589  0.0294 -0.7750  0.0379
12636SOL    HW145148  11.041   9.948   1.672 -0.5084  1.1900  1.0393
12636SOL    HW245149  10.913   9.999   1.609 -1.0426 -3.1826 -1.8249
12637SOL     OW45150  10.205   1.615   8.793  0.0490  0.0396  0.2126
12637SOL    HW145151  10.174   1.633   8.704 -2.8972  1.0170  1.3189
12637SOL    HW245152  10.291   1.574   8.781 -0.9940 -1.4922 -3.1169
12638SOL     OW45153   8.486   3.663   1.224 -0.3449 -0.4295  0.0402
12638SOL    HW145154   8.403   3.711   1.217 -0.0001  0.1320 -0.3212
12638SOL    HW245155   8.470   3.581   1.177 -1.0397 -0.8179  0.9364
12639SOL     OW45156   9.787  10.080   4.349 -0.4865  0.0431  0.2677
12639SOL    HW145157   9.725  10.153   4.361  0.3441  0.8957 -0.4676
12639SOL    HW245158   9.810  10.054   4.438  0.0399  1.4372  0.5785
12640SOL     OW45159   4.206   0.876   6.900 -0.1215  0.3293 -0.1457
12640SOL    HW145160   4.254   0.901   6.980  0.5658  1.6954 -0.9541
12640SOL    HW245161   4.115   0.870   6.928  0.3947 -1.8994  1.3317
12641SOL     OW45162  11.268   8.721   5.043 -0.4121  0.0350  1.4131
12641SOL    HW145163  11.228   8.640   5.013 -0.3021 -0.0515  1.5025
12641SOL    HW245164  11.358   8.698   5.065  0.4271  0.7240 -1.0672
12642SOL     OW45165   1.442   4.992   5.408 -0.0507  0.2165 -0.1270
12642SOL    HW145166   1.493   4.912   5.399  0.9690  0.5774  1.7357
12642SOL    HW245167   1.490   5.057   5.357  1.3979  0.5303  1.5327
12643SOL     OW45168  11.941   5.875   6.555  0.1767 -0.1991  0.3383
12643SOL    HW145169  11.981   5.874   6.468  0.2400 -1.2298  0.3712
12643SOL    HW245170  12.010   5.842   6.613 -0.1494 -0.3301  0.6510
12644SOL     OW45171   4.864   5.178   4.688  0.1329 -0.2926 -0.1868
12644SOL    HW145172   4.805   5.160   4.614 -2.0168  1.0218  1.1157
12644SOL    HW245173   4.815   5.152   4.765  1.8936 -0.5647  0.9078
12645SOL     OW45174   1.464  11.139  11.412  0.3627  0.1716  0.5471
12645SOL    HW145175   1.532  11.140  11.344  0.3026  4.3786  0.2895
12645SOL    HW245176   1.386  11.108  11.367  1.1054 -0.4468 -0.3517
12646SOL     OW45177   4.482   1.818   7.838  0.2435 -1.0132 -0.4786
12646SOL    HW145178   4.499   1.778   7.923 -0.2164 -1.0110 -0.3841
12646SOL    HW245179   4.564   1.807   7.790  1.0372  0.3732  0.5041
12647SOL     OW45180   5.888   0.541   5.015  0.0303  0.5261 -0.0839
12647SOL    HW145181   5.901   0.558   4.921  0.3415  0.2049 -0.1011
12647SOL    HW245182   5.910   0.449   5.026 -1.0265  0.2922  0.1264
12648SOL     OW45183   0.207   4.861   2.645  0.1655  0.3268  0.5277
12648SOL    HW145184   0.191   4.767   2.636 -0.2085  0.4273  0.1182
12648SOL    HW245185   0.298   4.873   2.621 -0.2885  0.3284 -1.3328
12649SOL     OW45186  12.530   4.942   5.901  0.2921 -0.1796 -0.5868
12649SOL    HW145187  12.571   4.889   5.832  0.1269 -0.5028 -0.4393
12649SOL    HW245188  12.518   5.028   5.861  1.1661 -0.0577 -0.6161
12650SOL     OW45189  11.238   9.605  12.248 -0.3045  0.0860  0.2616
12650SOL    HW145190  11.185   9.527  12.255 -1.3510  0.7131 -0.4091
12650SOL    HW245191  11.213   9.659  12.323  2.2392 -1.2286  2.2026
12651SOL     OW45192   1.193   0.129   5.347 -0.3016  0.0629  0.5168
12651SOL    HW145193   1.253   0.159   5.415 -0.5406  2.1969 -0.1301
12651SOL    HW245194   1.232   0.160   5.265 -0.6156 -1.4429 -0.2535
12652SOL     OW45195   4.201   7.285   3.381 -0.6810 -0.2832  0.0878
12652SOL    HW145196   4.260   7.360   3.371 -0.3504 -0.7962 -2.3940
12652SOL    HW245197   4.145   7.309   3.455  1.3345  1.0744  1.2835
12653SOL     OW45198   5.858  12.483  11.731  0.7428 -0.6170 -0.7574
12653SOL    HW145199   5.883  12.575  11.718 -2.7316  0.5776  0.1084
12653SOL    HW245200   5.930  12.446  11.781  2.4789  1.4801 -1.5272
12654SOL     OW45201   2.808   0.880  11.135  0.2781 -0.5120 -0.0071
12654SOL    HW145202   2.898   0.893  11.106  0.6138  0.6335  1.4091
12654SOL    HW245203   2.814   0.869  11.230 -1.1636  1.0910  0.3332
12655SOL     OW45204  11.271  11.193   0.547 -1.0452  0.4089 -0.0040
12655SOL    HW145205  11.329  11.134   0.498 -2.7026  0.1528 -1.7541
12655SOL    HW245206  11.246  11.143   0.625  0.2226  0.1404  0.2578
12656SOL     OW45207   0.680   5.471   8.142  0.1036 -0.6001 -0.4989
12656SOL    HW145208   0.664   5.451   8.050  2.9475 -1.9020 -0.8172
12656SOL    HW245209   0.733   5.398   8.174  0.4995  0.5858  1.7656
12657SOL     OW45210   2.824   1.573   4.482  0.4713 -0.1737 -0.4873
12657SOL    HW145211   2.884   1.608   4.548  0.5461  0.0035 -0.6496
12657SOL    HW245212   2.782   1.649   4.443 -0.8354 -0.3537  0.5254
12658SOL     OW45213   5.219   0.337   0.032 -0.3131  0.0796  0.6177
12658SOL    HW145214   5.162   0.398  -0.014 -1.5496 -1.6397 -0.2713
12658SOL    HW245215   5.288   0.316  -0.031  0.4972  1.0443  1.1657
12659SOL     OW45216   9.089  11.269   6.147  0.0008  0.0432  0.0781
12659SOL    HW145217   9.177  11.235   6.159 -0.4327 -1.2926 -0.3789
12659SOL    HW245218   9.073  11.263   6.053 -0.5539  0.3566  0.1446
12660SOL     OW45219  10.445   9.877   6.943  0.0416  0.3644  0.4015
12660SOL    HW145220  10.502   9.814   6.987  0.6239  2.2574  2.5673
12660SOL    HW245221  10.361   9.833   6.934  0.4968 -0.8084  1.6159
12661SOL     OW45222  10.618   5.547  12.539 -0.5599 -0.9474  0.1500
12661SOL    HW145223  10.606   5.619  12.600  1.0117 -0.0876 -0.5082
12661SOL    HW245224  10.645   5.473  12.593 -0.0004 -0.4305  0.5812
12662SOL     OW45225   1.774   4.998  10.528 -0.1347  0.6249 -0.2955
12662SOL    HW145226   1.800   4.907  10.521  0.8532  0.8894 -0.2743
12662SOL    HW245227   1.702   4.998  10.591  1.3913  0.1158  1.5695
12663SOL     OW45228   9.986   0.770  11.557  0.9042 -0.0853  0.6086
12663SOL    HW145229   9.935   0.708  11.506  2.4050  0.9950 -2.5073
12663SOL    HW245230  10.066   0.722  11.582  0.7545 -0.2319  0.8102
12664SOL     OW45231   8.147   9.623   0.460  0.5264  0.7289  0.2319
12664SOL    HW145232   8.119   9.714   0.450 -2.8859 -0.3038 -0.8241
12664SOL    HW245233   8.128   9.602   0.552  1.4604  1.0699  0.5186
12665SOL     OW45234   8.683  10.953   3.701 -0.2977  0.2771 -0.2069
12665SOL    HW145235   8.745  11.020   3.731 -0.1169  0.2999 -0.6276
12665SOL    HW245236   8.643  10.921   3.782  0.6669 -0.1354  0.1266
12666SOL     OW45237   6.372   5.622   5.230  0.1844 -0.1473 -0.2625
12666SOL    HW145238   6.312   5.569   5.284  0.4425  1.5965  1.8777
12666SOL    HW245239   6.440   5.650   5.291  1.0381  1.1547 -1.7471
12667SOL     OW45240   3.066  10.933   3.235  0.4156  0.1161 -0.8517
12667SOL    HW145241   3.106  11.010   3.276  1.1761 -2.1469  3.1026
12667SOL    HW245242   3.132  10.902   3.172  1.2758  1.1074 -0.4688
12668SOL     OW45243   1.902   0.054   7.560 -0.0312  0.1955  0.2080
12668SOL    HW145244   1.814   0.019   7.574  0.5217 -0.2835  3.0645
12668SOL    HW245245   1.947  -0.013   7.508 -0.8302 -0.4098  0.2785
12669SOL     OW45246   0.515   3.647   1.874 -0.1027 -0.1482 -0.6168
12669SOL    HW145247   0.583   3.607   1.821  0.7591 -1.2634  1.2453
12669SOL    HW245248   0.556   3.664   1.959 -0.9987  2.9069 -0.6452
12670SOL     OW45249  11.138   3.850   1.958 -0.1387 -0.1816 -0.2489
12670SOL    HW145250  11.160   3.765   1.996  0.0210  0.0547  0.1933
12670SOL    HW245251  11.085   3.894   2.025 -1.5010 -0.5125 -1.0735
12671SOL     OW45252   4.423  12.268   0.193  0.3472  0.3474 -0.1208
12671SOL    HW145253   4.410  12.239   0.283 -2.8069 -1.5045 -1.0017
12671SOL    HW245254   4.337  12.300   0.166  0.9512 -0.0211 -2.7447
12672SOL     OW45255   8.753  10.942   1.936 -0.7444 -0.4378 -0.2547
12672SOL    HW145256   8.704  10.869   1.974  0.6966 -0.8971  0.7907
12672SOL    HW245257   8.687  10.994   1.890 -2.3574 -0.6101  1.7403
12673SOL     OW45258   6.098  11.835  10.659  0.2456  0.2427 -0.1607
12673SOL    HW145259   6.126  11.923  10.683 -0.0887  0.0306  1.0633
12673SOL    HW245260   6.013  11.823  10.703  0.9928 -1.2263  0.9919
12674SOL     OW45261   9.447   1.669  10.909 -0.4620 -0.3051 -0.0561
12674SOL    HW145262   9.414   1.757  10.888  2.3911  0.5723 -1.3198
12674SOL    HW245263   9.459   1.628  10.823 -1.6340 -1.9543  0.5182
12675SOL     OW45264  10.550   7.061  10.899 -0.5650 -0.5483 -0.5332
12675SOL    HW145265  10.533   6.995  10.966 -3.0353 -0.3173 -0.8192
12675SOL    HW245266  10.538   7.145  10.943  0.0987 -0.3459 -0.7329
12676SOL     OW45267   9.723   3.469   1.580  0.4875  0.0313  0.2562
12676SOL    HW145268   9.742   3.496   1.490  0.6225  1.3852  0.6678
12676SOL    HW245269   9.767   3.535   1.634 -0.6698 -0.0261  1.2963
12677SOL     OW45270   0.956  10.704   1.906  0.4741  0.1749  0.1054
12677SOL    HW145271   0.969  10.639   1.837  1.3589  2.0655 -1.6181
12677SOL    HW245272   1.044  10.737   1.925 -0.0149  1.3590  0.4045
12678SOL     OW45273   6.484   0.284  10.171  0.5766 -0.2482 -0.3858
12678SOL    HW145274   6.444   0.318  10.251 -0.4181  1.4831 -1.5553
12678SOL    HW245275   6.411   0.244  10.123 -0.0578  3.2345 -2.6954
12679SOL     OW45276  11.459  12.424   8.260  0.2828  0.3221 -0.1130
12679SOL    HW145277  11.375  12.389   8.230  0.8653 -1.3998  0.2040
12679SOL    HW245278  11.444  12.519   8.265 -1.5345  0.0874 -0.3636
12680SOL     OW45279   0.796  11.874   2.607 -0.0899 -0.5000 -0.8128
12680SOL    HW145280   0.778  11.802   2.667  1.3940 -0.1962  0.0415
12680SOL    HW245281   0.798  11.952   2.663 -0.2519  0.0041 -1.5013
12681SOL     OW45282   1.101  10.495  10.645  0.6184  0.2102 -0.5407
12681SOL    HW145283   1.040  10.448  10.588 -0.3068 -0.2844  0.7915
12681SOL    HW245284   1.053  10.573  10.672  1.2240  0.6779 -0.8127
12682SOL     OW45285   4.231   9.862   1.921 -0.8069  0.4242 -0.6355
12682SOL    HW145286   4.232   9.861   2.016 -1.0004  1.6521 -0.5971
12682SOL    HW245287   4.321   9.841   1.896 -0.5349  0.9645 -0.1477
12683SOL     OW45288   8.819   2.344   0.609  0.1858  0.6972 -0.1567
12683SOL    HW145289   8.885   2.413   0.609  0.4203  0.5287  1.7823
12683SOL    HW245290   8.853   2.279   0.546  0.7974  1.5637 -0.7465
12684SOL     OW45291  10.637   9.489   9.620 -0.0402  0.2050  0.1240
12684SOL    HW145292  10.559   9.491   9.675 -0.9401  1.7303 -1.1235
12684SOL    HW245293  10.694   9.557   9.656  0.3481 -0.3110  0.5004
12685SOL     OW45294   3.664   4.476   0.162  0.5988  0.0897  0.2459
12685SOL    HW145295   3.646   4.567   0.138  0.8627 -0.5561 -2.6724
12685SOL    HW245296   3.759   4.474   0.178  0.5114  0.4014  0.8521
12686SOL     OW45297   1.310   7.619   6.748 -0.2644  0.4538 -0.2504
12686SOL    HW145298   1.276   7.560   6.681  0.5783 -1.2874  0.7615
12686SOL    HW245299   1.319   7.563   6.826  1.7128  1.6235  0.4359
12687SOL     OW45300  11.403   6.775   7.540  0.1717  0.6754 -0.2410
12687SOL    HW145301  11.474   6.726   7.497  0.7433 -0.5411  1.9620
12687SOL    HW245302  11.433   6.787   7.630 -1.8394  1.3770  0.3818
12688SOL     OW45303  10.113   5.014   4.471  0.2243  0.3625 -0.0313
12688SOL    HW145304  10.140   5.095   4.514 -0.4549  0.4313  0.2791
12688SOL    HW245305  10.168   5.009   4.392  0.8786  0.6694  0.4014
12689SOL     OW45306   2.519   0.222   1.106 -0.2315 -0.0346 -0.3851
12689SOL    HW145307   2.465   0.216   1.028  0.3800  0.0328 -0.8277
12689SOL    HW245308   2.481   0.293   1.157 -1.1038 -0.5891 -0.2366
12690SOL     OW45309   1.565   9.225  12.080  0.2831  0.2809  0.2546
12690SOL    HW145310   1.622   9.150  12.097  0.3567  0.7048  2.1395
12690SOL    HW245311   1.558   9.270  12.165 -1.2319  1.3773 -0.3954
12691SOL     OW45312  11.759  10.344   8.290 -0.1489  0.1917  0.3316
12691SOL    HW145313  11.687  10.288   8.320 -0.3653  1.0232  1.4616
12691SOL    HW245314  11.765  10.412   8.357  0.0887  1.5370 -0.9962
12692SOL     OW45315   2.289   6.553   4.770  0.3281  0.2478  0.8971
12692SOL    HW145316   2.204   6.596   4.772  0.4497  0.5206  0.4095
12692SOL    HW245317   2.288   6.502   4.689  1.7722  2.6919 -0.8076
12693SOL     OW45318  11.749  10.513   4.797  0.3213 -0.3713 -0.6793
12693SOL    HW145319  11.721  10.556   4.716 -0.2436  1.8818  0.6157
12693SOL    HW245320  11.730  10.577   4.865  1.1672 -2.0323  1.2078
12694SOL     OW45321   4.354   1.065   4.067  0.3516  0.2768  0.0507
12694SOL    HW145322   4.425   1.110   4.021 -2.1717  3.2910 -1.2887
12694SOL    HW245323   4.379   1.067   4.159  1.7763  1.7667 -0.3219
12695SOL     OW45324   4.536   4.484  12.377  0.0041  0.2715 -0.7100
12695SOL    HW145325   4.631   4.486  12.369 -0.1769  1.7577 -3.5207
12695SOL    HW245326   4.506   4.443  12.296 -1.7977  2.1166 -1.0420
12696SOL     OW45327   6.796   7.115   1.111  0.3073  0.1924 -0.0111
12696SOL    HW145328   6.763   7.040   1.062 -2.4826  1.1093  0.2865
12696SOL    HW245329   6.863   7.154   1.054  0.8270 -1.6862 -0.7549
12697SOL     OW45330  10.560   4.330   7.314  0.1257  0.5897  0.6131
12697SOL    HW145331  10.611   4.261   7.272  0.7335  1.7944 -0.6958
12697SOL    HW245332  10.618   4.367   7.380 -0.4751 -0.6322  1.8643
12698SOL     OW45333   2.278   5.261  10.210  0.0361 -0.6632 -0.2591
12698SOL    HW145334   2.250   5.294  10.125  0.4549 -0.3438 -0.2768
12698SOL    HW245335   2.211   5.291  10.271  0.1355 -0.2346 -0.3594
12699SOL     OW45336  11.924   4.084   2.537 -0.5985  0.1042 -0.0110
12699SOL    HW145337  11.978   4.097   2.459 -1.0228  0.2152 -0.2930
12699SOL    HW245338  11.834   4.092   2.505 -0.8156 -0.9166  0.2948
12700SOL     OW45339   9.133   6.410   6.156  0.1950  0.0210  0.1922
12700SOL    HW145340   9.062   6.467   6.125  0.9724  1.5189  1.0910
12700SOL    HW245341   9.106   6.384   6.244 -0.3891 -1.4601 -0.3909
12701SOL     OW45342   9.069   3.830   0.739  0.1329  0.2810 -0.8187
12701SOL    HW145343   9.146   3.797   0.784 -2.0055 -0.9429  2.3347
12701SOL    HW245344   9.051   3.915   0.780 -0.7506  0.0523 -0.6901
12702SOL     OW45345   6.025   3.072   0.251 -0.2953  0.3580  0.6512
12702SOL    HW145346   6.028   3.010   0.323  0.4817  1.8434  1.9680
12702SOL    HW245347   6.114   3.073   0.216  0.8955  3.5213  3.2503
12703SOL     OW45348   6.524   5.845   1.774 -0.1409 -0.1289 -0.0251
12703SOL    HW145349   6.548   5.892   1.694 -2.5834 -0.3269 -0.9438
12703SOL    HW245350   6.510   5.913   1.839  1.8065  0.0377  0.2816
12704SOL     OW45351   7.909   1.000   4.840 -0.1002  1.0937  0.4517
12704SOL    HW145352   7.905   0.915   4.797 -0.0751  0.9743  0.6833
12704SOL    HW245353   7.911   1.063   4.768 -0.1837  0.9019  0.2799
12705SOL     OW45354   5.375   5.520   8.404  0.4147  0.0378 -0.1813
12705SOL    HW145355   5.449   5.483   8.355 -0.2233  0.1241 -1.2343
12705SOL    HW245356   5.320   5.561   8.338 -0.0221  0.9583  0.7160
12706SOL     OW45357  11.814  11.115   7.268  0.6464 -0.6088 -0.5390
12706SOL    HW145358  11.836  11.175   7.339 -0.4400 -0.7013 -0.1050
12706SOL    HW245359  11.802  11.172   7.191 -0.1816 -0.2906 -0.1773
12707SOL     OW45360  10.459   9.927   1.142  0.6492 -0.3307  0.0832
12707SOL    HW145361  10.544   9.971   1.134  0.6143 -0.0151  1.3597
12707SOL    HW245362  10.462   9.881   1.226 -1.1145  1.2264  1.0786
12708SOL     OW45363  11.199   4.776  10.610  0.1266 -0.7238  0.6102
12708SOL    HW145364  11.238   4.860  10.631  0.7243 -0.3921 -1.6036
12708SOL    HW245365  11.272   4.714  10.612  0.5912 -0.3769 -1.9624
12709SOL     OW45366   9.870   8.955   5.987 -0.2414  0.0980 -0.5567
12709SOL    HW145367   9.796   8.991   6.036  0.1829  0.2378 -0.0037
12709SOL    HW245368   9.844   8.963   5.895 -2.4802 -3.1944 -0.3942
12710SOL     OW45369   1.175  12.289   8.142  0.8373 -0.6160 -0.0380
12710SOL    HW145370   1.231  12.219   8.176  0.8737 -0.5890 -0.0412
12710SOL    HW245371   1.099  12.244   8.106 -0.2580 -0.5210  2.0505
12711SOL     OW45372   7.143  10.844   4.084 -0.2500  0.2023  0.1495
12711SOL    HW145373   7.225  10.802   4.056  0.5420  1.7084  0.1008
12711SOL    HW245374   7.115  10.894   4.008 -0.3862  0.9094  0.6570
12712SOL     OW45375   3.705   3.224   5.693 -0.4693  0.4559 -0.1748
12712SOL    HW145376   3.687   3.287   5.763 -0.9987 -1.0144  1.0744
12712SOL    HW245377   3.800   3.230   5.680 -0.4705  1.2984  0.1160
12713SOL     OW45378   5.489   2.111   0.397 -0.0202 -0.6727 -0.1052
12713SOL    HW145379   5.524   2.187   0.444 -0.9973  0.4715 -1.1568
12713SOL    HW245380   5.559   2.086   0.337  0.5915 -1.1008  0.7536
12714SOL     OW45381   7.375   1.818   3.084 -0.1822 -0.5138 -0.4158
12714SOL    HW145382   7.364   1.753   3.014 -0.4574 -0.7762 -0.1326
12714SOL    HW245383   7.469   1.822   3.099 -0.2868 -2.4119  1.0149
12715SOL     OW45384   6.410   2.386   5.910 -0.0965 -0.4007 -0.4303
12715SOL    HW145385   6.457   2.306   5.886 -0.0135 -0.5507  0.2034
12715SOL    HW245386   6.327   2.356   5.945 -0.4459 -0.1587 -1.0475
12716SOL     OW45387   2.581   7.838   2.770  0.7349  0.0136 -0.8244
12716SOL    HW145388   2.515   7.780   2.808 -0.4977  0.6495 -1.9023
12716SOL    HW245389   2.656   7.781   2.751  0.4654 -0.7472  0.3120
12717SOL     OW45390  10.009   2.522   9.802 -0.2501  0.1063  0.5215
12717SOL    HW145391   9.932   2.577   9.814 -1.7738 -1.7628 -0.2448
12717SOL    HW245392  10.071   2.578   9.756 -2.0183  0.9813 -0.9172
12718SOL     OW45393   2.331  10.853   7.100 -0.2793 -0.3574 -0.3355
12718SOL    HW145394   2.262  10.808   7.051 -1.3692 -0.8377  1.5373
12718SOL    HW245395   2.306  10.842   7.191  0.1561  2.9201  0.2793
12719SOL     OW45396   8.951  12.259   7.432  0.1746  0.1083 -0.6370
12719SOL    HW145397   8.882  12.321   7.455  0.3557 -0.4568  1.6746
12719SOL    HW245398   8.909  12.197   7.372 -1.0488  0.3731 -0.0874
12720SOL     OW45399   3.000  11.227   1.679 -0.3376  0.3330 -0.7088
12720SOL    HW145400   2.914  11.264   1.702 -0.2565 -1.7327  4.1677
12720SOL    HW245401   2.981  11.137   1.653  0.1834  1.0743 -4.1777
12721SOL     OW45402  10.119  12.259   0.536 -0.8705 -0.0635 -0.0878
12721SOL    HW145403  10.092  12.298   0.453 -1.1827  0.5209  0.2809
12721SOL    HW245404  10.146  12.334   0.590 -2.5379 -0.2184  1.0347
12722SOL     OW45405   9.323  10.763   7.338  0.0738 -0.3445 -0.1026
12722SOL    HW145406   9.350  10.734   7.425 -2.0702 -1.1825  0.3495
12722SOL    HW245407   9.273  10.844   7.354 -0.7452 -0.7626 -0.4701
12723SOL     OW45408   4.216   6.764  10.052 -0.4225 -1.0413 -0.5887
12723SOL    HW145409   4.190   6.851  10.085 -0.5248 -1.3486  0.1791
12723SOL    HW245410   4.274   6.782   9.979  0.4746 -0.3015  0.2823
12724SOL     OW45411   9.739   1.162  11.757 -0.6027 -0.6257  0.0127
12724SOL    HW145412   9.738   1.191  11.849  1.2064 -0.9069  0.1449
12724SOL    HW245413   9.788   1.080  11.758 -1.7603 -1.3701 -1.0323
12725SOL     OW45414   2.951   0.592  12.633 -0.3532 -0.5326 -0.4143
12725SOL    HW145415   2.981   0.682  12.646 -0.2965 -0.6374  0.2182
12725SOL    HW245416   3.017   0.538  12.677 -1.7521 -0.7338  1.5553
12726SOL     OW45417   6.170  12.110   5.842  0.1689  0.0609 -0.1024
12726SOL    HW145418   6.140  12.020   5.828  0.2895 -0.1940  1.2052
12726SOL    HW245419   6.145  12.156   5.761  0.3528 -1.1964 -0.9052
12727SOL     OW45420   7.387   6.838   7.882  0.2037  0.3848 -0.4176
12727SOL    HW145421   7.398   6.895   7.806 -0.5418 -0.0913 -0.8906
12727SOL    HW245422   7.451   6.768   7.867  0.5573  0.6646 -0.2394
12728SOL     OW45423  11.085  12.358   7.807 -0.1931  0.2857 -0.4427
12728SOL    HW145424  11.103  12.440   7.852 -1.1414 -0.1277  0.7278
12728SOL    HW245425  10.995  12.365   7.777  0.3865  0.5124 -2.2479
12729SOL     OW45426   7.523  11.411   6.718  0.2227 -0.5348 -0.4757
12729SOL    HW145427   7.489  11.477   6.658  1.8206  0.4968 -0.3038
12729SOL    HW245428   7.534  11.333   6.663  0.8061  0.1301 -1.3257
12730SOL     OW45429   8.265   1.661   8.779 -0.1507  0.1148  0.3960
12730SOL    HW145430   8.276   1.755   8.794  0.6055  0.0743  0.1548
12730SOL    HW245431   8.189   1.637   8.831  0.2144  0.6810  1.2130
12731SOL     OW45432   9.327   6.115   6.722  0.2735 -0.2650  0.1451
12731SOL    HW145433   9.386   6.184   6.693  0.5791  0.7956  2.9802
12731SOL    HW245434   9.384   6.039   6.735  0.6665  0.1517  0.8974
12732SOL     OW45435  12.704   1.848   4.912  0.5450  0.3079 -0.1682
12732SOL    HW145436  12.747   1.764   4.929 -0.5905 -0.2642 -0.0587
12732SOL    HW245437  12.618   1.825   4.878  1.7713  1.3751 -4.7067
12733SOL     OW45438   3.575   5.438   4.175 -0.4868 -0.7529 -0.2449
12733SOL    HW145439   3.515   5.367   4.151  0.0130 -1.6118  0.9834
12733SOL    HW245440   3.636   5.444   4.101 -0.0067 -2.1958  0.0020
12734SOL     OW45441   5.773   6.089   2.734 -0.5841 -0.0576 -0.0842
12734SOL    HW145442   5.807   6.070   2.646 -0.3648  0.6103 -0.1486
12734SOL    HW245443   5.683   6.058   2.732 -0.4912 -0.3125 -0.4529
12735SOL     OW45444  10.568   6.631  10.618  0.4796  0.4532  0.1284
12735SOL    HW145445  10.610   6.607  10.535  1.2592  1.9681  0.0513
12735SOL    HW245446  10.602   6.718  10.638  1.2559 -0.3405  2.6517
12736SOL     OW45447   2.821  11.947  10.071  0.3671 -0.4607  0.1466
12736SOL    HW145448   2.775  12.031  10.064  3.3069  1.2985  0.5440
12736SOL    HW245449   2.796  11.913  10.157 -0.9260 -0.0820 -0.0572
12737SOL     OW45450   6.788   1.379  11.360  0.1203  0.4125  0.4121
12737SOL    HW145451   6.706   1.365  11.312  0.7909 -0.1005 -0.5968
12737SOL    HW245452   6.767   1.354  11.450 -0.7183 -0.1289  0.0804
12738SOL     OW45453   5.182  11.961   0.593 -0.3478  0.3672  0.1883
12738SOL    HW145454   5.113  11.953   0.659 -1.3112 -0.7733 -0.8958
12738SOL    HW245455   5.135  11.986   0.513  0.4260 -0.8468 -0.6715
12739SOL     OW45456   0.099  12.042  11.138  0.0093  0.4027  0.3431
12739SOL    HW145457   0.049  11.996  11.071 -0.1091  1.2690 -0.1867
12739SOL    HW245458   0.112  11.978  11.208 -0.1611 -0.4087 -0.3616
12740SOL     OW45459   0.350   8.092   0.318 -0.2540  0.1378  0.2036
12740SOL    HW145460   0.274   8.136   0.357 -0.0494  1.1727 -0.5209
12740SOL    HW245461   0.377   8.150   0.246  1.4189 -0.0440  0.6404
12741SOL     OW45462   7.974   6.248   5.959  0.3136  0.0780  0.1937
12741SOL    HW145463   8.009   6.195   5.887 -1.0153 -2.0449  1.0259
12741SOL    HW245464   7.971   6.337   5.923  1.6671 -0.5304 -1.6265
12742SOL     OW45465   3.613   7.800   0.890  0.3599 -0.2105  0.6652
12742SOL    HW145466   3.708   7.810   0.888  0.4464 -0.7861 -2.2115
12742SOL    HW245467   3.598   7.706   0.890 -0.2533 -0.1330  1.8620
12743SOL     OW45468  10.778   7.021   4.270  0.1407  0.0581  0.1166
12743SOL    HW145469  10.801   6.944   4.322  0.1350  0.4516  0.7017
12743SOL    HW245470  10.759   7.089   4.334 -0.8915  0.2566 -0.3811
12744SOL     OW45471  11.479   0.338   7.282  0.1194  0.0810  0.5753
12744SOL    HW145472  11.409   0.369   7.225  0.0697 -2.6393 -1.0359
12744SOL    HW245473  11.438   0.272   7.337  0.6031  1.3395  2.5258
12745SOL     OW45474  11.758   7.309   6.945 -0.5411 -0.1634  1.0807
12745SOL    HW145475  11.773   7.238   7.007  2.0430 -0.1042  0.5979
12745SOL    HW245476  11.768   7.269   6.859  0.0377  0.5881  0.7871
12746SOL     OW45477   6.999   2.292   5.914 -0.3006  0.2781  0.0872
12746SOL    HW145478   6.916   2.316   5.871 -1.5824  2.4879  3.4097
12746SOL    HW245479   6.977   2.215   5.965  0.0034  0.2344  0.1518
12747SOL     OW45480  10.092  10.434  12.161 -0.3782 -0.5678 -0.4073
12747SOL    HW145481  10.074  10.502  12.096  2.5823 -0.4752 -1.2771
12747SOL    HW245482  10.057  10.469  12.243 -1.7986  0.5197 -1.4209
12748SOL     OW45483   1.297   7.832   5.184  0.0715  0.4233 -0.5244
12748SOL    HW145484   1.365   7.766   5.194  0.8888  0.9406 -2.2324
12748SOL    HW245485   1.344   7.913   5.165 -0.9833  0.9372 -1.0381
12749SOL     OW45486   0.748   4.520   2.144 -1.1438  0.3839  0.0990
12749SOL    HW145487   0.837   4.491   2.162 -1.1150  0.1107 -0.4642
12749SOL    HW245488   0.710   4.535   2.231 -0.4271  0.9021  0.3350
12750SOL     OW45489   6.271   7.345   2.497  0.2774  0.5941 -0.4168
12750SOL    HW145490   6.249   7.423   2.548 -0.9940  1.0386 -1.5994
12750SOL    HW245491   6.352   7.368   2.452 -0.0504  1.1943 -0.6967
12751SOL     OW45492   4.108   1.535   9.313 -0.2295  0.1719  0.6858
12751SOL    HW145493   4.034   1.511   9.368 -0.0939  0.4699  0.9998
12751SOL    HW245494   4.184   1.533   9.372 -0.3199  2.1489  0.9392
12752SOL     OW45495   9.219  10.998   0.869  0.2390  0.1256  1.1137
12752SOL    HW145496   9.255  11.077   0.908  0.7376  0.2980  0.3279
12752SOL    HW245497   9.283  10.972   0.803 -0.8182  0.1356  0.0467
12753SOL     OW45498   0.676   9.306  10.478  0.1336 -0.1964  0.0210
12753SOL    HW145499   0.636   9.303  10.565  1.8860  0.7234  0.8880
12753SOL    HW245500   0.752   9.248  10.484 -0.1079 -0.6781 -1.1378
12754SOL     OW45501  10.062   2.651   7.141  0.1325  0.3584  0.0288
12754SOL    HW145502   9.984   2.598   7.160  0.7052  0.0247  1.6253
12754SOL    HW245503  10.127   2.587   7.111  0.6704  0.1689  1.4917
12755SOL     OW45504   2.282   9.218   9.437  0.4871  0.1847  0.2108
12755SOL    HW145505   2.215   9.155   9.464 -1.1290  1.4803 -0.5954
12755SOL    HW245506   2.300   9.269   9.517 -1.0045  1.1164 -0.0049
12756SOL     OW45507   3.750   6.046   4.807  0.4135 -0.5990  0.4135
12756SOL    HW145508   3.729   5.957   4.778  0.5687 -0.8027  0.9222
12756SOL    HW245509   3.676   6.071   4.863 -1.3110  0.8472 -2.2789
12757SOL     OW45510  10.642   7.983  12.350  0.7554 -0.4140  0.2622
12757SOL    HW145511  10.658   8.068  12.310  1.8446 -0.3818  0.7267
12757SOL    HW245512  10.580   7.940  12.291 -0.0237  0.7910  0.1590
12758SOL     OW45513   8.413   3.052  11.304  0.0053 -0.2099 -0.3458
12758SOL    HW145514   8.389   3.087  11.390  1.1436  0.9427 -0.4695
12758SOL    HW245515   8.331   3.048  11.256 -0.5712 -0.4025  0.6252
12759SOL     OW45516   3.494   1.039   3.194  0.2311  0.0656 -0.3999
12759SOL    HW145517   3.566   1.031   3.131 -0.1736 -1.2337 -0.7402
12759SOL    HW245518   3.423   0.989   3.155 -0.1303 -0.5315  0.9407
12760SOL     OW45519   5.241   2.259   3.259 -0.2142  0.6804 -0.0030
12760SOL    HW145520   5.276   2.263   3.170 -0.3215  2.1719  0.0078
12760SOL    HW245521   5.281   2.180   3.296  3.1768  2.2235 -0.0026
12761SOL     OW45522   8.693   8.573   2.929 -0.3149  0.3421  0.0350
12761SOL    HW145523   8.645   8.500   2.968  0.9381 -0.9189 -0.6996
12761SOL    HW245524   8.674   8.647   2.986 -0.9607 -0.7338  1.2777
12762SOL     OW45525  10.246   4.138   8.257  0.3537 -0.6772 -0.6764
12762SOL    HW145526  10.238   4.065   8.318  1.0783 -0.1247  0.1055
12762SOL    HW245527  10.179   4.201   8.285 -0.4244 -1.1156 -1.4893
12763SOL     OW45528   9.628  11.820   3.231 -0.3711  0.3706  0.1728
12763SOL    HW145529   9.652  11.913   3.234  2.1487 -0.1261 -1.5055
12763SOL    HW245530   9.711  11.774   3.223 -1.6397 -1.9737 -0.4611
12764SOL     OW45531   0.935   2.002   1.037  0.0568  0.0436  0.7448
12764SOL    HW145532   0.979   1.918   1.026 -0.7652 -0.1346 -2.0615
12764SOL    HW245533   0.895   1.998   1.124  1.9339 -1.5018  1.5973
12765SOL     OW45534   0.006  11.245   5.301 -0.1443  0.3435 -0.1227
12765SOL    HW145535   0.067  11.204   5.361 -0.4572  0.0443 -0.0114
12765SOL    HW245536  -0.081  11.227   5.337 -0.2569  2.4764  0.8427
12766SOL     OW45537   7.017   8.634   4.367  0.3800 -0.2242 -0.1170
12766SOL    HW145538   7.075   8.581   4.311  1.1698  1.1770 -0.6656
12766SOL    HW245539   7.070   8.709   4.392 -0.5732  0.0941  1.0281
12767SOL     OW45540   3.413   0.314   2.659  0.1855 -0.1640  0.2280
12767SOL    HW145541   3.322   0.337   2.642  0.2189 -0.9584 -1.1374
12767SOL    HW245542   3.450   0.294   2.573  1.7071  0.3055  0.7284
12768SOL     OW45543  10.743   0.758   3.877  0.2822  0.4444 -0.0318
12768SOL    HW145544  10.708   0.669   3.868 -0.4626  0.7153  0.0997
12768SOL    HW245545  10.802   0.768   3.803 -2.2318  1.0224 -2.1235
12769SOL     OW45546   0.490   4.840   0.097  0.2513 -0.5141 -0.0249
12769SOL    HW145547   0.517   4.910   0.037 -1.2320  0.5405  0.4888
12769SOL    HW245548   0.444   4.885   0.168  1.1787 -1.8269  1.4777
12770SOL     OW45549   1.899  10.458   8.976  0.1622  0.3095  0.1216
12770SOL    HW145550   1.891  10.469   9.070  1.0096  2.8379 -0.0313
12770SOL    HW245551   1.810  10.472   8.942  0.0209  0.2472  0.4688
12771SOL     OW45552   3.899   2.413  10.535 -0.0437 -0.5514 -0.3190
12771SOL    HW145553   3.902   2.351  10.608 -0.3844  1.7872  1.8472
12771SOL    HW245554   3.813   2.454  10.541  0.6296  1.0549 -0.7766
12772SOL     OW45555   8.541  10.181   8.908  0.5170 -0.0921  0.4390
12772SOL    HW145556   8.507  10.263   8.942  1.0059  0.2270  0.1844
12772SOL    HW245557   8.609  10.155   8.971 -0.1232 -0.6832  0.9046
12773SOL     OW45558   1.150   6.864   5.360  0.4251 -0.4637  0.2594
12773SOL    HW145559   1.059   6.886   5.376  0.5983  1.5900 -1.1447
12773SOL    HW245560   1.198   6.944   5.378  2.1337 -1.7894  1.9906
12774SOL     OW45561   5.780  11.806   4.041  0.0374 -0.2521 -0.5104
12774SOL    HW145562   5.729  11.825   3.963  0.3400 -1.4853 -1.0282
12774SOL    HW245563   5.843  11.739   4.013  0.5699 -0.2499  0.6270
12775SOL     OW45564   4.936   3.313  11.408  0.3872  0.1511  0.3501
12775SOL    HW145565   4.863   3.325  11.468 -1.3765 -0.9047 -1.4746
12775SOL    HW245566   4.907   3.245  11.347  2.3730  0.6401 -1.2605
12776SOL     OW45567  12.230   7.293   6.010  0.2386  0.3335  0.3467
12776SOL    HW145568  12.302   7.322   6.065 -0.3499 -1.8198  2.3731
12776SOL    HW245569  12.156   7.349   6.036  0.6040  1.1365 -0.2650
12777SOL     OW45570   0.193  10.122   6.422 -0.6703  0.6123  0.3566
12777SOL    HW145571   0.223  10.041   6.462  0.3091  0.8388  0.1023
12777SOL    HW245572   0.102  10.105   6.398 -0.3827 -0.5195  0.0208
12778SOL     OW45573   7.673   9.011   9.378 -0.2709  0.4423 -0.0155
12778SOL    HW145574   7.767   9.019   9.361  0.3675 -2.0622  1.8721
12778SOL    HW245575   7.636   8.993   9.292  0.8118  2.2635 -0.9316
12779SOL     OW45576   7.463   5.652  10.712  0.2966 -0.0645 -0.0201
12779SOL    HW145577   7.532   5.668  10.647 -0.4997  1.4674 -0.5184
12779SOL    HW245578   7.439   5.739  10.744 -2.2581 -0.4449 -0.7447
12780SOL     OW45579   9.785   0.294   9.390  0.0407  0.4869  0.3554
12780SOL    HW145580   9.777   0.200   9.378 -0.7589  0.6373 -0.4318
12780SOL    HW245581   9.777   0.331   9.302 -0.1959  1.3198  0.7074
12781SOL     OW45582  12.614   6.438   1.414  1.1115  0.5658 -0.4758
12781SOL    HW145583  12.668   6.414   1.489 -0.2265  0.4232  0.4738
12781SOL    HW245584  12.563   6.360   1.394 -1.3837  1.6990  1.0005
12782SOL     OW45585   1.803   9.969   6.605  0.6544 -0.6835  0.0078
12782SOL    HW145586   1.866   9.971   6.533  0.7667  0.5924  0.1311
12782SOL    HW245587   1.855   9.988   6.683  0.1721  0.1095  0.1439
12783SOL     OW45588   2.419  12.005   0.370 -0.1006  0.1830  0.1061
12783SOL    HW145589   2.355  11.934   0.379  1.1795 -0.8042  2.1492
12783SOL    HW245590   2.375  12.082   0.405 -0.5744 -0.2244  0.4284
12784SOL     OW45591   4.187   6.885   9.117  0.6983 -0.5978  0.4713
12784SOL    HW145592   4.145   6.859   9.035 -0.9104  1.3861  0.6136
12784SOL    HW245593   4.124   6.861   9.185  0.4831  0.9113  0.8260
12785SOL     OW45594   3.388   8.644  12.440 -0.9459  0.1966  0.0788
12785SOL    HW145595   3.297   8.615  12.450 -1.8141  2.1595 -1.3308
12785SOL    HW245596   3.438   8.564  12.424 -2.5306 -0.8720  0.3032
12786SOL     OW45597   9.091   5.845   4.175 -0.0231  0.1376 -0.2104
12786SOL    HW145598   9.020   5.814   4.120  0.4277  2.8259 -2.5334
12786SOL    HW245599   9.159   5.874   4.114  1.6889  0.7445  1.8257
12787SOL     OW45600   1.251   9.781   1.388  0.1408 -0.0288 -0.0553
12787SOL    HW145601   1.188   9.843   1.353  1.3795  1.8372  0.8452
12787SOL    HW245602   1.330   9.833   1.405  0.4521 -1.2552  3.0644
12788SOL     OW45603   8.746  11.639   3.374 -0.2175 -0.0299  0.2372
12788SOL    HW145604   8.729  11.684   3.291  0.6429 -1.6649 -0.8863
12788SOL    HW245605   8.687  11.563   3.373 -1.0678  0.5592  1.7131
12789SOL     OW45606   3.200   0.105   8.174 -0.0460  0.6903  0.3306
12789SOL    HW145607   3.107   0.129   8.175 -0.0734  0.7368 -1.2564
12789SOL    HW245608   3.233   0.137   8.090  1.8260  2.1367  1.5382
12790SOL     OW45609   8.274  11.614   1.972  0.1362  0.1687 -0.0032
12790SOL    HW145610   8.276  11.667   1.892 -0.9891  0.6090  0.2330
12790SOL    HW245611   8.365  11.602   1.996  0.4522  0.9965 -0.7381
12791SOL     OW45612   7.013   3.696  12.632  0.4278 -0.2894  0.0225
12791SOL    HW145613   6.964   3.629  12.584 -2.8335 -0.0588  2.6574
12791SOL    HW245614   7.051   3.650  12.706 -1.1261  0.5342  1.3900
12792SOL     OW45615   1.363   6.650   9.523 -0.1353  0.1100 -0.2103
12792SOL    HW145616   1.459   6.656   9.522 -0.1488  0.8929 -2.1721
12792SOL    HW245617   1.336   6.709   9.593  0.8239 -0.1098  0.3537
12793SOL     OW45618   4.987   6.123   8.988 -0.1190 -0.2400  0.1445
12793SOL    HW145619   5.053   6.081   8.932  0.5621 -0.2543  0.9332
12793SOL    HW245620   5.005   6.216   8.980 -0.4091 -0.2053 -0.1221
12794SOL     OW45621   2.298   9.313   9.721  0.4080 -0.6730  0.1720
12794SOL    HW145622   2.210   9.350   9.715  0.6093 -0.2425 -0.1620
12794SOL    HW245623   2.339   9.359   9.794 -0.3023 -2.2732  1.6310
12795SOL     OW45624  11.962  11.040   0.828  0.7373  0.1779 -0.6299
12795SOL    HW145625  11.971  10.957   0.874 -2.7505 -0.2454 -0.4446
12795SOL    HW245626  12.047  11.083   0.838  2.3340 -2.8979  0.1086
12796SOL     OW45627  12.050   3.317  10.272  0.3262 -0.0181 -0.0044
12796SOL    HW145628  12.113   3.268  10.325  0.7004 -1.3996 -1.6179
12796SOL    HW245629  12.006   3.374  10.334  2.2518  0.0469  1.4109
12797SOL     OW45630   7.118   3.613   1.139 -0.0028  0.0674  0.9577
12797SOL    HW145631   7.063   3.688   1.117 -0.9307 -0.1020  2.5568
12797SOL    HW245632   7.075   3.538   1.098 -0.5190  0.0511  1.5227
12798SOL     OW45633   1.691   8.718   3.318  0.2641 -1.1081  0.3765
12798SOL    HW145634   1.730   8.680   3.396  1.4006  0.1671  0.4617
12798SOL    HW245635   1.670   8.808   3.342 -0.6669 -1.1049 -0.3677
12799SOL     OW45636   0.258  10.124  11.813  0.2344  0.0537 -0.6018
12799SOL    HW145637   0.240  10.213  11.843  0.2830 -0.2016  0.2151
12799SOL    HW245638   0.173  10.092  11.782  0.5299  0.9162 -2.3946
12800SOL     OW45639   5.225   6.832   9.513 -0.6282  0.2203 -0.0564
12800SOL    HW145640   5.195   6.921   9.497 -1.1752 -0.0651 -0.6620
12800SOL    HW245641   5.176   6.778   9.451  1.4432 -0.2299 -1.4266
12801SOL     OW45642   7.995   2.461  12.674 -0.1567 -0.0176  0.3827
12801SOL    HW145643   7.939   2.478  12.749 -1.1802  0.8465 -0.5283
12801SOL    HW245644   7.935   2.457  12.600  0.9790  1.1010 -0.6624
12802SOL     OW45645   1.456  10.327   9.977 -0.8770  0.6471  0.2812
12802SOL    HW145646   1.526  10.382   9.941  0.1424 -0.5953  0.2725
12802SOL    HW245647   1.408  10.296   9.900  0.8302 -1.3882 -0.0739
12803SOL     OW45648   7.561   7.760   4.520 -0.1048 -0.0982 -0.4609
12803SOL    HW145649   7.594   7.842   4.556 -1.9516  0.2703  0.5253
12803SOL    HW245650   7.535   7.708   4.597 -1.1592 -0.6174 -1.1385
12804SOL     OW45651   1.842  10.728   5.449  0.1077 -0.6089  0.1671
12804SOL    HW145652   1.823  10.757   5.538 -2.4932 -0.3583 -0.3958
12804SOL    HW245653   1.768  10.671   5.425  1.0271 -1.1372 -1.6296
12805SOL     OW45654   2.828   1.436  11.486 -0.0158 -0.1164 -0.3761
12805SOL    HW145655   2.909   1.438  11.435 -1.7403 -0.8381 -3.4192
12805SOL    HW245656   2.768   1.492  11.437 -1.4789  0.1428  1.6191
12806SOL     OW45657   7.663   0.725   4.676 -0.6075  0.1346 -0.3178
12806SOL    HW145658   7.637   0.639   4.708  0.4581  0.0444  0.3544
12806SOL    HW245659   7.759   0.725   4.682 -0.3853  0.3844 -2.8421
12807SOL     OW45660   0.920   1.379   5.257  0.0895  0.1398  0.1410
12807SOL    HW145661   0.875   1.385   5.173 -1.0093 -0.3618  0.6700
12807SOL    HW245662   0.871   1.437   5.315  0.6596  0.2601  0.5118
12808SOL     OW45663   0.686   7.995   1.340  0.4560  0.3484  0.1153
12808SOL    HW145664   0.673   8.074   1.286 -0.4062 -0.3020 -0.6702
12808SOL    HW245665   0.609   7.941   1.322  0.1026  0.1305  2.0732
12809SOL     OW45666   4.626   3.440  11.203 -0.6555  1.2394  0.0441
12809SOL    HW145667   4.596   3.514  11.255 -0.9519  2.0062 -1.1757
12809SOL    HW245668   4.546   3.394  11.177 -0.6194  1.6807 -0.8907
12810SOL     OW45669   2.399   0.254   6.463 -0.3267 -0.4993 -0.5112
12810SOL    HW145670   2.452   0.315   6.514  0.7049 -3.4803  2.3815
12810SOL    HW245671   2.428   0.267   6.373 -0.4519  3.3718 -0.1518
12811SOL     OW45672   4.780   1.114   2.123  0.2683 -0.0431 -0.1418
12811SOL    HW145673   4.791   1.178   2.194 -2.0083  1.0432 -0.6843
12811SOL    HW245674   4.748   1.035   2.167 -2.1892  0.9578  0.0314
12812SOL     OW45675   8.119   0.896   1.539 -0.4058 -0.2682 -0.1660
12812SOL    HW145676   8.056   0.897   1.611  0.4392  0.1533  0.5870
12812SOL    HW245677   8.205   0.905   1.582  0.0967  0.1660 -1.2306
12813SOL     OW45678   2.297   0.994   1.299 -0.6574 -0.2343  0.0541
12813SOL    HW145679   2.279   1.037   1.215 -0.3377 -0.0784  0.0667
12813SOL    HW245680   2.306   0.901   1.277 -1.0964 -0.2655 -0.0086
12814SOL     OW45681   3.418  11.822   3.829  0.0076 -0.1296  0.2451
12814SOL    HW145682   3.423  11.737   3.873 -0.3424 -0.3662 -0.1712
12814SOL    HW245683   3.325  11.840   3.820  0.0758  0.5574  0.8171
12815SOL     OW45684   0.323   2.852  10.259 -0.0310  0.3644 -0.3530
12815SOL    HW145685   0.231   2.852  10.286 -0.4875  1.5455 -1.7859
12815SOL    HW245686   0.351   2.943  10.268  1.3154 -0.1198  0.9463
12816SOL     OW45687   9.498   5.867   8.224  0.1436  0.3643  0.3961
12816SOL    HW145688   9.498   5.818   8.306  0.8010  1.0402  0.8203
12816SOL    HW245689   9.577   5.922   8.229 -0.7054  1.6730  0.0963
12817SOL     OW45690  12.282   3.197  11.782 -0.0478 -0.5176  0.0926
12817SOL    HW145691  12.298   3.125  11.842 -0.2650 -1.7289 -1.2677
12817SOL    HW245692  12.328   3.173  11.702 -1.3905  0.1206 -0.9123
12818SOL     OW45693   2.212  11.260   2.661 -0.5154 -0.2606 -0.0416
12818SOL    HW145694   2.289  11.284   2.712 -1.0040 -3.1022  2.2680
12818SOL    HW245695   2.148  11.329   2.682  0.4981  0.6382  0.1987
12819SOL     OW45696   4.546   8.907  11.530  0.3441 -0.0672 -0.5279
12819SOL    HW145697   4.567   8.982  11.474  0.3751  1.2543  1.1714
12819SOL    HW245698   4.538   8.944  11.618  3.3899 -2.4624  0.9647
12820SOL     OW45699   7.301   0.413  10.204  0.3528 -0.3314 -0.2310
12820SOL    HW145700   7.391   0.407  10.172  1.4266  0.1860  2.4306
12820SOL    HW245701   7.259   0.332  10.172  1.9954 -0.9957 -0.8140
12821SOL     OW45702  12.581   4.282   2.019 -0.0854  0.8382 -0.2194
12821SOL    HW145703  12.652   4.342   2.037 -0.8666  2.1311 -1.2826
12821SOL    HW245704  12.511   4.308   2.079  0.2246 -0.2715  0.6569
12822SOL     OW45705  11.493   8.792   1.199 -0.4774 -0.4406 -0.3210
12822SOL    HW145706  11.564   8.847   1.165 -1.2754 -0.0938 -1.5070
12822SOL    HW245707  11.484   8.818   1.290  2.0271 -1.6950  0.3579
12823SOL     OW45708  11.041   6.854   8.744 -0.0201  0.1305 -0.4407
12823SOL    HW145709  11.051   6.872   8.837  1.2166 -0.3448 -0.4538
12823SOL    HW245710  11.006   6.765   8.740 -0.6635  0.3793 -0.4316
12824SOL     OW45711   7.982   0.336   8.183  0.2693 -0.3274 -0.1664
12824SOL    HW145712   7.886   0.339   8.194  0.5319  0.2349  2.6230
12824SOL    HW245713   8.007   0.427   8.167  0.4126 -0.3637 -0.1489
12825SOL     OW45714   0.022   1.911  10.335  0.4395 -0.1835  0.1149
12825SOL    HW145715   0.002   1.918  10.242 -0.6213 -1.7232  0.1822
12825SOL    HW245716  -0.020   1.987  10.375 -0.6451 -0.4606 -0.4591
12826SOL     OW45717   7.992   9.304   7.959 -0.0061 -0.1059  0.2936
12826SOL    HW145718   8.043   9.263   8.030 -0.6124  0.9722  1.3915
12826SOL    HW245719   7.908   9.258   7.961 -1.1690  1.9066  2.3866
12827SOL     OW45720   9.158   0.933   9.013 -0.2412  0.7656  0.0657
12827SOL    HW145721   9.242   0.966   9.046  0.0518  0.4123 -0.3068
12827SOL    HW245722   9.121   1.007   8.965 -0.5930  1.2280  1.0202
12828SOL     OW45723   5.142   5.370   1.341 -0.2434 -0.5976 -0.3316
12828SOL    HW145724   5.171   5.460   1.325 -0.1248 -0.1881  1.8936
12828SOL    HW245725   5.187   5.318   1.274 -1.7460  1.1420 -2.9094
12829SOL     OW45726   4.578   8.281   1.256  0.5007  0.6920  0.1893
12829SOL    HW145727   4.666   8.246   1.270  0.5120  1.1811  1.5457
12829SOL    HW245728   4.590   8.376   1.257  0.2456  0.7705 -1.8129
12830SOL     OW45729   7.992   3.595   4.971  0.1326 -0.1334  0.2759
12830SOL    HW145730   8.024   3.582   4.882 -0.9446 -2.6461  0.1688
12830SOL    HW245731   7.915   3.652   4.962  0.8072  0.7238 -0.2016
12831SOL     OW45732   6.013   5.432   3.499  0.5116 -0.4376 -0.2073
12831SOL    HW145733   5.919   5.411   3.502  1.1105 -3.4580  1.4077
12831SOL    HW245734   6.031   5.468   3.586  1.0769 -0.9806 -0.1027
12832SOL     OW45735   2.643   3.361   5.999  0.0813 -0.7985 -0.0742
12832SOL    HW145736   2.619   3.420   5.927 -1.0468  1.2187  1.8455
12832SOL    HW245737   2.643   3.274   5.959 -1.0874  0.1660 -2.3666
12833SOL     OW45738   7.227  10.412   4.227  0.4352  0.2886 -0.5602
12833SOL    HW145739   7.262  10.389   4.313 -1.2676  1.2561  0.4562
12833SOL    HW245740   7.177  10.335   4.200  2.1804 -0.5950 -1.4232
12834SOL     OW45741   6.277   1.998  11.122  0.4938 -0.5618  0.3610
12834SOL    HW145742   6.219   1.961  11.188  0.5341 -0.5228  0.4188
12834SOL    HW245743   6.251   2.090  11.117  0.3749 -0.6037  0.1979
12835SOL     OW45744   3.287   5.189   1.154 -0.4692  0.1208 -0.0490
12835SOL    HW145745   3.221   5.249   1.119  1.4748  2.8225  0.5331
12835SOL    HW245746   3.333   5.157   1.077 -0.4967  0.6872 -0.3086
12836SOL     OW45747   4.035   8.978   8.254  0.4664  0.0464  0.0908
12836SOL    HW145748   4.080   9.057   8.284 -0.7185  0.8078 -0.0681
12836SOL    HW245749   4.003   9.000   8.167  1.4617 -1.1765 -0.6130
12837SOL     OW45750   0.913   2.528   2.011 -0.1224  0.2180 -0.0994
12837SOL    HW145751   0.886   2.440   2.037 -1.7679 -0.1406 -2.7181
12837SOL    HW245752   0.867   2.545   1.929  2.2640  2.4399 -1.1479
12838SOL     OW45753   7.275   3.313   6.771 -0.4518  1.2320  0.3999
12838SOL    HW145754   7.254   3.406   6.767 -0.0948  1.2775 -1.0317
12838SOL    HW245755   7.359   3.305   6.726 -1.0696  0.0584 -0.6048
12839SOL     OW45756  11.239   9.342  11.114 -0.2232  0.6679 -0.4992
12839SOL    HW145757  11.331   9.340  11.143  0.0458 -0.5953 -1.3235
12839SOL    HW245758  11.189   9.355  11.194  0.4098 -3.6231  0.8593
12840SOL     OW45759   5.568   0.270  12.168 -0.0889  0.9743  0.2287
12840SOL    HW145760   5.514   0.241  12.095  2.9467  0.5082 -2.0013
12840SOL    HW245761   5.611   0.190  12.200  1.1702  1.6335  0.2628
12841SOL     OW45762   3.295   0.887   4.584  0.4722  0.3309  0.1880
12841SOL    HW145763   3.309   0.792   4.580 -1.2181 -0.0584  1.7590
12841SOL    HW245764   3.380   0.923   4.609  1.0259 -0.8315  0.0621
12842SOL     OW45765   0.381  11.167   8.414  0.1982  0.1398 -0.4735
12842SOL    HW145766   0.356  11.241   8.469 -0.3055  1.2981 -2.1741
12842SOL    HW245767   0.298  11.126   8.390  0.3174  0.3815 -1.3279
12843SOL     OW45768   6.391   6.234   3.680  0.3803  0.4541 -0.2532
12843SOL    HW145769   6.445   6.242   3.759 -0.8913 -0.7491  0.7835
12843SOL    HW245770   6.305   6.264   3.707  0.0589  0.5727 -1.3694
12844SOL     OW45771   0.431  10.729   6.416 -0.1503 -1.0150  0.2336
12844SOL    HW145772   0.524  10.738   6.394 -0.1103 -1.8435  0.0328
12844SOL    HW245773   0.399  10.819   6.424  0.3008 -0.6873 -1.2675
12845SOL     OW45774  10.111   4.594   4.201  0.1537 -0.2326 -0.0791
12845SOL    HW145775  10.164   4.515   4.189 -0.1833 -0.4134 -0.4160
12845SOL    HW245776  10.175   4.664   4.214  0.4494 -0.5986  0.4636
12846SOL     OW45777   9.023   1.606   5.957 -0.1166 -0.8470  0.3591
12846SOL    HW145778   8.959   1.675   5.940  1.4409  1.0010  1.6770
12846SOL    HW245779   9.057   1.583   5.870  1.1246  1.8896  0.0365
12847SOL     OW45780   3.819   1.071   6.521  0.0196 -0.0992  0.0428
12847SOL    HW145781   3.835   1.165   6.519 -1.0814  0.1141  0.1913
12847SOL    HW245782   3.869   1.036   6.448  1.6069  0.3934  0.8553
12848SOL     OW45783   9.624  10.705   2.049  0.4844  0.6349  0.0962
12848SOL    HW145784   9.560  10.656   2.101  1.2777  0.0112  0.5055
12848SOL    HW245785   9.599  10.797   2.062 -0.8472  0.3686 -0.4582
12849SOL     OW45786   3.550   8.659  10.241 -0.1298 -0.0797  0.5526
12849SOL    HW145787   3.539   8.722  10.312  1.0023 -1.3123  1.8952
12849SOL    HW245788   3.531   8.574  10.281  1.4482 -0.9018 -0.3399
12850SOL     OW45789  11.788   9.656   0.849  1.0575 -0.3654 -0.2553
12850SOL    HW145790  11.830   9.581   0.892 -0.2022 -1.4671 -0.8609
12850SOL    HW245791  11.721   9.617   0.794  1.0930  1.1657 -1.4501
12851SOL     OW45792   8.113   9.179  10.622  0.3147  0.7879  0.2216
12851SOL    HW145793   8.038   9.205  10.570 -1.5358 -1.5635  1.5038
12851SOL    HW245794   8.139   9.094  10.586  0.6441  0.3365  1.4517
12852SOL     OW45795   6.962   8.540   2.361 -0.0119  0.2602 -0.0254
12852SOL    HW145796   6.950   8.488   2.282 -1.4515  1.0615 -0.3678
12852SOL    HW245797   6.892   8.510   2.420  1.5265 -0.9022  1.3031
12853SOL     OW45798  10.888  11.730  11.266  0.3899  0.4665 -0.7192
12853SOL    HW145799  10.966  11.677  11.249  0.7053  0.9219 -0.6932
12853SOL    HW245800  10.817  11.666  11.267  0.9639 -0.1996  0.9618
12854SOL     OW45801   0.693  10.185   9.667  0.0781  0.2341 -0.3726
12854SOL    HW145802   0.646  10.249   9.721  0.9084  1.2733 -0.8518
12854SOL    HW245803   0.748  10.137   9.729 -1.5930 -1.0578  0.2162
12855SOL     OW45804   8.057   1.215   6.179  0.0940 -0.0333  0.5977
12855SOL    HW145805   8.047   1.253   6.266  1.5664  0.0050  0.7780
12855SOL    HW245806   8.100   1.284   6.127  1.2399 -0.8176  0.4657
12856SOL     OW45807   8.864   2.984   5.377  0.6083 -0.2380  0.3194
12856SOL    HW145808   8.836   2.967   5.467  2.3332 -0.4737  0.8422
12856SOL    HW245809   8.853   3.079   5.366 -0.3693 -0.3234  0.4909
12857SOL     OW45810  10.660   1.738   0.642  0.2753 -0.0618  0.6076
12857SOL    HW145811  10.653   1.697   0.729 -1.3184  0.8875  0.9712
12857SOL    HW245812  10.649   1.832   0.659 -1.4637  0.0353 -0.7330
12858SOL     OW45813   4.252   9.462   6.490 -0.4166 -0.2208 -0.0170
12858SOL    HW145814   4.208   9.404   6.553  1.4694 -3.1937 -1.2356
12858SOL    HW245815   4.344   9.439   6.496  0.1720  1.3270 -1.9908
12859SOL     OW45816   6.679   6.341   2.357 -0.4386  0.0150  0.0652
12859SOL    HW145817   6.714   6.270   2.303  0.7185  1.6802 -1.4750
12859SOL    HW245818   6.593   6.360   2.319 -0.1925  0.2931 -0.3603
12860SOL     OW45819   3.811   9.792  10.794 -0.5078  0.0122 -0.1536
12860SOL    HW145820   3.890   9.841  10.813 -0.1204 -0.3343 -0.8163
12860SOL    HW245821   3.750   9.816  10.863  0.5632 -0.6087  1.0362
12861SOL     OW45822   2.622   3.130   7.576 -0.3388  0.0544 -0.0444
12861SOL    HW145823   2.673   3.088   7.645 -0.6136  0.5164  0.4421
12861SOL    HW245824   2.538   3.083   7.577 -0.4004  0.1662  0.0436
12862SOL     OW45825   4.913   1.631   4.004  0.1716 -0.6388  0.3741
12862SOL    HW145826   4.826   1.665   3.985  0.0299 -2.1964 -2.3443
12862SOL    HW245827   4.898   1.558   4.064 -0.3094 -0.4139  0.5292
12863SOL     OW45828   3.059   1.136   4.251  0.8400  1.0602 -0.3452
12863SOL    HW145829   3.049   1.139   4.156  0.2381 -1.2417 -0.4302
12863SOL    HW245830   2.988   1.190   4.285  1.5681  2.5825 -1.1882
12864SOL     OW45831   9.829   9.306   3.158  0.3235  0.3984 -0.0104
12864SOL    HW145832   9.888   9.238   3.125  2.0868  0.7957  2.0989
12864SOL    HW245833   9.854   9.385   3.109  1.7832  0.6214  1.0410
12865SOL     OW45834   9.962  10.382   2.367  0.2309  0.1351 -0.3197
12865SOL    HW145835  10.023  10.309   2.358  0.3090  0.1339  0.1836
12865SOL    HW245836   9.956  10.420   2.279 -1.6270 -1.9115 -1.1610
12866SOL     OW45837  11.302  11.767  10.779  0.6829  0.0306  0.2331
12866SOL    HW145838  11.244  11.737  10.709  1.5244 -0.9856 -0.0431
12866SOL    HW245839  11.257  11.742  10.860  1.5016 -2.3370  0.0129
12867SOL     OW45840   0.837  11.634   5.977  0.0810  0.3130 -0.4988
12867SOL    HW145841   0.776  11.642   5.903  0.4799 -1.8816 -1.1278
12867SOL    HW245842   0.812  11.552   6.019  1.0061  0.6528  0.7612
12868SOL     OW45843   4.238   9.000  10.577  0.7105  0.1600 -0.4210
12868SOL    HW145844   4.219   8.950  10.657 -0.8462  0.4615 -0.5894
12868SOL    HW245845   4.313   9.055  10.601  0.4778  0.0037  0.7328
12869SOL     OW45846   8.492   8.118   0.892  0.3647  0.1187 -0.1473
12869SOL    HW145847   8.412   8.078   0.926  1.2525 -0.9105  0.7955
12869SOL    HW245848   8.461   8.177   0.823 -1.5386  2.2424  2.2915
12870SOL     OW45849   4.390   0.035   0.876 -0.6046 -0.0201  0.3850
12870SOL    HW145850   4.308   0.052   0.830 -0.3197  0.8716  0.1876
12870SOL    HW245851   4.362   0.011   0.965 -1.0455  1.5618  0.6949
12871SOL     OW45852  12.574   8.452   2.908  0.6145 -0.2039 -0.7729
12871SOL    HW145853  12.515   8.429   2.980 -0.9633  0.9536 -1.6269
12871SOL    HW245854  12.607   8.368   2.876 -2.4954 -1.1660 -1.7993
12872SOL     OW45855   8.217   7.943   8.450 -0.4321 -0.0562  0.2283
12872SOL    HW145856   8.155   7.871   8.443 -0.6287  0.1904 -0.7084
12872SOL    HW245857   8.233   7.953   8.544 -2.0142  0.0577  0.5044
12873SOL     OW45858   4.054  10.944   2.851 -0.3769  0.1733 -0.2095
12873SOL    HW145859   4.015  10.893   2.922 -1.9752  1.4361 -0.1331
12873SOL    HW245860   4.005  10.916   2.773  0.1603  0.0781 -0.5138
12874SOL     OW45861  12.007   7.525  11.868  0.3688 -0.5957  0.0225
12874SOL    HW145862  11.992   7.559  11.780  0.5559  3.4589  1.3610
12874SOL    HW245863  12.103   7.522  11.876  0.3514 -0.7262  0.1934
12875SOL     OW45864   8.969  10.604   7.550  0.8003 -0.5235 -0.2767
12875SOL    HW145865   9.054  10.647   7.558  0.8641 -0.4415 -1.2521
12875SOL    HW245866   8.962  10.549   7.628 -0.0469  2.4790  1.9364
12876SOL     OW45867   3.247  10.438   4.110 -0.5161  0.5041  0.2502
12876SOL    HW145868   3.217  10.370   4.049  0.0474 -0.4930  1.0625
12876SOL    HW245869   3.342  10.440   4.098  0.2879 -2.7925  4.0480
12877SOL     OW45870   4.103   9.165   7.787 -0.0166  0.5249 -0.2525
12877SOL    HW145871   4.037   9.141   7.721  0.7531  0.4167 -1.0005
12877SOL    HW245872   4.161   9.226   7.742  0.8159  0.0628  0.1741
12878SOL     OW45873  10.432   9.424   8.875 -0.0370 -0.1382  0.0706
12878SOL    HW145874  10.389   9.339   8.871  0.6546 -0.4328 -1.3384
12878SOL    HW245875  10.431   9.446   8.969 -2.9051 -0.2821  0.1501
12879SOL     OW45876   2.367   6.291   6.989 -0.1825 -0.0611 -0.0699
12879SOL    HW145877   2.322   6.353   6.932 -2.0846 -0.5491  0.8010
12879SOL    HW245878   2.328   6.307   7.076  2.2350  0.3022  1.0261
12880SOL     OW45879   9.680   6.324  11.079 -0.5476 -0.3197  0.1120
12880SOL    HW145880   9.632   6.365  11.007 -0.4307 -2.0786 -1.0355
12880SOL    HW245881   9.758   6.287  11.037 -0.3839 -1.2203  1.1736
12881SOL     OW45882  11.529   4.855   3.734 -0.4353 -0.2503 -0.3075
12881SOL    HW145883  11.458   4.791   3.727 -0.5510 -0.1843  0.2208
12881SOL    HW245884  11.595   4.812   3.788  0.1439 -0.4948 -1.1839
12882SOL     OW45885   5.946   1.281   6.688 -0.1563  0.2994  0.6408
12882SOL    HW145886   5.960   1.375   6.675 -0.2380  0.2274 -0.0416
12882SOL    HW245887   5.900   1.274   6.771  0.9258  0.7787  1.2995
12883SOL     OW45888  12.100   4.743  11.195 -0.0590 -0.3830  0.6925
12883SOL    HW145889  12.133   4.752  11.106 -1.5598  1.0693  0.2209
12883SOL    HW245890  12.035   4.673  11.190 -0.3323 -0.1250  0.5667
12884SOL     OW45891   1.514   8.110  10.014  0.2060  0.5603 -0.4579
12884SOL    HW145892   1.565   8.190  10.018 -1.4664  1.6298  2.0648
12884SOL    HW245893   1.510   8.079  10.105 -2.4354 -0.2013 -0.7382
12885SOL     OW45894  11.752   8.177   1.183  0.0058  0.3764 -0.0948
12885SOL    HW145895  11.717   8.259   1.146 -0.8359  0.2933  0.4916
12885SOL    HW245896  11.742   8.113   1.112  0.1735  0.6539 -0.3723
12886SOL     OW45897  11.403   2.183  10.041  0.1209 -0.2562  0.5148
12886SOL    HW145898  11.445   2.251   9.989 -1.1210  1.5645  1.7772
12886SOL    HW245899  11.475   2.129  10.072  0.9139 -1.6622 -3.2425
12887SOL     OW45900   3.415   8.659  11.853 -0.1772  0.2795  0.1662
12887SOL    HW145901   3.357   8.662  11.929 -1.1315 -0.3826 -0.5044
12887SOL    HW245902   3.372   8.598  11.793  0.4449  0.9466 -0.9954
12888SOL     OW45903   1.918  11.540  11.130 -0.1286  0.1511  0.3405
12888SOL    HW145904   1.937  11.622  11.176 -0.7049 -0.7472  2.2647
12888SOL    HW245905   1.822  11.537  11.126 -0.1217 -0.6612  0.7206
12889SOL     OW45906   5.294  11.670   7.201  0.2040  0.4084 -0.2175
12889SOL    HW145907   5.220  11.673   7.141 -0.8265 -1.7640  0.8165
12889SOL    HW245908   5.371  11.664   7.144 -0.4799  1.3841 -1.2934
12890SOL     OW45909  11.746   3.172  11.325  0.1563  0.2770 -1.0491
12890SOL    HW145910  11.747   3.148  11.418  1.6182 -0.9556 -1.3347
12890SOL    HW245911  11.660   3.211  11.311 -0.2630  0.0734  0.7169
12891SOL     OW45912  10.275   0.445  12.347 -0.1199 -0.1698  0.1018
12891SOL    HW145913  10.302   0.359  12.380 -0.0240 -0.2806 -0.2591
12891SOL    HW245914  10.204   0.472  12.405  1.1679  0.4159  1.4906
12892SOL     OW45915  11.497   5.958   7.079 -0.0712 -0.7068 -0.0503
12892SOL    HW145916  11.473   6.039   7.033 -0.9381 -1.4467 -0.9417
12892SOL    HW245917  11.563   5.917   7.024  1.5804  0.1380  1.2060
12893SOL     OW45918   5.145   5.049   7.933  0.0579  0.1807  0.1056
12893SOL    HW145919   5.133   5.144   7.933  0.7511  0.2711  0.0837
12893SOL    HW245920   5.194   5.031   7.853 -0.6034 -0.2714 -0.2068
12894SOL     OW45921   2.922   5.888   3.423  0.2228 -0.3936 -0.1429
12894SOL    HW145922   2.990   5.945   3.459  0.2763  0.5790 -1.7037
12894SOL    HW245923   2.954   5.799   3.442  0.1425  0.0165  2.2985
12895SOL     OW45924   8.108   2.546   6.499 -0.3165  0.0078 -0.0678
12895SOL    HW145925   8.191   2.523   6.458  0.3001  0.5738  0.8440
12895SOL    HW245926   8.091   2.476   6.562  1.0490  1.3999  1.9687
12896SOL     OW45927   3.556   6.680   1.262 -0.0595  0.0715 -0.3388
12896SOL    HW145928   3.506   6.601   1.285 -1.1074  1.2908  1.8853
12896SOL    HW245929   3.628   6.681   1.324 -0.1500  0.9399 -0.2433
12897SOL     OW45930   3.650  10.014   7.341 -0.0912  0.3020  0.1759
12897SOL    HW145931   3.673   9.936   7.392 -1.0797  0.2158  0.5028
12897SOL    HW245932   3.674  10.087   7.398  0.8483  0.2559 -0.1352
12898SOL     OW45933   8.273   5.295   3.849  0.5327 -0.0033 -0.1615
12898SOL    HW145934   8.294   5.269   3.939  0.2245 -0.4666 -0.2204
12898SOL    HW245935   8.237   5.216   3.809 -2.7664  1.0601  0.3776
12899SOL     OW45936   5.015  12.198   4.065  0.8538  0.2396 -0.4723
12899SOL    HW145937   4.955  12.129   4.093  1.3768 -0.1997 -0.4334
12899SOL    HW245938   4.972  12.238   3.989  0.3934  0.0974 -0.2906
12900SOL     OW45939   0.217  11.652  10.876  0.1433  0.1368 -0.0689
12900SOL    HW145940   0.220  11.594  10.800  3.4561  0.7139 -0.5481
12900SOL    HW245941   0.227  11.740  10.840  0.3311  0.5480  0.9381
12901SOL     OW45942  10.431   2.777   5.017 -0.3231  0.4279  1.0227
12901SOL    HW145943  10.372   2.850   5.032 -1.0171 -0.0730  0.7945
12901SOL    HW245944  10.413   2.716   5.089 -0.5573 -0.0150  0.6010
12902SOL     OW45945  10.075   3.520   2.816 -0.0049  0.0982 -0.3566
12902SOL    HW145946  10.095   3.499   2.908  0.3093  0.5624 -0.3148
12902SOL    HW245947  10.004   3.461   2.793 -0.4618  0.3595  0.3593
12903SOL     OW45948   4.599   8.080   6.133  0.5092 -0.2293  0.3073
12903SOL    HW145949   4.562   8.063   6.220 -1.1577 -1.4312 -0.5713
12903SOL    HW245950   4.534   8.137   6.091  0.6998 -0.6185 -0.5382
12904SOL     OW45951   0.203   2.150   9.946 -0.3131  0.0814  0.0382
12904SOL    HW145952   0.183   2.178  10.035 -1.5557  1.4033 -0.6114
12904SOL    HW245953   0.219   2.056   9.953  0.4816  0.3074  1.7750
12905SOL     OW45954  11.738   3.113   3.628  0.2453 -0.1535 -0.0438
12905SOL    HW145955  11.717   3.020   3.634  0.9479 -0.3141 -0.0224
12905SOL    HW245956  11.673   3.156   3.683 -0.7337 -0.5262 -0.8787
12906SOL     OW45957   5.142   5.144   3.418 -0.0713 -0.0469 -0.0931
12906SOL    HW145958   5.104   5.181   3.497 -0.1036  0.1945 -0.2197
12906SOL    HW245959   5.073   5.088   3.382 -0.9713  1.7228 -1.2462
12907SOL     OW45960  10.313   5.174   2.444 -0.0295  0.1809 -0.4890
12907SOL    HW145961  10.354   5.217   2.369 -0.4358  1.7140  0.1372
12907SOL    HW245962  10.242   5.233   2.469  0.0609 -0.3403  1.0538
12908SOL     OW45963  11.131   7.573   0.015 -0.4261  0.0025  0.1300
12908SOL    HW145964  11.082   7.499  -0.021 -1.4398  0.5479  0.3220
12908SOL    HW245965  11.223   7.552  -0.001 -0.5522 -2.1143  1.7754
12909SOL     OW45966  10.784   0.561  12.188  0.3872 -0.3684 -0.9748
12909SOL    HW145967  10.827   0.625  12.245  0.9407 -0.4988 -1.2389
12909SOL    HW245968  10.702   0.541  12.232  0.7811 -0.4207 -0.2532
12910SOL     OW45969   4.265  11.124   1.984 -0.1243 -0.3604  0.0712
12910SOL    HW145970   4.180  11.085   2.003 -0.6096  0.6456 -0.0087
12910SOL    HW245971   4.327  11.075   2.039 -0.9971  0.0735  1.4684
12911SOL     OW45972   1.968  11.590   3.344 -0.6830  0.3124 -0.0999
12911SOL    HW145973   2.055  11.589   3.385 -0.5313 -1.6756 -0.3754
12911SOL    HW245974   1.969  11.669   3.289  0.2451  1.3332  1.3004
12912SOL     OW45975   5.796   6.400   9.054  0.4766 -0.0158 -0.1865
12912SOL    HW145976   5.862   6.369   9.116  1.0813  1.5245  0.0082
12912SOL    HW245977   5.843   6.406   8.971 -0.0780 -1.1655 -0.6047
12913SOL     OW45978   8.000   7.104   9.003 -0.6608  0.1589 -0.0402
12913SOL    HW145979   8.039   7.138   8.923 -2.1612 -0.5554 -1.1170
12913SOL    HW245980   7.915   7.069   8.976 -0.8700 -0.8296  1.7138
12914SOL     OW45981   5.380   4.553   0.192  0.1105  0.3732 -0.4495
12914SOL    HW145982   5.410   4.604   0.117 -0.8254 -1.3102 -2.0390
12914SOL    HW245983   5.448   4.486   0.204 -0.4016 -0.1986 -0.6899
12915SOL     OW45984   4.178  11.355   2.609 -0.1425 -0.0653  0.1467
12915SOL    HW145985   4.094  11.399   2.624  0.1079  0.6487 -0.5024
12915SOL    HW245986   4.203  11.322   2.695 -1.0153 -0.1625  0.3781
12916SOL     OW45987   2.663   7.600   6.161 -0.2039  0.2680  0.3603
12916SOL    HW145988   2.731   7.542   6.195 -0.3806  0.0349  0.3165
12916SOL    HW245989   2.707   7.684   6.149  0.3173 -0.1263 -0.5612
12917SOL     OW45990   8.439   3.773  10.429 -0.0864  0.4891  0.0818
12917SOL    HW145991   8.385   3.815  10.362  1.0738  1.5204 -0.2349
12917SOL    HW245992   8.398   3.798  10.512 -0.1210  1.2472 -0.1557
12918SOL     OW45993   6.540   0.029   8.686  0.2814 -0.4353 -0.4911
12918SOL    HW145994   6.541   0.083   8.607 -2.3996  1.8854  0.8995
12918SOL    HW245995   6.587   0.081   8.751  0.7272 -1.4071 -0.0208
12919SOL     OW45996   4.831  11.658   2.055  0.1027 -0.2794 -0.4533
12919SOL    HW145997   4.835  11.603   2.133  2.1464  2.1621  1.3373
12919SOL    HW245998   4.745  11.700   2.060 -0.1292 -0.7962 -0.0125
12920SOL     OW45999   8.650  10.167   8.599  0.2868 -0.1503  0.3309
12920SOL    HW146000   8.573  10.132   8.555  0.4565 -1.1531  0.8042
12920SOL    HW246001   8.626  10.170   8.691  1.0918 -1.3394  0.6134
12921SOL     OW46002   8.915   9.802  12.091  0.2521  0.6015 -0.6656
12921SOL    HW146003   8.948   9.803  12.001 -0.7621 -1.1219 -1.1044
12921SOL    HW246004   8.992   9.821  12.145  1.2381  0.0829 -1.8203
12922SOL     OW46005   1.082  12.472  11.922 -0.1615  0.1918  0.0507
12922SOL    HW146006   1.168  12.454  11.961 -0.1772  1.0164  0.4771
12922SOL    HW246007   1.102  12.512  11.837 -0.1357 -0.3553 -0.2122
12923SOL     OW46008   7.699   9.040  11.273  0.1305 -0.3039 -0.0788
12923SOL    HW146009   7.668   8.979  11.339  0.3190 -0.4478 -0.1228
12923SOL    HW246010   7.720   8.985  11.197  0.2890 -0.1854 -0.1231
12924SOL     OW46011   6.142   6.100   9.604  0.1978 -0.1524 -0.1411
12924SOL    HW146012   6.157   6.045   9.681 -0.2357  0.7208  0.5865
12924SOL    HW246013   6.203   6.067   9.539 -0.1244 -1.5622  0.2332
12925SOL     OW46014   8.781   1.928   4.582 -0.3926 -0.0430  0.3212
12925SOL    HW146015   8.854   1.868   4.571  0.2233  0.8688 -0.8794
12925SOL    HW246016   8.802   1.978   4.661 -0.5268 -0.8552  0.8831
12926SOL     OW46017   9.726   3.149   1.688 -0.5508 -0.0983  0.1962
12926SOL    HW146018   9.663   3.220   1.700  0.8271  1.0257  1.0434
12926SOL    HW246019   9.789   3.182   1.625 -0.0029 -0.6467  0.4467
12927SOL     OW46020   5.747   3.792   5.238 -0.0965  0.1257 -0.0275
12927SOL    HW146021   5.783   3.861   5.292  3.9506 -3.0050  1.8235
12927SOL    HW246022   5.712   3.837   5.161 -0.2498  4.2806  2.2123
12928SOL     OW46023  11.937   0.661   7.884 -0.2052  0.1447 -0.3488
12928SOL    HW146024  12.020   0.617   7.863 -0.3223 -0.4802  0.4551
12928SOL    HW246025  11.878   0.590   7.908 -1.6488  0.3699 -2.9099
12929SOL     OW46026  10.143   7.302   5.549 -0.1502  0.2074  0.0903
12929SOL    HW146027  10.225   7.274   5.590  0.6619  0.1848 -1.4709
12929SOL    HW246028  10.115   7.226   5.498 -0.1959  0.8216 -0.7996
12930SOL     OW46029   2.525  11.055   7.205 -0.2589  0.4401 -0.1785
12930SOL    HW146030   2.447  11.089   7.162 -1.2913  0.3136  1.5363
12930SOL    HW246031   2.523  11.090   7.293  0.3422 -1.4615  0.6595
12931SOL     OW46032   7.249  11.869  12.079 -0.0718 -0.4319 -0.2282
12931SOL    HW146033   7.190  11.916  12.138  0.2715 -0.1909 -0.0737
12931SOL    HW246034   7.308  11.821  12.137  1.0722  0.7915 -0.3394
12932SOL     OW46035   0.958   9.477  11.737 -0.4508 -0.3947  0.0482
12932SOL    HW146036   1.036   9.433  11.770  0.2946  1.1220  0.3704
12932SOL    HW246037   0.909   9.501  11.815 -0.8038 -0.5504 -0.1230
12933SOL     OW46038   0.671   4.481   3.510  0.2071  0.5265 -0.2878
12933SOL    HW146039   0.729   4.457   3.437  0.0293  2.3128 -1.0845
12933SOL    HW246040   0.583   4.469   3.475  0.1071  2.5307 -0.8586
12934SOL     OW46041   1.880   3.949  10.647  0.0257  0.4843  0.4393
12934SOL    HW146042   1.927   4.028  10.674 -0.3140  0.9857 -0.4016
12934SOL    HW246043   1.790   3.964  10.675 -0.3210  0.9896 -0.8770
12935SOL     OW46044   2.315   7.060   5.604 -0.3470  0.0989  1.2325
12935SOL    HW146045   2.361   7.139   5.633  1.3318  0.1597 -1.2886
12935SOL    HW246046   2.223   7.078   5.623  0.1789  1.8852  2.3570
12936SOL     OW46047   9.612   0.458  10.736 -0.3402 -0.2245 -0.0168
12936SOL    HW146048   9.658   0.541  10.721 -0.8574  0.3155  1.2931
12936SOL    HW246049   9.525   0.483  10.768 -0.5724 -1.2687  0.2200
12937SOL     OW46050   0.653   1.889   7.026  0.3865 -0.0758  0.1369
12937SOL    HW146051   0.714   1.815   7.026  0.0385 -0.3633  0.1179
12937SOL    HW246052   0.649   1.916   7.118  1.4151  0.6720 -0.0214
12938SOL     OW46053   5.330   0.023   9.252 -0.2877  1.0718 -0.1713
12938SOL    HW146054   5.333  -0.072   9.262  0.2359  0.9745 -1.1331
12938SOL    HW246055   5.278   0.053   9.326 -1.6038 -0.0798 -0.5750
12939SOL     OW46056   0.546  10.833  10.939 -0.2019  0.1214  0.2753
12939SOL    HW146057   0.453  10.823  10.959 -0.4873  0.8762 -0.6323
12939SOL    HW246058   0.557  10.927  10.924  0.7238  0.0440  0.4463
12940SOL     OW46059   4.845   6.224   5.436 -0.3757  0.0216  0.0609
12940SOL    HW146060   4.903   6.249   5.508  0.5921 -0.5207 -0.4910
12940SOL    HW246061   4.763   6.198   5.478 -0.7897  2.2607  0.7601
12941SOL     OW46062   0.000   0.790  12.402  0.0524 -0.1779 -0.1103
12941SOL    HW146063  -0.011   0.793  12.307 -1.5844  1.3082  0.0637
12941SOL    HW246064   0.005   0.697  12.424 -1.2165 -0.5978 -1.4990
12942SOL     OW46065  10.789  10.243   8.408 -0.4990  0.1230  0.3236
12942SOL    HW146066  10.760  10.231   8.317 -0.3151 -1.0493  0.3941
12942SOL    HW246067  10.783  10.337   8.423 -0.5029  0.3455 -0.9171
12943SOL     OW46068   1.245   2.562  12.255  0.2233  0.1381  0.2671
12943SOL    HW146069   1.270   2.513  12.334 -3.1796 -2.3773  0.0138
12943SOL    HW246070   1.219   2.648  12.287  1.5166  0.1331  1.4461
12944SOL     OW46071   8.450   5.454   8.375 -0.1535 -0.2620  0.7713
12944SOL    HW146072   8.403   5.537   8.372  0.1292 -0.1139  0.3010
12944SOL    HW246073   8.427   5.417   8.460  0.4561  0.7427  1.4003
12945SOL     OW46074  10.932   3.259   2.716 -0.3853  0.1863  0.0532
12945SOL    HW146075  10.885   3.225   2.793  0.0508 -1.4734 -0.3729
12945SOL    HW246076  10.896   3.209   2.643  2.6731 -1.9336 -0.1717
12946SOL     OW46077   0.662   7.337  11.580  0.0793  1.1810  0.5523
12946SOL    HW146078   0.599   7.266  11.566 -1.1765  2.6122 -1.6384
12946SOL    HW246079   0.727   7.327  11.511 -0.0054  2.0353  0.3340
12947SOL     OW46080   0.958   8.186   2.250  0.3698 -0.7603 -0.3973
12947SOL    HW146081   1.051   8.165   2.253  0.5794 -0.2715 -2.3466
12947SOL    HW246082   0.942   8.235   2.330  2.0078 -0.0381 -0.4643
12948SOL     OW46083   4.882   8.203   9.619  0.6957 -0.3143  0.6827
12948SOL    HW146084   4.896   8.238   9.707  0.8322 -2.0594  1.3744
12948SOL    HW246085   4.814   8.137   9.629 -0.8215  0.8837 -0.9129
12949SOL     OW46086   4.402   6.736   5.359  0.5129 -0.0381  0.2186
12949SOL    HW146087   4.344   6.789   5.304 -0.6123 -1.2789  0.1504
12949SOL    HW246088   4.455   6.686   5.297 -0.0111 -0.6537  0.2650
12950SOL     OW46089   4.898  10.700   8.796 -0.4573  0.0211  0.4796
12950SOL    HW146090   4.968  10.752   8.756 -1.5852  1.2739  0.0699
12950SOL    HW246091   4.825  10.761   8.805 -1.1210 -0.9341  2.0195
12951SOL     OW46092  10.454  11.167  12.289  0.3688  1.2097 -0.4893
12951SOL    HW146093  10.550  11.164  12.280  0.2395 -0.9234 -1.8415
12951SOL    HW246094  10.437  11.125  12.373  0.5490 -0.6614 -1.3497
12952SOL     OW46095  12.220   4.693   6.930 -0.1292  0.2049 -0.7808
12952SOL    HW146096  12.247   4.755   6.998 -0.1819 -0.7165  0.0994
12952SOL    HW246097  12.127   4.712   6.917  0.0529  0.8913 -1.1557
12953SOL     OW46098  10.716   9.175  11.151  0.4194  0.6349 -1.0219
12953SOL    HW146099  10.635   9.197  11.104 -1.1342  1.7107  1.9245
12953SOL    HW246100  10.736   9.254  11.201  2.9912  0.1587 -1.1862
12954SOL     OW46101   6.801   6.053   1.245  0.5860  0.0879 -0.4569
12954SOL    HW146102   6.851   6.098   1.313 -0.0286 -1.4763  1.0983
12954SOL    HW246103   6.814   6.106   1.167  1.8051  1.6282  0.7283
12955SOL     OW46104   5.928   2.214  12.118  0.1744 -0.1135 -0.5151
12955SOL    HW146105   5.855   2.274  12.104 -0.3961 -0.5718  0.3496
12955SOL    HW246106   5.932   2.205  12.214  0.8725 -0.6875 -0.5957
12956SOL     OW46107   4.007   5.732   8.976  0.4393 -0.1005  0.1485
12956SOL    HW146108   4.097   5.751   9.005  0.1939  0.5569  0.5001
12956SOL    HW246109   3.953   5.753   9.051 -0.0370 -0.2680 -0.1455
12957SOL     OW46110   6.711   9.755   2.494  0.1298 -0.1159  0.0843
12957SOL    HW146111   6.724   9.815   2.421 -0.6242  2.2562  1.7880
12957SOL    HW246112   6.790   9.701   2.495  2.1540  2.6293  0.0128
12958SOL     OW46113   1.929  12.491  10.239 -0.0778  0.3425  0.1431
12958SOL    HW146114   1.968  12.576  10.222 -1.3728  0.9723  0.1999
12958SOL    HW246115   1.906  12.493  10.332  0.2178 -0.2079  0.2301
12959SOL     OW46116   7.461   0.745   8.498  0.2790 -0.0473  0.1409
12959SOL    HW146117   7.526   0.778   8.560  1.2164 -0.6906 -0.4738
12959SOL    HW246118   7.388   0.718   8.554  2.0068 -2.8160  1.2917
12960SOL     OW46119   3.343   8.996   0.699  0.1980 -0.0531  0.4401
12960SOL    HW146120   3.373   8.947   0.623 -0.1656 -0.4353  0.5417
12960SOL    HW246121   3.379   9.084   0.686  1.8675 -0.6317  0.8480
12961SOL     OW46122   1.139   2.559   0.935 -0.2572  0.0182  0.2922
12961SOL    HW146123   1.061   2.504   0.934  0.5645 -1.2094  0.7220
12961SOL    HW246124   1.212   2.496   0.938  0.6962  1.1116  2.4961
12962SOL     OW46125   4.113   5.555  12.358 -0.5454 -0.1873 -0.1236
12962SOL    HW146126   4.061   5.487  12.402 -0.8112 -0.3032 -0.6042
12962SOL    HW246127   4.048   5.613  12.318 -0.3187 -0.8579 -1.5275
12963SOL     OW46128  12.482   6.989   7.326 -0.6761 -0.3524 -0.7233
12963SOL    HW146129  12.397   7.006   7.285 -0.1749 -0.0070 -1.6562
12963SOL    HW246130  12.477   7.034   7.410 -2.1508 -2.0246  0.1692
12964SOL     OW46131   5.938   3.878   4.994  0.4077  0.0842 -0.1140
12964SOL    HW146132   5.971   3.942   5.058  1.0589  0.4151 -0.7687
12964SOL    HW246133   5.936   3.796   5.043  0.0284  0.5039  0.5989
12965SOL     OW46134   7.730   1.391   4.328 -0.3033 -0.0716  0.3056
12965SOL    HW146135   7.733   1.295   4.317 -0.4307 -0.4880  3.2154
12965SOL    HW246136   7.651   1.407   4.380 -0.7047  1.7501 -0.7747
12966SOL     OW46137  10.684   6.564   8.138 -0.1392  0.0094  0.0329
12966SOL    HW146138  10.688   6.469   8.135 -1.5350 -0.0979  0.8766
12966SOL    HW246139  10.744   6.588   8.210  0.2241 -0.2230 -0.1911
12967SOL     OW46140   3.683  11.654  12.150  0.3554 -0.0557  0.6235
12967SOL    HW146141   3.653  11.569  12.183 -1.0986  0.2793  0.2322
12967SOL    HW246142   3.767  11.635  12.109 -0.2124 -1.4309  0.0315
12968SOL     OW46143   2.091   4.178  10.415 -0.0660  0.1436  0.1446
12968SOL    HW146144   2.012   4.188  10.469 -0.0047  0.7059  0.1362
12968SOL    HW246145   2.148   4.120  10.467 -0.5021 -0.3140  0.1242
12969SOL     OW46146  11.531  12.319   0.505  0.4369  0.2063  0.3537
12969SOL    HW146147  11.483  12.402   0.507 -3.2527 -1.7033  0.5982
12969SOL    HW246148  11.520  12.287   0.415 -2.6706 -2.1489  1.3706
12970SOL     OW46149  10.890   2.945   7.667 -0.1865 -0.3580 -0.2857
12970SOL    HW146150  10.915   2.992   7.747 -0.3531  0.8477 -0.9164
12970SOL    HW246151  10.928   2.858   7.678  2.5155  0.7098 -0.2345
12971SOL     OW46152  11.871   1.111   1.469 -0.2541  0.7707  0.4130
12971SOL    HW146153  11.855   1.074   1.382  3.2272 -1.9361  0.6865
12971SOL    HW246154  11.945   1.171   1.456 -0.9602  1.8566  1.2331
12972SOL     OW46155  10.748   2.995   4.611  0.0389  0.1903 -0.2564
12972SOL    HW146156  10.784   2.921   4.661 -0.2901  1.1156  1.4302
12972SOL    HW246157  10.657   2.970   4.595 -0.3748  0.6162  1.2194
12973SOL     OW46158   8.557   6.395  11.452 -0.1664  0.2307 -0.7692
12973SOL    HW146159   8.486   6.459  11.455  0.2747  0.7035 -0.1120
12973SOL    HW246160   8.619   6.431  11.389 -0.0187  0.3458 -0.5588
12974SOL     OW46161  12.299   7.541   7.070  0.3786  0.1321  0.0649
12974SOL    HW146162  12.365   7.581   7.127  0.3087 -0.2433  0.4109
12974SOL    HW246163  12.317   7.579   6.983  0.1742  1.0912  0.4221
12975SOL     OW46164   6.014   6.553   1.560 -0.0621 -0.4190 -0.1342
12975SOL    HW146165   6.001   6.472   1.512 -2.3217 -0.3862  0.2840
12975SOL    HW246166   6.036   6.618   1.492 -1.1785 -0.7889 -0.8742
12976SOL     OW46167   2.628   9.299   7.008  0.0926  0.0770  0.1738
12976SOL    HW146168   2.712   9.298   6.964 -0.6611  0.0311 -1.3280
12976SOL    HW246169   2.603   9.391   7.010  0.2403  0.1075  0.7539
12977SOL     OW46170   9.038  10.030   1.284  0.2153 -0.7718 -0.1119
12977SOL    HW146171   9.117  10.013   1.335 -0.0661 -1.8404 -0.0018
12977SOL    HW246172   9.066  10.023   1.193  0.2514 -1.1851 -0.0731
12978SOL     OW46173  11.871   6.763   6.702  0.2147  0.3358 -0.0635
12978SOL    HW146174  11.794   6.786   6.651 -0.8893 -1.0374  0.8776
12978SOL    HW246175  11.836   6.739   6.788  1.5259 -1.6163 -0.0024
12979SOL     OW46176   7.807   1.632   0.622  0.2031  0.4916  0.6401
12979SOL    HW146177   7.877   1.567   0.628  0.9015  1.1070 -0.5315
12979SOL    HW246178   7.848   1.715   0.646 -0.6471  0.5511  1.9781
12980SOL     OW46179   4.740   4.547  11.315 -0.7264  0.5083 -0.0010
12980SOL    HW146180   4.822   4.516  11.278 -0.5125  1.0218  0.0347
12980SOL    HW246181   4.672   4.514  11.256 -0.6510 -1.3360  0.8625
12981SOL     OW46182   4.143   7.674   3.949 -0.8180  0.7653 -0.2761
12981SOL    HW146183   4.179   7.762   3.956 -1.3489  1.0881 -1.3889
12981SOL    HW246184   4.122   7.664   3.856  1.4383 -1.4268 -0.6435
12982SOL     OW46185   2.357   1.752   6.373 -0.1936  0.1631 -0.1762
12982SOL    HW146186   2.310   1.823   6.415  1.2442  1.1876 -0.2186
12982SOL    HW246187   2.398   1.792   6.296  0.8715 -0.6214 -0.0440
12983SOL     OW46188   5.571  10.118   1.807  0.4590  0.2007  0.2496
12983SOL    HW146189   5.531  10.198   1.773  0.9502 -0.5003 -2.1310
12983SOL    HW246190   5.566  10.056   1.735  3.6999 -0.6712  0.6466
12984SOL     OW46191   0.624   0.054  10.249 -0.0239 -0.0001 -0.0343
12984SOL    HW146192   0.697  -0.003  10.226  0.1784  0.3071 -0.1635
12984SOL    HW246193   0.578   0.008  10.318  1.4729  0.7038  1.5059
12985SOL     OW46194  12.375   0.418   3.370  0.5277 -0.0155 -0.0283
12985SOL    HW146195  12.385   0.456   3.458 -2.0392 -0.4481  0.5307
12985SOL    HW246196  12.350   0.493   3.315  0.8219  0.0295 -0.1004
12986SOL     OW46197   9.561   4.442   6.399  0.1558  0.4660 -0.2736
12986SOL    HW146198   9.494   4.430   6.466 -0.4147 -0.9360 -1.0606
12986SOL    HW246199   9.577   4.536   6.397  0.6516  0.5065  2.2623
12987SOL     OW46200  12.219   7.149   3.249 -0.3915  0.5649 -0.4177
12987SOL    HW146201  12.136   7.191   3.225 -0.2236  0.4144 -1.2907
12987SOL    HW246202  12.286   7.200   3.204  0.0437  0.9768  0.6670
12988SOL     OW46203  12.424   2.742  12.459 -0.4262 -0.2767 -0.3153
12988SOL    HW146204  12.360   2.670  12.459  0.0116 -0.7185  1.5677
12988SOL    HW246205  12.392   2.802  12.526  0.3946  0.1716 -0.3156
12989SOL     OW46206  11.248   2.782   4.379  0.0383 -0.4236 -0.0115
12989SOL    HW146207  11.228   2.861   4.328 -1.6054 -2.1767 -2.2982
12989SOL    HW246208  11.337   2.797   4.411 -0.1745  2.3034 -0.4060
12990SOL     OW46209   7.435   0.478   9.868  0.1382  0.5963 -0.0346
12990SOL    HW146210   7.529   0.489   9.885  0.2839  1.6408 -1.2870
12990SOL    HW246211   7.393   0.546   9.921 -0.0623 -0.6899  1.5281
12991SOL     OW46212   4.147   7.409   8.961 -0.2834  0.6939  0.7457
12991SOL    HW146213   4.054   7.384   8.956  0.3517 -1.6415 -1.8382
12991SOL    HW246214   4.192   7.328   8.987  1.2553  1.0277 -0.7365
12992SOL     OW46215   5.396   7.845  11.215 -0.7213  0.0134  0.3963
12992SOL    HW146216   5.443   7.767  11.246 -0.7510 -0.4817 -0.7639
12992SOL    HW246217   5.413   7.911  11.282 -0.9062 -1.0550  1.5412
12993SOL     OW46218   8.974   8.871   5.807 -0.3636 -0.0346 -0.1561
12993SOL    HW146219   9.063   8.863   5.840 -0.1945 -0.7022 -0.7737
12993SOL    HW246220   8.918   8.854   5.883 -0.0128  2.4568  0.7833
12994SOL     OW46221   8.815   7.487   3.924 -0.3185 -0.3780 -0.0138
12994SOL    HW146222   8.816   7.478   3.829 -0.1547  1.1233 -0.1704
12994SOL    HW246223   8.722   7.492   3.947 -0.3730 -1.1443 -0.0386
12995SOL     OW46224  11.326   6.328   6.049 -0.3661 -0.0109  0.0028
12995SOL    HW146225  11.322   6.371   5.963  0.3257  0.3615  0.1548
12995SOL    HW246226  11.240   6.344   6.088 -0.4091  0.5044 -0.2939
12996SOL     OW46227   8.552   5.762   0.951  0.1502 -0.8764  0.4411
12996SOL    HW146228   8.519   5.752   1.040 -2.1578  0.6857 -0.1610
12996SOL    HW246229   8.605   5.842   0.954 -2.4559  0.9976 -0.1360
12997SOL     OW46230   7.057   7.790  12.681 -0.4857  0.4419 -0.6400
12997SOL    HW146231   7.103   7.726  12.735  0.6739  1.6189 -0.1496
12997SOL    HW246232   7.017   7.850  12.745 -0.3188  1.0214 -1.0660
12998SOL     OW46233  10.371  10.918   9.596  0.3422  0.0684 -0.4850
12998SOL    HW146234  10.433  10.850   9.624 -0.5694 -0.8872 -0.7208
12998SOL    HW246235  10.397  10.939   9.507  1.1372  0.6486 -0.1349
12999SOL     OW46236   4.913  10.347  11.147 -0.4128  0.3053 -1.0642
12999SOL    HW146237   4.916  10.383  11.058 -0.6354  0.0772 -1.1637
12999SOL    HW246238   4.836  10.291  11.147 -0.2172  0.0374 -0.8264
13000SOL     OW46239   2.259   9.871   4.512 -0.3176  0.2871 -0.1602
13000SOL    HW146240   2.329   9.933   4.531  0.7381 -0.7490 -0.5473
13000SOL    HW246241   2.301   9.785   4.518 -1.3760 -0.3235 -1.1485
13001SOL     OW46242   6.021   1.796   6.637 -0.5413 -0.1231  0.2486
13001SOL    HW146243   6.032   1.871   6.695 -0.1350 -0.3257  0.4329
13001SOL    HW246244   6.110   1.766   6.619 -0.7582 -1.6902  1.6509
13002SOL     OW46245  11.430   9.817   2.210  0.1403  0.2216  0.0757
13002SOL    HW146246  11.498   9.750   2.218 -0.6736 -0.5753  0.4568
13002SOL    HW246247  11.366   9.780   2.149  0.4751  1.3564 -1.0355
13003SOL     OW46248   8.141   6.622  10.260 -0.2679  0.0625 -0.2397
13003SOL    HW146249   8.213   6.570  10.297 -0.4100  1.6257  2.4706
13003SOL    HW246250   8.182   6.704  10.234 -0.5414 -0.2799 -1.8711
13004SOL     OW46251  11.519   4.091  10.499  0.0060  0.1383  0.6152
13004SOL    HW146252  11.455   4.019  10.499 -1.1899  1.1165 -1.1685
13004SOL    HW246253  11.601   4.049  10.472 -0.6893 -0.5742 -0.4956
13005SOL     OW46254   2.359  10.949   6.641  0.3049  0.2898  0.5402
13005SOL    HW146255   2.396  10.916   6.723 -0.0312  0.5902  0.8166
13005SOL    HW246256   2.312  10.874   6.605 -1.7002  0.8022  1.8938
13006SOL     OW46257   2.189   1.938   5.951 -0.2401 -0.0870  0.0111
13006SOL    HW146258   2.221   1.996   6.020 -0.9203 -0.0292  0.2822
13006SOL    HW246259   2.210   1.985   5.870  1.1306 -0.4384  0.1262
13007SOL     OW46260   3.798   2.058   2.241  0.1007  0.1135  0.5590
13007SOL    HW146261   3.871   2.116   2.261  0.3802 -0.4404  1.2376
13007SOL    HW246262   3.831   1.970   2.262 -1.3016 -0.0024  2.6260
13008SOL     OW46263   7.521   9.671   7.104  0.2551 -0.2784  0.2782
13008SOL    HW146264   7.584   9.703   7.039  0.8859 -2.0266 -0.0098
13008SOL    HW246265   7.449   9.734   7.099  0.1844 -0.4414 -2.2756
13009SOL     OW46266  12.307   7.036   5.611  0.0659 -0.2621  0.4389
13009SOL    HW146267  12.237   7.045   5.676  0.6419  0.1319  1.0226
13009SOL    HW246268  12.351   7.121   5.612  0.1244 -0.2722 -0.4303
13010SOL     OW46269  10.152   9.112  11.455 -0.3261  0.5691 -0.0862
13010SOL    HW146270  10.116   9.031  11.489 -2.1791  0.5098 -1.9823
13010SOL    HW246271  10.208   9.085  11.381  2.7598  0.7658  1.9838
13011SOL     OW46272   1.712   4.797  12.247  0.3564  0.6758 -0.0583
13011SOL    HW146273   1.647   4.867  12.241 -0.0278  0.2731 -0.7300
13011SOL    HW246274   1.739   4.797  12.338  0.2897  1.6388 -0.0267
13012SOL     OW46275   2.300   6.608   9.157  0.2143 -0.0341  0.2525
13012SOL    HW146276   2.338   6.524   9.135 -0.9956 -0.6989  0.5918
13012SOL    HW246277   2.306   6.660   9.076 -0.0288 -0.8294 -0.2820
13013SOL     OW46278   8.504   7.979   3.946 -0.2802 -0.2810 -0.2346
13013SOL    HW146279   8.573   7.956   3.883 -0.9845  1.4999 -1.7337
13013SOL    HW246280   8.551   8.027   4.015  0.1896 -0.3742 -0.4802
13014SOL     OW46281   9.453   1.702   0.619  0.1379 -0.1996 -0.2197
13014SOL    HW146282   9.529   1.745   0.658  1.1931 -0.8663 -1.4453
13014SOL    HW246283   9.445   1.619   0.665  0.4823 -0.3583 -0.4468
13015SOL     OW46284   0.672   4.434   1.113 -0.4261 -0.2429 -0.0541
13015SOL    HW146285   0.724   4.370   1.066 -1.1877  1.1594 -3.0269
13015SOL    HW246286   0.735   4.480   1.169  0.5763 -1.7506  0.1090
13016SOL     OW46287   3.651  10.644   4.546 -0.3397  1.1329 -0.6492
13016SOL    HW146288   3.598  10.718   4.577 -0.6084  0.4474  0.6105
13016SOL    HW246289   3.742  10.673   4.559 -0.3964  1.9233 -1.8672
13017SOL     OW46290   9.284   5.764   0.860 -0.6119 -0.0871  0.1131
13017SOL    HW146291   9.212   5.701   0.857 -0.7995  0.1440 -0.2937
13017SOL    HW246292   9.285   5.795   0.951 -2.0296  1.0618 -0.2312
13018SOL     OW46293   5.701   3.918  10.445  0.3411 -0.1907  0.1900
13018SOL    HW146294   5.693   3.974  10.522  0.1879  0.5688 -0.3611
13018SOL    HW246295   5.612   3.916  10.409  0.0031 -1.9701  0.9802
13019SOL     OW46296   5.984   5.816   0.398  0.7891  0.3763  0.2834
13019SOL    HW146297   5.903   5.766   0.387  1.6889 -0.6711 -2.4956
13019SOL    HW246298   5.974   5.859   0.483 -1.8925 -1.1083  0.8490
13020SOL     OW46299   1.320   8.780  10.043  0.2933  0.1145  0.7375
13020SOL    HW146300   1.243   8.751  10.092  0.1196  0.0634  0.4351
13020SOL    HW246301   1.301   8.871  10.020  1.4820  1.0307  3.0012
13021SOL     OW46302  10.607   4.853   3.038 -0.3402  0.0879 -0.3535
13021SOL    HW146303  10.624   4.781   2.977  0.1033 -1.1028  1.1338
13021SOL    HW246304  10.513   4.869   3.030 -0.7322 -1.6348  0.3008
13022SOL     OW46305   2.592   9.878   1.809 -0.0813 -0.2556 -0.3063
13022SOL    HW146306   2.587   9.827   1.728 -0.7656 -1.2747  0.3569
13022SOL    HW246307   2.513   9.932   1.809  0.0297 -0.0914 -0.4184
13023SOL     OW46308   3.403   3.400   9.237  0.2330  0.8144 -0.2707
13023SOL    HW146309   3.397   3.409   9.332  2.3783 -0.8736  0.1019
13023SOL    HW246310   3.380   3.308   9.221 -0.8515  1.2721 -1.5043
13024SOL     OW46311  11.346   9.106   3.296 -0.5148  0.2845 -0.1994
13024SOL    HW146312  11.334   9.151   3.379 -0.4568  1.3936 -0.7730
13024SOL    HW246313  11.439   9.119   3.275 -0.1633 -1.2499  0.2512
13025SOL     OW46314   3.626   3.555   1.212  0.0022 -0.5684  0.1844
13025SOL    HW146315   3.654   3.488   1.149  1.1322  1.9380 -2.2098
13025SOL    HW246316   3.531   3.557   1.205  0.1096 -0.2364 -1.6423
13026SOL     OW46317   4.471   6.821   3.977 -0.5369  0.4076  0.4731
13026SOL    HW146318   4.478   6.849   3.886 -2.6416  0.4914  0.2818
13026SOL    HW246319   4.551   6.855   4.019  0.5122  0.2824 -1.3263
13027SOL     OW46320  10.914   0.151   9.552  0.3350 -0.5247 -0.0539
13027SOL    HW146321  10.961   0.096   9.491 -0.1824 -0.4313 -0.5454
13027SOL    HW246322  10.857   0.091   9.600 -0.6691 -0.3560 -1.0032
13028SOL     OW46323   5.860  10.773   6.921 -0.5194  0.3932  0.0055
13028SOL    HW146324   5.940  10.754   6.971  0.7158  2.2197 -1.1378
13028SOL    HW246325   5.799  10.809   6.986 -0.6687 -1.5076  0.9975
13029SOL     OW46326   0.974  11.383  10.668 -0.0942  0.4603 -0.3830
13029SOL    HW146327   0.996  11.428  10.587 -0.2296  2.2619  0.5306
13029SOL    HW246328   0.895  11.332  10.647 -0.0157  0.7498 -1.4174
13030SOL     OW46329   7.058   2.061   4.252 -0.0143  0.2277  0.2592
13030SOL    HW146330   6.978   2.072   4.200  0.4133  1.3645 -0.1742
13030SOL    HW246331   7.077   1.967   4.247 -0.3780  0.2060 -1.0570
13031SOL     OW46332   8.179   0.160   3.449 -0.3077 -0.2271 -0.3942
13031SOL    HW146333   8.102   0.162   3.505  0.7047  0.3395  1.0524
13031SOL    HW246334   8.196   0.252   3.427 -0.2892 -0.3841 -1.0786
13032SOL     OW46335   0.320   2.076  11.377  0.2113  0.1753 -0.3158
13032SOL    HW146336   0.352   2.037  11.458  1.5567 -0.0492 -0.9264
13032SOL    HW246337   0.390   2.135  11.350 -1.5276  2.6989  0.3033
13033SOL     OW46338  12.570   1.435   0.141 -0.2175  0.4634  0.3121
13033SOL    HW146339  12.559   1.452   0.235 -0.5835 -0.4270  0.4342
13033SOL    HW246340  12.646   1.377   0.136 -0.6855 -0.1418  0.1277
13034SOL     OW46341   0.231   6.284  10.372 -0.0343  0.2207  0.2977
13034SOL    HW146342   0.147   6.306  10.332 -0.7021  0.5897  1.8157
13034SOL    HW246343   0.216   6.199  10.413  1.2595 -1.1592 -1.9033
13035SOL     OW46344  11.634   5.404   9.530  0.1750 -0.4619 -0.3689
13035SOL    HW146345  11.694   5.472   9.559  0.3770 -0.4460 -0.8095
13035SOL    HW246346  11.676   5.366   9.453  0.1903 -1.2710  0.0337
13036SOL     OW46347   0.137  12.175  12.288 -0.6819  0.0578 -0.1576
13036SOL    HW146348   0.129  12.146  12.378 -1.8599  1.0270  0.0789
13036SOL    HW246349   0.220  12.138  12.257  0.5750  1.0589  1.8260
13037SOL     OW46350   4.609   4.170   9.917  0.5379 -0.2035 -0.5794
13037SOL    HW146351   4.695   4.182   9.876  1.9079 -1.6328  1.6174
13037SOL    HW246352   4.594   4.251   9.966 -0.7201  1.1638 -3.0584
13038SOL     OW46353   7.542   5.962  10.259  0.2800  0.1600  0.4645
13038SOL    HW146354   7.620   6.016  10.275  0.1606  0.3084  0.5378
13038SOL    HW246355   7.577   5.874  10.246  0.3641 -0.0612  1.9548
13039SOL     OW46356   7.476   4.042  12.023 -0.0969  0.1302 -0.6698
13039SOL    HW146357   7.540   4.073  11.959 -0.2968  0.1875 -0.8428
13039SOL    HW246358   7.478   4.109  12.092  1.3214 -0.7543  0.2050
13040SOL     OW46359   6.702   0.260   6.432  0.6358  0.3708  0.2203
13040SOL    HW146360   6.614   0.286   6.461  0.6951  1.4173 -0.4836
13040SOL    HW246361   6.697   0.263   6.337  0.8230 -1.7360  0.0902
13041SOL     OW46362  10.424  11.585   4.671 -0.1985 -0.1367 -0.0105
13041SOL    HW146363  10.516  11.611   4.671 -0.0697 -0.3734  2.3676
13041SOL    HW246364  10.380  11.653   4.620  1.0367  1.0365  0.4398
13042SOL     OW46365   3.586   3.493   7.852  0.2656  0.1521  0.4058
13042SOL    HW146366   3.644   3.419   7.867 -1.1441 -0.8513  1.0609
13042SOL    HW246367   3.555   3.518   7.939 -1.4408 -0.3123 -0.0227
13043SOL     OW46368   5.871   9.070  12.210 -0.3565  0.2942 -0.0036
13043SOL    HW146369   5.929   9.025  12.271 -0.4086 -0.1473 -0.2760
13043SOL    HW246370   5.854   9.155  12.251  1.6004  0.9971 -0.5608
13044SOL     OW46371  12.412   4.839  12.009  0.2274 -0.1930  0.4756
13044SOL    HW146372  12.439   4.802  12.093  0.1197 -0.3917  0.4235
13044SOL    HW246373  12.409   4.764  11.950 -0.6530 -0.2215  0.5390
13045SOL     OW46374   0.116   1.149   8.239  0.0613 -0.1414  0.2494
13045SOL    HW146375   0.153   1.062   8.228 -0.4382 -0.4092  0.6136
13045SOL    HW246376   0.176   1.207   8.193 -0.4918 -0.8692 -1.4553
13046SOL     OW46377   0.309   5.143   4.836 -0.4457  0.3244 -0.1659
13046SOL    HW146378   0.301   5.228   4.879 -1.4419 -0.4263  1.2238
13046SOL    HW246379   0.342   5.084   4.904  0.6047 -0.3435 -1.2108
13047SOL     OW46380   7.544   0.212   0.476 -0.2539 -0.2947  0.2581
13047SOL    HW146381   7.581   0.144   0.419 -0.0920  0.5358 -0.6488
13047SOL    HW246382   7.453   0.186   0.489 -0.7800  0.3515 -1.7671
13048SOL     OW46383   5.954  10.668   0.947  0.0929 -0.5186 -0.3764
13048SOL    HW146384   5.921  10.728   1.013  1.3094 -0.3513  0.0983
13048SOL    HW246385   5.876  10.625   0.913 -1.0731  2.6195 -2.0793
13049SOL     OW46386   0.312   8.595   1.154 -0.2423  0.2950 -0.0383
13049SOL    HW146387   0.345   8.528   1.093  1.1194  0.5073  0.4416
13049SOL    HW246388   0.234   8.629   1.111  0.7658  0.5477 -1.7675
13050SOL     OW46389   4.411  11.813   4.456  0.5654 -0.1166  0.1298
13050SOL    HW146390   4.326  11.818   4.413  0.4148  0.2709  0.4680
13050SOL    HW246391   4.399  11.748   4.525 -0.6185  2.6248  2.7098
13051SOL     OW46392   6.776   9.159   7.290  0.0950  0.0454 -0.6133
13051SOL    HW146393   6.812   9.217   7.357 -1.1474  2.2355 -1.6890
13051SOL    HW246394   6.703   9.115   7.332 -1.6440  2.5404 -0.8181
13052SOL     OW46395   4.938  10.504   7.085 -0.0031 -0.1164  0.5261
13052SOL    HW146396   4.933  10.570   7.153 -0.2690  0.9596 -0.4995
13052SOL    HW246397   5.031  10.483   7.078 -0.0020 -0.3911  1.3594
13053SOL     OW46398   3.430   4.930   7.324  0.0257  0.4994  0.1560
13053SOL    HW146399   3.423   5.025   7.332 -0.0367  0.5177 -0.1052
13053SOL    HW246400   3.524   4.912   7.332  0.0467  0.5907  0.1193
13054SOL     OW46401   6.091   0.318   5.819  0.2615  0.5223  0.0266
13054SOL    HW146402   6.147   0.270   5.880 -2.5360 -1.5650  1.1747
13054SOL    HW246403   6.104   0.410   5.842  1.2344 -0.0592  2.0016
13055SOL     OW46404   7.325  11.974   2.129 -0.2021 -0.3553  0.7360
13055SOL    HW146405   7.387  11.951   2.198 -1.8384 -3.3186  1.3663
13055SOL    HW246406   7.245  12.000   2.175 -0.7027 -0.4556 -0.0526
13056SOL     OW46407   7.520   6.092  11.033  0.0601 -0.4259 -0.2686
13056SOL    HW146408   7.519   6.166  10.973 -1.0262 -0.9987 -0.9798
13056SOL    HW246409   7.608   6.095  11.073  0.3542  0.6839 -0.9528
13057SOL     OW46410   6.095  12.691   6.961 -0.6862 -0.2321  0.3445
13057SOL    HW146411   6.089  12.782   6.990  0.8857 -0.0998  0.3133
13057SOL    HW246412   6.107  12.641   7.042 -0.3363 -0.2821  0.2631
13058SOL     OW46413   9.919   2.392   5.754  0.5266 -0.3575 -0.1233
13058SOL    HW146414   9.963   2.311   5.728 -1.1929 -1.4315  0.1521
13058SOL    HW246415   9.862   2.365   5.826  2.5029  1.7998  2.4774
13059SOL     OW46416   6.941   8.157  10.852 -0.5661 -0.3383 -0.0893
13059SOL    HW146417   6.870   8.134  10.911  0.5146 -0.5012  1.2134
13059SOL    HW246418   7.020   8.149  10.906  0.3088  1.3721 -1.0342
13060SOL     OW46419   4.204   0.754   5.181  0.9346  0.2302  0.3021
13060SOL    HW146420   4.128   0.812   5.190 -0.5952 -1.2785 -1.9253
13060SOL    HW246421   4.268   0.806   5.132  0.6317  0.8752  0.5714
13061SOL     OW46422   6.486   3.306   6.378  0.6169  0.0940  0.5279
13061SOL    HW146423   6.473   3.333   6.287  0.2213  0.0054  0.5549
13061SOL    HW246424   6.578   3.281   6.383  1.4207  2.8367  0.8680
13062SOL     OW46425   5.160   1.016   9.382  0.1207  0.1411 -0.4559
13062SOL    HW146426   5.111   0.990   9.304  1.2421  0.6907 -1.3675
13062SOL    HW246427   5.148   0.944   9.443 -2.8624  0.7862 -0.1248
13063SOL     OW46428   5.389   7.855   2.678  0.2971 -0.0359  0.3713
13063SOL    HW146429   5.404   7.864   2.584  1.8972 -0.4834  0.5462
13063SOL    HW246430   5.336   7.931   2.702  3.4528  2.6215 -0.1889
13064SOL     OW46431   2.842   6.631   5.566  0.1647 -0.7357  0.3625
13064SOL    HW146432   2.885   6.715   5.586 -0.1637  0.0310 -1.8750
13064SOL    HW246433   2.753   6.655   5.542  0.7412 -1.3400 -2.8118
13065SOL     OW46434   7.025  12.613   8.431  0.0655 -0.4821 -0.1304
13065SOL    HW146435   6.940  12.570   8.415 -0.6084  0.2726  1.2925
13065SOL    HW246436   7.044  12.659   8.349 -1.1410 -0.2728 -0.3117
13066SOL     OW46437   1.827   2.022  10.908 -0.3723  0.0741  0.4844
13066SOL    HW146438   1.844   1.988  10.996 -0.5036 -1.1047  0.0584
13066SOL    HW246439   1.909   2.011  10.861 -0.2931  0.7320  0.4570
13067SOL     OW46440   3.391  11.754   2.043 -0.1558 -0.5861 -0.2302
13067SOL    HW146441   3.393  11.741   1.949  1.9540 -0.6752 -0.2341
13067SOL    HW246442   3.344  11.678   2.078  1.6253 -2.1568 -1.0490
13068SOL     OW46443   3.266   1.626   4.691  0.7273 -0.2241 -0.2766
13068SOL    HW146444   3.260   1.639   4.596  0.3005 -0.0843 -0.2329
13068SOL    HW246445   3.346   1.575   4.703  0.8469 -0.1422 -0.7020
13069SOL     OW46446   8.451   1.506   1.697 -0.3988 -0.2845  1.0951
13069SOL    HW146447   8.525   1.564   1.711 -1.6391  1.4983  0.5918
13069SOL    HW246448   8.459   1.478   1.605 -0.7660  0.5417  0.8055
13070SOL     OW46449   3.491   3.286   5.273  0.5560 -0.2016 -0.3529
13070SOL    HW146450   3.494   3.312   5.365  0.1793  0.5691 -0.5425
13070SOL    HW246451   3.536   3.358   5.227 -0.4380  0.0881 -0.8938
13071SOL     OW46452   2.183   8.911   8.332 -0.0571  0.1109  0.2772
13071SOL    HW146453   2.092   8.941   8.328 -0.1525 -0.1314  0.5610
13071SOL    HW246454   2.234   8.990   8.348  0.0406  0.6419 -2.2353
13072SOL     OW46455   5.078   1.717  12.278  0.5559 -0.0128 -0.2753
13072SOL    HW146456   5.020   1.752  12.211  1.2323  1.4194 -0.1475
13072SOL    HW246457   5.032   1.734  12.361  2.0091  3.1753  0.0271
13073SOL     OW46458   9.812   4.647   6.562  0.2846  0.2422  0.0383
13073SOL    HW146459   9.812   4.649   6.657  3.2861  2.4011  0.1611
13073SOL    HW246460   9.855   4.564   6.539  1.5558  0.6870  0.7063
13074SOL     OW46461   9.107   7.802   8.098 -0.1514 -0.3626  0.2956
13074SOL    HW146462   9.055   7.765   8.027  1.3915 -1.4868 -0.2993
13074SOL    HW246463   9.174   7.737   8.115  1.0760  1.0341  1.0317
13075SOL     OW46464   4.363   4.039   4.103  0.0385  0.0614  0.1149
13075SOL    HW146465   4.287   4.088   4.069 -0.0519 -1.0109 -1.2942
13075SOL    HW246466   4.357   4.050   4.198 -2.7704 -1.1912  0.1971
13076SOL     OW46467   1.930   3.588   3.704 -0.0785 -0.1289 -0.3677
13076SOL    HW146468   1.965   3.499   3.698 -0.6597 -0.4733  0.9884
13076SOL    HW246469   2.002   3.640   3.740 -0.8831 -0.8631  2.5538
13077SOL     OW46470   3.951   2.911   1.409  0.4460 -0.1194 -0.2374
13077SOL    HW146471   4.022   2.960   1.452  0.8491  0.0694 -1.1074
13077SOL    HW246472   3.988   2.824   1.394 -0.0837 -0.5541  0.8011
13078SOL     OW46473  12.487   0.878  11.448  0.2087 -0.7716 -0.2772
13078SOL    HW146474  12.491   0.964  11.489  4.0678 -1.3494  0.9793
13078SOL    HW246475  12.394   0.865  11.427 -0.5781  3.4821 -0.2303
13079SOL     OW46476   8.153   3.968  10.909  0.9192 -0.0940  0.0650
13079SOL    HW146477   8.168   4.049  10.861 -0.8561  1.5682  2.1099
13079SOL    HW246478   8.058   3.958  10.910  0.9994 -1.0474  1.6609
13080SOL     OW46479  12.119  11.503   6.570  0.3243 -0.1759  0.0742
13080SOL    HW146480  12.167  11.434   6.616 -1.1828 -1.3560 -0.0350
13080SOL    HW246481  12.052  11.531   6.632 -0.2375 -0.1109 -0.5558
13081SOL     OW46482  12.070   2.992   7.138  0.2887  0.7751  0.3718
13081SOL    HW146483  12.026   3.058   7.192  1.4219  1.2401  0.7591
13081SOL    HW246484  12.140   3.040   7.094  0.7321 -0.0472  0.1539
13082SOL     OW46485   9.059  11.298   7.278  0.1377 -0.1338  0.0453
13082SOL    HW146486   9.119  11.298   7.204 -0.6882 -2.0068 -0.7017
13082SOL    HW246487   9.070  11.211   7.317  0.4683  0.7619  2.0819
13083SOL     OW46488   8.029   3.778   6.229 -0.3969  0.1103  0.0445
13083SOL    HW146489   7.958   3.813   6.176 -0.7424 -0.4753  0.1163
13083SOL    HW246490   8.087   3.853   6.244  0.0952  0.1318 -1.7618
13084SOL     OW46491   3.024   4.376   2.648  0.3769  0.5757  0.0522
13084SOL    HW146492   2.983   4.377   2.562 -1.0475 -0.8096  0.6652
13084SOL    HW246493   2.963   4.421   2.705  0.9507  0.8140  0.4891
13085SOL     OW46494   7.645   4.339   5.539 -0.1096 -0.3632 -0.0353
13085SOL    HW146495   7.662   4.433   5.529 -0.1693 -0.4355 -0.9152
13085SOL    HW246496   7.725   4.305   5.578 -0.5686  0.2447  1.4981
13086SOL     OW46497  10.639   0.147   0.843 -0.4489 -0.5654  0.1809
13086SOL    HW146498  10.692   0.145   0.763  1.5426  1.2828  1.3409
13086SOL    HW246499  10.649   0.059   0.881  0.9503 -0.5801 -0.1752
13087SOL     OW46500   7.134   2.317   0.774  0.1506  0.5676  0.0905
13087SOL    HW146501   7.088   2.354   0.849  1.4531  0.3118  1.0535
13087SOL    HW246502   7.222   2.355   0.777  1.0591 -1.3872  0.2359
13088SOL     OW46503   2.733   2.481   4.321 -0.4865 -0.4306 -0.5241
13088SOL    HW146504   2.805   2.422   4.342  0.9428  0.8654 -1.5161
13088SOL    HW246505   2.744   2.555   4.381 -1.2867 -0.4140 -0.3793
13089SOL     OW46506   0.901   2.477   9.936 -0.1929 -0.4250  0.2028
13089SOL    HW146507   0.924   2.558   9.891  0.3665 -0.6326  0.1078
13089SOL    HW246508   0.860   2.506  10.018  0.8063 -0.0395  0.5784
13090SOL     OW46509   0.430   1.464   4.142  0.2560  0.3488 -0.1059
13090SOL    HW146510   0.477   1.523   4.202 -0.9901  0.5613  0.7008
13090SOL    HW246511   0.488   1.455   4.067  2.0012 -0.1267  1.2294
13091SOL     OW46512   4.884   0.876   2.496  0.1673 -0.6329 -0.1227
13091SOL    HW146513   4.831   0.952   2.519  1.0314  0.1020 -0.4937
13091SOL    HW246514   4.852   0.806   2.554 -1.5018 -0.3564 -0.6610
13092SOL     OW46515   3.442   8.242   2.963  0.3944  0.0214 -0.1389
13092SOL    HW146516   3.484   8.212   2.882 -1.2523 -0.0544 -1.0262
13092SOL    HW246517   3.506   8.225   3.032  2.5433  1.6026 -1.5996
13093SOL     OW46518   6.975   0.136   6.203  0.0680 -0.2099  0.2797
13093SOL    HW146519   6.923   0.094   6.272  0.1980 -0.1483  0.4142
13093SOL    HW246520   7.017   0.210   6.246  0.3936 -0.3523  0.2074
13094SOL     OW46521   9.145   8.781   1.099  0.4178  0.2231 -0.0996
13094SOL    HW146522   9.066   8.795   1.150  0.9678  2.8970  0.1812
13094SOL    HW246523   9.115   8.774   1.008 -0.2582 -0.9543  0.1891
13095SOL     OW46524   7.851   6.370   4.672  0.3939  0.4771  0.4385
13095SOL    HW146525   7.803   6.402   4.596 -0.8134  0.3792  1.1304
13095SOL    HW246526   7.924   6.430   4.681  0.4946  0.5505 -0.7303
13096SOL     OW46527   5.541   7.940   8.431  0.0087  0.5384  0.1971
13096SOL    HW146528   5.604   7.958   8.501 -0.3388  0.5530  0.5080
13096SOL    HW246529   5.508   8.026   8.406 -1.1673  0.4150  1.2323
13097SOL     OW46530   2.935   6.516   7.102 -0.8652 -0.3168  0.0585
13097SOL    HW146531   3.008   6.532   7.043 -1.9559  1.4459 -0.8742
13097SOL    HW246532   2.881   6.450   7.058  0.0907 -1.6095  0.7425
13098SOL     OW46533   0.094  12.479  11.880 -0.1335  0.4063  0.0695
13098SOL    HW146534   0.015  12.530  11.894  0.2338  0.9674  0.1497
13098SOL    HW246535   0.149  12.500  11.956 -0.3314 -0.7976  0.5631
13099SOL     OW46536   8.907   4.211   1.658 -0.2072 -0.1547 -0.3300
13099SOL    HW146537   8.823   4.165   1.659  0.0079 -0.5711  1.2135
13099SOL    HW246538   8.919   4.237   1.566 -0.2458 -3.3881 -1.4033
13100SOL     OW46539   5.318   8.873   7.276  0.5254  0.6114 -0.7779
13100SOL    HW146540   5.230   8.837   7.262  0.4281 -0.0028  1.1283
13100SOL    HW246541   5.304   8.949   7.333  1.2746  0.0923  0.1265
13101SOL     OW46542   4.937   3.838   4.362  0.3616  0.3857  0.6458
13101SOL    HW146543   4.922   3.846   4.456 -0.5318  1.4753  0.4375
13101SOL    HW246544   5.026   3.869   4.349  0.3674  0.5750  1.1058
13102SOL     OW46545  11.134   8.868   5.234 -0.0546 -0.0550 -0.0718
13102SOL    HW146546  11.153   8.811   5.159 -0.5433  0.1413 -0.3468
13102SOL    HW246547  11.209   8.927   5.239 -0.0079 -0.0863 -0.3887
13103SOL     OW46548   3.225   6.341  11.885 -0.3592 -0.3844  0.1786
13103SOL    HW146549   3.289   6.328  11.954  0.3274 -0.0102 -0.3703
13103SOL    HW246550   3.277   6.338  11.804 -0.7835  1.4357 -0.2013
13104SOL     OW46551  11.068  11.502   0.685 -0.3232  0.3449  0.4162
13104SOL    HW146552  11.138  11.461   0.635  1.4359  2.4316  1.0090
13104SOL    HW246553  11.031  11.567   0.625 -0.7388  0.2831  0.6044
13105SOL     OW46554  10.514   4.694   6.944 -0.1340  0.0955  0.1165
13105SOL    HW146555  10.440   4.716   6.889  0.3729  1.2476 -0.1355
13105SOL    HW246556  10.475   4.661   7.025 -0.9333  1.0684  0.1423
13106SOL     OW46557   2.754  11.367   6.368  0.2589  0.1624  0.6298
13106SOL    HW146558   2.714  11.358   6.455 -1.8146  1.2051 -0.1731
13106SOL    HW246559   2.843  11.397   6.387 -0.5497  1.6598  2.3842
13107SOL     OW46560   1.347  10.865   7.221  0.8180 -0.1211 -0.2673
13107SOL    HW146561   1.334  10.798   7.153 -2.0376 -1.5248  1.5094
13107SOL    HW246562   1.318  10.946   7.180  1.3615 -0.4834 -1.4412
13108SOL     OW46563  12.677   5.493  11.711 -0.2128 -0.3413  0.1237
13108SOL    HW146564  12.754   5.506  11.766  0.1610 -2.0869  0.0743
13108SOL    HW246565  12.680   5.566  11.649  1.8468 -0.7442 -0.3455
13109SOL     OW46566   5.127   5.952   7.915 -0.1012  0.7850  0.4692
13109SOL    HW146567   5.071   5.882   7.949 -3.3396  1.2681 -3.1409
13109SOL    HW246568   5.087   6.033   7.948  0.0891  1.0781 -0.0150
13110SOL     OW46569   2.044  11.806   6.782 -0.2756  0.0107 -0.2049
13110SOL    HW146570   2.008  11.885   6.823 -1.6439 -1.6433  1.9990
13110SOL    HW246571   2.055  11.744   6.855 -0.2877 -2.2125 -2.0031
13111SOL     OW46572   2.977   1.868   0.851  0.1210 -0.1105  0.3238
13111SOL    HW146573   3.060   1.850   0.896 -0.5295 -0.4222  1.4321
13111SOL    HW246574   2.952   1.956   0.879 -0.8277 -0.7199  1.4565
13112SOL     OW46575  11.214   6.454   0.453  0.2143 -0.0490  0.5481
13112SOL    HW146576  11.145   6.470   0.389  0.6962 -0.1095  0.0102
13112SOL    HW246577  11.290   6.429   0.401  1.4748  2.6937  0.9240
13113SOL     OW46578   5.287   4.062   0.563 -0.0495  0.3312 -0.4972
13113SOL    HW146579   5.264   4.135   0.505  0.2138  1.2850  0.5773
13113SOL    HW246580   5.275   4.096   0.651  1.8889 -0.2939  0.0699
13114SOL     OW46581   8.132   6.211   6.912 -0.3738  0.4924  0.6051
13114SOL    HW146582   8.184   6.208   6.831  0.4492 -0.9247  1.1562
13114SOL    HW246583   8.195   6.193   6.982 -1.1786  1.1431  1.5247
13115SOL     OW46584  10.033   2.061   0.864  0.4664 -0.8282  0.1715
13115SOL    HW146585  10.012   2.103   0.781  2.2325 -2.1798 -1.0333
13115SOL    HW246586   9.953   2.013   0.888 -0.3669  0.3121 -0.2117
13116SOL     OW46587   6.256   0.169   1.273  0.1040 -0.2859 -0.2074
13116SOL    HW146588   6.340   0.126   1.260  0.8298  0.9828  0.1250
13116SOL    HW246589   6.197   0.127   1.210  1.2214 -0.5654 -1.0907
13117SOL     OW46590   2.437   8.409   5.797  0.5602 -0.1580  0.2781
13117SOL    HW146591   2.440   8.365   5.713  2.1698 -0.9594  0.7321
13117SOL    HW246592   2.384   8.352   5.853  0.6833 -0.3270  0.2187
13118SOL     OW46593  12.370   1.561  10.670 -1.0556  0.2919 -0.1744
13118SOL    HW146594  12.419   1.596  10.745  0.5467 -1.8827 -0.1190
13118SOL    HW246595  12.346   1.472  10.697 -0.8134 -0.3822 -2.0728
13119SOL     OW46596  10.766   4.877   4.847  0.4313  0.3792  0.6512
13119SOL    HW146597  10.748   4.901   4.756  0.2219  0.2716  0.6641
13119SOL    HW246598  10.691   4.824   4.873  0.9646 -0.4204  0.5848
13120SOL     OW46599   8.186   1.315   7.329 -0.0772 -0.6459  0.4564
13120SOL    HW146600   8.251   1.370   7.372  0.0818 -2.0474  2.0882
13120SOL    HW246601   8.158   1.252   7.396 -1.2703 -1.6724 -0.9275
13121SOL     OW46602   5.715  12.411   9.559  0.5511 -0.5910 -0.6947
13121SOL    HW146603   5.788  12.349   9.567  0.0341 -0.9862  1.4016
13121SOL    HW246604   5.742  12.486   9.612  0.0334 -0.1276 -1.0806
13122SOL     OW46605   1.656   2.657   6.014 -0.2821 -0.0460 -0.0239
13122SOL    HW146606   1.678   2.712   6.089 -1.5139  0.0717  0.2619
13122SOL    HW246607   1.662   2.717   5.939 -1.1015  0.3602  0.2244
13123SOL     OW46608   3.712  10.056   7.059 -0.6229  0.2007 -0.4162
13123SOL    HW146609   3.637  10.004   7.029  0.2606 -1.6265  0.4208
13123SOL    HW246610   3.728  10.025   7.147  1.5114  0.1149 -0.8007
13124SOL     OW46611   3.484   8.073  10.656 -0.4371  0.4424 -0.5684
13124SOL    HW146612   3.413   8.054  10.594 -0.8583  0.3150 -0.0555
13124SOL    HW246613   3.479   8.003  10.721  0.1462  0.4486 -0.5170
13125SOL     OW46614   5.959   3.590   5.063 -0.4711 -0.5489  0.2092
13125SOL    HW146615   5.960   3.537   5.142 -1.3659 -1.1951 -0.2049
13125SOL    HW246616   6.026   3.551   5.007  0.1192 -0.1286  0.6057
13126SOL     OW46617   4.636   9.730   0.776  0.2583  0.6263  0.7710
13126SOL    HW146618   4.574   9.737   0.848  0.1536  0.1822  0.7266
13126SOL    HW246619   4.715   9.773   0.809  0.0556  0.8524  0.9693
13127SOL     OW46620   9.385   0.679   1.606 -0.1140 -0.3353  0.5383
13127SOL    HW146621   9.367   0.710   1.695  0.5675  0.9011  0.2742
13127SOL    HW246622   9.464   0.728   1.580 -0.8656  0.0543 -1.0922
13128SOL     OW46623   9.201   4.668   9.053 -0.3679 -0.0474 -0.4641
13128SOL    HW146624   9.178   4.647   9.144 -0.2289 -2.4621 -0.9368
13128SOL    HW246625   9.260   4.743   9.060  0.5965 -0.9280  1.5433
13129SOL     OW46626  11.945   0.528   0.876 -0.2912 -0.1817 -0.1947
13129SOL    HW146627  11.923   0.528   0.969 -0.6991  2.7400 -0.2027
13129SOL    HW246628  11.945   0.621   0.851  2.9566 -0.6033 -2.3900
13130SOL     OW46629   6.755   5.204   1.607 -0.0728 -0.5638 -0.2349
13130SOL    HW146630   6.672   5.218   1.562 -0.3882  0.7561  0.6840
13130SOL    HW246631   6.744   5.120   1.651 -2.1534  0.8173  2.2543
13131SOL     OW46632   1.913   0.391   0.515  0.1065 -0.6433  0.0559
13131SOL    HW146633   1.861   0.407   0.437 -0.9071 -1.7021  0.4874
13131SOL    HW246634   1.887   0.460   0.576 -0.9976 -1.2941  0.3509
13132SOL     OW46635   2.201   6.839  11.905 -0.6702  0.0080  0.0011
13132SOL    HW146636   2.107   6.830  11.888 -1.3661  1.1961  2.7398
13132SOL    HW246637   2.242   6.833  11.818 -3.2065 -0.9527 -1.2208
13133SOL     OW46638   4.303   8.214   5.707 -0.1862 -0.2195 -0.2140
13133SOL    HW146639   4.275   8.298   5.746 -0.3114 -0.3720  0.0291
13133SOL    HW246640   4.390   8.231   5.673 -0.4903  0.2147 -0.8058
13134SOL     OW46641   0.912   8.865  10.475 -0.2055 -0.1723  0.0661
13134SOL    HW146642   1.001   8.869  10.439 -1.1686  2.5210 -2.3882
13134SOL    HW246643   0.860   8.829  10.403 -1.2343 -1.2242  1.3007
13135SOL     OW46644   5.604  10.031   9.922 -0.6438  0.1316 -0.5285
13135SOL    HW146645   5.638   9.951   9.961  0.1112  0.7980  0.2292
13135SOL    HW246646   5.585  10.007   9.832  1.5013 -0.3986 -0.9037
13136SOL     OW46647   8.636   3.445   7.107 -0.1836 -0.1389 -0.1390
13136SOL    HW146648   8.692   3.421   7.033 -1.0741 -0.4152 -0.7369
13136SOL    HW246649   8.616   3.538   7.092  1.5512  0.4955  1.0518
13137SOL     OW46650   3.455   0.794   4.821 -0.1547  0.3622  0.9896
13137SOL    HW146651   3.444   0.727   4.753  0.3762  1.3035 -0.0586
13137SOL    HW246652   3.367   0.808   4.855 -0.3686 -0.4018  0.7693
13138SOL     OW46653   7.688  12.113   6.920 -0.5423  0.2043 -0.0645
13138SOL    HW146654   7.653  12.200   6.899 -0.7781  0.0987 -0.1196
13138SOL    HW246655   7.782  12.126   6.929 -0.6232  0.5343  0.2986
13139SOL     OW46656   5.583   1.871  10.285  0.4360 -0.0094  0.2824
13139SOL    HW146657   5.614   1.900  10.371 -1.4716 -1.2566  1.4787
13139SOL    HW246658   5.661   1.832  10.244  1.0390 -1.0516  2.2268
13140SOL     OW46659   9.776   7.745   3.659  0.8660  0.5670  0.6206
13140SOL    HW146660   9.771   7.732   3.564  0.2455 -1.6969  0.9110
13140SOL    HW246661   9.867   7.773   3.674  1.7235 -1.4491 -0.4242
13141SOL     OW46662   1.039   5.268   9.893  0.0036 -0.1824  0.1272
13141SOL    HW146663   1.093   5.297   9.966  1.6190 -0.8782 -0.7179
13141SOL    HW246664   1.025   5.347   9.840 -0.2513  0.1055  0.6239
13142SOL     OW46665   0.872   1.846   4.303  0.0740  0.3960 -0.1169
13142SOL    HW146666   0.932   1.827   4.375 -0.3267  0.5691  0.2634
13142SOL    HW246667   0.790   1.872   4.345 -1.0605 -2.1163 -0.5634
13143SOL     OW46668   5.863   5.565   2.482 -0.0144  0.5822 -0.4829
13143SOL    HW146669   5.798   5.625   2.446 -0.3106  1.0683  0.8190
13143SOL    HW246670   5.813   5.489   2.511 -0.0327  1.0016  0.6186
13144SOL     OW46671   3.541   3.111   9.474 -0.4308 -0.0901  0.4197
13144SOL    HW146672   3.552   3.023   9.437 -0.1522  0.4474 -0.8101
13144SOL    HW246673   3.579   3.104   9.562  0.6687 -0.9022 -0.0920
13145SOL     OW46674   2.891   4.941  11.056  0.2641 -0.4375 -0.5265
13145SOL    HW146675   2.824   5.009  11.063  2.1432  1.6129 -1.5479
13145SOL    HW246676   2.968   4.977  11.099  0.8020 -2.7245  0.5800
13146SOL     OW46677  10.451  12.460   7.134 -0.3019  0.3055 -0.3966
13146SOL    HW146678  10.484  12.492   7.218 -0.7262 -2.1494  0.8106
13146SOL    HW246679  10.525  12.469   7.074  1.6524 -2.1158  1.4445
13147SOL     OW46680   9.368   4.026   1.723 -0.5378 -0.0115 -0.1908
13147SOL    HW146681   9.387   4.120   1.726 -0.0516 -0.1092 -0.1770
13147SOL    HW246682   9.272   4.021   1.720 -0.5695  0.4814 -0.0604
13148SOL     OW46683  12.073   7.190   7.378 -0.0424  0.0675  0.0968
13148SOL    HW146684  12.118   7.218   7.298  0.8762  0.6011  0.7763
13148SOL    HW246685  11.989   7.237   7.376 -0.6050 -0.9397 -1.1871
13149SOL     OW46686   1.464  12.177   1.091  0.0154 -0.3331  0.3491
13149SOL    HW146687   1.459  12.210   1.001  0.8557 -1.9338 -0.3316
13149SOL    HW246688   1.522  12.101   1.085  0.8569  0.0844  2.4327
13150SOL     OW46689   4.135  12.154   5.770  0.0305  0.1551  0.7947
13150SOL    HW146690   4.060  12.102   5.797  0.5112  0.5865  3.2316
13150SOL    HW246691   4.097  12.233   5.732 -0.7097 -0.6173 -0.1022
13151SOL     OW46692   7.512   6.485  10.456 -0.2376 -0.8952  0.3888
13151SOL    HW146693   7.433   6.469  10.507 -0.4157  0.6702  0.6594
13151SOL    HW246694   7.578   6.510  10.522  0.0115 -0.5414  0.0080
13152SOL     OW46695   8.707   4.533   8.499 -0.3250  0.3185 -0.0267
13152SOL    HW146696   8.641   4.499   8.560  0.2559  0.6200  0.7852
13152SOL    HW246697   8.690   4.627   8.497 -0.5322  0.2738 -0.5752
13153SOL     OW46698   5.839   8.794   8.604  0.3488  0.0485  0.0859
13153SOL    HW146699   5.799   8.839   8.530 -3.1252  0.4244  1.9432
13153SOL    HW246700   5.799   8.707   8.603  0.8053 -0.1876  1.0565
13154SOL     OW46701   2.262   9.059   0.185  0.3845 -0.8737 -0.5698
13154SOL    HW146702   2.185   9.114   0.200  1.5689  1.2055 -1.6291
13154SOL    HW246703   2.336   9.117   0.202  1.7431 -2.5553 -0.4648
13155SOL     OW46704   3.712  10.777  10.766  0.4949 -0.1138  0.7750
13155SOL    HW146705   3.711  10.870  10.787  2.4471  0.5371 -1.5863
13155SOL    HW246706   3.800  10.748  10.788  0.9601 -0.5838 -1.4697
13156SOL     OW46707  12.180   6.002   3.501  0.0378 -0.5775  0.2842
13156SOL    HW146708  12.148   5.914   3.524 -0.2740 -0.4182  0.4667
13156SOL    HW246709  12.270   5.988   3.473  0.2309 -0.8619  1.0180
13157SOL     OW46710   8.369   6.416   0.459  0.3159  0.2681 -0.5551
13157SOL    HW146711   8.419   6.481   0.409  0.6667  1.1251  0.8524
13157SOL    HW246712   8.422   6.399   0.537 -0.6883 -0.2396  0.0403
13158SOL     OW46713  12.531  12.673   7.215 -0.2559 -0.2285  0.0688
13158SOL    HW146714  12.440  12.665   7.244 -1.0462 -1.5847 -2.4381
13158SOL    HW246715  12.526  12.659   7.120  2.6131 -0.5370 -0.0986
13159SOL     OW46716   2.074   8.568   4.242  0.6988  0.1390 -0.3278
13159SOL    HW146717   2.105   8.607   4.324  0.3656 -2.3111  1.0560
13159SOL    HW246718   2.154   8.542   4.196  0.8624 -0.1673  0.1219
13160SOL     OW46719   9.490   2.215   1.224  0.3239  0.4361  0.6962
13160SOL    HW146720   9.489   2.134   1.274 -0.4585  0.3771  0.6004
13160SOL    HW246721   9.400   2.226   1.195  0.4685  1.2264  0.5250
13161SOL     OW46722   1.754   7.650   3.062  0.1914  0.2737  0.1058
13161SOL    HW146723   1.794   7.706   3.128 -0.2234  0.1310  0.4862
13161SOL    HW246724   1.662   7.643   3.089  0.2980 -0.8475  0.2465
13162SOL     OW46725  12.246   4.168   7.289  0.6807  0.4930  0.9411
13162SOL    HW146726  12.255   4.164   7.194 -0.6942  1.0431  0.7619
13162SOL    HW246727  12.163   4.214   7.303  0.2766 -0.5843  2.3842
13163SOL     OW46728   6.576   9.098   5.136  0.5673 -0.4926  0.1489
13163SOL    HW146729   6.618   9.032   5.193  0.8236 -1.4507 -1.1050
13163SOL    HW246730   6.638   9.109   5.064  0.3060  0.8067  0.1116
13164SOL     OW46731   1.592   1.596   5.091  0.0172  0.5663  0.4901
13164SOL    HW146732   1.566   1.565   5.177  0.0060 -0.7155  0.0437
13164SOL    HW246733   1.532   1.553   5.030 -1.4709  3.1618 -0.0541
13165SOL     OW46734   3.140   2.325   2.830  0.2138  0.2795 -0.1780
13165SOL    HW146735   3.234   2.307   2.841  0.2303 -0.1078 -0.8767
13165SOL    HW246736   3.136   2.420   2.815  0.3740  0.4883  1.0077
13166SOL     OW46737  12.608   8.569  12.227  0.0455 -0.1558 -0.0475
13166SOL    HW146738  12.571   8.629  12.161 -0.0394  1.2860  1.2441
13166SOL    HW246739  12.685   8.531  12.184 -0.2457  0.4298 -1.1268
13167SOL     OW46740   3.357   9.071   1.813 -0.1819 -0.1423  0.6742
13167SOL    HW146741   3.378   9.002   1.751 -2.7022 -1.2710  0.9615
13167SOL    HW246742   3.315   9.026   1.887  2.4816  1.1559  3.2045
13168SOL     OW46743   4.097   0.849  12.354  0.1924  0.7879 -0.1856
13168SOL    HW146744   4.065   0.885  12.271  1.1599  4.2709  0.7858
13168SOL    HW246745   4.018   0.838  12.407 -0.2017  0.8054 -0.7553
13169SOL     OW46746   3.755   8.704   8.410 -0.3277 -0.0620 -0.1672
13169SOL    HW146747   3.826   8.653   8.450  0.6561  1.9411  0.7378
13169SOL    HW246748   3.790   8.732   8.326  0.2481  1.4322  0.5323
13170SOL     OW46749   3.486  10.941   5.259 -0.0340  0.0289  0.1715
13170SOL    HW146750   3.528  10.868   5.304  0.5603 -1.2343 -2.2605
13170SOL    HW246751   3.452  10.903   5.178 -0.8022  2.2033 -0.5937
13171SOL     OW46752   2.570   6.369   4.425 -0.3522  0.1908  0.5339
13171SOL    HW146753   2.653   6.351   4.381 -0.5659  0.3257  0.0701
13171SOL    HW246754   2.584   6.454   4.468 -0.2619  0.2302  0.4272
13172SOL     OW46755   9.345   4.622   4.187 -0.5709  0.3387  0.2493
13172SOL    HW146756   9.394   4.540   4.176 -0.1146  0.5384  0.7054
13172SOL    HW246757   9.254   4.599   4.168 -0.2279  0.0887 -1.2149
13173SOL     OW46758  11.609   8.486   3.467  0.0856  0.3894 -0.6694
13173SOL    HW146759  11.566   8.420   3.412 -0.9886  1.3521 -1.0263
13173SOL    HW246760  11.664   8.536   3.407 -0.2171  0.7256 -0.6719
13174SOL     OW46761   8.604   1.741   9.604 -0.5226  0.3283  0.3150
13174SOL    HW146762   8.605   1.818   9.547 -1.8631  0.0151 -0.1538
13174SOL    HW246763   8.540   1.762   9.672  0.7104  0.5045  1.4644
13175SOL     OW46764   0.680  10.263  12.178  0.0079  0.2004  0.3081
13175SOL    HW146765   0.638  10.203  12.117 -0.3417 -0.2622  0.9843
13175SOL    HW246766   0.676  10.348  12.135  1.1800 -0.3704 -0.9912
13176SOL     OW46767   9.296   3.149   4.301  0.2915 -0.1918 -0.4581
13176SOL    HW146768   9.316   3.226   4.354 -0.3226 -0.7890  0.6662
13176SOL    HW246769   9.203   3.133   4.317  0.5392 -1.4884 -0.2465
13177SOL     OW46770   0.820   8.974   6.677  0.6109 -0.4508 -0.1760
13177SOL    HW146771   0.903   9.014   6.701  0.8115 -1.7701  1.5391
13177SOL    HW246772   0.758   9.047   6.678  1.4214  0.2565  0.3075
13178SOL     OW46773   9.989   8.085  11.506  0.2216  0.1064  1.1839
13178SOL    HW146774   9.942   8.151  11.455  0.0300  0.6574  2.0448
13178SOL    HW246775  10.050   8.045  11.444 -2.4825 -1.8311 -0.4373
13179SOL     OW46776   4.582   5.510   5.095  0.3080  0.2801  0.9832
13179SOL    HW146777   4.487   5.521   5.096  0.0977 -1.0966 -0.0611
13179SOL    HW246778   4.610   5.531   5.184 -0.9883  0.5266  1.3523
13180SOL     OW46779   6.312   3.559   2.650  0.0974  0.3600 -0.1726
13180SOL    HW146780   6.240   3.564   2.713 -0.2199  0.5220 -0.5403
13180SOL    HW246781   6.366   3.636   2.669  0.1050  0.3061  0.0247
13181SOL     OW46782   4.211   1.847   0.951 -0.0999  0.3589 -0.1768
13181SOL    HW146783   4.154   1.809   1.018  0.8428 -1.2331 -0.2239
13181SOL    HW246784   4.220   1.778   0.885  1.0018  0.9625 -0.6952
13182SOL     OW46785   6.373   1.069   8.811 -0.1385  0.3247 -0.2307
13182SOL    HW146786   6.346   1.136   8.747  0.1324  0.7881  0.1359
13182SOL    HW246787   6.459   1.098   8.841  1.1380 -1.4905 -1.8898
13183SOL     OW46788   3.215   6.701  11.662  0.0484  0.4635 -0.0436
13183SOL    HW146789   3.252   6.624  11.618  1.0359  0.4299  0.8215
13183SOL    HW246790   3.134   6.719  11.614 -0.1895 -1.1007 -0.2880
13184SOL     OW46791   8.512   7.568   6.983 -0.3332  0.1953 -0.4599
13184SOL    HW146792   8.568   7.574   7.060  0.7082  1.2640 -1.2719
13184SOL    HW246793   8.427   7.541   7.018  0.5692 -1.1614  0.8448
13185SOL     OW46794   1.319  11.903   4.176  0.3078  0.3183  0.2851
13185SOL    HW146795   1.308  11.816   4.136  1.1840  0.6498 -0.7578
13185SOL    HW246796   1.395  11.939   4.131  1.5042  0.6584  2.4413
13186SOL     OW46797   2.647   7.437   5.868  0.1131  0.3480 -0.4433
13186SOL    HW146798   2.637   7.478   5.954  0.8469  1.0866 -0.7003
13186SOL    HW246799   2.663   7.510   5.808 -1.2286 -0.0756 -1.3569
13187SOL     OW46800   3.827   4.691  12.397 -0.1311 -0.0357 -0.2459
13187SOL    HW146801   3.920   4.711  12.407  0.1478 -1.1700 -0.4123
13187SOL    HW246802   3.784   4.739  12.467  0.2855  2.3519 -1.5067
13188SOL     OW46803  11.120   7.144   8.890 -0.1338 -0.0219 -0.2926
13188SOL    HW146804  11.212   7.132   8.913 -0.0464 -0.2332 -0.7454
13188SOL    HW246805  11.077   7.065   8.922 -0.0683 -0.1660 -0.5643
13189SOL     OW46806   2.132   2.799   4.384 -0.1287  0.2992  0.0356
13189SOL    HW146807   2.125   2.774   4.476  1.5201  1.0525  0.4109
13189SOL    HW246808   2.225   2.789   4.364 -0.1416  1.9308 -1.0052
13190SOL     OW46809   2.713   4.882  10.659  0.1696  0.2157 -0.0659
13190SOL    HW146810   2.738   4.820  10.728 -1.3839 -2.0588 -1.3983
13190SOL    HW246811   2.679   4.958  10.706 -1.4318 -1.5209  1.7653
13191SOL     OW46812   1.144   6.913   4.509 -0.3503  0.6032 -0.1976
13191SOL    HW146813   1.187   6.844   4.559 -0.1598  1.1619  0.4187
13191SOL    HW246814   1.158   6.888   4.418 -1.4780 -0.9048  0.0143
13192SOL     OW46815   1.306   4.174   0.956 -0.3893  0.3433 -0.0908
13192SOL    HW146816   1.266   4.254   0.921  0.6108  1.1586  0.5472
13192SOL    HW246817   1.367   4.206   1.023  1.3143 -0.8100 -1.0109
13193SOL     OW46818   1.756  11.134   5.817  0.0331  0.5573 -0.1431
13193SOL    HW146819   1.790  11.047   5.793 -2.2404 -0.4269 -0.0365
13193SOL    HW246820   1.814  11.163   5.888  0.3924 -1.2224  0.3480
13194SOL     OW46821   6.153   1.145  11.924 -0.3451  0.0245  0.2582
13194SOL    HW146822   6.069   1.113  11.893 -1.1228  2.3102 -0.1717
13194SOL    HW246823   6.160   1.111  12.013 -0.6419 -2.0340 -0.4555
13195SOL     OW46824   4.968  12.358   4.681  0.4888  0.8393  0.5784
13195SOL    HW146825   5.057  12.374   4.649 -0.0124  2.2151 -0.1906
13195SOL    HW246826   4.913  12.417   4.630 -0.8422  0.2259  1.2578
13196SOL     OW46827   1.133  12.111   2.425 -0.0389 -1.3123 -0.0432
13196SOL    HW146828   1.226  12.089   2.418  0.3248  0.6468 -2.2536
13196SOL    HW246829   1.126  12.198   2.388 -2.6140 -0.8979  1.2186
13197SOL     OW46830   1.212  10.180   6.609  0.6505 -0.0857  0.5330
13197SOL    HW146831   1.218  10.131   6.691  0.8815 -2.5569 -0.8850
13197SOL    HW246832   1.295  10.226   6.603  2.2511 -2.8567 -0.0363
13198SOL     OW46833  10.568  11.319   0.574 -0.3894  0.6206 -0.3475
13198SOL    HW146834  10.661  11.341   0.587 -0.6352  1.3437  0.2860
13198SOL    HW246835  10.557  11.316   0.479  0.5362 -0.6237 -0.4439
13199SOL     OW46836   0.107   4.866   5.449 -0.0161 -0.2634 -0.0050
13199SOL    HW146837   0.023   4.844   5.409  0.6898 -1.0216 -1.1453
13199SOL    HW246838   0.094   4.851   5.543 -1.4115  0.5453 -0.0338
13200SOL     OW46839  12.107   9.523   0.108 -0.2194  0.0780  0.1714
13200SOL    HW146840  12.119   9.442   0.058 -0.7497  0.4102 -0.4964
13200SOL    HW246841  12.181   9.523   0.170  0.3777 -0.3957 -0.5209
13201SOL     OW46842   2.162   3.033   1.590  0.0141 -0.1028  0.8285
13201SOL    HW146843   2.181   2.973   1.518 -1.9775  0.5767 -0.3699
13201SOL    HW246844   2.105   2.984   1.648 -1.7006  0.5497 -0.2045
13202SOL     OW46845   5.253   6.319   9.999 -0.1629  0.0224 -0.2810
13202SOL    HW146846   5.260   6.400  10.050  1.5412 -0.3280  0.1221
13202SOL    HW246847   5.169   6.281  10.025 -1.5693  2.2031 -1.3487
13203SOL     OW46848   6.782   1.643  11.619 -0.2138  0.0217 -0.1874
13203SOL    HW146849   6.842   1.569  11.612  0.7430  0.8382 -0.9016
13203SOL    HW246850   6.703   1.606  11.658  1.0316 -0.9146  1.6089
13204SOL     OW46851   8.457   4.244   9.057 -0.4099 -0.1816 -0.0430
13204SOL    HW146852   8.376   4.214   9.016  0.1950 -1.8865 -0.0950
13204SOL    HW246853   8.503   4.163   9.080  1.7249  0.7017 -0.9266
13205SOL     OW46854   5.766  10.047   6.869 -0.7822 -0.1526 -0.8375
13205SOL    HW146855   5.747  10.140   6.860  0.9696  0.2673 -0.6809
13205SOL    HW246856   5.845  10.034   6.816  2.0592 -0.4002  3.0442
13206SOL     OW46857  10.575   7.620  11.849  0.1054  0.2230 -0.5879
13206SOL    HW146858  10.629   7.568  11.790  0.6894 -1.4609  1.3179
13206SOL    HW246859  10.635   7.650  11.917 -0.7612  1.0998 -0.1798
13207SOL     OW46860   2.139   1.114  11.613 -0.4963  0.8527  0.4693
13207SOL    HW146861   2.127   1.166  11.693 -0.8587 -0.5396  1.3607
13207SOL    HW246862   2.050   1.093  11.585 -0.3481  0.3633  0.3599
13208SOL     OW46863   7.927  11.355   1.355 -0.0983  0.2177  0.8567
13208SOL    HW146864   7.851  11.304   1.327  1.6843 -2.7337  0.9774
13208SOL    HW246865   8.001  11.295   1.345  2.0095  2.3797  2.3733
13209SOL     OW46866  10.186   2.968  11.673  0.1700  0.2319 -0.0706
13209SOL    HW146867  10.150   3.045  11.628 -0.3674 -1.4500 -2.7945
13209SOL    HW246868  10.263   3.000  11.719 -1.3966  2.8145  0.9321
13210SOL     OW46869   1.615  11.499   0.117  0.0131 -0.0229  0.3244
13210SOL    HW146870   1.559  11.548   0.176  0.2497 -0.4737  0.9250
13210SOL    HW246871   1.688  11.558   0.097 -0.1941  0.2172  0.2792
13211SOL     OW46872   1.964   5.909  10.122  0.1019  0.2769  0.0698
13211SOL    HW146873   1.937   5.821  10.149  0.0202  0.2416 -0.1267
13211SOL    HW246874   2.057   5.914  10.145  0.5875 -0.5049 -1.5272
13212SOL     OW46875   3.197   9.795   8.852 -0.1601 -0.7354 -0.5487
13212SOL    HW146876   3.119   9.809   8.905  0.9504  1.9577  0.5402
13212SOL    HW246877   3.171   9.822   8.764 -0.8528 -1.2636 -0.5126
13213SOL     OW46878   9.079   6.636   4.964 -0.6043  0.2365  0.2868
13213SOL    HW146879   9.131   6.604   5.038 -1.9223 -0.9417  0.7329
13213SOL    HW246880   9.110   6.584   4.889  1.0817  1.7715 -0.1577
13214SOL     OW46881   9.015   8.392  11.358 -0.1931  0.2080  0.0817
13214SOL    HW146882   8.926   8.382  11.393 -0.4326  0.3861 -0.4714
13214SOL    HW246883   9.059   8.450  11.420 -0.6295  0.5572  0.0717
13215SOL     OW46884   2.102  11.582   6.931  0.0220 -0.4890 -0.2824
13215SOL    HW146885   2.068  11.493   6.928  0.9760 -0.9118  0.4272
13215SOL    HW246886   2.176  11.582   6.870  1.5057 -0.9026  1.4260
13216SOL     OW46887   0.990   8.924   2.086  0.0084  0.1349  0.4190
13216SOL    HW146888   1.016   8.886   2.170 -0.8483  0.5670  0.8939
13216SOL    HW246889   0.958   8.850   2.035  0.2137 -0.0788  0.5998
13217SOL     OW46890   0.192  11.288   7.368  0.3142  0.2833  0.3647
13217SOL    HW146891   0.136  11.350   7.321  1.8229  0.5408 -1.2150
13217SOL    HW246892   0.273  11.337   7.385  0.4604 -0.3777  1.6788
13218SOL     OW46893   1.638   2.423   0.805 -0.0082 -0.3097 -0.2528
13218SOL    HW146894   1.675   2.404   0.719 -1.6534  0.8208 -1.2613
13218SOL    HW246895   1.698   2.487   0.843  0.9998 -1.1846 -0.3064
13219SOL     OW46896   5.401   0.258   6.180  0.4699  0.1590  0.2686
13219SOL    HW146897   5.490   0.224   6.191 -0.0543 -1.3467  0.2131
13219SOL    HW246898   5.350   0.213   6.248 -0.4677  0.0866 -0.4615
13220SOL     OW46899   8.188  11.867   4.729 -0.0923  0.2226  0.6047
13220SOL    HW146900   8.258  11.861   4.663 -0.0779 -0.3505  0.6654
13220SOL    HW246901   8.107  11.857   4.680 -0.0781 -0.3010  0.6806
13221SOL     OW46902   6.723   1.528   2.568  0.3020  0.1409 -0.4607
13221SOL    HW146903   6.817   1.510   2.564  0.0816 -1.5763  0.8911
13221SOL    HW246904   6.682   1.446   2.542 -0.7831 -0.2088  2.0623
13222SOL     OW46905   8.382   1.979  11.610  0.2368  0.2700  0.1496
13222SOL    HW146906   8.295   2.005  11.582  0.7429  2.1291  0.1754
13222SOL    HW246907   8.371   1.949  11.701 -0.5449 -0.6894 -0.2506
13223SOL     OW46908   6.201   8.122   2.320 -0.2713  0.5653 -0.0082
13223SOL    HW146909   6.208   8.099   2.413 -1.9727  0.0793  0.0398
13223SOL    HW246910   6.209   8.218   2.318 -0.2539  0.5812  0.6310
13224SOL     OW46911   4.019   9.909   2.165  0.3127 -0.3411 -0.5507
13224SOL    HW146912   3.964   9.937   2.092 -1.0575  0.3457  0.6943
13224SOL    HW246913   3.961   9.912   2.241  1.0260 -3.2774  0.2334
13225SOL     OW46914   7.506   6.348   4.730 -0.0215  0.2458 -0.4700
13225SOL    HW146915   7.589   6.325   4.772 -0.8329 -2.9372 -0.3538
13225SOL    HW246916   7.527   6.351   4.637  0.5888  1.5558 -0.3213
13226SOL     OW46917   6.481  10.831   3.565  0.4953 -0.6369  0.0919
13226SOL    HW146918   6.540  10.905   3.546 -0.2021 -0.1699 -0.2798
13226SOL    HW246919   6.474  10.785   3.482 -1.5311  0.6720 -0.5354
13227SOL     OW46920   8.696   1.849   0.965  0.1005  0.0397  0.1948
13227SOL    HW146921   8.723   1.866   1.056 -3.0715 -1.4929  1.5811
13227SOL    HW246922   8.752   1.777   0.936  1.0542  0.4483  0.9847
13228SOL     OW46923   5.248   5.583   6.756 -0.2503  0.4664  0.4848
13228SOL    HW146924   5.271   5.639   6.829  4.1443  1.1116 -1.0981
13228SOL    HW246925   5.259   5.494   6.790  1.0781  0.7468  0.8480
13229SOL     OW46926   4.126   0.741   2.236  0.0575  0.5124 -0.3901
13229SOL    HW146927   4.074   0.666   2.206  0.2747 -0.6792  2.0417
13229SOL    HW246928   4.213   0.726   2.200  0.5575 -1.3774  1.4735
13230SOL     OW46929   0.714  11.013   0.460  0.6311  0.1187 -0.2307
13230SOL    HW146930   0.673  10.973   0.383  1.4107 -0.5083 -0.3288
13230SOL    HW246931   0.666  11.095   0.472  0.8685  0.5000 -1.7179
13231SOL     OW46932   9.028   3.979  11.946  0.1251  0.5200 -0.2417
13231SOL    HW146933   9.071   3.908  11.994  1.1760  1.1197 -0.2769
13231SOL    HW246934   9.088   4.053  11.953 -0.4675  1.1036 -1.1000
13232SOL     OW46935  11.360   1.362   6.873 -0.4469 -0.1336 -0.5045
13232SOL    HW146936  11.296   1.385   6.805 -1.8238  0.7146  1.0026
13232SOL    HW246937  11.393   1.447   6.903 -3.5579 -0.0071  3.2469
13233SOL     OW46938  11.142   9.485   3.321  0.1210  0.7374  0.4245
13233SOL    HW146939  11.049   9.508   3.330  0.2664  1.1889  0.8589
13233SOL    HW246940  11.161   9.494   3.228 -0.3542  0.3162  0.2857
13234SOL     OW46941   8.444   5.706   4.152  0.2725  0.0189 -0.2086
13234SOL    HW146942   8.453   5.764   4.227 -0.7893  1.6301 -1.2719
13234SOL    HW246943   8.386   5.636   4.182 -1.0560  1.2437  0.1773
13235SOL     OW46944   1.389   7.568  12.495 -0.2963  0.0311 -0.0480
13235SOL    HW146945   1.451   7.553  12.567  1.4204  0.4396 -1.3744
13235SOL    HW246946   1.327   7.495  12.501  1.5376 -1.5956  0.1138
13236SOL     OW46947   7.391   7.755  10.634  0.0121  0.7042  0.3819
13236SOL    HW146948   7.484   7.763  10.655  0.2549  0.2374 -0.4561
13236SOL    HW246949   7.382   7.800  10.550 -0.7026  1.5443  0.9010
13237SOL     OW46950   0.759   7.970   5.365 -0.4463  0.1763  0.0472
13237SOL    HW146951   0.736   8.046   5.312 -0.8969  1.8098  2.3894
13237SOL    HW246952   0.742   7.998   5.455 -0.7677 -2.7866  1.0186
13238SOL     OW46953   1.633   1.046   0.754  0.4635  0.3668 -0.5478
13238SOL    HW146954   1.615   1.137   0.775 -0.8210  0.3628 -1.4496
13238SOL    HW246955   1.673   1.010   0.832 -1.3873  1.0594  0.7825
13239SOL     OW46956   2.915  12.183  11.708  0.5455 -0.4266  0.2094
13239SOL    HW146957   2.863  12.138  11.642 -1.4263 -1.8004  2.5210
13239SOL    HW246958   3.002  12.143  11.702  0.2311 -0.9528 -1.1026
13240SOL     OW46959   9.519  10.330   7.831  0.5680 -0.7234  0.1236
13240SOL    HW146960   9.505  10.247   7.876  0.2709 -1.0993 -0.6624
13240SOL    HW246961   9.481  10.395   7.890 -2.0659 -1.4388 -0.6492
13241SOL     OW46962   4.186   3.503  11.070  0.3414  0.4494  0.0561
13241SOL    HW146963   4.132   3.495  10.991 -0.0917  0.1430  0.3766
13241SOL    HW246964   4.126   3.481  11.142  0.6095  1.1652  0.5085
13242SOL     OW46965  11.992   0.934   1.687  0.0674  0.3923  0.4832
13242SOL    HW146966  12.039   0.996   1.742  0.4807  1.2495 -0.7794
13242SOL    HW246967  11.953   0.988   1.618 -2.8395 -0.2652  1.4725
13243SOL     OW46968   7.358   1.468   0.589 -0.0383  0.2231 -0.3780
13243SOL    HW146969   7.411   1.518   0.526  1.3977 -0.7032  0.0336
13243SOL    HW246970   7.373   1.512   0.673  0.3242 -0.1962 -0.2151
13244SOL     OW46971   1.784   0.193   9.723  0.3438 -0.0504 -0.3320
13244SOL    HW146972   1.721   0.232   9.785  0.6551 -0.6601  0.3792
13244SOL    HW246973   1.729   0.152   9.657 -0.0364 -1.0448  0.5688
13245SOL     OW46974  12.540   5.087  12.368 -0.7204 -0.1199  0.7082
13245SOL    HW146975  12.470   5.044  12.417 -0.7704 -2.2713 -1.0910
13245SOL    HW246976  12.593   5.131  12.434 -3.9791  2.0337  2.1310
13246SOL     OW46977   4.152   3.239   9.868  0.9680 -0.1317 -0.6450
13246SOL    HW146978   4.227   3.188   9.901  0.8800 -1.6506 -2.6176
13246SOL    HW246979   4.090   3.239   9.941  0.4832 -3.9566 -0.8412
13247SOL     OW46980  11.520  12.120   4.083  0.9220 -0.1518 -0.2269
13247SOL    HW146981  11.579  12.059   4.127  0.7158 -0.4029 -0.2956
13247SOL    HW246982  11.433  12.084   4.098  0.8799 -0.5254 -1.2716
13248SOL     OW46983   9.740   3.002   5.207 -0.4112 -0.2606  0.1125
13248SOL    HW146984   9.701   3.032   5.125 -0.7217  0.1353  0.4017
13248SOL    HW246985   9.745   3.080   5.262  0.4266 -0.3855  0.2302
13249SOL     OW46986   2.469  11.847  11.445 -0.3257  0.5633 -1.4269
13249SOL    HW146987   2.457  11.783  11.515 -0.8317  0.8947 -1.2011
13249SOL    HW246988   2.429  11.807  11.368 -0.6001  0.5814 -1.2978
13250SOL     OW46989   1.394   4.039   8.089  0.2025 -0.2093  0.1332
13250SOL    HW146990   1.464   4.076   8.035  0.5842 -0.5818  0.3557
13250SOL    HW246991   1.358   3.968   8.037 -1.5702  1.3842 -0.9478
13251SOL     OW46992   3.899   5.392   6.899 -0.6715  0.6446 -0.4064
13251SOL    HW146993   3.954   5.421   6.973 -0.6486 -0.0773 -0.1281
13251SOL    HW246994   3.920   5.453   6.828 -0.2491  0.9858  0.0015
13252SOL     OW46995   7.009   0.584  11.331  0.8248 -0.1290 -0.3241
13252SOL    HW146996   6.987   0.583  11.425 -0.8982 -1.5098 -0.6960
13252SOL    HW246997   6.927   0.561  11.287  1.9037 -0.7374 -2.1148
13253SOL     OW46998   2.722   1.664   9.949  0.0679 -0.3400  0.3037
13253SOL    HW146999   2.763   1.579   9.967 -0.8847 -0.8047  0.3382
13253SOL    HW247000   2.629   1.650   9.966 -0.3675  0.1999 -1.4404
13254SOL     OW47001   1.601  10.173   1.438  0.7446 -0.5507  0.4471
13254SOL    HW147002   1.572  10.264   1.439 -0.3019 -0.8544 -0.3451
13254SOL    HW247003   1.632  10.157   1.528  1.4537  0.7213  0.4531
13255SOL     OW47004   4.111   8.492  10.835 -0.3296  0.3922  0.3662
13255SOL    HW147005   4.142   8.508  10.746  0.7416 -0.2935  0.6004
13255SOL    HW247006   4.063   8.571  10.859  1.0285  1.3805 -0.1152
13256SOL     OW47007   4.126   5.219  10.352  0.1582  0.5344 -0.2815
13256SOL    HW147008   4.105   5.232  10.444 -0.6424 -1.9991 -0.0265
13256SOL    HW247009   4.045   5.241  10.305 -0.1224 -0.2499 -0.1700
13257SOL     OW47010   1.586   8.006   9.335  0.4398 -0.7029 -0.0624
13257SOL    HW147011   1.494   8.030   9.325 -0.0693 -2.4473  0.1279
13257SOL    HW247012   1.627   8.084   9.373 -1.4434 -0.7009  2.1516
13258SOL     OW47013   9.044  11.468   1.235 -0.2364 -0.3018 -0.3046
13258SOL    HW147014   9.120  11.456   1.178  2.8548  3.8345  2.4353
13258SOL    HW247015   8.984  11.522   1.183 -0.3718 -1.6257 -1.6298
13259SOL     OW47016   3.669   5.746  12.420 -0.0908 -0.3349  0.1927
13259SOL    HW147017   3.684   5.841  12.417 -2.7797  0.1420 -0.7312
13259SOL    HW247018   3.725   5.711  12.351 -0.7748  0.8968 -1.0345
13260SOL     OW47019   7.434  10.735   9.680 -0.0935 -0.4225 -0.5984
13260SOL    HW147020   7.393  10.650   9.670  0.4992 -0.6345 -1.2748
13260SOL    HW247021   7.444  10.768   9.591 -0.4669  0.4295 -0.3362
13261SOL     OW47022   3.333   4.748   3.327  0.1188 -0.0396  0.4729
13261SOL    HW147023   3.357   4.839   3.315 -1.5561  0.2317 -1.3878
13261SOL    HW247024   3.406   4.710   3.375  0.7739  2.2974  1.4552
13262SOL     OW47025   5.020   4.379   7.530  0.2117  0.3000 -0.3527
13262SOL    HW147026   5.026   4.435   7.453 -1.1167 -0.7566 -1.2746
13262SOL    HW247027   4.940   4.327   7.516  0.5447 -0.7069  1.2021
13263SOL     OW47028   3.349   3.355   5.885  0.2650  0.3633  0.0985
13263SOL    HW147029   3.311   3.397   5.962  0.9600  0.1366  0.5696
13263SOL    HW247030   3.424   3.306   5.919  0.5027  0.1628 -0.7054
13264SOL     OW47031   5.410   7.285   3.079  0.2726  0.7442 -0.4468
13264SOL    HW147032   5.454   7.200   3.080  0.0709  0.6432 -0.0764
13264SOL    HW247033   5.388   7.302   3.170 -0.9589  0.5291 -0.6795
13265SOL     OW47034   9.853  11.468   6.925  0.0912 -0.2081  0.3337
13265SOL    HW147035   9.779  11.432   6.876 -0.6340  0.2875  1.0369
13265SOL    HW247036   9.905  11.391   6.949  1.4716 -0.3649 -2.6770
13266SOL     OW47037   5.688   9.413  11.917 -0.5689  0.2728  0.1256
13266SOL    HW147038   5.651   9.426  12.004 -0.6394 -0.9095  0.2883
13266SOL    HW247039   5.675   9.497  11.872 -1.9851  0.3985  0.7226
13267SOL     OW47040   7.367   5.141   0.655 -0.8653  0.2075 -0.4230
13267SOL    HW147041   7.305   5.146   0.582 -0.5714  0.7757 -0.6431
13267SOL    HW247042   7.375   5.047   0.673 -2.6803  0.1629  0.3990
13268SOL     OW47043   7.200   7.504   4.477  0.4368 -0.1318  0.7155
13268SOL    HW147044   7.166   7.474   4.393  1.0642 -0.3963  0.5498
13268SOL    HW247045   7.291   7.475   4.478  0.4923  0.0432  1.4031
13269SOL     OW47046   3.910   9.493  10.203 -0.2103  0.1875 -0.1927
13269SOL    HW147047   4.004   9.478  10.213 -0.5880 -3.0829 -0.5701
13269SOL    HW247048   3.904   9.557  10.132  1.7934 -3.3433 -3.9710
13270SOL     OW47049   6.170   9.986   1.460 -0.5497  0.3069  0.1378
13270SOL    HW147050   6.236   9.917   1.452 -0.6961  0.2544 -0.7686
13270SOL    HW247051   6.214  10.064   1.425 -1.5069 -0.1012 -2.1275
13271SOL     OW47052   5.125   2.973  10.625 -0.0254  0.0377 -0.4562
13271SOL    HW147053   5.110   3.043  10.689  1.3403 -0.5757  0.5929
13271SOL    HW247054   5.039   2.959  10.585 -1.0068  0.2829  1.4237
13272SOL     OW47055   2.243   1.848   4.007 -0.0646 -0.1266  0.7953
13272SOL    HW147056   2.261   1.758   4.035 -1.3124 -0.9111 -0.7229
13272SOL    HW247057   2.192   1.885   4.079  2.2556  0.1421  2.4031
13273SOL     OW47058   9.989   1.978   8.420  0.1006  0.5811  0.3728
13273SOL    HW147059   9.952   2.066   8.419 -0.5604  0.3651  1.9161
13273SOL    HW247060  10.050   1.978   8.494  1.6226  0.2928 -0.8241
13274SOL     OW47061   7.727   8.401  10.973 -0.0091 -0.2390  0.0291
13274SOL    HW147062   7.763   8.413  11.061 -0.9396 -0.9061  0.5208
13274SOL    HW247063   7.644   8.450  10.974 -0.7366 -1.4138  0.0249
13275SOL     OW47064  10.038   2.338   0.916 -0.3811  0.0607 -0.2112
13275SOL    HW147065  10.065   2.252   0.948  0.3188  0.8716  1.4552
13275SOL    HW247066   9.990   2.319   0.835 -1.5351 -1.9996  0.8861
13276SOL     OW47067  12.656   9.205   3.212 -0.1523  0.1135  0.4360
13276SOL    HW147068  12.612   9.126   3.180 -1.0268  0.2635  1.2195
13276SOL    HW247069  12.675   9.256   3.133 -0.9528 -0.1820  0.0473
13277SOL     OW47070   6.736   5.111   0.737 -0.1621  0.1475  0.2458
13277SOL    HW147071   6.649   5.106   0.777  0.4597 -0.6776  1.5692
13277SOL    HW247072   6.751   5.023   0.703  0.0926  0.3241 -0.0969
13278SOL     OW47073   7.501  12.467   6.554  0.0124 -0.3899  0.3367
13278SOL    HW147074   7.514  12.509   6.639  1.5301 -0.5129  0.1930
13278SOL    HW247075   7.537  12.379   6.565 -0.1092 -0.5312 -0.3247
13279SOL     OW47076   1.914   2.072   6.240 -0.4729  0.3490  0.5418
13279SOL    HW147077   1.936   2.020   6.318  1.6847 -1.1462 -0.9699
13279SOL    HW247078   1.989   2.130   6.228 -0.5680  0.2385 -0.6713
13280SOL     OW47079   2.920   8.458  10.502  0.1102  0.4310 -0.1765
13280SOL    HW147080   3.013   8.478  10.502  0.4764 -1.1399  0.5579
13280SOL    HW247081   2.895   8.460  10.409  1.0881 -0.0342 -0.4627
13281SOL     OW47082   6.921   6.607   2.022  0.0101  0.0597 -0.4840
13281SOL    HW147083   6.948   6.585   2.112  0.2820 -1.5134 -0.9146
13281SOL    HW247084   6.826   6.600   2.023  0.0974 -1.4384 -0.6512
13282SOL     OW47085   7.169   2.577   4.417 -0.0258 -0.5772  0.2705
13282SOL    HW147086   7.162   2.486   4.445 -0.5251 -0.6358 -0.0498
13282SOL    HW247087   7.079   2.609   4.413  0.0692 -0.4263 -0.8245
13283SOL     OW47088  11.761   4.181  11.602 -0.6334 -0.1440 -0.4036
13283SOL    HW147089  11.787   4.193  11.511  0.2611 -2.3287 -0.5012
13283SOL    HW247090  11.812   4.247  11.650 -1.2221  1.1255 -1.4519
13284SOL     OW47091   6.367   7.729   6.072  0.5212  0.3867  0.2541
13284SOL    HW147092   6.298   7.754   6.011  2.3255  2.3449 -1.1155
13284SOL    HW247093   6.355   7.788   6.147  0.5748  0.5932  0.1013
13285SOL     OW47094   8.285  10.158   1.991  0.1722 -0.4893 -0.2722
13285SOL    HW147095   8.233  10.141   1.912  1.1175 -1.6439 -0.6691
13285SOL    HW247096   8.347  10.227   1.965  2.3731 -2.7593 -1.4864
13286SOL     OW47097  10.771   4.827   2.555 -0.0935  0.0816 -0.1066
13286SOL    HW147098  10.700   4.844   2.493 -0.4166 -2.7734 -0.6716
13286SOL    HW247099  10.731   4.841   2.641 -1.3909 -1.4625 -0.4200
13287SOL     OW47100  10.991   7.673   7.741  0.1508 -0.4716  0.3866
13287SOL    HW147101  10.955   7.644   7.826 -1.3310  1.2728  0.4234
13287SOL    HW247102  11.059   7.735   7.764 -1.8977  1.9278  0.4242
13288SOL     OW47103   3.377   0.162   4.991 -0.0667  1.1422  0.6199
13288SOL    HW147104   3.419   0.157   4.905  0.2861  1.0272  0.7956
13288SOL    HW247105   3.286   0.187   4.972 -0.8342 -1.7627 -0.0428
13289SOL     OW47106   2.315   8.086  11.154 -0.1744 -0.2566  0.8438
13289SOL    HW147107   2.307   8.055  11.244  2.7140 -2.4940  0.5183
13289SOL    HW247108   2.304   8.007  11.101 -3.2925  1.2300 -1.0076
13290SOL     OW47109  10.217   8.453   5.432 -0.6132 -0.0113 -0.0663
13290SOL    HW147110  10.300   8.501   5.434  0.0036 -0.9231 -1.8290
13290SOL    HW247111  10.243   8.361   5.430 -1.6054 -0.2908 -1.6188
13291SOL     OW47112   8.359   9.819   1.490  0.4479  0.0180 -0.2931
13291SOL    HW147113   8.358   9.873   1.569 -1.1608 -0.8383  0.3242
13291SOL    HW247114   8.309   9.870   1.426  0.1422 -0.1131 -0.1598
13292SOL     OW47115   5.905   5.552   4.007  0.1514 -0.6362  0.6836
13292SOL    HW147116   5.877   5.609   3.936 -1.9128  0.0454  1.9432
13292SOL    HW247117   5.825   5.508   4.035  0.6486 -0.0824  3.2348
13293SOL     OW47118  10.922   4.704   8.967 -0.3465 -0.2390 -0.3633
13293SOL    HW147119  10.963   4.626   8.928  0.1846  0.3072 -0.9212
13293SOL    HW247120  10.985   4.733   9.033 -0.4979 -0.2263 -0.2261
13294SOL     OW47121   6.617  11.554   3.990 -0.6147 -0.3088  0.3497
13294SOL    HW147122   6.707  11.558   3.961 -0.3702  1.4923  1.2042
13294SOL    HW247123   6.583  11.471   3.955  0.5926  0.1583 -2.1115
13295SOL     OW47124  12.017   6.128   9.793 -0.0028  1.0044  0.9495
13295SOL    HW147125  11.935   6.096   9.755  0.5160  1.1572 -0.3416
13295SOL    HW247126  12.003   6.122   9.888 -1.1604  0.1615  0.7496
13296SOL     OW47127   2.633  12.066   4.886 -0.1235 -0.2722 -0.3356
13296SOL    HW147128   2.585  12.100   4.961 -0.3356 -1.8842  0.2959
13296SOL    HW247129   2.695  12.003   4.923  1.0183  0.1925 -1.3472
13297SOL     OW47130   7.872   9.503   7.495 -0.0133 -0.3197  0.1336
13297SOL    HW147131   7.829   9.420   7.474 -0.3341  0.0296 -0.6133
13297SOL    HW247132   7.829   9.533   7.575  0.0533 -0.8315  0.3679
13298SOL     OW47133   5.309   4.679   2.537  0.0854 -0.1166 -0.1141
13298SOL    HW147134   5.329   4.633   2.456 -3.3869  0.0519 -1.2273
13298SOL    HW247135   5.238   4.629   2.577  0.3536  0.9319  1.8036
13299SOL     OW47136   5.124   6.357   0.358  0.2536  0.0554  0.2131
13299SOL    HW147137   5.110   6.404   0.441  0.0277 -0.2647  0.3579
13299SOL    HW247138   5.169   6.420   0.302  0.4902  0.2429  0.6131
13300SOL     OW47139   7.679   7.380   9.763 -0.5916 -0.3697 -0.3768
13300SOL    HW147140   7.609   7.443   9.780  0.5675  0.2500  2.6731
13300SOL    HW247141   7.745   7.430   9.715 -0.6123  0.1478  0.1197
13301SOL     OW47142   0.276   5.694   2.862  0.4651  1.0446 -0.7511
13301SOL    HW147143   0.284   5.640   2.941 -0.0433  2.8047  0.5518
13301SOL    HW247144   0.366   5.710   2.834  0.7050  1.4699  0.2398
13302SOL     OW47145   0.530   3.013   9.130 -0.4180  0.2313  0.3112
13302SOL    HW147146   0.543   3.056   9.215  0.6050 -0.2739  0.4284
13302SOL    HW247147   0.585   2.934   9.135 -1.0975 -0.3028 -0.4611
13303SOL     OW47148  11.361   7.299   1.305 -0.5903 -0.3334 -0.4030
13303SOL    HW147149  11.388   7.375   1.254 -1.8480  0.5163  0.1330
13303SOL    HW247150  11.341   7.232   1.240 -1.0638  0.3517 -0.9792
13304SOL     OW47151   7.960   4.304   0.404  0.5384  0.0975 -0.3570
13304SOL    HW147152   7.955   4.363   0.329  0.4741  0.4944 -0.0459
13304SOL    HW247153   8.019   4.234   0.376  2.2294  1.3398 -0.0387
13305SOL     OW47154   7.887   6.628  11.946  0.2912  0.0455 -0.5694
13305SOL    HW147155   7.907   6.587  12.030  1.2489  0.0477 -0.7881
13305SOL    HW247156   7.928   6.571  11.881 -1.7330 -0.8122 -1.1753
13306SOL     OW47157   4.706   6.463   0.633  0.0666  0.2817  0.2026
13306SOL    HW147158   4.617   6.438   0.609 -0.1642  0.9660  0.3321
13306SOL    HW247159   4.761   6.424   0.565 -0.4001  0.4964 -0.3006
13307SOL     OW47160   9.673   4.051   4.263  0.1712 -0.9543 -0.2645
13307SOL    HW147161   9.728   3.981   4.227  1.2669 -1.8243  2.8180
13307SOL    HW247162   9.723   4.131   4.247  0.4228 -1.2424 -0.9866
13308SOL     OW47163   2.696   6.021   4.943 -0.4659 -0.0574 -0.3953
13308SOL    HW147164   2.602   6.009   4.931 -0.6228 -0.2430  0.8804
13308SOL    HW247165   2.708   6.116   4.941 -0.5768 -0.0513 -1.1807
13309SOL     OW47166   3.677  11.709   8.903  0.0055  0.0449  0.3439
13309SOL    HW147167   3.668  11.698   8.808 -1.0262 -1.6547  0.6044
13309SOL    HW247168   3.650  11.625   8.940 -1.2952  1.2231  2.2427
13310SOL     OW47169  12.587   2.955   1.192 -0.2266  0.0874 -0.1181
13310SOL    HW147170  12.561   3.031   1.140  1.3807 -0.5461 -1.9580
13310SOL    HW247171  12.683   2.958   1.192 -0.1557 -1.5158  0.4208
13311SOL     OW47172  11.888   5.195   8.429  0.0635  0.1871 -0.1656
13311SOL    HW147173  11.929   5.127   8.374  0.5465  2.0433 -2.2888
13311SOL    HW247174  11.958   5.260   8.441 -1.3182  1.9746 -1.2665
13312SOL     OW47175   4.282   1.238   2.845  0.2776  0.7727  0.1852
13312SOL    HW147176   4.253   1.151   2.818  2.1579 -0.0422  0.5855
13312SOL    HW247177   4.211   1.297   2.820 -2.3715 -1.1926  2.4036
13313SOL     OW47178   9.612   8.905  10.643 -0.2374  0.4410 -0.0820
13313SOL    HW147179   9.653   8.820  10.624 -0.3827  0.4945 -0.6499
13313SOL    HW247180   9.686   8.964  10.656 -0.1177  0.5123 -1.0003
13314SOL     OW47181   0.902   3.456   8.738 -0.2120  0.4266  0.1928
13314SOL    HW147182   0.936   3.378   8.695 -0.8359  0.7371 -0.9111
13314SOL    HW247183   0.812   3.464   8.706 -0.4379  1.1222  0.9517
13315SOL     OW47184   7.748   2.878   6.753 -0.2161 -1.1284 -0.2508
13315SOL    HW147185   7.803   2.804   6.725  0.0500 -0.7750 -0.6849
13315SOL    HW247186   7.788   2.954   6.711 -0.7521 -0.7969 -0.1663
13316SOL     OW47187   9.436   9.288   9.999  0.3051 -0.6717 -0.3054
13316SOL    HW147188   9.403   9.199  10.008  0.1592 -0.4553  2.1711
13316SOL    HW247189   9.377   9.331   9.938 -1.5010 -1.4471  0.8309
13317SOL     OW47190  11.808   9.958   4.233  0.0919 -0.1852 -0.1311
13317SOL    HW147191  11.794  10.001   4.149 -0.4952 -3.3721 -1.8078
13317SOL    HW247192  11.903   9.952   4.242  0.1743 -1.0954 -1.3309
13318SOL     OW47193   7.919  10.914   7.527  0.1869 -0.5842 -0.2061
13318SOL    HW147194   7.872  10.996   7.510  1.2470  0.1801  0.3997
13318SOL    HW247195   7.878  10.878   7.605  0.1198 -0.3154 -0.1184
13319SOL     OW47196   4.539   3.064   8.918  0.2803  0.0841 -0.3917
13319SOL    HW147197   4.472   3.129   8.936  0.2660  0.0350 -0.2676
13319SOL    HW247198   4.597   3.067   8.994 -0.7580 -1.3556  0.5195
13320SOL     OW47199  10.257   9.573   7.524  0.4208  0.2280 -0.5704
13320SOL    HW147200  10.319   9.505   7.550  0.4729  0.4852 -0.0118
13320SOL    HW247201  10.299   9.618   7.452 -0.0444 -0.9745 -1.6274
13321SOL     OW47202   4.759   8.324   1.888  0.1826 -0.2197  0.0725
13321SOL    HW147203   4.675   8.360   1.859  1.6352  1.0051 -3.0386
13321SOL    HW247204   4.804   8.398   1.928  0.2516 -0.5855  0.6849
13322SOL     OW47205   2.036   9.061  11.204 -0.6226 -0.1050 -0.4954
13322SOL    HW147206   2.092   9.122  11.252 -2.1728  0.6825  0.3815
13322SOL    HW247207   2.014   8.993  11.267 -3.8607  1.6946  0.5113
13323SOL     OW47208   6.847   5.276   0.958 -0.0997  0.6504  0.4993
13323SOL    HW147209   6.933   5.294   0.918 -1.0572  3.2633 -0.6167
13323SOL    HW247210   6.796   5.237   0.887 -0.6379  1.6354  0.3430
13324SOL     OW47211  11.784   7.918   0.613  0.0094  0.0751 -0.4846
13324SOL    HW147212  11.757   7.935   0.523  1.2222 -2.0912 -1.3258
13324SOL    HW247213  11.703   7.893   0.658 -0.3806 -0.2924 -1.3651
13325SOL     OW47214   1.656   5.288   7.474 -0.6790  0.2896 -0.1198
13325SOL    HW147215   1.573   5.290   7.521 -0.9459 -0.8067 -0.5128
13325SOL    HW247216   1.636   5.330   7.390 -0.5297  1.0661  0.2208
13326SOL     OW47217   1.961   7.113  11.065  0.2336  0.0164  0.1466
13326SOL    HW147218   2.056   7.122  11.062  0.1981  0.3976  0.1367
13326SOL    HW247219   1.934   7.162  11.142  0.1378 -0.9629  0.7542
13327SOL     OW47220   6.552   6.856   0.139 -0.0913 -0.1248 -0.2324
13327SOL    HW147221   6.534   6.788   0.205  0.7984 -2.2352 -2.0406
13327SOL    HW247222   6.603   6.922   0.186 -1.2234 -0.5151  1.6699
13328SOL     OW47223   0.661   4.387   0.037 -0.0023 -0.7629 -0.3197
13328SOL    HW147224   0.747   4.382   0.078 -1.0110 -1.4837  1.8224
13328SOL    HW247225   0.642   4.297   0.009 -0.5269 -0.8147  0.2084
13329SOL     OW47226  10.926   0.557   6.519 -0.2470 -0.7419  0.0177
13329SOL    HW147227  10.851   0.536   6.463 -2.7217  1.5742  2.1815
13329SOL    HW247228  10.898   0.529   6.606  0.1288  2.5862  1.3617
13330SOL     OW47229   9.072   9.399   2.863  0.0454 -0.7271  0.0592
13330SOL    HW147230   9.099   9.325   2.918  1.0637 -1.3656 -1.2404
13330SOL    HW247231   9.128   9.472   2.890  0.6318 -1.0751 -0.2024
13331SOL     OW47232  10.163   0.246   5.084  0.4585  0.0489 -0.0994
13331SOL    HW147233  10.199   0.330   5.113  2.1773 -0.5758 -0.3665
13331SOL    HW247234  10.071   0.250   5.112  0.4862  2.0150 -0.1171
13332SOL     OW47235   7.314  10.070   5.545 -0.3532  0.2157 -0.2937
13332SOL    HW147236   7.252  10.045   5.614 -1.9565 -1.9287 -2.3221
13332SOL    HW247237   7.258  10.092   5.470  1.3138 -0.7369 -1.8948
13333SOL     OW47238   8.263   1.833   5.398  0.3107 -0.2229  0.1848
13333SOL    HW147239   8.217   1.755   5.430  0.3903 -0.7108 -0.8626
13333SOL    HW247240   8.322   1.856   5.471  1.4664 -2.1201 -0.0674
13334SOL     OW47241   7.255  11.906   0.372 -0.4705 -0.2243 -0.5199
13334SOL    HW147242   7.334  11.853   0.358  0.5862  1.0547  0.3784
13334SOL    HW247243   7.229  11.933   0.284 -0.2270 -1.0960 -0.8700
13335SOL     OW47244   8.631   5.333   0.435 -0.2485  0.6377  0.0838
13335SOL    HW147245   8.670   5.255   0.473 -0.5562  1.4450  2.2485
13335SOL    HW247246   8.614   5.390   0.511  0.8683  3.2209 -1.4458
13336SOL     OW47247   0.008   1.434  11.953 -0.3226 -0.2019 -0.0886
13336SOL    HW147248  -0.042   1.366  11.908  0.3922 -0.7223 -0.1280
13336SOL    HW247249   0.049   1.484  11.882 -0.9958  0.3868 -0.0636
13337SOL     OW47250   1.581   0.918  10.052 -0.3634  0.1329 -0.4939
13337SOL    HW147251   1.613   0.838  10.010  1.2212  1.1983 -1.4342
13337SOL    HW247252   1.535   0.888  10.130 -1.1412 -1.7741 -1.6241
13338SOL     OW47253   7.353   0.013   0.748  0.6165 -0.0640  0.3981
13338SOL    HW147254   7.289   0.060   0.696 -0.0637 -1.0692  0.2945
13338SOL    HW247255   7.331   0.033   0.839 -0.4213 -1.0732  0.4012
13339SOL     OW47256   2.928   1.598   8.024 -0.1650 -0.6275 -0.3595
13339SOL    HW147257   2.845   1.608   8.071  0.0806  2.6882 -0.3878
13339SOL    HW247258   2.966   1.518   8.059 -2.4894 -1.2143  1.0484
13340SOL     OW47259  10.293   9.807   8.640  0.4872 -0.0617 -0.1719
13340SOL    HW147260  10.240   9.784   8.716 -2.3137 -0.9762 -2.2381
13340SOL    HW247261  10.318   9.723   8.601  0.3689  0.3700 -1.2159
13341SOL     OW47262  10.269  12.061   9.231  0.2313  0.1233 -0.1916
13341SOL    HW147263  10.245  12.066   9.323 -1.2518 -1.5832 -0.4241
13341SOL    HW247264  10.364  12.054   9.230  0.3038  0.6807  1.1498
13342SOL     OW47265  10.469   5.788   4.251 -0.4911 -0.3041 -0.0737
13342SOL    HW147266  10.564   5.782   4.243 -0.1625  3.1632 -0.3196
13342SOL    HW247267  10.436   5.775   4.163 -0.2595 -1.3410 -0.0183
13343SOL     OW47268   2.050   7.881   1.064 -0.6886 -0.0932  0.2168
13343SOL    HW147269   2.091   7.954   1.019  0.0909  0.7312  2.1602
13343SOL    HW247270   1.962   7.912   1.084 -0.2645  0.4550  1.2931
13344SOL     OW47271   2.900   4.868   9.073  1.1713  0.1615 -0.3881
13344SOL    HW147272   2.844   4.924   9.126  1.8756 -1.1185  1.8512
13344SOL    HW247273   2.853   4.858   8.990 -0.3204  1.6935  0.2206
13345SOL     OW47274   5.178   3.825   4.772 -0.1206 -0.2073 -0.4146
13345SOL    HW147275   5.090   3.789   4.765 -0.4797  0.7896 -1.2999
13345SOL    HW247276   5.172   3.913   4.734  1.1242  0.0993  0.0337
13346SOL     OW47277   3.786   0.977   1.465 -0.4194  0.4219  0.6067
13346SOL    HW147278   3.832   0.910   1.415 -0.0858  1.2461 -0.2032
13346SOL    HW247279   3.774   0.938   1.552 -2.0211 -1.4976 -0.3897
13347SOL     OW47280   7.229   1.747   3.919  0.0672 -0.3885 -0.2231
13347SOL    HW147281   7.262   1.680   3.859 -0.7029 -0.6276 -0.3847
13347SOL    HW247282   7.185   1.810   3.863  0.0150 -0.2111  0.0172
13348SOL     OW47283   7.225   6.737   9.397 -0.3877 -0.1919  0.3200
13348SOL    HW147284   7.155   6.781   9.446 -1.0817 -1.1385  0.2194
13348SOL    HW247285   7.301   6.794   9.407 -1.3493  1.2338 -0.1570
13349SOL     OW47286   7.966   3.143   3.356  0.6339  0.3809 -0.3572
13349SOL    HW147287   7.885   3.181   3.388  0.5754 -0.3182  0.3583
13349SOL    HW247288   7.971   3.171   3.265 -0.8613 -0.2946 -0.6799
13350SOL     OW47289  12.040   7.962   5.870  0.0580 -0.3335 -0.6777
13350SOL    HW147290  11.988   8.041   5.850 -0.8579 -1.2890 -2.3167
13350SOL    HW247291  11.975   7.892   5.876  0.7546 -0.8611  1.6905
13351SOL     OW47292  10.935   8.337   3.222  0.4633 -0.5958 -0.3981
13351SOL    HW147293  11.016   8.357   3.175  1.6979 -1.3242  1.3201
13351SOL    HW247294  10.893   8.422   3.236  0.9363 -0.2091 -1.2739
13352SOL     OW47295   9.605   3.980   5.616 -0.3123 -0.0666  0.4716
13352SOL    HW147296   9.677   3.953   5.672  0.2164 -0.0264 -0.1745
13352SOL    HW247297   9.646   3.997   5.531 -1.0502  0.1565  0.1524
13353SOL     OW47298   0.392   8.567  11.051 -0.8245  0.0609 -0.1782
13353SOL    HW147299   0.429   8.503  11.112  0.6491  0.1074 -0.9963
13353SOL    HW247300   0.467   8.603  11.005 -1.7809  1.1809 -0.9136
13354SOL     OW47301   9.272  12.232   9.788  0.0692  0.5446  0.7234
13354SOL    HW147302   9.360  12.195   9.792  0.0742  0.3810 -0.5469
13354SOL    HW247303   9.276  12.309   9.845  0.9597  0.3861  0.8910
13355SOL     OW47304   0.532   2.684  10.242  0.2623 -0.0310  0.1651
13355SOL    HW147305   0.589   2.715  10.312  0.7254 -0.6685  0.0876
13355SOL    HW247306   0.453   2.738  10.249  0.8505  0.8307  0.3085
13356SOL     OW47307   4.863   9.966   3.602 -0.4215 -0.0258 -0.1517
13356SOL    HW147308   4.809   9.887   3.605  1.1378 -1.1184  1.7870
13356SOL    HW247309   4.827  10.022   3.671  0.3327 -0.3761  0.5395
13357SOL     OW47310   1.529  12.002  11.365  0.3204  0.4000  0.3159
13357SOL    HW147311   1.614  11.979  11.404  1.4976 -0.9510 -2.7564
13357SOL    HW247312   1.467  11.992  11.437  2.4749 -0.6387  2.1769
13358SOL     OW47313   2.009   6.196   9.939 -0.6076 -0.0094  0.1813
13358SOL    HW147314   1.969   6.113   9.910 -1.1611  0.2171  0.2936
13358SOL    HW247315   2.079   6.169   9.998  0.4166 -0.4841 -1.1794
13359SOL     OW47316  12.388   6.754   2.231  0.3474  0.8440  0.1928
13359SOL    HW147317  12.405   6.660   2.236  0.9078  0.9083 -0.3754
13359SOL    HW247318  12.292   6.760   2.234  0.2713  0.1981 -0.5051
13360SOL     OW47319   4.002   2.978   8.746 -0.3824 -0.6873  0.3084
13360SOL    HW147320   4.073   2.975   8.682 -3.1155 -0.4005 -3.0119
13360SOL    HW247321   3.967   2.889   8.748 -2.1653 -0.0859 -1.0130
13361SOL     OW47322   8.713   5.285   3.269 -0.0113  0.3431  0.4199
13361SOL    HW147323   8.805   5.270   3.288 -0.3710 -0.7774  1.3577
13361SOL    HW247324   8.675   5.313   3.352 -0.6065  0.4044  0.1357
13362SOL     OW47325   2.136   9.316  12.399 -0.7340 -0.3840 -0.3200
13362SOL    HW147326   2.103   9.343  12.485  1.6604 -0.5226  0.7296
13362SOL    HW247327   2.214   9.370  12.385  1.2326 -3.0614 -0.5150
13363SOL     OW47328   9.215   9.413   6.609  0.6164 -0.4183 -0.8839
13363SOL    HW147329   9.192   9.502   6.584  0.7551  0.3046  1.3372
13363SOL    HW247330   9.131   9.367   6.616  0.5783 -0.6644 -2.5853
13364SOL     OW47331   0.480   6.019   1.040 -0.1679  0.2966 -0.1775
13364SOL    HW147332   0.456   6.086   1.104 -1.5699  0.3716 -0.7457
13364SOL    HW247333   0.505   6.068   0.962 -2.6780  0.2381 -1.1236
13365SOL     OW47334  10.097   0.273  12.691 -0.3942  0.4691  0.3769
13365SOL    HW147335  10.017   0.245  12.737 -0.4716 -0.7306 -0.4436
13365SOL    HW247336  10.146   0.192  12.676  0.6847  1.1172  0.3124
13366SOL     OW47337   9.432   9.035   7.026  0.0345  1.0434  0.3482
13366SOL    HW147338   9.476   9.013   7.109 -0.1499 -1.0743 -0.0654
13366SOL    HW247339   9.497   9.087   6.978  1.4616 -0.4981  0.4943
13367SOL     OW47340   3.989  11.200  12.438 -0.0992 -0.3537 -0.6897
13367SOL    HW147341   4.017  11.272  12.494 -1.7082  0.7131 -1.1758
13367SOL    HW247342   3.895  11.214  12.426 -0.2598 -1.9618 -1.6400
13368SOL     OW47343   1.638   0.170   9.189 -0.0687  1.1364 -0.5158
13368SOL    HW147344   1.587   0.092   9.166  1.6847 -0.6536  1.2721
13368SOL    HW247345   1.610   0.236   9.125 -1.6133 -0.9347 -2.1482
13369SOL     OW47346   4.905  11.899   7.019 -0.2861 -0.0617  0.1683
13369SOL    HW147347   4.875  11.834   7.082 -0.9489  0.0739  0.0001
13369SOL    HW247348   4.827  11.919   6.966 -0.1444  1.0190  0.3514
13370SOL     OW47349   3.106  11.089  12.162  0.0865  0.0600 -0.9072
13370SOL    HW147350   3.123  11.021  12.227 -2.4081  1.4719  1.4457
13370SOL    HW247351   3.188  11.137  12.156  1.2307 -1.7983 -1.0189
13371SOL     OW47352   0.435   0.990   6.580  0.2451  0.0316 -0.9734
13371SOL    HW147353   0.431   0.942   6.498  1.3236 -0.8927 -0.5182
13371SOL    HW247354   0.371   1.060   6.571 -1.7069 -1.7465 -1.4802
13372SOL     OW47355   1.093   9.309   1.570 -0.4647 -0.4507 -0.4068
13372SOL    HW147356   1.047   9.391   1.552 -1.3853 -0.3801  1.8532
13372SOL    HW247357   1.054   9.246   1.510  1.6159  1.0342 -3.6090
13373SOL     OW47358  12.342   4.149   8.231 -0.3019  0.7891 -0.5976
13373SOL    HW147359  12.259   4.152   8.278 -0.4260  0.6151 -0.8074
13373SOL    HW247360  12.390   4.076   8.271 -0.8307 -0.0350 -1.4502
13374SOL     OW47361  10.277  11.567   0.493  0.2378  0.3311  0.2146
13374SOL    HW147362  10.341  11.611   0.437  0.9356  0.2453  0.9149
13374SOL    HW247363  10.208  11.632   0.506 -2.4029 -1.0972 -4.4728
13375SOL     OW47364  12.229   8.706   2.248  0.2536 -0.3553 -0.2222
13375SOL    HW147365  12.273   8.645   2.189  4.1642  0.6519  1.3556
13375SOL    HW247366  12.201   8.652   2.322  2.7370 -0.5260  0.6776
13376SOL     OW47367   2.285   1.925   3.138 -0.4611  0.4066 -0.1101
13376SOL    HW147368   2.214   1.908   3.077  0.2649 -1.2922 -0.5365
13376SOL    HW247369   2.250   1.901   3.224 -0.8380  0.9125 -0.1171
13377SOL     OW47370   3.621   4.451   1.651  0.1409 -0.1369  0.3838
13377SOL    HW147371   3.614   4.497   1.568  1.1458  0.3163  0.5292
13377SOL    HW247372   3.575   4.369   1.637 -1.1388  0.6329 -0.0837
13378SOL     OW47373   9.765   3.664  11.813  0.3886  0.5944 -0.4320
13378SOL    HW147374   9.758   3.708  11.898  0.8100 -0.0583 -0.0393
13378SOL    HW247375   9.803   3.578  11.835  0.3282  0.3503 -1.2616
13379SOL     OW47376   5.520   0.434   9.275  0.4385 -0.0003  0.0408
13379SOL    HW147377   5.592   0.439   9.213 -0.1823 -0.5398 -0.7426
13379SOL    HW247378   5.456   0.497   9.243  1.1655  1.5940  1.5802
13380SOL     OW47379   5.067  11.546  12.658  0.1299  0.5115  0.4295
13380SOL    HW147380   5.059  11.560  12.564 -1.6121  1.0813  0.6354
13380SOL    HW247381   5.102  11.457  12.666 -1.6224 -0.3325 -0.7505
13381SOL     OW47382   6.326  10.009  11.473  0.0955  0.6271  0.5213
13381SOL    HW147383   6.294   9.940  11.415  1.3941  0.5328 -0.1336
13381SOL    HW247384   6.327  10.088  11.418  0.6843  0.6832  0.6074
13382SOL     OW47385   6.379   3.170   5.516  0.5152  0.3227 -0.2625
13382SOL    HW147386   6.364   3.080   5.545 -0.7926 -0.2331 -2.4150
13382SOL    HW247387   6.304   3.220   5.549  0.7435  0.4186  0.1143
13383SOL     OW47388   3.895   7.297   2.434  0.3942 -0.1151 -0.4647
13383SOL    HW147389   3.957   7.239   2.479  1.7976  0.8496 -1.0957
13383SOL    HW247390   3.895   7.377   2.486 -1.1988 -0.4575  0.1421
13384SOL     OW47391   7.300  10.908   0.752  0.1124  0.0291 -0.5482
13384SOL    HW147392   7.275  10.994   0.787  1.2749  0.0364  0.3398
13384SOL    HW247393   7.358  10.928   0.679 -1.7827  0.0028 -2.1339
13385SOL     OW47394  10.463   5.908   6.628  0.3621 -0.1549  0.2030
13385SOL    HW147395  10.522   5.955   6.568  1.4480 -1.5829  0.1083
13385SOL    HW247396  10.513   5.899   6.708 -0.1288 -0.4950  0.4738
13386SOL     OW47397   9.516   8.860  11.815  0.4553  0.2727  0.1292
13386SOL    HW147398   9.597   8.909  11.828  2.3046 -2.4145 -0.3222
13386SOL    HW247399   9.490   8.832  11.903  2.2502 -1.9820  0.0484
13387SOL     OW47400   9.175   7.037   7.880 -0.2990 -0.2009 -0.3438
13387SOL    HW147401   9.223   7.054   7.798 -0.2799 -0.3350 -0.3617
13387SOL    HW247402   9.151   7.123   7.912  0.5862 -0.0855  0.0407
13388SOL     OW47403   2.212  10.779   2.890 -0.0410  0.0414 -0.1753
13388SOL    HW147404   2.122  10.776   2.857 -0.1034 -0.4673  0.0359
13388SOL    HW247405   2.240  10.869   2.873  0.2167 -0.3889 -2.3446
13389SOL     OW47406   0.396   3.792   3.390 -0.2681 -0.0910  0.4783
13389SOL    HW147407   0.335   3.765   3.322  0.9477 -0.2333 -0.5970
13389SOL    HW247408   0.378   3.733   3.463  0.4839 -2.0510 -0.8487
13390SOL     OW47409   7.481   6.776   0.950 -1.2653  0.2554 -0.0644
13390SOL    HW147410   7.446   6.840   1.012 -1.3986  1.1287 -1.0207
13390SOL    HW247411   7.569   6.758   0.983 -1.2976  0.7785  0.3304
13391SOL     OW47412   7.803  12.450   8.018 -0.0452 -0.2449 -0.3950
13391SOL    HW147413   7.815  12.486   8.105 -0.1458  1.2143 -0.9615
13391SOL    HW247414   7.891  12.438   7.984 -0.0153 -0.1167 -0.3635
13392SOL     OW47415   6.323   0.065   5.352 -0.5585 -0.1401  0.8234
13392SOL    HW147416   6.399   0.070   5.294 -0.9460  0.3873  0.3482
13392SOL    HW247417   6.335   0.138   5.414 -1.0612  0.4322  0.2612
13393SOL     OW47418  12.215   6.258  12.423 -0.1869 -0.0546 -0.4522
13393SOL    HW147419  12.158   6.287  12.493  0.3212 -0.3317  0.0803
13393SOL    HW247420  12.155   6.232  12.352 -0.6979  0.1031 -0.0807
13394SOL     OW47421   6.635   9.880   5.343  0.2641  0.1878  0.4727
13394SOL    HW147422   6.677   9.924   5.417  0.5823 -0.7344  0.8548
13394SOL    HW247423   6.626   9.789   5.371 -0.3814  0.0017 -0.3010
13395SOL     OW47424  11.130   3.515  12.038 -0.6162  0.2342 -0.6227
13395SOL    HW147425  11.058   3.536  12.098 -1.5905 -2.3011 -0.7929
13395SOL    HW247426  11.209   3.529  12.090 -1.3957 -0.7808  0.9334
13396SOL     OW47427   2.813   3.600  10.645  0.0201 -0.4228 -0.3740
13396SOL    HW147428   2.885   3.538  10.649  0.7125  0.2057 -2.1118
13396SOL    HW247429   2.819   3.649  10.727  0.9465 -1.0335 -0.0634
13397SOL     OW47430   4.941   0.868   5.325 -0.1191  0.8456 -0.1108
13397SOL    HW147431   4.971   0.956   5.304 -1.0130  0.9380 -1.0728
13397SOL    HW247432   4.856   0.860   5.282 -0.5815 -0.0858  0.9225
13398SOL     OW47433  12.254  10.069  10.994  0.7604  0.4696  0.3253
13398SOL    HW147434  12.243   9.984  10.952 -0.9922 -0.6769  2.8044
13398SOL    HW247435  12.246  10.133  10.924 -0.9472 -1.3255 -1.2116
13399SOL     OW47436   9.694  12.511   1.257  0.0336  0.0524 -0.3203
13399SOL    HW147437   9.726  12.582   1.202  0.7850 -0.1083 -0.1083
13399SOL    HW247438   9.761  12.443   1.249  1.0535  0.6764  2.1090
13400SOL     OW47439   1.134  10.573   9.545  0.2421 -0.0438 -0.1193
13400SOL    HW147440   1.096  10.607   9.626  0.1096 -1.0524  0.2616
13400SOL    HW247441   1.060  10.569   9.484  0.0901 -0.3522  0.0776
13401SOL     OW47442   1.730   8.967   2.003  0.0188  0.1756  0.8201
13401SOL    HW147443   1.772   8.893   2.046 -0.6681  0.3577  1.8180
13401SOL    HW247444   1.768   8.967   1.914  2.5622  0.6769  1.8025
13402SOL     OW47445  10.663   1.973  10.117  0.5731  0.0729  0.1908
13402SOL    HW147446  10.634   2.010  10.201  2.9699  0.5054  0.9036
13402SOL    HW247447  10.717   1.898  10.142  0.6612 -0.2824 -1.0218
13403SOL     OW47448   2.311   4.497   3.311 -0.1508  0.4159 -0.3134
13403SOL    HW147449   2.323   4.526   3.401  1.9528  1.0915 -0.7505
13403SOL    HW247450   2.237   4.549   3.279 -1.2778 -0.2270  1.1500
13404SOL     OW47451   0.400   4.352   3.822  0.1758  0.2773  0.2284
13404SOL    HW147452   0.491   4.330   3.841  0.0813 -0.5700 -0.2433
13404SOL    HW247453   0.404   4.437   3.778  0.8326 -0.2553 -0.7545
13405SOL     OW47454   0.047   7.581   3.979  0.5881  0.1842 -0.2794
13405SOL    HW147455   0.100   7.623   3.912  0.4597 -1.0962 -1.2181
13405SOL    HW247456   0.102   7.511   4.013  0.2672  0.1668  0.2176
13406SOL     OW47457   4.280  12.539   3.799 -0.1365 -0.0364 -0.5253
13406SOL    HW147458   4.317  12.593   3.729 -0.7025  1.0326 -0.0142
13406SOL    HW247459   4.186  12.556   3.796 -0.0609  0.8503  1.1579
13407SOL     OW47460   8.483  12.520   6.468 -0.4674  0.2668 -0.0324
13407SOL    HW147461   8.505  12.557   6.553 -0.2481 -0.0550  0.0507
13407SOL    HW247462   8.454  12.430   6.488 -0.4607  0.2080 -0.2928
13408SOL     OW47463   2.794  10.158  11.685  0.1352  0.1456  0.2387
13408SOL    HW147464   2.759  10.206  11.760 -0.7329  0.4745 -0.3595
13408SOL    HW247465   2.883  10.192  11.675  0.4514 -0.2973  1.4418
13409SOL     OW47466   1.793   9.463   9.728  0.5072 -0.3010  0.3472
13409SOL    HW147467   1.750   9.461   9.813 -0.8494 -0.0189 -0.3112
13409SOL    HW247468   1.722   9.472   9.664  1.5881  1.2317 -0.7309
13410SOL     OW47469   6.397  12.525  12.438 -0.2881  0.2607  0.0152
13410SOL    HW147470   6.318  12.562  12.478  1.1131  3.5655  0.1104
13410SOL    HW247471   6.382  12.536  12.344  0.3190  1.6990  0.0565
13411SOL     OW47472   7.076   8.653   9.285 -0.4022 -0.3336  0.1847
13411SOL    HW147473   7.097   8.560   9.285 -0.1091 -0.3300 -2.2006
13411SOL    HW247474   7.071   8.677   9.377  2.7902 -1.9719  0.9279
13412SOL     OW47475   2.075  11.679   7.340 -0.0766  0.5031 -0.0696
13412SOL    HW147476   1.984  11.653   7.327  0.3319 -1.1784  0.1937
13412SOL    HW247477   2.071  11.773   7.357 -1.6382  0.6756 -1.1973
13413SOL     OW47478   2.861   8.853   5.921 -0.0472  0.0647  0.3428
13413SOL    HW147479   2.942   8.803   5.920 -0.0865 -0.0102  0.8541
13413SOL    HW247480   2.888   8.944   5.910  0.0224 -0.0589 -0.6224
13414SOL     OW47481   4.421   0.197   3.792  0.0612  0.2711 -0.5740
13414SOL    HW147482   4.372   0.208   3.874 -1.0126 -0.6770 -1.0817
13414SOL    HW247483   4.509   0.171   3.821 -0.5901 -1.0905  0.2695
13415SOL     OW47484   2.179   3.091  11.402 -0.3668 -0.0989 -0.2203
13415SOL    HW147485   2.105   3.097  11.343 -0.8663 -1.2309  0.2565
13415SOL    HW247486   2.167   3.008  11.447  0.4900  0.3100  0.8140
13416SOL     OW47487   6.243   0.595   4.565 -0.2963 -0.1960 -0.4067
13416SOL    HW147488   6.280   0.585   4.653 -1.5695  2.1450  0.4995
13416SOL    HW247489   6.319   0.596   4.507  0.5582 -2.1172  0.5859
13417SOL     OW47490   4.788   2.739  11.580 -0.5089  0.1176 -0.1323
13417SOL    HW147491   4.707   2.765  11.537 -1.4941  0.1636  1.6570
13417SOL    HW247492   4.809   2.653  11.543 -2.4481 -0.7866  0.7270
13418SOL     OW47493  10.233   6.804   5.204 -0.1518 -0.9819 -0.4950
13418SOL    HW147494  10.278   6.881   5.240  1.7323 -1.6958 -1.2276
13418SOL    HW247495  10.174   6.776   5.274  0.6545 -0.0875  0.5734
13419SOL     OW47496  11.849   7.170   9.849  0.1402 -0.0221  0.6745
13419SOL    HW147497  11.834   7.238   9.914 -0.2496  2.6550 -1.9747
13419SOL    HW247498  11.942   7.178   9.827 -0.3550  1.2592 -1.1813
13420SOL     OW47499   2.912   5.703   2.762  0.4144 -0.0856 -0.3074
13420SOL    HW147500   2.840   5.750   2.719 -0.0119  0.5713  1.0567
13420SOL    HW247501   2.896   5.611   2.742 -1.1451 -0.0056  0.4105
13421SOL     OW47502   0.325   5.734   9.641  0.3937 -0.8953 -0.3075
13421SOL    HW147503   0.296   5.763   9.554  0.0943 -1.6838 -0.4711
13421SOL    HW247504   0.335   5.640   9.633 -2.0941 -1.3780  1.1903
13422SOL     OW47505  10.973   3.153  11.886  0.3740  0.2494 -0.7226
13422SOL    HW147506  11.010   3.196  11.809 -0.1838  2.1310  0.0259
13422SOL    HW247507  10.929   3.075  11.850  2.1514 -0.2454 -1.9955
13423SOL     OW47508   8.013   5.919   6.875 -0.1514 -0.3383  0.0098
13423SOL    HW147509   7.921   5.932   6.899  0.2254  0.0154  1.3625
13423SOL    HW247510   8.059   5.993   6.916  0.9015 -1.2122  0.4537
13424SOL     OW47511   1.593   4.898   6.741 -0.2056  0.0983  0.1625
13424SOL    HW147512   1.555   4.812   6.725 -3.2886  1.4725 -0.7497
13424SOL    HW247513   1.604   4.902   6.836  2.1441 -2.0271  0.0683
13425SOL     OW47514   5.864   0.686   2.452  0.3004 -0.5918  0.3656
13425SOL    HW147515   5.935   0.704   2.390  0.0416 -1.7261 -0.2908
13425SOL    HW247516   5.795   0.748   2.427 -0.1961 -1.7012 -1.1876
13426SOL     OW47517   8.991   9.738   1.147 -0.8232  0.1470 -0.4044
13426SOL    HW147518   8.965   9.790   1.223  0.7577 -2.5843  2.2549
13426SOL    HW247519   8.977   9.647   1.175  1.6606 -1.0645 -2.6633
13427SOL     OW47520   2.214   5.385   2.241 -0.1466  0.2459 -0.2630
13427SOL    HW147521   2.296   5.340   2.219  0.5868  0.3702  1.9110
13427SOL    HW247522   2.243   5.467   2.282 -1.3619  0.4578  0.2017
13428SOL     OW47523   2.309   6.218  11.540 -0.2635  0.2626 -0.0310
13428SOL    HW147524   2.215   6.235  11.546 -0.3691 -0.5767  0.8813
13428SOL    HW247525   2.350   6.299  11.569 -0.6579  1.3007 -2.1792
13429SOL     OW47526  11.273   9.714  12.676  0.3081 -0.1091  0.1682
13429SOL    HW147527  11.330   9.637  12.679  0.6360  0.0422 -1.1967
13429SOL    HW247528  11.300   9.768  12.750 -0.9143 -1.9274  2.0708
13430SOL     OW47529  12.278   8.623   2.989 -0.5930 -0.1687 -0.4905
13430SOL    HW147530  12.331   8.692   3.029 -0.7618  0.7118 -1.7044
13430SOL    HW247531  12.319   8.541   3.018  1.0318  0.4701 -0.8530
13431SOL     OW47532   4.970   1.848   4.759  0.4815  0.2466 -0.3973
13431SOL    HW147533   4.904   1.826   4.694  0.8535 -0.3198 -0.5886
13431SOL    HW247534   4.921   1.860   4.840  0.1644 -0.4167 -0.4844
13432SOL     OW47535   2.072  11.187   2.379 -0.4901 -0.1346  0.2302
13432SOL    HW147536   2.134  11.176   2.451  0.5088  0.5977 -0.4867
13432SOL    HW247537   2.080  11.279   2.354 -1.1278 -0.2781 -0.5364
13433SOL     OW47538   8.979   0.526  10.328  0.0473  0.2002 -0.3982
13433SOL    HW147539   9.073   0.537  10.344  0.3132 -1.1372 -0.9506
13433SOL    HW247540   8.939   0.541  10.414  0.9292 -0.9304  0.2329
13434SOL     OW47541   9.860   2.369   8.876 -0.1609  0.2793  0.3488
13434SOL    HW147542   9.799   2.299   8.851 -3.7727  2.5656  2.0770
13434SOL    HW247543   9.906   2.334   8.952  0.8547 -1.4679 -0.9550
13435SOL     OW47544   4.653   4.686   1.046  0.3803 -0.5153  0.0668
13435SOL    HW147545   4.651   4.681   1.142  0.4098 -1.4168  0.0255
13435SOL    HW247546   4.716   4.619   1.020  0.5382 -0.1247 -0.5802
13436SOL     OW47547  11.739  10.559   1.341 -0.4139  0.2624  1.0473
13436SOL    HW147548  11.783  10.627   1.290 -3.2357  2.0023  0.7508
13436SOL    HW247549  11.787  10.479   1.318  1.2749  1.6623 -0.7860
13437SOL     OW47550  11.406   7.997   3.813  0.1471  0.2101 -0.0386
13437SOL    HW147551  11.487   8.041   3.842  0.6668  0.7407 -2.1224
13437SOL    HW247552  11.437   7.920   3.766 -0.6140 -0.0060 -0.1868
13438SOL     OW47553  10.310   6.337  10.610 -0.0078 -0.2110 -0.3387
13438SOL    HW147554  10.323   6.408  10.546  0.6749  0.3390  0.3904
13438SOL    HW247555  10.368   6.359  10.683 -0.0677 -1.3314  0.0702
13439SOL     OW47556  11.276  11.470   0.425 -0.1499 -0.4319 -0.3439
13439SOL    HW147557  11.288  11.378   0.448  0.2722 -0.3685 -0.2949
13439SOL    HW247558  11.365  11.503   0.413 -0.0626  0.9032  3.1259
13440SOL     OW47559   4.409   9.045   3.208  0.7037  0.7742  0.2359
13440SOL    HW147560   4.459   9.110   3.158 -2.3253  3.2992  0.1874
13440SOL    HW247561   4.324   9.042   3.164  0.0654 -1.8145  1.4655
13441SOL     OW47562   0.422   6.225   7.566 -0.1495 -0.6943  0.2164
13441SOL    HW147563   0.499   6.177   7.594  1.6320  0.9005 -1.5714
13441SOL    HW247564   0.423   6.305   7.618 -1.1536 -1.0773  0.8374
13442SOL     OW47565   1.675  10.506   3.253 -0.5372  0.2549 -0.0559
13442SOL    HW147566   1.726  10.576   3.291  0.4435 -0.2448 -0.4141
13442SOL    HW247567   1.626  10.547   3.182  0.5821  0.4429 -0.7308
13443SOL     OW47568   1.777  12.126   9.958 -0.0220  0.0997  0.3147
13443SOL    HW147569   1.847  12.173   9.913  1.1839 -1.9186 -0.0506
13443SOL    HW247570   1.781  12.159  10.048  2.1948 -0.7529  0.5844
13444SOL     OW47571   2.042  12.546   6.279  0.2686  0.4781  0.0931
13444SOL    HW147572   2.103  12.609   6.242 -0.9585  1.0373 -1.0175
13444SOL    HW247573   2.079  12.461   6.256  1.5387  0.7576  0.9687
13445SOL     OW47574   7.585   7.162   9.587  0.3210 -0.5373  0.0100
13445SOL    HW147575   7.513   7.193   9.531  2.2414  2.4773 -1.0528
13445SOL    HW247576   7.593   7.230   9.654  3.2538  0.2106 -0.9813
13446SOL     OW47577   7.751  10.232   1.745 -0.7093  0.2056  0.2108
13446SOL    HW147578   7.751  10.315   1.697 -0.3061  1.2972  2.0357
13446SOL    HW247579   7.843  10.207   1.749 -0.9961 -1.9249 -2.8263
13447SOL     OW47580   8.349   7.392   2.358 -0.0990 -0.4926 -0.1432
13447SOL    HW147581   8.324   7.412   2.268 -0.0682 -0.9158 -0.2491
13447SOL    HW247582   8.269   7.403   2.409  0.2565  1.4267  0.0633
13448SOL     OW47583  11.259   8.085  11.772 -0.5672  0.3344  0.1321
13448SOL    HW147584  11.280   7.995  11.798  3.1815  0.0661 -2.9387
13448SOL    HW247585  11.313   8.139  11.831  1.4338  0.1503 -1.4134
13449SOL     OW47586   8.671   1.395   4.044 -0.1877 -0.4550  0.0067
13449SOL    HW147587   8.745   1.411   3.986 -0.3503 -0.6686 -0.2601
13449SOL    HW247588   8.597   1.377   3.986 -0.4077 -0.4328  0.2725
13450SOL     OW47589   7.172   5.671   4.810 -0.0617 -0.0704 -0.0392
13450SOL    HW147590   7.141   5.762   4.809 -1.2273 -0.4035  1.5641
13450SOL    HW247591   7.262   5.676   4.778  0.5770  1.9537  1.8299
13451SOL     OW47592   5.740   4.347   5.545  0.1608 -0.0268 -0.1161
13451SOL    HW147593   5.808   4.376   5.605 -1.5626  0.6951  1.6030
13451SOL    HW247594   5.697   4.428   5.516 -0.1871 -0.4790 -0.9083
13452SOL     OW47595   5.852   5.719   3.793  0.7433  0.5672  0.3792
13452SOL    HW147596   5.816   5.805   3.813  1.6285  0.6977  1.5018
13452SOL    HW247597   5.782   5.674   3.746  0.2015  1.8236 -0.0355
13453SOL     OW47598   6.705  10.814  11.245  0.0907 -0.0714  0.2296
13453SOL    HW147599   6.688  10.858  11.162 -1.1556 -1.1955 -0.1396
13453SOL    HW247600   6.662  10.729  11.236 -1.6735  0.4736  2.7203
13454SOL     OW47601  11.622   0.617  10.926 -0.1435 -0.2239  0.3744
13454SOL    HW147602  11.635   0.601  10.833 -2.4782 -1.7988  0.2357
13454SOL    HW247603  11.539   0.663  10.931 -0.6825 -1.2769  1.7371
13455SOL     OW47604  10.765   1.824   2.698 -0.2937 -0.3158 -0.1332
13455SOL    HW147605  10.701   1.772   2.650 -0.6197 -0.2051  0.1751
13455SOL    HW247606  10.814   1.760   2.750 -0.9610 -0.2881  0.5563
13456SOL     OW47607  10.745  12.118   7.665  0.2443 -0.5819  0.1855
13456SOL    HW147608  10.686  12.075   7.726  0.2431 -0.8268  0.0124
13456SOL    HW247609  10.692  12.186   7.623 -0.5741 -2.2441 -1.6123
13457SOL     OW47610   2.727   5.909   7.137 -0.6456  0.3294  0.1257
13457SOL    HW147611   2.814   5.904   7.096 -0.2602 -0.9983  1.0455
13457SOL    HW247612   2.733   5.984   7.197  0.5948 -0.9481  1.7036
13458SOL     OW47613   4.150   9.362   1.178 -0.1097 -0.2964 -0.3809
13458SOL    HW147614   4.149   9.266   1.176  1.0130 -0.3677  0.7443
13458SOL    HW247615   4.138   9.384   1.271 -1.2845  0.6981 -0.7401
13459SOL     OW47616   2.655   7.518   8.130 -0.0136  0.4837 -0.0161
13459SOL    HW147617   2.637   7.597   8.079  0.1570 -0.6122 -1.8654
13459SOL    HW247618   2.736   7.483   8.092 -2.0225 -2.5942 -1.9310
13460SOL     OW47619   5.421   9.050   4.952 -0.2612 -0.4394  0.2479
13460SOL    HW147620   5.386   9.114   4.891  0.2443 -0.9507 -0.6009
13460SOL    HW247621   5.467   9.102   5.018 -0.9423  0.1298  0.2779
13461SOL     OW47622   9.089   8.454   8.339  0.2341 -0.5220 -0.5296
13461SOL    HW147623   9.094   8.359   8.331  1.1869 -0.6631  1.3400
13461SOL    HW247624   9.178   8.482   8.357 -0.3257  0.5197  0.7771
13462SOL     OW47625  11.268   3.841  11.140 -0.3694  0.2405  0.2455
13462SOL    HW147626  11.347   3.885  11.174  1.1123 -2.1532  0.0942
13462SOL    HW247627  11.274   3.752  11.174 -2.6546 -0.2275 -0.4347
13463SOL     OW47628   3.236  11.003   1.700 -0.5603 -0.1433 -0.4947
13463SOL    HW147629   3.257  11.046   1.617  1.9585  1.8738  1.0166
13463SOL    HW247630   3.144  10.979   1.692 -0.7823  1.1829 -3.3262
13464SOL     OW47631   7.538  10.931   0.964 -0.8241  0.2959 -0.2171
13464SOL    HW147632   7.442  10.935   0.964 -0.8038  3.2676 -1.4864
13464SOL    HW247633   7.564  10.985   0.890  1.8749 -1.4247 -0.6590
13465SOL     OW47634   6.175   6.939   2.664  0.0054  0.3384  0.1671
13465SOL    HW147635   6.260   6.946   2.619 -0.7056 -0.6028 -1.3875
13465SOL    HW247636   6.111   6.935   2.594 -1.1270 -1.6804  1.2269
13466SOL     OW47637  12.309   5.545  11.657 -0.0078 -0.5325  0.0137
13466SOL    HW147638  12.389   5.596  11.671 -0.2279 -0.0408 -0.4614
13466SOL    HW247639  12.301   5.490  11.734  0.3399  0.0222  0.4528
13467SOL     OW47640   9.359  12.283   4.267 -1.1188 -0.1105  0.0962
13467SOL    HW147641   9.410  12.201   4.267  1.0339  1.1128  1.3754
13467SOL    HW247642   9.304  12.277   4.190  0.4247 -1.9233 -0.9596
13468SOL     OW47643   5.236   5.348  12.456  0.1991  0.1979  0.1307
13468SOL    HW147644   5.176   5.363  12.383  0.7266  2.1655  0.0460
13468SOL    HW247645   5.272   5.435  12.476  2.4226 -0.7834  0.6904
13469SOL     OW47646   8.929   1.339   8.032  0.8056 -0.3875 -0.5645
13469SOL    HW147647   8.939   1.250   7.998 -0.4672 -0.3654 -1.0690
13469SOL    HW247648   8.899   1.390   7.956  1.1311  0.3841 -0.1868
13470SOL     OW47649   7.582   7.910   8.782 -0.1932  0.0093 -0.1641
13470SOL    HW147650   7.508   7.911   8.721 -0.6264  2.0367  0.3293
13470SOL    HW247651   7.657   7.936   8.729 -0.3521  0.6353 -0.0833
13471SOL     OW47652   6.097   2.462   4.588  0.9724  0.1517  0.3337
13471SOL    HW147653   6.025   2.525   4.585  1.9319  1.2088 -1.9812
13471SOL    HW247654   6.062   2.384   4.543  0.9203  0.2605  0.1861
13472SOL     OW47655  12.253   6.847   3.676  0.4699  0.5356 -0.0194
13472SOL    HW147656  12.246   6.754   3.654 -1.4445  0.8562 -0.9894
13472SOL    HW247657  12.274   6.890   3.593 -0.2564  1.1036  0.0689
13473SOL     OW47658   7.315  11.053   4.996  0.5270 -0.0876 -0.1143
13473SOL    HW147659   7.404  11.030   4.970  0.8410 -0.6069  1.3105
13473SOL    HW247660   7.259  10.989   4.952  0.7723  0.6325 -1.5315
13474SOL     OW47661   8.058   5.552   7.838  0.3536  0.1404 -0.2390
13474SOL    HW147662   8.029   5.462   7.851  0.5370  0.3186  1.8247
13474SOL    HW247663   8.154   5.547   7.843  0.4232  0.2918 -1.3597
13475SOL     OW47664  11.483   6.119   5.378 -0.2079 -0.1303  0.1771
13475SOL    HW147665  11.541   6.096   5.451  0.7653 -0.0590 -0.5597
13475SOL    HW247666  11.491   6.214   5.369 -1.7523  0.1258  1.1423
13476SOL     OW47667   8.979   6.968   9.821  0.6757  0.2482  0.4062
13476SOL    HW147668   8.929   7.041   9.859  0.9617 -0.1452  1.5859
13476SOL    HW247669   9.044   7.009   9.765 -1.9841  0.7521 -2.5676
13477SOL     OW47670   1.873  10.622   7.036  0.2823  0.2046  0.1494
13477SOL    HW147671   1.810  10.693   7.026  3.0295  2.6428 -1.2639
13477SOL    HW247672   1.877  10.606   7.131 -0.6193  1.7338  0.4678
13478SOL     OW47673  12.466   7.297   7.940 -0.6148  0.2580 -0.1497
13478SOL    HW147674  12.533   7.235   7.912 -0.2661 -0.0834  1.3060
13478SOL    HW247675  12.413   7.247   8.003 -0.0289  1.5198  1.4250
13479SOL     OW47676   2.526   3.663   7.228 -0.1415 -0.2658 -0.6414
13479SOL    HW147677   2.502   3.586   7.280 -2.0401  0.0291 -1.0170
13479SOL    HW247678   2.548   3.730   7.293  0.2042 -0.7119 -0.2919
13480SOL     OW47679  10.313   4.520  12.603 -0.1794  0.0984 -0.0695
13480SOL    HW147680  10.353   4.499  12.519  0.7673 -0.1869  0.4433
13480SOL    HW247681  10.359   4.465  12.666  0.4702  1.6820  0.9068
13481SOL     OW47682   9.434  10.461   8.046  0.0336  0.2420 -0.0099
13481SOL    HW147683   9.496  10.450   8.118  0.2059 -0.2618 -0.2296
13481SOL    HW247684   9.349  10.444   8.085  0.0783  0.4355  0.1782
13482SOL     OW47685   4.249   8.274  10.526  1.0451  0.2693  0.4233
13482SOL    HW147686   4.248   8.185  10.491 -0.8369 -0.0935  1.2913
13482SOL    HW247687   4.292   8.326  10.458  0.2736 -0.9400 -1.0413
13483SOL     OW47688  11.706  11.823   2.508  0.2546 -0.2359 -0.1039
13483SOL    HW147689  11.759  11.797   2.583 -0.8803 -1.2309  0.3998
13483SOL    HW247690  11.616  11.811   2.537 -0.2185 -0.4650 -1.5513
13484SOL     OW47691   9.533   6.682  10.892 -0.4840  0.0519  0.0508
13484SOL    HW147692   9.530   6.591  10.864 -0.8282  0.3887 -1.0792
13484SOL    HW247693   9.554   6.731  10.812 -0.4808  0.9786  0.5998
13485SOL     OW47694   0.433   0.817   8.948  0.3145 -0.0522 -0.3027
13485SOL    HW147695   0.477   0.900   8.964 -0.1191  0.0130  0.6489
13485SOL    HW247696   0.435   0.806   8.853 -0.3607  1.4480 -0.5152
13486SOL     OW47697   0.937   0.152   0.892 -0.3890 -0.5450  0.0955
13486SOL    HW147698   0.951   0.069   0.937 -0.2887 -0.4718  0.1992
13486SOL    HW247699   0.842   0.166   0.897 -0.3844 -0.5629  0.2399
13487SOL     OW47700   8.009   0.146  11.162 -0.1740 -0.1047 -0.6039
13487SOL    HW147701   7.914   0.156  11.159 -0.3993 -1.6717  0.0388
13487SOL    HW247702   8.025   0.063  11.117  0.9338  0.3620 -1.0859
13488SOL     OW47703   9.774   5.454   5.543 -0.0583 -0.0878  0.9827
13488SOL    HW147704   9.744   5.520   5.480 -0.2430 -1.4495 -0.4218
13488SOL    HW247705   9.828   5.395   5.491 -0.1990 -1.2465  2.1143
13489SOL     OW47706   0.339  11.207   1.404  0.7909 -0.3785 -0.5122
13489SOL    HW147707   0.383  11.162   1.476 -0.1862 -1.0177 -0.2959
13489SOL    HW247708   0.250  11.171   1.404  0.3746  0.6154 -1.1676
13490SOL     OW47709   2.669  11.405   5.115 -0.6358 -0.3625  0.1144
13490SOL    HW147710   2.662  11.393   5.020 -0.4220  1.4325 -0.1612
13490SOL    HW247711   2.623  11.330   5.152 -4.3919  0.9442 -1.4162
13491SOL     OW47712   8.572   6.432   4.451 -0.1584 -0.3231  0.0817
13491SOL    HW147713   8.616   6.470   4.375 -0.7652  0.1411 -0.0414
13491SOL    HW247714   8.482   6.421   4.424 -0.0781 -1.4875  0.2562
13492SOL     OW47715   8.493  11.444   3.656 -1.0205  0.3268  0.3488
13492SOL    HW147716   8.544  11.458   3.736 -0.4783 -1.4776  0.3578
13492SOL    HW247717   8.403  11.459   3.683 -0.8162  0.0437  1.2454
13493SOL     OW47718   6.793   8.063   1.320 -0.5850  0.4985 -0.1897
13493SOL    HW147719   6.825   8.095   1.235  0.1844 -1.1710 -0.5690
13493SOL    HW247720   6.860   8.091   1.383 -0.3539  0.3989 -0.3869
13494SOL     OW47721   6.151   8.399   5.909 -0.4673 -0.0366  0.1076
13494SOL    HW147722   6.092   8.424   5.837 -0.3177 -2.5155 -0.9772
13494SOL    HW247723   6.237   8.393   5.867 -0.2230 -0.6600  0.6932
13495SOL     OW47724   8.225  11.304  10.390 -0.9057 -0.2728  0.1531
13495SOL    HW147725   8.203  11.211  10.381  4.3057 -1.8008 -0.1644
13495SOL    HW247726   8.197  11.327  10.478 -1.5555 -2.4373  0.5742
13496SOL     OW47727   8.820   0.344   8.192 -0.4340  0.1316 -0.2270
13496SOL    HW147728   8.762   0.406   8.234 -2.3833 -0.2250 -2.1741
13496SOL    HW247729   8.824   0.269   8.252 -1.8245  0.2645  0.0525
13497SOL     OW47730   1.186   7.262   9.096 -0.3368 -0.2364  0.0264
13497SOL    HW147731   1.208   7.308   9.177 -1.1582  0.0857  0.0843
13497SOL    HW247732   1.101   7.300   9.070 -0.7103 -1.2560 -0.2810
13498SOL     OW47733   9.212  10.300   4.557 -0.0083 -0.2396 -0.0644
13498SOL    HW147734   9.295  10.343   4.535 -0.0260  0.1583  0.6043
13498SOL    HW247735   9.236  10.209   4.572  0.2020 -0.2574 -0.4783
13499SOL     OW47736  11.335   1.814  10.081 -0.4266  0.0379  0.2954
13499SOL    HW147737  11.391   1.837  10.155  2.1184 -0.6137 -1.2660
13499SOL    HW247738  11.397   1.798  10.009 -2.7076 -0.1497 -1.7572
13500SOL     OW47739   0.739  10.083   2.222 -0.3979  0.2925  0.1274
13500SOL    HW147740   0.797  10.023   2.176 -2.2464 -0.8580 -0.8701
13500SOL    HW247741   0.735  10.049   2.311  0.2171  0.2112  0.1256
13501SOL     OW47742   1.216   7.492   1.862 -0.0951 -0.5431  0.1561
13501SOL    HW147743   1.131   7.452   1.843  0.2143 -1.8065  1.2138
13501SOL    HW247744   1.230   7.556   1.792 -3.0593  1.5844  1.3227
13502SOL     OW47745   0.433   4.263   7.289 -0.3095  0.6225 -0.0837
13502SOL    HW147746   0.516   4.232   7.251 -0.0501 -0.8580  1.5418
13502SOL    HW247747   0.436   4.358   7.278  0.1512  0.3776 -2.8321
13503SOL     OW47748   5.731   6.759   1.722 -0.0054 -0.6446 -0.4735
13503SOL    HW147749   5.725   6.794   1.811 -1.9649 -2.1520  0.0583
13503SOL    HW247750   5.787   6.682   1.731 -1.2556 -1.5619 -0.2253
13504SOL     OW47751   6.844  12.506   9.241 -0.0710  0.1768  0.0943
13504SOL    HW147752   6.832  12.507   9.336 -0.8967 -0.2416 -0.0006
13504SOL    HW247753   6.923  12.558   9.226  0.8920 -0.9481  1.1197
13505SOL     OW47754  10.943  12.039   1.683 -0.1507  0.4190 -0.1402
13505SOL    HW147755  10.963  12.031   1.777 -0.1426 -1.0998 -0.2430
13505SOL    HW247756  10.864  12.093   1.680 -1.2236 -1.0135  0.8860
13506SOL     OW47757   1.981   9.321   8.107  0.0749 -0.4648 -0.1031
13506SOL    HW147758   2.059   9.372   8.085  1.4410 -1.9972  0.9428
13506SOL    HW247759   1.914   9.353   8.047  0.8961  2.3494  0.3197
13507SOL     OW47760   2.214  10.392   8.050  0.1532  0.5715 -0.2646
13507SOL    HW147761   2.169  10.308   8.052  0.1206  0.5807  2.2773
13507SOL    HW247762   2.144  10.457   8.048  0.1663  0.5793 -0.8706
13508SOL     OW47763   7.931   2.880  12.143  0.0284  0.0313 -0.6541
13508SOL    HW147764   7.921   2.835  12.227  0.0201  0.4787 -0.4158
13508SOL    HW247765   7.861   2.945  12.142 -0.3522 -0.3742 -1.2718
13509SOL     OW47766   0.506   0.037   4.629  0.0391  0.0605  0.3667
13509SOL    HW147767   0.460   0.050   4.546 -2.1502 -0.8150  1.3661
13509SOL    HW247768   0.477   0.109   4.685  0.4600 -0.1007  0.8066
13510SOL     OW47769   6.998   4.573   3.173 -0.4998 -0.2910 -0.1015
13510SOL    HW147770   7.087   4.553   3.200  0.1056 -0.7950 -2.3194
13510SOL    HW247771   6.954   4.488   3.170 -0.5297 -0.2559 -0.7495
13511SOL     OW47772   1.155   5.478   1.405 -0.6476  0.2923  0.3532
13511SOL    HW147773   1.101   5.475   1.326  1.6738  0.1545 -1.3255
13511SOL    HW247774   1.145   5.391   1.444 -3.8276  1.1490  1.7580
13512SOL     OW47775   1.222  12.676   4.556 -0.5711 -0.7262  0.6379
13512SOL    HW147776   1.300  12.703   4.508 -1.1058  1.1589  0.7106
13512SOL    HW247777   1.204  12.750   4.615 -2.2546 -1.2080  0.7886
13513SOL     OW47778  10.964  11.532   6.434 -0.4635  0.3530 -0.4108
13513SOL    HW147779  10.876  11.524   6.470  0.5348  0.3186  2.2440
13513SOL    HW247780  10.984  11.625   6.439 -1.0078  0.6904 -2.9389
13514SOL     OW47781   3.026   0.380   6.012 -0.3694 -0.5442 -0.2807
13514SOL    HW147782   3.097   0.377   6.076 -0.0776 -1.9125 -0.6292
13514SOL    HW247783   2.991   0.468   6.019  1.1640  0.0628  0.1169
13515SOL     OW47784   3.802   7.282   0.281  0.3402  0.1275 -0.4291
13515SOL    HW147785   3.813   7.229   0.360  0.1988  2.0918  0.9689
13515SOL    HW247786   3.725   7.245   0.238  0.3725 -0.9302  0.3805
13516SOL     OW47787  10.705   2.865   9.276 -0.1964  0.3531 -0.5166
13516SOL    HW147788  10.650   2.938   9.247 -0.1898  0.1208 -1.1288
13516SOL    HW247789  10.767   2.852   9.205 -0.6523 -0.7164 -0.7361
13517SOL     OW47790   5.716   5.394  11.159 -0.0516 -0.3951 -0.1961
13517SOL    HW147791   5.711   5.489  11.142  1.8055 -0.1368  0.4135
13517SOL    HW247792   5.625   5.366  11.164 -0.7285  1.7386  1.5798
13518SOL     OW47793   4.946   3.009   1.621  0.1743 -0.0791 -1.0001
13518SOL    HW147794   4.860   2.995   1.661  0.9983  1.6946  1.6416
13518SOL    HW247795   4.974   2.921   1.594 -1.6237 -0.9784 -0.1574
13519SOL     OW47796   5.244   9.307   0.008 -0.5826  0.2219 -0.2588
13519SOL    HW147797   5.323   9.263   0.039  0.3490  1.7510 -0.3636
13519SOL    HW247798   5.201   9.338   0.088 -0.1848  0.8351 -0.2742
13520SOL     OW47799   1.399   7.333   8.275  0.0190  0.3253 -0.8391
13520SOL    HW147800   1.306   7.316   8.265 -0.0088 -1.3242  1.5274
13520SOL    HW247801   1.405   7.429   8.282 -1.6631  0.3954  0.1832
13521SOL     OW47802   1.612   9.724   0.792  0.2412  0.2281 -0.3205
13521SOL    HW147803   1.611   9.753   0.883  0.8793  0.4960 -0.3923
13521SOL    HW247804   1.614   9.806   0.742 -0.7566  0.0965 -0.5967
13522SOL     OW47805  11.335  10.422   5.753 -0.1758 -0.3844 -0.2989
13522SOL    HW147806  11.356  10.349   5.696  0.6351 -0.3967 -0.0045
13522SOL    HW247807  11.244  10.408   5.779 -0.1148 -1.1306 -0.4726
13523SOL     OW47808   4.864   1.572   9.050  0.2445 -0.8058  0.4971
13523SOL    HW147809   4.861   1.478   9.068  1.6146 -1.5003 -2.2173
13523SOL    HW247810   4.785   1.590   9.000  1.3761 -1.2745 -1.5928
13524SOL     OW47811   0.211   9.954   2.936 -0.1212  0.8875  0.1191
13524SOL    HW147812   0.217   9.866   2.899  1.3586  1.1844 -0.4336
13524SOL    HW247813   0.279  10.004   2.890  0.9655  1.5975  2.3400
13525SOL     OW47814   7.742   0.547   1.233  0.0024 -0.3336  0.1034
13525SOL    HW147815   7.838   0.551   1.226 -0.1481  2.2946 -1.8684
13525SOL    HW247816   7.723   0.588   1.317  0.5804 -0.1591  0.1572
13526SOL     OW47817   5.608  10.383   8.014 -0.2386  0.5284  0.5636
13526SOL    HW147818   5.527  10.338   8.038  0.9478 -1.6775  0.7208
13526SOL    HW247819   5.674  10.343   8.070  1.7045 -0.8579 -2.5037
13527SOL     OW47820   4.077   5.203  12.201  0.3991 -0.4986  0.1042
13527SOL    HW147821   4.021   5.148  12.256 -0.1104  0.2739  0.3695
13527SOL    HW247822   4.019   5.238  12.133  0.7394 -0.3747 -0.1318
13528SOL     OW47823   4.291   4.992   2.019  0.1623 -0.3411  0.0337
13528SOL    HW147824   4.365   5.016   2.075  1.5007  2.0435 -2.5131
13528SOL    HW247825   4.221   5.053   2.043  0.3472 -0.0645 -0.1278
13529SOL     OW47826   1.405   5.202  11.751 -0.0840 -0.3696  0.3356
13529SOL    HW147827   1.441   5.163  11.831  0.6120  3.5967  2.2216
13529SOL    HW247828   1.482   5.216  11.696 -0.3184 -1.4774 -0.2942
13530SOL     OW47829  10.128  10.854  11.392 -0.2071 -0.3188 -0.2622
13530SOL    HW147830  10.183  10.796  11.339 -0.8652 -1.7648  0.5790
13530SOL    HW247831  10.182  10.874  11.469 -0.5321 -1.0561  0.1639
13531SOL     OW47832   4.473   6.844   6.242 -0.2303  0.0370  0.1549
13531SOL    HW147833   4.396   6.850   6.185 -0.9158 -0.3562  1.0174
13531SOL    HW247834   4.507   6.755   6.227  0.9090  0.6517 -1.2507
13532SOL     OW47835   9.092   4.892   1.765  0.0462 -1.0068  0.1627
13532SOL    HW147836   9.101   4.842   1.846  1.5698 -1.9231 -0.5088
13532SOL    HW247837   9.053   4.830   1.703 -0.4436 -0.5421  0.0015
13533SOL     OW47838   0.135   4.378   1.578  0.2694 -0.0885  0.2403
13533SOL    HW147839   0.046   4.401   1.553 -0.4064 -1.2207  1.4985
13533SOL    HW247840   0.162   4.448   1.638 -0.0305 -0.1231  0.4138
13534SOL     OW47841  12.165  10.827   3.068  0.5170  0.1588  0.1745
13534SOL    HW147842  12.156  10.922   3.060  0.5821  0.0975 -0.7825
13534SOL    HW247843  12.076  10.794   3.065  0.5578  0.1122 -0.7893
13535SOL     OW47844   5.092   4.447   5.585 -0.0353  0.9616  0.3104
13535SOL    HW147845   5.163   4.390   5.556 -1.3920  0.0872 -1.4868
13535SOL    HW247846   5.069   4.414   5.672  0.1588 -0.3363 -0.1054
13536SOL     OW47847   2.282   6.074   6.699  0.5274  0.0717  0.2680
13536SOL    HW147848   2.217   6.073   6.769  1.4952 -1.0643  1.1840
13536SOL    HW247849   2.232   6.090   6.619 -0.6301  1.0799  1.1722
13537SOL     OW47850   7.156   8.550  11.997  0.3729 -0.3951  0.1495
13537SOL    HW147851   7.130   8.500  12.075  1.0869 -0.7391  0.1663
13537SOL    HW247852   7.232   8.600  12.025  0.7070 -0.6128 -0.3717
13538SOL     OW47853   7.925   2.131   0.681 -0.1764 -0.1907  0.4630
13538SOL    HW147854   7.871   2.204   0.711  1.4060  1.2714 -0.0807
13538SOL    HW247855   7.928   2.071   0.755 -0.1285  1.1175  1.5595
13539SOL     OW47856  10.936  12.390   8.695 -0.0414  0.4316  0.3035
13539SOL    HW147857  11.031  12.378   8.690 -0.2136 -0.9677 -0.1806
13539SOL    HW247858  10.905  12.373   8.606 -0.8223  0.0070  0.6413
13540SOL     OW47859   4.598   5.203   7.404 -0.2583 -0.2030  0.0270
13540SOL    HW147860   4.628   5.294   7.402 -1.1046  0.0704 -0.4107
13540SOL    HW247861   4.660   5.160   7.463  0.1403  0.6542  0.2622
13541SOL     OW47862   3.310   0.877   6.182  0.1181 -0.5104 -0.3201
13541SOL    HW147863   3.355   0.958   6.157  0.8194 -0.8239 -0.1097
13541SOL    HW247864   3.218   0.902   6.189  0.6116  1.0139  2.6440
13542SOL     OW47865  10.386   1.918   3.855  0.3548 -0.0544  0.4459
13542SOL    HW147866  10.439   1.997   3.839  2.3188 -1.2583  0.6656
13542SOL    HW247867  10.310   1.929   3.797  0.8734  1.7082  0.0149
13543SOL     OW47868   2.507   5.828   9.946  0.2021  0.2720  0.1090
13543SOL    HW147869   2.476   5.836  10.037  1.5072  1.3852  0.4875
13543SOL    HW247870   2.586   5.774   9.953 -0.7169 -1.2379 -0.6444
13544SOL     OW47871   2.539  12.537   9.080 -0.2974  0.0951  0.0540
13544SOL    HW147872   2.526  12.480   9.156 -1.3957 -0.6497 -0.6601
13544SOL    HW247873   2.513  12.483   9.005  1.2727  0.6178 -0.9272
13545SOL     OW47874   3.197  11.325   4.932 -0.0178 -0.2846  0.4317
13545SOL    HW147875   3.116  11.302   4.977 -1.1682  1.1874 -0.7639
13545SOL    HW247876   3.266  11.295   4.991 -1.4275 -0.3631  2.1536
13546SOL     OW47877   1.342   9.049   0.309  0.7025  0.0632 -0.0132
13546SOL    HW147878   1.281   9.117   0.338  0.3418 -0.1708 -0.2124
13546SOL    HW247879   1.377   9.013   0.391 -0.3252 -0.6074  0.1536
13547SOL     OW47880   6.546   8.844   4.823  0.0002  0.1696 -0.0451
13547SOL    HW147881   6.480   8.906   4.855  0.1273  0.0685  0.4199
13547SOL    HW247882   6.602   8.897   4.765 -1.2692 -0.0461 -1.5193
13548SOL     OW47883   5.202   8.511   9.579 -0.2823  0.1026 -0.1081
13548SOL    HW147884   5.167   8.550   9.659 -3.9397 -0.6027 -1.1832
13548SOL    HW247885   5.166   8.565   9.508  1.5383 -0.2542 -1.3619
13549SOL     OW47886  11.848  11.804   7.072 -0.7292  0.3364 -0.1761
13549SOL    HW147887  11.852  11.898   7.053  1.0187  0.1716 -0.8491
13549SOL    HW247888  11.925  11.788   7.126 -2.0374 -0.4157  1.5584
13550SOL     OW47889   6.561   2.817   0.308  0.5392 -0.1128 -0.0219
13550SOL    HW147890   6.520   2.845   0.226  0.7183 -0.5023 -0.2532
13550SOL    HW247891   6.642   2.868   0.313  0.2904  0.2594  0.1550
13551SOL     OW47892   6.350   5.473   4.049  0.3598  0.2786 -0.2482
13551SOL    HW147893   6.328   5.501   4.138  0.8044  0.2381 -0.1264
13551SOL    HW247894   6.429   5.522   4.027  0.6514 -0.2371 -0.3592
13552SOL     OW47895  11.100   4.581   4.634  0.6084 -0.0760 -0.2978
13552SOL    HW147896  11.141   4.667   4.625 -0.2517  0.3216 -0.5225
13552SOL    HW247897  11.057   4.584   4.719  1.6867 -0.7860  0.3017
13553SOL     OW47898   2.493   6.008   2.490  0.0242 -0.2694  0.5139
13553SOL    HW147899   2.448   5.984   2.409 -1.0681  1.0936  0.6705
13553SOL    HW247900   2.423   6.018   2.555  0.8265 -0.7622  1.4925
13554SOL     OW47901  11.621   1.296   0.528 -0.1728  0.0297  0.1664
13554SOL    HW147902  11.617   1.378   0.479 -0.1185 -0.5948 -0.9230
13554SOL    HW247903  11.662   1.234   0.468 -0.3786 -0.8437  0.9005
13555SOL     OW47904   3.030  11.263   2.469  0.4530  0.0904  0.3413
13555SOL    HW147905   2.985  11.342   2.497  1.5587  1.2976 -1.1183
13555SOL    HW247906   2.976  11.191   2.502 -1.7172  1.4362 -0.0957
13556SOL     OW47907   6.522   3.329   6.088 -0.7278  0.3669 -0.2111
13556SOL    HW147908   6.596   3.381   6.056 -1.1245  0.4400 -1.0333
13556SOL    HW247909   6.548   3.238   6.074  0.6468  0.1925  2.6946
13557SOL     OW47910   4.381   1.483   1.060 -0.3003  0.1242 -0.0033
13557SOL    HW147911   4.467   1.516   1.085 -0.4492 -0.6934  1.7691
13557SOL    HW247912   4.398   1.395   1.026 -0.4578 -0.1848  0.7015
13558SOL     OW47913   3.930  10.790   3.031 -0.2319  0.4110  0.0501
13558SOL    HW147914   3.954  10.753   3.116  0.8704 -0.0799 -0.4669
13558SOL    HW247915   3.909  10.715   2.976  1.4631  0.5520 -0.8335
13559SOL     OW47916   2.833   0.392  11.676  0.1591  0.2125 -0.4486
13559SOL    HW147917   2.862   0.325  11.615 -1.1852 -0.3585 -0.4896
13559SOL    HW247918   2.793   0.343  11.748  1.3875  0.8851  0.7376
13560SOL     OW47919   8.648  10.296   9.947 -0.4911  0.0594 -0.1062
13560SOL    HW147920   8.744  10.303   9.950 -0.3539 -0.8503 -1.4352
13560SOL    HW247921   8.632  10.203   9.933 -1.5013  0.4154 -1.5074
13561SOL     OW47922   2.548  11.798   2.605 -0.4248 -0.5251  0.2770
13561SOL    HW147923   2.642  11.813   2.604 -0.3684 -0.8558 -0.2162
13561SOL    HW247924   2.521  11.813   2.695 -0.1061  0.7971  0.1786
13562SOL     OW47925  11.472   1.855   3.339  0.4443  0.5516 -0.8291
13562SOL    HW147926  11.411   1.858   3.413 -0.0993  1.0309 -1.2907
13562SOL    HW247927  11.422   1.812   3.269  0.0992  2.2675 -1.6885
13563SOL     OW47928   3.657   3.359   1.456  0.0369  0.1350 -0.2079
13563SOL    HW147929   3.567   3.341   1.428 -0.2088  0.2216  0.5052
13563SOL    HW247930   3.698   3.400   1.380 -0.8271  1.0182 -0.2200
13564SOL     OW47931   8.793   8.240   6.938 -0.0493 -0.1630  0.1154
13564SOL    HW147932   8.776   8.179   7.010  1.2462 -1.0803 -0.3119
13564SOL    HW247933   8.852   8.192   6.879  0.6172  1.3296 -0.4913
13565SOL     OW47934   7.688   9.843  11.164 -0.1197  0.5689 -0.2508
13565SOL    HW147935   7.734   9.786  11.102  2.4963  0.6765  1.4623
13565SOL    HW247936   7.606   9.797  11.182  1.3441 -2.0917  0.1295
13566SOL     OW47937   9.202   6.745  10.092  0.1798  0.6884  0.1755
13566SOL    HW147938   9.285   6.738  10.139  0.1990  1.1347  0.2091
13566SOL    HW247939   9.226   6.749  10.000  0.1217 -0.6701  0.0758
13567SOL     OW47940   4.371   7.229   2.595  0.0506 -0.4496  0.2148
13567SOL    HW147941   4.466   7.228   2.607 -0.0571  0.3721  1.2785
13567SOL    HW247942   4.353   7.315   2.558 -0.1388 -1.1800 -1.4572
13568SOL     OW47943  12.455   1.327  12.202 -0.2069 -0.1314 -0.3676
13568SOL    HW147944  12.542   1.296  12.228 -0.4412  1.2383  2.5650
13568SOL    HW247945  12.442   1.406  12.254 -1.6796  1.9972 -3.6398
13569SOL     OW47946  10.299  12.702   8.840 -0.0122 -0.0130 -0.1185
13569SOL    HW147947  10.385  12.679   8.877  0.4271  0.7734 -0.6186
13569SOL    HW247948  10.236  12.657   8.896  0.7050 -0.1174  0.6223
13570SOL     OW47949  12.386   8.493  11.893 -0.4151  0.2628 -0.1862
13570SOL    HW147950  12.420   8.577  11.863  1.5445 -0.5309 -0.3167
13570SOL    HW247951  12.462   8.434  11.891 -1.3860 -1.1305  1.3334
13571SOL     OW47952   6.560   1.062   2.953  0.0010  0.1848 -0.3641
13571SOL    HW147953   6.579   1.133   2.891  0.7028  0.1959 -0.1496
13571SOL    HW247954   6.500   1.004   2.906 -0.2290  0.6909 -0.7025
13572SOL     OW47955   6.574  11.223   2.484  0.1753 -0.1051 -0.0938
13572SOL    HW147956   6.533  11.158   2.427 -1.5839  0.8549 -0.0143
13572SOL    HW247957   6.616  11.285   2.424 -1.3034  0.6660 -0.3880
13573SOL     OW47958   3.726  10.485  10.237  0.4939  0.1679 -0.6135
13573SOL    HW147959   3.644  10.469  10.191  0.6021 -2.1565 -0.1164
13573SOL    HW247960   3.794  10.480  10.170  0.3561  0.4866 -0.7757
13574SOL     OW47961  11.381   8.468   4.585 -0.1243  0.0389  0.0966
13574SOL    HW147962  11.420   8.424   4.510 -1.0212 -0.3645 -0.1440
13574SOL    HW247963  11.309   8.519   4.548 -0.1833  0.3307  0.6040
13575SOL     OW47964   6.464   5.932   5.587  0.1249 -0.2136  0.0825
13575SOL    HW147965   6.446   5.850   5.542 -1.7548  0.3363 -0.2707
13575SOL    HW247966   6.427   5.920   5.675  0.4057  0.0353  0.2364
13576SOL     OW47967  12.105   6.420   7.740 -0.1389 -0.3723 -0.5363
13576SOL    HW147968  12.179   6.463   7.782 -0.2945  0.2736 -0.9203
13576SOL    HW247969  12.029   6.445   7.793  0.1746 -3.2465  1.5764
13577SOL     OW47970   5.610   7.419   6.626 -0.3955 -0.3434 -0.2209
13577SOL    HW147971   5.536   7.415   6.686 -0.1679 -3.2744 -0.0051
13577SOL    HW247972   5.597   7.501   6.577 -3.1650 -0.2351  0.5517
13578SOL     OW47973   9.694  10.734  10.373 -0.4327 -0.3661 -0.9122
13578SOL    HW147974   9.625  10.668  10.363 -0.0675 -0.9924  0.5398
13578SOL    HW247975   9.669  10.783  10.451 -0.8676  1.4696 -2.1323
13579SOL     OW47976   2.686   4.111   0.300  0.0215  0.2017  0.1973
13579SOL    HW147977   2.738   4.048   0.350 -1.0868 -1.7343 -0.9821
13579SOL    HW247978   2.751   4.172   0.264  0.9933  0.6377  2.5081
13580SOL     OW47979   8.668   6.246   7.036 -0.0504 -0.0275 -0.2567
13580SOL    HW147980   8.625   6.320   6.991 -1.3719  0.7350  2.0873
13580SOL    HW247981   8.599   6.180   7.043 -1.0244  1.1503  3.4308
13581SOL     OW47982  11.412   5.795   3.010  0.2725  0.0698 -0.1979
13581SOL    HW147983  11.506   5.784   2.997  0.2994 -0.3167  0.2941
13581SOL    HW247984  11.383   5.848   2.936  0.9873  0.7458  0.0076
13582SOL     OW47985  10.964   3.544  11.703 -0.2838 -0.2045 -0.6971
13582SOL    HW147986  11.053   3.574  11.723 -0.3620  0.0765 -0.7649
13582SOL    HW247987  10.927   3.518  11.787 -0.1056 -0.4087 -0.6811
13583SOL     OW47988  10.945  10.599   7.688  0.3123 -0.0511 -0.2158
13583SOL    HW147989  11.022  10.559   7.646  0.4832 -0.9795  0.9395
13583SOL    HW247990  10.908  10.655   7.620  1.0237 -0.9165 -1.3589
13584SOL     OW47991   2.868  10.178  10.415  0.6014 -0.2493 -0.1123
13584SOL    HW147992   2.904  10.112  10.356 -1.9351  1.0140 -3.3422
13584SOL    HW247993   2.922  10.255  10.401  0.2561 -0.0706 -0.4643
13585SOL     OW47994   6.851  11.060   7.651 -0.6279  0.1376 -0.0679
13585SOL    HW147995   6.882  11.134   7.703  0.9912  0.6607 -1.6665
13585SOL    HW247996   6.775  11.093   7.604 -0.3740  0.5332 -0.1981
13586SOL     OW47997  11.379   7.999   4.326 -0.1880 -0.0990  0.0276
13586SOL    HW147998  11.433   8.068   4.288  0.0165 -0.8325 -1.0860
13586SOL    HW247999  11.422   7.918   4.299 -2.0234 -0.7131 -1.2236
13587SOL     OW48000   6.559  12.478   3.875 -0.0457  0.1097 -0.2190
13587SOL    HW148001   6.616  12.555   3.872  0.1619 -0.0375 -0.0535
13587SOL    HW248002   6.590  12.421   3.805  1.3363 -0.8930  1.1632
13588SOL     OW48003   4.785  11.541  10.914 -0.1501 -0.3682 -0.1809
13588SOL    HW148004   4.723  11.507  10.979 -0.3172  1.4254  0.6416
13588SOL    HW248005   4.869  11.502  10.939 -0.0503  0.8853  1.6531
13589SOL     OW48006   1.058   1.478   5.925  0.7584 -0.3412 -0.5459
13589SOL    HW148007   1.130   1.436   5.877  1.1446  0.0923 -0.3547
13589SOL    HW248008   1.004   1.404   5.955  1.3022 -0.6933 -0.4124
13590SOL     OW48009   9.006  10.548  12.444  0.5950  0.0467 -0.2866
13590SOL    HW148010   8.938  10.489  12.477  1.1599 -2.5371 -3.2361
13590SOL    HW248011   8.960  10.630  12.426 -0.8088 -0.2682  1.5377
13591SOL     OW48012  10.221   9.852  10.479 -0.3540 -0.1595  0.1658
13591SOL    HW148013  10.242   9.944  10.465 -1.3744 -0.0268 -0.6153
13591SOL    HW248014  10.305   9.806  10.469  0.0932  0.6384  0.1830
13592SOL     OW48015   2.901  10.639   0.029 -0.3164 -0.6898  0.6976
13592SOL    HW148016   2.811  10.624  -0.002  0.6904 -2.5622 -1.6971
13592SOL    HW248017   2.900  10.608   0.120 -2.6902  2.0757  1.7887
13593SOL     OW48018   6.246   6.486   0.763 -0.2283 -0.0597  0.3212
13593SOL    HW148019   6.257   6.581   0.768 -0.0596  0.1013 -2.0387
13593SOL    HW248020   6.152   6.472   0.779 -0.4809  0.6412 -0.4457
13594SOL     OW48021  12.220   4.774   8.968 -0.3271  0.7327  0.5210
13594SOL    HW148022  12.245   4.836   8.899 -0.5863 -0.3123 -0.5393
13594SOL    HW248023  12.303   4.736   8.997 -0.2110  1.2224  0.8535
13595SOL     OW48024  11.214   3.565   6.279  0.0625 -0.0924  0.2935
13595SOL    HW148025  11.279   3.519   6.333 -0.7844  1.0118  2.4042
13595SOL    HW248026  11.130   3.525   6.303 -0.1756 -0.8436 -1.6647
13596SOL     OW48027  10.373   1.628   8.404  0.2106 -0.6446  0.4329
13596SOL    HW148028  10.279   1.646   8.401  0.3760  0.4895  1.2402
13596SOL    HW248029  10.409   1.695   8.462  1.4179 -1.5437  0.7808
13597SOL     OW48030   1.833  12.212   2.343 -0.2895  0.2869  0.6781
13597SOL    HW148031   1.776  12.270   2.394 -0.9403  0.0051  0.2885
13597SOL    HW248032   1.839  12.254   2.258 -1.3804 -0.5758  0.1516
13598SOL     OW48033   4.817   0.067  10.688  0.3301  0.2711  0.7049
13598SOL    HW148034   4.747   0.033  10.632 -0.3456  2.7764 -0.1282
13598SOL    HW248035   4.891   0.009  10.672 -1.1710 -1.7734  0.7212
13599SOL     OW48036   3.051   3.051  10.173  0.3124 -0.2861  0.2256
13599SOL    HW148037   2.995   3.038  10.249 -1.1171 -0.2583 -0.7828
13599SOL    HW248038   3.123   2.990  10.185 -1.0539 -1.9030  0.5147
13600SOL     OW48039  10.057   1.419  11.748 -0.0850  0.3995  0.1032
13600SOL    HW148040  10.075   1.363  11.824 -1.5288  0.3768  0.4672
13600SOL    HW248041  10.018   1.498  11.786  3.1378  2.3198 -0.2772
13601SOL     OW48042   0.262   6.016  12.263  0.2505 -0.1022  0.2313
13601SOL    HW148043   0.228   5.927  12.267  2.5858 -1.0512  0.8323
13601SOL    HW248044   0.203   6.062  12.204  0.3116 -2.7042 -2.0869
13602SOL     OW48045  10.678   9.128   4.845  0.0090 -0.6685  0.2103
13602SOL    HW148046  10.635   9.213   4.848  0.8296 -0.2543  1.2901
13602SOL    HW248047  10.645   9.082   4.922 -0.0196 -1.1060 -0.0654
13603SOL     OW48048   2.449   4.497   0.605 -0.3377  0.4185  0.3601
13603SOL    HW148049   2.375   4.513   0.548  0.8010 -0.6749 -1.5279
13603SOL    HW248050   2.412   4.453   0.681 -1.6728  0.3287 -0.3221
13604SOL     OW48051   8.081   5.220  10.799 -0.3571  0.3708  0.2469
13604SOL    HW148052   8.102   5.300  10.751  2.2696  1.2738  2.5995
13604SOL    HW248053   8.154   5.161  10.782 -0.9528 -0.4957  0.6233
13605SOL     OW48054  11.231   0.917   3.250 -0.0724 -0.7685  0.0731
13605SOL    HW148055  11.189   0.999   3.272  0.2578 -0.8765  1.1443
13605SOL    HW248056  11.303   0.942   3.191  2.6651  0.3304  3.5081
13606SOL     OW48057   6.119   2.375  11.808  0.2639  0.0642 -0.4497
13606SOL    HW148058   6.032   2.339  11.793  0.3679 -0.2229 -0.3727
13606SOL    HW248059   6.105   2.445  11.872  0.1112 -0.0969 -0.3021
13607SOL     OW48060   6.828   0.200   9.858 -0.6816 -0.3566 -1.1179
13607SOL    HW148061   6.871   0.128   9.813  0.4241  0.1421 -0.8931
13607SOL    HW248062   6.781   0.159   9.931  3.0055 -0.6173  1.3855
13608SOL     OW48063   5.058   1.912   8.062 -0.0288 -0.3318 -0.1741
13608SOL    HW148064   5.011   1.965   8.127  1.9916 -0.8040  1.7662
13608SOL    HW248065   5.096   1.977   8.002 -1.4847  0.1328 -0.6443
13609SOL     OW48066   7.753  10.066   5.323 -0.2434  0.0349 -0.4498
13609SOL    HW148067   7.802  10.073   5.405 -0.8050  0.3999 -0.1413
13609SOL    HW248068   7.815  10.096   5.256  0.9201 -2.1578 -0.4469
13610SOL     OW48069   5.878   4.295   7.261  0.7248 -0.0067 -0.8058
13610SOL    HW148070   5.925   4.256   7.187 -1.3166 -2.9252 -0.7469
13610SOL    HW248071   5.815   4.355   7.221 -0.7392 -1.9622 -1.6073
13611SOL     OW48072   7.496   5.264   1.869  0.4280  0.0121  0.2191
13611SOL    HW148073   7.411   5.222   1.856  0.3146  0.0305  0.8993
13611SOL    HW248074   7.535   5.267   1.781 -0.3676  0.2103 -0.1347
13612SOL     OW48075   7.052   0.367  12.252  0.2245 -0.5463  0.1823
13612SOL    HW148076   7.021   0.366  12.162  1.7298 -0.0890 -0.3695
13612SOL    HW248077   6.983   0.414  12.300 -0.3250 -0.2839 -0.8258
13613SOL     OW48078   1.031   3.755  11.922  0.0063 -0.0694  0.4707
13613SOL    HW148079   1.124   3.776  11.931 -0.4673  1.7897  1.6746
13613SOL    HW248080   1.007   3.714  12.005 -0.0425 -1.5492 -0.2483
13614SOL     OW48081   3.388   4.669   7.644  0.0143 -0.7943  0.3316
13614SOL    HW148082   3.351   4.748   7.604  1.1732  0.3385  1.3777
13614SOL    HW248083   3.342   4.597   7.602  0.5433  0.3318 -2.3960
13615SOL     OW48084   3.435   6.259   2.608  0.1329 -0.2189  0.1570
13615SOL    HW148085   3.390   6.307   2.539  0.5029 -0.1622 -0.0453
13615SOL    HW248086   3.499   6.205   2.563 -1.3639 -2.1635  0.2428
13616SOL     OW48087   0.832   3.491   7.129 -0.5784  0.0591 -0.1677
13616SOL    HW148088   0.824   3.395   7.127 -0.1747 -0.1053  2.5625
13616SOL    HW248089   0.824   3.514   7.221  1.2346  2.5085 -0.5313
13617SOL     OW48090   0.325   1.091   1.828 -0.1740 -0.1413  0.2897
13617SOL    HW148091   0.343   1.181   1.800 -0.4443 -0.4245 -0.8388
13617SOL    HW248092   0.230   1.087   1.838 -0.0310  0.1339  1.9359
13618SOL     OW48093   7.794   0.347   6.258 -0.0149  0.0777  0.1416
13618SOL    HW148094   7.718   0.359   6.200  0.4644  0.2517 -0.4724
13618SOL    HW248095   7.770   0.275   6.316 -0.4665 -0.1825 -0.3626
13619SOL     OW48096   8.049   8.559   2.090 -0.5702 -0.3080  0.5247
13619SOL    HW148097   7.966   8.539   2.048 -0.9962  1.6545  0.3146
13619SOL    HW248098   8.041   8.651   2.116  1.5547 -0.0438  0.4439
13620SOL     OW48099   4.726   7.055  12.411  0.2192 -0.4757  0.0166
13620SOL    HW148100   4.697   7.065  12.501 -1.2794 -0.4987 -0.4306
13620SOL    HW248101   4.791   7.124  12.398 -1.1606  0.9788  0.4890
13621SOL     OW48102   9.257   5.594   6.638  0.0312 -0.0868  0.0796
13621SOL    HW148103   9.219   5.672   6.599  1.7276  0.8707  0.2290
13621SOL    HW248104   9.249   5.608   6.732  1.7494  0.7050  0.1455
13622SOL     OW48105   7.932  11.610   2.678  0.2268 -0.2097  0.1736
13622SOL    HW148106   7.898  11.521   2.678 -1.0691  0.2674  0.5426
13622SOL    HW248107   7.933  11.635   2.585 -1.8239  0.2457  0.2169
13623SOL     OW48108  10.879  11.894   6.852  0.6119 -0.0483  0.5075
13623SOL    HW148109  10.968  11.889   6.816  1.2975 -0.0019  2.1284
13623SOL    HW248110  10.881  11.969   6.911 -0.9814  0.9294 -0.5835
13624SOL     OW48111  10.190   4.598   5.813 -0.1383  0.1922 -0.5413
13624SOL    HW148112  10.227   4.676   5.854 -0.2297  0.3987 -0.8566
13624SOL    HW248113  10.104   4.625   5.783 -0.1497 -0.0158 -0.6994
13625SOL     OW48114   3.549   8.268  10.829 -0.4271 -0.6816 -0.2825
13625SOL    HW148115   3.638   8.235  10.835 -0.4433 -0.5667  0.7597
13625SOL    HW248116   3.508   8.215  10.760  0.3394 -0.9705 -0.5195
13626SOL     OW48117   9.900   5.249   1.013 -0.1760 -0.1926 -0.0099
13626SOL    HW148118   9.899   5.305   1.090 -2.5108 -0.5929  0.3296
13626SOL    HW248119   9.858   5.301   0.944 -0.8496 -0.9017 -0.1526
13627SOL     OW48120   7.955   0.157   3.594 -0.6395 -0.4383 -0.0960
13627SOL    HW148121   7.984   0.083   3.647  0.0197 -0.0495  0.0969
13627SOL    HW248122   7.861   0.162   3.608 -0.9279 -2.0566 -1.1414
13628SOL     OW48123   1.176   4.622   2.853 -0.1511  0.0199  0.0974
13628SOL    HW148124   1.112   4.562   2.815 -0.8441  1.0289 -0.3589
13628SOL    HW248125   1.129   4.664   2.925  0.8293 -1.1158  1.4802
13629SOL     OW48126  10.979  12.294   5.536  0.4134 -0.4917 -0.3496
13629SOL    HW148127  10.890  12.311   5.566  0.0117  0.3907 -1.9448
13629SOL    HW248128  10.994  12.201   5.557  0.1340 -0.0113  2.3063
13630SOL     OW48129   5.068   9.841   8.380 -0.4920 -0.7759  0.1695
13630SOL    HW148130   5.111   9.896   8.445 -0.4533  0.7080 -1.0499
13630SOL    HW248131   5.063   9.755   8.421 -1.6517  0.3668  2.6662
13631SOL     OW48132  11.515   3.721   7.520  0.4723  0.1114  0.1993
13631SOL    HW148133  11.540   3.700   7.430 -0.4818  0.8774 -0.2630
13631SOL    HW248134  11.495   3.636   7.559  3.3825 -0.5386  0.5262
13632SOL     OW48135   1.130   2.834  12.325  0.4067  0.0203  0.5415
13632SOL    HW148136   1.152   2.893  12.253  1.9783 -0.3982  0.6378
13632SOL    HW248137   1.035   2.836  12.330  0.3841  1.9531  0.0511
13633SOL     OW48138   4.117   9.444   9.636  0.0981  0.6941 -0.1030
13633SOL    HW148139   4.167   9.403   9.706  1.0589  0.5186 -0.8728
13633SOL    HW248140   4.039   9.389   9.627  1.0497 -0.6130 -0.6737
13634SOL     OW48141   8.875  11.365   1.693 -0.3095  0.1677  0.2102
13634SOL    HW148142   8.909  11.325   1.613 -1.9270 -1.8550  0.4290
13634SOL    HW248143   8.871  11.458   1.674  2.0145  0.0852 -0.9938
13635SOL     OW48144   5.666   5.183   0.413  0.0727 -0.2242 -0.0902
13635SOL    HW148145   5.704   5.107   0.457 -1.5422  0.0065  1.8113
13635SOL    HW248146   5.638   5.149   0.328  1.2005 -1.2477 -0.0807
13636SOL     OW48147   7.727   6.237   0.929  0.1327  0.1279  0.3116
13636SOL    HW148148   7.678   6.307   0.971 -0.4215  0.1565 -0.3649
13636SOL    HW248149   7.715   6.161   0.987 -0.9645  0.0570  0.0104
13637SOL     OW48150   2.810  12.513   6.024  0.3412  0.1006  0.2690
13637SOL    HW148151   2.786  12.536   5.934 -1.9895 -1.4095  0.4256
13637SOL    HW248152   2.755  12.570   6.078  0.1441 -0.4933  0.6988
13638SOL     OW48153  11.512   0.778   2.460  0.4235 -0.1284 -0.6768
13638SOL    HW148154  11.444   0.796   2.394 -1.2993  0.1347  1.0802
13638SOL    HW248155  11.474   0.807   2.543  2.3269 -0.8827  0.5337
13639SOL     OW48156   9.963   1.341   2.729  0.0205 -0.0867  0.8268
13639SOL    HW148157   9.945   1.420   2.780  1.2199  0.0091  1.1177
13639SOL    HW248158   9.900   1.277   2.762  0.1525  0.2556  1.7672
13640SOL     OW48159   0.131  10.814   0.232 -0.0469  0.2065 -0.0433
13640SOL    HW148160   0.085  10.884   0.185  0.7598 -0.3397 -1.7290
13640SOL    HW248161   0.194  10.860   0.288  1.0211  0.8749 -1.7068
13641SOL     OW48162  11.215   5.339   9.342 -0.2185  0.2621  0.5205
13641SOL    HW148163  11.261   5.420   9.363 -0.2949  0.8882 -1.5686
13641SOL    HW248164  11.272   5.294   9.280 -2.1256  0.8658 -1.8354
13642SOL     OW48165   0.033   1.610   7.323  0.1334  0.3191 -0.0218
13642SOL    HW148166  -0.048   1.577   7.284  0.2987 -3.1384  2.2027
13642SOL    HW248167   0.090   1.626   7.248 -1.2082 -1.2412 -1.4560
13643SOL     OW48168   7.618   2.120   5.207  0.2494 -0.2388 -0.0308
13643SOL    HW148169   7.678   2.138   5.135 -0.8832  0.0169 -0.9352
13643SOL    HW248170   7.579   2.035   5.185  0.1640 -0.3348  0.4795
13644SOL     OW48171  11.657   6.002   8.518  0.5154 -0.3146 -0.0670
13644SOL    HW148172  11.623   5.957   8.596 -0.9366  0.1407 -0.4054
13644SOL    HW248173  11.748   5.972   8.511  0.0734 -1.9742  0.6194
13645SOL     OW48174   8.115   6.170   7.330 -0.1822  0.4956  0.2141
13645SOL    HW148175   8.197   6.219   7.342  0.7454 -1.1189  0.8280
13645SOL    HW248176   8.046   6.235   7.344  0.9720  1.9173 -0.3531
13646SOL     OW48177   0.268   2.802   6.404 -0.2513  0.4237  0.0784
13646SOL    HW148178   0.264   2.712   6.436  0.0288  0.4273  0.1281
13646SOL    HW248179   0.181   2.819   6.369 -0.2873  0.1143  0.0164
13647SOL     OW48180  10.358   4.882   7.838 -0.3198 -0.8321  0.4976
13647SOL    HW148181  10.307   4.911   7.914  0.8803 -0.2796  1.1230
13647SOL    HW248182  10.450   4.894   7.864  0.1323 -0.0250 -1.2534
13648SOL     OW48183  11.644   1.361   6.444 -0.2782 -0.3025  0.2360
13648SOL    HW148184  11.565   1.335   6.491 -0.3694  0.9727  0.8150
13648SOL    HW248185  11.709   1.377   6.513  0.2350 -0.4972 -0.1882
13649SOL     OW48186   8.806   6.636   6.504 -0.1139 -0.0374  0.1406
13649SOL    HW148187   8.892   6.593   6.501 -0.5999 -1.1060  0.6584
13649SOL    HW248188   8.786   6.656   6.413  1.2790  1.4896  0.1424
13650SOL     OW48189  12.564  12.132  12.282  0.1069 -0.5508  0.5666
13650SOL    HW148190  12.646  12.092  12.255 -0.6252 -0.6887 -1.6481
13650SOL    HW248191  12.508  12.058  12.306 -0.4097 -0.7417 -1.0950
13651SOL     OW48192   1.465   2.452   8.550  0.1899 -0.0404  0.2941
13651SOL    HW148193   1.390   2.498   8.587  0.3513  1.4871 -1.1466
13651SOL    HW248194   1.445   2.445   8.456  1.2139 -0.8814  0.1166
13652SOL     OW48195  11.031  11.874   4.052  0.4672 -0.0402 -0.0778
13652SOL    HW148196  10.984  11.925   4.119 -0.1859  0.5352 -0.9521
13652SOL    HW248197  10.963  11.851   3.988  1.3679  0.7452 -1.3362
13653SOL     OW48198   2.609   4.185   7.868 -0.4020 -0.1065  0.1722
13653SOL    HW148199   2.583   4.260   7.815  1.2433  0.7385  0.4712
13653SOL    HW248200   2.605   4.110   7.809  0.8863  0.7231 -1.0431
13654SOL     OW48201   0.623  11.457   2.643  0.6456  0.0680 -0.5630
13654SOL    HW148202   0.576  11.532   2.681 -0.7910 -1.4162  0.7564
13654SOL    HW248203   0.715  11.481   2.650  0.2252  1.9796 -0.8012
13655SOL     OW48204   0.023   8.306   4.690  0.1787  0.6275 -0.2560
13655SOL    HW148205   0.107   8.268   4.713 -0.3238 -0.9088 -0.7987
13655SOL    HW248206  -0.039   8.270   4.753 -0.0588  1.9236  0.2842
13656SOL     OW48207  11.899   9.836  10.523 -0.3186 -0.1936 -0.1084
13656SOL    HW148208  11.976   9.876  10.562  0.6907  0.0385 -2.1862
13656SOL    HW248209  11.875   9.895  10.452 -0.7444 -1.6182 -1.1987
13657SOL     OW48210   8.965  11.609  11.968  0.0125 -0.0196  0.1572
13657SOL    HW148211   9.013  11.657  11.901 -0.9359  1.1156  0.2614
13657SOL    HW248212   8.873  11.615  11.941 -0.0864 -2.5036 -0.2708
13658SOL     OW48213   4.742   6.320   9.027 -0.0440  0.0407  0.0945
13658SOL    HW148214   4.822   6.361   9.060  0.4368  0.8145 -1.8609
13658SOL    HW248215   4.727   6.245   9.085  2.0241 -0.0475  0.5903
13659SOL     OW48216   0.874   0.618   6.174  0.2849  0.7438 -0.2040
13659SOL    HW148217   0.870   0.553   6.104  0.3038  0.3910  0.1153
13659SOL    HW248218   0.824   0.579   6.245  0.6424  0.8965  0.1380
13660SOL     OW48219   3.597   8.613  10.652  0.0229 -0.3793  0.0238
13660SOL    HW148220   3.542   8.586  10.578  0.7312 -2.9632  0.3200
13660SOL    HW248221   3.565   8.560  10.725  2.1627 -1.1924  0.4432
13661SOL     OW48222   4.079   3.127   8.945  0.1507 -0.2566  0.6420
13661SOL    HW148223   4.010   3.127   9.011 -2.2124  1.2656 -1.6334
13661SOL    HW248224   4.039   3.087   8.868  1.2477  2.0921 -1.2594
13662SOL     OW48225   2.785  11.404   6.017 -1.4039 -0.4596  0.2822
13662SOL    HW148226   2.705  11.420   6.066 -0.6015 -0.1243  1.5368
13662SOL    HW248227   2.840  11.481   6.033 -0.2302 -1.3478  0.7376
13663SOL     OW48228   8.795   5.678   1.403  0.3956 -1.1486  0.9836
13663SOL    HW148229   8.851   5.740   1.450  0.3085 -0.4907  0.2318
13663SOL    HW248230   8.707   5.714   1.413  0.6275  0.6489 -2.0555
13664SOL     OW48231  10.271   2.431   7.094 -0.3618 -0.3029 -0.1407
13664SOL    HW148232  10.221   2.350   7.082 -0.0659 -0.6011  0.5800
13664SOL    HW248233  10.335   2.430   7.022 -0.6785 -0.4586 -0.4257
13665SOL     OW48234  11.021   2.384   9.795  0.6985  0.5371  0.4418
13665SOL    HW148235  11.082   2.415   9.728  0.1321 -2.3402 -1.6163
13665SOL    HW248236  11.074   2.324   9.849  0.4444  0.4914  0.6427
13666SOL     OW48237  12.228   0.383   1.704 -0.2305 -0.2782  0.3605
13666SOL    HW148238  12.207   0.389   1.798 -2.8689 -0.1977 -0.1590
13666SOL    HW248239  12.221   0.290   1.683 -2.0695 -0.0442 -0.2029
13667SOL     OW48240  12.390   6.024   5.946 -0.2036 -0.0461  0.1466
13667SOL    HW148241  12.471   6.031   5.996  1.1683 -0.9733 -1.7935
13667SOL    HW248242  12.418   6.026   5.854 -2.0840 -2.7963 -0.6351
13668SOL     OW48243   7.169   2.519   9.543  0.4073 -0.2027 -0.0720
13668SOL    HW148244   7.199   2.468   9.618 -0.8988 -0.4559  0.3025
13668SOL    HW248245   7.234   2.500   9.474  0.3237 -1.8784  0.2519
13669SOL     OW48246   1.489   1.393   2.646  0.5555 -0.3233  0.0290
13669SOL    HW148247   1.409   1.436   2.614  0.0218 -1.0204  0.4083
13669SOL    HW248248   1.461   1.305   2.672  1.3897 -0.4789  0.4447
13670SOL     OW48249   6.030  12.194   5.166  0.3229 -0.4311  0.2051
13670SOL    HW148250   6.096  12.155   5.225 -0.0248 -1.0287  0.2136
13670SOL    HW248251   5.961  12.224   5.225  0.3957 -0.1877  0.1659
13671SOL     OW48252  11.957  10.601   2.525  0.1848 -0.0656 -0.4235
13671SOL    HW148253  11.914  10.625   2.443 -0.6792 -2.8719 -0.9166
13671SOL    HW248254  11.996  10.515   2.507 -0.0755 -0.7909  2.0925
13672SOL     OW48255  12.242  11.474  12.338  0.3320  0.2548 -0.0306
13672SOL    HW148256  12.227  11.449  12.429  0.2401  1.4316  0.2992
13672SOL    HW248257  12.224  11.569  12.336 -1.4600 -0.0458 -1.6376
13673SOL     OW48258  12.079  12.308   1.109  0.3840  0.2197 -0.2516
13673SOL    HW148259  12.155  12.250   1.101  0.7437  0.7886 -1.0378
13673SOL    HW248260  12.111  12.385   1.156  0.2541  0.3986 -0.4562
13674SOL     OW48261   4.543   4.506   0.686  0.1331  0.3458 -0.7351
13674SOL    HW148262   4.525   4.597   0.663 -0.2737  0.2773 -0.6904
13674SOL    HW248263   4.470   4.479   0.742  1.3186  0.6329  1.0279
13675SOL     OW48264   3.660   6.556  10.405  0.3469 -0.5451 -0.2149
13675SOL    HW148265   3.595   6.625  10.408 -1.3630 -2.0578 -0.5104
13675SOL    HW248266   3.723   6.585  10.338 -1.5538 -0.2518 -1.9829
13676SOL     OW48267   6.926   3.504   4.542  0.0797 -0.3999  0.3562
13676SOL    HW148268   6.839   3.470   4.521  0.1177 -1.2152  1.4519
13676SOL    HW248269   6.986   3.452   4.489 -0.1204  0.7240 -1.0477
13677SOL     OW48270  10.109   9.955  11.072 -0.0267  0.6911 -0.4959
13677SOL    HW148271  10.106  10.046  11.043  0.0729  0.8737  0.0520
13677SOL    HW248272  10.157   9.909  11.002  0.3279  1.1429 -0.5544
13678SOL     OW48273   3.135  12.034  11.668  0.4626  0.1503 -0.2058
13678SOL    HW148274   3.199  12.075  11.610  0.0866 -2.3973 -2.6451
13678SOL    HW248275   3.174  11.949  11.689 -1.4719 -0.9192 -0.6820
13679SOL     OW48276   7.240   8.991  11.278 -0.8118  0.3578  0.4283
13679SOL    HW148277   7.156   8.976  11.322 -1.0055 -0.3233 -0.1636
13679SOL    HW248278   7.216   9.035  11.196 -0.4121  2.1385  1.2121
13680SOL     OW48279   5.937   7.218   8.791 -0.6090  0.4120  0.4478
13680SOL    HW148280   5.851   7.246   8.760 -0.1532 -0.5929 -1.9055
13680SOL    HW248281   5.986   7.299   8.806 -1.9816  1.0031  2.0081
13681SOL     OW48282   1.214   2.009   0.826  0.3057  0.3709 -0.0229
13681SOL    HW148283   1.224   2.047   0.913 -0.5482  0.6329 -0.0329
13681SOL    HW248284   1.230   1.915   0.839  3.5101  0.7862 -0.1924
13682SOL     OW48285   2.800   3.994  11.779 -0.0963 -0.0686 -0.3215
13682SOL    HW148286   2.795   3.937  11.856  0.7564  0.8599  0.4565
13682SOL    HW248287   2.743   3.953  11.714 -1.6721 -0.3342  1.1580
13683SOL     OW48288   3.440   3.415   3.777  0.1959 -0.4989 -0.1206
13683SOL    HW148289   3.513   3.353   3.785 -0.3375 -0.9712  1.6595
13683SOL    HW248290   3.466   3.473   3.706  2.0717 -0.9844  0.0928
13684SOL     OW48291   3.841   8.027   9.212 -0.5445  0.1298 -0.9933
13684SOL    HW148292   3.897   7.968   9.262 -0.6149 -0.1009 -1.1912
13684SOL    HW248293   3.902   8.091   9.174 -0.6386  1.5941  1.0846
13685SOL     OW48294  10.630  10.934   6.067 -0.0957 -0.2473 -0.1480
13685SOL    HW148295  10.605  10.845   6.091  0.4560 -0.2200  0.5736
13685SOL    HW248296  10.713  10.949   6.113 -1.2343  1.3752  1.5203
13686SOL     OW48297   5.322   8.717   0.747 -0.1870  0.1067  0.2817
13686SOL    HW148298   5.291   8.655   0.681  0.3733  0.8621 -0.7239
13686SOL    HW248299   5.246   8.773   0.764  0.4003  1.7416 -1.9284
13687SOL     OW48300  10.399   7.534   7.485 -0.1316 -0.1581 -0.5292
13687SOL    HW148301  10.432   7.564   7.570 -1.8914  0.2453  0.0451
13687SOL    HW248302  10.425   7.442   7.481  1.4799  0.2617 -0.3516
13688SOL     OW48303   5.976   3.975   0.297 -0.1207  0.0290 -0.5490
13688SOL    HW148304   5.907   3.910   0.313  0.4087 -0.3506  0.2288
13688SOL    HW248305   6.024   3.939   0.222 -0.3408 -0.0526 -0.6544
13689SOL     OW48306   1.301   8.928  10.760 -0.5902 -0.2628  0.0303
13689SOL    HW148307   1.254   8.930  10.677 -1.0210 -1.0021  0.2539
13689SOL    HW248308   1.394   8.929  10.735 -0.6567 -3.0438 -0.5788
13690SOL     OW48309  11.809   4.574   1.166  0.0962 -0.3671  0.0715
13690SOL    HW148310  11.790   4.490   1.208  1.2016 -0.9323 -0.4971
13690SOL    HW248311  11.811   4.553   1.072 -1.1677  0.6310 -0.2063
13691SOL     OW48312   1.167   4.970   5.464 -0.5573  0.6383  0.4911
13691SOL    HW148313   1.154   5.044   5.406 -0.7656  1.8450  2.0042
13691SOL    HW248314   1.255   4.939   5.445 -1.1435  0.0176 -1.4762
13692SOL     OW48315   0.278   0.357   1.332  0.5924 -0.2635 -0.5836
13692SOL    HW148316   0.349   0.298   1.357  0.3858 -0.1982  0.1716
13692SOL    HW248317   0.201   0.301   1.329 -0.1155  0.3452  2.6192
13693SOL     OW48318  11.874  10.322   6.655 -0.5249 -0.0106 -0.0487
13693SOL    HW148319  11.876  10.233   6.620  0.9624  0.1096 -0.3442
13693SOL    HW248320  11.835  10.312   6.742 -1.2452 -0.8022 -0.4437
13694SOL     OW48321  12.376  11.717   7.916  0.4681  0.4901  0.0267
13694SOL    HW148322  12.288  11.680   7.917  0.4424  0.3343 -2.5046
13694SOL    HW248323  12.365  11.804   7.878  1.3367  0.6718  0.1708
13695SOL     OW48324  11.633   0.132   9.036  0.3260  0.1403 -0.0279
13695SOL    HW148325  11.606   0.073   8.966  2.6594  0.5069 -1.3260
13695SOL    HW248326  11.656   0.214   8.991 -1.8083  1.7521  1.6087
13696SOL     OW48327   0.600   3.086   9.394  0.0302 -0.1110 -0.2569
13696SOL    HW148328   0.648   3.145   9.452  1.3930 -0.7245 -0.7305
13696SOL    HW248329   0.584   3.008   9.446 -3.2867  1.1925  0.9558
13697SOL     OW48330   2.575   7.745   2.427  0.2405 -0.4518  0.5059
13697SOL    HW148331   2.618   7.696   2.497  3.0916  0.6289 -0.3506
13697SOL    HW248332   2.600   7.700   2.347  0.0527  0.4231 -0.0588
13698SOL     OW48333   9.325   5.345   4.740  0.0171  1.0583 -1.0678
13698SOL    HW148334   9.376   5.426   4.739  3.6529 -0.9574 -4.2007
13698SOL    HW248335   9.350   5.302   4.822 -1.7760  2.8383  0.5125
13699SOL     OW48336   2.386   5.005  11.198 -0.5392 -0.1903 -0.5253
13699SOL    HW148337   2.475   5.031  11.175 -0.8686  0.6309 -0.8974
13699SOL    HW248338   2.357   5.069  11.263 -0.8611 -0.4509 -0.4061
13700SOL     OW48339   7.643   9.486  12.074  0.0466 -0.0486 -0.2745
13700SOL    HW148340   7.712   9.497  12.141  0.2738 -0.9068 -0.3523
13700SOL    HW248341   7.633   9.573  12.036  0.2773  0.3449  0.5291
13701SOL     OW48342   8.938   3.107   6.297  0.6399 -0.8300  0.2432
13701SOL    HW148343   8.997   3.142   6.230 -0.4746  0.4453 -0.1037
13701SOL    HW248344   8.969   3.145   6.379 -0.0639  0.3676 -0.0239
13702SOL     OW48345   7.613   0.569   1.482  0.4492 -0.2136  0.7406
13702SOL    HW148346   7.630   0.629   1.555  0.7275  0.2567  0.2954
13702SOL    HW248347   7.523   0.541   1.495  0.0696  0.8573  0.5627
13703SOL     OW48348   5.011   5.374   4.450 -0.1859  0.4400 -0.3829
13703SOL    HW148349   5.045   5.354   4.362 -1.3504 -0.9632 -0.5562
13703SOL    HW248350   4.921   5.342   4.448 -0.2356  0.4116  1.3236
13704SOL     OW48351   8.525   6.845  11.955 -0.1831 -0.2113 -0.4200
13704SOL    HW148352   8.484   6.926  11.985 -0.1278 -0.6257  0.8256
13704SOL    HW248353   8.455   6.797  11.911 -0.2637  0.4081 -0.9910
13705SOL     OW48354  10.492   2.701   2.617 -0.2213  0.0331  0.5587
13705SOL    HW148355  10.446   2.678   2.698 -0.3844  0.5909  0.6357
13705SOL    HW248356  10.498   2.619   2.568 -1.6681  0.0049  0.3675
13706SOL     OW48357   2.109  11.248   5.283 -0.5781  0.6360 -0.0132
13706SOL    HW148358   2.014  11.262   5.288 -0.6517  0.7911 -1.4612
13706SOL    HW248359   2.146  11.312   5.343 -1.3988  0.3458  0.8270
13707SOL     OW48360  11.215   7.466   7.421 -0.4962 -0.1163  0.4636
13707SOL    HW148361  11.154   7.426   7.482  1.0834  0.0125  2.2275
13707SOL    HW248362  11.254   7.391   7.375  0.4639 -0.4998  1.8124
13708SOL     OW48363   4.933  11.937   8.961  0.0976 -0.0325 -0.2911
13708SOL    HW148364   4.898  11.864   9.011  2.0539  0.3305  1.8100
13708SOL    HW248365   4.921  12.013   9.018 -0.2242  0.9684 -1.6398
13709SOL     OW48366   3.184  10.952   5.890 -0.0983 -0.2187 -0.2555
13709SOL    HW148367   3.227  11.002   5.960 -1.8555 -0.5479  1.1668
13709SOL    HW248368   3.133  10.886   5.937 -2.8812  0.7484 -1.6742
13710SOL     OW48369  10.620   0.109   3.473 -0.0961  0.0644  0.3790
13710SOL    HW148370  10.530   0.142   3.476 -0.6187 -1.0708 -1.1248
13710SOL    HW248371  10.612   0.015   3.489  1.2250  0.3628  3.4310
13711SOL     OW48372   8.750   5.043   3.445  0.2099 -0.0547 -0.5705
13711SOL    HW148373   8.769   4.950   3.455  3.0632  0.4893  0.0147
13711SOL    HW248374   8.785   5.084   3.524  0.6906  1.7146 -1.6241
13712SOL     OW48375  10.777   6.504   3.014 -0.0557 -0.0461  0.0106
13712SOL    HW148376  10.829   6.543   2.944  1.9645  1.2014  2.0191
13712SOL    HW248377  10.715   6.572   3.040 -1.2198 -0.7223 -0.8992
13713SOL     OW48378   9.552   4.409  12.387 -0.4741 -0.2445  0.0338
13713SOL    HW148379   9.643   4.435  12.371 -0.9215  0.5360 -1.5076
13713SOL    HW248380   9.532   4.444  12.474  0.5991 -0.1736  0.2697
13714SOL     OW48381   3.573   7.712  12.339 -0.1573  0.2964 -0.0324
13714SOL    HW148382   3.510   7.648  12.372  0.3488 -0.3496 -0.3077
13714SOL    HW248383   3.658   7.681  12.370  0.0772  0.9346 -0.0175
13715SOL     OW48384  12.689   5.651   0.120  0.0485 -0.3310  0.1779
13715SOL    HW148385  12.656   5.606   0.198 -0.4287  1.9103  1.3461
13715SOL    HW248386  12.623   5.718   0.102  0.8269  0.0513 -1.3754
13716SOL     OW48387   4.746  12.448   9.014 -0.5227 -0.5788  0.0563
13716SOL    HW148388   4.730  12.504   8.937 -0.6478  0.2996  0.7061
13716SOL    HW248389   4.757  12.360   8.978 -1.2302 -0.2837 -0.9107
13717SOL     OW48390   8.316  10.323   3.744  0.7848 -0.5065  0.0330
13717SOL    HW148391   8.263  10.347   3.668  1.2356 -1.3878 -0.5723
13717SOL    HW248392   8.259  10.341   3.819 -0.6180 -1.9457 -0.6179
13718SOL     OW48393   0.506   8.662  12.337  0.1872  0.5179 -0.2043
13718SOL    HW148394   0.487   8.708  12.419 -1.6227 -1.2263  0.4189
13718SOL    HW248395   0.425   8.666  12.287  1.2527  1.5174 -1.9748
13719SOL     OW48396   3.274   4.759  11.312 -0.6807  0.4537 -0.2305
13719SOL    HW148397   3.212   4.722  11.248 -1.6417  0.3614  0.7279
13719SOL    HW248398   3.314   4.833  11.266 -1.7236  0.7078 -0.7739
13720SOL     OW48399   4.290   9.544   8.767  0.7010 -0.0994  0.3195
13720SOL    HW148400   4.230   9.546   8.693  0.5547 -1.0882  0.4083
13720SOL    HW248401   4.328   9.632   8.768 -0.1003  0.2728 -0.2593
13721SOL     OW48402   0.292   5.392   4.232  0.3537 -0.4482 -0.1335
13721SOL    HW148403   0.273   5.451   4.159 -0.4762 -0.2191  0.2480
13721SOL    HW248404   0.385   5.405   4.251  0.1681  0.8165 -0.0016
13722SOL     OW48405  12.196  12.604  11.365  0.2031 -0.2632 -0.0209
13722SOL    HW148406  12.173  12.657  11.289  1.2421 -0.4647 -0.4962
13722SOL    HW248407  12.170  12.515  11.341  2.0868 -0.6288 -0.8826
13723SOL     OW48408  10.122  10.168   8.327  0.0718 -0.1297  0.6802
13723SOL    HW148409  10.136  10.214   8.410 -0.5179 -0.1735  0.8072
13723SOL    HW248410  10.031  10.189   8.303 -1.1789 -3.4162  2.0983
13724SOL     OW48411   2.492  12.412   1.661 -0.0291  0.6658 -0.0174
13724SOL    HW148412   2.517  12.450   1.576 -0.6257 -0.7454 -0.8529
13724SOL    HW248413   2.421  12.352   1.640  0.2173 -0.1624  1.4043
13725SOL     OW48414   5.803  11.326   8.985  0.1055  0.4912 -0.3678
13725SOL    HW148415   5.797  11.420   9.001  2.0130  0.6613 -0.5017
13725SOL    HW248416   5.725  11.290   9.028 -0.3389  2.0564  0.2062
13726SOL     OW48417   6.726   4.189   0.414 -0.4391  0.2679 -0.1528
13726SOL    HW148418   6.663   4.119   0.428  0.0809 -0.6268 -1.9265
13726SOL    HW248419   6.673   4.268   0.404 -1.3764 -0.5481 -2.1802
13727SOL     OW48420   5.999   4.910  11.895 -0.3867  0.0453  0.4591
13727SOL    HW148421   5.994   4.948  11.808  0.9212  0.1415  0.3956
13727SOL    HW248422   5.933   4.841  11.896  0.1339 -0.5185 -0.9109
13728SOL     OW48423   7.431   6.439   6.094  0.0096 -0.4787 -0.5847
13728SOL    HW148424   7.438   6.491   6.014  0.6932 -1.1007 -0.9473
13728SOL    HW248425   7.472   6.356   6.072  1.1883 -0.2881  0.7455
13729SOL     OW48426   1.181  10.092   6.351 -0.1194 -0.6377 -0.3074
13729SOL    HW148427   1.100  10.134   6.324  0.4892  0.5007 -0.4586
13729SOL    HW248428   1.189  10.112   6.444  1.0933  1.2878 -0.7554
13730SOL     OW48429   5.023   2.746   9.535  0.0386 -0.2662 -0.2310
13730SOL    HW148430   5.076   2.819   9.569  0.4845 -0.0597 -1.3269
13730SOL    HW248431   5.050   2.671   9.587 -0.8184  0.4388  1.2922
13731SOL     OW48432   9.958   9.838   5.709  0.0074 -0.9986  0.0911
13731SOL    HW148433   9.999   9.878   5.633  1.4182  0.1360  1.3745
13731SOL    HW248434   9.933   9.750   5.680  0.0414 -0.4253 -1.7944
13732SOL     OW48435  12.681   9.110   9.737 -0.0498  0.5227  0.1267
13732SOL    HW148436  12.733   9.177   9.693 -1.0961  0.5015 -1.1911
13732SOL    HW248437  12.602   9.100   9.683 -1.4224  0.5201  2.0269
13733SOL     OW48438   9.383   1.067   0.807 -0.4613  0.2885  0.2734
13733SOL    HW148439   9.363   1.069   0.901  0.9540  0.7177  0.5907
13733SOL    HW248440   9.460   1.010   0.800 -0.9696 -0.3039 -0.7263
13734SOL     OW48441   6.590  10.673   3.375 -0.3501 -0.1015  0.1085
13734SOL    HW148442   6.646  10.682   3.298 -2.8103 -0.6562 -1.8644
13734SOL    HW248443   6.624  10.594   3.418  0.9794  0.1198 -0.4515
13735SOL     OW48444  12.581   7.477  10.172 -0.0596 -0.4613  0.2533
13735SOL    HW148445  12.614   7.566  10.185  0.2836 -0.5185 -0.2419
13735SOL    HW248446  12.648   7.421  10.210 -1.3003 -0.4496  2.6816
13736SOL     OW48447   1.429   7.158   8.482 -0.4052 -0.1059 -0.7263
13736SOL    HW148448   1.406   7.223   8.548 -0.0798 -0.8396  0.1403
13736SOL    HW248449   1.421   7.204   8.399 -1.5213  0.6530 -0.2293
13737SOL     OW48450   4.661   1.091  12.586 -0.1190 -0.0586 -0.0035
13737SOL    HW148451   4.600   1.164  12.579 -1.2057 -1.0733 -2.1672
13737SOL    HW248452   4.742   1.129  12.621 -0.1046  2.5002 -2.5410
13738SOL     OW48453   0.400   8.743   8.493  0.8342  0.1269  0.0757
13738SOL    HW148454   0.491   8.717   8.482  1.7344  2.1397  1.9824
13738SOL    HW248455   0.402   8.811   8.560 -2.2304 -0.5908  1.0762
13739SOL     OW48456   3.356   1.649   4.953 -0.0806  0.0006  0.0901
13739SOL    HW148457   3.313   1.662   4.869  0.5785  1.8864  0.0053
13739SOL    HW248458   3.450   1.657   4.934  0.1694 -1.1844  0.7469
13740SOL     OW48459  11.589   5.588   2.905  0.3637 -0.4544 -0.9908
13740SOL    HW148460  11.502   5.556   2.884  0.1591 -0.2064 -0.5201
13740SOL    HW248461  11.605   5.558   2.995  1.0160 -1.0433 -1.2938
13741SOL     OW48462   9.292  11.002   5.321 -0.2876  0.4615  0.0608
13741SOL    HW148463   9.336  11.026   5.240  0.7022  2.6028  1.1721
13741SOL    HW248464   9.200  10.990   5.295  0.4015 -1.5725 -1.8081
13742SOL     OW48465   6.840   8.342   6.687  0.1536 -0.4458  0.5074
13742SOL    HW148466   6.901   8.287   6.735  0.8755 -0.9202 -0.9159
13742SOL    HW248467   6.869   8.432   6.705  0.0863 -0.5787  1.3443
13743SOL     OW48468   8.074   5.295   6.034  0.5648 -0.7124 -0.0434
13743SOL    HW148469   7.991   5.253   6.010  0.6960 -0.0988 -1.6401
13743SOL    HW248470   8.141   5.242   5.990  1.1135 -1.4964  1.6193
13744SOL     OW48471   7.492  11.558   5.066 -0.3362  0.0100 -0.2154
13744SOL    HW148472   7.570  11.503   5.056 -1.2601 -1.5040  0.5399
13744SOL    HW248473   7.515  11.640   5.023  2.5584  0.5236  1.9711
13745SOL     OW48474   8.839   3.452  10.008 -0.1205  0.2109 -1.0803
13745SOL    HW148475   8.809   3.373  10.053  0.8223  1.0594  1.1641
13745SOL    HW248476   8.758   3.496   9.981 -1.0592  1.3376  2.8465
13746SOL     OW48477   3.223   8.466   6.068 -0.1135 -0.0352  0.1545
13746SOL    HW148478   3.318   8.472   6.069  0.0439 -1.7331  1.9697
13746SOL    HW248479   3.200   8.435   6.155 -2.1293 -1.9953 -0.9618
13747SOL     OW48480   6.854  10.034   4.067  0.4364 -0.1362 -0.1779
13747SOL    HW148481   6.784   9.969   4.055  1.2454 -1.0553 -0.0434
13747SOL    HW248482   6.861  10.077   3.982  0.4098 -0.7656 -0.5081
13748SOL     OW48483   4.081   9.885   6.595  0.5924  0.4465 -0.6904
13748SOL    HW148484   4.048   9.949   6.533  1.2869  0.8328 -0.6678
13748SOL    HW248485   4.176   9.886   6.583  0.9449  1.8580  1.6145
13749SOL     OW48486   7.931   6.961   7.879 -0.2715 -0.1684 -0.3423
13749SOL    HW148487   7.973   7.022   7.819  1.3766  0.7567  1.6406
13749SOL    HW248488   7.841   6.993   7.886  0.6551  2.4925  1.0370
13750SOL     OW48489   9.148   7.838  11.412  0.6459  0.0321  0.0999
13750SOL    HW148490   9.140   7.813  11.319  0.8164 -0.2983  0.1694
13750SOL    HW248491   9.152   7.933  11.411 -1.0361  0.1216 -0.1042
13751SOL     OW48492   9.952   7.783   1.279  0.2238 -0.4736 -0.4526
13751SOL    HW148493   9.902   7.863   1.288  1.2881 -0.0089  2.3787
13751SOL    HW248494   9.890   7.713   1.296 -0.0627 -0.0669  0.1842
13752SOL     OW48495   5.196  12.012   8.924  0.1969  0.1299  0.3941
13752SOL    HW148496   5.225  11.956   8.996  2.2584  0.2520 -0.3039
13752SOL    HW248497   5.102  11.992   8.915  0.4737 -1.8154  1.3729
13753SOL     OW48498   2.238   2.830  11.737 -0.5267  0.1747 -0.1312
13753SOL    HW148499   2.319   2.881  11.734  0.1199 -0.5875  2.1881
13753SOL    HW248500   2.173   2.890  11.773 -0.7057  0.4021 -0.8075
13754SOL     OW48501  11.705   7.247   2.216  0.2236 -0.5104 -0.0557
13754SOL    HW148502  11.738   7.328   2.256  1.4717 -2.2671  2.7873
13754SOL    HW248503  11.781   7.209   2.172  0.0361 -0.8419 -0.0982
13755SOL     OW48504   6.129   1.123   6.055 -0.1256 -0.1303 -0.3727
13755SOL    HW148505   6.090   1.210   6.048  0.0853 -0.0647 -0.7549
13755SOL    HW248506   6.135   1.107   6.150 -0.6231  0.0604 -0.3055
13756SOL     OW48507   6.787   6.281   4.400  0.6049  0.0550 -0.1583
13756SOL    HW148508   6.814   6.250   4.486 -0.9224  2.2134  1.2046
13756SOL    HW248509   6.737   6.209   4.363  0.5113 -0.5826  1.1557
13757SOL     OW48510  11.156   1.972  11.156 -0.9112  0.6697 -0.0413
13757SOL    HW148511  11.213   2.029  11.208 -0.3899 -0.6266  0.8748
13757SOL    HW248512  11.122   1.908  11.220  0.1306 -1.2803 -1.3598
13758SOL     OW48513   6.811   9.351   7.490  0.0894 -0.2218  0.8628
13758SOL    HW148514   6.868   9.373   7.563  2.1175 -0.2193 -0.6540
13758SOL    HW248515   6.739   9.413   7.497  0.7373  0.4263  2.2617
13759SOL     OW48516   4.411   0.340   7.620 -0.9417 -0.5192 -0.3925
13759SOL    HW148517   4.391   0.430   7.595 -0.6718 -0.0560  0.9796
13759SOL    HW248518   4.478   0.312   7.557 -1.1774  0.1584 -0.9608
13760SOL     OW48519   1.298   1.748   8.660  0.6678  0.1578  0.3477
13760SOL    HW148520   1.325   1.735   8.569  2.7545  1.4862  0.7108
13760SOL    HW248521   1.371   1.794   8.700 -0.9309  1.1653  2.2774
13761SOL     OW48522   7.399   7.174   9.058 -0.1374  0.3597  0.5010
13761SOL    HW148523   7.334   7.149   9.124 -0.9373  2.7174  0.7117
13761SOL    HW248524   7.461   7.230   9.105  1.0860 -0.4590 -0.0984
13762SOL     OW48525  12.428   8.097   0.252 -0.3411  0.4159 -0.2087
13762SOL    HW148526  12.428   8.150   0.332 -0.5567  0.4631 -0.2376
13762SOL    HW248527  12.358   8.033   0.267 -1.3260  1.2825 -0.9084
13763SOL     OW48528   2.374   3.030   9.189  0.0408 -0.0402 -0.1486
13763SOL    HW148529   2.421   2.982   9.121 -0.3710  0.3378 -0.7080
13763SOL    HW248530   2.392   3.122   9.170  0.4008  0.0577  0.6055
13764SOL     OW48531   5.954   3.996   7.560 -0.0001 -0.5452  0.1230
13764SOL    HW148532   5.983   4.008   7.651 -0.2047  1.7123 -0.0407
13764SOL    HW248533   5.927   4.084   7.532  1.6484 -0.8011 -2.6663
13765SOL     OW48534   2.603   9.989   0.572  0.0650  0.6201  0.3509
13765SOL    HW148535   2.685   9.967   0.527  0.2622  1.3144  0.3636
13765SOL    HW248536   2.568   9.904   0.600  1.3736  0.3888  1.3816
13766SOL     OW48537   8.245   1.275  12.628  0.3532  0.0740  0.8827
13766SOL    HW148538   8.335   1.307  12.617 -0.2543  1.2051 -1.6681
13766SOL    HW248539   8.230   1.275  12.722  2.8344  0.4143  1.3309
13767SOL     OW48540   5.035   0.466   4.606 -0.0823 -0.9598 -0.3691
13767SOL    HW148541   5.020   0.527   4.535 -0.9235 -0.3626  0.2925
13767SOL    HW248542   5.025   0.379   4.566 -1.4618 -0.6281 -0.8112
13768SOL     OW48543   8.254   1.533   0.242  0.4231 -0.0674 -0.5366
13768SOL    HW148544   8.255   1.557   0.149  0.2926 -2.2031 -1.1256
13768SOL    HW248545   8.191   1.594   0.282  1.0996  1.4314 -1.6479
13769SOL     OW48546   8.164   6.555   9.034 -0.1275 -0.4345 -0.3916
13769SOL    HW148547   8.096   6.494   9.062  0.0986 -1.0012 -1.0602
13769SOL    HW248548   8.218   6.504   8.973  0.3924  0.2660 -0.5215
13770SOL     OW48549   7.106   3.631   4.923 -0.0588 -0.1226 -0.2592
13770SOL    HW148550   7.179   3.613   4.863  0.5553  2.3072 -0.3545
13770SOL    HW248551   7.027   3.617   4.871  0.4298  0.1777 -1.0950
13771SOL     OW48552   6.834   0.877   6.029  0.1420 -0.0133  0.3488
13771SOL    HW148553   6.912   0.829   6.001  0.9057  2.5452 -2.3716
13771SOL    HW248554   6.868   0.953   6.076 -0.7319  0.6677 -0.0936
13772SOL     OW48555   6.351   1.835   4.299 -0.2471  0.1377 -0.1603
13772SOL    HW148556   6.408   1.905   4.267  1.1969 -0.6404  0.5627
13772SOL    HW248557   6.394   1.754   4.268 -2.7557 -0.4666 -2.4268
13773SOL     OW48558   8.646   6.688   6.250  0.5821  0.3216  0.0388
13773SOL    HW148559   8.614   6.600   6.231  1.6178  0.2329 -1.4713
13773SOL    HW248560   8.568   6.743   6.249  0.1080 -0.3510 -0.5206
13774SOL     OW48561  11.194  10.355   6.066 -0.5160  0.6284  0.0678
13774SOL    HW148562  11.267  10.416   6.058  0.7077 -0.8477 -0.7798
13774SOL    HW248563  11.139  10.374   5.990  0.6193 -0.2108 -1.0198
13775SOL     OW48564   6.260  10.406   3.395 -0.2562  0.0769 -0.0657
13775SOL    HW148565   6.214  10.327   3.423 -1.3172  0.0609 -1.7188
13775SOL    HW248566   6.191  10.472   3.385  0.1684  0.3211 -1.6805
13776SOL     OW48567  10.933   3.431   2.509 -0.2198 -0.4891 -0.5709
13776SOL    HW148568  10.849   3.420   2.465 -0.8219 -1.7611  0.7788
13776SOL    HW248569  10.917   3.399   2.598  1.2349  0.9255  0.2419
13777SOL     OW48570   4.170   4.165  10.770  0.1154  0.2670 -0.3881
13777SOL    HW148571   4.266   4.164  10.768  0.1197  1.0943 -1.9711
13777SOL    HW248572   4.149   4.215  10.849  0.8968 -2.2425  1.5497
13778SOL     OW48573  11.885  11.910   6.520  0.2903 -0.1037 -0.0571
13778SOL    HW148574  11.812  11.853   6.495  1.0703 -1.2851  0.2457
13778SOL    HW248575  11.955  11.888   6.459  0.9201 -0.1750  0.6732
13779SOL     OW48576   9.609   1.620   3.542 -0.1106 -0.5907  0.7208
13779SOL    HW148577   9.558   1.699   3.560 -1.5084 -1.7751  2.2769
13779SOL    HW248578   9.661   1.642   3.464 -0.5910  1.7643  0.9901
13780SOL     OW48579  12.461   8.202   2.855 -0.8504  0.5962 -0.2302
13780SOL    HW148580  12.413   8.230   2.933 -3.3974 -0.5861 -1.3000
13780SOL    HW248581  12.395   8.168   2.795  1.2390 -0.4256 -2.1377
13781SOL     OW48582  11.926  12.091   5.237 -0.0243 -0.5135  0.2388
13781SOL    HW148583  11.938  12.055   5.325 -0.9018 -2.0841 -0.2585
13781SOL    HW248584  11.840  12.135   5.241 -0.4567 -1.3130 -0.0475
13782SOL     OW48585   8.247   7.968   6.103  0.1790 -0.9032 -0.2727
13782SOL    HW148586   8.175   7.924   6.148 -0.0041 -0.7560 -0.4188
13782SOL    HW248587   8.213   8.055   6.082  0.6935 -0.5244  0.4231
13783SOL     OW48588  10.285   7.015   9.126  0.7967  0.3637  0.6576
13783SOL    HW148589  10.202   7.043   9.165  1.3180  1.2401  1.1687
13783SOL    HW248590  10.274   6.921   9.114  0.2039  0.2321  1.9500
13784SOL     OW48591   9.018   4.121  10.950 -1.0028 -0.1028 -0.7094
13784SOL    HW148592   9.019   4.034  10.911 -0.4240 -0.9522  1.0791
13784SOL    HW248593   8.928   4.132  10.980 -0.7185 -0.7925  0.4714
13785SOL     OW48594   0.797  10.469   3.930 -0.0733 -0.5350 -0.2751
13785SOL    HW148595   0.870  10.448   3.989  0.5494 -2.0352 -1.5120
13785SOL    HW248596   0.744  10.532   3.979  1.6023 -0.0357  0.9892
13786SOL     OW48597   7.112   4.092   9.867  0.3127 -0.2351  0.0421
13786SOL    HW148598   7.132   4.062   9.778 -0.5730  1.0568 -0.6234
13786SOL    HW248599   7.191   4.138   9.894  0.0828  0.6099 -0.6609
13787SOL     OW48600  12.107   5.383   2.554  0.6779 -0.4050 -0.0011
13787SOL    HW148601  12.105   5.308   2.613 -0.9607 -0.2220  0.2057
13787SOL    HW248602  12.028   5.433   2.575  1.7897  1.4723 -0.0307
13788SOL     OW48603   9.577   9.390  11.992  0.2002  0.6813 -0.0364
13788SOL    HW148604   9.535   9.308  11.967  1.1668  0.1226  0.1256
13788SOL    HW248605   9.504   9.449  12.012 -0.5420 -0.7884  1.9627
13789SOL     OW48606   0.540  12.599  11.938 -0.0212  0.0829 -0.5065
13789SOL    HW148607   0.628  12.561  11.937 -0.8726 -2.3309  2.3297
13789SOL    HW248608   0.482  12.527  11.912 -1.3619  0.8135  0.2977
13790SOL     OW48609  12.430   6.783  12.148  0.1668 -0.5098  0.0531
13790SOL    HW148610  12.479   6.735  12.215 -2.9010 -0.3818  2.6256
13790SOL    HW248611  12.433   6.874  12.177 -1.8921 -0.5662  0.6029
13791SOL     OW48612   3.830  12.250   6.949 -0.3393  0.1954 -0.0288
13791SOL    HW148613   3.817  12.301   6.869  0.1051 -1.4171 -1.1981
13791SOL    HW248614   3.744  12.246   6.990 -1.1021 -0.7562 -1.6106
13792SOL     OW48615   8.352  12.489   1.625 -0.1671  0.2129 -0.1064
13792SOL    HW148616   8.286  12.458   1.563 -0.9301 -1.0992  1.2883
13792SOL    HW248617   8.435  12.457   1.590 -0.6578 -1.0949 -0.1284
13793SOL     OW48618   3.885   3.234  10.838 -0.0705 -0.0173  0.3603
13793SOL    HW148619   3.807   3.218  10.891 -0.8462  0.6621 -0.5698
13793SOL    HW248620   3.853   3.247  10.749  1.1917 -0.8328 -0.2540
13794SOL     OW48621   4.763   1.751   6.763 -0.0270  0.1338  0.3301
13794SOL    HW148622   4.787   1.662   6.788 -0.0070 -0.2831 -1.0508
13794SOL    HW248623   4.668   1.753   6.767  0.0097  0.3647  1.3104
13795SOL     OW48624  11.474   1.849   2.632  0.0275 -0.1685  0.1771
13795SOL    HW148625  11.405   1.853   2.699  0.0723  1.3103  0.1797
13795SOL    HW248626  11.426   1.844   2.549 -0.0635 -0.4344  0.2459
13796SOL     OW48627  12.181   7.194  10.897  0.3502  1.2764  0.0409
13796SOL    HW148628  12.218   7.106  10.886  0.2373  0.8044  2.7856
13796SOL    HW248629  12.194   7.236  10.812 -0.8050 -1.8051 -1.8662
13797SOL     OW48630   6.124   5.388   7.508 -0.0965 -0.1978  0.2275
13797SOL    HW148631   6.123   5.434   7.592  0.6328  0.1913  0.0338
13797SOL    HW248632   6.078   5.448   7.448 -0.0624 -0.1933  0.2062
13798SOL     OW48633   6.212   6.995  11.810 -0.6141 -0.8174  0.2297
13798SOL    HW148634   6.147   6.965  11.874  0.3247 -0.1438  1.5374
13798SOL    HW248635   6.197   7.089  11.803 -0.7969 -0.8977 -0.6863
13799SOL     OW48636   0.238   2.844   6.051 -0.1299 -0.2785  0.1217
13799SOL    HW148637   0.212   2.903   6.122  2.2197 -0.0133  0.8482
13799SOL    HW248638   0.250   2.759   6.094  0.4271 -0.3233 -0.1192
13800SOL     OW48639  10.207   0.326  10.003  0.2127 -0.5840 -0.3909
13800SOL    HW148640  10.135   0.387  10.022  0.9308  0.1105  0.1758
13800SOL    HW248641  10.218   0.331   9.908 -0.5443 -0.7708 -0.4942
13801SOL     OW48642   4.053   3.461   5.542  0.1114  0.7064  0.1468
13801SOL    HW148643   3.986   3.443   5.476  0.2553  0.4689  0.0630
13801SOL    HW248644   4.131   3.481   5.492  0.0918  1.0363  0.2451
13802SOL     OW48645   6.788   5.389   4.193 -0.0910 -0.2756  0.3883
13802SOL    HW148646   6.786   5.481   4.168  0.3465  0.0901  1.6258
13802SOL    HW248647   6.801   5.341   4.111  1.5186  0.8689 -0.0619
13803SOL     OW48648   0.931   6.152  11.002  0.3970  1.3090  0.3674
13803SOL    HW148649   1.002   6.153  11.066  1.0587  1.9143 -0.3607
13803SOL    HW248650   0.967   6.106  10.926 -1.1446 -1.6277  1.2259
13804SOL     OW48651   1.979   2.523   3.293  0.1741 -0.1402 -0.3201
13804SOL    HW148652   2.027   2.445   3.322  0.8683  0.1767 -0.5791
13804SOL    HW248653   1.983   2.519   3.198 -0.3301 -0.1147 -0.3423
13805SOL     OW48654   0.063   0.218   7.459 -0.5201  0.4002 -0.5726
13805SOL    HW148655   0.137   0.279   7.463 -0.4942  0.5298 -2.3258
13805SOL    HW248656   0.099   0.139   7.418 -1.0583 -0.0089 -0.2729
13806SOL     OW48657  12.691  12.380   1.156 -0.4254 -0.3507  0.0455
13806SOL    HW148658  12.695  12.353   1.247  1.1975 -0.8351 -0.1363
13806SOL    HW248659  12.722  12.304   1.107  1.6299  0.8475 -0.6694
13807SOL     OW48660  12.681   3.751   9.128  0.0802  0.0078 -0.6034
13807SOL    HW148661  12.626   3.692   9.076 -1.2610 -0.6915  1.5066
13807SOL    HW248662  12.761   3.702   9.145  0.7333  0.4098 -2.2927
13808SOL     OW48663  10.494   9.801   5.993  0.1505 -0.4823  0.5322
13808SOL    HW148664  10.572   9.808   6.049  0.6017 -0.4514 -0.0948
13808SOL    HW248665  10.486   9.888   5.953 -2.1635  0.6587  3.1042
13809SOL     OW48666   7.824   9.661  10.679 -0.1422  0.7783  0.5462
13809SOL    HW148667   7.796   9.586  10.732  0.7336 -0.5339 -0.7817
13809SOL    HW248668   7.868   9.622  10.604  1.8488  2.6806  0.6458
13810SOL     OW48669   6.142  10.441   1.151  0.4414 -0.0280 -0.4855
13810SOL    HW148670   6.125  10.367   1.209  1.7230 -0.7621 -1.0199
13810SOL    HW248671   6.066  10.498   1.163  0.5192 -0.2936  1.6936
13811SOL     OW48672   9.492   9.871  12.366 -0.0707  0.3948  0.0977
13811SOL    HW148673   9.476   9.918  12.448 -0.4256  1.3538 -0.4948
13811SOL    HW248674   9.481   9.938  12.298 -0.7581 -0.5979 -0.7993
13812SOL     OW48675  10.722   7.146   7.794  0.1455 -0.2497 -0.0618
13812SOL    HW148676  10.781   7.107   7.858 -0.3863 -1.5283 -0.3190
13812SOL    HW248677  10.636   7.110   7.816 -0.0733 -0.5660 -1.3725
13813SOL     OW48678   7.478   4.009   0.426 -0.2049 -0.4236 -0.3364
13813SOL    HW148679   7.411   4.077   0.431  0.0308  0.0053 -2.2190
13813SOL    HW248680   7.560   4.056   0.439 -0.1217 -0.5406 -0.4401
13814SOL     OW48681  12.156   5.380   2.897  0.4912  0.0159  0.1673
13814SOL    HW148682  12.234   5.434   2.901 -0.9302  2.3613 -1.4727
13814SOL    HW248683  12.131   5.366   2.988  1.6924  0.9303  0.6470
13815SOL     OW48684   5.133   5.508   5.201  0.2687 -0.7475  0.1741
13815SOL    HW148685   5.088   5.538   5.280 -0.3832 -0.9635 -0.1098
13815SOL    HW248686   5.206   5.456   5.233  0.9960  0.5141  0.6670
13816SOL     OW48687  10.180   2.089   4.691 -0.1142  0.0412  0.2851
13816SOL    HW148688  10.134   2.035   4.626 -1.2350  1.8551 -0.5316
13816SOL    HW248689  10.272   2.082   4.667 -0.4878  0.5893 -1.5089
13817SOL     OW48690   6.430   5.944   7.071 -0.5475 -0.1719 -0.1907
13817SOL    HW148691   6.489   6.020   7.079 -0.4658 -0.3607  1.1073
13817SOL    HW248692   6.351   5.970   7.117 -0.6557 -0.7489 -0.0501
13818SOL     OW48693   6.161   1.167   8.111 -0.1036 -0.1168  0.0280
13818SOL    HW148694   6.235   1.216   8.147  0.5535 -0.2999 -1.0496
13818SOL    HW248695   6.084   1.220   8.133  0.5862  1.4285 -1.1029
13819SOL     OW48696   3.429  10.136   3.537  0.3777 -0.6560 -0.1860
13819SOL    HW148697   3.397  10.221   3.567  0.6943 -1.0865  1.4899
13819SOL    HW248698   3.462  10.152   3.449 -1.4699  0.4904 -0.7342
13820SOL     OW48699   1.988   4.486   9.837 -0.2539 -0.0137 -0.0438
13820SOL    HW148700   1.972   4.392   9.847  1.2596 -0.2067  0.8853
13820SOL    HW248701   2.029   4.494   9.751 -0.2131 -0.2202 -0.0440
13821SOL     OW48702   1.921   9.615  10.744 -0.0440 -0.4259 -0.0286
13821SOL    HW148703   1.988   9.549  10.726  0.8486  0.0012  1.5817
13821SOL    HW248704   1.966   9.699  10.731  0.3354 -0.1042  2.8321
13822SOL     OW48705   1.115  11.411   1.052  0.2364  0.2413  0.2715
13822SOL    HW148706   1.035  11.429   1.103 -0.7015  1.4902 -1.5393
13822SOL    HW248707   1.175  11.482   1.075  0.3659 -0.0005  0.6948
13823SOL     OW48708   8.392   8.168   1.647  0.4896 -0.8142  0.3242
13823SOL    HW148709   8.310   8.161   1.598 -0.4262 -0.2450  1.6938
13823SOL    HW248710   8.457   8.126   1.592 -0.7916 -1.5740 -0.6638
13824SOL     OW48711   4.902   9.266   7.395 -0.1180  0.1624  0.0113
13824SOL    HW148712   4.942   9.179   7.393  0.7121  0.5317 -0.3493
13824SOL    HW248713   4.820   9.256   7.347  1.3376  0.2016 -2.6529
13825SOL     OW48714   5.626   5.598   4.323 -1.0292  0.4443 -0.6934
13825SOL    HW148715   5.670   5.594   4.238 -1.1432 -1.3109 -0.7078
13825SOL    HW248716   5.639   5.511   4.361 -0.5577  1.3171  1.3158
13826SOL     OW48717   7.173  11.027  10.661 -0.6502  0.2778 -0.2396
13826SOL    HW148718   7.097  11.061  10.709 -0.3119 -0.0564  0.5456
13826SOL    HW248719   7.161  11.059  10.571 -1.0202  1.3607  0.1807
13827SOL     OW48720   9.290   0.324   4.159 -0.1981 -0.2298  0.1172
13827SOL    HW148721   9.304   0.373   4.077 -0.8294 -1.2444 -0.6248
13827SOL    HW248722   9.251   0.241   4.130 -3.7421  0.7078  1.6881
13828SOL     OW48723   7.156   8.228   3.866 -0.2680  0.1920 -0.6547
13828SOL    HW148724   7.233   8.284   3.868  0.0615 -0.2699 -0.0557
13828SOL    HW248725   7.122   8.231   3.955 -1.8832  1.6564 -1.2608
13829SOL     OW48726  11.514   1.010   8.183 -0.5997 -0.4440 -0.1193
13829SOL    HW148727  11.484   1.029   8.094 -2.7028 -0.8141  0.4463
13829SOL    HW248728  11.536   0.917   8.181  0.9082 -0.0940 -0.6270
13830SOL     OW48729   9.636  10.843  11.830 -0.0089  0.5869 -0.7457
13830SOL    HW148730   9.627  10.932  11.797  1.7312  0.7204 -0.9607
13830SOL    HW248731   9.729  10.834  11.850 -0.4914 -0.4572  1.3752
13831SOL     OW48732  10.531   7.405   6.158 -0.7922 -0.3172  0.2432
13831SOL    HW148733  10.597   7.337   6.173  0.7800  1.2109  0.4709
13831SOL    HW248734  10.573   7.466   6.098 -1.4709  1.4340  1.4981
13832SOL     OW48735   5.493   1.941   7.071 -0.4724 -0.6058  0.2483
13832SOL    HW148736   5.580   1.913   7.097  0.2616 -0.8600 -2.2391
13832SOL    HW248737   5.502   2.035   7.051 -0.8690 -0.5348  0.3797
13833SOL     OW48738  12.360   9.096   0.352 -0.0312  0.3017  0.4904
13833SOL    HW148739  12.354   9.025   0.416  2.9750  0.0578  0.6524
13833SOL    HW248740  12.393   9.054   0.273 -0.8555  1.1074 -0.3057
13834SOL     OW48741   6.312  12.298   7.135  0.4196  0.4424  0.6537
13834SOL    HW148742   6.332  12.215   7.180 -1.5138 -0.4540 -0.0208
13834SOL    HW248743   6.397  12.333   7.110  1.3274 -0.9624  1.6299
13835SOL     OW48744  10.672   4.463   6.179 -0.4436  0.5766  0.7151
13835SOL    HW148745  10.632   4.420   6.255  1.9722 -0.0923  1.7179
13835SOL    HW248746  10.729   4.395   6.141 -1.3669  0.9929 -1.5601
13836SOL     OW48747  11.859   5.740   7.210 -0.7499  0.1055 -0.1329
13836SOL    HW148748  11.930   5.768   7.152 -0.9475 -1.2098 -1.0447
13836SOL    HW248749  11.807   5.819   7.223 -0.3118  0.5949 -1.2058
13837SOL     OW48750   5.559  12.318   4.106 -0.5151 -0.1522  0.0642
13837SOL    HW148751   5.583  12.356   4.021 -0.1438 -0.7711 -0.1189
13837SOL    HW248752   5.527  12.230   4.085  0.2871 -0.5974  0.6201
13838SOL     OW48753   3.738   7.250   6.951  0.0907 -0.6597  0.4853
13838SOL    HW148754   3.755   7.320   7.013  3.1740 -0.4326 -0.4498
13838SOL    HW248755   3.678   7.288   6.887  1.0310  0.8540  0.4731
13839SOL     OW48756   6.269   2.135   9.786 -0.4765 -0.3838 -0.2877
13839SOL    HW148757   6.313   2.220   9.782 -0.6159 -0.3380 -0.9147
13839SOL    HW248758   6.311   2.090   9.859  0.0730 -0.0363 -0.3814
13840SOL     OW48759   0.793   3.553   8.421  1.0645  0.1768 -0.0260
13840SOL    HW148760   0.724   3.498   8.459  0.1981  0.3974 -1.2279
13840SOL    HW248761   0.869   3.495   8.414  1.2183  0.0867  1.8394
13841SOL     OW48762   3.738   6.595   1.453  0.1794 -0.4787 -0.5294
13841SOL    HW148763   3.686   6.574   1.530  0.6716  1.2350  0.3301
13841SOL    HW248764   3.790   6.516   1.436  0.3728 -0.7450  1.1586
13842SOL     OW48765   3.249  12.132   8.058 -0.1530 -0.0534  0.0032
13842SOL    HW148766   3.154  12.118   8.063 -0.3902  1.5046  0.4194
13842SOL    HW248767   3.286  12.063   8.112 -1.2039  0.6472  1.7094
13843SOL     OW48768   2.056  12.622   0.550 -0.5482 -0.5158  0.2252
13843SOL    HW148769   2.030  12.714   0.558  1.7708  0.2274  0.1960
13843SOL    HW248770   1.974  12.573   0.545 -1.8394  1.5658  0.0522
13844SOL     OW48771   9.508  10.890   8.133  0.1801 -0.3125 -0.2776
13844SOL    HW148772   9.530  10.843   8.213 -0.0167  1.5603  0.9447
13844SOL    HW248773   9.478  10.822   8.072 -0.6584 -1.6781  1.5682
13845SOL     OW48774   3.712   5.130   0.798  0.2021  0.2017 -0.3731
13845SOL    HW148775   3.634   5.178   0.826  0.0511 -0.1311 -0.2142
13845SOL    HW248776   3.707   5.128   0.702  0.0589  0.2537 -0.3660
13846SOL     OW48777  11.133   4.469   8.098 -0.4830  0.2770  0.3139
13846SOL    HW148778  11.194   4.528   8.142  1.7768 -1.1601 -0.6483
13846SOL    HW248779  11.184   4.434   8.024 -2.2707 -1.5398 -0.1497
13847SOL     OW48780  10.329   8.489   1.615 -0.2400 -0.0262  0.2239
13847SOL    HW148781  10.415   8.457   1.588 -1.0360 -1.2405 -1.0383
13847SOL    HW248782  10.337   8.506   1.709  1.8568  1.6084 -0.1728
13848SOL     OW48783   5.776  11.436   2.431  0.3665 -0.7046  0.2355
13848SOL    HW148784   5.794  11.418   2.523  0.5652  0.9603  0.5507
13848SOL    HW248785   5.770  11.350   2.391 -0.2704 -1.4853  1.9056
13849SOL     OW48786   4.426   3.526   9.527  0.0853 -0.8001 -0.0367
13849SOL    HW148787   4.490   3.546   9.595  1.0070 -1.5138 -0.6757
13849SOL    HW248788   4.366   3.465   9.568 -0.8381  0.6688  0.8973
13850SOL     OW48789   5.686   8.501   5.101 -0.0120  0.3976 -0.3136
13850SOL    HW148790   5.655   8.418   5.138  1.5632  1.2817  3.4894
13850SOL    HW248791   5.716   8.478   5.013 -1.3388 -2.6352 -0.1066
13851SOL     OW48792   5.074   6.133  10.815 -0.9779 -0.2029 -0.1293
13851SOL    HW148793   4.987   6.173  10.812 -0.4198  1.0357 -1.7840
13851SOL    HW248794   5.066   6.055  10.760 -1.0444 -0.0830 -0.2917
13852SOL     OW48795  10.764   3.438  10.644  0.3930  0.3938  0.1977
13852SOL    HW148796  10.825   3.467  10.711  1.2970 -1.3168  0.1687
13852SOL    HW248797  10.820   3.411  10.571 -0.5530  1.9924 -1.2011
13853SOL     OW48798   3.972   4.105   1.262 -0.6101 -0.6613  0.3809
13853SOL    HW148799   3.894   4.149   1.228  0.2885  1.4812  0.9222
13853SOL    HW248800   3.957   4.098   1.356  0.2925  0.8274  0.6634
13854SOL     OW48801  10.082   3.160   5.888 -0.2216 -0.3004 -0.2100
13854SOL    HW148802  10.044   3.197   5.809 -0.9676  1.7193  1.0271
13854SOL    HW248803  10.014   3.100   5.921 -0.2218 -0.5574 -0.6628
13855SOL     OW48804  11.004  12.422   5.833  0.6885 -0.0633  0.8156
13855SOL    HW148805  11.072  12.435   5.766 -0.2374 -1.5479 -0.4760
13855SOL    HW248806  11.013  12.498   5.891  3.1666 -0.0122  0.4556
13856SOL     OW48807   0.369   5.861   6.202  0.1289  0.4312  0.0711
13856SOL    HW148808   0.370   5.924   6.130  0.8002  0.2408 -0.0927
13856SOL    HW248809   0.423   5.902   6.270 -0.8651  0.8125  0.6517
13857SOL     OW48810  10.234   6.764  11.644 -0.2463 -0.1197 -0.1159
13857SOL    HW148811  10.188   6.724  11.570 -0.9844  1.0683 -0.3300
13857SOL    HW248812  10.173   6.756  11.717 -0.0455 -0.1535  0.0486
13858SOL     OW48813   0.810   7.575  11.670 -0.0422 -0.0665  0.0188
13858SOL    HW148814   0.901   7.578  11.638 -0.6103  0.3021 -1.6878
13858SOL    HW248815   0.782   7.485  11.655 -1.1198  0.6416 -3.1988
13859SOL     OW48816   5.262   4.156   6.417  0.2116 -0.2039  0.9760
13859SOL    HW148817   5.276   4.126   6.507 -0.1740 -0.2890  1.0089
13859SOL    HW248818   5.261   4.077   6.364  1.8496 -0.0707  0.6916
13860SOL     OW48819   7.721   8.255   6.219  0.6565 -0.1472 -0.8017
13860SOL    HW148820   7.759   8.304   6.146  1.7707 -1.3005 -1.0396
13860SOL    HW248821   7.795   8.207   6.256  0.2014  0.7184  1.3648
13861SOL     OW48822  10.401   4.691   0.198 -0.1703 -0.2519  0.4086
13861SOL    HW148823  10.359   4.689   0.112  1.4283 -0.1165 -0.4036
13861SOL    HW248824  10.333   4.723   0.257 -1.1600  0.0853 -0.8796
13862SOL     OW48825   7.654   2.318   6.689  0.8213  0.3492  0.5281
13862SOL    HW148826   7.652   2.411   6.668 -3.0850 -0.0119 -1.6863
13862SOL    HW248827   7.699   2.278   6.615 -0.0495  0.3070  0.0004
13863SOL     OW48828   3.825  12.128   5.529 -0.3531 -0.3903  0.1462
13863SOL    HW148829   3.847  12.037   5.508 -0.3018  0.2539 -3.1053
13863SOL    HW248830   3.732  12.136   5.510 -0.3009  0.2900  0.1299
13864SOL     OW48831   3.511  11.124   1.855 -0.3249 -0.4104 -0.1729
13864SOL    HW148832   3.533  11.065   1.782 -0.3463 -0.9318  0.2330
13864SOL    HW248833   3.494  11.065   1.929 -0.1705  0.1191  0.2918
13865SOL     OW48834   0.208   4.588  12.232  0.4991  0.5389  0.0330
13865SOL    HW148835   0.142   4.543  12.180  0.7851 -0.6012  0.6254
13865SOL    HW248836   0.164   4.613  12.313  0.7744 -0.2794  0.4563
13866SOL     OW48837   0.209  12.641   1.261  0.2608  0.6305 -0.7796
13866SOL    HW148838   0.131  12.635   1.205 -0.0998 -1.8023 -0.1361
13866SOL    HW248839   0.174  12.640   1.350  0.8648  3.6963 -0.4224
13867SOL     OW48840   7.369   1.247   7.402  0.3768  0.0668 -0.7512
13867SOL    HW148841   7.378   1.305   7.478  1.2168  0.0350 -0.8183
13867SOL    HW248842   7.315   1.296   7.341 -0.5919 -0.0399 -0.0086
13868SOL     OW48843   8.922  10.130   4.430  0.6345  0.4550  0.2537
13868SOL    HW148844   8.951  10.172   4.511  1.7092  2.1713 -0.9582
13868SOL    HW248845   8.958  10.041   4.434  0.3358  0.3734  1.7920
13869SOL     OW48846   4.695  11.261   9.869 -0.3784 -0.4405  0.0273
13869SOL    HW148847   4.647  11.279   9.788  0.8809 -1.2746 -0.9621
13869SOL    HW248848   4.785  11.287   9.849 -0.0681 -0.5509  1.2134
13870SOL     OW48849   8.251  12.393   5.310  0.5428  0.3057  0.3233
13870SOL    HW148850   8.226  12.460   5.247  1.9437  0.1837 -0.4123
13870SOL    HW248851   8.213  12.312   5.276 -1.6432  0.7438  1.5164
13871SOL     OW48852   3.677   7.895   9.053  0.6087 -0.4123  0.2356
13871SOL    HW148853   3.738   7.953   9.099 -0.0518  1.6578 -1.2966
13871SOL    HW248854   3.592   7.915   9.092  0.6560 -2.0643  1.2343
13872SOL     OW48855  11.992  10.126   8.374  0.4787  0.2033  0.0653
13872SOL    HW148856  12.050  10.094   8.305  1.0552 -1.8145  1.4366
13872SOL    HW248857  11.915  10.070   8.368  1.0521 -0.8300  1.8221
13873SOL     OW48858   3.435   3.960   3.353  0.1311 -0.3644 -0.3439
13873SOL    HW148859   3.356   4.010   3.371  0.3508  0.1094 -0.6882
13873SOL    HW248860   3.423   3.927   3.264  0.1074 -0.6997 -0.2185
13874SOL     OW48861   4.881   4.941   0.026 -0.1318 -0.3587  0.5101
13874SOL    HW148862   4.812   5.006   0.020  0.7594  0.5416 -0.2067
13874SOL    HW248863   4.925   4.960   0.109  0.8005  0.6751 -0.1900
13875SOL     OW48864   1.642   4.955   8.076 -0.3689 -0.6834  0.5686
13875SOL    HW148865   1.606   4.867   8.062 -1.6776  0.1379 -2.0177
13875SOL    HW248866   1.660   4.987   7.987 -1.1130  2.1174  1.3365
13876SOL     OW48867   0.152   8.544   4.789 -0.1920 -0.0006  0.1243
13876SOL    HW148868   0.147   8.518   4.697  1.4696 -1.4297  0.3780
13876SOL    HW248869   0.194   8.630   4.788 -0.1986 -0.0011 -0.4527
13877SOL     OW48870   3.570   0.818  12.183  0.3792 -0.2253 -0.4515
13877SOL    HW148871   3.620   0.743  12.152 -0.8133 -1.7258  1.0550
13877SOL    HW248872   3.633   0.871  12.231  0.7050 -1.7419  0.8668
13878SOL     OW48873   7.531  10.883  11.155 -0.9592  0.1767  0.1940
13878SOL    HW148874   7.445  10.919  11.173 -1.4114 -0.3364 -0.8351
13878SOL    HW248875   7.517  10.825  11.080  0.3658  0.4884 -0.3285
13879SOL     OW48876   7.938   3.956  11.851 -0.3811 -0.0121  0.5529
13879SOL    HW148877   7.865   4.009  11.883 -1.5991 -0.3839 -1.4298
13879SOL    HW248878   7.911   3.865  11.869  0.7023 -0.0987  1.9379
13880SOL     OW48879   3.652   3.717   3.444  0.3185 -0.1398 -0.4397
13880SOL    HW148880   3.747   3.709   3.448  0.3140 -0.2253  3.2449
13880SOL    HW248881   3.634   3.809   3.464 -0.3876  0.0671 -1.9147
13881SOL     OW48882   0.039   0.415   3.413  0.6057  0.1572 -0.7127
13881SOL    HW148883   0.093   0.352   3.461 -1.4121 -0.3898  1.0001
13881SOL    HW248884   0.058   0.397   3.321  1.5371 -1.6390 -0.2236
13882SOL     OW48885   2.511   9.714  11.968  0.1737 -0.3690 -0.4139
13882SOL    HW148886   2.549   9.685  12.051 -0.0810 -2.1624 -0.8817
13882SOL    HW248887   2.573   9.780  11.936 -0.0093  0.7765  1.4235
13883SOL     OW48888   5.459   7.488   4.397 -0.2601 -0.1438 -0.0503
13883SOL    HW148889   5.496   7.423   4.337 -0.6452  0.0861 -0.5421
13883SOL    HW248890   5.507   7.569   4.376  0.8356 -0.4414  1.1512
13884SOL     OW48891   1.320   9.743   0.946 -0.5561  0.4856  0.0140
13884SOL    HW148892   1.322   9.651   0.973 -1.6863  0.6480  0.7153
13884SOL    HW248893   1.256   9.784   1.004  0.4144  1.8699  0.1732
13885SOL     OW48894   9.521   0.298   5.775  0.2991 -0.0750 -0.2835
13885SOL    HW148895   9.442   0.262   5.814  0.5303  0.0946  0.3671
13885SOL    HW248896   9.540   0.376   5.828  0.1794  0.6219 -1.2353
13886SOL     OW48897   3.733   4.733   8.771 -0.5213 -0.7584 -0.4733
13886SOL    HW148898   3.805   4.795   8.770 -2.1207  1.4991  3.0114
13886SOL    HW248899   3.763   4.662   8.827 -0.9901  0.3097  1.1983
13887SOL     OW48900   8.944   1.217   1.152  0.7938 -0.1192 -0.5032
13887SOL    HW148901   8.868   1.184   1.200  1.9872 -1.8140  0.3684
13887SOL    HW248902   8.932   1.311   1.149 -2.1571 -0.4444 -1.9037
13888SOL     OW48903  11.100   0.886   4.297 -0.0144 -0.2416  0.5474
13888SOL    HW148904  11.055   0.954   4.348  1.4244  0.5153  0.8535
13888SOL    HW248905  11.193   0.900   4.315  0.6303  0.3391 -2.5987
13889SOL     OW48906   8.937  10.185  11.530  0.0295  0.6896 -0.5444
13889SOL    HW148907   8.859  10.141  11.563  0.9447 -0.3590  0.3161
13889SOL    HW248908   8.942  10.267  11.580 -0.1947  0.4711 -0.1593
13890SOL     OW48909   5.993   2.478   0.037  0.1698  0.2715 -0.5738
13890SOL    HW148910   6.028   2.562   0.007  2.0360 -0.5531 -0.8502
13890SOL    HW248911   6.066   2.417   0.027 -0.5050 -0.9727  1.5152
13891SOL     OW48912  10.963   1.358   7.252 -0.3119  0.4891  0.1362
13891SOL    HW148913  10.930   1.281   7.299 -0.5126  0.5457  0.0892
13891SOL    HW248914  10.955   1.335   7.159 -1.7380  1.1207  0.0857
13892SOL     OW48915   8.021   1.811   9.399  0.1460  0.1464 -0.5818
13892SOL    HW148916   8.114   1.826   9.414  0.4752 -1.1655 -1.1596
13892SOL    HW248917   8.012   1.716   9.397 -1.1665  0.2592 -0.7663
13893SOL     OW48918   3.166   0.837   5.805 -0.0226  0.3612  0.0128
13893SOL    HW148919   3.125   0.802   5.726 -0.1194  0.7376 -0.1034
13893SOL    HW248920   3.253   0.797   5.806  0.2671  0.9520 -0.7027
13894SOL     OW48921   0.156   9.750   4.198  1.0853  0.0156  0.0765
13894SOL    HW148922   0.076   9.723   4.244  0.3094 -1.1337 -1.8294
13894SOL    HW248923   0.126   9.778   4.112  2.5366  1.7055  0.0640
13895SOL     OW48924   8.249  10.656  11.488 -0.0673  0.3816  0.1623
13895SOL    HW148925   8.271  10.575  11.536  0.8539  1.0683  0.9574
13895SOL    HW248926   8.321  10.666  11.425  0.3686  1.0972  0.7586
13896SOL     OW48927  10.732   1.517   1.129 -0.1512  0.2391  0.2922
13896SOL    HW148928  10.644   1.482   1.145 -0.6298  1.7201  0.9621
13896SOL    HW248929  10.783   1.492   1.206 -0.6275  1.4310  1.0038
13897SOL     OW48930   7.468   5.064  12.587 -0.0419 -0.0926  0.0248
13897SOL    HW148931   7.529   5.094  12.519 -1.3423  0.9152 -0.7427
13897SOL    HW248932   7.434   5.144  12.625 -2.2486 -0.5482 -0.8296
13898SOL     OW48933   6.810   6.761   9.622 -0.2178  0.1452 -0.0596
13898SOL    HW148934   6.732   6.813   9.642 -1.1028 -0.0572 -2.6505
13898SOL    HW248935   6.871   6.823   9.581  0.9588  0.2506  1.7292
13899SOL     OW48936   8.486   3.489   7.722 -0.1385  0.6390  0.0294
13899SOL    HW148937   8.403   3.473   7.767  0.0549  1.0956  0.5604
13899SOL    HW248938   8.476   3.576   7.683 -0.8861 -0.3407 -2.1677
13900SOL     OW48939   4.805   1.523   2.803  0.0561 -0.0320  0.0385
13900SOL    HW148940   4.832   1.526   2.712  1.2630 -1.7344  0.2872
13900SOL    HW248941   4.886   1.536   2.853 -0.0511 -2.0306  0.8225
13901SOL     OW48942   9.915   3.729  11.580  0.0544  0.2301 -0.7052
13901SOL    HW148943   9.885   3.731  11.671  0.1682  1.3586 -0.6782
13901SOL    HW248944  10.009   3.708  11.586  0.2139  0.9803 -0.5129
13902SOL     OW48945   2.822   7.343   7.560  0.2871  0.1251 -0.0944
13902SOL    HW148946   2.795   7.319   7.649 -1.1154 -0.4435 -0.6514
13902SOL    HW248947   2.746   7.386   7.522  0.6784 -0.1469 -1.2205
13903SOL     OW48948   7.240   4.096   3.080 -0.2854 -0.3288 -0.4621
13903SOL    HW148949   7.161   4.042   3.082 -0.5202  0.0122 -0.2125
13903SOL    HW248950   7.259   4.113   3.173 -0.9101  0.9995 -0.5529
13904SOL     OW48951   7.888   3.641   7.690 -0.2963 -0.3193 -0.5874
13904SOL    HW148952   7.933   3.717   7.728  0.5603 -1.0857 -0.0532
13904SOL    HW248953   7.937   3.623   7.609  0.5718 -1.3477  0.1535
13905SOL     OW48954   1.921   4.896   4.486 -0.0570  0.0257  0.4579
13905SOL    HW148955   1.848   4.951   4.514  0.4855  0.7290  0.5201
13905SOL    HW248956   1.885   4.840   4.418 -0.3177  1.3420 -0.5156
13906SOL     OW48957   2.789  10.150   6.402 -0.0671  0.4824  0.3631
13906SOL    HW148958   2.754  10.083   6.343 -0.6990  1.2653 -0.1775
13906SOL    HW248959   2.777  10.233   6.354 -0.3402  1.1040  1.4652
13907SOL     OW48960   0.606   3.639   2.117 -0.3676 -0.2888 -0.7938
13907SOL    HW148961   0.579   3.611   2.204  0.5383 -1.0206 -0.7227
13907SOL    HW248962   0.659   3.718   2.132  1.6944 -1.6752 -0.4165
13908SOL     OW48963  10.723   3.685   7.271 -0.3302 -0.8541  0.1380
13908SOL    HW148964  10.651   3.670   7.332 -0.4444  0.6853  0.4060
13908SOL    HW248965  10.788   3.619   7.296 -0.1020  0.1194  2.4068
13909SOL     OW48966  10.423   3.092   6.197  0.2068 -0.0205  0.4060
13909SOL    HW148967  10.367   3.093   6.119  0.1359  0.3730  0.4619
13909SOL    HW248968  10.375   3.038   6.260  1.1750 -2.0576 -0.4855
13910SOL     OW48969   5.811   1.137   0.920  0.0056 -0.1587 -0.5167
13910SOL    HW148970   5.877   1.205   0.920 -0.0418 -0.1138 -1.1093
13910SOL    HW248971   5.859   1.056   0.937  0.5010 -0.4023 -2.8697
13911SOL     OW48972   4.393  12.043   1.197  0.1176  0.1061 -0.1179
13911SOL    HW148973   4.365  12.104   1.129 -1.5954 -0.2724  0.2066
13911SOL    HW248974   4.434  11.970   1.149 -1.3317 -0.2927 -0.7957
13912SOL     OW48975  10.353  10.359   7.844  0.5471 -0.1016  0.2903
13912SOL    HW148976  10.370  10.267   7.824 -1.2140 -0.7383  1.4389
13912SOL    HW248977  10.355  10.363   7.940  0.4520  1.0355  0.2635
13913SOL     OW48978   1.851  12.387   1.558  0.2214 -0.0564  0.0779
13913SOL    HW148979   1.767  12.427   1.532  0.0989 -0.3204  0.0672
13913SOL    HW248980   1.834  12.293   1.558  0.3645 -0.0854  0.6226
13914SOL     OW48981  10.420   4.520   2.662  0.6209  0.0329 -0.2567
13914SOL    HW148982  10.404   4.496   2.570 -1.5902 -0.6540  0.2544
13914SOL    HW248983  10.400   4.614   2.666 -2.0078 -0.4856  0.0309
13915SOL     OW48984   4.700   0.066   6.485 -0.3188 -0.1040 -0.1177
13915SOL    HW148985   4.751   0.035   6.560  0.0040 -1.9391 -1.0468
13915SOL    HW248986   4.737   0.152   6.465  0.9047 -0.4292  0.6373
13916SOL     OW48987   5.132   8.770   3.532 -0.3175 -0.0018  0.5341
13916SOL    HW148988   5.112   8.861   3.551  0.1472  0.9477 -2.9336
13916SOL    HW248989   5.057   8.739   3.481  0.2350 -1.0826  0.3475
13917SOL     OW48990   3.177   1.582   8.136  0.1003 -0.3565 -0.0381
13917SOL    HW148991   3.233   1.622   8.202  0.6036 -0.5193 -0.3535
13917SOL    HW248992   3.170   1.490   8.162 -1.2299 -0.0384  0.8042
13918SOL     OW48993   4.011   4.719  11.366  0.4673 -0.7279 -0.2241
13918SOL    HW148994   3.977   4.809  11.359  1.7091 -0.2805 -0.9093
13918SOL    HW248995   3.945   4.673  11.417 -0.2717  0.5449  0.0370
13919SOL     OW48996  12.537   4.416   0.833  0.1506  0.5929  0.1065
13919SOL    HW148997  12.591   4.415   0.912 -0.8157  1.0745  0.7872
13919SOL    HW248998  12.462   4.361   0.855 -0.6499  1.5834 -0.0958
13920SOL     OW48999   3.346   2.368   4.838 -0.0206 -0.8769 -0.0226
13920SOL    HW149000   3.343   2.430   4.765 -0.1096  0.3536  0.9891
13920SOL    HW249001   3.346   2.282   4.797  1.3400 -0.2091 -1.5278
13921SOL     OW49002   4.649   8.328  12.246 -0.1199 -0.6243 -0.3446
13921SOL    HW149003   4.728   8.381  12.257  0.2503 -0.8188 -1.8490
13921SOL    HW249004   4.634   8.288  12.331  0.2753  0.9548  0.5010
13922SOL     OW49005   6.840   0.682   1.291 -0.7893 -0.1104  0.2137
13922SOL    HW149006   6.769   0.635   1.333 -1.8369 -0.2370 -1.5844
13922SOL    HW249007   6.796   0.738   1.226  0.6802  0.5375 -0.2605
13923SOL     OW49008  11.679   2.608   3.937  0.6305  0.2267  0.4670
13923SOL    HW149009  11.603   2.554   3.958 -0.2555  2.1408  2.5502
13923SOL    HW249010  11.740   2.591   4.009  1.4043  0.1343 -0.1970
13924SOL     OW49011   8.431   1.431   0.835 -0.1644  0.1046 -0.1513
13924SOL    HW149012   8.511   1.411   0.786  0.0154  1.1006 -0.2726
13924SOL    HW249013   8.435   1.525   0.851 -1.5181  0.2468 -0.5185
13925SOL     OW49014   1.022   9.723   4.135 -0.1303 -0.0439 -0.0086
13925SOL    HW149015   1.072   9.679   4.067 -0.0914 -1.4175  0.8711
13925SOL    HW249016   0.945   9.758   4.090  0.6525  0.4052 -1.0183
13926SOL     OW49017  11.698   0.452  11.361  0.6288 -0.6927  0.6506
13926SOL    HW149018  11.780   0.405  11.376  2.6160  2.6008  1.1008
13926SOL    HW249019  11.710   0.493  11.275 -2.0394 -2.7637 -0.8640
13927SOL     OW49020   2.201   7.475   6.876 -0.4268  0.4278  0.2702
13927SOL    HW149021   2.258   7.471   6.953 -2.2265 -0.1943  1.6575
13927SOL    HW249022   2.218   7.561   6.838  2.1293 -0.1130 -0.0156
13928SOL     OW49023   5.342   1.300   7.385 -0.0249  0.1974 -0.0569
13928SOL    HW149024   5.416   1.349   7.348  0.7554 -0.2169  0.9115
13928SOL    HW249025   5.268   1.323   7.329  0.5943  1.4958 -0.3872
13929SOL     OW49026   3.656   9.769  10.146 -0.1480 -0.4491  0.5998
13929SOL    HW149027   3.589   9.750  10.081  0.6505 -0.6565 -0.1700
13929SOL    HW249028   3.628   9.722  10.225 -1.6397  0.6004  0.7376
13930SOL     OW49029   2.551   1.367   5.405  0.0608  0.5019 -0.1322
13930SOL    HW149030   2.559   1.302   5.335 -0.8071  0.0090  0.2056
13930SOL    HW249031   2.632   1.417   5.401  0.9673 -0.8940 -0.1125
13931SOL     OW49032  11.821   4.625   3.729  0.5680  0.0227 -0.6161
13931SOL    HW149033  11.755   4.555   3.737  0.6206  0.1538  1.7948
13931SOL    HW249034  11.905   4.579   3.726  0.5579 -0.0746  0.2337
13932SOL     OW49035   5.388   9.500   4.181 -0.0128 -0.3752 -0.2285
13932SOL    HW149036   5.377   9.419   4.132  1.0731  0.9545 -2.8478
13932SOL    HW249037   5.481   9.503   4.204 -0.1155 -0.0287  0.1600
13933SOL     OW49038   0.789  10.543   9.898 -0.3875 -0.2199  0.9197
13933SOL    HW149039   0.785  10.587   9.813 -1.2825 -2.1067 -0.0715
13933SOL    HW249040   0.831  10.607   9.956 -0.6719  1.5060 -0.6756
13934SOL     OW49041   2.543   4.881  10.419  0.2158  0.1668 -0.1759
13934SOL    HW149042   2.496   4.964  10.408  0.2965  0.1687 -0.5085
13934SOL    HW249043   2.590   4.891  10.502 -1.2203 -0.2424  0.7261
13935SOL     OW49044  12.391  11.001  11.357 -0.6151  0.1124 -0.0855
13935SOL    HW149045  12.484  11.025  11.355 -0.0366 -1.7635  1.2579
13935SOL    HW249046  12.344  11.083  11.343  1.2393  1.1497 -0.4888
13936SOL     OW49047   9.606  10.991   7.174  0.2177  0.0763 -0.9104
13936SOL    HW149048   9.527  10.950   7.139  1.1328 -1.6114 -1.1137
13936SOL    HW249049   9.581  11.020   7.261  0.1963 -3.6247  0.5317
13937SOL     OW49050   3.668  10.583  12.382 -0.2363 -0.5239 -0.4051
13937SOL    HW149051   3.642  10.562  12.472 -0.6773 -0.4502 -0.5152
13937SOL    HW249052   3.592  10.628  12.344  0.4576  0.7278 -0.3748
13938SOL     OW49053   7.968   1.875  12.444 -0.7905  0.2859  0.6807
13938SOL    HW149054   8.056   1.855  12.412 -1.1958 -0.9495  0.2951
13938SOL    HW249055   7.979   1.892  12.538 -0.2416 -0.6649  0.8003
13939SOL     OW49056   9.554   6.485   0.406 -0.1386  0.4158  0.4676
13939SOL    HW149057   9.610   6.475   0.329 -1.5337 -1.1977 -0.4124
13939SOL    HW249058   9.549   6.579   0.421 -1.9323  1.0529 -3.0872
13940SOL     OW49059  11.752   6.153   8.876 -0.8211  0.0932  0.3864
13940SOL    HW149060  11.805   6.075   8.864 -0.7807  0.3206 -1.0738
13940SOL    HW249061  11.814   6.222   8.900 -0.4705  0.2687 -0.9352
13941SOL     OW49062   2.783   6.859   8.559  1.0787  0.0019 -0.0526
13941SOL    HW149063   2.832   6.877   8.479  0.3832  1.4265 -0.1897
13941SOL    HW249064   2.740   6.942   8.580  1.5214 -0.2288  2.0015
13942SOL     OW49065  12.710   7.817   0.415  0.1321  0.2499  0.6576
13942SOL    HW149066  12.779   7.869   0.456  2.6597 -0.4667 -2.2682
13942SOL    HW249067  12.712   7.843   0.323 -0.2815 -3.0144 -0.4226
13943SOL     OW49068  11.096   4.793   5.366 -0.1060 -0.2977 -0.1559
13943SOL    HW149069  11.042   4.726   5.324 -0.7519 -0.6107  1.1060
13943SOL    HW249070  11.149   4.829   5.295 -1.5189 -0.4179 -1.3263
13944SOL     OW49071   5.250  12.364  11.185  0.2858  0.5450  0.3478
13944SOL    HW149072   5.344  12.385  11.181  0.1355  1.2102  0.0570
13944SOL    HW249073   5.212  12.413  11.112 -0.7054  2.6799  2.1609
13945SOL     OW49074   9.262   5.998   8.217  0.1700  0.0489  0.3474
13945SOL    HW149075   9.315   6.077   8.221 -0.0932  0.2645 -0.2385
13945SOL    HW249076   9.325   5.926   8.214  0.4470  0.3102 -0.5137
13946SOL     OW49077   0.195   1.341  10.989  0.1053  0.2606  0.2782
13946SOL    HW149078   0.218   1.433  10.978 -1.2619  0.4994 -0.9733
13946SOL    HW249079   0.252   1.294  10.929  0.3784  0.3536  0.4636
13947SOL     OW49080   3.666  11.149   8.288  0.6948  0.4314  0.0156
13947SOL    HW149081   3.759  11.151   8.310  0.3275  0.3058  1.7234
13947SOL    HW249082   3.652  11.225   8.231  1.2756  2.2512  2.1860
13948SOL     OW49083   0.518   3.511   1.287 -0.0424 -0.2986  0.1665
13948SOL    HW149084   0.511   3.606   1.280  0.3113 -0.3216 -0.5931
13948SOL    HW249085   0.438   3.478   1.247 -0.5958 -0.3060  1.2555
13949SOL     OW49086  10.218   3.581   3.656  0.3604  0.8889 -0.5726
13949SOL    HW149087  10.153   3.553   3.592 -0.3336  0.3656  0.3420
13949SOL    HW249088  10.167   3.611   3.732  1.0896 -2.1125  1.2915
13950SOL     OW49089   2.166   0.644  10.784  0.0534  0.2781  0.3077
13950SOL    HW149090   2.104   0.648  10.856  2.0077  0.6823  2.0637
13950SOL    HW249091   2.155   0.728  10.738 -0.6644  0.3609  0.6220
13951SOL     OW49092   9.503   9.114   8.407  0.5010  0.3685 -0.2251
13951SOL    HW149093   9.433   9.172   8.436  1.8563  1.9194  0.0527
13951SOL    HW249094   9.527   9.146   8.320 -0.0621 -1.0455 -0.9289
13952SOL     OW49095   9.616   3.670   0.059  0.0231  0.3199 -0.1540
13952SOL    HW149096   9.588   3.579   0.045  0.3554  0.0315  0.9505
13952SOL    HW249097   9.535   3.719   0.071 -0.1262 -0.0419  0.3787
13953SOL     OW49098  12.417   5.446   5.106 -0.0420 -0.1553 -0.1435
13953SOL    HW149099  12.393   5.365   5.062 -0.7842 -1.1352  1.9099
13953SOL    HW249100  12.459   5.499   5.039 -0.0232 -2.0210 -1.6803
13954SOL     OW49101   0.585   4.180   5.208 -0.5070 -0.1759 -0.2432
13954SOL    HW149102   0.502   4.133   5.200 -0.2280 -0.8372  0.6065
13954SOL    HW249103   0.582   4.246   5.139 -1.5893 -0.4166 -0.4405
13955SOL     OW49104  12.192   6.718   1.137  0.2298  0.6588 -0.1795
13955SOL    HW149105  12.185   6.638   1.084  1.6353  1.6282 -1.8967
13955SOL    HW249106  12.147   6.785   1.085  0.2093  1.2919  0.6384
13956SOL     OW49107   0.473   3.727  10.980  0.0333 -0.2345  0.3639
13956SOL    HW149108   0.559   3.710  11.017  0.1504 -1.8138 -0.5524
13956SOL    HW249109   0.437   3.640  10.961 -2.5716  0.2559  2.4690
13957SOL     OW49110  10.995   9.477  11.117 -0.1886 -0.8991 -0.2322
13957SOL    HW149111  11.061   9.519  11.172 -1.0498  0.9951 -0.5643
13957SOL    HW249112  11.043   9.452  11.038  0.1847  0.4314 -0.4561
13958SOL     OW49113   9.919   9.672  11.942 -0.0903  0.1156  0.1495
13958SOL    HW149114   9.993   9.726  11.914  0.8109 -0.7613  0.7430
13958SOL    HW249115   9.849   9.734  11.962  0.9173  1.0654  0.8159
13959SOL     OW49116   2.206   8.104   3.442  0.8486 -0.0278 -0.4305
13959SOL    HW149117   2.241   8.018   3.416 -0.8108 -1.1800  0.8776
13959SOL    HW249118   2.235   8.115   3.533 -1.4888 -0.7281  0.4775
13960SOL     OW49119   3.945   3.188   6.607  0.1040  0.2236 -0.3707
13960SOL    HW149120   4.020   3.133   6.584 -1.4781 -3.5056  2.3291
13960SOL    HW249121   3.964   3.219   6.696 -0.1339  2.1745 -0.9505
13961SOL     OW49122  11.383  12.351   9.120 -0.4582 -0.2936  0.0614
13961SOL    HW149123  11.373  12.435   9.165  0.5197 -1.6076  2.9424
13961SOL    HW249124  11.294  12.317   9.111 -0.6821  0.0624  0.8808
13962SOL     OW49125   3.759  11.328  11.654 -0.0960  0.0469 -0.1039
13962SOL    HW149126   3.806  11.399  11.610 -0.6114  0.7107  0.4082
13962SOL    HW249127   3.799  11.322  11.740 -0.5800  0.2425  0.1354
13963SOL     OW49128   4.910   3.139   3.784 -0.2356  0.2993 -0.5331
13963SOL    HW149129   4.830   3.180   3.817 -0.1180 -0.0482  0.2051
13963SOL    HW249130   4.968   3.212   3.764  0.6178  0.5473  2.3889
13964SOL     OW49131   3.943   2.224   3.923 -0.1469  0.1185  0.4143
13964SOL    HW149132   3.912   2.235   4.013  1.1402 -1.1849  1.0546
13964SOL    HW249133   3.908   2.140   3.896 -0.8102  0.6563 -0.4637
13965SOL     OW49134   3.017   2.323  10.648 -0.1101  0.1543 -0.5470
13965SOL    HW149135   3.062   2.262  10.589  3.4747  1.5146  0.4692
13965SOL    HW249136   2.965   2.266  10.705  0.5428 -1.6506 -1.6438
13966SOL     OW49137   2.157   6.270   2.776  0.2340 -0.2345  0.4331
13966SOL    HW149138   2.137   6.260   2.869 -1.0837  0.6915  0.2789
13966SOL    HW249139   2.114   6.196   2.733 -2.6956  1.4958  0.1561
13967SOL     OW49140   2.356  10.732  10.145  0.1441  0.3458  0.3867
13967SOL    HW149141   2.359  10.663  10.078 -0.9621  0.7846 -0.1384
13967SOL    HW249142   2.447  10.750  10.165  0.4683 -0.8156  0.0586
13968SOL     OW49143  11.565   5.944  11.330 -0.2236  0.3440 -0.2494
13968SOL    HW149144  11.519   5.887  11.391 -0.4431 -0.9148 -1.5333
13968SOL    HW249145  11.540   6.033  11.357  0.1601 -0.1199  1.8084
13969SOL     OW49146  12.055  12.663   6.823  0.1470 -0.1733  0.1769
13969SOL    HW149147  12.007  12.743   6.844 -0.0396 -0.2562  0.0781
13969SOL    HW249148  12.004  12.623   6.752 -1.9443 -2.3113  2.6379
13970SOL     OW49149   9.194   1.203   3.619  0.1958 -0.0735 -0.1497
13970SOL    HW149150   9.259   1.143   3.655  0.5684  1.1201  1.2757
13970SOL    HW249151   9.243   1.282   3.598 -0.5466  0.3102 -0.4842
13971SOL     OW49152  11.974   8.493   1.391 -0.0732 -0.4363  0.1195
13971SOL    HW149153  11.998   8.427   1.327 -2.2620 -1.3634  0.1505
13971SOL    HW249154  11.898   8.538   1.352  0.2583  0.8584  0.8815
13972SOL     OW49155   2.185   5.341   5.111 -0.4149 -0.5615 -0.4659
13972SOL    HW149156   2.154   5.416   5.161 -1.9444  0.3011 -2.5522
13972SOL    HW249157   2.277   5.361   5.093 -1.4631  2.5675 -3.6402
13973SOL     OW49158  11.183   7.640  11.048 -0.3970  0.1183 -0.8977
13973SOL    HW149159  11.262   7.637  11.102 -0.1020  1.1808 -1.2521
13973SOL    HW249160  11.212   7.675  10.964 -1.0255 -0.6366 -1.4535
13974SOL     OW49161   1.079   9.134   5.324  0.0937  0.2253  0.1358
13974SOL    HW149162   1.047   9.065   5.381 -1.0954  0.8129  0.2036
13974SOL    HW249163   1.049   9.110   5.236 -0.8677  0.9398  0.2468
13975SOL     OW49164   2.475   5.389   6.052 -0.5793  0.2863  0.1887
13975SOL    HW149165   2.481   5.385   6.147  2.7204  0.2292  0.1195
13975SOL    HW249166   2.489   5.481   6.030  1.7340 -0.0841 -0.2142
13976SOL     OW49167   1.793   7.405   6.057 -0.5134  0.2518  0.3253
13976SOL    HW149168   1.724   7.384   6.120 -0.1264 -0.5371  0.4940
13976SOL    HW249169   1.746   7.427   5.976 -0.9724  0.1914  0.5714
13977SOL     OW49170   8.226   3.758   6.038 -0.2921 -0.1216  0.7426
13977SOL    HW149171   8.176   3.734   5.960 -1.1576  3.5562 -0.0439
13977SOL    HW249172   8.162   3.751   6.110 -0.5285 -0.1537  0.5316
13978SOL     OW49173   7.387   1.352   4.071  0.1532 -0.2033  0.6180
13978SOL    HW149174   7.469   1.327   4.027 -0.5925 -0.1142 -0.8887
13978SOL    HW249175   7.414   1.373   4.161  1.6697 -0.8550  0.3572
13979SOL     OW49176   1.238   6.719  10.006  0.8958  0.2577  0.5123
13979SOL    HW149177   1.301   6.756  10.068  0.3360  0.8106  0.7694
13979SOL    HW249178   1.181   6.663  10.060 -0.6955  2.1102  0.8780
13980SOL     OW49179   4.603   1.993   0.746 -0.2333  0.1036  0.6074
13980SOL    HW149180   4.592   2.029   0.834 -1.2222  1.4881 -0.0441
13980SOL    HW249181   4.550   1.914   0.746 -0.1029  0.0095  1.2985
13981SOL     OW49182   7.318  11.322  11.110 -0.3171 -0.4481  0.5224
13981SOL    HW149183   7.398  11.339  11.159 -1.4680  0.3162  2.2226
13981SOL    HW249184   7.336  11.357  11.022  0.8442  0.6432  1.1635
13982SOL     OW49185   6.317   1.246  10.550  0.4559  0.3536 -0.1121
13982SOL    HW149186   6.308   1.157  10.514  1.5688  1.0752 -2.3861
13982SOL    HW249187   6.232   1.265  10.589  0.7342 -2.3775  2.2299
13983SOL     OW49188   8.399   7.016   9.612 -0.0534  0.2944  0.1478
13983SOL    HW149189   8.391   6.924   9.637  1.1396 -0.0847 -0.7797
13983SOL    HW249190   8.482   7.044   9.649 -0.4522  1.0409  0.4986
13984SOL     OW49191   7.653   0.938   7.995  0.5545 -0.0589  0.3516
13984SOL    HW149192   7.590   0.958   7.926 -0.7346 -3.2957  0.4427
13984SOL    HW249193   7.736   0.926   7.949 -0.0449 -0.9894 -0.5234
13985SOL     OW49194   0.500   1.711  11.316 -0.2573  0.4070  0.0355
13985SOL    HW149195   0.426   1.658  11.287  0.3781 -0.2434 -0.4736
13985SOL    HW249196   0.548   1.654  11.376 -0.7312  1.2027  1.2033
13986SOL     OW49197   4.437   4.423   7.863 -0.0621  0.6000 -0.6267
13986SOL    HW149198   4.516   4.476   7.873  0.3500 -0.1058  0.0243
13986SOL    HW249199   4.406   4.408   7.953 -0.5707  0.3301 -0.8400
13987SOL     OW49200   4.686   3.221   9.641 -0.2641 -0.2507 -0.1707
13987SOL    HW149201   4.603   3.180   9.616 -0.0353 -1.2474  0.6290
13987SOL    HW249202   4.661   3.289   9.703 -0.5463 -0.0069 -0.5452
13988SOL     OW49203   2.860   6.712   0.749  0.6302 -0.5450  0.2004
13988SOL    HW149204   2.946   6.738   0.717 -0.1661  0.5094 -1.1750
13988SOL    HW249205   2.854   6.750   0.837  0.9316  0.7879 -0.3393
13989SOL     OW49206   4.526   3.138   5.828 -0.0217  0.4006 -1.2543
13989SOL    HW149207   4.603   3.124   5.773  0.8880 -2.6107  0.5802
13989SOL    HW249208   4.557   3.122   5.918 -2.6018 -0.1904 -0.3830
13990SOL     OW49209   1.389  11.355   0.067 -0.7650  0.3739 -0.1435
13990SOL    HW149210   1.367  11.316   0.152 -0.4232 -1.7473 -0.9644
13990SOL    HW249211   1.469  11.404   0.083 -0.1103 -0.8779  0.5731
13991SOL     OW49212   3.557  10.978   1.382  0.0204 -0.2949  0.1814
13991SOL    HW149213   3.604  10.979   1.465 -0.0933  0.6261  0.2500
13991SOL    HW249214   3.476  11.026   1.400  0.7052  1.3453 -0.8343
13992SOL     OW49215   1.656   1.560   7.873  0.4728  0.3938 -0.4061
13992SOL    HW149216   1.736   1.572   7.822  1.9864  1.4390  2.0197
13992SOL    HW249217   1.684   1.517   7.953 -1.7326 -0.8066 -0.1889
13993SOL     OW49218  12.252   4.283   1.344 -0.2935 -0.2736 -0.2571
13993SOL    HW149219  12.262   4.363   1.394 -1.9614  0.5463 -1.1487
13993SOL    HW249220  12.186   4.232   1.392  1.6050 -1.7337  0.9678
13994SOL     OW49221   7.764   0.422   4.841 -0.5299  0.2684  0.4451
13994SOL    HW149222   7.823   0.361   4.886 -0.9605 -1.5508 -1.2985
13994SOL    HW249223   7.814   0.451   4.764 -1.1482  0.3432  0.0695
13995SOL     OW49224   0.019   8.163  12.256  0.4961  0.2997 -0.5737
13995SOL    HW149225   0.072   8.136  12.181 -1.4397 -1.0622 -1.5205
13995SOL    HW249226   0.047   8.106  12.328  1.7184  0.9990 -0.4703
13996SOL     OW49227   1.722  12.453  10.093 -0.3052 -0.0451 -0.0041
13996SOL    HW149228   1.747  12.453  10.001 -0.7906 -1.3998 -0.1463
13996SOL    HW249229   1.804  12.470  10.140 -0.1020  0.9284 -0.6735
13997SOL     OW49230   0.373   3.287  11.289 -0.0344  0.9196 -0.7151
13997SOL    HW149231   0.391   3.374  11.256  0.2765  1.3708  0.5893
13997SOL    HW249232   0.380   3.295  11.384 -0.5535 -0.3959 -0.5388
13998SOL     OW49233   7.395   0.784   2.060 -1.0317 -0.2346 -0.1344
13998SOL    HW149234   7.355   0.851   2.115  1.2051  0.1994  1.0818
13998SOL    HW249235   7.395   0.705   2.114  1.8171  0.3688  0.8866
13999SOL     OW49236  11.882   6.730   2.726  0.3778 -0.0877  0.1280
13999SOL    HW149237  11.831   6.658   2.689  0.4416  0.7533 -1.6641
13999SOL    HW249238  11.952   6.687   2.775 -0.5947 -1.2375  0.5702
14000SOL     OW49239   8.472   3.578   1.923 -0.4658 -0.9195  0.0110
14000SOL    HW149240   8.419   3.616   1.993 -1.1184 -1.8438  0.0264
14000SOL    HW249241   8.561   3.608   1.942 -1.1806  2.5792 -1.2567
14001SOL     OW49242   1.909   0.631   4.800  0.2733 -0.1478 -0.3533
14001SOL    HW149243   1.940   0.709   4.845 -0.9062  0.1445  0.0003
14001SOL    HW249244   1.851   0.664   4.732 -0.0263 -0.6950 -0.3739
14002SOL     OW49245   4.425  12.206   0.959 -0.1148 -0.5374  0.0204
14002SOL    HW149246   4.394  12.235   0.874 -2.3173 -2.2118  0.1635
14002SOL    HW249247   4.480  12.129   0.940  1.7660  0.7553 -0.0270
14003SOL     OW49248   9.844   3.841  12.670  0.3644 -0.0973  1.1743
14003SOL    HW149249   9.756   3.805  12.681  0.2620 -0.1553  0.2089
14003SOL    HW249250   9.862   3.834  12.576  1.9340 -1.3373  1.5111
14004SOL     OW49251   5.425   1.295   7.660 -0.3012 -0.1961  0.0984
14004SOL    HW149252   5.339   1.273   7.696 -1.3413  1.0539 -1.4721
14004SOL    HW249253   5.410   1.308   7.567  2.1408 -2.5356 -0.7474
14005SOL     OW49254   9.265  12.120   1.717 -0.0335 -0.5072  0.1978
14005SOL    HW149255   9.268  12.033   1.757  0.7573 -0.1061  1.0464
14005SOL    HW249256   9.197  12.113   1.650 -0.2540 -1.6640  0.5158
14006SOL     OW49257  10.222   4.870   1.368 -0.1979  0.5353 -0.4829
14006SOL    HW149258  10.308   4.844   1.337  0.3137 -0.0423  1.3004
14006SOL    HW249259  10.196   4.801   1.429 -0.8955  1.8596  0.7734
14007SOL     OW49260   8.315   9.553   9.898 -0.0920 -0.7172 -0.5461
14007SOL    HW149261   8.254   9.517   9.833 -0.4520  1.7564 -1.7084
14007SOL    HW249262   8.260   9.576   9.972 -0.8140  1.9784 -1.7865
14008SOL     OW49263  10.486  10.268  11.436 -0.3333 -0.5541 -0.1352
14008SOL    HW149264  10.510  10.243  11.526  0.4891  0.1352 -0.1492
14008SOL    HW249265  10.501  10.188  11.385 -0.6151 -0.8960  0.3038
14009SOL     OW49266   4.560   9.036   6.795  0.3950 -0.2835 -0.7438
14009SOL    HW149267   4.604   8.956   6.824  1.3647 -0.3088 -2.1642
14009SOL    HW249268   4.632   9.092   6.765 -0.3898  0.5841 -1.0256
14010SOL     OW49269   6.921  12.502   6.881  0.7093  0.1616  0.4812
14010SOL    HW149270   6.856  12.456   6.827 -0.3078  0.2171  1.6008
14010SOL    HW249271   6.997  12.444   6.881 -0.3571 -1.3028  1.4309
14011SOL     OW49272   6.745   2.611   3.581  0.3433  0.2236 -0.4254
14011SOL    HW149273   6.729   2.641   3.671 -0.3418  1.4832 -0.9549
14011SOL    HW249274   6.743   2.690   3.528  0.0444 -0.5840 -1.6618
14012SOL     OW49275   0.878  11.943  11.026  0.3449 -0.0217  0.0516
14012SOL    HW149276   0.857  11.937  11.119 -0.5413 -0.8332 -0.1761
14012SOL    HW249277   0.952  11.884  11.014  0.6323  0.2932  0.2963
14013SOL     OW49278   4.820   8.297   3.958 -0.0549  0.5946  0.0651
14013SOL    HW149279   4.781   8.232   3.898 -2.3293  1.8726  0.0557
14013SOL    HW249280   4.757   8.305   4.029  2.2107 -0.2844  2.3323
14014SOL     OW49281   1.211  11.932  10.795 -0.2572  0.0055 -0.0245
14014SOL    HW149282   1.200  11.873  10.722 -1.9857 -0.0773  0.2604
14014SOL    HW249283   1.132  11.922  10.847  0.5633  0.6527  1.4361
14015SOL     OW49284  12.618  10.514  12.557 -0.3057  0.0570 -0.3376
14015SOL    HW149285  12.630  10.434  12.506 -0.1566 -0.7747  0.9465
14015SOL    HW249286  12.656  10.493  12.643 -2.3569  0.6760  0.7835
14016SOL     OW49287   5.966   8.289   0.046  0.0131  0.3455 -0.6546
14016SOL    HW149288   5.915   8.370   0.045  0.1763  0.4582 -0.2711
14016SOL    HW249289   5.957   8.256   0.135 -0.7340 -0.5098 -1.0258
14017SOL     OW49290   7.162   8.126   6.613  0.1288  0.6135  0.1302
14017SOL    HW149291   7.069   8.106   6.599  0.2525 -1.2113  1.4194
14017SOL    HW249292   7.173   8.216   6.582 -2.4790  1.5388  1.5341
14018SOL     OW49293   4.557   9.891   2.314  0.6788 -0.1148  0.3103
14018SOL    HW149294   4.589   9.865   2.228  2.8027 -0.3584  1.1279
14018SOL    HW249295   4.464   9.866   2.313  1.3194 -2.8105 -0.8467
14019SOL     OW49296   5.010   7.654   8.255  0.1024  0.2692  0.1862
14019SOL    HW149297   5.027   7.729   8.313  1.3968 -0.6761  1.0919
14019SOL    HW249298   5.026   7.577   8.310  1.6132 -0.6734 -1.4775
14020SOL     OW49299  10.612   2.268   0.634 -0.4493 -0.2208  0.1295
14020SOL    HW149300  10.517   2.273   0.624 -0.4361  1.2905  0.4642
14020SOL    HW249301  10.646   2.323   0.564  0.0806  0.6572  1.0435
14021SOL     OW49302   4.207   0.196   2.089  0.4250  0.2407 -0.2416
14021SOL    HW149303   4.185   0.285   2.116  0.5478  0.3211 -0.3995
14021SOL    HW249304   4.143   0.140   2.132 -1.0040  0.5785 -1.8228
14022SOL     OW49305   1.370   3.487  10.530  0.7451 -0.0422  0.1446
14022SOL    HW149306   1.324   3.506  10.612 -0.2892  2.2055 -0.8647
14022SOL    HW249307   1.317   3.530  10.463  1.6074 -1.7586 -1.7115
14023SOL     OW49308   6.622   7.922   3.025 -0.3855 -0.1858  0.3703
14023SOL    HW149309   6.667   7.885   2.949  0.4152 -0.5770  1.0125
14023SOL    HW249310   6.630   7.855   3.093 -0.2305  0.5415  1.0974
14024SOL     OW49311   8.067   1.201   0.444 -0.1807  0.0857  0.0044
14024SOL    HW149312   8.056   1.153   0.526 -0.7186 -1.6265 -1.0078
14024SOL    HW249313   8.139   1.262   0.460 -1.0947  0.6826  2.1107
14025SOL     OW49314  11.865   6.375  10.737  0.2124  0.0599 -0.7565
14025SOL    HW149315  11.777   6.386  10.700 -0.2250 -0.2143  0.1828
14025SOL    HW249316  11.923   6.409  10.669 -0.5475 -0.6514 -1.8174
14026SOL     OW49317   7.568   8.992  10.733 -0.7019  0.1349  0.4124
14026SOL    HW149318   7.489   8.979  10.785 -1.7324  0.4452 -1.0380
14026SOL    HW249319   7.550   8.948  10.650  0.6812  0.1464  0.0809
14027SOL     OW49320   0.659   9.420   3.104  0.2381 -0.2276  0.0057
14027SOL    HW149321   0.746   9.400   3.137  0.6702  1.9239  0.3580
14027SOL    HW249322   0.671   9.498   3.049 -1.2631 -0.6846 -1.0597
14028SOL     OW49323   3.016   3.591   1.053 -0.4214 -0.3698 -0.4843
14028SOL    HW149324   2.967   3.630   0.980 -0.5142 -1.5492 -1.0837
14028SOL    HW249325   2.959   3.601   1.129 -0.8443 -0.1956 -0.8236
14029SOL     OW49326   7.535  10.197   6.009 -0.1150 -0.6408 -0.1438
14029SOL    HW149327   7.511  10.105   6.008  1.4021 -1.0989  1.1721
14029SOL    HW249328   7.631  10.197   6.012 -0.0331  1.0057 -1.1463
14030SOL     OW49329  11.498   8.660   5.738 -0.0482 -0.1002  0.2885
14030SOL    HW149330  11.408   8.671   5.769  0.1296 -1.1186  1.2253
14030SOL    HW249331  11.547   8.729   5.784 -0.1520 -0.2933  0.6974
14031SOL     OW49332   5.992  11.732   5.151  0.6525 -0.0643 -0.0876
14031SOL    HW149333   6.040  11.729   5.067  1.5503  0.1260  0.4035
14031SOL    HW249334   5.943  11.814   5.147  1.1785  0.2496 -0.1744
14032SOL     OW49335   4.249  11.024   1.392  0.7398 -0.5432  0.0034
14032SOL    HW149336   4.176  10.992   1.338 -0.6816 -0.1219  1.5814
14032SOL    HW249337   4.322  10.966   1.370 -0.7095 -2.4784  0.0288
14033SOL     OW49338   9.555   8.460   5.579 -0.6788 -0.3202  0.3921
14033SOL    HW149339   9.646   8.455   5.609  0.0307 -2.7872 -1.7810
14033SOL    HW249340   9.542   8.553   5.559  1.5061  0.0382  0.3943
14034SOL     OW49341   7.237   9.308   5.904 -0.2740 -0.2649  0.4378
14034SOL    HW149342   7.331   9.324   5.915 -0.1007 -2.0036  2.1689
14034SOL    HW249343   7.233   9.231   5.847 -0.6563 -0.1631  0.3277
14035SOL     OW49344   2.083   4.967   7.517  0.3523 -0.2360  0.4610
14035SOL    HW149345   2.076   5.042   7.458 -3.2314 -0.4923  0.3019
14035SOL    HW249346   2.076   4.891   7.459 -1.9327 -0.4975  0.9524
14036SOL     OW49347   0.091  11.963   1.315  0.2726  0.7436 -0.3171
14036SOL    HW149348   0.047  12.039   1.353 -0.0698  0.8576 -0.9298
14036SOL    HW249349   0.023  11.920   1.263  0.5719  0.2463 -0.3022
14037SOL     OW49350  11.491  10.539   7.669 -0.5632 -0.1020 -0.2036
14037SOL    HW149351  11.541  10.460   7.692  0.3206  0.9015  1.4755
14037SOL    HW249352  11.446  10.515   7.588  0.3050 -2.0614 -0.1739
14038SOL     OW49353   4.755   1.373   9.572  0.3343 -0.2283 -0.0690
14038SOL    HW149354   4.826   1.402   9.630  0.5823  0.2382 -0.6020
14038SOL    HW249355   4.687   1.343   9.632  1.0135 -0.7834  0.4536
14039SOL     OW49356   5.678   8.080  10.720 -0.2414  0.1219  0.5874
14039SOL    HW149357   5.773   8.091  10.713 -0.1195  0.5792  2.5666
14039SOL    HW249358   5.667   7.994  10.759 -0.4666  1.2854  3.2907
14040SOL     OW49359   6.021   8.354  10.574 -0.0983  0.0793 -0.1694
14040SOL    HW149360   5.926   8.346  10.567 -0.3226  1.0532  1.2149
14040SOL    HW249361   6.050   8.372  10.485 -1.4162  1.3996 -0.3798
14041SOL     OW49362   5.564  10.721   4.720 -0.3301  0.1637 -0.2209
14041SOL    HW149363   5.486  10.741   4.670 -0.4535 -1.4642 -0.7317
14041SOL    HW249364   5.616  10.664   4.663  0.6674  0.2438  0.5660
14042SOL     OW49365   4.151   0.378   6.206  0.2625  0.0099  0.1490
14042SOL    HW149366   4.097   0.358   6.130 -2.2376  3.4628  0.7770
14042SOL    HW249367   4.222   0.433   6.172  0.5124 -0.4028  0.0010
14043SOL     OW49368   2.972   4.814   5.619  0.8884 -0.1802 -0.1921
14043SOL    HW149369   2.934   4.734   5.582  1.7751 -0.3664 -0.7127
14043SOL    HW249370   2.971   4.799   5.713 -0.8772  0.0687 -0.1224
14044SOL     OW49371   5.542   9.624   9.352  0.1414 -0.3147  0.0616
14044SOL    HW149372   5.449   9.637   9.332 -0.1938 -1.2930  0.9161
14044SOL    HW249373   5.544   9.548   9.410  1.4098  0.1669  0.6816
14045SOL     OW49374   0.413   2.263   4.849  1.0673 -0.7571  0.0156
14045SOL    HW149375   0.469   2.198   4.891 -0.0436 -1.4506  0.4498
14045SOL    HW249376   0.425   2.248   4.755  1.9620 -0.5810  0.0919
14046SOL     OW49377   1.995   2.887  10.816  0.4999 -0.1810 -0.3851
14046SOL    HW149378   1.944   2.840  10.750 -1.9760 -0.8718  1.8318
14046SOL    HW249379   2.048   2.820  10.858 -1.1928 -0.6420  1.1352
14047SOL     OW49380   5.402   1.997   4.683 -0.2240  0.7783 -0.3949
14047SOL    HW149381   5.380   2.030   4.596 -1.3900  2.2183  0.3943
14047SOL    HW249382   5.339   1.927   4.700  0.2761  0.2068 -0.8604
14048SOL     OW49383   6.072   0.233   4.273  0.4646  0.0082  0.3008
14048SOL    HW149384   6.044   0.151   4.315 -0.2527 -0.4930 -1.0817
14048SOL    HW249385   6.148   0.261   4.324  1.1818 -1.8959  0.3811
14049SOL     OW49386  11.134  10.552  10.559  0.3473 -0.6570 -0.6713
14049SOL    HW149387  11.121  10.528  10.651 -0.3643  0.0950 -0.5644
14049SOL    HW249388  11.097  10.479  10.509  0.8294 -1.1149 -0.3686
14050SOL     OW49389   6.922   3.499  10.843 -0.5884  0.1351 -0.1410
14050SOL    HW149390   6.844   3.541  10.805 -0.9776 -0.7436 -0.3527
14050SOL    HW249391   6.990   3.509  10.776 -0.1664  1.9142  0.5135
14051SOL     OW49392   7.973   3.960   4.114  0.2408  0.4729 -0.4900
14051SOL    HW149393   8.066   3.952   4.091  0.2655  1.2631 -0.7012
14051SOL    HW249394   7.948   4.047   4.082 -0.5796  0.2534 -0.4512
14052SOL     OW49395  12.027   8.661   5.794 -0.1388 -0.1662  0.1159
14052SOL    HW149396  11.960   8.691   5.731  2.4064  1.3612 -2.0714
14052SOL    HW249397  12.003   8.704   5.876 -0.9894  1.6161 -1.0072
14053SOL     OW49398   2.490   7.484   5.548 -0.6269  0.2888 -0.8999
14053SOL    HW149399   2.497   7.565   5.598 -1.4169 -0.8721  1.2539
14053SOL    HW249400   2.400   7.483   5.516 -0.7989 -0.0048 -0.4134
14054SOL     OW49401   4.385   9.827  10.059  0.3815  0.0889  0.1330
14054SOL    HW149402   4.430   9.865  10.135  1.0519  0.6344 -0.5130
14054SOL    HW249403   4.431   9.865   9.984 -0.0946 -0.6530 -0.5418
14055SOL     OW49404   0.478   4.173   0.790  0.5230  0.2469  0.1974
14055SOL    HW149405   0.426   4.253   0.799  0.6964  0.7334 -2.4346
14055SOL    HW249406   0.416   4.102   0.808 -0.3187  0.9128 -0.0239
14056SOL     OW49407  12.078   5.687  10.339  0.3682 -0.0543  0.1084
14056SOL    HW149408  12.076   5.755  10.272 -0.0394  1.3635  1.5101
14056SOL    HW249409  12.108   5.731  10.418  0.0758 -1.5050  1.0723
14057SOL     OW49410   3.150   6.830   9.854 -0.5311 -0.2507  0.0742
14057SOL    HW149411   3.219   6.863   9.912 -0.2949  1.0041 -0.8754
14057SOL    HW249412   3.080   6.894   9.859 -1.1681 -0.9342  0.1574
14058SOL     OW49413  12.653   0.847   8.684  0.0847  0.0715 -0.0114
14058SOL    HW149414  12.634   0.857   8.591  0.5558 -0.2229 -0.1450
14058SOL    HW249415  12.650   0.752   8.699  0.1923  0.1061  0.2311
14059SOL     OW49416   9.131   2.186   1.801 -0.2055  0.4705 -0.1769
14059SOL    HW149417   9.053   2.136   1.822  0.1410 -0.1212 -0.2641
14059SOL    HW249418   9.159   2.153   1.716  0.1692  0.6380 -0.1228
14060SOL     OW49419  12.384  11.300   8.101  0.1164 -0.0543  0.2578
14060SOL    HW149420  12.344  11.215   8.083 -0.8896  0.3505  0.5083
14060SOL    HW249421  12.451  11.310   8.033  0.6786 -1.3118  0.6036
14061SOL     OW49422   6.730  10.383   0.275 -0.0786  0.1452  0.3228
14061SOL    HW149423   6.717  10.471   0.239  0.2124 -0.2971 -0.9164
14061SOL    HW249424   6.644  10.341   0.266 -0.0959  0.1439  0.4862
14062SOL     OW49425  10.035   6.651   4.894 -0.0817 -0.3863 -0.3499
14062SOL    HW149426  10.076   6.737   4.890 -1.4351  0.2723 -0.4848
14062SOL    HW249427  10.031   6.621   4.803 -2.1778  0.6897 -0.6667
14063SOL     OW49428   8.971   3.180   8.059  0.7166 -0.3837  0.0208
14063SOL    HW149429   9.005   3.117   8.122  1.5697  1.5220  1.5615
14063SOL    HW249430   9.002   3.148   7.974  2.3710 -1.2720  0.9060
14064SOL     OW49431  11.470  12.104   7.692  0.5756  0.3588  0.3731
14064SOL    HW149432  11.486  12.112   7.786 -0.3487  0.6995  0.5053
14064SOL    HW249433  11.431  12.187   7.666 -0.7757 -0.3431  0.0346
14065SOL     OW49434  10.674  10.050  12.116  0.4705  0.4191  0.6118
14065SOL    HW149435  10.707  10.121  12.061 -0.9991  1.6384  1.2158
14065SOL    HW249436  10.604  10.090  12.167  0.9358 -0.9731  2.4750
14066SOL     OW49437  11.354   9.932   5.095  0.0017  0.3223 -0.2514
14066SOL    HW149438  11.446   9.940   5.119 -0.0462 -0.7784  0.3945
14066SOL    HW249439  11.320  10.021   5.099  0.8321  0.6253  0.3708
14067SOL     OW49440   5.168   9.175  10.320 -0.0636 -0.0876  0.1588
14067SOL    HW149441   5.092   9.233  10.325 -0.4226 -0.5786  0.4363
14067SOL    HW249442   5.138   9.101  10.268  0.4100 -0.0073 -0.2363
14068SOL     OW49443   3.282   4.812  10.839 -0.5583 -0.0690  0.1460
14068SOL    HW149444   3.367   4.831  10.802  0.1045 -2.4831  0.2157
14068SOL    HW249445   3.277   4.865  10.918  1.0854 -0.2089  0.3745
14069SOL     OW49446   5.175   5.001  11.556 -0.1823  0.1736 -0.5378
14069SOL    HW149447   5.238   4.939  11.519 -1.2257 -0.6209 -1.0176
14069SOL    HW249448   5.116   4.947  11.609  0.1050  1.0394  0.7265
14070SOL     OW49449  11.036   1.271   9.265  0.0553 -0.3607 -0.1987
14070SOL    HW149450  11.035   1.279   9.361  0.0132 -0.9247 -0.1481
14070SOL    HW249451  10.956   1.315   9.237  0.6692  0.8609 -0.0653
14071SOL     OW49452   1.882  10.030   5.477  0.3571  0.4741  0.0392
14071SOL    HW149453   1.861   9.943   5.510  0.5738  1.1612  2.1699
14071SOL    HW249454   1.909  10.016   5.386 -1.0419 -1.4641 -0.1248
14072SOL     OW49455   9.039  10.991   6.291  0.1953  1.4090 -0.4286
14072SOL    HW149456   9.012  11.009   6.201 -1.4618 -3.6284 -1.3014
14072SOL    HW249457   9.113  10.931   6.282 -1.1362 -0.6639  1.3781
14073SOL     OW49458   4.872  10.686  12.003  0.8110  1.1978  0.5110
14073SOL    HW149459   4.850  10.618  12.066 -0.3413  1.7656  0.7660
14073SOL    HW249460   4.885  10.640  11.920  0.7929  0.6052  0.8350
14074SOL     OW49461   1.515   2.661  10.866 -0.5813 -0.2530  0.1328
14074SOL    HW149462   1.463   2.634  10.941  0.1845  0.3826  0.9027
14074SOL    HW249463   1.591   2.706  10.903  0.5256 -1.1357 -0.9601
14075SOL     OW49464   0.127   2.220   7.891  0.2890 -0.0582 -0.1989
14075SOL    HW149465   0.203   2.163   7.890 -0.4479 -1.0676 -0.6969
14075SOL    HW249466   0.088   2.208   7.978 -0.0160 -0.5347 -0.3971
14076SOL     OW49467  12.063   7.089  12.371  0.6574 -0.2513  0.0834
14076SOL    HW149468  12.025   7.151  12.434  0.3581 -0.8986  0.5456
14076SOL    HW249469  12.027   7.116  12.286  1.1763  0.7185  0.1508
14077SOL     OW49470   1.695  11.551   6.768  0.3957 -0.0604 -0.2042
14077SOL    HW149471   1.760  11.581   6.705 -1.1551  1.3715 -1.2020
14077SOL    HW249472   1.640  11.627   6.785 -1.4791 -1.3721  0.0014
14078SOL     OW49473   3.516   9.075   3.582 -0.7364  0.0786 -0.0911
14078SOL    HW149474   3.564   9.038   3.509 -1.6920  0.4207 -0.9191
14078SOL    HW249475   3.470   9.001   3.621  0.5785 -0.2862  0.8326
14079SOL     OW49476  12.321   1.976   5.795 -0.3360  0.1194  0.0107
14079SOL    HW149477  12.309   1.959   5.701 -0.5019  0.2807  0.0031
14079SOL    HW249478  12.373   1.902   5.826  1.1911  0.9290 -0.5454
14080SOL     OW49479   1.516   9.289   7.101 -0.0390  0.0694 -0.3125
14080SOL    HW149480   1.473   9.282   7.016  1.0407  0.4910 -0.9254
14080SOL    HW249481   1.584   9.356   7.087  0.9934 -0.7776  0.5079
14081SOL     OW49482   0.022   6.286  12.402 -0.1087 -0.3619 -0.1083
14081SOL    HW149483   0.011   6.215  12.340 -1.7910 -0.6778  0.4939
14081SOL    HW249484  -0.053   6.344  12.386  1.0027  1.0795 -0.3106
14082SOL     OW49485   0.423   2.631   2.977 -0.2922  0.2958 -0.4399
14082SOL    HW149486   0.433   2.578   2.898 -2.0497 -2.3246  0.9287
14082SOL    HW249487   0.494   2.602   3.035 -1.1624 -0.4967  0.2576
14083SOL     OW49488   7.681   9.256   4.987  0.4171 -0.1111  0.0153
14083SOL    HW149489   7.678   9.324   5.054  0.5338 -0.3997  0.3183
14083SOL    HW249490   7.681   9.174   5.036 -0.1209 -0.3410 -0.3568
14084SOL     OW49491   1.456   2.423   7.316 -0.2832  0.0281  0.3722
14084SOL    HW149492   1.414   2.353   7.365 -1.2883 -1.0241 -1.8387
14084SOL    HW249493   1.427   2.410   7.226  0.4531  2.6027 -0.3257
14085SOL     OW49494  11.629   9.763   7.071 -0.3066  0.4968 -0.9570
14085SOL    HW149495  11.723   9.753   7.053 -0.2133 -2.4988  0.4924
14085SOL    HW249496  11.586   9.718   6.998 -0.4340 -0.9187 -0.0387
14086SOL     OW49497   3.205   7.961   9.038  0.0917 -0.5098 -0.1892
14086SOL    HW149498   3.199   8.049   9.074  1.3549  0.5098 -2.2758
14086SOL    HW249499   3.277   7.920   9.086 -0.9871 -0.7093  1.3047
14087SOL     OW49500   2.528   4.210   8.159  0.1534  0.3315  0.0508
14087SOL    HW149501   2.570   4.177   8.079 -0.8473 -2.4952  0.5625
14087SOL    HW249502   2.495   4.131   8.203 -4.0640  2.1488  0.6074
14088SOL     OW49503   2.765   9.001   5.075 -0.2813 -0.0925 -0.1986
14088SOL    HW149504   2.766   8.945   4.997 -0.4861 -1.3361  0.6583
14088SOL    HW249505   2.704   9.072   5.053  1.8404  1.2441 -2.2370
14089SOL     OW49506   6.727   6.678   3.161  0.0143 -0.2640  0.8147
14089SOL    HW149507   6.658   6.721   3.212  0.4419 -0.1021  1.2586
14089SOL    HW249508   6.803   6.677   3.219 -0.0379 -1.8098  0.9093
14090SOL     OW49509   5.305   5.613   1.012 -0.1123 -0.4270 -0.6086
14090SOL    HW149510   5.246   5.573   0.947  0.8895  1.3274 -2.7231
14090SOL    HW249511   5.392   5.603   0.975  0.3582  1.8689 -0.2762
14091SOL     OW49512   9.185   5.293   5.188 -0.1486 -0.3384  0.3684
14091SOL    HW149513   9.206   5.386   5.181 -0.1606 -0.2731  1.1323
14091SOL    HW249514   9.096   5.291   5.224 -0.9071 -0.6292 -1.3984
14092SOL     OW49515   3.790   2.929   4.075  0.2766  0.2327  0.5772
14092SOL    HW149516   3.788   2.965   4.164  0.7311 -0.6856  0.9639
14092SOL    HW249517   3.744   2.846   4.081  0.3237  0.1552 -0.0513
14093SOL     OW49518   1.443   8.231   4.957 -0.0772  0.0993  0.0783
14093SOL    HW149519   1.453   8.242   5.051 -0.7008 -0.1191  0.1743
14093SOL    HW249520   1.467   8.316   4.920 -3.2535  1.4227  0.6838
14094SOL     OW49521   9.450   5.758   9.641  0.3459 -0.1434  0.3001
14094SOL    HW149522   9.379   5.698   9.665  0.3899 -0.5813 -0.6083
14094SOL    HW249523   9.528   5.702   9.637  0.2488 -0.2119 -1.3411
14095SOL     OW49524   9.999  10.402   5.533 -0.4764  0.4938  0.1148
14095SOL    HW149525  10.093  10.413   5.515 -0.5386 -0.1413 -0.6521
14095SOL    HW249526   9.962  10.489   5.520 -0.2846  0.3576 -1.4689
14096SOL     OW49527   1.095   1.169   8.496 -0.2747  0.0323  0.5274
14096SOL    HW149528   1.067   1.246   8.546  0.4173 -1.2282  3.0477
14096SOL    HW249529   1.075   1.191   8.405 -0.7798  2.8653  1.2151
14097SOL     OW49530  12.484   5.801  11.301  0.1389  0.3392 -0.4737
14097SOL    HW149531  12.419   5.870  11.312 -0.1989  0.1561 -1.2486
14097SOL    HW249532  12.471   5.769  11.212  0.0881 -0.9351 -0.0373
14098SOL     OW49533   6.766   4.423   3.099  0.3914 -0.1082  0.1782
14098SOL    HW149534   6.796   4.333   3.085 -0.5907 -0.3836 -0.1948
14098SOL    HW249535   6.698   4.436   3.034  0.1536  0.7340  0.5840
14099SOL     OW49536  10.815  11.253   6.378 -0.0837  0.1134  0.3989
14099SOL    HW149537  10.865  11.200   6.440 -0.6032 -1.1649 -0.2424
14099SOL    HW249538  10.822  11.342   6.412  0.5122 -0.4065  1.7076
14100SOL     OW49539  12.169   4.174   3.287 -0.3037 -0.2676  0.1382
14100SOL    HW149540  12.085   4.136   3.312 -0.0728 -0.5003  0.5776
14100SOL    HW249541  12.150   4.224   3.208 -0.7003 -0.9743 -0.2305
14101SOL     OW49542   0.559   9.171   3.391  0.5613  0.4321 -0.0075
14101SOL    HW149543   0.491   9.135   3.448  0.4821  0.0570 -0.3347
14101SOL    HW249544   0.510   9.216   3.322  0.6540  0.5716  0.0172
14102SOL     OW49545   3.926   4.184   2.987  0.3381  0.4630 -0.2327
14102SOL    HW149546   4.001   4.141   2.947  0.6010  1.8882 -1.3872
14102SOL    HW249547   3.930   4.161   3.079 -0.0516 -2.6144 -0.8929
14103SOL     OW49548  11.919  12.365  11.073 -0.4721  0.0386 -0.0261
14103SOL    HW149549  11.858  12.346  11.144 -1.7079  1.3065 -0.7169
14103SOL    HW249550  11.869  12.417  11.011  1.2953  1.1205 -0.6253
14104SOL     OW49551   9.890   6.779   6.604 -0.1255 -0.2596  0.1154
14104SOL    HW149552   9.885   6.725   6.683 -0.5424  0.9001  0.9046
14104SOL    HW249553   9.889   6.715   6.532  1.1706 -1.3944  1.0285
14105SOL     OW49554   9.625   0.246   9.009  0.8930 -1.3304  0.6530
14105SOL    HW149555   9.537   0.230   9.042  0.9275 -1.5099  0.6589
14105SOL    HW249556   9.659   0.316   9.065 -0.1779  0.5917 -0.9554
14106SOL     OW49557   7.011   3.437  12.029 -0.3170 -0.0988 -0.0825
14106SOL    HW149558   6.920   3.465  12.026 -0.4374 -0.3358  1.0960
14106SOL    HW249559   7.049   3.486  12.102  1.3350  2.3241 -2.3408
14107SOL     OW49560   2.782   7.354   3.600 -0.1735  0.1567  0.1652
14107SOL    HW149561   2.791   7.364   3.505  1.3413 -0.5015  0.2156
14107SOL    HW249562   2.709   7.294   3.611 -0.1920  0.0307 -0.5939
14108SOL     OW49563   3.190  10.315  10.347  0.3430 -0.0318 -0.1085
14108SOL    HW149564   3.224  10.230  10.318  2.0723  0.4378  0.4444
14108SOL    HW249565   3.207  10.374  10.273  0.7168  0.2052  0.1670
14109SOL     OW49566   9.359   1.726   0.150 -0.2067  0.1387 -0.1109
14109SOL    HW149567   9.300   1.796   0.177 -0.2829  0.5157 -1.2173
14109SOL    HW249568   9.307   1.673   0.089 -0.5782 -1.6482  1.6624
14110SOL     OW49569   2.293   3.883   0.599 -0.0739  0.3806 -0.2652
14110SOL    HW149570   2.260   3.819   0.663  0.2931  0.8665  0.4275
14110SOL    HW249571   2.288   3.838   0.515 -0.1002 -0.4517  0.1722
14111SOL     OW49572   7.055  10.180   1.684 -0.0941  0.4659  0.3588
14111SOL    HW149573   6.971  10.139   1.703  0.0230 -0.1163 -0.3323
14111SOL    HW249574   7.119  10.110   1.697  0.1327  0.4723 -0.6176
14112SOL     OW49575  10.031   8.215   5.206  0.4363 -0.3514 -0.2138
14112SOL    HW149576   9.955   8.247   5.157 -0.5961 -2.3274 -0.0015
14112SOL    HW249577  10.096   8.284   5.195  0.0600 -0.3388 -3.8449
14113SOL     OW49578   4.814  12.039   3.821 -0.0660 -0.1310  0.3664
14113SOL    HW149579   4.797  12.133   3.812  0.8380  0.1507  1.3576
14113SOL    HW249580   4.909  12.033   3.836 -0.0736 -1.2205  0.0883
14114SOL     OW49581   5.290   6.523  12.234 -0.4043  0.1707  0.4181
14114SOL    HW149582   5.205   6.567  12.231 -1.0631 -0.9448  1.7003
14114SOL    HW249583   5.276   6.440  12.187  0.1936  0.3046 -0.0106
14115SOL     OW49584   6.762   8.587  12.052  0.1091  0.5924  0.1191
14115SOL    HW149585   6.830   8.597  12.118  0.0027  0.0736  0.3129
14115SOL    HW249586   6.713   8.509  12.079  0.3383  0.1035 -0.8158
14116SOL     OW49587   1.122   8.078   0.734 -0.1287 -0.0250  0.2102
14116SOL    HW149588   1.201   8.127   0.756  0.4898 -0.4256 -1.0446
14116SOL    HW249589   1.051   8.141   0.748  0.4832  0.6179  0.5009
14117SOL     OW49590  10.933   9.158   9.618 -0.1133  0.4249 -0.1396
14117SOL    HW149591  10.957   9.096   9.550  2.4956  1.3406 -0.1375
14117SOL    HW249592  10.989   9.234   9.603 -1.6636  1.9269  1.1827
14118SOL     OW49593   7.158  11.797   9.612 -0.6243  0.0049 -0.1012
14118SOL    HW149594   7.126  11.875   9.657 -1.7183  0.4294 -1.5482
14118SOL    HW249595   7.244  11.822   9.578 -1.1335  0.7274 -0.8863
14119SOL     OW49596   5.695   5.764   3.402  0.1138 -0.3090  0.1579
14119SOL    HW149597   5.664   5.698   3.339  1.2164 -0.3691 -0.3369
14119SOL    HW249598   5.683   5.722   3.487 -2.1520  0.0724  0.1020
14120SOL     OW49599   8.005   8.004   1.128  0.1855 -0.0176  0.8829
14120SOL    HW149600   7.932   7.973   1.181  0.8143 -0.8439  1.2878
14120SOL    HW249601   8.070   7.933   1.132  0.0946 -0.3192 -1.3414
14121SOL     OW49602  10.659   0.199   2.195  0.6064 -0.0812  0.2179
14121SOL    HW149603  10.671   0.111   2.159 -2.3069 -0.7674  0.6891
14121SOL    HW249604  10.659   0.257   2.119  0.0231 -0.8228 -0.3596
14122SOL     OW49605   4.717  10.251   8.399 -0.2983  0.0949  0.5342
14122SOL    HW149606   4.677  10.338   8.399 -1.0252  0.1855 -5.3867
14122SOL    HW249607   4.810  10.267   8.384 -0.2579 -0.1554  0.5064
14123SOL     OW49608   1.705   3.961   8.134 -0.3833 -0.0213  0.2437
14123SOL    HW149609   1.787   3.985   8.092 -0.3577  0.3796  0.5148
14123SOL    HW249610   1.637   4.000   8.078 -0.4495 -1.2729 -0.5894
14124SOL     OW49611   3.558   8.917  12.178  0.9914  0.6849 -0.3023
14124SOL    HW149612   3.583   8.875  12.096 -0.2477 -0.5104 -0.1084
14124SOL    HW249613   3.633   8.903  12.236  1.3749  0.4528 -0.8490
14125SOL     OW49614   7.599   1.009   2.468 -0.0090  0.2960 -0.5533
14125SOL    HW149615   7.598   0.929   2.414  2.0075 -0.7856  0.8797
14125SOL    HW249616   7.667   0.993   2.533  0.6057  3.2944 -0.3128
14126SOL     OW49617   1.304   3.456   8.356 -0.7232  0.3213  0.0892
14126SOL    HW149618   1.277   3.452   8.447 -0.1792  0.2253  0.2499
14126SOL    HW249619   1.399   3.440   8.358 -0.6901  0.4137 -0.4791
14127SOL     OW49620   4.760  10.150   7.130 -0.4646  0.1630  0.2372
14127SOL    HW149621   4.845  10.165   7.171  0.0384 -0.5364 -0.5124
14127SOL    HW249622   4.724  10.238   7.117 -0.2958  0.4307  1.4197
14128SOL     OW49623  10.924   2.671   9.394  0.2654 -0.5264  0.1532
14128SOL    HW149624  10.920   2.631   9.307  0.9894  0.6548 -0.4569
14128SOL    HW249625  10.876   2.754   9.384  1.3177  0.1456  0.5566
14129SOL     OW49626  10.880  10.926   3.041  0.4334 -0.2292  0.0564
14129SOL    HW149627  10.808  10.895   3.095  0.3883  0.4354  0.3898
14129SOL    HW249628  10.870  11.021   3.040  0.3875 -0.2372 -1.1985
14130SOL     OW49629   4.292   8.693   9.508 -0.7017 -0.0059  0.0192
14130SOL    HW149630   4.283   8.597   9.512  0.3956 -0.1254  0.2567
14130SOL    HW249631   4.300   8.719   9.600  0.3468  0.1414 -0.1004
14131SOL     OW49632  10.989  12.574   3.814  0.0129 -0.3219 -0.6192
14131SOL    HW149633  11.048  12.611   3.880 -0.2132  1.4977 -1.3546
14131SOL    HW249634  11.046  12.521   3.758  0.6505  0.0296 -0.3225
14132SOL     OW49635   3.559   3.231  12.666 -0.7918  0.5342 -0.6279
14132SOL    HW149636   3.547   3.311  12.614 -2.2496 -0.1489 -1.3961
14132SOL    HW249637   3.619   3.178  12.613  0.0169  1.0191 -0.2136
14133SOL     OW49638   7.819   8.566   1.025 -0.1586 -0.2211 -0.4432
14133SOL    HW149639   7.873   8.637   1.059 -0.3889  0.4658 -1.4776
14133SOL    HW249640   7.741   8.565   1.081  0.3190 -0.3552  0.2271
14134SOL     OW49641   1.532   3.786  12.610  0.0135  0.5972  0.2582
14134SOL    HW149642   1.544   3.860  12.669 -1.1306 -0.3386  1.7499
14134SOL    HW249643   1.447   3.750  12.635  0.2235 -0.7931 -0.9176
14135SOL     OW49644   2.933   2.470   3.748  0.0260  0.1608  0.3481
14135SOL    HW149645   2.972   2.388   3.717 -0.3231  0.2104 -0.2439
14135SOL    HW249646   2.840   2.460   3.730 -0.1073  0.4319  0.8703
14136SOL     OW49647   2.900   7.384  11.905  0.4297  0.6490 -0.3575
14136SOL    HW149648   2.950   7.304  11.887 -0.9195 -0.3791  0.2944
14136SOL    HW249649   2.905   7.434  11.824  0.5034 -0.5402 -1.1112
14137SOL     OW49650  11.579   5.374  10.176 -0.0303  0.2119 -0.0784
14137SOL    HW149651  11.651   5.387  10.114  1.4784  0.1222  1.5875
14137SOL    HW249652  11.583   5.282  10.200 -1.0327  0.0886 -0.3200
14138SOL     OW49653   9.775   9.176   3.954  0.0018  0.6052  0.0573
14138SOL    HW149654   9.845   9.155   3.893 -0.4026  0.9059 -0.5137
14138SOL    HW249655   9.817   9.233   4.019  0.8425 -1.0357  1.0231
14139SOL     OW49656  11.091   2.561   1.655 -0.2650  0.3254 -0.2736
14139SOL    HW149657  11.056   2.616   1.725  1.0295 -0.2094  0.8414
14139SOL    HW249658  11.180   2.541   1.683 -0.4281 -1.6716 -1.0109
14140SOL     OW49659   2.123   0.837   3.023 -0.1198  0.4924 -0.4396
14140SOL    HW149660   2.070   0.767   3.060 -1.4347  1.0817 -1.1369
14140SOL    HW249661   2.152   0.803   2.938  0.1319  0.3940 -0.3148
14141SOL     OW49662   2.622   0.379   7.120 -0.1759  0.0279  0.4567
14141SOL    HW149663   2.683   0.372   7.194  1.8417  0.3854 -1.0929
14141SOL    HW249664   2.606   0.473   7.111 -0.5477 -0.0271  0.5191
14142SOL     OW49665  10.336   4.304   5.061  0.3136 -0.3866 -0.1286
14142SOL    HW149666  10.303   4.252   5.134  0.6431 -1.1683 -0.5322
14142SOL    HW249667  10.428   4.280   5.054  0.2043 -0.5756 -1.0234
14143SOL     OW49668   8.212   1.110   6.750 -0.4536  0.3657 -0.2699
14143SOL    HW149669   8.280   1.047   6.727 -0.3911  0.1196  0.5431
14143SOL    HW249670   8.242   1.146   6.834 -1.2865  0.3125  0.0548
14144SOL     OW49671   0.917  10.709   4.542 -0.3195 -0.6512  0.0157
14144SOL    HW149672   0.975  10.646   4.584  2.0624  0.8109 -0.8737
14144SOL    HW249673   0.959  10.794   4.558 -1.0251  0.2576 -2.5469
14145SOL     OW49674   8.980   8.575   7.111 -0.1519  0.1460  0.2943
14145SOL    HW149675   8.896   8.606   7.143 -0.2399 -0.1893  0.3901
14145SOL    HW249676   9.036   8.653   7.112 -1.0086  0.8385 -1.6792
14146SOL     OW49677  12.568  11.237   0.519 -0.3716 -0.0481 -0.5481
14146SOL    HW149678  12.523  11.171   0.467  1.5629 -1.1664 -0.9079
14146SOL    HW249679  12.625  11.187   0.578  0.7123  1.2778 -0.4156
14147SOL     OW49680  12.241   9.969   2.067 -0.6443 -0.6734  0.0164
14147SOL    HW149681  12.288   9.977   1.984 -1.3395 -1.2794 -0.4516
14147SOL    HW249682  12.288  10.026   2.127 -0.9809  0.9083 -1.1719
14148SOL     OW49683   7.323  10.111  10.376 -0.4334  0.2420 -0.4437
14148SOL    HW149684   7.343  10.135  10.466 -1.3350 -1.4116  0.2419
14148SOL    HW249685   7.228  10.124  10.367 -0.2571  1.0607 -1.3939
14149SOL     OW49686   5.072   2.069   1.091  0.3820 -0.3130  0.3100
14149SOL    HW149687   5.043   2.112   1.011 -0.8493  1.8854  1.8413
14149SOL    HW249688   5.141   2.126   1.125 -0.6608  0.0299  1.9349
14150SOL     OW49689   8.887   5.455  12.066 -0.6840  0.2883  0.3428
14150SOL    HW149690   8.829   5.450  11.990 -1.5774  0.6570  0.9835
14150SOL    HW249691   8.840   5.408  12.134 -0.8993  1.8269  1.2916
14151SOL     OW49692   7.738   7.509   6.351 -0.6360  0.2013 -0.4427
14151SOL    HW149693   7.736   7.440   6.418 -2.8831  1.3748  0.8328
14151SOL    HW249694   7.826   7.546   6.357 -1.1580  1.1735  2.9154
14152SOL     OW49695   8.412   6.678  11.253 -0.1552 -0.5835  0.1653
14152SOL    HW149696   8.393   6.624  11.330 -0.5014  1.1159  1.3625
14152SOL    HW249697   8.498   6.649  11.223 -1.0246 -2.8481 -0.2559
14153SOL     OW49698   8.651   8.468  11.660  0.3168  0.1614 -0.6757
14153SOL    HW149699   8.669   8.562  11.650  1.5138  0.0340  0.0681
14153SOL    HW249700   8.654   8.453  11.755 -1.6281 -0.3237 -0.6419
14154SOL     OW49701   5.525   3.854   2.551  0.5116  0.5725 -0.0175
14154SOL    HW149702   5.513   3.938   2.596  1.1610  0.6060  0.1117
14154SOL    HW249703   5.602   3.815   2.593  1.2709  0.7000 -1.2151
14155SOL     OW49704  11.676  12.303   3.957 -0.8599 -0.2791 -0.2323
14155SOL    HW149705  11.736  12.241   3.917  1.8586  2.4293 -0.7520
14155SOL    HW249706  11.618  12.250   4.011  0.9576 -3.2407 -0.9809
14156SOL     OW49707  11.665   6.045   3.540  0.2261 -0.0886  0.0441
14156SOL    HW149708  11.716   5.971   3.507  1.2462  0.4899  0.2691
14156SOL    HW249709  11.581   6.007   3.565 -0.4347 -0.6663 -2.6965
14157SOL     OW49710   0.406   5.771  10.866 -0.0721 -0.1562 -0.4113
14157SOL    HW149711   0.388   5.864  10.874  0.0621 -0.2613  1.3617
14157SOL    HW249712   0.408   5.755  10.771 -0.3689  1.5691 -0.7319
14158SOL     OW49713  12.183   5.196   8.714 -0.0784  0.4062  0.4472
14158SOL    HW149714  12.210   5.287   8.721  0.1784  0.7546 -3.3004
14158SOL    HW249715  12.093   5.195   8.746 -0.5971  2.3207 -0.8225
14159SOL     OW49716   7.074   0.627   4.743  0.1845  0.3690 -0.5040
14159SOL    HW149717   7.008   0.650   4.677  0.4735  0.9543 -0.6006
14159SOL    HW249718   7.030   0.563   4.799 -0.5786  0.9798 -0.3759
14160SOL     OW49719   0.492   7.217   2.756 -0.0747 -0.2305  0.3408
14160SOL    HW149720   0.416   7.174   2.717 -0.1285  0.5711 -0.5002
14160SOL    HW249721   0.519   7.281   2.690  2.2350 -1.4774 -0.0405
14161SOL     OW49722  10.378   5.285   5.171 -0.1739 -0.2680 -0.2666
14161SOL    HW149723  10.312   5.309   5.106 -1.3370 -0.4500  0.7876
14161SOL    HW249724  10.439   5.229   5.124 -1.2100 -0.7339 -1.1117
14162SOL     OW49725   6.345  10.728   4.514 -0.0257  0.6423  0.7021
14162SOL    HW149726   6.311  10.815   4.497  1.1634  0.7568 -1.4092
14162SOL    HW249727   6.440  10.739   4.516  0.1312 -0.5445  0.7372
14163SOL     OW49728  10.564   3.748  10.825  0.1802  0.3742  0.5565
14163SOL    HW149729  10.477   3.771  10.793  0.5348 -0.2030 -0.8827
14163SOL    HW249730  10.623   3.774  10.755  1.0565 -0.3195  1.0234
14164SOL     OW49731  11.414  10.638   3.888  0.0566 -0.3043  0.0253
14164SOL    HW149732  11.346  10.598   3.943  0.1563  0.5466  0.7928
14164SOL    HW249733  11.453  10.706   3.944  0.7536 -0.0072 -0.8054
14165SOL     OW49734  11.248   5.292  11.077  0.4206 -0.2014  0.1539
14165SOL    HW149735  11.183   5.358  11.099 -0.9834 -1.7688  0.9544
14165SOL    HW249736  11.197   5.219  11.042  1.6623 -1.7256  1.3657
14166SOL     OW49737   7.940   4.339   0.668 -0.1695  0.6158 -0.6659
14166SOL    HW149738   8.030   4.364   0.688 -0.1377 -0.6886  1.0271
14166SOL    HW249739   7.942   4.313   0.576  1.4992 -0.6852 -0.3036
14167SOL     OW49740   2.657   5.556  10.453  0.0614 -0.2564  0.3249
14167SOL    HW149741   2.562   5.554  10.454  0.0162  0.8974 -0.1170
14167SOL    HW249742   2.682   5.586  10.540  0.0427 -0.8269  0.5332
14168SOL     OW49743   7.280   1.295   5.279 -0.1513  0.4811 -0.5646
14168SOL    HW149744   7.357   1.272   5.331 -1.5266 -0.1765  1.2744
14168SOL    HW249745   7.312   1.295   5.188  1.8225 -0.5400  0.0698
14169SOL     OW49746   7.929  11.901   9.259  0.5099 -0.2626  0.0712
14169SOL    HW149747   7.941  11.990   9.293 -0.6967  0.9101 -2.3592
14169SOL    HW249748   7.934  11.846   9.337 -1.1124  2.1423  2.0758
14170SOL     OW49749   6.093   5.815   5.876  0.0060  0.5201  0.1244
14170SOL    HW149750   6.141   5.811   5.959  0.0411 -0.2214  0.0683
14170SOL    HW249751   6.072   5.908   5.866 -0.1151  0.6032  1.0322
14171SOL     OW49752   0.319   6.505   1.406  0.4970  0.2904 -0.4005
14171SOL    HW149753   0.300   6.544   1.491  0.0329  0.3846 -0.5470
14171SOL    HW249754   0.410   6.477   1.413  0.3832  0.0476  0.2276
14172SOL     OW49755   1.938   8.400   4.627  0.0423 -0.1838 -0.2185
14172SOL    HW149756   2.028   8.376   4.603  1.0598  1.0418  2.0935
14172SOL    HW249757   1.920   8.351   4.707 -0.8877  0.5765  0.0561
14173SOL     OW49758  12.507   8.433   7.590 -0.1321  0.7753  0.4064
14173SOL    HW149759  12.452   8.473   7.522 -0.5680  0.2312  0.4282
14173SOL    HW249760  12.446   8.413   7.661  0.0755  0.0980  0.4025
14174SOL     OW49761   6.507   7.038  12.531 -0.2582  0.1212  0.0030
14174SOL    HW149762   6.527   7.096  12.604 -0.4017 -0.9250  0.8950
14174SOL    HW249763   6.448   6.973  12.568 -0.3568 -0.4113 -1.0617
14175SOL     OW49764   1.434   7.222  11.640 -0.1767 -0.6316  0.1598
14175SOL    HW149765   1.364   7.159  11.658 -1.7404  1.0745  0.3623
14175SOL    HW249766   1.481   7.230  11.723 -0.5936 -0.7951  0.4148
14176SOL     OW49767   5.298   1.202   3.567 -0.0881 -0.2107  0.2535
14176SOL    HW149768   5.352   1.258   3.623  0.7177  2.4398 -2.8714
14176SOL    HW249769   5.336   1.211   3.480 -2.2155 -2.8317 -1.1037
14177SOL     OW49770   6.661   9.845   0.008  0.6180  0.1912  0.3098
14177SOL    HW149771   6.598   9.774  -0.004  2.1889 -1.1852 -0.3295
14177SOL    HW249772   6.668   9.885  -0.079  1.1685 -0.1647  0.1849
14178SOL     OW49773  12.420   8.940   7.837  0.2085  0.2880 -0.2313
14178SOL    HW149774  12.371   8.869   7.795  0.6742 -0.1214 -0.1030
14178SOL    HW249775  12.433   8.909   7.927  0.5875  0.4461 -0.2315
14179SOL     OW49776   1.696   4.373   7.915 -0.2035  0.2673  0.1423
14179SOL    HW149777   1.768   4.434   7.932 -0.3468  0.9752 -1.5626
14179SOL    HW249778   1.662   4.399   7.829 -1.4965 -1.0384  0.2120
14180SOL     OW49779   9.976  12.606  10.825  0.3312  0.2420 -0.1262
14180SOL    HW149780  10.053  12.588  10.879  0.3241  0.1362 -0.1511
14180SOL    HW249781   9.981  12.542  10.754 -0.6572 -0.9055  0.7640
14181SOL     OW49782   0.058   0.754   0.105 -0.1189 -0.0840  0.4662
14181SOL    HW149783   0.105   0.671   0.095 -1.0376 -0.4889 -0.8089
14181SOL    HW249784  -0.021   0.743   0.052 -0.6927  1.2864  0.9966
14182SOL     OW49785   2.121   3.162   5.300 -0.1231  0.2261 -0.1838
14182SOL    HW149786   2.176   3.237   5.278 -1.0771  0.8264 -0.6191
14182SOL    HW249787   2.181   3.096   5.334  0.7694  1.0972 -0.0340
14183SOL     OW49788  10.786   5.395   0.509 -0.1985 -0.3714 -0.0132
14183SOL    HW149789  10.826   5.419   0.592 -1.5768 -0.8482  0.8286
14183SOL    HW249790  10.725   5.467   0.490  1.2061  0.4987 -1.4256
14184SOL     OW49791  12.643   4.104  12.691  0.5385  0.0998 -0.2285
14184SOL    HW149792  12.639   4.098  12.596  0.4902  0.0688 -0.2246
14184SOL    HW249793  12.736   4.093  12.712  0.3268 -2.0224 -0.1328
14185SOL     OW49794  11.210   1.939  11.724 -0.0833 -0.1634  0.5782
14185SOL    HW149795  11.283   1.989  11.761  0.6759 -0.1225 -0.9307
14185SOL    HW249796  11.240   1.914  11.637 -2.2464  0.6777 -0.4576
14186SOL     OW49797   0.395   1.192   1.037 -0.2271  0.3577 -0.0973
14186SOL    HW149798   0.357   1.156   0.957  0.6376  1.9853 -1.3106
14186SOL    HW249799   0.383   1.286   1.029  2.4272  0.8117  0.2595
14187SOL     OW49800  11.563   1.360   7.258  0.0891  0.2027 -0.0959
14187SOL    HW149801  11.541   1.341   7.167  0.0553  0.3001 -0.1088
14187SOL    HW249802  11.571   1.275   7.300  1.7839  0.1012 -0.5729
14188SOL     OW49803  10.962   6.802   9.923 -0.5470 -0.7773 -0.4135
14188SOL    HW149804  10.942   6.781   9.831 -1.4266 -0.4305 -0.3095
14188SOL    HW249805  10.924   6.888   9.937 -0.4918 -0.8649  0.3061
14189SOL     OW49806  11.914  11.856  10.961  0.3648 -0.0638  0.4045
14189SOL    HW149807  11.960  11.923  11.012  1.1214  0.3358 -0.7692
14189SOL    HW249808  11.932  11.774  11.007  0.0917  0.4293  1.4112
14190SOL     OW49809   5.422   7.647   0.812 -0.1250 -0.6815  0.5014
14190SOL    HW149810   5.456   7.602   0.890  0.7508  0.0997  0.5897
14190SOL    HW249811   5.483   7.719   0.798 -0.3009 -0.7833 -0.8857
14191SOL     OW49812   5.187   7.454   7.088 -0.0662  0.1509  0.0608
14191SOL    HW149813   5.259   7.458   7.025  0.4155  1.5268  0.6703
14191SOL    HW249814   5.197   7.533   7.141 -2.1571  0.4702  0.0359
14192SOL     OW49815   1.719  11.229   0.789 -0.2982 -0.1096  0.0696
14192SOL    HW149816   1.764  11.267   0.714 -0.9717  0.7798  0.1018
14192SOL    HW249817   1.789  11.185   0.839  0.7691  2.1883  0.7207
14193SOL     OW49818   0.679  12.404  10.866  0.1390  0.4318 -0.0934
14193SOL    HW149819   0.589  12.372  10.871  0.6477 -0.9425  2.4147
14193SOL    HW249820   0.732  12.324  10.856  1.1160  1.2135 -1.4437
14194SOL     OW49821  10.280   7.139   1.042 -0.5288  0.9171 -0.1671
14194SOL    HW149822  10.282   7.208   0.976  0.5797 -0.6843 -1.9014
14194SOL    HW249823  10.246   7.062   0.997 -0.5695 -0.0253  1.3719
14195SOL     OW49824   8.755   2.928  12.017 -0.0522  0.5731 -0.7843
14195SOL    HW149825   8.809   2.998  12.056 -2.3308  0.3855  3.3706
14195SOL    HW249826   8.816   2.856  12.002  1.3256  1.0874  1.7134
14196SOL     OW49827   4.669   5.248  11.051  0.4884  0.4540  0.1050
14196SOL    HW149828   4.646   5.155  11.042  2.7994 -0.2332  0.7428
14196SOL    HW249829   4.610   5.280  11.119  0.2103 -0.7443  0.4542
14197SOL     OW49830   4.305  10.026   0.726  0.3960 -0.5547  1.1060
14197SOL    HW149831   4.396  10.007   0.701  0.6074  0.2103  1.2403
14197SOL    HW249832   4.269   9.942   0.753  0.3545 -1.2965 -1.0852
14198SOL     OW49833  12.397   4.950   1.611 -0.1048  0.2521  0.7764
14198SOL    HW149834  12.403   5.043   1.634 -2.5647  0.4871  0.7237
14198SOL    HW249835  12.386   4.950   1.516  2.0925 -0.2825  0.4601
14199SOL     OW49836   5.792   5.667   0.094 -0.2239 -0.0492 -0.3514
14199SOL    HW149837   5.731   5.731   0.056 -1.1663 -0.1083  0.9911
14199SOL    HW249838   5.782   5.677   0.189  1.1808 -0.7269 -0.1057
14200SOL     OW49839   2.490   1.949   8.605 -0.2926  0.2237 -0.2950
14200SOL    HW149840   2.555   1.896   8.558  0.4198 -0.1399  1.0316
14200SOL    HW249841   2.466   2.018   8.544 -0.0690 -0.7334 -1.4979
14201SOL     OW49842   0.458   5.292  11.053  0.4698 -0.1387 -0.0062
14201SOL    HW149843   0.462   5.388  11.048  0.1176 -0.1420 -0.3269
14201SOL    HW249844   0.512   5.271  11.129 -1.3993  0.4842  1.5943
14202SOL     OW49845   4.578   0.460   0.439  0.1456 -0.0340  0.9956
14202SOL    HW149846   4.554   0.478   0.530 -0.0898  0.4838  0.8352
14202SOL    HW249847   4.499   0.480   0.389  1.2319  3.0639  0.2922
14203SOL     OW49848   6.788   2.912   1.786 -0.4071 -0.8485 -0.2786
14203SOL    HW149849   6.779   2.993   1.736 -2.3319 -0.1471  1.0575
14203SOL    HW249850   6.712   2.860   1.760 -0.6054 -1.0993  0.7332
14204SOL     OW49851   1.987   0.665   8.058 -0.0893 -0.0627  0.2758
14204SOL    HW149852   2.042   0.734   8.021 -0.3738  0.0484  0.0607
14204SOL    HW249853   1.903   0.707   8.076 -0.2813 -0.3603  0.0923
14205SOL     OW49854   7.279   8.647   2.555 -0.2134  0.2176  0.6604
14205SOL    HW149855   7.222   8.679   2.626  0.2053 -0.6016  1.3789
14205SOL    HW249856   7.250   8.558   2.538  1.3289 -0.5066  1.5844
14206SOL     OW49857   6.172   8.724  12.602 -0.2990  0.2235  0.0225
14206SOL    HW149858   6.204   8.698  12.689 -0.1005 -2.1937 -0.6873
14206SOL    HW249859   6.081   8.695  12.600  0.3765 -2.1125 -1.3557
14207SOL     OW49860   1.466   3.160   1.759 -0.1940  0.1912  0.2265
14207SOL    HW149861   1.487   3.066   1.758 -0.5211  0.0515 -2.8169
14207SOL    HW249862   1.380   3.165   1.718  0.9712  1.9490 -2.2422
14208SOL     OW49863  10.764   2.140   4.840  0.3358  0.8236 -0.6485
14208SOL    HW149864  10.678   2.103   4.818 -1.3726  3.9868  0.0610
14208SOL    HW249865  10.771   2.218   4.786  1.6451  1.9587  1.0423
14209SOL     OW49866   4.979  11.330  10.989  0.1012  0.1883 -0.1589
14209SOL    HW149867   5.046  11.287  11.042  1.8755  2.0907 -0.6785
14209SOL    HW249868   4.939  11.260  10.938  4.3247 -0.7718 -2.6136
14210SOL     OW49869  11.686   4.103   9.447  0.2150  0.2938 -0.3873
14210SOL    HW149870  11.624   4.034   9.472 -1.1225  1.3777 -0.6435
14210SOL    HW249871  11.756   4.056   9.401 -0.0121 -1.0473  0.5630
14211SOL     OW49872   9.236   2.526  12.645  0.4051 -0.2559  0.3111
14211SOL    HW149873   9.244   2.434  12.620 -0.1421 -0.9349  2.4135
14211SOL    HW249874   9.188   2.567  12.572  0.8084 -1.5873 -0.7254
14212SOL     OW49875  11.175   6.437   8.480 -0.3634 -0.6152 -0.1242
14212SOL    HW149876  11.106   6.454   8.544  1.7435 -0.1128  2.1784
14212SOL    HW249877  11.131   6.390   8.409 -2.8744 -1.0830  1.6067
14213SOL     OW49878  12.613   1.504  11.202 -0.0494  0.4546  0.1147
14213SOL    HW149879  12.615   1.550  11.286  1.3874 -0.7525  0.8012
14213SOL    HW249880  12.657   1.563  11.141  0.6211  0.5376  0.6698
14214SOL     OW49881   6.692  11.121   3.472 -0.0344  0.3481 -0.2583
14214SOL    HW149882   6.688  11.187   3.540 -1.9117 -0.8106  0.8515
14214SOL    HW249883   6.766  11.066   3.496 -0.5533  0.0710  0.7592
14215SOL     OW49884   1.565  11.128   1.813 -0.5921  0.4415  1.0064
14215SOL    HW149885   1.582  11.156   1.903 -0.1171  0.0655  1.0425
14215SOL    HW249886   1.626  11.179   1.760 -0.5582  0.3371  0.9449
14216SOL     OW49887   4.664   4.055  10.740  0.2927 -0.2893  0.2823
14216SOL    HW149888   4.710   4.107  10.673 -1.7786  0.9932 -0.2457
14216SOL    HW249889   4.717   4.066  10.819  1.7599 -0.2392 -0.6622
14217SOL     OW49890   0.859   9.790   3.908  0.0220  0.0591  0.1668
14217SOL    HW149891   0.763   9.791   3.911 -0.0153  1.6413 -0.4341
14217SOL    HW249892   0.884   9.883   3.910  1.5078 -0.2957 -0.5800
14218SOL     OW49893  11.887  11.403   0.228  0.5685 -0.3457  0.1207
14218SOL    HW149894  11.945  11.348   0.175 -0.7038 -2.1016  0.4278
14218SOL    HW249895  11.902  11.373   0.318 -0.4728 -0.5514  0.2451
14219SOL     OW49896   1.009  12.157   1.283 -0.1758 -0.1313 -0.2672
14219SOL    HW149897   1.068  12.121   1.217 -1.1594 -1.6267 -0.3832
14219SOL    HW249898   1.007  12.251   1.265  0.2032 -0.3992 -1.8465
14220SOL     OW49899  11.210   0.129   1.567 -0.3318  0.0959 -0.0771
14220SOL    HW149900  11.280   0.155   1.508 -1.3680 -0.0102 -1.4151
14220SOL    HW249901  11.191   0.208   1.618  0.2872  0.3237 -0.1910
14221SOL     OW49902   7.123  11.321  10.314 -0.1424 -0.0431 -0.0610
14221SOL    HW149903   7.134  11.371  10.395 -0.8077 -0.6755  0.4362
14221SOL    HW249904   7.117  11.230  10.343  0.7705 -0.4001 -0.9249
14222SOL     OW49905  10.530   5.897  10.849  0.3088 -0.3542  0.5343
14222SOL    HW149906  10.485   5.933  10.773  1.6542 -1.0468 -0.6153
14222SOL    HW249907  10.618   5.936  10.846  0.7610 -1.2969  1.0652
14223SOL     OW49908   4.692  11.761   5.120  0.0845 -0.0618 -0.4103
14223SOL    HW149909   4.664  11.750   5.029  0.0907  0.3132 -0.4610
14223SOL    HW249910   4.738  11.680   5.141 -1.1997 -0.7753 -0.2555
14224SOL     OW49911  10.444   0.329   8.081  0.1242  0.2566 -0.3957
14224SOL    HW149912  10.488   0.409   8.111 -1.8267  1.2184  0.0078
14224SOL    HW249913  10.478   0.315   7.993  0.9656  1.1657 -0.2355
14225SOL     OW49914   1.354   5.609  11.961  0.1939 -0.0237  0.1801
14225SOL    HW149915   1.283   5.554  11.929  0.0989 -0.3697  0.9511
14225SOL    HW249916   1.432   5.554  11.956  0.1147 -0.2095  0.8655
14226SOL     OW49917   9.186   8.372   7.080  0.3799  0.0755 -0.0681
14226SOL    HW149918   9.114   8.436   7.085  1.7837  1.6837  0.4164
14226SOL    HW249919   9.197   8.355   6.987 -0.2990  0.1707 -0.1736
14227SOL     OW49920   0.577   6.951   4.905 -0.1622  0.3946  0.3266
14227SOL    HW149921   0.647   6.887   4.906  0.9446  1.5089 -1.2084
14227SOL    HW249922   0.497   6.901   4.923  0.6473 -1.4348 -0.9411
14228SOL     OW49923   9.745   0.372  10.147  0.3265  0.3585 -0.1276
14228SOL    HW149924   9.818   0.316  10.172  0.8634  0.5750 -1.1557
14228SOL    HW249925   9.736   0.433  10.219 -0.1604 -0.9247  0.9350
14229SOL     OW49926   1.875   7.744   5.195  0.4031 -0.1660 -0.2231
14229SOL    HW149927   1.931   7.806   5.148  0.2468  1.1670  1.2687
14229SOL    HW249928   1.891   7.762   5.287  0.0521 -2.1109  0.2687
14230SOL     OW49929  12.235   3.911   1.142  0.3423 -0.0121  0.0176
14230SOL    HW149930  12.156   3.861   1.119  0.2970 -0.5158  1.1839
14230SOL    HW249931  12.226   3.993   1.095 -0.6942 -0.2222 -0.1795
14231SOL     OW49932   6.845   8.539  10.039 -0.1280  0.0651  0.8934
14231SOL    HW149933   6.786   8.607  10.072 -1.0213 -0.0589 -0.3821
14231SOL    HW249934   6.887   8.579   9.964 -0.0439 -0.5198  0.6277
14232SOL     OW49935  11.234   9.519   7.861 -0.6670 -0.1552 -0.3504
14232SOL    HW149936  11.204   9.606   7.835 -0.4759 -0.1696 -0.6320
14232SOL    HW249937  11.156   9.464   7.855 -0.2921 -0.5535 -2.7052
14233SOL     OW49938  12.139   5.149   1.511 -0.4494  0.0321  0.2684
14233SOL    HW149939  12.191   5.096   1.450  2.1846  0.6411  1.8015
14233SOL    HW249940  12.128   5.092   1.588 -3.4580 -0.6125 -0.4975
14234SOL     OW49941   4.276  12.700  10.718 -0.5189  0.0339  0.4400
14234SOL    HW149942   4.342  12.769  10.712  1.0409 -1.2634  1.7104
14234SOL    HW249943   4.293  12.644  10.641 -0.3198 -0.1330  0.6033
14235SOL     OW49944   3.681   4.534   1.925  0.0603  0.4969  0.3526
14235SOL    HW149945   3.649   4.506   1.839  0.8446  1.6919 -0.3536
14235SOL    HW249946   3.704   4.452   1.970  1.6635 -0.0663 -1.3931
14236SOL     OW49947   2.322   3.961   8.196 -0.3395 -0.1571 -0.0159
14236SOL    HW149948   2.410   3.932   8.222 -0.6375 -0.9901  0.1026
14236SOL    HW249949   2.269   3.947   8.274 -0.8284 -0.8287 -0.4556
14237SOL     OW49950   6.571  11.112   6.711  0.5099  0.2033 -0.0962
14237SOL    HW149951   6.500  11.095   6.649 -0.1198  0.4901  0.5416
14237SOL    HW249952   6.527  11.129   6.794  1.2633  1.8160 -0.0078
14238SOL     OW49953   0.051   3.225   9.407  0.2013 -0.3475 -0.1584
14238SOL    HW149954   0.142   3.195   9.399  1.2530  2.1921  1.0926
14238SOL    HW249955  -0.001   3.153   9.372  2.6856 -1.8650 -1.0039
14239SOL     OW49956   8.342   4.484   0.982 -0.1626 -0.2621  0.3625
14239SOL    HW149957   8.356   4.549   1.051 -1.3398 -0.2043  0.5630
14239SOL    HW249958   8.402   4.412   1.004  1.4811  0.9179 -0.1051
14240SOL     OW49959   0.050  12.040   0.317  0.5100  0.1731 -0.2054
14240SOL    HW149960   0.079  11.964   0.367 -0.6089 -0.8490 -1.0604
14240SOL    HW249961  -0.044  12.047   0.336  0.1925  0.1264 -1.6702
14241SOL     OW49962  12.153   0.091   6.324  0.0424  0.1312 -0.4907
14241SOL    HW149963  12.146   0.084   6.229  1.0501  0.6496 -0.6211
14241SOL    HW249964  12.136   0.003   6.357 -0.3382 -0.0418 -1.1542
14242SOL     OW49965   4.196   8.458   3.995  0.1820  0.5597  0.2963
14242SOL    HW149966   4.123   8.410   4.034 -0.4207  1.5074  0.3654
14242SOL    HW249967   4.228   8.401   3.925 -1.9729  0.9784 -1.1424
14243SOL     OW49968   5.503   2.690   3.211 -0.2719 -0.3360 -0.2973
14243SOL    HW149969   5.414   2.664   3.231 -0.1310  0.2603  1.2522
14243SOL    HW249970   5.532   2.739   3.288  1.4518 -0.6691 -0.6793
14244SOL     OW49971   2.256   9.261   5.523  0.0620 -0.3759  0.2262
14244SOL    HW149972   2.314   9.215   5.583  0.2909 -2.3471 -1.4058
14244SOL    HW249973   2.174   9.269   5.571  0.8398 -0.0273  1.5436
14245SOL     OW49974   3.449   1.975   9.204  0.1549  0.1332  0.1217
14245SOL    HW149975   3.531   1.961   9.252  0.3305 -4.2958 -1.0237
14245SOL    HW249976   3.381   1.975   9.272  0.7841 -1.1621  0.8001
14246SOL     OW49977   2.670  12.100   0.698  0.1365  0.3472 -0.1846
14246SOL    HW149978   2.708  12.115   0.784  0.0151  1.0611 -0.2487
14246SOL    HW249979   2.702  12.013   0.672 -0.5222 -0.2477  0.9319
14247SOL     OW49980  12.437  10.382  12.308 -0.1071 -0.1275 -0.9165
14247SOL    HW149981  12.473  10.464  12.275 -1.0192  0.3227 -0.8133
14247SOL    HW249982  12.511  10.339  12.352 -0.2592  2.0393  1.7215
14248SOL     OW49983   0.323   2.322  11.703  0.0416  0.3897 -0.2829
14248SOL    HW149984   0.262   2.248  11.709 -2.0234  1.8943 -1.3367
14248SOL    HW249985   0.293   2.372  11.627  0.4557  3.0395  1.1677
14249SOL     OW49986  11.991   7.760   7.816  0.3514 -0.6779  0.0063
14249SOL    HW149987  12.065   7.769   7.756  1.1753 -0.9797  0.9612
14249SOL    HW249988  11.920   7.808   7.774  1.5172  0.9068 -0.2169
14250SOL     OW49989   2.938  11.790   7.600 -0.4941 -0.9209  0.3284
14250SOL    HW149990   2.890  11.772   7.681 -0.0017 -0.7496  0.6627
14250SOL    HW249991   3.029  11.800   7.628 -0.4406 -0.0247 -0.1342
14251SOL     OW49992  11.120   1.634   7.775  0.2447  0.2874  0.0329
14251SOL    HW149993  11.169   1.647   7.694  3.2524 -2.2286  1.2364
14251SOL    HW249994  11.049   1.573   7.750  0.5531  0.2856 -0.8830
14252SOL     OW49995   6.520   6.518   9.404 -0.0720 -0.3342 -0.0296
14252SOL    HW149996   6.476   6.434   9.412 -1.3157  0.3949  1.2870
14252SOL    HW249997   6.558   6.534   9.491  2.1987 -0.5703 -0.8975
14253SOL     OW49998   1.591   3.991   1.683 -0.5591 -0.2047 -0.0187
14253SOL    HW149999   1.652   4.065   1.686  0.0639 -0.7163  0.2657
14253SOL    HW250000   1.569   3.974   1.775 -0.6465 -0.4054 -0.0753
14254SOL     OW50001   2.848  11.083   3.021  0.8058 -0.2759 -0.5570
14254SOL    HW150002   2.931  11.129   3.010 -0.2596  2.5670  1.9907
14254SOL    HW250003   2.870  11.006   3.073  1.7678  0.9802  0.9752
14255SOL     OW50004  11.800   6.190   3.763 -0.5986 -0.7971  0.5276
14255SOL    HW150005  11.862   6.128   3.800 -1.0356 -1.4848  0.1298
14255SOL    HW250006  11.769   6.148   3.683 -0.8739 -0.0490  0.2315
14256SOL     OW50007   4.451   1.440   2.036 -0.3327 -0.0389 -0.5620
14256SOL    HW150008   4.510   1.384   1.986  2.6767 -0.7127  3.2264
14256SOL    HW250009   4.491   1.527   2.033 -0.1139 -0.0841  0.5341
14257SOL     OW50010  12.710   2.282  11.499 -0.3194  0.3173  0.1537
14257SOL    HW150011  12.658   2.278  11.579  0.5509 -2.9546  0.6971
14257SOL    HW250012  12.797   2.310  11.529 -0.2165 -0.0649  0.2110
14258SOL     OW50013   0.440   5.627  11.917 -0.3852  0.1485  1.0871
14258SOL    HW150014   0.469   5.711  11.953  0.7784 -0.1971  0.9812
14258SOL    HW250015   0.520   5.583  11.891 -1.1110 -0.1731 -0.7077
14259SOL     OW50016   9.199  12.157  12.695  0.0231 -0.2686  0.5037
14259SOL    HW150017   9.202  12.129  12.786  2.1991 -2.5831 -0.1562
14259SOL    HW250018   9.283  12.201  12.680 -0.3641  0.2135 -0.3395
14260SOL     OW50019   9.624   4.672  10.877 -0.1866  0.6046 -0.6512
14260SOL    HW150020   9.548   4.623  10.910  0.4234 -1.0096 -1.5463
14260SOL    HW250021   9.602   4.764  10.895 -1.8857  0.1106  0.0570
14261SOL     OW50022  11.282   0.537   2.642  0.4251  0.4285  0.2015
14261SOL    HW150023  11.259   0.609   2.584 -1.2713  1.1683  1.6813
14261SOL    HW250024  11.214   0.471   2.627  1.7810 -0.7609 -0.9037
14262SOL     OW50025   8.228   8.889   7.055 -0.5615 -0.2179  0.2221
14262SOL    HW150026   8.222   8.816   6.993  3.6293 -0.3644 -0.3019
14262SOL    HW250027   8.255   8.848   7.137 -1.7608  0.4319  0.9647
14263SOL     OW50028   0.253  11.777  11.163 -0.1435  0.1152 -0.3379
14263SOL    HW150029   0.224  11.731  11.242  1.2279  1.2086  0.8742
14263SOL    HW250030   0.189  11.753  11.096  0.9004 -4.2004 -0.0986
14264SOL     OW50031   2.810  11.773   3.260 -0.0475  0.1362 -0.0010
14264SOL    HW150032   2.765  11.704   3.211 -1.1443  0.7625  0.1096
14264SOL    HW250033   2.801  11.747   3.352 -1.2462  0.8617  0.1061
14265SOL     OW50034   9.428   7.373  10.784 -0.2237 -0.6822  0.7089
14265SOL    HW150035   9.334   7.383  10.768 -0.2513 -0.0912  1.2490
14265SOL    HW250036   9.444   7.280  10.767 -0.5917 -0.4792 -0.9731
14266SOL     OW50037   3.616   4.177   2.320  0.6029  0.1680  0.0109
14266SOL    HW150038   3.632   4.222   2.402  1.2372  1.7382 -0.9230
14266SOL    HW250039   3.701   4.141   2.295  0.8777  1.3682 -0.8778
14267SOL     OW50040  12.321   3.766   0.535  0.3641 -0.0899  0.1976
14267SOL    HW150041  12.354   3.850   0.505  0.2469  0.1921  0.8284
14267SOL    HW250042  12.300   3.781   0.627 -2.2237 -0.0208 -0.3323
14268SOL     OW50043  11.681   1.830   7.459 -0.0333  0.6857 -0.3856
14268SOL    HW150044  11.759   1.859   7.412 -0.0636  2.6369  0.6620
14268SOL    HW250045  11.644   1.761   7.403  0.3152  2.3560 -2.8443
14269SOL     OW50046   4.661   0.642   0.914 -0.4197 -0.1072 -0.4382
14269SOL    HW150047   4.745   0.677   0.885  0.2808 -1.3279  0.0213
14269SOL    HW250048   4.610   0.629   0.834  0.2604 -0.3845 -0.8282
14270SOL     OW50049  10.789   4.753   3.396 -0.7114 -0.1093 -0.0223
14270SOL    HW150050  10.822   4.784   3.312 -1.2391  0.9988  0.1656
14270SOL    HW250051  10.774   4.832   3.448 -1.4437 -0.7065  0.7200
14271SOL     OW50052   2.199  10.692   6.306 -0.0653 -0.9969  0.0795
14271SOL    HW150053   2.288  10.724   6.289 -0.5037 -0.3230 -1.0630
14271SOL    HW250054   2.142  10.757   6.265 -1.1250 -0.9906  1.5065
14272SOL     OW50055   4.447   8.283  12.043 -0.2548  0.0140 -0.1920
14272SOL    HW150056   4.404   8.212  12.090 -2.6087  0.7701 -1.0730
14272SOL    HW250057   4.509   8.320  12.106  0.3378 -2.1716  0.5851
14273SOL     OW50058  11.663   2.122  10.096  0.7464  0.0247 -0.2635
14273SOL    HW150059  11.675   2.131  10.001 -0.1945 -1.0338 -0.4971
14273SOL    HW250060  11.742   2.161  10.133  1.3697  0.0016 -1.4986
14274SOL     OW50061   5.467  11.458   1.385  0.0862 -0.4142  0.3054
14274SOL    HW150062   5.469  11.409   1.303 -0.0197 -0.7536  0.4990
14274SOL    HW250063   5.376  11.451   1.415 -0.1058  0.5243 -0.0261
14275SOL     OW50064   3.316   7.241   7.026  0.1836 -0.0915  0.1786
14275SOL    HW150065   3.250   7.309   7.039  1.3748  1.0009  0.7780
14275SOL    HW250066   3.333   7.208   7.115 -2.3136 -3.1643 -0.3112
14276SOL     OW50067   8.037  11.770   5.443 -0.0561 -0.0504  0.0232
14276SOL    HW150068   8.052  11.726   5.359 -1.6507  1.2346 -0.9769
14276SOL    HW250069   8.073  11.709   5.508  0.6059 -1.3863 -1.5160
14277SOL     OW50070   3.282   3.992   9.504  0.1160 -0.1812  0.0001
14277SOL    HW150071   3.253   3.900   9.505 -2.0897  0.4216 -1.6198
14277SOL    HW250072   3.256   4.026   9.590  0.8054 -0.9827  0.5532
14278SOL     OW50073   7.373   6.149   3.444  0.5682 -0.1056  0.4993
14278SOL    HW150074   7.364   6.062   3.484 -0.0134 -1.2639 -1.9553
14278SOL    HW250075   7.285   6.186   3.446  0.7641  0.3545  1.2889
14279SOL     OW50076   1.806   2.972  10.042  0.2576 -0.1932  0.0365
14279SOL    HW150077   1.787   2.958  10.135  0.9742 -1.0476  0.0727
14279SOL    HW250078   1.727   2.944   9.997  0.6366 -1.8375  0.2903
14280SOL     OW50079   7.237  10.534   5.630  0.2495  0.5170  0.0199
14280SOL    HW150080   7.207  10.486   5.706  0.5720 -0.2150 -0.3088
14280SOL    HW250081   7.282  10.611   5.666 -1.2808  1.2177  0.5254
14281SOL     OW50082   5.520   6.465   6.111 -0.5741  0.2643 -0.1100
14281SOL    HW150083   5.516   6.440   6.018  1.2230 -0.6199  0.0095
14281SOL    HW250084   5.589   6.531   6.115  2.5923 -2.8488  1.1488
14282SOL     OW50085   6.404  11.590   8.995  0.6430  0.4286  0.6316
14282SOL    HW150086   6.352  11.522   8.952  1.3022 -0.7955  1.6755
14282SOL    HW250087   6.478  11.604   8.935  0.9749 -0.4610  0.8044
14283SOL     OW50088   5.769   8.789  11.412 -0.6300  0.5103 -0.2582
14283SOL    HW150089   5.758   8.704  11.369  0.8005  0.0674  0.1848
14283SOL    HW250090   5.852   8.781  11.460 -1.9252  1.0931  2.2725
14284SOL     OW50091   3.819   1.548   0.316  0.3396  0.0566 -0.0186
14284SOL    HW150092   3.828   1.582   0.405 -1.0212  0.1153  0.1190
14284SOL    HW250093   3.747   1.599   0.278 -0.1725 -1.0730 -0.6026
14285SOL     OW50094   5.425   5.407   9.902  0.4800 -0.4749 -0.3157
14285SOL    HW150095   5.359   5.355   9.947  0.9100 -0.1236  0.7420
14285SOL    HW250096   5.491   5.343   9.873  0.0307 -0.7404 -0.7737
14286SOL     OW50097  11.465  10.357  10.340 -0.1348  0.1203  0.3229
14286SOL    HW150098  11.415  10.436  10.363  0.2885  0.9933 -1.5729
14286SOL    HW250099  11.413  10.315  10.271 -0.0926 -0.9938  0.9487
14287SOL     OW50100   9.325   4.220  10.713 -0.1473 -0.1067 -0.0837
14287SOL    HW150101   9.346   4.147  10.655  0.1261 -1.0194  1.1339
14287SOL    HW250102   9.371   4.201  10.794  0.7248  1.9149 -0.0431
14288SOL     OW50103  11.969   9.078  11.566  0.1397 -0.0248  0.1946
14288SOL    HW150104  12.004   9.049  11.650 -0.2346 -0.0874  0.3320
14288SOL    HW250105  12.035   9.051  11.502  0.9762  1.0386  0.5838
14289SOL     OW50106   3.242   6.825   7.270 -0.1965 -0.3871 -0.0945
14289SOL    HW150107   3.218   6.862   7.185 -1.9298 -0.7100  0.2083
14289SOL    HW250108   3.270   6.735   7.250  0.3841 -0.1390 -0.4185
14290SOL     OW50109   3.153   7.798   0.212  0.0419 -0.6001 -0.7322
14290SOL    HW150110   3.057   7.788   0.213  0.0787 -0.9641  0.1089
14290SOL    HW250111   3.183   7.744   0.285  0.6719  1.7172  0.8080
14291SOL     OW50112  10.811   4.521   6.519  0.6754 -0.2431  0.0793
14291SOL    HW150113  10.873   4.581   6.560 -1.1466  2.1459 -0.4457
14291SOL    HW250114  10.737   4.577   6.493 -1.3091 -2.7846 -0.1274
14292SOL     OW50115   5.351   8.064  12.228 -0.5679 -0.4843 -0.0154
14292SOL    HW150116   5.396   8.043  12.146 -0.3863  1.8654 -0.5734
14292SOL    HW250117   5.258   8.053  12.208 -0.5500  0.5024 -0.7089
14293SOL     OW50118   5.471  11.997  12.477 -0.4523  0.1441 -0.2578
14293SOL    HW150119   5.513  11.912  12.486  0.1303  0.5187  0.6713
14293SOL    HW250120   5.430  11.994  12.391  0.5332 -0.6468 -0.7215
14294SOL     OW50121   4.283   2.882   9.663  0.2655  0.4286 -0.6840
14294SOL    HW150122   4.327   2.853   9.743 -1.0096  1.1054  0.3107
14294SOL    HW250123   4.235   2.961   9.690 -2.0898 -0.6414 -1.4866
14295SOL     OW50124   1.668   2.732  12.348 -0.2962  0.3643 -0.5142
14295SOL    HW150125   1.584   2.777  12.338 -0.4272 -0.0021 -1.1082
14295SOL    HW250126   1.667   2.664  12.281  0.4573  0.3255 -0.4954
14296SOL     OW50127   1.724   4.075   5.306 -0.4552  0.0208 -0.7014
14296SOL    HW150128   1.630   4.062   5.315 -0.5925  1.2590 -0.1697
14296SOL    HW250129   1.750   4.014   5.237 -1.8856  0.5849 -1.7933
14297SOL     OW50130  11.589   9.854   7.819  0.1945  0.5181  0.2744
14297SOL    HW150131  11.544   9.772   7.843 -1.3127  0.5027 -2.2242
14297SOL    HW250132  11.668   9.825   7.774 -0.3183  0.3908 -0.5743
14298SOL     OW50133   1.121   4.754   8.795  0.3324 -0.6841 -0.0587
14298SOL    HW150134   1.075   4.742   8.878  0.9809  0.7067  0.5296
14298SOL    HW250135   1.210   4.723   8.812  0.3419 -0.8273 -0.3737
14299SOL     OW50136  11.333   9.777   4.852  0.4879 -0.4026 -0.2072
14299SOL    HW150137  11.285   9.829   4.787  0.9382 -0.6014 -0.7084
14299SOL    HW250138  11.335   9.833   4.930 -0.2121 -0.2335 -0.3000
14300SOL     OW50139  11.364   0.980   5.353 -0.0016  0.0449  0.2231
14300SOL    HW150140  11.341   0.929   5.430  2.6201 -0.5705  0.6733
14300SOL    HW250141  11.354   0.920   5.280 -1.7761  0.4216  0.0995
14301SOL     OW50142  11.650  10.757   7.910  0.6503 -0.3418  0.4273
14301SOL    HW150143  11.728  10.791   7.955  0.2559 -0.4239  1.1893
14301SOL    HW250144  11.648  10.664   7.933  0.8022 -0.5267 -0.2945
14302SOL     OW50145   7.444   0.803   3.435 -0.0445 -0.5352 -0.4355
14302SOL    HW150146   7.397   0.721   3.417 -1.0403  0.2617 -1.6362
14302SOL    HW250147   7.470   0.835   3.348  2.6405 -0.8452  0.1651
14303SOL     OW50148  10.292  12.115   9.543  0.6962 -0.6223  0.0136
14303SOL    HW150149  10.300  12.140   9.635  1.2938 -1.5679  0.2243
14303SOL    HW250150  10.352  12.174   9.497  2.5008 -1.9469  0.5740
14304SOL     OW50151  10.753   1.762   0.935  0.0106  0.2661  0.2314
14304SOL    HW150152  10.832   1.780   0.885 -0.1778 -1.6152 -0.8297
14304SOL    HW250153  10.779   1.698   1.001 -0.7475 -0.9259 -0.5941
14305SOL     OW50154  10.818   2.254  12.379  0.4325 -0.0035  0.3683
14305SOL    HW150155  10.838   2.254  12.473 -0.2036  0.2062  0.5104
14305SOL    HW250156  10.877   2.189  12.342 -0.7895 -1.7086  1.2567
14306SOL     OW50157   2.811   8.937   2.416  0.2970 -0.0534 -0.1792
14306SOL    HW150158   2.772   8.961   2.332 -1.3526 -0.2575  0.4899
14306SOL    HW250159   2.874   9.007   2.434 -2.2099  2.2572  0.2833
14307SOL     OW50160   2.444   0.710   7.859  0.8070  0.2802  0.5593
14307SOL    HW150161   2.493   0.678   7.935 -0.1711 -0.3656  0.9441
14307SOL    HW250162   2.438   0.804   7.872  0.3168  0.1346  1.5066
14308SOL     OW50163  12.144   2.450  11.129 -0.6508 -0.0998 -0.1104
14308SOL    HW150164  12.059   2.431  11.169 -1.1364  0.8535 -0.6326
14308SOL    HW250165  12.127   2.525  11.071  0.9357  1.3515  1.1976
14309SOL     OW50166   3.536   4.660   1.149  0.7135 -0.1395 -0.3938
14309SOL    HW150167   3.523   4.754   1.137  1.2736 -0.3248 -3.2517
14309SOL    HW250168   3.631   4.649   1.149  0.7736 -0.5097  2.7859
14310SOL     OW50169   2.747  10.134   2.439 -0.0677 -0.2801  0.0132
14310SOL    HW150170   2.722  10.052   2.481  1.6259 -0.9206 -0.1299
14310SOL    HW250171   2.672  10.158   2.384 -1.3244 -0.7357  1.4658
14311SOL     OW50172   8.949   7.375   7.019  0.0737  0.3542 -0.2225
14311SOL    HW150173   8.953   7.281   7.002 -0.3110  0.2649  0.1782
14311SOL    HW250174   8.956   7.384   7.114 -0.1631  0.7135 -0.2336
14312SOL     OW50175   4.970   6.664   1.353  0.1862  0.2239 -0.5949
14312SOL    HW150176   5.027   6.607   1.302 -0.4943 -0.8440 -0.1935
14312SOL    HW250177   4.883   6.625   1.345 -0.0439  0.3816  0.8543
14313SOL     OW50178   4.919  12.511  12.588 -0.1048  0.0072  0.0089
14313SOL    HW150179   4.864  12.486  12.513 -1.8426 -1.9348  1.8098
14313SOL    HW250180   4.889  12.599  12.612  0.1995  0.4869 -1.2815
14314SOL     OW50181   4.571   2.539   1.204  0.3467 -0.4239 -0.5318
14314SOL    HW150182   4.514   2.466   1.229  0.7208 -0.9251 -1.1281
14314SOL    HW250183   4.515   2.616   1.211 -0.0678 -0.7658  0.0570
14315SOL     OW50184  10.652   5.090   6.615 -0.1281 -0.3911 -0.4121
14315SOL    HW150185  10.623   5.181   6.603 -0.1450 -0.4152 -0.5608
14315SOL    HW250186  10.608   5.042   6.545 -1.3896 -0.7995  0.6222
14316SOL     OW50187   3.932   0.971  11.633  0.0366  0.0782  0.5646
14316SOL    HW150188   3.913   0.989  11.725  0.1049  1.7204  0.2742
14316SOL    HW250189   3.852   0.995  11.586  0.5927  0.8959  0.0177
14317SOL     OW50190   7.917   3.722   1.331  0.9277 -0.2809  0.2893
14317SOL    HW150191   7.917   3.730   1.426  0.4287 -0.5542  0.3156
14317SOL    HW250192   7.861   3.793   1.301  0.3939 -0.7077  0.2535
14318SOL     OW50193   5.293   4.417  12.061  0.0981 -0.4622 -0.2784
14318SOL    HW150194   5.284   4.410  12.156 -0.2841  0.5304 -0.2341
14318SOL    HW250195   5.372   4.468  12.048  1.4600 -2.5005 -0.5636
14319SOL     OW50196   8.383   3.118   3.468 -0.3862 -0.1344 -0.3845
14319SOL    HW150197   8.367   3.037   3.419  0.2497  0.2790 -1.3129
14319SOL    HW250198   8.318   3.180   3.433  0.3223  0.2736 -1.0025
14320SOL     OW50199   4.996   1.912   0.496 -0.2229 -0.0792 -0.1104
14320SOL    HW150200   4.940   1.976   0.452 -0.0210 -1.0609 -1.9066
14320SOL    HW250201   5.082   1.923   0.456  0.7244  0.7914  1.9826
14321SOL     OW50202  11.431   1.286   8.728 -0.1377 -0.3836 -0.1477
14321SOL    HW150203  11.523   1.278   8.705 -0.1951  0.6191 -0.8034
14321SOL    HW250204  11.384   1.267   8.647 -0.3897  1.8711 -0.5958
14322SOL     OW50205   3.672   1.366  12.438 -0.6157 -0.0026 -0.4734
14322SOL    HW150206   3.617   1.328  12.507 -0.8668  0.7360 -0.2523
14322SOL    HW250207   3.614   1.427  12.392  0.3238  1.8148  0.6152
14323SOL     OW50208   0.962  12.186   5.844 -0.7672 -0.1387 -0.5853
14323SOL    HW150209   0.938  12.150   5.758  3.0179 -3.5624 -0.4934
14323SOL    HW250210   1.056  12.169   5.852 -0.4076  2.4028  3.2549
14324SOL     OW50211   2.758   5.823   0.195 -0.1789 -0.1314  0.0265
14324SOL    HW150212   2.674   5.801   0.154 -1.1915  2.6479  0.3922
14324SOL    HW250213   2.774   5.913   0.169  1.8661 -0.0409  1.3918
14325SOL     OW50214   1.246  10.072   0.847 -0.1307  0.0018 -0.3608
14325SOL    HW150215   1.193  10.142   0.884  0.4099 -0.2432  0.9047
14325SOL    HW250216   1.308  10.117   0.789 -0.7864  0.4092 -0.7631
14326SOL     OW50217   5.642   8.863  11.947  0.4511  0.6496  0.3033
14326SOL    HW150218   5.729   8.848  11.984  0.0644 -2.1558  0.2690
14326SOL    HW250219   5.646   8.824  11.860 -0.6079  1.2617 -0.0404
14327SOL     OW50220   6.719   4.830   5.680 -0.6049  0.0550 -0.6270
14327SOL    HW150221   6.787   4.874   5.731 -0.5213 -0.2326 -0.4868
14327SOL    HW250222   6.637   4.867   5.712 -0.6264 -0.9204  0.5288
14328SOL     OW50223   9.383   8.606   8.109  0.3102 -0.2305  0.3736
14328SOL    HW150224   9.397   8.517   8.141  0.4077 -0.4334 -0.2078
14328SOL    HW250225   9.456   8.620   8.048 -0.2963 -0.1439 -0.3402
14329SOL     OW50226   0.436  11.735   8.548  0.3089  0.3595 -0.1756
14329SOL    HW150227   0.450  11.706   8.638 -1.9972 -1.2641 -0.2574
14329SOL    HW250228   0.503  11.689   8.498  1.5450  1.1909  0.6564
14330SOL     OW50229   7.802   6.421   9.207  0.2285 -0.0276 -0.3587
14330SOL    HW150230   7.837   6.382   9.127  1.4123  1.5757 -0.6755
14330SOL    HW250231   7.873   6.476   9.240 -0.8942  0.7895  0.7947
14331SOL     OW50232  12.297   6.038   0.495  0.4410 -0.1251 -0.3298
14331SOL    HW150233  12.332   5.971   0.554  0.2502 -1.1671 -1.3598
14331SOL    HW250234  12.202   6.030   0.504  0.3808 -1.0503 -1.5597
14332SOL     OW50235   0.132   7.301   3.267  0.4070  0.5345  0.0833
14332SOL    HW150236   0.116   7.391   3.239  1.4791  0.2700 -1.4879
14332SOL    HW250237   0.204   7.307   3.329 -0.9083  0.9460  1.6484
14333SOL     OW50238   4.164  12.589   3.106 -0.2514  0.3999 -0.3250
14333SOL    HW150239   4.143  12.623   3.193  0.9444  2.3875 -0.7575
14333SOL    HW250240   4.116  12.646   3.046  1.7882  1.4102 -1.0784
14334SOL     OW50241   5.179  12.493   2.662  0.0473  0.6416 -0.1412
14334SOL    HW150242   5.243  12.537   2.606 -0.3541  0.6266 -0.6063
14334SOL    HW250243   5.100  12.546   2.656 -0.7431 -0.6299 -1.4437
14335SOL     OW50244   5.121  10.925   2.605 -0.3739 -0.1468 -0.1645
14335SOL    HW150245   5.107  10.928   2.511 -0.8696  0.4783 -0.0813
14335SOL    HW250246   5.105  11.015   2.634 -0.9190 -0.4822  0.6073
14336SOL     OW50247   3.795   8.233  12.064  0.6810  0.1177  0.3935
14336SOL    HW150248   3.733   8.255  12.134 -0.9931 -1.1294 -0.6207
14336SOL    HW250249   3.746   8.174  12.006  1.8644  1.3876 -2.0416
14337SOL     OW50250   4.288   9.860   9.046 -0.2684  0.2498 -0.1929
14337SOL    HW150251   4.287   9.854   9.141 -0.9425 -0.1480 -0.2143
14337SOL    HW250252   4.197   9.879   9.022 -0.5384 -1.5965 -0.8522
14338SOL     OW50253   1.007  10.162  12.302 -0.7555 -0.4751  0.1964
14338SOL    HW150254   0.928  10.106  12.305 -0.6096 -0.6992 -0.1016
14338SOL    HW250255   1.004  10.211  12.384 -1.0289 -0.7320  0.3444
14339SOL     OW50256   0.261   0.755  10.567 -0.2077  0.1846  0.0057
14339SOL    HW150257   0.283   0.677  10.618  0.1386  0.1791 -0.1494
14339SOL    HW250258   0.213   0.811  10.628 -3.6851 -1.6524 -0.8192
14340SOL     OW50259   3.927   8.616   7.915  0.0919  0.4637 -0.4063
14340SOL    HW150260   3.839   8.646   7.892 -0.1952 -0.7963 -1.0238
14340SOL    HW250261   3.930   8.525   7.885  1.1101  0.0328  0.9176
14341SOL     OW50262   0.347   0.570   8.433 -0.3954 -0.6679 -0.1357
14341SOL    HW150263   0.440   0.549   8.420  0.3054  2.0345 -0.0646
14341SOL    HW250264   0.338   0.578   8.528 -0.9235 -1.7161 -0.0862
14342SOL     OW50265   7.121   3.233  12.355  0.0963  0.4485 -0.5942
14342SOL    HW150266   7.134   3.175  12.280  1.1988 -0.9028  0.5935
14342SOL    HW250267   7.071   3.180  12.418 -0.6338  1.4866 -0.2760
14343SOL     OW50268   7.535  12.467  12.591 -0.3976 -0.0455 -0.0860
14343SOL    HW150269   7.616  12.445  12.545 -0.1567  0.5649  0.0457
14343SOL    HW250270   7.530  12.402  12.661  0.1768  0.1400  0.1377
14344SOL     OW50271   9.228   5.691   4.695 -0.0385  0.2234 -0.4838
14344SOL    HW150272   9.320   5.677   4.718 -0.6287 -3.6319  0.2395
14344SOL    HW250273   9.214   5.632   4.620 -2.1857 -0.2715  0.2540
14345SOL     OW50274   9.546   6.851   6.941  0.3519  0.2033 -0.0663
14345SOL    HW150275   9.616   6.916   6.931 -0.2920  1.0828  0.8474
14345SOL    HW250276   9.486   6.891   7.004 -0.5672 -0.8774 -0.2280
14346SOL     OW50277  11.946   6.966   7.071  0.5945  0.1052  0.0243
14346SOL    HW150278  11.989   6.926   6.995 -0.6709 -2.3824  0.5187
14346SOL    HW250279  12.002   6.942   7.145 -0.3337 -1.1035  0.3640
14347SOL     OW50280   0.710   3.796  11.657  0.5055 -0.0919  0.4978
14347SOL    HW150281   0.705   3.711  11.614  0.8835 -1.0977  2.3510
14347SOL    HW250282   0.624   3.809  11.696  0.5080  0.2949  0.3795
14348SOL     OW50283  11.119  10.500  12.133 -0.0422 -0.4594 -0.6271
14348SOL    HW150284  11.129  10.437  12.061 -0.7810  0.2844 -1.4140
14348SOL    HW250285  11.192  10.561  12.122 -0.9240  0.4784 -1.6569
14349SOL     OW50286   6.941   4.781  12.105  0.4130 -0.5276 -0.0376
14349SOL    HW150287   6.984   4.804  12.187  0.5795 -0.6741 -0.0844
14349SOL    HW250288   7.010   4.784  12.039  0.1477  0.2836 -0.2976
14350SOL     OW50289   6.630   9.670  10.066 -0.1018  0.0761 -0.2967
14350SOL    HW150290   6.635   9.754  10.110  0.1156 -0.3461  0.5085
14350SOL    HW250291   6.631   9.691   9.973  0.0642  0.9499 -0.1037
14351SOL     OW50292   9.203   7.916   8.555  0.2183  0.1278 -0.2642
14351SOL    HW150293   9.256   7.865   8.617 -0.6328 -1.4837 -0.7831
14351SOL    HW250294   9.158   7.981   8.609 -0.2498 -1.0290  0.7919
14352SOL     OW50295   4.874   5.871   0.576 -0.7097  0.6652 -0.4003
14352SOL    HW150296   4.844   5.954   0.614 -1.7937 -0.1945  0.6913
14352SOL    HW250297   4.929   5.832   0.644 -2.3916 -0.7368  0.2136
14353SOL     OW50298   7.310   2.347   1.486  0.0094 -0.1854  0.1525
14353SOL    HW150299   7.232   2.389   1.521 -1.3062 -1.4585 -1.1417
14353SOL    HW250300   7.373   2.418   1.477 -1.8179  1.3692 -1.1050
14354SOL     OW50301  10.152  11.915   3.954 -0.2650 -0.1716 -0.1834
14354SOL    HW150302  10.127  11.829   3.989 -1.5733 -0.3550 -1.4397
14354SOL    HW250303  10.101  11.923   3.873 -1.2184  2.3597  0.5784
14355SOL     OW50304  11.684   6.478   2.875  0.5000  0.3057  0.0112
14355SOL    HW150305  11.656   6.535   2.946  0.6429  0.9402 -0.4289
14355SOL    HW250306  11.659   6.525   2.795  1.2410  0.0807 -0.3638
14356SOL     OW50307   6.607  12.347   7.080  0.0538  0.8505  0.7088
14356SOL    HW150308   6.656  12.414   7.128  2.8787  0.8888 -1.9308
14356SOL    HW250309   6.635  12.264   7.120  0.8844  0.9783  0.4122
14357SOL     OW50310  11.616   8.318   9.221  0.0693 -0.0747 -0.1490
14357SOL    HW150311  11.617   8.413   9.218 -0.1396 -0.1018 -1.7128
14357SOL    HW250312  11.523   8.294   9.223  0.1209 -0.2512  1.2329
14358SOL     OW50313   7.260   1.104  11.834  0.2990 -0.5147  0.2848
14358SOL    HW150314   7.253   1.191  11.875  0.5551 -0.8056  0.9456
14358SOL    HW250315   7.170   1.082  11.812 -0.1128 -1.1568  2.3797
14359SOL     OW50316   7.004  11.794   8.040 -0.5607 -0.1250  0.2406
14359SOL    HW150317   7.006  11.872   8.096  0.0240  0.8593 -1.0695
14359SOL    HW250318   6.948  11.732   8.086  0.3014  0.4318  2.1464
14360SOL     OW50319   2.260  12.701   3.029  0.1995  0.1937 -0.4899
14360SOL    HW150320   2.226  12.790   3.028  0.4447  0.3071  0.3700
14360SOL    HW250321   2.308  12.692   2.947  0.2633  0.8853 -0.5285
14361SOL     OW50322   9.761   5.542   2.322 -0.3139  0.5370 -0.0935
14361SOL    HW150323   9.737   5.483   2.394 -0.2064 -0.8771 -1.1590
14361SOL    HW250324   9.780   5.483   2.249 -1.2091  1.9516 -1.5271
14362SOL     OW50325   2.225  11.222   7.435 -0.1257 -0.5621  0.1196
14362SOL    HW150326   2.195  11.210   7.344  0.0783  0.5359 -0.1046
14362SOL    HW250327   2.234  11.317   7.445  1.0106 -0.7398  0.9185
14363SOL     OW50328   8.616   1.245   6.886 -0.4979 -0.5056  0.1387
14363SOL    HW150329   8.576   1.269   6.969  0.8863 -0.3353  0.7886
14363SOL    HW250330   8.587   1.155   6.870 -0.1213 -0.8387  1.2400
14364SOL     OW50331   7.079   5.230   4.826  0.3554  0.3604 -0.3043
14364SOL    HW150332   7.069   5.141   4.794  2.5138 -0.2345  0.5124
14364SOL    HW250333   7.031   5.284   4.763 -3.2223 -1.5004  0.5419
14365SOL     OW50334   2.007  11.430   0.023 -0.1492  0.4607  0.2792
14365SOL    HW150335   1.926  11.382   0.004  0.3824 -0.2342 -0.3157
14365SOL    HW250336   2.055  11.374   0.083  0.6760  0.0023 -0.7630
14366SOL     OW50337   0.544   1.633   3.427  0.1221 -0.5246 -0.2810
14366SOL    HW150338   0.530   1.701   3.361 -0.0509 -0.9142 -0.6498
14366SOL    HW250339   0.463   1.632   3.478  0.9929  1.1862  1.2720
14367SOL     OW50340   0.017   2.885   3.543 -0.0622 -0.0128 -0.9999
14367SOL    HW150341   0.065   2.954   3.497  0.6600  0.1233 -0.0843
14367SOL    HW250342  -0.072   2.919   3.554  0.1025  0.4708 -1.1889
14368SOL     OW50343  11.975   6.560  11.046  0.1648  0.1951  0.1419
14368SOL    HW150344  11.968   6.655  11.049 -0.2285  0.1747 -0.1288
14368SOL    HW250345  11.909   6.532  10.983  0.0991 -0.2775  0.4091
14369SOL     OW50346   6.634   3.312   5.171  0.2826 -0.1947  0.1567
14369SOL    HW150347   6.639   3.407   5.167  3.6533 -0.1086  2.1663
14369SOL    HW250348   6.696   3.281   5.105  0.7953 -0.9097  0.9517
14370SOL     OW50349   1.315   8.283   6.738 -0.2886 -0.4849  0.6510
14370SOL    HW150350   1.332   8.269   6.832  0.4984  1.4000  0.8377
14370SOL    HW250351   1.394   8.326   6.706 -1.5112  1.1428 -0.3263
14371SOL     OW50352   6.454   2.154   0.164 -0.2076 -0.4835 -0.3082
14371SOL    HW150353   6.444   2.066   0.128 -1.5434 -0.1284 -0.8799
14371SOL    HW250354   6.475   2.140   0.257  1.9659 -1.3893 -0.8754
14372SOL     OW50355   0.394   7.705   1.776 -0.4356 -0.2135 -0.1065
14372SOL    HW150356   0.335   7.773   1.746 -0.0137  0.3578  0.3408
14372SOL    HW250357   0.445   7.746   1.846  0.4678 -0.7065 -0.4605
14373SOL     OW50358   1.502   1.871   1.887  0.0786  0.1786  0.1709
14373SOL    HW150359   1.515   1.816   1.810  1.8598  1.1324 -0.2521
14373SOL    HW250360   1.426   1.926   1.864 -0.3613 -0.5882 -0.2566
14374SOL     OW50361   6.884   4.066   2.523 -0.3070  0.5543 -0.6467
14374SOL    HW150362   6.976   4.088   2.534 -0.2087  1.1071 -2.2941
14374SOL    HW250363   6.877   3.975   2.552  1.0197  0.0909 -1.6741
14375SOL     OW50364   1.974   0.859   0.267  0.0369  0.4762 -0.3873
14375SOL    HW150365   1.936   0.854   0.180 -0.5220 -1.2310 -0.0874
14375SOL    HW250366   1.900   0.875   0.325 -0.0252 -1.2046  0.0334
14376SOL     OW50367   2.491  10.770   4.955 -0.6515  0.2061  0.2355
14376SOL    HW150368   2.445  10.838   4.906  1.8601  0.1110 -2.5625
14376SOL    HW250369   2.465  10.688   4.913  0.5301 -0.0037 -0.1291
14377SOL     OW50370   2.756  12.190   0.957  0.8418  0.7556 -0.1943
14377SOL    HW150371   2.702  12.154   1.028  0.9517  0.1587 -0.4053
14377SOL    HW250372   2.845  12.189   0.992  1.0185 -0.3317 -0.6243
14378SOL     OW50373   3.939   3.608   3.949 -0.1754 -0.3357  0.0057
14378SOL    HW150374   3.951   3.517   3.976 -1.4000 -0.6439 -0.4256
14378SOL    HW250375   3.972   3.611   3.859 -0.1410 -0.3552  0.0177
14379SOL     OW50376   8.570   7.724   0.993  0.0016 -0.2810 -0.2303
14379SOL    HW150377   8.533   7.647   0.950  1.2095 -0.1586 -1.5894
14379SOL    HW250378   8.600   7.692   1.078 -0.9298 -0.9261 -0.1304
14380SOL     OW50379   6.925  10.450   9.765  0.2354  0.0801  0.0009
14380SOL    HW150380   6.849  10.493   9.728 -0.7035  0.2076  1.9449
14380SOL    HW250381   6.951  10.505   9.839 -1.4171 -2.8487  3.0140
14381SOL     OW50382   5.971   2.072   0.795 -0.3450 -0.6253 -0.2496
14381SOL    HW150383   6.061   2.040   0.800  0.5458  1.8213  0.8213
14381SOL    HW250384   5.935   2.054   0.882  0.5904  2.2515  0.8167
14382SOL     OW50385   3.249   2.556   9.884 -0.4687 -0.2787 -0.1052
14382SOL    HW150386   3.255   2.611   9.963 -0.5957 -0.8885  0.3412
14382SOL    HW250387   3.155   2.544   9.871 -0.4562  0.0381 -0.5118
14383SOL     OW50388  12.660   2.207   6.502  0.1966  0.2644 -0.0064
14383SOL    HW150389  12.714   2.210   6.580  0.2427  1.2279 -0.0606
14383SOL    HW250390  12.637   2.114   6.491  0.2787  0.1088  1.0764
14384SOL     OW50391   2.721  10.623  11.721 -0.1635 -0.1336 -0.7429
14384SOL    HW150392   2.693  10.683  11.652  0.9213  0.9362 -0.2936
14384SOL    HW250393   2.814  10.609  11.705  0.0712  0.0098  0.3959
14385SOL     OW50394   5.849  10.693  12.418 -0.5414  0.2621 -0.1311
14385SOL    HW150395   5.763  10.692  12.375  0.4092  1.1390 -2.1636
14385SOL    HW250396   5.905  10.744  12.359  1.0113  1.0303  1.9088
14386SOL     OW50397   1.479  10.209   8.134 -0.0956 -0.4448 -0.1175
14386SOL    HW150398   1.410  10.274   8.131  0.2194 -0.1126 -0.2159
14386SOL    HW250399   1.553  10.250   8.090  0.9341  0.1242  1.9844
14387SOL     OW50400   8.114  11.172   8.773  0.1237 -0.0938  0.1934
14387SOL    HW150401   8.180  11.215   8.718  0.9523  0.5101  1.5856
14387SOL    HW250402   8.112  11.225   8.853 -1.4462 -0.6105  0.5234
14388SOL     OW50403   2.976   7.218   4.067  0.3148  0.0860 -0.2100
14388SOL    HW150404   2.941   7.132   4.088 -1.1901  0.9256  0.9523
14388SOL    HW250405   2.907   7.260   4.016 -0.2097  1.5447  1.5660
14389SOL     OW50406   3.233   2.794   8.058  0.0653 -0.4155 -0.1696
14389SOL    HW150407   3.324   2.818   8.039 -0.1321  0.4554 -0.0553
14389SOL    HW250408   3.240   2.709   8.101  0.9672  0.3607  1.3238
14390SOL     OW50409   0.951   8.251   6.346 -0.4573  0.7385 -0.3540
14390SOL    HW150410   1.017   8.312   6.379 -0.0339  0.1660 -0.1400
14390SOL    HW250411   0.936   8.278   6.256 -0.7327  1.5548 -0.0747
14391SOL     OW50412   3.249   7.605   9.659  0.0218  0.0709 -0.2295
14391SOL    HW150413   3.172   7.559   9.624  1.4870 -3.4814  0.7711
14391SOL    HW250414   3.295   7.637   9.582 -1.4590  0.6141 -0.9327
14392SOL     OW50415   3.372   6.498   4.572  0.4020 -0.2294  0.2826
14392SOL    HW150416   3.438   6.476   4.506 -0.2354 -1.0278 -0.1014
14392SOL    HW250417   3.419   6.553   4.635  1.5690 -1.2039  0.2906
14393SOL     OW50418   6.625   7.125   3.525 -0.0957  0.0518 -0.5665
14393SOL    HW150419   6.662   7.175   3.452  1.0943  0.5840  0.3630
14393SOL    HW250420   6.557   7.182   3.561  0.3582  0.4564 -0.3319
14394SOL     OW50421   2.374   3.576   5.374  0.0870 -0.2443  0.2288
14394SOL    HW150422   2.326   3.639   5.428 -0.1821 -1.0510  0.9573
14394SOL    HW250423   2.401   3.626   5.297  0.0809  0.8190  0.8894
14395SOL     OW50424   1.242   4.201  10.298 -0.5940  0.1547  0.6643
14395SOL    HW150425   1.164   4.255  10.313 -0.6218  1.1572 -2.2793
14395SOL    HW250426   1.220   4.116  10.336 -2.3121  0.9763  1.6352
14396SOL     OW50427   5.708   8.483   7.474 -0.3330  0.1518  0.5698
14396SOL    HW150428   5.625   8.460   7.432  0.3945 -1.0317 -0.2988
14396SOL    HW250429   5.688   8.562   7.525 -1.4506  1.2727 -1.4468
14397SOL     OW50430  11.646   3.680  10.613 -0.2052  0.2384 -0.4947
14397SOL    HW150431  11.637   3.641  10.526 -1.4044  0.2433 -0.3872
14397SOL    HW250432  11.559   3.671  10.652  0.4621 -0.2690  0.9265
14398SOL     OW50433   7.038   5.353   1.942 -0.1036  0.5901  0.4494
14398SOL    HW150434   7.032   5.410   2.018  0.0896 -1.6521  2.2394
14398SOL    HW250435   6.949   5.321   1.928  0.2087 -0.6593  1.1353
14399SOL     OW50436   0.524   4.247   4.205 -0.6219 -0.1833 -0.0679
14399SOL    HW150437   0.517   4.207   4.118 -1.1964 -1.2922  0.4733
14399SOL    HW250438   0.457   4.315   4.205 -0.2140  0.2306 -0.6980
14400SOL     OW50439  12.497   2.156   9.596  0.0548  0.4507  0.5900
14400SOL    HW150440  12.442   2.103   9.653  0.7167  1.2191  1.9921
14400SOL    HW250441  12.457   2.242   9.597 -0.2314  0.3546 -0.5776
14401SOL     OW50442   8.284  10.336   6.543  0.3419  0.0803 -0.1758
14401SOL    HW150443   8.213  10.271   6.541  0.9947 -0.6794 -3.0423
14401SOL    HW250444   8.240  10.420   6.531 -0.1729 -0.3357 -1.4233
14402SOL     OW50445   1.808   9.826   0.486 -0.1819 -0.0037  0.3718
14402SOL    HW150446   1.720   9.798   0.460 -0.1055 -0.5509  0.6986
14402SOL    HW250447   1.859   9.823   0.404  0.4539 -3.2238  0.7830
14403SOL     OW50448  10.708  10.674   1.218  0.2521 -0.3983  0.1510
14403SOL    HW150449  10.643  10.731   1.259  0.8813  0.9880 -0.7367
14403SOL    HW250450  10.658  10.597   1.192 -1.3240  1.1091 -1.5258
14404SOL     OW50451  11.832  11.183   3.817  0.0801 -0.0596  0.3169
14404SOL    HW150452  11.907  11.242   3.811  0.0707  0.1263  1.6021
14404SOL    HW250453  11.822  11.147   3.729  0.5018  1.3545 -0.3441
14405SOL     OW50454   2.886   6.816   2.574 -0.0084 -0.1891 -0.1670
14405SOL    HW150455   2.912   6.792   2.485 -0.7079  0.6537 -0.6183
14405SOL    HW250456   2.957   6.872   2.606 -0.8532  1.5053 -1.1199
14406SOL     OW50457   5.682   9.680   0.254 -0.1472  0.3465 -0.3252
14406SOL    HW150458   5.589   9.693   0.272 -0.5913 -1.2080 -1.3234
14406SOL    HW250459   5.710   9.761   0.213 -1.0154  0.9036  0.1588
14407SOL     OW50460   0.105  12.220   9.180 -0.0433 -0.6516 -0.3740
14407SOL    HW150461   0.053  12.245   9.257  4.5045  0.3041  2.8163
14407SOL    HW250462   0.070  12.274   9.109 -2.5237  0.8056  1.7642
14408SOL     OW50463   7.329   4.348   9.183  0.9546 -0.0918 -0.1600
14408SOL    HW150464   7.352   4.293   9.259  0.0773 -0.8680 -0.4415
14408SOL    HW250465   7.323   4.437   9.219  1.4023 -0.3190  0.5042
14409SOL     OW50466   4.310   2.497  10.238 -0.3995  0.2254  0.2300
14409SOL    HW150467   4.218   2.478  10.254 -0.4753  0.5083  0.1390
14409SOL    HW250468   4.346   2.414  10.206 -0.8389  0.3512 -0.6487
14410SOL     OW50469   1.497  10.109   9.582 -0.1947  0.2007  0.0225
14410SOL    HW150470   1.439  10.162   9.636 -0.4283  0.1396 -0.1722
14410SOL    HW250471   1.479  10.136   9.492  0.5652  0.6726  0.0031
14411SOL     OW50472   8.691   2.293   9.752 -0.2962 -0.5555  0.1968
14411SOL    HW150473   8.761   2.242   9.711  0.1583  0.6826 -0.5929
14411SOL    HW250474   8.717   2.300   9.844  1.8117  1.7385 -0.4689
14412SOL     OW50475   3.125   9.977   8.581 -0.7914  0.4170 -0.0386
14412SOL    HW150476   3.072  10.016   8.650 -1.3448 -0.5984  0.1248
14412SOL    HW250477   3.080   9.896   8.559  0.3029 -0.1060 -0.4036
14413SOL     OW50478   6.075   9.105   4.853 -0.3300 -0.4505  0.2905
14413SOL    HW150479   6.112   9.165   4.917 -0.4007  0.6385 -0.6597
14413SOL    HW250480   5.981   9.107   4.869 -0.5381  1.1576 -0.9150
14414SOL     OW50481  12.037  10.286   9.395 -0.7324 -0.2977  0.4551
14414SOL    HW150482  11.943  10.300   9.404 -0.5036  1.2188  0.6195
14414SOL    HW250483  12.073  10.306   9.481  0.0271  1.9167 -0.3214
14415SOL     OW50484   6.709   8.036   0.897  0.4278 -0.3893  0.4605
14415SOL    HW150485   6.620   8.067   0.914 -0.4318 -0.5125 -3.1546
14415SOL    HW250486   6.705   7.942   0.911  0.2600 -0.2892  1.1442
14416SOL     OW50487   8.970  10.895   4.471  0.2586  0.2745 -0.3570
14416SOL    HW150488   8.934  10.814   4.435 -0.7990  1.0395 -1.0434
14416SOL    HW250489   8.982  10.876   4.564  1.1522 -1.0515 -0.7090
14417SOL     OW50490  10.835   4.789   5.139 -0.5811  0.0174 -0.2195
14417SOL    HW150491  10.751   4.800   5.094 -0.6248  0.8245  0.0433
14417SOL    HW250492  10.885   4.730   5.082  0.1799  2.7034 -2.5353
14418SOL     OW50493   2.727  10.329   3.918 -0.1984  0.7099 -0.0489
14418SOL    HW150494   2.777  10.383   3.858 -0.6122  0.0662 -1.0070
14418SOL    HW250495   2.791  10.294   3.979  1.3162 -2.9329 -3.2786
14419SOL     OW50496   4.093   3.227   1.313  0.0762 -0.1036 -0.4823
14419SOL    HW150497   4.014   3.187   1.276  0.5450 -1.1480 -0.3987
14419SOL    HW250498   4.110   3.177   1.393  0.0720  0.9874  0.2210
14420SOL     OW50499   5.147   1.282   9.806  0.9037 -0.6945  0.3910
14420SOL    HW150500   5.054   1.300   9.817  0.8371 -1.1316  0.5579
14420SOL    HW250501   5.158   1.266   9.712  1.5022  3.2167 -0.3590
14421SOL     OW50502   8.959   2.455  11.558 -0.0121 -0.2624 -0.3464
14421SOL    HW150503   8.913   2.535  11.586 -1.7412 -2.2302  3.1573
14421SOL    HW250504   9.049   2.468  11.589  0.0820  0.8226 -1.0123
14422SOL     OW50505  11.794  11.398   5.699 -0.0947  0.1846 -0.3531
14422SOL    HW150506  11.743  11.326   5.736 -0.4281  1.2347  1.3352
14422SOL    HW250507  11.780  11.391   5.605 -1.2864 -1.0904 -0.1207
14423SOL     OW50508  10.427   8.940  10.891 -0.2611 -0.4847  0.1949
14423SOL    HW150509  10.397   9.006  10.828 -0.0184  0.5244  1.1057
14423SOL    HW250510  10.517   8.966  10.912 -0.6688 -0.2144  1.6922
14424SOL     OW50511  10.627   0.042   3.915  0.2584 -0.8058 -0.2857
14424SOL    HW150512  10.642   0.057   3.821 -1.7120  1.2839 -0.3609
14424SOL    HW250513  10.621  -0.054   3.923  1.1702 -1.0691 -2.1488
14425SOL     OW50514   1.493   6.020   7.993  0.2202  0.1100  0.4141
14425SOL    HW150515   1.448   6.101   7.971  1.4109  0.6291 -0.2136
14425SOL    HW250516   1.574   6.024   7.943 -0.4421 -2.2721 -0.9895
14426SOL     OW50517   2.417  11.406   0.993  0.5911 -0.5101 -0.5546
14426SOL    HW150518   2.394  11.380   1.082 -0.0844 -1.3535 -0.9557
14426SOL    HW250519   2.370  11.488   0.979 -0.1630 -0.9228 -0.4927
14427SOL     OW50520  10.704  12.077  12.425  0.1320 -0.0670  0.5181
14427SOL    HW150521  10.663  12.067  12.511 -0.1131 -0.2289  0.3820
14427SOL    HW250522  10.635  12.111  12.369 -0.3397 -1.9813 -0.1427
14428SOL     OW50523   8.059   5.124   6.566  0.1836 -0.0768  0.0579
14428SOL    HW150524   8.000   5.184   6.520  0.0790  0.7573  1.2350
14428SOL    HW250525   8.083   5.059   6.500  1.8827  2.3266 -1.8833
14429SOL     OW50526  10.235   2.512   4.850 -0.0236  0.0454  0.7409
14429SOL    HW150527  10.204   2.586   4.902 -1.0477  0.5541 -0.5213
14429SOL    HW250528  10.167   2.499   4.784  0.2461 -1.9133  0.8096
14430SOL     OW50529   2.620   5.222   3.555 -0.6888 -0.8011  0.3979
14430SOL    HW150530   2.563   5.221   3.478 -0.1445 -1.4424 -0.0114
14430SOL    HW250531   2.709   5.219   3.519 -0.4378 -1.5359  1.0542
14431SOL     OW50532   1.114   0.919  11.396  0.3615  0.6977  0.0509
14431SOL    HW150533   1.096   0.826  11.385  0.8752  0.7891 -1.8551
14431SOL    HW250534   1.206   0.923  11.423  2.2554  0.7100 -5.2825
14432SOL     OW50535   2.515   0.895  12.536 -0.6821 -0.1031 -0.4256
14432SOL    HW150536   2.510   0.968  12.597  0.6303 -0.6956  0.4666
14432SOL    HW250537   2.442   0.838  12.560 -0.8574  0.2224 -0.1776
14433SOL     OW50538   3.089   4.257   1.953 -0.1329  0.5537 -0.1171
14433SOL    HW150539   3.054   4.310   1.881  0.1127  1.4944  0.4372
14433SOL    HW250540   3.125   4.321   2.014 -1.5908 -0.1119  1.5339
14434SOL     OW50541   4.548   8.102   1.878 -0.3399 -0.0408 -0.2429
14434SOL    HW150542   4.626   8.157   1.888  0.0362 -0.1656 -2.1866
14434SOL    HW250543   4.583   8.013   1.873 -0.4369  0.0017 -2.4674
14435SOL     OW50544   6.650   9.702   2.784 -0.4989  0.2202 -0.0337
14435SOL    HW150545   6.676   9.723   2.694 -1.1467  0.7453 -0.1078
14435SOL    HW250546   6.559   9.673   2.777 -0.5958  0.3878  0.4607
14436SOL     OW50547   2.415   3.221  10.476  0.6822  0.3436  0.3893
14436SOL    HW150548   2.402   3.137  10.520  1.8228  0.5829  1.2086
14436SOL    HW250549   2.449   3.197  10.389 -0.8532 -0.0939 -0.1187
14437SOL     OW50550  12.697   2.825   5.394 -0.3007  0.4715 -0.3581
14437SOL    HW150551  12.609   2.835   5.357 -1.8533 -0.1920  2.7867
14437SOL    HW250552  12.749   2.786   5.324 -3.3672 -2.1558 -1.3764
14438SOL     OW50553   9.008   3.019  11.184  0.4139 -0.0300  0.1543
14438SOL    HW150554   8.983   3.003  11.093 -1.4545  0.9938  0.4322
14438SOL    HW250555   8.979   2.941  11.231 -0.0757  0.1046  0.0881
14439SOL     OW50556   3.454   0.645   1.442  0.1984  0.0443  0.5238
14439SOL    HW150557   3.444   0.674   1.533  0.6541 -0.7610  0.8399
14439SOL    HW250558   3.376   0.677   1.397 -0.5744 -0.5068  1.4492
14440SOL     OW50559  10.614   2.549   6.673 -0.1856 -0.1165  0.6366
14440SOL    HW150560  10.643   2.459   6.690  1.2337  0.2477  0.3188
14440SOL    HW250561  10.643   2.567   6.584 -0.4695  0.6587  0.6914
14441SOL     OW50562   7.616  12.075  10.465 -1.1312  0.2347  0.3414
14441SOL    HW150563   7.529  12.108  10.443 -1.1306  0.9847  1.3952
14441SOL    HW250564   7.641  12.123  10.544 -0.1756 -0.7015  0.6300
14442SOL     OW50565  10.761   9.640   4.888  0.2252  0.8915  0.0537
14442SOL    HW150566  10.764   9.549   4.919  1.6504  0.3610 -1.5025
14442SOL    HW250567  10.766   9.692   4.968 -3.0038 -0.2981  1.2131
14443SOL     OW50568   4.182   3.767  12.328  0.9523  0.0671 -0.3628
14443SOL    HW150569   4.214   3.750  12.417  1.6606 -0.7609 -0.7560
14443SOL    HW250570   4.200   3.860  12.314  1.1918  0.1161  0.2176
14444SOL     OW50571   8.826   5.738  10.229  0.3291  0.3351 -0.1113
14444SOL    HW150572   8.778   5.720  10.148 -0.1442 -0.4863  0.3378
14444SOL    HW250573   8.892   5.669  10.234 -1.5461 -1.4477  1.6667
14445SOL     OW50574   1.200   2.735   5.558 -0.0596  0.2259  0.2502
14445SOL    HW150575   1.204   2.651   5.511  2.6096  0.2240  0.3505
14445SOL    HW250576   1.164   2.712   5.644 -1.5417 -0.3828 -0.4869
14446SOL     OW50577   1.211   2.749   0.744 -0.5170 -0.0053  0.0649
14446SOL    HW150578   1.304   2.767   0.761 -0.9244  1.0737  1.3906
14446SOL    HW250579   1.191   2.673   0.799  0.0385 -1.5901 -1.8188
14447SOL     OW50580  12.243   7.434  11.620  0.2622 -0.3399 -0.3018
14447SOL    HW150581  12.253   7.436  11.715 -1.3497  0.7666 -0.1051
14447SOL    HW250582  12.331   7.420  11.586  0.9800  0.0296  1.3448
14448SOL     OW50583   7.557  11.220   6.525 -0.7169  0.2134  0.0205
14448SOL    HW150584   7.475  11.177   6.502 -1.0363  0.7247  0.1682
14448SOL    HW250585   7.589  11.257   6.443 -0.6087 -0.0300 -0.0464
14449SOL     OW50586   2.280   9.484   5.959  0.3089  0.2393 -0.1612
14449SOL    HW150587   2.289   9.411   6.020 -1.2890 -0.7572 -1.0561
14449SOL    HW250588   2.369   9.503   5.931  0.8889 -0.4389  1.1343
14450SOL     OW50589  11.766   6.744   9.971 -0.1856 -0.1186 -0.4661
14450SOL    HW150590  11.840   6.683   9.962 -1.8776 -2.3297 -0.3160
14450SOL    HW250591  11.720   6.738   9.887 -0.1367  1.3761 -0.6245
14451SOL     OW50592   8.430   7.016   1.375  0.1022 -0.0675 -0.2996
14451SOL    HW150593   8.368   7.062   1.431  1.0499  0.2841  0.4848
14451SOL    HW250594   8.489   6.971   1.435  0.6091 -0.4064 -1.0255
14452SOL     OW50595   2.449   6.758   1.881  0.5014  0.2458 -0.1339
14452SOL    HW150596   2.382   6.691   1.893  0.7067  0.2631  1.2306
14452SOL    HW250597   2.457   6.800   1.966 -0.1927  2.5908 -1.1406
14453SOL     OW50598   6.199   3.625   7.803  0.7333  0.0316 -0.4455
14453SOL    HW150599   6.232   3.539   7.831  0.1863  0.5586  2.0735
14453SOL    HW250600   6.256   3.688   7.847  0.1015  0.9548 -0.9201
14454SOL     OW50601   2.444   9.345  10.393  0.0772  0.0572  0.3095
14454SOL    HW150602   2.526   9.390  10.372 -0.1205  0.2195 -0.1175
14454SOL    HW250603   2.376   9.412  10.384 -0.0614  0.0288  1.0744
14455SOL     OW50604   5.560   1.582   9.348 -0.5803 -0.0817  0.5127
14455SOL    HW150605   5.605   1.634   9.414 -0.6842  0.4883  0.1403
14455SOL    HW250606   5.470   1.573   9.381 -0.5735  0.0098  0.5554
14456SOL     OW50607   7.052   3.131   6.811  0.3980 -0.3435 -0.1079
14456SOL    HW150608   7.146   3.147   6.807  0.3087  0.1836 -0.1751
14456SOL    HW250609   7.017   3.177   6.734  0.2261 -1.5804 -0.8024
14457SOL     OW50610   2.065   8.274  12.581 -0.2245  0.2781  0.1485
14457SOL    HW150611   2.136   8.310  12.634 -0.4309  1.5102 -0.3603
14457SOL    HW250612   2.109   8.239  12.503 -0.1345  0.9028 -0.0951
14458SOL     OW50613   3.395   9.696  11.655  0.2570  0.3814 -0.4749
14458SOL    HW150614   3.314   9.746  11.667 -0.1405 -0.2004 -0.6635
14458SOL    HW250615   3.380   9.646  11.575  1.4286  1.4533 -1.4120
14459SOL     OW50616  10.032   8.325   0.327 -0.0173  0.4711 -0.6885
14459SOL    HW150617  10.016   8.332   0.233  2.5894  1.5963 -1.1420
14459SOL    HW250618   9.947   8.300   0.364 -1.2155  0.3791 -3.2704
14460SOL     OW50619  10.921   8.797   1.511  0.5222  0.2186  0.0574
14460SOL    HW150620  10.845   8.834   1.467 -0.1607 -0.7545  0.3820
14460SOL    HW250621  10.995   8.844   1.474 -0.1918  0.8576 -0.6121
14461SOL     OW50622   7.570  12.004   6.313 -0.4704 -0.5340 -0.2988
14461SOL    HW150623   7.576  12.074   6.248 -1.6660 -0.4293 -0.3146
14461SOL    HW250624   7.612  12.040   6.391 -0.3293 -0.1140 -0.5686
14462SOL     OW50625   0.014   8.548   5.024  0.1174  0.1303  0.2201
14462SOL    HW150626  -0.054   8.480   5.027  1.3590 -1.1385  1.8351
14462SOL    HW250627   0.048   8.544   4.935 -1.8728  0.7915 -0.6195
14463SOL     OW50628   4.892   6.730   8.867  0.1985  0.5100  0.0843
14463SOL    HW150629   4.907   6.661   8.802 -1.5852  0.1997 -0.0348
14463SOL    HW250630   4.800   6.753   8.857 -0.5422 -0.5078  3.4190
14464SOL     OW50631   7.691   0.169   3.646 -0.0440 -0.4080  0.4825
14464SOL    HW150632   7.650   0.255   3.641  0.2745 -0.2427  0.7246
14464SOL    HW250633   7.618   0.108   3.659 -0.2389 -0.1431  0.6230
14465SOL     OW50634   8.531   0.973   3.326  0.0478  0.7550  0.9330
14465SOL    HW150635   8.622   0.969   3.356  0.9300  0.9657 -1.4484
14465SOL    HW250636   8.523   0.899   3.266 -1.6104  0.3064  1.6696
14466SOL     OW50637   2.264   7.033   3.345 -0.8145 -0.1100  0.3022
14466SOL    HW150638   2.342   7.000   3.388 -1.0099 -0.9135  0.0695
14466SOL    HW250639   2.259   7.125   3.369  0.8217  0.2446 -0.5838
14467SOL     OW50640   2.906  10.629   1.748  0.2794 -0.0044  0.0328
14467SOL    HW150641   2.950  10.619   1.663 -1.6129 -0.0630 -0.9882
14467SOL    HW250642   2.826  10.576   1.740 -0.6731  1.1776  1.2959
14468SOL     OW50643  11.607  12.069   2.181 -0.0866  0.0727 -0.4980
14468SOL    HW150644  11.689  12.113   2.159  0.9400 -0.6183  1.6141
14468SOL    HW250645  11.608  12.064   2.277 -2.0056 -1.0876 -0.4882
14469SOL     OW50646  11.466   3.386   2.633  0.1530 -0.2643 -0.4367
14469SOL    HW150647  11.499   3.392   2.543  1.7692 -0.3038  0.1290
14469SOL    HW250648  11.410   3.308   2.632 -0.4745  0.1705 -1.5783
14470SOL     OW50649   9.076   8.689   0.227 -0.2264 -0.2084 -0.2773
14470SOL    HW150650   9.133   8.729   0.160 -0.3359 -0.6457 -0.6368
14470SOL    HW250651   9.084   8.747   0.303  1.3955 -0.7375 -0.0097
14471SOL     OW50652   4.924   2.299   5.107  0.1262  0.1501  0.4968
14471SOL    HW150653   5.015   2.280   5.132  0.6161  0.8334 -0.6899
14471SOL    HW250654   4.895   2.219   5.062  0.4696  0.3004  0.0076
14472SOL     OW50655   3.874   3.969   4.716  0.0670 -0.1334  0.0010
14472SOL    HW150656   3.917   3.945   4.798  0.8854 -1.7383 -0.8491
14472SOL    HW250657   3.781   3.973   4.738  0.3784  0.7780  1.2801
14473SOL     OW50658   4.552   7.078   4.892  0.9416  0.0688  0.5216
14473SOL    HW150659   4.557   7.015   4.964 -0.6575 -0.1369  0.4915
14473SOL    HW250660   4.459   7.096   4.882  1.2476  1.2289 -0.5358
14474SOL     OW50661   7.655   7.987   4.616 -0.5937 -0.0751 -0.1567
14474SOL    HW150662   7.728   8.034   4.574  0.7023  0.7876  2.7560
14474SOL    HW250663   7.598   8.057   4.648 -0.2069 -0.5170  1.6080
14475SOL     OW50664   6.981   9.559   8.153 -0.2154  0.4390 -0.0559
14475SOL    HW150665   6.898   9.567   8.202 -0.7525 -2.3139 -0.3442
14475SOL    HW250666   7.037   9.626   8.191 -2.4344  2.1865  0.3992
14476SOL     OW50667  11.992  11.936   2.478  0.3230 -0.1989 -0.4279
14476SOL    HW150668  12.069  11.951   2.423  2.0797 -1.5168  1.5056
14476SOL    HW250669  11.940  11.872   2.430  0.9297 -0.0417 -1.3130
14477SOL     OW50670   7.924   0.206  12.170  0.0393  0.0557  0.2455
14477SOL    HW150671   8.014   0.198  12.138 -0.0889 -0.3926 -0.0058
14477SOL    HW250672   7.925   0.161  12.255  0.5486  1.8337  1.2396
14478SOL     OW50673  10.471   4.725   5.656  0.3160 -0.0477 -0.2690
14478SOL    HW150674  10.471   4.697   5.748 -0.7036  0.7822  0.0025
14478SOL    HW250675  10.411   4.800   5.654 -0.2772 -0.5282 -1.7619
14479SOL     OW50676   5.129  11.051   3.599 -0.1265  0.4595  0.1187
14479SOL    HW150677   5.124  11.055   3.503  2.1047  1.0614 -0.0264
14479SOL    HW250678   5.120  10.958   3.619 -1.9196  0.4508 -0.5336
14480SOL     OW50679  11.916   1.981   8.063  0.4105 -0.7698  0.0369
14480SOL    HW150680  11.948   1.970   7.973  0.9933 -0.6288  0.2214
14480SOL    HW250681  11.842   1.921   8.069  0.3741 -0.7915 -0.5362
14481SOL     OW50682  11.958   9.498   9.877  0.4744  0.4868 -1.0510
14481SOL    HW150683  12.049   9.509   9.905  0.5867  0.2421 -1.3185
14481SOL    HW250684  11.943   9.569   9.814  0.3443  0.7896 -0.6867
14482SOL     OW50685  10.182   0.771   7.592 -0.1076  0.3347  0.7087
14482SOL    HW150686  10.153   0.810   7.675  1.0088  0.3762  1.0924
14482SOL    HW250687  10.178   0.843   7.529 -3.2082 -0.2012  0.1008
14483SOL     OW50688   1.829   3.425   0.239 -0.1838  0.3535  0.1617
14483SOL    HW150689   1.882   3.390   0.168 -0.3483  0.1336  0.1472
14483SOL    HW250690   1.787   3.502   0.202  1.9361  1.9272  0.8396
14484SOL     OW50691   4.772   0.274   4.506 -0.2566 -0.1130 -0.1812
14484SOL    HW150692   4.711   0.251   4.436  0.0073  1.6223 -1.0074
14484SOL    HW250693   4.858   0.276   4.464 -0.1581  1.4459  0.0659
14485SOL     OW50694   3.668   5.229  10.704 -0.4961 -0.0919 -0.0529
14485SOL    HW150695   3.639   5.144  10.738  1.1431 -1.0492 -0.9542
14485SOL    HW250696   3.607   5.248  10.633 -1.0116 -0.3876  0.2996
14486SOL     OW50697   7.677  11.652   9.466  0.0608  0.0721 -0.5292
14486SOL    HW150698   7.654  11.685   9.553 -0.5662  0.8140 -0.9662
14486SOL    HW250699   7.734  11.577   9.484 -0.0135  0.2415  0.5194
14487SOL     OW50700  10.715   3.001   7.002 -0.6111 -0.5753 -0.1075
14487SOL    HW150701  10.697   3.012   7.095  0.7470  0.6113  0.0586
14487SOL    HW250702  10.811   2.996   6.997 -0.3183  3.2651 -1.7067
14488SOL     OW50703   0.154   5.944   3.869  0.1517  0.1694 -0.4799
14488SOL    HW150704   0.113   5.873   3.919 -0.6945 -0.1405 -1.5585
14488SOL    HW250705   0.100   6.021   3.887 -0.7995 -0.1816 -1.7027
14489SOL     OW50706   7.988   8.458  10.579 -0.4515 -0.0383 -0.2149
14489SOL    HW150707   8.066   8.473  10.631  0.2331 -0.5704 -1.0577
14489SOL    HW250708   8.005   8.376  10.532 -1.6953 -0.3951 -0.0865
14490SOL     OW50709  10.352   3.714   5.436 -0.3181  0.1729 -0.2504
14490SOL    HW150710  10.258   3.715   5.454 -0.5357  1.8290 -1.2683
14490SOL    HW250711  10.369   3.626   5.402 -1.5236 -0.1004 -0.1990
14491SOL     OW50712   1.094   8.607   4.759 -0.5653 -0.0321  0.3789
14491SOL    HW150713   1.063   8.697   4.747 -1.3857 -0.0015  2.2959
14491SOL    HW250714   1.027   8.566   4.813  1.3454 -0.8170  2.3126
14492SOL     OW50715  12.162  11.061   9.918  0.2069  0.0433 -0.2819
14492SOL    HW150716  12.164  11.028   9.828  0.2924 -1.8808  0.3720
14492SOL    HW250717  12.249  11.039   9.954  0.3421  1.1943  0.1582
14493SOL     OW50718   8.859  11.648   1.163  0.1184 -0.3747  0.1549
14493SOL    HW150719   8.908  11.684   1.089  1.5596  0.2037  1.3421
14493SOL    HW250720   8.834  11.724   1.215  0.0128 -0.8374  0.7968
14494SOL     OW50721   9.899   6.296   8.319 -0.0227 -0.1835  0.1652
14494SOL    HW150722   9.975   6.353   8.329 -0.1171 -0.0514  0.1442
14494SOL    HW250723   9.934   6.208   8.314  0.3607  0.0201 -2.4617
14495SOL     OW50724  10.021   4.525   6.318 -0.1182  0.3655 -0.0202
14495SOL    HW150725   9.946   4.481   6.278 -0.9904  1.9352 -0.1995
14495SOL    HW250726  10.002   4.618   6.308  1.1588  0.7973  1.2724
14496SOL     OW50727   9.590   6.171   8.163 -0.0427  0.6344 -0.0164
14496SOL    HW150728   9.590   6.241   8.098 -2.9972  0.0661 -0.7441
14496SOL    HW250729   9.520   6.193   8.223 -0.2401 -1.0778  0.4427
14497SOL     OW50730   6.765   7.539   1.898 -0.3441 -0.3208 -0.5569
14497SOL    HW150731   6.690   7.484   1.920  0.5068 -1.0751  0.5238
14497SOL    HW250732   6.789   7.581   1.980  1.5511 -1.5013 -0.4660
14498SOL     OW50733   1.696   6.044  12.348  0.0608  0.1678  0.1368
14498SOL    HW150734   1.727   5.964  12.306  0.3170  0.4228 -0.1549
14498SOL    HW250735   1.637   6.084  12.284  0.3849  0.5102  0.0498
14499SOL     OW50736  10.101   2.719   5.020  0.9825  0.8656  0.0380
14499SOL    HW150737  10.010   2.743   5.039 -0.2930 -0.9205 -3.0439
14499SOL    HW250738  10.140   2.799   4.985  0.3702  1.4612  0.6840
14500SOL     OW50739   1.166   5.019   7.195 -0.2225  0.0657 -0.4435
14500SOL    HW150740   1.249   5.052   7.161 -0.1890  0.4502 -0.0019
14500SOL    HW250741   1.106   5.024   7.121 -0.7275  2.9099  0.0225
14501SOL     OW50742   8.166   2.657   0.606  0.2959 -0.8026  0.4786
14501SOL    HW150743   8.213   2.634   0.526 -1.6900  0.3282 -1.1092
14501SOL    HW250744   8.159   2.575   0.654  1.4820 -1.5219 -0.5151
14502SOL     OW50745   9.852   1.412   1.070  0.0606 -0.6439 -0.0104
14502SOL    HW150746   9.930   1.436   1.119 -1.2042 -0.2810  1.9501
14502SOL    HW250747   9.810   1.343   1.123 -1.3523 -0.2510 -0.5556
14503SOL     OW50748   9.436  11.309   7.775 -0.4650  0.3605 -0.0859
14503SOL    HW150749   9.437  11.360   7.694 -2.5228 -1.3375 -1.2958
14503SOL    HW250750   9.345  11.279   7.783  0.1763 -1.3213  1.6644
14504SOL     OW50751  10.109  11.834  12.711 -0.0570  0.4773 -0.8504
14504SOL    HW150752  10.076  11.760  12.661 -0.4555  1.2848 -1.8155
14504SOL    HW250753  10.199  11.811  12.732 -1.1328 -1.8065  1.8986
14505SOL     OW50754   2.668   6.663   2.338 -0.3185 -0.4726  0.0297
14505SOL    HW150755   2.659   6.752   2.302  1.4393 -0.5190 -0.5892
14505SOL    HW250756   2.623   6.668   2.422 -0.4565  0.9485 -0.0909
14506SOL     OW50757  10.974   0.657  11.704  0.2775  0.0823 -0.4374
14506SOL    HW150758  10.947   0.626  11.790  2.0646 -0.7472 -0.1127
14506SOL    HW250759  11.070   0.661  11.709  0.3284  1.7593 -1.8226
14507SOL     OW50760   6.075  10.741   0.614 -0.6042 -0.4269 -0.0281
14507SOL    HW150761   6.091  10.664   0.559 -3.3423 -0.0642 -1.5138
14507SOL    HW250762   6.048  10.706   0.698 -1.0426 -1.1011 -0.4445
14508SOL     OW50763   2.355   3.455  12.075  0.6477  0.2537 -0.6745
14508SOL    HW150764   2.418   3.522  12.100 -0.8276  1.2146  0.7064
14508SOL    HW250765   2.298   3.497  12.011 -0.5229  0.5274  0.4859
14509SOL     OW50766  10.232   3.162   4.798  0.4660 -0.0370 -0.0682
14509SOL    HW150767  10.139   3.140   4.793  0.4580  0.0354 -0.2364
14509SOL    HW250768  10.268   3.137   4.713  0.8076 -1.0182  0.3557
14510SOL     OW50769  12.417   0.153   1.930 -0.3311 -0.1393 -0.0379
14510SOL    HW150770  12.415   0.231   1.986 -2.2991 -0.3602  0.2489
14510SOL    HW250771  12.490   0.170   1.870 -0.9997  2.1555 -0.3070
14511SOL     OW50772  11.461   1.102  11.212  0.2248 -0.5317  0.2309
14511SOL    HW150773  11.504   1.040  11.153  1.5364  1.5481 -1.1742
14511SOL    HW250774  11.402   1.152  11.156  2.3263  2.2593  0.2277
14512SOL     OW50775   0.260   0.646   6.783  0.2861 -0.4490 -0.1436
14512SOL    HW150776   0.215   0.622   6.864  0.6733  0.1742  0.2619
14512SOL    HW250777   0.288   0.736   6.797 -1.9654  0.6321 -1.9990
14513SOL     OW50778  10.004   9.098   6.193  0.7173  0.1089  0.5246
14513SOL    HW150779   9.953   9.064   6.266 -0.1470 -2.7857 -1.2625
14513SOL    HW250780   9.963   9.059   6.115  2.0182  2.4588 -1.4896
14514SOL     OW50781   5.643   7.063   7.831  0.3590 -0.2997 -0.2742
14514SOL    HW150782   5.575   7.089   7.893  1.6187  2.3364  0.1490
14514SOL    HW250783   5.596   7.050   7.748 -0.8424  0.1039  0.3189
14515SOL     OW50784   2.730   2.269   1.904  0.2325 -0.8732  0.1548
14515SOL    HW150785   2.797   2.321   1.859 -0.7135 -0.6726 -1.0849
14515SOL    HW250786   2.690   2.330   1.966  0.7282 -0.8065  0.4135
14516SOL     OW50787   4.307  11.611   7.762  0.2211 -1.0523  0.1589
14516SOL    HW150788   4.361  11.675   7.715  0.5709 -1.0742  0.5212
14516SOL    HW250789   4.219  11.623   7.727  0.9022 -2.8477 -2.4435
14517SOL     OW50790   7.085   6.754   6.621  0.3161  0.0602  0.5262
14517SOL    HW150791   7.121   6.841   6.600  1.0403 -0.5370 -0.8326
14517SOL    HW250792   7.156   6.693   6.601 -0.6164 -0.9453  0.1828
14518SOL     OW50793   7.569   1.932   8.288 -0.1947  0.3062 -0.7596
14518SOL    HW150794   7.550   1.855   8.235 -0.8020  0.1817 -0.3681
14518SOL    HW250795   7.559   2.006   8.227  2.5332 -0.0009 -1.7202
14519SOL     OW50796   9.889  10.981  11.567  0.3333 -0.0825  0.3461
14519SOL    HW150797   9.839  11.062  11.558  0.8242  0.2957  0.9631
14519SOL    HW250798   9.835  10.915  11.525 -0.0058  0.5921 -0.3116
14520SOL     OW50799   7.141   1.643   1.824  0.2932  0.2454  0.0271
14520SOL    HW150800   7.181   1.699   1.758  1.9266 -0.2767  0.5336
14520SOL    HW250801   7.214   1.608   1.874 -0.8318 -0.3344  1.3501
14521SOL     OW50802  11.801   2.166   0.377 -0.0743  0.5373  0.3396
14521SOL    HW150803  11.789   2.098   0.442 -0.5676  1.2054  0.9603
14521SOL    HW250804  11.722   2.163   0.323  0.2365  0.1297 -0.0999
14522SOL     OW50805  10.263   2.698   5.424  0.0542 -0.9566 -0.0485
14522SOL    HW150806  10.216   2.764   5.474  0.4242 -2.4412  2.3847
14522SOL    HW250807  10.214   2.617   5.438  1.0910 -1.7466 -0.7927
14523SOL     OW50808   5.960   3.027   4.196 -0.4778 -0.3074 -0.4445
14523SOL    HW150809   5.989   3.030   4.105 -0.2694  1.2493 -0.3425
14523SOL    HW250810   5.865   3.040   4.191 -0.6328 -1.3823 -0.5027
14524SOL     OW50811   2.920   6.940   3.477  0.5408 -0.1337  0.6138
14524SOL    HW150812   2.930   6.987   3.559 -0.4672 -0.9840  1.2508
14524SOL    HW250813   2.829   6.957   3.451  0.9855  0.5308 -0.5975
14525SOL     OW50814   3.944   2.788   2.285  0.0808 -0.6418  0.0684
14525SOL    HW150815   3.983   2.870   2.315  0.6890 -1.0904  0.5291
14525SOL    HW250816   3.856   2.812   2.256  0.5122  0.3032 -0.5045
14526SOL     OW50817   0.977   2.156   6.836  0.2066  0.5204  0.0069
14526SOL    HW150818   0.897   2.184   6.880  0.4728 -0.7141  1.3490
14526SOL    HW250819   1.004   2.077   6.883  1.3872  0.0444 -1.3855
14527SOL     OW50820   3.604   9.667   0.068 -0.0077  0.1244  0.6078
14527SOL    HW150821   3.642   9.712   0.144 -0.4235  0.6467  0.5074
14527SOL    HW250822   3.612   9.730  -0.004 -0.7045  0.0906  0.4959
14528SOL     OW50823   2.450  10.449   5.240  0.7084  0.7479  0.0860
14528SOL    HW150824   2.447  10.447   5.335  2.0355  1.5931  0.1834
14528SOL    HW250825   2.543  10.437   5.219  0.5883  1.5663 -1.0450
14529SOL     OW50826   7.761  10.629   6.164 -0.3370 -0.3033  0.0024
14529SOL    HW150827   7.726  10.614   6.252 -1.6156 -1.1391 -0.6273
14529SOL    HW250828   7.847  10.586   6.166  0.1763  0.7076  1.1873
14530SOL     OW50829   2.260   4.428   0.277 -1.1902 -0.3394 -0.3903
14530SOL    HW150830   2.216   4.359   0.327 -1.3350  0.6462  0.9039
14530SOL    HW250831   2.253   4.400   0.186 -1.9464 -1.6295  0.0343
14531SOL     OW50832  12.499   7.064   9.066  0.3779 -0.3850  1.2829
14531SOL    HW150833  12.579   7.059   9.012  0.3308  1.5061  0.9668
14531SOL    HW250834  12.524   7.023   9.148  1.0906 -1.5136  0.5353
14532SOL     OW50835  12.155  11.309   9.376  0.0340 -0.0991  0.5769
14532SOL    HW150836  12.106  11.227   9.376  0.2669 -0.2418 -0.1478
14532SOL    HW250837  12.224  11.295   9.442  1.1576 -1.1679 -0.7681
14533SOL     OW50838   5.507  11.551   5.194 -0.1443  0.4011  0.2674
14533SOL    HW150839   5.431  11.495   5.202 -0.3904  0.7106  0.1180
14533SOL    HW250840   5.559  11.533   5.272 -1.1123  1.2888  1.1538
14534SOL     OW50841   1.527   6.994   3.116  0.1034 -0.4682  0.6968
14534SOL    HW150842   1.458   6.945   3.160  0.7656 -0.5332  1.6852
14534SOL    HW250843   1.586   6.927   3.081 -0.7036 -0.4357 -0.8064
14535SOL     OW50844   2.042   5.835  11.321 -0.4709 -0.2148 -1.1194
14535SOL    HW150845   2.066   5.773  11.390 -0.4037  0.0842 -0.8760
14535SOL    HW250846   2.093   5.807  11.245  0.1402  0.0109 -0.7926
14536SOL     OW50847  10.630   1.114  11.922  0.1631 -0.2329 -0.7808
14536SOL    HW150848  10.596   1.047  11.862  0.4532 -0.2372 -0.9387
14536SOL    HW250849  10.566   1.185  11.917 -0.5531 -0.7959 -0.0485
14537SOL     OW50850   0.175   4.216   3.866  0.1645  0.6407  0.5069
14537SOL    HW150851   0.257   4.261   3.846 -0.3395  1.9032  1.1476
14537SOL    HW250852   0.157   4.163   3.788  1.1557  1.0012  0.0177
14538SOL     OW50853   9.300   9.189   5.670 -0.3280 -0.0218  0.2445
14538SOL    HW150854   9.354   9.267   5.655 -0.9951  0.7291  1.5929
14538SOL    HW250855   9.211   9.222   5.675 -0.7269 -1.0132 -0.0894
14539SOL     OW50856   2.259   5.715  10.673  0.1319  0.0267 -0.4986
14539SOL    HW150857   2.286   5.708  10.581  1.5610  1.2441 -0.2042
14539SOL    HW250858   2.179   5.662  10.678 -0.5390  0.7183 -2.6610
14540SOL     OW50859   6.915   7.244   9.441  1.1049  0.4751 -0.4370
14540SOL    HW150860   6.927   7.294   9.521 -1.5926 -0.5629  0.7213
14540SOL    HW250861   6.934   7.153   9.466 -0.6350  0.0149 -0.6714
14541SOL     OW50862   0.900   6.959   3.322  0.3355  0.0089  0.1675
14541SOL    HW150863   0.899   7.015   3.400  1.1618 -0.4826  0.5411
14541SOL    HW250864   0.980   6.907   3.330 -0.1799 -0.9100 -0.4018
14542SOL     OW50865   0.692   8.441  12.346 -0.0743  0.4130  0.1605
14542SOL    HW150866   0.639   8.520  12.339  1.3969  1.4835  0.7546
14542SOL    HW250867   0.645   8.386  12.410 -1.3065  0.6075 -0.5533
14543SOL     OW50868  11.224   4.785   1.697  0.5656  0.4058 -0.5386
14543SOL    HW150869  11.156   4.828   1.646 -0.6465 -1.1154 -0.2782
14543SOL    HW250870  11.301   4.788   1.641 -0.1789  0.5936 -1.5904
14544SOL     OW50871   2.889   0.690   7.576 -0.2869  0.4578 -0.3526
14544SOL    HW150872   2.980   0.708   7.555 -0.3288 -0.5040 -1.4301
14544SOL    HW250873   2.889   0.669   7.669  0.6216  0.2467 -0.3970
14545SOL     OW50874   7.271   1.220   4.528  0.4050  0.5441  0.0934
14545SOL    HW150875   7.333   1.147   4.535 -0.1095  0.1511  0.6955
14545SOL    HW250876   7.322   1.291   4.489  1.1894  0.1742  0.4148
14546SOL     OW50877  11.893   4.699   3.004 -0.1472  0.0244 -0.4015
14546SOL    HW150878  11.967   4.668   2.952  1.1788 -1.8060  2.3028
14546SOL    HW250879  11.839   4.621   3.018 -1.4321  0.8659 -0.5246
14547SOL     OW50880   4.977   5.915   9.367 -0.4203 -0.1642 -0.1918
14547SOL    HW150881   4.932   6.000   9.361  1.1824  0.9763  2.0954
14547SOL    HW250882   4.927   5.866   9.431 -0.9320 -0.6851 -0.9797
14548SOL     OW50883  12.153   9.214  12.390 -0.5679  0.0043 -0.2968
14548SOL    HW150884  12.146   9.292  12.445  2.8798 -0.2976  0.7635
14548SOL    HW250885  12.110   9.239  12.307 -0.1744  2.7620  0.2481
14549SOL     OW50886   2.351   4.303  10.775  0.3021  0.5831 -0.5769
14549SOL    HW150887   2.385   4.383  10.816 -0.1326 -0.5852  2.3123
14549SOL    HW250888   2.257   4.304  10.795 -0.2357  0.5821 -2.8152
14550SOL     OW50889   2.826  10.144   4.420  0.0236  0.3464  0.2959
14550SOL    HW150890   2.811  10.053   4.443 -3.0078  0.0777 -2.1606
14550SOL    HW250891   2.775  10.194   4.484 -0.2213  0.1797  0.2312
14551SOL     OW50892  10.349   1.826   9.712  0.0464 -0.5192 -0.0340
14551SOL    HW150893  10.288   1.825   9.638 -0.0752  0.3536  0.0469
14551SOL    HW250894  10.403   1.904   9.697 -0.1587 -0.1830  0.9404
14552SOL     OW50895   8.495   5.004   4.514  0.1042 -0.2747  0.2124
14552SOL    HW150896   8.506   4.997   4.419 -0.1231 -0.9842  0.2358
14552SOL    HW250897   8.582   4.986   4.550  0.3676  0.7267  0.1189
14553SOL     OW50898   1.740   7.411   0.064  0.0574  0.1350  0.6419
14553SOL    HW150899   1.744   7.417   0.159  0.1710  1.6228  0.5614
14553SOL    HW250900   1.688   7.486   0.036  0.8714  0.3134 -0.5201
14554SOL     OW50901  10.312   2.314   0.072 -0.0068 -0.1371  0.7740
14554SOL    HW150902  10.393   2.266   0.054  0.4567  0.7175  0.4909
14554SOL    HW250903  10.302   2.372  -0.003 -0.0609  0.8352  1.5023
14555SOL     OW50904   4.802   6.830   4.820  0.1692  0.0584  0.1779
14555SOL    HW150905   4.737   6.762   4.800  1.3515 -0.8600 -0.6349
14555SOL    HW250906   4.827   6.813   4.911 -0.0945 -0.1129  0.2210
14556SOL     OW50907  12.317  10.202   0.349 -0.0788 -0.0907 -0.1637
14556SOL    HW150908  12.224  10.183   0.355 -0.5210  2.2511  1.4411
14556SOL    HW250909  12.326  10.256   0.270 -0.2113  0.3314  0.1092
14557SOL     OW50910   2.530   7.585   4.173 -0.6387 -0.1478 -0.1997
14557SOL    HW150911   2.474   7.540   4.110 -0.8408  1.7236 -1.4384
14557SOL    HW250912   2.611   7.602   4.125 -0.5329  0.7050  0.2612
14558SOL     OW50913  12.501   1.842   5.299  0.5897 -0.0434 -0.7099
14558SOL    HW150914  12.463   1.772   5.245  1.0313  0.6938 -2.0364
14558SOL    HW250915  12.526   1.799   5.380  3.7282 -2.2087 -2.5940
14559SOL     OW50916  12.577   2.676   6.529 -0.1255  0.1024  1.0442
14559SOL    HW150917  12.645   2.724   6.577  0.7324  0.3166 -0.3398
14559SOL    HW250918  12.515   2.744   6.501 -1.7874 -0.2325  3.5251
14560SOL     OW50919   9.575   4.579   1.669  0.8558  0.2847  0.0706
14560SOL    HW150920   9.549   4.594   1.760  0.1620  0.1621 -0.1019
14560SOL    HW250921   9.499   4.606   1.618  1.2271  0.3197 -0.4765
14561SOL     OW50922   2.562   9.712   9.354 -0.2479 -0.1861 -0.0265
14561SOL    HW150923   2.511   9.635   9.329 -1.2453  0.6166 -0.5744
14561SOL    HW250924   2.522   9.784   9.305 -0.7008  1.0466  1.9965
14562SOL     OW50925   1.007   7.185   9.730  0.1898 -0.4668  0.3914
14562SOL    HW150926   0.972   7.195   9.641  0.1269 -0.6269  0.3978
14562SOL    HW250927   1.102   7.177   9.718  0.1100 -1.3484  0.2678
14563SOL     OW50928   6.886   5.417   6.252  0.0290  0.4905  0.0761
14563SOL    HW150929   6.799   5.450   6.271  0.6914  2.5923 -0.2654
14563SOL    HW250930   6.935   5.494   6.222  2.1024 -0.5341  0.6070
14564SOL     OW50931   5.107   2.413   5.914 -0.3817 -0.2384 -0.0815
14564SOL    HW150932   5.188   2.404   5.964 -1.7728  1.6774  2.7543
14564SOL    HW250933   5.039   2.377   5.971 -1.9162  0.8005 -1.1796
14565SOL     OW50934   8.492   1.297   6.605 -0.2299  0.1603 -0.2141
14565SOL    HW150935   8.547   1.234   6.560 -0.5874 -0.8608  0.7390
14565SOL    HW250936   8.548   1.334   6.673  0.3168  1.7155 -1.4360
14566SOL     OW50937   6.906   9.627   5.348 -0.8550 -0.2331  0.3151
14566SOL    HW150938   6.815   9.599   5.356 -0.1021 -3.1024 -0.1630
14566SOL    HW250939   6.910   9.670   5.262 -2.5061  3.7270  1.9529
14567SOL     OW50940   3.853   5.759  10.551 -0.4106 -0.6587  0.0044
14567SOL    HW150941   3.854   5.722  10.639 -1.6848  0.1281  0.3776
14567SOL    HW250942   3.917   5.830  10.553 -0.0216 -1.0117  0.1185
14568SOL     OW50943   6.380   3.213   0.638 -0.1900  0.0360 -0.1512
14568SOL    HW150944   6.439   3.138   0.626  1.2770  0.6909  2.2302
14568SOL    HW250945   6.431   3.276   0.689 -2.3166  1.4818  0.3405
14569SOL     OW50946   6.946   7.875   0.787  0.1598 -0.7710  0.1594
14569SOL    HW150947   7.012   7.837   0.729  0.3285 -0.5667  0.2179
14569SOL    HW250948   6.872   7.894   0.730 -0.3883 -2.2623  0.3090
14570SOL     OW50949   4.901   9.349   0.004  0.3883 -0.3890  0.0583
14570SOL    HW150950   4.843   9.312  -0.063  0.6102  0.4201 -0.5896
14570SOL    HW250951   4.959   9.276   0.027 -0.1449 -0.8831 -0.1024
14571SOL     OW50952   0.585   9.651  10.376 -0.6769 -0.5824 -0.1869
14571SOL    HW150953   0.663   9.610  10.413 -0.9115 -0.3884  0.5302
14571SOL    HW250954   0.515   9.588  10.391 -1.3877  0.6948  2.4101
14572SOL     OW50955  11.085   9.772   9.570  0.0148 -0.4984  0.7004
14572SOL    HW150956  11.094   9.701   9.633 -2.6806 -0.4395  1.2949
14572SOL    HW250957  11.103   9.731   9.485 -0.2363 -1.5761  1.1532
14573SOL     OW50958   9.043   0.380   8.771 -0.0089 -0.0839 -0.1545
14573SOL    HW150959   9.034   0.310   8.835  0.0429 -0.1772 -0.2488
14573SOL    HW250960   9.078   0.454   8.821  1.5120 -0.6188 -0.3534
14574SOL     OW50961   3.783   7.617   3.546 -0.3076 -0.5536  0.0975
14574SOL    HW150962   3.739   7.700   3.563 -0.1642 -0.7946  1.8062
14574SOL    HW250963   3.859   7.640   3.493 -1.7657  0.0197 -1.8164
14575SOL     OW50964   7.096   7.503   7.765 -0.2441 -0.4176  0.8906
14575SOL    HW150965   7.019   7.459   7.730  1.0743 -1.6180 -0.6403
14575SOL    HW250966   7.063   7.589   7.794 -1.9644 -0.5132 -0.5857
14576SOL     OW50967   3.367   2.416   4.330 -0.1355  0.0946 -0.9737
14576SOL    HW150968   3.417   2.495   4.309  1.4333 -0.7395 -0.4943
14576SOL    HW250969   3.433   2.348   4.343 -1.2552 -0.5694  1.8739
14577SOL     OW50970   1.588   9.713   8.930  0.0314 -0.1999 -0.0560
14577SOL    HW150971   1.627   9.794   8.898  0.6883 -0.0026  1.1475
14577SOL    HW250972   1.532   9.683   8.859  0.5271  0.7977 -0.8975
14578SOL     OW50973   4.016  12.357   8.905  0.0037  0.1497  0.1070
14578SOL    HW150974   4.045  12.280   8.855  0.9703  0.8893 -0.5046
14578SOL    HW250975   3.925  12.370   8.877  0.6247  0.7560 -1.7652
14579SOL     OW50976   7.214   7.674   0.792 -0.4747 -0.0836  0.0028
14579SOL    HW150977   7.221   7.591   0.745  0.2816  0.3349 -0.6394
14579SOL    HW250978   7.226   7.649   0.884  2.2273 -0.4428 -0.3536
14580SOL     OW50979   0.380   1.597   0.676  0.4275 -0.2096 -0.4382
14580SOL    HW150980   0.460   1.591   0.624  0.5170  0.1481 -0.3452
14580SOL    HW250981   0.331   1.670   0.637  1.0722  0.9061  0.7479
14581SOL     OW50982  11.283   3.052   7.766 -0.1453  0.3496  0.4659
14581SOL    HW150983  11.376   3.063   7.784  0.1832 -2.6006  0.9411
14581SOL    HW250984  11.246   3.019   7.848 -1.4283  0.5292 -0.0154
14582SOL     OW50985   1.778  11.995   2.054  0.2347 -0.0460  0.2566
14582SOL    HW150986   1.841  11.924   2.068 -0.7559 -1.3693 -1.4610
14582SOL    HW250987   1.709  11.979   2.118  0.3325 -0.2692  0.3078
14583SOL     OW50988  10.281   6.097   0.368 -0.0418 -0.8438  0.6751
14583SOL    HW150989  10.343   6.141   0.425 -0.6425 -1.3627  1.7604
14583SOL    HW250990  10.280   6.150   0.288  0.6775  0.0009  1.2064
14584SOL     OW50991   7.881   9.249   1.263 -0.0623  0.0940  0.0678
14584SOL    HW150992   7.842   9.337   1.263  1.8883  1.0086 -0.4857
14584SOL    HW250993   7.965   9.260   1.307  0.8772 -1.1793 -1.3040
14585SOL     OW50994   1.875   8.594   0.874 -0.0726 -0.2092 -0.5148
14585SOL    HW150995   1.827   8.667   0.835  0.1260 -0.1555 -0.6611
14585SOL    HW250996   1.887   8.620   0.966 -0.6817 -0.4110 -0.3731
14586SOL     OW50997   9.461   4.633   9.659  0.3394  0.3175 -0.2729
14586SOL    HW150998   9.412   4.696   9.605 -0.4305  1.1850  1.3690
14586SOL    HW250999   9.423   4.642   9.746  2.5557  0.0789  0.7866
14587SOL     OW51000  10.574   6.666   9.941  1.2571  0.0048 -0.3946
14587SOL    HW151001  10.668   6.648   9.938  1.4700  0.8911  0.5389
14587SOL    HW251002  10.544   6.626  10.022  1.0970  0.8958 -0.0053
14588SOL     OW51003  10.790   6.793   4.407  0.1077 -0.2007 -0.1879
14588SOL    HW151004  10.826   6.742   4.481  0.0393 -0.0826 -0.0727
14588SOL    HW251005  10.704   6.753   4.391  0.0199 -0.0725 -0.0446
14589SOL     OW51006   8.080  12.320  10.368 -0.2679  0.2097  0.1450
14589SOL    HW151007   8.054  12.378  10.297  0.5231  0.2919 -0.0859
14589SOL    HW251008   7.999  12.278  10.396 -0.6521  0.5051 -0.5121
14590SOL     OW51009   2.992   7.150   7.856  0.2379  0.2642 -0.1049
14590SOL    HW151010   3.070   7.133   7.804  0.9835  0.4825  0.9190
14590SOL    HW251011   2.984   7.245   7.859 -0.0102  0.2454 -0.1245
14591SOL     OW51012   3.174   9.930  10.476  0.2796 -0.2432 -0.0996
14591SOL    HW151013   3.180   9.855  10.418 -2.0416 -0.1283 -0.5798
14591SOL    HW251014   3.191   9.895  10.563 -0.2267 -1.2089 -0.3811
14592SOL     OW51015   7.923   9.039   9.234  0.1474  0.4442  0.1933
14592SOL    HW151016   8.007   9.028   9.277 -0.1639 -0.0153  0.6964
14592SOL    HW251017   7.931   9.121   9.185  0.9401  0.3089  0.0941
14593SOL     OW51018   1.388   0.748   4.767  0.3488  0.0541 -0.3383
14593SOL    HW151019   1.331   0.683   4.725  0.3667  1.3315 -2.5338
14593SOL    HW251020   1.382   0.729   4.860  0.5825 -3.2451 -0.8720
14594SOL     OW51021   0.019   5.796   2.802  0.9685 -0.1344 -0.5572
14594SOL    HW151022  -0.005   5.716   2.849 -0.1349 -0.2370 -1.2767
14594SOL    HW251023   0.115   5.790   2.793  1.4475  0.5796  2.8846
14595SOL     OW51024   0.491  11.482   6.401 -0.0043 -0.1453 -0.2063
14595SOL    HW151025   0.541  11.510   6.325 -0.1385  0.2137 -0.1642
14595SOL    HW251026   0.444  11.404   6.372  0.0891 -0.1157 -0.4335
14596SOL     OW51027  11.813   7.304   7.385 -0.0777  0.2021  0.0095
14596SOL    HW151028  11.818   7.390   7.426  0.1107  0.7969 -1.2209
14596SOL    HW251029  11.755   7.254   7.443 -1.2293  1.5401  0.0866
14597SOL     OW51030   7.683   6.454   5.895  1.0213 -0.2169 -0.8780
14597SOL    HW151031   7.760   6.509   5.908  0.1481  1.5039 -2.4059
14597SOL    HW251032   7.612   6.517   5.878 -0.5131 -1.7678 -0.4940
14598SOL     OW51033   9.391  12.389   0.042 -0.4414 -0.6515 -0.0733
14598SOL    HW151034   9.402  12.428   0.128 -1.0695 -1.1361  0.2342
14598SOL    HW251035   9.441  12.445  -0.017 -0.9130  0.3191  0.4357
14599SOL     OW51036  11.842  11.533   8.809 -0.3431  0.1152 -0.1884
14599SOL    HW151037  11.922  11.574   8.842 -0.9137 -0.3369  1.8671
14599SOL    HW251038  11.771  11.580   8.853 -1.2315  0.2829 -1.7235
14600SOL     OW51039   8.247   7.142   1.103  0.1145  0.4477  0.6978
14600SOL    HW151040   8.286   7.183   1.026 -0.5772 -0.8713 -0.3956
14600SOL    HW251041   8.302   7.066   1.120 -2.3367 -2.0237 -1.4716
14601SOL     OW51042  12.486   5.801   0.019  0.3094 -0.4658 -0.2076
14601SOL    HW151043  12.523   5.840  -0.060  0.2029 -0.4189 -0.2337
14601SOL    HW251044  12.405   5.851   0.035  2.1907  2.1839  2.0988
14602SOL     OW51045   9.064  11.852   4.387 -0.2660  0.6589 -0.4889
14602SOL    HW151046   9.024  11.882   4.468 -2.8210 -0.7269 -1.1154
14602SOL    HW251047   9.016  11.898   4.318  3.4035  3.6731 -1.3751
14603SOL     OW51048   6.352  10.800   8.862 -0.2036 -0.7243 -0.6495
14603SOL    HW151049   6.315  10.729   8.916 -1.0337  0.7878  0.8914
14603SOL    HW251050   6.366  10.761   8.776 -2.2622 -2.2985 -0.3338
14604SOL     OW51051  11.306   9.345   6.061 -0.0572 -0.2254 -0.3663
14604SOL    HW151052  11.374   9.411   6.076  0.1499 -0.2555 -1.1046
14604SOL    HW251053  11.333   9.270   6.112  0.5264 -0.2700 -0.7239
14605SOL     OW51054   3.139   9.709   3.696  0.1579  0.2896 -0.0961
14605SOL    HW151055   3.082   9.646   3.742  1.2800  0.0357  0.9850
14605SOL    HW251056   3.210   9.656   3.662 -0.9520  0.3663 -2.7588
14606SOL     OW51057  11.639   1.937   3.682 -0.2699 -0.3346 -0.0433
14606SOL    HW151058  11.720   1.978   3.651 -0.7356 -0.5376 -1.6020
14606SOL    HW251059  11.647   1.938   3.777  0.8426  1.0985 -0.1193
14607SOL     OW51060   9.232  12.703   1.622  0.0005  0.3719  0.1723
14607SOL    HW151061   9.137  12.715   1.617 -0.0132  0.2087 -0.0014
14607SOL    HW251062   9.251  12.696   1.715 -0.3354 -0.9446  0.1703
14608SOL     OW51063   4.037   0.424   8.408  0.1998  0.6518  0.0103
14608SOL    HW151064   4.040   0.399   8.316  2.6867 -2.8061  0.8182
14608SOL    HW251065   4.043   0.341   8.456  0.6183  2.3869  3.2620
14609SOL     OW51066   1.402  10.053  11.794  0.0383 -0.8148  0.0372
14609SOL    HW151067   1.351  10.089  11.866  0.4429  0.8163 -0.4603
14609SOL    HW251068   1.347   9.984  11.758 -1.4694  0.3522  0.0149
14610SOL     OW51069   3.515   3.177   6.471 -0.0286  0.1110  0.1370
14610SOL    HW151070   3.456   3.116   6.425  1.8331 -0.8316 -1.1488
14610SOL    HW251071   3.468   3.260   6.471 -1.2171 -0.5095 -1.1533
14611SOL     OW51072  10.153   2.448  10.028  0.0640 -0.9064  0.6074
14611SOL    HW151073  10.248   2.455  10.018  0.0660 -1.4257  0.2012
14611SOL    HW251074  10.120   2.453   9.938 -0.2338 -1.5226  0.6748
14612SOL     OW51075   7.313  11.875   9.986  0.3804  0.3764  0.3780
14612SOL    HW151076   7.267  11.793   9.970 -0.0177  0.1034  2.5740
14612SOL    HW251077   7.244  11.939  10.002  0.7212  0.5224  1.2913
14613SOL     OW51078   1.831   3.813  10.393  0.7285  0.4324 -0.0490
14613SOL    HW151079   1.856   3.841  10.481 -2.0455 -0.6637  1.2182
14613SOL    HW251080   1.802   3.722  10.405 -2.0218  1.0219 -1.5508
14614SOL     OW51081   0.077   7.366   1.157 -0.1364  0.1343 -0.3836
14614SOL    HW151082   0.106   7.341   1.070  1.7810  0.5401  0.0926
14614SOL    HW251083   0.083   7.461   1.159  2.0681  0.0456  0.8413
14615SOL     OW51084  11.420   2.565   2.345 -0.0334  0.0032 -0.7001
14615SOL    HW151085  11.436   2.471   2.344 -0.2134 -0.0481 -2.6061
14615SOL    HW251086  11.425   2.591   2.253 -0.4072  1.7883 -0.2548
14616SOL     OW51087  12.247   2.346   1.448  0.5189 -0.2527 -0.3350
14616SOL    HW151088  12.256   2.397   1.368  1.0241  0.3508  0.1003
14616SOL    HW251089  12.318   2.375   1.504 -0.3937  0.0382  0.7195
14617SOL     OW51090   2.170  12.030   2.888 -0.6235  0.3294  0.8996
14617SOL    HW151091   2.136  12.104   2.940 -0.2001 -0.1311  1.8565
14617SOL    HW251092   2.203  12.071   2.808 -0.4579  1.1774  1.3823
14618SOL     OW51093   9.402   7.769  11.353 -0.0850  0.2542 -0.6495
14618SOL    HW151094   9.312   7.782  11.383  0.2644 -0.0383  0.5668
14618SOL    HW251095   9.397   7.781  11.258 -1.2122  1.2806 -0.4874
14619SOL     OW51096   4.577   6.847   5.559 -0.2348 -0.0020  0.4781
14619SOL    HW151097   4.659   6.862   5.511 -1.5550  1.4436 -1.4907
14619SOL    HW251098   4.526   6.790   5.502 -1.0878  0.1323  1.0912
14620SOL     OW51099   4.924   7.908   1.956  0.3844 -0.1229  0.1976
14620SOL    HW151100   4.937   7.992   1.913 -1.7642  0.5727  0.7694
14620SOL    HW251101   5.003   7.857   1.935  2.4806  2.5321  1.1433
14621SOL     OW51102   9.344   7.611  12.249  0.1741 -1.0433  0.3041
14621SOL    HW151103   9.277   7.607  12.180 -0.6739 -0.2217  1.0448
14621SOL    HW251104   9.317   7.546  12.313 -0.0761 -0.5150  0.7386
14622SOL     OW51105  10.667   8.199   0.293  0.1297  0.3770  0.4289
14622SOL    HW151106  10.715   8.122   0.322  1.6432  1.1644  0.1131
14622SOL    HW251107  10.652   8.250   0.372 -2.0304 -0.7838  0.8615
14623SOL     OW51108   9.051  11.959  12.195  0.4605  0.2774 -0.2352
14623SOL    HW151109   9.120  11.914  12.146  0.6756  2.1296 -1.7153
14623SOL    HW251110   9.017  11.891  12.255  2.0932 -1.2655 -0.9470
14624SOL     OW51111   2.089   8.393   3.848  0.1098 -0.1167 -0.0842
14624SOL    HW151112   2.124   8.482   3.852  1.3765 -0.5123 -1.2901
14624SOL    HW251113   2.055   8.384   3.759  0.5152 -0.9944 -0.1713
14625SOL     OW51114   1.303   2.358   9.235  0.3654  0.2725 -0.4199
14625SOL    HW151115   1.330   2.448   9.253  1.0150  0.0397 -0.2299
14625SOL    HW251116   1.266   2.361   9.147 -0.3044  0.8713 -0.1265
14626SOL     OW51117   3.241   1.014   2.345  0.3003  0.4507  0.2697
14626SOL    HW151118   3.301   1.071   2.394  0.3595 -0.2494  1.0348
14626SOL    HW251119   3.218   0.945   2.407 -0.0897 -0.1381 -0.5149
14627SOL     OW51120   1.436   6.400   3.217 -0.4146  0.4388  0.4102
14627SOL    HW151121   1.451   6.324   3.274  0.9054  0.7138  0.4640
14627SOL    HW251122   1.485   6.381   3.137 -1.0798  0.6957 -0.0668
14628SOL     OW51123   2.420   4.053   2.157  0.5459  0.5652 -0.4138
14628SOL    HW151124   2.510   4.038   2.186 -0.4191  0.5448  3.0633
14628SOL    HW251125   2.369   3.986   2.202 -1.5681  2.6657  0.5779
14629SOL     OW51126   0.432   6.231   5.040  0.5434  0.4944 -0.3873
14629SOL    HW151127   0.406   6.139   5.032  0.9115  0.4622 -1.5335
14629SOL    HW251128   0.371   6.278   4.983 -1.4516  1.3874  2.3018
14630SOL     OW51129   7.885   2.885  11.079  0.4350  0.1029 -0.0035
14630SOL    HW151130   7.953   2.951  11.070  0.5324 -0.1088 -1.0076
14630SOL    HW251131   7.807   2.934  11.103  0.8480  0.3902  0.7896
14631SOL     OW51132   3.334  10.293   3.880  0.4462 -0.5536 -0.5740
14631SOL    HW151133   3.296  10.205   3.882  1.3876 -0.9613  1.1160
14631SOL    HW251134   3.402  10.292   3.947  1.0802  1.2150 -1.1163
14632SOL     OW51135   6.436   3.027  11.581 -0.1530 -0.9538  0.5405
14632SOL    HW151136   6.396   3.059  11.500  1.2192 -1.6152 -0.4299
14632SOL    HW251137   6.389   3.074  11.651 -0.3129  0.8134 -0.6801
14633SOL     OW51138   3.052   9.405   4.616  0.0119 -0.2548 -0.0241
14633SOL    HW151139   2.982   9.344   4.641  0.4749 -0.7242  0.1398
14633SOL    HW251140   3.044   9.413   4.521  0.3127 -1.0301 -0.1236
14634SOL     OW51141  10.445   7.721   8.272  0.5743  0.1555  0.1498
14634SOL    HW151142  10.381   7.715   8.343  1.0007  0.2414  0.5436
14634SOL    HW251143  10.528   7.741   8.315  1.5888 -3.1739  0.0530
14635SOL     OW51144   3.769   1.109   3.542 -0.1913  0.2418 -0.1902
14635SOL    HW151145   3.682   1.142   3.564 -0.5538 -0.1267 -1.0320
14635SOL    HW251146   3.823   1.188   3.536 -1.0324  0.7186 -2.0947
14636SOL     OW51147   2.004   6.972   8.089 -0.1650  0.4962 -0.2129
14636SOL    HW151148   2.004   6.898   8.028 -1.2914  1.0177 -0.8809
14636SOL    HW251149   2.062   7.037   8.048  1.6584 -0.3599  0.8725
14637SOL     OW51150   9.892   2.986   5.990  0.4964  0.5225  0.3967
14637SOL    HW151151   9.834   2.968   5.916  1.1482  3.7831 -1.0663
14637SOL    HW251152   9.834   3.023   6.057  0.4545  0.9416  0.1260
14638SOL     OW51153   5.632   5.462   0.446 -0.2051 -0.1892  1.1850
14638SOL    HW151154   5.666   5.375   0.425 -0.1509  0.2188 -0.5640
14638SOL    HW251155   5.552   5.470   0.393 -0.7936  0.4244  2.1371
14639SOL     OW51156   9.527   8.944  11.490 -0.4404 -0.2265 -0.8511
14639SOL    HW151157   9.562   8.990  11.566 -0.1721 -0.0705 -1.0680
14639SOL    HW251158   9.596   8.950  11.424 -1.4517  1.3902 -1.8064
14640SOL     OW51159   5.143  12.535   3.097 -0.2102 -0.0243 -0.0191
14640SOL    HW151160   5.195  12.512   3.021  0.9027 -1.6970  1.1712
14640SOL    HW251161   5.079  12.464   3.106 -0.7007  0.4453  0.2952
14641SOL     OW51162   3.861   1.713   0.550  0.4740 -0.5860  0.3675
14641SOL    HW151163   3.833   1.781   0.488 -0.9616 -0.6629  0.9094
14641SOL    HW251164   3.905   1.762   0.620  1.4319 -0.4333 -0.3205
14642SOL     OW51165   0.375   3.591   4.053 -0.3375 -0.0492 -0.2693
14642SOL    HW151166   0.305   3.566   3.992 -2.0437 -0.5936  1.7687
14642SOL    HW251167   0.354   3.681   4.079 -1.6522 -0.8852  1.9374
14643SOL     OW51168   1.801   4.943   5.183 -0.1209  0.3493  0.2299
14643SOL    HW151169   1.730   4.884   5.157 -0.3937  0.9136 -0.3252
14643SOL    HW251170   1.870   4.926   5.120  0.1315  0.0165  0.5891
14644SOL     OW51171   6.441  10.616   1.470 -0.3137  0.0535  0.0130
14644SOL    HW151172   6.454  10.692   1.528  1.7882  0.6948 -1.1756
14644SOL    HW251173   6.446  10.540   1.527  0.9024  0.7092  0.8190
14645SOL     OW51174  11.347   8.617   6.897 -0.1654 -0.0132 -0.5996
14645SOL    HW151175  11.312   8.686   6.842  1.5087 -0.0301 -1.7551
14645SOL    HW251176  11.424   8.584   6.850  0.5978 -0.8973  1.1387
14646SOL     OW51177   4.795   7.263   4.195  0.0374  0.2043 -0.0871
14646SOL    HW151178   4.746   7.217   4.264 -0.4726  0.0760 -0.5256
14646SOL    HW251179   4.730   7.320   4.154 -0.1992 -1.2198 -1.8064
14647SOL     OW51180  11.535   2.222   5.804  0.2224 -0.5042  0.1458
14647SOL    HW151181  11.503   2.264   5.884  1.3698  0.2866  0.2046
14647SOL    HW251182  11.574   2.293   5.754 -0.4952 -0.9930 -1.1405
14648SOL     OW51183   3.439  11.056   4.373  0.4536  0.2174  0.1424
14648SOL    HW151184   3.408  11.113   4.443  1.7794 -1.2378  2.0361
14648SOL    HW251185   3.360  11.014   4.339 -0.2588  1.2952  0.3975
14649SOL     OW51186   7.840  10.107  10.747 -0.0730  0.9556  0.3794
14649SOL    HW151187   7.913  10.046  10.761  0.5864  1.3263 -1.2362
14649SOL    HW251188   7.795  10.110  10.831  0.0511 -1.5132  0.5939
14650SOL     OW51189  10.134   4.812   4.667 -0.1090  0.1309 -0.1538
14650SOL    HW151190  10.189   4.828   4.744  1.3972 -0.6210 -1.0133
14650SOL    HW251191  10.128   4.897   4.624  1.1919  0.0530 -0.5312
14651SOL     OW51192  10.028   4.157   6.611 -0.1192 -0.0731  0.2381
14651SOL    HW151193   9.994   4.189   6.694 -0.3203  2.9234 -0.8539
14651SOL    HW251194  10.122   4.146   6.627 -0.3787 -1.0562  1.2299
14652SOL     OW51195   7.802   4.992  11.852 -0.4559  0.5422  0.1953
14652SOL    HW151196   7.739   4.940  11.902  1.0779 -2.1515 -0.4744
14652SOL    HW251197   7.784   4.971  11.761  1.4557 -0.4532 -0.0036
14653SOL     OW51198  10.505   7.322  11.616 -0.4543  0.3450 -0.2660
14653SOL    HW151199  10.590   7.340  11.576  0.1654 -0.5943  0.5777
14653SOL    HW251200  10.484   7.233  11.587 -0.9559  0.4147 -0.1243
14654SOL     OW51201   3.632  11.996  10.656  0.0176  0.0594  0.1011
14654SOL    HW151202   3.667  11.946  10.582 -0.4562 -0.6525  0.3524
14654SOL    HW251203   3.709  12.015  10.710  0.1010 -1.0792  0.4021
14655SOL     OW51204   0.027   7.264  10.265  0.4101  0.2315 -0.3444
14655SOL    HW151205   0.046   7.266  10.359  0.8607 -0.5569 -0.4147
14655SOL    HW251206   0.109   7.237  10.224 -0.5208 -2.3506 -0.7235
14656SOL     OW51207   4.134   0.679   8.385  0.1462 -0.2699 -0.9451
14656SOL    HW151208   4.101   0.598   8.424 -1.4583 -0.1158 -1.9408
14656SOL    HW251209   4.214   0.652   8.339  0.7732 -0.8782  0.4163
14657SOL     OW51210   7.182   9.648  10.412  0.4907 -0.6440 -0.6143
14657SOL    HW151211   7.179   9.683  10.322 -2.7955  0.3664 -0.2460
14657SOL    HW251212   7.240   9.708  10.459 -0.1301  0.6387 -1.4205
14658SOL     OW51213   8.079  12.409  11.677  0.1061  0.0700  0.0878
14658SOL    HW151214   7.990  12.406  11.642  0.6114 -0.5498 -1.1896
14658SOL    HW251215   8.067  12.423  11.771 -1.3338  0.0492 -0.0716
14659SOL     OW51216   8.101   9.792   2.409  0.1602 -0.1159  0.1276
14659SOL    HW151217   8.145   9.708   2.413 -0.0348 -0.1957  0.9419
14659SOL    HW251218   8.020   9.775   2.361  0.2326 -0.3456  0.0890
14660SOL     OW51219   1.608   5.770   2.871 -0.0287  0.0623  0.7727
14660SOL    HW151220   1.654   5.718   2.937 -1.4137 -0.7245  1.1651
14660SOL    HW251221   1.559   5.706   2.820 -3.7438  0.9839  2.7939
14661SOL     OW51222   0.038   5.136   9.612  0.0696  0.1640 -0.0232
14661SOL    HW151223   0.115   5.160   9.664 -0.3533  0.8256  0.3207
14661SOL    HW251224   0.050   5.043   9.593  2.7825  0.9370 -3.0722
14662SOL     OW51225  10.027   0.650   2.711 -0.2946 -0.0177  0.2786
14662SOL    HW151226  10.037   0.745   2.702  0.9016 -0.2062 -0.6648
14662SOL    HW251227  10.116   0.616   2.712 -0.7075 -1.1309  0.7301
14663SOL     OW51228   3.281   6.313  11.266 -0.2655 -0.2996  0.1324
14663SOL    HW151229   3.261   6.273  11.351  0.7256  0.2348  0.6331
14663SOL    HW251230   3.313   6.401  11.288  1.6840 -0.7692 -0.6833
14664SOL     OW51231   3.208   7.459  11.692 -0.1213 -0.1180  0.8324
14664SOL    HW151232   3.117   7.484  11.679  0.0426 -0.5154 -1.3332
14664SOL    HW251233   3.259   7.533  11.660  0.3375 -0.2576  1.2235
14665SOL     OW51234   1.362   4.089  10.081  0.1009  0.1732  0.4033
14665SOL    HW151235   1.295   4.127  10.138 -0.2190  3.0029 -1.6236
14665SOL    HW251236   1.443   4.095  10.131 -0.3317  1.6131  0.9850
14666SOL     OW51237   5.532  11.319  12.615  0.1005  0.3164 -0.2356
14666SOL    HW151238   5.626  11.328  12.629 -0.2533  1.0101  2.2366
14666SOL    HW251239   5.523  11.293  12.524  2.7382 -0.7627 -0.2655
14667SOL     OW51240   3.495   9.008   6.611  0.6115 -0.2937  0.3666
14667SOL    HW151241   3.403   8.992   6.632  0.9076 -0.7575  1.3943
14667SOL    HW251242   3.494   9.049   6.525 -0.5044 -0.9893  0.0409
14668SOL     OW51243   6.603  12.641   2.663 -0.7339  0.0244  0.1502
14668SOL    HW151244   6.532  12.608   2.719 -0.8589  0.6929  0.3984
14668SOL    HW251245   6.677  12.584   2.682 -1.0973 -0.4354  0.1856
14669SOL     OW51246   0.916   6.971   5.139  0.2404 -0.1210 -0.5377
14669SOL    HW151247   0.877   6.889   5.167 -1.3319  0.9450  0.5802
14669SOL    HW251248   0.925   6.963   5.044 -2.0666 -0.7194 -0.7555
14670SOL     OW51249   1.526  11.479   4.961 -0.1819  0.0005 -0.0374
14670SOL    HW151250   1.518  11.565   5.001 -1.8778  0.0487 -0.4235
14670SOL    HW251251   1.444  11.434   4.982  0.7273 -1.5962  0.2953
14671SOL     OW51252   1.469   8.484   1.104  0.8510  0.0497  0.0774
14671SOL    HW151253   1.374   8.469   1.109  0.4403  1.5108 -2.0928
14671SOL    HW251254   1.498   8.481   1.195 -1.0940 -1.4598  0.7063
14672SOL     OW51255  12.294   2.536   6.258  0.2575 -0.2072 -0.1161
14672SOL    HW151256  12.332   2.550   6.172  1.8577 -0.0822  0.5736
14672SOL    HW251257  12.346   2.465   6.296 -1.1243 -1.0051  0.3430
14673SOL     OW51258   9.606  10.665   4.518  0.3733 -0.3569 -0.2800
14673SOL    HW151259   9.653  10.696   4.440  0.5142 -0.5558 -0.2742
14673SOL    HW251260   9.632  10.726   4.587  0.6645 -0.4943 -0.2665
14674SOL     OW51261   5.962   9.533   5.336  0.1276 -0.0405 -0.2778
14674SOL    HW151262   5.939   9.492   5.419  0.1229  0.7802  0.1332
14674SOL    HW251263   6.009   9.465   5.288  0.0343 -0.5539  0.3483
14675SOL     OW51264   2.327   5.708   2.582 -0.3433 -0.6269  0.2985
14675SOL    HW151265   2.374   5.680   2.503 -0.4049 -1.8844  0.6929
14675SOL    HW251266   2.241   5.667   2.574 -1.3912  1.5046 -0.3298
14676SOL     OW51267  11.885  10.897   7.098 -0.5976 -0.2637 -0.1438
14676SOL    HW151268  11.968  10.932   7.130 -0.8431  1.6292 -1.4271
14676SOL    HW251269  11.819  10.933   7.157 -0.5622 -1.8248  0.9191
14677SOL     OW51270   1.301  11.054   3.110  0.0153  0.0913 -0.5699
14677SOL    HW151271   1.279  10.961   3.102 -0.2282  0.0264  0.7213
14677SOL    HW251272   1.324  11.066   3.202  1.6558  0.9710 -1.0382
14678SOL     OW51273   1.543   8.607   5.080  0.1762 -0.4252  0.2045
14678SOL    HW151274   1.505   8.662   5.149  0.9194  0.8271 -0.3477
14678SOL    HW251275   1.583   8.534   5.127 -0.7116 -0.4399  0.9745
14679SOL     OW51276   8.954   2.683   4.060  0.3633 -0.1076  0.0879
14679SOL    HW151277   8.966   2.778   4.054  0.8535 -0.1360  0.5643
14679SOL    HW251278   8.916   2.670   4.147  1.2114 -0.4330  0.4122
14680SOL     OW51279   8.329   2.805  11.958  0.3501  0.0615  0.4906
14680SOL    HW151280   8.290   2.719  11.939 -1.0788  0.6728  0.5174
14680SOL    HW251281   8.254   2.862  11.976  1.3153  1.1275  1.2950
14681SOL     OW51282   2.357   5.648   3.065 -0.4315 -0.4380  0.3380
14681SOL    HW151283   2.371   5.714   2.997  1.2435 -1.3853 -0.2977
14681SOL    HW251284   2.321   5.697   3.139 -0.5901  0.9276 -0.6003
14682SOL     OW51285   8.087   8.331   2.901  0.2185  0.1442 -0.4818
14682SOL    HW151286   8.067   8.425   2.897 -1.7053 -0.2502 -0.7613
14682SOL    HW251287   8.109   8.308   2.811  1.2543  0.4175 -0.3135
14683SOL     OW51288   3.711  10.054   4.869  0.0785  0.3760  0.4295
14683SOL    HW151289   3.800  10.034   4.842  0.5655  0.9792  1.5460
14683SOL    HW251290   3.710  10.038   4.963 -1.6130 -1.8187  0.1337
14684SOL     OW51291   4.028  11.978   2.033 -0.3180 -0.0203 -0.1403
14684SOL    HW151292   3.978  11.910   2.078 -0.6156  0.8168  0.8126
14684SOL    HW251293   3.969  12.010   1.965  0.3938 -1.7948 -1.6722
14685SOL     OW51294   3.175   0.391   2.293 -0.2065  0.0854  0.2066
14685SOL    HW151295   3.085   0.423   2.288 -0.0407  0.5648  0.2952
14685SOL    HW251296   3.195   0.360   2.205  0.0301  1.2985 -0.1851
14686SOL     OW51297   8.177   2.274   1.656 -0.0183  0.3047 -0.1307
14686SOL    HW151298   8.122   2.212   1.608  2.5741 -1.8609 -0.5155
14686SOL    HW251299   8.174   2.354   1.604 -1.7397 -0.1563 -0.8018
14687SOL     OW51300   5.965   6.969   1.671  0.0287  0.0666 -0.3554
14687SOL    HW151301   5.911   6.895   1.700  1.1861 -0.7352 -0.1486
14687SOL    HW251302   5.906   7.023   1.619 -0.6323 -1.4896 -1.2966
14688SOL     OW51303   3.688   9.324   2.325 -0.5515  0.1369  0.9909
14688SOL    HW151304   3.687   9.416   2.350 -1.8025  0.4891 -0.2465
14688SOL    HW251305   3.606   9.310   2.279  1.8370 -0.1557 -3.8141
14689SOL     OW51306   2.248   4.846   1.123 -0.5631 -0.1228  0.0889
14689SOL    HW151307   2.319   4.843   1.058  0.1269 -1.0885  0.8535
14689SOL    HW251308   2.211   4.758   1.121 -0.8698 -0.0055  0.6325
14690SOL     OW51309  10.069   7.548   9.780  0.0379 -0.2324 -0.2125
14690SOL    HW151310  10.021   7.484   9.833  0.0352 -1.9283 -2.1601
14690SOL    HW251311  10.161   7.532   9.801  0.0990 -1.5354 -1.2957
14691SOL     OW51312  10.124   6.520   6.280  0.2884 -0.4596  0.3021
14691SOL    HW151313  10.175   6.452   6.235  2.2979 -0.4436  2.4116
14691SOL    HW251314  10.166   6.602   6.253 -0.8292 -0.1506 -0.5962
14692SOL     OW51315   9.076  11.516  12.209  0.3335 -0.1532  0.4149
14692SOL    HW151316   9.061  11.591  12.267  0.0992  0.6536 -0.6595
14692SOL    HW251317   9.046  11.546  12.123  3.2283 -0.3198 -0.7706
14693SOL     OW51318   4.305   3.756   6.819  0.1174  0.1105 -0.0205
14693SOL    HW151319   4.400   3.768   6.807  0.2799  1.9704  2.3831
14693SOL    HW251320   4.267   3.784   6.736  1.6678 -1.9134 -1.5270
14694SOL     OW51321  12.299   4.142  12.287 -0.0869  0.0582 -0.2163
14694SOL    HW151322  12.356   4.076  12.247  0.2464 -0.4938  1.1327
14694SOL    HW251323  12.358   4.209  12.320 -0.3639  0.5286 -0.6526
14695SOL     OW51324   3.714   2.403  11.349  0.1200  0.4946  0.7538
14695SOL    HW151325   3.772   2.478  11.338  2.7851 -1.1217  2.6487
14695SOL    HW251326   3.769   2.327  11.333 -2.6681 -1.2175 -1.9548
14696SOL     OW51327   1.588   2.251  10.782  0.2375  0.2161 -0.5793
14696SOL    HW151328   1.579   2.305  10.704 -0.1924  0.8465 -0.0986
14696SOL    HW251329   1.519   2.185  10.775 -1.1716  1.5369  0.2708
14697SOL     OW51330   1.078   8.791   2.314 -0.0463  0.2493 -0.1828
14697SOL    HW151331   1.156   8.763   2.266  0.7926  2.0445  0.0490
14697SOL    HW251332   1.112   8.850   2.382 -1.4769 -0.0636  0.8503
14698SOL     OW51333   9.833   7.719  10.951  0.5094 -0.2259  0.0602
14698SOL    HW151334   9.779   7.647  10.918  0.9705 -0.7894  0.5022
14698SOL    HW251335   9.920   7.702  10.915  0.7146 -0.1149  0.4921
14699SOL     OW51336   3.966   0.913   7.006  0.3994 -0.0652  0.8696
14699SOL    HW151337   3.922   0.836   7.040  2.2562 -1.6808 -0.1668
14699SOL    HW251338   3.909   0.945   6.936 -0.6164 -0.1895  1.6216
14700SOL     OW51339   6.276   0.008   7.826 -0.6122 -0.3202 -0.3768
14700SOL    HW151340   6.340  -0.032   7.767  0.4017  1.3812 -0.5012
14700SOL    HW251341   6.231   0.073   7.772 -0.9368 -0.0104  0.2529
14701SOL     OW51342  11.670   4.995   8.810 -0.1639  0.6610  0.5119
14701SOL    HW151343  11.578   5.020   8.799 -0.8514 -1.6987  0.3881
14701SOL    HW251344  11.692   4.948   8.730 -0.0821 -2.1356  2.0611
14702SOL     OW51345   2.678   1.149   9.650  0.0758 -0.2364 -0.5737
14702SOL    HW151346   2.601   1.139   9.707 -0.3106  1.3591 -0.7692
14702SOL    HW251347   2.677   1.070   9.596 -1.6853 -0.0725 -0.8623
14703SOL     OW51348   0.965   6.971   0.915 -0.6057 -0.1282  0.0679
14703SOL    HW151349   1.009   6.975   0.830 -1.4244  1.7204 -0.3169
14703SOL    HW251350   0.955   7.062   0.942 -1.1011 -0.6492  1.7759
14704SOL     OW51351   1.886  12.262   2.060  0.0318  0.2120 -0.1457
14704SOL    HW151352   1.856  12.173   2.041  1.2896 -0.7435  2.0370
14704SOL    HW251353   1.981  12.255   2.064  0.2427  1.9565 -1.1506
14705SOL     OW51354   7.340   7.618   8.143 -0.3549 -0.7446 -0.4735
14705SOL    HW151355   7.278   7.566   8.194  0.9478 -1.0657  0.8575
14705SOL    HW251356   7.424   7.606   8.188  0.2936  1.2892 -1.0139
14706SOL     OW51357   2.916   6.584   6.783 -0.4854 -0.6069  0.5412
14706SOL    HW151358   2.874   6.508   6.741 -1.8105  0.3514  0.0841
14706SOL    HW251359   2.849   6.620   6.841 -0.3981  1.0767 -0.3559
14707SOL     OW51360   6.061   8.683  10.958 -0.0704  0.1316  0.3972
14707SOL    HW151361   6.131   8.681  10.893  0.3579  0.7500  0.8233
14707SOL    HW251362   5.994   8.625  10.923  1.1488 -1.4459  0.5470
14708SOL     OW51363   3.284   0.634  10.604  0.5957 -0.1420  0.4296
14708SOL    HW151364   3.294   0.625  10.510 -0.1188  1.4960  0.1584
14708SOL    HW251365   3.251   0.549  10.634  0.7216 -0.6356 -0.8066
14709SOL     OW51366   9.532   0.176   3.973 -0.7363  0.4768  0.1861
14709SOL    HW151367   9.619   0.205   3.945 -0.5654 -0.0719  0.1352
14709SOL    HW251368   9.547   0.135   4.058 -0.7766 -0.5455 -0.2920
14710SOL     OW51369   6.957   6.136   2.494  0.3061 -0.1091 -0.1532
14710SOL    HW151370   6.888   6.193   2.529  0.1766 -0.1162 -0.3904
14710SOL    HW251371   7.038   6.183   2.509  0.4083 -0.7277  1.4459
14711SOL     OW51372   4.102   9.513   2.773 -0.2158  0.7052 -0.0840
14711SOL    HW151373   4.126   9.556   2.691  0.3640  1.4577  0.4601
14711SOL    HW251374   4.119   9.579   2.840  0.6904 -0.3723  0.7801
14712SOL     OW51375   9.354   1.436  10.331  0.1401  0.1595 -0.0903
14712SOL    HW151376   9.350   1.479  10.245 -1.3779 -0.1172 -0.1705
14712SOL    HW251377   9.305   1.494  10.389 -1.7338 -1.2937 -0.1493
14713SOL     OW51378  10.897  11.905  12.381 -0.1641  0.3956  0.1328
14713SOL    HW151379  10.815  11.955  12.384  1.1770  2.7139  0.3326
14713SOL    HW251380  10.960  11.959  12.428  1.8627 -0.5827 -1.3117
14714SOL     OW51381   2.496  12.348   8.341 -0.3117  0.3365 -0.1774
14714SOL    HW151382   2.430  12.414   8.318 -1.7667 -0.9349  0.1736
14714SOL    HW251383   2.570  12.366   8.284 -1.4828  1.0090 -1.5213
14715SOL     OW51384   7.164  10.872   1.344 -1.0544  0.5228 -0.0243
14715SOL    HW151385   7.167  10.900   1.436  2.7654 -0.1238  0.2330
14715SOL    HW251386   7.160  10.954   1.295 -0.2492  1.0520  0.7541
14716SOL     OW51387   4.339   2.881  12.018  0.1767  0.0832 -0.2932
14716SOL    HW151388   4.394   2.909  12.091  1.7098 -1.9398 -0.5624
14716SOL    HW251389   4.268   2.945  12.015  2.2772  2.6103  0.3322
14717SOL     OW51390   5.107   8.133  11.325  0.1940  0.3363 -0.5093
14717SOL    HW151391   5.035   8.167  11.272  0.9252  0.9158 -1.1740
14717SOL    HW251392   5.080   8.045  11.349 -0.5448  0.3827 -1.1308
14718SOL     OW51393  11.616   5.125   0.216 -0.5589 -0.0497  0.4059
14718SOL    HW151394  11.618   5.125   0.312 -0.6207 -0.8180  0.4134
14718SOL    HW251395  11.709   5.129   0.191 -0.5690  1.4606  0.4695
14719SOL     OW51396   5.943   5.367   7.841  0.2366 -0.5436 -0.0069
14719SOL    HW151397   5.847   5.364   7.848  0.1505  0.1294 -0.7803
14719SOL    HW251398   5.974   5.332   7.924 -0.6832 -1.2873  0.0460
14720SOL     OW51399   9.589   6.665   4.799 -0.2265 -0.2597  0.1785
14720SOL    HW151400   9.495   6.649   4.791 -0.1627 -0.9973  0.7968
14720SOL    HW251401   9.619   6.679   4.709 -0.9001 -0.1752 -0.0356
14721SOL     OW51402   9.080   5.147   1.693  1.0455  0.1950  0.1452
14721SOL    HW151403   9.074   5.056   1.722 -1.9867 -0.1237 -1.1408
14721SOL    HW251404   9.108   5.195   1.772 -3.3707 -1.0954  2.8811
14722SOL     OW51405   3.293   8.632   1.621  0.4582  0.3984  0.1381
14722SOL    HW151406   3.204   8.610   1.650 -0.0375 -0.6499 -1.9975
14722SOL    HW251407   3.350   8.599   1.691 -0.7977  1.6475  1.8602
14723SOL     OW51408   0.556  10.488   6.662 -0.3001  0.8919  0.1842
14723SOL    HW151409   0.485  10.486   6.598  1.0273 -0.1080 -1.3137
14723SOL    HW251410   0.636  10.492   6.609  0.7867  2.3065  1.8206
14724SOL     OW51411   0.443   7.979  10.321 -0.1986 -0.1987  0.2979
14724SOL    HW151412   0.492   7.987  10.403 -0.0424 -0.5463  0.2385
14724SOL    HW251413   0.356   7.952  10.347 -1.0659  2.5403  0.6079
14725SOL     OW51414   2.391   3.710   1.771  0.5263  0.3287 -0.1285
14725SOL    HW151415   2.307   3.692   1.812  1.4306 -2.6335  0.6850
14725SOL    HW251416   2.391   3.658   1.691  0.9244  1.7655 -1.1156
14726SOL     OW51417   1.335   3.931   3.410  0.3647  0.6034 -0.0767
14726SOL    HW151418   1.302   3.853   3.365 -2.0531  1.9953 -0.9262
14726SOL    HW251419   1.304   3.921   3.500  0.1943  0.4907 -0.1462
14727SOL     OW51420   3.712   1.690   9.547 -0.2675  0.0661  0.0740
14727SOL    HW151421   3.733   1.690   9.454 -0.1937  0.2154  0.0904
14727SOL    HW251422   3.640   1.629   9.556  1.7394 -2.4479  0.3551
14728SOL     OW51423   1.182  11.210   3.456 -0.6177 -0.3085  0.4414
14728SOL    HW151424   1.179  11.199   3.551  0.3512  0.5957  0.5816
14728SOL    HW251425   1.272  11.192   3.432 -0.9296 -0.8510 -0.3588
14729SOL     OW51426   3.779   6.100   2.120 -0.3664 -0.2332  0.5405
14729SOL    HW151427   3.813   6.053   2.196 -1.8395 -0.8863  0.8255
14729SOL    HW251428   3.779   6.034   2.050  1.6269  0.5348 -0.2795
14730SOL     OW51429   7.881   6.291   4.259 -0.1205 -0.0697  0.1766
14730SOL    HW151430   7.951   6.309   4.322 -0.3507  1.6529 -0.0082
14730SOL    HW251431   7.861   6.377   4.221 -3.3494 -0.2092  1.2707
14731SOL     OW51432   7.609   8.130   0.872  0.0927 -0.1687  0.6121
14731SOL    HW151433   7.514   8.133   0.875  0.0919  0.8454  0.1335
14731SOL    HW251434   7.632   8.046   0.913 -1.0078 -0.5703  0.4471
14732SOL     OW51435   9.834  10.659   6.453  0.7957  0.2988 -0.2120
14732SOL    HW151436   9.879  10.677   6.370  1.1856  0.3389  0.0069
14732SOL    HW251437   9.861  10.730   6.510 -0.9451  1.3441 -0.6073
14733SOL     OW51438   6.494  11.639  10.615 -0.2220 -0.1907  0.1097
14733SOL    HW151439   6.431  11.709  10.595  0.0891 -0.1618 -0.8375
14733SOL    HW251440   6.448  11.581  10.675 -0.9853  0.0870 -0.2006
14734SOL     OW51441   5.112  10.790   1.429 -0.4257  0.1781 -0.0753
14734SOL    HW151442   5.146  10.778   1.518  1.3774 -0.1578 -0.7667
14734SOL    HW251443   5.068  10.707   1.409 -1.9252  0.6968  0.9161
14735SOL     OW51444   3.542  11.885  11.317  0.3696  0.2694 -0.2394
14735SOL    HW151445   3.465  11.829  11.312  0.5749  0.0558 -1.0709
14735SOL    HW251446   3.551  11.905  11.411  1.2578 -2.4268  0.3324
14736SOL     OW51447   6.268   7.543   1.619 -0.0297 -0.2448 -0.2164
14736SOL    HW151448   6.263   7.456   1.579 -1.9027 -0.2126 -0.1378
14736SOL    HW251449   6.177   7.570   1.629  0.5018  1.4135  0.4765
14737SOL     OW51450   9.412   3.713   2.155  0.3611 -0.5015 -0.2924
14737SOL    HW151451   9.469   3.667   2.094  0.4422 -0.2005 -0.4431
14737SOL    HW251452   9.407   3.654   2.231  0.5436 -0.7145 -0.4427
14738SOL     OW51453   1.937   3.955   6.820  0.2979 -0.0936 -0.1153
14738SOL    HW151454   1.965   4.028   6.875 -0.1917 -0.0200  0.0417
14738SOL    HW251455   2.011   3.937   6.763 -0.4600  2.1820 -1.9401
14739SOL     OW51456   9.065   3.573   1.422  0.5475 -0.0250  0.4667
14739SOL    HW151457   8.985   3.611   1.387  0.5200 -0.5731 -0.0929
14739SOL    HW251458   9.038   3.487   1.455  1.0856 -0.6869 -0.7335
14740SOL     OW51459   0.645   7.315   0.464  0.3138 -0.3174  0.4339
14740SOL    HW151460   0.706   7.359   0.524  0.0814  0.1693  0.3170
14740SOL    HW251461   0.572   7.287   0.520  0.3915 -0.4281  0.4819
14741SOL     OW51462   7.860  10.631   4.900 -0.4406  0.1984 -0.3757
14741SOL    HW151463   7.903  10.715   4.882 -1.2339  0.4890 -0.9651
14741SOL    HW251464   7.802  10.650   4.974  0.3832 -0.1788  0.3804
14742SOL     OW51465  12.413   8.595  10.402 -0.2518  0.9821  0.8227
14742SOL    HW151466  12.438   8.571  10.312 -0.0350 -0.3223  1.2149
14742SOL    HW251467  12.386   8.687  10.395  1.1374  1.3491 -0.3030
14743SOL     OW51468   1.900   7.695   3.289  0.0450 -0.3179  0.2017
14743SOL    HW151469   1.841   7.640   3.341  1.1749 -1.4280  0.3433
14743SOL    HW251470   1.910   7.775   3.342  1.2333 -1.4494  1.8061
14744SOL     OW51471  10.440   6.185   8.887  0.0777 -0.4654  0.1027
14744SOL    HW151472  10.405   6.247   8.950 -2.6084 -2.4171  0.6938
14744SOL    HW251473  10.530   6.214   8.872 -0.2127  1.9166  2.3702
14745SOL     OW51474  10.681  10.265   4.635  0.2350 -0.2391  0.1295
14745SOL    HW151475  10.708  10.325   4.705 -1.0757  1.6731 -0.9204
14745SOL    HW251476  10.759  10.252   4.582  0.4991  0.7023  0.2798
14746SOL     OW51477   8.008   8.282   0.350  0.5868  0.1891  0.0265
14746SOL    HW151478   7.989   8.276   0.444  0.3687 -0.7686 -0.0674
14746SOL    HW251479   7.929   8.322   0.312  0.1045 -0.6818  0.0820
14747SOL     OW51480   3.684   6.016  10.098 -0.4241 -0.2535  0.1936
14747SOL    HW151481   3.758   5.986  10.044 -0.1232 -2.4591  1.6901
14747SOL    HW251482   3.634   6.073  10.040  2.4684  1.4356 -0.8548
14748SOL     OW51483  11.714  11.129   9.461 -0.0973  0.0850  0.1043
14748SOL    HW151484  11.717  11.035   9.447  1.8304 -0.0138  0.8520
14748SOL    HW251485  11.757  11.166   9.384 -3.0751  0.6207 -1.4738
14749SOL     OW51486  12.009  10.495   5.825  0.4283 -0.7364  0.2006
14749SOL    HW151487  12.103  10.481   5.819  1.0824  2.6829  0.8301
14749SOL    HW251488  11.989  10.555   5.753 -0.7242  0.7967  1.7311
14750SOL     OW51489   3.027  11.986  10.531  0.0331 -0.2824  0.0309
14750SOL    HW151490   3.045  12.031  10.449  0.6348 -0.4697  0.0571
14750SOL    HW251491   2.994  11.900  10.505 -1.0779  0.1420 -0.0176
14751SOL     OW51492   0.795   9.775   6.343 -0.4691  0.6034  0.1760
14751SOL    HW151493   0.708   9.811   6.325 -0.5513 -0.1589 -1.1267
14751SOL    HW251494   0.780   9.708   6.410 -1.0318 -0.0645 -0.5934
14752SOL     OW51495   7.309   9.077   5.751  0.1861 -0.3849  0.2082
14752SOL    HW151496   7.364   9.058   5.676 -0.6525  1.2074 -0.8551
14752SOL    HW251497   7.367   9.065   5.827  1.6323  0.0085 -0.7957
14753SOL     OW51498   9.691   7.312   5.516  0.1332 -0.2149 -0.3715
14753SOL    HW151499   9.689   7.223   5.479 -0.5051  0.1261 -1.1934
14753SOL    HW251500   9.622   7.359   5.469 -1.4924 -0.0207  2.0479
14754SOL     OW51501   6.169  10.543   4.519 -0.4916 -0.0043  0.7853
14754SOL    HW151502   6.118  10.549   4.438  0.9807 -1.0320 -0.2743
14754SOL    HW251503   6.242  10.603   4.506 -0.3593 -0.0138  1.4479
14755SOL     OW51504   9.019   7.761   3.212  0.0274 -0.1092  0.4964
14755SOL    HW151505   9.076   7.783   3.138  0.8236  0.3210  1.2181
14755SOL    HW251506   9.044   7.672   3.237 -1.9372 -1.2534 -1.2643
14756SOL     OW51507   9.777   9.433   1.601  0.5997 -0.0199  0.1159
14756SOL    HW151508   9.847   9.395   1.549  0.9710 -0.3777  0.8522
14756SOL    HW251509   9.716   9.360   1.615  0.4851  0.0832  0.1575
14757SOL     OW51510   4.140   9.260   0.312  0.2660  0.4119 -0.7472
14757SOL    HW151511   4.113   9.353   0.310  1.9093  0.9068 -0.9305
14757SOL    HW251512   4.058   9.212   0.296 -0.4358  1.8681 -1.8523
14758SOL     OW51513   9.526   0.054   9.591 -0.2815  0.0984  0.5714
14758SOL    HW151514   9.596   0.063   9.527 -0.0918 -0.7607  0.6405
14758SOL    HW251515   9.565   0.002   9.662 -1.1432 -0.9208  0.3313
14759SOL     OW51516   2.601  10.478   2.924  0.2900 -0.3213  0.0649
14759SOL    HW151517   2.567  10.541   2.987  0.4390  1.0011 -1.1289
14759SOL    HW251518   2.685  10.515   2.896 -0.3777 -0.1605 -1.8754
14760SOL     OW51519   7.853   6.566   8.889 -0.1001  0.5706  0.5126
14760SOL    HW151520   7.850   6.649   8.936 -0.3935  1.4082 -0.9168
14760SOL    HW251521   7.847   6.591   8.797 -2.6590 -1.1711  0.1254
14761SOL     OW51522   6.378   8.569  10.468  0.6782 -0.3113  0.3377
14761SOL    HW151523   6.442   8.638  10.486  0.4939  0.1225 -0.6079
14761SOL    HW251524   6.406   8.532  10.384 -0.0091 -0.4755  0.1808
14762SOL     OW51525   3.118   4.006  11.211 -0.0415  0.7345 -0.0177
14762SOL    HW151526   3.191   4.060  11.179  1.5628 -1.2196  0.1585
14762SOL    HW251527   3.159   3.924  11.238 -2.2537 -0.1946  0.7360
14763SOL     OW51528   1.310   8.450   8.182  0.6302 -0.3449  0.2068
14763SOL    HW151529   1.301   8.406   8.098  1.5897 -1.6741  0.7701
14763SOL    HW251530   1.325   8.380   8.245  1.5389  0.7316  1.2440
14764SOL     OW51531   9.141   2.197  10.426  0.3377 -0.2222 -0.1780
14764SOL    HW151532   9.222   2.248  10.430  1.0391 -1.0931 -2.1485
14764SOL    HW251533   9.102   2.221  10.343  0.2013 -2.1532 -0.7243
14765SOL     OW51534  12.264   6.775   8.905 -0.4418 -0.1754 -0.3197
14765SOL    HW151535  12.190   6.836   8.898 -1.4776 -1.1749  1.3287
14765SOL    HW251536  12.259   6.723   8.825 -0.9731  0.3420 -0.6340
14766SOL     OW51537   1.488   7.266  11.895  0.0483 -0.0636  0.1231
14766SOL    HW151538   1.425   7.213  11.944  0.8869 -0.8161  0.4167
14766SOL    HW251539   1.542   7.308  11.962  1.0904 -0.9636 -0.1200
14767SOL     OW51540   9.013   5.043   7.864 -0.3037 -0.4964 -0.3658
14767SOL    HW151541   8.956   5.070   7.936  2.2869  0.5284  1.4568
14767SOL    HW251542   9.061   5.121   7.840 -0.2100 -1.1240 -2.4516
14768SOL     OW51543  12.383  11.417  11.916  0.0186 -0.1624 -0.1377
14768SOL    HW151544  12.394  11.383  12.005 -1.5254  2.0825  1.0329
14768SOL    HW251545  12.308  11.476  11.923 -1.6270 -1.5790 -3.4664
14769SOL     OW51546   0.265  12.597  11.471  0.0654  0.3136  0.1885
14769SOL    HW151547   0.339  12.599  11.411  0.0666 -2.7277 -0.0903
14769SOL    HW251548   0.285  12.525  11.531 -1.7120  0.7698  1.4157
14770SOL     OW51549   9.578   0.327   7.761 -0.1620  0.2145 -0.2953
14770SOL    HW151550   9.604   0.406   7.713  2.6253 -0.1860  0.3899
14770SOL    HW251551   9.558   0.263   7.692 -2.2471  1.3849 -0.8519
14771SOL     OW51552   7.064  11.744   4.743 -0.3698  0.4460  0.1599
14771SOL    HW151553   7.032  11.814   4.801 -0.9701  0.0274  0.3417
14771SOL    HW251554   6.992  11.730   4.681 -0.1999  0.0726  0.0476
14772SOL     OW51555  10.793   6.505   5.551 -0.1373 -0.1979  0.1435
14772SOL    HW151556  10.789   6.410   5.546 -0.7586 -0.1885  0.4071
14772SOL    HW251557  10.805   6.534   5.461  0.5078 -0.5462  0.1141
14773SOL     OW51558  11.052   5.623   8.757 -0.5227  0.2400  0.4203
14773SOL    HW151559  11.069   5.591   8.669 -2.2860 -0.1038  0.1658
14773SOL    HW251560  10.983   5.689   8.746  0.8010  1.8656  1.3080
14774SOL     OW51561   2.006   2.061   5.522  0.1202  0.0632  0.1409
14774SOL    HW151562   2.043   2.113   5.451  0.6914  0.0479  0.4268
14774SOL    HW251563   1.944   2.003   5.478  2.1431 -1.5857 -0.6881
14775SOL     OW51564   7.892   0.519  11.128  0.7506 -0.7843  0.0439
14775SOL    HW151565   7.908   0.586  11.062  0.6926 -1.7495 -0.9596
14775SOL    HW251566   7.813   0.548  11.173 -0.9319 -1.5996 -2.2630
14776SOL     OW51567   6.040   5.415   4.461 -0.3568  0.0608 -0.1409
14776SOL    HW151568   6.133   5.403   4.482 -0.2619  2.4552  1.0794
14776SOL    HW251569   5.994   5.368   4.530 -0.0361  0.0296  0.0570
14777SOL     OW51570   9.052   2.957   6.746  0.7101  0.2275 -0.4279
14777SOL    HW151571   9.098   2.937   6.828 -1.6528 -0.4721  0.8271
14777SOL    HW251572   9.000   3.035   6.767 -0.5359 -0.4403 -0.9961
14778SOL     OW51573   0.074   4.362   6.169 -0.3466 -0.2111 -0.8080
14778SOL    HW151574   0.128   4.283   6.162 -0.5207 -0.7585  2.6524
14778SOL    HW251575   0.011   4.342   6.237 -0.9746  2.6314 -0.4466
14779SOL     OW51576   7.543   1.255   6.714 -0.1427  0.1748  0.3053
14779SOL    HW151577   7.452   1.271   6.688 -0.1198  1.9539  1.1318
14779SOL    HW251578   7.590   1.244   6.632 -0.9714  0.0946 -0.1668
14780SOL     OW51579   6.760   5.045   8.841 -0.6471  0.4230 -0.1922
14780SOL    HW151580   6.731   5.136   8.835 -4.2258 -0.4548  0.8912
14780SOL    HW251581   6.764   5.028   8.936  4.1008  0.4286 -0.1686
14781SOL     OW51582   5.158   0.335   3.609  0.0141  0.1267 -0.1984
14781SOL    HW151583   5.214   0.382   3.671 -0.9340  1.6838 -0.4604
14781SOL    HW251584   5.097   0.286   3.664  0.3057  0.0830  0.0899
14782SOL     OW51585   4.859  10.248   5.239 -0.1692 -0.2695  0.0116
14782SOL    HW151586   4.884  10.261   5.147 -0.5692  0.3982 -0.0035
14782SOL    HW251587   4.865  10.153   5.252 -0.5427 -0.4156 -0.8263
14783SOL     OW51588   1.818  10.349   5.783 -0.3674 -0.2000 -0.7289
14783SOL    HW151589   1.855  10.279   5.837  0.6091  0.6029 -0.3232
14783SOL    HW251590   1.807  10.308   5.697  2.8418 -0.1678 -1.2800
14784SOL     OW51591   0.164   9.498  12.278  0.1395 -0.2831 -0.3490
14784SOL    HW151592   0.183   9.524  12.368 -1.8861  1.8128 -0.4479
14784SOL    HW251593   0.101   9.426  12.286 -1.9966  1.5383 -0.0165
14785SOL     OW51594   3.676   8.965   8.529  0.1991 -0.1187  0.2277
14785SOL    HW151595   3.701   8.880   8.493  0.2469 -0.3248  0.7468
14785SOL    HW251596   3.684   9.025   8.455 -2.6602 -1.0378 -0.9466
14786SOL     OW51597   3.688  10.088   1.273  0.5546  0.1986 -0.3223
14786SOL    HW151598   3.638  10.077   1.192  0.4551  1.1584 -0.4048
14786SOL    HW251599   3.736  10.170   1.261  0.4096  0.4470  0.6471
14787SOL     OW51600   9.693   4.998   0.205 -0.5121  0.0875 -0.0526
14787SOL    HW151601   9.670   5.040   0.122 -2.7417 -0.7422  0.0875
14787SOL    HW251602   9.691   4.904   0.186 -0.4736 -0.0985  0.8189
14788SOL     OW51603   5.403  11.846   4.618  0.0944  0.4150 -0.2295
14788SOL    HW151604   5.483  11.844   4.670 -0.4025 -0.2055  0.5519
14788SOL    HW251605   5.427  11.806   4.535  0.3813 -0.6609  0.3441
14789SOL     OW51606   0.679   7.244   9.048 -0.0660  0.1857 -0.4374
14789SOL    HW151607   0.709   7.335   9.059 -0.9936  0.3483  1.0198
14789SOL    HW251608   0.748   7.191   9.088 -0.7109  0.4360  1.0712
14790SOL     OW51609   4.036   2.575  12.565  0.3252  0.1444 -0.5379
14790SOL    HW151610   4.129   2.593  12.556  0.4483  0.5198  1.1981
14790SOL    HW251611   4.001   2.649  12.614 -0.7089 -0.4753 -0.2975
14791SOL     OW51612   5.895   8.831   5.639  0.6778  0.6113  1.0410
14791SOL    HW151613   5.831   8.760   5.646  0.2270  1.1207  2.2787
14791SOL    HW251614   5.846   8.903   5.598  0.7462  0.6719  1.0659
14792SOL     OW51615   9.034   4.342   2.672 -0.4491  0.0454  0.6759
14792SOL    HW151616   9.100   4.408   2.692  0.9046 -1.6669  2.2278
14792SOL    HW251617   8.971   4.387   2.616  2.1396  1.7413 -1.1108
14793SOL     OW51618   5.577   7.216   1.296 -0.5984  0.0499 -0.2766
14793SOL    HW151619   5.502   7.250   1.249  0.1509  1.7336 -0.3317
14793SOL    HW251620   5.541   7.178   1.377 -1.7717 -1.8786 -1.6183
14794SOL     OW51621   4.835   0.524   2.843 -0.0571 -0.5146  0.1860
14794SOL    HW151622   4.822   0.429   2.844 -0.5536 -0.4533  0.9072
14794SOL    HW251623   4.810   0.552   2.931 -1.8770  0.5367 -0.6177
14795SOL     OW51624   4.948   6.624   7.293  0.5160 -0.0958  0.4016
14795SOL    HW151625   4.924   6.608   7.201 -2.1056 -1.0402  1.1632
14795SOL    HW251626   5.002   6.549   7.316  0.8591 -0.0587 -0.2434
14796SOL     OW51627  10.457   8.578   1.015  0.7048  0.4938 -0.1627
14796SOL    HW151628  10.531   8.519   0.999  0.3263  0.3431 -1.4525
14796SOL    HW251629  10.410   8.581   0.931 -2.0411 -1.1625  1.1420
14797SOL     OW51630   8.506   7.570   6.258  0.0905 -0.2191 -0.0026
14797SOL    HW151631   8.571   7.601   6.321 -1.4565  1.8955  0.6915
14797SOL    HW251632   8.557   7.536   6.185  2.0000  1.7322  0.3188
14798SOL     OW51633   6.501  11.211   3.300 -0.2780 -0.0043  0.1466
14798SOL    HW151634   6.547  11.152   3.360 -0.0128  0.8373  0.8011
14798SOL    HW251635   6.569  11.244   3.242 -0.4396 -0.3953 -0.2702
14799SOL     OW51636   5.618   7.064  10.508  0.1249 -0.1374 -0.5090
14799SOL    HW151637   5.556   7.136  10.519  0.6931  0.3610 -0.4876
14799SOL    HW251638   5.607   7.011  10.587 -0.9077 -0.5650 -0.9188
14800SOL     OW51639   8.317   8.488   6.422 -0.0059 -0.2489  0.0422
14800SOL    HW151640   8.228   8.512   6.396 -0.3222 -1.6543 -0.2435
14800SOL    HW251641   8.309   8.457   6.512  0.3081  0.2460  0.2432
14801SOL     OW51642   2.076   3.262   3.221 -0.2846  0.1016 -0.2523
14801SOL    HW151643   2.000   3.257   3.163 -0.1562 -2.1210 -0.2824
14801SOL    HW251644   2.148   3.289   3.164 -0.0360 -2.6083 -1.3627
14802SOL     OW51645  10.853   3.909   5.460 -0.2572  0.2235  0.0071
14802SOL    HW151646  10.806   3.828   5.437 -0.2574  0.3137 -0.3136
14802SOL    HW251647  10.784   3.974   5.470 -0.2420  0.2280  0.0858
14803SOL     OW51648   9.997   6.336  11.727 -0.3777  0.4352 -0.3637
14803SOL    HW151649   9.999   6.327  11.631  1.0406  1.5281 -0.4732
14803SOL    HW251650   9.947   6.416  11.743  0.4137  0.9205 -0.2715
14804SOL     OW51651   9.219   7.396   2.218 -0.1545  0.2404 -0.4618
14804SOL    HW151652   9.227   7.489   2.239  0.1539  0.1770 -0.3018
14804SOL    HW251653   9.307   7.362   2.226 -0.4969 -0.3700  0.9068
14805SOL     OW51654   9.967   2.492   4.684  0.3404 -0.0851 -0.2352
14805SOL    HW151655   9.961   2.485   4.588 -2.7520  2.9764 -0.4479
14805SOL    HW251656   9.946   2.404   4.715 -1.3921 -0.5375 -2.4050
14806SOL     OW51657  11.164   5.825  11.548 -0.3964  0.8229 -0.5333
14806SOL    HW151658  11.077   5.786  11.546 -1.1898  2.4471  0.1949
14806SOL    HW251659  11.160   5.897  11.485  0.6259  0.5546 -0.9338
14807SOL     OW51660  10.942   6.767   5.086 -0.2138 -0.4114  0.5947
14807SOL    HW151661  10.996   6.752   5.008  1.7429 -0.5798  1.8925
14807SOL    HW251662  10.901   6.852   5.071 -0.2989 -0.6924 -0.8489
14808SOL     OW51663   8.854   9.203   2.798 -0.2576 -0.3010 -0.5053
14808SOL    HW151664   8.844   9.136   2.731  0.3082 -0.4275 -0.4648
14808SOL    HW251665   8.935   9.248   2.776  0.8140 -1.4013  0.9912
14809SOL     OW51666  10.240   0.243   4.209  0.0335 -0.3117  0.0012
14809SOL    HW151667  10.249   0.177   4.278 -2.6121  0.6416  1.4058
14809SOL    HW251668  10.178   0.204   4.147  1.5227 -0.6995 -1.2802
14810SOL     OW51669  12.304   0.567   2.760  0.3860  0.0114 -0.2190
14810SOL    HW151670  12.283   0.514   2.683 -2.0597 -1.0339  1.0554
14810SOL    HW251671  12.351   0.508   2.818  0.7970  0.3139 -0.2394
14811SOL     OW51672  11.654   3.475   6.795 -0.1869  0.5096  0.6003
14811SOL    HW151673  11.660   3.402   6.733 -2.3448 -0.1609  1.0839
14811SOL    HW251674  11.647   3.552   6.739  1.6210  0.3447  0.0828
14812SOL     OW51675  10.204  10.548   1.380 -0.3383 -0.5480  0.7270
14812SOL    HW151676  10.249  10.469   1.408  0.5647 -0.5869 -0.7034
14812SOL    HW251677  10.243  10.618   1.432 -0.5879 -0.9355  1.4400
14813SOL     OW51678   1.653   9.521   3.770 -0.1201 -0.2291 -0.1086
14813SOL    HW151679   1.654   9.426   3.758  0.7872 -0.0552 -1.7180
14813SOL    HW251680   1.575   9.550   3.723  0.2531 -0.0803 -0.6462
14814SOL     OW51681   3.084  12.574   3.472 -0.5296 -0.3445  0.2434
14814SOL    HW151682   3.011  12.616   3.425 -0.7770 -0.5912  0.4058
14814SOL    HW251683   3.044  12.536   3.550  0.0139  0.7701  1.0942
14815SOL     OW51684  11.680   2.045   1.268  0.3229 -0.2779  0.3622
14815SOL    HW151685  11.754   1.984   1.261 -0.0068 -0.7898  1.1951
14815SOL    HW251686  11.657   2.066   1.177  2.7422  1.4431  0.0421
14816SOL     OW51687   7.014   5.338  12.219 -0.2225  0.0491 -0.2295
14816SOL    HW151688   7.101   5.314  12.250 -1.1866 -1.1335  1.7501
14816SOL    HW251689   7.008   5.298  12.132  1.2281  0.2507 -0.4481
14817SOL     OW51690   5.239   8.351  10.963  0.1682  0.1500 -0.6037
14817SOL    HW151691   5.316   8.408  10.961 -0.7371  1.4360 -0.0819
14817SOL    HW251692   5.271   8.267  10.931  2.4186 -0.1233  1.9588
14818SOL     OW51693   2.969   1.679   8.693  0.0981  0.5191  0.4520
14818SOL    HW151694   3.016   1.735   8.632  1.5694 -2.2442 -1.1525
14818SOL    HW251695   3.007   1.699   8.778  0.5077  1.9671 -0.0539
14819SOL     OW51696   9.646  11.971   7.655 -0.7415  0.6617  0.0424
14819SOL    HW151697   9.599  11.897   7.694  0.7428 -0.0038  0.6497
14819SOL    HW251698   9.733  11.967   7.694 -0.3931  2.2918 -0.4956
14820SOL     OW51699   0.472   7.648   7.938  0.2810 -0.4823 -0.3249
14820SOL    HW151700   0.514   7.730   7.964  0.1065 -1.1240  2.1800
14820SOL    HW251701   0.505   7.632   7.849  2.0310  1.1832 -0.0480
14821SOL     OW51702  11.457   9.549   9.299 -0.5036 -0.3334  0.1064
14821SOL    HW151703  11.530   9.611   9.298 -0.2885 -0.5890 -0.1511
14821SOL    HW251704  11.387   9.595   9.346 -0.3296  0.0833 -0.0380
14822SOL     OW51705   3.812   2.790   9.830 -0.1562  0.4549 -0.7250
14822SOL    HW151706   3.755   2.866   9.817  0.4441  1.2563  1.0670
14822SOL    HW251707   3.890   2.826   9.873  0.6547 -1.0019 -0.9251
14823SOL     OW51708   6.422   1.817  10.773 -0.3766 -0.3800 -0.3011
14823SOL    HW151709   6.431   1.912  10.775  1.5448 -0.5386  1.0155
14823SOL    HW251710   6.434   1.789  10.864  1.1886 -2.0169 -0.9504
14824SOL     OW51711   4.459  10.359   8.698  0.3846 -0.0890 -0.2895
14824SOL    HW151712   4.444  10.417   8.773  0.2945  1.1807 -1.2538
14824SOL    HW251713   4.542  10.316   8.717  0.8252  0.9054  0.1257
14825SOL     OW51714  12.464  11.233   3.820  1.0939 -0.5841  0.3034
14825SOL    HW151715  12.370  11.252   3.816  0.6709 -1.5132  3.2840
14825SOL    HW251716  12.496  11.254   3.732 -1.7355  0.4828 -0.6081
14826SOL     OW51717   9.674   7.209   3.928  0.4392  0.3692  0.5349
14826SOL    HW151718   9.717   7.288   3.893 -0.1291  0.8500  0.9158
14826SOL    HW251719   9.725   7.187   4.006  0.1663  0.7803  0.8320
14827SOL     OW51720   6.620  11.954  11.922  0.4227  0.2163  0.1775
14827SOL    HW151721   6.671  11.873  11.927 -1.1411 -0.8598 -0.4685
14827SOL    HW251722   6.624  11.979  11.830 -1.0622 -0.4897 -0.1084
14828SOL     OW51723  11.231   5.995   7.804  0.4273 -0.1219  0.3298
14828SOL    HW151724  11.248   6.040   7.721  0.7061  2.2810  1.6190
14828SOL    HW251725  11.185   5.915   7.778 -2.5481  2.0745 -1.9945
14829SOL     OW51726   4.321  12.072   8.699 -0.4919 -0.1699 -0.2988
14829SOL    HW151727   4.370  12.011   8.753  1.1247  1.6570  0.4400
14829SOL    HW251728   4.240  12.088   8.748 -1.4607 -2.4555 -1.0404
14830SOL     OW51729   9.418   9.795   7.763  0.7739  0.1338 -0.5259
14830SOL    HW151730   9.339   9.752   7.729  0.5105  0.2143 -0.0266
14830SOL    HW251731   9.387   9.881   7.792  0.9890  0.0440 -0.0370
14831SOL     OW51732   4.837   7.487   0.985 -0.2462 -0.0540  0.5417
14831SOL    HW151733   4.900   7.497   0.913 -1.1659 -1.2081 -0.4540
14831SOL    HW251734   4.812   7.395   0.983 -0.9734  0.0937  1.7826
14832SOL     OW51735   2.288  12.372   7.877  0.0923  0.0429 -0.1391
14832SOL    HW151736   2.198  12.341   7.884 -0.1721  0.6446 -0.7838
14832SOL    HW251737   2.286  12.460   7.913  0.7498 -0.4970  1.2750
14833SOL     OW51738   5.800   4.365   2.049 -0.0753 -0.4373  0.4692
14833SOL    HW151739   5.849   4.366   2.131  0.3458 -1.7597  0.2539
14833SOL    HW251740   5.850   4.422   1.991 -0.9705  1.4222  1.4106
14834SOL     OW51741   7.728   6.676   0.700  0.1040  0.2062 -0.5413
14834SOL    HW151742   7.742   6.582   0.690  0.0970  0.3641 -2.3695
14834SOL    HW251743   7.667   6.699   0.630 -1.5333  1.2578  1.1222
14835SOL     OW51744   2.434   9.119   5.697  0.4310  0.1498  0.6535
14835SOL    HW151745   2.519   9.126   5.741  0.7622  0.0846  0.0351
14835SOL    HW251746   2.407   9.028   5.713  0.3801  0.2284  1.0227
14836SOL     OW51747   2.323   2.440   0.801 -0.1311 -0.2611 -0.1781
14836SOL    HW151748   2.284   2.528   0.794  0.1432 -0.2720 -2.3304
14836SOL    HW251749   2.252   2.380   0.778  0.0785 -0.5209 -0.1535
14837SOL     OW51750   6.052  12.103   6.707 -0.1792  0.1138 -0.3640
14837SOL    HW151751   6.123  12.069   6.762 -1.7790 -0.8790  1.2008
14837SOL    HW251752   6.028  12.029   6.650 -1.3476 -0.3028  0.6201
14838SOL     OW51753   0.836   8.914   8.670  0.1570 -0.2402 -0.0961
14838SOL    HW151754   0.838   9.006   8.644  1.2653 -0.3742 -0.5178
14838SOL    HW251755   0.815   8.866   8.590  1.2730 -0.4780 -0.2521
14839SOL     OW51756  11.114  11.072   7.395 -0.2027 -0.5906  0.1211
14839SOL    HW151757  11.176  11.023   7.449 -0.5545 -1.3609 -0.1495
14839SOL    HW251758  11.117  11.161   7.429  0.2228 -0.8732  0.8456
14840SOL     OW51759   9.538   7.276   6.145 -0.4983  0.3397  0.4070
14840SOL    HW151760   9.632   7.290   6.158 -0.3158 -0.4741 -0.0019
14840SOL    HW251761   9.533   7.198   6.090 -1.4214  0.3387  0.4879
14841SOL     OW51762   4.135   6.778  12.226  0.4346 -0.3425 -0.2609
14841SOL    HW151763   4.178   6.823  12.154 -0.7406  1.6199  0.1638
14841SOL    HW251764   4.042   6.787  12.208  0.1422 -1.5217  0.5258
14842SOL     OW51765   6.226   6.536   4.660  0.0152 -0.0963 -0.5768
14842SOL    HW151766   6.148   6.579   4.696  0.0253 -0.1468 -0.4936
14842SOL    HW251767   6.193   6.482   4.589 -0.1927 -1.0869  0.2527
14843SOL     OW51768   1.355   7.520   3.920 -0.1856  0.7143  0.5564
14843SOL    HW151769   1.399   7.552   3.999 -0.0368  0.4615  0.5760
14843SOL    HW251770   1.423   7.475   3.871 -0.0144  1.8078 -0.2448
14844SOL     OW51771  11.383   2.207   2.692  0.2395 -0.0580 -0.2829
14844SOL    HW151772  11.325   2.131   2.688  2.2686 -1.6795 -0.5021
14844SOL    HW251773  11.423   2.212   2.605  0.2185  1.2103 -0.2418
14845SOL     OW51774   5.886  11.869   3.375  0.3228 -0.0115 -0.3032
14845SOL    HW151775   5.794  11.895   3.371  0.1438  0.2291  2.9041
14845SOL    HW251776   5.885  11.786   3.422  1.8564  1.3115  2.2873
14846SOL     OW51777  10.329   1.451   8.087 -0.0109 -0.6095 -0.3939
14846SOL    HW151778  10.349   1.388   8.157  1.3966  1.9900  1.7182
14846SOL    HW251779  10.414   1.468   8.045 -0.1246  0.7414 -0.1229
14847SOL     OW51780   1.091   8.363  11.280 -0.1903 -0.2787 -0.4046
14847SOL    HW151781   1.070   8.425  11.210 -0.2422 -1.6161 -1.6106
14847SOL    HW251782   1.025   8.381  11.348  0.6035  1.8700 -0.0944
14848SOL     OW51783   6.141  10.406   2.130 -0.7572 -0.1953  0.0956
14848SOL    HW151784   6.122  10.312   2.132  2.9319 -1.0836  0.4294
14848SOL    HW251785   6.198  10.417   2.055  1.0141  1.2443  1.5619
14849SOL     OW51786  12.645   3.988   9.238 -0.1767  0.4708  0.2269
14849SOL    HW151787  12.565   4.028   9.204 -1.5399 -1.9399  0.3713
14849SOL    HW251788  12.655   3.907   9.188  1.4508  0.0676  1.1264
14850SOL     OW51789  10.379   9.996   7.592  0.1486  0.2045 -0.3618
14850SOL    HW151790  10.312   9.973   7.656 -0.3507  3.2963  0.3867
14850SOL    HW251791  10.331  10.009   7.510  0.5280 -1.8280 -0.9736
14851SOL     OW51792   7.773   9.901   3.275  0.0311 -0.1809  0.1990
14851SOL    HW151793   7.841   9.934   3.216 -0.3342 -0.2634 -0.2740
14851SOL    HW251794   7.694   9.898   3.221 -0.0663 -1.3274  0.3862
14852SOL     OW51795   9.785  12.464   2.841 -0.0230 -0.1969  0.2051
14852SOL    HW151796   9.783  12.553   2.876 -1.1451  0.0357 -0.3998
14852SOL    HW251797   9.846  12.469   2.768 -0.0034  0.0575  0.2371
14853SOL     OW51798  11.100   3.983   6.220 -0.3405 -0.0492 -0.0957
14853SOL    HW151799  11.186   3.949   6.194 -1.1288 -0.6631 -2.0929
14853SOL    HW251800  11.057   3.908   6.261  0.1737  0.3751  1.3045
14854SOL     OW51801   9.183  12.183   2.385  0.1396  0.2469  0.3151
14854SOL    HW151802   9.121  12.182   2.312  0.2859 -0.5408  0.1962
14854SOL    HW251803   9.243  12.110   2.367  0.5074  0.3842  0.9415
14855SOL     OW51804   7.132   8.880   3.441  0.3169 -0.0902 -0.0709
14855SOL    HW151805   7.044   8.886   3.478  0.0186 -1.8610 -0.4229
14855SOL    HW251806   7.130   8.802   3.386  2.5934 -1.1895  1.2585
14856SOL     OW51807  10.764   2.294   8.537  0.3066  0.0269  0.5438
14856SOL    HW151808  10.674   2.308   8.507 -0.9534 -1.5358  3.1430
14856SOL    HW251809  10.795   2.219   8.487 -0.7526 -0.8881  1.2015
14857SOL     OW51810  10.185   2.569   9.079  0.1595 -0.1355 -0.4706
14857SOL    HW151811  10.144   2.512   9.144  1.3652  0.0914  0.5259
14857SOL    HW251812  10.271   2.589   9.115  0.2149  1.3811 -1.3417
14858SOL     OW51813   0.261  12.661   6.541 -0.3782 -0.3726  0.9081
14858SOL    HW151814   0.285  12.753   6.540 -0.6781 -0.2927  0.9383
14858SOL    HW251815   0.335  12.617   6.582 -0.6911 -0.0077  1.8912
14859SOL     OW51816  10.695   4.040   6.450 -0.6855  0.1563 -0.1780
14859SOL    HW151817  10.611   4.002   6.475 -0.5330  0.2691  0.5192
14859SOL    HW251818  10.706   4.115   6.508 -0.9549  1.2533 -1.4961
14860SOL     OW51819   7.392  11.641   9.851 -0.5831 -0.7081 -0.5890
14860SOL    HW151820   7.453  11.629   9.779  0.5201  0.7595  0.0493
14860SOL    HW251821   7.425  11.718   9.898 -1.1007 -1.7422  1.6232
14861SOL     OW51822   9.584   3.340   4.434 -0.6115  0.3965  0.0863
14861SOL    HW151823   9.511   3.345   4.371 -0.2544 -0.3357 -0.3965
14861SOL    HW251824   9.541   3.343   4.520 -1.1127  1.3314 -0.1728
14862SOL     OW51825   5.792   9.604   0.510  0.1841  0.0030  0.1517
14862SOL    HW151826   5.857   9.672   0.495  0.2927 -0.2771 -0.7400
14862SOL    HW251827   5.735   9.608   0.433  0.2727 -0.9937  0.0206
14863SOL     OW51828   8.634   2.753   0.260  0.2711 -0.1724  0.2640
14863SOL    HW151829   8.571   2.717   0.198  0.5872  1.0609 -0.8148
14863SOL    HW251830   8.703   2.791   0.206  2.3875 -2.1430  1.4132
14864SOL     OW51831   6.900   9.711   0.897  0.4444 -0.1378  0.0389
14864SOL    HW151832   6.950   9.728   0.817  0.8198  0.3129  0.3620
14864SOL    HW251833   6.953   9.647   0.945  1.5033  1.4273  1.0707
14865SOL     OW51834   3.247   6.268   4.698  0.3593 -0.2765  0.0647
14865SOL    HW151835   3.303   6.339   4.669 -0.2514  0.1894  0.0029
14865SOL    HW251836   3.303   6.213   4.753  0.4476  1.0724  1.3557
14866SOL     OW51837   7.124   9.792   5.462 -0.6910 -0.0367 -0.0542
14866SOL    HW151838   7.206   9.751   5.491 -0.0473  0.3055 -1.3209
14866SOL    HW251839   7.061   9.720   5.461  0.1263 -0.7719 -1.0806
14867SOL     OW51840   2.114   5.836  10.344  0.1507  0.3467  0.0636
14867SOL    HW151841   2.111   5.874  10.432  0.1006  0.5878 -0.0404
14867SOL    HW251842   2.032   5.787  10.337  0.8407 -0.9539  0.7077
14868SOL     OW51843   6.605   9.748   5.939 -0.3972  1.0394 -0.2099
14868SOL    HW151844   6.597   9.736   5.844  1.1355 -1.5862 -0.1059
14868SOL    HW251845   6.550   9.680   5.977  0.2948  0.9994  0.7529
14869SOL     OW51846   1.605   7.855   9.782 -0.4336 -0.2234  0.1245
14869SOL    HW151847   1.665   7.925   9.809 -1.1107  0.4355 -0.0811
14869SOL    HW251848   1.544   7.896   9.722 -1.0758 -0.9037  0.2939
14870SOL     OW51849   6.598   4.147   7.140 -0.0080 -0.3689 -0.0063
14870SOL    HW151850   6.635   4.235   7.141 -2.3591  0.7020  1.7964
14870SOL    HW251851   6.522   4.153   7.082  0.2351 -1.4314 -0.4617
14871SOL     OW51852   9.029  12.546   5.601  0.0096  0.6585  0.0253
14871SOL    HW151853   8.968  12.614   5.631 -1.4892 -0.5544 -0.1496
14871SOL    HW251854   8.976  12.490   5.544  0.9620 -1.1296  0.8145
14872SOL     OW51855   3.326   1.324  10.573  0.1607  0.1654  0.1263
14872SOL    HW151856   3.337   1.272  10.653 -0.7889  0.1012  0.2166
14872SOL    HW251857   3.307   1.259  10.506 -1.2329  0.4070  0.2763
14873SOL     OW51858  10.522   5.937   9.054 -0.0572 -0.3018 -0.4678
14873SOL    HW151859  10.556   5.947   9.143 -0.6154  0.3033 -0.3200
14873SOL    HW251860  10.486   6.022   9.032  0.8362 -0.1903 -1.6092
14874SOL     OW51861   2.984   6.262   9.805  0.0721 -0.6233 -0.2615
14874SOL    HW151862   2.940   6.319   9.743  1.5976 -0.6643 -1.4200
14874SOL    HW251863   3.043   6.209   9.752  0.1976 -1.8419  1.0305
14875SOL     OW51864  11.569   9.543   7.580 -0.0977 -0.1838  0.0233
14875SOL    HW151865  11.558   9.602   7.506 -0.3037 -0.4692 -0.1752
14875SOL    HW251866  11.635   9.480   7.551  2.9689  2.0970  1.5479
14876SOL     OW51867   5.267  11.844   7.427  0.1683  0.1651 -0.6022
14876SOL    HW151868   5.200  11.901   7.390 -2.3294 -1.9416  0.3409
14876SOL    HW251869   5.287  11.782   7.357 -1.2299 -1.0797  0.0525
14877SOL     OW51870   6.163   7.725   7.735 -0.7207  0.5024  0.6516
14877SOL    HW151871   6.174   7.764   7.649 -0.3293 -0.3328  0.3085
14877SOL    HW251872   6.252   7.721   7.771 -0.4175 -1.9989 -0.2079
14878SOL     OW51873   4.249   1.388   7.098 -0.7657  0.1350  0.2129
14878SOL    HW151874   4.288   1.442   7.030 -0.0702  0.2502  0.6985
14878SOL    HW251875   4.246   1.444   7.175 -1.0425 -0.1688  0.4271
14879SOL     OW51876   8.620   6.330   5.944 -0.0730 -0.0657 -0.1212
14879SOL    HW151877   8.603   6.236   5.946 -1.3101  0.0946  3.1596
14879SOL    HW251878   8.661   6.345   5.859  0.0281 -3.5120 -0.8323
14880SOL     OW51879  11.051   2.723  10.055  0.3162 -0.4710 -0.0296
14880SOL    HW151880  11.117   2.715  10.124  0.0911 -2.2992  0.0084
14880SOL    HW251881  11.082   2.796  10.001  1.2614  0.0515  1.1727
14881SOL     OW51882  11.450  12.692   8.439 -0.2425  0.5246  0.1609
14881SOL    HW151883  11.437  12.623   8.504  3.3379 -1.3944 -0.9373
14881SOL    HW251884  11.486  12.765   8.489  0.1533 -0.0431  0.7274
14882SOL     OW51885   7.994   1.150   5.636  0.8388  0.1964 -0.5191
14882SOL    HW151886   8.069   1.133   5.693 -1.7198 -3.2684  2.2215
14882SOL    HW251887   7.995   1.079   5.573 -1.0221 -0.9880  0.7015
14883SOL     OW51888   7.491  11.639   7.922 -0.1614  0.2257 -0.3005
14883SOL    HW151889   7.481  11.727   7.958 -0.4613  0.5991 -1.2560
14883SOL    HW251890   7.401  11.608   7.911 -0.0557 -0.8055  1.4063
14884SOL     OW51891   2.890   3.050  11.746  0.2870  0.6694  0.1678
14884SOL    HW151892   2.809   3.099  11.731 -1.1830 -1.5561  0.2459
14884SOL    HW251893   2.922   3.030  11.658 -0.2585  0.0237  0.1110
14885SOL     OW51894   7.425   5.619   6.155  0.1330  0.2289  0.3474
14885SOL    HW151895   7.411   5.535   6.112 -0.2920  0.4455  0.0472
14885SOL    HW251896   7.397   5.684   6.090  1.0849  0.6315  0.3181
14886SOL     OW51897   7.478   3.427   0.393 -0.4914 -0.1442  0.1432
14886SOL    HW151898   7.402   3.484   0.385  1.9653  3.3618 -0.3845
14886SOL    HW251899   7.504   3.435   0.484  0.8871  1.0846 -0.3304
14887SOL     OW51900   0.304   5.287  12.451  0.4260  0.8113  0.3648
14887SOL    HW151901   0.297   5.360  12.513  0.7877  2.1121 -1.0621
14887SOL    HW251902   0.379   5.310  12.397  1.2870 -1.2369  0.6200
14888SOL     OW51903   1.090   7.169   2.264  0.2149  0.0948  0.0980
14888SOL    HW151904   1.127   7.231   2.201 -2.2108  1.8354  0.2403
14888SOL    HW251905   1.101   7.212   2.349 -1.5605  0.4486  0.1920
14889SOL     OW51906  10.087   9.774   3.352  0.2310  0.3754  0.0128
14889SOL    HW151907  10.150   9.799   3.419 -1.3487  2.0488  0.9646
14889SOL    HW251908  10.125   9.805   3.270  0.8015  1.0769  0.5337
14890SOL     OW51909   7.982  10.865  12.664  0.3769  0.1926 -0.5790
14890SOL    HW151910   8.051  10.923  12.695  0.0484  0.2292  0.0968
14890SOL    HW251911   7.950  10.821  12.742 -1.6233  1.5453 -0.5581
14891SOL     OW51912   9.905  12.047   9.849  0.4254  0.0845  0.1856
14891SOL    HW151913   9.971  12.059   9.780  1.7584  0.0820  1.4145
14891SOL    HW251914   9.824  12.031   9.802  1.5588 -1.3556 -1.3851
14892SOL     OW51915   8.105   2.043   2.821 -0.8354 -0.0923  0.8702
14892SOL    HW151916   8.094   1.948   2.823 -1.9174 -0.0186 -0.0953
14892SOL    HW251917   8.182   2.060   2.876 -0.4684 -1.5414  0.8513
14893SOL     OW51918   6.164   9.668  10.430  0.0084 -0.0481 -0.1926
14893SOL    HW151919   6.108   9.702  10.360  0.5119  1.8685  0.2819
14893SOL    HW251920   6.209   9.593  10.390 -1.2361 -0.2679 -1.2582
14894SOL     OW51921   2.714   5.968  10.113  0.5185 -0.7056  0.0747
14894SOL    HW151922   2.719   6.062  10.100  0.6716 -0.5826  0.9209
14894SOL    HW251923   2.791   5.933  10.069  0.6122 -0.4075 -0.0001
14895SOL     OW51924   8.902   3.935  10.330 -0.4599 -0.2515  0.4456
14895SOL    HW151925   8.968   3.868  10.313  0.4342  0.2978  1.6278
14895SOL    HW251926   8.829   3.886  10.370 -0.7927 -0.8508 -0.8298
14896SOL     OW51927   0.349   8.751   8.123  0.4429  0.0003 -0.0859
14896SOL    HW151928   0.320   8.796   8.202 -1.1959 -0.3621 -0.4388
14896SOL    HW251929   0.309   8.664   8.128  2.7041 -1.1005  0.0831
14897SOL     OW51930  12.216   3.930   9.606  0.2687  0.2312 -0.1166
14897SOL    HW151931  12.270   3.860   9.641  0.3449 -0.5012 -1.5947
14897SOL    HW251932  12.152   3.948   9.674 -0.1501 -1.7456  0.0692
14898SOL     OW51933   8.277   5.661   4.589  0.5899  0.5449 -0.2320
14898SOL    HW151934   8.241   5.721   4.655  1.4569  0.5267  0.2721
14898SOL    HW251935   8.339   5.607   4.637 -2.2436 -2.8317 -0.0024
14899SOL     OW51936   1.183   1.817   6.225 -0.4255 -0.4075 -0.2485
14899SOL    HW151937   1.140   1.833   6.309  0.1405  0.2946 -0.0858
14899SOL    HW251938   1.144   1.735   6.194 -0.8434 -0.5288  0.5626
14900SOL     OW51939  12.282   1.245   4.028 -0.0862 -0.2588  0.0279
14900SOL    HW151940  12.258   1.229   4.119  0.7404  0.0805  0.3173
14900SOL    HW251941  12.312   1.159   3.996  0.9591 -0.0878  0.5079
14901SOL     OW51942   7.669  12.081   1.022  0.0639  0.0630  0.4213
14901SOL    HW151943   7.592  12.029   1.047  0.3004 -0.2158  0.5689
14901SOL    HW251944   7.639  12.133   0.947  0.2977 -1.5277 -0.8289
14902SOL     OW51945   7.138  11.870   6.841  0.1432  0.1822 -0.0929
14902SOL    HW151946   7.148  11.873   6.936  1.5984  1.2415 -0.2451
14902SOL    HW251947   7.114  11.779   6.822 -0.3570  0.0085  1.2918
14903SOL     OW51948  11.030  12.609   4.802  0.5619 -0.1323  0.0513
14903SOL    HW151949  11.009  12.516   4.791 -2.1564  0.6033 -2.2865
14903SOL    HW251950  11.048  12.640   4.713 -1.3033  2.0607  0.3194
14904SOL     OW51951   9.961   5.863   1.607  1.0914  0.2500 -0.5660
14904SOL    HW151952   9.999   5.784   1.645  0.1293 -0.5775 -1.2678
14904SOL    HW251953   9.967   5.928   1.676 -0.9809 -1.3056  1.1899
14905SOL     OW51954   5.150   2.091   9.429  0.5154  0.1642 -0.2649
14905SOL    HW151955   5.221   2.027   9.435  0.5184  0.1552 -0.3916
14905SOL    HW251956   5.187   2.172   9.463 -0.1783 -0.4477  2.1193
14906SOL     OW51957   7.102   0.747   5.438  0.2600  0.5414  0.2931
14906SOL    HW151958   7.119   0.825   5.385  0.2139  0.0874 -0.3955
14906SOL    HW251959   7.188   0.707   5.451  0.2182  0.4169  0.1906
14907SOL     OW51960  10.053   7.360   0.453 -0.1230 -0.0749  0.5844
14907SOL    HW151961  10.027   7.379   0.363 -0.4884  2.0421  1.0749
14907SOL    HW251962  10.048   7.265   0.460 -2.1832 -0.1674 -1.0251
14908SOL     OW51963   1.882  11.410   9.580  0.2871  0.7607  0.9629
14908SOL    HW151964   1.919  11.402   9.668  0.1112 -1.8823  0.8792
14908SOL    HW251965   1.788  11.405   9.592  0.2756 -0.0408  0.6093
14909SOL     OW51966   2.687   1.824   3.588  0.0109  0.1384 -0.5651
14909SOL    HW151967   2.640   1.821   3.505 -0.1691  2.5090 -0.6238
14909SOL    HW251968   2.779   1.829   3.564  0.0106 -0.0184 -0.5973
14910SOL     OW51969   7.947  11.217   5.227 -0.0476  0.0412 -0.3649
14910SOL    HW151970   7.924  11.127   5.203 -0.1689  0.0114 -0.1358
14910SOL    HW251971   7.961  11.260   5.143  0.7989 -0.3974 -0.4584
14911SOL     OW51972   1.695   9.649   6.133 -0.1936 -0.3664 -0.5355
14911SOL    HW151973   1.646   9.595   6.194  0.2324 -0.3618 -0.1853
14911SOL    HW251974   1.635   9.664   6.060 -0.6355 -0.5326 -0.2065
14912SOL     OW51975   2.436   4.384   4.842 -0.1052 -0.5018  0.5830
14912SOL    HW151976   2.351   4.380   4.886 -0.5849  0.2104 -0.2593
14912SOL    HW251977   2.418   4.360   4.752  0.9163 -2.1567  0.7854
14913SOL     OW51978  10.938   2.043   3.451  0.6888 -0.0116  0.0904
14913SOL    HW151979  10.933   2.089   3.535  0.6883 -0.4123  0.3104
14913SOL    HW251980  10.875   1.972   3.458 -1.7513  1.7924 -1.4276
14914SOL     OW51981  10.476  12.383   5.638  0.4059  0.4849  0.2658
14914SOL    HW151982  10.407  12.440   5.602  0.4677  0.1074 -0.4776
14914SOL    HW251983  10.429  12.307   5.671  0.4985 -0.0592 -0.8085
14915SOL     OW51984   4.143   2.163   7.928 -0.8651 -0.2229 -0.1700
14915SOL    HW151985   4.134   2.234   7.991 -1.8210  0.0129 -0.5552
14915SOL    HW251986   4.069   2.175   7.868 -0.2845 -0.7554 -1.0151
14916SOL     OW51987  12.105   2.899   1.042 -0.1290 -0.6458  0.0443
14916SOL    HW151988  12.042   2.963   1.076 -0.5225 -0.6388 -0.6782
14916SOL    HW251989  12.152   2.946   0.973 -1.3054 -1.4873 -1.3931
14917SOL     OW51990   5.351   7.110   3.786  0.0439  0.2901 -0.0002
14917SOL    HW151991   5.430   7.084   3.739 -0.2727  0.7356 -0.7951
14917SOL    HW251992   5.330   7.035   3.842  0.0624 -0.5032 -1.0386
14918SOL     OW51993   8.309   9.392  10.694  0.1398 -0.5289 -0.8057
14918SOL    HW151994   8.239   9.329  10.676 -1.6613  1.1559 -0.0876
14918SOL    HW251995   8.347   9.362  10.777 -1.5729 -0.0254  0.2202
14919SOL     OW51996   9.139   9.516   2.053 -0.1610 -0.1022 -0.7097
14919SOL    HW151997   9.067   9.548   2.107 -0.6853  1.5867 -2.2952
14919SOL    HW251998   9.113   9.426   2.031 -1.4081  0.2040 -0.5982
14920SOL     OW51999  11.680   5.310   5.358  0.2961  0.4046 -0.7616
14920SOL    HW152000  11.763   5.263   5.351  0.0929 -0.2767  1.0625
14920SOL    HW252001  11.676   5.339   5.449 -1.9796 -0.5671 -0.4980
14921SOL     OW52002   0.041   8.959   8.149  0.3805  0.0583  0.3528
14921SOL    HW152003   0.046   8.972   8.054  0.6405  0.3488  0.4052
14921SOL    HW252004   0.124   8.993   8.182 -0.6812  2.2332  0.9556
14922SOL     OW52005   7.495   2.364   1.042  0.6890  0.3153  0.3058
14922SOL    HW152006   7.548   2.290   1.014 -0.7317 -1.2443  1.5439
14922SOL    HW252007   7.525   2.383   1.131  0.8772  1.0959  0.0868
14923SOL     OW52008   8.336  10.844   1.129  1.2689  0.8000  0.3203
14923SOL    HW152009   8.385  10.893   1.195  0.1336  0.3207  1.5865
14923SOL    HW252010   8.280  10.909   1.088  0.8658  0.8593  0.9371
14924SOL     OW52011   1.907   5.638   9.912  0.1263  0.0058 -0.1250
14924SOL    HW152012   1.845   5.632   9.839  1.0513  0.1463 -0.9409
14924SOL    HW252013   1.867   5.587   9.982 -0.7309 -0.2156 -0.7586
14925SOL     OW52014   1.428   0.350   6.152  0.0341 -0.7220 -0.3321
14925SOL    HW152015   1.360   0.289   6.122 -0.4291  0.6192 -2.1714
14925SOL    HW252016   1.471   0.380   6.071  0.5779  0.9945  0.5514
14926SOL     OW52017   4.119   6.537   6.244  0.2221 -0.3885 -0.1803
14926SOL    HW152018   4.184   6.537   6.173  0.2609 -2.1906 -0.1976
14926SOL    HW252019   4.136   6.618   6.292  1.1656  0.1499 -1.3678
14927SOL     OW52020  10.152   8.325   9.579  0.6829 -0.2965  0.4886
14927SOL    HW152021  10.150   8.251   9.639 -0.7081 -1.1722 -0.5822
14927SOL    HW252022  10.245   8.349   9.574  1.0477 -1.3982  1.5135
14928SOL     OW52023   2.446   4.501   1.040  0.3088 -0.7770 -0.5074
14928SOL    HW152024   2.467   4.473   1.129 -1.4608  0.1956  0.2572
14928SOL    HW252025   2.493   4.584   1.030 -1.0890  0.1379  0.2876
14929SOL     OW52026   5.208   6.694   0.697 -0.1903 -0.0357 -0.1864
14929SOL    HW152027   5.303   6.701   0.688  0.0316 -0.7160  1.2311
14929SOL    HW252028   5.190   6.727   0.785 -1.3358  0.5113 -0.6088
14930SOL     OW52029   7.222   9.068   9.747  0.1795  0.2369  0.1814
14930SOL    HW152030   7.267   8.995   9.704  1.6838  1.5054 -0.5088
14930SOL    HW252031   7.264   9.146   9.711 -1.1366  1.4487  1.1649
14931SOL     OW52032   6.543  11.534  11.000 -0.2329  0.1595  0.0940
14931SOL    HW152033   6.535  11.446  11.037 -0.6682 -1.0953 -2.7430
14931SOL    HW252034   6.615  11.528  10.938 -0.5037  1.7136 -0.4203
14932SOL     OW52035   8.121  11.828   6.098  0.8887  0.1518  0.0193
14932SOL    HW152036   8.125  11.922   6.080 -0.2023  0.3038  0.4974
14932SOL    HW252037   8.116  11.822   6.193  1.6012 -0.4204  0.0212
14933SOL     OW52038   5.346  12.510   6.413  0.8368 -0.6004 -0.0229
14933SOL    HW152039   5.383  12.490   6.499 -1.6802 -0.5373  1.1775
14933SOL    HW252040   5.271  12.451   6.405  0.3344  0.2088 -1.6828
14934SOL     OW52041   5.400   9.701   2.239 -0.0131  0.2816 -0.1458
14934SOL    HW152042   5.435   9.749   2.313 -0.5645  0.2949  0.1114
14934SOL    HW252043   5.307   9.726   2.235 -0.4494 -1.1258  0.3120
14935SOL     OW52044   3.132   0.174   5.793 -0.0442 -0.9223 -0.2294
14935SOL    HW152045   3.118   0.255   5.842 -0.8111 -0.6547 -0.8672
14935SOL    HW252046   3.101   0.105   5.851 -2.8680 -0.4633 -1.0130
14936SOL     OW52047   2.877   1.853   0.055  0.1738  0.1986  0.5610
14936SOL    HW152048   2.943   1.916   0.028 -0.8400  1.3125  0.6090
14936SOL    HW252049   2.886   1.847   0.150 -0.2708  0.9330  0.6604
14937SOL     OW52050   4.592   4.368   0.063 -0.7334  0.4475 -0.0046
14937SOL    HW152051   4.520   4.340   0.119 -0.3342 -0.0007  0.2923
14937SOL    HW252052   4.575   4.461   0.047 -1.8351  0.1522 -0.6524
14938SOL     OW52053   4.187   5.103   5.054  0.4561 -0.1089 -0.5301
14938SOL    HW152054   4.109   5.055   5.026  0.4324  0.6847 -1.8719
14938SOL    HW252055   4.158   5.194   5.060  0.4426 -0.1969  2.2090
14939SOL     OW52056   7.984   8.408   3.365  0.6916 -0.4380  0.3587
14939SOL    HW152057   7.999   8.321   3.329  0.4719 -0.8937  1.3388
14939SOL    HW252058   8.054   8.462   3.328  0.0173 -0.6843 -1.3736
14940SOL     OW52059   5.179  10.509  10.067 -0.1614  0.1107  0.3686
14940SOL    HW152060   5.169  10.475  10.156 -0.9672 -0.0704  0.2178
14940SOL    HW252061   5.266  10.479  10.040 -0.3601 -0.7976  0.6875
14941SOL     OW52062   0.825  10.299   0.053 -0.2351 -0.2430 -0.0200
14941SOL    HW152063   0.758  10.277   0.118 -0.6278 -0.3540 -0.4507
14941SOL    HW252064   0.889  10.351   0.101 -0.9301  0.3702  0.2731
14942SOL     OW52065   5.244   0.565   1.358  0.2660  0.1437  0.0072
14942SOL    HW152066   5.200   0.580   1.274 -0.3967  1.8653  0.6039
14942SOL    HW252067   5.183   0.509   1.407  0.0226  0.2487 -0.1719
14943SOL     OW52068   3.564   4.519   8.236 -0.1469 -0.8704 -0.3766
14943SOL    HW152069   3.658   4.521   8.216 -0.0250  0.1438  0.2114
14943SOL    HW252070   3.531   4.444   8.187  0.5724  0.0673 -2.4263
14944SOL     OW52071   3.121   7.239  10.648 -0.0953 -0.3988 -0.3955
14944SOL    HW152072   3.054   7.182  10.610  0.7715 -1.3451 -0.5439
14944SOL    HW252073   3.189   7.179  10.678  1.0010  0.5788 -0.8631
14945SOL     OW52074   0.228   5.874   5.278 -0.1847 -0.2070 -0.2105
14945SOL    HW152075   0.272   5.804   5.230 -2.6253  0.1816 -3.3700
14945SOL    HW252076   0.167   5.828   5.336 -0.7421 -0.7815 -1.2088
14946SOL     OW52077   2.454   9.300  11.873  0.0105  0.4500  0.2445
14946SOL    HW152078   2.360   9.315  11.882 -0.7586 -2.7048 -1.1217
14946SOL    HW252079   2.475   9.241  11.946  0.4672 -0.3622 -0.5245
14947SOL     OW52080   1.320   2.494   2.651 -0.2726  0.5043 -0.2645
14947SOL    HW152081   1.258   2.443   2.598 -0.2471 -0.2304  0.3891
14947SOL    HW252082   1.312   2.456   2.739 -2.1472  3.2955  0.8971
14948SOL     OW52083   3.771   4.383   3.709 -0.3989  0.0923 -0.6969
14948SOL    HW152084   3.693   4.358   3.758  0.2617 -1.0778 -0.1894
14948SOL    HW252085   3.823   4.434   3.771 -0.9616  1.2860 -1.1865
14949SOL     OW52086   5.363  12.691   8.392  0.4845 -0.7288 -0.7384
14949SOL    HW152087   5.399  12.737   8.316 -1.0580  0.2112 -0.9535
14949SOL    HW252088   5.374  12.753   8.465  0.6219 -1.0172 -0.5146
14950SOL     OW52089   4.424  10.427   0.334 -0.2300 -0.5166  0.2980
14950SOL    HW152090   4.445  10.369   0.407  1.0970 -2.0470 -1.2274
14950SOL    HW252091   4.500  10.486   0.328 -0.0647 -0.7760 -0.1998
14951SOL     OW52092  11.176   1.715   7.125  0.0699  0.2972  0.0907
14951SOL    HW152093  11.223   1.663   7.060 -1.2530  0.8211 -1.3568
14951SOL    HW252094  11.090   1.672   7.132  0.8067 -0.9513  3.0410
14952SOL     OW52095   9.487   7.319   9.088  0.1723  0.6500  0.4283
14952SOL    HW152096   9.479   7.356   9.176  3.2744  0.6441  0.8269
14952SOL    HW252097   9.423   7.248   9.086  0.6718 -0.0163  3.1080
14953SOL     OW52098   5.883  12.071   0.453  0.0522 -0.8839 -0.4130
14953SOL    HW152099   5.867  12.087   0.360 -0.7369 -2.1843 -0.5223
14953SOL    HW252100   5.826  11.997   0.475  1.3031 -1.5449  0.7505
14954SOL     OW52101   4.165   6.111   8.180  0.6226  0.4027 -0.0623
14954SOL    HW152102   4.137   6.029   8.222 -0.3845  0.6769 -0.1668
14954SOL    HW252103   4.255   6.122   8.209 -0.1189  0.7687  2.3785
14955SOL     OW52104   8.844  11.655   1.583 -0.0994 -0.4521  0.6213
14955SOL    HW152105   8.761  11.654   1.535 -0.1586  0.8284  0.6614
14955SOL    HW252106   8.911  11.647   1.515 -0.2332 -3.2389  0.7072
14956SOL     OW52107   2.963   5.431   6.080  0.0649  0.0173 -1.1607
14956SOL    HW152108   2.888   5.372   6.089  0.5070 -0.2657  1.2576
14956SOL    HW252109   2.925   5.514   6.049 -1.2613 -0.1334 -0.0219
14957SOL     OW52110   2.085   0.360  10.139 -0.0606  0.1217  0.3994
14957SOL    HW152111   2.148   0.417  10.094  0.6700 -0.6390  0.4279
14957SOL    HW252112   2.010   0.355  10.079 -0.3063  1.4225  0.5795
14958SOL     OW52113   6.642   0.671   2.567 -0.7235  0.1044 -0.1226
14958SOL    HW152114   6.730   0.672   2.530 -1.2702  2.1750 -1.4990
14958SOL    HW252115   6.634   0.583   2.605  1.8018 -0.2503 -0.2058
14959SOL     OW52116   8.744  11.732   8.212 -0.6869 -0.2537 -0.3970
14959SOL    HW152117   8.663  11.755   8.167 -1.7713  0.1263  1.6146
14959SOL    HW252118   8.731  11.764   8.302  0.6132 -2.5176  0.6781
14960SOL     OW52119   3.169   8.337   8.550  0.1944  0.2898 -0.8808
14960SOL    HW152120   3.144   8.426   8.573  2.9370  0.6288  1.3121
14960SOL    HW252121   3.098   8.282   8.585 -0.5632  1.4732 -0.5038
14961SOL     OW52122   6.078  10.432   4.945 -0.6558  0.1383  0.2657
14961SOL    HW152123   5.998  10.450   4.896  0.2681 -2.0368 -2.2687
14961SOL    HW252124   6.139  10.500   4.916 -0.2912 -0.8008 -1.2651
14962SOL     OW52125   3.850   5.979   2.709 -0.3834  0.5460 -0.4442
14962SOL    HW152126   3.931   5.932   2.726 -0.8162  0.0161  0.2169
14962SOL    HW252127   3.832   5.963   2.616 -1.3353 -1.9813  0.0880
14963SOL     OW52128   1.348  11.215   7.289  0.2345  0.0470 -0.5635
14963SOL    HW152129   1.291  11.143   7.317  1.4683 -0.8207 -0.1831
14963SOL    HW252130   1.403  11.233   7.366  0.2761  1.0577 -0.8240
14964SOL     OW52131   5.148   0.214   7.831  0.1165  0.1714  0.3208
14964SOL    HW152132   5.157   0.119   7.823  0.0650  0.0709  1.3751
14964SOL    HW252133   5.161   0.246   7.742  2.7859 -0.6241  0.3405
14965SOL     OW52134  10.632   1.752  11.426 -0.2534  0.3383  0.2265
14965SOL    HW152135  10.697   1.807  11.471  0.7065 -0.1086 -0.5753
14965SOL    HW252136  10.600   1.693  11.494  0.3514  0.4137  0.5872
14966SOL     OW52137   6.554   3.612  12.340  0.3868 -0.1405  0.2053
14966SOL    HW152138   6.500   3.664  12.280  0.9021 -0.1329 -0.2620
14966SOL    HW252139   6.534   3.647  12.427 -0.6150 -0.3676  0.0857
14967SOL     OW52140   8.024   9.361   8.707 -0.4469  0.0983  0.0634
14967SOL    HW152141   7.934   9.328   8.702 -1.4100  2.0715  2.2764
14967SOL    HW252142   8.023   9.422   8.780  1.9588  2.5785 -1.7660
14968SOL     OW52143   0.596   4.077   3.166 -0.0604  0.9089  0.0015
14968SOL    HW152144   0.645   4.000   3.137 -1.0042  0.1437  0.3898
14968SOL    HW252145   0.505   4.048   3.167 -0.1633  1.0544  3.1356
14969SOL     OW52146   1.230   1.779  10.230  0.0322  0.1085  0.0618
14969SOL    HW152147   1.206   1.871  10.224 -2.6498 -0.5460 -0.7667
14969SOL    HW252148   1.244   1.752  10.139  2.8156  0.0924  0.4157
14970SOL     OW52149  10.833   8.589   6.848 -0.0910 -0.5057 -0.1406
14970SOL    HW152150  10.764   8.619   6.907 -0.2033 -0.4981 -0.2763
14970SOL    HW252151  10.858   8.503   6.882  2.0223  0.7958  1.7973
14971SOL     OW52152   1.209   8.960   4.675  0.3652 -0.8277  0.0255
14971SOL    HW152153   1.260   8.913   4.742  0.2009 -2.1512 -0.7463
14971SOL    HW252154   1.239   8.923   4.592 -1.1797 -0.9613 -0.4995
14972SOL     OW52155   3.957   1.656   6.476  0.0462 -0.0764 -0.0798
14972SOL    HW152156   3.998   1.616   6.552  0.5630 -0.8707 -0.7630
14972SOL    HW252157   3.864   1.634   6.484  0.0682 -0.0129  0.3952
14973SOL     OW52158   1.294  10.991   4.366 -0.3960 -0.3991 -0.0821
14973SOL    HW152159   1.312  11.085   4.370  0.4759 -0.5826  0.5843
14973SOL    HW252160   1.330  10.963   4.281  0.2005 -0.2918  0.1277
14974SOL     OW52161   4.170   8.284   5.473 -0.4146 -0.1336  0.5387
14974SOL    HW152162   4.191   8.375   5.496 -0.1982  0.1206 -0.5989
14974SOL    HW252163   4.208   8.232   5.544  3.0641  0.3782 -0.7716
14975SOL     OW52164  11.272   2.460   9.114  0.4404 -0.4229 -0.2175
14975SOL    HW152165  11.298   2.458   9.206 -0.1031 -0.5120 -0.0632
14975SOL    HW252166  11.206   2.392   9.106  1.1746 -1.0749 -0.8898
14976SOL     OW52167  10.319   3.127   2.310  0.0087  0.0335 -0.3678
14976SOL    HW152168  10.262   3.198   2.281  2.4695  2.5650  0.5500
14976SOL    HW252169  10.294   3.053   2.255 -2.5107  1.6417 -1.6022
14977SOL     OW52170   1.764  10.668   7.629  0.0642  0.1832  0.2245
14977SOL    HW152171   1.706  10.604   7.588  0.4625 -0.7831  1.1124
14977SOL    HW252172   1.783  10.631   7.715  1.8979  0.5295  0.0137
14978SOL     OW52173  11.897   7.377  10.591  0.3184 -0.0522 -0.3166
14978SOL    HW152174  11.838   7.374  10.666 -0.0173 -0.7611 -0.5981
14978SOL    HW252175  11.934   7.465  10.593 -1.1087  0.5770 -0.3936
14979SOL     OW52176   8.694   9.743   0.386 -0.3402  0.0209 -0.7072
14979SOL    HW152177   8.605   9.770   0.407 -0.5925 -0.9856 -0.4478
14979SOL    HW252178   8.689   9.711   0.296 -0.1862  0.2078 -0.7825
14980SOL     OW52179   9.777   3.282   5.220 -0.2636  0.5280 -0.4942
14980SOL    HW152180   9.761   3.376   5.212  1.0091  0.6651 -1.7276
14980SOL    HW252181   9.847   3.264   5.159  0.5069 -0.9981  0.7637
14981SOL     OW52182   1.592  10.521   6.584 -0.4608 -0.3551 -0.0562
14981SOL    HW152183   1.663  10.583   6.596 -0.4587 -0.3503 -0.0920
14981SOL    HW252184   1.631  10.436   6.602 -0.1652 -0.4652 -1.1310
14982SOL     OW52185  11.968   9.696  10.124  0.0910  0.0102  0.5998
14982SOL    HW152186  11.899   9.631  10.113 -0.3042  0.3834  0.8995
14982SOL    HW252187  12.040   9.663  10.068 -0.2622 -0.4525  0.4090
14983SOL     OW52188   1.228  10.081   3.276  0.7163 -0.4470 -0.6878
14983SOL    HW152189   1.189  10.168   3.287  2.2333  0.3100 -0.9329
14983SOL    HW252190   1.182  10.026   3.338  0.4959  0.8040  0.3084
14984SOL     OW52191   6.383   5.009  10.362 -1.0876  0.0042 -0.1093
14984SOL    HW152192   6.291   4.981  10.367 -1.1490  0.3005  0.5657
14984SOL    HW252193   6.389   5.082  10.423 -0.1380 -0.7519  0.7343
14985SOL     OW52194   5.731  10.052   5.301  0.0941 -0.8645 -0.3867
14985SOL    HW152195   5.718  10.072   5.394 -1.6942  3.0606 -1.2590
14985SOL    HW252196   5.825  10.055   5.288  0.2884  0.3479  1.0289
14986SOL     OW52197   5.820  11.057   7.173 -0.2011 -0.4975  0.5658
14986SOL    HW152198   5.886  10.990   7.161 -0.8513 -1.2990  1.3461
14986SOL    HW252199   5.747  11.012   7.214 -0.8642  0.5746  0.6062
14987SOL     OW52200   1.330  11.560  10.797 -0.4049  0.0119  0.9555
14987SOL    HW152201   1.304  11.598  10.881 -0.3971 -0.1708  1.0412
14987SOL    HW252202   1.332  11.634  10.736  1.0495  0.4072  1.4478
14988SOL     OW52203  10.132   6.741   8.953 -0.2556 -0.1322 -0.4113
14988SOL    HW152204  10.129   6.701   9.040 -1.9959 -0.7195 -0.6836
14988SOL    HW252205  10.046   6.782   8.943 -0.2929 -0.5093 -2.0309
14989SOL     OW52206   9.870   7.761   2.669  0.1025  0.2873 -0.2743
14989SOL    HW152207   9.795   7.820   2.664 -0.6999 -0.6637  0.3511
14989SOL    HW252208   9.906   7.762   2.580 -0.2280  1.2758 -0.4135
14990SOL     OW52209  11.544   9.216   5.194 -0.6539 -0.2063 -0.0295
14990SOL    HW152210  11.612   9.160   5.232 -0.0066  0.5026 -0.1011
14990SOL    HW252211  11.549   9.297   5.246  0.4447  0.9019 -1.7613
14991SOL     OW52212   7.428   6.897  12.348  0.7060 -0.5958 -0.2174
14991SOL    HW152213   7.431   6.948  12.267  1.0742 -2.5752 -1.5251
14991SOL    HW252214   7.338   6.863  12.351  0.6772 -0.4828  0.2448
14992SOL     OW52215   1.703   6.062   7.652 -0.2300 -0.0961 -0.3314
14992SOL    HW152216   1.668   5.975   7.633 -0.4745  0.2774 -1.6789
14992SOL    HW252217   1.625   6.117   7.663 -0.0715  0.1662 -0.5178
14993SOL     OW52218   6.456   2.932  10.957 -0.4630 -0.0499  0.9761
14993SOL    HW152219   6.425   2.997  11.021 -0.8154  2.2749 -1.3858
14993SOL    HW252220   6.546   2.959  10.939 -0.2637 -0.8809  0.7152
14994SOL     OW52221   5.896   0.511   8.910  0.2640 -0.1710  0.5157
14994SOL    HW152222   5.988   0.488   8.918 -0.0658 -1.5822  0.5842
14994SOL    HW252223   5.884   0.531   8.817  0.4664 -0.8488  0.3381
14995SOL     OW52224   5.225  10.704   2.716 -0.4506  0.3327  0.5513
14995SOL    HW152225   5.220  10.798   2.701 -2.9595  0.5647  2.3242
14995SOL    HW252226   5.249  10.695   2.808 -2.3686 -0.6644  1.0073
14996SOL     OW52227  12.595   8.170   1.452 -0.0735 -0.0864 -0.3736
14996SOL    HW152228  12.542   8.135   1.380 -0.8380  0.8796 -0.2889
14996SOL    HW252229  12.538   8.167   1.529  1.2324 -2.6234  0.6280
14997SOL     OW52230   9.128   1.847   2.889  0.1176 -0.0145 -0.4564
14997SOL    HW152231   9.205   1.794   2.873 -0.1471 -0.7820  0.6955
14997SOL    HW252232   9.154   1.908   2.959  0.1275  0.7333 -1.1029
14998SOL     OW52233   5.584   1.974   5.511  0.0301  0.2350 -0.1441
14998SOL    HW152234   5.560   2.061   5.544  1.5523  0.4040  0.5939
14998SOL    HW252235   5.561   1.977   5.418 -0.1542  1.3461 -0.0815
14999SOL     OW52236   0.267   0.252   3.903 -0.1705  0.2133 -0.3909
14999SOL    HW152237   0.327   0.315   3.943  0.0066  0.5392 -1.1547
14999SOL    HW252238   0.323   0.179   3.877 -0.1864  0.2728 -0.5961
15000SOL     OW52239   4.768   3.302   7.606 -0.6116  0.1105 -0.5957
15000SOL    HW152240   4.703   3.236   7.630  1.0936 -0.9874  1.3896
15000SOL    HW252241   4.793   3.280   7.516 -2.5598  0.2692 -1.2246
15001SOL     OW52242   3.384   9.751   1.633  0.3217 -0.5988 -0.0255
15001SOL    HW152243   3.349   9.836   1.604  1.2364 -0.0986  0.3091
15001SOL    HW252244   3.352   9.742   1.723 -0.7758 -1.1812 -0.4560
15002SOL     OW52245   8.956   9.848   6.176 -0.5169 -0.5784  0.1035
15002SOL    HW152246   9.014   9.829   6.102 -1.4665 -0.6366 -0.6473
15002SOL    HW252247   8.950   9.765   6.224  0.1848 -0.5138  0.3036
15003SOL     OW52248   4.375  11.103   0.448 -0.1820 -0.0934 -0.0306
15003SOL    HW152249   4.442  11.065   0.507  0.1380 -0.7665 -0.8100
15003SOL    HW252250   4.293  11.062   0.477 -0.1978  0.3841  0.6303
15004SOL     OW52251  11.984  11.740   0.537 -0.9285 -0.6723 -0.6042
15004SOL    HW152252  11.999  11.691   0.456 -1.7051 -0.8752 -0.6265
15004SOL    HW252253  11.907  11.700   0.577  0.7315 -2.0615  1.4037
15005SOL     OW52254   8.088   2.827  10.672 -0.1859 -0.4154 -0.0813
15005SOL    HW152255   8.149   2.811  10.600  1.8313  1.2757  1.1197
15005SOL    HW252256   8.099   2.751  10.730 -0.2871 -0.7790 -0.5282
15006SOL     OW52257  11.971   6.568   8.991  0.1353 -0.4802  0.0285
15006SOL    HW152258  12.036   6.601   9.053 -1.4749  2.1203  0.4868
15006SOL    HW252259  11.960   6.640   8.928 -0.1004 -2.0736 -1.8635
15007SOL     OW52260   3.005   3.489   8.560 -0.3807 -0.0334 -0.0284
15007SOL    HW152261   2.983   3.478   8.468  3.6985 -1.2724 -1.0879
15007SOL    HW252262   2.969   3.413   8.604 -1.5302  0.0748 -0.7637
15008SOL     OW52263   3.339   1.255   4.521  0.2422 -0.0099 -0.9264
15008SOL    HW152264   3.434   1.251   4.518  0.2658  0.5385 -0.9846
15008SOL    HW252265   3.310   1.195   4.452  0.5821  1.4417 -2.3924
15009SOL     OW52266   1.116   0.716   5.050 -0.1432 -0.1266  0.1595
15009SOL    HW152267   1.063   0.746   5.124  1.8244  0.1541  1.5589
15009SOL    HW252268   1.075   0.755   4.973 -2.5052 -0.7556  1.0032
15010SOL     OW52269   8.511   6.400  10.108 -0.2357 -0.2055  0.7625
15010SOL    HW152270   8.604   6.377  10.101  0.1553  0.6263  2.6581
15010SOL    HW252271   8.511   6.491  10.137 -1.6367 -0.3039  1.1545
15011SOL     OW52272   7.261  11.659  10.650  0.8404 -0.8589 -0.1052
15011SOL    HW152273   7.336  11.688  10.599  2.4887 -0.5666  2.2920
15011SOL    HW252274   7.207  11.738  10.660  0.4098 -0.9616 -1.4642
15012SOL     OW52275   3.876   0.005   8.743  0.2405  0.4687 -0.2323
15012SOL    HW152276   3.885   0.078   8.682 -0.9533 -0.5235 -1.6380
15012SOL    HW252277   3.922  -0.068   8.701 -1.5681 -0.5435 -0.5488
15013SOL     OW52278   0.052   9.166   5.457  0.1600 -0.2003 -0.0489
15013SOL    HW152279   0.096   9.082   5.446  0.3959  0.0259 -0.8852
15013SOL    HW252280   0.046   9.202   5.369 -0.1104  0.5777  0.2772
15014SOL     OW52281   5.936   5.695  11.577 -0.0751  0.0448  0.0845
15014SOL    HW152282   5.965   5.635  11.646 -0.0151  1.1705  1.0847
15014SOL    HW252283   6.010   5.755  11.564 -0.5618  0.6377 -0.0257
15015SOL     OW52284   0.168   7.530   4.690 -0.2150  0.4237 -0.0824
15015SOL    HW152285   0.251   7.485   4.706 -1.3036 -1.4318  0.7759
15015SOL    HW252286   0.148   7.573   4.773  0.5028  2.0498 -0.7046
15016SOL     OW52287   8.176   7.734   7.008 -0.2877  0.0751 -0.2953
15016SOL    HW152288   8.184   7.762   6.916 -0.7230  0.2166 -0.2929
15016SOL    HW252289   8.099   7.677   7.009  0.5740 -1.1315 -0.2939
15017SOL     OW52290  12.160   9.254  10.829  0.5870 -0.3927 -0.2555
15017SOL    HW152291  12.115   9.182  10.873 -0.5501  0.2729 -0.2930
15017SOL    HW252292  12.124   9.253  10.740  0.2202  0.4941 -0.1228
15018SOL     OW52293   8.250   2.179   8.870  0.5101 -0.4988  0.1257
15018SOL    HW152294   8.168   2.214   8.838  1.3195  0.5237 -0.9018
15018SOL    HW252295   8.231   2.087   8.889 -0.8826 -0.2484  0.0294
15019SOL     OW52296   3.998   2.907   2.992  0.4230 -0.7202 -0.1918
15019SOL    HW152297   4.063   2.949   3.049 -1.5249  1.1962  0.7476
15019SOL    HW252298   3.974   2.976   2.930 -1.4997 -0.9816  0.2006
15020SOL     OW52299  10.142   3.826   9.442  0.8693 -0.0447  0.2645
15020SOL    HW152300  10.094   3.800   9.363  0.1338  0.5243  0.5158
15020SOL    HW252301  10.194   3.749   9.464 -0.5298 -0.9782  0.4410
15021SOL     OW52302   6.125   3.822   2.749  0.4501 -0.0934 -0.6964
15021SOL    HW152303   6.066   3.880   2.797  1.4281  0.5831 -0.2879
15021SOL    HW252304   6.107   3.735   2.785 -1.0552 -0.0771 -1.3407
15022SOL     OW52305  11.603   7.558  11.363 -0.4538 -0.1901 -0.0324
15022SOL    HW152306  11.603   7.643  11.407 -0.8326  0.3793 -1.0906
15022SOL    HW252307  11.638   7.497  11.428  0.6736  0.9259  0.4369
15023SOL     OW52308   2.203  11.794   0.751 -0.0002 -0.1299 -0.2167
15023SOL    HW152309   2.247  11.729   0.697  0.0569  0.4639 -0.9001
15023SOL    HW252310   2.229  11.878   0.713 -0.0746  0.2969  0.6467
15024SOL     OW52311   5.096   2.053   8.810  0.5480 -0.7142 -0.0089
15024SOL    HW152312   5.167   1.990   8.822 -0.0165 -1.1924  0.9852
15024SOL    HW252313   5.029   2.024   8.871 -1.1888 -1.2146 -2.0584
15025SOL     OW52314   6.536   7.503  10.150 -0.0362  0.1327 -0.2775
15025SOL    HW152315   6.451   7.493  10.107  0.1853  1.5153 -1.0905
15025SOL    HW252316   6.585   7.425  10.125 -1.1331 -0.8190  0.4206
15026SOL     OW52317   5.220  11.974   9.741  0.7728  0.0981 -0.5745
15026SOL    HW152318   5.290  12.022   9.785  0.4406 -0.8310  1.0771
15026SOL    HW252319   5.140  12.007   9.782 -0.1786  3.3763 -4.4990
15027SOL     OW52320   5.194   2.824   6.808 -0.0751 -0.0776 -0.0783
15027SOL    HW152321   5.154   2.813   6.894  1.1195  0.0648  0.5054
15027SOL    HW252322   5.236   2.740   6.790 -1.4527 -0.5902 -1.1591
15028SOL     OW52323   8.172   1.756   5.052  0.5694 -0.3947 -0.2185
15028SOL    HW152324   8.264   1.777   5.036 -0.0062  0.0654 -3.8440
15028SOL    HW252325   8.156   1.678   4.999 -1.1812 -0.4264  0.2902
15029SOL     OW52326  10.596   0.987   6.604  0.2776  0.1666  0.2261
15029SOL    HW152327  10.634   0.930   6.536  1.0149 -0.1523  0.8829
15029SOL    HW252328  10.502   0.976   6.594  0.2581  1.6154 -1.9971
15030SOL     OW52329   2.994   1.192   7.726 -0.2850 -0.2105  0.4593
15030SOL    HW152330   3.008   1.235   7.810 -0.2554 -0.6178  0.6657
15030SOL    HW252331   2.942   1.114   7.747  0.2692 -0.6608  0.1908
15031SOL     OW52332   0.923   5.267   9.373 -0.0710  0.7264 -0.4153
15031SOL    HW152333   0.994   5.239   9.315  0.5255  3.6744 -1.2756
15031SOL    HW252334   0.969   5.302   9.450 -0.6804  0.5369  0.0334
15032SOL     OW52335   5.371  10.248   0.492 -0.2188 -0.4900 -0.1631
15032SOL    HW152336   5.406  10.213   0.574 -1.1409 -0.4152  0.2750
15032SOL    HW252337   5.402  10.188   0.425  0.7832 -0.3983  0.1963
15033SOL     OW52338  11.015   8.079   7.982 -0.3209 -0.1963  0.0859
15033SOL    HW152339  10.953   8.016   8.019 -0.7580  0.7593  1.0097
15033SOL    HW252340  11.100   8.052   8.019 -0.0822 -1.6585 -1.3799
15034SOL     OW52341  12.055  11.002  10.285 -0.4950 -0.0841 -0.1496
15034SOL    HW152342  12.137  10.960  10.259  0.1179  1.6639 -1.1303
15034SOL    HW252343  12.028  11.052  10.209 -1.4862  0.8724  0.8049
15035SOL     OW52344   9.304   8.833  11.403  0.2917  0.7668 -0.2622
15035SOL    HW152345   9.371   8.894  11.435 -0.2448  0.8900  0.6767
15035SOL    HW252346   9.291   8.772  11.475  0.3271 -0.0587 -0.9417
15036SOL     OW52347   0.949   6.221   4.028 -0.1353  0.3355 -0.7592
15036SOL    HW152348   0.931   6.228   4.122 -1.9965 -1.8211 -0.8571
15036SOL    HW252349   1.024   6.162   4.023  0.5957  1.2390 -0.6202
15037SOL     OW52350   5.874  10.669   2.278 -0.1409  0.5310 -0.3225
15037SOL    HW152351   5.909  10.580   2.284 -0.9846 -0.0244 -2.5379
15037SOL    HW252352   5.941  10.718   2.230  0.3366  1.1421  0.9217
15038SOL     OW52353   4.843   9.598   7.537  0.6751 -0.5272  0.3107
15038SOL    HW152354   4.790   9.580   7.460  1.6667  0.1238 -0.5522
15038SOL    HW252355   4.934   9.585   7.508  1.2157  1.8403  0.7310
15039SOL     OW52356   9.319   4.313   0.184  0.1134  0.3678  0.8013
15039SOL    HW152357   9.274   4.282   0.105  0.1708 -0.0945  0.9483
15039SOL    HW252358   9.259   4.378   0.222 -0.5035 -0.3450  1.0725
15040SOL     OW52359   4.702   3.086   4.352  0.1963  0.2831 -0.1506
15040SOL    HW152360   4.711   3.140   4.273  0.0894  1.4191  0.5855
15040SOL    HW252361   4.791   3.059   4.372  0.1365 -0.7234 -1.1104
15041SOL     OW52362   9.240  12.358   1.392  0.3323  0.4859 -0.1482
15041SOL    HW152363   9.313  12.346   1.453  0.3863  2.8707  0.3739
15041SOL    HW252364   9.169  12.307   1.428  1.2481 -0.5695  0.2244
15042SOL     OW52365  11.141   0.664  12.443  0.4248 -0.7094  0.3210
15042SOL    HW152366  11.222   0.716  12.442  2.0082 -2.9857 -0.0884
15042SOL    HW252367  11.140   0.620  12.358 -1.8936  0.1182 -0.1344
15043SOL     OW52368   2.948   0.111   8.626  0.1572 -0.2967  0.4554
15043SOL    HW152369   3.016   0.172   8.656  1.0462 -0.2831 -1.4187
15043SOL    HW252370   2.995   0.030   8.610 -0.3148 -0.3854 -0.5558
15044SOL     OW52371   1.929   7.907  12.266 -0.1543  0.0945  0.1598
15044SOL    HW152372   2.001   7.943  12.214 -1.6328 -1.5947 -3.4300
15044SOL    HW252373   1.901   7.980  12.321  1.7667  1.9927 -1.1827
15045SOL     OW52374   0.876   5.290   8.633 -0.3142 -0.6465  0.0776
15045SOL    HW152375   0.965   5.309   8.663  0.2989 -1.1672 -1.3127
15045SOL    HW252376   0.819   5.331   8.698  0.9421  0.8553  0.2996
15046SOL     OW52377   5.921   4.757   0.949  0.2366 -0.3047 -0.8666
15046SOL    HW152378   5.888   4.667   0.959 -0.1493 -0.0178  0.8327
15046SOL    HW252379   5.992   4.763   1.012 -0.1011  0.7412 -0.5648
15047SOL     OW52380   8.316   3.510   7.383  0.3453  0.1657  0.6796
15047SOL    HW152381   8.398   3.466   7.404  0.3946  0.1663  0.4956
15047SOL    HW252382   8.262   3.443   7.342 -0.0185 -0.0158  1.4533
15048SOL     OW52383  10.986   0.498   1.973  0.3587 -0.2914 -0.1000
15048SOL    HW152384  10.924   0.437   1.935 -0.0669 -0.8736  1.4376
15048SOL    HW252385  10.965   0.583   1.933 -0.3786 -0.7742 -0.7544
15049SOL     OW52386  11.501   7.131   2.355 -0.3350 -0.1911  0.5447
15049SOL    HW152387  11.453   7.097   2.279 -1.2173 -2.0326  1.8598
15049SOL    HW252388  11.588   7.149   2.321 -0.5550 -1.4410 -0.8252
15050SOL     OW52389   9.323   7.840   2.169 -0.3100 -0.1424 -0.2008
15050SOL    HW152390   9.265   7.898   2.120  0.8878  0.6445 -0.7216
15050SOL    HW252391   9.291   7.844   2.259 -1.6521 -0.4949 -0.6284
15051SOL     OW52392   1.032   5.623   4.660  0.4044 -0.3716  0.5598
15051SOL    HW152393   0.997   5.705   4.696  0.2479  0.3304 -1.0797
15051SOL    HW252394   0.954   5.574   4.632  0.4306 -1.5659  2.4020
15052SOL     OW52395  12.703   6.414   4.740  0.8323 -0.5858  0.1445
15052SOL    HW152396  12.734   6.448   4.656 -0.2558  0.1597  0.0227
15052SOL    HW252397  12.637   6.478   4.769  1.3465 -0.7090  1.6758
15053SOL     OW52398   1.546   5.195   4.322 -0.2817 -0.3000 -0.2009
15053SOL    HW152399   1.554   5.125   4.256  2.1005 -0.8536  0.6008
15053SOL    HW252400   1.520   5.149   4.401  1.4158 -0.3533  0.3618
15054SOL     OW52401  10.993   7.350  12.588 -0.2497 -0.1195  0.1743
15054SOL    HW152402  10.932   7.303  12.643 -0.0242  0.2709  0.7756
15054SOL    HW252403  11.076   7.303  12.598 -0.6246 -1.1972 -1.3505
15055SOL     OW52404   2.304  12.311  11.918  0.4920 -0.6264  0.3658
15055SOL    HW152405   2.227  12.298  11.973  0.4561  0.3889  0.5759
15055SOL    HW252406   2.366  12.244  11.947 -0.3129 -1.4794  0.1720
15056SOL     OW52407  10.829   4.784   1.323 -0.4253  0.0611  0.2081
15056SOL    HW152408  10.900   4.732   1.286 -0.6761 -0.3645  0.3174
15056SOL    HW252409  10.828   4.865   1.271 -0.1501 -0.1199 -0.0796
15057SOL     OW52410   3.273   1.201  11.623  0.2462  0.3961  0.7191
15057SOL    HW152411   3.186   1.169  11.644  0.5220 -1.8816 -1.1304
15057SOL    HW252412   3.261   1.293  11.601 -1.6817  0.1252  0.5410
15058SOL     OW52413  12.472   6.409   3.423  0.0275 -0.0740  0.7520
15058SOL    HW152414  12.522   6.346   3.370  0.8597 -0.3188  1.7784
15058SOL    HW252415  12.440   6.473   3.361 -0.9266 -1.5529 -0.3533
15059SOL     OW52416  11.185   5.082   5.791  0.1219 -0.0882 -0.3951
15059SOL    HW152417  11.258   5.022   5.805 -0.3793 -0.5398  0.3559
15059SOL    HW252418  11.176   5.087   5.696  0.7377 -0.5008 -0.4811
15060SOL     OW52419   2.889  10.871  11.603 -0.6435  0.7875 -0.3660
15060SOL    HW152420   2.973  10.868  11.556 -0.1441  0.3681  0.5193
15060SOL    HW252421   2.827  10.827  11.545 -0.4467  1.8230 -1.3898
15061SOL     OW52422  11.708   2.939   7.630 -0.4883  0.7636 -0.5645
15061SOL    HW152423  11.773   2.871   7.617 -0.9905 -0.0033  0.6716
15061SOL    HW252424  11.730   3.007   7.567  0.2417 -0.3831 -1.5818
15062SOL     OW52425   1.496   4.767   4.550 -0.3846 -0.6367 -0.2536
15062SOL    HW152426   1.456   4.852   4.534 -0.4895 -0.4671  0.8012
15062SOL    HW252427   1.571   4.763   4.491  0.3120  0.6888  0.4975
15063SOL     OW52428  12.345   5.375  11.869 -0.4167 -0.0562  0.2862
15063SOL    HW152429  12.440   5.362  11.877 -0.2904 -0.5174 -1.5340
15063SOL    HW252430  12.310   5.347  11.953  0.9041 -1.8806  0.2812
15064SOL     OW52431   1.109   2.672   2.901 -0.0654 -0.4864 -0.0656
15064SOL    HW152432   1.054   2.695   2.827 -0.2364  0.6066  0.3699
15064SOL    HW252433   1.061   2.705   2.978  2.2063  2.7522  0.1643
15065SOL     OW52434   3.139   0.316   3.125  0.1809 -0.1622  0.3081
15065SOL    HW152435   3.116   0.346   3.213 -0.9737  0.7105 -0.2621
15065SOL    HW252436   3.208   0.376   3.096  1.0989 -0.9183  0.8876
15066SOL     OW52437   0.524   5.726   8.877  0.3822 -0.5894 -0.0019
15066SOL    HW152438   0.541   5.643   8.832  1.5136 -1.0677  1.2375
15066SOL    HW252439   0.592   5.731   8.944  0.7700  1.7008 -0.4966
15067SOL     OW52440   2.452   5.416   2.828  0.6198  0.8114  0.2157
15067SOL    HW152441   2.516   5.475   2.788 -1.6529  2.2592 -1.5576
15067SOL    HW252442   2.454   5.438   2.921  0.3672  3.2380 -0.2863
15068SOL     OW52443   3.315   4.313  12.188  0.0803  0.3287  0.0045
15068SOL    HW152444   3.252   4.303  12.260  0.0884 -2.3187 -0.2600
15068SOL    HW252445   3.264   4.351  12.116 -0.5371  0.6950  0.6216
15069SOL     OW52446   9.194   7.642  11.956  0.2537  0.2314 -0.3315
15069SOL    HW152447   9.234   7.657  11.870  0.4590  2.9094  0.1548
15069SOL    HW252448   9.255   7.583  12.000  1.6630  1.1026 -1.0319
15070SOL     OW52449  11.387   4.023   4.635  0.3098  0.6976 -0.1504
15070SOL    HW152450  11.390   3.928   4.632 -0.8986  0.6624 -0.8391
15070SOL    HW252451  11.423   4.046   4.721  1.8568 -0.2943 -0.5072
15071SOL     OW52452  12.589   6.809   7.042  0.3958  0.4583 -0.4583
15071SOL    HW152453  12.500   6.817   7.078  0.3767 -0.4639 -0.2667
15071SOL    HW252454  12.636   6.884   7.077  0.0972  0.1260  0.7102
15072SOL     OW52455   2.587   7.143   1.288  0.6426  0.1843 -0.1380
15072SOL    HW152456   2.492   7.137   1.287  0.6721 -0.4442  0.1545
15072SOL    HW252457   2.609   7.200   1.214  0.0754 -0.1438 -0.5664
15073SOL     OW52458   7.805   5.648   5.081 -0.2740 -0.1262  0.1034
15073SOL    HW152459   7.767   5.561   5.070 -0.4267 -0.1643  0.8638
15073SOL    HW252460   7.890   5.643   5.037 -0.3314 -0.6242  0.0422
15074SOL     OW52461   7.497   0.674  10.123  0.3982 -0.0555  0.6256
15074SOL    HW152462   7.540   0.736  10.182  0.4948  0.3577  0.1231
15074SOL    HW252463   7.456   0.610  10.182 -0.3473  0.8987  1.1890
15075SOL     OW52464   2.104  10.866   8.991 -0.6693  0.9427 -1.1050
15075SOL    HW152465   2.026  10.863   8.935 -1.0564  1.6677 -0.6316
15075SOL    HW252466   2.177  10.872   8.930 -0.6089 -3.2720 -1.7434
15076SOL     OW52467   3.700   4.092   8.170 -0.0583 -0.3443 -0.0137
15076SOL    HW152468   3.662   4.006   8.150  0.8712 -0.8646  0.3591
15076SOL    HW252469   3.637   4.155   8.135 -1.0489 -1.1666  0.2194
15077SOL     OW52470   0.869  12.300   6.089  0.1010  0.5838 -0.6240
15077SOL    HW152471   0.917  12.259   6.017  0.3548 -0.7831  0.2850
15077SOL    HW252472   0.887  12.244   6.165 -0.6115  1.6701  0.3859
15078SOL     OW52473   6.586   7.204   2.974  0.0491  0.1765  0.0629
15078SOL    HW152474   6.559   7.166   3.057 -1.4787  0.7812 -0.1194
15078SOL    HW252475   6.514   7.183   2.913  0.7259  0.4847 -0.8724
15079SOL     OW52476   2.367   0.941  11.676  0.1979  0.6245  0.0244
15079SOL    HW152477   2.370   0.926  11.771  1.2949  0.2936 -0.0490
15079SOL    HW252478   2.293   1.000  11.663  0.0151  0.6401  1.0849
15080SOL     OW52479   8.676   3.369   4.923 -0.8588  0.4188  1.1359
15080SOL    HW152480   8.759   3.416   4.927 -0.2719 -0.0936 -2.1997
15080SOL    HW252481   8.698   3.279   4.945  0.0384 -0.1753 -1.7581
15081SOL     OW52482   2.993   6.958   1.894 -0.0821 -0.6051 -0.0714
15081SOL    HW152483   2.933   7.022   1.857 -1.9586 -2.3783 -0.3152
15081SOL    HW252484   2.940   6.880   1.907  1.9810 -2.0012  0.6189
15082SOL     OW52485   5.791   4.903   0.446 -0.0123 -0.8763  0.2365
15082SOL    HW152486   5.849   4.828   0.450 -1.3972 -1.9828  0.5485
15082SOL    HW252487   5.732   4.883   0.373 -0.1592  0.0975  0.0782
15083SOL     OW52488   1.744   3.770   0.439  0.8389  0.1210 -0.7993
15083SOL    HW152489   1.807   3.734   0.502 -1.4342 -1.6141  0.6692
15083SOL    HW252490   1.717   3.853   0.478  1.8395  0.6445 -1.1957
15084SOL     OW52491   5.769  10.394   0.799  0.6343  0.1521  0.5315
15084SOL    HW152492   5.688  10.445   0.802  0.2979 -0.2687 -0.4932
15084SOL    HW252493   5.771  10.360   0.709  2.4441  0.9336  0.2481
15085SOL     OW52494   8.998  10.511   5.650  0.1488 -0.1639  0.0074
15085SOL    HW152495   9.011  10.490   5.557 -1.0288  3.3092 -1.0853
15085SOL    HW252496   8.909  10.481   5.669  0.9981 -2.5374  0.6728
15086SOL     OW52497   1.140   9.549   9.813  0.1252 -0.1034  0.1712
15086SOL    HW152498   1.149   9.644   9.822 -0.3856 -0.0992  0.7146
15086SOL    HW252499   1.057   9.536   9.768  0.2279 -0.2881  0.0340
15087SOL     OW52500   6.880   1.942   8.963 -0.2263 -0.0389 -0.3154
15087SOL    HW152501   6.959   1.996   8.965  0.4114 -0.9619  1.6229
15087SOL    HW252502   6.892   1.886   8.886  0.7628  0.1936 -0.3463
15088SOL     OW52503  11.802   4.233  12.658  0.4994 -0.0543  0.1951
15088SOL    HW152504  11.784   4.139  12.664 -1.0593  0.2105  0.0618
15088SOL    HW252505  11.733   4.274  12.711  2.0302  0.9697  1.5186
15089SOL     OW52506   8.630   7.764  11.540  0.0107 -0.0393 -0.4397
15089SOL    HW152507   8.721   7.782  11.565  0.0576  0.3441 -0.8794
15089SOL    HW252508   8.637   7.697  11.472 -0.0827 -0.5960  0.0866
15090SOL     OW52509   8.762   6.759  11.206  0.1854  0.2563  0.1265
15090SOL    HW152510   8.766   6.824  11.275 -2.9674  1.9049 -1.0141
15090SOL    HW252511   8.820   6.792  11.137  1.0157  0.1663  0.7696
15091SOL     OW52512   9.773   0.390  10.943  0.7385 -0.4788 -0.1642
15091SOL    HW152513   9.697   0.407  10.887  1.9896  1.2922 -1.4289
15091SOL    HW252514   9.736   0.356  11.024 -1.4519  0.7909 -0.5589
15092SOL     OW52515   3.931   9.639   0.705 -0.1900 -0.0165 -0.6712
15092SOL    HW152516   3.895   9.726   0.723 -0.1717 -0.2706  0.7262
15092SOL    HW252517   3.873   9.579   0.752  1.1896 -0.5534  0.4256
15093SOL     OW52518   5.389  11.048   6.130  0.1932  0.6019  0.3226
15093SOL    HW152519   5.474  11.055   6.086 -0.5623  0.9988 -1.1051
15093SOL    HW252520   5.393  10.964   6.175  0.6476 -0.2693 -1.2763
15094SOL     OW52521   6.700   9.380   0.059 -0.5243  0.4367  0.7070
15094SOL    HW152522   6.724   9.296   0.020 -0.3209 -0.4014  2.5345
15094SOL    HW252523   6.736   9.445  -0.001  0.9119 -0.7879  0.1810
15095SOL     OW52524   3.912   5.371  11.449  0.2608 -0.4808  0.1486
15095SOL    HW152525   3.894   5.305  11.516 -0.6540 -0.6608 -0.2472
15095SOL    HW252526   3.907   5.455  11.495  0.1589 -0.6331  0.4135
15096SOL     OW52527   3.283  10.957   8.719 -0.3009 -0.1460  0.0644
15096SOL    HW152528   3.357  10.896   8.711 -0.2178 -0.0233 -0.1129
15096SOL    HW252529   3.209  10.902   8.743  0.1297 -0.1088  1.5636
15097SOL     OW52530   2.197  12.264   0.798 -0.7431  0.2011  0.4257
15097SOL    HW152531   2.187  12.262   0.893 -2.1497  0.3736  0.2998
15097SOL    HW252532   2.110  12.241   0.764 -0.1984 -0.1056 -0.8184
15098SOL     OW52533   3.460   2.700   5.703  0.2962  0.0403 -0.3127
15098SOL    HW152534   3.396   2.730   5.767  1.8919  1.5855  0.6635
15098SOL    HW252535   3.540   2.686   5.754  1.1905 -0.2312 -1.7260
15099SOL     OW52536   0.032   0.034   7.900  0.1576 -0.5356 -0.0362
15099SOL    HW152537   0.017   0.041   7.805  0.7452  1.7902 -0.0103
15099SOL    HW252538   0.059  -0.057   7.912 -0.4733 -1.0593 -2.0032
15100SOL     OW52539   8.640   1.804   5.835 -0.8232  0.0413 -0.9066
15100SOL    HW152540   8.575   1.840   5.774 -1.0299  0.0010 -0.7112
15100SOL    HW252541   8.602   1.721   5.863 -0.1515 -0.5518 -1.6889
15101SOL     OW52542   2.545   5.074  11.625  0.4610  0.0810 -0.0037
15101SOL    HW152543   2.565   4.993  11.673 -0.7420  0.9109  2.0550
15101SOL    HW252544   2.625   5.126  11.631  0.4128  0.0730  0.9768
15102SOL     OW52545  10.464  10.009   8.627  0.1574 -0.1517  0.1373
15102SOL    HW152546  10.522   9.989   8.554 -0.3116 -1.5419  0.1164
15102SOL    HW252547  10.425   9.925   8.651 -0.1541  0.3692  1.5997
15103SOL     OW52548  11.093   3.222   2.300  0.3733  0.2528  0.7720
15103SOL    HW152549  11.016   3.237   2.246  0.6633 -0.4835  0.1378
15103SOL    HW252550  11.061   3.229   2.390 -0.7936 -1.6582  0.5597
15104SOL     OW52551  10.243   7.439   2.150 -0.2834  0.3824 -0.1878
15104SOL    HW152552  10.200   7.367   2.196 -0.6898  0.4675 -0.4281
15104SOL    HW252553  10.199   7.443   2.065 -1.7840  2.3047  0.6101
15105SOL     OW52554   8.756   9.007   9.971  0.6906 -0.3329 -0.0841
15105SOL    HW152555   8.726   8.951   9.899  1.7892  1.6721 -2.2267
15105SOL    HW252556   8.752   9.096   9.935 -1.7188  1.2021  3.3992
15106SOL     OW52557  10.172  10.496   0.856  0.2427  0.0328  0.0022
15106SOL    HW152558  10.142  10.586   0.839 -0.5680 -0.3443 -0.6682
15106SOL    HW252559  10.096  10.454   0.896  0.5212 -0.4263  0.0464
15107SOL     OW52560   2.604   9.799   5.279  0.1617 -0.2709  0.6095
15107SOL    HW152561   2.587   9.713   5.242  0.9262 -0.1569 -0.0514
15107SOL    HW252562   2.544   9.806   5.353 -1.9188 -0.2568 -0.9767
15108SOL     OW52563   7.344   2.312   5.620 -0.0112 -0.7340  0.2781
15108SOL    HW152564   7.333   2.242   5.556 -0.3571 -0.2552 -0.1986
15108SOL    HW252565   7.268   2.369   5.607  0.5224 -0.0015  0.3065
15109SOL     OW52566   5.140   9.985   5.768  0.1416 -0.5796 -1.0195
15109SOL    HW152567   5.202  10.005   5.697  0.5770  1.0122 -0.2379
15109SOL    HW252568   5.113  10.071   5.800 -0.1865 -1.2781  0.6336
15110SOL     OW52569  12.396   9.588  10.216 -0.6751 -0.6364  0.3559
15110SOL    HW152570  12.411   9.681  10.199 -1.4279 -0.5805 -0.0674
15110SOL    HW252571  12.483   9.552  10.230  0.0558 -0.5362 -3.0110
15111SOL     OW52572  11.336   8.987  12.297  0.0032 -0.0054 -0.1414
15111SOL    HW152573  11.287   8.966  12.377  1.2698 -0.2001  0.6097
15111SOL    HW252574  11.364   9.078  12.310  0.9389 -0.3123  0.0350
15112SOL     OW52575   0.069   0.707   6.379 -0.4571 -0.0440 -0.0250
15112SOL    HW152576   0.039   0.656   6.304 -0.0609 -0.5031  0.1244
15112SOL    HW252577   0.070   0.797   6.347 -1.2676 -0.1112 -0.2558
15113SOL     OW52578  12.127   1.556   8.881  0.3363  1.3164  0.1115
15113SOL    HW152579  12.101   1.626   8.821  1.2056  0.9824 -0.6900
15113SOL    HW252580  12.140   1.599   8.965 -0.2362  1.9150 -0.1024
15114SOL     OW52581   5.773   7.253   9.976 -0.2146 -0.0779 -0.2135
15114SOL    HW152582   5.818   7.237  10.059 -1.0430 -0.8596  0.1110
15114SOL    HW252583   5.686   7.285  10.002 -0.0310  0.9436 -0.8104
15115SOL     OW52584   8.149  10.595   5.715  0.4666 -0.6253  0.2486
15115SOL    HW152585   8.161  10.595   5.620  2.1558 -0.0304  0.4312
15115SOL    HW252586   8.062  10.556   5.728  0.0709 -0.4311 -1.5414
15116SOL     OW52587   2.489   8.018   2.263 -0.5037 -0.1228 -0.2896
15116SOL    HW152588   2.543   8.093   2.284 -1.6759  0.5714  0.2941
15116SOL    HW252589   2.539   7.943   2.295  0.6702  0.3817 -0.8689
15117SOL     OW52590  10.448   8.558   2.382  0.5376  0.1614 -0.0864
15117SOL    HW152591  10.537   8.558   2.346 -0.4214  0.2081 -2.7427
15117SOL    HW252592  10.401   8.620   2.327 -1.2347 -0.1563  1.0107
15118SOL     OW52593  10.653   0.254  12.222  0.1856  0.0644 -0.2162
15118SOL    HW152594  10.583   0.274  12.284  0.1439  0.6097 -0.4326
15118SOL    HW252595  10.732   0.288  12.263  0.0888  0.8534 -0.6628
15119SOL     OW52596   9.308   3.806   6.988 -0.3201 -0.2816  0.1242
15119SOL    HW152597   9.319   3.900   6.983 -0.4105 -0.1336  1.8829
15119SOL    HW252598   9.379   3.777   7.045 -2.1190 -0.8226  2.2208
15120SOL     OW52599   8.416  10.687   0.925 -1.1963  0.6811 -0.1469
15120SOL    HW152600   8.378  10.742   0.994  1.2610  2.0413  0.2479
15120SOL    HW252601   8.425  10.746   0.850 -0.6057  0.1964 -0.4646
15121SOL     OW52602   4.918   8.009   0.794 -0.0275  0.7929 -0.1304
15121SOL    HW152603   4.868   8.039   0.718 -0.9314 -1.0147 -0.3097
15121SOL    HW252604   4.851   7.986   0.858  0.6791  0.8099  0.6202
15122SOL     OW52605   5.434   4.541  10.388  0.2097  0.1199 -0.2771
15122SOL    HW152606   5.388   4.625  10.379  0.4868  0.4346  1.0913
15122SOL    HW252607   5.524   4.561  10.364  0.1172  0.0326 -0.7030
15123SOL     OW52608   9.103   9.245   9.101 -0.1371  0.1309 -0.0192
15123SOL    HW152609   9.105   9.196   9.183 -1.6038  1.3483  0.7873
15123SOL    HW252610   9.012   9.273   9.092 -0.0001  0.0810 -2.0418
15124SOL     OW52611   9.394   6.860  12.331  0.3910  0.0510  0.3524
15124SOL    HW152612   9.374   6.923  12.262 -0.6057 -0.0355  0.5421
15124SOL    HW252613   9.452   6.907  12.391 -0.9752  1.0781  0.9137
15125SOL     OW52614   0.139   4.222   4.126  0.1162 -0.4658  0.1580
15125SOL    HW152615   0.169   4.212   4.035 -0.5572 -0.9544 -0.0188
15125SOL    HW252616   0.058   4.172   4.130  0.1578 -0.4758  1.0467
15126SOL     OW52617   3.161   5.160   3.222 -0.0117  0.9717 -0.0964
15126SOL    HW152618   3.114   5.128   3.298  0.5237 -0.3033 -0.2666
15126SOL    HW252619   3.110   5.129   3.147  0.0636  1.2409 -0.2609
15127SOL     OW52620   2.755  12.678   3.028  0.3386  0.0598 -0.4823
15127SOL    HW152621   2.712  12.750   2.984  0.2862 -0.7858 -1.8622
15127SOL    HW252622   2.689  12.643   3.088  0.0022  0.4465 -0.6262
15128SOL     OW52623   3.451   8.898   1.609 -0.0576 -0.1510  0.5187
15128SOL    HW152624   3.389   8.825   1.600  1.6830 -1.9454  2.0787
15128SOL    HW252625   3.528   8.871   1.559  0.9835  0.1313  1.9062
15129SOL     OW52626   6.902   1.670   5.300  0.0632 -0.4786  0.4197
15129SOL    HW152627   6.962   1.603   5.267 -0.6118 -1.4047  1.0144
15129SOL    HW252628   6.949   1.752   5.289  0.3803 -0.8677 -1.6253
15130SOL     OW52629   1.865   6.700   1.685  0.2207  0.0812 -0.0279
15130SOL    HW152630   1.781   6.664   1.714  1.2083  0.0040  2.9880
15130SOL    HW252631   1.918   6.624   1.662  0.5174 -0.0804  1.1657
15131SOL     OW52632   5.516  12.606  12.064  0.3814 -0.0402  0.3074
15131SOL    HW152633   5.553  12.565  11.985  1.4517  2.8568 -0.8505
15131SOL    HW252634   5.590  12.615  12.123  0.5328  1.4190 -0.0566
15132SOL     OW52635   2.024   6.614  12.104  0.4511 -0.3480 -0.1391
15132SOL    HW152636   2.021   6.696  12.153 -0.3149  0.2294 -1.1081
15132SOL    HW252637   1.932   6.590  12.091  0.6489 -0.8046 -0.7576
15133SOL     OW52638   6.828  11.039   8.925  0.1944  0.3729  0.0744
15133SOL    HW152639   6.797  10.949   8.911 -0.3702  0.2930  1.6794
15133SOL    HW252640   6.882  11.034   9.004 -0.9277  1.6558  0.9765
15134SOL     OW52641   9.332  10.553   1.149  0.1123 -0.4806 -0.5945
15134SOL    HW152642   9.364  10.605   1.223  0.4736 -1.9531  0.3232
15134SOL    HW252643   9.343  10.611   1.073 -1.6346  1.6244  0.6289
15135SOL     OW52644   9.621   1.212   5.956  0.6025 -0.0559  0.5621
15135SOL    HW152645   9.616   1.281   5.891 -0.2998 -1.4916 -0.9691
15135SOL    HW252646   9.695   1.237   6.012  1.7667  0.9577 -1.3172
15136SOL     OW52647  10.536   7.472   8.032  0.5041  0.0670  0.0067
15136SOL    HW152648  10.569   7.459   7.943  0.1170  1.5366 -0.3727
15136SOL    HW252649  10.555   7.563   8.052 -2.5008  0.7784  0.0976
15137SOL     OW52650   6.924   8.264   7.087 -0.3281  0.6734 -0.3092
15137SOL    HW152651   6.988   8.245   7.018 -0.3154  0.8456 -0.3446
15137SOL    HW252652   6.938   8.356   7.109  0.4217  0.3393  0.7093
15138SOL     OW52653   8.728   2.596  10.204  0.1244 -0.0767 -0.2745
15138SOL    HW152654   8.639   2.561  10.192 -0.0321  0.1443  0.2162
15138SOL    HW252655   8.715   2.689  10.219  0.3489 -0.2337  0.9707
15139SOL     OW52656   0.408   9.709   6.805  0.2746 -0.6158  0.1014
15139SOL    HW152657   0.347   9.756   6.861  1.2126  0.3809  0.3348
15139SOL    HW252658   0.482   9.689   6.863  0.6372 -0.8223 -0.4285
15140SOL     OW52659  10.704   2.972  10.223  0.5702 -1.0715 -0.4124
15140SOL    HW152660  10.758   2.926  10.287  1.0114 -1.1516 -0.8358
15140SOL    HW252661  10.764   2.993  10.152  0.7219  1.3515  0.3278
15141SOL     OW52662   7.396   2.354  11.336  0.4594  0.0552 -0.3577
15141SOL    HW152663   7.355   2.438  11.358 -0.6049 -0.7430  0.8127
15141SOL    HW252664   7.375   2.297  11.410  2.1371 -0.9298 -0.6026
15142SOL     OW52665   8.151   7.096   3.673 -0.3073 -0.8343  0.3917
15142SOL    HW152666   8.217   7.036   3.641 -0.3419 -0.0121 -1.3365
15142SOL    HW252667   8.200   7.168   3.712 -0.1835 -0.6121 -0.1620
15143SOL     OW52668   8.810   5.420   2.548  0.2229 -0.1644 -0.1284
15143SOL    HW152669   8.903   5.409   2.525  0.4804  0.3250  0.6185
15143SOL    HW252670   8.800   5.368   2.628 -0.7573 -2.2099 -1.4870
15144SOL     OW52671   3.702   3.529  12.198  0.0521  0.6019 -0.1388
15144SOL    HW152672   3.783   3.522  12.249 -1.1199 -0.3718  1.6923
15144SOL    HW252673   3.655   3.602  12.237  0.1810  1.4122 -1.4500
15145SOL     OW52674   5.839   6.002  11.000 -0.4141  0.5212  0.0387
15145SOL    HW152675   5.810   5.915  10.970  1.7640  0.5043 -2.4799
15145SOL    HW252676   5.790   6.064  10.946  1.1094  0.6167 -1.3300
15146SOL     OW52677   2.700   9.511   3.275  0.2108  0.1746  0.3348
15146SOL    HW152678   2.765   9.487   3.341 -1.8505 -0.3431  2.3008
15146SOL    HW252679   2.618   9.476   3.308 -1.1292  0.8695 -2.0060
15147SOL     OW52680   0.704   8.869   2.229  0.2669 -0.3967 -0.1427
15147SOL    HW152681   0.775   8.901   2.172 -0.9066  2.0002 -0.3737
15147SOL    HW252682   0.663   8.799   2.178  1.1598 -0.3787 -0.9218
15148SOL     OW52683   1.148   3.360  11.584 -0.6597  0.2267 -0.2652
15148SOL    HW152684   1.131   3.268  11.565  1.0337  0.0886 -1.2994
15148SOL    HW252685   1.148   3.365  11.680 -0.4629 -0.9147 -0.1939
15149SOL     OW52686   8.387   5.327   5.642  0.0292 -0.2697 -0.0046
15149SOL    HW152687   8.413   5.256   5.584 -2.1408 -1.2295  0.1077
15149SOL    HW252688   8.365   5.400   5.584  1.8195  0.2124 -0.1376
15150SOL     OW52689  11.508  12.137   0.716 -0.6144 -0.3158  0.4525
15150SOL    HW152690  11.536  12.190   0.641 -1.5343  0.6784  0.7857
15150SOL    HW252691  11.572  12.156   0.784 -1.3702  1.0347  0.8315
15151SOL     OW52692   8.984   5.479   7.337  0.0641 -0.6396  0.0739
15151SOL    HW152693   8.938   5.415   7.283  1.0963 -0.3378 -1.1925
15151SOL    HW252694   9.017   5.544   7.275 -0.4668  0.8405  1.2659
15152SOL     OW52695   9.811   8.033  10.374 -0.5241  0.2399 -0.3664
15152SOL    HW152696   9.862   8.105  10.338 -1.5712  0.5424 -1.3176
15152SOL    HW252697   9.722   8.068  10.381 -0.4994 -0.0037  2.0067
15153SOL     OW52698   3.091   7.385   7.121 -0.2054 -0.0462 -0.9292
15153SOL    HW152699   3.047   7.367   7.205  1.2997  1.2780  0.2027
15153SOL    HW252700   3.020   7.387   7.057 -1.4460 -0.7943  0.3527
15154SOL     OW52701   0.930  11.941   2.325 -0.0445  0.6343  0.3860
15154SOL    HW152702   0.906  11.905   2.410  0.7475  0.2343  0.4478
15154SOL    HW252703   1.007  11.996   2.343  0.7670 -0.2832 -0.2254
15155SOL     OW52704   2.138   3.918  11.811  0.5226 -0.0250 -0.1941
15155SOL    HW152705   2.074   3.987  11.827 -0.9892 -0.9546 -1.8199
15155SOL    HW252706   2.194   3.919  11.888 -1.0351  1.2987  1.0025
15156SOL     OW52707  12.523   2.009   1.943  0.1077  0.0125 -0.1341
15156SOL    HW152708  12.443   1.957   1.938 -1.1387  1.7787  0.3250
15156SOL    HW252709  12.571   1.972   2.017  0.1827 -1.6455 -0.9695
15157SOL     OW52710   7.345   2.546   1.982  0.3483 -0.0749 -0.0885
15157SOL    HW152711   7.309   2.489   1.914  0.4215  1.6645 -1.6807
15157SOL    HW252712   7.322   2.634   1.953  0.5946  0.7616  2.0582
15158SOL     OW52713   0.508  12.135   5.624 -0.2846  0.9521  0.9653
15158SOL    HW152714   0.567  12.114   5.552  0.5812  2.9335  1.0401
15158SOL    HW252715   0.540  12.083   5.697  0.2640  0.6650  0.5329
15159SOL     OW52716   6.225   5.258   9.403 -0.3287 -0.9432 -0.5761
15159SOL    HW152717   6.183   5.249   9.318  0.2784 -0.1435 -0.9733
15159SOL    HW252718   6.282   5.181   9.410 -1.4338 -1.7581 -0.2550
15160SOL     OW52719   5.162   5.436   9.748 -0.5864  0.1680  0.3742
15160SOL    HW152720   5.183   5.343   9.751 -0.0199  0.2907  0.3995
15160SOL    HW252721   5.086   5.443   9.691 -0.0644 -0.2075 -0.3731
15161SOL     OW52722  10.915   8.150   1.541 -0.0289  0.0703  0.7145
15161SOL    HW152723  10.915   8.229   1.595  1.7587  0.8167 -0.2954
15161SOL    HW252724  10.924   8.182   1.451 -1.3894 -1.2096  0.0822
15162SOL     OW52725   7.946   1.095   3.819  0.4468  0.1103  0.5861
15162SOL    HW152726   8.013   1.028   3.805  0.3647 -0.5209  2.7466
15162SOL    HW252727   7.866   1.046   3.838 -0.0198  0.8288  0.5062
15163SOL     OW52728  10.410   1.637   6.368 -0.2471  0.6564 -0.3210
15163SOL    HW152729  10.465   1.612   6.442 -0.4583 -0.7350 -0.5903
15163SOL    HW252730  10.452   1.595   6.292  0.1059  2.2485 -1.0553
15164SOL     OW52731   8.081   6.166   4.116 -0.6822  0.3054  0.0138
15164SOL    HW152732   8.007   6.217   4.149 -0.2353 -0.8539  3.1381
15164SOL    HW252733   8.115   6.120   4.193  1.2409 -1.7983 -1.9268
15165SOL     OW52734   8.149   9.444   3.985 -0.2200 -0.1011  0.3754
15165SOL    HW152735   8.151   9.479   4.074  0.4928 -0.2419  0.4202
15165SOL    HW252736   8.111   9.357   3.995 -1.6256  0.4690  0.3169
15166SOL     OW52737   3.152  12.266   5.268 -0.3298  0.0336 -0.3042
15166SOL    HW152738   3.135  12.359   5.254 -2.1520 -0.0020  1.3184
15166SOL    HW252739   3.194  12.262   5.354 -2.7164 -0.7841  0.9062
15167SOL     OW52740   4.650   7.129   4.384  0.6188  0.5301  0.0659
15167SOL    HW152741   4.592   7.088   4.449 -0.0639  1.6995  0.2275
15167SOL    HW252742   4.727   7.073   4.382 -0.0972 -0.5147  0.5860
15168SOL     OW52743   9.252   4.851  10.046 -0.1205  0.5366  0.1650
15168SOL    HW152744   9.347   4.866  10.053 -0.0402 -0.4327  1.7596
15168SOL    HW252745   9.235   4.844   9.953  2.1609 -3.7424 -0.1529
15169SOL     OW52746   6.396   9.945  10.098  0.0486 -1.0548  0.0281
15169SOL    HW152747   6.306   9.976  10.102  0.2364 -0.5204  0.1800
15169SOL    HW252748   6.445  10.016  10.056  0.2420 -1.7104 -0.8918
15170SOL     OW52749   8.844  12.533   0.068 -0.1112 -0.0526  0.2769
15170SOL    HW152750   8.871  12.554  -0.022  0.8759 -0.1052  0.5553
15170SOL    HW252751   8.926  12.521   0.116 -0.6219  0.3108  1.2694
15171SOL     OW52752   2.475   8.402   2.311 -0.4145 -0.3841  0.0190
15171SOL    HW152753   2.457   8.487   2.349  0.4053  0.8418 -2.1436
15171SOL    HW252754   2.392   8.375   2.272  0.0176  0.9734 -2.0122
15172SOL     OW52755   2.365  12.280   6.562  0.0761 -0.1340 -0.0419
15172SOL    HW152756   2.322  12.238   6.637 -0.5004  0.0463 -0.2658
15172SOL    HW252757   2.436  12.220   6.539 -1.0722 -1.3025 -0.7190
15173SOL     OW52758   4.202   1.499   1.940 -0.8810  0.1128  0.1521
15173SOL    HW152759   4.295   1.473   1.943 -1.1855 -1.0675  0.0005
15173SOL    HW252760   4.172   1.491   2.030 -0.6867  1.1313  0.3189
15174SOL     OW52761   6.796   6.982   7.608 -0.3052  0.5363 -0.4794
15174SOL    HW152762   6.823   7.007   7.520  0.8098  0.6064 -0.1303
15174SOL    HW252763   6.771   6.890   7.601  1.0789  0.1510 -0.6086
15175SOL     OW52764   0.895   4.428   5.665 -0.6993  0.0823 -0.0566
15175SOL    HW152765   0.877   4.521   5.678 -0.0035  0.6047 -2.3604
15175SOL    HW252766   0.832   4.401   5.598  0.9641 -0.3166 -1.5361
15176SOL     OW52767   4.517   4.012   3.273  0.6474 -0.2472 -0.9696
15176SOL    HW152768   4.539   4.083   3.212 -0.8196  0.2159 -1.0012
15176SOL    HW252769   4.424   3.994   3.257  0.5003 -0.8553  0.3780
15177SOL     OW52770   3.633   9.435   6.393 -0.1329 -0.2086  0.1505
15177SOL    HW152771   3.672   9.372   6.453 -0.6602  1.4343  2.3835
15177SOL    HW252772   3.642   9.396   6.306  0.6603 -2.7298  1.2885
15178SOL     OW52773   2.210   1.374   8.485 -0.2817  0.0813 -0.0483
15178SOL    HW152774   2.189   1.342   8.573 -0.7766 -1.1634 -0.6048
15178SOL    HW252775   2.299   1.409   8.494 -0.8088  1.2160  1.2503
15179SOL     OW52776  10.565   2.674   3.645 -0.3115  0.2369 -0.3133
15179SOL    HW152777  10.570   2.658   3.551 -1.4523  1.9025 -0.6926
15179SOL    HW252778  10.657   2.677   3.674  0.0386 -1.3983 -1.1170
15180SOL     OW52779   5.055   6.393   7.402 -0.4696 -0.0002 -0.1110
15180SOL    HW152780   5.104   6.317   7.436 -2.4001 -0.1041  2.7824
15180SOL    HW252781   5.101   6.469   7.439 -0.5987  0.0448 -0.0411
15181SOL     OW52782  11.659   2.340   9.039 -0.1358  0.4331 -0.0446
15181SOL    HW152783  11.621   2.428   9.044 -0.9369  0.0500  0.9563
15181SOL    HW252784  11.599   2.292   8.982  1.1193  0.9123 -1.8327
15182SOL     OW52785   5.641  10.879   1.873  0.2812  0.0035  0.0393
15182SOL    HW152786   5.610  10.817   1.808  0.7703 -0.2098  0.0019
15182SOL    HW252787   5.733  10.856   1.887  0.3700  0.4806  0.2989
15183SOL     OW52788   4.727  10.614   8.173 -0.3076 -0.0453 -0.1813
15183SOL    HW152789   4.703  10.653   8.090  1.1763 -0.1913 -0.7069
15183SOL    HW252790   4.818  10.586   8.162 -1.1392 -3.3933  0.2365
15184SOL     OW52791   9.454   7.533   6.856  0.6099 -0.5506 -0.1999
15184SOL    HW152792   9.426   7.492   6.938 -0.7575 -0.3306 -0.5387
15184SOL    HW252793   9.540   7.570   6.876  0.1461 -0.1949  1.2342
15185SOL     OW52794   7.521   9.714   5.852  0.0186 -0.2732  0.3644
15185SOL    HW152795   7.445   9.739   5.799 -1.0352 -2.2426  0.8322
15185SOL    HW252796   7.483   9.679   5.933  1.3050 -2.6475  0.0292
15186SOL     OW52797   4.040   3.802   0.512  0.5049  0.5347  0.2676
15186SOL    HW152798   4.112   3.862   0.490  1.2447 -0.3270  0.2680
15186SOL    HW252799   4.018   3.759   0.429  2.0740 -1.4027  0.7672
15187SOL     OW52800   2.975  10.711   7.373 -0.0079  0.3889 -0.1864
15187SOL    HW152801   2.996  10.626   7.334 -1.4416 -0.3524  0.5604
15187SOL    HW252802   3.046  10.726   7.436 -0.2047 -0.7067  0.3220
15188SOL     OW52803   6.593   7.075   1.598  0.3702 -0.8578  0.1874
15188SOL    HW152804   6.535   7.094   1.672  0.4276 -1.1272  0.3062
15188SOL    HW252805   6.672   7.127   1.616 -0.3828  0.6455 -0.7250
15189SOL     OW52806   5.147   2.671   5.769  0.3013  0.5311 -0.3777
15189SOL    HW152807   5.138   2.592   5.821 -1.8220 -0.6863 -2.3920
15189SOL    HW252808   5.103   2.739   5.821  0.2552 -0.0987  0.4200
15190SOL     OW52809   4.078   8.637   4.173  0.2438 -0.7390  0.8360
15190SOL    HW152810   3.997   8.638   4.225  0.7445 -2.0504  1.6820
15190SOL    HW252811   4.092   8.545   4.151  1.8436 -0.6350  1.2679
15191SOL     OW52812  10.305   4.704   9.045  0.3968 -0.4432  0.1086
15191SOL    HW152813  10.343   4.781   9.086  0.6199  1.4164 -3.2137
15191SOL    HW252814  10.215   4.729   9.025  0.2931 -1.2587 -0.5128
15192SOL     OW52815   6.120   4.006   5.719 -0.3729  0.0809  0.3350
15192SOL    HW152816   6.205   4.041   5.743  0.1697 -0.6224 -0.4909
15192SOL    HW252817   6.136   3.959   5.637 -1.5117 -0.2292  0.2768
15193SOL     OW52818   0.337   9.578   8.733 -0.9995 -0.8688 -0.0648
15193SOL    HW152819   0.293   9.498   8.762  0.2205 -1.3311  0.5628
15193SOL    HW252820   0.427   9.569   8.765 -0.1073 -0.4708 -2.2739
15194SOL     OW52821   7.274   8.958   0.479 -0.2549 -0.3128 -0.1643
15194SOL    HW152822   7.285   8.928   0.569  1.3698 -0.1816 -0.2728
15194SOL    HW252823   7.195   8.915   0.448 -0.7382 -0.4952  1.2692
15195SOL     OW52824   2.810   7.359   3.888 -0.5158 -0.6204  0.3667
15195SOL    HW152825   2.731   7.313   3.918 -1.5425  0.5370 -0.4426
15195SOL    HW252826   2.790   7.384   3.798  0.2681  0.8012  0.5521
15196SOL     OW52827   0.555   4.885   2.435  0.4826 -1.0658  0.7279
15196SOL    HW152828   0.502   4.965   2.433  0.5143 -1.0621 -0.6305
15196SOL    HW252829   0.639   4.914   2.470  0.6988 -0.3576 -0.3205
15197SOL     OW52830   2.985   9.337   2.172  0.4438 -0.2088 -0.0734
15197SOL    HW152831   2.965   9.409   2.232  3.3693  0.7130 -0.0262
15197SOL    HW252832   2.948   9.365   2.088 -0.1716  0.4106  0.3948
15198SOL     OW52833   8.258   6.299   9.933  0.0305  0.2160  0.1591
15198SOL    HW152834   8.265   6.365  10.002 -1.4265  1.5640 -0.9140
15198SOL    HW252835   8.220   6.223   9.976  0.8710  0.3598  1.2142
15199SOL     OW52836   0.229   9.724   2.301 -0.3812 -0.3543 -0.3328
15199SOL    HW152837   0.160   9.775   2.258  0.8157  0.4110 -1.4408
15199SOL    HW252838   0.306   9.780   2.296  0.3891 -1.2964  0.6470
15200SOL     OW52839   0.306   1.299   8.438  0.2440  0.1283 -0.3424
15200SOL    HW152840   0.213   1.306   8.460  0.0017 -0.0106 -1.2866
15200SOL    HW252841   0.313   1.338   8.351  0.8550 -0.9683 -0.8015
15201SOL     OW52842   0.899  10.349   2.945 -0.0946 -0.1158  0.0189
15201SOL    HW152843   0.985  10.331   2.981  1.4567  1.1704 -2.7784
15201SOL    HW252844   0.864  10.419   2.999  2.6306  2.5709 -1.3952
15202SOL     OW52845   7.900   0.686  12.084  0.1376 -0.3142  0.0352
15202SOL    HW152846   7.850   0.633  12.147  0.4112 -0.7909 -0.1441
15202SOL    HW252847   7.971   0.724  12.137  0.0643 -0.2977  0.1218
15203SOL     OW52848  10.288  11.495   7.295 -0.5556 -0.3977  0.2913
15203SOL    HW152849  10.203  11.532   7.321 -0.5582 -1.1533  1.4275
15203SOL    HW252850  10.348  11.569   7.297 -1.0437  0.0058  0.1866
15204SOL     OW52851   9.896  12.044   6.682 -0.6142 -0.0730  0.5578
15204SOL    HW152852   9.836  12.039   6.607 -0.4790  1.1298  0.3454
15204SOL    HW252853   9.963  12.106   6.654 -0.7939  0.7267  1.8272
15205SOL     OW52854   6.395   6.570   3.079 -0.1779 -0.0435  0.0017
15205SOL    HW152855   6.485   6.595   3.059  0.2909 -1.3935  0.2714
15205SOL    HW252856   6.344   6.650   3.067  1.1555  0.9239  0.5065
15206SOL     OW52857   2.835  12.608  10.963 -0.3722  0.0847 -0.1903
15206SOL    HW152858   2.883  12.529  10.939 -0.0359  0.3577 -0.4228
15206SOL    HW252859   2.778  12.625  10.889 -0.7386 -0.1631  0.0289
15207SOL     OW52860   2.072  12.308   7.268 -0.3419 -0.1513  0.0361
15207SOL    HW152861   2.037  12.384   7.221  3.0989  1.1292 -0.7344
15207SOL    HW252862   2.119  12.346   7.342  0.1540 -1.6672  0.5222
15208SOL     OW52863   0.574   5.707   7.567  0.2203 -0.1295 -0.4143
15208SOL    HW152864   0.536   5.724   7.653  1.5615 -1.8491  0.5965
15208SOL    HW252865   0.500   5.707   7.506 -0.6749  1.7209  0.6089
15209SOL     OW52866   9.364   4.398   9.296  0.1112  0.2919  0.1829
15209SOL    HW152867   9.304   4.458   9.253 -0.4281 -0.2993  0.0967
15209SOL    HW252868   9.447   4.446   9.301 -0.4042  1.1549  0.4312
15210SOL     OW52869   8.566   2.701   8.879  0.3355 -0.3224  0.1776
15210SOL    HW152870   8.506   2.662   8.942 -0.1023 -0.2084 -0.1617
15210SOL    HW252871   8.627   2.751   8.933  1.1920 -1.8116  0.6558
15211SOL     OW52872   2.048   5.395   3.377 -0.0907  0.2490 -0.1033
15211SOL    HW152873   1.976   5.336   3.400 -0.0925 -0.1966 -1.1581
15211SOL    HW252874   2.120   5.336   3.352  0.4368  0.6922  0.3523
15212SOL     OW52875   8.755   7.237   4.125  0.2632 -0.1351 -0.0854
15212SOL    HW152876   8.766   7.324   4.088  0.7553 -0.4772 -0.7539
15212SOL    HW252877   8.661   7.220   4.118 -0.0012  0.7555  1.0241
15213SOL     OW52878   6.404   2.236   8.788  0.2694 -0.2204  0.2431
15213SOL    HW152879   6.486   2.208   8.830  1.2316 -2.7191 -2.9323
15213SOL    HW252880   6.430   2.307   8.731  0.6971 -2.0097 -1.9339
15214SOL     OW52881   9.509   2.926   5.344  0.4717  0.4609 -0.1322
15214SOL    HW152882   9.479   2.843   5.380  0.5733  0.5395  0.1458
15214SOL    HW252883   9.570   2.902   5.274  0.2297  0.3034 -0.2888
15215SOL     OW52884   5.006   9.009   5.314 -0.0106  0.2263  0.6800
15215SOL    HW152885   4.935   8.985   5.374 -1.1471 -0.1927 -0.7669
15215SOL    HW252886   5.056   9.076   5.361 -0.4664 -0.5460  2.3318
15216SOL     OW52887   1.449   7.092   3.764  0.0409 -0.6873  0.2013
15216SOL    HW152888   1.409   7.038   3.696 -1.4123  0.4018  0.1518
15216SOL    HW252889   1.536   7.055   3.776 -0.9608 -3.1490  0.3115
15217SOL     OW52890   0.421  11.864  10.232  0.3552 -0.2466  0.0860
15217SOL    HW152891   0.436  11.774  10.262  1.4795  0.1189  0.6854
15217SOL    HW252892   0.413  11.856  10.137  0.6356 -0.9616  0.1137
15218SOL     OW52893   0.839   7.458   5.631  0.5896  0.2806 -0.0878
15218SOL    HW152894   0.798   7.420   5.709 -0.0485 -0.1200 -0.6038
15218SOL    HW252895   0.802   7.408   5.558  1.2879  0.5517 -0.6399
15219SOL     OW52896   6.523   4.258   7.895  0.2432 -0.5049 -0.2823
15219SOL    HW152897   6.445   4.218   7.857  0.4481  0.0387 -1.3231
15219SOL    HW252898   6.523   4.348   7.862  0.5422 -0.0527  0.8774
15220SOL     OW52899  11.824   3.648   6.073 -0.1643 -0.2501  0.5815
15220SOL    HW152900  11.794   3.672   5.985  0.6691 -1.2154  0.0119
15220SOL    HW252901  11.793   3.558   6.085 -0.7705  0.0688  1.5295
15221SOL     OW52902   0.143   5.768  12.273  0.0776 -0.1836 -0.3616
15221SOL    HW152903   0.208   5.705  12.243 -0.3486 -0.8106  0.0332
15221SOL    HW252904   0.130   5.748  12.366  1.2369  1.6140  0.2431
15222SOL     OW52905  10.149   7.175  10.276 -0.5250 -0.0847  0.1441
15222SOL    HW152906  10.098   7.175  10.194 -0.2968 -0.2482  0.0025
15222SOL    HW252907  10.103   7.113  10.332 -0.3619 -0.3915 -0.0597
15223SOL     OW52908   9.205   9.571  11.062 -0.0944 -0.2039 -0.1044
15223SOL    HW152909   9.176   9.560  11.153  0.5426  0.5492  0.2061
15223SOL    HW252910   9.285   9.623  11.069  2.0538 -3.1920 -0.8336
15224SOL     OW52911   4.944   2.886  11.771  0.2282  0.4813  0.0797
15224SOL    HW152912   4.911   2.807  11.728  1.6121  1.2682 -2.6519
15224SOL    HW252913   5.018   2.856  11.824  0.5137 -0.1083 -0.6444
15225SOL     OW52914   2.632   7.724  10.146 -0.1469 -0.0726  1.1635
15225SOL    HW152915   2.579   7.647  10.167 -2.2837  1.0065  0.1114
15225SOL    HW252916   2.715   7.689  10.114 -1.5785 -2.0335 -0.6712
15226SOL     OW52917  11.255   9.821   3.614 -0.1080  0.5781  0.3120
15226SOL    HW152918  11.225   9.910   3.634 -0.2274  0.7353 -0.5369
15226SOL    HW252919  11.244   9.773   3.696  0.6614  1.5343  0.9985
15227SOL     OW52920   4.999  11.437   1.563 -0.0139 -0.1254 -0.1738
15227SOL    HW152921   5.025  11.432   1.655  0.6488 -2.0813 -0.4216
15227SOL    HW252922   5.008  11.347   1.530  1.0094  0.7462 -2.4861
15228SOL     OW52923   1.183   0.461   2.973 -0.1552  0.4699  0.3348
15228SOL    HW152924   1.215   0.522   2.906 -0.4007  0.7221  0.4461
15228SOL    HW252925   1.100   0.498   3.002 -0.6218 -0.2533 -0.0502
15229SOL     OW52926  10.556   4.170   7.011 -0.6541  0.6790 -0.3509
15229SOL    HW152927  10.586   4.145   6.923  0.1294 -1.0337  0.3676
15229SOL    HW252928  10.636   4.196   7.057 -0.8145 -0.1201  0.3884
15230SOL     OW52929  11.047   7.646   1.029 -0.4069  0.0552  0.0076
15230SOL    HW152930  11.100   7.713   1.072  0.7431  0.1413 -1.4687
15230SOL    HW252931  11.015   7.687   0.949 -0.7639 -0.7585 -0.2815
15231SOL     OW52932   7.174  11.563   2.530 -0.0573  0.1424  0.2942
15231SOL    HW152933   7.122  11.620   2.588  1.1903  2.9551 -1.1347
15231SOL    HW252934   7.119  11.552   2.453 -0.2035 -0.4293  0.4776
15232SOL     OW52935  11.715   4.055   4.780  0.5636 -0.9558 -0.0309
15232SOL    HW152936  11.757   4.104   4.851 -0.4252 -0.2064  0.0718
15232SOL    HW252937  11.621   4.067   4.796  0.2675 -3.0870  0.1155
15233SOL     OW52938   2.095   9.534   6.385  0.5439 -0.3175 -0.0419
15233SOL    HW152939   2.039   9.578   6.322  0.9643 -0.2169 -0.3468
15233SOL    HW252940   2.034   9.491   6.445  0.1405 -0.0107 -0.2274
15234SOL     OW52941   2.936   4.784   8.208 -0.3944  0.4101 -0.1996
15234SOL    HW152942   2.958   4.782   8.115 -0.9954 -0.5952 -0.3252
15234SOL    HW252943   3.021   4.787   8.253  0.0978 -2.8173 -0.6988
15235SOL     OW52944   5.563  11.631   7.070  0.1690 -0.6378 -0.0149
15235SOL    HW152945   5.623  11.649   7.143  0.9935  0.0405 -0.8272
15235SOL    HW252946   5.584  11.542   7.043  1.5846 -0.0676 -0.9473
15236SOL     OW52947   9.014   2.733   3.205  0.1001 -0.2649  0.3029
15236SOL    HW152948   8.930   2.715   3.163 -0.9309  0.5614  1.9083
15236SOL    HW252949   9.003   2.818   3.246  1.9734  0.1707  0.0104
15237SOL     OW52950   0.585  12.196   2.586 -0.5750  0.5782 -0.0791
15237SOL    HW152951   0.634  12.114   2.579 -0.1786  0.8268 -0.3169
15237SOL    HW252952   0.511  12.176   2.643 -1.2168 -0.2924 -1.1750
15238SOL     OW52953   0.466  10.160   2.214 -0.4706 -0.0515 -0.1094
15238SOL    HW152954   0.556  10.140   2.191 -0.6579  0.5843 -1.5349
15238SOL    HW252955   0.466  10.254   2.232 -0.8064 -0.0909  0.1143
15239SOL     OW52956  10.688  11.156   1.659  0.3896 -0.4541  0.1130
15239SOL    HW152957  10.717  11.079   1.611  1.5475  0.0465 -0.0246
15239SOL    HW252958  10.750  11.225   1.634 -1.3697  0.8977 -0.8031
15240SOL     OW52959   3.204   9.319   4.860 -0.0124  0.0882  0.5784
15240SOL    HW152960   3.122   9.320   4.810  0.8829  0.3408 -0.9421
15240SOL    HW252961   3.272   9.307   4.794  1.1730 -0.3593  1.8384
15241SOL     OW52962   4.907  11.466   3.607 -0.0044  0.3255  0.5041
15241SOL    HW152963   4.891  11.507   3.692  0.4109  1.5691 -0.0005
15241SOL    HW252964   4.847  11.510   3.547  1.6901  1.5100 -0.4027
15242SOL     OW52965   8.583   3.106   4.792  0.1082  1.5582 -0.1900
15242SOL    HW152966   8.493   3.112   4.823 -0.3582  0.8459 -1.3662
15242SOL    HW252967   8.636   3.111   4.872 -1.0072  0.8618  0.6158
15243SOL     OW52968   1.938   6.086   5.247 -0.0524 -0.3872  0.8046
15243SOL    HW152969   1.903   5.999   5.266  0.1278  0.2013  4.8203
15243SOL    HW252970   2.032   6.078   5.259  0.3242 -0.1390 -1.5420
15244SOL     OW52971  10.956   5.322   8.634 -0.5347  0.5439 -0.6054
15244SOL    HW152972  10.878   5.376   8.624 -0.1438  1.2237 -0.0864
15244SOL    HW252973  11.010   5.341   8.558 -0.1483  1.3281 -0.1511
15245SOL     OW52974   1.001  12.304   4.133  0.3398  0.2587  0.2267
15245SOL    HW152975   0.955  12.238   4.082  0.8209 -0.2198  0.4102
15245SOL    HW252976   1.087  12.312   4.092  0.8323 -0.3208  1.0924
15246SOL     OW52977   6.294   9.402   1.441  0.2752  0.0560  0.1196
15246SOL    HW152978   6.250   9.423   1.359  0.8546  0.7999 -0.0126
15246SOL    HW252979   6.304   9.307   1.439  1.2682  0.1549 -1.1989
15247SOL     OW52980   4.380   6.301   1.365  0.1076  0.0491  0.1687
15247SOL    HW152981   4.441   6.271   1.298 -1.0218  0.0229 -0.8702
15247SOL    HW252982   4.348   6.221   1.406 -0.7767 -0.0442 -0.6884
15248SOL     OW52983  11.641   4.936   9.561  0.3936 -0.2610 -0.3414
15248SOL    HW152984  11.705   5.003   9.585  0.3207 -0.4501  0.4079
15248SOL    HW252985  11.557   4.974   9.587  0.3501 -0.6330  0.0708
15249SOL     OW52986   3.147   0.604   8.332  0.2238  0.1279 -0.0824
15249SOL    HW152987   3.139   0.671   8.400 -0.3433 -0.1931  0.1724
15249SOL    HW252988   3.097   0.529   8.366  0.1968 -0.1437 -0.7132
15250SOL     OW52989   2.798   9.933  12.292  0.8764  0.7211  0.1251
15250SOL    HW152990   2.877   9.883  12.314 -0.3873 -1.5452 -0.2744
15250SOL    HW252991   2.736   9.912  12.361 -0.1063  0.7549 -0.7374
15251SOL     OW52992   4.024  12.514   2.003  0.0055  0.2786 -0.0135
15251SOL    HW152993   3.957  12.572   1.967 -0.6794  0.1332  0.9805
15251SOL    HW252994   4.017  12.434   1.950  0.7132  0.9570 -1.1553
15252SOL     OW52995   9.834   1.107  10.205  0.3940  0.3027 -0.3097
15252SOL    HW152996   9.753   1.129  10.160  0.5286 -2.5636 -2.1977
15252SOL    HW252997   9.897   1.087  10.136  2.4839  1.5147  1.1104
15253SOL     OW52998   6.287   5.454  11.282 -0.1669  0.3568  0.1295
15253SOL    HW152999   6.292   5.398  11.359  2.2924 -1.7532 -1.3926
15253SOL    HW253000   6.242   5.401  11.216 -0.3741  1.2914 -0.5016
15254SOL     OW53001  12.611   5.726   6.286 -0.0315  0.0999  0.1993
15254SOL    HW153002  12.561   5.706   6.365  1.7177 -0.5615  1.2074
15254SOL    HW253003  12.615   5.822   6.284  1.1411  0.1254  1.7855
15255SOL     OW53004   0.736   3.188  11.230 -0.0349  0.0163  0.1161
15255SOL    HW153005   0.768   3.109  11.186  1.6971 -0.0637  1.4038
15255SOL    HW253006   0.796   3.257  11.203 -0.3396  0.4496  0.5388
15256SOL     OW53007   8.295   2.972  10.093  0.2296 -0.2193 -0.1775
15256SOL    HW153008   8.375   2.948  10.047 -0.3095 -0.2169 -1.1233
15256SOL    HW253009   8.322   3.044  10.150  0.6158  0.6964 -1.4824
15257SOL     OW53010  12.052  11.804  11.475 -0.0630 -0.4238 -0.6452
15257SOL    HW153011  12.016  11.756  11.550 -0.1476  0.5006 -0.0905
15257SOL    HW253012  11.976  11.834  11.427 -0.0085 -1.1453 -1.1941
15258SOL     OW53013   7.653   9.985   1.588 -0.4310 -0.3920 -0.2365
15258SOL    HW153014   7.660  10.069   1.632  3.1127 -1.0178  0.6744
15258SOL    HW253015   7.584   9.939   1.636 -0.0383  0.7393  1.4938
15259SOL     OW53016   8.582   9.743   8.236  0.0430 -0.5753  0.4888
15259SOL    HW153017   8.497   9.760   8.194 -0.4047  0.3494  1.6977
15259SOL    HW253018   8.644   9.795   8.186 -0.6358  1.2845  1.4806
15260SOL     OW53019   7.729   6.435   9.594 -0.5103  0.3110 -0.4555
15260SOL    HW153020   7.692   6.391   9.670  1.6950 -0.7505  0.0806
15260SOL    HW253021   7.697   6.525   9.600  0.0863  0.4213  2.0749
15261SOL     OW53022   9.108   3.317   0.422 -0.4526 -0.4964  0.1411
15261SOL    HW153023   9.199   3.296   0.439 -0.5715 -0.6759  0.5636
15261SOL    HW253024   9.109   3.405   0.386  0.3352 -1.9865 -4.0789
15262SOL     OW53025   5.697   0.879   0.748 -0.2763 -0.5694 -0.5263
15262SOL    HW153026   5.788   0.880   0.720  0.0974 -1.2014  0.5867
15262SOL    HW253027   5.701   0.880   0.844 -1.4482 -0.2670 -0.4609
15263SOL     OW53028  11.781   5.801   1.884 -0.5260  0.8227 -0.1919
15263SOL    HW153029  11.750   5.816   1.794 -0.7339  0.3324 -0.2020
15263SOL    HW253030  11.875   5.814   1.879 -0.5061  0.5569 -0.5337
15264SOL     OW53031   6.288   0.936   7.659 -0.2553  0.1468 -0.4739
15264SOL    HW153032   6.378   0.935   7.690 -1.2209 -0.9133  2.7643
15264SOL    HW253033   6.276   0.850   7.618  0.2779  0.4486 -1.2864
15265SOL     OW53034   3.822   5.631   0.937  0.1604 -0.3778 -0.7856
15265SOL    HW153035   3.772   5.661   0.861  2.9345 -1.2789 -3.1542
15265SOL    HW253036   3.825   5.535   0.927 -0.3043 -0.6370  1.1154
15266SOL     OW53037   9.533   8.375   6.540 -0.6206  0.0693  0.4012
15266SOL    HW153038   9.578   8.383   6.625  0.0131 -0.9593  0.1863
15266SOL    HW253039   9.462   8.313   6.556 -0.3443 -0.3231  0.1292
15267SOL     OW53040   6.812  11.758   1.538  0.3859 -0.3466 -0.1006
15267SOL    HW153041   6.866  11.697   1.487  0.8895  1.4314 -1.8325
15267SOL    HW253042   6.853  11.843   1.523 -0.3862  0.4706  2.1209
15268SOL     OW53043   9.462   0.388   3.238 -0.2977  0.3863 -0.6294
15268SOL    HW153044   9.448   0.408   3.331 -0.9228 -0.6181 -0.4998
15268SOL    HW253045   9.557   0.396   3.227 -0.1208 -0.2938  0.2950
15269SOL     OW53046   7.224  11.938  11.422  0.1757 -0.1016  0.0660
15269SOL    HW153047   7.245  12.012  11.366  0.3517  1.7229  2.3771
15269SOL    HW253048   7.132  11.948  11.443  0.0928 -0.7950  0.0627
15270SOL     OW53049  12.187   9.264   0.062 -0.2445 -0.0214 -0.2315
15270SOL    HW153050  12.185   9.258   0.157 -0.5785 -0.8020 -0.2758
15270SOL    HW253051  12.142   9.185   0.032 -2.3047  1.3726 -1.0191
15271SOL     OW53052   3.012  10.745   0.661  0.5970 -0.4260  0.3578
15271SOL    HW153053   2.987  10.657   0.632  1.7872 -0.3380 -1.0215
15271SOL    HW253054   2.929  10.789   0.676 -0.0380 -1.2799 -0.5221
15272SOL     OW53055   5.467   2.875   1.273  0.7687  0.2536 -0.9040
15272SOL    HW153056   5.398   2.821   1.234  0.7136  0.4763 -1.1156
15272SOL    HW253057   5.420   2.932   1.334  0.6660  0.9290 -1.6026
15273SOL     OW53058   6.139   2.957  12.056  0.8158 -0.4017 -0.4084
15273SOL    HW153059   6.203   3.000  12.000 -0.1904  0.0810 -1.2295
15273SOL    HW253060   6.119   2.875  12.013 -0.5529  0.3208 -1.2430
15274SOL     OW53061   4.590   6.622   6.212  0.2006  0.3924  0.2687
15274SOL    HW153062   4.678   6.611   6.177 -0.0758  1.2779 -0.7698
15274SOL    HW253063   4.562   6.534   6.237  2.2450  0.3649  2.8921
15275SOL     OW53064   2.451   2.668   5.132  0.6171 -0.3336 -0.6345
15275SOL    HW153065   2.478   2.718   5.208  1.1971 -1.3926 -0.1230
15275SOL    HW253066   2.472   2.724   5.057  1.2538  0.1743 -0.0786
15276SOL     OW53067   2.070   5.081   0.861  0.3686 -0.0581 -0.1385
15276SOL    HW153068   2.136   5.048   0.800 -0.1965  0.7735 -1.2529
15276SOL    HW253069   2.112   5.155   0.905  0.1240  0.6296 -1.0293
15277SOL     OW53070   4.569   5.301   5.576  0.2825 -0.0350 -0.7645
15277SOL    HW153071   4.636   5.244   5.614  1.6571  0.7241 -1.9483
15277SOL    HW253072   4.518   5.331   5.652  0.5320 -1.5432  0.0335
15278SOL     OW53073   7.447   5.594   7.031  0.6963 -0.0766  0.1519
15278SOL    HW153074   7.443   5.620   7.123  0.1321 -0.0397  0.1193
15278SOL    HW253075   7.430   5.674   6.982 -0.9423 -0.4568  0.0507
15279SOL     OW53076   8.618   0.112   9.044  0.6349 -0.5185 -0.1272
15279SOL    HW153077   8.562   0.062   9.105  0.7275 -2.3108 -1.4267
15279SOL    HW253078   8.557   0.158   8.988  0.3575 -2.4846 -1.5532
15280SOL     OW53079   5.965   4.446   5.705  0.1165  0.2345  0.0977
15280SOL    HW153080   6.026   4.393   5.654  0.9997  0.3808  0.9959
15280SOL    HW253081   5.989   4.431   5.796 -1.3208  0.1336  0.4953
15281SOL     OW53082   6.145   7.649   1.984  0.3747 -0.6808  0.0009
15281SOL    HW153083   6.224   7.700   2.001  0.0027 -0.6616  1.7935
15281SOL    HW253084   6.096   7.702   1.921  1.8872 -0.8330 -1.3816
15282SOL     OW53085   7.770   3.041   4.530  0.5522 -0.7693  0.1849
15282SOL    HW153086   7.677   3.018   4.533  0.6540 -1.1461  0.5851
15282SOL    HW253087   7.815   2.964   4.565  1.1295 -1.2119 -1.4229
15283SOL     OW53088   4.895   6.275   8.539 -0.1452 -0.2390  0.0037
15283SOL    HW153089   4.839   6.294   8.463  0.0878 -0.3881 -0.2090
15283SOL    HW253090   4.841   6.220   8.595 -0.9475  1.3006  0.7922
15284SOL     OW53091  12.314   3.647   8.505 -0.0897 -0.4665 -0.0681
15284SOL    HW153092  12.223   3.669   8.524 -0.3666 -1.1681 -0.5472
15284SOL    HW253093  12.317   3.635   8.410  0.5899 -0.0975 -0.1077
15285SOL     OW53094   3.395   0.655   6.349 -0.0006 -0.1970 -0.3307
15285SOL    HW153095   3.438   0.590   6.294 -0.0019 -1.0594  0.6523
15285SOL    HW253096   3.377   0.728   6.290  0.1926 -0.9940 -1.4190
15286SOL     OW53097  11.228   8.300   2.125  0.0871 -0.3166 -0.0507
15286SOL    HW153098  11.159   8.366   2.130  0.8645  0.4986  0.1537
15286SOL    HW253099  11.181   8.217   2.124 -0.9792  0.2596 -2.0907
15287SOL     OW53100   4.211   6.115   5.638 -0.3818 -0.0163 -0.5672
15287SOL    HW153101   4.144   6.066   5.685 -0.2927  1.0540  0.7242
15287SOL    HW253102   4.250   6.173   5.704 -0.0869  1.3691 -1.8909
15288SOL     OW53103  12.029   6.242   8.733 -0.2382  0.0475 -0.1664
15288SOL    HW153104  12.060   6.254   8.823 -0.9869 -1.1870  0.2935
15288SOL    HW253105  12.074   6.163   8.703  0.3119  0.6716 -1.0437
15289SOL     OW53106   2.241   9.759   5.054  0.0827 -0.0450  0.0738
15289SOL    HW153107   2.167   9.700   5.064 -0.0469  0.0711 -0.1967
15289SOL    HW253108   2.264   9.784   5.144  0.3569 -0.7663  0.2077
15290SOL     OW53109   1.552   8.914   4.542  0.1963  0.5117 -0.6781
15290SOL    HW153110   1.553   9.003   4.579 -1.2602 -0.4159  1.8742
15290SOL    HW253111   1.462   8.904   4.509 -0.5725 -0.8681  1.6083
15291SOL     OW53112   2.675  10.518   0.651 -0.2770  0.2958 -0.6121
15291SOL    HW153113   2.628  10.437   0.633 -0.9663  1.1158 -2.9302
15291SOL    HW253114   2.608  10.587   0.650  0.5284  1.1096 -0.6924
15292SOL     OW53115   1.681   3.393   9.523 -0.0846  0.2482  0.2688
15292SOL    HW153116   1.619   3.383   9.595 -1.1799  0.3744 -0.6237
15292SOL    HW253117   1.684   3.488   9.508  1.0634  0.3326  0.9064
15293SOL     OW53118   2.901   9.860   9.043  0.1759 -0.1398  0.8197
15293SOL    HW153119   2.932   9.935   9.094 -0.6022  2.1539 -1.8702
15293SOL    HW253120   2.920   9.784   9.099  1.2880  1.9755  3.5445
15294SOL     OW53121   8.404  12.138   5.202 -0.5791 -0.0968 -0.3223
15294SOL    HW153122   8.405  12.148   5.297  1.7426  0.9531 -0.3882
15294SOL    HW253123   8.395  12.044   5.188 -0.3173 -0.3308  0.9424
15295SOL     OW53124   7.674   8.303   1.614 -0.0190  0.1698  0.1828
15295SOL    HW153125   7.632   8.380   1.577  0.9560  0.2848 -0.7317
15295SOL    HW253126   7.676   8.319   1.708  0.5832  1.4773 -0.0318
15296SOL     OW53127   1.832   5.909   8.905 -0.1882  0.9579  0.2427
15296SOL    HW153128   1.746   5.946   8.928 -0.4463  0.0594  0.7947
15296SOL    HW253129   1.835   5.826   8.953 -0.3001 -0.5272 -2.1600
15297SOL     OW53130  10.583   8.695   2.044  0.5242 -0.1203  0.0054
15297SOL    HW153131  10.491   8.718   2.031  0.9332  0.9269 -1.1730
15297SOL    HW253132  10.613   8.755   2.112  0.0698 -1.2304  1.2311
15298SOL     OW53133   3.310  11.660   6.878 -0.2291 -0.0127  0.5663
15298SOL    HW153134   3.351  11.738   6.840  0.3385 -0.9708 -0.8830
15298SOL    HW253135   3.257  11.693   6.950 -0.0214  1.7137 -0.0282
15299SOL     OW53136   9.415  11.139   1.264  0.4066 -0.1629 -0.0103
15299SOL    HW153137   9.466  11.205   1.310  0.6767 -0.9153  0.8071
15299SOL    HW253138   9.339  11.123   1.320 -0.3430  0.3862 -0.8423
15300SOL     OW53139   3.980   5.883   1.058 -0.2913  1.1640 -1.0567
15300SOL    HW153140   4.018   5.893   0.971 -1.4306  1.4855 -1.5285
15300SOL    HW253141   3.931   5.801   1.054  0.2022  0.8240 -0.4881
15301SOL     OW53142   0.869   6.230   2.226  0.2914  0.3147  0.3428
15301SOL    HW153143   0.838   6.260   2.140  0.7272  0.6082  0.2858
15301SOL    HW253144   0.789   6.214   2.276  0.0472  1.8564  0.4730
15302SOL     OW53145   9.084   5.562   2.642  1.0538 -0.0701  0.3487
15302SOL    HW153146   9.089   5.506   2.565  0.8228  0.6973 -0.2351
15302SOL    HW253147   9.132   5.513   2.710 -1.5768 -2.3247  0.7468
15303SOL     OW53148   6.241   3.899   0.600 -0.4776  0.1806 -0.2498
15303SOL    HW153149   6.271   3.846   0.526 -1.4848 -0.6298 -0.1018
15303SOL    HW253150   6.321   3.932   0.640  0.0982  0.9322 -1.8952
15304SOL     OW53151   8.734  10.542   7.026 -0.6085 -0.2189 -0.3755
15304SOL    HW153152   8.710  10.493   7.104 -0.5253  0.6549  0.2141
15304SOL    HW253153   8.758  10.629   7.059 -0.8392  0.2452 -1.3968
15305SOL     OW53154  12.689   6.798   3.679 -0.3077  0.7438  0.2824
15305SOL    HW153155  12.661   6.889   3.689  1.6937  1.5782 -1.0409
15305SOL    HW253156  12.663   6.774   3.590  0.1080  0.3866  0.2533
15306SOL     OW53157   2.041   2.456   1.177  0.3494 -0.4566  0.1052
15306SOL    HW153158   2.101   2.502   1.235 -0.2724 -1.5218  1.6655
15306SOL    HW253159   2.095   2.389   1.135  0.1859 -1.9040  2.0700
15307SOL     OW53160  12.284  10.176   7.794 -0.1338 -0.0788 -0.3496
15307SOL    HW153161  12.196  10.142   7.810 -0.4644  1.6362  2.0744
15307SOL    HW253162  12.332  10.157   7.874  1.4007 -0.0001 -1.2059
15308SOL     OW53163   3.859   5.230   5.474 -0.3514 -0.2265  0.2594
15308SOL    HW153164   3.815   5.275   5.545 -1.4713  0.2334 -0.6818
15308SOL    HW253165   3.949   5.219   5.503 -0.6897  0.3240  1.5534
15309SOL     OW53166   1.228  10.932  12.545  0.4383 -0.1953  0.6322
15309SOL    HW153167   1.176  10.909  12.622  0.5908 -1.6711  0.3267
15309SOL    HW253168   1.262  11.019  12.564 -2.0665  0.8245  0.8712
15310SOL     OW53169   0.934   2.990  11.077  0.5102  0.0476 -0.2910
15310SOL    HW153170   0.971   2.902  11.077  0.8219  0.1463  1.1315
15310SOL    HW253171   0.977   3.034  11.151  1.2965  1.8117 -1.7337
15311SOL     OW53172   1.006   1.115   7.283  0.4510  0.5294 -0.4092
15311SOL    HW153173   0.972   1.204   7.291  0.9930  0.8714 -1.6416
15311SOL    HW253174   1.061   1.117   7.204 -0.8480 -1.3151 -1.4420
15312SOL     OW53175  11.993   7.227  11.885 -0.6146  0.6187 -0.4801
15312SOL    HW153176  11.907   7.264  11.868 -1.1025  0.8399  2.0228
15312SOL    HW253177  12.043   7.299  11.924  0.4113  0.2463 -1.0616
15313SOL     OW53178   6.223   5.659   8.372  0.2461  0.1597 -0.1331
15313SOL    HW153179   6.137   5.699   8.360  0.2536  0.1903 -0.0839
15313SOL    HW253180   6.284   5.721   8.332  0.4106  0.9273  1.2473
15314SOL     OW53181  11.308   8.967   4.938 -0.2049 -0.3505 -0.2079
15314SOL    HW153182  11.287   8.878   4.968  2.5083 -1.0891 -0.2602
15314SOL    HW253183  11.297   8.963   4.843 -1.2276 -0.2603 -0.1057
15315SOL     OW53184  12.660   3.755  12.297 -0.4661 -0.5529 -0.2965
15315SOL    HW153185  12.707   3.751  12.381 -1.1526 -1.3946  0.0722
15315SOL    HW253186  12.689   3.677  12.250 -2.0069 -1.5104  0.2493
15316SOL     OW53187   1.079   6.927   7.503  0.3755 -0.2631  0.0886
15316SOL    HW153188   1.024   6.850   7.487 -2.3297  1.7183 -0.6856
15316SOL    HW253189   1.085   6.971   7.418 -0.6622  1.9309  1.0775
15317SOL     OW53190  10.557   5.054   7.346 -0.0311  0.7884  0.3916
15317SOL    HW153191  10.504   5.122   7.388 -2.0659 -0.4581 -0.0165
15317SOL    HW253192  10.606   5.100   7.278 -0.8237  1.9661  0.5940
15318SOL     OW53193   9.331   7.885  12.292  0.0027  0.0970  0.1797
15318SOL    HW153194   9.307   7.904  12.383 -1.3930 -0.8607  0.0386
15318SOL    HW253195   9.375   7.800  12.296  2.8715  1.4842  0.3294
15319SOL     OW53196   1.083   3.534   2.158  0.0065 -0.1784  0.3191
15319SOL    HW153197   1.070   3.548   2.252  2.7106 -0.3101  0.7902
15319SOL    HW253198   1.170   3.496   2.151  0.6731  1.5372 -2.3774
15320SOL     OW53199   8.624   7.745   0.053 -0.1346 -0.4434 -0.6157
15320SOL    HW153200   8.611   7.838   0.073 -0.2408 -1.0699  2.7400
15320SOL    HW253201   8.540   7.718   0.014 -0.2179  0.7559 -1.3362
15321SOL     OW53202   7.301  10.197   9.777 -0.0967  0.0175  0.2929
15321SOL    HW153203   7.207  10.189   9.765  0.1662 -0.6825 -1.7420
15321SOL    HW253204   7.322  10.285   9.744  0.0971 -0.2604 -0.3327
15322SOL     OW53205   5.149   7.005   4.143 -0.2548 -0.4682  0.0049
15322SOL    HW153206   5.081   7.044   4.089 -0.8124 -1.0586  0.2686
15322SOL    HW253207   5.209   7.078   4.162 -1.8670  0.5749  1.4502
15323SOL     OW53208   8.397   3.272   2.494 -0.3859  0.5288  0.3403
15323SOL    HW153209   8.443   3.195   2.460  0.0675 -0.0939  2.2776
15323SOL    HW253210   8.467   3.332   2.521 -0.7265  1.8229 -1.4497
15324SOL     OW53211   8.342   8.377   3.804 -0.1748 -0.2357 -0.7412
15324SOL    HW153212   8.414   8.324   3.771 -0.5837 -1.0653 -0.3194
15324SOL    HW253213   8.377   8.423   3.879  0.0256 -0.3240 -0.7822
15325SOL     OW53214  11.427   6.106   2.302  0.0861  0.0887  0.2238
15325SOL    HW153215  11.421   6.068   2.389 -1.6157 -0.7464 -0.2136
15325SOL    HW253216  11.451   6.198   2.318  1.0162 -0.3431  1.4689
15326SOL     OW53217   1.341   3.571   6.352  0.0232  0.5837 -0.0527
15326SOL    HW153218   1.300   3.657   6.341  1.0786  1.1482  0.2524
15326SOL    HW253219   1.268   3.510   6.357 -0.8098  1.6219  1.1726
15327SOL     OW53220   5.919   3.748  10.451  0.1548 -0.1060 -0.5471
15327SOL    HW153221   5.916   3.688  10.525  0.1515 -0.6927 -1.0121
15327SOL    HW253222   5.844   3.806  10.463  0.7647  0.4869  0.4684
15328SOL     OW53223   1.736   3.745   8.419 -0.0714  0.3288  0.3044
15328SOL    HW153224   1.642   3.733   8.406 -0.3417  0.1958  2.0294
15328SOL    HW253225   1.776   3.703   8.343 -1.4032  0.4695 -0.5162
15329SOL     OW53226   6.540   8.128   1.379 -0.2108 -0.1545  0.1670
15329SOL    HW153227   6.618   8.081   1.350 -1.2086 -1.2209 -0.9145
15329SOL    HW253228   6.468   8.065   1.367 -1.4117  1.1951 -0.0406
15330SOL     OW53229   2.975   5.883   7.938 -0.5075  0.5612  0.1817
15330SOL    HW153230   3.001   5.813   7.878  0.0740 -0.6533  1.7653
15330SOL    HW253231   2.898   5.922   7.898 -0.4045 -0.5021 -1.1200
15331SOL     OW53232   0.399   3.817   4.297  0.5705  0.5156 -0.2923
15331SOL    HW153233   0.435   3.831   4.385  1.0238 -0.7181 -0.2583
15331SOL    HW253234   0.474   3.828   4.239  0.0506  2.4800 -0.6725
15332SOL     OW53235   7.179   8.274   5.716  0.7968 -0.4547 -0.0662
15332SOL    HW153236   7.196   8.339   5.785  0.0671  1.0480 -1.2531
15332SOL    HW253237   7.112   8.315   5.661 -2.6252 -3.7510  1.2341
15333SOL     OW53238  11.634  10.975   4.241 -0.0344 -0.1721 -0.8726
15333SOL    HW153239  11.623  11.069   4.225 -0.0467 -0.4333 -2.6588
15333SOL    HW253240  11.728  10.963   4.249  0.0737 -0.1461 -1.8974
15334SOL     OW53241   8.149  11.727   9.887  0.2377 -0.0081 -0.3066
15334SOL    HW153242   8.159  11.764   9.975  2.3369  1.2537 -1.0142
15334SOL    HW253243   8.207  11.651   9.885  1.4771  0.9103 -1.0456
15335SOL     OW53244   4.719   4.151  11.340  0.3873 -0.2797  0.6745
15335SOL    HW153245   4.681   4.067  11.314  0.2044 -0.0498  0.1896
15335SOL    HW253246   4.785   4.169  11.272 -0.4708  0.5893  0.0604
15336SOL     OW53247   8.012  10.864   9.196 -0.9893  0.2965 -0.3124
15336SOL    HW153248   8.081  10.896   9.254  0.9111 -4.6493  0.6652
15336SOL    HW253249   7.933  10.864   9.249  0.1170 -1.4593  1.4602
15337SOL     OW53250   6.574  12.131   2.699  0.3355 -0.2322 -0.1416
15337SOL    HW153251   6.665  12.101   2.702  0.2044 -0.7327 -0.9356
15337SOL    HW253252   6.576  12.211   2.648  0.4844  0.3814  0.8027
15338SOL     OW53253   9.247   4.529  12.253 -0.5897 -0.4049 -0.2163
15338SOL    HW153254   9.212   4.457  12.200 -1.0507  0.3518 -0.9778
15338SOL    HW253255   9.190   4.603  12.232  0.1091  0.2815  0.2603
15339SOL     OW53256   9.574   5.875  10.353  0.0828 -0.1515  0.1186
15339SOL    HW153257   9.526   5.803  10.392 -0.1928  0.1318  0.3047
15339SOL    HW253258   9.595   5.845  10.265 -1.6437  0.2391 -0.4686
15340SOL     OW53259   8.808   4.833  12.139  0.0780  0.0032  0.2375
15340SOL    HW153260   8.776   4.743  12.144 -1.0090  0.3755  0.4433
15340SOL    HW253261   8.776   4.865  12.055  0.9608  0.0235 -0.0953
15341SOL     OW53262   2.175   2.802   7.805 -0.1024  0.4047  0.4231
15341SOL    HW153263   2.128   2.738   7.857  0.4461 -1.0564 -0.7888
15341SOL    HW253264   2.267   2.791   7.830  0.2115 -0.5617 -1.0370
15342SOL     OW53265   9.114   4.747  12.171 -0.0122  0.7249 -0.3390
15342SOL    HW153266   9.155   4.832  12.153  1.3326  0.0356 -0.6400
15342SOL    HW253267   9.020   4.765  12.169  0.2334  2.0797 -1.0338
15343SOL     OW53268   8.286   3.172   0.260 -0.1500 -0.0344 -0.2989
15343SOL    HW153269   8.307   3.081   0.240 -0.6247  0.0302 -1.1116
15343SOL    HW253270   8.309   3.182   0.352 -1.2063 -1.3026  0.1240
15344SOL     OW53271   8.880   4.266   3.377 -0.0796 -0.4729  0.3079
15344SOL    HW153272   8.910   4.216   3.452 -1.5193  0.6661  1.6904
15344SOL    HW253273   8.961   4.297   3.336  0.7345 -1.5037  1.0714
15345SOL     OW53274   1.973   7.995   3.111  0.5000  0.0852  0.0113
15345SOL    HW153275   1.937   7.992   3.200  0.0040  0.0102 -0.1865
15345SOL    HW253276   1.967   8.088   3.087  0.6838  0.1138  0.0714
15346SOL     OW53277   2.203   2.791   2.441  0.1955  0.1818 -0.0128
15346SOL    HW153278   2.152   2.870   2.423  0.0315 -0.1326 -0.9721
15346SOL    HW253279   2.136   2.725   2.463  0.0868 -0.3948 -1.8598
15347SOL     OW53280   4.180   3.113   2.322 -0.1303 -0.1712 -0.0625
15347SOL    HW153281   4.133   3.063   2.389 -1.2350  0.7065 -0.1253
15347SOL    HW253282   4.247   3.054   2.289 -1.0302 -1.3983  0.2384
15348SOL     OW53283   0.760  12.165   0.103 -0.0310 -0.2166  0.1716
15348SOL    HW153284   0.804  12.151   0.187  0.3691  0.6385  0.1218
15348SOL    HW253285   0.703  12.240   0.119 -1.3033 -1.1588  0.1602
15349SOL     OW53286  12.147  12.707   2.717  0.0755  0.4344 -0.0328
15349SOL    HW153287  12.124  12.798   2.735 -0.2046  0.1596  1.0624
15349SOL    HW253288  12.190  12.709   2.632 -2.0526  1.2913 -1.1686
15350SOL     OW53289  11.036  12.175   6.537  0.6186  0.3695  0.2194
15350SOL    HW153290  11.042  12.150   6.629 -1.1539  1.3190  0.6264
15350SOL    HW253291  11.100  12.246   6.528 -0.6093  1.6804  1.2716
15351SOL     OW53292  11.509   9.846   3.389  0.5924  0.0259  0.5540
15351SOL    HW153293  11.557   9.807   3.463 -1.2934  0.0276  1.8323
15351SOL    HW253294  11.464   9.772   3.348  0.4505  0.2545  0.2957
15352SOL     OW53295   5.067   2.414   6.963 -0.0293 -0.0184  0.2769
15352SOL    HW153296   4.996   2.351   6.979 -1.3274  0.9098 -1.4747
15352SOL    HW253297   5.041   2.460   6.884  2.3250  0.7332 -0.1439
15353SOL     OW53298   9.751   4.039   5.381 -0.2798 -0.8746  0.1327
15353SOL    HW153299   9.700   4.016   5.303  0.8789  1.0891 -1.2698
15353SOL    HW253300   9.840   4.009   5.361  0.1789  0.3039  0.3675
15354SOL     OW53301   0.694   5.903  11.657 -0.2301 -0.0528 -0.3674
15354SOL    HW153302   0.628   5.856  11.607 -1.1051 -0.9461  1.5465
15354SOL    HW253303   0.778   5.871  11.623 -0.7715 -3.3979  1.0944
15355SOL     OW53304   6.540  11.580   9.511  0.1009 -0.7028 -0.6606
15355SOL    HW153305   6.538  11.615   9.600  0.2485 -0.4783 -0.7437
15355SOL    HW253306   6.455  11.538   9.499 -0.4380  0.4041 -0.8624
15356SOL     OW53307   9.233   1.767   1.992 -0.1811  0.1924 -0.0953
15356SOL    HW153308   9.242   1.688   2.046 -0.0170  2.1585  2.9910
15356SOL    HW253309   9.275   1.744   1.909 -1.7439 -3.5106 -0.0512
15357SOL     OW53310   8.842   9.595   0.835 -0.5223  0.1066  0.1598
15357SOL    HW153311   8.915   9.656   0.838  0.5062 -1.1270  0.7424
15357SOL    HW253312   8.799   9.614   0.751  0.3496  0.9650 -0.1104
15358SOL     OW53313   5.427   0.163   7.234  0.1372  0.0923 -0.0025
15358SOL    HW153314   5.375   0.176   7.314 -0.8412  0.6653 -0.7144
15358SOL    HW253315   5.471   0.247   7.221 -0.3296  0.2659 -0.4951
15359SOL     OW53316  10.146  11.313   4.071  0.0875 -0.5970 -0.6117
15359SOL    HW153317  10.183  11.401   4.070  0.1816 -0.6369 -0.6732
15359SOL    HW253318  10.052  11.327   4.072  0.0956 -0.4966 -1.0413
15360SOL     OW53319  10.818   0.281   1.893 -0.1424 -0.1285 -0.2927
15360SOL    HW153320  10.826   0.226   1.971  1.4995  0.2743 -0.1257
15360SOL    HW253321  10.790   0.222   1.824 -0.0810 -0.8221  0.2636
15361SOL     OW53322   6.182   3.541   1.298  0.0288 -0.8040  0.1513
15361SOL    HW153323   6.271   3.551   1.263  0.0235 -1.0731  0.0568
15361SOL    HW253324   6.126   3.580   1.231  0.1919  1.0644  1.0351
15362SOL     OW53325  10.787   5.301   6.230  0.6637  0.7336 -0.2494
15362SOL    HW153326  10.736   5.353   6.169 -0.1613  1.6055  1.1397
15362SOL    HW253327  10.788   5.213   6.192 -1.0122  0.9391 -0.8223
15363SOL     OW53328  10.820   9.466  11.908  0.7383 -0.1058 -0.2234
15363SOL    HW153329  10.784   9.428  11.989  1.6617  0.1287  0.3109
15363SOL    HW253330  10.913   9.441  11.910  0.7420 -0.1906 -1.2756
15364SOL     OW53331   0.831  10.204   3.292  0.1399 -0.9376  0.2139
15364SOL    HW153332   0.922  10.227   3.311 -0.5863  1.6604  0.8769
15364SOL    HW253333   0.780  10.278   3.324 -2.1951 -2.0652 -0.6671
15365SOL     OW53334   5.516   7.701  10.586  0.0419  0.1023 -0.4977
15365SOL    HW153335   5.483   7.613  10.572  0.5269  0.0458 -1.3105
15365SOL    HW253336   5.610   7.695  10.571 -0.1114  1.0488 -2.0528
15366SOL     OW53337   7.572   2.693   5.016  0.1123  0.0289 -0.0952
15366SOL    HW153338   7.615   2.675   4.933  0.0578  0.5018 -0.2256
15366SOL    HW253339   7.626   2.760   5.057  1.8319 -2.1856  1.5633
15367SOL     OW53340   2.337   5.358   0.255 -0.2911  0.2330 -0.2313
15367SOL    HW153341   2.393   5.304   0.310 -0.7724 -1.3352 -1.2251
15367SOL    HW253342   2.252   5.357   0.299 -0.1048  0.8606  0.1602
15368SOL     OW53343   9.658   4.173   6.555 -0.0322  0.5016 -0.0813
15368SOL    HW153344   9.647   4.124   6.474  2.7874 -0.5793  0.0795
15368SOL    HW253345   9.684   4.260   6.527  0.2871  0.3216 -0.3473
15369SOL     OW53346   7.123   2.349   4.534  0.1291  0.1409 -0.2424
15369SOL    HW153347   7.181   2.275   4.552  0.6269  0.4334 -0.5943
15369SOL    HW253348   7.035   2.315   4.548  0.4206 -0.0397  1.2746
15370SOL     OW53349   5.128   6.573   5.887 -0.4274 -0.2016  0.4061
15370SOL    HW153350   5.072   6.501   5.916 -0.9092  0.6522  1.7059
15370SOL    HW253351   5.128   6.633   5.961  0.8084  0.6409 -0.2609
15371SOL     OW53352   8.883   5.615   4.088 -0.0911  0.0673  0.1127
15371SOL    HW153353   8.938   5.572   4.154 -0.6617  1.0046  1.2243
15371SOL    HW253354   8.797   5.576   4.099 -0.8530  2.0651  1.7662
15372SOL     OW53355   8.313   7.077   7.473  0.0520 -0.1487 -0.0832
15372SOL    HW153356   8.359   7.149   7.428  0.7720 -0.2760  0.4314
15372SOL    HW253357   8.340   7.085   7.564  0.5803 -1.4062 -0.1153
15373SOL     OW53358   0.276   8.725   0.810 -0.1204 -0.4800  0.2187
15373SOL    HW153359   0.264   8.674   0.730  0.3327 -1.3483  0.6876
15373SOL    HW253360   0.193   8.770   0.823 -0.2624 -0.4794 -0.6280
15374SOL     OW53361   1.223  10.515   5.968  0.4157  0.9045  0.1115
15374SOL    HW153362   1.232  10.506   6.062  1.0282 -0.5533 -0.0484
15374SOL    HW253363   1.150  10.457   5.945 -0.6783  2.3467 -0.1619
15375SOL     OW53364   7.309  11.206   4.202 -0.1965  0.6792  0.5220
15375SOL    HW153365   7.373  11.137   4.221  0.0438  0.8792  0.4547
15375SOL    HW253366   7.263  11.219   4.285 -1.3553 -0.6775  0.1261
15376SOL     OW53367   7.536   4.621  12.690  0.6849 -0.0394  0.4084
15376SOL    HW153368   7.508   4.639  12.780  0.4110 -0.8216  0.4945
15376SOL    HW253369   7.455   4.625  12.639  0.6806 -0.5810  0.3669
15377SOL     OW53370  12.332   2.114   4.411  0.5907 -0.3030  0.3492
15377SOL    HW153371  12.300   2.204   4.404  1.4941  0.0885  1.0190
15377SOL    HW253372  12.348   2.087   4.320  3.0619  1.2837  0.2112
15378SOL     OW53373  10.503   4.223   9.942 -0.2770 -0.0221 -0.3907
15378SOL    HW153374  10.594   4.225   9.913 -0.7269  0.1925 -1.8462
15378SOL    HW253375  10.509   4.220  10.038  1.2302  1.3901 -0.4017
15379SOL     OW53376   1.883   6.229   7.440 -0.1306  0.8753 -0.0121
15379SOL    HW153377   1.792   6.231   7.410  0.2172 -0.0916 -1.2185
15379SOL    HW253378   1.890   6.146   7.488  0.4751  0.2322 -1.1841
15380SOL     OW53379   7.431   6.263   4.967  0.6455 -0.3420 -0.1121
15380SOL    HW153380   7.470   6.175   4.962  2.2668  0.1415  2.2621
15380SOL    HW253381   7.427   6.292   4.875  2.5934 -1.8737 -0.7735
15381SOL     OW53382   1.351  12.460   4.890  0.3675  0.3188  0.5815
15381SOL    HW153383   1.412  12.504   4.949 -0.9657  2.8380  0.2521
15381SOL    HW253384   1.269  12.458   4.937 -0.1184  0.1073 -0.2480
15382SOL     OW53385   5.623   2.498   5.131 -0.2732 -0.3976 -0.2243
15382SOL    HW153386   5.637   2.440   5.057  1.2766  0.1341 -0.3729
15382SOL    HW253387   5.618   2.585   5.093 -2.6025 -0.3546 -0.0029
15383SOL     OW53388   3.046  10.144   1.038 -0.6746  0.6825 -0.1754
15383SOL    HW153389   3.008  10.087   1.104  1.1597 -0.0499  0.3061
15383SOL    HW253390   3.129  10.103   1.015  0.7475  3.1239  0.1807
15384SOL     OW53391  11.701  12.420  10.881  0.3963  0.1004 -0.1056
15384SOL    HW153392  11.615  12.428  10.924  0.7772 -0.0462  0.7084
15384SOL    HW253393  11.691  12.348  10.820 -0.1579  0.2927 -0.2446
15385SOL     OW53394   0.552   1.695  11.983  0.1262  0.2634 -0.4918
15385SOL    HW153395   0.519   1.775  12.023 -0.5060 -0.1679 -0.1278
15385SOL    HW253396   0.595   1.724  11.903  1.6555  1.1685  0.5998
15386SOL     OW53397   5.050   4.048  12.119 -0.3460  0.2068  0.8401
15386SOL    HW153398   5.032   4.122  12.176  1.4054  1.6246 -0.3402
15386SOL    HW253399   5.107   4.083  12.051  2.0243 -2.5717  1.1837
15387SOL     OW53400  11.700   4.891   5.876 -0.5685  0.6919 -0.3183
15387SOL    HW153401  11.680   4.934   5.959  0.1147  1.4951 -0.5450
15387SOL    HW253402  11.777   4.939   5.843  0.0900 -0.5901 -0.6890
15388SOL     OW53403   8.400  10.388   7.516 -0.0544  0.4722  0.0570
15388SOL    HW153404   8.378  10.481   7.505  1.4371  0.7458 -0.9232
15388SOL    HW253405   8.388  10.350   7.429  2.0645  0.4018 -0.2478
15389SOL     OW53406  11.119   9.828   1.273 -0.1704  0.0641  0.4612
15389SOL    HW153407  11.148   9.750   1.321  1.3286  2.0015  2.9491
15389SOL    HW253408  11.046   9.862   1.325  0.6544  1.5167  0.7263
15390SOL     OW53409   7.741   7.897  11.387 -0.5064 -0.0114 -0.7862
15390SOL    HW153410   7.822   7.925  11.345  0.4168  1.0327  1.4912
15390SOL    HW253411   7.762   7.897  11.481 -3.2777  0.8437 -0.0721
15391SOL     OW53412   6.539   1.823   6.527 -0.5534 -0.1985  0.0841
15391SOL    HW153413   6.555   1.918   6.529  0.2696 -0.3211 -0.1163
15391SOL    HW253414   6.608   1.787   6.583 -1.3115 -0.6306  0.7614
15392SOL     OW53415  11.576  11.235   6.334 -0.2790 -0.2045 -0.1597
15392SOL    HW153416  11.645  11.217   6.398 -0.3647 -0.9177 -0.2552
15392SOL    HW253417  11.622  11.237   6.250  0.1689  2.7167  0.0559
15393SOL     OW53418   3.333   1.602  12.458  0.1493 -0.0786  0.0146
15393SOL    HW153419   3.320   1.696  12.464  0.5942  0.0417 -0.7256
15393SOL    HW253420   3.280   1.575  12.383  0.2232 -0.3678  0.0632
15394SOL     OW53421   1.852   3.210  10.986 -0.1215  0.1842 -0.2612
15394SOL    HW153422   1.820   3.267  11.055  1.4814  0.0145  0.6598
15394SOL    HW253423   1.866   3.268  10.911  1.0161  0.9469  0.5076
15395SOL     OW53424  11.755  12.315  10.154 -0.1337 -0.5304  0.4326
15395SOL    HW153425  11.772  12.228  10.189  0.8309 -0.9112 -0.9019
15395SOL    HW253426  11.839  12.345  10.121 -0.7448  0.2944 -0.4512
15396SOL     OW53427   0.961  11.211  12.459  0.1609 -0.0607 -0.3006
15396SOL    HW153428   0.935  11.267  12.386  0.1020  1.9225  1.1522
15396SOL    HW253429   1.016  11.144  12.420 -1.3726 -0.1884 -2.4179
15397SOL     OW53430  11.831  11.684   1.556 -0.8477  0.2010  0.0122
15397SOL    HW153431  11.830  11.765   1.506  0.5409  1.1041  1.3578
15397SOL    HW253432  11.778  11.702   1.633  0.1970  0.1606  0.7623
15398SOL     OW53433   4.908   8.750   3.347  0.1461 -0.1301  0.3544
15398SOL    HW153434   4.860   8.671   3.319 -1.0990  0.3012  1.2072
15398SOL    HW253435   4.955   8.778   3.268 -1.3182 -0.3559 -0.6342
15399SOL     OW53436   8.789  10.184   4.100  0.3018 -0.0874  0.4497
15399SOL    HW153437   8.771  10.090   4.107 -1.4133  0.1185 -0.6365
15399SOL    HW253438   8.830  10.194   4.014 -0.9553  0.3332 -0.1161
15400SOL     OW53439   4.368  10.208  10.520 -0.1603  0.1927  0.0641
15400SOL    HW153440   4.436  10.274  10.535 -0.2306  0.1309  0.6519
15400SOL    HW253441   4.327  10.236  10.438  1.6256 -0.6620 -1.1979
15401SOL     OW53442   6.025   1.257   9.777 -0.4902 -0.0049  0.0648
15401SOL    HW153443   5.978   1.184   9.817 -0.3465 -0.4605 -0.5941
15401SOL    HW253444   6.027   1.324   9.845 -3.0782  0.4737 -0.2300
15402SOL     OW53445  11.670   1.466   4.142 -0.0144 -0.1546  0.0837
15402SOL    HW153446  11.653   1.388   4.090 -0.3602  0.3415 -0.5693
15402SOL    HW253447  11.583   1.502   4.161  0.1646  0.7755 -0.7483
15403SOL     OW53448   5.894   0.017   7.730 -0.2481  0.1707  0.0507
15403SOL    HW153449   5.868  -0.042   7.801  0.5513  1.2790  1.3150
15403SOL    HW253450   5.887   0.105   7.768  0.5256  0.7752 -1.1387
15404SOL     OW53451   0.660   2.860   7.924 -0.1931 -0.4640  0.0093
15404SOL    HW153452   0.682   2.822   8.010  1.1632  0.1891 -0.0174
15404SOL    HW253453   0.658   2.785   7.865 -1.0193 -0.9082  0.5704
15405SOL     OW53454   2.558   3.514  12.613 -1.0106 -0.2562  0.3562
15405SOL    HW153455   2.510   3.591  12.584 -0.0587 -0.1676 -1.0769
15405SOL    HW253456   2.492   3.456  12.650 -1.8848  0.7795  0.4483
15406SOL     OW53457  10.073   7.094   9.294 -0.6010  0.1410 -0.0265
15406SOL    HW153458   9.987   7.132   9.309 -1.9200 -2.0318 -1.4774
15406SOL    HW253459  10.108   7.078   9.381 -3.8190 -3.3150  0.9016
15407SOL     OW53460   3.328   7.557   8.096  0.6672 -0.1152 -0.0321
15407SOL    HW153461   3.275   7.574   8.174 -2.1195  0.8129 -1.9417
15407SOL    HW253462   3.329   7.462   8.088  2.2381 -0.3113  1.8351
15408SOL     OW53463   4.653  12.303   5.501  0.3832  0.6186  0.1985
15408SOL    HW153464   4.584  12.344   5.553  0.5179  1.6494 -0.3954
15408SOL    HW253465   4.621  12.306   5.411  1.2659  1.3269 -0.1177
15409SOL     OW53466   6.197   2.719   6.319  0.3246  0.6674 -0.0641
15409SOL    HW153467   6.204   2.624   6.316 -1.6572  0.4504  0.4372
15409SOL    HW253468   6.168   2.738   6.408 -1.3248  1.5207 -0.7243
15410SOL     OW53469   9.348  10.373  10.785  0.4738  0.0245  0.0170
15410SOL    HW153470   9.432  10.327  10.782  0.6544  0.0971  2.3130
15410SOL    HW253471   9.368  10.457  10.826 -0.7298 -0.0261  0.7669
15411SOL     OW53472   7.224   4.885   7.579 -0.1362 -0.5346 -0.1810
15411SOL    HW153473   7.221   4.863   7.486  0.6884 -1.6660  0.0401
15411SOL    HW253474   7.154   4.833   7.618 -0.8444  0.3523 -0.2250
15412SOL     OW53475   8.445   8.304  12.268  0.7526  0.2733  0.1964
15412SOL    HW153476   8.465   8.223  12.316 -0.7758 -1.1191 -1.3889
15412SOL    HW253477   8.518   8.362  12.289  1.0096 -0.8441  2.8104
15413SOL     OW53478   6.131   3.630   8.140  0.6358  0.1657 -0.4248
15413SOL    HW153479   6.172   3.694   8.083  0.0752  0.4998 -0.4668
15413SOL    HW253480   6.148   3.545   8.098  2.6208  0.1116  0.3771
15414SOL     OW53481   1.546   9.638  12.377  0.5662  0.5189 -0.1985
15414SOL    HW153482   1.634   9.616  12.407  0.1320 -0.8505  0.1431
15414SOL    HW253483   1.517   9.707  12.436  1.6504  1.4727 -0.7451
15415SOL     OW53484   9.042   2.526  10.886  0.4843 -0.3771 -0.0185
15415SOL    HW153485   9.059   2.432  10.879 -1.8133 -0.8073 -0.2984
15415SOL    HW253486   8.956   2.539  10.846  1.9832  2.3425 -2.8235
15416SOL     OW53487   6.832   4.494   6.029  0.0380 -0.2783  0.2573
15416SOL    HW153488   6.803   4.585   6.033  0.2919 -0.2039  0.4539
15416SOL    HW253489   6.842   4.476   5.936  0.8166  0.1656  0.2425
15417SOL     OW53490   9.424   9.162   4.322 -0.3547  0.1322  0.6741
15417SOL    HW153491   9.454   9.146   4.233 -3.3326  2.4176 -0.9196
15417SOL    HW253492   9.408   9.074   4.358  1.6149 -0.8653 -0.7081
15418SOL     OW53493   9.524   7.416   7.617  0.0575 -0.0601  0.0920
15418SOL    HW153494   9.560   7.485   7.561  0.4153  0.0274  0.4234
15418SOL    HW253495   9.450   7.458   7.661 -0.2343 -0.1340 -0.3252
15419SOL     OW53496   8.548  10.454  11.686  0.3546 -0.5684 -0.7853
15419SOL    HW153497   8.591  10.490  11.608  0.4912 -0.6422 -0.7461
15419SOL    HW253498   8.607  10.477  11.758 -0.0907  0.0633 -0.6132
15420SOL     OW53499   4.307   7.948   4.663  0.1241  0.4562  0.3939
15420SOL    HW153500   4.236   7.984   4.610  0.2649 -0.4414 -0.4198
15420SOL    HW253501   4.286   7.975   4.753 -0.5423  1.3035  0.0007
15421SOL     OW53502  12.564   4.038   8.823 -0.2178 -0.1808  0.6844
15421SOL    HW153503  12.548   3.966   8.762 -0.6614  0.5025 -0.0228
15421SOL    HW253504  12.484   4.043   8.875 -0.5015  0.2886  0.2135
15422SOL     OW53505   9.395   9.254   0.367  0.1049  0.8474  0.2099
15422SOL    HW153506   9.420   9.227   0.279 -0.1001 -1.4813  0.7799
15422SOL    HW253507   9.300   9.269   0.361  0.1757  1.2028 -0.0638
15423SOL     OW53508   0.952  10.778   5.352 -0.1212 -0.5694  0.5602
15423SOL    HW153509   0.872  10.818   5.318  0.6613  1.2358  0.6839
15423SOL    HW253510   1.016  10.849   5.351  2.0439 -2.4151 -1.3078
15424SOL     OW53511   2.432  11.431  11.072 -0.2156  0.0994 -0.7401
15424SOL    HW153512   2.462  11.423  11.163 -2.7697  0.8008  0.2592
15424SOL    HW253513   2.465  11.353  11.029  0.3316 -0.7054  1.0380
15425SOL     OW53514   3.339   7.546   8.968 -0.2074  0.4081  0.1809
15425SOL    HW153515   3.419   7.598   8.968  1.0205 -1.3885 -0.3552
15425SOL    HW253516   3.362   7.466   8.920 -1.9103 -0.7835  1.2427
15426SOL     OW53517   3.449   5.723   4.554  0.3930 -0.5470  0.1419
15426SOL    HW153518   3.431   5.731   4.460  0.9970  0.1805  0.0796
15426SOL    HW253519   3.457   5.813   4.585  1.9161 -0.7821  0.5313
15427SOL     OW53520  10.775   1.658   9.563 -0.3485  0.1482  0.1171
15427SOL    HW153521  10.719   1.735   9.555 -0.9606 -0.3680 -0.9761
15427SOL    HW253522  10.860   1.686   9.531 -0.4142  0.5226  0.2704
15428SOL     OW53523   8.485   5.595  12.387  0.1430  0.1907  0.2468
15428SOL    HW153524   8.390   5.589  12.377  0.2883  0.1689 -1.4610
15428SOL    HW253525   8.504   5.550  12.469 -1.0072 -3.0404 -1.0862
15429SOL     OW53526  12.636   9.124   2.854 -0.2508  0.4010  0.2055
15429SOL    HW153527  12.679   9.108   2.770  2.0399  1.4188  1.1126
15429SOL    HW253528  12.550   9.158   2.830 -0.7431 -1.9001 -1.6952
15430SOL     OW53529  11.852   7.332   3.616 -0.3515 -0.0256  0.5565
15430SOL    HW153530  11.837   7.324   3.711 -0.4617  0.5781  0.5899
15430SOL    HW253531  11.946   7.315   3.606  0.2519  2.6169  1.1144
15431SOL     OW53532   6.320   4.234  10.324  0.5038 -1.0042 -0.3630
15431SOL    HW153533   6.303   4.308  10.265 -0.1182 -1.1724 -0.3985
15431SOL    HW253534   6.280   4.261  10.408 -1.5112 -2.1021 -0.9027
15432SOL     OW53535   5.278   5.316   6.850 -0.8557 -0.1661 -0.3482
15432SOL    HW153536   5.371   5.318   6.826 -0.9774 -0.7069 -0.8948
15432SOL    HW253537   5.278   5.311   6.945 -0.3487  1.6019 -0.2178
15433SOL     OW53538   4.911   2.453   0.147  0.2357 -0.2563 -0.3688
15433SOL    HW153539   4.819   2.439   0.127 -0.1123 -0.8176  1.4073
15433SOL    HW253540   4.930   2.388   0.215  1.9006 -0.0339 -0.5886
15434SOL     OW53541  12.234   1.675   9.403  0.1244  0.8613  0.0482
15434SOL    HW153542  12.197   1.642   9.321  0.1726 -0.2711  0.4654
15434SOL    HW253543  12.324   1.698   9.381  0.2246  0.2964 -0.1675
15435SOL     OW53544  12.098   1.733   3.381  0.3508  0.1875 -0.1158
15435SOL    HW153545  12.035   1.801   3.357 -0.2049 -0.2280  0.1673
15435SOL    HW253546  12.046   1.664   3.422  0.9459 -0.2937 -0.1517
15436SOL     OW53547   6.714   5.589   9.141  0.2191 -0.1449 -0.0230
15436SOL    HW153548   6.637   5.611   9.194 -0.6850 -0.0299 -1.3454
15436SOL    HW253549   6.732   5.667   9.090  1.5928  0.0259  0.6925
15437SOL     OW53550   3.109   9.798  11.665 -0.3347  0.3666  0.6364
15437SOL    HW153551   3.034   9.805  11.606  0.1872 -1.7353 -0.3789
15437SOL    HW253552   3.069   9.793  11.752 -1.5459 -1.7054  0.0536
15438SOL     OW53553   4.458   7.055   7.989 -0.3550 -0.3944  0.0078
15438SOL    HW153554   4.427   7.145   8.000 -0.6442 -0.4893 -0.0064
15438SOL    HW253555   4.532   7.062   7.930  0.8775  0.0706  1.5367
15439SOL     OW53556   4.236   1.192   3.131  0.1231  0.1035  0.4692
15439SOL    HW153557   4.282   1.199   3.047 -0.9859  0.8794 -0.1085
15439SOL    HW253558   4.217   1.283   3.156 -0.9753 -0.1822  0.7356
15440SOL     OW53559   8.727  11.058   8.139  0.4815 -0.0156  0.3232
15440SOL    HW153560   8.773  11.087   8.060 -1.6231  0.0430 -0.9684
15440SOL    HW253561   8.730  11.133   8.198  0.0537  0.8360 -0.6936
15441SOL     OW53562   5.733   6.873   4.751  0.0514  0.3183 -0.2100
15441SOL    HW153563   5.728   6.879   4.656 -0.4210 -2.9427 -0.4966
15441SOL    HW253564   5.641   6.869   4.779  0.1628  1.9624  0.5070
15442SOL     OW53565   6.557  10.382  12.216 -0.0935 -0.0828 -0.0591
15442SOL    HW153566   6.634  10.431  12.244 -0.1726 -0.3095  0.5807
15442SOL    HW253567   6.592  10.300  12.181 -0.0497 -0.2841  0.4452
15443SOL     OW53568  11.376   6.829   3.690  0.2531 -0.6342 -0.2202
15443SOL    HW153569  11.367   6.861   3.780 -0.7091 -1.6472  0.0841
15443SOL    HW253570  11.370   6.907   3.635  0.9631  0.0119  0.5893
15444SOL     OW53571  12.175   5.828   6.810  0.5710 -0.4837  0.4028
15444SOL    HW153572  12.163   5.916   6.776  0.0113 -0.9470 -0.6457
15444SOL    HW253573  12.255   5.796   6.768 -0.2170 -1.1208 -0.6660
15445SOL     OW53574   6.876   7.004   1.346  1.0261  0.0474  0.2183
15445SOL    HW153575   6.867   7.049   1.430 -0.5169  0.5192 -0.1735
15445SOL    HW253576   6.840   7.066   1.282  0.0111 -1.2354 -0.5004
15446SOL     OW53577   7.495   1.039   7.524 -0.3110 -0.0805 -0.6714
15446SOL    HW153578   7.583   1.072   7.505  0.1515 -0.6428  0.3933
15446SOL    HW253579   7.441   1.070   7.452  0.6764  0.6471 -1.1109
15447SOL     OW53580  11.517   4.012  11.929  0.1367 -0.2063  0.0340
15447SOL    HW153581  11.474   4.030  12.012  0.8201  0.1218  0.3221
15447SOL    HW253582  11.520   3.916  11.924 -3.1448 -0.3748 -1.3258
15448SOL     OW53583   2.257  11.627  12.210 -0.0435  0.0338 -0.6006
15448SOL    HW153584   2.248  11.676  12.129 -0.4943  1.3084  0.1869
15448SOL    HW253585   2.228  11.539  12.189 -0.0686  0.3254 -1.8398
15449SOL     OW53586   6.262  11.097   9.177  0.1450  0.3219  0.6802
15449SOL    HW153587   6.179  11.144   9.166 -0.7040 -0.8965  1.6154
15449SOL    HW253588   6.328  11.166   9.183 -1.0034  1.3901  1.5707
15450SOL     OW53589   3.684   2.339  10.327  0.3995 -0.3040 -0.2261
15450SOL    HW153590   3.740   2.271  10.365  1.9201  0.6872 -0.6118
15450SOL    HW253591   3.667   2.310  10.238 -0.2731 -0.9280  0.0947
15451SOL     OW53592   8.760   3.962   7.506 -0.3544  0.0370 -0.2113
15451SOL    HW153593   8.716   3.891   7.553 -0.6246  1.4977  1.8938
15451SOL    HW253594   8.843   3.973   7.552  0.3477  0.1426 -1.4488
15452SOL     OW53595   5.152  12.336   6.416 -0.1071  0.4430 -0.0936
15452SOL    HW153596   5.101  12.307   6.341 -0.2033 -1.3453  0.6191
15452SOL    HW253597   5.200  12.259   6.445  1.2018  1.5063  0.6890
15453SOL     OW53598   9.534   0.829   5.146  0.3359  0.0524 -0.4926
15453SOL    HW153599   9.479   0.902   5.175 -0.8375 -0.7407 -0.6630
15453SOL    HW253600   9.528   0.832   5.050  1.5485  0.6622 -0.5697
15454SOL     OW53601   5.602   9.079   2.105  0.8538 -0.3280 -0.1061
15454SOL    HW153602   5.660   9.073   2.181  1.3245 -0.2087 -0.4459
15454SOL    HW253603   5.652   9.037   2.034  1.1253  1.0559 -0.7565
15455SOL     OW53604   5.200   8.563   0.565 -0.1118 -0.0347  0.0881
15455SOL    HW153605   5.135   8.628   0.589  0.3357  0.2391  0.5842
15455SOL    HW253606   5.166   8.481   0.600  1.0903  0.5329  2.8126
15456SOL     OW53607  11.200   0.889   7.206  0.3965  0.2923 -0.2099
15456SOL    HW153608  11.122   0.836   7.190  0.6253 -0.2277  0.3801
15456SOL    HW253609  11.198   0.956   7.137  0.2860 -0.6653 -1.1511
15457SOL     OW53610   9.887   5.773   5.035  0.0320 -0.0920 -0.2259
15457SOL    HW153611   9.887   5.864   5.064  0.6214  0.5949 -2.2228
15457SOL    HW253612   9.804   5.738   5.066 -0.3575  1.2157  0.2802
15458SOL     OW53613   8.347  11.779   7.009 -0.2656  0.3215  0.3927
15458SOL    HW153614   8.332  11.837   6.934  0.5370 -1.0559 -0.8843
15458SOL    HW253615   8.432  11.806   7.043  0.4664 -0.5482 -0.6738
15459SOL     OW53616  10.437  10.865   7.716 -0.1557 -0.0971 -0.3906
15459SOL    HW153617  10.517  10.918   7.718  0.9729 -1.6748 -0.6605
15459SOL    HW253618  10.384  10.904   7.648 -0.3612  1.9569  0.8634
15460SOL     OW53619   8.608   5.391   1.206 -0.0949  0.2550  0.2786
15460SOL    HW153620   8.572   5.303   1.197 -2.3205  1.1820 -0.5127
15460SOL    HW253621   8.659   5.388   1.287 -2.2927 -1.0813  1.7042
15461SOL     OW53622  11.640   1.352   2.679  0.1218  0.3661 -0.0465
15461SOL    HW153623  11.574   1.347   2.749 -1.0045 -2.2695 -1.1297
15461SOL    HW253624  11.589   1.368   2.600  1.1731  1.4737 -0.5238
15462SOL     OW53625   3.173   4.775   4.820 -0.3347  0.0581  0.3049
15462SOL    HW153626   3.078   4.777   4.809 -0.5701 -0.3850  1.9769
15462SOL    HW253627   3.196   4.864   4.844 -0.1865  0.3621 -0.8750
15463SOL     OW53628   1.428   2.840  11.828  0.9472 -0.6589 -0.7728
15463SOL    HW153629   1.510   2.800  11.856  0.6688 -0.8559 -0.2166
15463SOL    HW253630   1.368   2.766  11.818  0.9846 -0.5785 -1.7352
15464SOL     OW53631   8.797   6.368   3.781  0.3569 -0.4601 -0.2674
15464SOL    HW153632   8.750   6.291   3.750  0.1676  0.3778 -2.2265
15464SOL    HW253633   8.728   6.424   3.819  0.0626 -0.1384 -1.2419
15465SOL     OW53634  10.594  11.636   2.877  0.1978  0.0799 -0.3316
15465SOL    HW153635  10.665  11.581   2.845  0.5276 -0.7804  1.6959
15465SOL    HW253636  10.630  11.725   2.878  1.3318 -0.3661  0.7936
15466SOL     OW53637   9.734  10.043   4.914 -0.2178 -0.2213  0.6212
15466SOL    HW153638   9.799  10.054   4.983  0.4427 -0.7735  0.0920
15466SOL    HW253639   9.784  10.016   4.837 -0.8036  1.3935 -0.3724
15467SOL     OW53640  11.870   7.441   3.154  0.4372 -0.6169 -0.4011
15467SOL    HW153641  11.831   7.526   3.136 -0.0415 -0.7546 -0.0383
15467SOL    HW253642  11.948   7.461   3.206  0.5036 -0.3808 -0.5894
15468SOL     OW53643  11.535   4.481   8.350  0.3005  0.4855  0.0856
15468SOL    HW153644  11.585   4.414   8.303  2.5473  1.5558  0.7771
15468SOL    HW253645  11.493   4.434   8.422  0.7330 -0.3948 -0.2303
15469SOL     OW53646   5.237  12.506   9.605  0.0583 -0.1968 -0.1154
15469SOL    HW153647   5.304  12.440   9.622 -0.7513 -0.6872  1.4011
15469SOL    HW253648   5.281  12.589   9.619  0.8554 -0.4231 -1.1505
15470SOL     OW53649   1.018  11.091   1.995  0.3224  0.1131 -0.0671
15470SOL    HW153650   1.068  11.015   1.964  3.0475  1.6623  0.1437
15470SOL    HW253651   0.977  11.061   2.076  0.7100 -1.3409 -0.3773
15471SOL     OW53652   4.762   0.088   5.045  0.4066 -0.6053  0.0108
15471SOL    HW153653   4.845   0.095   4.998 -0.5189  0.8249 -1.4900
15471SOL    HW253654   4.744  -0.006   5.046 -0.2528 -0.6989 -3.9393
15472SOL     OW53655   2.094   3.598   1.558  0.3692  0.1350 -0.3256
15472SOL    HW153656   2.107   3.514   1.601  0.6168  1.0009  1.3976
15472SOL    HW253657   2.030   3.644   1.613  1.1456  1.5272 -0.5326
15473SOL     OW53658   7.113   2.265   6.828  1.1200  0.1836  0.4518
15473SOL    HW153659   7.189   2.261   6.770  1.0886  0.2728  0.4050
15473SOL    HW253660   7.144   2.229   6.911  0.4851 -2.4357 -0.3435
15474SOL     OW53661   5.850   9.114  10.322  0.1942 -0.5322 -0.5203
15474SOL    HW153662   5.852   9.200  10.364  2.5021 -0.4335 -0.6868
15474SOL    HW253663   5.926   9.114  10.264  0.2056 -2.6550 -0.5923
15475SOL     OW53664   3.515   1.732   5.351  0.1319  0.3336 -0.0882
15475SOL    HW153665   3.502   1.638   5.335 -0.7281  0.2977  0.6878
15475SOL    HW253666   3.591   1.755   5.298 -1.2053 -0.2203 -2.4217
15476SOL     OW53667  11.513   8.221   0.618 -0.1378  0.3798 -0.1787
15476SOL    HW153668  11.576   8.175   0.561  0.3810  0.9104 -0.0486
15476SOL    HW253669  11.461   8.151   0.658 -2.9998  0.0060 -3.9933
15477SOL     OW53670   4.845  12.324  11.713 -0.1647 -0.1893  0.2269
15477SOL    HW153671   4.927  12.295  11.673 -1.1163 -1.4249 -0.9503
15477SOL    HW253672   4.777  12.273  11.668 -1.5086  0.0618  1.8410
15478SOL     OW53673   7.962   8.039  11.321  0.0729 -0.2084  0.0424
15478SOL    HW153674   8.027   7.996  11.376 -0.5765  0.0339  1.0225
15478SOL    HW253675   8.001   8.125  11.301  0.0514 -0.0593  0.6363
15479SOL     OW53676   7.398   8.457   1.791  0.6624 -0.4766  0.2342
15479SOL    HW153677   7.381   8.379   1.739  1.2209  0.0273 -0.7316
15479SOL    HW253678   7.312   8.488   1.817  0.4561 -1.8523  1.3223
15480SOL     OW53679   6.429   7.047   0.549 -0.3742  0.4063 -0.0939
15480SOL    HW153680   6.432   7.068   0.642  1.0482 -1.8252  0.4314
15480SOL    HW253681   6.518   7.062   0.518  0.2105 -2.5053 -0.1309
15481SOL     OW53682   0.752  12.451   4.814  0.0441  0.2994 -0.4846
15481SOL    HW153683   0.837  12.408   4.824 -0.0506  0.2972  0.4680
15481SOL    HW253684   0.693  12.402   4.872 -0.2944  1.0805 -0.1422
15482SOL     OW53685   3.648   4.371   4.104 -0.5486  0.3886  0.8249
15482SOL    HW153686   3.624   4.287   4.065 -0.6886  0.5113  0.6465
15482SOL    HW253687   3.610   4.368   4.192 -0.8564  0.4078  0.6933
15483SOL     OW53688   7.573   4.354   0.291  0.1846 -0.4407 -0.2527
15483SOL    HW153689   7.578   4.322   0.381  0.7393 -0.7434 -0.3874
15483SOL    HW253690   7.505   4.422   0.293 -0.5168 -1.1410  0.1825
15484SOL     OW53691   8.892   2.227   5.962 -0.0870  0.4394  0.4857
15484SOL    HW153692   8.821   2.232   5.899  1.3560 -1.0817 -1.3691
15484SOL    HW253693   8.970   2.206   5.910  1.2103 -0.8237  2.7478
15485SOL     OW53694   0.126   8.645   1.629  0.1511  0.6318 -0.2158
15485SOL    HW153695   0.130   8.596   1.546 -0.8929 -0.7444  0.5008
15485SOL    HW253696   0.069   8.592   1.685 -0.4674  2.3430  0.8548
15486SOL     OW53697   1.168   6.569   2.437  0.0679  0.1411 -0.4578
15486SOL    HW153698   1.104   6.498   2.435  1.0728 -0.7788 -1.5128
15486SOL    HW253699   1.145   6.624   2.363  2.2990 -1.9356 -2.9052
15487SOL     OW53700   6.997  10.298   9.489  0.3863  0.6515  0.1087
15487SOL    HW153701   6.918  10.288   9.542  0.3238  1.1922  0.1204
15487SOL    HW253702   7.009  10.393   9.481 -0.5441  0.6499 -2.2327
15488SOL     OW53703  10.907  12.608  11.963  0.5298  0.0131  0.2720
15488SOL    HW153704  10.991  12.655  11.965  0.6700 -0.2488  1.2004
15488SOL    HW253705  10.903  12.565  12.048  0.1577 -1.2248 -0.3600
15489SOL     OW53706   5.291  12.175   8.380 -0.3037  0.3180  0.4868
15489SOL    HW153707   5.254  12.088   8.397 -0.5434  0.2487 -0.3213
15489SOL    HW253708   5.218  12.226   8.345 -0.7965  1.6081  3.1356
15490SOL     OW53709   4.762  10.093   2.413 -0.3398  0.2664  0.2866
15490SOL    HW153710   4.820  10.102   2.337 -0.4839  1.1062  0.2660
15490SOL    HW253711   4.691  10.036   2.383 -0.0669  0.0812 -0.0099
15491SOL     OW53712   8.085   7.617   5.843  0.2045 -0.2535 -0.1940
15491SOL    HW153713   8.036   7.680   5.790  0.8440 -0.6213 -1.2624
15491SOL    HW253714   8.023   7.589   5.911 -0.9638 -0.4456 -1.2844
15492SOL     OW53715   4.395   8.063   8.312  0.3747 -0.1048 -0.2962
15492SOL    HW153716   4.315   8.049   8.364  1.0185  0.8948  1.0173
15492SOL    HW253717   4.446   7.983   8.325 -1.0199 -1.4271 -2.3885
15493SOL     OW53718   5.404   1.925   7.987  0.3977 -0.0209  0.2214
15493SOL    HW153719   5.342   1.903   7.918  1.1266 -0.5892 -0.2733
15493SOL    HW253720   5.371   1.880   8.065 -0.2907  0.4201  0.1889
15494SOL     OW53721   5.051   5.393   8.494  0.0684  0.3852 -1.1937
15494SOL    HW153722   5.000   5.412   8.416 -2.2006  0.6570  0.2572
15494SOL    HW253723   5.120   5.334   8.465  0.0998  1.5081 -3.6058
15495SOL     OW53724   4.572   5.725   3.927  0.2881 -0.3673  0.0551
15495SOL    HW153725   4.628   5.729   4.004  1.1242 -0.2951 -0.5459
15495SOL    HW253726   4.633   5.718   3.853 -0.3882  2.0014 -0.8074
15496SOL     OW53727  10.081   5.899   0.061  0.3431  0.2127 -0.5749
15496SOL    HW153728  10.007   5.911   0.000 -1.3529 -2.3615  0.7747
15496SOL    HW253729  10.089   5.983   0.106 -2.7542  0.2320  0.1721
15497SOL     OW53730   7.096   3.599   7.205  0.2706  0.2554 -0.4055
15497SOL    HW153731   7.042   3.619   7.129  1.5898  0.6358 -1.2741
15497SOL    HW253732   7.155   3.530   7.175  1.0359  0.6420  0.1616
15498SOL     OW53733   0.299   5.703   7.533  0.1660  0.6192 -0.9780
15498SOL    HW153734   0.243   5.750   7.471 -0.4219  2.3069  0.7241
15498SOL    HW253735   0.238   5.658   7.591  0.4548  2.5678  0.9697
15499SOL     OW53736   2.183  12.284   6.274  0.3635  0.7788 -0.0938
15499SOL    HW153737   2.228  12.226   6.335 -1.1723 -0.6005 -0.2048
15499SOL    HW253738   2.248  12.302   6.205  0.8991 -0.7617 -0.0199
15500SOL     OW53739   8.843   5.770  12.407  0.2527  0.2510 -0.1155
15500SOL    HW153740   8.909   5.838  12.419 -0.2653  1.0122 -1.3380
15500SOL    HW253741   8.893   5.692  12.382  0.7879  0.4264  0.3983
15501SOL     OW53742   5.580  10.976  12.630 -0.1954 -0.4935  0.5046
15501SOL    HW153743   5.584  10.949  12.722 -1.3295  1.4900  1.1901
15501SOL    HW253744   5.488  10.995  12.614  0.1928  0.6276 -0.5860
15502SOL     OW53745   6.983   9.915  11.264  0.3374  0.3770 -0.3239
15502SOL    HW153746   6.961   9.864  11.186 -0.9399  1.3739 -0.6467
15502SOL    HW253747   6.900   9.926  11.310  0.7326  1.4349  0.1651
15503SOL     OW53748   5.474  10.702  11.161  0.2188  0.2354  0.4881
15503SOL    HW153749   5.455  10.648  11.238 -1.5812  0.9265  0.5681
15503SOL    HW253750   5.540  10.653  11.113  1.4585 -0.1684  2.5115
15504SOL     OW53751   1.748   3.430  11.102  0.1667  0.0579 -0.2591
15504SOL    HW153752   1.787   3.496  11.044  1.2987  0.5374  0.9920
15504SOL    HW253753   1.720   3.479  11.179  2.7082 -1.0604  1.5216
15505SOL     OW53754   4.173   5.565   1.836 -0.2956 -0.6515  0.5332
15505SOL    HW153755   4.197   5.478   1.870  0.9964  0.0989  1.6256
15505SOL    HW253756   4.248   5.621   1.858  1.1701 -0.2150 -4.3469
15506SOL     OW53757   8.807   9.065   4.606  0.4585 -0.1880  0.4078
15506SOL    HW153758   8.803   9.027   4.518  0.8019  0.5538  0.0559
15506SOL    HW253759   8.717   9.062   4.638  0.5253 -1.5375  0.5073
15507SOL     OW53760   7.197  12.627   6.140 -0.2241 -0.0824  0.6777
15507SOL    HW153761   7.186  12.591   6.228 -2.0643 -3.0376 -0.5838
15507SOL    HW253762   7.157  12.561   6.083 -1.5507  2.9330 -2.1705
15508SOL     OW53763   3.163   3.783   6.872  0.3388 -0.5384 -0.2625
15508SOL    HW153764   3.216   3.832   6.809 -0.4766 -0.3666 -0.8225
15508SOL    HW253765   3.208   3.796   6.956 -0.1903  1.6974 -0.2749
15509SOL     OW53766   0.526   2.527   9.092  0.6181  0.6275 -0.4928
15509SOL    HW153767   0.477   2.539   9.173  1.7800  0.9067  0.1837
15509SOL    HW253768   0.459   2.532   9.023 -0.9191 -2.7132  0.5454
15510SOL     OW53769   0.926  12.616  11.533  0.1433  0.2453  0.4188
15510SOL    HW153770   0.927  12.610  11.438  1.8830 -0.2884  0.4373
15510SOL    HW253771   0.909  12.708  11.551  0.3860  0.4658 -0.4221
15511SOL     OW53772   9.428  12.607   8.966  0.1677  0.7799  0.0073
15511SOL    HW153773   9.431  12.688   9.017  0.2419  1.4399 -1.0184
15511SOL    HW253774   9.368  12.626   8.894  0.2881 -0.0381 -0.3239
15512SOL     OW53775   6.753   6.415   6.283  0.6116  0.4154  0.2317
15512SOL    HW153776   6.848   6.422   6.297  0.7492  0.1242 -0.4971
15512SOL    HW253777   6.714   6.462   6.356  1.2861 -0.6436  1.2987
15513SOL     OW53778   8.622   3.184   7.197 -0.0453  0.6859 -0.5895
15513SOL    HW153779   8.532   3.155   7.208  0.2194  0.7074  2.3305
15513SOL    HW253780   8.615   3.278   7.181 -0.5501  1.1849  2.1121
15514SOL     OW53781  11.968   4.917   9.775  0.1642  0.0254 -0.2450
15514SOL    HW153782  11.960   4.981   9.705  0.5170 -0.4208 -0.7011
15514SOL    HW253783  12.046   4.945   9.824 -0.5738  0.8285  0.4940
15515SOL     OW53784   3.376   0.850   4.175  0.0465 -0.1350 -0.0877
15515SOL    HW153785   3.325   0.863   4.095 -0.2390 -0.1677  0.0881
15515SOL    HW253786   3.373   0.755   4.189 -0.9808 -0.0044  0.6628
15516SOL     OW53787   1.262   3.463   8.097  0.1387  0.0737 -0.6346
15516SOL    HW153788   1.260   3.472   8.192 -2.6471 -0.3683 -0.5907
15516SOL    HW253789   1.355   3.450   8.076  0.9025  0.9235  1.9177
15517SOL     OW53790   7.523   8.123   3.113  0.1159 -0.2090 -0.3621
15517SOL    HW153791   7.515   8.040   3.160  0.4842 -1.2348 -2.0136
15517SOL    HW253792   7.443   8.129   3.060  1.1919 -0.8240 -2.1604
15518SOL     OW53793  10.835   3.828   3.113  0.4820  0.0762 -0.2170
15518SOL    HW153794  10.872   3.833   3.201  1.9163  1.1395 -0.8280
15518SOL    HW253795  10.881   3.756   3.071  0.0274 -0.2245 -0.2095
15519SOL     OW53796   6.771  11.463   3.388 -0.2725  0.1532  0.9423
15519SOL    HW153797   6.836  11.525   3.355 -0.9231  1.1675  1.5174
15519SOL    HW253798   6.821  11.402   3.442  0.2750  0.5996  0.9464
15520SOL     OW53799   8.946   8.778  11.839  0.1308  0.5467  0.0705
15520SOL    HW153800   9.011   8.786  11.769  0.3778 -1.3611  0.0260
15520SOL    HW253801   8.991   8.728  11.907 -0.6572  0.9105  0.8725
15521SOL     OW53802   5.057   4.092   4.662 -0.1393  0.3875  0.1702
15521SOL    HW153803   5.038   4.158   4.595  1.3580  2.4777  1.6819
15521SOL    HW253804   4.995   4.022   4.644  0.0630  0.9026 -3.2785
15522SOL     OW53805  12.114  10.430   5.476 -0.0221 -0.0638 -0.0899
15522SOL    HW153806  12.144  10.339   5.474  0.0609 -0.0423  0.2560
15522SOL    HW253807  12.047  10.433   5.407 -0.7128 -0.6290  0.5440
15523SOL     OW53808  10.335   7.987   3.753 -0.2578  0.5945  0.1551
15523SOL    HW153809  10.240   7.986   3.757 -0.2278  0.5818  1.2814
15523SOL    HW253810  10.358   7.908   3.704 -0.8640  1.8074 -2.2526
15524SOL     OW53811   1.878   9.237   1.250 -0.2279 -0.0111 -0.0771
15524SOL    HW153812   1.855   9.213   1.160 -1.5953 -1.1118  0.5169
15524SOL    HW253813   1.821   9.311   1.271  0.1991  0.3436 -0.1666
15525SOL     OW53814   8.603   1.625   6.268 -0.4238 -0.5142 -0.9447
15525SOL    HW153815   8.550   1.652   6.343  1.6317 -0.1778  0.4750
15525SOL    HW253816   8.638   1.707   6.233 -0.2125 -0.7880 -1.3822
15526SOL     OW53817   0.809   2.106  11.134  0.0245 -0.2595 -0.1886
15526SOL    HW153818   0.752   2.063  11.071 -0.8580 -0.8154  0.9664
15526SOL    HW253819   0.889   2.053  11.133  0.1840 -0.0172 -1.1328
15527SOL     OW53820   4.360   2.591   2.395  0.0550 -0.0968 -0.9200
15527SOL    HW153821   4.311   2.510   2.404 -0.1983  0.2227  1.2308
15527SOL    HW253822   4.452   2.564   2.402 -0.0560 -0.1525  0.6420
15528SOL     OW53823   5.740   1.883  11.911  0.2251 -0.0181  0.0637
15528SOL    HW153824   5.744   1.842  11.825 -0.3209 -1.4702  0.7059
15528SOL    HW253825   5.721   1.811  11.971 -1.3959  1.2516  1.1634
15529SOL     OW53826   7.345   0.818   8.901 -0.3034 -0.0755  0.7038
15529SOL    HW153827   7.319   0.754   8.967 -0.0956 -0.1542  0.7095
15529SOL    HW253828   7.343   0.771   8.818 -1.6365  0.3070  0.5009
15530SOL     OW53829   1.483   2.871   7.955  0.0431 -0.2123  0.5498
15530SOL    HW153830   1.436   2.858   7.872  2.9074 -0.3283 -1.1863
15530SOL    HW253831   1.558   2.812   7.950 -0.4120 -1.2889  3.9410
15531SOL     OW53832   2.331   0.927   4.032  0.7058  0.1498 -0.1560
15531SOL    HW153833   2.256   0.905   3.976 -0.4577  0.4167  1.2542
15531SOL    HW253834   2.329   1.023   4.038  0.1477  0.0694  1.2121
15532SOL     OW53835   7.549  11.798   0.642 -0.1674 -0.1611 -0.0237
15532SOL    HW153836   7.618  11.733   0.629 -0.6914 -0.6461 -0.4898
15532SOL    HW253837   7.505  11.803   0.557 -0.3841  0.5123  0.1278
15533SOL     OW53838   5.021   9.426   6.924  0.4747  0.0527 -0.0502
15533SOL    HW153839   5.068   9.494   6.875 -2.7810  0.4210 -3.0471
15533SOL    HW253840   4.936   9.465   6.944 -1.8575 -3.1467 -2.5961
15534SOL     OW53841  10.312   2.510   1.229 -0.1914  0.3210 -0.2231
15534SOL    HW153842  10.333   2.538   1.318  0.2284 -1.5642  0.3370
15534SOL    HW253843  10.219   2.487   1.233 -0.3915  1.0598 -0.5214
15535SOL     OW53844  11.414   1.151   2.391 -0.6622  0.5597 -0.2389
15535SOL    HW153845  11.439   1.239   2.419  0.7144  0.0581  0.1665
15535SOL    HW253846  11.365   1.115   2.464  1.2828 -0.0455  0.8438
15536SOL     OW53847   7.000   6.418   6.649  0.3872  1.2898  0.2105
15536SOL    HW153848   6.932   6.352   6.636  0.7296  0.9651  0.0388
15536SOL    HW253849   6.982   6.454   6.736  0.4880  0.6172  0.5220
15537SOL     OW53850   3.544   2.109  12.492 -0.1496 -0.0739 -0.4633
15537SOL    HW153851   3.604   2.078  12.560 -0.6541  1.1263  0.5831
15537SOL    HW253852   3.569   2.061  12.414  3.0786  1.3010 -0.4469
15538SOL     OW53853   1.623   1.400  11.972  0.1207  0.0714 -0.5265
15538SOL    HW153854   1.717   1.417  11.976 -0.0382  0.8526  0.7159
15538SOL    HW253855   1.615   1.311  11.938  1.4062 -0.7513  1.1782
15539SOL     OW53856  11.199  12.634   1.793 -0.5003 -0.6183  0.1731
15539SOL    HW153857  11.164  12.692   1.725  0.4059 -0.7539 -0.4396
15539SOL    HW253858  11.192  12.685   1.873  0.3453  0.3980 -0.3664
15540SOL     OW53859   9.127   9.740   0.894 -0.2269  0.4961 -0.7538
15540SOL    HW153860   9.072   9.724   0.971 -0.7672 -0.1613 -1.2653
15540SOL    HW253861   9.103   9.827   0.864  0.2251  0.8970  0.0114
15541SOL     OW53862   3.820   7.351   3.773  0.0259  0.1767 -0.0352
15541SOL    HW153863   3.791   7.340   3.864  3.0971  0.4670  1.0945
15541SOL    HW253864   3.847   7.264   3.745  3.1075  0.6819  0.9619
15542SOL     OW53865   2.693   7.919   7.440  0.2425 -0.2627  0.2635
15542SOL    HW153866   2.599   7.928   7.455  0.0650 -0.8845 -0.4264
15542SOL    HW253867   2.701   7.843   7.382  1.1481 -0.0237  0.0616
15543SOL     OW53868  11.395   1.173   3.634 -0.3024 -0.4768 -0.1283
15543SOL    HW153869  11.336   1.239   3.598  0.5566  0.3864  0.0004
15543SOL    HW253870  11.441   1.218   3.705  0.4320 -1.1592 -0.1538
15544SOL     OW53871   5.489  10.978   4.930  0.4737  0.2612 -0.0262
15544SOL    HW153872   5.418  10.979   4.867  0.3550  0.7575  0.1129
15544SOL    HW253873   5.567  10.999   4.878  0.2945  1.2190  0.0894
15545SOL     OW53874   0.866   4.816   4.919  0.3997 -0.0446  0.3814
15545SOL    HW153875   0.826   4.766   4.848  0.5782 -0.4809  0.5836
15545SOL    HW253876   0.960   4.801   4.909  0.5080  0.8471  0.0055
15546SOL     OW53877   1.577  10.530   8.175  0.1474 -0.2637  0.1075
15546SOL    HW153878   1.537  10.545   8.090  2.3712  1.3376 -0.7645
15546SOL    HW253879   1.589  10.617   8.212  0.7801 -0.8256  1.2817
15547SOL     OW53880   8.030   7.585   1.664  0.4713  0.7853 -0.2441
15547SOL    HW153881   8.098   7.633   1.617  1.3831  0.4408  0.6692
15547SOL    HW253882   8.008   7.642   1.739  0.7913  0.2713  0.2501
15548SOL     OW53883   9.928   4.827   3.033 -0.1551 -0.3355 -0.0767
15548SOL    HW153884   9.972   4.909   3.052  0.5012 -0.6717 -0.1233
15548SOL    HW253885   9.854   4.851   2.976  0.4488  0.1289 -0.6748
15549SOL     OW53886   7.600   0.832   2.988 -0.0802 -0.2780 -0.9903
15549SOL    HW153887   7.687   0.820   3.025 -0.1690  0.0959 -0.6448
15549SOL    HW253888   7.579   0.748   2.946 -0.1524 -0.8718  0.1848
15550SOL     OW53889   7.719  12.094   3.219 -0.5254  0.3038 -0.3364
15550SOL    HW153890   7.742  12.038   3.145 -0.6690 -1.3113  0.7952
15550SOL    HW253891   7.648  12.047   3.264  0.3885  0.5995  1.5237
15551SOL     OW53892   9.080   1.029  10.193 -0.0750  0.0350 -0.0606
15551SOL    HW153893   9.020   0.976  10.245  0.0795 -0.0821 -0.0010
15551SOL    HW253894   9.164   0.983  10.199  0.6583  1.4914  1.9115
15552SOL     OW53895  11.779   6.962   9.645 -0.0318 -1.0336 -0.1382
15552SOL    HW153896  11.807   7.014   9.720 -0.6256  1.0576 -1.2869
15552SOL    HW253897  11.753   6.878   9.682  0.2925 -0.2805  1.8982
15553SOL     OW53898   5.168   0.828  11.415  1.0144 -0.3392  1.0381
15553SOL    HW153899   5.169   0.858  11.324 -0.7590 -0.3105  1.0023
15553SOL    HW253900   5.256   0.847  11.447  1.2858  0.8086 -0.2978
15554SOL     OW53901   4.146   2.238  12.447 -0.5316  0.0533  0.3036
15554SOL    HW153902   4.185   2.326  12.441 -0.1548  0.0580  2.1650
15554SOL    HW253903   4.220   2.179  12.436 -0.1193  0.0540  2.4708
15555SOL     OW53904   0.404   4.823   7.482 -0.1570 -0.1206  0.1602
15555SOL    HW153905   0.488   4.868   7.496  0.2254 -0.1274 -1.8087
15555SOL    HW253906   0.392   4.769   7.561  2.0723 -0.7238  0.1511
15556SOL     OW53907  10.931  11.905   7.271 -0.3161 -0.1294  0.1418
15556SOL    HW153908  10.943  11.892   7.365  0.2262 -1.0305 -0.0446
15556SOL    HW253909  10.998  11.850   7.230  1.0160  2.0097 -0.7240
15557SOL     OW53910   7.754  11.018  10.869 -0.3852 -0.3040 -0.2245
15557SOL    HW153911   7.822  11.036  10.934 -0.3883 -1.4125  0.1208
15557SOL    HW253912   7.711  11.102  10.855  1.4307  0.5744 -0.9173
15558SOL     OW53913  10.358   8.006   0.923 -0.6065  0.3735 -0.2722
15558SOL    HW153914  10.402   7.993   1.007  1.8741  0.6168 -1.4297
15558SOL    HW253915  10.312   7.924   0.906 -0.0571 -0.1455  0.7304
15559SOL     OW53916   5.722  12.270   5.000  0.5455  1.2075  0.1650
15559SOL    HW153917   5.642  12.222   4.982  2.2863 -0.9636 -2.6120
15559SOL    HW253918   5.737  12.258   5.094 -2.2473  1.6416  0.7469
15560SOL     OW53919   2.651  10.260  11.894 -0.3536 -0.4803  0.7497
15560SOL    HW153920   2.674  10.206  11.969  1.7273 -0.6094  0.0759
15560SOL    HW253921   2.644  10.349  11.929 -0.1553 -0.6488  1.2189
15561SOL     OW53922   8.573   3.430   6.325 -0.9502  0.3163 -0.6386
15561SOL    HW153923   8.668   3.425   6.312 -1.0099 -0.3001 -0.8587
15561SOL    HW253924   8.549   3.515   6.289 -0.4246  0.6485 -0.2228
15562SOL     OW53925   9.795   5.065  12.373  0.2049  0.0737  0.7143
15562SOL    HW153926   9.831   5.070  12.462  0.7455 -0.5920  0.5475
15562SOL    HW253927   9.706   5.032  12.385  1.0234 -2.3142  0.9079
15563SOL     OW53928  12.386   8.047   8.900 -0.5195  0.4998  0.6339
15563SOL    HW153929  12.392   8.042   8.805  2.2874  1.6752  0.6239
15563SOL    HW253930  12.418   7.962   8.931  0.5876  0.8384  0.4780
15564SOL     OW53931   1.418   9.461   9.564  0.5187 -0.5723  0.1595
15564SOL    HW153932   1.443   9.551   9.545  1.9284 -0.6785  1.3630
15564SOL    HW253933   1.324   9.464   9.576  0.4723  0.6248 -0.3692
15565SOL     OW53934   7.207   7.544   1.345  0.4302  0.2020  0.0691
15565SOL    HW153935   7.251   7.613   1.396  2.0556 -1.5542  1.1482
15565SOL    HW253936   7.219   7.571   1.254  0.6525  1.5509  0.4683
15566SOL     OW53937   6.347   8.259  11.709  0.1084  0.0656  0.2029
15566SOL    HW153938   6.257   8.229  11.718 -0.1639 -0.2245 -2.5805
15566SOL    HW253939   6.345   8.320  11.634  2.4176 -1.0575 -0.8960
15567SOL     OW53940   8.433   9.754   4.565 -0.1134 -0.0995  0.1745
15567SOL    HW153941   8.527   9.745   4.546  0.7048  2.5164  2.3625
15567SOL    HW253942   8.407   9.669   4.600  1.3953 -0.8787 -0.4849
15568SOL     OW53943  10.459   4.261   4.698 -0.1224 -0.3398  0.4431
15568SOL    HW153944  10.376   4.220   4.725 -0.1632  0.8505  2.3094
15568SOL    HW253945  10.504   4.193   4.647 -0.8441 -2.1644  2.1158
15569SOL     OW53946   1.672   0.830   4.123 -0.0436 -0.1566  0.4057
15569SOL    HW153947   1.729   0.901   4.155  0.2555 -0.0307 -0.3844
15569SOL    HW253948   1.730   0.754   4.119 -0.4572 -0.5660  1.6283
15570SOL     OW53949   7.288  10.358   4.834  0.1105 -0.3752  0.1416
15570SOL    HW153950   7.277  10.343   4.928  0.5899  1.1425  0.4794
15570SOL    HW253951   7.226  10.428   4.814 -0.1861 -0.8803 -0.7478
15571SOL     OW53952   3.198   8.914   0.922 -0.1667  0.1627  0.3290
15571SOL    HW153953   3.248   8.958   0.854 -1.3221  0.2602 -0.4928
15571SOL    HW253954   3.124   8.875   0.875 -1.6661  1.2844  1.6874
15572SOL     OW53955   7.421   5.424   2.909 -0.3047  0.6260  0.0405
15572SOL    HW153956   7.505   5.401   2.868 -1.1674 -1.3926 -0.7035
15572SOL    HW253957   7.361   5.435   2.836 -1.1976 -0.1595  0.6378
15573SOL     OW53958  11.386   1.029   7.593 -0.2586  0.5760 -0.1483
15573SOL    HW153959  11.324   1.099   7.614  0.5031  1.1997  0.0742
15573SOL    HW253960  11.362   1.001   7.505  0.5721  2.4011 -1.0104
15574SOL     OW53961  10.516   3.857   8.022  1.0192 -0.0017  0.2906
15574SOL    HW153962  10.566   3.844   7.942  0.9958  3.2648 -0.4035
15574SOL    HW253963  10.564   3.925   8.070 -0.5287  0.2327  1.6094
15575SOL     OW53964  11.214   3.400  11.374  0.2217  0.0541  0.3804
15575SOL    HW153965  11.129   3.440  11.390 -0.3815 -1.5061  1.2344
15575SOL    HW253966  11.203   3.356  11.289 -0.1372 -0.9017  0.9082
15576SOL     OW53967  10.878  11.037  11.118 -0.8396 -0.2914  0.5131
15576SOL    HW153968  10.851  10.945  11.110 -2.0424  0.1118 -0.2125
15576SOL    HW253969  10.895  11.064  11.028 -1.2144  0.4053  0.6488
15577SOL     OW53970   4.063   7.855   5.298  0.0788  0.2233  0.0717
15577SOL    HW153971   4.046   7.821   5.210  1.2653  0.8377 -0.4181
15577SOL    HW253972   4.123   7.928   5.284  0.9539 -0.2021  1.4620
15578SOL     OW53973  12.003   2.893   8.550  0.0146 -0.3877  0.6582
15578SOL    HW153974  11.930   2.937   8.594 -0.1767 -0.1783  0.1343
15578SOL    HW253975  11.967   2.867   8.466  0.8892  0.7930 -0.1073
15579SOL     OW53976  11.411  10.391   2.000  0.1595 -0.0764 -0.3390
15579SOL    HW153977  11.335  10.376   2.056  0.9065 -0.2695  0.6545
15579SOL    HW253978  11.406  10.322   1.934 -0.1294 -0.5360  0.1543
15580SOL     OW53979  10.096  10.651  11.633  0.3657 -0.0703  0.0116
15580SOL    HW153980  10.111  10.614  11.546  0.5788 -0.3679  0.1757
15580SOL    HW253981  10.106  10.746  11.620 -1.7550  0.1033 -0.7467
15581SOL     OW53982   9.399   8.920   2.309  0.6605  0.2305 -0.4049
15581SOL    HW153983   9.309   8.918   2.278  1.0083 -0.6225 -1.4392
15581SOL    HW253984   9.395   8.965   2.394 -0.6494  0.6394 -0.6649
15582SOL     OW53985   6.409   1.169   0.656  0.3065  0.1183 -0.6101
15582SOL    HW153986   6.428   1.157   0.563  0.9772 -2.3350 -0.2171
15582SOL    HW253987   6.492   1.199   0.694  1.0236 -2.0444 -0.3334
15583SOL     OW53988  12.671   2.901   6.338 -0.0522 -0.2526 -0.0018
15583SOL    HW153989  12.584   2.910   6.378  0.4701 -0.6578  1.2869
15583SOL    HW253990  12.704   2.991   6.331  0.4527 -0.2429  1.9440
15584SOL     OW53991   7.526   8.312   4.572  0.2766  0.4649  0.1286
15584SOL    HW153992   7.450   8.304   4.629  1.6086  0.0125  1.9236
15584SOL    HW253993   7.601   8.311   4.631  1.6526  2.4759 -1.4463
15585SOL     OW53994   7.304   2.097   0.589 -0.3757 -0.1687  0.2688
15585SOL    HW153995   7.317   2.090   0.495  2.0449  0.9066  0.4570
15585SOL    HW253996   7.256   2.178   0.601  0.2742  0.2610  0.0099
15586SOL     OW53997   0.645   7.917   8.610 -0.2315 -0.0830  0.6499
15586SOL    HW153998   0.563   7.944   8.568  0.8754  1.6780 -0.4754
15586SOL    HW253999   0.651   7.972   8.688  1.0485  1.6344 -0.5906
15587SOL     OW54000   8.195   3.280   7.533 -0.1261  0.3262 -0.2285
15587SOL    HW154001   8.207   3.228   7.612  2.5510  0.5037 -0.4177
15587SOL    HW254002   8.216   3.220   7.461 -0.6831  0.6910 -0.7109
15588SOL     OW54003   5.657   2.349   8.758  0.1181 -0.0373 -0.2611
15588SOL    HW154004   5.600   2.423   8.779  1.1853  0.6677  0.2345
15588SOL    HW254005   5.709   2.335   8.837 -0.3863 -1.6355 -0.1907
15589SOL     OW54006   1.134   2.908   8.951  0.1472 -0.1502 -0.0732
15589SOL    HW154007   1.077   2.837   8.979  1.4256 -1.2618 -0.1946
15589SOL    HW254008   1.124   2.911   8.856  3.1343 -2.9996 -0.6250
15590SOL     OW54009   2.555  11.469   6.194  0.0460 -0.4904 -0.4964
15590SOL    HW154010   2.615  11.477   6.268  1.2493  0.5826 -1.5401
15590SOL    HW254011   2.478  11.427   6.230  0.1011  1.1015  1.6800
15591SOL     OW54012   9.279   8.140   2.133  0.1416  0.4186 -0.1975
15591SOL    HW154013   9.343   8.104   2.194  0.2489  0.6225 -0.1894
15591SOL    HW254014   9.283   8.235   2.147 -1.3418  0.3465  0.9917
15592SOL     OW54015   7.133   8.725   1.526  0.0110 -0.4392  0.3553
15592SOL    HW154016   7.141   8.632   1.509 -0.0996 -0.4464  0.3392
15592SOL    HW254017   7.062   8.732   1.590 -0.3560 -0.3233 -0.0609
15593SOL     OW54018   9.946   1.094   5.060 -0.3227 -0.4608  0.4420
15593SOL    HW154019   9.883   1.146   5.009 -0.5597  0.6411  1.8009
15593SOL    HW254020  10.019   1.154   5.076  0.4961 -1.3183  0.0174
15594SOL     OW54021  10.105   2.378   2.109 -0.7081  0.1113 -0.5787
15594SOL    HW154022  10.197   2.382   2.135 -0.3698  2.8610 -1.8456
15594SOL    HW254023  10.106   2.396   2.015 -2.5255 -0.1193 -0.6778
15595SOL     OW54024   4.520   9.556   6.872 -0.2497 -0.0917 -0.3111
15595SOL    HW154025   4.514   9.462   6.857  2.4648 -0.5386  0.7860
15595SOL    HW254026   4.549   9.563   6.963  1.0383  1.7346 -0.8170
15596SOL     OW54027   5.885   4.474   0.973 -0.3450  0.2151  0.3667
15596SOL    HW154028   5.799   4.463   1.013  0.2638 -0.0046  1.6672
15596SOL    HW254029   5.887   4.410   0.902 -0.9745 -0.3149  0.8129
15597SOL     OW54030   2.216   7.835   3.340  0.0255 -0.2797  0.4294
15597SOL    HW154031   2.266   7.756   3.362 -2.3568 -2.3801 -1.1126
15597SOL    HW254032   2.256   7.868   3.260  0.0522 -0.9087  0.1775
15598SOL     OW54033   0.751   1.716   0.127 -0.3697  0.2507  0.1256
15598SOL    HW154034   0.829   1.692   0.076  0.3423  0.3920  1.1098
15598SOL    HW254035   0.678   1.702   0.067  0.4825  1.1662 -1.2064
15599SOL     OW54036   4.836  11.707   5.691  0.3429  0.2558 -0.0064
15599SOL    HW154037   4.827  11.771   5.620 -0.6364  0.9080  0.6914
15599SOL    HW254038   4.829  11.758   5.771  1.0749 -0.5266  0.5797
15600SOL     OW54039   8.610  10.409   9.165  0.6561  0.3568  0.2456
15600SOL    HW154040   8.633  10.317   9.171 -0.4172 -0.0433 -1.2778
15600SOL    HW254041   8.542  10.420   9.231 -0.8602 -0.5368 -1.0965
15601SOL     OW54042   0.673  11.316   1.939  0.5695  0.0692  0.4164
15601SOL    HW154043   0.647  11.255   1.870 -4.0402  0.9444  1.0294
15601SOL    HW254044   0.690  11.398   1.892 -0.1654  0.0383  0.0661
15602SOL     OW54045  10.829  10.014   4.381 -0.1596 -0.3596  0.4239
15602SOL    HW154046  10.895   9.961   4.337  0.0357 -0.1533  0.4717
15602SOL    HW254047  10.747   9.964   4.370 -0.1791 -0.1371 -0.4600
15603SOL     OW54048   8.253   0.556   5.717  0.2763  0.2235 -0.1942
15603SOL    HW154049   8.248   0.565   5.622  1.4555 -1.2852 -0.4487
15603SOL    HW254050   8.237   0.644   5.751 -0.5891  0.7077 -1.7510
15604SOL     OW54051   5.577  11.379   6.692  0.2035 -0.1948  0.4330
15604SOL    HW154052   5.521  11.432   6.749 -3.0653  0.0021 -2.6098
15604SOL    HW254053   5.610  11.440   6.627  1.7025 -0.8731  0.5029
15605SOL     OW54054   1.202   5.501   2.427 -0.3883 -0.6299  0.4694
15605SOL    HW154055   1.250   5.435   2.377 -1.2299 -1.3144  0.5440
15605SOL    HW254056   1.157   5.554   2.361 -0.4886 -0.7363  0.4537
15606SOL     OW54057  10.687  10.249   0.992  0.1553 -0.0505  0.4449
15606SOL    HW154058  10.717  10.181   0.931 -1.8678 -1.6771  1.1352
15606SOL    HW254059  10.707  10.214   1.078 -1.6872 -0.2531  0.8427
15607SOL     OW54060  10.321   1.547   9.133 -0.1612  0.8273 -0.0501
15607SOL    HW154061  10.251   1.484   9.122  0.8130 -0.1857 -0.7100
15607SOL    HW254062  10.385   1.503   9.189  0.4971  1.2469 -0.4497
15608SOL     OW54063   0.333   5.392   1.988 -0.0005  0.1341 -0.0157
15608SOL    HW154064   0.333   5.463   2.051 -0.9783  0.2465 -0.1160
15608SOL    HW254065   0.425   5.375   1.969  0.2747  2.7881 -1.5723
15609SOL     OW54066   0.018   0.245  10.649  0.1034  0.0273  0.2309
15609SOL    HW154067   0.064   0.208  10.575  0.9840  0.1337  0.7094
15609SOL    HW254068   0.034   0.339  10.643 -0.6163  0.1417  0.0272
15610SOL     OW54069   0.294   9.834   5.315  0.1298 -0.0260  0.4496
15610SOL    HW154070   0.216   9.844   5.369 -1.7745 -0.7617 -1.9656
15610SOL    HW254071   0.315   9.741   5.320 -0.1914 -0.1429 -0.1611
15611SOL     OW54072  11.975   9.168   7.025 -0.6781 -0.2045  0.5560
15611SOL    HW154073  12.016   9.098   7.075 -0.2944  0.9713  1.9812
15611SOL    HW254074  12.018   9.165   6.939 -1.2819 -2.2103  0.2703
15612SOL     OW54075   7.316   9.680   6.603 -0.0482 -0.3191 -0.3085
15612SOL    HW154076   7.339   9.773   6.603  1.1398 -0.5921 -0.7370
15612SOL    HW254077   7.287   9.662   6.514  0.3790 -0.4944 -0.4180
15613SOL     OW54078   3.813   1.432  10.151 -0.0579  0.0715 -0.1308
15613SOL    HW154079   3.853   1.468  10.230  2.1384 -0.1192 -1.0800
15613SOL    HW254080   3.743   1.375  10.184  0.7420  0.0435  1.6842
15614SOL     OW54081   3.045   0.953   6.222 -0.0439 -0.1572  0.1804
15614SOL    HW154082   3.015   1.032   6.268 -1.0934  0.1002 -0.8998
15614SOL    HW254083   2.981   0.940   6.152  1.1636 -0.8860 -0.8288
15615SOL     OW54084   3.288   2.873  10.883  1.2971  0.0196 -0.1866
15615SOL    HW154085   3.282   2.827  10.966 -1.5067 -1.5831 -1.1206
15615SOL    HW254086   3.340   2.817  10.826  0.4292 -0.5605 -0.4324
15616SOL     OW54087  11.836   9.832   7.670  0.1229 -0.9503  0.1507
15616SOL    HW154088  11.919   9.869   7.639  0.7995 -1.2699  1.4905
15616SOL    HW254089  11.791   9.805   7.591  1.8993 -2.0190 -0.5585
15617SOL     OW54090   1.957  11.052  10.006 -0.0077 -0.5691  0.6855
15617SOL    HW154091   2.016  10.982  10.032  2.4129  1.3946  0.8610
15617SOL    HW254092   1.945  11.040   9.912  1.5452 -0.4512  0.4442
15618SOL     OW54093   4.752   4.706   2.081 -0.1657 -0.3197  0.3495
15618SOL    HW154094   4.776   4.730   2.170  0.9302 -1.3532  0.3481
15618SOL    HW254095   4.656   4.700   2.083 -0.0649 -3.0619  2.2099
15619SOL     OW54096   5.956   1.829   9.436  0.1709 -0.0343  0.0713
15619SOL    HW154097   5.978   1.893   9.504  1.6090 -0.9098  0.4797
15619SOL    HW254098   6.041   1.794   9.408 -0.5788 -2.3628  0.4685
15620SOL     OW54099   2.320   9.933   9.645  0.6426 -0.1103 -0.2520
15620SOL    HW154100   2.327   9.840   9.621 -0.1483 -0.5346  1.0655
15620SOL    HW254101   2.226   9.950   9.645  0.7676  0.6031 -0.1071
15621SOL     OW54102   1.068   4.494   8.320  0.0138 -0.3523  0.6479
15621SOL    HW154103   1.134   4.559   8.297  0.4233 -1.9574 -3.6531
15621SOL    HW254104   1.117   4.421   8.358  0.3686 -0.4212  0.0666
15622SOL     OW54105  10.189   2.174  10.091 -0.2685 -0.0927 -0.0885
15622SOL    HW154106  10.167   2.263  10.066 -1.1947  0.4721  2.4339
15622SOL    HW254107  10.237   2.183  10.174 -1.1172 -1.9557  0.6712
15623SOL     OW54108   7.857   1.810   6.303 -0.2815  0.1389 -0.2548
15623SOL    HW154109   7.936   1.768   6.270 -0.9567 -1.1192 -0.3494
15623SOL    HW254110   7.888   1.875   6.365  0.8121 -0.9395  0.3823
15624SOL     OW54111   6.088   1.614  12.470 -0.4480  0.2183  0.1878
15624SOL    HW154112   6.157   1.628  12.405  0.2990 -2.2146  0.3570
15624SOL    HW254113   6.115   1.535  12.517 -2.6400  0.0154  1.2343
15625SOL     OW54114  11.374   5.355   2.791  0.5265 -0.1719 -0.2393
15625SOL    HW154115  11.327   5.405   2.857  1.2864 -0.0387  0.2074
15625SOL    HW254116  11.424   5.290   2.841  0.9483 -0.2021 -0.6941
15626SOL     OW54117   8.025   1.815   2.418 -0.6042 -0.4620 -0.0963
15626SOL    HW154118   8.012   1.749   2.350  1.2816 -1.2300  0.2196
15626SOL    HW254119   8.000   1.771   2.499 -0.4569 -0.4105 -0.0219
15627SOL     OW54120   8.864   8.916   7.590  0.0080 -0.2187 -0.2253
15627SOL    HW154121   8.868   8.959   7.675  0.6387  0.5999 -0.6569
15627SOL    HW254122   8.820   8.979   7.533  1.6185  0.2196 -1.0522
15628SOL     OW54123   3.212  12.019   4.051 -0.3987  0.2498  0.1171
15628SOL    HW154124   3.119  12.007   4.034 -0.8867 -1.6143  3.2747
15628SOL    HW254125   3.216  12.088   4.117  0.4200 -0.0333  0.3781
15629SOL     OW54126  10.206   3.393   8.170  0.4835 -0.2913  0.0681
15629SOL    HW154127  10.282   3.435   8.129 -0.4610  2.0209  0.5082
15629SOL    HW254128  10.240   3.354   8.251  1.2683  0.4843  0.1213
15630SOL     OW54129   9.247   9.122   1.304 -0.2186  0.3202  0.4719
15630SOL    HW154130   9.167   9.171   1.284 -0.6377 -0.6020 -0.1165
15630SOL    HW254131   9.295   9.180   1.363 -1.5623  0.6727  1.2689
15631SOL     OW54132   4.415  11.267  10.974 -0.0091 -0.3134  0.1577
15631SOL    HW154133   4.400  11.354  11.010  2.8943  0.5342 -0.4475
15631SOL    HW254134   4.328  11.233  10.956 -1.2491  3.3608 -1.7076
15632SOL     OW54135  12.363   7.239  12.131 -0.3038 -0.1880 -0.0321
15632SOL    HW154136  12.444   7.248  12.081 -0.0416  0.9929  0.5851
15632SOL    HW254137  12.375   7.295  12.207 -1.4819 -0.4433  0.3623
15633SOL     OW54138   3.947  11.494   2.761  0.4658  0.2174  0.1566
15633SOL    HW154139   3.854  11.473   2.774 -0.0261  0.5663 -2.2694
15633SOL    HW254140   3.994  11.421   2.801 -0.7841  0.5387  2.3469
15634SOL     OW54141   8.429   3.425   3.048 -0.3041 -0.2054 -0.4365
15634SOL    HW154142   8.372   3.497   3.020 -1.7435 -0.9919  0.3530
15634SOL    HW254143   8.451   3.379   2.967 -0.5711  0.2682 -0.7868
15635SOL     OW54144   0.525  10.932   9.259 -0.2094  0.4199 -0.4967
15635SOL    HW154145   0.549  10.974   9.176 -0.4163  2.1417  0.2810
15635SOL    HW254146   0.608  10.920   9.305 -0.2964  1.6252  0.0107
15636SOL     OW54147   5.067  10.172   4.067  0.1705 -0.1493 -0.1178
15636SOL    HW154148   5.019  10.089   4.062 -0.0347 -0.0763  0.5209
15636SOL    HW254149   5.130  10.168   3.995  1.7168 -1.8445  1.2201
15637SOL     OW54150   8.215   3.170   9.703 -0.6429  0.2360  0.1233
15637SOL    HW154151   8.127   3.205   9.689 -0.8466 -0.8881 -1.6814
15637SOL    HW254152   8.270   3.248   9.713 -1.6816  0.9713  0.3530
15638SOL     OW54153   6.902   3.451   0.089  0.0292 -0.3811  0.2286
15638SOL    HW154154   6.926   3.403   0.010  0.5090  0.8204 -0.3824
15638SOL    HW254155   6.981   3.447   0.143  1.1381  2.1098 -1.0537
15639SOL     OW54156  10.562   7.780   8.017  0.3812  0.1254 -0.0519
15639SOL    HW154157  10.503   7.822   7.954  0.6861  0.0455 -0.3939
15639SOL    HW254158  10.510   7.772   8.097  0.4068  1.4336  0.1140
15640SOL     OW54159  10.978  10.450   2.649  0.1434 -0.0622  0.2393
15640SOL    HW154160  10.923  10.480   2.721 -1.1712 -0.3815 -0.6071
15640SOL    HW254161  10.957  10.357   2.639 -0.6219  0.2525 -1.3507
15641SOL     OW54162   0.059   2.645   4.980  0.5701 -0.1595  0.3846
15641SOL    HW154163   0.014   2.561   4.988 -2.1699  1.2069  0.3716
15641SOL    HW254164   0.104   2.655   5.063  0.7354 -1.5111  0.4887
15642SOL     OW54165  10.963   2.954   7.933 -0.3212  0.2154  0.0104
15642SOL    HW154166  10.953   2.864   7.966 -1.3335  0.8664  1.6575
15642SOL    HW254167  11.044   2.986   7.974  0.2662 -0.0700 -0.9135
15643SOL     OW54168  11.623   0.869   8.905  0.0208  0.0160  0.6336
15643SOL    HW154169  11.585   0.890   8.820 -1.7264  1.4843  1.7080
15643SOL    HW254170  11.710   0.909   8.902  0.5232 -1.0734 -0.8927
15644SOL     OW54171   6.503   2.433   8.612 -0.1636 -0.6290 -0.0279
15644SOL    HW154172   6.579   2.411   8.666 -0.5967 -0.6017  0.6099
15644SOL    HW254173   6.521   2.521   8.581  0.9557 -1.3236 -1.4879
15645SOL     OW54174   2.368   9.162   6.111 -0.1540 -0.0716  0.0584
15645SOL    HW154175   2.460   9.173   6.133  0.4512 -1.6321 -1.4941
15645SOL    HW254176   2.324   9.235   6.154  2.2158  2.7003 -1.8483
15646SOL     OW54177   2.373   1.866  10.251 -0.0531 -0.5053  0.0193
15646SOL    HW154178   2.383   1.771  10.249  1.0917 -0.4126  0.6548
15646SOL    HW254179   2.285   1.880  10.286  0.2185 -1.3306  1.0892
15647SOL     OW54180   2.019   0.158   8.570  0.1107 -0.0033  0.4362
15647SOL    HW154181   1.987   0.232   8.622 -2.1916 -1.2516  0.9004
15647SOL    HW254182   2.114   0.162   8.580  0.0912  2.9076  0.3918
15648SOL     OW54183   8.586  12.533   5.300 -0.2258 -0.0592  0.2132
15648SOL    HW154184   8.529  12.546   5.376 -0.4886  1.4394 -0.2125
15648SOL    HW254185   8.535  12.479   5.240 -1.0194  0.8512  0.0526
15649SOL     OW54186  12.182   0.915  10.723 -0.7488 -0.1455 -0.0094
15649SOL    HW154187  12.236   0.992  10.706 -1.0476  0.1736  0.4493
15649SOL    HW254188  12.244   0.842  10.726 -0.4621  0.0774 -0.4493
15650SOL     OW54189   9.317  11.365   7.166  0.2441  0.6770  0.2315
15650SOL    HW154190   9.403  11.350   7.127  0.8659  0.5422  1.5934
15650SOL    HW254191   9.323  11.326   7.253 -0.7353  1.8656  0.8700
15651SOL     OW54192  11.942   2.948   2.482  0.0325  0.2636  0.0214
15651SOL    HW154193  12.031   2.921   2.504 -0.1311 -0.5302 -0.2438
15651SOL    HW254194  11.887   2.880   2.520 -0.3550 -0.1465 -1.2171
15652SOL     OW54195   5.179   1.498   3.582 -0.0769  0.5829 -0.0331
15652SOL    HW154196   5.234   1.478   3.507  0.3013  2.7332 -0.3834
15652SOL    HW254197   5.234   1.481   3.658  0.8685  2.0442 -0.3639
15653SOL     OW54198  11.992   1.632   0.581  0.0283 -0.4766 -0.0009
15653SOL    HW154199  11.936   1.588   0.517  0.0983 -1.4177  0.5765
15653SOL    HW254200  12.051   1.686   0.527 -1.2102  0.3033 -0.6312
15654SOL     OW54201   8.011   2.638   7.255  0.2304 -0.6547 -0.6424
15654SOL    HW154202   8.060   2.718   7.235 -1.8460  0.1506 -3.1162
15654SOL    HW254203   8.001   2.639   7.350  1.9854  0.9385 -0.4171
15655SOL     OW54204   0.974   4.712   2.575 -0.4659  0.0042  0.2202
15655SOL    HW154205   0.971   4.648   2.645 -0.4937  0.7083  0.8741
15655SOL    HW254206   0.904   4.773   2.595 -0.9706 -0.2068 -0.8425
15656SOL     OW54207   4.226   7.753   5.514  0.2307  0.1119 -0.1861
15656SOL    HW154208   4.216   7.829   5.571  0.3232  0.1918 -0.2753
15656SOL    HW254209   4.185   7.778   5.431  2.8737  1.2386 -1.2880
15657SOL     OW54210   3.868   7.243   9.249  0.7225 -0.1951 -0.6013
15657SOL    HW154211   3.801   7.307   9.272  0.1562 -1.0488  0.2187
15657SOL    HW254212   3.948   7.277   9.289  0.5866  0.3604 -0.7908
15658SOL     OW54213   2.468  10.933   1.055 -0.1720  0.2095  0.5460
15658SOL    HW154214   2.405  10.969   1.118 -1.2213  0.4600 -0.6021
15658SOL    HW254215   2.523  11.007   1.031  0.4403  0.0430  1.3733
15659SOL     OW54216   9.732   9.935  12.536  0.3588 -0.2961 -0.3929
15659SOL    HW154217   9.722   9.844  12.507 -0.3820 -0.6146  0.8027
15659SOL    HW254218   9.757   9.929  12.628  1.3314  0.7065 -0.5722
15660SOL     OW54219   3.013   5.165   6.758 -0.1906 -0.8094  0.1351
15660SOL    HW154220   2.985   5.077   6.784 -0.1174 -0.6297  0.8438
15660SOL    HW254221   3.098   5.152   6.717  0.9619 -0.8315  2.3960
15661SOL     OW54222  10.911   7.523   8.350  0.5834 -0.3561 -0.3203
15661SOL    HW154223  10.968   7.459   8.308  1.7966  0.5095 -0.0148
15661SOL    HW254224  10.920   7.504   8.444 -0.7483 -1.1313 -0.3218
15662SOL     OW54225   9.247   4.670   2.196  0.9997 -0.0312 -0.4385
15662SOL    HW154226   9.290   4.604   2.251 -1.1888 -2.6753 -1.6423
15662SOL    HW254227   9.292   4.665   2.112  1.1768  0.3990 -0.3676
15663SOL     OW54228   8.496   2.241   4.771 -0.0290  0.3711 -0.4061
15663SOL    HW154229   8.463   2.153   4.752 -1.3640  0.7952 -0.1670
15663SOL    HW254230   8.469   2.294   4.696 -0.1633  0.7993 -0.0612
15664SOL     OW54231   0.689   8.688  12.127 -0.2707 -0.3039  0.6179
15664SOL    HW154232   0.760   8.750  12.142  1.7262 -2.2877 -0.0525
15664SOL    HW254233   0.636   8.693  12.206  0.2532  1.6390  0.9044
15665SOL     OW54234   6.725  11.788   8.187  0.0030  0.5680 -0.0850
15665SOL    HW154235   6.752  11.701   8.219 -1.4635 -0.1841 -0.7798
15665SOL    HW254236   6.803  11.842   8.198  1.9339 -1.5360 -2.2657
15666SOL     OW54237   2.511  10.607   1.243 -0.4625  0.4263  0.0107
15666SOL    HW154238   2.555  10.676   1.292 -0.7840  0.8914 -0.3458
15666SOL    HW254239   2.495  10.537   1.308 -1.2429  1.1933  0.6724
15667SOL     OW54240  11.040  10.819  10.919  0.7405  0.0994  0.0426
15667SOL    HW154241  11.055  10.794  11.010  1.4370  1.4124  0.3125
15667SOL    HW254242  11.117  10.871  10.895  0.4751 -0.0620 -1.2363
15668SOL     OW54243   3.982  10.558   7.855 -0.1406  0.0628  0.2808
15668SOL    HW154244   3.924  10.558   7.931  0.0183 -0.6988  0.4123
15668SOL    HW254245   4.005  10.466   7.842  2.2426  0.4647  1.1304
15669SOL     OW54246   2.324   0.951   9.821  0.1810 -0.2151 -0.5140
15669SOL    HW154247   2.238   0.916   9.842  0.6422 -0.7815  0.5250
15669SOL    HW254248   2.385   0.881   9.845  0.9916  0.5241 -0.3421
15670SOL     OW54249  12.258   0.114  10.122 -0.0110  0.2105 -0.5105
15670SOL    HW154250  12.187   0.111  10.187 -1.1161 -1.2375 -1.7147
15670SOL    HW254251  12.277   0.208  10.112 -1.2968  0.5903  0.3216
15671SOL     OW54252   1.572   2.419  10.408 -0.0994 -0.4436 -0.2776
15671SOL    HW154253   1.498   2.430  10.348 -0.3458 -1.9607 -0.2914
15671SOL    HW254254   1.548   2.472  10.485  0.8638  2.7372 -1.9615
15672SOL     OW54255   2.561  10.075  10.165  0.4956 -0.0383 -0.9734
15672SOL    HW154256   2.584  10.117  10.248 -1.3064  1.7606 -1.3038
15672SOL    HW254257   2.570   9.981  10.182  0.3931  0.3019  1.1978
15673SOL     OW54258   4.969   5.768  10.294  0.0997 -0.1352 -0.1772
15673SOL    HW154259   4.974   5.853  10.338  0.3095  0.3488 -1.1025
15673SOL    HW254260   4.911   5.783  10.219  0.3080 -0.7501 -0.4677
15674SOL     OW54261  12.507   8.357   8.796  0.0825 -0.1573  0.2325
15674SOL    HW154262  12.424   8.347   8.750  0.4131  1.9534 -0.9418
15674SOL    HW254263  12.560   8.282   8.768 -0.7526 -0.4863 -0.5109
15675SOL     OW54264   9.110   5.934   1.273  0.3903 -0.0813 -0.0847
15675SOL    HW154265   9.108   5.959   1.366 -1.1507 -1.1355  0.2116
15675SOL    HW254266   9.027   5.965   1.238  0.4270 -0.7549 -0.7961
15676SOL     OW54267  10.870  10.712   2.819 -0.0483 -0.2801 -0.2215
15676SOL    HW154268  10.932  10.725   2.748 -0.1197  0.1011 -0.2119
15676SOL    HW254269  10.852  10.799   2.853 -0.2728 -0.4269  0.0460
15677SOL     OW54270   8.674   4.478   5.127 -0.2602  0.2589  0.0691
15677SOL    HW154271   8.686   4.454   5.218 -1.0528  1.0265  0.3914
15677SOL    HW254272   8.690   4.397   5.078  2.5850  0.3664  0.6579
15678SOL     OW54273   5.844  11.547   7.616  0.5734 -0.7856  0.0854
15678SOL    HW154274   5.914  11.596   7.659 -0.0897  0.3186 -0.0603
15678SOL    HW254275   5.764  11.594   7.639 -0.0732 -1.7129 -0.1983
15679SOL     OW54276   8.687   8.461  12.296 -0.5853 -0.7252 -0.0382
15679SOL    HW154277   8.690   8.475  12.391  0.6810 -1.8157  0.1169
15679SOL    HW254278   8.771   8.420  12.275 -0.7391 -0.2741 -1.6836
15680SOL     OW54279   6.968   6.991   6.702 -0.5366 -0.6563  0.0070
15680SOL    HW154280   6.946   6.909   6.658 -1.2257  0.1718 -1.2604
15680SOL    HW254281   7.044   7.024   6.654 -1.2044  0.1891 -0.4932
15681SOL     OW54282   1.900   1.668   6.415 -0.0774  0.2278  0.2128
15681SOL    HW154283   1.813   1.638   6.390  0.3749  0.7997 -2.2743
15681SOL    HW254284   1.919   1.622   6.497 -2.1414 -0.9341  0.0925
15682SOL     OW54285   2.841   1.998  12.261  0.2496  0.0990  0.4905
15682SOL    HW154286   2.773   1.956  12.314  0.9868 -1.9124 -0.0584
15682SOL    HW254287   2.833   2.091  12.280 -1.4139 -0.2864  1.8687
15683SOL     OW54288   1.074   7.469   7.207 -0.2753  0.2082 -0.1047
15683SOL    HW154289   1.161   7.505   7.223 -0.4436  0.1533  1.0450
15683SOL    HW254290   1.079   7.380   7.241 -0.9362  0.3893  0.4903
15684SOL     OW54291   2.235   8.711   2.285 -0.4528 -0.1570 -0.1964
15684SOL    HW154292   2.210   8.621   2.265  0.9027 -1.3475  2.9569
15684SOL    HW254293   2.159   8.748   2.331 -0.1597 -0.4821  0.5614
15685SOL     OW54294   5.613   2.977   1.900  0.1595 -0.0989 -0.0823
15685SOL    HW154295   5.663   3.024   1.832  0.6723  0.4778  0.6680
15685SOL    HW254296   5.561   3.045   1.942  0.6589 -0.2478  0.8020
15686SOL     OW54297   1.243   5.132   3.194 -0.1859 -0.0713  0.3860
15686SOL    HW154298   1.321   5.114   3.247 -0.5079  1.3942  1.4188
15686SOL    HW254299   1.248   5.226   3.176 -1.2967 -0.1217 -0.2433
15687SOL     OW54300   8.796   3.219  10.614 -0.0683 -0.4652 -0.1249
15687SOL    HW154301   8.728   3.216  10.546 -0.8253 -1.6338  0.6455
15687SOL    HW254302   8.757   3.174  10.689  0.7182  0.8741  1.1337
15688SOL     OW54303   2.665  10.603   2.167 -0.3385  0.5616 -0.0862
15688SOL    HW154304   2.625  10.682   2.131 -0.5763  1.5311  2.1653
15688SOL    HW254305   2.708  10.562   2.092 -2.4473  1.3846 -1.8590
15689SOL     OW54306   9.083   5.944   1.983 -0.3122 -0.2312  0.0233
15689SOL    HW154307   9.006   5.895   1.953 -0.4052  1.3431 -2.5862
15689SOL    HW254308   9.133   5.961   1.903  2.0318  0.0449  1.4691
15690SOL     OW54309  10.793  10.307   2.979  0.0203  0.1278 -0.1298
15690SOL    HW154310  10.831  10.282   2.895  0.7196  0.7021  0.0133
15690SOL    HW254311  10.779  10.402   2.972 -1.3913 -0.0595 -0.1801
15691SOL     OW54312   6.829   7.875   6.727  0.1931 -0.3617  0.3296
15691SOL    HW154313   6.893   7.836   6.668 -0.3695 -0.3018 -0.3287
15691SOL    HW254314   6.881   7.934   6.782  0.8737 -1.1681  0.5721
15692SOL     OW54315   8.811   7.842   3.899 -0.7285  0.1109 -0.5587
15692SOL    HW154316   8.805   7.934   3.924  3.1326 -0.0491  1.7127
15692SOL    HW254317   8.812   7.795   3.983 -0.2466 -1.7970 -1.5853
15693SOL     OW54318   7.047   9.812   0.185 -0.0905 -0.0040  0.3287
15693SOL    HW154319   7.098   9.748   0.134 -1.8834 -0.5686 -0.8498
15693SOL    HW254320   6.971   9.763   0.215 -0.4394  1.0608  1.2269
15694SOL     OW54321   2.789  11.304  10.867 -0.2104 -0.1735 -0.7259
15694SOL    HW154322   2.728  11.260  10.807 -0.8109 -0.4177  0.0577
15694SOL    HW254323   2.866  11.322  10.813 -0.5738 -0.7783 -1.4658
15695SOL     OW54324   0.923  10.120   5.200 -0.2150 -0.1555  0.3936
15695SOL    HW154325   0.859  10.184   5.169 -0.9582 -0.4762  1.2224
15695SOL    HW254326   0.955  10.155   5.283  1.5850  0.5830 -0.5639
15696SOL     OW54327  12.328   7.092   9.576  0.3659 -0.2212 -0.5959
15696SOL    HW154328  12.270   7.090   9.652  1.1206 -0.1619 -0.0050
15696SOL    HW254329  12.297   7.166   9.524  0.1654  0.0578 -0.0831
15697SOL     OW54330   4.122   2.738   0.681 -0.5198  0.0564  0.4289
15697SOL    HW154331   4.093   2.808   0.740 -1.1706 -0.2149  0.4317
15697SOL    HW254332   4.103   2.657   0.728  1.6524 -0.1314  1.1050
15698SOL     OW54333   2.970   0.816   7.104 -0.1163  0.3369 -0.4408
15698SOL    HW154334   2.950   0.825   7.011  0.6845  0.1967 -0.6333
15698SOL    HW254335   3.001   0.726   7.112 -0.3973  0.2789  0.0061
15699SOL     OW54336   0.763   0.753   2.448 -0.5275  0.0996 -0.0720
15699SOL    HW154337   0.795   0.792   2.367 -1.7589 -0.3311 -0.8036
15699SOL    HW254338   0.710   0.822   2.488 -1.5426 -0.3155 -0.6544
15700SOL     OW54339   5.406   8.634   0.351  0.3392  0.0397  0.1474
15700SOL    HW154340   5.383   8.725   0.334  0.0448 -0.5488 -3.3958
15700SOL    HW254341   5.347   8.606   0.421 -1.1249  1.9321 -0.2607
15701SOL     OW54342   0.393   0.717   9.197 -0.0319  0.1458 -0.1019
15701SOL    HW154343   0.410   0.722   9.103  0.4772 -1.3036 -0.1016
15701SOL    HW254344   0.395   0.809   9.226  5.4454  0.5177 -0.5611
15702SOL     OW54345  12.607   6.700   7.585 -0.0620  0.2490  0.2089
15702SOL    HW154346  12.534   6.638   7.582  0.6156 -0.5349 -1.5826
15702SOL    HW254347  12.673   6.656   7.637  0.7702 -1.0274 -1.8073
15703SOL     OW54348  11.571   2.753  12.633 -0.4778 -0.2985 -0.0060
15703SOL    HW154349  11.605   2.663  12.639  0.4503 -0.1321 -2.1904
15703SOL    HW254350  11.481   2.742  12.602 -0.4185 -0.4794 -0.1170
15704SOL     OW54351   9.465   0.735   7.883  0.2828 -0.7553 -0.2489
15704SOL    HW154352   9.462   0.707   7.974 -2.2713  1.3072  0.4260
15704SOL    HW254353   9.414   0.668   7.837  0.0272 -0.8398  0.1497
15705SOL     OW54354  11.911   5.356   0.085  0.2502  0.2177 -0.4909
15705SOL    HW154355  11.832   5.391   0.044 -0.6390 -0.7784  0.2956
15705SOL    HW254356  11.933   5.278   0.034  0.4026  0.1882 -0.3818
15706SOL     OW54357   3.430   6.542  12.031 -0.6776  0.0235 -0.2935
15706SOL    HW154358   3.369   6.553  12.104  0.8070  0.4969  0.9158
15706SOL    HW254359   3.476   6.460  12.050 -2.3686 -1.5275 -2.3421
15707SOL     OW54360   9.843   8.182   2.877 -0.0754  0.2024 -0.2051
15707SOL    HW154361   9.812   8.260   2.829 -3.3889 -0.8514 -0.0293
15707SOL    HW254362   9.892   8.132   2.811  0.5333  1.5493 -0.8198
15708SOL     OW54363   4.808   2.168  10.821  0.4194 -0.8098  0.2761
15708SOL    HW154364   4.863   2.239  10.854  1.4433 -1.2113 -0.5280
15708SOL    HW254365   4.857   2.132  10.747 -1.8172  0.1224 -1.8021
15709SOL     OW54366   1.346   1.485   8.101  0.4735 -0.2018  0.2189
15709SOL    HW154367   1.329   1.552   8.034 -0.9729  0.1681  0.9215
15709SOL    HW254368   1.279   1.500   8.168  1.0446 -1.4282  1.1034
15710SOL     OW54369  12.029  11.834   0.015 -0.7752  0.1081  0.4913
15710SOL    HW154370  12.047  11.925   0.039  0.9210 -0.6149  2.1703
15710SOL    HW254371  12.000  11.792   0.096  2.4343 -1.7638  0.8495
15711SOL     OW54372   4.532   9.356   1.978 -0.3078  0.0387  0.5597
15711SOL    HW154373   4.624   9.342   1.998  0.1298 -0.6371 -1.6474
15711SOL    HW254374   4.485   9.312   2.049  1.0706 -1.0304  0.8623
15712SOL     OW54375   5.774  11.393   8.705  0.6379  0.0698 -0.0810
15712SOL    HW154376   5.796  11.359   8.792  1.1121  0.6366  0.0256
15712SOL    HW254377   5.678  11.393   8.702  0.6200 -0.7469  0.1191
15713SOL     OW54378   1.805  10.744   3.285  0.3552  0.1840 -0.1353
15713SOL    HW154379   1.795  10.840   3.283 -2.7302 -0.0207  0.0560
15713SOL    HW254380   1.893  10.730   3.318  0.7083  2.9675  0.4014
15714SOL     OW54381  10.437   6.652   9.321  0.0447 -0.8725 -0.3275
15714SOL    HW154382  10.411   6.605   9.400  0.9922 -0.5358  0.2028
15714SOL    HW254383  10.357   6.657   9.268 -0.7086 -0.7286  0.7967
15715SOL     OW54384  11.051   8.311  12.650 -0.2427 -0.0802  0.3929
15715SOL    HW154385  11.128   8.274  12.606 -0.3016 -0.2491  0.4304
15715SOL    HW254386  10.979   8.292  12.590 -0.2979 -0.1672  0.4874
15716SOL     OW54387   3.625   9.503   7.863 -0.2025  0.4767 -0.0820
15716SOL    HW154388   3.531   9.490   7.873 -0.4711  1.2730 -1.4183
15716SOL    HW254389   3.645   9.473   7.775  0.7496  0.6368  0.0647
15717SOL     OW54390   5.530  11.098   0.891 -0.6143  0.3441  0.2830
15717SOL    HW154391   5.585  11.105   0.969  1.1713 -2.4466 -0.5416
15717SOL    HW254392   5.580  11.143   0.823 -0.2320 -0.4957 -0.0210
15718SOL     OW54393   6.898   7.362   4.053 -0.1953  0.4441 -0.3548
15718SOL    HW154394   6.945   7.378   3.971 -1.4911 -0.4915 -1.3363
15718SOL    HW254395   6.813   7.327   4.025 -0.2476 -1.0041  1.3951
15719SOL     OW54396   9.183   6.778   6.060  0.0107 -0.2091 -0.4294
15719SOL    HW154397   9.128   6.732   5.996  0.6471 -0.2811 -0.9333
15719SOL    HW254398   9.135   6.859   6.078  0.6931  0.6885 -2.4072
15720SOL     OW54399   1.603   4.087   3.078  0.4917  0.5856  0.2865
15720SOL    HW154400   1.610   4.044   3.163  2.3634 -0.8520 -0.5236
15720SOL    HW254401   1.511   4.078   3.053  0.5390 -1.7796  0.7758
15721SOL     OW54402   7.223   9.773  12.337  0.1822  0.0690 -0.6659
15721SOL    HW154403   7.201   9.865  12.325  1.4921  0.7732  1.6327
15721SOL    HW254404   7.308   9.762  12.295  2.3771  1.2727  2.9987
15722SOL     OW54405   5.486   6.501   2.917  0.2454 -0.0488  0.7292
15722SOL    HW154406   5.529   6.556   2.982  1.0866  1.0908 -0.7181
15722SOL    HW254407   5.558   6.471   2.860 -0.7130  1.3153 -1.3304
15723SOL     OW54408  12.057   8.368  10.624  0.2632 -0.3794  0.2088
15723SOL    HW154409  12.099   8.445  10.661  0.3771  0.4138 -1.4783
15723SOL    HW254410  12.123   8.300  10.629  0.6361 -0.0043  0.4671
15724SOL     OW54411   4.500  10.427   1.596 -0.0747  0.1121  0.4108
15724SOL    HW154412   4.518  10.502   1.652  1.9242  0.4311 -0.5878
15724SOL    HW254413   4.487  10.464   1.509 -0.1514 -0.6123  0.1058
15725SOL     OW54414   7.369   6.262   4.275  0.1034  0.7541  0.6679
15725SOL    HW154415   7.348   6.212   4.196 -0.1090 -0.9156  1.7456
15725SOL    HW254416   7.327   6.347   4.261 -1.6935 -0.2077 -0.1508
15726SOL     OW54417   9.727   3.568   1.090  0.8156 -0.7318 -0.0816
15726SOL    HW154418   9.677   3.490   1.066  1.2797 -0.9390 -0.3767
15726SOL    HW254419   9.734   3.618   1.009  2.4028 -1.4442 -0.4041
15727SOL     OW54420  12.407   3.343   8.857 -0.2345 -0.3259 -0.1360
15727SOL    HW154421  12.488   3.350   8.806 -1.0419  1.8294 -1.2563
15727SOL    HW254422  12.371   3.257   8.834 -0.1227  0.2096 -2.5796
15728SOL     OW54423  12.157   2.707   3.595  0.0771  0.0843  0.1953
15728SOL    HW154424  12.206   2.635   3.556 -0.5638 -0.6701  0.7553
15728SOL    HW254425  12.225   2.767   3.626  0.7107 -1.3823  1.8114
15729SOL     OW54426   9.785   6.750  12.184 -0.2173  0.7786  0.2031
15729SOL    HW154427   9.829   6.704  12.112  0.5925  0.2048  1.0508
15729SOL    HW254428   9.847   6.819  12.210  0.2216 -0.0340  1.4032
15730SOL     OW54429  11.783  11.950   0.433  0.1155  0.5354  0.0246
15730SOL    HW154430  11.707  11.912   0.389  1.1173 -1.3772 -0.1754
15730SOL    HW254431  11.759  11.952   0.525 -1.3236  2.9186 -0.3161
15731SOL     OW54432  12.224  12.139   0.368  0.4309  0.1773 -0.2026
15731SOL    HW154433  12.158  12.072   0.351 -0.8798  1.4894 -0.4716
15731SOL    HW254434  12.198  12.214   0.315  2.0832  0.7968 -0.2291
15732SOL     OW54435   1.911  10.828   7.998  0.0163 -0.0885  0.3009
15732SOL    HW154436   1.910  10.882   8.077 -2.8875 -0.6707  0.7640
15732SOL    HW254437   1.831  10.851   7.952  1.3223 -0.2312 -2.2228
15733SOL     OW54438   2.290   0.557   2.706  0.3148 -0.1515  0.2034
15733SOL    HW154439   2.333   0.641   2.722  0.5062 -0.1223 -0.4345
15733SOL    HW254440   2.284   0.551   2.610  0.5191 -0.9734  0.2341
15734SOL     OW54441   0.642   2.690   5.428 -0.5271  0.0736 -0.2438
15734SOL    HW154442   0.661   2.702   5.335 -3.2370 -0.9651 -1.0192
15734SOL    HW254443   0.632   2.596   5.439 -0.6513  0.2153  1.0046
15735SOL     OW54444   7.809   4.886  10.479  0.1779 -0.6217  0.3859
15735SOL    HW154445   7.715   4.869  10.472  0.1706 -0.3823 -0.1417
15735SOL    HW254446   7.835   4.844  10.561 -0.6704  0.5953  1.3090
15736SOL     OW54447  12.526   9.648   0.461 -0.8900 -0.5384  0.3025
15736SOL    HW154448  12.443   9.666   0.506 -0.4851 -0.9045  1.2294
15736SOL    HW254449  12.589   9.635   0.532  0.1666  0.6222 -0.3819
15737SOL     OW54450  10.499   9.097   5.641  0.1502 -0.0715 -0.3685
15737SOL    HW154451  10.567   9.030   5.633  0.4170 -0.0353  1.2791
15737SOL    HW254452  10.430   9.056   5.693 -0.2038  0.5405 -0.3420
15738SOL     OW54453   9.864   1.971   8.062  0.2485  0.0255 -0.0059
15738SOL    HW154454   9.811   2.050   8.054 -0.5108 -0.5250 -0.4829
15738SOL    HW254455   9.915   1.968   7.981  0.2582  0.0047  0.0008
15739SOL     OW54456   4.582  10.371   2.827 -0.5086  0.0363 -0.2554
15739SOL    HW154457   4.509  10.318   2.795 -0.7884  1.7787 -2.7072
15739SOL    HW254458   4.572  10.455   2.784  2.2759  0.7479  0.2978
15740SOL     OW54459   1.194   7.570  11.152  0.0235 -0.1758  0.8052
15740SOL    HW154460   1.250   7.597  11.225  1.4617  0.7393 -0.5602
15740SOL    HW254461   1.113   7.620  11.164  0.7791  1.0421  1.0266
15741SOL     OW54462   0.942   2.753  10.219 -0.3865 -0.2066  0.0016
15741SOL    HW154463   0.871   2.732  10.159  1.0019  0.4168 -1.9305
15741SOL    HW254464   0.945   2.678  10.279 -1.4663 -1.0948 -1.0065
15742SOL     OW54465   0.880   1.179   3.109  0.2404  0.5395  0.1485
15742SOL    HW154466   0.921   1.103   3.151  0.3910 -0.6532 -2.0224
15742SOL    HW254467   0.880   1.247   3.177  1.3919 -0.9442  1.7136
15743SOL     OW54468  10.707   3.577  12.667  0.1758 -0.2134  0.1353
15743SOL    HW154469  10.711   3.656  12.613  0.7569 -0.7367 -0.6162
15743SOL    HW254470  10.698   3.609  12.756 -0.4099  0.6861 -0.2284
15744SOL     OW54471   8.788   0.366   4.804  1.2934  0.1693 -0.3998
15744SOL    HW154472   8.705   0.409   4.824  1.2271 -0.0587 -0.1791
15744SOL    HW254473   8.783   0.344   4.711  1.7874  1.6400 -0.7953
15745SOL     OW54474   0.328   1.594   8.666  0.0985 -0.6888 -0.3608
15745SOL    HW154475   0.362   1.607   8.577  1.5172  2.7543  0.5411
15745SOL    HW254476   0.232   1.594   8.654  0.1448  2.4158 -1.7507
15746SOL     OW54477   5.193   2.645   0.745 -0.0662  0.2193 -0.3925
15746SOL    HW154478   5.131   2.649   0.673 -0.1691  0.2180 -0.3055
15746SOL    HW254479   5.144   2.679   0.820 -0.8878 -2.3013  0.3160
15747SOL     OW54480  10.047  11.583  11.079  0.3822 -0.1460  0.0389
15747SOL    HW154481  10.075  11.574  10.988 -1.6971 -0.0682 -0.6444
15747SOL    HW254482   9.952  11.587  11.075  0.2575  0.1653  2.2055
15748SOL     OW54483  12.555   5.067   9.223 -0.3807  0.0848  0.2170
15748SOL    HW154484  12.546   5.147   9.274 -1.9015 -0.2836  0.5913
15748SOL    HW254485  12.649   5.049   9.221 -0.0747  1.5320  0.6406
15749SOL     OW54486   1.568   5.647  11.369 -0.5152  0.0284 -0.2696
15749SOL    HW154487   1.541   5.555  11.377  1.2501 -0.4868  0.3667
15749SOL    HW254488   1.552   5.669  11.277 -0.2616 -1.1706 -0.6237
15750SOL     OW54489   3.038   9.509   8.660  0.3523  0.3180 -0.1630
15750SOL    HW154490   3.047   9.524   8.754  0.7061 -0.6816 -0.0194
15750SOL    HW254491   3.013   9.417   8.653 -1.4890  0.8521 -0.9842
15751SOL     OW54492  12.484   2.177   2.960  0.1206 -0.4102  0.5844
15751SOL    HW154493  12.406   2.130   2.930 -0.4303  2.2930 -3.0118
15751SOL    HW254494  12.555   2.114   2.952 -1.3101 -2.2597  1.7054
15752SOL     OW54495   0.708   2.389   5.721 -0.2668  0.0741 -0.6692
15752SOL    HW154496   0.682   2.387   5.813  0.6671  1.1739 -0.3624
15752SOL    HW254497   0.688   2.301   5.688  0.0757 -0.5660  0.7682
15753SOL     OW54498   2.020  12.330   0.158  0.2838  0.6780 -0.2212
15753SOL    HW154499   2.022  12.403   0.219  3.0312  0.1671  0.4512
15753SOL    HW254500   2.112  12.301   0.153 -0.4202 -1.5136 -1.9020
15754SOL     OW54501  10.943   8.961  11.543 -0.2352 -0.4700 -0.3053
15754SOL    HW154502  11.038   8.956  11.536  0.0029  0.0808  1.8453
15754SOL    HW254503  10.913   8.985  11.455  1.6699  0.2549 -0.7968
15755SOL     OW54504   5.827   6.339   4.051  0.5300 -0.0393  0.2667
15755SOL    HW154505   5.863   6.310   3.967  1.1070 -1.0562  0.8402
15755SOL    HW254506   5.734   6.318   4.046  0.3675  0.8040 -0.4820
15756SOL     OW54507   3.844  11.640   4.666 -0.2903 -0.3054 -0.1324
15756SOL    HW154508   3.803  11.669   4.585 -4.0542  0.3200  1.7445
15756SOL    HW254509   3.882  11.720   4.704  0.9567 -0.4917 -0.9369
15757SOL     OW54510  12.410   5.048   0.969  0.1845  0.6637 -0.3746
15757SOL    HW154511  12.498   5.038   0.933  0.1397 -0.1784 -0.2729
15757SOL    HW254512  12.379   4.958   0.982 -1.5211  0.8907 -2.3889
15758SOL     OW54513   3.506   9.493   5.004 -0.2292 -0.0574 -0.9337
15758SOL    HW154514   3.427   9.439   5.010  0.2811 -0.9993 -2.3379
15758SOL    HW254515   3.480   9.567   4.949 -0.3849  0.1452 -0.5954
15759SOL     OW54516   9.949   2.974   8.808  0.3711 -0.1481  0.5144
15759SOL    HW154517   9.957   2.932   8.722  2.2132 -0.7113  0.9254
15759SOL    HW254518  10.021   2.938   8.859  0.3630  1.4886  1.7536
15760SOL     OW54519   5.273   6.914   1.816 -0.3314  0.0989 -0.6177
15760SOL    HW154520   5.189   6.925   1.772 -1.4276 -0.8317  1.1261
15760SOL    HW254521   5.288   6.998   1.859 -2.3947 -0.8646  2.2725
15761SOL     OW54522   7.714   1.599   1.917  0.2516  0.2704  0.1339
15761SOL    HW154523   7.693   1.620   1.826 -1.1414 -0.6858  0.2013
15761SOL    HW254524   7.784   1.534   1.911  0.3789  0.4406 -0.2439
15762SOL     OW54525   3.030  12.425  11.614  0.0748 -0.1058  0.5064
15762SOL    HW154526   3.100  12.411  11.678  1.0672 -0.0603 -0.5254
15762SOL    HW254527   2.971  12.351  11.625  1.8485 -1.7694 -0.5330
15763SOL     OW54528   3.439   9.082   9.268 -0.1042  0.0098 -0.0222
15763SOL    HW154529   3.348   9.106   9.253  0.1396  1.3728  0.5548
15763SOL    HW254530   3.441   9.050   9.359 -0.4295 -2.3810 -0.7769
15764SOL     OW54531  11.602   8.180   8.959 -0.8227  0.7213 -0.6105
15764SOL    HW154532  11.640   8.108   9.009  3.1670  2.0299 -1.3490
15764SOL    HW254533  11.599   8.254   9.020 -0.6784  1.0433 -0.9856
15765SOL     OW54534   3.878   2.889   7.846 -0.7561  0.1352  0.2001
15765SOL    HW154535   3.865   2.896   7.941  0.3788 -0.5399  0.4167
15765SOL    HW254536   3.951   2.828   7.836 -1.2526 -0.2697 -1.1400
15766SOL     OW54537  12.049  12.641   3.070 -0.1052 -0.0017 -0.1087
15766SOL    HW154538  12.009  12.647   2.983  0.4539  0.2986 -0.3572
15766SOL    HW254539  12.082  12.729   3.087  2.7431 -0.7396 -1.0705
15767SOL     OW54540   9.215   8.993   3.230 -0.2073 -0.1120  0.6135
15767SOL    HW154541   9.291   9.047   3.252  0.1389 -0.1656 -0.3911
15767SOL    HW254542   9.226   8.914   3.284 -1.1111  1.0945  2.6362
15768SOL     OW54543  10.591   6.565   6.990 -0.2549  0.4492  0.1720
15768SOL    HW154544  10.577   6.612   6.908  0.1296 -0.5555 -0.4949
15768SOL    HW254545  10.685   6.546   6.991  0.1998  2.5004  2.0055
15769SOL     OW54546  10.401   6.027  11.701 -0.6554 -0.4976 -0.3394
15769SOL    HW154547  10.454   6.106  11.692 -1.2734  0.1830  1.3840
15769SOL    HW254548  10.453   5.970  11.758 -1.2754 -0.2577  0.4949
15770SOL     OW54549   1.954   3.308   5.689  0.8660  0.0435  0.4086
15770SOL    HW154550   2.046   3.332   5.677  0.7305  0.5034  0.2529
15770SOL    HW254551   1.934   3.251   5.615  1.1056 -0.3022  0.6074
15771SOL     OW54552   1.580   8.346   6.625  0.6106 -0.4870 -0.5133
15771SOL    HW154553   1.573   8.261   6.582  0.3875 -0.5928 -0.2728
15771SOL    HW254554   1.605   8.325   6.715 -2.4309 -0.5192  0.4427
15772SOL     OW54555   6.073   3.766   3.089 -0.0875  0.0048  0.1297
15772SOL    HW154556   6.023   3.752   3.170  1.3433 -1.9168  0.7563
15772SOL    HW254557   6.078   3.861   3.081 -2.6060  0.2539  0.7705
15773SOL     OW54558   3.656  12.078   3.346 -0.0047 -0.0259 -0.3539
15773SOL    HW154559   3.637  12.057   3.255  2.0954 -0.8375 -0.6628
15773SOL    HW254560   3.686  12.170   3.344 -2.7588  0.9584  0.0097
15774SOL     OW54561   1.396  11.403   9.265 -0.9460  0.5213 -0.2479
15774SOL    HW154562   1.344  11.440   9.336  0.2817 -0.6478  1.3300
15774SOL    HW254563   1.421  11.479   9.211 -1.6036  1.4757  0.7546
15775SOL     OW54564   3.668   8.239  10.527  0.0481  0.3058  0.8126
15775SOL    HW154565   3.584   8.200  10.553  1.1601 -1.0150  2.6178
15775SOL    HW254566   3.718   8.246  10.608  2.2608 -0.3869 -0.4011
15776SOL     OW54567  10.660  10.937   3.626  0.6792 -0.2078 -0.1093
15776SOL    HW154568  10.692  11.017   3.583  1.0721 -0.0265  0.5081
15776SOL    HW254569  10.633  10.880   3.554 -0.1325  0.6965 -0.5429
15777SOL     OW54570   7.762   2.327   0.823  0.3112 -0.2076 -0.4482
15777SOL    HW154571   7.753   2.407   0.873  1.0174  0.0607 -0.7408
15777SOL    HW254572   7.783   2.356   0.734  1.3474 -0.7166 -0.3926
15778SOL     OW54573   7.743  12.162  10.942 -0.2373  0.0999 -0.4204
15778SOL    HW154574   7.824  12.165  10.994  0.2076 -1.1234 -1.0131
15778SOL    HW254575   7.692  12.092  10.981  0.1865 -0.9756 -1.7138
15779SOL     OW54576   3.654   2.982   0.847 -1.1793 -0.3775  0.1256
15779SOL    HW154577   3.731   2.960   0.900 -1.2062 -0.4774  0.1223
15779SOL    HW254578   3.632   2.901   0.801 -1.7771 -0.5855  0.7503
15780SOL     OW54579   7.975   2.217  12.500 -0.7635  0.1921  0.0044
15780SOL    HW154580   7.901   2.213  12.561 -1.5603  0.2371 -0.9507
15780SOL    HW254581   7.940   2.185  12.417  0.3215  0.1161 -0.4390
15781SOL     OW54582   7.076   5.017  11.932  0.2301 -0.5953  0.6816
15781SOL    HW154583   7.138   4.981  11.995  1.1281  0.6171  0.5250
15781SOL    HW254584   7.089   4.964  11.853  1.9088  0.3392  0.2860
15782SOL     OW54585  12.576   5.434   5.380  0.4107 -0.5392 -0.3415
15782SOL    HW154586  12.525   5.486   5.442  1.9309 -0.9031  1.2873
15782SOL    HW254587  12.528   5.443   5.297 -1.1846  0.7138  0.6383
15783SOL     OW54588   2.929   4.523   7.007  0.1743  0.8900 -1.0092
15783SOL    HW154589   2.875   4.458   6.962  1.6477 -0.7860 -0.4962
15783SOL    HW254590   2.982   4.563   6.938 -1.9064  2.8320 -1.5728
15784SOL     OW54591   3.304   1.977   9.924 -0.0135 -0.0922  0.4867
15784SOL    HW154592   3.273   1.896   9.965  1.4889 -0.6193  0.6341
15784SOL    HW254593   3.333   1.951   9.837  1.5022  0.0501  0.9226
15785SOL     OW54594   1.300   3.119   7.559  0.4796  0.7132 -0.1360
15785SOL    HW154595   1.337   3.207   7.558  1.1526  0.4392  0.3018
15785SOL    HW254596   1.222   3.125   7.504  0.6490  1.5251 -0.2918
15786SOL     OW54597  12.551   3.118   9.592  0.2082  0.1755  0.1665
15786SOL    HW154598  12.548   3.093   9.499  2.1116 -0.2655  0.1877
15786SOL    HW254599  12.623   3.181   9.598 -0.6223  1.0613  1.1749
15787SOL     OW54600   1.940  12.416   6.962 -0.1812 -0.0396  0.7945
15787SOL    HW154601   1.957  12.509   6.954 -0.3887 -0.1090 -0.8551
15787SOL    HW254602   1.845  12.408   6.947  0.2240 -0.7283 -1.8282
15788SOL     OW54603  11.451  10.053   5.787  0.1318 -0.3831 -0.7017
15788SOL    HW154604  11.375  10.100   5.752 -0.4235 -0.2402  0.6395
15788SOL    HW254605  11.455  10.079   5.879  1.3299 -1.0270 -0.5501
15789SOL     OW54606   2.005   8.114   0.125  0.2106  0.2845 -0.1987
15789SOL    HW154607   1.997   8.197   0.078 -0.7784 -0.4398 -1.3795
15789SOL    HW254608   2.003   8.047   0.056  2.0412 -0.7043  0.6389
15790SOL     OW54609   8.003   3.502   6.265  0.4748  0.2689 -0.0526
15790SOL    HW154610   8.008   3.597   6.253  0.0783  0.3386  0.3316
15790SOL    HW254611   8.074   3.482   6.326  0.7513  0.2714 -0.3655
15791SOL     OW54612   6.933  11.113  10.762 -0.4298 -0.2634  0.1480
15791SOL    HW154613   6.954  11.196  10.804 -0.6099 -0.1916  0.1002
15791SOL    HW254614   6.839  11.103  10.775 -0.2221 -1.0210  1.1408
15792SOL     OW54615   5.738   1.089  10.340 -0.2390 -0.1214  0.1667
15792SOL    HW154616   5.673   1.145  10.297  0.7699  1.2035  0.2946
15792SOL    HW254617   5.719   1.097  10.433 -0.9283 -1.1072  0.1382
15793SOL     OW54618   9.316  10.518  11.646  0.3943  0.2366  0.2451
15793SOL    HW154619   9.283  10.484  11.563  0.7173 -3.0636  1.3446
15793SOL    HW254620   9.326  10.441  11.702  0.2476  2.2902  3.3786
15794SOL     OW54621   4.569   4.135   6.965 -0.2402 -0.0266 -0.4780
15794SOL    HW154622   4.489   4.120   7.015 -0.2499 -1.9776 -0.9783
15794SOL    HW254623   4.639   4.106   7.022 -0.0983 -0.5598 -0.9184
15795SOL     OW54624   7.861   6.484   5.603  0.0307  0.6618 -0.6203
15795SOL    HW154625   7.873   6.430   5.525 -1.2080 -0.7837  0.1378
15795SOL    HW254626   7.857   6.574   5.569  1.7457  0.3023 -1.9531
15796SOL     OW54627  12.159   7.906   1.793 -0.1388  0.0442  0.6626
15796SOL    HW154628  12.251   7.898   1.818 -0.1586  1.3681  1.3001
15796SOL    HW254629  12.151   7.857   1.712  0.7174 -1.5944  1.5244
15797SOL     OW54630   9.259   5.587   5.226  0.3056  0.2383 -0.5450
15797SOL    HW154631   9.274   5.573   5.319 -1.3562  0.0684 -0.2756
15797SOL    HW254632   9.346   5.601   5.189  0.9959  0.1452  0.9997
15798SOL     OW54633  12.203   3.309   7.371  0.1122  0.0655 -0.0112
15798SOL    HW154634  12.256   3.231   7.354  0.5614  0.4055 -0.1872
15798SOL    HW254635  12.244   3.378   7.319 -0.9896  0.1578 -0.8201
15799SOL     OW54636   9.967   7.359   0.825  0.1497  0.2400 -0.0314
15799SOL    HW154637   9.981   7.265   0.831  0.9922  0.3483 -0.1427
15799SOL    HW254638  10.050   7.398   0.854 -0.1981  0.9468  0.0451
15800SOL     OW54639   9.514   8.073   7.645  0.1692 -0.0492 -0.2381
15800SOL    HW154640   9.498   7.979   7.637 -1.4431  0.1980 -0.2409
15800SOL    HW254641   9.468   8.098   7.726  1.0509  0.6506  0.0663
15801SOL     OW54642   9.031   6.778   0.119 -0.0817 -0.1069  0.0519
15801SOL    HW154643   9.107   6.769   0.062  0.7710  1.3211  0.9051
15801SOL    HW254644   8.957   6.790   0.060  0.8466  1.8357 -0.7837
15802SOL     OW54645   3.399   1.692   3.626 -0.3889  0.6657 -0.0031
15802SOL    HW154646   3.456   1.769   3.626 -0.9690  1.1357 -1.2716
15802SOL    HW254647   3.421   1.646   3.545 -0.4471 -0.1945  0.4670
15803SOL     OW54648  11.075   5.226   7.519 -0.3936 -0.1037  0.8444
15803SOL    HW154649  11.130   5.275   7.580 -0.0651  0.6028 -0.0015
15803SOL    HW254650  10.986   5.260   7.534  0.0004  1.7283 -0.6128
15804SOL     OW54651   1.777   9.984   0.009  0.1639  0.3214 -0.1844
15804SOL    HW154652   1.758   9.983  -0.084  0.9039 -2.7090 -0.4280
15804SOL    HW254653   1.844   9.916   0.020  0.1362  0.6296  2.5396
15805SOL     OW54654   0.310  11.558   5.713 -0.2942 -0.7086 -0.3075
15805SOL    HW154655   0.328  11.465   5.725  0.0499 -0.4050  2.2910
15805SOL    HW254656   0.234  11.575   5.769 -0.0757  0.6519 -0.3831
15806SOL     OW54657   4.926   8.669   5.813  0.2570  0.1175 -0.0259
15806SOL    HW154658   4.832   8.660   5.826  0.4831 -0.9714  1.0436
15806SOL    HW254659   4.946   8.611   5.739  0.0846  0.4580 -0.3469
15807SOL     OW54660   0.667   7.654  11.458 -0.1224 -0.4610 -0.2745
15807SOL    HW154661   0.599   7.590  11.436 -1.5516  0.8997 -0.0210
15807SOL    HW254662   0.713   7.615  11.533 -0.3049 -1.6178 -0.7457
15808SOL     OW54663   3.888   1.457   1.038 -0.1204 -0.4788 -0.0183
15808SOL    HW154664   3.958   1.470   1.101 -0.5527  1.4432  0.1332
15808SOL    HW254665   3.846   1.543   1.031 -1.7670 -1.3061 -0.9158
15809SOL     OW54666  10.719   3.057   0.977 -0.0401 -0.4794 -0.1987
15809SOL    HW154667  10.721   3.152   0.988 -2.6858 -0.3109 -0.5167
15809SOL    HW254668  10.768   3.023   1.051 -0.6304  1.1009  0.9749
15810SOL     OW54669   4.163   7.314   4.283 -0.2847  0.6021  0.0925
15810SOL    HW154670   4.109   7.322   4.362 -1.2429 -0.2315 -0.4484
15810SOL    HW254671   4.193   7.403   4.265 -1.6752  1.1469  0.3104
15811SOL     OW54672  11.900  11.606  11.124 -0.1599  0.6805 -0.3449
15811SOL    HW154673  11.886  11.553  11.202 -0.0837 -0.0059 -0.7870
15811SOL    HW254674  11.864  11.554  11.052 -0.6005  1.4760 -0.7268
15812SOL     OW54675  12.680   7.138   0.743  0.0366  0.1931 -0.5585
15812SOL    HW154676  12.675   7.222   0.788  3.2449  0.3623 -0.2950
15812SOL    HW254677  12.679   7.073   0.813 -1.4600  0.0087 -0.7111
15813SOL     OW54678   1.194   4.409  10.004  0.2974  0.3217 -0.4016
15813SOL    HW154679   1.236   4.425   9.919  0.5748  0.7540 -0.1868
15813SOL    HW254680   1.268   4.401  10.065  0.1853 -1.5162 -0.4388
15814SOL     OW54681   9.709   5.478   3.885  0.7979  0.4639  0.0415
15814SOL    HW154682   9.678   5.536   3.815  1.7477  0.4891 -0.3771
15814SOL    HW254683   9.706   5.532   3.964  0.1272  0.5675 -0.0454
15815SOL     OW54684  11.763   0.252   6.730 -0.1544  0.4877  0.1479
15815SOL    HW154685  11.751   0.206   6.647  0.2992  0.1478  0.2730
15815SOL    HW254686  11.792   0.340   6.704  0.6178  0.1853 -0.0377
15816SOL     OW54687   0.183   3.236   7.165  0.1912 -0.4554 -0.2281
15816SOL    HW154688   0.256   3.178   7.186  1.3647  1.0724  0.1299
15816SOL    HW254689   0.157   3.273   7.249  2.9321  3.4112 -0.7881
15817SOL     OW54690   2.215  11.114   5.568  0.0762  0.3420  0.5294
15817SOL    HW154691   2.264  11.051   5.516  1.3478  1.8380 -0.1465
15817SOL    HW254692   2.267  11.125   5.648  0.0631  0.7931  0.4810
15818SOL     OW54693   4.470  11.860   8.799  0.5115  0.7178  0.0166
15818SOL    HW154694   4.518  11.821   8.726  1.1344  1.1870  0.1672
15818SOL    HW254695   4.431  11.785   8.845 -2.4077  0.5518 -2.4718
15819SOL     OW54696  10.874   9.903   3.336 -0.0949 -0.3803 -0.3237
15819SOL    HW154697  10.898   9.981   3.286  2.5672  0.2122  1.6169
15819SOL    HW254698  10.824   9.937   3.411  2.9601 -0.0628  1.7517
15820SOL     OW54699   2.389   9.201   5.243  0.4054 -0.0358  0.3665
15820SOL    HW154700   2.328   9.213   5.316  0.9616 -1.3193  1.0846
15820SOL    HW254701   2.338   9.222   5.165 -0.7396 -0.3814  1.0005
15821SOL     OW54702   0.760   6.147   3.012  0.2670 -0.2439  0.1267
15821SOL    HW154703   0.738   6.062   3.051  0.4680 -0.2124  0.3068
15821SOL    HW254704   0.855   6.147   3.006  0.1953 -0.7449 -1.4802
15822SOL     OW54705   9.104  10.104   9.622 -0.1938 -0.1104  0.0963
15822SOL    HW154706   9.121  10.017   9.659 -0.3784 -0.2320 -0.1057
15822SOL    HW254707   9.190  10.146   9.622  0.1545 -0.7776 -1.0433
15823SOL     OW54708  12.633   6.398   2.563  0.2549 -0.1948  0.1078
15823SOL    HW154709  12.668   6.472   2.513 -0.1099 -0.5051 -0.6227
15823SOL    HW254710  12.582   6.348   2.499  2.2304 -2.2832  0.0389
15824SOL     OW54711   9.197   7.147  12.565  0.3507 -0.6946  0.1662
15824SOL    HW154712   9.142   7.082  12.521  0.9478  0.0895 -1.8216
15824SOL    HW254713   9.136   7.196  12.621 -0.3065 -2.1673  0.7790
15825SOL     OW54714  11.164   2.110  10.559  0.2184 -1.1998 -0.3311
15825SOL    HW154715  11.107   2.034  10.566  0.3473 -1.2813 -0.1606
15825SOL    HW254716  11.196   2.108  10.469  0.4543 -1.5173 -0.2442
15826SOL     OW54717   9.573   1.248   7.902  0.0858 -0.0263  0.1335
15826SOL    HW154718   9.553   1.156   7.882 -0.1323 -0.2223  1.2050
15826SOL    HW254719   9.577   1.252   7.998  2.2521  0.6380  0.0748
15827SOL     OW54720  11.671   4.090   5.264 -0.2953  0.6569 -0.4813
15827SOL    HW154721  11.766   4.097   5.264 -0.2557  0.1035 -0.4038
15827SOL    HW254722  11.651   4.024   5.199 -0.4946 -0.9557  1.1305
15828SOL     OW54723  10.054   0.543  10.449  0.1501  0.4759 -0.2869
15828SOL    HW154724  10.055   0.447  10.444 -0.7982  0.5162 -1.7942
15828SOL    HW254725  10.104   0.563  10.528 -2.2282 -1.3534  1.8609
15829SOL     OW54726   0.827   2.627  10.923 -0.1995 -0.4376 -0.1077
15829SOL    HW154727   0.861   2.673  11.000 -1.0531  0.0200  0.0159
15829SOL    HW254728   0.886   2.553  10.911 -0.0453 -0.5187  0.9924
15830SOL     OW54729   8.648   8.145   1.139 -0.3317  0.4454 -0.4994
15830SOL    HW154730   8.584   8.165   1.207 -1.1325 -0.7483 -0.8816
15830SOL    HW254731   8.601   8.154   1.057  0.2536  0.4975 -0.8388
15831SOL     OW54732   4.653   6.665   0.816 -0.1068  0.2139 -0.3674
15831SOL    HW154733   4.729   6.723   0.824  1.3530 -1.6587 -0.0213
15831SOL    HW254734   4.677   6.604   0.746 -0.7375 -1.2087  0.6181
15832SOL     OW54735   2.222   0.142   1.082 -0.2715  0.0900 -0.0979
15832SOL    HW154736   2.207   0.173   0.992  1.1219 -0.9918 -0.7334
15832SOL    HW254737   2.268   0.059   1.071  1.3697  0.7053  1.6450
15833SOL     OW54738  10.698   4.417  12.414 -0.8505  0.3499  0.4850
15833SOL    HW154739  10.740   4.496  12.381 -0.3371  0.3118  1.0446
15833SOL    HW254740  10.699   4.357  12.339 -0.1830  0.4580  0.4022
15834SOL     OW54741  12.708   6.240  10.658 -0.0751 -0.1060  0.3152
15834SOL    HW154742  12.698   6.333  10.677 -0.1169 -0.4018  1.9312
15834SOL    HW254743  12.743   6.237  10.569  1.1095  1.5127  0.6706
15835SOL     OW54744   1.459  11.028   4.115  0.2678 -0.0354 -0.0502
15835SOL    HW154745   1.497  10.998   4.197  0.8034 -0.7830 -0.5593
15835SOL    HW254746   1.402  10.957   4.086 -0.2532  0.4011 -0.1126
15836SOL     OW54747   5.452  10.411   2.409  0.1395 -0.1829 -0.3603
15836SOL    HW154748   5.513  10.433   2.339  0.9004 -0.1310  0.3008
15836SOL    HW254749   5.396  10.489   2.418  1.4793  0.7029  0.5793
15837SOL     OW54750   3.734   4.790   4.778  1.1607 -0.0528  0.3064
15837SOL    HW154751   3.762   4.721   4.837 -0.4926 -0.4665  0.6696
15837SOL    HW254752   3.638   4.787   4.782  1.0439  1.4010 -0.6692
15838SOL     OW54753   3.483  12.678   5.671 -0.1835 -0.0698 -0.2055
15838SOL    HW154754   3.459  12.765   5.638  1.1354 -0.0702 -1.2610
15838SOL    HW254755   3.566  12.659   5.629 -0.2288 -1.6694  0.3648
15839SOL     OW54756   8.619  11.370   6.502 -0.0236  0.4989  0.1202
15839SOL    HW154757   8.558  11.376   6.429 -1.6342 -0.0699  1.3490
15839SOL    HW254758   8.613  11.455   6.546 -0.4843  0.1962  0.6530
15840SOL     OW54759  12.087  11.154  10.510  0.2328  0.0524 -0.2970
15840SOL    HW154760  12.005  11.200  10.529 -0.1569 -0.8793  0.3295
15840SOL    HW254761  12.071  11.110  10.426  0.0017 -0.3150 -0.0639
15841SOL     OW54762   0.269   9.183   5.082 -0.0460  0.2781 -0.9471
15841SOL    HW154763   0.178   9.161   5.064 -0.0031 -0.1052 -0.7053
15841SOL    HW254764   0.304   9.215   4.999 -0.9358  2.3265 -0.6119
15842SOL     OW54765   1.952  12.668   3.745  0.3361  0.2674 -0.2606
15842SOL    HW154766   1.940  12.585   3.699  1.4536  0.9648 -1.8690
15842SOL    HW254767   2.041  12.696   3.724  0.1450  1.6584  0.6157
15843SOL     OW54768  12.450   5.645   4.923  0.2800 -0.5672  0.3583
15843SOL    HW154769  12.359   5.616   4.927  0.1324 -0.2328 -0.4264
15843SOL    HW254770  12.480   5.618   4.835 -0.6270  3.7635 -1.5259
15844SOL     OW54771   1.598   7.469   9.723  0.2119  0.4535  0.2504
15844SOL    HW154772   1.644   7.507   9.798 -0.2920 -0.3215  0.9727
15844SOL    HW254773   1.517   7.519   9.717  0.9230  1.5364 -0.7576
15845SOL     OW54774   0.247   4.014  12.187  0.8350  0.4509  0.1043
15845SOL    HW154775   0.172   4.072  12.174  1.6968  1.1840 -2.1302
15845SOL    HW254776   0.296   4.052  12.259  0.3397  1.3608 -0.0286
15846SOL     OW54777  11.515   9.189  11.847 -0.6749 -0.0629  0.1697
15846SOL    HW154778  11.476   9.153  11.927 -0.4376 -2.5183 -0.7468
15846SOL    HW254779  11.578   9.123  11.819 -0.0975  1.1573 -1.5827
15847SOL     OW54780   1.804   6.271   9.224  0.5725  0.0552 -0.0184
15847SOL    HW154781   1.811   6.176   9.230 -0.6181 -0.0175  0.5048
15847SOL    HW254782   1.883   6.298   9.178  0.9474 -1.1807 -0.1333
15848SOL     OW54783   7.666  12.655   0.980  0.6850 -0.3234  0.8911
15848SOL    HW154784   7.688  12.715   1.052  1.7661  0.7340 -0.2807
15848SOL    HW254785   7.637  12.712   0.909 -2.2260 -1.4596  1.0412
15849SOL     OW54786   4.547   9.016  10.083 -0.3993 -0.2705 -0.0790
15849SOL    HW154787   4.472   8.969  10.119 -0.3760 -0.0416  0.2791
15849SOL    HW254788   4.573   9.076  10.153 -1.3246  1.3059 -1.0256
15850SOL     OW54789   8.439   4.954   5.930  0.7021  0.0125 -0.0809
15850SOL    HW154790   8.504   4.975   5.863 -0.0174 -0.5567 -0.9726
15850SOL    HW254791   8.491   4.937   6.009  1.5149  1.5528 -0.2351
15851SOL     OW54792   8.611   8.655  12.116 -0.2617 -0.1928  0.6459
15851SOL    HW154793   8.523   8.636  12.149 -0.0509  0.7769  1.8369
15851SOL    HW254794   8.670   8.611  12.177  0.1015 -0.2466  0.2646
15852SOL     OW54795   6.288   0.609  10.589 -0.5295 -0.0579  0.0191
15852SOL    HW154796   6.287   0.558  10.670 -0.7569 -0.3229 -0.1484
15852SOL    HW254797   6.195   0.624  10.569 -0.4882 -0.3687 -0.4237
15853SOL     OW54798   7.725   4.717   6.325  0.0242 -0.8525 -0.1776
15853SOL    HW154799   7.744   4.682   6.238  2.9682  2.0848 -0.9433
15853SOL    HW254800   7.812   4.733   6.363 -1.1892 -0.2449  2.5132
15854SOL     OW54801  11.882   4.048   5.912  0.0639  0.4481  0.2083
15854SOL    HW154802  11.931   4.128   5.930 -0.2031  0.6416  0.0791
15854SOL    HW254803  11.790   4.074   5.920 -0.0283  0.2035 -0.0420
15855SOL     OW54804   9.576   0.148   3.006 -0.4499  0.4090  0.9511
15855SOL    HW154805   9.618   0.227   3.039  3.0675 -0.0001 -1.8969
15855SOL    HW254806   9.533   0.176   2.924 -0.1504 -0.3911  0.5107
15856SOL     OW54807   6.528   2.097  11.936 -0.2663  0.8032  0.4865
15856SOL    HW154808   6.509   2.190  11.953  2.5679  1.6597 -0.3907
15856SOL    HW254809   6.545   2.094  11.842 -0.5326 -0.6783  0.4713
15857SOL     OW54810   4.642   7.123  11.153  0.0565  0.0955  0.1171
15857SOL    HW154811   4.667   7.138  11.062 -1.5269 -2.0299 -0.7627
15857SOL    HW254812   4.548   7.136  11.154 -0.2158 -1.6725  0.9949
15858SOL     OW54813   0.427  12.614   1.450  0.1244 -0.2172  0.2245
15858SOL    HW154814   0.420  12.566   1.367 -1.7405  1.2243 -0.5147
15858SOL    HW254815   0.510  12.661   1.443  0.0978 -0.2909 -0.7393
15859SOL     OW54816   2.001   0.290  12.423  0.2911  0.2586 -0.0222
15859SOL    HW154817   2.075   0.258  12.474 -0.2803 -0.4213  0.4142
15859SOL    HW254818   1.981   0.376  12.459 -0.0157 -0.1561  0.8154
15860SOL     OW54819   7.040   9.368   8.523  0.4242 -0.2757 -0.6286
15860SOL    HW154820   6.947   9.349   8.529  0.4856 -1.2160 -2.2072
15860SOL    HW254821   7.048   9.457   8.558 -0.6767 -1.0346  1.7929
15861SOL     OW54822   8.568   9.871   7.969 -0.0348  0.1919 -0.2108
15861SOL    HW154823   8.579   9.964   7.950 -1.4115  0.4471  0.1805
15861SOL    HW254824   8.481   9.863   8.007  0.9729 -0.9176  2.0981
15862SOL     OW54825   1.054   6.126   1.152 -0.1343  0.3552 -0.2898
15862SOL    HW154826   0.960   6.119   1.167 -0.2232  1.4051 -0.2652
15862SOL    HW254827   1.088   6.038   1.168 -0.8704  0.3444  1.4402
15863SOL     OW54828   3.584  12.062   3.077  0.2757  0.4010 -0.3647
15863SOL    HW154829   3.525  12.128   3.043  1.6942  1.2318 -1.2779
15863SOL    HW254830   3.640  12.038   3.003  0.6065 -0.9301  0.2704
15864SOL     OW54831   4.165   8.961  12.487 -0.0573 -0.5589 -1.2303
15864SOL    HW154832   4.206   8.880  12.459  2.0066  0.8774 -2.5552
15864SOL    HW254833   4.233   9.028  12.479 -1.1831  1.0748  1.3595
15865SOL     OW54834   7.127   3.170   1.220  0.1332 -0.3906 -0.1620
15865SOL    HW154835   7.130   3.139   1.311  1.0133  0.7199  0.2182
15865SOL    HW254836   7.184   3.111   1.172  1.7158  0.5356  0.5281
15866SOL     OW54837   2.018   3.469   4.822  1.0463 -0.0728 -0.3732
15866SOL    HW154838   2.005   3.564   4.816 -1.2579 -0.3126 -0.3617
15866SOL    HW254839   2.076   3.458   4.898 -2.9573  1.2280  3.3094
15867SOL     OW54840   7.866  10.049   0.395  0.6437  0.0923 -0.3642
15867SOL    HW154841   7.865   9.961   0.432  2.6827  0.8002  1.5804
15867SOL    HW254842   7.787  10.053   0.341  0.1544 -2.6850 -0.0044
15868SOL     OW54843   0.733  10.397   5.148 -0.5033 -0.7666  0.0218
15868SOL    HW154844   0.641  10.381   5.167 -0.5836  0.7470  1.1162
15868SOL    HW254845   0.768  10.433   5.230  0.2523  1.7878 -1.3171
15869SOL     OW54846  10.064   9.641   2.818  0.3808 -0.4687  0.5972
15869SOL    HW154847   9.989   9.589   2.846  0.5423 -0.3975  1.1800
15869SOL    HW254848  10.074   9.620   2.725 -0.8322  0.0968  0.3095
15870SOL     OW54849   8.319   2.716   9.402  0.3849  0.7531 -0.0563
15870SOL    HW154850   8.313   2.630   9.443 -0.1045  0.2156 -1.2103
15870SOL    HW254851   8.250   2.716   9.335  2.4400  0.7808 -2.3245
15871SOL     OW54852  12.343   5.561   2.529  0.4005  0.5776 -0.2873
15871SOL    HW154853  12.280   5.621   2.489  0.5910 -0.5944 -2.5400
15871SOL    HW254854  12.289   5.491   2.566  0.2806  0.9897  0.3327
15872SOL     OW54855   3.222   7.681   1.970  0.1773 -0.2255 -0.3848
15872SOL    HW154856   3.201   7.622   1.898  0.1299 -0.9997  0.2614
15872SOL    HW254857   3.307   7.652   2.001  1.8135  2.1647 -2.2319
15873SOL     OW54858   2.961  12.443   8.976  0.7468  0.1880  0.2102
15873SOL    HW154859   3.049  12.464   8.946  0.6234  0.1782 -0.1674
15873SOL    HW254860   2.903  12.495   8.919  0.3576 -2.1650 -1.7012
15874SOL     OW54861   8.229   3.099   8.168 -0.2585  0.2643  0.3183
15874SOL    HW154862   8.203   3.176   8.117  0.5704  0.4821  0.2017
15874SOL    HW254863   8.256   3.035   8.102 -1.8316 -0.4848  0.3690
15875SOL     OW54864   9.232   1.441  10.852 -0.3730 -0.0709  0.5647
15875SOL    HW154865   9.233   1.413  10.943 -0.3534 -0.5394  0.4205
15875SOL    HW254866   9.317   1.485  10.840 -0.5315  0.3250  0.8724
15876SOL     OW54867   0.077   4.341   3.405  0.5802 -0.3196  0.7551
15876SOL    HW154868   0.099   4.253   3.377 -0.3470 -0.1648 -0.5986
15876SOL    HW254869   0.149   4.396   3.373  1.9432 -0.7309  2.9369
15877SOL     OW54870   1.535   8.481   1.380 -0.3141  0.0297  0.4816
15877SOL    HW154871   1.470   8.532   1.428  0.1576  2.0539 -0.9222
15877SOL    HW254872   1.603   8.462   1.444 -0.8540  0.4992  1.2122
15878SOL     OW54873  12.077   7.913   2.078 -0.3428  0.0518 -0.3995
15878SOL    HW154874  11.993   7.950   2.050 -0.7252 -1.0980 -0.8258
15878SOL    HW254875  12.128   7.907   1.998  0.3751  1.2583 -0.0592
15879SOL     OW54876  10.189   5.139   1.286 -0.8704  0.8452 -0.2031
15879SOL    HW154877  10.217   5.076   1.353  0.0264  0.2308 -1.1244
15879SOL    HW254878  10.209   5.096   1.203  1.2218  2.8939 -0.8795
15880SOL     OW54879   6.447   4.690   0.533  0.7447 -0.3258  0.2149
15880SOL    HW154880   6.432   4.781   0.562 -0.6225 -0.0980 -1.1035
15880SOL    HW254881   6.532   4.668   0.570  1.6785  1.9143 -0.4253
15881SOL     OW54882   2.320   4.332   9.162  0.1967 -0.2408 -0.0815
15881SOL    HW154883   2.357   4.295   9.242  1.3541 -0.5785 -0.7510
15881SOL    HW254884   2.245   4.384   9.192 -0.7948 -2.1549  1.0309
15882SOL     OW54885   5.246   4.421  12.329  0.2584  0.1202  0.0723
15882SOL    HW154886   5.212   4.461  12.409 -1.5989 -2.6414  0.7936
15882SOL    HW254887   5.336   4.394  12.351  0.3058  0.7605  0.6828
15883SOL     OW54888   7.019   1.088   0.421  0.5654 -0.0376  0.4365
15883SOL    HW154889   7.108   1.053   0.430  0.8908  0.4667 -0.5824
15883SOL    HW254890   6.972   1.055   0.497  1.1774 -1.6671  0.1424
15884SOL     OW54891   7.078   6.353   4.639 -0.3676  0.5093 -0.4666
15884SOL    HW154892   7.119   6.290   4.579 -0.1459 -0.1900  0.3912
15884SOL    HW254893   7.152   6.398   4.681 -0.4647 -0.0957  0.3940
15885SOL     OW54894   1.982   9.458  11.055 -0.4212  0.0976  0.2234
15885SOL    HW154895   1.917   9.525  11.031  0.6790  2.1168  2.4261
15885SOL    HW254896   2.055   9.473  10.995 -1.0809 -0.7219 -0.8137
15886SOL     OW54897   7.379  12.126   6.967  0.1745 -0.1472  0.4761
15886SOL    HW154898   7.372  12.135   6.871 -0.2287 -0.6070  0.4560
15886SOL    HW254899   7.394  12.215   6.998 -2.2414  0.4462  0.1714
15887SOL     OW54900   7.143  10.798   9.756  0.1849  0.3021  0.1217
15887SOL    HW154901   7.214  10.842   9.803  0.2285 -1.0372  1.3636
15887SOL    HW254902   7.086  10.764   9.825 -2.3894  2.3772 -0.8310
15888SOL     OW54903   6.461  10.361   9.625 -0.2439 -0.0244  0.9610
15888SOL    HW154904   6.416  10.300   9.567 -1.7428  0.3949  1.6412
15888SOL    HW254905   6.412  10.442   9.618  1.1317  0.8254  0.8245
15889SOL     OW54906   9.259   3.562   5.945  0.0434 -0.4231  0.5672
15889SOL    HW154907   9.212   3.489   5.905  0.1638 -0.4078  0.3976
15889SOL    HW254908   9.233   3.639   5.894 -0.7407 -0.2079  1.2697
15890SOL     OW54909   6.138  12.244   6.958 -0.0430 -0.2363  0.3165
15890SOL    HW154910   6.126  12.150   6.968 -2.5406  0.1141  1.4830
15890SOL    HW254911   6.207  12.266   7.020 -1.0894 -1.0317  1.8467
15891SOL     OW54912   1.229   3.786   3.639 -0.0115 -0.1481  0.3895
15891SOL    HW154913   1.273   3.703   3.623 -0.0110  0.2516 -2.0904
15891SOL    HW254914   1.137   3.764   3.650  0.2168 -0.6050  1.5480
15892SOL     OW54915  11.508   0.474  12.260  0.5912  0.4186  0.1763
15892SOL    HW154916  11.586   0.476  12.315  1.1070  2.1390 -0.5503
15892SOL    HW254917  11.525   0.405  12.196  0.2212 -1.2269  1.7414
15893SOL     OW54918   1.046   5.454  10.570 -0.4514  0.4639  0.5022
15893SOL    HW154919   0.970   5.397  10.563  1.0397 -1.6373  0.7553
15893SOL    HW254920   1.014   5.532  10.615 -3.2881  1.2980 -2.5212
15894SOL     OW54921   5.566   7.432   2.944  0.0813  0.2513  0.3769
15894SOL    HW154922   5.529   7.514   2.975  1.3250 -0.1979  3.4532
15894SOL    HW254923   5.511   7.364   2.984  0.0386 -0.4324 -0.7943
15895SOL     OW54924   6.744   2.016   3.820 -0.3035 -0.0970  0.4689
15895SOL    HW154925   6.739   1.953   3.748  0.0799  2.1478 -1.6741
15895SOL    HW254926   6.661   2.007   3.866 -1.1629 -0.6934 -1.1175
15896SOL     OW54927  11.093  11.473   6.649 -0.6391 -0.1616  0.2661
15896SOL    HW154928  11.026  11.472   6.580  0.2644  0.7315 -0.6806
15896SOL    HW254929  11.149  11.547   6.625 -0.6138  0.5234  2.3009
15897SOL     OW54930   5.728   7.859   6.656 -0.2903  0.3434 -0.3137
15897SOL    HW154931   5.671   7.931   6.683  0.5720  1.1421 -0.5892
15897SOL    HW254932   5.816   7.886   6.681  0.0099 -0.8022 -0.0495
15898SOL     OW54933   5.165  11.534   7.654  0.1358 -0.7300  0.0645
15898SOL    HW154934   5.114  11.577   7.723  2.0828 -0.1217  1.1859
15898SOL    HW254935   5.177  11.444   7.686  0.7882 -0.5310  0.3872
15899SOL     OW54936   0.656  12.082   3.129 -0.3375  0.3800 -0.3851
15899SOL    HW154937   0.648  12.027   3.207 -0.4402  1.0667  0.1001
15899SOL    HW254938   0.747  12.113   3.130 -0.3865  0.5288 -0.4442
15900SOL     OW54939   8.569   9.234   0.349  0.6915 -0.4066  0.7257
15900SOL    HW154940   8.486   9.210   0.307  1.4688  2.0168 -2.6226
15900SOL    HW254941   8.619   9.152   0.352 -1.2094 -1.6093  1.4294
15901SOL     OW54942  11.635   0.836  12.395  0.6092  0.4443 -0.2430
15901SOL    HW154943  11.711   0.871  12.348  1.0597 -0.7793 -0.4601
15901SOL    HW254944  11.672   0.784  12.466 -0.0232 -0.3007 -0.4499
15902SOL     OW54945   5.552   7.358  11.365  0.5006 -0.2496 -0.5290
15902SOL    HW154946   5.537   7.362  11.460 -0.3179  1.0984 -0.6889
15902SOL    HW254947   5.593   7.273  11.351  0.1884 -0.6815  0.9745
15903SOL     OW54948   9.613   1.461  10.222  0.5191  0.1203  0.7253
15903SOL    HW154949   9.519   1.448  10.233  0.8144 -1.9265  1.1840
15903SOL    HW254950   9.652   1.427  10.302  1.7752 -1.0810 -0.3446
15904SOL     OW54951   1.104   1.632   3.841  0.7108 -0.4914 -0.4669
15904SOL    HW154952   1.058   1.592   3.915 -0.7830 -3.6423 -2.8662
15904SOL    HW254953   1.054   1.711   3.822 -1.4769 -1.8360 -0.6137
15905SOL     OW54954   4.661  10.675   2.249  0.0538  0.2137 -0.3017
15905SOL    HW154955   4.654  10.643   2.159  0.5512 -1.6230  0.2705
15905SOL    HW254956   4.570  10.689   2.276 -0.2187 -1.1112 -0.4694
15906SOL     OW54957   7.810   8.578   3.473  0.5329  0.9369  0.4695
15906SOL    HW154958   7.861   8.506   3.437  0.1841  1.1743 -0.5383
15906SOL    HW254959   7.791   8.634   3.398 -0.3011  1.4018  1.0054
15907SOL     OW54960   4.824   3.377   5.555  0.4431 -0.0232 -0.9208
15907SOL    HW154961   4.877   3.360   5.477  1.1070  1.4922 -0.8403
15907SOL    HW254962   4.886   3.376   5.627  0.0571 -0.1012 -0.5869
15908SOL     OW54963  11.018   3.203   6.867  0.0744  0.1544  0.5845
15908SOL    HW154964  10.982   3.224   6.781  0.8454  2.6651  0.7913
15908SOL    HW254965  10.978   3.119   6.890 -0.1398 -0.5914 -2.1868
15909SOL     OW54966   9.273   8.895   6.522 -0.3831 -0.1595 -0.4968
15909SOL    HW154967   9.228   8.811   6.531 -0.3113 -0.1209  0.2921
15909SOL    HW254968   9.345   8.877   6.462 -0.2045 -0.7336 -0.1259
15910SOL     OW54969   6.021   9.510   4.947 -0.1115  0.0750  0.2321
15910SOL    HW154970   6.085   9.565   4.992 -0.2948  0.1011  0.4616
15910SOL    HW254971   6.057   9.422   4.952  1.0098  0.3852 -1.5830
15911SOL     OW54972   8.089  11.970  12.303  0.1097 -0.3448 -0.0959
15911SOL    HW154973   8.071  11.893  12.248  0.1864  0.5644 -1.4520
15911SOL    HW254974   8.127  12.033  12.242 -1.4060  1.3554  0.6444
15912SOL     OW54975  10.392   8.662   0.759 -0.6325 -0.7426 -0.0543
15912SOL    HW154976  10.337   8.719   0.705 -0.3954 -0.7945 -0.3554
15912SOL    HW254977  10.476   8.661   0.713 -0.1300 -0.0138  0.8304
15913SOL     OW54978   8.479   9.531  11.015 -0.3544  0.0003 -0.8194
15913SOL    HW154979   8.421   9.558  11.086 -0.1209 -1.3194 -0.1124
15913SOL    HW254980   8.562   9.511  11.057 -0.1414 -0.5800 -1.4907
15914SOL     OW54981   3.570   3.846  12.680 -0.0324 -0.9904 -0.2573
15914SOL    HW154982   3.570   3.942  12.684 -0.4015 -1.0177  0.6850
15914SOL    HW254983   3.662   3.822  12.673  0.0547 -0.5624 -0.5948
15915SOL     OW54984   6.890   3.636   7.378 -0.4375  0.3039 -0.2893
15915SOL    HW154985   6.969   3.603   7.334 -0.1540  1.8702 -1.0509
15915SOL    HW254986   6.825   3.642   7.308  0.0550  2.9494 -0.6335
15916SOL     OW54987   3.626   6.189   0.253  0.4948 -0.0605 -0.5239
15916SOL    HW154988   3.556   6.225   0.198  0.4108  1.0388  0.2563
15916SOL    HW254989   3.667   6.122   0.200 -0.6481 -0.1712 -1.3000
15917SOL     OW54990  10.249   7.643   6.384 -0.5731 -0.2190  0.1826
15917SOL    HW154991  10.224   7.598   6.303  0.4170  1.1541 -0.9367
15917SOL    HW254992  10.343   7.660   6.374 -1.1742  3.6845 -0.3698
15918SOL     OW54993  12.614   0.847   5.838 -0.0197  0.0032  0.0717
15918SOL    HW154994  12.645   0.840   5.748  0.2838 -1.1114  0.2553
15918SOL    HW254995  12.522   0.875   5.829  0.1054  0.2243 -0.5620
15919SOL     OW54996   9.095   3.022   8.303  0.1565 -0.5783  0.0888
15919SOL    HW154997   9.079   2.928   8.296  0.8606 -0.7078  0.1409
15919SOL    HW254998   9.186   3.034   8.274 -0.8570  0.4946 -3.0976
15920SOL     OW54999   1.922   4.837   4.086  0.2435  0.2188 -0.1799
15920SOL    HW155000   1.890   4.789   4.010  1.6428 -1.6178  0.2931
15920SOL    HW255001   1.863   4.812   4.157 -1.7421  2.7889 -0.7622
15921SOL     OW55002   4.104   4.468   9.642  0.4206 -1.0461 -0.8501
15921SOL    HW155003   4.194   4.468   9.608 -0.8383 -0.9646 -4.5951
15921SOL    HW255004   4.061   4.540   9.597 -1.4900 -0.8063  1.1883
15922SOL     OW55005   1.781  10.544  12.213 -0.1623 -0.1790 -0.2399
15922SOL    HW155006   1.830  10.467  12.186 -1.1427 -1.0331  0.3597
15922SOL    HW255007   1.816  10.566  12.299  0.5161  0.4238 -0.6489
15923SOL     OW55008   0.742  10.375   6.817 -0.1495 -0.1336 -0.2086
15923SOL    HW155009   0.671  10.415   6.766  1.1887  1.6288 -0.7915
15923SOL    HW255010   0.805  10.445   6.830  1.7947 -1.7787 -0.2160
15924SOL     OW55011   6.844   9.979   8.377 -0.5582  0.3340  0.1648
15924SOL    HW155012   6.800  10.063   8.365 -1.6811 -0.4396 -1.4772
15924SOL    HW255013   6.840   9.938   8.291  1.9521 -0.4957  0.3721
15925SOL     OW55014  12.285   4.984   6.095  0.4431  0.2764 -0.2807
15925SOL    HW155015  12.296   5.059   6.154  0.7161  0.5643 -0.6956
15925SOL    HW255016  12.372   4.969   6.058  0.2449  0.1848 -0.7162
15926SOL     OW55017   5.504   0.996   9.575 -0.0121  0.2172 -0.1432
15926SOL    HW155018   5.567   1.021   9.507  1.5841 -1.8976  0.4410
15926SOL    HW255019   5.556   0.994   9.656 -0.6147 -2.2593  0.2523
15927SOL     OW55020   2.399  12.475   9.919 -0.3069 -0.1617  0.1666
15927SOL    HW155021   2.377  12.532   9.993 -1.1059 -1.3608  0.8764
15927SOL    HW255022   2.396  12.387   9.955  4.4549 -0.6071  0.0482
15928SOL     OW55023   9.397   4.754   0.120  0.1902  0.3255 -0.3903
15928SOL    HW155024   9.409   4.801   0.038  1.6266 -1.3985 -1.2364
15928SOL    HW255025   9.427   4.815   0.188  0.9795  1.0264 -1.3405
15929SOL     OW55026   8.282  10.096   5.619  0.1924  0.0312 -0.1868
15929SOL    HW155027   8.243  10.101   5.532 -1.3076  0.8608  0.4986
15929SOL    HW255028   8.254  10.011   5.653  0.5190 -0.1596 -0.3884
15930SOL     OW55029   0.968   1.660  12.678 -0.0328  0.2042  0.6007
15930SOL    HW155030   1.019   1.579  12.676  0.6680  0.6487 -0.1409
15930SOL    HW255031   0.957   1.684  12.586 -1.4384  0.2319  0.7427
15931SOL     OW55032   9.788   9.911   9.654 -0.4619  0.2849  0.2543
15931SOL    HW155033   9.845   9.988   9.662  0.4166 -0.2885 -0.3061
15931SOL    HW255034   9.847   9.837   9.664 -1.1737 -0.3271 -0.0105
15932SOL     OW55035   9.672   9.904   4.136 -0.0108  0.0661  0.7720
15932SOL    HW155036   9.577   9.902   4.138 -0.0300 -1.7973  2.8419
15932SOL    HW255037   9.697   9.963   4.207  0.4344  1.2945 -0.3573
15933SOL     OW55038   0.683   5.073   5.867  0.4631  0.4430  0.1538
15933SOL    HW155039   0.717   5.067   5.778  0.3934  0.8669  0.0968
15933SOL    HW255040   0.588   5.083   5.856  0.5499  1.4271  0.2436
15934SOL     OW55041  11.252   6.492   3.221 -0.3146 -0.0226  0.2732
15934SOL    HW155042  11.197   6.413   3.213  0.5634 -0.4964 -1.6036
15934SOL    HW255043  11.200   6.561   3.181  0.5669 -0.5811 -1.9991
15935SOL     OW55044  11.791   3.608  12.289  0.0532 -0.5895  0.2289
15935SOL    HW155045  11.785   3.673  12.359  0.1762  0.1707 -0.4516
15935SOL    HW255046  11.878   3.570  12.299  0.6526  0.5694 -0.4039
15936SOL     OW55047   5.539   6.246   2.520 -0.0643  0.0183 -0.2785
15936SOL    HW155048   5.522   6.262   2.427 -0.2275  0.7734 -0.1230
15936SOL    HW255049   5.623   6.201   2.522 -0.1516 -0.1710 -0.8057
15937SOL     OW55050   1.847   3.252   3.057 -0.3819 -0.0625  0.1095
15937SOL    HW155051   1.811   3.167   3.081 -1.8039  0.4089 -0.2841
15937SOL    HW255052   1.864   3.246   2.963  0.5382 -0.2485  0.2720
15938SOL     OW55053   5.232  10.741   9.940  0.2101  0.0038 -0.0805
15938SOL    HW155054   5.235  10.729   9.846 -0.4821  2.5055 -0.4966
15938SOL    HW255055   5.181  10.666   9.972 -0.4341 -0.3394 -1.8023
15939SOL     OW55056   4.362  11.175   5.875  0.4852  0.0536 -0.4432
15939SOL    HW155057   4.391  11.089   5.844 -0.2841 -0.8690  1.2831
15939SOL    HW255058   4.397  11.182   5.963 -0.7924  0.8269  0.0206
15940SOL     OW55059   2.095   3.686   3.455 -0.6247  0.6451  0.2828
15940SOL    HW155060   2.175   3.650   3.493 -1.4987 -0.8460  0.7875
15940SOL    HW255061   2.098   3.779   3.476  1.0230  0.6431  0.1823
15941SOL     OW55062   9.734   0.908   9.478 -0.9750  0.4674 -0.2863
15941SOL    HW155063   9.678   0.831   9.489 -0.0124 -0.2577 -0.3698
15941SOL    HW255064   9.768   0.902   9.389 -1.0994  1.1463 -0.3918
15942SOL     OW55065   0.854   5.803   3.712 -0.2629  0.1744  0.6385
15942SOL    HW155066   0.791   5.758   3.768 -2.2063  0.1327 -1.4177
15942SOL    HW255067   0.830   5.895   3.719 -1.5239  0.0361 -1.1575
15943SOL     OW55068   9.497  10.367   3.697  0.2533  0.4948 -0.3260
15943SOL    HW155069   9.569  10.430   3.695  1.0304 -0.3644 -0.3414
15943SOL    HW255070   9.477  10.355   3.790  0.4474  0.3876 -0.2981
15944SOL     OW55071  11.283   7.267   6.437  0.1656 -0.1693  0.0115
15944SOL    HW155072  11.334   7.333   6.391  1.6199 -0.8377  0.5956
15944SOL    HW255073  11.322   7.264   6.525  1.2673 -2.8865 -0.4610
15945SOL     OW55074   7.287   9.306   1.514  0.1800  0.4045 -0.2274
15945SOL    HW155075   7.369   9.335   1.553  0.5015 -1.0541  0.2609
15945SOL    HW255076   7.300   9.213   1.498 -1.1012  0.3176 -0.8856
15946SOL     OW55077   4.685   1.896  12.443 -0.1549  0.1852 -0.2136
15946SOL    HW155078   4.647   1.928  12.525  1.5611  1.9615 -0.0411
15946SOL    HW255079   4.764   1.849  12.471 -0.4002 -0.5759 -0.7667
15947SOL     OW55080   3.758   3.034   5.077 -0.3457  0.8610  0.0859
15947SOL    HW155081   3.667   3.036   5.109  0.1906 -0.7127  1.8168
15947SOL    HW255082   3.749   3.027   4.982 -2.0954 -0.9666  0.3121
15948SOL     OW55083   0.499   3.162  10.053 -0.8621 -0.4935  0.0818
15948SOL    HW155084   0.412   3.131  10.028 -2.4687  3.8258 -0.6551
15948SOL    HW255085   0.542   3.181   9.970  0.0575 -0.8410  0.4730
15949SOL     OW55086   7.016  10.161   7.736 -0.5671 -0.3261 -0.4293
15949SOL    HW155087   6.995  10.141   7.828  0.7249 -2.5255 -0.5583
15949SOL    HW255088   6.963  10.100   7.686  1.3365 -1.6112 -0.9726
15950SOL     OW55089   3.559   5.715   5.868 -0.5396  0.0334 -0.1502
15950SOL    HW155090   3.528   5.727   5.958  0.2646 -1.1821  0.3086
15950SOL    HW255091   3.526   5.792   5.821 -0.2751  1.1143  1.3602
15951SOL     OW55092   1.674   9.998   6.080  0.0086  0.1044  0.2711
15951SOL    HW155093   1.745  10.018   6.141 -0.1171  0.1433  0.4058
15951SOL    HW255094   1.622   9.931   6.125  0.4170 -0.5134 -0.1720
15952SOL     OW55095   4.551   6.328   8.004  0.1464 -0.4278  0.4157
15952SOL    HW155096   4.599   6.284   8.074  0.6375  1.4477  1.3394
15952SOL    HW255097   4.472   6.362   8.047  0.4346  0.7187  0.0845
15953SOL     OW55098   6.616   6.154   7.039 -0.1772  0.1424 -0.0623
15953SOL    HW155099   6.700   6.132   7.079  0.0009 -0.1316 -0.5791
15953SOL    HW255100   6.611   6.250   7.043 -0.0668  0.1302  0.4122
15954SOL     OW55101  10.209  11.333   0.964  0.1369  0.2657  0.1273
15954SOL    HW155102  10.257  11.383   0.897 -0.0310  0.0188 -0.1790
15954SOL    HW255103  10.125  11.312   0.922  0.0878 -0.0126  0.3645
15955SOL     OW55104   4.861   3.666   4.121  0.7160  0.1876 -0.0184
15955SOL    HW155105   4.940   3.613   4.116  0.8403  0.3220  0.4743
15955SOL    HW255106   4.878   3.730   4.190  1.2469  2.0046 -1.7105
15956SOL     OW55107   1.974   0.325   6.192  0.0754  0.3673 -0.2058
15956SOL    HW155108   2.060   0.367   6.196  0.3717 -0.3036  0.9614
15956SOL    HW255109   1.919   0.377   6.252 -0.4503  1.0224 -1.2326
15957SOL     OW55110   5.855   7.470   7.052  0.1249 -0.2736  0.3660
15957SOL    HW155111   5.948   7.490   7.050 -0.1285  1.0168  0.6525
15957SOL    HW255112   5.812   7.551   7.024 -0.8549 -1.4222 -1.6669
15958SOL     OW55113  11.372   7.984   2.881  0.1075  0.0163  0.6202
15958SOL    HW155114  11.356   7.930   2.804  1.4192 -2.7060  2.0849
15958SOL    HW255115  11.286   8.015   2.908 -0.2780  2.1026 -2.5171
15959SOL     OW55116   5.649   3.860   8.491 -0.2857  0.3073 -0.0501
15959SOL    HW155117   5.671   3.770   8.517 -1.4339 -0.1581 -0.6246
15959SOL    HW255118   5.686   3.869   8.403  0.4187  0.6380  0.2742
15960SOL     OW55119   9.493   1.676  11.921 -0.3154  0.0752 -0.2433
15960SOL    HW155120   9.567   1.682  11.861 -0.1230 -0.2738 -0.0384
15960SOL    HW255121   9.423   1.724  11.876 -0.5972 -1.3539 -1.3918
15961SOL     OW55122  12.404  10.715  12.571  0.1148  0.8506  0.7335
15961SOL    HW155123  12.461  10.638  12.563 -0.3519  0.3170  2.0956
15961SOL    HW255124  12.327  10.693  12.518  1.0170  1.4637 -0.8974
15962SOL     OW55125   8.342   8.516   3.482 -0.5422 -0.1133 -0.4390
15962SOL    HW155126   8.354   8.435   3.531  1.7972  1.3180  1.5896
15962SOL    HW255127   8.431   8.544   3.460 -1.3232  1.5743 -1.6859
15963SOL     OW55128   9.745   5.964   8.255  0.8035 -0.1980  0.1269
15963SOL    HW155129   9.837   5.976   8.230  0.3911 -0.6953 -1.8037
15963SOL    HW255130   9.704   6.048   8.235  0.9108  0.1874  1.4584
15964SOL     OW55131   6.223  10.284   2.600  0.4791  0.2271  0.3551
15964SOL    HW155132   6.264  10.308   2.516  0.2372 -0.3585  0.0634
15964SOL    HW255133   6.192  10.195   2.587 -0.4936  0.4921  0.7180
15965SOL     OW55134   3.230   9.460   8.319 -0.4579 -0.0811 -0.0798
15965SOL    HW155135   3.242   9.554   8.304  0.9582 -0.4888 -1.9365
15965SOL    HW255136   3.311   9.420   8.287 -0.5282 -1.8651  1.7861
15966SOL     OW55137   8.328   0.824   8.072  0.1284 -0.0590  0.4601
15966SOL    HW155138   8.359   0.909   8.040 -0.0547  0.5093  1.7277
15966SOL    HW255139   8.242   0.812   8.032  0.4253  0.0626 -0.2123
15967SOL     OW55140   2.963   8.153   8.659 -0.1040  0.4099  0.0623
15967SOL    HW155141   3.010   8.089   8.712 -3.5399 -1.3152  1.3005
15967SOL    HW255142   2.915   8.101   8.595 -0.5249  2.0382 -1.0158
15968SOL     OW55143   0.516   3.587  12.663 -0.3346  0.1237 -0.2651
15968SOL    HW155144   0.599   3.622  12.696  0.1720 -0.7818 -0.5372
15968SOL    HW255145   0.483   3.533  12.735 -0.9829  0.9287  0.0566
15969SOL     OW55146   2.631   6.720   4.301  0.3285 -0.6038 -0.7032
15969SOL    HW155147   2.638   6.803   4.254  1.9130 -0.3167 -0.0265
15969SOL    HW255148   2.659   6.654   4.238  2.8132 -0.1822 -0.1305
15970SOL     OW55149   7.198   0.143   6.863  0.2256 -0.0487  0.2709
15970SOL    HW155150   7.224   0.235   6.858 -1.6971  0.5660  0.6903
15970SOL    HW255151   7.181   0.117   6.773 -2.4827  1.0870  0.3524
15971SOL     OW55152   2.006  11.958   3.939 -0.8504 -0.3633 -0.3957
15971SOL    HW155153   2.046  12.007   3.867  0.8127 -1.1393 -0.0541
15971SOL    HW255154   2.066  11.885   3.955 -0.8501  0.1052  2.1753
15972SOL     OW55155  10.639   6.311  12.625 -0.3369 -0.0243 -0.4814
15972SOL    HW155156  10.627   6.226  12.668 -0.5105  0.9159  1.4417
15972SOL    HW255157  10.648   6.290  12.532 -1.4481 -2.0541 -0.1872
15973SOL     OW55158   7.717   0.466   7.955  0.4003 -0.5903 -0.1054
15973SOL    HW155159   7.748   0.530   8.019 -1.0937  0.0930 -0.0244
15973SOL    HW255160   7.626   0.450   7.979 -0.1293 -0.4855 -1.8894
15974SOL     OW55161  10.237   9.690   5.463  0.0431  0.6604 -0.1678
15974SOL    HW155162  10.318   9.701   5.514 -0.2074 -0.6876  0.5388
15974SOL    HW255163  10.185   9.628   5.513 -1.8319  2.1555 -0.1746
15975SOL     OW55164   7.524  10.609   2.652  0.2038  0.1037 -0.0612
15975SOL    HW155165   7.491  10.678   2.710 -0.4026  0.1099 -0.3982
15975SOL    HW255166   7.446  10.578   2.607  0.7869  0.7624 -1.5984
15976SOL     OW55167   2.462   9.255   0.312  0.4226  0.0701 -0.4339
15976SOL    HW155168   2.429   9.234   0.399  0.5778  0.6136 -0.2426
15976SOL    HW255169   2.519   9.181   0.289 -0.2680 -0.4755 -0.4249
15977SOL     OW55170   2.001   0.924   9.562 -0.5745  0.2356 -0.1149
15977SOL    HW155171   1.909   0.929   9.587 -0.1531 -0.0420  1.5826
15977SOL    HW255172   2.016   0.830   9.550 -0.8942  0.3881 -2.0411
15978SOL     OW55173   6.161   8.030   7.726 -0.1933  0.1784 -0.0634
15978SOL    HW155174   6.205   8.114   7.742 -2.2355  1.1455  0.9317
15978SOL    HW255175   6.193   8.002   7.641  0.4901  2.0346 -0.4612
15979SOL     OW55176   4.239   9.317   8.240  0.0813 -0.0956  0.8804
15979SOL    HW155177   4.226   9.372   8.162  1.5794 -2.2518 -1.0501
15979SOL    HW255178   4.316   9.353   8.283 -0.5899  0.9509  1.2362
15980SOL     OW55179   3.690   2.055   9.358  0.1812 -0.4468 -0.5334
15980SOL    HW155180   3.784   2.046   9.373  0.7815  0.6220 -3.1493
15980SOL    HW255181   3.650   2.039   9.444  2.9179  1.8332  1.3487
15981SOL     OW55182   2.886  11.486   9.537 -0.2397  0.0721 -0.5747
15981SOL    HW155183   2.870  11.505   9.444  0.8038 -0.7854 -0.9592
15981SOL    HW255184   2.836  11.407   9.554 -2.8217  1.8054  0.4336
15982SOL     OW55185   1.320   3.293   2.902  0.2982 -0.8447 -0.2726
15982SOL    HW155186   1.408   3.308   2.938  0.4089  0.0296 -0.8795
15982SOL    HW255187   1.314   3.353   2.828 -1.5058  0.5635  0.8971
15983SOL     OW55188   9.378   3.169   8.690 -0.3388 -0.2980  0.3552
15983SOL    HW155189   9.334   3.085   8.704  0.8814 -1.1031 -0.3939
15983SOL    HW255190   9.439   3.176   8.764 -1.8821  0.9775  1.5854
15984SOL     OW55191   3.827  12.533   5.715 -0.1325 -0.1207 -0.2287
15984SOL    HW155192   3.756  12.475   5.743 -1.9227  2.0760  0.1128
15984SOL    HW255193   3.854  12.499   5.629 -1.1261 -1.3881 -0.0710
15985SOL     OW55194  12.298  12.377  11.143 -0.0612 -0.2904 -0.2298
15985SOL    HW155195  12.253  12.453  11.108 -2.6428 -2.2688 -1.6010
15985SOL    HW255196  12.248  12.353  11.221 -1.2463 -2.2190 -1.4778
15986SOL     OW55197   6.831  11.771   6.685 -0.0786 -0.4202 -0.2390
15986SOL    HW155198   6.891  11.788   6.613  0.1357  1.2604  0.2944
15986SOL    HW255199   6.829  11.675   6.693  2.6712 -0.5613 -0.1747
15987SOL     OW55200   3.484   2.579   8.157 -0.2669 -0.2425  0.5102
15987SOL    HW155201   3.409   2.539   8.113 -0.6211  0.9828 -0.0347
15987SOL    HW255202   3.560   2.532   8.123 -0.6756 -0.5140 -0.0435
15988SOL     OW55203  10.341   2.786   2.954  0.2237  0.0572  0.1933
15988SOL    HW155204  10.264   2.784   3.010  1.5116  0.0223  2.0578
15988SOL    HW255205  10.308   2.764   2.867 -1.9832  0.8908  0.7499
15989SOL     OW55206   9.752   9.786   2.508 -0.5246  0.1953  0.3117
15989SOL    HW155207   9.702   9.722   2.457 -0.4020  0.8161 -0.6229
15989SOL    HW255208   9.718   9.778   2.597 -1.8937  0.2031 -0.1794
15990SOL     OW55209   4.436  11.447   4.224  0.6297 -0.4997  0.2914
15990SOL    HW155210   4.446  11.353   4.240 -1.7671 -0.7201  0.8848
15990SOL    HW255211   4.370  11.476   4.287  0.8429  1.4689 -0.3005
15991SOL     OW55212   6.460  10.640   1.927  0.0068 -0.2575 -0.2533
15991SOL    HW155213   6.393  10.572   1.929  0.3572 -0.6253  2.3354
15991SOL    HW255214   6.541  10.594   1.905  0.0698 -0.5114  0.5003
15992SOL     OW55215  10.934   5.478  11.504 -0.0324 -0.0082 -0.2229
15992SOL    HW155216  10.892   5.561  11.526 -0.1299 -0.3678  1.0505
15992SOL    HW255217  10.974   5.449  11.586 -0.6685 -1.5981 -0.4455
15993SOL     OW55218   3.178  11.551   6.666 -0.4630  0.7787 -0.4097
15993SOL    HW155219   3.101  11.535   6.721 -0.9815  1.1183 -1.0278
15993SOL    HW255220   3.244  11.583   6.727 -1.4369  2.4081 -0.1455
15994SOL     OW55221   2.656  10.729  11.489  0.7179  0.0583  0.1361
15994SOL    HW155222   2.638  10.693  11.402  3.0326 -0.6257 -0.1324
15994SOL    HW255223   2.576  10.777  11.513 -0.3149 -0.5265 -1.9444
15995SOL     OW55224   4.777   2.010  11.333  0.7172 -0.2987 -0.3603
15995SOL    HW155225   4.773   2.061  11.252 -0.0636 -1.5394 -1.1324
15995SOL    HW255226   4.698   1.956  11.331 -0.6992  1.4205  2.4889
15996SOL     OW55227   7.176   8.460   1.543  0.4872 -0.4326 -0.0520
15996SOL    HW155228   7.224   8.390   1.587 -1.5569 -0.4774  2.3551
15996SOL    HW255229   7.087   8.426   1.533  0.0230  0.9649 -0.9599
15997SOL     OW55230   6.226  12.482   5.581  0.1966  0.3465 -0.1231
15997SOL    HW155231   6.179  12.559   5.550  0.2310  1.0051  1.3609
15997SOL    HW255232   6.265  12.444   5.503 -0.5939  1.3058 -1.0080
15998SOL     OW55233   9.346   4.986  11.845 -0.6197  0.0164 -0.2824
15998SOL    HW155234   9.357   4.907  11.898 -0.9402  0.7361  0.9006
15998SOL    HW255235   9.421   5.041  11.867 -1.2627  0.7347  0.2059
15999SOL     OW55236   3.372   6.019   8.229  0.0385  0.1452  0.3420
15999SOL    HW155237   3.279   6.027   8.210  0.2172  1.9734  0.0678
15999SOL    HW255238   3.408   5.974   8.152 -0.5218  0.0275  0.1462
16000SOL     OW55239   2.938   9.059  12.130  0.4497  0.5633  0.1309
16000SOL    HW155240   2.989   9.019  12.201 -0.5001 -1.3846 -0.2137
16000SOL    HW255241   2.917   9.146  12.162 -0.2021 -0.3453  2.4173
16001SOL     OW55242   3.731   0.194   1.574  0.4297 -0.2505 -0.1766
16001SOL    HW155243   3.773   0.273   1.609 -0.9197  0.9241 -1.0595
16001SOL    HW255244   3.662   0.173   1.638 -1.2386  1.1790 -1.3993
16002SOL     OW55245   4.646  11.505   4.675  0.6169 -0.0092  0.3470
16002SOL    HW155246   4.654  11.490   4.581  2.6144  1.8968  0.1316
16002SOL    HW255247   4.716  11.452   4.714  0.3173 -0.1540  0.6968
16003SOL     OW55248   3.331   2.786   5.942  0.0613 -0.3129 -0.1497
16003SOL    HW155249   3.404   2.777   6.003 -1.1752  0.7006  1.5569
16003SOL    HW255250   3.321   2.880   5.930 -1.3509 -0.4032  0.1456
16004SOL     OW55251   6.897   2.303   7.467  0.0285 -0.0925 -0.1911
16004SOL    HW155252   6.883   2.396   7.446  1.8181  0.0202 -1.0364
16004SOL    HW255253   6.823   2.258   7.428  0.5384  0.7150 -2.1977
16005SOL     OW55254   3.903  12.499   9.783  1.0440 -0.4779  0.1922
16005SOL    HW155255   3.941  12.437   9.845 -0.1721 -1.2064  0.2411
16005SOL    HW255256   3.948  12.480   9.700  1.2906 -0.8326  0.4037
16006SOL     OW55257   6.775   5.627  11.498 -0.0790 -0.2218 -0.2004
16006SOL    HW155258   6.833   5.608  11.572 -0.5753 -0.2222  0.2020
16006SOL    HW255259   6.731   5.709  11.523  1.0634  0.7519 -1.3163
16007SOL     OW55260   5.129   0.139   1.888  0.3062 -0.2790  0.3508
16007SOL    HW155261   5.046   0.135   1.842  1.0102  0.3355 -1.0433
16007SOL    HW255262   5.139   0.053   1.928 -1.5736  0.0378  1.6577
16008SOL     OW55263  11.610   2.565   4.650  0.4613 -0.2755  0.1093
16008SOL    HW155264  11.695   2.526   4.630  0.4577 -0.4922  0.5055
16008SOL    HW255265  11.574   2.589   4.564  1.7175  1.5534  0.0312
16009SOL     OW55266   7.417   7.656   3.002 -0.2545  0.3172  0.5104
16009SOL    HW155267   7.506   7.651   3.036 -0.4820 -2.7471  0.9618
16009SOL    HW255268   7.361   7.639   3.078 -1.1472  0.5289 -0.0787
16010SOL     OW55269   6.469  11.393   0.586  0.3689 -0.2037  0.1721
16010SOL    HW155270   6.529  11.356   0.651  0.6294  0.4884  0.3354
16010SOL    HW255271   6.468  11.487   0.605 -0.2832 -0.1239 -0.2297
16011SOL     OW55272   1.042   2.188   2.874 -0.0491  0.2049 -0.3770
16011SOL    HW155273   1.103   2.124   2.838 -1.2133 -1.9248  1.1827
16011SOL    HW255274   1.097   2.259   2.906  1.4409 -0.7510 -0.7553
16012SOL     OW55275   1.448   2.953  10.416  0.0776  0.3480  0.5906
16012SOL    HW155276   1.389   2.900  10.363  0.4798 -0.4518  0.9219
16012SOL    HW255277   1.395   3.028  10.442 -0.8794 -0.4615  1.0774
16013SOL     OW55278  10.691  12.016   7.272 -0.1169 -0.4225  0.1217
16013SOL    HW155279  10.700  12.104   7.311 -0.1346 -0.5621  0.4442
16013SOL    HW255280  10.777  11.976   7.285  0.5920  0.3029 -1.9253
16014SOL     OW55281   8.496  12.067   0.713  0.6592  0.6949  0.1454
16014SOL    HW155282   8.554  12.136   0.746  0.0740  1.4308 -0.3151
16014SOL    HW255283   8.408  12.098   0.736  0.4686 -1.0460  2.0574
16015SOL     OW55284  12.068   9.402   7.794 -0.3494  0.3889  0.2009
16015SOL    HW155285  12.083   9.332   7.730  1.2020  0.3971  0.5398
16015SOL    HW255286  12.035   9.475   7.741  2.3746  0.9296 -0.9237
16016SOL     OW55287   8.426   5.876   9.501  0.1902 -0.2182  0.2387
16016SOL    HW155288   8.339   5.889   9.537  0.4078 -0.4449  0.8528
16016SOL    HW255289   8.424   5.922   9.417 -0.0871  0.9828  0.8740
16017SOL     OW55290  11.701   5.210   3.886 -0.6649 -0.1394 -0.1647
16017SOL    HW155291  11.640   5.153   3.932 -1.4548  1.1740  0.4710
16017SOL    HW255292  11.743   5.153   3.821 -1.0314 -1.5447  0.7842
16018SOL     OW55293  11.146   5.152   8.747  0.3686 -0.0719 -0.2446
16018SOL    HW155294  11.210   5.221   8.731  1.3296 -1.2112 -1.6463
16018SOL    HW255295  11.063   5.189   8.717  0.7808  0.6486 -0.5353
16019SOL     OW55296   7.393   7.174   6.493 -0.3468  0.1898 -0.0856
16019SOL    HW155297   7.454   7.192   6.420 -0.6664  2.1959  0.0762
16019SOL    HW255298   7.365   7.261   6.521 -1.5215 -0.6329  1.3608
16020SOL     OW55299   8.591   4.016  10.089  0.0950  0.3998  0.0129
16020SOL    HW155300   8.537   4.082  10.046 -1.7607  0.1083  1.7574
16020SOL    HW255301   8.555   4.009  10.177  1.2854 -1.7710  0.4016
16021SOL     OW55302   9.967  11.066   2.797  0.3961 -0.6155  0.3635
16021SOL    HW155303  10.062  11.050   2.796  0.8048  1.5416 -0.8648
16021SOL    HW255304   9.955  11.141   2.855 -0.0110  1.5474 -2.2976
16022SOL     OW55305   9.391  11.345   3.011  0.0132 -0.0039 -0.0562
16022SOL    HW155306   9.394  11.434   3.047  3.0881  0.6643 -1.5918
16022SOL    HW255307   9.356  11.357   2.922  0.2018 -0.3657 -0.1815
16023SOL     OW55308   4.502   7.283  12.700  0.7329  0.0257  0.3950
16023SOL    HW155309   4.426   7.307  12.753  0.0669 -1.8314  0.3710
16023SOL    HW255310   4.549   7.365  12.686 -1.9567  1.5292 -0.7114
16024SOL     OW55311  10.695  10.012   8.959  0.4745  0.0429 -0.0447
16024SOL    HW155312  10.718   9.983   8.871  0.7759 -1.7834  0.5913
16024SOL    HW255313  10.773   9.993   9.012  0.1861  0.8164  0.6892
16025SOL     OW55314  11.754   2.663  11.218 -0.4832  0.3212 -0.0686
16025SOL    HW155315  11.668   2.625  11.201 -0.4829  0.0953  0.4025
16025SOL    HW255316  11.764   2.731  11.152 -0.5727 -0.3635 -0.8033
16026SOL     OW55317   6.679   9.543   7.613  0.4613 -0.3175 -0.1482
16026SOL    HW155318   6.599   9.561   7.563  0.4534 -2.0872 -0.8506
16026SOL    HW255319   6.720   9.629   7.624 -1.8885  0.7623  0.9315
16027SOL     OW55320  11.115   4.120   9.728 -0.3317 -0.0826 -0.1860
16027SOL    HW155321  11.113   4.040   9.780 -0.6211 -1.0428 -1.6142
16027SOL    HW255322  11.036   4.167   9.753 -1.1053 -1.1179 -0.6235
16028SOL     OW55323   8.174   9.616   4.224 -0.1127  0.3644  0.1928
16028SOL    HW155324   8.177   9.705   4.191 -1.3818  0.2490 -0.2765
16028SOL    HW255325   8.092   9.610   4.272 -1.3584 -1.2399 -1.9242
16029SOL     OW55326  10.740   1.582   1.730 -0.1215 -0.6706  0.3709
16029SOL    HW155327  10.702   1.612   1.647 -1.4542 -0.5585  1.0087
16029SOL    HW255328  10.834   1.578   1.712 -0.5382 -2.8242 -1.8561
16030SOL     OW55329   8.055   2.432  11.483 -0.9683  0.0783  0.2970
16030SOL    HW155330   8.120   2.471  11.425  0.0250 -1.1807  0.5234
16030SOL    HW255331   8.027   2.505  11.539 -0.8833  0.9752 -0.7967
16031SOL     OW55332   7.237   7.292  10.905  0.2119 -0.3151  0.4422
16031SOL    HW155333   7.294   7.367  10.889 -0.7207  0.0240 -1.6627
16031SOL    HW255334   7.294   7.216  10.899  0.6350  0.0712 -0.7836
16032SOL     OW55335   6.500   3.780  12.578 -0.3252  0.3269  0.1424
16032SOL    HW155336   6.564   3.840  12.540  0.6348 -1.0749 -0.5779
16032SOL    HW255337   6.415   3.816  12.554  0.2225  1.4680 -0.1216
16033SOL     OW55338   5.329   3.686   7.284 -0.5202  0.0684  0.1933
16033SOL    HW155339   5.237   3.666   7.297 -0.2617 -0.4768  1.3562
16033SOL    HW255340   5.376   3.618   7.333  0.5135 -0.0413 -0.8956
16034SOL     OW55341   3.152   9.265   3.745  0.4235  0.2222  0.4195
16034SOL    HW155342   3.237   9.265   3.701  1.8449  0.8721  2.9625
16034SOL    HW255343   3.110   9.184   3.715  0.8022  1.0494 -2.7830
16035SOL     OW55344  11.351   8.364   0.881 -0.3193  0.2650  0.1829
16035SOL    HW155345  11.268   8.316   0.886 -0.0611 -0.0720  2.1536
16035SOL    HW255346  11.417   8.301   0.910  0.2101  1.3515  1.4936
16036SOL     OW55347   6.417   2.572   6.411  0.7563 -0.0340 -0.4983
16036SOL    HW155348   6.468   2.560   6.491  2.5764  0.4096 -1.5251
16036SOL    HW255349   6.431   2.491   6.361  0.8105  0.2738 -0.9855
16037SOL     OW55350   3.301   8.080   6.718 -0.4115  0.0141 -0.3242
16037SOL    HW155351   3.321   7.990   6.695 -0.6287  0.2003 -1.2929
16037SOL    HW255352   3.229   8.104   6.659 -0.0059  0.9806 -0.4412
16038SOL     OW55353   8.268   2.090   8.218  0.1863 -0.2976  0.1320
16038SOL    HW155354   8.257   2.051   8.304  0.1769  0.8090  0.6487
16038SOL    HW255355   8.312   2.174   8.234  1.7392 -0.8196 -1.0949
16039SOL     OW55356  10.294   2.939  10.564  0.2008  0.2565  0.2587
16039SOL    HW155357  10.346   2.859  10.554 -0.6854 -0.1278 -1.8877
16039SOL    HW255358  10.348   3.007  10.524 -0.4251  0.0634 -0.9639
16040SOL     OW55359   7.271   9.306   1.975 -0.2151  0.1447  0.0184
16040SOL    HW155360   7.252   9.306   2.069 -0.8596 -0.1816 -0.1036
16040SOL    HW255361   7.196   9.350   1.936 -0.6777 -1.0564 -0.4701
16041SOL     OW55362   5.085   0.510   1.127  0.4647  0.9799  0.5125
16041SOL    HW155363   5.033   0.578   1.170 -0.3688 -0.1299  1.3591
16041SOL    HW255364   5.026   0.474   1.061 -0.7692 -1.6609  2.8040
16042SOL     OW55365   9.854   4.513   1.129  0.1141 -0.0738  0.1209
16042SOL    HW155366   9.826   4.537   1.041  1.8151 -1.6712 -0.9070
16042SOL    HW255367   9.924   4.575   1.150 -0.2368  0.2562  0.3254
16043SOL     OW55368   0.906   2.212   2.644  0.1724 -0.4512  0.3172
16043SOL    HW155369   0.928   2.129   2.602 -1.7476 -1.4445  1.1708
16043SOL    HW255370   0.933   2.202   2.735 -0.1808 -0.1927  0.4547
16044SOL     OW55371   5.050   3.844  10.761 -0.1175 -0.3819  0.1016
16044SOL    HW155372   5.056   3.749  10.771 -3.1360 -0.8044 -0.9803
16044SOL    HW255373   5.080   3.879  10.844  3.8852 -2.0226 -0.4074
16045SOL     OW55374   4.715   2.703   8.991  0.2924 -0.0232 -0.6111
16045SOL    HW155375   4.634   2.724   8.945 -1.0243  1.0485  1.9957
16045SOL    HW255376   4.687   2.657   9.070  1.8740  2.5163  1.6358
16046SOL     OW55377   4.398   4.804   3.642 -0.6239 -0.1630  0.0457
16046SOL    HW155378   4.356   4.733   3.593 -1.9556  1.0714 -0.6747
16046SOL    HW255379   4.402   4.876   3.580  3.9663 -0.5480 -0.4680
16047SOL     OW55380   5.200   5.616   8.195 -0.5204 -0.1447 -0.2232
16047SOL    HW155381   5.194   5.624   8.099 -1.0405 -0.9863 -0.2728
16047SOL    HW255382   5.111   5.594   8.222 -0.9113  2.3016  0.7174
16048SOL     OW55383   6.573   9.089   0.284  0.0402 -0.3062 -0.4187
16048SOL    HW155384   6.506   9.157   0.278  0.0529 -0.0649  1.4799
16048SOL    HW255385   6.647   9.132   0.327  0.9638 -0.9033 -1.3689
16049SOL     OW55386  10.997   3.011   4.487  0.0726  0.1917 -0.3088
16049SOL    HW155387  10.906   3.002   4.517  0.1401 -0.6606 -0.3582
16049SOL    HW255388  11.047   2.952   4.543  0.6562  0.9052 -0.0582
16050SOL     OW55389   6.007  11.166   5.985 -0.2523  0.0088  0.0317
16050SOL    HW155390   6.088  11.117   5.991 -0.2326 -0.2188 -1.5476
16050SOL    HW255391   5.943  11.104   5.949 -0.6284  0.6853 -0.5102
16051SOL     OW55392   7.485   8.533   9.921 -0.1723  0.2354 -0.1514
16051SOL    HW155393   7.506   8.451   9.965 -0.3525  0.0253 -0.4578
16051SOL    HW255394   7.444   8.586   9.990 -0.9154 -0.2806 -0.1806
16052SOL     OW55395   6.720   7.104   4.917 -0.2485 -0.1574  0.0808
16052SOL    HW155396   6.777   7.048   4.969 -2.2879  0.9230  3.8124
16052SOL    HW255397   6.763   7.189   4.916 -1.1473  0.3552  1.8935
16053SOL     OW55398   0.812   6.756   0.982 -0.1384  0.6231  0.4273
16053SOL    HW155399   0.865   6.709   1.047 -0.3981 -0.0137  0.1903
16053SOL    HW255400   0.862   6.835   0.962  0.6738  0.0863  0.2796
16054SOL     OW55401  11.048   9.067   7.361  0.4258  0.4116  0.3155
16054SOL    HW155402  10.983   9.135   7.377  1.2064  1.2066  0.1990
16054SOL    HW255403  11.018   9.022   7.283 -0.1551  0.5585  0.4522
16055SOL     OW55404   5.587   1.418   8.383 -0.2711  0.5005  0.4306
16055SOL    HW155405   5.605   1.342   8.328 -0.4980  0.9407 -0.2648
16055SOL    HW255406   5.547   1.482   8.324 -1.6235  0.5552  1.3646
16056SOL     OW55407   9.798   4.863   7.424 -0.4979  0.7196  0.0022
16056SOL    HW155408   9.782   4.938   7.481 -1.3538 -0.9500  2.1109
16056SOL    HW255409   9.834   4.900   7.344 -1.3014  3.3840  0.7924
16057SOL     OW55410   5.933   8.903   0.434  0.2143  0.2296  0.2173
16057SOL    HW155411   6.011   8.904   0.489  0.7904  2.3762 -0.5779
16057SOL    HW255412   5.870   8.958   0.481  0.0489  0.5290 -0.3522
16058SOL     OW55413   0.214   7.468   1.803  0.2480  0.0062  0.0115
16058SOL    HW155414   0.262   7.550   1.813 -0.2005  0.2071  0.6055
16058SOL    HW255415   0.228   7.422   1.887  1.0633 -0.8422 -0.5641
16059SOL     OW55416   4.117   4.105   8.541 -0.4090  0.0322  0.3977
16059SOL    HW155417   4.087   4.108   8.632  1.0970 -0.3652  0.9481
16059SOL    HW255418   4.075   4.180   8.498  0.7350  1.6907  2.0395
16060SOL     OW55419   8.387  10.968  10.944 -0.1273  0.1568 -0.4709
16060SOL    HW155420   8.430  11.026  10.882 -0.6031  1.3111  0.2349
16060SOL    HW255421   8.305  11.013  10.967 -0.3463 -0.6186  0.3664
16061SOL     OW55422  10.766   2.559   6.438 -0.0226  0.0777 -0.0567
16061SOL    HW155423  10.748   2.590   6.349 -2.0361 -0.0153  0.2864
16061SOL    HW255424  10.835   2.493   6.427  1.3685  1.6495 -1.2577
16062SOL     OW55425   5.837   8.190   5.682  0.6007 -0.6951 -0.0351
16062SOL    HW155426   5.885   8.253   5.629  1.8214 -1.6348 -0.1043
16062SOL    HW255427   5.905   8.134   5.720 -0.3845 -1.4009  0.7458
16063SOL     OW55428   4.687   6.464   0.191 -0.8736  0.0950  0.2696
16063SOL    HW155429   4.609   6.492   0.143 -0.0233  0.4878 -0.9230
16063SOL    HW255430   4.684   6.514   0.273 -1.7448  0.2710  0.1428
16064SOL     OW55431   8.839   8.517   0.256  1.1534 -0.4928  0.3627
16064SOL    HW155432   8.897   8.583   0.219 -0.1022  0.0943 -0.6496
16064SOL    HW255433   8.819   8.459   0.182 -1.1860  0.5379  0.1075
16065SOL     OW55434   7.595   9.638   4.486 -0.1334 -0.0342 -0.6160
16065SOL    HW155435   7.608   9.696   4.561 -1.5357 -0.9207  0.3477
16065SOL    HW255436   7.641   9.682   4.414  0.3560  1.3586  0.5002
16066SOL     OW55437   1.087   4.623   1.794  0.1631 -0.2885  0.1678
16066SOL    HW155438   0.996   4.608   1.819 -0.6864 -1.6972 -3.1371
16066SOL    HW255439   1.129   4.538   1.806  0.5118 -0.1658 -0.1699
16067SOL     OW55440  11.624   2.463   5.683  0.3381 -0.5529 -0.3071
16067SOL    HW155441  11.628   2.478   5.588  0.0370 -0.3466 -0.2891
16067SOL    HW255442  11.688   2.524   5.720 -0.8376  0.6834 -0.2388
16068SOL     OW55443  10.913   9.727  12.098  0.3277  0.2802 -0.1354
16068SOL    HW155444  10.878   9.788  12.162 -1.5148 -2.1252  1.3236
16068SOL    HW255445  10.843   9.664  12.084  2.1681 -1.6355 -1.3679
16069SOL     OW55446   1.020  11.489   6.755 -0.9565  0.0877  0.0660
16069SOL    HW155447   1.016  11.545   6.833  2.2560 -0.9577  1.1473
16069SOL    HW255448   0.965  11.414   6.777  0.1122 -0.3248  1.5169
16070SOL     OW55449  10.760   0.464   0.390  0.1886 -0.2844 -0.3905
16070SOL    HW155450  10.741   0.377   0.354 -0.1024 -0.5137  0.3071
16070SOL    HW255451  10.779   0.518   0.313 -0.8266 -0.6673 -0.9312
16071SOL     OW55452  12.123   9.221   4.841 -0.4599  0.3104  0.0780
16071SOL    HW155453  12.042   9.241   4.886 -0.4785 -1.3086  0.8207
16071SOL    HW255454  12.189   9.277   4.883 -0.8050  0.1086  0.9023
16072SOL     OW55455  12.019   8.441   4.393  0.2639 -0.1926 -0.3575
16072SOL    HW155456  12.107   8.473   4.374  1.0894 -2.7076 -1.2520
16072SOL    HW255457  11.983   8.417   4.307 -1.0191  0.0860  0.0730
16073SOL     OW55458   6.374   8.339   1.395 -0.1881  0.4062 -0.5456
16073SOL    HW155459   6.388   8.365   1.304  1.1487  1.5569 -0.0464
16073SOL    HW255460   6.435   8.267   1.409  0.3655  0.9208 -0.2776
16074SOL     OW55461   5.022  10.478   5.280  0.5005 -0.0019  0.2735
16074SOL    HW155462   5.109  10.442   5.267  0.0835 -0.7978 -0.4198
16074SOL    HW255463   4.965  10.402   5.287 -0.2353  0.5052 -0.0004
16075SOL     OW55464  10.163   5.952   5.762 -0.1069 -0.5655 -0.7465
16075SOL    HW155465  10.090   5.892   5.745  0.0236 -0.4693 -1.7078
16075SOL    HW255466  10.212   5.912   5.834 -0.6090 -1.0746 -0.6837
16076SOL     OW55467  10.917   9.448   0.909 -0.0433  0.3955 -0.2896
16076SOL    HW155468  10.976   9.517   0.939 -0.3522  1.4217 -1.9593
16076SOL    HW255469  10.879   9.481   0.828 -1.7598 -0.8962 -0.0770
16077SOL     OW55470   2.375   6.997   0.224 -0.0180  0.3126  0.0676
16077SOL    HW155471   2.348   6.950   0.302  0.0025  1.8909  1.0626
16077SOL    HW255472   2.468   6.976   0.215 -0.1446 -0.3024  0.1440
16078SOL     OW55473   8.268   1.712  10.425 -0.6362  0.3459  0.0485
16078SOL    HW155474   8.339   1.667  10.471 -1.5237 -0.8272  0.3264
16078SOL    HW255475   8.308   1.792  10.391  1.9154 -2.0661 -3.2215
16079SOL     OW55476   4.018   3.887   7.099 -0.1225  0.0975  0.1533
16079SOL    HW155477   4.105   3.908   7.134  0.6078 -2.2637 -0.0750
16079SOL    HW255478   4.033   3.814   7.039 -2.3462 -1.0044  0.8078
16080SOL     OW55479   0.767   7.476   8.853 -0.0883 -0.2218  0.1456
16080SOL    HW155480   0.763   7.572   8.848 -3.0924 -0.2932 -1.6235
16080SOL    HW255481   0.677   7.448   8.836  0.7160 -3.3902  0.5344
16081SOL     OW55482   5.430   9.236  11.921 -0.2803  1.0158  0.4049
16081SOL    HW155483   5.515   9.275  11.901  0.8534 -0.9139  1.1752
16081SOL    HW255484   5.423   9.162  11.862  0.2564 -0.9597  2.6636
16082SOL     OW55485   7.071   8.940   4.814  0.1858  0.2335  0.0680
16082SOL    HW155486   7.047   8.940   4.907  1.5383  1.0643  0.4447
16082SOL    HW255487   7.115   8.856   4.800  0.6979  0.4427  0.3909
16083SOL     OW55488   3.924   9.125  11.097 -0.3167 -0.5975 -0.0591
16083SOL    HW155489   3.917   9.040  11.142 -1.4697 -1.3856 -1.6172
16083SOL    HW255490   4.013   9.126  11.062 -0.1531 -0.9587  0.3297
16084SOL     OW55491   7.800   7.326   9.496  0.5591 -0.1867  0.2063
16084SOL    HW155492   7.740   7.264   9.540 -1.1589  0.4976 -1.0690
16084SOL    HW255493   7.767   7.412   9.521  1.2965  0.2133 -0.1915
16085SOL     OW55494   4.819   9.207   4.999  0.2091 -0.6136  0.0425
16085SOL    HW155495   4.810   9.292   5.042  2.3323 -0.1403 -0.3567
16085SOL    HW255496   4.780   9.219   4.913 -3.0846 -1.2585  1.2865
16086SOL     OW55497   8.291   8.331   0.380 -0.1419 -0.3032 -0.0981
16086SOL    HW155498   8.200   8.322   0.354  0.0799 -1.3561 -0.5749
16086SOL    HW255499   8.290   8.321   0.475 -0.5678  0.1259 -0.0554
16087SOL     OW55500   9.010   5.025   4.560 -0.2642  0.2357 -0.1465
16087SOL    HW155501   9.014   5.012   4.655  0.0324  0.6942 -0.0896
16087SOL    HW255502   9.071   5.097   4.544 -0.0397 -0.0806 -0.7313
16088SOL     OW55503  10.418  12.026  12.235 -0.0899 -0.0811 -0.2335
16088SOL    HW155504  10.449  11.965  12.168  1.6914  0.4891  0.0367
16088SOL    HW255505  10.380  12.099  12.184 -0.1810 -0.3659 -0.5814
16089SOL     OW55506  10.048   1.493   0.548  0.0263  0.6209 -0.7068
16089SOL    HW155507  10.085   1.408   0.526  0.1675  0.6910 -0.7451
16089SOL    HW255508   9.957   1.489   0.517 -0.5983 -0.2295  1.0607
16090SOL     OW55509   6.775   0.474   4.887  0.3028  0.3507 -0.2948
16090SOL    HW155510   6.869   0.455   4.895  0.4082  0.7335 -0.5393
16090SOL    HW255511   6.751   0.440   4.801  0.5613  1.5439 -0.8623
16091SOL     OW55512  10.014  11.182   1.634  0.2709 -0.0095 -0.0697
16091SOL    HW155513  10.064  11.263   1.642  0.6390 -0.0750 -1.4755
16091SOL    HW255514  10.040  11.146   1.549 -0.2722 -1.3391  0.2980
16092SOL     OW55515   3.029   5.278   4.324  0.8285  0.1767 -0.4060
16092SOL    HW155516   2.966   5.318   4.264  0.2516  2.3727  1.5321
16092SOL    HW255517   3.108   5.331   4.316  1.7267 -1.1954 -1.1564
16093SOL     OW55518   5.028  11.015   0.964 -0.4994 -0.0574 -0.6069
16093SOL    HW155519   5.059  10.999   1.053  1.1122 -1.1092 -1.3119
16093SOL    HW255520   5.094  11.072   0.925 -1.4626  0.8324 -1.0093
16094SOL     OW55521  12.199   9.103   6.517  0.2721 -0.8849  0.4606
16094SOL    HW155522  12.254   9.181   6.525 -0.5156 -0.1926 -0.5951
16094SOL    HW255523  12.217   9.070   6.429  0.8225 -2.0853  1.0044
16095SOL     OW55524   0.728   1.757   7.725  0.2820 -0.3414 -0.3340
16095SOL    HW155525   0.727   1.698   7.800  0.0153  1.7405  1.3681
16095SOL    HW255526   0.816   1.794   7.724 -0.5947  2.0008  0.9739
16096SOL     OW55527  10.412   5.515   9.051 -0.1520 -0.4813  0.3423
16096SOL    HW155528  10.369   5.546   9.131 -0.3908  1.1809 -0.3943
16096SOL    HW255529  10.343   5.472   9.001 -0.5445  0.5444 -0.0063
16097SOL     OW55530  10.384   7.326  10.201  0.5036  0.2589 -0.5990
16097SOL    HW155531  10.402   7.337  10.295  1.6778 -1.2053 -0.6223
16097SOL    HW255532  10.300   7.280  10.198  0.2400  0.7025 -0.3011
16098SOL     OW55533   3.078   3.046   8.777  0.4915 -0.1391  0.2911
16098SOL    HW155534   3.016   2.973   8.779  0.2018  0.0815 -0.4581
16098SOL    HW255535   3.070   3.082   8.689  0.9015  0.5689  0.5368
16099SOL     OW55536   2.068   7.172   7.230 -0.3696 -0.4084  0.3230
16099SOL    HW155537   2.151   7.217   7.246 -0.6168 -0.0785  0.7245
16099SOL    HW255538   2.044   7.196   7.141 -0.3895  0.0829  0.4591
16100SOL     OW55539   4.360  12.502  12.408  0.0337  0.4462  0.6140
16100SOL    HW155540   4.438  12.509  12.462  0.3294 -1.7176  0.5486
16100SOL    HW255541   4.305  12.438  12.453 -0.9892  0.7517 -0.1594
16101SOL     OW55542   6.043  12.012   5.443  0.1063  0.0710 -0.0919
16101SOL    HW155543   5.955  12.010   5.481 -0.0107  0.1712 -0.3575
16101SOL    HW255544   6.067  11.920   5.432  0.9356 -0.0441  2.0367
16102SOL     OW55545   8.994  12.636   5.262  0.2437 -0.1440  0.2860
16102SOL    HW155546   9.063  12.630   5.195  0.2853  0.2307  0.2937
16102SOL    HW255547   8.936  12.562   5.243 -1.9759  2.0947 -2.6504
16103SOL     OW55548  12.591   4.027   6.946  0.0755  0.0377  0.1811
16103SOL    HW155549  12.683   4.042   6.922 -0.6220  0.2224 -2.7118
16103SOL    HW255550  12.559   4.113   6.973  0.4493  0.2406 -0.0126
16104SOL     OW55551   2.878  10.743   9.057 -0.8776  0.1007 -0.2866
16104SOL    HW155552   2.945  10.808   9.076 -0.6616  0.0808 -0.9597
16104SOL    HW255553   2.802  10.793   9.029 -1.4612  0.1726  1.3487
16105SOL     OW55554  11.075   2.980   3.462  0.2356  0.2979 -0.3362
16105SOL    HW155555  11.019   2.903   3.464 -0.1649  0.5948  0.6674
16105SOL    HW255556  11.015   3.054   3.468  0.5554  0.7481 -2.0838
16106SOL     OW55557   4.003   5.909   5.622 -0.5723  0.1957  0.3410
16106SOL    HW155558   4.073   5.844   5.619  1.1887  1.9158  1.6814
16106SOL    HW255559   3.989   5.934   5.531  1.4704  0.7080  0.1256
16107SOL     OW55560   2.087   7.409   2.955  0.8792  0.0930 -0.1810
16107SOL    HW155561   2.040   7.443   2.878  0.9641 -1.8326 -1.1452
16107SOL    HW255562   2.148   7.345   2.919  1.4859 -0.2921  1.4488
16108SOL     OW55563   1.857  10.329  10.543 -0.3156  0.0497 -0.5811
16108SOL    HW155564   1.950  10.345  10.528 -0.7745  1.9584 -1.8939
16108SOL    HW255565   1.843  10.350  10.635  0.0837  2.7568 -1.0555
16109SOL     OW55566  11.993   2.394   0.752  0.0831 -0.2324 -0.0086
16109SOL    HW155567  12.074   2.354   0.721  0.7594  0.1575  1.1755
16109SOL    HW255568  11.986   2.476   0.704 -0.0846 -0.6920 -0.7705
16110SOL     OW55569   5.856   9.079  11.952 -0.2791  0.2271  0.3167
16110SOL    HW155570   5.882   9.168  11.928  2.2497 -0.6774 -0.6514
16110SOL    HW255571   5.853   9.079  12.047 -0.9093  1.4756  0.3176
16111SOL     OW55572   7.580  11.287  12.290  0.3046  0.6378  0.2412
16111SOL    HW155573   7.564  11.332  12.373 -0.9874  2.4541 -0.9303
16111SOL    HW255574   7.655  11.333  12.252  1.2776 -0.5777  0.6408
16112SOL     OW55575   3.155  12.282   6.869 -0.0788 -0.4241  0.0495
16112SOL    HW155576   3.158  12.198   6.824  0.0925  0.1075 -0.9466
16112SOL    HW255577   3.245  12.314   6.867 -0.3882  0.4315 -0.8437
16113SOL     OW55578   8.798  11.930   2.190  0.7238  0.3674 -0.3004
16113SOL    HW155579   8.738  11.884   2.248  1.3646  0.8917  0.8021
16113SOL    HW255580   8.746  12.002   2.154 -0.0126 -0.6408 -1.3171
16114SOL     OW55581   5.639  11.508  12.262 -0.2458  0.3575  0.0205
16114SOL    HW155582   5.546  11.503  12.282 -0.0926  0.5073  0.8029
16114SOL    HW255583   5.653  11.600  12.238 -0.2616  0.3758  0.0846
16115SOL     OW55584   1.542   9.000   6.347  0.3040 -0.4961  0.1407
16115SOL    HW155585   1.489   9.027   6.422 -0.1396  1.5560 -0.8338
16115SOL    HW255586   1.617   9.059   6.349  0.3110 -0.4583 -0.9878
16116SOL     OW55587  12.264   6.565   1.770  0.1870 -0.8277 -0.2060
16116SOL    HW155588  12.328   6.635   1.754 -2.0851  1.3638 -0.2275
16116SOL    HW255589  12.224   6.549   1.684  0.9308 -2.4998 -0.2848
16117SOL     OW55590   6.117   0.696   4.148  0.2198 -0.2512  0.2823
16117SOL    HW155591   6.176   0.737   4.212  0.0811 -0.4135  0.5161
16117SOL    HW255592   6.119   0.755   4.073  1.7059 -0.9027 -0.2509
16118SOL     OW55593   4.107   0.571  12.184  0.1199 -0.2123 -0.5432
16118SOL    HW155594   4.023   0.525  12.188  0.1756 -0.2498  2.0707
16118SOL    HW255595   4.114   0.614  12.269  3.6705 -1.8557  0.1665
16119SOL     OW55596   4.086  10.061   6.332  0.5925  0.1004 -0.2276
16119SOL    HW155597   4.020  10.090   6.269  1.6415  0.9610 -0.9571
16119SOL    HW255598   4.164  10.044   6.280  1.2821  0.1731  0.7522
16120SOL     OW55599   9.004  12.240   4.573  0.1103 -0.2718  0.3316
16120SOL    HW155600   8.920  12.196   4.563  0.5461 -0.8662 -1.0252
16120SOL    HW255601   9.056  12.181   4.628 -0.2443 -0.0541  0.9060
16121SOL     OW55602  11.297   1.918   9.489  0.2025  0.3748  0.5052
16121SOL    HW155603  11.271   1.997   9.441  0.9316  0.4947  0.3044
16121SOL    HW255604  11.363   1.876   9.434 -3.0989 -2.7054 -1.5686
16122SOL     OW55605   5.681   9.933   0.139 -0.0711  0.0094  0.0841
16122SOL    HW155606   5.703  10.026   0.133 -1.1997  0.4765  2.2614
16122SOL    HW255607   5.592   9.927   0.105  0.0873 -0.3280 -0.2798
16123SOL     OW55608  10.512   4.021   1.381  0.0566  0.2554 -0.0006
16123SOL    HW155609  10.568   3.962   1.430 -0.0133  0.0251 -0.1947
16123SOL    HW255610  10.423   3.998   1.408  0.0533  0.5967  0.2822
16124SOL     OW55611   4.446   6.653   0.193 -0.1820  0.4564 -0.7893
16124SOL    HW155612   4.368   6.676   0.243 -0.0386  1.3480 -0.9597
16124SOL    HW255613   4.491   6.736   0.179  1.4316 -0.2000  0.3326
16125SOL     OW55614   1.700   0.708  11.413  0.0373 -0.2596 -0.4951
16125SOL    HW155615   1.754   0.749  11.346  0.2637  1.0882  0.4546
16125SOL    HW255616   1.612   0.704  11.375  0.3174 -0.2482 -1.1532
16126SOL     OW55617   4.036   9.208   0.623 -0.6645  0.6048 -0.1371
16126SOL    HW155618   4.064   9.296   0.599 -1.1569  1.3706  1.8947
16126SOL    HW255619   4.118   9.160   0.636 -0.3832  1.0483 -0.2446
16127SOL     OW55620   9.474   3.626  11.775  0.2640 -0.1577  0.6687
16127SOL    HW155621   9.569   3.627  11.786  0.1719 -0.9007  1.7426
16127SOL    HW255622   9.454   3.707  11.727  1.5377 -0.5831 -0.6374
16128SOL     OW55623   9.279  11.107   5.960  0.1538 -0.6527  0.0883
16128SOL    HW155624   9.338  11.052   5.908 -2.2361 -1.0681 -2.3938
16128SOL    HW255625   9.329  11.188   5.974  1.4135 -1.0345 -1.7353
16129SOL     OW55626   9.074   8.461  11.646 -0.1296 -0.1100 -0.7611
16129SOL    HW155627   9.128   8.456  11.724 -0.6043  1.5358 -0.2923
16129SOL    HW255628   9.028   8.377  11.643 -1.9849  0.6465  2.1726
16130SOL     OW55629   7.977   7.304  11.773 -0.2144 -0.0996 -0.2876
16130SOL    HW155630   7.961   7.301  11.867 -2.0412  1.8570 -0.4516
16130SOL    HW255631   8.008   7.393  11.757 -1.4635  0.1168 -1.7044
16131SOL     OW55632   5.366   3.651   9.160 -0.1600  0.0250 -0.1751
16131SOL    HW155633   5.300   3.607   9.106 -1.2007  1.1360  0.1384
16131SOL    HW255634   5.374   3.738   9.119 -1.3146  1.0644  1.6708
16132SOL     OW55635   6.535   3.805  12.069 -0.1924  0.0015 -0.7744
16132SOL    HW155636   6.579   3.844  12.145  1.1852 -2.6053 -0.1227
16132SOL    HW255637   6.442   3.816  12.087  0.1246  0.3225  0.7941
16133SOL     OW55638   2.450   5.576  12.133 -0.3583 -0.1264 -0.3235
16133SOL    HW155639   2.531   5.530  12.156  0.6853  1.7968  0.0846
16133SOL    HW255640   2.465   5.608  12.044 -0.4664  0.6139 -0.0817
16134SOL     OW55641   3.309   4.967   0.400  0.6665 -0.7653 -0.1465
16134SOL    HW155642   3.245   5.006   0.340  0.6275 -0.5960  0.0039
16134SOL    HW255643   3.393   4.974   0.353  0.6745 -0.4131 -0.0812
16135SOL     OW55644   9.473  11.781   9.312 -0.1562 -0.4746 -0.3572
16135SOL    HW155645   9.428  11.697   9.319 -1.0028 -0.0937 -1.0499
16135SOL    HW255646   9.561  11.759   9.280 -0.5292 -1.0550 -1.0093
16136SOL     OW55647   3.665   1.569  11.280  0.5429  0.5998 -0.0219
16136SOL    HW155648   3.594   1.524  11.235  2.0069 -2.8985  0.7975
16136SOL    HW255649   3.626   1.598  11.363  0.3036 -3.0769  1.3529
16137SOL     OW55650   7.964  10.223  10.516  0.5144 -0.0615 -0.3937
16137SOL    HW155651   7.921  10.303  10.546  0.4608 -0.5038  0.7484
16137SOL    HW255652   7.916  10.152  10.559  2.2779 -0.5876  0.8269
16138SOL     OW55653   6.563   1.496   3.077  0.1230 -0.1724 -0.0212
16138SOL    HW155654   6.623   1.431   3.041 -0.2596 -0.3230 -0.3952
16138SOL    HW255655   6.499   1.445   3.126  1.0869  0.0770  1.5768
16139SOL     OW55656   9.309   0.394   0.272 -0.7946  0.2024  0.1105
16139SOL    HW155657   9.369   0.380   0.345  1.2454  2.3240 -1.0247
16139SOL    HW255658   9.264   0.476   0.293 -0.5889  0.5459 -0.7479
16140SOL     OW55659   5.264  12.068   6.419 -0.1935  0.3952  0.0811
16140SOL    HW155660   5.312  12.045   6.499  0.4397  1.8032  0.1537
16140SOL    HW255661   5.313  12.027   6.348  0.3212  0.6532  0.2808
16141SOL     OW55662   7.711   0.963   3.807  0.7109  0.2115  0.3910
16141SOL    HW155663   7.684   0.913   3.730  2.0266  1.7712 -1.1706
16141SOL    HW255664   7.630   0.997   3.844  0.1785  2.0017 -2.1875
16142SOL     OW55665  11.104   9.396   5.886 -0.1607  0.3321  0.5171
16142SOL    HW155666  11.169   9.375   5.954  0.7514  0.1549 -0.3840
16142SOL    HW255667  11.151   9.383   5.804 -1.7312 -1.1691 -0.2107
16143SOL     OW55668   8.493  11.925   6.244 -0.3240 -0.2966  0.0779
16143SOL    HW155669   8.410  11.925   6.291 -0.1053 -1.0788  0.4748
16143SOL    HW255670   8.482  11.992   6.177 -1.4313 -0.6685 -0.1395
16144SOL     OW55671   2.292   3.454   0.906 -0.5063  0.5857  0.3088
16144SOL    HW155672   2.346   3.382   0.940 -2.0377 -1.6833 -1.6903
16144SOL    HW255673   2.305   3.525   0.969  1.3844 -1.2906  2.2463
16145SOL     OW55674  12.565   6.504   1.999 -0.0103 -0.7104  0.1106
16145SOL    HW155675  12.475   6.483   2.022 -0.6249  0.6464 -0.8803
16145SOL    HW255676  12.592   6.568   2.065  0.4349 -1.5189  0.7272
16146SOL     OW55677   2.936   6.928   5.704 -0.0140  0.0185 -0.2876
16146SOL    HW155678   2.937   6.897   5.795  2.5005  0.9320  0.0862
16146SOL    HW255679   3.024   6.963   5.690 -0.1536 -0.5595 -3.2734
16147SOL     OW55680   3.076   8.728   1.855  0.1308  0.6566  0.2425
16147SOL    HW155681   3.060   8.691   1.941  0.4564 -1.1542 -0.4304
16147SOL    HW255682   3.047   8.660   1.794 -2.0415  2.6541 -1.1583
16148SOL     OW55683   3.464  11.581  12.422 -0.2436 -0.0447 -0.2077
16148SOL    HW155684   3.415  11.510  12.463  1.0654 -1.5041 -1.0674
16148SOL    HW255685   3.550  11.578  12.464 -0.4062  1.5869  0.3114
16149SOL     OW55686  10.800  11.504   0.104  0.3889 -0.3410 -0.1745
16149SOL    HW155687  10.781  11.597   0.118 -0.9450 -0.8653  1.9463
16149SOL    HW255688  10.887  11.491   0.143 -0.3487 -0.3716  1.5398
16150SOL     OW55689  10.879   9.958  12.269  0.4024 -0.6167  0.6440
16150SOL    HW155690  10.877   9.883  12.328 -0.2169 -1.0430  0.0928
16150SOL    HW255691  10.794  10.000  12.281  1.7483  1.7883  3.1629
16151SOL     OW55692   7.043  11.920   5.190 -0.0881 -0.5888 -0.6017
16151SOL    HW155693   7.021  12.008   5.160  0.1380 -0.3445 -0.0635
16151SOL    HW255694   7.131  11.927   5.226 -0.4353 -0.8094  0.3382
16152SOL     OW55695   4.474   1.074   8.076 -0.4523 -0.1644 -0.2464
16152SOL    HW155696   4.493   1.165   8.098 -2.5770  0.6535 -1.4876
16152SOL    HW255697   4.542   1.050   8.013 -0.0588  0.6717 -0.1527
16153SOL     OW55698   8.720   7.404   5.164  0.0191 -0.2836 -0.1859
16153SOL    HW155699   8.731   7.450   5.247 -0.7141  1.7590 -1.1600
16153SOL    HW255700   8.626   7.403   5.149  0.2094  1.4297 -2.0086
16154SOL     OW55701  11.507   0.848   0.539  0.0362 -0.3965 -0.0660
16154SOL    HW155702  11.496   0.867   0.632 -2.3643 -0.1140 -0.3473
16154SOL    HW255703  11.451   0.911   0.495 -0.4783 -1.8288 -1.5774
16155SOL     OW55704   0.149  10.008   5.085  0.1579  0.3818 -0.2450
16155SOL    HW155705   0.118   9.922   5.113 -2.6175  1.6100  0.8907
16155SOL    HW255706   0.214  10.033   5.150 -0.9540  0.1782  0.9942
16156SOL     OW55707  11.402   8.205   3.051  0.3708 -0.1327  0.5132
16156SOL    HW155708  11.342   8.186   3.124 -0.0991  0.5368  0.3096
16156SOL    HW255709  11.403   8.124   2.999 -1.8477  0.4433 -0.5210
16157SOL     OW55710   5.132   4.231   9.144  0.3333 -0.1028  0.3101
16157SOL    HW155711   5.171   4.315   9.122  0.0940  1.1326  3.8911
16157SOL    HW255712   5.207   4.178   9.173  0.0869  0.3961  1.9938
16158SOL     OW55713   7.872   7.973   7.386 -0.5720  0.4995 -0.5097
16158SOL    HW155714   7.879   8.022   7.468 -2.5639 -0.4239  0.2801
16158SOL    HW255715   7.828   8.033   7.325  0.1396  0.8821 -0.6597
16159SOL     OW55716  11.323   6.805   5.067 -0.3881  0.0033 -0.3822
16159SOL    HW155717  11.236   6.795   5.026 -0.8735  1.2785  0.2892
16159SOL    HW255718  11.305   6.812   5.160  0.6572 -2.0599  0.0268
16160SOL     OW55719   9.756  11.298   3.455  0.7945 -0.2126  0.6749
16160SOL    HW155720   9.851  11.291   3.445  0.4999 -1.5806 -2.1119
16160SOL    HW255721   9.730  11.217   3.499  0.9447  0.5717  2.2872
16161SOL     OW55722  11.309  11.576   5.604 -0.8581  0.5561 -0.3238
16161SOL    HW155723  11.367  11.535   5.540 -0.9463 -0.1952  0.0623
16161SOL    HW255724  11.221  11.564   5.567 -1.1004 -1.5552  0.7705
16162SOL     OW55725   6.076  11.065   6.656 -0.2033  0.1462  0.2008
16162SOL    HW155726   6.111  11.149   6.684 -1.1491  0.7918 -0.4978
16162SOL    HW255727   6.150  11.021   6.614  0.0784  1.0188 -0.2489
16163SOL     OW55728   3.915   7.530   4.987  0.0417  0.1213 -0.0431
16163SOL    HW155729   3.894   7.494   4.900 -1.3412  0.2043  0.2358
16163SOL    HW255730   3.977   7.600   4.969  3.5019 -2.7471 -0.5488
16164SOL     OW55731   8.936  11.133   1.816 -0.1370  0.0290  0.1792
16164SOL    HW155732   8.926  11.210   1.760  0.6506 -0.1014 -0.1497
16164SOL    HW255733   8.906  11.162   1.902 -1.4437  0.2092 -0.3204
16165SOL     OW55734   9.884   6.115   5.479 -0.1279  0.1328 -0.4758
16165SOL    HW155735   9.891   6.020   5.470 -1.0517  0.0705 -0.6169
16165SOL    HW255736   9.793   6.131   5.503  0.3192  0.9005  0.7886
16166SOL     OW55737   4.755   4.670   8.807 -0.6061 -0.3604  0.1073
16166SOL    HW155738   4.799   4.586   8.819 -1.2270 -0.7339 -0.1793
16166SOL    HW255739   4.822   4.728   8.770  0.3853 -0.1573  2.0754
16167SOL     OW55740  10.300   3.752   8.860 -0.5376 -0.1525  0.1896
16167SOL    HW155741  10.283   3.675   8.804 -0.3678  0.2821 -0.4715
16167SOL    HW255742  10.358   3.719   8.928  1.4087 -0.1246 -1.3764
16168SOL     OW55743   0.288   5.955   7.677 -0.6328  0.3295 -0.5877
16168SOL    HW155744   0.343   6.024   7.639 -1.7223  2.0081  0.6954
16168SOL    HW255745   0.203   5.966   7.635 -0.7250 -0.4662 -0.6111
16169SOL     OW55746   4.162   8.339   4.739 -0.0133  0.0858 -0.7249
16169SOL    HW155747   4.199   8.424   4.762 -0.8791  0.2950 -0.0737
16169SOL    HW255748   4.198   8.320   4.652 -0.3542  1.4276 -1.1741
16170SOL     OW55749   9.156   4.310   7.263 -0.3522 -0.0835  0.0155
16170SOL    HW155750   9.227   4.373   7.280 -0.8680  0.8480 -1.1790
16170SOL    HW255751   9.133   4.324   7.171 -0.2923 -2.2412 -0.3699
16171SOL     OW55752  11.597   9.213   9.794 -0.1082 -0.1808 -0.2501
16171SOL    HW155753  11.686   9.182   9.810 -0.5488 -0.6820  1.4074
16171SOL    HW255754  11.607   9.307   9.780  0.5967 -0.0527  0.9570
16172SOL     OW55755   9.032   4.251   4.436  0.0559 -0.3743 -0.0532
16172SOL    HW155756   9.096   4.287   4.497 -0.7386  1.9571 -0.5058
16172SOL    HW255757   8.950   4.250   4.485 -0.0374 -1.1277 -0.2188
16173SOL     OW55758   3.117   1.743   2.101 -0.4316 -0.3512  0.0182
16173SOL    HW155759   3.151   1.827   2.071  3.1039 -0.3561  3.2275
16173SOL    HW255760   3.106   1.754   2.195 -0.8120 -3.1997  0.3944
16174SOL     OW55761   7.187  11.607   1.574  0.1526  0.2125  0.0111
16174SOL    HW155762   7.107  11.603   1.627 -1.7887  0.9578 -2.6492
16174SOL    HW255763   7.217  11.516   1.569 -1.6867 -0.4221 -0.5045
16175SOL     OW55764   9.335   3.013   5.001  0.7490  0.6339 -0.0641
16175SOL    HW155765   9.422   3.012   5.041 -0.1018 -0.7340  1.9162
16175SOL    HW255766   9.330   2.931   4.952  0.1951  0.1994  0.7155
16176SOL     OW55767  11.596   9.228   3.645  0.8521  0.7029  0.1956
16176SOL    HW155768  11.507   9.223   3.680  0.6100 -0.4105 -0.5249
16176SOL    HW255769  11.594   9.304   3.586  0.1827  0.3213 -0.2970
16177SOL     OW55770   2.548   4.734   0.951  0.0105  0.0648  0.5235
16177SOL    HW155771   2.628   4.784   0.934  0.2818  0.2118  2.1390
16177SOL    HW255772   2.498   4.741   0.869  1.0456  1.0800 -0.0513
16178SOL     OW55773   6.333   6.108   9.859 -0.8050  0.3796  0.1673
16178SOL    HW155774   6.370   6.055   9.788  0.6722  0.6488  0.7158
16178SOL    HW255775   6.406   6.158   9.893 -0.8870 -1.4501  3.4400
16179SOL     OW55776   1.507   7.580  11.077  0.1273  0.2616 -0.2354
16179SOL    HW155777   1.452   7.601  11.153  2.3360 -0.3212  1.6607
16179SOL    HW255778   1.513   7.484  11.078  1.6430  0.3376  0.0032
16180SOL     OW55779   5.377   9.822  11.031  0.6675 -0.5062 -0.4867
16180SOL    HW155780   5.382   9.869  11.114 -1.8349  0.4845 -0.7840
16180SOL    HW255781   5.387   9.730  11.055  0.9879 -0.1607  0.7674
16181SOL     OW55782   8.804   9.665   1.725  0.0338 -0.0963 -0.0993
16181SOL    HW155783   8.760   9.725   1.784  0.7731  0.2727  0.0832
16181SOL    HW255784   8.867   9.719   1.678 -0.4360 -0.4160 -1.1207
16182SOL     OW55785   9.691  12.624   6.278  0.1409  0.1715 -0.0160
16182SOL    HW155786   9.683  12.580   6.193 -0.6272  0.0624  0.1040
16182SOL    HW255787   9.651  12.563   6.340  1.5121 -0.1561  0.5775
16183SOL     OW55788   4.170   7.718   7.501 -0.4060 -0.5289 -0.4049
16183SOL    HW155789   4.237   7.674   7.449 -0.8409 -0.6412 -0.8824
16183SOL    HW255790   4.212   7.737   7.584 -0.2178 -1.8590 -0.1890
16184SOL     OW55791   9.380  11.589   8.488  0.1382 -0.3798  0.0393
16184SOL    HW155792   9.313  11.639   8.441 -0.5010  0.3277  1.6280
16184SOL    HW255793   9.463  11.619   8.450 -0.3428  0.2493 -0.5433
16185SOL     OW55794   3.402   3.090   2.104  0.9134  0.0043  0.3820
16185SOL    HW155795   3.349   3.167   2.125 -1.1480 -1.2485  0.0426
16185SOL    HW255796   3.393   3.081   2.009  0.5888 -1.0178  0.5015
16186SOL     OW55797   0.424   6.811   1.557 -0.0757  0.3998 -0.1682
16186SOL    HW155798   0.331   6.832   1.568 -0.1994 -0.4723  0.5993
16186SOL    HW255799   0.469   6.891   1.583 -0.5090 -0.3185  3.2816
16187SOL     OW55800   6.184   0.971   7.071  0.0595 -0.1256  0.0912
16187SOL    HW155801   6.214   0.980   6.981 -0.4815  1.0050 -0.0065
16187SOL    HW255802   6.259   0.999   7.124 -0.1450  0.8106 -0.0834
16188SOL     OW55803   5.214   4.812   3.980 -0.5242  0.3018 -0.0596
16188SOL    HW155804   5.244   4.722   3.995  0.5907  0.7826  0.7088
16188SOL    HW255805   5.209   4.851   4.068  1.4079  1.7220 -0.5328
16189SOL     OW55806   5.449   3.220   6.043 -0.1327  0.0071 -0.8783
16189SOL    HW155807   5.536   3.252   6.068 -0.4415  0.2070 -0.0091
16189SOL    HW255808   5.454   3.126   6.057 -0.4716  0.1708  0.5786
16190SOL     OW55809   5.961   2.897   7.062  0.3581 -0.1008 -0.3016
16190SOL    HW155810   5.950   2.938   6.976 -0.8282  0.9311  0.3123
16190SOL    HW255811   6.031   2.948   7.104 -0.1964  0.4681 -0.0474
16191SOL     OW55812   5.431   2.582   4.836 -0.0244  0.4997 -0.0290
16191SOL    HW155813   5.391   2.620   4.758  0.1629  1.5123  0.3487
16191SOL    HW255814   5.493   2.649   4.865  1.4478 -0.7343 -0.2038
16192SOL     OW55815  12.078   7.589   2.200  0.0409  0.7596 -0.5025
16192SOL    HW155816  12.086   7.672   2.154  0.9149  0.4215 -0.9915
16192SOL    HW255817  12.128   7.527   2.146  1.6021  0.4627  1.1683
16193SOL     OW55818   9.405   2.304   6.659  0.3603  0.4009  0.0123
16193SOL    HW155819   9.370   2.223   6.622 -0.7745  0.5516  0.7402
16193SOL    HW255820   9.365   2.311   6.745  3.1947 -0.1046  1.4924
16194SOL     OW55821   1.017   3.526  10.606 -0.3576 -0.8273 -0.0655
16194SOL    HW155822   0.956   3.471  10.557 -1.7575  0.0198  0.6623
16194SOL    HW255823   1.068   3.464  10.659  1.1706 -1.7653 -2.4618
16195SOL     OW55824   5.346   8.562   1.344 -0.9031  0.2166 -0.6275
16195SOL    HW155825   5.402   8.485   1.350  0.8090  1.3503 -1.1161
16195SOL    HW255826   5.359   8.608   1.427  0.4176  1.4254 -1.4518
16196SOL     OW55827   2.593   4.872  10.014 -0.2059 -0.2483  0.1218
16196SOL    HW155828   2.583   4.967  10.025  2.1004  0.1684 -0.8089
16196SOL    HW255829   2.517   4.846   9.963  0.4788  1.6475 -2.0642
16197SOL     OW55830   7.125   1.629   9.072 -0.2339  0.1979 -0.6301
16197SOL    HW155831   7.104   1.714   9.111  0.0982  0.1821 -0.4178
16197SOL    HW255832   7.221   1.624   9.076 -0.3337 -1.1899  1.4740
16198SOL     OW55833   5.866   9.147   2.985 -0.5713  0.6962  0.7008
16198SOL    HW155834   5.863   9.219   3.048 -1.2594  1.1771  0.1358
16198SOL    HW255835   5.880   9.069   3.038  0.2254  1.2431  1.3215
16199SOL     OW55836   6.846  10.519  11.653 -0.3098 -0.3343 -0.0616
16199SOL    HW155837   6.752  10.511  11.638 -0.3783 -1.1255  0.7122
16199SOL    HW255838   6.885  10.445  11.606  0.0363  0.5649 -1.2307
16200SOL     OW55839   4.347  11.736   9.236 -0.0391  0.3411  0.0234
16200SOL    HW155840   4.387  11.676   9.299 -0.8494 -0.1420  0.0892
16200SOL    HW255841   4.288  11.790   9.289  0.4191  0.9690 -0.0915
16201SOL     OW55842   9.449  11.264   8.233 -0.2011 -0.5864 -0.0406
16201SOL    HW155843   9.363  11.301   8.213  0.1071  0.7510  0.9820
16201SOL    HW255844   9.509  11.338   8.226  0.8617 -1.4681 -0.5867
16202SOL     OW55845   6.945  10.678   6.313 -0.9973 -0.7271 -0.1744
16202SOL    HW155846   6.896  10.597   6.329 -3.4592  0.5945 -0.6755
16202SOL    HW255847   6.895  10.746   6.357  0.6007  0.6783 -0.4337
16203SOL     OW55848   7.498  12.078   5.325 -0.0937 -0.3858 -0.2869
16203SOL    HW155849   7.529  11.997   5.284  1.1943  0.7670 -1.7240
16203SOL    HW255850   7.553  12.146   5.287  0.4971  0.9261  2.6352
16204SOL     OW55851   9.871   0.368   6.147  0.5498 -0.0609  0.2977
16204SOL    HW155852   9.821   0.367   6.229  0.3646 -0.3815  0.1852
16204SOL    HW255853   9.948   0.314   6.165  1.8041  1.8784  1.0362
16205SOL     OW55854   6.217   8.980   0.505 -0.1719  0.2408 -0.0087
16205SOL    HW155855   6.274   8.971   0.582  2.6463  2.1103 -1.6795
16205SOL    HW255856   6.233   9.069   0.474 -2.2259 -0.0027 -2.0312
16206SOL     OW55857   2.446  11.360   7.650  0.3298  0.5336 -0.8000
16206SOL    HW155858   2.413  11.379   7.737  2.1404  0.5575 -0.0703
16206SOL    HW255859   2.399  11.420   7.592  0.2266  1.6241  0.3780
16207SOL     OW55860   4.490   6.953   9.576  0.6713  0.3860 -0.4199
16207SOL    HW155861   4.540   6.981   9.499  2.7024  0.3456  0.8005
16207SOL    HW255862   4.465   7.036   9.618 -0.8327  0.4153 -1.3249
16208SOL     OW55863   8.104   7.567   7.966 -0.2210 -0.2556  0.0410
16208SOL    HW155864   8.198   7.580   7.983  0.0046 -0.8024 -0.7162
16208SOL    HW255865   8.074   7.651   7.933  0.4743 -0.6189 -1.6381
16209SOL     OW55866  10.970   4.610   1.114  0.4253  1.0185 -0.1284
16209SOL    HW155867  10.888   4.562   1.117  1.0382 -0.1955 -1.5422
16209SOL    HW255868  10.958   4.676   1.047  0.0678  1.9447  0.8225
16210SOL     OW55869  11.024   8.548   2.114  0.4348  0.0383 -0.4022
16210SOL    HW155870  11.043   8.539   2.021  1.2436 -1.1745 -0.1305
16210SOL    HW255871  10.929   8.537   2.120  0.2893  0.7905 -1.1436
16211SOL     OW55872  10.686   3.444   4.321  0.3559 -0.2201  0.4485
16211SOL    HW155873  10.748   3.376   4.347  0.2330  0.1183  1.6609
16211SOL    HW255874  10.699   3.515   4.384 -2.7565 -1.0152  2.2006
16212SOL     OW55875   8.737   0.981  10.983 -0.4639  0.3313 -0.8171
16212SOL    HW155876   8.777   0.900  11.016 -2.1937 -0.0969  0.3657
16212SOL    HW255877   8.808   1.025  10.937  0.1116 -2.7653 -3.2730
16213SOL     OW55878  11.885   1.240   4.753 -0.1507  0.1190  0.5202
16213SOL    HW155879  11.801   1.214   4.792 -1.1216  1.1598 -0.7878
16213SOL    HW255880  11.868   1.325   4.713  1.4997  0.2716  0.0613
16214SOL     OW55881   2.659  11.279   2.477  0.6508 -0.6684  0.2464
16214SOL    HW155882   2.690  11.264   2.388 -0.2817 -0.8395 -0.0628
16214SOL    HW255883   2.616  11.365   2.473 -0.6557 -1.3053  0.1677
16215SOL     OW55884   9.566  11.352   1.397 -0.2821  0.0547 -0.0978
16215SOL    HW155885   9.627  11.334   1.469 -0.9667  0.8270  0.6921
16215SOL    HW255886   9.610  11.419   1.345 -0.6376  0.9116  0.7046
16216SOL     OW55887   8.663   5.604   7.211 -0.1482 -0.2258  0.2934
16216SOL    HW155888   8.677   5.531   7.150  1.8172  0.5724 -0.2701
16216SOL    HW255889   8.737   5.662   7.196  0.1289  0.2521  3.1034
16217SOL     OW55890   8.707   5.727  12.012  0.4013 -0.1011  0.1025
16217SOL    HW155891   8.767   5.656  12.037 -0.9477 -1.5454 -0.6261
16217SOL    HW255892   8.691   5.774  12.094  1.5570 -0.4420  0.5458
16218SOL     OW55893   5.441   4.517   3.226 -0.0629  0.0787  0.1933
16218SOL    HW155894   5.525   4.475   3.244  0.5051  0.7133 -0.9099
16218SOL    HW255895   5.389   4.449   3.182  0.1122 -0.1043  0.2685
16219SOL     OW55896   0.588   3.435   8.198 -0.4774  0.4026 -0.2263
16219SOL    HW155897   0.619   3.405   8.283 -0.4050  1.2130  0.0485
16219SOL    HW255898   0.522   3.371   8.171 -0.8110  0.3688  0.6448
16220SOL     OW55899   2.914   0.436   8.334  0.6187 -0.4506  0.1256
16220SOL    HW155900   2.895   0.416   8.243 -2.7046  0.2738  0.5490
16220SOL    HW255901   2.887   0.357   8.382  0.6135 -0.1485  0.6278
16221SOL     OW55902   2.462  10.576  12.514 -0.2727  0.1740  0.1109
16221SOL    HW155903   2.387  10.532  12.472 -1.4930  2.3134 -0.0649
16221SOL    HW255904   2.441  10.669  12.510  2.6356  0.8978 -0.3440
16222SOL     OW55905   9.956   4.212   2.171  0.4223 -0.3260  0.3237
16222SOL    HW155906   9.954   4.298   2.213  0.4706  0.8773 -1.9451
16222SOL    HW255907   9.866   4.197   2.142  0.1575 -1.6257  1.7033
16223SOL     OW55908   4.505   8.153   2.447  0.3274 -0.2518  0.2923
16223SOL    HW155909   4.483   8.177   2.358 -0.7164  1.1052  0.8791
16223SOL    HW255910   4.592   8.191   2.461 -0.0891  0.7567  0.2702
16224SOL     OW55911   6.374   9.597   6.984  0.2466  0.2072  0.1317
16224SOL    HW155912   6.459   9.561   7.007  0.7108  1.5490  0.6318
16224SOL    HW255913   6.371   9.594   6.888  0.7088 -0.1486  0.1245
16225SOL     OW55914   2.720   8.150   1.330 -0.6651  0.5605  0.2735
16225SOL    HW155915   2.628   8.143   1.305 -1.0637  1.8392  1.3274
16225SOL    HW255916   2.761   8.195   1.256 -0.8695  0.0172 -0.1846
16226SOL     OW55917  11.645   3.486   6.234 -0.5806  0.2016  0.9671
16226SOL    HW155918  11.580   3.418   6.249 -0.7869  0.2613  0.3378
16226SOL    HW255919  11.723   3.454   6.280 -0.7933 -0.2676  1.0060
16227SOL     OW55920   8.683   8.309   8.154 -0.4133  0.0250 -0.1085
16227SOL    HW155921   8.672   8.370   8.227 -1.3468  1.5318 -1.4411
16227SOL    HW255922   8.752   8.348   8.101 -1.2593  0.1495 -1.1562
16228SOL     OW55923   8.196   4.220   3.241  0.3742 -0.0234 -0.2916
16228SOL    HW155924   8.135   4.292   3.228  1.1686  0.5143 -1.1554
16228SOL    HW255925   8.209   4.183   3.154  1.5589  0.1177 -0.1911
16229SOL     OW55926   8.042   9.203   4.693  0.1979 -0.2657  0.1180
16229SOL    HW155927   7.952   9.225   4.668 -1.1542 -2.3229  2.7380
16229SOL    HW255928   8.084   9.288   4.707 -1.2760  0.7482 -1.1804
16230SOL     OW55929  10.913   7.440   1.604  0.1917 -0.2967 -0.0960
16230SOL    HW155930  10.835   7.421   1.656 -0.0015 -0.9430 -0.6034
16230SOL    HW255931  10.902   7.388   1.525 -0.2677  1.7998 -1.5064
16231SOL     OW55932   1.231   8.257   9.950 -0.1325 -0.4311  0.1585
16231SOL    HW155933   1.187   8.224  10.028  0.8222  2.2205  1.9557
16231SOL    HW255934   1.322   8.270   9.978  0.0753  1.2397 -1.1549
16232SOL     OW55935   9.688   4.792   6.193 -0.2918  0.2533  0.1479
16232SOL    HW155936   9.726   4.762   6.110 -1.8124 -0.2214 -0.3966
16232SOL    HW255937   9.697   4.887   6.190  0.2937  0.1952 -0.2279
16233SOL     OW55938   4.385   7.253  11.250 -0.1226 -0.5851 -0.1328
16233SOL    HW155939   4.439   7.275  11.326  0.9366  0.0390 -1.0432
16233SOL    HW255940   4.320   7.191  11.284  0.7233 -0.8095  1.1410
16234SOL     OW55941  11.334   2.242   7.075  0.2090  0.3523 -0.1642
16234SOL    HW155942  11.285   2.182   7.020  3.0356 -2.0124 -0.3302
16234SOL    HW255943  11.357   2.191   7.152 -0.0695  2.2989  1.2891
16235SOL     OW55944   1.376   8.901   7.559 -0.0254 -0.3176  0.1417
16235SOL    HW155945   1.391   8.958   7.635 -0.7052  1.6428 -1.1019
16235SOL    HW255946   1.460   8.902   7.512 -0.3164  0.4931 -0.3822
16236SOL     OW55947   2.083   6.160   0.362 -0.2660 -0.1973 -0.3238
16236SOL    HW155948   2.038   6.098   0.305  1.0894  0.1270 -1.7895
16236SOL    HW255949   2.137   6.106   0.419 -0.0576 -0.4301 -0.7406
16237SOL     OW55950   7.089   4.698  11.432  0.1504  0.1647  0.2712
16237SOL    HW155951   7.119   4.680  11.343 -1.9802 -0.4648 -0.3804
16237SOL    HW255952   7.158   4.664  11.488 -0.0760 -2.8164 -1.0888
16238SOL     OW55953  12.123  10.773   0.355  0.0966  0.1216 -0.8194
16238SOL    HW155954  12.090  10.703   0.299 -1.4036  0.0559  0.0760
16238SOL    HW255955  12.185  10.821   0.300 -1.3836  0.1361 -2.6029
16239SOL     OW55956   7.225   2.175  10.082  0.0776  0.2211  0.0032
16239SOL    HW155957   7.224   2.129   9.998 -1.9393 -0.4438  0.3419
16239SOL    HW255958   7.285   2.124  10.136 -0.3586 -0.6875 -0.3450
16240SOL     OW55959  12.455   1.050   9.413  0.8557 -0.2699 -0.0260
16240SOL    HW155960  12.489   0.964   9.388  2.0091  0.2933 -0.4576
16240SOL    HW255961  12.525   1.089   9.467  0.0632  0.1312  0.7354
16241SOL     OW55962   0.376  11.855   9.714 -0.3733  0.4019 -0.0749
16241SOL    HW155963   0.290  11.838   9.751  0.2795 -1.3378  0.7769
16241SOL    HW255964   0.362  11.859   9.620 -1.0286 -3.0064 -0.2440
16242SOL     OW55965   1.878  11.727   1.203 -0.4273 -0.2833  0.0619
16242SOL    HW155966   1.820  11.652   1.193 -0.2284 -0.4560  0.1921
16242SOL    HW255967   1.936  11.723   1.126 -0.0848 -0.5599  0.3312
16243SOL     OW55968   2.025  10.193   8.064 -0.5140  0.2003 -0.3550
16243SOL    HW155969   1.967  10.161   7.995 -0.0246 -0.0267 -0.6637
16243SOL    HW255970   1.968  10.248   8.119 -1.0535 -0.1465 -0.5602
16244SOL     OW55971  10.376   5.060  12.256 -0.1524  0.3376  0.3056
16244SOL    HW155972  10.303   5.031  12.310 -0.5680 -2.3699 -1.5407
16244SOL    HW255973  10.341   5.132  12.205 -0.8815  0.4146  0.9019
16245SOL     OW55974   9.641   5.636   1.265  0.0327  0.2829  0.0522
16245SOL    HW155975   9.555   5.655   1.302 -1.0741 -1.1617 -1.6350
16245SOL    HW255976   9.687   5.720   1.265 -1.4876  1.1341  0.7184
16246SOL     OW55977   8.780  11.950   7.019  0.4001  0.1170  0.0125
16246SOL    HW155978   8.864  11.907   7.009  1.4492  1.8424  0.9886
16246SOL    HW255979   8.727  11.888   7.069  1.1607 -0.8811 -0.3989
16247SOL     OW55980   4.441  11.176  12.453 -0.3654  0.2130 -0.8084
16247SOL    HW155981   4.389  11.256  12.443  0.1591  0.4534 -1.7446
16247SOL    HW255982   4.512  11.186  12.390 -0.0615 -0.8154 -0.6432
16248SOL     OW55983   9.766  10.025   3.284 -1.0775 -0.2619 -0.0921
16248SOL    HW155984   9.818  10.055   3.359  0.2157  0.3530 -1.1801
16248SOL    HW255985   9.676  10.022   3.317 -0.7013  1.0441  1.1811
16249SOL     OW55986   4.373   6.845   9.846  0.0939  0.9705 -0.0370
16249SOL    HW155987   4.418   6.783   9.789 -1.3031 -0.9562  0.8760
16249SOL    HW255988   4.386   6.930   9.803  1.9754  0.0807 -1.3716
16250SOL     OW55989  10.604  11.619   5.604  0.1676  0.0643 -0.2107
16250SOL    HW155990  10.626  11.633   5.697  0.6293  0.0359 -0.3130
16250SOL    HW255991  10.512  11.594   5.605 -0.7627  3.0701  0.0206
16251SOL     OW55992   9.689   7.051   5.358  0.7601 -0.1859  0.0684
16251SOL    HW155993   9.768   7.005   5.332  0.7613 -0.8996  1.2558
16251SOL    HW255994   9.641   7.066   5.277  2.3252  0.6868 -0.7307
16252SOL     OW55995   9.352   3.181  12.003  0.1836  0.0628  0.0060
16252SOL    HW155996   9.298   3.244  11.954  0.8826  0.5307 -0.1774
16252SOL    HW255997   9.440   3.216  11.997  0.7001 -1.2876 -0.6497
16253SOL     OW55998   4.696  10.535   7.652  0.0230  0.3478 -0.2221
16253SOL    HW155999   4.731  10.446   7.652 -0.8461 -0.0177  0.9724
16253SOL    HW256000   4.633  10.535   7.579  0.1539  0.0380 -0.3382
16254SOL     OW56001   2.476  10.385   6.493 -0.1990  1.0402  0.0671
16254SOL    HW156002   2.419  10.398   6.417  0.6998  2.8386 -0.3420
16254SOL    HW256003   2.565  10.400   6.460  0.2612  1.2706  1.3401
16255SOL     OW56004   9.591   5.456   3.201 -0.1269 -0.3038  0.0293
16255SOL    HW156005   9.636   5.463   3.118  1.5630  0.9799  0.9900
16255SOL    HW256006   9.650   5.404   3.257 -0.4053  0.3320  0.9407
16256SOL     OW56007   6.034   6.269   7.841 -0.0391 -0.5597 -0.1511
16256SOL    HW156008   5.962   6.227   7.793 -0.3294 -0.1962 -0.0404
16256SOL    HW256009   6.106   6.207   7.835 -1.0047 -1.9271  1.5961
16257SOL     OW56010   0.869   0.125   7.843 -0.6017  0.0901  0.5823
16257SOL    HW156011   0.886   0.068   7.918  2.5773  0.6941  0.4434
16257SOL    HW256012   0.854   0.211   7.881  1.2062  0.4366  0.5865
16258SOL     OW56013   1.696   4.987  11.095  0.8618 -0.0351 -0.6911
16258SOL    HW156014   1.782   4.952  11.072  1.9126  1.6625  0.4062
16258SOL    HW256015   1.642   4.969  11.019  1.5006 -3.2202 -0.5136
16259SOL     OW56016   9.988   1.454   8.204 -0.4593  0.1071 -0.4593
16259SOL    HW156017  10.061   1.473   8.146 -0.5792 -2.1024 -1.4492
16259SOL    HW256018   9.938   1.536   8.208 -0.0753  0.5427 -2.9737
16260SOL     OW56019   2.423   0.399   5.606 -0.8059  0.2659  0.1833
16260SOL    HW156020   2.437   0.370   5.696  0.7548  0.6598  0.1115
16260SOL    HW256021   2.442   0.321   5.553 -0.4136  0.3859  0.1459
16261SOL     OW56022   4.647   9.913   4.901  0.3430 -0.1260  0.3364
16261SOL    HW156023   4.555   9.938   4.895  0.2392 -0.8135 -1.7812
16261SOL    HW256024   4.692   9.974   4.842  0.9607 -0.9423 -0.0557
16262SOL     OW56025   0.315   9.779  11.237  0.3336 -0.3351  0.5179
16262SOL    HW156026   0.364   9.767  11.319  1.9959 -1.0215 -0.5354
16262SOL    HW256027   0.357   9.854  11.195 -1.0215  0.5217  0.6044
16263SOL     OW56028   3.973   4.924   4.998  0.6482 -0.2876  0.0945
16263SOL    HW156029   3.962   4.960   4.910  0.6752  0.7354  0.5000
16263SOL    HW256030   3.942   4.834   4.991  0.1806 -0.0645 -0.8416
16264SOL     OW56031   1.429   8.685   8.385 -0.5708 -0.4287  0.5763
16264SOL    HW156032   1.463   8.757   8.331 -0.9276  1.2544  2.5034
16264SOL    HW256033   1.508   8.640   8.416 -0.3545 -1.3443 -1.1345
16265SOL     OW56034  10.950   5.597   6.501 -0.0101  0.3043 -0.0667
16265SOL    HW156035  11.046   5.594   6.506 -0.0924 -1.0288  1.6516
16265SOL    HW256036  10.930   5.593   6.407  1.5893 -2.3791 -0.4048
16266SOL     OW56037   6.757   2.226   9.477 -0.2981 -0.6075  0.3498
16266SOL    HW156038   6.722   2.300   9.426  1.6254  0.2573  0.2015
16266SOL    HW256039   6.748   2.151   9.419 -3.6270 -0.9005  1.0186
16267SOL     OW56040   0.137   8.184   8.660 -0.1911  0.0853 -0.0008
16267SOL    HW156041   0.042   8.173   8.652 -0.3864  0.5323  1.4768
16267SOL    HW256042   0.167   8.102   8.700  0.1309 -0.2873 -0.9908
16268SOL     OW56043   2.734   1.346   9.977 -0.3443  0.5164  0.5393
16268SOL    HW156044   2.686   1.288   9.918 -0.8892  1.0688  0.4415
16268SOL    HW256045   2.711   1.315  10.065 -2.4299  1.9683  0.5652
16269SOL     OW56046   2.078   4.947   1.558  0.1258  0.0265 -0.4947
16269SOL    HW156047   2.155   4.964   1.613  1.7910 -2.1755 -1.9300
16269SOL    HW256048   2.107   4.965   1.469 -1.4515  0.3521 -0.9780
16270SOL     OW56049   3.716   7.963   5.173  0.4680 -0.1654 -0.0183
16270SOL    HW156050   3.745   8.054   5.172  2.0581 -0.6339 -1.1642
16270SOL    HW256051   3.726   7.933   5.083 -0.9717 -1.2146  0.1249
16271SOL     OW56052   9.829  12.679   3.061  0.4159 -0.2894  0.8938
16271SOL    HW156053   9.836  12.767   3.099  1.0443 -0.2761  0.7547
16271SOL    HW256054   9.801  12.624   3.134 -0.2399  0.0696  0.9191
16272SOL     OW56055   2.345  10.295  12.550  0.5392 -0.5727 -0.3338
16272SOL    HW156056   2.310  10.210  12.575 -2.4989  0.6642  0.0219
16272SOL    HW256057   2.327  10.303  12.456  0.0611 -0.0208 -0.2029
16273SOL     OW56058   4.166   4.441  12.342 -0.4207  0.2441  0.0171
16273SOL    HW156059   4.121   4.489  12.412 -0.3570  1.2752 -0.6184
16273SOL    HW256060   4.208   4.510  12.290  0.1086 -0.5542 -0.6304
16274SOL     OW56061   5.177   5.263   3.676 -0.3807  0.2499  0.2220
16274SOL    HW156062   5.177   5.183   3.728 -0.4559  0.3928  0.4420
16274SOL    HW256063   5.102   5.314   3.709 -1.0759 -0.1238 -0.7414
16275SOL     OW56064   9.604  12.006   1.079 -0.4020  0.2452 -0.2377
16275SOL    HW156065   9.557  12.056   1.145 -0.5330 -2.3497  1.7748
16275SOL    HW256066   9.535  11.965   1.026 -0.2953  1.4863 -1.3983
16276SOL     OW56067   3.938   3.746   3.447  0.1102  0.2102  0.2025
16276SOL    HW156068   3.978   3.829   3.422  2.1712 -0.1958  1.7736
16276SOL    HW256069   3.959   3.686   3.375  2.2883  0.0762  0.8736
16277SOL     OW56070  10.043  10.052   4.764  0.2565  0.4120  0.2308
16277SOL    HW156071  10.032  10.141   4.797 -0.2311 -0.7671  3.6652
16277SOL    HW256072  10.087  10.005   4.835  1.0962 -1.9494 -1.7240
16278SOL     OW56073   6.794   8.208   0.102 -0.3862 -0.6399 -0.0471
16278SOL    HW156074   6.872   8.191   0.155 -0.4711  0.0806  0.3255
16278SOL    HW256075   6.821   8.187   0.013  0.3450 -0.0987  0.0290
16279SOL     OW56076  10.807   0.385   7.390 -0.1394 -0.0421 -0.1852
16279SOL    HW156077  10.892   0.423   7.369 -0.8114  1.3207 -0.5737
16279SOL    HW256078  10.826   0.319   7.456  0.8351  3.0986  3.0427
16280SOL     OW56079   1.377  11.235  11.923 -0.2384  0.4925  0.3097
16280SOL    HW156080   1.395  11.142  11.919 -0.9602  0.3043  1.3061
16280SOL    HW256081   1.322  11.252  11.846  0.9459  0.3723 -0.6085
16281SOL     OW56082  11.902   3.461  10.456 -0.2369  0.0929 -0.2073
16281SOL    HW156083  11.814   3.494  10.440 -0.4071 -0.3377 -0.1910
16281SOL    HW256084  11.941   3.524  10.516 -1.1448 -0.6037  1.1644
16282SOL     OW56085   8.069  11.953   0.511 -0.1229 -0.9778  0.2632
16282SOL    HW156086   8.078  11.880   0.449 -1.7726 -1.4502  0.5179
16282SOL    HW256087   8.035  11.912   0.591  2.2845 -0.4293  1.6554
16283SOL     OW56088   0.844   7.256   2.363 -0.0216  0.4726  0.1506
16283SOL    HW156089   0.840   7.351   2.369  1.2796  0.5294  0.3818
16283SOL    HW256090   0.907   7.239   2.293 -1.6052 -0.2416 -1.1838
16284SOL     OW56091   8.808   3.588   8.098 -0.0799  0.0793  0.8129
16284SOL    HW156092   8.762   3.668   8.076 -0.4991  0.0622  1.5954
16284SOL    HW256093   8.900   3.612   8.098  0.0572 -0.1326 -1.8242
16285SOL     OW56094   0.843   5.558   2.509  0.5051  0.4539  0.1435
16285SOL    HW156095   0.801   5.583   2.591  0.4278 -0.8006  0.4984
16285SOL    HW256096   0.890   5.637   2.481  0.4952  0.9027  1.3560
16286SOL     OW56097   1.398   3.242   0.862 -0.5087 -0.2578  0.4890
16286SOL    HW156098   1.325   3.204   0.911 -1.1367  0.4197  0.0949
16286SOL    HW256099   1.444   3.295   0.927 -0.8885  0.0209  0.5368
16287SOL     OW56100   6.469   8.452   7.791  0.5724 -0.0313 -0.8669
16287SOL    HW156101   6.417   8.501   7.727 -0.3364  0.1674 -0.0030
16287SOL    HW256102   6.514   8.520   7.842  0.9184 -0.1721 -0.9812
16288SOL     OW56103   9.359   5.018   2.719 -1.1732  0.5785  0.0650
16288SOL    HW156104   9.361   5.034   2.624 -1.5789 -0.6968 -0.1732
16288SOL    HW256105   9.441   5.055   2.751 -0.7043  0.3951 -0.8916
16289SOL     OW56106   7.032   2.552   3.559 -0.0653 -0.5363  0.1049
16289SOL    HW156107   6.992   2.477   3.515 -0.3665  0.4434 -1.3404
16289SOL    HW256108   7.024   2.624   3.497  1.1015  0.4706  1.0670
16290SOL     OW56109   8.568   4.287   4.830  0.2521  0.5344  0.4204
16290SOL    HW156110   8.619   4.241   4.897  0.5450 -1.9606 -1.3865
16290SOL    HW256111   8.622   4.362   4.806  2.0636 -0.7828  0.1718
16291SOL     OW56112   7.111   1.265   1.451 -0.3718  0.0684  0.3279
16291SOL    HW156113   7.106   1.183   1.501  1.3559  0.1641  0.7134
16291SOL    HW256114   7.173   1.319   1.500 -2.7091  2.3260  1.0242
16292SOL     OW56115   4.845   6.674   3.954  0.7167  0.7014  0.5732
16292SOL    HW156116   4.930   6.668   3.996  0.7360  1.2477  0.6293
16292SOL    HW256117   4.821   6.766   3.963  0.9389  0.9534 -1.0149
16293SOL     OW56118   1.568  11.521   7.290  0.7053  0.0202  0.0725
16293SOL    HW156119   1.603  11.451   7.346 -1.0937 -0.2782  0.8921
16293SOL    HW256120   1.478  11.533   7.320  0.9225  2.6491 -0.1126
16294SOL     OW56121  12.153  12.386   1.991 -0.1056 -0.3819 -0.0193
16294SOL    HW156122  12.197  12.470   2.001 -0.3773 -0.3969  1.7266
16294SOL    HW256123  12.211  12.334   1.935  0.7537  0.4881  0.0381
16295SOL     OW56124   2.629   1.341  11.951 -0.4336  0.0264 -0.5469
16295SOL    HW156125   2.552   1.298  11.987  1.1422 -1.9748  0.6183
16295SOL    HW256126   2.602   1.432  11.939 -2.1097  0.0546  2.5170
16296SOL     OW56127  11.508   2.416   4.001 -0.5033  0.0113  0.2970
16296SOL    HW156128  11.588   2.365   4.000 -0.8097 -0.4850  0.5503
16296SOL    HW256129  11.484   2.421   4.094  1.2010  3.3241  0.7079
16297SOL     OW56130   2.932   3.083   0.267 -0.1054 -0.0040  0.0814
16297SOL    HW156131   2.941   3.175   0.244  1.0211  0.3604  1.8384
16297SOL    HW256132   2.898   3.083   0.356  0.5826 -1.2772  0.3691
16298SOL     OW56133   9.400   2.228   6.372  0.4763  0.1887  0.4303
16298SOL    HW156134   9.471   2.268   6.321  2.7893 -2.1338  1.6001
16298SOL    HW256135   9.418   2.134   6.368 -1.3775 -0.3256  2.4869
16299SOL     OW56136  12.482   3.558   9.028  0.1090  0.7119 -0.1139
16299SOL    HW156137  12.436   3.483   8.989 -0.5202  0.8577  0.3274
16299SOL    HW256138  12.551   3.519   9.082 -0.0034  0.4595 -0.1511
16300SOL     OW56139   6.682   1.428   8.142 -0.0687  0.4307 -0.5063
16300SOL    HW156140   6.750   1.371   8.105  0.2132  0.3300  0.1531
16300SOL    HW256141   6.644   1.472   8.066 -0.2957 -0.6379 -1.0359
16301SOL     OW56142   1.424  10.784  10.034 -0.2035  0.4794 -0.0667
16301SOL    HW156143   1.462  10.867  10.006 -0.1166  0.1819 -0.8272
16301SOL    HW256144   1.406  10.736   9.954  0.6065 -0.6326  0.3903
16302SOL     OW56145   7.316   9.980   9.979  0.4789 -0.4735 -0.0107
16302SOL    HW156146   7.340  10.064   9.938 -0.6685 -0.8991 -1.6241
16302SOL    HW256147   7.363   9.914   9.928 -0.7288 -0.9933 -0.4866
16303SOL     OW56148   1.718  12.709   0.389 -0.2676  0.3321  0.2954
16303SOL    HW156149   1.696  12.619   0.363 -0.9042  0.4081  0.5408
16303SOL    HW256150   1.707  12.760   0.309 -2.6464  0.6387  0.7508
16304SOL     OW56151   6.124  10.113  10.655  0.8527 -0.5169 -0.1643
16304SOL    HW156152   6.039  10.139  10.690  1.7898  0.2098  1.7302
16304SOL    HW256153   6.110  10.105  10.560 -1.0341  0.6573 -0.0339
16305SOL     OW56154   2.987   1.267   8.450 -0.0614  0.2957 -0.0303
16305SOL    HW156155   3.038   1.308   8.381 -0.8301 -1.2825 -1.6033
16305SOL    HW256156   3.023   1.178   8.457 -0.6821  0.0990  0.8996
16306SOL     OW56157   0.564   1.209   9.586 -0.5918  0.6345 -0.2198
16306SOL    HW156158   0.543   1.147   9.516  0.9226 -1.3192  0.9441
16306SOL    HW256159   0.505   1.187   9.657  0.3234  0.0871  0.4011
16307SOL     OW56160   1.939   8.005   8.394  0.5940 -0.3405 -0.1527
16307SOL    HW156161   1.988   8.076   8.353 -0.2973  0.6785  0.5034
16307SOL    HW256162   1.854   8.006   8.350  0.1438 -0.1781  0.6885
16308SOL     OW56163  10.415  10.776   6.630 -0.4928 -0.6342 -0.7693
16308SOL    HW156164  10.364  10.781   6.711  0.6619 -0.6116 -0.0215
16308SOL    HW256165  10.504  10.798   6.657 -0.0273 -0.9706 -1.9923
16309SOL     OW56166   9.171   3.659  10.972  0.5088 -0.0346  0.5953
16309SOL    HW156167   9.190   3.615  11.056 -0.0787 -2.1448 -0.3008
16309SOL    HW256168   9.228   3.615  10.909 -0.0376  0.5771 -0.3407
16310SOL     OW56169   7.121   2.490   5.563 -0.4334 -0.1931  0.2274
16310SOL    HW156170   7.181   2.562   5.584  1.3220 -1.3771 -0.4838
16310SOL    HW256171   7.035   2.532   5.556 -0.1214  1.2360  3.3443
16311SOL     OW56172  12.033   3.966   6.557  0.0266 -0.5340  0.5501
16311SOL    HW156173  12.037   4.053   6.595  1.7634  1.0576 -2.7525
16311SOL    HW256174  11.942   3.938   6.567 -1.2750  2.8424 -0.5037
16312SOL     OW56175   2.358   8.659   3.122  0.2898  0.1316  0.3611
16312SOL    HW156176   2.393   8.737   3.078 -3.4958  0.6136 -2.3178
16312SOL    HW256177   2.375   8.588   3.061 -0.0767 -0.3233  0.7842
16313SOL     OW56178  11.394   9.324   0.608  0.0238  0.4185 -0.6305
16313SOL    HW156179  11.443   9.265   0.551 -2.5633 -1.9373 -0.6184
16313SOL    HW256180  11.315   9.345   0.558 -0.1233  2.1838  0.2677
16314SOL     OW56181   1.433   2.882   3.895 -0.2333  0.2425  0.1046
16314SOL    HW156182   1.516   2.925   3.875 -1.9914  4.2957  0.4194
16314SOL    HW256183   1.399   2.853   3.811  0.3943  0.8822 -0.3816
16315SOL     OW56184   1.150  12.016   5.727  0.8590  0.2182  0.6479
16315SOL    HW156185   1.221  11.958   5.698  1.1690  1.0713 -0.3576
16315SOL    HW256186   1.190  12.103   5.731  0.7823  0.2278  3.4854
16316SOL     OW56187   0.265   2.404   1.579  0.0432  0.0954 -0.0201
16316SOL    HW156188   0.207   2.424   1.653 -0.9217 -1.0916 -0.4074
16316SOL    HW256189   0.221   2.442   1.503  0.5393  0.4761 -0.1183
16317SOL     OW56190   2.999   3.423   0.459  0.1048  0.0179 -0.4315
16317SOL    HW156191   3.009   3.365   0.535  0.5481 -0.7973 -1.0854
16317SOL    HW256192   3.042   3.376   0.388  0.1725  1.0130 -1.0685
16318SOL     OW56193   6.731   3.693   1.878 -0.0090  0.2757  0.0800
16318SOL    HW156194   6.792   3.758   1.913  0.6199 -0.3838  0.2351
16318SOL    HW256195   6.709   3.639   1.954 -0.0905 -0.0324 -0.1640
16319SOL     OW56196   7.862   9.447   3.782  0.4996 -0.0047 -0.2835
16319SOL    HW156197   7.891   9.359   3.809  0.2694 -0.3114 -1.0196
16319SOL    HW256198   7.943   9.495   3.765  0.6143 -0.2854 -0.5370
16320SOL     OW56199  10.930   5.615   5.463 -0.4736  0.0901  0.2067
16320SOL    HW156200  10.956   5.664   5.541 -0.8899  0.1558  0.3050
16320SOL    HW256201  10.972   5.662   5.391 -0.6370  0.4255  0.3279
16321SOL     OW56202   6.162   1.876   2.108 -0.2016 -0.6881  0.3964
16321SOL    HW156203   6.068   1.887   2.126 -0.5821 -0.1969 -1.6148
16321SOL    HW256204   6.192   1.964   2.084  0.1749 -1.2733 -1.4077
16322SOL     OW56205   1.909   6.562   0.687  0.3286 -0.3073 -0.6404
16322SOL    HW156206   1.855   6.483   0.691 -0.2343 -0.0405 -2.1564
16322SOL    HW256207   1.929   6.573   0.594  0.5600  1.2126 -0.4469
16323SOL     OW56208   2.370   1.188   0.294  0.4847  0.1778 -0.3138
16323SOL    HW156209   2.294   1.156   0.342  0.4774  2.1879  1.0920
16323SOL    HW256210   2.429   1.112   0.290 -0.9462 -0.9922 -0.1712
16324SOL     OW56211   7.285  11.380   3.297 -0.4158 -0.2108  0.2216
16324SOL    HW156212   7.248  11.430   3.370 -5.9323 -0.8537 -1.7021
16324SOL    HW256213   7.283  11.289   3.326  1.5013 -0.1617  0.6547
16325SOL     OW56214   0.699   0.947  11.593 -0.1879 -0.0537 -0.8147
16325SOL    HW156215   0.632   1.015  11.591  1.2911  1.4587 -1.7565
16325SOL    HW256216   0.779   0.993  11.619  0.3403 -1.9967  1.4305
16326SOL     OW56217   4.980   3.639   0.600 -0.6185 -0.1749  0.0428
16326SOL    HW156218   5.034   3.621   0.523  0.4139 -0.2355  0.7581
16326SOL    HW256219   4.896   3.597   0.581 -1.1030  1.5293 -1.9136
16327SOL     OW56220   3.691  11.963   6.519 -0.1872 -0.0290  0.5112
16327SOL    HW156221   3.619  11.965   6.455 -1.7447 -0.4516  2.1843
16327SOL    HW256222   3.687  11.875   6.557  1.5585 -0.2313  0.2986
16328SOL     OW56223   1.803   6.062   5.010  0.3408 -0.4329 -0.5102
16328SOL    HW156224   1.865   6.007   4.962  0.0717  0.1083 -1.5117
16328SOL    HW256225   1.852   6.091   5.087  1.8924  1.1843 -2.0226
16329SOL     OW56226  10.407  10.146   8.197 -0.7185  0.0556  0.1338
16329SOL    HW156227  10.502  10.136   8.187 -0.7200  0.9191 -0.9319
16329SOL    HW256228  10.386  10.224   8.146 -2.1636 -0.7620 -0.5606
16330SOL     OW56229   5.296  10.276   7.233  0.6166  0.1586 -0.2256
16330SOL    HW156230   5.301  10.354   7.287  0.4581  0.8204 -1.1487
16330SOL    HW256231   5.383  10.236   7.239  0.9067  0.7800 -0.3013
16331SOL     OW56232   2.329   3.601   5.925  0.3557  0.4226 -0.4325
16331SOL    HW156233   2.255   3.646   5.884  1.1294 -0.6888 -3.2177
16331SOL    HW256234   2.299   3.511   5.937  0.2912  0.6282  1.1981
16332SOL     OW56235   8.981   9.109  11.977 -0.2119  0.0188  0.1539
16332SOL    HW156236   8.964   9.147  12.063 -0.6525  0.0730  0.0456
16332SOL    HW256237   8.958   9.017  11.986 -0.5076  0.0796  0.0222
16333SOL     OW56238  10.937   9.873   2.205 -0.0571  0.6033 -0.2256
16333SOL    HW156239  10.967   9.893   2.116  1.6514  2.6679  0.7409
16333SOL    HW256240  11.001   9.914   2.262 -0.9849 -0.8712  2.0036
16334SOL     OW56241   8.202   9.909   5.790  0.3603  0.0112  0.1830
16334SOL    HW156242   8.154   9.851   5.731 -0.2215  0.4216  0.2465
16334SOL    HW256243   8.154   9.905   5.873  1.2378 -0.6435  0.6731
16335SOL     OW56244   5.032   4.172   9.542 -0.1310  0.7099  0.2292
16335SOL    HW156245   5.093   4.226   9.491  0.1717 -0.2886 -0.5014
16335SOL    HW256246   4.979   4.128   9.476 -1.5467  1.4350  0.8574
16336SOL     OW56247   2.925   4.087   8.562 -0.5649  0.2293  0.0207
16336SOL    HW156248   2.935   4.089   8.658 -1.1266  0.3470  0.0829
16336SOL    HW256249   2.978   4.161   8.532 -0.9529  0.6283  0.3030
16337SOL     OW56250  10.208  10.903   8.321 -0.2841 -0.2793  0.2131
16337SOL    HW156251  10.236  10.957   8.247 -1.0452  1.2328  0.9786
16337SOL    HW256252  10.220  10.958   8.398 -2.4304 -0.6264  0.8871
16338SOL     OW56253   5.462   9.045   0.874 -0.1145  0.3859  0.2977
16338SOL    HW156254   5.465   9.087   0.960 -0.7678 -0.0311  0.5347
16338SOL    HW256255   5.553   9.025   0.854  0.2390  2.1455  0.0541
16339SOL     OW56256   0.569   9.024   4.692 -0.2975  1.2284 -0.1846
16339SOL    HW156257   0.542   8.969   4.618  1.0077  1.8653 -1.1766
16339SOL    HW256258   0.488   9.066   4.721 -0.9746  0.3255 -0.6978
16340SOL     OW56259   3.946   2.720   7.022 -0.2553  0.5968  0.1073
16340SOL    HW156260   3.904   2.674   7.095 -0.5009  0.3914 -0.1603
16340SOL    HW256261   3.947   2.812   7.049 -0.9381  0.6153  0.0915
16341SOL     OW56262   0.779   6.022   4.632 -0.0739  0.3199 -0.2554
16341SOL    HW156263   0.703   6.003   4.688  0.7655  0.4921  0.9710
16341SOL    HW256264   0.784   6.117   4.631 -0.8222  0.3737 -1.6796
16342SOL     OW56265   9.655   2.503   4.878  0.3929 -0.1732 -0.0927
16342SOL    HW156266   9.673   2.558   4.802  1.3466  0.2366  0.4177
16342SOL    HW256267   9.644   2.415   4.842  0.0885  0.1369 -0.7788
16343SOL     OW56268   9.512   7.995   1.316  0.0406 -0.3434  0.5769
16343SOL    HW156269   9.501   7.908   1.279  1.0123 -0.4506  0.5307
16343SOL    HW256270   9.514   8.053   1.240  4.6472 -0.7956  0.1024
16344SOL     OW56271  11.056   6.475   8.141 -0.0675 -0.0535  0.4052
16344SOL    HW156272  11.024   6.433   8.060  0.4266  1.0688 -0.3978
16344SOL    HW256273  11.130   6.421   8.168  0.7324  0.4074 -0.7649
16345SOL     OW56274   3.841   5.325   7.415  0.2712 -0.4758 -0.2028
16345SOL    HW156275   3.837   5.367   7.328 -1.9219 -0.4986 -0.1733
16345SOL    HW256276   3.759   5.275   7.421  0.4184 -0.5520  1.8494
16346SOL     OW56277   0.218   7.065   7.908 -0.4191 -0.2628  0.1712
16346SOL    HW156278   0.245   7.156   7.893  0.0091 -0.6001 -1.2980
16346SOL    HW256279   0.130   7.072   7.945  0.1194  0.7650  1.3323
16347SOL     OW56280  11.885   5.679   3.204 -0.1700  0.0420  0.1067
16347SOL    HW156281  11.926   5.611   3.150 -3.1994 -1.2908 -0.6842
16347SOL    HW256282  11.924   5.761   3.174  3.6341 -1.1791  1.1041
16348SOL     OW56283   4.965   8.381  10.916  0.1041  0.1070  0.2085
16348SOL    HW156284   5.043   8.332  10.888 -0.4239 -0.6851  0.0726
16348SOL    HW256285   4.893   8.340  10.867 -0.5260  0.2109  1.0367
16349SOL     OW56286   7.552   7.901   2.779  0.2199  0.1286  0.3931
16349SOL    HW156287   7.642   7.881   2.805 -0.3312  0.4332  2.7324
16349SOL    HW256288   7.499   7.881   2.856 -1.4491  1.9798 -0.1863
16350SOL     OW56289   6.850   5.753   0.646  0.1618 -0.2828  0.2332
16350SOL    HW156290   6.861   5.833   0.698  0.8369  0.3219 -0.8007
16350SOL    HW256291   6.755   5.740   0.641  0.0908 -0.3817  1.6311
16351SOL     OW56292  10.515   0.683   6.130  0.3934 -0.3764 -0.5426
16351SOL    HW156293  10.561   0.739   6.193 -0.5441 -0.4135  0.1883
16351SOL    HW256294  10.424   0.713   6.133 -0.1613 -2.0489 -0.0116
16352SOL     OW56295   5.184   2.250   3.984 -0.0526  0.3815 -0.2664
16352SOL    HW156296   5.263   2.212   4.023  0.7675  3.3096  1.1554
16352SOL    HW256297   5.213   2.282   3.898 -0.1677 -0.0924 -0.4872
16353SOL     OW56298   2.316   0.189   8.646  0.1239  0.3134 -0.0208
16353SOL    HW156299   2.363   0.135   8.583 -0.8238  0.2300 -0.6746
16353SOL    HW256300   2.283   0.263   8.595  2.2904  2.1160  1.0487
16354SOL     OW56301   6.028  12.242   1.195 -0.3587 -0.2702  0.1808
16354SOL    HW156302   6.062  12.308   1.255  0.5580 -0.9783  0.4708
16354SOL    HW256303   6.014  12.165   1.250 -1.5448 -0.2929 -0.1238
16355SOL     OW56304   2.765   9.530   2.670  0.0906 -0.4189 -0.1566
16355SOL    HW156305   2.787   9.595   2.737 -1.6963 -0.7494  0.8197
16355SOL    HW256306   2.679   9.497   2.696  0.5204 -2.5136 -1.1212
16356SOL     OW56307  11.053   6.832   7.978 -0.0655 -0.7071  0.3761
16356SOL    HW156308  10.988   6.900   7.959  0.9847  0.3146  0.3613
16356SOL    HW256309  11.072   6.793   7.893 -0.7824 -1.1460  0.4051
16357SOL     OW56310   0.177   1.839   6.161 -0.4881 -0.3967  0.0662
16357SOL    HW156311   0.226   1.894   6.222 -0.0422 -0.5622 -0.1340
16357SOL    HW256312   0.181   1.752   6.200  0.6193 -0.6975 -0.6527
16358SOL     OW56313   0.689   9.158   1.891  0.1573 -0.4198 -0.1333
16358SOL    HW156314   0.602   9.118   1.896 -0.2466  0.4314 -0.1926
16358SOL    HW256315   0.748   9.085   1.876 -0.5180 -1.0445  0.1928
16359SOL     OW56316   2.777   9.073   6.694  0.1163  0.4467 -0.4116
16359SOL    HW156317   2.704   9.082   6.634 -1.2438 -3.1164  0.4472
16359SOL    HW256318   2.844   9.026   6.644  0.2921  0.3504 -0.0901
16360SOL     OW56319   6.196  10.035   4.397  0.4974 -0.5346  0.3106
16360SOL    HW156320   6.229  10.116   4.437  0.2654 -0.3880  0.2098
16360SOL    HW256321   6.132  10.065   4.332  2.2109 -0.6458 -1.5124
16361SOL     OW56322  11.693   7.818  10.310 -0.2261  0.8152 -0.1423
16361SOL    HW156323  11.657   7.742  10.355  0.2628  0.7519  0.1453
16361SOL    HW256324  11.620   7.851  10.257 -0.7622  0.8006  0.5763
16362SOL     OW56325   5.392  11.545   5.600 -0.2141 -0.4187  0.1272
16362SOL    HW156326   5.465  11.526   5.541 -0.5006 -0.4082 -0.2355
16362SOL    HW256327   5.379  11.463   5.649 -0.6375 -0.7691 -0.5539
16363SOL     OW56328   1.279   7.405   6.314  0.0001 -0.2680  0.1460
16363SOL    HW156329   1.315   7.468   6.251 -1.2574  0.4660  0.1043
16363SOL    HW256330   1.319   7.321   6.291  0.9210  0.3255 -0.4725
16364SOL     OW56331   7.914   1.365   1.282  0.4989 -0.1047 -0.0805
16364SOL    HW156332   7.979   1.319   1.230  0.1163  0.0325 -0.6895
16364SOL    HW256333   7.962   1.437   1.323  0.8211 -0.2731 -0.1634
16365SOL     OW56334   1.100  12.668   2.062 -0.2118  0.0078  0.1544
16365SOL    HW156335   1.021  12.705   2.023  0.9840 -0.4613 -2.9430
16365SOL    HW256336   1.164  12.739   2.060  0.7659 -0.8495 -1.7175
16366SOL     OW56337   5.070   2.228   8.123  0.0440 -0.2934 -0.0913
16366SOL    HW156338   5.114   2.301   8.167 -0.7416 -0.2231  0.5885
16366SOL    HW256339   5.121   2.215   8.043  0.7806  0.3567  0.2559
16367SOL     OW56340   1.321   0.584   3.840 -0.6004  0.2507  0.0846
16367SOL    HW156341   1.282   0.647   3.780 -1.2032 -0.0989  0.1011
16367SOL    HW256342   1.375   0.528   3.785  0.1671  0.9519  0.1099
16368SOL     OW56343   4.845   8.915   0.851 -0.1922 -0.2967 -0.4075
16368SOL    HW156344   4.822   9.001   0.888  0.2893 -1.3413  2.6776
16368SOL    HW256345   4.763   8.879   0.820 -0.9874  0.1079  1.1168
16369SOL     OW56346   6.155  12.092  10.560  0.0795  0.2800  0.2481
16369SOL    HW156347   6.065  12.119  10.540 -0.7021 -1.6629  0.9413
16369SOL    HW256348   6.172  12.018  10.501  2.0552  1.9001 -1.3874
16370SOL     OW56349   6.169   0.054   3.677 -0.2423  0.1796 -0.2390
16370SOL    HW156350   6.197   0.135   3.634 -0.6679 -0.6357 -2.1007
16370SOL    HW256351   6.085   0.076   3.718 -0.3290  0.6907 -0.6895
16371SOL     OW56352   5.559   5.645   9.810  0.0738  0.2413 -0.5017
16371SOL    HW156353   5.614   5.619   9.736  0.3559  0.0821 -0.2394
16371SOL    HW256354   5.530   5.562   9.848 -1.7377  0.2996 -1.6449
16372SOL     OW56355   0.910   4.648   0.001 -0.0425  0.0102  0.4611
16372SOL    HW156356   0.935   4.738  -0.018 -2.3875  0.6189 -0.0912
16372SOL    HW256357   0.883   4.649   0.092 -1.5681  0.2854  0.0345
16373SOL     OW56358   5.919   9.194   2.698  0.2826 -0.2021  0.1379
16373SOL    HW156359   5.846   9.159   2.648  0.5918 -1.4850  0.5570
16373SOL    HW256360   5.892   9.188   2.789  1.2679 -1.6257  0.3662
16374SOL     OW56361   2.626   8.641   7.456 -0.1525 -0.0437 -0.3651
16374SOL    HW156362   2.702   8.698   7.450  0.1323 -0.4585 -0.7301
16374SOL    HW256363   2.656   8.567   7.510 -0.5379  0.1790  0.1616
16375SOL     OW56364   5.528   8.265   2.540  0.3947 -0.0726  0.3713
16375SOL    HW156365   5.535   8.177   2.504  1.9452  0.4559 -0.7317
16375SOL    HW256366   5.567   8.259   2.627  0.7759 -0.4097  0.1774
16376SOL     OW56367   3.396   5.663  10.155 -0.2273  0.6420 -0.0987
16376SOL    HW156368   3.485   5.674  10.122  0.1862 -1.0190  0.3653
16376SOL    HW256369   3.373   5.749  10.192  1.4269  0.9124  0.3674
16377SOL     OW56370   0.779   8.018   6.413 -0.2081  0.6767  0.7431
16377SOL    HW156371   0.841   7.948   6.392  0.5454  0.9986  1.8562
16377SOL    HW256372   0.831   8.098   6.410 -1.0800  1.2333 -0.5881
16378SOL     OW56373   1.572   3.424   6.322 -0.0841 -0.3136 -0.1081
16378SOL    HW156374   1.495   3.479   6.309 -0.4430 -0.7004  0.3918
16378SOL    HW256375   1.555   3.377   6.403  1.0468  0.2100  0.4494
16379SOL     OW56376   9.407   4.469   0.588  0.3510 -0.3570 -0.2503
16379SOL    HW156377   9.316   4.439   0.588  0.4744 -0.7219  0.2511
16379SOL    HW256378   9.412   4.527   0.512 -0.8942  1.4286  0.9338
16380SOL     OW56379   9.164  12.692   8.811 -0.3274  0.4698 -0.0633
16380SOL    HW156380   9.209  12.747   8.747  3.4998 -0.1271  1.8513
16380SOL    HW256381   9.126  12.754   8.873 -1.3895  0.9581 -1.1446
16381SOL     OW56382   1.047  12.242   0.577  0.2720  0.3188 -0.3142
16381SOL    HW156383   1.109  12.190   0.525  1.2299  1.0596  0.0518
16381SOL    HW256384   1.097  12.270   0.653 -0.8345  0.0736  0.5330
16382SOL     OW56385   1.047   1.961   3.295 -0.1605 -0.3988  0.0885
16382SOL    HW156386   1.113   1.994   3.355  1.1677 -1.3612 -0.7872
16382SOL    HW256387   0.981   1.920   3.351 -0.1303  0.7525  0.9817
16383SOL     OW56388   7.838  11.343   2.660  0.3699 -0.2105 -0.1646
16383SOL    HW156389   7.829  11.270   2.722 -0.3542 -0.5639 -0.6721
16383SOL    HW256390   7.834  11.301   2.574 -0.9853  0.5093 -0.4858
16384SOL     OW56391   5.232   7.764   1.562  0.1679  0.1010  0.2731
16384SOL    HW156392   5.233   7.820   1.640 -0.8714 -0.9829  1.0840
16384SOL    HW256393   5.200   7.822   1.492  1.4285  1.1774  0.5349
16385SOL     OW56394   1.114  10.880   9.348  0.3245  0.6769  0.1545
16385SOL    HW156395   1.108  10.919   9.261  1.1896 -0.7273 -0.5757
16385SOL    HW256396   1.045  10.813   9.348  0.9988 -0.0297  0.1478
16386SOL     OW56397   2.935   5.776   6.684 -0.3280 -0.4401 -0.7118
16386SOL    HW156398   2.958   5.823   6.764  0.9943 -1.4326 -0.4664
16386SOL    HW256399   2.912   5.845   6.621 -0.6634  0.3866  0.2903
16387SOL     OW56400   0.928   3.792   3.606 -0.1404 -0.3441  0.1470
16387SOL    HW156401   0.889   3.730   3.543 -1.5018  0.3699  0.2456
16387SOL    HW256402   0.854   3.842   3.639  1.0240  2.2284 -0.8570
16388SOL     OW56403   4.600   9.676  12.343 -0.0600  0.2895 -0.0021
16388SOL    HW156404   4.588   9.679  12.438  0.2394  1.1011  0.0177
16388SOL    HW256405   4.567   9.590  12.317  0.1435 -0.0588  0.8774
16389SOL     OW56406   2.845   7.067   8.068  0.1006  0.1926  0.2659
16389SOL    HW156407   2.888   7.066   7.983 -0.9345  0.8717 -0.2833
16389SOL    HW256408   2.757   7.033   8.051 -0.9235  2.5305  0.5840
16390SOL     OW56409  12.044   4.643   0.932  0.0698  0.4888 -0.0592
16390SOL    HW156410  12.027   4.585   1.006  0.3412  3.6609  2.7123
16390SOL    HW256411  11.962   4.644   0.884 -0.1229 -1.6393  0.1124
16391SOL     OW56412   2.073   8.651  10.016 -0.7329 -0.3286 -0.0709
16391SOL    HW156413   2.011   8.669   9.946 -0.0696 -1.3751 -0.9647
16391SOL    HW256414   2.125   8.731  10.024  0.9472 -1.0301 -2.6677
16392SOL     OW56415   7.613   6.153  10.765  0.5142  0.1768 -0.3698
16392SOL    HW156416   7.670   6.133  10.691  1.2506  1.7557 -0.2677
16392SOL    HW256417   7.609   6.248  10.767 -1.3221  0.1206  0.2618
16393SOL     OW56418  11.779   2.338   5.359  0.7012  0.3253  0.2804
16393SOL    HW156419  11.714   2.389   5.311  1.0300 -1.0936 -1.8314
16393SOL    HW256420  11.822   2.401   5.416 -0.2940  1.9729 -0.7211
16394SOL     OW56421   7.091   0.784   0.040  0.5894  0.0795  0.3987
16394SOL    HW156422   7.183   0.775   0.014  0.7161  1.7069  0.1772
16394SOL    HW256423   7.084   0.874   0.074 -0.8406 -0.1376  0.7518
16395SOL     OW56424   8.960  10.358   5.902 -0.2120  0.2841  0.1941
16395SOL    HW156425   8.901  10.432   5.918  0.4309  1.3024 -1.8808
16395SOL    HW256426   8.904  10.289   5.868 -0.3287  1.1390 -1.4573
16396SOL     OW56427   0.209   1.880   9.939  0.2107  0.6330  0.4450
16396SOL    HW156428   0.264   1.821   9.990  0.8415  1.4406  0.7326
16396SOL    HW256429   0.181   1.829   9.864 -1.2566 -0.8051  1.8963
16397SOL     OW56430   2.931   1.627  12.623 -0.3544 -0.6271 -0.1845
16397SOL    HW156431   2.895   1.696  12.678  0.5650 -1.4508  1.5336
16397SOL    HW256432   3.016   1.607  12.663 -0.1337 -2.0071 -1.2813
16398SOL     OW56433  10.121   6.524   6.565 -0.0845  0.1368 -0.4238
16398SOL    HW156434  10.079   6.445   6.599  2.5161 -1.2734 -0.2165
16398SOL    HW256435  10.131   6.507   6.472 -1.1886  1.0665 -0.7210
16399SOL     OW56436   9.587   3.680  10.801 -0.0467  0.4687  0.7045
16399SOL    HW156437   9.619   3.761  10.841 -0.2697  1.1076 -0.3720
16399SOL    HW256438   9.650   3.662  10.731 -0.7309  0.4503  0.0808
16400SOL     OW56439   3.700   5.462  11.298  0.5784  0.5293  0.2404
16400SOL    HW156440   3.777   5.415  11.329  0.8708  1.4400  0.9633
16400SOL    HW256441   3.636   5.453  11.369  0.7691  1.4899  0.5587
16401SOL     OW56442  10.592  11.086   6.345 -0.1295 -0.2785  0.1529
16401SOL    HW156443  10.674  11.135   6.339  0.0608 -0.5147  0.6967
16401SOL    HW256444  10.620  10.995   6.356 -0.4032 -0.1842  2.1306
16402SOL     OW56445  10.015  11.281   3.337 -0.0766  0.3347 -0.5409
16402SOL    HW156446  10.091  11.336   3.358 -0.3784  0.4329  0.3099
16402SOL    HW256447  10.014  11.279   3.241 -0.1795  1.9778 -0.6116
16403SOL     OW56448  10.531   6.824   4.899  0.2639  0.0602  0.6954
16403SOL    HW156449  10.522   6.736   4.935 -0.8380  0.1992  0.8085
16403SOL    HW256450  10.620   6.827   4.863  0.3581 -1.0473  0.8109
16404SOL     OW56451  11.534   8.408   7.057  0.3351  0.0903  0.3754
16404SOL    HW156452  11.546   8.342   6.988  2.1657 -0.1263  0.8355
16404SOL    HW256453  11.442   8.434   7.050  0.1717 -0.7924 -1.3544
16405SOL     OW56454  12.145  10.767   8.210  0.1236  0.8311 -0.3289
16405SOL    HW156455  12.084  10.705   8.250  1.7836  0.0079  1.0205
16405SOL    HW256456  12.208  10.713   8.164  1.5619  1.4619  0.8164
16406SOL     OW56457   3.817   2.302   0.904 -0.7092 -0.0174 -0.0944
16406SOL    HW156458   3.775   2.225   0.867  3.2391 -2.5685  0.1791
16406SOL    HW256459   3.816   2.287   0.999  0.5620 -0.0483 -0.0754
16407SOL     OW56460   7.243   9.951  11.181 -0.4640  0.4672 -0.5133
16407SOL    HW156461   7.259  10.009  11.107  0.4757  1.5829  0.5310
16407SOL    HW256462   7.166   9.987  11.224  0.8294  1.7564  0.8488
16408SOL     OW56463   9.569   7.035   7.810 -0.1741 -0.0933 -0.5241
16408SOL    HW156464   9.649   7.035   7.757  0.4639 -0.7197  0.4116
16408SOL    HW256465   9.599   7.020   7.899 -1.2584  0.6933 -0.0064
16409SOL     OW56466  12.445   7.533   0.240 -0.3230 -0.0982  0.1346
16409SOL    HW156467  12.419   7.612   0.192  1.1614  0.1599 -0.3211
16409SOL    HW256468  12.364   7.497   0.274 -1.1724  0.9359 -0.7262
16410SOL     OW56469   6.414   6.177   7.406 -0.2314  0.0756  0.0739
16410SOL    HW156470   6.410   6.236   7.330 -0.6082  0.3319  0.2898
16410SOL    HW256471   6.362   6.101   7.379 -0.4565  0.2144  0.1154
16411SOL     OW56472   3.641   8.625  11.416 -0.1280  0.0120 -0.1674
16411SOL    HW156473   3.664   8.572  11.339 -0.2467  1.6283 -1.3544
16411SOL    HW256474   3.560   8.669  11.392  0.8756  2.1150  0.0515
16412SOL     OW56475   0.586   8.078   7.605  0.2344  0.1014  0.1321
16412SOL    HW156476   0.642   8.153   7.584 -0.8710  1.0819  0.5512
16412SOL    HW256477   0.581   8.078   7.700 -0.1559 -0.2149  0.1110
16413SOL     OW56478   8.115   3.932   9.577 -0.2049  0.2061  0.1248
16413SOL    HW156479   8.107   4.001   9.643 -0.5042  0.5429 -0.2596
16413SOL    HW256480   8.189   3.879   9.607 -0.5408  0.1593  0.9048
16414SOL     OW56481   1.250   9.665   5.923 -0.1710  0.2931  0.3813
16414SOL    HW156482   1.233   9.576   5.892  0.6913  0.3310 -0.2469
16414SOL    HW256483   1.164   9.703   5.939 -0.6775  0.2687 -1.9633
16415SOL     OW56484   6.436   8.620   2.267  0.3408 -0.8052  0.5171
16415SOL    HW156485   6.494   8.631   2.342  2.0055 -2.0962 -0.5016
16415SOL    HW256486   6.348   8.628   2.303  1.0609  3.1334  1.8256
16416SOL     OW56487  10.269   0.388   0.165  0.3586  0.0007  0.0475
16416SOL    HW156488  10.202   0.354   0.105  1.6997 -2.4572 -0.1771
16416SOL    HW256489  10.220   0.421   0.240 -1.1541 -0.5028 -0.6871
16417SOL     OW56490   6.877   4.237   6.877 -0.2656 -0.0791  0.6566
16417SOL    HW156491   6.880   4.143   6.893  0.3927 -0.4804 -1.4772
16417SOL    HW256492   6.854   4.275   6.962 -0.3645 -2.1309  1.6156
16418SOL     OW56493   7.076   9.555  10.864  0.2256  0.1989 -0.3697
16418SOL    HW156494   7.163   9.596  10.873  1.1897 -1.9293  0.8784
16418SOL    HW256495   7.044   9.586  10.780  1.8669  1.6625 -0.5282
16419SOL     OW56496   0.365  10.168   7.071  0.4457  0.4589  0.4682
16419SOL    HW156497   0.452  10.202   7.090  0.6434 -0.0126  0.4041
16419SOL    HW256498   0.356  10.177   6.976  0.8518 -0.4982  0.3317
16420SOL     OW56499   4.480  11.711  12.181 -0.1020  0.1299 -0.2059
16420SOL    HW156500   4.553  11.659  12.146 -0.3226 -0.2693 -0.0907
16420SOL    HW256501   4.506  11.802  12.168  0.0993 -0.0101 -0.8239
16421SOL     OW56502   9.073   4.386   5.109  0.3528 -0.3425  0.4899
16421SOL    HW156503   8.987   4.344   5.102  0.3601 -0.2197 -0.3333
16421SOL    HW256504   9.135   4.316   5.088  0.3318  0.2717 -1.8096
16422SOL     OW56505   8.989   4.209   0.168 -0.0173 -0.1772 -0.5693
16422SOL    HW156506   8.976   4.116   0.149 -0.6182 -0.0003 -1.0546
16422SOL    HW256507   9.050   4.239   0.101 -0.2073 -0.1155 -0.7169
16423SOL     OW56508  10.975   9.111   8.988 -0.8026  0.1557  0.0042
16423SOL    HW156509  11.001   9.019   8.995 -0.6863  0.1913  0.0351
16423SOL    HW256510  11.048   9.160   9.025 -0.9536  0.2498  0.1812
16424SOL     OW56511  11.633   0.446   0.034  0.6096  0.2131 -0.4640
16424SOL    HW156512  11.570   0.380   0.062  0.3654  0.9309  0.7564
16424SOL    HW256513  11.589   0.530   0.049  1.7962  0.7304  0.3587
16425SOL     OW56514   3.426   8.853   5.661 -0.2785 -0.1886  0.0200
16425SOL    HW156515   3.495   8.902   5.617 -1.3950  0.6404 -0.8550
16425SOL    HW256516   3.351   8.911   5.661 -1.6860 -1.8821 -1.1459
16426SOL     OW56517   7.446  11.013   8.708  0.1460 -0.4474  0.5248
16426SOL    HW156518   7.360  11.048   8.684  0.3493 -0.6004 -0.4645
16426SOL    HW256519   7.464  10.946   8.642  0.8955 -0.6244  0.9004
16427SOL     OW56520   7.696   3.470   6.902 -0.5063  0.5971  0.3963
16427SOL    HW156521   7.683   3.377   6.917  2.4617 -0.2573 -1.4303
16427SOL    HW256522   7.623   3.496   6.845  0.2919 -1.4364 -1.6762
16428SOL     OW56523   5.042   8.596  12.069 -0.0059 -0.0471  0.6203
16428SOL    HW156524   5.016   8.582  11.978  0.2061  0.2120  0.5199
16428SOL    HW256525   5.106   8.667  12.065 -1.1704  1.0576  1.1374
16429SOL     OW56526  10.072   3.111   7.152 -0.1584  0.3508  0.1712
16429SOL    HW156527  10.032   3.198   7.152 -0.9455  0.0715 -2.0426
16429SOL    HW256528  10.166   3.127   7.145 -0.3357  1.0545 -0.8648
16430SOL     OW56529   7.756  10.194   8.267 -0.7647 -0.4373  0.7343
16430SOL    HW156530   7.733  10.287   8.263 -2.4194 -0.7824  1.4271
16430SOL    HW256531   7.834  10.186   8.212 -2.6142  0.7299 -2.2904
16431SOL     OW56532  10.152   8.799   1.348 -0.0155 -0.4468 -0.5521
16431SOL    HW156533  10.195   8.723   1.309 -0.4987 -1.8963  1.5776
16431SOL    HW256534  10.142   8.777   1.440  0.1593  2.3964  0.2396
16432SOL     OW56535   2.135  10.855   5.844  0.1958  0.6127 -0.0005
16432SOL    HW156536   2.041  10.860   5.825  0.0731  1.2671  0.7242
16432SOL    HW256537   2.177  10.881   5.762 -0.2269 -0.5529 -0.6081
16433SOL     OW56538  10.237   4.082  11.196 -0.0644 -0.1358  0.6062
16433SOL    HW156539  10.169   4.024  11.231 -0.1384 -2.2014 -2.5324
16433SOL    HW256540  10.206   4.104  11.108  2.4519  0.3903 -0.2227
16434SOL     OW56541   2.707   5.878   3.974 -0.3401 -0.1102 -0.4488
16434SOL    HW156542   2.729   5.865   3.882 -1.2091  2.3026 -1.0615
16434SOL    HW256543   2.758   5.954   4.001 -1.5396  0.3940  0.4940
16435SOL     OW56544   4.063   5.220   2.579 -0.4628  0.1207  0.0941
16435SOL    HW156545   4.051   5.290   2.643 -1.1624 -0.5979  0.7808
16435SOL    HW256546   4.156   5.200   2.583 -0.6209 -0.4560  1.5099
16436SOL     OW56547   8.074   8.107   5.794  0.2201 -0.2346 -0.0617
16436SOL    HW156548   7.984   8.123   5.824 -0.2144 -0.8521 -0.9933
16436SOL    HW256549   8.067   8.104   5.699  0.9860 -1.6373 -0.0932
16437SOL     OW56550   7.201   5.390   0.497  0.0622 -0.2245  0.5062
16437SOL    HW156551   7.120   5.364   0.542  0.4496 -1.1156  0.7059
16437SOL    HW256552   7.241   5.307   0.469  0.8227  0.2170  0.2517
16438SOL     OW56553   2.847   9.410   6.299 -0.2899  0.1628  0.5961
16438SOL    HW156554   2.903   9.465   6.354 -0.2988  0.8082 -0.0232
16438SOL    HW256555   2.844   9.326   6.344  0.3264  0.4441  1.1792
16439SOL     OW56556   1.274   6.708   1.520 -0.0273  0.2263  0.2703
16439SOL    HW156557   1.266   6.683   1.428 -0.0490  2.0449 -0.2640
16439SOL    HW256558   1.368   6.719   1.533 -0.0935  1.0089  0.1454
16440SOL     OW56559   4.924   0.210   5.520  0.6588 -0.5973  0.4154
16440SOL    HW156560   4.992   0.143   5.525  3.1941  1.6717 -1.2004
16440SOL    HW256561   4.928   0.242   5.430 -0.4733  1.6676  1.1009
16441SOL     OW56562  12.181  10.227   7.493 -0.3972 -0.5116 -0.1732
16441SOL    HW156563  12.192  10.209   7.586 -1.1248  1.9178  0.4780
16441SOL    HW256564  12.260  10.193   7.452  0.5008 -0.5800  1.5165
16442SOL     OW56565  12.269  12.411   9.397 -0.1481  0.1468 -0.0409
16442SOL    HW156566  12.303  12.463   9.470  0.7221  0.0342 -0.3559
16442SOL    HW256567  12.181  12.386   9.425 -0.7678  2.1370 -0.0573
16443SOL     OW56568   3.753  11.926  11.601  0.2481  0.5613 -0.8180
16443SOL    HW156569   3.782  12.008  11.642 -0.3196  0.2209  0.2886
16443SOL    HW256570   3.665  11.911  11.636  0.9334 -1.3349  0.2260
16444SOL     OW56571   8.049   6.675   0.907 -0.4214 -0.4473 -0.0305
16444SOL    HW156572   8.032   6.584   0.881 -0.4018 -1.1356  2.2005
16444SOL    HW256573   8.060   6.671   1.002  0.6598  1.7462 -0.0167
16445SOL     OW56574  10.920   5.843   0.620 -0.4490 -0.2356  0.3255
16445SOL    HW156575  10.903   5.792   0.541 -0.2427  0.0460  0.0991
16445SOL    HW256576  11.004   5.886   0.604 -0.2008 -0.5057  0.8655
16446SOL     OW56577   5.893   1.978   2.770 -0.1120 -0.0934 -0.0168
16446SOL    HW156578   5.890   1.894   2.816  1.5843 -0.9083 -1.2784
16446SOL    HW256579   5.912   1.954   2.679  1.0152  1.6893 -0.2824
16447SOL     OW56580  10.619   4.292   1.374 -0.3433 -0.0200  0.6396
16447SOL    HW156581  10.564   4.214   1.369  0.6871 -0.7204 -0.1183
16447SOL    HW256582  10.709   4.258   1.372  0.1191  1.1964  0.1405
16448SOL     OW56583   4.780   1.514   8.003  0.5223 -0.4329 -0.2243
16448SOL    HW156584   4.693   1.500   7.966 -0.1303 -0.5636  1.2818
16448SOL    HW256585   4.809   1.426   8.028 -0.1165 -0.1346  1.7723
16449SOL     OW56586   8.886   8.989   2.448 -0.1423 -0.1469 -0.4680
16449SOL    HW156587   8.881   9.063   2.387  0.6868 -0.5130 -0.9993
16449SOL    HW256588   8.798   8.952   2.448 -0.1574 -0.1218 -1.4239
16450SOL     OW56589   8.474  11.288  11.482 -0.2204 -0.0455 -0.2058
16450SOL    HW156590   8.479  11.192  11.482 -0.8397 -0.0838 -0.2319
16450SOL    HW256591   8.380  11.306  11.487 -0.0480  0.5620  1.8801
16451SOL     OW56592  12.670   5.294   0.122  0.4562  0.3749  0.0778
16451SOL    HW156593  12.621   5.373   0.101  1.5505  0.9809 -0.2502
16451SOL    HW256594  12.729   5.282   0.048  0.0464 -0.9715 -0.0626
16452SOL     OW56595  10.815   5.456   8.339  0.0560 -0.5512  0.1269
16452SOL    HW156596  10.794   5.378   8.288  2.6928 -1.0745 -0.2981
16452SOL    HW256597  10.783   5.436   8.427  0.4551 -2.0386 -0.0306
16453SOL     OW56598  12.026  11.597   1.399  0.3038 -0.5410  0.3671
16453SOL    HW156599  12.103  11.586   1.454  0.5753 -1.7632 -0.2251
16453SOL    HW256600  11.953  11.608   1.460  1.1084  2.3013  0.9591
16454SOL     OW56601   8.145  10.827   3.404  0.9890 -0.4797 -0.2667
16454SOL    HW156602   8.185  10.906   3.367 -0.1607 -0.1541 -0.8349
16454SOL    HW256603   8.202  10.804   3.477  0.5185  1.7543  0.8752
16455SOL     OW56604   8.148   8.632   9.268 -0.2602 -0.2055 -0.2524
16455SOL    HW156605   8.204   8.614   9.344 -0.6813 -0.1020  0.0853
16455SOL    HW256606   8.188   8.709   9.228  0.0091 -0.3042 -0.1795
16456SOL     OW56607  10.201   2.190   1.835 -0.7479  0.1095  0.3818
16456SOL    HW156608  10.231   2.121   1.776 -0.2429  0.3481  0.3570
16456SOL    HW256609  10.109   2.169   1.851 -0.8085 -0.1292 -0.2498
16457SOL     OW56610  10.783  10.129  11.360  1.0392  0.1357 -0.0061
16457SOL    HW156611  10.797  10.051  11.306 -0.4226  0.4052 -0.8414
16457SOL    HW256612  10.724  10.101  11.429 -1.8844  1.0594 -1.9560
16458SOL     OW56613   5.742   2.681   0.518  0.8200 -0.1853  0.1384
16458SOL    HW156614   5.770   2.661   0.429  2.3662  0.7199  0.3784
16458SOL    HW256615   5.715   2.773   0.514  1.1814 -0.0483  0.6368
16459SOL     OW56616   5.008   7.352   2.803  0.1414  0.5671  0.5402
16459SOL    HW156617   4.933   7.397   2.841 -0.1482 -0.1195  0.8078
16459SOL    HW256618   5.038   7.409   2.733 -1.4864  0.2290 -0.4828
16460SOL     OW56619   5.264   9.253   4.803  0.6285 -0.1952 -0.3443
16460SOL    HW156620   5.191   9.241   4.742  1.1006  0.1778 -0.9864
16460SOL    HW256621   5.222   9.257   4.889 -0.0550 -0.5819 -0.6475
16461SOL     OW56622   0.138   8.454   0.675  0.4005 -0.8360 -0.4535
16461SOL    HW156623   0.154   8.388   0.742  0.1742  1.1435  1.6718
16461SOL    HW256624   0.048   8.483   0.690  1.3254  1.8555  0.5712
16462SOL     OW56625   6.237   1.278   4.093 -0.1264 -0.0535  0.2122
16462SOL    HW156626   6.147   1.249   4.112  0.3900 -2.2936 -0.4829
16462SOL    HW256627   6.253   1.248   4.003  0.6016  2.2718 -0.4989
16463SOL     OW56628   9.406  10.885   9.292  0.5924 -0.1796  0.2203
16463SOL    HW156629   9.355  10.920   9.366  0.6006  0.6641 -0.1643
16463SOL    HW256630   9.493  10.922   9.304  1.1262 -1.5446  0.8211
16464SOL     OW56631   6.139   7.282   4.769  0.0644  0.5349  0.3694
16464SOL    HW156632   6.074   7.226   4.725  0.2440  0.6297 -0.0192
16464SOL    HW256633   6.213   7.224   4.785 -0.1440  0.4071  0.8840
16465SOL     OW56634   8.892  10.064   0.902  0.2381 -0.0193  0.6062
16465SOL    HW156635   8.834  10.139   0.888 -0.0891  0.1634  2.5575
16465SOL    HW256636   8.927  10.044   0.816 -3.0847 -0.4626 -0.7787
16466SOL     OW56637   6.534   5.548   6.846  0.4454 -0.3979 -0.6104
16466SOL    HW156638   6.614   5.558   6.794  1.2949  0.7767  0.8472
16466SOL    HW256639   6.502   5.637   6.859  0.0857 -0.6802  0.6038
16467SOL     OW56640   3.441  10.497   1.321  0.0350 -0.3346 -0.0501
16467SOL    HW156641   3.394  10.571   1.284 -0.3633 -0.2610  0.5881
16467SOL    HW256642   3.492  10.461   1.248 -0.2385  0.1944 -0.5023
16468SOL     OW56643  10.457   3.273   7.860  0.3853 -0.1135 -0.2857
16468SOL    HW156644  10.395   3.204   7.837  1.0001 -0.4698 -0.9273
16468SOL    HW256645  10.503   3.292   7.778  0.5979  0.6824  0.0057
16469SOL     OW56646   7.543   0.706  11.606  0.4565  0.3983  0.7761
16469SOL    HW156647   7.451   0.680  11.596  1.1615 -1.4132 -2.2037
16469SOL    HW256648   7.538   0.792  11.649 -2.4754 -0.4327  2.4430
16470SOL     OW56649   6.632   1.569   8.374  0.4466  0.3948 -0.2274
16470SOL    HW156650   6.713   1.615   8.353  0.5719 -0.3365 -1.4523
16470SOL    HW256651   6.631   1.493   8.315 -0.5823 -0.2240  0.5418
16471SOL     OW56652   2.676   5.705   6.732 -0.0008  0.1098  0.5284
16471SOL    HW156653   2.764   5.743   6.723 -0.1765  0.6676  1.0923
16471SOL    HW256654   2.640   5.746   6.811 -0.2181 -1.2165  1.1464
16472SOL     OW56655   2.505   2.034   8.003  0.8681 -0.0609  0.4057
16472SOL    HW156656   2.539   2.123   7.997  0.2373  0.1552 -0.0922
16472SOL    HW256657   2.483   2.010   7.913 -0.7795  0.0252  0.7438
16473SOL     OW56658   9.075   4.368   7.857  0.0474 -0.0233 -0.1521
16473SOL    HW156659   9.008   4.437   7.863  1.3448  1.2583  0.1117
16473SOL    HW256660   9.035   4.292   7.900 -1.5843  0.4161 -0.8321
16474SOL     OW56661  12.092   5.496   0.969 -0.1659  0.1518  0.0033
16474SOL    HW156662  12.160   5.553   0.932  0.1442 -0.6849 -0.7329
16474SOL    HW256663  12.119   5.407   0.945 -1.1467 -0.2451  0.3301
16475SOL     OW56664  11.016   9.532   7.451  0.1184  0.0873 -0.2564
16475SOL    HW156665  10.961   9.454   7.451  0.3940 -0.1182  0.8931
16475SOL    HW256666  10.969   9.594   7.396 -0.1637 -0.8386 -1.0911
16476SOL     OW56667  11.913   6.074   1.596 -0.0156 -0.9704 -0.0545
16476SOL    HW156668  11.882   6.038   1.513  1.5097  0.6369 -1.3762
16476SOL    HW256669  11.836   6.069   1.653 -1.3580 -1.3840 -1.7926
16477SOL     OW56670   0.300   2.214   6.004  0.0594 -0.6363  0.5817
16477SOL    HW156671   0.229   2.274   6.024 -0.3454 -0.8573 -0.1560
16477SOL    HW256672   0.379   2.259   6.034 -0.1944  0.4225 -0.2856
16478SOL     OW56673   3.761   3.871   4.116  0.0143  0.6676 -0.0460
16478SOL    HW156674   3.816   3.802   4.154 -0.3478  0.0819 -0.5531
16478SOL    HW256675   3.823   3.938   4.086  0.5920 -0.6033 -1.8695
16479SOL     OW56676   9.099   1.535   5.661 -0.1914 -0.4023 -0.1679
16479SOL    HW156677   9.012   1.542   5.621 -1.6707  1.5832  2.9882
16479SOL    HW256678   9.154   1.596   5.611 -1.5888  0.9699 -0.0973
16480SOL     OW56679  12.555   7.198   8.645  0.5163 -0.0305 -0.1346
16480SOL    HW156680  12.505   7.124   8.680 -0.9515  0.4760 -1.0666
16480SOL    HW256681  12.514   7.275   8.686  0.4475  0.4021 -0.9955
16481SOL     OW56682   2.737   0.415  12.539 -0.0146  0.1067 -0.1676
16481SOL    HW156683   2.731   0.365  12.621  1.0561  1.1768  0.5963
16481SOL    HW256684   2.823   0.456  12.542 -0.6813  1.6366 -0.9784
16482SOL     OW56685  10.113   2.385  11.705 -0.0021 -0.1688 -0.2561
16482SOL    HW156686  10.120   2.468  11.658  2.4707 -0.2398 -0.1220
16482SOL    HW256687  10.127   2.408  11.797 -1.5073 -0.4934  0.0945
16483SOL     OW56688  10.183   5.575   3.777  0.9223  0.1558  0.0256
16483SOL    HW156689  10.157   5.625   3.700 -1.2745  1.1565  1.3160
16483SOL    HW256690  10.181   5.639   3.848 -1.7424 -1.5894  1.6906
16484SOL     OW56691  10.379   2.036  12.202  0.0136  0.1944  0.4796
16484SOL    HW156692  10.467   2.009  12.229  0.0113 -0.3589 -0.0568
16484SOL    HW256693  10.395   2.111  12.144  0.0952  0.4602  0.8389
16485SOL     OW56694   9.125   0.458   0.751 -0.1778  0.4437 -0.1683
16485SOL    HW156695   9.129   0.400   0.827 -2.7728 -0.5795 -0.7028
16485SOL    HW256696   9.210   0.449   0.709  1.2318  0.8023  2.3769
16486SOL     OW56697   1.954   9.201   6.509  0.1447 -0.2739  0.5478
16486SOL    HW156698   1.991   9.244   6.432  0.2097 -1.2005  0.0409
16486SOL    HW256699   1.936   9.272   6.571  0.7304  0.4097 -0.0549
16487SOL     OW56700  10.131   3.874   8.313 -0.5162  0.4164  0.2924
16487SOL    HW156701  10.210   3.858   8.262  1.9054  3.5454  2.7119
16487SOL    HW256702  10.086   3.944   8.267  0.3426  1.4957  1.0668
16488SOL     OW56703   1.898   5.234   7.677  0.2242  0.1966 -0.3242
16488SOL    HW156704   1.955   5.194   7.743  1.5108  0.2186 -1.3655
16488SOL    HW256705   1.812   5.240   7.719  0.8776 -0.2699  1.1434
16489SOL     OW56706   1.060   5.770   0.515 -0.4498 -0.3730 -0.1422
16489SOL    HW156707   1.054   5.746   0.423 -0.8493  1.5308 -0.6691
16489SOL    HW256708   1.042   5.864   0.516  0.3881 -0.1835  1.7914
16490SOL     OW56709   1.261   4.020  11.952 -0.2387 -0.0350 -0.5197
16490SOL    HW156710   1.293   3.935  11.920 -0.3405 -0.4893  0.5497
16490SOL    HW256711   1.227   4.001  12.039  0.7930  1.3257  0.2085
16491SOL     OW56712   9.812   6.592  10.287 -0.3614 -0.0444  0.3970
16491SOL    HW156713   9.884   6.538  10.257  2.3634  3.7134 -0.5850
16491SOL    HW256714   9.836   6.620  10.375  0.0143  2.0155 -0.2925
16492SOL     OW56715  11.969   1.277   1.192  0.5284  0.1991 -0.5579
16492SOL    HW156716  11.879   1.287   1.223  0.2999 -1.6373 -0.5170
16492SOL    HW256717  12.020   1.264   1.271  0.4368 -1.1811 -0.6952
16493SOL     OW56718   5.429   8.757   1.771  0.0953  0.4587  0.0678
16493SOL    HW156719   5.469   8.740   1.856 -2.1451 -1.5639  0.8362
16493SOL    HW256720   5.365   8.686   1.760 -0.0381  0.9379 -3.0957
16494SOL     OW56721   2.704   4.770   9.329  0.1026  0.1345  0.0151
16494SOL    HW156722   2.657   4.849   9.303  1.2382  0.3310 -1.5861
16494SOL    HW256723   2.663   4.743   9.411 -1.5828  1.2876 -0.4122
16495SOL     OW56724  11.697  11.403   0.020 -0.5628 -0.3600 -0.1432
16495SOL    HW156725  11.755  11.425  -0.053 -0.9733 -2.0173 -1.0178
16495SOL    HW256726  11.752  11.411   0.098  0.2264  0.2033 -0.7435
16496SOL     OW56727   0.601   6.509   1.194  0.2804 -0.4261 -0.0493
16496SOL    HW156728   0.670   6.494   1.129 -0.0148  0.5988 -0.6150
16496SOL    HW256729   0.623   6.449   1.266  1.9407  0.0834 -0.0770
16497SOL     OW56730   7.386   6.431   3.190  0.0104 -0.1500  0.2986
16497SOL    HW156731   7.320   6.370   3.224 -0.0868 -0.5917 -0.6561
16497SOL    HW256732   7.434   6.381   3.124  0.6051  0.4974  0.2257
16498SOL     OW56733   9.589   9.286   8.210  0.0445  0.7815 -0.3844
16498SOL    HW156734   9.638   9.329   8.280 -1.1551 -0.0417  1.0023
16498SOL    HW256735   9.499   9.318   8.219 -0.5884 -0.9430 -0.1610
16499SOL     OW56736  11.596   0.710   5.915 -0.3968  0.0104 -0.4357
16499SOL    HW156737  11.596   0.750   6.002 -0.6419 -1.3619  0.2309
16499SOL    HW256738  11.639   0.626   5.928  2.7670  1.1611 -2.3935
16500SOL     OW56739   6.954   0.322   2.860 -0.7189  0.1806 -0.1298
16500SOL    HW156740   7.041   0.283   2.856 -0.3716  0.6573  1.8197
16500SOL    HW256741   6.896   0.254   2.828  0.2623 -0.5653 -0.3677
16501SOL     OW56742   8.515   1.048   8.974  0.3535 -0.4094 -0.0295
16501SOL    HW156743   8.479   1.016   8.892  0.6395  1.4942 -0.9507
16501SOL    HW256744   8.462   1.125   8.995  0.6939 -0.4893  1.2485
16502SOL     OW56745   2.158  10.463   0.227  0.2127 -0.3005  0.1342
16502SOL    HW156746   2.083  10.418   0.267 -1.3937  3.3662  1.7272
16502SOL    HW256747   2.229  10.451   0.290 -0.6828  0.7183  1.3945
16503SOL     OW56748   5.372   7.441  11.168 -0.0747  0.9126  0.3406
16503SOL    HW156749   5.426   7.411  11.241  0.6366  1.4915  0.0674
16503SOL    HW256750   5.412   7.400  11.091 -0.7104  0.4477  0.2512
16504SOL     OW56751   4.606   4.531   4.951  0.0142  0.4626  0.5685
16504SOL    HW156752   4.530   4.477   4.930 -0.5386  0.6353  2.0231
16504SOL    HW256753   4.570   4.617   4.972  0.2625 -0.0866  3.7694
16505SOL     OW56754  12.471  12.636   4.813 -0.0926  0.7523  0.1781
16505SOL    HW156755  12.525  12.711   4.790 -0.9784  1.4319  0.2823
16505SOL    HW256756  12.417  12.666   4.886 -0.4012 -0.0127  0.2813
16506SOL     OW56757  11.608   8.386   7.873 -0.0187 -0.0791 -0.1838
16506SOL    HW156758  11.604   8.458   7.936 -0.5960 -1.5080  1.5169
16506SOL    HW256759  11.590   8.427   7.788  0.5404  1.8839  0.5851
16507SOL     OW56760   5.780   9.761  10.737 -0.2597  0.0164 -0.4560
16507SOL    HW156761   5.721   9.725  10.804  0.9110 -1.6310 -0.2652
16507SOL    HW256762   5.729   9.831  10.697 -1.5081  0.1517  1.2293
16508SOL     OW56763   7.883   1.896   3.339 -0.0599  0.0777  0.0678
16508SOL    HW156764   7.914   1.933   3.256 -1.9121  0.8135 -0.3322
16508SOL    HW256765   7.909   1.960   3.405 -0.2707  0.4206 -0.1843
16509SOL     OW56766   8.474  10.445  12.379  0.4840 -0.0529  0.0048
16509SOL    HW156767   8.523  10.513  12.333  0.8772 -1.3828 -1.6890
16509SOL    HW256768   8.431  10.490  12.452  1.1613  1.8720 -0.7270
16510SOL     OW56769  10.930  12.124  10.572 -0.2303  0.3744 -0.2915
16510SOL    HW156770  10.974  12.200  10.611  0.7335 -1.2365  1.9224
16510SOL    HW256771  10.845  12.121  10.616  0.0866 -0.3200  0.2867
16511SOL     OW56772   3.735   5.890   5.647 -0.6966  0.1120 -0.1548
16511SOL    HW156773   3.829   5.891   5.667 -1.0175  1.5960  1.5623
16511SOL    HW256774   3.729   5.929   5.559  0.3697 -1.4391 -0.9674
16512SOL     OW56775   6.201  12.204  10.825  0.2905 -0.3273  0.3406
16512SOL    HW156776   6.291  12.181  10.850 -0.3921 -1.6423  1.8550
16512SOL    HW256777   6.193  12.174  10.735  1.9368  1.6311 -0.5181
16513SOL     OW56778  11.254   6.745   5.337 -0.2316  0.3429 -0.2743
16513SOL    HW156779  11.302   6.701   5.407 -0.8458 -0.9276 -0.6212
16513SOL    HW256780  11.169   6.766   5.375 -0.4355 -0.0230 -0.5236
16514SOL     OW56781   4.815   7.445  11.643 -0.1299  0.3061  0.3063
16514SOL    HW156782   4.819   7.418  11.551 -1.7791  0.3452  0.1932
16514SOL    HW256783   4.865   7.527  11.646  1.9197 -0.8553 -0.0545
16515SOL     OW56784  11.100   0.305   7.504  0.5140  0.4653  0.0904
16515SOL    HW156785  11.094   0.319   7.409 -0.5448  0.3740  0.1345
16515SOL    HW256786  11.194   0.299   7.521  0.7377  0.9542 -0.8847
16516SOL     OW56787   4.289   6.763  11.771 -0.1254 -0.1543  0.2839
16516SOL    HW156788   4.213   6.731  11.818 -0.4611 -1.5903 -1.1294
16516SOL    HW256789   4.315   6.842  11.817 -0.2105 -1.6184  3.0594
16517SOL     OW56790   9.255  10.217   5.702 -0.5705 -0.1520 -0.0009
16517SOL    HW156791   9.331  10.250   5.750 -0.8643  1.3492 -0.5130
16517SOL    HW256792   9.196  10.184   5.770 -1.3573  2.7075  0.8528
16518SOL     OW56793   5.304   7.904   0.896 -0.4364  0.2600 -1.0463
16518SOL    HW156794   5.399   7.896   0.883 -0.5501 -0.8159 -1.2953
16518SOL    HW256795   5.289   7.871   0.984 -0.7478 -1.0155 -1.5577
16519SOL     OW56796   7.527   5.828   6.783 -0.0887  0.1315 -0.4578
16519SOL    HW156797   7.471   5.810   6.708 -0.7940 -0.7469  0.2484
16519SOL    HW256798   7.508   5.919   6.806 -1.4245 -0.2064 -0.1034
16520SOL     OW56799   6.266   3.278   2.182  0.5148 -0.3863 -0.0981
16520SOL    HW156800   6.268   3.365   2.143  2.3761 -0.2447  0.2606
16520SOL    HW256801   6.213   3.226   2.121 -0.8047  0.9986 -0.2085
16521SOL     OW56802   1.890   0.916  12.405 -0.7789  0.5299 -0.1717
16521SOL    HW156803   1.898   1.004  12.443  0.4126 -0.0139  0.9268
16521SOL    HW256804   1.811   0.920  12.351 -1.1221  2.0779  0.3888
16522SOL     OW56805  12.134  12.113   4.028 -0.2826  0.0772 -0.1501
16522SOL    HW156806  12.135  12.149   4.117  1.9980  0.4353 -0.2593
16522SOL    HW256807  12.146  12.019   4.040  0.7865  0.2154 -0.0917
16523SOL     OW56808   9.957   0.658   8.733 -0.3064  0.2819  0.6059
16523SOL    HW156809   9.932   0.624   8.647 -1.3450  1.6905  0.3114
16523SOL    HW256810  10.052   0.661   8.730 -0.2932 -0.4090 -0.2122
16524SOL     OW56811   9.500   0.946  10.364  1.1615  0.2564  0.6238
16524SOL    HW156812   9.559   0.938  10.438  2.2331  2.2268  0.0508
16524SOL    HW256813   9.454   1.029  10.378  1.2331  0.5633 -0.8028
16525SOL     OW56814  11.809   9.457  10.092  0.3548 -0.2867  0.2476
16525SOL    HW156815  11.863   9.462  10.012  2.2106 -1.2765  1.3653
16525SOL    HW256816  11.813   9.365  10.117 -2.2446 -0.4848  0.2045
16526SOL     OW56817   6.596   5.682   4.054  0.2820  0.6296  0.5675
16526SOL    HW156818   6.598   5.718   3.965  1.6575 -1.4733 -0.3227
16526SOL    HW256819   6.688   5.667   4.076 -0.1060  0.0877  1.9237
16527SOL     OW56820  10.044   0.779   1.780  0.3737 -0.4761  0.1999
16527SOL    HW156821   9.993   0.700   1.764  0.0510 -0.1360 -0.5079
16527SOL    HW256822  10.132   0.758   1.747  0.2881 -0.5456  0.0118
16528SOL     OW56823   1.314   2.109   4.373  0.2354 -0.2055  0.4032
16528SOL    HW156824   1.376   2.037   4.365  3.1228  2.0220  1.1382
16528SOL    HW256825   1.235   2.077   4.329  2.2608 -2.7657 -1.7351
16529SOL     OW56826   6.080   3.216   4.370 -0.1206  0.4675 -0.2022
16529SOL    HW156827   6.003   3.232   4.425 -0.3169  1.7237 -0.8146
16529SOL    HW256828   6.054   3.143   4.314 -0.8077  0.7792 -0.3004
16530SOL     OW56829  11.478   9.870  11.733  0.0365 -0.1271 -0.2837
16530SOL    HW156830  11.438   9.784  11.745  1.8023 -0.8851  0.4634
16530SOL    HW256831  11.539   9.878  11.806  1.1368  1.0468 -1.2955
16531SOL     OW56832   4.524   2.796  12.633 -0.2628  0.3835 -0.4605
16531SOL    HW156833   4.548   2.889  12.637  3.4258 -0.4297 -0.0289
16531SOL    HW256834   4.520   2.769  12.725  0.2768 -0.1965 -0.5991
16532SOL     OW56835   7.591   6.242   7.041 -0.2253  0.1965 -0.3609
16532SOL    HW156836   7.674   6.208   7.075  0.6728  1.7928 -0.8586
16532SOL    HW256837   7.561   6.174   6.980  2.0609  0.6747 -2.1865
16533SOL     OW56838   7.965  10.851   2.539  0.2396  0.1893 -0.1974
16533SOL    HW156839   7.959  10.905   2.461 -2.0604  0.8697  0.4014
16533SOL    HW256840   7.908  10.776   2.521  0.0460  0.1250  0.6564
16534SOL     OW56841  12.511   5.202   9.761 -0.7686 -0.1338  0.3931
16534SOL    HW156842  12.573   5.171   9.695 -1.3548  0.2977 -0.3856
16534SOL    HW256843  12.427   5.169   9.731 -1.2692  1.3393  0.0649
16535SOL     OW56844   3.304  10.462   5.685 -0.0176 -0.3153 -0.6235
16535SOL    HW156845   3.385  10.438   5.639  1.2077  1.1240  0.6716
16535SOL    HW256846   3.329  10.465   5.777 -1.0189  2.0498 -0.3721
16536SOL     OW56847   3.264  12.435   2.615 -0.3996 -0.3580 -0.7186
16536SOL    HW156848   3.216  12.410   2.694 -0.0940  0.5721 -0.2332
16536SOL    HW256849   3.281  12.528   2.625  0.3552 -0.3982 -1.5035
16537SOL     OW56850  12.385   6.607   1.310 -0.0492  1.4219  0.3726
16537SOL    HW156851  12.316   6.665   1.279 -1.4187 -0.4870 -0.3375
16537SOL    HW256852  12.342   6.549   1.373  0.1124 -1.5100 -1.9427
16538SOL     OW56853   5.563   3.769  12.566  0.4416 -0.2756 -0.0334
16538SOL    HW156854   5.638   3.827  12.553 -0.5576  1.4159  1.3719
16538SOL    HW256855   5.601   3.687  12.598  1.6385  1.0234  2.0437
16539SOL     OW56856   6.031   2.795   9.843  0.1831  0.7432 -0.0378
16539SOL    HW156857   5.962   2.728   9.840  2.0056 -1.1976 -1.3136
16539SOL    HW256858   6.023   2.841   9.759  0.5725  0.3863 -0.2687
16540SOL     OW56859   8.433   8.284   8.847  0.0098  0.0690  0.1203
16540SOL    HW156860   8.495   8.255   8.781 -0.1257  3.3319 -1.6158
16540SOL    HW256861   8.470   8.253   8.930  2.5077 -0.3762 -1.0777
16541SOL     OW56862  11.991   1.650   6.182  0.4956 -0.3223  0.5589
16541SOL    HW156863  11.983   1.557   6.161  0.1080  0.0979 -1.3403
16541SOL    HW256864  12.052   1.653   6.256  0.8554 -2.0464  0.3699
16542SOL     OW56865   5.483   3.855   7.468 -0.0333 -0.9207 -0.0110
16542SOL    HW156866   5.467   3.839   7.561  2.3009 -0.7812  0.4832
16542SOL    HW256867   5.403   3.826   7.424 -1.5934 -0.0536  2.0947
16543SOL     OW56868   4.204   5.973  11.357 -0.2027  0.2434 -0.4377
16543SOL    HW156869   4.174   6.037  11.422 -1.2641 -1.1589  0.5073
16543SOL    HW256870   4.193   5.889  11.400  2.1484 -0.5550 -1.2647
16544SOL     OW56871   1.711   5.694   7.100  0.3762 -0.5917 -0.5657
16544SOL    HW156872   1.618   5.712   7.109  0.3933 -0.5949 -0.3815
16544SOL    HW256873   1.732   5.718   7.010 -0.1410 -2.0982 -1.1111
16545SOL     OW56874   3.686  11.730   6.243 -0.5678 -0.0215 -0.2421
16545SOL    HW156875   3.769  11.778   6.243 -0.7731  0.6110  3.5501
16545SOL    HW256876   3.619  11.798   6.248 -1.3139 -0.5885 -1.6904
16546SOL     OW56877   9.377   7.186   7.691  0.0960 -0.1974 -0.1864
16546SOL    HW156878   9.451   7.131   7.717  0.4720 -0.0359 -0.8932
16546SOL    HW256879   9.417   7.265   7.657 -0.4481  0.7265  1.2259
16547SOL     OW56880   3.106  10.313   0.749 -0.0761 -0.1812  0.3897
16547SOL    HW156881   3.088  10.221   0.767 -0.6150 -0.3054 -0.7064
16547SOL    HW256882   3.126  10.351   0.834  0.3230 -1.3475  0.8269
16548SOL     OW56883   1.291  10.313   5.799  0.1269  0.3810 -0.2064
16548SOL    HW156884   1.304  10.225   5.836 -0.7376  0.4105  0.1681
16548SOL    HW256885   1.303  10.372   5.873  1.1829  0.6271 -0.5522
16549SOL     OW56886   6.480   9.624  12.464  0.0205 -0.2500  0.4639
16549SOL    HW156887   6.394   9.643  12.427  0.3869  0.9602  0.1936
16549SOL    HW256888   6.469   9.638  12.558  0.0384  0.3953  0.3757
16550SOL     OW56889   0.613   0.904   9.224  0.6063 -0.3122 -0.4232
16550SOL    HW156890   0.526   0.939   9.207  0.7764  0.3271 -0.0135
16550SOL    HW256891   0.617   0.895   9.319  1.0534 -0.1467 -0.4232
16551SOL     OW56892  12.473   8.348   7.244  0.3799  0.0082 -0.0929
16551SOL    HW156893  12.474   8.281   7.312  0.7193  1.1836  1.0954
16551SOL    HW256894  12.381   8.375   7.238  0.4122  0.1902  0.1999
16552SOL     OW56895  12.443   5.935   3.623 -0.0092 -0.0154 -1.0206
16552SOL    HW156896  12.475   5.977   3.543 -0.0627  0.9620 -0.5501
16552SOL    HW256897  12.516   5.944   3.685 -0.9989  1.9071 -0.0492
16553SOL     OW56898   6.480   9.461   2.398  0.1308 -0.7874 -0.1093
16553SOL    HW156899   6.439   9.380   2.368 -2.0736  0.0629  0.3808
16553SOL    HW256900   6.527   9.437   2.478 -1.5171 -1.3832  0.7134
16554SOL     OW56901   4.696   1.876   5.296  0.1738 -0.1560  0.1521
16554SOL    HW156902   4.665   1.958   5.258  0.1732 -0.7248 -1.1069
16554SOL    HW256903   4.750   1.836   5.228  1.3270 -0.5633  1.2441
16555SOL     OW56904   9.955   8.807  12.488  0.6018  0.4748  0.5080
16555SOL    HW156905   9.880   8.867  12.490  0.2354 -0.0038  1.5372
16555SOL    HW256906  10.028   8.862  12.460  0.3795  1.5546  1.9343
16556SOL     OW56907  12.273   6.031  10.971  0.3667  0.6239 -0.2022
16556SOL    HW156908  12.210   5.961  10.985 -0.4355  1.1264 -1.1289
16556SOL    HW256909  12.331   6.027  11.047 -0.7434  0.1069  0.6502
16557SOL     OW56910   4.451   8.160   7.422 -0.4744 -0.2075 -0.7125
16557SOL    HW156911   4.501   8.237   7.396 -1.0830  0.6656  0.5847
16557SOL    HW256912   4.369   8.195   7.456 -1.5121 -1.5529 -1.7241
16558SOL     OW56913  10.231  10.588   6.745 -0.6337  0.1630  0.5472
16558SOL    HW156914  10.245  10.598   6.839  2.0959  2.1383  0.0398
16558SOL    HW256915  10.137  10.604   6.733 -0.9468  0.3690  2.8626
16559SOL     OW56916   6.559   5.591  10.587 -0.2762 -0.7407 -0.0517
16559SOL    HW156917   6.645   5.594  10.545 -0.6582 -1.2130 -0.8959
16559SOL    HW256918   6.527   5.503  10.568 -0.6215 -0.8274  0.9253
16560SOL     OW56919   0.790  11.125   7.742 -0.0157  0.7007  0.0192
16560SOL    HW156920   0.831  11.206   7.713 -0.0313  0.4172 -0.8128
16560SOL    HW256921   0.739  11.150   7.819  0.5207  1.3434  0.1748
16561SOL     OW56922   8.103   0.600   0.333 -0.1273 -0.0921 -0.3095
16561SOL    HW156923   8.032   0.549   0.293  0.5968 -0.3442 -1.3250
16561SOL    HW256924   8.061   0.648   0.404 -1.4309  0.1414 -1.1922
16562SOL     OW56925   8.500   5.942   4.593  0.4305  0.1408  0.0600
16562SOL    HW156926   8.539   6.027   4.612  1.2712  0.0431 -1.1268
16562SOL    HW256927   8.513   5.891   4.672 -0.6592  1.2944  1.0291
16563SOL     OW56928   8.997   3.222   9.342 -0.1581  0.5185  0.2285
16563SOL    HW156929   9.008   3.308   9.383  0.1407  1.2981 -1.3993
16563SOL    HW256930   8.931   3.178   9.396  0.4938  1.3130  1.7605
16564SOL     OW56931   2.986   6.935   8.764  0.0386  0.0132  0.3211
16564SOL    HW156932   2.940   6.868   8.713 -0.3385  1.0616 -0.7700
16564SOL    HW256933   3.070   6.945   8.718  0.2535  0.0141  0.7135
16565SOL     OW56934   7.062   6.125   8.720  0.3651  0.3124 -0.2877
16565SOL    HW156935   7.119   6.179   8.666  0.8949  0.3300  0.2842
16565SOL    HW256936   7.034   6.054   8.662 -0.6337  1.3625 -1.1676
16566SOL     OW56937  10.356   1.782   6.985  0.2858  0.0427 -0.5518
16566SOL    HW156938  10.387   1.769   6.895  1.5905 -1.6729  0.0939
16566SOL    HW256939  10.271   1.739   6.987 -0.6161  1.6790 -1.4017
16567SOL     OW56940  11.708   0.340   7.096  0.4435 -0.0338 -0.0179
16567SOL    HW156941  11.791   0.344   7.144  0.7175 -0.2338 -0.4686
16567SOL    HW256942  11.641   0.349   7.163  0.8462  1.3570  0.2208
16568SOL     OW56943   1.748  11.034   1.129  0.0492 -0.4749  0.0228
16568SOL    HW156944   1.723  10.959   1.075 -1.0624  1.0498 -1.6780
16568SOL    HW256945   1.723  11.111   1.078  3.1162  1.1636  0.7045
16569SOL     OW56946   6.912   0.008  12.441  0.8151 -0.2513  0.2692
16569SOL    HW156947   6.873   0.095  12.431 -0.1017 -0.9560 -3.5431
16569SOL    HW256948   6.969  -0.002  12.365  1.9253 -2.5350  1.3112
16570SOL     OW56949   5.537   5.890   9.063  0.6876  0.8300 -0.1178
16570SOL    HW156950   5.609   5.944   9.030  0.4884  1.5455  0.5808
16570SOL    HW256951   5.516   5.831   8.991  0.1251  2.4587 -1.3358
16571SOL     OW56952   6.988   5.675   6.224 -0.0655 -0.4799  0.0397
16571SOL    HW156953   7.083   5.684   6.215 -0.1981  0.1469 -0.9049
16571SOL    HW256954   6.954   5.763   6.208 -0.8772 -0.9322 -0.8601
16572SOL     OW56955   5.678  10.991   4.470  0.1378  0.0573  0.0824
16572SOL    HW156956   5.677  10.991   4.374  2.8539 -1.7036 -0.0448
16572SOL    HW256957   5.587  10.976   4.495 -0.4042 -1.0625 -2.2608
16573SOL     OW56958   0.471   5.463   8.711 -0.2588 -0.1604  0.2223
16573SOL    HW156959   0.404   5.396   8.698 -0.1881 -0.0341 -0.8693
16573SOL    HW256960   0.550   5.414   8.734 -0.2545 -0.4402 -0.3829
16574SOL     OW56961   8.994   7.331  11.899  0.1615  0.0784 -0.2210
16574SOL    HW156962   8.916   7.385  11.889  1.0992  1.1459 -2.4295
16574SOL    HW256963   8.965   7.243  11.873 -0.6881  0.0824  0.6531
16575SOL     OW56964   3.121   0.588   9.141 -0.2743 -0.4434  0.2034
16575SOL    HW156965   3.103   0.679   9.163  1.8341  0.4734 -1.4580
16575SOL    HW256966   3.058   0.537   9.191 -1.8650  1.9568  0.7609
16576SOL     OW56967   5.303   0.327   8.134  0.1793  0.2483 -0.2914
16576SOL    HW156968   5.243   0.269   8.180  0.1541 -0.4241 -1.1486
16576SOL    HW256969   5.348   0.376   8.203 -0.6364  0.0454  0.3906
16577SOL     OW56970   5.807   6.189   2.462  0.0877 -0.3290 -0.4030
16577SOL    HW156971   5.854   6.135   2.398  0.1252 -1.8684  0.8514
16577SOL    HW256972   5.876   6.239   2.507  0.0291  1.0295 -1.7495
16578SOL     OW56973   2.618   5.440   8.480 -0.2796  0.1595 -0.3749
16578SOL    HW156974   2.686   5.501   8.507 -1.0169  1.1132 -0.5899
16578SOL    HW256975   2.610   5.379   8.553  0.0289  0.7112  0.1317
16579SOL     OW56976   9.399   6.032   1.303  0.4344 -0.1185 -0.4339
16579SOL    HW156977   9.384   6.073   1.217  0.5580  1.2104  0.1560
16579SOL    HW256978   9.319   5.982   1.320 -0.4234  1.2076 -0.4531
16580SOL     OW56979   7.894  11.716   9.832 -0.2993  0.9053 -0.0385
16580SOL    HW156980   7.858  11.664   9.903 -2.0595  2.0589 -0.0055
16580SOL    HW256981   7.989  11.716   9.846 -0.1228 -2.6240 -0.3382
16581SOL     OW56982   2.326   7.101   5.909  0.0672 -0.0350 -0.1434
16581SOL    HW156983   2.348   7.151   5.831  1.2633 -0.4274 -0.0903
16581SOL    HW256984   2.269   7.031   5.878  1.4664 -0.8806 -0.9028
16582SOL     OW56985   3.016   2.027   3.302 -0.0278  0.6785  0.0962
16582SOL    HW156986   2.921   2.029   3.310 -0.0918 -0.7608 -0.0702
16582SOL    HW256987   3.032   1.976   3.222  0.8691  1.7008 -0.3970
16583SOL     OW56988  10.991  11.420   0.990  0.0658  0.8519 -0.5451
16583SOL    HW156989  10.950  11.505   0.978 -0.6225  0.3964 -1.6447
16583SOL    HW256990  11.040  11.428   1.071 -0.0109  2.2773 -0.6141
16584SOL     OW56991   6.130   6.007  10.257 -0.2539 -0.2551  0.1824
16584SOL    HW156992   6.130   5.937  10.322  0.1536  0.4587  0.9648
16584SOL    HW256993   6.154   6.085  10.306  0.9786  0.1382 -1.0055
16585SOL     OW56994   7.161  10.451   7.348  0.1778  0.1163 -0.0031
16585SOL    HW156995   7.255  10.446   7.364  0.3047  0.9954 -0.4431
16585SOL    HW256996   7.153  10.494   7.263 -0.6083 -0.4512 -0.2226
16586SOL     OW56997   8.739   1.918   8.595 -0.5159 -0.4834  0.4526
16586SOL    HW156998   8.818   1.869   8.616 -0.6857 -0.3002  1.6051
16586SOL    HW256999   8.760   1.964   8.513 -0.0664 -1.7839 -0.1838
16587SOL     OW57000   7.342   1.061  11.335  0.4791  0.4849 -0.2216
16587SOL    HW157001   7.266   1.043  11.390  0.6354 -1.7941 -0.6458
16587SOL    HW257002   7.324   1.147  11.297  0.3802  2.2207  3.3230
16588SOL     OW57003   3.155   7.837   2.916 -0.3926  0.5625  0.2381
16588SOL    HW157004   3.177   7.885   2.996 -0.9951  1.5140 -0.1532
16588SOL    HW257005   3.226   7.773   2.908  1.5840  2.6462 -0.2602
16589SOL     OW57006   3.498   7.019   8.961 -0.5149 -0.3322  0.2387
16589SOL    HW157007   3.523   7.069   9.038 -1.2073 -0.0111  0.2652
16589SOL    HW257008   3.404   7.034   8.952 -0.1775  1.1568 -1.7203
16590SOL     OW57009   3.799   5.981   0.148  0.4114 -0.9697  0.0578
16590SOL    HW157010   3.821   6.031   0.070 -0.5776  1.2536  1.1229
16590SOL    HW257011   3.882   5.968   0.193  0.4743  1.5494  0.7617
16591SOL     OW57012   9.793   2.712   7.649  0.6004 -0.2135 -0.5440
16591SOL    HW157013   9.789   2.710   7.745  0.7607 -0.3549 -0.5414
16591SOL    HW257014   9.704   2.735   7.622  0.2460 -1.3798 -0.3988
16592SOL     OW57015   3.643   1.191   6.123  0.3124 -0.0331  0.2493
16592SOL    HW157016   3.552   1.172   6.100  0.5236  1.1606 -1.7714
16592SOL    HW257017   3.686   1.106   6.125 -1.0524 -0.7667  2.5021
16593SOL     OW57018   7.327   3.880   9.032 -0.6670 -0.0748 -0.1174
16593SOL    HW157019   7.406   3.923   9.065  0.9667 -1.7317 -1.6410
16593SOL    HW257020   7.356   3.792   9.008 -2.5527 -0.1501 -2.5043
16594SOL     OW57021   0.752  11.603  10.159 -0.0648 -0.1039 -0.2522
16594SOL    HW157022   0.780  11.689  10.126  0.8575 -0.1084  0.4731
16594SOL    HW257023   0.662  11.594  10.129 -0.6935  1.7664  0.9375
16595SOL     OW57024  10.172   8.242  12.552 -0.0917 -0.4313  0.2109
16595SOL    HW157025  10.177   8.168  12.492 -0.0777  0.0323 -0.3657
16595SOL    HW257026  10.183   8.319  12.496 -0.6296  0.0309  0.7342
16596SOL     OW57027   5.140   6.509   1.232 -0.1283 -0.0758  0.1010
16596SOL    HW157028   5.175   6.490   1.145  0.7997 -0.9056  0.6313
16596SOL    HW257029   5.098   6.427   1.259  0.9157 -0.3261  1.0272
16597SOL     OW57030   8.910  11.612  10.608  0.1185 -0.1142  0.1667
16597SOL    HW157031   8.970  11.539  10.623 -0.4885 -0.3736  1.4525
16597SOL    HW257032   8.953  11.687  10.649  0.6006  0.2025 -0.8894
16598SOL     OW57033  11.148   5.569   8.516  0.2784 -0.0565 -0.5584
16598SOL    HW157034  11.131   5.495   8.457  1.0788 -1.0887  0.4524
16598SOL    HW257035  11.243   5.573   8.523  0.1936 -0.3720  1.1309
16599SOL     OW57036   3.949   1.151   4.787 -0.7848  0.2040 -0.2960
16599SOL    HW157037   4.027   1.200   4.811  0.3337 -1.1252 -1.0690
16599SOL    HW257038   3.945   1.080   4.852 -2.1422  1.0257  0.5657
16600SOL     OW57039   6.993   6.561   9.730  0.2494  0.0858 -0.2411
16600SOL    HW157040   7.082   6.584   9.704 -0.3205  2.1206 -0.6075
16600SOL    HW257041   6.937   6.623   9.682 -1.1897  0.4130  1.7206
16601SOL     OW57042   5.043  10.090   0.911  0.1536  1.0591  0.3278
16601SOL    HW157043   5.031  10.074   1.005 -0.2612  0.6948  0.2157
16601SOL    HW257044   5.138  10.100   0.901  0.5131 -1.5564  0.4027
16602SOL     OW57045  11.809  12.051  10.210  0.5887 -0.5435  0.1894
16602SOL    HW157046  11.884  12.012  10.254  1.3954  1.3013  0.5414
16602SOL    HW257047  11.738  11.988  10.223  0.6429 -0.0146  4.4984
16603SOL     OW57048   2.545   3.155   7.892  0.3806 -0.2842  0.0572
16603SOL    HW157049   2.535   3.127   7.801  1.3537 -1.5475  0.3070
16603SOL    HW257050   2.606   3.229   7.889 -1.6207  1.4287 -0.5389
16604SOL     OW57051   3.855   7.266  10.219 -0.4992  0.2125  0.1681
16604SOL    HW157052   3.802   7.186  10.224  2.6254 -2.0139  3.4502
16604SOL    HW257053   3.837   7.312  10.302 -0.9719  2.0944 -0.9167
16605SOL     OW57054   5.567   8.981   7.207  0.2217 -0.1822  0.3186
16605SOL    HW157055   5.490   8.925   7.213 -0.1237  0.1910 -0.4750
16605SOL    HW257056   5.602   8.964   7.119  0.0250  0.9339  0.0027
16606SOL     OW57057  11.014  11.874   0.626  0.9039  0.6274  0.4555
16606SOL    HW157058  11.078  11.821   0.579 -0.6853 -1.3406  0.3955
16606SOL    HW257059  10.940  11.881   0.566  0.1939  1.0095  1.3497
16607SOL     OW57060   9.833   0.174   6.793 -0.4420 -0.2266 -0.3493
16607SOL    HW157061   9.751   0.178   6.842 -0.3786 -2.1094 -0.0013
16607SOL    HW257062   9.839   0.082   6.765  1.1186  0.0818 -1.1145
16608SOL     OW57063   3.661   9.891   8.574  0.1947  0.1125 -0.0947
16608SOL    HW157064   3.623   9.881   8.487 -1.5488  0.3357  0.6029
16608SOL    HW257065   3.673   9.985   8.585 -1.4975  0.2653  0.6521
16609SOL     OW57066   9.000   4.027   6.342 -0.3451  0.1919  0.4860
16609SOL    HW157067   8.988   3.941   6.382  1.3009  0.0235  0.6788
16609SOL    HW257068   9.047   4.009   6.260 -0.4725  0.8696  0.2549
16610SOL     OW57069  12.268   3.698   3.691 -0.3851 -0.1391 -0.7904
16610SOL    HW157070  12.345   3.706   3.747 -1.4128 -0.4926  0.7254
16610SOL    HW257071  12.194   3.722   3.747 -1.3709  0.5135 -2.2988
16611SOL     OW57072   9.494   6.591   5.546  0.2024  0.2030  0.2144
16611SOL    HW157073   9.541   6.520   5.590  0.2953  1.1459  1.6981
16611SOL    HW257074   9.431   6.622   5.611 -3.1512 -1.5180 -1.9135
16612SOL     OW57075   1.523   3.186  11.788  0.0041 -0.2380 -0.0350
16612SOL    HW157076   1.487   3.149  11.869  3.1443 -2.3881  0.5693
16612SOL    HW257077   1.501   3.123  11.720 -1.7998  1.0979 -0.7842
16613SOL     OW57078  10.801   9.121   4.588 -0.1396  0.1409 -0.7702
16613SOL    HW157079  10.761   9.127   4.674 -0.3253  1.7481 -0.9484
16613SOL    HW257080  10.742   9.064   4.538 -0.9460  0.5919 -0.3400
16614SOL     OW57081   3.586   1.974  10.802  0.0273 -1.1737  0.2314
16614SOL    HW157082   3.675   1.937  10.809 -0.5981 -2.4884  2.0237
16614SOL    HW257083   3.591   2.057  10.849 -0.2860 -2.5552  2.8998
16615SOL     OW57084   9.064   1.897   9.032 -0.0534 -0.0543  0.4560
16615SOL    HW157085   9.043   1.988   9.010 -0.2656 -0.0406  0.7131
16615SOL    HW257086   9.111   1.903   9.115  1.6626 -0.0180 -0.4726
16616SOL     OW57087   6.818   4.902   6.893 -0.5816  0.0039 -0.1223
16616SOL    HW157088   6.825   4.898   6.988  0.0195 -1.9630 -0.1979
16616SOL    HW257089   6.776   4.819   6.868  2.9989 -1.5426 -1.7702
16617SOL     OW57090   7.331   7.803   9.124 -0.3552 -0.6302  0.2761
16617SOL    HW157091   7.304   7.740   9.057 -2.4422 -0.8006  1.2085
16617SOL    HW257092   7.415   7.770   9.155  1.1121 -0.1173 -2.7217
16618SOL     OW57093   9.699   9.944   5.654  0.0933 -0.1245 -0.2118
16618SOL    HW157094   9.731  10.022   5.608 -2.2551  1.7209  1.0658
16618SOL    HW257095   9.773   9.916   5.708  0.4930  2.3113  0.6093
16619SOL     OW57096   0.582  11.083  10.859 -0.5393  0.1300 -0.0938
16619SOL    HW157097   0.590  11.082  10.763 -0.3887 -0.4441 -0.0826
16619SOL    HW257098   0.609  11.171  10.884 -0.8770  0.3874 -0.6025
16620SOL     OW57099   2.802   9.851   5.073 -0.3438 -0.1248  0.0949
16620SOL    HW157100   2.874   9.886   5.126  2.0896 -0.8123 -2.4896
16620SOL    HW257101   2.724   9.861   5.128  1.3098  2.7988  2.1857
16621SOL     OW57102  12.608   8.484   1.007 -0.1144 -0.1469 -0.3439
16621SOL    HW157103  12.559   8.554   1.051  0.9024  1.0654 -1.0806
16621SOL    HW257104  12.582   8.490   0.915  0.3495 -0.4080 -0.4976
16622SOL     OW57105   0.336   7.281   0.242  0.2697  0.3951 -0.3862
16622SOL    HW157106   0.264   7.343   0.230  0.6633  0.5704 -1.9722
16622SOL    HW257107   0.355   7.286   0.336 -2.3534 -0.3385  0.2744
16623SOL     OW57108   0.487   2.144   0.945 -0.1168 -0.0067 -0.5309
16623SOL    HW157109   0.411   2.180   0.899 -1.6945 -3.1363 -0.5991
16623SOL    HW257110   0.542   2.106   0.876  1.5156  2.0461 -0.4598
16624SOL     OW57111   8.188   5.223   6.802  0.0604 -0.0689  0.1604
16624SOL    HW157112   8.154   5.207   6.714  1.5459 -0.3144 -0.4043
16624SOL    HW257113   8.114   5.260   6.850 -0.8367 -0.1055 -1.1348
16625SOL     OW57114  12.684   7.948   8.896 -0.6138  0.6170  0.5400
16625SOL    HW157115  12.679   8.042   8.877  1.1280  0.3618 -1.6506
16625SOL    HW257116  12.676   7.906   8.810  1.2530 -1.0989  1.1390
16626SOL     OW57117   0.014   9.829   0.435 -0.1864  0.4180  0.6721
16626SOL    HW157118  -0.053   9.764   0.414  0.8106  0.2218 -2.5710
16626SOL    HW257119   0.083   9.780   0.479 -0.9889  0.0692  1.5624
16627SOL     OW57120   1.069   5.060   8.983  0.0853  0.2998  0.5764
16627SOL    HW157121   1.074   5.043   8.889  0.6777 -3.0039  1.0913
16627SOL    HW257122   0.975   5.062   9.002 -0.0346  0.5377 -0.0109
16628SOL     OW57123   0.637   8.422   9.158 -0.1035  0.5913 -0.1543
16628SOL    HW157124   0.552   8.430   9.200  1.0700 -0.3277  2.6238
16628SOL    HW257125   0.647   8.328   9.140  0.4727  0.6305 -0.0841
16629SOL     OW57126   9.474   2.760   9.797  0.1447  0.7227 -0.4190
16629SOL    HW157127   9.508   2.775   9.885 -0.9307  2.0343 -0.2043
16629SOL    HW257128   9.467   2.847   9.758  0.3986  0.1804 -1.7465
16630SOL     OW57129   6.439   9.516   2.881  0.5736 -0.2364 -0.4484
16630SOL    HW157130   6.419   9.469   2.961 -1.8111  0.8784 -0.2929
16630SOL    HW257131   6.446   9.448   2.814 -1.0951 -0.9471  0.0610
16631SOL     OW57132   2.155  10.662  10.341  0.2203 -0.1680  0.8096
16631SOL    HW157133   2.235  10.661  10.289  0.1422  0.0554  0.6873
16631SOL    HW257134   2.171  10.727  10.409 -0.0458  0.2388  0.4888
16632SOL     OW57135   4.407   6.910   8.726  0.3120 -0.1314 -0.0454
16632SOL    HW157136   4.329   6.966   8.728  0.2716 -0.1988  0.4243
16632SOL    HW257137   4.373   6.822   8.745  0.3428 -0.3562 -0.9995
16633SOL     OW57138   7.650   5.911   2.008  0.9521  0.2549  0.3819
16633SOL    HW157139   7.744   5.922   2.022  1.4741 -1.0155 -1.5477
16633SOL    HW257140   7.611   5.994   2.033  2.8320  1.4500 -0.4531
16634SOL     OW57141   9.508   7.280  12.135  0.6742  0.1393  0.3804
16634SOL    HW157142   9.566   7.204  12.132  1.4475  0.7469 -0.9672
16634SOL    HW257143   9.428   7.247  12.175  0.6193 -1.6737 -1.0907
16635SOL     OW57144   8.604   8.014  11.785  0.0362  0.5720  0.2105
16635SOL    HW157145   8.679   7.955  11.782 -1.4721 -1.4436  0.3629
16635SOL    HW257146   8.582   8.020  11.878 -1.5276 -0.9725 -0.0095
16636SOL     OW57147   9.034   2.119   8.873 -0.6040  0.5881  0.1701
16636SOL    HW157148   8.985   2.197   8.847 -0.4749  0.8361  0.6701
16636SOL    HW257149   9.105   2.114   8.810  0.2665  1.7293  1.0244
16637SOL     OW57150  11.288   4.142   8.808  0.1314  0.2272 -0.2470
16637SOL    HW157151  11.265   4.177   8.723  1.2713 -2.4967 -1.8049
16637SOL    HW257152  11.265   4.049   8.803  1.5791 -0.3249  1.8761
16638SOL     OW57153   5.563   9.917  10.613 -0.2584 -0.4751  0.4324
16638SOL    HW157154   5.581   9.933  10.521  0.7457  0.2099  0.7411
16638SOL    HW257155   5.490   9.854  10.612 -1.0179  0.3739 -0.8144
16639SOL     OW57156  10.354   8.019   9.244  0.6465 -0.0899 -0.2058
16639SOL    HW157157  10.289   7.968   9.292 -1.7069  3.5936  0.8691
16639SOL    HW257158  10.317   8.030   9.157  2.0332 -1.5747 -1.0599
16640SOL     OW57159   8.807   8.665   5.354 -0.1738  0.7179 -0.3549
16640SOL    HW157160   8.800   8.664   5.449 -2.8248 -1.1364 -0.4707
16640SOL    HW257161   8.896   8.637   5.336 -0.0605 -0.3652  1.6022
16641SOL     OW57162  11.553   4.638   5.831  0.3325 -0.9278  0.0002
16641SOL    HW157163  11.549   4.560   5.886  0.5291 -1.5151 -0.7795
16641SOL    HW257164  11.631   4.685   5.861 -0.5935 -0.2588  1.4333
16642SOL     OW57165   5.289   1.900  10.221  0.0378 -0.4941 -0.0052
16642SOL    HW157166   5.314   1.846  10.296 -0.2706 -0.5438  0.0653
16642SOL    HW257167   5.211   1.948  10.251  2.1510  2.5519  1.1241
16643SOL     OW57168  12.462   2.072   7.978  0.0422 -0.1727 -0.0167
16643SOL    HW157169  12.402   2.005   8.010 -0.0063 -0.4839 -0.7476
16643SOL    HW257170  12.466   2.136   8.049 -0.1624 -0.7814  0.5530
16644SOL     OW57171   5.488  11.426   8.733 -0.5757  0.3595  0.6325
16644SOL    HW157172   5.475  11.336   8.762 -3.3720  1.1830  2.3279
16644SOL    HW257173   5.404  11.453   8.698  0.0415  2.4722  0.6024
16645SOL     OW57174  10.879   8.345   1.703  0.3334 -0.1584  0.4868
16645SOL    HW157175  10.915   8.432   1.692 -0.4387  0.1752  0.5133
16645SOL    HW257176  10.883   8.329   1.798  3.4164 -1.4707  0.2575
16646SOL     OW57177   1.013   6.765   0.005  0.0476  0.1348  0.2939
16646SOL    HW157178   0.930   6.748  -0.039 -1.3550 -0.2465  2.8944
16646SOL    HW257179   1.049   6.679   0.024  1.4736  0.2859 -1.4274
16647SOL     OW57180   2.722   6.088   6.761  0.1589 -0.1458 -0.8331
16647SOL    HW157181   2.638   6.065   6.801 -0.8476 -0.8031 -3.1293
16647SOL    HW257182   2.786   6.030   6.802 -0.2970  0.8980  1.5265
16648SOL     OW57183   9.840   1.558   1.713  0.0563  0.2961 -0.1753
16648SOL    HW157184   9.858   1.466   1.695  1.0206  0.5573 -0.6607
16648SOL    HW257185   9.769   1.557   1.776 -1.2758 -0.7509 -1.6155
16649SOL     OW57186   8.466  12.587   9.710 -0.4344 -0.7238 -0.4233
16649SOL    HW157187   8.455  12.530   9.634  0.6216 -1.5377  0.0083
16649SOL    HW257188   8.486  12.673   9.673 -1.2456 -0.7987 -1.0688
16650SOL     OW57189   1.440  12.418   8.103  0.0345 -0.6439  1.0531
16650SOL    HW157190   1.420  12.327   8.126 -0.4684 -0.3364  1.8743
16650SOL    HW257191   1.358  12.465   8.119  0.6799  0.1898  1.9417
16651SOL     OW57192   4.470   2.539   5.089  0.2876  0.2699 -0.5656
16651SOL    HW157193   4.559   2.573   5.100  1.4739 -2.5194 -0.6540
16651SOL    HW257194   4.445   2.508   5.177 -0.5148  0.8240 -0.5902
16652SOL     OW57195   0.490   5.272   1.714  0.5594 -0.1331 -0.1203
16652SOL    HW157196   0.576   5.230   1.707 -0.5733 -2.3660 -1.8283
16652SOL    HW257197   0.440   5.216   1.772  0.0203  0.8172  0.3648
16653SOL     OW57198  11.702   5.872   2.888 -0.2092 -0.0438 -0.7360
16653SOL    HW157199  11.657   5.801   2.842  0.4606 -0.3250 -0.9665
16653SOL    HW257200  11.752   5.918   2.821  0.7299 -0.4218 -0.3204
16654SOL     OW57201   0.471   6.566   6.825  0.1223 -0.2078 -0.1482
16654SOL    HW157202   0.507   6.625   6.892 -0.6352  0.1475 -0.0467
16654SOL    HW257203   0.424   6.624   6.766  0.9062 -0.5005 -1.0881
16655SOL     OW57204  12.603   7.113  11.695  0.4664  0.4941  0.0509
16655SOL    HW157205  12.531   7.105  11.757  0.8257 -0.3909  0.3616
16655SOL    HW257206  12.681   7.127  11.749  0.5778  1.1891 -0.2702
16656SOL     OW57207  11.788   5.918   7.776  0.3829  0.4213 -0.4472
16656SOL    HW157208  11.838   5.843   7.743  1.2427  1.2449 -1.0941
16656SOL    HW257209  11.815   5.991   7.720 -0.0441  1.3245  0.4845
16657SOL     OW57210  10.070   2.128   0.188 -0.2271  0.1311 -0.6413
16657SOL    HW157211  10.011   2.061   0.221 -0.2516  0.7184  0.5602
16657SOL    HW257212  10.153   2.113   0.233 -1.1243  2.8576  2.3400
16658SOL     OW57213   9.535   5.748   0.471  0.3120 -0.3891  0.7484
16658SOL    HW157214   9.608   5.795   0.512 -0.9538  1.3678  1.1216
16658SOL    HW257215   9.456   5.791   0.505 -0.9011 -1.5780 -0.3924
16659SOL     OW57216  10.397   1.045  12.602  0.0924 -0.0372  0.3350
16659SOL    HW157217  10.484   1.015  12.627 -0.1383 -1.0446 -0.0404
16659SOL    HW257218  10.386   1.128  12.648  0.6351 -0.6556  1.6127
16660SOL     OW57219   0.928   2.531   0.066 -0.0680 -0.0809  0.5032
16660SOL    HW157220   0.927   2.564  -0.024 -2.0740 -1.5390 -0.0642
16660SOL    HW257221   0.983   2.593   0.113  2.2297 -0.0567 -1.9917
16661SOL     OW57222   1.557  10.437   0.572 -0.3027 -0.7938 -0.1849
16661SOL    HW157223   1.522  10.525   0.590  0.2516 -0.5092 -0.4744
16661SOL    HW257224   1.531  10.385   0.648 -0.1221 -0.2243  0.2753
16662SOL     OW57225   4.167   2.119   8.935 -0.9961  0.2961 -0.3357
16662SOL    HW157226   4.143   2.167   8.856 -0.9389  0.8485 -0.0281
16662SOL    HW257227   4.138   2.030   8.919 -1.7172  0.5758 -0.6571
16663SOL     OW57228  12.140   9.751   6.345  0.0805  0.5456 -0.5627
16663SOL    HW157229  12.111   9.812   6.414  0.2551 -1.9216  1.8633
16663SOL    HW257230  12.222   9.715   6.378 -0.3363 -1.4662 -1.5684
16664SOL     OW57231   6.513   1.097   9.467 -0.3928  0.0949 -0.4527
16664SOL    HW157232   6.430   1.123   9.508 -0.5111 -0.7441 -0.1326
16664SOL    HW257233   6.572   1.081   9.540 -0.0707  0.2882 -0.6696
16665SOL     OW57234  11.621  12.697  12.226 -0.1919  0.9557 -0.6737
16665SOL    HW157235  11.573  12.614  12.219 -0.3088  1.0020 -0.4273
16665SOL    HW257236  11.560  12.756  12.270  0.4967  0.6843  0.6906
16666SOL     OW57237  12.696   0.078   9.546  0.1386 -0.5003  0.1545
16666SOL    HW157238  12.710   0.041   9.634  0.3405  1.0981  0.8354
16666SOL    HW257239  12.761   0.034   9.491  0.9144 -0.5743  1.0979
16667SOL     OW57240  11.948   2.649   7.929  0.0150 -0.0833  0.1776
16667SOL    HW157241  11.913   2.737   7.917  2.1465  0.8090  0.0013
16667SOL    HW257242  11.872   2.596   7.955 -1.4382  1.6422 -0.3495
16668SOL     OW57243   0.671   6.740   8.827 -0.3822 -0.1205  0.2187
16668SOL    HW157244   0.691   6.677   8.895  0.9146  0.6760  0.6104
16668SOL    HW257245   0.577   6.731   8.812 -0.3525 -1.5630  0.8262
16669SOL     OW57246   4.233  12.603   5.429  0.3675  0.2029  0.3740
16669SOL    HW157247   4.233  12.545   5.353 -1.4736  0.8260 -0.1273
16669SOL    HW257248   4.307  12.571   5.482  0.4302 -1.5401 -0.6711
16670SOL     OW57249   8.300   8.944   6.631  0.7088  0.1815  0.2309
16670SOL    HW157250   8.332   8.858   6.657  0.1367 -0.6462 -1.6196
16670SOL    HW257251   8.259   8.929   6.545 -0.1656  2.1347  0.2591
16671SOL     OW57252   1.919   1.317   9.888 -0.1975 -0.0904  0.4169
16671SOL    HW157253   1.996   1.266   9.914 -1.0620 -0.5905  2.1660
16671SOL    HW257254   1.871   1.258   9.830  0.4093 -0.0032 -0.1956
16672SOL     OW57255   3.597   1.813  11.058 -0.0404  0.1491 -0.1711
16672SOL    HW157256   3.570   1.738  11.006  0.0392  0.9429 -1.3991
16672SOL    HW257257   3.640   1.872  10.996 -0.6081  1.4659  0.6258
16673SOL     OW57258  10.763   7.716   4.250  0.6202  0.1300  0.0304
16673SOL    HW157259  10.746   7.745   4.160  2.5843  0.5605 -0.2366
16673SOL    HW257260  10.851   7.680   4.248  0.5964 -0.1067  1.7385
16674SOL     OW57261   0.070   6.663   2.190  0.1803  0.2997  0.3575
16674SOL    HW157262   0.163   6.664   2.216  1.0064 -0.3875 -2.2829
16674SOL    HW257263   0.056   6.750   2.153 -0.2450  0.3951  0.7391
16675SOL     OW57264   0.568  11.312  11.303  0.2296 -0.1830 -0.2313
16675SOL    HW157265   0.507  11.312  11.229 -2.9497  1.4946  2.1575
16675SOL    HW257266   0.539  11.240  11.358  1.5258 -0.4073  0.1877
16676SOL     OW57267   7.584  10.047   4.106  0.1500  0.1585  0.4451
16676SOL    HW157268   7.592  10.068   4.013  1.9984 -1.1574  0.2234
16676SOL    HW257269   7.675  10.044   4.137 -0.3962 -0.1668  2.1169
16677SOL     OW57270   6.970  10.324  11.197  0.1460  0.1987 -0.2697
16677SOL    HW157271   7.030  10.281  11.258  1.9086 -1.0253 -2.6871
16677SOL    HW257272   6.968  10.266  11.121 -1.5444  1.8890 -1.6134
16678SOL     OW57273   4.863   0.925   8.132 -0.2273 -0.0198 -0.3545
16678SOL    HW157274   4.805   0.956   8.062 -0.5139 -0.7757 -0.4636
16678SOL    HW257275   4.942   0.977   8.123 -0.3514  0.0476 -1.1032
16679SOL     OW57276   0.475  11.250   4.171 -0.2958  0.3118 -0.3010
16679SOL    HW157277   0.486  11.155   4.168  2.3147  0.5315 -0.0005
16679SOL    HW257278   0.509  11.276   4.257  0.6211  1.6554 -1.0202
16680SOL     OW57279   6.904   2.908  11.500  0.0557 -0.2736 -0.4578
16680SOL    HW157280   6.966   2.972  11.464 -0.2125  0.2741  0.0558
16680SOL    HW257281   6.823   2.956  11.511 -0.7324 -1.1867 -1.8863
16681SOL     OW57282  11.539   5.885   7.345  0.1578  0.1678 -0.0560
16681SOL    HW157283  11.556   5.964   7.397 -1.1616  0.7195 -0.4292
16681SOL    HW257284  11.548   5.913   7.254 -0.9173  0.0520 -0.2093
16682SOL     OW57285   2.646   2.010   5.256  0.4246 -0.0608 -0.1990
16682SOL    HW157286   2.666   2.001   5.349 -0.0373 -0.9393 -0.1635
16682SOL    HW257287   2.592   1.933   5.237 -1.2264  1.1639 -0.7210
16683SOL     OW57288   9.661   2.234   5.581 -1.0123 -0.1312  0.7522
16683SOL    HW157289   9.648   2.302   5.648 -2.5691  0.2990  0.0673
16683SOL    HW257290   9.596   2.254   5.514 -0.1731 -1.1612 -0.4166
16684SOL     OW57291   4.764   0.399   0.693  0.1847  0.3992 -0.4109
16684SOL    HW157292   4.795   0.318   0.651  0.8414  0.7449 -0.6081
16684SOL    HW257293   4.838   0.459   0.686 -0.9408  1.6839 -2.0455
16685SOL     OW57294  11.556   9.874   1.582 -0.5627 -0.3845  0.6896
16685SOL    HW157295  11.510   9.842   1.505  1.5189 -0.7410 -0.4612
16685SOL    HW257296  11.543   9.805   1.647 -3.0037  0.2727  1.0318
16686SOL     OW57297   7.849   0.117   8.420 -0.3694  0.7937 -0.2373
16686SOL    HW157298   7.759   0.102   8.392 -0.8900  1.7267  0.8340
16686SOL    HW257299   7.869   0.206   8.389  0.4824  0.3025 -1.1624
16687SOL     OW57300   1.607  10.738   9.317  0.2503 -0.1590  0.1989
16687SOL    HW157301   1.517  10.741   9.347  0.5485  0.1159  1.1051
16687SOL    HW257302   1.620  10.821   9.273 -0.2272 -0.6130 -0.8206
16688SOL     OW57303   5.830   8.034   6.306 -0.1574  0.3774 -1.2679
16688SOL    HW157304   5.735   8.041   6.312 -0.3597 -1.3887 -1.6624
16688SOL    HW257305   5.862   8.075   6.386 -1.2948  0.2926 -0.7464
16689SOL     OW57306   2.651   7.044  11.130 -0.1356  0.2337  0.0433
16689SOL    HW157307   2.726   7.021  11.076 -0.4141 -1.9763  0.4830
16689SOL    HW257308   2.606   6.960  11.145 -1.6197  1.2053  1.3667
16690SOL     OW57309   6.134   0.457   7.536  0.2916  0.2203  0.6802
16690SOL    HW157310   6.188   0.406   7.476  0.3638  0.0676  0.8709
16690SOL    HW257311   6.131   0.544   7.498  0.8116  0.2739  0.7484
16691SOL     OW57312  11.752  12.212   8.802 -0.7400 -0.5545  0.5561
16691SOL    HW157313  11.739  12.290   8.856  0.3469 -0.7560  1.1278
16691SOL    HW257314  11.817  12.161   8.849 -0.0418 -0.9143 -0.7589
16692SOL     OW57315   1.573   5.774   0.952 -0.4196  0.2808 -0.2138
16692SOL    HW157316   1.509   5.845   0.955 -0.8877 -0.0218 -1.8339
16692SOL    HW257317   1.639   5.799   1.016 -1.3947  1.3599  0.4175
16693SOL     OW57318   2.727   5.700   8.524 -0.2637  0.7554  0.3828
16693SOL    HW157319   2.642   5.720   8.563 -0.5865 -1.2244  0.8055
16693SOL    HW257320   2.780   5.669   8.597 -0.2155 -1.0077 -0.3333
16694SOL     OW57321   1.084  10.622   1.267  0.7221 -0.0007  0.7420
16694SOL    HW157322   1.084  10.594   1.176  0.0808 -0.0625  0.7560
16694SOL    HW257323   1.032  10.703   1.267  1.5096  0.5202  0.9030
16695SOL     OW57324   2.611   4.538   9.036 -0.0991 -0.2002  0.5288
16695SOL    HW157325   2.633   4.477   8.966 -1.9090  0.0767 -0.3612
16695SOL    HW257326   2.536   4.498   9.080 -0.7896  0.9661  0.4680
16696SOL     OW57327   8.153   8.171   0.975 -0.2899  0.1537  0.0698
16696SOL    HW157328   8.124   8.108   1.040  0.0757 -0.8832 -0.7334
16696SOL    HW257329   8.100   8.249   0.991 -1.6266 -0.7679  0.3168
16697SOL     OW57330   8.911  10.380   6.191  0.4314 -0.0679 -0.1523
16697SOL    HW157331   8.930  10.412   6.103 -0.9186  0.3517 -0.3247
16697SOL    HW257332   8.887  10.288   6.180 -1.5249  0.4369 -0.5235
16698SOL     OW57333   9.128  10.986   3.649 -0.4353 -0.5290  1.0712
16698SOL    HW157334   9.151  10.919   3.584 -0.9100 -0.1054  0.4524
16698SOL    HW257335   9.074  11.048   3.601 -3.4221 -1.7638  2.5342
16699SOL     OW57336   0.496   6.918  11.774  0.5272  0.8183  0.2556
16699SOL    HW157337   0.495   6.851  11.706  0.4515  2.0229 -0.9744
16699SOL    HW257338   0.561   6.887  11.838  0.0441 -0.6969  0.0374
16700SOL     OW57339   3.124   9.142   7.460  0.0682  0.3413 -0.2511
16700SOL    HW157340   3.119   9.134   7.556  0.5274  0.3957 -0.2239
16700SOL    HW257341   3.173   9.223   7.445  0.7606 -0.1198 -0.5316
16701SOL     OW57342   9.424   4.532  11.929 -0.0256 -0.0220  0.1157
16701SOL    HW157343   9.508   4.495  11.901  0.2795  0.0140  0.9569
16701SOL    HW257344   9.437   4.626  11.929  0.1546 -0.0380  0.8867
16702SOL     OW57345  10.323   2.765   5.799  0.0834 -0.3340  0.7682
16702SOL    HW157346  10.387   2.699   5.825 -1.6621 -1.8229  1.5089
16702SOL    HW257347  10.238   2.722   5.812 -1.0903  1.7411  0.3492
16703SOL     OW57348   2.273   1.199   6.710 -0.1776 -0.1733  0.4750
16703SOL    HW157349   2.301   1.146   6.785  0.3554  0.0392  0.4315
16703SOL    HW257350   2.195   1.154   6.676  1.8403 -2.6262 -1.3378
16704SOL     OW57351   7.807   9.302   5.539  0.5801 -0.2339  0.3621
16704SOL    HW157352   7.865   9.279   5.467 -0.0387 -1.3766  0.2063
16704SOL    HW257353   7.742   9.360   5.501  1.5463  0.9912  0.5204
16705SOL     OW57354   5.169   9.665   4.156 -0.5729  0.2228  0.2479
16705SOL    HW157355   5.090   9.613   4.170  0.4571 -1.4769  0.0249
16705SOL    HW257356   5.239   9.600   4.144  0.9026  1.6653  0.6623
16706SOL     OW57357   2.362   2.165   2.364  0.1976 -0.0610  0.1400
16706SOL    HW157358   2.415   2.111   2.423  0.9610  2.5348  2.0105
16706SOL    HW257359   2.281   2.115   2.353  0.4549 -1.1602  2.5348
16707SOL     OW57360  12.669  11.810  12.447 -0.2571  0.7553  0.3965
16707SOL    HW157361  12.647  11.831  12.537  1.0022 -1.4027  1.2881
16707SOL    HW257362  12.585  11.785  12.407 -0.4240 -1.6678  2.0405
16708SOL     OW57363   5.262   1.937   7.271 -0.9601 -0.5605 -0.4409
16708SOL    HW157364   5.337   1.905   7.220 -1.4052 -0.5659 -1.0943
16708SOL    HW257365   5.302   1.975   7.350 -0.3337 -1.4443 -0.3187
16709SOL     OW57366   8.787  10.765  11.295 -0.1620 -0.4625 -0.1556
16709SOL    HW157367   8.820  10.683  11.258 -0.4905 -0.6088 -0.1267
16709SOL    HW257368   8.718  10.793  11.235  0.6728  0.3616 -0.7625
16710SOL     OW57369   9.723   4.844   2.382 -0.2621 -0.3653  0.0394
16710SOL    HW157370   9.640   4.850   2.334 -2.7215 -0.3672  3.8906
16710SOL    HW257371   9.744   4.751   2.381  0.8899 -0.1723 -2.5549
16711SOL     OW57372   9.978   7.872   2.058 -0.1664  0.3073 -0.0687
16711SOL    HW157373   9.984   7.904   1.968  0.1346 -1.1897 -0.6172
16711SOL    HW257374  10.059   7.824   2.071  0.3508  1.5291  1.4535
16712SOL     OW57375  10.370   4.312   2.000 -0.3520 -0.8931 -0.2052
16712SOL    HW157376  10.460   4.342   1.988 -0.9664  0.7525 -1.0829
16712SOL    HW257377  10.362   4.298   2.094  0.2724  0.9653  0.1752
16713SOL     OW57378   1.701  11.993   1.281  0.1869 -0.0023  0.4593
16713SOL    HW157379   1.665  11.929   1.219 -1.2982  0.8649  0.3815
16713SOL    HW257380   1.658  11.973   1.364 -1.7724  1.9962  0.0314
16714SOL     OW57381  10.828  10.765   6.842  0.4315 -0.2517  0.3508
16714SOL    HW157382  10.914  10.802   6.821  0.2585  0.8711  1.4915
16714SOL    HW257383  10.824  10.684   6.791  1.4220  0.5709 -1.1272
16715SOL     OW57384   5.928   8.711   9.095  0.6572 -0.4551 -0.3628
16715SOL    HW157385   5.887   8.631   9.129  0.2595 -0.1035 -0.0095
16715SOL    HW257386   5.856   8.772   9.081  1.1741  0.7834  1.8917
16716SOL     OW57387   8.278   9.527  11.187 -0.5382  0.0134 -0.2779
16716SOL    HW157388   8.321   9.523  11.272  1.0841  1.5024 -0.9749
16716SOL    HW257389   8.215   9.454  11.189  0.6853 -1.0862  1.5051
16717SOL     OW57390   8.657   1.545   7.793  0.2157 -0.4735 -0.3736
16717SOL    HW157391   8.699   1.470   7.753  0.4704 -0.3440 -0.3507
16717SOL    HW257392   8.729   1.603   7.818  0.0364 -0.3437 -0.1487
16718SOL     OW57393   0.966   1.107   9.797  0.2099 -0.1369  0.2998
16718SOL    HW157394   1.052   1.144   9.816 -0.3286  0.5875  1.4159
16718SOL    HW257395   0.913   1.183   9.771 -0.7237 -0.1799  1.9452
16719SOL     OW57396   2.017   5.900   7.133  0.3570 -0.0584 -0.4294
16719SOL    HW157397   1.950   5.964   7.157  0.5765 -0.0284  0.1160
16719SOL    HW257398   1.975   5.846   7.065 -0.0252  0.3025 -0.4856
16720SOL     OW57399   4.672   7.818   5.961 -0.1995  0.0631  0.2468
16720SOL    HW157400   4.704   7.908   5.967 -0.4869  0.0891  1.7048
16720SOL    HW257401   4.684   7.783   6.049 -1.7118 -0.7773  0.1350
16721SOL     OW57402   7.028  12.381   5.244  0.2230  0.4290  0.5537
16721SOL    HW157403   7.004  12.474   5.249  2.3306  1.1272 -0.5434
16721SOL    HW257404   7.056  12.359   5.333 -0.2167  0.8661  0.8069
16722SOL     OW57405  11.551   0.618   3.001  0.3646 -0.4539 -0.1062
16722SOL    HW157406  11.472   0.571   2.976  1.2466 -2.9453  1.3641
16722SOL    HW257407  11.610   0.609   2.926  0.2363 -1.0910 -0.1383
16723SOL     OW57408  11.529   2.960   5.562 -0.1793  0.2696 -0.3361
16723SOL    HW157409  11.612   3.005   5.579  0.8105 -1.2565 -0.9588
16723SOL    HW257410  11.503   2.926   5.648  0.7838 -0.7807 -0.4443
16724SOL     OW57411   0.636   3.311   6.912  0.1946 -0.2260  0.0119
16724SOL    HW157412   0.547   3.277   6.921  0.4695 -0.9786 -0.0518
16724SOL    HW257413   0.628   3.404   6.932 -0.5925 -0.3039  0.0931
16725SOL     OW57414   4.484   1.883   3.753 -0.6037  0.1008  0.0595
16725SOL    HW157415   4.481   1.919   3.665  0.2538  3.0239  1.0962
16725SOL    HW257416   4.398   1.841   3.765 -0.5747 -0.7636 -2.2328
16726SOL     OW57417   7.977   0.272   9.728 -0.1789  0.2320 -0.3046
16726SOL    HW157418   8.017   0.187   9.745 -2.1983 -0.7185 -0.0831
16726SOL    HW257419   7.961   0.272   9.634  0.0427  0.4803 -0.3435
16727SOL     OW57420  10.741   7.863   1.949  0.3037  0.4061  0.2401
16727SOL    HW157421  10.737   7.906   1.864  0.9924 -0.9790 -0.5136
16727SOL    HW257422  10.747   7.770   1.929  1.3527  0.1018  1.7741
16728SOL     OW57423   6.539   2.744   8.257 -0.7651 -0.1826  0.1828
16728SOL    HW157424   6.605   2.750   8.188 -2.6509 -0.0964 -1.7021
16728SOL    HW257425   6.525   2.834   8.286 -0.2832 -0.1693  0.3774
16729SOL     OW57426   7.686  12.241   8.672 -0.1065 -0.0121  0.0882
16729SOL    HW157427   7.647  12.207   8.752  0.3273 -1.1082 -0.1431
16729SOL    HW257428   7.656  12.181   8.604  0.9094 -0.1010 -0.2935
16730SOL     OW57429   2.184   1.158  11.073  0.4330 -0.4725 -0.1769
16730SOL    HW157430   2.269   1.150  11.030  1.0310  0.6842  0.7281
16730SOL    HW257431   2.186   1.093  11.143  0.4407 -0.6575 -0.3474
16731SOL     OW57432   9.356   2.097   0.792 -0.0634  0.1022  0.0885
16731SOL    HW157433   9.336   2.162   0.724  0.3886  0.1392 -0.0108
16731SOL    HW257434   9.278   2.041   0.795 -1.4287  1.9177  1.6849
16732SOL     OW57435  12.442   3.326   4.714 -0.1181  0.0238 -0.2125
16732SOL    HW157436  12.497   3.403   4.698 -0.6649  0.3522 -0.5627
16732SOL    HW257437  12.501   3.252   4.700 -0.0157  0.3446 -1.6826
16733SOL     OW57438  11.537   8.711  12.482  0.8517  0.0721  0.2228
16733SOL    HW157439  11.559   8.671  12.566 -0.5977  0.4904  0.8379
16733SOL    HW257440  11.543   8.805  12.498 -1.1681  0.2105  0.4139
16734SOL     OW57441   2.886   7.504   2.725 -0.3975  0.6989 -0.1685
16734SOL    HW157442   2.851   7.415   2.715  0.4506  0.4917 -1.4796
16734SOL    HW257443   2.873   7.524   2.818 -0.1594 -0.9852  0.2583
16735SOL     OW57444   9.383   3.368   9.860  0.7514 -0.0366 -0.6215
16735SOL    HW157445   9.333   3.405   9.933  2.6221  2.2051 -0.3746
16735SOL    HW257446   9.322   3.370   9.786  0.4866  3.1552 -0.4749
16736SOL     OW57447   4.550   5.992  11.900  0.0476  0.1178 -0.0290
16736SOL    HW157448   4.503   6.022  11.979  0.9300  0.5279  0.3475
16736SOL    HW257449   4.508   5.908  11.879  0.3438 -0.4156  1.3676
16737SOL     OW57450   9.730   6.264   1.082  0.1951  0.1260  0.6908
16737SOL    HW157451   9.816   6.253   1.123  0.2182  0.9369  0.8826
16737SOL    HW257452   9.687   6.332   1.134  0.1616  1.0616 -0.5063
16738SOL     OW57453   0.886   2.329  11.265  0.6182  0.9254  0.6167
16738SOL    HW157454   0.817   2.390  11.239  0.2158  1.2207  2.2625
16738SOL    HW257455   0.875   2.254  11.207 -0.1127  1.5976 -0.1421
16739SOL     OW57456  10.081   9.674   6.253  0.1392  0.2784 -0.2287
16739SOL    HW157457  10.163   9.722   6.240  0.2767 -0.5023 -2.8792
16739SOL    HW257458  10.108   9.585   6.275 -0.1090  0.8075  2.6206
16740SOL     OW57459   1.338   7.847   9.851 -0.5582 -0.2587 -0.4423
16740SOL    HW157460   1.430   7.850   9.825 -0.8950  0.4186 -1.6341
16740SOL    HW257461   1.331   7.908   9.924 -0.1828  0.1583 -0.7519
16741SOL     OW57462  10.706   7.920  10.992 -0.4843  0.2532  0.0302
16741SOL    HW157463  10.765   7.850  11.020 -0.9204 -1.1285 -2.2627
16741SOL    HW257464  10.632   7.916  11.052  1.7089  2.2608  3.2292
16742SOL     OW57465  10.258   3.173   8.387 -0.2599 -0.3929 -0.6231
16742SOL    HW157466  10.205   3.194   8.465  0.7260 -0.1588  0.0014
16742SOL    HW257467  10.319   3.246   8.379  0.4539 -1.0087 -0.9028
16743SOL     OW57468   4.870   1.652   9.858 -0.1668  0.0220 -0.8891
16743SOL    HW157469   4.900   1.730   9.907  0.6516 -0.4640 -0.5869
16743SOL    HW257470   4.775   1.657   9.862 -0.1239  0.5831 -0.1772
16744SOL     OW57471   6.365   0.169   0.955  0.1377 -0.1639 -0.4998
16744SOL    HW157472   6.431   0.202   0.895  0.6561 -0.1235  0.0866
16744SOL    HW257473   6.300   0.126   0.899 -0.2601  1.3356 -1.2272
16745SOL     OW57474   0.780   1.173   1.652 -0.0452  0.4657  0.1609
16745SOL    HW157475   0.804   1.251   1.702  0.7934 -0.4918  1.3095
16745SOL    HW257476   0.751   1.111   1.718 -0.3789 -0.3204 -0.7056
16746SOL     OW57477   7.508   2.568  12.459 -0.4172  0.0348 -0.4332
16746SOL    HW157478   7.454   2.626  12.514 -0.9622 -0.8293 -0.0319
16746SOL    HW257479   7.581   2.623  12.432 -0.1103  0.4918  1.1948
16747SOL     OW57480   9.812   0.378   8.545  0.1003 -0.4304 -0.2048
16747SOL    HW157481   9.836   0.289   8.571  0.0376 -0.1775  0.7371
16747SOL    HW257482   9.777   0.418   8.625  2.2527  1.2091 -0.0052
16748SOL     OW57483  11.580   6.948  11.039 -0.0376  0.2362  0.1995
16748SOL    HW157484  11.595   6.878  10.975 -0.9607 -0.1204  0.3598
16748SOL    HW257485  11.595   6.906  11.124 -0.7534  0.1847  0.3026
16749SOL     OW57486   8.316   7.374   3.673 -0.2725 -0.0032  0.4788
16749SOL    HW157487   8.337   7.355   3.582  1.1473  0.1223  0.7563
16749SOL    HW257488   8.370   7.314   3.724 -0.4617  0.4639  1.2531
16750SOL     OW57489   8.136   7.371  10.723  0.2156 -0.1054 -0.6174
16750SOL    HW157490   8.083   7.436  10.770  0.7664 -0.8110  1.0613
16750SOL    HW257491   8.155   7.412  10.639  1.9291  2.6510  0.9690
16751SOL     OW57492   0.211   9.290   7.689  0.0259  0.1490 -0.3683
16751SOL    HW157493   0.180   9.274   7.778 -2.4234  1.2278 -0.9375
16751SOL    HW257494   0.159   9.364   7.659  1.1464  0.1255 -2.5465
16752SOL     OW57495  11.413  10.265   2.494 -0.3539 -0.1066  0.4484
16752SOL    HW157496  11.497  10.294   2.530  1.4697 -0.0563 -3.3113
16752SOL    HW257497  11.360  10.345   2.492 -0.1327  0.1065  1.8406
16753SOL     OW57498   8.809   9.083   3.056  0.2486 -0.3087  0.4415
16753SOL    HW157499   8.895   9.045   3.073  1.0893  1.0408 -0.6172
16753SOL    HW257500   8.813   9.113   2.965 -1.1906  0.1544  0.5032
16754SOL     OW57501   4.784  10.494   4.816 -0.3714 -0.3988 -0.1713
16754SOL    HW157502   4.856  10.535   4.865  0.4705 -1.9607 -0.0252
16754SOL    HW257503   4.774  10.550   4.739  1.0595 -0.1689 -0.2348
16755SOL     OW57504   0.402   0.527  10.681  0.2589 -0.1435 -0.2073
16755SOL    HW157505   0.441   0.440  10.679 -1.0280 -0.7938  1.0008
16755SOL    HW257506   0.460   0.581  10.628  0.6230 -1.9288 -1.7180
16756SOL     OW57507  10.075   3.035  12.171  0.0733 -0.5546 -0.2586
16756SOL    HW157508  10.167   3.058  12.161  0.0013 -0.4277 -0.6404
16756SOL    HW257509  10.068   3.003  12.261  0.0983  1.3011  0.4541
16757SOL     OW57510   0.783  11.192  11.165  0.0358  0.1915 -0.6043
16757SOL    HW157511   0.845  11.259  11.137  0.5959  0.9891  2.2660
16757SOL    HW257512   0.712  11.240  11.206 -2.4157 -0.7403 -3.3881
16758SOL     OW57513   3.057   0.973   1.153 -0.1246 -0.1701  0.1033
16758SOL    HW157514   3.049   0.897   1.095  0.9929 -0.4184  0.2476
16758SOL    HW257515   3.007   1.041   1.109 -0.3502 -0.7151 -0.5158
16759SOL     OW57516   6.895  11.452   0.948  0.0914 -0.0644 -0.3606
16759SOL    HW157517   6.800  11.453   0.961  0.1205 -0.3055 -0.1219
16759SOL    HW257518   6.930  11.412   1.028  0.4276  0.4667 -0.2337
16760SOL     OW57519  11.075   4.167   0.417 -0.1485  0.3372 -0.1389
16760SOL    HW157520  11.123   4.085   0.406 -0.2189  0.4032 -1.0272
16760SOL    HW257521  10.985   4.139   0.437 -0.0037  0.2060  0.3349
16761SOL     OW57522   7.673  10.684   3.555 -0.2358  0.4047 -0.0658
16761SOL    HW157523   7.695  10.704   3.646 -1.5161  0.5467  0.2320
16761SOL    HW257524   7.723  10.748   3.503  1.0140 -0.1040  0.4851
16762SOL     OW57525   3.302   7.492   3.216 -0.2394 -0.5143 -0.0405
16762SOL    HW157526   3.312   7.404   3.252  1.8379 -1.0123 -1.6123
16762SOL    HW257527   3.337   7.486   3.127  0.9138  2.1047  0.1370
16763SOL     OW57528   8.377   4.018   1.119 -0.1389 -0.6195 -0.3710
16763SOL    HW157529   8.297   3.970   1.140 -0.6578 -0.1510 -1.2057
16763SOL    HW257530   8.438   3.993   1.188 -1.0126 -0.9455  0.3151
16764SOL     OW57531  12.295   8.711   3.974 -0.2397  0.3621 -0.8407
16764SOL    HW157532  12.255   8.635   3.933  0.8715 -0.9074  0.3298
16764SOL    HW257533  12.347   8.675   4.046  3.1301  1.8386 -2.3235
16765SOL     OW57534   3.215  11.627   5.637  0.1224  0.4287  0.6626
16765SOL    HW157535   3.159  11.559   5.675 -0.0252  0.8402  1.2051
16765SOL    HW257536   3.274  11.580   5.578 -0.4265 -0.0802  0.5076
16766SOL     OW57537   3.571   2.010   8.352  0.6868  0.2985  0.1947
16766SOL    HW157538   3.573   1.915   8.349  1.8954  0.3021  0.3846
16766SOL    HW257539   3.644   2.034   8.409 -0.0173  1.3174  0.7048
16767SOL     OW57540   1.929   3.553   9.378  0.4736 -0.5341  0.0513
16767SOL    HW157541   1.921   3.457   9.379  1.4595 -0.6335 -0.1523
16767SOL    HW257542   1.879   3.581   9.302  0.3616 -0.9071 -0.0125
16768SOL     OW57543   6.814   7.482  10.464 -0.0402 -0.2182  0.3593
16768SOL    HW157544   6.854   7.402  10.431  0.7160 -0.7193  2.3643
16768SOL    HW257545   6.859   7.553  10.418  1.1851 -0.8750  0.5188
16769SOL     OW57546   5.449   6.059  10.896 -0.0928  0.1119  0.1825
16769SOL    HW157547   5.543   6.074  10.909 -0.0583 -1.8279  3.1355
16769SOL    HW257548   5.408   6.140  10.926  0.5766  1.4549 -2.2626
16770SOL     OW57549  10.437  10.365   6.876  0.8372 -0.0400  0.3531
16770SOL    HW157550  10.416  10.294   6.937  0.1489 -1.3340 -1.3206
16770SOL    HW257551  10.402  10.443   6.918  0.1155 -0.9207  1.4727
16771SOL     OW57552   0.126   4.646   3.046  0.0319  0.3701  0.1909
16771SOL    HW157553   0.097   4.715   2.986  2.2086  0.3830 -0.9533
16771SOL    HW257554   0.203   4.683   3.089 -0.3750 -0.3673  1.5994
16772SOL     OW57555   5.760   4.570   9.175  0.2042 -0.4674  0.2201
16772SOL    HW157556   5.827   4.597   9.238  2.1392 -0.2412 -1.7758
16772SOL    HW257557   5.752   4.644   9.115 -2.2761 -0.3002  0.6645
16773SOL     OW57558   0.553  11.228   2.990 -0.1008 -0.3833  0.0623
16773SOL    HW157559   0.574  11.220   2.897 -0.7234  0.1715 -0.1304
16773SOL    HW257560   0.638  11.227   3.033  0.3085  1.0780 -0.6464
16774SOL     OW57561   5.233   3.133   0.088 -0.0332  0.0508 -0.4967
16774SOL    HW157562   5.138   3.130   0.074 -0.1907  4.4678 -2.0807
16774SOL    HW257563   5.270   3.095   0.009 -0.5000 -0.5403 -0.4364
16775SOL     OW57564   8.547   4.819   7.265  0.7642  0.2186  0.1989
16775SOL    HW157565   8.517   4.811   7.174  1.2028 -0.1547  0.0826
16775SOL    HW257566   8.628   4.768   7.268  1.6956  1.6480  0.3600
16776SOL     OW57567   1.526  10.469   2.695 -0.8466  0.2217  0.5841
16776SOL    HW157568   1.617  10.459   2.668 -0.9428  1.1540 -0.1139
16776SOL    HW257569   1.477  10.412   2.636 -0.7120 -0.3586  1.0257
16777SOL     OW57570   2.880   0.080   0.596  0.3626 -0.1092 -0.3809
16777SOL    HW157571   2.866   0.168   0.562 -2.4647 -0.4195 -0.2265
16777SOL    HW257572   2.854   0.022   0.524  0.8159 -0.8290  0.0199
16778SOL     OW57573  11.849  12.549   6.661  0.1647  0.3183 -0.5685
16778SOL    HW157574  11.761  12.546   6.697 -0.6539  1.6248 -2.3293
16778SOL    HW257575  11.846  12.493   6.583  1.4439 -1.1563  0.3845
16779SOL     OW57576   0.886   0.493   0.492 -0.4764 -0.2773 -0.1101
16779SOL    HW157577   0.963   0.526   0.446 -0.6617  0.6617  0.2129
16779SOL    HW257578   0.920   0.457   0.574 -0.3085 -0.5405 -0.2952
16780SOL     OW57579  11.260   3.699  12.392 -0.1497 -0.4275 -0.0002
16780SOL    HW157580  11.236   3.611  12.363  1.2000 -1.3497  1.5141
16780SOL    HW257581  11.218   3.707  12.478  0.4431  0.0650  0.2486
16781SOL     OW57582  12.349   7.623   6.802  0.2414 -0.1171  0.1888
16781SOL    HW157583  12.411   7.585   6.740  0.2524 -0.1054  0.1925
16781SOL    HW257584  12.399   7.693   6.845  0.2884 -0.2440  0.3398
16782SOL     OW57585   8.971   8.012  10.874 -0.6901 -0.5193 -0.3947
16782SOL    HW157586   8.960   7.949  10.803  1.3365  0.3074 -1.5279
16782SOL    HW257587   8.939   8.095  10.838  1.3118  0.1290 -0.7937
16783SOL     OW57588   5.588   7.256   4.084  0.3781 -0.4372  0.5802
16783SOL    HW157589   5.643   7.203   4.027  0.3607  0.5000 -0.3344
16783SOL    HW257590   5.615   7.347   4.066  0.2355 -0.1032  1.9198
16784SOL     OW57591   9.661  11.991  10.129  0.4963  0.0432  0.4125
16784SOL    HW157592   9.590  11.927  10.132  0.0046  0.6183  2.2627
16784SOL    HW257593   9.717  11.961  10.057 -1.3788 -0.6474 -0.8402
16785SOL     OW57594   6.165   6.156   2.498 -0.0956  0.6821  0.3689
16785SOL    HW157595   6.100   6.092   2.525 -0.0171 -1.2792 -3.4145
16785SOL    HW257596   6.248   6.110   2.504  0.3294  1.4280  0.3477
16786SOL     OW57597   8.151   1.291  12.159  0.1868  0.6116  0.1728
16786SOL    HW157598   8.193   1.248  12.233 -0.3288  0.1089  0.1855
16786SOL    HW257599   8.176   1.238  12.083  0.1890  0.7449  0.0804
16787SOL     OW57600  10.562   6.264   1.063 -0.1825  0.0391 -0.2353
16787SOL    HW157601  10.596   6.327   1.000  2.4258 -0.4739  0.5449
16787SOL    HW257602  10.553   6.183   1.013  0.1884  0.0725 -0.3582
16788SOL     OW57603  12.176   8.079   3.244  0.0760  0.0618  0.0967
16788SOL    HW157604  12.194   8.080   3.338 -0.9773  0.4462  0.3084
16788SOL    HW257605  12.263   8.071   3.203  0.6954  1.3895  1.0645
16789SOL     OW57606   7.808   6.617   5.065  0.1171 -0.4434 -0.3584
16789SOL    HW157607   7.719   6.586   5.054  0.8229 -2.4617 -0.7681
16789SOL    HW257608   7.834   6.648   4.978 -0.4168  0.9246 -0.0600
16790SOL     OW57609   1.482   4.424   3.963 -0.0726  0.6092 -0.5183
16790SOL    HW157610   1.409   4.420   3.902 -0.7150 -0.5593  0.2952
16790SOL    HW257611   1.499   4.518   3.974 -0.8367  0.8643 -1.4231
16791SOL     OW57612   7.961   6.924   3.791  0.5878  0.5895  0.2888
16791SOL    HW157613   8.022   6.980   3.743 -0.0797  0.9758 -0.1360
16791SOL    HW257614   7.892   6.905   3.727  0.5442 -0.2874  0.5938
16792SOL     OW57615  12.192   7.896   3.663  0.1518 -0.6804 -0.4325
16792SOL    HW157616  12.132   7.822   3.650 -0.3475 -0.4136  0.2999
16792SOL    HW257617  12.189   7.912   3.757 -0.8468  1.1835 -0.7317
16793SOL     OW57618   8.980  12.213   2.210 -0.1193 -0.6700  0.1118
16793SOL    HW157619   8.952  12.292   2.255 -0.5927  1.1031 -2.9703
16793SOL    HW257620   8.926  12.143   2.248 -1.7871  1.0014  0.9709
16794SOL     OW57621  12.412  10.991  11.071  0.2778  0.2809  0.2273
16794SOL    HW157622  12.378  10.973  11.159 -1.1849  0.5316 -0.2509
16794SOL    HW257623  12.502  11.020  11.086  1.0822 -2.4279  1.4172
16795SOL     OW57624   5.044   2.561   8.023 -0.8112 -0.0556 -0.0045
16795SOL    HW157625   5.104   2.525   8.089  0.4952  1.4919 -0.2921
16795SOL    HW257626   4.975   2.603   8.075 -0.5899 -0.1280  0.3535
16796SOL     OW57627   1.560   6.206   5.051  0.0848  0.1935  0.3374
16796SOL    HW157628   1.483   6.155   5.026 -0.2428  1.4587 -1.4914
16796SOL    HW257629   1.634   6.150   5.029 -0.2348  0.6866 -2.4462
16797SOL     OW57630   6.931  12.132   3.572  0.3817 -0.0792 -0.0775
16797SOL    HW157631   7.023  12.143   3.596  0.2257  1.6141 -0.1831
16797SOL    HW257632   6.882  12.175   3.642 -0.2542  0.6167 -0.9305
16798SOL     OW57633  10.459   1.183   3.073  0.2647  0.2130 -0.2999
16798SOL    HW157634  10.408   1.263   3.057  0.5787  0.8766  1.7786
16798SOL    HW257635  10.544   1.202   3.034 -0.0470  0.3754 -0.9278
16799SOL     OW57636   9.197   4.035   6.138  0.0339 -0.2066  0.5530
16799SOL    HW157637   9.248   4.104   6.094 -0.6766  0.3652  0.6095
16799SOL    HW257638   9.258   3.961   6.144  0.4167 -0.0202 -0.6474
16800SOL     OW57639   3.691   1.165   2.515  0.2325 -0.1156 -0.2519
16800SOL    HW157640   3.713   1.135   2.427 -1.0630 -0.7760 -0.3779
16800SOL    HW257641   3.597   1.148   2.523  0.4742 -0.8209  1.5464
16801SOL     OW57642   9.306   4.372   3.002  0.2360  0.1589 -0.1056
16801SOL    HW157643   9.401   4.382   2.991  0.2117 -0.1467 -0.5896
16801SOL    HW257644   9.279   4.313   2.932 -0.2635 -0.0319  0.2375
16802SOL     OW57645  11.446  12.373   5.012  0.1136 -0.1102 -0.3074
16802SOL    HW157646  11.540  12.391   5.003  0.0900 -0.4825 -1.4028
16802SOL    HW257647  11.423  12.325   4.933 -1.6723  2.6098 -1.5824
16803SOL     OW57648   6.449  11.242   5.534  0.8585  0.5005  0.0272
16803SOL    HW157649   6.400  11.204   5.462  0.8343  1.2413 -0.3536
16803SOL    HW257650   6.404  11.324   5.554  1.8459  1.1352 -0.2467
16804SOL     OW57651   2.507  10.912  11.197 -0.1776 -0.3439 -0.2399
16804SOL    HW157652   2.544  10.939  11.113  1.7579  1.0288  0.9762
16804SOL    HW257653   2.522  10.987  11.255 -0.3115 -1.7288  1.6677
16805SOL     OW57654  11.624   2.951   2.931 -0.3339 -0.1097 -0.3420
16805SOL    HW157655  11.595   2.860   2.921  2.8365 -1.1079 -1.8245
16805SOL    HW257656  11.591   2.995   2.852 -1.4665 -0.0337  0.1468
16806SOL     OW57657   0.976   7.306   1.270  0.3215  0.0461 -1.0074
16806SOL    HW157658   0.917   7.381   1.281 -0.4748 -0.6490 -0.3723
16806SOL    HW257659   1.055   7.343   1.232  0.2349  1.3454 -0.0112
16807SOL     OW57660   0.977   2.707   9.814  0.2644 -0.0680  0.1313
16807SOL    HW157661   1.063   2.747   9.813  0.1998  0.0703 -0.3342
16807SOL    HW257662   0.919   2.774   9.779 -0.0593 -0.1049  0.5823
16808SOL     OW57663   4.308   2.439   5.810  0.0210  0.1270 -0.6681
16808SOL    HW157664   4.242   2.508   5.818 -1.1773 -1.0488 -0.0044
16808SOL    HW257665   4.265   2.361   5.846  1.7763 -0.6833 -0.2474
16809SOL     OW57666   9.177   3.298  11.431  0.5085  0.0265  0.4928
16809SOL    HW157667   9.117   3.264  11.497 -0.9151  1.5056  0.0223
16809SOL    HW257668   9.230   3.363  11.478  0.8004 -0.2894  0.6019
16810SOL     OW57669   5.571   4.827  11.347  0.0378 -0.1682 -0.6472
16810SOL    HW157670   5.626   4.878  11.407  0.2694 -0.8363 -0.2884
16810SOL    HW257671   5.554   4.887  11.274  1.7280 -0.1352 -1.0580
16811SOL     OW57672   2.026   3.087   4.051  0.4869 -0.0746 -0.2433
16811SOL    HW157673   1.974   3.009   4.073 -0.3839  0.8805  1.2775
16811SOL    HW257674   2.117   3.057   4.059  0.1802 -1.1220 -0.4195
16812SOL     OW57675   1.440  10.450   1.379 -0.2997 -0.1835 -0.1266
16812SOL    HW157676   1.368  10.487   1.431 -1.6617 -1.2222 -1.1898
16812SOL    HW257677   1.515  10.451   1.438 -1.4878 -0.2029  1.4606
16813SOL     OW57678   9.247   1.817  10.232  0.0597  0.6831 -0.1701
16813SOL    HW157679   9.279   1.734  10.197 -1.8891 -1.0765  1.8842
16813SOL    HW257680   9.202   1.859  10.158 -2.6296 -2.1694 -0.3824
16814SOL     OW57681   5.689   3.045  11.109  0.2576 -0.1468 -0.3072
16814SOL    HW157682   5.623   3.053  11.040 -1.1028  1.5595  1.0960
16814SOL    HW257683   5.740   3.126  11.103 -0.2443  0.2918  1.0075
16815SOL     OW57684   7.338   9.022   1.451  0.2694  0.5052  0.4874
16815SOL    HW157685   7.339   9.007   1.356 -2.8726 -1.2944  0.5982
16815SOL    HW257686   7.382   8.945   1.487 -1.5927 -0.6143  0.5140
16816SOL     OW57687   4.241  11.152   6.777  0.2921 -0.4265 -0.2278
16816SOL    HW157688   4.298  11.160   6.853 -0.0031 -0.8261  0.0432
16816SOL    HW257689   4.293  11.184   6.703  0.6819 -0.3140  0.0976
16817SOL     OW57690   1.663   8.044   4.626  0.0389 -0.0219  0.0287
16817SOL    HW157691   1.644   8.089   4.544 -1.4583  0.3205  0.5273
16817SOL    HW257692   1.746   7.999   4.610 -0.2010  0.0576 -1.6496
16818SOL     OW57693   4.355   3.208   0.458 -0.4068 -0.1029 -0.4534
16818SOL    HW157694   4.409   3.219   0.535 -1.6562  0.4455  0.3756
16818SOL    HW257695   4.404   3.148   0.402  1.2438  0.7328  0.0559
16819SOL     OW57696   6.132   0.464   5.388  0.1815 -0.3971 -0.2909
16819SOL    HW157697   6.045   0.429   5.366  0.8661 -2.9589  0.6497
16819SOL    HW257698   6.166   0.402   5.452  2.5348  0.8125 -0.2854
16820SOL     OW57699   5.297   5.511   8.905  0.1177  0.3714 -0.2299
16820SOL    HW157700   5.225   5.457   8.939  1.1470 -0.0533  1.4111
16820SOL    HW257701   5.311   5.480   8.816 -1.3871  0.1175 -0.3981
16821SOL     OW57702   6.104   1.696  10.891 -0.3697  0.3691 -0.5570
16821SOL    HW157703   6.170   1.662  10.951 -0.0920  0.2893 -0.9051
16821SOL    HW257704   6.025   1.645  10.911 -0.8744  1.7036  1.1300
16822SOL     OW57705   5.880   6.915  10.000 -0.0801  0.1050 -0.0358
16822SOL    HW157706   5.796   6.962  10.003 -0.2339 -0.2040  1.3056
16822SOL    HW257707   5.855   6.823   9.990  0.1411  0.0929 -0.5097
16823SOL     OW57708  10.680   0.597   4.674 -0.3073  0.0935 -0.8583
16823SOL    HW157709  10.712   0.555   4.594  1.3081 -1.3639  0.4568
16823SOL    HW257710  10.721   0.547   4.745 -2.0506  1.0294  0.9064
16824SOL     OW57711   4.586   2.486  10.837 -0.4160 -0.0285  0.7341
16824SOL    HW157712   4.635   2.556  10.795  0.7578 -0.8377  0.6948
16824SOL    HW257713   4.649   2.414  10.845 -1.6190 -1.1323  0.6397
16825SOL     OW57714   2.314  11.736   9.735  0.3737  0.5476 -0.2430
16825SOL    HW157715   2.363  11.658   9.762  0.1798  0.9186  1.2316
16825SOL    HW257716   2.234  11.734   9.787  0.7265  2.1534  0.4364
16826SOL     OW57717  11.788   0.856   4.606 -0.1842  0.3087 -0.4476
16826SOL    HW157718  11.840   0.788   4.563 -2.0032 -2.6338  1.6127
16826SOL    HW257719  11.853   0.913   4.648  1.4793 -2.2719  0.7225
16827SOL     OW57720   4.815   1.766   1.300 -0.2512 -0.3604  0.2754
16827SOL    HW157721   4.808   1.674   1.327  0.8331 -1.0360 -1.6034
16827SOL    HW257722   4.767   1.770   1.217  1.9914  0.1044 -1.0696
16828SOL     OW57723   2.343   7.159  10.263  0.2608  0.2014 -0.1388
16828SOL    HW157724   2.259   7.171  10.308 -0.2211  0.4874 -1.0922
16828SOL    HW257725   2.339   7.070  10.227  1.5694 -0.9089  2.2352
16829SOL     OW57726  12.011  10.905   7.380  0.3394 -0.2328  0.8551
16829SOL    HW157727  12.068  10.833   7.351 -0.5087 -0.7687  0.4722
16829SOL    HW257728  11.965  10.869   7.456  0.4123  0.1474  1.0782
16830SOL     OW57729   4.704  11.561   8.091 -0.0060 -0.0132 -0.1196
16830SOL    HW157730   4.697  11.470   8.062 -0.1917 -0.7538  2.0295
16830SOL    HW257731   4.638  11.608   8.041 -1.8694 -1.6297  0.7090
16831SOL     OW57732   3.669   3.763   3.184 -0.4978  0.1690  0.2440
16831SOL    HW157733   3.700   3.690   3.131  1.7261  0.6304  0.7942
16831SOL    HW257734   3.656   3.726   3.271 -1.0492  0.0760  0.1236
16832SOL     OW57735   2.247   3.964   1.641 -0.1187  0.0396 -0.2182
16832SOL    HW157736   2.265   3.884   1.691 -2.6460 -0.0708  0.6930
16832SOL    HW257737   2.229   4.030   1.708 -1.8238  0.3486 -0.9272
16833SOL     OW57738   9.361  11.822   6.516 -0.0652  0.4548  0.5999
16833SOL    HW157739   9.282  11.829   6.569 -0.7572  0.5144 -0.4019
16833SOL    HW257740   9.428  11.791   6.576 -1.4156 -2.0046  1.0028
16834SOL     OW57741   5.497   6.018  10.086 -0.5978  0.7879 -0.0404
16834SOL    HW157742   5.574   6.017  10.142  0.0376  1.6807 -0.8458
16834SOL    HW257743   5.462   6.107  10.096 -0.8725  0.7353 -0.5151
16835SOL     OW57744   7.242  12.478   9.526  0.4026 -0.4161 -0.4803
16835SOL    HW157745   7.220  12.385   9.526  1.6053 -0.7155 -0.8552
16835SOL    HW257746   7.182  12.516   9.463  0.0564 -0.9713 -0.4987
16836SOL     OW57747  11.013   8.472   5.405 -0.0424  0.2350 -0.3488
16836SOL    HW157748  11.078   8.402   5.400  0.5325  0.7955 -0.9472
16836SOL    HW257749  10.930   8.427   5.420  0.5657 -0.4553  1.1550
16837SOL     OW57750   9.556   9.613   2.726  0.7320 -0.1294 -0.5492
16837SOL    HW157751   9.468   9.598   2.759 -0.2804 -0.6239 -3.2459
16837SOL    HW257752   9.599   9.663   2.796 -2.2504  1.7839  0.1149
16838SOL     OW57753  12.659   6.506   5.504  0.3144  0.7967 -0.0544
16838SOL    HW157754  12.702   6.448   5.441 -0.0891  0.3021  0.1189
16838SOL    HW257755  12.576   6.529   5.461 -0.4553 -0.4007  0.7281
16839SOL     OW57756   8.231   4.321   5.033  0.8698  0.5902  0.1851
16839SOL    HW157757   8.258   4.289   4.947  1.5913  0.3306  0.5081
16839SOL    HW257758   8.312   4.336   5.080  0.5439  2.3265  0.2575
16840SOL     OW57759   8.181   4.448   7.771  0.5406  0.6829 -0.0501
16840SOL    HW157760   8.226   4.422   7.690 -0.2062  2.0639 -0.9445
16840SOL    HW257761   8.250   4.453   7.836  1.8665  3.1287 -1.4783
16841SOL     OW57762   7.005   4.547  12.333  0.2964  0.5063  0.5095
16841SOL    HW157763   6.982   4.637  12.357 -1.5496  0.4654 -0.9065
16841SOL    HW257764   6.941   4.493  12.379 -0.7342  0.1734 -1.2356
16842SOL     OW57765  10.276   3.277  11.500  0.7195  0.2728 -0.0429
16842SOL    HW157766  10.209   3.308  11.439  0.9796 -0.3167 -0.6442
16842SOL    HW257767  10.355   3.325  11.476  0.9881 -0.4331 -0.6217
16843SOL     OW57768  10.868   8.630   8.832  0.1838  0.1330 -0.2529
16843SOL    HW157769  10.907   8.553   8.874  1.2975  1.5789  1.5020
16843SOL    HW257770  10.778   8.604   8.812  0.3172 -1.3918  0.9423
16844SOL     OW57771   4.568   0.660  12.281  0.1349  0.3233 -0.5457
16844SOL    HW157772   4.524   0.689  12.201 -1.1651 -0.1952 -0.0489
16844SOL    HW257773   4.507   0.682  12.352  1.3966  1.0497  0.3447
16845SOL     OW57774   2.309  10.010   5.420 -0.4950  0.3497  0.2168
16845SOL    HW157775   2.248  10.067   5.373 -0.2224 -0.4492 -1.1650
16845SOL    HW257776   2.278   9.922   5.403  1.3735 -0.1183 -1.0745
16846SOL     OW57777   9.652   2.233   6.639  0.0959  0.0027 -0.1192
16846SOL    HW157778   9.567   2.276   6.650  0.8591  1.6329 -0.2934
16846SOL    HW257779   9.669   2.237   6.545  0.6600  0.3020 -0.0113
16847SOL     OW57780   4.293  11.852   8.130 -0.1803  0.6107  0.4422
16847SOL    HW157781   4.211  11.893   8.103  0.3446  2.0888  0.9969
16847SOL    HW257782   4.267  11.766   8.163 -1.3043  0.4233 -0.8544
16848SOL     OW57783   8.958   2.257   8.465 -0.1829  0.3902 -0.2944
16848SOL    HW157784   8.942   2.279   8.557 -0.7816  2.0499 -0.7596
16848SOL    HW257785   9.051   2.235   8.463  0.8168  3.9368  0.1507
16849SOL     OW57786   3.375   9.547   6.502  0.4235  0.0078  0.0864
16849SOL    HW157787   3.397   9.617   6.564  0.3634  0.5520 -0.5000
16849SOL    HW257788   3.459   9.506   6.482  0.4126 -0.3286  0.7097
16850SOL     OW57789  10.854   9.196   7.713 -0.6363 -0.2679 -0.4020
16850SOL    HW157790  10.917   9.163   7.777 -0.3214 -0.6071 -0.8796
16850SOL    HW257791  10.769   9.176   7.752 -0.4491 -0.8261 -0.2655
16851SOL     OW57792   7.141   1.914   9.145 -0.1435 -0.0830  0.2911
16851SOL    HW157793   7.231   1.922   9.177 -0.1359 -0.2999  0.3227
16851SOL    HW257794   7.147   1.933   9.051  0.0593 -0.8649  0.1412
16852SOL     OW57795   6.594   8.738   3.764 -0.2179  0.1034  0.1043
16852SOL    HW157796   6.538   8.792   3.707 -0.4103 -0.5852 -0.3687
16852SOL    HW257797   6.547   8.656   3.773  0.6271 -0.4198 -0.1373
16853SOL     OW57798   2.171   2.252  11.867  0.1413 -0.2379  0.0326
16853SOL    HW157799   2.171   2.170  11.916  1.6636 -0.0725  0.3704
16853SOL    HW257800   2.211   2.315  11.927 -0.3737  0.5902 -0.4809
16854SOL     OW57801   7.620   5.996   5.068  0.1092  0.6823 -0.1198
16854SOL    HW157802   7.562   5.959   5.002 -0.6084  0.7607  0.4508
16854SOL    HW257803   7.704   6.007   5.023  0.2301 -1.1975 -0.4501
16855SOL     OW57804  11.344   5.770  10.357  0.2953 -0.1881 -0.1239
16855SOL    HW157805  11.373   5.793  10.445 -1.4440 -1.2115  0.7632
16855SOL    HW257806  11.407   5.704  10.327 -0.4383 -1.6479  1.3686
16856SOL     OW57807   7.795   7.328  12.647  0.0510  0.3108 -0.9271
16856SOL    HW157808   7.776   7.262  12.580 -0.8243  0.6006 -0.9801
16856SOL    HW257809   7.754   7.293  12.726 -2.3467  1.7662 -1.4364
16857SOL     OW57810  10.159  12.206  12.221  0.1110  0.4502  0.7891
16857SOL    HW157811  10.148  12.129  12.164  0.8440 -1.2861  2.8550
16857SOL    HW257812  10.074  12.250  12.218 -1.0595 -1.6621  1.1739
16858SOL     OW57813   0.266   4.176  11.373 -0.0799  0.6417 -0.4891
16858SOL    HW157814   0.203   4.135  11.315 -0.4601  0.3219  0.1396
16858SOL    HW257815   0.246   4.269  11.369  0.0762  0.6508 -1.0796
16859SOL     OW57816   4.999   8.256   1.063 -0.6725 -0.1844  0.2039
16859SOL    HW157817   5.038   8.315   0.999 -1.2393  0.9396  0.8626
16859SOL    HW257818   4.956   8.189   1.010 -0.6640  0.4119 -0.5874
16860SOL     OW57819   8.034   6.881   6.358 -0.1228 -0.0238 -0.3030
16860SOL    HW157820   7.980   6.941   6.307 -0.8935  0.7456  1.3370
16860SOL    HW257821   7.989   6.797   6.352  0.0717 -0.0763 -1.2571
16861SOL     OW57822   3.524   5.427  12.494 -0.6968 -0.2633 -0.4743
16861SOL    HW157823   3.442   5.379  12.482 -0.9488 -0.3349  1.3342
16861SOL    HW257824   3.508   5.485  12.568  1.3008 -1.2670  0.8341
16862SOL     OW57825   1.524   1.859   2.943 -0.2396  0.2902 -0.1880
16862SOL    HW157826   1.597   1.916   2.969 -1.3588  0.4963  2.9261
16862SOL    HW257827   1.450   1.919   2.931  0.1227  0.2259 -4.3801
16863SOL     OW57828  10.390   7.976  11.537 -0.0081 -0.3059  0.5680
16863SOL    HW157829  10.364   7.931  11.617  0.2374  0.2347  0.9595
16863SOL    HW257830  10.472   8.021  11.560 -0.9699  1.5002  0.6192
16864SOL     OW57831   9.349   1.453   7.052  0.3436 -0.0611  0.6663
16864SOL    HW157832   9.443   1.463   7.039  0.4169 -1.1101  0.2703
16864SOL    HW257833   9.320   1.401   6.977 -0.6820  0.8536  0.4070
16865SOL     OW57834   1.391  12.058  10.626 -0.0562 -0.2490  0.5708
16865SOL    HW157835   1.483  12.052  10.649  0.0327  1.0390  0.5924
16865SOL    HW257836   1.360  11.967  10.628  1.3101 -0.7563  0.0894
16866SOL     OW57837   9.249   8.931   7.767  0.6009 -0.0883  0.5937
16866SOL    HW157838   9.217   8.954   7.854 -1.1208 -0.0428 -0.0026
16866SOL    HW257839   9.196   8.855   7.741  0.9407  0.0205 -0.4921
16867SOL     OW57840  10.230   6.060  10.812  0.7502 -0.1637 -0.5270
16867SOL    HW157841  10.304   6.064  10.751  0.2873 -3.4226 -1.4573
16867SOL    HW257842  10.177   5.987  10.782 -1.7890  0.7438  1.3704
16868SOL     OW57843   0.130  12.316   1.789  0.3512 -0.3365  0.8990
16868SOL    HW157844   0.167  12.405   1.789 -1.1047  0.2922 -0.0327
16868SOL    HW257845   0.185  12.268   1.852  2.3974  0.6791 -0.0200
16869SOL     OW57846  11.146  11.888   0.045  0.2272  0.4613  0.0650
16869SOL    HW157847  11.192  11.839  -0.023  0.6284 -0.8300  1.2306
16869SOL    HW257848  11.125  11.972   0.003 -1.2173 -0.9460 -2.2620
16870SOL     OW57849   0.898   7.142   9.170  0.2008  0.2019  0.0211
16870SOL    HW157850   0.966   7.100   9.223  1.3060  2.3886  0.4853
16870SOL    HW257851   0.880   7.224   9.216 -2.4794 -0.0956 -0.3573
16871SOL     OW57852   0.850   3.328   0.888 -0.3178  0.2334  0.3932
16871SOL    HW157853   0.878   3.381   0.813  0.6508  0.2182  0.7298
16871SOL    HW257854   0.774   3.279   0.855 -0.1411  0.5093 -0.4664
16872SOL     OW57855   1.337   0.200   5.125 -0.4382 -0.7628  0.3162
16872SOL    HW157856   1.286   0.280   5.117 -0.3758 -0.7287  0.2596
16872SOL    HW257857   1.424   0.223   5.091  1.2753  0.6651  4.9100
16873SOL     OW57858  10.015   4.256   6.864  0.2585  0.3169  0.2342
16873SOL    HW157859  10.030   4.197   6.938 -1.6928  1.2058  1.4310
16873SOL    HW257860  10.059   4.338   6.890 -1.7337  1.1420  1.2201
16874SOL     OW57861   8.396   0.402  12.068  0.2796 -0.6748 -0.0547
16874SOL    HW157862   8.416   0.452  11.989 -0.3876  0.0910  0.2448
16874SOL    HW257863   8.466   0.426  12.129 -1.4492  2.1301  1.0483
16875SOL     OW57864   2.027   9.522   3.981  0.3431 -0.0086 -0.4293
16875SOL    HW157865   2.064   9.435   3.994  0.3891  0.1581  0.6041
16875SOL    HW257866   1.955   9.528   4.044 -0.3746  0.2961 -1.2540
16876SOL     OW57867   1.265   3.814   0.356  0.3798 -0.5331 -0.0264
16876SOL    HW157868   1.277   3.820   0.450 -1.6703  0.7638  0.1981
16876SOL    HW257869   1.301   3.895   0.321  1.0755 -0.9805 -0.3826
16877SOL     OW57870   8.026  10.550   8.141  0.6747  0.7422 -0.5128
16877SOL    HW157871   8.097  10.553   8.077  0.9065 -0.0250 -0.3115
16877SOL    HW257872   7.952  10.592   8.098  1.3318  1.8109 -0.6219
16878SOL     OW57873   9.821   5.683   9.211 -0.1486  0.7334  0.4070
16878SOL    HW157874   9.773   5.728   9.280 -0.8288  1.4617 -0.5195
16878SOL    HW257875   9.864   5.752   9.162  0.9732  0.1646  0.5552
16879SOL     OW57876   0.680  10.736   2.235 -0.6290  0.1748 -0.2549
16879SOL    HW157877   0.726  10.664   2.191  1.2959  0.9891  0.3012
16879SOL    HW257878   0.658  10.701   2.321  0.1966  0.1672 -0.0299
16880SOL     OW57879  12.529   1.534   0.398  0.2021  0.4423  0.6631
16880SOL    HW157880  12.622   1.526   0.419  0.4155  0.4566 -0.2211
16880SOL    HW257881  12.516   1.627   0.382  0.4372  0.2324 -0.9057
16881SOL     OW57882   7.648   4.759   6.895  0.0074  0.0505  0.2560
16881SOL    HW157883   7.584   4.810   6.845  0.0782  1.8326  1.8675
16881SOL    HW257884   7.618   4.668   6.886 -0.8635  0.4705 -1.6640
16882SOL     OW57885   3.663   4.308   1.296 -0.6734  0.1136 -0.3316
16882SOL    HW157886   3.679   4.401   1.308  0.2692 -0.1913  1.0096
16882SOL    HW257887   3.568   4.299   1.296 -0.8451  0.6865  3.2140
16883SOL     OW57888   7.885   5.433  11.476  0.2463  0.1409  0.6628
16883SOL    HW157889   7.864   5.451  11.568 -1.9666 -0.6189  0.3633
16883SOL    HW257890   7.904   5.339  11.474  1.1893  0.3203  0.4549
16884SOL     OW57891   8.406   7.523   8.034 -0.5684  0.1559  0.4724
16884SOL    HW157892   8.425   7.449   7.978 -0.8367 -1.7448  2.7358
16884SOL    HW257893   8.488   7.543   8.078 -0.4921  1.2621 -0.1243
16885SOL     OW57894   2.929  11.715   0.943  0.1246 -0.0994 -0.0804
16885SOL    HW157895   3.015  11.680   0.963  0.0292 -1.1565 -1.4176
16885SOL    HW257896   2.917  11.787   1.005  1.9443  0.0455  0.1365
16886SOL     OW57897   8.828   6.870   4.542  0.0706  0.0280  0.4834
16886SOL    HW157898   8.883   6.888   4.466  0.7244  0.2643  0.9994
16886SOL    HW257899   8.890   6.852   4.613 -0.4996  0.9470  1.2431
16887SOL     OW57900   0.162   8.525  10.793 -0.1617 -0.2245 -0.1097
16887SOL    HW157901   0.104   8.516  10.869  1.3772  2.5009  1.5464
16887SOL    HW257902   0.155   8.618  10.769  3.1199  0.1378 -0.0707
16888SOL     OW57903  11.941   4.109   3.446 -0.3203  0.2602  0.1766
16888SOL    HW157904  11.909   4.140   3.531 -2.7451  0.4885 -0.7491
16888SOL    HW257905  11.883   4.149   3.382 -0.1163 -1.8475 -1.4440
16889SOL     OW57906  11.653   7.844   5.096  0.5421  0.0345 -0.0779
16889SOL    HW157907  11.682   7.852   5.005 -0.9066 -0.4269 -0.6079
16889SOL    HW257908  11.729   7.869   5.148  2.3621 -2.4654 -1.3454
16890SOL     OW57909   7.124   6.916  10.293 -0.7493  0.4843  0.3723
16890SOL    HW157910   7.206   6.922  10.342 -0.6518 -0.9653  0.4228
16890SOL    HW257911   7.117   7.000  10.247 -0.5118  1.6162  2.3227
16891SOL     OW57912   7.364   7.496   2.790 -0.3164  0.1765 -0.1108
16891SOL    HW157913   7.398   7.533   2.872 -0.2427 -1.8414  0.8320
16891SOL    HW257914   7.409   7.412   2.780 -0.0982  0.4998 -2.4187
16892SOL     OW57915   6.563   9.014   7.395 -0.1843  0.2994  1.0053
16892SOL    HW157916   6.574   8.960   7.316 -1.1652  1.5162 -0.0123
16892SOL    HW257917   6.469   9.025   7.404 -0.0247  1.5142  1.3895
16893SOL     OW57918   8.329   8.921  10.625 -0.6348  0.4938 -0.1150
16893SOL    HW157919   8.386   8.953  10.695 -0.9668 -0.2055  0.4913
16893SOL    HW257920   8.262   8.869  10.670 -1.1147  0.3925 -0.9132
16894SOL     OW57921  11.384  11.172   6.866 -0.0533 -0.2765 -0.2841
16894SOL    HW157922  11.454  11.120   6.827  0.1718  0.0238 -0.2872
16894SOL    HW257923  11.373  11.137   6.954  0.0798 -0.3445 -0.2952
16895SOL     OW57924  10.567   2.305   5.915 -0.0201 -0.4562 -0.3883
16895SOL    HW157925  10.573   2.214   5.886 -2.4274 -0.3520 -1.4114
16895SOL    HW257926  10.561   2.355   5.835  2.4884  0.8262  0.1097
16896SOL     OW57927   4.191   9.842  10.700  0.0861 -0.0919 -0.6407
16896SOL    HW157928   4.150   9.868  10.617  0.8769  1.4889 -0.5831
16896SOL    HW257929   4.235   9.921  10.730  1.8705 -1.2927  0.0699
16897SOL     OW57930   3.558  10.739   9.598 -0.2388  0.1479  0.0813
16897SOL    HW157931   3.480  10.704   9.554 -0.1474  1.3688 -1.1274
16897SOL    HW257932   3.618  10.760   9.526  0.4407  1.0047  0.8733
16898SOL     OW57933   9.485   9.065   0.525  0.4462 -0.0150 -0.4300
16898SOL    HW157934   9.458   9.129   0.460 -1.4423 -2.2074 -1.9858
16898SOL    HW257935   9.418   9.071   0.594  0.7416  0.2539 -0.1657
16899SOL     OW57936   8.621   1.077  10.765  0.2282  0.1237  0.0075
16899SOL    HW157937   8.622   1.033  10.850  1.8441 -0.3424 -0.2182
16899SOL    HW257938   8.694   1.138  10.768  0.3445  0.0614 -1.0656
16900SOL     OW57939   2.942   4.188   7.667  0.3150 -0.0129 -0.5682
16900SOL    HW157940   2.915   4.111   7.618  0.2503 -0.4259  0.1081
16900SOL    HW257941   3.038   4.184   7.668  0.3476  0.3936 -1.2790
16901SOL     OW57942   3.405  11.743   1.574  0.0374 -0.1341  0.1498
16901SOL    HW157943   3.408  11.686   1.650  1.3857 -1.1078 -0.5948
16901SOL    HW257944   3.480  11.717   1.520 -0.5148  0.9304 -1.2270
16902SOL     OW57945   2.190   4.699   4.836  0.3944 -0.4086  0.3515
16902SOL    HW157946   2.173   4.613   4.873 -2.2526 -0.7694 -1.3998
16902SOL    HW257947   2.124   4.756   4.876  0.7003  0.2995 -0.1249
16903SOL     OW57948   1.280   1.026   1.728  0.8284  0.3900  0.6548
16903SOL    HW157949   1.367   0.988   1.728  1.2588  1.1829 -1.7641
16903SOL    HW257950   1.221   0.951   1.735  1.6884 -0.6976 -2.1124
16904SOL     OW57951   8.776  11.546   2.196  0.5646  0.0603  0.1335
16904SOL    HW157952   8.769  11.458   2.233  0.5155  0.8265  2.0261
16904SOL    HW257953   8.708  11.549   2.128  0.8836 -1.5008 -0.2866
16905SOL     OW57954  12.408   3.824   2.971 -0.2870  0.2425  0.1281
16905SOL    HW157955  12.318   3.814   2.940 -0.0082 -0.0329 -0.6249
16905SOL    HW257956  12.458   3.848   2.893  0.7407 -2.1392 -0.0136
16906SOL     OW57957   8.219  11.651  11.435 -0.0038 -0.1198 -0.2676
16906SOL    HW157958   8.241  11.728  11.489  0.7030 -0.5547  0.0770
16906SOL    HW257959   8.220  11.578  11.496 -0.9834 -0.3755 -0.5365
16907SOL     OW57960   1.097   9.166   8.769 -0.3232 -0.0866  0.2556
16907SOL    HW157961   1.134   9.134   8.851  1.2194 -0.4820 -0.5515
16907SOL    HW257962   1.003   9.146   8.775 -0.3437  0.3770  2.1159
16908SOL     OW57963   7.972   1.895   8.038  0.5076  0.4144 -0.1755
16908SOL    HW157964   8.023   1.817   8.016 -0.0793 -0.3808  1.1067
16908SOL    HW257965   8.035   1.967   8.037  1.5043 -0.4113  0.5881
16909SOL     OW57966  10.793  10.982   7.291  0.1636  0.8578 -0.7174
16909SOL    HW157967  10.863  11.018   7.346  0.6396 -0.1417 -0.6572
16909SOL    HW257968  10.818  11.009   7.202 -0.4189  2.1643 -0.5118
16910SOL     OW57969   0.977   2.316  10.259  0.4989 -0.2061  0.5032
16910SOL    HW157970   0.991   2.232  10.303 -3.4625 -0.7968  0.9269
16910SOL    HW257971   1.031   2.311  10.180 -1.0320 -4.0484 -0.5106
16911SOL     OW57972  10.404   7.036   7.439 -0.5294 -0.5263 -0.0553
16911SOL    HW157973  10.384   6.960   7.386 -0.7892 -1.5373  1.4296
16911SOL    HW257974  10.322   7.086   7.443 -0.6536 -0.7242 -0.1677
16912SOL     OW57975   4.178   5.029   9.922 -0.6551  0.3297  0.3077
16912SOL    HW157976   4.092   5.044   9.961 -1.4193 -0.4689 -0.9795
16912SOL    HW257977   4.176   5.078   9.839  0.2985  0.6454  0.4502
16913SOL     OW57978   7.741  12.518   5.465  0.5192  0.0917  0.8833
16913SOL    HW157979   7.741  12.612   5.486 -0.4903 -0.1507  2.0684
16913SOL    HW257980   7.833  12.491   5.476  0.7118  0.8140  1.1171
16914SOL     OW57981  12.208  11.207   0.513  0.4885  0.2547  0.1223
16914SOL    HW157982  12.144  11.136   0.501  0.4344 -0.0266  1.8321
16914SOL    HW257983  12.154  11.286   0.521  0.3135 -0.0003  1.7000
16915SOL     OW57984   5.254   4.907   9.228 -0.4606 -0.1923  0.3859
16915SOL    HW157985   5.339   4.865   9.216 -1.1478 -1.6055  0.3192
16915SOL    HW257986   5.271   4.976   9.293  0.3488 -1.7102  1.8742
16916SOL     OW57987   6.886   0.340   3.957  0.3794  0.3755  0.3562
16916SOL    HW157988   6.846   0.259   3.987 -0.0764  0.8277  1.0142
16916SOL    HW257989   6.849   0.355   3.870  0.2787  0.0077  0.3345
16917SOL     OW57990   0.189   6.497   2.488  0.5492  0.2862  0.2369
16917SOL    HW157991   0.193   6.421   2.431 -1.1617 -0.7785  1.4336
16917SOL    HW257992   0.112   6.546   2.458 -1.0258 -0.8440  2.1581
16918SOL     OW57993   6.456   1.691   5.023 -0.2428 -0.1546 -0.3624
16918SOL    HW157994   6.390   1.710   5.090 -0.6422 -0.4111 -0.6761
16918SOL    HW257995   6.438   1.601   4.997  1.0410 -0.6771  0.4527
16919SOL     OW57996   0.262   1.587   4.553 -0.1295  0.5149  0.0993
16919SOL    HW157997   0.221   1.672   4.570  1.6733  1.5594 -0.4452
16919SOL    HW257998   0.329   1.606   4.487  0.5860 -1.2670  0.2569
16920SOL     OW57999   1.960   0.085  11.441  0.1454 -0.8032 -0.1767
16920SOL    HW158000   1.938   0.137  11.519 -0.6024  0.7873 -1.3716
16920SOL    HW258001   1.875   0.059  11.405  0.4321 -0.5588 -1.0600
16921SOL     OW58002  11.575   3.930   3.448 -0.1379  0.1143  0.5622
16921SOL    HW158003  11.540   3.888   3.369  0.4525 -0.2618  0.4929
16921SOL    HW258004  11.619   4.009   3.416  0.7283 -0.4148  0.4231
16922SOL     OW58005   8.114  12.479   4.866 -0.3321 -0.3568  0.0970
16922SOL    HW158006   8.064  12.500   4.945 -0.6287  0.6436 -0.3537
16922SOL    HW258007   8.172  12.408   4.894 -2.0141 -1.5954  0.6121
16923SOL     OW58008  12.308   9.176  11.595 -0.2007  0.1128 -0.1476
16923SOL    HW158009  12.316   9.195  11.502  0.0147  0.4702 -0.0597
16923SOL    HW258010  12.252   9.247  11.628 -1.3027 -0.6973 -0.2256
16924SOL     OW58011   6.848   1.594   0.840 -0.5848 -0.6125  0.2708
16924SOL    HW158012   6.821   1.520   0.785 -5.8065  0.0884  1.3260
16924SOL    HW258013   6.908   1.644   0.786 -0.9328 -2.9181 -2.4911
16925SOL     OW58014  10.160   0.032   9.245  0.7518 -0.6284  0.6012
16925SOL    HW158015  10.113  -0.022   9.182  1.4183  0.6741 -1.0853
16925SOL    HW258016  10.149  -0.014   9.329 -0.3686 -2.2778 -0.3905
16926SOL     OW58017   1.310   7.575   7.245 -0.1226  0.0697  0.2811
16926SOL    HW158018   1.391   7.608   7.206  1.0740 -0.5405  2.1575
16926SOL    HW258019   1.284   7.642   7.308 -0.3803 -0.3124  0.5889
16927SOL     OW58020   6.474   7.739   0.438 -0.2883  0.1106 -0.0700
16927SOL    HW158021   6.487   7.649   0.408  0.5199  0.7513 -1.7702
16927SOL    HW258022   6.553   7.785   0.411 -0.6135  1.3066  0.9366
16928SOL     OW58023   5.139   0.697   5.311 -1.0383 -0.1901 -0.0200
16928SOL    HW158024   5.094   0.781   5.324 -0.6989  0.5221 -2.8934
16928SOL    HW258025   5.210   0.698   5.376 -0.5723  2.1305 -0.4858
16929SOL     OW58026   8.302   8.784   4.013  0.2831 -0.5167  0.5461
16929SOL    HW158027   8.357   8.731   3.956  1.1901 -0.8348  1.6621
16929SOL    HW258028   8.364   8.828   4.071 -0.6298 -1.7569  2.5955
16930SOL     OW58029   8.953   2.382   5.703  1.0596 -0.2706  0.0521
16930SOL    HW158030   9.006   2.404   5.780  0.2432 -0.6241  0.7370
16930SOL    HW258031   8.898   2.459   5.690 -0.0909 -0.9093  0.9638
16931SOL     OW58032   2.238   4.269   3.825  0.0701  0.3541  0.6349
16931SOL    HW158033   2.187   4.340   3.865  0.4971  1.1071 -0.1066
16931SOL    HW258034   2.214   4.274   3.732  0.4524 -0.1831  0.5092
16932SOL     OW58035   5.412   8.095   4.244 -0.2428  0.3102 -0.0459
16932SOL    HW158036   5.395   8.170   4.187  0.0148  0.1017 -0.4043
16932SOL    HW258037   5.325   8.068   4.274 -0.2851  1.1369  0.6001
16933SOL     OW58038  10.264  10.637   0.565 -0.4145 -0.6824  0.4889
16933SOL    HW158039  10.329  10.576   0.528  0.0578  0.6522 -1.0417
16933SOL    HW258040  10.315  10.694   0.622 -0.6446 -0.9849  1.0002
16934SOL     OW58041   7.037  12.430  12.221  0.2173  0.0136 -0.3202
16934SOL    HW158042   7.121  12.437  12.266  1.0810 -4.3991 -0.7904
16934SOL    HW258043   6.974  12.413  12.291  0.8133 -2.4672 -0.3120
16935SOL     OW58044   7.091   8.920   9.024  0.0051  0.2396 -0.0539
16935SOL    HW158045   7.139   9.002   9.018 -0.9212  0.7935 -0.0650
16935SOL    HW258046   7.053   8.921   9.112 -0.4447  0.0745 -0.2427
16936SOL     OW58047   1.613   3.023   5.580  0.2911 -0.2698  0.3335
16936SOL    HW158048   1.579   3.108   5.551  3.2700  0.1862 -2.4525
16936SOL    HW258049   1.546   2.960   5.554 -1.1089  1.0449  0.6561
16937SOL     OW58050  10.091   8.773   6.365  0.1296  0.0623 -0.1177
16937SOL    HW158051  10.012   8.742   6.321  1.3735 -1.2129 -1.5638
16937SOL    HW258052  10.156   8.705   6.350  2.3057  2.2219 -1.3325
16938SOL     OW58053  11.287   3.090   9.211  0.6571 -0.5180  0.0544
16938SOL    HW158054  11.238   3.048   9.140  1.9960 -0.5469 -0.8777
16938SOL    HW258055  11.278   3.030   9.285 -2.3806  0.3969  0.5964
16939SOL     OW58056   8.679   9.230   5.630  0.6926 -0.2850 -0.1701
16939SOL    HW158057   8.657   9.218   5.722 -0.9984  0.3883 -0.4598
16939SOL    HW258058   8.661   9.145   5.590  0.8456 -0.3988 -0.0011
16940SOL     OW58059  11.947   3.105   0.541  0.6216  0.0172 -0.5792
16940SOL    HW158060  11.998   3.068   0.470  0.2422 -1.6428 -0.0195
16940SOL    HW258061  11.902   3.031   0.581 -0.9055  1.1970  0.0171
16941SOL     OW58062   0.124   4.389   9.417  0.4922 -0.2515  0.3694
16941SOL    HW158063   0.209   4.352   9.441  0.7609  2.0175  3.5464
16941SOL    HW258064   0.060   4.336   9.464  0.1309 -1.4546 -1.3823
16942SOL     OW58065   2.581   6.613   8.855 -0.1951 -0.0365  0.3991
16942SOL    HW158066   2.547   6.532   8.817  1.9814 -0.4987 -0.7280
16942SOL    HW258067   2.504   6.669   8.865 -1.6916 -2.0646  0.8107
16943SOL     OW58068   1.357   5.926   5.565 -0.5215  0.5285 -0.8333
16943SOL    HW158069   1.293   5.978   5.614  1.1451  1.6788  0.2289
16943SOL    HW258070   1.397   5.988   5.505  0.5337  0.1588 -0.5291
16944SOL     OW58071   2.107   6.212   4.338  0.1361  0.2800  0.3152
16944SOL    HW158072   2.023   6.249   4.366  0.0728  1.6745 -1.5572
16944SOL    HW258073   2.169   6.285   4.347  0.6277 -0.0093 -0.6535
16945SOL     OW58074   2.160   7.574   1.258 -0.1774 -0.4407 -0.2386
16945SOL    HW158075   2.079   7.532   1.229 -0.2894 -0.0318 -0.5318
16945SOL    HW258076   2.203   7.600   1.176  1.0144 -2.0499 -0.1754
16946SOL     OW58077  10.977   7.406   6.532  0.2061 -0.4582 -0.5706
16946SOL    HW158078  10.892   7.363   6.542 -0.4602  0.4243 -2.0767
16946SOL    HW258079  10.992   7.448   6.617 -0.7762 -0.7485 -0.2345
16947SOL     OW58080   2.359  12.172   9.031  1.0796  0.0055 -0.4319
16947SOL    HW158081   2.308  12.099   8.996 -0.7241  0.7101  0.6318
16947SOL    HW258082   2.381  12.145   9.121 -0.7760  1.2705  0.4565
16948SOL     OW58083   0.429   8.911   8.692  0.2160  0.1734 -0.5394
16948SOL    HW158084   0.479   8.990   8.672  0.3821  0.2383  0.1266
16948SOL    HW258085   0.401   8.921   8.783  2.2987 -1.6025  0.3821
16949SOL     OW58086  11.336  10.608   0.112  0.3631  0.0617 -0.1546
16949SOL    HW158087  11.391  10.633   0.038  0.8426 -0.0784  0.1478
16949SOL    HW258088  11.369  10.661   0.185 -0.9802  1.1997 -0.3364
16950SOL     OW58089   7.735   2.142   1.825  0.2004 -0.0416  0.1789
16950SOL    HW158090   7.767   2.166   1.738  1.1171 -0.9016  0.2676
16950SOL    HW258091   7.653   2.191   1.834 -0.8314 -1.2204 -1.8696
16951SOL     OW58092  11.176   8.414   7.766  0.4468 -0.2813  0.3471
16951SOL    HW158093  11.102   8.353   7.763 -0.4380  0.7959 -0.9277
16951SOL    HW258094  11.148   8.488   7.713  1.7966  0.9092  1.2305
16952SOL     OW58095  11.671  11.814   4.849 -0.4693 -0.5648 -0.1761
16952SOL    HW158096  11.608  11.886   4.847  1.5221  1.2706 -1.9867
16952SOL    HW258097  11.749  11.852   4.890 -0.0173 -2.3326  0.6911
16953SOL     OW58098  10.462  11.778  11.773 -0.2379 -0.2123  0.4004
16953SOL    HW158099  10.439  11.756  11.683 -0.8142 -0.2787  0.5599
16953SOL    HW258100  10.500  11.866  11.768 -1.0991  0.1550  0.2091
16954SOL     OW58101   0.831   2.995  10.197  0.4070 -0.4787  0.3046
16954SOL    HW158102   0.857   2.904  10.212 -0.0302 -0.5702  0.5364
16954SOL    HW258103   0.791   3.022  10.280 -1.6205 -0.8295 -0.4967
16955SOL     OW58104   5.402   1.423   2.303  0.8445  0.6883  0.3694
16955SOL    HW158105   5.482   1.379   2.333  1.3885  0.9685 -0.6400
16955SOL    HW258106   5.395   1.500   2.360 -0.2929 -0.8023  2.3628
16956SOL     OW58107   6.949   2.141   9.964 -0.4459  0.0798 -0.1088
16956SOL    HW158108   6.920   2.144   9.873 -2.2296 -0.0717  0.4261
16956SOL    HW258109   6.924   2.227  10.000  3.0102  1.4035 -0.4928
16957SOL     OW58110   5.826   7.486  11.253  0.3257 -0.1523  0.4891
16957SOL    HW158111   5.873   7.568  11.267 -0.4241  0.2958  0.4502
16957SOL    HW258112   5.778   7.500  11.171  0.5017 -0.7767  0.2736
16958SOL     OW58113   6.408   5.999   8.711  0.2721  0.1785 -0.0429
16958SOL    HW158114   6.408   6.065   8.642 -1.3477  0.8035  0.5011
16958SOL    HW258115   6.391   5.916   8.666 -0.1031  0.4904 -0.4836
16959SOL     OW58116   9.670   7.933   4.305  0.5398  0.0890  0.5526
16959SOL    HW158117   9.744   7.994   4.298 -0.2200  0.8801 -2.0230
16959SOL    HW258118   9.620   7.965   4.380  0.6848  2.1183 -0.1360
16960SOL     OW58119  11.319  12.490   2.130  0.2078 -0.0711  0.1713
16960SOL    HW158120  11.401  12.538   2.125  0.8183 -0.9721  1.0640
16960SOL    HW258121  11.345  12.398   2.124 -0.9745 -0.3282 -2.2450
16961SOL     OW58122   4.884   5.418   1.289  0.5449  0.1904 -0.2869
16961SOL    HW158123   4.841   5.345   1.333  0.6233  0.1446 -0.2857
16961SOL    HW258124   4.978   5.401   1.301  0.6215 -0.7244 -1.9230
16962SOL     OW58125   6.851   0.029   0.315 -0.2075 -0.2023 -0.4007
16962SOL    HW158126   6.911   0.030   0.240  0.7101 -0.7208  0.3093
16962SOL    HW258127   6.771  -0.011   0.281  0.7434 -1.9399 -0.7249
16963SOL     OW58128   7.052  11.304   1.406 -0.1409  0.4159  0.3004
16963SOL    HW158129   6.973  11.259   1.436  0.0525 -0.6605 -0.7693
16963SOL    HW258130   7.025  11.396   1.397 -0.9722  0.2438  0.9446
16964SOL     OW58131   7.105  12.583   5.824 -0.0093  0.0662  0.0201
16964SOL    HW158132   7.098  12.523   5.898  1.5809 -0.1211  0.0737
16964SOL    HW258133   7.036  12.557   5.764  0.5912 -1.8071  0.0781
16965SOL     OW58134  10.974  10.488   6.916  0.1502 -0.4402  0.1837
16965SOL    HW158135  10.964  10.468   6.823 -3.6404  0.0851  0.3061
16965SOL    HW258136  10.967  10.583   6.922 -2.8874 -0.6119  1.1136
16966SOL     OW58137   1.068   5.405   4.369 -0.0587  0.4659  0.2857
16966SOL    HW158138   1.143   5.400   4.310 -0.2385 -0.8082  0.1542
16966SOL    HW258139   1.094   5.356   4.447 -0.7871 -0.0583  0.2051
16967SOL     OW58140   2.411   4.409   6.984 -0.6945 -0.1055  0.1593
16967SOL    HW158141   2.432   4.375   7.071  1.4183 -0.4925 -0.4585
16967SOL    HW258142   2.355   4.342   6.945 -0.7232 -0.4631  0.8012
16968SOL     OW58143   6.047  11.097   5.068  0.3785 -0.2900  0.2700
16968SOL    HW158144   5.952  11.095   5.063  0.2043  2.6671  0.5975
16968SOL    HW258145   6.068  11.044   5.145 -1.0440 -0.5056  0.5380
16969SOL     OW58146   5.571  10.734  12.380  0.0512  0.0821 -0.2232
16969SOL    HW158147   5.480  10.761  12.396  1.0507  3.5917  0.4684
16969SOL    HW258148   5.595  10.780  12.299  1.2183 -0.8586 -0.4324
16970SOL     OW58149   3.804   5.992   0.736  0.1727 -0.0070  0.2384
16970SOL    HW158150   3.849   6.042   0.666 -2.4555 -0.1039 -1.6535
16970SOL    HW258151   3.792   6.056   0.806 -1.2101  1.5059 -1.2823
16971SOL     OW58152   6.721   9.974   1.526  0.8324  0.4785 -0.6608
16971SOL    HW158153   6.703   9.893   1.573 -1.2102 -0.4039 -2.7774
16971SOL    HW258154   6.699  10.043   1.588  1.4763 -0.5512  0.7849
16972SOL     OW58155   9.760  12.340   2.345 -0.1733 -0.0182 -0.6707
16972SOL    HW158156   9.840  12.391   2.334  1.0903 -1.4338  1.3453
16972SOL    HW258157   9.703  12.395   2.398  0.8142 -0.2848  0.7116
16973SOL     OW58158  12.659   6.407   7.768 -0.0802 -0.5233  0.0015
16973SOL    HW158159  12.700   6.417   7.854  0.3569 -3.9439  0.3327
16973SOL    HW258160  12.731   6.380   7.711 -0.3633  1.7271 -1.5588
16974SOL     OW58161  11.521   5.123   6.848  0.3257  0.2060 -0.5205
16974SOL    HW158162  11.611   5.154   6.839  0.4524 -0.0412 -0.1084
16974SOL    HW258163  11.470   5.203   6.860  0.6908  0.2530  0.8455
16975SOL     OW58164   4.384  11.932   7.319  0.2986 -0.3699  0.3885
16975SOL    HW158165   4.429  11.945   7.235  2.0095  0.4727  1.3864
16975SOL    HW258166   4.454  11.916   7.382 -0.9846 -1.3931  1.6100
16976SOL     OW58167  10.713   8.813   4.746  0.1382  0.0297 -0.0716
16976SOL    HW158168  10.776   8.879   4.774 -0.3973  0.6464 -0.2952
16976SOL    HW258169  10.627   8.854   4.760 -0.2525 -1.1315  1.0770
16977SOL     OW58170  12.253  10.956   0.873 -0.1986  0.1898  0.7577
16977SOL    HW158171  12.310  11.014   0.822 -0.7922 -0.4103 -0.6475
16977SOL    HW258172  12.227  11.009   0.949  1.6820  0.6888  1.1167
16978SOL     OW58173   6.610  12.491   6.056  0.1663 -0.6862 -0.2614
16978SOL    HW158174   6.525  12.523   6.086  0.1700  0.5755 -1.4764
16978SOL    HW258175   6.673  12.552   6.096  0.5330 -1.6459  0.6761
16979SOL     OW58176   9.947   3.705   5.683 -0.5806 -0.5847 -0.2038
16979SOL    HW158177  10.018   3.678   5.742 -0.0599 -1.2265 -1.0946
16979SOL    HW258178   9.904   3.777   5.729  0.6398 -0.1904  0.3715
16980SOL     OW58179   2.917   8.101   7.413  0.0973 -0.0833  0.1323
16980SOL    HW158180   2.842   8.049   7.440  0.6299  0.2483  2.4004
16980SOL    HW258181   2.879   8.176   7.367 -0.8502 -0.7292 -0.1650
16981SOL     OW58182   4.703  11.390   4.421  0.1157  0.1853 -0.3302
16981SOL    HW158183   4.780  11.441   4.397 -0.1757  0.5428 -0.5156
16981SOL    HW258184   4.655  11.378   4.339 -0.3026  0.4372 -0.1285
16982SOL     OW58185   6.775   8.240   4.136  0.6001 -0.0677  0.1658
16982SOL    HW158186   6.751   8.317   4.188  0.7233 -0.1640  0.3684
16982SOL    HW258187   6.694   8.213   4.093  0.1450 -0.8740  1.4685
16983SOL     OW58188  12.024  11.364   4.436 -0.0104 -0.1050 -0.5770
16983SOL    HW158189  12.108  11.334   4.400  0.7839 -2.0660  2.5382
16983SOL    HW258190  11.959  11.307   4.395  0.6928 -1.3102 -0.0802
16984SOL     OW58191   2.611  10.965   9.291 -0.3552  0.4539 -0.1889
16984SOL    HW158192   2.620  11.009   9.206  1.9115 -1.4312 -1.0374
16984SOL    HW258193   2.664  11.017   9.351  1.3803 -0.3838 -0.9268
16985SOL     OW58194   4.757   8.887   5.415  0.5627 -0.1826 -0.6082
16985SOL    HW158195   4.693   8.910   5.483  0.9379 -0.1378 -0.2710
16985SOL    HW258196   4.735   8.945   5.342  0.9224  0.6120 -0.0937
16986SOL     OW58197   7.893   0.760   6.365 -0.0232 -0.0786 -0.6833
16986SOL    HW158198   7.868   0.748   6.456 -0.0998  0.0399 -0.6889
16986SOL    HW258199   7.978   0.803   6.369  0.1442 -0.4096 -0.6660
16987SOL     OW58200   6.925   4.340   1.056 -0.1861 -0.5948 -0.2689
16987SOL    HW158201   7.017   4.367   1.049 -0.4070 -0.2093 -2.0375
16987SOL    HW258202   6.878   4.400   0.999 -1.6669 -0.3530  1.1342
16988SOL     OW58203   2.390  12.689  10.577  0.0449  0.6286  0.7084
16988SOL    HW158204   2.317  12.751  10.578  0.6194  1.3881 -0.9883
16988SOL    HW258205   2.412  12.679  10.484  1.3219 -0.5206  1.0984
16989SOL     OW58206  11.820   4.138   9.127  0.3921  0.1040 -0.4170
16989SOL    HW158207  11.818   4.059   9.181  2.3714 -0.8243 -1.5993
16989SOL    HW258208  11.794   4.208   9.187  1.7747 -0.9841  1.5926
16990SOL     OW58209   1.138   5.118   8.044 -0.2976 -0.4883 -0.2295
16990SOL    HW158210   1.181   5.049   8.095 -2.0941 -0.8165  0.9323
16990SOL    HW258211   1.161   5.098   7.953  1.3190 -1.0968  0.2903
16991SOL     OW58212   3.187  11.953   4.375  0.0273 -0.6070  0.3068
16991SOL    HW158213   3.255  12.019   4.384  0.6235 -0.9867 -1.1791
16991SOL    HW258214   3.121  11.978   4.440  1.8346 -0.5819  2.2213
16992SOL     OW58215  12.470   3.845   3.460 -0.4824 -0.3719 -0.6623
16992SOL    HW158216  12.424   3.764   3.483  0.1562 -1.0557 -1.7002
16992SOL    HW258217  12.422   3.880   3.385 -0.4171 -0.0911 -0.5763
16993SOL     OW58218  12.612  11.677  10.604  0.1751  0.3041  0.1492
16993SOL    HW158219  12.643  11.754  10.651 -0.4552  1.1795 -0.8226
16993SOL    HW258220  12.648  11.602  10.653 -0.0802  1.1783  1.7307
16994SOL     OW58221  10.539   6.765   0.986 -0.4609 -0.2462  0.2638
16994SOL    HW158222  10.557   6.750   0.893 -0.4344 -0.3628  0.2876
16994SOL    HW258223  10.560   6.857   0.999 -0.1590 -0.3069  0.2232
16995SOL     OW58224  10.423   5.563   2.303  0.0474 -0.2081 -0.4138
16995SOL    HW158225  10.379   5.551   2.387  2.8029 -3.5716  0.7793
16995SOL    HW258226  10.393   5.489   2.249  1.0906 -0.2096 -1.0190
16996SOL     OW58227   7.710   7.569   2.684 -0.0512 -0.2407 -0.3618
16996SOL    HW158228   7.621   7.542   2.660  0.1550 -1.3600  0.0568
16996SOL    HW258229   7.707   7.577   2.779  0.1755  0.1923 -0.3921
16997SOL     OW58230   9.102   3.281   8.416 -1.0547  0.3021 -0.3157
16997SOL    HW158231   9.112   3.193   8.378  0.7126  0.6442 -0.6889
16997SOL    HW258232   9.117   3.269   8.509  0.6976  0.4182 -0.5582
16998SOL     OW58233  10.605  11.609   2.503 -0.6152  0.5756 -0.1060
16998SOL    HW158234  10.532  11.548   2.495 -0.3066  0.1657  0.1477
16998SOL    HW258235  10.683  11.553   2.503 -0.2438  1.0616 -1.2576
16999SOL     OW58236   7.551  11.127  10.373  0.0253 -0.6321 -0.2033
16999SOL    HW158237   7.562  11.221  10.387 -1.9547 -0.4384  0.4246
16999SOL    HW258238   7.511  11.120  10.286  2.2458 -1.1099 -1.2704
17000SOL     OW58239   5.305   5.361   9.395 -0.2982 -0.4522 -0.6404
17000SOL    HW158240   5.257   5.324   9.469 -2.0141  2.0705 -0.3667
17000SOL    HW258241   5.389   5.387   9.431 -0.8845  0.1914  0.2940
17001SOL     OW58242   7.110  11.846   2.604  0.3271  0.0611  0.1674
17001SOL    HW158243   7.078  11.852   2.693  0.2007  0.1098  0.1185
17001SOL    HW258244   7.153  11.931   2.588  0.7105 -0.1033  0.3223
17002SOL     OW58245   4.459   3.967   5.477 -0.2913 -1.1018  0.5451
17002SOL    HW158246   4.368   3.965   5.507 -1.1796  0.4057 -1.7264
17002SOL    HW258247   4.456   4.018   5.395  2.6743 -0.5789  0.6435
17003SOL     OW58248   0.653   6.428  11.928  0.0232 -0.4000  0.0132
17003SOL    HW158249   0.621   6.491  11.993  0.8848  2.2354 -1.9387
17003SOL    HW258250   0.606   6.347  11.948 -1.3603  0.8919  2.5107
17004SOL     OW58251  10.347   8.714  10.456 -0.1138  0.0083 -0.0702
17004SOL    HW158252  10.424   8.687  10.405  0.9455 -0.6980  1.8018
17004SOL    HW258253  10.362   8.807  10.473  0.6354 -0.2450  0.7396
17005SOL     OW58254   0.591  10.656   8.559  0.0965  0.4108  0.1426
17005SOL    HW158255   0.601  10.665   8.654 -3.3132  0.6348  0.6266
17005SOL    HW258256   0.566  10.565   8.546  0.0223  0.5109 -0.4452
17006SOL     OW58257   1.514   8.916   1.641 -0.2167  0.1306  0.1938
17006SOL    HW158258   1.605   8.932   1.668 -0.0838 -0.6789  0.2607
17006SOL    HW258259   1.514   8.932   1.547 -0.1881  0.8666  0.3079
17007SOL     OW58260   7.532   5.304   8.297 -0.2188  0.1289  0.3401
17007SOL    HW158261   7.607   5.359   8.274  0.3404 -0.5086  0.5963
17007SOL    HW258262   7.538   5.230   8.237 -0.4625 -0.0826  0.5753
17008SOL     OW58263   9.150   1.115   4.782  0.1399 -0.0873  0.4246
17008SOL    HW158264   9.246   1.118   4.774  0.0863 -0.7596 -0.7164
17008SOL    HW258265   9.129   1.184   4.846  1.2653  1.0948 -0.4181
17009SOL     OW58266  12.430   1.683   0.735 -0.1471 -0.0643 -0.0424
17009SOL    HW158267  12.477   1.759   0.701 -0.2920 -0.0782 -0.2748
17009SOL    HW258268  12.460   1.675   0.825  2.0301 -1.3995 -0.7855
17010SOL     OW58269   3.512  10.501   7.371 -1.0771 -0.8365 -0.5145
17010SOL    HW158270   3.573  10.547   7.428 -0.8708  0.3904 -1.6727
17010SOL    HW258271   3.545  10.412   7.367 -1.2871 -1.0675  1.5052
17011SOL     OW58272   3.281   2.655   5.470  0.0981  0.5621  0.5664
17011SOL    HW158273   3.333   2.678   5.547 -1.0489  1.4064  1.1156
17011SOL    HW258274   3.208   2.717   5.471 -0.3370  0.1054 -0.7920
17012SOL     OW58275   9.010   2.990   8.678  0.3864  0.3292  0.0737
17012SOL    HW158276   9.046   2.909   8.645 -0.8428 -0.6465  1.0030
17012SOL    HW258277   8.917   2.987   8.655  0.4398  1.8066 -0.4812
17013SOL     OW58278   2.588   6.792   5.583  0.3059 -0.1038 -0.1759
17013SOL    HW158279   2.498   6.793   5.550 -0.3635  0.8738  1.5263
17013SOL    HW258280   2.637   6.845   5.519 -0.2579 -0.8243 -1.2355
17014SOL     OW58281   6.167   0.802   3.849  0.2180 -0.0665 -0.1148
17014SOL    HW158282   6.220   0.881   3.849  0.4329 -0.1998  0.7344
17014SOL    HW258283   6.076   0.833   3.846  0.2341  0.2972  1.9664
17015SOL     OW58284   8.156   4.457  10.694 -0.2741 -0.0042  0.0071
17015SOL    HW158285   8.227   4.516  10.719 -0.6932  0.5170 -0.0115
17015SOL    HW258286   8.076   4.505  10.717 -0.6755  0.2786 -1.8550
17016SOL     OW58287   1.173   4.897   2.430 -0.6134 -0.3638  0.0217
17016SOL    HW158288   1.217   4.838   2.491 -1.4361  0.5280  1.5259
17016SOL    HW258289   1.088   4.855   2.414 -0.2508 -0.7901 -0.8416
17017SOL     OW58290   5.878  12.283   6.832 -0.0541 -0.1035  0.0815
17017SOL    HW158291   5.924  12.213   6.786 -1.5034 -0.5668 -0.7161
17017SOL    HW258292   5.922  12.289   6.917  0.6898 -1.3235 -0.1979
17018SOL     OW58293   5.714   2.458   3.475  0.5826  0.1561  0.1520
17018SOL    HW158294   5.706   2.443   3.381 -0.2523 -0.9381  0.3719
17018SOL    HW258295   5.623   2.462   3.506  0.8440 -0.5908  1.0618
17019SOL     OW58296   6.339  12.561  10.685  0.6217 -0.2775 -0.2967
17019SOL    HW158297   6.261  12.506  10.677  0.8471 -0.5178 -0.9739
17019SOL    HW258298   6.381  12.554  10.599  1.6823 -0.6065  0.2322
17020SOL     OW58299  10.782   5.434  10.283  0.0224 -0.1008  0.4589
17020SOL    HW158300  10.872   5.452  10.254 -0.4685  2.6876  0.3993
17020SOL    HW258301  10.789   5.424  10.378  0.3051  0.8138  0.5353
17021SOL     OW58302   3.460   1.256   4.004  0.6414  0.2619  0.1557
17021SOL    HW158303   3.523   1.282   3.937 -0.6377  0.3869 -1.0553
17021SOL    HW258304   3.416   1.337   4.029 -0.2112 -0.0663 -0.2694
17022SOL     OW58305   9.042   8.725   0.814  0.0682  0.2171 -0.4383
17022SOL    HW158306   9.032   8.634   0.788 -0.6998 -0.5388  2.2440
17022SOL    HW258307   9.095   8.764   0.744 -1.0498 -1.7952 -2.5655
17023SOL     OW58308  10.912   4.900   8.396  0.2070  0.3477 -0.3125
17023SOL    HW158309  10.947   4.876   8.482 -0.4210 -0.5302 -0.2939
17023SOL    HW258310  10.828   4.941   8.414 -1.2974 -2.3701 -0.5921
17024SOL     OW58311   4.948   6.371  11.546  0.2125 -0.5387 -0.0381
17024SOL    HW158312   4.869   6.423  11.565  1.4235  1.6904 -0.7389
17024SOL    HW258313   4.969   6.329  11.630  0.1972  1.6215  1.1223
17025SOL     OW58314   3.477   9.719   0.486 -0.0122 -0.1952  0.0536
17025SOL    HW158315   3.410   9.753   0.428  0.9732  2.5644  0.3726
17025SOL    HW258316   3.429   9.678   0.558 -1.5146  2.6934  0.8743
17026SOL     OW58317  10.137   6.480   7.177 -0.0560 -0.6279 -0.1127
17026SOL    HW158318  10.201   6.499   7.246  0.9896 -1.7966 -0.7348
17026SOL    HW258319  10.078   6.416   7.216  1.6712 -2.7886 -0.8539
17027SOL     OW58320   0.456  12.550   6.672  0.1586 -0.1476  0.1262
17027SOL    HW158321   0.450  12.459   6.699 -0.4273 -0.0862  0.2057
17027SOL    HW258322   0.461  12.600   6.753 -0.4730 -0.0430  0.1013
17028SOL     OW58323  10.367   3.660   0.030  0.2924 -0.0301 -0.1655
17028SOL    HW158324  10.356   3.565   0.038 -0.6906 -0.1624 -2.4116
17028SOL    HW258325  10.304   3.686  -0.037 -0.4872  2.4572  1.4057
17029SOL     OW58326   0.160   3.231  11.520  0.1092 -0.2164  0.3170
17029SOL    HW158327   0.211   3.304  11.554  2.7153 -0.2942 -2.9752
17029SOL    HW258328   0.086   3.272  11.475  1.6832  0.5851 -1.7216
17030SOL     OW58329   8.667  12.124   1.776 -0.7111 -0.2439 -0.2607
17030SOL    HW158330   8.716  12.041   1.766 -1.0899 -0.4404 -0.4991
17030SOL    HW258331   8.579  12.097   1.802 -0.2451  0.1750  1.9756
17031SOL     OW58332  10.548   3.757   4.445 -0.1124 -0.4557 -1.0069
17031SOL    HW158333  10.626   3.793   4.487  0.3290  0.1799 -2.3270
17031SOL    HW258334  10.495   3.834   4.424 -2.1165 -0.9543  1.6767
17032SOL     OW58335  10.313   6.959  10.506  0.0336  0.5436  0.4585
17032SOL    HW158336  10.218   6.962  10.513  0.0834  0.7362  1.1593
17032SOL    HW258337  10.345   7.017  10.576  0.6640  0.3169  0.3722
17033SOL     OW58338   8.986  12.094   5.163 -0.5723  0.3698 -0.2405
17033SOL    HW158339   9.035  12.108   5.082  1.3242  0.6899  0.8893
17033SOL    HW258340   8.977  11.999   5.170 -0.5736  0.3343 -0.7423
17034SOL     OW58341   1.458  11.900  10.931  0.0552 -0.0920  0.2824
17034SOL    HW158342   1.431  11.940  11.014  0.8155  1.9591 -0.3833
17034SOL    HW258343   1.384  11.914  10.873 -0.9910 -2.6569  0.8879
17035SOL     OW58344  11.880   8.414  10.400 -0.0811  0.2379 -0.6010
17035SOL    HW158345  11.835   8.487  10.443  0.8398  0.4309  0.0642
17035SOL    HW258346  11.954   8.395  10.458  0.4642 -0.3252 -1.4739
17036SOL     OW58347   7.574   2.911  11.710  0.6582 -0.4258 -0.0382
17036SOL    HW158348   7.489   2.875  11.687  0.7413  0.7031 -2.3700
17036SOL    HW258349   7.561   2.952  11.795 -1.2955  0.2118 -0.5996
17037SOL     OW58350   5.156   1.474   1.129  0.4139 -0.0669 -0.5281
17037SOL    HW158351   5.240   1.504   1.093  1.2783 -0.3094  1.1982
17037SOL    HW258352   5.091   1.530   1.087  1.6170  1.4017 -0.5168
17038SOL     OW58353   6.538   5.474   1.731  0.2108 -0.2254 -0.4446
17038SOL    HW158354   6.453   5.509   1.705  0.6536 -1.3342 -3.8321
17038SOL    HW258355   6.553   5.400   1.672  3.6594  0.1273 -0.2343
17039SOL     OW58356  11.147   9.065   1.483 -0.2892 -0.4911 -0.1140
17039SOL    HW158357  11.162   8.980   1.442  0.3330 -0.6641  0.4692
17039SOL    HW258358  11.151   9.048   1.577 -0.2843  0.1627  0.0078
17040SOL     OW58359   7.958   1.998  10.378  0.5106 -0.1511 -0.0327
17040SOL    HW158360   8.018   1.931  10.344  0.1705  0.5815 -2.1977
17040SOL    HW258361   7.889   1.948  10.421 -1.0011 -1.4829 -3.5778
17041SOL     OW58362  10.935   8.398   8.126  0.0908 -0.3763 -0.7648
17041SOL    HW158363  10.957   8.463   8.193  1.9800  0.3569 -2.0219
17041SOL    HW258364  11.019   8.370   8.091 -0.8133  0.1026 -3.5968
17042SOL     OW58365  10.474   7.963  12.050 -0.1582 -0.7086  0.2769
17042SOL    HW158366  10.529   7.904  11.997 -0.3287 -0.5918 -0.0346
17042SOL    HW258367  10.467   8.043  11.997  1.0533  0.0549  1.2056
17043SOL     OW58368   5.501   2.637   0.680  0.5257 -0.0463  0.4963
17043SOL    HW158369   5.586   2.648   0.639  0.3178  2.4529  0.5787
17043SOL    HW258370   5.517   2.654   0.773  0.0228 -0.0520  0.5865
17044SOL     OW58371  12.557   1.519   8.684  0.4763 -0.5073  0.1098
17044SOL    HW158372  12.531   1.491   8.596  2.2200  1.4719 -1.1254
17044SOL    HW258373  12.485   1.576   8.712  0.8390  0.4934 -0.9258
17045SOL     OW58374   6.551  10.816   7.189 -0.0316  0.2004  0.0351
17045SOL    HW158375   6.523  10.726   7.207 -1.3902  0.5475 -0.1985
17045SOL    HW258376   6.644  10.808   7.166 -0.5102 -1.3794 -1.6090
17046SOL     OW58377   8.645   0.686   0.871 -0.2939 -0.3284 -0.6016
17046SOL    HW158378   8.600   0.685   0.786  1.3543  0.0406 -1.5164
17046SOL    HW258379   8.719   0.627   0.860  0.8348  0.9059  0.0566
17047SOL     OW58380   4.889   7.295  10.858 -0.6298  0.5966 -0.1141
17047SOL    HW158381   4.836   7.232  10.808  1.6024 -1.0643 -0.5464
17047SOL    HW258382   4.902   7.368  10.797 -0.0929 -0.2483 -1.0469
17048SOL     OW58383  10.601   4.196   2.422 -0.1419 -0.3263  0.1630
17048SOL    HW158384  10.673   4.153   2.468  0.6168  0.8161  0.0979
17048SOL    HW258385  10.522   4.160   2.463  0.4908 -0.3153  1.4617
17049SOL     OW58386   4.462   8.707  10.802 -0.4804  0.4411  0.5070
17049SOL    HW158387   4.377   8.727  10.840 -1.0803  0.2203 -0.6797
17049SOL    HW258388   4.442   8.650  10.728  0.6691  0.7373 -0.0484
17050SOL     OW58389   6.367   8.879   9.713 -0.4616  0.4175  0.1017
17050SOL    HW158390   6.452   8.841   9.735 -0.3044 -0.1910 -1.4073
17050SOL    HW258391   6.303   8.817   9.748 -0.2685  0.3749  0.3841
17051SOL     OW58392  12.603   2.566   8.751  0.2149 -0.0680 -0.4186
17051SOL    HW158393  12.535   2.596   8.690 -0.7303 -0.4440  0.4349
17051SOL    HW258394  12.610   2.636   8.816 -0.1200 -0.5026  0.0933
17052SOL     OW58395   2.857   6.584   7.703  0.6525  0.2547 -0.6954
17052SOL    HW158396   2.946   6.591   7.667  1.1716  0.1161  0.5212
17052SOL    HW258397   2.847   6.492   7.723 -0.1759  0.0882 -1.7816
17053SOL     OW58398   7.469   8.133   6.237 -0.2595 -0.0131  0.3566
17053SOL    HW158399   7.462   8.104   6.328 -1.6404  0.7496  0.5274
17053SOL    HW258400   7.557   8.171   6.230 -0.5898  1.0935  1.7519
17054SOL     OW58401   9.357   0.203   7.090  0.2809 -0.5876 -0.2083
17054SOL    HW158402   9.340   0.256   7.168 -0.3482 -2.0155  0.6825
17054SOL    HW258403   9.419   0.136   7.119  1.0857 -0.3472 -1.3033
17055SOL     OW58404  10.818   3.125   0.463  0.3816  1.1828  0.0447
17055SOL    HW158405  10.874   3.167   0.528  0.4695  1.0721  0.0408
17055SOL    HW258406  10.734   3.171   0.470  1.1043  2.8711 -1.4700
17056SOL     OW58407   2.754   4.373   8.872 -0.2659 -0.2278 -0.2095
17056SOL    HW158408   2.821   4.437   8.848 -0.1865 -0.0894  0.3532
17056SOL    HW258409   2.804   4.295   8.897 -0.2192  0.3280  1.5692
17057SOL     OW58410   2.717   3.939   2.657 -0.4900 -0.2900  0.1429
17057SOL    HW158411   2.635   3.908   2.617 -0.4509  0.3300 -0.4321
17057SOL    HW258412   2.695   4.025   2.692 -0.2408 -0.3861  0.5474
17058SOL     OW58413   9.620   4.207   4.889  0.6823 -0.0734  0.0998
17058SOL    HW158414   9.542   4.189   4.940  0.9966 -0.4055  0.4745
17058SOL    HW258415   9.628   4.302   4.889  1.2804 -0.0911  1.6205
17059SOL     OW58416   5.695   3.120   1.670  0.6188  0.1558  0.0253
17059SOL    HW158417   5.654   3.116   1.584 -0.3664 -1.3727  0.5141
17059SOL    HW258418   5.752   3.196   1.666  1.3532 -0.4319 -2.3009
17060SOL     OW58419   0.703   1.017   2.805 -0.0302  0.0249 -0.2611
17060SOL    HW158420   0.664   1.014   2.892 -2.8573  0.3169 -1.4269
17060SOL    HW258421   0.714   0.925   2.781  0.9202 -0.0557  0.4451
17061SOL     OW58422   2.827   3.873   7.309 -0.5014 -0.1665 -0.2542
17061SOL    HW158423   2.738   3.839   7.316 -0.8389  0.4132 -1.4304
17061SOL    HW258424   2.837   3.931   7.385 -0.4033 -1.7403  0.9814
17062SOL     OW58425   0.368   9.832   0.673  0.1678  1.2740 -0.0517
17062SOL    HW158426   0.279   9.817   0.706  0.1208  0.7566 -0.4012
17062SOL    HW258427   0.369   9.924   0.648  0.4837  1.9544  2.2302
17063SOL     OW58428   4.772   8.412   1.435 -0.1510  0.2856 -0.1828
17063SOL    HW158429   4.693   8.457   1.403  0.0025 -0.2673 -1.3919
17063SOL    HW258430   4.844   8.471   1.413 -0.0431 -0.1060 -0.9246
17064SOL     OW58431   1.810  12.404   7.567 -0.2149 -0.2401 -0.0520
17064SOL    HW158432   1.890  12.454   7.587  0.1729  0.4298 -2.8365
17064SOL    HW258433   1.742  12.471   7.558 -0.7333 -0.6622  0.6458
17065SOL     OW58434   7.754   8.572   2.744 -0.2370 -0.0720 -0.4076
17065SOL    HW158435   7.846   8.580   2.771  0.1691  0.4442 -1.8648
17065SOL    HW258436   7.705   8.580   2.826  1.0258 -0.8503  0.4648
17066SOL     OW58437   5.096   6.138   4.348  0.9736  0.0756  0.1771
17066SOL    HW158438   5.160   6.077   4.384  1.6028  0.4508 -0.3077
17066SOL    HW258439   5.145   6.217   4.329  0.5619  0.0548 -1.0586
17067SOL     OW58440  12.065   8.979   7.437  0.0567 -0.0428  0.1534
17067SOL    HW158441  11.998   8.966   7.504 -0.9110 -0.0863 -0.7874
17067SOL    HW258442  12.026   8.942   7.357  1.8250 -1.4730 -0.1100
17068SOL     OW58443   9.713  12.673   2.142  0.4436 -0.6271 -0.1687
17068SOL    HW158444   9.757  12.697   2.223  0.4137 -0.8056 -0.0987
17068SOL    HW258445   9.760  12.595   2.111 -1.4524 -2.4442  1.2846
17069SOL     OW58446  11.464   5.958  10.929  0.7534 -0.0489  0.0113
17069SOL    HW158447  11.496   5.949  10.839 -0.6180  1.1104 -0.6342
17069SOL    HW258448  11.452   5.868  10.960  2.2981 -0.4713 -0.5541
17070SOL     OW58449   7.540  11.599   1.500 -0.2958  0.1471  0.6988
17070SOL    HW158450   7.525  11.507   1.481  2.4593 -0.3311  0.3185
17070SOL    HW258451   7.522  11.644   1.418 -1.4154 -0.0482  0.8201
17071SOL     OW58452  12.499   7.667   1.080  0.1358 -0.3461 -0.3688
17071SOL    HW158453  12.453   7.751   1.072  0.7442  0.1503  1.0416
17071SOL    HW258454  12.438   7.602   1.045 -1.0951  0.4554  0.2433
17072SOL     OW58455   0.130   3.272  12.051  0.0035 -0.3564  0.2222
17072SOL    HW158456   0.073   3.277  12.127 -0.6410 -0.8936 -0.2121
17072SOL    HW258457   0.072   3.249  11.979  0.5793  0.2986 -0.4616
17073SOL     OW58458   3.772   2.447   8.556 -0.1159  0.4208  0.1648
17073SOL    HW158459   3.802   2.515   8.617  2.0075 -0.9421  0.7532
17073SOL    HW258460   3.838   2.448   8.486 -1.7649  1.0208 -1.4631
17074SOL     OW58461   9.698   3.112   2.143 -0.5352 -0.3491  0.1668
17074SOL    HW158462   9.777   3.060   2.131 -0.6587 -0.1745 -1.5846
17074SOL    HW258463   9.628   3.048   2.154 -0.2974 -0.5039  0.8699
17075SOL     OW58464   2.273   9.823   3.126 -0.3731  0.5647 -0.1610
17075SOL    HW158465   2.252   9.906   3.169  0.2181  1.0146 -0.7180
17075SOL    HW258466   2.212   9.819   3.052  1.6694  2.0914 -2.0494
17076SOL     OW58467  10.198   8.778   0.321 -0.0739  0.5276  0.2981
17076SOL    HW158468  10.277   8.770   0.267 -0.7784 -0.4168 -0.6458
17076SOL    HW258469  10.152   8.854   0.286  0.2601  0.8997  0.6548
17077SOL     OW58470   0.527   0.106  11.512 -0.4560 -0.4217 -0.2115
17077SOL    HW158471   0.468   0.130  11.441 -1.2009 -0.5725  0.3388
17077SOL    HW258472   0.571   0.027  11.482 -1.2867 -0.8855 -0.2182
17078SOL     OW58473  11.230   9.211   4.621  0.2031  0.4170  0.1018
17078SOL    HW158474  11.321   9.233   4.602  0.5736 -0.3827  0.8749
17078SOL    HW258475  11.226   9.116   4.612 -0.9331  0.5870 -1.4168
17079SOL     OW58476   1.805   9.855   9.276 -0.1977  0.1611 -0.6590
17079SOL    HW158477   1.832   9.861   9.184  0.1118 -0.9754 -0.6578
17079SOL    HW258478   1.879   9.891   9.325 -0.2136  0.4356 -0.8324
17080SOL     OW58479   3.871   8.095   0.379  0.6704 -0.0766  0.4467
17080SOL    HW158480   3.797   8.035   0.387 -0.0521  0.6754 -0.4178
17080SOL    HW258481   3.940   8.055   0.432  0.1349 -1.5494  0.0818
17081SOL     OW58482   5.104  11.484  10.212 -0.5932  0.0624  0.0525
17081SOL    HW158483   5.050  11.433  10.272  0.2001  1.0640  1.6884
17081SOL    HW258484   5.146  11.550  10.267  0.0718  1.1252 -1.6406
17082SOL     OW58485   3.962  11.083   7.368  0.2787  0.6284 -0.1753
17082SOL    HW158486   3.871  11.082   7.340  0.5577  0.1929 -1.1020
17082SOL    HW258487   3.987  10.991   7.375  0.0117  0.6613  2.3383
17083SOL     OW58488   8.215   6.142  11.577 -0.6005  0.0338 -0.3398
17083SOL    HW158489   8.223   6.180  11.665 -1.3723 -1.0102  0.2012
17083SOL    HW258490   8.291   6.085  11.569  1.2865  2.5194 -1.6494
17084SOL     OW58491   2.086  10.670   0.663 -0.1200 -0.5028 -0.6794
17084SOL    HW158492   2.001  10.637   0.634 -0.8236  0.5520  0.1054
17084SOL    HW258493   2.102  10.624   0.746 -0.5145  0.1566 -0.2202
17085SOL     OW58494   1.680   8.360  12.244 -0.4900  0.2451  0.5545
17085SOL    HW158495   1.657   8.441  12.290  0.7214  1.0491 -0.2170
17085SOL    HW258496   1.729   8.309  12.309  1.2866  1.4120  0.1974
17086SOL     OW58497  10.479  11.290   9.214  0.1464 -0.1267  0.6929
17086SOL    HW158498  10.468  11.213   9.159  0.9585 -0.4563  0.9786
17086SOL    HW258499  10.391  11.326   9.223 -0.1920 -0.8407  0.2968
17087SOL     OW58500  10.590   0.750   6.404 -0.2119  0.0621 -1.0803
17087SOL    HW158501  10.627   0.677   6.454  0.1953  0.8852 -0.1326
17087SOL    HW258502  10.505   0.767   6.446  0.9688  2.0478  0.7547
17088SOL     OW58503   4.857  12.480  10.247  0.2676  0.3533  0.1792
17088SOL    HW158504   4.945  12.513  10.263 -0.1215  0.6394  2.0240
17088SOL    HW258505   4.802  12.558  10.249 -0.0170  0.2251 -1.3410
17089SOL     OW58506   7.124  12.344   9.108  0.2445  0.0800  0.0500
17089SOL    HW158507   7.042  12.363   9.154  1.4083  0.9296  1.9087
17089SOL    HW258508   7.143  12.424   9.059  1.0381  0.7465  1.3908
17090SOL     OW58509   4.567   1.934   8.745  0.1565 -0.0881  0.2924
17090SOL    HW158510   4.644   1.881   8.764  0.3751  0.8373  2.2175
17090SOL    HW258511   4.496   1.893   8.794 -0.3443 -0.2498 -0.5356
17091SOL     OW58512   5.351   9.517   4.807 -0.2739 -0.5685  0.3886
17091SOL    HW158513   5.319   9.444   4.754 -2.2475  0.1062  0.5700
17091SOL    HW258514   5.415   9.477   4.866  0.5459 -1.6734 -1.1706
17092SOL     OW58515   0.777   8.268   4.356  0.3336 -0.3973 -0.1989
17092SOL    HW158516   0.736   8.252   4.441 -0.9352  3.1481  0.0393
17092SOL    HW258517   0.868   8.289   4.377  0.3982 -0.9704  0.1159
17093SOL     OW58518  11.203   0.928   8.639 -0.2902 -0.3216  0.0499
17093SOL    HW158519  11.120   0.942   8.594 -0.1634 -0.1140 -0.1202
17093SOL    HW258520  11.243   0.854   8.593  0.4013  0.6766 -0.9776
17094SOL     OW58521   9.656   9.691   8.458 -0.0325 -0.8140 -0.1342
17094SOL    HW158522   9.671   9.765   8.399  0.7548 -1.0505 -0.2490
17094SOL    HW258523   9.668   9.727   8.546  2.1536 -1.1450 -0.2320
17095SOL     OW58524   2.242  11.678  11.955  0.0929  0.1520  0.5262
17095SOL    HW158525   2.296  11.598  11.957  2.2438  1.5195  3.0001
17095SOL    HW258526   2.177  11.660  11.887 -0.2194 -4.1140  1.6335
17096SOL     OW58527   9.113  11.237  10.939  0.2571  0.8002 -0.4119
17096SOL    HW158528   9.159  11.227  10.856  0.2652  1.7806 -0.5386
17096SOL    HW258529   9.022  11.217  10.919  0.5736 -1.0081 -0.1925
17097SOL     OW58530   7.542  10.423   5.338  0.3151  0.2700 -0.3051
17097SOL    HW158531   7.514  10.332   5.326 -0.0929  0.3706 -0.1250
17097SOL    HW258532   7.515  10.468   5.258 -0.2165  0.4087 -0.0497
17098SOL     OW58533  12.245   6.611   8.670  0.3715  0.4782 -0.1048
17098SOL    HW158534  12.183   6.541   8.693  1.6762 -0.5131  0.5032
17098SOL    HW258535  12.214   6.643   8.585 -1.7584  0.9539  0.7956
17099SOL     OW58536  10.990   6.975  12.440  0.0935  0.3681  0.7034
17099SOL    HW158537  10.953   6.916  12.374  2.6565 -2.0997  1.2858
17099SOL    HW258538  11.079   6.992  12.411 -0.2788  3.3422  1.0498
17100SOL     OW58539   9.644   3.399   9.273 -0.1691 -0.0065  0.3982
17100SOL    HW158540   9.639   3.304   9.265 -0.8983  0.0454  0.1525
17100SOL    HW258541   9.561   3.424   9.313  0.0584  0.5192  0.5495
17101SOL     OW58542   5.455   7.080   1.505  0.5301  0.1790  0.3773
17101SOL    HW158543   5.417   7.050   1.423 -1.2841  1.4586  0.6894
17101SOL    HW258544   5.381   7.116   1.555  1.6994  0.1579  2.2520
17102SOL     OW58545   6.551  11.958   2.038  0.2714  0.3256 -0.4410
17102SOL    HW158546   6.551  11.863   2.026  1.5960  0.2672 -0.1111
17102SOL    HW258547   6.569  11.993   1.951  1.6013  0.1908 -0.2407
17103SOL     OW58548   8.543   9.763   5.771 -0.2665  0.3715  0.3814
17103SOL    HW158549   8.535   9.698   5.701 -0.2751  1.1778 -0.3750
17103SOL    HW258550   8.634   9.754   5.801 -0.8255 -1.4520  1.7669
17104SOL     OW58551   2.106  10.485   9.898  0.3756 -0.0723 -0.0379
17104SOL    HW158552   2.186  10.524   9.864  0.5319 -0.1317  0.2557
17104SOL    HW258553   2.088  10.536   9.978 -0.8732  1.1409 -1.0455
17105SOL     OW58554   4.339   8.766   8.222 -0.8057  0.3817  0.6611
17105SOL    HW158555   4.275   8.820   8.176 -1.2380 -0.3548  0.3891
17105SOL    HW258556   4.415   8.762   8.164 -1.1958 -0.2081  0.1810
17106SOL     OW58557   9.026   2.959   2.306 -0.0359 -0.9762  0.0076
17106SOL    HW158558   9.121   2.969   2.300  0.1007 -0.7750  1.9786
17106SOL    HW258559   8.992   3.048   2.299 -0.0009 -0.9436  0.2270
17107SOL     OW58560   6.185   0.230   2.521 -0.0762 -0.0826  0.0334
17107SOL    HW158561   6.272   0.200   2.549  0.7903  1.8182 -0.4970
17107SOL    HW258562   6.168   0.181   2.441  0.1709 -0.9815  0.5054
17108SOL     OW58563   6.291   9.843  11.788 -0.2582  0.1537  0.7558
17108SOL    HW158564   6.225   9.823  11.721 -0.1451  0.6214  0.4990
17108SOL    HW258565   6.355   9.772  11.780  0.1138  0.5733 -0.1132
17109SOL     OW58566   1.911  12.254   0.717  0.0699 -0.1238  0.1685
17109SOL    HW158567   1.892  12.347   0.708  1.5323  0.1434 -0.5289
17109SOL    HW258568   1.845  12.221   0.778 -0.7384  1.2708  0.0809
17110SOL     OW58569   9.150   5.681  12.641  0.1008  0.0155  0.7191
17110SOL    HW158570   9.130   5.661  12.549  1.7394  2.5724 -0.3316
17110SOL    HW258571   9.209   5.611  12.668  1.8040  0.6027 -1.1558
17111SOL     OW58572   3.814  11.422   6.467 -0.5300 -0.5259  0.1509
17111SOL    HW158573   3.752  11.390   6.533  0.2624  0.2910  1.3326
17111SOL    HW258574   3.765  11.488   6.419 -0.4287  0.6138  1.5269
17112SOL     OW58575  12.631   1.912   2.177  0.0896 -0.1261  0.0161
17112SOL    HW158576  12.606   1.985   2.234  2.9054  0.4658  0.6637
17112SOL    HW258577  12.593   1.835   2.219 -1.3839  0.7407  0.3494
17113SOL     OW58578   8.734   0.369   7.437 -0.1604 -0.4674  0.0586
17113SOL    HW158579   8.812   0.390   7.488 -0.2518  1.1120 -0.4213
17113SOL    HW258580   8.676   0.325   7.500 -0.1496  1.1677  1.2666
17114SOL     OW58581   4.116  12.031  11.158  0.3899 -0.1005  0.3036
17114SOL    HW158582   4.122  12.118  11.197 -2.1314  0.3543 -0.1683
17114SOL    HW258583   4.175  12.035  11.082  2.2538  0.3016  1.7097
17115SOL     OW58584  11.718  10.742   0.535 -0.0189 -0.5641 -0.3476
17115SOL    HW158585  11.699  10.677   0.602 -1.0594  1.0279  0.9980
17115SOL    HW258586  11.772  10.696   0.471  0.1137 -2.4436  1.0276
17116SOL     OW58587   8.896   9.821   7.112  0.1551  0.4946 -0.5236
17116SOL    HW158588   8.873   9.815   7.019  1.8093  0.4399 -0.9776
17116SOL    HW258589   8.983   9.780   7.117 -0.1741 -0.0792  1.1654
17117SOL     OW58590   2.006  12.303  12.151  0.1520  0.4618 -0.1387
17117SOL    HW158591   2.033  12.245  12.223 -0.9034  1.5664  1.2034
17117SOL    HW258592   2.002  12.246  12.075 -1.1797 -1.3611  1.1921
17118SOL     OW58593   0.662   9.083  10.030  0.2375 -0.2558  0.0095
17118SOL    HW158594   0.753   9.108  10.043  0.7182 -1.3574 -1.0266
17118SOL    HW258595   0.614   9.129  10.099  1.6017  0.1365  0.7276
17119SOL     OW58596  11.427   5.381  11.317 -0.7627 -0.5791 -0.0702
17119SOL    HW158597  11.390   5.437  11.385 -1.0888 -1.9779  0.9575
17119SOL    HW258598  11.376   5.402  11.239 -0.1262  1.3411 -0.0152
17120SOL     OW58599   4.922  10.231   2.159  0.5775 -0.1519  0.9303
17120SOL    HW158600   4.941  10.324   2.172  1.3265 -0.4322  1.9756
17120SOL    HW258601   4.974  10.207   2.082  1.8913 -0.1270  1.7820
17121SOL     OW58602   8.211   0.461  10.557  0.1684 -0.3333 -0.3039
17121SOL    HW158603   8.202   0.483  10.465  0.7282  1.3077 -0.0043
17121SOL    HW258604   8.122   0.444  10.587 -0.2677  1.1804 -0.6817
17122SOL     OW58605   8.436   6.741   6.831  0.3237  0.0301  0.1282
17122SOL    HW158606   8.420   6.733   6.737  2.3363  0.2618 -0.2781
17122SOL    HW258607   8.475   6.657   6.856 -1.4259 -0.5574  1.0832
17123SOL     OW58608   0.830   5.036   1.318 -0.2723  0.1767  0.2987
17123SOL    HW158609   0.909   5.068   1.276 -0.8750 -0.8924 -1.8181
17123SOL    HW258610   0.852   5.030   1.411  0.9717  3.1407  0.3049
17124SOL     OW58611   8.432   4.632   8.151 -0.0697 -0.4425 -0.0168
17124SOL    HW158612   8.395   4.720   8.145  1.8209  0.3546 -0.8990
17124SOL    HW258613   8.526   4.646   8.162  0.1922 -2.3635  0.5654
17125SOL     OW58614   3.764   1.472   9.876 -0.0891 -0.6231 -0.0506
17125SOL    HW158615   3.793   1.466   9.967 -0.8294 -0.8615  0.1743
17125SOL    HW258616   3.674   1.439   9.877  0.0070 -0.9352 -0.9221
17126SOL     OW58617  10.801   5.704   5.124 -0.3762 -0.4557 -0.4765
17126SOL    HW158618  10.861   5.641   5.085  0.2759 -1.2647  1.6770
17126SOL    HW258619  10.830   5.789   5.092  1.2006 -0.9421 -0.4151
17127SOL     OW58620   4.015   9.752   4.949  0.1441 -0.2770  0.2997
17127SOL    HW158621   4.013   9.741   5.044  1.3199 -0.7983  0.2804
17127SOL    HW258622   4.020   9.663   4.914  0.9355 -0.0438 -0.2048
17128SOL     OW58623   2.501   1.355  10.271 -0.2369 -0.2297 -0.0559
17128SOL    HW158624   2.552   1.380  10.348 -0.0373 -1.3633  0.1947
17128SOL    HW258625   2.454   1.435  10.247  1.1002  0.6590  0.1264
17129SOL     OW58626   9.053   2.212  12.191 -0.1035  0.4829 -0.5787
17129SOL    HW158627   9.006   2.164  12.258 -1.1052  2.6588  0.3835
17129SOL    HW258628   9.145   2.201  12.213 -0.4149  1.3064  1.3263
17130SOL     OW58629   2.856   7.996   8.471 -0.2676  0.2368 -0.3499
17130SOL    HW158630   2.933   7.989   8.414 -0.9943 -0.7419 -1.2429
17130SOL    HW258631   2.813   8.077   8.443 -0.2500  0.1188 -0.7242
17131SOL     OW58632   7.168   1.755   9.471  0.0607 -0.1054  0.4450
17131SOL    HW158633   7.140   1.663   9.465  0.8719 -0.4552  1.6526
17131SOL    HW258634   7.238   1.754   9.536  0.0305  1.3948  0.5208
17132SOL     OW58635   0.246   9.738   1.000 -0.2143  0.0018  0.2150
17132SOL    HW158636   0.192   9.739   0.921  0.6139 -0.3169 -0.3685
17132SOL    HW258637   0.233   9.825   1.040  0.0480  0.4901 -0.7450
17133SOL     OW58638   1.503   8.845   5.300 -0.2717  0.0864 -0.0567
17133SOL    HW158639   1.447   8.921   5.285 -1.0477 -0.4986 -0.1502
17133SOL    HW258640   1.461   8.797   5.371  0.5263  0.0291  0.3982
17134SOL     OW58641   5.954   6.898   0.984  0.3145 -0.7584 -0.1164
17134SOL    HW158642   6.028   6.954   0.962  0.7459 -1.2344  0.0921
17134SOL    HW258643   5.901   6.949   1.046  0.8977 -0.7150  0.3566
17135SOL     OW58644   0.032   1.250   3.542  0.5386 -0.0657 -0.3364
17135SOL    HW158645   0.091   1.304   3.595 -0.4221  1.0701 -0.3938
17135SOL    HW258646  -0.055   1.269   3.576  0.1064 -1.0189 -0.8667
17136SOL     OW58647   7.684   2.434   7.583  0.3596 -0.3785 -0.9885
17136SOL    HW158648   7.611   2.443   7.644  0.7621 -1.0367 -0.3800
17136SOL    HW258649   7.687   2.340   7.564  2.4082 -0.7541  0.7803
17137SOL     OW58650   5.415  10.964   3.431  0.0790  0.0367 -0.4736
17137SOL    HW158651   5.389  11.043   3.384 -0.0997  0.2424 -0.0355
17137SOL    HW258652   5.487  10.992   3.488 -0.5333  0.0789  0.2954
17138SOL     OW58653  12.078   6.392   4.954 -0.0224  0.2398 -0.6559
17138SOL    HW158654  12.145   6.405   4.887  0.7359  1.0035  0.2126
17138SOL    HW258655  11.999   6.433   4.918  0.3345  0.4910 -1.1615
17139SOL     OW58656   6.982   3.541   6.954 -0.6465  0.2003 -0.6208
17139SOL    HW158657   6.948   3.452   6.963  0.3840 -0.3702 -2.0239
17139SOL    HW258658   6.912   3.590   6.912 -1.9757  0.6151  1.8429
17140SOL     OW58659   8.019   8.345   9.583 -0.4198  0.5706  0.1862
17140SOL    HW158660   8.075   8.271   9.562 -0.2814  0.4310  1.0108
17140SOL    HW258661   8.020   8.350   9.678 -2.1288  0.3098  0.2621
17141SOL     OW58662   1.197   6.991  10.313 -0.6593 -0.0887  0.3020
17141SOL    HW158663   1.137   7.058  10.279 -0.3784 -0.3024 -0.6292
17141SOL    HW258664   1.285   7.024  10.293 -0.5240 -0.9710 -0.6459
17142SOL     OW58665  11.130   3.070   5.363  0.1069 -0.0742 -0.2696
17142SOL    HW158666  11.167   3.100   5.446  1.5160 -0.7897 -0.6159
17142SOL    HW258667  11.095   3.149   5.322  3.4439  1.1557 -1.0216
17143SOL     OW58668   2.233   0.850   2.738 -0.1070 -0.5880 -0.3078
17143SOL    HW158669   2.215   0.936   2.699 -0.0782 -0.8872 -0.9947
17143SOL    HW258670   2.329   0.846   2.744 -0.0795 -0.8012 -0.8195
17144SOL     OW58671   0.818   3.821   2.149  0.2370 -0.2271  0.0632
17144SOL    HW158672   0.870   3.768   2.089 -1.4534 -1.3918 -0.4316
17144SOL    HW258673   0.860   3.907   2.147  2.5288 -1.2572  0.2117
17145SOL     OW58674   0.748   9.919  11.114 -0.1103  0.1205  0.3774
17145SOL    HW158675   0.776   9.867  11.190 -0.5535  2.8844  2.6070
17145SOL    HW258676   0.826   9.969  11.091 -0.3538  0.2629 -0.1333
17146SOL     OW58677   3.013   5.513   3.804 -0.7430 -0.6386  0.0944
17146SOL    HW158678   3.073   5.561   3.860 -1.1008 -0.3141  0.2008
17146SOL    HW258679   3.052   5.518   3.716 -0.8092 -0.1117  0.0967
17147SOL     OW58680   1.223   8.199  11.850  0.5197  0.9859 -0.2012
17147SOL    HW158681   1.241   8.284  11.811  3.6416  0.7071  0.3837
17147SOL    HW258682   1.304   8.174  11.894 -0.3135 -2.2045 -0.1614
17148SOL     OW58683   5.234   4.070   3.069 -0.0608 -0.0186 -0.0403
17148SOL    HW158684   5.271   4.085   3.156  0.0049  0.9307 -0.2138
17148SOL    HW258685   5.180   3.991   3.078 -0.5248  0.4058  1.0151
17149SOL     OW58686   7.540  12.171   0.347 -0.3335 -0.0290 -0.4976
17149SOL    HW158687   7.560  12.094   0.294 -0.3668 -0.6315  0.3405
17149SOL    HW258688   7.619  12.185   0.400 -1.6326 -1.8656  2.1616
17150SOL     OW58689   8.706   3.389   1.776  0.5501 -0.2451 -0.3141
17150SOL    HW158690   8.627   3.441   1.789  0.5244 -0.0913 -1.0673
17150SOL    HW258691   8.721   3.347   1.861  1.5611  2.3606  0.8838
17151SOL     OW58692   7.102  11.418   9.568 -0.0592 -0.1291 -0.7844
17151SOL    HW158693   7.183  11.409   9.518 -0.3331 -1.3579 -1.0288
17151SOL    HW258694   7.072  11.507   9.548  2.2621  1.1690  0.9230
17152SOL     OW58695   1.285   8.759   3.709  0.2621  0.0783 -0.1745
17152SOL    HW158696   1.195   8.780   3.683  0.5170  0.5105 -0.7327
17152SOL    HW258697   1.278   8.676   3.756 -0.6572  0.9002  1.2172
17153SOL     OW58698   5.416  12.238  10.518 -0.1651 -0.0112  0.0837
17153SOL    HW158699   5.438  12.174  10.451 -0.3238 -0.3082  0.3156
17153SOL    HW258700   5.447  12.199  10.600 -1.3866 -0.3669  0.3961
17154SOL     OW58701   0.727   7.338   9.963 -0.4185 -0.6794  0.1494
17154SOL    HW158702   0.768   7.389  10.033 -0.5012 -2.1743  1.3336
17154SOL    HW258703   0.639   7.375   9.954 -0.9123 -1.3527  1.8400
17155SOL     OW58704   2.396   4.141   1.157 -0.2041 -0.6028  0.1057
17155SOL    HW158705   2.319   4.198   1.169 -0.5721  0.1521 -4.3282
17155SOL    HW258706   2.470   4.195   1.184 -0.9406  0.0183  0.9594
17156SOL     OW58707   0.415   2.054   5.267 -0.5736 -0.2788  0.1243
17156SOL    HW158708   0.327   2.086   5.245 -0.7478  0.4755  1.7967
17156SOL    HW258709   0.400   1.987   5.334  0.0735 -0.9277 -0.3675
17157SOL     OW58710   0.559   3.642  10.614  0.5770  0.5401 -0.3407
17157SOL    HW158711   0.541   3.549  10.600 -0.6326  0.4964  1.2820
17157SOL    HW258712   0.476   3.686  10.593  0.7857  1.1330  0.0457
17158SOL     OW58713   8.879   5.309  11.748 -0.4811 -0.2910 -0.2211
17158SOL    HW158714   8.925   5.258  11.814 -0.4724 -1.0131 -0.7639
17158SOL    HW258715   8.790   5.273  11.747 -1.1744  1.2911  1.0290
17159SOL     OW58716   0.659   5.592   3.007 -0.0115  0.8015  0.1619
17159SOL    HW158717   0.750   5.564   3.003 -0.0705  0.1147  2.3209
17159SOL    HW258718   0.624   5.574   2.920  1.3275 -1.0473 -0.0490
17160SOL     OW58719  11.839   6.685   5.047 -0.8060 -0.1606  0.2455
17160SOL    HW158720  11.890   6.746   4.993 -2.5774 -0.5253 -1.9927
17160SOL    HW258721  11.775   6.740   5.092  0.6462  0.1384  2.0807
17161SOL     OW58722  12.375  12.025   5.499  0.2459  0.1896  0.3691
17161SOL    HW158723  12.343  12.115   5.493  0.1920  0.1078 -0.7598
17161SOL    HW258724  12.360  12.000   5.590 -1.4108  0.7065  0.2736
17162SOL     OW58725   6.170   5.124   7.546  0.6946 -0.2744  0.3564
17162SOL    HW158726   6.134   5.212   7.539 -0.1348 -0.5883  0.6238
17162SOL    HW258727   6.108   5.068   7.500  0.6280 -0.8730  1.1456
17163SOL     OW58728   7.530   3.301   4.024  0.3190  0.1989  0.3055
17163SOL    HW158729   7.587   3.308   4.100 -0.7977  1.2630  1.0783
17163SOL    HW258730   7.463   3.236   4.049  0.5858 -0.2845 -0.2053
17164SOL     OW58731   5.136   7.917   1.345  0.3082  0.8743  0.1215
17164SOL    HW158732   5.120   8.009   1.328  0.5715  0.9337  0.1906
17164SOL    HW258733   5.050   7.875   1.337  0.4266  0.8836 -1.3908
17165SOL     OW58734   9.118   9.827  12.262  0.1775  0.2425  0.0788
17165SOL    HW158735   9.149   9.800  12.349 -1.3867 -0.3894  0.4780
17165SOL    HW258736   9.111   9.922  12.268 -0.8316  0.1230  0.9805
17166SOL     OW58737   6.283   5.508  12.432 -0.5157 -0.7096 -0.4551
17166SOL    HW158738   6.375   5.504  12.406 -1.3850  0.1996 -4.2019
17166SOL    HW258739   6.272   5.433  12.490  2.9337  0.2560  1.7559
17167SOL     OW58740   2.146   9.655   4.224 -0.3955  0.5721 -0.0254
17167SOL    HW158741   2.137   9.750   4.229  0.0491  0.6584 -0.6337
17167SOL    HW258742   2.124   9.635   4.133  2.2526  0.4448 -0.7238
17168SOL     OW58743   8.917   3.854   5.993 -0.0051 -0.7775  0.0174
17168SOL    HW158744   8.851   3.923   5.994 -0.5675 -1.2556 -1.2102
17168SOL    HW258745   9.000   3.900   5.981 -0.2950 -0.2684 -0.0418
17169SOL     OW58746   7.272   1.234  12.594  0.0809  0.1233  0.1151
17169SOL    HW158747   7.203   1.299  12.609  0.2336  0.4409 -0.5046
17169SOL    HW258748   7.353   1.286  12.588  0.0319  0.0794 -1.8352
17170SOL     OW58749   5.793   2.171   5.809 -0.5394  0.5176  0.5506
17170SOL    HW158750   5.728   2.115   5.766  0.9425 -1.6327  0.9657
17170SOL    HW258751   5.860   2.185   5.742 -0.3702  0.8911  0.7963
17171SOL     OW58752  11.507   5.508   0.335 -0.1564  0.0956 -0.2406
17171SOL    HW158753  11.442   5.441   0.356 -0.0091 -0.6940 -2.0990
17171SOL    HW258754  11.490   5.579   0.397 -2.5082 -0.2807 -0.3851
17172SOL     OW58755  10.465   0.004   4.778 -0.0234  0.4113  0.1872
17172SOL    HW158756  10.412  -0.031   4.706 -1.2427  1.0295  0.7494
17172SOL    HW258757  10.402   0.015   4.850  0.9200  0.9821  0.9427
17173SOL     OW58758   8.106  11.552   7.754 -0.0279 -0.8218  0.2888
17173SOL    HW158759   8.079  11.640   7.726  1.3112 -0.6618 -0.6268
17173SOL    HW258760   8.109  11.501   7.673 -0.6178 -1.6746  0.7942
17174SOL     OW58761   4.340  11.206   9.892 -0.5387  0.0436 -0.1501
17174SOL    HW158762   4.268  11.261   9.859  0.0071  0.7885 -0.1172
17174SOL    HW258763   4.405  11.209   9.822 -0.9482 -1.4667 -0.6305
17175SOL     OW58764   9.966   7.093   3.633 -0.1868 -0.0256  0.0566
17175SOL    HW158765  10.000   7.014   3.592 -2.1359 -1.0753  0.3313
17175SOL    HW258766   9.882   7.066   3.670 -1.6662  2.5367 -1.1760
17176SOL     OW58767  11.372   1.206  10.950 -0.0720 -0.2802 -0.2424
17176SOL    HW158768  11.315   1.283  10.943  0.7039  0.4032  0.6955
17176SOL    HW258769  11.383   1.177  10.860 -0.9524  0.2815 -0.5513
17177SOL     OW58770   4.495   1.846   6.773  0.3209  0.3792  0.1385
17177SOL    HW158771   4.412   1.810   6.803  0.9842 -0.3163  1.2291
17177SOL    HW258772   4.474   1.893   6.692 -0.9071 -0.9463 -0.3597
17178SOL     OW58773  11.433   2.266  10.690 -0.3069 -0.7514  0.3165
17178SOL    HW158774  11.460   2.246  10.600 -1.4071 -3.4428  0.5010
17178SOL    HW258775  11.375   2.342  10.681 -0.6568 -1.1703 -1.3020
17179SOL     OW58776  11.637  10.410   0.087  0.5740  0.1506  0.1644
17179SOL    HW158777  11.564  10.366   0.042  0.7974 -3.2378  2.6672
17179SOL    HW258778  11.603  10.430   0.174  1.6596  1.6703  0.2669
17180SOL     OW58779   1.186   1.393   8.866  0.7460 -0.0076  0.0208
17180SOL    HW158780   1.122   1.462   8.848  1.5104  1.1470  1.4636
17180SOL    HW258781   1.259   1.412   8.807  0.1018 -0.8694 -1.0821
17181SOL     OW58782   5.830   8.441   4.875  0.5005 -0.1304 -0.0987
17181SOL    HW158783   5.925   8.438   4.868  0.7628 -0.0707  2.4465
17181SOL    HW258784   5.806   8.355   4.911 -0.2774  0.2744  0.3788
17182SOL     OW58785   8.126   2.966   9.887 -0.0522 -0.2912 -0.3693
17182SOL    HW158786   8.177   2.963   9.969 -0.5947  0.1666 -0.0101
17182SOL    HW258787   8.170   3.032   9.834  0.0215 -0.2519 -0.2612
17183SOL     OW58788  11.477  10.287  12.623 -1.0055  0.4261 -0.3581
17183SOL    HW158789  11.397  10.321  12.583 -1.6113 -0.1826  0.3032
17183SOL    HW258790  11.521  10.241  12.551 -1.9733 -0.4730 -0.4073
17184SOL     OW58791  11.485   8.262   6.845  0.1299  0.0908 -0.5339
17184SOL    HW158792  11.465   8.339   6.792 -0.5735  0.5655  0.4029
17184SOL    HW258793  11.399   8.228   6.871  0.3372 -1.8060 -1.9961
17185SOL     OW58794   1.852   5.221  12.073  0.0156 -0.2305  0.2626
17185SOL    HW158795   1.914   5.238  12.003 -0.2308 -1.5610 -0.3181
17185SOL    HW258796   1.875   5.283  12.142  1.3366 -0.0325 -0.3313
17186SOL     OW58797   8.858   4.798   2.055 -0.4881 -0.3263  0.3918
17186SOL    HW158798   8.780   4.749   2.030 -0.4875 -0.8837  1.3916
17186SOL    HW258799   8.894   4.749   2.129  1.7723 -1.0624 -1.0820
17187SOL     OW58800   0.577  12.503   4.233 -0.0492 -0.0976  0.2971
17187SOL    HW158801   0.573  12.589   4.276 -0.4098  0.3300 -0.5683
17187SOL    HW258802   0.495  12.461   4.258 -0.0271 -0.0548  0.4459
17188SOL     OW58803   2.454   3.938   3.949  0.1956  0.0844  0.3262
17188SOL    HW158804   2.367   3.947   3.988 -0.3880  0.2884 -0.9358
17188SOL    HW258805   2.475   4.026   3.917  0.5652 -0.1111  0.0256
17189SOL     OW58806  11.244  12.278   0.202 -0.3630  0.0946 -0.2755
17189SOL    HW158807  11.195  12.271   0.284  0.6588 -0.2491  0.3322
17189SOL    HW258808  11.327  12.233   0.220  0.0095  0.2992 -1.3974
17190SOL     OW58809   2.523   1.348  11.326  0.8256  0.1021 -0.0814
17190SOL    HW158810   2.574   1.291  11.269  3.6167  2.1306  0.1258
17190SOL    HW258811   2.478   1.289  11.386 -0.2128 -1.9813 -2.7375
17191SOL     OW58812   7.864   9.797   0.515 -0.0073  0.4089  0.4917
17191SOL    HW158813   7.828   9.798   0.604  1.5869 -2.5617  1.2858
17191SOL    HW258814   7.828   9.719   0.474  0.1517  1.1350 -1.1349
17192SOL     OW58815   0.737  11.227   2.773  0.0061  0.0987 -0.4373
17192SOL    HW158816   0.692  11.258   2.694 -1.6254 -0.5989  0.1827
17192SOL    HW258817   0.804  11.168   2.740 -1.0171 -0.6191 -1.2984
17193SOL     OW58818   1.065   2.585   8.362  0.2539  0.1819 -0.4711
17193SOL    HW158819   1.086   2.675   8.339 -1.0960  0.5024 -0.5398
17193SOL    HW258820   0.970   2.585   8.377  0.2582 -1.1794 -0.2637
17194SOL     OW58821   0.829   9.899   2.987 -0.4389  0.3157 -0.5476
17194SOL    HW158822   0.839   9.914   2.893  2.1528  2.0935 -0.0865
17194SOL    HW258823   0.777   9.973   3.017 -0.6971  0.1073 -0.4808
17195SOL     OW58824  12.577   7.860  12.240 -0.8870 -0.3979 -0.3194
17195SOL    HW158825  12.666   7.880  12.269 -0.0779 -1.0442 -2.1867
17195SOL    HW258826  12.528   7.940  12.255  0.0227 -0.0108  0.6884
17196SOL     OW58827  12.637   8.934  12.327  0.6426 -0.2203 -0.0898
17196SOL    HW158828  12.560   8.987  12.346  0.8635  0.1169 -0.1197
17196SOL    HW258829  12.669   8.967  12.243  1.2131  0.1185  0.2482
17197SOL     OW58830   2.840   0.784   4.452 -0.4207  0.2129 -0.4724
17197SOL    HW158831   2.929   0.804   4.424 -0.5221 -0.0739 -1.0026
17197SOL    HW258832   2.804   0.868   4.480 -0.4496  0.5888 -1.5800
17198SOL     OW58833   3.017   7.519   8.579  0.1851  0.2259  0.7845
17198SOL    HW158834   2.980   7.436   8.549  0.4181  0.4536 -0.1460
17198SOL    HW258835   2.940   7.575   8.591  0.0729  0.0595  0.8569
17199SOL     OW58836   4.745   7.508   3.954 -0.2256  0.0393 -0.2866
17199SOL    HW158837   4.664   7.544   3.918 -0.5357  0.8792  1.1447
17199SOL    HW258838   4.740   7.530   4.048  0.6315 -1.8308  0.2283
17200SOL     OW58839   0.184   3.086  10.532  0.0671  0.2678  0.0634
17200SOL    HW158840   0.207   3.102  10.440 -0.2979  2.4040  0.2792
17200SOL    HW258841   0.092   3.061  10.531 -0.1944  1.1982 -0.1118
17201SOL     OW58842   2.670   1.844   4.750 -0.0547 -0.4589 -0.1954
17201SOL    HW158843   2.717   1.885   4.678  2.5749 -1.3079  0.9256
17201SOL    HW258844   2.651   1.916   4.810 -0.6632 -0.0345 -0.8777
17202SOL     OW58845  11.180   4.599  12.339 -0.0582 -0.7175 -0.6171
17202SOL    HW158846  11.263   4.550  12.337  0.9959  0.8783  0.8932
17202SOL    HW258847  11.113   4.532  12.357  1.1661 -1.7892  0.1667
17203SOL     OW58848   3.705  11.761   9.952  0.3868  0.3697 -0.0388
17203SOL    HW158849   3.706  11.856   9.957  1.0280  0.3087  2.1803
17203SOL    HW258850   3.640  11.741   9.885  0.5618  2.3485 -0.8681
17204SOL     OW58851   5.811  12.694   8.249  0.1378 -0.3257  0.2968
17204SOL    HW158852   5.778  12.625   8.306 -0.6923  0.0807  0.3133
17204SOL    HW258853   5.745  12.762   8.252  0.6506  0.2099 -0.2193
17205SOL     OW58854   8.376  11.604   7.713  0.1759  0.2320 -0.2510
17205SOL    HW158855   8.468  11.587   7.730  0.5709  2.1799 -0.1764
17205SOL    HW258856   8.376  11.672   7.646 -1.2216  0.0405 -0.4872
17206SOL     OW58857   1.933   9.302   5.476  0.5357  0.1044 -0.1025
17206SOL    HW158858   1.870   9.370   5.502  0.3764 -0.1412  0.1582
17206SOL    HW258859   1.995   9.348   5.419 -0.5639  0.1020 -1.3670
17207SOL     OW58860  11.417  11.064   6.054  0.7125  0.5629  0.0153
17207SOL    HW158861  11.468  11.132   6.098  1.8553 -0.6776  0.6762
17207SOL    HW258862  11.482  10.997   6.031 -0.5331 -0.8258  0.3949
17208SOL     OW58863   5.325   6.778  10.136  0.1493 -0.1196 -0.1237
17208SOL    HW158864   5.368   6.834  10.201 -0.3460 -2.2820  2.1682
17208SOL    HW258865   5.314   6.836  10.060  0.6992  2.5399  1.6694
17209SOL     OW58866   9.289  10.075   2.804 -0.0673  0.9244  0.0784
17209SOL    HW158867   9.271  10.036   2.890  0.6353  1.6926  0.5979
17209SOL    HW258868   9.230  10.030   2.744  0.3017 -0.5050  0.7400
17210SOL     OW58869   0.701   5.124   0.636 -0.1291 -0.0416  0.3011
17210SOL    HW158870   0.729   5.180   0.708 -0.9564  0.2880  0.3754
17210SOL    HW258871   0.646   5.057   0.678 -2.7394  1.6011 -0.2570
17211SOL     OW58872  12.311   5.313   6.541  0.2399  0.1124 -0.3399
17211SOL    HW158873  12.323   5.372   6.616  1.4455 -0.0502 -0.3772
17211SOL    HW258874  12.394   5.266   6.535 -0.3087 -0.7945 -1.0033
17212SOL     OW58875   1.007  12.171  10.151 -0.1296  0.1840  0.2158
17212SOL    HW158876   1.048  12.111  10.089 -0.7044 -0.6555  0.6382
17212SOL    HW258877   0.943  12.220  10.099 -0.8531 -0.7598  0.2095
17213SOL     OW58878  10.522  11.326   8.351  0.4522  0.5861 -0.8480
17213SOL    HW158879  10.556  11.390   8.413  0.3785  0.6665 -0.8901
17213SOL    HW258880  10.484  11.257   8.406  0.0334  0.8481 -0.8051
17214SOL     OW58881   0.907   0.288   3.057 -0.2112 -0.2337 -0.1309
17214SOL    HW158882   0.894   0.376   3.092 -1.6223 -0.3462 -0.2877
17214SOL    HW258883   0.892   0.297   2.962  1.4046 -0.3312 -0.4176
17215SOL     OW58884   7.904   1.400   7.899 -0.5155  0.1763  0.2586
17215SOL    HW158885   7.943   1.424   7.983 -0.4895 -1.4531  0.7371
17215SOL    HW258886   7.820   1.360   7.923  0.1267 -1.6232 -0.3570
17216SOL     OW58887  10.112   5.178  12.355  0.0884  0.1202  0.1931
17216SOL    HW158888  10.137   5.226  12.276 -0.6793 -1.2142 -0.9074
17216SOL    HW258889  10.025   5.143  12.336  0.4745 -1.4293  1.0367
17217SOL     OW58890  10.258  11.528  11.277  0.2398 -0.0457 -0.3010
17217SOL    HW158891  10.175  11.548  11.234  0.2926  1.5096  0.2521
17217SOL    HW258892  10.322  11.583  11.232  1.0417 -1.4062 -0.8782
17218SOL     OW58893   0.438   0.485   2.692  0.0282 -0.8969  0.3176
17218SOL    HW158894   0.346   0.476   2.715 -0.3720  1.5474 -0.0763
17218SOL    HW258895   0.438   0.496   2.597  0.6971 -0.5670  0.3465
17219SOL     OW58896   9.467   9.959  11.775 -0.0409  0.2380  0.3945
17219SOL    HW158897   9.560   9.972  11.797  0.1844  0.4434 -0.6464
17219SOL    HW258898   9.430   9.919  11.854  0.5598  1.6530  1.4313
17220SOL     OW58899  11.463   4.713  10.124  0.3466  0.1412 -0.1199
17220SOL    HW158900  11.485   4.636  10.176  0.7010 -0.5761 -1.2916
17220SOL    HW258901  11.392   4.755  10.172 -0.3805 -1.3440  0.1582
17221SOL     OW58902   2.377   8.004   0.813  0.9256 -0.1439  0.2392
17221SOL    HW158903   2.379   8.089   0.770  1.8091 -0.5251 -0.5272
17221SOL    HW258904   2.381   8.024   0.907 -1.6921  0.7192  0.2244
17222SOL     OW58905   0.325   8.987  11.296 -0.0235  1.0053  0.2348
17222SOL    HW158906   0.234   8.959  11.304  0.0403  0.5066 -0.6866
17222SOL    HW258907   0.330   9.031  11.212  1.1170 -1.2159 -0.9668
17223SOL     OW58908   2.807   6.713   1.927  0.2310  0.0183 -0.4875
17223SOL    HW158909   2.774   6.716   1.837 -2.0275 -1.6880  0.1885
17223SOL    HW258910   2.742   6.662   1.974  2.5465 -1.1523  1.6510
17224SOL     OW58911   0.446   1.105   9.813  0.4232 -0.0241 -0.2682
17224SOL    HW158912   0.433   1.022   9.768  0.3146  0.4357 -1.1165
17224SOL    HW258913   0.516   1.089   9.876  1.8041 -0.2474 -1.8029
17225SOL     OW58914  11.843   1.952  10.412  0.3221  0.0418 -0.2269
17225SOL    HW158915  11.925   1.948  10.363  0.9389 -1.8588  0.8594
17225SOL    HW258916  11.778   1.917  10.351  0.7942 -0.8642 -0.2253
17226SOL     OW58917   5.059   9.281   4.631  0.0258 -0.3463  0.2333
17226SOL    HW158918   4.987   9.239   4.584  1.6284 -1.4126 -1.4375
17226SOL    HW258919   5.048   9.374   4.614 -0.8715 -0.4998 -0.0948
17227SOL     OW58920   0.209   7.707   3.822 -0.6196 -0.2561 -0.2772
17227SOL    HW158921   0.207   7.671   3.733 -1.5144  1.8803 -1.2066
17227SOL    HW258922   0.292   7.754   3.827 -1.2521  0.9363 -0.5915
17228SOL     OW58923   7.698   7.889   6.239 -0.1845 -0.6280  0.8314
17228SOL    HW158924   7.780   7.932   6.214 -1.1974  1.2619  0.5591
17228SOL    HW258925   7.660   7.946   6.306 -0.7594 -2.0878  1.8203
17229SOL     OW58926   3.004   2.068   7.835 -0.2234  0.1648 -0.2351
17229SOL    HW158927   3.028   2.111   7.753  0.7820  0.0174 -0.0375
17229SOL    HW258928   2.993   2.139   7.897  1.2704  0.1737  0.0505
17230SOL     OW58929   9.729   4.299   5.489  0.2637  0.1094 -0.1012
17230SOL    HW158930   9.650   4.304   5.542  0.7302  1.1208  0.5269
17230SOL    HW258931   9.750   4.206   5.485  0.6693  0.0623  2.1929
17231SOL     OW58932   6.533   7.709   3.181  0.0768  0.1625  0.2520
17231SOL    HW158933   6.439   7.691   3.191  0.0993  0.0481  0.2581
17231SOL    HW258934   6.564   7.641   3.122 -0.3861  1.7671 -1.9969
17232SOL     OW58935  11.135  10.845   6.242  0.0338 -0.1793 -0.5059
17232SOL    HW158936  11.116  10.937   6.222  0.0693 -0.2143 -0.7031
17232SOL    HW258937  11.144  10.803   6.156  0.4297 -0.2841 -0.4146
17233SOL     OW58938   0.992  11.220   0.846 -0.7445 -0.1182  0.1805
17233SOL    HW158939   0.950  11.146   0.889  0.3823  0.0972  1.7220
17233SOL    HW258940   0.979  11.294   0.905  1.0819  0.1300  0.3447
17234SOL     OW58941  10.000   4.392  10.504 -0.5233 -0.1048  0.0939
17234SOL    HW158942   9.971   4.480  10.478 -1.9748 -0.3597  0.7606
17234SOL    HW258943   9.936   4.333  10.464  0.2852 -0.8601 -0.1207
17235SOL     OW58944   3.621   0.243  10.612  0.2630  0.0237  0.1195
17235SOL    HW158945   3.717   0.238  10.606  0.1917 -3.0287  0.0412
17235SOL    HW258946   3.596   0.165  10.662 -2.2699  0.0504 -0.9798
17236SOL     OW58947   2.133   4.772  11.373  0.4976 -0.2126 -0.2134
17236SOL    HW158948   2.221   4.798  11.345  0.3728  1.4371  0.8067
17236SOL    HW258949   2.148   4.704  11.439  1.0054 -0.1357 -0.2463
17237SOL     OW58950   0.258   9.086   2.950  0.4104  0.2451  0.5216
17237SOL    HW158951   0.342   9.073   2.905 -0.1230 -1.8271  0.0190
17237SOL    HW258952   0.192   9.058   2.887 -0.4628 -0.8627  1.8675
17238SOL     OW58953  11.767   0.591   5.294  0.0615 -0.1690 -0.2982
17238SOL    HW158954  11.749   0.678   5.330  0.8188  0.5947 -1.6421
17238SOL    HW258955  11.704   0.581   5.223  0.5360 -0.3366 -0.7039
17239SOL     OW58956  10.634   3.601   7.816  0.3155  0.0642  0.4257
17239SOL    HW158957  10.657   3.693   7.831 -0.5424  0.3811 -0.1412
17239SOL    HW258958  10.678   3.554   7.886  0.4556  0.9492  0.9513
17240SOL     OW58959  11.262   2.177  10.303  0.0090 -0.0248  0.0846
17240SOL    HW158960  11.198   2.248  10.296 -1.7718 -1.6143 -0.9507
17240SOL    HW258961  11.315   2.184  10.223 -2.6146 -1.9736 -2.0076
17241SOL     OW58962   1.136   3.573   8.710  0.3611  0.3174  0.2539
17241SOL    HW158963   1.051   3.531   8.725  1.7028 -1.9066  2.2333
17241SOL    HW258964   1.195   3.501   8.690  2.2550  1.5044  1.2893
17242SOL     OW58965   3.379   6.328  10.251 -0.2932  0.2607 -0.0192
17242SOL    HW158966   3.316   6.289  10.312 -0.8113 -0.2645 -0.8681
17242SOL    HW258967   3.456   6.273  10.258 -0.1038  0.5931  0.6352
17243SOL     OW58968   7.313   5.513   5.263 -0.0916 -0.4543  0.4469
17243SOL    HW158969   7.267   5.572   5.204 -1.0453 -1.2734  0.3531
17243SOL    HW258970   7.405   5.540   5.257 -0.4156  0.5666 -0.1038
17244SOL     OW58971  11.034   4.353  11.924  0.7165 -0.0197  0.1796
17244SOL    HW158972  10.976   4.394  11.989 -0.7688 -0.7901 -0.5998
17244SOL    HW258973  11.009   4.394  11.841 -1.1246 -2.6584 -0.7049
17245SOL     OW58974  11.930   2.895   3.710 -0.5766  0.0820  0.0032
17245SOL    HW158975  11.898   2.964   3.769  0.8768  2.0281 -1.3661
17245SOL    HW258976  11.960   2.826   3.769 -3.3351 -0.0506  1.4039
17246SOL     OW58977   4.527   8.627   2.949 -0.2224 -0.0179 -1.0226
17246SOL    HW158978   4.453   8.665   2.996  0.5857 -0.3772  0.6050
17246SOL    HW258979   4.604   8.675   2.981  0.2179  0.8992 -3.2676
17247SOL     OW58980   4.503   5.382   6.799 -0.2456  0.2085  0.6223
17247SOL    HW158981   4.456   5.448   6.749 -0.3242  0.5549  1.1445
17247SOL    HW258982   4.446   5.304   6.796  0.0417  0.0261 -0.3393
17248SOL     OW58983   9.772  12.282   4.348  0.1655  0.3937  0.3163
17248SOL    HW158984   9.757  12.194   4.384  1.8177  0.3946  1.0750
17248SOL    HW258985   9.798  12.334   4.423  0.7384  1.1506 -0.3949
17249SOL     OW58986  11.485   4.666   9.002 -0.0023 -0.4595  0.0485
17249SOL    HW158987  11.448   4.684   9.088  1.1662  0.4362  0.3798
17249SOL    HW258988  11.418   4.696   8.940 -0.0991  0.5974  0.6413
17250SOL     OW58989   2.421  10.816  11.634 -0.6185  0.2594 -0.6275
17250SOL    HW158990   2.383  10.751  11.694 -0.7173 -0.1497 -1.1239
17250SOL    HW258991   2.357  10.823  11.563  0.5359 -0.9972 -1.8565
17251SOL     OW58992   9.044   5.308   0.482  0.9863  0.8232 -0.0350
17251SOL    HW158993   8.971   5.250   0.507  0.4965  1.7071  0.6539
17251SOL    HW258994   9.103   5.305   0.557  1.9440 -0.2858 -0.7950
17252SOL     OW58995   6.176   9.266   5.307 -0.5813  0.7299 -0.8697
17252SOL    HW158996   6.093   9.220   5.322 -0.2603 -0.2226 -1.8988
17252SOL    HW258997   6.242   9.206   5.342 -0.3599  2.1608  1.4298
17253SOL     OW58998   9.400   6.289   8.306 -0.0681  0.4492  0.2481
17253SOL    HW158999   9.429   6.332   8.387 -0.0063  0.1115  0.4088
17253SOL    HW259000   9.317   6.333   8.284  0.3559  1.1460  0.0036
17254SOL     OW59001   3.420   1.765  10.736 -0.3981  0.0886 -0.0020
17254SOL    HW159002   3.471   1.846  10.737 -2.4876  1.4711  0.0763
17254SOL    HW259003   3.464   1.708  10.798 -0.3280  2.1358  1.9557
17255SOL     OW59004   6.419   7.974   4.761 -0.2335 -0.3488 -0.6982
17255SOL    HW159005   6.502   8.021   4.774 -0.7460  0.2321  0.5951
17255SOL    HW259006   6.440   7.883   4.782 -0.1431 -0.0383  0.6648
17256SOL     OW59007   8.603  12.606   6.731  0.2836 -0.5353  0.4195
17256SOL    HW159008   8.689  12.564   6.732  0.3617 -0.5441 -2.0212
17256SOL    HW259009   8.567  12.587   6.818  3.6347  1.5360  2.5055
17257SOL     OW59010  12.580  11.478   1.408 -0.0113  0.1220  0.3541
17257SOL    HW159011  12.495  11.436   1.418 -0.9449  1.5249 -1.0274
17257SOL    HW259012  12.565  11.546   1.342  1.9797  0.9958  0.7194
17258SOL     OW59013   5.070  11.777   2.115  0.1616 -0.1374  0.5913
17258SOL    HW159014   4.993  11.728   2.088  0.1266  0.2026  0.0525
17258SOL    HW259015   5.036  11.860   2.148  0.3016  0.0805  0.1973
17259SOL     OW59016  10.932   6.186   4.667 -0.1936 -0.2789 -0.2233
17259SOL    HW159017  10.979   6.164   4.587 -0.4956  0.8758 -0.7448
17259SOL    HW259018  10.839   6.181   4.643 -0.2798  0.5824 -0.1104
17260SOL     OW59019  10.426   7.237   9.596  0.0275 -0.4432  0.3636
17260SOL    HW159020  10.489   7.211   9.663 -0.5928  0.5483  1.3704
17260SOL    HW259021  10.475   7.236   9.515  0.9397 -1.1665  0.8974
17261SOL     OW59022   3.623   1.848   3.643 -0.2124  0.0942 -0.1271
17261SOL    HW159023   3.682   1.824   3.571 -0.7427  0.4001 -0.6764
17261SOL    HW259024   3.667   1.922   3.686  0.3780 -0.4545  0.2203
17262SOL     OW59025  10.878  12.437   1.836 -0.1987  0.2594  0.3437
17262SOL    HW159026  10.834  12.354   1.818 -0.9953  0.8775 -0.6533
17262SOL    HW259027  10.971  12.417   1.826 -0.3555 -0.5815  0.4421
17263SOL     OW59028  10.183   9.157   3.253 -0.1327 -0.6431 -0.3659
17263SOL    HW159029  10.119   9.112   3.308  1.1419 -1.3644  0.5807
17263SOL    HW259030  10.257   9.174   3.311  1.6789 -2.2590 -2.0203
17264SOL     OW59031   3.989   4.584  10.787  0.2755  0.7040  0.3038
17264SOL    HW159032   4.084   4.592  10.782  0.3218 -0.0043 -0.0300
17264SOL    HW259033   3.967   4.612  10.876  1.1221 -1.9323  1.4436
17265SOL     OW59034   6.727   0.108  10.542  0.2171  0.4844  0.1306
17265SOL    HW159035   6.749   0.121  10.450 -1.6429 -0.3975 -0.4920
17265SOL    HW259036   6.631   0.112  10.544  0.1335 -1.2516  1.7372
17266SOL     OW59037  10.591   1.361   1.797  0.4176  0.8337  0.4229
17266SOL    HW159038  10.499   1.383   1.806  0.5705  1.2939  0.9071
17266SOL    HW259039  10.635   1.444   1.777  0.9529  0.9708  1.9777
17267SOL     OW59040  12.439   6.318   1.104 -0.4353 -0.0785 -0.7054
17267SOL    HW159041  12.530   6.290   1.094 -0.3740  0.2746 -1.1777
17267SOL    HW259042  12.445   6.397   1.159 -0.4700 -0.1436 -0.6081
17268SOL     OW59043   5.243   8.417  12.402  0.3056  0.1115  0.1379
17268SOL    HW159044   5.172   8.401  12.341  0.1139  1.2193  0.0559
17268SOL    HW259045   5.262   8.331  12.440  0.5840 -0.6325 -1.6194
17269SOL     OW59046   1.662   2.501   9.437 -0.3501 -0.4180 -0.1992
17269SOL    HW159047   1.730   2.438   9.459 -0.8921 -1.1151 -0.4827
17269SOL    HW259048   1.632   2.536   9.521  0.8061  0.3961 -0.1033
17270SOL     OW59049   9.518   2.417  11.693  0.0791 -0.0536 -0.0772
17270SOL    HW159050   9.514   2.373  11.609  1.5558  1.0896 -0.7983
17270SOL    HW259051   9.444   2.477  11.693  1.5215  1.8269 -1.7299
17271SOL     OW59052   9.672   0.073   7.980 -0.4802  0.1986  0.1288
17271SOL    HW159053   9.650  -0.019   7.997 -1.6207  0.3165 -0.5942
17271SOL    HW259054   9.758   0.070   7.938 -0.0516 -0.4602  1.0297
17272SOL     OW59055   9.652   2.210   9.044 -0.0706  0.0856  0.1905
17272SOL    HW159056   9.571   2.222   8.995  0.4048 -0.1501 -0.6731
17272SOL    HW259057   9.647   2.274   9.115 -1.2541 -0.2926  0.4851
17273SOL     OW59058   6.239  10.919   9.890  0.0836 -0.1509  0.6704
17273SOL    HW159059   6.322  10.960   9.867  0.1544 -0.5247  0.2640
17273SOL    HW259060   6.263  10.831   9.920 -0.2553 -0.6598 -0.5051
17274SOL     OW59061  12.366   2.162  12.336  0.2366  0.4399  0.5200
17274SOL    HW159062  12.286   2.110  12.337 -0.1311  0.7681  4.3896
17274SOL    HW259063  12.436   2.097  12.330 -0.2513 -0.0078 -0.6915
17275SOL     OW59064  12.627   4.263   7.729  0.0820 -0.1424  0.1677
17275SOL    HW159065  12.688   4.236   7.798  0.6647  1.0217  0.1295
17275SOL    HW259066  12.635   4.358   7.725 -2.5766  0.2081  0.9448
17276SOL     OW59067   0.991   2.061   9.447 -0.7175 -0.6563  0.4944
17276SOL    HW159068   0.954   2.001   9.383 -0.8932  0.3171 -0.3282
17276SOL    HW259069   1.077   2.024   9.467 -0.6794 -0.9855 -0.2669
17277SOL     OW59070   0.878   1.761  11.300 -0.3307  0.5058  0.8937
17277SOL    HW159071   0.790   1.792  11.279 -0.1948  0.1202 -0.2649
17277SOL    HW259072   0.882   1.764  11.396 -1.7240  0.2062  0.9773
17278SOL     OW59073   2.283   7.983   8.229 -0.0500 -0.5761  0.2051
17278SOL    HW159074   2.304   8.036   8.306  0.7499  0.1741 -0.5076
17278SOL    HW259075   2.193   8.008   8.206 -0.4243 -1.0581  1.0726
17279SOL     OW59076   8.918   5.903   0.984  0.3877 -0.0545  0.1008
17279SOL    HW159077   8.956   5.904   0.897  1.5556  0.5155  0.6018
17279SOL    HW259078   8.944   5.819   1.021 -2.0659 -1.3639 -0.8905
17280SOL     OW59079   6.642  11.960   5.856 -0.2061 -0.4434 -0.6135
17280SOL    HW159080   6.587  12.038   5.858 -1.3199 -1.1751 -1.5643
17280SOL    HW259081   6.732  11.994   5.853 -0.4665  0.7669  2.2414
17281SOL     OW59082  12.169  10.007   3.574  0.0626 -0.0079  0.5305
17281SOL    HW159083  12.090  10.058   3.592  0.8850  1.1269  1.0736
17281SOL    HW259084  12.202   9.983   3.660  0.1524 -0.7342  0.2988
17282SOL     OW59085  10.884  10.333   3.503 -0.3608  0.1860  0.2258
17282SOL    HW159086  10.929  10.371   3.579 -0.1422  0.2839  0.0484
17282SOL    HW259087  10.819  10.398   3.479  0.6029  0.8631 -0.6259
17283SOL     OW59088   6.494   5.332   0.408 -0.2696  0.0107  0.2099
17283SOL    HW159089   6.530   5.364   0.491 -0.7008  1.3809 -0.0994
17283SOL    HW259090   6.567   5.341   0.346 -0.2149 -0.1643  0.2491
17284SOL     OW59091   9.290   3.426   1.617  0.5908  0.7829 -0.3766
17284SOL    HW159092   9.209   3.404   1.573  0.4836 -1.6801  0.8538
17284SOL    HW259093   9.276   3.514   1.652 -1.5834  0.3822 -0.1201
17285SOL     OW59094   9.280   3.012   0.701 -0.2947 -0.3623  0.2892
17285SOL    HW159095   9.342   2.945   0.673 -0.1160  0.0651 -0.3686
17285SOL    HW259096   9.200   2.992   0.653  0.2396  0.8173 -1.1613
17286SOL     OW59097   2.717   1.801   4.313 -0.4107  0.6050 -0.0195
17286SOL    HW159098   2.633   1.842   4.334 -0.7180 -0.3320  0.6592
17286SOL    HW259099   2.779   1.843   4.372 -0.4560  1.1086 -0.3311
17287SOL     OW59100   8.230   6.425  10.844 -0.3108  0.0238  0.3499
17287SOL    HW159101   8.189   6.414  10.930 -0.1420 -0.7010  0.3489
17287SOL    HW259102   8.227   6.519  10.828 -2.4688 -0.0486  0.1061
17288SOL     OW59103   6.580   2.191   1.273  0.4346  0.6094  0.2607
17288SOL    HW159104   6.597   2.274   1.317  0.0120  1.6493 -1.4224
17288SOL    HW259105   6.538   2.216   1.191 -1.0118 -1.3721  0.3334
17289SOL     OW59106   9.003   9.215   3.988 -0.2425 -0.5036 -0.2237
17289SOL    HW159107   9.000   9.120   3.983  1.8011 -0.6917  0.8577
17289SOL    HW259108   9.064   9.233   4.060 -0.6804  1.6238 -0.3212
17290SOL     OW59109  10.697   9.125   2.205  0.4051  0.2018  0.2784
17290SOL    HW159110  10.663   9.120   2.294  1.3363  1.2363  0.7229
17290SOL    HW259111  10.703   9.219   2.187  1.0489  0.0126 -0.5520
17291SOL     OW59112   7.152   7.724   5.821  0.7275  0.1565 -0.0126
17291SOL    HW159113   7.073   7.773   5.799  0.8348 -0.0402 -0.8579
17291SOL    HW259114   7.184   7.766   5.901  0.0086  0.5088  0.1071
17292SOL     OW59115  11.168   6.755  11.389 -0.3216 -0.7933  0.0986
17292SOL    HW159116  11.155   6.760  11.483  1.5466 -0.6886  0.3920
17292SOL    HW259117  11.082   6.733  11.354 -0.8366 -1.8640  1.9123
17293SOL     OW59118   8.173   8.743   1.153 -0.0670  0.1116  0.2888
17293SOL    HW159119   8.230   8.784   1.087 -1.0504  0.8294 -0.1487
17293SOL    HW259120   8.230   8.731   1.229  0.9266 -0.1203 -0.4572
17294SOL     OW59121   2.877   6.987  12.508 -0.3264 -0.0481  0.1941
17294SOL    HW159122   2.910   7.066  12.464 -0.4064  0.1698  0.5240
17294SOL    HW259123   2.832   6.939  12.439 -0.9541  0.5772  0.1556
17295SOL     OW59124  11.802   3.959  11.098  0.0617 -0.1348 -0.3071
17295SOL    HW159125  11.791   3.928  11.008 -0.8959  1.1384 -0.6607
17295SOL    HW259126  11.836   3.884  11.145 -2.0698 -1.7331 -1.1345
17296SOL     OW59127  11.326   1.239   5.634  0.9878  0.1725 -0.1963
17296SOL    HW159128  11.399   1.216   5.577  2.4605 -0.8147  1.9763
17296SOL    HW259129  11.332   1.334   5.644  2.7189 -0.0175  0.8723
17297SOL     OW59130   0.416   5.384   9.730 -0.4134  0.3996 -0.3867
17297SOL    HW159131   0.339   5.328   9.738  0.8794 -1.2087  1.8295
17297SOL    HW259132   0.399   5.457   9.789 -0.6448  0.5334 -0.6204
17298SOL     OW59133   3.728   5.312  12.345  0.7801 -0.9733 -0.0975
17298SOL    HW159134   3.655   5.349  12.395  0.2730 -2.0477  0.0006
17298SOL    HW259135   3.776   5.388  12.312  0.2739 -0.2469  0.7888
17299SOL     OW59136   6.182   1.627  12.135  0.0548  0.5113 -0.4344
17299SOL    HW159137   6.194   1.701  12.075 -0.6570  0.4262 -0.6943
17299SOL    HW259138   6.112   1.575  12.095 -0.0806  0.1830  0.2112
17300SOL     OW59139   9.537   4.989  12.335 -0.1076 -0.1268 -0.1513
17300SOL    HW159140   9.487   4.913  12.306 -0.6623 -0.9283  2.5501
17300SOL    HW259141   9.476   5.062  12.330 -0.4000 -0.3798 -0.2708
17301SOL     OW59142   0.561   5.396   4.632  0.0067  0.0082 -0.2741
17301SOL    HW159143   0.569   5.358   4.719  0.1030  1.6642  0.4764
17301SOL    HW259144   0.479   5.361   4.598 -0.6987  0.3359  1.0148
17302SOL     OW59145   0.905   2.883   7.725 -0.4147 -0.5949 -0.1495
17302SOL    HW159146   0.877   2.792   7.732  1.1466 -1.0562  0.4908
17302SOL    HW259147   0.980   2.890   7.783  1.1253  0.4206 -2.1386
17303SOL     OW59148   4.376  10.657   7.909  0.8526  0.2133 -0.2676
17303SOL    HW159149   4.348  10.659   7.818  0.6666 -2.2158 -0.3316
17303SOL    HW259150   4.441  10.586   7.913  2.3807  1.5798  1.1189
17304SOL     OW59151  12.692  10.107   5.325 -0.1664  0.8225  0.2264
17304SOL    HW159152  12.709  10.193   5.363 -1.0490  1.4563 -0.7531
17304SOL    HW259153  12.695  10.122   5.230 -1.3134 -0.0065  0.0395
17305SOL     OW59154   6.754   6.446   5.022  0.1183 -0.0113  0.0843
17305SOL    HW159155   6.712   6.361   5.009 -2.6030  1.1498  0.5765
17305SOL    HW259156   6.738   6.494   4.941 -1.8648  1.3121  1.1600
17306SOL     OW59157   3.901   4.433   1.355 -0.4657 -0.1122  0.1610
17306SOL    HW159158   3.989   4.469   1.343 -1.2127  1.3229 -1.5728
17306SOL    HW259159   3.897   4.410   1.448  1.1912  1.2843  0.6442
17307SOL     OW59160   0.661   1.020   9.965  0.2021 -0.7699 -0.5146
17307SOL    HW159161   0.745   0.997  10.005 -1.0727 -3.0408  1.0298
17307SOL    HW259162   0.637   0.944   9.913 -0.7793  0.0002 -1.2309
17308SOL     OW59163   4.992   0.619   4.359  0.6742 -0.3140  0.8417
17308SOL    HW159164   4.943   0.579   4.287  0.9008 -0.3851  0.7270
17308SOL    HW259165   4.958   0.708   4.364  1.3958  0.0315 -0.0465
17309SOL     OW59166   8.542   9.574   7.582 -0.3758 -0.1568 -0.0794
17309SOL    HW159167   8.464   9.604   7.628 -1.1366  0.4233 -1.6438
17309SOL    HW259168   8.592   9.654   7.564 -0.6602 -0.2019 -1.1913
17310SOL     OW59169   2.479   1.618   7.467  0.2267  0.0270  0.3708
17310SOL    HW159170   2.450   1.528   7.483 -0.0802 -0.2575 -1.6237
17310SOL    HW259171   2.505   1.650   7.554 -0.6175 -1.6287  1.2862
17311SOL     OW59172   3.704   2.900   9.342  0.5494 -0.1331 -0.0255
17311SOL    HW159173   3.726   2.852   9.261  0.3265 -1.2950  0.5771
17311SOL    HW259174   3.699   2.832   9.409  1.1803  0.8697  1.0758
17312SOL     OW59175   2.894   9.407   3.436  0.2524  0.2765  0.2793
17312SOL    HW159176   2.849   9.412   3.520  0.4489 -0.2408  0.4227
17312SOL    HW259177   2.919   9.315   3.428 -1.4601 -0.0998 -1.2512
17313SOL     OW59178  10.452  10.486   9.958 -0.1483 -0.0014  0.2539
17313SOL    HW159179  10.474  10.394   9.974  2.3463  0.4962  0.0329
17313SOL    HW259180  10.516  10.514   9.892 -0.8917  1.9043  0.3007
17314SOL     OW59181   6.813   0.843   9.199 -0.3854 -0.6537  0.0601
17314SOL    HW159182   6.818   0.927   9.245  0.2405 -0.4609 -0.3373
17314SOL    HW259183   6.761   0.787   9.256  2.8007 -1.3857  2.5348
17315SOL     OW59184   6.937   2.345   8.496 -0.5021 -0.3324  0.0944
17315SOL    HW159185   6.984   2.391   8.426  0.2907 -1.5937 -0.2525
17315SOL    HW259186   6.849   2.382   8.495  0.7764  3.2548  1.7800
17316SOL     OW59187   8.880   6.618   7.228  0.3713 -0.6606 -0.5004
17316SOL    HW159188   8.956   6.621   7.286 -0.6035  0.0493  0.7879
17316SOL    HW259189   8.828   6.544   7.260 -0.5789  0.2359  0.1044
17317SOL     OW59190   1.052   6.501  10.093  0.1424  0.3045  0.1442
17317SOL    HW159191   1.054   6.504  10.188  0.6406  3.1812  0.1268
17317SOL    HW259192   0.960   6.516  10.071  0.1463  0.3459  0.1571
17318SOL     OW59193   7.998   8.332   1.698 -0.1928 -0.1858 -0.3411
17318SOL    HW159194   7.921   8.277   1.688 -0.4381 -0.3177  1.8792
17318SOL    HW259195   8.051   8.288   1.765  0.6638  1.1210 -0.1063
17319SOL     OW59196   7.054   3.687  10.382 -0.0827 -0.9075  0.1956
17319SOL    HW159197   7.147   3.701  10.362 -0.3172  0.5522  0.0428
17319SOL    HW259198   7.045   3.592  10.386  0.5526 -1.2937 -3.8609
17320SOL     OW59199   5.153  10.552   4.572 -0.1721 -0.1990  0.7933
17320SOL    HW159200   5.092  10.478   4.572  1.2294 -1.4135  1.9867
17320SOL    HW259201   5.233  10.517   4.533  0.2532  0.9465  0.6037
17321SOL     OW59202   1.188   0.509  10.493  0.0503 -0.7114 -0.2378
17321SOL    HW159203   1.249   0.436  10.498  1.1743  0.0671 -1.8405
17321SOL    HW259204   1.241   0.583  10.463 -1.3095  0.4633  0.1285
17322SOL     OW59205  12.370   3.664  12.027 -0.6215  0.4855  0.1479
17322SOL    HW159206  12.318   3.602  11.976  0.0910  0.8345 -1.0448
17322SOL    HW259207  12.311   3.694  12.097 -1.6513  0.0564 -0.5148
17323SOL     OW59208   1.659   2.190  11.274  0.0807 -0.2078  0.0486
17323SOL    HW159209   1.743   2.203  11.319  0.4030  1.5177 -0.9781
17323SOL    HW259210   1.681   2.188  11.181 -1.1622  2.2074 -0.3765
17324SOL     OW59211   5.651   0.209   9.730 -0.1274 -0.0811  0.2058
17324SOL    HW159212   5.599   0.250   9.661 -0.4295  1.4919  1.3238
17324SOL    HW259213   5.646   0.270   9.803  2.4045 -0.4037  0.7308
17325SOL     OW59214   4.824   9.825   8.991  0.2147 -0.0756  0.3322
17325SOL    HW159215   4.815   9.821   9.087  1.5799 -0.6634  0.4498
17325SOL    HW259216   4.759   9.891   8.964 -1.0939 -0.8193  1.5161
17326SOL     OW59217   7.404   8.854   2.853 -0.4421  1.0334  0.2162
17326SOL    HW159218   7.426   8.947   2.844 -1.7622  1.3324 -0.0141
17326SOL    HW259219   7.314   8.847   2.823  0.1243 -0.5997 -1.3123
17327SOL     OW59220   5.755   1.848  11.381  0.0870 -0.4132 -0.1248
17327SOL    HW159221   5.668   1.813  11.401 -0.4561  0.5294 -0.7824
17327SOL    HW259222   5.771   1.912  11.451  1.0680 -1.8814  1.0608
17328SOL     OW59223  10.852  10.677   4.676  0.1967  0.0526 -0.5077
17328SOL    HW159224  10.790  10.622   4.724  0.6782 -0.9131 -0.9711
17328SOL    HW259225  10.891  10.618   4.612  1.9380  0.5168  0.0707
17329SOL     OW59226   3.538   8.234   7.217 -0.3177 -0.6102  0.2656
17329SOL    HW159227   3.602   8.285   7.167 -2.7778  1.8755 -0.6364
17329SOL    HW259228   3.499   8.175   7.153 -0.3999 -0.5982  0.3045
17330SOL     OW59229  10.644   7.787   2.933 -0.0863  0.7952  0.0452
17330SOL    HW159230  10.564   7.746   2.901 -0.6431  1.5252  0.4854
17330SOL    HW259231  10.650   7.869   2.885  1.2718  0.0282 -1.1771
17331SOL     OW59232   4.053  11.664  12.409 -0.0756  0.2569 -0.0869
17331SOL    HW159233   4.068  11.692  12.318 -0.3138  2.8384  0.5751
17331SOL    HW259234   4.135  11.685  12.454  0.2013 -1.4200  0.2474
17332SOL     OW59235   8.446   8.600   0.373  0.3935 -0.0113  0.7015
17332SOL    HW159236   8.366   8.558   0.343  1.1690  0.7945 -2.9423
17332SOL    HW259237   8.498   8.528   0.409 -0.8218 -1.0296  0.5204
17333SOL     OW59238   5.506  12.690  11.616 -0.4908  0.1430 -0.3031
17333SOL    HW159239   5.483  12.726  11.530 -1.3439 -2.5241 -1.3131
17333SOL    HW259240   5.427  12.700  11.668  0.1508  2.1196  0.3585
17334SOL     OW59241   4.885   7.867   3.391 -0.0404 -0.0896  0.0104
17334SOL    HW159242   4.847   7.855   3.304 -2.5081  0.9136  0.8724
17334SOL    HW259243   4.851   7.795   3.442  1.4244 -0.6890  0.1943
17335SOL     OW59244   0.712   9.722   1.710  0.5564 -0.5607  0.1383
17335SOL    HW159245   0.731   9.665   1.636 -0.3206  0.9079 -1.2993
17335SOL    HW259246   0.644   9.675   1.759  0.9660 -1.4468 -0.1178
17336SOL     OW59247   4.176   0.195   8.065 -0.1908 -0.1753 -1.1784
17336SOL    HW159248   4.091   0.153   8.055 -0.2318 -0.5688  0.5461
17336SOL    HW259249   4.223   0.173   7.985 -1.0530 -1.5159 -1.3477
17337SOL     OW59250   1.371   5.296  11.109 -0.5800 -0.3906  0.0582
17337SOL    HW159251   1.302   5.327  11.050 -1.3684 -1.2774  0.4670
17337SOL    HW259252   1.414   5.226  11.060 -1.9900 -1.9291  0.8937
17338SOL     OW59253  12.015  12.152  10.717  0.3070 -0.4892  0.1012
17338SOL    HW159254  11.927  12.123  10.739  0.3380  0.3232  1.3923
17338SOL    HW259255  12.052  12.183  10.799  0.9647  1.3649 -0.8279
17339SOL     OW59256   8.611   0.731  11.652  0.0234 -0.1714 -0.5851
17339SOL    HW159257   8.598   0.665  11.721 -0.5597 -1.3960 -1.8127
17339SOL    HW259258   8.594   0.684  11.571 -0.7639  1.5983 -1.5062
17340SOL     OW59259   5.744  11.698  10.294 -0.3464 -0.1972 -0.6697
17340SOL    HW159260   5.714  11.631  10.357 -1.3242 -0.6148 -1.5522
17340SOL    HW259261   5.833  11.672  10.274  0.6605  0.9479  1.8524
17341SOL     OW59262  12.080   6.916  12.610  0.2235  0.4711 -0.3864
17341SOL    HW159263  12.100   6.889  12.520 -0.4764  0.8765 -0.6788
17341SOL    HW259264  12.121   6.850  12.665 -0.1381 -0.3175 -1.0353
17342SOL     OW59265   0.947   6.476   1.794 -0.3856 -0.1934  0.3418
17342SOL    HW159266   0.928   6.564   1.763 -2.4485 -0.7696 -0.1876
17342SOL    HW259267   1.029   6.452   1.751 -0.5743  0.9061 -0.6666
17343SOL     OW59268   3.057   4.729  10.729 -0.1184  0.0121 -0.2042
17343SOL    HW159269   3.140   4.770  10.756 -0.3912  0.5940 -0.2228
17343SOL    HW259270   3.056   4.645  10.774 -0.4404  0.8519  1.4413
17344SOL     OW59271  12.113   3.878   9.204 -0.3306  0.4056 -0.1946
17344SOL    HW159272  12.197   3.859   9.246 -0.0225  0.9999 -0.5205
17344SOL    HW259273  12.048   3.866   9.273  0.2487  2.3162  0.7591
17345SOL     OW59274   2.945   2.273   1.226 -0.1424 -0.7460  0.5835
17345SOL    HW159275   2.965   2.366   1.234 -0.7077 -0.7892  3.2719
17345SOL    HW259276   3.029   2.232   1.206  0.1523  0.2915 -0.3743
17346SOL     OW59277   9.334   9.470   2.323 -0.0366  0.2515 -0.2696
17346SOL    HW159278   9.319   9.416   2.245  1.3121 -0.2102 -0.2361
17346SOL    HW259279   9.295   9.419   2.395 -0.4914  0.2559 -0.5039
17347SOL     OW59280   1.095   2.021   3.608  0.5183  0.2488  0.2209
17347SOL    HW159281   1.032   1.999   3.676 -0.1400  0.7098 -0.2261
17347SOL    HW259282   1.101   2.117   3.610 -1.8249  0.5692 -2.3282
17348SOL     OW59283   6.859   3.196   6.641  0.4991  0.8719  0.1983
17348SOL    HW159284   6.807   3.248   6.703 -1.8204 -0.9492 -0.1022
17348SOL    HW259285   6.834   3.230   6.555 -0.4633 -0.1877  0.0387
17349SOL     OW59286   5.520  12.199   7.795  0.3344  0.1489 -0.5192
17349SOL    HW159287   5.461  12.124   7.790  2.0410 -1.4082  1.0588
17349SOL    HW259288   5.553  12.210   7.706  1.3483 -2.1684 -0.5057
17350SOL     OW59289   5.591  11.744  12.516  0.5653  0.0679  0.0119
17350SOL    HW159290   5.519  11.681  12.516  1.3298 -0.8710 -1.3448
17350SOL    HW259291   5.668  11.691  12.493  1.6103  1.1269  0.9535
17351SOL     OW59292   1.693   3.054  11.323  0.5971  0.2634 -0.5164
17351SOL    HW159293   1.734   3.003  11.394 -0.7474  0.6592  0.5920
17351SOL    HW259294   1.678   2.990  11.254  0.3238 -0.5472  0.2628
17352SOL     OW59295   6.841   6.666   5.153  0.4875 -0.8424 -0.1472
17352SOL    HW159296   6.824   6.660   5.247  0.6268 -0.4800 -0.0970
17352SOL    HW259297   6.813   6.581   5.118  0.0282 -0.8171  0.1553
17353SOL     OW59298   3.699   0.360   2.312  0.1611 -0.8399 -0.7501
17353SOL    HW159299   3.671   0.396   2.396 -0.9116 -2.4125 -0.3963
17353SOL    HW259300   3.619   0.355   2.259  1.0632  1.7469 -2.5712
17354SOL     OW59301   1.566   5.108   9.280  0.0879 -0.0357 -0.1432
17354SOL    HW159302   1.497   5.148   9.333 -0.4774 -0.0220 -0.8665
17354SOL    HW259303   1.639   5.170   9.283 -1.0251  1.4593 -1.8391
17355SOL     OW59304  12.288   0.637   9.116 -0.9633 -0.2868  0.1198
17355SOL    HW159305  12.369   0.630   9.066 -0.0673  2.3678  0.9824
17355SOL    HW259306  12.220   0.652   9.051  0.0167  2.0858 -0.4580
17356SOL     OW59307   1.195   8.992   2.429 -0.2026  0.5520 -0.2450
17356SOL    HW159308   1.146   9.028   2.503 -1.0105  0.1008 -0.5568
17356SOL    HW259309   1.276   9.043   2.428 -0.6491  1.2941  0.2819
17357SOL     OW59310   7.494   5.870   8.404  0.1264 -0.4269 -0.3537
17357SOL    HW159311   7.551   5.946   8.417  1.4082 -1.3911 -0.1060
17357SOL    HW259312   7.454   5.854   8.489  1.1075 -0.9703  0.0277
17358SOL     OW59313  12.053   6.448   6.803 -0.2326  0.1070  0.6994
17358SOL    HW159314  12.058   6.422   6.710 -2.3163  0.2737  0.4873
17358SOL    HW259315  11.971   6.497   6.809 -0.0140  0.2875  2.6106
17359SOL     OW59316  10.407   6.392  12.097 -0.8125 -0.5050 -0.6195
17359SOL    HW159317  10.399   6.409  12.003  0.3094 -1.8117 -0.9862
17359SOL    HW259318  10.357   6.463  12.138 -2.1250 -0.4405 -2.2056
17360SOL     OW59319   5.012   6.334   3.116  0.4881  0.2835  0.3058
17360SOL    HW159320   5.052   6.370   3.037 -0.0520  2.2673  0.8695
17360SOL    HW259321   4.994   6.242   3.094  0.2772  0.7840 -1.8996
17361SOL     OW59322  12.426   5.581   8.164  0.1674 -0.4068 -0.1609
17361SOL    HW159323  12.492   5.516   8.142 -0.1258 -1.1023  0.9305
17361SOL    HW259324  12.473   5.665   8.164  1.1468 -0.9392  0.9771
17362SOL     OW59325   8.401   0.627   8.460  0.6193  0.0181 -0.4966
17362SOL    HW159326   8.355   0.702   8.499  1.0433  1.0708 -1.9661
17362SOL    HW259327   8.433   0.660   8.376 -1.0862 -2.4369 -2.2465
17363SOL     OW59328   8.717   4.999  11.910  0.4412  0.0596 -0.0075
17363SOL    HW159329   8.757   4.959  11.833 -1.3334  0.4831 -1.2149
17363SOL    HW259330   8.664   5.070  11.875 -0.3216  0.3390  1.6276
17364SOL     OW59331   7.058  11.276   1.136 -0.0605 -0.0152  0.0840
17364SOL    HW159332   7.035  11.274   1.229 -1.1964 -0.3149 -0.1927
17364SOL    HW259333   7.002  11.210   1.096 -0.5525  1.0363 -1.0316
17365SOL     OW59334  12.689  10.673   6.164 -0.4494  0.1650  0.5507
17365SOL    HW159335  12.660  10.586   6.140 -0.1671  0.3948 -0.6822
17365SOL    HW259336  12.684  10.724   6.083  0.0454  1.1131  1.0904
17366SOL     OW59337   4.843   1.019   9.737 -0.2185  0.3188 -0.1839
17366SOL    HW159338   4.914   1.044   9.796  0.0046  0.0869 -0.3509
17366SOL    HW259339   4.790   0.957   9.788 -2.2056  2.9028  1.1545
17367SOL     OW59340   7.816  10.038   5.598  0.5847  0.4379 -0.0833
17367SOL    HW159341   7.773  10.123   5.599  0.0280  0.1664  0.8970
17367SOL    HW259342   7.826  10.015   5.691 -2.2995 -2.0350 -0.2249
17368SOL     OW59343  11.939  11.886   8.420 -0.2022  0.1119 -0.2359
17368SOL    HW159344  11.954  11.892   8.325  1.5437 -0.2667 -0.0154
17368SOL    HW259345  11.991  11.811   8.448  0.2126  0.9064  1.2115
17369SOL     OW59346   7.724  10.440  10.146 -0.5587  0.2988 -0.6652
17369SOL    HW159347   7.698  10.521  10.190 -1.7237 -0.4780  0.1273
17369SOL    HW259348   7.675  10.442  10.064 -1.5136 -0.1503 -0.1190
17370SOL     OW59349   0.488   8.750  10.411  0.5490 -0.9467 -0.5384
17370SOL    HW159350   0.473   8.844  10.418 -0.3626 -1.1113 -0.0478
17370SOL    HW259351   0.575   8.742  10.373 -0.0863  0.1129 -2.3417
17371SOL     OW59352   4.687   5.077   5.725 -0.0199  0.0890  0.3224
17371SOL    HW159353   4.603   5.033   5.732  0.5313 -1.5502 -1.9411
17371SOL    HW259354   4.751   5.006   5.721  1.0300  1.0506 -2.2683
17372SOL     OW59355   6.327   8.656   5.681 -0.3709  0.1807  0.0068
17372SOL    HW159356   6.285   8.742   5.676 -2.0500 -0.6116  0.0237
17372SOL    HW259357   6.255   8.593   5.684  0.6419 -1.1033  3.8667
17373SOL     OW59358   5.068  12.530   2.325  0.3539 -0.0085 -0.1931
17373SOL    HW159359   5.093  12.613   2.365  3.2159 -0.0049 -1.6958
17373SOL    HW259360   5.024  12.481   2.394  2.0294  1.2869  1.9212
17374SOL     OW59361   4.965   2.881   3.287 -0.3013  0.1211 -0.0864
17374SOL    HW159362   5.045   2.838   3.256  0.9743  2.3731 -0.1457
17374SOL    HW259363   4.993   2.933   3.362 -1.5280  1.6771 -0.6605
17375SOL     OW59364   6.258   4.206  11.631  0.2946  0.1888 -0.3602
17375SOL    HW159365   6.172   4.168  11.649  1.2230 -1.6113  0.5436
17375SOL    HW259366   6.257   4.291  11.676  0.4670 -1.6585  3.4856
17376SOL     OW59367   1.000   3.463  10.881  0.4387  0.2888  0.1389
17376SOL    HW159368   0.927   3.401  10.884  0.4369  0.3253  2.0787
17376SOL    HW259369   0.987   3.519  10.958  2.6627  0.1111  0.7160
17377SOL     OW59370  10.835  11.252   8.379 -0.2119  0.4149 -0.4625
17377SOL    HW159371  10.922  11.291   8.392  0.6007 -1.1069 -1.0845
17377SOL    HW259372  10.783  11.286   8.452  0.5419  2.3097 -0.7385
17378SOL     OW59373   8.946   5.901   5.130 -0.3312  0.4311 -0.2236
17378SOL    HW159374   8.954   5.819   5.082  1.1746 -0.0218  0.7255
17378SOL    HW259375   8.923   5.966   5.064  1.3842 -0.2239 -1.5227
17379SOL     OW59376  12.027   2.320   1.786 -0.2564  0.2012  0.0724
17379SOL    HW159377  12.117   2.353   1.777 -0.1335 -0.4862 -1.3777
17379SOL    HW259378  11.978   2.366   1.719 -0.4052 -1.3710 -0.9445
17380SOL     OW59379   9.237   8.748   0.008 -0.2722  0.0327  0.3932
17380SOL    HW159380   9.301   8.718  -0.057  1.5388  2.7878  0.7049
17380SOL    HW259381   9.185   8.813  -0.038 -0.2450  0.6223  1.1744
17381SOL     OW59382   8.867   6.299  10.810  0.2722 -0.3750 -0.2299
17381SOL    HW159383   8.955   6.273  10.837  0.8065  1.3262 -0.2336
17381SOL    HW259384   8.857   6.263  10.722  1.0212 -0.4698 -0.2783
17382SOL     OW59385   1.141   8.501   5.974 -0.5637 -0.1571 -0.1315
17382SOL    HW159386   1.154   8.449   5.895  1.4258 -0.3488  0.2875
17382SOL    HW259387   1.067   8.459   6.018 -1.1510 -0.5534 -1.4534
17383SOL     OW59388   9.531   6.401   8.543  0.0923  0.5472 -0.1290
17383SOL    HW159389   9.536   6.400   8.639  0.1957 -0.1853 -0.1397
17383SOL    HW259390   9.612   6.442   8.514  1.4723 -1.9373  0.0108
17384SOL     OW59391  12.494   2.029  11.359  0.0579 -0.2640 -0.0169
17384SOL    HW159392  12.461   2.115  11.384  1.2229 -0.2097  1.5157
17384SOL    HW259393  12.578   2.047  11.317  1.2932 -0.6808  2.1092
17385SOL     OW59394   1.376   4.614   4.768 -0.3711 -0.3449 -0.4205
17385SOL    HW159395   1.400   4.637   4.678 -1.1888 -0.1549 -0.6005
17385SOL    HW259396   1.446   4.650   4.822 -0.9136  1.3913 -0.8132
17386SOL     OW59397   9.315   7.472  10.215  0.2842 -0.6135  0.0689
17386SOL    HW159398   9.356   7.558  10.204  2.8396 -1.8825 -1.2829
17386SOL    HW259399   9.267   7.458  10.134  0.4657 -0.7289 -0.0207
17387SOL     OW59400   4.878  11.346   0.703  0.4233  0.6288  0.2566
17387SOL    HW159401   4.859  11.347   0.609  0.9114 -2.6015 -0.0044
17387SOL    HW259402   4.797  11.317   0.744  0.8280 -0.1343  0.5525
17388SOL     OW59403   0.936   6.450   5.905 -0.2255 -0.5623  0.0074
17388SOL    HW159404   0.901   6.423   5.820  1.2278  0.1499 -0.8391
17388SOL    HW259405   0.870   6.420   5.968 -0.7133 -2.2658 -1.2372
17389SOL     OW59406   3.487   3.312   2.509  0.3317 -0.4397  0.3769
17389SOL    HW159407   3.496   3.407   2.500 -0.5481 -0.1809  1.9422
17389SOL    HW259408   3.538   3.277   2.436 -1.3989  1.2503 -1.8081
17390SOL     OW59409   3.616   7.358   8.962 -0.4449  0.0050 -0.3701
17390SOL    HW159410   3.551   7.371   8.892 -1.0398  0.3222  0.2269
17390SOL    HW259411   3.574   7.296   9.022 -0.3019  0.4143  0.1533
17391SOL     OW59412   0.818   9.729  10.723  0.3209 -0.2404 -0.6675
17391SOL    HW159413   0.754   9.757  10.788 -0.4120  0.9989 -1.8587
17391SOL    HW259414   0.786   9.644  10.693  1.8829 -1.9718  2.0905
17392SOL     OW59415   8.833   4.830   0.698  0.6336 -0.9042 -0.5373
17392SOL    HW159416   8.891   4.765   0.739  1.0590  0.2616  0.8157
17392SOL    HW259417   8.765   4.846   0.763  0.4294 -0.1462 -0.9231
17393SOL     OW59418   7.539  10.347   6.658  0.1866  0.3993 -0.1637
17393SOL    HW159419   7.474  10.400   6.612  0.3305  0.8075  0.1042
17393SOL    HW259420   7.487  10.275   6.695  0.0043  0.3086 -0.5852
17394SOL     OW59421   9.364  11.983  10.488 -0.0985  0.3418  0.4354
17394SOL    HW159422   9.417  12.031  10.552  0.1640 -0.4407  0.8230
17394SOL    HW259423   9.341  12.048  10.422  1.3071  0.7212  0.2864
17395SOL     OW59424   6.624   4.717   9.984  0.2174  0.0481  0.7532
17395SOL    HW159425   6.699   4.695  10.039  0.8137  1.4601  0.5234
17395SOL    HW259426   6.566   4.766  10.041 -0.2033 -0.3994  0.7198
17396SOL     OW59427   2.012   2.529   5.809  0.1322 -0.8611  0.5206
17396SOL    HW159428   1.979   2.615   5.783 -0.6913 -1.7981 -1.8123
17396SOL    HW259429   2.017   2.533   5.905 -0.3410  1.5941  0.5062
17397SOL     OW59430  10.010   7.440   3.235  0.4571  0.6801  0.0280
17397SOL    HW159431  10.015   7.533   3.213  0.0836  0.1587 -2.5896
17397SOL    HW259432   9.916   7.423   3.246  0.5501  0.6587  0.8961
17398SOL     OW59433   8.630   6.478   9.129 -0.2595 -0.5754 -0.0964
17398SOL    HW159434   8.646   6.564   9.089  1.7818 -1.3928 -1.1769
17398SOL    HW259435   8.682   6.418   9.076  1.1134 -2.0006  2.6965
17399SOL     OW59436   2.133   4.071   3.087 -0.0499  0.3648 -0.0128
17399SOL    HW159437   2.131   4.060   2.992  0.1735 -0.8663  0.1152
17399SOL    HW259438   2.043   4.056   3.115 -0.0787  0.5422 -0.0104
17400SOL     OW59439   7.334  10.246  12.287  0.3456 -0.1448 -0.3928
17400SOL    HW159440   7.247  10.244  12.329  0.5132 -0.1219 -0.0397
17400SOL    HW259441   7.315  10.248  12.193 -0.0324 -2.3009 -0.4187
17401SOL     OW59442  10.943   3.599   3.012  0.1969 -0.2882 -0.2179
17401SOL    HW159443  10.938   3.544   3.090 -1.4090  0.7824  0.4726
17401SOL    HW259444  10.915   3.542   2.940 -0.7926 -0.5722  0.3858
17402SOL     OW59445   7.711   0.788   6.879 -0.0328 -0.1172  0.0114
17402SOL    HW159446   7.633   0.738   6.858 -0.3961 -0.0912  1.2011
17402SOL    HW259447   7.679   0.861   6.933  0.7254  0.2929 -0.0732
17403SOL     OW59448   5.202   7.171   6.908  0.1336 -0.1672  0.3144
17403SOL    HW159449   5.268   7.234   6.878  0.5071 -0.1206  1.1917
17403SOL    HW259450   5.188   7.194   7.000 -0.8910 -0.3727  0.2158
17404SOL     OW59451   1.766   3.178   9.234  0.4351 -0.3153  0.0928
17404SOL    HW159452   1.687   3.218   9.272  0.7877  0.6290 -0.1676
17404SOL    HW259453   1.732   3.101   9.187 -0.0981 -1.0703  1.6431
17405SOL     OW59454   9.262   1.541   9.177  0.5224  0.1426 -0.4618
17405SOL    HW159455   9.182   1.527   9.126 -0.7033 -1.7436  1.7811
17405SOL    HW259456   9.312   1.461   9.166  1.2686  0.5939 -0.4063
17406SOL     OW59457   0.212  10.933   3.227  0.4382 -0.2463  0.2819
17406SOL    HW159458   0.206  11.017   3.273  0.5058 -0.8640  1.4604
17406SOL    HW259459   0.126  10.893   3.240  0.6999 -0.7435  0.5238
17407SOL     OW59460   7.747  10.641  12.276  0.6135  0.4995  0.1894
17407SOL    HW159461   7.779  10.656  12.366 -1.0184  1.1366  0.7024
17407SOL    HW259462   7.665  10.594  12.288  0.7255 -0.0358 -1.0297
17408SOL     OW59463  11.391   4.643   0.506 -0.0155 -0.2801 -0.3739
17408SOL    HW159464  11.373   4.595   0.586 -1.9319 -0.0499 -0.6249
17408SOL    HW259465  11.386   4.735   0.532  0.9931 -0.1916 -0.4440
17409SOL     OW59466   2.347   2.104  10.065 -0.3490 -0.1323  0.3416
17409SOL    HW159467   2.376   2.048  10.138 -0.5530  1.3253  1.6078
17409SOL    HW259468   2.281   2.052  10.019 -0.2457 -1.0799  1.2213
17410SOL     OW59469   0.934  10.846   1.310 -0.5296 -0.6578 -0.2362
17410SOL    HW159470   0.916  10.809   1.396 -1.2527 -0.2211 -0.2018
17410SOL    HW259471   1.007  10.906   1.324 -0.2187 -1.0719 -0.0537
17411SOL     OW59472  10.801   9.551   0.245  0.2139 -0.5883  0.1992
17411SOL    HW159473  10.748   9.526   0.170  0.2660 -2.2504  0.6763
17411SOL    HW259474  10.870   9.607   0.209 -0.9771  0.3944 -0.6357
17412SOL     OW59475   7.099   6.091   6.332  0.6546 -0.4415 -0.4004
17412SOL    HW159476   7.045   6.044   6.268  2.0313 -1.2104 -1.0555
17412SOL    HW259477   7.117   6.175   6.289  0.4444 -0.4026 -0.4164
17413SOL     OW59478   5.004   6.017  10.391  0.3553  0.2863  0.0989
17413SOL    HW159479   4.978   6.106  10.368 -0.2586  0.3695  1.0363
17413SOL    HW259480   4.976   6.007  10.483 -0.0264 -1.0295 -0.1344
17414SOL     OW59481   5.436   6.602  11.981 -0.1551 -0.0331 -0.0809
17414SOL    HW159482   5.363   6.622  12.041 -2.2216 -1.1660 -2.0462
17414SOL    HW259483   5.421   6.658  11.905  2.4513  1.4177  0.3585
17415SOL     OW59484   0.856   4.257   2.536 -0.1593 -0.5899 -0.4730
17415SOL    HW159485   0.824   4.182   2.587  0.6161 -1.2268 -0.9131
17415SOL    HW259486   0.877   4.220   2.450  0.4525  0.0881 -0.6149
17416SOL     OW59487   7.264   7.364   2.453  0.6308 -0.5439  0.1782
17416SOL    HW159488   7.213   7.294   2.412 -0.0257  1.0591 -1.9146
17416SOL    HW259489   7.349   7.360   2.408  1.0299 -0.7675  0.9388
17417SOL     OW59490   4.547   1.129   3.473 -0.2254  0.2110 -0.2115
17417SOL    HW159491   4.604   1.200   3.443 -1.4342  0.0521 -3.2170
17417SOL    HW259492   4.607   1.059   3.498  0.9350  1.4916  0.7347
17418SOL     OW59493   6.474  12.087   8.238  0.1533 -0.3916 -0.5438
17418SOL    HW159494   6.534  12.035   8.292  1.0715  0.4155 -0.7630
17418SOL    HW259495   6.431  12.146   8.299  1.4229  0.7422 -0.6804
17419SOL     OW59496  10.009   5.081   3.104  0.0031 -0.4042 -0.1074
17419SOL    HW159497  10.041   5.079   3.194 -0.1202  2.8026  0.1494
17419SOL    HW259498   9.924   5.123   3.110 -0.5675 -1.2565 -1.6322
17420SOL     OW59499   8.683   5.751  10.719  0.2570  0.2558  0.0873
17420SOL    HW159500   8.751   5.772  10.656  0.4681  0.7009  0.4567
17420SOL    HW259501   8.658   5.836  10.757 -0.8566  0.1615 -0.4064
17421SOL     OW59502   3.282   1.075   5.810 -0.2027  0.3395 -0.3310
17421SOL    HW159503   3.292   1.085   5.715 -0.6239 -2.5780 -0.7706
17421SOL    HW259504   3.232   0.994   5.820  2.1398 -0.9312  2.4220
17422SOL     OW59505   8.408   7.533   3.123 -0.5106  0.1261  0.3434
17422SOL    HW159506   8.441   7.564   3.039 -0.4299  0.0969  0.3645
17422SOL    HW259507   8.435   7.441   3.127 -4.8052 -1.5310 -1.8993
17423SOL     OW59508   7.895   2.207   7.105  0.3502  0.4475 -0.5030
17423SOL    HW159509   7.987   2.193   7.082  0.4175  0.1551 -0.0713
17423SOL    HW259510   7.855   2.121   7.096 -0.1161  0.7612 -1.6756
17424SOL     OW59511  10.318   5.494   9.729  0.7289 -0.2773  0.3435
17424SOL    HW159512  10.355   5.535   9.807 -0.8995  1.6701  0.1826
17424SOL    HW259513  10.314   5.401   9.751  0.8066  0.1485  2.3814
17425SOL     OW59514   5.360   2.275   5.864  0.1325 -0.2049  0.0407
17425SOL    HW159515   5.390   2.327   5.939 -1.3657  1.0740 -0.1872
17425SOL    HW259516   5.437   2.225   5.837  1.3385  1.0656  0.9688
17426SOL     OW59517   2.329   4.881  10.175  0.0959  0.7191  0.3241
17426SOL    HW159518   2.328   4.791  10.143  0.9411  0.9455 -0.3939
17426SOL    HW259519   2.420   4.896  10.203 -0.0213  1.3537  0.3989
17427SOL     OW59520   7.209   1.027   2.104 -0.5024  0.2784 -0.3715
17427SOL    HW159521   7.240   1.079   2.178 -0.8395  1.1487 -0.8240
17427SOL    HW259522   7.263   1.056   2.030 -0.6555 -0.0612 -0.6199
17428SOL     OW59523   3.445   0.077   7.243  0.1722 -0.1356  0.7597
17428SOL    HW159524   3.391  -0.001   7.257  2.0022 -1.5641  0.2129
17428SOL    HW259525   3.384   0.141   7.206 -1.2088 -1.5695  0.4235
17429SOL     OW59526   5.358   3.055  11.537 -0.2868 -0.5643 -0.1688
17429SOL    HW159527   5.339   2.964  11.562 -0.4692 -0.2570  0.8524
17429SOL    HW259528   5.379   3.098  11.619  0.9425  0.0610 -0.7946
17430SOL     OW59529   1.313   0.858   9.622 -0.0555 -0.1261 -0.4075
17430SOL    HW159530   1.378   0.790   9.606 -1.7594 -1.8450 -0.4171
17430SOL    HW259531   1.345   0.904   9.701  0.6764 -1.5368  0.1479
17431SOL     OW59532   5.265   1.207  10.713 -0.3892  0.0257 -0.5806
17431SOL    HW159533   5.338   1.152  10.688 -1.2651 -1.3832 -0.1392
17431SOL    HW259534   5.221   1.229  10.631  1.0234  1.6867 -0.9570
17432SOL     OW59535   2.287   1.481  11.882 -0.2500  0.3994 -0.1234
17432SOL    HW159536   2.248   1.521  11.804 -0.9553  0.4002  0.2236
17432SOL    HW259537   2.373   1.523  11.890 -0.3702  0.7510 -0.6261
17433SOL     OW59538   0.302   3.544   5.981  0.3855  0.6098  0.4087
17433SOL    HW159539   0.286   3.475   6.045 -0.2850 -0.3354 -0.7313
17433SOL    HW259540   0.356   3.503   5.913 -1.4944  0.6390 -1.1826
17434SOL     OW59541   8.664  10.201   4.388  0.1268 -0.5651  0.0395
17434SOL    HW159542   8.757  10.179   4.396  0.1306 -0.7079 -0.3534
17434SOL    HW259543   8.652  10.217   4.294  0.1568  1.2994  0.3179
17435SOL     OW59544   3.565   4.317   0.943  0.4488 -0.3286 -0.5611
17435SOL    HW159545   3.539   4.314   0.850  1.2825 -1.6220 -0.7913
17435SOL    HW259546   3.489   4.284   0.990  0.3797 -0.6577 -0.8956
17436SOL     OW59547   4.151  12.356   9.251 -0.0517  0.2957 -0.3055
17436SOL    HW159548   4.188  12.268   9.248  0.3978  0.4765 -0.1622
17436SOL    HW259549   4.103  12.360   9.333  0.3045  0.3296 -0.0967
17437SOL     OW59550   0.635   9.466   5.451  0.4655 -0.0411  0.0805
17437SOL    HW159551   0.720   9.502   5.425  0.3195  2.2427  2.3623
17437SOL    HW259552   0.644   9.451   5.545 -1.8470  0.9057  0.5078
17438SOL     OW59553  11.295   4.544   1.455  0.0742 -0.4668  0.3682
17438SOL    HW159554  11.328   4.528   1.543 -1.2611  1.6741  1.3404
17438SOL    HW259555  11.216   4.491   1.448 -1.0642  0.9987  1.3688
17439SOL     OW59556   0.963   2.129   8.799 -0.4750 -0.1195 -0.2395
17439SOL    HW159557   0.925   2.144   8.886  2.3746 -0.3577  1.1637
17439SOL    HW259558   0.929   2.200   8.745 -0.3899  1.5473  1.7576
17440SOL     OW59559   5.748   7.510  11.787 -0.3732 -0.4312  0.3501
17440SOL    HW159560   5.666   7.480  11.748 -0.4387  0.0683  0.0910
17440SOL    HW259561   5.744   7.606  11.778 -0.4333 -0.2966  1.6608
17441SOL     OW59562   7.059   9.100   3.178 -0.1705  0.2698 -0.3474
17441SOL    HW159563   7.120   9.131   3.110  0.6400 -2.0100 -0.7319
17441SOL    HW259564   7.096   9.131   3.260 -1.0047  2.8158 -0.8201
17442SOL     OW59565   5.414   7.933   0.473  0.1253 -0.7718 -0.1867
17442SOL    HW159566   5.392   8.021   0.504  0.0184 -1.2183  1.0517
17442SOL    HW259567   5.338   7.880   0.497  0.8766 -1.5284  0.5348
17443SOL     OW59568   2.141   0.028   7.312 -0.5325 -0.2535 -0.0547
17443SOL    HW159569   2.166   0.118   7.287  1.8976 -1.1207 -1.0626
17443SOL    HW259570   2.178   0.017   7.399  1.7248 -1.1267 -1.0490
17444SOL     OW59571   7.438   6.160   0.177 -0.1966  0.0167 -0.0618
17444SOL    HW159572   7.433   6.065   0.189  0.7843 -0.1698 -1.0576
17444SOL    HW259573   7.413   6.195   0.263 -0.7472 -1.1225  0.2723
17445SOL     OW59574   8.957   3.306   0.128 -0.1504  0.2180  0.3181
17445SOL    HW159575   8.974   3.228   0.180 -0.6809  0.2818  0.5986
17445SOL    HW259576   8.880   3.345   0.169 -0.9734 -0.0741 -0.9235
17446SOL     OW59577   8.073   2.628   8.083 -0.5129 -0.6413  0.1183
17446SOL    HW159578   8.113   2.548   8.051  0.6025  0.1577 -0.5401
17446SOL    HW259579   7.983   2.625   8.049  0.1642 -0.5807 -1.7673
17447SOL     OW59580   0.143   2.118  12.109  0.4186  0.4241  0.0050
17447SOL    HW159581   0.108   2.094  12.195 -0.0023 -0.7554 -0.4727
17447SOL    HW259582   0.072   2.168  12.068  1.1550  2.2516  0.8585
17448SOL     OW59583   0.819   1.310   3.639 -0.3437 -0.3109  0.7855
17448SOL    HW159584   0.906   1.291   3.672 -0.6669  2.6154  3.9345
17448SOL    HW259585   0.833   1.357   3.557  0.9449 -1.1051  0.5354
17449SOL     OW59586   9.010   3.818   0.486  0.0504 -0.5676  0.5241
17449SOL    HW159587   8.924   3.860   0.487 -1.6428 -3.6459 -0.5219
17449SOL    HW259588   9.038   3.817   0.577 -1.6345 -0.5779  1.0707
17450SOL     OW59589  10.491   3.763   8.294  0.2060  0.9889 -0.1469
17450SOL    HW159590  10.568   3.706   8.301  0.0772  0.7710 -0.4782
17450SOL    HW259591  10.508   3.815   8.215  1.2875  2.8708  1.2420
17451SOL     OW59592   8.264   8.465  11.739  0.1465 -0.0330  0.4583
17451SOL    HW159593   8.269   8.534  11.806 -0.3294 -0.4615  0.9452
17451SOL    HW259594   8.277   8.512  11.656  1.8054  0.3593  0.8900
17452SOL     OW59595   9.435   7.605   2.267  0.0398  0.0860 -0.4487
17452SOL    HW159596   9.379   7.681   2.254 -0.8987 -0.4008  0.6560
17452SOL    HW259597   9.502   7.613   2.199 -1.6273  0.4212 -2.1247
17453SOL     OW59598  11.237   8.385  10.372  0.0033  0.2291  0.3751
17453SOL    HW159599  11.251   8.354  10.283 -1.0950 -1.2661  0.6821
17453SOL    HW259600  11.194   8.470  10.362 -0.4063 -0.0752 -0.5180
17454SOL     OW59601  11.943   2.599  12.636  0.5962  0.4346  0.9083
17454SOL    HW159602  11.855   2.573  12.609  0.5219  1.0486  0.5519
17454SOL    HW259603  11.977   2.650  12.563  0.4871  1.9081  1.8531
17455SOL     OW59604   1.294   4.371   4.869  0.2241  0.7573  0.2990
17455SOL    HW159605   1.361   4.316   4.827  0.6539 -1.0948  3.1043
17455SOL    HW259606   1.312   4.459   4.838  2.3931 -0.0577 -0.9691
17456SOL     OW59607   3.871   1.579   9.045  0.2309 -0.3619 -0.4051
17456SOL    HW159608   3.827   1.613   8.967 -0.6518 -1.5587 -0.4506
17456SOL    HW259609   3.947   1.637   9.057 -0.9429  1.3149 -0.7366
17457SOL     OW59610   4.491   3.931   9.270  0.5447  0.1082  0.0876
17457SOL    HW159611   4.537   3.858   9.312  0.2696 -0.5619 -0.7532
17457SOL    HW259612   4.410   3.941   9.320 -0.5157 -1.6958 -1.1541
17458SOL     OW59613   9.306   0.855   0.299  0.0763 -0.3838 -0.1249
17458SOL    HW159614   9.261   0.792   0.355 -1.9285  0.1669 -1.0429
17458SOL    HW259615   9.391   0.868   0.342 -0.8926 -0.9110  2.0868
17459SOL     OW59616   3.858   2.832   3.417 -0.4025 -0.4707  0.7445
17459SOL    HW159617   3.853   2.767   3.487  1.5585 -0.6108  0.8081
17459SOL    HW259618   3.940   2.812   3.372 -0.4942  1.0468 -0.1630
17460SOL     OW59619  12.691   7.927   2.409  0.0788 -0.7933  0.0281
17460SOL    HW159620  12.639   7.849   2.388 -0.9429 -0.7534  2.1119
17460SOL    HW259621  12.627   7.995   2.427  0.9540  0.3773 -1.0740
17461SOL     OW59622   0.593   1.193  10.984  0.1842  0.1833  0.5520
17461SOL    HW159623   0.629   1.151  11.062 -0.9023  1.5333  1.8462
17461SOL    HW259624   0.515   1.142  10.963  0.6673 -0.3892  0.1219
17462SOL     OW59625   5.870   0.430   7.594 -0.1477  0.1190  0.8179
17462SOL    HW159626   5.962   0.441   7.568 -0.5628  0.2352 -0.6783
17462SOL    HW259627   5.873   0.370   7.668  1.2868  1.5218  1.9681
17463SOL     OW59628  11.897   0.899  12.105  0.0778 -0.2714 -0.1157
17463SOL    HW159629  11.888   0.927  12.196 -0.6740  0.0482 -0.2826
17463SOL    HW259630  11.981   0.936  12.077 -0.2443  0.6500  0.0929
17464SOL     OW59631   7.076   1.002   4.609  0.2676 -0.1753 -0.2660
17464SOL    HW159632   7.140   1.063   4.571 -1.6035  1.6914 -0.6445
17464SOL    HW259633   7.040   0.955   4.534  0.9043 -0.9313 -0.1003
17465SOL     OW59634   0.292  11.695   2.051  0.1375 -0.3362 -0.0549
17465SOL    HW159635   0.304  11.623   2.113 -0.7051 -0.4600 -0.0196
17465SOL    HW259636   0.333  11.665   1.970  0.7788 -0.3907  0.2808
17466SOL     OW59637   5.751   8.917   9.993 -0.2068  0.2446  0.1251
17466SOL    HW159638   5.677   8.895   9.936 -0.2576  1.8277 -0.4837
17466SOL    HW259639   5.744   8.856  10.066  0.2937 -2.3660 -1.8697
17467SOL     OW59640   4.350   2.629   3.206 -0.3928 -0.0320  0.3403
17467SOL    HW159641   4.404   2.599   3.133 -0.6627  0.4271 -0.0581
17467SOL    HW259642   4.285   2.560   3.218  0.5456 -0.7904  1.1110
17468SOL     OW59643   1.625   4.529   1.717 -0.3351 -0.1216 -0.3369
17468SOL    HW159644   1.640   4.496   1.628  1.3847 -1.4016  0.3768
17468SOL    HW259645   1.582   4.613   1.704 -1.1150 -0.7732 -2.3479
17469SOL     OW59646   8.146   8.105   1.500 -0.0421 -0.5198 -0.4491
17469SOL    HW159647   8.078   8.069   1.557 -0.7015  0.3761 -0.6504
17469SOL    HW259648   8.098   8.143   1.427  0.7363 -0.6854 -1.0522
17470SOL     OW59649   4.788   3.904   3.690  0.0293 -0.1899 -0.5630
17470SOL    HW159650   4.761   3.943   3.607  0.1949  1.3061  0.0576
17470SOL    HW259651   4.753   3.963   3.757  1.6824 -0.1772  0.3556
17471SOL     OW59652   9.508   5.894   3.521  0.0425  0.0502 -0.0214
17471SOL    HW159653   9.444   5.831   3.553  0.1616 -0.5295 -0.9108
17471SOL    HW259654   9.534   5.862   3.435 -0.0587  1.4333 -0.5999
17472SOL     OW59655  11.242   2.529   0.511 -0.4002  0.2139  0.3259
17472SOL    HW159656  11.148   2.517   0.496 -0.6968  3.2627 -1.0709
17472SOL    HW259657  11.249   2.547   0.605 -1.4783  1.4980  0.1955
17473SOL     OW59658   6.840   7.890  11.957 -0.0325  0.0551 -0.2000
17473SOL    HW159659   6.808   7.961  11.901 -1.1415 -1.5276 -1.6955
17473SOL    HW259660   6.763   7.833  11.968  0.9853 -1.2445  0.3905
17474SOL     OW59661   2.063   9.348   1.554  0.1678 -0.4251 -0.3298
17474SOL    HW159662   2.027   9.295   1.483 -1.1595  1.8441 -1.4987
17474SOL    HW259663   2.111   9.287   1.609 -0.1878 -2.5592 -2.2628
17475SOL     OW59664  10.023  12.128  10.344 -0.0525  0.0590 -0.1073
17475SOL    HW159665  10.032  12.105  10.251 -1.4091 -2.9234  0.3802
17475SOL    HW259666   9.935  12.097  10.367  1.2039 -1.7013  2.7504
17476SOL     OW59667   6.984   6.807   3.153 -0.2673 -0.2691  0.1653
17476SOL    HW159668   6.951   6.803   3.063  0.3746 -0.9933 -0.0494
17476SOL    HW259669   7.035   6.727   3.163  0.3652  0.2121  0.9022
17477SOL     OW59670   5.118  11.313   2.405 -0.7583  0.3535  0.0002
17477SOL    HW159671   5.183  11.383   2.415 -0.1212 -0.2100 -0.0861
17477SOL    HW259672   5.148  11.264   2.328 -0.4704 -0.7806  0.8215
17478SOL     OW59673   1.738   3.764   8.701 -0.1679  0.1883 -0.6458
17478SOL    HW159674   1.663   3.704   8.704 -2.1038  2.4807  0.5198
17478SOL    HW259675   1.753   3.779   8.608  0.3627 -2.0026 -0.9740
17479SOL     OW59676   2.909  11.776  12.688 -0.4275  0.4375  0.1358
17479SOL    HW159677   2.893  11.744  12.600  1.6183 -0.7199  0.1090
17479SOL    HW259678   3.004  11.786  12.693 -0.3668 -0.6431  2.5345
17480SOL     OW59679   2.675   4.374   5.939  0.8633 -0.1159 -0.1297
17480SOL    HW159680   2.696   4.318   5.865 -0.1803 -0.0002 -0.5289
17480SOL    HW259681   2.759   4.409   5.968  1.3868 -0.9332 -0.6325
17481SOL     OW59682   2.998   9.095   3.514  0.1172  0.1638 -0.5248
17481SOL    HW159683   2.923   9.112   3.572  0.1730 -0.5973 -0.2125
17481SOL    HW259684   2.979   9.009   3.476  0.3435  0.4241 -1.2262
17482SOL     OW59685   1.374   7.591   2.170  0.0588 -0.5052  0.3384
17482SOL    HW159686   1.338   7.634   2.092 -2.4900  0.7900  2.0839
17482SOL    HW259687   1.413   7.510   2.137  0.3282  0.6389 -2.4215
17483SOL     OW59688   9.250   0.627  10.611  0.1709  0.2458  0.4266
17483SOL    HW159689   9.235   0.607  10.518 -0.5580 -0.3803  0.6675
17483SOL    HW259690   9.339   0.661  10.614  0.9128 -1.5414 -0.2459
17484SOL     OW59691   0.665   6.109   2.440 -0.3223 -0.0585 -0.6456
17484SOL    HW159692   0.649   6.188   2.492 -0.5693  0.1884 -1.0900
17484SOL    HW259693   0.703   6.047   2.502 -0.0347  0.4396 -0.3125
17485SOL     OW59694   9.910   5.348   9.992 -0.5896 -0.8085  0.5496
17485SOL    HW159695   9.975   5.358  10.062 -0.1638 -0.0552  0.0552
17485SOL    HW259696   9.943   5.401   9.920 -0.7868 -1.9562 -0.4185
17486SOL     OW59697   6.509  11.714   7.617  0.1141 -0.5288  0.3398
17486SOL    HW159698   6.479  11.799   7.649  2.6631  2.0720 -3.2804
17486SOL    HW259699   6.433  11.677   7.572 -0.1197  1.7855 -1.3486
17487SOL     OW59700   2.068   1.619   6.213  0.6289 -0.3244  0.1939
17487SOL    HW159701   2.034   1.647   6.298 -1.4783 -2.1488  0.0474
17487SOL    HW259702   2.048   1.692   6.154  0.0755  0.0464  0.8183
17488SOL     OW59703   2.555   8.426   1.168  0.1313  0.5209  0.5532
17488SOL    HW159704   2.507   8.466   1.096  1.4901  1.6203  0.2333
17488SOL    HW259705   2.486   8.402   1.231 -0.8998  1.3315 -0.2244
17489SOL     OW59706  10.006   8.328   4.231 -0.0116 -0.0135  0.1473
17489SOL    HW159707   9.948   8.282   4.292 -0.1270 -0.9979 -0.6735
17489SOL    HW259708   9.976   8.419   4.233 -2.0308 -0.5958 -0.7239
17490SOL     OW59709   9.766   8.592   1.084  0.1387  0.2328 -0.2347
17490SOL    HW159710   9.812   8.600   1.001  1.7714  0.3754  0.6542
17490SOL    HW259711   9.770   8.499   1.104 -1.7070 -0.0822 -1.0632
17491SOL     OW59712   7.809   4.917   7.328 -0.2531  0.0521 -0.4014
17491SOL    HW159713   7.890   4.873   7.303 -0.0780  0.7547 -1.1125
17491SOL    HW259714   7.823   5.009   7.304 -0.1578  0.7789  2.0734
17492SOL     OW59715   3.803  12.209   2.342 -0.3176 -0.1438 -0.4334
17492SOL    HW159716   3.827  12.281   2.401  0.6688  1.0380 -2.1680
17492SOL    HW259717   3.860  12.137   2.368 -0.5158  0.0716  0.6164
17493SOL     OW59718   8.756  11.378   8.446 -0.5904 -0.2705 -0.7906
17493SOL    HW159719   8.763  11.410   8.356 -2.5435  2.0400 -0.2202
17493SOL    HW259720   8.672  11.333   8.448 -0.4231 -0.5579 -0.1732
17494SOL     OW59721   7.678   8.838   1.566  0.0400 -0.1512  0.0090
17494SOL    HW159722   7.584   8.824   1.560  0.1188 -0.1999 -1.5893
17494SOL    HW259723   7.689   8.933   1.567 -0.0132 -0.1376 -0.4104
17495SOL     OW59724   9.489   8.507   4.537 -0.2387 -0.0934 -0.3184
17495SOL    HW159725   9.519   8.538   4.452  1.6922  0.5475  0.5282
17495SOL    HW259726   9.474   8.413   4.525  0.5775 -0.1235 -1.2250
17496SOL     OW59727   2.460   2.978   0.936  0.4505 -0.3505  0.3255
17496SOL    HW159728   2.452   2.962   0.842  1.8511 -2.0303  0.4386
17496SOL    HW259729   2.514   3.057   0.943 -0.9834  0.7160 -0.2512
17497SOL     OW59730   3.513   2.324  10.684 -0.2366 -0.0454 -0.6123
17497SOL    HW159731   3.607   2.341  10.674  1.1219 -2.8086  3.9021
17497SOL    HW259732   3.499   2.240  10.639  0.6380 -1.6635  1.8921
17498SOL     OW59733  12.315  12.225   0.956 -0.0470  0.1142 -0.0268
17498SOL    HW159734  12.402  12.257   0.931  0.6438 -1.8267 -0.2556
17498SOL    HW259735  12.289  12.167   0.885 -1.8277  1.0716 -0.2346
17499SOL     OW59736   3.416   6.475   6.605  0.1569  0.6138 -0.2137
17499SOL    HW159737   3.430   6.432   6.520 -0.3188 -1.3074  0.6260
17499SOL    HW259738   3.417   6.569   6.585  1.3931  0.2454 -2.1202
17500SOL     OW59739   2.873   1.897   3.069  0.6668  0.9242  0.4268
17500SOL    HW159740   2.923   1.825   3.029 -1.8287 -0.2162 -0.8859
17500SOL    HW259741   2.902   1.975   3.022  0.6978  0.1699 -0.8902
17501SOL     OW59742   6.598   9.744   4.685  0.0000  0.0233  0.3960
17501SOL    HW159743   6.618   9.818   4.629  0.3421 -1.0069 -0.9015
17501SOL    HW259744   6.504   9.730   4.674  0.1097 -0.3257 -0.1201
17502SOL     OW59745   8.823   9.378   0.380 -0.2306  0.6322  0.2783
17502SOL    HW159746   8.864   9.311   0.434  0.8666  0.6506 -0.5076
17502SOL    HW259747   8.742   9.337   0.349  1.2339 -1.0550 -1.6145
17503SOL     OW59748  11.691   3.246   8.576  0.8021 -0.1406  0.5765
17503SOL    HW159749  11.775   3.282   8.605 -0.0565  2.2065  0.3570
17503SOL    HW259750  11.627   3.312   8.603 -0.7978 -1.1764 -0.5679
17504SOL     OW59751   8.540   2.997   9.960 -0.2765 -0.1297  0.3495
17504SOL    HW159752   8.593   3.076   9.948 -1.3556  0.9234  2.0751
17504SOL    HW259753   8.598   2.925   9.936  0.5758  1.1775 -1.8057
17505SOL     OW59754  11.330   8.188   5.176 -0.0105 -0.1832  0.3990
17505SOL    HW159755  11.419   8.158   5.191 -0.5281 -1.9457  0.1816
17505SOL    HW259756  11.335   8.283   5.179  1.4142 -0.2701  2.9497
17506SOL     OW59757   2.414   6.574   1.500  0.3788  0.3823 -0.2096
17506SOL    HW159758   2.431   6.665   1.477 -1.0626  0.3760 -1.4206
17506SOL    HW259759   2.325   6.557   1.468  0.0932 -1.0521  1.2231
17507SOL     OW59760   7.033   0.576   5.200  0.2147  0.1766 -0.5786
17507SOL    HW159761   6.992   0.568   5.286 -0.7933 -0.6924 -1.1163
17507SOL    HW259762   7.118   0.532   5.210  0.6620  1.2188  0.3079
17508SOL     OW59763   8.406  10.837   8.191 -0.1236 -0.3837  0.3733
17508SOL    HW159764   8.429  10.870   8.278  1.2072  2.7232 -0.9747
17508SOL    HW259765   8.472  10.769   8.173  1.6433  1.1483  0.6667
17509SOL     OW59766  12.097   8.323   7.494 -0.1018  0.0556  0.0620
17509SOL    HW159767  12.078   8.260   7.425 -0.9700 -1.0335  1.2585
17509SOL    HW259768  12.027   8.388   7.488 -0.4965 -0.3474  0.2670
17510SOL     OW59769  12.239   6.094   0.770  0.2182 -0.5380  0.1678
17510SOL    HW159770  12.178   6.094   0.697 -0.8235 -1.3759  1.0064
17510SOL    HW259771  12.267   6.002   0.777  1.0708 -0.2827  0.2079
17511SOL     OW59772   1.597   0.208  10.342 -0.7631 -0.5195  0.2824
17511SOL    HW159773   1.528   0.142  10.352  1.5312 -3.2824 -0.9459
17511SOL    HW259774   1.602   0.224  10.248 -0.5725  0.6734  0.4784
17512SOL     OW59775   1.718   9.130  10.080 -0.0393 -0.3696 -0.1776
17512SOL    HW159776   1.757   9.090  10.003 -1.0710 -1.6654 -0.0611
17512SOL    HW259777   1.739   9.070  10.152 -1.5562 -0.7155  0.0134
17513SOL     OW59778  11.338   7.482   1.098  0.4186 -0.2294 -0.5660
17513SOL    HW159779  11.371   7.462   1.010  0.9399  0.0255 -0.4291
17513SOL    HW259780  11.296   7.568   1.089  0.7825 -0.0416 -0.4892
17514SOL     OW59781   6.742  12.359   2.064  0.3150 -0.6078  0.4648
17514SOL    HW159782   6.669  12.353   2.126 -0.8973 -0.0511 -0.8433
17514SOL    HW259783   6.804  12.419   2.105 -1.0156  0.7167  0.6451
17515SOL     OW59784  10.955   4.439   3.393 -0.0887  0.1726  0.2642
17515SOL    HW159785  10.975   4.530   3.371 -0.1711  0.0803 -0.1910
17515SOL    HW259786  10.864   4.441   3.421 -0.3573  0.0946 -0.5712
17516SOL     OW59787   1.049   1.667   0.638  0.3182 -0.0577  0.4654
17516SOL    HW159788   1.075   1.618   0.716 -0.3892 -0.9654  0.1489
17516SOL    HW259789   1.129   1.712   0.610  0.7166 -0.1716  1.3809
17517SOL     OW59790   3.219   6.879   2.924  0.7978  0.0046 -0.0440
17517SOL    HW159791   3.153   6.903   2.859  1.3948  0.9113 -0.3238
17517SOL    HW259792   3.289   6.943   2.913  2.5618 -1.9661 -0.9696
17518SOL     OW59793   2.400   8.327   1.973  0.5931  0.4075  0.3549
17518SOL    HW159794   2.493   8.306   1.970  0.5436  0.2327 -0.2459
17518SOL    HW259795   2.358   8.245   1.997  0.4727  0.0329 -1.0532
17519SOL     OW59796  12.272   2.658   4.211 -0.8820  0.4543  0.1972
17519SOL    HW159797  12.180   2.645   4.237 -1.6986  2.4805 -1.4277
17519SOL    HW259798  12.309   2.712   4.281 -0.5464 -1.2238  1.4010
17520SOL     OW59799   3.809   7.516   5.744 -0.2602 -0.4057  0.4434
17520SOL    HW159800   3.732   7.483   5.790 -0.7814  0.3118  0.1036
17520SOL    HW259801   3.793   7.496   5.652  0.5670 -1.4154  0.4992
17521SOL     OW59802   1.170  11.926   3.133  0.0084  0.5073 -0.0200
17521SOL    HW159803   1.243  11.965   3.085  0.0132  0.1124 -0.3353
17521SOL    HW259804   1.208  11.851   3.178 -0.0547  0.7143  0.3845
17522SOL     OW59805   5.076   5.335   9.008 -0.7261 -0.5929 -0.2069
17522SOL    HW159806   5.087   5.262   9.068 -0.6111 -0.3201  0.1067
17522SOL    HW259807   5.006   5.388   9.046 -0.3896 -0.2163 -0.1103
17523SOL     OW59808   4.436   8.111  10.010 -0.3433  0.3978  0.2283
17523SOL    HW159809   4.348   8.115  10.049 -0.2672  0.8386  0.3580
17523SOL    HW259810   4.437   8.028   9.963 -0.6594  0.1555  0.6356
17524SOL     OW59811   8.978   3.316   5.001 -0.1090  0.2893 -0.5090
17524SOL    HW159812   9.053   3.283   5.051  0.0071 -0.9964 -1.4711
17524SOL    HW259813   8.991   3.280   4.913 -2.8301 -1.6434 -0.2426
17525SOL     OW59814   3.066   2.032   1.581  0.5081  0.6413 -0.2278
17525SOL    HW159815   3.072   1.946   1.622 -0.9666  0.6778  0.1143
17525SOL    HW259816   3.157   2.057   1.565  1.0571 -0.1374  1.4231
17526SOL     OW59817   9.376   7.770   6.326 -0.2378 -0.0639  0.1695
17526SOL    HW159818   9.445   7.755   6.390 -0.2477 -0.4799  0.0869
17526SOL    HW259819   9.418   7.757   6.241 -0.7860 -1.9986  0.1515
17527SOL     OW59820   9.673   2.557   8.631 -0.3688 -0.0208  0.2023
17527SOL    HW159821   9.648   2.648   8.618 -0.4037 -0.2285 -1.3234
17527SOL    HW259822   9.760   2.549   8.593 -0.4470 -0.6713  0.1396
17528SOL     OW59823  11.834   6.420   9.943  0.0484  0.1154 -0.1675
17528SOL    HW159824  11.759   6.437   9.885  0.1588 -0.3606 -0.4650
17528SOL    HW259825  11.905   6.472   9.907 -0.0209  0.2183 -0.1546
17529SOL     OW59826   6.907   2.990   6.433 -0.1419  0.2476 -0.3985
17529SOL    HW159827   6.992   3.023   6.404 -0.3788  1.8736  0.6298
17529SOL    HW259828   6.917   2.976   6.527 -0.7606 -0.3719 -0.4162
17530SOL     OW59829  11.842  11.944   0.728 -0.1468 -0.0009  0.1711
17530SOL    HW159830  11.774  11.915   0.789  0.6710 -0.8208  0.7190
17530SOL    HW259831  11.888  11.863   0.704  0.3532  0.4843 -0.5361
17531SOL     OW59832   3.530   5.649   5.590 -0.6278  0.3823 -0.2316
17531SOL    HW159833   3.565   5.690   5.670  2.1893  1.7548 -2.0014
17531SOL    HW259834   3.529   5.555   5.610  0.4649  0.6479  1.2547
17532SOL     OW59835   6.520   0.167   6.899 -0.4409  0.5874 -0.1683
17532SOL    HW159836   6.597   0.111   6.908 -1.5500 -0.9458  0.1767
17532SOL    HW259837   6.547   0.235   6.837  0.9034 -0.4130 -0.7326
17533SOL     OW59838   9.320   8.527  11.384  0.3088 -0.5665  0.5274
17533SOL    HW159839   9.355   8.569  11.463  0.1827  0.1271  0.2197
17533SOL    HW259840   9.315   8.597  11.320 -1.2957 -0.7181  0.4480
17534SOL     OW59841  10.706  10.860   9.875 -0.1953  0.4544  0.3177
17534SOL    HW159842  10.680  10.857   9.967 -1.7726 -0.3805 -0.1255
17534SOL    HW259843  10.728  10.952   9.860 -1.9314  1.0144  1.0178
17535SOL     OW59844   0.576   3.412   0.962  0.1298 -0.0460  0.3509
17535SOL    HW159845   0.595   3.392   0.870 -2.3570 -1.4350  0.0662
17535SOL    HW259846   0.508   3.479   0.959  1.0619  1.0040  1.2568
17536SOL     OW59847   1.955   0.868   4.908 -0.1125 -0.0449 -0.0258
17536SOL    HW159848   1.989   0.946   4.864 -1.5635  0.5366 -0.1493
17536SOL    HW259849   1.974   0.883   5.000 -0.1969  0.3631 -0.0711
17537SOL     OW59850   9.654   4.123   4.614 -0.2291 -0.3441 -0.1448
17537SOL    HW159851   9.652   4.121   4.710 -0.1462 -0.5484 -0.1483
17537SOL    HW259852   9.713   4.052   4.589 -1.1868 -1.0729 -0.3824
17538SOL     OW59853   7.207  11.446   2.103 -0.1347  0.7160 -0.0672
17538SOL    HW159854   7.280  11.477   2.156  2.0902  0.2520 -2.6379
17538SOL    HW259855   7.157  11.525   2.084  0.1620  1.1928  1.0479
17539SOL     OW59856   0.188   0.545   1.658 -0.1241  0.4005 -0.1696
17539SOL    HW159857   0.189   0.453   1.630  0.2452  0.3128  0.1269
17539SOL    HW259858   0.229   0.592   1.585  1.8203  0.0469  0.6152
17540SOL     OW59859   9.998   8.840   6.728  0.0352 -0.4663 -0.0684
17540SOL    HW159860   9.940   8.767   6.748 -1.1593 -0.1865 -2.2111
17540SOL    HW259861   9.991   8.897   6.804 -2.8309 -0.2853 -0.3524
17541SOL     OW59862   0.731   7.041   6.854  0.0151 -0.0576 -0.4565
17541SOL    HW159863   0.785   7.030   6.933  0.8873  1.1317 -0.8688
17541SOL    HW259864   0.794   7.046   6.782 -0.6018  1.6617 -0.9218
17542SOL     OW59865  12.174   6.422   0.346  0.1615 -0.1125  0.3236
17542SOL    HW159866  12.202   6.484   0.280  0.0778  0.8736  1.1810
17542SOL    HW259867  12.161   6.340   0.299  1.5140  0.1878 -0.6048
17543SOL     OW59868   9.856   3.938   5.787  0.6057 -0.5456 -0.1741
17543SOL    HW159869   9.860   3.944   5.883  0.2332  0.5940 -0.2180
17543SOL    HW259870   9.926   3.996   5.757 -0.8075  1.0127 -0.6043
17544SOL     OW59871   4.526   4.817   3.913 -0.1544  0.0903  0.7555
17544SOL    HW159872   4.476   4.849   3.988 -0.1964  1.4226  0.1750
17544SOL    HW259873   4.472   4.839   3.837  0.6794  0.2993  0.2161
17545SOL     OW59874  11.862  10.144   5.952  0.0488 -0.1869 -0.1726
17545SOL    HW159875  11.822  10.077   5.896 -0.8480 -0.0040  0.2377
17545SOL    HW259876  11.810  10.223   5.935  1.0045  0.3753 -0.5431
17546SOL     OW59877   9.931   8.942   5.664 -0.0131 -0.1137  0.1077
17546SOL    HW159878   9.878   8.892   5.602  1.6336  1.0504 -2.3802
17546SOL    HW259879   9.993   8.878   5.699  0.4022 -0.4097 -1.0994
17547SOL     OW59880   7.848   0.989   9.554 -0.0840  0.0050  0.1008
17547SOL    HW159881   7.820   0.899   9.574 -1.9376  0.5306  0.1236
17547SOL    HW259882   7.942   0.983   9.542 -0.2513 -2.0888 -0.6281
17548SOL     OW59883   2.494   4.811   8.566 -0.1021  0.1738 -0.3800
17548SOL    HW159884   2.413   4.852   8.597 -0.9434 -1.9488  0.4258
17548SOL    HW259885   2.509   4.738   8.627  1.2777 -0.7196 -1.7140
17549SOL     OW59886   2.559   3.042   6.339  1.1035 -0.2487  0.2306
17549SOL    HW159887   2.529   2.958   6.302 -0.0174  0.2580 -0.0552
17549SOL    HW259888   2.482   3.078   6.383  0.5456  2.1660 -2.4410
17550SOL     OW59889   2.003   1.340   4.099 -0.0927 -0.3592 -0.2225
17550SOL    HW159890   1.958   1.415   4.136 -0.1839  0.2185 -1.4618
17550SOL    HW259891   1.978   1.339   4.006  0.7296 -1.2997 -0.4624
17551SOL     OW59892  12.064   5.630   3.798  0.8925  0.2277 -0.4225
17551SOL    HW159893  11.998   5.657   3.863  2.3952  2.6186  0.2587
17551SOL    HW259894  12.084   5.539   3.820  0.5216  0.6170  1.7929
17552SOL     OW59895  12.644   8.078   1.724  0.6107  0.3984 -0.1619
17552SOL    HW159896  12.612   8.090   1.813  1.2598 -1.0889  0.3116
17552SOL    HW259897  12.662   8.166   1.692  0.2184  0.9583  1.1126
17553SOL     OW59898   8.903   6.672   9.039 -0.6784 -0.3436  0.2212
17553SOL    HW159899   8.948   6.756   9.032 -0.5534 -0.4883 -0.8807
17553SOL    HW259900   8.885   6.662   9.133 -2.6350  1.9067  0.1644
17554SOL     OW59901   3.043  10.760  10.148 -0.0390  0.2059  0.1667
17554SOL    HW159902   3.059  10.852  10.127 -1.3902  0.4494  0.1302
17554SOL    HW259903   2.968  10.736  10.095  0.2588 -0.9067  0.2319
17555SOL     OW59904   5.831  12.381  11.171  0.4312 -0.7402  0.3225
17555SOL    HW159905   5.847  12.342  11.256 -0.9819  0.3830  1.1591
17555SOL    HW259906   5.830  12.308  11.110 -0.3985 -1.7958  1.5600
17556SOL     OW59907   8.284  10.682   4.084  0.3175 -0.1513 -0.2937
17556SOL    HW159908   8.364  10.671   4.135 -0.4646  0.8206  1.2088
17556SOL    HW259909   8.213  10.663   4.147 -0.6487 -0.3517 -1.4105
17557SOL     OW59910  10.777   0.508   2.536  0.2641  0.0134 -0.2568
17557SOL    HW159911  10.728   0.583   2.502 -0.0585  0.1962  0.5807
17557SOL    HW259912  10.713   0.456   2.584  0.5935 -0.5255 -0.3876
17558SOL     OW59913   0.123   1.114  10.232 -0.3258  0.4369 -0.0578
17558SOL    HW159914   0.114   1.025  10.197 -0.6374  0.2605  0.4507
17558SOL    HW259915   0.216   1.123  10.251 -0.3991 -0.0597  0.5809
17559SOL     OW59916  12.186   1.991   7.389 -0.5877  0.4785 -0.1022
17559SOL    HW159917  12.251   2.032   7.332  0.3764  0.9122  1.2396
17559SOL    HW259918  12.168   2.058   7.456 -1.5154 -0.0820  0.2216
17560SOL     OW59919   9.711   4.389   6.901 -0.0551  0.7953 -0.4549
17560SOL    HW159920   9.776   4.328   6.936  0.3592  1.6274  0.2763
17560SOL    HW259921   9.662   4.418   6.978 -0.6768  0.8930 -0.8800
17561SOL     OW59922  12.132   3.011   2.844  0.2118  0.0362 -0.0612
17561SOL    HW159923  12.046   3.000   2.882 -0.8208  0.1405 -2.1960
17561SOL    HW259924  12.149   2.928   2.798  1.6492 -0.3140  1.0084
17562SOL     OW59925   6.601   8.732   4.423  0.5794 -0.2807 -0.3766
17562SOL    HW159926   6.532   8.678   4.385 -1.5923  1.2178  1.1995
17562SOL    HW259927   6.632   8.682   4.499 -0.9186  0.3236  0.6619
17563SOL     OW59928   2.341   6.392   0.334  0.1502  0.0490  0.8125
17563SOL    HW159929   2.273   6.353   0.278  0.1778 -1.5479  1.8460
17563SOL    HW259930   2.305   6.478   0.358 -2.3975 -1.4309  2.7907
17564SOL     OW59931  10.939   5.001   5.287 -0.0597  0.2591  0.5261
17564SOL    HW159932  10.994   4.935   5.330  0.4116  0.5173  0.3211
17564SOL    HW259933  10.932   4.971   5.196  1.4799  1.3240  0.0343
17565SOL     OW59934   2.892   8.789   1.491 -0.2542 -0.1223  0.3589
17565SOL    HW159935   2.874   8.695   1.488 -1.8976  0.1772 -1.3333
17565SOL    HW259936   2.973   8.799   1.442  1.2298 -0.8544  2.5521
17566SOL     OW59937  11.060  12.315   3.949  0.4038 -0.2144  1.2822
17566SOL    HW159938  11.124  12.325   4.020  2.0897  1.8108 -0.3847
17566SOL    HW259939  11.010  12.396   3.951 -0.6051 -0.8216  1.1325
17567SOL     OW59940   1.008   0.799   3.750  0.7772  0.0620 -0.3442
17567SOL    HW159941   1.029   0.794   3.843 -1.3025 -1.4271  0.1249
17567SOL    HW259942   1.075   0.746   3.707  2.0006  1.0959  0.2166
17568SOL     OW59943   5.201   5.244   0.158 -0.4359  0.1717 -0.4885
17568SOL    HW159944   5.279   5.224   0.106 -0.8163 -0.6823 -0.7443
17568SOL    HW259945   5.221   5.328   0.199  0.6815 -0.1050 -0.4302
17569SOL     OW59946   6.847  10.190  11.805  0.2307  0.0486 -0.8338
17569SOL    HW159947   6.819  10.230  11.723  0.2511  0.4947 -0.6246
17569SOL    HW259948   6.928  10.236  11.828 -0.5437  0.9249  0.1793
17570SOL     OW59949   0.237   4.829  10.847  0.4950 -0.1379 -0.2242
17570SOL    HW159950   0.258   4.914  10.807  0.7251 -0.3323 -0.5124
17570SOL    HW259951   0.316   4.777  10.837  0.0683 -0.6823 -0.8138
17571SOL     OW59952   9.834   3.179   3.583 -0.3068  0.0426  0.2139
17571SOL    HW159953   9.807   3.102   3.533 -0.9401  0.6227 -0.3657
17571SOL    HW259954   9.761   3.196   3.642  0.2469 -0.3683  1.0404
17572SOL     OW59955   2.716   5.420   9.300 -0.4596  0.5316  0.3128
17572SOL    HW159956   2.732   5.337   9.256  0.1383 -0.6436  2.5848
17572SOL    HW259957   2.636   5.453   9.261  0.1041 -0.3483 -1.6901
17573SOL     OW59958   4.939   3.363   8.915 -0.4248 -0.9181  0.0620
17573SOL    HW159959   5.005   3.296   8.928  0.7139 -0.0136 -0.9036
17573SOL    HW259960   4.895   3.339   8.834  0.7091  0.0445 -0.8708
17574SOL     OW59961   0.327   3.497   1.736 -0.1459  0.5466 -0.0948
17574SOL    HW159962   0.244   3.544   1.748 -0.8292 -0.9408  1.4928
17574SOL    HW259963   0.394   3.557   1.769 -0.6765  1.4406 -0.6170
17575SOL     OW59964  12.589   5.772  10.836 -0.4116  0.0423  0.2978
17575SOL    HW159965  12.574   5.682  10.805  0.0069 -0.0491  0.3532
17575SOL    HW259966  12.679   5.771  10.870 -0.5311  0.3928  0.6247
17576SOL     OW59967   2.965   4.701  12.540  0.5849 -0.0500 -0.1879
17576SOL    HW159968   3.048   4.653  12.534  0.8730  0.2563  0.9827
17576SOL    HW259969   2.949   4.733  12.452  0.9242 -1.4124 -0.7637
17577SOL     OW59970   6.016   6.599   4.426 -0.7413 -0.0743  0.4409
17577SOL    HW159971   6.076   6.524   4.423 -1.1553 -0.3943 -1.5937
17577SOL    HW259972   5.931   6.562   4.402 -0.8056  1.1307 -1.4414
17578SOL     OW59973   4.181  10.912   0.516 -0.4744 -0.6027  0.0526
17578SOL    HW159974   4.203  10.864   0.596  0.9042 -1.6590 -0.8907
17578SOL    HW259975   4.100  10.958   0.537 -0.1621 -0.8468  2.0385
17579SOL     OW59976   9.957   9.901  10.831  0.2567  0.3156  0.6688
17579SOL    HW159977  10.002   9.921  10.913 -2.2986  0.7710  2.0829
17579SOL    HW259978   9.889   9.969  10.824 -0.8356 -0.8505 -0.8003
17580SOL     OW59979   2.272   6.913  10.174  0.2403  0.4795  0.4422
17580SOL    HW159980   2.268   6.868  10.259  0.0824  0.3404  0.3605
17580SOL    HW259981   2.181   6.916  10.144  0.0769  1.8670  0.9806
17581SOL     OW59982   2.962   6.872  11.252 -0.2594  0.0081  0.3051
17581SOL    HW159983   3.007   6.788  11.247 -0.1515  0.0571  0.4412
17581SOL    HW259984   2.965   6.906  11.162 -1.6055 -0.7959 -0.0732
17582SOL     OW59985   6.248   8.683  11.330 -0.2324 -0.1160  0.3002
17582SOL    HW159986   6.260   8.588  11.331  0.9105 -0.0003  2.5291
17582SOL    HW259987   6.313   8.714  11.266  0.8240 -0.7185  1.0349
17583SOL     OW59988  12.673   3.557   4.304 -0.0758  0.3072  0.2676
17583SOL    HW159989  12.768   3.555   4.317 -0.3002 -1.2888  2.2085
17583SOL    HW259990  12.661   3.531   4.213  1.3394  0.3963  0.0257
17584SOL     OW59991  12.342   4.713   8.287  1.1166 -0.4083  0.8115
17584SOL    HW159992  12.298   4.760   8.357 -0.0193  0.5141 -0.4686
17584SOL    HW259993  12.430   4.696   8.320  1.8047  3.1080  1.1573
17585SOL     OW59994   1.696   8.730   9.308  0.1196  0.5716 -0.5016
17585SOL    HW159995   1.671   8.817   9.340  1.7829  1.3490 -1.1645
17585SOL    HW259996   1.669   8.730   9.216 -2.1769 -0.6258  0.1006
17586SOL     OW59997   8.060   4.784   3.237 -0.6814  0.2960 -0.3842
17586SOL    HW159998   8.103   4.832   3.166  0.7800 -0.9524 -0.3970
17586SOL    HW259999   8.090   4.694   3.227 -1.3988 -0.1490  1.1115
17587SOL     OW60000   4.805  10.096  12.237  0.1233 -0.2817  0.0116
17587SOL    HW160001   4.881  10.086  12.179  0.6085  0.0133  0.5909
17587SOL    HW260002   4.836  10.150  12.309 -0.2817 -1.2230  0.9122
17588SOL     OW60003   4.742   3.319  12.133 -0.7003  0.1506 -0.2188
17588SOL    HW160004   4.663   3.268  12.119 -1.9647  2.3296 -1.6102
17588SOL    HW260005   4.719   3.380  12.204 -0.4605  1.1007 -0.9392
17589SOL     OW60006   1.994   6.212   2.002  0.2700  0.1986 -0.1473
17589SOL    HW160007   1.968   6.266   2.076 -1.5069 -0.3766 -0.2990
17589SOL    HW260008   1.941   6.243   1.929  0.7832 -0.3338 -0.7657
17590SOL     OW60009   4.062   1.272   6.281  0.6269 -0.5654 -0.1372
17590SOL    HW160010   4.045   1.179   6.297 -0.9722 -0.0933  1.1419
17590SOL    HW260011   3.993   1.318   6.329  0.2249  1.2405 -2.2703
17591SOL     OW60012   6.133  12.527  10.256 -0.1381  0.0046 -0.4181
17591SOL    HW160013   6.046  12.515  10.294 -0.5771 -0.5674 -1.5562
17591SOL    HW260014   6.171  12.439  10.253  0.1515  0.1342 -0.6735
17592SOL     OW60015   2.230   0.375   6.771  0.2386  0.2103 -0.1725
17592SOL    HW160016   2.140   0.350   6.795  0.2334  0.7231  0.3529
17592SOL    HW260017   2.262   0.424   6.846  0.9002  0.1912 -0.4377
17593SOL     OW60018   9.876   0.899   9.851 -0.1121  0.0982 -0.3660
17593SOL    HW160019   9.790   0.902   9.810 -1.5829 -1.3553  2.3441
17593SOL    HW260020   9.887   0.985   9.892 -0.7786 -0.0666  0.1735
17594SOL     OW60021  10.995   4.707   7.975  0.4871 -0.0105  0.1886
17594SOL    HW160022  11.044   4.633   8.013  1.1303 -0.6714 -1.7724
17594SOL    HW260023  11.020   4.706   7.883 -0.9973  1.4978 -0.2681
17595SOL     OW60024  11.707   0.168   6.478  0.1489 -0.0238  0.1327
17595SOL    HW160025  11.738   0.215   6.400 -0.6278  0.7011  0.2483
17595SOL    HW260026  11.675   0.084   6.444 -3.3535  1.5548 -0.9067
17596SOL     OW60027  11.593   7.020  10.483 -0.0264  0.6033 -0.1652
17596SOL    HW160028  11.641   7.052  10.406  0.0185  0.3412 -0.2472
17596SOL    HW260029  11.633   6.935  10.502  0.2717  0.8683  0.4220
17597SOL     OW60030   5.619   5.390   8.221  0.2583  0.0274  0.1675
17597SOL    HW160031   5.630   5.319   8.284  1.6101 -0.3490 -0.4631
17597SOL    HW260032   5.612   5.347   8.136  0.1311  0.6018 -0.1217
17598SOL     OW60033   1.013  12.086   5.367 -0.4967  0.3153  0.0077
17598SOL    HW160034   1.107  12.083   5.351 -0.5148  0.1436 -0.0737
17598SOL    HW260035   1.001  12.160   5.426 -0.1515 -0.4399  1.0620
17599SOL     OW60036   6.636   6.960  11.382  0.5389  0.1771 -0.1109
17599SOL    HW160037   6.728   6.967  11.355  0.6645 -1.0719 -0.0621
17599SOL    HW260038   6.597   6.900  11.319 -0.0288 -0.0031  0.4033
17600SOL     OW60039   7.958   3.471   0.006  0.6302  0.5161  0.1407
17600SOL    HW160040   7.908   3.544   0.042  2.3413  0.8897  1.9537
17600SOL    HW260041   8.000   3.431   0.082  1.0867 -1.3128 -1.0174
17601SOL     OW60042   3.154   2.882   4.269  0.2530 -0.5671 -0.4878
17601SOL    HW160043   3.156   2.788   4.249  0.7583 -0.4505 -1.0092
17601SOL    HW260044   3.236   2.916   4.234 -0.5886  0.3449 -1.6852
17602SOL     OW60045   8.548  11.795  11.756  0.6943  0.2979 -0.7508
17602SOL    HW160046   8.625  11.773  11.705  0.7445 -1.8997  0.1513
17602SOL    HW260047   8.496  11.715  11.758  0.0876  0.6598  1.5285
17603SOL     OW60048   3.235  10.021   0.665  0.2327 -0.7071  0.3273
17603SOL    HW160049   3.280  10.012   0.749  0.1727  0.5260  0.5105
17603SOL    HW260050   3.143  10.008   0.686 -0.2093  2.7443  1.1171
17604SOL     OW60051  12.011   6.642   7.521  0.1118  0.0584 -0.0955
17604SOL    HW160052  11.953   6.699   7.571  1.5393  0.8166  0.7863
17604SOL    HW260053  12.041   6.577   7.585  1.2145  0.4647 -0.1780
17605SOL     OW60054   7.822   6.233   8.072  0.7491  0.0872 -0.3626
17605SOL    HW160055   7.869   6.219   7.990  1.2573  0.2072 -0.0969
17605SOL    HW260056   7.781   6.148   8.091 -1.2471  0.6417 -1.8788
17606SOL     OW60057   0.690   8.848   4.888 -0.1634  0.3791 -0.4992
17606SOL    HW160058   0.668   8.902   4.811  2.4582 -0.0975 -1.7086
17606SOL    HW260059   0.614   8.790   4.899 -1.3416  1.6213 -1.6270
17607SOL     OW60060  10.784  11.529   8.295 -0.0676 -0.4389 -0.2600
17607SOL    HW160061  10.757  11.451   8.343  0.1197 -0.3271  0.0293
17607SOL    HW260062  10.782  11.600   8.359  0.2095 -0.2943 -0.4071
17608SOL     OW60063  12.121   0.422   4.243  0.8622 -0.7622  0.1140
17608SOL    HW160064  12.136   0.329   4.230  0.7467 -0.8591  0.6307
17608SOL    HW260065  12.203   0.464   4.215  1.2178 -1.0883  0.6301
17609SOL     OW60066   4.556   6.216   2.714 -0.0430 -0.2569 -0.2934
17609SOL    HW160067   4.489   6.149   2.724  0.5555 -0.8256 -0.0234
17609SOL    HW260068   4.533   6.261   2.633 -1.5352  0.4752  0.5022
17610SOL     OW60069   5.687   9.454  11.389  0.9122  0.2252 -0.2859
17610SOL    HW160070   5.733   9.522  11.438  1.8867  0.2831 -1.2179
17610SOL    HW260071   5.614   9.428  11.445  2.0992  0.1186  1.2945
17611SOL     OW60072   7.420   0.939   2.715 -0.4670 -0.1083  0.4649
17611SOL    HW160073   7.422   0.849   2.683  0.6104 -0.0772  0.4312
17611SOL    HW260074   7.363   0.935   2.792 -0.6609 -0.7594  0.2932
17612SOL     OW60075   3.147  10.582   3.284 -0.0579  0.4972  0.3148
17612SOL    HW160076   3.116  10.530   3.359 -0.1491  1.0419  0.6587
17612SOL    HW260077   3.093  10.552   3.211  0.2619 -0.2794  0.3894
17613SOL     OW60078   9.987   0.108   9.609 -0.1154  0.1511 -0.0705
17613SOL    HW160079   9.927   0.164   9.657  0.5675  1.3700 -0.5819
17613SOL    HW260080  10.074   0.134   9.640  0.2272 -0.4169 -0.5282
17614SOL     OW60081   3.460   9.623   2.740 -0.5626  0.8221  0.3216
17614SOL    HW160082   3.505   9.549   2.700  0.5485  1.6874 -0.0784
17614SOL    HW260083   3.376   9.587   2.769  0.4186 -0.8987  1.2406
17615SOL     OW60084   9.944   0.387  10.685 -0.1018 -0.4112  0.7419
17615SOL    HW160085   9.945   0.451  10.756 -1.8276 -0.6036  0.9844
17615SOL    HW260086   9.854   0.354  10.684  0.2475 -1.4030 -0.6547
17616SOL     OW60087   3.222   1.525   2.333 -0.5182  0.3756  0.3058
17616SOL    HW160088   3.152   1.585   2.307 -0.2895  1.1478  1.4202
17616SOL    HW260089   3.233   1.540   2.427  0.4164 -0.5032  0.3509
17617SOL     OW60090   0.775   4.488   6.306 -0.7755  0.0442 -0.2045
17617SOL    HW160091   0.685   4.520   6.316 -0.2502  3.5270 -4.0503
17617SOL    HW260092   0.787   4.479   6.212  2.2832 -2.7226  0.2885
17618SOL     OW60093  12.570   4.282   5.380 -0.0165 -0.0310 -0.1007
17618SOL    HW160094  12.647   4.238   5.345  0.7993 -0.0789  1.6591
17618SOL    HW260095  12.545   4.344   5.311  1.7729  0.1982 -0.6028
17619SOL     OW60096  11.636   8.229   4.827  0.5465  0.5199 -0.1606
17619SOL    HW160097  11.610   8.307   4.876 -0.2787 -0.3334  0.8118
17619SOL    HW260098  11.563   8.168   4.839  1.2720 -0.4883 -0.7175
17620SOL     OW60099   2.059   3.559   2.426 -0.2004 -0.0094  0.6379
17620SOL    HW160100   1.974   3.523   2.398 -0.2569  0.7917 -0.3032
17620SOL    HW260101   2.051   3.567   2.521 -1.5024  0.7607  0.5057
17621SOL     OW60102  10.664   4.031   5.140 -0.5625 -0.1853  0.2220
17621SOL    HW160103  10.746   3.983   5.133 -1.0454 -0.8770 -1.3532
17621SOL    HW260104  10.601   3.966   5.171 -0.5115  0.3647  1.5124
17622SOL     OW60105   4.016   9.681   1.395  0.1112  0.8339  0.0412
17622SOL    HW160106   4.035   9.740   1.468  0.5224  1.4681 -0.5694
17622SOL    HW260107   3.952   9.729   1.341  0.5224  0.7732 -0.5117
17623SOL     OW60108   3.176  10.266   8.731 -0.5203  0.4069 -0.6716
17623SOL    HW160109   3.164  10.248   8.638 -1.0510  1.9294 -0.9190
17623SOL    HW260110   3.263  10.231   8.751 -0.0722  0.7526 -1.9159
17624SOL     OW60111  10.688  11.321   7.239 -0.0090 -0.5023 -0.6808
17624SOL    HW160112  10.756  11.282   7.184 -0.6492 -1.9255 -0.5095
17624SOL    HW260113  10.642  11.381   7.181  0.3194 -0.8089 -1.2701
17625SOL     OW60114  11.769  12.254  12.144 -0.4042 -0.2008 -0.2687
17625SOL    HW160115  11.864  12.242  12.140 -0.4096 -0.4782  0.3729
17625SOL    HW260116  11.752  12.333  12.093  0.0350 -0.8474 -1.4543
17626SOL     OW60117  10.080  10.071   1.195  0.2757  0.0659  0.1464
17626SOL    HW160118  10.053  10.138   1.258 -0.9116  1.7699 -2.0193
17626SOL    HW260119  10.010  10.006   1.199 -0.2179  0.5754  0.0239
17627SOL     OW60120  10.296  10.798   1.534  0.1005 -0.4773  0.3455
17627SOL    HW160121  10.330  10.886   1.549 -0.2123 -0.2885 -0.0374
17627SOL    HW260122  10.253  10.774   1.616 -0.6705  0.1198  0.1276
17628SOL     OW60123   0.114   1.616   8.437 -0.1281  0.2122 -0.1186
17628SOL    HW160124   0.135   1.552   8.369 -0.9421  0.8749 -1.0352
17628SOL    HW260125   0.019   1.630   8.428  0.0734  1.7167 -0.1233
17629SOL     OW60126   7.045   2.347   1.564  0.1997 -0.0434  0.6845
17629SOL    HW160127   7.032   2.276   1.501 -0.7060 -0.1205  0.9394
17629SOL    HW260128   6.978   2.411   1.541  0.7864  0.5738  0.6785
17630SOL     OW60129   0.713   6.610   4.341 -0.0577  0.4088  0.0093
17630SOL    HW160130   0.631   6.654   4.315 -0.9363  0.9857  3.2590
17630SOL    HW260131   0.685   6.526   4.376  1.0582 -0.4402 -1.0654
17631SOL     OW60132   8.806   3.853  12.053 -0.4320 -0.3707  0.3792
17631SOL    HW160133   8.744   3.897  11.995 -0.0831 -0.7880 -0.3170
17631SOL    HW260134   8.876   3.917  12.066  0.2169 -0.8028 -0.8646
17632SOL     OW60135   7.938   3.898   2.543 -0.1469 -0.0855 -0.2403
17632SOL    HW160136   7.925   3.805   2.561  0.5383 -0.2877 -0.7701
17632SOL    HW260137   7.963   3.902   2.451  0.8442  0.5256  0.0329
17633SOL     OW60138  11.805   8.974   5.557 -0.4709  0.9363 -0.1317
17633SOL    HW160139  11.817   9.016   5.643 -0.4360  1.7735 -0.5297
17633SOL    HW260140  11.796   9.048   5.496 -0.4557  0.3501 -0.8519
17634SOL     OW60141   9.804   1.987  11.779  0.7699 -0.0220  0.2519
17634SOL    HW160142   9.733   2.051  11.773 -0.6180 -1.5302 -0.0155
17634SOL    HW260143   9.812   1.969  11.873 -0.6890 -1.4057  0.1427
17635SOL     OW60144   7.493   3.577   1.275 -0.2892 -0.5115 -0.9152
17635SOL    HW160145   7.465   3.489   1.301 -1.5529  0.2705  0.5614
17635SOL    HW260146   7.575   3.591   1.322 -1.7781  0.3035  1.6181
17636SOL     OW60147  11.968   1.998   1.047  0.3492  0.1446  0.2194
17636SOL    HW160148  11.919   2.049   0.983  0.6746  0.4444  0.2003
17636SOL    HW260149  12.007   1.927   0.997 -1.1744 -0.9154  0.4712
17637SOL     OW60150   7.072   2.531  11.795 -0.4381 -0.3039  0.0404
17637SOL    HW160151   7.046   2.622  11.800 -2.4796 -0.9010  1.4337
17637SOL    HW260152   7.089   2.504  11.885  0.2524 -1.2962 -0.3516
17638SOL     OW60153   7.279   9.275   2.239  0.1714  0.4693  0.1694
17638SOL    HW160154   7.228   9.340   2.288  1.3678  1.3322  0.3356
17638SOL    HW260155   7.368   9.284   2.273  0.3790 -1.2839  0.1851
17639SOL     OW60156   0.191   8.890  10.317  0.2925 -0.0609  0.6970
17639SOL    HW160157   0.278   8.922  10.340  0.6470 -0.0901 -0.5447
17639SOL    HW260158   0.153   8.960  10.263  0.0500 -0.5800  0.1790
17640SOL     OW60159   2.620   3.322   1.395  0.1569  0.0612 -0.5567
17640SOL    HW160160   2.631   3.232   1.423 -3.4951  0.0033  1.2410
17640SOL    HW260161   2.550   3.320   1.330 -0.0174  1.5642 -0.4730
17641SOL     OW60162   0.709   0.714   0.512  0.3258 -0.2809 -0.0907
17641SOL    HW160163   0.721   0.754   0.598  0.4512 -1.2807  0.3716
17641SOL    HW260164   0.749   0.627   0.520  1.9730  0.2451 -1.6833
17642SOL     OW60165   6.249   4.059   3.458  0.4499  0.0322 -0.2247
17642SOL    HW160166   6.293   3.990   3.407 -0.1139  1.6933 -3.1709
17642SOL    HW260167   6.156   4.044   3.442  0.3356  1.8535 -1.5946
17643SOL     OW60168   2.509   3.330   1.019 -0.2735 -0.1556 -0.2641
17643SOL    HW160169   2.604   3.344   1.023 -0.5876  2.4062 -0.0937
17643SOL    HW260170   2.491   3.267   1.088  1.2655 -0.5146 -0.1545
17644SOL     OW60171   4.241   3.616   5.404 -0.0955 -0.5806 -0.2873
17644SOL    HW160172   4.244   3.617   5.309 -0.8210  1.5033 -0.3264
17644SOL    HW260173   4.223   3.707   5.429  1.4477 -0.7812  1.8870
17645SOL     OW60174   5.768   9.755   9.820  0.4862  0.1282 -0.0963
17645SOL    HW160175   5.799   9.785   9.734 -0.0163 -1.3288 -0.8296
17645SOL    HW260176   5.691   9.702   9.800  0.3857 -0.2750  1.2584
17646SOL     OW60177   4.097   1.712  11.976 -0.0083 -0.0975  0.0011
17646SOL    HW160178   4.017   1.713  12.029 -1.6495  1.3697 -2.3263
17646SOL    HW260179   4.158   1.768  12.024 -1.5220  1.4247  0.2393
17647SOL     OW60180   8.193   8.849   6.391 -0.4256  0.4563 -0.2861
17647SOL    HW160181   8.238   8.870   6.309  0.6408  0.5260  0.3011
17647SOL    HW260182   8.189   8.753   6.393  0.8752  0.3821  0.2407
17648SOL     OW60183  11.872   3.769   8.901 -0.2185  0.0837 -0.3020
17648SOL    HW160184  11.849   3.775   8.808 -0.3680 -0.5805 -0.3093
17648SOL    HW260185  11.906   3.856   8.922  1.8126 -0.3343 -1.5266
17649SOL     OW60186   7.539   1.720   7.531 -0.7615  0.1295  0.6658
17649SOL    HW160187   7.571   1.652   7.471 -1.0573  0.6414 -0.0901
17649SOL    HW260188   7.553   1.802   7.483 -1.0793  0.5423  1.2718
17650SOL     OW60189   2.220   1.068   0.021  0.3656 -0.0713 -0.5454
17650SOL    HW160190   2.129   1.048   0.043  0.8849 -1.5488  0.3986
17650SOL    HW260191   2.230   1.160   0.048 -0.3402 -0.4415  1.1413
17651SOL     OW60192   7.527   2.887   7.453  0.7912  0.2251  0.1753
17651SOL    HW160193   7.464   2.895   7.524 -0.5481  0.8099 -1.0304
17651SOL    HW260194   7.490   2.939   7.382  2.1631 -0.2096 -0.9086
17652SOL     OW60195   6.584   1.016   8.634  0.3474 -0.2976  0.1839
17652SOL    HW160196   6.637   0.990   8.709 -1.7384  1.0802  2.2603
17652SOL    HW260197   6.623   1.099   8.605  0.3816 -0.1639  0.5980
17653SOL     OW60198  10.039   1.748   1.721 -0.2567  0.0850 -0.0519
17653SOL    HW160199  10.007   1.820   1.775 -1.4392 -0.4351 -0.0018
17653SOL    HW260200   9.964   1.688   1.716  0.7559 -1.2370  0.0897
17654SOL     OW60201   5.824  11.809   9.687 -0.2964 -0.5841 -0.2287
17654SOL    HW160202   5.913  11.807   9.724 -0.1919 -0.9712 -0.5029
17654SOL    HW260203   5.807  11.902   9.672  0.2658 -0.5464 -0.6625
17655SOL     OW60204  10.832  11.301   8.114  0.1854 -0.7677 -0.1255
17655SOL    HW160205  10.799  11.257   8.193 -0.3742  0.2339  0.2225
17655SOL    HW260206  10.830  11.394   8.136 -0.0722 -0.4661 -1.3551
17656SOL     OW60207   5.746   9.003   1.287 -0.0245  0.4007  0.0011
17656SOL    HW160208   5.669   8.953   1.262 -0.2014  0.5350  0.2732
17656SOL    HW260209   5.715   9.092   1.300 -0.1927  0.1068  1.8794
17657SOL     OW60210   5.207   3.034   1.043  0.2188 -0.3448  0.4727
17657SOL    HW160211   5.261   3.095   1.092 -0.6961  0.5600  0.3865
17657SOL    HW260212   5.117   3.067   1.053 -0.2126 -1.2683 -0.1603
17658SOL     OW60213   4.391   0.493   0.256  0.1011 -0.3340 -0.1694
17658SOL    HW160214   4.353   0.562   0.202  1.2346 -0.6655 -1.4564
17658SOL    HW260215   4.325   0.424   0.258 -1.5478  1.1706  2.1019
17659SOL     OW60216   6.611   3.326  10.604  0.1117 -0.2324  0.7565
17659SOL    HW160217   6.573   3.271  10.672  1.2250 -1.1061  0.7030
17659SOL    HW260218   6.699   3.291  10.592  0.8947  1.6159  0.7716
17660SOL     OW60219   1.334  10.156  12.664  0.1694 -0.0560  0.5117
17660SOL    HW160220   1.271  10.100  12.620 -2.3701  1.8561  1.4633
17660SOL    HW260221   1.303  10.245  12.648  2.3409  0.9707  1.5179
17661SOL     OW60222   7.124  10.627   6.552 -0.2066 -0.6505 -0.2929
17661SOL    HW160223   7.046  10.661   6.596 -1.1612 -0.4388 -2.0701
17661SOL    HW260224   7.090  10.569   6.484  1.2035 -0.7208 -0.9762
17662SOL     OW60225   7.042   6.201   1.314 -0.2713 -0.2503 -0.2875
17662SOL    HW160226   7.052   6.117   1.269  0.5094  0.4185 -1.4265
17662SOL    HW260227   7.094   6.262   1.262 -0.0127  0.7459  1.0776
17663SOL     OW60228   5.349   2.087   6.374 -0.3010  0.3301 -0.1212
17663SOL    HW160229   5.294   2.038   6.435 -0.4383 -0.3685 -0.8044
17663SOL    HW260230   5.433   2.040   6.375 -0.8357 -0.7078 -1.7544
17664SOL     OW60231  11.229   9.347   4.250  0.5016 -0.2483 -0.3167
17664SOL    HW160232  11.190   9.282   4.191  0.4060 -1.0860  0.6520
17664SOL    HW260233  11.165   9.418   4.254  0.3024 -0.3925 -0.8518
17665SOL     OW60234   2.557  11.577   0.609 -0.2599 -0.0372 -0.7933
17665SOL    HW160235   2.572  11.642   0.677 -1.5510  2.1227 -2.4491
17665SOL    HW260236   2.631  11.587   0.549 -0.3226 -0.3199 -0.9233
17666SOL     OW60237  12.058   5.702   5.332  0.6695 -0.0087  0.4790
17666SOL    HW160238  11.998   5.733   5.264  1.0723  1.8060  0.8991
17666SOL    HW260239  12.085   5.615   5.302 -0.4464  0.0572 -0.8241
17667SOL     OW60240  11.449  11.829   2.582 -0.3566  0.3254  0.4011
17667SOL    HW160241  11.385  11.887   2.540  0.0901  1.6759  1.5315
17667SOL    HW260242  11.397  11.779   2.645 -0.9179 -1.2670 -1.2445
17668SOL     OW60243   3.749   4.922  11.923  0.7012 -0.4058 -0.8604
17668SOL    HW160244   3.675   4.864  11.936 -0.1035  0.4981 -1.2985
17668SOL    HW260245   3.806   4.905  11.998  0.0636 -1.1161 -0.5249
17669SOL     OW60246  11.436   5.546   8.524  0.1634  0.1298  0.2679
17669SOL    HW160247  11.462   5.633   8.495  0.3014  1.0619  2.9219
17669SOL    HW260248  11.510   5.490   8.500  0.0074  0.6441 -1.6161
17670SOL     OW60249   8.185   6.894  10.243 -0.8235 -0.5223 -0.1903
17670SOL    HW160250   8.157   6.982  10.220  0.5272 -0.3928 -1.5102
17670SOL    HW260251   8.271   6.906  10.284 -0.8278 -1.1773  0.0173
17671SOL     OW60252   3.026   0.303   7.493 -0.1546 -0.2266  0.0308
17671SOL    HW160253   3.019   0.219   7.448  0.1787 -0.9911  1.3489
17671SOL    HW260254   3.023   0.368   7.423  0.6002 -1.3733 -1.1142
17672SOL     OW60255  12.354  10.505  10.745 -0.6481  0.1035 -0.0185
17672SOL    HW160256  12.363  10.595  10.777 -3.1621  0.7694 -0.9564
17672SOL    HW260257  12.372  10.511  10.651  1.1836 -0.8175  0.2201
17673SOL     OW60258   6.109   2.908  12.677  0.0957  0.0570 -0.1079
17673SOL    HW160259   6.164   2.965  12.731  0.9523 -0.5413 -0.3278
17673SOL    HW260260   6.134   2.929  12.587  0.0104 -0.2582 -0.2073
17674SOL     OW60261  11.515   9.902  10.107 -0.3487  0.2407  0.2891
17674SOL    HW160262  11.578   9.919  10.037 -0.0768  0.5624  0.6095
17674SOL    HW260263  11.494   9.809  10.098 -0.5029  0.3342 -0.3687
17675SOL     OW60264   1.028  10.973  12.343  0.0971  0.0054  0.0250
17675SOL    HW160265   1.097  11.011  12.289  0.0935 -0.5669 -0.3871
17675SOL    HW260266   1.072  10.949  12.425  0.3565 -0.2214 -0.1794
17676SOL     OW60267   3.259   6.050   6.388  0.4317 -0.3062  0.1404
17676SOL    HW160268   3.190   6.006   6.338  0.8688 -0.7749 -0.0575
17676SOL    HW260269   3.248   6.019   6.478  0.2531 -0.2092  0.1537
17677SOL     OW60270   0.743   2.343  10.571 -0.0448  0.0944 -0.2921
17677SOL    HW160271   0.748   2.286  10.494 -1.1157  1.5134 -1.4506
17677SOL    HW260272   0.828   2.388  10.573  0.4419 -0.8091  0.0794
17678SOL     OW60273   6.654  12.057   1.087  0.1743 -0.2537  0.0328
17678SOL    HW160274   6.707  12.122   1.040 -0.3879 -0.1701 -0.4923
17678SOL    HW260275   6.684  11.973   1.053  0.0201 -0.2105 -0.2059
17679SOL     OW60276   4.052   8.523   8.172 -0.3950 -0.4824  0.1160
17679SOL    HW160277   4.026   8.506   8.081  1.7414 -2.4237 -0.2139
17679SOL    HW260278   4.106   8.601   8.168  2.1423 -2.1789 -0.8481
17680SOL     OW60279   5.700   0.029   9.018  0.1739  0.0613  0.1678
17680SOL    HW160280   5.754   0.069   8.950  0.1084 -0.2891 -0.0971
17680SOL    HW260281   5.631   0.092   9.034 -1.4930 -1.0072 -2.1585
17681SOL     OW60282   2.045  11.950   7.429 -0.4844  0.1709 -0.5477
17681SOL    HW160283   2.088  11.995   7.502 -0.2198  0.2608 -0.7589
17681SOL    HW260284   1.971  12.006   7.406  0.2167  0.8477 -1.2395
17682SOL     OW60285   8.715   6.426   8.185 -0.2524 -0.1150  0.0489
17682SOL    HW160286   8.713   6.331   8.198 -2.4531 -0.0978  0.2727
17682SOL    HW260287   8.797   6.443   8.139  0.6179 -1.9954  0.8135
17683SOL     OW60288   2.375   5.789   5.239  0.1558  0.1197  0.4167
17683SOL    HW160289   2.357   5.858   5.175 -0.3146  0.1154  0.5406
17683SOL    HW260290   2.288   5.758   5.265  0.3358  0.3487  1.3010
17684SOL     OW60291   4.764  10.732   5.684 -0.3385  0.3873 -0.6427
17684SOL    HW160292   4.837  10.707   5.627  0.3891 -1.5181  0.9950
17684SOL    HW260293   4.704  10.657   5.681 -0.1155  0.0699  1.2771
17685SOL     OW60294   6.216   1.243   6.968 -0.4019  0.1705 -0.2078
17685SOL    HW160295   6.215   1.181   7.041  1.7728  0.1116 -0.1588
17685SOL    HW260296   6.234   1.188   6.891 -1.1286  0.4309 -0.5753
17686SOL     OW60297   0.749   4.794   0.225 -0.5044  0.2734  0.0804
17686SOL    HW160298   0.710   4.850   0.291  0.8670 -0.3729  1.5043
17686SOL    HW260299   0.676   4.769   0.168 -1.7693  0.6999  1.4631
17687SOL     OW60300   5.817  10.900   3.147 -0.3115  0.1507  0.3545
17687SOL    HW160301   5.792  10.845   3.222 -2.1691 -0.4616 -0.6514
17687SOL    HW260302   5.754  10.972   3.148 -1.2576 -0.5915 -1.3682
17688SOL     OW60303   1.589   9.186   4.605 -0.0858 -0.1712 -0.1923
17688SOL    HW160304   1.525   9.238   4.653  0.5874  0.2099  0.3191
17688SOL    HW260305   1.673   9.229   4.622  0.6724 -2.0152  1.1575
17689SOL     OW60306  12.187  11.122   6.356  0.3302 -0.1388  0.0667
17689SOL    HW160307  12.099  11.124   6.318 -0.3318  1.3656  1.5659
17689SOL    HW260308  12.198  11.032   6.386 -1.9720  0.2974  2.5783
17690SOL     OW60309   2.738   3.588   1.381  0.3334 -0.5721 -0.3101
17690SOL    HW160310   2.702   3.501   1.398  1.0340 -1.1083 -1.4635
17690SOL    HW260311   2.770   3.618   1.467  0.4971 -1.6445  0.0148
17691SOL     OW60312   7.581   4.466   6.877  0.0249  0.1767 -0.1489
17691SOL    HW160313   7.530   4.388   6.856  0.1334  0.2050 -0.5320
17691SOL    HW260314   7.595   4.462   6.972 -1.4990  0.6653  0.1138
17692SOL     OW60315   2.572   0.125   8.266 -0.3421  0.1415  0.1159
17692SOL    HW160316   2.531   0.209   8.249  0.0149  0.6659  1.6949
17692SOL    HW260317   2.664   0.145   8.280 -0.1981 -0.5521  0.2320
17693SOL     OW60318   8.292   4.007   4.365 -0.0311 -0.2579  0.2145
17693SOL    HW160319   8.315   3.947   4.437  0.4269  0.3204  0.5547
17693SOL    HW260320   8.373   4.016   4.315 -0.4468 -0.9618 -0.6176
17694SOL     OW60321   7.833   2.628   7.884  0.3392 -0.5023 -0.6118
17694SOL    HW160322   7.843   2.549   7.832  0.6601  0.6826 -2.4413
17694SOL    HW260323   7.742   2.626   7.915  0.3612 -1.5836 -0.5766
17695SOL     OW60324   8.541  10.717   3.336 -0.7188  0.2611  0.1080
17695SOL    HW160325   8.577  10.691   3.421  0.7373 -0.5999 -0.7322
17695SOL    HW260326   8.614  10.759   3.291 -2.0366  2.6328  0.0282
17696SOL     OW60327   6.047   7.719   5.370 -0.3762 -0.1213  0.4326
17696SOL    HW160328   6.037   7.686   5.281 -0.0850 -0.4434  0.5133
17696SOL    HW260329   6.137   7.752   5.373 -0.5747  0.4161  0.4394
17697SOL     OW60330   5.181   5.156   5.551  0.5111 -0.3844 -0.1617
17697SOL    HW160331   5.251   5.119   5.605  2.1238 -0.6884 -2.3354
17697SOL    HW260332   5.149   5.083   5.499 -0.1988  0.1394 -0.4805
17698SOL     OW60333   1.543   9.045   1.046 -0.6892 -0.3518  0.1783
17698SOL    HW160334   1.623   9.012   1.087 -0.4425  0.1882  0.1344
17698SOL    HW260335   1.538   9.137   1.074 -0.7159 -0.0822 -0.7045
17699SOL     OW60336  10.321   6.634  11.093  0.3078 -0.4065  0.1432
17699SOL    HW160337  10.383   6.581  11.143  0.9552 -0.9253 -1.1828
17699SOL    HW260338  10.271   6.571  11.042 -0.0392  0.1514 -0.2127
17700SOL     OW60339   2.839   5.251   9.497 -0.6280 -0.6486 -0.1429
17700SOL    HW160340   2.851   5.338   9.458  1.6626 -0.6992  0.3265
17700SOL    HW260341   2.763   5.215   9.452  0.6883  0.0700 -3.2073
17701SOL     OW60342   5.495   0.340   9.532 -0.0541 -0.7998 -0.2706
17701SOL    HW160343   5.409   0.367   9.565  0.8034 -0.9035  2.2446
17701SOL    HW260344   5.503   0.385   9.447 -2.2172 -0.1412 -0.1877
17702SOL     OW60345   9.836   1.513   9.730 -0.1916  0.1497 -0.7252
17702SOL    HW160346   9.898   1.456   9.775 -1.4432 -1.3757 -0.8468
17702SOL    HW260347   9.890   1.571   9.677  1.1147 -1.6926 -1.5117
17703SOL     OW60348   5.440   7.312   2.154 -0.4127 -0.1964  0.0694
17703SOL    HW160349   5.525   7.356   2.160  0.7891 -2.4729  1.1673
17703SOL    HW260350   5.388   7.350   2.224  0.7600 -0.7799  1.3047
17704SOL     OW60351   6.889   9.756   7.599  0.1550 -0.2933  0.0943
17704SOL    HW160352   6.841   9.829   7.559 -0.7210 -1.2325 -0.6168
17704SOL    HW260353   6.935   9.715   7.526  0.7436 -0.3905  0.5131
17705SOL     OW60354   5.899   8.900  10.957 -0.5100 -0.0095 -0.2120
17705SOL    HW160355   5.909   8.940  10.870  1.8108  0.9122  0.3953
17705SOL    HW260356   5.951   8.820  10.953  0.3717  0.5050  0.5765
17706SOL     OW60357   7.880   7.012   6.180 -0.2137  0.0876 -0.7398
17706SOL    HW160358   7.852   6.985   6.092  0.8749 -1.0153 -0.7679
17706SOL    HW260359   7.799   7.036   6.224 -0.9222 -0.5749 -1.6383
17707SOL     OW60360  11.909  12.626   3.861 -0.5615  0.0617 -0.5954
17707SOL    HW160361  11.863  12.624   3.944  0.3103 -1.0895 -0.1041
17707SOL    HW260362  11.849  12.584   3.799 -1.0794  0.6228 -0.4809
17708SOL     OW60363   1.391   5.567   7.532 -0.5563 -0.2582  0.1945
17708SOL    HW160364   1.370   5.514   7.455  0.5442 -0.0804 -0.2551
17708SOL    HW260365   1.366   5.656   7.509 -1.0174 -0.3417  0.3717
17709SOL     OW60366  10.765  12.388   9.435  0.1855  0.0193 -0.0346
17709SOL    HW160367  10.779  12.395   9.341  1.4649  1.4118  0.1993
17709SOL    HW260368  10.829  12.323   9.464 -1.9833 -2.4501 -0.3857
17710SOL     OW60369  12.195   9.673   1.633  0.1654 -0.5828  0.3958
17710SOL    HW160370  12.274   9.651   1.683  0.1021 -1.2305  0.2144
17710SOL    HW260371  12.157   9.589   1.609  0.1807 -0.2818 -0.7309
17711SOL     OW60372   6.449   8.231  12.656 -0.1880 -0.8778 -0.1946
17711SOL    HW160373   6.521   8.282  12.620 -0.9116  2.5491  2.5801
17711SOL    HW260374   6.374   8.253  12.601 -0.1035 -0.4215 -0.1333
17712SOL     OW60375   5.888   1.694   8.623  0.7624 -0.1249 -0.4112
17712SOL    HW160376   5.793   1.693   8.609  0.7249  1.4457 -0.4340
17712SOL    HW260377   5.899   1.673   8.716  0.3583  0.1665 -0.2962
17713SOL     OW60378  12.598   4.208   0.652  0.0800 -0.2838 -0.4686
17713SOL    HW160379  12.572   4.278   0.711 -0.9422 -1.6951  0.8253
17713SOL    HW260380  12.693   4.199   0.665  0.1279  0.4531 -0.2514
17714SOL     OW60381   8.215   9.890   4.175 -0.2652 -0.6621  0.2272
17714SOL    HW160382   8.269   9.910   4.251  0.3084  0.8438 -0.5393
17714SOL    HW260383   8.140   9.949   4.182  0.8549  1.0391 -1.4507
17715SOL     OW60384   2.278   6.726  10.442  0.5407 -0.2221 -0.0271
17715SOL    HW160385   2.348   6.782  10.476 -1.3003  2.3898 -0.1759
17715SOL    HW260386   2.287   6.643  10.489  1.7060  1.1957  2.4285
17716SOL     OW60387   5.435   2.768   2.124 -0.3020  0.2241 -0.5264
17716SOL    HW160388   5.353   2.788   2.078 -1.1872 -0.5693  0.6259
17716SOL    HW260389   5.443   2.837   2.190  0.1599  0.5205 -0.8976
17717SOL     OW60390   6.545   7.027  10.688 -0.8284  0.0354 -0.3818
17717SOL    HW160391   6.622   6.997  10.736 -0.0078  0.5841 -1.3137
17717SOL    HW260392   6.528   6.959  10.624  0.0731  0.7790 -1.4485
17718SOL     OW60393   1.941   9.988   0.680  0.4007  0.0667  0.4995
17718SOL    HW160394   1.893   9.924   0.628  1.5046 -0.6904  0.3796
17718SOL    HW260395   1.916   9.970   0.771  2.8598 -2.5259  0.7890
17719SOL     OW60396   3.152   4.183   2.277 -0.4540  0.3140  0.0775
17719SOL    HW160397   3.238   4.186   2.233  0.4230 -1.0417  1.5804
17719SOL    HW260398   3.111   4.103   2.243 -0.1787 -0.2110  0.9325
17720SOL     OW60399   0.511   1.922  12.130  0.9872 -0.4528 -0.1429
17720SOL    HW160400   0.509   1.994  12.066 -1.6185 -1.0892 -0.9209
17720SOL    HW260401   0.466   1.957  12.207  2.1631 -0.4083  0.5480
17721SOL     OW60402   2.796   4.000   7.531 -0.3620 -0.0620  0.3726
17721SOL    HW160403   2.856   3.936   7.569  1.4198 -0.1182 -2.2463
17721SOL    HW260404   2.713   3.954   7.525  0.6043 -1.7963 -0.4503
17722SOL     OW60405   5.840   8.267   9.019  0.4070  0.3043  0.4370
17722SOL    HW160406   5.833   8.311   8.934 -0.8121  0.7117  0.7382
17722SOL    HW260407   5.799   8.327   9.081  0.7168 -0.2740  1.2227
17723SOL     OW60408   8.691   2.478   5.388  0.1800 -0.0628  0.2975
17723SOL    HW160409   8.605   2.449   5.419  0.4188  0.3977  1.4478
17723SOL    HW260410   8.672   2.541   5.319 -0.3850 -0.5992 -0.0504
17724SOL     OW60411   8.635   7.059   4.812 -0.1736 -0.2103  0.5267
17724SOL    HW160412   8.600   7.137   4.768  0.2654  0.3143  1.0990
17724SOL    HW260413   8.687   7.015   4.745 -1.8188 -0.9536 -0.3218
17725SOL     OW60414  10.793   1.123  11.211 -0.1248  0.1975  0.2952
17725SOL    HW160415  10.749   1.038  11.202  1.8811 -1.0673  1.5266
17725SOL    HW260416  10.842   1.133  11.130  0.0402 -0.0891  0.3566
17726SOL     OW60417   1.418   2.861   5.473  0.0169  0.1043 -0.8214
17726SOL    HW160418   1.376   2.898   5.395 -0.9225 -0.8604 -0.8020
17726SOL    HW260419   1.349   2.812   5.517  0.3503  1.1922  1.0275
17727SOL     OW60420   6.357   6.549  11.755  0.7395 -0.2746 -0.0705
17727SOL    HW160421   6.350   6.505  11.839 -0.1467 -1.0178 -0.5163
17727SOL    HW260422   6.361   6.642  11.776  1.9936 -0.5164  0.8527
17728SOL     OW60423   3.580   4.943  10.800  0.4862 -0.0048  0.3330
17728SOL    HW160424   3.656   4.905  10.844  0.0248 -2.0217 -0.5398
17728SOL    HW260425   3.566   4.889  10.723  0.4791  2.6586 -1.6810
17729SOL     OW60426   5.138   8.098   0.479 -0.2041 -0.2416 -1.0935
17729SOL    HW160427   5.143   8.101   0.383 -0.2495 -0.7511 -1.1151
17729SOL    HW260428   5.217   8.144   0.509  0.2985 -0.9039 -1.3821
17730SOL     OW60429   0.180  12.276   8.160 -0.0063 -0.4441  0.3942
17730SOL    HW160430   0.103  12.317   8.121  1.7839  1.3067 -1.5662
17730SOL    HW260431   0.211  12.215   8.094  1.9286  1.0881 -0.2434
17731SOL     OW60432  10.301  10.695   3.216  0.1743  0.0420 -0.2579
17731SOL    HW160433  10.213  10.668   3.189  0.4325 -2.7735  1.3198
17731SOL    HW260434  10.354  10.686   3.137 -0.8427  1.4417 -1.1391
17732SOL     OW60435   2.962   4.111   4.524 -0.3147 -0.4010 -0.3556
17732SOL    HW160436   2.869   4.134   4.516 -0.0387  0.6372 -0.8534
17732SOL    HW260437   2.988   4.148   4.608  0.3940  2.2786 -1.6313
17733SOL     OW60438   3.601   6.881   6.275 -0.1043  0.5916  0.0316
17733SOL    HW160439   3.507   6.878   6.291 -0.7308  1.2001 -3.0701
17733SOL    HW260440   3.631   6.957   6.325 -1.2529  0.4901  0.9241
17734SOL     OW60441   0.838   6.857  10.708 -0.6004 -0.1553 -0.1698
17734SOL    HW160442   0.906   6.835  10.644 -1.9979 -0.8463 -1.4805
17734SOL    HW260443   0.886   6.898  10.780  1.2995 -1.3635 -0.6656
17735SOL     OW60444   5.923   4.685   2.694  0.6885 -0.3260  0.5579
17735SOL    HW160445   5.835   4.713   2.672  0.2479 -2.2467 -0.3772
17735SOL    HW260446   5.936   4.712   2.785 -1.0628 -0.4721  0.8688
17736SOL     OW60447   2.891   4.710   1.607 -0.0909  0.6046 -0.6598
17736SOL    HW160448   2.959   4.778   1.605 -1.9085  2.7268  1.9870
17736SOL    HW260449   2.840   4.730   1.685 -1.7956 -2.8914 -0.6833
17737SOL     OW60450   0.317   9.167   4.773 -0.5598 -1.0039 -0.3905
17737SOL    HW160451   0.269   9.201   4.698  0.0137  0.2917 -0.1950
17737SOL    HW260452   0.263   9.095   4.806 -1.8408 -0.2409 -0.7919
17738SOL     OW60453  11.058   2.411   3.539  0.4383  0.3304  0.1185
17738SOL    HW160454  11.081   2.447   3.625 -1.6363  1.3344  0.3029
17738SOL    HW260455  10.963   2.402   3.541  0.4990 -1.2968 -1.4663
17739SOL     OW60456   7.215   5.598   1.230 -0.3241 -0.7798  0.4473
17739SOL    HW160457   7.148   5.643   1.281 -0.1083  0.0032  0.0592
17739SOL    HW260458   7.298   5.634   1.261 -0.0783 -1.7006  0.8825
17740SOL     OW60459   9.964  11.648   9.309  0.3736  0.0207  0.0385
17740SOL    HW160460  10.008  11.601   9.238  0.4676 -0.3308  0.3285
17740SOL    HW260461  10.011  11.731   9.316  0.9968 -0.3559  0.3572
17741SOL     OW60462  11.396  11.037  10.639 -0.4159 -0.2748  0.2915
17741SOL    HW160463  11.471  11.081  10.679  0.4484  0.0619 -1.5809
17741SOL    HW260464  11.410  10.944  10.657  1.1118 -0.3322 -1.0053
17742SOL     OW60465  11.260   9.976  10.172 -0.3553  0.0727 -0.0766
17742SOL    HW160466  11.236   9.921  10.247  1.3562  2.4854  2.4609
17742SOL    HW260467  11.349   9.948  10.149 -0.2527  0.4314 -0.1163
17743SOL     OW60468  12.241   6.972   4.895  0.0274  0.0216  0.0704
17743SOL    HW160469  12.334   6.982   4.916 -0.0722  0.2196  0.4257
17743SOL    HW260470  12.238   6.974   4.799  0.3048  0.8117  0.0637
17744SOL     OW60471   6.152   3.767  12.598  0.0523 -0.7207 -0.4572
17744SOL    HW160472   6.176   3.687  12.552  1.1378 -0.0812 -1.0448
17744SOL    HW260473   6.135   3.831  12.529 -0.6062 -0.3823  0.0074
17745SOL     OW60474  10.095   0.602  11.249  0.0864 -0.0803  0.4879
17745SOL    HW160475  10.046   0.548  11.310  0.1791  0.9262  1.4845
17745SOL    HW260476  10.028   0.647  11.197  0.0022 -0.4921  0.2335
17746SOL     OW60477   5.312   0.623  12.275 -0.4196 -0.3172 -0.1282
17746SOL    HW160478   5.340   0.706  12.235 -0.0497 -0.5408 -0.3390
17746SOL    HW260479   5.262   0.650  12.352  1.3130  0.1224  0.9166
17747SOL     OW60480   9.657  11.912   9.764 -0.3685  0.2836 -0.2603
17747SOL    HW160481   9.656  11.892   9.671  0.3340 -0.4500 -0.1261
17747SOL    HW260482   9.703  11.837   9.804  0.4135  1.1602  0.5320
17748SOL     OW60483   6.801  12.069  11.437 -0.4413 -0.3237 -0.3908
17748SOL    HW160484   6.814  12.142  11.376  1.8412 -1.0481 -0.8343
17748SOL    HW260485   6.870  12.080  11.503 -1.2395 -1.0464  0.6056
17749SOL     OW60486   8.775   8.505   1.416  0.0634  0.2522 -0.0626
17749SOL    HW160487   8.782   8.462   1.500  0.2342 -1.1983 -0.7951
17749SOL    HW260488   8.865   8.510   1.384  0.2220  2.3215  0.5388
17750SOL     OW60489  12.567  11.977   0.783 -0.1197  0.4161 -0.0773
17750SOL    HW160490  12.642  11.918   0.779 -0.6964 -0.4542  1.1489
17750SOL    HW260491  12.510  11.940   0.851 -1.6873  1.0263 -0.9823
17751SOL     OW60492  11.956   5.986  12.486  0.0970  0.0120  0.1291
17751SOL    HW160493  11.913   5.905  12.459 -0.3201  0.4661 -0.6196
17751SOL    HW260494  12.012   5.961  12.560 -1.5947 -0.5791  1.2753
17752SOL     OW60495   1.640   9.523   8.315 -0.1004  0.1275  0.2863
17752SOL    HW160496   1.713   9.559   8.365  0.0208  1.6010 -0.8769
17752SOL    HW260497   1.654   9.429   8.316  0.8602  0.2598  1.5155
17753SOL     OW60498   3.080   8.868  10.579 -0.4221 -0.1891 -0.3278
17753SOL    HW160499   3.136   8.790  10.585  0.0245  0.1530 -0.0007
17753SOL    HW260500   2.999   8.836  10.540 -0.0317 -0.7097 -0.7272
17754SOL     OW60501  10.263   5.232   8.225 -0.3815  0.3642  0.0347
17754SOL    HW160502  10.222   5.198   8.305 -1.7255 -0.6339 -1.0284
17754SOL    HW260503  10.330   5.292   8.256 -1.1466  0.3160  1.9075
17755SOL     OW60504   5.851   1.226  10.875 -0.0787 -0.0160 -0.2684
17755SOL    HW160505   5.838   1.226  10.970  1.5407  1.2850  0.0134
17755SOL    HW260506   5.896   1.143  10.857 -1.5377 -0.8653 -0.1194
17756SOL     OW60507   8.463   0.756   5.933 -0.3184  0.4349 -0.5445
17756SOL    HW160508   8.370   0.776   5.923 -0.5863  0.3953  1.4614
17756SOL    HW260509   8.499   0.834   5.976  0.7021  0.6462 -1.7264
17757SOL     OW60510   8.017  12.491   7.675 -0.2193  0.7732 -0.0012
17757SOL    HW160511   7.998  12.397   7.665  1.3144  0.3981  0.3514
17757SOL    HW260512   8.094  12.506   7.621 -0.0524  1.6996  0.4751
17758SOL     OW60513  10.282   7.880   3.384  0.1215 -0.1197 -0.1333
17758SOL    HW160514  10.233   7.955   3.350 -0.2252  0.0663  0.7291
17758SOL    HW260515  10.216   7.829   3.432  0.5357 -0.5016  0.0343
17759SOL     OW60516   1.635   1.583   8.187  0.1828 -0.4752  0.7086
17759SOL    HW160517   1.564   1.528   8.151  0.8433 -1.8386  1.4109
17759SOL    HW260518   1.590   1.662   8.218 -0.9481 -1.0256  0.5518
17760SOL     OW60519   0.552   9.531   1.849 -0.4048 -0.1271 -0.2696
17760SOL    HW160520   0.606   9.465   1.804  0.9969  0.6289  0.2531
17760SOL    HW260521   0.560   9.509   1.942 -0.1395  0.6117 -0.1143
17761SOL     OW60522  10.137   6.376   9.660 -0.2236 -0.2661  0.0437
17761SOL    HW160523  10.083   6.407   9.587  1.3704  0.8160 -0.7235
17761SOL    HW260524  10.082   6.312   9.704 -2.6857  1.7483  0.1317
17762SOL     OW60525   3.956   9.059   0.366  0.3252  0.5115 -0.9110
17762SOL    HW160526   3.934   9.120   0.437 -0.0381  0.2094 -0.7647
17762SOL    HW260527   3.914   8.977   0.391  1.8917 -0.1938 -0.4355
17763SOL     OW60528   5.369   3.102   1.982  0.5707 -0.8521 -0.1562
17763SOL    HW160529   5.345   3.151   2.061  1.4733 -0.0097 -0.3821
17763SOL    HW260530   5.287   3.091   1.935  0.0742 -1.0560  0.7265
17764SOL     OW60531  11.781   3.972  10.452  0.2120 -0.0371  0.2054
17764SOL    HW160532  11.740   3.901  10.403  0.8939 -0.5876  0.4101
17764SOL    HW260533  11.856   3.997  10.398  0.5435 -0.1540  0.6037
17765SOL     OW60534   2.696   1.870  11.718  0.1986  0.1207 -0.3482
17765SOL    HW160535   2.726   1.887  11.629  1.0814 -0.9478 -0.2725
17765SOL    HW260536   2.769   1.825  11.760 -0.8933 -1.0564  0.3541
17766SOL     OW60537   2.076  12.277   4.115 -0.5175 -0.1696  0.1802
17766SOL    HW160538   2.125  12.359   4.125  1.1359 -1.3096  2.3360
17766SOL    HW260539   2.101  12.246   4.028  0.0340  0.8716 -0.0616
17767SOL     OW60540   0.340   5.884   7.112 -0.4195  0.3819  0.0313
17767SOL    HW160541   0.326   5.976   7.135  0.3951  0.7076 -0.6948
17767SOL    HW260542   0.410   5.887   7.046 -1.2178 -0.6631 -0.8988
17768SOL     OW60543   2.414   3.681   5.118  0.1684  0.1475  0.3517
17768SOL    HW160544   2.467   3.601   5.118  1.6920  0.9736 -3.2341
17768SOL    HW260545   2.477   3.752   5.110 -1.2937  1.5932  1.0710
17769SOL     OW60546  11.236   2.833   6.365 -0.0082 -0.1328 -0.0744
17769SOL    HW160547  11.147   2.827   6.400  0.2309 -2.1427  0.3483
17769SOL    HW260548  11.229   2.794   6.277  0.3552  0.2378 -0.2708
17770SOL     OW60549   7.510   6.393   8.579 -0.4945 -0.4113 -0.3509
17770SOL    HW160550   7.568   6.436   8.516  0.6690  0.8253  1.4645
17770SOL    HW260551   7.529   6.300   8.569  1.0670 -0.1103 -0.5695
17771SOL     OW60552   9.222  11.072   2.046  0.1943  0.8476  0.8123
17771SOL    HW160553   9.132  11.071   2.078 -0.8708  0.7849 -1.8988
17771SOL    HW260554   9.236  10.983   2.013  1.8496  0.4011  2.5973
17772SOL     OW60555   2.458   8.383   0.375  0.5393  0.0935 -0.2161
17772SOL    HW160556   2.390   8.363   0.440  1.6059 -1.0375  0.6008
17772SOL    HW260557   2.417   8.447   0.317 -0.8574  0.2542  0.8779
17773SOL     OW60558   5.137   7.904   3.261  0.0991 -0.6907  0.0802
17773SOL    HW160559   5.060   7.892   3.317  2.0751 -3.0428  2.6027
17773SOL    HW260560   5.176   7.986   3.292 -0.8439  0.0445 -0.6049
17774SOL     OW60561  12.514  11.583   5.122 -0.5742  0.0221  0.1835
17774SOL    HW160562  12.462  11.504   5.135 -0.9701 -0.3956 -2.9882
17774SOL    HW260563  12.599  11.562   5.160 -1.0072 -1.5184  0.3827
17775SOL     OW60564   2.190   8.918   2.918  0.2599 -0.3884  0.1807
17775SOL    HW160565   2.141   8.996   2.944  0.9214 -0.3797  1.4951
17775SOL    HW260566   2.249   8.902   2.992  0.3029 -1.9864 -0.1763
17776SOL     OW60567   7.961   3.852   5.873  0.1655  0.5569 -0.1085
17776SOL    HW160568   8.002   3.923   5.823 -1.7751  0.8102 -1.4542
17776SOL    HW260569   8.002   3.772   5.840  0.6330  0.8868 -0.3393
17777SOL     OW60570  10.490   2.346   8.569  0.8751  0.2331  0.1749
17777SOL    HW160571  10.407   2.324   8.526 -0.1978  0.5886  1.9884
17777SOL    HW260572  10.479   2.436   8.598  1.7661  0.1758  0.7195
17778SOL     OW60573   0.330   5.030   1.840 -0.1437 -0.1346  0.1038
17778SOL    HW160574   0.253   5.064   1.886 -0.7582  0.1313 -1.0698
17778SOL    HW260575   0.298   4.956   1.790  0.0393  0.7692 -1.4350
17779SOL     OW60576   4.378   8.849   9.301 -0.0001 -1.0184 -0.3101
17779SOL    HW160577   4.459   8.871   9.347 -0.1878 -0.8868 -0.0413
17779SOL    HW260578   4.335   8.784   9.357 -0.4479 -0.5217 -0.0620
17780SOL     OW60579  11.580   8.909   2.251  0.0326  0.3862 -0.0939
17780SOL    HW160580  11.556   8.883   2.162  1.4717 -0.7962 -0.1867
17780SOL    HW260581  11.504   8.885   2.304  0.3058 -1.7812 -0.5785
17781SOL     OW60582  12.277   8.538   7.123 -0.7252 -0.0047 -0.2066
17781SOL    HW160583  12.263   8.444   7.115 -1.3468  0.1120 -0.5858
17781SOL    HW260584  12.338   8.559   7.053 -0.1862 -0.1986  0.1947
17782SOL     OW60585   5.675   7.263   8.694 -0.0585  0.3972  0.2420
17782SOL    HW160586   5.592   7.295   8.730 -0.6477  0.2303 -0.9104
17782SOL    HW260587   5.692   7.321   8.619 -0.6002 -1.2588 -1.2458
17783SOL     OW60588   7.212   6.865  11.048 -0.2983  0.3321 -0.0217
17783SOL    HW160589   7.207   6.790  11.107  1.2631 -0.5834 -1.0182
17783SOL    HW260590   7.173   6.835  10.966 -3.1719  1.8356  0.6500
17784SOL     OW60591   8.466   8.613   8.235  0.4471 -0.0598  0.1288
17784SOL    HW160592   8.371   8.607   8.248  0.1645  0.0834 -1.6768
17784SOL    HW260593   8.480   8.590   8.143  2.1302  0.3451  0.2428
17785SOL     OW60594   3.273   1.046   1.396  0.6738 -0.3160  0.0499
17785SOL    HW160595   3.360   1.006   1.390  1.1465  0.5758  0.6794
17785SOL    HW260596   3.221   0.982   1.445  1.5068 -0.0694  1.3350
17786SOL     OW60597   6.886   6.346   5.709 -0.0954 -0.1901 -0.3289
17786SOL    HW160598   6.974   6.373   5.683  0.4047 -1.5265 -0.1427
17786SOL    HW260599   6.881   6.366   5.802 -0.3993  0.8786 -0.5638
17787SOL     OW60600   1.104   5.127   9.231  0.3085  0.0244  0.0293
17787SOL    HW160601   1.120   5.042   9.272 -0.3758  0.4311  1.1913
17787SOL    HW260602   1.097   5.107   9.138  0.6907 -1.1162  0.2227
17788SOL     OW60603   6.282  11.535   1.809 -0.0405 -0.5372 -0.4212
17788SOL    HW160604   6.288  11.498   1.721  1.6393 -0.1319 -0.5190
17788SOL    HW260605   6.272  11.629   1.795 -0.8208 -0.5769 -0.1709
17789SOL     OW60606   0.368   8.886   9.672  0.2749  0.3237  0.1862
17789SOL    HW160607   0.460   8.906   9.655 -0.0410  1.8684  0.1313
17789SOL    HW260608   0.320   8.931   9.603 -0.4715 -1.7594 -0.7218
17790SOL     OW60609   9.783  12.684   5.410 -0.0301 -0.4958 -0.3107
17790SOL    HW160610   9.791  12.615   5.476  1.6690  0.3993  0.4738
17790SOL    HW260611   9.693  12.676   5.378  0.5087 -4.1008 -1.4355
17791SOL     OW60612   8.439   7.610   4.877 -0.4777  0.1575  0.2630
17791SOL    HW160613   8.412   7.523   4.848  0.7300  0.2027 -1.1116
17791SOL    HW260614   8.508   7.593   4.942 -0.5348  0.0823  0.3035
17792SOL     OW60615   1.040   5.378   2.595  0.1147 -0.2891 -0.2992
17792SOL    HW160616   0.965   5.431   2.567 -0.1394 -0.1998  0.5254
17792SOL    HW260617   1.114   5.415   2.546  0.3975  2.4484  1.9335
17793SOL     OW60618   0.166   4.091   3.355  0.2091  0.4858 -0.5008
17793SOL    HW160619   0.118   4.010   3.342  0.6143  0.0966  0.3486
17793SOL    HW260620   0.253   4.063   3.382  0.4544  1.2051 -0.5142
17794SOL     OW60621  11.231   6.270   4.499 -0.2690  0.1239 -0.1715
17794SOL    HW160622  11.192   6.194   4.457 -0.7318  0.3085 -0.0889
17794SOL    HW260623  11.279   6.234   4.574 -0.7905 -0.0581  0.0831
17795SOL     OW60624   0.324   6.689  12.449  0.0080  0.3042 -0.4792
17795SOL    HW160625   0.313   6.595  12.440  0.9967  0.1028  0.2484
17795SOL    HW260626   0.246   6.719  12.495 -0.5694 -0.0673 -1.2086
17796SOL     OW60627   8.367   0.769   4.584 -0.1596  0.0970  0.5028
17796SOL    HW160628   8.419   0.837   4.542  0.2247  0.5355  1.6498
17796SOL    HW260629   8.346   0.805   4.671  0.2931 -1.3251  1.2427
17797SOL     OW60630   8.622  11.060   3.452  0.0592  0.2812 -0.1956
17797SOL    HW160631   8.637  11.023   3.539  0.2968 -0.0793 -0.3843
17797SOL    HW260632   8.539  11.105   3.459  0.0300  0.1742  0.1952
17798SOL     OW60633   2.379   1.590  10.269 -0.3401 -0.1763  0.0560
17798SOL    HW160634   2.300   1.592  10.214 -0.7068 -3.3219  0.2994
17798SOL    HW260635   2.345   1.584  10.358  0.0812 -1.9438  0.1411
17799SOL     OW60636   6.102   1.480   7.661  0.2853 -0.7400 -0.6855
17799SOL    HW160637   6.080   1.389   7.681  1.3177 -1.1853 -1.4611
17799SOL    HW260638   6.076   1.491   7.570  0.3553 -0.3188 -0.6559
17800SOL     OW60639  10.938   0.607   6.121  0.3876 -0.0049 -0.5203
17800SOL    HW160640  10.889   0.557   6.186 -0.2485 -0.6990 -1.5135
17800SOL    HW260641  11.022   0.561   6.114  0.5717  0.2418  0.0071
17801SOL     OW60642   7.855   1.620   9.629  0.6055 -0.1330  0.1851
17801SOL    HW160643   7.826   1.614   9.538  0.6549 -0.4418  0.1891
17801SOL    HW260644   7.791   1.567   9.678 -0.9968  2.1174  0.7006
17802SOL     OW60645   5.583   2.165   2.439 -0.6304  0.1731  0.2154
17802SOL    HW160646   5.655   2.154   2.376 -2.0018  1.2428 -1.6393
17802SOL    HW260647   5.596   2.253   2.474  0.2417 -0.4904  1.6675
17803SOL     OW60648   2.284   0.416   4.736  0.0084  0.0442  0.2837
17803SOL    HW160649   2.298   0.509   4.717  1.1137 -0.4350 -1.4852
17803SOL    HW260650   2.191   0.402   4.717  0.5633  0.0989 -3.1186
17804SOL     OW60651   5.106   9.795   9.907 -0.5809  0.0109 -0.1480
17804SOL    HW160652   5.015   9.824   9.912 -0.4745  0.3686 -0.2586
17804SOL    HW260653   5.155   9.858   9.959 -0.3326  0.0958 -0.4795
17805SOL     OW60654   5.229   0.828   1.994  0.0009 -0.2543  0.7568
17805SOL    HW160655   5.218   0.878   2.075  1.4580  0.2410  0.6926
17805SOL    HW260656   5.154   0.853   1.940  0.5094  1.6817  0.8489
17806SOL     OW60657  11.377   5.923   0.466  0.3494  0.2684  0.6114
17806SOL    HW160658  11.454   5.966   0.502  1.6312  0.0179 -1.6114
17806SOL    HW260659  11.391   5.925   0.371 -0.1114 -3.8721  0.2654
17807SOL     OW60660   4.408   2.122  10.871  0.2258  0.2412 -0.0491
17807SOL    HW160661   4.390   2.029  10.882 -1.3311  0.4857 -0.2484
17807SOL    HW260662   4.477   2.126  10.806  0.3782 -0.7737  0.0337
17808SOL     OW60663   9.961   4.828   3.603  0.2204 -0.6068  0.0697
17808SOL    HW160664  10.047   4.872   3.601 -0.0908  0.0101 -0.1088
17808SOL    HW260665   9.963   4.770   3.527  0.5213 -0.6722  0.1252
17809SOL     OW60666   6.162   3.044   7.154  0.0101  0.0309 -0.5721
17809SOL    HW160667   6.185   3.113   7.092 -0.1249  1.1203  0.5616
17809SOL    HW260668   6.129   3.090   7.231  1.8064 -1.1698  1.0094
17810SOL     OW60669   8.057  11.580  11.922  0.0982 -0.3666  0.2587
17810SOL    HW160670   8.131  11.528  11.891 -0.1584 -1.8085  1.9233
17810SOL    HW260671   8.068  11.665  11.879  1.6576 -1.1314 -0.9744
17811SOL     OW60672   8.332   3.316   9.460  0.1081 -0.0017 -0.5260
17811SOL    HW160673   8.419   3.276   9.473  0.2056  0.3075 -0.2131
17811SOL    HW260674   8.346   3.383   9.393 -0.4862 -1.9019 -2.6610
17812SOL     OW60675   4.589  11.055   0.908  0.7299  0.1488  0.2299
17812SOL    HW160676   4.681  11.030   0.895  1.2158  0.6138  2.4373
17812SOL    HW260677   4.580  11.139   0.863  1.2630 -0.1092 -0.3671
17813SOL     OW60678   5.519   7.891   7.034 -0.1958 -0.1911 -0.3787
17813SOL    HW160679   5.568   7.810   7.020  0.3809  0.1920 -0.5734
17813SOL    HW260680   5.445   7.884   6.974 -0.3517 -0.7369 -0.1348
17814SOL     OW60681   6.579   4.169   3.223  0.0393 -0.7538 -0.3930
17814SOL    HW160682   6.650   4.108   3.242  0.3591 -0.4371 -0.5424
17814SOL    HW260683   6.619   4.256   3.231 -0.5328 -0.5443  0.3242
17815SOL     OW60684   4.456  12.083   3.914 -0.0946 -0.6270  0.0061
17815SOL    HW160685   4.526  12.148   3.919 -1.4927  0.9513 -0.1691
17815SOL    HW260686   4.428  12.071   4.004  0.1618 -1.0171  0.0379
17816SOL     OW60687   0.497  11.519   4.096  0.3088  0.0099 -0.3085
17816SOL    HW160688   0.485  11.426   4.080 -0.8533  0.1634 -0.4421
17816SOL    HW260689   0.424  11.561   4.049  0.5932  0.9553  0.0620
17817SOL     OW60690   9.073   2.781   5.299 -0.3336 -0.6655  0.0019
17817SOL    HW160691   9.016   2.857   5.315  0.9266  0.2100  0.4685
17817SOL    HW260692   9.092   2.747   5.387  0.3437 -0.5844 -0.1101
17818SOL     OW60693  11.616   2.472   5.181  0.0261  0.3437  0.3938
17818SOL    HW160694  11.577   2.547   5.135 -0.7612 -0.2943  0.0034
17818SOL    HW260695  11.570   2.396   5.146  0.5432 -0.2926  1.0780
17819SOL     OW60696   2.169   9.499   4.952 -0.5329  0.1239 -0.2144
17819SOL    HW160697   2.134   9.495   4.862 -0.3767  0.6387 -0.3012
17819SOL    HW260698   2.261   9.521   4.941 -0.1144 -1.4491  0.0109
17820SOL     OW60699   9.137  10.879   8.335  0.3400 -0.1917  0.3486
17820SOL    HW160700   9.140  10.942   8.407 -1.2633  1.2061 -0.7374
17820SOL    HW260701   9.111  10.931   8.259 -0.4216 -2.0639 -0.7293
17821SOL     OW60702   8.803   9.277   6.862 -0.2319 -0.3619 -0.2422
17821SOL    HW160703   8.863   9.351   6.850  0.3388 -0.7188  0.3399
17821SOL    HW260704   8.750   9.301   6.937  0.5622 -0.9218  0.5139
17822SOL     OW60705   6.425   0.818   2.545 -0.1470  0.5109 -0.0221
17822SOL    HW160706   6.407   0.839   2.454 -1.3922 -1.4698 -0.3014
17822SOL    HW260707   6.496   0.753   2.542  2.1727  2.8316  0.6826
17823SOL     OW60708   3.927  11.810   3.960 -0.2601 -0.3897 -0.0525
17823SOL    HW160709   3.895  11.722   3.979 -0.7835  0.0253  1.0420
17823SOL    HW260710   4.021  11.806   3.982 -0.4335 -0.4835  0.6986
17824SOL     OW60711   6.104   8.394   8.180 -0.7099  0.2948  0.0181
17824SOL    HW160712   6.191   8.384   8.142 -0.0810 -0.4958  1.5883
17824SOL    HW260713   6.108   8.475   8.231 -0.5313 -0.3036  0.9783
17825SOL     OW60714  11.460   4.117   4.879 -0.0914  0.4636  0.0630
17825SOL    HW160715  11.410   4.198   4.887  1.4451  1.2905  2.8886
17825SOL    HW260716  11.482   4.094   4.969  0.4913 -2.5147 -0.7368
17826SOL     OW60717   7.650   9.792   8.295  0.3885  0.5097 -0.5686
17826SOL    HW160718   7.685   9.709   8.261  1.6530 -0.1402  2.0337
17826SOL    HW260719   7.719   9.856   8.279  2.5795 -0.5114  3.4449
17827SOL     OW60720   3.924   9.853  11.153 -0.3336 -0.4159  0.5355
17827SOL    HW160721   4.020   9.857  11.157 -0.3642  0.2359  0.7790
17827SOL    HW260722   3.900   9.919  11.088 -0.5753 -1.2574 -0.2449
17828SOL     OW60723  10.183   7.347  11.822  0.4443  0.6669 -0.2265
17828SOL    HW160724  10.259   7.299  11.855  1.0814  2.3290  0.8827
17828SOL    HW260725  10.191   7.434  11.861 -1.7083  1.0885 -0.5935
17829SOL     OW60726   4.737  10.431   1.169  0.0546 -0.0945 -0.0081
17829SOL    HW160727   4.735  10.503   1.106  2.5377  0.7292  0.7438
17829SOL    HW260728   4.692  10.359   1.124  2.9000 -0.0203 -3.4773
17830SOL     OW60729   7.064  11.981   8.422 -0.6090 -0.1573 -0.0434
17830SOL    HW160730   7.090  11.899   8.464 -0.9991  0.1662  0.8561
17830SOL    HW260731   7.107  12.050   8.473 -1.0031  0.2385 -0.2323
17831SOL     OW60732   0.801   3.868  10.122  0.2316 -0.5778  0.0366
17831SOL    HW160733   0.730   3.921  10.085 -0.8291 -0.2200  2.4122
17831SOL    HW260734   0.757   3.790  10.157  1.2127 -1.0195  0.3218
17832SOL     OW60735   0.314   7.034   5.613 -0.6581  0.1733 -0.0710
17832SOL    HW160736   0.261   6.955   5.619 -2.2412  1.2797  2.0937
17832SOL    HW260737   0.399   7.009   5.649 -0.3936 -1.0711 -1.4948
17833SOL     OW60738   4.079   0.236   5.767 -0.6693  0.2392  0.1078
17833SOL    HW160739   4.062   0.177   5.694 -1.2331  0.4053  0.1029
17833SOL    HW260740   4.161   0.203   5.806 -0.4779  0.0277 -0.4641
17834SOL     OW60741   3.144   1.521   0.121 -1.1297  0.1506 -0.4171
17834SOL    HW160742   3.103   1.435   0.111 -1.1798 -0.0836  1.4449
17834SOL    HW260743   3.149   1.534   0.215 -0.4474  1.8860 -0.6584
17835SOL     OW60744   5.889  11.353   2.096  0.4275  0.1943  0.6849
17835SOL    HW160745   5.799  11.322   2.087  1.0691 -1.6787  0.1513
17835SOL    HW260746   5.916  11.372   2.006  0.6550  0.4668  0.8115
17836SOL     OW60747  11.681   3.949   7.423 -0.1239 -0.1186  0.1100
17836SOL    HW160748  11.653   3.867   7.465  0.7995 -0.1274  0.7510
17836SOL    HW260749  11.613   3.968   7.359 -1.0630 -0.6613  0.9168
17837SOL     OW60750   6.574   8.915  12.118  0.0702 -0.2229  0.0430
17837SOL    HW160751   6.653   8.877  12.156  0.4569  0.1451 -0.3806
17837SOL    HW260752   6.522   8.839  12.090 -0.0148 -0.4833  0.8858
17838SOL     OW60753   1.111  11.810   0.154  0.0211  0.0384 -0.1221
17838SOL    HW160754   1.170  11.883   0.134 -0.0472 -0.4565 -2.3330
17838SOL    HW260755   1.030  11.853   0.184  0.3143  0.8237 -0.4191
17839SOL     OW60756   1.698  11.851   5.516  0.0759 -0.4634  0.7358
17839SOL    HW160757   1.645  11.784   5.559 -0.0537  1.2523  3.4817
17839SOL    HW260758   1.705  11.922   5.580 -0.4493  2.5540 -2.2263
17840SOL     OW60759   7.947   1.201   8.560  0.3024 -0.1937  0.5345
17840SOL    HW160760   7.904   1.284   8.582  0.1032  0.1226 -0.9483
17840SOL    HW260761   8.008   1.224   8.490  0.8400 -1.1628  0.6730
17841SOL     OW60762   2.940   2.460   7.919  0.6700 -0.2601 -0.2050
17841SOL    HW160763   2.963   2.402   7.991 -2.0609 -0.2661  0.7968
17841SOL    HW260764   3.022   2.503   7.894  2.2109 -2.4099  0.9256
17842SOL     OW60765   5.649   1.865   7.734  0.0979  0.6237  0.1182
17842SOL    HW160766   5.691   1.930   7.678  1.2431 -0.2211 -0.0474
17842SOL    HW260767   5.558   1.864   7.705  0.2621  1.5156 -0.4747
17843SOL     OW60768   6.204   3.339  11.708  0.6016 -0.2151  0.1778
17843SOL    HW160769   6.131   3.328  11.647  1.6243  0.0556 -1.1288
17843SOL    HW260770   6.281   3.348  11.653  1.7742 -1.3793  1.5350
17844SOL     OW60771   0.720   8.222   5.556  0.0462  0.2813  0.2915
17844SOL    HW160772   0.753   8.230   5.466  0.2409  0.6553  0.3914
17844SOL    HW260773   0.705   8.313   5.583 -4.9631  0.1589 -1.1409
17845SOL     OW60774   7.066  10.799   3.153 -0.2295 -0.0827 -0.1056
17845SOL    HW160775   7.144  10.853   3.167 -1.2324  1.3855  0.1739
17845SOL    HW260776   7.081  10.720   3.205  1.3656 -0.1686 -0.6595
17846SOL     OW60777   0.437   8.489   3.699  0.0713  0.1604  0.6244
17846SOL    HW160778   0.516   8.438   3.717  1.7885  2.7873  0.9014
17846SOL    HW260779   0.393   8.495   3.784  0.3060 -0.1110  0.7681
17847SOL     OW60780   4.312   9.848  11.806 -0.4101  0.2645  0.3217
17847SOL    HW160781   4.251   9.777  11.826 -0.0466 -0.1524 -0.0345
17847SOL    HW260782   4.259   9.928  11.814 -0.6218  0.0151  1.5125
17848SOL     OW60783   6.356  11.796   8.415 -0.4986 -0.5467  0.6330
17848SOL    HW160784   6.421  11.853   8.455 -0.9152  0.0837  0.4158
17848SOL    HW260785   6.377  11.796   8.322 -1.2621  0.2650  0.4511
17849SOL     OW60786   5.965   5.264   8.073  0.0547 -0.0651  0.0889
17849SOL    HW160787   5.989   5.211   8.150 -0.6946  0.3365  0.6136
17849SOL    HW260788   5.899   5.211   8.028 -0.6683  0.3872  0.5939
17850SOL     OW60789   4.221   6.908   7.242 -0.0423  0.1055  0.2594
17850SOL    HW160790   4.203   6.929   7.151 -1.5202 -0.7619  0.3272
17850SOL    HW260791   4.138   6.874   7.276 -0.0413  1.9483  2.3881
17851SOL     OW60792   9.771  11.007   5.137 -0.1103 -0.3426  0.2202
17851SOL    HW160793   9.816  11.076   5.186  2.1973 -1.3171 -0.3879
17851SOL    HW260794   9.737  11.050   5.059 -1.3464  0.6573  1.2668
17852SOL     OW60795   9.220  11.482   2.307  0.1174  0.3309 -0.1476
17852SOL    HW160796   9.220  11.387   2.319  0.8944  0.2762 -0.5340
17852SOL    HW260797   9.312  11.505   2.296 -0.1833  0.9043 -1.7606
17853SOL     OW60798  12.517  12.134  10.370  0.0881 -0.2909  0.1996
17853SOL    HW160799  12.541  12.081  10.446  1.6469 -0.9256 -0.6805
17853SOL    HW260800  12.581  12.205  10.369 -1.5516  1.2771  0.9594
17854SOL     OW60801   6.593   5.502   5.900 -0.0905 -0.1551 -0.2527
17854SOL    HW160802   6.602   5.582   5.952 -0.2533 -0.6804  0.5986
17854SOL    HW260803   6.504   5.507   5.864  0.8466  1.4085 -2.5555
17855SOL     OW60804   8.756   4.579   0.940 -0.4236  0.1650  0.2746
17855SOL    HW160805   8.720   4.630   1.012 -1.3455 -0.7653  0.4845
17855SOL    HW260806   8.807   4.509   0.982  0.2561  0.4722 -0.0071
17856SOL     OW60807   7.795   6.378  10.020  0.5279 -0.2414 -0.6272
17856SOL    HW160808   7.799   6.464  10.061  2.0959 -1.1589  1.3315
17856SOL    HW260809   7.703   6.352  10.027  0.3593  0.5700  0.3202
17857SOL     OW60810   5.137  12.402   0.613  0.3313  0.5003 -0.6164
17857SOL    HW160811   5.042  12.392   0.611  0.5120 -1.8716  0.1327
17857SOL    HW260812   5.155  12.444   0.698  0.0653 -1.0473  0.2337
17858SOL     OW60813  12.190   6.513   0.949 -0.4428 -0.2263  0.2115
17858SOL    HW160814  12.192   6.423   0.980 -0.5142 -0.1119  0.5580
17858SOL    HW260815  12.220   6.509   0.858 -2.0360 -0.8095 -0.3158
17859SOL     OW60816   5.620  11.657   9.239  0.2673  0.2308 -0.7684
17859SOL    HW160817   5.611  11.618   9.152 -1.7372  0.4506 -0.7127
17859SOL    HW260818   5.688  11.724   9.228  1.7062 -1.3043 -1.5571
17860SOL     OW60819   5.162   9.202   6.909 -0.1547  0.3241 -0.2083
17860SOL    HW160820   5.113   9.284   6.915 -0.4811  0.0301  2.2612
17860SOL    HW260821   5.108   9.138   6.956  0.5748 -1.0755 -1.1927
17861SOL     OW60822   3.189  11.048   5.237  1.2440  0.2183  1.0510
17861SOL    HW160823   3.272  11.071   5.196  2.3342 -3.7802  0.6605
17861SOL    HW260824   3.212  10.981   5.302 -1.4971  0.2947  2.2274
17862SOL     OW60825   7.194   8.825   8.547 -0.3674 -0.1329 -0.2846
17862SOL    HW160826   7.225   8.809   8.636 -0.5979 -1.0308 -0.3564
17862SOL    HW260827   7.188   8.738   8.508 -1.8890  0.0957 -0.6274
17863SOL     OW60828   9.636   2.407  12.335 -0.7304  0.3050  0.3523
17863SOL    HW160829   9.669   2.479  12.281 -1.6899  0.4911 -0.0226
17863SOL    HW260830   9.541   2.416  12.330 -0.8424  0.0452  1.7287
17864SOL     OW60831  12.688   4.838   9.985  0.2785  0.3774  0.0308
17864SOL    HW160832  12.779   4.814   9.998  0.3155  0.5400  0.0792
17864SOL    HW260833  12.638   4.760  10.010  0.4403 -0.0386 -0.9033
17865SOL     OW60834   8.577   0.918  11.358 -0.4536  0.5189  0.1708
17865SOL    HW160835   8.498   0.877  11.323  0.1836  1.5318 -2.7269
17865SOL    HW260836   8.544   0.982  11.422 -1.7025 -1.2713  1.4073
17866SOL     OW60837  12.399   5.755   6.959  0.1500 -0.3133  0.6083
17866SOL    HW160838  12.482   5.706   6.967  0.7888  0.7373  0.6298
17866SOL    HW260839  12.346   5.702   6.899  1.6001 -0.0410 -1.0094
17867SOL     OW60840  10.880  11.047   6.142  0.1048 -0.3207 -0.2560
17867SOL    HW160841  10.968  11.051   6.179  0.2385  0.3351 -0.6287
17867SOL    HW260842  10.855  11.139   6.132  0.7781 -0.3816 -3.4759
17868SOL     OW60843   5.014   9.646   6.380  0.0029 -0.1718 -0.1052
17868SOL    HW160844   5.084   9.712   6.385 -0.5766  0.3634  1.4701
17868SOL    HW260845   5.047   9.573   6.431 -1.4166  0.9495  2.6370
17869SOL     OW60846  10.014   5.483   4.013  0.0716 -0.0590  0.1196
17869SOL    HW160847   9.941   5.511   4.069 -0.4919 -1.8951  0.3805
17869SOL    HW260848   9.972   5.456   3.931  0.7301  1.0709 -0.6119
17870SOL     OW60849   5.410   8.048   2.958 -0.5858 -0.0298 -0.1055
17870SOL    HW160850   5.363   7.975   2.999 -0.4768  0.3556  0.7254
17870SOL    HW260851   5.342   8.111   2.936 -0.4802  0.4882  1.0128
17871SOL     OW60852  10.887   3.639   2.194 -0.2751 -0.2091 -0.6286
17871SOL    HW160853  10.940   3.678   2.264 -0.5045 -2.2631  0.7917
17871SOL    HW260854  10.949   3.587   2.143 -0.5357 -0.8005 -0.3477
17872SOL     OW60855   6.239   3.892   2.349 -0.8330  0.7240 -0.3615
17872SOL    HW160856   6.218   3.809   2.307 -2.4991  0.7852  0.2647
17872SOL    HW260857   6.292   3.939   2.284 -2.5813  0.4723 -2.0774
17873SOL     OW60858   8.715   4.579   5.676  0.3436  0.2303 -0.4568
17873SOL    HW160859   8.768   4.508   5.712 -1.0250 -0.2651  0.6698
17873SOL    HW260860   8.763   4.659   5.698  0.1576 -0.1393  1.4693
17874SOL     OW60861   4.904   3.523   8.263  0.3798 -0.2906  0.2690
17874SOL    HW160862   4.989   3.507   8.222  0.8210  0.1576  0.9995
17874SOL    HW260863   4.840   3.504   8.194  1.1175  0.6022 -0.6892
17875SOL     OW60864  11.048  11.761   1.686  0.2660  0.2746 -0.1326
17875SOL    HW160865  11.136  11.762   1.649  0.7123 -1.2840  0.7724
17875SOL    HW260866  11.018  11.851   1.680  2.3040  1.0423  0.3638
17876SOL     OW60867   1.019   5.079   1.119  0.0712  0.3117 -0.2430
17876SOL    HW160868   1.012   5.051   1.028 -0.0931  1.4552 -0.5998
17876SOL    HW260869   1.105   5.122   1.124 -0.4700  1.4292 -0.2129
17877SOL     OW60870  11.381  10.026   3.077  0.3346 -0.2656  0.1357
17877SOL    HW160871  11.322   9.981   3.138 -0.8594 -0.6060 -1.2225
17877SOL    HW260872  11.428   9.956   3.032  2.1297  0.0061  1.4652
17878SOL     OW60873   1.120   3.481   4.659 -0.2640  0.1704 -0.1318
17878SOL    HW160874   1.170   3.560   4.638 -0.3544  0.2478 -0.0579
17878SOL    HW260875   1.176   3.409   4.631  1.3444  0.1175  2.7447
17879SOL     OW60876  11.927   1.888  11.779  0.6482 -0.8859  0.2556
17879SOL    HW160877  11.923   1.899  11.874 -0.8126  0.3704  0.0781
17879SOL    HW260878  11.855   1.829  11.758 -0.4839  0.6051 -0.2588
17880SOL     OW60879   2.348   3.807   2.579  0.2046 -0.1742 -0.2069
17880SOL    HW160880   2.358   3.900   2.597  0.0803 -0.1147 -0.4400
17880SOL    HW260881   2.378   3.797   2.489 -0.1686 -0.2881 -0.3203
17881SOL     OW60882  10.739   3.712  10.300  0.1926 -0.5870  0.1117
17881SOL    HW160883  10.729   3.777  10.370 -0.1529 -1.1344  0.5747
17881SOL    HW260884  10.738   3.764  10.219 -0.7208 -0.0789  0.4396
17882SOL     OW60885   7.028  12.008   1.795 -1.1715 -0.7112 -0.1664
17882SOL    HW160886   6.967  12.074   1.828 -2.2630 -1.0536 -1.3825
17882SOL    HW260887   7.114  12.039   1.820 -1.7578  0.5130  0.4065
17883SOL     OW60888   5.471  12.217  11.990 -0.2660  0.7015 -0.2183
17883SOL    HW160889   5.511  12.300  11.965 -1.3782  0.6397 -2.4049
17883SOL    HW260890   5.380  12.240  12.012  0.6192  0.7774  4.2367
17884SOL     OW60891   0.443   3.395  12.451 -0.0781  0.7928  0.2717
17884SOL    HW160892   0.369   3.387  12.512 -0.8690  1.2181 -0.6070
17884SOL    HW260893   0.483   3.479  12.472  0.1139  0.6038  0.6856
17885SOL     OW60894   5.228   2.476   6.431  0.5203  0.3928 -0.3530
17885SOL    HW160895   5.196   2.532   6.360  1.7606  1.5465 -0.0494
17885SOL    HW260896   5.316   2.450   6.403  1.0741  0.9631  0.7831
17886SOL     OW60897  10.759   8.628   3.505  0.1803  0.1088  0.0704
17886SOL    HW160898  10.759   8.624   3.601 -0.7405 -1.0605  0.0363
17886SOL    HW260899  10.668   8.641   3.481 -0.1644 -2.9621 -0.7077
17887SOL     OW60900   4.211   8.720  12.106  0.4719 -0.2483 -0.8536
17887SOL    HW160901   4.117   8.737  12.118  0.4903 -0.6706 -0.0271
17887SOL    HW260902   4.217   8.625  12.104  0.9208 -0.2238 -0.6066
17888SOL     OW60903   9.006   2.988  11.571 -0.1350  0.2071 -0.8573
17888SOL    HW160904   9.071   3.000  11.502  0.7530  0.5987  0.0268
17888SOL    HW260905   9.038   2.914  11.623 -0.3843  0.4003 -0.4133
17889SOL     OW60906   0.961   6.456   0.802  0.4349 -0.3748  0.7528
17889SOL    HW160907   1.020   6.515   0.755 -1.1753  1.5163  0.9852
17889SOL    HW260908   1.007   6.436   0.884  0.9159  0.7287  0.7652
17890SOL     OW60909   4.205   8.313  11.342 -0.3047 -0.8198 -0.1130
17890SOL    HW160910   4.171   8.317  11.253 -0.7606  1.7730  0.0767
17890SOL    HW260911   4.300   8.317  11.333 -0.3733  1.0836 -0.5342
17891SOL     OW60912   2.606  12.706  12.436 -0.2874  0.0135 -0.4859
17891SOL    HW160913   2.641  12.788  12.401  0.2221  0.4911  1.0747
17891SOL    HW260914   2.512  12.710  12.417 -0.1974  0.7561 -0.8082
17892SOL     OW60915   4.076   6.855   4.962 -0.0621 -0.6722  0.0608
17892SOL    HW160916   4.016   6.871   4.888  0.4291 -0.9281 -0.4028
17892SOL    HW260917   4.042   6.776   5.003  0.5293 -1.3928 -0.8115
17893SOL     OW60918  12.035   4.875   6.155  0.3643 -0.0792 -0.6547
17893SOL    HW160919  12.120   4.919   6.148  0.4979 -0.2877 -0.3638
17893SOL    HW260920  12.046   4.794   6.106  0.3423 -0.1204 -0.5906
17894SOL     OW60921   3.226   6.334   0.355 -0.3569  0.0766  0.2529
17894SOL    HW160922   3.233   6.284   0.273 -1.9700 -0.0937  0.1787
17894SOL    HW260923   3.131   6.341   0.371 -0.0796 -0.7745  2.6561
17895SOL     OW60924   4.710   3.726   0.460 -0.3933 -0.0800  0.0841
17895SOL    HW160925   4.647   3.785   0.501 -1.0819 -0.7409 -0.0031
17895SOL    HW260926   4.780   3.783   0.429 -0.8080  0.6336  0.4373
17896SOL     OW60927   2.303   7.723   1.046 -0.0809 -0.6693  0.3831
17896SOL    HW160928   2.284   7.724   0.952  2.5567  1.9831 -0.2510
17896SOL    HW260929   2.246   7.790   1.083 -0.3059 -0.9189  0.4916
17897SOL     OW60930   5.379   2.255   8.604 -0.4348 -0.1010  0.2474
17897SOL    HW160931   5.293   2.225   8.573 -0.0631  0.5242 -1.4944
17897SOL    HW260932   5.378   2.349   8.591 -0.8540  0.5466  3.8351
17898SOL     OW60933   7.440   0.237   9.255  0.4900 -0.2369 -0.2082
17898SOL    HW160934   7.438   0.330   9.275 -3.8531  0.2333 -1.7874
17898SOL    HW260935   7.430   0.194   9.340  3.5153  0.5113  0.6588
17899SOL     OW60936   5.071   7.800   5.163 -0.0377  0.4515 -0.4650
17899SOL    HW160937   4.986   7.823   5.200  0.7044  1.7869  0.5111
17899SOL    HW260938   5.066   7.828   5.071 -0.7940  0.1000 -0.5337
17900SOL     OW60939   7.230   4.872  12.120 -0.0038  1.0499  0.2528
17900SOL    HW160940   7.245   4.803  12.185 -0.7696 -0.2945 -0.9170
17900SOL    HW260941   7.277   4.948  12.154  0.4426  0.1142  1.8641
17901SOL     OW60942  12.283   6.017   9.822 -0.0012 -0.0510  0.1530
17901SOL    HW160943  12.192   6.048   9.824  0.2886  0.8505 -0.3954
17901SOL    HW260944  12.331   6.085   9.775  1.3139  0.3581  1.9742
17902SOL     OW60945   8.521   8.443   5.009  0.1380  0.6427 -0.2188
17902SOL    HW160946   8.526   8.356   5.050 -0.9972  0.4782 -0.3865
17902SOL    HW260947   8.442   8.483   5.047 -0.6079  0.7261 -1.7667
17903SOL     OW60948   6.567   9.798  10.579  0.4975  0.1343  0.0633
17903SOL    HW160949   6.652   9.817  10.538  0.0326  0.1929 -0.8996
17903SOL    HW260950   6.502   9.820  10.512 -0.2330 -1.1275  0.3090
17904SOL     OW60951  10.392   3.884  10.230 -0.7502 -0.1561 -0.3573
17904SOL    HW160952  10.404   3.829  10.308 -2.0204 -0.1593 -0.1463
17904SOL    HW260953  10.297   3.897  10.224 -0.4714  2.2750 -0.2292
17905SOL     OW60954   8.666   8.046   6.383  0.3096  0.6290 -0.3975
17905SOL    HW160955   8.760   8.044   6.362  0.3788  0.7213 -0.1041
17905SOL    HW260956   8.626   7.986   6.320  0.4937  1.0149 -0.8848
17906SOL     OW60957  11.179   6.144   6.336  0.7437 -0.7082  0.2569
17906SOL    HW160958  11.087   6.118   6.345  0.4930 -0.0053 -0.1686
17906SOL    HW260959  11.176   6.238   6.321  1.6129 -0.4411  1.5270
17907SOL     OW60960   3.036   7.490   2.492  0.0223  0.1413  0.6583
17907SOL    HW160961   3.061   7.570   2.446 -1.1445 -0.0888 -0.4132
17907SOL    HW260962   2.972   7.518   2.557 -1.9364 -0.1453 -1.0663
17908SOL     OW60963   4.861  12.152   5.947 -0.1709  0.3762 -0.3472
17908SOL    HW160964   4.833  12.191   5.865 -0.9981 -0.5772 -0.5443
17908SOL    HW260965   4.909  12.073   5.921 -0.5557 -0.0063  0.0763
17909SOL     OW60966  10.982  12.365  10.746 -0.1575 -0.5477 -0.6316
17909SOL    HW160967  11.029  12.443  10.777  0.6989 -0.9445 -0.9192
17909SOL    HW260968  10.895  12.372  10.787  0.4860 -0.3493  0.7536
17910SOL     OW60969   9.299   4.238  10.366 -0.4602 -0.1092 -0.5383
17910SOL    HW160970   9.205   4.224  10.378 -0.3827 -1.0875 -0.9777
17910SOL    HW260971   9.339   4.154  10.387  0.3006  0.2385 -0.5707
17911SOL     OW60972  10.985   5.773  10.458 -0.2735 -0.0646 -0.2374
17911SOL    HW160973  11.053   5.724  10.503  0.8749  2.4034  0.8995
17911SOL    HW260974  11.013   5.776  10.367  0.1489 -0.6450 -0.1281
17912SOL     OW60975   6.445  12.506   4.345  0.8099 -0.2583 -0.0271
17912SOL    HW160976   6.365  12.459   4.368  1.3590 -0.8721  0.6868
17912SOL    HW260977   6.513  12.439   4.342  1.3750  0.3075 -0.2567
17913SOL     OW60978   0.809   4.850   5.970 -0.0149  0.3832  0.0195
17913SOL    HW160979   0.772   4.935   5.946 -0.4012  0.5332  1.1153
17913SOL    HW260980   0.832   4.810   5.886  1.2955  2.0603 -0.4650
17914SOL     OW60981   5.121   0.591   7.198 -0.1184  0.1908 -0.0903
17914SOL    HW160982   5.137   0.664   7.258 -1.1119  1.5816 -1.4461
17914SOL    HW260983   5.205   0.544   7.195  0.3095  0.7812  1.4078
17915SOL     OW60984   6.154   5.269  11.107 -0.1066 -0.5049  0.2266
17915SOL    HW160985   6.193   5.183  11.090 -1.0087 -1.4013  2.2519
17915SOL    HW260986   6.073   5.269  11.057 -1.4958 -2.0612  2.2803
17916SOL     OW60987   3.750   1.218   0.687 -0.0833 -0.7805 -0.0222
17916SOL    HW160988   3.822   1.278   0.666 -0.3492 -0.2545  0.5456
17916SOL    HW260989   3.785   1.131   0.669  0.5870 -0.5078 -0.0552
17917SOL     OW60990  12.074   0.912   2.123  0.0994 -0.0001 -0.1227
17917SOL    HW160991  12.028   0.924   2.040 -2.2217 -1.2827  0.8864
17917SOL    HW260992  12.053   0.990   2.174  2.6975  1.4885 -1.1365
17918SOL     OW60993   9.556   4.703   3.482  0.4479 -0.3281  0.0077
17918SOL    HW160994   9.482   4.762   3.467  0.8177 -0.0346 -0.7181
17918SOL    HW260995   9.563   4.652   3.401 -0.3617 -1.9503  0.9189
17919SOL     OW60996   9.779   7.876   0.686  0.0206 -0.3766  0.1495
17919SOL    HW160997   9.698   7.910   0.725 -0.0244 -1.2319  0.8340
17919SOL    HW260998   9.821   7.953   0.648 -0.0150  0.4826  1.7540
17920SOL     OW60999   3.246   9.693   8.567 -0.5945 -0.4861 -1.0881
17920SOL    HW161000   3.175   9.639   8.602  0.0067  0.5425  2.0467
17920SOL    HW261001   3.323   9.668   8.619 -0.0923  2.6291 -0.1652
17921SOL     OW61002   0.721   8.083  10.959 -0.4113 -0.3892  0.8416
17921SOL    HW161003   0.769   8.163  10.937 -1.2976 -0.6440 -2.6289
17921SOL    HW261004   0.629   8.110  10.960 -0.5528 -0.8281  2.6686
17922SOL     OW61005   7.927   1.678   4.034  0.1915 -0.2532 -0.5778
17922SOL    HW161006   7.898   1.693   3.944 -0.9450  0.0423 -0.1766
17922SOL    HW261007   7.876   1.603   4.064 -0.8403  0.8079  0.4200
17923SOL     OW61008  10.002   8.657   3.380  0.2704 -0.3190  0.1517
17923SOL    HW161009  10.011   8.627   3.471  0.0590  0.5390  0.4642
17923SOL    HW261010   9.925   8.611   3.348 -0.9427  0.9776  1.0970
17924SOL     OW61011   2.468   8.009   5.760 -0.2078 -0.3473 -0.1053
17924SOL    HW161012   2.531   8.080   5.766  1.2334 -1.2616 -2.8216
17924SOL    HW261013   2.505   7.939   5.815 -0.5458  0.2220  0.8693
17925SOL     OW61014   5.989   1.394   8.148 -0.0242 -0.1793  0.1869
17925SOL    HW161015   5.965   1.461   8.213 -1.1026 -1.0798  0.7472
17925SOL    HW261016   6.060   1.434   8.098 -2.0105  2.2327 -0.8916
17926SOL     OW61017   0.472   3.107   1.047  0.3822  0.4939  0.0662
17926SOL    HW161018   0.506   3.087   0.960  2.4677  1.8046  0.4832
17926SOL    HW261019   0.533   3.174   1.081 -0.4612  0.1448  2.4525
17927SOL     OW61020   8.677   9.723   0.112 -0.1540  0.1131 -0.0456
17927SOL    HW161021   8.749   9.730   0.050 -0.2350  1.7376 -0.0111
17927SOL    HW261022   8.601   9.700   0.059 -0.2376  1.5464 -0.6030
17928SOL     OW61023   2.289   8.605   5.209  0.0529  0.7464  0.0748
17928SOL    HW161024   2.261   8.695   5.195 -2.4029 -0.1202 -1.3181
17928SOL    HW261025   2.209   8.553   5.196  1.4077 -1.6519  0.6446
17929SOL     OW61026   1.024   2.563   5.379  0.2126 -0.0924  0.1571
17929SOL    HW161027   1.000   2.654   5.361 -0.8831 -0.5098 -0.6103
17929SOL    HW261028   0.961   2.511   5.329  0.4546 -1.2860  1.0395
17930SOL     OW61029   1.100  11.118   8.119 -0.5735 -0.2062  0.4310
17930SOL    HW161030   1.055  11.094   8.200 -2.6183 -0.7739 -0.7791
17930SOL    HW261031   1.049  11.192   8.085 -0.5617 -0.7977 -0.9493
17931SOL     OW61032   0.814   7.405   6.655 -0.1088 -0.4150  0.2871
17931SOL    HW161033   0.890   7.375   6.705  0.3006  0.9548  0.5391
17931SOL    HW261034   0.771   7.468   6.713  0.3246  1.1589 -1.0099
17932SOL     OW61035   9.445   2.672   8.359 -0.7012  0.4419 -0.0322
17932SOL    HW161036   9.489   2.712   8.433 -1.7591  1.5899  0.0002
17932SOL    HW261037   9.453   2.736   8.288 -1.5277  0.2732 -0.2871
17933SOL     OW61038   7.135  10.991   5.885 -0.8673  0.0857  0.0569
17933SOL    HW161039   7.230  10.983   5.896 -1.0209 -0.2871  1.3863
17933SOL    HW261040   7.099  10.933   5.953 -2.0302  1.3711  0.5786
17934SOL     OW61041   5.112   8.924   6.173  0.1960  0.0220  0.1158
17934SOL    HW161042   5.120   8.838   6.213  1.5416  0.2247  0.3269
17934SOL    HW261043   5.089   8.906   6.082 -2.0038 -0.4659  0.7040
17935SOL     OW61044   0.341   3.522   9.863  0.0146  0.1504 -0.4698
17935SOL    HW161045   0.330   3.607   9.821  0.0845 -0.1863 -1.1958
17935SOL    HW261046   0.428   3.526   9.904 -0.5579  0.9181  0.7143
17936SOL     OW61047   9.934   9.768   6.658 -0.0202 -0.2377 -0.4033
17936SOL    HW161048   9.935   9.703   6.588 -1.5233 -1.4016  0.5775
17936SOL    HW261049   9.969   9.721   6.734 -2.0021 -0.2907  0.5600
17937SOL     OW61050   7.759   1.044   7.268  0.2046  0.0988  0.0413
17937SOL    HW161051   7.686   1.023   7.209  1.3932 -0.3781 -1.3176
17937SOL    HW261052   7.769   1.139   7.261 -0.1376  0.1362  0.0519
17938SOL     OW61053   8.149  10.582   0.824  0.0618  0.0031  0.2648
17938SOL    HW161054   8.130  10.669   0.788 -1.5296  0.9978  3.1723
17938SOL    HW261055   8.240  10.586   0.851 -0.2767  1.1815  1.3036
17939SOL     OW61056   1.662   6.832   1.186 -0.4014 -0.2282 -0.8187
17939SOL    HW161057   1.583   6.864   1.142 -0.7492 -0.0206 -0.0591
17939SOL    HW261058   1.629   6.770   1.252 -0.1172  1.3023  0.8362
17940SOL     OW61059   0.110  11.066   6.751 -0.3302  0.1186 -0.6163
17940SOL    HW161060   0.049  11.091   6.682 -0.7079 -0.0752 -0.3568
17940SOL    HW261061   0.123  11.146   6.802  0.1231  0.3193 -1.0369
17941SOL     OW61062   6.325   6.189  12.430 -0.2316 -0.2664 -0.1420
17941SOL    HW161063   6.233   6.207  12.414 -0.0824  0.2659 -0.4402
17941SOL    HW261064   6.339   6.212  12.522  0.0293  1.5602 -0.5883
17942SOL     OW61065   4.855   4.523   0.813  0.1281 -0.0770 -0.4598
17942SOL    HW161066   4.916   4.529   0.739  0.9695  0.5827  0.2615
17942SOL    HW261067   4.779   4.574   0.787 -0.0869 -0.8126 -1.3252
17943SOL     OW61068   0.826   3.612   3.849  0.1506  0.5997  0.2624
17943SOL    HW161069   0.803   3.606   3.942 -1.5511 -1.0392 -0.1876
17943SOL    HW261070   0.817   3.705   3.827 -0.4071  0.8628  1.5223
17944SOL     OW61071   5.245   3.169   0.812  0.2124 -0.3467  0.2070
17944SOL    HW161072   5.202   3.115   0.879  1.0881  2.4923  3.3008
17944SOL    HW261073   5.179   3.233   0.786  0.3218 -0.5673 -0.6482
17945SOL     OW61074   4.652   5.000   4.592 -0.1623 -0.0713 -0.1525
17945SOL    HW161075   4.725   5.005   4.531 -1.8477  3.1208 -2.2136
17945SOL    HW261076   4.608   4.918   4.572  0.8472 -0.3397 -1.3628
17946SOL     OW61077  12.038   3.939  10.820 -0.1461  0.4414 -0.1731
17946SOL    HW161078  12.124   3.968  10.790 -0.0692  0.6304  0.2248
17946SOL    HW261079  12.031   3.849  10.788  0.7224 -0.0027  0.8350
17947SOL     OW61080   3.259  11.289   8.184 -0.4440  0.1312  0.1582
17947SOL    HW161081   3.309  11.211   8.209 -2.4412 -2.2702 -2.6111
17947SOL    HW261082   3.195  11.300   8.255 -2.0258 -2.7141 -0.6403
17948SOL     OW61083   1.146  10.082   4.250  0.0491 -0.2611 -0.2528
17948SOL    HW161084   1.099  10.120   4.325 -0.0293  1.2658 -1.0378
17948SOL    HW261085   1.233  10.122   4.254  0.8293 -1.9338  0.3238
17949SOL     OW61086  10.097   2.727  11.636 -0.7205  0.2706  0.5237
17949SOL    HW161087  10.079   2.718  11.543 -2.7779  0.5261  0.8614
17949SOL    HW261088  10.128   2.817  11.646 -0.1867  0.1467  0.0652
17950SOL     OW61089   9.917   0.866   3.228  0.6953  0.0944  0.2618
17950SOL    HW161090   9.874   0.782   3.244  0.9702 -0.0008  0.5182
17950SOL    HW261091   9.992   0.866   3.288  1.5843 -0.1377 -0.8261
17951SOL     OW61092   4.133  12.457  10.747 -0.4584  0.0272 -0.1321
17951SOL    HW161093   4.158  12.461  10.839 -1.7996  2.3071  0.2120
17951SOL    HW261094   4.122  12.549  10.721 -3.9015 -0.6214 -1.4525
17952SOL     OW61095   0.197  10.591  10.162  0.2162  0.4056  0.6686
17952SOL    HW161096   0.193  10.619  10.253  0.9068 -0.5217  0.9936
17952SOL    HW261097   0.181  10.671  10.112 -0.8480  0.7903  1.6005
17953SOL     OW61098   8.482   5.406   5.914 -0.3516  0.2234 -0.9745
17953SOL    HW161099   8.483   5.356   5.832 -1.4861 -1.1458 -0.1859
17953SOL    HW261100   8.571   5.441   5.921  0.6869 -2.1526 -1.2890
17954SOL     OW61101   3.563   3.835   0.397 -0.3404 -0.2755  0.0514
17954SOL    HW161102   3.524   3.785   0.469 -1.2351 -0.4443 -0.5201
17954SOL    HW261103   3.580   3.922   0.433  1.1078 -0.9404  1.0225
17955SOL     OW61104   2.464  11.641   7.902  0.2544 -0.0330 -0.5998
17955SOL    HW161105   2.548  11.596   7.902  1.2532  1.7004  1.0261
17955SOL    HW261106   2.448  11.663   7.993  0.1164  3.3150 -1.3056
17956SOL     OW61107   8.691   0.347  11.322  0.3168  0.3474 -0.0296
17956SOL    HW161108   8.741   0.371  11.244 -0.6510  0.7328 -0.5429
17956SOL    HW261109   8.610   0.310  11.288 -0.6580  1.6587  0.7755
17957SOL     OW61110   9.515  12.138   9.773 -0.6661  0.7123 -0.2014
17957SOL    HW161111   9.559  12.053   9.780  0.8032  1.4657  0.0784
17957SOL    HW261112   9.524  12.162   9.680 -1.1361  0.5392 -0.2931
17958SOL     OW61113  11.863   1.848   2.858 -0.3738  0.1520  0.3273
17958SOL    HW161114  11.897   1.849   2.948 -0.9220  1.3631  0.5431
17958SOL    HW261115  11.783   1.901   2.863 -0.5934 -0.0617 -0.8109
17959SOL     OW61116   7.919  10.132  12.311 -0.1794 -0.5267 -0.3421
17959SOL    HW161117   7.915  10.177  12.227  0.8038 -0.0484 -0.1494
17959SOL    HW261118   7.956  10.196  12.371 -0.7868 -0.8931  0.4381
17960SOL     OW61119   7.677  12.073   7.218 -0.7564  0.1011 -0.2657
17960SOL    HW161120   7.752  12.132   7.224  0.2447 -1.0094 -1.2565
17960SOL    HW261121   7.628  12.104   7.142  0.7787 -1.3641 -1.9530
17961SOL     OW61122   3.344   0.122   9.102  0.0355 -0.5534  0.0232
17961SOL    HW161123   3.286   0.096   9.173  0.9255  0.3350  1.1184
17961SOL    HW261124   3.291   0.177   9.045 -0.0034  1.0542  1.5223
17962SOL     OW61125   9.810   7.155   5.987 -0.1398 -0.1128  0.1276
17962SOL    HW161126   9.742   7.188   5.928 -0.7568  0.1857  0.9833
17962SOL    HW261127   9.884   7.214   5.972  0.5122 -1.3393 -1.9062
17963SOL     OW61128   4.494   6.862   7.720 -0.6003 -0.0855  0.1994
17963SOL    HW161129   4.562   6.870   7.654  0.3174  0.6138  1.1943
17963SOL    HW261130   4.531   6.803   7.786 -0.7925  0.5789  0.9204
17964SOL     OW61131   1.650   1.608   6.279  0.2401 -0.0545 -0.0742
17964SOL    HW161132   1.583   1.646   6.222  0.7906 -1.2420 -1.5961
17964SOL    HW261133   1.605   1.537   6.325  0.3566 -0.7049 -0.9262
17965SOL     OW61134   7.157   1.465   2.224 -0.1411  0.5606  0.0937
17965SOL    HW161135   7.153   1.560   2.229  0.1824  0.5163  1.7070
17965SOL    HW261136   7.092   1.442   2.157 -0.9815  1.8453  0.4352
17966SOL     OW61137   7.146   5.484  11.012  0.2558  0.3603 -0.2354
17966SOL    HW161138   7.081   5.532  10.961  0.3582 -0.1586 -0.8731
17966SOL    HW261139   7.110   5.483  11.101 -1.3471 -1.1397 -0.8365
17967SOL     OW61140   7.564   6.273   9.749  0.5583  0.1091 -0.0257
17967SOL    HW161141   7.488   6.291   9.694  1.6511  2.3601 -0.9277
17967SOL    HW261142   7.539   6.303   9.836 -0.8856 -2.7190  0.6497
17968SOL     OW61143   6.643  12.578   9.055  0.6538  0.1084 -0.1647
17968SOL    HW161144   6.691  12.549   9.133 -1.4575 -1.6399  0.5950
17968SOL    HW261145   6.706  12.566   8.983  1.7477 -0.9937  0.9084
17969SOL     OW61146   6.383  12.598   4.043 -0.3917 -0.5837  0.8777
17969SOL    HW161147   6.455  12.607   4.105  1.0952 -0.9024 -0.7216
17969SOL    HW261148   6.414  12.533   3.980 -1.6190  0.1152 -0.4969
17970SOL     OW61149   5.991  10.253   8.022 -0.5831 -0.0833  0.3726
17970SOL    HW161150   6.005  10.163   8.051 -1.1858  0.0345  1.0585
17970SOL    HW261151   5.981  10.247   7.927  2.2202 -0.4055 -0.0101
17971SOL     OW61152   1.053   0.869   0.329 -0.3837  0.1946 -0.4667
17971SOL    HW161153   1.037   0.918   0.249  1.5015 -0.5502 -1.3603
17971SOL    HW261154   1.122   0.917   0.374 -0.9024  0.1991  0.3512
17972SOL     OW61155   5.792  10.156  11.125 -0.3412 -0.1903  0.0342
17972SOL    HW161156   5.777  10.141  11.031  2.4981 -0.3329 -0.4819
17972SOL    HW261157   5.738  10.232  11.146  0.3653  0.9991 -2.1880
17973SOL     OW61158   7.838   7.194   9.993 -0.2400 -0.5453 -0.0318
17973SOL    HW161159   7.766   7.191   9.929 -0.6332 -1.0904  0.4244
17973SOL    HW261160   7.891   7.117   9.974 -0.0517 -0.4141 -0.0460
17974SOL     OW61161   7.354  10.501   3.345 -0.2222 -0.3992 -0.4162
17974SOL    HW161162   7.345  10.596   3.348 -0.6987 -0.3317 -2.2604
17974SOL    HW261163   7.446  10.484   3.364 -0.1821  0.4111  0.1467
17975SOL     OW61164  12.123   1.400  10.244  0.1999 -0.1966 -0.3472
17975SOL    HW161165  12.166   1.344  10.308  1.1530  2.6729  1.6843
17975SOL    HW261166  12.192   1.424  10.182  0.7918  1.6072  0.9273
17976SOL     OW61167  11.703   0.876  11.489  0.4776  0.0267 -0.4510
17976SOL    HW161168  11.653   0.957  11.495 -0.6321 -0.4845 -1.9137
17976SOL    HW261169  11.645   0.809  11.526  0.0921 -0.5371 -1.9679
17977SOL     OW61170   4.590   6.503   8.689 -0.4713  0.0072  0.3949
17977SOL    HW161171   4.607   6.503   8.783  0.2572 -0.1924  0.2696
17977SOL    HW261172   4.677   6.505   8.649 -0.7115 -1.6680 -0.2750
17978SOL     OW61173   6.964   6.985   5.498  0.2336  0.2877  0.3584
17978SOL    HW161174   7.034   7.048   5.482  0.8393 -0.6532 -0.8179
17978SOL    HW261175   6.890   7.018   5.447  0.1719  0.6650  0.6868
17979SOL     OW61176  12.504  10.436  11.101  0.5229  0.3945 -0.5336
17979SOL    HW161177  12.566  10.395  11.162  0.4577 -0.0613 -0.7643
17979SOL    HW261178  12.537  10.412  11.014  1.9916  2.9983 -0.8110
17980SOL     OW61179   9.198   1.561   1.606  0.6057  0.1949 -0.4067
17980SOL    HW161180   9.156   1.481   1.640  1.7499 -0.1940  0.1764
17980SOL    HW261181   9.262   1.584   1.674  0.9109  1.0985 -0.9890
17981SOL     OW61182   4.437   4.086   5.222 -0.5221  0.3939 -0.2529
17981SOL    HW161183   4.499   4.064   5.152 -1.4533  1.2180 -1.3798
17981SOL    HW261184   4.351   4.067   5.185 -0.9652 -1.6490  1.6248
17982SOL     OW61185   6.668   6.348   8.144  0.6824 -0.1424  0.4104
17982SOL    HW161186   6.648   6.298   8.223  0.5614 -0.8231 -0.0457
17982SOL    HW261187   6.716   6.287   8.088  1.6910  0.6553  0.3846
17983SOL     OW61188   7.903  10.971   9.691 -0.3558 -0.1044  0.2943
17983SOL    HW161189   7.869  10.885   9.670  0.0657  0.0718 -1.1654
17983SOL    HW261190   7.893  10.978   9.786 -0.9082 -1.5234  0.3560
17984SOL     OW61191   5.998   2.271   4.426 -0.3178  0.7228 -0.2295
17984SOL    HW161192   6.008   2.337   4.358  2.2418  0.4813 -0.1709
17984SOL    HW261193   5.979   2.190   4.379  0.9241  0.6591 -0.6436
17985SOL     OW61194   8.920   1.172   9.513 -0.3623  0.1526 -0.5003
17985SOL    HW161195   8.912   1.084   9.476 -1.2402 -0.3597  0.8709
17985SOL    HW261196   8.945   1.227   9.438  0.5629 -1.3037 -1.3076
17986SOL     OW61197   3.915   3.615  11.490 -0.0205 -0.0041 -0.6871
17986SOL    HW161198   3.860   3.551  11.445  0.9606 -0.1291 -1.7311
17986SOL    HW261199   4.005   3.588  11.472  0.4043  0.8748  0.0149
17987SOL     OW61200   4.460  12.598   1.525 -0.7547 -0.5083  0.3493
17987SOL    HW161201   4.532  12.635   1.474 -0.9564 -1.0865 -0.3757
17987SOL    HW261202   4.451  12.657   1.599 -0.2720  0.2079 -0.1431
17988SOL     OW61203   5.279   6.548   6.168 -0.2773  0.3012  0.0171
17988SOL    HW161204   5.272   6.643   6.158 -0.1310  0.3960  0.7849
17988SOL    HW261205   5.370   6.528   6.146  0.4547  0.6931  2.3759
17989SOL     OW61206  10.843   5.505   2.562  0.4469  0.0092 -0.2746
17989SOL    HW161207  10.900   5.579   2.583  1.3025 -1.0027  1.1341
17989SOL    HW261208  10.754   5.538   2.573  0.8185  0.2955  2.5032
17990SOL     OW61209   0.754   3.026   5.268 -0.0817  0.2629 -0.1247
17990SOL    HW161210   0.808   3.048   5.192 -0.8591 -1.0891 -1.1134
17990SOL    HW261211   0.664   3.037   5.238 -0.3943  0.8990  0.9939
17991SOL     OW61212  11.019   8.915   6.295  0.0064  0.2215  0.6343
17991SOL    HW161213  10.994   8.982   6.231  1.8489 -0.2025 -0.5925
17991SOL    HW261214  11.061   8.964   6.366 -1.0490  0.5798  1.0442
17992SOL     OW61215  10.411   2.586   1.484 -0.4306 -0.0179  0.2995
17992SOL    HW161216  10.423   2.612   1.575 -0.4825 -0.5796  0.4763
17992SOL    HW261217  10.404   2.490   1.488  1.3747 -0.2288 -0.4808
17993SOL     OW61218   8.501   2.043   0.892  0.1172 -0.9167  0.3801
17993SOL    HW161219   8.566   1.979   0.921  0.8462  1.0069  3.5870
17993SOL    HW261220   8.551   2.124   0.881 -1.3495  0.0174  0.3520
17994SOL     OW61221  10.469   1.375   9.336 -0.2956 -0.7135 -0.0673
17994SOL    HW161222  10.380   1.363   9.369 -0.2435 -1.1277 -0.0698
17994SOL    HW261223  10.522   1.389   9.414 -0.6320  1.4679 -0.1517
17995SOL     OW61224   5.561   7.622   4.802 -0.3132  0.6068 -0.1510
17995SOL    HW161225   5.588   7.650   4.714 -5.4207  0.4210 -2.1180
17995SOL    HW261226   5.559   7.527   4.798  2.6952  0.3557  1.5173
17996SOL     OW61227   6.080   6.904   0.289 -0.5271  0.1492  0.2312
17996SOL    HW161228   6.085   6.843   0.363 -0.3254 -0.6896 -0.4559
17996SOL    HW261229   6.111   6.987   0.324  0.7620 -0.5355  0.7805
17997SOL     OW61230   6.611   1.429  11.099  0.1819  0.4177  0.2297
17997SOL    HW161231   6.518   1.428  11.122  0.0103  1.0463 -0.4168
17997SOL    HW261232   6.614   1.399  11.008  0.7970 -1.4043  0.7970
17998SOL     OW61233   7.755   9.975   6.171  0.1688 -0.2962 -0.2727
17998SOL    HW161234   7.764   9.976   6.075  0.4793 -0.3672 -0.2471
17998SOL    HW261235   7.783   9.887   6.196  0.0169 -0.3010 -0.1205
17999SOL     OW61236  12.638   3.417   7.299 -0.0150  0.1413 -0.3984
17999SOL    HW161237  12.704   3.359   7.335 -1.5866 -1.1659  0.4949
17999SOL    HW261238  12.634   3.490   7.361  0.1721 -0.0761 -0.1281
18000SOL     OW61239   3.189  12.687   6.938  0.0605 -0.0246  0.1782
18000SOL    HW161240   3.125  12.659   6.874 -0.1431  0.4617  0.1612
18000SOL    HW261241   3.248  12.612   6.949  0.3811  0.0580 -0.9276
18001SOL     OW61242   3.091   1.293   3.154 -0.0848  0.5622 -0.2797
18001SOL    HW161243   3.137   1.370   3.122  0.4046  0.2627 -0.3172
18001SOL    HW261244   3.087   1.234   3.078 -0.6809  0.6517 -0.3223
18002SOL     OW61245   1.916   3.276   9.456  0.3578  0.6047  0.8561
18002SOL    HW161246   1.899   3.210   9.388  1.3522 -0.4543  1.6001
18002SOL    HW261247   1.829   3.309   9.479 -0.2731 -1.0858  1.0786
18003SOL     OW61248   9.482  10.733   4.765  0.3367  0.1595  0.0474
18003SOL    HW161249   9.476  10.697   4.676  0.4594 -0.9262  0.4696
18003SOL    HW261250   9.477  10.657   4.822  2.0882  0.6559  0.9269
18004SOL     OW61251   6.027  11.641   1.967  0.2342 -0.0289  0.4863
18004SOL    HW161252   6.112  11.681   1.986 -0.2892  2.3710 -1.6319
18004SOL    HW261253   5.971  11.671   2.038  0.8443 -0.5600  1.2044
18005SOL     OW61254   2.980   7.841  11.774  0.8093  0.1992  0.7773
18005SOL    HW161255   2.956   7.919  11.725  0.2660 -0.1764  0.4256
18005SOL    HW261256   2.939   7.853  11.860 -0.9235 -0.5465  0.1007
18006SOL     OW61257   3.311   4.742   7.955  0.0851 -0.3253 -0.2218
18006SOL    HW161258   3.375   4.783   8.013 -1.5861  0.9549  0.8203
18006SOL    HW261259   3.348   4.753   7.868  1.4886 -0.0385  0.3775
18007SOL     OW61260   8.070   4.256   6.125  0.4392  0.1849 -0.3058
18007SOL    HW161261   8.071   4.322   6.056  0.0236 -0.7180 -1.1977
18007SOL    HW261262   8.122   4.295   6.196 -0.3824  1.7519 -0.5189
18008SOL     OW61263   1.157  11.975   6.404  0.5443 -0.4385 -0.4061
18008SOL    HW161264   1.192  11.995   6.490  0.2026  0.8708 -0.5570
18008SOL    HW261265   1.138  11.881   6.407  0.4730 -0.3938  0.9472
18009SOL     OW61266   0.579  12.371   0.960 -0.1284  0.6723 -0.0214
18009SOL    HW161267   0.595  12.464   0.949  0.2519  0.6353  0.2321
18009SOL    HW261268   0.648  12.341   1.019 -0.6140  0.3517  0.3932
18010SOL     OW61269   0.080   7.655   7.251 -0.2421  0.6681 -0.0705
18010SOL    HW161270   0.161   7.675   7.299 -0.4792  0.5982  0.3679
18010SOL    HW261271   0.093   7.693   7.165  0.0986  1.0068  0.1274
18011SOL     OW61272  11.825   0.485  11.678  0.5244 -0.0796  0.3272
18011SOL    HW161273  11.897   0.547  11.666 -0.5457  1.4619  1.4656
18011SOL    HW261274  11.778   0.518  11.754 -0.5510 -1.8882  0.4942
18012SOL     OW61275   3.329  11.099   7.169  0.2331  0.2504 -0.2119
18012SOL    HW161276   3.236  11.080   7.159  0.0204  0.6248  0.9353
18012SOL    HW261277   3.359  11.123   7.081 -1.0950  1.6225 -0.3129
18013SOL     OW61278   8.134   1.360   3.177  0.7862  0.1396 -0.5167
18013SOL    HW161279   8.136   1.428   3.244  1.1578 -0.1979 -0.1741
18013SOL    HW261280   8.177   1.285   3.218 -2.0056 -1.2487  0.1020
18014SOL     OW61281   2.263   3.111   7.414  0.2982 -0.8015  0.9458
18014SOL    HW161282   2.241   3.051   7.343 -1.7517  1.4719 -0.5117
18014SOL    HW261283   2.298   3.055   7.483  3.1596 -3.1172 -2.0361
18015SOL     OW61284   7.897   9.877   3.549 -0.3004 -0.2025 -0.1020
18015SOL    HW161285   7.868   9.908   3.463  0.6729  0.8127 -0.0928
18015SOL    HW261286   7.911   9.783   3.537 -2.6690 -0.5922 -0.3269
18016SOL     OW61287   4.049   8.034   1.081  0.8030 -0.4283  0.6526
18016SOL    HW161288   4.092   7.949   1.088 -0.9222 -1.6103 -1.5936
18016SOL    HW261289   3.963   8.019   1.121 -0.0309 -0.2149 -0.9834
18017SOL     OW61290   3.657  10.400  11.636 -0.2815  0.3307 -0.0900
18017SOL    HW161291   3.646  10.371  11.727 -0.3965  1.2100  0.1855
18017SOL    HW261292   3.739  10.450  11.636 -1.2103  1.9042 -0.0513
18018SOL     OW61293   1.906  11.421  10.866  0.2100 -0.8882  0.0680
18018SOL    HW161294   1.953  11.476  10.929  0.1924  2.2042 -2.3388
18018SOL    HW261295   1.975  11.373  10.820  0.5327 -0.6077  0.2518
18019SOL     OW61296   6.319   7.556   8.710 -0.9075  0.1481 -0.2667
18019SOL    HW161297   6.397   7.592   8.752 -0.6022 -0.8738  0.0609
18019SOL    HW261298   6.334   7.570   8.616 -0.2104 -0.2604 -0.2248
18020SOL     OW61299   3.405   3.095   1.617  0.9454  0.2728 -0.4239
18020SOL    HW161300   3.363   3.051   1.543  1.7714  1.2069 -1.4853
18020SOL    HW261301   3.492   3.057   1.621  1.2354  0.9057 -0.5623
18021SOL     OW61302   7.037   1.588  11.953  0.1715 -0.8127  0.3333
18021SOL    HW161303   6.945   1.609  11.944 -0.1872 -2.4303 -0.1984
18021SOL    HW261304   7.083   1.652  11.900 -0.5732  0.4187  1.1325
18022SOL     OW61305   7.472   8.342   2.521  0.0132  0.3644  0.5082
18022SOL    HW161306   7.418   8.370   2.447 -0.0009  2.0360  1.1163
18022SOL    HW261307   7.561   8.369   2.497  0.4039 -1.1615  0.1146
18023SOL     OW61308   4.210   1.267   6.585  0.1375  0.1366 -0.5087
18023SOL    HW161309   4.258   1.349   6.587  0.2594  0.1132 -1.5725
18023SOL    HW261310   4.255   1.214   6.519 -0.0532 -0.7124  0.0228
18024SOL     OW61311   1.324  12.051   4.415 -0.2969 -0.3380 -0.0666
18024SOL    HW161312   1.259  12.016   4.475  0.0675  0.4902  0.8274
18024SOL    HW261313   1.309  12.003   4.333 -1.6273 -0.5766  0.2953
18025SOL     OW61314  10.101  11.139   5.934  0.1629 -0.6510  0.0723
18025SOL    HW161315  10.136  11.067   5.883 -0.9568 -0.7393 -0.6102
18025SOL    HW261316  10.008  11.119   5.944  0.0920  0.0418  0.9980
18026SOL     OW61317   8.044   4.726   0.442  0.0205 -0.1009 -0.2197
18026SOL    HW161318   8.036   4.817   0.470  1.1117  0.3301 -1.2221
18026SOL    HW261319   7.969   4.682   0.482  0.3037  0.9051  1.5268
18027SOL     OW61320   7.461   2.625   2.339  0.2713  0.3094 -0.1623
18027SOL    HW161321   7.388   2.573   2.305  1.5098  0.2945 -3.0979
18027SOL    HW261322   7.524   2.561   2.370  0.0002  0.2394  0.2487
18028SOL     OW61323  12.140   6.205  10.458 -0.5148  0.1565 -0.5160
18028SOL    HW161324  12.095   6.227  10.376 -1.4596  1.9633  0.4292
18028SOL    HW261325  12.100   6.122  10.486 -2.6480  1.2201 -0.2022
18029SOL     OW61326  11.475   1.595   0.056  0.2353 -0.7354  0.3272
18029SOL    HW161327  11.446   1.610   0.146  1.5496 -0.9421  0.8016
18029SOL    HW261328  11.447   1.506   0.035 -1.2433 -0.2325  0.0386
18030SOL     OW61329  10.839   1.899   6.997  0.3355 -0.3771 -0.3901
18030SOL    HW161330  10.888   1.817   6.993 -0.1109 -0.7856  1.6037
18030SOL    HW261331  10.752   1.877   6.965  0.8109 -0.1224 -1.9703
18031SOL     OW61332   8.419   9.014   2.640  0.2854  0.1369  0.0878
18031SOL    HW161333   8.507   8.998   2.674  0.0555  0.1530  0.7003
18031SOL    HW261334   8.434   9.056   2.555  0.9014  3.0689  1.5099
18032SOL     OW61335   9.409   8.261   5.629 -0.1445 -0.1339 -0.2596
18032SOL    HW161336   9.438   8.202   5.560 -2.1753 -0.0822 -1.2437
18032SOL    HW261337   9.461   8.341   5.617  0.2826 -0.5216 -1.0203
18033SOL     OW61338   6.654   0.549   9.599 -0.6569  0.2569  0.4578
18033SOL    HW161339   6.725   0.554   9.663 -0.4352  2.0409  0.1313
18033SOL    HW261340   6.648   0.456   9.577  2.8211  0.2084 -0.8761
18034SOL     OW61341  11.741   1.409  10.120  0.3712 -0.2933  0.0254
18034SOL    HW161342  11.756   1.470  10.193 -1.0033  0.2360 -0.1045
18034SOL    HW261343  11.829   1.379  10.096  0.9277  0.1858  1.3242
18035SOL     OW61344  12.092   0.030   4.439  0.1409 -0.0480 -0.1395
18035SOL    HW161345  12.094   0.110   4.492  1.2508 -1.0043  1.3792
18035SOL    HW261346  12.112   0.059   4.350 -2.6393  1.7352 -0.3041
18036SOL     OW61347   2.185   4.201   0.433  0.6155  0.0150 -0.0219
18036SOL    HW161348   2.281   4.195   0.436  0.6384 -0.2629 -1.0893
18036SOL    HW261349   2.157   4.164   0.517  1.4096 -0.7324 -0.0653
18037SOL     OW61350   2.850  11.327   9.112  0.0082 -0.3509 -0.0277
18037SOL    HW161351   2.853  11.416   9.076  0.9314 -0.0082  0.8243
18037SOL    HW261352   2.920  11.326   9.178 -0.1507 -1.6397  0.1458
18038SOL     OW61353   0.464   8.347   7.984  0.3609  0.2390  0.1457
18038SOL    HW161354   0.508   8.355   8.068  0.7937  1.2721 -0.1682
18038SOL    HW261355   0.511   8.406   7.926  0.3510 -0.7920 -0.9496
18039SOL     OW61356   9.795  12.053   3.452  0.2496  0.6652 -0.3778
18039SOL    HW161357   9.768  12.054   3.360 -0.3558  0.0504 -0.2113
18039SOL    HW261358   9.827  11.964   3.467  1.9944  1.2417 -0.4455
18040SOL     OW61359  11.829   6.943   5.442 -0.1551 -0.9702 -0.2720
18040SOL    HW161360  11.912   6.974   5.406 -0.3401 -0.0333  0.0761
18040SOL    HW261361  11.836   6.959   5.536 -1.3889  0.8220 -0.4122
18041SOL     OW61362  12.413   3.334   4.132  0.0941  0.1453 -0.2742
18041SOL    HW161363  12.508   3.347   4.140 -0.2102  2.1912  0.6529
18041SOL    HW261364  12.377   3.423   4.133 -1.8669 -0.6088 -0.3669
18042SOL     OW61365  10.376   1.829   8.594  0.7060 -0.3666 -0.8314
18042SOL    HW161366  10.292   1.875   8.584  0.8335  0.0167 -0.1222
18042SOL    HW261367  10.404   1.848   8.683  2.0798  0.3975 -1.3905
18043SOL     OW61368   7.376   6.012   2.158  0.1025 -0.1074  0.1799
18043SOL    HW161369   7.350   6.003   2.066  0.1347 -0.5187  0.2076
18043SOL    HW261370   7.295   6.002   2.207  0.0620  0.2637  0.1897
18044SOL     OW61371   4.343   1.491   2.573 -0.0954  0.4534  0.1425
18044SOL    HW161372   4.294   1.571   2.555 -0.0561  0.4897  0.1970
18044SOL    HW261373   4.294   1.422   2.528 -0.5500  0.3903  0.7349
18045SOL     OW61374   8.746   8.833   8.958  0.2353 -0.0198  0.3474
18045SOL    HW161375   8.653   8.849   8.945  0.6350  0.8859 -1.7418
18045SOL    HW261376   8.761   8.853   9.051 -1.6989 -0.5636  0.8059
18046SOL     OW61377  11.150   6.406   8.869 -0.1429 -0.2095 -0.4186
18046SOL    HW161378  11.082   6.416   8.803 -0.1400 -0.4766 -0.4631
18046SOL    HW261379  11.104   6.374   8.947  0.0873 -1.4968 -0.7889
18047SOL     OW61380   2.199   1.291  10.783 -0.0058  0.2149 -0.1914
18047SOL    HW161381   2.289   1.324  10.778  0.0029  0.1453 -0.4781
18047SOL    HW261382   2.170   1.316  10.871 -0.3299  1.8429 -0.7108
18048SOL     OW61383   9.655   0.877  11.082 -0.0566 -0.9158 -0.0846
18048SOL    HW161384   9.701   0.886  11.165 -2.0111  0.2637  0.9634
18048SOL    HW261385   9.583   0.940  11.088 -0.7773 -1.4287 -2.3267
18049SOL     OW61386   3.535   3.853   8.129  0.5345 -0.0942 -0.4441
18049SOL    HW161387   3.542   3.840   8.035  0.8568  0.7438 -0.5419
18049SOL    HW261388   3.454   3.903   8.140  0.4402 -0.2828 -0.2568
18050SOL     OW61389   0.455   3.306   4.344  0.5417 -0.4428 -0.5963
18050SOL    HW161390   0.515   3.336   4.276  1.2144  0.7859  0.5016
18050SOL    HW261391   0.510   3.288   4.420 -0.3787  0.0973  0.2365
18051SOL     OW61392  12.130   2.892   0.419 -0.0274  0.9021 -0.0384
18051SOL    HW161393  12.098   2.808   0.386 -1.5950  0.5906  2.0766
18051SOL    HW261394  12.121   2.951   0.344 -0.3058 -0.4721 -1.1438
18052SOL     OW61395  11.033  12.300   0.417  0.5533 -0.1534 -0.2406
18052SOL    HW161396  10.951  12.271   0.377  1.8401 -1.6525 -1.9762
18052SOL    HW261397  11.059  12.227   0.473 -0.2577  1.1584  2.0002
18053SOL     OW61398   0.910   0.195   2.319  0.7701  0.5436  0.0893
18053SOL    HW161399   1.005   0.190   2.329  0.7376 -0.5001 -0.0967
18053SOL    HW261400   0.878   0.110   2.349 -0.1416  1.0276  0.5268
18054SOL     OW61401   1.118   3.085   1.972  0.4495  0.1733  0.5344
18054SOL    HW161402   1.080   2.997   1.979  0.1801  0.0388 -1.8048
18054SOL    HW261403   1.155   3.102   2.059 -0.6409 -1.6982  1.4359
18055SOL     OW61404   2.376  10.446   5.506 -1.1067 -0.1950 -0.1535
18055SOL    HW161405   2.394  10.540   5.515  0.4874 -0.0934 -3.1316
18055SOL    HW261406   2.281  10.441   5.498 -1.0708  1.5269 -2.5434
18056SOL     OW61407   5.297   0.010   9.975 -0.3229 -0.2176 -0.6835
18056SOL    HW161408   5.388   0.002   9.946  0.1480 -1.0879  0.9110
18056SOL    HW261409   5.302   0.010  10.070 -1.8474  2.0308 -0.5359
18057SOL     OW61410  11.351   4.124  10.089 -0.0482  0.4727  0.0775
18057SOL    HW161411  11.297   4.193  10.051 -0.9919  0.4201  1.2641
18057SOL    HW261412  11.389   4.164  10.167 -0.0289 -0.1370  0.3826
18058SOL     OW61413   1.925   4.282   7.321  0.2047 -0.3199 -0.1683
18058SOL    HW161414   1.860   4.285   7.392  1.3219 -0.1731  0.8753
18058SOL    HW261415   1.883   4.228   7.254 -1.5573  0.8718 -0.1033
18059SOL     OW61416   4.952   8.535   1.947 -0.0985 -0.7165 -0.6220
18059SOL    HW161417   5.023   8.503   2.003  0.0702 -1.2923 -1.1631
18059SOL    HW261418   4.973   8.503   1.860 -0.9639 -0.7989 -0.8079
18060SOL     OW61419   0.121   0.372   9.834  0.1830  0.3334 -0.2124
18060SOL    HW161420   0.045   0.344   9.885  0.6343 -1.9034 -0.6812
18060SOL    HW261421   0.146   0.456   9.873  0.8875 -1.4866  3.6885
18061SOL     OW61422   1.993   2.444   9.533  0.2203 -0.0239 -0.2760
18061SOL    HW161423   1.967   2.405   9.450  0.6841  0.2927 -0.5706
18061SOL    HW261424   2.050   2.517   9.509 -0.1292  0.4470  0.2973
18062SOL     OW61425   2.609  12.641  11.664  0.6467  0.0571 -0.2138
18062SOL    HW161426   2.541  12.588  11.706  1.3102 -1.1281 -0.5909
18062SOL    HW261427   2.577  12.653  11.574  0.2666  0.7219  0.0062
18063SOL     OW61428   4.764   0.855  12.673  0.0874 -0.1016 -0.0303
18063SOL    HW161429   4.795   0.831  12.585  1.9261  0.0397  0.5484
18063SOL    HW261430   4.708   0.931  12.658  1.7244  0.9832 -0.9568
18064SOL     OW61431   8.078   6.135   1.351  0.0955  0.1879  0.0289
18064SOL    HW161432   8.096   6.063   1.412 -0.9162 -0.1293 -0.0222
18064SOL    HW261433   8.042   6.092   1.273 -1.2583  0.7854  0.2886
18065SOL     OW61434   3.083   3.941  11.699 -0.3195 -0.5052  0.2921
18065SOL    HW161435   3.064   3.863  11.752  0.6029  1.1476  3.3035
18065SOL    HW261436   3.012   4.002  11.721  0.7164  0.6303  0.5612
18066SOL     OW61437  11.476   4.267   4.308  0.0945  0.2542  0.4594
18066SOL    HW161438  11.395   4.226   4.340  0.4077 -1.4578 -0.8091
18066SOL    HW261439  11.518   4.302   4.387  0.8347 -3.7734  2.1165
18067SOL     OW61440   1.336   5.895   1.280  0.2408 -0.3381  0.3491
18067SOL    HW161441   1.334   5.812   1.328 -0.3436  0.0606  1.0252
18067SOL    HW261442   1.244   5.919   1.270  0.3386 -0.5401 -1.2110
18068SOL     OW61443   1.190   3.974  12.228  0.0704  0.2553  0.0626
18068SOL    HW161444   1.174   3.904  12.290  0.5041  1.1463  1.2194
18068SOL    HW261445   1.114   4.032  12.237 -0.1952  0.0480 -0.7447
18069SOL     OW61446   0.228   5.591   1.185  0.4897 -0.4098  0.1198
18069SOL    HW161447   0.239   5.543   1.103 -3.2038  1.8208 -1.9748
18069SOL    HW261448   0.179   5.532   1.242  1.6699 -1.3732  0.1791
18070SOL     OW61449  12.604   9.738   5.756  0.0109  0.0387 -0.4786
18070SOL    HW161450  12.550   9.816   5.770  0.3195  0.3444 -0.9766
18070SOL    HW261451  12.547   9.676   5.713 -1.0954 -1.0666  2.3114
18071SOL     OW61452   3.196   7.235  11.503  0.2059 -0.3039 -0.2532
18071SOL    HW161453   3.284   7.196  11.503  1.0797  1.5084 -1.3655
18071SOL    HW261454   3.188   7.277  11.589  0.8508  0.3314 -0.4885
18072SOL     OW61455   6.101   4.039   4.654  0.6057 -0.0948  0.0112
18072SOL    HW161456   6.129   3.999   4.571 -0.0908  1.0589 -0.8163
18072SOL    HW261457   6.025   4.091   4.630  0.4995  0.4040  1.3688
18073SOL     OW61458   7.418   1.717  12.515  0.0232 -0.0717  0.1427
18073SOL    HW161459   7.512   1.716  12.533 -0.2368 -0.4519  1.5907
18073SOL    HW261460   7.406   1.655  12.443  1.1190  1.5417 -1.5346
18074SOL     OW61461  11.769  12.080  11.435  0.2126  0.3428 -0.2755
18074SOL    HW161462  11.758  11.991  11.403 -0.5376  0.2188  0.3219
18074SOL    HW261463  11.833  12.073  11.505  1.2807  0.5036 -1.2062
18075SOL     OW61464   0.828   8.968   0.976  0.0121 -0.5536 -0.2753
18075SOL    HW161465   0.876   9.012   0.906  0.5490 -0.1250  0.3581
18075SOL    HW261466   0.851   8.876   0.967 -0.4547 -0.6017 -1.0816
18076SOL     OW61467   8.719   8.991   0.340  0.4853  0.3731  0.3935
18076SOL    HW161468   8.811   8.986   0.314  0.2928  1.0340 -0.4563
18076SOL    HW261469   8.682   8.906   0.316  0.5064  0.6768 -0.7422
18077SOL     OW61470  12.305   8.618   9.823 -0.4544  0.3248 -0.3171
18077SOL    HW161471  12.321   8.566   9.744 -0.0527 -0.0371 -0.0051
18077SOL    HW261472  12.274   8.554   9.887 -0.1814  0.5102  0.0011
18078SOL     OW61473   8.617   1.164   7.502 -0.0438  0.3146 -0.2659
18078SOL    HW161474   8.642   1.238   7.557 -1.0873  0.3575  0.1625
18078SOL    HW261475   8.522   1.156   7.512 -0.3307  0.5641 -2.3902
18079SOL     OW61476  11.892   7.288   4.512 -0.0355  0.3645 -0.3129
18079SOL    HW161477  11.957   7.344   4.468  0.0726  0.2078 -0.3545
18079SOL    HW261478  11.930   7.200   4.508 -1.3614 -0.1862 -2.5463
18080SOL     OW61479   1.044   7.812   3.331  0.5231  0.3523  0.2742
18080SOL    HW161480   0.968   7.825   3.274  0.5838  0.5781  0.2419
18080SOL    HW261481   1.112   7.777   3.273  1.0981  2.0736 -0.1646
18081SOL     OW61482   3.429  11.318  10.017 -0.6403  0.0698 -0.0689
18081SOL    HW161483   3.508  11.371  10.025 -0.6920  0.5076 -2.0674
18081SOL    HW261484   3.374  11.366   9.955 -2.2878 -0.4814  0.8940
18082SOL     OW61485   4.529   2.454   2.641 -0.1492 -0.0880  0.0251
18082SOL    HW161486   4.509   2.540   2.605  1.2496  0.3369  0.2143
18082SOL    HW261487   4.543   2.470   2.734 -0.9883 -0.7163  0.2681
18083SOL     OW61488  12.057   9.967  12.706  0.4369  0.0459 -0.4871
18083SOL    HW161489  12.149   9.991  12.698  0.5689 -0.8451 -2.0948
18083SOL    HW261490  12.054   9.909  12.782  0.9516  1.1580  0.3943
18084SOL     OW61491   9.789  10.472   4.396 -0.3508 -0.7040 -0.9209
18084SOL    HW161492   9.871  10.465   4.444  1.4284 -1.1041 -3.8166
18084SOL    HW261493   9.764  10.564   4.405  0.3019 -0.6054  0.0976
18085SOL     OW61494  12.355   2.843  11.327  0.1790 -0.1013 -0.4047
18085SOL    HW161495  12.263   2.869  11.332 -0.0572 -1.0538  0.7821
18085SOL    HW261496  12.352   2.754  11.291  0.4879 -0.7218  1.0263
18086SOL     OW61497   6.533  11.037   5.985  0.0432  0.1402 -0.5092
18086SOL    HW161498   6.546  10.956   6.034 -1.0574 -0.3153 -0.9419
18086SOL    HW261499   6.603  11.038   5.920 -0.0336 -0.5466 -0.6068
18087SOL     OW61500   1.171   9.124  10.536 -0.6087  0.4340 -0.5271
18087SOL    HW161501   1.218   9.103  10.455 -2.2073  1.3468 -1.7421
18087SOL    HW261502   1.236   9.170  10.590 -0.0893  1.7983 -2.2086
18088SOL     OW61503   1.675  10.786   6.291  0.4752  0.8083 -0.2402
18088SOL    HW161504   1.709  10.817   6.207  1.1859  0.0562 -0.2448
18088SOL    HW261505   1.754  10.762   6.341 -0.0255 -0.4542 -0.0369
18089SOL     OW61506   3.980  12.274   9.920  0.2316  0.6821 -0.0118
18089SOL    HW161507   4.036  12.220   9.976 -0.5076  0.5011  0.5718
18089SOL    HW261508   3.921  12.211   9.877 -0.7181  1.0196  0.7664
18090SOL     OW61509   3.840  12.389   1.485 -0.1709  0.3141 -0.4212
18090SOL    HW161510   3.914  12.334   1.513  0.1819  0.7881 -0.4123
18090SOL    HW261511   3.803  12.343   1.410  0.7350  0.5505 -1.0366
18091SOL     OW61512   8.849   6.861   1.016  0.2054  0.0859  0.1392
18091SOL    HW161513   8.809   6.806   0.948  1.1001  0.4838 -0.7222
18091SOL    HW261514   8.775   6.910   1.053 -0.2931 -0.1303 -0.5442
18092SOL     OW61515   9.206   1.321   2.804  0.4628  0.0337  0.1871
18092SOL    HW161516   9.148   1.284   2.738  0.2122  1.6925 -0.5823
18092SOL    HW261517   9.278   1.259   2.811 -0.0472 -0.6978 -0.8522
18093SOL     OW61518   4.461  11.242   6.115  0.3640  0.3075 -0.3287
18093SOL    HW161519   4.399  11.236   6.188 -0.0885 -1.1604 -0.7823
18093SOL    HW261520   4.543  11.270   6.155  0.3138 -1.1553  0.8828
18094SOL     OW61521   1.093   2.277  10.018 -0.3660  1.0775 -0.2753
18094SOL    HW161522   1.118   2.241   9.933  0.9144  1.5536 -0.1204
18094SOL    HW261523   1.059   2.364   9.999 -1.1708  0.7485 -0.3989
18095SOL     OW61524   1.154   3.028   3.818 -0.0296 -0.3822  0.7054
18095SOL    HW161525   1.066   3.007   3.786 -0.1890 -0.0179  0.8903
18095SOL    HW261526   1.210   2.957   3.786 -0.2995 -0.3432  0.1474
18096SOL     OW61527   1.962   8.905   7.765  0.0286 -0.0938 -0.0943
18096SOL    HW161528   1.965   8.821   7.811  2.0712  0.1173  0.2787
18096SOL    HW261529   1.980   8.970   7.833 -1.6664  0.6979 -0.3545
18097SOL     OW61530   4.398   5.344   8.571  0.8371  0.1052  0.3759
18097SOL    HW161531   4.317   5.312   8.530  0.4155  0.1349  1.1736
18097SOL    HW261532   4.466   5.285   8.537  0.4284 -0.1683  0.0104
18098SOL     OW61533  11.719   2.385  10.446  0.1922  0.8312 -0.8234
18098SOL    HW161534  11.680   2.452  10.389  2.0121  1.3783 -1.4870
18098SOL    HW261535  11.719   2.425  10.533 -1.0776  0.6509 -0.7225
18099SOL     OW61536  12.064   2.032   0.134 -0.1337  0.7190 -0.5526
18099SOL    HW161537  12.142   1.992   0.095  1.5765  3.4676 -0.2494
18099SOL    HW261538  11.991   1.990   0.089  1.4916 -1.8465 -0.9981
18100SOL     OW61539   1.784   8.695   2.407 -0.3737 -0.1449 -0.3233
18100SOL    HW161540   1.829   8.654   2.481 -0.9120  0.5406  0.4003
18100SOL    HW261541   1.721   8.755   2.448  0.3439  1.3534 -1.3442
18101SOL     OW61542   2.866  11.057   8.221 -0.4563  0.0126  0.3198
18101SOL    HW161543   2.934  11.048   8.289  0.1461  1.6976 -0.0026
18101SOL    HW261544   2.815  10.977   8.228  0.0567 -0.2050  2.2582
18102SOL     OW61545  12.212   1.060   0.600 -0.0611  0.0625 -0.0935
18102SOL    HW161546  12.280   0.994   0.612  0.2914  0.3366 -0.5779
18102SOL    HW261547  12.184   1.081   0.689 -1.3263 -1.9111  0.0209
18103SOL     OW61548  10.258   6.565   2.080 -0.5197  0.2150  0.0045
18103SOL    HW161549  10.223   6.651   2.105 -0.6545  0.0342  0.4438
18103SOL    HW261550  10.202   6.502   2.126  0.7737 -0.0665  1.2535
18104SOL     OW61551   5.404   8.547   7.710  0.0075  0.0576 -0.7675
18104SOL    HW161552   5.329   8.537   7.652  0.0150  1.0482 -0.9633
18104SOL    HW261553   5.367   8.574   7.794  0.0792 -0.3348 -0.6068
18105SOL     OW61554   0.195  11.923   6.932 -0.2373  1.1167 -0.1687
18105SOL    HW161555   0.125  11.861   6.913  0.1853  0.7343 -0.5051
18105SOL    HW261556   0.199  11.979   6.855  0.4220  0.5643 -0.5512
18106SOL     OW61557   0.846   7.314  10.772 -0.3292 -0.0172 -0.8984
18106SOL    HW161558   0.764   7.292  10.727 -0.1907  0.4417 -1.3783
18106SOL    HW261559   0.833   7.282  10.861 -0.9400 -0.1659 -1.0331
18107SOL     OW61560   4.821   4.470   9.423 -0.9010  0.1573  0.3113
18107SOL    HW161561   4.785   4.395   9.469 -0.3526 -0.3661 -0.0989
18107SOL    HW261562   4.759   4.487   9.352 -1.8058  1.0376  1.2872
18108SOL     OW61563  10.161   8.318   9.280 -0.0059 -0.0116 -0.3588
18108SOL    HW161564  10.092   8.253   9.295 -1.9669  2.3764  1.7732
18108SOL    HW261565  10.233   8.288   9.335 -0.4886 -0.9308 -0.2063
18109SOL     OW61566   9.084   9.797  11.874 -0.5421 -0.1832 -0.1526
18109SOL    HW161567   9.089   9.856  11.799  2.3215 -1.2771 -0.9663
18109SOL    HW261568   9.085   9.710  11.836 -1.0550 -0.7778  1.1329
18110SOL     OW61569   3.717   0.579   1.374 -0.1010  0.1755 -0.3426
18110SOL    HW161570   3.736   0.503   1.429  0.3352 -0.0332 -0.7760
18110SOL    HW261571   3.635   0.614   1.409  1.0078  1.0501  1.5543
18111SOL     OW61572   6.636  10.147   8.400 -0.4580 -0.0603  0.3767
18111SOL    HW161573   6.635  10.238   8.429 -0.9459  0.2364 -0.5238
18111SOL    HW261574   6.550  10.134   8.359  0.4961 -0.1914 -1.6649
18112SOL     OW61575   3.193  11.186   4.060  0.4425 -0.4535  0.8901
18112SOL    HW161576   3.270  11.243   4.054 -1.6671  2.5170  0.3490
18112SOL    HW261577   3.146  11.217   4.137 -1.3245 -0.7189 -0.0386
18113SOL     OW61578   1.817   3.366   7.058  0.8978 -0.5654  0.4636
18113SOL    HW161579   1.895   3.396   7.010  1.8886 -0.7655  1.8722
18113SOL    HW261580   1.813   3.272   7.040  0.5293 -0.4262 -0.2115
18114SOL     OW61581   8.258   8.772   7.720 -0.0535  0.1489  0.2375
18114SOL    HW161582   8.300   8.740   7.641 -1.6230 -1.8742  0.1466
18114SOL    HW261583   8.204   8.699   7.751  1.4321  0.3708  3.9015
18115SOL     OW61584   6.070   7.127  12.107 -0.4301  0.4534 -0.1781
18115SOL    HW161585   6.161   7.155  12.108 -0.8417  1.9249 -0.8656
18115SOL    HW261586   6.048   7.114  12.200 -0.0412  1.9301  0.1546
18116SOL     OW61587   3.117   9.128  10.578 -0.0744  0.2347 -0.1340
18116SOL    HW161588   3.064   9.131  10.658 -1.9791 -0.7903 -1.2812
18116SOL    HW261589   3.108   9.038  10.547 -0.3708  0.8943 -2.1084
18117SOL     OW61590   7.565   3.212   5.654 -1.0378  0.0205 -0.1119
18117SOL    HW161591   7.655   3.178   5.651 -0.8576  0.5164 -2.3606
18117SOL    HW261592   7.536   3.196   5.744  1.4556  0.2401  0.8223
18118SOL     OW61593   7.344   9.375   9.688 -0.4448 -0.3299  0.1511
18118SOL    HW161594   7.361   9.339   9.601  1.5105 -0.6681  0.6314
18118SOL    HW261595   7.406   9.447   9.696 -0.2056 -0.6736  1.4911
18119SOL     OW61596   3.429   8.026   1.006 -0.3766  0.5997  0.4215
18119SOL    HW161597   3.422   8.095   1.072  1.1864  0.0630  1.2004
18119SOL    HW261598   3.513   8.043   0.962  0.4129 -1.1977  1.1496
18120SOL     OW61599   9.772   7.442   6.104  0.2817 -0.2356  0.0979
18120SOL    HW161600   9.807   7.500   6.172  1.2009  0.2544 -0.7621
18120SOL    HW261601   9.839   7.442   6.036 -1.0262  0.0495 -1.2461
18121SOL     OW61602   9.912   7.416   5.650  0.3167  0.0389 -0.4879
18121SOL    HW161603   9.990   7.369   5.623 -0.3081 -0.4100 -1.5725
18121SOL    HW261604   9.843   7.383   5.593 -0.5849  0.7119  0.1806
18122SOL     OW61605  10.965   4.814   5.679 -0.5142  0.0030  0.0465
18122SOL    HW161606  11.047   4.770   5.701  1.1345  2.7819 -0.0042
18122SOL    HW261607  10.983   4.855   5.594 -1.4378  1.7804  0.6658
18123SOL     OW61608   8.073   6.345   4.462  0.5340  0.3816  0.4978
18123SOL    HW161609   8.112   6.418   4.415 -2.6664  2.0208  0.1125
18123SOL    HW261610   8.066   6.374   4.553  0.0185  0.2153  0.5163
18124SOL     OW61611   8.512   0.702   9.902 -0.1365  0.4207 -0.1765
18124SOL    HW161612   8.428   0.719   9.861 -0.3884  1.3539  0.6925
18124SOL    HW261613   8.511   0.754   9.982  1.1981  0.3195 -0.0690
18125SOL     OW61614   4.674   9.309   7.165 -0.8715 -0.5033 -0.9099
18125SOL    HW161615   4.747   9.267   7.119  1.3781  0.1552  1.7565
18125SOL    HW261616   4.609   9.239   7.176 -0.1196 -1.4578 -2.2659
18126SOL     OW61617   2.740  12.156   1.877 -0.2112 -0.2698 -0.4005
18126SOL    HW161618   2.794  12.135   1.953 -0.2685 -1.1480 -0.5937
18126SOL    HW261619   2.739  12.076   1.825 -2.1980 -0.5043 -0.0964
18127SOL     OW61620   8.183   6.102  10.115  0.3040  0.6286  0.5617
18127SOL    HW161621   8.274   6.105  10.144  0.1546 -0.9846  1.3090
18127SOL    HW261622   8.150   6.190  10.130  2.0195  1.5745 -0.7710
18128SOL     OW61623  12.415   8.868   6.358 -0.5273  0.7012 -0.6166
18128SOL    HW161624  12.440   8.790   6.308 -1.7879 -0.1359  0.0160
18128SOL    HW261625  12.371   8.924   6.295 -1.7979 -0.1951 -0.5552
18129SOL     OW61626   0.610   8.795   7.179  0.3486  0.1312  0.5827
18129SOL    HW161627   0.564   8.846   7.111 -0.9552 -1.3827  0.2634
18129SOL    HW261628   0.703   8.805   7.157  0.0024  0.3496 -0.9570
18130SOL     OW61629   6.687   6.181   8.472  0.4105  0.2959 -0.3791
18130SOL    HW161630   6.694   6.152   8.563  2.1486 -0.4940 -0.7271
18130SOL    HW261631   6.650   6.269   8.478  1.1119  0.5247  1.1441
18131SOL     OW61632   0.049  10.795   7.299  0.5003 -0.0779 -0.2090
18131SOL    HW161633   0.113  10.732   7.265  0.6415 -0.6308  1.0147
18131SOL    HW261634   0.098  10.876   7.311  0.7140 -0.1976 -0.2685
18132SOL     OW61635   3.096   2.290   3.980  0.1791  0.2555  0.2529
18132SOL    HW161636   3.113   2.278   4.074  0.3087 -0.1132  0.1848
18132SOL    HW261637   3.017   2.238   3.964  0.6537 -0.3891 -0.0156
18133SOL     OW61638   6.902   4.285   5.820  0.3706 -0.3018 -0.8571
18133SOL    HW161639   6.816   4.241   5.817  0.1902 -0.1217  0.8271
18133SOL    HW261640   6.939   4.260   5.904  1.8164 -0.0333 -1.3825
18134SOL     OW61641  10.647  10.454   3.351 -0.1449 -0.1954 -0.0230
18134SOL    HW161642  10.641  10.358   3.349  0.2289 -0.3609  2.6692
18134SOL    HW261643  10.562  10.483   3.385 -0.1919  0.4101 -0.6460
18135SOL     OW61644   7.927   0.785   7.630  0.6455 -0.3206  0.0471
18135SOL    HW161645   7.905   0.863   7.682  2.2639 -0.2069  0.6062
18135SOL    HW261646   7.866   0.788   7.556  1.1127  1.8654 -0.3228
18136SOL     OW61647  11.212   2.754   9.208 -0.2232 -0.2825 -0.2376
18136SOL    HW161648  11.171   2.809   9.142  1.9389  0.8537 -0.7351
18136SOL    HW261649  11.225   2.669   9.164  1.2776  0.4833 -1.3952
18137SOL     OW61650  11.543   0.452   2.193 -0.0344  0.4519  0.6470
18137SOL    HW161651  11.454   0.449   2.226 -0.4596  1.3068 -0.3658
18137SOL    HW261652  11.534   0.482   2.102  1.1622 -0.8320  0.0623
18138SOL     OW61653   2.914   2.418  12.391 -0.1006  0.1668  0.1281
18138SOL    HW161654   2.946   2.332  12.417  3.3521  1.7221  1.6116
18138SOL    HW261655   2.877   2.455  12.471  0.6953  0.9443  0.1509
18139SOL     OW61656   4.284  12.242  11.715 -0.6135  0.1112  0.4736
18139SOL    HW161657   4.228  12.286  11.779 -2.7496 -0.2733 -1.0385
18139SOL    HW261658   4.236  12.163  11.692  1.4655 -1.2188  0.4696
18140SOL     OW61659   0.063   0.887   2.703 -0.0506 -0.3797 -0.1510
18140SOL    HW161660   0.095   0.975   2.722  0.8195 -0.6229 -0.4372
18140SOL    HW261661  -0.023   0.901   2.664 -0.6406  0.2517  1.2962
18141SOL     OW61662   4.848   7.194   5.481  0.1192 -0.3335  0.3573
18141SOL    HW161663   4.787   7.160   5.546  1.7821  0.5939  2.5259
18141SOL    HW261664   4.883   7.116   5.438 -0.3517 -1.0414  1.2253
18142SOL     OW61665   4.204   7.231   0.728  0.3528 -0.0950 -0.9546
18142SOL    HW161666   4.154   7.149   0.719  0.0973  0.0727 -1.0831
18142SOL    HW261667   4.192   7.257   0.819 -0.6231  0.4689 -1.2332
18143SOL     OW61668   8.533   1.479   2.832  0.1202 -0.5972  0.4225
18143SOL    HW161669   8.567   1.536   2.901  0.0219  0.4958 -0.3936
18143SOL    HW261670   8.611   1.437   2.795  0.5706  1.2344 -0.8631
18144SOL     OW61671   3.544  10.668   4.257  0.1067  0.0626  0.2444
18144SOL    HW161672   3.629  10.677   4.300  0.5557 -0.5035 -0.5124
18144SOL    HW261673   3.488  10.629   4.325  0.7683 -0.6826  0.3741
18145SOL     OW61674   1.324   8.990  12.004  0.3220 -0.0826 -0.0091
18145SOL    HW161675   1.333   9.054  11.933  2.9284 -0.5441 -0.1838
18145SOL    HW261676   1.302   9.042  12.081 -1.8672  0.4988 -0.9286
18146SOL     OW61677   1.482   7.302  10.856  0.3426 -0.0360 -0.2673
18146SOL    HW161678   1.526   7.256  10.927 -0.1491  0.3059  0.2633
18146SOL    HW261679   1.412   7.351  10.898  0.2844  0.4765 -0.9371
18147SOL     OW61680   2.937   1.432   4.812 -0.1782  0.0802 -0.0090
18147SOL    HW161681   2.984   1.438   4.895 -1.2041 -0.5757  0.6506
18147SOL    HW261682   2.964   1.510   4.764  0.9879  0.1063  0.6362
18148SOL     OW61683   8.856  12.540   6.695 -0.1828  0.1855  0.6979
18148SOL    HW161684   8.862  12.534   6.599  1.6247  0.6136  0.7594
18148SOL    HW261685   8.920  12.477   6.727 -1.1600 -0.3583  1.6677
18149SOL     OW61686  11.069   8.974  12.094  0.2522  0.4785  0.1215
18149SOL    HW161687  11.044   8.921  12.170  1.2947 -2.8788 -1.6705
18149SOL    HW261688  11.014   8.941  12.023  2.9869 -0.4726 -1.7440
18150SOL     OW61689   4.659   5.748   4.959  0.2631  0.2751 -0.6489
18150SOL    HW161690   4.736   5.770   5.012  1.5679 -0.7020 -2.0572
18150SOL    HW261691   4.628   5.665   4.994  1.0520 -0.3109 -1.3266
18151SOL     OW61692   8.622   0.264   1.786  0.4694 -0.1597 -0.2824
18151SOL    HW161693   8.659   0.177   1.781  0.4747 -0.1173 -1.0044
18151SOL    HW261694   8.560   0.269   1.714  1.0138  0.6877 -0.7166
18152SOL     OW61695   8.740   1.828   3.872 -0.0528  0.2681  0.2738
18152SOL    HW161696   8.668   1.766   3.877  0.0231  0.2066  0.6174
18152SOL    HW261697   8.702   1.905   3.829 -0.5471  0.5476  1.1765
18153SOL     OW61698   6.438   3.391  11.583 -0.1778  0.4992  0.3386
18153SOL    HW161699   6.399   3.477  11.573  1.4473  1.2327 -0.1220
18153SOL    HW261700   6.524   3.408  11.622  0.3012 -0.8815 -0.0506
18154SOL     OW61701  12.270  11.915  12.555 -0.1110 -0.4983  0.2749
18154SOL    HW161702  12.235  11.901  12.467 -0.3092  3.3190 -0.3860
18154SOL    HW261703  12.201  11.963  12.602  1.1543  0.1775  1.5209
18155SOL     OW61704   0.466   9.931   3.389  0.9748 -0.3041  0.3117
18155SOL    HW161705   0.483  10.013   3.436 -0.6984 -0.1692  0.7485
18155SOL    HW261706   0.413   9.958   3.314 -2.9367 -1.2858  2.4637
18156SOL     OW61707   0.658   7.179   3.369 -0.1857  0.4950  0.8593
18156SOL    HW161708   0.754   7.180   3.372 -0.1142 -0.1234 -0.6563
18156SOL    HW261709   0.636   7.219   3.285 -1.2241 -0.3429  0.7185
18157SOL     OW61710   7.056   7.818   2.586  0.9087  0.0244  0.2732
18157SOL    HW161711   7.063   7.838   2.492 -1.5846  0.4502  0.1220
18157SOL    HW261712   7.050   7.723   2.589 -2.0907  0.0897 -0.3636
18158SOL     OW61713  11.827   2.885  11.996  0.8231 -0.2475 -0.1936
18158SOL    HW161714  11.904   2.939  11.980  1.6772 -1.3162  0.1564
18158SOL    HW261715  11.846   2.803  11.949 -0.9373  0.1417 -1.6890
18159SOL     OW61716   4.938   0.520  10.067  0.1316 -0.7603 -0.2796
18159SOL    HW161717   4.963   0.612  10.079 -1.1131 -0.2526 -1.3888
18159SOL    HW261718   4.935   0.484  10.156 -0.5394  0.6095  0.2786
18160SOL     OW61719  10.985   5.641  11.861  0.2039  0.4808 -0.7097
18160SOL    HW161720  10.927   5.695  11.915 -1.6556 -0.0465 -2.0698
18160SOL    HW261721  10.991   5.688  11.778  2.0460  0.6796 -0.4986
18161SOL     OW61722   9.461  10.051   9.988  0.5397  0.1037  0.0512
18161SOL    HW161723   9.473  10.136  10.029  0.4106 -0.3318  1.0046
18161SOL    HW261724   9.366  10.042   9.978  0.5988  0.6348 -1.2989
18162SOL     OW61725   5.170   9.557   8.917  0.1385  0.5855  0.7990
18162SOL    HW161726   5.242   9.581   8.976 -0.0830 -0.8663  1.7272
18162SOL    HW261727   5.137   9.641   8.884  2.6479  1.2884 -0.1902
18163SOL     OW61728   0.407   8.802   7.394 -0.3669 -0.4632  0.2975
18163SOL    HW161729   0.489   8.791   7.345 -0.9341 -2.0426 -0.3673
18163SOL    HW261730   0.351   8.731   7.363 -1.5660 -0.1413  1.6249
18164SOL     OW61731  10.509   5.105   1.005  0.3700  0.3520 -0.1616
18164SOL    HW161732  10.421   5.065   1.002  0.3774  0.3940 -1.5346
18164SOL    HW261733  10.538   5.091   1.095 -0.3358 -1.2297 -0.1394
18165SOL     OW61734   3.796   1.896   6.186  0.3182  0.4647  0.0465
18165SOL    HW161735   3.836   1.909   6.272  1.5996  1.1116 -0.6247
18165SOL    HW261736   3.855   1.939   6.125 -0.7920  0.3851 -1.1295
18166SOL     OW61737  12.545   7.707   6.290  0.4111  0.0707  0.5572
18166SOL    HW161738  12.535   7.800   6.273  0.2752  0.0703  0.6321
18166SOL    HW261739  12.610   7.702   6.361 -0.7008  0.1878  1.6097
18167SOL     OW61740   0.938  12.583   9.045  0.2109 -0.7852 -0.0014
18167SOL    HW161741   1.033  12.590   9.053  0.1323 -0.6486  0.9745
18167SOL    HW261742   0.923  12.493   9.016  0.6601 -0.6522 -0.6516
18168SOL     OW61743   0.960   2.853   5.359  0.5857  0.1352  0.9314
18168SOL    HW161744   0.898   2.915   5.320  1.4873 -0.3882 -1.5393
18168SOL    HW261745   0.992   2.896   5.437  1.2498  2.8859 -0.7269
18169SOL     OW61746   1.608   0.807  12.020  0.2690  0.4613  0.1769
18169SOL    HW161747   1.661   0.742  11.972  0.2231  1.5109 -1.3583
18169SOL    HW261748   1.523   0.765  12.032  1.0226 -0.7798  1.6122
18170SOL     OW61749   1.598  11.237  11.629 -0.1202  0.8993  0.0038
18170SOL    HW161750   1.554  11.205  11.551 -0.5079 -1.2519  1.0294
18170SOL    HW261751   1.685  11.196  11.627 -0.0255  1.0504  0.5741
18171SOL     OW61752   0.370   9.230   9.806 -0.1266  0.0247 -0.2168
18171SOL    HW161753   0.413   9.160   9.757 -0.0437 -0.1368  0.0842
18171SOL    HW261754   0.354   9.298   9.740 -1.5184 -0.8485 -0.8411
18172SOL     OW61755   1.634   6.770   3.318 -0.5337  0.3597 -0.1737
18172SOL    HW161756   1.667   6.837   3.378 -0.9207 -1.0292  1.7005
18172SOL    HW261757   1.655   6.687   3.361 -0.1101 -0.7593 -2.3987
18173SOL     OW61758   7.609   3.693   1.531 -0.0615  0.2287  0.6441
18173SOL    HW161759   7.531   3.747   1.518  0.5032  1.2564  1.3987
18173SOL    HW261760   7.682   3.754   1.520  0.6231 -0.6009  0.5359
18174SOL     OW61761   4.378   5.603   0.491  0.0050  0.1183 -0.8982
18174SOL    HW161762   4.325   5.682   0.501 -1.0519 -0.7768  1.3116
18174SOL    HW261763   4.466   5.629   0.520 -0.7486  0.1231  1.6498
18175SOL     OW61764   0.974   1.155   5.606 -0.3013  0.8338  0.2574
18175SOL    HW161765   1.067   1.153   5.583 -0.6448 -0.2247 -1.1497
18175SOL    HW261766   0.961   1.074   5.656 -0.9297 -0.2889 -1.6269
18176SOL     OW61767  12.665   3.868   6.373  0.1801 -0.4420  0.3936
18176SOL    HW161768  12.625   3.797   6.322  0.1476  0.3861 -0.7683
18176SOL    HW261769  12.607   3.943   6.360  1.8049  0.6762 -0.9920
18177SOL     OW61770   6.712   6.333   2.899  0.6335 -0.4759 -0.1232
18177SOL    HW161771   6.627   6.376   2.906  0.8395 -0.1159  0.1835
18177SOL    HW261772   6.721   6.313   2.806  1.3443  1.8081 -0.6119
18178SOL     OW61773   0.392   7.727   6.075 -0.0392 -0.3926 -0.3891
18178SOL    HW161774   0.406   7.783   5.999  2.6979  1.0847  1.0287
18178SOL    HW261775   0.463   7.751   6.135 -3.1121 -0.0219  3.5041
18179SOL     OW61776   2.699   9.526   7.307  0.1115 -0.5284 -0.4381
18179SOL    HW161777   2.631   9.471   7.345 -0.6243  0.4796 -0.2849
18179SOL    HW261778   2.667   9.615   7.316  1.4462 -0.0264 -0.3732
18180SOL     OW61779   8.504   9.036  12.244 -0.4388  0.5355  0.5852
18180SOL    HW161780   8.448   8.969  12.205  0.6283  0.5799 -1.1364
18180SOL    HW261781   8.543   9.081  12.169  0.8903  1.3429  1.7169
18181SOL     OW61782   8.475   6.102  11.314 -0.4161  0.4427  0.1993
18181SOL    HW161783   8.497   6.127  11.224 -2.7738  1.6441 -0.1171
18181SOL    HW261784   8.489   6.182  11.364  2.6882 -0.6737  1.3732
18182SOL     OW61785   8.789   6.895  11.817 -0.0480  0.1939 -0.0457
18182SOL    HW161786   8.827   6.925  11.899 -0.6184  0.8939 -0.0339
18182SOL    HW261787   8.695   6.889  11.834 -0.0242 -0.9894 -0.2420
18183SOL     OW61788   5.651   9.112   1.548 -0.1729  0.1823  0.3384
18183SOL    HW161789   5.593   9.048   1.589  1.6107 -2.4986 -0.9798
18183SOL    HW261790   5.595   9.161   1.488 -1.2809 -1.7776 -0.3221
18184SOL     OW61791   6.781   8.221  11.306  1.0261  0.1404 -0.3319
18184SOL    HW161792   6.713   8.288  11.315  0.3618 -0.4870 -0.5900
18184SOL    HW261793   6.743   8.143  11.344  1.4791 -0.3113 -0.7838
18185SOL     OW61794   3.310   2.966  10.312 -0.3566 -0.0004  0.0899
18185SOL    HW161795   3.400   2.933  10.314 -1.1121 -2.2155  1.0016
18185SOL    HW261796   3.256   2.887  10.317 -2.3843  1.2242 -1.3106
18186SOL     OW61797   9.397   5.092   7.258 -0.3276  0.4888 -0.0329
18186SOL    HW161798   9.421   5.184   7.273 -0.4142  0.5142 -0.0475
18186SOL    HW261799   9.478   5.043   7.274 -0.3194  0.5529  0.1281
18187SOL     OW61800   8.645   6.023   6.105  0.3020 -0.1774  0.0435
18187SOL    HW161801   8.638   5.968   6.028 -0.7643  1.2288 -0.9139
18187SOL    HW261802   8.726   6.073   6.092  0.1337  0.0435 -0.1756
18188SOL     OW61803  12.051  10.188   4.722 -0.1575  0.8095  0.0780
18188SOL    HW161804  12.004  10.261   4.764  0.2841  1.4739 -0.5729
18188SOL    HW261805  12.005  10.175   4.639 -0.4079  0.1502  0.3122
18189SOL     OW61806   5.633   5.037   3.428 -0.5261  0.1434  0.2812
18189SOL    HW161807   5.539   5.049   3.416 -0.4582  1.2904  0.7143
18189SOL    HW261808   5.673   5.106   3.374  0.0216  0.2224  0.7760
18190SOL     OW61809   8.024   2.364   3.903  0.1053  0.0833  0.0369
18190SOL    HW161810   8.097   2.423   3.920  0.6901 -0.7099  0.3372
18190SOL    HW261811   7.959   2.386   3.970  0.3989  0.2554  0.2656
18191SOL     OW61812   2.116   8.995   9.478  0.3488 -0.1622  0.0369
18191SOL    HW161813   2.107   8.932   9.406  0.6922 -1.0676  0.7734
18191SOL    HW261814   2.081   8.950   9.554 -0.3604  0.9376  0.3787
18192SOL     OW61815   3.828   9.700   2.537 -0.4146  0.2945  0.2088
18192SOL    HW161816   3.852   9.617   2.578 -1.1928  0.7838  1.7084
18192SOL    HW261817   3.759   9.736   2.592 -0.1087  1.9398 -0.4115
18193SOL     OW61818  12.574  10.737   0.350  0.2987  0.1866 -0.1816
18193SOL    HW161819  12.496  10.697   0.311  0.1437 -2.1179  2.1728
18193SOL    HW261820  12.647  10.705   0.297 -0.0980 -0.7523 -0.1773
18194SOL     OW61821   1.503   8.249   9.711  0.0401  0.1534  0.3148
18194SOL    HW161822   1.485   8.219   9.800 -0.5169  1.0985  0.5351
18194SOL    HW261823   1.489   8.343   9.714 -0.2040  0.1683 -0.8368
18195SOL     OW61824   6.852  11.149  11.847 -0.2012  0.1231  0.6603
18195SOL    HW161825   6.877  11.221  11.789  2.3834 -0.0572  1.3863
18195SOL    HW261826   6.934  11.101  11.861 -1.4928 -1.9183  1.6046
18196SOL     OW61827  12.650  10.526   9.853  0.1019 -0.0416 -0.1523
18196SOL    HW161828  12.712  10.488   9.791 -2.0629 -1.3485 -1.6821
18196SOL    HW261829  12.665  10.479   9.935  1.4198  0.0162 -0.3440
18197SOL     OW61830   9.092   3.478  12.546  0.4885 -0.0622 -0.9243
18197SOL    HW161831   9.062   3.438  12.627 -0.1561 -0.7656 -1.4920
18197SOL    HW261832   9.169   3.426  12.521 -0.1842 -0.8101 -1.5152
18198SOL     OW61833   6.727   9.926   5.602  0.4708 -0.0383  0.2789
18198SOL    HW161834   6.666   9.862   5.638 -0.7182  1.3308  0.7797
18198SOL    HW261835   6.801   9.927   5.663 -0.1953  0.1593  1.0868
18199SOL     OW61836   6.832   9.693   3.427 -0.0013 -0.1330 -0.5936
18199SOL    HW161837   6.920   9.702   3.391 -0.6745  0.1159 -2.2693
18199SOL    HW261838   6.801   9.609   3.394  0.4132 -1.3712  1.9180
18200SOL     OW61839  11.261   5.902  11.122 -0.5720 -0.0078 -0.5638
18200SOL    HW161840  11.254   5.950  11.205  0.7390 -3.3850  1.7338
18200SOL    HW261841  11.337   5.940  11.078  0.0583  0.4434  0.8650
18201SOL     OW61842  11.894   8.968   0.929 -0.6823  0.3300  0.3984
18201SOL    HW161843  11.976   8.923   0.947 -0.1515  0.6057 -1.2242
18201SOL    HW261844  11.826   8.902   0.943 -0.1417 -0.1055  0.9969
18202SOL     OW61845   1.739   6.401   6.092  0.5657 -0.1803  0.0624
18202SOL    HW161846   1.799   6.402   6.017  0.3289 -0.7240 -0.1334
18202SOL    HW261847   1.652   6.410   6.054  0.4686 -0.0725  0.3035
18203SOL     OW61848   5.726   7.069  12.438  0.2931 -0.0260  0.0201
18203SOL    HW161849   5.680   6.996  12.480 -0.5750  0.3069 -0.3411
18203SOL    HW261850   5.686   7.076  12.351  0.0752  1.1490  0.2043
18204SOL     OW61851   0.002   2.218  10.703 -0.1306  0.1869 -0.3780
18204SOL    HW161852   0.049   2.143  10.741 -0.3826 -0.3664 -1.1309
18204SOL    HW261853  -0.051   2.252  10.775  0.9770  0.4662  0.3284
18205SOL     OW61854   7.475   2.450  11.081  0.2093 -0.4968  0.3401
18205SOL    HW161855   7.443   2.540  11.088  0.0529 -0.6010  1.0242
18205SOL    HW261856   7.430   2.403  11.151 -1.2825 -1.5963 -1.2747
18206SOL     OW61857  11.120   4.330   9.377  0.2079  0.0738  0.4036
18206SOL    HW161858  11.033   4.308   9.409  0.4327 -1.5684  0.0169
18206SOL    HW261859  11.180   4.292   9.442  0.6347 -0.1695 -0.1229
18207SOL     OW61860   0.054  12.329   5.442 -0.0913 -0.6186  0.3296
18207SOL    HW161861   0.143  12.301   5.464 -0.2473  0.5906  2.8235
18207SOL    HW261862   0.014  12.351   5.526 -2.3148  0.1597 -0.8535
18208SOL     OW61863   4.564   5.916   8.570  0.3082 -0.2413  0.3313
18208SOL    HW161864   4.538   6.006   8.589  0.1531 -0.4402  1.1336
18208SOL    HW261865   4.638   5.924   8.511  1.2607  0.4830  1.5635
18209SOL     OW61866   0.975   2.757  11.895  0.7179 -0.2141  0.3095
18209SOL    HW161867   0.953   2.820  11.963  0.4287  0.2172 -0.1807
18209SOL    HW261868   0.959   2.671  11.936  0.8072  0.0299  0.8686
18210SOL     OW61869   7.162   4.988   5.123  0.3268  0.1410  0.6624
18210SOL    HW161870   7.169   5.083   5.136 -0.6562  0.1439  1.2329
18210SOL    HW261871   7.225   4.969   5.054  1.5090  1.0097  1.4481
18211SOL     OW61872   8.120   8.592   9.794  0.6471 -0.1776 -0.1253
18211SOL    HW161873   8.215   8.600   9.802  0.6970  0.2408 -0.9795
18211SOL    HW261874   8.090   8.569   9.882  1.5876 -0.8304  0.0423
18212SOL     OW61875  10.345  10.827   1.101  0.0824 -0.0381 -0.4835
18212SOL    HW161876  10.347  10.916   1.067 -1.3129 -0.1286 -0.8911
18212SOL    HW261877  10.399  10.829   1.179 -2.2033  1.9057  1.2012
18213SOL     OW61878   9.873   8.996  11.793 -0.1043  0.0648  0.7621
18213SOL    HW161879   9.878   8.901  11.785 -1.3873  0.0485 -0.0846
18213SOL    HW261880   9.940   9.018  11.858  1.1534 -1.2675 -0.0315
18214SOL     OW61881   6.903   7.380   2.360  0.0387  0.0873 -0.1814
18214SOL    HW161882   6.930   7.309   2.418  0.9369 -0.0039 -0.6874
18214SOL    HW261883   6.866   7.336   2.283  1.7905  0.0894 -1.0797
18215SOL     OW61884  12.383  10.215  12.593  0.3321  0.1326  0.4868
18215SOL    HW161885  12.454  10.202  12.531 -0.0944 -1.4565  0.2893
18215SOL    HW261886  12.307  10.237  12.539  0.4546  0.9973  0.6402
18216SOL     OW61887   1.757   1.485   7.271 -0.0495  0.1289  0.2448
18216SOL    HW161888   1.712   1.569   7.259 -0.1867  0.0064 -0.1063
18216SOL    HW261889   1.847   1.510   7.294 -0.4766  0.3717  1.7168
18217SOL     OW61890   4.856  11.854   5.902  0.4608  0.1619  0.0169
18217SOL    HW161891   4.855  11.811   5.987 -1.0633  0.0541 -0.0279
18217SOL    HW261892   4.949  11.862   5.880  0.8846 -3.5501 -0.1904
18218SOL     OW61893   9.261   2.025  11.234 -0.1031 -0.1055  0.7055
18218SOL    HW161894   9.348   2.007  11.199 -0.3502  0.6757 -0.3635
18218SOL    HW261895   9.236   1.945  11.279 -0.0095 -1.4213 -1.4566
18219SOL     OW61896   2.349   6.012  11.697  0.1591  0.2409  0.4372
18219SOL    HW161897   2.327   6.097  11.657  1.4961  0.4406  0.0995
18219SOL    HW261898   2.399   5.966  11.630 -0.3839 -0.7459  0.7029
18220SOL     OW61899  12.569   8.830   1.095  0.5165  0.6716  0.5607
18220SOL    HW161900  12.549   8.897   1.160 -2.4330 -0.4879  1.0442
18220SOL    HW261901  12.514   8.756   1.121  0.3106 -0.3471 -2.4405
18221SOL     OW61902   2.643   1.812   0.283  0.1167  0.7039 -0.5165
18221SOL    HW161903   2.642   1.786   0.375 -0.4901  3.9737  0.5597
18221SOL    HW261904   2.640   1.730   0.234 -0.0583 -1.1415  2.3616
18222SOL     OW61905   7.022   7.461   0.576 -0.2981 -0.0777 -0.0855
18222SOL    HW161906   6.979   7.394   0.522 -1.0821  0.4158 -0.0844
18222SOL    HW261907   7.007   7.543   0.529  1.2967  0.0149 -0.4664
18223SOL     OW61908   0.350   9.581   7.298  0.3483 -0.6795  0.0685
18223SOL    HW161909   0.427   9.526   7.281  0.5991 -0.3187  0.0192
18223SOL    HW261910   0.386   9.661   7.335  0.0462 -0.2731 -0.4983
18224SOL     OW61911   9.067   8.451   0.068  0.3661 -0.1335  0.0350
18224SOL    HW161912   9.157   8.438   0.040  0.4407 -1.6929  0.8496
18224SOL    HW261913   9.067   8.534   0.115  1.6779 -0.7176  1.1150
18225SOL     OW61914   0.978  12.183  12.254 -0.2507 -0.4148  0.0070
18225SOL    HW161915   0.993  12.271  12.219 -0.3572 -0.2576  0.3437
18225SOL    HW261916   1.057  12.135  12.233  0.3589  0.1397  0.9579
18226SOL     OW61917  11.092   8.203   3.745 -0.3717 -0.6445  0.2242
18226SOL    HW161918  11.138   8.128   3.707 -0.7345 -0.1419 -1.2590
18226SOL    HW261919  11.005   8.201   3.705 -0.2136  0.8639 -0.2721
18227SOL     OW61920   1.488  10.140   8.944 -0.0316 -0.3042 -0.2126
18227SOL    HW161921   1.538  10.205   8.895 -0.9483  0.5453 -0.0753
18227SOL    HW261922   1.473  10.181   9.029 -0.2672 -0.8789  0.0296
18228SOL     OW61923  10.112  10.277   7.396  0.4033 -0.3790  0.1480
18228SOL    HW161924  10.052  10.305   7.465  0.8505 -1.0406  0.8227
18228SOL    HW261925  10.128  10.356   7.344  0.7673  0.3596  1.3396
18229SOL     OW61926   5.530   1.405   3.172 -0.3700 -0.0572 -0.1462
18229SOL    HW161927   5.461   1.338   3.171 -1.8810  1.4420 -0.0529
18229SOL    HW261928   5.541   1.430   3.081  0.5781 -0.7729 -0.2450
18230SOL     OW61929   9.120   3.923   0.094 -0.0032 -0.5487  0.7889
18230SOL    HW161930   9.100   3.829   0.088  1.3545 -0.7939 -0.4532
18230SOL    HW261931   9.161   3.933   0.180  0.3970 -1.2232  0.6895
18231SOL     OW61932  10.440   4.487   6.522  0.8410  0.6356  0.3050
18231SOL    HW161933  10.460   4.487   6.616  0.5020  1.3586  0.3839
18231SOL    HW261934  10.490   4.413   6.487  0.6216  0.0786  1.1284
18232SOL     OW61935   1.802   8.232  10.937 -0.3914  0.2554 -0.1499
18232SOL    HW161936   1.725   8.222  10.993  0.3124  0.3204  0.8467
18232SOL    HW261937   1.855   8.299  10.980  0.0203  0.5196 -1.0536
18233SOL     OW61938   7.498   7.491  12.027 -0.2494  0.3512  0.1210
18233SOL    HW161939   7.427   7.537  12.070 -0.8403 -0.3318 -0.1048
18233SOL    HW261940   7.529   7.428  12.092  0.4263  0.9161  0.3604
18234SOL     OW61941   6.306  12.053   1.429 -0.0766  0.3515  0.7995
18234SOL    HW161942   6.369  12.115   1.391  0.1850 -0.5989 -0.3397
18234SOL    HW261943   6.235  12.048   1.366 -0.5184  0.1456  1.3063
18235SOL     OW61944   8.826   7.264  11.078  0.0277 -0.5844 -0.2657
18235SOL    HW161945   8.847   7.356  11.068 -0.4186 -0.5720 -1.2127
18235SOL    HW261946   8.732   7.262  11.094 -0.0077 -0.8819 -0.4865
18236SOL     OW61947   8.716   0.225   3.371  0.0309 -0.2871 -0.1986
18236SOL    HW161948   8.653   0.292   3.343 -0.4365 -0.4497  0.4429
18236SOL    HW261949   8.793   0.240   3.317 -0.1055  0.7085 -0.1274
18237SOL     OW61950  10.261   1.085  12.195  0.3596  0.2694 -0.1725
18237SOL    HW161951  10.355   1.069  12.195  0.3560  0.2477 -0.2231
18237SOL    HW261952  10.227   1.030  12.265  0.5242  1.1074  0.5948
18238SOL     OW61953   2.037   1.806   6.806 -0.0204 -0.0687  0.5359
18238SOL    HW161954   2.107   1.855   6.762  0.1693  0.7028  1.6348
18238SOL    HW261955   2.012   1.738   6.744  2.9251 -1.5235  0.7365
18239SOL     OW61956   5.153  12.635   4.275 -0.2389  0.5051  0.2535
18239SOL    HW161957   5.178  12.545   4.293  0.3451  1.1145  2.7557
18239SOL    HW261958   5.059  12.638   4.296  0.3585  1.1211  3.1013
18240SOL     OW61959   9.911   3.655   0.496  0.1731  0.2971 -0.3381
18240SOL    HW161960   9.940   3.737   0.456  1.3584 -0.8076 -1.8386
18240SOL    HW261961   9.823   3.642   0.461 -0.4130  1.3638  0.6542
18241SOL     OW61962   4.060   2.563   1.888  0.7186  0.3936 -0.6521
18241SOL    HW161963   4.022   2.581   1.974  1.7809  0.4276 -0.1768
18241SOL    HW261964   4.154   2.555   1.904  0.9042  0.1324 -1.7702
18242SOL     OW61965   9.153   9.648   5.091  0.1977  0.4848 -0.3634
18242SOL    HW161966   9.210   9.604   5.155  2.4256  1.1601 -1.7609
18242SOL    HW261967   9.168   9.742   5.107  2.1042  0.7039 -2.8076
18243SOL     OW61968   1.608   1.071   8.479 -0.3480 -0.6164  1.1331
18243SOL    HW161969   1.518   1.086   8.451  0.1011 -0.2061 -0.1772
18243SOL    HW261970   1.640   1.158   8.504 -0.6535 -0.9346  2.7416
18244SOL     OW61971   2.363   6.983   7.850 -0.0287  0.7658  0.4658
18244SOL    HW161972   2.371   6.910   7.788  1.8513  1.7545 -0.5338
18244SOL    HW261973   2.316   7.051   7.803 -0.6916  0.6643  0.9671
18245SOL     OW61974   8.084   2.392   6.705  0.5758 -0.0667  0.0141
18245SOL    HW161975   8.107   2.422   6.793  1.8987 -1.6059  0.2454
18245SOL    HW261976   8.099   2.297   6.708 -0.2530 -0.2770 -1.6087
18246SOL     OW61977   8.395  11.338   2.101  0.0639  0.2329  0.0812
18246SOL    HW161978   8.464  11.306   2.158  1.6517  1.5699 -1.0145
18246SOL    HW261979   8.368  11.261   2.051 -0.8381 -0.7894  2.0321
18247SOL     OW61980  10.935   8.995   5.375 -0.3026  0.1894 -0.1369
18247SOL    HW161981  11.006   8.955   5.324 -0.0873  3.3385 -2.5711
18247SOL    HW261982  10.861   8.936   5.362  0.7722 -1.0713 -0.8724
18248SOL     OW61983   7.156  11.624  10.035  0.1222 -0.4965 -0.8477
18248SOL    HW161984   7.074  11.671  10.019  0.7788  1.2552  0.4935
18248SOL    HW261985   7.173  11.576   9.954 -1.6450  0.0054 -1.5560
18249SOL     OW61986   8.544   9.838   3.323 -0.3595  0.4683 -0.2391
18249SOL    HW161987   8.462   9.886   3.330 -0.4242  0.1762  1.3961
18249SOL    HW261988   8.607   9.890   3.372 -0.1443 -0.4502  0.5093
18250SOL     OW61989   1.976   2.800  12.232 -0.7706  0.1811  0.3044
18250SOL    HW161990   1.945   2.880  12.188  1.3830  1.5415  1.1279
18250SOL    HW261991   1.919   2.792  12.309 -1.5288  0.4381 -0.2133
18251SOL     OW61992   3.690   1.402   5.978 -0.4663  0.9488  0.4517
18251SOL    HW161993   3.677   1.331   6.041  0.0783  0.1251 -0.3444
18251SOL    HW261994   3.743   1.466   6.025  0.3298  0.1311  0.6849
18252SOL     OW61995   9.849   8.456   3.322 -0.1891 -0.2461  0.6096
18252SOL    HW161996   9.766   8.500   3.303 -0.8557 -1.8231 -0.2505
18252SOL    HW261997   9.835   8.414   3.406 -0.6324 -1.3637 -0.0130
18253SOL     OW61998   2.677  10.786   3.725  0.3769  0.4656  0.6787
18253SOL    HW161999   2.715  10.829   3.802  3.8777  0.1691 -0.6764
18253SOL    HW262000   2.752  10.748   3.680 -1.5769  0.0429 -2.5402
18254SOL     OW62001  10.326   4.889   7.363  0.1411 -0.2100  0.1113
18254SOL    HW162002  10.416   4.917   7.346  2.0823 -4.7066  1.4583
18254SOL    HW262003  10.299   4.941   7.439  3.4193 -1.4899  2.4158
18255SOL     OW62004   9.308  11.077   2.523 -0.1651 -0.3130  0.4131
18255SOL    HW162005   9.382  11.016   2.528  0.1742  0.0294 -0.3117
18255SOL    HW262006   9.348  11.163   2.515 -0.6357 -0.1590 -0.3893
18256SOL     OW62007   6.713  11.492   9.061  0.0048  0.3149  0.5533
18256SOL    HW162008   6.654  11.417   9.065 -1.5280  1.3740 -0.5930
18256SOL    HW262009   6.690  11.544   9.138 -1.5025  1.3123 -0.4976
18257SOL     OW62010   1.349   0.676   5.990 -0.2701  0.5925  0.3041
18257SOL    HW162011   1.278   0.634   6.039 -0.5805  1.0885  0.2855
18257SOL    HW262012   1.304   0.720   5.917  0.0283  1.1576  0.4602
18258SOL     OW62013   3.053   8.743   2.353 -0.1748 -0.9907 -0.4212
18258SOL    HW162014   3.058   8.652   2.380  0.0579 -0.6591  0.6858
18258SOL    HW262015   2.980   8.780   2.404 -0.5006 -0.6393 -1.1217
18259SOL     OW62016   3.793   3.345   5.438 -0.4029 -0.5212 -0.3524
18259SOL    HW162017   3.727   3.412   5.424  1.8167  1.4739 -2.0052
18259SOL    HW262018   3.778   3.314   5.527 -2.3936  1.1315 -0.0525
18260SOL     OW62019  11.088  11.871   6.208  0.5585 -0.1870 -0.2731
18260SOL    HW162020  11.055  11.858   6.119  1.5098  0.9157 -0.8026
18260SOL    HW262021  11.176  11.906   6.197  1.0743 -0.9412  1.1165
18261SOL     OW62022   6.653   6.740   7.640  0.2390  0.4996 -0.2661
18261SOL    HW162023   6.573   6.693   7.663 -0.8168  1.7735 -1.1859
18261SOL    HW262024   6.705   6.676   7.590 -0.1268 -0.3745  0.4399
18262SOL     OW62025   6.075  11.066   3.838 -0.0138 -0.0677  0.1217
18262SOL    HW162026   6.170  11.075   3.849 -0.2190  1.8601  0.7225
18262SOL    HW262027   6.051  11.139   3.782 -1.0911 -0.9058 -0.5403
18263SOL     OW62028   3.201   1.293   3.648  0.1395  0.2583 -0.0727
18263SOL    HW162029   3.158   1.313   3.565  0.9305 -0.0154 -0.5526
18263SOL    HW262030   3.282   1.249   3.624  1.1593  1.5796  0.7854
18264SOL     OW62031   5.111   4.106   4.928  0.1793 -0.0745  0.0303
18264SOL    HW162032   5.196   4.064   4.918  0.3080  0.1957 -0.0186
18264SOL    HW262033   5.094   4.146   4.842 -0.1667 -0.4364 -0.0770
18265SOL     OW62034   7.157   2.364   1.182  0.3897  0.0472 -0.0804
18265SOL    HW162035   7.221   2.387   1.115  1.3894 -1.8078  0.1791
18265SOL    HW262036   7.205   2.309   1.244 -1.4103 -1.3352  0.1778
18266SOL     OW62037   9.975  12.652   9.907 -0.3450  0.1225  0.0629
18266SOL    HW162038   9.927  12.702   9.840 -1.6264 -0.9977  0.1087
18266SOL    HW262039   9.926  12.668   9.988 -0.3840 -0.6946  0.2014
18267SOL     OW62040   3.886   1.725   1.892  0.1413  0.5298 -0.6284
18267SOL    HW162041   3.908   1.656   1.955 -1.2485  0.0681 -0.6176
18267SOL    HW262042   3.940   1.800   1.918  0.6407 -0.1118  0.2164
18268SOL     OW62043   1.347   4.079   0.689 -0.0138  0.4866  0.0952
18268SOL    HW162044   1.416   4.144   0.703 -1.7819  2.3463  0.6712
18268SOL    HW262045   1.302   4.073   0.773 -0.6239 -0.6160 -0.2875
18269SOL     OW62046  10.015  12.512   5.398  0.6060  0.0885 -0.4769
18269SOL    HW162047   9.924  12.506   5.426  0.2463 -1.3801 -1.7826
18269SOL    HW262048  10.047  12.594   5.435 -1.3171  0.7511 -0.1895
18270SOL     OW62049  11.579  10.015   6.093  0.1564  0.2484  0.1561
18270SOL    HW162050  11.497  10.057   6.120 -0.4401 -1.1529  0.6403
18270SOL    HW262051  11.639  10.087   6.076 -1.4791  1.3566 -1.2175
18271SOL     OW62052   3.502   5.758   6.851  0.0765  0.1135 -0.1069
18271SOL    HW162053   3.407   5.756   6.841  0.0289 -1.4050  0.4114
18271SOL    HW262054   3.534   5.686   6.796  0.6784 -1.1443  1.7808
18272SOL     OW62055   6.783   9.444   3.291  0.2125  0.3264 -0.2181
18272SOL    HW162056   6.724   9.480   3.225 -1.5539  0.2739  1.2532
18272SOL    HW262057   6.812   9.360   3.256 -1.7665 -0.3323 -0.4028
18273SOL     OW62058   9.342   8.781   7.339  0.5197  0.3445  0.2509
18273SOL    HW162059   9.272   8.814   7.396 -0.1903  0.9336 -0.9369
18273SOL    HW262060   9.393   8.723   7.396 -2.6851 -2.5832  0.4563
18274SOL     OW62061  10.482   1.704   1.052 -0.0015 -0.1237  0.7249
18274SOL    HW162062  10.568   1.726   1.018  0.9510 -3.5114  0.5444
18274SOL    HW262063  10.430   1.683   0.975 -0.9774  1.6085  0.8525
18275SOL     OW62064  12.460   9.867   4.482  0.2074 -0.2985  0.0921
18275SOL    HW162065  12.480   9.822   4.564  3.1864 -0.9714 -0.8620
18275SOL    HW262066  12.435   9.798   4.422  2.5329 -0.4869 -0.7460
18276SOL     OW62067   3.567   3.357   9.731  0.0526 -0.1859 -0.1260
18276SOL    HW162068   3.580   3.265   9.753 -1.0210 -0.0192  1.2836
18276SOL    HW262069   3.524   3.395   9.807  2.3255  1.9882  0.2341
18277SOL     OW62070   2.340   9.762   0.975  0.3671  0.2568  0.1913
18277SOL    HW162071   2.394   9.841   0.977  0.6358  0.0625  0.5763
18277SOL    HW262072   2.318   9.751   0.883  0.5910  0.6034  0.0941
18278SOL     OW62073  11.587   5.300   9.073 -0.3005 -0.2787 -0.3933
18278SOL    HW162074  11.658   5.360   9.096 -1.2221  0.8124 -0.2892
18278SOL    HW262075  11.628   5.213   9.072  0.9725  0.2930 -0.1127
18279SOL     OW62076  12.372   5.792   9.284  0.4257 -0.3126  0.3852
18279SOL    HW162077  12.396   5.869   9.233 -0.8804  0.8650  1.4631
18279SOL    HW262078  12.388   5.817   9.375  2.3267 -2.2156  0.6502
18280SOL     OW62079   2.976   6.618   3.619  0.0998 -0.4882  0.2716
18280SOL    HW162080   3.014   6.702   3.593 -0.6683 -0.7889 -2.0614
18280SOL    HW262081   3.029   6.590   3.693  1.6460  1.1312 -0.1487
18281SOL     OW62082   4.178  10.618   6.195 -0.4750 -0.0513 -0.4650
18281SOL    HW162083   4.138  10.580   6.273  0.6049 -0.0018  0.1253
18281SOL    HW262084   4.192  10.709   6.217 -0.1974 -0.0272 -0.7394
18282SOL     OW62085   1.916   6.385   8.980 -0.3980  0.6116 -0.0521
18282SOL    HW162086   1.867   6.434   8.915 -0.6445 -1.1155 -1.2273
18282SOL    HW262087   1.999   6.431   8.988 -0.2841  0.7408 -1.7570
18283SOL     OW62088  10.447   1.372   4.706 -0.1750  0.0412  0.1744
18283SOL    HW162089  10.518   1.435   4.721 -1.0028  1.5092 -1.5875
18283SOL    HW262090  10.480   1.315   4.637  1.2690 -2.7492  2.9702
18284SOL     OW62091   5.089  11.699   5.847  0.8237 -0.5999  0.2648
18284SOL    HW162092   5.044  11.681   5.929 -0.4130 -0.1133 -0.2914
18284SOL    HW262093   5.048  11.641   5.783  1.2010 -0.3787 -0.1863
18285SOL     OW62094   5.689   1.130   4.968 -0.2812 -0.2650 -0.4104
18285SOL    HW162095   5.623   1.199   4.960  0.7485  0.9022  0.5888
18285SOL    HW262096   5.650   1.066   5.027 -0.1330  0.9706  1.0927
18286SOL     OW62097   5.647  10.811  11.452  0.2164 -0.4150  0.4396
18286SOL    HW162098   5.670  10.807  11.359  0.1652 -0.0942  0.4115
18286SOL    HW262099   5.574  10.749  11.461 -1.1108  0.9993 -0.1489
18287SOL     OW62100  11.904   2.814   4.549 -0.5620  0.3048  0.2254
18287SOL    HW162101  11.849   2.782   4.620 -1.5254  0.8383 -0.2563
18287SOL    HW262102  11.960   2.740   4.527 -0.8304 -0.1340  0.9739
18288SOL     OW62103  12.078   8.688   8.323  0.4313 -0.3981  0.1994
18288SOL    HW162104  12.155   8.642   8.289  0.2523 -0.0711 -0.6549
18288SOL    HW262105  12.108   8.777   8.338  0.2065 -0.2588 -0.1804
18289SOL     OW62106   3.776   8.446   8.193 -0.1329 -0.3740  0.5110
18289SOL    HW162107   3.744   8.535   8.210 -0.8606 -0.6652  0.7165
18289SOL    HW262108   3.868   8.458   8.167  0.0740  0.3518  1.5228
18290SOL     OW62109   0.553   3.002   5.002  0.1577  0.0586  0.1799
18290SOL    HW162110   0.525   3.085   4.964  0.3238 -0.0635 -0.2192
18290SOL    HW262111   0.531   2.937   4.935  1.0607 -0.0840  0.0070
18291SOL     OW62112   5.760   2.538   1.130 -0.1864 -0.2766  0.0870
18291SOL    HW162113   5.839   2.512   1.178 -0.0503 -0.5658 -0.2831
18291SOL    HW262114   5.711   2.593   1.191  0.4877  0.2190  0.1854
18292SOL     OW62115  11.738   7.747   3.531 -0.2271 -0.4765 -0.0766
18292SOL    HW162116  11.706   7.776   3.446 -0.0234  0.3139  0.1058
18292SOL    HW262117  11.717   7.654   3.534  0.4779 -0.7044 -1.3258
18293SOL     OW62118   3.931   0.707   9.998  0.1748 -0.2083  0.5363
18293SOL    HW162119   4.009   0.732   9.949  0.4433 -1.4484  0.3090
18293SOL    HW262120   3.914   0.783  10.054  1.8628 -0.0976  0.9855
18294SOL     OW62121   8.820   0.854   6.243  0.2459  0.4069 -0.0227
18294SOL    HW162122   8.804   0.768   6.282 -0.7597  1.0040  0.9414
18294SOL    HW262123   8.745   0.868   6.185  2.1028 -0.8247 -2.9867
18295SOL     OW62124   2.550   1.580  11.158 -0.0049  0.0167 -0.1398
18295SOL    HW162125   2.583   1.643  11.222 -0.4067 -0.1119  0.1975
18295SOL    HW262126   2.519   1.506  11.210 -1.3662  0.3783 -0.4061
18296SOL     OW62127   5.841   9.524   6.979  0.3362 -0.1992  0.1987
18296SOL    HW162128   5.802   9.543   7.064  0.1357  1.2242 -0.1800
18296SOL    HW262129   5.794   9.448   6.947 -0.9093  0.3976  0.5441
18297SOL     OW62130  12.401   7.510   2.899  0.1990  0.3874  0.1272
18297SOL    HW162131  12.438   7.598   2.887 -1.4827  1.0253 -0.6075
18297SOL    HW262132  12.443   7.458   2.831  1.3028  0.5742  0.6427
18298SOL     OW62133   7.153   4.143  11.369 -0.1562  0.1277  0.1441
18298SOL    HW162134   7.152   4.202  11.445  0.8858  1.3296 -0.7456
18298SOL    HW262135   7.116   4.194  11.298  0.3324 -0.4470 -0.5429
18299SOL     OW62136   7.747   1.814  11.966  0.0634  0.0956 -0.7488
18299SOL    HW162137   7.812   1.777  11.907  0.3456  1.9687 -1.6784
18299SOL    HW262138   7.791   1.816  12.051  0.2105 -1.1595 -0.7669
18300SOL     OW62139  12.564   2.375   5.860 -0.2808  0.3429 -0.4304
18300SOL    HW162140  12.612   2.380   5.778  1.6704  0.2718  0.6381
18300SOL    HW262141  12.632   2.382   5.928 -1.7739  0.0218  1.1713
18301SOL     OW62142  11.913   6.393  10.284 -0.3635  0.2276  0.0853
18301SOL    HW162143  11.902   6.481  10.249 -1.3539  1.2957  2.7981
18301SOL    HW262144  12.007   6.376  10.277 -0.4932  0.2431 -3.0505
18302SOL     OW62145  10.286  12.545   8.158 -0.3420  0.3602  0.6060
18302SOL    HW162146  10.211  12.542   8.098 -0.3359  1.5589  0.4978
18302SOL    HW262147  10.321  12.634   8.147  0.8211 -0.0310  0.9918
18303SOL     OW62148   9.164  11.846   2.081 -0.4518  0.3665 -0.0883
18303SOL    HW162149   9.235  11.906   2.103  0.6039 -0.7008 -0.4442
18303SOL    HW262150   9.132  11.814   2.166  0.5776 -0.3428  0.0501
18304SOL     OW62151   7.442   5.900  12.308  0.6242  0.2464 -0.1395
18304SOL    HW162152   7.504   5.951  12.361  1.7850 -0.5116 -0.7339
18304SOL    HW262153   7.439   5.814  12.350  1.1179 -0.1822 -0.9624
18305SOL     OW62154  12.395   1.056   3.465 -0.0646 -0.1825  0.2400
18305SOL    HW162155  12.316   1.059   3.519  0.3580 -0.0813  0.8693
18305SOL    HW262156  12.410   1.147   3.439  0.4488 -0.0270  1.0354
18306SOL     OW62157   7.318   7.072  12.686  0.4831 -0.5313  0.1450
18306SOL    HW162158   7.283   7.010  12.623 -0.3678  0.6111 -0.5482
18306SOL    HW262159   7.269   7.056  12.767 -1.8278  1.1157 -0.8366
18307SOL     OW62160  10.197  11.020  10.646 -0.2865  0.5046  0.3616
18307SOL    HW162161  10.173  11.005  10.737 -1.0441 -2.1297 -0.1784
18307SOL    HW262162  10.239  10.938  10.619  0.1292  1.3127 -1.5913
18308SOL     OW62163   6.502  11.298   5.895 -0.0492 -0.3424  0.2704
18308SOL    HW162164   6.487  11.204   5.908 -0.1536 -0.2285  0.9723
18308SOL    HW262165   6.457  11.340   5.968 -1.1280  0.3375 -0.7508
18309SOL     OW62166  11.987  12.594   8.845 -0.8538 -0.3244  0.2760
18309SOL    HW162167  12.041  12.631   8.916  2.0725 -0.8027 -1.5122
18309SOL    HW262168  12.024  12.507   8.830 -0.7518  0.0992 -2.3843
18310SOL     OW62169  11.907   8.486   9.961  0.3158  0.0070 -0.1103
18310SOL    HW162170  11.896   8.533  10.044  0.4209  0.5654 -0.4114
18310SOL    HW262171  11.844   8.414   9.967 -1.4594  1.4369 -0.5492
18311SOL     OW62172   5.182   8.446   7.325  0.1171  0.1524 -0.5511
18311SOL    HW162173   5.269   8.475   7.297  0.2251  0.4811  0.1049
18311SOL    HW262174   5.128   8.452   7.247  0.5902  0.3232 -0.8691
18312SOL     OW62175   2.777   8.912   9.808  0.1008  0.0377  0.0021
18312SOL    HW162176   2.843   8.935   9.742 -0.4554  0.4323 -0.4312
18312SOL    HW262177   2.788   8.818   9.821 -0.1707 -0.1574 -1.0999
18313SOL     OW62178   0.234   4.093   9.614 -0.6862  0.1131 -0.1616
18313SOL    HW162179   0.180   4.081   9.536 -2.0098 -0.9278  0.8579
18313SOL    HW262180   0.172   4.091   9.687  0.8204 -3.3086  1.2543
18314SOL     OW62181   1.757   0.354   5.476 -0.3120 -0.7477  0.1212
18314SOL    HW162182   1.838   0.315   5.442  0.6549 -0.6796  2.1762
18314SOL    HW262183   1.781   0.444   5.498 -0.3416 -1.2442  2.4793
18315SOL     OW62184   8.679   3.027  11.211  0.0457  0.0156  0.5721
18315SOL    HW162185   8.710   3.112  11.242  1.0285  1.1599 -3.1317
18315SOL    HW262186   8.587   3.025  11.236  0.2882  1.5979  1.7791
18316SOL     OW62187   5.784   8.069  12.328 -0.4087 -0.3539  0.1525
18316SOL    HW162188   5.723   8.140  12.307  0.3134  0.1948 -0.1333
18316SOL    HW262189   5.783   8.013  12.251 -0.0918 -0.0089 -0.1072
18317SOL     OW62190  12.336   1.932  10.146  0.4476 -0.0419  0.0713
18317SOL    HW162191  12.396   1.860  10.126  0.8380 -0.6891  3.1363
18317SOL    HW262192  12.294   1.908  10.228 -1.0869  2.2517  0.0838
18318SOL     OW62193   9.291   8.752   5.213  0.2726  0.1943  0.9295
18318SOL    HW162194   9.297   8.845   5.235  0.5764  0.2386  0.6556
18318SOL    HW262195   9.204   8.726   5.243 -0.5591  1.0048 -0.6864
18319SOL     OW62196   9.549   5.299   5.803 -0.0396  0.2194  0.1277
18319SOL    HW162197   9.585   5.222   5.759  0.3576 -0.6686  1.9311
18319SOL    HW262198   9.473   5.267   5.851  0.0687  0.9651  0.8274
18320SOL     OW62199   9.895  11.265   4.665 -0.7911 -0.3148  0.1063
18320SOL    HW162200   9.846  11.272   4.583  1.0465  0.5579 -0.9755
18320SOL    HW262201   9.880  11.349   4.709 -0.2202 -0.0236 -0.2531
18321SOL     OW62202   8.434   3.363  12.269  0.0957 -0.1716  0.2154
18321SOL    HW162203   8.456   3.375  12.361 -0.9921 -0.7231  0.5564
18321SOL    HW262204   8.473   3.439  12.225 -1.7443  1.6090  1.5001
18322SOL     OW62205   7.405   3.781   8.363 -0.1978 -0.0452  0.4114
18322SOL    HW162206   7.425   3.754   8.273  0.7620  0.1061  0.5665
18322SOL    HW262207   7.310   3.795   8.363  0.0743  2.4608 -1.2846
18323SOL     OW62208  10.543   4.296   7.636  0.0661  0.5221  0.1514
18323SOL    HW162209  10.536   4.392   7.634 -0.4151  0.4813  0.0002
18323SOL    HW262210  10.638   4.280   7.637  0.1846  0.9653 -1.3806
18324SOL     OW62211   9.473   9.432   8.728  0.2591  0.3453 -0.1722
18324SOL    HW162212   9.468   9.391   8.814 -0.0905 -0.4795 -0.5766
18324SOL    HW262213   9.398   9.492   8.726 -0.5040 -0.5866 -0.3746
18325SOL     OW62214   3.494  10.605  10.844  0.0508  0.6434 -0.2741
18325SOL    HW162215   3.560  10.649  10.789  0.0855  0.8477 -0.0692
18325SOL    HW262216   3.525  10.618  10.933 -0.0698  0.4114 -0.1985
18326SOL     OW62217   9.606  10.187   7.132  0.0304  0.1702  0.2311
18326SOL    HW162218   9.690  10.181   7.178  0.3220  1.6306 -0.0592
18326SOL    HW262219   9.629  10.181   7.039 -0.2904 -0.3341  0.1808
18327SOL     OW62220   8.594  10.541   0.729 -0.1543  0.1043 -0.5199
18327SOL    HW162221   8.500  10.525   0.734  0.1786 -1.9965  0.0241
18327SOL    HW262222   8.628  10.465   0.682  1.5378 -0.5039  1.5436
18328SOL     OW62223   5.928  11.460   5.239 -0.3348 -0.0659 -0.2092
18328SOL    HW162224   5.987  11.438   5.167  1.4246 -0.5292  1.3013
18328SOL    HW262225   5.943  11.554   5.254  0.0872 -0.1941  0.2065
18329SOL     OW62226   6.242   6.186   8.343 -0.0906 -0.2675 -0.3326
18329SOL    HW162227   6.169   6.238   8.376  1.3963  0.3682  2.2353
18329SOL    HW262228   6.274   6.234   8.267 -1.0812  0.5423 -0.2509
18330SOL     OW62229  11.541   3.388  10.871 -0.1467  0.0451  0.2485
18330SOL    HW162230  11.606   3.368  10.804  0.3640 -0.0162  0.7512
18330SOL    HW262231  11.474   3.321  10.860 -0.0757  0.0460 -0.2082
18331SOL     OW62232  11.173   0.020  10.384 -0.5095  0.3749 -0.2446
18331SOL    HW162233  11.162  -0.008  10.474  1.1127 -0.5967 -0.2987
18331SOL    HW262234  11.144   0.111  10.383 -1.6797  0.0346  0.9680
18332SOL     OW62235   3.884   9.167   2.199  0.0061 -0.7631  0.1057
18332SOL    HW162236   3.809   9.140   2.145 -1.0370  0.1274  1.0560
18332SOL    HW262237   3.846   9.223   2.266  1.7659  1.0991 -0.3793
18333SOL     OW62238   8.232   9.191   5.204 -0.3549  0.5405 -0.6748
18333SOL    HW162239   8.272   9.195   5.117 -1.1930  0.1225 -1.0877
18333SOL    HW262240   8.154   9.137   5.193 -1.4159  1.8710 -0.0244
18334SOL     OW62241   5.383   8.436   1.076  0.0605 -0.6603 -0.1225
18334SOL    HW162242   5.403   8.365   1.137 -0.8982  0.0134  0.9985
18334SOL    HW262243   5.461   8.492   1.078  0.5261 -1.2757 -0.4732
18335SOL     OW62244   4.345   6.817   4.207  0.3849 -0.4527 -0.0306
18335SOL    HW162245   4.290   6.893   4.189  1.4408  0.3162 -0.1020
18335SOL    HW262246   4.394   6.802   4.126  0.6516 -0.8173  0.1903
18336SOL     OW62247  10.906   3.251   5.066  0.5112 -0.6994 -0.2563
18336SOL    HW162248  10.971   3.282   5.003  1.7826  0.6744  1.5761
18336SOL    HW262249  10.826   3.299   5.043  0.4503 -1.5032 -1.8182
18337SOL     OW62250   5.627  10.144   5.826 -0.0429 -0.2031  0.1758
18337SOL    HW162251   5.542  10.187   5.834  1.5004  2.9602  2.2731
18337SOL    HW262252   5.680  10.186   5.895  2.9328 -2.7082 -0.3921
18338SOL     OW62253   4.314   8.321   3.792  0.5666  0.7811  0.4262
18338SOL    HW162254   4.397   8.352   3.758  0.2635 -0.1253 -1.2403
18338SOL    HW262255   4.282   8.259   3.726 -0.2400 -0.8071  2.1890
18339SOL     OW62256   4.655   3.144  10.251 -0.7346 -0.1825 -0.5795
18339SOL    HW162257   4.715   3.088  10.202 -0.7940  1.2583 -2.4377
18339SOL    HW262258   4.627   3.210  10.187 -1.3369  1.4265  1.2493
18340SOL     OW62259   0.358   0.729   3.698 -0.2974  0.1006  0.0250
18340SOL    HW162260   0.354   0.633   3.696 -1.1269  0.1283 -0.3375
18340SOL    HW262261   0.350   0.755   3.606  0.9209  0.4940  0.0213
18341SOL     OW62262  12.310   9.182  10.398 -0.4038 -0.1143  0.4373
18341SOL    HW162263  12.231   9.215  10.355 -0.4605  0.3655  0.9041
18341SOL    HW262264  12.351   9.260  10.436 -0.1148 -0.4743  0.8673
18342SOL     OW62265  11.842   5.479   0.873  0.5774 -0.5825  0.5536
18342SOL    HW162266  11.926   5.485   0.920 -0.2320  1.8174  1.9091
18342SOL    HW262267  11.818   5.387   0.877  3.2799 -1.4076 -0.1867
18343SOL     OW62268  10.427  11.543   3.589 -0.0432 -0.1283  0.1691
18343SOL    HW162269  10.497  11.539   3.524 -0.1326  0.5489  0.0230
18343SOL    HW262270  10.396  11.452   3.596  0.9113 -0.4490  0.3170
18344SOL     OW62271   4.634  10.761   4.065  0.0432  0.1162 -0.3956
18344SOL    HW162272   4.555  10.762   4.119  0.3425  0.1108  0.0560
18344SOL    HW262273   4.614  10.817   3.990 -0.0391  0.9288  0.2190
18345SOL     OW62274   8.647   7.022   7.362 -0.7018 -0.0293  0.4682
18345SOL    HW162275   8.601   6.938   7.355  0.1706 -0.5008  0.2478
18345SOL    HW262276   8.582   7.087   7.335 -1.0975 -0.7228 -0.2905
18346SOL     OW62277   4.195  10.194   4.531 -0.2617  0.2595  0.0005
18346SOL    HW162278   4.126  10.205   4.596 -0.2378  0.1436  0.0451
18346SOL    HW262279   4.230  10.282   4.518  0.4960  0.1157  0.9783
18347SOL     OW62280  10.023   2.859   7.991  0.4113  0.0385  0.0288
18347SOL    HW162281  10.077   2.786   7.961  1.5468  1.3108 -1.1633
18347SOL    HW262282  10.076   2.905   8.055 -0.6787 -0.6882  1.5140
18348SOL     OW62283  10.146   0.921   9.443 -0.1974 -0.3208  0.1748
18348SOL    HW162284  10.130   0.833   9.475 -0.7328 -0.1758  0.3074
18348SOL    HW262285  10.096   0.978   9.501 -0.2517  0.0332 -0.2100
18349SOL     OW62286  12.447   7.959   2.174  0.3077  0.3707 -0.1371
18349SOL    HW162287  12.464   7.923   2.087 -3.0553 -0.3280 -0.6756
18349SOL    HW262288  12.373   7.907   2.206  0.7546  1.3456  2.6900
18350SOL     OW62289  10.190  10.885  10.202 -0.2038 -0.1241  0.1977
18350SOL    HW162290  10.140  10.874  10.122 -0.1761 -0.7258  0.2578
18350SOL    HW262291  10.124  10.888  10.272 -0.1519 -1.4093  0.3270
18351SOL     OW62292   2.113   6.556   5.100  0.1354 -0.1227  0.1327
18351SOL    HW162293   2.171   6.534   5.172 -0.8649 -3.0427  0.1780
18351SOL    HW262294   2.037   6.596   5.143  0.7125  0.7333  0.3837
18352SOL     OW62295   4.903   5.132  11.542 -0.0732 -0.2235  0.0804
18352SOL    HW162296   4.982   5.079  11.530  1.7676  2.0970  1.1061
18352SOL    HW262297   4.854   5.088  11.610  0.7204 -1.3232 -0.0395
18353SOL     OW62298   7.124   2.244   8.702 -0.4612  0.4663  0.2979
18353SOL    HW162299   7.212   2.251   8.664 -0.5869 -0.6355 -0.2424
18353SOL    HW262300   7.066   2.284   8.636 -0.3761  1.1855  0.6507
18354SOL     OW62301   0.489   9.260   2.310 -0.2803  0.1676  0.1605
18354SOL    HW162302   0.413   9.319   2.319  0.2826  1.2902 -1.8423
18354SOL    HW262303   0.542   9.279   2.387 -0.7606  1.3443  0.2366
18355SOL     OW62304   0.811   9.568   1.509 -0.4651 -0.2797  0.0183
18355SOL    HW162305   0.833   9.612   1.427 -0.6600  1.6611  0.9469
18355SOL    HW262306   0.894   9.559   1.555 -0.4687 -0.6379 -0.0400
18356SOL     OW62307   5.130   9.118   8.625 -0.4031 -0.0075 -0.0072
18356SOL    HW162308   5.086   9.070   8.696  1.2382  0.8190  1.6549
18356SOL    HW262309   5.205   9.063   8.603 -0.8772 -0.2339 -1.1230
18357SOL     OW62310   8.639   6.302   1.401 -0.1365  0.1434 -0.1824
18357SOL    HW162311   8.566   6.329   1.456 -1.5731  2.3240 -2.9003
18357SOL    HW262312   8.624   6.209   1.384 -2.4547  0.5919 -0.8310
18358SOL     OW62313   6.676   4.264   6.373 -0.3580 -0.0321 -0.1690
18358SOL    HW162314   6.616   4.232   6.440  1.5438 -0.0808  1.6270
18358SOL    HW262315   6.712   4.345   6.409  0.3385  0.2323 -1.3861
18359SOL     OW62316   9.104   1.667   7.683 -0.1565 -0.2328 -0.0571
18359SOL    HW162317   9.170   1.608   7.720  1.4080 -2.3806 -5.3558
18359SOL    HW262318   9.150   1.749   7.669  0.9871 -1.1137 -1.9055
18360SOL     OW62319   8.511   0.530   4.544 -0.3429  0.0467 -1.0644
18360SOL    HW162320   8.453   0.464   4.506 -1.4373 -0.4672  1.3046
18360SOL    HW262321   8.455   0.606   4.557  0.3843  0.7233 -1.7757
18361SOL     OW62322  12.170  12.515   1.250  0.1548 -0.1709 -0.4224
18361SOL    HW162323  12.265  12.516   1.259  0.0637 -1.6075  1.2398
18361SOL    HW262324  12.139  12.573   1.320 -0.2077 -0.1501 -0.5993
18362SOL     OW62325  11.539   9.565  10.335 -0.3483  0.4617 -0.0308
18362SOL    HW162326  11.634   9.572  10.345 -0.3635 -0.4847  0.9425
18362SOL    HW262327  11.505   9.646  10.373  0.1058  1.6215 -1.9130
18363SOL     OW62328   5.982   3.091   6.838  0.1685 -0.2726 -0.0318
18363SOL    HW162329   6.054   3.030   6.821 -1.0686 -1.7853 -0.1482
18363SOL    HW262330   5.928   3.087   6.759  0.1866  1.1977 -0.1338
18364SOL     OW62331   4.041   4.077   8.797  0.0156  0.0899  0.2257
18364SOL    HW162332   3.973   4.105   8.858 -1.0432 -1.0469 -0.3844
18364SOL    HW262333   4.099   4.021   8.849 -0.1537  0.1449  0.4742
18365SOL     OW62334   0.988   2.706   8.086 -0.1015  0.0570  0.6820
18365SOL    HW162335   0.963   2.776   8.146  1.2852  0.5528  0.7187
18365SOL    HW262336   1.078   2.727   8.060 -0.3513 -0.6275 -0.8775
18366SOL     OW62337   4.366   0.577   8.195 -0.3198 -0.3095 -0.4847
18366SOL    HW162338   4.384   0.517   8.123 -0.6506 -1.1564  0.1232
18366SOL    HW262339   4.392   0.663   8.162  2.9499 -1.1221 -0.3674
18367SOL     OW62340   5.100   8.222   3.703 -0.2562  0.5000  0.3827
18367SOL    HW162341   5.018   8.189   3.666 -0.3487  1.2407 -0.0998
18367SOL    HW262342   5.095   8.317   3.689  0.2271  0.6623  1.2652
18368SOL     OW62343   4.229   1.663   5.078  0.6559  0.5636  0.1088
18368SOL    HW162344   4.283   1.641   5.154  0.3260  0.4233  0.3034
18368SOL    HW262345   4.195   1.580   5.047  1.9067  0.4458 -1.0576
18369SOL     OW62346   5.003   9.807   4.767 -0.1514  0.0018 -0.2890
18369SOL    HW162347   4.941   9.838   4.701  0.9859  2.2634 -0.3948
18369SOL    HW262348   5.086   9.847   4.743  1.7050 -3.6804 -0.6779
18370SOL     OW62349   9.780   6.787   5.796 -0.4268  0.1433 -0.4370
18370SOL    HW162350   9.793   6.752   5.884 -1.0467 -3.4923 -1.6251
18370SOL    HW262351   9.685   6.797   5.787 -0.3016  1.8975 -0.3099
18371SOL     OW62352   8.556   8.077   8.481  0.0014 -0.0385  0.3226
18371SOL    HW162353   8.545   8.022   8.404  1.6249 -0.1193  0.1118
18371SOL    HW262354   8.483   8.138   8.478 -1.3375 -1.5952  0.0828
18372SOL     OW62355  10.329   4.351   9.573  0.6568 -0.3187 -0.0857
18372SOL    HW162356  10.345   4.363   9.667  1.1020  0.3235 -0.2320
18372SOL    HW262357  10.235   4.336   9.566  0.6492 -0.5502  0.4813
18373SOL     OW62358   8.643   9.477   4.402  0.2963 -0.2497  0.3150
18373SOL    HW162359   8.709   9.445   4.340  0.6174  1.0304 -0.0286
18373SOL    HW262360   8.560   9.462   4.357  0.5037  0.3080 -0.2777
18374SOL     OW62361   4.656   6.542   6.536  0.2319  0.2889 -0.2771
18374SOL    HW162362   4.600   6.616   6.514  1.1855  0.9432 -0.5405
18374SOL    HW262363   4.595   6.470   6.552 -0.8508  1.6241  2.0579
18375SOL     OW62364  10.164   5.699  11.771 -0.2894 -0.1633  0.4675
18375SOL    HW162365  10.142   5.606  11.784 -2.1881  0.3568  1.3874
18375SOL    HW262366  10.252   5.698  11.733 -0.1195 -2.3222  0.7824
18376SOL     OW62367   1.890   4.883   7.690 -0.3761 -0.4859 -0.2247
18376SOL    HW162368   1.923   4.866   7.778  1.3135 -1.0556 -0.9092
18376SOL    HW262369   1.963   4.927   7.645 -1.6566  0.9619 -0.9888
18377SOL     OW62370   0.218  12.401   0.845  0.4944  0.3844  0.1436
18377SOL    HW162371   0.240  12.310   0.869  1.1910  0.2874 -0.8040
18377SOL    HW262372   0.195  12.396   0.752  0.0152  1.0985  0.2196
18378SOL     OW62373   4.367   4.501   2.683  0.3235  0.6283 -0.1966
18378SOL    HW162374   4.357   4.445   2.605 -1.2923 -0.6846  0.8818
18378SOL    HW262375   4.413   4.446   2.746 -0.1761  0.9469  0.4527
18379SOL     OW62376   0.325   3.784   2.377 -0.1504  0.2662  0.0818
18379SOL    HW162377   0.249   3.782   2.435  0.6781  1.0027  1.2213
18379SOL    HW262378   0.329   3.875   2.347  0.8361  0.4752  0.8073
18380SOL     OW62379   4.953   3.357  12.650  0.0063 -0.2683  0.0392
18380SOL    HW162380   5.044   3.386  12.644  0.1300 -0.3151  1.4910
18380SOL    HW262381   4.908   3.405  12.581  0.5402  2.0940  1.2499
18381SOL     OW62382   9.981  11.185   6.560  0.3649 -0.3519 -0.4794
18381SOL    HW162383  10.042  11.248   6.523  0.7107  0.6109  1.6012
18381SOL    HW262384   9.905  11.188   6.501  0.2587  2.2037 -0.3294
18382SOL     OW62385   4.149   7.270   1.000  0.1262  1.2717 -0.0181
18382SOL    HW162386   4.118   7.198   1.055 -2.3225  2.4964  0.3697
18382SOL    HW262387   4.153   7.345   1.060  0.0733  2.0313 -0.9453
18383SOL     OW62388   9.422   5.133  10.888  0.0750  0.2856 -0.0288
18383SOL    HW162389   9.346   5.100  10.936  0.9881  0.2628  1.4605
18383SOL    HW262390   9.388   5.154  10.801 -1.6057  0.1693  0.5647
18384SOL     OW62391   7.465   4.327   2.201 -0.3296 -0.4501  0.3316
18384SOL    HW162392   7.529   4.283   2.145 -1.1541 -2.8152  1.1317
18384SOL    HW262393   7.411   4.257   2.236 -2.3224  1.3204  1.0150
18385SOL     OW62394   2.905  12.567   4.732 -0.0660 -0.0042 -0.5828
18385SOL    HW162395   2.871  12.579   4.820 -1.1730  1.5116 -1.1908
18385SOL    HW262396   2.833  12.528   4.683  0.3051 -0.1570 -1.0197
18386SOL     OW62397   3.241  10.565   6.783  0.4464 -0.4428  0.7315
18386SOL    HW162398   3.226  10.474   6.809 -1.7621  0.1393  1.6957
18386SOL    HW262399   3.155  10.606   6.788  0.6594  0.8580 -3.3126
18387SOL     OW62400   8.620   5.531   3.119  0.3382  0.3113 -0.1368
18387SOL    HW162401   8.560   5.605   3.124  1.0602  0.8478  1.1997
18387SOL    HW262402   8.699   5.567   3.078  0.6400  0.2693  0.3885
18388SOL     OW62403   5.796   4.489   7.062  0.2752  0.3180 -0.1411
18388SOL    HW162404   5.892   4.493   7.060  0.2926  1.9935  1.3514
18388SOL    HW262405   5.768   4.576   7.033 -0.9436 -0.9651 -3.2122
18389SOL     OW62406   3.119  11.397   5.720  0.3246  0.1077 -0.4901
18389SOL    HW162407   3.124  11.338   5.645 -2.4357 -0.1204 -0.5922
18389SOL    HW262408   3.081  11.344   5.790  0.9633  0.8715  0.4657
18390SOL     OW62409   3.885   7.150  12.198 -0.8094  0.2188 -0.9903
18390SOL    HW162410   3.849   7.063  12.217 -0.1130  0.0660 -0.2771
18390SOL    HW262411   3.864   7.202  12.276 -0.9932  0.6199 -1.3022
18391SOL     OW62412   1.617   2.016   2.094 -0.4468 -0.9403  0.1075
18391SOL    HW162413   1.589   1.945   2.036 -1.3144  0.1381 -0.8350
18391SOL    HW262414   1.634   2.089   2.035 -0.2410 -0.1567  1.1216
18392SOL     OW62415   4.792   4.788  11.407 -0.0414  0.2379  0.0061
18392SOL    HW162416   4.772   4.852  11.338  0.5458 -1.0679 -1.4313
18392SOL    HW262417   4.771   4.704  11.368  0.8526 -0.5813  1.2358
18393SOL     OW62418   4.568   6.820   1.855  0.6244 -0.6318  0.2731
18393SOL    HW162419   4.614   6.783   1.779  0.6555  2.0805 -1.1450
18393SOL    HW262420   4.475   6.807   1.836  0.6419 -0.2520 -0.0803
18394SOL     OW62421   3.807   1.527   4.826  0.2012 -0.3957  0.1827
18394SOL    HW162422   3.885   1.576   4.797 -0.3902  0.4804  0.0220
18394SOL    HW262423   3.793   1.462   4.758 -1.6534  2.1473 -2.1004
18395SOL     OW62424  12.459   2.981   6.466 -0.2887  0.1202 -0.5419
18395SOL    HW162425  12.365   2.993   6.452 -0.1654  0.2093 -1.3166
18395SOL    HW262426  12.491   3.067   6.491 -0.3813  0.1233 -0.4298
18396SOL     OW62427   6.105   4.696   8.877 -0.4897 -0.1131 -0.3223
18396SOL    HW162428   6.127   4.723   8.966 -0.6556 -0.2416 -0.2414
18396SOL    HW262429   6.039   4.628   8.888  1.1192 -1.7559 -0.4565
18397SOL     OW62430  11.026   5.834   8.043  0.2361  0.4329  0.3205
18397SOL    HW162431  10.960   5.768   8.022 -1.0336  1.7530  0.0168
18397SOL    HW262432  11.048   5.817   8.135  1.3479 -1.5671 -0.2566
18398SOL     OW62433   8.167   7.875  11.381 -0.5960  0.3728  0.0987
18398SOL    HW162434   8.160   7.794  11.332 -0.6623  0.4645 -0.0443
18398SOL    HW262435   8.207   7.850  11.464 -1.1691  0.0999  0.2961
18399SOL     OW62436  12.644   3.053   7.286 -0.2564  0.5440 -0.5952
18399SOL    HW162437  12.713   3.097   7.337  0.4206 -0.1044 -0.9449
18399SOL    HW262438  12.680   2.968   7.264 -1.1407  0.2252 -0.8714
18400SOL     OW62439   1.593  12.064   8.298  0.2384  0.3039  0.3808
18400SOL    HW162440   1.634  11.994   8.247 -0.1303  0.5531 -0.2712
18400SOL    HW262441   1.636  12.060   8.384  2.1907  1.0511 -0.5067
18401SOL     OW62442   8.975   7.589  11.337 -0.6094 -0.1907  0.0231
18401SOL    HW162443   8.964   7.496  11.358  0.4683 -0.7903 -1.8010
18401SOL    HW262444   9.067   7.597  11.314 -1.2225  0.7153 -2.4367
18402SOL     OW62445  12.312   1.123   4.604  0.6225  0.4130  0.1281
18402SOL    HW162446  12.406   1.124   4.588  0.4132  0.5971 -1.2218
18402SOL    HW262447  12.291   1.213   4.629  0.7401  0.4916 -0.0511
18403SOL     OW62448   0.557   5.529   2.141 -0.0095 -0.4717 -0.5522
18403SOL    HW162449   0.545   5.567   2.228 -0.2446 -1.4257 -0.1534
18403SOL    HW262450   0.581   5.437   2.158 -0.7124 -0.8476 -1.4929
18404SOL     OW62451   0.037   6.811   1.940 -0.1281 -0.1846  0.9454
18404SOL    HW162452  -0.009   6.792   1.859 -0.2501  0.5629  0.8348
18404SOL    HW262453   0.114   6.861   1.914 -0.4770  0.5787  1.3264
18405SOL     OW62454   7.775   7.920   1.284 -0.0233  0.2789  0.4260
18405SOL    HW162455   7.783   7.857   1.356  1.0265  0.8582  0.8479
18405SOL    HW262456   7.748   8.001   1.328 -3.1493 -0.2399 -0.3122
18406SOL     OW62457   0.870  12.294   9.960  0.4521  0.3664 -0.2541
18406SOL    HW162458   0.807  12.353  10.004  0.5422  0.5728 -0.4015
18406SOL    HW262459   0.816  12.221   9.930  0.0591  1.1019 -1.4356
18407SOL     OW62460   9.965  10.060   0.063  0.5126 -0.0367  0.3976
18407SOL    HW162461  10.021  10.108   0.123 -1.2390  2.3062  0.2929
18407SOL    HW262462   9.884  10.111   0.059  0.0398 -0.7916 -2.9080
18408SOL     OW62463   4.295   2.330   2.328 -0.0114  0.0175 -0.0192
18408SOL    HW162464   4.337   2.247   2.304 -0.8419 -0.0625 -1.2709
18408SOL    HW262465   4.202   2.317   2.309 -0.0557  1.4787 -0.9652
18409SOL     OW62466   9.357  11.776   4.210  0.0264  0.2169 -0.6099
18409SOL    HW162467   9.275  11.812   4.175 -1.0985 -1.1752  0.4529
18409SOL    HW262468   9.329  11.720   4.282  2.0713  1.1239  0.9971
18410SOL     OW62469   1.370   2.781   3.394  0.1001 -0.1170  0.8734
18410SOL    HW162470   1.427   2.719   3.349  1.1210  0.7251  0.9607
18410SOL    HW262471   1.308   2.810   3.327 -0.5463 -1.3885  0.8958
18411SOL     OW62472   5.873   0.694   2.138 -0.2468  0.4473 -0.3202
18411SOL    HW162473   5.871   0.698   2.042 -0.7262 -0.1028 -0.3357
18411SOL    HW262474   5.781   0.691   2.164 -0.1771  1.9764  0.2242
18412SOL     OW62475   5.036   8.901   4.093  0.4016  0.2589 -0.4748
18412SOL    HW162476   5.073   8.814   4.077 -0.8172 -0.4805  0.5453
18412SOL    HW262477   5.060   8.952   4.015  2.4432 -0.5228 -0.4178
18413SOL     OW62478   6.923  10.929   1.225  0.3129 -0.1742  0.4176
18413SOL    HW162479   6.923  10.862   1.157  0.9856  0.8427 -0.6212
18413SOL    HW262480   7.000  10.909   1.279  0.1470 -0.5957  0.5027
18414SOL     OW62481   1.397   8.761  12.255 -0.6875 -0.0865 -0.4142
18414SOL    HW162482   1.425   8.697  12.319  1.3718 -0.6449 -1.7599
18414SOL    HW262483   1.462   8.831  12.261 -0.4233 -0.1721 -1.8849
18415SOL     OW62484   6.358   2.294   3.146  0.1424  0.3678  0.6018
18415SOL    HW162485   6.363   2.323   3.055 -1.3228 -1.4006 -0.1121
18415SOL    HW262486   6.421   2.223   3.152 -0.7835 -0.4799  0.5332
18416SOL     OW62487   3.589   2.819   8.724  0.1387 -0.7173  0.0290
18416SOL    HW162488   3.679   2.788   8.722  0.5795  0.0920  3.1165
18416SOL    HW262489   3.536   2.739   8.729  0.9189 -1.1483  1.9264
18417SOL     OW62490   4.563  10.816  11.325  0.8077  0.2308 -0.0473
18417SOL    HW162491   4.497  10.753  11.296 -1.3595  1.6931  1.3802
18417SOL    HW262492   4.539  10.898  11.281  1.0532  1.0224  1.2371
18418SOL     OW62493   8.849   3.928  11.199 -0.0401  0.7459 -0.6826
18418SOL    HW162494   8.828   4.019  11.177  1.0910  1.6218  1.5042
18418SOL    HW262495   8.873   3.888  11.115 -1.4187  2.1736 -1.8315
18419SOL     OW62496   2.668   5.283  10.444  0.6290 -0.0010 -0.3521
18419SOL    HW162497   2.740   5.257  10.502  0.5048  0.5724  0.0688
18419SOL    HW262498   2.672   5.379  10.443  0.4939  0.0040 -1.1225
18420SOL     OW62499   0.007   9.829   3.325  0.9027  0.4250  0.2179
18420SOL    HW162500   0.101   9.843   3.315  0.9639  0.3320  0.6424
18420SOL    HW262501  -0.032   9.913   3.304  1.0506  0.3643 -0.3350
18421SOL     OW62502   3.376   0.448  11.994  0.1125  0.0323 -0.0589
18421SOL    HW162503   3.431   0.433  12.071  1.9181  0.0031 -1.2669
18421SOL    HW262504   3.393   0.539  11.970 -2.3249  0.8159  0.9274
18422SOL     OW62505   2.085   9.234   9.200 -0.3984 -0.0003  0.2442
18422SOL    HW162506   2.115   9.295   9.133 -0.5472 -0.3649 -0.1590
18422SOL    HW262507   2.153   9.234   9.267  0.3912 -0.6433 -0.5436
18423SOL     OW62508   0.735   9.846   5.780 -0.5823 -0.8029  0.2830
18423SOL    HW162509   0.646   9.843   5.745 -0.3901 -0.8153 -0.2139
18423SOL    HW262510   0.791   9.826   5.705  0.0846  2.6905 -0.2911
18424SOL     OW62511   1.371   0.917   2.283  0.0722 -0.1230  0.1069
18424SOL    HW162512   1.444   0.926   2.222 -0.0647  1.5231  0.1451
18424SOL    HW262513   1.307   0.981   2.253 -0.5883 -0.2779  1.1479
18425SOL     OW62514   1.474   4.650   6.698 -0.1527 -0.1117  0.6750
18425SOL    HW162515   1.476   4.558   6.672 -1.1246  0.1506 -0.4209
18425SOL    HW262516   1.436   4.649   6.786  1.6152 -0.8797  1.4763
18426SOL     OW62517  10.514   3.675   2.442 -0.3789  0.2241  0.0400
18426SOL    HW162518  10.588   3.615   2.446 -0.3436  0.2845  0.3904
18426SOL    HW262519  10.447   3.628   2.393  0.4715  0.8234 -1.7884
18427SOL     OW62520   2.468  10.677   8.804 -0.1001  0.0029 -0.7876
18427SOL    HW162521   2.541  10.705   8.748  0.1419  0.8125 -0.0956
18427SOL    HW262522   2.411  10.628   8.746  1.8941 -2.2698 -0.9705
18428SOL     OW62523   2.467   1.455   4.017 -0.4054 -0.8647 -0.4721
18428SOL    HW162524   2.460   1.371   4.062 -0.8373 -0.5179  0.1266
18428SOL    HW262525   2.524   1.508   4.072  1.8593 -1.5052 -2.0357
18429SOL     OW62526   3.731   3.125  12.481  0.0338  0.1610 -0.6232
18429SOL    HW162527   3.663   3.161  12.424 -2.4124 -1.8666  0.8146
18429SOL    HW262528   3.755   3.042  12.440 -1.2347 -0.9741  0.8056
18430SOL     OW62529   4.056   1.028   2.466  0.8575 -0.2686  0.3492
18430SOL    HW162530   4.032   1.011   2.557  0.6455  0.4111  0.4281
18430SOL    HW262531   3.977   1.005   2.416  0.6921  0.1216  0.4220
18431SOL     OW62532   6.098  10.988   3.113 -0.0238 -0.1951  0.1022
18431SOL    HW162533   6.144  11.072   3.104  1.0538 -0.9000 -1.5292
18431SOL    HW262534   6.010  11.005   3.080  0.0637  0.3873  0.1590
18432SOL     OW62535  11.201  10.181   1.507  0.0277 -0.4930  0.3354
18432SOL    HW162536  11.212  10.226   1.590 -0.2312 -0.2970  0.2660
18432SOL    HW262537  11.127  10.122   1.520 -0.4123 -0.0131  0.0640
18433SOL     OW62538   9.703   4.291   5.207  0.1629  0.2216  0.4735
18433SOL    HW162539   9.622   4.242   5.195  0.0177  0.0465  1.9547
18433SOL    HW262540   9.714   4.295   5.302  0.7470  2.1010  0.3670
18434SOL     OW62541   6.748  11.096   7.101  0.1796 -0.1274  0.2002
18434SOL    HW162542   6.729  11.189   7.113  3.1781  0.5431  0.5000
18434SOL    HW262543   6.771  11.088   7.009  0.6542 -0.4241  0.3420
18435SOL     OW62544   1.933   0.809   7.774  0.2497 -0.7089  0.2551
18435SOL    HW162545   1.937   0.731   7.829  2.8390 -0.5036  0.4636
18435SOL    HW262546   2.010   0.803   7.718  0.3148  1.5071  0.0140
18436SOL     OW62547   0.172   1.236   6.178  0.2261 -0.4217  0.2312
18436SOL    HW162548   0.089   1.261   6.137  1.0769  3.5800  0.5437
18436SOL    HW262549   0.222   1.194   6.108 -0.2672  1.6357 -1.4425
18437SOL     OW62550  12.133   4.385   8.135  0.5128  0.0043  0.2155
18437SOL    HW162551  12.172   4.470   8.115 -0.1492  0.3251  0.2845
18437SOL    HW262552  12.127   4.341   8.050 -0.2442  0.4939  0.0127
18438SOL     OW62553   3.330   9.936   6.160  0.6889  0.4409  0.8821
18438SOL    HW162554   3.299  10.024   6.181  0.4479  1.2825 -2.4682
18438SOL    HW262555   3.277   9.909   6.085  3.2262 -1.0076 -0.5478
18439SOL     OW62556   5.333  11.405   4.167  0.4237  0.0635  0.1151
18439SOL    HW162557   5.276  11.340   4.127 -0.6580  0.8332  0.3394
18439SOL    HW262558   5.281  11.440   4.240  1.3849  0.4434  0.6349
18440SOL     OW62559   5.608  11.089   3.199  0.0343  0.6123  0.1920
18440SOL    HW162560   5.524  11.134   3.205  0.2427  1.1457 -0.6739
18440SOL    HW262561   5.672  11.160   3.185  0.7015  0.2693  1.3119
18441SOL     OW62562   5.404   9.564  11.105 -0.9970 -0.3947  0.0376
18441SOL    HW162563   5.338   9.499  11.081  0.0528 -1.7342  0.6218
18441SOL    HW262564   5.481   9.512  11.131 -0.0095  1.0892  0.2321
18442SOL     OW62565  10.366   0.354  11.720 -0.1244  0.5299  0.4523
18442SOL    HW162566  10.362   0.384  11.811 -1.0064  2.6467 -0.2268
18442SOL    HW262567  10.456   0.372  11.693  0.2942 -0.6006  1.0324
18443SOL     OW62568  11.608  10.588   4.131  0.4228 -0.2812  0.0751
18443SOL    HW162569  11.693  10.626   4.153 -0.5911  0.5640  2.9109
18443SOL    HW262570  11.553  10.662   4.109  0.2050 -0.7718 -1.1094
18444SOL     OW62571   7.444  10.789   3.388  0.4224  0.2153 -0.4510
18444SOL    HW162572   7.480  10.871   3.356  0.3046  0.4863  0.0963
18444SOL    HW262573   7.489  10.773   3.471  0.5184 -0.3253 -0.6038
18445SOL     OW62574   3.340   5.493  10.646  0.2710 -0.1250 -0.5241
18445SOL    HW162575   3.283   5.420  10.668  0.8378 -0.7079 -0.9723
18445SOL    HW262576   3.428   5.463  10.669  0.4175  0.7387  0.0954
18446SOL     OW62577   3.257   2.920   4.559 -0.4685  0.3344 -0.1518
18446SOL    HW162578   3.209   2.908   4.641 -0.6633  1.9134 -0.0073
18446SOL    HW262579   3.195   2.896   4.491 -1.7072  2.7524  0.0078
18447SOL     OW62580  11.208  10.995   9.118 -0.1020  0.3168  0.0292
18447SOL    HW162581  11.132  10.944   9.093  0.0682 -0.4803  1.0633
18447SOL    HW262582  11.217  11.061   9.049 -1.1722 -0.1506 -0.5760
18448SOL     OW62583  11.650  10.936   5.958  0.2797  0.0136  0.3045
18448SOL    HW162584  11.723  10.988   5.923  1.6758 -2.0647 -0.0602
18448SOL    HW262585  11.692  10.859   5.996 -1.7429 -1.1677  0.2689
18449SOL     OW62586   7.080   1.340   9.132  0.4561  0.2801  0.0474
18449SOL    HW162587   7.071   1.425   9.089  1.3445  0.0516 -0.6098
18449SOL    HW262588   7.165   1.307   9.103  0.2017 -0.7550  0.4390
18450SOL     OW62589   5.831   1.525  10.876  0.0399  0.3390  0.5757
18450SOL    HW162590   5.807   1.514  10.968  1.9711 -1.6053  0.9388
18450SOL    HW262591   5.874   1.443  10.853  2.1246  1.8434 -1.2588
18451SOL     OW62592   9.870   9.356   6.440  0.3284 -0.1727 -0.4068
18451SOL    HW162593   9.957   9.355   6.481  0.2289 -1.1335 -0.2043
18451SOL    HW262594   9.850   9.449   6.431  1.5165  0.0687 -0.7648
18452SOL     OW62595  10.225   1.662   3.900  0.5715 -0.0767  0.2225
18452SOL    HW162596  10.273   1.719   3.960  1.0003 -0.3767  0.1636
18452SOL    HW262597  10.141   1.648   3.944  0.4919  0.5269  0.2790
18453SOL     OW62598  11.101   5.472   4.397  0.1131  0.1121  0.3917
18453SOL    HW162599  11.018   5.509   4.364  0.1471 -0.1746 -0.0262
18453SOL    HW262600  11.147   5.444   4.318  0.9316  0.9194  0.5667
18454SOL     OW62601   4.856   6.144   4.488 -0.3817 -0.3735 -0.1709
18454SOL    HW162602   4.948   6.150   4.463 -1.0951  0.2569 -2.9396
18454SOL    HW262603   4.828   6.235   4.499 -0.9043 -0.5275 -0.1917
18455SOL     OW62604   2.446   2.831   5.690  0.3147  0.7039 -0.1760
18455SOL    HW162605   2.451   2.735   5.688 -0.2475  0.6668  0.0656
18455SOL    HW262606   2.536   2.860   5.675  0.4706  0.1389 -0.3485
18456SOL     OW62607   1.402   2.037  10.742  0.0093  0.4547  0.1142
18456SOL    HW162608   1.334   2.063  10.805  0.2876  0.8028  0.2747
18456SOL    HW262609   1.415   1.944  10.757  1.0254  0.8026  1.4912
18457SOL     OW62610   6.464   0.898   7.921 -0.4916  0.6607  0.0621
18457SOL    HW162611   6.517   0.974   7.944 -0.3444  0.2882  1.0160
18457SOL    HW262612   6.377   0.933   7.902 -0.0387  1.2223 -1.0415
18458SOL     OW62613  11.524   1.204   3.965  0.1564  0.5496  0.3208
18458SOL    HW162614  11.451   1.206   4.027 -1.6791 -0.1672 -1.6797
18458SOL    HW262615  11.517   1.119   3.923  0.2533  1.6221 -2.0311
18459SOL     OW62616   2.436   3.637   7.963  0.2371 -0.5626 -0.3718
18459SOL    HW162617   2.363   3.696   7.944  1.1749  0.8322  0.1281
18459SOL    HW262618   2.425   3.613   8.055  1.0293  0.6465  0.0715
18460SOL     OW62619   6.461   5.506  12.047  0.3238 -0.0620  0.2117
18460SOL    HW162620   6.529   5.573  12.053 -0.3949  0.6582  0.6059
18460SOL    HW262621   6.379   5.556  12.050 -0.2292 -0.9780  0.6785
18461SOL     OW62622  10.804   7.515  10.875  0.3976  0.2361  0.3358
18461SOL    HW162623  10.734   7.537  10.937  0.4365  0.4763  0.2977
18461SOL    HW262624  10.822   7.598  10.830  0.0000 -0.0481 -0.3691
18462SOL     OW62625  12.071  10.516  12.639 -0.0488 -0.3001 -0.2368
18462SOL    HW162626  12.106  10.440  12.685  0.2144 -0.2261 -0.3124
18462SOL    HW262627  11.976  10.503  12.639 -0.0362 -0.3901  0.1667
18463SOL     OW62628   8.623  12.522  10.861 -0.4928 -0.1689 -0.0341
18463SOL    HW162629   8.637  12.576  10.783 -2.4296  0.1698 -0.1967
18463SOL    HW262630   8.604  12.585  10.931  1.2517 -0.4675  0.7582
18464SOL     OW62631   5.543   9.337  11.193 -0.0381 -0.0589  0.0720
18464SOL    HW162632   5.611   9.365  11.253 -0.8471  1.3930  0.3656
18464SOL    HW262633   5.580   9.262  11.147  2.2819  1.4965 -0.7533
18465SOL     OW62634   7.103  10.032   8.717  0.4341 -0.6787  0.7638
18465SOL    HW162635   7.123   9.944   8.749  2.5984 -0.8032 -0.7059
18465SOL    HW262636   7.187  10.077   8.717 -0.7191  1.6814  2.1099
18466SOL     OW62637  10.166   8.317   2.699 -0.4549  0.1663  0.5230
18466SOL    HW162638  10.242   8.314   2.640 -0.5466 -1.5631  0.4314
18466SOL    HW262639  10.157   8.409   2.722 -1.6850  1.3817 -3.8341
18467SOL     OW62640  10.147   8.159   3.322 -0.2004  0.5157 -0.8435
18467SOL    HW162641  10.103   8.204   3.250 -0.7280 -0.1590 -0.9595
18467SOL    HW262642  10.076   8.118   3.372  0.1983  0.5545 -0.2309
18468SOL     OW62643   9.025   2.136   2.943  0.3495 -0.1783  0.2296
18468SOL    HW162644   9.048   2.116   2.852 -0.1625 -0.9209  0.2637
18468SOL    HW262645   9.102   2.109   2.994  0.3187 -0.5103  0.1015
18469SOL     OW62646  10.534   4.235   5.295 -0.5090 -0.0073 -0.3884
18469SOL    HW162647  10.551   4.175   5.223 -0.8415  0.7395 -1.0969
18469SOL    HW262648  10.441   4.222   5.315  0.0415 -1.7835  1.3767
18470SOL     OW62649   9.137   5.191  11.463  0.6717  0.0490  0.0486
18470SOL    HW162650   9.212   5.143  11.498  0.2085 -0.4051  0.4385
18470SOL    HW262651   9.149   5.280  11.495  0.6437 -0.1964  0.7679
18471SOL     OW62652   9.187  11.904   6.709 -0.3807  0.0994 -0.5207
18471SOL    HW162653   9.233  11.960   6.771  0.9889 -1.0995 -0.3877
18471SOL    HW262654   9.103  11.948   6.694  0.3228  1.7579  0.1463
18472SOL     OW62655  10.589   3.240  12.009 -0.1081 -0.2423  0.4473
18472SOL    HW162656  10.631   3.265  11.927  1.3362  0.5811  1.4047
18472SOL    HW262657  10.591   3.144  12.008 -2.1620 -0.3362 -1.4656
18473SOL     OW62658   3.460   6.825  10.144  0.1104  0.7331  0.4857
18473SOL    HW162659   3.425   6.737  10.153  2.1898 -0.1086  0.8439
18473SOL    HW262660   3.456   6.862  10.232  0.6275  0.4439  0.6292
18474SOL     OW62661   9.841   4.651   2.709 -0.5811  0.4803 -0.1445
18474SOL    HW162662   9.803   4.724   2.756  0.3146  1.0358 -0.2656
18474SOL    HW262663   9.924   4.684   2.674  0.3251 -0.8634  0.6318
18475SOL     OW62664   3.966  11.590   3.348 -0.9283 -0.2995 -0.2742
18475SOL    HW162665   3.879  11.629   3.341 -0.0377  2.5046  2.1224
18475SOL    HW262666   3.970  11.555   3.436  0.5795  0.3061 -0.0721
18476SOL     OW62667   6.875   9.829   6.508  0.4810 -0.5755 -0.0507
18476SOL    HW162668   6.821   9.850   6.584 -3.3241  0.5292 -2.7384
18476SOL    HW262669   6.908   9.914   6.477 -0.8964 -0.5114 -1.4719
18477SOL     OW62670   2.489   8.534   1.503 -0.0049 -0.4670 -0.0576
18477SOL    HW162671   2.551   8.583   1.449  0.4786 -0.4204  0.5311
18477SOL    HW262672   2.537   8.457   1.531 -1.0865 -1.8669 -1.8320
18478SOL     OW62673   2.171   3.204   2.090 -0.0546  0.1853 -0.4097
18478SOL    HW162674   2.107   3.233   2.025  1.7160  1.4865 -1.6381
18478SOL    HW262675   2.152   3.257   2.167  0.1370  1.2617 -1.0859
18479SOL     OW62676  10.918   3.407   0.201 -0.0419  0.4701  0.4732
18479SOL    HW162677  10.885   3.437   0.116 -0.3095 -0.1561  0.3548
18479SOL    HW262678  10.933   3.313   0.189  1.0832  0.5975  0.7474
18480SOL     OW62679  10.524   4.496   4.794  0.0993  0.0035 -0.0479
18480SOL    HW162680  10.504   4.433   4.724  0.5370 -0.6223  0.3734
18480SOL    HW262681  10.533   4.442   4.873 -0.2312  0.6806  0.4664
18481SOL     OW62682  10.874   7.644   7.062  0.0843  0.1861 -0.6030
18481SOL    HW162683  10.821   7.573   7.098 -0.4671  0.5717 -0.6549
18481SOL    HW262684  10.954   7.643   7.116 -1.3410  1.7546  1.7426
18482SOL     OW62685   8.127   8.986  11.015 -0.0573  0.9351 -0.2677
18482SOL    HW162686   8.097   9.066  10.972 -1.4332  0.0177 -1.0908
18482SOL    HW262687   8.213   9.009  11.050 -0.2312  2.6420 -0.8434
18483SOL     OW62688   9.391  10.220   9.463 -0.2171 -0.3064  0.1678
18483SOL    HW162689   9.407  10.310   9.494  0.3506 -1.1261  2.4501
18483SOL    HW262690   9.302  10.222   9.429 -0.2798  1.0855  0.3599
18484SOL     OW62691  10.276   8.745  10.771  0.5307 -0.5406  0.5085
18484SOL    HW162692  10.341   8.809  10.801  1.3432 -1.0122 -0.1743
18484SOL    HW262693  10.318   8.703  10.695 -1.5133  0.7342 -1.4423
18485SOL     OW62694   6.794   5.776   7.001  0.2794  0.1177  0.5371
18485SOL    HW162695   6.852   5.703   7.022 -0.3385 -0.9128 -1.1462
18485SOL    HW262696   6.728   5.739   6.943 -1.3192  1.5535  1.3340
18486SOL     OW62697   9.272  11.774  12.091 -0.3475  0.1871 -0.2356
18486SOL    HW162698   9.304  11.712  12.157  1.7093  1.1000 -0.2695
18486SOL    HW262699   9.335  11.767  12.019 -1.1977  0.9071 -1.0686
18487SOL     OW62700   5.649  10.278   6.392 -0.0067  0.3416  0.4633
18487SOL    HW162701   5.667  10.290   6.485  2.0075  1.3684  0.0218
18487SOL    HW262702   5.646  10.367   6.357  3.7612  0.0831 -1.0826
18488SOL     OW62703   6.495   7.918  11.449 -0.3137  0.6174  0.6316
18488SOL    HW162704   6.588   7.917  11.471 -0.3467  0.2000  0.7493
18488SOL    HW262705   6.455   7.970  11.518  0.2636  3.7219 -1.1559
18489SOL     OW62706   2.225   0.574   5.533 -0.7991 -0.4171  0.3445
18489SOL    HW162707   2.252   0.558   5.443 -1.1664 -0.6216  0.2706
18489SOL    HW262708   2.270   0.506   5.584 -1.3895 -0.9347  0.1847
18490SOL     OW62709  10.097   5.863   4.358  0.1217 -0.2049 -0.2686
18490SOL    HW162710  10.164   5.931   4.367  0.5537 -0.6302 -0.2293
18490SOL    HW262711  10.105   5.834   4.267 -0.0914 -0.1729 -0.2973
18491SOL     OW62712   3.162  11.583  10.882  0.2800 -0.1496 -0.4887
18491SOL    HW162713   3.200  11.511  10.932  1.6479  0.7090 -0.2260
18491SOL    HW262714   3.235  11.618  10.831  0.0467  1.9548  0.5002
18492SOL     OW62715  12.590  10.758   1.858 -0.0942  0.2293 -0.6369
18492SOL    HW162716  12.607  10.851   1.874  0.2292  0.0819 -0.0804
18492SOL    HW262717  12.530  10.756   1.783 -1.5582  0.9712  0.4539
18493SOL     OW62718   0.814   1.760   5.793  0.3646 -0.1223  0.0443
18493SOL    HW162719   0.811   1.695   5.722  0.4239 -0.9049  0.7336
18493SOL    HW262720   0.729   1.802   5.792  0.1754 -0.5082 -0.1503
18494SOL     OW62721  11.649   5.015   1.275 -0.2467 -0.0699  0.1681
18494SOL    HW162722  11.711   5.081   1.246 -0.8907 -0.1066 -1.4193
18494SOL    HW262723  11.567   5.064   1.289 -0.8559 -0.5273 -1.4697
18495SOL     OW62724  10.567   6.010   9.593  0.4914 -0.2779  0.0013
18495SOL    HW162725  10.526   5.944   9.538 -1.8571  0.9751  0.1513
18495SOL    HW262726  10.506   6.022   9.666  1.4340  1.2001  0.5927
18496SOL     OW62727   3.139   9.601   2.058  0.1690  0.1932  0.1505
18496SOL    HW162728   3.157   9.542   2.131 -1.2054 -0.7727 -0.2574
18496SOL    HW262729   3.052   9.576   2.027 -0.2572  2.1084 -0.3675
18497SOL     OW62730   1.218   9.584   7.279  0.3672  0.2332 -0.2207
18497SOL    HW162731   1.130   9.620   7.295 -0.3058 -0.1569 -2.6297
18497SOL    HW262732   1.216   9.497   7.318 -0.5691 -0.0273 -0.8206
18498SOL     OW62733   3.238  12.393   3.182  0.1570 -0.2138 -0.9292
18498SOL    HW162734   3.317  12.430   3.221  0.1956 -1.3381  0.1002
18498SOL    HW262735   3.168  12.455   3.207  0.6824  0.7875 -1.8552
18499SOL     OW62736   9.044   1.509   0.190  0.2845  0.2732  0.3477
18499SOL    HW162737   8.964   1.561   0.201  0.5540  1.4348 -2.3192
18499SOL    HW262738   9.104   1.568   0.144  1.8560 -1.3358  0.2312
18500SOL     OW62739  12.642  11.784   3.781 -0.2823  0.7851  0.0029
18500SOL    HW162740  12.672  11.723   3.713 -0.0609  0.0168  0.7588
18500SOL    HW262741  12.712  11.848   3.789  0.0879  0.3683  0.1163
18501SOL     OW62742  11.158   8.583   0.568  0.0071  0.4048 -0.0048
18501SOL    HW162743  11.133   8.518   0.633 -0.1263  1.9012  1.5110
18501SOL    HW262744  11.141   8.541   0.484 -1.5935 -0.9349  0.9264
18502SOL     OW62745   6.622  10.418   2.255 -0.1264 -0.2300  0.1522
18502SOL    HW162746   6.629  10.498   2.307  0.4919 -1.0995  1.4699
18502SOL    HW262747   6.678  10.434   2.179  0.0451  0.5582  0.4304
18503SOL     OW62748   0.074   6.869  11.661  0.0005 -0.2650 -0.1349
18503SOL    HW162749   0.044   6.808  11.729 -0.2475  1.1583  1.0798
18503SOL    HW262750  -0.003   6.921  11.639  0.3450 -0.0080 -0.7651
18504SOL     OW62751   1.101   5.431   6.308  0.1623  0.5199  0.0233
18504SOL    HW162752   1.166   5.497   6.285  0.1849  0.2694 -0.6630
18504SOL    HW262753   1.127   5.402   6.396  1.8662 -0.5971 -0.7898
18505SOL     OW62754  11.846   5.495   2.444 -0.1701 -0.4283 -0.2897
18505SOL    HW162755  11.775   5.436   2.418 -0.9083 -0.4462  1.6138
18505SOL    HW262756  11.808   5.550   2.513  1.3918  0.2121  0.1039
18506SOL     OW62757   0.289  10.302   8.236 -0.2392 -0.1615  0.2008
18506SOL    HW162758   0.195  10.318   8.234 -0.0072  1.2446 -0.4350
18506SOL    HW262759   0.325  10.358   8.168  0.8137 -2.7164 -1.5229
18507SOL     OW62760  10.210   7.074   8.502 -0.0550 -0.4876 -0.3051
18507SOL    HW162761  10.209   6.995   8.556  0.7758 -0.2893  0.0134
18507SOL    HW262762  10.287   7.064   8.446  0.9854  0.7899  0.8100
18508SOL     OW62763   8.133   0.631   4.531 -0.1280 -0.5980  0.2281
18508SOL    HW162764   8.119   0.626   4.436 -0.3589  0.7967  0.1542
18508SOL    HW262765   8.215   0.680   4.540 -1.4639  1.7364  0.7064
18509SOL     OW62766   2.878   6.349   4.526 -0.4101 -0.1707 -0.6827
18509SOL    HW162767   2.938   6.364   4.453 -0.9515  0.3891 -1.0198
18509SOL    HW262768   2.914   6.273   4.572 -0.7027 -1.2934 -2.2300
18510SOL     OW62769   7.258   6.590  11.156  0.3447 -0.4109 -0.4276
18510SOL    HW162770   7.182   6.537  11.133 -0.7801  0.4407  1.1779
18510SOL    HW262771   7.261   6.587  11.252  2.7480 -0.9744 -0.4589
18511SOL     OW62772  12.258   1.756   6.821 -0.7235  0.3291 -0.3176
18511SOL    HW162773  12.218   1.843   6.829  0.6765  0.9351  0.4987
18511SOL    HW262774  12.210   1.714   6.749 -0.3854  2.3780 -1.8242
18512SOL     OW62775   2.518   8.048   3.801 -0.8315  0.1416 -0.6989
18512SOL    HW162776   2.447   8.103   3.834  0.3170 -0.5622  3.4672
18512SOL    HW262777   2.494   7.960   3.828  0.6398 -0.4141 -1.1156
18513SOL     OW62778   3.410   9.237   8.019  0.5233 -0.1461 -0.1762
18513SOL    HW162779   3.326   9.269   8.052  0.4508  0.9021 -1.2814
18513SOL    HW262780   3.476   9.287   8.067  0.4354  0.8593 -1.0617
18514SOL     OW62781   4.896   5.158   7.484  0.5192  0.2244  0.3994
18514SOL    HW162782   4.940   5.201   7.557 -1.4870  0.9940  1.2189
18514SOL    HW262783   4.906   5.220   7.411 -0.7249  1.2886  1.0775
18515SOL     OW62784  10.532   2.640   0.537 -0.1737  0.3412 -0.5523
18515SOL    HW162785  10.496   2.707   0.479  0.0961  0.8340 -0.1591
18515SOL    HW262786  10.467   2.632   0.607  0.3835  1.0930  0.0575
18516SOL     OW62787   9.121   2.106   5.854  0.1834 -0.4295  0.2406
18516SOL    HW162788   9.074   2.059   5.785  1.7839  1.2347 -2.1918
18516SOL    HW262789   9.213   2.100   5.828  0.8571  0.2570  2.2895
18517SOL     OW62790   0.896   3.958  12.310  0.2124 -0.0306  0.3029
18517SOL    HW162791   0.912   3.977  12.402  0.3290 -1.7166  0.6686
18517SOL    HW262792   0.840   3.880  12.311 -3.4565  2.3657 -1.0223
18518SOL     OW62793   6.120   8.917  11.104 -0.0616 -0.0726 -0.4693
18518SOL    HW162794   6.038   8.939  11.059 -1.0176 -1.3145  0.5678
18518SOL    HW262795   6.140   8.828  11.073 -0.9116 -1.0807  1.6684
18519SOL     OW62796  10.643   0.579   5.589 -0.0371 -0.2990 -0.8912
18519SOL    HW162797  10.602   0.661   5.616 -1.4037 -0.7326 -1.5714
18519SOL    HW262798  10.571   0.516   5.586  1.3519 -2.3105  2.3828
18520SOL     OW62799   8.639   3.319   3.508  0.0241 -0.2670 -0.0561
18520SOL    HW162800   8.559   3.347   3.464 -0.2447 -1.0571 -0.0756
18520SOL    HW262801   8.612   3.306   3.599  0.7455  2.1327  0.5667
18521SOL     OW62802   9.559   8.600  12.281  0.4142  0.0210  0.3740
18521SOL    HW162803   9.593   8.522  12.236  0.7700  0.2323  0.2701
18521SOL    HW262804   9.623   8.618  12.350  1.3702  1.3208 -0.7814
18522SOL     OW62805   6.521   2.938   9.354  0.1030 -0.4496 -0.3172
18522SOL    HW162806   6.601   2.903   9.314 -0.2874 -1.2273 -0.4274
18522SOL    HW262807   6.460   2.864   9.356 -1.0558  0.4386 -1.3796
18523SOL     OW62808   4.825   2.218   2.685  0.0791  0.0474  0.1231
18523SOL    HW162809   4.833   2.162   2.608 -0.5786 -1.2912  0.9960
18523SOL    HW262810   4.907   2.205   2.733 -0.0671 -0.1410  0.3194
18524SOL     OW62811  11.613   7.825   4.289 -0.2656 -0.2256 -0.0824
18524SOL    HW162812  11.581   7.806   4.200 -0.5465  0.9961 -0.2642
18524SOL    HW262813  11.683   7.762   4.303 -0.3022 -0.5263 -1.1230
18525SOL     OW62814  11.675   1.910   8.704 -0.4084  0.6505  0.4668
18525SOL    HW162815  11.668   1.957   8.787  0.2987 -0.5687  1.2387
18525SOL    HW262816  11.588   1.916   8.665 -0.6804  1.4396  1.1654
18526SOL     OW62817   9.213   7.731   0.423 -0.0749 -0.1189 -0.2322
18526SOL    HW162818   9.201   7.821   0.454 -2.8625 -0.1534 -0.9897
18526SOL    HW262819   9.282   7.739   0.356 -2.0394  2.0152 -2.1989
18527SOL     OW62820  11.330   6.576  11.260  0.2250 -0.1658  0.2161
18527SOL    HW162821  11.413   6.622  11.244 -0.3009  1.0623  0.9152
18527SOL    HW262822  11.277   6.638  11.310 -1.7598 -0.2827 -1.6280
18528SOL     OW62823   5.268  11.188   0.861  0.3844  0.1310 -0.0638
18528SOL    HW162824   5.360  11.164   0.851  1.1471  1.5462  2.6309
18528SOL    HW262825   5.261  11.273   0.817  1.1085  1.2906  1.9164
18529SOL     OW62826   0.425   2.803   7.584  0.6998  0.8465 -0.1502
18529SOL    HW162827   0.495   2.745   7.614  0.2853 -0.1473 -1.0415
18529SOL    HW262828   0.389   2.840   7.665  0.9040 -0.2242  0.4595
18530SOL     OW62829   4.138   9.790   0.857  0.9049  0.2354  0.1220
18530SOL    HW162830   4.059   9.838   0.835  0.4177 -0.4632  0.3224
18530SOL    HW262831   4.114   9.737   0.933  2.0671  1.3436  1.3178
18531SOL     OW62832   9.723   8.299   1.853  0.1047 -0.2409  0.1162
18531SOL    HW162833   9.630   8.322   1.852 -0.0028 -0.5788 -1.8719
18531SOL    HW262834   9.759   8.341   1.775  1.6075 -0.2639  0.7508
18532SOL     OW62835   9.435   6.363  12.521  0.4839  0.2012  0.6896
18532SOL    HW162836   9.450   6.300  12.450  0.0264 -0.3732  1.0916
18532SOL    HW262837   9.414   6.445  12.476 -1.8419 -0.6360  0.1096
18533SOL     OW62838   4.943   3.423   4.748  0.0378  0.5776 -0.0059
18533SOL    HW162839   5.028   3.381   4.736 -0.3635 -0.4931  0.7314
18533SOL    HW262840   4.946   3.461   4.836 -0.0682  0.9760 -0.1707
18534SOL     OW62841   1.614   2.345   5.160  0.5375  0.3794  0.0741
18534SOL    HW162842   1.656   2.303   5.235 -0.0161 -0.5416 -0.1033
18534SOL    HW262843   1.631   2.438   5.171  1.2764  0.1682  0.8276
18535SOL     OW62844   0.836  11.580   0.487 -0.2465  0.6024 -0.5192
18535SOL    HW162845   0.840  11.636   0.565  0.0881  1.8366 -1.3826
18535SOL    HW262846   0.880  11.499   0.512 -0.2664  0.9282  0.6088
18536SOL     OW62847   7.989  11.731  12.188 -0.5935 -0.3553 -0.1033
18536SOL    HW162848   7.984  11.644  12.226 -0.6409 -0.3697 -0.1414
18536SOL    HW262849   7.997  11.716  12.094  1.4227 -0.3555  0.0246
18537SOL     OW62850   2.317   1.630   9.417 -0.2210 -0.1239 -0.6964
18537SOL    HW162851   2.270   1.546   9.422 -1.2393  0.3319 -2.1301
18537SOL    HW262852   2.394   1.611   9.363  0.0424 -0.3352 -0.2540
18538SOL     OW62853   1.020   3.478   3.254 -0.1200  0.2617  0.6694
18538SOL    HW162854   1.070   3.548   3.212  0.4163 -0.1031  0.6761
18538SOL    HW262855   0.998   3.418   3.182 -1.1610  0.7662  0.5526
18539SOL     OW62856   9.299   4.846   9.478  0.2255  0.3446  0.4267
18539SOL    HW162857   9.246   4.789   9.422 -0.3245 -0.7305  2.0023
18539SOL    HW262858   9.245   4.925   9.490 -0.6287 -0.3512  1.2567
18540SOL     OW62859   6.179   3.347   7.613  0.0825 -0.6670 -0.1760
18540SOL    HW162860   6.249   3.347   7.678 -0.1660  2.5386  0.2538
18540SOL    HW262861   6.101   3.321   7.662  0.1975  0.0846  0.4241
18541SOL     OW62862   7.125   9.767   8.804 -0.5480  0.1162  0.3478
18541SOL    HW162863   7.116   9.783   8.898  1.1177 -2.2246  0.9792
18541SOL    HW262864   7.200   9.709   8.796 -0.7083  0.1588 -2.4525
18542SOL     OW62865   0.619   0.119   6.260  0.6234 -0.1880  0.0718
18542SOL    HW162866   0.683   0.133   6.190 -1.3068 -0.5660 -1.8950
18542SOL    HW262867   0.580   0.034   6.239  0.1471 -0.4297  1.7952
18543SOL     OW62868   8.539   5.831   3.133 -0.2358 -0.0455 -0.8409
18543SOL    HW162869   8.570   5.859   3.047  3.3418 -1.5689 -0.2354
18543SOL    HW262870   8.545   5.909   3.187 -0.8508  0.5147 -1.5560
18544SOL     OW62871   3.267   3.963   6.178  0.3959 -0.6202 -0.1333
18544SOL    HW162872   3.206   4.020   6.131  0.3311 -0.0969  0.5616
18544SOL    HW262873   3.222   3.879   6.184  0.6971 -0.9112 -1.6106
18545SOL     OW62874   3.358   0.534  11.636 -0.3023 -0.2059 -0.0984
18545SOL    HW162875   3.313   0.605  11.591  2.4195  1.1912 -0.8571
18545SOL    HW262876   3.327   0.539  11.727 -0.4582  1.7493 -0.2148
18546SOL     OW62877   9.531   6.347   3.168 -0.2879 -0.4685 -0.2669
18546SOL    HW162878   9.462   6.284   3.186 -1.4370  0.1323 -2.3116
18546SOL    HW262879   9.612   6.299   3.183 -1.0163 -0.9214  3.1537
18547SOL     OW62880   8.292   1.042   0.649  0.4682  0.1658 -0.0095
18547SOL    HW162881   8.198   1.057   0.648  0.7516  2.3032 -1.3447
18547SOL    HW262882   8.303   0.956   0.609 -0.8486  0.3225 -0.7634
18548SOL     OW62883  11.354   0.866   2.270 -0.3510 -0.0555 -0.3019
18548SOL    HW162884  11.300   0.815   2.209 -0.2295  0.6905 -1.0474
18548SOL    HW262885  11.386   0.939   2.218 -1.3008  1.3364  1.0024
18549SOL     OW62886   4.700   0.862  10.001  0.0566  0.0220 -0.8380
18549SOL    HW162887   4.714   0.953  10.029 -2.7107  0.3210 -0.0788
18549SOL    HW262888   4.693   0.813  10.083 -0.1741 -0.5513 -1.1981
18550SOL     OW62889  10.890   4.534   4.978  0.3857 -0.0808  0.0344
18550SOL    HW162890  10.950   4.459   4.983  0.4483 -0.0175  0.2366
18550SOL    HW262891  10.806   4.500   5.008  0.1105 -0.3824 -1.0076
18551SOL     OW62892   8.712   6.560   4.250  0.0773 -0.2400  0.1451
18551SOL    HW162893   8.661   6.628   4.207  2.3454  0.6035 -1.3668
18551SOL    HW262894   8.693   6.480   4.200 -2.2744 -0.7415  1.6800
18552SOL     OW62895   0.363   0.467   9.292 -0.1884  0.0936  0.1571
18552SOL    HW162896   0.366   0.554   9.254 -1.1335  0.2856  0.4825
18552SOL    HW262897   0.439   0.422   9.257 -0.1571  0.7802 -0.6765
18553SOL     OW62898   7.188   7.556   1.707  0.3473  0.5520 -0.5225
18553SOL    HW162899   7.281   7.560   1.688  0.3936  2.7738 -0.1362
18553SOL    HW262900   7.169   7.463   1.719  2.5816  0.0922 -0.2302
18554SOL     OW62901  11.863   1.410   2.908  0.1589 -0.3753 -0.1084
18554SOL    HW162902  11.840   1.390   2.998  1.3273  0.9361  0.5094
18554SOL    HW262903  11.940   1.356   2.889 -0.9161 -1.7312 -0.8413
18555SOL     OW62904   8.460   8.792  10.035  0.2669  0.4087  0.1003
18555SOL    HW162905   8.487   8.806   9.945 -0.3507  2.8497  0.2184
18555SOL    HW262906   8.542   8.779  10.083  0.6814  0.3061 -0.6286
18556SOL     OW62907   4.061   8.242  12.265 -0.5522  0.0879 -0.3267
18556SOL    HW162908   4.079   8.334  12.245 -0.2766  0.0397 -0.3093
18556SOL    HW262909   4.064   8.198  12.180  2.5347 -0.4419 -0.0812
18557SOL     OW62910   2.596   4.424   5.147 -0.1972  0.2769  0.1076
18557SOL    HW162911   2.538   4.388   5.080  1.2999  0.8264 -1.5523
18557SOL    HW262912   2.577   4.518   5.146  0.5967  0.4399 -0.3503
18558SOL     OW62913   8.331  11.023   0.314  1.1995  0.6008 -0.7538
18558SOL    HW162914   8.423  11.014   0.291  1.9465 -1.9742  2.5474
18558SOL    HW262915   8.286  10.960   0.258  1.8414 -0.0307 -0.5715
18559SOL     OW62916   6.737   0.910   7.146 -0.1086 -0.3436 -1.0754
18559SOL    HW162917   6.775   0.953   7.223 -2.4333  0.7043 -0.4220
18559SOL    HW262918   6.711   0.982   7.089 -2.3781 -0.8705 -0.8136
18560SOL     OW62919   9.923   6.544   7.646 -0.7814  0.5970  0.2516
18560SOL    HW162920   9.994   6.562   7.707 -0.7724  3.6649 -0.4809
18560SOL    HW262921   9.933   6.452   7.623  2.2208  0.6256  1.0757
18561SOL     OW62922   6.035   3.008   8.851  0.0679  0.0465  0.1978
18561SOL    HW162923   6.083   3.014   8.768 -0.9116 -0.3040 -0.4031
18561SOL    HW262924   6.104   3.008   8.917  0.8452  1.1029 -0.5579
18562SOL     OW62925   0.501   8.432   3.045  0.2878 -0.6800 -0.4160
18562SOL    HW162926   0.547   8.515   3.029 -2.0125  0.5014 -1.3784
18562SOL    HW262927   0.450   8.449   3.125 -2.3050 -0.0990 -2.0769
18563SOL     OW62928   5.054   2.674   3.787 -0.5588 -0.0968  0.1217
18563SOL    HW162929   5.049   2.766   3.813  1.1834  0.7740 -2.2239
18563SOL    HW262930   5.135   2.668   3.735  0.6510 -3.4650  2.0410
18564SOL     OW62931  10.325  12.087   3.393 -0.4025 -0.4806 -0.5556
18564SOL    HW162932  10.239  12.124   3.376 -0.4234  0.9093  1.9805
18564SOL    HW262933  10.310  12.022   3.462  0.3906 -1.3359 -1.1616
18565SOL     OW62934  10.088   0.696   3.076 -0.2394 -0.5685 -0.1337
18565SOL    HW162935  10.081   0.776   3.129  0.0026 -0.7914  0.2324
18565SOL    HW262936  10.167   0.709   3.024 -0.8933 -0.0013 -1.0356
18566SOL     OW62937   5.701  12.593   3.663 -0.0448  0.0153  0.9205
18566SOL    HW162938   5.669  12.566   3.577 -0.8986 -0.4570  1.3655
18566SOL    HW262939   5.773  12.532   3.682  0.7489  0.6992  0.1639
18567SOL     OW62940   3.125   2.026   9.446  0.0944 -0.4082 -0.0376
18567SOL    HW162941   3.068   1.960   9.486 -1.3757  0.7980 -0.0564
18567SOL    HW262942   3.117   2.102   9.503 -0.1736  0.5569 -1.3169
18568SOL     OW62943  10.903  11.673   8.046  0.6562 -0.2401  0.1571
18568SOL    HW162944  10.849  11.719   7.981  0.8103 -1.5076 -0.8979
18568SOL    HW262945  10.851  11.678   8.127  0.1693  0.8149 -0.1888
18569SOL     OW62946  12.677   6.857   4.417  0.6601 -0.4828 -0.2105
18569SOL    HW162947  12.661   6.817   4.331 -1.2040 -0.0547 -0.1228
18569SOL    HW262948  12.673   6.951   4.400  0.5256 -0.3955  0.3034
18570SOL     OW62949   5.292   5.781   8.936  0.3859 -0.0375 -0.0296
18570SOL    HW162950   5.217   5.824   8.976  1.4022  1.3223  0.5087
18570SOL    HW262951   5.280   5.688   8.955 -1.8723 -0.0599 -1.2067
18571SOL     OW62952   8.051  10.109   3.626  0.1093 -0.2748 -0.0883
18571SOL    HW162953   8.022  10.102   3.717  0.3332 -0.0757  0.0013
18571SOL    HW262954   7.999  10.045   3.578  0.1015 -0.4881  0.2078
18572SOL     OW62955  11.648   1.744  11.756 -0.3725  0.9201 -0.1427
18572SOL    HW162956  11.585   1.680  11.790  1.5904  0.2214  2.5467
18572SOL    HW262957  11.606   1.828  11.769 -2.4087  0.3675 -2.4026
18573SOL     OW62958   6.212   8.792   3.455  0.5536 -0.0331 -0.1721
18573SOL    HW162959   6.252   8.713   3.492  1.4654  0.2449 -0.5459
18573SOL    HW262960   6.130   8.801   3.503 -1.1729 -2.9971 -2.2828
18574SOL     OW62961   2.692   6.722   5.104 -0.6585 -0.2116 -0.1446
18574SOL    HW162962   2.605   6.731   5.066 -0.7552 -0.6827 -0.0395
18574SOL    HW262963   2.712   6.629   5.098  0.3574  0.0508 -1.2887
18575SOL     OW62964   5.576   2.142   1.269 -0.3812  0.1942  0.1053
18575SOL    HW162965   5.615   2.146   1.182 -1.1808 -1.4993 -0.3688
18575SOL    HW262966   5.582   2.231   1.302  1.8524  0.4480 -0.8236
18576SOL     OW62967   7.782   0.504  11.840  0.1181 -0.2580 -0.5412
18576SOL    HW162968   7.734   0.441  11.787  0.8566  0.0720 -1.6262
18576SOL    HW262969   7.873   0.473  11.838  0.1836 -0.1635  0.4302
18577SOL     OW62970   8.596   9.550   9.961 -0.1202  0.1406 -0.1623
18577SOL    HW162971   8.506   9.569   9.936  0.1812  3.7491  0.9904
18577SOL    HW262972   8.645   9.555   9.878 -0.6265  1.0493 -0.4223
18578SOL     OW62973   2.048   1.409   4.789 -0.8700 -0.8793  0.5986
18578SOL    HW162974   2.017   1.395   4.878  1.0971  1.8360  1.8490
18578SOL    HW262975   1.983   1.466   4.749 -1.2611 -1.3247  0.5852
18579SOL     OW62976   2.416   3.336   6.994 -0.0512  0.0395 -0.0931
18579SOL    HW162977   2.418   3.296   7.082  0.2806  0.0370 -0.0996
18579SOL    HW262978   2.328   3.374   6.987  0.1306  0.5898  0.4880
18580SOL     OW62979   8.164   4.704   6.922 -0.3278  0.0140 -0.5631
18580SOL    HW162980   8.215   4.785   6.917  1.7483 -1.0137  1.7533
18580SOL    HW262981   8.090   4.718   6.862  1.4632  2.4718 -2.4132
18581SOL     OW62982   0.237   3.646   5.002 -0.0600  0.1775  0.2525
18581SOL    HW162983   0.155   3.650   5.051  0.4778  1.0314  1.1247
18581SOL    HW262984   0.253   3.736   4.974  1.6256  0.4722  1.9298
18582SOL     OW62985   1.731   1.393   1.567 -0.0351 -0.0831  0.1303
18582SOL    HW162986   1.641   1.419   1.545  0.0385  0.4107  0.3886
18582SOL    HW262987   1.730   1.298   1.563 -0.9765 -0.1688  1.6690
18583SOL     OW62988  12.418   3.841  11.031 -0.6424 -0.3327  0.4305
18583SOL    HW162989  12.356   3.902  10.991 -1.0835 -0.0828  1.4831
18583SOL    HW262990  12.401   3.847  11.125  1.7769  0.6549  0.8818
18584SOL     OW62991  10.310   1.008  11.424  0.1071  0.3694  0.2058
18584SOL    HW162992  10.354   0.923  11.427 -1.2389 -0.3700 -0.1360
18584SOL    HW262993  10.380   1.071  11.405  1.0227 -0.7438 -0.2061
18585SOL     OW62994   1.101   8.682  10.251 -0.4856  0.9305  0.0372
18585SOL    HW162995   1.063   8.596  10.264  0.1201  0.8383  1.4160
18585SOL    HW262996   1.118   8.714  10.340 -2.3485  3.2364 -0.3336
18586SOL     OW62997   6.191  10.952  11.906  0.0616  0.4747 -0.6162
18586SOL    HW162998   6.121  10.896  11.871  0.9995 -1.8979  1.0502
18586SOL    HW262999   6.270  10.922  11.861  0.4167  1.3738 -0.6104
18587SOL     OW63000   3.499   2.647  12.332 -0.4298  0.1234  0.1139
18587SOL    HW163001   3.407   2.645  12.359 -0.6269 -0.1791 -0.5736
18587SOL    HW263002   3.513   2.562  12.291  0.2988 -0.0296  0.6646
18588SOL     OW63003   8.830   0.917   9.420 -0.1190 -0.3202 -0.3041
18588SOL    HW163004   8.868   0.844   9.468 -0.8837 -0.4470  0.1247
18588SOL    HW263005   8.853   0.900   9.328  0.1114 -0.8433 -0.1547
18589SOL     OW63006   6.866   7.501  10.036  0.0482 -0.6110 -0.2768
18589SOL    HW163007   6.829   7.423  10.078 -1.2819  0.4210  0.5593
18589SOL    HW263008   6.882   7.562  10.108  0.9218 -0.0439 -0.9315
18590SOL     OW63009   4.674   4.534   6.656 -0.3517  0.4007  0.0708
18590SOL    HW163010   4.752   4.479   6.666  0.0453  0.9857  0.2707
18590SOL    HW263011   4.602   4.480   6.689  0.0792  0.1266  0.5696
18591SOL     OW63012  10.518   3.569  12.226  0.0389  0.1069 -0.4012
18591SOL    HW163013  10.582   3.497  12.227  0.0094  0.0857 -0.0498
18591SOL    HW263014  10.569   3.646  12.252 -0.0092  0.1473 -0.4272
18592SOL     OW63015   1.112   5.223   4.581  0.5869 -0.1435  0.3174
18592SOL    HW163016   1.064   5.166   4.640 -0.7613  0.0024 -0.5992
18592SOL    HW263017   1.184   5.170   4.549  0.2498 -0.8126  0.6573
18593SOL     OW63018  12.365   8.351   7.800  0.9049  0.1355 -0.1321
18593SOL    HW163019  12.380   8.278   7.860  3.4275  1.1908  0.6531
18593SOL    HW263020  12.322   8.418   7.854 -0.0256 -0.1826 -0.4590
18594SOL     OW63021   0.654   3.902   4.198  0.2125  0.2202 -0.7132
18594SOL    HW163022   0.687   3.972   4.253 -0.9642 -0.2154  0.6108
18594SOL    HW263023   0.722   3.888   4.132  1.6914  0.7285  0.6612
18595SOL     OW63024   7.839   8.015  10.433 -0.3364  0.0289  0.1636
18595SOL    HW163025   7.750   7.984  10.414 -0.1915 -0.8786  0.9210
18595SOL    HW263026   7.847   8.008  10.529 -0.7279  3.5761  0.6062
18596SOL     OW63027   1.783   4.550  10.632 -0.3739  0.5192  0.2717
18596SOL    HW163028   1.790   4.538  10.537 -1.4712 -0.3431  0.2825
18596SOL    HW263029   1.755   4.465  10.665  2.7866 -0.0832  1.7424
18597SOL     OW63030   2.969   9.530   7.216  0.5285  0.3115  0.6438
18597SOL    HW163031   2.882   9.502   7.245  0.3492 -0.8777 -0.9314
18597SOL    HW263032   2.972   9.623   7.236 -0.3873  0.0168  2.4041
18598SOL     OW63033   1.916   9.543   2.749 -0.0527 -0.3457  0.4451
18598SOL    HW163034   1.889   9.490   2.674 -1.1533  0.2081  0.4377
18598SOL    HW263035   1.927   9.631   2.714  0.2910 -0.2577  0.7626
18599SOL     OW63036   0.658  12.360  10.156 -0.7028  0.6225 -0.0095
18599SOL    HW163037   0.716  12.432  10.179  0.5284  0.4188 -2.1997
18599SOL    HW263038   0.699  12.283  10.195 -0.6414  0.7558  0.1907
18600SOL     OW63039   5.401   8.812   6.521 -0.4722 -0.2180 -0.3680
18600SOL    HW163040   5.358   8.892   6.492 -0.3833  0.4568  1.2457
18600SOL    HW263041   5.428   8.831   6.611 -0.4344 -2.0683  0.0401
18601SOL     OW63042   6.383   7.633   1.132 -0.7014  0.6117  0.3351
18601SOL    HW163043   6.379   7.728   1.123  0.5334  0.9431  2.5588
18601SOL    HW263044   6.309   7.611   1.189  0.0026  0.5032  1.2418
18602SOL     OW63045  10.453   9.217  11.350  0.1203  0.3008  0.0900
18602SOL    HW163046  10.476   9.309  11.366  0.2790  0.1345  0.8278
18602SOL    HW263047  10.450   9.177  11.437  1.2474 -0.6837 -0.2982
18603SOL     OW63048   0.922   0.539  10.412 -0.2975  0.5172  0.1989
18603SOL    HW163049   0.922   0.467  10.349  0.4481 -0.0882  0.8720
18603SOL    HW263050   0.998   0.523  10.467 -0.3030  1.6520  0.5644
18604SOL     OW63051  12.261   2.052   0.486 -0.0201 -0.0924 -1.0569
18604SOL    HW163052  12.219   2.011   0.562  0.9957 -0.1870 -0.5293
18604SOL    HW263053  12.229   2.002   0.411  0.3638 -1.1592 -0.5229
18605SOL     OW63054  12.162   3.591   1.041  0.5678 -0.5910 -0.0049
18605SOL    HW163055  12.216   3.541   0.979  0.1614 -1.6996  0.4993
18605SOL    HW263056  12.157   3.535   1.118 -0.6331 -0.1544  0.2521
18606SOL     OW63057   5.389   9.637   1.861 -0.0459  0.1441  0.2845
18606SOL    HW163058   5.306   9.673   1.893  0.7473  1.9664  0.4341
18606SOL    HW263059   5.438   9.613   1.939 -0.7437 -1.7752  0.1741
18607SOL     OW63060  12.666   1.555   3.786  0.2534  0.4180  0.1067
18607SOL    HW163061  12.649   1.647   3.768  1.4012  0.2856 -2.0052
18607SOL    HW263062  12.750   1.554   3.831 -0.7090  0.4791  2.0064
18608SOL     OW63063   0.470   1.321   5.368 -0.4413  0.0581  0.7062
18608SOL    HW163064   0.553   1.365   5.387 -0.0353 -0.0669 -0.6812
18608SOL    HW263065   0.404   1.377   5.408  0.0513  2.0290 -1.0493
18609SOL     OW63066   2.035  11.588   5.296 -0.3047  0.4530  0.3926
18609SOL    HW163067   1.940  11.591   5.286 -0.4449 -2.9952 -0.6092
18609SOL    HW263068   2.050  11.577   5.389 -0.6023  3.9118  0.9844
18610SOL     OW63069   4.936   4.337   2.116 -0.1640 -0.0325 -0.1810
18610SOL    HW163070   4.999   4.266   2.112  0.3979  0.4723 -0.5550
18610SOL    HW263071   4.926   4.355   2.209  0.4903  0.0847 -0.1243
18611SOL     OW63072   8.182   1.247   9.643 -0.0352 -0.0027 -0.4663
18611SOL    HW163073   8.184   1.152   9.651  1.1302 -0.1310 -1.8846
18611SOL    HW263074   8.220   1.265   9.557  1.5589  1.8253  0.5392
18612SOL     OW63075   0.932   5.247   3.486  0.2919 -0.4971 -0.2243
18612SOL    HW163076   0.895   5.259   3.399  0.6449 -0.3037 -0.3489
18612SOL    HW263077   0.904   5.324   3.535 -0.1809 -0.7664 -0.0712
18613SOL     OW63078   0.559   1.378   6.314 -0.1106  0.2885  0.5449
18613SOL    HW163079   0.583   1.300   6.264 -1.0189  1.2082 -1.4349
18613SOL    HW263080   0.642   1.424   6.328  0.0821  0.4940 -1.0300
18614SOL     OW63081   5.250   6.647   1.795 -0.4190  0.4274 -0.1624
18614SOL    HW163082   5.181   6.638   1.861 -1.8156  3.0722 -1.1408
18614SOL    HW263083   5.284   6.735   1.808  0.9605  0.1135 -1.4274
18615SOL     OW63084  10.074  11.791   8.613 -0.3522 -0.1413 -0.3091
18615SOL    HW163085  10.161  11.803   8.651  0.1689  0.5020 -1.6647
18615SOL    HW263086  10.073  11.699   8.585 -0.8225 -0.6886  1.3868
18616SOL     OW63087   0.531   4.763  10.274 -0.3671 -0.9031  0.2541
18616SOL    HW163088   0.563   4.830  10.213 -0.1882 -1.7870 -0.6491
18616SOL    HW263089   0.525   4.683  10.221  0.5795 -1.9070  1.5805
18617SOL     OW63090   8.486   5.066   0.237 -0.3940 -0.2884  0.1681
18617SOL    HW163091   8.460   5.127   0.169  0.0139  0.5083  0.7130
18617SOL    HW263092   8.408   5.053   0.291 -0.9174 -1.4580 -0.8262
18618SOL     OW63093  10.020   1.628  11.463  0.0614  0.1692  0.0420
18618SOL    HW163094  10.044   1.545  11.422  0.5459  0.9371 -1.2692
18618SOL    HW263095  10.101   1.659  11.504 -0.1367 -0.0229  0.5967
18619SOL     OW63096   1.460   8.502   4.804  0.4156  0.3840  0.2050
18619SOL    HW163097   1.442   8.543   4.720 -2.0601  1.3814  1.1435
18619SOL    HW263098   1.495   8.572   4.858 -0.9621  0.5430  0.9149
18620SOL     OW63099   6.546   0.768  10.589 -0.0226 -0.2243 -0.1031
18620SOL    HW163100   6.601   0.846  10.579 -0.5265  0.1227 -0.2396
18620SOL    HW263101   6.596   0.711  10.647  0.6404 -0.0678 -0.5057
18621SOL     OW63102  12.241   0.938   4.794  0.1793  0.2597  0.3931
18621SOL    HW163103  12.310   0.877   4.820 -1.0410 -2.4474 -2.1511
18621SOL    HW263104  12.268   0.971   4.709 -2.0031 -1.7441 -1.2095
18622SOL     OW63105   3.017   0.587   5.268 -0.5848 -0.9526  0.3171
18622SOL    HW163106   3.031   0.590   5.174  0.5503 -1.0613  0.4678
18622SOL    HW263107   3.050   0.502   5.295 -0.1755 -0.6156  0.9157
18623SOL     OW63108   0.633   7.007   2.307 -0.4096  0.1931 -0.2506
18623SOL    HW163109   0.628   6.971   2.396  1.4694 -3.1172 -1.3226
18623SOL    HW263110   0.714   7.059   2.307  0.9322 -1.7957 -0.5618
18624SOL     OW63111   2.543   2.784  12.521 -0.7633  0.0538  0.3046
18624SOL    HW163112   2.576   2.862  12.476 -0.6260  0.2091  0.6744
18624SOL    HW263113   2.557   2.802  12.614 -4.5533  1.4295  0.7867
18625SOL     OW63114   7.261   0.246   9.806 -0.2431 -0.4211 -0.1637
18625SOL    HW163115   7.316   0.320   9.830 -0.4424  0.1855 -1.4864
18625SOL    HW263116   7.176   0.265   9.846 -0.3088  0.0952 -0.5444
18626SOL     OW63117   8.560   2.375  10.531  0.2429 -0.1331 -0.2625
18626SOL    HW163118   8.472   2.338  10.538  0.4258 -0.5114  0.1065
18626SOL    HW263119   8.602   2.351  10.614  0.5414  0.4442 -0.2460
18627SOL     OW63120   6.106  10.580   5.335  0.0029 -0.2629  0.1632
18627SOL    HW163121   6.201  10.566   5.329 -0.3385 -4.5201  1.4394
18627SOL    HW263122   6.071  10.495   5.363 -3.9518  1.8526  2.5078
18628SOL     OW63123  11.285   7.272   5.062  0.3968  0.5216 -0.0761
18628SOL    HW163124  11.209   7.214   5.050  0.5218  0.5877 -1.2365
18628SOL    HW263125  11.360   7.213   5.060  0.3832  0.4050  1.4669
18629SOL     OW63126   9.268  12.658   9.594 -0.3965 -0.1996  0.2280
18629SOL    HW163127   9.336  12.726   9.586  0.2896 -0.8060  0.8089
18629SOL    HW263128   9.249  12.633   9.504 -0.6315  0.7269  0.0042
18630SOL     OW63129   0.518   6.828   4.263 -0.1348 -0.5025 -0.2233
18630SOL    HW163130   0.434   6.805   4.222  0.5696 -1.5860 -1.1488
18630SOL    HW263131   0.559   6.889   4.201 -0.6208  0.8104  0.6945
18631SOL     OW63132   2.248   0.780   1.917 -0.4571  0.0493  0.1695
18631SOL    HW163133   2.240   0.685   1.921  0.7877 -0.0372  0.8535
18631SOL    HW263134   2.234   0.809   2.007  1.4073  0.2984  0.4237
18632SOL     OW63135   6.668  11.546   9.909 -0.4816 -0.4221  0.2631
18632SOL    HW163136   6.605  11.519   9.975 -2.9797  0.5201 -1.5600
18632SOL    HW263137   6.690  11.466   9.863 -1.9267 -0.5424 -0.2896
18633SOL     OW63138   0.026   7.439   7.055  0.5476 -0.6217 -0.0219
18633SOL    HW163139   0.115   7.413   7.032  0.4754 -2.1709  1.2392
18633SOL    HW263140   0.036   7.490   7.135  0.3834  0.3479 -0.6005
18634SOL     OW63141   9.793   9.422   1.930 -0.4068 -0.3725  0.2683
18634SOL    HW163142   9.757   9.415   1.841 -2.8069  2.5427  0.8576
18634SOL    HW263143   9.753   9.348   1.977 -0.6723 -0.7962 -0.5954
18635SOL     OW63144   6.192   9.354   3.419 -0.2753  0.0895 -0.1553
18635SOL    HW163145   6.150   9.348   3.333 -0.2787 -2.7590 -0.0692
18635SOL    HW263146   6.121   9.342   3.482  0.0415 -0.1784  0.1557
18636SOL     OW63147   5.986   1.545   3.915 -0.0070  0.1351  0.4229
18636SOL    HW163148   6.070   1.531   3.959 -0.1085 -0.3351  0.4764
18636SOL    HW263149   5.989   1.485   3.840 -0.2488  0.1978  0.3621
18637SOL     OW63150   1.674  12.608  10.939 -0.3867  0.5471 -0.3154
18637SOL    HW163151   1.754  12.557  10.952  1.4139  2.2389 -3.6169
18637SOL    HW263152   1.614  12.548  10.894  0.4687  0.3323 -1.1972
18638SOL     OW63153   9.362   9.200   3.011 -0.4226 -0.5753  0.0720
18638SOL    HW163154   9.372   9.136   3.081 -0.7961 -1.3849 -0.5909
18638SOL    HW263155   9.448   9.240   3.003  0.4774 -2.5466 -0.9434
18639SOL     OW63156   0.398   0.817  11.447 -0.1355 -0.1587  0.5328
18639SOL    HW163157   0.342   0.821  11.370 -1.2168 -1.6750  1.1989
18639SOL    HW263158   0.339   0.832  11.521  0.4612 -1.0257  1.2089
18640SOL     OW63159   9.119   1.506   8.158 -0.0221 -0.0438 -0.0259
18640SOL    HW163160   9.200   1.518   8.110 -0.3663  0.2362 -0.5446
18640SOL    HW263161   9.077   1.430   8.117 -0.1094 -0.0722  0.1139
18641SOL     OW63162   5.738   5.960  12.638 -0.6115 -0.7093  0.2713
18641SOL    HW163163   5.829   5.989  12.634 -1.2097  1.3260  0.0094
18641SOL    HW263164   5.712   5.975  12.729 -0.9232 -0.4551  0.1434
18642SOL     OW63165   1.482   5.652   9.834 -0.3879  0.6207  0.1335
18642SOL    HW163166   1.479   5.556   9.839 -1.6135  0.6368 -0.0387
18642SOL    HW263167   1.456   5.680   9.922  0.6431  0.8115  0.3958
18643SOL     OW63168   1.447   8.923   7.189  0.2112 -0.0357  0.4309
18643SOL    HW163169   1.528   8.973   7.197  0.9561 -1.1562  0.0421
18643SOL    HW263170   1.471   8.833   7.210 -0.8067 -0.4921 -0.2554
18644SOL     OW63171  11.298   7.525   9.220 -0.3562 -0.2066  0.0801
18644SOL    HW163172  11.326   7.433   9.229 -0.5587 -0.1780  1.1571
18644SOL    HW263173  11.203   7.519   9.207 -0.2813 -0.1726 -0.4974
18645SOL     OW63174   0.605   8.938  11.378  0.0961  0.2064 -0.2211
18645SOL    HW163175   0.511   8.950  11.393 -0.2236 -1.4400 -0.7445
18645SOL    HW263176   0.613   8.928  11.284  0.7171 -0.4047 -0.1074
18646SOL     OW63177   1.882   4.742   3.808 -0.4775  0.4060 -0.4281
18646SOL    HW163178   1.791   4.713   3.795 -0.5696  0.8849 -0.8887
18646SOL    HW263179   1.935   4.667   3.783 -0.7612 -0.3090  1.0080
18647SOL     OW63180   9.183  12.328   2.602 -0.0991  0.3906 -0.1830
18647SOL    HW163181   9.181  12.274   2.524 -1.5569 -0.4854  0.4185
18647SOL    HW263182   9.210  12.415   2.571 -1.9161  0.4042 -1.8707
18648SOL     OW63183   7.477  10.919  10.813  0.7043  0.3229 -0.2646
18648SOL    HW163184   7.556  10.969  10.835  0.4618  1.4834 -1.8343
18648SOL    HW263185   7.470  10.926  10.717 -0.3162 -1.2846 -0.3396
18649SOL     OW63186   6.996   4.171  12.380  0.1525 -0.4816  0.0513
18649SOL    HW163187   6.945   4.183  12.460 -0.2956 -2.1383  0.0573
18649SOL    HW263188   7.086   4.160  12.409  0.2949  0.8058  0.1617
18650SOL     OW63189   1.558   4.744   9.002 -0.0282  0.0370 -0.2015
18650SOL    HW163190   1.618   4.706   9.067 -0.5469 -2.8371 -1.2397
18650SOL    HW263191   1.534   4.829   9.038 -0.3363 -1.4040  3.4463
18651SOL     OW63192   6.312  10.161   9.518 -0.5310  0.2164  0.2564
18651SOL    HW163193   6.300  10.083   9.465 -1.7571  1.2175 -0.9919
18651SOL    HW263194   6.330  10.127   9.606 -1.1542 -1.4571 -0.2234
18652SOL     OW63195   5.995   0.901   1.267  0.1452  0.2229  0.3570
18652SOL    HW163196   5.947   0.962   1.323  1.3155 -1.0080  2.8921
18652SOL    HW263197   5.967   0.814   1.298  0.9434 -0.5123 -0.9148
18653SOL     OW63198   8.271   5.079  11.458 -0.1852  1.1733  0.2867
18653SOL    HW163199   8.358   5.041  11.458 -0.9465 -0.8495  2.5358
18653SOL    HW263200   8.285   5.173  11.468  1.7244  0.9072  0.3874
18654SOL     OW63201   8.207   8.519   8.203 -0.4000  0.2775  0.7490
18654SOL    HW163202   8.196   8.506   8.297  0.1518  0.6750  0.8724
18654SOL    HW263203   8.180   8.609   8.187 -0.6522  0.1609  0.4961
18655SOL     OW63204   0.915  11.922   8.894 -0.1748 -0.4302  0.1769
18655SOL    HW163205   0.960  11.873   8.963  0.2283 -1.3890 -0.7460
18655SOL    HW263206   0.858  11.982   8.942  0.8804 -0.3079  1.3622
18656SOL     OW63207   5.440   1.131   1.421 -0.5288  0.9634  0.2127
18656SOL    HW163208   5.439   1.036   1.408 -1.1590  1.0539 -0.4082
18656SOL    HW263209   5.463   1.142   1.514  0.8986  0.2447 -0.0316
18657SOL     OW63210   4.030   1.302   5.575 -0.1989  0.8050 -0.0512
18657SOL    HW163211   4.093   1.309   5.647 -2.0030  0.0578  1.7010
18657SOL    HW263212   3.958   1.361   5.601 -0.3075  1.5656 -1.9428
18658SOL     OW63213   7.106   9.622   7.752 -0.0058  0.2929  0.0052
18658SOL    HW163214   7.082   9.529   7.752 -0.4366  0.3963  0.4490
18658SOL    HW263215   7.029   9.666   7.716  0.2216  0.4753 -0.2631
18659SOL     OW63216   6.551   6.852   2.188 -0.0204  0.0416  0.0567
18659SOL    HW163217   6.505   6.849   2.105 -0.1468 -0.3613  0.1400
18659SOL    HW263218   6.529   6.769   2.231  1.2143 -0.4130 -0.1408
18660SOL     OW63219   8.730   0.591   7.084 -0.1325  0.4260  0.1486
18660SOL    HW163220   8.793   0.601   7.013 -1.0702 -1.6269 -1.0745
18660SOL    HW263221   8.674   0.518   7.056 -1.9824  1.0546  1.9546
18661SOL     OW63222   8.160  10.703   4.758  0.3635 -0.0784 -0.6066
18661SOL    HW163223   8.155  10.690   4.852  0.2733 -0.6502 -0.6860
18661SOL    HW263224   8.192  10.792   4.747  0.6475 -0.1102 -0.0332
18662SOL     OW63225   2.834   1.490   0.475  0.8329 -0.5134  0.2524
18662SOL    HW163226   2.893   1.425   0.513  1.3266  1.1719  2.6480
18662SOL    HW263227   2.892   1.561   0.447  0.2128 -0.5254 -1.1310
18663SOL     OW63228   7.040   7.091  12.525  0.4628  0.1592  0.4908
18663SOL    HW163229   7.075   7.155  12.463  0.4890  0.3603  0.7179
18663SOL    HW263230   6.949   7.078  12.497  0.1321  1.0888  1.0943
18664SOL     OW63231  11.987  11.978   3.225  0.0757 -0.4370  0.1329
18664SOL    HW163232  11.983  12.034   3.303  2.1838  0.7128 -0.4830
18664SOL    HW263233  11.968  11.890   3.257  0.8881  0.0048  1.9746
18665SOL     OW63234   8.852   9.337   9.074  0.3633 -0.2840 -0.1054
18665SOL    HW163235   8.881   9.334   8.983 -0.4791 -1.2781 -0.3517
18665SOL    HW263236   8.776   9.395   9.073  1.5119  1.3368  0.3393
18666SOL     OW63237   8.493   1.294   3.849  0.2398  0.4166 -0.2098
18666SOL    HW163238   8.483   1.223   3.787 -1.7460  1.6009 -1.3543
18666SOL    HW263239   8.413   1.292   3.901  2.4491 -1.5646  3.6220
18667SOL     OW63240   4.116   6.568   8.435  0.1828  0.8982  0.6209
18667SOL    HW163241   4.117   6.639   8.371  0.2249  1.0458  0.7869
18667SOL    HW263242   4.094   6.490   8.383  1.0907  0.8590  0.2667
18668SOL     OW63243   1.405   9.211   8.759  0.3136  0.2305  0.0170
18668SOL    HW163244   1.404   9.290   8.704  0.0314  0.2689  0.0772
18668SOL    HW263245   1.392   9.244   8.848  1.6141  0.2553  0.2235
18669SOL     OW63246   6.591   1.576  12.652  0.0487 -0.2131 -0.1250
18669SOL    HW163247   6.569   1.484  12.634 -0.2339  0.1588 -1.8130
18669SOL    HW263248   6.603   1.579  12.747  0.4065 -2.0690 -0.0687
18670SOL     OW63249   1.055   1.820   6.471 -0.4499 -0.0758 -0.5478
18670SOL    HW163250   1.045   1.912   6.496  0.8402 -0.2061  0.6173
18670SOL    HW263251   0.975   1.778   6.502 -0.9320  0.6050 -0.8448
18671SOL     OW63252   9.363   1.731   4.430 -0.4128  0.1270  0.0144
18671SOL    HW163253   9.406   1.739   4.515 -2.2887 -0.4314  1.0783
18671SOL    HW263254   9.370   1.818   4.391  0.9258  0.2507  0.5004
18672SOL     OW63255   7.668  11.044  12.485  0.3399 -0.4057 -0.2645
18672SOL    HW163256   7.650  11.115  12.423 -2.5335  0.1791  1.0596
18672SOL    HW263257   7.581  11.011  12.509  1.5050 -3.1084  0.6543
18673SOL     OW63258   1.326  10.061   5.873  0.0882 -0.4419 -0.1224
18673SOL    HW163259   1.350   9.968   5.883  0.2893 -0.2177  1.8992
18673SOL    HW263260   1.408  10.108   5.881 -0.1817 -0.0250  0.2731
18674SOL     OW63261   9.973   9.304   2.181 -0.0460 -0.3765 -1.0086
18674SOL    HW163262   9.888   9.268   2.158 -0.8711 -0.4020  1.7085
18674SOL    HW263263  10.009   9.242   2.245  1.0420  0.7538 -0.4832
18675SOL     OW63264  11.457   1.835   7.652  0.5590  0.1675  0.0395
18675SOL    HW163265  11.517   1.839   7.578 -0.0142  1.4495 -0.3863
18675SOL    HW263266  11.463   1.922   7.693 -1.1843  0.4427 -0.1972
18676SOL     OW63267   7.430   2.630   7.275 -0.2329 -0.0996  0.3772
18676SOL    HW163268   7.452   2.697   7.210 -1.5347 -0.6599 -0.6916
18676SOL    HW263269   7.514   2.605   7.313  0.6749 -0.2301 -1.5772
18677SOL     OW63270   4.640   7.609  11.983 -0.3676 -0.3230 -0.0516
18677SOL    HW163271   4.681   7.673  11.925 -0.5321  0.1554  0.3598
18677SOL    HW263272   4.652   7.525  11.938  0.4591 -0.1022 -0.2622
18678SOL     OW63273   3.888   7.598   7.219  0.2609  0.0083 -0.0254
18678SOL    HW163274   3.930   7.664   7.164  1.5731 -0.5521  0.2644
18678SOL    HW263275   3.901   7.631   7.309  0.6275 -0.4734  0.1005
18679SOL     OW63276  10.149   4.076   9.629 -0.2796  0.5529  0.3912
18679SOL    HW163277  10.236   4.084   9.668  0.6070  3.1503 -1.8326
18679SOL    HW263278  10.142   3.984   9.603  1.6710  0.2298  0.8944
18680SOL     OW63279   8.561   0.689  12.097 -0.5923 -0.4346  0.6279
18680SOL    HW163280   8.592   0.750  12.164 -0.1584 -1.0248  0.9753
18680SOL    HW263281   8.604   0.606  12.118 -1.1683 -0.8615  0.1579
18681SOL     OW63282   7.605   1.302   8.896 -0.3357  0.0035  0.5069
18681SOL    HW163283   7.670   1.250   8.849  0.8131  0.0183  1.9757
18681SOL    HW263284   7.622   1.283   8.988 -0.3806  2.3305  1.0681
18682SOL     OW63285  12.487   3.227   1.547 -0.1410 -0.3493  0.6786
18682SOL    HW163286  12.439   3.164   1.600 -1.4843 -0.5433 -0.6996
18682SOL    HW263287  12.573   3.186   1.533 -0.2746 -0.9267  1.4803
18683SOL     OW63288   6.287   9.038   7.357 -0.4021  0.3009 -0.1786
18683SOL    HW163289   6.193   9.021   7.354  0.0415 -2.4680 -1.7019
18683SOL    HW263290   6.295   9.121   7.405 -3.6675  1.3788 -1.2185
18684SOL     OW63291  11.060   1.718   8.528 -0.8935  0.1915  0.3413
18684SOL    HW163292  11.038   1.744   8.618  0.7856 -0.8320  1.0856
18684SOL    HW263293  11.138   1.770   8.507 -1.2124  0.3422 -0.5004
18685SOL     OW63294   6.660   1.982   8.365 -0.1103 -0.4262  0.2754
18685SOL    HW163295   6.715   2.033   8.425  0.8117 -0.3861 -0.5740
18685SOL    HW263296   6.647   2.040   8.290  0.9386 -1.3924 -0.7045
18686SOL     OW63297  12.542   9.066   4.735 -0.3679  0.0034  0.1231
18686SOL    HW163298  12.591   9.147   4.748  1.4751 -0.5055 -2.7796
18686SOL    HW263299  12.472   9.090   4.674  0.9111 -0.7574 -1.7081
18687SOL     OW63300   4.555   9.800   7.214 -0.2246 -0.5147  0.4195
18687SOL    HW163301   4.629   9.805   7.275  0.6345  0.0401 -0.6329
18687SOL    HW263302   4.557   9.883   7.167 -2.4265  0.1558  1.3562
18688SOL     OW63303   7.629   4.962   0.795 -0.0784 -0.4986  0.2373
18688SOL    HW163304   7.561   4.900   0.769 -0.2943  0.0363 -0.4908
18688SOL    HW263305   7.676   4.918   0.866 -0.2429 -1.4832 -0.2585
18689SOL     OW63306   5.114   7.451   6.713  0.3040 -0.1492 -0.6071
18689SOL    HW163307   5.203   7.457   6.747  0.3869  0.2772 -0.8865
18689SOL    HW263308   5.095   7.539   6.679 -0.0966 -0.3252 -0.8524
18690SOL     OW63309   7.276  10.186   1.152  0.0605 -0.0434 -0.0347
18690SOL    HW163310   7.227  10.199   1.070  0.8514  1.8507 -0.2403
18690SOL    HW263311   7.305  10.095   1.148 -1.0258 -0.3681 -1.2348
18691SOL     OW63312   3.506   8.511   9.147  0.0604  0.0650 -0.2105
18691SOL    HW163313   3.497   8.570   9.223  0.4273 -0.6593  0.4017
18691SOL    HW263314   3.541   8.430   9.183  0.5245 -0.1901 -1.2104
18692SOL     OW63315   8.880   7.887   8.390  0.0090 -0.3486 -0.0888
18692SOL    HW163316   8.815   7.924   8.330 -1.3734  1.5946  2.4159
18692SOL    HW263317   8.919   7.963   8.433  2.6176 -1.5687 -0.0688
18693SOL     OW63318   8.742  11.374   8.163  0.1975  0.1717  0.3176
18693SOL    HW163319   8.652  11.370   8.128 -0.0348 -1.1876  1.0322
18693SOL    HW263320   8.797  11.355   8.088 -0.0712  1.2728 -0.1907
18694SOL     OW63321   4.535   6.114  11.449  0.9235 -0.3183  0.1906
18694SOL    HW163322   4.562   6.135  11.538  0.9737 -0.7692  0.2874
18694SOL    HW263323   4.480   6.036  11.458  1.7457 -0.9689 -0.2666
18695SOL     OW63324   2.278   7.199  11.771 -0.0017  0.1066 -0.2948
18695SOL    HW163325   2.244   7.222  11.684 -0.8338 -0.7226 -0.2131
18695SOL    HW263326   2.233   7.117  11.793  1.5231 -0.6395  0.1713
18696SOL     OW63327   0.018   9.645   2.471 -0.7035  0.5400 -0.1027
18696SOL    HW163328   0.009   9.718   2.533  1.4277  0.7688  0.0371
18696SOL    HW263329   0.070   9.681   2.399 -1.4677 -0.2705 -1.0781
18697SOL     OW63330   0.016   2.434   6.391  0.3538  0.4003 -0.2733
18697SOL    HW163331   0.012   2.339   6.399 -0.3981  0.3774 -0.8755
18697SOL    HW263332  -0.019   2.466   6.475 -0.7364  0.1431 -0.6197
18698SOL     OW63333   6.515   9.518   7.906  0.7428  0.6720  0.0459
18698SOL    HW163334   6.466   9.518   7.824 -0.4505 -1.5034  0.6602
18698SOL    HW263335   6.592   9.464   7.888  1.0186  1.0515  0.0805
18699SOL     OW63336   4.998   2.641  12.660  0.6019  0.3671  0.3628
18699SOL    HW163337   5.085   2.664  12.694 -0.0078  2.3541  0.7074
18699SOL    HW263338   4.963   2.580  12.725  0.4769  2.1124  2.0289
18700SOL     OW63339   0.334   2.030   7.577 -0.3386  0.4007  0.1323
18700SOL    HW163340   0.387   1.999   7.651  0.1107 -0.7230 -0.6348
18700SOL    HW263341   0.247   1.992   7.592  0.5423 -2.5615 -1.5088
18701SOL     OW63342   8.198   4.034   4.908  0.2443  0.3326 -0.5987
18701SOL    HW163343   8.248   4.111   4.882 -0.4602  1.0645  0.1457
18701SOL    HW263344   8.258   3.984   4.964  0.8858  0.0496 -1.5207
18702SOL     OW63345   6.476   5.259   6.920 -0.1634  0.6737 -0.2747
18702SOL    HW163346   6.399   5.272   6.866  0.8323  1.2256 -1.6269
18702SOL    HW263347   6.531   5.336   6.903  0.1216  0.9380  1.6561
18703SOL     OW63348   7.115  12.507   2.633 -0.4653 -0.3484  0.0373
18703SOL    HW163349   7.178  12.532   2.701  1.2987 -1.8242 -0.9460
18703SOL    HW263350   7.170  12.489   2.556 -2.3148  0.5109 -1.5592
18704SOL     OW63351  10.542  10.193   7.715 -0.1795  0.1473 -0.1437
18704SOL    HW163352  10.534  10.279   7.675 -0.5434  1.1692  1.9441
18704SOL    HW263353  10.504  10.133   7.651 -0.0593  1.5476 -1.5901
18705SOL     OW63354  11.725   6.676   2.299  0.0621  0.1549  0.1574
18705SOL    HW163355  11.645   6.695   2.348 -1.1007  0.3148 -1.7321
18705SOL    HW263356  11.739   6.753   2.244  0.6412 -0.5132 -0.6641
18706SOL     OW63357   6.680   5.309   0.003  0.1094 -0.1912 -0.1171
18706SOL    HW163358   6.749   5.314  -0.063  0.2218 -1.6876 -0.1509
18706SOL    HW263359   6.722   5.337   0.084  1.1405 -2.1376  0.0927
18707SOL     OW63360   4.116   1.559  10.126 -0.4344 -0.0113  0.1050
18707SOL    HW163361   4.117   1.474  10.083 -0.6790 -0.2137  0.4936
18707SOL    HW263362   4.028   1.594  10.109 -0.4479  0.0160  0.2292
18708SOL     OW63363   4.064   9.337   4.384  0.5333  0.1856 -0.2411
18708SOL    HW163364   4.009   9.405   4.345 -1.2721 -0.5673  0.8528
18708SOL    HW263365   4.104   9.379   4.459  2.6779  1.1455 -1.8145
18709SOL     OW63366   4.832  11.013   3.383 -0.0824 -0.1870  0.0339
18709SOL    HW163367   4.784  10.947   3.333 -1.2404 -0.0625  0.9234
18709SOL    HW263368   4.846  10.972   3.469 -1.0155  0.7708  0.6754
18710SOL     OW63369   8.838   3.056   7.135 -0.1815 -0.5953 -0.6223
18710SOL    HW163370   8.855   3.107   7.055 -0.0770 -1.7615 -1.3608
18710SOL    HW263371   8.757   3.095   7.170  0.3881  0.6727 -0.6605
18711SOL     OW63372   1.398   2.799   9.866  0.6008  0.4023 -0.3745
18711SOL    HW163373   1.339   2.852   9.920 -0.6897 -1.3346  0.0135
18711SOL    HW263374   1.341   2.762   9.798  1.0445 -1.9158  0.4324
18712SOL     OW63375   9.543   7.026   1.356  0.1375 -0.0983  0.1684
18712SOL    HW163376   9.590   6.957   1.402  0.6947  0.1578 -0.0061
18712SOL    HW263377   9.580   7.107   1.390  1.6943  0.1065 -1.8170
18713SOL     OW63378   2.345  11.666  12.512  0.1763  0.5893 -0.1918
18713SOL    HW163379   2.287  11.604  12.468 -0.8343  0.9225  0.6481
18713SOL    HW263380   2.349  11.635  12.603  3.1805 -0.7978 -0.6679
18714SOL     OW63381   8.976   8.429   6.595 -0.0844 -0.0019 -0.0379
18714SOL    HW163382   8.932   8.347   6.573  0.1894  0.4542 -2.5258
18714SOL    HW263383   8.946   8.449   6.684  0.0190 -2.8766  0.7383
18715SOL     OW63384  11.899   0.392  11.132 -0.5650 -0.3789 -0.0823
18715SOL    HW163385  11.872   0.480  11.159  1.6997  0.7338 -1.1272
18715SOL    HW263386  11.840   0.370  11.060 -0.3075  0.9278 -0.7329
18716SOL     OW63387   5.910   6.290   5.004  0.0739  0.5993 -0.0886
18716SOL    HW163388   5.983   6.352   5.011  0.7470 -0.1820 -0.0333
18716SOL    HW263389   5.902   6.275   4.910  0.7180 -0.1568 -0.0292
18717SOL     OW63390  11.937   2.946  12.537  0.3369 -0.8872 -0.4312
18717SOL    HW163391  11.928   2.987  12.451  1.5434  0.1767 -0.0693
18717SOL    HW263392  11.860   2.975  12.585 -0.2122 -1.2806 -1.0510
18718SOL     OW63393   2.043  10.990   5.038 -0.3625 -0.0829 -0.0162
18718SOL    HW163394   2.078  10.987   4.949 -1.8143 -0.4963 -0.6073
18718SOL    HW263395   1.968  10.931   5.037 -0.1965 -0.3778  1.5961
18719SOL     OW63396  10.005   3.291   5.674  0.0595  0.2062 -0.7449
18719SOL    HW163397  10.057   3.222   5.635  0.9456  0.5031 -0.1233
18719SOL    HW263398  10.055   3.371   5.658 -0.5501  0.5905 -0.7553
18720SOL     OW63399   1.827   4.786  10.790  0.4215  0.0398  0.6268
18720SOL    HW163400   1.759   4.848  10.764  0.1140 -0.6054 -0.0966
18720SOL    HW263401   1.804   4.704  10.747  1.2211 -0.3967  1.0096
18721SOL     OW63402   9.429   1.426  12.045 -0.0789  0.1761  0.3950
18721SOL    HW163403   9.381   1.495  12.089 -0.5542  1.4879 -1.9852
18721SOL    HW263404   9.493   1.472  11.991 -0.6406 -1.1688 -1.5263
18722SOL     OW63405  12.206   8.028  11.746 -0.4575  0.3609 -0.4510
18722SOL    HW163406  12.126   7.977  11.731  0.6291 -1.2339 -1.1058
18722SOL    HW263407  12.272   7.962  11.767  0.8289  1.5982 -0.4823
18723SOL     OW63408   0.183   5.098   5.095  0.8271  0.1877 -0.2732
18723SOL    HW163409   0.124   5.160   5.051 -0.4329 -0.6410  0.1713
18723SOL    HW263410   0.220   5.148   5.168 -0.6763  0.2877  0.4805
18724SOL     OW63411   5.657   2.014   6.306  0.0037  0.3128 -0.2294
18724SOL    HW163412   5.680   1.977   6.391  1.3355  0.0502 -0.6807
18724SOL    HW263413   5.668   2.108   6.317  1.2127  0.1998 -0.3967
18725SOL     OW63414   0.532   1.173  11.641 -0.3334  0.2225 -0.0988
18725SOL    HW163415   0.603   1.219  11.686 -0.1557 -0.1529  0.0063
18725SOL    HW263416   0.452   1.212  11.677 -0.1926 -0.0604  0.5371
18726SOL     OW63417   9.292   1.581  10.101 -0.2112  0.0235 -0.1022
18726SOL    HW163418   9.227   1.523  10.061  0.6884 -0.2848 -1.1903
18726SOL    HW263419   9.350   1.605  10.028  0.9895  0.1348  0.8599
18727SOL     OW63420  10.191   7.346   8.560 -0.1089  0.2393 -0.0962
18727SOL    HW163421  10.197   7.255   8.529 -1.8651  0.6213 -1.7498
18727SOL    HW263422  10.272   7.387   8.530  0.2549 -0.5292 -0.1997
18728SOL     OW63423   2.154   2.019   2.554  1.0043  0.4046 -0.1075
18728SOL    HW163424   2.169   2.024   2.459  0.3379 -1.5074 -0.3631
18728SOL    HW263425   2.117   2.105   2.577  1.5492  1.0423 -1.4883
18729SOL     OW63426   4.612   0.136  12.119 -0.0057  0.5364  0.5703
18729SOL    HW163427   4.553   0.106  12.050  0.3494  0.9430  0.0898
18729SOL    HW263428   4.574   0.218  12.150  0.8178  1.3059 -0.4078
18730SOL     OW63429  12.046   0.922  12.597 -0.0505 -0.0756 -0.6867
18730SOL    HW163430  12.010   0.874  12.672 -0.7989 -0.3405 -1.1953
18730SOL    HW263431  12.038   0.861  12.524 -1.4820  0.9721 -1.4560
18731SOL     OW63432   8.393   0.179   1.246  0.9096  0.7465 -0.8995
18731SOL    HW163433   8.355   0.254   1.200 -0.8426  1.3804  1.3865
18731SOL    HW263434   8.328   0.156   1.313  2.1744 -1.7236 -0.3775
18732SOL     OW63435   7.019  10.866   6.113  0.1731 -1.0337 -0.5919
18732SOL    HW163436   6.990  10.783   6.150 -0.5773 -0.0126  1.2733
18732SOL    HW263437   6.998  10.931   6.180 -1.2537  0.9887 -2.8000
18733SOL     OW63438   3.631   8.649   6.292  0.6934 -0.6227  1.0321
18733SOL    HW163439   3.583   8.710   6.348 -0.9005  0.3159 -1.2025
18733SOL    HW263440   3.710   8.697   6.265  0.6864 -0.4940  1.2441
18734SOL     OW63441   5.865   2.838  11.762 -0.6068 -0.0562 -0.0381
18734SOL    HW163442   5.886   2.929  11.783 -0.0023 -0.0934 -0.4626
18734SOL    HW263443   5.921   2.817  11.687  1.1717 -1.5751  1.6234
18735SOL     OW63444   8.107  12.449  12.433  0.2352  0.2441 -0.0078
18735SOL    HW163445   8.197  12.429  12.459 -0.1974  0.7930  2.0868
18735SOL    HW263446   8.076  12.368  12.391  0.9659 -0.7790  1.3483
18736SOL     OW63447  11.373   3.568   8.600 -0.0721  0.7934 -0.0582
18736SOL    HW163448  11.347   3.599   8.513  0.4828 -0.2243 -0.6035
18736SOL    HW263449  11.416   3.644   8.640 -2.2530  1.9649  0.2086
18737SOL     OW63450   9.955  11.939   9.253 -0.0398 -0.1413 -0.4152
18737SOL    HW163451   9.953  12.028   9.290 -0.3336  0.1983 -1.2090
18737SOL    HW263452   9.872  11.932   9.205  0.3281 -0.5655 -0.9947
18738SOL     OW63453  10.951  12.450   2.558 -0.6195  0.1559 -0.1300
18738SOL    HW163454  10.933  12.531   2.511 -0.3361 -0.9638 -2.2558
18738SOL    HW263455  10.865  12.417   2.584 -1.0262 -0.5003 -2.1740
18739SOL     OW63456   5.031   0.770  10.080  0.4756 -0.3233  0.5979
18739SOL    HW163457   4.984   0.847  10.049  0.5727 -0.3753  0.3159
18739SOL    HW263458   5.122   0.800  10.089  0.6018 -0.5269  0.0368
18740SOL     OW63459  10.050   5.334   8.553  0.2284  0.7937 -0.0649
18740SOL    HW163460   9.960   5.311   8.576  0.3350  1.3940  1.0531
18740SOL    HW263461  10.093   5.250   8.537 -0.0857  0.3792  1.1610
18741SOL     OW63462   3.948  10.420  10.054  0.6817 -0.1626 -0.0628
18741SOL    HW163463   3.999  10.482  10.108 -1.6281  0.8790  1.0806
18741SOL    HW263464   3.899  10.476   9.994 -1.2298 -0.8417  0.7924
18742SOL     OW63465   0.519   5.876   6.878 -0.1274 -0.5027 -0.2303
18742SOL    HW163466   0.442   5.830   6.845  0.0755 -0.8889 -0.1816
18742SOL    HW263467   0.534   5.946   6.815 -0.7529 -0.1721 -0.0195
18743SOL     OW63468   2.535  11.221   1.603 -0.7346 -0.6127  0.5614
18743SOL    HW163469   2.453  11.267   1.619 -0.0081  0.4715  1.2892
18743SOL    HW263470   2.514  11.129   1.619 -2.2382 -0.5816 -1.0225
18744SOL     OW63471   2.538   0.226  11.620  0.0326  0.2301  0.0750
18744SOL    HW163472   2.576   0.287  11.557  0.7322 -0.9544 -0.6873
18744SOL    HW263473   2.614   0.182  11.659 -0.4471  0.1315  0.9209
18745SOL     OW63474   8.998   5.042  10.058  0.1664  0.4864 -0.0193
18745SOL    HW163475   9.089   5.026  10.033 -0.1027 -0.7869 -0.2459
18745SOL    HW263476   8.994   5.025  10.152  0.1296  0.3896 -0.0386
18746SOL     OW63477   4.687   4.280   0.579 -0.3921 -0.5399  0.1803
18746SOL    HW163478   4.752   4.285   0.648 -0.4986 -1.9478  0.4217
18746SOL    HW263479   4.631   4.356   0.592  1.0875  0.6098  0.0650
18747SOL     OW63480  10.208   0.093   2.305 -0.2110 -0.4074  1.1990
18747SOL    HW163481  10.250   0.177   2.327  1.3828 -0.2347 -1.8562
18747SOL    HW263482  10.137   0.117   2.246  0.3800 -1.1553  0.1389
18748SOL     OW63483  11.195   6.724  10.352  0.0540 -0.0740  0.1598
18748SOL    HW163484  11.222   6.764  10.435  2.1304  1.0273 -0.9834
18748SOL    HW263485  11.272   6.675  10.323  0.0085  1.0343 -1.9758
18749SOL     OW63486   5.598   1.448   4.783  0.2052 -0.4498  0.1051
18749SOL    HW163487   5.657   1.376   4.762 -0.3064 -0.8502 -0.0032
18749SOL    HW263488   5.520   1.404   4.819  0.0172  0.0689  0.3398
18750SOL     OW63489   3.646   4.227   3.268 -0.3011  0.3479  0.2129
18750SOL    HW163490   3.701   4.150   3.282 -0.6751 -0.2226 -1.2768
18750SOL    HW263491   3.617   4.219   3.177 -1.1994  1.7037  0.3610
18751SOL     OW63492   4.909   7.007   7.661  0.6151  0.0468 -0.4551
18751SOL    HW163493   4.923   6.920   7.622  0.5024  0.9949 -2.8034
18751SOL    HW263494   4.822   7.001   7.701  0.4707 -0.8353 -0.8747
18752SOL     OW63495  10.965   6.016   3.775  0.0128  0.0175  0.5167
18752SOL    HW163496  10.885   6.001   3.725  0.3574 -0.0435 -0.0250
18752SOL    HW263497  11.028   5.954   3.739 -0.5251 -2.1603  2.9893
18753SOL     OW63498   8.873   3.154   4.210 -0.0893 -0.0185  0.2750
18753SOL    HW163499   8.869   3.249   4.198 -1.2269 -0.1729 -0.6826
18753SOL    HW263500   8.784   3.128   4.230  0.1640 -0.9294  0.2609
18754SOL     OW63501   6.211   7.317   6.766  0.3474  0.7975  0.0980
18754SOL    HW163502   6.196   7.400   6.721  0.4354  1.1423  0.6874
18754SOL    HW263503   6.126   7.298   6.807  0.4845  0.8843  0.4241
18755SOL     OW63504   1.618  11.925   1.041 -0.1533  0.4098 -0.0891
18755SOL    HW163505   1.574  11.840   1.030  1.5234 -0.7297  1.3212
18755SOL    HW263506   1.672  11.934   0.963  1.0555 -0.7775  0.5602
18756SOL     OW63507   1.683   8.219   6.027 -0.0080 -0.1016 -0.1850
18756SOL    HW163508   1.633   8.214   6.109 -1.3415  2.1980 -0.7672
18756SOL    HW263509   1.616   8.229   5.960  1.1366 -0.3450 -1.3961
18757SOL     OW63510   9.503   0.241   1.686  0.0786 -0.2247 -0.0740
18757SOL    HW163511   9.545   0.169   1.734  1.0343  0.4666  0.1673
18757SOL    HW263512   9.434   0.199   1.635  0.1187 -1.2078  0.6469
18758SOL     OW63513   7.484  10.150   3.542  0.0203  0.1241 -0.0049
18758SOL    HW163514   7.475  10.073   3.486 -0.8377 -2.0381  2.8526
18758SOL    HW263515   7.563  10.194   3.511  2.2166 -3.4969 -0.0430
18759SOL     OW63516   8.332   1.744  12.136  0.2960 -0.2009  0.5912
18759SOL    HW163517   8.287   1.665  12.106 -0.5378 -0.1105  1.5600
18759SOL    HW263518   8.396   1.763  12.067 -1.0886 -0.3681 -0.7789
18760SOL     OW63519   9.244   4.998   1.114  0.4214  0.1444 -0.4211
18760SOL    HW163520   9.217   4.907   1.109  0.6925  0.1326 -2.8015
18760SOL    HW263521   9.186   5.037   1.180  1.4199 -2.0451  1.9216
18761SOL     OW63522   7.860   7.975   3.849  0.3809  0.1255 -0.1104
18761SOL    HW163523   7.906   7.908   3.900  0.1473  0.7975  1.0174
18761SOL    HW263524   7.924   8.004   3.784  0.6002 -0.9412 -0.3861
18762SOL     OW63525  12.106   0.843   7.131  0.2572 -0.2263  0.3588
18762SOL    HW163526  12.142   0.927   7.100 -0.9377 -0.1050 -0.7574
18762SOL    HW263527  12.014   0.845   7.105  0.3115 -2.1020 -0.1074
18763SOL     OW63528  10.074   4.746   2.629 -0.2766  0.4761 -0.8067
18763SOL    HW163529  10.115   4.829   2.653 -0.4542  0.1511  0.7906
18763SOL    HW263530  10.136   4.704   2.571 -0.1702  1.7025 -1.6060
18764SOL     OW63531   3.150   4.994   6.331  1.0196  0.3025  0.1009
18764SOL    HW163532   3.181   4.909   6.301  0.4144 -0.1391  0.6843
18764SOL    HW263533   3.196   5.057   6.276  0.4753 -0.4336 -1.2425
18765SOL     OW63534   0.006   5.367   2.637  0.2017  0.1314  0.5891
18765SOL    HW163535  -0.085   5.357   2.666  0.1600  2.8175  1.7157
18765SOL    HW263536   0.029   5.282   2.601 -3.3455 -0.1623 -1.4598
18766SOL     OW63537   7.341   5.189   7.585 -0.2329 -0.1077 -0.5411
18766SOL    HW163538   7.379   5.120   7.531  1.1389 -0.4161  0.7581
18766SOL    HW263539   7.323   5.260   7.523 -0.3903 -1.1097 -1.6769
18767SOL     OW63540   9.425   1.027   9.098 -0.3320 -0.8066 -0.6048
18767SOL    HW163541   9.496   1.043   9.036  0.0178  0.3233  0.0631
18767SOL    HW263542   9.468   0.986   9.173 -0.7093 -1.9178 -0.9767
18768SOL     OW63543  11.420   9.794   6.116 -0.3561 -0.8501  0.3718
18768SOL    HW163544  11.480   9.861   6.083 -0.8733 -0.6890 -0.2763
18768SOL    HW263545  11.422   9.804   6.211 -0.2762 -0.0370  0.2902
18769SOL     OW63546   3.927  10.606   1.863  0.3064  0.0135 -0.2787
18769SOL    HW163547   3.979  10.535   1.900  0.1544  0.4371  0.7741
18769SOL    HW263548   3.929  10.675   1.929 -0.9147  0.3551 -0.5730
18770SOL     OW63549   7.531   8.054   1.641  0.0407 -0.0655 -0.2188
18770SOL    HW163550   7.598   8.025   1.579  0.8415 -0.3289  0.7432
18770SOL    HW263551   7.580   8.103   1.708 -0.3802 -2.1211  1.7046
18771SOL     OW63552   8.951   9.566   6.757  0.0404 -0.5780  0.4258
18771SOL    HW163553   8.950   9.485   6.707 -0.2195 -0.7527  0.7070
18771SOL    HW263554   9.043   9.592   6.759  0.3235 -1.5758  1.4601
18772SOL     OW63555   8.318   5.492   9.900 -0.4627 -0.0103  0.3243
18772SOL    HW163556   8.380   5.419   9.896  1.6455  1.7016  0.3082
18772SOL    HW263557   8.252   5.463   9.963  1.1453 -1.3229  1.5093
18773SOL     OW63558   0.163   2.192   2.826  0.6596  0.4444  0.5884
18773SOL    HW163559   0.232   2.226   2.882  0.1367  1.8736  0.4031
18773SOL    HW263560   0.112   2.269   2.800 -2.1681 -0.6960  2.2458
18774SOL     OW63561   0.960   0.866   5.234 -0.3844  0.1803  0.7352
18774SOL    HW163562   0.939   0.828   5.319 -0.3513  1.5150  1.3704
18774SOL    HW263563   0.979   0.958   5.253  0.6412  0.2699 -0.5725
18775SOL     OW63564   1.703   8.921   6.912 -0.3297  0.4482  0.0763
18775SOL    HW163565   1.746   8.939   6.829  0.9958 -1.4246  0.2922
18775SOL    HW263566   1.774   8.921   6.976 -1.4256  2.6634  1.4077
18776SOL     OW63567  12.499   9.884  11.879  0.2288  0.5719 -0.2981
18776SOL    HW163568  12.556   9.850  11.948  0.2958  0.5269 -0.3746
18776SOL    HW263569  12.438   9.942  11.924 -0.7052 -0.6043  0.0399
18777SOL     OW63570   3.699   3.855   5.114  0.4017  0.1159  0.3362
18777SOL    HW163571   3.619   3.843   5.063  0.1821 -0.1615  0.7447
18777SOL    HW263572   3.687   3.939   5.159 -0.1693 -0.4714  1.3110
18778SOL     OW63573   2.099   7.362   1.025  0.1065  0.4532  0.5159
18778SOL    HW163574   2.096   7.457   1.013  1.6798  0.4758  0.1408
18778SOL    HW263575   2.182   7.346   1.070  1.3023 -0.9632 -1.9869
18779SOL     OW63576   9.226  10.877   3.220 -0.2262  0.0847  0.3016
18779SOL    HW163577   9.175  10.937   3.274 -1.2289  0.1784 -0.7020
18779SOL    HW263578   9.209  10.905   3.130  1.5436  0.0401 -0.0743
18780SOL     OW63579   8.207   7.069  11.901  0.4941 -0.5091 -0.5264
18780SOL    HW163580   8.233   7.048  11.811 -1.5288 -2.5231 -0.7471
18780SOL    HW263581   8.132   7.012  11.918  0.4323  0.2437  2.2571
18781SOL     OW63582   3.531   8.812  11.055 -0.1262 -0.3265 -0.8896
18781SOL    HW163583   3.470   8.881  11.083  1.6691  0.5663  1.1095
18781SOL    HW263584   3.560   8.840  10.968 -1.7575 -0.2577 -1.4510
18782SOL     OW63585   0.174   7.669  10.911  0.4950 -0.3173  0.1497
18782SOL    HW163586   0.217   7.618  10.842 -0.6999  0.0753 -0.9313
18782SOL    HW263587   0.222   7.752  10.913 -0.8683  0.5953 -1.8846
18783SOL     OW63588   4.798   3.376  11.648 -0.0867 -0.0434  0.4026
18783SOL    HW163589   4.789   3.423  11.730  1.4643 -0.4649  0.8528
18783SOL    HW263590   4.751   3.293  11.661 -1.8329  0.8392  0.0090
18784SOL     OW63591   1.430  10.071   4.999 -0.2136 -0.4878  0.7774
18784SOL    HW163592   1.481  10.016   4.939 -1.3765 -0.9143  0.1417
18784SOL    HW263593   1.357  10.103   4.945 -0.2784  0.6060  1.5017
18785SOL     OW63594  10.837   6.349  12.156 -0.1099  0.0423 -0.1305
18785SOL    HW163595  10.811   6.409  12.226 -1.6636 -0.5257 -0.1906
18785SOL    HW263596  10.769   6.360  12.089 -1.1412 -2.6313  0.3795
18786SOL     OW63597  11.780  10.692   1.780 -0.3603 -0.1783 -0.3306
18786SOL    HW163598  11.731  10.687   1.698  1.8764 -2.2345 -1.6635
18786SOL    HW263599  11.744  10.622   1.835 -1.0109  0.3829 -0.0284
18787SOL     OW63600   5.317   7.591  10.763 -0.1279  0.2637 -0.0317
18787SOL    HW163601   5.336   7.501  10.735 -1.2925 -0.3780  1.1327
18787SOL    HW263602   5.361   7.600  10.847 -0.8243  0.4411  0.3238
18788SOL     OW63603   9.942   2.708  10.282 -0.3001  0.1849  0.2568
18788SOL    HW163604   9.949   2.737  10.373 -0.1240  0.0044  0.3039
18788SOL    HW263605  10.021   2.742  10.239  0.8005 -1.6195  0.7183
18789SOL     OW63606   4.834   1.311   0.056 -0.1830  0.6220  0.0121
18789SOL    HW163607   4.851   1.369  -0.018 -0.8609  0.8927  0.0605
18789SOL    HW263608   4.846   1.366   0.133  0.8880  0.2447  0.1196
18790SOL     OW63609   4.452   8.636   7.451 -0.5011 -0.5427  0.0881
18790SOL    HW163610   4.481   8.613   7.363  1.3282 -1.9023  1.0029
18790SOL    HW263611   4.469   8.730   7.458 -0.6823 -0.4185 -1.0019
18791SOL     OW63612   5.545   6.226  12.276 -0.0473 -0.2373  0.3040
18791SOL    HW163613   5.486   6.236  12.202  1.1266 -2.0299 -0.9675
18791SOL    HW263614   5.567   6.133  12.276  0.7177 -0.1129  2.3665
18792SOL     OW63615   2.941   6.231  10.635  0.6782 -0.6433 -0.1310
18792SOL    HW163616   2.897   6.162  10.585 -0.7334 -0.6408  1.0617
18792SOL    HW263617   2.954   6.193  10.722  0.0002  0.5324  0.5062
18793SOL     OW63618   4.352   5.069   3.048  0.2855  0.4813 -0.2148
18793SOL    HW163619   4.397   5.106   2.973 -2.7035  3.4657 -0.7851
18793SOL    HW263620   4.377   5.125   3.122  0.4902 -0.2618  0.2965
18794SOL     OW63621   8.692   8.139  12.616  0.1930  0.1348 -0.1502
18794SOL    HW163622   8.735   8.216  12.578  0.8994 -0.5925 -0.8496
18794SOL    HW263623   8.623   8.118  12.553  0.5537 -0.3146 -0.3985
18795SOL     OW63624   2.103   9.455   4.690  0.3411  0.0544  0.3824
18795SOL    HW163625   2.022   9.505   4.702 -0.6044 -1.1551 -0.7229
18795SOL    HW263626   2.118   9.455   4.596  1.7214  0.3658  0.5794
18796SOL     OW63627   2.291   7.771   0.234  0.4359 -0.0677 -0.8644
18796SOL    HW163628   2.343   7.691   0.227  1.2429  0.3747 -0.1611
18796SOL    HW263629   2.273   7.779   0.328  0.6846  0.7615 -0.8791
18797SOL     OW63630   4.379   5.745   0.858 -0.2448 -0.1902  0.1840
18797SOL    HW163631   4.402   5.662   0.900  0.6335  0.4403  1.0029
18797SOL    HW263632   4.431   5.747   0.778 -0.3350 -0.4653  0.1186
18798SOL     OW63633   0.642  11.266   7.457  0.3580 -0.6453 -0.5112
18798SOL    HW163634   0.572  11.318   7.418 -0.5587 -2.1342 -0.9381
18798SOL    HW263635   0.598  11.212   7.523  1.6635  0.8128  1.6755
18799SOL     OW63636   1.642   9.384   3.136  1.0143  0.8951  0.0352
18799SOL    HW163637   1.597   9.302   3.111 -0.5092  1.0867  1.9197
18799SOL    HW263638   1.698   9.403   3.061  1.2555 -1.7458 -0.5853
18800SOL     OW63639   0.875   1.966  10.772  0.4006 -0.7216  0.9518
18800SOL    HW163640   0.812   1.940  10.839 -0.7086  0.9233  0.6207
18800SOL    HW263641   0.825   1.968  10.691  1.7815 -2.8818 -0.0365
18801SOL     OW63642   5.382   0.085   3.368 -0.2693 -0.9492 -0.1063
18801SOL    HW163643   5.465   0.133   3.362  0.1966 -1.6379  0.6385
18801SOL    HW263644   5.391   0.015   3.304 -1.0424  0.0513 -1.3594
18802SOL     OW63645  10.178   8.730   6.071  0.1827  0.5285  0.3911
18802SOL    HW163646  10.214   8.654   6.118  0.6060  1.1446  1.0776
18802SOL    HW263647  10.098   8.752   6.119  0.4668  0.9872  0.6545
18803SOL     OW63648   3.988   3.375  11.193 -0.0183 -0.3282 -0.1649
18803SOL    HW163649   3.916   3.364  11.255 -0.4226 -2.9820 -0.9859
18803SOL    HW263650   4.064   3.336  11.237  0.6986  1.4763  0.2579
18804SOL     OW63651  10.758   4.320  11.153 -0.1695 -0.3434  0.7354
18804SOL    HW163652  10.818   4.381  11.111 -0.0510 -0.9657 -0.0190
18804SOL    HW263653  10.674   4.334  11.109 -0.0615 -0.9461  0.3171
18805SOL     OW63654  11.913   1.918   9.684 -0.6200 -0.0409  0.1953
18805SOL    HW163655  11.979   1.910   9.615 -1.5641 -0.9551 -0.6613
18805SOL    HW263656  11.862   1.838   9.677 -0.8372 -0.0899  1.9017
18806SOL     OW63657   1.435   2.589   6.253  0.0541  0.1621 -0.1778
18806SOL    HW163658   1.504   2.638   6.207  0.2766 -2.2961 -2.8154
18806SOL    HW263659   1.483   2.533   6.314  0.0407  1.1839  0.7801
18807SOL     OW63660   3.129   3.317   5.313 -0.2293  0.5577  0.0439
18807SOL    HW163661   3.034   3.326   5.321 -0.1603 -0.0102  2.0028
18807SOL    HW263662   3.165   3.383   5.372  0.5768  0.2225 -0.0558
18808SOL     OW63663  12.494   6.244   0.739 -0.2854 -0.5699  0.2005
18808SOL    HW163664  12.475   6.280   0.652  1.0249  0.0342  0.1482
18808SOL    HW263665  12.407   6.230   0.778 -0.8805 -0.3950 -1.0117
18809SOL     OW63666   8.632   3.589   5.272  0.1696 -0.6515  0.4140
18809SOL    HW163667   8.552   3.585   5.325  0.5824 -2.0485  0.9757
18809SOL    HW263668   8.601   3.598   5.182 -0.5514  1.6143  0.8218
18810SOL     OW63669   7.712   8.230   5.593 -0.1513 -0.0587 -0.1920
18810SOL    HW163670   7.693   8.280   5.514 -0.9056  0.9363  0.5982
18810SOL    HW263671   7.806   8.210   5.588 -0.1632  0.1331 -1.2435
18811SOL     OW63672  11.590   2.857   5.058 -0.0078 -0.1729 -0.2575
18811SOL    HW163673  11.579   2.893   5.146 -2.2165  1.9847 -1.2612
18811SOL    HW263674  11.655   2.914   5.016  1.8657 -1.8623  0.2365
18812SOL     OW63675   3.063   6.158  10.901 -0.1312  0.5183  0.3527
18812SOL    HW163676   3.088   6.243  10.866  1.6513 -0.1223 -0.0303
18812SOL    HW263677   3.067   6.168  10.996  0.0027  0.8823  0.3081
18813SOL     OW63678  10.804   4.194  12.206 -0.2682  0.3241  0.3897
18813SOL    HW163679  10.789   4.243  12.125 -2.9541  2.5049  2.0436
18813SOL    HW263680  10.762   4.110  12.191 -0.6995  0.6841 -0.5037
18814SOL     OW63681  11.119   5.113   7.244  0.2090  0.1010  0.8505
18814SOL    HW163682  11.138   5.168   7.320 -0.0648  0.9400  0.3234
18814SOL    HW263683  11.089   5.174   7.176 -0.1895 -0.7062  0.2773
18815SOL     OW63684   0.716   0.570   6.418  0.4028 -0.3097 -0.4093
18815SOL    HW163685   0.659   0.617   6.478  2.1083  1.2340  0.0865
18815SOL    HW263686   0.707   0.478   6.444  1.3518  0.3167  2.5500
18816SOL     OW63687  11.619   7.665  11.769  0.1523  0.3064  0.9516
18816SOL    HW163688  11.549   7.608  11.740 -1.0076  2.1063  0.0671
18816SOL    HW263689  11.637   7.722  11.695  1.5082  0.8917  1.6845
18817SOL     OW63690   6.723   0.779   8.143 -0.2505  0.3155 -0.1703
18817SOL    HW163691   6.678   0.863   8.129  1.2733  0.9723 -1.3019
18817SOL    HW263692   6.812   0.803   8.167  0.0296 -0.9881  0.1676
18818SOL     OW63693   2.815   2.326   0.112  0.1286 -0.1825 -0.2146
18818SOL    HW163694   2.744   2.358   0.167  0.2042  1.8339 -1.1600
18818SOL    HW263695   2.806   2.231   0.112 -2.8306  0.0217 -0.6377
18819SOL     OW63696   0.079   4.960  11.061  0.1723 -0.6144  0.2205
18819SOL    HW163697   0.127   5.041  11.081 -0.4450 -0.2050  0.0641
18819SOL    HW263698   0.138   4.911  11.004  0.5225 -0.2424  0.2553
18820SOL     OW63699   0.639   1.853  12.426  0.4939  0.0833  0.3300
18820SOL    HW163700   0.581   1.828  12.497 -0.0546 -0.4950 -0.3013
18820SOL    HW263701   0.594   1.925  12.382 -1.1910 -2.1123 -1.8487
18821SOL     OW63702   5.737  11.940   4.582  0.1627 -0.1590  0.0892
18821SOL    HW163703   5.690  11.917   4.663  0.8736 -0.9044  0.3090
18821SOL    HW263704   5.829  11.924   4.603  0.2145 -2.4744 -1.5140
18822SOL     OW63705   2.218   2.420   5.690  0.5833 -0.2715 -0.5980
18822SOL    HW163706   2.146   2.463   5.737  0.9354  0.5226 -0.7625
18822SOL    HW263707   2.181   2.399   5.604  0.5075  0.0441 -0.6466
18823SOL     OW63708   1.016   5.224  12.533 -0.0016  0.2170  0.0437
18823SOL    HW163709   1.104   5.189  12.517 -0.5165 -0.8530 -0.5611
18823SOL    HW263710   1.024   5.318  12.515  0.9938  0.1203 -0.0792
18824SOL     OW63711   5.304   2.204  11.666 -0.1593 -0.1419 -0.0930
18824SOL    HW163712   5.258   2.258  11.601 -1.7650 -2.1911 -0.7397
18824SOL    HW263713   5.266   2.229  11.750 -0.2605  0.3408 -0.2793
18825SOL     OW63714   1.278   3.821  11.054  0.1394 -0.0921  0.2978
18825SOL    HW163715   1.369   3.794  11.069 -0.1136 -0.3126  1.4611
18825SOL    HW263716   1.269   3.902  11.104  0.6087  1.7399 -2.3800
18826SOL     OW63717  10.654  12.652   5.943 -0.0453 -0.1718  0.2892
18826SOL    HW163718  10.657  12.564   5.980 -0.4329  0.0202  0.7979
18826SOL    HW263719  10.634  12.709   6.018 -1.2146  0.1888 -0.2706
18827SOL     OW63720   3.066   0.982   9.584 -0.4460  0.3599  0.4378
18827SOL    HW163721   3.134   0.948   9.643 -0.1383  0.8206  0.3574
18827SOL    HW263722   3.030   1.057   9.631  0.6369  1.4833 -0.4520
18828SOL     OW63723   7.806   9.747   1.099 -0.5411  0.3202 -0.0692
18828SOL    HW163724   7.890   9.770   1.060  0.7304 -1.9320  1.1429
18828SOL    HW263725   7.805   9.793   1.183 -1.8702  2.6172 -1.2423
18829SOL     OW63726   1.692   0.242   6.684  0.2292  0.3226  0.3378
18829SOL    HW163727   1.768   0.265   6.736  1.0037 -0.5359 -0.3817
18829SOL    HW263728   1.648   0.325   6.667  1.3892  0.9208  0.1862
18830SOL     OW63729   0.452   7.888   9.823 -0.4819 -0.2366 -0.5799
18830SOL    HW163730   0.460   7.948   9.897 -0.5543 -0.1780 -0.6197
18830SOL    HW263731   0.535   7.898   9.775  0.4535 -1.7721  0.5999
18831SOL     OW63732  11.369   5.447  10.670 -0.1236  0.3354 -0.1880
18831SOL    HW163733  11.385   5.415  10.759 -0.8760 -1.4898 -0.6678
18831SOL    HW263734  11.455   5.444  10.627 -0.0744 -0.4900 -0.0378
18832SOL     OW63735   1.338   2.445   5.808 -0.2385 -0.0224  0.4770
18832SOL    HW163736   1.368   2.386   5.878 -1.3548 -0.7234  0.3835
18832SOL    HW263737   1.417   2.492   5.782  0.4555 -0.6617  1.3411
18833SOL     OW63738   5.057   6.360   9.464 -0.4004 -0.2352 -0.1906
18833SOL    HW163739   5.126   6.318   9.413  1.1030  1.6307  0.2212
18833SOL    HW263740   5.073   6.331   9.554  1.1002  1.7009  0.2141
18834SOL     OW63741   5.000  12.310   3.106 -0.2536 -0.1564 -0.1693
18834SOL    HW163742   5.010  12.219   3.131  0.4984  0.1552  0.7058
18834SOL    HW263743   4.906  12.327   3.115 -0.2596 -0.5715  0.6345
18835SOL     OW63744  11.910   8.205   5.794 -0.1574  0.4465  0.1675
18835SOL    HW163745  11.944   8.193   5.705 -0.2065 -2.0744  0.3910
18835SOL    HW263746  11.829   8.253   5.783 -2.8328 -3.8873 -1.9236
18836SOL     OW63747   0.245  11.422  11.148 -0.1802  0.7332 -0.4400
18836SOL    HW163748   0.227  11.512  11.177  2.3094  1.0377  0.4088
18836SOL    HW263749   0.237  11.369  11.227  1.9808  0.8456 -0.0687
18837SOL     OW63750   4.729  10.087   4.701  0.2693  0.0770 -0.1766
18837SOL    HW163751   4.661  10.132   4.652  1.0160  1.0909 -0.2995
18837SOL    HW263752   4.789  10.054   4.635  0.0416 -0.6077 -0.0543
18838SOL     OW63753   3.381   4.861   5.148 -0.5746  0.0566 -0.5566
18838SOL    HW163754   3.443   4.872   5.221 -2.1015  1.2893  0.6054
18838SOL    HW263755   3.323   4.791   5.177  0.8633 -1.9247 -2.1374
18839SOL     OW63756   0.908   6.554   6.965  0.2297  0.4726 -0.6647
18839SOL    HW163757   0.922   6.575   6.872  1.9124  0.0579 -0.5470
18839SOL    HW263758   0.933   6.634   7.011 -3.0198  1.6068 -0.5891
18840SOL     OW63759   6.482   0.404  10.710 -0.4320  0.1061 -0.3157
18840SOL    HW163760   6.402   0.388  10.759 -1.3959  1.1826 -1.4696
18840SOL    HW263761   6.520   0.482  10.751 -0.6228  0.3047 -0.5074
18841SOL     OW63762   2.569   6.832  12.660  0.0001  0.1809  0.4353
18841SOL    HW163763   2.481   6.810  12.627 -0.1015  2.2488 -0.8488
18841SOL    HW263764   2.622   6.840  12.580  0.8362  1.0078  1.0606
18842SOL     OW63765   4.448   9.489   9.431  0.0827  0.0168 -0.2126
18842SOL    HW163766   4.376   9.523   9.377  0.3880  0.4589 -0.3362
18842SOL    HW263767   4.456   9.552   9.502  0.8001  0.3332 -0.5680
18843SOL     OW63768   0.115   5.231   2.286 -0.1840 -0.0870  0.3947
18843SOL    HW163769   0.030   5.203   2.319 -0.1368 -2.1700 -1.0118
18843SOL    HW263770   0.098   5.257   2.195  0.4983  0.6202  0.4594
18844SOL     OW63771  10.929   4.312   2.654 -0.6190  0.1345  0.1082
18844SOL    HW163772  10.903   4.220   2.647  0.0096  0.0197 -1.0581
18844SOL    HW263773  10.911   4.348   2.568 -2.4491  1.5703  1.0448
18845SOL     OW63774   9.619   5.672   8.884 -0.0280 -0.6017  0.2253
18845SOL    HW163775   9.670   5.738   8.838  2.2250 -1.3100  1.5510
18845SOL    HW263776   9.579   5.620   8.814  0.0288  0.7371 -0.8424
18846SOL     OW63777  10.594   1.113   2.759 -0.2000 -0.3454  0.7253
18846SOL    HW163778  10.613   1.206   2.749 -0.0137 -0.3318  1.1700
18846SOL    HW263779  10.501   1.109   2.781 -0.1429 -0.2468  0.9805
18847SOL     OW63780   7.562   2.059   3.995  0.2064 -0.4930  0.7604
18847SOL    HW163781   7.591   1.973   4.023  1.1150 -0.3037  0.4481
18847SOL    HW263782   7.527   2.045   3.907  1.2463 -0.4043  0.3133
18848SOL     OW63783   5.029   6.425   6.181  0.1503 -0.0513  0.4399
18848SOL    HW163784   5.040   6.336   6.214  3.1398 -1.0931 -2.8115
18848SOL    HW263785   5.112   6.468   6.198 -0.3078  1.2611 -0.4427
18849SOL     OW63786   0.981   1.393   0.631  0.0102  0.0941 -0.0496
18849SOL    HW163787   0.965   1.466   0.571  0.6149  1.2470  1.1514
18849SOL    HW263788   0.905   1.394   0.690 -0.6242 -1.0854 -0.8185
18850SOL     OW63789   2.905  12.235   2.596 -0.2011  0.2317  0.1470
18850SOL    HW163790   2.828  12.241   2.540  0.0449  0.5296 -0.1708
18850SOL    HW263791   2.979  12.244   2.535  0.1245 -1.3576  0.2712
18851SOL     OW63792   7.141  11.200   2.879 -0.0553  0.0959 -0.4312
18851SOL    HW163793   7.078  11.140   2.920  0.5221  0.3150  0.8095
18851SOL    HW263794   7.088  11.251   2.818 -0.9060 -0.3749 -0.1068
18852SOL     OW63795   5.936   3.653  12.196 -0.1852 -0.0561  0.3167
18852SOL    HW163796   6.013   3.597  12.208  1.0498  1.4163 -0.3652
18852SOL    HW263797   5.958   3.734  12.242 -1.6951  0.0957  0.8010
18853SOL     OW63798   6.684   2.976   3.211 -0.2174 -0.2030  0.6050
18853SOL    HW163799   6.664   3.068   3.223 -0.1198 -0.0092 -0.6273
18853SOL    HW263800   6.613   2.942   3.156 -0.9457 -1.1816  2.0707
18854SOL     OW63801   6.086   7.568   0.583  0.0807  0.5251 -0.0284
18854SOL    HW163802   6.062   7.481   0.553  0.7593  0.0233  0.8263
18854SOL    HW263803   6.024   7.627   0.540 -1.2387 -0.4978  0.4436
18855SOL     OW63804   4.914   9.466   9.030  0.0494  0.0519  0.1008
18855SOL    HW163805   4.989   9.493   8.977  0.7825  0.7130  1.4279
18855SOL    HW263806   4.904   9.536   9.095 -0.2668 -1.1518  1.3867
18856SOL     OW63807  12.503  11.176  12.387 -0.1857  0.1697  0.8171
18856SOL    HW163808  12.424  11.218  12.421  0.4510  1.6933  0.5420
18856SOL    HW263809  12.574  11.218  12.436  0.5159 -0.2111  0.1368
18857SOL     OW63810   0.751  10.595  11.472 -0.2227  0.1816 -0.0126
18857SOL    HW163811   0.711  10.523  11.521  1.1335 -0.6046  0.0065
18857SOL    HW263812   0.713  10.589  11.384  0.0954 -0.7689 -0.0988
18858SOL     OW63813   0.897  11.407   2.918  0.3562 -0.0482  0.1415
18858SOL    HW163814   0.828  11.361   2.871  0.9880  0.5171 -1.3795
18858SOL    HW263815   0.956  11.337   2.947  0.1404 -0.3815 -0.2065
18859SOL     OW63816  10.978   4.472   8.880  0.1034  0.1515  0.0742
18859SOL    HW163817  10.914   4.402   8.886 -0.6039  0.8756  2.9344
18859SOL    HW263818  11.059   4.434   8.913 -0.1373  0.4672  1.0794
18860SOL     OW63819   4.671  12.185  10.897  0.3407 -0.1801 -0.6580
18860SOL    HW163820   4.599  12.165  10.956 -0.5171 -1.2135 -1.9873
18860SOL    HW263821   4.676  12.280  10.896 -0.2858 -0.1257  0.2800
18861SOL     OW63822   3.262  12.697  12.351  0.3048 -0.0372 -0.0778
18861SOL    HW163823   3.168  12.686  12.356  0.2884  0.1345 -0.0120
18861SOL    HW263824   3.282  12.770  12.410  0.4132  0.2818 -0.4976
18862SOL     OW63825   0.425  10.004  11.625 -0.1725 -0.0797 -0.5834
18862SOL    HW163826   0.384  10.058  11.693 -1.4567 -0.1763 -1.2515
18862SOL    HW263827   0.478   9.941  11.673 -1.1265 -0.2089  0.3321
18863SOL     OW63828   6.272   9.974   5.631 -0.0278 -0.4662  0.1008
18863SOL    HW163829   6.177   9.966   5.623 -0.3624 -0.2530  2.8121
18863SOL    HW263830   6.303   9.884   5.641 -0.1244 -0.4498  0.5696
18864SOL     OW63831   8.551   7.545   3.979 -0.1808 -0.0578  0.5661
18864SOL    HW163832   8.494   7.614   4.013  1.1850  0.4579  1.9777
18864SOL    HW263833   8.514   7.464   4.013  0.1426  0.3111  1.8819
18865SOL     OW63834   7.370   3.806  12.013  0.4682  0.3925 -0.2283
18865SOL    HW163835   7.412   3.891  12.026  0.9777  0.1399 -0.2009
18865SOL    HW263836   7.442   3.747  11.990  0.0471  0.0803 -0.7662
18866SOL     OW63837  10.516   3.489   5.717 -0.3468  0.3649  0.2940
18866SOL    HW163838  10.497   3.470   5.809 -0.4268 -1.0742  0.0059
18866SOL    HW263839  10.610   3.510   5.716  0.4039 -2.4868  0.3728
18867SOL     OW63840  12.285   2.170   1.131 -0.2393 -0.2928 -0.0657
18867SOL    HW163841  12.197   2.180   1.165 -0.4121 -0.7033 -0.3860
18867SOL    HW263842  12.327   2.254   1.148 -0.9902  0.2401 -0.7911
18868SOL     OW63843   6.378   8.204  10.289 -0.1604  0.1103  0.3485
18868SOL    HW163844   6.286   8.207  10.315  0.1233 -1.1916  1.5994
18868SOL    HW263845   6.399   8.295  10.265 -1.8563  0.3478 -0.3240
18869SOL     OW63846   2.729  11.488   3.727 -0.0622 -0.5335  0.3935
18869SOL    HW163847   2.648  11.499   3.777 -1.0794 -0.0663 -1.3085
18869SOL    HW263848   2.708  11.422   3.662 -0.1024  1.7910 -2.0997
18870SOL     OW63849  10.678   8.221   2.089  0.5798  0.4234  0.0967
18870SOL    HW163850  10.692   8.190   2.179 -0.0736 -0.3848 -0.0608
18870SOL    HW263851  10.739   8.169   2.036 -0.4819 -0.6096 -0.1626
18871SOL     OW63852  10.319   5.232  10.907  0.0613 -0.2118 -0.2776
18871SOL    HW163853  10.379   5.252  10.978  0.7365 -1.6511 -0.4061
18871SOL    HW263854  10.276   5.151  10.934 -0.9487  0.1517 -0.7351
18872SOL     OW63855   0.491   4.019   3.716  0.2611 -0.1953  0.0951
18872SOL    HW163856   0.395   4.030   3.717  0.1182 -1.0823 -1.0462
18872SOL    HW263857   0.510   3.974   3.798 -0.6808 -2.3777 -0.7794
18873SOL     OW63858  12.116   3.938   1.412 -0.5734  0.6437 -0.2707
18873SOL    HW163859  12.107   4.027   1.445  3.9218  1.1708  0.2190
18873SOL    HW263860  12.172   3.946   1.335  1.4198 -1.8052  0.7803
18874SOL     OW63861   2.206  11.939   0.043  0.1353  0.5613 -0.2943
18874SOL    HW163862   2.244  11.963  -0.042  0.4755  1.8029  0.1946
18874SOL    HW263863   2.246  11.854   0.063  1.5205  1.1283 -0.5038
18875SOL     OW63864   4.204   0.269   1.396 -0.8999  0.5740 -0.2575
18875SOL    HW163865   4.256   0.301   1.470 -2.7068  1.2923  0.7587
18875SOL    HW263866   4.134   0.218   1.436 -0.1649 -1.7116 -1.6771
18876SOL     OW63867   6.390   8.091   7.117 -0.0577 -0.2285  0.2812
18876SOL    HW163868   6.395   8.000   7.087 -1.2888 -0.5014  0.8581
18876SOL    HW263869   6.480   8.123   7.109  0.5035 -1.6436  0.5440
18877SOL     OW63870   4.468  11.650   2.297 -0.3768 -0.1089  0.6661
18877SOL    HW163871   4.465  11.567   2.250 -0.6263 -0.1478  0.7498
18877SOL    HW263872   4.448  11.626   2.388 -0.6052  0.0633  0.6615
18878SOL     OW63873   8.767   4.157  11.060 -0.2999 -0.0508  1.3025
18878SOL    HW163874   8.729   4.244  11.043  0.9099  0.2543 -0.0730
18878SOL    HW263875   8.693   4.097  11.049 -0.7485  0.6561  0.2526
18879SOL     OW63876   8.089   6.336   8.397  0.4942 -0.2153 -0.1472
18879SOL    HW163877   8.164   6.286   8.366  0.1303 -1.2256  0.5689
18879SOL    HW263878   8.045   6.279   8.459 -1.0698  0.2231 -0.7906
18880SOL     OW63879   1.350   0.387  11.349  0.4456 -0.0312 -0.2314
18880SOL    HW163880   1.393   0.354  11.429  0.4551  1.8025  0.5794
18880SOL    HW263881   1.421   0.430  11.301  0.4892 -1.3512 -1.3873
18881SOL     OW63882   0.135   7.538   5.348  0.3145  0.2759 -0.3096
18881SOL    HW163883   0.229   7.536   5.331  0.5585 -0.1826  0.9590
18881SOL    HW263884   0.097   7.481   5.281  1.2266 -1.5221  0.6266
18882SOL     OW63885   8.719   3.036  11.594 -0.3286 -0.6961  0.6465
18882SOL    HW163886   8.811   3.014  11.579 -0.5920 -1.8211  0.5547
18882SOL    HW263887   8.689   3.074  11.511  0.4351  1.1575  1.1730
18883SOL     OW63888   6.878   3.863   2.778 -0.8595 -0.3438  0.1570
18883SOL    HW163889   6.828   3.802   2.724 -1.9966 -0.6484  1.5084
18883SOL    HW263890   6.823   3.879   2.854  0.0421  1.2624  0.5271
18884SOL     OW63891   9.299   3.324   4.045  0.1743 -0.0036  0.3455
18884SOL    HW163892   9.205   3.318   4.060  0.2103 -0.9597  0.2947
18884SOL    HW263893   9.334   3.359   4.127 -0.2693  0.8083  0.1908
18885SOL     OW63894   2.670   2.519  10.680  0.8631  0.2256  0.1980
18885SOL    HW163895   2.675   2.580  10.753 -0.1969  2.1350 -1.2388
18885SOL    HW263896   2.759   2.515  10.646  0.8742  1.3023  0.0734
18886SOL     OW63897   4.482  10.340   3.549  0.6505 -0.1961  0.5091
18886SOL    HW163898   4.446  10.257   3.580 -1.9754  0.5567 -0.2319
18886SOL    HW263899   4.500  10.325   3.457 -1.3086  0.3909 -0.0333
18887SOL     OW63900   1.979   2.552  11.145 -0.1291 -0.0241 -0.3714
18887SOL    HW163901   2.005   2.528  11.234  0.0716  1.4165 -0.0115
18887SOL    HW263902   2.007   2.479  11.091 -0.0939 -0.8430  0.7225
18888SOL     OW63903   3.405   5.065  11.575 -0.3227  0.4367  0.2866
18888SOL    HW163904   3.476   5.062  11.511  0.3990 -0.2845  1.0898
18888SOL    HW263905   3.389   5.158  11.588  2.2530  0.7650  1.9565
18889SOL     OW63906   4.227  11.742   3.941  0.0670  0.0107  0.0518
18889SOL    HW163907   4.282  11.666   3.921  0.4642 -0.1450  1.6177
18889SOL    HW263908   4.267  11.780   4.019 -1.9323  0.0305  1.1142
18890SOL     OW63909   1.557  10.682  10.659  0.1130 -0.2739 -0.0515
18890SOL    HW163910   1.641  10.697  10.616  0.1274  0.7468  0.3160
18890SOL    HW263911   1.501  10.753  10.628 -0.4621 -0.6433  0.1193
18891SOL     OW63912   3.030   9.527   7.874 -0.1409  0.7073  0.3316
18891SOL    HW163913   3.121   9.554   7.858  0.4184 -0.2123  1.7651
18891SOL    HW263914   2.994   9.596   7.930 -0.1239  0.7447  0.2967
18892SOL     OW63915   1.276  12.656   9.390  0.1541  0.0597 -0.5787
18892SOL    HW163916   1.354  12.672   9.445  0.5970 -0.5978 -0.9918
18892SOL    HW263917   1.222  12.598   9.444 -0.5813  1.3953  0.1595
18893SOL     OW63918   6.094   1.237   2.388 -0.5394 -0.2698 -0.1682
18893SOL    HW163919   6.075   1.279   2.304 -0.0621  1.3679  0.5102
18893SOL    HW263920   6.032   1.164   2.392  0.8916 -1.7971 -2.9084
18894SOL     OW63921   5.913   5.490  11.389  0.0848 -0.2317 -0.0334
18894SOL    HW163922   5.977   5.540  11.339 -0.7514  0.8883 -0.0418
18894SOL    HW263923   5.897   5.543  11.468 -0.1294 -0.9546  0.4222
18895SOL     OW63924   2.392   4.291   4.500 -0.2321 -0.0889 -0.3186
18895SOL    HW163925   2.308   4.279   4.457 -0.1789  0.5935 -0.6269
18895SOL    HW263926   2.422   4.377   4.471  0.1016  0.1162  0.5895
18896SOL     OW63927   6.173  10.879   7.223 -0.0878  0.2954  0.1442
18896SOL    HW163928   6.233  10.827   7.275 -1.8104 -0.9168  1.0420
18896SOL    HW263929   6.156  10.957   7.275  0.8118  0.7350 -0.1995
18897SOL     OW63930   6.816   3.364   0.564 -0.3931 -0.3203 -0.1106
18897SOL    HW163931   6.766   3.444   0.576 -1.0017 -1.0859  3.7351
18897SOL    HW263932   6.762   3.309   0.508 -0.5700  1.3883 -1.6879
18898SOL     OW63933   6.875   8.053   8.386 -0.0053  0.0120 -0.0451
18898SOL    HW163934   6.889   8.145   8.362 -0.3283  0.1064  0.1269
18898SOL    HW263935   6.905   8.046   8.476 -0.2528  0.0200  0.0412
18899SOL     OW63936   6.912   6.591  11.262  0.3007  0.0163 -0.5167
18899SOL    HW163937   6.972   6.534  11.310 -0.7764  0.7117  1.7891
18899SOL    HW263938   6.890   6.542  11.183 -0.1510 -2.5905  1.1106
18900SOL     OW63939   1.555   2.180  11.858 -0.6686 -0.4112  0.8736
18900SOL    HW163940   1.464   2.207  11.870 -0.8531  0.3152 -1.5473
18900SOL    HW263941   1.607   2.251  11.896 -1.1412  0.2614  0.2716
18901SOL     OW63942   6.717   1.836   0.769 -0.2438 -0.6347 -0.5144
18901SOL    HW163943   6.788   1.780   0.798 -0.0023  0.1002  0.3916
18901SOL    HW263944   6.653   1.833   0.841 -0.7752 -0.6853 -0.9807
18902SOL     OW63945   5.486   7.298   9.095  0.1247  0.1236 -0.1775
18902SOL    HW163946   5.499   7.203   9.103 -0.5691  0.0470  0.1709
18902SOL    HW263947   5.462   7.312   9.004  0.2963 -0.0331 -0.2458
18903SOL     OW63948   7.979   2.113   9.994 -0.0319  0.0017 -0.1217
18903SOL    HW163949   8.064   2.090   9.958  0.2035 -0.0104  0.4267
18903SOL    HW263950   7.950   2.034  10.040 -0.1784  0.1191 -0.0095
18904SOL     OW63951   7.906  10.528   5.893  0.1555  0.1231  0.2716
18904SOL    HW163952   7.846  10.587   5.848  0.4676 -0.2199 -0.6117
18904SOL    HW263953   7.880  10.440   5.865  1.7605  0.0123 -1.0451
18905SOL     OW63954   9.879  11.198   5.295 -0.3946 -0.6737  0.0773
18905SOL    HW163955   9.846  11.288   5.298 -0.8879 -0.8269 -0.5039
18905SOL    HW263956   9.973  11.207   5.314 -0.0549  0.1926 -1.7627
18906SOL     OW63957  11.530   0.482   2.524  0.1021 -0.1395 -0.4166
18906SOL    HW163958  11.525   0.562   2.471  0.4545 -0.1162 -0.4128
18906SOL    HW263959  11.449   0.482   2.574 -0.9360 -0.8855 -1.9992
18907SOL     OW63960   2.006   1.470  10.626  0.0602  0.5994 -0.2192
18907SOL    HW163961   2.051   1.496  10.707 -0.2220  1.5186 -0.3474
18907SOL    HW263962   2.071   1.419  10.578 -0.2851 -1.3939  1.3118
18908SOL     OW63963   3.897   9.327   1.510  0.4297  0.3546 -0.0526
18908SOL    HW163964   3.986   9.363   1.506  1.4303 -1.7131  1.6363
18908SOL    HW263965   3.847   9.393   1.557  1.4715  0.8252  0.4315
18909SOL     OW63966   7.902   0.004   2.304 -0.8517 -0.5715  0.3073
18909SOL    HW163967   7.920  -0.015   2.212  0.9733  0.4959  0.4146
18909SOL    HW263968   7.891   0.099   2.308  0.6296 -0.4137  1.4011
18910SOL     OW63969   1.281   2.224   8.673  0.2598 -0.0485 -0.1830
18910SOL    HW163970   1.203   2.226   8.617  0.1948 -0.8298 -0.1337
18910SOL    HW263971   1.263   2.289   8.741 -1.4765 -1.8924  1.2691
18911SOL     OW63972   3.351   8.486   2.761  0.9062  0.2231 -0.0593
18911SOL    HW163973   3.343   8.430   2.685  1.1504  0.4618 -0.2608
18911SOL    HW263974   3.325   8.431   2.835  0.6215  0.0076 -0.3183
18912SOL     OW63975   7.764   8.788   2.015 -0.4154 -0.0995 -0.3802
18912SOL    HW163976   7.746   8.695   2.003 -1.3727  0.0612 -0.3539
18912SOL    HW263977   7.856   8.799   1.992  0.8797 -1.7163  3.3736
18913SOL     OW63978   1.468  12.049   7.586  0.3091 -0.1824 -0.2311
18913SOL    HW163979   1.498  12.020   7.500  1.1827  1.0500 -0.3644
18913SOL    HW263980   1.538  12.106   7.618 -1.0589  1.2810  0.2717
18914SOL     OW63981   4.200  10.264  12.080  0.0947  0.0794 -0.2374
18914SOL    HW163982   4.268  10.221  12.132 -1.2384 -0.1808  1.3737
18914SOL    HW263983   4.131  10.282  12.143 -1.0882  0.8583 -1.7244
18915SOL     OW63984  11.906   6.870  11.477  0.3263  0.8460  0.3827
18915SOL    HW163985  11.917   6.775  11.481 -0.6291  0.7053  0.0099
18915SOL    HW263986  11.963   6.904  11.546  3.4482  0.2666 -1.7024
18916SOL     OW63987   5.116   6.131   1.093  0.3131  0.6647  0.1983
18916SOL    HW163988   5.120   6.143   0.998 -0.0290  0.2994  0.1329
18916SOL    HW263989   5.192   6.177   1.127 -0.0378  1.5450 -0.1847
18917SOL     OW63990   3.999   7.587   5.410  0.0233 -0.3589  0.2293
18917SOL    HW163991   3.977   7.677   5.436 -0.9698 -0.4386 -0.2839
18917SOL    HW263992   3.914   7.543   5.402  0.4922 -1.2867  0.2601
18918SOL     OW63993   8.471  11.484   9.788  0.2907 -0.5011 -0.0221
18918SOL    HW163994   8.528  11.499   9.713 -2.3070 -0.2076 -2.0566
18918SOL    HW263995   8.501  11.547   9.854  1.7198  0.2287 -1.3171
18919SOL     OW63996  10.776  11.938  10.919 -0.1756 -1.0163  0.5163
18919SOL    HW163997  10.702  11.935  10.980 -1.2668 -0.9093 -0.7555
18919SOL    HW263998  10.761  11.866  10.859 -1.4975  1.3315 -2.2010
18920SOL     OW63999   7.607   9.346   9.251 -0.1669 -0.6110 -0.0235
18920SOL    HW164000   7.625   9.268   9.199 -1.7017 -0.0606 -1.4444
18920SOL    HW264001   7.653   9.416   9.204  1.7794 -0.6864  1.6156
18921SOL     OW64002   1.436   5.120  10.329  0.0255  0.3640 -0.0587
18921SOL    HW164003   1.397   5.107  10.416 -1.3924  0.2983 -0.6674
18921SOL    HW264004   1.361   5.138  10.272  0.7381 -1.2176 -1.5998
18922SOL     OW64005   2.048   3.818  12.549  0.2685 -0.3633 -0.1941
18922SOL    HW164006   2.001   3.734  12.547  0.1222 -0.4004  1.8949
18922SOL    HW264007   2.015   3.861  12.629  0.2905  1.7217 -1.2464
18923SOL     OW64008  12.024  12.454   4.277  0.2796  0.1847  0.5551
18923SOL    HW164009  12.082  12.381   4.302 -0.7553 -1.5214 -1.6085
18923SOL    HW264010  12.081  12.514   4.229  0.2238 -2.1148 -2.7273
18924SOL     OW64011   2.471  11.326   4.574  0.4502 -0.2164 -0.0407
18924SOL    HW164012   2.422  11.248   4.599 -0.0912  0.4986  1.2018
18924SOL    HW264013   2.424  11.399   4.615  0.6128  0.8467 -1.6380
18925SOL     OW64014   8.469   3.673   0.937 -0.2049 -0.4527  0.4855
18925SOL    HW164015   8.457   3.593   0.989  0.6424 -0.9473 -0.0513
18925SOL    HW264016   8.395   3.673   0.876 -0.6699 -0.3760  1.0352
18926SOL     OW64017   1.504   1.175   3.295  0.2107  0.4081 -0.1175
18926SOL    HW164018   1.433   1.234   3.318  1.9205  2.0867  1.1374
18926SOL    HW264019   1.460   1.094   3.270 -2.1283  1.2850  0.8462
18927SOL     OW64020   2.191   6.389   7.201  0.2880  0.1026  0.2216
18927SOL    HW164021   2.143   6.471   7.196  0.9915  0.4350 -1.7351
18927SOL    HW264022   2.197   6.370   7.295 -0.1896  2.0892  0.6879
18928SOL     OW64023   7.933  12.036  11.701 -0.0570 -0.3428 -0.2540
18928SOL    HW164024   7.861  12.062  11.643  1.5076 -0.0771 -2.2081
18928SOL    HW264025   7.930  12.098  11.773 -1.1086  0.3595 -0.8747
18929SOL     OW64026   7.689   6.912   6.759 -0.1912  0.3446  0.5027
18929SOL    HW164027   7.635   6.910   6.680 -2.3526 -1.1291  1.9001
18929SOL    HW264028   7.772   6.874   6.733 -0.6476  0.4495 -1.1855
18930SOL     OW64029   0.240   2.503  11.530  0.2564  0.0899 -0.1554
18930SOL    HW164030   0.169   2.562  11.557  0.9788  0.9479 -0.0588
18930SOL    HW264031   0.300   2.559  11.480  0.0866 -0.9670 -1.6102
18931SOL     OW64032  11.142   1.538   9.090 -0.8403 -0.0531  0.2116
18931SOL    HW164033  11.236   1.555   9.089 -0.6713 -0.9086  0.1289
18931SOL    HW264034  11.135   1.443   9.077 -1.5920 -0.4663  3.0018
18932SOL     OW64035   0.703   4.664  11.008 -0.6828 -0.0547 -0.0559
18932SOL    HW164036   0.758   4.612  10.948 -1.4569 -0.3592 -0.5271
18932SOL    HW264037   0.729   4.634  11.095 -0.5254 -0.6391 -0.2913
18933SOL     OW64038   9.621   7.436   0.772 -0.0374  0.1035  0.0450
18933SOL    HW164039   9.686   7.487   0.724 -1.5652  1.9008 -0.1986
18933SOL    HW264040   9.647   7.345   0.756  1.9584  0.7323 -0.6463
18934SOL     OW64041   6.804   7.383   4.843 -0.4541 -0.0697  0.5179
18934SOL    HW164042   6.828   7.390   4.750 -0.9664 -1.0091  0.3061
18934SOL    HW264043   6.853   7.454   4.885 -0.3457  0.4796 -0.4923
18935SOL     OW64044   9.091   7.469   8.920  0.2371  0.0449  0.5315
18935SOL    HW164045   9.019   7.434   8.972  0.0617 -1.7987 -0.8733
18935SOL    HW264046   9.054   7.545   8.875 -1.1111 -1.3399 -0.7858
18936SOL     OW64047   7.500   0.009  12.641  0.0637  0.2553 -0.1641
18936SOL    HW164048   7.530   0.011  12.732 -1.7376  3.2794  0.5377
18936SOL    HW264049   7.488  -0.083  12.621  1.4435 -0.5566  2.3255
18937SOL     OW64050   9.197  11.863   9.355  0.2806  0.0870 -0.2382
18937SOL    HW164051   9.260  11.791   9.359 -1.4469 -1.5593 -0.7389
18937SOL    HW264052   9.153  11.851   9.271 -0.9318  0.9679  0.2384
18938SOL     OW64053   0.233   2.367   6.969 -0.0334  0.6757 -0.2960
18938SOL    HW164054   0.253   2.273   6.971 -0.7082  0.5142 -0.7062
18938SOL    HW264055   0.318   2.410   6.980  0.3547  0.0158 -0.6387
18939SOL     OW64056   0.319   8.341   6.256 -0.0774  1.1656  0.5270
18939SOL    HW164057   0.308   8.285   6.179  1.1824  1.7120 -0.0761
18939SOL    HW264058   0.369   8.416   6.224 -1.0716  2.2835  1.4984
18940SOL     OW64059   6.238   8.913   8.408 -0.6063 -0.4223  0.0453
18940SOL    HW164060   6.323   8.908   8.452 -0.7011 -0.1235  0.2693
18940SOL    HW264061   6.200   8.995   8.439  0.1842  0.8567 -2.0978
18941SOL     OW64062   6.418   2.710   2.219 -0.4024 -0.1177  0.0813
18941SOL    HW164063   6.359   2.717   2.295 -2.6378 -2.6192 -1.2376
18941SOL    HW264064   6.423   2.799   2.185 -0.7450  0.7597  2.1213
18942SOL     OW64065   7.306   0.403   6.790 -1.1966  0.5304 -0.1238
18942SOL    HW164066   7.353   0.458   6.852 -2.8177 -1.1134  2.7888
18942SOL    HW264067   7.286   0.461   6.717  0.4115  2.7257  1.0563
18943SOL     OW64068  12.555  12.496   6.414 -0.7356 -0.1558  0.6741
18943SOL    HW164069  12.534  12.514   6.322 -2.0262  2.5248  1.3827
18943SOL    HW264070  12.549  12.582   6.457  1.9088 -0.9465  2.9227
18944SOL     OW64071   7.482   1.035   1.619 -0.2948  0.2776  0.0758
18944SOL    HW164072   7.559   1.030   1.563 -1.4097  0.4463 -1.5364
18944SOL    HW264073   7.501   1.106   1.680  0.5034  0.8585 -0.8211
18945SOL     OW64074   6.315   3.259   3.659  0.2051 -0.3866 -0.3739
18945SOL    HW164075   6.241   3.238   3.715  0.4575 -0.4968 -0.0807
18945SOL    HW264076   6.278   3.316   3.591  0.1727  0.9217  0.7013
18946SOL     OW64077  12.639  10.115   1.053  0.6058  0.1205  0.6020
18946SOL    HW164078  12.582  10.124   1.130  1.1436  1.8009  0.8329
18946SOL    HW264079  12.616  10.189   0.998  0.4946 -0.8651 -0.7205
18947SOL     OW64080   4.058  12.105   2.650  0.0171  0.3098  0.2117
18947SOL    HW164081   4.092  12.192   2.628  0.5833 -0.1783 -0.9443
18947SOL    HW264082   4.103  12.081   2.731 -1.0933  1.5922  1.2724
18948SOL     OW64083  12.415  11.598   8.211 -0.0762  0.6144 -0.2007
18948SOL    HW164084  12.327  11.634   8.225  0.6480  1.5795  2.3051
18948SOL    HW264085  12.399  11.518   8.161 -2.3671  0.8100  0.0717
18949SOL     OW64086   8.878   5.817   7.157  0.0408  0.2994 -0.3507
18949SOL    HW164087   8.883   5.838   7.064  0.1148 -0.8980 -0.6392
18949SOL    HW264088   8.956   5.764   7.174 -0.7072 -0.7228  0.0311
18950SOL     OW64089   4.598   2.971   0.497  0.1065  0.5766 -0.1553
18950SOL    HW164090   4.517   2.985   0.448  0.2442  0.4286 -0.4247
18950SOL    HW264091   4.634   2.890   0.461  1.0340  1.3085 -0.9380
18951SOL     OW64092   9.971   9.786   2.355 -0.7546  0.1681 -0.0911
18951SOL    HW164093   9.909   9.798   2.427 -1.2211  0.8591 -0.5958
18951SOL    HW264094   9.942   9.847   2.288  0.6988  0.7839 -0.2037
18952SOL     OW64095  10.650   2.697  11.217  0.3643  0.1163 -0.5057
18952SOL    HW164096  10.681   2.787  11.227  1.2437 -0.2174 -0.1452
18952SOL    HW264097  10.708   2.659  11.151  0.7049 -0.5074  0.1444
18953SOL     OW64098   9.437   4.378   2.582 -0.0722  0.2140  0.2244
18953SOL    HW164099   9.417   4.302   2.636 -1.4188 -0.4157 -1.0950
18953SOL    HW264100   9.528   4.365   2.555 -0.4898 -1.3277 -0.5582
18954SOL     OW64101  10.146   9.491   4.030  0.0198  0.0546  0.3626
18954SOL    HW164102  10.155   9.565   4.091 -0.7228 -0.9571  1.7561
18954SOL    HW264103  10.152   9.413   4.085 -3.5862 -0.9105 -0.3142
18955SOL     OW64104   9.994   2.244   7.088  0.4610  0.4221  0.2465
18955SOL    HW164105   9.953   2.235   7.174 -0.3889 -1.0260 -0.2845
18955SOL    HW264106   9.945   2.316   7.046  0.5867  0.8333  0.7939
18956SOL     OW64107   2.179  11.474   9.062  0.2229  0.1998 -0.1033
18956SOL    HW164108   2.168  11.501   9.153 -1.3122  0.8710 -0.4419
18956SOL    HW264109   2.244  11.404   9.064  0.6934  0.6554  1.4139
18957SOL     OW64110   2.391   7.533   0.351 -0.0855 -0.1766 -0.5919
18957SOL    HW164111   2.478   7.514   0.317 -0.2312 -0.8061 -0.6365
18957SOL    HW264112   2.341   7.453   0.333 -0.8809  0.4585 -1.2637
18958SOL     OW64113   9.622   2.036   0.820  0.1033 -0.2264 -0.1713
18958SOL    HW164114   9.630   1.961   0.761 -0.5215 -0.4752  0.0494
18958SOL    HW264115   9.529   2.057   0.819 -0.1201 -0.9642  1.5965
18959SOL     OW64116  10.154  11.833   3.311  0.3475  0.4899 -0.0501
18959SOL    HW164117  10.234  11.816   3.262 -0.4201 -1.3817 -0.7486
18959SOL    HW264118  10.184  11.873   3.393  1.9033  0.5527 -0.6118
18960SOL     OW64119   3.853   8.867   5.720  0.1834  0.5860 -0.2683
18960SOL    HW164120   3.933   8.881   5.669  0.2948  1.7148  0.1956
18960SOL    HW264121   3.784   8.857   5.654  0.7934 -1.1461 -0.6928
18961SOL     OW64122   3.382   5.378  11.467  0.0902  0.5252 -0.4348
18961SOL    HW164123   3.306   5.423  11.430  1.3761  2.0508 -1.2865
18961SOL    HW264124   3.432   5.446  11.512  0.9637 -0.4571  0.1339
18962SOL     OW64125   5.011   1.299  10.994  0.0681  0.3886 -0.1308
18962SOL    HW164126   4.930   1.326  11.036  0.8562  2.7003  0.0548
18962SOL    HW264127   5.005   1.332  10.905  0.6140  0.1887 -0.2479
18963SOL     OW64128   1.693   5.748  10.552  0.1945 -0.1620 -0.0538
18963SOL    HW164129   1.604   5.782  10.558  0.2566  0.2033 -1.0128
18963SOL    HW264130   1.704   5.695  10.631 -0.8649 -0.1943  0.0856
18964SOL     OW64131   4.817   9.255   6.825  0.1097  0.1308  0.0091
18964SOL    HW164132   4.892   9.307   6.798  0.0504  0.7970  1.0745
18964SOL    HW264133   4.850   9.198   6.894 -0.5079  0.9274  0.9789
18965SOL     OW64134  12.451   8.168   7.964  0.0369  0.6453 -0.7665
18965SOL    HW164135  12.390   8.111   8.011  1.3700 -0.1206  0.1103
18965SOL    HW264136  12.537   8.129   7.980  0.6664  1.0453 -2.9004
18966SOL     OW64137   2.279   7.852   0.522  0.1491 -0.0416 -0.4365
18966SOL    HW164138   2.289   7.914   0.450  0.9297  0.1348 -0.1840
18966SOL    HW264139   2.280   7.906   0.601 -0.2254 -0.2800 -0.2639
18967SOL     OW64140  12.104   9.208  11.293 -0.3298  0.1645 -0.3713
18967SOL    HW164141  12.015   9.173  11.287 -0.2872  0.1728 -1.2090
18967SOL    HW264142  12.093   9.297  11.326 -0.5437 -0.1900  0.5219
18968SOL     OW64143  11.518   8.846   0.549 -0.1605 -0.2019 -0.0140
18968SOL    HW164144  11.427   8.829   0.572 -0.8668  2.0693 -0.8592
18968SOL    HW264145  11.533   8.937   0.573  0.7112  0.6541 -3.2304
18969SOL     OW64146  12.198   7.030   7.624 -0.7489  0.3892  0.1593
18969SOL    HW164147  12.122   6.993   7.579  0.0579 -2.5559  0.9741
18969SOL    HW264148  12.170   7.117   7.651 -2.7101  0.6219 -2.2505
18970SOL     OW64149   8.788  10.658   5.114 -0.5653 -0.3163  0.6668
18970SOL    HW164150   8.801  10.618   5.028  2.0020  0.6794  0.4917
18970SOL    HW264151   8.766  10.750   5.095  1.1794  0.2128  0.9948
18971SOL     OW64152   0.819   7.589   2.013  0.6718 -0.0199  0.5535
18971SOL    HW164153   0.835   7.667   1.959 -0.0950 -0.3411 -0.1608
18971SOL    HW264154   0.886   7.593   2.082  0.7335  1.1955  0.4476
18972SOL     OW64155   5.346   0.301   4.598  0.2297 -0.2419 -0.1126
18972SOL    HW164156   5.299   0.248   4.661  1.7461 -0.1988  1.1250
18972SOL    HW264157   5.370   0.241   4.528 -0.9484 -0.4272 -0.3664
18973SOL     OW64158  10.844   0.133   4.264 -0.1046 -0.0138  0.4348
18973SOL    HW164159  10.763   0.185   4.267 -1.2886 -1.6256 -1.1040
18973SOL    HW264160  10.832   0.067   4.332  0.0949 -0.0188  0.4654
18974SOL     OW64161   4.728   7.729  12.437 -0.1519 -0.7708 -0.0458
18974SOL    HW164162   4.649   7.731  12.491 -0.1407  2.8340  0.0724
18974SOL    HW264163   4.799   7.708  12.498 -0.2086  2.7209  1.4396
18975SOL     OW64164   3.697   2.463   2.155 -0.1970 -0.1537  0.2589
18975SOL    HW164165   3.616   2.456   2.104 -0.9652  2.1916  1.0708
18975SOL    HW264166   3.670   2.448   2.245 -0.2030  2.7440  0.8192
18976SOL     OW64167   1.739   6.257  11.975  0.0135  0.4613  0.1677
18976SOL    HW164168   1.724   6.168  11.942  0.0209  0.7497 -0.6390
18976SOL    HW264169   1.669   6.309  11.937  0.4781  0.9566 -0.0220
18977SOL     OW64170   4.874  11.271  10.615  0.0692 -0.4954 -0.2354
18977SOL    HW164171   4.900  11.362  10.605 -2.3339  0.1774 -1.1776
18977SOL    HW264172   4.933  11.223  10.557  1.6704  0.3642  0.6288
18978SOL     OW64173   9.515  10.126   9.693 -0.0201  0.1872  0.1032
18978SOL    HW164174   9.536  10.215   9.723  1.2656 -0.1389  0.2185
18978SOL    HW264175   9.476  10.139   9.606  1.6851  0.7994 -0.6230
18979SOL     OW64176  10.603   3.575   8.606 -0.4367 -0.1524 -0.3362
18979SOL    HW164177  10.659   3.540   8.537  0.4460 -0.7383  0.6469
18979SOL    HW264178  10.631   3.667   8.615  0.9289 -0.6325  0.6541
18980SOL     OW64179   2.729   6.203   0.361  0.6605  0.2087 -0.1957
18980SOL    HW164180   2.693   6.187   0.448 -1.1544 -2.8549 -1.3313
18980SOL    HW264181   2.735   6.298   0.354  0.2002  0.5571  2.9735
18981SOL     OW64182  10.618   0.421   4.988 -0.4424 -0.2571  0.3925
18981SOL    HW164183  10.686   0.481   5.019  0.0885 -1.6996  2.2019
18981SOL    HW264184  10.555   0.417   5.061 -2.3014  0.7220 -1.0807
18982SOL     OW64185   0.100  11.655   6.302 -0.1903  0.6207 -0.9590
18982SOL    HW164186   0.005  11.641   6.306 -0.3766  1.8023 -0.7235
18982SOL    HW264187   0.121  11.697   6.385  1.2660 -3.2565  0.8989
18983SOL     OW64188  12.176   5.578  12.308  0.2204 -0.4545  0.1126
18983SOL    HW164189  12.204   5.646  12.370  0.9685 -0.1589 -0.5204
18983SOL    HW264190  12.087   5.557  12.333  0.1527  0.4164  0.6361
18984SOL     OW64191   9.433  10.658   1.404 -0.5463 -0.3468 -0.3963
18984SOL    HW164192   9.380  10.736   1.389 -0.5464 -0.1309  0.6478
18984SOL    HW264193   9.505  10.687   1.460  0.8948 -0.5679 -2.0290
18985SOL     OW64194   5.276   0.888   5.752 -0.2069  0.2767  0.1829
18985SOL    HW164195   5.249   0.837   5.829  1.4598  1.0092  1.3147
18985SOL    HW264196   5.324   0.826   5.698 -0.1074  0.1079  0.4603
18986SOL     OW64197   2.381  12.111   8.396  0.6393 -0.0188 -0.0495
18986SOL    HW164198   2.457  12.053   8.393  0.6902  0.0018  0.6822
18986SOL    HW264199   2.417  12.198   8.382  0.3347 -0.2970 -3.2051
18987SOL     OW64200  11.194   8.674   5.727  0.1345  0.1839  0.0246
18987SOL    HW164201  11.180   8.704   5.638  0.0473 -1.3202 -0.5054
18987SOL    HW264202  11.137   8.598   5.736  1.3275 -0.6706  0.8050
18988SOL     OW64203   2.921   0.992   1.391  0.2356  0.4942  0.3171
18988SOL    HW164204   2.831   0.960   1.386  0.0989  0.7638  0.9281
18988SOL    HW264205   2.952   0.992   1.300 -0.4969  0.7264  0.0594
18989SOL     OW64206   3.079  12.596  10.275  0.4453 -0.9026 -0.3248
18989SOL    HW164207   3.065  12.502  10.265  1.4074 -1.0979  0.0319
18989SOL    HW264208   3.165  12.603  10.317  1.1565  0.1725 -1.8526
18990SOL     OW64209   7.852   9.562  11.791  0.0048 -0.1076 -0.7036
18990SOL    HW164210   7.802   9.639  11.819 -1.4934 -0.5223 -2.1056
18990SOL    HW264211   7.833   9.554  11.698  2.6449 -0.3763 -1.3044
18991SOL     OW64212   8.079   2.058   5.405  0.2042  0.0405 -0.0399
18991SOL    HW164213   8.111   1.993   5.342  3.2104  0.9079  0.4408
18991SOL    HW264214   8.103   2.023   5.490 -0.2607  0.7032  0.3750
18992SOL     OW64215   1.040   6.069   9.263 -0.3928 -0.7272 -0.1261
18992SOL    HW164216   1.010   6.110   9.344  2.2160 -1.0635  1.1164
18992SOL    HW264217   1.050   5.976   9.285  2.9187 -0.4244  0.1119
18993SOL     OW64218   8.793   6.121   5.584 -0.3765 -0.0593 -0.0647
18993SOL    HW164219   8.718   6.136   5.527  1.2498  2.2259 -1.7828
18993SOL    HW264220   8.866   6.103   5.525  1.0837  0.8707  1.3471
18994SOL     OW64221   8.071   7.784   2.443  0.1596  0.1848 -0.1159
18994SOL    HW164222   8.138   7.845   2.472  0.1940 -0.4573  1.2057
18994SOL    HW264223   8.089   7.771   2.349  1.4349  0.5582  0.0602
18995SOL     OW64224   5.708   1.654   6.453  0.8878  0.4843 -0.2090
18995SOL    HW164225   5.634   1.619   6.504  0.7679  0.9214 -0.0799
18995SOL    HW264226   5.721   1.742   6.488  1.7319  0.2708  0.0425
18996SOL     OW64227   5.642   6.253   0.788 -0.2558  0.1781  0.2754
18996SOL    HW164228   5.576   6.262   0.856 -0.1784  0.9817  0.2597
18996SOL    HW264229   5.718   6.216   0.833  0.2770  2.0048  0.9685
18997SOL     OW64230   9.422   7.355   8.354 -0.4490  0.4706 -0.2920
18997SOL    HW164231   9.382   7.325   8.436  2.0321  0.7001  1.1246
18997SOL    HW264232   9.501   7.301   8.346 -1.0147 -0.0801 -3.0047
18998SOL     OW64233  10.588   9.347   8.238 -0.2733  0.1456  0.0630
18998SOL    HW164234  10.587   9.268   8.291 -0.4062 -0.4762 -0.8535
18998SOL    HW264235  10.632   9.412   8.293  1.7942 -1.1452  0.0147
18999SOL     OW64236  12.231   1.691  11.072 -0.7358  0.6580  0.3073
18999SOL    HW164237  12.250   1.633  11.145  0.1318 -0.1914 -0.5739
18999SOL    HW264238  12.162   1.647  11.022  0.0026  0.3073 -0.4272
19000SOL     OW64239   3.865  12.299  11.920  0.0119  0.1665  0.2492
19000SOL    HW164240   3.815  12.370  11.961 -1.1032 -1.0574  1.0675
19000SOL    HW264241   3.950  12.339  11.899 -0.6180  1.7608  0.6001
19001SOL     OW64242  11.167   2.307   4.141  0.7667 -0.3014 -0.1208
19001SOL    HW164243  11.193   2.399   4.147 -1.7745  0.4564  0.7937
19001SOL    HW264244  11.169   2.276   4.232  2.5248 -1.4825 -0.5237
19002SOL     OW64245   6.933   6.329   3.696  0.2004 -0.0314  0.3598
19002SOL    HW164246   6.925   6.424   3.689 -1.7807  0.0290  2.4243
19002SOL    HW264247   6.849   6.296   3.667  0.4009 -1.0746  0.9277
19003SOL     OW64248   8.017   6.887   2.519 -0.1410 -0.0368  0.0230
19003SOL    HW164249   8.021   6.960   2.458 -1.5674 -0.0920 -0.1788
19003SOL    HW264250   7.989   6.812   2.466 -0.9369 -0.1921  0.6338
19004SOL     OW64251   4.160   4.698   6.413  1.1008  0.0557  0.0103
19004SOL    HW164252   4.222   4.768   6.394  0.5714  1.4366  2.8728
19004SOL    HW264253   4.205   4.642   6.475  0.6449 -0.8177 -0.4321
19005SOL     OW64254   7.438   1.390  10.884 -0.3329 -0.2277  0.3542
19005SOL    HW164255   7.376   1.431  10.824 -0.9229 -0.7793  0.5846
19005SOL    HW264256   7.475   1.463  10.934  0.2308  0.2505 -0.7179
19006SOL     OW64257   4.097   4.974   8.334 -0.0447 -0.2210  0.6494
19006SOL    HW164258   4.058   4.889   8.355 -1.0659  0.0549 -0.0331
19006SOL    HW264259   4.186   4.953   8.306 -0.2043 -1.0407  0.7137
19007SOL     OW64260  11.307   5.220   7.806  0.4852  0.1011 -0.0176
19007SOL    HW164261  11.276   5.134   7.835  0.9097  0.1544  0.6220
19007SOL    HW264262  11.292   5.276   7.882 -0.3078  0.7263 -0.6176
19008SOL     OW64263   7.168   3.912  11.215 -0.2330  0.2761  0.9352
19008SOL    HW164264   7.141   3.983  11.273 -0.0158  1.0162  0.1552
19008SOL    HW264265   7.262   3.900  11.232  0.0096  1.0321  0.1976
19009SOL     OW64266  10.071   7.492   4.873  0.0241 -0.0686 -0.4274
19009SOL    HW164267  10.022   7.418   4.836 -0.8237  0.5491 -0.5668
19009SOL    HW264268  10.004   7.554   4.899  0.5468 -0.5633  2.4332
19010SOL     OW64269   7.579   3.427   0.646 -0.1052 -0.3541 -0.1612
19010SOL    HW164270   7.546   3.365   0.711  0.0974 -0.9558 -0.6131
19010SOL    HW264271   7.645   3.478   0.692  0.3834 -1.0986 -0.0129
19011SOL     OW64272   7.137  11.487   6.127  0.3747  0.4627 -0.6228
19011SOL    HW164273   7.084  11.548   6.077  0.7704  1.0435 -0.3495
19011SOL    HW264274   7.202  11.455   6.065  0.5647  0.8134 -0.6067
19012SOL     OW64275   6.597  11.080   2.694 -0.5284 -0.0488 -0.1448
19012SOL    HW164276   6.579  11.139   2.621  0.0576  0.0394 -0.2244
19012SOL    HW264277   6.518  11.083   2.748 -0.4916  0.8428 -0.1311
19013SOL     OW64278   1.692   1.914   0.389  0.0129  0.1133  0.1425
19013SOL    HW164279   1.605   1.891   0.358 -0.2522  0.3275  0.7225
19013SOL    HW264280   1.749   1.901   0.313 -0.7445  1.4263 -0.6947
19014SOL     OW64281  12.575   8.864   5.415 -0.2518 -0.5009  0.0800
19014SOL    HW164282  12.480   8.853   5.411 -0.4422  0.7425  0.7439
19014SOL    HW264283  12.604   8.853   5.324 -1.1334 -0.1519 -0.2571
19015SOL     OW64284   2.765   0.156   5.158  0.5014 -0.5179  0.0708
19015SOL    HW164285   2.763   0.233   5.102  1.6034  0.1980  0.9670
19015SOL    HW264286   2.735   0.188   5.243  1.7912 -0.8393  0.6793
19016SOL     OW64287   4.576   9.800  10.704 -0.6804 -0.3508  0.2810
19016SOL    HW164288   4.671   9.804  10.695 -0.8337  0.2858 -1.7049
19016SOL    HW264289   4.549   9.890  10.722 -1.0358 -0.0478 -1.5424
19017SOL     OW64290   0.698   3.869   6.566  0.0369  0.3141  0.1358
19017SOL    HW164291   0.744   3.847   6.647  0.6268  0.4961 -0.1446
19017SOL    HW264292   0.725   3.959   6.546  1.0762 -0.2324 -1.0553
19018SOL     OW64293   9.588  10.856   0.270  0.1986  0.2724  0.7384
19018SOL    HW164294   9.673  10.812   0.268  0.8442  1.4194  1.6680
19018SOL    HW264295   9.524  10.786   0.256  1.2542 -0.7118  0.6961
19019SOL     OW64296  11.371   8.725   1.995 -0.1376 -0.3232  0.2597
19019SOL    HW164297  11.293   8.692   1.950  0.2001 -0.9357  0.1083
19019SOL    HW264298  11.424   8.647   2.010  1.0381  0.2388 -0.7983
19020SOL     OW64299   9.707  10.308   5.221 -0.2618  0.6788  0.2328
19020SOL    HW164300   9.783  10.261   5.188 -0.4373  1.2384 -1.0295
19020SOL    HW264301   9.639  10.241   5.229  0.3118  0.1845  1.3268
19021SOL     OW64302  10.223   1.175   5.338 -0.1658 -0.5764  0.1087
19021SOL    HW164303  10.265   1.195   5.422  0.0291 -0.4346 -0.0232
19021SOL    HW264304  10.213   1.080   5.339 -0.6669 -0.5208  0.5298
19022SOL     OW64305   0.557   1.464  10.901 -0.1343 -0.1775  0.0679
19022SOL    HW164306   0.562   1.480  10.807  0.3706 -0.6896  0.0040
19022SOL    HW264307   0.558   1.369  10.909  2.0243 -0.1328  0.7050
19023SOL     OW64308   9.791   5.946  10.001 -0.2363  0.0636 -0.3903
19023SOL    HW164309   9.751   5.967   9.916 -2.3148  0.5482  0.6526
19023SOL    HW264310   9.839   6.024  10.025 -0.5967  0.3541 -0.5993
19024SOL     OW64311   7.011   3.318   6.289  0.0566 -0.1010  0.1453
19024SOL    HW164312   7.059   3.379   6.233 -0.1588 -0.8895 -0.9222
19024SOL    HW264313   7.065   3.239   6.290 -0.4604 -0.4555  0.2048
19025SOL     OW64314  10.170   8.433   4.476 -0.2799  0.4824  0.3348
19025SOL    HW164315  10.093   8.438   4.532 -0.2433  0.1426  0.4212
19025SOL    HW264316  10.211   8.349   4.500 -0.3381  0.2698 -0.2888
19026SOL     OW64317   3.728   0.506   3.666 -0.5572 -0.0386  0.2482
19026SOL    HW164318   3.695   0.419   3.644 -0.5437 -0.0044  0.0882
19026SOL    HW264319   3.672   0.536   3.737  0.4321 -0.8277  1.4099
19027SOL     OW64320   7.837   2.319  10.800 -0.1938  0.2512 -0.1001
19027SOL    HW164321   7.895   2.341  10.728  1.0885  2.3046  1.4295
19027SOL    HW264322   7.886   2.257  10.853  0.2535  1.2379  0.6766
19028SOL     OW64323   5.269   8.286   2.860  0.2030  0.4807  0.4116
19028SOL    HW164324   5.301   8.335   2.785 -0.4649 -0.5271 -0.5598
19028SOL    HW264325   5.251   8.353   2.927  0.3403  1.4409 -0.4967
19029SOL     OW64326   5.131   9.896   5.115 -0.6434 -0.1284  0.5327
19029SOL    HW164327   5.065   9.900   5.046 -1.5576  1.8059  1.4386
19029SOL    HW264328   5.137   9.804   5.139 -0.9568 -0.7058 -1.4816
19030SOL     OW64329   4.325  11.443   5.195  0.5339  0.3531 -0.0160
19030SOL    HW164330   4.298  11.488   5.275 -0.0537  1.8026 -0.9975
19030SOL    HW264331   4.247  11.441   5.140  0.6826 -1.4348 -0.2395
19031SOL     OW64332   8.478   7.662   6.730  0.1862  0.0290  0.0304
19031SOL    HW164333   8.472   7.756   6.743 -0.4715  0.2673 -1.7484
19031SOL    HW264334   8.498   7.627   6.816 -0.2790  1.7272  0.8621
19032SOL     OW64335   3.084   0.105   2.407  0.0246  0.0405 -0.7630
19032SOL    HW164336   3.086   0.049   2.330 -2.0883  0.1043 -0.9070
19032SOL    HW264337   3.006   0.159   2.396 -1.2246 -0.9605  2.0860
19033SOL     OW64338  11.174  12.662   4.524  0.0767  0.0369  0.4570
19033SOL    HW164339  11.156  12.628   4.436 -1.4738  0.6795  0.4918
19033SOL    HW264340  11.220  12.591   4.568 -1.0984 -1.1660 -0.1808
19034SOL     OW64341   4.328   0.721   3.701 -0.4337  0.3742  0.1069
19034SOL    HW164342   4.417   0.719   3.736 -1.0158 -2.1381  1.7202
19034SOL    HW264343   4.301   0.813   3.710  2.2260  1.4128 -1.3116
19035SOL     OW64344   7.245  12.415   5.063  0.3702  0.2642 -0.1714
19035SOL    HW164345   7.172  12.406   5.124 -2.5240  1.0595 -3.1595
19035SOL    HW264346   7.275  12.505   5.075 -0.4627  0.5531 -0.2070
19036SOL     OW64347   6.705  12.442   5.326  0.0351  0.2240  0.4460
19036SOL    HW164348   6.634  12.464   5.266 -0.2559  1.0467  1.0770
19036SOL    HW264349   6.692  12.500   5.401  1.4697  0.5207  0.4963
19037SOL     OW64350   6.261   0.326   7.334  0.1139 -0.1313  0.2554
19037SOL    HW164351   6.245   0.232   7.348  0.9005 -0.1997  0.7116
19037SOL    HW264352   6.315   0.329   7.255 -2.0014  0.1011 -1.2775
19038SOL     OW64353  11.720  10.893   3.804  0.3485 -0.2243 -0.4386
19038SOL    HW164354  11.739  10.986   3.820  0.1248 -0.3582  0.6988
19038SOL    HW264355  11.747  10.879   3.713  1.1418  0.7615 -0.3850
19039SOL     OW64356   4.390   4.321   0.986 -0.3169 -0.3991 -0.0832
19039SOL    HW164357   4.438   4.265   1.046 -2.4317 -0.2939  1.8444
19039SOL    HW264358   4.299   4.290   0.992 -1.2311  2.0221 -0.3409
19040SOL     OW64359   8.677   8.913   9.285 -0.1401  0.1982  0.2563
19040SOL    HW164360   8.725   8.993   9.263 -0.3938  0.4124  0.4734
19040SOL    HW264361   8.640   8.930   9.372 -0.1902 -0.1581  0.3077
19041SOL     OW64362  11.435   9.564   3.940 -0.6688 -0.0744 -0.4555
19041SOL    HW164363  11.469   9.513   4.014  0.3494  1.6522  0.3210
19041SOL    HW264364  11.387   9.636   3.981 -1.6504 -0.1038 -1.5213
19042SOL     OW64365  10.836  10.979   8.268  0.4426 -0.1576 -0.0356
19042SOL    HW164366  10.880  10.976   8.183 -0.6912  0.0245 -0.6489
19042SOL    HW264367  10.839  11.071   8.293  0.1517 -0.0915 -0.2303
19043SOL     OW64368   9.591   1.695   8.376 -0.1216  0.2931 -0.5019
19043SOL    HW164369   9.620   1.609   8.347 -0.2362  0.2877 -0.5996
19043SOL    HW264370   9.614   1.754   8.305  0.1271  0.3749 -0.3555
19044SOL     OW64371   9.003  12.454   2.955  0.9150 -0.0776 -0.2923
19044SOL    HW164372   9.033  12.522   2.896 -2.2884  0.9471 -0.9181
19044SOL    HW264373   8.970  12.501   3.032 -1.2466 -0.8410 -0.6822
19045SOL     OW64374   2.733   6.735   6.915  0.1916  0.5778 -0.2208
19045SOL    HW164375   2.743   6.732   7.010  0.8640 -1.6760 -0.3024
19045SOL    HW264376   2.638   6.733   6.901  0.0626 -2.0829  0.4547
19046SOL     OW64377   5.608   9.854   0.711 -0.1095  0.7025 -0.3049
19046SOL    HW164378   5.579   9.768   0.680  0.5058  0.3699  0.0318
19046SOL    HW264379   5.623   9.904   0.630  1.2971 -0.1024 -0.5858
19047SOL     OW64380   0.619  11.712   5.536  0.2138 -0.6392  0.1302
19047SOL    HW164381   0.695  11.757   5.499 -0.4601 -0.3756 -0.9942
19047SOL    HW264382   0.544  11.751   5.491 -0.6619 -0.3610  1.7494
19048SOL     OW64383  11.331   3.391   2.297 -0.2430  0.2775  0.5050
19048SOL    HW164384  11.396   3.321   2.290  0.2442  0.8836 -1.9759
19048SOL    HW264385  11.249   3.346   2.317 -0.1227 -1.1841 -1.8909
19049SOL     OW64386   6.391   6.318   6.336  0.0785  0.7877 -0.1097
19049SOL    HW164387   6.304   6.358   6.335  0.0056  0.6205 -1.4551
19049SOL    HW264388   6.431   6.351   6.417 -1.3932  0.4911  0.7826
19050SOL     OW64389   3.543  11.376   5.769 -0.1003  0.1098 -0.4946
19050SOL    HW164390   3.635  11.358   5.788  0.3892  2.6663 -0.0699
19050SOL    HW264391   3.546  11.441   5.698 -1.6578 -1.0982 -1.7362
19051SOL     OW64392   7.304   8.815   3.754  0.8660 -0.6431 -0.2393
19051SOL    HW164393   7.319   8.736   3.806  0.1151 -0.8597 -0.3331
19051SOL    HW264394   7.305   8.886   3.818  2.3593 -0.6248 -0.2636
19052SOL     OW64395  11.861   4.851   4.209  0.6251 -0.6973 -0.2537
19052SOL    HW164396  11.883   4.758   4.211  1.8593 -0.4214  1.1959
19052SOL    HW264397  11.766   4.853   4.219  0.5112 -1.8041 -0.9739
19053SOL     OW64398   5.772   9.681  11.845  0.4418 -0.1294 -0.1212
19053SOL    HW164399   5.708   9.752  11.845  0.5275 -0.0529  0.1026
19053SOL    HW264400   5.821   9.694  11.764  0.7843  0.3650  0.1583
19054SOL     OW64401   7.880   5.888   2.309 -0.3096  0.2024 -0.2514
19054SOL    HW164402   7.846   5.800   2.293  2.7096 -1.3958  1.2650
19054SOL    HW264403   7.960   5.894   2.256 -0.1776  1.8355  0.0616
19055SOL     OW64404   0.209   1.978  11.107 -0.1374  0.3022 -0.3444
19055SOL    HW164405   0.184   1.980  11.014 -0.4594 -0.1302 -0.2661
19055SOL    HW264406   0.260   2.059  11.119 -2.2171  1.7028 -0.3007
19056SOL     OW64407   9.649   3.048   0.383  0.0993  0.3776 -0.0398
19056SOL    HW164408   9.634   3.101   0.304  0.9974 -0.5465 -0.8632
19056SOL    HW264409   9.615   2.962   0.360  1.4290 -0.2099  0.1524
19057SOL     OW64410   3.256  12.306   4.538 -0.2953 -0.8823 -0.5941
19057SOL    HW164411   3.338  12.286   4.583 -0.8118 -1.4515  0.1200
19057SOL    HW264412   3.218  12.378   4.588  0.0716 -0.1730 -1.3149
19058SOL     OW64413  12.528   5.896   9.885  0.4986 -0.5402  0.4948
19058SOL    HW164414  12.440   5.918   9.852  0.5215 -0.3951  0.5310
19058SOL    HW264415  12.587   5.918   9.813  0.3175 -2.7339 -0.4130
19059SOL     OW64416   5.836   7.298  10.553 -0.1506  0.4986 -0.4143
19059SOL    HW164417   5.764   7.302  10.491  1.4288 -0.7471 -2.4651
19059SOL    HW264418   5.900   7.360  10.519  1.6246 -1.6984 -1.3210
19060SOL     OW64419  11.989   9.484  12.428 -0.2596  0.2375 -0.5738
19060SOL    HW164420  12.045   9.545  12.475  0.0347 -0.3734 -0.1276
19060SOL    HW264421  11.973   9.527  12.343 -3.1865  2.7432  1.0473
19061SOL     OW64422   3.957   4.303   9.040  0.1462  0.3354 -0.0041
19061SOL    HW164423   3.927   4.385   9.079 -0.3450  0.4160 -0.5355
19061SOL    HW264424   4.042   4.287   9.080 -0.8251 -0.1969  2.0117
19062SOL     OW64425   9.480  10.896  11.259  0.3327  0.1859 -0.0529
19062SOL    HW164426   9.503  10.912  11.167  0.8447 -0.0012  0.0373
19062SOL    HW264427   9.394  10.936  11.270  0.9468  1.5993 -0.2121
19063SOL     OW64428   3.234   1.195   5.552 -0.1383  0.8533 -0.8039
19063SOL    HW164429   3.322   1.229   5.541 -0.9443  2.3159 -3.8966
19063SOL    HW264430   3.202   1.182   5.463 -2.3100 -1.7928  0.1842
19064SOL     OW64431   7.491   6.379  10.006  0.0966  0.2883 -0.0108
19064SOL    HW164432   7.397   6.395  10.019  0.2777  1.3803  0.0427
19064SOL    HW264433   7.528   6.466   9.988  1.4141  0.1909  1.9362
19065SOL     OW64434   2.202   4.296   5.223  0.4761 -0.2257 -0.0899
19065SOL    HW164435   2.296   4.277   5.226  0.4484 -0.5485 -0.9820
19065SOL    HW264436   2.189   4.342   5.140 -0.1285 -0.0183  0.1125
19066SOL     OW64437   8.133   5.530   4.392  0.3337 -0.3624  0.0555
19066SOL    HW164438   8.175   5.589   4.454 -0.2305 -1.0884  1.1609
19066SOL    HW264439   8.194   5.525   4.318  0.0997  2.0879 -0.3709
19067SOL     OW64440   8.279   0.891   4.810  0.3232  0.4652 -0.1241
19067SOL    HW164441   8.238   0.964   4.764 -1.4717  0.3739  1.2028
19067SOL    HW264442   8.358   0.928   4.849 -0.5359  1.7415  0.5003
19068SOL     OW64443   9.386   3.000   6.024  0.8660 -0.3760  0.1526
19068SOL    HW164444   9.384   2.939   5.951 -1.8073  0.6568 -0.7391
19068SOL    HW264445   9.357   2.949   6.100  0.5552 -0.6846 -0.1760
19069SOL     OW64446   3.525   2.463   9.334 -0.8050  0.2937 -0.0144
19069SOL    HW164447   3.500   2.499   9.249 -0.1080  2.6417  0.6906
19069SOL    HW264448   3.610   2.423   9.319 -1.3367 -0.5851 -0.7161
19070SOL     OW64449   7.264   1.557   3.246 -0.6840 -0.0671  0.4772
19070SOL    HW164450   7.287   1.484   3.188 -0.8555  0.6045 -0.4471
19070SOL    HW264451   7.254   1.632   3.188  1.9906  1.3158  1.6740
19071SOL     OW64452   5.674   3.384   3.380  0.0837  0.3386 -0.0880
19071SOL    HW164453   5.621   3.309   3.407 -0.4473  0.3496 -1.0492
19071SOL    HW264454   5.763   3.361   3.407 -0.3258  0.1048  1.1067
19072SOL     OW64455   1.093   2.347   5.861  0.1708  0.5452  0.3916
19072SOL    HW164456   1.065   2.295   5.786 -0.4179  1.1330  0.1879
19072SOL    HW264457   1.183   2.374   5.838  0.2014  0.2557  0.1578
19073SOL     OW64458   0.887   6.517  11.467 -0.0605  0.2810 -0.3550
19073SOL    HW164459   0.894   6.611  11.449 -4.9319  1.2051  1.2110
19073SOL    HW264460   0.841   6.512  11.550  1.0444 -3.6097  0.2104
19074SOL     OW64461   0.251  12.046   9.522  0.2871  0.3269 -0.3668
19074SOL    HW164462   0.202  11.997   9.456 -1.0175  0.9855  0.0616
19074SOL    HW264463   0.228  12.138   9.506  1.2418  0.6403 -0.0125
19075SOL     OW64464  10.533   5.237  11.851 -0.0158  0.2536  0.4217
19075SOL    HW164465  10.516   5.247  11.758 -0.8575 -1.0140  0.4091
19075SOL    HW264466  10.612   5.184  11.856 -0.9670 -1.2454  0.3694
19076SOL     OW64467   4.642   2.108   3.814  0.3427  0.0761  0.3781
19076SOL    HW164468   4.576   2.041   3.796 -0.4270  0.7152  0.7069
19076SOL    HW264469   4.672   2.089   3.903  0.8771 -0.4399  0.0865
19077SOL     OW64470  12.215  11.704   5.743  0.2887  0.3241 -0.1393
19077SOL    HW164471  12.134  11.684   5.695 -0.0296  0.4749  0.3237
19077SOL    HW264472  12.251  11.619   5.767  1.8095  0.1231 -2.8240
19078SOL     OW64473   0.329   8.609   6.488 -0.6034  0.7893 -0.2251
19078SOL    HW164474   0.391   8.641   6.554  0.2894 -0.0238 -0.6427
19078SOL    HW264475   0.354   8.518   6.474 -1.8269  0.4774 -0.5141
19079SOL     OW64476  11.455   8.907   1.432 -0.5751 -0.1394  0.0679
19079SOL    HW164477  11.535   8.929   1.479 -0.6188  0.5387 -0.1616
19079SOL    HW264478  11.439   8.982   1.375 -0.7752 -0.7444 -0.6934
19080SOL     OW64479   0.593   9.442   2.112 -0.0873  0.0253  0.0613
19080SOL    HW164480   0.559   9.381   2.177 -0.7482  0.4551  0.1256
19080SOL    HW264481   0.660   9.493   2.160  0.4920 -0.6620 -0.0045
19081SOL     OW64482   4.112   8.005   8.908 -0.5014  0.5882  0.2371
19081SOL    HW164483   4.069   7.920   8.911 -0.8355  0.7703  0.7685
19081SOL    HW264484   4.091   8.046   8.992  0.4106  0.8286  0.3610
19082SOL     OW64485  12.561  11.179   9.834  0.2374 -0.1760  0.2435
19082SOL    HW164486  12.592  11.248   9.892 -0.0694 -1.1626  1.6345
19082SOL    HW264487  12.485  11.216   9.791  0.2911  0.4824  0.7061
19083SOL     OW64488   6.226   4.034   7.160  0.0460  0.1078  0.4048
19083SOL    HW164489   6.156   3.987   7.114  0.3205 -0.6231  0.7213
19083SOL    HW264490   6.206   4.126   7.145 -0.6268 -0.0993 -0.0474
19084SOL     OW64491   1.610   6.234   1.278  0.0604  0.5009 -0.3359
19084SOL    HW164492   1.618   6.297   1.207  0.7293 -0.8694 -1.5045
19084SOL    HW264493   1.700   6.220   1.308 -0.2104  1.0607  0.8141
19085SOL     OW64494   0.224   6.615   7.909  0.6393 -0.1514 -0.4869
19085SOL    HW164495   0.198   6.531   7.947 -0.0383 -0.2482 -1.1204
19085SOL    HW264496   0.227   6.676   7.982 -0.9133 -0.2618 -0.2891
19086SOL     OW64497   8.309   6.915   8.124 -0.6098 -0.3574 -0.6421
19086SOL    HW164498   8.318   6.974   8.199 -1.4829 -0.3150 -0.5607
19086SOL    HW264499   8.374   6.946   8.061  1.7221 -1.7569  0.9226
19087SOL     OW64500  10.426  11.745  11.502 -0.2948 -0.2034 -0.2202
19087SOL    HW164501  10.485  11.779  11.435 -0.0623  1.6419  0.8620
19087SOL    HW264502  10.339  11.747  11.461 -0.0073 -0.2356 -0.8462
19088SOL     OW64503   7.429  10.844   2.022 -0.1215  0.2111 -0.1347
19088SOL    HW164504   7.470  10.922   2.060  0.4719 -0.5915  0.9337
19088SOL    HW264505   7.502  10.785   2.005 -0.6733 -0.5633  0.1641
19089SOL     OW64506   5.055   2.721  11.470  0.3657  0.2481  0.3625
19089SOL    HW164507   5.074   2.633  11.503  0.0192 -0.2149 -0.6338
19089SOL    HW264508   4.972   2.745  11.510  1.0025  0.6155  1.5375
19090SOL     OW64509  12.136   1.114   5.184  0.9125  0.2885  0.3569
19090SOL    HW164510  12.200   1.045   5.205 -0.2608 -1.6195 -1.9449
19090SOL    HW264511  12.168   1.153   5.103 -0.1619  0.1936 -0.1239
19091SOL     OW64512   7.005   9.896   0.522  0.1593 -0.0139 -0.0901
19091SOL    HW164513   6.961   9.830   0.468  0.9267 -0.9419  0.3959
19091SOL    HW264514   6.933   9.944   0.564 -0.4161 -1.3924  0.5571
19092SOL     OW64515   9.047   7.530  12.231 -0.3359  0.3465 -0.7643
19092SOL    HW164516   9.022   7.444  12.266 -0.6919  0.7487 -0.0096
19092SOL    HW264517   8.980   7.549  12.165 -0.8862  0.5337 -0.1536
19093SOL     OW64518   2.250   8.880   5.168  0.2415  0.3622  0.3224
19093SOL    HW164519   2.342   8.904   5.179  0.4129  0.8172 -1.8048
19093SOL    HW264520   2.223   8.923   5.087 -1.9667  0.5485  1.0846
19094SOL     OW64521   7.433   5.814   9.426  0.6059 -0.1093 -0.0712
19094SOL    HW164522   7.431   5.850   9.338  1.2839  2.0287  0.7296
19094SOL    HW264523   7.410   5.722   9.415  0.0662  0.2512 -2.3868
19095SOL     OW64524  12.435   4.670   6.125  0.5468 -0.3592 -0.9589
19095SOL    HW164525  12.387   4.690   6.045  0.8130 -0.5715 -1.1766
19095SOL    HW264526  12.373   4.686   6.196  0.5591  0.6193 -1.1594
19096SOL     OW64527  11.759  11.570  10.355  0.3446 -0.6444  0.2737
19096SOL    HW164528  11.829  11.608  10.303  2.2778 -0.4246  2.8143
19096SOL    HW264529  11.707  11.519  10.293  0.8180  1.7550 -2.2878
19097SOL     OW64530   9.277  12.559   8.093  0.3516  0.5449  0.8744
19097SOL    HW164531   9.198  12.573   8.145  0.8647  4.2579  0.8812
19097SOL    HW264532   9.259  12.600   8.009  1.7089 -0.0372  0.2561
19098SOL     OW64533  10.153   9.553   5.930  0.3634  0.0594  0.1682
19098SOL    HW164534  10.164   9.584   6.020  1.2988 -0.8134  0.3711
19098SOL    HW264535  10.139   9.459   5.939  0.4196 -0.0257 -0.5931
19099SOL     OW64536   4.774   9.724   5.976  0.4212  0.2800 -0.2041
19099SOL    HW164537   4.778   9.718   6.072 -1.3456 -0.7084 -0.1588
19099SOL    HW264538   4.714   9.797   5.960  0.0458 -0.1040 -0.5512
19100SOL     OW64539   6.838  10.490  10.957 -0.5397 -0.4300  0.4441
19100SOL    HW164540   6.750  10.521  10.936 -1.2421 -1.1322  2.1642
19100SOL    HW264541   6.860  10.430  10.885 -1.7738 -0.8147  0.3721
19101SOL     OW64542   2.126   5.844   8.573  0.0082  0.3695 -0.5163
19101SOL    HW164543   2.032   5.862   8.582 -0.3226 -0.6463 -1.6755
19101SOL    HW264544   2.146   5.788   8.648 -0.5429 -0.2409 -0.8192
19102SOL     OW64545  10.220  10.047  11.578  0.4062  0.0895 -0.0940
19102SOL    HW164546  10.178   9.980  11.524  1.7019  0.4949 -1.6677
19102SOL    HW264547  10.164  10.125  11.567 -0.2100 -0.2706  0.4457
19103SOL     OW64548   1.049   0.600   2.251 -0.0086  0.3172  0.1227
19103SOL    HW164549   0.991   0.529   2.223 -0.4168 -0.0997  1.8825
19103SOL    HW264550   0.997   0.680   2.238  1.3758  0.7502 -4.4183
19104SOL     OW64551   5.368  12.651   3.605 -0.3449 -0.1736 -0.1885
19104SOL    HW164552   5.385  12.709   3.531  0.2079  0.8091  0.6911
19104SOL    HW264553   5.279  12.619   3.590 -0.1529 -0.2053 -1.4028
19105SOL     OW64554   4.191   8.930   4.389  0.1824 -0.7594 -0.1112
19105SOL    HW164555   4.161   8.853   4.437 -1.2888 -0.6605 -0.8267
19105SOL    HW264556   4.133   9.001   4.417  0.1317 -0.4101 -1.0495
19106SOL     OW64557  10.147   5.303   9.474 -0.2873 -0.1608  0.3588
19106SOL    HW164558  10.095   5.384   9.470 -1.6447 -1.0288 -0.3546
19106SOL    HW264559  10.180   5.292   9.385 -2.4973 -1.8351 -0.3519
19107SOL     OW64560   3.739   2.009   7.962  0.6174 -0.3276 -0.6029
19107SOL    HW164561   3.766   2.019   8.053 -0.9297 -1.4926  0.0294
19107SOL    HW264562   3.798   2.067   7.913  1.7055  0.0624  1.0775
19108SOL     OW64563   6.895   5.461   9.660 -0.4208  0.0010 -0.3837
19108SOL    HW164564   6.929   5.388   9.609 -0.2963  1.0996 -1.9566
19108SOL    HW264565   6.972   5.514   9.681 -0.7134  0.5675 -0.7345
19109SOL     OW64566   7.904   9.665   3.317 -0.0080 -0.4748 -0.3986
19109SOL    HW164567   7.857   9.631   3.394 -0.8775  2.6719  0.6283
19109SOL    HW264568   7.853   9.743   3.291  1.3686 -0.3365 -2.9928
19110SOL     OW64569  10.594   8.435   1.590 -0.2386 -0.3017 -0.3462
19110SOL    HW164570  10.588   8.530   1.578 -2.6668 -0.4622 -1.0676
19110SOL    HW264571  10.672   8.421   1.643  1.4027  1.9184 -2.0150
19111SOL     OW64572   8.743   6.444   5.703  0.0585 -0.0495 -0.3305
19111SOL    HW164573   8.830   6.479   5.685 -0.3733  0.4325 -1.5941
19111SOL    HW264574   8.683   6.513   5.675 -0.7420 -0.5061  0.2245
19112SOL     OW64575   0.559  10.132   8.582 -0.3598 -0.1007  0.3153
19112SOL    HW164576   0.654  10.118   8.589 -0.1674  0.6437 -0.6414
19112SOL    HW264577   0.549  10.227   8.584 -0.8369 -0.0516 -2.1806
19113SOL     OW64578   2.428   5.892  10.421  0.2749 -0.2506 -1.1640
19113SOL    HW164579   2.416   5.827  10.352  1.0162 -0.6842 -0.8975
19113SOL    HW264580   2.461   5.842  10.496 -1.3540  0.0702 -0.1846
19114SOL     OW64581  10.969   6.262   8.702  0.3468 -0.0042 -0.2790
19114SOL    HW164582  10.880   6.252   8.737  0.7156  1.0425  1.0555
19114SOL    HW264583  10.971   6.351   8.668  0.7853 -0.1413 -0.6133
19115SOL     OW64584   3.618   6.028   9.607 -0.2462  0.4092 -0.4595
19115SOL    HW164585   3.549   6.012   9.671  0.8401  2.6847  1.4197
19115SOL    HW264586   3.574   6.018   9.522 -2.0079 -1.5484  0.5731
19116SOL     OW64587   7.278  11.417  12.165 -0.1681  0.2704 -0.1517
19116SOL    HW164588   7.232  11.493  12.199 -0.9488 -0.3625  0.2181
19116SOL    HW264589   7.344  11.454  12.106 -0.5780  1.2251 -0.0291
19117SOL     OW64590   2.791   4.456   1.089 -0.2375  0.8773 -0.5710
19117SOL    HW164591   2.813   4.478   0.998 -0.5068  2.0564 -0.3594
19117SOL    HW264592   2.869   4.480   1.139 -0.4683  1.1887 -0.3579
19118SOL     OW64593  12.489   8.851   7.568 -0.2384  0.1544 -0.2200
19118SOL    HW164594  12.431   8.791   7.616  0.4685 -0.3277  0.0400
19118SOL    HW264595  12.490   8.816   7.478  0.6302 -0.5820  0.0622
19119SOL     OW64596  12.298   3.438   1.743  0.1705  0.7619  0.1069
19119SOL    HW164597  12.288   3.510   1.805  1.4900  1.3078 -0.2767
19119SOL    HW264598  12.392   3.430   1.730 -0.0250 -0.0557 -0.9981
19120SOL     OW64599  11.388   8.395   1.436  0.4870  0.1683 -0.1837
19120SOL    HW164600  11.340   8.387   1.353  0.0468 -1.3107  0.1903
19120SOL    HW264601  11.342   8.463   1.484 -0.6418 -0.5384 -0.2403
19121SOL     OW64602  10.818   6.385   4.023  0.1329  0.1822  0.0015
19121SOL    HW164603  10.856   6.344   3.945 -1.4509 -1.6703  0.1330
19121SOL    HW264604  10.724   6.376   4.011 -0.1453 -0.3050  2.2096
19122SOL     OW64605   7.914   0.483   0.176  0.7476  0.2531  0.4416
19122SOL    HW164606   7.876   0.571   0.168  0.2630 -0.0360 -0.5916
19122SOL    HW264607   7.840   0.424   0.159  0.8634 -0.3828  1.9931
19123SOL     OW64608   6.553   3.798   8.499 -0.2298  0.4394 -0.1014
19123SOL    HW164609   6.615   3.786   8.426 -0.3732  0.5406 -0.2414
19123SOL    HW264610   6.479   3.743   8.475 -0.5160  0.9096 -0.3078
19124SOL     OW64611   8.605  12.265   8.067 -0.3549  0.8101 -0.1357
19124SOL    HW164612   8.664  12.326   8.022 -0.2091  1.0354  0.3594
19124SOL    HW264613   8.537  12.320   8.104 -1.2867  0.4832 -1.3086
19125SOL     OW64614   6.082   8.979   2.701 -0.3637 -0.1108  0.2752
19125SOL    HW164615   6.042   8.934   2.627 -1.2354  0.4485  0.3941
19125SOL    HW264616   6.026   9.055   2.717  0.7266  0.6873  0.4722
19126SOL     OW64617   8.382   5.735   9.809  0.9121  0.4029  0.1140
19126SOL    HW164618   8.388   5.646   9.843  0.6388  0.6681  0.8807
19126SOL    HW264619   8.301   5.769   9.846  0.5914  0.7012 -0.8336
19127SOL     OW64620   2.713   7.635   3.977  0.3497 -0.1479  0.2069
19127SOL    HW164621   2.723   7.686   3.897 -1.1838 -1.1613 -0.6864
19127SOL    HW264622   2.762   7.554   3.961 -2.3087 -1.6495 -0.9884
19128SOL     OW64623   9.478  12.588   3.898 -0.3622  0.2908 -0.3148
19128SOL    HW164624   9.455  12.636   3.978 -0.6659 -2.2402  1.2740
19128SOL    HW264625   9.402  12.532   3.882  0.7727 -1.1818 -0.7767
19129SOL     OW64626  12.253   8.766   4.883 -0.5407 -0.1541 -0.1919
19129SOL    HW164627  12.217   8.764   4.794 -1.0538 -1.5451  0.0183
19129SOL    HW264628  12.267   8.859   4.901  3.7946  0.1109 -3.3562
19130SOL     OW64629   2.383   6.626   4.136  0.4924  0.4063 -0.0579
19130SOL    HW164630   2.361   6.625   4.229  2.4265  0.6060  0.4525
19130SOL    HW264631   2.476   6.647   4.134  0.8409 -1.0478 -1.9845
19131SOL     OW64632   7.221   9.032   3.952 -0.0657 -0.4562  0.0596
19131SOL    HW164633   7.220   9.125   3.977 -2.6107 -0.8828  1.8574
19131SOL    HW264634   7.134   9.015   3.917  0.7103 -1.9842 -1.3105
19132SOL     OW64635  10.421   7.349   3.581  0.2380 -0.5364  0.4293
19132SOL    HW164636  10.325   7.345   3.583  0.2021  0.1865  0.4779
19132SOL    HW264637  10.442   7.373   3.490  0.4015 -1.2339  0.2793
19133SOL     OW64638   8.607  10.739   9.608 -0.3035  0.5785 -0.0445
19133SOL    HW164639   8.685  10.780   9.645  1.3631 -1.6754 -0.8389
19133SOL    HW264640   8.636  10.704   9.524 -2.0974 -0.5929 -0.2248
19134SOL     OW64641   7.216  11.613   8.017  0.7028  0.5170  0.2141
19134SOL    HW164642   7.153  11.685   8.012 -0.3889 -0.4687 -3.1977
19134SOL    HW264643   7.163  11.537   8.041  1.2090  0.2668  0.5356
19135SOL     OW64644   3.807   2.289   4.839  0.1035 -0.6929 -0.0511
19135SOL    HW164645   3.755   2.350   4.890 -0.4281 -0.8924 -0.3428
19135SOL    HW264646   3.822   2.215   4.898 -3.1094 -2.3382 -1.0348
19136SOL     OW64647  11.080  10.036   5.945 -0.2950 -0.5237 -0.1221
19136SOL    HW164648  11.094  10.106   5.881 -0.1483  0.5428  1.0466
19136SOL    HW264649  10.985  10.024   5.948 -0.6110  1.7829  1.8524
19137SOL     OW64650   0.613  11.831   6.182  0.2842  0.4295 -0.2222
19137SOL    HW164651   0.694  11.841   6.132 -0.2709 -0.9237 -1.4467
19137SOL    HW264652   0.641  11.788   6.263  0.8917  0.7450 -0.2529
19138SOL     OW64653   9.934   4.566   7.866  0.0932 -0.3498 -0.3453
19138SOL    HW164654   9.998   4.495   7.861 -0.4377 -0.7831 -1.2611
19138SOL    HW264655   9.983   4.645   7.845  1.1566 -0.0861  2.6080
19139SOL     OW64656   6.549   0.124  11.806 -0.1484 -0.2376 -0.1025
19139SOL    HW164657   6.516   0.210  11.780 -1.2305 -0.5486  0.1991
19139SOL    HW264658   6.574   0.135  11.898  0.6681  0.0075 -0.3416
19140SOL     OW64659   7.582   1.752   5.681  0.2362 -0.1767  0.3641
19140SOL    HW164660   7.648   1.817   5.660  0.5809 -0.6931 -0.1524
19140SOL    HW264661   7.620   1.701   5.753 -0.1985  0.4354  1.0422
19141SOL     OW64662  11.336   5.051   9.552  0.7163  0.3028  0.2182
19141SOL    HW164663  11.301   5.017   9.635 -1.1458 -0.6363 -0.8920
19141SOL    HW264664  11.374   5.135   9.575 -0.0897  0.2298  1.9724
19142SOL     OW64665   3.242   5.809   6.808 -0.2767  0.0835  0.8300
19142SOL    HW164666   3.193   5.819   6.726  0.9832  1.7104  0.2185
19142SOL    HW264667   3.187   5.852   6.873 -0.7571 -0.2164  0.6321
19143SOL     OW64668   3.300  10.262   4.351 -0.4278  0.0838  0.1865
19143SOL    HW164669   3.322  10.193   4.288 -0.5195  1.6760 -1.6753
19143SOL    HW264670   3.383  10.286   4.391 -0.4841 -1.5509  1.4336
19144SOL     OW64671   0.640  11.054   3.612  0.1499 -0.0998  0.7041
19144SOL    HW164672   0.719  11.077   3.562  0.7876 -0.6409  1.4422
19144SOL    HW264673   0.584  11.010   3.548  0.0656  1.0583 -0.0438
19145SOL     OW64674   4.195   9.979   1.429  0.4230 -0.2250 -0.2594
19145SOL    HW164675   4.200   9.921   1.505  0.5217 -0.6834 -0.6131
19145SOL    HW264676   4.204   9.921   1.354  1.0848  0.3156 -0.6084
19146SOL     OW64677   4.368   4.225   4.653  0.0097 -0.5567  0.3394
19146SOL    HW164678   4.400   4.135   4.645  0.2733 -0.4762  0.4654
19146SOL    HW264679   4.294   4.230   4.592 -0.0575 -0.8810  0.3902
19147SOL     OW64680  11.515   7.814  11.027  0.6460 -0.3682 -0.2222
19147SOL    HW164681  11.553   7.861  10.953 -0.8079  0.9479 -0.1700
19147SOL    HW264682  11.453   7.876  11.066  0.3047 -1.5563  1.2089
19148SOL     OW64683   4.972   1.906  12.541 -0.5909 -0.0064 -0.1306
19148SOL    HW164684   5.065   1.893  12.559 -0.9568 -0.7273  1.3752
19148SOL    HW264685   4.940   1.955  12.617 -1.1398  1.6929 -1.3838
19149SOL     OW64686   9.913   7.093   8.667 -0.3738 -0.3136  0.0770
19149SOL    HW164687   9.984   7.127   8.613 -0.6308  1.0212  0.5593
19149SOL    HW264688   9.838   7.090   8.608 -0.0796 -1.1867 -0.2763
19150SOL     OW64689   8.418  10.626  11.289  0.4971  0.3977 -1.3668
19150SOL    HW164690   8.448  10.545  11.248  0.9995  0.4094 -1.0351
19150SOL    HW264691   8.358  10.665  11.226  0.2950 -0.2057 -1.5503
19151SOL     OW64692   0.508   1.722   1.320  0.1899  0.1523  0.4027
19151SOL    HW164693   0.493   1.746   1.411 -1.1734  0.1413  0.1998
19151SOL    HW264694   0.493   1.802   1.270 -2.5177 -0.5572 -0.0961
19152SOL     OW64695   7.489  12.671   6.348 -0.0944 -0.0679  0.1797
19152SOL    HW164696   7.436  12.643   6.274  1.4078 -0.4567 -0.7905
19152SOL    HW264697   7.494  12.594   6.405 -2.2599  0.5819  1.3718
19153SOL     OW64698   5.375   4.965   1.195 -0.0507  0.4855  0.9466
19153SOL    HW164699   5.363   4.872   1.216 -0.9227  0.8205  2.0409
19153SOL    HW264700   5.395   4.966   1.101  0.2641 -0.8218  0.9772
19154SOL     OW64701   1.346   9.309   0.803 -0.0603 -0.4577  0.1343
19154SOL    HW164702   1.432   9.349   0.790 -0.2159  0.6550  2.1262
19154SOL    HW264703   1.365   9.224   0.842  0.1777 -0.2632  0.4577
19155SOL     OW64704   1.761   4.468   6.683  0.2752  0.2417  0.1601
19155SOL    HW164705   1.767   4.521   6.762 -1.6453 -1.6193  1.6908
19155SOL    HW264706   1.836   4.408   6.688 -0.0077 -0.0724  0.7656
19156SOL     OW64707   1.553   7.757   8.224  0.2465  0.1032 -0.3331
19156SOL    HW164708   1.459   7.772   8.213  0.3990  0.5612 -1.0805
19156SOL    HW264709   1.580   7.715   8.143  0.8207  0.6662 -0.4446
19157SOL     OW64710  10.493   4.709  10.103  0.3166  0.0334  0.3644
19157SOL    HW164711  10.528   4.761  10.175  1.4061  0.4230 -0.4040
19157SOL    HW264712  10.565   4.650  10.079 -0.0809 -0.1971 -0.3013
19158SOL     OW64713   9.523   3.259   6.645  0.1106 -0.0599  0.5299
19158SOL    HW164714   9.549   3.177   6.603  0.0526  0.4322 -0.5071
19158SOL    HW264715   9.532   3.325   6.576 -0.6546  0.6706  1.1114
19159SOL     OW64716   9.065  12.675   4.825 -0.0453  0.4101 -0.3447
19159SOL    HW164717   8.993  12.731   4.856  1.2715  1.4399  1.0273
19159SOL    HW264718   9.025  12.590   4.810 -1.8424  1.3214 -1.0972
19160SOL     OW64719   9.782   2.040   1.715 -0.0079  0.1293 -0.0881
19160SOL    HW164720   9.719   2.108   1.691 -0.5513 -0.2351  0.2835
19160SOL    HW264721   9.799   1.993   1.633 -1.0015 -0.4083  0.0007
19161SOL     OW64722   3.662  10.060   2.585 -0.2525  0.0776  0.3646
19161SOL    HW164723   3.605  10.108   2.644 -1.2977 -0.2651 -0.3397
19161SOL    HW264724   3.671   9.973   2.624 -0.0708  0.1853  0.5619
19162SOL     OW64725   1.039  11.111   9.988 -0.2574 -0.0862  0.3692
19162SOL    HW164726   0.976  11.172  10.025  0.8731  1.1645  0.3364
19162SOL    HW264727   1.118  11.123  10.042  0.7396  0.2519 -1.0979
19163SOL     OW64728   1.450   0.148  12.232  0.4166 -0.4208 -0.0479
19163SOL    HW164729   1.505   0.078  12.266  0.4203 -0.2329  0.3488
19163SOL    HW264730   1.469   0.223  12.289 -0.4122 -0.4201  0.2414
19164SOL     OW64731   0.489   0.084   5.501  0.1018  0.0689 -0.0993
19164SOL    HW164732   0.442   0.050   5.577  0.8593 -1.0924 -0.1083
19164SOL    HW264733   0.425   0.083   5.430 -0.4889  0.7401  0.4198
19165SOL     OW64734   0.634  11.160   4.763 -0.2214 -0.5809 -0.2467
19165SOL    HW164735   0.727  11.162   4.782 -0.0748 -1.9953 -0.6537
19165SOL    HW264736   0.593  11.139   4.847 -0.2320  0.5122  0.0354
19166SOL     OW64737   5.276   6.839  11.295  0.4032  0.1945 -0.1991
19166SOL    HW164738   5.282   6.745  11.311  0.7397 -0.2119 -2.4183
19166SOL    HW264739   5.342   6.878  11.353  0.6632 -0.9689  0.3107
19167SOL     OW64740   4.184   7.860  10.578 -0.3184  0.3082 -0.2128
19167SOL    HW164741   4.091   7.838  10.579 -0.0925 -0.9132 -1.5328
19167SOL    HW264742   4.199   7.897  10.491  0.2513  1.4528  0.3444
19168SOL     OW64743   5.857   7.689   0.512 -0.1189 -0.9363 -0.0286
19168SOL    HW164744   5.816   7.773   0.493  0.2072 -0.4251  1.3995
19168SOL    HW264745   5.829   7.668   0.602  1.2072 -1.4861  0.2856
19169SOL     OW64746   0.297   4.272   2.680 -0.3910  0.2520 -0.5431
19169SOL    HW164747   0.257   4.330   2.745 -0.1974  0.5431 -0.6770
19169SOL    HW264748   0.389   4.268   2.705 -0.2164  0.7519 -1.0643
19170SOL     OW64749   3.114   5.084   7.204  0.0918 -0.6685 -0.8839
19170SOL    HW164750   3.147   5.007   7.158  0.9064 -0.5952 -0.4454
19170SOL    HW264751   3.175   5.154   7.181 -0.4947 -0.2087 -1.0716
19171SOL     OW64752   5.992   8.189   4.730  0.4305 -0.4917 -0.0945
19171SOL    HW164753   5.938   8.114   4.754  1.0347 -1.3937 -1.4488
19171SOL    HW264754   6.075   8.175   4.776  1.6362 -2.2878 -2.5867
19172SOL     OW64755   1.992   8.196  11.249 -0.1439 -0.1216  0.1613
19172SOL    HW164756   1.897   8.192  11.248 -0.2423  1.5456  0.5036
19172SOL    HW264757   2.016   8.253  11.177  0.5100  0.5926  0.9154
19173SOL     OW64758   8.291   1.413   6.916 -0.2165 -0.3757  0.0963
19173SOL    HW164759   8.275   1.328   6.957 -0.0454 -0.3439  0.2284
19173SOL    HW264760   8.227   1.417   6.845  0.3897 -1.0172 -0.4990
19174SOL     OW64761   9.254  11.851   7.894  0.2493  0.1618  0.2827
19174SOL    HW164762   9.186  11.901   7.850 -0.9267 -1.7957 -0.2735
19174SOL    HW264763   9.207  11.793   7.954  1.4064 -1.0278  0.0977
19175SOL     OW64764   8.777  11.154   6.005  0.1340  0.1994  0.0771
19175SOL    HW164765   8.866  11.148   5.971  0.2680  0.2898  0.4051
19175SOL    HW264766   8.770  11.084   6.070  0.4919  1.1682  1.2000
19176SOL     OW64767   8.189  12.300   1.466 -0.2331  0.1423  0.1260
19176SOL    HW164768   8.118  12.316   1.529 -0.0142  0.5845  0.2710
19176SOL    HW264769   8.234  12.223   1.500  0.7393  1.1712  1.3263
19177SOL     OW64770   4.428   3.494   4.931 -0.3868 -0.2487  0.2066
19177SOL    HW164771   4.510   3.476   4.977 -0.5631 -0.7745  0.3234
19177SOL    HW264772   4.368   3.523   5.000  0.3373  2.4413 -0.1761
19178SOL     OW64773   3.421  10.919   0.800  0.2289  0.1930  0.3593
19178SOL    HW164774   3.479  10.845   0.821 -0.0206  0.3599  1.7206
19178SOL    HW264775   3.333  10.884   0.812  0.0916  0.4455  0.0832
19179SOL     OW64776   6.562   8.001   6.617  0.2591  0.1848  0.1257
19179SOL    HW164777   6.647   7.963   6.597 -0.2723 -1.3060  0.5135
19179SOL    HW264778   6.522   8.019   6.532  1.0672  1.1933 -0.0546
19180SOL     OW64779  11.797   5.930   4.169 -0.0020 -0.5084 -0.6425
19180SOL    HW164780  11.852   5.861   4.131  0.3564 -0.1499 -0.7804
19180SOL    HW264781  11.733   5.949   4.101 -0.1154 -0.7163 -0.5965
19181SOL     OW64782  10.792   1.514  10.415 -0.3694 -0.9534  0.1276
19181SOL    HW164783  10.729   1.577  10.379  2.0088  2.0798  0.8204
19181SOL    HW264784  10.849   1.491  10.341  1.0549  0.8214  0.5906
19182SOL     OW64785   2.216   5.355   6.513  0.4316  0.0439 -1.0707
19182SOL    HW164786   2.301   5.390   6.484  0.1639  0.2455 -1.6263
19182SOL    HW264787   2.218   5.264   6.485  1.9184 -1.0019  2.0553
19183SOL     OW64788   2.291   0.026   8.150  0.0799  0.4067 -0.3669
19183SOL    HW164789   2.360  -0.027   8.190 -1.3725 -0.8454  0.6147
19183SOL    HW264790   2.274  -0.016   8.065  1.2704  1.4039 -1.1244
19184SOL     OW64791   3.223  12.339   1.402  0.2157  0.2804  0.2473
19184SOL    HW164792   3.222  12.400   1.328  0.2322  0.3352  0.2915
19184SOL    HW264793   3.256  12.257   1.366  2.9411  1.0328  0.7610
19185SOL     OW64794   9.838   7.379   8.866 -0.2876 -0.0730 -0.2669
19185SOL    HW164795   9.875   7.386   8.778 -2.3027 -1.0450 -1.2732
19185SOL    HW264796   9.802   7.466   8.884 -0.1819  0.0308 -0.5574
19186SOL     OW64797   9.232   9.085   0.651  0.0338  0.3802 -0.2553
19186SOL    HW164798   9.190   9.068   0.735 -2.4752 -2.5454 -1.8791
19186SOL    HW264799   9.197   9.170   0.623 -2.4323 -0.4909 -0.0815
19187SOL     OW64800  10.703   2.855  12.489 -0.2696 -0.5785 -0.2472
19187SOL    HW164801  10.740   2.929  12.537 -0.0297 -0.7539 -0.1630
19187SOL    HW264802  10.609   2.873  12.487 -0.1089  0.2802 -1.1469
19188SOL     OW64803   9.407   1.104   2.946 -0.4039  0.3356  0.2419
19188SOL    HW164804   9.464   1.040   2.987 -0.5361 -0.1009 -0.2514
19188SOL    HW264805   9.466   1.159   2.893 -0.5084 -0.5383 -0.8136
19189SOL     OW64806  11.854  11.415   4.173  0.1316  0.4313  0.0172
19189SOL    HW164807  11.941  11.438   4.139  0.5820 -1.2468 -0.1020
19189SOL    HW264808  11.839  11.474   4.246  2.2303 -0.4273  1.2348
19190SOL     OW64809   2.400   2.354   9.398 -0.0545  0.8256  0.0237
19190SOL    HW164810   2.439   2.375   9.482 -0.5548  1.6442  0.0629
19190SOL    HW264811   2.329   2.292   9.418  0.1832  0.5866  0.1314
19191SOL     OW64812  12.271   3.569  11.058 -0.1651  0.0839  0.2442
19191SOL    HW164813  12.335   3.625  11.014  0.4805 -0.0186  1.0256
19191SOL    HW264814  12.309   3.481  11.053 -0.8400 -0.1868 -0.3585
19192SOL     OW64815   8.440  11.029   1.333  0.3684  0.1620 -0.3714
19192SOL    HW164816   8.421  11.097   1.399  0.1789  0.6126 -0.8822
19192SOL    HW264817   8.478  10.957   1.383 -1.0707 -0.0700  0.4383
19193SOL     OW64818   6.894  12.347   0.535 -0.7153 -0.1281  0.3717
19193SOL    HW164819   6.921  12.370   0.624 -0.1137  0.1129  0.1297
19193SOL    HW264820   6.968  12.373   0.480 -0.5068 -1.5088 -0.0476
19194SOL     OW64821   2.709   1.778   3.268  0.6829  0.2354  0.2257
19194SOL    HW164822   2.751   1.806   3.186  0.5225  0.9307  0.3734
19194SOL    HW264823   2.747   1.692   3.286  0.3510 -0.1466 -0.8372
19195SOL     OW64824   8.339   4.613   3.637  0.5316  0.2872 -0.3480
19195SOL    HW164825   8.326   4.649   3.725 -0.5731 -0.1006 -0.3387
19195SOL    HW264826   8.393   4.535   3.652 -2.7731 -2.0322  0.5464
19196SOL     OW64827   6.706   9.599   4.416 -0.4186 -0.2099 -0.3663
19196SOL    HW164828   6.681   9.653   4.491  0.9448 -0.7478  0.5274
19196SOL    HW264829   6.784   9.551   4.446  0.5701  0.0370 -2.3418
19197SOL     OW64830   1.565   7.210   6.479  0.0100  0.0046 -0.4259
19197SOL    HW164831   1.519   7.127   6.491 -0.0258  0.1280  0.2834
19197SOL    HW264832   1.620   7.219   6.557  0.5043  0.3325 -0.8036
19198SOL     OW64833   3.482   1.012   8.287 -0.4106  0.4577 -1.1108
19198SOL    HW164834   3.578   1.018   8.292 -0.3372 -1.3491  0.6065
19198SOL    HW264835   3.452   1.043   8.372 -1.1068 -1.9854 -0.3849
19199SOL     OW64836   2.404   1.713   3.671 -0.6412  0.5592  0.0739
19199SOL    HW164837   2.424   1.729   3.579 -3.2472  0.0739 -0.6516
19199SOL    HW264838   2.425   1.796   3.714  0.0831  0.9854 -1.0477
19200SOL     OW64839  11.643   3.203   8.193  0.5931  0.4824  0.5421
19200SOL    HW164840  11.631   3.108   8.201 -1.0872  0.6795  0.7074
19200SOL    HW264841  11.738   3.214   8.182  0.7808 -1.2378  0.0658
19201SOL     OW64842  12.547  12.500   2.055 -0.3015 -0.1973 -0.2970
19201SOL    HW164843  12.458  12.500   2.091 -0.1731 -2.5924  0.1351
19201SOL    HW264844  12.585  12.582   2.087 -1.6167 -0.1778  1.3686
19202SOL     OW64845  12.454   2.578   3.300  0.3271 -0.8654 -0.2116
19202SOL    HW164846  12.489   2.578   3.389 -0.1810  0.9828  0.0179
19202SOL    HW264847  12.375   2.525   3.305 -0.0769 -0.2007  0.6146
19203SOL     OW64848   5.867   1.486   1.019 -0.5433 -0.8360  0.2819
19203SOL    HW164849   5.772   1.486   1.031 -0.6639  0.8511 -0.3003
19203SOL    HW264850   5.900   1.425   1.084 -2.0865 -2.1323 -0.1010
19204SOL     OW64851   0.061   2.813   3.175  0.0820  0.8696 -0.3112
19204SOL    HW164852   0.058   2.870   3.099  1.2535  4.2057  1.9428
19204SOL    HW264853  -0.022   2.829   3.221  0.4490  0.8277  0.3857
19205SOL     OW64854   8.213  12.092   6.902 -0.1369 -0.2167 -0.0609
19205SOL    HW164855   8.124  12.121   6.921 -0.1771  0.1810 -0.8527
19205SOL    HW264856   8.261  12.110   6.983 -0.7827 -0.4984  0.3997
19206SOL     OW64857   5.993   2.382  10.087 -0.1704 -0.1106  0.2830
19206SOL    HW164858   5.905   2.420  10.096 -0.3886 -0.4894 -0.2043
19206SOL    HW264859   6.052   2.455  10.103 -0.5834  0.3574 -0.2771
19207SOL     OW64860   1.119   0.975   0.827  0.0496  0.3793 -0.1818
19207SOL    HW164861   1.154   1.052   0.782 -0.1811  0.0751 -0.8991
19207SOL    HW264862   1.028   0.998   0.846 -0.3167 -0.0860 -1.3009
19208SOL     OW64863  10.233   6.012   3.637  0.1172  0.0143 -0.4672
19208SOL    HW164864  10.156   6.068   3.640 -0.3346 -0.6077  0.0010
19208SOL    HW264865  10.216   5.951   3.565  0.1889 -0.1066 -0.3820
19209SOL     OW64866   0.563   2.514   8.399 -0.2234  0.7294 -0.0044
19209SOL    HW164867   0.534   2.448   8.462  1.7809  0.3091  0.5299
19209SOL    HW264868   0.563   2.469   8.315 -1.2005  0.7800 -0.0452
19210SOL     OW64869   8.303   0.399  10.829 -0.5380  0.4876 -0.3012
19210SOL    HW164870   8.254   0.439  10.757 -1.8210 -0.2141  0.1509
19210SOL    HW264871   8.236   0.365  10.888  0.5024 -0.8841  0.1397
19211SOL     OW64872  10.042  11.915   6.417 -0.0909  1.0559  0.4519
19211SOL    HW164873   9.950  11.893   6.432 -0.2632  1.5975  0.2067
19211SOL    HW264874  10.064  11.868   6.336  0.3388 -0.4297  1.3836
19212SOL     OW64875   6.555   9.522  12.200  0.2214 -0.4378 -0.2285
19212SOL    HW164876   6.528   9.569  12.279 -1.2311 -1.0894 -0.3027
19212SOL    HW264877   6.638   9.481  12.223  0.4630  0.4337  0.5169
19213SOL     OW64878   1.220   2.815   1.067 -0.4838  0.0389  0.2242
19213SOL    HW164879   1.250   2.783   1.152 -1.5882  0.8392  0.9329
19213SOL    HW264880   1.177   2.740   1.027  1.9311 -1.0083 -0.6253
19214SOL     OW64881   5.207   7.827  10.725  0.1552  0.4314  0.4918
19214SOL    HW164882   5.236   7.741  10.754  1.0720  0.5774  0.0382
19214SOL    HW264883   5.241   7.835  10.636 -2.5358  0.0143 -0.6659
19215SOL     OW64884   0.592   9.459   7.515  0.1071  0.4252  0.4858
19215SOL    HW164885   0.668   9.481   7.570  1.6254 -0.4108 -1.1597
19215SOL    HW264886   0.518   9.462   7.574  1.5573  0.3009  2.4125
19216SOL     OW64887   0.874   7.235  12.019 -0.3470  0.1370 -0.5065
19216SOL    HW164888   0.926   7.160  11.991  1.6020  1.6924 -1.2555
19216SOL    HW264889   0.784   7.213  11.992 -0.0869 -2.4554  0.5098
19217SOL     OW64890   5.499   4.908   5.881 -0.3165 -0.0282  0.2529
19217SOL    HW164891   5.479   4.999   5.900 -0.6309  0.6811 -2.9388
19217SOL    HW264892   5.538   4.910   5.793 -0.5615 -2.9759 -0.0158
19218SOL     OW64893   2.866   5.414   1.422 -0.2803  0.2739  0.0930
19218SOL    HW164894   2.868   5.465   1.504  2.1211 -0.9087  0.8440
19218SOL    HW264895   2.849   5.324   1.450  0.3992 -0.1221 -0.7296
19219SOL     OW64896  11.167   5.831   3.341 -0.0007 -0.0515 -0.1629
19219SOL    HW164897  11.095   5.893   3.347 -0.0936 -0.2401  0.8999
19219SOL    HW264898  11.129   5.747   3.367  0.9967  0.1939  2.3743
19220SOL     OW64899   9.051   0.914   3.590  0.2303 -0.8469  0.1057
19220SOL    HW164900   9.090   0.902   3.676  0.7659 -0.6321 -0.1036
19220SOL    HW264901   9.045   1.009   3.580 -0.9188 -0.8733  0.3871
19221SOL     OW64902  10.176  11.386   5.177  0.3057  0.0848  0.2771
19221SOL    HW164903  10.245  11.450   5.197  0.7530 -0.3165  0.0480
19221SOL    HW264904  10.223  11.310   5.142 -0.3569  0.3686 -1.3244
19222SOL     OW64905   9.440  10.074   5.523 -0.4174  0.0873  0.1521
19222SOL    HW164906   9.521  10.060   5.573  0.1854  0.0145 -0.8079
19222SOL    HW264907   9.383  10.121   5.583  1.0087  1.7901  0.2770
19223SOL     OW64908   4.043   8.589   6.935 -0.2810 -0.1286 -0.0283
19223SOL    HW164909   4.030   8.637   7.017 -0.9931 -1.5341  0.7210
19223SOL    HW264910   4.012   8.649   6.867  1.2674  1.4674  0.6006
19224SOL     OW64911   9.842   8.513   1.680  0.1768  0.3128  0.1254
19224SOL    HW164912   9.905   8.535   1.749  0.5913 -2.1763  0.6344
19224SOL    HW264913   9.886   8.538   1.599  0.6070  1.2216  0.6163
19225SOL     OW64914   8.292   8.551   0.736  0.2841 -0.0674  0.1179
19225SOL    HW164915   8.369   8.607   0.746 -0.0193  0.9081 -2.1972
19225SOL    HW264916   8.218   8.611   0.746 -0.0534 -0.0422 -2.0051
19226SOL     OW64917   6.899   6.742   1.790 -0.7343 -0.5305  0.3274
19226SOL    HW164918   6.894   6.705   1.878  0.5442  0.5564  0.8849
19226SOL    HW264919   6.910   6.836   1.803 -1.0068 -0.2849 -1.0096
19227SOL     OW64920   4.964   0.920   3.427  0.0879 -0.6290 -0.4350
19227SOL    HW164921   4.905   0.913   3.352 -1.0395 -2.8986  0.5390
19227SOL    HW264922   5.035   0.860   3.408 -0.3336 -1.4146  0.3715
19228SOL     OW64923   9.722   9.611  12.706 -0.5531 -0.1375 -0.4097
19228SOL    HW164924   9.696   9.603  12.797 -1.7015 -2.3247 -0.8529
19228SOL    HW264925   9.791   9.677  12.706 -1.6538  1.1037  1.7721
19229SOL     OW64926   0.725   6.982   7.456  0.2646  0.3162 -0.2313
19229SOL    HW164927   0.648   7.023   7.494 -0.1685 -1.3618  0.7974
19229SOL    HW264928   0.798   7.015   7.508 -0.1429 -0.6165  0.9777
19230SOL     OW64929   3.845  11.651   1.039  0.2917  0.2361 -0.1259
19230SOL    HW164930   3.783  11.668   0.968  1.2566  0.9215 -0.8186
19230SOL    HW264931   3.834  11.558   1.058  0.3013 -0.0508 -1.4407
19231SOL     OW64932   9.775   0.862  10.844  0.0707 -0.2466 -0.0609
19231SOL    HW164933   9.856   0.906  10.870 -1.2913  2.3620  0.1403
19231SOL    HW264934   9.708   0.896  10.904 -1.3479 -1.6167 -0.7755
19232SOL     OW64935   0.894   8.201   9.001 -0.3012  0.2066 -0.1474
19232SOL    HW164936   0.888   8.113   8.963 -0.1018 -0.1717  0.6686
19232SOL    HW264937   0.951   8.190   9.077 -2.2118  0.5422  1.4147
19233SOL     OW64938   5.887   9.565   0.784 -0.4976  0.2169  0.1401
19233SOL    HW164939   5.851   9.637   0.836  0.8273  0.7787  0.3336
19233SOL    HW264940   5.864   9.587   0.694  2.0650  2.3291 -0.1272
19234SOL     OW64941   3.735   1.823   5.193  0.1164  0.0369  0.0244
19234SOL    HW164942   3.724   1.910   5.232  1.0434 -0.0678  0.5325
19234SOL    HW264943   3.824   1.797   5.215 -0.7711 -1.9072  1.6786
19235SOL     OW64944   4.797  10.971   6.072  0.9312  0.2580 -0.3108
19235SOL    HW164945   4.822  11.019   5.993  2.0135 -0.7587 -0.6017
19235SOL    HW264946   4.860  10.999   6.138  0.3611  0.6967  0.0521
19236SOL     OW64947   3.617   1.457   3.598  0.4890  0.1536  0.0772
19236SOL    HW164948   3.541   1.477   3.543  1.6910  0.2700 -1.6350
19236SOL    HW264949   3.692   1.490   3.548  1.7580 -0.8058  1.2541
19237SOL     OW64950   3.917   6.418   9.392  0.2030  0.1990 -0.1079
19237SOL    HW164951   3.973   6.412   9.314  0.5137 -1.9316  0.2186
19237SOL    HW264952   3.859   6.342   9.385 -2.9902  2.4324 -0.6028
19238SOL     OW64953   2.130   5.375   9.277 -0.4655  0.4242  0.3213
19238SOL    HW164954   2.151   5.408   9.190 -0.2581  1.0820  0.6157
19238SOL    HW264955   2.039   5.346   9.270 -0.1350 -0.5110 -0.3905
19239SOL     OW64956   8.587   3.323  10.436 -0.0770  0.4378  0.4164
19239SOL    HW164957   8.536   3.304  10.357  0.3108  0.7307  0.0902
19239SOL    HW264958   8.522   3.320  10.507 -0.3991  0.0166  0.1111
19240SOL     OW64959   0.251   0.802   8.270  0.1210  0.3220  0.3877
19240SOL    HW164960   0.197   0.786   8.192  0.0612  1.8781  0.0774
19240SOL    HW264961   0.275   0.714   8.301 -1.0727 -0.3581 -0.5191
19241SOL     OW64962   8.806   0.228  11.907  0.3873 -0.3243  0.2181
19241SOL    HW164963   8.832   0.289  11.976  1.9439 -0.4979 -0.1818
19241SOL    HW264964   8.844   0.263  11.827 -0.8327 -0.4882 -0.4724
19242SOL     OW64965   0.731  11.710   6.405 -0.2511  1.0085  0.7505
19242SOL    HW164966   0.730  11.716   6.501 -0.3931 -0.3918  0.8547
19242SOL    HW264967   0.754  11.619   6.387  0.8619  1.5107 -0.5651
19243SOL     OW64968   0.008   9.153  11.408  0.0349  0.3776  0.0390
19243SOL    HW164969  -0.050   9.145  11.484  1.2765 -0.4722  0.9146
19243SOL    HW264970   0.016   9.064  11.374 -0.7950  0.7913 -1.3531
19244SOL     OW64971   1.672   4.459   5.792 -0.0760 -0.3916  0.5205
19244SOL    HW164972   1.636   4.478   5.878  2.6074  1.2400  1.3996
19244SOL    HW264973   1.741   4.394   5.808 -0.0735 -0.6703 -0.5254
19245SOL     OW64974   4.431   8.368   5.066  0.2736 -0.5399 -0.7468
19245SOL    HW164975   4.421   8.443   5.008 -0.3065 -0.6212 -0.7547
19245SOL    HW264976   4.373   8.387   5.140  2.7085  0.6935  0.9984
19246SOL     OW64977   1.105  10.814   8.120 -0.0315  0.4715 -0.1484
19246SOL    HW164978   1.071  10.857   8.041  1.9055 -2.1431 -2.6417
19246SOL    HW264979   1.073  10.724   8.112 -0.7209  0.3657  2.7596
19247SOL     OW64980   2.481   5.256   2.247  0.6962  0.0346 -0.6653
19247SOL    HW164981   2.574   5.240   2.238  0.6556  0.3463 -1.8857
19247SOL    HW264982   2.448   5.185   2.301  1.5693 -0.3255 -0.6088
19248SOL     OW64983   5.773  11.453   0.043 -0.1443 -0.1568  0.4800
19248SOL    HW164984   5.782  11.498  -0.041 -0.4240 -0.8181  0.0850
19248SOL    HW264985   5.765  11.523   0.107  1.4347  0.3964  0.1268
19249SOL     OW64986   2.737   9.588   4.326 -0.3492 -0.3005 -0.1149
19249SOL    HW164987   2.655   9.538   4.321 -0.9085  0.6733 -1.3060
19249SOL    HW264988   2.709   9.677   4.347  0.5253 -0.1993  0.6968
19250SOL     OW64989   1.528   7.499   3.196  0.2120 -0.6277 -0.1319
19250SOL    HW164990   1.443   7.460   3.176  0.1688 -1.0832  0.9013
19250SOL    HW264991   1.577   7.430   3.241  2.0479 -1.2113 -2.7742
19251SOL     OW64992   7.230   2.189  11.627  0.4079  0.4122 -0.0438
19251SOL    HW164993   7.282   2.110  11.624  2.0190  1.4228  0.1999
19251SOL    HW264994   7.155   2.166  11.683  1.7694 -0.4251  1.5371
19252SOL     OW64995  10.663   5.945   7.296  0.3542  0.0416  0.8654
19252SOL    HW164996  10.693   5.993   7.373 -0.8653 -0.9437  2.0013
19252SOL    HW264997  10.571   5.970   7.285  0.3826 -0.1787 -0.0003
19253SOL     OW64998   5.193  12.698   0.510 -0.7014  0.2436 -0.0003
19253SOL    HW164999   5.277  12.694   0.554  0.3341  0.3992 -1.8529
19253SOL    HW265000   5.183  12.612   0.469 -1.3529  0.2941  0.0392
19254SOL     OW65001   6.492   8.177  10.978 -0.0182  0.1946 -0.4631
19254SOL    HW165002   6.439   8.098  10.990 -0.1147  0.4493  1.1059
19254SOL    HW265003   6.433   8.240  10.938 -0.1079 -0.3464 -1.1937
19255SOL     OW65004  10.472   4.761   0.652  0.4064 -0.5623  0.2425
19255SOL    HW165005  10.541   4.827   0.652  0.3941 -0.4698 -2.3222
19255SOL    HW265006  10.507   4.689   0.704  1.4295  0.4472  0.9836
19256SOL     OW65007  12.476   9.534   8.262 -0.1187 -0.0885  0.4969
19256SOL    HW165008  12.383   9.524   8.241  0.5257 -1.2341 -2.4540
19256SOL    HW265009  12.498   9.623   8.234  0.1065 -0.6109 -1.0867
19257SOL     OW65010  12.636   9.740  11.480 -0.1237  0.0292  0.4682
19257SOL    HW165011  12.557   9.782  11.514  0.4825 -0.4735  2.5879
19257SOL    HW265012  12.676   9.807  11.424 -0.5338  1.3373  1.6815
19258SOL     OW65013   3.056   1.041  11.378  0.4973  0.1910 -0.4253
19258SOL    HW165014   3.099   0.962  11.408  0.2983 -0.1426 -1.0087
19258SOL    HW265015   3.041   1.027  11.285  0.6501  1.0008 -0.5800
19259SOL     OW65016  12.054   5.481  10.962 -0.1139  0.7664  0.2322
19259SOL    HW165017  12.127   5.468  11.022 -1.8654  1.1006  2.5878
19259SOL    HW265018  11.976   5.468  11.016 -1.8673  4.1118 -1.1715
19260SOL     OW65019   9.958   4.366  11.749 -0.1000  0.2428 -0.2476
19260SOL    HW165020   9.962   4.461  11.738  0.0442  0.1279 -1.3534
19260SOL    HW265021   9.899   4.352  11.822  0.3195  1.2048  0.2876
19261SOL     OW65022  12.136   4.130  11.514  0.3606  0.0879 -0.3196
19261SOL    HW165023  12.151   4.223  11.530 -0.1819  0.2772 -0.8290
19261SOL    HW265024  12.188   4.085  11.579 -0.0864  0.7689  0.5323
19262SOL     OW65025   0.480   9.793   4.674 -0.4115  0.5997  0.4734
19262SOL    HW165026   0.414   9.782   4.605 -0.6537 -1.8951  1.0286
19262SOL    HW265027   0.563   9.776   4.630 -0.6404 -2.0625  0.9159
19263SOL     OW65028   1.941   2.141  11.307 -0.2742 -0.6711  0.1232
19263SOL    HW165029   1.978   2.159  11.393 -0.7903  1.5222 -0.0674
19263SOL    HW265030   2.016   2.127  11.250  0.3563  2.4935 -0.0015
19264SOL     OW65031  10.717   0.475  12.660  0.4382  0.2104  0.2991
19264SOL    HW165032  10.687   0.566  12.663 -1.2664 -0.2096 -1.5518
19264SOL    HW265033  10.637   0.424  12.645  1.4955 -1.5009  0.2115
19265SOL     OW65034   8.121   7.804   4.270 -0.5518 -0.0792  0.5014
19265SOL    HW165035   8.101   7.780   4.180 -1.6430  2.1143  0.1096
19265SOL    HW265036   8.208   7.766   4.285 -0.7064 -1.2124 -1.1589
19266SOL     OW65037   6.913   2.182   4.531 -0.5405 -0.3364  0.0555
19266SOL    HW165038   6.829   2.139   4.547 -0.6780  0.1817  0.7682
19266SOL    HW265039   6.970   2.112   4.500 -0.7726 -1.0326  1.1608
19267SOL     OW65040  12.680   6.190   4.871 -0.1563 -0.3425 -0.0643
19267SOL    HW165041  12.694   6.272   4.823 -0.8516 -0.0429  0.2347
19267SOL    HW265042  12.586   6.188   4.890 -0.4702 -2.0430 -1.5415
19268SOL     OW65043   2.096  11.280  10.729 -0.1127  0.0294 -0.5731
19268SOL    HW165044   2.059  11.256  10.644 -2.4079  0.6772  0.1632
19268SOL    HW265045   2.132  11.199  10.764 -1.3300 -0.7793 -1.1526
19269SOL     OW65046  11.921   8.097   7.620  0.2286 -0.0750  0.0137
19269SOL    HW165047  11.920   8.012   7.576 -0.8669 -0.7221  1.2193
19269SOL    HW265048  11.958   8.078   7.706  0.5506  0.7973  0.0771
19270SOL     OW65049   0.573   0.927   7.273 -0.5433  0.2010 -0.3281
19270SOL    HW165050   0.546   0.895   7.187 -2.5740  1.0464 -0.0615
19270SOL    HW265051   0.637   0.996   7.255  0.6499 -1.0394 -1.0394
19271SOL     OW65052  10.056   9.835   8.226 -0.6005 -0.1893 -0.6873
19271SOL    HW165053  10.075   9.772   8.295 -1.1691 -0.5050 -0.8147
19271SOL    HW265054  10.022   9.783   8.154 -0.7186  0.2213 -0.9318
19272SOL     OW65055   3.363   1.985   6.771 -0.2998 -0.1207 -0.0429
19272SOL    HW165056   3.310   1.953   6.698 -0.1585 -1.4182  0.3986
19272SOL    HW265057   3.412   1.908   6.801  1.2225  0.8439  0.0969
19273SOL     OW65058   4.290   1.997   2.506  0.4423 -0.0434 -0.3500
19273SOL    HW165059   4.384   1.987   2.519  0.1967 -0.5643  1.3057
19273SOL    HW265060   4.253   1.990   2.594 -1.1815 -0.3043 -1.0146
19274SOL     OW65061   6.202   3.539   9.147  0.1420  0.4316  0.0582
19274SOL    HW165062   6.218   3.504   9.060 -0.5818 -1.2274  0.5499
19274SOL    HW265063   6.120   3.588   9.140  1.0114  1.8475 -0.5718
19275SOL     OW65064   5.479   8.336   8.069 -0.0474  0.5822  0.6020
19275SOL    HW165065   5.519   8.336   7.982  0.8325 -1.3578  0.9654
19275SOL    HW265066   5.460   8.429   8.087  0.3914  1.0792 -1.3468
19276SOL     OW65067   9.011   0.008  12.183  0.1308  0.0369  0.0385
19276SOL    HW165068   8.945   0.001  12.114 -0.4150  1.0693  0.4220
19276SOL    HW265069   8.965  -0.019  12.262 -0.2146  1.8659  0.5047
19277SOL     OW65070   4.561  11.609   3.105 -0.5880 -0.5788 -0.4808
19277SOL    HW165071   4.543  11.574   3.193 -1.5114 -0.9395 -0.8020
19277SOL    HW265072   4.653  11.633   3.108  0.1887 -3.2160 -0.2829
19278SOL     OW65073   9.618   7.650   7.473  0.1632 -0.3804 -0.2841
19278SOL    HW165074   9.687   7.628   7.410  0.2317 -0.8096 -0.0707
19278SOL    HW265075   9.542   7.671   7.420  0.6158  0.6598 -0.5383
19279SOL     OW65076  12.217   5.342   1.361  0.1846  0.2141 -0.7049
19279SOL    HW165077  12.202   5.293   1.280 -0.3483  0.5373 -0.8010
19279SOL    HW265078  12.174   5.289   1.428 -1.1207  0.9521 -0.9270
19280SOL     OW65079   9.549   2.819   0.279  0.6554 -0.4054 -0.2344
19280SOL    HW165080   9.472   2.865   0.247  0.8639  0.8811  0.9941
19280SOL    HW265081   9.519   2.731   0.298  0.1589 -0.7503 -2.3315
19281SOL     OW65082   7.482   0.720   0.590 -0.0280  0.1404  0.7902
19281SOL    HW165083   7.560   0.746   0.541 -0.5434  0.4903  0.1388
19281SOL    HW265084   7.446   0.647   0.540  0.5383 -0.8188  1.7498
19282SOL     OW65085   4.749   1.604   0.012  0.7112  0.2835 -0.0440
19282SOL    HW165086   4.654   1.613   0.023  0.8662  1.0269  0.8100
19282SOL    HW265087   4.784   1.615   0.100  1.9882  5.4238 -0.8674
19283SOL     OW65088   7.334   3.246   0.162  0.3587  0.2809  0.0477
19283SOL    HW165089   7.312   3.158   0.194  0.5969  0.1707 -0.0925
19283SOL    HW265090   7.358   3.294   0.241  1.3509 -0.1082 -0.0081
19284SOL     OW65091   3.721   4.512   6.273 -0.3201  0.4386  0.2318
19284SOL    HW165092   3.706   4.541   6.363 -1.3324  0.7353 -0.0150
19284SOL    HW265093   3.811   4.482   6.272  0.0272  1.3932  1.0926
19285SOL     OW65094   6.261   7.567   0.283  0.0408 -0.8446 -0.3315
19285SOL    HW165095   6.192   7.620   0.323  0.6282 -1.0472  1.0212
19285SOL    HW265096   6.260   7.591   0.190 -0.4421  0.7070  0.0481
19286SOL     OW65097   8.728   9.991   4.856  0.1162 -0.4611  0.1866
19286SOL    HW165098   8.768   9.905   4.848  1.7872  0.1179  1.6976
19286SOL    HW265099   8.801  10.050   4.877 -1.1000  1.1776  0.0149
19287SOL     OW65100   3.642   8.237   0.636  0.2005 -0.2681  0.4161
19287SOL    HW165101   3.554   8.272   0.626 -0.8973 -2.3480  2.0334
19287SOL    HW265102   3.696   8.288   0.576 -1.8101  2.0454  0.4594
19288SOL     OW65103   6.532   8.651   0.701  0.3874  0.2120 -0.5590
19288SOL    HW165104   6.604   8.636   0.762  0.1561  0.4481 -0.2229
19288SOL    HW265105   6.567   8.624   0.616  0.3869 -1.0648 -0.1765
19289SOL     OW65106   7.022   3.134   9.773  0.2736 -0.0093 -0.3951
19289SOL    HW165107   6.971   3.156   9.851 -1.1666 -1.2512 -0.9352
19289SOL    HW265108   7.065   3.215   9.749 -1.6525  1.1781 -0.0333
19290SOL     OW65109   9.693   6.997  10.446 -0.2947  0.6131  0.1611
19290SOL    HW165110   9.671   6.964  10.534 -0.6306  0.0896 -0.1150
19290SOL    HW265111   9.788   7.009  10.449  0.1371 -2.0279 -0.2284
19291SOL     OW65112   9.657   2.178   0.180  0.5424 -0.2309  0.6449
19291SOL    HW165113   9.709   2.234   0.122  0.2296 -0.8407 -0.2398
19291SOL    HW265114   9.690   2.090   0.165 -0.5770 -0.6038  0.2192
19292SOL     OW65115   6.800   4.902  12.657 -0.1035 -0.4419  0.4838
19292SOL    HW165116   6.781   4.830  12.718 -0.7927 -1.1830 -0.5686
19292SOL    HW265117   6.744   4.884  12.581 -0.4724  1.3519  0.3014
19293SOL     OW65118   8.113  12.601   2.487  0.4991 -0.7219  0.3693
19293SOL    HW165119   8.034  12.643   2.454 -0.2503 -2.7038 -0.5245
19293SOL    HW265120   8.114  12.619   2.581  0.3973  1.4770 -0.0120
19294SOL     OW65121  12.287   8.027  10.659 -0.4041 -0.0551  1.0259
19294SOL    HW165122  12.383   8.023  10.665 -0.4752 -0.3143  2.3459
19294SOL    HW265123  12.268   8.014  10.566  0.8395 -0.0716  0.7587
19295SOL     OW65124   9.074   0.454   9.173  0.7628 -0.1483 -0.6113
19295SOL    HW165125   9.100   0.417   9.257  1.5237 -0.9195 -1.1663
19295SOL    HW265126   9.095   0.547   9.179 -2.2855  0.5523  1.2588
19296SOL     OW65127   5.636   3.623   7.741 -0.4678  0.5196  0.1295
19296SOL    HW165128   5.620   3.568   7.664 -1.6955 -0.9247  1.3625
19296SOL    HW265129   5.718   3.589   7.777  1.4768  2.7688 -1.7681
19297SOL     OW65130   7.539   6.940   6.524  0.6071 -0.1673 -0.4939
19297SOL    HW165131   7.580   6.950   6.438 -0.0701  0.2583 -0.7808
19297SOL    HW265132   7.481   7.016   6.531  2.0739  0.8596  1.1679
19298SOL     OW65133   9.232   3.434   7.590 -0.6231 -0.0774 -0.2255
19298SOL    HW165134   9.310   3.482   7.619 -0.8474  0.5385 -0.6416
19298SOL    HW265135   9.220   3.460   7.499 -1.5513  0.1374 -0.0432
19299SOL     OW65136   7.670   9.039   4.315 -0.4015 -0.3835  0.7349
19299SOL    HW165137   7.650   8.961   4.264  0.5799  0.1397 -0.5101
19299SOL    HW265138   7.608   9.105   4.285  0.2895 -0.0242  0.0643
19300SOL     OW65139   8.484  11.564   9.064 -0.1347  0.4381  0.2858
19300SOL    HW165140   8.499  11.639   9.006  0.2974  0.6656  0.6880
19300SOL    HW265141   8.559  11.564   9.123  0.8443 -1.3912 -0.8564
19301SOL     OW65142   6.604   5.253  11.508 -0.6315 -0.4634  0.5491
19301SOL    HW165143   6.646   5.233  11.424 -2.3905 -0.2027 -0.4592
19301SOL    HW265144   6.510   5.240  11.491 -1.2330  1.7214  1.8423
19302SOL     OW65145   1.585   2.398   8.317  0.2812 -0.0942  0.0805
19302SOL    HW165146   1.671   2.404   8.276 -0.4413 -0.1483 -1.5390
19302SOL    HW265147   1.560   2.306   8.306  0.5543 -0.3968  1.7454
19303SOL     OW65148  10.299  11.548   1.722 -0.2215  0.1323 -0.1113
19303SOL    HW165149  10.393  11.543   1.706 -0.3050  0.8842 -0.8797
19303SOL    HW265150  10.267  11.614   1.661 -1.2507 -0.0953  0.1556
19304SOL     OW65151   3.082   1.141   0.784  0.1257  0.2021 -0.2132
19304SOL    HW165152   3.134   1.070   0.823 -1.3634 -0.8367 -0.0425
19304SOL    HW265153   3.033   1.178   0.857 -0.5772  0.0978 -0.6211
19305SOL     OW65154   1.828   2.245   9.353 -0.2193  0.0459  0.0304
19305SOL    HW165155   1.883   2.275   9.281 -0.4031  0.8890  0.2259
19305SOL    HW265156   1.745   2.222   9.312 -0.0613 -0.2332 -0.1319
19306SOL     OW65157   6.742   3.186   6.372 -0.4193 -0.5817  0.0873
19306SOL    HW165158   6.786   3.101   6.376 -0.6021 -0.8086 -1.6786
19306SOL    HW265159   6.803   3.243   6.326 -0.7205 -0.0445  0.3378
19307SOL     OW65160  11.119   8.570  12.627  0.0076  0.4263  0.5012
19307SOL    HW165161  11.172   8.599  12.701  1.8352 -0.9870 -0.1869
19307SOL    HW265162  11.096   8.479  12.648  0.8611 -0.1123 -0.7895
19308SOL     OW65163  12.361   1.093  10.633 -0.3708  0.0366  0.3089
19308SOL    HW165164  12.444   1.120  10.672 -0.3212 -0.2836  0.4332
19308SOL    HW265165  12.383   1.070  10.543 -0.5275  1.0001  0.0156
19309SOL     OW65166   1.892   5.021   6.231 -0.5123 -0.6963  0.5112
19309SOL    HW165167   1.904   5.074   6.310  2.2986  1.2791 -1.0721
19309SOL    HW265168   1.966   5.045   6.175  0.1833 -5.2810 -0.9683
19310SOL     OW65169   6.095   5.466   2.321  0.3366  0.0292 -0.1765
19310SOL    HW165170   6.011   5.492   2.359  1.1664  0.1395  1.7249
19310SOL    HW265171   6.130   5.545   2.281 -0.1864  0.1310 -0.4341
19311SOL     OW65172   7.923  12.591   1.022 -0.2378 -0.3537  0.2971
19311SOL    HW165173   7.839  12.611   0.979 -0.5764 -0.6900  0.7886
19311SOL    HW265174   7.906  12.510   1.070  0.3934 -0.4547  0.3493
19312SOL     OW65175  12.019  10.630   1.914  0.0242 -0.2877 -0.5627
19312SOL    HW165176  11.945  10.655   1.860 -0.1079  1.3577  0.3211
19312SOL    HW265177  12.050  10.712   1.953  1.0578 -1.2036  0.6575
19313SOL     OW65178   9.267   1.761   5.659  0.6923  0.2155  0.0336
19313SOL    HW165179   9.312   1.758   5.574  2.2416 -1.3248  0.8505
19313SOL    HW265180   9.302   1.686   5.707 -1.8352 -0.2879  1.2350
19314SOL     OW65181   7.189   4.419   1.599 -0.0446 -0.6730 -0.1842
19314SOL    HW165182   7.232   4.383   1.677  0.2649  0.4173  0.1699
19314SOL    HW265183   7.242   4.388   1.526  0.7251 -0.2155  0.1746
19315SOL     OW65184   9.932  10.510  10.338 -0.5728  0.2560  0.7413
19315SOL    HW165185   9.907  10.532  10.248  1.4933  1.1882  0.3499
19315SOL    HW265186   9.907  10.418  10.348 -2.1990  0.5503 -0.2550
19316SOL     OW65187   8.454   5.642   6.332 -0.5298 -0.9408 -0.2859
19316SOL    HW165188   8.524   5.703   6.310 -2.1456  1.1112 -0.0833
19316SOL    HW265189   8.498   5.567   6.372  1.5319  0.2476 -0.2228
19317SOL     OW65190   3.506   1.195   3.620 -0.1044  0.1674 -0.3329
19317SOL    HW165191   3.561   1.273   3.618  0.9745 -0.5839 -1.3952
19317SOL    HW265192   3.448   1.204   3.545 -1.3175  0.8472  0.6541
19318SOL     OW65193  10.287   9.098   8.215 -0.5035  0.8985 -0.1639
19318SOL    HW165194  10.293   9.181   8.168  0.7284  0.9995  0.1297
19318SOL    HW265195  10.358   9.101   8.279  1.6523 -1.5944 -2.1605
19319SOL     OW65196   0.772  11.487  11.916  0.0696 -0.1480  0.2300
19319SOL    HW165197   0.863  11.472  11.888 -0.6095 -3.3893 -0.6347
19319SOL    HW265198   0.727  11.515  11.836  0.4065  2.5354  0.8815
19320SOL     OW65199  11.161   0.245  10.768  0.7925 -0.1829 -0.0001
19320SOL    HW165200  11.133   0.335  10.753  0.6923 -0.2936 -0.4978
19320SOL    HW265201  11.255   0.251  10.784  0.7837  0.0102 -0.0193
19321SOL     OW65202   7.035   1.802  11.539 -0.2234 -0.0700 -0.5538
19321SOL    HW165203   6.964   1.766  11.486 -0.7672 -0.0492  0.1342
19321SOL    HW265204   7.107   1.739  11.529 -1.5422 -2.1025  1.5489
19322SOL     OW65205   0.199  10.459   4.515 -0.0659  0.6823 -0.0675
19322SOL    HW165206   0.249  10.389   4.474 -0.0609 -0.6695  2.1090
19322SOL    HW265207   0.116  10.418   4.541  0.6361  0.9212  2.8615
19323SOL     OW65208   3.476  12.433   9.507 -0.2929  0.3041 -0.4448
19323SOL    HW165209   3.479  12.501   9.574 -0.8887  0.8479 -0.9526
19323SOL    HW265210   3.395  12.450   9.459 -0.7998 -1.1758 -0.1644
19324SOL     OW65211   0.451   4.535   5.241  0.2317 -0.3916  0.7948
19324SOL    HW165212   0.400   4.601   5.289  0.3910 -1.0404  1.8786
19324SOL    HW265213   0.536   4.577   5.227 -0.0101  0.0253  0.5467
19325SOL     OW65214  12.593  11.866   5.395  0.4605  0.1015  0.1724
19325SOL    HW165215  12.636  11.841   5.477 -0.3448  0.8714  0.8487
19325SOL    HW265216  12.531  11.935   5.420 -0.8182 -0.6266 -0.8534
19326SOL     OW65217   4.176   9.088   7.492  0.2802  0.1226 -0.3682
19326SOL    HW165218   4.158   9.181   7.493 -0.1251  0.0524 -0.9659
19326SOL    HW265219   4.245   9.076   7.557  0.6498  0.9009 -0.6108
19327SOL     OW65220   9.679   2.766   6.152  0.1888 -0.4695 -0.0852
19327SOL    HW165221   9.608   2.703   6.162 -0.4316 -0.0190 -1.4591
19327SOL    HW265222   9.750   2.715   6.112  0.2451 -0.6410  0.2243
19328SOL     OW65223   7.662   2.953   4.001  0.2226  0.6510 -0.2143
19328SOL    HW165224   7.618   2.936   4.084  0.8553 -0.5510 -0.1035
19328SOL    HW265225   7.653   2.871   3.952  0.9401  0.9281 -0.8301
19329SOL     OW65226  10.867   9.457  12.265  1.1543  0.0376 -0.1262
19329SOL    HW165227  10.875   9.527  12.329  0.2975  0.5545 -0.5735
19329SOL    HW265228  10.957   9.436  12.241  1.4946 -0.2209  1.2943
19330SOL     OW65229   9.202  10.082   6.604  0.2766  0.4515  0.0393
19330SOL    HW165230   9.184  10.100   6.511  1.2736 -0.6231 -0.3927
19330SOL    HW265231   9.120  10.044   6.637 -0.0244  0.6548 -0.4578
19331SOL     OW65232  11.652   7.924   4.553  0.1558  0.1193  0.2846
19331SOL    HW165233  11.564   7.939   4.586 -0.3386  1.8041 -1.6006
19331SOL    HW265234  11.640   7.872   4.473  1.0648 -1.2651  1.0041
19332SOL     OW65235   8.565   8.871   7.027 -0.4643  0.0547  0.1176
19332SOL    HW165236   8.618   8.810   7.079 -0.4870  0.0495  0.1346
19332SOL    HW265237   8.573   8.955   7.072 -0.4065  0.0722  0.0753
19333SOL     OW65238  10.498   7.426  12.040 -0.9517 -0.1783 -0.2506
19333SOL    HW165239  10.531   7.469  11.961 -1.5097 -3.2401 -2.3181
19333SOL    HW265240  10.576   7.412  12.095 -0.1552 -0.0700 -1.3338
19334SOL     OW65241   9.198   3.934   4.761  0.3635 -0.5077 -0.1493
19334SOL    HW165242   9.138   4.006   4.744 -0.1494 -0.7803  0.4835
19334SOL    HW265243   9.148   3.873   4.815  0.2986 -2.0048 -1.8118
19335SOL     OW65244   5.599   1.213   8.237 -0.1447  0.1032  0.1477
19335SOL    HW165245   5.506   1.232   8.246  0.1927  1.8050  0.4200
19335SOL    HW265246   5.602   1.125   8.198 -1.8668  0.4196 -0.8035
19336SOL     OW65247   0.281  11.862  10.689  0.0063 -0.2362  0.1039
19336SOL    HW165248   0.260  11.848  10.597  0.2692 -0.2949  0.0535
19336SOL    HW265249   0.321  11.949  10.692 -2.2117  0.8326  0.5090
19337SOL     OW65250   2.001   4.013   2.129  0.3100 -0.0137 -0.5759
19337SOL    HW165251   1.983   3.921   2.149  0.2024  0.1556  0.1387
19337SOL    HW265252   1.917   4.048   2.100 -0.0556  0.2521  0.7245
19338SOL     OW65253   8.368   1.245   3.577  0.3733 -0.3468 -0.7958
19338SOL    HW165254   8.283   1.289   3.570  0.6023  0.0836 -0.9025
19338SOL    HW265255   8.413   1.268   3.496  0.4531 -0.8735 -0.9032
19339SOL     OW65256   4.214   7.526   5.240 -0.1631 -0.3877 -0.3662
19339SOL    HW165257   4.285   7.548   5.300  0.0218  0.7505 -0.9718
19339SOL    HW265258   4.137   7.516   5.296 -0.2385  1.7674 -0.0089
19340SOL     OW65259   3.847   5.115   5.778  0.1993  0.1333  0.4945
19340SOL    HW165260   3.917   5.136   5.840  2.1235  2.7905 -2.2981
19340SOL    HW265261   3.885   5.049   5.720 -0.4184 -0.0018  0.2353
19341SOL     OW65262  11.251   1.691   7.541  0.0108 -0.4894  0.2788
19341SOL    HW165263  11.217   1.749   7.474  0.1378 -2.9907 -2.1440
19341SOL    HW265264  11.328   1.736   7.575  0.1495  0.7221 -1.5170
19342SOL     OW65265   0.320  11.949   2.422 -0.8171 -0.4818  0.5983
19342SOL    HW165266   0.307  11.866   2.468  0.2151  0.1399  2.0737
19342SOL    HW265267   0.360  12.007   2.486 -0.3557  0.7902 -0.7695
19343SOL     OW65268  11.063   7.034   7.281  0.7416 -0.4468  0.0245
19343SOL    HW165269  11.106   7.116   7.258  1.6946 -1.4300 -1.9661
19343SOL    HW265270  10.995   7.023   7.214  2.0842 -2.3138 -1.1152
19344SOL     OW65271   0.574   3.106   6.077  0.3377 -0.1775 -0.0782
19344SOL    HW165272   0.626   3.035   6.115 -1.1196 -1.9281 -1.2073
19344SOL    HW265273   0.495   3.109   6.131  0.3279  0.5479 -0.1171
19345SOL     OW65274   2.042   0.936   6.311  0.2233  0.0002  0.5613
19345SOL    HW165275   2.063   1.029   6.306  0.8440  0.0180  2.5975
19345SOL    HW265276   2.123   0.892   6.285  0.4920  0.0488  1.2955
19346SOL     OW65277   6.708   9.340   1.522  0.1527  0.5745  0.0045
19346SOL    HW165278   6.696   9.373   1.433 -0.9064 -1.2200 -0.5815
19346SOL    HW265279   6.802   9.350   1.539  0.6348 -0.3170 -1.8655
19347SOL     OW65280  11.638   8.497   6.495 -0.4248  0.6061 -0.1250
19347SOL    HW165281  11.647   8.531   6.406 -0.9215  4.0016  1.0005
19347SOL    HW265282  11.728   8.478   6.522 -0.1147  1.0589 -0.8180
19348SOL     OW65283   1.064   6.366   7.143 -0.4797  0.2648  0.1444
19348SOL    HW165284   1.102   6.304   7.080  1.3913  1.6169 -0.1284
19348SOL    HW265285   1.013   6.426   7.090 -2.3974 -1.0155  0.4216
19349SOL     OW65286   2.376   2.547   6.152  0.5129 -0.2970 -0.0259
19349SOL    HW165287   2.429   2.487   6.098 -0.0777 -1.7711  0.9842
19349SOL    HW265288   2.291   2.549   6.109  0.7474  0.4297 -0.4750
19350SOL     OW65289   7.120   7.936   8.059  0.2122 -0.7372  0.1937
19350SOL    HW165290   7.190   7.971   8.114 -0.1945 -0.8633  0.8013
19350SOL    HW265291   7.066   8.012   8.036  0.0611 -0.7666  0.4444
19351SOL     OW65292   2.683   7.574   1.402 -0.1656  0.2036 -0.3157
19351SOL    HW165293   2.631   7.615   1.334 -0.9852 -0.1575  0.0740
19351SOL    HW265294   2.626   7.506   1.438  1.1123 -1.2188 -0.8755
19352SOL     OW65295   6.751   1.281   1.213  0.0677 -0.2868 -0.4423
19352SOL    HW165296   6.763   1.369   1.176  0.1460 -0.5279 -1.0019
19352SOL    HW265297   6.767   1.292   1.307  1.1865  0.0793 -0.6654
19353SOL     OW65298  10.722   0.207  11.961 -0.0863  0.6680  0.3465
19353SOL    HW165299  10.697   0.117  11.942  2.1557 -0.4288  2.0690
19353SOL    HW265300  10.696   0.221  12.052  1.2708  1.0565  0.7001
19354SOL     OW65301  12.307   0.758   6.187  0.1673  0.2261 -0.3581
19354SOL    HW165302  12.215   0.734   6.200 -0.0711  0.6569 -1.1896
19354SOL    HW265303  12.349   0.677   6.157 -0.5278  0.6446 -2.6540
19355SOL     OW65304   3.110   6.781   3.374 -0.4205  0.5440 -0.2793
19355SOL    HW165305   3.051   6.853   3.394  0.1457  0.9293  0.0213
19355SOL    HW265306   3.071   6.739   3.297 -0.7020  1.2220 -0.5110
19356SOL     OW65307  10.657  12.543   1.219  0.1249  0.3698 -0.5450
19356SOL    HW165308  10.707  12.473   1.262  0.1425 -0.2692 -1.5659
19356SOL    HW265309  10.587  12.497   1.172 -0.4171  1.1194 -0.4886
19357SOL     OW65310   7.859  10.037   6.749  0.3095  0.3660 -0.0167
19357SOL    HW165311   7.927  10.011   6.811  0.5891 -0.1142 -0.5113
19357SOL    HW265312   7.869  10.132   6.741 -0.3139  0.5709  1.3356
19358SOL     OW65313   9.031   5.941   9.559  0.5223  0.5432 -0.1498
19358SOL    HW165314   9.079   5.880   9.503  0.9388  1.7633 -1.1799
19358SOL    HW265315   8.941   5.908   9.559  0.3630  0.8844 -2.1160
19359SOL     OW65316   7.104   1.332  12.172 -0.3156 -0.0086 -0.2715
19359SOL    HW165317   7.171   1.271  12.201  0.7105  1.2594  0.1058
19359SOL    HW265318   7.146   1.418  12.174 -1.9804  0.8544  0.1282
19360SOL     OW65319   3.356   1.750   6.184  0.2701 -0.3467 -0.0813
19360SOL    HW165320   3.375   1.677   6.242 -0.7040 -0.2607  0.3687
19360SOL    HW265321   3.271   1.783   6.214  0.8020  1.1302 -0.1003
19361SOL     OW65322   2.552   9.715  11.648 -0.1755 -0.5271 -0.3789
19361SOL    HW165323   2.586   9.643  11.701  0.3661 -0.6945 -0.9353
19361SOL    HW265324   2.630   9.759  11.614 -0.5052 -0.3146 -0.8839
19362SOL     OW65325   9.395   8.644  12.519  0.1947  0.3314 -0.2185
19362SOL    HW165326   9.437   8.600  12.445 -1.6163 -2.0625  0.0566
19362SOL    HW265327   9.468   8.684  12.567  2.0000 -2.1019 -0.7131
19363SOL     OW65328   1.681   3.903  12.205  0.3026  0.6245  0.0401
19363SOL    HW165329   1.599   3.952  12.208 -0.5163 -0.6687 -0.3461
19363SOL    HW265330   1.684   3.855  12.288 -0.2066 -0.6447 -0.6429
19364SOL     OW65331   7.461  10.633  12.081  0.0288 -0.4500  0.3901
19364SOL    HW165332   7.455  10.711  12.136 -0.1879 -0.5092  0.4524
19364SOL    HW265333   7.503  10.664  12.001 -2.6828  0.4493 -0.8199
19365SOL     OW65334  10.672   3.440   6.346 -0.1670  0.0144  0.2813
19365SOL    HW165335  10.629   3.361   6.381 -0.3847  0.6899  1.6435
19365SOL    HW265336  10.601   3.487   6.302  0.2592 -1.1965 -1.8431
19366SOL     OW65337  11.697   6.316   2.177  0.5526  0.2164 -0.0492
19366SOL    HW165338  11.666   6.328   2.266  0.5928 -1.6866  0.2683
19366SOL    HW265339  11.778   6.367   2.173 -0.7655  2.4356  0.1571
19367SOL     OW65340   6.192  11.835   9.689  0.5623 -0.7233 -0.3636
19367SOL    HW165341   6.254  11.823   9.617  1.3338 -0.1626  0.1831
19367SOL    HW265342   6.158  11.923   9.677  0.7811 -0.5839  0.0169
19368SOL     OW65343   3.101   0.359   0.004  0.1424  0.0169 -0.5230
19368SOL    HW165344   3.184   0.360  -0.044  1.1527 -2.0134  1.0356
19368SOL    HW265345   3.045   0.298  -0.044 -0.7381  1.8019 -1.8918
19369SOL     OW65346   0.423   0.742   3.967 -0.1760  0.1476 -0.1311
19369SOL    HW165347   0.513   0.774   3.958 -0.3069  0.4532 -0.3974
19369SOL    HW265348   0.388   0.743   3.878 -0.8788  1.3436  0.1280
19370SOL     OW65349   9.206   7.957   1.773  0.0365 -0.1560 -0.4974
19370SOL    HW165350   9.301   7.955   1.782  0.0151  1.2917  0.4363
19370SOL    HW265351   9.188   8.039   1.726 -0.7806 -0.1103 -0.1257
19371SOL     OW65352   1.833   2.341   5.686  0.6092 -0.2497  0.6240
19371SOL    HW165353   1.892   2.390   5.744  0.7574 -1.6969  1.7439
19371SOL    HW265354   1.817   2.401   5.612  2.3262  0.7203  0.9851
19372SOL     OW65355   1.365   0.622   1.428 -0.2023 -0.0487  0.3306
19372SOL    HW165356   1.425   0.561   1.472 -0.5421 -0.6127  0.0204
19372SOL    HW265357   1.299   0.643   1.495 -0.8535 -1.0920  0.0337
19373SOL     OW65358   6.882   9.397   6.126  0.1819 -0.1131  0.4254
19373SOL    HW165359   6.923   9.459   6.185 -0.0126 -0.4753  0.9430
19373SOL    HW265360   6.947   9.327   6.116  0.4877  0.2655 -0.3236
19374SOL     OW65361   8.817   9.431   4.889 -0.0573 -0.6577 -0.0832
19374SOL    HW165362   8.850   9.415   4.801 -1.2740  0.3514 -0.7565
19374SOL    HW265363   8.888   9.405   4.947  1.8501  1.2259 -1.4477
19375SOL     OW65364   0.963   1.059   9.312  0.2896 -0.2555 -0.1100
19375SOL    HW165365   0.937   0.980   9.265  0.5746  0.0105 -0.7284
19375SOL    HW265366   1.018   1.028   9.384  0.8158 -0.5925 -0.6446
19376SOL     OW65367   7.697   0.021   0.239 -0.0225  0.0709 -0.1883
19376SOL    HW165368   7.769   0.050   0.296  0.3040  2.2159 -1.5923
19376SOL    HW265369   7.739   0.001   0.155 -0.8089 -0.7019 -0.4138
19377SOL     OW65370   9.905   8.382   9.519 -0.3273 -0.6981 -0.2730
19377SOL    HW165371   9.881   8.304   9.469 -1.7824 -0.8407  0.5869
19377SOL    HW265372   9.997   8.370   9.540  0.0039 -1.2151 -1.8468
19378SOL     OW65373  12.418   5.615   9.582 -0.2659 -0.1191 -0.8396
19378SOL    HW165374  12.430   5.701   9.542 -0.7231  0.2226 -0.2720
19378SOL    HW265375  12.505   5.591   9.613 -0.3159  0.6421 -0.0437
19379SOL     OW65376   6.456  11.108   1.463 -0.3159 -0.1742  0.5709
19379SOL    HW165377   6.512  11.078   1.534  1.2090  1.1961  0.0015
19379SOL    HW265378   6.478  11.051   1.389  0.7463  0.7038  0.1963
19380SOL     OW65379  10.601   6.354   5.776  0.0074 -0.2856  0.2034
19380SOL    HW165380  10.662   6.318   5.711  1.1595  0.6017  0.7657
19380SOL    HW265381  10.570   6.436   5.737 -2.7021 -1.7922 -1.1230
19381SOL     OW65382   8.077   9.329   1.449 -0.1984  0.3915 -0.2103
19381SOL    HW165383   8.139   9.272   1.495 -0.3816  1.6324  1.7256
19381SOL    HW265384   8.113   9.417   1.460 -1.9784  1.0911  0.5240
19382SOL     OW65385   2.833  12.617  11.242 -0.1716 -0.3515 -0.3824
19382SOL    HW165386   2.920  12.600  11.277 -0.7103 -0.3223  1.0330
19382SOL    HW265387   2.844  12.615  11.147  1.6601  1.1349 -0.2564
19383SOL     OW65388   1.680   4.325   5.167 -0.2512 -0.1389  0.1565
19383SOL    HW165389   1.753   4.387   5.168  0.0024 -0.4292 -0.3021
19383SOL    HW265390   1.720   4.240   5.183 -0.3826 -0.4057 -0.8623
19384SOL     OW65391   9.351   9.300   1.501 -0.2835  0.4004  0.1677
19384SOL    HW165392   9.408   9.238   1.547 -0.3852 -0.7294 -1.1819
19384SOL    HW265393   9.411   9.365   1.463 -0.1028  0.5765  0.7366
19385SOL     OW65394  10.187   8.080   6.560 -0.1200 -0.0628 -0.5233
19385SOL    HW165395  10.118   8.145   6.544 -1.2886 -1.5414 -1.9004
19385SOL    HW265396  10.156   8.031   6.637  0.9736  1.2314  0.7843
19386SOL     OW65397  10.002   3.842   3.079  0.2109  0.1836 -0.2667
19386SOL    HW165398   9.937   3.781   3.045  0.1218  0.3252 -0.3490
19386SOL    HW265399   9.985   3.846   3.173  1.3537 -1.3052  0.0452
19387SOL     OW65400   0.803   4.595   4.740 -0.4528  0.2301 -0.3845
19387SOL    HW165401   0.710   4.586   4.717 -0.6020  0.0820  0.2510
19387SOL    HW265402   0.825   4.512   4.783 -0.3890  0.7623  0.6479
19388SOL     OW65403   6.432   7.299   8.774 -0.1845 -0.6911 -0.3000
19388SOL    HW165404   6.369   7.227   8.770  1.2372 -1.9400 -1.1843
19388SOL    HW265405   6.401   7.362   8.709 -1.7051 -0.2246  0.8085
19389SOL     OW65406   4.755   4.996   3.801 -0.5184 -0.4866 -0.4121
19389SOL    HW165407   4.724   4.933   3.865 -0.2568 -0.0425  0.1612
19389SOL    HW265408   4.676   5.043   3.773 -0.6810 -0.9163 -0.6800
19390SOL     OW65409   4.759   6.056   9.112  0.3145  0.5744  0.2234
19390SOL    HW165410   4.758   6.092   9.201 -0.4920  0.9542  0.0637
19390SOL    HW265411   4.851   6.062   9.085  0.3252  1.8380  0.4753
19391SOL     OW65412   1.091   3.003   5.549 -0.0991 -0.2466  0.1889
19391SOL    HW165413   1.142   2.928   5.582  0.9388  0.7714  0.9747
19391SOL    HW265414   1.157   3.068   5.526 -0.9765  0.3067 -0.8237
19392SOL     OW65415   8.817  10.887   4.081  0.2886 -0.3611 -0.4348
19392SOL    HW165416   8.843  10.923   3.996 -1.3263  1.3785 -0.2431
19392SOL    HW265417   8.900  10.867   4.125  1.1567 -1.2942 -2.3692
19393SOL     OW65418   2.784   6.804   1.621 -0.3085 -0.3004 -0.5269
19393SOL    HW165419   2.779   6.730   1.560 -1.1056 -1.7426  1.2026
19393SOL    HW265420   2.697   6.844   1.617 -0.7051 -1.0358  0.3859
19394SOL     OW65421  10.927  12.041   1.944  0.0814 -0.0070  0.2315
19394SOL    HW165422  10.942  12.085   2.028  0.2369 -0.1315  0.2684
19394SOL    HW265423  10.950  11.950   1.960  0.4865  0.0429 -0.0541
19395SOL     OW65424   9.348   3.222   5.749  0.0311 -0.1594  0.2011
19395SOL    HW165425   9.254   3.216   5.735 -0.0200  1.4438 -0.4264
19395SOL    HW265426   9.382   3.135   5.729 -0.9502  0.0606 -2.9280
19396SOL     OW65427   6.300   7.390   3.917  0.0560  0.4490  0.6930
19396SOL    HW165428   6.243   7.458   3.880  0.6791  0.7872  0.3480
19396SOL    HW265429   6.367   7.439   3.965  0.4021  0.0654  0.5959
19397SOL     OW65430   1.363   4.577   6.299 -0.2574  1.2227  0.5131
19397SOL    HW165431   1.361   4.665   6.260 -1.1962  0.1804 -1.9825
19397SOL    HW265432   1.435   4.533   6.253 -0.0866  0.5217  1.4254
19398SOL     OW65433  11.864   1.767   9.089 -0.0518 -0.5406 -0.3506
19398SOL    HW165434  11.944   1.778   9.037 -0.6080  0.8161 -0.9681
19398SOL    HW265435  11.825   1.854   9.092 -0.0596 -0.5687  2.3804
19399SOL     OW65436   2.361   2.101   4.959 -0.7851 -0.1671 -0.1785
19399SOL    HW165437   2.298   2.056   4.902 -0.9112 -0.2827  0.0479
19399SOL    HW265438   2.310   2.170   5.001 -0.2876  1.0609 -1.5232
19400SOL     OW65439   6.611   2.480  12.142  0.0347  0.3247 -0.7679
19400SOL    HW165440   6.526   2.443  12.118 -0.0138 -0.0792 -0.0056
19400SOL    HW265441   6.660   2.405  12.178  0.4393  0.7181 -0.4941
19401SOL     OW65442   5.076   6.473  11.330  0.1737 -0.1584 -0.1235
19401SOL    HW165443   5.005   6.533  11.305 -0.3473 -1.1101 -1.0010
19401SOL    HW265444   5.044   6.430  11.409  0.7380  1.0015  0.7745
19402SOL     OW65445   8.796   4.967   5.930  0.0042 -0.2493 -0.6821
19402SOL    HW165446   8.826   5.058   5.927  3.5605 -1.1282  1.8744
19402SOL    HW265447   8.732   4.965   6.001 -0.7183  0.3576 -1.3015
19403SOL     OW65448   8.390  11.415   7.105  0.2406 -0.2393 -0.1255
19403SOL    HW165449   8.480  11.393   7.128  0.4303 -0.3593 -0.9501
19403SOL    HW265450   8.397  11.493   7.051 -0.1455 -0.2603 -0.2141
19404SOL     OW65451   4.497  11.047  11.161  0.1024 -0.6158 -0.3428
19404SOL    HW165452   4.446  11.079  11.086 -0.3517 -0.6514 -0.0566
19404SOL    HW265453   4.588  11.052  11.133 -0.0971 -1.2914 -1.1609
19405SOL     OW65454   2.969   7.973   0.843  0.4161  0.6754  0.0327
19405SOL    HW165455   2.927   8.059   0.841 -0.2123  0.3759 -0.1460
19405SOL    HW265456   2.906   7.917   0.890  0.4727  0.1442 -0.5152
19406SOL     OW65457  11.446   6.884   4.486  0.2399 -0.1479  0.5652
19406SOL    HW165458  11.505   6.821   4.445 -1.3255 -1.1789 -0.1533
19406SOL    HW265459  11.372   6.891   4.427 -0.1025  1.6240  1.1313
19407SOL     OW65460  12.584   6.996   1.581 -0.0121  0.8294  0.1497
19407SOL    HW165461  12.585   6.914   1.531 -0.6528  0.3213  0.9544
19407SOL    HW265462  12.628   7.059   1.524  2.3047 -0.5382  0.3045
19408SOL     OW65463   0.910   0.860   6.493 -0.0990  0.4485  0.3852
19408SOL    HW165464   0.972   0.851   6.421 -0.2623  1.9597  0.0195
19408SOL    HW265465   0.867   0.774   6.499  2.5053 -0.8939  1.1650
19409SOL     OW65466  12.013  11.857   2.828  0.2619  0.0668  0.3990
19409SOL    HW165467  12.074  11.928   2.850  2.1502 -2.1931  3.3460
19409SOL    HW265468  12.060  11.804   2.763  0.2417 -0.1825  0.5853
19410SOL     OW65469   3.328   6.051   7.903 -0.0746  0.2899  0.4169
19410SOL    HW165470   3.318   5.964   7.863  1.1805 -0.5717  1.8519
19410SOL    HW265471   3.253   6.059   7.962 -0.1857  0.1730  0.2930
19411SOL     OW65472   5.325   1.767   4.179 -0.0004 -0.1904  0.2899
19411SOL    HW165473   5.256   1.778   4.244 -0.7974 -0.0338 -0.5659
19411SOL    HW265474   5.299   1.691   4.127  0.8951 -0.6366  0.4694
19412SOL     OW65475  10.885  10.734   9.365 -0.2273  1.0554 -0.2577
19412SOL    HW165476  10.857  10.823   9.347  0.8750  1.9693  2.1544
19412SOL    HW265477  10.807  10.690   9.399 -0.4992  1.4031 -0.4280
19413SOL     OW65478   4.397   9.970   7.755  0.8196  0.2661 -0.0631
19413SOL    HW165479   4.316  10.020   7.740 -0.6505 -2.1730 -0.8235
19413SOL    HW265480   4.455   9.997   7.684 -0.5602 -0.2926 -1.4451
19414SOL     OW65481   1.079   5.986   4.165  0.0080 -0.5012  0.3782
19414SOL    HW165482   0.994   5.957   4.132 -0.5048  1.4109 -0.0481
19414SOL    HW265483   1.142   5.938   4.111 -0.7961 -0.7337 -0.3863
19415SOL     OW65484   7.726   5.894   3.434 -0.0190  0.0551  0.5832
19415SOL    HW165485   7.677   5.879   3.514  1.4296  0.4177  1.5854
19415SOL    HW265486   7.791   5.960   3.458  0.3180  0.3075 -0.9467
19416SOL     OW65487   2.887   4.104  10.769 -0.0001 -0.6301  0.1239
19416SOL    HW165488   2.816   4.143  10.821 -0.3080 -1.0652  0.0353
19416SOL    HW265489   2.957   4.169  10.772 -0.0859 -0.5615  0.9221
19417SOL     OW65490   5.918   1.447   5.518 -0.2254 -0.0565 -0.2510
19417SOL    HW165491   5.850   1.472   5.581  1.4083 -2.5613  2.7857
19417SOL    HW265492   5.896   1.357   5.494  1.9465 -0.9411  0.8596
19418SOL     OW65493   4.964   5.208  12.320 -0.4383 -0.1029  0.1080
19418SOL    HW165494   4.921   5.194  12.404 -0.0656  0.2524  0.3581
19418SOL    HW265495   4.931   5.137  12.264 -1.5445  0.3034  0.2123
19419SOL     OW65496  11.156  11.394  12.632 -0.2505 -0.4078  0.2296
19419SOL    HW165497  11.159  11.304  12.602  0.8834 -0.5371  0.6852
19419SOL    HW265498  11.229  11.437  12.587  0.0301 -0.0453  1.0229
19420SOL     OW65499   7.892   9.638   4.372 -0.1420  0.4531 -0.4956
19420SOL    HW165500   7.829   9.626   4.301  1.3609 -0.1279 -1.8008
19420SOL    HW265501   7.858   9.586   4.445 -0.6174 -0.7390 -1.5432
19421SOL     OW65502  11.380   5.296   0.469 -0.4039 -0.6465  0.6841
19421SOL    HW165503  11.340   5.281   0.554  0.4272 -0.2086  1.1700
19421SOL    HW265504  11.460   5.244   0.471 -0.7033 -1.1534 -0.0915
19422SOL     OW65505   9.244   4.995   1.452  0.1220 -0.2536  0.4599
19422SOL    HW165506   9.255   4.905   1.482  0.4247 -0.3283  0.1262
19422SOL    HW265507   9.289   5.048   1.518  1.1323 -0.4460 -0.0566
19423SOL     OW65508   9.768   0.049   2.692  0.3795 -0.2724  0.8040
19423SOL    HW165509   9.783   0.103   2.770  0.7771 -0.6806  1.0169
19423SOL    HW265510   9.846  -0.007   2.686 -0.4682 -1.5441  1.1737
19424SOL     OW65511  10.595   4.499   6.762  0.1375 -0.1141  0.1044
19424SOL    HW165512  10.590   4.583   6.808 -1.1446 -1.8077  3.4073
19424SOL    HW265513  10.689   4.477   6.763  0.3355  0.7151  0.3034
19425SOL     OW65514  11.203   3.444   7.286 -0.2072  0.2274  0.1204
19425SOL    HW165515  11.293   3.414   7.298  0.1051  0.9693 -0.2872
19425SOL    HW265516  11.195   3.519   7.345 -0.2920  0.6880 -0.4750
19426SOL     OW65517   1.739   9.508   8.656 -0.3282 -0.0665 -0.1895
19426SOL    HW165518   1.776   9.564   8.588 -1.2954 -0.9846 -1.5274
19426SOL    HW265519   1.809   9.500   8.721  0.5376  1.0401 -0.9459
19427SOL     OW65520   0.095   7.416   2.195 -0.1098 -0.2991  0.0264
19427SOL    HW165521   0.162   7.400   2.129  1.7006  2.1675  1.1312
19427SOL    HW265522   0.138   7.471   2.261 -1.9987 -2.0758  2.9844
19428SOL     OW65523   2.519   1.562  11.497 -0.3825  0.5785 -0.2024
19428SOL    HW165524   2.515   1.506  11.419 -0.5586 -0.7166  0.6986
19428SOL    HW265525   2.474   1.642  11.471  0.0914  0.4167 -1.6176
19429SOL     OW65526   9.820   9.058   4.316 -0.2506  0.5488 -0.2025
19429SOL    HW165527   9.850   9.121   4.252  1.3161 -1.4368 -1.5538
19429SOL    HW265528   9.790   8.983   4.265  0.6907 -0.9593  1.3360
19430SOL     OW65529   7.420   0.010   4.578 -0.2468  0.2552 -0.2750
19430SOL    HW165530   7.471   0.045   4.651  0.4754  2.5818 -1.8061
19430SOL    HW265531   7.484  -0.027   4.518 -0.5709  0.7624 -0.9539
19431SOL     OW65532   5.158   4.665  10.622  0.1362 -0.2935 -0.7117
19431SOL    HW165533   5.096   4.592  10.630 -0.2948  0.1673  0.1966
19431SOL    HW265534   5.242   4.627  10.648 -0.0266 -0.5534 -0.5561
19432SOL     OW65535   3.812   2.767   9.103 -0.2512  0.4131 -0.1559
19432SOL    HW165536   3.849   2.700   9.159 -0.5815 -0.1629 -0.6167
19432SOL    HW265537   3.841   2.744   9.015  0.1747  1.2484 -0.2449
19433SOL     OW65538   0.437   9.632   9.321 -0.2482 -0.1697 -0.0161
19433SOL    HW165539   0.519   9.593   9.353 -0.6885 -1.1288 -0.0238
19433SOL    HW265540   0.435   9.609   9.228 -0.0897  0.6465 -0.2299
19434SOL     OW65541   2.127   6.748   8.565 -0.4478  0.4464  0.7822
19434SOL    HW165542   2.159   6.784   8.482  0.9372 -2.6619 -0.1949
19434SOL    HW265543   2.205   6.741   8.620 -0.5520 -1.2473  0.7822
19435SOL     OW65544  11.829   5.749  10.985  0.2953  0.2190  0.5146
19435SOL    HW165545  11.745   5.726  11.023  1.0462 -0.1065  2.0601
19435SOL    HW265546  11.845   5.681  10.920 -0.0029 -0.5370  1.2070
19436SOL     OW65547   5.236  11.118   7.288  0.3558 -0.0044  0.4800
19436SOL    HW165548   5.254  11.091   7.197  0.2385  0.5357  0.2942
19436SOL    HW265549   5.271  11.207   7.294  0.7193 -0.1815  1.0848
19437SOL     OW65550   6.861   0.538   9.181  0.0433  0.2859 -0.4999
19437SOL    HW165551   6.925   0.479   9.140  1.1391  0.4812  0.8371
19437SOL    HW265552   6.777   0.513   9.144  0.4791 -2.1134 -0.0279
19438SOL     OW65553   3.087   6.349   6.593  0.4119  0.2512  0.1226
19438SOL    HW165554   3.076   6.345   6.688  0.4394  1.6591  0.1957
19438SOL    HW265555   3.158   6.411   6.579 -0.1514  0.7062 -0.8511
19439SOL     OW65556   5.558   8.666   6.221  0.0114  0.0819  0.1195
19439SOL    HW165557   5.579   8.671   6.315 -0.2015  0.3671  0.1510
19439SOL    HW265558   5.471   8.703   6.214  0.3313  0.7651 -0.2988
19440SOL     OW65559   7.911   1.831   2.953  0.3661  0.1231  0.3003
19440SOL    HW165560   7.895   1.918   2.989 -0.0315  0.0614  0.2738
19440SOL    HW265561   7.877   1.835   2.864  1.0009  0.1586  0.0591
19441SOL     OW65562   2.499   4.715   5.785 -0.1910 -0.1582  0.0732
19441SOL    HW165563   2.576   4.688   5.836 -0.3078 -1.0007 -0.1759
19441SOL    HW265564   2.536   4.761   5.709  0.0645 -0.3904  0.0528
19442SOL     OW65565   0.997   3.029   2.745 -0.3029  0.1894  0.0082
19442SOL    HW165566   0.935   3.052   2.675 -0.4936 -1.3208 -0.3466
19442SOL    HW265567   0.978   2.937   2.765  0.2000  0.4005  1.5977
19443SOL     OW65568   0.307   9.384   8.026 -0.4476 -0.1922  0.6608
19443SOL    HW165569   0.285   9.291   8.029 -0.9137 -0.0563  1.8680
19443SOL    HW265570   0.272   9.420   8.107 -2.0197  1.4265 -0.6575
19444SOL     OW65571   0.009   2.120  11.256 -0.5632  0.1097  0.0126
19444SOL    HW165572   0.074   2.070  11.206 -1.0340 -1.4069  0.8400
19444SOL    HW265573   0.057   2.150  11.333 -0.8031 -1.0163  0.6271
19445SOL     OW65574   2.192   2.002   1.308 -0.1412  0.1561 -0.1933
19445SOL    HW165575   2.148   1.964   1.384  0.8803 -1.1440 -0.2155
19445SOL    HW265576   2.239   2.077   1.344  1.2675 -1.1046  0.7534
19446SOL     OW65577   9.570   4.341  10.405 -0.1229 -0.1831 -0.2232
19446SOL    HW165578   9.588   4.392  10.484  0.9122 -0.8484 -0.0088
19446SOL    HW265579   9.498   4.284  10.429 -0.1087 -0.0702  0.0973
19447SOL     OW65580   2.842   2.448   7.000 -0.0332  0.0009  0.1341
19447SOL    HW165581   2.796   2.370   7.032 -0.4199  0.3389  0.4035
19447SOL    HW265582   2.808   2.461   6.911 -0.5148  0.2959  0.3616
19448SOL     OW65583   8.300   8.145   9.122 -0.0545  0.1183 -0.5081
19448SOL    HW165584   8.388   8.182   9.131 -0.6355  1.5291 -0.2881
19448SOL    HW265585   8.243   8.209   9.166 -1.4603  0.4372 -2.6617
19449SOL     OW65586   4.181   1.454   9.799  0.4658 -0.4223  0.6424
19449SOL    HW165587   4.114   1.496   9.745  2.7497 -0.0301 -2.1340
19449SOL    HW265588   4.222   1.390   9.741  2.0008 -1.2168  2.4774
19450SOL     OW65589  11.664   5.706   5.538 -0.3738  0.4230 -0.0600
19450SOL    HW165590  11.671   5.614   5.563 -1.8157  1.0161  2.9843
19450SOL    HW265591  11.746   5.746   5.567 -0.1156  0.2950 -0.5924
19451SOL     OW65592  11.892  10.137   4.490 -0.0256  0.0325  0.0223
19451SOL    HW165593  11.929  10.090   4.415 -0.8323  0.4675 -0.6694
19451SOL    HW265594  11.864  10.221   4.454 -0.8353  0.0753  0.7096
19452SOL     OW65595  12.093   3.724   7.847  0.2432 -0.3563 -0.0676
19452SOL    HW165596  12.130   3.781   7.779 -1.2114 -0.2805 -0.8357
19452SOL    HW265597  12.112   3.636   7.816 -0.1757 -0.3173 -0.4539
19453SOL     OW65598   2.743   1.926   4.067  0.2927 -0.4849 -0.1832
19453SOL    HW165599   2.835   1.912   4.045 -0.3111 -2.1574 -1.9219
19453SOL    HW265600   2.727   1.865   4.139  0.0477 -1.7752 -1.3047
19454SOL     OW65601   6.716   1.691   9.797 -0.0027  0.0808  0.5759
19454SOL    HW165602   6.712   1.609   9.748 -1.1734  0.9520 -0.8483
19454SOL    HW265603   6.808   1.718   9.790 -0.0338 -0.0931 -0.7034
19455SOL     OW65604   9.097   3.221   1.818  0.1999  0.8958 -0.1154
19455SOL    HW165605   9.193   3.226   1.812  0.4326 -0.6119  1.3376
19455SOL    HW265606   9.070   3.185   1.734  0.9057  1.3539 -0.5517
19456SOL     OW65607   3.483   4.982   2.100 -0.6704  0.2427  0.1351
19456SOL    HW165608   3.565   5.030   2.091 -0.1490 -0.2139  2.0378
19456SOL    HW265609   3.492   4.909   2.039  0.1828  0.4089  0.0481
19457SOL     OW65610  11.337  11.505   1.107 -0.0819 -0.4371 -0.1357
19457SOL    HW165611  11.275  11.499   1.180  0.8067 -0.8707  0.6006
19457SOL    HW265612  11.416  11.543   1.146  0.3381 -0.4982 -0.9132
19458SOL     OW65613   7.843   0.426  11.430  0.2209 -0.7853 -0.3835
19458SOL    HW165614   7.875   0.429  11.520 -0.4858  1.3427 -0.1508
19458SOL    HW265615   7.915   0.388  11.380  0.8173 -1.5225  0.9882
19459SOL     OW65616   0.842   5.800   9.259  0.0081 -0.7087 -0.3890
19459SOL    HW165617   0.934   5.790   9.235  0.5521 -1.0380  1.6432
19459SOL    HW265618   0.795   5.794   9.176  1.8278 -0.2270 -1.5079
19460SOL     OW65619   5.003   6.687  11.860  0.0376 -0.2975 -0.4179
19460SOL    HW165620   4.985   6.704  11.768 -1.3181  1.2712  0.0837
19460SOL    HW265621   5.064   6.756  11.885 -0.8967  0.3149  0.2366
19461SOL     OW65622   5.559   2.850   9.627  0.5431  0.2266 -0.0587
19461SOL    HW165623   5.489   2.908   9.656  0.8202  0.0481  0.9884
19461SOL    HW265624   5.525   2.762   9.643  0.5367  0.1134 -0.6735
19462SOL     OW65625   9.811   5.493  12.595 -0.5632 -0.4714 -0.4124
19462SOL    HW165626   9.745   5.542  12.645  1.1462  0.6390  0.8617
19462SOL    HW265627   9.853   5.436  12.660 -0.8960 -1.8946 -1.4051
19463SOL     OW65628   3.473   0.016   9.499  0.3008  0.1195 -0.3650
19463SOL    HW165629   3.536  -0.031   9.554  0.3895  0.3730 -0.2497
19463SOL    HW265630   3.526   0.079   9.450 -0.0068  1.2059  0.6471
19464SOL     OW65631  10.844  11.136   2.604  0.5187 -0.2970 -0.5059
19464SOL    HW165632  10.926  11.131   2.652  0.8141 -2.5451 -1.1402
19464SOL    HW265633  10.777  11.111   2.667  0.5615 -0.4697 -0.5295
19465SOL     OW65634  10.471   0.736   4.396  0.1253 -0.4776  0.5446
19465SOL    HW165635  10.407   0.695   4.338 -0.1487 -0.0396  0.5279
19465SOL    HW265636  10.418   0.793   4.452  0.3941 -0.8597  1.1931
19466SOL     OW65637  10.229  12.560   7.005 -0.0477  0.1721  0.1430
19466SOL    HW165638  10.192  12.562   7.093  0.3137  3.4672  0.3402
19466SOL    HW265639  10.316  12.522   7.016 -0.4422 -0.4882  1.0051
19467SOL     OW65640  11.968   1.386   9.495  0.4150 -0.1302 -0.3463
19467SOL    HW165641  11.975   1.373   9.400  0.3594  0.2655 -0.4063
19467SOL    HW265642  12.004   1.305   9.533  1.0025 -0.0358 -0.6993
19468SOL     OW65643   8.285  10.005   9.176  0.0060  0.3777 -0.0089
19468SOL    HW165644   8.355  10.009   9.241  0.7742 -0.2767 -0.7623
19468SOL    HW265645   8.210  10.045   9.219  0.0119 -1.4624  1.8972
19469SOL     OW65646  10.608  12.703   9.196 -0.2064 -0.2481 -0.3282
19469SOL    HW165647  10.541  12.635   9.189 -0.9437  0.1392  2.0381
19469SOL    HW265648  10.563  12.777   9.237  1.4088  0.4076  0.3388
19470SOL     OW65649   1.512   3.236   9.275  0.7187  0.3374  0.2698
19470SOL    HW165650   1.478   3.319   9.310 -2.7816 -1.1715  0.8821
19470SOL    HW265651   1.438   3.199   9.227  2.5900 -1.8738 -1.0793
19471SOL     OW65652   4.651   5.336   1.905 -0.0235  0.4489 -0.3465
19471SOL    HW165653   4.568   5.350   1.951  0.3349  1.4466  0.0268
19471SOL    HW265654   4.634   5.363   1.815 -1.3520 -3.4777 -1.4911
19472SOL     OW65655   4.093  11.730   5.853  0.5552 -0.1785  0.2584
19472SOL    HW165656   4.144  11.766   5.927 -0.4796 -0.3284  1.0712
19472SOL    HW265657   4.141  11.651   5.827  2.4647  1.3025 -1.0700
19473SOL     OW65658   4.924   5.217   2.225 -0.2031 -0.5467  0.4278
19473SOL    HW165659   4.949   5.156   2.156 -1.1421  1.7964 -2.2088
19473SOL    HW265660   4.930   5.167   2.306  0.0199 -3.7574 -1.4314
19474SOL     OW65661   3.848  12.093  10.801 -0.1824  0.2797 -0.2623
19474SOL    HW165662   3.855  12.083  10.896 -1.0238 -0.0099 -0.2265
19474SOL    HW265663   3.938  12.091  10.770  0.0155 -1.3140  0.3545
19475SOL     OW65664   9.870   0.525   1.747 -0.3152 -0.4436 -0.0295
19475SOL    HW165665   9.883   0.439   1.706 -0.7616  0.6367 -2.6174
19475SOL    HW265666   9.779   0.547   1.728 -0.6507 -0.0114  1.9237
19476SOL     OW65667   5.843   1.388  12.622 -0.0257  0.3083 -0.4811
19476SOL    HW165668   5.777   1.384  12.553  1.8791  1.0504 -2.4770
19476SOL    HW265669   5.841   1.301  12.662 -1.5444  0.0304 -1.0841
19477SOL     OW65670   0.649   7.220  10.603 -0.2649 -0.2745 -0.1180
19477SOL    HW165671   0.654   7.129  10.634 -0.6240 -0.3637 -0.3295
19477SOL    HW265672   0.561   7.248  10.626  0.1530  0.3380  0.8262
19478SOL     OW65673   9.659   4.434   3.989 -0.0941 -0.3909  0.8329
19478SOL    HW165674   9.637   4.410   3.899 -0.6011  2.1510  0.1900
19478SOL    HW265675   9.580   4.414   4.040 -0.4217 -0.2592  0.3797
19479SOL     OW65676   7.873   9.953   5.833 -0.2894  0.4872 -0.8779
19479SOL    HW165677   7.935   9.938   5.904 -0.1414 -0.1818 -1.1321
19479SOL    HW265678   7.868   9.868   5.788 -2.8711 -0.0829  0.2981
19480SOL     OW65679   6.034  10.827  12.264 -0.4632 -0.6861 -0.2059
19480SOL    HW165680   6.075  10.883  12.331 -0.9942  0.4693 -0.8225
19480SOL    HW265681   6.104  10.768  12.237  0.1657 -0.2142  0.3452
19481SOL     OW65682   9.635   8.672   1.725  0.4451  0.3926 -0.6047
19481SOL    HW165683   9.573   8.677   1.652 -1.7174 -1.7003  0.9646
19481SOL    HW265684   9.698   8.605   1.698  0.0447  0.1033 -0.8271
19482SOL     OW65685   8.565  10.392   9.671  0.1984 -0.2850 -0.6533
19482SOL    HW165686   8.645  10.344   9.649  0.1934  0.6043 -2.8470
19482SOL    HW265687   8.498  10.324   9.681  1.0376 -0.9805  0.5077
19483SOL     OW65688   1.391  12.020   3.460  0.0795  0.1664  0.3559
19483SOL    HW165689   1.327  11.995   3.527 -0.3357  1.0681  0.3102
19483SOL    HW265690   1.407  11.939   3.412 -0.8256 -0.1446  0.5410
19484SOL     OW65691   5.947   9.332   9.807  0.0038  0.0085  0.3974
19484SOL    HW165692   6.001   9.264   9.768  0.8885  1.3877 -0.8774
19484SOL    HW265693   5.907   9.290   9.883  1.2002 -1.6655  0.1579
19485SOL     OW65694   5.946   8.075   2.169  0.4755 -0.6706 -0.2589
19485SOL    HW165695   5.932   8.097   2.077 -0.5534 -1.4861 -0.3196
19485SOL    HW265696   6.033   8.109   2.189  1.2945 -1.6747 -1.9106
19486SOL     OW65697  11.853   5.431  11.193 -0.0383 -0.1405  0.5473
19486SOL    HW165698  11.913   5.369  11.234 -1.6884 -0.8702  2.0038
19486SOL    HW265699  11.805   5.380  11.129  0.9961  0.4912 -0.7785
19487SOL     OW65700   7.528  11.166  11.382  0.1662  0.2189 -0.1654
19487SOL    HW165701   7.529  11.254  11.345 -1.6707  0.1620 -0.4334
19487SOL    HW265702   7.435  11.146  11.393  0.5778 -1.3853  0.6231
19488SOL     OW65703   4.521   4.904  12.112  0.7109  0.0254  0.6065
19488SOL    HW165704   4.449   4.938  12.165  0.2071  1.0195 -0.6413
19488SOL    HW265705   4.479   4.877  12.030  1.2922 -2.5705  1.0877
19489SOL     OW65706   8.867   3.627  12.172  0.3769 -0.1963 -0.3731
19489SOL    HW165707   8.844   3.715  12.143  0.4082  0.2871  0.9842
19489SOL    HW265708   8.916   3.590  12.099  0.3604  0.9073 -0.9706
19490SOL     OW65709   4.349   2.849  10.933 -0.0235 -0.3225  0.0406
19490SOL    HW165710   4.361   2.757  10.959  1.6584 -0.3784 -0.7645
19490SOL    HW265711   4.423   2.866  10.874 -0.0259  1.7048  0.5704
19491SOL     OW65712   2.834   0.845   8.051 -0.0202  0.0114 -0.0885
19491SOL    HW165713   2.807   0.787   8.122  0.0024 -0.6696 -0.6121
19491SOL    HW265714   2.911   0.891   8.084  0.0779 -0.4097  0.2719
19492SOL     OW65715  12.069  12.129   7.987  0.3025 -0.9157  0.5005
19492SOL    HW165716  12.002  12.156   8.050 -1.0753  1.1109 -1.6557
19492SOL    HW265717  12.151  12.137   8.036 -0.7514 -0.4149  2.3218
19493SOL     OW65718   5.263   0.002  11.757  0.1706  0.4125  0.1808
19493SOL    HW165719   5.179   0.042  11.736 -0.0571 -0.6111 -1.0035
19493SOL    HW265720   5.244  -0.053  11.833 -0.0751  0.6769  0.3156
19494SOL     OW65721   1.106   3.273   6.680 -0.2919  0.0213  0.5120
19494SOL    HW165722   1.080   3.292   6.770  1.7160  0.9290  0.9479
19494SOL    HW265723   1.157   3.192   6.686  2.0631  1.4369  0.6576
19495SOL     OW65724   0.372   1.743  12.447  0.1792  0.0781  0.4069
19495SOL    HW165725   0.301   1.768  12.388 -0.1328  0.2123  0.8294
19495SOL    HW265726   0.418   1.672  12.402  0.8395  1.1296 -0.6362
19496SOL     OW65727   4.988   5.687   1.607 -0.1099 -0.1306  0.0949
19496SOL    HW165728   4.950   5.708   1.693 -2.6916  0.6210 -1.1057
19496SOL    HW265729   4.913   5.655   1.556  1.1038  0.4874 -2.1985
19497SOL     OW65730  11.370   2.977   2.018  0.4559 -0.5721 -0.1614
19497SOL    HW165731  11.465   2.978   2.028  0.7426 -3.7879 -1.2969
19497SOL    HW265732  11.336   2.966   2.107  0.9170  2.5288  0.5102
19498SOL     OW65733   0.219  12.295   7.486  0.5331 -0.0938  0.5033
19498SOL    HW165734   0.296  12.249   7.451  0.9217  2.3875 -2.3620
19498SOL    HW265735   0.145  12.241   7.461  1.1291 -0.6291 -0.1534
19499SOL     OW65736   1.261  10.361   4.308 -0.2653  0.2221  0.0286
19499SOL    HW165737   1.267  10.444   4.356  0.0226 -0.2394  0.8142
19499SOL    HW265738   1.350  10.347   4.274 -0.2254  0.0639  0.1969
19500SOL     OW65739  12.361   4.971   8.800  0.3755 -0.0542  0.4044
19500SOL    HW165740  12.324   5.058   8.784  1.7930  0.6687  0.9021
19500SOL    HW265741  12.366   4.931   8.713  1.8261  1.2722 -0.1670
19501SOL     OW65742   3.524   7.156  12.092  0.0615  0.6486  0.8715
19501SOL    HW165743   3.518   7.067  12.126 -0.3718  0.3126 -0.0371
19501SOL    HW265744   3.458   7.159  12.023  1.6959  0.9041 -0.7639
19502SOL     OW65745  10.486   6.454  10.791 -0.0951 -0.2751  0.2144
19502SOL    HW165746  10.573   6.415  10.802  0.4465  0.5927 -0.7982
19502SOL    HW265747  10.502   6.538  10.748 -1.3752  0.2879  0.7600
19503SOL     OW65748   0.678   9.775   3.282  0.3857 -0.5103  0.3794
19503SOL    HW165749   0.622   9.701   3.306 -1.2348  0.2730 -0.7512
19503SOL    HW265750   0.626   9.853   3.304  0.5271  0.2375 -1.6919
19504SOL     OW65751   7.981   3.349   6.002  0.4168  0.6296  0.8046
19504SOL    HW165752   7.941   3.391   6.077 -0.5200 -0.2488  0.8246
19504SOL    HW265753   8.073   3.376   6.004  0.9333 -1.0025  3.4696
19505SOL     OW65754   1.818   5.296   4.068 -0.2199  0.3918  0.2057
19505SOL    HW165755   1.816   5.245   4.149 -0.4347 -0.5154 -0.3552
19505SOL    HW265756   1.746   5.359   4.078  0.1280  0.6865  0.9568
19506SOL     OW65757   9.776   0.812   5.323  0.1334 -0.0970 -0.2079
19506SOL    HW165758   9.699   0.772   5.363  0.6171 -1.5195 -0.6324
19506SOL    HW265759   9.740   0.876   5.261 -0.6361  1.5142  1.7418
19507SOL     OW65760  10.707   4.371   3.504 -0.0092  0.3019 -0.4119
19507SOL    HW165761  10.626   4.320   3.491  1.3552 -2.2601  0.4224
19507SOL    HW265762  10.690   4.422   3.583 -0.8223 -0.2200 -0.2327
19508SOL     OW65763   0.018   3.410   2.010  0.6645 -0.2394 -0.0869
19508SOL    HW165764   0.005   3.317   1.987 -1.2252 -0.2881  0.9367
19508SOL    HW265765   0.026   3.454   1.925 -1.0231 -1.0428 -0.7165
19509SOL     OW65766  11.279   3.669   0.189 -0.0317  0.0021  0.0028
19509SOL    HW165767  11.257   3.736   0.254 -2.6534 -0.0482 -0.7266
19509SOL    HW265768  11.260   3.586   0.233 -0.8957 -0.0682 -0.4893
19510SOL     OW65769   1.924   0.506   9.345 -0.1306 -0.2499  0.0919
19510SOL    HW165770   1.986   0.450   9.392  0.2064 -0.6875 -0.8633
19510SOL    HW265771   1.840   0.489   9.387 -0.0691 -1.6439 -0.3259
19511SOL     OW65772   1.844   8.440  12.548  0.2267 -0.6093 -0.1671
19511SOL    HW165773   1.910   8.370  12.554 -0.0585 -0.8456  0.2444
19511SOL    HW265774   1.777   8.414  12.610  0.7618  0.7481  1.0095
19512SOL     OW65775   4.274  11.009   7.916  0.0874  0.7661 -0.8454
19512SOL    HW165776   4.211  10.937   7.910  0.3039  0.4644  0.3503
19512SOL    HW265777   4.268  11.052   7.830 -2.4812  1.3885 -0.4348
19513SOL     OW65778   7.947  10.054   7.071  0.3403 -0.1163  0.2226
19513SOL    HW165779   7.984   9.980   7.024  0.9114  0.2190  0.1299
19513SOL    HW265780   8.019  10.086   7.126  0.2504  0.6627 -0.0965
19514SOL     OW65781   8.736   4.964   9.976 -0.5678 -0.8583  0.2602
19514SOL    HW165782   8.827   4.992   9.977  0.0075 -2.6232  0.2149
19514SOL    HW265783   8.696   5.012   9.904  0.4445 -0.4366 -0.0251
19515SOL     OW65784   7.438   7.852   5.784 -0.4941 -0.3377 -0.1232
19515SOL    HW165785   7.444   7.881   5.875  0.5068 -0.8284 -0.0100
19515SOL    HW265786   7.383   7.918   5.741  1.6063  1.7298  0.1293
19516SOL     OW65787   8.673   2.283  10.289 -0.2405 -0.7578  0.3232
19516SOL    HW165788   8.647   2.305  10.379 -2.3318 -1.9679  0.0886
19516SOL    HW265789   8.731   2.208  10.298 -0.9307 -1.2674  0.6805
19517SOL     OW65790   4.460   0.715   7.369  0.0469 -0.4840 -0.7172
19517SOL    HW165791   4.499   0.706   7.282  0.9048  0.2027 -0.4164
19517SOL    HW265792   4.488   0.801   7.400 -0.9439 -0.3615 -0.0959
19518SOL     OW65793   3.823   8.647   9.687 -0.5340  0.3986  0.5248
19518SOL    HW165794   3.825   8.555   9.660 -1.2160  1.0035 -1.8060
19518SOL    HW265795   3.915   8.668   9.704 -0.2902 -0.5178  0.4179
19519SOL     OW65796   6.468   7.224   9.920  0.0641 -0.1110 -0.0123
19519SOL    HW165797   6.376   7.196   9.918  0.6938 -2.7294 -3.7142
19519SOL    HW265798   6.502   7.188  10.001 -1.5268 -1.8420 -0.0364
19520SOL     OW65799   4.101  10.681  10.056  0.1332  0.1759  0.2844
19520SOL    HW165800   4.152  10.689  10.137  0.1478 -1.8396  0.5424
19520SOL    HW265801   4.167  10.678   9.986  0.2321  0.0104  0.3839
19521SOL     OW65802   1.881   8.419   5.392 -0.1933  0.1265  0.6884
19521SOL    HW165803   1.792   8.419   5.356 -0.0193 -0.5065  0.2514
19521SOL    HW265804   1.889   8.505   5.435 -0.1001  1.3039 -1.5388
19522SOL     OW65805   5.099   3.022   1.865  0.4513 -0.1581  0.6423
19522SOL    HW165806   5.008   3.040   1.891 -0.0212 -1.1734 -0.2263
19522SOL    HW265807   5.106   3.059   1.777  0.3198 -1.6097 -0.0105
19523SOL     OW65808   5.603   5.563   3.243  0.0087 -0.6990 -0.5110
19523SOL    HW165809   5.606   5.611   3.160 -0.7432  0.0954 -0.1018
19523SOL    HW265810   5.526   5.507   3.236 -2.3853  2.1239  1.0283
19524SOL     OW65811   0.122  10.757   4.919  0.2910  0.2913  0.6007
19524SOL    HW165812   0.173  10.782   4.842  0.3821  0.4237  0.7030
19524SOL    HW265813   0.134  10.663   4.927 -1.0193 -0.0052 -0.4874
19525SOL     OW65814   5.673   6.905   1.974 -0.2125 -0.3630  0.0175
19525SOL    HW165815   5.610   6.836   1.996 -0.1475  0.1734  2.1441
19525SOL    HW265816   5.662   6.970   2.044  0.1981  1.4845 -1.5597
19526SOL     OW65817   4.704   5.897   3.241 -0.0357  0.6699 -0.3073
19526SOL    HW165818   4.621   5.898   3.194 -0.7369  3.3638  0.7909
19526SOL    HW265819   4.753   5.970   3.205  0.5368  1.0766  1.2212
19527SOL     OW65820   0.453   8.965   2.516  0.2429  0.9738  0.8238
19527SOL    HW165821   0.480   8.915   2.592  0.1687 -2.6137 -1.2878
19527SOL    HW265822   0.365   8.934   2.496  0.5824  1.1560 -1.1761
19528SOL     OW65823   6.454   1.162   7.463  0.1358  0.2237  0.0027
19528SOL    HW165824   6.367   1.186   7.495  0.1060  0.3338 -0.1602
19528SOL    HW265825   6.514   1.192   7.532  0.1537  1.3577 -0.4733
19529SOL     OW65826  12.500  12.294  10.858  0.1549 -0.4199 -0.4168
19529SOL    HW165827  12.578  12.245  10.882  0.8775 -0.8649 -3.3094
19529SOL    HW265828  12.517  12.383  10.889  0.2365 -1.2116  2.0076
19530SOL     OW65829   9.619   2.879  11.974  0.1676  0.0147 -0.3096
19530SOL    HW165830   9.712   2.891  11.992  0.0215 -1.2058  1.3925
19530SOL    HW265831   9.617   2.830  11.891  1.1358 -1.9059  0.7451
19531SOL     OW65832  12.693   1.005  11.696 -0.1029  0.2885 -0.4124
19531SOL    HW165833  12.718   0.940  11.761 -1.1354  0.5167  0.2437
19531SOL    HW265834  12.685   0.955  11.614 -1.0329 -0.4693  0.1084
19532SOL     OW65835   7.943   2.101   2.430 -0.2238  0.0176 -0.3174
19532SOL    HW165836   8.006   2.126   2.497 -1.7738  0.0656  1.1803
19532SOL    HW265837   7.935   2.006   2.439  0.0097 -0.0572 -0.8562
19533SOL     OW65838   8.310   8.756   2.260 -0.1410 -0.5677  0.2085
19533SOL    HW165839   8.227   8.733   2.218  0.1802  1.3746 -1.5996
19533SOL    HW265840   8.377   8.724   2.200  0.4409 -1.3438  1.2376
19534SOL     OW65841   0.163   4.975   2.111  0.2952 -1.0815 -0.0832
19534SOL    HW165842   0.098   4.952   2.045  0.3846 -1.5490 -0.0141
19534SOL    HW265843   0.124   5.048   2.159 -0.6555 -2.0486  0.6623
19535SOL     OW65844   4.666  12.384  11.145  0.3416  0.1539 -0.0659
19535SOL    HW165845   4.652  12.382  11.239 -1.2987 -4.1266 -0.1624
19535SOL    HW265846   4.761  12.377  11.134  0.4775 -0.3081  1.2954
19536SOL     OW65847   8.948   3.395  12.306  0.1713 -0.2587 -0.1240
19536SOL    HW165848   9.009   3.399  12.380  0.4203  0.4901 -0.3595
19536SOL    HW265849   8.932   3.486  12.283  0.6880 -0.4834 -1.4762
19537SOL     OW65850   3.402  10.330   0.553  0.5335 -0.7913  0.5410
19537SOL    HW165851   3.471  10.298   0.494  1.7192 -1.6747  2.3145
19537SOL    HW265852   3.331  10.267   0.543  0.0522 -0.0371 -1.0910
19538SOL     OW65853   9.434  11.250   0.476 -0.5404  0.3969 -0.2397
19538SOL    HW165854   9.471  11.317   0.419  0.3147  0.2260  0.1039
19538SOL    HW265855   9.415  11.177   0.417  0.6662  0.0887 -0.2608
19539SOL     OW65856  10.838   9.141   3.589  0.5829  0.5681  0.3525
19539SOL    HW165857  10.918   9.191   3.575  0.3288  0.4660 -1.8316
19539SOL    HW265858  10.803   9.127   3.501  0.0130 -2.4047  0.9435
19540SOL     OW65859   7.682   3.788  10.729 -0.1644  0.3417  0.1766
19540SOL    HW165860   7.668   3.843  10.807  1.0849  0.1481  0.5624
19540SOL    HW265861   7.698   3.700  10.765  2.2765  0.5884 -0.1309
19541SOL     OW65862  12.376  12.405   4.893 -0.3785  0.2987  0.2856
19541SOL    HW165863  12.407  12.485   4.851 -1.4840  0.1932 -0.7893
19541SOL    HW265864  12.386  12.421   4.987  1.2541  0.9059  0.0433
19542SOL     OW65865   5.569   2.157  11.634  0.3343 -0.0578  0.1252
19542SOL    HW165866   5.616   2.117  11.707 -1.5185 -0.3410  1.2348
19542SOL    HW265867   5.487   2.189  11.673 -0.9936 -0.7421 -1.9229
19543SOL     OW65868   4.845   6.018  11.672 -0.0728  0.7042 -0.9022
19543SOL    HW165869   4.882   6.105  11.664 -1.3746  1.2889 -0.8223
19543SOL    HW265870   4.839   6.002  11.766  1.6910 -0.1795 -0.8954
19544SOL     OW65871  12.374  12.669   1.485  0.7042  0.4543 -0.1641
19544SOL    HW165872  12.337  12.583   1.507  1.5487  0.0959 -0.0914
19544SOL    HW265873  12.459  12.671   1.530  1.6780  0.4216 -1.8777
19545SOL     OW65874   5.187   7.710   0.482  0.0183  0.1774 -0.5489
19545SOL    HW165875   5.158   7.738   0.569  0.5538  0.7348 -0.5409
19545SOL    HW265876   5.117   7.738   0.423  0.5329  1.5267 -0.5355
19546SOL     OW65877   6.967   5.210   8.195  0.4691 -0.0264  0.4518
19546SOL    HW165878   6.921   5.249   8.269 -0.1642  0.4974 -0.2059
19546SOL    HW265879   7.059   5.233   8.209  0.5854 -1.1955  1.8392
19547SOL     OW65880   3.031   5.989  10.154 -0.5061 -0.3066  0.1448
19547SOL    HW165881   3.113   5.980  10.202 -1.1306  1.1131  1.5631
19547SOL    HW265882   3.027   6.081  10.128 -0.1874 -0.9967 -2.7744
19548SOL     OW65883   3.010  11.867   0.246 -0.2186  0.0748  0.3393
19548SOL    HW165884   2.955  11.870   0.168 -0.8923  1.8091  0.8422
19548SOL    HW265885   3.058  11.785   0.238 -1.8786 -0.8419 -0.7919
19549SOL     OW65886   0.601   9.873  10.221  0.2041  0.0718  0.0253
19549SOL    HW165887   0.683   9.857  10.176  0.8303  0.4076  1.0092
19549SOL    HW265888   0.585   9.794  10.272  0.7192  0.5860  1.0129
19550SOL     OW65889  10.946  11.243   4.606  0.1322 -0.1522 -0.0710
19550SOL    HW165890  10.999  11.164   4.617 -0.6401 -0.5267  1.2298
19550SOL    HW265891  10.857  11.210   4.589  0.0619  0.4586 -0.9582
19551SOL     OW65892  10.270  10.567   7.026  0.0712  0.2777  0.0151
19551SOL    HW165893  10.209  10.553   7.098  1.0093 -1.6092  0.5076
19551SOL    HW265894  10.309  10.653   7.043 -1.2543  0.7881  0.5632
19552SOL     OW65895   7.607   9.842   7.354  0.2621  0.1307  0.1477
19552SOL    HW165896   7.676   9.797   7.305  2.3312  2.7996  0.4133
19552SOL    HW265897   7.526   9.797   7.327  1.5560 -0.2546 -3.7054
19553SOL     OW65898  10.342   4.603   5.116 -0.0941 -0.2198  0.3381
19553SOL    HW165899  10.323   4.690   5.080 -1.8528 -0.8978 -0.4435
19553SOL    HW265900  10.312   4.542   5.049  0.9003 -1.4538  0.9815
19554SOL     OW65901   7.654   4.186   4.660  0.5866 -0.3294  0.5067
19554SOL    HW165902   7.589   4.254   4.643  1.7014  0.7204  0.2700
19554SOL    HW265903   7.603   4.111   4.690 -0.6905  0.5694  0.6790
19555SOL     OW65904   1.059   3.825   7.383 -1.1480 -0.1317 -0.4593
19555SOL    HW165905   1.125   3.767   7.420  0.1920  1.4688 -0.2558
19555SOL    HW265906   0.990   3.829   7.450  0.3167  1.1396  1.0443
19556SOL     OW65907  12.355  11.037   8.129 -0.0863  0.3267 -0.1426
19556SOL    HW165908  12.356  10.984   8.049 -2.2205 -0.2595  0.1631
19556SOL    HW265909  12.357  10.973   8.200 -1.0612  0.7220  0.2484
19557SOL     OW65910  11.680   3.635   4.708  0.4881  0.0126  0.1015
19557SOL    HW165911  11.735   3.682   4.645  1.4732  0.5908  1.3514
19557SOL    HW265912  11.656   3.554   4.661 -0.6473  1.3763 -1.8032
19558SOL     OW65913   3.759   5.729   7.378 -0.2505 -0.3232 -0.2981
19558SOL    HW165914   3.729   5.819   7.394 -0.3974 -0.3551 -0.3866
19558SOL    HW265915   3.678   5.678   7.374 -0.1724 -0.4422 -0.3560
19559SOL     OW65916   1.495   0.904   0.160  0.4308  0.3364  0.3937
19559SOL    HW165917   1.495   0.914   0.065  1.4909  0.4657  0.3911
19559SOL    HW265918   1.456   0.818   0.175 -1.4878  1.0805 -0.0282
19560SOL     OW65919  11.487  11.656   2.927 -0.1354 -1.1957 -0.1115
19560SOL    HW165920  11.396  11.686   2.929  0.4971  0.8605  0.5731
19560SOL    HW265921  11.503  11.622   3.016  0.4569  0.8346  0.6044
19561SOL     OW65922   1.624   7.913   2.022  0.0049 -0.5469 -0.3145
19561SOL    HW165923   1.647   7.869   2.103  1.7564 -2.0131 -1.5348
19561SOL    HW265924   1.687   7.880   1.958 -2.3355 -0.7793 -2.6758
19562SOL     OW65925   3.068   8.457   2.893 -0.0925 -0.1661  0.9589
19562SOL    HW165926   3.110   8.373   2.909 -0.7560 -0.5124  0.9030
19562SOL    HW265927   2.993   8.458   2.951 -1.2667 -0.5007 -0.4967
19563SOL     OW65928   0.376   9.454   6.420 -0.4785 -0.0934  0.0678
19563SOL    HW165929   0.402   9.392   6.352 -0.1009  0.2497 -0.1063
19563SOL    HW265930   0.286   9.431   6.440  0.1496 -1.7734  1.1869
19564SOL     OW65931  11.996   5.153   2.299  0.3230  0.0204 -0.2509
19564SOL    HW165932  11.938   5.105   2.358 -0.2785  2.4777  1.2862
19564SOL    HW265933  11.937   5.208   2.248  0.9902 -0.8745 -2.0637
19565SOL     OW65934   8.595   1.493   4.661 -0.7645  0.4141 -0.2177
19565SOL    HW165935   8.529   1.559   4.680  1.0218  2.0011  0.8467
19565SOL    HW265936   8.601   1.441   4.741 -0.0759  0.8990  0.0578
19566SOL     OW65937   6.532  10.954   9.843 -0.1196  0.1067  0.5610
19566SOL    HW165938   6.603  10.925   9.786  1.1169  0.2174  1.9782
19566SOL    HW265939   6.511  10.877   9.897 -1.9596 -0.3081 -0.6420
19567SOL     OW65940  12.251   8.324   9.707  0.7255 -0.2094  0.7853
19567SOL    HW165941  12.314   8.300   9.639  0.7715  0.1587  0.6951
19567SOL    HW265942  12.283   8.279   9.785  1.1482  0.0334  0.7579
19568SOL     OW65943   3.149  10.022   7.739  0.4731 -0.3923  0.1915
19568SOL    HW165944   3.165  10.055   7.827 -1.1348  1.6684 -0.2043
19568SOL    HW265945   3.079   9.958   7.750  0.1663 -0.0260  0.4284
19569SOL     OW65946   9.852   3.201   8.052 -0.1786  0.0977 -0.0309
19569SOL    HW165947   9.851   3.277   8.110  1.1814  0.4938 -0.4925
19569SOL    HW265948   9.939   3.203   8.012  0.2611 -2.2405  0.6650
19570SOL     OW65949   5.809  12.195   0.200  0.2455  0.0574 -0.5189
19570SOL    HW165950   5.717  12.208   0.223  0.0486 -0.3751 -1.0513
19570SOL    HW265951   5.812  12.206   0.104  0.9279  1.1244 -0.4006
19571SOL     OW65952   4.632   8.620  12.512 -0.5071  0.6255 -0.1770
19571SOL    HW165953   4.618   8.678  12.437  0.9200 -0.0934 -1.0355
19571SOL    HW265954   4.546   8.580  12.527 -1.2616  2.1721 -0.2161
19572SOL     OW65955   4.754   2.871  11.161  0.2579 -0.0825 -0.1848
19572SOL    HW165956   4.840   2.830  11.154  0.4762  0.1943  0.7379
19572SOL    HW265957   4.762   2.952  11.110  0.1430 -0.6785 -1.1536
19573SOL     OW65958  10.003   2.566   0.206  0.2729  0.5707  0.3798
19573SOL    HW165959  10.036   2.574   0.116  0.6523 -1.1495  0.3301
19573SOL    HW265960   9.941   2.639   0.215 -0.4502  0.2732 -1.5656
19574SOL     OW65961   4.163   4.817   6.788 -0.0998  0.5511  1.0179
19574SOL    HW165962   4.086   4.819   6.731  0.9846 -0.4923 -0.5993
19574SOL    HW265963   4.199   4.905   6.782  0.1996  0.3736 -0.3005
19575SOL     OW65964   2.565   4.429   9.554 -0.0825 -0.2710 -0.1104
19575SOL    HW165965   2.543   4.497   9.617  0.4829 -0.5135  0.3532
19575SOL    HW265966   2.578   4.350   9.606 -0.6152 -0.7125 -0.6320
19576SOL     OW65967   0.140   1.500   4.082  0.3979  0.4907 -0.0882
19576SOL    HW165968   0.234   1.516   4.071  0.6868 -1.6879 -1.1427
19576SOL    HW265969   0.120   1.540   4.167  2.3635  0.6021  0.3817
19577SOL     OW65970  10.451  11.259   4.713  0.1061  0.2979 -0.2173
19577SOL    HW165971  10.408  11.343   4.701 -1.9147 -0.7647 -0.7518
19577SOL    HW265972  10.392  11.195   4.674  0.9800 -1.5150  1.2407
19578SOL     OW65973   7.251   2.081   3.961 -0.8631 -0.3244 -0.2997
19578SOL    HW165974   7.298   1.998   3.955 -1.2466 -0.7816  2.1768
19578SOL    HW265975   7.162   2.061   3.930 -0.6262 -0.5224 -0.8537
19579SOL     OW65976   4.747   8.269   2.425  0.0599 -0.3374  0.2666
19579SOL    HW165977   4.795   8.322   2.362 -0.9243  0.6902  0.3550
19579SOL    HW265978   4.788   8.290   2.509 -0.0401 -0.0374  0.2435
19580SOL     OW65979   0.540   3.430  11.051 -0.0837  0.6519  0.0326
19580SOL    HW165980   0.458   3.390  11.022  0.0057  1.8966 -2.0982
19580SOL    HW265981   0.590   3.357  11.089 -1.3595 -0.5053 -0.4340
19581SOL     OW65982   2.394   7.473   8.212  0.3309 -0.0314  0.2094
19581SOL    HW165983   2.379   7.566   8.201  1.6408  0.2027  0.2466
19581SOL    HW265984   2.484   7.459   8.183  1.0663 -0.8154  2.5831
19582SOL     OW65985   9.978   1.717  12.276 -0.1310  0.7648  0.1037
19582SOL    HW165986  10.053   1.750  12.227 -0.4521  0.4117 -0.6371
19582SOL    HW265987   9.951   1.790  12.332 -1.0756  1.9299 -1.7824
19583SOL     OW65988   8.601   3.700   2.700 -0.8339  0.4233  0.4272
19583SOL    HW165989   8.667   3.670   2.761  1.5593  0.0396 -2.1371
19583SOL    HW265990   8.601   3.795   2.709  2.8578  0.8633 -1.8596
19584SOL     OW65991   7.845  11.661   6.805  0.3852 -0.1356 -0.0316
19584SOL    HW165992   7.841  11.575   6.846 -0.0854 -0.1828 -0.1623
19584SOL    HW265993   7.812  11.648   6.716 -0.8614  0.3847  0.3262
19585SOL     OW65994   5.347   2.911   8.974  1.1137  0.4187 -0.2721
19585SOL    HW165995   5.304   2.996   8.976 -0.6155 -0.4307  0.4809
19585SOL    HW265996   5.322   2.873   8.890 -1.4764 -0.9056  0.9539
19586SOL     OW65997   0.536  11.058   0.875  0.0428  0.1956 -0.6702
19586SOL    HW165998   0.597  11.037   0.804 -1.2420  0.9178 -2.0274
19586SOL    HW265999   0.500  10.973   0.901  4.5156 -0.9964  3.1154
19587SOL     OW66000   8.791  12.493   6.372 -0.5773 -0.6591 -0.0639
19587SOL    HW166001   8.858  12.562   6.370 -0.7359 -0.5096 -0.3820
19587SOL    HW266002   8.711  12.538   6.397 -0.4695 -0.9218  0.7696
19588SOL     OW66003   3.986   0.378  11.709  0.4053 -0.1031 -0.1078
19588SOL    HW166004   4.031   0.438  11.650 -0.1775 -0.9465 -1.4507
19588SOL    HW266005   4.018   0.402  11.796  1.2628  1.1897 -0.7462
19589SOL     OW66006   6.768   9.969   0.609  0.4830 -0.2993 -0.0249
19589SOL    HW166007   6.752  10.061   0.632  0.0026 -0.6654  1.2341
19589SOL    HW266008   6.733   9.959   0.521  0.1554  0.6351 -0.0091
19590SOL     OW66009   7.434   2.041   8.910  0.7814  0.0869 -0.4939
19590SOL    HW166010   7.357   1.984   8.906  0.2793  0.5983  0.9602
19590SOL    HW266011   7.401   2.122   8.948  1.8602  0.6705 -0.7672
19591SOL     OW66012   1.036   1.429   4.450  0.0365  0.2061  0.4356
19591SOL    HW166013   1.003   1.515   4.476 -2.1751 -0.2868 -0.5372
19591SOL    HW266014   1.083   1.444   4.368  0.5431  0.6254  0.7998
19592SOL     OW66015   2.936   8.268   3.746 -0.0856  0.0455  0.0101
19592SOL    HW166016   2.848   8.282   3.712  0.4555  0.7867 -1.1652
19592SOL    HW266017   2.953   8.175   3.729 -0.4840 -0.0025 -0.1529
19593SOL     OW66018   1.728   0.822   0.383 -0.0675  0.5884  0.4690
19593SOL    HW166019   1.697   0.741   0.422  0.0026 -0.4301 -1.4726
19593SOL    HW266020   1.649   0.864   0.350  0.1428  0.0202 -0.8074
19594SOL     OW66021   0.299   9.687   4.485 -0.0538  0.2619  0.2277
19594SOL    HW166022   0.228   9.700   4.548 -0.8580  1.3526 -0.8700
19594SOL    HW266023   0.273   9.736   4.408  0.9771 -0.9416 -0.9386
19595SOL     OW66024   6.235   6.286   0.585  0.2753  0.5147 -0.5384
19595SOL    HW166025   6.241   6.346   0.659 -3.0528 -0.9109  1.0883
19595SOL    HW266026   6.178   6.331   0.522 -0.5576 -0.0693 -0.2154
19596SOL     OW66027   6.053  11.937  11.439  0.4951  0.0834 -0.1411
19596SOL    HW166028   6.106  12.016  11.448  1.2411 -0.2519 -1.4330
19596SOL    HW266029   6.088  11.877  11.505 -0.1386  0.8317  0.9112
19597SOL     OW66030   9.857   8.320   5.018  1.0186  0.4073 -0.0614
19597SOL    HW166031   9.856   8.407   4.979 -0.3676  0.2838 -0.3283
19597SOL    HW266032   9.766   8.292   5.019  1.4507 -1.1149 -0.1327
19598SOL     OW66033  11.404  11.912   7.496 -0.2136  0.1582 -0.1201
19598SOL    HW166034  11.443  11.966   7.564  0.4443  0.6466 -0.8633
19598SOL    HW266035  11.343  11.854   7.543  1.4013 -0.6372  1.0828
19599SOL     OW66036   1.548   2.277  12.222 -0.0808  0.1271  0.6090
19599SOL    HW166037   1.521   2.273  12.313 -1.1657 -0.1875  0.2924
19599SOL    HW266038   1.466   2.281  12.173  0.4318 -0.9586 -0.4006
19600SOL     OW66039   2.475  12.336   9.628 -0.0688 -0.5291 -0.5094
19600SOL    HW166040   2.473  12.272   9.700  0.1241  0.7611  0.6759
19600SOL    HW266041   2.568  12.350   9.611  0.0155  1.5818  1.2630
19601SOL     OW66042   6.985   4.957   4.279 -0.0334 -0.0656 -0.0441
19601SOL    HW166043   6.934   5.025   4.324  0.8568  0.0706  0.7930
19601SOL    HW266044   6.961   4.876   4.324  0.9611  0.0896  0.8086
19602SOL     OW66045   5.325   0.580   6.553  0.2423  0.4076 -0.8974
19602SOL    HW166046   5.332   0.670   6.584  3.4308 -0.6953  2.0640
19602SOL    HW266047   5.407   0.563   6.507  0.5570 -1.5304  0.2750
19603SOL     OW66048   8.624   1.658   3.013  0.1044  0.0546  0.4414
19603SOL    HW166049   8.577   1.629   3.091  1.2896 -0.0390  1.1497
19603SOL    HW266050   8.701   1.703   3.047  0.8656 -0.3557 -0.6702
19604SOL     OW66051   6.691   6.903   0.982 -0.2691 -0.3547  0.0512
19604SOL    HW166052   6.609   6.860   0.958  0.1004 -0.1946 -1.6058
19604SOL    HW266053   6.759   6.854   0.936  0.5839 -0.4204  1.3205
19605SOL     OW66054   8.691   7.582  10.864  0.4377  0.2836 -0.7000
19605SOL    HW166055   8.771   7.572  10.915 -0.5432 -2.3862  0.4915
19605SOL    HW266056   8.707   7.534  10.783  0.6801  1.3501 -1.2955
19606SOL     OW66057   1.890   8.749  11.899 -1.2505 -0.4009 -0.1795
19606SOL    HW166058   1.827   8.715  11.963 -1.6642  1.2071  0.3281
19606SOL    HW266059   1.960   8.684  11.897 -0.5006  0.1149  3.0047
19607SOL     OW66060  11.008   4.785   4.921 -0.2808  0.0555  0.2919
19607SOL    HW166061  10.922   4.823   4.904 -0.5086  0.1257  1.4621
19607SOL    HW266062  11.060   4.859   4.954 -0.6827 -0.5315  2.4335
19608SOL     OW66063   9.636   3.698   0.348 -0.4745  0.5990  0.4492
19608SOL    HW166064   9.649   3.667   0.258  0.4390  0.5032  0.6054
19608SOL    HW266065   9.644   3.793   0.342  0.9290  0.5120  0.6242
19609SOL     OW66066   8.932   8.638   8.282 -0.3779  0.2692 -0.3886
19609SOL    HW166067   8.964   8.644   8.192 -0.3973  0.0746 -0.4083
19609SOL    HW266068   8.982   8.567   8.321 -0.5941  0.1413 -0.3392
19610SOL     OW66069   4.973   2.722   7.719  0.5329 -0.2567  0.1558
19610SOL    HW166070   4.905   2.756   7.778  0.5554  1.7132 -0.8810
19610SOL    HW266071   4.925   2.677   7.650  0.1382  1.9368 -1.0843
19611SOL     OW66072   9.198   7.327  10.656  0.4691 -0.0170 -0.7286
19611SOL    HW166073   9.127   7.267  10.634  0.3395 -0.3028  0.3755
19611SOL    HW266074   9.256   7.326  10.580 -0.5632  0.0066 -1.5271
19612SOL     OW66075   4.747  10.644   1.974  0.7207  0.4976  0.3271
19612SOL    HW166076   4.819  10.594   1.934  0.3145  0.7460 -0.7471
19612SOL    HW266077   4.772  10.736   1.960 -0.2008  0.5893 -0.8171
19613SOL     OW66078   8.229   6.705   3.808 -0.1870  0.1077 -0.0474
19613SOL    HW166079   8.246   6.757   3.730  0.0121 -1.9197 -1.4264
19613SOL    HW266080   8.309   6.714   3.861  0.9005 -0.7730 -1.4639
19614SOL     OW66081   4.294  12.335   2.583  0.2265  0.3847 -0.6228
19614SOL    HW166082   4.370  12.296   2.628 -0.5274  0.3936  0.7176
19614SOL    HW266083   4.301  12.429   2.602  0.4967  0.5488 -1.4779
19615SOL     OW66084  10.193  11.778   7.807 -0.4439  0.3309 -0.0561
19615SOL    HW166085  10.162  11.730   7.729  1.1036 -1.3751  0.2955
19615SOL    HW266086  10.195  11.712   7.876 -0.3023  1.4555  1.0457
19616SOL     OW66087   7.113   4.614   1.372 -0.0725 -0.1812 -0.2455
19616SOL    HW166088   7.059   4.535   1.372  0.5848 -0.6419 -0.7207
19616SOL    HW266089   7.199   4.584   1.403 -0.2339  0.6623  1.1341
19617SOL     OW66090  12.589  10.489   7.993  0.4697  0.3136 -0.5265
19617SOL    HW166091  12.666  10.441   7.966  0.7379  1.3466 -1.6476
19617SOL    HW266092  12.525  10.474   7.924  0.3668  1.0986 -0.6134
19618SOL     OW66093  11.624   0.940  11.032  0.0730 -0.2197  0.0969
19618SOL    HW166094  11.693   0.876  11.051 -0.5631 -1.0589 -0.3324
19618SOL    HW266095  11.549   0.886  11.006 -0.6209  0.6942  0.1803
19619SOL     OW66096  10.047   1.802   6.724  0.2336 -0.1670  0.0004
19619SOL    HW166097   9.966   1.807   6.673  0.3793  0.8829 -0.1488
19619SOL    HW266098  10.100   1.737   6.678 -1.1355 -2.1030  1.0186
19620SOL     OW66099  11.383  12.092   3.445 -0.0438 -0.0397  0.8694
19620SOL    HW166100  11.300  12.118   3.484  0.4025 -0.5729  2.2165
19620SOL    HW266101  11.387  12.141   3.362 -1.9700 -0.5100  0.4537
19621SOL     OW66102   8.758   8.310   7.457  0.1233 -0.5778 -0.6134
19621SOL    HW166103   8.823   8.335   7.523  0.1832  0.3699 -1.0078
19621SOL    HW266104   8.810   8.289   7.379  0.0089 -0.8501 -0.6160
19622SOL     OW66105   1.896   2.213   3.589  0.4124 -0.1205  0.0195
19622SOL    HW166106   1.809   2.193   3.554  0.1272 -0.2188  0.7670
19622SOL    HW266107   1.922   2.134   3.636  1.2319 -0.3642 -0.8154
19623SOL     OW66108   2.870   8.958   6.436  0.0765 -0.1020 -0.5230
19623SOL    HW166109   2.929   9.032   6.418  0.4417 -0.5965 -1.3936
19623SOL    HW266110   2.927   8.882   6.441 -0.2678 -0.3084  0.6649
19624SOL     OW66111   2.539   9.798   5.565 -0.2866 -0.0275 -0.0896
19624SOL    HW166112   2.513   9.871   5.620  0.3494 -0.1051  0.3305
19624SOL    HW266113   2.490   9.723   5.599  0.8400 -0.2904  1.0512
19625SOL     OW66114  11.122   4.973  11.211  0.5505  0.3404 -0.0341
19625SOL    HW166115  11.217   4.968  11.211  0.5877  0.2622  1.9536
19625SOL    HW266116  11.094   4.907  11.148  1.8038  1.1313 -1.4751
19626SOL     OW66117   2.870   7.785   8.655 -0.2480  0.0832 -0.1866
19626SOL    HW166118   2.926   7.833   8.717  0.8415 -2.0202  0.5488
19626SOL    HW266119   2.876   7.836   8.574 -0.4542  2.0549  0.9562
19627SOL     OW66120   0.792  12.187   4.487  0.2925  0.2791 -0.1718
19627SOL    HW166121   0.700  12.208   4.503 -0.1238 -1.3157 -0.2527
19627SOL    HW266122   0.807  12.108   4.539  1.5436  0.3664 -0.3786
19628SOL     OW66123   1.936   4.943   2.715  0.6376 -0.0201  0.3862
19628SOL    HW166124   1.852   4.910   2.746 -0.2991  2.3731  0.6058
19628SOL    HW266125   1.951   5.022   2.767  3.5966 -0.9505  1.1337
19629SOL     OW66126   9.036   8.541   9.575  0.2060  0.2922  0.2721
19629SOL    HW166127   9.014   8.517   9.665 -1.5159 -0.6956 -0.3680
19629SOL    HW266128   9.010   8.633   9.569 -1.4549 -0.1474  0.2845
19630SOL     OW66129   3.041  11.000   9.139 -0.1279 -0.6215 -0.1080
19630SOL    HW166130   2.994  10.993   9.055 -0.6961  0.0657  0.1443
19630SOL    HW266131   3.048  11.094   9.154  0.5409 -0.7348  0.3101
19631SOL     OW66132   1.147   1.282  11.847  0.2776  0.1348  0.1693
19631SOL    HW166133   1.171   1.190  11.848  0.4524  0.1381  3.0767
19631SOL    HW266134   1.066   1.287  11.898  1.7734  1.8834  2.5479
19632SOL     OW66135   1.639   8.101   2.623  0.2143 -0.2698  0.6001
19632SOL    HW166136   1.664   8.121   2.532 -1.7928  1.5585  0.3929
19632SOL    HW266137   1.691   8.162   2.675 -0.0197 -0.0097  0.5327
19633SOL     OW66138   1.574   5.880   3.537  0.3354 -0.3148 -0.0730
19633SOL    HW166139   1.513   5.811   3.563 -1.1466  1.6336  2.0587
19633SOL    HW266140   1.523   5.937   3.480  0.8698  0.1613 -0.0815
19634SOL     OW66141   7.897   7.302   4.471 -0.5701  0.1341 -1.0392
19634SOL    HW166142   7.961   7.344   4.414 -0.3064  1.6779  0.3336
19634SOL    HW266143   7.825   7.279   4.412  1.2606 -1.8521 -2.6513
19635SOL     OW66144   9.147  12.567   9.264  0.0947  0.0771  0.1652
19635SOL    HW166145   9.187  12.515   9.334 -0.3127  1.7767  1.7396
19635SOL    HW266146   9.212  12.634   9.244 -0.6901  0.9724  0.5445
19636SOL     OW66147   4.414   3.834   0.272 -0.0709  0.8786 -0.1165
19636SOL    HW166148   4.366   3.769   0.220 -0.7889  0.5958  0.8666
19636SOL    HW266149   4.491   3.787   0.304 -1.0973  0.1429  1.4316
19637SOL     OW66150   3.880   3.375   4.113 -0.5404 -0.4271 -0.0660
19637SOL    HW166151   3.835   3.351   4.194 -0.9534  0.1436 -0.1190
19637SOL    HW266152   3.966   3.333   4.120  0.1729  1.1465  1.5624
19638SOL     OW66153   2.660  11.605   8.628  0.1427  0.4711  0.0484
19638SOL    HW166154   2.656  11.680   8.689 -0.2600  0.4452  0.0544
19638SOL    HW266155   2.572  11.599   8.592  0.1450 -0.0789  0.1359
19639SOL     OW66156   2.018   7.495   9.791 -0.2874 -0.0854  0.3208
19639SOL    HW166157   2.022   7.420   9.851 -0.9821 -0.3819  0.0049
19639SOL    HW266158   1.937   7.541   9.815 -0.4103 -0.0314 -0.1807
19640SOL     OW66159   3.073   9.731   3.014  0.1853 -0.2034  0.1225
19640SOL    HW166160   2.980   9.739   3.037  0.6169 -1.2583  2.5449
19640SOL    HW266161   3.093   9.639   3.030  1.3438 -0.3263 -1.8089
19641SOL     OW66162   9.479   1.197   1.377  0.8507  0.2803  0.3378
19641SOL    HW166163   9.564   1.206   1.333  0.2734  1.6958 -0.5414
19641SOL    HW266164   9.446   1.287   1.384  0.1457 -0.0701  2.1718
19642SOL     OW66165   1.752   2.823   3.341 -0.3416 -0.4931 -0.0845
19642SOL    HW166166   1.813   2.765   3.387  0.6750  0.1984 -0.5195
19642SOL    HW266167   1.688   2.764   3.302 -0.4031 -1.1846  1.0216
19643SOL     OW66168   9.797  10.096   6.622 -0.5648  0.4821 -0.1643
19643SOL    HW166169   9.772  10.004   6.609 -1.9862  0.9561 -1.0781
19643SOL    HW266170   9.803  10.132   6.533  1.8253  0.8600  0.0826
19644SOL     OW66171  11.368   4.267  11.897 -0.3128  0.3348 -0.2478
19644SOL    HW166172  11.444   4.232  11.945  2.0039  0.3874 -3.5399
19644SOL    HW266173  11.406   4.331  11.837 -2.8492 -0.3208 -2.7109
19645SOL     OW66174  11.065   2.665   3.380 -0.7414  0.0942 -0.1907
19645SOL    HW166175  11.055   2.576   3.413  2.0318 -0.5321 -0.8374
19645SOL    HW266176  11.149   2.695   3.415 -1.7775  2.6615  0.3591
19646SOL     OW66177   1.671   1.298   0.484  0.1738  0.1707 -0.6049
19646SOL    HW166178   1.592   1.264   0.441  0.5919  0.6675 -1.8223
19646SOL    HW266179   1.657   1.280   0.577 -1.1489 -0.1972 -0.8449
19647SOL     OW66180   3.136   6.480   0.645  0.3903  0.0260 -0.3063
19647SOL    HW166181   3.075   6.469   0.571  1.7112 -1.5166 -1.2356
19647SOL    HW266182   3.130   6.397   0.693  2.1377 -0.3996 -0.7583
19648SOL     OW66183   1.733   9.707   6.542  0.1811  0.1544 -0.5937
19648SOL    HW166184   1.659   9.718   6.482 -0.2094 -0.7861 -0.2942
19648SOL    HW266185   1.736   9.790   6.590 -0.9754  0.0333 -0.2778
19649SOL     OW66186   9.657   1.884   4.354 -0.4920  0.6865 -0.4573
19649SOL    HW166187   9.578   1.937   4.347 -0.5319  0.5394 -1.1846
19649SOL    HW266188   9.716   1.920   4.288  0.0083  0.7294  0.0107
19650SOL     OW66189   0.745   4.230  10.125  0.3881 -0.1210 -0.2698
19650SOL    HW166190   0.780   4.241  10.037 -0.1438 -2.1477 -0.7867
19650SOL    HW266191   0.670   4.171  10.114 -0.0799  0.0924  1.4616
19651SOL     OW66192   5.309   7.783   6.845 -0.0019 -0.0001  0.0870
19651SOL    HW166193   5.319   7.692   6.872 -0.4642 -0.9009 -2.5158
19651SOL    HW266194   5.234   7.815   6.896 -0.9837 -1.6460 -0.2621
19652SOL     OW66195   2.841   1.592   2.732  0.0980 -0.3289  0.2895
19652SOL    HW166196   2.905   1.653   2.769 -0.2357 -0.8007  1.7084
19652SOL    HW266197   2.756   1.625   2.763 -0.0004 -2.3250  2.4267
19653SOL     OW66198   0.328  10.762   8.352  0.0504  0.1650  0.0311
19653SOL    HW166199   0.386  10.801   8.417  1.5541  0.0442 -1.1599
19653SOL    HW266200   0.257  10.825   8.341  1.5880  1.8634 -0.6800
19654SOL     OW66201  10.262  10.099   9.288  0.0019 -0.1742 -0.2987
19654SOL    HW166202  10.262  10.004   9.293  3.2808 -0.2504  0.4345
19654SOL    HW266203  10.208  10.120   9.212  1.1292 -2.7643 -1.9132
19655SOL     OW66204   4.954  11.331   0.992 -0.1144 -0.7970 -0.4676
19655SOL    HW166205   4.978  11.240   1.005 -1.0553 -0.9642  0.1931
19655SOL    HW266206   4.960  11.345   0.898  0.3569 -1.4420 -0.5367
19656SOL     OW66207   1.977  10.070  10.765  0.1437  0.5913  0.4818
19656SOL    HW166208   2.042  10.140  10.766  1.7820 -0.8575  2.1060
19656SOL    HW266209   1.966  10.044  10.856 -2.1426  0.2057  0.1787
19657SOL     OW66210  12.632   0.637  10.021 -0.5027  0.2977 -0.0336
19657SOL    HW166211  12.581   0.660   9.944 -0.4122  0.6800  0.0209
19657SOL    HW266212  12.594   0.554  10.050  0.8190 -0.9548 -1.7027
19658SOL     OW66213   6.078   4.155   2.378  0.2087  0.0971 -0.0017
19658SOL    HW166214   6.096   4.114   2.294 -0.1951  1.0975 -0.5910
19658SOL    HW266215   6.054   4.083   2.436  0.2970 -0.5750 -0.7905
19659SOL     OW66216   8.870   5.275  10.206  0.1297  0.0828 -0.7587
19659SOL    HW166217   8.793   5.220  10.223  0.4942  0.1386  1.3100
19659SOL    HW266218   8.936   5.215  10.171  0.3527 -0.7407  0.9895
19660SOL     OW66219   8.811  11.625   4.249 -0.3066 -0.1522  0.3757
19660SOL    HW166220   8.831  11.609   4.341 -0.1567 -0.2442  0.3277
19660SOL    HW266221   8.758  11.549   4.224  0.4057 -0.5905  0.1476
19661SOL     OW66222  12.514   1.208   0.685  0.7594 -0.2546  0.2670
19661SOL    HW166223  12.423   1.199   0.712  0.4497  0.7742 -0.3715
19661SOL    HW266224  12.528   1.302   0.677  1.5301 -0.4363 -0.7814
19662SOL     OW66225   6.224   1.928  11.489  0.4404 -0.4737  0.1031
19662SOL    HW166226   6.306   1.976  11.489  0.0961  0.1188  0.4346
19662SOL    HW266227   6.174   1.963  11.563  0.5599 -1.9991  0.9557
19663SOL     OW66228   5.252  11.189   1.702 -0.3120 -0.0548 -0.5542
19663SOL    HW166229   5.339  11.209   1.737 -0.7506 -0.2553  0.7024
19663SOL    HW266230   5.264  11.185   1.607  1.0842 -0.2654 -0.3826
19664SOL     OW66231  11.590   6.673  11.194  0.2776  0.1214 -0.2411
19664SOL    HW166232  11.676   6.658  11.233 -0.5723  0.1954  1.7818
19664SOL    HW266233  11.605   6.666  11.100  2.5118  0.2862  0.0503
19665SOL     OW66234  11.329  11.218  11.470  0.8767  0.5255  0.0069
19665SOL    HW166235  11.242  11.238  11.505  0.6528  0.7904 -0.6954
19665SOL    HW266236  11.315  11.200  11.378  1.3144 -1.2733  0.2597
19666SOL     OW66237   4.548   9.629   9.120 -0.2268  0.1903  0.1802
19666SOL    HW166238   4.640   9.653   9.128 -0.1417  0.6730 -1.7418
19666SOL    HW266239   4.501   9.711   9.136 -0.2037  0.3870 -0.6769
19667SOL     OW66240   5.824   9.927  12.250 -0.0655  0.1443 -0.6406
19667SOL    HW166241   5.737   9.897  12.222  0.0047 -0.5029 -0.1781
19667SOL    HW266242   5.885   9.875  12.198  0.0522  0.6097 -0.9767
19668SOL     OW66243  11.639   1.076   5.345  0.2408 -0.7183  0.4669
19668SOL    HW166244  11.635   1.144   5.413 -1.6088  1.2850 -1.4846
19668SOL    HW266245  11.549   1.044   5.338  0.5572 -1.4349 -0.5340
19669SOL     OW66246   7.323  10.889   0.026  0.2381  0.4822  0.5845
19669SOL    HW166247   7.386  10.834   0.072 -1.7325 -1.0956  1.5493
19669SOL    HW266248   7.291  10.949   0.094 -1.0885 -0.4106  0.7847
19670SOL     OW66249  11.579   6.165   0.308 -0.0269 -0.4988  0.4387
19670SOL    HW166250  11.524   6.242   0.322 -1.3528 -1.8225  3.3730
19670SOL    HW266251  11.667   6.195   0.328 -0.0813  0.8389 -1.0852
19671SOL     OW66252   5.335   9.453   4.455 -0.1779  0.4608 -0.2326
19671SOL    HW166253   5.422   9.465   4.494  0.3066 -2.7187 -0.0003
19671SOL    HW266254   5.350   9.454   4.361  0.0715  0.3452 -0.1955
19672SOL     OW66255   8.372   3.262   0.014 -0.4769 -0.4284 -0.2042
19672SOL    HW166256   8.399   3.170   0.012  0.9715 -0.0120 -1.2205
19672SOL    HW266257   8.359   3.281   0.107 -0.9042 -1.6714  0.0126
19673SOL     OW66258  10.458   0.680   7.322  0.0116 -0.1637  0.5391
19673SOL    HW166259  10.490   0.595   7.350  0.4506 -0.6981 -1.4233
19673SOL    HW266260  10.364   0.666   7.307 -0.2786  0.1940  1.9042
19674SOL     OW66261   6.786   8.559   4.146 -0.4321  0.1490  0.0379
19674SOL    HW166262   6.730   8.635   4.132 -0.0295  0.2998 -0.7982
19674SOL    HW266263   6.862   8.593   4.193 -0.0821  0.3403 -0.6558
19675SOL     OW66264   3.039   9.020   4.922 -0.4626  0.3424  0.3448
19675SOL    HW166265   3.086   8.937   4.915 -2.2099 -0.6037 -0.7912
19675SOL    HW266266   3.101   9.079   4.966  1.2246 -1.2290  0.1916
19676SOL     OW66267   5.450   7.650  11.003  0.0577 -0.3066 -0.3074
19676SOL    HW166268   5.458   7.735  11.046 -0.6204  0.7810 -2.2047
19676SOL    HW266269   5.490   7.588  11.065  1.3368  1.4839  0.7700
19677SOL     OW66270   5.253   9.750   6.453  0.1793 -0.2872  0.0877
19677SOL    HW166271   5.213   9.740   6.539  0.8998  0.1443  0.4781
19677SOL    HW266272   5.327   9.809   6.467  0.3192 -0.2277 -0.8215
19678SOL     OW66273   3.730   8.932   1.828  0.1307 -0.0372 -0.3409
19678SOL    HW166274   3.651   8.893   1.791  0.7516 -0.7449 -0.9572
19678SOL    HW266275   3.802   8.898   1.774  0.8922  0.3478  0.3941
19679SOL     OW66276   5.755   8.646   1.344 -0.5710 -0.5054  0.0901
19679SOL    HW166277   5.700   8.654   1.421  0.4608  0.8055  0.7298
19679SOL    HW266278   5.728   8.718   1.287  0.8731  0.5803  0.7104
19680SOL     OW66279   0.916   5.895  12.006 -0.0801  0.1078 -0.3331
19680SOL    HW166280   0.848   5.957  11.983 -0.6582 -0.1609  0.5816
19680SOL    HW266281   0.964   5.937  12.077 -0.0456 -0.1962 -0.1720
19681SOL     OW66282   1.128   6.252   2.233 -0.1211 -0.7222 -0.0983
19681SOL    HW166283   1.036   6.270   2.249 -0.1992 -1.0436 -0.1768
19681SOL    HW266284   1.145   6.284   2.144  0.0764  0.1910  0.2645
19682SOL     OW66285   2.947   4.982   5.344  0.4588  0.8248 -0.2989
19682SOL    HW166286   3.024   4.926   5.357 -0.0623  0.1442 -0.0691
19682SOL    HW266287   2.933   5.023   5.429 -0.5725 -0.5537  0.2359
19683SOL     OW66288  12.329   9.152   4.519 -0.4436  0.3538  0.3171
19683SOL    HW166289  12.248   9.114   4.552  0.2800 -0.8342  0.8085
19683SOL    HW266290  12.318   9.156   4.424 -0.7927 -0.5253  0.3096
19684SOL     OW66291   9.794   6.310   0.120  0.0298 -0.1647 -0.0906
19684SOL    HW166292   9.720   6.364   0.149  0.5478 -0.1952  1.3705
19684SOL    HW266293   9.756   6.224   0.104 -0.5033  0.1916 -0.8037
19685SOL     OW66294   5.323  11.044  12.464  0.3043 -0.0598 -0.5070
19685SOL    HW166295   5.334  10.952  12.485  2.3626  0.2970  0.1916
19685SOL    HW266296   5.274  11.045  12.382  1.7362 -1.8352 -1.4469
19686SOL     OW66297   2.414  11.302   6.332  0.0652  0.2793 -0.3295
19686SOL    HW166298   2.340  11.328   6.387  0.3209  1.3523 -0.4610
19686SOL    HW266299   2.470  11.251   6.390 -0.8190 -0.6407 -0.2555
19687SOL     OW66300   7.439   5.114  10.670 -0.0938 -0.4014 -0.4499
19687SOL    HW166301   7.460   5.207  10.670  0.8198 -0.5934  0.2085
19687SOL    HW266302   7.476   5.081  10.752  1.2460 -1.6886 -1.5107
19688SOL     OW66303   3.945   2.775   0.048  0.5539  0.1331  0.3532
19688SOL    HW166304   3.981   2.834   0.113 -1.1192  1.9533 -0.2965
19688SOL    HW266305   3.866   2.740   0.088 -0.1140  0.7374 -0.4098
19689SOL     OW66306   1.865   6.508   9.452 -0.0335 -0.3502  0.2287
19689SOL    HW166307   1.934   6.514   9.518  0.0533 -0.0366  0.1114
19689SOL    HW266308   1.903   6.547   9.374 -0.3875 -0.0528  0.2016
19690SOL     OW66309  10.870   9.104  10.431  0.2242  0.3895  0.3211
19690SOL    HW166310  10.924   9.047  10.377 -2.8259 -1.8637 -0.6067
19690SOL    HW266311  10.877   9.190  10.389 -0.0184 -0.7174 -2.1592
19691SOL     OW66312   5.926   8.178   0.310  0.2530 -0.3907  0.0567
19691SOL    HW166313   5.965   8.254   0.352  0.0196 -0.4153  0.3233
19691SOL    HW266314   5.987   8.106   0.328 -0.2409 -0.5762  1.0603
19692SOL     OW66315   9.335   8.148   7.141 -0.1794  0.1055  0.0768
19692SOL    HW166316   9.372   8.136   7.053 -0.2097  1.0983 -0.0798
19692SOL    HW266317   9.278   8.224   7.133 -1.3988 -0.7226  0.5931
19693SOL     OW66318   8.241   5.954   2.225 -0.5776  0.4565  0.2917
19693SOL    HW166319   8.228   6.049   2.217 -0.3541  0.4855  0.2795
19693SOL    HW266320   8.234   5.937   2.319  2.3830  0.9220  0.6758
19694SOL     OW66321   9.059   2.808   1.266 -0.0656 -0.4578 -0.2101
19694SOL    HW166322   8.980   2.774   1.308 -1.3676 -2.2250 -3.7339
19694SOL    HW266323   9.121   2.734   1.268 -0.5276 -0.9510 -2.1327
19695SOL     OW66324   5.140   6.528   2.520 -0.1607  0.6913  0.0619
19695SOL    HW166325   5.175   6.510   2.433  0.7961  0.6306  0.4477
19695SOL    HW266326   5.212   6.509   2.579 -0.8725  0.5107  0.8900
19696SOL     OW66327   0.916   7.624   3.139  0.3619  0.0727 -0.4333
19696SOL    HW166328   0.845   7.686   3.156  0.5065 -0.1800  1.2609
19696SOL    HW266329   0.936   7.587   3.225  2.1931 -0.2464 -0.9615
19697SOL     OW66330  12.527   1.211  11.449 -0.0697  0.3398 -0.4556
19697SOL    HW166331  12.554   1.194  11.359  1.9174  0.6816  0.0243
19697SOL    HW266332  12.588   1.278  11.480 -1.9629  1.7150  0.5409
19698SOL     OW66333  12.615   2.144   2.329 -0.0286  0.0882 -0.0031
19698SOL    HW166334  12.709   2.130   2.333  0.1416  1.0096 -0.4201
19698SOL    HW266335  12.604   2.209   2.259 -0.7655  1.6383  1.4891
19699SOL     OW66336   3.142   1.030   3.285  0.0935  0.5368 -0.0354
19699SOL    HW166337   3.120   1.044   3.193 -1.6630 -0.4511  0.1922
19699SOL    HW266338   3.232   1.060   3.293 -0.3591  2.5237 -1.6273
19700SOL     OW66339   3.895  11.877   5.469 -0.3320 -0.0827  0.2444
19700SOL    HW166340   3.915  11.808   5.405  1.1962  1.4051 -0.9845
19700SOL    HW266341   3.967  11.874   5.531  0.0252  0.7025 -0.1134
19701SOL     OW66342   9.874  10.965   4.518  0.2594  0.1647  0.2375
19701SOL    HW166343   9.950  10.984   4.574  1.6547  1.7477 -2.0084
19701SOL    HW266344   9.801  10.957   4.580  1.7742  1.2419  2.3383
19702SOL     OW66345   4.503   2.234  11.410  0.0600 -0.2702 -0.4893
19702SOL    HW166346   4.494   2.192  11.325 -0.5428 -2.0338  0.3973
19702SOL    HW266347   4.577   2.294  11.400  0.8693 -1.4482 -1.8622
19703SOL     OW66348   6.001   5.198   8.773  0.0518 -0.1766 -0.0094
19703SOL    HW166349   5.930   5.142   8.804 -0.8728  0.8174 -0.2681
19703SOL    HW266350   6.004   5.183   8.678 -0.8867  0.9392 -0.2364
19704SOL     OW66351   5.034  12.686   9.076  0.2135 -0.4369 -0.1859
19704SOL    HW166352   4.976  12.754   9.041  0.8644 -0.3942 -1.2028
19704SOL    HW266353   5.048  12.626   9.003 -0.4064 -1.7278  0.7164
19705SOL     OW66354   7.367   3.104   4.950  0.1239  0.0046 -0.6500
19705SOL    HW166355   7.417   3.085   5.029 -0.6326  1.8978  0.3393
19705SOL    HW266356   7.420   3.168   4.902  1.7570 -2.8471 -3.0117
19706SOL     OW66357   7.264   6.130   9.917 -0.0696  0.3258 -0.1790
19706SOL    HW166358   7.359   6.128   9.922  0.0024  2.5765  0.4817
19706SOL    HW266359   7.241   6.223   9.923 -2.4233 -0.2644  2.3648
19707SOL     OW66360   3.459   1.373   0.337  0.4644 -0.6344  0.3747
19707SOL    HW166361   3.464   1.358   0.431 -1.2723  2.1566  1.0111
19707SOL    HW266362   3.366   1.379   0.318  0.8063  0.0308 -1.3212
19708SOL     OW66363   4.476  10.704   0.075  0.1324  0.0041  0.2442
19708SOL    HW166364   4.508  10.625   0.032  0.2597 -0.6855  1.5678
19708SOL    HW266365   4.505  10.696   0.166  0.2213  1.6123  0.3922
19709SOL     OW66366   1.698  11.815   5.196  0.2249  0.0728  0.1648
19709SOL    HW166367   1.721  11.848   5.283 -2.3769  2.0330  0.2339
19709SOL    HW266368   1.753  11.865   5.136  0.2341  0.5252  0.5483
19710SOL     OW66369   6.161   7.085   0.477  0.0808  0.1655 -0.5042
19710SOL    HW166370   6.156   7.097   0.572  0.4917 -2.0982 -0.1379
19710SOL    HW266371   6.253   7.064   0.460 -0.0708  0.1650 -1.3577
19711SOL     OW66372  11.277  11.941   8.345  1.0840  0.2143  0.3478
19711SOL    HW166373  11.210  11.888   8.387  0.6897  1.4023  1.2934
19711SOL    HW266374  11.342  11.956   8.413  1.9596 -0.3035 -0.3456
19712SOL     OW66375   6.708   9.988   6.677  0.2588 -0.6928 -0.1935
19712SOL    HW166376   6.646   9.984   6.749  0.9157 -1.0826  0.3553
19712SOL    HW266377   6.662  10.038   6.609 -0.4146 -0.4459  0.4319
19713SOL     OW66378   7.367   7.917   3.792  0.5588  0.3797  0.1392
19713SOL    HW166379   7.377   7.875   3.877  1.3999 -1.9462 -1.0064
19713SOL    HW266380   7.446   7.969   3.781  2.0425 -1.8705 -0.4785
19714SOL     OW66381  12.063   1.356   0.036  0.4925  0.1949 -0.3813
19714SOL    HW166382  12.036   1.281  -0.017 -2.3612  1.4706 -0.8994
19714SOL    HW266383  12.071   1.321   0.124  3.1336 -1.4854 -1.1680
19715SOL     OW66384   7.478  10.022  11.940 -0.0047  0.1302 -0.4674
19715SOL    HW166385   7.559  10.055  11.901 -0.1583 -0.1946 -1.0760
19715SOL    HW266386   7.445   9.959  11.876  0.0147 -0.8182  0.4352
19716SOL     OW66387   8.004   2.557   6.979  0.3336 -0.3115 -0.2747
19716SOL    HW166388   8.006   2.583   7.071  0.0743 -1.9751  0.2299
19716SOL    HW266389   8.072   2.490   6.971  0.7307  0.1963 -1.4339
19717SOL     OW66390   7.482   8.292   7.663 -0.2264 -0.1623  0.7536
19717SOL    HW166391   7.399   8.272   7.620 -0.2029  0.5111  0.3734
19717SOL    HW266392   7.526   8.353   7.603  1.4788 -2.1019 -0.0899
19718SOL     OW66393   3.142   6.825   3.739 -0.2840  0.2718 -0.5448
19718SOL    HW166394   3.130   6.789   3.828 -0.6005  0.2764 -0.5834
19718SOL    HW266395   3.123   6.918   3.748 -0.8397  0.1791 -0.7204
19719SOL     OW66396   3.021   8.055   5.142 -0.2854 -0.0903  0.2239
19719SOL    HW166397   2.986   7.990   5.081  1.1542  0.0721 -0.8469
19719SOL    HW266398   3.016   8.014   5.228 -0.7011 -1.0617 -0.2565
19720SOL     OW66399   1.320   1.890   3.542 -0.4113 -0.2974  0.0118
19720SOL    HW166400   1.372   1.960   3.503  1.2089 -0.6568  1.4236
19720SOL    HW266401   1.232   1.927   3.550  0.0738  1.0370 -0.5807
19721SOL     OW66402   7.727   9.177   7.180  0.3579  0.0729 -0.9448
19721SOL    HW166403   7.643   9.156   7.220  0.5131 -0.5226 -0.9218
19721SOL    HW266404   7.787   9.110   7.212 -0.0405 -1.9627 -3.9968
19722SOL     OW66405   0.148   3.029   2.509 -0.2266 -0.0329  0.2025
19722SOL    HW166406   0.226   3.012   2.561 -0.5753  0.2393  0.8299
19722SOL    HW266407   0.099   2.946   2.511 -0.0923 -0.1151  0.0532
19723SOL     OW66408   9.323   6.335   3.575 -0.2373 -0.2394 -0.6973
19723SOL    HW166409   9.299   6.261   3.519 -1.7341  1.3406 -2.2553
19723SOL    HW266410   9.249   6.395   3.570  0.6419  1.1051  1.0433
19724SOL     OW66411   9.595   1.478   6.200 -0.1828  0.0837  0.2611
19724SOL    HW166412   9.512   1.467   6.247 -0.4805 -0.2519 -0.3152
19724SOL    HW266413   9.654   1.517   6.263 -0.5714 -0.3462  0.9088
19725SOL     OW66414   3.413   3.913   3.061  0.2633  0.2452 -0.4564
19725SOL    HW166415   3.483   3.884   3.003  0.4916  0.1480 -0.1370
19725SOL    HW266416   3.333   3.902   3.010  0.3624 -0.7918 -0.4140
19726SOL     OW66417   6.642  11.939   9.323  0.4376  0.6139 -0.2765
19726SOL    HW166418   6.565  11.995   9.328  1.1859  1.7930 -1.3005
19726SOL    HW266419   6.667  11.924   9.415 -0.5084  0.9142  0.0393
19727SOL     OW66420  12.392  11.084  10.756  0.0908 -0.7166 -0.3863
19727SOL    HW166421  12.382  11.050  10.667  2.6277 -2.4193 -0.1248
19727SOL    HW266422  12.480  11.120  10.759  0.7522 -2.2803  1.8643
19728SOL     OW66423   6.147  11.524   7.333  0.0011 -0.0457 -0.1118
19728SOL    HW166424   6.189  11.439   7.345  0.0410  0.0125  0.1671
19728SOL    HW266425   6.077  11.507   7.269 -0.4360 -0.4429  0.4555
19729SOL     OW66426   9.257   0.954   2.756  0.3524 -0.0224 -0.6790
19729SOL    HW166427   9.305   0.992   2.830 -1.0198  1.2188 -0.3887
19729SOL    HW266428   9.210   0.880   2.795 -1.0543  1.1436 -0.0566
19730SOL     OW66429   6.710  12.422   2.328  0.1711  0.4835  0.3232
19730SOL    HW166430   6.647  12.389   2.392 -1.3018  0.3192 -1.1456
19730SOL    HW266431   6.781  12.358   2.330 -0.2809 -0.0177  1.1161
19731SOL     OW66432  11.850   4.588  10.427  0.4054 -0.2558  0.1820
19731SOL    HW166433  11.803   4.660  10.386  1.9212  0.8107  0.2445
19731SOL    HW266434  11.938   4.621  10.440  0.9340 -1.8593  0.9489
19732SOL     OW66435   6.679   8.897   0.787 -0.3658  0.1491  0.7328
19732SOL    HW166436   6.691   8.826   0.850 -0.2844 -1.7664 -1.3115
19732SOL    HW266437   6.749   8.884   0.722 -0.8159  1.6567 -0.1228
19733SOL     OW66438  12.231   7.425   9.635 -0.1881  0.5885  0.0780
19733SOL    HW166439  12.149   7.455   9.673 -0.8339 -0.1414 -0.7031
19733SOL    HW266440  12.287   7.406   9.710 -1.1856 -0.1459  0.6607
19734SOL     OW66441   8.247   5.253   0.086 -0.6301  0.5047  0.2936
19734SOL    HW166442   8.215   5.207   0.008 -2.1708 -0.7367  1.5811
19734SOL    HW266443   8.234   5.346   0.066 -1.3413  0.1946 -0.7998
19735SOL     OW66444   7.325  11.050   6.465  0.0628 -0.4619  0.1362
19735SOL    HW166445   7.295  11.011   6.548 -2.4073 -0.4352 -0.6628
19735SOL    HW266446   7.288  10.994   6.398 -1.5598  1.7952 -1.0040
19736SOL     OW66447   8.468  12.119   7.850  0.3573  0.0963  0.5178
19736SOL    HW166448   8.484  12.140   7.942 -0.5076 -0.4455  0.8089
19736SOL    HW266449   8.396  12.056   7.852  1.9242 -1.8052 -0.4055
19737SOL     OW66450   6.746   4.483   3.389  0.4163  0.3687  0.0093
19737SOL    HW166451   6.743   4.500   3.295 -0.6093 -2.5676 -0.5864
19737SOL    HW266452   6.820   4.423   3.400 -0.1015 -0.1219  0.9169
19738SOL     OW66453   2.742   8.060   5.574 -0.3756  0.0837 -0.4585
19738SOL    HW166454   2.672   8.092   5.631  0.1241 -0.8300  0.6848
19738SOL    HW266455   2.712   7.974   5.545  1.4339 -1.6139  2.3050
19739SOL     OW66456   5.707   5.413  10.545 -0.8962 -0.4526  0.0271
19739SOL    HW166457   5.622   5.373  10.564 -1.0749 -1.6428 -2.7400
19739SOL    HW266458   5.740   5.365  10.469  1.5867  0.9653  0.0775
19740SOL     OW66459   1.512  12.419  10.810 -0.4481 -0.0697 -1.0012
19740SOL    HW166460   1.565  12.364  10.752  1.7423 -1.0378  1.6988
19740SOL    HW266461   1.479  12.358  10.876 -2.3007  1.1018 -0.7846
19741SOL     OW66462   4.352   4.944  11.564  0.4472  0.3793 -0.6579
19741SOL    HW166463   4.297   4.967  11.490 -0.0751 -2.3626 -1.2348
19741SOL    HW266464   4.377   4.853  11.548  1.9932  0.3327  1.5302
19742SOL     OW66465  11.841   2.312   4.864 -0.0051  0.9292 -0.0359
19742SOL    HW166466  11.841   2.401   4.899 -0.8369  1.2449 -0.8068
19742SOL    HW266467  11.850   2.255   4.941  1.0307  1.6819  0.4185
19743SOL     OW66468  12.317  11.434  10.684  0.7225 -0.1174  0.0391
19743SOL    HW166469  12.383  11.441  10.753 -0.3393  1.9558  0.9272
19743SOL    HW266470  12.327  11.514  10.633  0.4022 -0.8587 -1.2402
19744SOL     OW66471   2.481  11.505   3.868  0.4156 -0.4340 -0.2285
19744SOL    HW166472   2.443  11.420   3.846  0.7563 -0.4442 -0.7997
19744SOL    HW266473   2.412  11.568   3.852  0.1956 -0.5904  0.0935
19745SOL     OW66474   5.855   6.132   9.608 -0.1985  0.2764 -0.2546
19745SOL    HW166475   5.855   6.078   9.687  0.1190  0.4186 -0.1573
19745SOL    HW266476   5.946   6.131   9.578 -0.2724  0.4174 -0.4848
19746SOL     OW66477  11.928   0.338  11.455 -0.4783  0.0064 -0.5802
19746SOL    HW166478  11.922   0.400  11.527  0.9507 -1.1685  0.6263
19746SOL    HW266479  12.021   0.334  11.435 -0.9023  0.8621 -3.0555
19747SOL     OW66480   2.748   5.613   3.518  0.3128 -0.1225 -0.2687
19747SOL    HW166481   2.803   5.567   3.455  2.0763  0.8345  0.5221
19747SOL    HW266482   2.732   5.549   3.587 -1.1635 -0.9943 -1.3671
19748SOL     OW66483   1.910   0.312   1.266 -0.0616 -0.0039 -0.4504
19748SOL    HW166484   1.921   0.217   1.262  0.8102  0.0823 -0.3009
19748SOL    HW266485   1.998   0.347   1.249 -0.5512  0.7989 -1.4053
19749SOL     OW66486  11.278   5.498   6.212  0.4504 -0.3920  0.2242
19749SOL    HW166487  11.321   5.544   6.140 -0.4795 -0.3579 -0.3210
19749SOL    HW266488  11.340   5.430   6.238  1.3156  0.3765  0.2226
19750SOL     OW66489   7.127   0.191   5.548  0.0022 -0.4789  0.1188
19750SOL    HW166490   7.181   0.231   5.616  0.2337  1.7825 -1.2968
19750SOL    HW266491   7.190   0.158   5.484 -0.2414 -1.3098  0.2990
19751SOL     OW66492  10.782   2.835   1.120 -0.2545  0.8012  0.7230
19751SOL    HW166493  10.775   2.749   1.078 -1.4356  0.3428  1.8178
19751SOL    HW266494  10.869   2.834   1.161  0.2849  0.6693 -0.3739
19752SOL     OW66495   3.191  10.041  12.643  0.4112  0.1379 -1.2365
19752SOL    HW166496   3.159  10.056  12.732  1.4101  3.1645 -1.2574
19752SOL    HW266497   3.277  10.002  12.655  0.5379  0.5212 -0.8515
19753SOL     OW66498   0.658  11.445   5.890 -0.1112  0.4254  0.2588
19753SOL    HW166499   0.581  11.390   5.902  0.9445 -1.3513 -0.6179
19753SOL    HW266500   0.678  11.438   5.797  1.8662 -0.2465  0.6959
19754SOL     OW66501   8.942   6.889  10.972 -0.0359  0.1317 -0.1629
19754SOL    HW166502   8.983   6.913  10.889  0.2270 -0.0578 -0.0896
19754SOL    HW266503   9.004   6.916  11.039 -0.5966  1.0091  0.0187
19755SOL     OW66504   1.161  10.496  12.196 -0.0125 -0.2528 -0.4943
19755SOL    HW166505   1.203  10.420  12.237 -0.5541  0.4859  1.5502
19755SOL    HW266506   1.214  10.570  12.224 -0.3703  0.2902 -1.2266
19756SOL     OW66507   4.965   0.993   0.166 -0.1089 -0.0117 -0.2573
19756SOL    HW166508   4.882   1.041   0.168  0.8040  1.6443 -0.1810
19756SOL    HW266509   4.948   0.912   0.214 -1.6766  0.3022 -0.2527
19757SOL     OW66510   9.590   4.383   3.699  0.7105 -0.2535 -0.8009
19757SOL    HW166511   9.507   4.430   3.707  1.5833  1.1141  0.9643
19757SOL    HW266512   9.613   4.389   3.607 -0.3683  0.7095 -1.0282
19758SOL     OW66513   3.123  11.564   9.233  0.2594  0.5196  0.0312
19758SOL    HW166514   3.041  11.612   9.225  0.3106  1.0672  2.2221
19758SOL    HW266515   3.165  11.602   9.310  1.5599 -1.2554  0.2451
19759SOL     OW66516   9.237   7.970   9.666 -0.0677 -0.4113 -0.0442
19759SOL    HW166517   9.310   7.977   9.727 -2.2384  1.8898  2.5310
19759SOL    HW266518   9.181   8.044   9.686 -2.5254 -1.3304 -2.7734
19760SOL     OW66519   6.205  12.278   3.598  0.1707 -0.7125 -0.2160
19760SOL    HW166520   6.264  12.207   3.572 -0.0304 -0.7988 -0.4379
19760SOL    HW266521   6.258  12.333   3.655  1.0269  0.2150 -1.8484
19761SOL     OW66522   7.599   9.429   3.860  0.7133  0.2655  0.0197
19761SOL    HW166523   7.576   9.470   3.943  0.0813  2.4457 -1.1697
19761SOL    HW266524   7.687   9.460   3.840  0.8221 -0.1593 -0.1922
19762SOL     OW66525  11.624   9.744   8.869  0.3808 -0.5756 -0.5553
19762SOL    HW166526  11.644   9.712   8.957 -0.8767  1.4886  0.5755
19762SOL    HW266527  11.681   9.821   8.859  0.6448 -0.9079 -1.6343
19763SOL     OW66528  10.596  11.280   1.017 -0.3280 -0.3285  0.2697
19763SOL    HW166529  10.554  11.266   0.932 -0.4860 -2.4338  0.6259
19763SOL    HW266530  10.593  11.375   1.030 -1.6696 -0.0848 -1.3756
19764SOL     OW66531  11.413  10.465   9.902  0.2563 -0.1725 -0.0662
19764SOL    HW166532  11.399  10.444   9.809 -1.6381 -0.2578  0.2007
19764SOL    HW266533  11.423  10.380   9.945  0.8097 -0.1467 -0.1376
19765SOL     OW66534   0.455   0.859   8.693  0.1988 -0.4896  0.6677
19765SOL    HW166535   0.478   0.929   8.754 -1.8946  0.0329  0.9241
19765SOL    HW266536   0.409   0.902   8.621  0.1584 -1.4308  0.1070
19766SOL     OW66537   5.408   4.457   4.628  0.1837 -0.0917  0.2413
19766SOL    HW166538   5.331   4.507   4.601  0.0101 -0.7764 -0.5578
19766SOL    HW266539   5.480   4.494   4.577 -0.1424 -1.3767 -1.2155
19767SOL     OW66540  12.189  10.362  10.362 -0.1496 -0.1997 -0.2803
19767SOL    HW166541  12.134  10.403  10.296  0.2867  0.0885 -0.4660
19767SOL    HW266542  12.252  10.430  10.388  0.5659 -0.7277 -0.5796
19768SOL     OW66543   8.289   3.861  10.202 -0.5523 -0.2661 -0.1935
19768SOL    HW166544   8.235   3.878  10.125 -2.0275  1.2667  1.0957
19768SOL    HW266545   8.317   3.948  10.232 -1.9947 -0.5725  2.3183
19769SOL     OW66546   1.827   3.805   1.648 -0.4578  0.3390 -0.6893
19769SOL    HW166547   1.747   3.855   1.667  0.4168  2.3155 -1.8903
19769SOL    HW266548   1.852   3.834   1.560  0.4801 -1.7807 -1.1686
19770SOL     OW66549   1.447   6.033   9.815 -0.1249  1.0096  0.3709
19770SOL    HW166550   1.376   5.980   9.850 -0.1553  1.8672  1.6680
19770SOL    HW266551   1.404   6.113   9.784  0.0328  0.6779 -0.7488
19771SOL     OW66552  12.197   0.962  12.041  0.6704 -0.1876 -0.0779
19771SOL    HW166553  12.269   0.960  11.978 -0.8095 -0.6090 -1.8548
19771SOL    HW266554  12.132   1.021  12.001  0.1958  0.5571  1.6947
19772SOL     OW66555   9.893  10.265   3.198 -0.2034  0.1218 -1.1875
19772SOL    HW166556   9.832  10.192   3.183 -1.4156  1.0461 -0.8860
19772SOL    HW266557   9.880  10.323   3.123  0.5595  0.1702 -1.2854
19773SOL     OW66558   5.179  11.988   5.417 -0.0391  0.0285  0.2067
19773SOL    HW166559   5.248  12.030   5.469 -1.4207 -0.9374  3.0725
19773SOL    HW266560   5.170  11.901   5.456 -1.5776 -0.5762 -1.3708
19774SOL     OW66561   3.426   9.203   4.679  0.1336  0.1338 -0.0994
19774SOL    HW166562   3.433   9.172   4.589  0.9111  1.0903 -0.3887
19774SOL    HW266563   3.454   9.128   4.732  0.9153 -0.0321 -0.7205
19775SOL     OW66564   2.677   4.936   1.483 -0.5130 -0.6784  0.3879
19775SOL    HW166565   2.701   4.926   1.575  0.6108  1.5818  0.4228
19775SOL    HW266566   2.658   4.847   1.453  1.3537 -1.7767  2.1968
19776SOL     OW66567   6.133   1.347  12.558  0.2287  0.3772 -0.0200
19776SOL    HW166568   6.154   1.256  12.533  1.0085  0.5615 -0.0785
19776SOL    HW266569   6.038   1.353  12.550  0.0428 -0.7614  1.0935
19777SOL     OW66570   0.873   5.971   6.587 -0.2754 -0.2411  0.2263
19777SOL    HW166571   0.863   5.968   6.682  0.8962 -0.4202  0.3624
19777SOL    HW266572   0.804   6.030   6.557 -0.3350  0.2207  1.2425
19778SOL     OW66573  12.170   1.327   2.570 -0.1807  0.0551  0.8561
19778SOL    HW166574  12.138   1.295   2.654 -1.7095 -0.4387  0.1100
19778SOL    HW266575  12.168   1.423   2.579 -1.8810  0.0453  0.8423
19779SOL     OW66576   1.183   9.189   9.701 -0.3809  0.1572  0.4333
19779SOL    HW166577   1.265   9.149   9.670 -1.9078 -0.7809 -2.8565
19779SOL    HW266578   1.191   9.281   9.675  0.0606  0.3305  1.1541
19780SOL     OW66579  12.616  12.395   8.145 -0.5234  0.0101  0.3240
19780SOL    HW166580  12.524  12.419   8.156 -0.5394  1.1665 -1.7401
19780SOL    HW266581  12.664  12.460   8.195 -0.7820 -1.1512  2.2027
19781SOL     OW66582   8.670  12.618   6.139  0.2887  0.3596  0.2838
19781SOL    HW166583   8.674  12.597   6.046  0.6853  1.3150  0.0716
19781SOL    HW266584   8.743  12.571   6.178  0.3840  0.3089  0.0432
19782SOL     OW66585   9.080   9.407  10.886 -0.3834  0.1411 -0.2899
19782SOL    HW166586   9.112   9.479  10.941  0.7728 -1.4220  1.2118
19782SOL    HW266587   9.130   9.414  10.805  0.2969  0.5791  0.1608
19783SOL     OW66588  12.623   7.243   1.426  0.4191  0.3801 -0.3664
19783SOL    HW166589  12.634   7.303   1.500  1.0042 -0.6714  0.4264
19783SOL    HW266590  12.696   7.263   1.368 -0.2880  1.5133 -0.9065
19784SOL     OW66591   4.809   0.727   0.197  0.5676 -0.1001  0.1572
19784SOL    HW166592   4.769   0.640   0.190  0.3971 -0.1206  1.1794
19784SOL    HW266593   4.786   0.771   0.115  0.4984 -0.9556 -0.2932
19785SOL     OW66594   9.336   7.462  11.666  0.0296  0.3715 -0.2134
19785SOL    HW166595   9.406   7.473  11.602  0.3042 -1.0977 -0.1951
19785SOL    HW266596   9.380   7.465  11.751  0.0499 -0.3494 -0.1947
19786SOL     OW66597   1.931  10.831   9.809 -0.0445  0.1281  0.4292
19786SOL    HW166598   1.989  10.830   9.885 -0.9063 -0.1912  1.1031
19786SOL    HW266599   1.973  10.773   9.745  0.4784  0.0669  0.8285
19787SOL     OW66600   0.252   0.908  12.698  0.3238  0.4270  0.6362
19787SOL    HW166601   0.204   0.959  12.633  2.4220 -0.3967 -1.6734
19787SOL    HW266602   0.184   0.858  12.744 -1.1261 -0.5729 -2.3660
19788SOL     OW66603  10.399   6.685   0.123 -0.3978 -0.9743 -0.0511
19788SOL    HW166604  10.407   6.779   0.141 -1.2527 -0.8422 -0.3472
19788SOL    HW266605  10.421   6.676   0.030 -1.2029 -0.9395 -0.2503
19789SOL     OW66606   9.218  11.090   2.992  0.0692 -0.9982 -0.2074
19789SOL    HW166607   9.124  11.091   2.973  0.3125 -1.7422 -1.5966
19789SOL    HW266608   9.246  11.181   2.977 -0.3135 -0.9069 -0.3961
19790SOL     OW66609   6.385  11.652   3.830 -0.2853  0.2162  0.2900
19790SOL    HW166610   6.435  11.707   3.771 -0.6281  0.0065 -0.2038
19790SOL    HW266611   6.451  11.599   3.875 -0.0844 -0.5460 -0.8481
19791SOL     OW66612   6.498   4.706   2.391  0.4282  0.3714  0.1057
19791SOL    HW166613   6.405   4.711   2.367  0.4961 -1.3529 -0.6347
19791SOL    HW266614   6.544   4.742   2.315  0.3797  1.8593  0.7410
19792SOL     OW66615   2.488  10.097   6.966  0.3691 -0.0247  0.1185
19792SOL    HW166616   2.403  10.082   7.007  1.3122  0.3390  2.3340
19792SOL    HW266617   2.470  10.163   6.899 -1.1505 -0.2486  0.2504
19793SOL     OW66618  12.574   4.716   9.631  0.3650 -0.3831 -0.1434
19793SOL    HW166619  12.514   4.644   9.610  0.9292 -0.4694 -1.5653
19793SOL    HW266620  12.538   4.791   9.585  0.5707 -0.0886  0.1709
19794SOL     OW66621  12.367   0.681   9.498 -0.1325  0.0102  0.4294
19794SOL    HW166622  12.370   0.670   9.593 -0.3644  0.8436  0.5420
19794SOL    HW266623  12.370   0.776   9.484 -1.5283 -0.0166 -0.3164
19795SOL     OW66624  11.391  12.225   2.193 -0.3956 -0.3192  0.0588
19795SOL    HW166625  11.323  12.234   2.260  0.3806 -0.6077  0.9202
19795SOL    HW266626  11.440  12.146   2.220  0.6833  0.2631 -0.1389
19796SOL     OW66627  11.802  12.005   1.120 -0.1655 -0.2628 -0.1563
19796SOL    HW166628  11.888  11.969   1.102  0.9333  1.7574  0.7697
19796SOL    HW266629  11.781  11.974   1.209 -1.2398 -2.1932 -1.0191
19797SOL     OW66630   4.798   8.396   0.635 -0.2421 -0.0478  0.3648
19797SOL    HW166631   4.733   8.373   0.701 -0.7942  0.9721  0.1983
19797SOL    HW266632   4.880   8.361   0.669 -0.7012 -0.4664  1.0669
19798SOL     OW66633   6.522   8.155   3.753  0.2738 -0.1071 -0.0283
19798SOL    HW166634   6.509   8.109   3.836 -3.2473  1.6783  0.5730
19798SOL    HW266635   6.571   8.234   3.776 -0.4462  0.2431  0.3010
19799SOL     OW66636   8.003   7.725  12.544 -0.0627 -0.6629  0.8125
19799SOL    HW166637   8.078   7.782  12.562 -0.2573 -0.1495  0.0696
19799SOL    HW266638   7.938   7.784  12.504  0.5612 -1.7955 -2.1001
19800SOL     OW66639  10.306   7.679   7.268 -0.4111  0.0747  0.6574
19800SOL    HW166640  10.359   7.653   7.343  0.6015 -2.2208 -0.7507
19800SOL    HW266641  10.348   7.637   7.193 -1.9033  1.5315 -1.1050
19801SOL     OW66642   2.267   3.844   0.287  0.0098 -0.3991 -0.4321
19801SOL    HW166643   2.275   3.752   0.264 -1.2088 -0.2098 -1.7011
19801SOL    HW266644   2.334   3.888   0.234 -0.1754 -0.4299 -0.6950
19802SOL     OW66645   4.791   7.175   1.487 -0.0015  0.3670  0.6855
19802SOL    HW166646   4.842   7.093   1.490  0.7094  0.7840  0.3368
19802SOL    HW266647   4.715   7.154   1.433 -1.6449 -1.0308  3.3628
19803SOL     OW66648   0.428   3.899   1.763 -0.0783 -0.4216  0.2208
19803SOL    HW166649   0.352   3.915   1.819  0.2856  0.4023  0.5121
19803SOL    HW266650   0.461   3.813   1.790 -0.3897 -0.3904  0.7109
19804SOL     OW66651   4.559   5.466  11.251  0.4218  0.0886 -0.1541
19804SOL    HW166652   4.593   5.526  11.185 -0.3190  0.1575 -0.4830
19804SOL    HW266653   4.486   5.421  11.208  2.1281 -2.4930 -0.5895
19805SOL     OW66654   5.396   2.972  10.604  0.9749 -1.0967  0.1723
19805SOL    HW166655   5.416   2.954  10.696  0.7296  0.9090  0.6549
19805SOL    HW266656   5.301   2.967  10.598  0.9406 -0.5480  0.1977
19806SOL     OW66657   1.633   1.098   5.219  0.5149  0.3226  0.2152
19806SOL    HW166658   1.538   1.104   5.214  0.5238  2.7733  1.5039
19806SOL    HW266659   1.651   1.008   5.247 -1.3807 -0.2165 -0.2022
19807SOL     OW66660   7.274   7.690   6.444 -0.4158 -0.0252 -0.3228
19807SOL    HW166661   7.366   7.668   6.434 -0.6406 -1.5234  0.5511
19807SOL    HW266662   7.273   7.785   6.450  0.9914  0.0609 -1.0129
19808SOL     OW66663   7.660   7.816   5.463  0.1484 -0.0057 -0.1091
19808SOL    HW166664   7.694   7.802   5.375 -1.1099 -0.5877 -0.5278
19808SOL    HW266665   7.608   7.738   5.482  1.1611 -0.3304  1.5525
19809SOL     OW66666   2.178   5.105   4.372 -0.0255  0.3125 -0.3177
19809SOL    HW166667   2.128   5.155   4.436 -0.4458  0.4726 -0.7666
19809SOL    HW266668   2.177   5.016   4.405 -0.7407  0.2862 -0.4038
19810SOL     OW66669  11.749   4.494  11.477 -0.4173 -0.1423 -0.1596
19810SOL    HW166670  11.809   4.488  11.403 -1.1939 -2.5055 -0.6654
19810SOL    HW266671  11.801   4.466  11.552 -0.2126  0.2123 -0.1663
19811SOL     OW66672  12.499   9.758   2.225  0.3051  0.9849 -0.5560
19811SOL    HW166673  12.487   9.705   2.147 -0.6621 -1.0750  0.9225
19811SOL    HW266674  12.523   9.845   2.191  2.1954 -0.3762 -3.0602
19812SOL     OW66675   2.304   5.057   2.330 -0.7241 -0.5133  0.9651
19812SOL    HW166676   2.295   5.007   2.249 -0.5352  0.1408  0.5349
19812SOL    HW266677   2.220   5.046   2.375 -1.3381  0.2615  0.0222
19813SOL     OW66678   8.716   1.886   7.297 -0.0690  0.2835 -0.1827
19813SOL    HW166679   8.746   1.805   7.337 -0.4904 -0.0597 -0.5504
19813SOL    HW266680   8.662   1.928   7.364  1.2916  0.9740  0.5377
19814SOL     OW66681   0.705  10.442  10.756 -0.2526  0.0832 -0.6454
19814SOL    HW166682   0.745  10.517  10.799 -0.5913  1.2320 -2.2502
19814SOL    HW266683   0.611  10.462  10.755 -0.4478 -0.7786 -0.3274
19815SOL     OW66684   0.802   4.373   7.582  0.3053 -0.5278  0.1964
19815SOL    HW166685   0.896   4.374   7.597  0.4175  0.5979 -0.4299
19815SOL    HW266686   0.793   4.339   7.493  0.1207 -0.6807  0.2742
19816SOL     OW66687   3.220  10.615   7.183 -0.5515  0.0086 -0.1128
19816SOL    HW166688   3.171  10.550   7.233  1.3395 -0.7313  0.8748
19816SOL    HW266689   3.291  10.566   7.141  1.4965  1.4791  1.3955
19817SOL     OW66690   6.427   9.175   7.862 -0.2600  0.6820  0.1724
19817SOL    HW166691   6.505   9.164   7.807 -0.4208 -0.2241  0.1136
19817SOL    HW266692   6.365   9.110   7.830 -0.6628  0.6880  0.9032
19818SOL     OW66693   7.688   9.055   3.760  0.0965 -0.8489  0.0042
19818SOL    HW166694   7.615   9.113   3.781  1.0761  0.5489 -0.3017
19818SOL    HW266695   7.686   9.049   3.664 -0.0365 -1.3846  0.0396
19819SOL     OW66696  10.713  11.481  11.333  0.5159 -0.0388  0.5290
19819SOL    HW166697  10.724  11.472  11.428 -1.4803 -1.1495  0.7195
19819SOL    HW266698  10.717  11.391  11.300 -2.9225 -0.1956  0.1743
19820SOL     OW66699   5.123   6.795   9.744  0.5609 -0.3714 -0.5905
19820SOL    HW166700   5.165   6.796   9.658  0.3895  0.9938 -0.6668
19820SOL    HW266701   5.181   6.847   9.799 -0.3534  0.4241 -0.3695
19821SOL     OW66702   5.288   2.348   3.736 -0.1965  0.2724 -0.1578
19821SOL    HW166703   5.290   2.435   3.776 -1.1137  0.8952 -1.3698
19821SOL    HW266704   5.349   2.354   3.663 -1.2539  0.3723 -1.0706
19822SOL     OW66705   1.698  10.353   9.337 -0.6157 -0.4291 -0.0574
19822SOL    HW166706   1.678  10.395   9.421  0.3662 -0.4787  0.2185
19822SOL    HW266707   1.629  10.288   9.326 -0.8277 -0.3367  0.6540
19823SOL     OW66708   0.687  11.834   9.244  0.3509  0.6316 -0.0690
19823SOL    HW166709   0.779  11.849   9.267  0.4049  0.2519 -0.0245
19823SOL    HW266710   0.649  11.921   9.238 -0.2692  0.8283  3.9035
19824SOL     OW66711   8.701  12.089   9.472  0.1130  0.5454  0.0119
19824SOL    HW166712   8.660  12.009   9.503  0.1228  0.2488 -0.7082
19824SOL    HW266713   8.669  12.098   9.382 -0.1588  1.5334  0.1971
19825SOL     OW66714  12.622  12.265   9.386 -0.6073  0.3645  0.4314
19825SOL    HW166715  12.584  12.187   9.428 -0.7140  0.8310  1.2127
19825SOL    HW266716  12.614  12.334   9.452 -0.6985  1.0929 -0.3303
19826SOL     OW66717   3.605   3.804   7.398 -0.7087 -0.8739 -0.5651
19826SOL    HW166718   3.631   3.727   7.449  0.4876  1.2662  2.3199
19826SOL    HW266719   3.683   3.827   7.347 -1.2222 -1.7789 -1.8087
19827SOL     OW66720   4.557   6.016   1.963 -0.3662  0.4655  0.4370
19827SOL    HW166721   4.592   6.037   2.049 -0.9943  0.1115  0.7907
19827SOL    HW266722   4.471   6.060   1.961 -1.5088 -1.5966  1.0210
19828SOL     OW66723   5.057  10.245   7.856 -0.4338  0.8002  0.2557
19828SOL    HW166724   5.053  10.284   7.769 -0.2672 -0.2951 -0.2586
19828SOL    HW266725   5.123  10.176   7.849 -1.6793 -0.4947  0.7480
19829SOL     OW66726   3.654  10.209   0.775  0.4062 -0.2219  0.5828
19829SOL    HW166727   3.565  10.241   0.762  0.3812 -0.1301  0.9647
19829SOL    HW266728   3.670  10.151   0.701  0.8798  1.5708 -0.7858
19830SOL     OW66729   4.616   5.326   3.864 -0.1487  0.4326 -0.2619
19830SOL    HW166730   4.590   5.264   3.796  2.5683 -1.5573  0.3555
19830SOL    HW266731   4.711   5.332   3.855  0.2711  0.3755  3.1192
19831SOL     OW66732   0.328   2.697   6.728  0.6750  0.0819 -0.3824
19831SOL    HW166733   0.315   2.775   6.782 -1.3365 -1.8026  2.0423
19831SOL    HW266734   0.379   2.638   6.782 -3.3447 -2.7981  0.7126
19832SOL     OW66735   5.989  10.084   2.330 -0.1086  0.1358  0.6462
19832SOL    HW166736   6.007  10.070   2.237 -1.2524  2.0260  0.0658
19832SOL    HW266737   5.899  10.116   2.331  0.5043  1.9919  2.1830
19833SOL     OW66738  11.250   8.763   6.463 -0.1781  0.1872 -0.1299
19833SOL    HW166739  11.169   8.713   6.457  0.1013 -0.3100  0.1290
19833SOL    HW266740  11.276   8.778   6.372 -0.2807 -0.1145 -0.2099
19834SOL     OW66741   2.607   9.168   0.718  0.0544 -0.1017  0.4309
19834SOL    HW166742   2.684   9.131   0.762 -1.1520 -0.8698  1.9573
19834SOL    HW266743   2.573   9.096   0.665 -0.4918 -0.2494  0.9718
19835SOL     OW66744   1.611   6.968   7.418 -0.1079  0.7692  0.4956
19835SOL    HW166745   1.573   7.000   7.336  1.0150 -1.5009 -1.0267
19835SOL    HW266746   1.696   7.010   7.424 -0.1176  0.8016  0.4008
19836SOL     OW66747   5.135   3.367   3.739  0.2555  0.2451  0.0292
19836SOL    HW166748   5.139   3.425   3.816  0.2656  0.8695 -0.4356
19836SOL    HW266749   5.221   3.325   3.737  0.1417 -0.0302  0.5470
19837SOL     OW66750   8.784   7.759   6.946  0.3001  0.2351 -0.2092
19837SOL    HW166751   8.873   7.744   6.977 -0.0260 -2.0052 -0.2049
19837SOL    HW266752   8.775   7.702   6.869 -1.5604 -0.7463  0.6602
19838SOL     OW66753  10.736  11.292  10.744  0.0698 -0.1219  0.3704
19838SOL    HW166754  10.675  11.359  10.711  1.8082  0.4818 -1.8987
19838SOL    HW266755  10.699  11.209  10.714 -0.0534  0.1767 -0.3396
19839SOL     OW66756   0.625  11.043   9.849 -0.6968 -0.0283  0.4569
19839SOL    HW166757   0.682  10.995   9.910  0.6148  2.1409  1.0531
19839SOL    HW266758   0.617  10.985   9.773  0.1438 -1.5159  1.4549
19840SOL     OW66759   5.527   8.512   7.126  0.0061 -0.1532  0.2557
19840SOL    HW166760   5.523   8.545   7.216  0.6708  0.3102  0.1310
19840SOL    HW266761   5.441   8.532   7.089  0.4527  1.7284  0.1125
19841SOL     OW66762   1.574   2.193   6.737  0.7244  0.0009  0.3425
19841SOL    HW166763   1.573   2.125   6.804  0.5682  0.6189  0.9857
19841SOL    HW266764   1.646   2.170   6.679  0.4626 -0.8899  0.3614
19842SOL     OW66765  10.237   0.004   4.983  0.5344  0.2379 -1.0282
19842SOL    HW166766  10.180  -0.026   4.912 -0.8896 -0.2364  0.2722
19842SOL    HW266767  10.192   0.079   5.020  0.6578 -0.2428  0.1300
19843SOL     OW66768  10.149  12.141   4.088 -0.6332 -0.0307 -0.1651
19843SOL    HW166769  10.153  12.065   4.030 -1.3846  0.0099 -0.2763
19843SOL    HW266770  10.171  12.215   4.030  0.3040 -0.1751 -0.0105
19844SOL     OW66771   9.668   1.874   2.451 -0.3222  0.2486  0.2736
19844SOL    HW166772   9.575   1.874   2.473  0.2468 -0.7170  3.0580
19844SOL    HW266773   9.681   1.792   2.402 -1.1990  1.2991 -1.8485
19845SOL     OW66774   9.643   1.844   3.935 -0.5147  0.3269  0.1935
19845SOL    HW166775   9.683   1.859   3.850 -1.1703 -1.0508 -0.3780
19845SOL    HW266776   9.602   1.758   3.928 -0.3330  0.0550  1.9954
19846SOL     OW66777   8.869   7.654   5.492  0.0156 -0.1327 -0.2739
19846SOL    HW166778   8.834   7.632   5.578 -2.7812  1.3611 -0.9103
19846SOL    HW266779   8.859   7.749   5.485  1.4803 -0.0303 -1.7389
19847SOL     OW66780   2.102   0.083   6.102  0.2505  0.1551 -0.0910
19847SOL    HW166781   2.150   0.088   6.185  2.2970  1.3896 -1.2803
19847SOL    HW266782   2.037   0.153   6.108 -0.5125 -0.6029  0.9557
19848SOL     OW66783   2.506   4.002   7.689 -0.8684 -0.1325 -0.1061
19848SOL    HW166784   2.475   3.922   7.647  1.5777 -1.6919  0.8341
19848SOL    HW266785   2.428   4.057   7.696 -2.8717 -2.8025  0.0954
19849SOL     OW66786   8.100   4.492  12.253  0.1205  0.5541 -0.1730
19849SOL    HW166787   8.078   4.400  12.242  1.3765  0.2671 -0.5111
19849SOL    HW266788   8.179   4.504  12.200  0.5743  1.5710  0.6967
19850SOL     OW66789   4.830   9.945   2.103 -0.4498  0.2669  0.2027
19850SOL    HW166790   4.755   9.980   2.053  0.5254 -0.8597 -2.1974
19850SOL    HW266791   4.894  10.015   2.102  0.2348 -0.3069 -1.7709
19851SOL     OW66792   2.011   3.370  10.646 -0.1300 -0.1217  0.2796
19851SOL    HW166793   2.020   3.283  10.686 -0.1592 -0.1175  0.2955
19851SOL    HW266794   2.047   3.359  10.558 -0.5602 -0.2710  0.1164
19852SOL     OW66795   3.062  11.790  10.183 -0.3963 -0.5587 -0.5042
19852SOL    HW166796   3.000  11.853  10.145  1.3043  0.7251 -1.2744
19852SOL    HW266797   3.146  11.835  10.179  0.6149 -2.3030  0.4166
19853SOL     OW66798   1.342   7.835  12.486  0.3569  0.1699  0.1020
19853SOL    HW166799   1.378   7.746  12.494 -0.1382  0.0263  0.8883
19853SOL    HW266800   1.252   7.826  12.516  0.4145  1.0125  0.5522
19854SOL     OW66801   2.279   3.077   8.659 -0.0305  0.5724  0.2980
19854SOL    HW166802   2.244   3.086   8.570  0.7106 -1.5787 -0.2589
19854SOL    HW266803   2.354   3.018   8.649  1.2418  1.7862  2.0867
19855SOL     OW66804  11.091   1.683   5.308 -0.1969 -0.5731 -0.7082
19855SOL    HW166805  11.087   1.690   5.213  0.9276 -1.8049 -0.8746
19855SOL    HW266806  11.082   1.589   5.326  0.0428 -0.4064  0.3695
19856SOL     OW66807   2.278   5.090   9.486  0.2895 -0.4158  0.3109
19856SOL    HW166808   2.272   5.152   9.558  1.8535  1.5700 -1.1656
19856SOL    HW266809   2.204   5.112   9.430  0.4175 -0.3811  0.1557
19857SOL     OW66810  12.492   3.950  10.470  0.7105  0.0222  0.7193
19857SOL    HW166811  12.473   3.995  10.387 -0.6691  0.3582  1.2042
19857SOL    HW266812  12.522   4.020  10.528  0.1708  0.0387  0.9755
19858SOL     OW66813   5.580   6.651   4.520 -0.2682 -0.7606  0.0238
19858SOL    HW166814   5.594   6.740   4.486  0.5221 -1.3796 -1.3937
19858SOL    HW266815   5.494   6.626   4.486 -1.0676 -0.1043  1.4867
19859SOL     OW66816   6.789   1.639  10.756  0.1580  0.3790  0.0387
19859SOL    HW166817   6.791   1.688  10.674  1.3251 -1.9205 -1.4267
19859SOL    HW266818   6.751   1.554  10.731  0.9533 -0.5255  1.7575
19860SOL     OW66819   9.203   3.488   2.315  0.6139 -0.5155 -0.2890
19860SOL    HW166820   9.285   3.446   2.288  0.1230 -1.8109  0.1456
19860SOL    HW266821   9.138   3.454   2.254 -0.0445 -1.5184  0.9172
19861SOL     OW66822   9.660   2.659  12.192 -0.0718 -0.0323 -0.1099
19861SOL    HW166823   9.667   2.743  12.237 -0.8079 -0.2660  0.4466
19861SOL    HW266824   9.672   2.680  12.100  1.7217  0.4249  0.1834
19862SOL     OW66825   8.473   5.894   8.587 -0.8061 -0.5134 -0.1639
19862SOL    HW166826   8.518   5.810   8.594 -2.4296 -1.5038 -0.9525
19862SOL    HW266827   8.534   5.950   8.541  0.0741 -1.4614 -0.1937
19863SOL     OW66828   1.280   9.872   3.791 -0.1302  0.2499 -0.0317
19863SOL    HW166829   1.199   9.914   3.760 -0.5957 -1.1796 -0.8605
19863SOL    HW266830   1.264   9.852   3.883 -0.0420  1.5149  0.2713
19864SOL     OW66831   3.983  11.227   5.063  0.4495  0.0028 -0.4615
19864SOL    HW166832   3.902  11.214   5.013 -0.5678  1.6194  0.6743
19864SOL    HW266833   3.972  11.175   5.142  1.0528 -0.6948 -0.8192
19865SOL     OW66834   0.433   7.090  10.872  0.0793  0.0930  0.0734
19865SOL    HW166835   0.398   7.165  10.825 -1.0072  0.0833  0.8236
19865SOL    HW266836   0.469   7.033  10.803 -0.4614  0.5917 -0.6355
19866SOL     OW66837   6.576  12.144   0.764  0.7147 -0.2087  0.4229
19866SOL    HW166838   6.501  12.153   0.822  1.0501  0.2502  0.7934
19866SOL    HW266839   6.549  12.186   0.683  0.6356  0.1089  0.6135
19867SOL     OW66840   8.660   7.603   8.136 -0.3021 -0.1522 -0.1519
19867SOL    HW166841   8.743   7.560   8.115 -0.1650 -0.6003  1.2105
19867SOL    HW266842   8.678   7.651   8.217 -1.0277  0.8168 -0.5452
19868SOL     OW66843   4.305   4.957   1.520  0.1142 -0.1025  0.1688
19868SOL    HW166844   4.244   4.920   1.456 -0.8378  1.1541  0.3147
19868SOL    HW266845   4.253   4.966   1.600  0.8822 -0.2768  0.7009
19869SOL     OW66846  11.716   0.678  10.098 -0.2512 -0.4268 -0.4280
19869SOL    HW166847  11.673   0.620  10.161 -0.7602 -1.2869 -1.5223
19869SOL    HW266848  11.738   0.756  10.148 -1.6947 -0.5961  0.5363
19870SOL     OW66849   4.883  11.776   1.730  0.6757  0.1758  0.0482
19870SOL    HW166850   4.888  11.751   1.638  2.5386  1.1195 -0.1547
19870SOL    HW266851   4.947  11.719   1.774 -0.2420 -0.3118  0.7966
19871SOL     OW66852  11.918   9.626   7.207  0.2369  0.4039 -0.6479
19871SOL    HW166853  11.908   9.639   7.113 -0.3304  0.0079 -0.6425
19871SOL    HW266854  11.988   9.687   7.232 -0.2067  1.1472 -1.1702
19872SOL     OW66855   8.596  10.379   2.919 -0.1276 -0.1813 -0.2513
19872SOL    HW166856   8.674  10.376   2.863  1.4259  0.6399  1.7361
19872SOL    HW266857   8.581  10.287   2.944  1.1954 -0.2089  0.5689
19873SOL     OW66858   4.252   3.929   3.175  0.1061 -0.0841 -0.4733
19873SOL    HW166859   4.255   3.834   3.161 -0.1637 -0.1207 -0.3037
19873SOL    HW266860   4.205   3.963   3.098  1.1900  0.0403 -1.0960
19874SOL     OW66861   1.854  12.358   2.771  0.3452 -0.0955  0.1588
19874SOL    HW166862   1.896  12.444   2.770  0.3693 -0.0970 -1.1480
19874SOL    HW266863   1.924  12.297   2.747  0.3870 -0.5298  1.3015
19875SOL     OW66864   7.092   1.846   3.563 -0.3735 -0.0645  0.2380
19875SOL    HW166865   7.174   1.799   3.550 -1.1756 -1.7259  0.9207
19875SOL    HW266866   7.030   1.779   3.591 -2.5265  0.7251 -2.2226
19876SOL     OW66867   6.619   0.126   5.408 -0.0290  0.2440 -0.0102
19876SOL    HW166868   6.660   0.064   5.469 -3.0630 -0.9585  1.0224
19876SOL    HW266869   6.633   0.089   5.322  0.1737 -0.6618  0.4065
19877SOL     OW66870  11.773   3.236   4.726 -0.2089 -0.0471  0.4154
19877SOL    HW166871  11.758   3.288   4.805 -1.0004 -0.4033  0.4972
19877SOL    HW266872  11.868   3.242   4.712 -0.2333  1.1296  0.6267
19878SOL     OW66873   6.587   0.122  12.707  0.5377  0.5354 -0.2531
19878SOL    HW166874   6.557   0.120  12.799  0.1957 -1.3701 -0.3535
19878SOL    HW266875   6.646   0.047  12.700 -0.3568 -0.0611 -1.8626
19879SOL     OW66876   7.958   9.059   1.986 -0.0183  0.1937 -0.2960
19879SOL    HW166877   7.990   9.137   1.939  0.3176  0.2654  0.0506
19879SOL    HW266878   7.995   8.985   1.938  0.5588  0.2729  0.0183
19880SOL     OW66879  10.402  12.530  10.488  0.4441  0.2999 -0.3943
19880SOL    HW166880  10.451  12.520  10.406  0.2026  0.8293 -0.6060
19880SOL    HW266881  10.405  12.624  10.507 -2.5135  0.7826 -1.6998
19881SOL     OW66882  11.763   1.274   0.299 -0.3345 -0.2065 -0.2344
19881SOL    HW166883  11.845   1.302   0.340 -1.3074  2.0613  0.3448
19881SOL    HW266884  11.776   1.287   0.205  0.3615 -1.0607 -0.2671
19882SOL     OW66885  12.169  11.790  10.157 -0.3331 -0.9257  0.1759
19882SOL    HW166886  12.127  11.861  10.207  1.3329 -0.2826  0.7508
19882SOL    HW266887  12.261  11.815  10.154  0.3712 -3.2276  0.6570
19883SOL     OW66888  10.496   8.469   9.097  0.3115 -0.2357 -0.0084
19883SOL    HW166889  10.494   8.562   9.119  0.1794 -0.8609  2.9800
19883SOL    HW266890  10.559   8.431   9.158 -0.6017 -2.3263 -0.2917
19884SOL     OW66891   3.221   9.356   1.702  0.5717  0.7548 -0.0425
19884SOL    HW166892   3.153   9.421   1.721  0.7428  1.0517 -0.4599
19884SOL    HW266893   3.183   9.300   1.635 -0.3465 -0.7825  1.6467
19885SOL     OW66894   8.146   7.142   9.875 -0.3165 -0.2702  0.0279
19885SOL    HW166895   8.218   7.080   9.880  1.0600  1.3408  1.8071
19885SOL    HW266896   8.131   7.155   9.782  1.6227 -0.7420 -0.3862
19886SOL     OW66897   7.436  11.696   6.888  0.1803  0.3555 -0.9166
19886SOL    HW166898   7.473  11.757   6.952  1.0748 -0.8507 -0.2632
19886SOL    HW266899   7.416  11.751   6.812 -0.8859  1.8208  0.3480
19887SOL     OW66900   7.829  10.498  10.504  0.4144 -0.6491 -0.7482
19887SOL    HW166901   7.806  10.579  10.458  1.0297  0.1679  0.3564
19887SOL    HW266902   7.842  10.524  10.595  0.9795 -1.9259 -0.4387
19888SOL     OW66903   5.335   8.927   8.553  0.1993 -0.7174 -0.5114
19888SOL    HW166904   5.411   8.950   8.499 -0.3374 -1.4720 -1.6186
19888SOL    HW266905   5.278   8.879   8.494 -1.3509  0.2091  0.1830
19889SOL     OW66906  12.495   6.043   4.505  0.3958  0.1561 -0.8349
19889SOL    HW166907  12.581   6.084   4.498  0.5529  0.1027  0.5119
19889SOL    HW266908  12.435   6.115   4.524  0.4550 -0.0310  0.1227
19890SOL     OW66909  11.473   5.470   3.383 -0.2392  0.8381 -0.3742
19890SOL    HW166910  11.378   5.477   3.387 -0.1851  1.5308 -0.2322
19890SOL    HW266911  11.502   5.549   3.338  0.1699 -0.1217 -1.8766
19891SOL     OW66912  10.008   1.427   8.903  0.1552  0.1043 -0.3792
19891SOL    HW166913  10.049   1.343   8.923  0.2138 -0.2986 -2.0270
19891SOL    HW266914  10.081   1.484   8.880  0.0321  0.2323 -0.4518
19892SOL     OW66915   5.746   4.025   4.289  0.0660 -0.7305 -0.4204
19892SOL    HW166916   5.665   3.975   4.286 -0.4671  0.1143 -0.3412
19892SOL    HW266917   5.815   3.960   4.275 -0.7236 -1.1930 -2.5015
19893SOL     OW66918   2.594   2.296   8.115  0.0664  1.0337  0.1362
19893SOL    HW166919   2.626   2.384   8.137  0.1461  1.0442 -0.0201
19893SOL    HW266920   2.502   2.297   8.141 -0.0267  1.2816 -0.1873
19894SOL     OW66921   7.176  11.733   2.099 -0.6698  0.6293  0.1330
19894SOL    HW166922   7.183  11.717   2.193 -1.4193  0.3505  0.1523
19894SOL    HW266923   7.248  11.792   2.079 -0.5916  0.8087  0.9116
19895SOL     OW66924   0.157  10.476   6.050  0.0186  0.6311 -0.1055
19895SOL    HW166925   0.125  10.562   6.023 -0.5317  0.6438  0.5316
19895SOL    HW266926   0.078  10.431   6.081 -0.0565 -0.8102 -2.1754
19896SOL     OW66927   4.282   7.748   8.036  0.4409  0.4411  0.5659
19896SOL    HW166928   4.346   7.722   8.103 -0.2777 -2.9490  0.1356
19896SOL    HW266929   4.198   7.722   8.072 -0.1877  0.5966 -0.7331
19897SOL     OW66930   0.159  12.428   6.316 -0.2660  0.4392  0.2408
19897SOL    HW166931   0.215  12.396   6.245 -1.5947 -0.2033 -0.5738
19897SOL    HW266932   0.139  12.518   6.292  0.2669  0.6110  0.4381
19898SOL     OW66933   8.233  12.526   9.313 -0.2438 -0.2467  0.3533
19898SOL    HW166934   8.219  12.449   9.257 -0.3747  0.7043 -0.9958
19898SOL    HW266935   8.148  12.570   9.314  0.0700  0.3695  0.3291
19899SOL     OW66936   1.724   4.957   9.938  0.5008 -0.4599 -0.0988
19899SOL    HW166937   1.704   4.882   9.994  0.5883 -0.3259  0.1127
19899SOL    HW266938   1.773   5.017   9.995  1.8599 -0.9501 -0.7035
19900SOL     OW66939   9.320   4.882   3.549 -0.2457 -0.4227 -0.1648
19900SOL    HW166940   9.363   4.928   3.621  0.7041 -1.4602 -0.0473
19900SOL    HW266941   9.227   4.900   3.562 -0.0533 -0.1804  1.0411
19901SOL     OW66942  12.518   8.110  11.927 -0.9804 -0.3551  0.1685
19901SOL    HW166943  12.554   8.021  11.919  0.2972  0.2064 -0.7408
19901SOL    HW266944  12.512   8.141  11.837  0.1929  1.0772  0.5455
19902SOL     OW66945   9.432   0.898   9.937  0.6179  0.6140  0.8373
19902SOL    HW166946   9.376   0.853   9.874 -0.7679  1.8575  1.1461
19902SOL    HW266947   9.512   0.919   9.888  1.0089 -1.4831  0.4888
19903SOL     OW66948   0.743   2.296   0.040 -0.2529  0.0495  0.0670
19903SOL    HW166949   0.786   2.375   0.072 -1.1721  0.9168 -0.7314
19903SOL    HW266950   0.813   2.242   0.006  0.3428  0.7675  0.1341
19904SOL     OW66951   4.029   8.903   9.492  1.1306  0.0707  0.0078
19904SOL    HW166952   4.078   8.822   9.503  0.6956 -0.2166 -0.1558
19904SOL    HW266953   4.032   8.945   9.578  0.2145 -0.7669  0.4692
19905SOL     OW66954   9.640   2.660   5.703  1.3104  0.6396 -0.0703
19905SOL    HW166955   9.702   2.716   5.750  0.4256  1.0606  0.6336
19905SOL    HW266956   9.670   2.661   5.612  2.2269  0.9691  0.2257
19906SOL     OW66957   4.654   7.058  12.671 -0.1477  0.2923  0.0207
19906SOL    HW166958   4.588   7.127  12.678  0.2405  0.6038  0.7900
19906SOL    HW266959   4.673   7.034  12.762 -0.0568 -0.6205 -0.2322
19907SOL     OW66960  12.530   7.190  10.883  0.3832 -0.2593  0.7887
19907SOL    HW166961  12.562   7.280  10.888  0.2863 -0.1398 -0.3404
19907SOL    HW266962  12.455   7.188  10.942  0.5572  0.3258  1.0397
19908SOL     OW66963   5.217   8.327   6.158 -0.4862  0.3478 -0.4869
19908SOL    HW166964   5.238   8.398   6.219  0.7420  0.0736 -0.5611
19908SOL    HW266965   5.244   8.361   6.073  2.1700 -0.9305 -0.2760
19909SOL     OW66966   9.288   3.772   8.076 -0.8791  0.1448  0.2610
19909SOL    HW166967   9.325   3.798   8.161 -1.5997 -2.6828  1.5929
19909SOL    HW266968   9.361   3.728   8.031 -0.5237  1.5587 -0.5818
19910SOL     OW66969   7.024  11.792  10.420  0.2886  0.1680 -0.5488
19910SOL    HW166970   7.062  11.782  10.508 -2.9451  1.1468  1.1287
19910SOL    HW266971   6.996  11.884  10.417  0.1440  0.0970 -2.5684
19911SOL     OW66972   4.141   0.860   6.138 -0.3492 -0.0116  0.7481
19911SOL    HW166973   4.203   0.809   6.190 -0.1643  0.2315  0.7683
19911SOL    HW266974   4.128   0.809   6.058 -1.2651 -0.7878  1.3899
19912SOL     OW66975   9.674   4.174   9.019 -0.4965 -0.0848 -0.3040
19912SOL    HW166976   9.629   4.183   8.936 -0.6470  2.2537 -0.0330
19912SOL    HW266977   9.732   4.250   9.024  0.8341 -1.1170  0.9431
19913SOL     OW66978   6.488   5.016   4.210  0.0590 -0.8292 -0.3447
19913SOL    HW166979   6.567   5.054   4.249 -0.3448 -1.3129  0.9837
19913SOL    HW266980   6.447   5.089   4.163  0.1842 -0.0379  0.7466
19914SOL     OW66981  12.266   9.890   7.969  0.2927  0.2652 -0.3469
19914SOL    HW166982  12.357   9.860   7.962  0.4242  0.9387 -2.3629
19914SOL    HW266983  12.217   9.833   7.909 -0.5495  0.1458  0.4388
19915SOL     OW66984  11.616   3.810   1.680  0.1179  0.4813 -0.1360
19915SOL    HW166985  11.660   3.811   1.595  2.5887 -0.7976  1.0234
19915SOL    HW266986  11.531   3.771   1.662  0.5099  0.4127 -2.0486
19916SOL     OW66987  12.175   0.475   7.895 -0.3047 -0.2896 -0.2624
19916SOL    HW166988  12.190   0.382   7.878  0.3610 -0.1031 -0.7320
19916SOL    HW266989  12.234   0.496   7.967  0.3326  0.0127 -0.8662
19917SOL     OW66990   8.219   7.507  10.462  0.2645  0.4710 -0.5668
19917SOL    HW166991   8.254   7.467  10.382  0.5085  1.0154 -0.7384
19917SOL    HW266992   8.239   7.600  10.453  3.0213  0.2004  1.4703
19918SOL     OW66993  10.608   5.343   6.504  0.4046 -0.5457 -0.0551
19918SOL    HW166994  10.600   5.434   6.535 -0.0187 -0.4465 -0.4578
19918SOL    HW266995  10.657   5.350   6.422 -2.7163 -0.2770 -2.0365
19919SOL     OW66996  11.208  12.061   1.576 -0.3866  0.4115  0.2921
19919SOL    HW166997  11.265  12.137   1.588  1.3639 -0.8894  0.6020
19919SOL    HW266998  11.126  12.086   1.617 -0.3323  2.6235 -0.7742
19920SOL     OW66999  12.597   4.264  11.361 -0.1942  0.4135  0.2084
19920SOL    HW167000  12.624   4.317  11.286 -1.9479  0.5812 -0.3278
19920SOL    HW267001  12.502   4.271  11.363 -0.2642 -0.5184  1.7773
19921SOL     OW67002   9.818   0.576   7.157 -0.7467  0.3476  0.0960
19921SOL    HW167003   9.752   0.578   7.227  0.6506 -0.6901  1.5104
19921SOL    HW267004   9.845   0.484   7.152  0.9571  0.8227 -0.0730
19922SOL     OW67005   5.792   1.172  12.348  0.1429  0.6337  0.4111
19922SOL    HW167006   5.848   1.094  12.358  0.6029  0.9070  0.0224
19922SOL    HW267007   5.742   1.176  12.429 -0.3048 -0.3937  0.2058
19923SOL     OW67008  11.340   4.182   9.625 -0.1672 -0.1443  0.5894
19923SOL    HW167009  11.389   4.234   9.689  0.5229 -2.3021  1.9043
19923SOL    HW267010  11.254   4.170   9.664 -0.8354  1.1724 -0.3896
19924SOL     OW67011   6.427   4.465   7.256 -0.1604 -0.4418  0.4014
19924SOL    HW167012   6.453   4.444   7.346 -0.9341  2.5036  1.4480
19924SOL    HW267013   6.333   4.481   7.261  0.0663  1.5423 -0.4643
19925SOL     OW67014  10.660   7.267   1.135 -0.0916  0.8950  0.0382
19925SOL    HW167015  10.625   7.182   1.109  1.6892 -0.0347  0.5507
19925SOL    HW267016  10.637   7.325   1.062 -0.0311 -0.3597 -1.0318
19926SOL     OW67017   7.630  11.967   1.756 -0.1130  0.0317  0.2767
19926SOL    HW167018   7.571  11.947   1.829 -1.3389  0.7291 -0.4882
19926SOL    HW267019   7.696  11.898   1.759 -0.2942 -0.1058  1.8739
19927SOL     OW67020   7.211   5.732   4.220 -0.0426  0.1542 -0.3856
19927SOL    HW167021   7.231   5.651   4.267  0.5102  0.3985 -0.1906
19927SOL    HW267022   7.296   5.775   4.208 -0.4390  1.2535  0.5288
19928SOL     OW67023   6.778   6.732   0.061  0.0689  0.0121 -1.2604
19928SOL    HW167024   6.796   6.699   0.149 -1.3104 -0.5253 -1.1431
19928SOL    HW267025   6.694   6.778   0.070  0.3304  0.6701 -2.1183
19929SOL     OW67026   9.933   4.848  11.911 -0.4137 -0.0840 -0.3493
19929SOL    HW167027   9.972   4.932  11.936  0.6004 -0.4317 -0.7367
19929SOL    HW267028   9.847   4.871  11.876 -1.1457  0.5938  1.6986
19930SOL     OW67029  12.399  10.683   6.381 -0.4793  0.3368  0.2491
19930SOL    HW167030  12.490  10.654   6.385 -0.6604 -0.4498 -0.8299
19930SOL    HW267031  12.388  10.718   6.292 -1.2917  0.1866  0.2747
19931SOL     OW67032   4.336   4.887   8.186  0.4462  0.0726 -0.2460
19931SOL    HW167033   4.427   4.867   8.210  0.4268 -1.2708 -1.1831
19931SOL    HW267034   4.341   4.970   8.139  0.8917  1.0890  1.5023
19932SOL     OW67035   3.402  11.789  12.282 -0.1786 -0.5749  0.3802
19932SOL    HW167036   3.474  11.852  12.273 -0.9177  0.3897  1.1356
19932SOL    HW267037   3.436  11.724  12.344  0.0112 -0.0715  0.8136
19933SOL     OW67038   7.356  10.523  12.542 -0.2448 -0.1872 -0.2907
19933SOL    HW167039   7.415  10.513  12.467  1.3016 -0.8450  0.9625
19933SOL    HW267040   7.303  10.443  12.541  0.2786 -0.5404 -0.2551
19934SOL     OW67041   6.627  11.548   2.816  0.3313  0.2302 -0.7208
19934SOL    HW167042   6.631  11.580   2.906  1.8390  0.3763 -0.8226
19934SOL    HW267043   6.622  11.627   2.762 -1.4153  0.1294 -0.7626
19935SOL     OW67044  10.906   4.799   0.922  0.2123 -0.2870 -0.0054
19935SOL    HW167045  10.826   4.782   0.973  0.5675 -0.5502  0.4744
19935SOL    HW267046  10.886   4.766   0.834 -1.7130  3.3451 -1.0949
19936SOL     OW67047   4.028   5.590   8.598 -0.6367  0.0921  0.4877
19936SOL    HW167048   4.080   5.670   8.589 -1.2996  0.6705  1.5192
19936SOL    HW267049   3.983   5.601   8.682 -0.9369 -1.2580  0.5234
19937SOL     OW67050   3.868   0.735  11.871  0.1988  0.2232  0.0090
19937SOL    HW167051   3.785   0.698  11.841  0.4651 -0.2953 -0.1005
19937SOL    HW267052   3.855   0.830  11.869  0.4790  0.2732 -2.6061
19938SOL     OW67053   2.528   9.829   3.235  0.5546  0.2680  0.1857
19938SOL    HW167054   2.453   9.847   3.178 -0.4447 -0.9395  1.0672
19938SOL    HW267055   2.500   9.859   3.321  0.6293 -1.2194  0.7505
19939SOL     OW67056   9.312   2.413   8.091 -0.7455  0.1443 -0.2566
19939SOL    HW167057   9.391   2.450   8.052 -0.3866 -1.2801 -0.9449
19939SOL    HW267058   9.344   2.348   8.154 -1.3330 -1.3339 -1.4196
19940SOL     OW67059   7.543   2.540   6.952 -0.0809  0.2036 -0.2627
19940SOL    HW167060   7.521   2.614   7.009 -1.7664 -0.7504  0.3923
19940SOL    HW267061   7.623   2.504   6.989  0.1148  1.0042  0.1070
19941SOL     OW67062   6.038   6.757   2.132 -0.5286  0.2954  0.7088
19941SOL    HW167063   6.037   6.766   2.037 -2.5233 -0.8889  0.5518
19941SOL    HW267064   5.993   6.835   2.165  0.3707  0.8224  0.7254
19942SOL     OW67065   9.382   1.435   9.556 -0.0180 -0.4873 -0.4540
19942SOL    HW167066   9.391   1.496   9.482  0.1413  1.4193  1.0561
19942SOL    HW267067   9.462   1.383   9.555  0.5320  0.3430 -0.9331
19943SOL     OW67068  10.690  10.183  12.685 -0.8435 -0.1472 -0.5616
19943SOL    HW167069  10.759  10.216  12.627 -0.7924 -0.1218 -0.4869
19943SOL    HW267070  10.721  10.205  12.773 -0.6334 -0.7147 -0.4873
19944SOL     OW67071  11.588   4.301   0.097 -0.2537  0.1673  0.1673
19944SOL    HW167072  11.493   4.301   0.100 -0.2342  0.1888  0.8383
19944SOL    HW267073  11.615   4.242   0.167  0.1749 -2.7885 -2.2620
19945SOL     OW67074  11.963  12.343  11.819 -0.2940 -0.5268  0.3908
19945SOL    HW167075  12.004  12.321  11.903  1.4822  1.7916  0.2308
19945SOL    HW267076  11.897  12.409  11.841 -0.2386 -0.3436  0.0130
19946SOL     OW67077   2.941   9.058   9.650  0.3956 -0.1366 -0.0994
19946SOL    HW167078   2.971   9.079   9.562  0.6605 -1.4451 -0.3519
19946SOL    HW267079   3.017   9.019   9.692  0.3315  0.6845  0.7874
19947SOL     OW67080  11.882  12.584  11.302 -0.5475 -0.0149  0.1302
19947SOL    HW167081  11.956  12.578  11.362  1.1825  1.1240 -1.7697
19947SOL    HW267082  11.831  12.505  11.319  1.3581 -1.1010  1.1685
19948SOL     OW67083  10.362   6.256   2.085 -0.3278  0.0015 -0.5625
19948SOL    HW167084  10.284   6.308   2.066 -0.7524 -0.7774 -1.0361
19948SOL    HW267085  10.334   6.165   2.069  0.2574 -0.4174  0.6920
19949SOL     OW67086   4.956   8.617  10.726  0.1966  0.5794 -0.2208
19949SOL    HW167087   4.983   8.576  10.809  0.0271  0.5185 -0.1949
19949SOL    HW267088   4.861   8.607  10.725  0.1102  1.3437 -0.0210
19950SOL     OW67089   8.964  11.657   7.863  0.3036 -0.6009  0.4452
19950SOL    HW167090   8.977  11.701   7.947  1.6421 -2.4258  1.2834
19950SOL    HW267091   8.948  11.565   7.887 -2.4589 -0.6462 -1.1938
19951SOL     OW67092   2.079   4.214   0.890  0.1672  0.1900 -0.5132
19951SOL    HW167093   2.135   4.193   0.816  0.7632 -3.0309  0.6694
19951SOL    HW267094   1.989   4.205   0.857  0.3971 -3.3543 -0.4972
19952SOL     OW67095  12.417   6.857  11.343  0.2607 -0.4397  0.1012
19952SOL    HW167096  12.350   6.856  11.411  0.3230 -0.1525  0.1719
19952SOL    HW267097  12.394   6.932  11.288 -0.3654 -1.2651 -0.7893
19953SOL     OW67098   7.793  11.609   5.785 -0.5294 -0.1401  0.5465
19953SOL    HW167099   7.843  11.688   5.765 -0.7987 -0.0130  0.3855
19953SOL    HW267100   7.839  11.571   5.861 -1.7139  1.3660  2.0790
19954SOL     OW67101   4.096   3.581   9.915  0.0938  0.2718  0.7488
19954SOL    HW167102   4.053   3.642   9.974  0.3994 -0.8641  2.2144
19954SOL    HW267103   4.025   3.529   9.877 -0.0627  0.6296  0.5528
19955SOL     OW67104   6.079   4.786   5.079  0.8799 -0.2113  0.0939
19955SOL    HW167105   6.147   4.763   5.142  1.0278 -0.0250  0.0040
19955SOL    HW267106   6.082   4.881   5.075 -0.3424 -0.0968  1.1479
19956SOL     OW67107   7.080   0.770   9.202  0.5964  0.1098  0.3191
19956SOL    HW167108   6.992   0.808   9.215  0.7340  0.5909 -0.1205
19956SOL    HW267109   7.070   0.679   9.228  0.0072  0.2054  0.4615
19957SOL     OW67110   0.653   1.520   8.560  0.4266 -0.3855 -0.0141
19957SOL    HW167111   0.629   1.517   8.653 -1.5162  0.7636 -0.4391
19957SOL    HW267112   0.673   1.612   8.543 -2.0892 -0.0232 -1.3653
19958SOL     OW67113   7.108   2.522   6.720 -0.2430 -0.1237  0.5722
19958SOL    HW167114   7.113   2.442   6.772  0.0523  0.6465  1.7609
19958SOL    HW267115   7.187   2.571   6.744  0.9161 -0.5491 -2.0020
19959SOL     OW67116   0.791   1.097   2.096  0.3061  0.7385 -0.1951
19959SOL    HW167117   0.836   1.179   2.114 -0.0905  1.5110 -2.3960
19959SOL    HW267118   0.698   1.118   2.108 -0.0075  1.3790 -3.0125
19960SOL     OW67119   1.998   9.854   1.330  0.2886  0.1012  0.0481
19960SOL    HW167120   2.023   9.919   1.264 -1.0430 -0.0759 -0.6797
19960SOL    HW267121   2.059   9.782   1.317  0.0593  0.0746 -1.0099
19961SOL     OW67122   6.678   8.607   2.099 -0.9297 -0.0677  0.5445
19961SOL    HW167123   6.604   8.661   2.129 -1.2927  1.5248 -2.7250
19961SOL    HW267124   6.750   8.669   2.090 -0.6522 -0.5721 -0.9751
19962SOL     OW67125   4.877   8.036   9.907  0.5110  0.0912 -0.0454
19962SOL    HW167126   4.884   8.132   9.913  0.4980  0.1286 -0.5942
19962SOL    HW267127   4.795   8.021   9.860 -0.1758 -0.2292  1.2018
19963SOL     OW67128   5.539   9.908  10.319 -0.6196  0.9954  0.2189
19963SOL    HW167129   5.468   9.865  10.272 -0.8885  0.3890  1.1291
19963SOL    HW267130   5.536   9.999  10.292  0.3014  0.3795 -2.1987
19964SOL     OW67131   4.623   3.355  10.686 -0.1133 -0.1255  0.2080
19964SOL    HW167132   4.583   3.296  10.750  0.2409  1.6365  2.1666
19964SOL    HW267133   4.582   3.440  10.703 -0.1715  0.3757 -2.1141
19965SOL     OW67134   9.809  10.208   1.524 -0.1214 -0.2063  0.1414
19965SOL    HW167135   9.849  10.252   1.449 -3.7320  0.5202 -1.5572
19965SOL    HW267136   9.780  10.280   1.581 -1.5747 -0.5520 -0.1364
19966SOL     OW67137   8.465   8.635   6.232  0.5692  0.0097 -0.2164
19966SOL    HW167138   8.503   8.706   6.283 -3.4332  1.1795  1.5236
19966SOL    HW267139   8.421   8.580   6.297 -0.6052 -1.2564 -1.9886
19967SOL     OW67140   3.460   2.580  11.276  0.2348 -0.7839 -0.6442
19967SOL    HW167141   3.477   2.495  11.234  1.1238 -0.2812 -1.3391
19967SOL    HW267142   3.424   2.634  11.205  2.1747  0.2130 -0.9268
19968SOL     OW67143   7.212  12.319   0.062 -0.7311 -1.0664 -0.6799
19968SOL    HW167144   7.125  12.302   0.100 -1.1838 -0.7460 -1.5474
19968SOL    HW267145   7.209  12.411   0.037  0.7437 -0.3359  1.5137
19969SOL     OW67146  12.382  10.450   2.547 -0.2047 -0.0122 -0.5423
19969SOL    HW167147  12.428  10.477   2.626 -2.6305  1.3525  0.5257
19969SOL    HW267148  12.448  10.404   2.494  2.0773  1.1153  1.1895
19970SOL     OW67149   4.158   0.869   4.784  0.1444 -0.0221  0.4414
19970SOL    HW167150   4.159   0.784   4.739 -1.7483 -0.4000  1.0232
19970SOL    HW267151   4.076   0.869   4.833  0.4293  1.8821  0.9962
19971SOL     OW67152   8.558   6.897   5.782 -0.3222 -0.2991 -0.3327
19971SOL    HW167153   8.574   6.958   5.710  0.5223  0.1003  0.1677
19971SOL    HW267154   8.580   6.811   5.746  4.7137  0.2433  0.5859
19972SOL     OW67155   6.305   0.376   2.203  1.2269 -0.1642  0.4302
19972SOL    HW167156   6.361   0.374   2.281 -0.9437  0.0020  2.0604
19972SOL    HW267157   6.285   0.284   2.186  1.0824 -0.1547  0.5449
19973SOL     OW67158  11.458   0.222   5.357 -0.5035 -0.0577 -0.0007
19973SOL    HW167159  11.484   0.162   5.427  1.3603  0.3924 -0.2566
19973SOL    HW267160  11.470   0.309   5.394 -2.2066  0.1999  0.0245
19974SOL     OW67161   6.053  10.182   2.941 -0.3272  0.3216 -0.1029
19974SOL    HW167162   6.129  10.126   2.954 -0.7662 -0.2484  0.0585
19974SOL    HW267163   6.027  10.167   2.850 -0.9941 -0.4473  0.2035
19975SOL     OW67164  10.541   6.485  11.707 -0.1083  0.1419 -0.1295
19975SOL    HW167165  10.615   6.425  11.700  1.0359  1.3186  1.1375
19975SOL    HW267166  10.465   6.433  11.682  1.0884 -1.2208 -1.0902
19976SOL     OW67167   0.165   1.113   8.649 -0.5027  0.1112  0.4250
19976SOL    HW167168   0.116   1.155   8.578 -0.1385 -0.3883 -0.1387
19976SOL    HW267169   0.188   1.027   8.614  0.0440  0.0174  0.9974
19977SOL     OW67170   1.561   8.048  10.294 -0.4325  0.1740 -0.4778
19977SOL    HW167171   1.555   8.136  10.331  1.7561  0.1735 -0.0270
19977SOL    HW267172   1.573   7.991  10.370  0.5676 -0.2326 -0.9350
19978SOL     OW67173  10.660   2.423  10.025 -0.0294  0.5315  0.0312
19978SOL    HW167174  10.691   2.430   9.935  0.5578  0.7615  0.2502
19978SOL    HW267175  10.725   2.369  10.069  1.3785  2.9267  1.0672
19979SOL     OW67176   0.159   6.007   4.592  0.1601 -0.0105  0.2626
19979SOL    HW167177   0.149   5.980   4.684 -0.6422 -0.7487 -0.0185
19979SOL    HW267178   0.099   6.081   4.582  2.0002  1.6621  0.9094
19980SOL     OW67179   5.407   3.305   3.834  0.2610  0.3594  0.3783
19980SOL    HW167180   5.403   3.389   3.880 -0.5735  0.0502  0.8985
19980SOL    HW267181   5.500   3.285   3.828  0.5153  1.6271 -0.3220
19981SOL     OW67182   0.134  12.289   6.550  0.1373 -0.1512  0.1150
19981SOL    HW167183   0.092  12.361   6.597  2.7176  0.4176  1.7567
19981SOL    HW267184   0.154  12.324   6.464  0.2549  0.6787  0.4753
19982SOL     OW67185   8.744   9.022  11.081  0.6883 -0.1741 -0.7193
19982SOL    HW167186   8.660   8.977  11.091  0.9854 -0.5062  0.3701
19982SOL    HW267187   8.787   8.975  11.009  0.3813 -0.6811 -0.5783
19983SOL     OW67188  11.222   3.338   9.307 -0.3725  0.7776 -0.0394
19983SOL    HW167189  11.228   3.261   9.250  0.9562  1.4651 -0.8804
19983SOL    HW267190  11.302   3.388   9.288 -0.8229  1.9632  1.0715
19984SOL     OW67191  10.612   0.263   8.667 -0.5374  0.2328  0.4695
19984SOL    HW167192  10.570   0.210   8.599 -0.1078  0.2572  0.1823
19984SOL    HW267193  10.555   0.340   8.675 -1.1743 -0.2695  0.9038
19985SOL     OW67194   8.697   5.758   6.322  0.6442  0.0162 -0.2086
19985SOL    HW167195   8.705   5.831   6.384 -1.1420 -0.1712  0.2930
19985SOL    HW267196   8.767   5.773   6.259  1.0564  1.5137  0.5483
19986SOL     OW67197   4.917  10.232   1.226 -0.2411 -0.0229  0.1227
19986SOL    HW167198   4.856  10.300   1.197  0.5888  0.7561  0.1496
19986SOL    HW267199   4.887  10.208   1.313  0.6225  1.7832  0.9712
19987SOL     OW67200  10.693   2.832   8.159  0.2513  0.1478 -0.2207
19987SOL    HW167201  10.690   2.744   8.121 -2.6464  0.0400 -0.0208
19987SOL    HW267202  10.608   2.870   8.136  0.6657  2.1868  1.3509
19988SOL     OW67203   1.057   6.337  11.380  1.1474  0.4449  0.0859
19988SOL    HW167204   0.988   6.397  11.410 -0.2370 -0.8239 -0.3986
19988SOL    HW267205   1.115   6.391  11.327 -0.2908  1.2851 -0.6898
19989SOL     OW67206  10.180   0.958   3.842 -0.0412  0.0028  0.1786
19989SOL    HW167207  10.152   0.898   3.773  1.1853 -0.9090  0.4395
19989SOL    HW267208  10.112   1.025   3.845 -0.4109 -0.2575 -1.5222
19990SOL     OW67209   4.818   1.463   1.132 -0.0788  0.0389  0.7142
19990SOL    HW167210   4.818   1.406   1.055  0.5910 -1.3315  1.6799
19990SOL    HW267211   4.889   1.525   1.117  1.1863 -1.2881  0.9293
19991SOL     OW67212   0.826   6.327   4.685 -0.0014 -0.1092 -0.2763
19991SOL    HW167213   0.869   6.378   4.753  0.0700 -0.5112 -0.0144
19991SOL    HW267214   0.825   6.384   4.609 -1.2142  0.8312  0.4075
19992SOL     OW67215  11.650  12.197   5.249 -0.0855 -0.4234  0.8191
19992SOL    HW167216  11.631  12.180   5.156  1.7058 -0.0469  0.3522
19992SOL    HW267217  11.586  12.145   5.296  0.6955 -2.8376 -0.6157
19993SOL     OW67218   4.613  10.142  10.045 -0.1605  0.2263 -0.6238
19993SOL    HW167219   4.692  10.089  10.039  0.5633  1.0522  0.9188
19993SOL    HW267220   4.575  10.139   9.957  1.5675 -0.2096 -1.4039
19994SOL     OW67221  11.157   6.709   3.803  0.7693 -0.2651  0.2953
19994SOL    HW167222  11.235   6.712   3.748  0.1966 -2.7221 -0.8307
19994SOL    HW267223  11.114   6.627   3.778 -2.5814  1.3171  0.3034
19995SOL     OW67224   2.011  10.584   4.595  0.1789 -0.2083 -0.0735
19995SOL    HW167225   2.047  10.498   4.614  0.9509 -0.1686 -1.2818
19995SOL    HW267226   2.078  10.646   4.623 -0.7477  0.0766  1.6565
19996SOL     OW67227  11.064   8.602   9.059 -0.9677 -0.1257  0.0318
19996SOL    HW167228  11.125   8.558   9.000  0.5616  0.1335  1.3416
19996SOL    HW267229  11.117   8.624   9.136 -2.2142  2.0250  0.3570
19997SOL     OW67230   8.522  11.095   5.922 -0.1557 -0.1868  0.3827
19997SOL    HW167231   8.440  11.134   5.952 -0.6337 -1.4460  0.7816
19997SOL    HW267232   8.590  11.145   5.966 -0.6424  1.5761 -0.7771
19998SOL     OW67233   0.012   3.380   5.455  0.0591  0.1986  0.3423
19998SOL    HW167234   0.053   3.317   5.513 -0.1969 -0.2261  0.0717
19998SOL    HW267235  -0.033   3.326   5.389 -1.9971  0.6074  1.3493
19999SOL     OW67236   8.211   5.815  11.408  0.3282 -0.3254 -0.4358
19999SOL    HW167237   8.142   5.780  11.464 -0.6106  1.6509 -0.2424
19999SOL    HW267238   8.284   5.754  11.418 -1.2257 -2.2651 -0.3385
20000SOL     OW67239   5.485   3.310  11.132  0.3246  0.1048 -0.8425
20000SOL    HW167240   5.391   3.329  11.137  0.7372  2.0597  2.7153
20000SOL    HW267241   5.504   3.261  11.212  2.3120 -0.6046 -1.6936
20001SOL     OW67242  11.490   3.737  11.549 -0.3492  0.1488 -0.2414
20001SOL    HW167243  11.417   3.794  11.572 -1.4029 -1.2175 -0.0369
20001SOL    HW267244  11.537   3.724  11.632 -1.2360 -0.7889  0.1392
20002SOL     OW67245   2.378   9.379   4.256  0.1981 -0.6095 -0.5632
20002SOL    HW167246   2.407   9.448   4.196 -0.5470  0.4790  0.2839
20002SOL    HW267247   2.386   9.298   4.206  1.1874  0.0783 -1.5565
20003SOL     OW67248   2.470   8.635   1.996 -0.2809  0.2041 -0.9514
20003SOL    HW167249   2.451   8.543   2.017 -0.3645  0.2714 -0.7240
20003SOL    HW267250   2.536   8.661   2.060 -1.8867  0.9566  0.5103
20004SOL     OW67251   6.645  11.068  12.104  0.0865  0.0584  0.6729
20004SOL    HW167252   6.709  11.050  12.035 -0.3533  1.4692 -0.1317
20004SOL    HW267253   6.675  11.016  12.179  1.3149 -0.4649 -0.1598
20005SOL     OW67254   9.133   6.199   5.184 -0.2590 -0.3141 -0.1801
20005SOL    HW167255   9.175   6.119   5.152  0.4198  0.2190 -0.6589
20005SOL    HW267256   9.207   6.255   5.209 -0.6493  0.9166 -1.6699
20006SOL     OW67257   6.751  11.567   4.677 -0.2512  0.1203 -0.1171
20006SOL    HW167258   6.810  11.583   4.604  1.1353 -0.0098  0.9379
20006SOL    HW267259   6.699  11.647   4.684  0.5924  0.6985 -0.3602
20007SOL     OW67260   0.605   0.513   3.367  0.2463 -0.3725 -0.0854
20007SOL    HW167261   0.567   0.520   3.279  0.6154 -0.4053 -0.2463
20007SOL    HW267262   0.608   0.604   3.398 -1.9955 -0.5305  0.7995
20008SOL     OW67263   9.715   7.842   1.892 -0.4908 -0.2662 -0.1495
20008SOL    HW167264   9.804   7.869   1.912 -0.7060 -0.1422  0.6519
20008SOL    HW267265   9.713   7.837   1.796  1.0171 -2.3867 -0.1601
20009SOL     OW67266  11.031   1.115  11.436  0.1123  0.2255  0.0448
20009SOL    HW167267  10.954   1.071  11.402  1.7584 -1.7414 -1.3358
20009SOL    HW267268  11.049   1.071  11.519 -0.8537  1.4651  0.9508
20010SOL     OW67269   1.280   8.710   2.535 -0.2378  0.7008  0.6016
20010SOL    HW167270   1.298   8.796   2.498 -0.3534  0.9356  1.0838
20010SOL    HW267271   1.234   8.728   2.617 -0.5158  0.1713  0.5672
20011SOL     OW67272   6.256   3.550  11.887 -0.0318 -0.4152 -0.0629
20011SOL    HW167273   6.188   3.505  11.836  1.0300 -1.0888 -0.9387
20011SOL    HW267274   6.226   3.544  11.978 -1.8590  0.5992 -0.5556
20012SOL     OW67275  12.091   8.065   7.810 -0.3864 -0.3147  1.0884
20012SOL    HW167276  12.164   8.098   7.759 -0.9447 -0.6854  0.0098
20012SOL    HW267277  12.131   8.018   7.883  0.4209  0.8050  1.3897
20013SOL     OW67278   5.444   3.004   9.877 -0.1691  0.1267 -0.4717
20013SOL    HW167279   5.474   3.001   9.968  0.7232 -0.0583 -0.7687
20013SOL    HW267280   5.349   2.989   9.883  0.2130 -2.5631  0.2508
20014SOL     OW67281   9.354   4.050   7.808  0.7757 -0.5938  0.3180
20014SOL    HW167282   9.299   4.074   7.882  1.2684 -0.7394  0.7365
20014SOL    HW267283   9.378   4.134   7.768 -3.3766 -0.5160 -2.6563
20015SOL     OW67284  10.072   6.247   3.332  0.0336 -0.0179  0.1368
20015SOL    HW167285   9.993   6.241   3.277 -0.0621  1.0949  0.1370
20015SOL    HW267286  10.089   6.341   3.339  1.4859 -0.2449 -0.0311
20016SOL     OW67287   5.302   5.965   4.141 -0.9202 -0.6385 -0.1336
20016SOL    HW167288   5.329   5.874   4.156 -1.1588 -0.4984  1.2598
20016SOL    HW267289   5.288   6.000   4.228 -0.1375  0.9668 -0.6177
20017SOL     OW67290   6.770  10.880   5.465  0.1599  0.0346  0.8006
20017SOL    HW167291   6.680  10.866   5.436  0.1405 -1.0020  1.3212
20017SOL    HW267292   6.808  10.793   5.469  1.6157  0.5426 -0.6969
20018SOL     OW67293  11.485   2.280   3.254  0.0235 -0.5807 -0.0610
20018SOL    HW167294  11.403   2.289   3.302  1.2643 -0.1688  2.1079
20018SOL    HW267295  11.468   2.322   3.169 -2.0347 -0.7081  0.2320
20019SOL     OW67296  10.174  11.305   9.936  0.3225 -0.5498 -0.0775
20019SOL    HW167297  10.219  11.247   9.874  1.1195 -1.0786  0.9625
20019SOL    HW267298  10.215  11.285  10.020 -1.2620 -0.3931  0.7473
20020SOL     OW67299   4.564   7.515   3.490 -0.3479  0.7698 -0.5264
20020SOL    HW167300   4.542   7.434   3.444 -0.6233  0.4712  0.1230
20020SOL    HW267301   4.607   7.568   3.424  0.0989 -0.0191 -0.8850
20021SOL     OW67302  11.002   3.550   8.203  0.0459 -0.1229 -0.1368
20021SOL    HW167303  11.041   3.462   8.205 -1.1056 -0.6829 -1.1064
20021SOL    HW267304  10.980   3.565   8.111  2.3152  2.1714 -0.3936
20022SOL     OW67305   6.389  10.547   4.103 -0.3327 -0.1666  0.3407
20022SOL    HW167306   6.414  10.472   4.049 -0.7651  0.0699 -0.1935
20022SOL    HW267307   6.436  10.534   4.185 -1.3091 -1.6254  0.6891
20023SOL     OW67308   5.779   9.170  11.496 -0.8546  0.9543 -0.2887
20023SOL    HW167309   5.753   9.244  11.442 -3.0833 -0.5953 -1.4920
20023SOL    HW267310   5.707   9.108  11.488  0.7661 -1.2241  0.9248
20024SOL     OW67311   0.077   7.860   5.759 -0.3756 -0.3382  0.0603
20024SOL    HW167312   0.091   7.796   5.690 -3.1797  0.0344 -0.9587
20024SOL    HW267313   0.123   7.938   5.729  1.7094 -1.2924  0.5617
20025SOL     OW67314   8.739  10.322  12.191  0.4172  0.1852 -0.1663
20025SOL    HW167315   8.648  10.347  12.209  0.1426 -1.5492  1.1678
20025SOL    HW267316   8.780  10.321  12.277  1.5393  0.2607 -0.6864
20026SOL     OW67317   2.081   0.559  12.188  0.4300 -0.8643 -0.3535
20026SOL    HW167318   2.161   0.507  12.198  1.3800  0.6218  0.2029
20026SOL    HW267319   2.076   0.610  12.269 -1.9312 -2.0025  0.2844
20027SOL     OW67320  12.199   6.092   1.229  0.3570 -0.8891  0.5412
20027SOL    HW167321  12.267   6.157   1.245  0.1110 -0.4922  0.0161
20027SOL    HW267322  12.173   6.062   1.316 -0.3000  0.5276  0.8603
20028SOL     OW67323   8.004   5.653   7.457  0.1347 -0.4912 -0.0789
20028SOL    HW167324   8.012   5.583   7.392 -1.7870 -0.9926  0.1411
20028SOL    HW267325   7.956   5.722   7.411 -0.1115 -0.3268  0.4141
20029SOL     OW67326   2.786   9.899   8.175  0.1838  0.3311  0.3363
20029SOL    HW167327   2.838   9.822   8.148 -0.1441  0.5240 -0.9152
20029SOL    HW267328   2.789   9.957   8.099 -3.7513 -0.6247 -0.7526
20030SOL     OW67329   0.324   7.522  12.169  0.3961  0.1434 -0.6962
20030SOL    HW167330   0.275   7.482  12.241  1.1375  1.4316  0.5847
20030SOL    HW267331   0.411   7.538  12.206  0.5691  1.5206 -1.6224
20031SOL     OW67332   7.709   0.009  11.686 -0.1507 -0.1141  0.0250
20031SOL    HW167333   7.663   0.072  11.741 -1.1552  0.4804 -1.4312
20031SOL    HW267334   7.794   0.049  11.669 -0.0983  0.0073  0.5654
20032SOL     OW67335   2.605   6.371  12.336 -0.1383  0.2200  0.4193
20032SOL    HW167336   2.540   6.335  12.275 -1.0879  0.1871  1.4167
20032SOL    HW267337   2.666   6.298  12.351 -0.8115 -0.2902  0.7378
20033SOL     OW67338  12.657   6.471  11.064  0.8635 -0.0454  0.1774
20033SOL    HW167339  12.665   6.461  11.158  1.9017  0.1127  0.1173
20033SOL    HW267340  12.569   6.440  11.044  0.1332  1.1473  1.3546
20034SOL     OW67341   0.685   0.128   5.341  0.0394 -0.4812  0.1824
20034SOL    HW167342   0.750   0.155   5.405  0.3489  1.3914 -0.8551
20034SOL    HW267343   0.605   0.116   5.393  0.7011 -0.8095  1.1660
20035SOL     OW67344   3.874   0.831  12.532 -0.0456 -0.1874 -0.0407
20035SOL    HW167345   3.802   0.891  12.551  0.4372 -0.3300  2.6830
20035SOL    HW267346   3.918   0.820  12.616  1.8809 -1.7755 -1.1840
20036SOL     OW67347   1.526   4.337  10.466 -0.2147  0.3509  0.0288
20036SOL    HW167348   1.531   4.406  10.400 -1.8343  0.7207  0.2498
20036SOL    HW267349   1.603   4.282  10.449  0.3050  1.3634 -1.0848
20037SOL     OW67350  10.385   8.298   6.701  0.1812 -0.1389  0.6531
20037SOL    HW167351  10.293   8.281   6.723  0.4462 -0.2931  1.6748
20037SOL    HW267352  10.429   8.309   6.785  0.9029  1.0551  0.1589
20038SOL     OW67353   2.695   3.527   2.967 -0.3434  0.0341 -0.1410
20038SOL    HW167354   2.677   3.500   2.877 -2.1441 -1.4579  0.6037
20038SOL    HW267355   2.777   3.484   2.990 -0.6677 -0.8326 -0.5867
20039SOL     OW67356   5.596   3.546   4.168  0.1328  0.0649 -0.1839
20039SOL    HW167357   5.540   3.573   4.241  0.2848 -0.7267  0.2330
20039SOL    HW267358   5.678   3.519   4.209 -0.1327 -1.3503 -0.5455
20040SOL     OW67359   3.928  11.971   7.776 -0.1429 -0.2979 -0.7011
20040SOL    HW167360   3.938  11.951   7.869  0.5464 -1.0934 -0.9312
20040SOL    HW267361   3.912  12.066   7.773 -1.9566 -0.5200  0.3267
20041SOL     OW67362   8.062   5.150  10.158  0.3021 -0.0809  0.1258
20041SOL    HW167363   8.010   5.146  10.238 -0.5954 -1.4571 -0.4957
20041SOL    HW267364   8.145   5.108  10.182 -0.0125 -0.6082  0.2926
20042SOL     OW67365  10.446   5.158   6.162 -0.2840 -0.1079  0.5069
20042SOL    HW167366  10.478   5.244   6.190  0.0130 -1.0403  3.3508
20042SOL    HW267367  10.351   5.163   6.174 -0.4749  0.3439 -1.0177
20043SOL     OW67368  10.259   3.403  10.634  0.3149 -0.3384  0.3310
20043SOL    HW167369  10.327   3.452  10.681  0.5824  0.3584 -0.7487
20043SOL    HW267370  10.271   3.427  10.542 -1.7612  0.3028  0.1558
20044SOL     OW67371  11.720   6.506   7.125 -0.3886 -0.3220  0.3280
20044SOL    HW167372  11.766   6.508   7.209  1.1367 -0.3758 -0.4726
20044SOL    HW267373  11.761   6.576   7.074 -0.8043 -0.7592 -0.6167
20045SOL     OW67374   3.803  11.128   0.159 -0.3427  0.4115  0.2442
20045SOL    HW167375   3.730  11.170   0.112  0.2731  0.8813 -0.3234
20045SOL    HW267376   3.781  11.136   0.251 -0.4091  1.7179  0.1382
20046SOL     OW67377   3.345   2.503   8.811  0.2582 -0.4136  0.2924
20046SOL    HW167378   3.421   2.512   8.754 -0.3672  0.4920 -0.4290
20046SOL    HW267379   3.311   2.415   8.792 -0.2393  0.0633 -1.1321
20047SOL     OW67380  10.425   2.806   3.869  0.0719 -0.3407 -0.3169
20047SOL    HW167381  10.461   2.767   3.789  2.1971 -1.0093  0.8860
20047SOL    HW267382  10.431   2.901   3.854  0.9664 -0.4551 -0.7543
20048SOL     OW67383   6.479   2.562   3.109 -0.1392  0.0926 -0.0060
20048SOL    HW167384   6.474   2.656   3.124 -0.5014  0.1753 -0.6332
20048SOL    HW267385   6.397   2.539   3.067  0.6639 -0.1967 -1.5041
20049SOL     OW67386   2.677   3.377  11.530 -0.0451 -0.1802 -0.0205
20049SOL    HW167387   2.714   3.404  11.446 -1.0426  0.0682 -0.3910
20049SOL    HW267388   2.587   3.410  11.529 -1.4655 -3.5780 -0.6240
20050SOL     OW67389  11.762   2.887   0.602 -0.1636  0.4715  0.2740
20050SOL    HW167390  11.742   2.915   0.691 -1.2275 -1.8751  0.8508
20050SOL    HW267391  11.721   2.801   0.594  2.1005 -0.5448 -1.6074
20051SOL     OW67392   6.144   8.132   7.337 -0.2249 -0.2877  0.2878
20051SOL    HW167393   6.172   8.129   7.246  0.4410  0.3739  0.4613
20051SOL    HW267394   6.183   8.054   7.377 -0.0319 -0.2731  0.1305
20052SOL     OW67395   3.714   4.709  11.535 -0.3621 -0.1229 -0.7726
20052SOL    HW167396   3.656   4.656  11.591  0.1021 -0.4684 -0.6042
20052SOL    HW267397   3.762   4.765  11.597  1.9459 -2.2117 -0.4791
20053SOL     OW67398   5.845  10.390   5.135 -0.0560  0.7393  0.0481
20053SOL    HW167399   5.921  10.419   5.085 -0.0161 -0.6485 -0.7518
20053SOL    HW267400   5.790  10.346   5.071 -0.5607 -0.0572  1.0048
20054SOL     OW67401   6.673   2.652   2.435 -0.6039 -0.5693  0.4191
20054SOL    HW167402   6.712   2.596   2.368  0.6386 -0.0356  0.6724
20054SOL    HW267403   6.579   2.630   2.433 -0.2552 -2.2089  0.0955
20055SOL     OW67404   7.836  11.251   9.280  0.1986 -0.0584 -0.3330
20055SOL    HW167405   7.862  11.169   9.320  0.2651  0.4379  0.6798
20055SOL    HW267406   7.904  11.314   9.307  0.0859  0.3534 -0.9871
20056SOL     OW67407   9.568   6.781  11.521 -0.1436 -0.0085 -0.0668
20056SOL    HW167408   9.555   6.848  11.454  1.3908 -1.2637 -1.7192
20056SOL    HW267409   9.531   6.702  11.483 -0.3049 -0.5123  1.0932
20057SOL     OW67410  12.530   4.813   6.845 -0.2143 -0.6131 -0.1308
20057SOL    HW167411  12.596   4.759   6.802 -1.0154 -2.8209  1.2640
20057SOL    HW267412  12.580   4.889   6.878  1.4284 -1.6279 -0.1376
20058SOL     OW67413   7.256  10.095   2.682  0.2808 -0.1914  0.7520
20058SOL    HW167414   7.252  10.170   2.741 -0.3843  0.6585 -0.3184
20058SOL    HW267415   7.340  10.105   2.637  0.9828 -1.0784  1.8317
20059SOL     OW67416   8.206   5.043   5.255  0.4210 -0.4943 -0.0044
20059SOL    HW167417   8.142   5.027   5.324  0.9930 -0.7435  0.4704
20059SOL    HW267418   8.287   5.065   5.301  0.4990  0.5476 -0.6038
20060SOL     OW67419   5.294   6.177   8.151 -0.0480 -0.1899 -0.1169
20060SOL    HW167420   5.204   6.189   8.122  0.1872  0.6440 -0.5412
20060SOL    HW267421   5.305   6.082   8.156 -0.2039 -0.3872 -2.4817
20061SOL     OW67422   6.184  10.215   6.288  0.4677  0.5742  0.2580
20061SOL    HW167423   6.247  10.234   6.219  0.8016  0.8538  0.6319
20061SOL    HW267424   6.101  10.251   6.256  0.9763  2.2479  0.7160
20062SOL     OW67425   5.423   1.606  12.406 -0.0317 -0.0210 -0.0723
20062SOL    HW167426   5.389   1.555  12.480  1.9533  0.5589  1.3004
20062SOL    HW267427   5.449   1.540  12.342 -1.5053 -0.5406 -0.1775
20063SOL     OW67428   8.520   7.860   6.208 -0.0640 -0.1346  0.7110
20063SOL    HW167429   8.438   7.901   6.181  0.9118  1.9673  0.7608
20063SOL    HW267430   8.506   7.766   6.193 -2.2794  0.2085  0.2772
20064SOL     OW67431   1.528  12.641   9.144 -0.1235 -0.4191  0.1474
20064SOL    HW167432   1.568  12.619   9.228  1.8326  1.0252 -0.3251
20064SOL    HW267433   1.545  12.565   9.089  1.7140 -0.0277  0.0978
20065SOL     OW67434   5.787   6.328  12.321  0.0684  0.4877 -0.0981
20065SOL    HW167435   5.816   6.337  12.230 -0.5161  1.3609 -0.2121
20065SOL    HW267436   5.700   6.288  12.313 -0.3015  1.2439  0.0197
20066SOL     OW67437   3.990   3.617   5.019  0.0685 -0.4594  0.4060
20066SOL    HW167438   3.933   3.541   5.014 -0.7740  0.2000 -0.2887
20066SOL    HW267439   3.965   3.672   4.945  0.9630  0.2940  0.6341
20067SOL     OW67440   3.108   8.935  12.353 -0.3223  0.1269  0.5639
20067SOL    HW167441   3.120   9.028  12.374 -0.3626  0.8861 -2.3601
20067SOL    HW267442   3.192   8.908  12.316 -0.5434 -0.8161  0.7422
20068SOL     OW67443   2.475  11.264  10.851  0.1584  0.6284  0.1039
20068SOL    HW167444   2.449  11.208  10.778  3.1389  0.5928 -1.0806
20068SOL    HW267445   2.551  11.313  10.818  1.1696  1.1743  2.9221
20069SOL     OW67446   4.139  11.727  12.112 -0.3359 -0.3928 -0.2880
20069SOL    HW167447   4.216  11.711  12.166 -1.8824 -0.1204  2.1677
20069SOL    HW267448   4.108  11.814  12.139 -1.0290 -0.1113 -1.8594
20070SOL     OW67449   2.516  12.375   9.308  0.8677  0.1673  0.0441
20070SOL    HW167450   2.472  12.292   9.325 -0.2969  0.5791 -0.8306
20070SOL    HW267451   2.483  12.434   9.376  0.1727  0.4313 -0.5122
20071SOL     OW67452  11.354   5.655   0.519 -0.2860 -0.0559 -0.3007
20071SOL    HW167453  11.359   5.749   0.501  1.3121  0.0753  0.6298
20071SOL    HW267454  11.290   5.648   0.590 -0.1052  0.3904 -0.0852
20072SOL     OW67455   9.557  11.553  10.214 -0.0498 -0.0024 -0.1515
20072SOL    HW167456   9.648  11.581  10.211 -0.1596  0.2857 -1.4296
20072SOL    HW267457   9.559  11.463  10.181 -0.0686 -0.4767  1.1075
20073SOL     OW67458   4.042   0.007   2.196 -0.3928  0.1276  0.6953
20073SOL    HW167459   4.027  -0.036   2.280  0.5673  0.3974  1.0133
20073SOL    HW267460   4.041  -0.064   2.132 -0.7500 -0.1248  0.9759
20074SOL     OW67461   2.431   9.118   9.246 -0.6178  0.2248 -0.1646
20074SOL    HW167462   2.474   9.044   9.288  0.2580  1.0231  0.4048
20074SOL    HW267463   2.363   9.145   9.308 -0.0268  0.7368  0.2802
20075SOL     OW67464   3.317   0.196   6.744  0.4111 -0.5955  0.5396
20075SOL    HW167465   3.399   0.154   6.717  0.2725  1.4201 -3.9477
20075SOL    HW267466   3.249   0.133   6.721  0.4474  0.2030 -1.9937
20076SOL     OW67467   1.946  10.279   0.992  0.1252 -0.0280 -0.4123
20076SOL    HW167468   2.015  10.219   1.020  0.1051  0.5129  0.8796
20076SOL    HW267469   1.897  10.298   1.072 -1.3304 -0.1552 -1.2548
20077SOL     OW67470   8.043   5.052   1.561  0.2494  0.0685 -0.2385
20077SOL    HW167471   8.130   5.047   1.520  0.1252  0.8441 -0.6263
20077SOL    HW267472   8.028   5.146   1.573 -0.5636 -0.0531 -0.2301
20078SOL     OW67473   3.251   9.041   5.725  0.2541 -0.0815  0.4525
20078SOL    HW167474   3.315   9.073   5.787 -0.4276  1.5111  0.3972
20078SOL    HW267475   3.177   9.102   5.733 -0.5253 -0.8183 -0.7184
20079SOL     OW67476   4.530  12.073   5.322 -0.0151  0.1357  0.5344
20079SOL    HW167477   4.500  12.155   5.283 -0.7027 -0.5069 -0.3581
20079SOL    HW267478   4.469  12.056   5.393 -2.4127 -1.5335 -1.7208
20080SOL     OW67479   8.387  11.446  10.215 -0.4405 -0.1493  0.5753
20080SOL    HW167480   8.430  11.529  10.234 -2.2647  0.9300  0.2794
20080SOL    HW267481   8.327  11.433  10.289 -1.1476 -0.4954 -0.0460
20081SOL     OW67482  10.370   0.183  11.308  0.3872 -0.5720 -0.8655
20081SOL    HW167483  10.355   0.254  11.245 -2.0806  1.1357  1.3942
20081SOL    HW267484  10.283   0.145  11.322  0.9614 -1.3229  0.9490
20082SOL     OW67485   7.140   8.384   9.004 -0.5239  0.7181  0.2706
20082SOL    HW167486   7.187   8.349   9.080  2.5517 -1.0316 -2.2018
20082SOL    HW267487   7.171   8.474   8.995  0.4401  0.3777  0.1178
20083SOL     OW67488   7.140   3.821   8.393 -0.3346 -0.1589 -0.3951
20083SOL    HW167489   7.060   3.855   8.352  1.2754 -0.1169 -3.8403
20083SOL    HW267490   7.124   3.727   8.402 -0.8417 -0.1353 -0.9411
20084SOL     OW67491   9.576   2.802   2.999  0.3759  0.5376  0.6238
20084SOL    HW167492   9.604   2.870   2.939  0.4067 -0.8705 -1.0276
20084SOL    HW267493   9.482   2.791   2.982  0.1672  0.7709  1.5313
20085SOL     OW67494   2.986   1.291   7.973 -0.9265  0.2821  0.1106
20085SOL    HW167495   2.897   1.321   7.990 -1.5754 -1.1793 -0.6413
20085SOL    HW267496   3.000   1.221   8.036 -0.8282 -0.4471 -0.7120
20086SOL     OW67497   6.103   4.900   0.285 -0.0495 -0.0461  0.5268
20086SOL    HW167498   6.098   4.809   0.315  1.6280 -0.4926 -0.4481
20086SOL    HW267499   6.025   4.912   0.231  0.8304 -1.6283 -1.1674
20087SOL     OW67500  11.639   0.820  12.008  0.4603 -0.2273 -0.2156
20087SOL    HW167501  11.626   0.882  11.936  1.6711  1.5113  0.9749
20087SOL    HW267502  11.711   0.857  12.059 -1.9087  0.0653  3.3392
20088SOL     OW67503   3.983  11.447   2.224 -0.1578 -0.2500 -0.1109
20088SOL    HW167504   3.998  11.537   2.196 -0.1938  0.7002  2.6226
20088SOL    HW267505   3.910  11.453   2.286  2.1629 -1.4949  2.9917
20089SOL     OW67506   7.599  10.677  10.253  0.0391  0.1779 -0.4282
20089SOL    HW167507   7.661  10.743  10.222  1.6970 -1.0157  0.2440
20089SOL    HW267508   7.513  10.719  10.242  0.9744  2.1410 -0.7375
20090SOL     OW67509  10.573   8.895   3.900 -0.1699  0.0465 -0.9106
20090SOL    HW167510  10.544   8.811   3.936  0.1572 -0.3848 -1.6398
20090SOL    HW267511  10.627   8.872   3.824  0.2277  0.9029 -0.9052
20091SOL     OW67512   1.933   0.615   5.612 -0.3451  0.0141 -0.2470
20091SOL    HW167513   2.013   0.565   5.592 -0.4996 -0.0650 -0.6761
20091SOL    HW267514   1.965   0.701   5.639 -0.1511  0.7164 -2.4979
20092SOL     OW67515   2.049   5.032   4.771 -0.0571 -0.4505  0.0590
20092SOL    HW167516   1.998   5.007   4.693  1.1594 -0.6589 -0.7059
20092SOL    HW267517   1.992   5.091   4.819 -0.6472  0.1367 -1.2922
20093SOL     OW67518  12.234  12.199   9.833 -0.6793 -0.1864 -0.7622
20093SOL    HW167519  12.182  12.120   9.850 -0.9076  0.2999  1.1146
20093SOL    HW267520  12.313  12.168   9.789 -0.8723 -1.4351 -0.2578
20094SOL     OW67521  10.844   3.779   7.018  0.0350  0.0589  0.4367
20094SOL    HW167522  10.891   3.862   7.008 -0.6578  0.5041  0.7891
20094SOL    HW267523  10.827   3.773   7.112 -2.3825  0.9280  0.1342
20095SOL     OW67524   0.305  10.010  12.387 -0.2049  0.1291  0.5822
20095SOL    HW167525   0.288  10.014  12.292 -1.6645 -2.2400  0.6523
20095SOL    HW267526   0.364   9.936  12.398  0.2311  0.6027  1.5123
20096SOL     OW67527   5.321  11.040   5.133  0.1175  0.3649 -0.0580
20096SOL    HW167528   5.389  11.002   5.077 -1.1271 -1.8575 -0.1900
20096SOL    HW267529   5.255  10.972   5.139 -0.9018  1.4551  2.2101
20097SOL     OW67530   5.163   5.758  11.416  0.0742 -0.1101  0.2419
20097SOL    HW167531   5.169   5.689  11.482  1.0805  0.1083  0.3904
20097SOL    HW267532   5.253   5.771  11.386 -0.4479 -0.8092 -1.8128
20098SOL     OW67533   1.770  11.579   7.816 -0.2116 -0.6405 -0.0537
20098SOL    HW167534   1.797  11.566   7.907  0.9827  2.7933  0.2218
20098SOL    HW267535   1.702  11.647   7.820 -1.0237 -1.2878 -1.6781
20099SOL     OW67536   1.853   3.447   6.390 -0.2131  0.5703 -0.3524
20099SOL    HW167537   1.770   3.413   6.356 -0.0558 -1.5545  1.1573
20099SOL    HW267538   1.919   3.413   6.331 -0.1523 -0.9750  0.5460
20100SOL     OW67539   1.795   2.846   8.077 -0.4325  0.0205  0.0063
20100SOL    HW167540   1.736   2.772   8.059 -0.6360  0.5263 -1.5342
20100SOL    HW267541   1.875   2.825   8.028 -0.0166  0.2191  0.5965
20101SOL     OW67542   5.874   2.031   0.064  0.1602  0.5844 -0.1493
20101SOL    HW167543   5.839   1.943   0.048  0.0072  0.5802  0.2009
20101SOL    HW267544   5.966   2.016   0.088  0.2408  0.5499 -0.4823
20102SOL     OW67545   8.167   0.052   9.726 -0.1262 -0.3179  0.0167
20102SOL    HW167546   8.216   0.072   9.806  0.5631  2.2258 -0.9323
20102SOL    HW267547   8.221   0.088   9.656 -2.3155  0.6709 -1.2737
20103SOL     OW67548   0.976   7.608  10.755  0.2297  0.0031 -0.2654
20103SOL    HW167549   0.921   7.544  10.800 -1.4200  0.8472 -0.9597
20103SOL    HW267550   0.978   7.578  10.664  0.3031  0.3716 -0.3866
20104SOL     OW67551  10.685   9.934   0.553  0.1557  0.5675  0.0273
20104SOL    HW167552  10.680  10.021   0.592  2.5581  0.2921  1.1366
20104SOL    HW267553  10.675   9.874   0.627 -1.2392 -0.1353 -0.6921
20105SOL     OW67554   9.297   7.200   5.984  0.3359 -0.3459 -0.3947
20105SOL    HW167555   9.366   7.147   6.023  2.4557  1.9833 -0.7944
20105SOL    HW267556   9.341   7.278   5.951 -2.4402  1.1081 -0.9889
20106SOL     OW67557   9.608   2.955   4.036 -0.2572  0.0343  0.4433
20106SOL    HW167558   9.562   2.953   4.120 -0.0024 -4.8226  0.7072
20106SOL    HW267559   9.546   2.915   3.974  0.6267  0.9551 -1.0923
20107SOL     OW67560   1.234   3.295   5.829 -0.2990  0.2955  0.0631
20107SOL    HW167561   1.294   3.225   5.803 -0.6487 -0.7218  1.8665
20107SOL    HW267562   1.170   3.298   5.758 -0.1010 -1.0213 -0.2000
20108SOL     OW67563   7.179  12.350   3.448 -0.4924  0.0275 -0.5743
20108SOL    HW167564   7.217  12.411   3.510  0.5672 -2.4883  1.4456
20108SOL    HW267565   7.253  12.298   3.416 -1.4456 -0.8696 -1.4222
20109SOL     OW67566  10.199   0.962  12.436 -0.0373 -0.1583  0.4483
20109SOL    HW167567  10.283   0.984  12.476  0.0453  2.6944 -1.0923
20109SOL    HW267568  10.134   1.002  12.494 -0.1709  0.0417  0.1607
20110SOL     OW67569   9.240   9.425   3.562 -0.1512 -0.1281 -0.1613
20110SOL    HW167570   9.330   9.400   3.584 -0.0091  0.3327 -0.1997
20110SOL    HW267571   9.250   9.493   3.496 -0.4972  0.6019  0.5248
20111SOL     OW67572   3.569   8.611   2.899  0.1466 -0.0573 -0.0406
20111SOL    HW167573   3.537   8.672   2.965  0.5224  0.4638 -0.3300
20111SOL    HW267574   3.490   8.572   2.862 -0.0470 -1.7756  1.9883
20112SOL     OW67575   3.061   9.192   0.115 -0.2152 -0.1126  0.3205
20112SOL    HW167576   3.107   9.207   0.032 -1.8448  0.6963 -0.4844
20112SOL    HW267577   3.071   9.099   0.132  0.9679 -0.1097 -0.2669
20113SOL     OW67578   6.994   1.542   0.126  0.4391 -0.4706 -0.3053
20113SOL    HW167579   7.005   1.577   0.038 -0.3447 -0.6845 -0.4973
20113SOL    HW267580   7.073   1.568   0.173  1.5920 -1.6654 -1.4990
20114SOL     OW67581   9.897   5.676   0.528  0.1342 -0.0538 -0.0004
20114SOL    HW167582   9.977   5.722   0.501 -0.3934 -0.0693 -1.7046
20114SOL    HW267583   9.918   5.583   0.518 -0.0334 -0.0614 -0.2998
20115SOL     OW67584   2.373   3.032   0.660 -0.0144 -0.0380 -0.1377
20115SOL    HW167585   2.386   3.126   0.672  0.6479 -0.1570  0.0724
20115SOL    HW267586   2.282   3.024   0.630  0.0655  0.6997 -0.5771
20116SOL     OW67587   1.227  12.601   5.960  0.3855 -0.1418 -0.3798
20116SOL    HW167588   1.213  12.530   6.023  0.2728 -1.0271 -1.3766
20116SOL    HW267589   1.210  12.561   5.875  1.0350  0.9025 -1.0156
20117SOL     OW67590   5.300   7.930   9.750 -0.4196 -0.4340  0.5870
20117SOL    HW167591   5.259   8.010   9.784 -0.1777 -0.7687  1.6775
20117SOL    HW267592   5.379   7.918   9.803  0.4586 -0.4803 -0.6855
20118SOL     OW67593   5.813  10.447  11.110 -0.3981 -0.4616 -0.1463
20118SOL    HW167594   5.831  10.467  11.202  1.8494 -0.9148 -0.4154
20118SOL    HW267595   5.722  10.418  11.108 -0.7057  0.2359  1.8033
20119SOL     OW67596   3.443   1.757   0.891  0.2118  0.2109 -0.0711
20119SOL    HW167597   3.417   1.665   0.897  1.9995 -0.2537  1.6174
20119SOL    HW267598   3.470   1.780   0.980 -1.7284  2.8889 -0.0818
20120SOL     OW67599   5.781   7.488   9.660  0.2321 -0.3385 -0.3812
20120SOL    HW167600   5.840   7.489   9.736  0.0543 -2.0053 -0.1886
20120SOL    HW267601   5.693   7.489   9.698  0.0782  1.4280 -0.6593
20121SOL     OW67602   0.238   4.211   4.383  0.7191 -0.1346 -0.1200
20121SOL    HW167603   0.207   4.235   4.295  0.9534 -0.3086 -0.2524
20121SOL    HW267604   0.238   4.115   4.383  0.1041 -0.1342  0.2914
20122SOL     OW67605   2.142  11.548   5.738  0.0529 -0.4354 -0.0353
20122SOL    HW167606   2.054  11.570   5.709 -0.1334 -0.1238  0.7549
20122SOL    HW267607   2.177  11.492   5.668 -1.1701 -1.4726  0.1589
20123SOL     OW67608  10.171   1.236   0.537 -0.1787 -0.1911  0.7640
20123SOL    HW167609  10.170   1.269   0.447  0.3105  0.4439  0.9888
20123SOL    HW267610  10.133   1.148   0.530  0.2852 -0.3332 -0.1399
20124SOL     OW67611   0.992  12.482   7.760 -0.0347  0.9367  0.5377
20124SOL    HW167612   0.962  12.512   7.846 -3.1624 -1.3275  0.4253
20124SOL    HW267613   0.936  12.528   7.698  0.2746  0.4754 -0.0940
20125SOL     OW67614   2.125   1.810   1.120  0.1270  0.2613 -0.2994
20125SOL    HW167615   2.148   1.886   1.173 -0.9392  1.4559 -1.4783
20125SOL    HW267616   2.092   1.847   1.038  0.7669 -1.5103 -1.4016
20126SOL     OW67617   6.460   0.126  10.502  0.4563 -0.0999 -0.0735
20126SOL    HW167618   6.396   0.056  10.487 -0.3231  0.5398  0.1811
20126SOL    HW267619   6.415   0.186  10.561  0.4203  1.5351 -1.6778
20127SOL     OW67620   2.663   3.623   2.693  0.0673  0.6592 -0.1578
20127SOL    HW167621   2.665   3.586   2.605  1.9531 -0.6456  0.3619
20127SOL    HW267622   2.572   3.617   2.720 -0.1050 -1.4493 -1.0215
20128SOL     OW67623   6.106   9.318   9.364  0.3814 -0.3322  0.1998
20128SOL    HW167624   6.190   9.275   9.350  0.7327  0.5876 -0.6161
20128SOL    HW267625   6.110   9.397   9.311 -0.9167 -0.1545  0.3301
20129SOL     OW67626   1.909  10.330   5.214  0.2904  0.0883 -0.6812
20129SOL    HW167627   1.957  10.410   5.194  3.0301 -2.1043 -4.1686
20129SOL    HW267628   1.845  10.323   5.143  1.1205 -1.4336 -1.3362
20130SOL     OW67629  11.486   7.786   9.697 -0.6944 -0.6398  0.2718
20130SOL    HW167630  11.450   7.824   9.617  1.0178  0.3830 -0.0725
20130SOL    HW267631  11.413   7.738   9.736 -1.8207 -0.3843 -1.4133
20131SOL     OW67632   9.760   6.461   2.444 -0.9111  0.1428  0.4354
20131SOL    HW167633   9.764   6.510   2.526  1.8029 -0.2639  0.6537
20131SOL    HW267634   9.788   6.372   2.468 -1.1916 -0.2793 -0.7437
20132SOL     OW67635   5.358  11.646   5.860  0.1874  0.2074 -0.8336
20132SOL    HW167636   5.264  11.651   5.879  0.5471  0.5998  1.0143
20132SOL    HW267637   5.363  11.587   5.784 -1.5524  0.3833 -1.1410
20133SOL     OW67638  10.587   8.541   4.265  0.4658 -0.0784 -0.4658
20133SOL    HW167639  10.539   8.606   4.317 -2.1602 -1.4694 -0.9366
20133SOL    HW267640  10.644   8.497   4.328 -1.7353 -0.8958  1.0809
20134SOL     OW67641   1.222   0.957   4.681  0.2965 -0.0085  0.1561
20134SOL    HW167642   1.233   0.957   4.586  0.0446 -0.3618  0.1247
20134SOL    HW267643   1.288   0.895   4.712  1.6395  1.4807  0.3730
20135SOL     OW67644   6.664   5.782   2.339 -0.1874 -0.2849 -0.1147
20135SOL    HW167645   6.616   5.863   2.323 -0.5327 -1.0267 -3.6463
20135SOL    HW267646   6.751   5.797   2.301 -1.2191 -2.3950 -3.8235
20136SOL     OW67647   7.269  12.123   1.902 -0.3811 -0.0263  0.2706
20136SOL    HW167648   7.229  12.191   1.956 -0.0434 -0.5320  1.1878
20136SOL    HW267649   7.308  12.062   1.965 -0.8441 -1.1777 -0.5171
20137SOL     OW67650   8.254   2.912   1.272 -0.0004 -0.4251 -0.2134
20137SOL    HW167651   8.302   2.880   1.348 -0.9566 -0.3441  0.4369
20137SOL    HW267652   8.316   2.903   1.199  0.6334 -1.2973  0.4154
20138SOL     OW67653   3.242  12.548   6.264  0.2164  0.0309 -0.0540
20138SOL    HW167654   3.177  12.478   6.276  2.7603 -2.3682  0.8798
20138SOL    HW267655   3.190  12.627   6.253 -2.8450 -1.6700  0.9176
20139SOL     OW67656   2.276   3.415   8.333 -0.0508 -0.2062  0.0055
20139SOL    HW167657   2.199   3.407   8.277  0.1781 -1.2171 -0.1918
20139SOL    HW267658   2.339   3.465   8.280 -0.4713  0.4053  0.0738
20140SOL     OW67659   9.222   3.440   1.233  0.4912 -0.4937  0.6836
20140SOL    HW167660   9.177   3.510   1.281  0.2442  0.0845 -0.3511
20140SOL    HW267661   9.306   3.430   1.278  1.0545  1.3430  0.1448
20141SOL     OW67662   2.465   0.734   1.756  0.9895  0.0933 -0.0642
20141SOL    HW167663   2.372   0.736   1.781  0.6505 -0.1445 -1.2446
20141SOL    HW267664   2.512   0.734   1.839 -0.0448  1.3504  0.5626
20142SOL     OW67665   9.964   5.196   4.211 -0.1584 -0.2874 -0.3422
20142SOL    HW167666   9.990   5.189   4.120  0.6280 -0.4275 -0.1180
20142SOL    HW267667  10.039   5.163   4.260  0.4835  2.1533  0.4727
20143SOL     OW67668   8.897   5.651  11.673  0.5184  0.4465  0.4647
20143SOL    HW167669   8.838   5.577  11.689  0.0433  0.7981  0.3659
20143SOL    HW267670   8.985   5.615  11.684  0.2977 -0.1950  0.1544
20144SOL     OW67671   5.374   7.502  12.442 -0.1183 -0.5951 -0.2403
20144SOL    HW167672   5.319   7.469  12.371 -0.6967 -1.6395  0.6602
20144SOL    HW267673   5.354   7.595  12.447 -1.9224 -0.9740  0.1557
20145SOL     OW67674   2.491   6.344  11.062 -0.0695  0.0365 -0.6425
20145SOL    HW167675   2.448   6.408  11.118  0.8400 -1.7423  2.4067
20145SOL    HW267676   2.486   6.262  11.112  0.4109 -1.8760 -3.4793
20146SOL     OW67677  11.107   6.262   3.181  0.3131 -0.3618 -0.0004
20146SOL    HW167678  11.015   6.271   3.202  0.0910  1.2437 -1.4995
20146SOL    HW267679  11.111   6.264   3.085  1.6394 -3.4765 -0.1605
20147SOL     OW67680   0.389   6.282   5.498 -0.1103  0.3454  0.3918
20147SOL    HW167681   0.386   6.330   5.416  2.0804  0.8820  0.5772
20147SOL    HW267682   0.299   6.254   5.512 -0.7144  1.0616 -1.6876
20148SOL     OW67683   5.663   7.913  12.129  0.0530  0.0880  0.7217
20148SOL    HW167684   5.581   7.930  12.082  0.4886 -2.1511 -1.0283
20148SOL    HW267685   5.644   7.838  12.184  0.9644 -0.5838  0.1352
20149SOL     OW67686  11.725   9.408   5.403  0.1416 -0.8895 -0.7029
20149SOL    HW167687  11.646   9.403   5.456 -0.4137 -0.0278 -1.4070
20149SOL    HW267688  11.719   9.492   5.359  1.7172 -0.5709 -0.3864
20150SOL     OW67689   9.452   3.742   9.262  0.0687 -0.5206 -0.3733
20150SOL    HW167690   9.437   3.659   9.308  0.3857 -0.8354 -0.8314
20150SOL    HW267691   9.541   3.735   9.229 -0.4266 -0.6528 -1.7642
20151SOL     OW67692   8.270   7.735  12.250 -0.5062  0.0811 -0.0082
20151SOL    HW167693   8.324   7.800  12.295 -0.0180 -0.1390 -0.2769
20151SOL    HW267694   8.182   7.747  12.288 -0.3107  0.5532  0.3035
20152SOL     OW67695   6.935   5.949  12.112 -0.1697 -0.3821  0.3810
20152SOL    HW167696   6.915   5.987  12.026  1.7376 -0.4184 -0.1298
20152SOL    HW267697   6.955   6.024  12.167 -1.8491 -0.3269  0.9592
20153SOL     OW67698   4.913   2.980   7.534  0.3525 -0.3934 -0.1887
20153SOL    HW167699   4.884   2.920   7.602 -0.2466  0.5875  0.4432
20153SOL    HW267700   4.947   3.055   7.582 -0.1419  0.3439 -0.9715
20154SOL     OW67701   8.944   2.133   0.894 -0.1277  0.6242  0.2573
20154SOL    HW167702   9.000   2.210   0.882  0.2129  1.0195  3.4921
20154SOL    HW267703   8.860   2.169   0.923 -0.0009 -0.1740  1.6805
20155SOL     OW67704   3.190  10.187   7.955  0.3064  0.0646 -0.1192
20155SOL    HW167705   3.243  10.255   7.997 -0.6008  0.9247 -0.3373
20155SOL    HW267706   3.114  10.234   7.920 -0.3558 -1.0745 -0.2423
20156SOL     OW67707   3.908   8.318  10.386  0.4389 -0.5092 -0.4476
20156SOL    HW167708   3.953   8.301  10.304  0.8378 -1.4341 -0.0504
20156SOL    HW267709   3.818   8.287  10.371 -0.3706  2.0656 -1.5061
20157SOL     OW67710   5.757   8.902   1.928 -0.1779 -0.0862 -0.2468
20157SOL    HW167711   5.795   8.819   1.900 -0.3929  0.0835 -1.0598
20157SOL    HW267712   5.809   8.969   1.884 -0.4884  0.1899 -0.2005
20158SOL     OW67713   4.671   1.962   5.580  0.0157  0.0243  0.1719
20158SOL    HW167714   4.711   1.947   5.495  0.1348 -0.2764  0.2768
20158SOL    HW267715   4.590   2.009   5.562 -0.3739 -0.7575 -0.1796
20159SOL     OW67716   0.258   2.930   8.207  0.0094 -0.3388 -0.6443
20159SOL    HW167717   0.225   2.939   8.117 -0.8461 -2.2702 -0.5713
20159SOL    HW267718   0.197   2.982   8.260  0.3037  0.5139 -1.1209
20160SOL     OW67719   0.709   3.312   1.643 -0.1916 -0.0426 -0.3075
20160SOL    HW167720   0.691   3.406   1.651  0.3521  0.0726 -0.4127
20160SOL    HW267721   0.749   3.289   1.727 -3.1884 -0.8689  1.0422
20161SOL     OW67722   0.605   2.057   4.282 -0.7732 -0.5782 -0.7300
20161SOL    HW167723   0.584   2.145   4.311 -0.7248 -0.5105 -0.9002
20161SOL    HW267724   0.638   2.013   4.361 -0.9208 -0.4849 -0.6165
20162SOL     OW67725   4.810   2.477   2.782  0.3768 -0.0192 -0.0319
20162SOL    HW167726   4.747   2.499   2.850 -0.1673 -0.1966 -0.4669
20162SOL    HW267727   4.779   2.394   2.746  1.0646 -0.2956 -0.0147
20163SOL     OW67728   2.212   0.965  11.263 -0.0323 -0.2024  0.3389
20163SOL    HW167729   2.162   0.901  11.314 -3.6683 -0.3573 -2.9368
20163SOL    HW267730   2.274   0.912  11.213 -0.3158 -0.7226  0.5268
20164SOL     OW67731   4.700   0.527   3.639 -0.6733  0.2039 -0.5569
20164SOL    HW167732   4.697   0.530   3.735 -0.0291  1.0701 -0.5409
20164SOL    HW267733   4.693   0.435   3.617 -0.6048 -0.0260  0.3463
20165SOL     OW67734   6.939   9.849  10.906 -0.2193  0.4385 -0.4657
20165SOL    HW167735   6.875   9.779  10.891 -0.4796  0.5743 -0.0193
20165SOL    HW267736   7.020   9.817  10.867 -0.4366  0.0496 -0.6006
20166SOL     OW67737   2.537  11.181   7.455 -0.3989 -0.1215  0.0445
20166SOL    HW167738   2.446  11.198   7.478 -0.2269 -0.0276  0.6862
20166SOL    HW267739   2.586  11.199   7.536  0.3991  1.6933 -0.7817
20167SOL     OW67740   4.165   9.613   9.430  0.2766  0.3455 -0.4848
20167SOL    HW167741   4.168   9.552   9.504  0.8347 -0.8165 -1.4317
20167SOL    HW267742   4.083   9.661   9.442  1.0383  1.2445  1.6779
20168SOL     OW67743   4.173   8.926   5.527  0.0064  0.2142 -0.7997
20168SOL    HW167744   4.161   8.898   5.617 -0.4188 -1.0970 -1.2272
20168SOL    HW267745   4.215   8.851   5.484  1.9521  1.5025 -1.2879
20169SOL     OW67746   6.429   7.316   7.166  0.6639  0.6045  0.2184
20169SOL    HW167747   6.365   7.358   7.224 -0.3414 -0.8049  0.1562
20169SOL    HW267748   6.511   7.361   7.186  0.1952  0.6863  2.1995
20170SOL     OW67749   5.094   9.121   3.253  0.6868 -0.3185 -0.9028
20170SOL    HW167750   5.155   9.104   3.182  0.0689  1.2164 -1.8545
20170SOL    HW267751   5.019   9.064   3.235  1.1294 -0.9784 -0.6693
20171SOL     OW67752  12.500   7.086  10.447  0.1356  0.1553 -0.3199
20171SOL    HW167753  12.541   7.059  10.365 -0.4211 -0.3240 -0.4542
20171SOL    HW267754  12.548   7.040  10.515 -1.4024 -2.0516 -0.6054
20172SOL     OW67755   2.535   8.957   4.736  0.0728  0.0133  0.5962
20172SOL    HW167756   2.629   8.935   4.736  0.0382 -0.1506  0.9722
20172SOL    HW267757   2.528   9.030   4.798 -0.0545 -0.0051  0.6026
20173SOL     OW67758   0.858   8.240   1.706 -0.4910 -0.2141 -0.1714
20173SOL    HW167759   0.830   8.150   1.691 -0.0865 -0.2277 -0.8715
20173SOL    HW267760   0.949   8.243   1.677 -0.4043  0.3454  0.1349
20174SOL     OW67761   6.450   6.663   8.343 -0.7025 -0.0745 -0.1964
20174SOL    HW167762   6.524   6.604   8.328 -0.6152  0.1319 -0.5724
20174SOL    HW267763   6.375   6.617   8.305 -0.5899  0.1699 -0.7202
20175SOL     OW67764   6.507   1.957   4.891  0.0348 -0.2008 -0.2011
20175SOL    HW167765   6.535   1.909   4.812  0.8021 -0.2815  0.1114
20175SOL    HW267766   6.480   1.888   4.951 -0.9094 -0.1205 -0.5180
20176SOL     OW67767   9.262  12.630   7.833  0.8578 -0.2856 -0.0238
20176SOL    HW167768   9.305  12.714   7.849  1.3953 -0.6652  0.6256
20176SOL    HW267769   9.185  12.651   7.781  1.1449  0.5723 -0.1148
20177SOL     OW67770   9.715   8.758   3.715  0.1658 -0.1880 -0.5726
20177SOL    HW167771   9.772   8.685   3.735 -1.9210 -2.0962 -1.1925
20177SOL    HW267772   9.774   8.828   3.687  2.1606 -2.1962 -1.6856
20178SOL     OW67773   7.911   0.401   5.933  0.3334 -0.3694  0.3499
20178SOL    HW167774   7.852   0.326   5.937  0.4308 -0.5303 -0.7710
20178SOL    HW267775   7.997   0.366   5.955  0.6047 -0.8844 -1.3548
20179SOL     OW67776  11.225   5.249   2.590 -0.5869 -0.4856 -0.5143
20179SOL    HW167777  11.281   5.283   2.660  0.2824  0.1705 -1.5130
20179SOL    HW267778  11.136   5.272   2.618 -0.2446 -0.0793  0.2851
20180SOL     OW67779   7.704   0.814   8.994  0.0557  0.2201 -0.1936
20180SOL    HW167780   7.744   0.901   8.991  0.3938  0.0552 -0.4988
20180SOL    HW267781   7.638   0.820   9.063  2.9036 -0.4590  2.8502
20181SOL     OW67782   9.455  12.699   0.647  0.4057 -0.3570  0.0373
20181SOL    HW167783   9.390  12.762   0.616 -0.0611 -0.9088 -0.1242
20181SOL    HW267784   9.468  12.721   0.739  0.1036 -0.1423  0.0281
20182SOL     OW67785   0.180  12.327  10.597  1.1934  0.1594  0.0012
20182SOL    HW167786   0.201  12.317  10.690 -2.5469  0.4821  1.0147
20182SOL    HW267787   0.144  12.416  10.591 -0.4312 -0.5587 -1.3339
20183SOL     OW67788   7.859  10.793  11.647 -0.3060  1.0164 -0.2990
20183SOL    HW167789   7.870  10.885  11.669 -1.4322  1.2029 -0.4378
20183SOL    HW267790   7.766  10.785  11.623 -0.4895 -0.3531  0.7145
20184SOL     OW67791  12.676   2.061  12.303  0.2783 -0.9852 -0.0740
20184SOL    HW167792  12.687   1.998  12.375 -1.3445 -1.0815  0.1320
20184SOL    HW267793  12.625   2.014  12.238 -0.1223 -0.1977 -0.3379
20185SOL     OW67794   7.392   3.870   1.499 -0.3437  0.1495 -0.6301
20185SOL    HW167795   7.328   3.866   1.428  0.8022  1.9444 -1.8432
20185SOL    HW267796   7.421   3.961   1.500 -0.0097  0.1012  1.9114
20186SOL     OW67797  11.010   9.597  12.665  0.2343 -0.1371  0.3095
20186SOL    HW167798  10.973   9.511  12.683  0.6523 -0.6585 -1.2217
20186SOL    HW267799  11.077   9.608  12.733  1.6109 -1.9495 -0.6422
20187SOL     OW67800   7.222  12.576  12.027 -0.0875 -0.3702 -0.0354
20187SOL    HW167801   7.197  12.618  12.110  0.4728  1.0752 -0.5729
20187SOL    HW267802   7.176  12.492  12.029 -0.2085 -0.3114  1.6681
20188SOL     OW67803  10.106   8.357   3.565  0.2039  0.0231 -0.5896
20188SOL    HW167804  10.187   8.405   3.581 -0.1142  0.3806 -0.0160
20188SOL    HW267805  10.121   8.312   3.482  0.6643  0.7966 -0.9389
20189SOL     OW67806   5.084   3.685   1.684 -0.3897  0.2397  0.1706
20189SOL    HW167807   5.103   3.593   1.669 -0.9077  0.1407  0.1082
20189SOL    HW267808   5.115   3.702   1.773  0.2317  0.1549 -0.0215
20190SOL     OW67809  12.121   6.251   0.985 -0.4010 -0.3492 -0.6911
20190SOL    HW167810  12.146   6.209   1.067  1.5634  1.9043 -0.0356
20190SOL    HW267811  12.182   6.216   0.920 -0.7698 -0.7609 -0.8243
20191SOL     OW67812   0.761   7.475   1.307 -0.3050 -0.2636  0.1852
20191SOL    HW167813   0.778   7.456   1.399  1.2211 -1.6400 -0.3503
20191SOL    HW267814   0.675   7.435   1.290 -1.4384  1.4828  1.3760
20192SOL     OW67815   3.697   1.379   1.862 -0.3156 -0.5305  0.2494
20192SOL    HW167816   3.659   1.369   1.949  0.4720 -0.0157  0.6583
20192SOL    HW267817   3.669   1.466   1.834  1.6472  0.4503  1.1313
20193SOL     OW67818  11.364   7.715   8.605 -0.0420 -0.2118  0.1301
20193SOL    HW167819  11.355   7.800   8.562  1.2714  0.5300  1.2754
20193SOL    HW267820  11.343   7.732   8.697  1.0957 -0.9405  0.5389
20194SOL     OW67821  11.620  12.223   8.365  0.3067  0.0764 -0.1825
20194SOL    HW167822  11.551  12.279   8.329  0.9325  0.8615 -0.1611
20194SOL    HW267823  11.656  12.178   8.288 -0.7173 -0.9284 -0.1161
20195SOL     OW67824   5.232   4.510   9.121  0.1615  0.2479  0.5068
20195SOL    HW167825   5.321   4.547   9.116 -0.4028  1.7516  0.9841
20195SOL    HW267826   5.198   4.518   9.032 -0.1619  1.4966  0.7182
20196SOL     OW67827  10.491   1.015  10.987  1.0058  0.0357 -0.0263
20196SOL    HW167828  10.542   1.017  10.905 -1.2244 -2.1466 -1.6259
20196SOL    HW267829  10.540   0.956  11.044  1.7162  0.2028 -0.4468
20197SOL     OW67830   8.618   0.360   5.317  0.0958 -0.2829  0.5890
20197SOL    HW167831   8.647   0.273   5.287  0.6814  0.6425 -1.7759
20197SOL    HW267832   8.538   0.377   5.268  1.5582  1.6657 -1.3248
20198SOL     OW67833  12.365  11.947   2.613  0.6697  0.1399  0.1212
20198SOL    HW167834  12.354  12.035   2.577  2.6579  0.4273  0.1208
20198SOL    HW267835  12.390  11.961   2.704 -0.5180 -0.4959  0.5715
20199SOL     OW67836   5.989   1.499   7.404 -0.6031 -0.3449 -0.3323
20199SOL    HW167837   5.913   1.524   7.457  0.0465  0.6788  0.1442
20199SOL    HW267838   5.969   1.409   7.376 -1.2670 -0.6921  1.1100
20200SOL     OW67839   5.845   6.322  12.048 -0.1892  0.2232 -0.3639
20200SOL    HW167840   5.929   6.315  12.003  0.0792  1.4409 -0.0897
20200SOL    HW267841   5.793   6.249  12.013 -0.2878  1.5297 -3.2760
20201SOL     OW67842   2.200   4.174  11.551  0.7386  0.1154 -0.0805
20201SOL    HW167843   2.196   4.261  11.513 -0.0776  1.2183  2.3365
20201SOL    HW267844   2.242   4.186  11.636 -2.0482 -1.2112  1.6539
20202SOL     OW67845   3.228  12.670   4.434 -0.1924  0.2218 -0.0339
20202SOL    HW167846   3.293  12.640   4.371 -1.0792 -0.6891 -0.5550
20202SOL    HW267847   3.172  12.730   4.385  0.4655  1.3215  0.5191
20203SOL     OW67848  11.510   5.944   5.150 -0.0591  0.2489 -0.3851
20203SOL    HW167849  11.604   5.935   5.133 -0.0202  1.1517 -0.7082
20203SOL    HW267850  11.505   5.998   5.229 -0.3061  0.6474 -0.6692
20204SOL     OW67851   8.268   9.064  10.353  0.1551  0.6158 -0.4528
20204SOL    HW167852   8.286   9.157  10.340 -0.7952  0.9131  0.2255
20204SOL    HW267853   8.300   9.046  10.442  0.9852  0.1106 -0.8427
20205SOL     OW67854  11.178  11.728   0.455 -0.1276  0.1418 -0.3610
20205SOL    HW167855  11.179  11.753   0.362  1.6247 -1.4355 -0.8308
20205SOL    HW267856  11.198  11.634   0.454 -1.3014 -0.1872  1.5738
20206SOL     OW67857   9.248   0.825   7.277  0.2837  0.0312 -0.0616
20206SOL    HW167858   9.256   0.921   7.282  2.9124 -0.1225 -0.0922
20206SOL    HW267859   9.297   0.793   7.353 -1.9937 -1.3353  0.9620
20207SOL     OW67860   2.593   8.195   7.336 -0.3378 -0.1426 -0.0634
20207SOL    HW167861   2.674   8.246   7.337 -0.4058 -0.0355  0.4153
20207SOL    HW267862   2.555   8.209   7.423 -0.1002 -1.4124  0.2670
20208SOL     OW67863   2.429   2.469   6.414  0.1395  0.4134 -0.6869
20208SOL    HW167864   2.420   2.496   6.323  0.4937 -0.5177 -1.0124
20208SOL    HW267865   2.350   2.420   6.433  1.4221 -2.1240 -1.5106
20209SOL     OW67866   4.867   6.177  11.403  0.1800 -0.2428  0.5268
20209SOL    HW167867   4.788   6.198  11.353 -0.0321 -0.8664  0.5862
20209SOL    HW267868   4.897   6.261  11.437 -1.3384 -0.1482  1.7821
20210SOL     OW67869  10.438   6.312   6.381 -0.4152 -0.4954  0.1941
20210SOL    HW167870  10.430   6.407   6.386  1.6499 -0.2103 -0.9584
20210SOL    HW267871  10.364   6.284   6.328  0.1644  0.7510 -1.3414
20211SOL     OW67872   6.413   0.399   0.650  0.6423  0.1545  0.1815
20211SOL    HW167873   6.326   0.435   0.632 -0.1236 -1.0861  1.2538
20211SOL    HW267874   6.449   0.455   0.719  0.0978 -0.1551  0.7298
20212SOL     OW67875   9.330  11.050   5.060 -0.1643 -0.3915  0.1005
20212SOL    HW167876   9.405  11.076   5.007  2.6458 -2.4690  2.6625
20212SOL    HW267877   9.307  10.963   5.028 -1.4261  0.1744 -0.5697
20213SOL     OW67878  11.673   4.266  12.384  0.2287 -0.4970 -0.2789
20213SOL    HW167879  11.708   4.233  12.466 -0.8619  0.7429  0.7213
20213SOL    HW267880  11.714   4.212  12.317  2.8146 -0.1279  0.9137
20214SOL     OW67881  11.173   0.317   6.778  0.0937  0.4856 -0.6128
20214SOL    HW167882  11.240   0.368   6.824 -0.3258  0.6085 -0.1155
20214SOL    HW267883  11.193   0.329   6.685 -0.0213  1.5959 -0.5097
20215SOL     OW67884   8.831   3.890   3.217 -0.8964 -0.8626 -0.2178
20215SOL    HW167885   8.872   3.874   3.131 -0.5983  1.5688 -0.6020
20215SOL    HW267886   8.738   3.903   3.197 -0.6162  1.1621 -0.4596
20216SOL     OW67887   3.984   8.107   5.945  0.1243 -0.0797 -0.3259
20216SOL    HW167888   4.019   8.022   5.973 -0.1321 -0.0628  0.0573
20216SOL    HW267889   3.980   8.101   5.849 -0.3972 -0.7069 -0.2750
20217SOL     OW67890   2.248  10.798   5.585 -0.0899 -0.0649 -0.1056
20217SOL    HW167891   2.340  10.800   5.559 -0.4172  0.4010 -1.2710
20217SOL    HW267892   2.202  10.844   5.515 -0.8932  2.2430  1.8249
20218SOL     OW67893   8.089   9.591   3.728  0.8187  0.0452  0.2125
20218SOL    HW167894   8.116   9.681   3.708 -0.9651  0.4804 -0.4342
20218SOL    HW267895   8.113   9.579   3.819 -0.8449  2.0087  1.0070
20219SOL     OW67896   1.663  11.377  11.338 -0.3027  0.2046 -0.2359
20219SOL    HW167897   1.617  11.451  11.377 -1.1286 -0.0275 -0.7437
20219SOL    HW267898   1.615  11.358  11.257 -0.9918 -1.7566  0.5652
20220SOL     OW67899  10.947   0.073  12.458  0.7040  0.0253  0.0614
20220SOL    HW167900  10.944   0.158  12.414 -1.4479  0.3058  0.6476
20220SOL    HW267901  10.865   0.068  12.506  1.9859 -1.2018  2.3171
20221SOL     OW67902   3.343  10.391   9.216  0.0998 -0.0766 -0.4825
20221SOL    HW167903   3.349  10.407   9.310  2.0704  0.4603 -0.6632
20221SOL    HW267904   3.250  10.400   9.196 -0.6854 -2.1264  1.7262
20222SOL     OW67905   7.958   6.307   5.347  0.5635 -0.2292 -0.6861
20222SOL    HW167906   7.905   6.295   5.269 -1.7266 -0.9209  0.8998
20222SOL    HW267907   8.048   6.294   5.316 -0.1793  0.2198 -3.3083
20223SOL     OW67908   8.737   6.775  10.633  0.0249  0.4929  0.2141
20223SOL    HW167909   8.645   6.764  10.610 -0.0095  1.9081 -0.4531
20223SOL    HW267910   8.756   6.866  10.611  1.4565  0.3660  0.8166
20224SOL     OW67911   3.688   1.853   4.700 -0.0065 -0.3602  0.8283
20224SOL    HW167912   3.685   1.944   4.671  2.7020 -0.2956  0.4466
20224SOL    HW267913   3.640   1.852   4.782 -1.7726  0.9611 -0.1275
20225SOL     OW67914   8.191   4.614   8.665  0.6611  0.4302  0.6314
20225SOL    HW167915   8.279   4.604   8.629  1.0001  3.2144  0.4689
20225SOL    HW267916   8.142   4.660   8.597  0.1184  1.9764  1.9865
20226SOL     OW67917   6.738   8.296   5.836 -0.0656  0.3663  0.3391
20226SOL    HW167918   6.778   8.383   5.832  1.5676 -0.3368  0.5570
20226SOL    HW267919   6.702   8.283   5.748  0.9965  0.6843 -0.1677
20227SOL     OW67920   4.658   6.148   1.374  0.2006  0.0109 -0.5057
20227SOL    HW167921   4.663   6.198   1.455  0.0619 -0.5574 -0.1422
20227SOL    HW267922   4.749   6.130   1.351  0.2034 -1.4763  0.5630
20228SOL     OW67923   7.686  12.477  10.193  0.1716 -0.2836 -0.3341
20228SOL    HW167924   7.708  12.482  10.286  1.7001 -2.3092 -0.5149
20228SOL    HW267925   7.591  12.465  10.191 -0.0404  0.9540  0.8754
20229SOL     OW67926   9.155   6.896  11.240  0.8993 -0.7212  0.3286
20229SOL    HW167927   9.198   6.970  11.284  0.2622 -0.5881  0.7367
20229SOL    HW267928   9.212   6.877  11.165 -0.9849  2.9165 -2.3609
20230SOL     OW67929   0.204  10.065  11.467  0.4967 -0.1345 -0.3330
20230SOL    HW167930   0.273  10.032  11.525  0.4994  0.0014 -0.2601
20230SOL    HW267931   0.151  10.122  11.522 -0.1831 -0.9083 -0.1740
20231SOL     OW67932   5.198   0.282   2.098 -0.2033 -0.1127  0.0869
20231SOL    HW167933   5.174   0.375   2.099 -1.6631 -0.4515  1.5964
20231SOL    HW267934   5.154   0.247   2.020  0.2404  0.4310 -0.4128
20232SOL     OW67935   0.539   0.645  11.647  0.2254  0.0705 -0.6478
20232SOL    HW167936   0.456   0.678  11.612  0.9453  1.1500 -1.4008
20232SOL    HW267937   0.529   0.550  11.644 -0.4086  0.1482 -2.2225
20233SOL     OW67938   0.326  10.656   7.113 -0.2195  0.6224 -0.1798
20233SOL    HW167939   0.394  10.720   7.090 -0.1274  1.0541  1.1868
20233SOL    HW267940   0.326  10.655   7.208 -1.2768 -0.3173 -0.1711
20234SOL     OW67941  10.269  10.113  10.367 -0.0038 -0.3889 -0.3439
20234SOL    HW167942  10.271  10.206  10.389 -2.3039  0.0658 -1.7230
20234SOL    HW267943  10.353  10.097  10.325  0.0358  1.3182 -1.0003
20235SOL     OW67944   6.276   1.782   8.349 -0.1404  0.1680  0.3091
20235SOL    HW167945   6.269   1.872   8.381 -0.6814 -0.4245  1.9602
20235SOL    HW267946   6.294   1.730   8.427 -1.3194 -1.3433 -0.3707
20236SOL     OW67947   0.403   9.987  11.130  0.1574 -0.0357  0.4595
20236SOL    HW167948   0.354  10.057  11.173 -0.3097  0.1907 -0.4165
20236SOL    HW267949   0.495  10.006  11.150 -0.0328  0.2122  1.1213
20237SOL     OW67950   2.257   3.832   7.935  0.7150  0.4047 -0.0967
20237SOL    HW167951   2.278   3.904   7.994 -1.0681 -0.0108  1.1215
20237SOL    HW267952   2.195   3.869   7.872  0.9876  0.3240 -0.4148
20238SOL     OW67953   1.274   0.322  11.794 -0.2030 -0.3736  0.2284
20238SOL    HW167954   1.295   0.318  11.887 -0.7189 -1.2198  0.3185
20238SOL    HW267955   1.276   0.416  11.774  0.9019 -0.2433  0.8445
20239SOL     OW67956   5.899  10.731   1.631  0.3442 -0.3591  0.4738
20239SOL    HW167957   5.935  10.642   1.623 -0.0727 -0.8076  2.8168
20239SOL    HW267958   5.965  10.787   1.590  0.6868 -1.7274 -0.9308
20240SOL     OW67959   1.931  12.053   7.755 -0.0651 -0.3362 -0.0401
20240SOL    HW167960   1.886  12.123   7.708  0.6585  0.2747  0.1466
20240SOL    HW267961   2.008  12.033   7.701 -0.1348 -0.8149  0.0340
20241SOL     OW67962   2.242   6.028  12.701  0.2631  0.0670  0.3450
20241SOL    HW167963   2.286   5.949  12.670 -0.7257 -0.5921  0.5475
20241SOL    HW267964   2.308   6.096  12.698  0.6522 -0.3496 -1.6028
20242SOL     OW67965  10.741   8.125  10.763  0.2032  0.3222 -0.2943
20242SOL    HW167966  10.732   8.052  10.825  0.1519  1.5040  1.1604
20242SOL    HW267967  10.669   8.184  10.785  0.6491  1.1387 -0.9769
20243SOL     OW67968   6.739   5.979   5.654  0.6735 -0.3493  0.5269
20243SOL    HW167969   6.665   6.009   5.706  1.7255 -1.3958  2.7771
20243SOL    HW267970   6.702   5.962   5.567 -0.6819  3.7112  0.1244
20244SOL     OW67971   2.079   4.452   7.071 -0.3269  0.1959  0.2081
20244SOL    HW167972   2.026   4.485   7.144 -1.5965 -1.2146 -0.0226
20244SOL    HW267973   2.052   4.505   6.996 -1.7693 -0.7900  0.0021
20245SOL     OW67974   6.090   0.071   4.511  0.0056 -0.0467 -0.2091
20245SOL    HW167975   6.045   0.011   4.570  1.3573 -1.2178 -0.3106
20245SOL    HW267976   6.126   0.015   4.443  2.4062  0.6648  0.3820
20246SOL     OW67977   5.542   8.812   9.870  0.6518  0.1750  0.6478
20246SOL    HW167978   5.478   8.773   9.810 -0.2798  2.3471  0.1505
20246SOL    HW267979   5.525   8.768   9.954 -0.7649 -0.0696  0.2713
20247SOL     OW67980   1.250   7.425   4.347 -0.7418 -0.7490  0.2635
20247SOL    HW167981   1.202   7.407   4.266  1.5788 -2.9706 -0.7480
20247SOL    HW267982   1.250   7.520   4.355 -0.0249 -0.3679 -3.0166
20248SOL     OW67983   3.066   8.006   8.280 -0.3032 -0.2417  0.4246
20248SOL    HW167984   3.035   7.986   8.191  1.8835  0.7669 -0.6539
20248SOL    HW267985   3.061   8.101   8.286  0.6114 -0.2131  0.9399
20249SOL     OW67986   1.560   5.884   0.678  0.4380 -0.1320 -0.8057
20249SOL    HW167987   1.557   5.799   0.721 -0.9229 -1.0337 -2.5395
20249SOL    HW267988   1.471   5.898   0.644  0.5988  2.0366 -0.4997
20250SOL     OW67989   2.736   5.151   4.856 -0.0785  0.0886  0.3771
20250SOL    HW167990   2.805   5.135   4.793 -1.2191  1.6281 -1.3695
20250SOL    HW267991   2.746   5.082   4.922  0.7134 -2.0667 -1.8652
20251SOL     OW67992   3.711   1.598   8.597 -0.4038  0.0662  1.1048
20251SOL    HW167993   3.746   1.656   8.664  0.0872  0.2543  0.6910
20251SOL    HW267994   3.624   1.634   8.577  0.2513  1.2239  0.2004
20252SOL     OW67995   9.002  11.515   6.031  0.1315 -0.1828  0.7970
20252SOL    HW167996   9.044  11.467   6.102  0.4456 -0.9512  0.1060
20252SOL    HW267997   9.062  11.587   6.013  1.6652 -1.7336 -0.7425
20253SOL     OW67998   1.315   8.279   7.384  0.4498 -0.1870  0.4733
20253SOL    HW167999   1.240   8.338   7.375 -0.5703 -1.7792 -3.4648
20253SOL    HW268000   1.277   8.196   7.413  1.3270 -0.0500  2.1559
20254SOL     OW68001   2.959  12.321  10.204 -0.2004  0.0602 -0.3346
20254SOL    HW168002   2.905  12.326  10.283 -0.2453 -1.8347 -0.1886
20254SOL    HW268003   2.899  12.344  10.133 -0.7093 -0.1832  0.0037
20255SOL     OW68004   3.892   3.062  11.723 -0.2345  0.2633 -0.0470
20255SOL    HW168005   3.894   3.082  11.629 -0.0165 -0.3477 -0.1740
20255SOL    HW268006   3.924   2.972  11.730 -0.1249  0.3451  0.6262
20256SOL     OW68007   8.102  11.585   5.641 -0.3676 -0.0664 -0.4121
20256SOL    HW168008   8.050  11.645   5.694 -1.3458 -0.9942 -0.2797
20256SOL    HW268009   8.189  11.587   5.681 -0.6323  0.5488  0.1569
20257SOL     OW68010   8.716   9.517  11.178  0.2283  0.4609  0.1857
20257SOL    HW168011   8.750   9.439  11.135 -0.8821 -0.1521  0.3645
20257SOL    HW268012   8.793   9.566  11.207  0.9350 -0.4256 -0.1929
20258SOL     OW68013   5.043   5.074   9.138 -0.4600  0.0340 -0.9799
20258SOL    HW168014   5.120   5.027   9.171 -0.3985  1.0735  0.4823
20258SOL    HW268015   5.052   5.072   9.043  0.0753 -1.9610 -0.9250
20259SOL     OW68016   8.842   9.754  10.788 -0.3439 -0.1291 -0.0087
20259SOL    HW168017   8.816   9.785  10.875  2.1745  1.0505  0.4156
20259SOL    HW268018   8.843   9.659  10.796 -3.4656 -0.2545  0.1462
20260SOL     OW68019   4.852   4.755   7.732 -0.7386  0.3941  0.4615
20260SOL    HW168020   4.831   4.836   7.686 -1.7935  0.3305  0.7976
20260SOL    HW268021   4.834   4.774   7.824  2.1458  0.7857  1.0381
20261SOL     OW68022  10.463   0.948   2.502 -0.4289 -0.3767  0.2434
20261SOL    HW168023  10.447   0.953   2.408 -1.0787  0.8763  0.4101
20261SOL    HW268024  10.485   1.037   2.528 -2.5247 -0.1971  1.6567
20262SOL     OW68025   4.684   9.588   3.821 -0.3966 -1.0672  0.7813
20262SOL    HW168026   4.625   9.589   3.897  0.2292 -1.0966  1.2802
20262SOL    HW268027   4.757   9.532   3.849  1.2403  1.1732  1.2558
20263SOL     OW68028   1.054   3.304   2.495  0.5486  0.4778 -0.0617
20263SOL    HW168029   1.030   3.329   2.406  1.7036  0.2356 -0.4490
20263SOL    HW268030   1.031   3.380   2.549  0.5941  0.9311 -0.6764
20264SOL     OW68031   0.170   4.930   3.739 -0.2794  0.1100 -0.4560
20264SOL    HW168032   0.150   4.858   3.799  1.0372 -0.3457 -0.5368
20264SOL    HW268033   0.175   5.007   3.796 -0.8681  0.0050 -0.2537
20265SOL     OW68034  12.372  11.348   9.735 -0.0165  0.1483 -0.3361
20265SOL    HW168035  12.421  11.355   9.653  0.0109  0.2730 -0.3102
20265SOL    HW268036  12.281  11.334   9.707 -0.0764  0.6406 -0.3958
20266SOL     OW68037   1.694   8.045   4.899  0.1054  0.1196  1.0202
20266SOL    HW168038   1.709   7.953   4.922 -2.2500 -0.3122  1.0301
20266SOL    HW268039   1.708   8.049   4.804 -1.2467 -0.5946  0.7799
20267SOL     OW68040   3.850   3.949   5.785 -0.4697  0.1553  0.5966
20267SOL    HW168041   3.896   3.954   5.869  0.6216 -0.5031  0.0528
20267SOL    HW268042   3.900   3.886   5.733 -1.0273  0.6628 -0.6094
20268SOL     OW68043   3.612   6.061   2.472 -0.3409  0.5624  0.1198
20268SOL    HW168044   3.697   6.050   2.429 -0.3793 -0.1085  0.2133
20268SOL    HW268045   3.548   6.056   2.400 -0.5246 -2.1704  0.3902
20269SOL     OW68046   6.133   6.475  11.293 -0.3924  0.2098  0.1205
20269SOL    HW168047   6.161   6.499  11.381  1.8455 -2.1166  0.1593
20269SOL    HW268048   6.055   6.421  11.307 -1.4368  1.7367  0.4499
20270SOL     OW68049   3.969   2.945   9.979 -0.0336 -0.8865 -0.1476
20270SOL    HW168050   4.028   2.924  10.051  1.1765 -0.9982 -1.1390
20270SOL    HW268051   3.915   3.017  10.011  0.6263 -0.7981  0.7837
20271SOL     OW68052   2.848  10.199   4.161 -0.2083 -0.3429  0.3450
20271SOL    HW168053   2.846  10.188   4.256 -0.7325  0.3975  0.4239
20271SOL    HW268054   2.941  10.204   4.139 -0.0660  3.0218  1.2496
20272SOL     OW68055  10.347   5.439   6.921 -0.3585 -0.1611 -0.5674
20272SOL    HW168056  10.368   5.395   7.003  0.6933 -1.2467 -1.3772
20272SOL    HW268057  10.350   5.370   6.855  0.2325  0.9256 -1.7322
20273SOL     OW68058   4.427  11.307  10.300  0.2698  0.0842  0.6064
20273SOL    HW168059   4.480  11.337  10.374  0.3314 -0.1763  0.6681
20273SOL    HW268060   4.421  11.383  10.242 -0.5617  0.5804  1.3213
20274SOL     OW68061   4.072   2.706   6.184  0.1607  0.3048  0.3562
20274SOL    HW168062   3.995   2.651   6.169 -0.6965  0.9530  2.0010
20274SOL    HW268063   4.064   2.732   6.276  2.3894  0.3554  0.5773
20275SOL     OW68064   8.517   3.608   4.419  0.0728 -0.0906 -0.0368
20275SOL    HW168065   8.545   3.576   4.334  0.2721  0.5904 -0.2359
20275SOL    HW268066   8.484   3.531   4.465 -1.8561 -0.1593 -1.4314
20276SOL     OW68067   1.937  12.550   4.381 -0.0329  0.2666  0.7428
20276SOL    HW168068   1.988  12.506   4.449 -0.0426 -0.7914  0.0841
20276SOL    HW268069   1.849  12.513   4.390  0.3199 -1.0446 -0.8204
20277SOL     OW68070   6.077   2.420   2.766 -0.2822 -0.0021  0.0500
20277SOL    HW168071   6.031   2.503   2.783  0.6763  0.6126 -0.2584
20277SOL    HW268072   6.022   2.375   2.703 -1.4202 -0.1407  1.0910
20278SOL     OW68073   6.248  11.308   8.046 -0.0766 -0.2596  0.7852
20278SOL    HW168074   6.217  11.296   8.136 -0.6899  3.8997  1.3454
20278SOL    HW268075   6.169  11.335   7.998  0.5312 -1.0165 -0.6818
20279SOL     OW68076   5.870  10.799   7.450  0.7162 -0.1354  0.1704
20279SOL    HW168077   5.897  10.758   7.532  1.0786  0.8118  0.5470
20279SOL    HW268078   5.775  10.804   7.456  0.7054 -0.5148  0.3169
20280SOL     OW68079   5.450   5.105   8.566  0.0208  0.1090 -0.4277
20280SOL    HW168080   5.465   5.014   8.541  1.0338  0.8710 -2.8864
20280SOL    HW268081   5.375   5.133   8.513 -1.2202  0.3757  1.3533
20281SOL     OW68082  11.625   9.580  11.620 -0.9005 -0.2728 -0.0759
20281SOL    HW168083  11.666   9.665  11.603 -2.4717  0.4929 -0.2668
20281SOL    HW268084  11.531   9.599  11.621 -1.2428 -1.8385  0.9266
20282SOL     OW68085   1.756   2.369   2.812 -0.2278 -0.1450 -0.1975
20282SOL    HW168086   1.721   2.456   2.828 -3.9085 -1.4049 -0.5985
20282SOL    HW268087   1.736   2.351   2.720  0.6145 -1.3577 -0.1716
20283SOL     OW68088   7.844   9.226   8.409  0.1710 -0.4667 -0.0030
20283SOL    HW168089   7.767   9.276   8.437 -0.2551 -1.3315  0.3858
20283SOL    HW268090   7.914   9.292   8.403 -0.6357  0.3584 -0.5586
20284SOL     OW68091   9.158   4.099   2.595 -0.0966  0.1912  0.0279
20284SOL    HW168092   9.099   4.056   2.532  0.7981 -2.3801  0.8078
20284SOL    HW268093   9.119   4.185   2.610 -2.1167 -0.3747 -1.5511
20285SOL     OW68094   6.143   6.818   1.881 -0.5648 -0.3192  0.7422
20285SOL    HW168095   6.089   6.750   1.841  1.0435  0.1583 -2.6214
20285SOL    HW268096   6.127   6.896   1.827  3.0310 -0.0676 -0.2305
20286SOL     OW68097   9.238   5.452   8.437  0.0479  0.1497  0.0640
20286SOL    HW168098   9.282   5.447   8.351 -1.5686  0.7794 -0.8418
20286SOL    HW268099   9.250   5.543   8.464  1.6077 -0.3277  1.1411
20287SOL     OW68100   3.386  11.995   8.718 -0.1012 -0.1935 -0.2335
20287SOL    HW168101   3.410  11.910   8.755 -0.1497  0.0039  0.2572
20287SOL    HW268102   3.333  12.036   8.786  0.3396  0.4335 -0.2608
20288SOL     OW68103   3.328   0.334   8.244  0.3240 -0.2583 -0.0797
20288SOL    HW168104   3.291   0.361   8.329  0.8312 -0.1551  0.1089
20288SOL    HW268105   3.267   0.267   8.213 -0.3228  0.2844 -0.0225
20289SOL     OW68106   9.452   3.978   8.609 -0.0998  0.6458 -0.2012
20289SOL    HW168107   9.536   3.937   8.588 -0.0606 -0.1998  1.4496
20289SOL    HW268108   9.400   3.968   8.529  1.4886  1.5746 -1.4063
20290SOL     OW68109   7.982   6.800  11.374  0.5214 -0.0461 -0.2469
20290SOL    HW168110   8.036   6.803  11.295 -0.0621 -0.1533 -0.6489
20290SOL    HW268111   7.897   6.834  11.347  0.2934 -0.1586  0.3169
20291SOL     OW68112   9.836   8.343   8.668 -0.1045  0.1099  0.0638
20291SOL    HW168113   9.792   8.357   8.584  1.0588 -1.1503 -0.8034
20291SOL    HW268114   9.774   8.292   8.719 -1.1134  1.4868  0.2690
20292SOL     OW68115   7.336   3.544  11.809 -0.0017  0.5595 -0.0962
20292SOL    HW168116   7.409   3.507  11.859  0.4164 -0.3535 -1.3102
20292SOL    HW268117   7.378   3.590  11.736 -0.6090  0.3472 -0.5954
20293SOL     OW68118   7.103   5.213   8.755  0.2899 -0.2965 -0.6185
20293SOL    HW168119   7.165   5.140   8.748  0.5029 -0.0588 -1.2950
20293SOL    HW268120   7.017   5.171   8.750  0.3716 -0.6748  0.8190
20294SOL     OW68121   2.629   6.747   2.599  0.1807  0.0140 -0.4200
20294SOL    HW168122   2.648   6.662   2.640 -0.0406 -1.5651 -3.3017
20294SOL    HW268123   2.715   6.783   2.578  0.2692  0.4216  0.5843
20295SOL     OW68124   6.956   9.308   4.909 -0.0176  0.4592  0.0417
20295SOL    HW168125   6.877   9.359   4.889 -0.7859  0.8798  3.4818
20295SOL    HW268126   7.027   9.372   4.910  0.1899  0.2900 -1.8818
20296SOL     OW68127   9.895   8.081   0.530  0.9497 -0.2590 -0.0540
20296SOL    HW168128   9.848   8.091   0.448  0.0732 -0.1096  0.4541
20296SOL    HW268129   9.977   8.037   0.506 -0.3135 -2.4160 -0.6789
20297SOL     OW68130  10.102   7.488   7.271 -0.2954 -0.1334  0.1857
20297SOL    HW168131  10.168   7.556   7.282 -1.1439  0.6015  0.9034
20297SOL    HW268132  10.090   7.451   7.358  0.2616 -1.3384 -0.2187
20298SOL     OW68133   1.140  10.732   7.546 -0.1131 -0.2380  0.4202
20298SOL    HW168134   1.138  10.828   7.539  0.6074 -0.2758 -0.4920
20298SOL    HW268135   1.109  10.714   7.634  0.4164  0.8793  0.8572
20299SOL     OW68136   0.161   3.614   5.544 -0.2594  0.2509  0.1306
20299SOL    HW168137   0.209   3.536   5.571 -0.3008 -0.0788 -0.7087
20299SOL    HW268138   0.072   3.582   5.528 -0.5108  0.6576  0.6843
20300SOL     OW68139   3.972   2.551   2.164 -0.1460 -0.5333  0.0880
20300SOL    HW168140   3.881   2.525   2.154  0.6313 -3.4802 -0.1741
20300SOL    HW268141   3.969   2.633   2.213 -2.8656 -1.1651  1.1186
20301SOL     OW68142   9.929   5.705   5.966  0.5120  0.1443  0.0065
20301SOL    HW168143   9.884   5.758   5.901 -1.4356 -1.7784 -0.3324
20301SOL    HW268144   9.941   5.620   5.924  1.2848 -0.4617  1.3746
20302SOL     OW68145   0.322  11.189   2.042  0.3429 -0.0202 -0.5419
20302SOL    HW168146   0.268  11.242   1.983  0.4335  0.0394 -0.5712
20302SOL    HW268147   0.349  11.250   2.110 -0.4588 -0.2838  0.0294
20303SOL     OW68148   3.591   6.544   5.482  0.2377  0.0474 -0.1331
20303SOL    HW168149   3.500   6.514   5.479  0.0061  0.1310  2.6539
20303SOL    HW268150   3.642   6.465   5.492  0.1856  0.1458  1.0544
20304SOL     OW68151   9.099   5.199  10.408  0.1422  0.5325 -0.0674
20304SOL    HW168152   9.108   5.215  10.502  0.3031  1.7509 -0.2617
20304SOL    HW268153   9.025   5.254  10.382 -0.3601 -0.3619 -0.5283
20305SOL     OW68154  11.265   0.684   8.183 -0.1939 -0.3564 -0.5188
20305SOL    HW168155  11.226   0.761   8.225 -1.2797 -1.2306  0.1582
20305SOL    HW268156  11.257   0.700   8.089 -2.1826 -0.4512 -0.4103
20306SOL     OW68157   4.673   5.583   2.404  0.0482  0.7090  0.3862
20306SOL    HW168158   4.758   5.627   2.394  1.2080 -0.9951  2.1521
20306SOL    HW268159   4.671   5.519   2.332 -0.1508  1.3313 -0.1731
20307SOL     OW68160   2.794   5.192  11.686  0.0806  0.0160 -0.5426
20307SOL    HW168161   2.790   5.125  11.755  0.0925 -0.7093 -1.2326
20307SOL    HW268162   2.863   5.162  11.628  0.8109  1.1935 -0.3018
20308SOL     OW68163   4.688   2.662   1.966 -0.0510 -0.3911 -0.0203
20308SOL    HW168164   4.665   2.577   1.929 -0.5035 -0.1029 -0.4022
20308SOL    HW268165   4.607   2.694   2.005 -0.4877  0.8878 -1.8680
20309SOL     OW68166   5.975   1.280  11.276 -0.2960  0.3758 -0.2805
20309SOL    HW168167   5.976   1.274  11.371  4.1615  0.4963 -0.1054
20309SOL    HW268168   5.983   1.374  11.258  0.7692  0.2387 -0.6310
20310SOL     OW68169  12.669   0.643   1.234 -0.3570  0.1908 -0.1619
20310SOL    HW168170  12.630   0.558   1.256 -0.0630 -0.4035 -1.7814
20310SOL    HW268171  12.715   0.670   1.314 -2.4200 -0.0034  1.1640
20311SOL     OW68172   6.166  10.210   5.059 -0.0811  0.3263 -0.5681
20311SOL    HW168173   6.151  10.301   5.031  0.9324  1.0006  0.9427
20311SOL    HW268174   6.251  10.187   5.022  1.1706  1.1537  1.6283
20312SOL     OW68175   3.630  12.337   6.462  0.6166  0.5084  0.3487
20312SOL    HW168176   3.626  12.338   6.366 -0.0280 -1.7391  0.2894
20312SOL    HW268177   3.723  12.335   6.482  0.7488 -0.0715 -0.2750
20313SOL     OW68178   7.229   5.969   7.722  0.5143 -0.0128  0.0672
20313SOL    HW168179   7.189   6.054   7.705 -0.2483 -0.3676  0.0477
20313SOL    HW268180   7.224   5.959   7.817  0.7516  0.0326  0.0851
20314SOL     OW68181   0.564   9.103   9.007 -0.4006 -0.1419 -0.0563
20314SOL    HW168182   0.610   9.027   8.970  1.4814  0.7155  0.3963
20314SOL    HW268183   0.618   9.128   9.083 -0.5546  2.0905 -0.6364
20315SOL     OW68184   3.431   3.915   1.802 -0.1890  0.0031 -0.1588
20315SOL    HW168185   3.362   3.875   1.857  1.0413 -0.2271  1.2934
20315SOL    HW268186   3.395   3.912   1.713 -1.1838 -2.0832  0.2394
20316SOL     OW68187   7.116   9.773   7.193 -0.8385  0.6381 -0.0878
20316SOL    HW168188   7.047   9.746   7.132 -2.5227  0.9323  1.5919
20316SOL    HW268189   7.071   9.826   7.259  1.0311  0.9629  1.0115
20317SOL     OW68190   8.855   0.928   9.926  0.5646  0.1100 -0.4770
20317SOL    HW168191   8.818   0.852   9.882 -0.8752  1.2655 -1.3561
20317SOL    HW268192   8.886   0.984   9.855  1.6712  0.3351  0.1563
20318SOL     OW68193   8.691   7.312  10.440 -0.2470 -0.5510  0.1001
20318SOL    HW168194   8.715   7.328  10.349 -1.2758  0.4699 -0.0194
20318SOL    HW268195   8.640   7.232  10.437 -1.1524  0.0274 -0.3907
20319SOL     OW68196   3.078   4.156   6.092 -0.5176 -0.5743  0.5400
20319SOL    HW168197   3.082   4.161   5.996  0.7640 -3.2335  0.3650
20319SOL    HW268198   3.083   4.247   6.121 -2.4422  0.4310 -1.9160
20320SOL     OW68199   3.176   2.672   5.014 -0.4748  0.4330 -0.4634
20320SOL    HW168200   3.266   2.694   4.991 -0.9589  1.5507 -1.4148
20320SOL    HW268201   3.134   2.654   4.929 -1.1151 -0.2225 -0.0186
20321SOL     OW68202   7.381   8.157   7.065  0.4649 -0.4153 -0.0239
20321SOL    HW168203   7.357   8.211   7.140  1.9417 -1.5346  1.3154
20321SOL    HW268204   7.442   8.211   7.015 -1.4054  0.7882 -1.1422
20322SOL     OW68205   6.311   2.215   0.622  0.0477 -0.1281 -0.4598
20322SOL    HW168206   6.307   2.119   0.615 -1.0511 -0.0882 -0.5952
20322SOL    HW268207   6.220   2.241   0.635  0.2742  0.9432 -0.9655
20323SOL     OW68208   1.287  10.223   9.757 -0.3182 -0.1039 -0.1869
20323SOL    HW168209   1.209  10.236   9.810 -0.7787  1.2142 -1.1458
20323SOL    HW268210   1.259  10.239   9.667  0.9022 -0.2695 -0.6290
20324SOL     OW68211   0.366   4.813   1.108 -0.3315  0.4342  0.0290
20324SOL    HW168212   0.437   4.774   1.058 -0.3776  0.8028 -0.3299
20324SOL    HW268213   0.371   4.906   1.088 -1.0158  0.4428 -0.1412
20325SOL     OW68214  10.593   1.424  12.220 -0.1557 -0.4381  0.1525
20325SOL    HW168215  10.498   1.422  12.209 -0.3272 -0.6656  1.5363
20325SOL    HW268216  10.615   1.518  12.219 -0.6498 -0.2783  1.6531
20326SOL     OW68217   0.539  12.464   3.425 -0.1534 -0.1037 -0.1561
20326SOL    HW168218   0.614  12.423   3.468  0.5766  1.1007 -0.2248
20326SOL    HW268219   0.463  12.419   3.462  0.5823 -1.3554 -0.0857
20327SOL     OW68220   8.707  10.697  10.739  0.2238 -0.2096  0.1511
20327SOL    HW168221   8.659  10.777  10.761  0.1284 -0.3659  0.5161
20327SOL    HW268222   8.648  10.650  10.680 -0.2746 -0.6214  0.9713
20328SOL     OW68223   5.425   3.313  11.749 -0.0629 -0.0314  0.7625
20328SOL    HW168224   5.334   3.327  11.724 -0.0102 -1.1049 -0.0796
20328SOL    HW268225   5.420   3.273  11.836 -0.4463 -0.9776  0.3226
20329SOL     OW68226  11.079  10.071  12.139 -0.0810 -0.1023  0.4640
20329SOL    HW168227  11.003  10.028  12.178  0.1286 -1.2630 -0.3512
20329SOL    HW268228  11.143  10.075  12.210  0.7303 -3.2608  0.0665
20330SOL     OW68229   0.271   0.607   1.385 -0.3194 -0.4433  0.1967
20330SOL    HW168230   0.331   0.652   1.325  1.3869 -1.6631  0.8834
20330SOL    HW268231   0.273   0.515   1.356 -2.2653 -0.4413 -0.0366
20331SOL     OW68232   3.599   1.194   4.480  0.2695  0.2364  0.5066
20331SOL    HW168233   3.576   1.219   4.391 -2.0802 -0.2238  0.9159
20331SOL    HW268234   3.630   1.103   4.472 -1.0635 -0.2256  0.2527
20332SOL     OW68235   3.127  12.112   9.231  0.3861  0.3147 -0.0431
20332SOL    HW168236   3.117  12.206   9.246  1.2909  0.1821  1.5247
20332SOL    HW268237   3.221  12.100   9.220  0.4650 -0.6113  1.4108
20333SOL     OW68238  10.179   6.928   0.913 -0.4895  0.2210  0.1804
20333SOL    HW168239  10.257   6.917   0.858 -0.3059 -0.3997  0.5579
20333SOL    HW268240  10.167   6.843   0.955 -0.8580  0.5718  0.8032
20334SOL     OW68241   7.298   8.928  10.285  0.1787  0.4990 -0.2226
20334SOL    HW168242   7.255   8.969  10.209 -2.4016 -2.3335 -0.4792
20334SOL    HW268243   7.282   8.990  10.357 -0.9171  1.3814 -1.1692
20335SOL     OW68244  11.479   3.238  11.329  0.0464 -0.4741  0.5468
20335SOL    HW168245  11.408   3.230  11.392  0.2836 -2.2794  0.6354
20335SOL    HW268246  11.474   3.329  11.299 -0.6815  0.1496  2.4102
20336SOL     OW68247   8.370   4.623   5.870 -0.0900  0.3921  0.3430
20336SOL    HW168248   8.454   4.661   5.894 -1.1279  3.1677 -0.0140
20336SOL    HW268249   8.382   4.593   5.780  0.2228  1.9106 -0.1538
20337SOL     OW68250   8.243   7.350   5.328  0.3155 -0.9697  0.4931
20337SOL    HW168251   8.189   7.272   5.325 -0.6179 -0.3417  0.7597
20337SOL    HW268252   8.186   7.419   5.362  1.5070 -0.4779  1.6234
20338SOL     OW68253   4.736  10.793   8.412 -0.2274  0.2282  0.0002
20338SOL    HW168254   4.747  10.704   8.379  0.1473  0.0253  0.6692
20338SOL    HW268255   4.662  10.827   8.362 -1.3523 -0.9655  0.7786
20339SOL     OW68256   6.424   6.050   2.427  0.0502 -0.3908  0.0491
20339SOL    HW168257   6.499   6.054   2.486  0.1986  0.6391 -0.1782
20339SOL    HW268258   6.385   5.964   2.442  1.0692 -0.8022  0.4241
20340SOL     OW68259   8.285   0.522   9.169 -0.9544 -0.0215 -0.4128
20340SOL    HW168260   8.260   0.431   9.152  0.1786 -0.6965  1.3182
20340SOL    HW268261   8.359   0.537   9.111 -1.6960  0.1271 -1.3577
20341SOL     OW68262   4.178   5.934   5.176 -0.0521  0.2723  0.0983
20341SOL    HW168263   4.269   5.906   5.169  0.2200  1.5321 -2.5974
20341SOL    HW268264   4.180   6.006   5.239  0.8195  0.2462  0.1039
20342SOL     OW68265   4.731   5.997   9.908 -0.1624 -0.0337 -0.0887
20342SOL    HW168266   4.647   6.013   9.866 -0.4736 -0.1871  0.4584
20342SOL    HW268267   4.745   5.903   9.901  0.2322  0.0594 -0.6601
20343SOL     OW68268   2.095  11.950   5.204 -0.7000 -0.5377 -0.6599
20343SOL    HW168269   2.157  12.011   5.246 -0.5961 -0.4079 -1.0025
20343SOL    HW268270   2.072  11.889   5.274  0.6304 -1.2289 -0.7787
20344SOL     OW68271   8.239   5.069   0.986  0.7437 -0.4168  0.4437
20344SOL    HW168272   8.295   5.049   1.061  0.6887 -2.0977  0.0828
20344SOL    HW268273   8.181   4.993   0.979  0.4685 -0.0981 -1.0565
20345SOL     OW68274   8.989   2.751   6.588 -0.0753  0.2585 -0.3126
20345SOL    HW168275   8.895   2.748   6.606  0.5353 -0.6288  3.5309
20345SOL    HW268276   9.018   2.834   6.627  0.9865 -0.2875  0.0895
20346SOL     OW68277   1.074   4.038   7.635  0.1424  0.3423  0.0657
20346SOL    HW168278   1.018   4.030   7.713 -1.1254 -0.2138 -0.8760
20346SOL    HW268279   1.034   4.109   7.585  1.2133  0.9959  0.1050
20347SOL     OW68280   8.529   5.913   3.570 -0.5565  0.5517  0.3273
20347SOL    HW168281   8.565   5.835   3.527 -1.3302  1.0203 -1.2247
20347SOL    HW268282   8.454   5.881   3.620 -0.7772  0.2770 -0.1765
20348SOL     OW68283   2.805   9.884  11.518  0.2818 -0.8768  0.0708
20348SOL    HW168284   2.729   9.913  11.468  0.7513  0.7033  0.2157
20348SOL    HW268285   2.819   9.954  11.582  0.8800 -1.9206  1.1147
20349SOL     OW68286  12.387   6.303   4.761 -0.4108 -0.0535 -0.2858
20349SOL    HW168287  12.433   6.387   4.769  1.4747 -0.9794 -0.9439
20349SOL    HW268288  12.377   6.290   4.667 -0.5762 -0.6407 -0.1912
20350SOL     OW68289   0.363   2.602  12.675  0.4432  0.1494  0.4380
20350SOL    HW168290   0.385   2.595  12.582 -0.1272 -1.0108  0.3743
20350SOL    HW268291   0.423   2.540  12.718  2.0761  2.0835  1.1118
20351SOL     OW68292   9.845   7.194   4.145  0.5515  0.1171  0.3175
20351SOL    HW168293   9.911   7.263   4.138  0.3178  0.3905  0.7963
20351SOL    HW268294   9.786   7.224   4.214  0.5688 -0.6518  0.6799
20352SOL     OW68295   5.715   0.799   4.745 -0.0922 -0.2189 -0.2715
20352SOL    HW168296   5.655   0.727   4.766 -1.3469  0.4494 -1.4598
20352SOL    HW268297   5.749   0.777   4.658 -0.8173  0.8103 -0.8334
20353SOL     OW68298   3.036   3.155   4.509 -0.3198  0.3967 -0.0908
20353SOL    HW168299   3.038   3.066   4.545  0.7944  0.3011 -0.3404
20353SOL    HW268300   3.084   3.208   4.573  0.7619  0.4191 -0.8892
20354SOL     OW68301   1.015   1.737   5.968  0.1869  0.3825  0.2183
20354SOL    HW168302   0.943   1.738   5.905 -0.1027  0.1744  0.5412
20354SOL    HW268303   1.054   1.650   5.958  2.1102  1.3894 -1.8573
20355SOL     OW68304  10.092   1.776   9.210  0.0871  0.1235  0.1100
20355SOL    HW168305  10.018   1.718   9.193 -0.3005  0.9002 -1.0618
20355SOL    HW268306  10.160   1.747   9.150 -0.0681  0.7803 -0.3989
20356SOL     OW68307   6.381  10.297   3.644 -0.0458 -0.0475 -0.1892
20356SOL    HW168308   6.423  10.220   3.606 -1.1645 -1.4527  1.3146
20356SOL    HW268309   6.379  10.361   3.572  2.0746 -0.9063 -1.1058
20357SOL     OW68310  12.591   4.799   0.200 -0.4319  0.0219 -0.2333
20357SOL    HW168311  12.650   4.741   0.249 -1.5304 -0.7096  0.2806
20357SOL    HW268312  12.531   4.739   0.156 -1.1781  0.7588 -0.2246
20358SOL     OW68313   2.117   3.573   6.672 -0.1907  0.1412 -0.2625
20358SOL    HW168314   2.116   3.559   6.767 -1.2645 -0.2158 -0.3137
20358SOL    HW268315   2.028   3.551   6.644 -0.7832  3.0531 -0.9508
20359SOL     OW68316   0.177   9.459  11.896  0.5972 -0.1762  0.5610
20359SOL    HW168317   0.124   9.401  11.842 -0.0175  1.9208 -1.2286
20359SOL    HW268318   0.260   9.412  11.908  0.4853 -1.0433 -1.6266
20360SOL     OW68319   5.699  11.890   0.911 -0.3956  0.5498 -0.2140
20360SOL    HW168320   5.612  11.863   0.882  0.9941 -2.0659 -2.4365
20360SOL    HW268321   5.722  11.828   0.979 -0.3793  1.5262  0.7058
20361SOL     OW68322   9.095   3.671   6.142  0.5604  0.3591  0.5946
20361SOL    HW168323   9.042   3.690   6.065  0.0554 -0.5930  0.6958
20361SOL    HW268324   9.170   3.622   6.108 -0.0978 -0.8235  0.7921
20362SOL     OW68325   4.186   5.181   1.205 -0.1509  0.1249 -0.0162
20362SOL    HW168326   4.104   5.190   1.253 -0.5984 -0.2793 -0.6937
20362SOL    HW268327   4.184   5.092   1.169  0.5191  0.1557 -0.1568
20363SOL     OW68328   8.616  11.972   3.358 -1.1856 -0.1976  0.2380
20363SOL    HW168329   8.656  11.918   3.290 -0.8772  0.5150 -0.1687
20363SOL    HW268330   8.662  11.950   3.438  1.2010  1.7080 -0.4696
20364SOL     OW68331   8.741  11.703  11.596  0.1117  0.2867  0.0242
20364SOL    HW168332   8.780  11.741  11.517 -1.5291  0.5048 -0.7104
20364SOL    HW268333   8.674  11.643  11.564  0.2163 -0.5140  1.2484
20365SOL     OW68334   4.513   7.190   9.030  1.0196  0.4719 -0.5093
20365SOL    HW168335   4.525   7.154   8.942  1.5602 -1.3645  0.2560
20365SOL    HW268336   4.554   7.125   9.088  1.5019  2.0837  1.0398
20366SOL     OW68337   2.313   2.633   7.524 -0.2236  0.0138  0.7287
20366SOL    HW168338   2.271   2.641   7.439 -1.3443 -0.3679  1.2291
20366SOL    HW268339   2.396   2.589   7.505 -0.9416 -1.0521 -0.0442
20367SOL     OW68340  11.513   3.552   8.019  0.1408 -0.2490 -0.6717
20367SOL    HW168341  11.490   3.528   8.109 -0.8165  2.3552 -0.1338
20367SOL    HW268342  11.484   3.477   7.967 -1.7364 -0.7316  0.9338
20368SOL     OW68343  11.439   0.903   7.037 -0.3781 -0.1430  0.3408
20368SOL    HW168344  11.365   0.963   7.033 -0.4103 -0.0916  1.3445
20368SOL    HW268345  11.482   0.911   6.952 -1.6590 -0.3626 -0.3413
20369SOL     OW68346   2.045   3.281  11.880  0.1423 -0.2579  0.3281
20369SOL    HW168347   2.058   3.241  11.965  2.4397 -2.5356 -0.9644
20369SOL    HW268348   2.018   3.371  11.899  0.0524 -0.8436  3.3902
20370SOL     OW68349  12.140   4.051   5.072  0.0479 -0.6713 -0.1514
20370SOL    HW168350  12.084   4.029   4.997  0.2749 -1.0344 -0.2173
20370SOL    HW268351  12.208   4.107   5.035 -0.7431  0.4964  0.0849
20371SOL     OW68352   7.158   6.761   7.611  0.0122 -0.4583 -0.4305
20371SOL    HW168353   7.201   6.846   7.619  0.1743 -0.5837  0.0765
20371SOL    HW268354   7.153   6.729   7.701  0.3475 -1.1817 -0.6639
20372SOL     OW68355   4.858   5.365   3.464  0.2982 -0.4983 -0.5081
20372SOL    HW168356   4.874   5.414   3.545 -0.9966  0.2797 -0.6996
20372SOL    HW268357   4.931   5.389   3.407  1.5831 -1.5593  0.6303
20373SOL     OW68358  12.486   6.572   0.926 -0.0260  0.7205 -0.0278
20373SOL    HW168359  12.490   6.550   0.833  2.5074 -0.2285  0.2241
20373SOL    HW268360  12.469   6.489   0.970  1.6484  0.5985  0.4746
20374SOL     OW68361   5.377  11.754   7.650 -0.1943  0.0007  0.4426
20374SOL    HW168362   5.316  11.688   7.683  1.3119 -1.3523  0.6063
20374SOL    HW268363   5.339  11.781   7.566 -1.1971 -0.5329  0.7040
20375SOL     OW68364   8.170   8.220   6.022  0.1767  0.0804 -0.1019
20375SOL    HW168365   8.238   8.282   5.998  0.6936  0.5873  2.4227
20375SOL    HW268366   8.132   8.192   5.938  1.9726  1.4567 -1.4456
20376SOL     OW68367  12.445   0.477   8.000  0.5350  0.0187 -0.4845
20376SOL    HW168368  12.505   0.550   8.013 -0.1137  0.6083 -0.7166
20376SOL    HW268369  12.456   0.452   7.908 -0.4581  0.9522 -0.8768
20377SOL     OW68370   8.386   2.036   9.541  0.0852  0.9971  0.6338
20377SOL    HW168371   8.407   2.114   9.489 -0.0322  0.8144  0.3078
20377SOL    HW268372   8.428   2.052   9.626  2.1127  0.3723 -0.1767
20378SOL     OW68373   4.076  10.497  12.528 -0.0158 -0.7421 -0.1623
20378SOL    HW168374   4.160  10.489  12.482 -0.3431 -0.3473 -0.8489
20378SOL    HW268375   4.063  10.592  12.537 -1.4024 -0.6983 -2.0001
20379SOL     OW68376  11.985   5.287  10.002  0.0510  0.4743  0.4018
20379SOL    HW168377  11.971   5.351  10.072  0.6170  0.2957  0.6892
20379SOL    HW268378  12.068   5.245  10.025 -0.7131 -0.9252  0.6511
20380SOL     OW68379   9.793   0.826   8.531 -0.3906  0.1588 -0.0385
20380SOL    HW168380   9.849   0.802   8.458  0.2229  1.0792  0.1177
20380SOL    HW268381   9.842   0.799   8.609 -0.7217 -0.1546  0.0705
20381SOL     OW68382   9.591   0.674   2.212 -0.1049  0.3434  0.0811
20381SOL    HW168383   9.549   0.749   2.171  1.7031  1.4314  0.1024
20381SOL    HW268384   9.631   0.709   2.292  0.8044 -0.6091  0.0769
20382SOL     OW68385  11.746  10.398  10.436  0.0827 -0.2742 -0.9279
20382SOL    HW168386  11.794  10.354  10.365 -0.9938 -3.0258 -0.0938
20382SOL    HW268387  11.659  10.358  10.433 -0.9303  1.7633  0.0509
20383SOL     OW68388   5.419   1.965   2.997  0.9290  0.1563  0.5943
20383SOL    HW168389   5.496   1.921   2.961 -1.0470 -2.2981 -1.0640
20383SOL    HW268390   5.393   2.027   2.929  0.6172 -0.1463  0.4281
20384SOL     OW68391  11.361   8.778   4.406  0.1207  0.4189  0.1952
20384SOL    HW168392  11.454   8.767   4.384  0.2666  0.1009  0.9301
20384SOL    HW268393  11.343   8.871   4.391  0.5425  0.4707 -0.0061
20385SOL     OW68394   2.290  11.885   8.464  0.1290 -0.0245  0.4923
20385SOL    HW168395   2.312  11.977   8.452  0.4486 -0.4641 -3.2359
20385SOL    HW268396   2.374  11.839   8.457 -0.4130 -0.8124 -1.1297
20386SOL     OW68397   9.514   3.661   3.409  0.5166 -0.2648  0.4122
20386SOL    HW168398   9.556   3.704   3.335  2.9563 -1.0171  1.2625
20386SOL    HW268399   9.583   3.653   3.475 -0.9394 -1.7533  1.8775
20387SOL     OW68400  10.910  10.716   5.406 -0.1968 -0.1087  0.2526
20387SOL    HW168401  10.844  10.758   5.460 -0.7369 -1.3464  0.5865
20387SOL    HW268402  10.941  10.785   5.347  0.2282  1.2021  1.9472
20388SOL     OW68403   9.701  12.372   3.163 -0.6008 -0.0249  0.6414
20388SOL    HW168404   9.659  12.406   3.084 -1.0107 -0.8472  0.4926
20388SOL    HW268405   9.687  12.440   3.229 -1.5037  0.0627  0.3798
20389SOL     OW68406   6.611   1.859   2.148  0.1613 -0.0811  0.1640
20389SOL    HW168407   6.548   1.824   2.084 -0.3254  0.4584  0.3329
20389SOL    HW268408   6.577   1.830   2.233 -1.1150  2.0012  0.4430
20390SOL     OW68409  12.643  11.247  10.443  0.2395  0.7065 -0.2388
20390SOL    HW168410  12.666  11.327  10.395 -1.1122  1.9725  1.0910
20390SOL    HW268411  12.548  11.254  10.456  0.4066 -0.0633  1.6911
20391SOL     OW68412   1.421   8.283   7.114 -0.4077  0.3971 -0.0371
20391SOL    HW168413   1.361   8.261   7.185  0.1150 -1.5349 -0.1391
20391SOL    HW268414   1.500   8.313   7.158  0.2104 -1.5629  0.2951
20392SOL     OW68415   9.822   0.736   4.580  0.4142 -0.2045  0.7324
20392SOL    HW168416   9.738   0.691   4.593 -0.8978  1.9919  0.3118
20392SOL    HW268417   9.828   0.750   4.486  1.3256 -0.4408  0.7477
20393SOL     OW68418   9.675   3.300   0.971  0.6703 -0.2937 -0.5311
20393SOL    HW168419   9.609   3.237   0.946 -0.0051  0.5043 -0.7921
20393SOL    HW268420   9.703   3.340   0.889  0.1147  0.6928 -0.2537
20394SOL     OW68421   4.992   8.719   1.004 -0.1313 -0.0389  0.1468
20394SOL    HW168422   4.937   8.647   1.032 -0.3526 -0.0237 -0.2435
20394SOL    HW268423   4.939   8.767   0.940  0.1561  0.2458  0.1180
20395SOL     OW68424   2.555   5.833   6.942 -0.4310  0.0579  0.3485
20395SOL    HW168425   2.511   5.912   6.909  0.1279  0.4603  0.5515
20395SOL    HW268426   2.624   5.866   6.999 -1.5015 -0.6103  2.1283
20396SOL     OW68427  10.878  11.121   0.941  0.2754  0.1728 -0.1998
20396SOL    HW168428  10.822  11.122   0.863  2.4881  1.2587 -1.8616
20396SOL    HW268429  10.892  11.213   0.961  2.0087 -0.0618 -0.2396
20397SOL     OW68430   9.347   9.046   1.782 -0.0871 -0.1555 -0.2479
20397SOL    HW168431   9.412   9.054   1.713 -0.1073 -1.2570 -0.4164
20397SOL    HW268432   9.263   9.047   1.736 -0.1536  0.2853 -0.1224
20398SOL     OW68433   2.672   0.537   3.476  0.2931 -0.6452 -0.6499
20398SOL    HW168434   2.767   0.536   3.472  0.3970  0.4728  0.6606
20398SOL    HW268435   2.650   0.628   3.499 -1.0380 -1.0752 -0.1249
20399SOL     OW68436   0.146   5.395  10.852 -0.0957  0.5023  0.4908
20399SOL    HW168437   0.144   5.326  10.918  0.2184 -0.3730 -0.3863
20399SOL    HW268438   0.089   5.362  10.782  0.5942  0.8151 -0.2284
20400SOL     OW68439   3.903  12.399   3.109  0.2337  0.1428  0.4027
20400SOL    HW168440   3.945  12.355   3.183 -1.3098 -1.1634  0.5616
20400SOL    HW268441   3.960  12.381   3.034  2.7957  2.9794  1.4701
20401SOL     OW68442   3.028   1.807   6.039 -0.2550  0.2833  0.4083
20401SOL    HW168443   2.932   1.808   6.038 -0.2771  1.4647  1.4605
20401SOL    HW268444   3.051   1.737   5.977 -1.7776  0.1159 -0.0320
20402SOL     OW68445   5.384   5.670   4.182 -0.1811  0.1809 -0.1426
20402SOL    HW168446   5.440   5.642   4.254  0.5319 -0.6420 -0.9857
20402SOL    HW268447   5.432   5.645   4.103 -2.2069 -1.5968 -0.9091
20403SOL     OW68448   3.592   6.585  12.468 -0.3511 -0.0172 -0.1466
20403SOL    HW168449   3.532   6.510  12.474 -0.2395 -0.3945 -2.4413
20403SOL    HW268450   3.535   6.660  12.450 -0.2750 -0.1916 -1.2421
20404SOL     OW68451   4.239   0.225   9.237 -0.3730 -0.0529 -0.3464
20404SOL    HW168452   4.305   0.253   9.301  1.2714 -0.0421 -1.9596
20404SOL    HW268453   4.247   0.130   9.234 -0.0524 -0.0146 -0.9048
20405SOL     OW68454   8.444  10.645  12.555  0.2926  0.1153  0.0355
20405SOL    HW168455   8.493  10.715  12.513 -0.7175 -0.0731 -1.5398
20405SOL    HW268456   8.353  10.674  12.553  0.2069  0.3199  2.6206
20406SOL     OW68457   6.139   2.262   1.771  0.1652 -0.2479  0.4072
20406SOL    HW168458   6.099   2.233   1.690 -1.2972 -0.5263  1.1947
20406SOL    HW268459   6.118   2.355   1.778 -0.1611 -0.3429  0.7149
20407SOL     OW68460   0.096   0.962  10.721  0.4621 -0.3892 -0.6693
20407SOL    HW168461   0.065   1.010  10.644 -0.4720  0.7138  0.3573
20407SOL    HW268462   0.152   1.025  10.767 -0.1326 -0.5330  0.2775
20408SOL     OW68463   6.704   7.275  10.154  0.3951  0.3505  0.0939
20408SOL    HW168464   6.717   7.257  10.248  0.6827 -0.6563 -0.1229
20408SOL    HW268465   6.728   7.193  10.111 -1.6823  0.1138 -0.7271
20409SOL     OW68466   1.622   5.377  10.929  0.1251  0.1417 -0.6217
20409SOL    HW168467   1.705   5.333  10.945  0.5728  0.6284 -1.4847
20409SOL    HW268468   1.596   5.412  11.014  0.7128 -0.1838 -0.3046
20410SOL     OW68469   2.625   1.967   6.509 -0.2063  0.1286  0.2337
20410SOL    HW168470   2.619   2.051   6.464  0.7654  0.5743  0.9333
20410SOL    HW268471   2.551   1.967   6.570  0.8058  1.2486  1.5071
20411SOL     OW68472  10.847   4.443  11.399 -0.1938  0.0453  0.2037
20411SOL    HW168473  10.838   4.375  11.332 -1.1887  1.3130 -1.0032
20411SOL    HW268474  10.778   4.424  11.462  0.6490 -1.0653  0.8167
20412SOL     OW68475   7.698   7.270   2.473  0.1442  0.4149 -0.1221
20412SOL    HW168476   7.783   7.312   2.457  0.6390 -0.0065  1.2463
20412SOL    HW268477   7.697   7.194   2.414  1.1982 -0.1806  0.5937
20413SOL     OW68478   6.730  11.729   1.100 -0.0088 -0.3044  0.6484
20413SOL    HW168479   6.806  11.706   1.046 -0.4521 -1.8154  0.6348
20413SOL    HW268480   6.658  11.677   1.064 -1.3191  1.7864  0.0452
20414SOL     OW68481   1.924   9.248   4.263 -0.3445 -0.1753 -0.4506
20414SOL    HW168482   2.000   9.219   4.212 -1.1682 -1.0909 -1.2080
20414SOL    HW268483   1.959   9.313   4.324  1.4636 -2.1129  0.7099
20415SOL     OW68484   3.099   5.338   1.022  0.3206  0.1841 -0.2161
20415SOL    HW168485   3.041   5.388   1.080 -0.1520 -0.8707  0.2602
20415SOL    HW268486   3.167   5.400   0.997  0.3132  0.7949  1.1610
20416SOL     OW68487   0.968   3.828   0.261  0.4241  0.1509  0.2003
20416SOL    HW168488   0.949   3.922   0.263  1.0849  0.2730  0.7982
20416SOL    HW268489   1.056   3.822   0.226  0.0011 -0.3197 -0.8303
20417SOL     OW68490  10.834  12.551   0.627  0.6147  0.1501 -0.5642
20417SOL    HW168491  10.921  12.556   0.587  0.5976 -0.1314 -0.6412
20417SOL    HW268492  10.777  12.600   0.569  0.2157 -1.7951 -1.9282
20418SOL     OW68493   5.293   6.213   2.708 -0.1279 -0.6930  0.3856
20418SOL    HW168494   5.335   6.293   2.676  0.4317 -0.7376  0.9779
20418SOL    HW268495   5.212   6.244   2.748 -0.0474 -0.4458  0.3647
20419SOL     OW68496  12.511   1.882   4.652 -0.2737  0.5488  0.5449
20419SOL    HW168497  12.479   1.967   4.681  0.0796  0.1185  2.3557
20419SOL    HW268498  12.438   1.844   4.602 -2.4333 -0.0385  3.7937
20420SOL     OW68499   0.881   4.099   2.288 -0.4665 -0.3029  0.8897
20420SOL    HW168500   0.794   4.064   2.266  0.5250 -1.9291 -0.7485
20420SOL    HW268501   0.931   4.023   2.317  0.9067  0.2956  0.1875
20421SOL     OW68502   4.037   6.118   1.549  0.6409  0.2417  0.1994
20421SOL    HW168503   3.999   6.080   1.470  2.0208  0.0134 -0.3989
20421SOL    HW268504   4.132   6.113   1.534  0.9018  1.6131  1.2041
20422SOL     OW68505  12.059   2.054   1.770 -0.3096  0.1557 -0.6973
20422SOL    HW168506  12.124   2.052   1.699 -0.1588  1.3739 -0.6179
20422SOL    HW268507  12.037   2.147   1.780 -0.7922 -0.0599  0.4332
20423SOL     OW68508  11.559  11.644  12.037 -0.9178 -0.1365 -0.4374
20423SOL    HW168509  11.478  11.690  12.059 -0.5475  0.2732  0.1080
20423SOL    HW268510  11.535  11.551  12.043 -0.7549 -0.1001  2.2966
20424SOL     OW68511  11.297  11.560   0.821  0.3960 -0.6310 -0.6652
20424SOL    HW168512  11.303  11.529   0.911 -0.3609  2.2162  0.4865
20424SOL    HW268513  11.204  11.552   0.799  0.4243 -0.4797 -0.8440
20425SOL     OW68514   4.222   4.650   8.412  0.2141 -0.3557 -0.1538
20425SOL    HW168515   4.166   4.585   8.370 -1.3252 -0.3603  1.7963
20425SOL    HW268516   4.182   4.665   8.498  1.7291  1.6078  0.2785
20426SOL     OW68517  11.214  10.918   2.908 -0.2102 -0.4282 -0.3457
20426SOL    HW168518  11.137  10.946   2.957 -0.6072 -0.0336 -1.1829
20426SOL    HW268519  11.231  10.829   2.939 -0.4969 -0.2082  0.4508
20427SOL     OW68520   4.833   4.193   0.823  0.5079  0.0408 -0.0260
20427SOL    HW168521   4.901   4.162   0.764  1.1202  0.7607  0.2861
20427SOL    HW268522   4.808   4.116   0.873 -0.6806 -0.7972 -1.8266
20428SOL     OW68523   8.932   8.894   1.202 -0.6023  0.1791  0.0780
20428SOL    HW168524   8.867   8.850   1.148 -1.9578  1.4484  0.5930
20428SOL    HW268525   8.902   8.985   1.206 -0.2666  0.2532  2.5002
20429SOL     OW68526  10.492   1.383  10.715  0.1023  0.2027  0.0446
20429SOL    HW168527  10.459   1.472  10.702 -1.1517 -0.3704 -0.9799
20429SOL    HW268528  10.498   1.347  10.627  1.7426 -0.3575  0.3639
20430SOL     OW68529  11.981  10.858   3.917  0.2256 -0.4122 -0.1932
20430SOL    HW168530  11.887  10.861   3.901  0.1384 -1.0790  0.1476
20430SOL    HW268531  11.992  10.787   3.981  0.6282  1.5124  1.9986
20431SOL     OW68532  12.687   4.942   0.580  0.4902 -0.9799  0.3076
20431SOL    HW168533  12.635   4.862   0.588  0.5466 -0.8752  2.3807
20431SOL    HW268534  12.623   5.011   0.562  0.2858 -1.2881 -0.1540
20432SOL     OW68535   4.593   5.415   1.212 -0.3338  0.3413  0.6529
20432SOL    HW168536   4.667   5.464   1.248  0.6767 -0.6696  0.0405
20432SOL    HW268537   4.556   5.472   1.145  0.1644  0.6966  0.6760
20433SOL     OW68538   6.421   2.125   3.955  0.3704 -0.3555 -0.0138
20433SOL    HW168539   6.472   2.143   4.034  1.0773 -2.2812  0.0215
20433SOL    HW268540   6.380   2.040   3.971 -1.4507  0.3152 -0.7814
20434SOL     OW68541  12.058   6.683   1.929 -0.0291 -0.3996 -0.1385
20434SOL    HW168542  12.078   6.683   2.023 -1.3239  2.0220  0.1989
20434SOL    HW268543  12.119   6.619   1.892  0.2092 -1.7652  2.3886
20435SOL     OW68544   8.566  12.398   2.155 -0.2459  0.1226 -0.7238
20435SOL    HW168545   8.479  12.420   2.189 -0.6163 -0.4098 -1.3131
20435SOL    HW268546   8.623  12.466   2.191 -1.1315  1.2779 -1.4438
20436SOL     OW68547  10.450   6.117   8.135  0.8204  0.1935 -0.5335
20436SOL    HW168548  10.424   6.094   8.225  1.4756 -1.4104 -0.7202
20436SOL    HW268549  10.520   6.182   8.147  1.7898 -0.9369  0.1869
20437SOL     OW68550  11.993   3.329   5.682  0.0503 -0.2027 -0.3706
20437SOL    HW168551  11.943   3.251   5.657 -1.5412  0.5395  0.3220
20437SOL    HW268552  12.081   3.297   5.701 -0.1181 -1.5515 -1.7367
20438SOL     OW68553  11.932   8.511   4.942 -0.2176 -1.0320  0.3448
20438SOL    HW168554  12.006   8.529   5.000 -0.5481 -0.3510  0.5655
20438SOL    HW268555  11.971   8.497   4.856  0.0608  1.5622 -0.0482
20439SOL     OW68556   9.839   6.532   8.136 -0.0600  0.1596  0.3810
20439SOL    HW168557   9.925   6.531   8.094 -0.3252 -0.0158 -0.1726
20439SOL    HW268558   9.838   6.453   8.190  0.0144 -0.0044  0.1449
20440SOL     OW68559  11.902   6.006  11.916 -0.4131 -0.2906 -0.0707
20440SOL    HW168560  11.911   6.073  11.984  1.8828 -1.8107  1.2735
20440SOL    HW268561  11.923   5.924  11.961  1.0701 -1.3887 -2.5703
20441SOL     OW68562   1.228   3.471   7.254  0.5470 -0.0104  0.2585
20441SOL    HW168563   1.232   3.514   7.339  1.4373  1.0579 -0.2991
20441SOL    HW268564   1.143   3.496   7.218  0.7426  0.6762  0.2596
20442SOL     OW68565  10.134   4.721   9.815 -0.2290  0.2655 -0.4267
20442SOL    HW168566  10.122   4.632   9.780  2.8511 -0.4782  0.0635
20442SOL    HW268567  10.105   4.715   9.906 -0.7802 -0.0191 -0.6174
20443SOL     OW68568   1.767  11.323  12.628  0.1511 -0.0128 -0.1290
20443SOL    HW168569   1.715  11.386  12.678  2.9954  2.2073  0.2901
20443SOL    HW268570   1.757  11.350  12.537 -0.1717 -0.1911 -0.1478
20444SOL     OW68571   0.760  12.496   6.737  0.6043  0.5228 -0.3303
20444SOL    HW168572   0.697  12.424   6.735  1.5130 -0.2887 -0.5134
20444SOL    HW268573   0.727  12.558   6.672 -1.3701  1.3392  1.3261
20445SOL     OW68574   6.603  12.019   3.762  0.0705 -0.1985  0.7330
20445SOL    HW168575   6.583  12.092   3.821 -2.2276  0.2132 -0.4323
20445SOL    HW268576   6.698  12.009   3.767  0.5489  3.1700  0.6518
20446SOL     OW68577   6.748   3.189   2.973 -0.0357  0.0552  0.1673
20446SOL    HW168578   6.824   3.154   2.927 -0.0042 -0.2337  0.4349
20446SOL    HW268579   6.748   3.143   3.058  1.0743  2.0104  1.2950
20447SOL     OW68580  11.232   4.322   8.463  0.1958 -0.0358  0.4708
20447SOL    HW168581  11.160   4.337   8.402 -0.0945 -0.5888  0.6703
20447SOL    HW268582  11.263   4.234   8.443  2.4980  1.0864 -1.3069
20448SOL     OW68583   6.581   6.664  10.647  0.4252 -0.0675 -0.5721
20448SOL    HW168584   6.672   6.677  10.672  0.5237 -0.7337 -0.5636
20448SOL    HW268585   6.560   6.739  10.592  0.7522  0.4775  0.0320
20449SOL     OW68586   8.266   1.463   7.922  0.6441  0.2189  0.0287
20449SOL    HW168587   8.257   1.450   8.016 -1.5565  2.2342  0.1979
20449SOL    HW268588   8.222   1.387   7.883 -0.1638  0.3458  0.6751
20450SOL     OW68589   1.635   7.656  12.649 -0.2619  0.1455 -0.2295
20450SOL    HW168590   1.658   7.698  12.567  1.8024  1.0778  0.7363
20450SOL    HW268591   1.548   7.690  12.671 -0.7591  0.0106 -1.8991
20451SOL     OW68592   1.788  10.342  11.556  0.4108 -0.4205 -0.7170
20451SOL    HW168593   1.744  10.258  11.566 -0.7345  0.3148  0.7461
20451SOL    HW268594   1.841  10.352  11.635  0.1386  0.4557 -0.6314
20452SOL     OW68595   7.264   2.720   5.592  0.3238  0.6187  0.1981
20452SOL    HW168596   7.351   2.722   5.631  0.2928 -0.4948  0.3649
20452SOL    HW268597   7.274   2.760   5.506  0.7061  1.7452  0.7459
20453SOL     OW68598   0.559   7.275   6.930  0.4163 -0.0172  0.4457
20453SOL    HW168599   0.604   7.192   6.941  0.9328  0.2066  0.0674
20453SOL    HW268600   0.629   7.337   6.907  0.1371  0.6505  1.3399
20454SOL     OW68601   3.711   2.247  11.922  0.1947 -0.2275  0.0559
20454SOL    HW168602   3.703   2.181  11.992  2.1880 -0.9955 -0.3646
20454SOL    HW268603   3.788   2.298  11.946 -1.2556  1.9902  0.3194
20455SOL     OW68604  11.149   1.720  10.863  0.2996  0.1670 -0.1662
20455SOL    HW168605  11.093   1.696  10.789  0.1868 -0.6579  0.1772
20455SOL    HW268606  11.175   1.636  10.902 -1.3538  0.5694  2.0002
20456SOL     OW68607   5.510   9.998   4.844  0.3359 -0.0192  0.1408
20456SOL    HW168608   5.568  10.042   4.782 -1.3535 -0.5248 -1.9014
20456SOL    HW268609   5.502   9.908   4.811 -0.5113 -0.3523  1.1750
20457SOL     OW68610   1.015  10.675   0.954 -0.3282  0.0837 -0.0706
20457SOL    HW168611   0.985  10.605   0.896  2.0392  0.2427 -1.6081
20457SOL    HW268612   0.935  10.724   0.974 -1.8160 -2.1351 -0.1549
20458SOL     OW68613   8.392   5.800   8.861  0.0751  0.5981 -0.7267
20458SOL    HW168614   8.376   5.815   8.768 -0.3621  0.2922 -0.7037
20458SOL    HW268615   8.487   5.790   8.868  0.1192  0.7338 -1.1221
20459SOL     OW68616   3.532   4.182   3.032  0.0669  0.1448  0.4147
20459SOL    HW168617   3.475   4.106   3.025  0.5760 -0.2878  0.8508
20459SOL    HW268618   3.482   4.254   2.994 -0.3327 -0.4552 -0.2113
20460SOL     OW68619   5.110   6.864  12.700  0.2887 -0.1090  0.2940
20460SOL    HW168620   5.049   6.928  12.735  0.5423  0.4309 -0.2395
20460SOL    HW268621   5.193   6.883  12.744  0.1766 -0.5684  0.7058
20461SOL     OW68622   3.887   5.273   1.720 -0.9656  0.4722 -1.0170
20461SOL    HW168623   3.892   5.185   1.758 -0.9448  0.5356 -0.8709
20461SOL    HW268624   3.972   5.286   1.677 -0.5984  0.7925 -0.2160
20462SOL     OW68625   8.922   9.170   7.276 -0.4848 -0.5406 -0.2012
20462SOL    HW168626   8.931   9.107   7.204 -0.6056 -2.4881  1.3964
20462SOL    HW268627   9.011   9.196   7.296 -0.2001 -2.0892  0.6691
20463SOL     OW68628   6.267  11.561   5.020  0.6268  0.2144  0.4937
20463SOL    HW168629   6.213  11.483   5.029  0.8041 -0.2907 -1.9815
20463SOL    HW268630   6.312  11.570   5.104 -1.0863 -1.0170  1.5998
20464SOL     OW68631   6.950   2.786   2.911  0.0290 -0.1436  0.4256
20464SOL    HW168632   6.892   2.746   2.847  0.6882 -1.0419  0.3696
20464SOL    HW268633   7.038   2.754   2.888  0.5664  1.2120  0.4789
20465SOL     OW68634   5.793   7.086   4.929  0.2686  0.7178 -0.0075
20465SOL    HW168635   5.766   7.013   4.872 -1.6054  0.3633  1.2580
20465SOL    HW268636   5.807   7.159   4.868 -1.7933  0.3908 -0.9966
20466SOL     OW68637   1.245  12.274   5.733 -0.2522  0.0476 -0.0956
20466SOL    HW168638   1.208  12.361   5.716 -0.7010 -0.2030 -0.4085
20466SOL    HW268639   1.334  12.279   5.697 -0.0796  0.5503  0.3813
20467SOL     OW68640   0.356   2.506   5.757  0.1308  0.2940  0.1463
20467SOL    HW168641   0.353   2.466   5.670 -0.4962 -1.1805  0.8002
20467SOL    HW268642   0.448   2.500   5.783  0.9345  3.4949 -1.5669
20468SOL     OW68643   0.962   6.927   7.980 -0.6358 -0.6395  0.2213
20468SOL    HW168644   1.053   6.946   7.998 -0.0015 -2.1642 -1.1085
20468SOL    HW268645   0.915   7.008   8.000  0.9088 -0.0362  1.5170
20469SOL     OW68646   2.157   7.247  11.550  0.9402  0.0832 -0.4325
20469SOL    HW168647   2.234   7.241  11.493  0.1075 -0.4381 -1.5593
20469SOL    HW268648   2.096   7.304  11.503  0.4010  0.0031  0.1495
20470SOL     OW68649  11.534   8.846   9.575  0.4710 -0.5144  0.1122
20470SOL    HW168650  11.528   8.792   9.496  2.3055  1.6375 -1.6408
20470SOL    HW268651  11.492   8.929   9.550  1.0249  0.1914  1.4415
20471SOL     OW68652   7.565   1.008   9.684  0.2245  0.2613  0.8617
20471SOL    HW168653   7.517   0.976   9.607 -0.9526 -0.3625  1.8249
20471SOL    HW268654   7.658   0.998   9.661 -0.1139 -0.3550 -0.2825
20472SOL     OW68655  12.572   1.018   7.716 -0.0587 -0.5630  0.2963
20472SOL    HW168656  12.653   0.986   7.755  0.9057 -0.3144 -1.4123
20472SOL    HW268657  12.566   0.973   7.632 -1.3850 -0.1243  0.1322
20473SOL     OW68658  12.541  11.459   2.470 -0.0190  0.0178  0.2920
20473SOL    HW168659  12.612  11.449   2.407  0.1660  1.1200  0.3098
20473SOL    HW268660  12.527  11.554   2.476 -2.5937 -0.2046 -0.9183
20474SOL     OW68661  12.424   1.507   7.432  0.1982 -0.3022  0.3959
20474SOL    HW168662  12.386   1.528   7.347  2.5087  2.3931 -0.1197
20474SOL    HW268663  12.378   1.564   7.494  2.0678  1.8079  0.0001
20475SOL     OW68664   8.060  12.031   2.963 -0.1482 -0.4942 -0.2202
20475SOL    HW168665   8.017  11.947   2.950 -1.5900  0.1059  0.4671
20475SOL    HW268666   8.002  12.095   2.922  0.0585  0.3458  0.7512
20476SOL     OW68667   3.563  10.761   3.957  0.7009  0.2047  0.3339
20476SOL    HW168668   3.527  10.850   3.962 -0.0082 -0.1218  1.4582
20476SOL    HW268669   3.581  10.737   4.048 -1.7562 -1.8251  0.4025
20477SOL     OW68670   0.020  12.217   1.416  0.6154 -0.6941  0.1251
20477SOL    HW168671   0.013  12.310   1.439 -0.1737  0.1261 -2.9540
20477SOL    HW268672   0.114  12.202   1.407  0.6931  0.4332 -1.3721
20478SOL     OW68673   6.972   9.744   4.146  0.1013  0.2804 -0.1015
20478SOL    HW168674   7.039   9.757   4.213  0.5937 -1.7453 -0.1561
20478SOL    HW268675   6.891   9.774   4.188  0.5440 -0.1356  1.1053
20479SOL     OW68676   8.086  10.356   3.905  0.5810 -0.6981  0.1145
20479SOL    HW168677   8.074  10.389   3.994 -1.1766 -0.7610 -0.0567
20479SOL    HW268678   8.010  10.299   3.890  0.1706  0.2685 -1.8371
20480SOL     OW68679   0.136   4.736   3.907  0.2695 -0.4682  0.1295
20480SOL    HW168680   0.126   4.641   3.918 -0.2464 -0.3551  0.7085
20480SOL    HW268681   0.072   4.774   3.968 -1.1726  0.2368 -1.7044
20481SOL     OW68682   8.603   2.148   2.871 -0.0525 -0.1956  0.3154
20481SOL    HW168683   8.641   2.060   2.865  1.8740  0.6094  0.2688
20481SOL    HW268684   8.668   2.200   2.918 -0.6750  1.4820 -0.6048
20482SOL     OW68685   4.703   7.079   1.114  0.0888 -0.2909 -0.2809
20482SOL    HW168686   4.614   7.088   1.080  0.2412  2.9703 -0.1682
20482SOL    HW268687   4.757   7.130   1.053  1.6014 -0.7644  0.5979
20483SOL     OW68688   9.731   8.639   5.799 -0.0143 -0.2945 -0.7358
20483SOL    HW168689   9.700   8.550   5.813 -2.0939 -0.2098 -3.7635
20483SOL    HW268690   9.792   8.631   5.725 -0.2853  0.7532 -1.0919
20484SOL     OW68691  10.913   4.734   9.888  0.1256  0.1594  0.2298
20484SOL    HW168692  10.858   4.812   9.880  0.7454  0.5463 -0.5031
20484SOL    HW268693  10.985   4.751   9.827  0.0648 -1.1604 -0.2282
20485SOL     OW68694   9.543   2.968   1.133 -0.7386 -0.4795  0.3427
20485SOL    HW168695   9.533   3.013   1.050  0.1623  0.1676  0.5715
20485SOL    HW268696   9.538   3.037   1.199 -0.8062 -0.9036  0.7862
20486SOL     OW68697   4.290   2.404  11.329 -0.4326  0.0614  0.3855
20486SOL    HW168698   4.338   2.346  11.388 -0.3933 -0.8475 -0.5150
20486SOL    HW268699   4.260   2.476  11.385  0.7775 -0.0638  1.2401
20487SOL     OW68700   6.881   5.501   8.685 -0.0247 -0.1642 -0.2526
20487SOL    HW168701   6.819   5.573   8.670 -0.1384 -0.0354  0.7097
20487SOL    HW268702   6.872   5.482   8.779  1.3478 -0.1889 -0.1101
20488SOL     OW68703   1.316   2.387   4.497  0.2382  0.3795 -0.3424
20488SOL    HW168704   1.371   2.325   4.449 -1.2984 -0.9496 -0.4892
20488SOL    HW268705   1.227   2.353   4.487 -0.3415  0.9574  2.0854
20489SOL     OW68706   2.260   0.594   0.083  0.3551  0.8247  0.1775
20489SOL    HW168707   2.276   0.507   0.045  1.4554  1.6561 -1.3963
20489SOL    HW268708   2.280   0.655   0.012  0.0682  2.3957  1.3912
20490SOL     OW68709   3.109   4.863  11.909 -0.3644  0.4158 -0.1405
20490SOL    HW168710   3.164   4.804  11.960 -1.7941  0.5680  1.6847
20490SOL    HW268711   3.152   4.869  11.824  2.3365  0.4042  1.1187
20491SOL     OW68712   7.824  11.733  11.787  0.3255 -0.4539  0.0696
20491SOL    HW168713   7.906  11.781  11.783 -0.1661  0.3266 -1.1106
20491SOL    HW268714   7.786  11.741  11.699 -1.1301 -0.5631  0.6464
20492SOL     OW68715   0.544  12.631   5.796  0.1813  0.6163 -0.1907
20492SOL    HW168716   0.466  12.683   5.781  1.0331  1.3647 -2.3706
20492SOL    HW268717   0.536  12.602   5.887 -1.9132  1.8226  0.0739
20493SOL     OW68718   0.246  11.467  10.671 -1.0732 -0.0577 -0.8598
20493SOL    HW168719   0.328  11.419  10.667 -0.2279  1.3848 -1.5111
20493SOL    HW268720   0.223  11.483  10.579 -1.6446  0.2708 -0.6651
20494SOL     OW68721   2.872   0.657   1.716  0.0254  0.0463  0.1749
20494SOL    HW168722   2.862   0.741   1.671 -1.5195  0.1151  0.6042
20494SOL    HW268723   2.869   0.679   1.809 -1.7025 -0.5853  0.3053
20495SOL     OW68724  11.515   2.341   5.456  0.4351 -0.3506  0.6200
20495SOL    HW168725  11.432   2.354   5.410 -0.0481  2.9979  2.1372
20495SOL    HW268726  11.569   2.291   5.395 -0.4656  2.9046 -3.2967
20496SOL     OW68727   7.506   2.329  12.360  0.2904  0.3736  0.2069
20496SOL    HW168728   7.496   2.355  12.268 -0.2199 -0.6249 -0.0303
20496SOL    HW268729   7.513   2.412  12.408  0.3337  0.9066 -0.7057
20497SOL     OW68730   3.427   0.611   4.029 -0.2814  0.4667 -0.0717
20497SOL    HW168731   3.451   0.518   4.022  0.7880  0.7246  0.0310
20497SOL    HW268732   3.510   0.658   4.021 -0.5725  1.3496  1.7292
20498SOL     OW68733   4.581  11.955   9.228  0.6117  0.2056 -0.5323
20498SOL    HW168734   4.587  11.859   9.226  1.0300  0.2353 -1.9355
20498SOL    HW268735   4.662  11.982   9.272 -0.5723 -0.1138  2.0060
20499SOL     OW68736  11.146   4.458   5.279 -0.1579 -0.2767 -0.1137
20499SOL    HW168737  11.153   4.434   5.187 -0.7214 -0.4796 -0.1072
20499SOL    HW268738  11.056   4.488   5.289 -0.4080 -1.2150  0.5874
20500SOL     OW68739   3.217   4.379   0.364  0.5713 -0.4976  0.1104
20500SOL    HW168740   3.142   4.439   0.359  0.1542 -0.9542  0.7774
20500SOL    HW268741   3.182   4.294   0.337  0.3150 -1.1651  2.2900
20501SOL     OW68742   8.022  11.564  11.265  0.6012 -0.0470 -0.1433
20501SOL    HW168743   8.091  11.585  11.327  2.1410  0.4533 -1.9176
20501SOL    HW268744   8.049  11.606  11.183 -0.9003 -1.3378 -1.3883
20502SOL     OW68745   6.787  10.047   2.714  1.0983  0.6410 -0.4874
20502SOL    HW168746   6.821  10.080   2.631 -0.5019 -1.0605 -1.8892
20502SOL    HW268747   6.694  10.068   2.712  0.9718  0.2681  0.7248
20503SOL     OW68748   1.879   3.942   5.498  0.2665 -0.1486  0.3176
20503SOL    HW168749   1.851   4.022   5.453  0.6426 -0.8018 -1.1635
20503SOL    HW268750   1.968   3.927   5.465  0.3783 -0.9088  0.9455
20504SOL     OW68751   4.648   4.800   6.575  0.2485 -0.7588 -0.1405
20504SOL    HW168752   4.627   4.714   6.613 -0.1499 -0.9403 -0.7456
20504SOL    HW268753   4.741   4.795   6.555  0.5761 -0.4774  1.2610
20505SOL     OW68754   4.382   3.054   9.929 -0.0427 -0.8264 -0.5901
20505SOL    HW168755   4.361   3.076  10.020  1.3426  1.4846 -0.7535
20505SOL    HW268756   4.435   2.975   9.936  2.4049  0.7710  0.9783
20506SOL     OW68757  11.733   4.309  10.362 -0.3112  0.1175 -0.5456
20506SOL    HW168758  11.736   4.248  10.435  1.4793 -1.4035 -1.8022
20506SOL    HW268759  11.810   4.366  10.374  0.3592 -0.5458 -1.5307
20507SOL     OW68760   6.688   8.827   8.439  0.4790  0.1912  0.7056
20507SOL    HW168761   6.770   8.875   8.445  0.3176  0.3239  2.6214
20507SOL    HW268762   6.710   8.747   8.391  0.9226  1.7472 -1.8078
20508SOL     OW68763  12.241  11.222  11.344 -0.4108 -0.1879  0.2268
20508SOL    HW168764  12.291  11.302  11.328  1.4309 -1.2753  0.3366
20508SOL    HW268765  12.209  11.232  11.434  0.7449 -0.0436  0.6370
20509SOL     OW68766   8.698   5.282   8.231 -0.0526 -1.0644  0.1775
20509SOL    HW168767   8.631   5.341   8.268  1.1961  0.9473 -0.5810
20509SOL    HW268768   8.757   5.265   8.304  0.0620 -0.6283  0.1932
20510SOL     OW68769   6.056   0.754   2.925 -0.1370 -0.5232 -0.4397
20510SOL    HW168770   6.145   0.721   2.919  0.1467  0.2514 -0.5181
20510SOL    HW268771   6.022   0.749   2.836  0.2846  0.4390 -0.6616
20511SOL     OW68772   8.248  12.223   9.913  0.7821  0.2348  0.6377
20511SOL    HW168773   8.207  12.309   9.912 -0.2480 -0.2065  2.1443
20511SOL    HW268774   8.220  12.182   9.831  2.2152  1.7085 -0.6529
20512SOL     OW68775  12.400   0.077   8.357  0.1303  0.3880  0.2259
20512SOL    HW168776  12.363   0.106   8.274  0.9643  1.5018  0.2197
20512SOL    HW268777  12.331   0.093   8.422  0.2480  1.5567  0.0766
20513SOL     OW68778   8.738   8.431   4.472  0.0078  0.1918  0.0519
20513SOL    HW168779   8.819   8.403   4.430 -0.8948 -0.7930 -1.0997
20513SOL    HW268780   8.753   8.413   4.565  0.7803 -0.8197 -0.2487
20514SOL     OW68781   4.971  11.231   3.732  0.6683 -0.0144  0.4304
20514SOL    HW168782   4.944  11.309   3.683 -1.4120 -0.3947  0.8536
20514SOL    HW268783   5.010  11.173   3.666 -0.4713  0.2085 -0.4789
20515SOL     OW68784   7.620   5.179   2.984 -0.0652 -0.7234 -0.1862
20515SOL    HW168785   7.531   5.165   3.017 -0.5329  0.4735 -0.8443
20515SOL    HW268786   7.664   5.229   3.053 -1.5420  3.2256 -1.8126
20516SOL     OW68787   9.817   0.546   4.159 -0.7839 -0.0046 -0.0898
20516SOL    HW168788   9.868   0.553   4.079  0.1408  1.7328  0.5889
20516SOL    HW268789   9.846   0.464   4.199 -0.1121 -0.1208 -0.7875
20517SOL     OW68790   2.364   4.156   8.716  0.5145 -0.0872 -0.0584
20517SOL    HW168791   2.304   4.209   8.664  0.0751 -0.3767  0.1456
20517SOL    HW268792   2.395   4.214   8.786  0.3730  0.0255 -0.0908
20518SOL     OW68793   7.638  11.230   4.955  0.4642 -0.1536  0.1538
20518SOL    HW168794   7.646  11.321   4.982 -2.3263 -0.3316  2.0603
20518SOL    HW268795   7.592  11.234   4.871  0.5715  0.1837  0.1093
20519SOL     OW68796   5.700  10.473   5.469 -0.3639  0.2578  0.1246
20519SOL    HW168797   5.781  10.431   5.438 -0.5760  0.0365 -0.1407
20519SOL    HW268798   5.712  10.480   5.564  0.1305  0.5870  0.0416
20520SOL     OW68799   9.580   4.395   2.904 -0.6425 -0.3462 -0.3058
20520SOL    HW168800   9.589   4.432   2.816 -0.0092  1.4159  0.4633
20520SOL    HW268801   9.595   4.301   2.892  0.8591  0.0441 -1.8628
20521SOL     OW68802   4.349  12.451   3.251  0.2289 -0.2030  0.7796
20521SOL    HW168803   4.283  12.486   3.191  2.2453  1.4396 -0.6219
20521SOL    HW268804   4.349  12.357   3.236 -0.4191  0.0054 -0.6377
20522SOL     OW68805   5.750   7.045  10.268 -0.2495 -0.2539 -0.1529
20522SOL    HW168806   5.702   7.046  10.351  1.5366  1.2808  0.9589
20522SOL    HW268807   5.803   6.965  10.271 -0.5611 -0.4592 -0.0653
20523SOL     OW68808   2.722   2.997   6.752  0.0050 -0.2589 -0.4578
20523SOL    HW168809   2.700   2.941   6.677 -0.1915  0.4314 -0.9224
20523SOL    HW268810   2.643   3.050   6.766  0.1454 -0.1819  0.0571
20524SOL     OW68811   4.814   4.909  11.648 -0.5759 -0.0035 -0.1840
20524SOL    HW168812   4.880   4.869  11.705 -0.5262  1.2200  0.6529
20524SOL    HW268813   4.819   4.858  11.567  0.5777 -0.6759  0.2799
20525SOL     OW68814   9.733  12.318   0.173 -0.0213 -0.2105  0.2181
20525SOL    HW168815   9.722  12.309   0.078 -1.5787  0.4498  0.3101
20525SOL    HW268816   9.690  12.241   0.210 -1.3012  0.5773  0.4414
20526SOL     OW68817   0.566   6.890   5.931  0.4446 -0.6138 -0.2538
20526SOL    HW168818   0.512   6.941   5.992  2.7436  0.6838  0.8215
20526SOL    HW268819   0.600   6.818   5.983 -0.5445 -1.6946 -1.0498
20527SOL     OW68820   5.194   4.278   0.330 -0.6046 -0.4260  0.2028
20527SOL    HW168821   5.199   4.312   0.240 -0.3503  0.4071  0.5307
20527SOL    HW268822   5.112   4.228   0.331 -1.5897  1.1218  0.0307
20528SOL     OW68823   4.415  10.256   6.939  0.0163  0.1405 -0.1213
20528SOL    HW168824   4.386  10.222   7.024 -0.8759  0.7584 -0.1656
20528SOL    HW268825   4.341  10.241   6.880  0.1315  0.8952 -0.4736
20529SOL     OW68826   2.182   1.544   1.869  0.4923 -0.0273 -0.5237
20529SOL    HW168827   2.190   1.499   1.954 -0.3385 -0.2970 -0.5798
20529SOL    HW268828   2.100   1.512   1.833 -0.1961  1.6245 -0.5184
20530SOL     OW68829  12.598  10.220   2.089  0.0788 -0.3327  0.5669
20530SOL    HW168830  12.645  10.264   2.160  1.2839 -0.0434 -0.3604
20530SOL    HW268831  12.551  10.290   2.044  0.1939 -0.3416  0.4316
20531SOL     OW68832   4.344   1.047   6.462 -0.5158 -0.2138  0.5995
20531SOL    HW168833   4.377   0.961   6.437 -2.4543 -1.1685  1.1356
20531SOL    HW268834   4.258   1.030   6.501 -0.8120  1.9353  1.0436
20532SOL     OW68835  12.472  11.142   1.137 -0.3531 -0.1291  0.3009
20532SOL    HW168836  12.446  11.234   1.125 -1.1810 -0.3661  0.2363
20532SOL    HW268837  12.540  11.145   1.205 -0.4244  0.5270  0.3478
20533SOL     OW68838  12.296  11.446   8.924  0.2089  0.0504 -0.2614
20533SOL    HW168839  12.214  11.464   8.970  1.0981  0.6536  1.1759
20533SOL    HW268840  12.290  11.497   8.844 -0.3574  1.0188  0.3732
20534SOL     OW68841   6.814   5.193   9.353  0.4904  0.0329  0.6279
20534SOL    HW168842   6.867   5.271   9.365  0.2464  0.1723  0.8153
20534SOL    HW268843   6.726   5.220   9.379  0.1998 -0.0212 -0.2579
20535SOL     OW68844   6.375  12.524   0.667  0.6832 -0.5239 -0.1037
20535SOL    HW168845   6.307  12.580   0.702  0.0548 -1.5049  0.2977
20535SOL    HW268846   6.455  12.550   0.714  1.0110  1.7860 -1.7677
20536SOL     OW68847   3.121  11.201   6.183 -0.0515  0.4012  0.2401
20536SOL    HW168848   3.029  11.201   6.211 -0.0853 -1.2038  0.2240
20536SOL    HW268849   3.119  11.235   6.093 -0.7460 -0.3314 -0.0375
20537SOL     OW68850   1.497   0.853   0.631 -0.0623 -0.1163 -0.3494
20537SOL    HW168851   1.521   0.935   0.674 -0.0945 -0.2639 -0.0470
20537SOL    HW268852   1.577   0.823   0.589 -0.3095  0.6204 -1.3760
20538SOL     OW68853   3.139   2.727   8.832 -0.1084  0.0336 -0.0453
20538SOL    HW168854   3.132   2.744   8.738  0.4128  1.3697  0.1321
20538SOL    HW268855   3.216   2.670   8.840  1.1581  1.6590 -0.2670
20539SOL     OW68856   6.383   3.230   3.265  0.0900  0.7846 -0.2120
20539SOL    HW168857   6.323   3.213   3.192  0.7467  0.6240 -0.7143
20539SOL    HW268858   6.340   3.189   3.340 -0.9515  1.5881 -0.3466
20540SOL     OW68859  11.690   8.846   5.816 -0.5517 -0.4457  0.2624
20540SOL    HW168860  11.710   8.770   5.871  1.4296 -0.1657  0.0153
20540SOL    HW268861  11.772   8.895   5.813 -0.7173 -0.1789 -2.5406
20541SOL     OW68862   1.733   5.235   3.663  0.2723 -0.4757  0.2795
20541SOL    HW168863   1.689   5.150   3.667 -1.8335  0.5581 -0.1209
20541SOL    HW268864   1.752   5.248   3.570 -1.6419  0.5364 -0.0174
20542SOL     OW68865  12.564   5.169   3.754 -0.0006 -0.0418  0.7863
20542SOL    HW168866  12.657   5.173   3.776 -0.3391  1.4728  2.1093
20542SOL    HW268867  12.530   5.095   3.803  0.7271 -1.4628 -0.7582
20543SOL     OW68868   7.160  12.625   6.423 -0.2696 -0.3870 -0.1847
20543SOL    HW168869   7.209  12.703   6.452  0.4521 -0.6837 -0.5816
20543SOL    HW268870   7.073  12.636   6.462 -0.1115  0.5133 -0.0578
20544SOL     OW68871  10.565   0.894   0.367  0.3799 -0.1207 -0.2967
20544SOL    HW168872  10.651   0.931   0.348  0.7883 -1.2754 -0.7202
20544SOL    HW268873  10.581   0.828   0.434 -0.4829  1.0573  1.1482
20545SOL     OW68874   1.101   4.759   1.540  0.0464 -0.0848  0.4154
20545SOL    HW168875   1.117   4.680   1.488  0.3056  0.4045 -0.2682
20545SOL    HW268876   1.091   4.728   1.630  1.8774 -0.7214  0.4399
20546SOL     OW68877   0.886  10.460   5.738  0.0149  0.8257  0.4981
20546SOL    HW168878   0.846  10.526   5.794 -1.1341 -0.4146  1.1826
20546SOL    HW268879   0.925  10.511   5.666  0.5337  2.3584  1.7800
20547SOL     OW68880   8.337   9.600  12.122  0.0094 -0.4760 -0.2851
20547SOL    HW168881   8.270   9.532  12.121 -0.0692 -0.4390  1.0647
20547SOL    HW268882   8.315   9.657  12.048 -1.4027 -0.4958  0.0956
20548SOL     OW68883   0.010   3.879   7.658  0.1454  0.0627 -0.2843
20548SOL    HW168884  -0.031   3.793   7.658  2.2171 -0.9901  0.1123
20548SOL    HW268885  -0.024   3.923   7.580 -0.4785 -1.3435 -0.8278
20549SOL     OW68886   9.911   3.215   9.844  0.2883 -0.6802 -0.2426
20549SOL    HW168887   9.907   3.120   9.848  1.3454 -0.6973  1.4221
20549SOL    HW268888   9.917   3.243   9.935  1.2545  0.9071 -0.7443
20550SOL     OW68889  11.022   2.356   1.487  0.0235 -0.1104  0.3139
20550SOL    HW168890  11.054   2.441   1.517  1.2371 -1.0540  1.7959
20550SOL    HW268891  11.037   2.357   1.392  1.0040  0.9133  0.4618
20551SOL     OW68892   0.931   2.963   6.993  0.5329  0.1865  0.2353
20551SOL    HW168893   0.924   3.039   6.934  1.1384 -1.0524 -1.5260
20551SOL    HW268894   1.019   2.971   7.031  0.8107  0.0997 -0.3715
20552SOL     OW68895  10.361  11.170  12.638  0.0415 -0.4582  0.1939
20552SOL    HW168896  10.340  11.170  12.731 -1.3402  1.3132 -0.0765
20552SOL    HW268897  10.402  11.255  12.623 -0.9238 -0.1932 -1.0478
20553SOL     OW68898   6.535   0.304   8.212 -0.1069 -0.5580 -0.1353
20553SOL    HW168899   6.439   0.310   8.210 -0.3205 -2.5003  1.7234
20553SOL    HW268900   6.564   0.394   8.196 -2.2008  0.0084 -1.1504
20554SOL     OW68901   4.848   8.465   9.584 -0.2185 -0.0140  0.2331
20554SOL    HW168902   4.865   8.371   9.578 -0.4922 -0.0134 -0.7710
20554SOL    HW268903   4.754   8.474   9.567 -0.1625  0.4594  0.1563
20555SOL     OW68904   7.813   3.078   6.466  0.0887  0.0460  0.0404
20555SOL    HW168905   7.806   3.149   6.402 -0.2235  0.9608  1.0609
20555SOL    HW268906   7.852   3.006   6.417  0.5557  0.9634 -0.9900
20556SOL     OW68907   7.745   9.605   3.519  0.2780  0.3672 -0.0753
20556SOL    HW168908   7.652   9.626   3.517  0.4422  1.2654  0.8351
20556SOL    HW268909   7.754   9.543   3.592  0.6310  1.7530  1.1288
20557SOL     OW68910   5.348   2.314   4.786  0.5073  0.4019  0.0164
20557SOL    HW168911   5.398   2.259   4.847  0.3943  0.4848  0.1861
20557SOL    HW268912   5.381   2.403   4.803  0.1133  0.4941  0.3233
20558SOL     OW68913   0.562   5.739   8.279 -0.2873  0.1074  0.3661
20558SOL    HW168914   0.500   5.692   8.334 -0.7597 -0.9241 -0.9994
20558SOL    HW268915   0.602   5.672   8.224  0.6217  1.0224 -0.1371
20559SOL     OW68916   0.478   0.749   2.738 -0.5591 -0.2254 -0.3465
20559SOL    HW168917   0.463   0.658   2.713  1.7310 -0.0892 -2.5846
20559SOL    HW268918   0.401   0.773   2.790 -2.0884 -2.8660 -1.2287
20560SOL     OW68919   8.404   7.912   5.898  0.1834  0.1817  0.0846
20560SOL    HW168920   8.340   7.930   5.967 -1.0156 -0.9560 -0.6641
20560SOL    HW268921   8.403   7.816   5.889  0.5076  0.2873 -1.3078
20561SOL     OW68922  11.771   9.805   6.024  0.0128 -0.3381  0.1065
20561SOL    HW168923  11.724   9.877   6.067  0.7748  0.8177 -0.9402
20561SOL    HW268924  11.810   9.756   6.097 -0.5867  0.2427  0.8473
20562SOL     OW68925   9.745   1.618   4.482 -0.8934 -0.2635 -0.6115
20562SOL    HW168926   9.708   1.698   4.443 -1.3940 -0.0556  0.2679
20562SOL    HW268927   9.819   1.649   4.534  0.1796 -0.6134 -1.8805
20563SOL     OW68928   1.341   9.042   0.854  0.4681  0.0154  0.2431
20563SOL    HW168929   1.300   8.957   0.838  1.3544 -0.2202 -0.8796
20563SOL    HW268930   1.418   9.022   0.907  0.6564  0.1283  0.0109
20564SOL     OW68931   0.167  11.206   0.460  0.1820  0.3323  0.0249
20564SOL    HW168932   0.187  11.187   0.551  0.6775  1.9061  0.2832
20564SOL    HW268933   0.071  11.199   0.455 -0.0166  1.7691  1.0871
20565SOL     OW68934   0.627   7.430   4.913 -0.1453 -0.4599  0.3852
20565SOL    HW168935   0.653   7.475   4.993 -0.4992 -1.3696  1.0362
20565SOL    HW268936   0.594   7.345   4.943  1.1434 -1.4418 -0.8539
20566SOL     OW68937   5.290   9.355  11.550 -0.2939 -0.2074  0.5564
20566SOL    HW168938   5.380   9.356  11.582 -0.2015  1.0077  0.3325
20566SOL    HW268939   5.250   9.279  11.592  0.8218 -0.7363  0.6928
20567SOL     OW68940   0.485   3.817   1.251 -0.0502 -0.4350  0.1420
20567SOL    HW168941   0.492   3.831   1.346 -2.1384  1.2176  0.1269
20567SOL    HW268942   0.533   3.891   1.213  0.1267 -0.6734 -0.0998
20568SOL     OW68943   7.429   5.453   3.506 -0.6260  0.0764  0.3698
20568SOL    HW168944   7.420   5.405   3.424 -0.5655  0.0787  0.3614
20568SOL    HW268945   7.504   5.511   3.492 -0.5863  0.0433  0.4429
20569SOL     OW68946  11.475   8.208   2.213 -0.1650 -0.5632  0.2699
20569SOL    HW168947  11.392   8.241   2.179  0.8698  2.2479  0.1991
20569SOL    HW268948  11.485   8.250   2.298  1.3298 -0.6023  0.1452
20570SOL     OW68949   3.419  12.588   8.978 -0.0884  0.3432 -0.0907
20570SOL    HW168950   3.497  12.582   8.924  0.7114 -0.9186  1.1495
20570SOL    HW268951   3.411  12.682   8.998  0.7848  0.5506 -0.6794
20571SOL     OW68952   7.472  10.998   3.708 -0.3508  0.2225 -0.2309
20571SOL    HW168953   7.531  10.928   3.735  1.0794  0.9607 -1.2775
20571SOL    HW268954   7.413  11.011   3.782  0.8417 -0.5219  0.8766
20572SOL     OW68955   4.585  12.301   3.612  0.3401  0.1007  0.3046
20572SOL    HW168956   4.496  12.297   3.648 -0.5887  2.5019 -1.4683
20572SOL    HW268957   4.639  12.337   3.682 -0.3565 -0.1173  0.9609
20573SOL     OW68958   4.447   3.232   3.052 -0.3867  0.1343  0.0270
20573SOL    HW168959   4.467   3.142   3.075  0.2069  0.1242 -0.5367
20573SOL    HW268960   4.365   3.227   3.003 -0.7691 -0.0129  0.6664
20574SOL     OW68961   8.599   4.049   4.703  0.1420 -0.1062  0.3420
20574SOL    HW168962   8.588   4.127   4.757  1.0581 -0.4542  1.0547
20574SOL    HW268963   8.541   3.984   4.743  1.9735 -0.8633  1.9650
20575SOL     OW68964   9.609   7.693   8.528 -0.1689 -0.7358  0.1542
20575SOL    HW168965   9.701   7.671   8.517  0.5881  1.2685  1.9483
20575SOL    HW268966   9.576   7.628   8.590  0.4840 -0.4606  0.8048
20576SOL     OW68967   6.903   8.603  10.871 -0.4277 -0.4317  0.1014
20576SOL    HW168968   6.997   8.615  10.881 -0.6135 -0.7370  2.8247
20576SOL    HW268969   6.865   8.689  10.888 -0.6422  0.2276 -3.0458
20577SOL     OW68970   6.666   7.246   1.924 -0.3024 -0.2505  0.2171
20577SOL    HW168971   6.580   7.212   1.900 -0.3111 -2.9764  3.3168
20577SOL    HW268972   6.725   7.214   1.856 -1.3169 -0.7411 -0.4564
20578SOL     OW68973   5.703   5.206   7.916  0.1578  0.1769 -0.7190
20578SOL    HW168974   5.763   5.143   7.876  0.6962  1.1862 -1.5603
20578SOL    HW268975   5.673   5.259   7.843 -3.4813 -1.5978 -0.7144
20579SOL     OW68976  11.041   2.839   2.394  0.1648 -0.0512  0.1761
20579SOL    HW168977  11.042   2.835   2.490 -0.8563  0.6015  0.2251
20579SOL    HW268978  11.047   2.747   2.366  0.9164 -0.2143  0.8527
20580SOL     OW68979   8.642   5.779   5.962  0.0475 -0.2817 -0.1590
20580SOL    HW168980   8.712   5.753   6.023 -0.0801 -0.8679 -0.2526
20580SOL    HW268981   8.652   5.719   5.888 -0.9285 -0.7706  0.0934
20581SOL     OW68982  10.641   9.620   3.119 -0.2893  0.6328  0.5416
20581SOL    HW168983  10.549   9.608   3.098  0.1228 -1.6673 -0.2595
20581SOL    HW268984  10.677   9.669   3.045 -0.4201 -0.5523 -0.3325
20582SOL     OW68985   3.267   2.608   1.022  0.1930 -0.1586  0.3099
20582SOL    HW168986   3.183   2.595   1.066  1.1235 -0.5949  2.0449
20582SOL    HW268987   3.304   2.686   1.063  1.7647 -1.4479  1.4580
20583SOL     OW68988   8.986   1.879   7.493 -0.2408 -0.0047 -0.0914
20583SOL    HW168989   8.978   1.794   7.536  3.1682 -0.3926  0.0538
20583SOL    HW268990   8.980   1.942   7.565 -1.4628 -0.1835 -0.0206
20584SOL     OW68991   9.072   1.209  12.199 -0.0836 -0.3290 -0.3911
20584SOL    HW168992   9.056   1.300  12.174 -1.2850 -0.7714 -1.3201
20584SOL    HW268993   9.059   1.208  12.294 -0.5171  0.3805 -0.4327
20585SOL     OW68994   8.207   8.216  11.005 -0.4802 -0.1450 -0.1647
20585SOL    HW168995   8.159   8.265  10.939  1.2805  0.5261 -1.0318
20585SOL    HW268996   8.162   8.235  11.088 -1.3175  0.9172 -0.8399
20586SOL     OW68997   2.019   1.366   0.441  0.2781  0.2738  0.2337
20586SOL    HW168998   2.034   1.296   0.378 -0.1618 -0.7126  1.1933
20586SOL    HW268999   2.033   1.325   0.526  1.0307  1.6150  0.7971
20587SOL     OW69000   3.467   5.672   9.808 -0.8475  0.3381 -0.1101
20587SOL    HW169001   3.375   5.697   9.819 -0.8845 -0.4940  2.2749
20587SOL    HW269002   3.471   5.632   9.721 -2.9102 -0.2024 -0.0139
20588SOL     OW69003   4.816   4.384   7.107 -0.2604 -1.1965 -0.2234
20588SOL    HW169004   4.856   4.417   7.187 -3.2316 -1.4427  1.5336
20588SOL    HW269005   4.796   4.462   7.057 -2.2462 -0.5868  1.3637
20589SOL     OW69006   3.299  11.138   2.704 -0.3307  0.3343  0.3100
20589SOL    HW169007   3.327  11.227   2.724  2.0317 -0.4097  0.7413
20589SOL    HW269008   3.335  11.121   2.617 -0.6856 -0.2099  0.2684
20590SOL     OW69009   7.080   5.555   4.567 -0.2023  0.0497 -0.0373
20590SOL    HW169010   7.082   5.602   4.650 -0.3081  1.5242 -0.8363
20590SOL    HW269011   6.996   5.510   4.566 -0.7305  1.0127  0.1411
20591SOL     OW69012  10.135   6.141  10.493 -0.0470 -0.0139  0.2003
20591SOL    HW169013  10.161   6.221  10.538  0.3960 -0.3707  0.5864
20591SOL    HW269014  10.212   6.116  10.441 -0.6408  0.5457 -0.9943
20592SOL     OW69015   7.299  10.906  11.617  0.1483 -0.4033  0.1235
20592SOL    HW169016   7.264  10.823  11.648 -1.6914  0.2489 -0.0558
20592SOL    HW269017   7.374  10.924  11.674 -0.1393 -1.6097  0.9108
20593SOL     OW69018   6.475  10.019   2.189 -0.1079 -0.1055  0.3569
20593SOL    HW169019   6.423  10.003   2.268 -2.9479 -0.8182 -1.5063
20593SOL    HW269020   6.447   9.951   2.127 -0.2842  2.1473 -2.2579
20594SOL     OW69021   3.876  12.274   2.797 -0.2938  0.2492 -0.4976
20594SOL    HW169022   3.951  12.296   2.852 -0.3770 -2.5769  0.9207
20594SOL    HW269023   3.847  12.188   2.829 -4.2970  1.3008 -0.7881
20595SOL     OW69024   5.263   2.398  10.756  0.0115  0.3052  0.0049
20595SOL    HW169025   5.252   2.355  10.841 -0.1513 -1.5223 -0.8771
20595SOL    HW269026   5.357   2.412  10.747  0.4773 -2.5970 -0.8402
20596SOL     OW69027   3.054   4.409  10.209  1.0132 -0.7785 -0.2877
20596SOL    HW169028   2.985   4.428  10.273  0.1855 -1.7631 -0.8592
20596SOL    HW269029   3.107   4.489  10.207 -0.3003  0.1337 -0.0591
20597SOL     OW69030   7.793  12.608   6.441 -0.1370 -0.2378 -0.3305
20597SOL    HW169031   7.814  12.584   6.531  0.4421  1.7968  0.1256
20597SOL    HW269032   7.719  12.667   6.448 -0.7243 -0.8271 -1.2887
20598SOL     OW69033  11.938  10.141   3.659 -0.1588 -0.1409  0.1989
20598SOL    HW169034  11.847  10.150   3.632 -0.2429 -0.8012  0.2376
20598SOL    HW269035  11.939  10.062   3.713  0.1803  0.6235  1.3579
20599SOL     OW69036   8.290   1.790   9.435  0.0309 -0.2434 -0.1662
20599SOL    HW169037   8.329   1.869   9.473  0.5042 -0.4892 -0.1280
20599SOL    HW269038   8.340   1.776   9.354 -0.2332 -0.3485 -0.3102
20600SOL     OW69039   9.492   3.131   3.080  0.5874  0.2597  0.2557
20600SOL    HW169040   9.543   3.101   3.005  1.4537  1.2265  0.4296
20600SOL    HW269041   9.417   3.072   3.083  0.3021  0.4506 -1.6284
20601SOL     OW69042   4.761   5.231   0.033 -0.2680 -0.0172 -0.4799
20601SOL    HW169043   4.714   5.312   0.013 -1.0068 -0.3229 -0.0557
20601SOL    HW269044   4.854   5.255   0.030 -0.4607  0.6821 -1.0217
20602SOL     OW69045   2.388   4.781   2.949 -0.4200  0.0285  0.3466
20602SOL    HW169046   2.359   4.839   3.019 -1.3929 -0.0682  0.0362
20602SOL    HW269047   2.364   4.826   2.868 -0.0049 -0.2121  0.0842
20603SOL     OW69048   7.728   4.226   1.265  0.1147  0.0357 -0.1252
20603SOL    HW169049   7.766   4.313   1.273  1.1450 -0.5705  3.4235
20603SOL    HW269050   7.634   4.240   1.278  0.3660  0.5697  1.2611
20604SOL     OW69051  10.060   0.317  10.984 -0.5520  0.4183 -0.1718
20604SOL    HW169052  10.018   0.260  11.049  0.0449 -0.1017 -0.2286
20604SOL    HW269053   9.987   0.350  10.930 -1.0542  0.8491  0.7448
20605SOL     OW69054   6.567   6.281  11.817  0.2325  0.2616 -0.4429
20605SOL    HW169055   6.587   6.328  11.736  2.3738 -1.0112 -0.7413
20605SOL    HW269056   6.632   6.315  11.880  1.5575 -1.8773 -0.5541
20606SOL     OW69057   5.922  10.783   9.716  0.5691 -0.0300 -0.1573
20606SOL    HW169058   5.952  10.849   9.779  0.0827 -1.2180  1.3618
20606SOL    HW269059   5.906  10.705   9.768 -1.1212 -0.6809 -1.5577
20607SOL     OW69060   5.749  12.463   6.525  0.5268  0.0981  0.1251
20607SOL    HW169061   5.727  12.555   6.513  0.1288  0.0012  0.1069
20607SOL    HW269062   5.740  12.448   6.619  1.2605  0.2438  0.2270
20608SOL     OW69063  12.004   3.734   1.551  0.0692  0.0921 -0.7691
20608SOL    HW169064  12.035   3.815   1.510  0.1882 -0.0168 -0.8957
20608SOL    HW269065  12.084   3.684   1.567  0.2241  0.8655  1.1802
20609SOL     OW69066   2.390   2.321   2.705 -0.3132  0.0473  0.1101
20609SOL    HW169067   2.377   2.246   2.763 -0.6007 -1.4646 -1.8056
20609SOL    HW269068   2.478   2.309   2.670 -0.6092  0.1928 -0.7209
20610SOL     OW69069   2.227   4.017   4.047 -0.6483 -0.6760  0.4724
20610SOL    HW169070   2.252   4.104   4.077  1.0640 -1.9195  2.9974
20610SOL    HW269071   2.202   3.970   4.127 -1.7984 -2.4325 -0.8446
20611SOL     OW69072   2.314  10.071   0.437 -0.0385  0.3670 -0.2864
20611SOL    HW169073   2.285  10.127   0.509 -0.8708 -0.2080 -0.1535
20611SOL    HW269074   2.384  10.120   0.395 -2.2284  2.6105 -1.6250
20612SOL     OW69075   1.004   0.329   8.601 -0.0211  0.1052  0.1478
20612SOL    HW169076   0.945   0.260   8.570 -1.4292  1.0176  0.7270
20612SOL    HW269077   1.078   0.326   8.540  1.2028 -3.5084  1.5091
20613SOL     OW69078   7.720  10.910  10.163  0.0097  0.0667 -0.4904
20613SOL    HW169079   7.771  10.919  10.082 -2.8910 -0.6152 -2.5749
20613SOL    HW269080   7.675  10.994  10.173  0.8603  0.3928  0.8791
20614SOL     OW69081   2.893   1.465   9.298 -0.2992 -0.0179 -0.6680
20614SOL    HW169082   2.841   1.430   9.371 -1.4418 -1.0015 -1.9057
20614SOL    HW269083   2.917   1.388   9.247  0.2894  0.6765 -1.4611
20615SOL     OW69084   1.808   3.514   2.324 -0.7353 -0.0663 -0.1237
20615SOL    HW169085   1.779   3.558   2.404  0.1382  0.6049 -0.1608
20615SOL    HW269086   1.734   3.459   2.298 -1.0764 -0.1839  1.0672
20616SOL     OW69087  11.538   3.116   1.433 -0.5406  0.4648  0.2267
20616SOL    HW169088  11.503   3.098   1.520  1.6778  0.8562  1.2687
20616SOL    HW269089  11.598   3.043   1.416 -0.4961  0.7033 -0.7161
20617SOL     OW69090   4.663   5.473   0.770 -0.2990  0.1588  0.3533
20617SOL    HW169091   4.699   5.399   0.818  0.6896  0.7401  0.5201
20617SOL    HW269092   4.674   5.548   0.828 -2.0338  0.3314  0.5295
20618SOL     OW69093   3.264   3.680   1.452 -0.4764  0.3368  0.3515
20618SOL    HW169094   3.302   3.613   1.394 -1.6040  1.0782 -1.3105
20618SOL    HW269095   3.208   3.631   1.512 -0.3787 -0.3173 -0.0808
20619SOL     OW69096   6.674   5.716   1.544 -0.0990 -0.1835 -0.0967
20619SOL    HW169097   6.642   5.652   1.607 -1.7552 -0.1181 -0.8246
20619SOL    HW269098   6.768   5.699   1.538 -0.2236 -1.4087  0.9796
20620SOL     OW69099   3.543   0.743   6.588  0.5039  0.2589  0.1919
20620SOL    HW169100   3.450   0.720   6.585  0.7282 -0.6315 -2.0706
20620SOL    HW269101   3.553   0.810   6.519  1.6888 -0.3752 -0.2865
20621SOL     OW69102   8.763   2.381   0.148 -0.7492  0.3821  0.2983
20621SOL    HW169103   8.824   2.401   0.077  0.9134  1.4145  1.9198
20621SOL    HW269104   8.677   2.387   0.107  0.1428  0.6205 -1.6946
20622SOL     OW69105   8.822   9.405   8.749  0.2972 -0.0500 -0.0381
20622SOL    HW169106   8.786   9.494   8.757  1.2371  0.3229  0.2381
20622SOL    HW269107   8.757   9.357   8.699 -1.0479  0.3268  1.2930
20623SOL     OW69108   9.186   3.516   8.321  0.2585 -0.6607 -0.5675
20623SOL    HW169109   9.265   3.469   8.292  0.4991 -1.9655  1.9466
20623SOL    HW269110   9.134   3.450   8.366  0.0776  1.1613  2.1383
20624SOL     OW69111  10.571  11.752   8.871  0.8834  0.1457 -0.2749
20624SOL    HW169112  10.664  11.763   8.851  1.3635 -0.6603  1.3270
20624SOL    HW269113  10.558  11.657   8.873  0.2689  0.2322  0.4444
20625SOL     OW69114   4.377  12.689   1.140  0.3104 -0.6896 -0.2744
20625SOL    HW169115   4.390  12.595   1.125  0.2126 -0.6153 -0.8737
20625SOL    HW269116   4.296  12.695   1.190 -0.4703 -0.8633 -1.4581
20626SOL     OW69117   7.038   4.258   6.060  0.1723 -0.6234 -0.0606
20626SOL    HW169118   7.043   4.332   6.121  0.9561  0.0936 -0.9639
20626SOL    HW269119   7.041   4.181   6.116  1.1201  0.0131  0.8141
20627SOL     OW69120   4.358   3.410   0.267 -0.1062 -0.0688  0.4865
20627SOL    HW169121   4.335   3.337   0.325  0.6845  0.1643  1.1147
20627SOL    HW269122   4.453   3.419   0.277 -0.1033  0.6168 -0.1003
20628SOL     OW69123  11.834   2.186   5.110 -0.0039 -0.4022  0.1932
20628SOL    HW169124  11.883   2.107   5.135  0.6281 -0.4443 -1.1170
20628SOL    HW269125  11.821   2.233   5.193 -0.9315 -2.1643  1.0915
20629SOL     OW69126   4.027  10.804   2.054 -0.5739 -0.3107  0.3929
20629SOL    HW169127   4.115  10.810   2.017 -1.0622  0.1246 -0.7441
20629SOL    HW269128   3.979  10.876   2.012 -1.5280 -0.6724  0.8424
20630SOL     OW69129  11.110   1.850   7.363  0.4822 -0.2176 -0.3159
20630SOL    HW169130  11.120   1.805   7.279 -0.9096 -1.3868  0.1079
20630SOL    HW269131  11.025   1.892   7.357  0.4569 -0.1597  0.4388
20631SOL     OW69132   8.236   9.259   6.668  0.2319  0.2903 -0.1789
20631SOL    HW169133   8.300   9.238   6.737  0.9212 -1.8910 -1.3991
20631SOL    HW269134   8.243   9.187   6.606 -1.8807  1.1252 -1.4907
20632SOL     OW69135   8.444  12.466   2.821  0.2786 -0.3372 -0.2298
20632SOL    HW169136   8.448  12.388   2.876 -0.8185 -1.0987 -1.1597
20632SOL    HW269137   8.474  12.537   2.877  2.1736 -1.5514  0.3641
20633SOL     OW69138   9.241   4.549   2.675 -0.5597  0.1321 -0.3598
20633SOL    HW169139   9.311   4.592   2.725  0.0374 -0.8860 -0.2841
20633SOL    HW269140   9.286   4.478   2.629 -1.5349 -0.4715 -0.3974
20634SOL     OW69141   7.600   9.713   7.591 -0.2177 -0.0288 -0.2575
20634SOL    HW169142   7.515   9.669   7.589 -0.4916  0.4971 -0.2529
20634SOL    HW269143   7.606   9.759   7.508  0.7678 -1.3435 -0.9717
20635SOL     OW69144   1.670   9.938   8.828  0.1037 -0.1705 -0.4399
20635SOL    HW169145   1.599   9.998   8.848  0.6841  0.3142  0.2276
20635SOL    HW269146   1.748   9.979   8.865  0.9835 -0.0190 -2.3264
20636SOL     OW69147   1.516   5.736   2.312  0.3175 -0.3787  0.1344
20636SOL    HW169148   1.487   5.651   2.280  2.6297 -0.5583 -1.7628
20636SOL    HW269149   1.448   5.797   2.282 -0.7245 -1.3735  0.4081
20637SOL     OW69150   8.522   8.173   7.370 -0.4156 -0.5451 -0.6201
20637SOL    HW169151   8.445   8.225   7.394  0.2105  0.4069 -0.6437
20637SOL    HW269152   8.596   8.220   7.409  0.2538 -0.9316 -1.4109
20638SOL     OW69153  10.742  10.923   1.483  0.3049  0.7628 -0.2196
20638SOL    HW169154  10.672  10.898   1.422  0.3077  0.5635 -0.1430
20638SOL    HW269155  10.810  10.961   1.428  0.0887  1.0554 -0.2823
20639SOL     OW69156   2.975   8.104   9.344 -0.3681 -0.2273 -0.4200
20639SOL    HW169157   2.899   8.103   9.402  0.1918  0.1810  0.3450
20639SOL    HW269158   3.016   8.190   9.359 -0.1846 -0.1268 -1.3959
20640SOL     OW69159   4.506  11.672   1.174 -0.0484 -0.0631 -0.0498
20640SOL    HW169160   4.456  11.675   1.256  0.6667 -0.6168  0.4241
20640SOL    HW269161   4.584  11.621   1.196  0.5244  0.4328 -0.8838
20641SOL     OW69162   4.377   3.931   2.771 -0.2913 -0.0102 -0.1157
20641SOL    HW169163   4.366   3.946   2.677 -3.9500  1.2642  0.3486
20641SOL    HW269164   4.374   3.836   2.780  0.2754 -0.1607 -1.2594
20642SOL     OW69165   5.903   8.171   3.360 -0.8678 -0.2491  0.3444
20642SOL    HW169166   5.973   8.233   3.380 -0.5240 -0.2080 -0.9353
20642SOL    HW269167   5.834   8.193   3.422  0.2281 -0.2969  1.6511
20643SOL     OW69168  10.028   4.309   0.640  0.2244 -0.2210  0.3206
20643SOL    HW169169   9.986   4.233   0.679  0.3611 -0.8858 -0.8088
20643SOL    HW269170  10.087   4.342   0.708 -1.7229  0.4562  1.7772
20644SOL     OW69171   9.907  11.484   1.772  0.0992  0.0250 -0.2468
20644SOL    HW169172   9.827  11.536   1.777 -0.1795 -0.3156 -1.0096
20644SOL    HW269173   9.948  11.494   1.859 -0.6185  0.4301  0.0526
20645SOL     OW69174  11.389   9.044   6.858  0.2779  0.0424  0.1975
20645SOL    HW169175  11.323   8.975   6.848  1.5306 -1.2751  0.7024
20645SOL    HW269176  11.470   9.005   6.825  0.6819  1.9047 -1.1797
20646SOL     OW69177   3.491  10.761   5.947  0.0178  1.1367 -0.3216
20646SOL    HW169178   3.423  10.804   5.895 -1.1040  0.4625  0.5243
20646SOL    HW269179   3.475  10.791   6.036  0.0041 -0.0148  0.0826
20647SOL     OW69180   1.441   0.067   9.634 -0.2606  0.6695  0.1144
20647SOL    HW169181   1.431   0.146   9.686  0.0677  0.3879  0.6163
20647SOL    HW269182   1.498   0.011   9.686 -2.3389 -0.8674  0.9073
20648SOL     OW69183  11.286   8.906  11.208 -0.4790 -0.0571 -0.6121
20648SOL    HW169184  11.331   8.830  11.243 -0.1843  0.4835  0.1980
20648SOL    HW269185  11.355   8.958  11.167 -0.4893  0.3873 -0.0628
20649SOL     OW69186  10.456   5.266   0.787  0.3676 -0.4802  0.8234
20649SOL    HW169187  10.496   5.342   0.828  0.7318 -0.2721  0.1098
20649SOL    HW269188  10.490   5.191   0.836  1.4584 -0.2914  0.3847
20650SOL     OW69189   6.347   7.483   0.668 -0.2930 -0.2082  0.0981
20650SOL    HW169190   6.378   7.500   0.757 -0.8067  0.0861  0.2211
20650SOL    HW269191   6.262   7.527   0.663 -0.4775 -0.6138 -0.3916
20651SOL     OW69192   6.434   2.336  11.989  0.0996  0.2736  0.2438
20651SOL    HW169193   6.398   2.395  11.923  0.2274 -0.6628 -0.6928
20651SOL    HW269194   6.359   2.315  12.045 -0.1475  0.6051  0.0405
20652SOL     OW69195   9.059   5.563   9.950  0.1340 -0.5530  0.5187
20652SOL    HW169196   9.144   5.534   9.917 -0.1325 -0.2349 -0.5108
20652SOL    HW269197   8.996   5.531   9.885 -0.3523  0.6318  0.3676
20653SOL     OW69198  11.814   7.866   3.941  0.7829  0.3958 -0.1707
20653SOL    HW169199  11.760   7.894   3.867  0.5924  0.4133 -0.0262
20653SOL    HW269200  11.842   7.948   3.983  0.2282  0.3830  0.2505
20654SOL     OW69201   4.623   1.604   9.474 -0.0359  0.3393  0.2170
20654SOL    HW169202   4.675   1.621   9.395 -1.9234  0.1546 -1.1163
20654SOL    HW269203   4.680   1.548   9.528  1.4774  0.8588 -0.7710
20655SOL     OW69204   1.320   8.852   4.926  0.0979  0.1150  0.1317
20655SOL    HW169205   1.410   8.863   4.958 -0.7417 -0.6318  3.0037
20655SOL    HW269206   1.291   8.770   4.965 -1.6343 -0.0364 -1.3596
20656SOL     OW69207   3.395   9.260   9.825  0.0811 -0.0121  0.2480
20656SOL    HW169208   3.316   9.310   9.806  0.9259  0.7519 -1.4702
20656SOL    HW269209   3.461   9.326   9.848  0.7983 -0.4263 -0.5358
20657SOL     OW69210   5.037  10.415   5.674 -0.6004  0.0699 -0.0115
20657SOL    HW169211   5.033  10.334   5.623 -3.0462 -1.0873  1.7850
20657SOL    HW269212   4.999  10.482   5.616 -1.9463 -0.8958 -0.2921
20658SOL     OW69213   4.077   8.842   3.250 -0.4699 -0.3746  0.5614
20658SOL    HW169214   4.014   8.770   3.248 -1.1957  0.1866  1.8786
20658SOL    HW269215   4.143   8.818   3.185 -1.1132 -1.8322  0.4070
20659SOL     OW69216   8.926  10.479   4.130 -0.4938 -0.3089 -0.5026
20659SOL    HW169217   8.851  10.504   4.076 -1.2991 -0.4254  0.5319
20659SOL    HW269218   8.909  10.389   4.154 -0.4638 -0.0699  0.4516
20660SOL     OW69219   1.625   5.290   3.114 -0.0462 -0.2499 -0.3595
20660SOL    HW169220   1.572   5.244   3.180 -1.4449 -0.7345 -1.7556
20660SOL    HW269221   1.677   5.221   3.073 -0.3448 -0.2036 -0.8183
20661SOL     OW69222   2.961   2.383   4.385 -0.1811  0.5819  0.6504
20661SOL    HW169223   3.033   2.346   4.333 -0.5023  1.7491 -0.6752
20661SOL    HW269224   3.001   2.402   4.470  0.1965 -1.9684  1.1393
20662SOL     OW69225   4.860   8.844  11.639 -0.2353 -0.0430  0.5986
20662SOL    HW169226   4.821   8.876  11.558  1.2025  2.1872  0.7130
20662SOL    HW269227   4.799   8.871  11.708 -0.4646 -0.1497  0.4366
20663SOL     OW69228   9.356   8.347  12.097 -0.3511  0.3777 -0.2995
20663SOL    HW169229   9.317   8.434  12.113 -0.0423  0.3451  0.7062
20663SOL    HW269230   9.377   8.347  12.004 -2.9782  0.3100 -0.9624
20664SOL     OW69231   8.320   2.816   0.769  0.5710 -0.4067  0.2949
20664SOL    HW169232   8.356   2.730   0.787 -1.3325 -1.0766  1.1264
20664SOL    HW269233   8.294   2.813   0.677  0.2379 -0.8210  0.4040
20665SOL     OW69234   2.237   9.533  10.967 -0.4803  0.3136  0.9197
20665SOL    HW169235   2.312   9.509  11.021  2.2674  2.6624 -1.4817
20665SOL    HW269236   2.216   9.623  10.992 -2.8147 -0.3662  1.7273
20666SOL     OW69237  10.475   8.518   3.193 -0.3611 -0.3048  0.4184
20666SOL    HW169238  10.538   8.528   3.122 -0.9636  0.7141 -0.0002
20666SOL    HW269239  10.417   8.447   3.165  0.0512 -0.6317  0.3908
20667SOL     OW69240  10.706   7.215   8.438 -0.4743  0.7017  0.0283
20667SOL    HW169241  10.654   7.229   8.518  0.4561  1.5542  0.4989
20667SOL    HW269242  10.641   7.211   8.368 -1.3528 -0.5911  0.8682
20668SOL     OW69243   5.506   3.652   2.940  0.1080 -0.1699  0.6511
20668SOL    HW169244   5.508   3.593   2.864  0.5666  0.0081  0.5238
20668SOL    HW269245   5.418   3.641   2.977 -0.3281  0.2056 -0.2629
20669SOL     OW69246   6.781   6.978  12.448  0.4784 -0.2547 -0.4024
20669SOL    HW169247   6.692   7.005  12.468  0.2076 -0.4176 -1.3278
20669SOL    HW269248   6.783   6.884  12.469  0.6868 -0.0765  0.4142
20670SOL     OW69249   8.274   0.673   6.581  0.0067 -0.4607  0.3239
20670SOL    HW169250   8.345   0.610   6.586 -0.3967 -0.9534 -0.1082
20670SOL    HW269251   8.311   0.753   6.619  0.3849 -1.0678  1.2548
20671SOL     OW69252  10.902   5.368  12.481  0.3015 -0.0648 -0.0210
20671SOL    HW169253  10.934   5.292  12.434  1.2604  0.3394 -0.0351
20671SOL    HW269254  10.839   5.332  12.544  0.6999 -0.8547 -0.0643
20672SOL     OW69255   1.740  11.578   5.312 -0.1175  0.3176  0.4166
20672SOL    HW169256   1.660  11.580   5.365 -0.9938 -0.4311 -0.8201
20672SOL    HW269257   1.732  11.652   5.253 -0.1002  0.0121  0.0248
20673SOL     OW69258   2.210   1.872   3.418 -0.4975  0.9002  0.1426
20673SOL    HW169259   2.218   1.943   3.481 -1.4011  0.7542  0.4352
20673SOL    HW269260   2.125   1.832   3.437  0.1609 -0.5181  0.2581
20674SOL     OW69261   1.682   9.766   2.455 -0.2047  0.8427  0.2543
20674SOL    HW169262   1.704   9.709   2.381 -0.9011  0.9099 -0.0148
20674SOL    HW269263   1.761   9.766   2.510 -0.1753 -0.3367  0.2368
20675SOL     OW69264  11.791   6.738   6.978 -0.3321 -0.3332  0.1224
20675SOL    HW169265  11.836   6.814   7.013 -0.4162  1.1102 -2.6288
20675SOL    HW269266  11.699   6.764   6.972 -0.6442 -1.2516  0.5915
20676SOL     OW69267   6.292   4.274   6.043 -0.0216 -0.0056 -0.0169
20676SOL    HW169268   6.348   4.339   6.085 -0.3763  0.2946 -0.0070
20676SOL    HW269269   6.245   4.232   6.115  0.6351 -0.6869  0.0309
20677SOL     OW69270   0.185   4.419   2.884 -0.2042  0.3734  0.3027
20677SOL    HW169271   0.107   4.363   2.888 -0.7665  1.1800  0.9561
20677SOL    HW269272   0.161   4.496   2.935  1.2786  0.3282  1.1257
20678SOL     OW69273   8.827   5.923   2.407 -0.8476  0.5827 -0.2938
20678SOL    HW169274   8.919   5.908   2.429 -1.2729  1.0969  2.1399
20678SOL    HW269275   8.781   5.916   2.491 -2.7380  2.5550 -1.0588
20679SOL     OW69276   1.371  10.360   7.764 -0.1078 -0.1274 -0.5043
20679SOL    HW169277   1.290  10.408   7.778  0.3654  0.6522 -0.3621
20679SOL    HW269278   1.436  10.406   7.817  0.5264 -0.4483 -0.9798
20680SOL     OW69279   2.051   7.497   5.021 -0.1339  0.2934  0.2436
20680SOL    HW169280   2.031   7.581   4.979 -0.3382 -0.1455 -0.5690
20680SOL    HW269281   2.030   7.431   4.954 -0.5433 -0.4395  1.0765
20681SOL     OW69282   0.373   8.360  11.622 -0.0118 -0.4028 -0.0687
20681SOL    HW169283   0.296   8.322  11.582 -0.2691 -1.0697  1.0174
20681SOL    HW269284   0.339   8.421  11.687  0.3664 -0.7384  0.4540
20682SOL     OW69285   9.507   1.884   3.539  0.3480  0.2748 -0.2348
20682SOL    HW169286   9.575   1.929   3.589  0.1504 -1.0738  1.3259
20682SOL    HW269287   9.503   1.932   3.456  2.0209  1.4084  0.2826
20683SOL     OW69288  10.806   5.832   6.498  0.0257  0.1089 -0.5810
20683SOL    HW169289  10.781   5.867   6.584 -1.2254 -0.3730 -0.7217
20683SOL    HW269290  10.868   5.761   6.518 -1.1599 -0.7952  0.0278
20684SOL     OW69291   5.681   1.573   1.997  0.1471  0.0137  0.0414
20684SOL    HW169292   5.629   1.585   1.918  0.4238  0.7244 -0.0387
20684SOL    HW269293   5.733   1.495   1.980  0.1648  0.1322 -0.4563
20685SOL     OW69294  10.447   6.257   7.643 -0.3802 -0.0272 -0.3815
20685SOL    HW169295  10.496   6.331   7.607 -0.8015  1.5650  2.0617
20685SOL    HW269296  10.362   6.262   7.600  0.4935 -0.8944 -2.3282
20686SOL     OW69297  11.420   1.694   0.312  0.4254  0.1683 -0.2459
20686SOL    HW169298  11.496   1.738   0.275  0.8354 -0.8474 -0.6374
20686SOL    HW269299  11.381   1.759   0.371  2.3879  0.2426  1.0725
20687SOL     OW69300   4.922   4.075   9.294  0.1006  0.5499 -0.0670
20687SOL    HW169301   4.947   4.144   9.234 -0.9431  0.6054 -0.4551
20687SOL    HW269302   5.002   4.024   9.307  0.6740  1.3437 -0.4090
20688SOL     OW69303   1.716   6.112   8.543  0.1976 -0.4571 -0.5012
20688SOL    HW169304   1.760   6.038   8.584 -0.6776 -1.1187 -0.7467
20688SOL    HW269305   1.631   6.078   8.515  0.2078  0.3521 -1.5847
20689SOL     OW69306   8.023   5.659   9.756 -0.5124  1.0770  0.0514
20689SOL    HW169307   8.083   5.710   9.811 -1.2405  3.5749 -1.2933
20689SOL    HW269308   7.961   5.619   9.817 -1.2556  3.7032  1.1465
20690SOL     OW69309   1.170   2.411   1.818  0.5615 -0.4023  0.1066
20690SOL    HW169310   1.218   2.374   1.743  2.1463  3.4255 -1.0074
20690SOL    HW269311   1.238   2.437   1.880 -0.3104  1.3443  0.4016
20691SOL     OW69312   0.773  10.611   7.675 -0.0167 -0.4385 -0.3652
20691SOL    HW169313   0.801  10.702   7.682  1.6495 -1.0556  1.9506
20691SOL    HW269314   0.689  10.608   7.721  0.9546 -0.4313  1.4844
20692SOL     OW69315   6.115   7.612  11.341  0.0628  0.4620 -0.0613
20692SOL    HW169316   6.145   7.584  11.255  1.4998 -2.2271  1.1815
20692SOL    HW269317   6.193   7.650  11.382  0.2144 -0.8919  0.9982
20693SOL     OW69318  10.785   3.049  12.675  0.4543  0.0292 -0.0171
20693SOL    HW169319  10.788   3.123  12.614 -0.5566 -0.2556 -0.4519
20693SOL    HW269320  10.807   3.086  12.760 -1.4322  1.1596  0.0410
20694SOL     OW69321   7.410   8.790   8.320 -0.2462 -0.0920 -1.2061
20694SOL    HW169322   7.430   8.873   8.363  1.6959  0.3114 -2.7172
20694SOL    HW269323   7.495   8.758   8.290 -1.2942 -1.1388 -3.2513
20695SOL     OW69324  12.577   5.081   3.340  0.1062  0.1821 -0.2142
20695SOL    HW169325  12.527   5.136   3.279  0.2635 -0.4443 -0.9181
20695SOL    HW269326  12.527   5.085   3.421  0.7167  2.3047  0.1313
20696SOL     OW69327   8.448   3.420   3.325 -0.2121 -0.1184  0.5412
20696SOL    HW169328   8.443   3.383   3.237  0.1083 -1.6603  1.1367
20696SOL    HW269329   8.356   3.422   3.355 -0.5662  2.2359 -0.4937
20697SOL     OW69330   0.158   3.481   1.415  0.1330  0.2530  0.3947
20697SOL    HW169331   0.094   3.452   1.350 -0.4996  0.0734  1.0805
20697SOL    HW269332   0.217   3.406   1.425 -0.1465  0.0452  0.4943
20698SOL     OW69333   1.980  10.071   9.376  0.2800  0.3000  0.2170
20698SOL    HW169334   2.034  10.024   9.439 -0.4233  0.2238  0.7827
20698SOL    HW269335   1.906  10.104   9.428 -1.7211 -1.9666 -0.9610
20699SOL     OW69336   2.472   3.450   9.911  0.2074  0.1945 -0.3315
20699SOL    HW169337   2.473   3.441   9.816 -1.4557  1.4837 -0.5330
20699SOL    HW269338   2.409   3.520   9.927 -1.2570 -1.4755  1.8123
20700SOL     OW69339   4.663  10.559   2.659 -0.0312 -0.0410  0.2949
20700SOL    HW169340   4.744  10.609   2.666 -0.0102  0.2514 -1.5709
20700SOL    HW269341   4.686  10.484   2.604 -0.9449 -0.1415  0.0390
20701SOL     OW69342   5.880  10.421  11.622  0.2223  0.6584 -0.3353
20701SOL    HW169343   5.959  10.368  11.632 -0.0986  0.2626  0.1345
20701SOL    HW269344   5.832  10.408  11.704  0.1248  1.6483 -0.2250
20702SOL     OW69345   5.301   7.360   7.461  0.1589 -0.3727  0.2470
20702SOL    HW169346   5.304   7.323   7.549 -2.2246 -1.7956 -0.1872
20702SOL    HW269347   5.209   7.384   7.448  0.6677  0.8252 -1.4769
20703SOL     OW69348   0.873   5.291  11.139  0.0165  0.0074  0.6055
20703SOL    HW169349   0.849   5.278  11.048  1.3571  0.9921  0.0833
20703SOL    HW269350   0.828   5.221  11.186 -0.3800 -0.7493 -0.8521
20704SOL     OW69351   5.232   2.829   9.235 -0.0195  0.4376 -0.4673
20704SOL    HW169352   5.276   2.875   9.164  0.5876  0.4834 -0.0647
20704SOL    HW269353   5.191   2.754   9.193 -1.3737  1.5388 -1.2137
20705SOL     OW69354   0.492  11.196   5.456 -0.0620 -0.2971 -0.3001
20705SOL    HW169355   0.492  11.250   5.377  2.1937 -0.9200 -0.7675
20705SOL    HW269356   0.532  11.114   5.430  1.1261 -0.3581  1.5805
20706SOL     OW69357   5.629   6.926   6.067 -0.3555 -0.8564  0.4013
20706SOL    HW169358   5.699   6.893   6.124  0.0465 -1.1070 -0.2284
20706SOL    HW269359   5.612   6.855   6.005 -0.1932 -0.2842 -0.3223
20707SOL     OW69360   9.705   6.740  11.137  0.2040 -0.3588 -0.0758
20707SOL    HW169361   9.687   6.650  11.110  0.5378 -0.3405 -0.3776
20707SOL    HW269362   9.800   6.743  11.150  0.2642  0.0719 -0.5563
20708SOL     OW69363   1.486   4.744   1.384  0.1871 -0.4208 -0.2787
20708SOL    HW169364   1.462   4.695   1.463 -0.1856  0.1176 -0.0560
20708SOL    HW269365   1.575   4.775   1.401 -0.1884  0.3851  0.2794
20709SOL     OW69366   9.252   5.236   2.133  0.3250 -0.6797  0.0223
20709SOL    HW169367   9.315   5.306   2.149 -0.3204  0.1739 -0.9869
20709SOL    HW269368   9.199   5.233   2.213 -0.5338  0.9792 -0.4352
20710SOL     OW69369  10.133   6.474   8.811 -0.0878 -0.0065  0.1153
20710SOL    HW169370  10.203   6.461   8.875  1.0389 -0.5798 -1.1867
20710SOL    HW269371  10.147   6.563   8.778  1.3495 -0.7730 -1.5787
20711SOL     OW69372   6.821   9.784   6.112 -0.1957  0.1081 -0.1083
20711SOL    HW169373   6.835   9.861   6.056 -0.5985  0.1211 -0.1932
20711SOL    HW269374   6.747   9.739   6.072 -1.1661  0.6600  0.9880
20712SOL     OW69375   1.027   6.780   9.177 -0.0817  0.2439  0.1870
20712SOL    HW169376   1.076   6.861   9.193 -1.7109  1.2660  0.1753
20712SOL    HW269377   0.973   6.800   9.100  0.0717 -1.1421 -0.3118
20713SOL     OW69378   4.476   3.172  10.813  0.5364 -0.1605  0.5066
20713SOL    HW169379   4.500   3.079  10.814  0.5219 -0.1656  0.4100
20713SOL    HW269380   4.408   3.178  10.746  0.3707 -0.1214  0.6799
20714SOL     OW69381   4.879  12.273  11.977 -0.2499 -0.6975 -0.2439
20714SOL    HW169382   4.880  12.355  12.025 -0.7849 -1.2649  0.7475
20714SOL    HW269383   4.858  12.298  11.887 -2.3975  0.0645  0.4284
20715SOL     OW69384  10.265   5.374  10.677 -0.9484 -0.2681  0.3096
20715SOL    HW169385  10.271   5.313  10.750 -1.1249 -1.1481 -0.3927
20715SOL    HW269386  10.299   5.457  10.711  1.4996 -1.3306  0.6149
20716SOL     OW69387   2.085  12.013   4.241  0.0110  0.0837  0.1185
20716SOL    HW169388   2.046  12.072   4.305 -0.0382 -0.4146  0.5623
20716SOL    HW269389   2.020  12.007   4.171  0.2783  1.0233 -0.2255
20717SOL     OW69390  10.939   3.964  11.630  1.4934  0.0864 -0.1077
20717SOL    HW169391  11.009   3.898  11.631  1.8797  0.4355 -1.5530
20717SOL    HW269392  10.937   3.996  11.540  0.7625  1.4696  0.3583
20718SOL     OW69393   3.081   7.487   9.448  0.7299 -0.1110 -0.6542
20718SOL    HW169394   3.130   7.430   9.389  1.1629 -0.6357  0.2016
20718SOL    HW269395   3.089   7.574   9.409  2.8916 -0.0612 -0.2081
20719SOL     OW69396  10.950   5.120   2.810  0.0405  0.3691 -0.2892
20719SOL    HW169397  10.979   5.211   2.811  0.5270  0.2181  0.4203
20719SOL    HW269398  10.870   5.119   2.862  0.6141  0.2286  0.6274
20720SOL     OW69399   2.479   1.280  12.417  0.0986  0.1597  0.0267
20720SOL    HW169400   2.525   1.309  12.338 -0.4025 -1.2016 -0.7978
20720SOL    HW269401   2.519   1.331  12.488  1.6033  0.3229 -0.8998
20721SOL     OW69402   4.781   5.903   6.451  0.0245 -0.3822  0.0988
20721SOL    HW169403   4.754   5.813   6.431  1.8886 -0.9432 -0.0545
20721SOL    HW269404   4.826   5.896   6.535  1.7270  0.0724 -0.7369
20722SOL     OW69405   6.815   4.452  10.136 -0.0059  0.3630  0.2202
20722SOL    HW169406   6.821   4.403  10.055  0.1254  1.0520 -0.1991
20722SOL    HW269407   6.879   4.523  10.126  0.7302 -0.1110  1.3367
20723SOL     OW69408   0.796   0.789   0.016 -0.3964 -0.7896 -0.1839
20723SOL    HW169409   0.704   0.798  -0.011 -0.9326 -2.6487  0.8230
20723SOL    HW269410   0.843   0.777  -0.067 -1.0096  0.4526 -0.7364
20724SOL     OW69411   4.896   2.918   4.133 -0.1407  0.2800 -0.7011
20724SOL    HW169412   4.899   2.829   4.169 -0.1626  0.0313 -1.3062
20724SOL    HW269413   4.935   2.973   4.202  1.6280 -0.4504 -1.0567
20725SOL     OW69414   0.976   2.332   7.356  0.0639 -0.1560  0.1277
20725SOL    HW169415   0.999   2.425   7.364 -0.2003 -0.0751 -0.0309
20725SOL    HW269416   0.884   2.333   7.327  1.1107 -0.3752 -3.7684
20726SOL     OW69417   8.877   6.782   8.758 -1.0100 -0.6293 -0.5774
20726SOL    HW169418   8.879   6.849   8.827  0.0364 -0.2165 -1.0028
20726SOL    HW269419   8.958   6.794   8.710 -1.1640 -1.7221 -1.1356
20727SOL     OW69420   6.756   5.624   3.047  0.3221  0.0682  0.0162
20727SOL    HW169421   6.703   5.684   2.996 -0.5010 -1.9875 -1.6749
20727SOL    HW269422   6.808   5.576   2.983  0.1355 -1.7757  1.1449
20728SOL     OW69423   1.357   8.933   5.790 -0.0110 -0.0297  0.1798
20728SOL    HW169424   1.313   8.888   5.862  1.3791  0.1866  1.2137
20728SOL    HW269425   1.448   8.902   5.795  1.1822  3.2215  1.2975
20729SOL     OW69426   6.428  10.233   2.370  0.0460 -0.3656 -0.4773
20729SOL    HW169427   6.444  10.174   2.297  0.1833 -0.6384 -0.2315
20729SOL    HW269428   6.498  10.298   2.364  1.1193 -1.3855  0.4188
20730SOL     OW69429   6.987   8.293  11.793  0.0366 -0.0639 -0.2291
20730SOL    HW169430   7.008   8.270  11.703  1.1415  1.7656 -0.4967
20730SOL    HW269431   6.956   8.384  11.788 -2.5966 -0.8081  0.9239
20731SOL     OW69432   5.110   2.177   8.583  0.8019 -0.3338  0.0392
20731SOL    HW169433   5.097   2.100   8.528 -0.3489 -0.1208 -0.0017
20731SOL    HW269434   5.101   2.144   8.673 -1.1295 -0.0337  0.0012
20732SOL     OW69435   1.065  11.969   4.064 -0.1902  0.4608  0.1227
20732SOL    HW169436   1.061  11.927   3.978 -0.2821 -1.7007  1.1166
20732SOL    HW269437   1.158  11.965   4.087  0.1442  2.7038 -0.5896
20733SOL     OW69438   3.371  12.428  10.007 -0.4185 -0.0070  0.5775
20733SOL    HW169439   3.437  12.458  10.070 -0.0210  0.0674  0.1276
20733SOL    HW269440   3.318  12.505   9.989 -1.2538 -0.2949  1.6869
20734SOL     OW69441  12.598   5.659   1.632 -0.1047  0.6263  0.3921
20734SOL    HW169442  12.651   5.627   1.559  0.2823  0.0447  0.9239
20734SOL    HW269443  12.660   5.669   1.704 -0.5671  0.7493  0.7748
20735SOL     OW69444  11.489   0.751   6.516  0.0669 -0.3706 -0.1948
20735SOL    HW169445  11.511   0.658   6.521 -0.2464 -0.5166 -1.3455
20735SOL    HW269446  11.561   0.790   6.465 -0.5717 -0.2621 -1.0346
20736SOL     OW69447   2.534   7.991   7.163 -0.2536  0.2477 -0.4099
20736SOL    HW169448   2.527   8.026   7.074  0.6464  1.0382 -0.1844
20736SOL    HW269449   2.571   8.063   7.214 -0.5690 -0.2677  0.5688
20737SOL     OW69450   7.360   6.608  10.897 -0.4038  0.1931  0.9759
20737SOL    HW169451   7.308   6.568  10.967 -0.5761  1.2869  1.4981
20737SOL    HW269452   7.442   6.634  10.941  0.8817 -2.0291  0.0506
20738SOL     OW69453   5.442   0.867  11.480  0.1639 -0.0721 -0.0575
20738SOL    HW169454   5.506   0.797  11.466  2.6416  2.0569 -0.2577
20738SOL    HW269455   5.429   0.869  11.574 -0.7171 -1.3896 -0.1251
20739SOL     OW69456  12.344   8.091   7.080 -0.2260  0.9475 -0.3662
20739SOL    HW169457  12.285   8.024   7.045  0.9233 -0.9175  1.0322
20739SOL    HW269458  12.379   8.051   7.160  3.2239  1.7905 -1.3242
20740SOL     OW69459   5.123   4.502  11.544  0.3096 -0.0142 -0.5828
20740SOL    HW169460   5.146   4.590  11.515  1.3891  0.2282  0.8649
20740SOL    HW269461   5.074   4.515  11.625  2.6092 -0.7231  1.0305
20741SOL     OW69462   2.156   3.021  10.229 -0.2523  0.5409  0.7440
20741SOL    HW169463   2.135   2.991  10.140  2.7500  0.6267 -0.0897
20741SOL    HW269464   2.144   2.943  10.283  1.6521 -0.6582 -0.4386
20742SOL     OW69465   5.063  12.617   2.027 -0.2898 -0.2085 -0.3143
20742SOL    HW169466   5.119  12.557   1.977 -0.5587 -0.1239 -0.7155
20742SOL    HW269467   5.073  12.588   2.118 -1.0098 -1.3712 -0.5811
20743SOL     OW69468   2.990   9.827   7.253  0.1275  0.4622 -0.3441
20743SOL    HW169469   3.019   9.810   7.343  2.1795  0.0823 -1.0153
20743SOL    HW269470   2.950   9.914   7.257 -0.1395  0.2969  0.9995
20744SOL     OW69471   6.174   0.504   6.349 -0.2037 -0.2825 -0.0383
20744SOL    HW169472   6.175   0.569   6.420  1.2084 -0.6354  0.2848
20744SOL    HW269473   6.120   0.433   6.383  1.2141 -0.8645  1.1028
20745SOL     OW69474   4.263   5.213  12.451 -0.0181 -0.9228 -0.1051
20745SOL    HW169475   4.258   5.134  12.396  1.7150 -2.0041  1.1434
20745SOL    HW269476   4.314   5.275  12.399 -0.7163 -0.9061 -0.7856
20746SOL     OW69477   5.686   3.775  12.135 -0.1911  0.1988  0.3961
20746SOL    HW169478   5.747   3.710  12.168 -0.2833  0.1628  0.4971
20746SOL    HW269479   5.605   3.758  12.183 -0.3199  0.1596  0.1671
20747SOL     OW69480   2.124  10.346   0.591  0.2001 -0.2999 -0.0499
20747SOL    HW169481   2.030  10.335   0.605  0.5189 -0.5320  2.1626
20747SOL    HW269482   2.129  10.408   0.518 -1.6788  0.8211  0.6904
20748SOL     OW69483  12.129   5.687  11.277 -0.3164 -0.1839  0.8045
20748SOL    HW169484  12.167   5.610  11.318 -0.0736  0.2812  1.4572
20748SOL    HW269485  12.049   5.704  11.327 -0.9035 -0.5982  0.0322
20749SOL     OW69486   6.506   0.404   5.303 -0.4412  0.0905  0.3337
20749SOL    HW169487   6.556   0.341   5.355  1.3837 -0.1061 -1.5316
20749SOL    HW269488   6.472   0.467   5.367  2.5396  0.4460  1.7352
20750SOL     OW69489   0.443   7.820   4.545 -0.1838 -0.0503  0.1971
20750SOL    HW169490   0.501   7.865   4.484 -0.2419 -2.3891 -1.7880
20750SOL    HW269491   0.452   7.727   4.522 -1.6203 -0.8869  2.5917
20751SOL     OW69492   6.016   1.900  12.448  0.1669 -0.5776 -0.1329
20751SOL    HW169493   6.089   1.855  12.406  1.3186  1.0002  0.0746
20751SOL    HW269494   5.966   1.831  12.491  1.7672 -1.6599  0.0603
20752SOL     OW69495   3.514  11.394   0.597 -0.1553 -0.2245 -0.5549
20752SOL    HW169496   3.469  11.475   0.623 -1.3832 -1.0751  0.0569
20752SOL    HW269497   3.586  11.385   0.660 -0.3208  0.1223 -0.3157
20753SOL     OW69498   2.252   5.755   0.773 -0.4316 -0.1246 -0.4901
20753SOL    HW169499   2.262   5.850   0.762 -0.9680  0.0464  0.4480
20753SOL    HW269500   2.294   5.718   0.695  0.9069  0.8306 -0.2640
20754SOL     OW69501   4.311   4.775   0.235 -0.1104  0.2221 -0.6314
20754SOL    HW169502   4.406   4.768   0.247 -0.2374  0.6074  0.7393
20754SOL    HW269503   4.287   4.695   0.189  0.7300 -0.4262  0.0173
20755SOL     OW69504   8.415   3.374   1.477 -0.0976  0.2264 -0.7743
20755SOL    HW169505   8.345   3.385   1.413  0.8656  0.4328 -1.8271
20755SOL    HW269506   8.464   3.298   1.446 -0.6888 -0.8462  0.7731
20756SOL     OW69507  11.737   5.579   4.172 -0.1463  0.0371 -0.2532
20756SOL    HW169508  11.718   5.500   4.222  0.0889  0.5209  0.6214
20756SOL    HW269509  11.702   5.562   4.085 -3.1515  0.2516  0.8108
20757SOL     OW69510   3.544  11.550   8.457  0.1492  0.0944  0.5665
20757SOL    HW169511   3.517  11.459   8.467  0.1502 -0.0927 -0.8753
20757SOL    HW269512   3.474  11.601   8.497 -0.4110 -0.5081  0.3696
20758SOL     OW69513   8.998   8.726   3.478 -0.4734 -0.4260 -0.1285
20758SOL    HW169514   8.965   8.642   3.446 -2.3464  0.3015 -0.2176
20758SOL    HW269515   8.982   8.724   3.572  0.4302 -0.5459  0.0377
20759SOL     OW69516   1.151   1.730   1.192  0.2402 -0.3534 -0.0740
20759SOL    HW169517   1.241   1.758   1.174  0.8980 -1.6835  0.9545
20759SOL    HW269518   1.158   1.675   1.270 -1.9297  2.0450  1.9655
20760SOL     OW69519  10.535   1.186   1.186  0.1012  0.3036  0.8309
20760SOL    HW169520  10.457   1.134   1.207  0.0577 -0.5830 -1.2476
20760SOL    HW269521  10.506   1.277   1.190 -0.2909  0.1245  2.7922
20761SOL     OW69522   3.418  10.391   0.842  0.4693  0.2288 -0.2702
20761SOL    HW169523   3.332  10.382   0.882  1.0351 -1.0590  0.7516
20761SOL    HW269524   3.401  10.427   0.755 -1.0279  0.6307  0.1650
20762SOL     OW69525  12.042   4.478   3.695 -0.3733  0.5932 -0.1389
20762SOL    HW169526  12.060   4.470   3.601  2.9153  0.7071  0.3644
20762SOL    HW269527  12.037   4.388   3.726 -1.1812  0.5553 -0.3779
20763SOL     OW69528  11.776   9.978   8.553 -0.7841 -0.3578  0.2052
20763SOL    HW169529  11.813   9.954   8.638  1.3677  1.4025 -0.1444
20763SOL    HW269530  11.837   9.940   8.489 -1.9449 -0.9925 -0.5555
20764SOL     OW69531  11.391   9.634  10.722  0.0412  0.4481 -0.1092
20764SOL    HW169532  11.432   9.577  10.787  3.0410  0.5199 -1.7700
20764SOL    HW269533  11.324   9.682  10.771  0.4183 -1.3022  2.3084
20765SOL     OW69534   7.687   6.120  12.193 -0.5526 -0.4476 -0.2324
20765SOL    HW169535   7.688   6.116  12.289 -1.4259  0.4856 -0.1723
20765SOL    HW269536   7.754   6.185  12.171 -1.6531  0.7496 -0.1458
20766SOL     OW69537  10.479   7.090   1.601 -0.8027  0.5250 -0.0199
20766SOL    HW169538  10.432   7.016   1.639 -0.6969  1.7063  2.6450
20766SOL    HW269539  10.414   7.161   1.597 -0.2378  1.0572  0.0240
20767SOL     OW69540   1.905   8.267   4.317 -0.3863  0.1550 -0.4091
20767SOL    HW169541   1.857   8.337   4.275  0.5520  0.5947 -0.7708
20767SOL    HW269542   1.997   8.287   4.300 -0.1127 -1.6757 -1.3768
20768SOL     OW69543  12.308   5.893   5.649 -0.5578 -0.5004 -0.8573
20768SOL    HW169544  12.226   5.874   5.602 -1.2036 -0.0667  0.0591
20768SOL    HW269545  12.317   5.988   5.643 -0.5504 -0.4621 -0.2782
20769SOL     OW69546   1.922   3.468   3.389 -0.4832  0.8455 -0.3705
20769SOL    HW169547   1.973   3.538   3.430 -0.3954  0.8085 -0.4174
20769SOL    HW269548   1.985   3.420   3.335 -0.3144  0.1009  0.4523
20770SOL     OW69549   4.857   7.954  11.156 -0.2645  0.1797 -0.3598
20770SOL    HW169550   4.863   7.922  11.246  0.3201 -1.7058 -1.0170
20770SOL    HW269551   4.796   8.027  11.161 -1.1689 -0.6275  1.3747
20771SOL     OW69552   9.814   4.236  10.397 -0.7837 -0.2512  0.3760
20771SOL    HW169553   9.725   4.268  10.413 -1.0212 -0.4790 -0.4862
20771SOL    HW269554   9.816   4.214  10.304  0.5478  0.9328  0.0916
20772SOL     OW69555   1.551   5.446   8.332  0.2743  0.4897 -0.0096
20772SOL    HW169556   1.534   5.442   8.237  0.5264 -1.6259 -0.0036
20772SOL    HW269557   1.552   5.355   8.360 -0.0243  1.0963  2.1015
20773SOL     OW69558  10.803  11.860   6.549  0.1591 -0.0074  0.6788
20773SOL    HW169559  10.889  11.836   6.515  0.5812  1.1366  0.8880
20773SOL    HW269560  10.818  11.876   6.643 -0.0169  1.3096  0.5028
20774SOL     OW69561  11.280   6.728  12.261 -0.5279  0.1056 -0.7248
20774SOL    HW169562  11.347   6.664  12.237 -0.5050 -0.0760 -0.1968
20774SOL    HW269563  11.198   6.680  12.254 -0.4039 -0.4733  1.1748
20775SOL     OW69564   2.900   8.758   8.384 -0.0203 -0.2071  0.3348
20775SOL    HW169565   2.875   8.784   8.473 -0.4003  0.3736  0.0709
20775SOL    HW269566   2.880   8.835   8.331  0.3079 -0.5102 -0.2380
20776SOL     OW69567  10.372   8.888   3.466  0.1191  0.0853 -0.4528
20776SOL    HW169568  10.384   8.962   3.526 -0.8624 -0.9724  1.1203
20776SOL    HW269569  10.277   8.885   3.452  0.3773  0.8280 -2.8135
20777SOL     OW69570   2.829   2.480   2.944  0.3421 -0.5330  0.0453
20777SOL    HW169571   2.861   2.470   2.854  0.7996  1.4998 -0.0640
20777SOL    HW269572   2.742   2.518   2.935 -0.9216 -3.0656  0.4541
20778SOL     OW69573   6.279   4.872  12.142 -0.2284 -0.2851 -0.1745
20778SOL    HW169574   6.261   4.966  12.135  1.8140  0.2258  0.6838
20778SOL    HW269575   6.357   4.858  12.088 -0.8072 -1.5920 -0.6928
20779SOL     OW69576   7.532   2.390   8.629  0.1569  0.2304 -0.6342
20779SOL    HW169577   7.490   2.464   8.673 -0.1387  0.7522 -1.7675
20779SOL    HW269578   7.460   2.332   8.604  0.3521 -0.2337 -0.1372
20780SOL     OW69579   0.694  10.395   1.387  0.0336 -0.0340 -0.4529
20780SOL    HW169580   0.692  10.486   1.415 -0.9529  0.1832 -1.1886
20780SOL    HW269581   0.614  10.357   1.424  1.7317 -1.3649  2.2120
20781SOL     OW69582   6.206   7.170   3.167 -0.0049 -1.0561  0.1353
20781SOL    HW169583   6.193   7.192   3.260  0.8268  2.1661 -0.3603
20781SOL    HW269584   6.299   7.152   3.160  0.3956  0.8996 -0.3323
20782SOL     OW69585   1.127   9.019   1.431 -0.6625  0.0962  0.4443
20782SOL    HW169586   1.198   9.028   1.367 -0.6287  0.3068  0.5097
20782SOL    HW269587   1.047   9.016   1.379 -0.4461 -3.6580  0.0746
20783SOL     OW69588   2.335   0.880   7.151  0.3735  0.0969 -0.5565
20783SOL    HW169589   2.295   0.808   7.200 -0.0780  1.8333  1.7727
20783SOL    HW269590   2.429   0.867   7.161  0.3756 -1.2116 -1.8512
20784SOL     OW69591   8.997  12.457  10.729 -0.0545 -0.2393 -0.0425
20784SOL    HW169592   9.084  12.436  10.696  1.3153  3.7739  0.4673
20784SOL    HW269593   8.950  12.494  10.654 -1.4393 -2.2814 -0.2931
20785SOL     OW69594   7.037   3.097  11.364  0.5736 -0.1132 -0.5704
20785SOL    HW169595   7.060   3.078  11.273  1.2262 -0.0523 -0.4288
20785SOL    HW269596   7.104   3.159  11.392  0.0460  0.2980 -0.2151
20786SOL     OW69597   1.633   5.508   4.054 -0.2293 -0.4602 -0.1649
20786SOL    HW169598   1.689   5.564   4.002  1.0706 -1.9147 -0.3900
20786SOL    HW269599   1.550   5.555   4.060  0.6508  1.2119 -0.7719
20787SOL     OW69600  11.739   3.043   5.832  0.2738 -0.0738  0.1437
20787SOL    HW169601  11.792   3.053   5.753  1.2591  1.1039  0.9287
20787SOL    HW269602  11.698   3.129   5.844 -1.4814 -0.8071 -0.1687
20788SOL     OW69603   7.344   9.235   4.123 -0.4170  0.2353  0.1337
20788SOL    HW169604   7.368   9.211   4.212  1.3700  0.4496 -0.2538
20788SOL    HW269605   7.333   9.330   4.126  1.9443  0.5695 -0.3210
20789SOL     OW69606   3.421   8.557   4.812 -0.2547 -0.2602 -0.2361
20789SOL    HW169607   3.426   8.592   4.901 -0.5547  0.4205 -0.4757
20789SOL    HW269608   3.367   8.621   4.765  1.4438  0.3891 -1.3817
20790SOL     OW69609   9.207  11.690   9.586  0.3531  0.2109  0.0192
20790SOL    HW169610   9.158  11.759   9.541  0.1165  0.1410  0.1645
20790SOL    HW269611   9.140  11.626   9.612  0.4960  0.2089  0.3968
20791SOL     OW69612  11.887   0.395  12.062  0.2389 -0.0730  0.0765
20791SOL    HW169613  11.971   0.386  12.108 -0.4385 -1.8162  1.0355
20791SOL    HW269614  11.824   0.351  12.118 -0.9264 -0.7850 -1.7220
20792SOL     OW69615  11.486  12.412   8.883 -0.1943  0.1879 -0.2785
20792SOL    HW169616  11.442  12.397   8.967  1.0564  2.0921  0.7948
20792SOL    HW269617  11.575  12.436   8.906  0.3982  0.0407 -2.2195
20793SOL     OW69618   7.022  10.101   0.919  0.2029 -0.1346  0.4120
20793SOL    HW169619   6.997  10.090   1.010 -0.9668  0.4782  0.1813
20793SOL    HW269620   6.952  10.154   0.880  1.2977  0.6772 -0.5488
20794SOL     OW69621  11.927   6.492   1.468 -0.5934  0.0655  0.5792
20794SOL    HW169622  11.944   6.442   1.548 -0.2813  1.8257  1.6859
20794SOL    HW269623  11.831   6.495   1.462 -0.6340  0.4888  1.2906
20795SOL     OW69624  10.553   0.136   1.651 -0.4582  0.1880 -0.1940
20795SOL    HW169625  10.595   0.051   1.652 -0.0439  0.3857  0.5496
20795SOL    HW269626  10.537   0.156   1.744  2.7496  2.5031  0.0157
20796SOL     OW69627   1.005  12.079   3.533  0.1102 -0.3057  0.5795
20796SOL    HW169628   0.972  12.067   3.444 -2.1795  0.5516  1.2318
20796SOL    HW269629   1.070  12.010   3.545  1.7721  0.5944 -2.3010
20797SOL     OW69630   8.703   9.216  12.518  0.4338  0.0290 -0.1255
20797SOL    HW169631   8.750   9.294  12.547 -0.4941  0.2187  0.9587
20797SOL    HW269632   8.636   9.249  12.459 -0.3351  0.1557  0.7840
20798SOL     OW69633   8.296   0.828   1.281  0.1993 -0.1713  0.0121
20798SOL    HW169634   8.326   0.761   1.341  1.0893 -1.0954 -1.4243
20798SOL    HW269635   8.296   0.786   1.195  2.1187  2.0047 -1.1641
20799SOL     OW69636   6.771   7.495   1.638  0.2397 -0.6867  0.5273
20799SOL    HW169637   6.780   7.516   1.731 -0.2916  1.0892  0.2175
20799SOL    HW269638   6.704   7.555   1.606  0.2662 -1.4046 -0.9682
20800SOL     OW69639   0.961   0.386   8.185  0.1084 -0.5480  0.6232
20800SOL    HW169640   1.038   0.349   8.227  0.9533 -0.8156 -1.0725
20800SOL    HW269641   0.959   0.477   8.213  0.8368 -0.6369  0.9620
20801SOL     OW69642  11.398  11.272   8.608 -0.0992  0.9776 -0.0193
20801SOL    HW169643  11.310  11.236   8.616  0.9245 -1.3315  2.6518
20801SOL    HW269644  11.443  11.212   8.547  0.1903  0.8496  0.3159
20802SOL     OW69645   8.245   9.189  12.355 -0.0320  0.1689 -0.4387
20802SOL    HW169646   8.178   9.122  12.348  0.6306 -0.6682  0.8851
20802SOL    HW269647   8.213   9.248  12.423 -1.0649  1.7929 -2.2370
20803SOL     OW69648   3.719   7.497  12.518 -0.3413 -0.6373 -1.1676
20803SOL    HW169649   3.656   7.431  12.549  1.0939 -2.3132 -1.6802
20803SOL    HW269650   3.782   7.447  12.467  1.0294  1.1088 -1.2479
20804SOL     OW69651   8.508   7.562   8.530 -0.1592 -0.5785  0.7509
20804SOL    HW169652   8.589   7.576   8.482 -0.0877 -2.8735  0.0701
20804SOL    HW269653   8.472   7.650   8.544  2.4087  0.5062  1.1024
20805SOL     OW69654   3.115  11.123   2.263  0.0813 -0.0646 -0.1284
20805SOL    HW169655   3.175  11.183   2.220  0.3902 -0.0727  0.2816
20805SOL    HW269656   3.084  11.171   2.340  0.9317 -0.6937  0.6393
20806SOL     OW69657   9.001   3.594  11.901 -0.3599 -0.1040 -0.0364
20806SOL    HW169658   8.975   3.677  11.860 -1.8925 -1.4401 -1.9264
20806SOL    HW269659   9.091   3.581  11.873  0.5917  1.7592  1.8314
20807SOL     OW69660   3.888  12.125  11.358 -0.2122  0.3744 -0.8154
20807SOL    HW169661   3.843  12.166  11.432  0.4833 -0.3322  0.0246
20807SOL    HW269662   3.972  12.096  11.395  0.5488  0.8574 -2.1208
20808SOL     OW69663   8.914   2.415  12.641 -0.1116 -0.4739  0.4300
20808SOL    HW169664   8.878   2.363  12.569  0.7415 -0.9696  0.3534
20808SOL    HW269665   8.976   2.475  12.599  0.2315 -0.6201  0.7213
20809SOL     OW69666   7.978  11.932  11.431 -0.2564 -0.1364 -0.3771
20809SOL    HW169667   7.971  11.992  11.506 -0.6981 -0.2332 -0.3372
20809SOL    HW269668   8.049  11.872  11.455  0.0696  0.2550 -0.3411
20810SOL     OW69669   4.925   6.785   9.180  0.3583 -0.0134 -0.2664
20810SOL    HW169670   4.896   6.870   9.147 -0.7680  0.1627  1.1026
20810SOL    HW269671   4.929   6.730   9.102 -0.5942  0.8324 -0.9483
20811SOL     OW69672  10.061   9.450   6.902  0.0513  0.4693 -0.4380
20811SOL    HW169673   9.974   9.472   6.869 -0.3495 -0.5800 -0.1416
20811SOL    HW269674  10.044   9.407   6.987  0.8745  0.5373 -0.2289
20812SOL     OW69675  11.727   6.749   3.999  0.4426  0.3423  0.2239
20812SOL    HW169676  11.710   6.655   4.004  0.6639  0.3134  0.4347
20812SOL    HW269677  11.791   6.766   4.068 -0.7340  0.9135  1.2175
20813SOL     OW69678  11.650   4.992   5.370 -0.2447  1.5321  0.0002
20813SOL    HW169679  11.729   4.956   5.409 -0.7537  0.3599 -0.0071
20813SOL    HW269680  11.597   5.021   5.444 -1.0316 -0.3168  0.2261
20814SOL     OW69681   9.634   1.701   5.484 -0.0863  0.0771 -0.7093
20814SOL    HW169682   9.559   1.735   5.435 -0.5471  0.8875  0.5260
20814SOL    HW269683   9.633   1.607   5.467 -0.8985  0.1861 -1.3474
20815SOL     OW69684  12.634   7.446   9.116 -0.3266  0.1208  0.3848
20815SOL    HW169685  12.717   7.435   9.162 -0.1618  0.4471  0.1658
20815SOL    HW269686  12.629   7.371   9.058 -0.0791  0.2182  0.2375
20816SOL     OW69687   4.531   9.293   3.129  0.2830  0.0240 -0.1386
20816SOL    HW169688   4.602   9.349   3.160  0.4901 -1.1408  1.5924
20816SOL    HW269689   4.462   9.304   3.194 -0.8722  0.5702 -1.4057
20817SOL     OW69690   8.977   0.062   1.087 -0.0667 -0.4292  0.5726
20817SOL    HW169691   8.925   0.005   1.144 -3.6421  4.0087  2.3446
20817SOL    HW269692   9.021   0.122   1.146 -0.8581  2.0107 -1.1770
20818SOL     OW69693  10.333  11.647  10.480 -0.5502 -0.3711  0.2080
20818SOL    HW169694  10.355  11.725  10.430  1.0823 -0.3467  0.8993
20818SOL    HW269695  10.253  11.669  10.526  0.0011  0.9730  0.5546
20819SOL     OW69696   5.240   1.450  10.305 -0.4421 -0.8210 -0.0133
20819SOL    HW169697   5.260   1.373  10.251  2.1600  1.5638 -2.8243
20819SOL    HW269698   5.310   1.451  10.371 -1.1420 -1.4280  0.7551
20820SOL     OW69699  10.943   4.359   4.283  0.5730 -0.7362  0.7279
20820SOL    HW169700  10.861   4.321   4.314 -0.1888  0.3120  0.0865
20820SOL    HW269701  10.975   4.297   4.217 -1.0609  0.0621 -0.8846
20821SOL     OW69702   0.883   0.790   5.548  0.1999 -0.0915 -0.2757
20821SOL    HW169703   0.851   0.876   5.520  0.0681  0.4532  1.4230
20821SOL    HW269704   0.807   0.733   5.541 -0.5795  0.6606  1.5100
20822SOL     OW69705   3.729   6.870   5.065  0.6194 -0.3568  0.0843
20822SOL    HW169706   3.667   6.850   4.995  0.8908  0.1935 -0.3198
20822SOL    HW269707   3.724   6.965   5.074 -0.4858 -0.5154  1.8032
20823SOL     OW69708  10.914  11.910   0.869  0.8695  0.3154  0.9700
20823SOL    HW169709  10.994  11.935   0.915  1.7409 -2.4715  1.1679
20823SOL    HW269710  10.942  11.894   0.779  0.3254  0.3420  0.7932
20824SOL     OW69711   9.844   0.679   0.542  0.6228 -0.2965 -0.3228
20824SOL    HW169712   9.856   0.585   0.531 -1.1167 -0.5936  0.0479
20824SOL    HW269713   9.856   0.694   0.636 -1.5057 -0.5838  0.0390
20825SOL     OW69714   5.435  10.384   1.773  0.5795 -0.6531 -0.0240
20825SOL    HW169715   5.508  10.428   1.815  0.5030 -0.6295  0.0836
20825SOL    HW269716   5.434  10.419   1.684  0.6707 -0.6201 -0.0117
20826SOL     OW69717   0.838   5.389   0.430 -0.2225  0.5992  0.2123
20826SOL    HW169718   0.930   5.408   0.448 -0.1379  0.0120  0.4264
20826SOL    HW269719   0.792   5.470   0.451  0.3124  1.1000 -0.4816
20827SOL     OW69720  10.811   0.115   2.942  0.3932 -0.3221 -0.5115
20827SOL    HW169721  10.766   0.113   2.857  1.4422 -1.8164 -1.0708
20827SOL    HW269722  10.821   0.023   2.966 -0.1059  0.0823  1.3830
20828SOL     OW69723   7.606   8.388   8.709  0.1986  0.5980 -0.9645
20828SOL    HW169724   7.589   8.320   8.644  2.3701 -1.0316  0.0173
20828SOL    HW269725   7.583   8.347   8.793 -1.3305  2.2004 -0.5504
20829SOL     OW69726   2.882   4.129   8.852  0.1871 -0.3207 -0.1189
20829SOL    HW169727   2.902   4.050   8.902 -2.1209 -1.5026 -0.9486
20829SOL    HW269728   2.800   4.110   8.807 -0.3085  2.4529 -0.6015
20830SOL     OW69729   2.861   4.140  10.180 -0.2410 -0.3674 -0.1689
20830SOL    HW169730   2.840   4.102  10.265 -0.4109 -1.4765 -0.6919
20830SOL    HW269731   2.814   4.224  10.179 -2.2765 -1.4353 -0.1235
20831SOL     OW69732  10.915   8.063   6.910  1.0716 -0.0905  0.6644
20831SOL    HW169733  10.891   7.988   6.964 -1.0927 -0.0893 -0.1988
20831SOL    HW269734  10.975   8.028   6.844 -1.6012 -1.6709 -1.1171
20832SOL     OW69735   2.497   4.607  10.546  0.0770  0.9544 -0.0903
20832SOL    HW169736   2.521   4.641  10.632 -0.9799  1.8109 -0.1183
20832SOL    HW269737   2.540   4.666  10.484 -0.1216  1.0419 -0.1453
20833SOL     OW69738   1.612  11.930  11.887  0.4103 -0.4335 -0.0025
20833SOL    HW169739   1.552  11.880  11.831 -2.2749  1.0711  1.3249
20833SOL    HW269740   1.600  12.021  11.860  1.0900  0.0502  1.2203
20834SOL     OW69741   0.072   2.770   2.601  0.3494  0.1729  0.5093
20834SOL    HW169742  -0.018   2.777   2.633  0.4350  1.4479  0.5395
20834SOL    HW269743   0.126   2.798   2.675  0.7296  0.1905  0.2317
20835SOL     OW69744   0.180  10.887   5.570 -0.3964  0.9247 -0.4565
20835SOL    HW169745   0.164  10.795   5.587 -1.6941  1.1149 -0.5151
20835SOL    HW269746   0.102  10.916   5.521  1.2758  1.3497 -3.0881
20836SOL     OW69747   0.848   1.544  12.014  0.2627 -0.0324  0.0791
20836SOL    HW169748   0.862   1.580  12.102  0.1904  0.7968 -0.2408
20836SOL    HW269749   0.754   1.523  12.012  0.5831 -1.6585  0.7749
20837SOL     OW69750  11.085   3.595   6.583 -0.5847  0.3176  0.5325
20837SOL    HW169751  11.140   3.518   6.601  2.0847  1.8075 -0.7513
20837SOL    HW269752  11.124   3.665   6.635 -2.4030  1.1066  0.9333
20838SOL     OW69753  11.938  11.887   8.127  0.0281  0.1750 -0.4658
20838SOL    HW169754  11.885  11.819   8.084 -0.4151  0.6250 -0.6479
20838SOL    HW269755  11.980  11.934   8.055  2.2832 -1.4023 -0.2799
20839SOL     OW69756   7.434  10.755   1.354  0.3248  0.3776  0.4983
20839SOL    HW169757   7.439  10.678   1.298 -1.7444 -0.1641  0.9720
20839SOL    HW269758   7.348  10.793   1.335  0.7908  1.8673  1.1838
20840SOL     OW69759   9.637   3.497   4.760 -0.0401  0.0899  0.2435
20840SOL    HW169760   9.572   3.529   4.822 -2.0010 -1.6576 -0.7864
20840SOL    HW269761   9.617   3.404   4.750  1.6229 -0.1551 -1.3349
20841SOL     OW69762   3.297   9.736   0.028 -0.1901  0.1729 -0.3861
20841SOL    HW169763   3.293   9.646  -0.006  0.1533  0.1111 -0.2647
20841SOL    HW269764   3.370   9.776  -0.020  2.1779 -0.7358  2.2016
20842SOL     OW69765   9.618   4.082   2.645 -0.1723 -0.5197  0.1109
20842SOL    HW169766   9.610   4.092   2.740  0.0587  1.0250 -0.0140
20842SOL    HW269767   9.543   4.027   2.620 -1.4072  0.7443  0.9309
20843SOL     OW69768   0.620   5.506   5.801  0.1675 -0.3359  0.3081
20843SOL    HW169769   0.569   5.434   5.838 -0.8058  0.7767  1.2116
20843SOL    HW269770   0.652   5.472   5.718 -1.1558 -1.4508  0.2136
20844SOL     OW69771   0.864   6.468   3.068 -0.0546  0.6854 -0.1182
20844SOL    HW169772   0.813   6.390   3.047  0.0807  0.0266  1.7657
20844SOL    HW269773   0.939   6.464   3.009 -0.1869 -0.4780 -0.2415
20845SOL     OW69774   5.174   8.172   4.901  0.0327 -0.5604  0.3391
20845SOL    HW169775   5.261   8.190   4.866  0.5684  0.1889  1.9423
20845SOL    HW269776   5.130   8.257   4.901 -0.3434 -0.7521  0.4713
20846SOL     OW69777  10.394   5.888  11.070 -0.6629  0.3429  0.1240
20846SOL    HW169778  10.457   5.897  10.998  1.4206  0.6211  1.8893
20846SOL    HW269779  10.328   5.827  11.036  1.0490 -0.7336 -1.4966
20847SOL     OW69780   3.333   6.115   9.131  0.4634 -0.1119 -0.5607
20847SOL    HW169781   3.375   6.062   9.199 -1.3966 -0.6771  0.2159
20847SOL    HW269782   3.293   6.050   9.072 -1.0729  0.3751 -0.1030
20848SOL     OW69783   7.414   6.894   5.496  0.0164 -0.6454  0.4415
20848SOL    HW169784   7.436   6.809   5.458 -2.1862 -0.6677 -1.0336
20848SOL    HW269785   7.432   6.957   5.426 -2.3192 -0.4560 -0.0774
20849SOL     OW69786   8.935   6.185   7.065  0.8272  0.0371  0.1977
20849SOL    HW169787   8.845   6.216   7.053  0.9594  0.0396 -0.8754
20849SOL    HW269788   8.957   6.209   7.155 -0.3452 -0.2277  0.5747
20850SOL     OW69789   9.214   3.366   0.070  0.2594 -0.2189  0.1985
20850SOL    HW169790   9.126   3.352   0.105  0.3336 -1.0523  0.0723
20850SOL    HW269791   9.254   3.279   0.072  0.8203  0.0226 -0.4413
20851SOL     OW69792   9.729   1.286  10.416 -0.1572 -0.2495 -0.5479
20851SOL    HW169793   9.766   1.290  10.504  0.0894 -0.4623 -0.6403
20851SOL    HW269794   9.787   1.225  10.369 -0.0434  0.1772 -0.9682
20852SOL     OW69795   6.526  10.003  11.669 -0.1136 -0.5813  0.3029
20852SOL    HW169796   6.487  10.075  11.718  0.5531  0.0283 -0.0322
20852SOL    HW269797   6.461   9.982  11.602 -0.9299 -1.2733  1.2933
20853SOL     OW69798   4.462  11.947  11.790 -0.2874  0.3903 -0.3203
20853SOL    HW169799   4.550  11.915  11.810  0.1353 -0.2489 -2.9018
20853SOL    HW269800   4.449  12.019  11.852  1.1811 -0.8064  1.5173
20854SOL     OW69801   9.156  11.117   3.878  0.4434 -0.4762  0.9680
20854SOL    HW169802   9.163  11.061   3.800 -3.2547  0.8381 -0.5030
20854SOL    HW269803   9.181  11.204   3.847  1.0366 -0.3209  1.8600
20855SOL     OW69804   0.286   6.963   9.468  0.4253 -0.6312 -0.0711
20855SOL    HW169805   0.261   6.994   9.381  0.5083  0.8333  0.3875
20855SOL    HW269806   0.322   6.876   9.454 -0.8360 -0.9829 -1.3158
20856SOL     OW69807  12.524  11.098   8.573  0.0664  0.3845  0.5880
20856SOL    HW169808  12.483  11.113   8.488  1.2851  0.7254  0.0397
20856SOL    HW269809  12.565  11.012   8.565  1.1240  0.8887  0.4304
20857SOL     OW69810   2.695  10.200   1.551 -0.4138  0.1486 -0.1045
20857SOL    HW169811   2.735  10.183   1.466 -0.6028  2.7011 -0.7692
20857SOL    HW269812   2.768  10.202   1.613 -0.2040 -0.9740 -0.2893
20858SOL     OW69813   0.846   0.522   2.563  0.2149  0.4966 -0.2620
20858SOL    HW169814   0.812   0.593   2.508  0.5013  0.1146 -0.9508
20858SOL    HW269815   0.803   0.443   2.529  0.9634  0.1552 -0.4409
20859SOL     OW69816   1.714  10.710   1.504  0.1524  0.1962 -0.0720
20859SOL    HW169817   1.623  10.739   1.507 -0.2900 -1.1790  3.0078
20859SOL    HW269818   1.757  10.758   1.574  1.4285 -0.3631 -0.4477
20860SOL     OW69819   3.291  10.224   1.201  0.3384  0.6643  0.1043
20860SOL    HW169820   3.296  10.163   1.128  0.9245 -0.2856  0.9171
20860SOL    HW269821   3.379  10.224   1.239  0.0826  1.2564  0.7167
20861SOL     OW69822   4.420   1.804   0.066  0.1122  0.9134  0.7778
20861SOL    HW169823   4.485   1.864   0.029  0.6408  1.5206  2.6077
20861SOL    HW269824   4.401   1.838   0.153 -0.6806 -0.7604  1.3204
20862SOL     OW69825   3.205   9.858   7.990 -0.1121 -0.0680  0.2629
20862SOL    HW169826   3.123   9.823   7.956 -0.0390 -0.2104  0.2322
20862SOL    HW269827   3.190   9.870   8.083 -0.4824  0.7977  0.1053
20863SOL     OW69828   0.506   6.632   6.081  0.2401 -0.0537 -0.0605
20863SOL    HW169829   0.594   6.660   6.055  0.1935  0.0566 -0.0974
20863SOL    HW269830   0.518   6.598   6.170  0.2011  0.5791  0.1947
20864SOL     OW69831  10.176   5.066   9.556 -1.0787 -0.2783  0.5918
20864SOL    HW169832  10.141   5.152   9.534 -1.0141 -0.2647  0.5399
20864SOL    HW269833  10.154   5.012   9.480  0.7268  0.2062 -0.3264
20865SOL     OW69834   7.629   3.477   1.905 -0.3418 -0.1533  0.6464
20865SOL    HW169835   7.545   3.488   1.861  0.1853  1.3863 -0.0466
20865SOL    HW269836   7.607   3.474   1.998 -1.1621  0.3530  0.4784
20866SOL     OW69837  10.442  12.600   0.708  0.3010  0.1523  0.6002
20866SOL    HW169838  10.465  12.681   0.663  2.5332 -1.1732 -0.8612
20866SOL    HW269839  10.514  12.584   0.769  0.4137 -1.1952  0.1578
20867SOL     OW69840   2.492  10.668   6.617 -0.0274 -0.2401 -0.0980
20867SOL    HW169841   2.476  10.596   6.678 -0.9076 -0.6194 -0.7613
20867SOL    HW269842   2.519  10.625   6.536 -0.4697  0.1781 -0.4726
20868SOL     OW69843  11.315  10.350   0.186  0.7094  0.6642 -0.3738
20868SOL    HW169844  11.256  10.302   0.128  0.0752  0.4773  0.4156
20868SOL    HW269845  11.309  10.440   0.155  0.0296  0.6459 -0.3224
20869SOL     OW69846   4.306   9.512   5.647  0.0979 -0.3090  0.1810
20869SOL    HW169847   4.311   9.468   5.562 -0.4271 -1.6899  0.8330
20869SOL    HW269848   4.215   9.500   5.675 -1.1527  4.1248 -1.0669
20870SOL     OW69849   6.612  12.309   7.549  0.0888 -0.1170 -0.0926
20870SOL    HW169850   6.684  12.262   7.508  3.3480  3.3291  1.1207
20870SOL    HW269851   6.616  12.285   7.641  1.1333  1.5989  0.3507
20871SOL     OW69852   8.888   8.955   1.485 -0.4231 -0.3807  0.2609
20871SOL    HW169853   8.800   8.918   1.479 -1.1210  1.4215 -3.3157
20871SOL    HW269854   8.936   8.913   1.413  0.5785  1.0629  0.0474
20872SOL     OW69855   3.763   1.013   8.247 -0.0520  0.4950  0.3095
20872SOL    HW169856   3.809   1.087   8.288  0.0174 -0.1086  1.3421
20872SOL    HW269857   3.824   0.983   8.180  0.0198  1.2193  0.0339
20873SOL     OW69858  10.317  10.757   4.026  0.3574  0.1682  0.3659
20873SOL    HW169859  10.271  10.839   4.010  0.8753  0.3319 -0.3074
20873SOL    HW269860  10.318  10.713   3.940  0.6833 -0.2336  0.5716
20874SOL     OW69861   4.253   8.753   7.623 -0.6777  0.2181 -0.6013
20874SOL    HW169862   4.231   8.819   7.557 -1.2313  0.1101 -0.5286
20874SOL    HW269863   4.304   8.688   7.575  2.3199  2.0241 -0.1304
20875SOL     OW69864   7.020   2.485   8.859  0.0591 -0.0631 -0.2456
20875SOL    HW169865   7.076   2.562   8.847 -1.2063  1.2295  1.6710
20875SOL    HW269866   7.080   2.411   8.851  1.9081  1.2286  0.9430
20876SOL     OW69867   1.024   7.034  11.881 -0.0672  0.6594  0.1500
20876SOL    HW169868   1.062   7.044  11.794  1.0176 -0.9688  0.3864
20876SOL    HW269869   0.975   6.952  11.876  0.5889  0.1767  1.2381
20877SOL     OW69870   2.072  11.818   8.332  0.0862 -0.2483 -0.4088
20877SOL    HW169871   2.097  11.816   8.240  1.5228 -1.2472 -0.0268
20877SOL    HW269872   2.154  11.837   8.379 -1.1181  3.4194  0.5259
20878SOL     OW69873   5.338   0.247   1.702 -0.3177  0.0518  0.0003
20878SOL    HW169874   5.358   0.326   1.752 -0.6469  0.6071 -0.7288
20878SOL    HW269875   5.287   0.192   1.762  1.9446 -0.7045  1.3513
20879SOL     OW69876  10.437   5.541  11.735  0.3912  0.3078  0.9213
20879SOL    HW169877  10.414   5.626  11.697  0.2537  0.6371  1.7287
20879SOL    HW269878  10.522   5.521  11.697  1.8372  2.2085  2.9144
20880SOL     OW69879   4.326   9.678   7.217 -0.1080 -0.1551  0.2659
20880SOL    HW169880   4.276   9.759   7.231 -0.4444 -0.5404  1.4074
20880SOL    HW269881   4.417   9.707   7.213 -0.3827  0.6247 -2.4018
20881SOL     OW69882  11.817   8.744   9.856  0.5890  0.4962  0.1718
20881SOL    HW169883  11.888   8.766   9.917  1.8335 -0.1639 -0.9816
20881SOL    HW269884  11.860   8.695   9.786 -1.2039 -0.9061 -0.0278
20882SOL     OW69885  12.638   8.347  10.553 -0.0981  0.0245  0.3061
20882SOL    HW169886  12.637   8.434  10.594  0.8231  0.5543 -0.7461
20882SOL    HW269887  12.634   8.365  10.459  0.3234 -1.0648  0.0648
20883SOL     OW69888   7.100   4.193   2.251  0.8098 -0.5057 -0.1685
20883SOL    HW169889   7.135   4.104   2.260 -0.8129 -1.0525  1.1664
20883SOL    HW269890   7.060   4.195   2.164  2.5424 -0.4092 -1.0125
20884SOL     OW69891   4.985   8.161   2.912 -0.3298  0.3951 -0.2008
20884SOL    HW169892   4.992   8.065   2.914 -2.5759  0.1645  1.7138
20884SOL    HW269893   5.074   8.192   2.897  0.5614 -1.9790 -0.2253
20885SOL     OW69894   3.436   7.256   5.404  0.2633  0.0115  0.1391
20885SOL    HW169895   3.512   7.314   5.396  1.6035 -1.7609 -0.7039
20885SOL    HW269896   3.391   7.286   5.483  2.9275 -0.0825  1.8134
20886SOL     OW69897   9.823   0.067  10.083 -0.1831 -0.4767  0.1768
20886SOL    HW169898   9.844   0.094  10.172 -0.3372 -0.7623  0.3025
20886SOL    HW269899   9.755   0.128  10.055  0.0699 -0.2072  0.1483
20887SOL     OW69900   0.610   0.718   6.200 -0.1233  0.3595  0.3083
20887SOL    HW169901   0.651   0.663   6.267 -0.7220  0.0369  0.4114
20887SOL    HW269902   0.646   0.685   6.118  0.6205  0.7626  0.4612
20888SOL     OW69903   3.129   3.871   0.314 -0.0031 -0.5130  0.0301
20888SOL    HW169904   3.207   3.860   0.261  0.5801 -1.6759  1.0839
20888SOL    HW269905   3.126   3.793   0.369 -0.8511  0.4056  1.3507
20889SOL     OW69906  11.653   8.015   2.126  0.0473 -0.5972 -0.4384
20889SOL    HW169907  11.606   7.935   2.148 -2.5094  0.3966 -1.7516
20889SOL    HW269908  11.591   8.086   2.148  0.4055  0.7501 -3.2555
20890SOL     OW69909   2.992  11.696  12.411  0.4479 -0.0337 -0.5277
20890SOL    HW169910   2.912  11.666  12.369  0.7180  1.3188 -2.1017
20890SOL    HW269911   3.061  11.640  12.375  0.2754 -1.0544  0.6636
20891SOL     OW69912   2.533   9.421   4.736  0.4011  0.3846  0.0237
20891SOL    HW169913   2.453   9.372   4.719  0.0642  0.0934  2.2312
20891SOL    HW269914   2.504   9.498   4.785  1.2855  1.2142 -0.7093
20892SOL     OW69915   9.212   7.300   8.705  0.3317  0.0966 -0.0850
20892SOL    HW169916   9.198   7.321   8.797 -2.0996  2.2464 -0.8152
20892SOL    HW269917   9.174   7.374   8.658 -0.6554 -1.9985 -2.8728
20893SOL     OW69918  10.978   2.640   1.898 -0.6047 -0.6111 -0.5999
20893SOL    HW169919  10.965   2.621   1.991 -2.3765  3.0215  0.0786
20893SOL    HW269920  11.019   2.727   1.897 -0.4468 -0.6556 -3.2156
20894SOL     OW69921   6.665  11.941   5.348 -0.6765 -0.3911  0.1989
20894SOL    HW169922   6.683  12.032   5.370 -1.2436 -0.2474  0.0891
20894SOL    HW269923   6.627  11.904   5.428 -2.4933  0.0622 -0.4166
20895SOL     OW69924  12.405  12.652   3.322 -0.0308 -0.1207  0.7820
20895SOL    HW169925  12.460  12.729   3.305 -1.0878  0.7489  1.1481
20895SOL    HW269926  12.428  12.591   3.253  0.1023  0.9447 -0.1495
20896SOL     OW69927  10.947   7.073   1.432  0.5086  0.5091 -0.2780
20896SOL    HW169928  11.016   7.118   1.384 -0.5109  1.0426 -1.2934
20896SOL    HW269929  10.869   7.128   1.419 -0.3795 -0.6859 -0.1557
20897SOL     OW69930  10.920   3.272   8.614 -0.1691 -0.1705 -0.1175
20897SOL    HW169931  10.903   3.364   8.635  2.0495  0.3631 -0.4039
20897SOL    HW269932  11.012   3.270   8.588 -0.2467 -2.4385 -0.4268
20898SOL     OW69933  11.282  11.466   3.832 -0.6831 -0.1626 -0.4058
20898SOL    HW169934  11.340  11.538   3.852  0.2844 -0.9390 -0.3482
20898SOL    HW269935  11.194  11.502   3.840 -0.2814  0.4159  1.8866
20899SOL     OW69936   9.161   3.188   1.153 -0.1510 -0.0623 -0.4896
20899SOL    HW169937   9.172   3.283   1.150  0.6092 -0.1658 -0.9671
20899SOL    HW269938   9.210   3.160   1.230  0.9296 -0.2404 -1.2293
20900SOL     OW69939   0.040   5.389   8.438  0.1093  0.7060 -0.2318
20900SOL    HW169940   0.057   5.399   8.532  0.3663  1.1657 -0.3221
20900SOL    HW269941   0.056   5.476   8.401  0.8515  0.3404 -0.8217
20901SOL     OW69942   3.698   0.808   4.947  0.6558  0.0231 -0.1373
20901SOL    HW169943   3.612   0.813   4.906  0.2546  0.4490  0.7301
20901SOL    HW269944   3.721   0.715   4.945  0.0880 -0.1140 -0.1911
20902SOL     OW69945  10.976   1.620   5.811 -0.5320 -0.1876 -0.5672
20902SOL    HW169946  10.911   1.595   5.877 -0.8402  0.1798 -0.7250
20902SOL    HW269947  10.957   1.564   5.736 -0.5667 -0.1876 -0.5582
20903SOL     OW69948  12.154  11.097  12.045 -0.2748  0.6516 -0.0357
20903SOL    HW169949  12.168  11.012  12.003  0.2358  1.1242 -0.8498
20903SOL    HW269950  12.212  11.157  11.998 -0.2545  1.3538  0.8584
20904SOL     OW69951   9.585   3.195   8.884  0.0749 -0.1963  0.1098
20904SOL    HW169952   9.504   3.237   8.913  0.7926  1.1864  0.1568
20904SOL    HW269953   9.655   3.256   8.908  1.1284 -1.2601 -0.1281
20905SOL     OW69954   1.969   1.645   0.466 -0.8655 -0.6729 -0.4941
20905SOL    HW169955   2.018   1.691   0.398 -1.0469 -1.3249 -1.0753
20905SOL    HW269956   1.979   1.552   0.444 -1.7934 -0.8452 -0.2366
20906SOL     OW69957  12.106  11.656   7.833 -0.1708  0.1117 -0.9970
20906SOL    HW169958  12.030  11.674   7.776  0.9037  1.2967 -2.1180
20906SOL    HW269959  12.131  11.566   7.811 -0.6510  0.0584 -1.3439
20907SOL     OW69960   0.065   5.734   4.419 -0.3522 -0.1447 -0.0120
20907SOL    HW169961   0.149   5.700   4.390  0.8617  0.5963  2.3745
20907SOL    HW269962   0.079   5.759   4.510 -3.2271 -0.1693  0.5395
20908SOL     OW69963   5.194   6.893  12.439  0.4098  0.2373 -0.2102
20908SOL    HW169964   5.160   6.806  12.417  2.7488 -0.7839 -0.0519
20908SOL    HW269965   5.178   6.902  12.533  1.9744 -0.9617  0.2214
20909SOL     OW69966   5.868  12.649   0.340 -0.1303 -0.2046 -0.2203
20909SOL    HW169967   5.831  12.561   0.340  0.9941 -0.7089 -0.9496
20909SOL    HW269968   5.793  12.707   0.347 -1.1539 -1.1371 -2.5423
20910SOL     OW69969  12.523   2.729   5.773  0.5120  1.0138  0.3116
20910SOL    HW169970  12.458   2.723   5.703  0.2464  1.9255  0.4677
20910SOL    HW269971  12.588   2.662   5.752  0.4897  1.3496 -0.8619
20911SOL     OW69972   5.918   8.015   2.619 -0.2974  0.2326 -0.3060
20911SOL    HW169973   5.965   8.098   2.604  0.0614  0.2429  0.7536
20911SOL    HW269974   5.867   8.031   2.699 -0.7039 -0.3703 -0.4420
20912SOL     OW69975   9.816   7.697   4.272  0.0482 -0.4660  0.5447
20912SOL    HW169976   9.742   7.755   4.293 -0.7049 -0.6051 -1.4941
20912SOL    HW269977   9.857   7.738   4.196 -1.2261 -3.1559 -1.7347
20913SOL     OW69978   9.444   3.832  11.619 -0.4831  0.0059 -0.6528
20913SOL    HW169979   9.359   3.872  11.637  0.1338  0.9871  0.2476
20913SOL    HW269980   9.483   3.888  11.551 -0.3456 -0.1415 -0.6974
20914SOL     OW69981   1.382   7.513   8.869  0.2360 -0.1704  0.1527
20914SOL    HW169982   1.294   7.535   8.901  0.2958 -0.7955  0.7717
20914SOL    HW269983   1.441   7.563   8.925  0.2662  0.6670 -0.6111
20915SOL     OW69984   8.603   3.872   4.383 -0.0740  0.4147  0.0481
20915SOL    HW169985   8.591   3.899   4.474 -2.7728 -0.6556  0.0822
20915SOL    HW269986   8.651   3.790   4.389  0.4895  0.7603  0.4256
20916SOL     OW69987   4.786  12.180   6.641 -0.3008 -0.3278 -0.5373
20916SOL    HW169988   4.869  12.144   6.611 -0.6022 -0.2851 -1.4264
20916SOL    HW269989   4.740  12.206   6.562 -0.4002  1.3661  0.0285
20917SOL     OW69990  11.777  12.509   1.884 -0.2517  0.0782  0.0950
20917SOL    HW169991  11.692  12.501   1.841 -0.1411  0.6866 -0.2522
20917SOL    HW269992  11.759  12.495   1.977 -0.4746 -1.4294 -0.1458
20918SOL     OW69993   4.861   2.140   4.903  0.5420 -0.6563  0.2177
20918SOL    HW169994   4.884   2.174   4.816  1.8589 -0.8986  0.4487
20918SOL    HW269995   4.839   2.048   4.887 -1.7627 -0.0830 -0.2156
20919SOL     OW69996   5.908   9.184   9.511 -0.2794 -0.8621 -0.0375
20919SOL    HW169997   5.961   9.164   9.588  0.2846 -1.3204 -0.5388
20919SOL    HW269998   5.966   9.235   9.454 -0.3873 -1.3210 -0.5690
20920SOL     OW69999   5.433   1.642   9.042 -0.5206  0.0459 -0.7147
20920SOL    HW170000   5.400   1.717   9.092 -0.5939 -1.2091  1.1955
20920SOL    HW270001   5.430   1.569   9.103 -1.5456 -1.8177 -2.8722
20921SOL     OW70002   4.879   8.474   7.354 -0.1966  0.1310 -0.5440
20921SOL    HW170003   4.891   8.568   7.339 -0.1695  0.1208 -0.5880
20921SOL    HW270004   4.886   8.464   7.449  0.5830  0.0644 -0.6024
20922SOL     OW70005   4.188   1.985   3.253 -0.1956 -0.0210 -0.4230
20922SOL    HW170006   4.214   2.046   3.184 -2.3233  0.9502 -0.4470
20922SOL    HW270007   4.184   2.038   3.332  0.4918 -0.7408  0.1131
20923SOL     OW70008  11.951   2.184   9.789 -0.4657 -0.0843  0.7968
20923SOL    HW170009  11.927   2.173   9.881 -0.1536 -0.5533  0.8275
20923SOL    HW270010  11.967   2.094   9.758 -1.6925 -0.0361 -0.0229
20924SOL     OW70011   5.037   1.131   3.600 -0.4764 -0.8060 -0.0117
20924SOL    HW170012   5.130   1.148   3.592 -0.6384 -0.2008 -0.6284
20924SOL    HW270013   5.021   1.057   3.541 -0.7297  0.3346 -1.4076
20925SOL     OW70014   1.490   8.024  11.426  0.3901  0.0196 -0.1257
20925SOL    HW170015   1.452   7.956  11.481  1.7760  0.1163  1.0169
20925SOL    HW270016   1.416   8.077  11.397 -0.7100 -1.8691 -0.9351
20926SOL     OW70017  11.855   3.810  12.450  0.6329 -0.2638 -0.3235
20926SOL    HW170018  11.831   3.838  12.538 -0.3528  0.2981 -0.7514
20926SOL    HW270019  11.931   3.863  12.428  0.2545  0.3475 -0.1941
20927SOL     OW70020   6.715  11.597   2.119 -0.2140 -0.6489  0.0239
20927SOL    HW170021   6.782  11.605   2.051 -0.6800  1.7216 -0.2305
20927SOL    HW270022   6.633  11.588   2.071 -0.3308 -1.1531  0.3114
20928SOL     OW70023   5.764   1.093   2.230  0.1546  0.0744 -0.1265
20928SOL    HW170024   5.790   1.066   2.142 -0.6916  0.2310 -0.4283
20928SOL    HW270025   5.674   1.064   2.239  0.9034 -2.0414  1.5562
20929SOL     OW70026  10.387   0.085  10.543  0.5782  0.1055  0.3027
20929SOL    HW170027  10.458   0.068  10.606  0.8662  1.5502  0.3899
20929SOL    HW270028  10.326   0.141  10.591  0.5434  0.7938 -0.5391
20930SOL     OW70029   8.469   5.410   2.407  0.4549  0.4041 -0.2972
20930SOL    HW170030   8.424   5.423   2.324 -0.3662  1.6501  0.3132
20930SOL    HW270031   8.518   5.491   2.421  1.9019 -0.4253 -0.3275
20931SOL     OW70032   1.404   2.085   3.399 -0.1427  0.0700  0.0284
20931SOL    HW170033   1.457   2.043   3.331 -0.1724  2.3315 -1.5094
20931SOL    HW270034   1.359   2.156   3.353  0.5711  2.3316  2.5633
20932SOL     OW70035   8.074   5.428   3.550  0.5903  0.2017  0.1467
20932SOL    HW170036   8.165   5.439   3.577  1.7968 -0.6663 -3.1122
20932SOL    HW270037   8.058   5.334   3.557 -0.4200  0.4478  1.5638
20933SOL     OW70038  11.838   6.978   4.909 -0.3812 -1.1176 -0.0958
20933SOL    HW170039  11.833   6.931   4.826 -0.4703 -0.7841 -0.2772
20933SOL    HW270040  11.817   7.069   4.887  0.1932 -0.9119  0.1892
20934SOL     OW70041  10.513   6.473  11.182  0.1048  0.3340 -0.0604
20934SOL    HW170042  10.591   6.510  11.141  0.2087 -1.6986 -1.8651
20934SOL    HW270043  10.496   6.393  11.133 -1.2809 -0.9483  2.3365
20935SOL     OW70044   4.853  10.293   0.870  0.1262  0.2776  0.0693
20935SOL    HW170045   4.903  10.219   0.835  2.2307  1.8297 -0.4167
20935SOL    HW270046   4.871  10.292   0.964 -0.9274 -0.5665  0.2795
20936SOL     OW70047   9.784   3.133   8.606 -0.1395 -0.0014  0.3415
20936SOL    HW170048   9.834   3.116   8.686  0.5697  0.5680  0.0411
20936SOL    HW270049   9.809   3.062   8.547 -0.6597 -0.4198  0.6164
20937SOL     OW70050   2.624   5.850  11.945  0.7989 -0.5604  0.0184
20937SOL    HW170051   2.619   5.918  11.878 -0.3583 -0.7305 -0.0879
20937SOL    HW270052   2.614   5.768  11.897  0.6390 -0.7176  0.3203
20938SOL     OW70053   1.436  10.419  10.575 -0.1700 -0.0250 -0.0294
20938SOL    HW170054   1.448  10.514  10.583 -0.4812  0.0103  0.0394
20938SOL    HW270055   1.450  10.400  10.482 -1.5700  0.3039 -0.3255
20939SOL     OW70056   1.528   5.155   0.912  0.4227 -0.8519  0.0690
20939SOL    HW170057   1.615   5.194   0.920 -0.4965  1.3129  0.0438
20939SOL    HW270058   1.537   5.070   0.955  2.2089 -0.1494  1.2324
20940SOL     OW70059  10.602   6.381   8.700 -0.0296 -0.2963  0.0551
20940SOL    HW170060  10.582   6.287   8.699 -1.0033 -0.1087  0.3430
20940SOL    HW270061  10.696   6.386   8.717 -0.0874 -1.2026  0.6820
20941SOL     OW70062  11.567   4.313   7.063  0.1621 -0.0911  0.3653
20941SOL    HW170063  11.549   4.340   6.973 -2.5651 -1.4357  0.3996
20941SOL    HW270064  11.551   4.392   7.115 -2.7989 -0.3347  0.0072
20942SOL     OW70065   5.838   0.490   2.710  0.1377  0.6623  0.1918
20942SOL    HW170066   5.837   0.520   2.801 -0.1668  1.3236 -0.0238
20942SOL    HW270067   5.836   0.571   2.659  0.8983  0.3101 -0.4014
20943SOL     OW70068   5.635  12.265   8.988 -0.4800  0.3384  0.3726
20943SOL    HW170069   5.729  12.272   8.999 -0.4437  0.2531  0.1306
20943SOL    HW270070   5.610  12.188   9.039 -0.4048  0.3066  0.3623
20944SOL     OW70071   7.977   5.222   1.192 -0.3643 -0.3272 -0.4390
20944SOL    HW170072   7.891   5.234   1.154 -1.2186 -0.7106  1.2620
20944SOL    HW270073   8.037   5.263   1.130 -1.9693  1.9017 -0.6322
20945SOL     OW70074   8.518  12.648   7.049  0.4333 -0.3167  0.1510
20945SOL    HW170075   8.485  12.568   7.089 -2.2779  0.3509 -0.5572
20945SOL    HW270076   8.566  12.693   7.119  0.9661 -1.9518  0.8806
20946SOL     OW70077   6.835   1.686   8.027  0.1734  0.1090 -0.4714
20946SOL    HW170078   6.917   1.735   8.019  0.5346 -0.2585  0.7236
20946SOL    HW270079   6.862   1.594   8.034 -0.3410 -0.0314 -0.2427
20947SOL     OW70080   6.323   5.834  10.968  0.0907 -0.0529  0.2878
20947SOL    HW170081   6.364   5.877  11.043  0.1442  4.1922 -1.8964
20947SOL    HW270082   6.255   5.894  10.939 -0.0423 -1.5120 -2.9600
20948SOL     OW70083   5.070   8.480  11.599 -0.0298 -0.0233  0.6449
20948SOL    HW170084   5.159   8.447  11.590 -0.3403 -0.8238  0.4549
20948SOL    HW270085   5.028   8.421  11.661 -0.8105 -0.4417 -0.2678
20949SOL     OW70086   4.657   1.063   0.838  0.0371 -0.0405 -0.1034
20949SOL    HW170087   4.604   1.045   0.915  0.2542  0.3958  0.1455
20949SOL    HW270088   4.661   0.979   0.792 -2.0480  0.2260 -0.8647
20950SOL     OW70089   0.888   3.212   6.398  0.5418 -0.1847  0.0120
20950SOL    HW170090   0.817   3.171   6.447  1.8527  0.6387  2.8292
20950SOL    HW270091   0.951   3.141   6.383 -0.0202 -0.5166 -0.8665
20951SOL     OW70092   7.458  12.277  10.935  0.4007 -0.1029  0.3571
20951SOL    HW170093   7.541  12.244  10.901  0.8335 -1.8470  2.8222
20951SOL    HW270094   7.482  12.326  11.013 -0.8323  0.1591  0.5950
20952SOL     OW70095  12.440   5.119   0.062 -0.3587  0.0492  0.7148
20952SOL    HW170096  12.527   5.155   0.078 -0.0620 -0.7157  0.8439
20952SOL    HW270097  12.385   5.158   0.130  0.0731 -0.1540  1.1829
20953SOL     OW70098   5.890   6.456   9.736  0.0170  0.2033 -0.0828
20953SOL    HW170099   5.959   6.390   9.740  0.3924  0.6408  1.0307
20953SOL    HW270100   5.853   6.447   9.648 -0.0417 -1.6009  0.0850
20954SOL     OW70101   5.654   6.308   5.055  0.2030 -0.1015  0.3377
20954SOL    HW170102   5.744   6.283   5.037  0.0169  0.3211 -1.4320
20954SOL    HW270103   5.657   6.404   5.063 -0.1626 -0.0161 -0.4149
20955SOL     OW70104  12.569   5.657   7.854  0.1662 -0.1942 -0.5931
20955SOL    HW170105  12.486   5.614   7.833  0.2512 -1.2128  1.0447
20955SOL    HW270106  12.604   5.608   7.928  1.6236  1.0080 -0.4398
20956SOL     OW70107  10.699   9.533   0.501 -0.6273 -0.4599 -0.2763
20956SOL    HW170108  10.722   9.551   0.410  0.6116 -2.1238 -0.3467
20956SOL    HW270109  10.692   9.437   0.505  1.2745 -0.5911  1.7714
20957SOL     OW70110  10.822   0.912   0.275  0.1343 -0.7012 -0.6791
20957SOL    HW170111  10.915   0.930   0.290  0.3342 -1.0552 -1.4047
20957SOL    HW270112  10.817   0.816   0.272 -0.5995 -0.7629  1.3393
20958SOL     OW70113   7.267   1.541   0.230 -0.6281 -0.0250  0.3566
20958SOL    HW170114   7.331   1.471   0.217 -0.2336  0.2244  0.9032
20958SOL    HW270115   7.271   1.559   0.324 -0.5849  0.8702  0.1865
20959SOL     OW70116   5.339   9.442   3.835 -0.2043 -0.2209 -0.0779
20959SOL    HW170117   5.330   9.434   3.740 -0.6490  0.0713 -0.0634
20959SOL    HW270118   5.387   9.525   3.847 -1.0773  0.2832 -0.0144
20960SOL     OW70119   9.582   3.264   0.613 -0.3589 -0.4116  0.4766
20960SOL    HW170120   9.662   3.255   0.665 -0.4072  0.0126  0.6344
20960SOL    HW270121   9.578   3.358   0.593 -0.8821 -0.4136  0.5718
20961SOL     OW70122   7.264   7.709  11.363  0.2627 -0.0659  0.1048
20961SOL    HW170123   7.234   7.625  11.397 -0.3110  0.3418  0.6291
20961SOL    HW270124   7.264   7.767  11.440  3.1392 -0.2247  0.3147
20962SOL     OW70125   1.331   6.478   0.125 -0.2844  0.0198 -0.0606
20962SOL    HW170126   1.420   6.479   0.091  1.2864  2.2696  3.5595
20962SOL    HW270127   1.319   6.389   0.159  0.1775 -0.5862 -1.4393
20963SOL     OW70128  10.569   4.460   0.368 -0.5261  0.1121  0.0978
20963SOL    HW170129  10.517   4.523   0.319 -0.0501 -0.7632 -1.5899
20963SOL    HW270130  10.517   4.379   0.364 -0.3789 -0.0289  0.8749
20964SOL     OW70131  10.679   8.644   5.319  0.3364 -0.4116 -0.3203
20964SOL    HW170132  10.685   8.731   5.358 -0.0413 -1.2612  1.7601
20964SOL    HW270133  10.768   8.623   5.291  0.9130 -0.3057  1.3730
20965SOL     OW70134  12.162   5.978   8.418 -0.4426  0.2948 -0.7839
20965SOL    HW170135  12.172   6.049   8.482 -0.9124 -0.3883  0.0668
20965SOL    HW270136  12.252   5.957   8.391 -0.2506  0.7083 -0.4826
20966SOL     OW70137  12.192   8.948   7.017 -0.2147  0.5518  0.4202
20966SOL    HW170138  12.249   9.009   7.063 -0.9702  1.9677 -0.4418
20966SOL    HW270139  12.251   8.898   6.961  0.3154  1.2429  0.3438
20967SOL     OW70140   9.251  11.168  10.150 -0.0959 -0.5407 -0.0022
20967SOL    HW170141   9.296  11.090  10.117  0.0176 -0.1988 -0.6744
20967SOL    HW270142   9.161  11.157  10.122 -0.5533 -1.4126  1.6780
20968SOL     OW70143  12.274  11.384   2.487 -0.1176 -0.0640 -0.6109
20968SOL    HW170144  12.367  11.406   2.479 -0.2881  0.1802 -2.4847
20968SOL    HW270145  12.228  11.462   2.455 -1.0301  0.1655  1.1387
20969SOL     OW70146   4.109   9.874   8.526 -0.1855 -0.7660  0.0266
20969SOL    HW170147   4.051   9.815   8.476  0.2756  0.4179 -2.0170
20969SOL    HW270148   4.171   9.906   8.461 -0.5525  2.1515  0.9890
20970SOL     OW70149   2.085   3.935   1.392  0.4886  0.4504  0.0425
20970SOL    HW170150   2.078   3.921   1.486  0.6740 -0.0288 -0.0144
20970SOL    HW270151   2.156   3.878   1.364 -0.3155 -0.2782 -0.5723
20971SOL     OW70152   7.853   2.433   2.077  0.2347 -0.1085  0.2402
20971SOL    HW170153   7.899   2.428   1.993 -1.2994  0.6727 -0.6810
20971SOL    HW270154   7.766   2.466   2.055  0.1556  1.2203  2.2742
20972SOL     OW70155   3.723   7.893   2.261  0.2760 -0.7733  0.2955
20972SOL    HW170156   3.687   7.977   2.230  0.6893 -0.6442  0.1547
20972SOL    HW270157   3.650   7.851   2.306 -0.0362 -0.4917  0.0595
20973SOL     OW70158  12.427  11.355   9.470 -0.0367 -0.0122 -0.3083
20973SOL    HW170159  12.393  11.441   9.446  2.5823  1.2190  0.0984
20973SOL    HW270160  12.496  11.338   9.406  0.2019 -1.3187  0.2756
20974SOL     OW70161   3.429   7.396   9.575 -0.1883  0.1918  0.0783
20974SOL    HW170162   3.340   7.374   9.603  0.1284 -0.8209  0.3164
20974SOL    HW270163   3.418   7.472   9.517 -1.0868  0.7751  0.9943
20975SOL     OW70164  10.532   9.493   1.774  0.4725  0.1999  0.1450
20975SOL    HW170165  10.549   9.500   1.680  1.4547 -0.5507  0.2473
20975SOL    HW270166  10.446   9.532   1.786 -0.3748 -1.1171 -1.2908
20976SOL     OW70167   9.068   5.065  11.822 -0.0248 -0.3514  0.3264
20976SOL    HW170168   9.000   5.007  11.788  0.6001 -0.6761 -0.4241
20976SOL    HW270169   9.148   5.035  11.779  0.2647  1.2958 -0.3955
20977SOL     OW70170   5.514   5.657  10.729 -0.6067 -0.1133 -0.1779
20977SOL    HW170171   5.495   5.566  10.709 -2.1693  0.4915 -1.7479
20977SOL    HW270172   5.569   5.686  10.656  1.9570 -0.3773  1.5384
20978SOL     OW70173   7.249  12.123   9.268  0.0162 -0.2388  0.5757
20978SOL    HW170174   7.193  12.125   9.346  2.8132  0.5672  2.7492
20978SOL    HW270175   7.220  12.197   9.215 -3.0901 -1.8316 -0.1544
20979SOL     OW70176   6.642   4.464   9.513  0.6230 -0.2208 -0.1614
20979SOL    HW170177   6.678   4.540   9.469  0.5088  0.3675  0.7335
20979SOL    HW270178   6.665   4.476   9.605  0.0741 -0.9545  0.0827
20980SOL     OW70179   5.778   7.525  10.844  0.1070 -0.3682 -0.2841
20980SOL    HW170180   5.726   7.575  10.782 -0.7689 -0.2024  0.5624
20980SOL    HW270181   5.856   7.579  10.859  0.0020 -0.0923 -0.7186
20981SOL     OW70182   2.981   4.577   7.794 -0.2264 -0.3944 -0.4140
20981SOL    HW170183   3.058   4.520   7.790 -0.2312 -0.3614 -1.1755
20981SOL    HW270184   2.918   4.536   7.735  0.4538  1.3467 -2.4919
20982SOL     OW70185   2.286  10.367   5.068 -0.1187 -0.1955 -0.4820
20982SOL    HW170186   2.355  10.410   5.118 -0.3267  0.6032 -0.8699
20982SOL    HW270187   2.253  10.435   5.009  0.2234 -1.1417 -1.8091
20983SOL     OW70188   9.016   7.414   2.453 -0.4643  0.3459 -0.1612
20983SOL    HW170189   9.003   7.349   2.384  1.1019  0.6236 -0.7674
20983SOL    HW270190   9.099   7.391   2.493  0.3423  2.1546 -0.6524
20984SOL     OW70191   9.938  10.064   2.158  0.2148 -0.0159  0.0992
20984SOL    HW170192   9.892  10.074   2.075 -1.1447  0.7559  0.9265
20984SOL    HW270193  10.023  10.106   2.144  0.3445 -0.6507 -1.1466
20985SOL     OW70194   6.019   6.690   1.304 -0.0908  0.7803 -0.3436
20985SOL    HW170195   6.112   6.687   1.281  0.1766  0.5440  0.6836
20985SOL    HW270196   5.976   6.632   1.241  0.5022  0.6481 -0.6342
20986SOL     OW70197   9.957   6.770   9.616  0.3024 -0.4129 -0.4176
20986SOL    HW170198  10.029   6.820   9.654 -1.3212  0.5991  1.4909
20986SOL    HW270199   9.903   6.835   9.572 -1.0516 -0.6380  0.8311
20987SOL     OW70200   5.030   3.004  12.150  0.0278 -0.3639  0.1213
20987SOL    HW170201   5.078   2.964  12.078  0.9269 -0.0981  0.5690
20987SOL    HW270202   5.063   2.961  12.229  0.1984  0.4501  0.5127
20988SOL     OW70203   2.813   8.166   1.765 -0.0602  0.1733  0.2549
20988SOL    HW170204   2.878   8.212   1.710 -1.2886 -1.3934 -2.7589
20988SOL    HW270205   2.865   8.122   1.832  2.4711 -2.7075 -3.2202
20989SOL     OW70206   5.015   7.133   3.334  0.6067 -0.0650  0.2867
20989SOL    HW170207   4.988   7.125   3.426 -0.7700 -2.1270 -0.2245
20989SOL    HW270208   5.027   7.042   3.305  2.4274  0.5762 -1.2158
20990SOL     OW70209   6.440  12.324  11.642 -0.2569  0.1042 -0.5080
20990SOL    HW170210   6.377  12.328  11.570  0.0263 -1.1723 -0.8493
20990SOL    HW270211   6.430  12.408  11.687 -0.2264  1.0754 -2.2110
20991SOL     OW70212   2.798   8.779  12.201  0.2232 -0.4471 -0.0069
20991SOL    HW170213   2.891   8.759  12.198  0.3658 -0.0424  1.2520
20991SOL    HW270214   2.793   8.874  12.209 -0.1704 -0.6151  2.7344
20992SOL     OW70215   1.996   1.179   0.717  0.4109  0.1202  0.3914
20992SOL    HW170216   2.070   1.120   0.700  0.2618  0.4137 -1.5106
20992SOL    HW270217   1.924   1.142   0.666 -0.3859  0.5940  1.1444
20993SOL     OW70218   4.147   5.989  10.137 -0.4191  0.2937 -0.0434
20993SOL    HW170219   4.234   6.028  10.148 -1.2984  2.8777 -1.3866
20993SOL    HW270220   4.114   5.981  10.226  0.5665  0.8660  0.3980
20994SOL     OW70221   0.802   7.679   9.499  0.6443 -0.7120  0.3464
20994SOL    HW170222   0.881   7.632   9.472  2.0449  0.6586  1.8099
20994SOL    HW270223   0.802   7.758   9.444  0.2869 -0.7148  0.3425
20995SOL     OW70224   9.566   2.416   7.210  0.2729 -0.0754 -0.5927
20995SOL    HW170225   9.477   2.447   7.223  0.5558  0.3190  0.5817
20995SOL    HW270226   9.610   2.488   7.165  0.3024  0.2288 -0.0819
20996SOL     OW70227   2.730   5.938   2.901 -0.2027 -0.1578  0.4304
20996SOL    HW170228   2.794   5.866   2.905 -0.5819 -0.5038  0.3588
20996SOL    HW270229   2.783   6.017   2.899  0.2153 -0.4108  1.0739
20997SOL     OW70230   1.797   8.090   3.902 -0.4786 -0.7887 -0.3420
20997SOL    HW170231   1.826   8.175   3.935 -2.0480  0.7565 -2.6460
20997SOL    HW270232   1.764   8.044   3.980 -0.8867  1.2650  0.7680
20998SOL     OW70233   0.194   4.508   9.025 -0.4182  0.0171 -0.6419
20998SOL    HW170234   0.270   4.506   9.083 -0.0654  0.6550 -1.0764
20998SOL    HW270235   0.156   4.420   9.032 -0.2310  0.0030  0.3454
20999SOL     OW70236   2.247   7.893   4.200 -0.1926  0.0741 -0.2845
20999SOL    HW170237   2.303   7.954   4.249  0.6427 -0.7291 -0.2320
20999SOL    HW270238   2.231   7.821   4.261 -1.8779  0.6102 -0.0466
21000SOL     OW70239   4.754   2.887   9.711  0.0881  0.4919 -0.1457
21000SOL    HW170240   4.830   2.875   9.654  1.2410  0.7552  1.2750
21000SOL    HW270241   4.721   2.974   9.689  2.0300  1.6544  1.2315
21001SOL     OW70242   6.050   5.631   7.353  0.0806  0.6098  0.0714
21001SOL    HW170243   6.073   5.677   7.434  0.0015  0.6576  0.0664
21001SOL    HW270244   5.962   5.662   7.332 -0.8130 -1.0311  1.1566
21002SOL     OW70245   2.997   9.598   2.337 -0.5914 -0.0865 -0.2697
21002SOL    HW170246   2.904   9.621   2.331 -0.6040 -0.2584 -0.8440
21002SOL    HW270247   3.038   9.674   2.379 -1.1182 -0.3871  0.8196
21003SOL     OW70248   7.712   0.217   5.899 -0.1305  0.4337 -0.6722
21003SOL    HW170249   7.675   0.281   5.838 -1.2046 -0.1363 -0.6324
21003SOL    HW270250   7.656   0.223   5.977 -0.3560 -0.6777 -0.7413
21004SOL     OW70251   5.721   7.681   8.927  0.8393  0.9224  0.2193
21004SOL    HW170252   5.673   7.722   8.998  1.4559  1.5708  0.2743
21004SOL    HW270253   5.784   7.623   8.970 -0.6496 -0.8671  0.1302
21005SOL     OW70254  11.030   4.413   1.412 -0.1577  0.2430 -0.5912
21005SOL    HW170255  10.991   4.328   1.394 -1.8921  0.9495 -0.3907
21005SOL    HW270256  10.959   4.464   1.452  1.4211  1.1187  1.2512
21006SOL     OW70257   3.820  10.104  10.066 -0.1580 -0.1784  0.6273
21006SOL    HW170258   3.870  10.182  10.041  0.1482 -0.2972  0.8640
21006SOL    HW270259   3.869  10.031  10.028 -0.0028 -0.3157  1.0816
21007SOL     OW70260   6.542   5.059   9.919  0.4774 -0.1258  0.9844
21007SOL    HW170261   6.621   5.009   9.903  0.3692 -0.1169  0.4098
21007SOL    HW270262   6.499   5.014   9.992  1.4624  0.4019  1.9216
21008SOL     OW70263  10.905   8.728   2.732  0.1833 -0.1078 -0.0485
21008SOL    HW170264  10.845   8.730   2.657  2.1217  0.9213 -1.6690
21008SOL    HW270265  10.949   8.644   2.725  1.0224  0.3703 -0.6402
21009SOL     OW70266   7.074   7.288   3.797 -0.3691  0.0665  0.0568
21009SOL    HW170267   7.022   7.338   3.733 -1.1749 -0.3759  0.3585
21009SOL    HW270268   7.164   7.295   3.764 -0.5490  1.1827 -0.2585
21010SOL     OW70269   9.136   8.120   9.346 -0.3940  0.0280  0.4728
21010SOL    HW170270   9.209   8.173   9.375 -0.4495 -2.0707  5.3756
21010SOL    HW270271   9.058   8.168   9.373 -0.7169  0.1161 -0.5479
21011SOL     OW70272   4.976  12.606   3.624  0.0364  0.4606 -0.1756
21011SOL    HW170273   4.949  12.533   3.679 -0.6085 -0.1502 -1.2895
21011SOL    HW270274   5.047  12.571   3.570 -1.2826  0.1917 -1.7776
21012SOL     OW70275   7.862  10.976   1.562  0.2140 -0.1113 -0.1119
21012SOL    HW170276   7.921  10.919   1.512  1.3948  0.9149  0.0612
21012SOL    HW270277   7.778  10.969   1.517  0.5830 -1.1974 -0.6869
21013SOL     OW70278   0.765   9.038   3.247  0.0329 -0.5737  0.6175
21013SOL    HW170279   0.692   9.100   3.256 -0.7544 -1.3684 -0.0480
21013SOL    HW270280   0.784   9.011   3.337 -2.0622 -2.0666  0.6859
21014SOL     OW70281   7.466   1.651   2.052  0.3409 -0.2804 -0.4585
21014SOL    HW170282   7.539   1.646   1.990  0.5366 -0.9481 -0.1856
21014SOL    HW270283   7.482   1.731   2.102  0.3642  0.0871 -1.0404
21015SOL     OW70284   5.026   3.221  10.332 -0.1571 -0.0955 -0.2243
21015SOL    HW170285   4.959   3.206  10.399  1.1387 -2.1886  0.7215
21015SOL    HW270286   5.025   3.140  10.280  1.3939 -0.0338 -0.3805
21016SOL     OW70287   0.813   6.478   5.304 -0.5198  0.6388  0.2869
21016SOL    HW170288   0.790   6.391   5.336 -0.6332  1.2823  2.0774
21016SOL    HW270289   0.864   6.462   5.225  0.0417 -1.0869  0.9529
21017SOL     OW70290  11.060   6.283   2.642 -0.2317  0.1273 -1.0185
21017SOL    HW170291  10.980   6.293   2.694  0.4798  0.9582 -0.0563
21017SOL    HW270292  11.037   6.320   2.557 -1.3273 -1.0038 -1.2505
21018SOL     OW70293   5.418   6.870   0.839  0.0841 -0.0285 -0.3556
21018SOL    HW170294   5.508   6.875   0.809 -0.2686 -1.6470 -1.8485
21018SOL    HW270295   5.420   6.904   0.928  1.9553  0.9803 -0.7416
21019SOL     OW70296   5.868  10.187  10.717  0.0405 -0.1485  0.0208
21019SOL    HW170297   5.805  10.132  10.764 -0.1576  1.0230  1.1707
21019SOL    HW270298   5.815  10.252  10.671  0.3360 -0.0006 -0.1184
21020SOL     OW70299  12.447   7.776   2.992 -0.2873 -0.2870  0.2980
21020SOL    HW170300  12.542   7.774   2.988 -0.2113  1.7950  0.2233
21020SOL    HW270301  12.419   7.781   2.901 -0.2854  2.5006  0.3808
21021SOL     OW70302   0.377   5.815   9.370 -0.4130  0.2115 -0.2740
21021SOL    HW170303   0.338   5.856   9.293  0.9550 -0.5555 -1.4314
21021SOL    HW270304   0.373   5.721   9.351 -2.3016 -0.1821  1.7370
21022SOL     OW70305   0.005   8.095   9.435 -0.3107 -0.0278  0.2669
21022SOL    HW170306  -0.000   8.003   9.409  0.1611 -0.0374  0.2058
21022SOL    HW270307   0.059   8.095   9.514 -0.5741  0.1648  0.4530
21023SOL     OW70308   8.652   1.612   2.067  0.8549  0.1666 -0.2932
21023SOL    HW170309   8.585   1.586   2.131  0.8306  0.6563 -0.1132
21023SOL    HW270310   8.619   1.695   2.031  0.3933 -0.5777 -1.6367
21024SOL     OW70311   2.824  10.854   3.361  0.1473 -0.1664  0.2691
21024SOL    HW170312   2.897  10.874   3.303  0.2634 -1.1043  0.0861
21024SOL    HW270313   2.747  10.855   3.303  0.3687 -2.0069 -0.1156
21025SOL     OW70314   3.430   5.745   8.013  0.0137  0.1166 -0.1114
21025SOL    HW170315   3.493   5.683   8.050 -0.4453 -1.4616 -1.7991
21025SOL    HW270316   3.483   5.798   7.953  0.2168  0.6399  0.5273
21026SOL     OW70317   0.418   9.915   2.338  0.4974 -0.1361  0.7405
21026SOL    HW170318   0.414   9.992   2.280  0.5918 -0.2809  0.5428
21026SOL    HW270319   0.504   9.921   2.379  0.7013 -0.4029  0.3570
21027SOL     OW70320   2.522   2.492   8.431 -0.0370  0.1150  0.1039
21027SOL    HW170321   2.566   2.540   8.501  0.9677 -2.3183  1.2510
21027SOL    HW270322   2.567   2.522   8.351  1.3018  0.3057  0.8889
21028SOL     OW70323   3.010   0.557  11.291  0.0177  0.3453  0.2112
21028SOL    HW170324   3.083   0.558  11.229  0.4882 -0.9908  0.7267
21028SOL    HW270325   3.050   0.543  11.376 -0.7733  0.3864  0.6032
21029SOL     OW70326   0.031   5.738   6.638  0.0527 -0.2221  0.6449
21029SOL    HW170327  -0.038   5.784   6.686 -0.2563 -1.2906  1.2506
21029SOL    HW270328   0.001   5.647   6.633  1.5585 -0.7927  1.2252
21030SOL     OW70329   5.738   8.441   6.328  0.1995  0.4851 -0.1547
21030SOL    HW170330   5.761   8.460   6.237 -2.3954 -2.0963 -1.5403
21030SOL    HW270331   5.673   8.507   6.351 -1.5409 -0.7148 -1.4150
21031SOL     OW70332   0.173  11.878  10.443 -0.3030 -0.5412  0.1795
21031SOL    HW170333   0.125  11.796  10.427  0.3455 -1.0464  0.7503
21031SOL    HW270334   0.248  11.873  10.383 -1.1019  0.3831 -0.9253
21032SOL     OW70335   0.969   5.505   6.899  0.0225 -0.6896 -0.2778
21032SOL    HW170336   0.957   5.519   6.805 -1.3785 -1.0035 -0.1758
21032SOL    HW270337   0.887   5.536   6.938  0.7471 -0.1883  0.8824
21033SOL     OW70338   1.057   9.181   0.119  0.1552  0.2946  0.4713
21033SOL    HW170339   1.007   9.136   0.187 -0.5586 -0.6218 -0.6345
21033SOL    HW270340   1.014   9.157   0.037  0.9491  1.4478 -0.3068
21034SOL     OW70341   8.882   6.586  12.253  0.0209 -0.0722 -0.8179
21034SOL    HW170342   8.873   6.680  12.244  0.7296  0.1929  0.8379
21034SOL    HW270343   8.974   6.573  12.276 -0.3057 -1.0630 -0.0054
21035SOL     OW70344   0.308   2.878   3.639  0.1659 -0.2106 -0.3445
21035SOL    HW170345   0.280   2.932   3.713  1.7687  1.2112 -0.6996
21035SOL    HW270346   0.228   2.859   3.590 -0.8023 -0.4760  1.2807
21036SOL     OW70347   0.999  11.054  11.493  0.0417 -0.0920 -0.5002
21036SOL    HW170348   0.940  11.073  11.566  1.5591 -1.2697  1.0939
21036SOL    HW270349   0.996  10.959  11.483  0.0552  0.0190 -1.8534
21037SOL     OW70350   5.553   0.784   6.777 -0.4182  0.0842 -0.1141
21037SOL    HW170351   5.490   0.802   6.707  0.0389  1.4324 -0.1989
21037SOL    HW270352   5.525   0.699   6.813 -2.7893  1.0094  0.4132
21038SOL     OW70353  10.576   3.643   6.978 -0.5612 -0.2284  0.4247
21038SOL    HW170354  10.656   3.676   7.019 -0.6606 -0.2697  0.6517
21038SOL    HW270355  10.593   3.650   6.884 -0.4160  0.0702  0.4704
21039SOL     OW70356   7.055   5.908  11.407  0.7192  0.2108 -0.4578
21039SOL    HW170357   7.060   5.814  11.425  1.0876  0.0740 -1.2561
21039SOL    HW270358   7.139   5.943  11.438 -0.5702  0.8320  2.7976
21040SOL     OW70359   8.689   0.377   8.814 -0.2770 -0.1597 -0.2815
21040SOL    HW170360   8.751   0.387   8.886  0.7994 -3.0775 -0.6916
21040SOL    HW270361   8.693   0.461   8.768  0.7214  0.9471  1.6881
21041SOL     OW70362   6.136  12.356   8.519 -0.2307  0.0885 -0.3187
21041SOL    HW170363   6.183  12.283   8.558 -0.2205  0.3049  0.0730
21041SOL    HW270364   6.050  12.354   8.560  0.4239  1.5289  1.2379
21042SOL     OW70365   8.152  10.774   7.083  0.4490  0.4032 -0.2460
21042SOL    HW170366   8.207  10.817   7.018  1.3665  0.4432  0.5249
21042SOL    HW270367   8.210  10.709   7.124  0.5063  1.6509  1.8155
21043SOL     OW70368   2.942  12.255   4.717  0.5393 -0.2973 -0.2183
21043SOL    HW170369   2.975  12.276   4.805  2.5108  0.6628 -1.1058
21043SOL    HW270370   2.927  12.341   4.677  1.0177 -0.6843 -1.2613
21044SOL     OW70371   7.745   1.647   1.427 -0.4903  0.0767 -0.0180
21044SOL    HW170372   7.840   1.641   1.416 -0.3130  0.2797  1.1720
21044SOL    HW270373   7.709   1.649   1.338  0.6076 -0.1528 -0.4755
21045SOL     OW70374   7.551   3.880   3.139 -0.2270  0.8085 -0.6539
21045SOL    HW170375   7.587   3.858   3.053 -0.4475 -0.1536 -0.5129
21045SOL    HW270376   7.528   3.973   3.133 -0.3678  0.7173 -1.6801
21046SOL     OW70377   0.276   3.630   2.646 -0.4508 -0.6367 -0.1998
21046SOL    HW170378   0.308   3.591   2.727 -1.1513 -0.9354 -0.0631
21046SOL    HW270379   0.283   3.560   2.581 -1.4966 -0.9366 -0.0044
21047SOL     OW70380   9.355  11.051   0.291 -0.1197 -0.0553 -0.3681
21047SOL    HW170381   9.300  11.008   0.357  1.5869 -1.0819  0.4622
21047SOL    HW270382   9.402  10.979   0.250 -0.5799  0.6478 -2.2191
21048SOL     OW70383   4.514   4.990   7.258 -0.5525 -0.4137  0.1663
21048SOL    HW170384   4.554   5.067   7.297 -0.8818 -0.4309  0.5463
21048SOL    HW270385   4.475   4.943   7.333 -0.0744 -1.1131 -0.0097
21049SOL     OW70386   6.292   9.747   1.116 -0.6429 -0.3219 -0.0084
21049SOL    HW170387   6.255   9.665   1.148  0.3812 -1.0161 -0.5408
21049SOL    HW270388   6.384   9.744   1.142 -0.6662  0.8267  0.2739
21050SOL     OW70389   5.527   1.753   2.727  0.5760 -0.3970 -0.4529
21050SOL    HW170390   5.556   1.844   2.729  1.5345 -0.6793 -0.6354
21050SOL    HW270391   5.609   1.702   2.728  0.0540 -1.2539 -0.1703
21051SOL     OW70392   7.269   6.228  11.141 -0.1329  0.3114 -0.4261
21051SOL    HW170393   7.327   6.159  11.107  1.3818  1.1244  0.4041
21051SOL    HW270394   7.289   6.231  11.235 -3.5747 -1.2933  0.5368
21052SOL     OW70395   7.407   9.493   0.354  0.0048  0.1218 -0.2066
21052SOL    HW170396   7.384   9.454   0.439 -0.0913 -0.0124 -0.2952
21052SOL    HW270397   7.344   9.456   0.293  0.1715  0.1044 -0.3671
21053SOL     OW70398  12.264   4.175   6.711  0.2893  0.0990 -0.7647
21053SOL    HW170399  12.311   4.252   6.678 -1.3980  1.2426 -0.6751
21053SOL    HW270400  12.179   4.179   6.667 -0.0439 -1.4151 -0.3213
21054SOL     OW70401   8.516   9.628   0.960 -0.5861  0.2050 -0.1926
21054SOL    HW170402   8.507   9.534   0.945 -1.0490  0.1263  0.5632
21054SOL    HW270403   8.456   9.668   0.897  0.7605  0.0870 -1.6195
21055SOL     OW70404   7.256   7.324  10.251  0.2471  0.7275  0.0618
21055SOL    HW170405   7.301   7.305  10.333  0.5351 -0.9385 -0.4430
21055SOL    HW270406   7.304   7.397  10.213  1.6023 -0.0321  0.2686
21056SOL     OW70407   9.302   1.044   1.137  0.4155  0.3597  0.4674
21056SOL    HW170408   9.268   1.101   1.207  1.3058  2.4869 -0.7380
21056SOL    HW270409   9.378   1.001   1.177 -0.4671 -0.2839  1.5076
21057SOL     OW70410   1.628   5.800  12.679 -0.2378  0.4482  0.3711
21057SOL    HW170411   1.544   5.771  12.644 -0.5208  0.7132  0.8260
21057SOL    HW270412   1.628   5.895  12.667 -0.2234  0.5099  0.8396
21058SOL     OW70413   9.172  10.507   4.292 -0.3162  0.4808 -0.0301
21058SOL    HW170414   9.102  10.541   4.347 -0.5307 -0.2118  0.1238
21058SOL    HW270415   9.128  10.452   4.227  0.0747  0.0625  0.0504
21059SOL     OW70416  12.458   6.231   2.353  0.2903  0.1797  0.4866
21059SOL    HW170417  12.445   6.151   2.403 -0.3285 -1.0843 -1.5746
21059SOL    HW270418  12.536   6.214   2.299  0.5275  1.2119  0.4741
21060SOL     OW70419   3.679   8.724   4.114  0.4992 -0.0769  0.0385
21060SOL    HW170420   3.697   8.802   4.166 -0.7412 -0.8515  1.7154
21060SOL    HW270421   3.620   8.754   4.045  1.1506  0.7259 -0.1830
21061SOL     OW70422   0.762   9.803   9.964  0.1899  0.0076 -0.3096
21061SOL    HW170423   0.678   9.813   9.920 -1.0813  1.1496  2.1431
21061SOL    HW270424   0.782   9.709   9.958 -1.8309 -0.4775 -0.0082
21062SOL     OW70425  11.525   7.024  11.390 -0.0105 -0.2766 -0.2304
21062SOL    HW170426  11.601   7.068  11.429 -0.6763  1.0281 -0.3832
21062SOL    HW270427  11.496   6.963  11.458 -1.0844  1.8826  1.3890
21063SOL     OW70428   7.244   5.222   0.002 -0.0122 -0.0265 -0.7438
21063SOL    HW170429   7.193   5.145  -0.023  1.0247 -0.9577 -0.0980
21063SOL    HW270430   7.254   5.214   0.096  1.6285 -0.0790 -0.8984
21064SOL     OW70431   7.138  11.359   7.744  0.5175  0.3786  0.2869
21064SOL    HW170432   7.146  11.447   7.705  1.8340  0.1185 -0.0500
21064SOL    HW270433   7.045  11.338   7.733  0.3330  1.4035 -0.3501
21065SOL     OW70434   8.587   8.009   9.968 -0.5583  0.0617  0.5881
21065SOL    HW170435   8.516   8.059  10.009 -1.1073 -0.4530  0.2796
21065SOL    HW270436   8.546   7.967   9.893  0.1349 -0.0615  0.2748
21066SOL     OW70437   6.275   0.101  12.042 -0.4164 -0.5446  0.4583
21066SOL    HW170438   6.222   0.099  11.962  2.8328  0.2449 -1.9339
21066SOL    HW270439   6.226   0.158  12.101 -2.6243 -0.5740 -1.2031
21067SOL     OW70440   7.336   1.101   6.544 -0.7148 -0.0674 -1.1987
21067SOL    HW170441   7.260   1.152   6.518 -1.3147 -0.0383  0.5481
21067SOL    HW270442   7.307   1.050   6.619  0.9022 -0.2897 -0.6797
21068SOL     OW70443   0.399   7.358   3.949 -0.6703  0.4709  0.0389
21068SOL    HW170444   0.321   7.376   4.002 -0.7421  3.2882 -0.8842
21068SOL    HW270445   0.454   7.436   3.959  2.2017 -1.4809  0.7888
21069SOL     OW70446   5.723   5.550   7.256 -0.0232  0.1794  0.4191
21069SOL    HW170447   5.751   5.522   7.344 -0.8588 -0.7533  0.4098
21069SOL    HW270448   5.703   5.643   7.266  0.8184  0.3126  0.9807
21070SOL     OW70449   2.182   7.960   5.631  0.0065  0.8645  0.3734
21070SOL    HW170450   2.120   8.026   5.600 -0.7110  0.3663  0.7124
21070SOL    HW270451   2.245   8.010   5.683  0.3756  1.4947 -0.6309
21071SOL     OW70452   9.933   9.042   1.595 -0.0204  0.3791  0.2795
21071SOL    HW170453  10.027   9.026   1.602 -0.1086 -0.2257  0.1650
21071SOL    HW270454   9.893   8.973   1.647 -0.3590  1.9224  2.1663
21072SOL     OW70455  11.940   3.630   9.134 -0.1561  0.0054  0.0611
21072SOL    HW170456  11.920   3.683   9.057 -0.9888 -0.8347 -0.3268
21072SOL    HW270457  11.908   3.681   9.208 -0.6648  0.1936 -0.2840
21073SOL     OW70458   7.330   5.596   8.446 -0.4297  0.3976  0.3874
21073SOL    HW170459   7.409   5.557   8.485 -0.0524  1.0613  0.3003
21073SOL    HW270460   7.258   5.560   8.498 -0.2124 -1.4494 -0.5331
21074SOL     OW70461   8.702  10.471   2.032 -0.3444  0.2075 -0.3088
21074SOL    HW170462   8.776  10.529   2.049 -0.3284 -0.0211  0.4545
21074SOL    HW270463   8.738  10.383   2.044 -0.6495  0.0834 -0.3102
21075SOL     OW70464   8.994   7.557   4.385  0.3521  0.5691 -0.2105
21075SOL    HW170465   9.038   7.641   4.373  1.3127  0.0083 -0.6817
21075SOL    HW270466   8.980   7.524   4.297  0.0239  0.1964 -0.0224
21076SOL     OW70467   0.653   0.746  11.391 -0.7908  0.6292 -0.0449
21076SOL    HW170468   0.678   0.811  11.457 -1.2356  2.2812 -1.4060
21076SOL    HW270469   0.557   0.751  11.388 -0.7372  1.2853 -1.4319
21077SOL     OW70470   8.384   9.894   9.926 -0.4702 -0.0080  0.3432
21077SOL    HW170471   8.466   9.931   9.959 -0.9885  2.4105 -0.7895
21077SOL    HW270472   8.361   9.826   9.988  2.1656 -0.4696  0.9290
21078SOL     OW70473   8.309   6.178   2.825  0.0170 -0.0338 -0.8201
21078SOL    HW170474   8.299   6.083   2.830 -0.9434  0.0950 -0.1252
21078SOL    HW270475   8.268   6.211   2.904 -0.6337  1.0287 -1.5684
21079SOL     OW70476   1.054   9.739  10.868  0.6960  0.4987  0.7668
21079SOL    HW170477   0.979   9.706  10.819  0.8509 -0.4042  1.1226
21079SOL    HW270478   1.065   9.829  10.836  2.1794 -0.6931 -2.5261
21080SOL     OW70479   5.207  12.397   3.723  0.0440  0.6759 -0.5359
21080SOL    HW170480   5.121  12.359   3.702  0.0363 -0.4219  1.2227
21080SOL    HW270481   5.258  12.324   3.757  0.4480  1.9349  1.8231
21081SOL     OW70482   7.312   6.142   5.790  0.4217 -0.6475 -0.2090
21081SOL    HW170483   7.279   6.225   5.756  1.5973 -0.1604 -0.1920
21081SOL    HW270484   7.274   6.136   5.878 -1.0059 -0.9473 -0.8169
21082SOL     OW70485   2.119   5.382   8.091  1.0234 -0.1110 -0.7150
21082SOL    HW170486   2.100   5.460   8.143 -0.8401 -0.9704 -0.0278
21082SOL    HW270487   2.104   5.409   8.001 -0.0074  0.2351 -0.4545
21083SOL     OW70488  11.698  12.338   2.126 -0.6021  0.3769 -0.3765
21083SOL    HW170489  11.707  12.418   2.178 -0.2972  1.1226 -1.5442
21083SOL    HW270490  11.616  12.300   2.156  0.5379 -0.3290  2.1037
21084SOL     OW70491   3.735   5.382   5.718  0.7027 -0.0143  0.5987
21084SOL    HW170492   3.802   5.435   5.761  1.0705 -0.8520  1.0723
21084SOL    HW270493   3.742   5.296   5.760 -0.4323 -0.2084  0.4108
21085SOL     OW70494   1.052   3.406   6.013  0.1573  0.4424  0.5760
21085SOL    HW170495   1.056   3.363   5.928 -0.4217  0.3483  0.5929
21085SOL    HW270496   1.030   3.337   6.075 -3.4075  1.1105  0.2564
21086SOL     OW70497  12.511   3.291   5.790 -0.2091  0.2048 -0.1112
21086SOL    HW170498  12.580   3.336   5.838 -0.3995  0.8971 -0.4661
21086SOL    HW270499  12.552   3.211   5.758  0.0499 -0.0297  0.7818
21087SOL     OW70500   8.862   1.903   3.422  0.3646 -0.1549  0.5373
21087SOL    HW170501   8.880   1.854   3.503  0.8573 -0.5940  0.1663
21087SOL    HW270502   8.946   1.906   3.377  0.1688  0.4089  0.2103
21088SOL     OW70503   3.757   5.275  10.212  0.0811  0.1465 -0.0587
21088SOL    HW170504   3.754   5.367  10.237  2.5060  0.1835  0.3491
21088SOL    HW270505   3.795   5.230  10.287 -0.2065 -1.0535 -0.5945
21089SOL     OW70506   4.899   5.552   8.772  0.7307 -0.3147  0.5196
21089SOL    HW170507   4.812   5.587   8.753 -0.0477 -1.1497  2.2634
21089SOL    HW270508   4.882   5.465   8.809  2.3286 -0.5893  0.6766
21090SOL     OW70509   2.855   5.704   9.050 -0.4326 -0.6226  0.4308
21090SOL    HW170510   2.804   5.778   9.017  0.4409  0.1490  0.7338
21090SOL    HW270511   2.835   5.701   9.144  1.6108  1.0497  1.0039
21091SOL     OW70512  12.521  10.135   8.381  0.0798 -0.0072  0.7931
21091SOL    HW170513  12.475  10.217   8.370  0.9531  0.6180  1.6032
21091SOL    HW270514  12.606  10.160   8.416  1.3065 -1.0629 -1.2379
21092SOL     OW70515   9.448   6.249   7.561  0.5028 -0.0941  0.1433
21092SOL    HW170516   9.476   6.257   7.470  0.7447  0.3069  0.2483
21092SOL    HW270517   9.529   6.247   7.611  0.4341  2.9968  0.6122
21093SOL     OW70518   2.307   6.394   4.382  0.1698 -0.5021 -0.1881
21093SOL    HW170519   2.328   6.484   4.357  2.4341 -0.8524  0.2047
21093SOL    HW270520   2.392   6.353   4.394 -0.7581 -1.8116  2.8767
21094SOL     OW70521  10.095   2.063   6.643  0.1660 -0.3761 -0.0832
21094SOL    HW170522  10.185   2.068   6.612  0.3748 -1.5254  0.3147
21094SOL    HW270523  10.083   1.973   6.672  0.3800  0.7321  4.2687
21095SOL     OW70524  12.641   2.297   3.691  0.4570  0.0687 -0.0496
21095SOL    HW170525  12.611   2.262   3.607 -1.0617 -2.3785  1.3962
21095SOL    HW270526  12.725   2.338   3.671 -0.4662  0.7898 -2.9704
21096SOL     OW70527   0.435   2.877   0.052  0.8873 -0.3697  0.2163
21096SOL    HW170528   0.381   2.821  -0.003  1.6213 -0.3867 -0.5019
21096SOL    HW270529   0.437   2.832   0.137  0.7001 -0.9386 -0.0778
21097SOL     OW70530   8.455   6.060   4.928  0.3171 -0.2520 -0.6432
21097SOL    HW170531   8.491   6.122   4.864  1.2709  0.7990  0.8325
21097SOL    HW270532   8.520   5.990   4.932  0.0930 -0.4882 -1.0478
21098SOL     OW70533   8.900   4.314   1.412 -0.1178 -0.6083  0.2581
21098SOL    HW170534   8.869   4.237   1.364 -1.1991 -0.3071  0.4490
21098SOL    HW270535   8.890   4.386   1.351 -0.1106 -0.4530  0.4398
21099SOL     OW70536   8.790  12.167   5.359  0.1878  0.1868 -0.0911
21099SOL    HW170537   8.857  12.127   5.303  0.4167 -0.3470  0.5480
21099SOL    HW270538   8.717  12.106   5.357 -1.0894  1.6806 -2.3313
21100SOL     OW70539   6.656   6.657  11.030  0.1505  0.2834 -1.0582
21100SOL    HW170540   6.630   6.594  10.964  1.0741 -2.3504  0.9147
21100SOL    HW270541   6.752   6.649  11.036  0.0918  0.3364  0.6229
21101SOL     OW70542   4.885   2.872  10.435  0.2353  0.1867 -0.0512
21101SOL    HW170543   4.838   2.798  10.397 -1.4869  1.9348 -1.5266
21101SOL    HW270544   4.912   2.924  10.359 -0.0175  1.8864  0.9908
21102SOL     OW70545  10.392   6.306   1.260  0.2973 -0.0238  0.3954
21102SOL    HW170546  10.451   6.270   1.193 -0.3986 -0.1226 -0.1716
21102SOL    HW270547  10.382   6.398   1.235  1.7950  0.5167  1.6427
21103SOL     OW70548  11.865  12.573   7.912  0.0029 -0.1490  0.3230
21103SOL    HW170549  11.915  12.508   7.862 -0.6181 -0.9831  0.7597
21103SOL    HW270550  11.882  12.552   8.003 -0.1293  0.3697  0.4704
21104SOL     OW70551  11.409   4.195   7.276  0.1418  0.4185  0.0014
21104SOL    HW170552  11.390   4.101   7.281 -0.2794  0.4827 -0.3242
21104SOL    HW270553  11.472   4.203   7.205  1.9087  0.1368  1.4552
21105SOL     OW70554   9.905  11.605  12.523 -0.5629 -0.2300 -0.1866
21105SOL    HW170555   9.859  11.689  12.527 -0.9871 -0.4679  0.0594
21105SOL    HW270556   9.877  11.567  12.440 -0.1510 -0.0075 -0.4296
21106SOL     OW70557   1.466   2.318  12.489 -0.6013 -0.3498  0.6495
21106SOL    HW170558   1.405   2.246  12.481  0.5691 -1.2162 -1.1529
21106SOL    HW270559   1.533   2.287  12.550  0.0881 -0.9716 -0.3925
21107SOL     OW70560  12.159   8.786   8.008 -0.1367 -0.3571 -0.2916
21107SOL    HW170561  12.115   8.870   7.995  0.6635  0.1060 -0.0791
21107SOL    HW270562  12.237   8.807   8.059 -0.5322 -1.4062  0.7913
21108SOL     OW70563   6.637  11.140  10.686  0.0950  0.0022  0.7185
21108SOL    HW170564   6.543  11.122  10.692  0.2343 -1.4675 -0.8920
21108SOL    HW270565   6.647  11.228  10.723 -2.2739  1.1695 -1.1417
21109SOL     OW70566   1.523   3.322   1.101 -0.1660 -0.2045 -1.0740
21109SOL    HW170567   1.499   3.241   1.145  1.2962  0.3472  0.8546
21109SOL    HW270568   1.484   3.391   1.155  1.1660  0.4678 -0.9271
21110SOL     OW70569   5.108  12.036   5.971  0.3536  0.4520  0.2916
21110SOL    HW170570   5.073  12.044   6.060  1.3976 -1.0398  0.8739
21110SOL    HW270571   5.186  12.092   5.971  1.2602 -0.7673  0.8463
21111SOL     OW70572  11.900   9.726  11.916 -0.6710  0.3715  0.5461
21111SOL    HW170573  11.957   9.742  11.841 -1.2373 -1.2635 -0.2631
21111SOL    HW270574  11.819   9.772  11.896 -0.3882  0.9653  0.7423
21112SOL     OW70575   7.978   8.886  11.494 -0.4491  0.5961 -0.1109
21112SOL    HW170576   8.028   8.870  11.574  1.3763 -2.4317 -1.6982
21112SOL    HW270577   7.892   8.848  11.511 -0.8360  1.9125  1.0863
21113SOL     OW70578   3.142   4.278   1.090 -0.1683 -0.2647  0.4269
21113SOL    HW170579   3.163   4.360   1.134 -4.2920  0.6290  1.1703
21113SOL    HW270580   3.109   4.304   1.004  0.4113 -1.3575 -0.1524
21114SOL     OW70581  10.328  11.574   5.672  0.4856 -0.8305 -0.1762
21114SOL    HW170582  10.286  11.594   5.589 -1.5205 -0.1552  0.9355
21114SOL    HW270583  10.336  11.658   5.717 -0.4437 -1.4254  1.1699
21115SOL     OW70584   6.108   4.356   1.481  0.4356 -0.5180  0.1588
21115SOL    HW170585   6.044   4.343   1.412 -1.1066  0.1014  1.3975
21115SOL    HW270586   6.098   4.448   1.506 -1.2135 -1.3537  3.1365
21116SOL     OW70587   5.948  12.695   9.254  0.2801  0.1459 -0.2520
21116SOL    HW170588   5.998  12.623   9.217  1.2358 -0.2768  1.7428
21116SOL    HW270589   5.860  12.660   9.266  0.2657 -0.0785 -0.9453
21117SOL     OW70590   9.734  11.313   1.629 -0.0019 -0.2061  0.1239
21117SOL    HW170591   9.806  11.376   1.627 -0.7104  0.5954 -1.2576
21117SOL    HW270592   9.718  11.298   1.723  1.2099  0.4418  0.4544
21118SOL     OW70593   6.894   0.757   6.381 -0.4842  0.0634  0.1019
21118SOL    HW170594   6.920   0.847   6.398  0.6413 -0.1121 -0.5795
21118SOL    HW270595   6.805   0.750   6.417 -0.0128  1.0045  1.5180
21119SOL     OW70596   1.412   8.305  11.618 -0.7244  0.2884  0.1422
21119SOL    HW170597   1.428   8.398  11.637 -0.2091  0.8068 -2.4023
21119SOL    HW270598   1.491   8.261  11.649 -0.4290  0.8777  0.2595
21120SOL     OW70599   4.469   3.021   3.959  0.0172  0.2803 -0.0118
21120SOL    HW170600   4.542   3.029   4.020 -0.2751  0.4923  0.3202
21120SOL    HW270601   4.451   3.111   3.931  2.2602 -0.0468 -2.9984
21121SOL     OW70602   3.810   9.481   9.559 -0.1740 -0.4844  0.1847
21121SOL    HW170603   3.836   9.486   9.652  2.6423 -0.3663 -0.5024
21121SOL    HW270604   3.805   9.573   9.531 -1.2317 -0.5149  0.2476
21122SOL     OW70605  11.183   5.476   6.672  0.2571  0.2373  0.0775
21122SOL    HW170606  11.185   5.383   6.650  0.0883  0.1579  0.3970
21122SOL    HW270607  11.204   5.520   6.590 -1.0220 -0.0287 -0.4217
21123SOL     OW70608   2.688   2.576   6.398 -0.0145 -0.3043 -0.0175
21123SOL    HW170609   2.612   2.520   6.408 -1.0603  1.1380  0.4240
21123SOL    HW270610   2.702   2.582   6.303 -1.6672  0.9444 -0.2209
21124SOL     OW70611   3.303  12.222   3.907  0.2031  0.1690  0.0804
21124SOL    HW170612   3.215  12.250   3.879  0.6729  0.1471 -1.5264
21124SOL    HW270613   3.288  12.139   3.952 -0.6725  0.5366  0.4999
21125SOL     OW70614  12.555   0.821   1.812  0.4580 -0.3827 -0.1593
21125SOL    HW170615  12.530   0.780   1.895 -0.2103  1.1905  0.4427
21125SOL    HW270616  12.475   0.817   1.759  0.2855  0.4381  0.0310
21126SOL     OW70617   7.610   5.035  10.879 -0.3636 -0.3761 -0.6384
21126SOL    HW170618   7.705   5.043  10.890 -0.5506  0.9743  0.2913
21126SOL    HW270619   7.592   4.942  10.893  0.8241 -0.6812 -0.9647
21127SOL     OW70620   0.123   4.464   1.996  0.2738 -0.6578 -0.5853
21127SOL    HW170621   0.087   4.516   2.067 -1.6830 -0.6143 -1.5383
21127SOL    HW270622   0.181   4.401   2.039  0.5511  0.5267  0.8366
21128SOL     OW70623   6.130  12.124   4.888 -0.3404 -0.1096  0.7090
21128SOL    HW170624   6.084  12.122   4.972  0.4760  0.1739  1.1778
21128SOL    HW270625   6.198  12.057   4.896  0.0476  0.2441  0.4746
21129SOL     OW70626  11.836   5.117   9.612 -0.5173 -0.0117 -0.0375
21129SOL    HW170627  11.864   5.160   9.531  2.5559 -1.9998 -0.1847
21129SOL    HW270628  11.797   5.187   9.664  0.4296  2.0276 -1.9142
21130SOL     OW70629   9.223   1.208  11.967  0.6005  0.1806 -1.1258
21130SOL    HW170630   9.297   1.268  11.977  0.5691  0.2353 -1.2283
21130SOL    HW270631   9.181   1.207  12.053  1.3955 -0.7264 -0.7237
21131SOL     OW70632   9.072   8.477  10.963  0.0801 -0.5743 -0.1983
21131SOL    HW170633   9.077   8.490  10.868  1.1015 -0.7731 -0.1785
21131SOL    HW270634   9.136   8.409  10.982 -0.4656 -0.8959  0.5797
21132SOL     OW70635   2.171   0.378   1.220 -0.3766 -0.1055  0.3253
21132SOL    HW170636   2.258   0.399   1.255 -0.0585 -0.4190 -0.2521
21132SOL    HW270637   2.182   0.291   1.180 -1.2525 -0.6784  1.2652
21133SOL     OW70638   1.942   4.504   4.241 -0.4467  0.0284 -0.3235
21133SOL    HW170639   1.859   4.531   4.280 -0.5070  1.0744 -1.1236
21133SOL    HW270640   1.962   4.573   4.176 -0.0377 -1.2814 -1.6510
21134SOL     OW70641   3.613   7.317   4.644 -0.0337 -0.3725 -0.1743
21134SOL    HW170642   3.562   7.295   4.567  0.2296 -0.3572 -0.3548
21134SOL    HW270643   3.602   7.411   4.655 -1.9505 -0.7009  1.1661
21135SOL     OW70644   2.481   3.651   4.569 -0.1488  0.2175 -0.2785
21135SOL    HW170645   2.390   3.674   4.589  0.4056  3.2005 -0.7438
21135SOL    HW270646   2.517   3.620   4.653 -1.4533 -0.6113 -0.0011
21136SOL     OW70647   2.276   8.201   0.126 -0.0892 -0.1540  0.2815
21136SOL    HW170648   2.208   8.135   0.140  1.5071 -1.5796  1.6954
21136SOL    HW270649   2.337   8.161   0.065 -1.5067  1.9582 -2.7534
21137SOL     OW70650   9.628   7.831   2.463  0.1808 -0.4062  0.1050
21137SOL    HW170651   9.694   7.831   2.394  0.1792 -1.1066  0.1017
21137SOL    HW270652   9.545   7.847   2.418  0.5624  3.3696  0.3639
21138SOL     OW70653   7.667   1.726   1.175  0.1930  0.0530 -0.2712
21138SOL    HW170654   7.733   1.734   1.107  1.3847  0.2809  0.8642
21138SOL    HW270655   7.611   1.802   1.164  1.6269  1.2471  0.2716
21139SOL     OW70656   2.161  10.033   7.517  0.3763 -0.1337  0.3410
21139SOL    HW170657   2.152   9.963   7.582  3.5317 -0.5004  0.5480
21139SOL    HW270658   2.180  10.111   7.568  0.8385  0.0121 -0.0479
21140SOL     OW70659  12.071   6.930   6.291  0.5868  0.3743 -0.0298
21140SOL    HW170660  12.087   6.847   6.337  0.5304 -0.3290 -1.2396
21140SOL    HW270661  12.158   6.968   6.279  0.9150 -0.7917 -1.7479
21141SOL     OW70662  10.212   2.182  11.579 -0.4105  0.3521  0.3306
21141SOL    HW170663  10.180   2.261  11.623 -2.1159 -0.3168  0.3602
21141SOL    HW270664  10.142   2.118  11.590  0.7293 -1.0303 -0.1202
21142SOL     OW70665   2.229  10.992   3.594  0.1077 -0.2628  0.1871
21142SOL    HW170666   2.136  11.007   3.611  0.0992 -1.5472  1.4616
21142SOL    HW270667   2.231  10.914   3.539  0.4923 -2.5331  3.2120
21143SOL     OW70668   6.647   3.522   0.204  0.5942 -0.4278 -0.5160
21143SOL    HW170669   6.718   3.499   0.143  1.5778 -0.8250  0.7449
21143SOL    HW270670   6.567   3.515   0.151  1.2247 -2.7951 -1.2603
21144SOL     OW70671   2.900  11.823   6.875 -0.0764  0.1508  0.2074
21144SOL    HW170672   2.981  11.853   6.917  0.0169  0.7017 -0.3424
21144SOL    HW270673   2.845  11.794   6.947  0.4487  0.1744  0.6252
21145SOL     OW70674   1.361   4.269   1.374 -0.6359  0.4336 -0.3441
21145SOL    HW170675   1.284   4.324   1.382 -0.4654  0.5459  0.6893
21145SOL    HW270676   1.327   4.179   1.372 -0.8641  0.5303 -1.2435
21146SOL     OW70677  10.984  12.571   9.957 -0.1150 -0.3635  0.5465
21146SOL    HW170678  10.894  12.604   9.955  0.9133  2.7332  0.0799
21146SOL    HW270679  11.006  12.558   9.865  0.0880 -0.6081  0.6297
21147SOL     OW70680   5.713   3.936   7.820  0.1073 -0.2402  0.3877
21147SOL    HW170681   5.716   3.872   7.892 -0.5094  1.4922  2.0504
21147SOL    HW270682   5.802   3.968   7.813  0.6048 -1.7898 -1.0104
21148SOL     OW70683   9.935   9.119   9.436  0.4229 -0.1460 -0.0176
21148SOL    HW170684   9.903   9.179   9.503  1.1280  1.2915 -0.9346
21148SOL    HW270685   9.862   9.108   9.375 -0.0420 -1.0504  0.6648
21149SOL     OW70686   2.485   1.190   4.452 -0.3682 -0.1323  0.2152
21149SOL    HW170687   2.529   1.266   4.490 -0.9703  0.3110  0.0265
21149SOL    HW270688   2.539   1.116   4.479 -0.4744  0.2265  1.4731
21150SOL     OW70689   7.198  11.094   2.570 -0.4168  0.0952 -0.4263
21150SOL    HW170690   7.227  11.051   2.650  1.6942  2.8097  0.4027
21150SOL    HW270691   7.129  11.154   2.599  0.5248  1.2670 -0.5242
21151SOL     OW70692   7.260   8.815   1.827  0.3009  0.0844 -0.2274
21151SOL    HW170693   7.317   8.879   1.871 -0.5142  0.0634  0.8910
21151SOL    HW270694   7.251   8.744   1.891 -1.2280  0.2264 -0.2721
21152SOL     OW70695   4.155   9.347   5.067 -0.1591 -0.7396  0.0379
21152SOL    HW170696   4.155   9.406   4.992  1.5244 -0.1514  0.4450
21152SOL    HW270697   4.202   9.270   5.038  0.7077 -0.4139  0.5247
21153SOL     OW70698   4.985   1.934   6.569  0.5031 -0.2076  0.5008
21153SOL    HW170699   4.894   1.951   6.595  1.1922  2.0704  1.7392
21153SOL    HW270700   4.997   1.986   6.489  0.2176 -2.0978 -0.8386
21154SOL     OW70701   3.943   6.962   3.034  0.3100 -0.0716  1.1155
21154SOL    HW170702   3.967   7.042   3.081 -0.9662 -0.0304  1.7302
21154SOL    HW270703   4.026   6.917   3.020  1.0350  1.2806  0.8924
21155SOL     OW70704  11.761   0.194   0.807 -0.7404 -0.0836  0.0586
21155SOL    HW170705  11.831   0.200   0.742 -0.7317 -1.9156 -0.1411
21155SOL    HW270706  11.680   0.190   0.756 -0.9052  0.6904  0.2473
21156SOL     OW70707   3.105  10.581   1.552  0.0502 -0.0413  0.7375
21156SOL    HW170708   3.185  10.631   1.568  0.5232 -0.6596  0.3227
21156SOL    HW270709   3.130  10.514   1.489 -0.7548 -0.3525  0.7338
21157SOL     OW70710   5.269   1.229  11.083 -0.1257 -0.1379  0.1490
21157SOL    HW170711   5.285   1.147  11.036  0.2903 -1.0342  1.7701
21157SOL    HW270712   5.196   1.270  11.036  0.3849 -0.8777 -1.3553
21158SOL     OW70713   4.901  11.695   8.792  0.4284  0.2459 -0.2670
21158SOL    HW170714   4.892  11.602   8.770  0.1456 -0.0698  1.1130
21158SOL    HW270715   4.879  11.700   8.885  0.7330  1.6571 -0.2524
21159SOL     OW70716   6.377  12.141   6.198  0.4004  0.8363  0.1955
21159SOL    HW170717   6.405  12.126   6.108  1.1128 -0.3286  0.5966
21159SOL    HW270718   6.301  12.083   6.210  0.5193  0.7347  0.4538
21160SOL     OW70719   1.850   6.176   1.640 -0.0829  0.3603  0.5589
21160SOL    HW170720   1.762   6.183   1.679  0.2663  0.5292  1.3402
21160SOL    HW270721   1.843   6.102   1.579 -0.2852 -0.8461  1.9839
21161SOL     OW70722  11.334   1.141   4.684  0.5662 -0.0969  0.1903
21161SOL    HW170723  11.397   1.108   4.749  1.2977  1.8203  0.5244
21161SOL    HW270724  11.282   1.206   4.732  0.8437  1.0505 -1.0090
21162SOL     OW70725  11.564   1.452   5.718 -0.1151  0.4948  0.5968
21162SOL    HW170726  11.499   1.447   5.789  1.3190 -0.3212  1.9092
21162SOL    HW270727  11.561   1.544   5.690 -2.7428  0.2146 -0.3155
21163SOL     OW70728   7.973  11.853   4.535 -0.3537  0.0311  0.0937
21163SOL    HW170729   7.912  11.780   4.530 -0.9452  0.5614 -1.0847
21163SOL    HW270730   7.940  11.915   4.469  0.4648  1.0922  0.6565
21164SOL     OW70731   6.178   3.308   5.070 -0.3179 -0.3063  0.6266
21164SOL    HW170732   6.254   3.250   5.067  0.5404  0.7973  0.2379
21164SOL    HW270733   6.127   3.279   5.146  1.7315  0.4186  2.3667
21165SOL     OW70734   3.424   6.606   5.182  0.2548  0.5339 -0.6620
21165SOL    HW170735   3.481   6.545   5.136  0.2521  0.1253 -0.1382
21165SOL    HW270736   3.452   6.601   5.273 -1.0583 -0.1990 -0.2679
21166SOL     OW70737   0.058  11.167   8.600 -0.0148 -0.1747  0.2454
21166SOL    HW170738   0.077  11.240   8.542  0.6703 -0.9880 -0.5892
21166SOL    HW270739  -0.037  11.162   8.603 -0.0925 -0.8599 -1.8129
21167SOL     OW70740   8.364  10.469  10.917  0.1437  0.1959  0.1028
21167SOL    HW170741   8.335  10.550  10.958  0.3908 -0.2015  1.0973
21167SOL    HW270742   8.459  10.469  10.927  0.0912 -0.5179  0.7135
21168SOL     OW70743  11.331  11.811   1.601  0.7761  0.5001  0.0058
21168SOL    HW170744  11.267  11.873   1.566  2.0340  0.6981 -2.1601
21168SOL    HW270745  11.400  11.865   1.638  1.5588  0.4308 -1.2887
21169SOL     OW70746   6.062   0.436   8.011 -0.0267  0.2840  0.5302
21169SOL    HW170747   6.010   0.471   8.083 -0.1178  1.5744 -0.1270
21169SOL    HW270748   5.999   0.391   7.955  0.0398 -0.6948  1.2240
21170SOL     OW70749   5.451  12.474   7.047  0.1229 -0.3528 -0.1952
21170SOL    HW170750   5.414  12.389   7.069 -0.4331  0.5134  2.6410
21170SOL    HW270751   5.529  12.481   7.103 -0.5460  1.4703  0.5814
21171SOL     OW70752   1.430   1.085  10.821  0.0451 -0.1545  0.1484
21171SOL    HW170753   1.484   1.107  10.745 -0.4736 -0.8307 -0.4243
21171SOL    HW270754   1.466   1.139  10.892  0.1281  0.9621 -0.7183
21172SOL     OW70755   0.035   8.978   7.865 -0.4988 -0.2555 -0.5025
21172SOL    HW170756  -0.055   8.948   7.880  0.2216 -1.8666  0.8774
21172SOL    HW270757   0.061   8.937   7.783 -0.6802 -0.6343 -0.3726
21173SOL     OW70758  10.368   6.125   7.364  0.0605 -0.0233  0.0813
21173SOL    HW170759  10.316   6.205   7.365  0.4477  0.2510 -0.8761
21173SOL    HW270760  10.458   6.154   7.351  0.1874 -0.6065 -0.4423
21174SOL     OW70761  10.823  10.577   5.849  0.2646  0.3786  0.5121
21174SOL    HW170762  10.823  10.567   5.754  1.8178 -0.5109  0.5632
21174SOL    HW270763  10.734  10.603   5.871 -0.1730  0.4086 -1.1607
21175SOL     OW70764   9.950   0.174   3.194  0.1664  0.2233 -0.4921
21175SOL    HW170765   9.945   0.202   3.285  0.0559 -0.5591 -0.2478
21175SOL    HW270766  10.029   0.120   3.190 -0.1520 -0.2273 -0.7229
21176SOL     OW70767   9.653   7.468   3.596  0.4617  0.6261 -0.3232
21176SOL    HW170768   9.657   7.548   3.649 -0.4896 -0.3290  1.2904
21176SOL    HW270769   9.719   7.480   3.528 -0.0249  3.0013 -0.4489
21177SOL     OW70770   3.164   6.906   9.579 -0.1439  0.0421  0.6135
21177SOL    HW170771   3.151   6.892   9.673 -1.3773  0.0932  0.4577
21177SOL    HW270772   3.201   6.823   9.547 -0.5156 -0.2749  0.9960
21178SOL     OW70773   4.636   8.376   4.199  0.4490  0.6176  0.1173
21178SOL    HW170774   4.597   8.402   4.283 -2.3224 -0.3982 -0.7238
21178SOL    HW270775   4.562   8.343   4.148  2.3480 -0.5658 -2.0555
21179SOL     OW70776   2.305  11.332   9.524 -0.5954 -0.3613 -0.0574
21179SOL    HW170777   2.220  11.307   9.488 -1.0146  1.3713 -0.3788
21179SOL    HW270778   2.360  11.348   9.448  0.2829 -2.1502  0.1435
21180SOL     OW70779   0.120   1.028   7.778 -0.6693 -0.2152  0.2929
21180SOL    HW170780   0.131   1.120   7.753 -2.1278 -0.5061 -1.6492
21180SOL    HW270781   0.189   0.982   7.730 -2.4596 -0.5682 -2.1275
21181SOL     OW70782   6.313   2.413   2.340  0.2111  0.0425 -0.7184
21181SOL    HW170783   6.259   2.492   2.333  0.2711  0.1122 -0.4217
21181SOL    HW270784   6.265   2.347   2.291  0.3401  0.3560 -1.2795
21182SOL     OW70785  11.015  12.133   4.396 -0.6127  0.5755  0.2640
21182SOL    HW170786  11.047  12.060   4.449  1.6517  1.0218 -0.3882
21182SOL    HW270787  10.952  12.094   4.336  1.0667 -1.0336 -0.5484
21183SOL     OW70788   8.449   0.994  10.537  0.3257 -0.3090 -0.0440
21183SOL    HW170789   8.507   1.023  10.608  1.2447 -0.6107 -0.6508
21183SOL    HW270790   8.508   0.980  10.463 -0.5296 -0.6730 -0.6639
21184SOL     OW70791   8.951   4.676  11.915  0.0429  0.0330 -0.4423
21184SOL    HW170792   8.855   4.684  11.915 -0.2167 -1.5783  2.4906
21184SOL    HW270793   8.967   4.585  11.937  2.2494  0.5116  0.1483
21185SOL     OW70794  12.298   2.816   4.438  0.2391 -0.3951  0.3079
21185SOL    HW170795  12.252   2.779   4.513  0.8784  0.7431  1.3017
21185SOL    HW270796  12.373   2.861   4.476  0.4985  0.3484 -1.0128
21186SOL     OW70797   6.535   7.292   9.341  0.2567 -0.4482  0.2200
21186SOL    HW170798   6.454   7.248   9.367  0.0007 -1.1086 -1.5957
21186SOL    HW270799   6.580   7.308   9.424 -0.3071 -2.8195  1.0816
21187SOL     OW70800   6.590   0.289   9.233 -0.6181  0.1892 -0.0609
21187SOL    HW170801   6.679   0.253   9.233 -0.0854  1.4075  0.9377
21187SOL    HW270802   6.535   0.219   9.198  0.5853 -0.9946  0.3354
21188SOL     OW70803  12.050   3.582   5.831 -0.1791  0.4920  0.9803
21188SOL    HW170804  12.122   3.641   5.811  0.8056 -1.0872 -0.4666
21188SOL    HW270805  12.077   3.498   5.794 -2.2637 -0.4499  1.4313
21189SOL     OW70806   4.197  11.733  10.962 -0.2495 -0.1277  0.3705
21189SOL    HW170807   4.221  11.825  10.956 -0.0529 -0.0579  1.8077
21189SOL    HW270808   4.140  11.728  11.039 -1.6548 -0.9406 -0.6809
21190SOL     OW70809   0.614   0.325   6.457  0.4485 -0.4550 -0.3024
21190SOL    HW170810   0.641   0.246   6.411 -1.7019 -1.6483  0.3695
21190SOL    HW270811   0.543   0.361   6.404 -0.5205 -0.5965  0.8462
21191SOL     OW70812  10.990   2.976   7.031  0.4256 -0.4349  0.2950
21191SOL    HW170813  11.062   2.926   6.994  0.0452  0.7403 -2.2574
21191SOL    HW270814  11.031   3.036   7.092  1.1649 -2.0108  1.4214
21192SOL     OW70815   4.273  10.741  10.236  0.0833  0.0519 -0.7780
21192SOL    HW170816   4.268  10.836  10.241 -0.9526 -0.0267 -0.0342
21192SOL    HW270817   4.359  10.720  10.272 -0.3042  0.6291  0.5537
21193SOL     OW70818   6.624  11.501  12.285  0.6684 -0.1037  0.2955
21193SOL    HW170819   6.695  11.516  12.222 -0.0999 -0.3151 -0.6428
21193SOL    HW270820   6.578  11.584  12.289  0.5424 -0.1781  0.3626
21194SOL     OW70821   4.613   2.807   2.933 -0.1403  0.6382  0.4020
21194SOL    HW170822   4.596   2.713   2.933  0.6865  0.3909 -2.2544
21194SOL    HW270823   4.536   2.845   2.890 -0.8602  1.3148  2.2179
21195SOL     OW70824   9.562   6.975   0.138  0.7654 -0.1892 -0.3404
21195SOL    HW170825   9.630   7.039   0.158  0.0006  0.5080  0.0713
21195SOL    HW270826   9.487   7.001   0.192 -0.0403 -0.5700 -1.2417
21196SOL     OW70827   1.558  11.498   2.282  0.3111 -0.1439  0.1214
21196SOL    HW170828   1.645  11.537   2.290  0.2546 -0.0196  0.1384
21196SOL    HW270829   1.562  11.420   2.337  0.6215 -0.5084 -0.4159
21197SOL     OW70830   1.049   1.694   4.119 -0.4397 -0.6449 -0.1125
21197SOL    HW170831   1.003   1.748   4.183  0.6449  0.5630 -0.3245
21197SOL    HW270832   1.120   1.749   4.086 -1.3185 -0.9902 -2.8227
21198SOL     OW70833   1.635   9.425   5.883 -0.3724  0.0454  0.0918
21198SOL    HW170834   1.565   9.363   5.861 -0.7790  0.2067  0.8928
21198SOL    HW270835   1.610   9.505   5.837  0.0619 -0.3210 -0.8026
21199SOL     OW70836   7.592   9.148   9.679 -0.3281  0.2755 -0.0251
21199SOL    HW170837   7.614   9.233   9.640 -1.1668  0.9057  0.8492
21199SOL    HW270838   7.581   9.165   9.772 -1.4966 -0.5880  0.0272
21200SOL     OW70839   5.808   7.278   9.185 -0.1610 -0.2254 -0.0248
21200SOL    HW170840   5.829   7.199   9.236 -0.6723  0.7506  1.7960
21200SOL    HW270841   5.728   7.256   9.138 -0.0743 -0.9382  0.1517
21201SOL     OW70842   1.317   9.362   1.858 -0.2660  0.0028 -0.3429
21201SOL    HW170843   1.232   9.340   1.895  0.1737 -1.6874 -0.2305
21201SOL    HW270844   1.327   9.304   1.783  1.6105 -1.3633  0.8503
21202SOL     OW70845  10.326  11.216   3.283  0.5667  0.1608  0.2052
21202SOL    HW170846  10.252  11.162   3.257  0.9029  0.4510 -1.4309
21202SOL    HW270847  10.303  11.246   3.372 -0.6790 -0.7572  0.2207
21203SOL     OW70848   8.750   4.558   3.141 -0.0732  0.2760  0.2393
21203SOL    HW170849   8.698   4.483   3.111  1.1776 -0.5280  0.0175
21203SOL    HW270850   8.713   4.633   3.094 -1.0955 -0.2401  0.1799
21204SOL     OW70851   8.872   0.228  10.268  0.2675  0.1007 -0.2057
21204SOL    HW170852   8.926   0.175  10.209  0.6849 -0.2957  0.5168
21204SOL    HW270853   8.935   0.285  10.313  0.1916 -0.8231  1.1231
21205SOL     OW70854   4.397   2.079  12.027  0.0897 -0.1194  0.1485
21205SOL    HW170855   4.487   2.087  12.058  0.0732 -1.3374  0.5907
21205SOL    HW270856   4.381   1.984  12.026 -0.5761 -0.0238 -1.6891
21206SOL     OW70857   9.608   5.541   8.429  0.0481  0.2281  0.0603
21206SOL    HW170858   9.566   5.623   8.454 -1.1615  0.2738 -1.9170
21206SOL    HW270859   9.702   5.558   8.435 -0.1874  1.7883 -0.4340
21207SOL     OW70860   6.180   5.221   1.686  0.2048 -0.4153 -0.1010
21207SOL    HW170861   6.176   5.271   1.767 -1.0563 -0.6694  0.0210
21207SOL    HW270862   6.154   5.283   1.618  1.0485 -0.2616 -0.2979
21208SOL     OW70863   4.244   1.803   3.853 -0.5792 -0.3627  0.1034
21208SOL    HW170864   4.226   1.768   3.766  1.4755 -0.7891 -0.2101
21208SOL    HW270865   4.220   1.896   3.847  0.8339 -0.0500 -1.3922
21209SOL     OW70866   6.129   8.031  11.037  0.3313 -0.5117 -0.3854
21209SOL    HW170867   6.042   7.997  11.057  0.6629 -1.2791 -0.2046
21209SOL    HW270868   6.114   8.103  10.976 -0.4452 -0.4773 -0.1611
21210SOL     OW70869  12.526  12.305  10.099 -0.1290  0.2878 -0.1387
21210SOL    HW170870  12.448  12.336  10.053 -0.2222  0.4919  0.1495
21210SOL    HW270871  12.520  12.347  10.185  0.3474  0.3776 -0.1478
21211SOL     OW70872  11.523   2.596  10.322 -0.5675 -0.0469 -0.4796
21211SOL    HW170873  11.483   2.566  10.241 -0.2569  1.3269 -1.1773
21211SOL    HW270874  11.583   2.665  10.295 -1.2326  1.1869  0.9924
21212SOL     OW70875   2.169   2.287  10.338 -0.0348 -0.0391 -0.2373
21212SOL    HW170876   2.108   2.254  10.404  0.5710  0.7691  0.7547
21212SOL    HW270877   2.161   2.225  10.265  1.1654 -2.5388  1.5758
21213SOL     OW70878   2.468   5.140  10.365 -0.1155 -0.0178 -0.2797
21213SOL    HW170879   2.542   5.194  10.392  0.0978 -0.0414 -0.7893
21213SOL    HW270880   2.422   5.193  10.301  0.3100 -0.5659 -1.0708
21214SOL     OW70881  10.427  11.103  11.993  0.6487 -0.1417  0.0334
21214SOL    HW170882  10.435  11.129  12.084  1.2951 -1.0615  0.2563
21214SOL    HW270883  10.395  11.182  11.948  0.0811  0.2410  1.0790
21215SOL     OW70884   8.184   8.100  12.080  0.0203 -0.1559 -0.0004
21215SOL    HW170885   8.133   8.117  12.159  0.4166  1.1656 -0.0035
21215SOL    HW270886   8.230   8.182  12.063 -0.4167 -0.2474 -1.8607
21216SOL     OW70887   6.097   8.704   7.758 -0.3898 -0.0854  0.2024
21216SOL    HW170888   6.101   8.759   7.836 -0.1558  1.5158 -0.8947
21216SOL    HW270889   6.033   8.747   7.701 -1.4854 -1.9074 -0.0168
21217SOL     OW70890   9.985   7.242  11.652 -0.1782  0.8693  0.8939
21217SOL    HW170891  10.069   7.272  11.687 -0.3130  3.3404 -0.6955
21217SOL    HW270892  10.005   7.158  11.609  1.7135  1.8628 -0.2728
21218SOL     OW70893   1.596   5.553   8.057  0.1576 -0.0366  0.1207
21218SOL    HW170894   1.560   5.547   7.968  1.3512  2.9199 -0.6752
21218SOL    HW270895   1.684   5.518   8.050  0.4216  0.6427  0.0147
21219SOL     OW70896   7.671   8.608  11.756 -0.7043  0.5022  0.2050
21219SOL    HW170897   7.687   8.692  11.801 -1.5526  1.1348 -0.6432
21219SOL    HW270898   7.576   8.602  11.750 -0.6679  1.1981 -2.8040
21220SOL     OW70899   1.292   5.383   8.187  0.1660  0.6600 -0.5186
21220SOL    HW170900   1.348   5.312   8.157  1.0900  1.4923 -0.7997
21220SOL    HW270901   1.219   5.384   8.125  1.1933  1.2567 -1.7619
21221SOL     OW70902  11.908   9.134   9.319  0.1391  0.6419  0.3664
21221SOL    HW170903  11.868   9.104   9.401  0.1424 -1.9100 -0.4642
21221SOL    HW270904  11.835   9.136   9.257  0.8222 -1.9032 -0.6208
21222SOL     OW70905   0.796  11.380   4.226  0.1596 -0.5355  0.5005
21222SOL    HW170906   0.810  11.290   4.197 -0.9100 -0.3075 -0.8402
21222SOL    HW270907   0.721  11.375   4.285 -0.2122 -0.4690  0.0395
21223SOL     OW70908  10.651   4.740   6.450  0.4329 -0.3169 -0.4813
21223SOL    HW170909  10.569   4.782   6.475  1.5295  0.9192  1.3073
21223SOL    HW270910  10.691   4.801   6.387  0.4846 -0.3613 -0.4922
21224SOL     OW70911   0.471   0.005  12.164  0.0505  0.6105 -0.4076
21224SOL    HW170912   0.556   0.045  12.185 -0.8342  1.7255  1.3266
21224SOL    HW270913   0.489  -0.049  12.087  2.5804 -0.1024  0.5610
21225SOL     OW70914   6.068   3.033  12.321  0.0137 -0.1842 -0.1571
21225SOL    HW170915   6.038   2.950  12.358 -1.2118  0.2988 -0.0118
21225SOL    HW270916   6.103   3.010  12.235 -1.4027 -0.7286 -0.6175
21226SOL     OW70917   5.760  10.193   9.140  0.6391  0.3035  0.4831
21226SOL    HW170918   5.787  10.190   9.232 -1.9917 -0.6074  1.3221
21226SOL    HW270919   5.752  10.286   9.120 -0.1567  0.5242  1.6830
21227SOL     OW70920   5.790   9.095   6.756 -0.2363 -0.5375 -0.7233
21227SOL    HW170921   5.762   9.019   6.807  0.1542 -1.0221 -1.2288
21227SOL    HW270922   5.874   9.120   6.794 -1.7132  1.5582  1.4932
21228SOL     OW70923   6.071   0.366   2.958 -0.3915  0.0195  0.0071
21228SOL    HW170924   6.078   0.415   3.040  1.7363 -2.2088  1.3156
21228SOL    HW270925   6.160   0.334   2.942 -1.2413 -1.5743 -1.8885
21229SOL     OW70926   2.855   9.740  11.886  0.4308  0.3276  0.0253
21229SOL    HW170927   2.793   9.814  11.883  2.1161  1.8080  0.0698
21229SOL    HW270928   2.840   9.693  11.805  0.9096  2.1143 -1.1580
21230SOL     OW70929  10.179   4.651  11.785 -0.3482 -0.4367  0.2632
21230SOL    HW170930  10.090   4.685  11.778 -0.4087 -0.2880  1.4633
21230SOL    HW270931  10.235   4.725  11.762 -0.5215 -0.6400 -0.8811
21231SOL     OW70932   4.689  12.658   8.799  0.6721 -0.0418  0.0715
21231SOL    HW170933   4.676  12.692   8.710  1.4399 -0.0736 -0.0644
21231SOL    HW270934   4.602  12.631   8.828  0.3140  0.5508 -0.4330
21232SOL     OW70935  12.170  11.578   9.546 -0.6695 -0.3749 -0.2363
21232SOL    HW170936  12.143  11.487   9.540 -0.4761 -0.4366 -0.1659
21232SOL    HW270937  12.182  11.593   9.640  1.0224 -0.7707 -0.3676
21233SOL     OW70938   8.678   0.442  12.141  0.1226  0.1023 -0.3822
21233SOL    HW170939   8.771   0.457  12.126 -0.1769  1.8007 -0.6663
21233SOL    HW270940   8.676   0.367  12.202  1.6672  0.1761 -0.1989
21234SOL     OW70941   9.175   1.942  10.480  0.3821 -0.3747 -0.0470
21234SOL    HW170942   9.163   2.025  10.435 -1.4576 -0.9982 -0.8048
21234SOL    HW270943   9.233   1.892  10.422  0.8052  0.0552 -0.0022
21235SOL     OW70944   7.539   0.424  12.027  0.3633 -0.4455  0.2460
21235SOL    HW170945   7.573   0.513  12.016 -1.8241  0.4131  0.0033
21235SOL    HW270946   7.527   0.414  12.122 -3.4000  1.2439  0.1317
21236SOL     OW70947  11.944   3.219   7.226 -0.1231  0.2052 -0.0389
21236SOL    HW170948  11.948   3.225   7.321 -0.8303 -0.5885  0.0574
21236SOL    HW270949  11.866   3.270   7.203 -0.3577 -0.1943 -0.1272
21237SOL     OW70950  12.648   5.645   6.973 -0.5888 -0.4933  0.2819
21237SOL    HW170951  12.719   5.632   7.036 -1.4893  0.4186  1.5223
21237SOL    HW270952  12.677   5.599   6.895  1.4199 -0.0772  0.7275
21238SOL     OW70953   4.791   9.616   4.514  0.0419 -0.2623 -0.0218
21238SOL    HW170954   4.737   9.538   4.500 -1.6380  0.5763  1.3549
21238SOL    HW270955   4.880   9.582   4.526 -0.4041 -1.8230 -0.9204
21239SOL     OW70956   6.696   3.885   9.327 -0.1464 -0.3325  0.1187
21239SOL    HW170957   6.633   3.931   9.272 -0.8298 -0.4516  0.7701
21239SOL    HW270958   6.724   3.950   9.391  1.4345  0.1032 -0.9658
21240SOL     OW70959  11.890   9.214  11.878  0.5848 -0.8356 -0.7803
21240SOL    HW170960  11.805   9.177  11.852  0.1707  0.7215 -1.7487
21240SOL    HW270961  11.899   9.293  11.826  1.6459  0.2263  0.9197
21241SOL     OW70962   3.234   7.838   4.146  0.0621 -0.0420  0.0595
21241SOL    HW170963   3.199   7.832   4.057 -1.9596  0.7753  0.7471
21241SOL    HW270964   3.275   7.753   4.160  1.6505  0.2706 -2.0983
21242SOL     OW70965   7.644   7.110   5.836 -0.2487  0.2001 -0.0290
21242SOL    HW170966   7.710   7.062   5.887 -0.6340  1.3582  1.6391
21242SOL    HW270967   7.585   7.042   5.803  0.0418 -0.5953  1.0495
21243SOL     OW70968   2.480  12.562   0.256 -0.5272  0.1051 -0.8055
21243SOL    HW170969   2.495  12.579   0.349 -1.8058  0.0716 -0.5847
21243SOL    HW270970   2.516  12.474   0.242  4.9036  2.0389 -1.6639
21244SOL     OW70971   1.376   0.029  11.740  0.0837 -0.0828  0.5084
21244SOL    HW170972   1.315   0.103  11.737 -1.6713 -1.4942 -0.9553
21244SOL    HW270973   1.382   0.007  11.833 -2.7690 -0.7078  0.6482
21245SOL     OW70974   7.196   2.579   3.067  0.3382  0.9410  0.0778
21245SOL    HW170975   7.204   2.484   3.070  0.9076  0.9997  2.5777
21245SOL    HW270976   7.112   2.598   3.107 -0.1915  1.4915 -1.2410
21246SOL     OW70977  11.808   6.090  10.773 -0.0834 -0.2672  0.2314
21246SOL    HW170978  11.829   6.079  10.865 -0.3755  0.4649  0.3955
21246SOL    HW270979  11.797   6.185  10.762  2.7358  0.0114 -1.1497
21247SOL     OW70980   2.109   8.133   0.877  0.1325  0.5729  0.7165
21247SOL    HW170981   2.017   8.128   0.850  0.5553  0.1085 -0.7736
21247SOL    HW270982   2.156   8.157   0.796  1.4354 -0.2576  1.1963
21248SOL     OW70983   0.905   9.663   1.257  0.1698  1.0032  0.2366
21248SOL    HW170984   0.829   9.663   1.199  0.9662  1.6154 -0.8407
21248SOL    HW270985   0.905   9.749   1.298 -0.5838  0.4522  1.4392
21249SOL     OW70986   9.057   9.740   9.517 -0.3123  0.5701  0.2264
21249SOL    HW170987   8.976   9.737   9.568  0.5250  0.5002  1.5908
21249SOL    HW270988   9.073   9.649   9.493 -0.5184  0.5547  0.1438
21250SOL     OW70989  10.048   4.612  12.091 -0.5957  0.1864 -0.1786
21250SOL    HW170990   9.995   4.659  12.026 -0.5977  0.4879  0.0407
21250SOL    HW270991   9.991   4.541  12.121 -0.4562 -0.1971 -0.7913
21251SOL     OW70992   0.972  11.769   4.781  0.3530  0.1650  0.0511
21251SOL    HW170993   1.026  11.832   4.829  0.8100 -0.6680  0.6400
21251SOL    HW270994   1.034  11.711   4.738  0.0455 -2.5061  2.9199
21252SOL     OW70995   5.850   8.540   8.193 -0.0346  0.1585  0.0679
21252SOL    HW170996   5.817   8.485   8.265 -0.1580 -0.7658 -0.6811
21252SOL    HW270997   5.915   8.485   8.149 -1.0636  0.1235 -1.4552
21253SOL     OW70998   6.438  10.470  11.966  0.2454 -0.8339 -0.1559
21253SOL    HW170999   6.473  10.451  12.053  0.2209  0.3254  0.1206
21253SOL    HW271000   6.479  10.552  11.940 -2.3850  0.7336  0.2927
21254SOL     OW71001   7.985  11.446  12.268 -0.1149  0.5844 -0.0453
21254SOL    HW171002   8.001  11.352  12.269  0.8785  0.7391  1.4703
21254SOL    HW271003   7.970  11.469  12.359  0.5290  2.0379 -0.2772
21255SOL     OW71004   0.633  12.672   0.838 -0.7923  0.7119 -0.9858
21255SOL    HW171005   0.538  12.663   0.838 -0.8124  0.8467 -1.8560
21255SOL    HW271006   0.648  12.767   0.840 -0.6452  0.6894  0.7515
21256SOL     OW71007   9.539   6.013   5.083 -0.0674  0.5850  0.3158
21256SOL    HW171008   9.445   6.029   5.075 -0.1123 -0.2338 -0.9382
21256SOL    HW271009   9.578   6.059   5.009  0.2044 -1.4517 -0.8925
21257SOL     OW71010   7.887   0.911   4.486  0.9108  0.6494  0.7284
21257SOL    HW171011   7.900   0.999   4.522 -0.2186  1.6311 -1.0778
21257SOL    HW271012   7.795   0.910   4.458  0.9800 -1.0160  0.4484
21258SOL     OW71013   1.388   2.557  11.072  0.6587  0.0947  0.3238
21258SOL    HW171014   1.478   2.549  11.105  0.1700  0.3407  1.7833
21258SOL    HW271015   1.359   2.643  11.104  0.0644  0.2328 -0.5650
21259SOL     OW71016   8.841   0.288   4.526  0.3424  0.5424  0.0859
21259SOL    HW171017   8.780   0.235   4.475 -0.4285  2.5303 -1.1757
21259SOL    HW271018   8.926   0.244   4.515 -0.1332 -0.0617 -1.5129
21260SOL     OW71019   2.775   7.670   0.327  0.0928  0.2919 -0.0209
21260SOL    HW171020   2.789   7.719   0.407  0.7472  0.2301 -0.0932
21260SOL    HW271021   2.759   7.736   0.260 -0.6601  0.3353  0.1940
21261SOL     OW71022   3.669   1.262   1.102 -0.2637 -0.4897  0.4661
21261SOL    HW171023   3.691   1.257   1.195 -0.3142  2.1305  0.6934
21261SOL    HW271024   3.744   1.307   1.062 -0.2731 -1.5220 -0.7648
21262SOL     OW71025   5.301   6.737   2.869 -0.1231 -0.9314  0.6875
21262SOL    HW171026   5.381   6.693   2.838 -1.7456 -2.8726 -1.0587
21262SOL    HW271027   5.242   6.734   2.794 -0.8796  3.2289  0.9019
21263SOL     OW71028   4.423   7.915   2.249 -0.7179 -0.0873  0.1176
21263SOL    HW171029   4.440   7.891   2.340  0.4798  2.0105  0.5165
21263SOL    HW271030   4.496   7.877   2.200  1.7062  3.1341  0.8752
21264SOL     OW71031   6.570   4.408   7.045  0.3450 -0.1331 -0.1468
21264SOL    HW171032   6.506   4.429   7.112 -0.3965  2.0726 -1.4620
21264SOL    HW271033   6.519   4.365   6.976 -0.1709  2.9691 -1.8716
21265SOL     OW71034   4.156  10.387  10.737 -0.4075  0.0976 -0.1390
21265SOL    HW171035   4.167  10.429  10.823  0.7218  0.7482 -0.5691
21265SOL    HW271036   4.246  10.376  10.705 -0.7604 -1.1676 -0.7637
21266SOL     OW71037  12.513   1.528  11.718 -0.5564 -0.3902 -0.3579
21266SOL    HW171038  12.597   1.534  11.673 -0.6586 -2.9450 -1.0131
21266SOL    HW271039  12.451   1.569  11.658 -0.1883 -0.9007 -1.1039
21267SOL     OW71040  12.578  12.260   0.904  0.8697 -0.2246  0.8326
21267SOL    HW171041  12.573  12.189   0.840  1.2785  0.3685  0.1276
21267SOL    HW271042  12.664  12.251   0.943  0.5663 -0.6694  1.4025
21268SOL     OW71043   6.245   8.135   6.115  0.2699 -0.0981 -0.1465
21268SOL    HW171044   6.308   8.133   6.043 -0.0494  1.2667 -0.4944
21268SOL    HW271045   6.274   8.066   6.174  0.8266 -0.9100 -1.3350
21269SOL     OW71046  10.072   0.730   4.111 -0.4489 -0.5452 -0.0538
21269SOL    HW171047  10.142   0.682   4.065 -1.2768  0.2294 -2.2621
21269SOL    HW271048  10.093   0.822   4.095 -0.5800 -0.2359  1.4886
21270SOL     OW71049  10.303   8.509   1.917  0.1094 -0.8149 -0.0890
21270SOL    HW171050  10.327   8.577   1.980  3.0575 -0.5674 -1.2793
21270SOL    HW271051  10.330   8.427   1.958  2.1846 -0.6394 -0.9759
21271SOL     OW71052   2.513   8.694   0.306 -0.0763 -0.0622  0.0894
21271SOL    HW171053   2.552   8.705   0.219  0.7960 -0.5448  0.4121
21271SOL    HW271054   2.431   8.648   0.289  1.2738 -2.4600 -0.2838
21272SOL     OW71055   2.556   9.313   9.481 -0.1694 -0.0166 -0.4198
21272SOL    HW171056   2.634   9.296   9.534 -0.1454  0.0718 -0.4263
21272SOL    HW271057   2.508   9.230   9.482  0.4206 -0.3893 -1.2391
21273SOL     OW71058  10.661   1.138   3.273  0.5561  0.3030  0.0623
21273SOL    HW171059  10.593   1.144   3.207 -0.7474 -1.1544  1.2090
21273SOL    HW271060  10.739   1.110   3.226 -0.2138 -0.2103 -0.9229
21274SOL     OW71061   0.614   7.393   7.465 -0.0648 -0.0782 -0.6503
21274SOL    HW171062   0.543   7.330   7.480 -0.8394  0.8300 -0.3762
21274SOL    HW271063   0.614   7.407   7.370  0.4551 -0.8716 -0.7723
21275SOL     OW71064   0.565  10.766   4.630  0.5626  0.0752 -0.2572
21275SOL    HW171065   0.567  10.759   4.535  0.9938 -0.2975 -0.2247
21275SOL    HW271066   0.524  10.685   4.659  0.9752 -0.0834 -0.1033
21276SOL     OW71067   7.937   4.904   7.924  0.1756  0.0269 -0.1667
21276SOL    HW171068   8.008   4.937   7.979  0.1915  1.1107 -0.8271
21276SOL    HW271069   7.858   4.941   7.961  0.0755 -0.1397 -0.2108
21277SOL     OW71070  12.639   6.404   0.200  0.3014  0.8356 -0.1494
21277SOL    HW171071  12.719   6.440   0.162  0.7357  0.0329 -0.0429
21277SOL    HW271072  12.592   6.480   0.234  1.2230  1.2955  0.1581
21278SOL     OW71073   6.606  11.991   6.242  0.2854  0.0766  0.1114
21278SOL    HW171074   6.545  12.064   6.231 -0.7708 -0.8572 -0.3505
21278SOL    HW271075   6.686  12.021   6.198 -1.0339 -0.1126 -2.6296
21279SOL     OW71076   1.855  10.337   4.179  0.0906 -0.0577 -0.7149
21279SOL    HW171077   1.783  10.400   4.180 -1.8350 -2.1079 -1.3311
21279SOL    HW271078   1.870  10.319   4.086  1.6481  0.5413 -0.6147
21280SOL     OW71079   8.909   6.270   5.045 -0.1846 -0.1605 -0.8551
21280SOL    HW171080   8.978   6.240   5.104  1.0271  1.2926 -1.4529
21280SOL    HW271081   8.923   6.221   4.964  0.7384  0.7337 -1.2668
21281SOL     OW71082  11.933   6.985   4.025  0.5896 -0.7099 -0.1553
21281SOL    HW171083  11.989   6.989   3.947  1.4765 -0.9197  0.4562
21281SOL    HW271084  11.975   6.921   4.082  1.8073  1.7194  1.8700
21282SOL     OW71085   5.068   5.882   2.822 -0.0279 -0.2929  0.1676
21282SOL    HW171086   5.005   5.945   2.786  0.9012  1.1419  0.9422
21282SOL    HW271087   5.015   5.804   2.840 -1.3383  0.4383 -0.3284
21283SOL     OW71088   4.743   8.221   3.403 -0.1211  0.2363 -0.2039
21283SOL    HW171089   4.718   8.293   3.460 -3.1090  0.3387 -1.4574
21283SOL    HW271090   4.780   8.263   3.326  1.2191  0.2101  0.3871
21284SOL     OW71091   9.106  11.872  10.295 -0.0435 -0.1597  0.6641
21284SOL    HW171092   9.144  11.958  10.313 -1.1662  1.0793 -2.2111
21284SOL    HW271093   9.160  11.810  10.345  2.3511  1.9554  0.8810
21285SOL     OW71094   4.922   4.443   1.524  0.3458  0.3906 -0.5247
21285SOL    HW171095   4.988   4.388   1.484  0.8302  0.5901 -0.0039
21285SOL    HW271096   4.843   4.389   1.524  0.9810 -0.5835  0.6321
21286SOL     OW71097   8.487   1.554  10.521  0.1203  0.4032  0.1080
21286SOL    HW171098   8.540   1.612  10.467  0.4978  0.2350  0.2980
21286SOL    HW271099   8.490   1.470  10.475 -0.2105  0.4642 -0.0285
21287SOL     OW71100  10.721   0.138   4.961 -0.2089 -0.4213 -0.0569
21287SOL    HW171101  10.716   0.232   4.975 -0.4456 -0.5219  0.5372
21287SOL    HW271102  10.637   0.104   4.990 -1.4290 -0.4728 -3.2511
21288SOL     OW71103   7.841   8.721  10.971  0.1831  0.1910  0.2705
21288SOL    HW171104   7.908   8.680  11.025 -0.8495 -0.0343  1.4263
21288SOL    HW271105   7.820   8.656  10.904 -0.5916 -0.7440  1.3732
21289SOL     OW71106   5.621  10.722   1.653 -0.5749 -0.4939 -0.1256
21289SOL    HW171107   5.713  10.731   1.629 -1.0791  2.2436 -1.4496
21289SOL    HW271108   5.587  10.655   1.594  0.2747 -0.4328 -0.6996
21290SOL     OW71109   6.175   5.148   9.837  0.5821  0.4171 -0.7966
21290SOL    HW171110   6.251   5.143   9.779  0.7580  1.1710 -0.6456
21290SOL    HW271111   6.208   5.193   9.915 -0.2150  1.5220 -1.0664
21291SOL     OW71112   3.116   7.328  12.376 -0.6396  0.1039  0.4809
21291SOL    HW171113   3.089   7.371  12.458  1.7024 -0.1556  1.4494
21291SOL    HW271114   3.189   7.272  12.401 -0.2574 -0.4609 -1.7099
21292SOL     OW71115  11.086  10.647   9.527 -0.0455 -0.5035  0.0492
21292SOL    HW171116  11.024  10.665   9.456 -0.6695  0.5976  0.8472
21292SOL    HW271117  11.124  10.733   9.548  0.2476 -0.8378  0.9359
21293SOL     OW71118   3.605   8.830   2.206  0.0369 -0.3569 -0.6291
21293SOL    HW171119   3.634   8.741   2.224  0.4528 -0.1046 -0.0278
21293SOL    HW271120   3.585   8.867   2.292  0.7619  0.4359 -0.7883
21294SOL     OW71121   1.615   8.089   6.549  0.1306  0.1798 -0.0833
21294SOL    HW171122   1.637   8.077   6.642  0.2993 -0.5236 -0.2105
21294SOL    HW271123   1.577   8.006   6.522 -0.4671  0.5786 -0.5001
21295SOL     OW71124  10.860   4.467   6.909 -0.0954  0.7022  0.1462
21295SOL    HW171125  10.956   4.462   6.910 -0.1679 -1.1595  0.8745
21295SOL    HW271126  10.839   4.511   6.991  0.1079  0.4012  0.3624
21296SOL     OW71127  12.278   8.577   5.852 -0.3346  0.6193  1.1206
21296SOL    HW171128  12.239   8.490   5.863  0.8420 -0.0113  0.5301
21296SOL    HW271129  12.207   8.631   5.819 -0.7765 -0.4549  0.2345
21297SOL     OW71130   2.524   2.277   5.601  0.1640 -0.0875  0.2286
21297SOL    HW171131   2.532   2.239   5.688  0.6511  1.3549  0.8472
21297SOL    HW271132   2.461   2.220   5.555 -0.1620 -0.8146  1.5283
21298SOL     OW71133   4.883   9.965   4.016  0.1047  0.4602  0.1283
21298SOL    HW171134   4.803   9.982   3.965 -0.5839  0.1262  1.0734
21298SOL    HW271135   4.851   9.925   4.097  1.3961 -2.0368 -0.5081
21299SOL     OW71136   1.408   9.293   9.084 -0.4272 -0.7911  0.1925
21299SOL    HW171137   1.483   9.352   9.097 -0.3606 -0.2049 -2.2450
21299SOL    HW271138   1.334   9.352   9.068 -0.8192 -1.3585 -0.1410
21300SOL     OW71139  10.106  10.571  10.777  0.5868 -0.1848  0.0750
21300SOL    HW171140  10.086  10.494  10.724 -1.0403 -0.4689  1.0239
21300SOL    HW271141  10.020  10.603  10.806  1.1600  2.4085 -0.8555
21301SOL     OW71142   2.107   6.066   7.842  0.5603 -0.4858  0.0842
21301SOL    HW171143   2.144   6.005   7.905 -0.2177 -0.6845  0.3660
21301SOL    HW271144   2.024   6.027   7.816  1.6109 -1.2696 -2.3934
21302SOL     OW71145   3.605   1.366  10.688  0.0407 -0.0445 -0.6058
21302SOL    HW171146   3.669   1.435  10.672 -1.2904  1.3196 -0.2526
21302SOL    HW271147   3.538   1.379  10.620 -0.9173 -0.0985  0.3000
21303SOL     OW71148   4.322   4.914   6.378 -0.7944  0.7355 -0.0727
21303SOL    HW171149   4.395   4.957   6.423  0.1767 -0.0622 -0.8360
21303SOL    HW271150   4.277   4.984   6.331 -1.2357  1.4193  1.3124
21304SOL     OW71151   6.788   1.862  11.760  0.6915 -0.0909  0.1257
21304SOL    HW171152   6.800   1.786  11.703  2.0617 -0.2506  0.5856
21304SOL    HW271153   6.861   1.920  11.738  1.6727 -0.4700  2.1538
21305SOL     OW71154   9.542   3.624   2.643 -0.5445  0.2704 -0.0717
21305SOL    HW171155   9.614   3.658   2.696 -0.6403  0.1892  0.1121
21305SOL    HW271156   9.578   3.619   2.554  0.9198 -3.2261  0.5700
21306SOL     OW71157   7.689   1.697  12.503 -0.3140  0.3176 -0.2908
21306SOL    HW171158   7.753   1.640  12.461 -0.6606 -0.9339  0.8255
21306SOL    HW271159   7.736   1.737  12.576 -0.5334  0.1609 -0.0620
21307SOL     OW71160   8.835   1.746  12.115 -0.1032 -0.1242 -0.5253
21307SOL    HW171161   8.870   1.676  12.060 -0.3353  0.5326 -1.5192
21307SOL    HW271162   8.761   1.705  12.160 -0.2857 -0.5019 -1.1571
21308SOL     OW71163  11.746  11.078  12.457  0.2868 -0.1477  0.3001
21308SOL    HW171164  11.774  11.074  12.548 -0.0054 -0.6284  0.3711
21308SOL    HW271165  11.786  11.001  12.416  1.0391  0.4682 -0.1601
21309SOL     OW71166   2.062   0.280   8.081  0.3718  0.6617 -0.1459
21309SOL    HW171167   2.048   0.188   8.101  1.5679  0.5679  0.4016
21309SOL    HW271168   2.013   0.327   8.149 -0.5060  0.4459 -0.6221
21310SOL     OW71169   1.236   0.744   0.030 -0.4513  0.3831  0.6144
21310SOL    HW171170   1.276   0.696   0.102  1.0934  0.4691 -0.1519
21310SOL    HW271171   1.218   0.677  -0.037 -0.6253  0.4980  0.5457
21311SOL     OW71172   5.820   7.529   3.036  0.7242  0.3221  0.3544
21311SOL    HW171173   5.730   7.504   3.014 -0.2651  4.0602 -0.4979
21311SOL    HW271174   5.870   7.510   2.957  0.6823 -1.3883  0.6886
21312SOL     OW71175   8.790   3.932  11.535 -0.1627  0.9771 -0.7467
21312SOL    HW171176   8.833   3.915  11.451 -1.5750 -1.2019 -1.1072
21312SOL    HW271177   8.706   3.887  11.529 -0.1654  0.4509  1.9488
21313SOL     OW71178   6.174   6.478  10.288  0.5092 -0.0376 -0.1274
21313SOL    HW171179   6.180   6.564  10.246  0.1085  0.0649  0.0137
21313SOL    HW271180   6.134   6.422  10.221  0.2895  0.0158 -0.0441
21314SOL     OW71181   1.902  10.993   0.836 -0.6092  0.0771  0.2191
21314SOL    HW171182   1.867  10.949   0.759  1.2594 -0.3911 -0.4204
21314SOL    HW271183   1.913  10.924   0.901 -1.5458  0.3530  0.6850
21315SOL     OW71184   9.252   2.234   0.580  0.3277  0.0593  0.3057
21315SOL    HW171185   9.209   2.176   0.517  1.2833  1.5429 -1.8817
21315SOL    HW271186   9.199   2.314   0.578  1.8267  1.1004 -0.7609
21316SOL     OW71187   0.369   2.214  11.006  0.2768 -0.3392 -0.0533
21316SOL    HW171188   0.313   2.292  11.007 -0.0987 -0.6089  0.5663
21316SOL    HW271189   0.458   2.248  10.997  0.1809  0.2065  0.9309
21317SOL     OW71190  11.683   6.582   2.618 -0.2298 -0.4271  0.5266
21317SOL    HW171191  11.616   6.649   2.629 -0.4889 -0.1550 -2.1815
21317SOL    HW271192  11.638   6.509   2.575  1.1325 -0.2979 -1.2272
21318SOL     OW71193   8.435   1.593   2.449 -0.5151 -0.5452 -0.6332
21318SOL    HW171194   8.362   1.653   2.463 -1.2432 -1.4139 -0.5992
21318SOL    HW271195   8.413   1.548   2.367  0.2803 -0.3909 -0.9334
21319SOL     OW71196   6.086   2.616   8.088 -0.4662  0.7175  0.2918
21319SOL    HW171197   6.031   2.544   8.058  1.8132 -0.8390 -0.4304
21319SOL    HW271198   6.035   2.658   8.157 -2.2109 -1.1029  0.2072
21320SOL     OW71199   9.650  12.277   7.539 -0.1721 -0.2312 -1.0171
21320SOL    HW171200   9.580  12.339   7.561  1.1651  1.1297 -0.4952
21320SOL    HW271201   9.639  12.261   7.446 -1.2912 -0.1883 -0.9075
21321SOL     OW71202  10.196  12.622   3.621 -0.0933 -0.2083  0.1052
21321SOL    HW171203  10.234  12.582   3.543  0.3677 -0.8195  0.6301
21321SOL    HW271204  10.148  12.551   3.664 -3.2011  0.8459 -1.3049
21322SOL     OW71205   7.499   9.126   4.687  0.1461  0.3414 -0.2794
21322SOL    HW171206   7.545   9.061   4.634  0.1572  1.2810 -1.4614
21322SOL    HW271207   7.549   9.207   4.673  0.1797  0.6082  1.2243
21323SOL     OW71208   2.072   1.624  11.277 -0.3384  0.5059  0.5084
21323SOL    HW171209   2.098   1.536  11.304  0.3001  0.4795 -0.1585
21323SOL    HW271210   1.982   1.634  11.310 -0.3076 -0.2734  0.8482
21324SOL     OW71211   2.727   8.560   4.982  0.1051 -0.1403  0.3116
21324SOL    HW171212   2.726   8.541   4.888  0.5245  0.1092  0.2551
21324SOL    HW271213   2.791   8.500   5.019 -2.4768 -2.6859  0.9993
21325SOL     OW71214   6.803   9.631   9.211  0.1465  0.2628 -0.4354
21325SOL    HW171215   6.766   9.719   9.201 -1.3191 -0.4037 -1.0138
21325SOL    HW271216   6.870   9.641   9.279 -2.1394  1.2158  1.8067
21326SOL     OW71217   9.444   6.611   8.068 -0.1659  0.0418 -0.0415
21326SOL    HW171218   9.514   6.664   8.032  0.3373  0.8730  1.9882
21326SOL    HW271219   9.368   6.630   8.014  1.0455 -0.6040 -2.0570
21327SOL     OW71220   2.150   3.059   8.399  0.4110  0.0688  0.3847
21327SOL    HW171221   2.064   3.086   8.431  0.4719  1.0290 -0.2119
21327SOL    HW271222   2.137   2.969   8.371 -0.4420  0.2266  0.2090
21328SOL     OW71223   8.629   3.069   8.873  0.0433 -0.5874 -1.1413
21328SOL    HW171224   8.564   3.063   8.803 -1.7128 -2.7927  0.5633
21328SOL    HW271225   8.663   2.980   8.883  2.5817  0.2789 -1.2023
21329SOL     OW71226   5.054   0.441   7.945  0.2025  0.1903 -0.1093
21329SOL    HW171227   5.036   0.455   8.038 -1.8567 -1.6467 -0.1616
21329SOL    HW271228   5.096   0.355   7.942 -1.9556 -0.9017 -1.0119
21330SOL     OW71229   5.306  10.968   0.012  0.1777  0.4113 -0.6070
21330SOL    HW171230   5.294  10.967   0.107 -0.7521 -0.8609 -0.7150
21330SOL    HW271231   5.290  11.059  -0.014 -0.8472  0.5006  0.2978
21331SOL     OW71232  11.669   5.953   0.151  0.2540 -0.3267 -0.0118
21331SOL    HW171233  11.652   6.041   0.187 -0.6946 -1.0060  1.2644
21331SOL    HW271234  11.604   5.897   0.193  1.5074 -1.8374 -0.0235
21332SOL     OW71235   6.603   6.286   1.379 -0.0508 -0.1020  0.1297
21332SOL    HW171236   6.545   6.358   1.356 -0.1952 -0.1505  0.3350
21332SOL    HW271237   6.679   6.328   1.420  0.5044  0.0355 -0.9870
21333SOL     OW71238   7.596   9.133   2.567 -0.1299 -0.3007  0.0239
21333SOL    HW171239   7.687   9.163   2.571 -0.1541 -0.2072 -0.1284
21333SOL    HW271240   7.596   9.050   2.616 -0.1938  0.2674  1.0097
21334SOL     OW71241   9.954   8.786   7.826  0.2843  0.1276 -0.1584
21334SOL    HW171242   9.921   8.696   7.825 -0.2260  0.3131 -0.2889
21334SOL    HW271243   9.876   8.840   7.818  0.6215  0.5760 -0.4366
21335SOL     OW71244   7.771   6.365   0.688 -0.2696 -0.0683  0.0429
21335SOL    HW171245   7.741   6.329   0.772  1.4321  1.0626  1.2047
21335SOL    HW271246   7.825   6.295   0.650 -0.2886 -0.2397  0.3283
21336SOL     OW71247   7.567   3.112   1.187  0.6019  0.1814  0.2242
21336SOL    HW171248   7.653   3.142   1.217  0.7944 -0.6147  0.5012
21336SOL    HW271249   7.558   3.150   1.099 -0.0755  2.7331  1.3112
21337SOL     OW71250   6.908   0.065   5.015  0.0502  0.0839 -0.0654
21337SOL    HW171251   6.854  -0.003   4.974  0.2242 -0.7425  1.0098
21337SOL    HW271252   6.928   0.126   4.945 -1.8785  0.1580 -0.6126
21338SOL     OW71253   7.988   4.399  11.532  0.0453 -0.1262  0.5441
21338SOL    HW171254   8.054   4.468  11.532  1.2692 -1.2377 -0.1343
21338SOL    HW271255   8.004   4.350  11.612 -2.3431  1.6738  2.2655
21339SOL     OW71256   9.990   4.283   1.163 -0.0734  0.3621  0.1935
21339SOL    HW171257   9.941   4.363   1.148 -1.7131 -0.4681  0.8883
21339SOL    HW271258   9.981   4.233   1.082  3.7965  2.1692 -1.6279
21340SOL     OW71259   8.867  12.372   2.409  0.3198 -0.0355  0.0289
21340SOL    HW171260   8.882  12.414   2.494  0.1485  1.0710 -0.4797
21340SOL    HW271261   8.843  12.282   2.432  1.8149 -0.2071  1.0820
21341SOL     OW71262   8.287   2.870   4.026  0.0325 -0.2094  0.2160
21341SOL    HW171263   8.220   2.810   3.993 -0.5554  0.3545  0.3685
21341SOL    HW271264   8.353   2.813   4.065  1.5134 -1.0731 -3.1483
21342SOL     OW71265   5.070   4.124   6.776 -0.1208  0.0642  0.3216
21342SOL    HW171266   5.076   4.105   6.869  0.5591 -2.7644 -0.2034
21342SOL    HW271267   5.157   4.157   6.753 -0.0040 -0.1003  0.5246
21343SOL     OW71268   8.326   5.769   1.895  0.2796  0.2734  0.1599
21343SOL    HW171269   8.324   5.702   1.964 -0.0059 -0.4001 -0.4914
21343SOL    HW271270   8.260   5.833   1.923 -0.1405 -0.2135  0.3081
21344SOL     OW71271   8.307   8.152   7.851 -0.2943  0.3751 -0.8622
21344SOL    HW171272   8.400   8.145   7.829  0.2302 -1.9721  1.6242
21344SOL    HW271273   8.296   8.243   7.879  1.9440  0.0874  1.2806
21345SOL     OW71274   6.964   1.445  11.663  0.3108  0.2198 -0.5843
21345SOL    HW171275   7.014   1.449  11.744 -0.2627 -1.4004 -0.1053
21345SOL    HW271276   7.025   1.409  11.598 -0.4647 -3.1346  0.3287
21346SOL     OW71277   5.751  10.615   8.215  0.5044  0.2219  0.4689
21346SOL    HW171278   5.779  10.665   8.292  1.7061 -2.2822  1.7684
21346SOL    HW271279   5.727  10.529   8.250  0.6014 -0.8400 -1.8972
21347SOL     OW71280   9.396   4.249   0.803  0.2408 -0.2306 -0.4143
21347SOL    HW171281   9.313   4.251   0.755  0.6006 -0.1492 -1.0456
21347SOL    HW271282   9.450   4.316   0.761  1.1797 -1.3551 -1.0418
21348SOL     OW71283   0.467   4.660  11.546  0.3057  0.8630  0.7022
21348SOL    HW171284   0.553   4.665  11.587 -0.1388 -0.3258  1.8422
21348SOL    HW271285   0.419   4.735  11.580  0.4007  0.6713  1.2645
21349SOL     OW71286   1.640   5.976   2.426 -0.0691 -0.2546  0.1699
21349SOL    HW171287   1.596   5.892   2.416 -1.2292  0.3808 -0.2837
21349SOL    HW271288   1.657   6.004   2.336  0.8488 -0.2603  0.3304
21350SOL     OW71289   3.261   9.966  12.337 -0.2346  0.4918 -0.1759
21350SOL    HW171290   3.276  10.057  12.363 -0.2053 -0.1215  2.1472
21350SOL    HW271291   3.347   9.925  12.344 -0.1334  0.3590 -1.7563
21351SOL     OW71292   1.542   9.745   8.066  0.0787 -0.3463 -0.2332
21351SOL    HW171293   1.596   9.765   8.143  1.6189 -0.5630 -1.2133
21351SOL    HW271294   1.468   9.806   8.072  0.3203 -0.1530  1.2379
21352SOL     OW71295   9.198   1.128   7.309 -0.0261  0.1515  0.4148
21352SOL    HW171296   9.258   1.135   7.383  1.2340  0.4637 -0.6024
21352SOL    HW271297   9.163   1.216   7.298 -1.4539 -0.2367  1.6131
21353SOL     OW71298   0.709  11.316  12.611 -0.0202 -0.3191  0.0312
21353SOL    HW171299   0.721  11.241  12.669  1.3110 -1.7346 -1.9359
21353SOL    HW271300   0.784  11.373  12.629  0.0620 -0.4547  0.1135
21354SOL     OW71301  12.356  11.167   7.638 -0.3358 -0.2340 -0.0183
21354SOL    HW171302  12.364  11.194   7.547 -1.5781  0.5519  0.0895
21354SOL    HW271303  12.446  11.161   7.669  0.0661  2.3643 -0.4740
21355SOL     OW71304   1.819   9.656   1.602 -0.1633 -0.4787 -0.4180
21355SOL    HW171305   1.816   9.750   1.584  0.5640 -0.5133 -0.7553
21355SOL    HW271306   1.812   9.649   1.697 -2.0357 -0.1903 -0.4884
21356SOL     OW71307  10.077   8.580   9.365 -0.4636  0.1461  0.5136
21356SOL    HW171308  10.106   8.504   9.314 -0.2200 -0.8661  2.0805
21356SOL    HW271309   9.987   8.560   9.389 -0.9650  1.1507 -0.4605
21357SOL     OW71310   9.239   3.094   9.329  0.0073  0.0772  0.3165
21357SOL    HW171311   9.163   3.153   9.319 -0.2592 -0.2558  0.3618
21357SOL    HW271312   9.201   3.010   9.355  0.5114  0.3174  1.9250
21358SOL     OW71313   9.597   1.455   7.429  0.6798  0.7259  0.4713
21358SOL    HW171314   9.543   1.432   7.505 -0.1120 -1.3297 -0.6177
21358SOL    HW271315   9.682   1.480   7.466  0.4603 -0.6644  2.0435
21359SOL     OW71316   7.295  11.011  11.159 -0.2876 -0.0583 -0.0851
21359SOL    HW171317   7.297  11.107  11.160 -1.0633 -0.0428  0.5375
21359SOL    HW271318   7.204  10.989  11.180  0.0833 -0.9464  0.6356
21360SOL     OW71319  11.272   8.932   0.072 -0.0314 -0.6024  0.2845
21360SOL    HW171320  11.183   8.908   0.097 -0.3862 -0.8634 -1.1413
21360SOL    HW271321  11.327   8.866   0.113 -0.6864 -1.7123 -0.5744
21361SOL     OW71322   2.092   8.156  10.621 -0.1754 -0.3864  0.2740
21361SOL    HW171323   2.104   8.250  10.635  1.4377 -0.4132 -0.7007
21361SOL    HW271324   2.077   8.121  10.709 -0.6455  0.7440  0.6681
21362SOL     OW71325  11.698   1.147   9.261 -0.0294 -0.2443 -0.0470
21362SOL    HW171326  11.636   1.214   9.291  1.2129 -0.5876  3.8289
21362SOL    HW271327  11.768   1.197   9.218 -0.0148  0.7928  1.1264
21363SOL     OW71328   6.562   7.687  12.408 -0.3468 -0.1702  0.2294
21363SOL    HW171329   6.470   7.678  12.387 -0.1214 -2.4875  0.0438
21363SOL    HW271330   6.575   7.636  12.488  0.3726  2.0472  1.6564
21364SOL     OW71331   4.675   6.945   2.963 -0.0182  0.1387 -0.2998
21364SOL    HW171332   4.629   6.865   2.990 -0.0838 -0.0985 -1.0950
21364SOL    HW271333   4.616   7.016   2.989 -0.0207 -0.0730  0.2871
21365SOL     OW71334  12.688  11.695   6.983  0.4654 -0.7730  0.6724
21365SOL    HW171335  12.681  11.769   7.044 -0.5241  1.3623 -1.8257
21365SOL    HW271336  12.598  11.681   6.953  0.6199 -3.0970  1.0745
21366SOL     OW71337   3.118  10.934   1.285  0.3915  1.0163  0.3183
21366SOL    HW171338   3.189  10.890   1.333  0.9319 -0.4487 -1.6736
21366SOL    HW271339   3.038  10.900   1.323  0.7955 -1.7479 -1.0406
21367SOL     OW71340   5.124  10.231  11.530  0.5225 -0.2637 -0.1443
21367SOL    HW171341   5.098  10.297  11.466 -0.0601 -0.2033  0.1497
21367SOL    HW271342   5.145  10.154  11.478  0.8266  0.0282 -0.4608
21368SOL     OW71343  11.098   8.955   1.731  0.7305 -0.3942  0.1720
21368SOL    HW171344  11.115   8.863   1.712  0.5779 -0.4777  0.4375
21368SOL    HW271345  11.004   8.958   1.753  0.9962 -0.3836  1.3929
21369SOL     OW71346   7.292   8.803   5.565 -0.2736  0.2082 -0.1839
21369SOL    HW171347   7.275   8.801   5.470  0.3224 -0.2245 -0.2885
21369SOL    HW271348   7.360   8.869   5.575  0.1124 -0.1882 -0.1413
21370SOL     OW71349   8.862  11.454   4.850  0.2577  0.0207 -0.3632
21370SOL    HW171350   8.876  11.371   4.896 -1.3878  0.0769  0.3106
21370SOL    HW271351   8.792  11.434   4.788  0.3024  0.7571 -0.6562
21371SOL     OW71352   5.156   0.859   8.028  0.9546 -0.1677  0.2221
21371SOL    HW171353   5.147   0.820   8.115 -1.0766  0.3063  0.2840
21371SOL    HW271354   5.234   0.914   8.034 -0.5376  1.9434  2.6358
21372SOL     OW71355   6.801  12.249   9.077 -0.1077 -0.5506  0.1216
21372SOL    HW171356   6.800  12.325   9.136  0.8629 -1.1424  0.9613
21372SOL    HW271357   6.829  12.176   9.134 -2.2172 -1.8193 -0.3536
21373SOL     OW71358  10.753  10.252   7.336  0.2593  0.2402  0.4598
21373SOL    HW171359  10.677  10.226   7.283  0.5606  1.5577 -0.6620
21373SOL    HW271360  10.717  10.264   7.424 -0.9876  1.3983 -0.1641
21374SOL     OW71361   6.248   1.597   3.172  0.0745 -0.0744 -0.0746
21374SOL    HW171362   6.226   1.505   3.161  1.5868 -0.3186 -1.3834
21374SOL    HW271363   6.293   1.602   3.256  1.0734 -0.7552 -0.5618
21375SOL     OW71364  10.065   3.033   0.690 -0.8722  0.2253 -0.4836
21375SOL    HW171365  10.087   2.949   0.731 -0.0029  0.5898 -0.1943
21375SOL    HW271366   9.971   3.026   0.672 -1.0113 -0.4378  0.4085
21376SOL     OW71367   8.117   9.480   0.703 -0.2403 -0.3994  0.3490
21376SOL    HW171368   8.058   9.442   0.768  0.5355  0.4679  1.6056
21376SOL    HW271369   8.193   9.422   0.704  0.3276  0.3331  1.2053
21377SOL     OW71370   3.930   6.156   5.155  0.2667 -0.2531 -0.3660
21377SOL    HW171371   4.001   6.183   5.213  1.1223  0.7223 -1.7982
21377SOL    HW271372   3.879   6.093   5.206  2.1093 -0.9195  0.7298
21378SOL     OW71373   7.250  10.993   2.315 -0.3815 -0.2868  0.1425
21378SOL    HW171374   7.233  11.081   2.282 -1.3661 -0.4640  0.1374
21378SOL    HW271375   7.240  11.001   2.410  0.2193 -0.2541  0.2075
21379SOL     OW71376  11.958   6.520   2.574  0.1704  0.3518 -0.2441
21379SOL    HW171377  11.878   6.552   2.532  0.0061  0.6382  0.2641
21379SOL    HW271378  11.927   6.454   2.636  0.2797  0.7522  0.2435
21380SOL     OW71379  10.959  10.117  11.581  0.0229 -0.2491  0.1139
21380SOL    HW171380  10.935  10.182  11.648 -0.2449 -0.8667  0.6226
21380SOL    HW271381  10.937  10.160  11.498 -1.5479 -0.2529  0.4998
21381SOL     OW71382   9.694   6.594  12.606  0.0256  0.8348 -0.8646
21381SOL    HW171383   9.691   6.523  12.542  2.2954 -1.2021  1.0806
21381SOL    HW271384   9.761   6.653  12.573  0.0937  0.6025 -1.1432
21382SOL     OW71385   1.625   3.404  10.582 -0.0874  0.0499  0.0134
21382SOL    HW171386   1.588   3.339  10.642 -0.6806  0.2989 -0.0732
21382SOL    HW271387   1.549   3.447  10.543  0.2949  0.8500  0.1239
21383SOL     OW71388  11.811  11.296   9.857 -0.8871 -0.1444  0.3573
21383SOL    HW171389  11.844  11.237   9.790 -2.8407 -0.6983 -0.1656
21383SOL    HW271390  11.859  11.272   9.937 -0.8374 -1.6492 -0.1105
21384SOL     OW71391   8.126   8.566  12.442 -0.3165 -0.1568 -0.1030
21384SOL    HW171392   8.150   8.657  12.459  0.3359  0.0099 -1.7384
21384SOL    HW271393   8.209   8.518  12.444 -0.4749 -0.4659 -0.6336
21385SOL     OW71394  11.918  11.091   0.297 -0.7389 -0.0009 -0.1802
21385SOL    HW171395  11.983  11.161   0.289 -1.0279  0.2450 -0.3917
21385SOL    HW271396  11.964  11.022   0.345 -1.1596  1.2295  2.1100
21386SOL     OW71397   5.654   2.442   5.390 -0.4015 -0.2461 -0.1569
21386SOL    HW171398   5.631   2.524   5.434  1.2007  0.6044 -0.7976
21386SOL    HW271399   5.621   2.453   5.301 -0.9585 -0.6784 -0.0080
21387SOL     OW71400   1.821   5.381   8.030  0.0617  0.1456 -0.1425
21387SOL    HW171401   1.878   5.338   8.094  2.1032  2.1588 -0.4717
21387SOL    HW271402   1.875   5.450   7.992 -2.5532  2.0860 -0.6546
21388SOL     OW71403   5.639   4.040   7.044  0.0695  0.5059 -0.3547
21388SOL    HW171404   5.716   4.028   6.989 -0.2385  0.8039 -0.8616
21388SOL    HW271405   5.609   4.129   7.025 -1.6750 -0.3134 -1.8589
21389SOL     OW71406   3.695  11.453   1.532 -0.2399  0.3787 -0.0960
21389SOL    HW171407   3.637  11.383   1.560  1.2189 -1.3213 -1.1040
21389SOL    HW271408   3.667  11.474   1.443  0.8442 -0.6830 -0.7120
21390SOL     OW71409   7.320   7.697   3.253 -0.0339 -0.0205  0.3595
21390SOL    HW171410   7.279   7.630   3.308  0.0620 -0.4901 -0.1264
21390SOL    HW271411   7.249   7.758   3.234 -0.7785 -1.2905 -1.1865
21391SOL     OW71412   2.702   0.943   9.971 -0.2296 -0.6183 -0.1368
21391SOL    HW171413   2.766   0.927   9.901 -0.7624 -0.2904 -0.7099
21391SOL    HW271414   2.752   0.988  10.039  0.2427 -0.7217 -0.4108
21392SOL     OW71415   7.714   9.269   4.570  1.0057 -0.2044 -0.1525
21392SOL    HW171416   7.745   9.182   4.597  0.7998 -0.1765  0.1775
21392SOL    HW271417   7.677   9.255   4.483  3.4901  0.0721 -1.3644
21393SOL     OW71418  10.404  12.522   9.148 -0.3314 -1.0406  0.2376
21393SOL    HW171419  10.328  12.559   9.193 -0.7940 -1.7158  0.0383
21393SOL    HW271420  10.392  12.427   9.156  0.5101 -1.1519  0.2294
21394SOL     OW71421   3.235   6.364   9.921 -0.1517 -0.1902 -0.8279
21394SOL    HW171422   3.150   6.325   9.898 -0.3881  0.1877 -0.6075
21394SOL    HW271423   3.232   6.452   9.883 -0.8753  0.7501  1.2576
21395SOL     OW71424   0.413   2.759   9.838  0.5935  0.5763  0.4150
21395SOL    HW171425   0.480   2.801   9.892  2.1580  0.1193 -1.1031
21395SOL    HW271426   0.453   2.748   9.752 -0.8288 -1.2659 -0.0914
21396SOL     OW71427   6.825   6.089   9.711  0.4476 -0.1097  0.3829
21396SOL    HW171428   6.884   6.165   9.705 -0.4820  0.5949 -0.1467
21396SOL    HW271429   6.883   6.014   9.724  1.4870  0.5285 -0.4206
21397SOL     OW71430  11.354   7.496  11.235 -0.1861  0.4608 -0.1254
21397SOL    HW171431  11.447   7.473  11.243  0.0513  1.2570 -0.4997
21397SOL    HW271432  11.308   7.413  11.250  0.4993  0.3534  1.6742
21398SOL     OW71433  11.316   9.009   0.883 -0.0337  0.3214 -0.2330
21398SOL    HW171434  11.272   9.005   0.799 -0.3022 -0.8643 -0.0492
21398SOL    HW271435  11.344   9.101   0.891 -0.2587  0.5136 -1.4652
21399SOL     OW71436   0.303   3.131  10.246 -0.1632  0.2687 -0.0052
21399SOL    HW171437   0.377   3.173  10.202 -0.5648 -0.3997 -1.4008
21399SOL    HW271438   0.227   3.156  10.194 -0.8220  0.3524  0.9792
21400SOL     OW71439   2.969   8.821  11.479 -0.2888 -0.2426 -0.0761
21400SOL    HW171440   2.887   8.786  11.513  0.2855 -1.8227 -0.2374
21400SOL    HW271441   2.942   8.883  11.411 -1.3453 -1.0109 -0.3759
21401SOL     OW71442  10.383  12.522   8.534  0.0034  0.5749  0.2256
21401SOL    HW171443  10.333  12.467   8.475 -0.0785  0.2408  0.6017
21401SOL    HW271444  10.319  12.585   8.567  0.2167  1.2638 -0.6333
21402SOL     OW71445   7.526   1.052   3.968  0.2609  0.1787 -0.3038
21402SOL    HW171446   7.487   1.046   4.055  1.5335 -0.7352  0.2363
21402SOL    HW271447   7.451   1.049   3.908 -0.7490  2.1482  0.7385
21403SOL     OW71448   0.409   1.036  11.162  0.1724  0.6209  0.0774
21403SOL    HW171449   0.482   1.063  11.217  1.4498  0.8165 -1.6355
21403SOL    HW271450   0.339   1.099  11.181  0.6371  0.7740  1.3185
21404SOL     OW71451  10.979  12.513  11.474 -0.3785 -0.4073  0.3647
21404SOL    HW171452  11.020  12.582  11.526  1.5012 -0.8868 -0.3864
21404SOL    HW271453  10.888  12.510  11.505  0.1001  0.7933  2.0435
21405SOL     OW71454   3.756   2.368   0.227  0.5492 -0.4158  0.1365
21405SOL    HW171455   3.718   2.455   0.235 -0.6643 -0.7207 -1.6956
21405SOL    HW271456   3.785   2.362   0.136  2.7659 -1.1233  0.8253
21406SOL     OW71457  11.358   7.839   7.296  0.0055 -0.1974  0.0541
21406SOL    HW171458  11.345   7.933   7.291  0.7134 -0.1552 -1.3704
21406SOL    HW271459  11.452   7.827   7.284  0.2456 -0.9865  2.2214
21407SOL     OW71460   2.793   0.228  10.392  0.1682 -0.2263 -0.5027
21407SOL    HW171461   2.844   0.293  10.440 -2.8090  0.5788  1.9358
21407SOL    HW271462   2.820   0.144  10.429 -0.6841  0.2410  1.2955
21408SOL     OW71463   5.463  10.762   3.787 -0.5576  0.2594  0.5645
21408SOL    HW171464   5.529  10.716   3.838  0.2062  0.6333 -0.0626
21408SOL    HW271465   5.403  10.799   3.852 -0.1291 -0.0502  1.1401
21409SOL     OW71466   2.536   9.087   8.693  0.2594 -0.1333  0.2187
21409SOL    HW171467   2.477   9.056   8.762  0.2213 -1.9431 -0.5582
21409SOL    HW271468   2.615   9.113   8.739  0.4132 -1.7709  0.9381
21410SOL     OW71469   5.445  11.327   6.217 -0.0747 -0.1074 -0.2488
21410SOL    HW171470   5.427  11.262   6.149  0.0344  0.5293 -0.9091
21410SOL    HW271471   5.475  11.277   6.292  1.1648 -0.7451 -1.1286
21411SOL     OW71472   2.850   4.184   0.714 -0.0888 -0.1061 -0.0073
21411SOL    HW171473   2.778   4.222   0.765 -0.9226 -0.8757 -0.5763
21411SOL    HW271474   2.814   4.176   0.625  0.7907 -0.2779 -0.3560
21412SOL     OW71475   4.398  12.150   9.828 -0.0893  0.5610 -0.2125
21412SOL    HW171476   4.343  12.225   9.805  1.2409  1.2047 -1.4969
21412SOL    HW271477   4.364  12.120   9.912 -1.0653  2.2145  0.0374
21413SOL     OW71478   8.202  10.581   7.954  0.0864 -0.0113 -0.1150
21413SOL    HW171479   8.291  10.595   7.920  0.1035  2.3722  0.7396
21413SOL    HW271480   8.154  10.544   7.880  1.0638  1.4533 -1.5587
21414SOL     OW71481   6.389   0.466   6.005  0.5684  0.5910 -0.1287
21414SOL    HW171482   6.424   0.392   6.055 -0.0493  0.4324  0.0734
21414SOL    HW271483   6.446   0.539   6.028  0.1014  0.5896  1.0494
21415SOL     OW71484   8.532   7.097  10.443 -0.3449 -0.2594 -0.2068
21415SOL    HW171485   8.549   7.016  10.394 -0.1197 -0.4668  0.2087
21415SOL    HW271486   8.443   7.121  10.418 -1.0024 -1.4757  0.8243
21416SOL     OW71487   1.194   5.200   8.686  0.1742 -0.4370  0.1130
21416SOL    HW171488   1.184   5.289   8.721  0.9218 -0.4423  0.3666
21416SOL    HW271489   1.181   5.209   8.592  2.8603  0.4480 -0.2738
21417SOL     OW71490   1.141  12.626   3.976 -0.2147 -0.4073  0.7577
21417SOL    HW171491   1.188  12.544   3.992 -0.3129 -0.7536 -0.5834
21417SOL    HW271492   1.128  12.628   3.881 -1.9776  0.1984  0.9749
21418SOL     OW71493   2.519  11.823   0.768 -0.1374  0.1465  0.2170
21418SOL    HW171494   2.460  11.898   0.772 -0.2383  0.0707  0.1632
21418SOL    HW271495   2.606  11.861   0.756 -0.2707  0.2327 -0.5239
21419SOL     OW71496   4.007   9.795  11.774  0.5791  0.0046  0.7795
21419SOL    HW171497   3.921   9.819  11.740  0.7876  1.7744  1.3526
21419SOL    HW271498   4.006   9.826  11.865  1.7585 -0.0895  0.8452
21420SOL     OW71499   2.068  12.535   1.607 -0.0388 -0.3785 -0.2863
21420SOL    HW171500   2.127  12.462   1.588 -1.0613 -1.2067 -0.3572
21420SOL    HW271501   1.982  12.494   1.617 -0.3660  0.6023  1.3184
21421SOL     OW71502  10.305   5.945   5.129 -0.6082  0.8060 -0.2867
21421SOL    HW171503  10.298   5.903   5.043 -1.4122  0.5462 -0.1036
21421SOL    HW271504  10.356   5.883   5.182 -1.0843  0.4440 -0.2519
21422SOL     OW71505   8.011   4.281   2.731 -0.2449  0.0534  0.6134
21422SOL    HW171506   8.104   4.304   2.738 -0.2583  0.6066 -0.7711
21422SOL    HW271507   7.969   4.331   2.801  0.5154 -0.3582  1.3862
21423SOL     OW71508   3.675   8.699   3.188  0.0154  0.1845  0.7591
21423SOL    HW171509   3.731   8.657   3.253  0.5491  1.7297  1.3393
21423SOL    HW271510   3.733   8.722   3.116 -0.1783  0.3633  0.6574
21424SOL     OW71511   0.211   9.031  11.777  0.2468 -0.6318  0.0061
21424SOL    HW171512   0.297   9.071  11.781 -0.2489  0.3796  3.3483
21424SOL    HW271513   0.151   9.104  11.762 -0.2413 -0.9360  0.4502
21425SOL     OW71514   2.339   7.553  10.072  0.4375 -0.2567  0.3308
21425SOL    HW171515   2.294   7.564  10.155  1.8140  0.8560  0.9817
21425SOL    HW271516   2.427   7.522  10.097  1.2953  1.3109 -0.5725
21426SOL     OW71517   9.545   1.658   2.646  0.4156 -0.0892  0.2194
21426SOL    HW171518   9.487   1.661   2.569  0.4675 -2.1918  0.0417
21426SOL    HW271519   9.633   1.666   2.610  0.3970 -0.2472  0.1360
21427SOL     OW71520   9.275   7.794   1.401  0.4158 -0.4821 -0.0373
21427SOL    HW171521   9.210   7.860   1.425  0.0165 -0.7305 -0.4001
21427SOL    HW271522   9.234   7.711   1.425  0.5552 -0.6479 -0.3574
21428SOL     OW71523   4.244   2.775   0.446  0.1500  0.0459  0.1073
21428SOL    HW171524   4.191   2.750   0.522 -0.1403 -0.1592 -0.1567
21428SOL    HW271525   4.273   2.691   0.410 -0.6171  0.0803 -0.6390
21429SOL     OW71526   4.183   5.564  10.785  0.1711  0.3331  0.4484
21429SOL    HW171527   4.196   5.599  10.873 -0.2191 -0.1801  0.7119
21429SOL    HW271528   4.162   5.472  10.798  1.3958 -0.0716 -0.2512
21430SOL     OW71529   2.173   2.683   0.736  0.1063  0.0369  0.0107
21430SOL    HW171530   2.168   2.669   0.641  1.1992  0.8342 -0.1832
21430SOL    HW271531   2.112   2.754   0.753  1.6435  1.5533 -0.5002
21431SOL     OW71532   3.023  11.342   0.196 -0.3743 -0.1783  0.1143
21431SOL    HW171533   3.019  11.438   0.203 -1.0403 -0.1603 -0.4108
21431SOL    HW271534   2.994  11.324   0.107 -0.3263 -0.8796  0.2373
21432SOL     OW71535   5.172   7.449   5.506  0.4325 -0.2071  0.0118
21432SOL    HW171536   5.210   7.530   5.540  0.2259  0.0365 -0.3336
21432SOL    HW271537   5.240   7.413   5.449  0.9148 -0.7909  0.9273
21433SOL     OW71538   4.065   0.520  10.569 -0.5646  0.0207  0.1989
21433SOL    HW171539   4.135   0.499  10.631 -0.1396  0.6564 -0.0488
21433SOL    HW271540   4.112   0.553  10.491 -1.1477  0.7817  0.1586
21434SOL     OW71541   3.127   1.568   3.313  0.3850 -0.4852 -0.4162
21434SOL    HW171542   3.131   1.661   3.337  1.4085 -0.6359  0.0309
21434SOL    HW271543   3.179   1.561   3.234  1.5788 -0.9190  0.3801
21435SOL     OW71544  10.350   1.535   1.486 -0.0925  0.0061  0.0602
21435SOL    HW171545  10.327   1.623   1.516  0.0604 -0.3988  1.4248
21435SOL    HW271546  10.266   1.496   1.460 -0.1891  0.4675 -0.3289
21436SOL     OW71547   9.200   6.379  10.259  0.2794  0.5739  0.3537
21436SOL    HW171548   9.172   6.418  10.176 -1.2878  3.1562  1.9694
21436SOL    HW271549   9.296   6.387  10.259  0.7266 -2.4676 -2.4712
21437SOL     OW71550   8.505   2.325   8.730  0.0883 -0.4940  0.3397
21437SOL    HW171551   8.481   2.240   8.693  0.1676 -1.1791  1.8099
21437SOL    HW271552   8.459   2.329   8.814  0.5605  0.6614  0.5658
21438SOL     OW71553  11.312   5.338   8.892  0.4077 -0.0332 -0.7631
21438SOL    HW171554  11.340   5.265   8.947  1.3602 -0.2702 -1.5307
21438SOL    HW271555  11.216   5.335   8.895  0.4441 -0.3334  0.4772
21439SOL     OW71556   7.973   1.583   5.941  0.3053  0.1701 -0.5704
21439SOL    HW171557   8.008   1.509   5.891 -0.6750 -0.4803 -0.3350
21439SOL    HW271558   8.044   1.647   5.943  0.3169  0.3169 -3.0016
21440SOL     OW71559   5.676   6.508  12.569  0.3956  0.7085 -0.0158
21440SOL    HW171560   5.637   6.421  12.580 -0.6268  1.0531 -0.7187
21440SOL    HW271561   5.712   6.507  12.481  1.2164  0.6934  0.3145
21441SOL     OW71562   8.581   7.297   3.176  0.1575  0.2463  0.0487
21441SOL    HW171563   8.560   7.225   3.117 -1.5290 -0.4029  1.3688
21441SOL    HW271564   8.627   7.255   3.250  1.8203  0.9820 -0.5040
21442SOL     OW71565  12.188   7.309   4.751  0.7567 -0.6498 -0.5420
21442SOL    HW171566  12.271   7.333   4.793  0.8466  0.1310 -1.1412
21442SOL    HW271567  12.212   7.284   4.662  0.5269 -1.9655 -0.2491
21443SOL     OW71568   8.764   4.163   4.534  0.1997 -0.4867  0.0159
21443SOL    HW171569   8.716   4.246   4.527  0.7570  0.1482  2.6897
21443SOL    HW271570   8.701   4.102   4.572  0.6653 -0.3921  0.9823
21444SOL     OW71571   7.022  11.896   8.889 -0.2377 -0.9284 -0.5040
21444SOL    HW171572   7.096  11.837   8.876  0.2959 -0.1155 -1.2917
21444SOL    HW271573   6.949  11.838   8.913  0.9184 -1.6331  1.5846
21445SOL     OW71574   2.297  10.481   8.654  0.3871  0.1579 -0.2510
21445SOL    HW171575   2.299  10.454   8.562  0.7355 -0.5800 -0.0330
21445SOL    HW271576   2.205  10.505   8.669  0.6563  2.0215 -1.2587
21446SOL     OW71577   0.369   9.366   2.616  0.0703  0.1244 -0.1641
21446SOL    HW171578   0.346   9.354   2.708  0.8685  1.2621  0.2072
21446SOL    HW271579   0.427   9.293   2.595 -1.0035 -0.7591 -0.0941
21447SOL     OW71580   8.153   6.818   6.124 -0.0224 -0.1621 -0.0935
21447SOL    HW171581   8.108   6.879   6.183 -1.7209 -1.0260 -0.4452
21447SOL    HW271582   8.168   6.740   6.177 -2.5522 -1.3639 -1.0271
21448SOL     OW71583   0.899   6.807  11.437  0.3630  0.1337  0.4631
21448SOL    HW171584   0.947   6.843  11.363  0.0509  0.6268  0.4968
21448SOL    HW271585   0.855   6.883  11.476  1.5642  0.1214  1.9357
21449SOL     OW71586   7.327   0.057   1.353 -0.3135  0.5066  0.0380
21449SOL    HW171587   7.287   0.143   1.361  2.8953  2.0520  1.6372
21449SOL    HW271588   7.389   0.066   1.280  0.6223 -0.1824  0.7239
21450SOL     OW71589  10.287  11.318   5.976 -0.4707 -1.0905  0.6543
21450SOL    HW171590  10.355  11.264   6.015 -0.9771 -1.7699  0.6074
21450SOL    HW271591  10.217  11.257   5.953  0.1692 -0.8570 -2.2022
21451SOL     OW71592   1.202   1.705   8.942  0.0917  0.2272  0.0642
21451SOL    HW171593   1.170   1.776   8.886  2.1371 -0.2542 -1.8828
21451SOL    HW271594   1.233   1.639   8.880 -0.8991 -1.9931  1.8308
21452SOL     OW71595  12.464   6.760   3.465 -0.0019  0.3524 -0.0563
21452SOL    HW171596  12.392   6.697   3.465 -0.6193  1.0183  1.8401
21452SOL    HW271597  12.424   6.843   3.437  0.3837  0.3861 -0.5407
21453SOL     OW71598   6.553   4.005   9.144 -0.1660  0.2755 -0.1665
21453SOL    HW171599   6.625   4.010   9.080 -0.4490 -0.8891 -0.6145
21453SOL    HW271600   6.498   3.933   9.112 -1.4349  1.0181  0.2792
21454SOL     OW71601  12.072   9.956   5.976  0.1526 -0.1759 -0.6348
21454SOL    HW171602  12.000  10.011   5.945  1.2571 -0.2033 -3.5326
21454SOL    HW271603  12.042   9.866   5.961 -0.0001 -0.2529  0.1075
21455SOL     OW71604   1.758  12.588   8.686  0.3161 -0.0728 -0.4967
21455SOL    HW171605   1.669  12.612   8.711  0.2078 -0.2532 -0.7101
21455SOL    HW271606   1.795  12.669   8.650  0.0317 -0.1631 -0.9892
21456SOL     OW71607   4.829   5.027   5.350 -0.1550 -0.0475 -0.2541
21456SOL    HW171608   4.824   5.078   5.431  1.0031  0.0712 -0.2490
21456SOL    HW271609   4.829   4.936   5.380 -0.3248 -0.0144 -0.1528
21457SOL     OW71610   4.208   4.488   6.212  1.0948  0.5095  0.3646
21457SOL    HW171611   4.164   4.426   6.155  0.7385  0.0133  1.1597
21457SOL    HW271612   4.136   4.532   6.258  1.3999  0.0072  1.3465
21458SOL     OW71613  12.521   9.399   1.140 -0.0642  0.2465 -0.0285
21458SOL    HW171614  12.563   9.475   1.100  0.1777 -0.1770 -0.5964
21458SOL    HW271615  12.477   9.433   1.218 -0.6070  1.0992 -0.7042
21459SOL     OW71616   1.765  11.069   7.304 -0.2466 -0.2674 -0.0391
21459SOL    HW171617   1.707  11.030   7.239 -0.7711 -0.9613  0.8357
21459SOL    HW271618   1.853  11.042   7.276 -0.3157  0.6723 -1.2826
21460SOL     OW71619   4.472  11.676   8.477  0.0486 -0.2250 -0.4359
21460SOL    HW171620   4.531  11.612   8.436  0.9145 -0.8716  1.6537
21460SOL    HW271621   4.518  11.759   8.467  0.5016 -0.4554 -0.3290
21461SOL     OW71622  11.939   8.417   5.516  0.3963  0.3842 -0.0141
21461SOL    HW171623  11.868   8.472   5.549  0.1623 -0.6097  1.2100
21461SOL    HW271624  12.011   8.477   5.501 -1.0870  1.7101 -2.7573
21462SOL     OW71625   7.676   4.349   0.845  0.0313 -0.2060  0.2628
21462SOL    HW171626   7.632   4.287   0.904  1.1899 -1.6653 -0.3402
21462SOL    HW271627   7.763   4.361   0.883  0.5461 -0.6195 -0.7495
21463SOL     OW71628   1.814   7.317   5.158 -0.1117 -0.0831 -0.2618
21463SOL    HW171629   1.818   7.341   5.066 -1.0749 -0.7089 -0.4840
21463SOL    HW271630   1.726   7.344   5.186  0.0414 -0.2236  0.3770
21464SOL     OW71631  12.106   1.916   4.373 -0.3466  0.0662 -0.0219
21464SOL    HW171632  12.179   1.949   4.321 -1.3309 -1.2339 -2.3933
21464SOL    HW271633  12.058   1.995   4.399 -0.1198  0.7446 -1.5766
21465SOL     OW71634  11.291   8.779  12.105 -0.3956 -0.0700 -0.0319
21465SOL    HW171635  11.218   8.830  12.141 -0.3219  0.4539 -0.6205
21465SOL    HW271636  11.348   8.764  12.180 -1.0066 -0.3219  0.3977
21466SOL     OW71637  11.673   8.457   2.242  0.1722  0.3031  0.4887
21466SOL    HW171638  11.601   8.440   2.182  1.9018  0.6596 -1.8327
21466SOL    HW271639  11.736   8.508   2.191  1.5883  1.0073  2.7563
21467SOL     OW71640   2.114   3.314   2.319  0.3047 -0.2210  0.0259
21467SOL    HW171641   2.109   3.271   2.405 -2.6432 -0.0275  0.0518
21467SOL    HW271642   2.099   3.407   2.338  1.0240  0.0305 -0.5938
21468SOL     OW71643   8.419   5.886   4.361 -0.4693 -0.1593 -0.0791
21468SOL    HW171644   8.457   5.884   4.448 -0.2500 -0.8327 -0.1833
21468SOL    HW271645   8.465   5.957   4.316  0.0295 -0.3797  0.0796
21469SOL     OW71646  12.292   1.235   0.844  0.1654  0.0791  0.0824
21469SOL    HW171647  12.310   1.237   0.938 -0.0741  0.7540  0.1155
21469SOL    HW271648  12.259   1.322   0.824 -2.3074 -0.8054 -0.1137
21470SOL     OW71649   3.774  10.279   5.201 -0.5665  0.1462 -0.0969
21470SOL    HW171650   3.837  10.314   5.139 -0.6116  0.8539  0.2526
21470SOL    HW271651   3.804  10.189   5.218 -1.7978 -0.8873 -2.8527
21471SOL     OW71652  12.567  10.837  10.033  0.3712  0.5194  0.1803
21471SOL    HW171653  12.509  10.864   9.962  2.1474  2.2982 -0.6885
21471SOL    HW271654  12.520  10.766  10.077 -1.0405 -0.2426 -2.3909
21472SOL     OW71655  11.029  10.499   4.546 -0.3273 -0.0977  0.2564
21472SOL    HW171656  10.998  10.409   4.536  1.2752 -0.4373 -2.5709
21472SOL    HW271657  11.124  10.493   4.533 -0.0985  1.9547  0.5995
21473SOL     OW71658   8.164  12.620   7.156 -0.9790 -0.1631  0.5260
21473SOL    HW171659   8.214  12.702   7.146 -1.2353 -0.1812 -1.0990
21473SOL    HW271660   8.086  12.646   7.204 -0.5064  0.3148  1.0579
21474SOL     OW71661   9.341   9.100   1.061 -0.1988  0.1843  0.2940
21474SOL    HW171662   9.320   9.083   1.153  0.7048  1.2513  0.7264
21474SOL    HW271663   9.359   9.194   1.058  0.1135  0.1014 -0.9159
21475SOL     OW71664  12.488   2.878   2.877 -0.1646 -0.5024  0.9234
21475SOL    HW171665  12.479   2.807   2.942  3.2500 -0.3356  1.8167
21475SOL    HW271666  12.459   2.956   2.923 -2.7559 -1.0574  0.3625
21476SOL     OW71667  10.734   9.872   4.742 -0.0092  0.0007 -0.2227
21476SOL    HW171668  10.754   9.789   4.785 -1.3220 -1.4250 -2.2057
21476SOL    HW271669  10.647   9.896   4.775  1.1781  1.7646  1.9169
21477SOL     OW71670   7.341   4.479   8.042 -0.0480 -0.1359 -0.1349
21477SOL    HW171671   7.348   4.400   7.988 -0.7913 -0.0410 -0.3813
21477SOL    HW271672   7.427   4.521   8.034 -0.2633  0.0876 -1.5833
21478SOL     OW71673   7.328   9.526  12.562 -0.1545 -0.1070 -0.2709
21478SOL    HW171674   7.255   9.518  12.501 -0.7251  4.4744 -0.5442
21478SOL    HW271675   7.401   9.557  12.508  0.5557  0.0952  0.7690
21479SOL     OW71676   4.554  12.592   4.865 -0.1781  0.2534  0.5708
21479SOL    HW171677   4.633  12.605   4.813 -1.3913  2.1764 -0.9095
21479SOL    HW271678   4.500  12.669   4.848 -1.7993 -0.3131  2.6339
21480SOL     OW71679   7.171  11.645  11.095  0.6449 -0.3271  0.3568
21480SOL    HW171680   7.225  11.600  11.030  0.0970 -0.7455  0.1853
21480SOL    HW271681   7.234  11.677  11.161  0.8653 -3.6880  1.9579
21481SOL     OW71682   4.385   4.736   9.133 -0.0367 -0.0707  0.6094
21481SOL    HW171683   4.396   4.673   9.062 -0.0465  0.6872 -0.0901
21481SOL    HW271684   4.315   4.700   9.187 -2.8322  1.1742 -1.9265
21482SOL     OW71685   7.930   7.320  12.042  0.0603 -0.0518  0.0449
21482SOL    HW171686   7.861   7.255  12.048 -0.7954  0.6216 -1.8050
21482SOL    HW271687   7.965   7.327  12.131 -0.7941 -1.9549  0.5701
21483SOL     OW71688   8.577   9.006   5.531  0.0623 -0.0815 -0.1754
21483SOL    HW171689   8.484   9.008   5.506 -0.1363  0.7364  0.5824
21483SOL    HW271690   8.587   8.922   5.576 -0.4813  0.0951  0.3022
21484SOL     OW71691   1.950   8.084   3.361  0.7986 -0.2082 -0.1250
21484SOL    HW171692   1.902   8.125   3.434 -0.3092 -0.9954 -0.3763
21484SOL    HW271693   2.041   8.081   3.390  0.6585  1.0279  0.5184
21485SOL     OW71694  12.512  12.620  11.275 -0.0762  0.1605  0.4012
21485SOL    HW171695  12.567  12.698  11.265 -0.2187  0.2598  0.3747
21485SOL    HW271696  12.456  12.639  11.351 -1.3623  0.8576 -0.6641
21486SOL     OW71697   8.577  11.462   3.924 -0.0991  0.5153 -0.2119
21486SOL    HW171698   8.568  11.397   3.993 -0.4875 -1.3815 -1.9499
21486SOL    HW271699   8.597  11.544   3.970 -0.7247 -0.5689  2.1275
21487SOL     OW71700   5.720   5.525   9.638 -0.4023  0.3799  0.0801
21487SOL    HW171701   5.722   5.431   9.624  1.0865  0.0167  2.2932
21487SOL    HW271702   5.794   5.559   9.587 -0.1083  0.1742  0.3710
21488SOL     OW71703   0.371   6.813  11.348 -0.4260  0.4476  0.5449
21488SOL    HW171704   0.460   6.815  11.385 -0.4871  1.2425  0.6678
21488SOL    HW271705   0.334   6.898  11.371 -1.0109  0.3543 -0.0269
21489SOL     OW71706   2.144   4.886  11.934  0.2799 -0.3517  0.8179
21489SOL    HW171707   2.185   4.953  11.880  0.3401  0.2404  1.5756
21489SOL    HW271708   2.052   4.887  11.907  0.4630 -0.6352  0.1648
21490SOL     OW71709   4.999  11.142   7.456 -0.0916  0.0569 -0.0131
21490SOL    HW171710   5.036  11.128   7.544  1.1327  2.0722 -0.1544
21490SOL    HW271711   5.075  11.154   7.400 -0.8245 -2.0586 -1.5898
21491SOL     OW71712   1.081   6.408   1.047  0.5293  0.6064 -0.3354
21491SOL    HW171713   1.168   6.395   1.008  0.4459  0.5812 -0.5152
21491SOL    HW271714   1.060   6.325   1.088  0.2793  0.3777 -0.9164
21492SOL     OW71715  10.275   8.855  12.598 -0.0748  0.3501 -0.0825
21492SOL    HW171716  10.299   8.944  12.573 -1.4601  0.7612 -0.0189
21492SOL    HW271717  10.303   8.801  12.524 -1.0351  1.1090 -1.0369
21493SOL     OW71718   4.076  10.459   3.215  0.4006  0.0212 -0.3559
21493SOL    HW171719   4.043  10.369   3.223  0.8981 -0.0834  0.6109
21493SOL    HW271720   4.139  10.468   3.285 -0.6123  1.5559  0.4090
21494SOL     OW71721  10.597   8.417   7.283 -0.1515  0.1444 -0.4039
21494SOL    HW171722  10.516   8.399   7.332 -0.3999 -0.5949 -1.0597
21494SOL    HW271723  10.663   8.361   7.325 -0.1333  0.2663 -0.2721
21495SOL     OW71724  12.046   6.103   5.847 -0.2630  0.4264  0.1257
21495SOL    HW171725  12.051   6.183   5.795  0.9667  1.1109  1.2148
21495SOL    HW271726  11.958   6.070   5.832 -0.4277  1.3806 -1.2113
21496SOL     OW71727   9.180  10.025   9.970  0.0349 -0.2641 -0.6498
21496SOL    HW171728   9.158   9.986  10.055 -1.3218  0.0216 -0.8502
21496SOL    HW271729   9.112   9.993   9.910  0.5051  0.1923 -1.4440
21497SOL     OW71730  10.523   0.067   8.475 -0.0162  0.1957  0.3213
21497SOL    HW171731  10.494   0.077   8.384  0.7983  0.7694  0.1099
21497SOL    HW271732  10.468  -0.003   8.510  0.6895 -1.0957 -1.0602
21498SOL     OW71733   9.871   2.870   0.854 -0.3078 -0.5585  0.7909
21498SOL    HW171734   9.811   2.817   0.907 -0.4515  0.3571  1.5815
21498SOL    HW271735   9.872   2.955   0.898  0.8938 -0.2881  0.2815
21499SOL     OW71736  11.011   1.610   1.343  0.3097  0.1744  0.3009
21499SOL    HW171737  11.075   1.681   1.336  0.7883 -0.0217  2.1724
21499SOL    HW271738  11.035   1.550   1.272 -0.6370  2.2017 -1.8894
21500SOL     OW71739   1.939   5.237   8.985  0.1798  0.2382 -0.5010
21500SOL    HW171740   1.967   5.321   8.947 -1.5375  0.6489 -0.9196
21500SOL    HW271741   1.922   5.256   9.077 -0.7225  0.4819 -0.7147
21501SOL     OW71742  10.083   2.883   8.550  0.0039  0.1665  0.8484
21501SOL    HW171743  10.119   2.967   8.576  2.7582 -1.0969  1.4291
21501SOL    HW271744  10.151   2.842   8.497 -0.8097 -2.1026  1.4140
21502SOL     OW71745   0.703  10.477  10.340  0.6776 -0.4025 -0.4270
21502SOL    HW171746   0.626  10.427  10.313  2.2610 -1.9029 -2.4854
21502SOL    HW271747   0.767  10.411  10.365  1.8582  0.7175 -0.3728
21503SOL     OW71748   5.488   0.697   9.167  0.0383 -0.2466 -0.0523
21503SOL    HW171749   5.488   0.708   9.262 -1.1260 -0.5868 -0.0023
21503SOL    HW271750   5.580   0.680   9.145  0.3892  0.2743  0.9505
21504SOL     OW71751   0.180  11.536   1.348 -0.2223 -0.1304  0.4507
21504SOL    HW171752   0.126  11.457   1.348 -0.4966  0.0447  1.1752
21504SOL    HW271753   0.152  11.584   1.270  0.0010 -0.7748 -0.0345
21505SOL     OW71754   6.634   2.188   8.189 -0.0219 -0.5206  0.1152
21505SOL    HW171755   6.574   2.218   8.257 -1.0907 -0.0477 -1.0042
21505SOL    HW271756   6.680   2.267   8.160 -0.9995 -0.3586 -1.0613
21506SOL     OW71757   5.368  10.505  11.870  0.1884 -0.1493 -0.5909
21506SOL    HW171758   5.446  10.561  11.873  1.1190 -1.2452 -2.5675
21506SOL    HW271759   5.295  10.566  11.863  0.9069  0.8778  0.4185
21507SOL     OW71760   7.329   3.346   4.593  0.0549 -0.2982 -1.0012
21507SOL    HW171761   7.379   3.350   4.675  1.6347 -1.4973 -1.8428
21507SOL    HW271762   7.243   3.382   4.616  1.4381  2.4555  0.3821
21508SOL     OW71763   1.419   6.914  11.557  0.6471  0.6684  0.0591
21508SOL    HW171764   1.485   6.865  11.605  1.7695  0.9230 -1.1424
21508SOL    HW271765   1.344   6.856  11.552  1.1140 -0.0014  0.6629
21509SOL     OW71766   6.945   6.484   4.317 -0.1614 -0.1488 -0.2247
21509SOL    HW171767   6.863   6.527   4.293  0.3207  0.7535 -0.3219
21509SOL    HW271768   6.919   6.397   4.345 -1.2744  0.4606  0.7412
21510SOL     OW71769   9.200   3.678   1.727 -1.0648  0.3508  0.4032
21510SOL    HW171770   9.157   3.740   1.786 -0.9714  0.0413  0.7964
21510SOL    HW271771   9.129   3.622   1.695 -0.9098 -0.4026  1.3464
21511SOL     OW71772   1.445   2.250   5.337  0.3278 -0.2051 -0.4701
21511SOL    HW171773   1.486   2.276   5.255  2.2284  0.7798  0.7262
21511SOL    HW271774   1.421   2.333   5.379  0.2854 -0.6597  0.4153
21512SOL     OW71775   7.764  10.267   7.032  0.0057 -0.6888 -0.4731
21512SOL    HW171776   7.758  10.278   6.937 -0.6045 -1.5929 -0.5600
21512SOL    HW271777   7.840  10.211   7.046  0.8071  0.3974 -0.3202
21513SOL     OW71778  10.481   8.757   9.113  0.6921  0.1125  0.1877
21513SOL    HW171779  10.409   8.743   9.051  0.1493 -0.7746  0.9864
21513SOL    HW271780  10.553   8.789   9.059 -0.6043  2.1024 -0.4937
21514SOL     OW71781   6.319   8.407  10.955 -0.4151 -0.2115 -0.2052
21514SOL    HW171782   6.250   8.346  10.927  1.5116 -2.0511 -1.1812
21514SOL    HW271783   6.307   8.483  10.899 -1.7834 -0.3884 -0.2046
21515SOL     OW71784   8.092  11.724   0.319  0.5549 -0.4800 -0.4915
21515SOL    HW171785   8.133  11.699   0.237  0.0212 -0.5196 -0.7523
21515SOL    HW271786   8.110  11.652   0.379  1.6665 -0.0755 -0.3172
21516SOL     OW71787   4.163   9.368   3.883  0.2771 -0.2826 -0.6391
21516SOL    HW171788   4.166   9.452   3.837  1.7470  0.0217 -0.0467
21516SOL    HW271789   4.101   9.315   3.832 -0.0730  0.8797 -1.4776
21517SOL     OW71790  10.852   9.375  10.632  0.1784  0.2812  0.1805
21517SOL    HW171791  10.932   9.326  10.649 -1.0433 -1.9343 -0.0480
21517SOL    HW271792  10.786   9.332  10.687 -1.0893  1.2959 -0.4926
21518SOL     OW71793   8.201   1.048   4.371  0.0019 -0.2884 -0.2214
21518SOL    HW171794   8.111   1.018   4.387 -0.0327 -0.0073  0.1139
21518SOL    HW271795   8.239   1.057   4.458 -0.2228  1.3402 -0.2673
21519SOL     OW71796  12.120   4.982   0.702 -0.2407  0.1794  0.6349
21519SOL    HW171797  12.209   4.953   0.720  0.6158  1.7285 -0.8769
21519SOL    HW271798  12.084   4.914   0.644  0.7380  0.5895 -0.4991
21520SOL     OW71799   7.147   4.936   3.389 -0.1789  0.1601 -0.8171
21520SOL    HW171800   7.213   4.868   3.397  0.3167  0.7519  0.4000
21520SOL    HW271801   7.080   4.898   3.332  0.1014 -1.3254 -0.2053
21521SOL     OW71802   1.338   0.476   0.840 -0.2749  0.1690  0.0513
21521SOL    HW171803   1.414   0.501   0.893  1.8602 -3.1011 -1.1676
21521SOL    HW271804   1.273   0.445   0.903  1.0337 -0.8247  0.9626
21522SOL     OW71805   8.223  11.063   9.380 -0.1943 -0.1561 -0.0084
21522SOL    HW171806   8.288  11.029   9.442 -2.0146 -1.2256  1.4111
21522SOL    HW271807   8.275  11.097   9.307  1.9166 -1.9567  0.5392
21523SOL     OW71808  12.521   1.054   5.257 -0.4105 -0.1433 -0.0820
21523SOL    HW171809  12.502   0.981   5.317  0.2298 -0.9709 -0.8646
21523SOL    HW271810  12.496   1.021   5.171 -0.9479  0.8980 -0.3476
21524SOL     OW71811  10.607   6.514   1.342  0.3617 -0.8299  0.0587
21524SOL    HW171812  10.562   6.469   1.271  0.4575 -0.8816  0.0297
21524SOL    HW271813  10.624   6.602   1.308 -0.3864 -0.5646  0.3441
21525SOL     OW71814   8.612   2.596   7.040  0.1506 -0.8731  0.3573
21525SOL    HW171815   8.668   2.632   6.970  0.9409 -0.7835  1.0272
21525SOL    HW271816   8.656   2.621   7.121  1.0303 -3.7613  0.8843
21526SOL     OW71817  10.727   6.621   8.849  0.1928 -0.3236  0.4621
21526SOL    HW171818  10.803   6.594   8.901 -1.0416 -2.8471  1.1379
21526SOL    HW271819  10.728   6.562   8.774 -0.2213  0.7028 -0.3650
21527SOL     OW71820   7.385   0.312  11.667 -0.6642  0.1973  0.4097
21527SOL    HW171821   7.350   0.227  11.641 -1.0674  1.3548 -3.6032
21527SOL    HW271822   7.315   0.351  11.719 -0.5391 -1.7692  2.1762
21528SOL     OW71823   4.699   0.957   6.209  0.1938  0.4344 -0.2475
21528SOL    HW171824   4.614   0.957   6.166 -1.1832 -0.4802  2.2664
21528SOL    HW271825   4.747   0.885   6.168  0.8902  2.5610 -3.5140
21529SOL     OW71826   2.345   6.660   4.390  0.5525  0.0739  0.2198
21529SOL    HW171827   2.420   6.699   4.435  0.3646  0.8860 -0.1661
21529SOL    HW271828   2.281   6.730   4.386  0.7043  0.1341 -1.6483
21530SOL     OW71829   9.995   0.629   5.285  0.3297  0.3465  0.2609
21530SOL    HW171830   9.956   0.679   5.214  1.2535  1.5227  0.5625
21530SOL    HW271831   9.920   0.603   5.340 -0.4612 -1.0613 -1.3903
21531SOL     OW71832   2.833   9.661   5.376 -0.0129 -0.0280 -0.2878
21531SOL    HW171833   2.761   9.718   5.351 -0.0324  1.5383  2.8715
21531SOL    HW271834   2.811   9.576   5.337 -1.9802  1.1327 -1.8858
21532SOL     OW71835  11.555   8.460   0.289  0.4010  0.0666 -0.4427
21532SOL    HW171836  11.615   8.534   0.294  0.1855  0.2129  0.0169
21532SOL    HW271837  11.590   8.406   0.218  0.8958  0.3069 -0.3900
21533SOL     OW71838   5.339   9.874   0.800  0.3995  0.3838 -0.2274
21533SOL    HW171839   5.429   9.897   0.820 -0.2667  2.2621  0.7914
21533SOL    HW271840   5.299   9.854   0.885 -0.0958 -0.7199 -0.6918
21534SOL     OW71841   0.045   0.211   6.334  0.1043  0.1272 -0.2217
21534SOL    HW171842  -0.049   0.192   6.337 -0.0675  0.9059 -0.4887
21534SOL    HW271843   0.071   0.220   6.425 -0.3414  1.1388 -0.1906
21535SOL     OW71844   6.008   4.077   4.033  0.0722 -0.2946  0.5786
21535SOL    HW171845   6.029   4.043   3.946  1.4631  0.0438  0.7465
21535SOL    HW271846   5.913   4.088   4.033 -0.0116 -0.8637 -0.6831
21536SOL     OW71847  12.505   6.775  10.881 -0.2052  0.0141  0.2980
21536SOL    HW171848  12.555   6.777  10.963  0.6332  1.8158 -0.2181
21536SOL    HW271849  12.488   6.682  10.866 -1.0094 -0.3466  2.8685
21537SOL     OW71850   4.629   0.564   8.992  0.6029  0.5725  0.5099
21537SOL    HW171851   4.718   0.573   9.026  0.1833  0.3358  1.7267
21537SOL    HW271852   4.633   0.490   8.932  1.6059  1.6746 -0.8779
21538SOL     OW71853   4.933  10.446  10.835  0.2425 -0.1163  0.0064
21538SOL    HW171854   4.893  10.372  10.790  0.9956 -0.7843  0.4090
21538SOL    HW271855   4.954  10.508  10.765  0.8350 -0.8753 -0.5028
21539SOL     OW71856   1.870   7.981   1.444  0.2528  0.2209  0.2955
21539SOL    HW171857   1.797   8.041   1.457 -0.0075 -0.2317  1.0054
21539SOL    HW271858   1.879   7.973   1.349 -1.2437 -0.4513  0.1799
21540SOL     OW71859   3.935  10.421  11.939  0.2557 -0.0193  0.5519
21540SOL    HW171860   3.984  10.503  11.949 -1.3968  0.9173  1.3877
21540SOL    HW271861   3.886  10.413  12.021 -0.2691 -1.4198  0.1286
21541SOL     OW71862   6.367   2.881  12.496  0.1539 -0.2767 -0.1167
21541SOL    HW171863   6.385   2.791  12.468  0.6629 -0.4675  0.7964
21541SOL    HW271864   6.366   2.931  12.415  2.2976 -0.6901 -0.4654
21542SOL     OW71865   7.901   9.215   6.703 -0.0239  0.0050  0.5826
21542SOL    HW171866   7.992   9.199   6.727 -0.5708 -2.6092  1.2261
21542SOL    HW271867   7.861   9.251   6.783  0.2190  0.2579  0.5928
21543SOL     OW71868   5.138  10.336   0.299  0.1775  0.2073 -0.0755
21543SOL    HW171869   5.208  10.372   0.354 -0.2778 -0.2271  0.7981
21543SOL    HW271870   5.131  10.244   0.326 -1.0517  0.3649  0.1906
21544SOL     OW71871   0.510   6.398  12.260 -0.1593  0.0256 -0.2356
21544SOL    HW171872   0.433   6.423  12.310  0.2067 -0.2581  0.4764
21544SOL    HW271873   0.475   6.346  12.187 -0.5445 -1.3055  0.8537
21545SOL     OW71874   5.465   7.044   4.641  0.1678 -0.2521  0.5455
21545SOL    HW171875   5.441   7.020   4.551  1.6873 -3.6828  0.8981
21545SOL    HW271876   5.388   7.022   4.693 -0.1167  0.1303  0.2908
21546SOL     OW71877   4.577   2.666   7.484  0.4128 -0.0702  0.2214
21546SOL    HW171878   4.531   2.746   7.509  2.4632  1.6785 -1.2285
21546SOL    HW271879   4.542   2.644   7.398  0.1567 -0.5065  0.4338
21547SOL     OW71880   1.139   6.025   5.179 -0.7738  0.9345  0.3655
21547SOL    HW171881   1.098   5.957   5.232  0.5253 -2.0684 -2.1504
21547SOL    HW271882   1.070   6.052   5.118 -1.0869  1.4269  0.9215
21548SOL     OW71883   3.155  11.177  10.835  0.4023 -0.1135 -0.0318
21548SOL    HW171884   3.139  11.152  10.744 -1.8676 -1.7409  0.7200
21548SOL    HW271885   3.250  11.173  10.845  0.6374 -0.8059 -2.0636
21549SOL     OW71886  11.667  11.258   1.419  0.1453  0.2337 -0.2540
21549SOL    HW171887  11.594  11.246   1.359 -2.5031  0.4975  2.6722
21549SOL    HW271888  11.638  11.218   1.501  3.8186 -0.6989  0.7769
21550SOL     OW71889   9.904  10.892   8.110 -0.4501 -0.2767 -0.1844
21550SOL    HW171890   9.987  10.860   8.074 -0.7442  0.3844 -1.5056
21550SOL    HW271891   9.910  10.873   8.204  0.9347 -0.7849 -0.3491
21551SOL     OW71892   6.859   2.571   7.330 -0.4296  0.0723  0.5169
21551SOL    HW171893   6.786   2.611   7.282 -0.6834 -1.3642 -0.3625
21551SOL    HW271894   6.915   2.534   7.262 -0.1333 -0.9021  1.2662
21552SOL     OW71895   0.388   1.959  11.644 -0.1606 -0.6255 -0.4046
21552SOL    HW171896   0.459   1.995  11.698 -1.1726  0.1632  0.4664
21552SOL    HW271897   0.398   1.864  11.651  1.1304 -0.5401 -0.7685
21553SOL     OW71898  12.479   6.524  10.714 -0.1447  0.5391  0.2421
21553SOL    HW171899  12.402   6.468  10.710  0.5210 -0.3190 -2.1456
21553SOL    HW271900  12.517   6.520  10.626  2.6117  0.9498  1.3039
21554SOL     OW71901   9.367   2.304  10.868 -0.1957 -0.2165 -0.1143
21554SOL    HW171902   9.452   2.262  10.878  0.3876  0.6893 -1.1132
21554SOL    HW271903   9.387   2.397  10.856 -1.2937 -0.0453 -0.7739
21555SOL     OW71904   6.836   1.734   4.140  0.1223 -0.8335  0.4740
21555SOL    HW171905   6.759   1.731   4.083 -0.2067 -0.2409  0.8819
21555SOL    HW271906   6.802   1.758   4.226  0.6060 -1.7614  0.9463
21556SOL     OW71907  11.578   4.696   1.772  0.1928  0.2220  0.2467
21556SOL    HW171908  11.509   4.734   1.718  0.1201 -0.6115 -0.2647
21556SOL    HW271909  11.563   4.732   1.860 -1.3238 -0.4818  0.3063
21557SOL     OW71910   3.772  12.460  12.133  0.4764  0.0729  0.1594
21557SOL    HW171911   3.770  12.538  12.077  1.1358 -0.5086 -0.7057
21557SOL    HW271912   3.772  12.495  12.222  2.1401  1.1254 -0.2055
21558SOL     OW71913   4.381   9.783   3.739 -0.1663 -0.4820 -0.5081
21558SOL    HW171914   4.399   9.823   3.824 -2.0100 -0.0933 -0.2522
21558SOL    HW271915   4.456   9.726   3.723  1.4448  1.3128  0.1809
21559SOL     OW71916   2.600  11.424   6.950 -0.0556 -0.8028 -0.6561
21559SOL    HW171917   2.528  11.444   7.009  0.7787 -0.5887  0.3134
21559SOL    HW271918   2.670  11.392   7.007  0.6661 -0.8755 -1.5574
21560SOL     OW71919   3.475   9.017  12.443  0.2348  0.0495 -0.0231
21560SOL    HW171920   3.555   9.064  12.467  0.6850 -0.3506 -0.6985
21560SOL    HW271921   3.485   9.000  12.349 -1.2138  1.0899 -0.4044
21561SOL     OW71922   9.317   5.017  10.414  0.1603  0.1434 -0.0570
21561SOL    HW171923   9.247   5.076  10.388 -0.5615 -0.1224  1.2017
21561SOL    HW271924   9.392   5.043  10.361 -0.6361  1.0221 -0.7760
21562SOL     OW71925   0.769  11.753   6.662  0.2251 -0.0666 -0.2031
21562SOL    HW171926   0.698  11.816   6.673  0.1758  0.1401 -1.5841
21562SOL    HW271927   0.846  11.797   6.698 -0.0113  0.3712 -0.2292
21563SOL     OW71928   0.329   7.526   5.144  0.0448  0.0666 -0.5774
21563SOL    HW171929   0.331   7.448   5.090  0.1485  0.1775 -0.7345
21563SOL    HW271930   0.409   7.573   5.122 -0.8334  1.0695 -1.7652
21564SOL     OW71931  11.378   4.145   2.343  0.1225 -0.1288 -0.2413
21564SOL    HW171932  11.471   4.142   2.368 -0.6415 -0.0972  3.0991
21564SOL    HW271933  11.345   4.225   2.383 -1.6228 -0.8334 -0.1935
21565SOL     OW71934   9.777   3.557   3.183  0.6228 -0.2376 -0.2239
21565SOL    HW171935   9.853   3.551   3.240  0.3139  0.4827  0.2741
21565SOL    HW271936   9.746   3.647   3.193  0.6330 -0.0483 -1.6192
21566SOL     OW71937   0.225   1.699  10.712  0.1880  0.3153 -0.0877
21566SOL    HW171938   0.281   1.716  10.787  0.9789 -1.3934 -0.2526
21566SOL    HW271939   0.153   1.762  10.721  0.0382 -0.1294  2.3122
21567SOL     OW71940   5.536  12.061   1.611 -0.2379  0.7236  0.1845
21567SOL    HW171941   5.557  12.093   1.523  1.1677  1.6735  0.8260
21567SOL    HW271942   5.593  11.985   1.622 -0.7413  0.3322  0.1200
21568SOL     OW71943   5.232  11.637   3.509 -0.0390 -0.1946 -0.5466
21568SOL    HW171944   5.182  11.700   3.561 -1.6903 -0.0927 -2.1453
21568SOL    HW271945   5.322  11.648   3.538 -0.2201  3.0152 -0.8317
21569SOL     OW71946   6.673   1.293   5.750  0.3600 -0.0935  0.1427
21569SOL    HW171947   6.647   1.315   5.840  0.0975  1.6096 -0.3203
21569SOL    HW271948   6.698   1.377   5.711  0.8076 -0.8625 -1.2773
21570SOL     OW71949   9.976   3.579   8.892 -0.0260 -0.2593  0.5183
21570SOL    HW171950   9.994   3.660   8.941  1.0512 -1.2570  1.8283
21570SOL    HW271951  10.057   3.528   8.898 -0.2676 -0.9470 -1.3297
21571SOL     OW71952   1.830   9.257  11.826 -0.1063 -0.4060 -0.3775
21571SOL    HW171953   1.914   9.298  11.847 -0.2591 -0.1108 -0.3453
21571SOL    HW271954   1.811   9.203  11.903  0.4747 -1.1603 -0.7462
21572SOL     OW71955   5.512   6.350   1.362  0.3716 -0.1763 -0.0859
21572SOL    HW171956   5.535   6.384   1.448  0.0538 -0.7282  0.2214
21572SOL    HW271957   5.573   6.277   1.348  1.2593  0.6840 -0.8761
21573SOL     OW71958  12.454   8.030   3.146 -0.1812 -0.5348 -0.2780
21573SOL    HW171959  12.549   8.018   3.143 -0.2990 -1.7152 -0.0430
21573SOL    HW271960  12.423   7.982   3.069 -0.4580  1.5976 -1.5556
21574SOL     OW71961  12.219   0.118   1.635 -0.2160 -0.7670 -0.0734
21574SOL    HW171962  12.276   0.053   1.594  1.3466  0.1269  0.6084
21574SOL    HW271963  12.169   0.068   1.700  1.6811 -1.1775  1.1573
21575SOL     OW71964   0.029   8.869   7.283  0.0430  0.0791 -0.0706
21575SOL    HW171965  -0.041   8.804   7.281  0.7436 -0.6874 -0.9600
21575SOL    HW271966   0.019   8.917   7.200  0.1793  0.3866  0.0892
21576SOL     OW71967   4.603   8.852   9.454  0.3821  0.0072  0.3206
21576SOL    HW171968   4.689   8.877   9.422  0.9282 -1.2903  0.7159
21576SOL    HW271969   4.611   8.857   9.550  0.6280 -1.9279  0.4354
21577SOL     OW71970   5.446   3.869   3.880  0.1720 -1.0602  0.6578
21577SOL    HW171971   5.521   3.809   3.870  1.0929  0.0632  0.6873
21577SOL    HW271972   5.448   3.895   3.971 -0.2505 -1.0006  0.6515
21578SOL     OW71973   9.987   8.111   0.793  0.1314  0.2741 -0.2377
21578SOL    HW171974  10.071   8.089   0.753  0.8070  0.8752  0.7873
21578SOL    HW271975   9.944   8.168   0.729  0.6256  0.1764 -0.6616
21579SOL     OW71976  10.846  11.270   7.599  0.3979  1.0517 -0.2305
21579SOL    HW171977  10.882  11.182   7.603 -2.2461 -0.1562 -0.8927
21579SOL    HW271978  10.922  11.327   7.585  2.1139 -1.1449 -0.3210
21580SOL     OW71979   6.436   2.207   4.959  0.3849  0.3456 -0.2337
21580SOL    HW171980   6.475   2.123   4.933  2.8063  1.6882 -1.3539
21580SOL    HW271981   6.421   2.253   4.876  1.2611  1.8502  0.3918
21581SOL     OW71982  11.487   6.426   8.975 -0.2513  0.0076  1.0233
21581SOL    HW171983  11.445   6.371   9.041 -1.0560 -0.4313  0.1729
21581SOL    HW271984  11.555   6.473   9.023 -0.9172 -0.1731  2.1960
21582SOL     OW71985   7.927   4.428   0.993  0.9739 -0.3433  0.0177
21582SOL    HW171986   7.965   4.477   1.066  0.4933  0.9348 -0.5571
21582SOL    HW271987   8.001   4.380   0.955  1.4759 -0.0372  0.5881
21583SOL     OW71988   1.179  11.899   9.316  0.0387  0.5135 -0.6666
21583SOL    HW171989   1.223  11.891   9.231 -0.8354 -1.6879 -0.9659
21583SOL    HW271990   1.233  11.963   9.364  2.2505 -0.3738 -1.8084
21584SOL     OW71991   6.920   0.529   9.432 -0.0611  0.5337 -0.0532
21584SOL    HW171992   6.929   0.524   9.337  0.2317 -1.4535  0.0297
21584SOL    HW271993   6.830   0.561   9.446  0.0263  1.2265 -0.9802
21585SOL     OW71994   4.208   9.265   2.404  0.5665 -0.2712 -0.2538
21585SOL    HW171995   4.150   9.337   2.379  1.4428  0.6622  0.3340
21585SOL    HW271996   4.162   9.186   2.375 -0.7043  0.4788 -0.3444
21586SOL     OW71997  10.917   7.778  10.502  0.3934 -0.8617 -0.1067
21586SOL    HW171998  10.931   7.864  10.462  1.7512 -0.7307  0.5737
21586SOL    HW271999  10.872   7.727  10.435 -2.6068  1.0312  0.2359
21587SOL     OW72000   0.805   3.411   3.653 -0.4761  1.0068  0.2520
21587SOL    HW172001   0.740   3.359   3.699  1.1765 -2.1135 -0.6488
21587SOL    HW272002   0.824   3.483   3.712 -2.6258  0.4234  1.7832
21588SOL     OW72003   2.618   8.948   9.058  0.3280 -0.7179 -0.0286
21588SOL    HW172004   2.695   9.003   9.049  1.2198 -1.3816  2.5543
21588SOL    HW272005   2.549   8.993   9.009  1.6714  1.3063 -0.1606
21589SOL     OW72006   5.495   8.192  11.540  0.1035  0.1520 -0.5851
21589SOL    HW172007   5.509   8.112  11.489  1.8311  0.8730 -1.3151
21589SOL    HW272008   5.516   8.167  11.630  2.8452  0.2586 -1.1147
21590SOL     OW72009   6.455   5.501  12.705  0.3263  0.0690 -0.0647
21590SOL    HW172010   6.499   5.585  12.709  0.0898  0.1917 -0.0162
21590SOL    HW272011   6.526   5.437  12.695  0.4451  0.3572 -1.1796
21591SOL     OW72012   3.087   6.249   6.852 -0.0474 -0.2625 -0.2903
21591SOL    HW172013   3.173   6.212   6.873 -1.0029 -3.1144 -0.9597
21591SOL    HW272014   3.025   6.188   6.893 -1.7916  1.6099 -0.0017
21592SOL     OW72015   8.207   4.820   4.056 -0.5262 -0.0057  0.3425
21592SOL    HW172016   8.243   4.767   4.127 -1.2253 -0.3222  0.4716
21592SOL    HW272017   8.215   4.764   3.978 -1.7714 -0.5496  0.5759
21593SOL     OW72018   6.786   1.454   9.665  0.1232  1.0703  0.0602
21593SOL    HW172019   6.723   1.392   9.704 -0.5640  1.5408 -0.2718
21593SOL    HW272020   6.871   1.425   9.698  0.5133 -2.8334 -3.4580
21594SOL     OW72021   0.127   6.649   0.085  0.3018 -0.2268  0.0327
21594SOL    HW172022   0.068   6.720   0.109  0.1129 -0.2761 -0.2741
21594SOL    HW272023   0.191   6.646   0.156  1.2614  1.3015 -0.6921
21595SOL     OW72024   0.903   8.914  11.740  0.1684  0.5563  0.1126
21595SOL    HW172025   0.889   8.972  11.665  0.0262  0.6409  0.2044
21595SOL    HW272026   0.873   8.828  11.710  2.5286 -0.0187 -0.8395
21596SOL     OW72027   9.729  10.937   1.244  0.4279 -0.1433  0.3318
21596SOL    HW172028   9.701  10.907   1.331 -1.5948  1.3805  0.2916
21596SOL    HW272029   9.660  10.907   1.185 -0.3113  2.1095 -0.0798
21597SOL     OW72030   0.228   6.781   1.050  0.0080  0.2600 -0.4405
21597SOL    HW172031   0.263   6.738   1.128 -1.9677 -0.5974  0.0281
21597SOL    HW272032   0.266   6.732   0.977  0.0993 -0.3914  0.0343
21598SOL     OW72033   3.139   3.867   5.502 -0.0638 -0.0730  0.0652
21598SOL    HW172034   3.193   3.898   5.430 -1.3773  0.6076 -0.6694
21598SOL    HW272035   3.052   3.902   5.483 -0.8267 -1.3387  1.0625
21599SOL     OW72036  11.365  11.667   3.491  0.0498  0.4751  0.4920
21599SOL    HW172037  11.440  11.710   3.531 -0.1045  1.3546 -0.1378
21599SOL    HW272038  11.344  11.721   3.415  1.1184 -1.8140 -1.5591
21600SOL     OW72039  12.627   3.178  11.198 -0.1097  0.3854 -0.0814
21600SOL    HW172040  12.639   3.094  11.243  0.1764 -0.2163 -1.2423
21600SOL    HW272041  12.717   3.208  11.180 -0.1367 -1.0145 -3.1446
21601SOL     OW72042  12.069   7.256   2.205 -0.2504  0.3510 -0.1041
21601SOL    HW172043  12.032   7.185   2.257  0.9938 -0.0099  0.3419
21601SOL    HW272044  12.164   7.242   2.210 -0.0646  0.6809 -1.9531
21602SOL     OW72045  10.551   6.935   3.261  0.0071  0.3116  0.3620
21602SOL    HW172046  10.583   7.024   3.271  1.7655 -0.4034  1.5305
21602SOL    HW272047  10.527   6.907   3.349  0.9052 -0.8569  0.2626
21603SOL     OW72048   4.853   3.271   1.873 -0.1175  0.3583 -0.0964
21603SOL    HW172049   4.787   3.286   1.941  0.3342 -1.0578  0.6943
21603SOL    HW272050   4.803   3.244   1.796 -0.5336  0.5541  0.1036
21604SOL     OW72051   8.447   8.821   5.363  0.1701  0.8317  0.5282
21604SOL    HW172052   8.386   8.894   5.372 -0.3866  0.4440  0.0891
21604SOL    HW272053   8.394   8.744   5.384  0.5177  0.4915  0.1762
21605SOL     OW72054  11.291  10.066  12.331 -0.6238 -0.4865  0.3369
21605SOL    HW172055  11.260  10.061  12.421 -1.0795  1.7563  0.3535
21605SOL    HW272056  11.332  10.152  12.325 -1.9647  0.0652 -1.9928
21606SOL     OW72057   9.338  12.637   1.901 -0.3851 -0.0772 -0.1689
21606SOL    HW172058   9.348  12.731   1.919 -0.6377 -0.1077  0.1393
21606SOL    HW272059   9.258  12.613   1.947 -0.1760 -0.5068 -0.0317
21607SOL     OW72060   1.470   0.392   3.688  0.2017 -0.0560  0.0049
21607SOL    HW172061   1.552   0.411   3.641  0.0659  0.3511 -0.0698
21607SOL    HW272062   1.484   0.305   3.726  0.1459 -0.5958 -1.1533
21608SOL     OW72063  11.971   8.049   5.551  0.0055  0.2318  0.1434
21608SOL    HW172064  11.956   7.961   5.518 -1.2613 -1.1817  3.9414
21608SOL    HW272065  11.900   8.101   5.514 -0.3416 -0.7740 -0.6604
21609SOL     OW72066   4.780   0.984   1.165 -0.1246 -0.0779 -0.5376
21609SOL    HW172067   4.694   1.005   1.128 -0.3447  0.8529  0.4756
21609SOL    HW272068   4.808   1.064   1.209  1.2045 -0.4220 -0.7075
21610SOL     OW72069  12.711   6.195   4.442 -0.0626  1.0109 -0.1526
21610SOL    HW172070  12.756   6.159   4.366 -1.1750 -0.8180 -0.0113
21610SOL    HW272071  12.724   6.289   4.436  1.3805  0.7494 -1.6133
21611SOL     OW72072   5.489   8.963   0.464 -0.1345 -0.3902  0.1283
21611SOL    HW172073   5.517   8.875   0.489  0.5137 -0.4016 -0.6376
21611SOL    HW272074   5.562   9.020   0.488  0.1580 -0.2928 -0.9857
21612SOL     OW72075   0.817   7.781   0.719  0.3535 -0.5165 -0.2279
21612SOL    HW172076   0.820   7.846   0.649 -0.4450 -0.6907 -0.4392
21612SOL    HW272077   0.754   7.716   0.688 -0.3316 -0.3750  0.8321
21613SOL     OW72078   0.356   7.031   9.071  0.0336 -0.3647 -0.6293
21613SOL    HW172079   0.423   6.984   9.122  0.4621  0.7777 -0.0926
21613SOL    HW272080   0.281   7.037   9.130  0.4168  0.6757 -0.2154
21614SOL     OW72081   6.257   8.617   8.772 -0.4119  0.3574 -0.5655
21614SOL    HW172082   6.208   8.699   8.771 -0.1917  0.4877 -1.3747
21614SOL    HW272083   6.230   8.574   8.853 -0.3262  1.3478  0.0028
21615SOL     OW72084   5.529   4.907   2.414 -0.2953 -0.0229  0.2331
21615SOL    HW172085   5.457   4.959   2.450  0.4908  0.0372  1.7631
21615SOL    HW272086   5.586   4.970   2.371  1.1428  0.6118  2.8770
21616SOL     OW72087  12.100   3.037   0.049  0.5610 -0.6680 -0.5435
21616SOL    HW172088  12.031   2.972   0.044  0.2115 -0.2230 -2.0639
21616SOL    HW272089  12.167   3.006  -0.011  0.2727  0.4823 -1.4992
21617SOL     OW72090   6.530   6.808   1.739  0.4886  0.1754  0.4198
21617SOL    HW172091   6.532   6.872   1.668 -1.2602 -1.1422 -0.9240
21617SOL    HW272092   6.602   6.748   1.719  1.0550  0.7503  0.7189
21618SOL     OW72093   5.863   0.981   5.970  0.1378  0.0456 -0.0795
21618SOL    HW172094   5.932   1.036   6.009  0.4421 -0.9594  0.8500
21618SOL    HW272095   5.900   0.893   5.969 -1.8354 -0.9397  2.3898
21619SOL     OW72096   2.558   8.931  12.706  0.1606  0.1480 -0.0732
21619SOL    HW172097   2.503   8.853  12.715 -0.4638  0.5166 -0.6251
21619SOL    HW272098   2.603   8.919  12.623 -0.2953  0.5896 -0.3914
21620SOL     OW72099   7.943   7.964   5.247 -0.3511 -0.8417 -0.4628
21620SOL    HW172100   7.864   7.909   5.246 -0.7103 -0.3353 -0.5720
21620SOL    HW272101   7.954   7.990   5.156 -1.0763  0.5036 -0.1936
21621SOL     OW72102   1.866   0.036   7.216 -0.2139 -0.4216  0.1292
21621SOL    HW172103   1.915  -0.002   7.143 -0.6234 -0.1083 -0.3077
21621SOL    HW272104   1.932   0.085   7.265  0.0356 -0.5204 -0.1016
21622SOL     OW72105   0.887   3.825   7.188  0.0245  0.1351  0.1330
21622SOL    HW172106   0.808   3.861   7.228 -0.2765  0.1678 -0.4719
21622SOL    HW272107   0.954   3.830   7.257 -0.6704 -0.5380  0.8815
21623SOL     OW72108   4.452   1.247  10.442 -0.6042 -0.1327 -0.5258
21623SOL    HW172109   4.378   1.278  10.494 -0.5394  1.2873 -1.2304
21623SOL    HW272110   4.491   1.177  10.494 -0.6620  1.0940  1.2573
21624SOL     OW72111  10.940  11.528   8.686 -0.3791  0.2462 -0.2603
21624SOL    HW172112  10.881  11.506   8.758 -0.6348 -0.1092 -0.5703
21624SOL    HW272113  11.027  11.528   8.725 -0.6965  2.5619  0.6233
21625SOL     OW72114   1.996  11.772   5.998 -0.3958  0.0603  0.4211
21625SOL    HW172115   1.902  11.790   5.986  0.0638  2.1555 -0.4473
21625SOL    HW272116   2.021  11.825   6.073  0.3395  0.4756 -0.1104
21626SOL     OW72117   9.243   8.798   8.252 -0.4163  0.5983 -0.2571
21626SOL    HW172118   9.316   8.746   8.218 -2.0653 -2.1615  0.0753
21626SOL    HW272119   9.179   8.801   8.181 -0.8678  1.0995  0.1560
21627SOL     OW72120   1.861   8.300   7.567  0.1938  0.2994  0.1997
21627SOL    HW172121   1.874   8.315   7.661  0.0245 -0.0733  0.2839
21627SOL    HW272122   1.832   8.385   7.533  0.2531  0.4353  0.4833
21628SOL     OW72123   3.512  10.445   4.805 -0.1823 -0.4641  0.6844
21628SOL    HW172124   3.571  10.507   4.847  0.0127  0.1395 -0.4468
21628SOL    HW272125   3.426  10.489   4.807 -0.4498 -0.9817  1.5619
21629SOL     OW72126  11.867   2.853   5.282 -0.5495 -0.5088 -0.1931
21629SOL    HW172127  11.850   2.938   5.323  0.1435 -1.2144  1.6633
21629SOL    HW272128  11.793   2.798   5.309  0.4225 -1.2698  1.0250
21630SOL     OW72129   3.153   8.266   0.947 -0.2231  0.3489 -0.3060
21630SOL    HW172130   3.246   8.271   0.922  0.2082  0.2448  1.1936
21630SOL    HW272131   3.107   8.310   0.875  0.9789  0.4455 -1.0589
21631SOL     OW72132   5.015  11.075   6.191 -0.5203 -0.5566  0.1861
21631SOL    HW172133   5.029  11.158   6.145  1.1198 -0.8291  0.1364
21631SOL    HW272134   5.062  11.086   6.274  1.0925 -1.9736 -0.4804
21632SOL     OW72135   9.681   7.794  11.378  0.0749  0.6103  0.6645
21632SOL    HW172136   9.608   7.810  11.317 -0.0671 -0.9360  0.3850
21632SOL    HW272137   9.741   7.737  11.329 -0.2195 -0.9699  2.0656
21633SOL     OW72138  11.737   7.687   0.292  0.0655  0.0544 -0.2071
21633SOL    HW172139  11.659   7.649   0.332 -0.9271  3.5656  1.6023
21633SOL    HW272140  11.730   7.664   0.199 -2.3034 -0.9809  0.1675
21634SOL     OW72141   3.891  12.684   6.685 -0.2036  0.6654 -0.7411
21634SOL    HW172142   3.799  12.708   6.702  0.1979  1.9017 -0.1912
21634SOL    HW272143   3.913  12.729   6.604 -0.0097  0.5718 -0.7404
21635SOL     OW72144   6.105  11.210   8.518  0.0490 -0.5963 -0.2051
21635SOL    HW172145   6.107  11.114   8.527 -0.3372 -0.4456  2.5135
21635SOL    HW272146   6.155  11.228   8.439  1.1294 -2.9903 -0.1572
21636SOL     OW72147   8.657   7.870   7.957 -0.3354 -0.7292 -0.1720
21636SOL    HW172148   8.591   7.843   8.021 -0.5370  1.5747  0.6932
21636SOL    HW272149   8.606   7.909   7.886  0.0548  0.6044  0.2679
21637SOL     OW72150  10.014   1.262   2.463 -0.0227  0.1158 -0.5245
21637SOL    HW172151  10.092   1.215   2.433  0.0838 -0.1787  0.1883
21637SOL    HW272152  10.023   1.264   2.558 -0.8640  0.1255 -0.4408
21638SOL     OW72153   1.556   4.688   2.709 -0.4816 -0.2193  0.0463
21638SOL    HW172154   1.622   4.730   2.764  0.5560 -0.3236 -1.0860
21638SOL    HW272155   1.593   4.691   2.621 -1.2805 -1.7322 -0.3672
21639SOL     OW72156   2.402  11.921   5.475  0.1006  0.0556 -0.3057
21639SOL    HW172157   2.311  11.915   5.504 -0.3379  0.6786 -1.4556
21639SOL    HW272158   2.409  11.856   5.405  0.5587 -0.0183 -0.1960
21640SOL     OW72159   0.931   8.674  10.044 -0.2840 -0.2131  0.2554
21640SOL    HW172160   0.936   8.578  10.042 -2.0554 -0.3358 -0.7017
21640SOL    HW272161   0.981   8.699  10.121 -0.3083 -1.9647  0.8949
21641SOL     OW72162  10.705   3.531   0.682 -0.4389  0.3293 -0.4051
21641SOL    HW172163  10.645   3.595   0.643  0.4651  1.5872  0.2058
21641SOL    HW272164  10.791   3.570   0.672  0.0145 -0.2111  1.1235
21642SOL     OW72165   0.832  11.202  10.522 -0.6526 -0.1067  0.4004
21642SOL    HW172166   0.907  11.143  10.520 -0.9946 -0.5514  0.4157
21642SOL    HW272167   0.773  11.163  10.587 -1.7578 -0.8612 -0.9803
21643SOL     OW72168   6.715   2.465  12.667  0.1220 -0.1237 -0.4085
21643SOL    HW172169   6.659   2.513  12.728 -0.8870 -0.2170 -1.2123
21643SOL    HW272170   6.730   2.526  12.595 -1.8292 -1.1807 -1.8211
21644SOL     OW72171   2.293   9.270   7.203 -0.5855  0.1540 -0.0184
21644SOL    HW172172   2.350   9.224   7.141 -1.1796 -0.1377 -0.3493
21644SOL    HW272173   2.286   9.359   7.168  1.5542  0.9323  1.2556
21645SOL     OW72174   8.880   1.194   6.831  0.2717  0.0082  0.6109
21645SOL    HW172175   8.919   1.144   6.903 -0.7822  0.0559  1.2451
21645SOL    HW272176   8.791   1.213   6.861 -0.3532 -0.3710 -0.9075
21646SOL     OW72177   9.682  10.455   2.593  0.0511  0.0837 -0.5179
21646SOL    HW172178   9.629  10.488   2.665 -0.5700 -0.7562 -0.5826
21646SOL    HW272179   9.755  10.409   2.636 -0.1492 -0.1491 -0.4283
21647SOL     OW72180   5.362   7.395   5.322 -0.4220 -0.4045 -0.3528
21647SOL    HW172181   5.412   7.473   5.299 -0.0881 -0.0156  1.5397
21647SOL    HW272182   5.425   7.323   5.315  0.6222  0.1293  2.3878
21648SOL     OW72183   1.939  12.025   6.896  0.1602  0.0239 -0.2922
21648SOL    HW172184   1.996  12.100   6.914  0.6584 -0.4258  0.0358
21648SOL    HW272185   1.896  12.047   6.813 -0.2424  0.9898  0.1477
21649SOL     OW72186  11.764   4.888  10.871 -0.1940 -0.0249  0.4507
21649SOL    HW172187  11.831   4.830  10.835 -0.0570  1.0871 -1.1987
21649SOL    HW272188  11.695   4.829  10.903  0.3356 -1.1038 -0.3644
21650SOL     OW72189  10.625   1.490   1.472 -0.1517 -0.3069  0.7311
21650SOL    HW172190  10.530   1.493   1.457 -0.2960 -2.0089  1.0790
21650SOL    HW272191  10.646   1.397   1.471  1.2979 -0.0340  2.0246
21651SOL     OW72192  11.327   0.701  10.446 -0.0840  0.7969  0.1401
21651SOL    HW172193  11.364   0.624  10.489  0.4892  1.1148  0.2226
21651SOL    HW272194  11.286   0.666  10.367  1.9430  0.6287 -0.9163
21652SOL     OW72195  11.546   9.160   7.097 -0.1347 -0.4775 -0.2266
21652SOL    HW172196  11.609   9.088   7.098 -0.7494 -1.0300  0.6023
21652SOL    HW272197  11.486   9.139   7.027 -0.6855 -1.1203  0.4270
21653SOL     OW72198  11.531   4.417   7.524  0.0181  0.5729 -0.7537
21653SOL    HW172199  11.572   4.413   7.611 -0.1431  1.4425 -0.6219
21653SOL    HW272200  11.581   4.483   7.477 -0.0140  0.2347 -1.2635
21654SOL     OW72201  11.227  12.006  11.042 -0.0631 -0.5868  0.3637
21654SOL    HW172202  11.217  11.912  11.033 -1.2010 -0.3300 -1.5631
21654SOL    HW272203  11.171  12.043  10.974 -0.5240  1.5214  1.7842
21655SOL     OW72204   3.410   1.332  12.290 -0.4511  0.3603  0.6962
21655SOL    HW172205   3.342   1.388  12.255  0.1772  1.8138  1.7048
21655SOL    HW272206   3.363   1.260  12.332 -1.2832  0.2815 -0.3462
21656SOL     OW72207   6.093   3.293   5.953 -0.2563  0.2510  0.4002
21656SOL    HW172208   6.070   3.229   5.886 -1.4301 -0.7444  1.6735
21656SOL    HW272209   6.037   3.369   5.934 -1.7922 -0.6378  1.1308
21657SOL     OW72210  12.336  12.118  10.736  0.1900 -0.1354 -0.1063
21657SOL    HW172211  12.401  12.177  10.775 -0.4758  0.5308  0.0097
21657SOL    HW272212  12.270  12.107  10.805 -0.4787  0.2328 -0.6828
21658SOL     OW72213  10.383   0.695   8.957 -0.4146 -0.0411 -0.5244
21658SOL    HW172214  10.358   0.769   9.012  0.5212  0.5913 -0.9247
21658SOL    HW272215  10.386   0.620   9.017  1.3641  0.7795  0.5032
21659SOL     OW72216   9.008  10.973   5.292  0.4354  0.4628  0.4031
21659SOL    HW172217   8.982  10.945   5.204  0.8741 -0.0225  0.4188
21659SOL    HW272218   8.967  10.910   5.351 -0.0387  0.9193  0.5616
21660SOL     OW72219   4.668   7.369   4.551 -0.0975  0.0282  0.0884
21660SOL    HW172220   4.573   7.365   4.539  0.1100  1.0247 -2.2071
21660SOL    HW272221   4.693   7.279   4.573 -1.4125 -0.5401 -0.6669
21661SOL     OW72222   8.881   1.102   1.906 -0.1789 -0.0436 -0.0052
21661SOL    HW172223   8.963   1.104   1.955 -0.6604 -2.3625  1.0220
21661SOL    HW272224   8.836   1.182   1.930  1.2318  0.6573  0.3859
21662SOL     OW72225   1.244   3.092   4.784  0.5331  0.2590  0.0073
21662SOL    HW172226   1.263   3.172   4.834 -1.8523  0.7966  0.1758
21662SOL    HW272227   1.330   3.053   4.768  1.7204  2.4611  0.5703
21663SOL     OW72228  10.542  10.452   5.450  0.1709 -0.4558 -0.0171
21663SOL    HW172229  10.447  10.443   5.456  0.1489  0.5200  1.8368
21663SOL    HW272230  10.574  10.361   5.451 -0.6370 -0.8410  3.2376
21664SOL     OW72231  11.763   3.064   4.949  0.1612 -0.1307 -0.4623
21664SOL    HW172232  11.737   3.155   4.961  1.1571  0.0676  0.3839
21664SOL    HW272233  11.801   3.062   4.861  0.8645  0.4708 -0.1874
21665SOL     OW72234   7.074   5.720  11.926 -0.5147  0.1406 -0.1960
21665SOL    HW172235   7.093   5.693  12.016 -0.1136 -0.4099 -0.4384
21665SOL    HW272236   7.054   5.813  11.933  0.6990  0.3936  0.3106
21666SOL     OW72237   3.024   2.772   6.380  0.6734  0.4007  0.3111
21666SOL    HW172238   3.061   2.768   6.292  0.4737 -0.4169  0.2613
21666SOL    HW272239   2.963   2.845   6.377 -0.3016 -0.4244 -0.6104
21667SOL     OW72240   3.248   1.128  12.527 -0.1770 -0.0613 -0.0841
21667SOL    HW172241   3.249   1.039  12.562  1.1017  0.2666  0.7545
21667SOL    HW272242   3.251   1.116  12.432  1.7101 -0.9214  0.0382
21668SOL     OW72243   8.189   5.492   0.000 -0.2729  0.3063 -0.2215
21668SOL    HW172244   8.098   5.465  -0.004 -0.2830  0.2479  0.3256
21668SOL    HW272245   8.209   5.524  -0.088 -0.4106 -0.9624 -0.7365
21669SOL     OW72246   8.435   9.766   2.965  0.8578 -0.0795 -0.0719
21669SOL    HW172247   8.410   9.830   3.031  0.6203  1.2491 -1.3803
21669SOL    HW272248   8.516   9.728   2.997  0.0919 -0.4181  1.5767
21670SOL     OW72249  12.526   7.505   8.287 -0.2753 -0.2401  0.0781
21670SOL    HW172250  12.468   7.448   8.337 -0.8712  0.5350  0.2908
21670SOL    HW272251  12.584   7.445   8.240 -0.3719 -0.9981  0.9026
21671SOL     OW72252  12.137   5.384   3.917  0.5631 -0.1779  0.2500
21671SOL    HW172253  12.229   5.388   3.943  0.8616 -0.2783 -0.7588
21671SOL    HW272254  12.099   5.316   3.973  1.0844 -0.0863  0.7196
21672SOL     OW72255   0.395   2.163  11.958  0.5960  0.6743  0.2577
21672SOL    HW172256   0.312   2.134  11.995  0.2820  2.1578  0.8113
21672SOL    HW272257   0.372   2.242  11.908  1.5505  0.6478 -0.2442
21673SOL     OW72258   2.204  10.512   7.217 -0.6108  0.4850  0.1378
21673SOL    HW172259   2.246  10.426   7.222  1.4543  1.4519  0.2693
21673SOL    HW272260   2.171  10.527   7.305 -1.5778 -0.4338 -0.0495
21674SOL     OW72261   5.036  10.788   7.176 -0.0966  0.1820 -0.0455
21674SOL    HW172262   5.108  10.808   7.115 -0.6396 -2.3750 -1.6914
21674SOL    HW272263   4.971  10.857   7.160  1.2558  1.6119  0.3190
21675SOL     OW72264   8.091  11.844  10.142  0.1661 -0.2701 -0.4702
21675SOL    HW172265   8.076  11.804  10.227  0.4365  0.3077 -0.1421
21675SOL    HW272266   8.029  11.917  10.138 -1.2906 -1.5057 -1.6341
21676SOL     OW72267  12.426  12.020   2.190  0.2930 -0.1369  0.2036
21676SOL    HW172268  12.463  11.936   2.162  0.7691  0.2444 -0.3513
21676SOL    HW272269  12.470  12.085   2.134  0.7243  0.5855  1.3457
21677SOL     OW72270   6.160  10.986   0.039 -0.3378 -0.5991  0.0133
21677SOL    HW172271   6.075  11.022   0.060 -0.7507 -2.4509  1.8526
21677SOL    HW272272   6.142  10.922  -0.031 -0.3551 -0.5813  0.0011
21678SOL     OW72273   4.845   7.511   8.058 -0.0914  0.5464 -0.3886
21678SOL    HW172274   4.757   7.539   8.086 -0.0224  0.5490 -0.1700
21678SOL    HW272275   4.904   7.570   8.103 -0.0248  1.5075 -1.6850
21679SOL     OW72276  11.566   2.871   0.191  0.1086 -0.1689  0.5204
21679SOL    HW172277  11.613   2.796   0.230  0.8581 -0.1040 -0.2286
21679SOL    HW272278  11.532   2.838   0.108  1.1207  0.5174 -0.1940
21680SOL     OW72279   9.208   6.166   0.175 -0.1680  0.6778 -0.6222
21680SOL    HW172280   9.242   6.100   0.236 -2.3919  0.0948  0.0861
21680SOL    HW272281   9.287   6.207   0.137  1.2698 -0.4158  1.0268
21681SOL     OW72282   9.287   2.407   9.503  0.0609  0.4271 -0.3349
21681SOL    HW172283   9.219   2.422   9.438 -1.6359 -1.2207  0.9338
21681SOL    HW272284   9.279   2.481   9.563 -0.0617  0.6562 -0.6292
21682SOL     OW72285   0.534  11.347  10.666 -0.0812  0.3839  0.4138
21682SOL    HW172286   0.588  11.333  10.744 -0.7510  0.4474  0.8985
21682SOL    HW272287   0.583  11.410  10.613  0.0358  0.8939  1.1233
21683SOL     OW72288   6.870   7.921   2.741 -0.4897  0.6714 -0.1665
21683SOL    HW172289   6.934   7.885   2.680 -0.7891 -1.0810  0.4841
21683SOL    HW272290   6.801   7.854   2.746 -0.2203  0.4673  2.4722
21684SOL     OW72291  10.340   0.965   7.846 -0.2430 -0.1214 -0.9894
21684SOL    HW172292  10.382   1.035   7.796 -1.1335  0.0557 -1.5021
21684SOL    HW272293  10.412   0.922   7.892  0.3907  0.7304 -1.1654
21685SOL     OW72294  10.227   2.098   4.300 -0.1268 -0.3980  0.4164
21685SOL    HW172295  10.227   2.190   4.327 -1.5289 -0.3543  0.3847
21685SOL    HW272296  10.315   2.067   4.318 -0.0042  0.6052  1.6961
21686SOL     OW72297   0.755  10.258  11.880  0.4872  0.0157 -0.4012
21686SOL    HW172298   0.756  10.249  11.785 -0.4700 -1.9751 -0.2673
21686SOL    HW272299   0.663  10.251  11.904  0.8997 -2.3999  0.8373
21687SOL     OW72300   8.193  12.273   2.925 -0.2517  0.5096  0.5617
21687SOL    HW172301   8.194  12.267   2.829 -1.2931  1.0689  0.4938
21687SOL    HW272302   8.159  12.188   2.954 -1.4406  0.8933  0.3419
21688SOL     OW72303   7.155   8.332   4.569  0.0630 -0.5047  0.3160
21688SOL    HW172304   7.079   8.388   4.591  1.5735  1.6059  0.4812
21688SOL    HW272305   7.218   8.393   4.531  0.9562 -2.5653 -1.6760
21689SOL     OW72306   2.746  11.367   1.742  0.0188  0.2133  0.2036
21689SOL    HW172307   2.670  11.327   1.700 -0.6000  2.3825 -0.8706
21689SOL    HW272308   2.716  11.391   1.829 -0.2398  0.2553  0.1024
21690SOL     OW72309  10.554   2.903   3.414 -0.3515  0.1225  0.0324
21690SOL    HW172310  10.462   2.885   3.433 -0.4326 -0.6568 -0.9839
21690SOL    HW272311  10.569   2.863   3.328  1.2224 -0.7104  0.6604
21691SOL     OW72312   5.405   1.443  10.520 -0.1694  0.5289 -0.3068
21691SOL    HW172313   5.342   1.500  10.564  0.0816  1.0278 -0.5801
21691SOL    HW272314   5.462   1.411  10.591  0.3149  1.4337 -0.2697
21692SOL     OW72315   1.128  12.405   9.237 -0.0589 -0.2507  0.1459
21692SOL    HW172316   1.140  12.495   9.208  2.8323 -0.7892 -0.7228
21692SOL    HW272317   1.141  12.409   9.332  2.3936  0.0236 -0.1402
21693SOL     OW72318   6.964  10.480  10.480  0.2398 -0.2665 -0.1191
21693SOL    HW172319   6.909  10.485  10.559  0.7618  0.4344  0.2139
21693SOL    HW272320   7.052  10.466  10.513  0.2195 -1.8394 -0.6758
21694SOL     OW72321   4.854   9.546  11.797  0.0690  0.2757 -0.0004
21694SOL    HW172322   4.777   9.603  11.808 -0.1147  0.7277 -2.8933
21694SOL    HW272323   4.826   9.462  11.832 -1.4962  0.6460 -0.2613
21695SOL     OW72324   6.435   4.965   6.979  0.1129 -0.3288 -0.0432
21695SOL    HW172325   6.524   4.960   7.012 -1.3735  0.7120  4.9596
21695SOL    HW272326   6.430   5.049   6.933  1.2612  0.5056  1.3012
21696SOL     OW72327   5.838   1.118   9.893 -0.3524  0.2722 -0.3991
21696SOL    HW172328   5.796   1.034   9.873 -0.8706 -0.6170  3.5053
21696SOL    HW272329   5.770   1.183   9.882 -0.8294 -0.2451 -0.5458
21697SOL     OW72330   0.489   6.871   9.231  0.2742  0.2553  0.1795
21697SOL    HW172331   0.563   6.839   9.179 -0.6732 -1.0876 -0.4046
21697SOL    HW272332   0.470   6.800   9.292 -1.3912 -0.0293 -0.6152
21698SOL     OW72333  11.968   0.746   6.503  0.0238 -0.2159 -0.2039
21698SOL    HW172334  12.032   0.808   6.467 -0.1975 -0.0935 -0.3889
21698SOL    HW272335  11.884   0.775   6.468 -0.2558  0.1539  0.7559
21699SOL     OW72336   1.651   5.325   8.807 -0.1290  0.3180 -0.0593
21699SOL    HW172337   1.654   5.337   8.902 -1.3657 -0.8624  0.1458
21699SOL    HW272338   1.569   5.366   8.780  0.4957  1.1746 -0.7262
21700SOL     OW72339  10.635  10.630   9.447  0.6576  0.1878  0.2873
21700SOL    HW172340  10.634  10.537   9.466  2.0733 -0.0659 -0.6977
21700SOL    HW272341  10.563  10.643   9.386  0.2357 -0.1930  0.7039
21701SOL     OW72342   9.677   4.999   2.599  0.1564 -0.5472 -0.0961
21701SOL    HW172343   9.603   5.054   2.573  0.3574 -0.1707  0.1153
21701SOL    HW272344   9.691   4.941   2.524  0.8049  0.6138 -0.9199
21702SOL     OW72345   9.772   4.551   3.060 -0.4771 -0.1380 -0.1491
21702SOL    HW172346   9.749   4.511   2.976 -1.1828 -1.8753  0.8033
21702SOL    HW272347   9.852   4.600   3.042 -0.8487 -0.1026 -1.9215
21703SOL     OW72348  11.634  11.271   4.268 -0.0191 -0.3050  0.1953
21703SOL    HW172349  11.554  11.322   4.280 -0.1453  0.0402 -1.8115
21703SOL    HW272350  11.697  11.333   4.231  0.4190 -1.1477 -0.5159
21704SOL     OW72351  11.275  10.743  12.119  0.5260  0.0595  0.2308
21704SOL    HW172352  11.259  10.837  12.122  1.0929  0.1746 -0.1315
21704SOL    HW272353  11.305  10.721  12.207 -1.8843 -0.2310  1.0294
21705SOL     OW72354   2.564   5.195   4.001 -0.0643 -0.6157 -0.3609
21705SOL    HW172355   2.511   5.131   4.048 -0.8822 -0.5698 -1.1941
21705SOL    HW272356   2.569   5.161   3.912  3.3998 -1.9057  0.1841
21706SOL     OW72357   2.040   1.085   6.608 -0.4462 -0.6711  0.0013
21706SOL    HW172358   1.962   1.039   6.640  0.0513 -1.3151  0.3322
21706SOL    HW272359   2.041   1.069   6.514  0.0407 -1.8842  0.1884
21707SOL     OW72360   0.677  11.807   9.789  0.2607 -0.0310  0.6185
21707SOL    HW172361   0.666  11.713   9.806 -0.5191 -0.1054 -0.2438
21707SOL    HW272362   0.648  11.819   9.699  0.6911  0.9903  0.6030
21708SOL     OW72363   3.463   5.978   9.811 -0.6636  0.4065  0.3486
21708SOL    HW172364   3.482   5.887   9.835 -0.9286  0.4662  0.8052
21708SOL    HW272365   3.386   6.000   9.863  1.6687  2.1885  3.3677
21709SOL     OW72366   0.998   1.828   7.731  0.1954  0.3664  0.5797
21709SOL    HW172367   1.011   1.903   7.674  0.8076 -0.8367 -0.9301
21709SOL    HW272368   1.046   1.756   7.688 -0.6044 -0.9595  1.8071
21710SOL     OW72369   9.127   7.773   2.958 -0.0967 -0.0372 -0.3521
21710SOL    HW172370   9.107   7.864   2.937  1.9573  0.5894  0.1329
21710SOL    HW272371   9.059   7.722   2.914 -2.0404  1.7625  0.3931
21711SOL     OW72372   7.586   3.248   0.933  0.2863 -0.1560  0.0635
21711SOL    HW172373   7.670   3.257   0.889  0.9138  0.3265  1.3111
21711SOL    HW272374   7.546   3.335   0.927  0.0637 -0.2701 -0.1439
21712SOL     OW72375  11.071  10.975  11.341 -0.2954  0.1456  0.0662
21712SOL    HW172376  11.061  10.889  11.383 -0.1478  0.5586  0.9635
21712SOL    HW272377  11.003  10.976  11.273 -1.1353 -0.1916  0.8766
21713SOL     OW72378   8.090  12.237   0.565  1.0695  0.5549  0.0576
21713SOL    HW172379   8.083  12.143   0.552  0.9082  0.2080  2.2749
21713SOL    HW272380   8.083  12.274   0.478 -0.2687 -1.4023 -0.7178
21714SOL     OW72381   0.809   8.995   9.175  0.7993  0.1538  0.4469
21714SOL    HW172382   0.768   8.960   9.096  0.4236  1.8143 -0.1320
21714SOL    HW272383   0.837   8.917   9.224 -0.3203 -0.9355 -0.5821
21715SOL     OW72384   9.327  10.539   3.546 -0.1403  0.3418  0.2575
21715SOL    HW172385   9.357  10.606   3.607  1.6882  0.3940 -0.6428
21715SOL    HW272386   9.375  10.460   3.571 -0.3361  0.0313 -0.3211
21716SOL     OW72387   8.407   2.458   5.428  0.0439  0.9297 -0.1671
21716SOL    HW172388   8.375   2.545   5.405 -0.9942 -0.0034 -2.6668
21716SOL    HW272389   8.343   2.398   5.390  0.4760 -0.9537  1.8702
21717SOL     OW72390   8.942   6.407  11.235  0.1485 -1.0137 -0.2268
21717SOL    HW172391   8.928   6.406  11.140  0.7183 -3.2397 -0.3425
21717SOL    HW272392   8.865   6.453  11.270  0.3651  0.6561 -1.7718
21718SOL     OW72393   1.760   6.312  11.610 -0.2055  0.1504 -0.0438
21718SOL    HW172394   1.711   6.230  11.611  2.1595 -1.3457 -0.3244
21718SOL    HW272395   1.838   6.295  11.662  1.6244  1.3459 -2.1790
21719SOL     OW72396  11.004   5.071  12.686  0.3758 -0.3352 -0.2438
21719SOL    HW172397  11.041   5.120  12.613  0.6095  0.3578  0.3241
21719SOL    HW272398  10.980   4.986  12.649  0.7798 -0.1065 -1.0474
21720SOL     OW72399   5.374   8.304   9.859 -0.3867  0.2627 -0.0794
21720SOL    HW172400   5.457   8.295   9.812 -0.9926 -1.7080 -0.8763
21720SOL    HW272401   5.319   8.359   9.802 -0.1064  0.3996 -0.2182
21721SOL     OW72402  11.640   3.971   8.129 -0.5639 -0.1077  0.2546
21721SOL    HW172403  11.573   3.922   8.176  0.6254 -0.4526  1.6716
21721SOL    HW272404  11.711   3.908   8.114  0.1686  0.6648  0.3547
21722SOL     OW72405  11.860  12.628   4.706 -0.0057  0.4915 -0.3105
21722SOL    HW172406  11.945  12.671   4.714  0.4470 -0.4965  0.4580
21722SOL    HW272407  11.828  12.654   4.620  1.8658 -0.4907 -1.3681
21723SOL     OW72408   2.717   8.068   8.108 -0.3741 -0.0887  0.3295
21723SOL    HW172409   2.681   8.019   8.181 -1.0332 -0.9005 -0.5157
21723SOL    HW272410   2.792   8.015   8.079  0.5858  0.8017  1.1008
21724SOL     OW72411   7.167   0.292   7.794 -0.0028 -0.2358  0.3185
21724SOL    HW172412   7.239   0.329   7.744 -0.6119 -0.1635 -0.5269
21724SOL    HW272413   7.133   0.364   7.847  0.0171 -0.0641  0.0949
21725SOL     OW72414   5.754   5.948   4.068  0.2908  0.1529 -0.6966
21725SOL    HW172415   5.776   5.979   3.980  0.4849 -0.7677 -0.9804
21725SOL    HW272416   5.838   5.927   4.108  0.4557  3.0315  0.6967
21726SOL     OW72417   7.422   3.500  12.527  0.0797  0.0786  0.0761
21726SOL    HW172418   7.376   3.440  12.585  0.1040  0.1202  0.1399
21726SOL    HW272419   7.357   3.567  12.505  0.0372 -0.0004 -0.0389
21727SOL     OW72420  12.205   2.582   0.362  0.2150 -0.0316  0.0318
21727SOL    HW172421  12.133   2.520   0.373 -0.4548  0.9521  1.4545
21727SOL    HW272422  12.240   2.564   0.275 -1.4189 -0.8595 -0.4757
21728SOL     OW72423   4.603   1.708   2.400 -0.4001  0.6989  0.8130
21728SOL    HW172424   4.559   1.781   2.443 -0.3972  1.3556 -0.2669
21728SOL    HW272425   4.599   1.729   2.307  0.9262  0.0651  0.5906
21729SOL     OW72426   0.570  12.076   9.532 -0.1576  0.1659  0.3779
21729SOL    HW172427   0.536  12.054   9.445  0.2215  1.5480 -0.1423
21729SOL    HW272428   0.491  12.096   9.584 -0.2876  1.2550 -0.2151
21730SOL     OW72429   6.368   5.321   3.018  0.0823 -0.4145  0.0152
21730SOL    HW172430   6.318   5.287   3.092  0.5683 -0.8527  0.1489
21730SOL    HW272431   6.358   5.255   2.949  0.8778 -0.7575  0.2120
21731SOL     OW72432  11.906   5.283   4.413 -0.2534 -0.4237 -0.2533
21731SOL    HW172433  11.842   5.300   4.344  0.7149  2.2293 -0.6081
21731SOL    HW272434  11.877   5.336   4.487  0.8448 -0.1229 -0.0128
21732SOL     OW72435  11.926   8.713  12.541 -0.0240  0.2126  0.1467
21732SOL    HW172436  11.896   8.796  12.504  1.7074  0.7670 -0.0846
21732SOL    HW272437  12.021   8.714  12.531  0.0388 -1.8753 -0.0059
21733SOL     OW72438   5.311   9.332   5.227  0.3712  0.0954 -0.5956
21733SOL    HW172439   5.280   9.352   5.139 -0.2785 -0.7715 -0.5818
21733SOL    HW272440   5.385   9.273   5.214 -0.9832 -1.6852 -0.5509
21734SOL     OW72441   5.886   1.585   3.308 -0.3011 -0.4481  0.1166
21734SOL    HW172442   5.846   1.672   3.308  0.5796 -0.0293 -0.0333
21734SOL    HW272443   5.823   1.529   3.263 -1.2398 -0.0623  0.9213
21735SOL     OW72444   6.294  11.471   9.506  0.3505  0.4683  0.3641
21735SOL    HW172445   6.277  11.515   9.423  1.4303 -0.0720 -0.1571
21735SOL    HW272446   6.208  11.443   9.537 -0.1402  1.2987 -0.2059
21736SOL     OW72447  11.487   5.329   7.616  0.5013  0.1630 -0.5117
21736SOL    HW172448  11.431   5.283   7.679  0.8852 -1.2152 -1.1596
21736SOL    HW272449  11.444   5.316   7.532  1.0424  0.3089 -0.8147
21737SOL     OW72450   2.105  10.559   8.368  0.0103 -0.6013  0.1261
21737SOL    HW172451   2.138  10.485   8.318  2.0613  0.8215 -0.7815
21737SOL    HW272452   2.030  10.524   8.416 -1.2760 -2.3746 -2.9029
21738SOL     OW72453   3.559  11.455   8.947 -0.4308  0.5869 -0.0297
21738SOL    HW172454   3.605  11.372   8.931  0.6737  0.9089  1.3159
21738SOL    HW272455   3.466  11.430   8.949 -0.0857 -0.8153  1.1928
21739SOL     OW72456   8.355   8.225  10.760 -0.1019  0.2038 -0.4818
21739SOL    HW172457   8.368   8.198  10.851 -0.0139 -2.0057 -1.0720
21739SOL    HW272458   8.357   8.320  10.762 -2.3908  0.3344  2.1716
21740SOL     OW72459   1.710  11.837   5.989 -0.6304 -0.2963  0.4917
21740SOL    HW172460   1.681  11.927   6.002 -1.1327 -0.3370 -0.2905
21740SOL    HW272461   1.704  11.797   6.076 -2.4522 -0.1577  0.4559
21741SOL     OW72462  11.090   2.081   4.525  0.0969  0.0585  0.2701
21741SOL    HW172463  11.185   2.075   4.515  0.1637  1.1165  0.1726
21741SOL    HW272464  11.076   2.158   4.580 -0.7790  1.1598 -1.3964
21742SOL     OW72465   4.199   5.382   0.736 -0.1714 -0.2493  0.3035
21742SOL    HW172466   4.162   5.328   0.806 -1.4186 -0.1752 -0.2597
21742SOL    HW272467   4.293   5.367   0.740 -0.1290  0.2860  2.4488
21743SOL     OW72468   7.505   2.261   1.843 -0.4372  0.3430 -0.0443
21743SOL    HW172469   7.523   2.329   1.779 -0.2129  1.3347  1.0518
21743SOL    HW272470   7.421   2.286   1.881 -0.0259  0.3820  0.8445
21744SOL     OW72471   9.672  11.402  12.617  0.2541  0.4418 -0.3669
21744SOL    HW172472   9.676  11.337  12.687 -1.1362 -0.5157 -1.1278
21744SOL    HW272473   9.763  11.414  12.590  0.5484 -1.1997 -0.2144
21745SOL     OW72474   0.989   5.774   8.901 -0.3245  0.1991 -0.1244
21745SOL    HW172475   1.034   5.690   8.911 -0.0267  0.5660  2.1768
21745SOL    HW272476   1.058   5.839   8.912 -0.9468  0.7446  0.6747
21746SOL     OW72477   6.516  12.520   1.142 -0.1185 -0.1613 -0.1276
21746SOL    HW172478   6.441  12.464   1.125 -0.4197  0.4405 -0.8138
21746SOL    HW272479   6.586  12.483   1.088  0.8656 -2.2447  2.3405
21747SOL     OW72480   2.644  12.048   1.161  0.4480 -0.1361  0.4584
21747SOL    HW172481   2.556  12.041   1.124  1.0225  1.2170 -1.3291
21747SOL    HW272482   2.631  12.054   1.256 -1.2323 -1.8826  0.3819
21748SOL     OW72483   4.200   7.638   8.411 -0.9051  0.1175 -0.0734
21748SOL    HW172484   4.219   7.546   8.429 -0.2049 -0.0128 -1.3204
21748SOL    HW272485   4.175   7.675   8.495  0.0849 -0.9083  0.6904
21749SOL     OW72486   6.477   2.882   1.259 -0.3308 -0.0391  0.0525
21749SOL    HW172487   6.454   2.956   1.202 -0.4013 -0.9177 -1.1016
21749SOL    HW272488   6.412   2.885   1.330 -0.8449  0.5164 -0.4289
21750SOL     OW72489   7.029   7.865   1.043 -0.3186  0.3192 -0.0012
21750SOL    HW172490   6.995   7.880   0.954  0.9257  0.9783 -0.3921
21750SOL    HW272491   7.002   7.776   1.064 -3.4638  1.2222  0.2943
21751SOL     OW72492   9.962  12.607   7.158 -0.4165  0.2070 -0.1870
21751SOL    HW172493   9.908  12.659   7.098  1.7350 -0.1950 -2.6163
21751SOL    HW272494   9.922  12.521   7.157  0.0956 -0.0408 -1.8289
21752SOL     OW72495   6.338   6.440   8.874 -0.5351 -0.3994  0.2662
21752SOL    HW172496   6.272   6.410   8.811  0.2243 -0.5157 -0.4849
21752SOL    HW272497   6.359   6.362   8.925 -0.9488 -0.3678  0.4954
21753SOL     OW72498   3.049  11.475   2.983 -0.1707 -0.0855  0.2701
21753SOL    HW172499   2.979  11.500   2.924  0.1637  0.5045  0.1099
21753SOL    HW272500   3.006  11.462   3.068 -0.5026  0.0496  0.1233
21754SOL     OW72501   2.241   0.383   8.493  0.0721  0.0589  0.1460
21754SOL    HW172502   2.258   0.382   8.399  0.4808  0.6454  0.2072
21754SOL    HW272503   2.166   0.442   8.503 -1.0237 -1.2595  0.0388
21755SOL     OW72504   3.403   7.244   3.292 -0.0108  0.4487  0.3694
21755SOL    HW172505   3.431   7.224   3.202 -1.3993  1.1298 -0.2433
21755SOL    HW272506   3.471   7.304   3.325 -1.3856  3.4053 -1.6631
21756SOL     OW72507   3.785   3.999   3.238  0.6329  0.0732  0.0387
21756SOL    HW172508   3.872   3.961   3.230  0.1585 -1.5200  1.7700
21756SOL    HW272509   3.727   3.936   3.196  0.3229  1.3631 -1.5498
21757SOL     OW72510   5.510   5.922  12.500  0.4497  0.3144 -0.3051
21757SOL    HW172511   5.489   5.849  12.557 -0.4813  1.8267  1.3733
21757SOL    HW272512   5.603   5.939  12.516  0.5891 -0.2733 -0.4608
21758SOL     OW72513   4.494   1.193   7.734  0.6618  0.1851 -0.0318
21758SOL    HW172514   4.483   1.268   7.792 -0.9528  0.0803 -0.1734
21758SOL    HW272515   4.563   1.141   7.775  0.9767  1.1456  0.6839
21759SOL     OW72516   8.316   6.402   0.113 -0.4788  0.0909 -0.2742
21759SOL    HW172517   8.359   6.332   0.161  0.6508  1.2741  0.5370
21759SOL    HW272518   8.267   6.358   0.044  0.7281 -1.4455 -0.2173
21760SOL     OW72519   7.013  11.022   7.296 -0.5968  0.3014 -0.2153
21760SOL    HW172520   7.031  11.026   7.202 -2.2832 -0.9640 -0.6435
21760SOL    HW272521   7.092  10.984   7.334 -0.4321 -0.5412 -1.3473
21761SOL     OW72522  11.101   4.056   3.358 -0.0162 -0.2074 -0.0178
21761SOL    HW172523  11.184   4.057   3.405  0.5093  1.1835 -0.8891
21761SOL    HW272524  11.122   4.014   3.274 -0.2138  0.0678 -0.2061
21762SOL     OW72525  12.383   1.413   7.791 -0.4249  0.4239 -0.2819
21762SOL    HW172526  12.450   1.345   7.797 -0.6595  0.0522 -1.5559
21762SOL    HW272527  12.372   1.444   7.881 -0.8085 -1.7003  0.4559
21763SOL     OW72528   6.764  10.660   6.992  0.6457  0.7002 -0.2404
21763SOL    HW172529   6.814  10.711   7.056 -1.9489  1.4522  1.3616
21763SOL    HW272530   6.748  10.720   6.920 -0.0750  1.3222  0.4149
21764SOL     OW72531  10.692   3.646   0.248  0.4983 -0.4655  0.1704
21764SOL    HW172532  10.769   3.680   0.294  0.7256 -1.1823  0.3358
21764SOL    HW272533  10.618   3.693   0.288  0.9211  1.2209 -0.9044
21765SOL     OW72534   4.879  11.020   8.503 -0.2016  0.0414  0.0138
21765SOL    HW172535   4.836  11.028   8.588  0.4167 -0.6353  0.3934
21765SOL    HW272536   4.838  10.944   8.463 -0.0134 -0.0436 -0.0161
21766SOL     OW72537  12.281   3.509  12.531 -0.5211 -0.7378  0.2826
21766SOL    HW172538  12.344   3.537  12.597  1.0453 -1.0823 -1.0136
21766SOL    HW272539  12.210   3.469  12.581  0.2109 -0.2253  1.7896
21767SOL     OW72540  10.090   2.975  12.434  0.5929  0.5531 -0.2079
21767SOL    HW172541  10.012   2.986  12.489  0.5300 -0.7157 -0.0000
21767SOL    HW272542  10.154   3.035  12.470 -0.3320  1.7450 -0.4787
21768SOL     OW72543  11.567  12.685   8.823  0.3184  0.4252 -0.3284
21768SOL    HW172544  11.502  12.684   8.753 -1.4823 -0.1518  1.2747
21768SOL    HW272545  11.638  12.631   8.791 -0.6025 -0.0701 -1.5887
21769SOL     OW72546   2.499   5.693   0.632 -0.0825  0.5355  0.0137
21769SOL    HW172547   2.558   5.739   0.572 -0.1067  1.9217  1.0031
21769SOL    HW272548   2.502   5.602   0.603  0.1365  1.1009 -1.8872
21770SOL     OW72549   1.032   8.046   5.346  0.0287 -0.3373 -0.4540
21770SOL    HW172550   0.946   8.029   5.384  1.0924  0.0511  2.4032
21770SOL    HW272551   1.025   8.134   5.309 -0.6066  0.0315  0.4950
21771SOL     OW72552   7.442   5.728   4.691 -0.1459 -0.7318 -0.0253
21771SOL    HW172553   7.485   5.811   4.670 -0.8310 -0.2138  0.5786
21771SOL    HW272554   7.511   5.673   4.728 -0.2219  0.5293  2.1283
21772SOL     OW72555   2.959   1.515   6.562  0.4707  0.0937 -0.0571
21772SOL    HW172556   3.024   1.563   6.511  0.7190  1.5507  1.5135
21772SOL    HW272557   2.882   1.572   6.564 -0.1106 -0.6641 -0.1370
21773SOL     OW72558   8.373   6.108   0.033  0.1426 -0.1187  0.0591
21773SOL    HW172559   8.462   6.127   0.065  0.1428  0.4870 -0.2865
21773SOL    HW272560   8.319   6.107   0.112  0.1432  1.3662  0.1175
21774SOL     OW72561   6.719   7.896   9.147 -0.9169 -0.0127  0.1132
21774SOL    HW172562   6.699   7.837   9.220 -1.5435  1.0078  0.7767
21774SOL    HW272563   6.707   7.984   9.183  1.3369  0.6014 -0.4502
21775SOL     OW72564  11.110   7.996  11.002 -0.3969  0.6774  0.6055
21775SOL    HW172565  11.203   7.988  11.022 -0.1541  2.5170  0.4596
21775SOL    HW272566  11.103   7.978  10.908 -0.2311  0.2377  0.6801
21776SOL     OW72567   9.549   1.231  12.196 -0.0203 -0.3385  0.1063
21776SOL    HW172568   9.540   1.308  12.139  2.3246  0.1622  0.2817
21776SOL    HW272569   9.543   1.156  12.138 -0.1150  0.0810 -0.4265
21777SOL     OW72570   2.778   2.356   9.854 -0.4286 -0.0236  0.2592
21777SOL    HW172571   2.720   2.392   9.787 -0.9080  0.0738  0.7198
21777SOL    HW272572   2.732   2.278   9.887  0.0965 -0.4376  0.0341
21778SOL     OW72573   3.908   8.255   4.712 -0.1098  0.1856  0.5194
21778SOL    HW172574   3.859   8.326   4.754 -0.8495  0.8437 -1.3661
21778SOL    HW272575   4.000   8.282   4.717 -0.2475  0.5462  1.1394
21779SOL     OW72576   0.019   5.730   3.975  0.2033  0.2557 -0.1267
21779SOL    HW172577  -0.054   5.727   4.036 -1.5123  1.9962 -1.9737
21779SOL    HW272578   0.002   5.659   3.913  0.3508  0.3547 -0.2817
21780SOL     OW72579   3.072   1.308   3.420  0.1639 -0.4645 -0.0912
21780SOL    HW172580   3.100   1.266   3.339  3.4064 -2.3255  1.7833
21780SOL    HW272581   3.078   1.402   3.401 -2.1118 -0.7223 -2.7856
21781SOL     OW72582   0.086   4.782   4.588 -0.2470 -0.5254  0.0213
21781SOL    HW172583  -0.008   4.787   4.572 -0.5053 -0.4101  1.4836
21781SOL    HW272584   0.104   4.854   4.649  0.7720 -0.6230 -0.1432
21782SOL     OW72585   4.097   0.132   0.758 -0.4886 -0.6391  0.6161
21782SOL    HW172586   4.034   0.086   0.703 -1.2004 -0.4362  1.2393
21782SOL    HW272587   4.043   0.176   0.825  0.2746 -0.0589  0.8691
21783SOL     OW72588   9.708   3.202  11.060 -0.0394  0.0375 -0.2194
21783SOL    HW172589   9.646   3.197  10.988 -0.6932  0.1251  0.3244
21783SOL    HW272590   9.745   3.290  11.054 -1.6819  0.8379  0.8189
21784SOL     OW72591   2.839  10.059   7.376 -0.3215 -0.4025  0.0806
21784SOL    HW172592   2.745  10.059   7.396 -0.1220  0.7102  1.1648
21784SOL    HW272593   2.875  10.128   7.432  1.2689 -1.2964  0.2141
21785SOL     OW72594   6.271   9.699   4.377 -0.2091  0.3624 -0.3147
21785SOL    HW172595   6.215   9.622   4.364  0.0877  0.2064 -0.6641
21785SOL    HW272596   6.216   9.759   4.427 -0.4504 -0.0690 -0.0485
21786SOL     OW72597   9.551  11.278   6.320 -0.1369 -0.4697  0.8337
21786SOL    HW172598   9.572  11.355   6.373 -1.8762  0.7532 -0.1907
21786SOL    HW272599   9.571  11.305   6.230 -2.5379 -0.4968  0.2437
21787SOL     OW72600   8.744   6.086   3.452  0.2097 -0.2418  0.5695
21787SOL    HW172601   8.808   6.087   3.523  2.6262 -1.0375 -1.4267
21787SOL    HW272602   8.676   6.026   3.481  1.6767 -1.3994  1.8164
21788SOL     OW72603   6.704   7.339   0.795 -0.4510  0.3184  0.4540
21788SOL    HW172604   6.681   7.374   0.881 -2.0099  0.8441 -0.1423
21788SOL    HW272605   6.624   7.298   0.763 -0.0283  0.5076 -0.9263
21789SOL     OW72606  12.623   9.006   1.844 -0.0196  0.1138  0.1744
21789SOL    HW172607  12.670   9.088   1.827 -0.2012  0.2662  0.3971
21789SOL    HW272608  12.554   9.003   1.777 -0.5511  0.5695  0.6859
21790SOL     OW72609   8.335   8.226   6.428 -0.0742  0.6678  0.0396
21790SOL    HW172610   8.386   8.305   6.408  1.1012 -0.5135 -2.0179
21790SOL    HW272611   8.312   8.235   6.521  0.9788  2.8662  0.1584
21791SOL     OW72612   4.639   1.276   1.906 -0.1153  0.2758  0.6839
21791SOL    HW172613   4.679   1.217   1.969 -1.1625  0.2885  1.3961
21791SOL    HW272614   4.574   1.222   1.860  2.7196 -0.6000 -2.6698
21792SOL     OW72615   0.553   6.498   9.324  0.3866  0.3649  0.1700
21792SOL    HW172616   0.483   6.436   9.345  0.5878 -0.4082 -1.3305
21792SOL    HW272617   0.631   6.443   9.312  0.9064  1.0642  0.2779
21793SOL     OW72618   4.572   7.362  11.867 -0.4456  0.2953  0.1763
21793SOL    HW172619   4.519   7.409  11.802  0.2394  0.2550 -0.4323
21793SOL    HW272620   4.510   7.305  11.911 -0.7991 -0.3004 -1.0315
21794SOL     OW72621   7.929   2.486   2.324 -0.1420 -0.1104  0.0526
21794SOL    HW172622   7.913   2.472   2.231 -0.0358  0.8517 -0.1210
21794SOL    HW272623   8.023   2.474   2.334 -0.2285 -0.7723  0.1508
21795SOL     OW72624   6.762   6.742   7.352 -0.0240 -0.0711  0.3353
21795SOL    HW172625   6.725   6.795   7.281 -1.1136  0.2313  1.1120
21795SOL    HW272626   6.721   6.656   7.341  0.1695 -0.1619  0.3198
21796SOL     OW72627   8.438  12.629  10.286 -0.2886 -0.1346 -1.0353
21796SOL    HW172628   8.398  12.580  10.214 -1.4310 -3.7371  1.7585
21796SOL    HW272629   8.372  12.695  10.309 -0.6257 -0.0364 -2.1899
21797SOL     OW72630  10.709   9.514   5.990  0.1176  0.2832  0.1389
21797SOL    HW172631  10.751   9.557   5.916  0.3428  1.3115  0.8548
21797SOL    HW272632  10.695   9.583   6.055 -1.4228 -0.2913  0.4848
21798SOL     OW72633   4.542   3.229   0.649 -0.6752  0.3204 -0.4410
21798SOL    HW172634   4.582   3.293   0.591 -0.1879  0.6745  0.2701
21798SOL    HW272635   4.616   3.182   0.688 -1.0140 -0.4379 -0.6767
21799SOL     OW72636   4.431   3.319   2.156 -0.2802  0.5122  0.4131
21799SOL    HW172637   4.401   3.249   2.099 -1.3031  1.0064  0.3353
21799SOL    HW272638   4.456   3.275   2.237  2.2052 -0.3485 -0.7059
21800SOL     OW72639  12.624   4.452   3.639  0.0955 -0.6688 -0.0502
21800SOL    HW172640  12.604   4.507   3.563  0.5085 -0.9970 -0.4045
21800SOL    HW272641  12.669   4.376   3.602 -0.1746 -1.0912  0.4649
21801SOL     OW72642   1.340   8.288   4.427 -0.3904 -0.6451 -0.1077
21801SOL    HW172643   1.432   8.271   4.445 -0.6908 -1.1683  1.0614
21801SOL    HW272644   1.317   8.226   4.358  0.0560 -0.7295 -0.1818
21802SOL     OW72645   6.034   5.662   0.646  0.0899  0.0322 -0.6718
21802SOL    HW172646   5.939   5.664   0.633 -0.1158 -0.6394  0.5100
21802SOL    HW272647   6.063   5.585   0.596 -0.0988 -0.1659 -0.4817
21803SOL     OW72648   2.895   5.561   0.339  1.4064  0.5327 -0.2249
21803SOL    HW172649   2.845   5.520   0.410  1.1668  1.0325 -0.1018
21803SOL    HW272650   2.915   5.649   0.371  2.3709  0.3366 -0.2813
21804SOL     OW72651   6.493  11.546   8.283 -0.1131  0.3304 -0.0558
21804SOL    HW172652   6.523  11.493   8.209 -0.0587  1.1493 -0.6351
21804SOL    HW272653   6.465  11.629   8.244  0.2424  0.9130  0.8724
21805SOL     OW72654  11.455   3.442   9.208  0.0343  0.4662  0.0957
21805SOL    HW172655  11.495   3.357   9.189 -0.2493  0.5209 -0.7635
21805SOL    HW272656  11.529   3.499   9.230  0.2897  0.1719  0.0082
21806SOL     OW72657   8.111   5.480  11.189  0.2174  0.0407  0.5128
21806SOL    HW172658   8.039   5.543  11.180 -0.3271 -0.7302 -0.6781
21806SOL    HW272659   8.186   5.526  11.151 -0.4269 -0.3974 -1.4120
21807SOL     OW72660   6.125   6.633   9.996 -0.3065  0.1495 -0.0276
21807SOL    HW172661   6.164   6.720   9.996 -0.5547  0.2716  1.0519
21807SOL    HW272662   6.031   6.649   9.993 -0.3671 -0.0653  0.6205
21808SOL     OW72663   0.366  10.417   8.669  0.0871  0.1737 -0.7579
21808SOL    HW172664   0.300  10.484   8.648  0.8171  1.3177  0.4706
21808SOL    HW272665   0.390  10.435   8.760  0.9950 -1.1868 -0.7099
21809SOL     OW72666   0.553   3.958   0.589 -0.7571 -0.4655  0.0532
21809SOL    HW172667   0.588   4.014   0.520  1.8196 -1.0597  0.7568
21809SOL    HW272668   0.503   4.017   0.645 -1.6515  0.2884 -1.4871
21810SOL     OW72669  10.669  11.117   2.844 -0.0464 -0.3776 -0.2463
21810SOL    HW172670  10.647  11.041   2.897 -0.1626 -0.7700 -0.8565
21810SOL    HW272671  10.587  11.167   2.838 -0.1029 -0.4784 -0.3043
21811SOL     OW72672   3.138  10.610  10.444  0.0368 -0.0119  0.2059
21811SOL    HW172673   3.185  10.557  10.509  1.7123  2.1691  0.8981
21811SOL    HW272674   3.137  10.698  10.482  1.4620  1.4684 -2.8383
21812SOL     OW72675   8.983   3.673  10.239  0.2650  0.0575 -0.2923
21812SOL    HW172676   8.963   3.664  10.146  2.1996 -1.0170 -0.6634
21812SOL    HW272677   8.936   3.600  10.281 -0.0520  0.1286 -0.5206
21813SOL     OW72678   8.521   7.643  12.421  0.4759 -0.2124 -0.2019
21813SOL    HW172679   8.455   7.574  12.430  0.8297 -0.3701  1.4870
21813SOL    HW272680   8.487   7.715  12.474  1.7610 -0.4124  0.9697
21814SOL     OW72681  11.213   1.433  10.941  0.3153  0.1862 -0.0149
21814SOL    HW172682  11.254   1.465  11.021 -0.9330  0.7080  0.4382
21814SOL    HW272683  11.119   1.434  10.960 -0.0078  0.3462 -1.4984
21815SOL     OW72684  10.649   7.752   5.906 -0.2888 -0.5479  0.5575
21815SOL    HW172685  10.668   7.845   5.913 -0.9901 -0.4413  1.1489
21815SOL    HW272686  10.572   7.748   5.848 -0.1270 -0.7706  0.3598
21816SOL     OW72687   5.793   3.787   0.400 -0.0358 -0.0647 -0.7075
21816SOL    HW172688   5.828   3.797   0.488 -0.7249  0.0245 -0.4380
21816SOL    HW272689   5.703   3.756   0.413  0.1634 -0.9845 -1.3993
21817SOL     OW72690   8.743   6.625   0.535 -0.4125  0.2697 -0.4110
21817SOL    HW172691   8.827   6.667   0.515 -0.7202  0.8890 -0.4337
21817SOL    HW272692   8.758   6.532   0.517  0.3599  0.3299 -0.1163
21818SOL     OW72693   3.523  10.394   4.089  0.0621 -0.3459 -0.3232
21818SOL    HW172694   3.591  10.445   4.045  0.0291 -1.7887 -2.1813
21818SOL    HW272695   3.568  10.313   4.115 -1.0549 -1.6278 -2.2145
21819SOL     OW72696   8.803   0.981   3.410  0.3300 -0.4643 -0.2766
21819SOL    HW172697   8.863   0.921   3.366 -1.2134 -1.6740 -0.8229
21819SOL    HW272698   8.842   1.067   3.397  0.8495 -0.9786 -2.4974
21820SOL     OW72699   3.804  10.468   2.580  0.0927 -0.3986 -1.1395
21820SOL    HW172700   3.829  10.396   2.637  0.3823  0.4180 -0.1955
21820SOL    HW272701   3.714  10.449   2.554 -0.3753 -0.3442  0.3487
21821SOL     OW72702  11.180   9.350   7.338  0.4675  0.2309  0.1493
21821SOL    HW172703  11.132   9.426   7.370 -0.0701 -0.3111  0.6746
21821SOL    HW272704  11.125   9.313   7.270  0.0675 -0.4564  0.8293
21822SOL     OW72705   6.469   5.433   7.828  0.0567  0.1019 -0.2340
21822SOL    HW172706   6.510   5.439   7.914  2.9349 -1.3692 -1.3686
21822SOL    HW272707   6.418   5.352   7.832  0.2934 -0.0357  0.0514
21823SOL     OW72708   7.472   0.101   8.370 -0.1029 -0.1938 -0.6898
21823SOL    HW172709   7.409   0.029   8.364  1.8949 -2.0224 -1.0369
21823SOL    HW272710   7.487   0.126   8.279 -0.1826  0.1010 -0.6210
21824SOL     OW72711   3.176   3.738  11.284 -0.0267 -0.4973 -0.2045
21824SOL    HW172712   3.087   3.705  11.286 -0.9011  1.5126 -2.0456
21824SOL    HW272713   3.207   3.729  11.375 -2.5243 -0.1054  0.7614
21825SOL     OW72714   0.512   6.740  11.032 -0.2319 -0.0577 -0.5525
21825SOL    HW172715   0.594   6.691  11.024 -1.0376 -1.6106  0.2545
21825SOL    HW272716   0.462   6.716  10.954 -0.2567  0.2369 -0.6288
21826SOL     OW72717   2.479   2.464   4.231 -0.1682 -0.3231 -0.3196
21826SOL    HW172718   2.443   2.403   4.295 -0.3843  0.3882  0.2569
21826SOL    HW272719   2.572   2.466   4.249 -0.2132 -0.2084 -0.1004
21827SOL     OW72720   8.124   3.434   6.511  0.1781 -0.4481  0.4820
21827SOL    HW172721   8.095   3.346   6.536  1.6356 -1.8337 -2.1759
21827SOL    HW272722   8.210   3.443   6.552  0.1474 -0.3673  0.5296
21828SOL     OW72723   8.836  10.907   5.036 -0.1503  0.5469  0.0411
21828SOL    HW172724   8.813  11.000   5.041  0.3941  0.6962 -0.1612
21828SOL    HW272725   8.879  10.897   4.952  1.3132  0.4721  0.7598
21829SOL     OW72726   0.465   1.451  12.595 -0.4640  0.2660 -0.3011
21829SOL    HW172727   0.518   1.400  12.656 -0.4731 -0.4759 -0.8989
21829SOL    HW272728   0.494   1.542  12.608  0.9173 -0.1112 -0.5588
21830SOL     OW72729   2.097   1.313   7.683 -0.3600  0.6711 -0.4583
21830SOL    HW172730   2.043   1.310   7.762 -0.8610 -0.8301 -0.8323
21830SOL    HW272731   2.187   1.310   7.715 -0.5619 -0.0293  0.0578
21831SOL     OW72732   0.364  10.953  12.231 -0.1023  0.6549 -0.5053
21831SOL    HW172733   0.427  11.025  12.228  0.5633  0.1021  0.0032
21831SOL    HW272734   0.416  10.875  12.248 -0.8873  0.1406 -0.3671
21832SOL     OW72735  11.802   7.197   6.706  0.1868 -0.0846 -0.2191
21832SOL    HW172736  11.830   7.211   6.616  0.5372  0.8616  0.0244
21832SOL    HW272737  11.732   7.132   6.700 -0.8405  1.0761 -1.3273
21833SOL     OW72738  11.152  11.385   6.299  0.1462  0.5105  0.2564
21833SOL    HW172739  11.074  11.415   6.346 -0.1666 -0.2901  0.2756
21833SOL    HW272740  11.165  11.449   6.229 -1.4661 -0.1717 -0.7263
21834SOL     OW72741   6.659   9.680  12.020 -0.2749 -0.1496  0.2093
21834SOL    HW172742   6.591   9.626  12.061 -1.1487 -0.3620 -1.4180
21834SOL    HW272743   6.736   9.666  12.074 -1.5045  0.1061  2.1418
21835SOL     OW72744   8.853   8.166   6.600 -0.3320 -0.2881  0.8389
21835SOL    HW172745   8.866   8.101   6.531  2.5240  2.0983 -1.1662
21835SOL    HW272746   8.877   8.120   6.681  1.0289 -1.9139 -0.4101
21836SOL     OW72747   1.978   3.031   0.167 -0.1503 -0.4025 -0.0833
21836SOL    HW172748   2.045   2.983   0.215 -1.4645 -0.9603  1.2663
21836SOL    HW272749   1.951   2.972   0.097  0.4800 -0.3261 -0.3971
21837SOL     OW72750   7.947   6.002   1.148  0.0991  0.2885 -0.2004
21837SOL    HW172751   7.958   5.965   1.060  0.0124  1.6118 -0.7961
21837SOL    HW272752   7.855   6.025   1.153  0.0269 -0.0910  0.3863
21838SOL     OW72753   3.128   9.625   0.722  0.4017  0.2894 -0.2067
21838SOL    HW172754   3.215   9.643   0.757  0.2967 -1.6308  1.1473
21838SOL    HW272755   3.132   9.535   0.690 -0.3884  0.9961 -2.5616
21839SOL     OW72756  12.180   6.528   4.744 -0.2163 -0.3371  1.1333
21839SOL    HW172757  12.258   6.493   4.700 -0.5107  0.2499  0.0997
21839SOL    HW272758  12.214   6.599   4.799 -0.0566  0.1854  0.3736
21840SOL     OW72759   3.030   8.502   5.336  0.0205  0.0783 -0.0354
21840SOL    HW172760   2.974   8.424   5.338 -1.0728  0.6342 -2.8889
21840SOL    HW272761   2.969   8.573   5.315  1.6860  0.6634 -3.6294
21841SOL     OW72762   5.511   6.712   9.290 -0.6775 -0.2825  0.0931
21841SOL    HW172763   5.503   6.677   9.201 -1.6609  0.7215 -0.2433
21841SOL    HW272764   5.605   6.710   9.308 -0.4671 -0.5900 -0.9403
21842SOL     OW72765   0.631   3.238   5.602  0.3005  0.1883 -0.1831
21842SOL    HW172766   0.565   3.273   5.542  0.5778 -0.5155 -0.9277
21842SOL    HW272767   0.581   3.206   5.677  0.0268  1.9416  0.4303
21843SOL     OW72768   3.947   0.892  11.255 -0.6979 -0.0540 -0.5898
21843SOL    HW172769   4.029   0.919  11.212 -0.8649  1.2637 -0.1304
21843SOL    HW272770   3.878   0.934  11.203 -1.0770 -0.8948 -0.7823
21844SOL     OW72771   9.465   8.198   2.915 -0.1955 -0.1619  0.4087
21844SOL    HW172772   9.500   8.162   2.833  1.3975  0.2400  0.8719
21844SOL    HW272773   9.374   8.169   2.917 -0.1025 -0.6824 -1.2132
21845SOL     OW72774   3.062   0.738  10.244  0.2546  0.0002 -0.1159
21845SOL    HW172775   2.982   0.699  10.278 -0.9625  1.3716 -1.2202
21845SOL    HW272776   3.074   0.817  10.297  0.7531 -0.0952 -0.0888
21846SOL     OW72777  10.665   8.411  10.604  0.1744 -0.1992  0.0922
21846SOL    HW172778  10.597   8.440  10.543  0.5408  0.1065 -0.1686
21846SOL    HW272779  10.618   8.356  10.667 -0.1722 -0.6970 -0.5844
21847SOL     OW72780   3.750   8.294   9.481  0.0825  0.1687 -0.2956
21847SOL    HW172781   3.800   8.332   9.554  1.1022 -1.9294  0.1866
21847SOL    HW272782   3.703   8.220   9.520 -2.7544  1.4897 -0.9582
21848SOL     OW72783   7.203   2.297   3.041 -0.0371  0.2481  0.4067
21848SOL    HW172784   7.295   2.276   3.029 -0.4896 -0.2457 -3.5162
21848SOL    HW272785   7.165   2.292   2.953 -3.1440  3.7188  1.2601
21849SOL     OW72786   7.358   7.602  10.156 -0.1634 -0.5552  0.1528
21849SOL    HW172787   7.440   7.570  10.117  1.1052  1.6732  0.8322
21849SOL    HW272788   7.380   7.620  10.247 -1.1395  0.9793  0.1118
21850SOL     OW72789   5.459   8.548  10.377 -0.1060 -0.1375  0.4176
21850SOL    HW172790   5.390   8.509  10.323 -1.3714  0.0767  1.8112
21850SOL    HW272791   5.427   8.537  10.467  0.1684  2.7690  0.9525
21851SOL     OW72792   4.392   0.377   8.893 -0.3960 -0.2830  0.3588
21851SOL    HW172793   4.337   0.399   8.969 -0.4103  0.2338  0.1983
21851SOL    HW272794   4.402   0.282   8.898 -1.0812 -0.3510  0.5469
21852SOL     OW72795   2.483   1.569  10.710 -0.3184 -0.1925 -0.2230
21852SOL    HW172796   2.546   1.622  10.759 -0.5799  1.3858 -1.5068
21852SOL    HW272797   2.429   1.527  10.777 -0.3341  1.4903  0.8566
21853SOL     OW72798   7.944   5.969  11.891 -0.9037  0.0376  0.0481
21853SOL    HW172799   7.995   5.901  11.934  0.3202 -0.3734 -1.9038
21853SOL    HW272800   7.853   5.951  11.916 -0.2298  0.4046  3.0946
21854SOL     OW72801   3.699  11.585  12.565  0.4615 -0.0918  0.8708
21854SOL    HW172802   3.705  11.679  12.547  1.8055  0.0520  1.9462
21854SOL    HW272803   3.652  11.580  12.648  0.7252 -0.3480  1.0045
21855SOL     OW72804   3.606   0.512   7.105  0.0463 -0.5857 -0.2364
21855SOL    HW172805   3.628   0.427   7.067  1.3369 -0.0750 -0.7079
21855SOL    HW272806   3.685   0.565   7.093 -0.2736  0.2829  1.2086
21856SOL     OW72807   8.575   9.354   8.618  0.0007  0.3883 -0.3756
21856SOL    HW172808   8.489   9.368   8.659  0.4195 -0.9541  1.0234
21856SOL    HW272809   8.572   9.408   8.539 -1.0249  2.6763  1.1220
21857SOL     OW72810   6.499  11.370  11.601  0.1149 -0.5336  0.0421
21857SOL    HW172811   6.508  11.462  11.577  0.5250 -0.4832  0.3871
21857SOL    HW272812   6.405  11.353  11.594 -0.6707  1.0385  3.9504
21858SOL     OW72813   6.714   8.248   7.800  0.5281 -0.1576  0.4445
21858SOL    HW172814   6.651   8.273   7.868  0.4502  0.1863  0.2480
21858SOL    HW272815   6.792   8.223   7.848  0.0472 -1.1717  0.7275
21859SOL     OW72816   9.608   8.596   8.429  0.0357 -0.8132 -0.0181
21859SOL    HW172817   9.641   8.641   8.352  0.0945  1.1384  1.0980
21859SOL    HW272818   9.662   8.517   8.436  1.2047 -0.1182 -0.9591
21860SOL     OW72819   2.001   1.385   3.492 -0.0421  0.3288  0.2014
21860SOL    HW172820   2.093   1.391   3.519  0.4805 -1.4085 -1.0359
21860SOL    HW272821   2.001   1.320   3.421 -1.6672  2.8393 -2.3173
21861SOL     OW72822   0.184   6.619   5.503 -0.4486 -0.0074 -0.1584
21861SOL    HW172823   0.093   6.592   5.505 -0.5220  0.2434 -0.0496
21861SOL    HW272824   0.212   6.606   5.413 -0.1358 -1.5730  0.1376
21862SOL     OW72825  10.223   0.050   3.168  0.2604 -0.0120 -0.2671
21862SOL    HW172826  10.310   0.077   3.196  0.2449  0.6970 -0.8828
21862SOL    HW272827  10.235  -0.038   3.133  0.5141 -0.3782  0.7002
21863SOL     OW72828   2.244   5.883   9.067 -0.8375  0.4621 -0.3977
21863SOL    HW172829   2.156   5.860   9.096 -1.2960  3.3374  0.7309
21863SOL    HW272830   2.257   5.830   8.988 -3.0917 -0.8990  0.0581
21864SOL     OW72831   8.754   5.269   0.029  0.1086 -0.1470  0.1212
21864SOL    HW172832   8.814   5.207  -0.011 -0.4389 -1.2368  0.9554
21864SOL    HW272833   8.792   5.289   0.114  0.3680  0.8187 -0.2023
21865SOL     OW72834   0.878   0.325   4.066 -0.2167  0.4400 -0.1071
21865SOL    HW172835   0.943   0.260   4.093  1.0532  1.1312 -1.3775
21865SOL    HW272836   0.923   0.379   4.001 -2.7335 -0.5162 -2.8818
21866SOL     OW72837   7.864   7.040   4.547  0.4027 -0.5637  0.1005
21866SOL    HW172838   7.863   7.132   4.519  1.1429 -0.2013  1.1734
21866SOL    HW272839   7.935   7.001   4.496  0.3875 -0.4181 -0.0343
21867SOL     OW72840   5.478  11.738  10.488 -0.1280 -0.5447 -0.0292
21867SOL    HW172841   5.555  11.796  10.482 -0.5906  0.0970  0.1425
21867SOL    HW272842   5.507  11.656  10.448  0.2528  0.0929 -1.0974
21868SOL     OW72843  11.325  10.889   0.240  0.2013 -0.0703 -0.4266
21868SOL    HW172844  11.366  10.914   0.323 -1.1995  1.5320 -0.1709
21868SOL    HW272845  11.249  10.837   0.265  1.4512 -2.2489 -0.8716
21869SOL     OW72846   8.555  11.534  11.466  0.1014 -0.3174 -0.5000
21869SOL    HW172847   8.487  11.555  11.402  1.3657  2.2625 -1.1167
21869SOL    HW272848   8.547  11.439  11.478 -3.9065 -0.1137 -0.0922
21870SOL     OW72849   6.101   4.183  10.572  0.5155 -0.5109  0.0781
21870SOL    HW172850   6.111   4.278  10.576  1.9292 -0.6366  0.1489
21870SOL    HW272851   6.032   4.169  10.507  0.4905  0.5510 -0.1478
21871SOL     OW72852   5.934  10.675   5.138 -0.6480  0.0829 -0.1144
21871SOL    HW172853   5.845  10.665   5.172 -0.4443 -2.7662 -0.1960
21871SOL    HW272854   5.990  10.639   5.206  0.2188 -0.5578 -1.1290
21872SOL     OW72855  11.317   4.588   7.515  0.8689  0.0472  0.3548
21872SOL    HW172856  11.392   4.532   7.537  0.9943  0.2356  0.4069
21872SOL    HW272857  11.300   4.569   7.422  3.7766  3.1760 -1.0547
21873SOL     OW72858   3.164  12.029   7.381  0.1851 -0.3586  0.2683
21873SOL    HW172859   3.117  11.964   7.331 -1.3961 -0.0590  1.3015
21873SOL    HW272860   3.243  11.984   7.411  0.2957 -1.0467 -1.0169
21874SOL     OW72861   0.512   8.718   0.949  0.0300  0.0625  0.5637
21874SOL    HW172862   0.421   8.704   0.923 -0.0487  1.8336 -0.2659
21874SOL    HW272863   0.537   8.800   0.906  2.2593 -0.7579  0.1493
21875SOL     OW72864   0.770  11.169   2.156 -0.1218  0.4230 -0.2421
21875SOL    HW172865   0.766  11.222   2.076  0.4199 -0.5893 -0.9620
21875SOL    HW272866   0.840  11.208   2.207  0.6918  0.0642 -1.0458
21876SOL     OW72867   6.076   2.986  10.692  0.5612 -0.8458  0.4252
21876SOL    HW172868   6.093   3.077  10.668  1.3630 -1.1416 -0.1789
21876SOL    HW272869   5.982   2.974  10.674  0.6690 -0.4336 -0.5177
21877SOL     OW72870  12.596   5.263   5.599 -0.3598 -0.0639 -0.5014
21877SOL    HW172871  12.600   5.319   5.521  0.1598 -0.4611 -0.7692
21877SOL    HW272872  12.671   5.203   5.589 -1.0785 -1.0093 -0.3777
21878SOL     OW72873   9.589   5.662   0.762  0.2506  0.1829  0.0357
21878SOL    HW172874   9.633   5.746   0.774  1.8196 -0.5828 -0.0994
21878SOL    HW272875   9.498   5.685   0.742  0.6406  1.8355  0.0303
21879SOL     OW72876   8.720   1.787   6.880 -0.2040  0.0919 -0.1647
21879SOL    HW172877   8.735   1.870   6.834  3.0216  0.0840  0.6708
21879SOL    HW272878   8.672   1.734   6.817  1.9577  0.9154 -2.7031
21880SOL     OW72879   7.603   7.266   4.905  0.0012  0.6262  0.0644
21880SOL    HW172880   7.646   7.351   4.912  0.0040  0.6771 -0.5333
21880SOL    HW272881   7.645   7.223   4.830 -0.4785  0.3804 -0.0679
21881SOL     OW72882  10.780   7.549  10.078 -0.0896  0.7264 -0.1306
21881SOL    HW172883  10.797   7.520  10.168 -2.7291  2.5696  1.1054
21881SOL    HW272884  10.757   7.642  10.087 -2.2893  0.5076 -2.4119
21882SOL     OW72885   7.543   9.787  11.453  0.2854 -0.3832  0.1372
21882SOL    HW172886   7.530   9.882  11.460  1.8327 -0.0055 -1.6020
21882SOL    HW272887   7.526   9.755  11.542 -0.3952  1.4847  0.7404
21883SOL     OW72888  11.651   6.816   6.558  0.1651  0.3334 -0.2410
21883SOL    HW172889  11.589   6.747   6.536 -0.8645  1.2845 -0.4398
21883SOL    HW272890  11.681   6.850   6.473 -0.4310  1.0633 -0.1749
21884SOL     OW72891  11.350   7.808   8.882  0.1776 -0.3615  0.1906
21884SOL    HW172892  11.284   7.855   8.830 -0.5629 -2.7658 -1.1965
21884SOL    HW272893  11.357   7.859   8.963 -3.5156 -0.0437  0.4747
21885SOL     OW72894   8.761  11.925   2.713  0.0319  0.0604 -0.0476
21885SOL    HW172895   8.800  11.849   2.670 -4.1444 -2.6815  0.4133
21885SOL    HW272896   8.775  11.909   2.806 -0.0203  0.4104  0.0209
21886SOL     OW72897   0.465  12.421   2.664  0.1352  0.0709  0.8428
21886SOL    HW172898   0.544  12.426   2.717  0.9744  0.5831 -0.4018
21886SOL    HW272899   0.489  12.364   2.590 -1.1561 -1.0564  1.2380
21887SOL     OW72900   7.605   5.771   1.117 -0.0446 -0.3104  0.0679
21887SOL    HW172901   7.682   5.714   1.112 -0.0428 -0.3072  0.0586
21887SOL    HW272902   7.531   5.713   1.103 -0.0570 -0.3521  0.2888
21888SOL     OW72903   8.873   4.905  11.706  0.7450 -0.6309 -0.1368
21888SOL    HW172904   8.865   4.965  11.631  3.7217  0.8489  0.5663
21888SOL    HW272905   8.863   4.818  11.668  2.7747  0.0331 -2.4932
21889SOL     OW72906   9.592   7.180   5.749  0.3104 -0.0504  0.4875
21889SOL    HW172907   9.581   7.086   5.735  1.3613 -0.1157 -0.0296
21889SOL    HW272908   9.635   7.211   5.669 -0.9424  1.0626  0.2077
21890SOL     OW72909   6.120   8.351   4.485  0.0416  0.5697 -0.1349
21890SOL    HW172910   6.139   8.296   4.410  0.1650 -1.2143  1.1404
21890SOL    HW272911   6.110   8.290   4.558 -0.1621  2.2180  1.2926
21891SOL     OW72912   4.667   9.278   1.504 -0.0818 -0.4148  0.5609
21891SOL    HW172913   4.592   9.313   1.456  1.6200  0.3742 -1.7140
21891SOL    HW272914   4.668   9.328   1.586 -1.8814 -0.3062  0.5570
21892SOL     OW72915   0.212   1.871   2.116 -0.6940  0.6139  0.2331
21892SOL    HW172916   0.118   1.885   2.105 -0.4933  1.0344 -1.0412
21892SOL    HW272917   0.253   1.935   2.058  0.3469 -1.6911 -1.7398
21893SOL     OW72918   1.456   8.601   1.609 -0.5197 -0.5990  0.3042
21893SOL    HW172919   1.448   8.693   1.585 -0.5840 -0.3756  1.1277
21893SOL    HW272920   1.549   8.589   1.631 -0.9335 -0.0527  2.6702
21894SOL     OW72921   8.344   5.419   3.609 -0.1870 -0.5294  0.0944
21894SOL    HW172922   8.396   5.340   3.594  0.3266 -0.5670  1.9016
21894SOL    HW272923   8.321   5.415   3.702  0.8779  2.0597  0.5400
21895SOL     OW72924   4.102  12.057  11.491  0.5939  0.0944  0.2112
21895SOL    HW172925   4.110  12.042  11.585 -0.3589 -2.6811 -0.0584
21895SOL    HW272926   4.178  12.013  11.453  0.4728  0.3691 -0.3648
21896SOL     OW72927  10.117   5.330   7.979 -0.1653 -0.0089 -0.1475
21896SOL    HW172928  10.100   5.271   7.906 -0.2681 -0.8642  0.5542
21896SOL    HW272929  10.141   5.272   8.052 -0.5297  0.7909  0.6265
21897SOL     OW72930   8.943   1.854   4.205 -0.2561 -0.0407  0.2652
21897SOL    HW172931   8.857   1.894   4.189 -0.9120 -1.6054 -0.4036
21897SOL    HW272932   8.925   1.784   4.268  0.9010  0.8450  1.6244
21898SOL     OW72933   9.349   6.878   4.472 -0.2439 -0.5189  0.5388
21898SOL    HW172934   9.334   6.965   4.510  0.2206 -0.2549  0.1330
21898SOL    HW272935   9.414   6.838   4.530  0.2585 -0.2230  0.1834
21899SOL     OW72936   0.860   7.636   4.626 -0.4128 -0.1946  0.5486
21899SOL    HW172937   0.955   7.637   4.633 -0.4354 -1.4269  1.2651
21899SOL    HW272938   0.843   7.654   4.534  0.3947  2.6288  0.8423
21900SOL     OW72939  11.110   1.974   3.255  0.2820 -0.0663 -0.0490
21900SOL    HW172940  11.065   1.895   3.224 -0.2531  0.5172 -0.7870
21900SOL    HW272941  11.052   2.007   3.325 -0.2281  0.4409 -0.6991
21901SOL     OW72942   4.516  10.148   5.481  0.2068 -0.6891 -0.1815
21901SOL    HW172943   4.495  10.155   5.574  1.2578  0.4723  0.0045
21901SOL    HW272944   4.543  10.237   5.456 -1.0479 -0.7253 -1.8546
21902SOL     OW72945   7.547  10.979   9.184 -0.4710 -0.0896  0.4148
21902SOL    HW172946   7.472  10.922   9.170 -1.6120  1.0223  1.7211
21902SOL    HW272947   7.615  10.920   9.219 -0.6246 -1.1386 -0.9852
21903SOL     OW72948  12.558   3.064   8.362  0.0723 -0.1163  0.3016
21903SOL    HW172949  12.654   3.062   8.360  0.0733  0.1690 -0.3980
21903SOL    HW272950  12.536   3.156   8.346 -0.3138 -0.0019  1.4404
21904SOL     OW72951   7.834   8.234   6.563  0.6777  0.2070  0.2937
21904SOL    HW172952   7.751   8.187   6.549 -0.0960  1.2412  1.3237
21904SOL    HW272953   7.895   8.191   6.502 -1.0226  0.5513 -1.7902
21905SOL     OW72954   0.811   4.780   6.668  0.2177  0.0839  0.3075
21905SOL    HW172955   0.784   4.870   6.655  0.2499 -0.0980 -1.1327
21905SOL    HW272956   0.730   4.734   6.692 -0.0082  0.2923 -0.0419
21906SOL     OW72957   4.987  11.081   2.106 -0.9164  0.7252  0.3853
21906SOL    HW172958   5.026  11.076   2.018  2.2160 -0.3617  1.7008
21906SOL    HW272959   5.001  11.171   2.133  2.5723 -0.0170  1.4951
21907SOL     OW72960   3.391   7.573   1.143 -0.0344 -0.0139 -0.4050
21907SOL    HW172961   3.320   7.548   1.084  0.8115 -0.8388 -1.1115
21907SOL    HW272962   3.350   7.577   1.230 -0.9187 -0.5541 -0.7847
21908SOL     OW72963   2.044   8.551   2.107  0.0469 -0.1643  0.1814
21908SOL    HW172964   2.054   8.600   2.026 -0.5784  2.3510  1.5069
21908SOL    HW272965   2.019   8.463   2.080 -1.2268  0.8922 -2.3219
21909SOL     OW72966  11.274   5.482  12.390  0.1048  0.1250  0.0952
21909SOL    HW172967  11.220   5.468  12.469  0.2240 -0.2692  0.1095
21909SOL    HW272968  11.279   5.395  12.350 -1.1272  0.5744 -1.1085
21910SOL     OW72969   9.802   8.661  10.926 -0.3501  0.1226  0.3045
21910SOL    HW172970   9.748   8.586  10.900  0.4685 -1.4294  2.6430
21910SOL    HW272971   9.886   8.645  10.884 -1.1291  1.6463 -1.9792
21911SOL     OW72972  11.948  12.083  11.673 -0.2641  0.2169 -0.0036
21911SOL    HW172973  11.962  12.174  11.701 -0.9364  0.1628  0.5213
21911SOL    HW272974  11.936  12.034  11.754  0.3846 -0.3993 -0.2741
21912SOL     OW72975   4.085   4.489   5.774  0.3306 -0.1645 -0.1477
21912SOL    HW172976   4.079   4.548   5.849 -1.0197  0.5328 -0.7843
21912SOL    HW272977   4.010   4.431   5.782  0.0216  0.0883 -1.1035
21913SOL     OW72978   1.537   6.514   4.107  0.0455  0.1225 -0.5058
21913SOL    HW172979   1.446   6.484   4.107 -0.4234  1.4542 -0.5561
21913SOL    HW272980   1.572   6.484   4.023  0.5278 -2.7462  0.5937
21914SOL     OW72981   1.705  11.433  11.790  0.0913  0.8885  0.1495
21914SOL    HW172982   1.658  11.367  11.740 -0.0120  0.2163  1.1073
21914SOL    HW272983   1.636  11.489  11.827  0.1407  1.0799 -0.0493
21915SOL     OW72984   0.377   4.806   6.560  0.6169  0.1677  0.1467
21915SOL    HW172985   0.313   4.830   6.493  0.6883 -0.4967 -0.1628
21915SOL    HW272986   0.398   4.889   6.603  0.5710  0.6041 -0.6488
21916SOL     OW72987  10.771  10.681   7.478  0.7337 -0.3896 -0.4326
21916SOL    HW172988  10.697  10.731   7.443 -0.1342 -1.1550  0.2524
21916SOL    HW272989  10.825  10.662   7.402 -0.2702 -0.6081 -1.1165
21917SOL     OW72990   2.509   0.769   9.893  0.3174  0.1980  0.3648
21917SOL    HW172991   2.578   0.704   9.882  0.4814  0.7199 -2.3869
21917SOL    HW272992   2.552   0.841   9.940  0.3027 -1.2842  2.8526
21918SOL     OW72993   0.269   8.688  12.153  0.1157 -0.1115  0.0749
21918SOL    HW172994   0.336   8.697  12.086 -0.8471  0.0957 -0.8915
21918SOL    HW272995   0.195   8.740  12.121  0.1718  1.2938  2.0410
21919SOL     OW72996   9.367  11.539   9.261 -0.0384  0.0779 -0.4370
21919SOL    HW172997   9.353  11.521   9.167  0.3814  0.0537 -0.4964
21919SOL    HW272998   9.391  11.454   9.298 -0.6822 -0.0066 -0.2159
21920SOL     OW72999  11.371   1.983   4.137  0.4562  0.2610 -0.2341
21920SOL    HW173000  11.347   1.916   4.072  1.0279  0.4843 -0.6773
21920SOL    HW273001  11.296   1.984   4.197  0.2951 -0.5561 -0.3950
21921SOL     OW73002  12.301   1.194   4.961 -0.0646 -0.1719 -0.3752
21921SOL    HW173003  12.397   1.196   4.958  0.0216 -2.1727 -0.3334
21921SOL    HW273004  12.276   1.152   4.879 -1.0023  1.4059 -0.9359
21922SOL     OW73005   7.826   6.914   5.931 -0.3352  0.2294 -0.4946
21922SOL    HW173006   7.755   6.864   5.892 -1.4916  0.4680  1.1717
21922SOL    HW273007   7.883   6.849   5.972  1.8873 -0.1986 -3.8410
21923SOL     OW73008   9.034   8.241  10.007  0.0436 -0.1908 -0.4378
21923SOL    HW173009   9.013   8.244   9.914 -1.4722 -1.7707 -0.1941
21923SOL    HW273010   8.961   8.193  10.047  1.2327 -0.5911  1.3837
21924SOL     OW73011   7.253   4.158  12.472 -0.3085 -0.0784  0.2570
21924SOL    HW173012   7.275   4.096  12.541  2.5844 -0.4759 -0.9094
21924SOL    HW273013   7.335   4.173  12.425 -1.7241  1.7254 -1.8636
21925SOL     OW73014  12.263   9.672  10.454 -0.2758 -0.3538 -0.3261
21925SOL    HW173015  12.292   9.625  10.376 -1.5538 -0.7825 -0.5597
21925SOL    HW273016  12.268   9.765  10.428  2.7976 -0.2069  0.3257
21926SOL     OW73017   5.587   0.932   3.203  0.3440  0.1566 -0.0932
21926SOL    HW173018   5.627   0.885   3.130  0.5310  1.1511 -0.6459
21926SOL    HW273019   5.493   0.931   3.184  0.4176  0.6421 -0.4873
21927SOL     OW73020   1.494   8.050   5.211  0.1133  0.0910  0.6584
21927SOL    HW173021   1.519   8.133   5.251 -2.1496  1.7193 -1.0411
21927SOL    HW273022   1.551   8.041   5.136 -0.2612  0.6234  0.3036
21928SOL     OW73023  11.380  10.972   8.671 -0.2762  0.6760  0.2401
21928SOL    HW173024  11.429  10.946   8.593 -0.0447 -1.0571  0.9044
21928SOL    HW273025  11.297  10.925   8.664  0.8201 -1.8447  2.3323
21929SOL     OW73026   9.748  11.240  11.532  0.7825 -0.5457 -0.0756
21929SOL    HW173027   9.791  11.325  11.544  1.2432 -0.4424 -2.0358
21929SOL    HW273028   9.661  11.263  11.499 -0.0389 -0.8142  1.7852
21930SOL     OW73029  10.538  10.739   9.690 -0.2370  0.0922  0.1275
21930SOL    HW173030  10.588  10.714   9.613  0.1801 -1.0548  0.7392
21930SOL    HW273031  10.600  10.789   9.744 -0.1011 -0.2865  0.3303
21931SOL     OW73032   5.467   5.978   4.779  0.4307 -0.1297  0.1430
21931SOL    HW173033   5.458   5.894   4.734  0.1054 -0.0631  0.0761
21931SOL    HW273034   5.561   5.996   4.780  0.3988  0.2599 -1.2437
21932SOL     OW73035   9.143   9.104   2.854  0.0490 -0.5007 -0.5062
21932SOL    HW173036   9.126   9.012   2.875  0.1865 -0.2124  0.9645
21932SOL    HW273037   9.228   9.123   2.893 -1.0562  0.8881  1.4113
21933SOL     OW73038   2.641   7.872   8.267  0.0241 -0.0264  0.6082
21933SOL    HW173039   2.728   7.836   8.286  0.7136  1.1076 -0.2486
21933SOL    HW273040   2.597   7.874   8.352  0.4198 -1.6040  0.8929
21934SOL     OW73041   9.249   5.067   9.257  0.6368  0.3082  0.0171
21934SOL    HW173042   9.273   5.157   9.234 -1.4935  1.1389  0.7712
21934SOL    HW273043   9.249   5.066   9.353 -0.4602 -0.1316  0.0351
21935SOL     OW73044   6.697   9.107   6.600  0.0510 -0.0649 -0.7427
21935SOL    HW173045   6.670   9.030   6.551  1.6443 -0.7652 -0.5745
21935SOL    HW273046   6.730   9.073   6.683  0.1832  0.8561 -0.4017
21936SOL     OW73047   6.460   8.909   3.502 -0.6842  0.0089  0.2051
21936SOL    HW173048   6.425   8.953   3.579 -0.3238  1.4084 -0.4126
21936SOL    HW273049   6.382   8.878   3.455 -0.8944 -1.9183  1.6722
21937SOL     OW73050  11.115   0.730   2.497 -0.2451  0.4149  0.1044
21937SOL    HW173051  11.154   0.813   2.468 -0.3252  1.1258  1.8732
21937SOL    HW273052  11.024   0.736   2.467 -0.1714  0.8408 -0.0516
21938SOL     OW73053  11.130   9.462   6.245 -0.3800 -0.7086  0.2170
21938SOL    HW173054  11.186   9.508   6.307  0.1611  0.2247 -0.9260
21938SOL    HW273055  11.189   9.436   6.174 -1.2348 -0.3560 -0.6532
21939SOL     OW73056  10.203  12.509  11.289  0.1004  0.0097 -0.1065
21939SOL    HW173057  10.259  12.433  11.307  0.5115  0.6290  1.3747
21939SOL    HW273058  10.178  12.499  11.197 -0.3935 -2.2653  0.2185
21940SOL     OW73059  10.998   5.512   3.673  0.1648 -0.2223  0.7579
21940SOL    HW173060  10.962   5.423   3.674 -0.1743 -0.2821 -2.8231
21940SOL    HW273061  10.923   5.568   3.656  0.9101  0.1978 -1.5311
21941SOL     OW73062  12.348   9.885   5.714  0.0525  0.1613 -0.1007
21941SOL    HW173063  12.253   9.877   5.718  0.1330 -0.9133 -0.2622
21941SOL    HW273064  12.367   9.901   5.621  0.0861 -0.4616 -0.2047
21942SOL     OW73065  10.308  11.572   2.348 -0.4713 -0.1531  0.0437
21942SOL    HW173066  10.311  11.488   2.302 -0.4293  1.0177 -2.2743
21942SOL    HW273067  10.262  11.554   2.430  0.2624 -2.5706 -0.0221
21943SOL     OW73068   8.132   6.433   9.301 -0.4107  0.8008 -0.5081
21943SOL    HW173069   8.094   6.521   9.305  0.3114  1.1581 -1.1105
21943SOL    HW273070   8.205   6.442   9.239  0.3107  0.0165  0.2014
21944SOL     OW73071   5.941   3.942   0.623  0.5088 -0.4007 -0.7697
21944SOL    HW173072   5.964   3.957   0.531 -0.1440  0.5527 -0.7915
21944SOL    HW273073   5.985   4.012   0.671 -0.0477 -0.2353 -0.4923
21945SOL     OW73074   9.851  10.665   2.807  0.1379 -0.3233 -0.5675
21945SOL    HW173075   9.847  10.761   2.810  0.3752 -0.3333  1.2246
21945SOL    HW273076   9.938  10.646   2.772 -0.2366  0.0837 -1.7847
21946SOL     OW73077   0.302  10.703   7.714  0.5106 -0.0856 -0.3173
21946SOL    HW173078   0.241  10.694   7.787  1.6961 -0.7799  0.6383
21946SOL    HW273079   0.266  10.773   7.660  0.4918  1.7221  1.9068
21947SOL     OW73080  10.358  11.926  10.681  0.8404  0.4313  0.0027
21947SOL    HW173081  10.361  12.020  10.663  0.3356  0.6697  1.0726
21947SOL    HW273082  10.265  11.906  10.686  0.9071 -0.4075 -1.5020
21948SOL     OW73083   4.159   8.324  11.074  0.2436  0.4350 -0.2030
21948SOL    HW173084   4.247   8.346  11.042  0.6761 -1.7639 -0.7029
21948SOL    HW273085   4.100   8.357  11.006  0.6214  2.1223  0.2392
21949SOL     OW73086   0.437   3.540   2.338 -0.0201  0.2417 -0.3062
21949SOL    HW173087   0.385   3.481   2.284 -0.4663 -0.4834  0.8877
21949SOL    HW273088   0.387   3.621   2.340 -0.4136 -0.0011 -0.2806
21950SOL     OW73089   9.928   6.754   9.173 -0.0243 -0.1082  0.3755
21950SOL    HW173090   9.871   6.827   9.147  0.4223  0.6745  1.5057
21950SOL    HW273091   9.878   6.708   9.240 -1.5384 -2.6345 -2.2386
21951SOL     OW73092   4.998   4.871   0.580 -0.0683  0.0219  0.5227
21951SOL    HW173093   4.928   4.858   0.644  1.0929 -1.3206  1.5916
21951SOL    HW273094   5.005   4.787   0.534 -0.5130  0.7898 -1.0384
21952SOL     OW73095   9.102  12.380   7.022  0.2066 -0.1410  0.7347
21952SOL    HW173096   9.091  12.291   7.055 -0.8317  0.4673  2.1138
21952SOL    HW273097   9.186  12.409   7.058 -0.1701 -0.0401  1.5363
21953SOL     OW73098  12.042   4.416   2.259 -0.4444 -0.2703 -0.4920
21953SOL    HW173099  12.034   4.321   2.264  0.8486 -0.4197 -0.8037
21953SOL    HW273100  12.112   4.438   2.321  0.1408  0.3244 -1.3288
21954SOL     OW73101   1.730  11.775  10.919  0.3684 -0.2050 -0.4411
21954SOL    HW173102   1.718  11.763  11.013 -3.2446 -1.2040 -0.8697
21954SOL    HW273103   1.645  11.805  10.888  1.4718  0.1860 -3.4294
21955SOL     OW73104  10.888   1.288   2.487  0.0032 -0.1261 -0.2295
21955SOL    HW173105  10.809   1.236   2.468 -0.2995  0.2824 -0.1058
21955SOL    HW273106  10.943   1.276   2.410 -1.0512  1.2157 -1.2522
21956SOL     OW73107   1.459  12.161   0.824  0.4114  0.1556 -0.5813
21956SOL    HW173108   1.448  12.086   0.765 -0.7901 -0.1986  0.0422
21956SOL    HW273109   1.428  12.236   0.774 -0.3757 -0.1084 -0.5120
21957SOL     OW73110   3.536   6.436   5.023 -0.2123 -0.5111  0.1110
21957SOL    HW173111   3.491   6.352   5.010  0.6978 -1.8132  4.1350
21957SOL    HW273112   3.628   6.417   5.003  0.1064 -0.7287  1.6930
21958SOL     OW73113   4.181   1.420  12.693 -0.1411 -0.2414  0.1975
21958SOL    HW173114   4.099   1.373  12.676 -0.5538 -0.4788  2.4866
21958SOL    HW273115   4.242   1.352  12.721  0.9584 -0.0923 -1.6520
21959SOL     OW73116   7.582   6.269  12.488 -0.4713  0.5105  0.3870
21959SOL    HW173117   7.598   6.212  12.563  0.0264  1.1424  0.7708
21959SOL    HW273118   7.486   6.276  12.484 -0.6991 -2.0788 -0.9993
21960SOL     OW73119   8.509   9.018   2.318  0.4505  0.3819 -0.3494
21960SOL    HW173120   8.549   9.098   2.354  1.2660 -0.2171  0.1242
21960SOL    HW273121   8.518   9.027   2.223  0.6816  0.7776 -0.2920
21961SOL     OW73122   0.169   7.522   7.518 -0.2204 -0.4469  0.4479
21961SOL    HW173123   0.121   7.515   7.601 -1.6404 -0.4199 -0.3584
21961SOL    HW273124   0.116   7.475   7.455  0.5432  0.0620 -0.6037
21962SOL     OW73125  10.429   5.133   2.871  0.5193  0.1634  0.2525
21962SOL    HW173126  10.459   5.144   2.961  1.8937  2.7977 -0.4241
21962SOL    HW273127  10.406   5.040   2.865  2.6172 -0.6460  2.6439
21963SOL     OW73128   3.289   9.771   0.295 -0.2719  0.5811  0.1483
21963SOL    HW173129   3.281   9.866   0.288 -2.6509  0.4373  0.2149
21963SOL    HW273130   3.295   9.740   0.205 -1.9535  0.6646 -0.0182
21964SOL     OW73131   3.842   6.935   0.977  0.4232 -0.0371 -0.8495
21964SOL    HW173132   3.777   6.892   0.922 -0.2549  1.5733 -1.3829
21964SOL    HW273133   3.790   6.988   1.038  1.2075 -0.2219 -0.0093
21965SOL     OW73134   8.859  11.136  12.376  0.8681  0.0040 -0.1881
21965SOL    HW173135   8.915  11.140  12.453  1.0755 -2.3608 -0.1371
21965SOL    HW273136   8.872  11.048  12.341  0.0228  0.6525 -2.3657
21966SOL     OW73137   6.221   1.305   7.264 -0.7765 -0.2053  0.6268
21966SOL    HW173138   6.245   1.280   7.353 -2.4275  1.4602  1.6367
21966SOL    HW273139   6.126   1.291   7.260 -1.0338  1.4615 -0.1954
21967SOL     OW73140   9.076   3.702   3.770  0.4442 -0.5778 -0.0834
21967SOL    HW173141   9.069   3.627   3.711  2.3889 -1.2481  0.4262
21967SOL    HW273142   9.168   3.728   3.765 -0.1593  1.7833 -0.1956
21968SOL     OW73143   4.209   5.343   4.393 -0.2146  0.1499  0.1299
21968SOL    HW173144   4.186   5.317   4.482 -0.3609  1.9249  0.6476
21968SOL    HW273145   4.260   5.269   4.359  0.7844 -0.1154  2.0526
21969SOL     OW73146  12.198  12.326   0.161 -0.1634  0.1113  0.6089
21969SOL    HW173147  12.168  12.356   0.075  0.7511 -3.0933 -0.9884
21969SOL    HW273148  12.277  12.377   0.179 -0.2273  0.6470 -0.5558
21970SOL     OW73149   5.051  11.695   3.038 -0.2951 -0.2131 -0.0246
21970SOL    HW173150   5.108  11.731   3.105 -0.0480  0.1003 -0.3939
21970SOL    HW273151   4.964  11.727   3.060 -0.3456 -0.7374  0.5728
21971SOL     OW73152   3.850   0.443   7.435 -0.2082 -0.3287 -0.2447
21971SOL    HW173153   3.895   0.431   7.518 -0.0008  1.2487 -0.1054
21971SOL    HW273154   3.900   0.388   7.373  0.0807 -0.9278  0.5038
21972SOL     OW73155   9.875   4.454  11.441 -0.2375 -0.2061 -0.0930
21972SOL    HW173156   9.965   4.456  11.475 -0.5265 -0.3932  0.7086
21972SOL    HW273157   9.845   4.365  11.458 -0.5571 -0.1604 -0.4141
21973SOL     OW73158   2.810   8.277   8.396  0.3552 -0.1989  0.3921
21973SOL    HW173159   2.858   8.276   8.314 -0.2391  1.6886 -0.0352
21973SOL    HW273160   2.833   8.360   8.437 -3.5191  1.5890 -0.5486
21974SOL     OW73161  10.787   3.450   4.751 -0.2113  0.4874 -0.6268
21974SOL    HW173162  10.846   3.498   4.810 -1.9747 -0.0683  1.7527
21974SOL    HW273163  10.828   3.364   4.742 -0.1803  0.3905  0.2836
21975SOL     OW73164   6.037   5.228   5.310 -0.0141  0.3339 -0.3241
21975SOL    HW173165   5.974   5.292   5.343  2.0526  1.9773  0.6706
21975SOL    HW273166   6.041   5.244   5.216 -3.2607 -1.9245 -1.0051
21976SOL     OW73167   4.637  11.203   3.411  0.0801 -0.3646 -0.1927
21976SOL    HW173168   4.718  11.157   3.390  0.5393  0.7060 -0.8426
21976SOL    HW273169   4.567  11.144   3.383  0.6600 -0.1667 -2.1496
21977SOL     OW73170   3.817   0.582   1.963  0.8259 -0.1627 -0.5587
21977SOL    HW173171   3.751   0.622   2.021 -2.1782 -3.8277 -1.0752
21977SOL    HW273172   3.803   0.624   1.878  1.0913  0.9743 -0.0617
21978SOL     OW73173   7.687   3.009   7.872 -0.3593 -0.4252  0.0562
21978SOL    HW173174   7.732   2.935   7.831 -0.5865 -0.8719  0.6020
21978SOL    HW273175   7.595   2.982   7.876 -0.9562  1.0539 -2.3452
21979SOL     OW73176  11.436   7.313   6.662 -0.1949 -0.0244  0.3192
21979SOL    HW173177  11.452   7.222   6.687 -1.1792 -0.4313 -0.4489
21979SOL    HW273178  11.438   7.362   6.745 -0.8415 -0.9303  0.8888
21980SOL     OW73179   8.692  12.556   4.586  0.0678 -0.4202  0.4889
21980SOL    HW173180   8.598  12.563   4.570  0.4500  0.4458 -1.6172
21980SOL    HW273181   8.698  12.530   4.678 -2.1860  0.7550  1.0443
21981SOL     OW73182  10.939   2.460   2.506 -0.1950 -0.6159 -0.1013
21981SOL    HW173183  10.935   2.487   2.598  2.1057 -2.4549  0.6556
21981SOL    HW273184  11.029   2.480   2.479 -0.5092 -1.1046 -1.6079
21982SOL     OW73185   4.212   1.196   1.950 -0.1305  0.2853  0.5388
21982SOL    HW173186   4.185   1.177   2.040 -1.8940 -0.2479 -0.0495
21982SOL    HW273187   4.195   1.290   1.940 -0.7707  0.1761  0.5241
21983SOL     OW73188  11.368   3.816   7.725  0.1066  0.6378 -0.2485
21983SOL    HW173189  11.330   3.894   7.685  0.4780  1.0178  0.1293
21983SOL    HW273190  11.429   3.783   7.658 -1.2273 -0.2696 -1.0665
21984SOL     OW73191   3.330   3.870   6.661 -0.1931  0.5460  0.8293
21984SOL    HW173192   3.299   3.918   6.585 -1.1361 -0.5280  0.5052
21984SOL    HW273193   3.425   3.873   6.655 -0.2512 -0.4013 -0.9649
21985SOL     OW73194   7.660   0.417   0.777 -0.9116 -0.0020 -0.9451
21985SOL    HW173195   7.671   0.321   0.777 -0.6860  0.0208 -0.5105
21985SOL    HW273196   7.707   0.446   0.855 -0.2692  0.5492 -1.5189
21986SOL     OW73197  11.250   4.140   4.439  0.1009  0.7066  0.0065
21986SOL    HW173198  11.293   4.099   4.514 -1.6641 -0.5978  0.3498
21986SOL    HW273199  11.190   4.204   4.477 -0.3613  0.4768 -0.3315
21987SOL     OW73200   3.444  11.579   3.954  0.8339  0.4769 -0.2098
21987SOL    HW173201   3.462  11.558   4.046  0.2172  1.5819  0.1843
21987SOL    HW273202   3.388  11.507   3.924 -0.2185  0.8589  0.7410
21988SOL     OW73203  10.481  11.750   6.607  0.2599  0.6907 -0.1174
21988SOL    HW173204  10.565  11.794   6.596  1.8674 -2.3597 -1.1045
21988SOL    HW273205  10.420  11.803   6.554  1.9553  1.8850 -0.9893
21989SOL     OW73206  12.428   6.155   4.982 -0.1816 -0.5038 -0.4675
21989SOL    HW173207  12.402   6.207   4.906 -1.9498 -1.2637 -0.4154
21989SOL    HW273208  12.414   6.065   4.955  0.9158 -0.8770  0.1556
21990SOL     OW73209  10.888   8.136   1.958 -0.0943  0.3033  0.1400
21990SOL    HW173210  10.857   8.097   1.876 -0.8149  1.8416 -0.3557
21990SOL    HW273211  10.967   8.086   1.980 -0.1945 -0.4927 -1.1915
21991SOL     OW73212  11.783  10.429   6.971 -0.0811 -0.4044  0.1870
21991SOL    HW173213  11.709  10.486   6.950  0.2960 -0.8810 -2.8358
21991SOL    HW273214  11.756  10.342   6.941  0.6907 -1.1774  1.6028
21992SOL     OW73215   4.428   0.783   1.239 -0.3274 -0.4872  0.4436
21992SOL    HW173216   4.465   0.705   1.197 -0.9095 -0.0114 -1.0265
21992SOL    HW273217   4.493   0.808   1.304  0.3773 -1.5792  0.1945
21993SOL     OW73218   7.372   3.795   6.448  0.4656  0.5403  0.2464
21993SOL    HW173219   7.301   3.849   6.483  0.0163 -0.1422  0.4158
21993SOL    HW273220   7.375   3.816   6.355 -1.1651 -0.7063 -0.1345
21994SOL     OW73221   4.712  10.030   7.785  0.3771 -0.4545 -0.4294
21994SOL    HW173222   4.664   9.978   7.721  0.5961 -1.4903  0.2402
21994SOL    HW273223   4.786   9.975   7.810  1.4769  0.7760 -0.8226
21995SOL     OW73224   7.809   7.190  11.099  0.9254 -0.3473  0.0989
21995SOL    HW173225   7.791   7.140  11.020  1.9508  0.3268 -0.5891
21995SOL    HW273226   7.726   7.233  11.120  0.5786 -0.7419 -0.4600
21996SOL     OW73227   7.746   4.061   4.298  0.0459  0.6686  0.3085
21996SOL    HW173228   7.744   4.155   4.314  1.3102  1.3930 -2.9566
21996SOL    HW273229   7.837   4.036   4.315  0.2756  0.5414 -1.0425
21997SOL     OW73230   2.643   6.624   5.784 -0.2827  0.4606 -0.2229
21997SOL    HW173231   2.621   6.690   5.718 -2.5337  0.1091  0.1018
21997SOL    HW273232   2.647   6.542   5.735  0.8948  0.5762 -0.3539
21998SOL     OW73233   4.489   1.167   0.194  0.3450  0.2113  0.0368
21998SOL    HW173234   4.439   1.202   0.268 -0.4370  1.7204 -1.1367
21998SOL    HW273235   4.437   1.190   0.117  1.8916  0.0823 -1.1041
21999SOL     OW73236   8.247   5.103   3.267 -0.3522  0.0278 -0.5881
21999SOL    HW173237   8.336   5.069   3.260 -0.8674 -1.3040 -0.8955
21999SOL    HW273238   8.256   5.182   3.321  1.0376  0.0460 -0.8170
22000SOL     OW73239   5.347  12.012   1.954  0.0316 -0.1089  0.2463
22000SOL    HW173240   5.414  12.071   1.919  1.4540 -1.3956  0.7568
22000SOL    HW273241   5.266  12.064   1.950  0.5762  0.6931 -2.5639
22001SOL     OW73242   2.225   3.592   0.181  0.0277  0.0971  0.3107
22001SOL    HW173243   2.244   3.507   0.141 -0.8886 -0.2694  0.6272
22001SOL    HW273244   2.171   3.637   0.116 -2.2367 -0.8514  1.4296
22002SOL     OW73245   1.649   2.735  11.948  0.0865 -0.3311  0.3438
22002SOL    HW173246   1.659   2.817  11.995  0.9084 -0.9341  1.2420
22002SOL    HW273247   1.729   2.726  11.897 -0.9845  0.5513 -1.6218
22003SOL     OW73248   6.194  10.660   7.894  0.6960  0.4340  0.4556
22003SOL    HW173249   6.158  10.609   7.966 -0.1408  1.3112  0.6779
22003SOL    HW273250   6.220  10.594   7.829  1.2402 -0.3489  1.4426
22004SOL     OW73251   0.225   3.179   5.867 -0.0686  0.1469 -0.2187
22004SOL    HW173252   0.304   3.125   5.870 -0.3274 -0.2540 -0.7065
22004SOL    HW273253   0.163   3.136   5.926  0.6644  1.4235  1.5950
22005SOL     OW73254  12.213   6.906  11.520  0.2683 -0.0239 -0.1947
22005SOL    HW173255  12.177   6.966  11.586  2.8494  0.1454  1.2117
22005SOL    HW273256  12.222   6.823  11.566  3.7790  0.5319  0.4567
22006SOL     OW73257   2.463   9.828   8.560  0.3291  0.2173  0.0932
22006SOL    HW173258   2.479   9.779   8.480 -0.5498  0.2504 -0.1176
22006SOL    HW273259   2.370   9.852   8.555  0.3935  0.6654  0.8718
22007SOL     OW73260   7.596   9.115   9.080  0.1583 -0.4946  0.0433
22007SOL    HW173261   7.548   9.135   8.999  1.4073 -0.0141 -0.6044
22007SOL    HW273262   7.644   9.034   9.059 -1.4734 -1.8353  1.1873
22008SOL     OW73263  10.842   8.054   0.665  0.1569  0.5246  0.2452
22008SOL    HW173264  10.748   8.048   0.681 -0.0639  0.3859 -1.0176
22008SOL    HW273265  10.850   8.065   0.571  1.4244  0.2663  0.3015
22009SOL     OW73266  11.104   3.136   1.755 -0.2773  0.8559 -0.0927
22009SOL    HW173267  11.118   3.065   1.818  1.8823  0.2988 -1.0958
22009SOL    HW273268  11.032   3.105   1.700 -0.2037 -0.0166  0.2774
22010SOL     OW73269   8.794  11.146   4.226  0.6313  0.0486  0.2600
22010SOL    HW173270   8.835  11.090   4.161  2.8574  0.9942  0.7557
22010SOL    HW273271   8.769  11.085   4.296 -1.3416 -0.9032 -1.1723
22011SOL     OW73272   5.917   7.453   9.425  0.5315 -0.0026  0.1515
22011SOL    HW173273   5.854   7.450   9.353  0.6388  0.0908  0.0544
22011SOL    HW273274   5.863   7.464   9.504  0.4553  0.6310  0.0188
22012SOL     OW73275   9.730   2.801   1.076  0.6921 -0.0281 -0.1700
22012SOL    HW173276   9.649   2.852   1.086  1.0366  0.5420 -0.2727
22012SOL    HW273277   9.700   2.711   1.069  0.1563 -0.0459  1.6675
22013SOL     OW73278   9.489  10.278  12.486 -0.1389  0.0213  0.3411
22013SOL    HW173279   9.542  10.297  12.409 -1.3468 -0.1406 -0.5599
22013SOL    HW273280   9.500  10.354  12.543  0.6552  0.2039 -0.0480
22014SOL     OW73281   8.795  12.302  10.812 -0.3000  0.2854  0.5462
22014SOL    HW173282   8.729  12.365  10.841  0.6017  0.4299  2.4194
22014SOL    HW273283   8.873  12.354  10.796 -0.2933 -0.0372 -0.5476
22015SOL     OW73284   4.855   9.896   4.540  0.6380  0.2179 -0.2017
22015SOL    HW173285   4.825   9.807   4.523  0.1496  0.2863  0.2354
22015SOL    HW273286   4.909   9.919   4.465  0.3950 -0.2814 -0.5334
22016SOL     OW73287   5.239   3.241   8.691 -0.2777 -0.1083  0.0800
22016SOL    HW173288   5.201   3.221   8.776  0.1298  0.9750  0.5283
22016SOL    HW273289   5.165   3.238   8.630 -0.7557  0.1794  0.6469
22017SOL     OW73290   0.191  10.241   4.804  0.1864  0.3611  0.2396
22017SOL    HW173291   0.258  10.190   4.849  2.1650 -0.3947 -3.2054
22017SOL    HW273292   0.157  10.182   4.737 -1.0910  2.0343 -0.6629
22018SOL     OW73293   6.646   8.056   8.749 -0.4692 -0.2014 -0.5046
22018SOL    HW173294   6.669   7.977   8.798  0.3653 -0.3131 -1.0443
22018SOL    HW273295   6.709   8.058   8.677 -1.0176  0.5098 -0.9791
22019SOL     OW73296   9.596   5.132   5.539 -0.2824 -0.1804  0.2133
22019SOL    HW173297   9.516   5.147   5.589  0.5585 -2.0369  2.2834
22019SOL    HW273298   9.625   5.219   5.512 -2.2414  0.6299  0.5939
22020SOL     OW73299   1.349   6.644   7.007 -0.3561  0.1021 -0.0757
22020SOL    HW173300   1.441   6.667   7.022 -0.4195  0.5139 -0.3027
22020SOL    HW273301   1.300   6.710   7.056 -0.5338 -0.5609  0.6773
22021SOL     OW73302   9.598   4.732   8.844 -0.2507 -0.3459  0.2856
22021SOL    HW173303   9.511   4.758   8.874  0.3944  1.0217  1.0837
22021SOL    HW273304   9.597   4.747   8.750 -1.2521 -1.5270  0.0823
22022SOL     OW73305   8.326  11.971   8.531  0.1702 -0.1042  0.1539
22022SOL    HW173306   8.277  12.026   8.471 -0.9075 -1.8852 -0.6569
22022SOL    HW273307   8.360  12.032   8.597 -2.7565  1.2784  0.5161
22023SOL     OW73308  11.992   7.462   6.703  0.2807 -0.0406  0.2336
22023SOL    HW173309  12.016   7.407   6.629 -0.3686  0.2536 -0.2082
22023SOL    HW273310  11.937   7.406   6.758 -0.1807  0.0814 -0.0944
22024SOL     OW73311   5.531   0.321   2.327  0.3010 -0.0110  0.1587
22024SOL    HW173312   5.483   0.382   2.382  2.2569  2.3535 -0.5457
22024SOL    HW273313   5.622   0.330   2.356  0.9154 -1.1105 -1.3064
22025SOL     OW73314   1.190  10.231  10.594 -0.2517 -0.2413  0.2035
22025SOL    HW173315   1.190  10.140  10.564 -0.5596  0.0423 -0.7037
22025SOL    HW273316   1.119  10.273  10.545 -0.6978  0.2834  1.2654
22026SOL     OW73317   1.023  11.435   7.328  1.0219 -0.7900 -0.5619
22026SOL    HW173318   1.003  11.404   7.240 -1.3563 -1.1292  0.0407
22026SOL    HW273319   1.037  11.529   7.318 -0.2742 -0.6513 -1.1781
22027SOL     OW73320  11.969  11.968   4.428 -0.4007  0.4161  0.0122
22027SOL    HW173321  11.925  11.887   4.401  0.4322 -0.0088 -0.0827
22027SOL    HW273322  12.040  11.979   4.366 -2.0068  2.6345 -1.6090
22028SOL     OW73323   3.005   6.923   1.547  0.1340 -0.1151 -0.4691
22028SOL    HW173324   3.000   7.018   1.558  3.2312  0.1705 -0.8751
22028SOL    HW273325   2.929   6.889   1.596 -0.6876  2.4917  0.1925
22029SOL     OW73326   9.032   4.733   3.660  0.4071  0.1727 -0.3708
22029SOL    HW173327   8.979   4.696   3.730 -0.2499  1.1843 -0.3119
22029SOL    HW273328   8.969   4.755   3.591  1.0295 -0.7313 -1.2681
22030SOL     OW73329   1.324  11.224   4.877 -0.6043 -0.0246  0.6410
22030SOL    HW173330   1.370  11.151   4.919 -0.8791 -1.1989 -1.0098
22030SOL    HW273331   1.253  11.245   4.938 -1.1736 -1.8721  0.6991
22031SOL     OW73332   2.995   8.779   0.760  0.1264  0.5754  0.4052
22031SOL    HW173333   3.056   8.773   0.686  0.9605 -1.2058  1.1759
22031SOL    HW273334   2.908   8.773   0.720  0.5748 -0.9112 -0.4125
22032SOL     OW73335   7.950   1.090   6.766 -0.4958  0.4156  0.2809
22032SOL    HW173336   7.934   1.081   6.672 -1.8748  3.1733  0.1590
22032SOL    HW273337   8.045   1.085   6.774 -0.3718 -0.1800 -1.2007
22033SOL     OW73338   8.326   3.684  11.384  0.2399 -0.1426 -0.1015
22033SOL    HW173339   8.345   3.752  11.319  1.4945 -0.2388  0.1474
22033SOL    HW273340   8.239   3.652  11.360  0.7690 -0.3438 -1.9154
22034SOL     OW73341   1.930   3.317  10.168 -0.3244 -0.6075 -0.4163
22034SOL    HW173342   2.006   3.305  10.225 -0.1413  1.7962 -0.0552
22034SOL    HW273343   1.963   3.300  10.080 -0.2346 -2.8420 -0.0099
22035SOL     OW73344   9.351  11.549   1.474  0.9449 -0.2280 -0.1373
22035SOL    HW173345   9.392  11.465   1.453  0.9485 -0.0766 -0.7696
22035SOL    HW273346   9.366  11.603   1.396  2.7514  1.0547  1.0074
22036SOL     OW73347   1.246   1.214   0.218 -0.0576 -0.4135 -0.5682
22036SOL    HW173348   1.292   1.250   0.142  2.1373 -1.6286  0.1273
22036SOL    HW273349   1.229   1.122   0.194  1.3873 -1.0462  0.6676
22037SOL     OW73350  10.730   7.975   6.042  0.4534  0.3585  0.0615
22037SOL    HW173351  10.656   8.032   6.064 -0.3722 -0.8311  0.4922
22037SOL    HW273352  10.741   7.920   6.119  1.4875  0.1832 -0.1933
22038SOL     OW73353   2.437   5.549   2.373  0.2944  0.3280 -0.2873
22038SOL    HW173354   2.492   5.476   2.402 -1.2376 -0.3311  1.0932
22038SOL    HW273355   2.463   5.564   2.282  1.5215 -1.0835 -0.2069
22039SOL     OW73356   0.335   5.805   0.736  0.0146 -0.0333  0.1785
22039SOL    HW173357   0.375   5.891   0.750 -0.4240  0.4231 -1.2285
22039SOL    HW273358   0.408   5.749   0.709 -0.2485  0.9395 -2.9806
22040SOL     OW73359   2.017  10.576   3.851 -0.2186 -0.1088  0.4913
22040SOL    HW173360   2.095  10.577   3.797 -0.6924  2.6599 -0.2711
22040SOL    HW273361   1.948  10.613   3.796 -1.4291  0.0513  2.0314
22041SOL     OW73362   0.926   5.887  10.288 -0.3150 -0.0142  0.4520
22041SOL    HW173363   0.918   5.973  10.246  1.3321 -0.1044 -0.1170
22041SOL    HW273364   0.955   5.829  10.218  0.7071 -0.5521  1.2913
22042SOL     OW73365   2.516  11.114   6.484 -0.4837  0.1805  0.4862
22042SOL    HW173366   2.595  11.072   6.518 -0.6611 -0.9453 -0.4354
22042SOL    HW273367   2.444  11.062   6.519 -0.8603  1.4198  1.6174
22043SOL     OW73368   9.429   0.193   8.427  0.2972  0.8026 -0.2606
22043SOL    HW173369   9.467   0.278   8.406  1.7160  0.6527  1.4256
22043SOL    HW273370   9.449   0.138   8.352  3.3370  0.8176  0.4021
22044SOL     OW73371  12.184   4.501   7.437 -0.0842 -0.2807  0.0515
22044SOL    HW173372  12.260   4.456   7.473 -0.3435 -0.9911 -0.2679
22044SOL    HW273373  12.190   4.485   7.342 -0.6421 -0.3558  0.0279
22045SOL     OW73374   3.214   3.908  12.111 -0.3609 -0.4608 -0.3326
22045SOL    HW173375   3.289   3.967  12.102 -1.4939  0.8544 -1.9133
22045SOL    HW273376   3.179   3.901  12.022 -0.2215 -3.6826 -0.2307
22046SOL     OW73377   2.925  10.317   0.137  0.2882 -0.2851  0.0638
22046SOL    HW173378   2.992  10.319   0.206  0.3424 -2.2598  0.1111
22046SOL    HW273379   2.846  10.288   0.182  0.2710 -1.3782 -0.6420
22047SOL     OW73380  12.432   4.108   9.143 -0.3382  0.3170  0.2949
22047SOL    HW173381  12.389   4.101   9.058  3.4467  0.6795 -1.9036
22047SOL    HW273382  12.403   4.192   9.178 -1.9271  0.1927 -0.6206
22048SOL     OW73383   7.997   0.548   6.723 -0.8421 -0.0294 -0.1143
22048SOL    HW173384   7.982   0.633   6.763  1.1100  0.2021  0.1984
22048SOL    HW273385   8.071   0.562   6.663  0.3266 -1.7478  0.8497
22049SOL     OW73386   8.862   6.711   2.549  0.5153 -0.3904 -0.0827
22049SOL    HW173387   8.782   6.669   2.582  0.3646  0.1568  0.2612
22049SOL    HW273388   8.916   6.724   2.627  0.3895  0.4112 -0.1196
22050SOL     OW73389   0.940   6.741   9.878 -0.5024  0.1030  0.1964
22050SOL    HW173390   0.950   6.801   9.805  0.1582 -0.1270  0.0896
22050SOL    HW273391   0.944   6.797   9.956  0.0198  0.2102  0.0938
22051SOL     OW73392   9.875   4.562   3.867 -0.6178 -0.1133 -0.1170
22051SOL    HW173393   9.885   4.644   3.915  0.7122 -0.7627  0.7879
22051SOL    HW273394   9.800   4.519   3.908 -0.8952  0.3484 -0.1365
22052SOL     OW73395   1.469   1.666   3.617  0.4402  0.0618  0.3729
22052SOL    HW173396   1.531   1.695   3.550 -1.1670 -2.8592 -2.7058
22052SOL    HW273397   1.388   1.713   3.597  0.0118 -0.6628  0.3532
22053SOL     OW73398  10.492   7.931   0.432  0.3234  0.1216 -0.1792
22053SOL    HW173399  10.463   7.878   0.358  0.9551 -2.8359  1.5436
22053SOL    HW273400  10.569   7.978   0.399  2.2835 -3.1972 -0.7888
22054SOL     OW73401   7.168   6.762   1.690  0.6245 -0.0893  0.0206
22054SOL    HW173402   7.220   6.787   1.766 -0.0409  3.0899 -0.4338
22054SOL    HW273403   7.077   6.763   1.721  0.4757 -0.9821 -0.3324
22055SOL     OW73404   3.733   0.349  12.452 -0.0053  0.6241 -0.4588
22055SOL    HW173405   3.671   0.360  12.379  0.4250 -0.4522 -1.0084
22055SOL    HW273406   3.722   0.257  12.479  2.0012  0.1193 -1.1980
22056SOL     OW73407   7.459   1.474   1.118  0.1968 -0.0687  0.0975
22056SOL    HW173408   7.481   1.420   1.194  0.2313 -0.1370  0.0387
22056SOL    HW273409   7.413   1.549   1.155  0.2257 -0.0951  0.1876
22057SOL     OW73410   3.320   6.263  10.690 -0.1923 -0.6152  0.1991
22057SOL    HW173411   3.401   6.307  10.664 -1.0527  1.3283  0.5908
22057SOL    HW273412   3.300   6.205  10.617 -0.9288  2.4145 -2.2504
22058SOL     OW73413   5.811   7.104   7.310 -0.3597  0.0604 -0.4934
22058SOL    HW173414   5.905   7.109   7.331 -0.3723  0.0867 -0.4446
22058SOL    HW273415   5.777   7.039   7.371 -0.2128 -0.5677 -1.0656
22059SOL     OW73416   0.977   3.909   1.557 -0.3918 -0.1845  0.4208
22059SOL    HW173417   1.040   3.899   1.628 -0.6251  0.5370  0.7317
22059SOL    HW273418   0.912   3.970   1.590  0.0284  0.9566 -0.7520
22060SOL     OW73419  12.624   6.871   4.156  0.4746  0.1903 -0.1975
22060SOL    HW173420  12.689   6.939   4.172 -0.0922  0.4069  1.4409
22060SOL    HW273421  12.550   6.917   4.117  1.1367  0.0047 -1.7248
22061SOL     OW73422   2.086   9.278  10.736 -0.0379  0.0248 -0.2206
22061SOL    HW173423   2.027   9.216  10.694  0.0043 -0.0918 -0.1100
22061SOL    HW273424   2.119   9.231  10.814 -1.1013  0.6980  0.6614
22062SOL     OW73425  12.417   2.861   0.402  0.0093  0.3495 -0.1719
22062SOL    HW173426  12.408   2.797   0.332  0.1085 -1.5360  1.4428
22062SOL    HW273427  12.328   2.888   0.423 -0.0641  0.4141 -0.5672
22063SOL     OW73428   7.933   7.261   7.717  0.0592  0.5224  0.3223
22063SOL    HW173429   7.952   7.328   7.651 -0.4170  2.2082  1.8042
22063SOL    HW273430   7.838   7.259   7.723  0.0221 -1.0116 -0.3578
22064SOL     OW73431  11.184  10.525  10.867 -1.0132  0.4982 -0.8854
22064SOL    HW173432  11.112  10.585  10.890 -2.7057 -1.3366 -1.1500
22064SOL    HW273433  11.231  10.512  10.949  0.4618  3.4101 -1.1243
22065SOL     OW73434   6.272   4.641  12.333 -0.0748 -0.5737  0.3903
22065SOL    HW173435   6.270   4.692  12.252  0.9421 -0.3984  0.4615
22065SOL    HW273436   6.206   4.573  12.321 -0.1271 -0.3744 -0.4766
22066SOL     OW73437   2.908   0.246   0.811 -0.3756  0.1240 -0.2204
22066SOL    HW173438   2.890   0.178   0.746 -0.5154  0.5748 -0.6639
22066SOL    HW273439   2.993   0.222   0.848 -0.7108 -0.6305  0.0803
22067SOL     OW73440   7.715  11.739  12.267  0.1232 -0.5515  0.3975
22067SOL    HW173441   7.697  11.747  12.174  1.2934 -0.5233  0.1591
22067SOL    HW273442   7.810  11.733  12.273  0.0442 -0.9909  1.5584
22068SOL     OW73443   8.740   3.935   5.610  0.3848 -0.0543  0.1391
22068SOL    HW173444   8.706   3.886   5.535 -0.3787  1.8815 -0.8478
22068SOL    HW273445   8.697   4.021   5.604  0.1180  0.0994  2.9261
22069SOL     OW73446   5.082   3.357   2.015  0.4528  0.3832 -0.1849
22069SOL    HW173447   5.093   3.268   2.048 -1.1528 -0.2409 -1.2406
22069SOL    HW273448   5.010   3.351   1.953  1.4100  2.1156 -1.5325
22070SOL     OW73449   3.302   8.945  12.097  0.1528 -0.3470 -0.4001
22070SOL    HW173450   3.275   9.035  12.075 -0.5387 -1.1355 -3.1774
22070SOL    HW273451   3.395   8.953  12.118  0.8749  0.7294 -3.4640
22071SOL     OW73452   4.994   4.372   5.148 -0.3653  0.0013  0.0292
22071SOL    HW173453   4.973   4.380   5.055 -1.3688 -1.2320  0.1214
22071SOL    HW273454   5.009   4.462   5.177  3.5697  0.2090 -2.0781
22072SOL     OW73455   0.074   5.605   6.037 -0.2242 -0.3002 -0.0220
22072SOL    HW173456   0.033   5.596   6.122 -0.2450 -2.1032 -0.1906
22072SOL    HW273457   0.165   5.577   6.051 -0.3893 -1.2189 -0.7031
22073SOL     OW73458   2.996  10.516  12.416  0.3495  0.0805 -0.0614
22073SOL    HW173459   3.063  10.512  12.347 -0.6041 -2.4837 -0.9509
22073SOL    HW273460   2.970  10.425  12.430 -2.2086  0.8834  1.0240
22074SOL     OW73461   5.716  11.130   5.539 -0.7436 -0.0828  0.2880
22074SOL    HW173462   5.723  11.172   5.453  0.9183 -1.7162 -0.4333
22074SOL    HW273463   5.740  11.200   5.601 -0.8418  0.8098 -0.6471
22075SOL     OW73464   1.621   1.208   2.868  0.3836  0.0133  0.0703
22075SOL    HW173465   1.567   1.177   2.796  0.4177  1.8508 -0.8113
22075SOL    HW273466   1.696   1.250   2.826  0.7631  0.5160  1.1956
22076SOL     OW73467   5.374   9.070   2.646 -0.7123  0.1721 -0.0983
22076SOL    HW173468   5.352   8.989   2.601  0.1233  0.2094 -0.5897
22076SOL    HW273469   5.301   9.129   2.626 -0.8482 -0.1472 -0.5485
22077SOL     OW73470   2.113   3.568   7.233  0.0811  0.3166 -0.8292
22077SOL    HW173471   2.059   3.510   7.285 -0.7017  0.6283 -1.2744
22077SOL    HW273472   2.111   3.531   7.144  1.4721 -0.2623 -0.6499
22078SOL     OW73473   2.950   8.406   0.759  0.4754  0.0277 -0.7653
22078SOL    HW173474   2.946   8.470   0.830  1.2715 -1.9299  1.1779
22078SOL    HW273475   2.859   8.393   0.732  0.2808  1.7247 -1.0252
22079SOL     OW73476   9.036   7.497   6.785  0.5854  0.0898  0.4543
22079SOL    HW173477   9.111   7.552   6.806  0.4589  0.5031 -0.1657
22079SOL    HW273478   9.011   7.457   6.869  0.9113  0.6771  0.8343
22080SOL     OW73479   7.411   1.966   0.814 -0.1366  0.2827  0.1221
22080SOL    HW173480   7.403   1.998   0.724 -0.3265 -1.0536 -0.3598
22080SOL    HW273481   7.464   2.032   0.858  1.1811  0.2650 -1.3493
22081SOL     OW73482  11.730   7.186  11.458 -0.3461  0.4439  0.5685
22081SOL    HW173483  11.682   7.245  11.516 -2.1090  0.2683 -0.6194
22081SOL    HW273484  11.806   7.236  11.430 -1.5035  1.9734  0.0367
22082SOL     OW73485   7.499   3.540   8.436 -0.1717 -0.1313 -0.0833
22082SOL    HW173486   7.461   3.620   8.472  1.0408  0.1761  0.5854
22082SOL    HW273487   7.440   3.470   8.464 -0.3539  0.3511  0.7635
22083SOL     OW73488  10.724  10.025  10.038  0.3117  0.1970 -0.3159
22083SOL    HW173489  10.758  10.087   9.973  0.3238 -1.5382 -2.0478
22083SOL    HW273490  10.637  10.003  10.007  0.0778 -0.2062  0.6085
22084SOL     OW73491   7.917  11.527   9.514  0.0756 -0.0027  0.0067
22084SOL    HW173492   7.977  11.515   9.588  0.4499 -0.5809 -0.3828
22084SOL    HW273493   7.972  11.515   9.436 -0.1943  1.1500 -0.3884
22085SOL     OW73494   8.287   9.933   3.184  0.4966  0.2404 -0.1105
22085SOL    HW173495   8.195   9.937   3.156  0.6280  0.3544 -0.5211
22085SOL    HW273496   8.308  10.022   3.211  1.0790  0.6886 -1.9052
22086SOL     OW73497   6.507   5.698   5.446  0.1433  0.5732 -0.9843
22086SOL    HW173498   6.594   5.723   5.477 -0.7167  2.0861  0.3700
22086SOL    HW273499   6.487   5.617   5.492  1.8026 -1.2256 -3.2240
22087SOL     OW73500   2.788  11.305   2.240  0.1746 -0.6443  0.2382
22087SOL    HW173501   2.793  11.217   2.201  2.2678 -1.0679  1.3074
22087SOL    HW273502   2.869  11.348   2.211 -1.2062  1.2863 -0.9554
22088SOL     OW73503   3.560  12.352   8.001 -0.2362 -0.3968 -0.0386
22088SOL    HW173504   3.639  12.354   7.947  0.6400  0.6188  1.2134
22088SOL    HW273505   3.488  12.357   7.939  0.5947 -2.9283 -1.3257
22089SOL     OW73506   9.166  10.935  10.853  0.3170  0.0455  0.1871
22089SOL    HW173507   9.131  10.898  10.934  1.6991  1.7553  1.6512
22089SOL    HW273508   9.102  11.000  10.827  1.7157  2.4606  2.3129
22090SOL     OW73509   8.195   9.735  12.319  0.5824 -0.8015  0.5799
22090SOL    HW173510   8.246   9.813  12.340  0.1033  0.2630 -1.8810
22090SOL    HW273511   8.258   9.676  12.278  0.3463 -0.4170 -0.3682
22091SOL     OW73512   7.954  10.370   9.457  0.8511  0.4139 -0.3755
22091SOL    HW173513   7.970  10.348   9.549 -0.6458 -1.3906 -0.5001
22091SOL    HW273514   8.041  10.389   9.422  2.2539 -3.8917  0.1890
22092SOL     OW73515  12.159   4.962   9.462  0.0120  0.3614  1.0225
22092SOL    HW173516  12.082   4.908   9.481 -0.0688  0.2404  0.3874
22092SOL    HW273517  12.141   5.000   9.376  0.1878  1.1926  1.3424
22093SOL     OW73518   4.094   4.515   7.114  0.3199  0.1307  0.7588
22093SOL    HW173519   4.122   4.443   7.058 -1.6120  1.3069 -1.9584
22093SOL    HW273520   4.039   4.474   7.181 -1.2285 -0.9643 -1.0872
22094SOL     OW73521   2.945  11.200   4.449 -0.0735 -0.4215  0.3235
22094SOL    HW173522   2.930  11.185   4.543 -2.7632 -3.9620 -0.4322
22094SOL    HW273523   2.888  11.273   4.427  0.3320  0.2313  1.3574
22095SOL     OW73524  12.377   2.954   0.898 -0.0118 -0.1253  0.0274
22095SOL    HW173525  12.452   2.979   0.844 -0.0251 -0.0370  0.0503
22095SOL    HW273526  12.356   3.033   0.948 -1.6259  0.6238 -1.7153
22096SOL     OW73527  10.105  12.578  11.672 -0.1817 -0.2127 -0.1404
22096SOL    HW173528  10.035  12.614  11.726 -0.3681 -2.6844  1.4457
22096SOL    HW273529  10.066  12.499  11.633  1.1366 -0.5705 -0.7760
22097SOL     OW73530   8.586   9.324   1.756  0.0910 -0.2305 -0.2615
22097SOL    HW173531   8.558   9.370   1.835  0.4458  0.8947 -0.7618
22097SOL    HW273532   8.569   9.386   1.685 -1.3274 -1.6545 -1.2376
22098SOL     OW73533   9.760   9.619  12.450 -0.0602 -0.5374  0.1960
22098SOL    HW173534   9.689   9.625  12.387  0.4228  0.4660 -0.2770
22098SOL    HW273535   9.720   9.583  12.529 -1.0416 -0.1937 -0.1392
22099SOL     OW73536  12.131   1.633   4.729 -0.3467  0.3776 -0.2110
22099SOL    HW173537  12.131   1.645   4.634  0.2552 -3.7640 -0.9383
22099SOL    HW273538  12.220   1.656   4.755  0.1028 -0.3148 -1.0439
22100SOL     OW73539   1.204  12.057   1.138 -0.0514  0.6736 -0.5874
22100SOL    HW173540   1.169  12.090   1.055  1.4812  0.8903 -1.1803
22100SOL    HW273541   1.296  12.083   1.137  0.4336 -0.8833  0.3651
22101SOL     OW73542   7.723   5.777  11.602  0.1583 -0.5902  0.4604
22101SOL    HW173543   7.670   5.855  11.591  2.6009  1.2914  1.0478
22101SOL    HW273544   7.669   5.706  11.568 -3.2830  0.8665  2.3892
22102SOL     OW73545   2.433  10.063   9.001 -0.2160 -0.0458 -0.0072
22102SOL    HW173546   2.415  10.127   8.932 -0.5420 -0.4741 -0.3244
22102SOL    HW273547   2.516  10.023   8.976  0.8092  1.3623  1.0287
22103SOL     OW73548   1.324   4.915  11.327  0.5493 -0.3515  0.5522
22103SOL    HW173549   1.287   5.001  11.347  0.0653 -0.6171  0.8145
22103SOL    HW273550   1.390   4.901  11.395 -1.9101 -1.7699  2.7932
22104SOL     OW73551  11.669  10.862   9.049 -0.0830 -0.0332  0.1129
22104SOL    HW173552  11.613  10.834   9.121  0.3292  1.2751  0.9775
22104SOL    HW273553  11.757  10.864   9.086  0.0354  1.3524 -0.1954
22105SOL     OW73554   3.989   4.085   1.572 -0.3140  0.4741 -0.1647
22105SOL    HW173555   3.991   4.032   1.652  1.3465  0.8914  0.1048
22105SOL    HW273556   3.896   4.106   1.560 -0.5565  0.9989  2.0610
22106SOL     OW73557   2.349   2.765  10.706  0.3313  0.8345  0.0062
22106SOL    HW173558   2.334   2.688  10.652  1.0354  0.7532 -0.0836
22106SOL    HW273559   2.284   2.759  10.776  0.2150  0.2989 -0.1474
22107SOL     OW73560   0.997   3.706   1.047 -0.3704 -0.4462  0.2136
22107SOL    HW173561   0.930   3.650   1.086 -0.0793 -0.0752  1.2808
22107SOL    HW273562   0.948   3.778   1.008 -0.8046 -1.7129 -1.7575
22108SOL     OW73563   2.021   8.862   4.309  0.0774  0.6824 -0.1447
22108SOL    HW173564   2.050   8.866   4.400  0.0506 -0.8439 -0.0468
22108SOL    HW273565   1.929   8.887   4.312 -0.2128 -0.4185  0.4132
22109SOL     OW73566  10.720  12.385  10.095  0.6167 -0.2014  0.4626
22109SOL    HW173567  10.658  12.331  10.144 -0.6772 -0.3775 -1.2752
22109SOL    HW273568  10.731  12.464  10.149 -2.4702  0.6111  0.1079
22110SOL     OW73569  11.099   5.187  11.843 -0.3252 -0.3469  0.2357
22110SOL    HW173570  11.148   5.260  11.804 -1.6522  0.9232  0.8676
22110SOL    HW273571  11.129   5.110  11.795  1.4196  0.5350 -0.1845
22111SOL     OW73572   0.311   5.099   5.376 -0.6470 -0.4988 -0.1343
22111SOL    HW173573   0.286   5.037   5.444 -0.9033 -1.6111 -1.2025
22111SOL    HW273574   0.236   5.158   5.368  0.0926  0.8047  1.7603
22112SOL     OW73575  11.152  12.026  10.484 -0.2634 -0.1631 -0.1377
22112SOL    HW173576  11.076  12.041  10.541  0.1686 -3.7189  1.6758
22112SOL    HW273577  11.178  12.114  10.455 -2.4008  1.6081  2.7260
22113SOL     OW73578   5.867   2.175   7.346  1.3583  0.2946 -0.3772
22113SOL    HW173579   5.868   2.164   7.251 -0.0308 -1.4726 -0.2352
22113SOL    HW273580   5.793   2.233   7.363  0.3990 -0.9016 -0.2988
22114SOL     OW73581   8.103   5.939   1.539 -0.3787  0.2836 -0.0429
22114SOL    HW173582   8.092   5.874   1.469  0.6015  0.4294 -0.3473
22114SOL    HW273583   8.037   5.916   1.604 -0.2947 -0.7854 -0.3252
22115SOL     OW73584  11.054   6.227   1.315 -0.0585  0.2928 -0.0878
22115SOL    HW173585  11.012   6.313   1.310 -0.5004  0.1445  0.8556
22115SOL    HW273586  11.143   6.241   1.282 -1.1867  0.3340 -3.4663
22116SOL     OW73587  12.404  11.151   0.753 -0.1604 -0.4763  1.0779
22116SOL    HW173588  12.486  11.101   0.760 -0.8465 -1.6977  0.6674
22116SOL    HW273589  12.406  11.188   0.665 -0.5486 -1.4342  0.6563
22117SOL     OW73590  11.233   2.913   4.695 -0.8427  0.3311 -0.1423
22117SOL    HW173591  11.226   2.818   4.704 -2.0308  0.1900 -1.9543
22117SOL    HW273592  11.307   2.927   4.635 -1.7956  0.4060 -1.3455
22118SOL     OW73593   2.750  12.673   6.234  0.5334  0.6974 -0.0846
22118SOL    HW173594   2.748  12.748   6.294 -2.1033  0.6292  0.0301
22118SOL    HW273595   2.802  12.607   6.280 -0.4225  1.0776  1.6257
22119SOL     OW73596   0.156   5.750   3.164 -0.3037 -0.7334 -0.2795
22119SOL    HW173597   0.206   5.680   3.121  1.1385 -0.3368  0.6580
22119SOL    HW273598   0.187   5.749   3.254 -1.5800 -0.0394  0.1909
22120SOL     OW73599   6.159   3.449   3.541 -0.0485 -0.1195 -0.7237
22120SOL    HW173600   6.107   3.446   3.460 -1.1199 -0.6440 -0.0418
22120SOL    HW273601   6.100   3.414   3.608  0.6597  0.7294  0.3747
22121SOL     OW73602   8.643   1.443  11.658  0.5528  0.6006  0.2395
22121SOL    HW173603   8.557   1.438  11.701  0.6376  0.6237  0.4127
22121SOL    HW273604   8.655   1.356  11.620  0.8999  0.2667  1.0800
22122SOL     OW73605  12.681   7.998   7.982 -0.6301  0.0585  0.4739
22122SOL    HW173606  12.638   7.914   7.966 -1.4741  1.0386 -3.2069
22122SOL    HW273607  12.771   7.986   7.952 -0.7063  0.4154  0.0912
22123SOL     OW73608   3.542  12.655  11.541  0.2992  0.0377 -0.0203
22123SOL    HW173609   3.493  12.604  11.476 -1.8087  0.6013  1.0214
22123SOL    HW273610   3.531  12.746  11.513 -0.7128  0.2963  1.1015
22124SOL     OW73611   3.382  11.760   4.432 -0.3756 -0.6439 -0.2812
22124SOL    HW173612   3.307  11.747   4.491  0.2286 -0.7685  0.4785
22124SOL    HW273613   3.374  11.851   4.403 -0.5896 -0.5213  0.1386
22125SOL     OW73614   9.842   7.419   3.848 -0.2465  0.1326 -0.1757
22125SOL    HW173615   9.902   7.489   3.875  0.0163 -0.1200 -0.1000
22125SOL    HW273616   9.873   7.393   3.761 -0.7712  0.5843 -0.5079
22126SOL     OW73617   6.934   5.776   4.322  0.0707 -0.3187  0.0797
22126SOL    HW173618   6.931   5.767   4.417 -1.2158 -2.1920 -0.0868
22126SOL    HW273619   7.026   5.757   4.300  0.2847 -0.3008  0.9017
22127SOL     OW73620   0.656   1.288   2.843  0.4867 -0.1101  0.2381
22127SOL    HW173621   0.734   1.327   2.880 -0.8144  0.5165  2.5248
22127SOL    HW273622   0.681   1.198   2.822  2.1887  0.5069 -0.5331
22128SOL     OW73623  11.509  12.704   2.084  0.4252  0.1239  0.5224
22128SOL    HW173624  11.558  12.759   2.144  0.9353 -0.2355  0.4411
22128SOL    HW273625  11.519  12.746   1.999 -0.4520  0.7348  0.7108
22129SOL     OW73626   1.036   4.846  10.394 -0.0951  0.0223  0.0393
22129SOL    HW173627   1.025   4.753  10.370 -0.4583  0.4953 -1.8376
22129SOL    HW273628   1.063   4.844  10.485  0.5421 -1.9728 -0.1335
22130SOL     OW73629  11.800   4.849   0.034 -0.7511  0.5468  0.2285
22130SOL    HW173630  11.811   4.758   0.007 -0.6315  0.6499 -0.0749
22130SOL    HW273631  11.737   4.885  -0.028  0.3762  1.0928 -0.6474
22131SOL     OW73632   6.722  11.889   9.571 -0.0717  0.1487  0.6725
22131SOL    HW173633   6.660  11.844   9.629 -1.3784  1.3713  0.2840
22131SOL    HW273634   6.783  11.932   9.631 -0.0448 -0.4545  1.0873
22132SOL     OW73635   0.064   3.372   3.377 -0.8455 -0.0064 -0.3821
22132SOL    HW173636   0.003   3.434   3.336 -1.9674 -1.6228 -1.2875
22132SOL    HW273637   0.043   3.377   3.470 -2.1186 -0.2480 -0.6387
22133SOL     OW73638   7.287  10.707  10.793 -0.0073  0.3457  0.5461
22133SOL    HW173639   7.296  10.704  10.697 -1.9448  2.1377  0.2212
22133SOL    HW273640   7.345  10.778  10.820  0.6230 -0.2331  0.7371
22134SOL     OW73641  12.173  11.389   7.763  0.2907 -0.2957  0.2186
22134SOL    HW173642  12.227  11.328   7.712  0.0385  0.2903 -0.7990
22134SOL    HW273643  12.087  11.348   7.766 -0.0933  0.3419 -1.1630
22135SOL     OW73644   9.177   4.398   4.690 -0.3618  0.2484  0.0705
22135SOL    HW173645   9.172   4.347   4.771 -2.2135 -1.3453 -0.9619
22135SOL    HW273646   9.271   4.408   4.673  0.0573 -1.5851  1.0954
22136SOL     OW73647   5.578   2.627   0.935 -0.1250  0.0322  0.2777
22136SOL    HW173648   5.658   2.611   0.984 -0.5206  2.9552  2.1607
22136SOL    HW273649   5.508   2.599   0.994 -0.5466 -0.3003 -0.3698
22137SOL     OW73650  12.058   7.338   8.000  0.1766 -1.1078  0.0932
22137SOL    HW173651  12.010   7.258   8.021 -1.2664 -0.3327 -0.1219
22137SOL    HW273652  11.992   7.397   7.964  1.4413 -0.2360 -0.8779
22138SOL     OW73653   0.134  11.069  10.289  0.1593  0.0360  0.5794
22138SOL    HW173654   0.102  11.153  10.321 -1.1299  0.0416 -0.6114
22138SOL    HW273655   0.212  11.090  10.238  0.9204  0.2688  1.7905
22139SOL     OW73656   4.106   2.288   4.932 -0.6681  0.6154  0.6589
22139SOL    HW173657   4.032   2.303   4.872  0.1146  1.9145 -0.0293
22139SOL    HW273658   4.159   2.367   4.924  0.7495 -0.2529  1.2206
22140SOL     OW73659   1.233   6.344   5.158 -0.3292  0.0543  0.6569
22140SOL    HW173660   1.279   6.335   5.241 -0.2327 -0.0963  0.5873
22140SOL    HW273661   1.227   6.439   5.144  0.9795  0.0664  0.0998
22141SOL     OW73662   8.656   4.875   2.410 -0.7539 -0.0476 -0.0949
22141SOL    HW173663   8.606   4.883   2.329 -1.1080  0.7782  0.1999
22141SOL    HW273664   8.691   4.962   2.425  4.0556 -1.2449 -2.3146
22142SOL     OW73665   5.615   5.484   6.291 -0.1217 -0.4401  0.2463
22142SOL    HW173666   5.709   5.470   6.299  0.1482  0.7022 -0.6318
22142SOL    HW273667   5.607   5.574   6.259 -1.4749 -0.8485 -0.6437
22143SOL     OW73668   3.250   7.879   6.328 -0.2008  0.4879  0.0506
22143SOL    HW173669   3.194   7.881   6.405 -3.8690  0.4842 -2.3738
22143SOL    HW273670   3.250   7.788   6.300  1.4371  0.4121  0.1912
22144SOL     OW73671   0.569   6.457  10.903  0.0238  0.4717  0.5635
22144SOL    HW173672   0.572   6.399  10.827  0.0604 -0.6317  1.3790
22144SOL    HW273673   0.482   6.498  10.898  0.3864  1.1496 -0.5775
22145SOL     OW73674  12.699  11.037  11.749 -0.5444 -0.3853 -0.5680
22145SOL    HW173675  12.644  11.105  11.788 -0.7802 -0.4125 -0.8500
22145SOL    HW273676  12.746  11.082  11.679  0.4398 -0.1634  0.2220
22146SOL     OW73677   0.914   2.965  12.054 -0.1238  0.2360  0.4167
22146SOL    HW173678   0.984   3.023  12.023  0.4675 -0.3031  0.7275
22146SOL    HW273679   0.838   3.023  12.064  0.3712  0.8995  0.4080
22147SOL     OW73680   5.899   7.934   4.295  0.1850  0.0118  0.1062
22147SOL    HW173681   5.929   7.873   4.363  0.6866  0.2982  0.1419
22147SOL    HW273682   5.836   7.990   4.339  1.9485  1.4937  0.8799
22148SOL     OW73683   3.118  12.136  10.314  0.8081 -0.1094  0.4105
22148SOL    HW173684   3.076  12.202  10.259  0.6733  0.4027  1.1144
22148SOL    HW273685   3.162  12.077  10.253 -1.2150 -0.8822 -0.3964
22149SOL     OW73686   3.746   8.442   1.973 -0.1727 -0.3995 -0.3185
22149SOL    HW173687   3.779   8.359   1.940  1.3323  0.5594 -1.3507
22149SOL    HW273688   3.662   8.454   1.928  0.1469 -0.8179 -1.0335
22150SOL     OW73689   2.608   5.000   7.047 -0.0884  0.0410 -0.6687
22150SOL    HW173690   2.628   5.079   6.996 -0.0444  0.2926 -0.2705
22150SOL    HW273691   2.693   4.971   7.081 -0.1880  0.2031 -0.2735
22151SOL     OW73692   7.659   8.180   1.852  0.2801 -0.2450 -0.0027
22151SOL    HW173693   7.751   8.152   1.858  0.3151 -0.2366 -0.4401
22151SOL    HW273694   7.638   8.211   1.940 -0.1998 -3.0114  0.9642
22152SOL     OW73695   2.067  12.238   7.938  0.4581 -0.0563  0.3064
22152SOL    HW173696   2.098  12.195   8.018  0.6191 -0.0125  0.2688
22152SOL    HW273697   2.055  12.166   7.875  0.7085 -0.0488  0.2496
22153SOL     OW73698   0.620   4.137   0.376  0.5960 -0.2349 -0.1631
22153SOL    HW173699   0.601   4.230   0.361  0.8020 -0.0388  0.7659
22153SOL    HW273700   0.711   4.136   0.405  0.5723 -0.7253 -0.1043
22154SOL     OW73701   6.238  11.230  11.429  0.2860  0.3859  0.7253
22154SOL    HW173702   6.209  11.321  11.430 -0.1134  0.2588  1.4377
22154SOL    HW273703   6.161  11.180  11.457  0.6571 -0.1234  0.8475
22155SOL     OW73704   3.243   2.467  10.395  0.2690  0.5960  0.1355
22155SOL    HW173705   3.284   2.383  10.377 -2.0089 -0.4287 -0.5632
22155SOL    HW273706   3.253   2.478  10.490 -1.1786 -1.5120  0.6086
22156SOL     OW73707   8.358   1.104   2.609  0.1813 -0.1000  0.2061
22156SOL    HW173708   8.266   1.099   2.583  0.4223  0.7866 -0.8416
22156SOL    HW273709   8.358   1.070   2.699 -1.3464  0.9628  0.6547
22157SOL     OW73710  12.301   0.822   9.968 -0.6486 -0.2759  0.2239
22157SOL    HW173711  12.253   0.785  10.041 -0.2971  0.4075  0.8153
22157SOL    HW273712  12.345   0.747   9.927  0.8087 -0.4261  1.9662
22158SOL     OW73713   1.602   6.251   2.292  0.0103  0.6526  0.4250
22158SOL    HW173714   1.679   6.293   2.331  0.4579  0.4704 -0.2487
22158SOL    HW273715   1.570   6.193   2.360  0.9187  0.1671  0.4565
22159SOL     OW73716   0.356   5.951   8.460 -0.7916  0.1459  0.5612
22159SOL    HW173717   0.443   5.951   8.420 -0.5632 -1.2939  0.9733
22159SOL    HW273718   0.372   5.933   8.553 -1.5517 -1.0567  0.4915
22160SOL     OW73719   2.266  10.095   7.107 -0.4083 -0.2306 -0.5049
22160SOL    HW173720   2.256  10.137   7.193 -0.9056 -2.1893  0.4438
22160SOL    HW273721   2.195  10.132   7.054 -0.0125  1.0972 -0.1437
22161SOL     OW73722   2.352   8.674   6.141  0.0411 -0.3892  0.1422
22161SOL    HW173723   2.319   8.696   6.053  0.4969 -0.2060  0.0115
22161SOL    HW273724   2.383   8.758   6.176 -1.0616 -0.2713  0.8859
22162SOL     OW73725  12.621  10.540   0.695 -0.0090 -0.1842  0.6771
22162SOL    HW173726  12.677  10.580   0.628  0.5422 -0.0114  1.2299
22162SOL    HW273727  12.599  10.612   0.754  0.2023 -0.5067  1.1495
22163SOL     OW73728   2.494   8.109  12.636  0.4707 -0.2595 -0.3895
22163SOL    HW173729   2.547   8.050  12.690 -0.1475  0.7569  1.4184
22163SOL    HW273730   2.540   8.193  12.639 -0.4583  0.2564  0.0333
22164SOL     OW73731  11.534   4.087   6.593 -0.3561  0.2354  0.4961
22164SOL    HW173732  11.522   4.002   6.551  0.5434  0.5638 -0.4807
22164SOL    HW273733  11.445   4.121   6.604 -0.6707 -0.2772 -0.3060
22165SOL     OW73734  11.887  10.046  12.056 -0.6017 -0.5679  0.9188
22165SOL    HW173735  11.872  10.139  12.073 -0.3723 -0.2778 -0.3650
22165SOL    HW273736  11.850  10.002  12.132 -2.0603  0.4948  0.8723
22166SOL     OW73737  10.548  10.019   3.970 -0.4828 -0.1654 -0.1786
22166SOL    HW173738  10.630  10.068   3.984 -0.6721  0.1264 -0.0691
22166SOL    HW273739  10.570   9.953   3.905 -0.1001 -0.2385  0.0207
22167SOL     OW73740   5.158   8.012   4.275  0.1846  0.3108  0.1829
22167SOL    HW173741   5.093   8.013   4.205  0.7664 -0.1005 -0.3711
22167SOL    HW273742   5.109   7.985   4.352 -0.0739 -1.1932 -0.4790
22168SOL     OW73743  10.124   7.178  10.986 -0.3256  0.9429  0.1641
22168SOL    HW173744  10.134   7.099  10.933  0.4670  0.0118  1.6303
22168SOL    HW273745  10.154   7.249  10.930 -0.1978  0.0877 -0.8731
22169SOL     OW73746   1.800   5.990   0.710 -0.1713 -0.0332  0.5219
22169SOL    HW173747   1.841   5.918   0.663 -1.0061 -0.5570  0.5711
22169SOL    HW273748   1.707   5.967   0.712 -0.5203  1.2529  0.1502
22170SOL     OW73749   7.280  11.137   9.397 -0.0886 -0.6131 -0.1273
22170SOL    HW173750   7.200  11.134   9.449 -0.6601 -1.6615 -1.0226
22170SOL    HW273751   7.350  11.112   9.458 -0.8058 -2.2637  0.0504
22171SOL     OW73752   9.990   5.210   8.899 -0.0856  0.5200  0.3502
22171SOL    HW173753   9.931   5.202   8.824 -1.0357 -0.3797  1.1661
22171SOL    HW273754   9.965   5.293   8.941  1.3436  1.7197 -1.0280
22172SOL     OW73755  11.452   4.542   1.040  0.1433 -0.1988 -0.1132
22172SOL    HW173756  11.484   4.471   1.095  0.7640 -0.4412 -0.7615
22172SOL    HW273757  11.514   4.614   1.054  0.2631 -0.2363 -0.4311
22173SOL     OW73758   8.874  11.618   2.523 -0.9364  0.1623 -0.4952
22173SOL    HW173759   8.955  11.645   2.566 -1.5877  1.7091 -0.1833
22173SOL    HW273760   8.888  11.526   2.501  0.3799  0.0275  0.7656
22174SOL     OW73761  11.089  11.115   4.242  0.0601 -0.0399  0.7700
22174SOL    HW173762  11.096  11.102   4.147 -0.3460  2.3543  0.3587
22174SOL    HW273763  10.997  11.138   4.255 -0.4251 -2.4279  2.0916
22175SOL     OW73764   9.798   0.596   6.793  0.6694 -0.3850 -0.2051
22175SOL    HW173765   9.793   0.644   6.876  1.5771 -1.1330  0.3060
22175SOL    HW273766   9.734   0.526   6.803 -1.9755  1.6410 -1.6522
22176SOL     OW73767  12.499   0.192   3.291  0.5115 -0.7347  0.1376
22176SOL    HW173768  12.508   0.192   3.195  2.3467 -1.4534  0.2781
22176SOL    HW273769  12.477   0.283   3.312 -2.1664 -1.0081 -1.1014
22177SOL     OW73770  10.356   9.664   4.848  0.0082  0.1155 -0.1931
22177SOL    HW173771  10.373   9.610   4.771 -1.9470 -1.8336  0.6429
22177SOL    HW273772  10.281   9.623   4.890  1.0591  1.0489  2.8213
22178SOL     OW73773   6.154   2.004   5.386 -0.2209 -0.0601 -0.0130
22178SOL    HW173774   6.240   1.966   5.371 -0.8443 -0.8674 -1.8027
22178SOL    HW273775   6.100   1.931   5.418 -0.4280  0.2778  0.4287
22179SOL     OW73776  10.301   6.541   4.101 -0.4561 -0.5239  0.0267
22179SOL    HW173777  10.223   6.595   4.085  0.7178  1.0618 -0.6812
22179SOL    HW273778  10.328   6.563   4.190 -0.4299 -0.5556  0.0270
22180SOL     OW73779   1.392   4.335   5.836 -0.1333 -0.7678 -0.9301
22180SOL    HW173780   1.360   4.251   5.868 -2.0920  0.7378  1.4529
22180SOL    HW273781   1.450   4.367   5.905  0.8483 -0.2627 -1.9531
22181SOL     OW73782  12.112   1.702   2.929 -0.7669  0.7282  0.0240
22181SOL    HW173783  12.188   1.664   2.973 -0.0579  1.1482 -0.7804
22181SOL    HW273784  12.044   1.706   2.996  0.0367  0.6658  0.8694
22182SOL     OW73785   6.132   5.768   5.603 -0.7058  0.1977 -0.1620
22182SOL    HW173786   6.052   5.819   5.590 -1.2338 -0.4252  0.5584
22182SOL    HW273787   6.156   5.785   5.694  0.7609  1.4505 -0.7449
22183SOL     OW73788   8.204   7.099   1.517 -0.0784 -0.0652  0.1437
22183SOL    HW173789   8.167   7.170   1.464  2.1463 -0.2052 -1.7579
22183SOL    HW273790   8.233   7.142   1.597 -1.0417  0.6728  0.1219
22184SOL     OW73791   4.755   2.422   1.799  0.5895  0.2882  0.0664
22184SOL    HW173792   4.736   2.361   1.727  4.0322 -1.6523  0.6022
22184SOL    HW273793   4.824   2.479   1.764  0.9744  0.5528  1.2218
22185SOL     OW73794   3.558  10.934  12.297  1.0685 -0.4612  0.3717
22185SOL    HW173795   3.562  11.028  12.314  1.5782 -0.6366  1.3125
22185SOL    HW273796   3.556  10.893  12.384 -2.5414 -1.2504  0.0644
22186SOL     OW73797   3.038   8.470   7.686  0.0812 -0.6993 -0.5081
22186SOL    HW173798   3.084   8.428   7.759 -0.6926  0.0411  0.4421
22186SOL    HW273799   3.087   8.551   7.671 -2.4071  1.6212  2.4959
22187SOL     OW73800   5.039   1.144   8.483  0.1896 -0.3310 -0.3893
22187SOL    HW173801   5.020   1.128   8.390  0.8069  1.2599 -0.8283
22187SOL    HW273802   5.083   1.229   8.484  0.0672 -0.2495  1.3907
22188SOL     OW73803  10.243   8.488   5.741 -0.0218 -0.6804 -0.0086
22188SOL    HW173804  10.161   8.505   5.789 -1.0461  0.5615 -2.0273
22188SOL    HW273805  10.220   8.503   5.649  2.6309  0.3522 -0.6014
22189SOL     OW73806   8.682   2.201   7.195  0.3806  0.4637  0.4089
22189SOL    HW173807   8.656   2.131   7.135  2.3050  0.3058 -0.3112
22189SOL    HW273808   8.606   2.214   7.251 -0.3644 -1.5749 -0.0365
22190SOL     OW73809   6.459  11.046  10.968  0.2996  0.1170 -0.2634
22190SOL    HW173810   6.444  11.048  10.873  0.5724 -1.9889 -0.4152
22190SOL    HW273811   6.390  10.989  11.001  1.5722 -1.0937  0.4429
22191SOL     OW73812   9.313   0.091  11.535  0.1149 -0.2065  0.6442
22191SOL    HW173813   9.264   0.099  11.617 -0.9790 -1.7437  0.1886
22191SOL    HW273814   9.249   0.107  11.466  0.8206  0.1876  0.0640
22192SOL     OW73815  10.072   8.526  11.578  0.2581 -0.1055  0.4395
22192SOL    HW173816  10.045   8.596  11.637 -0.4919  1.2427 -1.3930
22192SOL    HW273817   9.994   8.473  11.564  0.1814  0.1190 -0.0210
22193SOL     OW73818   7.032   6.335   7.416  0.1871 -0.5665 -0.4494
22193SOL    HW173819   7.061   6.331   7.507 -1.7522 -0.7816  0.1944
22193SOL    HW273820   7.070   6.417   7.383  0.0282  0.0700  0.8728
22194SOL     OW73821   4.480   3.131  11.557  0.2912 -0.4301  0.1700
22194SOL    HW173822   4.496   3.222  11.532 -1.5288  0.1438  0.8904
22194SOL    HW273823   4.393   3.133  11.598  0.4144 -2.4189  0.6159
22195SOL     OW73824   2.639  11.897   1.758 -0.1399  0.3592 -0.1526
22195SOL    HW173825   2.658  11.813   1.799  0.0182  0.9466  0.9983
22195SOL    HW273826   2.544  11.907   1.763 -0.3400 -0.4330 -1.6907
22196SOL     OW73827  11.390   9.555  10.994 -0.0956  0.2076 -0.3349
22196SOL    HW173828  11.352   9.642  11.007  0.9282  0.4774  1.1383
22196SOL    HW273829  11.317   9.495  11.003 -0.8432  0.8998 -1.4916
22197SOL     OW73830  12.265   7.391  12.604 -0.6425 -0.0769  0.4757
22197SOL    HW173831  12.185   7.415  12.557 -0.5833  1.7024  1.2061
22197SOL    HW273832  12.244   7.306  12.644 -2.6895  0.9360  1.7287
22198SOL     OW73833   0.336   4.718   5.399  0.5128 -1.1184 -0.0856
22198SOL    HW173834   0.260   4.777   5.404 -0.0894 -1.9387  3.3302
22198SOL    HW273835   0.323   4.657   5.472  3.2628 -2.8333 -0.8961
22199SOL     OW73836  10.516   3.529   3.775 -0.2816  0.3131  0.5344
22199SOL    HW173837  10.527   3.592   3.846  0.0842 -0.8825  1.5693
22199SOL    HW273838  10.426   3.543   3.744 -0.1251  1.4921  0.5754
22200SOL     OW73839   9.765   0.259   7.417 -0.2690  0.0278 -0.2860
22200SOL    HW173840   9.725   0.241   7.332 -0.5554 -0.1173 -0.1200
22200SOL    HW273841   9.833   0.193   7.425  0.2928  0.5334 -0.7551
22201SOL     OW73842   4.473   5.873   5.844  0.1785  0.9748  0.3895
22201SOL    HW173843   4.380   5.856   5.858 -0.0503  0.2673 -1.5805
22201SOL    HW273844   4.481   5.969   5.848 -0.5177  1.0063  1.1601
22202SOL     OW73845   5.123   9.618   7.350  1.0384  0.6623 -0.3966
22202SOL    HW173846   5.080   9.545   7.304 -1.6158  2.5591 -1.1797
22202SOL    HW273847   5.152   9.676   7.280 -0.6095  2.2943  0.2087
22203SOL     OW73848   3.832   5.772   4.695 -0.1041  0.5323  0.2483
22203SOL    HW173849   3.816   5.743   4.785 -1.7866 -0.0190 -0.1841
22203SOL    HW273850   3.918   5.737   4.673 -0.1219 -0.2064  1.2987
22204SOL     OW73851   9.526   2.151   4.501  0.2698  0.2383  0.1377
22204SOL    HW173852   9.513   2.246   4.492 -0.4230  0.1275 -0.1099
22204SOL    HW273853   9.620   2.141   4.512  0.5880  0.8158 -1.6755
22205SOL     OW73854   4.696   9.804   8.056 -0.2244 -0.4701 -0.0564
22205SOL    HW173855   4.763   9.843   8.000  1.6610 -1.6521  1.2761
22205SOL    HW273856   4.680   9.870   8.124  0.4961 -0.6711  0.3120
22206SOL     OW73857   7.271   2.815  11.401 -0.0770  0.1563  0.2538
22206SOL    HW173858   7.240   2.882  11.340  1.4431  0.4463 -0.2587
22206SOL    HW273859   7.205   2.746  11.397  0.0598  0.0783 -1.9174
22207SOL     OW73860   8.700   8.523  10.091 -0.4273 -0.7156  0.3303
22207SOL    HW173861   8.740   8.610  10.095 -1.3824 -0.2832  0.6521
22207SOL    HW273862   8.775   8.463  10.089  0.2464  0.1141 -0.1823
22208SOL     OW73863   0.844   0.001   7.106  0.3406  0.2132 -0.0957
22208SOL    HW173864   0.847   0.035   7.016  1.4774 -1.3180 -0.6973
22208SOL    HW273865   0.825   0.077   7.160 -1.4119  1.0052 -1.7125
22209SOL     OW73866   5.106  10.725   8.024  0.0739  0.5237 -0.3846
22209SOL    HW173867   5.094  10.647   8.078 -2.4512  0.6515 -0.6689
22209SOL    HW273868   5.097  10.694   7.934  1.0917  0.8343 -0.6032
22210SOL     OW73869   7.896   7.358   9.021  0.1643 -0.0132  0.3198
22210SOL    HW173870   7.920   7.271   9.052  0.2993  0.1402  0.6560
22210SOL    HW273871   7.972   7.388   8.972 -0.5726 -0.8184 -1.3852
22211SOL     OW73872  10.282   9.852  11.279 -0.3442  0.5388  0.7289
22211SOL    HW173873  10.201   9.800  11.276 -0.0293  0.0587  0.1741
22211SOL    HW273874  10.268   9.922  11.215  0.4792 -0.8021 -1.0352
22212SOL     OW73875   5.044   7.020   1.687  0.0646 -0.3515 -0.2832
22212SOL    HW173876   4.981   6.959   1.648  0.9089  0.0058 -2.3601
22212SOL    HW273877   5.006   7.044   1.771 -2.1382 -0.8132 -1.0839
22213SOL     OW73878   9.741   1.616   0.940 -0.2434  0.4681  0.0780
22213SOL    HW173879   9.818   1.613   0.882  1.1053  1.2259  1.7385
22213SOL    HW273880   9.750   1.537   0.995 -0.2409  0.9219  0.7417
22214SOL     OW73881   3.861   9.846   0.089 -0.2904 -0.2559 -0.2664
22214SOL    HW173882   3.956   9.848   0.099 -0.3579 -1.1675  0.8187
22214SOL    HW273883   3.829   9.816   0.175 -1.6189  1.0928 -0.2417
22215SOL     OW73884   9.070   7.419   6.344  0.4892 -0.4107 -0.6503
22215SOL    HW173885   9.160   7.407   6.313  0.7591  0.9833 -0.4820
22215SOL    HW273886   9.078   7.420   6.440  0.3447  0.0242 -0.6410
22216SOL     OW73887   1.761  11.463   5.798  0.0531 -0.2169  0.2711
22216SOL    HW173888   1.830  11.446   5.862  0.2914  0.4374  0.1963
22216SOL    HW273889   1.798  11.433   5.715 -0.2930 -1.1553  0.4401
22217SOL     OW73890   8.342   0.402   3.144 -0.1620 -0.5171 -0.8717
22217SOL    HW173891   8.344   0.438   3.055 -0.8053  0.1870 -0.6102
22217SOL    HW273892   8.327   0.308   3.131  1.8807 -0.7894 -1.5689
22218SOL     OW73893  10.882  12.549   7.213  0.1715  0.1619  0.0454
22218SOL    HW173894  10.898  12.640   7.239 -2.0275  0.2891  1.1830
22218SOL    HW273895  10.864  12.554   7.119  1.2070  0.7104 -0.1457
22219SOL     OW73896   5.031  10.696   3.192 -0.0506 -0.3730 -0.3981
22219SOL    HW173897   4.984  10.757   3.248 -0.2064  0.1702 -1.1157
22219SOL    HW273898   5.000  10.610   3.220  1.2640 -0.2593  1.6429
22220SOL     OW73899   1.847  10.094   4.292 -0.7776  0.2511  0.6466
22220SOL    HW173900   1.771  10.119   4.345 -2.1863 -1.4540 -0.4575
22220SOL    HW273901   1.865  10.171   4.238 -0.5007  1.3392  2.2162
22221SOL     OW73902   7.192   6.346   1.159 -0.6412 -0.1664  0.1958
22221SOL    HW173903   7.228   6.412   1.100 -0.0008 -1.1244 -0.5149
22221SOL    HW273904   7.269   6.295   1.187 -0.9933 -0.0152  1.5052
22222SOL     OW73905   4.614   9.128  11.389  0.5350  0.1760 -0.6509
22222SOL    HW173906   4.612   9.193  11.320  1.6553  0.1733 -0.7072
22222SOL    HW273907   4.681   9.159  11.450  0.7427 -0.6641 -0.4294
22223SOL     OW73908   0.539   9.549   3.338  0.1069 -0.3088  0.4648
22223SOL    HW173909   0.588   9.494   3.400  0.1493 -0.9187 -0.1018
22223SOL    HW273910   0.549   9.505   3.254  0.0129  0.4932  0.0266
22224SOL     OW73911   9.314   7.720   8.702 -0.3430 -0.3031  0.6393
22224SOL    HW173912   9.268   7.671   8.633  0.2926 -0.2303  0.1630
22224SOL    HW273913   9.358   7.652   8.753 -0.4293 -0.3174  0.6950
22225SOL     OW73914   9.348   8.609   3.148 -0.2089 -0.1576  0.4121
22225SOL    HW173915   9.358   8.671   3.075 -2.0041  0.4798  0.6554
22225SOL    HW273916   9.285   8.651   3.206  0.2901 -1.1969  1.7618
22226SOL     OW73917   3.954   8.351   7.794  0.4845 -0.5854 -0.5600
22226SOL    HW173918   3.971   8.414   7.724  2.8144  0.2943  0.6585
22226SOL    HW273919   3.986   8.268   7.761 -0.9779 -0.7892 -1.5252
22227SOL     OW73920   5.660   7.400   3.321 -0.3128 -0.1977  0.7993
22227SOL    HW173921   5.570   7.394   3.352  0.0059  0.8553  2.0114
22227SOL    HW273922   5.675   7.493   3.305  0.0767 -0.5212 -0.9825
22228SOL     OW73923   6.691   1.148   0.979 -0.5414  0.0774  0.4689
22228SOL    HW173924   6.770   1.133   0.927 -1.3644  0.0254 -0.7933
22228SOL    HW273925   6.723   1.189   1.059  0.8788 -0.8992  0.4472
22229SOL     OW73926   4.854   2.663   4.246  0.5836  0.3074  0.0387
22229SOL    HW173927   4.945   2.644   4.268  0.1573 -1.0127  0.7360
22229SOL    HW273928   4.812   2.577   4.241 -0.1710  0.7367 -2.3898
22230SOL     OW73929   8.730   8.431  12.562 -0.2134  0.2432 -0.1834
22230SOL    HW173930   8.801   8.465  12.616  0.5707 -0.5648 -0.6783
22230SOL    HW273931   8.655   8.424  12.621  0.4022  0.1444  0.5959
22231SOL     OW73932   0.638   9.577   2.719 -0.2288 -0.3664 -0.0389
22231SOL    HW173933   0.632   9.651   2.780  1.4169 -1.3056  1.3618
22231SOL    HW273934   0.572   9.515   2.749 -0.4917 -0.1654 -0.1983
22232SOL     OW73935   7.801   4.726   1.646  0.4916 -0.2166 -0.0021
22232SOL    HW173936   7.856   4.648   1.642 -0.2556 -0.8430  1.4861
22232SOL    HW273937   7.712   4.694   1.630  0.2939  0.4831 -0.3624
22233SOL     OW73938   0.992   1.599   8.683  0.2639 -0.1627 -0.8222
22233SOL    HW173939   0.926   1.666   8.700 -0.0578 -0.5350 -0.5772
22233SOL    HW273940   1.066   1.647   8.646  0.1318  0.3612 -0.4251
22234SOL     OW73941   4.958   3.333   1.433  0.1111  0.5220 -0.7068
22234SOL    HW173942   4.979   3.240   1.430  0.7947  0.6717 -0.8173
22234SOL    HW273943   5.032   3.372   1.480 -1.4448  0.6561  1.8156
22235SOL     OW73944  11.626  11.599   8.608 -0.5815  0.0307 -0.0353
22235SOL    HW173945  11.630  11.677   8.554 -0.0597 -0.9699 -1.5068
22235SOL    HW273946  11.598  11.630   8.694  0.2017  1.8952 -0.4241
22236SOL     OW73947   3.639  10.719  11.102 -0.1581 -0.0703  0.0996
22236SOL    HW173948   3.679  10.632  11.098  0.2779  0.1169  0.3209
22236SOL    HW273949   3.713  10.779  11.103 -0.4085  0.2495  1.4876
22237SOL     OW73950   8.556  11.449   2.646  0.1154  0.2836 -0.7304
22237SOL    HW173951   8.546  11.527   2.702 -1.3552 -0.6314  0.3645
22237SOL    HW273952   8.538  11.481   2.558  0.6436  1.4065 -0.4492
22238SOL     OW73953   5.826  12.264   2.084  0.7985 -0.0667  0.4916
22238SOL    HW173954   5.853  12.247   1.994 -1.4505 -0.8498 -0.1022
22238SOL    HW273955   5.749  12.321   2.076  1.0257  0.4847  1.9522
22239SOL     OW73956   1.469   6.053   5.325 -0.2845 -0.3272 -0.3593
22239SOL    HW173957   1.473   6.034   5.232  0.9471  1.4189 -0.7072
22239SOL    HW273958   1.471   6.149   5.331 -0.0045 -0.3986  1.4628
22240SOL     OW73959   5.437   1.114  11.360  0.9392 -0.9259 -0.5067
22240SOL    HW173960   5.357   1.113  11.309 -0.1968 -0.7329  1.1977
22240SOL    HW273961   5.438   1.029  11.405  1.5144 -0.7825 -0.2342
22241SOL     OW73962   4.355   4.426   9.037 -0.0379  0.1083  0.4417
22241SOL    HW173963   4.282   4.400   9.094  0.4881 -2.2045  0.1810
22241SOL    HW273964   4.433   4.398   9.085  0.4033 -2.2062 -1.4508
22242SOL     OW73965   4.657   1.701   3.888 -0.3996  0.1815  0.6240
22242SOL    HW173966   4.670   1.614   3.852  0.1510  0.2788  0.5731
22242SOL    HW273967   4.604   1.747   3.823 -0.0471  0.1229  0.2916
22243SOL     OW73968   1.033   4.348   6.295  0.3259 -0.3713 -0.2561
22243SOL    HW173969   0.944   4.382   6.306  0.3868 -0.0371 -0.7247
22243SOL    HW273970   1.026   4.255   6.314 -0.0663 -0.2939 -0.0047
22244SOL     OW73971   2.651  10.621   7.091  0.1517 -0.0643  0.0789
22244SOL    HW173972   2.588  10.683   7.126  1.2709  1.4723 -0.5047
22244SOL    HW273973   2.606  10.581   7.016 -0.2055  0.8801 -0.2267
22245SOL     OW73974   6.743   3.451   9.487 -0.2585  0.1001 -0.7348
22245SOL    HW173975   6.663   3.432   9.536  1.9839 -1.3678  2.7790
22245SOL    HW273976   6.784   3.366   9.473  2.7021  0.9050  1.6445
22246SOL     OW73977  10.598   8.663   9.881 -0.2114  0.2410  0.0262
22246SOL    HW173978  10.595   8.594   9.815 -0.3386  0.0845  0.1974
22246SOL    HW273979  10.530   8.725   9.855  1.6199  1.7140 -1.6919
22247SOL     OW73980   3.605  12.525  10.184 -0.3236 -0.0719  0.1374
22247SOL    HW173981   3.585  12.515  10.277 -2.3670 -0.7785 -0.3372
22247SOL    HW273982   3.657  12.448  10.163 -0.2758 -0.1639  0.5742
22248SOL     OW73983   4.728   9.217  11.648  0.3039 -0.2504 -0.2537
22248SOL    HW173984   4.793   9.176  11.705  0.8679  0.3111 -0.4787
22248SOL    HW273985   4.778   9.283  11.599 -0.4135  0.1034 -0.5152
22249SOL     OW73986   2.716   8.850   8.188 -0.3127  0.0070 -0.3524
22249SOL    HW173987   2.690   8.914   8.254  1.0103  1.1072 -0.8579
22249SOL    HW273988   2.635   8.825   8.145 -0.8845  1.2042 -0.0062
22250SOL     OW73989   2.280   7.736  12.656 -0.1156  0.1324  0.1508
22250SOL    HW173990   2.281   7.642  12.676  2.0351  0.1114  0.2066
22250SOL    HW273991   2.286   7.779  12.742 -1.3824  0.3576  0.1456
22251SOL     OW73992   5.331   6.273   3.004  0.0730 -0.3201  0.2007
22251SOL    HW173993   5.405   6.242   3.056  0.0942 -1.9809 -0.7346
22251SOL    HW273994   5.361   6.357   2.967  0.6233  0.1153  1.5778
22252SOL     OW73995   3.033   8.298  12.019  0.7158  0.2775  0.5887
22252SOL    HW173996   3.102   8.312  12.084  1.9317  1.3037 -0.8425
22252SOL    HW273997   2.980   8.378  12.022  1.2291  0.6580 -0.1742
22253SOL     OW73998   5.668  12.079   9.672  0.3527 -0.4157 -0.2498
22253SOL    HW173999   5.582  12.095   9.632 -0.1911 -0.5451  0.8216
22253SOL    HW274000   5.728  12.075   9.598 -0.9825 -3.3376 -1.3423
22254SOL     OW74001  10.901   8.535  10.259  0.3138  0.8998  0.1590
22254SOL    HW174002  10.974   8.495  10.211  0.6457 -1.0690  2.1665
22254SOL    HW274003  10.846   8.573  10.190  2.1216  0.6116 -1.5647
22255SOL     OW74004   5.562   3.583  11.839 -0.0140 -0.4064  0.0246
22255SOL    HW174005   5.513   3.665  11.852 -0.5482 -0.8582  1.0720
22255SOL    HW274006   5.494   3.519  11.817  0.3226 -0.6950 -0.1673
22256SOL     OW74007  10.756  12.583   0.161  0.1561  1.1734  0.0034
22256SOL    HW174008  10.847  12.610   0.172  0.1280  0.8625  1.0550
22256SOL    HW274009  10.713  12.660   0.124  0.6057  1.7284  0.6122
22257SOL     OW74010   8.949   7.400   7.316 -0.3047  0.1625 -0.3475
22257SOL    HW174011   8.916   7.323   7.363 -0.2361  0.0264 -0.5205
22257SOL    HW274012   8.894   7.472   7.347 -0.2870  0.0671 -0.0895
22258SOL     OW74013   5.917  10.025  11.804 -0.0360  0.1409  0.0697
22258SOL    HW174014   5.979  10.031  11.876  1.9253 -0.2427 -1.5208
22258SOL    HW274015   5.969  10.038  11.726 -1.8966 -0.6568 -1.3784
22259SOL     OW74016   7.115   8.704   1.059 -0.0433  0.4187 -0.3961
22259SOL    HW174017   7.178   8.697   1.131 -0.0565 -1.1407 -0.5109
22259SOL    HW274018   7.168   8.733   0.985  0.6568 -1.2560 -0.5904
22260SOL     OW74019   8.128   7.073   0.582 -0.4208 -0.1569 -0.3059
22260SOL    HW174020   8.071   7.001   0.554 -0.8498 -0.3830  1.0628
22260SOL    HW274021   8.145   7.055   0.674  0.0740  1.1107 -0.1340
22261SOL     OW74022   0.611   9.823   3.972  0.5610  0.2010  0.3680
22261SOL    HW174023   0.565   9.904   3.952  0.4599  0.3073  1.0028
22261SOL    HW274024   0.542   9.763   4.001  0.6499 -0.0754  0.0097
22262SOL     OW74025   7.860   1.967   7.366 -0.6640 -0.4331 -0.2198
22262SOL    HW174026   7.883   1.896   7.426 -2.0760  0.3069  1.2904
22262SOL    HW274027   7.813   1.923   7.295 -1.0279 -1.0947  0.4107
22263SOL     OW74028   9.985   5.802   3.086  0.1827  0.2572 -0.5966
22263SOL    HW174029  10.020   5.868   3.147  1.8342  0.2062 -1.4179
22263SOL    HW274030   9.960   5.729   3.142 -0.9893  1.2726  0.2658
22264SOL     OW74031   0.640   6.704   7.018 -0.2600  0.2531 -0.2495
22264SOL    HW174032   0.669   6.792   7.044  0.6066  0.0689 -0.5741
22264SOL    HW274033   0.694   6.645   7.070 -1.3437 -0.0931  0.5027
22265SOL     OW74034   6.032   1.035   9.195 -0.2622  0.0627 -0.0336
22265SOL    HW174035   6.077   1.038   9.111 -0.1757  1.1081  0.0355
22265SOL    HW274036   6.033   0.942   9.219  0.6922 -0.1094 -0.6568
22266SOL     OW74037   9.181  12.610   5.068 -0.5602  0.4184  0.1595
22266SOL    HW174038   9.267  12.648   5.083  0.0034 -0.9801  0.6769
22266SOL    HW274039   9.143  12.662   4.997 -0.1305  2.3357  1.2652
22267SOL     OW74040   0.304   3.362   9.179 -0.0048  0.2355 -0.2730
22267SOL    HW174041   0.275   3.425   9.112 -0.2144  0.7966  0.3378
22267SOL    HW274042   0.358   3.300   9.131 -1.0030  0.0277 -1.1686
22268SOL     OW74043   4.781   9.684   6.246  0.2929 -0.0902 -0.1090
22268SOL    HW174044   4.866   9.661   6.282  0.1079  0.4746  0.7156
22268SOL    HW274045   4.733   9.722   6.319 -0.9388 -1.0666 -0.3722
22269SOL     OW74046  10.732  10.437   0.589 -0.2348 -0.0153 -0.0354
22269SOL    HW174047  10.765  10.447   0.678 -1.6260  0.2499  0.4780
22269SOL    HW274048  10.665  10.505   0.580 -1.0327 -0.8613 -0.8203
22270SOL     OW74049   5.011   1.725   8.674 -0.1356 -0.0759  0.4226
22270SOL    HW174050   5.069   1.774   8.616 -0.4729 -0.1648  0.0015
22270SOL    HW274051   4.952   1.679   8.615 -1.4215  0.9569  0.8514
22271SOL     OW74052  12.625   9.374   5.017  0.3644 -0.9542 -0.1661
22271SOL    HW174053  12.703   9.417   4.982 -0.2209  0.5351  0.2556
22271SOL    HW274054  12.626   9.396   5.111 -2.3490  2.2307 -0.6886
22272SOL     OW74055   1.578  10.356   8.493 -0.0757  0.2441  0.3125
22272SOL    HW174056   1.537  10.437   8.465  0.9016  0.3929 -0.8284
22272SOL    HW274057   1.538  10.288   8.438 -0.6071  0.0123  0.9819
22273SOL     OW74058  11.187  10.075   3.766 -0.0667 -0.9928 -0.0515
22273SOL    HW174059  11.199  10.114   3.852  0.6002 -3.4690  1.0462
22273SOL    HW274060  11.093  10.082   3.750  0.1319  2.2027 -0.5829
22274SOL     OW74061  12.326   9.220   3.153  0.0488 -0.0682  0.0290
22274SOL    HW174062  12.405   9.252   3.110  0.5198 -0.8212  0.3176
22274SOL    HW274063  12.356   9.183   3.236 -0.2291 -2.4752 -0.8440
22275SOL     OW74064   5.198  11.993   4.691  0.4744  0.1204  0.3585
22275SOL    HW174065   5.201  11.985   4.787 -0.1724  1.5641  0.5150
22275SOL    HW274066   5.277  11.948   4.661  1.6920  1.2978  1.6901
22276SOL     OW74067   5.832   5.531   0.985  0.5254 -0.0226 -0.4294
22276SOL    HW174068   5.860   5.507   1.074  0.5021 -0.1135 -0.4470
22276SOL    HW274069   5.886   5.607   0.963  0.0462  0.4315 -0.0678
22277SOL     OW74070   2.904   1.407   5.119  0.2304  0.3922  0.5830
22277SOL    HW174071   2.874   1.480   5.066 -0.9463  1.2978  2.4078
22277SOL    HW274072   2.979   1.441   5.168  1.3764 -0.4654 -0.5017
22278SOL     OW74073   8.074   5.253   4.188 -0.0399 -0.4133  0.1620
22278SOL    HW174074   8.086   5.202   4.268 -0.1657 -1.7721 -0.6683
22278SOL    HW274075   8.010   5.320   4.213 -0.1358 -0.8540  1.1762
22279SOL     OW74076   5.050   1.687   2.937  0.1192 -0.2817 -0.3759
22279SOL    HW174077   5.119   1.621   2.938  0.5603  0.1626  1.1325
22279SOL    HW274078   5.059   1.730   2.852  0.2978 -1.6476 -1.0692
22280SOL     OW74079   3.822   9.951   2.377  0.3075 -0.2334  0.0217
22280SOL    HW174080   3.758   9.999   2.429  0.0255  0.6532 -1.1027
22280SOL    HW274081   3.859   9.887   2.438 -0.9498 -0.1201  0.9440
22281SOL     OW74082   0.670   4.400   5.439 -0.4701  0.0718 -0.3056
22281SOL    HW174083   0.646   4.420   5.348  0.7786 -1.1130 -0.9454
22281SOL    HW274084   0.589   4.368   5.478 -0.9691  0.3388 -1.0827
22282SOL     OW74085  10.802  10.629   2.051  0.1344 -0.4473 -0.0656
22282SOL    HW174086  10.804  10.604   2.144 -0.0033  0.0309  0.0663
22282SOL    HW274087  10.760  10.714   2.050 -3.0028 -1.8548 -0.8817
22283SOL     OW74088  10.067   4.398   2.386 -0.2281 -0.4033 -0.0570
22283SOL    HW174089  10.059   4.400   2.482  0.9584 -1.5051  0.0937
22283SOL    HW274090  10.133   4.330   2.369 -0.0036  0.1705 -1.6317
22284SOL     OW74091  10.686   7.009   6.934  0.0299 -0.2432  0.4525
22284SOL    HW174092  10.779   7.000   6.954  0.3179 -0.6251 -0.9193
22284SOL    HW274093  10.680   6.993   6.839 -1.1945  1.5831  0.1787
22285SOL     OW74094   3.149  12.258   6.514  0.1900 -0.0522 -0.3885
22285SOL    HW174095   3.177  12.193   6.579 -1.6517  1.2636  1.8486
22285SOL    HW274096   3.220  12.322   6.513  0.3585 -0.2255  0.1305
22286SOL     OW74097  10.098   0.377   3.779 -0.7735 -0.6366  0.0038
22286SOL    HW174098  10.159   0.410   3.844  1.0639  0.0264 -1.9260
22286SOL    HW274099  10.095   0.283   3.793 -1.2758 -0.3923  1.6877
22287SOL     OW74100   9.032   2.894  10.216  0.8568  0.4044 -0.3028
22287SOL    HW174101   9.064   2.804  10.221  0.0985  0.1400  0.0463
22287SOL    HW274102   8.939   2.887  10.237  1.1993  1.5291  1.9009
22288SOL     OW74103   2.783   3.399   0.971 -0.4651 -0.1765  0.2982
22288SOL    HW174104   2.758   3.484   1.007 -1.5751 -0.8116  1.1028
22288SOL    HW274105   2.861   3.373   1.020 -0.1167  0.3767  0.0408
22289SOL     OW74106  10.911   3.148   0.195  0.4052 -0.0535  0.0698
22289SOL    HW174107  10.863   3.149   0.278 -0.8175 -0.6069 -0.6053
22289SOL    HW274108  10.976   3.079   0.206  0.4318  0.0634  0.6609
22290SOL     OW74109   5.594   1.580   8.615 -0.4786  0.2873 -0.2180
22290SOL    HW174110   5.607   1.653   8.554 -1.5370  0.1428 -0.6439
22290SOL    HW274111   5.621   1.503   8.565  0.4322  0.3608  0.1548
22291SOL     OW74112  10.356   0.686  12.677 -0.3978  0.0110 -0.2176
22291SOL    HW174113  10.310   0.759  12.637  0.4462  1.4831  1.3495
22291SOL    HW274114  10.322   0.683  12.767 -0.0019 -1.1592 -0.0903
22292SOL     OW74115   2.232   8.236   5.900  0.1238 -0.1702 -0.0942
22292SOL    HW174116   2.211   8.165   5.960 -2.6235  0.7101  0.1465
22292SOL    HW274117   2.147   8.262   5.863  1.3918  1.0795 -2.3525
22293SOL     OW74118  10.969   6.578  10.398 -0.4940 -0.2569 -0.3430
22293SOL    HW174119  10.967   6.547  10.308  1.6541 -1.4280 -0.0609
22293SOL    HW274120  11.049   6.630  10.404  0.0522 -1.2149  1.1605
22294SOL     OW74121   7.335   3.051  12.620  0.2638 -0.1402 -0.3905
22294SOL    HW174122   7.246   3.048  12.655  0.4178  0.4894  0.0620
22294SOL    HW274123   7.335   3.125  12.560  0.1033 -0.9932 -1.4839
22295SOL     OW74124   3.774   8.602  12.395 -0.1233  0.5557  0.2980
22295SOL    HW174125   3.777   8.696  12.378  0.8393  0.7111  1.2516
22295SOL    HW274126   3.691   8.588  12.441 -0.2794  0.9179  0.1297
22296SOL     OW74127  12.131   2.422   6.790 -0.3278 -0.5435 -0.1541
22296SOL    HW174128  12.049   2.464   6.767  0.3657  1.5233  0.8672
22296SOL    HW274129  12.193   2.451   6.723 -0.2256 -1.4398 -0.4674
22297SOL     OW74130   0.881   8.528   8.505  0.7850  0.0701 -0.3403
22297SOL    HW174131   0.938   8.565   8.438 -1.5181  2.2449 -1.2637
22297SOL    HW274132   0.893   8.585   8.581 -0.9018  1.2928 -0.9283
22298SOL     OW74133   8.252   3.040   6.989 -0.7628  0.1781 -0.4331
22298SOL    HW174134   8.230   2.949   7.009 -0.7398 -0.1353 -1.7329
22298SOL    HW274135   8.347   3.040   6.979 -0.6527  0.5616  0.5715
22299SOL     OW74136  11.657   4.132   2.416  0.3682  0.0755  0.9180
22299SOL    HW174137  11.636   4.061   2.476 -1.1134  0.1692  0.5509
22299SOL    HW274138  11.665   4.089   2.330 -2.9101  0.5719  0.2553
22300SOL     OW74139   2.682   3.783   2.360  0.2622  0.1363 -0.0400
22300SOL    HW174140   2.708   3.747   2.275  1.3443 -1.1431  0.7877
22300SOL    HW274141   2.761   3.827   2.392  0.4866 -1.0687  1.1370
22301SOL     OW74142   5.067   6.535   6.452  0.4614 -0.3600 -0.4045
22301SOL    HW174143   5.001   6.516   6.385 -0.0468 -0.9040  0.2358
22301SOL    HW274144   5.139   6.475   6.432  0.4268 -0.3321 -0.6225
22302SOL     OW74145   1.700   4.343   9.090 -0.1368 -0.2036 -0.1079
22302SOL    HW174146   1.680   4.272   9.152  0.3138 -0.2007  0.0473
22302SOL    HW274147   1.725   4.416   9.146 -0.8664  0.1695 -0.2580
22303SOL     OW74148   7.837   8.428   8.569 -0.1716  0.1352  0.2924
22303SOL    HW174149   7.875   8.340   8.575  0.7095  0.4413 -0.4170
22303SOL    HW274150   7.762   8.426   8.628  0.0072 -1.0006  0.5155
22304SOL     OW74151   1.888   6.089   5.955 -0.4642 -0.3686  0.2938
22304SOL    HW174152   1.952   6.111   5.887  0.1576 -1.8348  0.3535
22304SOL    HW274153   1.803   6.101   5.914 -0.1826  1.4834  0.1657
22305SOL     OW74154  12.126   5.625   4.140  0.0516  0.7469 -0.0312
22305SOL    HW174155  12.140   5.717   4.115  0.9439  1.1857  1.9330
22305SOL    HW274156  12.191   5.577   4.089  0.0315  1.2705 -0.5750
22306SOL     OW74157   4.763  10.279   7.945 -1.2155 -0.2464 -0.2578
22306SOL    HW174158   4.735  10.189   7.927  1.1400 -1.4178  1.3820
22306SOL    HW274159   4.841  10.291   7.891 -0.6612  0.2547  0.6266
22307SOL     OW74160   8.232  11.293   5.424 -0.6670  0.3426 -0.0042
22307SOL    HW174161   8.153  11.297   5.479 -2.0985  1.7142 -2.0107
22307SOL    HW274162   8.220  11.212   5.373 -1.6839  1.3761 -1.4843
22308SOL     OW74163  10.407   1.569  12.603  0.4005 -0.1764 -0.3215
22308SOL    HW174164  10.470   1.636  12.577  2.2910 -2.8086 -3.1244
22308SOL    HW274165  10.374   1.533  12.521 -0.6906 -2.5469  1.0427
22309SOL     OW74166   5.426   0.559   4.107 -0.2195 -0.0269 -0.8593
22309SOL    HW174167   5.489   0.625   4.080  1.4152 -1.6669 -1.2314
22309SOL    HW274168   5.466   0.517   4.183 -2.1127  0.6500  0.5840
22310SOL     OW74169   3.148   1.164   3.968  0.1810 -0.1922 -0.6335
22310SOL    HW174170   3.223   1.223   3.963  0.2468 -0.2491 -0.3574
22310SOL    HW274171   3.078   1.210   3.922 -0.4532  1.1693  1.5155
22311SOL     OW74172   6.814  12.270   3.356 -0.7640 -0.4724  0.1890
22311SOL    HW174173   6.857  12.215   3.422 -0.5197  0.2467  0.6365
22311SOL    HW274174   6.721  12.266   3.379 -0.8614 -1.4185 -0.3243
22312SOL     OW74175   3.955  12.518   4.573  0.2226  0.0941 -1.1225
22312SOL    HW174176   3.895  12.449   4.602  0.0421  0.8671  0.4203
22312SOL    HW274177   3.998  12.548   4.653  1.1802  0.9692 -1.9299
22313SOL     OW74178   9.283   1.878   7.650  0.1778  0.3048 -0.0664
22313SOL    HW174179   9.312   1.925   7.728  0.6747  1.1177 -0.7122
22313SOL    HW274180   9.321   1.928   7.577  0.8144 -1.1538 -0.7872
22314SOL     OW74181   6.400   4.357   4.087 -0.1119  0.4381  0.3184
22314SOL    HW174182   6.319   4.308   4.099  1.1908 -2.4820 -1.6811
22314SOL    HW274183   6.424   4.342   3.996  4.3023 -1.6551  1.5637
22315SOL     OW74184   0.081   9.327   0.754 -0.1812 -0.3468 -0.2713
22315SOL    HW174185   0.163   9.300   0.795 -0.0509  0.4238 -0.0030
22315SOL    HW274186   0.014   9.270   0.792  0.1632 -0.6630 -0.1421
22316SOL     OW74187   5.980   5.240  11.712  0.0400  0.2650  0.4146
22316SOL    HW174188   5.943   5.154  11.729 -0.5991  0.4986  0.2364
22316SOL    HW274189   5.940   5.298  11.777  1.7443  0.1343  1.6635
22317SOL     OW74190  12.515   9.001   9.204  0.2695 -1.0030  0.1374
22317SOL    HW174191  12.531   8.927   9.262 -0.0736 -0.9039  0.3646
22317SOL    HW274192  12.454   8.968   9.139  1.4192 -1.4039 -0.7766
22318SOL     OW74193   9.911   1.325   3.605 -0.1922  0.7675  0.0523
22318SOL    HW174194   9.866   1.266   3.545 -1.4159  0.1275  1.5491
22318SOL    HW274195   9.989   1.277   3.633  0.2102  0.9415 -0.7348
22319SOL     OW74196   6.595   1.985   7.480 -0.0991 -0.5330  0.0899
22319SOL    HW174197   6.513   2.031   7.499 -2.0861 -3.1635 -1.5049
22319SOL    HW274198   6.601   1.918   7.548 -0.9829 -2.3303 -1.5204
22320SOL     OW74199   4.857  10.145   6.124 -0.0560  0.3445 -0.4521
22320SOL    HW174200   4.775  10.126   6.171  1.1196 -0.9390  1.1938
22320SOL    HW274201   4.899  10.213   6.177  0.6711 -0.1619 -0.3662
22321SOL     OW74202  12.540   3.554   0.518  0.4526 -0.8753  0.4521
22321SOL    HW174203  12.475   3.602   0.569  1.3788 -0.2675  1.0986
22321SOL    HW274204  12.535   3.592   0.430 -0.7069 -1.4926  0.2281
22322SOL     OW74205   4.839   6.095   3.068 -0.3449  0.0842 -0.1726
22322SOL    HW174206   4.931   6.069   3.063 -0.6020 -1.1620  0.9241
22322SOL    HW274207   4.815   6.114   2.977  0.4411 -1.6397 -0.8006
22323SOL     OW74208  11.800   2.960   7.893 -0.6230  0.3488  0.1199
22323SOL    HW174209  11.856   3.038   7.889 -2.5242  1.8383  0.8501
22323SOL    HW274210  11.783   2.938   7.801  1.4965 -0.4882 -0.1496
22324SOL     OW74211   0.521   5.734  11.287 -0.5309 -0.1788  0.5449
22324SOL    HW174212   0.450   5.713  11.349 -1.2274  0.7559  0.0805
22324SOL    HW274213   0.513   5.828  11.272 -0.1023 -0.3166 -0.6419
22325SOL     OW74214   3.325   1.397   6.090 -0.6266 -0.0084 -0.2503
22325SOL    HW174215   3.360   1.455   6.158 -0.3258  0.5529 -0.8675
22325SOL    HW274216   3.365   1.429   6.009 -0.0559 -1.4206 -0.5450
22326SOL     OW74217   1.804   1.337   5.002  0.3013 -0.4979  0.1366
22326SOL    HW174218   1.876   1.282   5.033  3.1337  1.7890 -1.8034
22326SOL    HW274219   1.783   1.393   5.077  1.7943 -0.0775  0.2703
22327SOL     OW74220  10.051   8.168   6.133  0.1693 -0.0142 -0.1730
22327SOL    HW174221  10.094   8.089   6.100  0.5298 -0.4995  1.3754
22327SOL    HW274222  10.120   8.216   6.179 -0.6155 -0.1219  1.1621
22328SOL     OW74223  11.444  12.305   3.609 -0.3145 -0.4149  0.2805
22328SOL    HW174224  11.453  12.223   3.560 -0.8847 -0.2550 -0.1022
22328SOL    HW274225  11.390  12.281   3.685  2.2857 -1.1521  2.0433
22329SOL     OW74226   1.835   1.064  10.056  0.0297 -0.0896 -0.3901
22329SOL    HW174227   1.748   1.026  10.044  0.1238  0.0806 -1.6689
22329SOL    HW274228   1.818   1.149  10.096 -0.5100  0.5650 -1.9498
22330SOL     OW74229   0.784   0.752  10.305  0.2416  0.3146 -0.4878
22330SOL    HW174230   0.818   0.783  10.221  2.3716  0.7161  0.4563
22330SOL    HW274231   0.834   0.673  10.323 -1.7009 -1.0118 -0.5320
22331SOL     OW74232   0.443   6.085   9.468 -0.3018 -0.0275 -0.3544
22331SOL    HW174233   0.418   6.001   9.429 -1.8111  0.2682 -0.0623
22331SOL    HW274234   0.539   6.087   9.459 -0.3272 -1.3184 -1.2728
22332SOL     OW74235   7.026   1.935   4.562  0.3711  0.1498  0.8170
22332SOL    HW174236   7.051   1.846   4.536  0.7921  0.7381 -0.9015
22332SOL    HW274237   6.943   1.924   4.608 -0.1766 -1.0240 -0.3997
22333SOL     OW74238  10.517   3.329   9.558  0.1884 -0.7749 -0.2299
22333SOL    HW174239  10.529   3.389   9.631 -1.6952 -0.1016 -0.4189
22333SOL    HW274240  10.574   3.363   9.489  1.2861 -0.8900  0.5966
22334SOL     OW74241   2.298   3.659  10.277  0.5096 -0.2765  0.2083
22334SOL    HW174242   2.360   3.712  10.226  1.3328 -0.9655  0.4545
22334SOL    HW274243   2.323   3.568  10.258 -1.0811 -0.6096 -0.4616
22335SOL     OW74244   4.322   3.481   6.912 -0.0449 -0.3589  0.1045
22335SOL    HW174245   4.230   3.468   6.892 -0.3163  1.1355  0.2978
22335SOL    HW274246   4.368   3.453   6.833 -0.7057 -0.5096 -0.2274
22336SOL     OW74247   8.949  12.214  11.429  0.4999  0.1383  0.0777
22336SOL    HW174248   8.863  12.185  11.459  0.5809 -0.8596 -0.5996
22336SOL    HW274249   8.933  12.249  11.341  0.9726 -1.2904 -0.6047
22337SOL     OW74250   5.907   6.029   1.996 -0.4015  0.6546  0.6722
22337SOL    HW174251   5.827   6.066   2.033 -0.9801  0.1621 -0.0430
22337SOL    HW274252   5.876   5.966   1.931  0.5766  1.0283 -0.1790
22338SOL     OW74253   2.627   0.531   3.007  0.3237 -0.1383 -0.2830
22338SOL    HW174254   2.677   0.584   2.945 -1.1352  0.8651 -0.6573
22338SOL    HW274255   2.564   0.592   3.045  0.1486 -1.0990  1.0293
22339SOL     OW74256   1.361   4.065   0.266 -0.0758 -0.1373  0.0780
22339SOL    HW174257   1.413   4.137   0.231 -0.2793 -0.2033 -0.3710
22339SOL    HW274258   1.287   4.107   0.310  0.6694 -0.0207  1.2617
22340SOL     OW74259  11.259   6.760   0.095 -0.1474  0.2878  0.3210
22340SOL    HW174260  11.228   6.795   0.179  2.2039 -0.5303  1.6476
22340SOL    HW274261  11.295   6.835   0.049 -0.9389  0.6510  0.2846
22341SOL     OW74262   4.152  11.463   4.963 -0.6856 -0.0870  0.0880
22341SOL    HW174263   4.224  11.406   4.934 -0.4616 -0.1828  0.8036
22341SOL    HW274264   4.087  11.402   4.998 -0.9070  0.0286 -0.1264
22342SOL     OW74265   6.625   2.916   2.482 -0.4256 -0.2666 -0.0413
22342SOL    HW174266   6.684   2.974   2.433 -0.5626  0.5121  0.6880
22342SOL    HW274267   6.646   2.828   2.451  1.2850 -0.0360  0.3612
22343SOL     OW74268   5.499   3.615   1.614  0.1193 -0.4286 -0.6005
22343SOL    HW174269   5.537   3.598   1.527  2.5934 -0.2751  0.3793
22343SOL    HW274270   5.490   3.710   1.617 -0.5610 -0.4788 -0.9070
22344SOL     OW74271   0.080   5.774   0.803 -0.3999  0.3552  0.1815
22344SOL    HW174272   0.174   5.787   0.808 -0.0757 -0.9504 -1.4905
22344SOL    HW274273   0.046   5.855   0.767 -0.2818  1.7826  3.0481
22345SOL     OW74274   8.885  10.561  11.142 -0.2580 -0.5161  0.3197
22345SOL    HW174275   8.905  10.517  11.059  2.8876  0.5934  0.3352
22345SOL    HW274276   8.871  10.489  11.204  1.9009 -1.5393 -0.2647
22346SOL     OW74277   0.932   7.313   5.287 -0.4416  0.1762 -0.0105
22346SOL    HW174278   0.848   7.347   5.315 -0.2344  0.3318  0.4227
22346SOL    HW274279   0.932   7.324   5.192  0.2194  2.7755  0.2283
22347SOL     OW74280  10.782   3.246   1.898 -0.2788 -0.4128  0.3533
22347SOL    HW174281  10.714   3.193   1.941 -1.3145 -0.4306 -1.2113
22347SOL    HW274282  10.739   3.279   1.818  1.5906 -0.5317 -0.7560
22348SOL     OW74283   5.241  11.626   4.987  0.4406 -0.1865 -0.4825
22348SOL    HW174284   5.292  11.551   4.955 -0.7323 -1.6560  0.9452
22348SOL    HW274285   5.150  11.602   4.970 -0.0672  0.1069  1.5743
22349SOL     OW74286   6.034   5.727   0.917 -0.5431  0.7934 -0.1678
22349SOL    HW174287   6.041   5.713   0.822  1.1806 -1.1816  0.1796
22349SOL    HW274288   6.075   5.812   0.932 -1.6703  1.5686 -1.2582
22350SOL     OW74289   5.886   6.387   6.666  0.0047  0.8090 -0.6647
22350SOL    HW174290   5.885   6.475   6.629 -1.2398  1.7949  1.5318
22350SOL    HW274291   5.923   6.398   6.753 -3.1003 -0.2306  0.9153
22351SOL     OW74292   4.660  10.616   9.195 -0.1124 -0.3912  0.1385
22351SOL    HW174293   4.755  10.615   9.209 -0.1614 -1.5054  0.4171
22351SOL    HW274294   4.648  10.682   9.126  0.5481  2.0434  2.2068
22352SOL     OW74295  10.144   7.138   9.551  0.8237  0.2521 -0.3368
22352SOL    HW174296  10.236   7.132   9.576  0.6777 -1.0302 -0.0579
22352SOL    HW274297  10.097   7.140   9.634  0.4654 -1.8186 -0.4404
22353SOL     OW74298   6.669  10.658   1.330 -0.1836  0.4211  0.2501
22353SOL    HW174299   6.677  10.588   1.264 -0.6374  2.6882 -2.3989
22353SOL    HW274300   6.577  10.658   1.354 -0.1835  0.1117  0.2540
22354SOL     OW74301  11.846   4.677   4.776  0.0837  0.1224  0.2750
22354SOL    HW174302  11.886   4.686   4.690  0.4558 -0.5726  0.3661
22354SOL    HW274303  11.821   4.766   4.801  0.4458  0.3969 -0.3240
22355SOL     OW74304  11.779   9.745   6.722 -0.1297 -0.2586 -0.3838
22355SOL    HW174305  11.760   9.711   6.635 -2.4792 -1.5252  0.5681
22355SOL    HW274306  11.729   9.827   6.728 -0.1379 -0.2808 -0.1364
22356SOL     OW74307   3.686   2.285   1.197 -0.7551 -0.1665  0.1206
22356SOL    HW174308   3.608   2.247   1.158 -1.1873  0.1248  0.6773
22356SOL    HW274309   3.694   2.243   1.282 -0.4451 -0.0180  0.1680
22357SOL     OW74310   3.898   8.005   7.502  0.1716 -0.3144 -0.0536
22357SOL    HW174311   3.818   8.044   7.468 -0.1631 -2.6179 -2.1631
22357SOL    HW274312   3.967   8.034   7.441  0.7791  0.7094  1.0757
22358SOL     OW74313   1.222   5.681   9.715 -0.5412 -0.3726 -0.4506
22358SOL    HW174314   1.308   5.700   9.754 -1.0786  0.8735  0.1679
22358SOL    HW274315   1.164   5.747   9.751 -1.8430 -1.3597 -0.6638
22359SOL     OW74316   9.175   2.035  12.695 -0.3776 -0.4355 -0.1392
22359SOL    HW174317   9.107   2.091  12.734 -0.5286  1.7252 -3.1967
22359SOL    HW274318   9.226   2.005  12.771 -1.7085  1.9630  1.8944
22360SOL     OW74319   7.455   0.154  10.661  0.2014  0.2917 -0.0142
22360SOL    HW174320   7.396   0.193  10.597  1.1891 -1.6982 -2.3024
22360SOL    HW274321   7.398   0.103  10.719 -0.6000  1.1406 -0.0291
22361SOL     OW74322   8.127  12.246   1.038 -0.0375  0.1793 -0.3464
22361SOL    HW174323   8.066  12.192   1.089 -0.4074  0.7659 -0.1548
22361SOL    HW274324   8.071  12.291   0.975  0.0754  1.3107  0.3356
22362SOL     OW74325  11.206   8.029   3.559 -0.4676  0.1754  0.2269
22362SOL    HW174326  11.271   7.960   3.575 -0.0940  0.1946 -1.1166
22362SOL    HW274327  11.126   7.982   3.534 -0.4236  0.2070  0.0272
22363SOL     OW74328  10.297   1.317   1.692 -0.0895  0.4166 -0.6994
22363SOL    HW174329  10.282   1.237   1.642  0.2803  0.0014 -0.1584
22363SOL    HW274330  10.351   1.372   1.635  2.5912 -1.1122  0.2178
22364SOL     OW74331  11.796   3.674   2.198  0.0998 -0.1178 -0.2342
22364SOL    HW174332  11.726   3.615   2.169  0.1665 -0.2351 -0.1606
22364SOL    HW274333  11.868   3.615   2.220  0.4903  0.0505 -1.0525
22365SOL     OW74334   0.154   8.643   2.043 -0.3027  0.1505  0.5256
22365SOL    HW174335   0.223   8.691   1.997 -1.1747  1.0708  0.1515
22365SOL    HW274336   0.075   8.696   2.031 -1.3898 -1.5191 -0.1644
22366SOL     OW74337   8.228   9.214   6.086  0.2032  0.2447 -0.0072
22366SOL    HW174338   8.262   9.285   6.140 -1.4298  1.5950 -0.6508
22366SOL    HW274339   8.153   9.180   6.135  0.8271 -0.9259  0.1855
22367SOL     OW74340  12.132  10.293   6.682 -0.6068  0.5601  0.4060
22367SOL    HW174341  12.139  10.279   6.777 -0.2709 -0.1946  0.2768
22367SOL    HW274342  12.052  10.344   6.672 -0.1980  1.3743  1.1633
22368SOL     OW74343   1.848   6.866   1.440 -0.3666  0.1580 -0.0940
22368SOL    HW174344   1.788   6.831   1.374 -0.9116  0.1621  0.4012
22368SOL    HW274345   1.814   6.835   1.523 -0.5810  1.4464  0.3197
22369SOL     OW74346   4.199   6.859   2.298  0.6949 -0.8120  0.4648
22369SOL    HW174347   4.282   6.907   2.305  0.5734 -0.2628 -1.3070
22369SOL    HW274348   4.193   6.836   2.205 -1.2282 -0.6762  0.5327
22370SOL     OW74349  11.802   2.537  10.099 -0.4315  0.4735 -0.0733
22370SOL    HW174350  11.760   2.620  10.077 -1.8242 -0.0645  0.4187
22370SOL    HW274351  11.853   2.515  10.022  1.2504  2.5321  0.3676
22371SOL     OW74352   4.625   0.753   4.740 -0.6378 -0.2193  0.1267
22371SOL    HW174353   4.704   0.713   4.778 -0.3951 -0.6781 -0.8317
22371SOL    HW274354   4.570   0.772   4.816  0.4188  0.1805  0.8258
22372SOL     OW74355   1.147  12.054   6.733  0.0270  0.2924 -0.1709
22372SOL    HW174356   1.121  12.146   6.733 -0.7870  0.1013 -2.0658
22372SOL    HW274357   1.231  12.053   6.686  0.4058  0.1518  0.5019
22373SOL     OW74358   9.029   1.371   5.306 -0.4134  0.2306  0.2430
22373SOL    HW174359   8.982   1.362   5.389 -1.8269 -0.6410 -0.6169
22373SOL    HW274360   9.034   1.466   5.293  0.9850  0.4345  1.9275
22374SOL     OW74361   4.085  12.113   8.813  0.3095  0.1507 -0.3315
22374SOL    HW174362   4.091  12.054   8.888 -1.8696  0.8821  0.5078
22374SOL    HW274363   4.024  12.070   8.754  0.7439  0.3599 -0.9364
22375SOL     OW74364   2.781   4.385   6.839 -0.0540  0.3617  0.0591
22375SOL    HW174365   2.747   4.363   6.753  1.2470  0.5017 -0.5188
22375SOL    HW274366   2.780   4.302   6.887 -2.0573  0.5383  0.4052
22376SOL     OW74367   4.600   0.505  11.865 -0.0797  0.5052 -0.3403
22376SOL    HW174368   4.534   0.495  11.933  0.2645  2.8366  0.4321
22376SOL    HW274369   4.596   0.423  11.815 -2.0126 -0.2891  0.9933
22377SOL     OW74370  12.557   9.010   5.951 -0.4030 -0.2789  0.3056
22377SOL    HW174371  12.520   9.049   5.872  2.0828  1.1373 -0.2561
22377SOL    HW274372  12.521   8.922   5.954 -2.4446  0.4402 -1.0406
22378SOL     OW74373   1.352  10.682   0.569  0.2376  0.0811 -0.6404
22378SOL    HW174374   1.339  10.662   0.662 -1.6811  0.1865 -0.8422
22378SOL    HW274375   1.267  10.666   0.529  1.2225 -0.6437 -2.5362
22379SOL     OW74376   3.967   5.932  11.649  0.6400 -0.1999 -0.4144
22379SOL    HW174377   3.968   5.912  11.743 -0.3805  2.4594  0.2580
22379SOL    HW274378   4.038   5.996  11.638 -0.5856  1.1193 -0.9746
22380SOL     OW74379   3.302   2.576   7.187  0.4591 -0.0806 -0.2546
22380SOL    HW174380   3.296   2.576   7.283 -2.1188  0.6059 -0.3322
22380SOL    HW274381   3.238   2.511   7.159 -0.0168  0.8997 -1.5348
22381SOL     OW74382   2.466   7.836   4.641  0.5125  0.0039  0.2092
22381SOL    HW174383   2.450   7.751   4.683  2.0052 -0.4513 -0.0518
22381SOL    HW274384   2.484   7.814   4.549  0.6436  0.6198  0.0836
22382SOL     OW74385   8.043   0.818   6.835  0.0388 -0.3049  0.0917
22382SOL    HW174386   8.011   0.905   6.860 -1.5057  0.0648 -2.7884
22382SOL    HW274387   8.128   0.811   6.879 -0.4561  1.9953  1.6471
22383SOL     OW74388  10.245   9.361   2.837 -0.0127 -0.6365 -0.2575
22383SOL    HW174389  10.194   9.408   2.771  1.0450 -1.0592 -1.4076
22383SOL    HW274390  10.198   9.376   2.919 -0.8120  0.7155 -0.9377
22384SOL     OW74391  12.185   7.778   1.280  0.1850 -0.0518  0.2635
22384SOL    HW174392  12.189   7.684   1.262 -0.9081 -0.2055  0.7285
22384SOL    HW274393  12.091   7.798   1.283  0.4000  1.1065 -0.0624
22385SOL     OW74394   1.935   2.839   9.425 -0.6473 -0.6446  0.1191
22385SOL    HW174395   1.981   2.906   9.375 -1.9520  0.1845 -0.0162
22385SOL    HW274396   1.894   2.784   9.359 -2.5001  0.5407  0.2170
22386SOL     OW74397   7.686   9.886  10.638  0.0883 -0.1121  0.3085
22386SOL    HW174398   7.746   9.957  10.661  0.0402 -0.3537  1.2031
22386SOL    HW274399   7.735   9.806  10.658 -0.1870 -0.3207  0.1500
22387SOL     OW74400   9.938   8.444   6.756  0.1132  0.1080  0.1343
22387SOL    HW174401   9.890   8.515   6.714  0.5186  1.1569  1.3783
22387SOL    HW274402   9.871   8.383   6.785 -0.2869  0.2760 -0.4316
22388SOL     OW74403  11.829  11.581   2.664 -0.3685 -0.8008  0.1543
22388SOL    HW174404  11.825  11.574   2.759  0.8134 -3.4959  0.1014
22388SOL    HW274405  11.738  11.567   2.635 -0.4673 -1.6398  0.8370
22389SOL     OW74406   0.430   1.840   5.484  0.0005  0.3019  0.3345
22389SOL    HW174407   0.362   1.798   5.535 -1.4050  1.3251 -0.6323
22389SOL    HW274408   0.485   1.884   5.549 -2.1218  2.1288  1.0049
22390SOL     OW74409   7.591   0.092   2.861  0.1234 -0.5010  0.2793
22390SOL    HW174410   7.628   0.003   2.861  0.7232 -0.2576  0.0028
22390SOL    HW274411   7.564   0.106   2.770  1.6570  0.2537 -0.0832
22391SOL     OW74412   8.078   5.286   4.535  0.4095 -0.3232  0.2142
22391SOL    HW174413   8.121   5.336   4.605 -1.6867  1.7138  0.1762
22391SOL    HW274414   8.054   5.352   4.470 -2.4117 -1.3211  0.1231
22392SOL     OW74415   3.670   8.579  10.020 -0.2364  0.2367  1.0937
22392SOL    HW174416   3.625   8.618  10.095 -1.2073  1.0955  0.0988
22392SOL    HW274417   3.719   8.505  10.058 -2.2337 -0.5716  2.3043
22393SOL     OW74418   2.398   3.521   2.231  0.3672  0.0311 -0.1875
22393SOL    HW174419   2.363   3.496   2.145  0.7182 -0.4894 -0.1857
22393SOL    HW274420   2.329   3.495   2.293  0.1808  0.2616 -0.2955
22394SOL     OW74421   5.097   0.687  11.908 -0.0200  0.1395 -0.6353
22394SOL    HW174422   5.134   0.613  11.958  0.0179  0.2569 -0.4894
22394SOL    HW274423   5.111   0.763  11.964 -3.2791 -0.2200  0.8515
22395SOL     OW74424   2.230  10.940   4.288 -0.5483  0.5842 -0.8481
22395SOL    HW174425   2.292  10.867   4.277 -1.4572 -0.1479 -1.2552
22395SOL    HW274426   2.231  10.985   4.204 -0.4100  0.7107 -0.7804
22396SOL     OW74427   3.400   6.589   7.783  0.5780 -0.2620  0.4005
22396SOL    HW174428   3.482   6.635   7.765  0.5684  0.0141  1.0102
22396SOL    HW274429   3.342   6.613   7.711  1.6192 -1.9966 -1.0957
22397SOL     OW74430  10.009  11.064  10.471 -0.5555 -0.0798 -0.0282
22397SOL    HW174431  10.074  11.066  10.541 -0.5426  2.6564 -0.0102
22397SOL    HW274432   9.931  11.105  10.509 -0.5264  1.5189 -1.5499
22398SOL     OW74433   5.267   6.983   7.783 -0.0639 -0.4077  0.3667
22398SOL    HW174434   5.306   7.036   7.852 -0.6232  1.2808 -0.5617
22398SOL    HW274435   5.209   6.922   7.828 -0.6964  0.9082  1.3787
22399SOL     OW74436   5.386   0.809   7.089  0.3030  0.2207 -0.0051
22399SOL    HW174437   5.361   0.886   7.140  0.4968  0.5045 -0.3321
22399SOL    HW274438   5.336   0.816   7.008 -0.2819 -0.4242  0.2947
22400SOL     OW74439  10.059  11.912   7.335  0.2653  0.5743  0.5089
22400SOL    HW174440  10.119  11.888   7.405  1.0518  0.6875 -0.1114
22400SOL    HW274441   9.981  11.859   7.351 -0.1387  1.6531  2.2873
22401SOL     OW74442   3.245   7.580   6.270 -0.2010 -0.1714 -0.0257
22401SOL    HW174443   3.188   7.580   6.193 -0.9343  1.3605  0.4821
22401SOL    HW274444   3.291   7.496   6.265 -0.2421 -0.1253 -2.0947
22402SOL     OW74445  10.212   3.379   8.922  0.1309 -0.3372 -0.0497
22402SOL    HW174446  10.250   3.376   8.834  0.1051  0.0771 -0.0753
22402SOL    HW274447  10.171   3.293   8.933  2.2102 -1.3349  0.4942
22403SOL     OW74448   4.840   2.451   1.164 -0.5365  0.3499 -0.2433
22403SOL    HW174449   4.753   2.489   1.158 -0.2682  1.2768  1.1795
22403SOL    HW274450   4.897   2.514   1.120 -0.0732  1.8081  2.2235
22404SOL     OW74451  12.645   2.398   2.606  0.1519  0.3592  0.5411
22404SOL    HW174452  12.623   2.305   2.601  1.5664 -0.0534  1.3081
22404SOL    HW274453  12.741   2.399   2.609  0.2762  1.9697 -1.7308
22405SOL     OW74454   2.222   3.579   9.200  0.3656 -0.7314 -0.2786
22405SOL    HW174455   2.158   3.536   9.143  0.3574  1.4856 -2.1039
22405SOL    HW274456   2.180   3.662   9.225  1.6505 -0.2207  0.2635
22406SOL     OW74457   7.434   6.734   2.725 -0.1496 -0.0452 -0.1069
22406SOL    HW174458   7.480   6.810   2.760 -1.2092  0.1644  0.8943
22406SOL    HW274459   7.500   6.688   2.672  0.6666  1.2350 -0.2437
22407SOL     OW74460   4.964   2.281   0.531 -0.7399  0.1890  0.0950
22407SOL    HW174461   4.914   2.230   0.594 -3.2972 -1.5569 -3.0458
22407SOL    HW274462   5.054   2.275   0.561 -1.3740 -3.3394  1.8248
22408SOL     OW74463   4.922   2.141  12.358 -0.4848  0.1964 -0.0898
22408SOL    HW174464   4.893   2.061  12.403  0.1484  0.6102  1.0989
22408SOL    HW274465   5.013   2.152  12.385  0.0697  0.2141 -1.8814
22409SOL     OW74466   6.419   3.858   7.866  0.5512  0.1915 -0.0832
22409SOL    HW174467   6.372   3.900   7.794 -1.6728 -0.9674  0.6137
22409SOL    HW274468   6.508   3.846   7.832 -0.3707 -0.1963 -2.6160
22410SOL     OW74469   1.556   8.891  11.933 -0.2836 -0.1275 -1.2234
22410SOL    HW174470   1.641   8.914  11.970 -0.3277 -2.0379  0.1858
22410SOL    HW274471   1.492   8.929  11.993 -0.3982 -0.7016 -0.9828
22411SOL     OW74472   5.169   0.893   8.487  0.2289 -0.4665 -0.0178
22411SOL    HW174473   5.112   0.967   8.509  0.4315  0.1598 -1.4430
22411SOL    HW274474   5.201   0.861   8.571 -0.1441  0.8534  0.6559
22412SOL     OW74475   8.623  11.750   1.476 -0.2024 -0.0578  0.0277
22412SOL    HW174476   8.660  11.814   1.415  0.6601 -0.7595 -0.1954
22412SOL    HW274477   8.570  11.692   1.420  1.5889 -1.4622 -0.2930
22413SOL     OW74478   6.973   7.056   9.854  0.4198 -0.1013  0.0447
22413SOL    HW174479   6.993   7.091   9.940  2.4034 -1.0191  0.0030
22413SOL    HW274480   7.018   6.972   9.851  0.8942  0.1742 -2.0859
22414SOL     OW74481   3.260   4.777  10.351  0.2917 -0.1672  0.0131
22414SOL    HW174482   3.239   4.684  10.346 -0.2729  0.0053 -1.1222
22414SOL    HW274483   3.227   4.813  10.269  0.6197  1.0142  0.3875
22415SOL     OW74484   3.677  11.625   6.770  0.1772 -0.1019  0.0352
22415SOL    HW174485   3.600  11.674   6.742  0.1362  1.5331  2.6675
22415SOL    HW274486   3.713  11.676   6.843  3.0091 -1.5016 -0.2357
22416SOL     OW74487   9.251   2.685   3.295 -0.7983  0.0237 -0.2099
22416SOL    HW174488   9.270   2.771   3.333 -1.8486 -0.2027  0.9228
22416SOL    HW274489   9.158   2.690   3.271 -1.5932 -1.5102  2.1132
22417SOL     OW74490   1.838   5.100   7.352 -0.1768  0.2168 -0.3709
22417SOL    HW174491   1.919   5.115   7.303 -0.8146  0.4390 -1.3716
22417SOL    HW274492   1.840   5.167   7.421  0.3038  0.4689 -0.6247
22418SOL     OW74493   3.258   5.683   8.814  0.3202 -0.2687  0.4338
22418SOL    HW174494   3.222   5.675   8.725  1.2437  1.0155 -0.0802
22418SOL    HW274495   3.352   5.668   8.803  0.5172  0.4057  1.1090
22419SOL     OW74496   2.347   2.454  11.248 -0.1819  0.3295 -0.1240
22419SOL    HW174497   2.389   2.399  11.314 -1.2111 -0.1296  0.1615
22419SOL    HW274498   2.419   2.484  11.193  0.5986  0.0979  0.7484
22420SOL     OW74499  10.126   5.797   5.304  0.6690  0.0921  0.3358
22420SOL    HW174500  10.174   5.765   5.228  1.1542 -1.8969  1.4186
22420SOL    HW274501  10.188   5.791   5.376  0.0942  1.5705  1.0144
22421SOL     OW74502   8.246  10.956   3.975 -0.8849 -0.0550  0.0120
22421SOL    HW174503   8.161  10.939   4.016  0.1248 -1.4484  1.6357
22421SOL    HW274504   8.304  10.889   4.010  0.9528  0.9717 -0.9071
22422SOL     OW74505   3.420   4.311   5.411 -0.2172  0.0478  0.1882
22422SOL    HW174506   3.445   4.280   5.498 -0.3634 -1.2944 -0.2276
22422SOL    HW274507   3.405   4.231   5.361  2.3879  0.6818 -1.8213
22423SOL     OW74508   5.229  11.376   2.072  0.0820  0.0672 -0.5191
22423SOL    HW174509   5.142  11.393   2.107 -0.8114 -3.2906 -0.7811
22423SOL    HW274510   5.264  11.306   2.127  2.6206  1.2509 -0.4833
22424SOL     OW74511   5.917  11.358   4.056  0.0302 -0.0493  0.1234
22424SOL    HW174512   5.921  11.450   4.029 -0.8677  0.1983  0.7614
22424SOL    HW274513   5.875  11.313   3.983 -1.5657  0.4555  0.6967
22425SOL     OW74514   6.839   6.226  10.804  0.1887  0.0765  0.0784
22425SOL    HW174515   6.766   6.168  10.826  0.9724 -1.3821 -0.9751
22425SOL    HW274516   6.890   6.231  10.885 -0.6461  0.4576  0.5884
22426SOL     OW74517  12.314   1.065   5.719  0.0596 -0.3226  0.0645
22426SOL    HW174518  12.317   1.020   5.803 -0.0859  0.1808  0.3394
22426SOL    HW274519  12.405   1.088   5.700  0.2160 -1.2552 -0.3669
22427SOL     OW74520   6.575   3.604   2.803 -0.1789  0.3786 -0.3352
22427SOL    HW174521   6.667   3.582   2.813 -0.4854 -0.4336  0.9599
22427SOL    HW274522   6.528   3.525   2.832 -1.2895  1.5487  1.2525
22428SOL     OW74523   1.589   4.701   2.434 -0.3506  0.3202 -0.0961
22428SOL    HW174524   1.621   4.763   2.368 -0.7172 -0.2900 -0.8587
22428SOL    HW274525   1.603   4.615   2.395 -1.2692 -0.0186  0.3121
22429SOL     OW74526   7.720   3.267  11.766 -0.1979  0.2162  0.5694
22429SOL    HW174527   7.718   3.324  11.688 -0.6028  0.4817  0.7684
22429SOL    HW274528   7.812   3.248  11.780 -0.2090 -1.2665 -1.0121
22430SOL     OW74529   5.046   6.224   6.335 -0.3852  0.3483  0.6611
22430SOL    HW174530   4.954   6.199   6.338 -0.1485 -0.4747  1.6144
22430SOL    HW274531   5.088   6.170   6.402  1.1359 -0.6650 -1.0135
22431SOL     OW74532   5.121   8.327   2.062 -0.0783 -0.3647 -0.0663
22431SOL    HW174533   5.117   8.232   2.052 -0.0472 -0.2253 -1.6003
22431SOL    HW274534   5.214   8.349   2.052 -0.2867 -0.0267 -1.4296
22432SOL     OW74535  10.701   3.443   8.853 -0.3516 -0.8174  0.4314
22432SOL    HW174536  10.646   3.478   8.783 -0.5502  0.2391  1.0946
22432SOL    HW274537  10.787   3.480   8.837 -0.8788  1.2507  1.9514
22433SOL     OW74538   6.956   0.791  12.039  0.0382  0.2419  0.0754
22433SOL    HW174539   6.879   0.835  12.003  0.2370  1.5197  1.1730
22433SOL    HW274540   7.010   0.861  12.075  1.4258 -0.6937 -0.0854
22434SOL     OW74541   0.110   8.918   8.509  0.5105  0.2324  0.0663
22434SOL    HW174542   0.068   8.864   8.442 -0.2887  0.3217  0.4901
22434SOL    HW274543   0.196   8.878   8.521  0.1582 -0.5830 -0.0583
22435SOL     OW74544  12.464   6.587  11.399 -0.0633 -0.2955 -0.0891
22435SOL    HW174545  12.556   6.564  11.382  0.2162  0.0596  0.8882
22435SOL    HW274546  12.453   6.673  11.358 -0.0402 -0.4488 -0.4262
22436SOL     OW74547  11.075   0.274  10.323  0.1324  0.2062 -0.2482
22436SOL    HW174548  11.075   0.338  10.252 -0.7176 -0.5366 -0.9411
22436SOL    HW274549  10.996   0.221  10.308 -0.3596  0.3682  1.5605
22437SOL     OW74550   5.478   4.705   1.382 -0.2018  0.1723  0.2821
22437SOL    HW174551   5.456   4.651   1.459 -0.3177  0.0412  0.1579
22437SOL    HW274552   5.573   4.696   1.374 -0.4101 -1.6266 -0.9070
22438SOL     OW74553  11.006   3.544   4.904 -0.2631  0.1392  0.1426
22438SOL    HW174554  11.056   3.622   4.885  1.3550 -0.6828  0.8582
22438SOL    HW274555  11.016   3.531   4.998 -0.6656 -0.8191  0.0662
22439SOL     OW74556  12.484   5.161  11.604 -0.2416 -0.0482  0.0034
22439SOL    HW174557  12.515   5.168  11.695  1.1007 -1.8258 -0.2565
22439SOL    HW274558  12.531   5.231  11.558  0.7214 -0.4711  0.3028
22440SOL     OW74559   5.472  11.161   0.171  0.1129 -0.3170  0.6182
22440SOL    HW174560   5.550  11.109   0.193  0.4430  0.5147  1.4911
22440SOL    HW274561   5.499  11.215   0.097  0.7480  0.7870  1.6302
22441SOL     OW74562   7.617  10.797   8.534 -0.5118 -0.3507 -0.2107
22441SOL    HW174563   7.646  10.745   8.609  0.8747  1.3442  0.4994
22441SOL    HW274564   7.697  10.835   8.499 -1.0003 -1.6424 -3.0688
22442SOL     OW74565  10.661   6.968   2.794  0.4371 -0.3152 -0.1951
22442SOL    HW174566  10.656   7.039   2.858  0.5722  1.2644 -1.8414
22442SOL    HW274567  10.741   6.920   2.817  0.6993  0.4614  0.5658
22443SOL     OW74568   5.101   1.099   3.863 -0.3578 -0.1930 -0.0852
22443SOL    HW174569   5.066   1.094   3.774 -1.7171 -1.9068  0.5033
22443SOL    HW274570   5.101   1.008   3.894 -1.2064  0.5112  2.1508
22444SOL     OW74571   8.917  10.820  12.323  0.8669 -0.0666  0.3567
22444SOL    HW174572   9.010  10.826  12.303  0.4948 -0.0762 -1.5915
22444SOL    HW274573   8.875  10.805  12.238 -0.9879  0.7587  1.0680
22445SOL     OW74574   0.423   7.731   0.357 -0.3624  0.6084 -0.3052
22445SOL    HW174575   0.441   7.655   0.413 -0.4243  0.8604  0.0534
22445SOL    HW274576   0.404   7.802   0.418  0.2254  1.0529 -0.6316
22446SOL     OW74577   5.064   1.941   0.744  0.7271 -0.2572 -0.3409
22446SOL    HW174578   5.002   2.010   0.766 -1.3943 -1.9542 -0.6851
22446SOL    HW274579   5.049   1.923   0.651  2.8579  0.3084 -0.8496
22447SOL     OW74580   4.189   4.783   7.290 -0.4841 -0.2327  0.4748
22447SOL    HW174581   4.227   4.871   7.297 -0.2099 -0.3627  0.6458
22447SOL    HW274582   4.121   4.791   7.224  0.9682 -0.3865 -1.0987
22448SOL     OW74583   0.526   2.483  10.755  0.5184 -0.2510 -0.1459
22448SOL    HW174584   0.435   2.455  10.751  0.0218  1.0317  1.2696
22448SOL    HW274585   0.560   2.466  10.667 -1.3259  0.0492 -0.9598
22449SOL     OW74586  11.079   6.033  10.565  0.2732  0.5003 -0.1457
22449SOL    HW174587  11.123   6.007  10.484 -0.2195 -0.2887 -0.1775
22449SOL    HW274588  11.091   5.958  10.623 -2.9499 -0.8193 -0.9441
22450SOL     OW74589   6.903   8.469   4.567 -0.1374 -0.2075  0.3594
22450SOL    HW174590   6.941   8.521   4.497  0.0953  1.3856  1.6245
22450SOL    HW274591   6.816   8.506   4.581  0.2115  0.2112  1.5943
22451SOL     OW74592   1.148  10.718   6.222 -0.2046  0.2200  0.4230
22451SOL    HW174593   1.243  10.729   6.209 -0.5406  0.6030 -2.4284
22451SOL    HW274594   1.137  10.624   6.239  0.6289  0.0021 -0.1612
22452SOL     OW74595   0.989   6.698   4.640 -0.0287 -0.1288 -0.1287
22452SOL    HW174596   1.002   6.683   4.546  1.1416  0.5485 -0.0937
22452SOL    HW274597   0.945   6.782   4.645  1.0502  0.4497 -0.0472
22453SOL     OW74598   5.641   0.906   3.604  0.3324  0.0107  0.3604
22453SOL    HW174599   5.692   0.860   3.671 -0.5428 -2.3107 -0.4555
22453SOL    HW274600   5.692   0.898   3.524 -0.9660 -1.9338 -0.3626
22454SOL     OW74601   7.179   1.583   8.294 -0.1124 -0.3250  0.0050
22454SOL    HW174602   7.227   1.547   8.220 -0.3626 -0.2005 -0.2224
22454SOL    HW274603   7.108   1.634   8.254 -0.9514 -1.2038  0.3322
22455SOL     OW74604   5.419   9.849   1.148  0.0244 -0.0107  0.4002
22455SOL    HW174605   5.361   9.815   1.216 -0.3471  1.6228  0.9422
22455SOL    HW274606   5.414   9.944   1.158  0.5560  0.2355 -1.4382
22456SOL     OW74607   8.145   7.627  11.175  0.6958  0.4210 -1.1068
22456SOL    HW174608   8.155   7.649  11.082 -1.4095  1.0819 -1.2354
22456SOL    HW274609   8.061   7.583  11.180  1.8569 -1.8260  0.1875
22457SOL     OW74610   0.890   9.772   8.263  0.7651  0.1000  0.2492
22457SOL    HW174611   0.805   9.796   8.227  0.1863 -0.6586  1.0609
22457SOL    HW274612   0.935   9.729   8.190  0.2019 -0.0632 -0.0104
22458SOL     OW74613   8.683   1.106   6.536 -0.6119  0.0271  0.2872
22458SOL    HW174614   8.673   1.032   6.596 -0.5826  0.4980  0.8773
22458SOL    HW274615   8.777   1.125   6.537 -0.2737 -1.3003 -1.5357
22459SOL     OW74616   6.559  10.192   1.174 -0.3159  0.1231 -0.9825
22459SOL    HW174617   6.597  10.216   1.089 -0.3008  2.3546 -0.4038
22459SOL    HW274618   6.589  10.261   1.234 -2.9905  0.4738  0.1100
22460SOL     OW74619   7.147   8.031   4.255  0.5101 -0.3316 -0.4608
22460SOL    HW174620   7.148   8.045   4.349 -0.1052 -0.3110 -0.4546
22460SOL    HW274621   7.239   8.013   4.232  0.6873 -0.1535  0.1079
22461SOL     OW74622  11.759   1.296   3.552 -0.0940  0.4818 -0.8636
22461SOL    HW174623  11.803   1.381   3.544  0.1502  0.3872 -0.5661
22461SOL    HW274624  11.680   1.315   3.602  0.9664  0.2143  1.0161
22462SOL     OW74625   4.836  11.930   5.502 -0.7515  0.3227 -0.1404
22462SOL    HW174626   4.789  11.989   5.443 -0.7065  0.4048 -0.0948
22462SOL    HW274627   4.922  11.917   5.461 -0.7634  0.2856 -0.1534
22463SOL     OW74628   0.784   2.825   6.825 -0.1948  0.4723  0.3153
22463SOL    HW174629   0.775   2.894   6.759  0.4145  0.4104  0.1577
22463SOL    HW274630   0.842   2.863   6.891 -0.7185  0.4940  0.7625
22464SOL     OW74631   0.478   0.944   5.795  0.0395  0.2682  0.0704
22464SOL    HW174632   0.540   1.017   5.804  1.3012 -0.8654  1.1726
22464SOL    HW274633   0.481   0.921   5.703 -0.3088  1.5366 -0.2762
22465SOL     OW74634  10.073   1.713  12.648  0.0356  0.0094  0.0675
22465SOL    HW174635  10.127   1.775  12.599  0.1974  0.4522  0.7960
22465SOL    HW274636   9.998   1.695  12.590 -0.8749  2.1716  0.5090
22466SOL     OW74637   9.665   5.760   4.724  0.1132  0.3955 -0.3601
22466SOL    HW174638   9.660   5.828   4.657  0.6522  1.7598  0.9184
22466SOL    HW274639   9.759   5.740   4.731  0.1156  0.5975  0.2886
22467SOL     OW74640  12.402   6.035   9.009 -0.3723 -0.3787  0.5350
22467SOL    HW174641  12.464   6.016   8.939 -0.2887 -3.0876  1.2179
22467SOL    HW274642  12.455   6.037   9.088 -0.6349  1.4217  0.6955
22468SOL     OW74643  10.296  11.999   4.802  0.7158  0.0944  0.3235
22468SOL    HW174644  10.351  12.076   4.818  0.4093  0.1073  1.4242
22468SOL    HW274645  10.349  11.926   4.835  1.2917 -0.2749 -1.3384
22469SOL     OW74646  11.537   6.303   3.819 -0.3294  0.2923  0.7834
22469SOL    HW174647  11.614   6.270   3.773 -0.1611 -0.4856  1.5985
22469SOL    HW274648  11.484   6.343   3.751 -0.2102 -1.0571 -0.1361
22470SOL     OW74649   9.397   6.562   3.835 -0.4464  0.0975 -0.0166
22470SOL    HW174650   9.386   6.610   3.753  0.4457  1.0283  0.3714
22470SOL    HW274651   9.473   6.604   3.876 -1.1825 -0.0047  1.5122
22471SOL     OW74652   4.647   1.161  11.881  0.4442  0.5064 -0.5047
22471SOL    HW174653   4.594   1.085  11.858 -0.0378  0.9105 -0.7532
22471SOL    HW274654   4.728   1.149  11.831 -0.1680  0.8353 -1.6114
22472SOL     OW74655  12.504   7.677  11.036  0.5319 -0.0288  0.2106
22472SOL    HW174656  12.510   7.717  10.949  2.0472 -0.0439  0.2858
22472SOL    HW274657  12.566   7.726  11.089  1.2631 -1.4180  0.7090
22473SOL     OW74658   5.481   7.736  11.613 -0.5340 -0.1561 -0.0193
22473SOL    HW174659   5.546   7.777  11.670  0.6223 -0.0792 -1.3261
22473SOL    HW274660   5.471   7.647  11.647 -0.8007  0.2510  1.0181
22474SOL     OW74661  11.335   9.579   3.483  1.0789  0.1294  0.5138
22474SOL    HW174662  11.268   9.552   3.420  1.6956  0.7545 -0.4419
22474SOL    HW274663  11.286   9.621   3.554  0.0038 -3.7330  2.3585
22475SOL     OW74664   1.653   5.054  12.133  0.0616 -0.1859 -0.2607
22475SOL    HW174665   1.698   5.135  12.109 -0.9323  0.8108  0.9964
22475SOL    HW274666   1.569   5.059  12.087 -0.4305  0.0486  0.6210
22476SOL     OW74667   7.024   1.003   7.557 -0.3231  0.1236  0.1347
22476SOL    HW174668   6.948   0.944   7.554  0.4040 -0.9047  1.2799
22476SOL    HW274669   7.091   0.958   7.506 -0.0017  0.3221  0.3778
22477SOL     OW74670   6.987   4.025   7.222 -0.3082 -0.2579 -0.5936
22477SOL    HW174671   6.932   4.028   7.300  1.1023 -0.2086  0.4423
22477SOL    HW274672   6.950   3.955   7.169 -1.0877 -0.5211  0.2728
22478SOL     OW74673   3.669   0.798   5.737  0.1408  0.6960 -0.2465
22478SOL    HW174674   3.733   0.734   5.766  0.7007  0.7313 -1.3495
22478SOL    HW274675   3.624   0.826   5.817  0.2421 -0.6734  0.3141
22479SOL     OW74676   8.325   2.260  10.600 -0.0128 -0.2559  0.8235
22479SOL    HW174677   8.250   2.316  10.584  0.5644  0.6930  1.3013
22479SOL    HW274678   8.314   2.230  10.691 -1.4987 -2.8249 -0.1054
22480SOL     OW74679  12.396   7.413   8.718 -0.5678  0.7770 -0.1090
22480SOL    HW174680  12.344   7.441   8.642 -0.6698 -0.9105 -0.7250
22480SOL    HW274681  12.467   7.476   8.723 -1.2497  1.6351 -0.8597
22481SOL     OW74682  10.502  11.665   0.383  0.5931  0.5247 -0.4791
22481SOL    HW174683  10.558  11.673   0.461 -0.3260 -0.9744  0.3819
22481SOL    HW274684  10.526  11.741   0.329  0.7935  1.9976  1.5449
22482SOL     OW74685   5.192  12.640   7.821  0.0806  0.5095  0.0111
22482SOL    HW174686   5.130  12.610   7.887  1.6329 -1.2886  0.7480
22482SOL    HW274687   5.262  12.575   7.822  1.0225  1.3688 -2.1918
22483SOL     OW74688   2.598   6.182  12.652  0.0579 -0.6493  0.0392
22483SOL    HW174689   2.553   6.127  12.588 -0.7787 -0.1072  0.1541
22483SOL    HW274690   2.593   6.132  12.733 -0.5461 -0.4932  0.1047
22484SOL     OW74691  10.701   7.567  11.514  0.0690  0.0257  0.2588
22484SOL    HW174692  10.730   7.526  11.596  0.6847  1.4021  0.7553
22484SOL    HW274693  10.775   7.553  11.454  0.0393 -0.0923  0.2490
22485SOL     OW74694   8.346   2.542   5.990  0.2269 -0.7362  0.2411
22485SOL    HW174695   8.415   2.605   6.012 -0.6483 -0.7025  3.3224
22485SOL    HW274696   8.391   2.473   5.941  1.5674  1.2606 -1.5616
22486SOL     OW74697   7.926  11.898   6.688  0.1314  0.0145  0.1122
22486SOL    HW174698   7.896  11.816   6.727 -0.7425  0.7034  0.9597
22486SOL    HW274699   7.969  11.944   6.760 -1.5662  1.3424  0.3256
22487SOL     OW74700   9.215   8.807   5.885  0.4458  0.0878 -0.5644
22487SOL    HW174701   9.254   8.813   5.972  1.9419  0.3719 -1.2201
22487SOL    HW274702   9.290   8.807   5.825 -0.5017 -0.9673 -1.8159
22488SOL     OW74703  11.505   9.048  11.089 -0.2586 -0.3004 -0.0597
22488SOL    HW174704  11.496   9.115  11.021  0.4470 -0.1137  0.0232
22488SOL    HW274705  11.595   9.056  11.119 -0.2683 -1.0599  0.1963
22489SOL     OW74706  11.555   1.315  10.513  0.0060  0.8003 -0.0388
22489SOL    HW174707  11.498   1.318  10.590  2.8927 -3.3880  2.7394
22489SOL    HW274708  11.635   1.359  10.540  0.6623  0.3174 -1.1156
22490SOL     OW74709   8.457   9.947   1.069  0.0068 -0.2000  0.0102
22490SOL    HW174710   8.412   9.945   0.985 -0.3601 -1.2571  0.2156
22490SOL    HW274711   8.478  10.040   1.083  0.8196 -0.0909 -1.6202
22491SOL     OW74712   9.671   2.577   6.776  0.1218 -0.0650 -0.1130
22491SOL    HW174713   9.697   2.504   6.720  2.0896 -0.2593  0.9812
22491SOL    HW274714   9.681   2.655   6.721  0.3648 -0.4014 -0.5481
22492SOL     OW74715  12.053   0.003   1.435  0.1275  0.5890  0.1663
22492SOL    HW174716  11.996   0.063   1.388 -1.7826 -0.5949  0.8514
22492SOL    HW274717  12.090   0.055   1.506 -1.7886  0.9211  0.9762
22493SOL     OW74718   0.956  11.652  12.369  0.1787  0.4882  0.1041
22493SOL    HW174719   0.958  11.664  12.464  0.7283  0.7553  0.0635
22493SOL    HW274720   1.040  11.687  12.339  0.4513 -0.5569 -0.3739
22494SOL     OW74721   0.680   6.403   9.780 -0.0754  0.6457 -0.5571
22494SOL    HW174722   0.598   6.384   9.736  0.5229  0.7315 -1.7529
22494SOL    HW274723   0.678   6.498   9.793 -0.2432  0.6239 -0.4189
22495SOL     OW74724   4.869   2.108  12.082 -0.4873 -0.0873  0.2078
22495SOL    HW174725   4.805   2.037  12.086  0.8861 -1.3173  1.6489
22495SOL    HW274726   4.876   2.140  12.172  0.3301  0.5780 -0.0733
22496SOL     OW74727   3.764   8.254  11.118  0.6072 -0.0329 -0.0036
22496SOL    HW174728   3.793   8.216  11.036 -0.2566 -0.9367  0.0992
22496SOL    HW274729   3.695   8.315  11.093  1.7312  1.2407 -0.1294
22497SOL     OW74730   9.111   8.013   3.491  0.3039  0.5437  0.3253
22497SOL    HW174731   9.100   7.997   3.397 -0.3035 -0.9393  0.6194
22497SOL    HW274732   9.181   8.078   3.496  3.6614 -2.6081 -1.0402
22498SOL     OW74733   0.272  11.846   4.531  0.2912 -0.0195  0.2976
22498SOL    HW174734   0.297  11.754   4.530 -2.7580 -0.9575 -1.0634
22498SOL    HW274735   0.233  11.861   4.445 -2.0719  1.6675  1.5543
22499SOL     OW74736   9.564   8.168   1.105 -0.1177 -0.6936 -0.2387
22499SOL    HW174737   9.495   8.122   1.057  0.0031 -0.8227 -0.2898
22499SOL    HW274738   9.557   8.259   1.076  0.5480 -0.9339 -1.2062
22500SOL     OW74739  11.145   3.304  11.092  0.1595 -0.8826 -0.7172
22500SOL    HW174740  11.066   3.347  11.061  0.8099 -0.9133 -2.5215
22500SOL    HW274741  11.196   3.286  11.013  0.8704 -3.0761  0.1504
22501SOL     OW74742   1.750   7.056   8.174  0.2503  0.0599  0.0952
22501SOL    HW174743   1.731   7.002   8.251 -0.8576 -0.4488 -0.5166
22501SOL    HW274744   1.836   7.027   8.144  0.6571  0.2082  1.0864
22502SOL     OW74745  10.765   8.487   2.019  0.0026 -0.0474  0.1523
22502SOL    HW174746  10.696   8.541   2.058 -0.2723 -0.3326  0.0628
22502SOL    HW274747  10.750   8.399   2.052  0.7212  0.0054  0.6477
22503SOL     OW74748  10.032   0.772   1.105  0.4493  0.3258 -0.6489
22503SOL    HW174749  10.054   0.865   1.103  0.0259  0.5492  1.8562
22503SOL    HW274750   9.943   0.767   1.069  0.2118  0.9966 -0.1684
22504SOL     OW74751   0.079  11.966  11.438  0.5016  0.0498 -0.2843
22504SOL    HW174752   0.015  12.034  11.461 -0.0153 -0.9015  1.2343
22504SOL    HW274753   0.164  12.006  11.455  0.1671 -0.1965  2.2831
22505SOL     OW74754   1.007   1.172  10.204 -0.2836  0.0257 -0.0577
22505SOL    HW174755   0.978   1.109  10.269 -1.5076 -1.0635 -1.5879
22505SOL    HW274756   1.098   1.191  10.228  1.1872 -4.4641 -1.0082
22506SOL     OW74757   9.567   8.424   8.992  0.2043  0.3734 -0.0914
22506SOL    HW174758   9.597   8.511   9.019 -0.3515  0.9892 -1.3236
22506SOL    HW274759   9.492   8.442   8.935 -0.3496 -0.9578  0.1886
22507SOL     OW74760   1.832   0.632   1.055  0.2129  0.1228 -0.6473
22507SOL    HW174761   1.884   0.624   1.135 -1.4717 -0.5494  0.4237
22507SOL    HW274762   1.883   0.690   0.999  2.6827 -1.4185 -0.1423
22508SOL     OW74763   6.650   3.952   1.061  0.1174 -0.3941 -0.2756
22508SOL    HW174764   6.657   3.878   1.001 -0.2261 -0.3079 -0.4261
22508SOL    HW274765   6.712   4.017   1.028  2.0667 -1.4500  1.1168
22509SOL     OW74766  11.009   8.076   7.270  0.4434 -0.2268  0.2976
22509SOL    HW174767  11.017   8.085   7.365 -1.4409 -1.3089  0.6113
22509SOL    HW274768  11.095   8.101   7.236  1.6353 -1.2763  2.3808
22510SOL     OW74769   4.711  11.496   0.963 -0.2307  0.2914 -0.0757
22510SOL    HW174770   4.766  11.572   0.980  1.6014 -0.7840 -0.8347
22510SOL    HW274771   4.768  11.421   0.980 -2.1578 -0.9621  1.2604
22511SOL     OW74772   9.276   2.997   6.595 -0.0744  0.4146 -0.2766
22511SOL    HW174773   9.196   2.961   6.633  0.6832 -1.2899 -0.1559
22511SOL    HW274774   9.337   3.004   6.669  0.8595 -1.3059 -0.8235
22512SOL     OW74775   1.669   0.407   1.246  0.1954  0.1393  0.5198
22512SOL    HW174776   1.614   0.342   1.289 -1.0523 -1.0425 -2.5261
22512SOL    HW274777   1.757   0.370   1.251 -0.0873 -0.4952  1.0780
22513SOL     OW74778   7.809   6.775   9.071 -0.1072 -0.7182 -0.1513
22513SOL    HW174779   7.866   6.839   9.114  0.5828 -1.1438 -0.4083
22513SOL    HW274780   7.720   6.800   9.097  0.2178 -0.2640  0.5625
22514SOL     OW74781   3.201   9.748   8.300  0.5598  0.2703  0.2284
22514SOL    HW174782   3.235   9.762   8.389  0.5855  0.0518  0.2529
22514SOL    HW274783   3.227   9.827   8.252 -0.5804  0.9935  0.7493
22515SOL     OW74784   2.885  11.569   6.750 -0.2059  0.2805 -0.3269
22515SOL    HW174785   2.887  11.584   6.656  0.7227 -0.4892 -0.4491
22515SOL    HW274786   2.928  11.645   6.788  0.5215  0.0180 -0.6162
22516SOL     OW74787   0.486   0.587   9.522 -0.1120 -0.2121  0.3284
22516SOL    HW174788   0.403   0.588   9.570 -0.9869 -3.7789 -0.8011
22516SOL    HW274789   0.463   0.551   9.436  2.2787  0.8470 -0.8367
22517SOL     OW74790  10.590   9.307   8.688  0.1669 -0.4505 -0.5781
22517SOL    HW174791  10.546   9.354   8.758  0.4821 -0.9807 -0.0111
22517SOL    HW274792  10.678   9.344   8.685  0.5794 -1.3101  0.2068
22518SOL     OW74793   6.131   9.955   1.146  0.2011  0.5847  0.0338
22518SOL    HW174794   6.195   9.884   1.149 -1.4828 -1.2966 -3.1752
22518SOL    HW274795   6.076   9.941   1.223  0.9053 -0.5782  0.3449
22519SOL     OW74796   4.174   4.576  11.237 -0.5142  0.0254 -0.1456
22519SOL    HW174797   4.104   4.622  11.284  0.7613 -0.3795  2.3299
22519SOL    HW274798   4.159   4.597  11.145 -4.3684 -0.6898  0.1294
22520SOL     OW74799   1.767  12.466   1.048 -0.3756 -0.4379  0.5652
22520SOL    HW174800   1.758  12.485   1.141 -0.7445 -2.2987  0.9419
22520SOL    HW274801   1.699  12.520   1.006  1.7155  2.7512  0.9572
22521SOL     OW74802   0.879  10.184   1.102  0.0257  0.0221  0.4195
22521SOL    HW174803   0.856  10.120   1.035  1.3835 -1.1033  0.9801
22521SOL    HW274804   0.795  10.222   1.129 -0.8581 -1.6709  0.2020
22522SOL     OW74805   2.705  11.335   6.637 -0.0982 -0.4243  0.2062
22522SOL    HW174806   2.639  11.377   6.692  1.4001  1.3597  0.7617
22522SOL    HW274807   2.751  11.276   6.696 -0.6314 -1.0264  0.0275
22523SOL     OW74808   9.286  10.262  11.979 -0.3649 -0.2788 -0.1471
22523SOL    HW174809   9.234  10.338  12.006  0.4400 -0.0896  0.9366
22523SOL    HW274810   9.358  10.298  11.928 -0.0966 -0.3209  0.1953
22524SOL     OW74811  10.188   0.354  11.498  0.0735 -0.6356 -0.4415
22524SOL    HW174812  10.256   0.344  11.564  0.1846 -1.9917 -0.7359
22524SOL    HW274813  10.123   0.287  11.519 -1.0262  0.3984 -0.3755
22525SOL     OW74814   2.934   2.314  11.582  0.2702 -0.1036  0.6298
22525SOL    HW174815   2.988   2.252  11.631  0.2285 -0.9921 -0.4142
22525SOL    HW274816   2.974   2.318  11.495 -1.3708 -0.8782 -0.2156
22526SOL     OW74817  10.004   7.934   6.716 -0.3685  0.2951 -0.5337
22526SOL    HW174818   9.967   7.859   6.671  0.5018 -1.5948  1.7040
22526SOL    HW274819   9.929   7.975   6.760 -0.8423  0.8162 -1.7694
22527SOL     OW74820   3.102   0.472   8.721 -0.5627  0.9587 -0.3278
22527SOL    HW174821   3.019   0.425   8.710 -0.4314 -0.5120  3.5229
22527SOL    HW274822   3.083   0.562   8.693 -3.4178  0.6253  0.2852
22528SOL     OW74823   5.641   3.636   9.142  0.1666 -0.4463  0.4849
22528SOL    HW174824   5.630   3.598   9.055 -0.5112 -2.0646  1.2456
22528SOL    HW274825   5.552   3.639   9.178  0.2523  1.4245  0.6757
22529SOL     OW74826   7.466   5.393  11.144  0.3438  0.7755 -0.3058
22529SOL    HW174827   7.454   5.465  11.082  2.1036  0.3921 -1.1666
22529SOL    HW274828   7.549   5.414  11.188 -0.4481  0.6061  1.3510
22530SOL     OW74829   0.533   4.344   3.098 -0.3746 -0.5960  0.4195
22530SOL    HW174830   0.439   4.331   3.085 -0.0962 -1.0149 -1.6508
22530SOL    HW274831   0.566   4.257   3.123 -0.6099 -0.2775  1.9355
22531SOL     OW74832   5.276   6.448   2.313  0.4364  0.4395  0.2266
22531SOL    HW174833   5.317   6.362   2.316 -0.1659  0.0277 -1.8966
22531SOL    HW274834   5.349   6.510   2.306  0.8123 -0.0865 -0.6288
22532SOL     OW74835   4.089   4.110  12.510 -0.3506  0.2588  0.0384
22532SOL    HW174836   4.057   4.191  12.549  1.0359  0.4067  0.9472
22532SOL    HW274837   4.175   4.133  12.476  0.0828 -0.8359  0.3618
22533SOL     OW74838   3.770  11.139  10.439 -0.5138  0.8009 -0.0566
22533SOL    HW174839   3.822  11.086  10.500 -1.2722 -1.2135 -1.0415
22533SOL    HW274840   3.822  11.141  10.359 -1.0169  0.5155 -0.3966
22534SOL     OW74841  10.997   2.057  12.351  0.1126  0.0584 -0.4717
22534SOL    HW174842  11.091   2.074  12.346 -0.0790  1.1076 -0.8814
22534SOL    HW274843  10.974   2.027  12.263 -0.0379  0.4143 -0.5567
22535SOL     OW74844  10.660   3.809  11.636  0.2458  0.2740 -0.3240
22535SOL    HW174845  10.700   3.847  11.557 -0.7731 -0.2423 -1.1234
22535SOL    HW274846  10.681   3.716  11.631 -1.2966 -0.0916 -0.9834
22536SOL     OW74847   1.714   5.591  12.552  0.3839 -0.0073  0.1411
22536SOL    HW174848   1.713   5.640  12.634 -0.2839 -1.4793  1.0640
22536SOL    HW274849   1.807   5.569  12.539  0.5749  0.7651  0.1635
22537SOL     OW74850   1.353  10.519  10.849  0.0017 -0.1609 -0.7135
22537SOL    HW174851   1.369  10.517  10.943  0.3775  0.0453 -0.7750
22537SOL    HW274852   1.440  10.525  10.809 -0.2116  0.8386 -1.0458
22538SOL     OW74853   1.857   5.049   1.419 -0.1487 -0.4378  0.5293
22538SOL    HW174854   1.919   5.044   1.346  0.2656  0.7205  0.7698
22538SOL    HW274855   1.912   5.052   1.497 -0.3519  2.3888  0.6737
22539SOL     OW74856  10.077   2.918   9.773  0.6491  1.1769 -0.5390
22539SOL    HW174857   9.995   2.923   9.821  1.1775 -0.6385  0.6659
22539SOL    HW274858  10.063   2.848   9.708  1.5124  0.1076  0.3718
22540SOL     OW74859  12.646   1.196   1.348  0.1568 -0.0723 -0.4983
22540SOL    HW174860  12.695   1.274   1.373  0.1645 -0.4045  0.6049
22540SOL    HW274861  12.710   1.139   1.305  0.0214  0.7482 -1.8161
22541SOL     OW74862  12.502   1.691   9.285 -0.3298 -0.0006  0.6307
22541SOL    HW174863  12.493   1.736   9.201 -1.5699  1.3296  1.4313
22541SOL    HW274864  12.482   1.599   9.265  0.5697  0.0685 -0.7200
22542SOL     OW74865   0.814   1.388   3.286  0.0696  0.5996 -0.4898
22542SOL    HW174866   0.739   1.362   3.340  1.5342 -1.5108  0.6869
22542SOL    HW274867   0.870   1.437   3.346  1.4514 -1.2947 -0.1136
22543SOL     OW74868   8.795   6.858   5.474 -0.2639 -0.2117  0.3027
22543SOL    HW174869   8.782   6.935   5.529 -0.4365  0.6064 -0.8495
22543SOL    HW274870   8.884   6.867   5.441 -0.7191  0.1986 -0.8676
22544SOL     OW74871  10.821   0.204   0.272 -0.1158 -0.6215 -0.5077
22544SOL    HW174872  10.863   0.223   0.189 -0.3371 -1.5965 -0.8571
22544SOL    HW274873  10.894   0.192   0.333  0.0321  1.0899 -0.3057
22545SOL     OW74874   8.184  12.469   8.214  0.2641 -0.6057 -0.4630
22545SOL    HW174875   8.147  12.399   8.267 -0.2347 -1.0885 -1.4352
22545SOL    HW274876   8.117  12.489   8.149  0.4217  0.7311 -0.2603
22546SOL     OW74877   4.029   8.268   6.581 -0.1620 -0.2698  0.0901
22546SOL    HW174878   4.095   8.334   6.602 -2.6256  1.9487  1.4240
22546SOL    HW274879   4.033   8.260   6.486  0.4432  1.6208 -0.0919
22547SOL     OW74880   7.897   0.129   7.041 -0.4779 -0.4471  0.2047
22547SOL    HW174881   7.833   0.070   7.003 -1.5461  0.5909  0.3290
22547SOL    HW274882   7.859   0.216   7.030  0.9993  0.2225  0.1215
22548SOL     OW74883   0.428   9.689   4.146 -0.6247 -0.2747 -0.1068
22548SOL    HW174884   0.341   9.714   4.177  0.3016 -0.0613  2.5273
22548SOL    HW274885   0.486   9.705   4.220  1.3489 -2.4384 -1.0521
22549SOL     OW74886   5.164   0.364   4.077 -0.2868 -0.4089 -0.2637
22549SOL    HW174887   5.192   0.276   4.052  0.7813 -0.8915  2.3560
22549SOL    HW274888   5.220   0.422   4.024  0.0812 -1.2971 -0.8752
22550SOL     OW74889   5.905  10.842  11.624 -0.4446  0.4902  0.1516
22550SOL    HW174890   5.843  10.778  11.589  1.6274 -0.8188 -1.3507
22550SOL    HW274891   5.926  10.809  11.711 -0.5332 -0.0178 -0.0161
22551SOL     OW74892   6.571   3.543   8.709 -0.0585 -0.3246 -0.7031
22551SOL    HW174893   6.591   3.543   8.615 -1.2076 -0.1034 -0.9683
22551SOL    HW274894   6.655   3.524   8.752  0.8327  1.1720 -1.6931
22552SOL     OW74895   3.971  11.551   1.756  0.0061 -0.1066 -0.5669
22552SOL    HW174896   3.953  11.465   1.796 -0.0238  0.0471 -0.2425
22552SOL    HW274897   4.056  11.576   1.792  0.0117  0.0033 -0.6565
22553SOL     OW74898   9.811   5.997  12.230 -0.1704  0.5783  0.2264
22553SOL    HW174899   9.879   6.056  12.195  1.6215 -0.3153  2.0163
22553SOL    HW274900   9.741   6.001  12.165  0.6722  3.1849 -0.6830
22554SOL     OW74901   5.817   2.246   6.443  0.4301  0.5581 -0.5767
22554SOL    HW174902   5.849   2.250   6.533  0.6951  1.1072 -0.6922
22554SOL    HW274903   5.864   2.172   6.404  2.1492  1.7916 -0.9572
22555SOL     OW74904   7.726   7.584   4.283 -0.4783  0.0411  0.4282
22555SOL    HW174905   7.674   7.528   4.341 -1.0367  0.5403  0.4141
22555SOL    HW274906   7.742   7.664   4.334 -0.8331  0.4166 -0.0422
22556SOL     OW74907   9.142  10.920   2.352 -0.4071 -0.3323 -0.5724
22556SOL    HW174908   9.173  10.838   2.313 -1.7751 -1.7585  1.1264
22556SOL    HW274909   9.203  10.937   2.424  0.6615  0.9343 -1.7250
22557SOL     OW74910   6.204   7.151   9.947  0.6770 -0.1217 -0.2335
22557SOL    HW174911   6.152   7.148  10.028 -0.2356  0.8068 -0.7470
22557SOL    HW274912   6.141   7.180   9.881  1.5255 -0.4233 -1.1857
22558SOL     OW74913   7.506  12.094   9.260 -0.0280  0.7188  0.3001
22558SOL    HW174914   7.524  12.000   9.273  1.3685  0.8047 -0.7214
22558SOL    HW274915   7.412  12.102   9.271 -0.0820 -0.6701  1.1940
22559SOL     OW74916   3.434  10.155   8.214  0.3397 -0.2222  0.1007
22559SOL    HW174917   3.370  10.096   8.175  1.5004 -0.1142 -2.1163
22559SOL    HW274918   3.388  10.239   8.221 -0.3865 -0.6447  0.4580
22560SOL     OW74919  12.606   3.036   5.749  0.3512  0.5643 -0.2957
22560SOL    HW174920  12.646   3.060   5.833 -0.2636  0.8709 -0.0879
22560SOL    HW274921  12.607   2.940   5.749  2.6828  0.5083 -1.0683
22561SOL     OW74922   2.280   8.657   5.847  0.7758 -0.1695  0.0647
22561SOL    HW174923   2.201   8.684   5.800  0.3988  0.5283  1.0735
22561SOL    HW274924   2.318   8.589   5.792 -0.3280 -0.2563 -0.6288
22562SOL     OW74925   2.554  12.059   1.469  0.0856 -0.1845  0.5395
22562SOL    HW174926   2.464  12.083   1.448  0.6422  0.6038 -1.1785
22562SOL    HW274927   2.550  12.026   1.559 -1.7351  0.7844  0.8674
22563SOL     OW74928   2.640   2.085   4.993  0.2242 -0.2444  0.6685
22563SOL    HW174929   2.552   2.102   4.959  0.7611  2.2643  0.3511
22563SOL    HW274930   2.625   2.043   5.078 -1.3414  1.1688  1.1515
22564SOL     OW74931   6.587   8.724   5.749 -0.2415 -0.0530 -0.2911
22564SOL    HW174932   6.493   8.710   5.740 -0.1657  0.0492 -1.2575
22564SOL    HW274933   6.622   8.719   5.660  0.3567  2.1661 -0.2425
22565SOL     OW74934   8.495   9.205   3.103 -0.1899  0.3479  0.0654
22565SOL    HW174935   8.579   9.247   3.084  0.4131 -0.9214 -0.1613
22565SOL    HW274936   8.467   9.167   3.020 -0.4612 -0.1503  0.3780
22566SOL     OW74937   6.800  12.656   3.026 -1.4316 -0.6440  0.3360
22566SOL    HW174938   6.868  12.639   3.090 -1.6531 -0.1555  0.7073
22566SOL    HW274939   6.770  12.569   2.999  0.4725 -0.9286 -1.0766
22567SOL     OW74940   3.512   4.453   7.824 -0.2757  0.0469  0.2828
22567SOL    HW174941   3.430   4.495   7.798 -0.8875  0.0404  2.0662
22567SOL    HW274942   3.486   4.387   7.887  1.2422  1.6010  2.7162
22568SOL     OW74943   8.106   7.272   0.085  0.1215  0.1061 -0.0193
22568SOL    HW174944   8.021   7.240   0.116  0.2865  0.8006  1.2094
22568SOL    HW274945   8.154   7.193   0.061 -1.3949 -0.2319 -2.2377
22569SOL     OW74946   3.785  10.955   9.778 -0.3621 -0.1478 -0.2645
22569SOL    HW174947   3.742  10.964   9.694 -0.8136 -0.6009 -0.0912
22569SOL    HW274948   3.744  10.877   9.818 -0.5096  0.3420  0.5755
22570SOL     OW74949   4.630  11.984   4.546  0.5739  0.2684  0.4747
22570SOL    HW174950   4.607  11.992   4.638 -0.7579  2.1203  0.0324
22570SOL    HW274951   4.550  11.953   4.504  0.6283  1.1148 -0.2834
22571SOL     OW74952   7.836   7.735   0.750 -0.8305  0.4374  0.4977
22571SOL    HW174953   7.760   7.789   0.727 -1.3081 -0.1451  0.6781
22571SOL    HW274954   7.902   7.798   0.779  0.2478  1.3979 -3.4649
22572SOL     OW74955   5.014   1.038   9.963  0.3420 -0.1056  0.2493
22572SOL    HW174956   5.094   1.035   9.911 -0.4051 -2.5859 -0.9177
22572SOL    HW274957   5.042   1.073  10.048  2.0176  1.9832 -1.0650
22573SOL     OW74958  12.437   9.987   5.476 -0.0109  0.3291  0.2517
22573SOL    HW174959  12.530  10.006   5.491  0.1244  0.7430 -0.9579
22573SOL    HW274960  12.406  10.060   5.423 -0.7234 -0.4075 -0.3781
22574SOL     OW74961   3.764   8.990   9.053 -0.0010  0.3826 -0.4168
22574SOL    HW174962   3.807   8.930   9.114 -1.0744 -1.5370 -1.4614
22574SOL    HW274963   3.698   9.035   9.106  0.5113  0.3284  0.2789
22575SOL     OW74964   8.255   6.699  10.800 -0.1205 -0.4351 -0.4466
22575SOL    HW174965   8.311   6.705  10.723 -0.8172  1.6887 -0.8446
22575SOL    HW274966   8.273   6.778  10.850 -1.1707 -0.7888  0.5485
22576SOL     OW74967  10.984   2.844   8.287 -0.3238  0.0285 -0.2314
22576SOL    HW174968  11.018   2.798   8.363 -1.4435 -0.7381 -0.1682
22576SOL    HW274969  10.950   2.775   8.230 -0.3156  0.6507 -1.0083
22577SOL     OW74970   1.440   2.525   2.266  0.1108  0.0911  0.4569
22577SOL    HW174971   1.520   2.495   2.310  2.2420  2.6021 -1.3682
22577SOL    HW274972   1.403   2.591   2.325  0.8883  0.7654  0.2229
22578SOL     OW74973   2.986   8.375   1.942 -0.1274  0.1093 -0.8018
22578SOL    HW174974   2.991   8.291   1.988 -1.6022 -0.4520 -1.5990
22578SOL    HW274975   3.076   8.391   1.912  0.8976  0.4961  2.1360
22579SOL     OW74976   0.526   1.490  10.589  0.6743 -0.2466 -0.3850
22579SOL    HW174977   0.496   1.570  10.546  1.1679  0.1878  0.0627
22579SOL    HW274978   0.447   1.450  10.623  0.4786  0.3641 -0.0983
22580SOL     OW74979   1.292  10.406   8.194  0.0695 -0.1111 -0.3448
22580SOL    HW174980   1.242  10.352   8.256  2.3193  0.4077  2.0756
22580SOL    HW274981   1.358  10.450   8.248  1.5396  1.1651 -3.0034
22581SOL     OW74982  11.330  10.870   6.728 -0.1280 -0.0622 -0.4153
22581SOL    HW174983  11.422  10.898   6.734  0.6451 -1.4867 -3.4889
22581SOL    HW274984  11.302  10.899   6.641 -2.2593 -0.6683  0.0120
22582SOL     OW74985   4.232  11.582   0.594  0.1355 -0.1546  0.5590
22582SOL    HW174986   4.144  11.574   0.557 -0.4619 -0.1555  1.9214
22582SOL    HW274987   4.290  11.580   0.518 -1.0554  0.1860 -0.3949
22583SOL     OW74988   9.462   5.535  11.863  0.0550 -0.2781 -0.1549
22583SOL    HW174989   9.409   5.599  11.817  0.6049 -0.0323 -0.4615
22583SOL    HW274990   9.542   5.528  11.811  1.0284  0.5923  1.1708
22584SOL     OW74991   1.038   0.729   0.677 -0.0165  0.5046 -0.1605
22584SOL    HW174992   1.054   0.823   0.677  0.9024  0.3664 -0.3771
22584SOL    HW274993   1.045   0.704   0.584 -0.5873  0.2754 -0.1424
22585SOL     OW74994   6.603   0.429   1.700  0.6497  0.4695  0.1387
22585SOL    HW174995   6.529   0.419   1.760 -0.4405  1.9174 -0.8982
22585SOL    HW274996   6.591   0.359   1.636  1.0060 -0.1839  0.7691
22586SOL     OW74997   2.523   9.516   5.221  0.5003 -0.0294 -0.4592
22586SOL    HW174998   2.465   9.502   5.296  0.6079  0.2241 -0.3254
22586SOL    HW274999   2.584   9.442   5.224  1.2577  0.6026  0.4231
22587SOL     OW75000  10.923   8.583   1.822  0.6644 -0.5126 -0.0344
22587SOL    HW175001  10.850   8.551   1.874 -0.0149  0.8208 -0.1154
22587SOL    HW275002  10.902   8.675   1.805  1.5817 -0.5202 -1.4109
22588SOL     OW75003   8.241  10.258   0.903  0.0048  0.0175 -0.2723
22588SOL    HW175004   8.320  10.230   0.857 -0.0274 -1.2031  0.3732
22588SOL    HW275005   8.205  10.327   0.849  1.2848  0.2953 -0.8029
22589SOL     OW75006  10.957   0.411   3.622  0.4134  0.0496 -0.0335
22589SOL    HW175007  11.019   0.362   3.675 -0.3558  0.4495  1.3043
22589SOL    HW275008  10.986   0.399   3.532  2.1747 -0.0917  0.5243
22590SOL     OW75009   1.550   4.431   1.477  0.0312  0.0358 -0.1848
22590SOL    HW175010   1.629   4.413   1.426 -0.2884 -0.8457 -0.3933
22590SOL    HW275011   1.485   4.369   1.443 -0.0819 -0.8354  1.5433
22591SOL     OW75012   5.276   8.227   6.725  0.2402 -0.1559 -0.1163
22591SOL    HW175013   5.333   8.303   6.712  3.6466 -2.2441  1.3691
22591SOL    HW275014   5.257   8.196   6.637  0.7382  1.0313 -0.6695
22592SOL     OW75015  12.138   2.202   2.768 -0.4179  0.2318  0.6563
22592SOL    HW175016  12.122   2.108   2.758 -2.0789  0.5393  0.1546
22592SOL    HW275017  12.196   2.225   2.695 -1.9781  0.0265 -0.6977
22593SOL     OW75018   3.106   8.825   5.640  0.1828 -0.1107 -0.0739
22593SOL    HW175019   3.031   8.880   5.616  0.1297 -0.3189 -0.3907
22593SOL    HW275020   3.160   8.882   5.694 -1.8460 -0.9389  3.1204
22594SOL     OW75021   4.714  11.228   4.162  0.3245  0.1504 -0.3163
22594SOL    HW175022   4.630  11.191   4.136  0.3443 -0.4286  0.4053
22594SOL    HW275023   4.732  11.296   4.097 -0.0572 -0.6235 -1.2622
22595SOL     OW75024  11.045   8.845   8.944  0.6827  0.3140 -0.4833
22595SOL    HW175025  11.041   8.759   8.985  2.3515  0.0732 -0.7501
22595SOL    HW275026  11.027   8.828   8.851  0.1040  0.3988 -0.3916
22596SOL     OW75027  11.971  10.620   7.075  0.3493 -0.0396  0.1537
22596SOL    HW175028  11.898  10.572   7.036  0.1135  1.0949 -0.8866
22596SOL    HW275029  11.955  10.711   7.051  2.3445  0.1975 -0.4814
22597SOL     OW75030   0.848   4.569  11.217  0.5299  0.3082  0.3887
22597SOL    HW175031   0.877   4.566  11.308 -0.8958 -0.3840  0.8555
22597SOL    HW275032   0.920   4.611  11.170  1.0467  1.2356  1.9266
22598SOL     OW75033   2.209   4.412   1.951 -0.2098 -0.8051 -0.2284
22598SOL    HW175034   2.300   4.425   1.925  0.2916 -0.6930  1.4554
22598SOL    HW275035   2.202   4.317   1.966 -0.5529 -0.8990 -0.9423
22599SOL     OW75036   8.442   6.441   9.510 -0.0475  0.0695  0.0722
22599SOL    HW175037   8.529   6.468   9.541  0.1318 -0.0374 -0.3315
22599SOL    HW275038   8.392   6.424   9.589  0.2676  0.2469  0.3092
22600SOL     OW75039   3.539  12.193   5.518 -0.5845  0.1919 -0.2725
22600SOL    HW175040   3.444  12.192   5.507 -0.7603  1.5625  0.8266
22600SOL    HW275041   3.568  12.270   5.469 -0.5570  2.0746  2.4571
22601SOL     OW75042   9.340   5.609   3.313 -0.3069 -0.0937  0.9285
22601SOL    HW175043   9.303   5.544   3.373  0.9771 -2.0885 -0.2968
22601SOL    HW275044   9.422   5.568   3.282  0.8523  2.3660  0.5022
22602SOL     OW75045   5.507   5.868   8.464  0.6234  0.0387 -0.2231
22602SOL    HW175046   5.489   5.809   8.537  1.5588  0.8497  0.6910
22602SOL    HW275047   5.426   5.868   8.413 -0.5562  0.4921  1.5646
22603SOL     OW75048   2.594   5.814   9.430  0.0943  0.4505 -0.0457
22603SOL    HW175049   2.574   5.791   9.340 -0.0056  1.1294 -0.1984
22603SOL    HW275050   2.684   5.784   9.443 -0.2298 -0.5527 -0.0546
22604SOL     OW75051   0.095   5.630   4.668  0.0492  0.2271  0.3707
22604SOL    HW175052   0.002   5.633   4.646  0.3855  0.3496 -1.1312
22604SOL    HW275053   0.133   5.573   4.601  0.9804 -0.3056  1.3134
22605SOL     OW75054   2.810   2.107   7.574 -0.3096  0.5889 -0.5425
22605SOL    HW175055   2.786   2.148   7.657 -0.1746 -0.2380 -0.0827
22605SOL    HW275056   2.849   2.177   7.522 -1.5803  1.4145 -0.4191
22606SOL     OW75057   6.550   2.493   9.337  0.2727  0.5314  0.2152
22606SOL    HW175058   6.544   2.423   9.271  0.7526  1.5055 -0.9048
22606SOL    HW275059   6.639   2.526   9.329  1.1617 -0.8919  3.0565
22607SOL     OW75060   3.941  11.278  10.894  0.4046 -0.1743 -0.3799
22607SOL    HW175061   3.868  11.241  10.844  0.6325 -0.8971 -0.1888
22607SOL    HW275062   3.899  11.331  10.962  0.0728  2.1627 -2.2512
22608SOL     OW75063   5.878  11.238  10.397  0.2195  0.6511 -0.3946
22608SOL    HW175064   5.900  11.329  10.415 -0.6464  0.9848 -0.9837
22608SOL    HW275065   5.858  11.236  10.303  3.7304 -0.8543 -1.2692
22609SOL     OW75066  12.421   5.536  12.238 -0.1474 -0.3549  0.0349
22609SOL    HW175067  12.325   5.536  12.245 -0.0319 -1.6009  2.5732
22609SOL    HW275068  12.439   5.601  12.169 -2.6595  3.0436  2.2307
22610SOL     OW75069   8.693  11.710   0.454 -0.8247 -0.2408  0.2123
22610SOL    HW175070   8.609  11.666   0.466 -1.6517  1.2532  0.1444
22610SOL    HW275071   8.719  11.689   0.365 -0.6526 -1.4671  0.5357
22611SOL     OW75072   2.521   2.587   3.227 -0.0879 -0.1724 -0.3809
22611SOL    HW175073   2.504   2.619   3.316 -0.2236 -0.2652 -0.3728
22611SOL    HW275074   2.572   2.507   3.240  1.4842  0.7624 -0.4366
22612SOL     OW75075   4.304  12.676  11.216 -0.1842 -0.3312  0.0379
22612SOL    HW175076   4.356  12.697  11.293 -1.9352  0.3716  1.0865
22612SOL    HW275077   4.355  12.713  11.143  0.5755  0.7407  1.0613
22613SOL     OW75078   0.140   8.368   2.001  0.4694  0.3413 -0.3537
22613SOL    HW175079   0.142   8.464   2.003 -0.0134  0.3470  1.1988
22613SOL    HW275080   0.138   8.342   2.094  1.8338 -1.2083 -0.7055
22614SOL     OW75081   0.115   2.396   0.622 -0.2877  0.1365 -0.0818
22614SOL    HW175082   0.162   2.470   0.585  2.2650 -2.2033 -1.9236
22614SOL    HW275083   0.023   2.413   0.604  0.0049  3.4962  0.9758
22615SOL     OW75084   2.884   1.506   1.500 -0.0478 -0.6116  0.6632
22615SOL    HW175085   2.927   1.502   1.585 -0.4596  1.1891  1.0106
22615SOL    HW275086   2.937   1.450   1.443  2.4541  1.0349  1.2045
22616SOL     OW75087   5.095   9.732  10.530  0.0419  0.1627 -0.2925
22616SOL    HW175088   5.129   9.686  10.453 -0.4805 -1.2714  0.3019
22616SOL    HW275089   5.029   9.673  10.566 -0.7395  1.4519  0.4496
22617SOL     OW75090   5.564   4.271   7.242  0.4423 -0.2963  0.2359
22617SOL    HW175091   5.568   4.362   7.270  1.8121 -0.2371 -0.0785
22617SOL    HW275092   5.570   4.276   7.146  1.4208 -0.7559  0.2720
22618SOL     OW75093   4.716  10.364  10.170  0.3159  0.2807 -0.3349
22618SOL    HW175094   4.760  10.338  10.252  1.6019  0.7184 -0.8594
22618SOL    HW275095   4.671  10.285  10.141  1.2864 -0.3727 -0.0980
22619SOL     OW75096  11.045   3.519  10.740  0.0035  0.0221 -0.2960
22619SOL    HW175097  11.034   3.607  10.703 -2.1044 -0.9644 -2.2349
22619SOL    HW275098  11.034   3.460  10.666  1.9546 -1.9204  0.8399
22620SOL     OW75099   9.941   9.628   0.601 -0.0138  0.0052 -0.4389
22620SOL    HW175100   9.953   9.612   0.508 -1.3988 -0.9687 -0.4781
22620SOL    HW275101  10.019   9.590   0.643  0.4091  0.0724 -1.1484
22621SOL     OW75102   1.196   9.781  12.165 -0.0888  0.0808  0.3278
22621SOL    HW175103   1.254   9.852  12.136 -1.4502  0.6295 -1.1863
22621SOL    HW275104   1.255   9.707  12.177  1.0272  0.7703 -0.6039
22622SOL     OW75105   2.950   8.044   3.308 -0.2567  0.1053 -0.5654
22622SOL    HW175106   2.930   7.971   3.366  0.3681  0.2285 -0.1900
22622SOL    HW275107   2.876   8.048   3.248 -0.0069 -1.2578 -1.0015
22623SOL     OW75108  11.151  11.329   9.153 -0.0064 -0.0116  0.4614
22623SOL    HW175109  11.212  11.304   9.083 -0.0470  0.5089  0.2327
22623SOL    HW275110  11.205  11.339   9.231  0.3628  1.3696  0.0522
22624SOL     OW75111   0.618   4.544  12.544  0.3921 -0.4249  0.0593
22624SOL    HW175112   0.682   4.614  12.532  0.5428 -0.6237 -0.3138
22624SOL    HW275113   0.651   4.494  12.619  0.0212  0.1883  0.6403
22625SOL     OW75114   9.473   4.538   9.904 -0.4675  0.0786 -0.1192
22625SOL    HW175115   9.530   4.602   9.948 -0.5872  0.6320 -0.7510
22625SOL    HW275116   9.506   4.453   9.933 -0.3875  0.4203  0.8363
22626SOL     OW75117   4.765  12.255   7.294  0.2144 -0.3570 -0.3365
22626SOL    HW175118   4.769  12.345   7.260 -2.0519  0.2238  0.7357
22626SOL    HW275119   4.814  12.203   7.231 -0.4895  1.2617 -2.3276
22627SOL     OW75120   9.118   0.873   3.873  0.3599  0.0368  0.1089
22627SOL    HW175121   9.038   0.820   3.876  1.8735 -2.3638  1.2618
22627SOL    HW275122   9.127   0.909   3.961  0.2924  0.7334 -0.1639
22628SOL     OW75123   2.459  11.749   8.947  0.0514  0.0953 -0.3913
22628SOL    HW175124   2.390  11.720   8.887 -0.4490  2.2450 -0.9673
22628SOL    HW275125   2.531  11.775   8.890  0.7575 -0.7158  0.1270
22629SOL     OW75126   8.861  11.783   6.771 -0.1649 -0.1850  0.1260
22629SOL    HW175127   8.779  11.743   6.741  0.2701  0.1797 -1.6355
22629SOL    HW275128   8.915  11.709   6.797 -0.4584 -0.5381 -0.2492
22630SOL     OW75129   3.767   9.728   7.014 -0.2045 -0.2476 -0.4589
22630SOL    HW175130   3.805   9.671   7.081 -0.8641 -1.1620 -0.8475
22630SOL    HW275131   3.843   9.771   6.974  0.2307 -0.0516  0.5269
22631SOL     OW75132   7.134   2.122   2.150  0.0009 -0.3083  0.0113
22631SOL    HW175133   7.202   2.059   2.125  1.0953  1.5099 -1.9236
22631SOL    HW275134   7.072   2.121   2.077 -2.0061 -1.7374  1.6275
22632SOL     OW75135   1.999   4.243  10.157  0.6073  0.2086  1.0116
22632SOL    HW175136   2.045   4.241  10.241  0.8735 -1.6464  0.8521
22632SOL    HW275137   1.920   4.191  10.172 -0.4676  1.6959  0.7085
22633SOL     OW75138  12.632  10.680   3.192 -0.5189  0.1464 -0.6882
22633SOL    HW175139  12.625  10.776   3.193 -1.7213  0.0969  1.3225
22633SOL    HW275140  12.543  10.650   3.174 -0.5565 -0.5802  0.6045
22634SOL     OW75141   5.527   8.601   9.064 -0.8091 -0.4572  0.3663
22634SOL    HW175142   5.575   8.683   9.050 -1.7980  0.1535  0.4494
22634SOL    HW275143   5.593   8.541   9.098  0.2963 -0.1921 -1.1822
22635SOL     OW75144  10.397  12.539   2.688 -0.0707  0.5381  0.0997
22635SOL    HW175145  10.385  12.446   2.668 -1.6997  1.1880 -2.3333
22635SOL    HW275146  10.476  12.563   2.640  1.3277  0.0982  2.0869
22636SOL     OW75147   5.327   8.080   7.979 -0.0883  0.2882  0.2791
22636SOL    HW175148   5.377   8.133   8.042  0.3911 -0.2304  0.3387
22636SOL    HW275149   5.382   8.080   7.900 -0.7934  1.1279 -0.2254
22637SOL     OW75150   7.353   9.268   9.439  0.3314  0.3028  0.6649
22637SOL    HW175151   7.281   9.293   9.382 -0.3207 -1.1502  0.7982
22637SOL    HW275152   7.432   9.284   9.386 -0.2691 -1.4702 -0.9004
22638SOL     OW75153  10.965  10.580   0.469 -0.2229 -0.4068  0.2774
22638SOL    HW175154  11.016  10.526   0.530 -1.2387 -0.3251  1.2503
22638SOL    HW275155  10.894  10.523   0.441 -0.6262  0.0376  0.3792
22639SOL     OW75156   8.295   2.441   5.683 -0.2119  0.0775 -0.7005
22639SOL    HW175157   8.257   2.353   5.675  0.3650 -0.5396  2.0524
22639SOL    HW275158   8.360   2.445   5.613  0.2058 -2.0046 -0.5211
22640SOL     OW75159   9.382   8.364  11.828 -0.0612  0.0409 -0.3109
22640SOL    HW175160   9.397   8.345  11.736 -0.6493 -0.4137 -0.3130
22640SOL    HW275161   9.370   8.459  11.831 -0.1709  0.0410 -0.7148
22641SOL     OW75162   0.785   6.487   8.919  0.6491  0.1653 -0.4728
22641SOL    HW175163   0.726   6.445   8.982  0.9447  1.9117  1.0351
22641SOL    HW275164   0.870   6.489   8.963  0.6494  2.2849 -0.4866
22642SOL     OW75165   3.558  10.369   2.535  0.1284  0.2964 -0.2778
22642SOL    HW175166   3.537  10.286   2.579  0.4480  0.2262 -0.2500
22642SOL    HW275167   3.524  10.358   2.446  0.6810 -0.0972 -0.4476
22643SOL     OW75168   9.007   8.130  12.154 -0.7487  0.1739  0.2801
22643SOL    HW175169   9.050   8.047  12.136 -0.2856  0.3133  0.7264
22643SOL    HW275170   8.982   8.125  12.246 -2.6314 -0.3229 -0.2259
22644SOL     OW75171   7.719   4.341   5.278 -0.3367 -0.1539  0.3765
22644SOL    HW175172   7.686   4.338   5.368 -2.1825 -2.0223 -0.2862
22644SOL    HW275173   7.719   4.434   5.256 -0.3873  0.2975  2.1017
22645SOL     OW75174  11.046   6.661   7.710 -0.1598 -0.2125  0.4846
22645SOL    HW175175  10.971   6.720   7.713  0.0624  0.1087 -0.1887
22645SOL    HW275176  11.066   6.651   7.617  0.3857 -0.6096  0.6368
22646SOL     OW75177   2.724  11.073   0.772  0.5410  0.1477  0.1051
22646SOL    HW175178   2.770  11.023   0.704  1.0302 -2.7751  2.3420
22646SOL    HW275179   2.779  11.063   0.849 -0.8107  1.9087  1.3759
22647SOL     OW75180   9.193   3.601   5.092 -0.2415 -0.9179  0.3464
22647SOL    HW175181   9.182   3.515   5.134 -1.8827 -0.5092  0.8242
22647SOL    HW275182   9.186   3.664   5.163 -0.5747 -0.3266 -0.1996
22648SOL     OW75183   5.563   4.542   7.320 -0.6154  0.2724 -0.0846
22648SOL    HW175184   5.523   4.607   7.263 -0.5444  0.9143  0.5980
22648SOL    HW275185   5.645   4.581   7.348 -0.6064 -0.0796  0.3914
22649SOL     OW75186  10.534   7.609  12.331 -0.4903 -0.0438 -0.0861
22649SOL    HW175187  10.607   7.564  12.288  1.0094 -0.1451  2.3377
22649SOL    HW275188  10.567   7.627  12.419 -3.6843 -0.8090  1.3957
22650SOL     OW75189  12.186   1.574   6.341 -0.2804  0.2439 -0.2947
22650SOL    HW175190  12.181   1.603   6.432  0.0284  0.0905 -0.2283
22650SOL    HW275191  12.175   1.479   6.345 -0.3017  0.2407 -0.4210
22651SOL     OW75192   4.030   3.075   3.975 -0.8213  0.2188 -0.7663
22651SOL    HW175193   4.037   3.023   3.895  0.3824  0.4047 -0.7925
22651SOL    HW275194   3.944   3.052   4.011 -0.7480 -0.9897 -1.3201
22652SOL     OW75195  11.463  11.677  10.008  0.0161  0.3921  0.2873
22652SOL    HW175196  11.523  11.604   9.995  1.1148  1.3824 -0.4230
22652SOL    HW275197  11.418  11.658  10.091  2.2260  0.2190  1.5071
22653SOL     OW75198   2.514   2.219   8.466 -0.0598  0.1076  0.0814
22653SOL    HW175199   2.530   2.311   8.445  1.9174 -0.5075 -1.4212
22653SOL    HW275200   2.418   2.211   8.468 -0.2839  1.9769 -0.8413
22654SOL     OW75201   8.170  10.057   0.419 -0.8000 -0.1331 -0.2646
22654SOL    HW175202   8.089  10.106   0.403  0.5048  1.9427 -0.8986
22654SOL    HW275203   8.172   9.991   0.350 -0.9206  1.2290 -1.6339
22655SOL     OW75204   5.607   1.014   6.353  0.3249  0.3208 -0.8757
22655SOL    HW175205   5.674   1.048   6.411  0.6455 -0.2580 -0.9039
22655SOL    HW275206   5.533   1.073   6.365  0.0137 -0.3716  0.8903
22656SOL     OW75207   8.507  10.822   7.224 -0.2127  0.0379 -0.0684
22656SOL    HW175208   8.546  10.909   7.211 -1.3472  0.2888 -2.2933
22656SOL    HW275209   8.562  10.780   7.290  0.8563  2.1322  0.4461
22657SOL     OW75210   2.545   4.959   8.868  0.0462  0.1937 -0.1815
22657SOL    HW175211   2.605   5.009   8.922 -0.9135 -0.3475  1.4513
22657SOL    HW275212   2.459   4.996   8.888 -0.3956 -0.4336 -0.8637
22658SOL     OW75213   7.853  11.060   9.963 -0.1714 -0.3234  0.6876
22658SOL    HW175214   7.896  11.144   9.983  0.3179 -0.5392  0.5527
22658SOL    HW275215   7.765  11.085   9.936 -0.7206  0.0282  2.5977
22659SOL     OW75216   8.026   4.654  11.760 -0.2411  0.5316  0.7061
22659SOL    HW175217   8.010   4.615  11.846 -0.5941  0.4624  0.6132
22659SOL    HW275218   8.113   4.692  11.767 -0.0146 -0.0119  0.8947
22660SOL     OW75219   2.826   5.248   0.743  0.1106  0.1109  0.5599
22660SOL    HW175220   2.772   5.303   0.800  0.0164 -0.3085  0.8849
22660SOL    HW275221   2.767   5.178   0.715 -0.2450  1.0544 -1.1841
22661SOL     OW75222  10.813   6.699   2.426 -0.0195  0.2412 -0.4089
22661SOL    HW175223  10.803   6.603   2.423  2.1223 -0.0880  0.8665
22661SOL    HW275224  10.729   6.730   2.458  0.2051 -1.5501  2.2889
22662SOL     OW75225  12.430   2.916  10.168  0.7844 -0.6445  0.2472
22662SOL    HW175226  12.506   2.897  10.114 -0.8383  1.5055 -3.1300
22662SOL    HW275227  12.383   2.833  10.175  1.1325 -1.0311 -1.6485
22663SOL     OW75228   1.431  10.143   3.121 -0.0480  0.1062  0.0752
22663SOL    HW175229   1.349  10.117   3.163 -0.5891  1.3998 -0.1604
22663SOL    HW275230   1.447  10.073   3.057 -1.8778  0.6623 -1.0806
22664SOL     OW75231   5.511  10.009   6.773 -0.0586  0.3689 -0.2193
22664SOL    HW175232   5.530   9.918   6.748  1.8084  1.1035 -1.7594
22664SOL    HW275233   5.589  10.038   6.819 -0.8845  1.0408  0.7970
22665SOL     OW75234   6.545   2.141   5.866 -0.1649 -0.1783 -0.3269
22665SOL    HW175235   6.570   2.079   5.935 -0.2942  1.4334  1.2495
22665SOL    HW275236   6.492   2.089   5.806 -0.1192 -1.6406  0.8279
22666SOL     OW75237  10.619   1.522   8.225 -0.1578 -0.1710 -0.2233
22666SOL    HW175238  10.665   1.512   8.308  0.1725  0.2968 -0.3450
22666SOL    HW275239  10.526   1.515   8.248 -0.0936  0.6028  0.2838
22667SOL     OW75240   8.046   4.915   8.815 -0.0625 -0.5980 -0.0074
22667SOL    HW175241   8.085   5.001   8.829 -0.9787 -0.0672 -0.6012
22667SOL    HW275242   8.097   4.856   8.870  0.8167  0.2601  0.1165
22668SOL     OW75243   9.215   9.682   6.802  0.1814  0.4313 -0.0819
22668SOL    HW175244   9.292   9.739   6.797  0.0109  0.5947 -1.2297
22668SOL    HW275245   9.250   9.593   6.801  0.3807  0.5088 -0.0165
22669SOL     OW75246   7.187   6.903   4.898  0.4456 -0.4478  0.0929
22669SOL    HW175247   7.252   6.898   4.828  0.2989 -0.9684 -0.0127
22669SOL    HW275248   7.166   6.996   4.904  2.3084 -0.0536  1.1817
22670SOL     OW75249  10.673   1.924   9.549  0.0826  0.1274 -0.1917
22670SOL    HW175250  10.747   1.942   9.606  0.5443  1.4749 -1.1702
22670SOL    HW275251  10.603   1.981   9.581 -0.5286 -1.0567  0.6551
22671SOL     OW75252   9.932   4.026   6.346  0.3332  0.3067  0.3531
22671SOL    HW175253   9.996   3.960   6.370  2.3502  1.3724 -1.5847
22671SOL    HW275254   9.927   4.084   6.422  0.5813 -0.5696  1.0544
22672SOL     OW75255   2.583   7.265   8.936 -0.1765  0.8586  0.0000
22672SOL    HW175256   2.507   7.288   8.883  1.6103  0.4481 -2.9787
22672SOL    HW275257   2.559   7.184   8.979 -2.3564  2.1414  1.3621
22673SOL     OW75258   0.818   2.072  10.428 -0.3414 -0.1925  0.1030
22673SOL    HW175259   0.759   2.027  10.489 -0.1243 -0.7564 -0.0960
22673SOL    HW275260   0.779   2.056  10.342  0.1542 -0.6514 -0.0379
22674SOL     OW75261   0.551   3.320   7.355 -0.6665 -1.0153 -0.3597
22674SOL    HW175262   0.588   3.268   7.284  0.1976  0.0195 -0.6983
22674SOL    HW275263   0.521   3.256   7.419 -0.0880 -1.9338 -0.9839
22675SOL     OW75264  12.389  10.431   7.746 -0.1692  0.5679  0.2558
22675SOL    HW175265  12.340  10.493   7.691 -0.4332 -0.6092 -0.8809
22675SOL    HW275266  12.337  10.351   7.744  1.4396 -0.5078 -0.4363
22676SOL     OW75267  10.793   6.516   6.695  0.4066 -0.1621 -0.1881
22676SOL    HW175268  10.838   6.433   6.682  1.0957  0.4448 -2.0838
22676SOL    HW275269  10.707   6.492   6.730  1.2719 -1.5092  1.1055
22677SOL     OW75270   9.560   0.657   9.179 -0.0626 -0.1276  0.0022
22677SOL    HW175271   9.543   0.709   9.257  0.3386  0.3537 -0.2223
22677SOL    HW275272   9.491   0.590   9.179 -0.3625  0.1733  0.4958
22678SOL     OW75273   3.540   3.871   7.871  0.3015  0.3920 -0.1032
22678SOL    HW175274   3.487   3.946   7.845  0.8468  0.9056  0.2565
22678SOL    HW275275   3.539   3.813   7.795 -0.5704  0.5034 -0.1916
22679SOL     OW75276   0.585   5.298   2.543  0.2262 -0.3437  0.1482
22679SOL    HW175277   0.626   5.264   2.622  0.8590 -0.3466 -0.1786
22679SOL    HW275278   0.553   5.385   2.568  1.9616  0.3834 -0.0600
22680SOL     OW75279   4.581   7.741   1.355  1.0806 -0.0357 -0.1331
22680SOL    HW175280   4.639   7.707   1.423  0.1330  1.4211  1.4673
22680SOL    HW275281   4.513   7.788   1.402  0.4030  1.0709 -2.1045
22681SOL     OW75282  12.584   9.177  10.111  0.3257  0.0389 -0.3212
22681SOL    HW175283  12.545   9.090  10.108 -0.7402  0.2327  3.4250
22681SOL    HW275284  12.512   9.236  10.089 -0.1904  0.1299  1.4812
22682SOL     OW75285   3.733   2.497   9.042 -0.9407  0.1301  0.4862
22682SOL    HW175286   3.646   2.536   9.051 -0.8173  0.3915  0.5703
22682SOL    HW275287   3.719   2.403   9.056 -0.9637  0.3580  2.1309
22683SOL     OW75288  10.002   9.132   3.819  0.0612 -0.0307 -0.5434
22683SOL    HW175289  10.069   9.183   3.775  0.8420  0.0464  0.6891
22683SOL    HW275290   9.996   9.051   3.767  1.5734 -0.3155 -0.3313
22684SOL     OW75291   2.666   4.071   3.678 -0.2215 -0.7263  0.1710
22684SOL    HW175292   2.725   4.142   3.654  1.0265 -1.2506  1.5443
22684SOL    HW275293   2.591   4.115   3.719 -1.0372 -0.0361 -1.9090
22685SOL     OW75294   1.817   6.141   4.436 -0.3464  0.3885 -1.2545
22685SOL    HW175295   1.762   6.137   4.358 -0.5301 -1.9941 -1.0825
22685SOL    HW275296   1.848   6.231   4.439 -2.2710  1.1719 -2.7078
22686SOL     OW75297   5.337   8.712   3.698 -0.2486 -0.3203  0.1141
22686SOL    HW175298   5.264   8.763   3.662 -0.7902 -0.8579  0.4391
22686SOL    HW275299   5.296   8.652   3.760  0.3573 -1.2944 -0.3998
22687SOL     OW75300   4.548   9.858   1.419 -0.0402  0.2701  0.1768
22687SOL    HW175301   4.633   9.861   1.464 -0.1511 -0.1018  0.4176
22687SOL    HW275302   4.490   9.911   1.474  0.1753  1.0260 -0.3044
22688SOL     OW75303   4.892  11.989   2.158  0.2037 -0.4287  0.1027
22688SOL    HW175304   4.807  11.957   2.187  0.3939 -1.7378 -0.6891
22688SOL    HW275305   4.878  12.020   2.069  0.1187  1.3932  0.7129
22689SOL     OW75306   9.795  11.736  12.079 -0.0678  0.1700 -0.2048
22689SOL    HW175307   9.830  11.777  12.000  0.7290  0.3298  0.2158
22689SOL    HW275308   9.774  11.809  12.137  0.8729  0.0172  0.3470
22690SOL     OW75309   7.241   0.712   8.651  0.6240 -0.4162  1.1765
22690SOL    HW175310   7.171   0.777   8.646  0.8300 -0.0978  2.1647
22690SOL    HW275311   7.210   0.638   8.598 -0.1094  0.0342  0.9694
22691SOL     OW75312   5.342   6.588  11.306  0.7091 -0.8791  0.1413
22691SOL    HW175313   5.254   6.550  11.311 -0.4589  1.6137 -0.1297
22691SOL    HW275314   5.391   6.526  11.251 -1.9565 -0.5964 -2.8916
22692SOL     OW75315  12.104  12.219  12.409 -0.2595 -0.0390  0.4382
22692SOL    HW175316  12.144  12.259  12.332 -0.1807  0.5329  0.7698
22692SOL    HW275317  12.158  12.250  12.482 -0.1531 -0.8095  0.6995
22693SOL     OW75318   9.992  11.612  10.785  0.3485  0.0730 -0.3554
22693SOL    HW175319  10.032  11.699  10.777 -1.4932  1.2362  1.8331
22693SOL    HW275320   9.901  11.630  10.807 -0.1752 -2.4548 -0.1686
22694SOL     OW75321  10.535  11.409   3.001 -0.6846  0.0758  0.2171
22694SOL    HW175322  10.550  11.472   2.930 -1.1354 -0.9912 -0.8663
22694SOL    HW275323  10.511  11.463   3.076 -1.0268  1.2063 -0.6703
22695SOL     OW75324   9.402   5.063   2.451 -0.5639  0.0134  0.9468
22695SOL    HW175325   9.397   5.144   2.400 -0.0532 -0.2606  0.4464
22695SOL    HW275326   9.405   4.994   2.385 -0.9499 -0.4109  1.3698
22696SOL     OW75327   1.306   9.447   7.854  0.0536  0.2809  0.1159
22696SOL    HW175328   1.349   9.470   7.936 -0.9743 -1.1219  1.0993
22696SOL    HW275329   1.230   9.504   7.850 -0.0442  0.1619  0.2764
22697SOL     OW75330   4.206   6.940  12.526 -0.1996  0.1519 -0.2720
22697SOL    HW175331   4.172   6.887  12.598 -2.0387  0.2018 -1.0680
22697SOL    HW275332   4.275   6.886  12.487 -0.4510 -0.6575  0.3795
22698SOL     OW75333   8.671   4.222   4.103  0.1280 -0.3588  0.3158
22698SOL    HW175334   8.605   4.256   4.162 -1.0110 -2.0295  0.0771
22698SOL    HW275335   8.720   4.159   4.156 -0.2384 -1.1126 -0.2240
22699SOL     OW75336   1.389  12.082   6.627  0.2364 -0.1953 -0.4010
22699SOL    HW175337   1.423  12.134   6.555 -0.1916  0.0945 -0.3945
22699SOL    HW275338   1.437  12.112   6.704 -0.8574  1.0697 -0.1740
22700SOL     OW75339   7.544   5.837   3.628 -0.5316  0.1523 -0.2910
22700SOL    HW175340   7.552   5.859   3.721  0.3994  1.4008 -0.6352
22700SOL    HW275341   7.449   5.833   3.612 -0.8420  3.3061  0.0291
22701SOL     OW75342   3.214   6.639   9.545  0.5909  0.6082 -0.4406
22701SOL    HW175343   3.216   6.561   9.489  0.3171 -0.6892  1.2769
22701SOL    HW275344   3.258   6.612   9.625 -1.1695  1.6035  0.9290
22702SOL     OW75345   5.326   7.822   3.101  0.3583 -0.4933  0.3417
22702SOL    HW175346   5.269   7.820   3.177  1.6425 -2.7482  1.3576
22702SOL    HW275347   5.302   7.744   3.051  3.5348 -2.5345  1.7012
22703SOL     OW75348  11.077   6.531   3.564  0.5767 -0.4626  0.2837
22703SOL    HW175349  11.116   6.444   3.564  1.5668 -0.0590 -0.8970
22703SOL    HW275350  11.024   6.533   3.485 -0.6995 -0.5058  1.1216
22704SOL     OW75351   8.042   4.792   2.067  0.2137  0.1098 -0.4628
22704SOL    HW175352   8.127   4.779   2.025  0.2844 -2.0293  0.2630
22704SOL    HW275353   7.989   4.836   2.000  1.5659  0.5808 -1.2641
22705SOL     OW75354   8.429   4.698   2.165 -0.4560  0.1034  0.0602
22705SOL    HW175355   8.370   4.718   2.092 -0.1745 -0.9015 -0.4462
22705SOL    HW275356   8.502   4.758   2.154 -0.4352 -0.0130 -0.4641
22706SOL     OW75357  10.727  12.443   3.298  0.1160  0.2759 -0.4728
22706SOL    HW175358  10.663  12.450   3.227  0.3262 -0.5610 -0.7614
22706SOL    HW275359  10.749  12.533   3.320 -1.7326  0.6091  0.1552
22707SOL     OW75360   0.883  10.962   9.670 -0.3963  0.8228 -0.1367
22707SOL    HW175361   0.891  10.939   9.762  0.9346  1.3684 -0.0829
22707SOL    HW275362   0.973  10.984   9.643 -0.9787  2.1432 -1.1507
22708SOL     OW75363   2.561   5.337   5.357  0.9436 -0.0208 -0.3115
22708SOL    HW175364   2.570   5.411   5.297  0.3387 -0.7403 -1.3192
22708SOL    HW275365   2.619   5.271   5.322  1.1008 -0.2092  0.2971
22709SOL     OW75366   0.857   2.593   0.359  0.4135 -0.3454  0.0262
22709SOL    HW175367   0.905   2.595   0.276  1.7396  0.6401  0.7906
22709SOL    HW275368   0.904   2.653   0.416 -1.1654 -0.0967  1.1438
22710SOL     OW75369   3.869   3.105  11.461  0.4778 -0.1391  0.3842
22710SOL    HW175370   3.894   3.128  11.371 -0.2798 -0.9255 -0.0441
22710SOL    HW275371   3.786   3.151  11.475  1.1889  0.9542  1.1261
22711SOL     OW75372   1.216   8.217   3.672 -1.0275  1.0303 -0.1273
22711SOL    HW175373   1.240   8.185   3.585 -0.7072  0.7542  0.0594
22711SOL    HW275374   1.293   8.265   3.702 -0.8943  0.5718  0.2687
22712SOL     OW75375   9.071  12.605   7.615 -0.0651  0.0337 -0.2945
22712SOL    HW175376   9.110  12.561   7.539 -1.0626 -0.8603 -0.3193
22712SOL    HW275377   8.990  12.556   7.632 -0.4437  0.9391  0.6331
22713SOL     OW75378  12.042   0.022  11.161  0.4549  0.4088  0.0828
22713SOL    HW175379  11.977  -0.036  11.201  0.4281  1.4695  1.7013
22713SOL    HW275380  12.001   0.053  11.080  0.2095 -1.2773 -0.4615
22714SOL     OW75381   2.829   7.823   4.400 -0.8531  0.1505  0.1997
22714SOL    HW175382   2.852   7.790   4.313  0.8532 -1.5250  1.2201
22714SOL    HW275383   2.825   7.918   4.389 -1.6086 -0.0574 -1.8917
22715SOL     OW75384  10.290   7.255   7.150 -0.6908 -0.2088 -0.1106
22715SOL    HW175385  10.328   7.340   7.127 -1.4450 -0.2764 -1.7413
22715SOL    HW275386  10.224   7.239   7.082 -1.0154 -1.8012  0.5385
22716SOL     OW75387   5.176   9.446   6.540  0.6746  0.0841 -0.2594
22716SOL    HW175388   5.188   9.521   6.598 -0.4291 -0.2455  0.4196
22716SOL    HW275389   5.242   9.383   6.567  0.5536  0.1694  0.2414
22717SOL     OW75390   9.524   4.686  11.181 -0.3266 -0.4059  0.3165
22717SOL    HW175391   9.576   4.620  11.135 -1.7589 -1.3862  0.0258
22717SOL    HW275392   9.579   4.712  11.255  0.8192 -0.9234 -0.3218
22718SOL     OW75393  12.211   7.066   1.488 -0.0857  0.0463  0.1212
22718SOL    HW175394  12.189   6.977   1.461  1.5647 -0.6609  0.9538
22718SOL    HW275395  12.285   7.090   1.431  0.6859  0.1504  1.1510
22719SOL     OW75396   0.348   2.223   9.526  0.1233 -0.0814  0.4012
22719SOL    HW175397   0.341   2.225   9.430 -0.8089 -0.7338  0.4336
22719SOL    HW275398   0.257   2.225   9.556  0.3553 -1.0352  1.2256
22720SOL     OW75399  12.513   4.306   9.555 -0.2066  0.1432 -0.1503
22720SOL    HW175400  12.471   4.249   9.619 -0.0881 -1.0932 -1.1381
22720SOL    HW275401  12.584   4.253   9.518  1.1333  1.5756  0.2337
22721SOL     OW75402  11.936   1.357   4.404 -0.3465  0.6781  0.3947
22721SOL    HW175403  11.844   1.330   4.408 -1.1520  2.9424 -0.9927
22721SOL    HW275404  11.940   1.438   4.455  0.9578  0.4764  0.6502
22722SOL     OW75405   0.289  11.957   8.673  0.0149  0.5277 -0.3223
22722SOL    HW175406   0.336  11.889   8.625  1.2841 -0.0444  1.6151
22722SOL    HW275407   0.264  12.020   8.606  0.0400 -1.1303 -1.9862
22723SOL     OW75408   3.205   8.014   2.039 -0.0137 -0.0952  0.1247
22723SOL    HW175409   3.153   7.934   2.031 -0.1778 -0.1459  1.5076
22723SOL    HW275410   3.161   8.065   2.108  1.0320  0.4297  0.4227
22724SOL     OW75411   0.656   8.098   3.936  0.3178 -0.0821  0.3631
22724SOL    HW175412   0.665   8.052   3.852 -1.2645 -0.7481  0.5157
22724SOL    HW275413   0.705   8.043   3.998  0.1316 -0.4817  0.1644
22725SOL     OW75414  11.642   2.565   8.032  0.5209 -0.2704  0.0520
22725SOL    HW175415  11.583   2.519   8.092 -0.2097 -0.9738 -1.1680
22725SOL    HW275416  11.599   2.649   8.016  0.5949 -0.1821  0.3089
22726SOL     OW75417   4.287   0.194   4.438 -0.3777 -0.1654 -0.4228
22726SOL    HW175418   4.209   0.160   4.394  1.0178  0.0994 -3.3470
22726SOL    HW275419   4.286   0.152   4.524 -4.4385  0.9238  0.2711
22727SOL     OW75420  11.651   0.907   3.617 -0.1499 -0.2010 -0.0345
22727SOL    HW175421  11.717   0.974   3.629 -0.2528  0.4190 -2.4398
22727SOL    HW275422  11.607   0.930   3.535 -1.9635 -1.7474  0.4122
22728SOL     OW75423   6.350   0.019   5.664 -0.3700  0.0217  0.1825
22728SOL    HW175424   6.432   0.000   5.618 -0.3268  0.9899 -0.1530
22728SOL    HW275425   6.318  -0.067   5.691  0.5980 -0.3965  0.0499
22729SOL     OW75426   7.435  12.078   1.198 -0.2441  0.0985 -0.3097
22729SOL    HW175427   7.465  12.144   1.260 -2.5461 -0.5975  1.7013
22729SOL    HW275428   7.385  12.128   1.133 -0.4074  0.5500  0.1534
22730SOL     OW75429   8.303   8.459   7.114 -0.2430  0.0749 -0.1817
22730SOL    HW175430   8.396   8.453   7.090 -0.1886  0.5646 -0.1111
22730SOL    HW275431   8.294   8.400   7.189  0.1325  0.4358  0.1536
22731SOL     OW75432   5.992   8.192   5.951  0.5586 -0.1848 -0.5213
22731SOL    HW175433   6.028   8.110   5.918  1.1125 -0.3270  0.4169
22731SOL    HW275434   6.069   8.243   5.977  0.1187 -0.2590  0.9632
22732SOL     OW75435   7.811   7.075  11.766 -0.1446  0.0418  0.3468
22732SOL    HW175436   7.859   7.157  11.752 -0.7672  0.6533  1.6652
22732SOL    HW275437   7.877   7.014  11.800 -0.0859  0.6015  1.2616
22733SOL     OW75438   3.600  11.507  11.019  0.1495  0.0221  0.2063
22733SOL    HW175439   3.680  11.473  11.059  1.0759  0.7291 -0.9571
22733SOL    HW275440   3.547  11.539  11.092  1.2516  0.2228  0.9309
22734SOL     OW75441  11.277   5.976   4.302  0.8331 -0.2324  0.2053
22734SOL    HW175442  11.324   6.057   4.281 -0.3280 -0.0334 -1.8590
22734SOL    HW275443  11.189   5.989   4.266 -0.0545 -1.5690  1.7777
22735SOL     OW75444   7.383   8.089   2.589 -0.3479 -0.4646  0.0310
22735SOL    HW175445   7.412   8.168   2.543 -0.8455 -0.3446 -0.0877
22735SOL    HW275446   7.289   8.084   2.570 -1.1104  0.8364  2.8378
22736SOL     OW75447   1.257  11.266   4.595 -0.6874  0.2008  0.2797
22736SOL    HW175448   1.167  11.292   4.616  0.0524  2.2171  1.1455
22736SOL    HW275449   1.295  11.242   4.679  0.3075  1.8279  0.3324
22737SOL     OW75450  10.044   4.434  12.586  0.4738  0.1554  0.4116
22737SOL    HW175451  10.134   4.465  12.588  1.0730 -1.1752 -1.9114
22737SOL    HW275452  10.040   4.368  12.655  1.1925  0.4202  0.7169
22738SOL     OW75453   1.365  11.434   3.441 -0.1125  0.0310  0.1896
22738SOL    HW175454   1.311  11.447   3.519 -0.3173 -0.3629  0.1156
22738SOL    HW275455   1.412  11.353   3.457  1.0840  0.7754  0.6033
22739SOL     OW75456  12.518   8.453   5.821  0.5322 -0.7417  0.6768
22739SOL    HW175457  12.591   8.514   5.810 -0.0394 -0.5288 -4.1632
22739SOL    HW275458  12.441   8.510   5.834  0.5062 -0.5896 -0.0809
22740SOL     OW75459   7.216   8.342   7.821 -0.0842  0.1747 -0.2726
22740SOL    HW175460   7.286   8.295   7.865 -1.7780  0.3480  2.8825
22740SOL    HW275461   7.138   8.289   7.836 -1.1623  1.4893 -1.0183
22741SOL     OW75462   8.566   8.263   3.712 -0.2135 -0.0028 -0.1043
22741SOL    HW175463   8.586   8.179   3.754 -1.5762 -0.1765  0.2650
22741SOL    HW275464   8.651   8.302   3.693  0.4447 -1.6100 -0.5717
22742SOL     OW75465  11.194   4.366   0.004 -0.0456 -0.4290  0.1069
22742SOL    HW175466  11.110   4.394  -0.032  0.8325  2.6081  0.1786
22742SOL    HW275467  11.252   4.360  -0.072  0.2277 -0.3514  0.3074
22743SOL     OW75468   1.070   8.348   5.362  0.3617 -0.0229  0.2946
22743SOL    HW175469   1.022   8.332   5.281  1.1600 -2.4062  0.2061
22743SOL    HW275470   1.145   8.402   5.334  0.8226 -1.1107 -0.6454
22744SOL     OW75471   0.095  12.676   9.798  0.4523  0.6133 -0.0697
22744SOL    HW175472   0.136  12.590   9.792 -0.1302  0.2885  0.4555
22744SOL    HW275473   0.116  12.707   9.886 -1.7066 -0.2646  0.8394
22745SOL     OW75474   2.531   4.389   7.731 -0.6791 -0.7198  0.0810
22745SOL    HW175475   2.500   4.393   7.641 -0.1351 -2.9300 -0.2404
22745SOL    HW275476   2.477   4.454   7.777 -1.2313  0.1760 -1.7263
22746SOL     OW75477   0.635   2.614   6.132  0.0509 -0.1677  0.2357
22746SOL    HW175478   0.682   2.693   6.157  1.7068 -0.5557 -1.4457
22746SOL    HW275479   0.615   2.571   6.215  1.1658  0.8699  1.0772
22747SOL     OW75480   2.660  11.623  11.311  0.7151 -0.1892 -0.2983
22747SOL    HW175481   2.705  11.622  11.395  0.8405 -0.0654 -0.3636
22747SOL    HW275482   2.713  11.565  11.255  0.3488 -0.6805 -0.1454
22748SOL     OW75483   0.868   6.193   9.740  0.5732  0.1259  0.5966
22748SOL    HW175484   0.852   6.132   9.813 -0.2483  0.7537  0.9602
22748SOL    HW275485   0.813   6.269   9.760  0.5487  0.4229 -0.5503
22749SOL     OW75486  10.866   0.747   9.357  0.9373  0.1539  0.1471
22749SOL    HW175487  10.874   0.825   9.412  2.3023 -0.0029  0.1930
22749SOL    HW275488  10.916   0.768   9.278  0.9711 -0.5262 -0.0154
22750SOL     OW75489   7.397   5.976   4.907  0.1029  0.1328 -0.0498
22750SOL    HW175490   7.441   5.982   4.822 -1.4205  0.5637 -0.8493
22750SOL    HW275491   7.304   5.978   4.885 -0.3716 -2.1384  1.4670
22751SOL     OW75492   2.761   9.178  11.487  0.1264 -0.3472 -0.3434
22751SOL    HW175493   2.800   9.139  11.408 -1.2311 -0.8146 -0.8004
22751SOL    HW275494   2.668   9.181  11.469 -0.4246 -1.8721  1.8349
22752SOL     OW75495   4.437   4.914   7.825  0.0175 -0.3718 -0.0164
22752SOL    HW175496   4.362   4.893   7.770  0.8371 -0.0742 -1.2860
22752SOL    HW275497   4.457   4.833   7.871 -0.5168 -0.7050 -0.3705
22753SOL     OW75498   1.153   7.712  11.486  0.3432 -0.0147 -0.3583
22753SOL    HW175499   1.195   7.650  11.426 -0.5152  0.0854 -1.0973
22753SOL    HW275500   1.115   7.778  11.429 -1.0406 -0.2562  0.2341
22754SOL     OW75501   8.792   0.406   2.396  0.0643 -0.1688 -0.0977
22754SOL    HW175502   8.865   0.416   2.457 -0.5719  0.0118  0.6421
22754SOL    HW275503   8.778   0.493   2.360 -0.5638  0.0702  0.6810
22755SOL     OW75504   2.769   9.384   8.990 -0.8472 -1.1170 -0.0770
22755SOL    HW175505   2.703   9.376   9.059 -0.2877  1.3557  0.8674
22755SOL    HW275506   2.723   9.423   8.916 -0.3983  1.3459  0.8492
22756SOL     OW75507   2.460   3.289   8.767  0.4871  0.4972  0.0918
22756SOL    HW175508   2.386   3.239   8.732  1.2613  0.5517 -1.7864
22756SOL    HW275509   2.535   3.230   8.756  0.9105  0.8955  0.8179
22757SOL     OW75510   0.228   1.647  12.091 -0.0681 -0.3694 -0.1638
22757SOL    HW175511   0.261   1.581  12.030 -0.2281 -0.4072 -0.2117
22757SOL    HW275512   0.265   1.729  12.060 -1.4813 -0.1251 -1.3428
22758SOL     OW75513   4.987   7.637   4.230  0.0755  0.3765  0.2435
22758SOL    HW175514   5.049   7.672   4.294 -0.3835  1.3771  0.1712
22758SOL    HW275515   4.907   7.620   4.280 -0.7607  2.4783 -0.2291
22759SOL     OW75516   7.897   5.371   1.910 -0.2816  0.2256 -0.0729
22759SOL    HW175517   7.818   5.380   1.964 -0.4427  1.1809 -0.4499
22759SOL    HW275518   7.866   5.326   1.831 -0.5277  0.8990 -0.3668
22760SOL     OW75519   2.157  10.003  10.243 -0.1297 -0.2101 -0.2207
22760SOL    HW175520   2.218  10.016  10.316 -2.4450  1.8681  1.5137
22760SOL    HW275521   2.148  10.090  10.204  0.5377 -1.1432 -2.6720
22761SOL     OW75522  10.382   4.234   8.022 -0.5290 -0.0124  0.3149
22761SOL    HW175523  10.459   4.181   8.042 -0.5306  0.0476  0.4816
22761SOL    HW275524  10.322   4.219   8.096  0.5254  2.2559  1.7552
22762SOL     OW75525  10.362   4.740   4.207  0.5574 -0.0721  0.0364
22762SOL    HW175526  10.402   4.766   4.290  2.0930  0.9951 -0.9799
22762SOL    HW275527  10.433   4.749   4.142 -1.4115  2.5501 -1.9870
22763SOL     OW75528   5.052   5.606  10.686 -0.2853  0.9344 -0.3622
22763SOL    HW175529   5.005   5.608  10.602 -1.0878  0.0954  0.0459
22763SOL    HW275530   5.023   5.525  10.728  1.9184  0.0946 -0.2950
22764SOL     OW75531   4.262   9.107   1.526  0.7761  0.4952  0.0726
22764SOL    HW175532   4.282   9.138   1.615  0.9678  0.0978  0.1713
22764SOL    HW275533   4.320   9.157   1.469  0.8383  0.5640  0.1964
22765SOL     OW75534   0.274   3.809   6.744 -0.4447 -0.1806 -0.4363
22765SOL    HW175535   0.221   3.731   6.756 -2.1002  1.1512  1.8131
22765SOL    HW275536   0.267   3.829   6.650 -2.2198 -1.2205 -0.5680
22766SOL     OW75537  11.957  11.458  12.289 -0.3282 -0.9518  0.0038
22766SOL    HW175538  11.963  11.552  12.305  0.4706 -1.0347  0.2337
22766SOL    HW275539  12.048  11.428  12.282 -0.5631 -1.7540  0.2068
22767SOL     OW75540   8.216   1.370   6.025  0.0286  0.3279 -0.5292
22767SOL    HW175541   8.202   1.391   5.932  1.9555  0.9748 -0.7256
22767SOL    HW275542   8.300   1.411   6.046 -0.4273  0.3008  1.5568
22768SOL     OW75543   2.534   2.352   7.751  0.2676  0.2828  0.0911
22768SOL    HW175544   2.511   2.370   7.843 -0.9775  0.2102 -0.1851
22768SOL    HW275545   2.630   2.347   7.751  0.2565 -2.0286  1.8494
22769SOL     OW75546   5.253  10.438   3.708  0.0600 -0.0316 -0.1984
22769SOL    HW175547   5.166  10.416   3.740 -0.9608  3.0867 -0.5597
22769SOL    HW275548   5.302  10.461   3.787  1.2810 -3.4233  0.2399
22770SOL     OW75549   5.295   9.605  11.384 -0.2464  0.3024  0.1738
22770SOL    HW175550   5.317   9.572  11.296 -1.2034 -0.4820  0.2221
22770SOL    HW275551   5.273   9.527  11.434 -1.2849  0.8922  0.6531
22771SOL     OW75552   4.105   1.775   0.412  0.0071 -0.0648  0.0857
22771SOL    HW175553   4.139   1.725   0.486 -1.1050 -1.4019 -0.2642
22771SOL    HW275554   4.104   1.713   0.339 -0.6410  0.6996 -0.5757
22772SOL     OW75555  12.603  11.377   1.815  0.0065 -0.2194 -0.1754
22772SOL    HW175556  12.537  11.383   1.746 -1.1202 -1.1462  0.7616
22772SOL    HW275557  12.642  11.290   1.803  1.1195  0.3500 -0.7630
22773SOL     OW75558   6.850   5.092   7.335 -0.9902 -0.2894 -0.3530
22773SOL    HW175559   6.936   5.119   7.303 -0.7088 -1.4169 -0.6242
22773SOL    HW275560   6.792   5.166   7.317  0.5184  1.9502  2.8751
22774SOL     OW75561  11.498   8.221   1.626 -0.8500  0.0848  0.1044
22774SOL    HW175562  11.464   8.265   1.549 -1.6457 -0.2396  0.2501
22774SOL    HW275563  11.590   8.204   1.607 -0.0779  3.0545  0.6025
22775SOL     OW75564   5.823   6.768   8.978  0.4073  0.1736 -0.3394
22775SOL    HW175565   5.886   6.712   9.022  0.1074  1.0732  1.3098
22775SOL    HW275566   5.876   6.829   8.927  0.7501 -2.4995 -3.5636
22776SOL     OW75567  10.095   8.298  11.999 -0.3868 -0.2476  0.5289
22776SOL    HW175568  10.026   8.325  11.938  1.6115  0.4610 -1.5914
22776SOL    HW275569  10.145   8.231  11.950  0.6742 -0.4194  1.7942
22777SOL     OW75570   7.222   0.174   8.512  0.1154 -0.0311  0.3097
22777SOL    HW175571   7.286   0.103   8.512 -0.9709 -1.0952 -1.4096
22777SOL    HW275572   7.157   0.147   8.578  0.8911  0.5650  1.3459
22778SOL     OW75573  10.827  10.967   9.305 -0.0914 -0.5327 -0.6356
22778SOL    HW175574  10.777  11.012   9.374  2.8191 -0.5874  1.7170
22778SOL    HW275575  10.882  11.035   9.268  0.7568 -1.1689 -0.5570
22779SOL     OW75576  11.460   0.901   0.782 -0.4949  0.0787  0.1070
22779SOL    HW175577  11.379   0.950   0.791 -0.5192 -0.3378  2.9253
22779SOL    HW275578  11.525   0.952   0.831  0.6140 -0.3565 -0.8450
22780SOL     OW75579   9.113   8.423   9.010  0.1529 -0.4381 -0.6401
22780SOL    HW175580   9.039   8.366   9.032  0.0944 -0.0946  0.0872
22780SOL    HW275581   9.173   8.415   9.084 -0.6191  1.7051  0.3007
22781SOL     OW75582   9.444  12.037   5.620 -0.5753  0.1045  0.8711
22781SOL    HW175583   9.449  12.111   5.559  2.3721 -0.5941  0.1080
22781SOL    HW275584   9.363  11.991   5.595 -0.3349  0.7713 -1.4151
22782SOL     OW75585   7.173  10.294  12.529 -0.6253  1.2423  0.0280
22782SOL    HW175586   7.216  10.226  12.581 -2.5039 -0.7016 -0.7572
22782SOL    HW275587   7.092  10.312  12.577 -1.1139  1.3933 -0.8400
22783SOL     OW75588   3.117   2.496  12.023 -0.2733  0.3234  0.1121
22783SOL    HW175589   3.115   2.499  12.118  1.3981  0.9383  0.1488
22783SOL    HW275590   3.038   2.446  11.999 -1.4435  1.3239  1.7284
22784SOL     OW75591  12.695  11.885  10.755  0.1532  0.6765 -0.2173
22784SOL    HW175592  12.787  11.861  10.768 -0.0400  1.4012  4.0226
22784SOL    HW275593  12.697  11.963  10.700  2.0740  0.7258 -0.1378
22785SOL     OW75594   0.929   4.819   0.601 -0.0927  0.7501 -0.0146
22785SOL    HW175595   0.933   4.873   0.522  0.7875  1.7922  0.7195
22785SOL    HW275596   1.011   4.769   0.599 -0.0975  0.7338  0.2212
22786SOL     OW75597   0.137   0.450   4.596  0.2319  0.6799 -0.1874
22786SOL    HW175598   0.043   0.434   4.590  0.2479  0.3119  0.5237
22786SOL    HW275599   0.146   0.518   4.663  0.4156  1.3229 -0.8521
22787SOL     OW75600   7.867   6.208   9.038 -0.5746  0.1689 -0.2802
22787SOL    HW175601   7.919   6.159   9.101 -0.4703  0.2730 -0.2867
22787SOL    HW275602   7.896   6.176   8.952 -1.1295 -0.4015 -0.2646
22788SOL     OW75603   1.817   3.105   7.009  0.1601  0.0541 -0.3688
22788SOL    HW175604   1.912   3.095   7.012  0.2629  0.8958 -0.6719
22788SOL    HW275605   1.785   3.046   7.077  1.0765  1.8991  1.7984
22789SOL     OW75606   0.503  11.332   6.082 -0.6811  0.2342  0.4315
22789SOL    HW175607   0.490  11.427   6.083 -2.2324  0.0515  1.4330
22789SOL    HW275608   0.447  11.300   6.152 -0.1554 -1.4295  0.1207
22790SOL     OW75609  10.553  10.851   8.321  0.1872  0.2399  0.6228
22790SOL    HW175610  10.571  10.901   8.242 -1.0743 -1.3333 -0.7352
22790SOL    HW275611  10.631  10.795   8.332  0.0242 -0.1186  0.0034
22791SOL     OW75612   2.165   7.763   6.219 -0.3988 -0.4428  0.0398
22791SOL    HW175613   2.106   7.778   6.145 -0.5933  1.0920  0.4787
22791SOL    HW275614   2.248   7.735   6.179 -1.0560 -1.5154 -0.6316
22792SOL     OW75615   6.800   9.265   3.024 -0.4495  0.4986  0.1942
22792SOL    HW175616   6.740   9.341   3.021  0.1407  0.9433 -1.1232
22792SOL    HW275617   6.798   9.230   2.935  1.8621  1.0351 -0.1368
22793SOL     OW75618  11.872   7.772  12.279 -0.5310  0.0573  0.8799
22793SOL    HW175619  11.930   7.749  12.207  1.4197  0.3212  2.2994
22793SOL    HW275620  11.824   7.849  12.248 -2.1134 -1.6522 -1.2909
22794SOL     OW75621   4.936  12.548  12.029  0.2954  0.0522 -0.0681
22794SOL    HW175622   4.917  12.581  12.117 -1.4401 -0.7092 -0.1110
22794SOL    HW275623   5.000  12.609  11.993  0.2428  0.9706  1.3409
22795SOL     OW75624   7.145   6.714   5.159  0.6080 -0.4754  0.5009
22795SOL    HW175625   7.171   6.647   5.095  1.2567  1.5107 -1.4121
22795SOL    HW275626   7.050   6.711   5.158  0.5224  0.6667 -1.9461
22796SOL     OW75627  12.582  12.067   8.079  0.7085 -0.0211  0.1155
22796SOL    HW175628  12.604  11.975   8.066  0.5627 -0.1141  0.5223
22796SOL    HW275629  12.620  12.089   8.164  0.9491  0.3595 -0.0905
22797SOL     OW75630   1.516  12.254   0.164  0.3242 -0.3189  0.0340
22797SOL    HW175631   1.589  12.284   0.110  0.2648  0.5020  0.4017
22797SOL    HW275632   1.457  12.211   0.102  0.5281  0.1156 -0.4685
22798SOL     OW75633   3.997   3.604   0.065  0.7993  0.1354  0.3889
22798SOL    HW175634   3.944   3.619  -0.014  1.9929 -0.4649 -0.5581
22798SOL    HW275635   3.979   3.513   0.088 -1.6301  1.0109  2.4694
22799SOL     OW75636   3.150  10.465   5.134  0.0787  0.2761 -0.6146
22799SOL    HW175637   3.061  10.493   5.112  0.2383  0.2826 -1.2690
22799SOL    HW275638   3.171  10.513   5.214 -0.4827  0.3255 -0.4939
22800SOL     OW75639   1.337   9.970   4.464 -0.2154  0.5383 -0.1820
22800SOL    HW175640   1.382  10.009   4.389 -0.2778 -0.5365 -0.7877
22800SOL    HW275641   1.407   9.952   4.527  0.0675 -0.1813 -0.7007
22801SOL     OW75642   6.822   0.575   8.305 -0.5117  0.1042 -0.3106
22801SOL    HW175643   6.758   0.635   8.268 -2.2978 -0.5732  1.4996
22801SOL    HW275644   6.834   0.508   8.238 -1.8042  0.1854 -0.6350
22802SOL     OW75645   7.419   8.499   6.515 -0.0932 -0.1006  0.2585
22802SOL    HW175646   7.389   8.582   6.551  0.0402  0.2554 -0.4409
22802SOL    HW275647   7.486   8.523   6.451 -2.2962 -0.4736 -2.3875
22803SOL     OW75648   3.996   9.440   2.347 -0.3357  0.6515  0.0521
22803SOL    HW175649   3.932   9.452   2.417 -1.5777  2.4615 -1.3079
22803SOL    HW275650   3.944   9.418   2.270  0.8166  0.6628 -0.7608
22804SOL     OW75651   5.984   3.198  12.566 -0.0571  0.5318 -0.0551
22804SOL    HW175652   5.953   3.285  12.538  3.2269  2.3100  1.3565
22804SOL    HW275653   6.027   3.162  12.489 -0.5529  0.5805 -0.3602
22805SOL     OW75654   2.206   6.384   6.795  0.2500  0.4052 -0.2621
22805SOL    HW175655   2.125   6.344   6.764  0.9006 -0.9034 -0.3320
22805SOL    HW275656   2.183   6.475   6.813 -1.8108 -0.4419  1.8939
22806SOL     OW75657  10.256   5.893  12.341 -0.5943  0.0070  0.4140
22806SOL    HW175658  10.249   5.881  12.247  0.4504 -0.2402  0.3591
22806SOL    HW275659  10.229   5.984  12.356  1.9440  0.9877 -0.4849
22807SOL     OW75660   0.765   7.911  10.747 -0.4162 -0.5605 -0.5383
22807SOL    HW175661   0.859   7.900  10.741 -0.4820 -0.3582 -2.7344
22807SOL    HW275662   0.751   7.952  10.833  1.4313 -0.9587 -0.0107
22808SOL     OW75663   0.927   1.824   5.014  0.0124 -0.1000  0.3981
22808SOL    HW175664   0.938   1.790   5.102 -1.6806 -0.8440  0.3549
22808SOL    HW275665   0.990   1.774   4.961 -0.5457 -1.2678  0.8091
22809SOL     OW75666   4.371   9.569   9.944  0.2188  0.9980 -0.1147
22809SOL    HW175667   4.374   9.621  10.024 -0.9976  0.9631 -0.0250
22809SOL    HW275668   4.290   9.597   9.901 -0.0723 -0.2859 -0.4365
22810SOL     OW75669   0.981   1.471   9.865  0.4430  0.4803  0.4223
22810SOL    HW175670   0.934   1.552   9.883  0.8425  0.6713  0.6291
22810SOL    HW275671   0.922   1.420   9.809  0.6820  1.4267 -0.7263
22811SOL     OW75672   9.420  11.290   9.361 -0.2521 -0.2844  0.5930
22811SOL    HW175673   9.342  11.265   9.411 -0.6064  0.0348  0.2011
22811SOL    HW275674   9.493  11.269   9.420 -0.6666  0.1415  1.2836
22812SOL     OW75675   6.624  10.137   4.687  0.4484 -0.3398  0.4745
22812SOL    HW175676   6.635  10.057   4.635  3.2370 -1.0499  1.9723
22812SOL    HW275677   6.702  10.189   4.667 -1.2095  2.0060 -0.3123
22813SOL     OW75678   2.202   0.147   0.304  0.0210 -0.4814 -0.2987
22813SOL    HW175679   2.233   0.110   0.222 -2.0511 -2.2268 -0.3669
22813SOL    HW275680   2.190   0.240   0.285  3.2910 -0.0240 -0.7514
22814SOL     OW75681   8.055   1.043   3.562 -0.1823  0.1059  0.5549
22814SOL    HW175682   8.037   1.126   3.518 -0.1805 -0.6654 -0.9349
22814SOL    HW275683   7.986   1.036   3.628 -0.3203  1.1683  0.5498
22815SOL     OW75684   2.851   8.323   8.832 -0.5832  0.3927  0.8929
22815SOL    HW175685   2.870   8.284   8.747  0.9593  1.0241  0.9073
22815SOL    HW275686   2.918   8.287   8.890 -0.3081  1.5598  1.3277
22816SOL     OW75687   0.757   8.714   5.181 -0.4944 -0.1811 -0.2682
22816SOL    HW175688   0.692   8.648   5.205 -1.0922  0.8233  0.9160
22816SOL    HW275689   0.712   8.769   5.117 -0.2851 -0.3837 -0.5952
22817SOL     OW75690   1.265   2.334   2.169  0.1990 -0.0743  0.6495
22817SOL    HW175691   1.318   2.405   2.204  0.6837  0.1064 -0.3952
22817SOL    HW275692   1.314   2.255   2.190 -0.0451 -0.0520  1.3010
22818SOL     OW75693   8.340   1.774   1.159 -0.2417 -0.2290 -0.3837
22818SOL    HW175694   8.274   1.724   1.206 -1.6992  2.1284  0.2524
22818SOL    HW275695   8.354   1.852   1.214  1.3094  0.4691 -1.6980
22819SOL     OW75696  11.692   0.025   9.934  0.0957 -0.3104  0.0904
22819SOL    HW175697  11.665  -0.035  10.004 -1.0425 -1.0162 -0.9214
22819SOL    HW275698  11.723  -0.033   9.864 -0.2451  0.3108 -0.5797
22820SOL     OW75699   9.360   0.180   4.889  0.4461  0.2161  0.7738
22820SOL    HW175700   9.400   0.267   4.884  0.9143 -0.0165  0.3364
22820SOL    HW275701   9.289   0.190   4.953 -1.8435  1.8374 -1.7957
22821SOL     OW75702   0.555   6.272   4.055 -0.3679  0.1469  0.0603
22821SOL    HW175703   0.471   6.303   4.090 -1.9386 -3.9203  0.3696
22821SOL    HW275704   0.561   6.181   4.083  4.0358  0.0908 -0.3342
22822SOL     OW75705   6.622  11.314   5.025 -0.0428  0.2449  0.2675
22822SOL    HW175706   6.628  11.403   5.060  0.4104  0.7483 -1.0287
22822SOL    HW275707   6.559  11.270   5.083 -2.0108  2.0586 -0.3747
22823SOL     OW75708   3.639  11.736   2.546  0.6145 -0.7338 -0.2825
22823SOL    HW175709   3.729  11.754   2.571  0.2901 -0.3535  0.6882
22823SOL    HW275710   3.588  11.806   2.589 -0.1756 -1.1865 -0.4652
22824SOL     OW75711   9.252   2.179   1.051 -0.4884  0.1435  0.4063
22824SOL    HW175712   9.249   2.084   1.055  0.9124 -0.0467 -1.3075
22824SOL    HW275713   9.279   2.198   0.961  2.2388  2.0146  1.4682
22825SOL     OW75714   9.756   8.510   7.234 -0.0319 -0.5055 -0.5302
22825SOL    HW175715   9.673   8.478   7.197  0.0238  0.6026 -1.6696
22825SOL    HW275716   9.778   8.587   7.182  1.3048 -0.2892  0.2971
22826SOL     OW75717   6.236  10.726   1.318  0.1948  0.3723 -0.0027
22826SOL    HW175718   6.208  10.644   1.278 -1.9890  0.4888  1.1273
22826SOL    HW275719   6.297  10.700   1.387  1.1081 -0.1143 -0.9862
22827SOL     OW75720   7.021   3.117   0.281 -0.0296  0.0365 -0.0233
22827SOL    HW175721   7.052   3.124   0.191  2.5627 -1.4548  0.6281
22827SOL    HW275722   7.033   3.205   0.317  1.3372  0.0625 -0.4812
22828SOL     OW75723   3.625   5.679  10.441  0.1885 -0.3349  0.0259
22828SOL    HW175724   3.706   5.727  10.455  0.3376 -0.5830  0.0151
22828SOL    HW275725   3.621   5.616  10.513 -0.6591  0.5660  0.7912
22829SOL     OW75726   4.474  11.905   3.154  0.1532  0.5874 -0.3982
22829SOL    HW175727   4.495  11.956   3.075  0.3676  1.0844 -0.0246
22829SOL    HW275728   4.555  11.861   3.176  1.5351  3.9837  2.1453
22830SOL     OW75729   0.717   4.755   9.696 -0.3163  0.2739  0.1038
22830SOL    HW175730   0.628   4.784   9.675  0.0528  1.7039  0.4082
22830SOL    HW275731   0.742   4.700   9.621 -1.7273 -0.8503  0.4008
22831SOL     OW75732   7.467   0.480   1.177 -0.4293 -0.8270 -0.3807
22831SOL    HW175733   7.560   0.491   1.198 -0.4621  3.1098 -1.4512
22831SOL    HW275734   7.459   0.510   1.086 -2.8074 -0.5853 -0.1565
22832SOL     OW75735   6.393   0.591   8.371  0.1830  0.6774 -0.0080
22832SOL    HW175736   6.449   0.580   8.448 -1.1947 -1.0809  0.8119
22832SOL    HW275737   6.455   0.611   8.300  1.6542  0.6358  1.2028
22833SOL     OW75738  11.247   0.127   2.886  0.2544  0.1064 -0.6627
22833SOL    HW175739  11.188   0.054   2.904 -0.3380  0.5240 -0.8570
22833SOL    HW275740  11.237   0.144   2.792  1.9317 -0.8714 -1.0500
22834SOL     OW75741   8.572   4.315   6.020 -0.1123  0.1490 -0.0751
22834SOL    HW175742   8.615   4.230   6.029  1.4980  0.9561  0.1106
22834SOL    HW275743   8.573   4.351   6.109  1.5264  1.4154 -0.5593
22835SOL     OW75744   0.733   2.239   8.268 -0.2422 -0.1703  0.0450
22835SOL    HW175745   0.775   2.319   8.237 -0.1354 -0.2651 -0.0590
22835SOL    HW275746   0.645   2.241   8.231 -0.2715 -0.0543  0.1209
22836SOL     OW75747   8.173  11.063  11.064  0.2310  0.6213 -0.1407
22836SOL    HW175748   8.108  11.014  11.113 -0.9478  1.3702 -0.8972
22836SOL    HW275749   8.122  11.113  11.000  1.5376  1.3689 -0.6367
22837SOL     OW75750   8.666   8.453  11.956  0.2982 -0.1448  0.6177
22837SOL    HW175751   8.692   8.392  12.025 -3.0430 -1.7327  0.6645
22837SOL    HW275752   8.640   8.532  12.002 -0.4630 -0.6519  1.0731
22838SOL     OW75753   0.744   1.295   9.191 -0.1002  0.2620  0.0530
22838SOL    HW175754   0.662   1.315   9.144  0.1191  0.3698 -0.2856
22838SOL    HW275755   0.786   1.229   9.136  0.6097  1.0734 -0.4015
22839SOL     OW75756  11.658   2.387   2.900 -0.6094  0.7287 -0.0190
22839SOL    HW175757  11.642   2.396   2.806  0.0226  0.1430 -0.1996
22839SOL    HW275758  11.594   2.323   2.929  0.9621 -1.2215 -0.6313
22840SOL     OW75759   6.462   8.785   1.124 -0.0781 -0.0973  0.1399
22840SOL    HW175760   6.557   8.794   1.119 -0.1306  0.2498 -0.3350
22840SOL    HW275761   6.444   8.771   1.217  0.2677  2.0026  0.5763
22841SOL     OW75762   9.410  12.063   5.947 -0.0680 -0.0693  0.3283
22841SOL    HW175763   9.325  12.056   5.991 -0.1426  1.7494  0.5337
22841SOL    HW275764   9.395  12.025   5.860 -1.0631  0.1772  0.3831
22842SOL     OW75765  12.325   6.940   2.440  0.5958  0.3340 -0.1331
22842SOL    HW175766  12.259   6.895   2.493  0.7641  0.4804  0.2021
22842SOL    HW275767  12.348   6.878   2.371 -1.1224  0.8681 -1.2643
22843SOL     OW75768   3.371  10.756   1.336 -0.2623  0.2315 -0.4471
22843SOL    HW175769   3.373  10.715   1.423  0.7518 -2.3559 -1.5699
22843SOL    HW275770   3.444  10.817   1.336 -0.0005 -0.0675  0.3936
22844SOL     OW75771  11.568   0.920   4.134 -0.0159 -0.2671  1.1697
22844SOL    HW175772  11.534   0.915   4.044  0.7624 -0.5260  0.8841
22844SOL    HW275773  11.550   1.010   4.161 -0.2397 -0.1794  0.7498
22845SOL     OW75774   1.686   0.378   8.385  0.9694 -0.1673  0.0710
22845SOL    HW175775   1.773   0.412   8.362  2.3562 -2.9198  0.8365
22845SOL    HW275776   1.694   0.351   8.476 -1.2895  1.0970  0.7148
22846SOL     OW75777   9.614   8.943   3.181 -0.5423 -0.5540 -0.6021
22846SOL    HW175778   9.599   8.878   3.251  0.5645 -0.2946 -0.0946
22846SOL    HW275779   9.555   9.015   3.203 -1.8437 -1.4005 -1.2158
22847SOL     OW75780  12.137   9.422   5.460 -0.7825  0.1099  0.2978
22847SOL    HW175781  12.197   9.475   5.409  0.5656 -2.8493 -1.4690
22847SOL    HW275782  12.050   9.447   5.430 -0.1713  0.8224 -0.9368
22848SOL     OW75783   7.158   1.076   5.015 -0.2290 -0.5357  0.4248
22848SOL    HW175784   7.133   1.017   5.086  0.2466 -0.5257  0.5989
22848SOL    HW275785   7.176   1.018   4.941  0.3785 -0.6256  0.6365
22849SOL     OW75786   8.910   5.719  11.201  0.2867  0.1106  0.7310
22849SOL    HW175787   8.842   5.756  11.257  1.2683  2.4039  0.5457
22849SOL    HW275788   8.943   5.794  11.151  0.7266 -1.5063 -1.5802
22850SOL     OW75789   0.094  11.662   8.783  0.4881  0.0482 -0.0096
22850SOL    HW175790   0.026  11.606   8.745  0.4547  0.2561 -0.2584
22850SOL    HW275791   0.167  11.602   8.801  0.4636 -0.0731 -0.2992
22851SOL     OW75792   0.466   7.467  11.374 -0.2300 -0.1105  0.1857
22851SOL    HW175793   0.414   7.545  11.392  0.0318 -0.4107  2.5538
22851SOL    HW275794   0.405   7.407  11.331 -0.6654  1.0498 -0.8615
22852SOL     OW75795   1.276   9.061  11.713 -0.4803 -0.1997 -0.6252
22852SOL    HW175796   1.249   8.995  11.649 -0.6980  0.3902 -1.1622
22852SOL    HW275797   1.355   9.101  11.675 -0.6483  0.1996 -0.5646
22853SOL     OW75798  10.138  10.181   0.935 -0.2091 -0.4987 -0.0582
22853SOL    HW175799  10.219  10.227   0.956  1.5309 -1.7087 -3.3761
22853SOL    HW275800  10.112  10.138   1.016  0.1697  3.0728  2.1546
22854SOL     OW75801   3.407   1.425   2.019 -1.1705 -0.7990  0.0843
22854SOL    HW175802   3.361   1.461   2.094 -1.3526 -1.4496  0.2958
22854SOL    HW275803   3.371   1.336   2.009  0.8955 -1.8212  1.0370
22855SOL     OW75804   5.918   6.556   0.078 -0.5699 -0.4873  0.4742
22855SOL    HW175805   5.856   6.616   0.118 -0.2090 -0.4240  0.9461
22855SOL    HW275806   5.937   6.594  -0.008 -0.3600  0.0652  0.7596
22856SOL     OW75807  12.634   1.828   3.978  0.6406 -0.0473  0.0186
22856SOL    HW175808  12.577   1.802   3.906 -1.0840  0.0153  1.2767
22856SOL    HW275809  12.653   1.920   3.961  0.6359 -0.1523 -0.5881
22857SOL     OW75810   2.997   2.704   1.425  0.6788  0.7837  0.2782
22857SOL    HW175811   3.071   2.765   1.427  2.4347 -1.0694 -2.1293
22857SOL    HW275812   3.022   2.633   1.484 -0.5427  1.4858  1.6859
22858SOL     OW75813   5.879   4.519   8.611 -0.2279  0.1791 -0.0714
22858SOL    HW175814   5.939   4.537   8.683 -0.7881  0.9793  0.2164
22858SOL    HW275815   5.794   4.552   8.642 -0.3058  1.3786 -1.4419
22859SOL     OW75816   1.259   6.883   3.715 -0.5507 -0.9171 -0.0941
22859SOL    HW175817   1.170   6.850   3.702 -0.3134 -0.9476 -1.7601
22859SOL    HW275818   1.315   6.822   3.666 -0.0968  1.8102 -3.2866
22860SOL     OW75819   4.640   8.477   5.412  0.3747  0.0881 -0.4276
22860SOL    HW175820   4.574   8.546   5.419  0.9097  0.7380 -1.6062
22860SOL    HW275821   4.673   8.483   5.322  0.8608 -1.3153 -0.3718
22861SOL     OW75822   6.010   9.539   0.055 -0.5321 -0.2234  0.2144
22861SOL    HW175823   6.055   9.611   0.099 -2.2413  0.1955  1.3574
22861SOL    HW275824   5.975   9.577  -0.025  2.0227 -0.8302 -1.2919
22862SOL     OW75825  10.127   1.893   9.883  0.1158 -0.0647 -0.0920
22862SOL    HW175826  10.059   1.827   9.894 -0.1173  0.1472 -0.2519
22862SOL    HW275827  10.191   1.853   9.824 -0.0366 -0.1381 -0.2067
22863SOL     OW75828  11.181   7.761   6.938  0.5493  0.3357  0.1902
22863SOL    HW175829  11.143   7.750   7.024  0.3892 -1.3800 -0.0626
22863SOL    HW275830  11.209   7.673   6.912  1.6046  0.9840 -1.0447
22864SOL     OW75831   4.646  11.305  11.908  0.4159  0.2330 -0.1208
22864SOL    HW175832   4.560  11.323  11.869  0.2322  0.0336  0.1902
22864SOL    HW275833   4.628  11.295  12.001  0.9450  1.3648  0.1241
22865SOL     OW75834   6.546   0.577   2.009 -0.1510  0.5306  0.1512
22865SOL    HW175835   6.529   0.639   1.937 -2.0952  1.5663  1.4210
22865SOL    HW275836   6.468   0.522   2.013 -0.2469  0.7375  1.6844
22866SOL     OW75837   1.277  10.188   4.820  0.0859 -0.3480  0.1267
22866SOL    HW175838   1.215  10.244   4.867 -0.0563 -0.0545 -0.3946
22866SOL    HW275839   1.300  10.239   4.742 -0.1489 -1.0773 -0.4263
22867SOL     OW75840  12.050   1.152  11.908 -0.2557  0.1088 -0.0911
22867SOL    HW175841  12.042   1.181  11.817  2.7593  0.3164 -0.3981
22867SOL    HW275842  12.025   1.228  11.960  0.7551  0.9788 -0.8270
22868SOL     OW75843   7.726   6.847  10.087  0.1756  0.2322 -0.1047
22868SOL    HW175844   7.670   6.913  10.046  0.3509  0.8460  0.6366
22868SOL    HW275845   7.802   6.895  10.120  0.8934 -0.5181 -0.6199
22869SOL     OW75846   7.267  11.638  10.300 -0.6047 -0.1969  0.5438
22869SOL    HW175847   7.181  11.631  10.341 -0.7377  0.1574  0.3362
22869SOL    HW275848   7.248  11.656  10.208 -0.3137 -1.4123  0.2324
22870SOL     OW75849   0.881   5.741   0.743  0.6839  0.5277 -0.4800
22870SOL    HW175850   0.939   5.746   0.666  0.4338 -2.1517 -0.9649
22870SOL    HW275851   0.793   5.748   0.707  0.5775 -0.4244 -0.4429
22871SOL     OW75852   7.703   2.835   5.519  0.8013 -0.1318  0.3032
22871SOL    HW175853   7.738   2.918   5.552  0.2075  0.2111  0.0837
22871SOL    HW275854   7.621   2.822   5.567  0.6943 -0.3939  0.0555
22872SOL     OW75855  11.151   7.489   9.471  0.2899 -0.7030  0.0711
22872SOL    HW175856  11.165   7.497   9.377  1.7417 -0.9325  0.2504
22872SOL    HW275857  11.239   7.488   9.509 -0.2633  0.5234  1.5274
22873SOL     OW75858  12.239   7.644   6.047 -0.0850 -0.3354  0.0043
22873SOL    HW175859  12.202   7.612   5.965 -1.8162  0.9708  0.2033
22873SOL    HW275860  12.184   7.720   6.070  1.8002  0.7562  1.1774
22874SOL     OW75861   5.923  12.405  11.458 -0.3088 -0.2327 -0.1087
22874SOL    HW175862   5.864  12.385  11.530 -0.0760  1.0817  0.4790
22874SOL    HW275863   5.970  12.483  11.487 -0.2421  0.3541 -1.6987
22875SOL     OW75864   4.471   4.711  10.251 -0.4381  0.6653 -0.4903
22875SOL    HW175865   4.472   4.627  10.297  0.8940  0.4896 -0.7879
22875SOL    HW275866   4.415   4.697  10.175 -0.1750  0.0240 -0.5691
22876SOL     OW75867  11.356   5.229   9.138 -0.4261 -0.5049  0.5594
22876SOL    HW175868  11.373   5.152   9.193 -1.1919 -1.1608 -0.1086
22876SOL    HW275869  11.443   5.257   9.109 -0.2039 -1.7423 -0.0200
22877SOL     OW75870   3.101   1.498   0.736  0.3908  0.4303 -0.0030
22877SOL    HW175871   3.194   1.500   0.755  0.3822  1.2975 -0.0185
22877SOL    HW275872   3.089   1.422   0.679  1.0626  0.2634  0.0765
22878SOL     OW75873   3.579   7.396   2.554  0.3234 -0.0542 -0.2757
22878SOL    HW175874   3.659   7.428   2.594  0.0505 -0.3100  0.4896
22878SOL    HW275875   3.608   7.352   2.474  1.1693 -1.7421  0.8947
22879SOL     OW75876   2.323   5.129   6.299 -0.3812  0.1615 -0.2895
22879SOL    HW175877   2.350   5.058   6.357 -1.4771  0.0978  0.1647
22879SOL    HW275878   2.376   5.204   6.327  0.7417 -0.4466 -0.7357
22880SOL     OW75879   8.586  11.171  10.804  0.4751 -0.5612 -0.1222
22880SOL    HW175880   8.676  11.179  10.835  0.8464 -0.9012 -1.0895
22880SOL    HW275881   8.588  11.097  10.744  0.0928  0.8843 -2.0380
22881SOL     OW75882   5.839  10.439  12.261  0.1709 -0.7937  0.1065
22881SOL    HW175883   5.840  10.345  12.277  0.6328 -0.9597 -0.8233
22881SOL    HW275884   5.858  10.479  12.346 -1.3852 -1.4818  0.8222
22882SOL     OW75885  12.272  10.342   5.706  0.6553  0.1954 -0.3607
22882SOL    HW175886  12.357  10.311   5.674 -0.1327 -0.1540 -2.2181
22882SOL    HW275887  12.237  10.395   5.634 -1.3306 -0.8517 -0.2272
22883SOL     OW75888   9.214  12.126  10.279 -0.9964  0.2566 -0.0398
22883SOL    HW175889   9.260  12.178  10.213 -0.5765  1.5926  1.2603
22883SOL    HW275890   9.140  12.180  10.306 -1.7426 -0.6988 -0.0934
22884SOL     OW75891   2.100   8.417   0.839  0.7216  0.5646 -0.5282
22884SOL    HW175892   2.181   8.424   0.890  0.5895  0.5694 -0.3163
22884SOL    HW275893   2.051   8.496   0.863  0.4628  0.3421 -0.3153
22885SOL     OW75894  12.294   4.306   6.038 -0.2096 -0.2413  0.6271
22885SOL    HW175895  12.363   4.251   6.000 -0.3970 -0.6154  0.8275
22885SOL    HW275896  12.336   4.391   6.051  0.9609 -1.0925  3.0149
22886SOL     OW75897  11.752   4.140   4.244  0.2117 -0.1982  0.2947
22886SOL    HW175898  11.657   4.149   4.241  0.1810 -0.3871  0.6766
22886SOL    HW275899  11.770   4.102   4.330  0.5330 -1.3589 -0.2579
22887SOL     OW75900   4.026   9.162   3.739 -0.5791 -0.3982  0.1498
22887SOL    HW175901   3.931   9.172   3.752 -0.1976  0.9358  2.4452
22887SOL    HW275902   4.048   9.082   3.786 -0.5271 -0.7131 -0.3916
22888SOL     OW75903   5.330  10.901   0.933  0.1318  0.4349 -0.2277
22888SOL    HW175904   5.379  10.836   0.984 -1.1458  0.2297  0.7858
22888SOL    HW275905   5.388  10.977   0.929  0.9750 -0.1778 -0.0196
22889SOL     OW75906   8.754   8.132   4.029  0.3950 -0.0897  0.1781
22889SOL    HW175907   8.837   8.160   4.067  1.1035 -0.3948 -1.0993
22889SOL    HW275908   8.722   8.209   3.982  0.4848 -0.2804 -0.2039
22890SOL     OW75909   7.111  10.275   8.470 -0.0223  0.5712 -0.0767
22890SOL    HW175910   7.194  10.241   8.504 -0.0288 -0.5640 -1.1313
22890SOL    HW275911   7.051  10.270   8.545  0.6570  0.7054  0.4915
22891SOL     OW75912   1.273   4.627   5.383  0.6420 -0.1181 -0.2150
22891SOL    HW175913   1.264   4.579   5.465 -1.9323  3.7356  2.0552
22891SOL    HW275914   1.216   4.580   5.321 -1.0647 -0.5704  1.6046
22892SOL     OW75915   7.268   7.391   5.454  0.1976  0.0608  0.5170
22892SOL    HW175916   7.271   7.445   5.375 -1.2163  0.0056  0.3983
22892SOL    HW275917   7.299   7.449   5.524 -1.6094  1.1861  0.4535
22893SOL     OW75918  11.388   2.196   0.005 -0.5143  0.3841 -0.5185
22893SOL    HW175919  11.306   2.148   0.005 -0.2545 -0.1002  0.9499
22893SOL    HW275920  11.362   2.288   0.007 -1.0230  0.2333 -0.0198
22894SOL     OW75921   7.188  11.498   5.357 -0.1740 -0.0481 -0.7609
22894SOL    HW175922   7.125  11.560   5.393  2.3505  3.1036 -1.3345
22894SOL    HW275923   7.222  11.451   5.433 -0.6000  0.7879 -0.0416
22895SOL     OW75924   9.353   7.321   5.685  0.2413 -0.3513  0.1175
22895SOL    HW175925   9.281   7.298   5.743 -0.1656 -1.7119 -0.8715
22895SOL    HW275926   9.424   7.261   5.708  0.3668 -0.3391 -0.2233
22896SOL     OW75927   8.275   6.797   5.217  0.2799  0.0757  0.1955
22896SOL    HW175928   8.211   6.843   5.163  0.5557 -0.5956 -0.7376
22896SOL    HW275929   8.309   6.728   5.160  0.7120 -0.5498  1.1811
22897SOL     OW75930   0.785   1.404   0.800  0.3494 -0.2882 -0.3500
22897SOL    HW175931   0.838   1.367   0.870  0.1363  1.0076  0.5483
22897SOL    HW275932   0.700   1.419   0.840 -0.2863 -1.0294 -1.3729
22898SOL     OW75933   8.911   7.140   9.587 -0.0574 -0.4619 -0.2604
22898SOL    HW175934   8.816   7.130   9.594 -0.4344 -0.2111 -3.5226
22898SOL    HW275935   8.937   7.079   9.518  2.4477 -1.5892  1.5201
22899SOL     OW75936   5.949  11.226   1.661  0.1696 -0.0565  0.2672
22899SOL    HW175937   6.029  11.221   1.609  0.0186  0.7534 -0.0580
22899SOL    HW275938   5.978  11.266   1.744 -0.0469  1.1537 -0.2138
22900SOL     OW75939   8.505  10.842  10.410  0.0235 -0.5922 -0.5312
22900SOL    HW175940   8.505  10.748  10.393  0.3852 -0.5673 -0.6723
22900SOL    HW275941   8.416  10.870  10.388 -1.0209 -1.3808  2.2634
22901SOL     OW75942   8.223  10.212   7.650  0.2766 -0.5273 -0.0164
22901SOL    HW175943   8.285  10.274   7.611 -0.7665  1.3259  1.1138
22901SOL    HW275944   8.272  10.169   7.720  0.6560 -0.0611  0.0037
22902SOL     OW75945   8.170  10.272   2.519 -0.2284  0.1328 -0.2938
22902SOL    HW175946   8.210  10.232   2.442  2.7229  0.1629  1.0970
22902SOL    HW275947   8.166  10.366   2.499  1.1993  0.2346 -0.1721
22903SOL     OW75948   1.812   0.338   3.231 -0.7221  0.1441  0.6299
22903SOL    HW175949   1.765   0.366   3.152 -0.6790  1.4335  1.0381
22903SOL    HW275950   1.901   0.321   3.201 -1.2726 -1.7796 -0.0482
22904SOL     OW75951   8.645   3.987  10.573 -0.0946  0.9041  0.8672
22904SOL    HW175952   8.716   3.988  10.509 -0.0721  0.5877  0.8863
22904SOL    HW275953   8.570   3.951  10.526 -0.7294  2.8019  0.3509
22905SOL     OW75954   5.721   7.205   4.361  0.1634  0.7762 -0.2222
22905SOL    HW175955   5.689   7.128   4.315  1.3532 -0.1956  0.5242
22905SOL    HW275956   5.715   7.276   4.297 -2.7083  0.5206 -0.3501
22906SOL     OW75957   3.845   7.736  12.450  0.1321 -0.4840 -0.1301
22906SOL    HW175958   3.861   7.696  12.365  0.3217  0.2572 -0.4552
22906SOL    HW275959   3.806   7.667  12.503  1.1293 -1.3026 -0.4397
22907SOL     OW75960   4.771   1.013   9.484  0.0966  0.1205  0.4967
22907SOL    HW175961   4.822   1.072   9.429  0.4575  0.0262  0.7290
22907SOL    HW275962   4.797   1.035   9.574  0.5024 -0.6304  0.5729
22908SOL     OW75963   3.444   8.206  10.263  0.3422 -0.1689 -0.8523
22908SOL    HW175964   3.437   8.124  10.213 -0.3825  0.4033 -1.7169
22908SOL    HW275965   3.387   8.192  10.339  3.0849 -1.8674  1.0783
22909SOL     OW75966   6.057  12.647  11.559 -0.0905  0.0813  0.7468
22909SOL    HW175967   6.044  12.668  11.651 -0.8768  0.0293  0.6557
22909SOL    HW275968   6.145  12.612  11.554 -0.1157 -0.0924  1.5105
22910SOL     OW75969   4.972   8.066   0.241 -0.7952 -0.0431  0.1548
22910SOL    HW175970   4.930   8.150   0.256 -1.3615 -0.3569  0.3457
22910SOL    HW275971   4.906   8.014   0.194 -0.8172 -0.7144  0.9085
22911SOL     OW75972   9.637  10.521   7.712  0.1298 -0.3533 -0.0613
22911SOL    HW175973   9.692  10.569   7.775  1.3420 -1.7630 -0.0030
22911SOL    HW275974   9.608  10.443   7.760  0.3748 -1.0223 -0.9756
22912SOL     OW75975   4.422   9.812  10.979  0.5174 -0.3381 -0.5672
22912SOL    HW175976   4.360   9.759  10.929  0.5988 -0.7106 -0.2787
22912SOL    HW275977   4.493   9.752  11.000  0.9068  0.0469 -0.7646
22913SOL     OW75978   5.845   0.598   0.545  0.6754  0.0066  0.5521
22913SOL    HW175979   5.776   0.580   0.609 -0.2459 -0.2158 -0.4838
22913SOL    HW275980   5.856   0.516   0.497  2.1163 -0.1531  1.1097
22914SOL     OW75981   1.356   5.036   1.745  0.0688  0.0566 -0.0350
22914SOL    HW175982   1.409   5.107   1.782 -0.7096 -0.2835  1.8234
22914SOL    HW275983   1.394   5.021   1.659  0.1590  2.8573 -0.5987
22915SOL     OW75984   7.184   4.708  10.629  0.7271  0.1515  0.2450
22915SOL    HW175985   7.164   4.679  10.718 -2.6536  0.6891 -0.2266
22915SOL    HW275986   7.179   4.804  10.634  0.6497  0.1911 -0.5049
22916SOL     OW75987   8.832   6.204   4.408  0.0584  0.0336  0.5099
22916SOL    HW175988   8.864   6.276   4.354  2.6194  0.1232  1.9930
22916SOL    HW275989   8.840   6.127   4.352 -0.0540  0.5157 -0.1822
22917SOL     OW75990  10.648   4.793   9.647 -0.1227  0.1561  0.0187
22917SOL    HW175991  10.634   4.702   9.672 -1.1429 -0.1833 -1.6328
22917SOL    HW275992  10.726   4.791   9.592  0.3485  0.4192  0.6717
22918SOL     OW75993   3.560   3.239   4.895 -0.4027  0.0715 -0.5308
22918SOL    HW175994   3.602   3.157   4.870 -2.8767 -1.3855 -0.1590
22918SOL    HW275995   3.495   3.255   4.827 -0.8008  1.0895  0.0650
22919SOL     OW75996  12.075  10.622  11.758 -0.1884 -0.5174  0.8112
22919SOL    HW175997  12.114  10.669  11.831 -0.0970 -1.0855  1.1400
22919SOL    HW275998  12.117  10.659  11.680  1.4628 -1.4723  1.1740
22920SOL     OW75999   4.957   6.074   6.070 -0.5604 -0.1610  0.5489
22920SOL    HW176000   5.050   6.055   6.057 -0.4888 -0.9909  2.0513
22920SOL    HW276001   4.954   6.124   6.152 -1.2021  2.4881 -0.9598
22921SOL     OW76002   6.689  12.133   7.248  0.0418  0.1572  0.4111
22921SOL    HW176003   6.616  12.075   7.268  0.9889 -1.4595 -0.6368
22921SOL    HW276004   6.767  12.083   7.270  0.9520  0.2718 -2.2199
22922SOL     OW76005   7.368  10.666   1.612  0.7016  0.1618 -0.5278
22922SOL    HW176006   7.306  10.593   1.604 -1.6319  2.0959 -1.6769
22922SOL    HW276007   7.393  10.686   1.521  1.6483  0.5219 -0.1969
22923SOL     OW76008   5.755  11.141   2.404 -0.6731  0.2927 -0.3316
22923SOL    HW176009   5.722  11.177   2.486 -0.0443 -0.1140  0.1048
22923SOL    HW276010   5.737  11.047   2.409 -0.4090  0.2281 -0.5541
22924SOL     OW76011  12.216   2.647   7.679 -0.1748  0.1346 -0.2191
22924SOL    HW176012  12.247   2.630   7.767 -0.9726 -1.4109 -0.2059
22924SOL    HW276013  12.287   2.695   7.637  0.7903 -0.3471  0.8275
22925SOL     OW76014   0.052   8.549   7.509  0.1406 -0.0161 -0.0971
22925SOL    HW176015   0.088   8.485   7.570  0.8419  2.0472  1.7959
22925SOL    HW276016  -0.042   8.532   7.508  0.0153  0.3619  2.1862
22926SOL     OW76017   4.016   1.971  10.678  0.1971 -0.2968 -0.6917
22926SOL    HW176018   3.927   1.934  10.682  0.1097 -0.1339 -1.0954
22926SOL    HW276019   4.049   1.944  10.593  0.7482 -0.8286 -0.3217
22927SOL     OW76020   5.682   5.277   1.934  0.3470  0.0078  0.2301
22927SOL    HW176021   5.661   5.194   1.978  0.0298  0.9226  1.8654
22927SOL    HW276022   5.605   5.296   1.880 -0.2036 -0.0318  0.9930
22928SOL     OW76023  11.515  11.053   8.438 -0.1132 -0.2991  0.1015
22928SOL    HW176024  11.581  11.005   8.387 -0.7960 -0.7788 -0.3385
22928SOL    HW276025  11.444  11.070   8.376 -0.4564  0.1162  0.6006
22929SOL     OW76026   2.198   7.827   2.790 -0.0710  0.1280  0.3204
22929SOL    HW176027   2.241   7.814   2.705  0.4389 -0.5753  0.6721
22929SOL    HW276028   2.170   7.918   2.789 -0.1276  0.1130 -0.6334
22930SOL     OW76029  10.882   9.630   0.699  0.2023  0.2010  0.6504
22930SOL    HW176030  10.960   9.625   0.645  0.3671  2.7750  0.5085
22930SOL    HW276031  10.809   9.630   0.636  0.2585  0.6563  0.5815
22931SOL     OW76032  12.427   5.532  10.195 -0.0968  0.0056  0.5310
22931SOL    HW176033  12.413   5.447  10.151 -1.7754  0.4158  0.1999
22931SOL    HW276034  12.481   5.582  10.134  0.4754 -0.6422  0.4981
22932SOL     OW76035   0.977  11.629   8.963  0.1083  0.3298  0.5716
22932SOL    HW176036   0.937  11.543   8.948  1.7851 -0.3952  0.1291
22932SOL    HW276037   1.022  11.620   9.047  0.2783  0.7974  0.5325
22933SOL     OW76038   0.679   1.961   7.302  0.0550 -0.1591  0.6167
22933SOL    HW176039   0.651   1.889   7.358  0.7159  0.3845  1.6838
22933SOL    HW276040   0.611   2.028   7.315  0.0129 -0.1723  0.4685
22934SOL     OW76041  11.050   4.826   7.215  0.0683  0.7959 -0.6671
22934SOL    HW176042  11.085   4.914   7.201 -0.3994  0.8845 -1.3205
22934SOL    HW276043  11.102   4.791   7.287 -1.2006  2.4246  1.1358
22935SOL     OW76044   4.973   8.918  12.664  0.7412 -0.4816 -0.3761
22935SOL    HW176045   5.013   9.003  12.682  0.3070 -0.5179  0.8270
22935SOL    HW276046   4.911   8.905  12.735  0.1321 -1.3955 -1.0528
22936SOL     OW76047  12.216   4.307  12.065  0.0976 -0.2547 -0.1556
22936SOL    HW176048  12.230   4.228  12.118 -1.0011 -0.3240  0.0577
22936SOL    HW276049  12.125   4.300  12.036  0.7793 -0.4811 -2.4980
22937SOL     OW76050   7.751   1.756   9.333 -0.6054 -0.0039  0.3326
22937SOL    HW176051   7.684   1.802   9.384 -1.3915  0.1789 -0.8144
22937SOL    HW276052   7.833   1.799   9.356 -1.1869  1.2894  0.0858
22938SOL     OW76053  12.509   1.729  10.078  0.1333 -0.2917  0.2526
22938SOL    HW176054  12.437   1.719  10.015 -0.5810 -1.4392  1.2128
22938SOL    HW276055  12.563   1.651  10.065 -0.4031 -0.9063  1.4980
22939SOL     OW76056  10.923   6.675   9.659  0.0049  0.2555 -0.4103
22939SOL    HW176057  10.944   6.756   9.612  1.0773  0.2192 -0.0301
22939SOL    HW276058  10.928   6.606   9.593  0.1363  0.3756 -0.5256
22940SOL     OW76059   3.873  12.375   2.555 -0.5017 -0.5033  0.3270
22940SOL    HW176060   3.781  12.397   2.545 -0.4770 -0.6345 -0.2741
22940SOL    HW276061   3.883  12.350   2.647 -1.1064 -0.6837  0.3444
22941SOL     OW76062  12.017  11.668   5.035  0.1510  0.2202 -0.3497
22941SOL    HW176063  12.098  11.651   4.987 -1.0299  0.6403 -2.5886
22941SOL    HW276064  12.030  11.623   5.119  2.4933 -0.1155 -0.8081
22942SOL     OW76065   8.042   8.313  12.644 -0.4077 -0.3206  0.0636
22942SOL    HW176066   8.098   8.282  12.573 -0.2107  0.2328 -0.0228
22942SOL    HW276067   8.078   8.272  12.723 -1.2733 -1.8199 -0.2640
22943SOL     OW76068   0.081   2.676  10.288 -0.2340  0.0072  0.0747
22943SOL    HW176069   0.153   2.636  10.239 -2.1955 -2.9697 -0.7201
22943SOL    HW276070   0.015   2.696  10.222 -1.8562 -1.5224  1.1290
22944SOL     OW76071   5.435  12.448   6.650 -0.0934  0.2814  0.2043
22944SOL    HW176072   5.379  12.515   6.689 -2.0612 -1.9331  1.4472
22944SOL    HW276073   5.517  12.454   6.700 -0.1386  1.8255  0.1613
22945SOL     OW76074   5.377  10.980   2.449 -0.3967  0.1191  0.1018
22945SOL    HW176075   5.375  11.005   2.541  0.6422 -0.6161  0.3508
22945SOL    HW276076   5.461  10.935   2.439 -2.1758 -3.5208 -0.1769
22946SOL     OW76077   8.353   0.164   7.495  0.0348 -0.5121  0.6320
22946SOL    HW176078   8.279   0.215   7.528  0.1248  0.4058 -0.5384
22946SOL    HW276079   8.431   0.209   7.529  0.0884 -1.5370  1.9507
22947SOL     OW76080   1.923   5.449   6.888 -0.2930 -0.1757 -0.5113
22947SOL    HW176081   1.909   5.379   6.824 -1.7850  1.6155 -2.2873
22947SOL    HW276082   1.998   5.498   6.853  1.8096 -1.6770  1.5704
22948SOL     OW76083   8.138   5.736   5.127  0.2906 -0.4724 -0.0726
22948SOL    HW176084   8.129   5.816   5.178 -2.9524 -1.5100  1.2631
22948SOL    HW276085   8.120   5.666   5.190  0.6986 -2.1069 -1.6979
22949SOL     OW76086   5.693   2.137  12.512  0.5090 -0.1787  0.0505
22949SOL    HW176087   5.759   2.192  12.555  1.3107 -0.1615 -1.1563
22949SOL    HW276088   5.664   2.077  12.581  0.7777  0.7072  0.9649
22950SOL     OW76089   7.539   4.811  12.237 -0.0227 -0.2259  0.2269
22950SOL    HW176090   7.446   4.793  12.251 -0.4562  1.5842 -0.1787
22950SOL    HW276091   7.576   4.819  12.325  0.0936 -2.3384  0.4320
22951SOL     OW76092   9.640   3.045   6.150  0.1378  0.5074 -0.5098
22951SOL    HW176093   9.639   2.950   6.151  0.6307  0.4767 -1.6352
22951SOL    HW276094   9.575   3.069   6.084  0.5230  0.9328 -0.7384
22952SOL     OW76095  10.801   1.138   7.342 -0.1355 -0.4883 -0.2054
22952SOL    HW176096  10.760   1.219   7.374  1.0357 -0.4242  1.2319
22952SOL    HW276097  10.731   1.073   7.345 -0.3419 -0.2397  1.6379
22953SOL     OW76098   3.732   2.677   1.997  0.6186  0.1123 -0.1556
22953SOL    HW176099   3.732   2.606   2.061  1.0694  0.7503  0.5629
22953SOL    HW276100   3.664   2.737   2.027 -1.0228 -0.8419 -1.7362
22954SOL     OW76101   3.481  11.094   4.758 -0.3306 -0.0416 -0.1045
22954SOL    HW176102   3.423  11.108   4.833 -2.0381 -0.6905 -1.2477
22954SOL    HW276103   3.441  11.145   4.687  0.0907 -1.0950 -1.1172
22955SOL     OW76104   2.289   8.318   7.476  0.1527 -0.2299  0.5500
22955SOL    HW176105   2.374   8.287   7.507  0.6448  2.5977  2.4297
22955SOL    HW276106   2.290   8.412   7.493 -2.0198  0.5747 -2.6751
22956SOL     OW76107   1.491   9.445   4.552  0.3045 -0.3967 -0.0323
22956SOL    HW176108   1.487   9.536   4.522  0.0159 -0.3899  0.0261
22956SOL    HW276109   1.501   9.394   4.472  0.7850 -0.2932 -0.0420
22957SOL     OW76110   0.565   4.799   3.701 -1.0054  0.0895 -0.4425
22957SOL    HW176111   0.549   4.834   3.788  0.3754 -2.2139  0.8501
22957SOL    HW276112   0.644   4.845   3.671 -1.4567  0.8577 -0.4699
22958SOL     OW76113  11.724   5.630   2.673 -0.0895 -0.0130  0.3642
22958SOL    HW176114  11.677   5.617   2.755  0.8634  1.7989  1.2546
22958SOL    HW276115  11.708   5.722   2.651  0.5951 -0.1724 -0.8840
22959SOL     OW76116   9.378   9.624   8.439 -0.6239  0.2125  0.5162
22959SOL    HW176117   9.366   9.712   8.405 -1.0394 -0.6319 -1.7031
22959SOL    HW276118   9.473   9.616   8.451 -0.3011  0.1828 -1.6814
22960SOL     OW76119   0.459   5.281  11.921  0.2539  0.0705 -0.4106
22960SOL    HW176120   0.395   5.267  11.991 -0.5341  0.2638 -1.0720
22960SOL    HW276121   0.539   5.241  11.953 -0.5708 -1.4612 -0.1251
22961SOL     OW76122  10.017   0.487  12.545  0.5813  0.5460 -0.7901
22961SOL    HW176123  10.060   0.413  12.587  0.6342  0.0695 -1.6612
22961SOL    HW276124  10.038   0.562  12.600 -1.6058 -0.4391  1.6066
22962SOL     OW76125  12.532   0.182  12.653  0.4976  0.0623  0.5803
22962SOL    HW176126  12.502   0.229  12.575 -1.2743 -0.0973  1.1185
22962SOL    HW276127  12.459   0.124  12.675 -0.1019  1.7982  3.7475
22963SOL     OW76128   6.245   6.202  10.657 -0.0762  0.4249  0.4222
22963SOL    HW176129   6.271   6.291  10.634 -1.5422  1.0577  1.1212
22963SOL    HW276130   6.328   6.154  10.664  0.7970  1.9448  0.9251
22964SOL     OW76131   1.033   4.645   4.337  0.1244  0.3340  0.1021
22964SOL    HW176132   0.971   4.575   4.316 -0.7944  1.0344  0.3925
22964SOL    HW276133   1.061   4.626   4.427  1.1066 -0.5376 -0.3825
22965SOL     OW76134   1.442   8.595  12.045 -0.2481 -0.0353  0.2397
22965SOL    HW176135   1.450   8.644  12.127  0.4683  0.6828 -0.2344
22965SOL    HW276136   1.351   8.569  12.041 -0.6412  1.2075  0.5578
22966SOL     OW76137   8.264   6.348   7.841 -0.3946  0.1749 -0.1752
22966SOL    HW176138   8.299   6.272   7.794 -0.6467 -1.2257  1.7789
22966SOL    HW276139   8.203   6.312   7.904 -1.1804  2.1080  0.2574
22967SOL     OW76140   8.926   7.548   8.706 -0.4508  0.2386  0.0509
22967SOL    HW176141   8.912   7.613   8.775 -0.4918 -1.0700  1.3162
22967SOL    HW276142   8.862   7.480   8.724 -1.4643  0.5279 -2.1766
22968SOL     OW76143   5.705   6.071   3.538  0.1271 -0.3228  0.6498
22968SOL    HW176144   5.690   5.989   3.491  0.8163 -0.1041  0.0308
22968SOL    HW276145   5.784   6.109   3.498 -1.3164  1.6587 -0.5015
22969SOL     OW76146  10.717  10.813   5.554  0.3821 -0.0070 -0.1330
22969SOL    HW176147  10.629  10.816   5.516  1.1857  0.1663 -2.0840
22969SOL    HW276148  10.716  10.881   5.622 -0.4626  1.2681 -1.3625
22970SOL     OW76149  12.287   0.265   1.381 -0.6073  0.0719  0.7932
22970SOL    HW176150  12.369   0.222   1.356 -1.4265 -0.7738 -0.5795
22970SOL    HW276151  12.254   0.213   1.454 -0.3905 -0.1717  0.7195
22971SOL     OW76152  10.999   1.699   4.577 -0.1741 -0.0924 -0.3293
22971SOL    HW176153  10.940   1.644   4.628  1.4533 -1.4264  0.2068
22971SOL    HW276154  10.966   1.787   4.589 -1.4195 -0.6779  0.8246
22972SOL     OW76155   3.596   3.178  10.287 -0.0508 -0.3123  0.6281
22972SOL    HW176156   3.661   3.109  10.298 -0.4208 -1.2136 -1.9792
22972SOL    HW276157   3.604   3.202  10.194 -2.0909  0.9262  0.7321
22973SOL     OW76158   9.322   3.125   0.019  0.9204 -0.2588  0.6795
22973SOL    HW176159   9.334   3.035   0.049  1.3703 -0.1905  0.7166
22973SOL    HW276160   9.277   3.118  -0.064  5.0687 -0.8312 -1.7876
22974SOL     OW76161   6.481   6.077  11.428 -0.2929  0.4167 -0.5813
22974SOL    HW176162   6.462   6.142  11.496  0.2382  1.0786 -1.0576
22974SOL    HW276163   6.394   6.048  11.400 -0.5473  1.1285 -0.5608
22975SOL     OW76164   6.597   4.837  12.438  0.5539 -0.2131 -0.2637
22975SOL    HW176165   6.563   4.750  12.417  0.4041 -0.3352  0.4446
22975SOL    HW276166   6.522   4.895  12.430 -0.1536 -0.6491  2.3849
22976SOL     OW76167   4.058  12.564  10.272  0.2420 -0.2048 -0.3648
22976SOL    HW176168   4.101  12.534  10.191  0.5808  1.9414 -1.0393
22976SOL    HW276169   3.965  12.542  10.259  0.6766 -2.4206 -0.0661
22977SOL     OW76170   6.779   3.549   8.008 -0.4286 -0.2535  0.2314
22977SOL    HW176171   6.809   3.458   8.010  0.4692 -0.0001 -0.7413
22977SOL    HW276172   6.799   3.583   8.095  0.1455 -0.7079  0.2802
22978SOL     OW76173  12.302  10.906   5.830 -0.2673 -0.0079 -0.3592
22978SOL    HW176174  12.340  10.940   5.749 -1.5488 -0.3363 -1.1347
22978SOL    HW276175  12.336  10.963   5.899  2.0080 -0.6016 -0.9160
22979SOL     OW76176   3.588   3.146   8.387  0.3642  0.0230 -0.2929
22979SOL    HW176177   3.575   3.057   8.420 -0.7151 -0.3930 -1.6859
22979SOL    HW276178   3.519   3.197   8.429  1.6836  0.4952  1.3853
22980SOL     OW76179   1.558   1.164  11.569  0.3216 -0.2454 -0.0149
22980SOL    HW176180   1.579   1.255  11.548 -0.0214 -0.0111  0.6266
22980SOL    HW276181   1.569   1.159  11.664 -0.5510 -0.6299  0.0741
22981SOL     OW76182   2.280   5.230  12.548  0.1107  0.0818  0.6051
22981SOL    HW176183   2.218   5.157  12.561 -0.6539  0.0944 -2.2206
22981SOL    HW276184   2.238   5.285  12.482  2.2120  1.2828  0.1863
22982SOL     OW76185  12.397   8.805  10.978 -0.4729 -0.3088  0.0473
22982SOL    HW176186  12.399   8.883  10.922  1.4050  0.0690  0.5861
22982SOL    HW276187  12.386   8.839  11.066 -2.1121 -0.8358  0.0855
22983SOL     OW76188   0.186  11.472   0.750 -0.0708  0.3372  0.6378
22983SOL    HW176189   0.191  11.490   0.844 -0.8630 -0.2326  0.8065
22983SOL    HW276190   0.092  11.467   0.732  0.0701 -1.0280  0.1214
22984SOL     OW76191   2.943  10.724   7.874 -0.1231 -0.0471  0.3410
22984SOL    HW176192   2.915  10.672   7.949  0.0752 -1.1302 -0.3171
22984SOL    HW276193   3.026  10.685   7.847  0.3414  1.0124  0.2093
22985SOL     OW76194   6.066   8.969   1.385  0.4715  1.0791 -0.0343
22985SOL    HW176195   6.011   9.047   1.390 -3.5074 -1.2783 -1.8865
22985SOL    HW276196   6.119   8.982   1.307  1.2519  2.6277  0.7123
22986SOL     OW76197   2.627   8.603   5.846 -0.2304  0.6059  0.4731
22986SOL    HW176198   2.601   8.648   5.927 -0.4727 -2.5057  2.2848
22986SOL    HW276199   2.550   8.552   5.821 -0.0327  1.2393 -1.6013
22987SOL     OW76200   4.458  10.927  10.542  0.3408  0.1853  0.7130
22987SOL    HW176201   4.478  10.951  10.451  2.3369  0.4181  1.1560
22987SOL    HW276202   4.515  10.983  10.594 -0.2297 -0.4697  2.0920
22988SOL     OW76203   0.072   7.016  11.923 -0.0720 -0.4196 -0.0912
22988SOL    HW176204   0.029   6.930  11.920 -0.3087 -0.2652 -1.5321
22988SOL    HW276205   0.163   6.996  11.949 -0.2257 -1.0563 -0.0200
22989SOL     OW76206   6.297   4.852   7.240 -0.2566 -0.2486  0.5525
22989SOL    HW176207   6.340   4.885   7.161  1.7926 -2.5163  0.6361
22989SOL    HW276208   6.212   4.819   7.208 -1.0309  2.0977 -0.0182
22990SOL     OW76209   2.732   1.055   4.487 -0.2461 -0.0556  0.2985
22990SOL    HW176210   2.780   1.113   4.547  0.4172 -1.0646  0.7658
22990SOL    HW276211   2.745   1.094   4.401  0.4560  0.3187  0.5623
22991SOL     OW76212   1.066   7.829   6.370  0.0183 -0.2974  0.0710
22991SOL    HW176213   1.132   7.830   6.439  1.2322 -0.3438 -1.0554
22991SOL    HW276214   0.982   7.824   6.417  0.7303  1.0589  1.5689
22992SOL     OW76215   9.903  11.796   3.469 -0.3151  0.2266  0.2460
22992SOL    HW176216   9.939  11.761   3.388  0.8685  1.4828  0.2076
22992SOL    HW276217   9.862  11.720   3.511 -0.3566 -0.5819 -1.1774
22993SOL     OW76218  12.321   1.769   7.519  0.1117  0.0295 -0.6923
22993SOL    HW176219  12.268   1.828   7.466 -0.4569 -0.0160 -0.1770
22993SOL    HW276220  12.312   1.801   7.608  1.4010  0.3564 -0.6549
22994SOL     OW76221   1.260   2.141   6.146 -0.2011 -0.4051  0.4641
22994SOL    HW176222   1.227   2.213   6.199  0.9366  1.2897 -1.0184
22994SOL    HW276223   1.351   2.130   6.175 -0.4395 -1.4464  0.8607
22995SOL     OW76224   2.792   0.971   3.247 -0.2439 -0.2028 -0.1107
22995SOL    HW176225   2.838   0.932   3.322  0.3048  2.3041  0.9501
22995SOL    HW276226   2.710   1.004   3.284 -0.2540  0.4977 -0.7399
22996SOL     OW76227   5.239   5.181   9.644 -0.7149 -0.4145 -0.4189
22996SOL    HW176228   5.332   5.167   9.661 -0.4153  0.6667 -1.0457
22996SOL    HW276229   5.210   5.101   9.601 -0.2247 -1.0018  0.3305
22997SOL     OW76230   4.431   1.546  10.039  0.0200 -0.0635  0.7140
22997SOL    HW176231   4.348   1.593  10.030 -0.2717 -0.3727  1.7100
22997SOL    HW276232   4.479   1.567   9.958  0.2129  2.5001  1.4206
22998SOL     OW76233   4.270   7.449   3.751 -0.1824  0.2278 -0.1136
22998SOL    HW176234   4.178   7.473   3.761  0.0814  1.1518  0.1679
22998SOL    HW276235   4.302   7.439   3.841 -0.3795 -1.6248 -0.2127
22999SOL     OW76236   9.242  12.045   3.104 -0.4567 -0.3005  0.0971
22999SOL    HW176237   9.211  12.005   3.185 -1.3086 -2.4219 -1.2071
22999SOL    HW276238   9.304  11.981   3.068  1.2745  1.3971 -0.1111
23000SOL     OW76239  11.329   1.647   2.095  0.0718 -0.7731  0.2271
23000SOL    HW176240  11.395   1.646   2.026 -0.1689 -0.9248 -0.0017
23000SOL    HW276241  11.249   1.676   2.051  0.2740  0.6800  0.7564
23001SOL     OW76242   8.035   7.473   4.277 -0.1330 -0.0665  0.3453
23001SOL    HW176243   8.037   7.477   4.181  0.9460  3.2775  0.3505
23001SOL    HW276244   7.949   7.507   4.301 -0.4624 -1.0474  0.6021
23002SOL     OW76245   4.474   9.978   9.853 -0.3698  0.0572 -0.1517
23002SOL    HW176246   4.445  10.049   9.796 -0.0312  0.2521 -0.0848
23002SOL    HW276247   4.538   9.930   9.802  0.0392  0.3166  0.1090
23003SOL     OW76248   9.620   4.503   4.856  0.5498  0.3084 -0.5174
23003SOL    HW176249   9.624   4.589   4.896  0.8817  0.4987 -0.9545
23003SOL    HW276250   9.709   4.486   4.826  0.4547 -0.1255 -0.5607
23004SOL     OW76251   2.867   2.857   8.829 -0.1250  0.0495 -0.1077
23004SOL    HW176252   2.937   2.794   8.843 -0.5024 -0.1167  1.1639
23004SOL    HW276253   2.807   2.814   8.769 -0.4096 -0.8517  0.7963
23005SOL     OW76254   3.851   0.157  11.461  0.0012  0.2211  1.0952
23005SOL    HW176255   3.819   0.220  11.396  1.2801 -0.4382 -0.2306
23005SOL    HW276256   3.825   0.195  11.545 -0.3860  1.8767  0.2824
23006SOL     OW76257   7.021  11.519   0.035 -0.2734  0.2574 -0.4955
23006SOL    HW176258   7.052  11.434   0.004  0.6821  1.1832 -2.1823
23006SOL    HW276259   6.928  11.521   0.009  0.0161  0.2139 -1.5695
23007SOL     OW76260   2.906   5.667   7.061 -0.2720 -0.1765 -0.0605
23007SOL    HW176261   2.995   5.651   7.093 -0.3042  1.1882  0.7762
23007SOL    HW276262   2.912   5.747   7.009 -0.6867 -1.0791 -1.5747
23008SOL     OW76263   0.223   2.476   4.778 -0.2345 -0.0306  0.5021
23008SOL    HW176264   0.271   2.428   4.844  1.1540  0.3373 -0.2129
23008SOL    HW276265   0.183   2.549   4.826  2.7235  1.6505  0.6450
23009SOL     OW76266   6.910   2.674   6.548  0.4196 -0.8592 -0.4396
23009SOL    HW176267   6.973   2.611   6.582  1.5645  1.5333  2.3159
23009SOL    HW276268   6.901   2.739   6.618 -1.9688  1.1256 -2.4018
23010SOL     OW76269   1.853   4.482  12.311  0.2131  0.4490  0.2436
23010SOL    HW176270   1.850   4.492  12.406 -0.4691 -0.0150  0.2765
23010SOL    HW276271   1.799   4.405  12.293 -0.6513  1.2202 -0.6098
23011SOL     OW76272  11.342   4.914   9.783  0.0047  0.0929  0.0785
23011SOL    HW176273  11.381   4.827   9.782 -1.3025 -0.5743  1.7930
23011SOL    HW276274  11.397   4.963   9.845  0.4856  0.3781 -0.5624
23012SOL     OW76275  12.025  11.946  10.330 -0.1643  0.0752 -0.1920
23012SOL    HW176276  11.986  11.872  10.376 -1.4880  1.7984  1.5669
23012SOL    HW276277  12.079  11.990  10.395 -1.8524  2.4059 -0.2274
23013SOL     OW76278   8.085  11.816   1.179 -0.5983 -0.3594 -0.1157
23013SOL    HW176279   8.057  11.726   1.193  1.0463 -0.6388  1.7194
23013SOL    HW276280   8.172  11.809   1.140 -0.7779  0.4719 -0.7148
23014SOL     OW76281   6.215   8.829   1.834  0.1479  0.0165  0.2446
23014SOL    HW176282   6.285   8.848   1.896 -0.8887  0.0779  1.4420
23014SOL    HW276283   6.253   8.848   1.748  1.6374 -0.1160  0.8449
23015SOL     OW76284  10.743  10.400   9.164 -0.2295 -0.6171  0.3409
23015SOL    HW176285  10.747  10.331   9.230  0.2578 -3.0413 -2.0633
23015SOL    HW276286  10.662  10.384   9.116 -0.6118  1.1360  0.3349
23016SOL     OW76287   4.700  10.694   7.912  0.4733  0.5615  0.1783
23016SOL    HW176288   4.663  10.639   7.843  1.5526  1.9963 -1.6441
23016SOL    HW276289   4.654  10.778   7.902  2.6484  1.7119 -0.7951
23017SOL     OW76290   8.249   0.093  10.336  0.0817 -0.2028  0.2612
23017SOL    HW176291   8.243   0.182  10.301 -1.7286 -0.5233 -0.3742
23017SOL    HW276292   8.214   0.100  10.425  0.3005 -0.2113  0.3477
23018SOL     OW76293   0.749   0.183   8.163 -0.4812 -0.0227 -0.1273
23018SOL    HW176294   0.761   0.106   8.219  2.4618  0.2105 -0.2954
23018SOL    HW276295   0.815   0.246   8.193 -1.1639  1.5018 -1.6005
23019SOL     OW76296   4.284  11.307   0.691  0.2321  0.1066 -0.0743
23019SOL    HW176297   4.259  11.319   0.783 -0.0948  1.2572 -0.3006
23019SOL    HW276298   4.263  11.390   0.649  0.2887 -0.4370 -1.2207
23020SOL     OW76299   2.730  10.741  12.336  0.2909 -0.4650  0.5088
23020SOL    HW176300   2.649  10.742  12.284  0.7986 -0.3461 -0.2993
23020SOL    HW276301   2.707  10.693  12.415  0.0930 -2.6422 -0.8018
23021SOL     OW76302   2.799   9.289   1.003 -0.1234 -0.0485  0.2854
23021SOL    HW176303   2.737   9.362   0.996 -0.3447 -0.3786 -2.4746
23021SOL    HW276304   2.745   9.215   1.031 -1.1756 -0.3843 -2.2946
23022SOL     OW76305   6.881   7.905   5.474  0.1961  0.1659  0.1272
23022SOL    HW176306   6.788   7.897   5.450  0.2768 -0.9785  0.1448
23022SOL    HW276307   6.879   7.922   5.569 -0.0642  3.1176 -0.3147
23023SOL     OW76308  10.431   5.475   2.964 -0.1815 -0.3015 -0.1857
23023SOL    HW176309  10.498   5.412   2.939  1.3853  1.7074 -1.3573
23023SOL    HW276310  10.447   5.551   2.908 -0.3993  2.1063  2.7165
23024SOL     OW76311   5.036   0.868   9.176 -0.1486 -0.4662  0.2580
23024SOL    HW176312   4.985   0.788   9.175  0.3350 -0.7795  0.3899
23024SOL    HW276313   5.108   0.852   9.114 -0.0716 -0.1244  0.2531
23025SOL     OW76314   6.531   8.818  10.616 -0.1180 -0.0241  0.6076
23025SOL    HW176315   6.547   8.894  10.560 -0.7536 -0.4125 -0.1198
23025SOL    HW276316   6.609   8.764  10.605 -0.4274 -0.3059 -0.2526
23026SOL     OW76317   2.598  10.433   1.666 -0.1611  0.3261 -0.6185
23026SOL    HW176318   2.514  10.394   1.688  0.1666  0.6659  1.4492
23026SOL    HW276319   2.648  10.363   1.625 -1.1154 -0.1482 -0.9741
23027SOL     OW76320  12.186   5.299   0.208 -0.3337  0.6987  0.4322
23027SOL    HW176321  12.092   5.319   0.217 -0.3842  1.0782 -0.7785
23027SOL    HW276322  12.228   5.385   0.204  0.1264  0.5281  1.3924
23028SOL     OW76323   9.048   0.162   3.862 -0.4648  0.2603  0.5787
23028SOL    HW176324   9.068   0.081   3.816 -0.8102  1.0502 -1.0134
23028SOL    HW276325   9.051   0.138   3.955 -1.4042 -1.7655  0.1337
23029SOL     OW76326   4.020   5.842   7.420  0.3305 -0.3175  0.1565
23029SOL    HW176327   3.943   5.793   7.391  0.4633 -1.1599  1.1370
23029SOL    HW276328   3.984   5.916   7.469  0.1259 -0.5393  0.3496
23030SOL     OW76329   1.661  12.175   2.973  0.7481 -0.1142 -0.6246
23030SOL    HW176330   1.650  12.116   3.048 -1.4973  0.3350 -0.5315
23030SOL    HW276331   1.728  12.238   3.002  0.3887 -0.3221  0.7698
23031SOL     OW76332   2.373   9.829   4.050  0.2159 -0.1657  0.7305
23031SOL    HW176333   2.315   9.883   4.104  0.3625  1.1361 -0.3742
23031SOL    HW276334   2.455   9.878   4.045  0.3336 -0.4440 -0.3536
23032SOL     OW76335   7.791   9.067   7.845 -0.1640 -0.1323  0.5079
23032SOL    HW176336   7.840   8.996   7.885 -0.9788 -0.1571  1.5246
23032SOL    HW276337   7.711   9.073   7.898 -0.0215  1.6658  0.5866
23033SOL     OW76338   1.204   9.876   7.237  0.4168 -0.2540  0.2588
23033SOL    HW176339   1.224   9.791   7.275  1.7020 -0.0003  0.2004
23033SOL    HW276340   1.178   9.931   7.311  0.4749 -0.4426  0.4180
23034SOL     OW76341   5.765   9.993   7.150 -0.3613 -0.2882  0.0375
23034SOL    HW176342   5.696   9.927   7.158  1.5871 -2.6883 -1.2465
23034SOL    HW276343   5.770  10.011   7.056  0.4868  0.1251  0.1506
23035SOL     OW76344  11.346   3.490   1.829  0.2483  0.0209 -0.0622
23035SOL    HW176345  11.268   3.507   1.882 -0.6714 -0.4753 -1.2066
23035SOL    HW276346  11.410   3.554   1.860 -1.0338  1.3124  0.0419
23036SOL     OW76347   9.314   1.561   3.816  0.5278 -0.3414  0.0326
23036SOL    HW176348   9.348   1.504   3.747  0.7083  0.1032 -0.2553
23036SOL    HW276349   9.387   1.619   3.837  0.1162  0.2911 -0.2302
23037SOL     OW76350   3.241   8.427   6.756  0.0488  0.0118 -0.3592
23037SOL    HW176351   3.161   8.467   6.721  0.4802  0.7844 -0.4585
23037SOL    HW276352   3.269   8.366   6.687  0.2415  0.6594 -0.8577
23038SOL     OW76353   3.029   8.271   2.638 -0.2714 -0.7007 -0.1777
23038SOL    HW176354   3.074   8.229   2.711 -0.1997 -0.3728 -0.0337
23038SOL    HW276355   2.947   8.303   2.674  1.0271  2.1091  0.5222
23039SOL     OW76356   1.942   9.519   1.394  0.4504 -0.5345  0.1049
23039SOL    HW176357   2.005   9.473   1.449  2.0744 -0.1138 -1.3335
23039SOL    HW276358   1.900   9.582   1.452  1.5777 -0.6120  1.0235
23040SOL     OW76359   1.277   9.043   1.209 -0.0732 -0.0486 -0.2571
23040SOL    HW176360   1.252   8.971   1.150 -0.4767  0.9594 -1.3492
23040SOL    HW276361   1.337   9.096   1.157 -0.7235  1.0630  0.1120
23041SOL     OW76362   1.221   8.481  12.334 -0.2256 -0.5627 -0.0696
23041SOL    HW176363   1.248   8.543  12.402 -0.1436 -0.3629 -0.2814
23041SOL    HW276364   1.220   8.396  12.378 -2.7592 -0.1274  0.9278
23042SOL     OW76365   0.907   5.545  12.121 -0.4678  0.0860 -0.1515
23042SOL    HW176366   0.996   5.515  12.138 -1.0626 -1.9219 -0.3762
23042SOL    HW276367   0.873   5.570  12.207  1.1716  3.7070 -0.3589
23043SOL     OW76368   0.664  11.633   8.429  0.0028  0.3520 -0.3474
23043SOL    HW176369   0.751  11.654   8.463 -0.2960 -1.3789  1.6834
23043SOL    HW276370   0.676  11.551   8.382 -0.4813  0.3304 -0.4341
23044SOL     OW76371   6.548   0.781   5.234  0.0040  0.0567 -0.1415
23044SOL    HW176372   6.572   0.693   5.206  1.0926  0.5221 -0.7228
23044SOL    HW276373   6.492   0.814   5.164  0.2330  0.1156 -0.2951
23045SOL     OW76374  11.207   5.974   3.961  0.2006 -0.2695  0.3208
23045SOL    HW176375  11.139   6.006   3.901  0.2171 -3.8045 -1.8423
23045SOL    HW276376  11.264   6.050   3.975 -0.8945  1.2337 -2.5627
23046SOL     OW76377  10.749   1.871  10.483  0.6108  0.4721  0.1335
23046SOL    HW176378  10.700   1.799  10.522 -0.2437  0.4032 -1.0322
23046SOL    HW276379  10.683   1.926  10.441  1.3656  1.2845 -0.0204
23047SOL     OW76380   5.438   5.854  12.027 -0.5394  0.8368 -0.0565
23047SOL    HW176381   5.499   5.845  11.953 -1.5659 -0.3070 -0.7927
23047SOL    HW276382   5.495   5.866  12.103  0.6657 -0.9114 -0.6181
23048SOL     OW76383   6.312   3.206  11.408 -0.0529 -0.3876  0.4933
23048SOL    HW176384   6.226   3.201  11.449  0.8400 -0.3685  2.4980
23048SOL    HW276385   6.347   3.291  11.435  1.0808 -0.9270  0.8194
23049SOL     OW76386  12.165  10.713   9.081 -0.4863 -0.1373 -0.0467
23049SOL    HW176387  12.124  10.763   9.011 -1.6625  0.5562  1.0809
23049SOL    HW276388  12.095  10.697   9.144  0.4145 -1.1461  0.7586
23050SOL     OW76389   3.437  10.456   5.943 -0.0367  0.0236  0.3812
23050SOL    HW176390   3.377  10.428   6.012 -1.4263  0.9692 -0.3793
23050SOL    HW276391   3.497  10.517   5.986  0.6077 -1.1658  1.2211
23051SOL     OW76392   3.921   2.140   3.203 -0.7180 -0.6607 -0.1634
23051SOL    HW176393   3.987   2.209   3.196 -0.8427 -0.3495  1.2659
23051SOL    HW276394   3.863   2.155   3.128 -0.5478  0.5970 -0.0795
23052SOL     OW76395   4.259   5.315  11.623 -0.2826 -0.5497 -0.1036
23052SOL    HW176396   4.225   5.314  11.533  1.0261 -0.5802 -0.6303
23052SOL    HW276397   4.267   5.407  11.645  1.8336 -0.4296 -1.0493
23053SOL     OW76398  11.805   4.710  12.189 -0.3320  0.3674 -0.7573
23053SOL    HW176399  11.856   4.711  12.270 -1.8274  1.2049  0.2210
23053SOL    HW276400  11.818   4.621  12.154 -0.8008 -0.5175  1.1675
23054SOL     OW76401   7.163  10.032   2.342 -0.1674  0.3924 -0.7381
23054SOL    HW176402   7.194  10.095   2.278 -0.1966 -0.4799 -1.6328
23054SOL    HW276403   7.241  10.005   2.389  0.3805 -1.2185 -2.4631
23055SOL     OW76404   1.079   9.310   5.601  0.2373  0.1201 -0.1905
23055SOL    HW176405   1.072   9.300   5.507 -1.6274  1.8114 -0.3060
23055SOL    HW276406   1.120   9.230   5.631  0.2167 -0.7654 -2.3631
23056SOL     OW76407   1.992   5.317   0.681  0.0288 -0.6136  0.8090
23056SOL    HW176408   2.080   5.342   0.710  0.0351 -0.4121  0.6147
23056SOL    HW276409   2.000   5.304   0.586 -0.7994  2.3330  0.2519
23057SOL     OW76410   6.466   5.314   2.003  0.2921  0.1783 -0.3941
23057SOL    HW176411   6.469   5.318   1.908  0.6703 -2.1813 -0.5495
23057SOL    HW276412   6.543   5.263   2.027 -0.1861  0.1236  1.1256
23058SOL     OW76413   3.187  12.585   8.312  0.0393  0.2136 -0.1124
23058SOL    HW176414   3.225  12.510   8.267  1.4403  0.6039  0.3931
23058SOL    HW276415   3.206  12.659   8.255 -1.2569  0.2262 -0.5618
23059SOL     OW76416   6.188   2.437  11.290  0.2409  0.4386  0.1369
23059SOL    HW176417   6.176   2.456  11.383  2.5394  0.4422  0.4947
23059SOL    HW276418   6.133   2.501  11.245 -0.9926  0.3684  1.4631
23060SOL     OW76419  11.349   7.864   6.545  0.4297 -0.1004  0.5922
23060SOL    HW176420  11.366   7.875   6.452 -0.6072 -0.3383  0.3616
23060SOL    HW276421  11.260   7.897   6.557  0.0118 -1.4004  1.2286
23061SOL     OW76422   7.913   8.988   1.530  0.3454 -0.2444 -0.8679
23061SOL    HW176423   7.907   8.915   1.591 -0.8344 -0.8434 -1.6578
23061SOL    HW276424   7.992   8.971   1.479  0.5544 -0.5002 -0.4569
23062SOL     OW76425   0.575   0.756   9.870 -0.5166  0.6720  0.3042
23062SOL    HW176426   0.499   0.755   9.811  0.8771 -0.2814 -1.5935
23062SOL    HW276427   0.589   0.664   9.892  0.2192  0.8116  0.4405
23063SOL     OW76428   9.014   6.590  10.644 -0.1557 -0.1016  0.1921
23063SOL    HW176429   8.921   6.614  10.645 -0.1963 -0.1377  2.2883
23063SOL    HW276430   9.032   6.569  10.552 -2.0567  0.4874 -0.3727
23064SOL     OW76431   2.888   9.584   0.382 -0.0103  0.2536 -0.0557
23064SOL    HW176432   2.847   9.513   0.332 -0.7293 -1.2518  2.5172
23064SOL    HW276433   2.981   9.575   0.364 -0.2069 -0.4764 -0.8035
23065SOL     OW76434  12.224   2.753  12.226  0.8761  0.0116  0.0072
23065SOL    HW176435  12.208   2.846  12.210 -0.1780 -0.1857 -0.1404
23065SOL    HW276436  12.312   2.751  12.264  0.2226  1.2468  1.7297
23066SOL     OW76437   4.889   0.810   1.451  0.3585 -0.2267  0.4026
23066SOL    HW176438   4.978   0.820   1.487  0.4054  1.3389 -0.0684
23066SOL    HW276439   4.831   0.821   1.526  0.5438 -0.7111  0.6206
23067SOL     OW76440  11.053  11.783   8.436  0.0359 -0.3295 -0.3320
23067SOL    HW176441  10.966  11.752   8.461 -0.1851  0.2553 -0.3557
23067SOL    HW276442  11.110  11.708   8.450 -0.2278 -0.2879  1.1425
23068SOL     OW76443   7.734   5.699   1.885  0.5652  0.0462  0.0572
23068SOL    HW176444   7.689   5.769   1.933 -0.3391 -2.1134  2.6219
23068SOL    HW276445   7.663   5.649   1.844  1.1047 -0.1432 -0.6619
23069SOL     OW76446  10.132   9.925   0.726  0.5317 -0.5369  0.8069
23069SOL    HW176447  10.170  10.007   0.694 -1.4547 -0.6508 -2.2369
23069SOL    HW276448  10.197   9.891   0.788  3.3439  1.2912 -0.9186
23070SOL     OW76449   9.284   3.728  10.184  0.0464  0.6925 -0.2696
23070SOL    HW176450   9.189   3.715  10.184  0.0739  0.3328 -1.7900
23070SOL    HW276451   9.304   3.755  10.095  1.4075  0.5945 -0.0119
23071SOL     OW76452   8.924  10.785   9.515  0.1694 -0.1680 -0.3800
23071SOL    HW176453   8.966  10.714   9.563 -0.8944 -0.6014 -0.0666
23071SOL    HW276454   8.880  10.742   9.442 -0.9176  0.0813  0.1020
23072SOL     OW76455  10.368   9.624   3.149 -0.4714  0.3765  0.6019
23072SOL    HW176456  10.335   9.713   3.137 -2.0648 -0.3696 -1.3265
23072SOL    HW276457  10.291   9.568   3.138  0.4615 -1.2600  1.8418
23073SOL     OW76458   9.971   3.496  10.014  0.2407 -0.0791  0.5768
23073SOL    HW176459   9.987   3.581  10.054  0.5002 -0.0179  0.3529
23073SOL    HW276460   9.962   3.515   9.920 -1.6137 -0.0562  0.7266
23074SOL     OW76461   4.364  10.558   0.976 -0.1650 -0.2340  0.0108
23074SOL    HW176462   4.299  10.514   0.922 -1.0831  0.2123  0.7231
23074SOL    HW276463   4.316  10.629   1.018  0.8478  0.2672  0.3559
23075SOL     OW76464  10.521   6.871   7.106 -0.5892 -0.2439  0.2337
23075SOL    HW176465  10.571   6.924   7.045 -2.4866  0.5859 -0.6637
23075SOL    HW276466  10.497   6.793   7.056 -0.9114 -0.2472  0.3928
23076SOL     OW76467   7.756   5.831   4.406  0.2001  0.2627 -0.3016
23076SOL    HW176468   7.779   5.802   4.494 -0.1496  0.5844 -0.0977
23076SOL    HW276469   7.837   5.823   4.356  1.2151  2.7956  0.7637
23077SOL     OW76470   9.000   4.743   3.217  0.2877 -0.2073  0.1621
23077SOL    HW176471   9.058   4.688   3.164 -0.2183 -0.9234  0.3361
23077SOL    HW276472   8.913   4.704   3.206 -0.1839  0.8710 -0.1201
23078SOL     OW76473   8.174  11.244   2.248 -0.1226 -0.0883  0.2564
23078SOL    HW176474   8.238  11.177   2.224 -0.0212 -0.6598  2.0284
23078SOL    HW276475   8.195  11.318   2.190  2.1808 -0.2388  0.7987
23079SOL     OW76476  11.775   2.631   1.805 -0.1268  0.0475  0.5308
23079SOL    HW176477  11.796   2.547   1.764 -1.7677  0.3988 -1.1866
23079SOL    HW276478  11.819   2.696   1.750 -0.1968  0.3962  0.8851
23080SOL     OW76479   1.606   9.717  10.106  0.2686 -0.2191 -0.2549
23080SOL    HW176480   1.518   9.753  10.116  0.4264  0.1493 -0.1801
23080SOL    HW276481   1.663   9.793  10.103  0.6135 -0.4654 -0.0198
23081SOL     OW76482   3.116   1.473   7.353  0.0065 -0.2819  0.0002
23081SOL    HW176483   3.152   1.505   7.436  1.0615  0.1130 -0.5911
23081SOL    HW276484   3.034   1.431   7.377 -0.4215  1.1025  1.0711
23082SOL     OW76485  11.641   3.267  10.081  0.0784 -1.1214  0.0294
23082SOL    HW176486  11.731   3.239  10.063  0.4048 -0.6284  0.8579
23082SOL    HW276487  11.648   3.361  10.096 -0.9325 -0.6344 -2.2120
23083SOL     OW76488  12.038  10.375   2.038 -0.1401  0.1290  0.2585
23083SOL    HW176489  12.049  10.465   2.007 -1.8948  0.4746  0.4974
23083SOL    HW276490  11.966  10.341   1.985  1.6359 -1.7820 -1.0786
23084SOL     OW76491   5.512   0.189  10.835  0.2981  0.4247 -0.2100
23084SOL    HW176492   5.483   0.251  10.902 -0.5569  2.2212 -2.1218
23084SOL    HW276493   5.607   0.203  10.829  0.3091  0.5737  0.2935
23085SOL     OW76494  10.788   9.722   3.810 -0.5079 -0.0329  0.0975
23085SOL    HW176495  10.865   9.695   3.759  0.3359  0.4773  1.0721
23085SOL    HW276496  10.774   9.651   3.872 -2.0146 -1.0279 -1.2784
23086SOL     OW76497   2.547   5.949   2.011 -0.1117  0.1723  0.0865
23086SOL    HW176498   2.612   5.880   2.025 -1.7775 -1.4859  0.0653
23086SOL    HW276499   2.517   5.936   1.921  0.5191  1.8422 -0.4032
23087SOL     OW76500   8.925   1.510   1.090  0.2796 -0.1236  0.3834
23087SOL    HW176501   9.011   1.552   1.085  0.4041 -0.4303 -0.0866
23087SOL    HW276502   8.878   1.561   1.156  1.2035 -0.6566  1.5009
23088SOL     OW76503   4.355   8.019   7.209 -0.1979 -0.4852 -0.3089
23088SOL    HW176504   4.390   7.933   7.184 -0.5981 -0.7677  0.0974
23088SOL    HW276505   4.406   8.044   7.286 -0.6019 -0.7172  0.0422
23089SOL     OW76506  10.911   9.673   2.706  0.1839  0.1834 -0.2966
23089SOL    HW176507  10.909   9.588   2.751  1.1469 -0.5929 -1.6454
23089SOL    HW276508  10.888   9.652   2.615 -0.5545  1.5342 -0.4378
23090SOL     OW76509   2.340   5.769   8.065 -0.0342 -0.6098 -0.0660
23090SOL    HW176510   2.316   5.761   8.157 -1.5560  1.1299 -0.2485
23090SOL    HW276511   2.378   5.685   8.043 -1.5583 -1.8214  1.6201
23091SOL     OW76512   5.382   8.194   0.557  0.1729 -0.1390  0.1364
23091SOL    HW176513   5.462   8.221   0.512  1.0106  0.8622  2.0750
23091SOL    HW276514   5.383   8.243   0.639 -1.8261 -1.0289  0.7644
23092SOL     OW76515   5.463   1.405  12.211  0.0626 -0.0730 -0.0728
23092SOL    HW176516   5.379   1.359  12.212 -0.3918  0.7068 -0.7491
23092SOL    HW276517   5.525   1.342  12.175 -0.5783 -0.1322 -1.1140
23093SOL     OW76518   0.347   0.403  11.520  0.6028  0.2372  0.1103
23093SOL    HW176519   0.283   0.459  11.476 -0.7806 -1.4877 -0.1952
23093SOL    HW276520   0.396   0.362  11.448  0.0200 -0.6921  0.2231
23094SOL     OW76521   9.500   4.682   0.395 -0.2343  0.1573  0.0332
23094SOL    HW176522   9.565   4.725   0.338  0.2354  0.6230  0.9032
23094SOL    HW276523   9.453   4.754   0.436 -1.3913 -0.1812 -0.6521
23095SOL     OW76524   4.722  10.011   8.523  0.2193  0.2018  0.3242
23095SOL    HW176525   4.634   9.997   8.557 -0.0567  0.4965 -0.2541
23095SOL    HW276526   4.718  10.097   8.481  0.3621 -0.4233 -1.0281
23096SOL     OW76527   0.527   9.354  12.174  0.1321  0.5164 -0.2962
23096SOL    HW176528   0.617   9.324  12.157 -0.4480 -0.5990 -1.5363
23096SOL    HW276529   0.530   9.387  12.264  1.3779 -1.1385  0.3335
23097SOL     OW76530   2.811   6.620   5.986 -0.1348 -0.9721  0.2611
23097SOL    HW176531   2.764   6.613   5.903  2.2114  0.4456 -1.3124
23097SOL    HW276532   2.796   6.536   6.029 -2.6356 -1.1929 -0.8774
23098SOL     OW76533   5.067   0.411  10.689  0.1627  0.5147 -0.5648
23098SOL    HW176534   5.156   0.447  10.688  0.8727 -1.1264 -1.0119
23098SOL    HW276535   5.015   0.475  10.641  0.9256  1.8972  0.3884
23099SOL     OW76536   1.032   4.874  12.558 -0.6677 -0.3390 -0.2193
23099SOL    HW176537   0.987   4.887  12.474 -0.4080  2.0719 -0.0653
23099SOL    HW276538   1.016   4.956  12.605  0.0221 -1.2775  1.7026
23100SOL     OW76539   4.193  12.599   8.400  0.0212 -0.6934 -0.3743
23100SOL    HW176540   4.250  12.594   8.324 -0.0464 -1.5975 -0.3737
23100SOL    HW276541   4.111  12.559   8.371  0.0779 -1.2710  0.2339
23101SOL     OW76542   2.131   0.207  11.278  0.2611 -0.5160 -0.0939
23101SOL    HW176543   2.219   0.181  11.304 -0.2862 -0.5197  1.9030
23101SOL    HW276544   2.074   0.172  11.347 -1.1419  0.7209 -0.5727
23102SOL     OW76545   2.028  11.245   4.936  0.3047  0.2909 -0.3176
23102SOL    HW176546   1.933  11.245   4.950 -0.1772 -1.4289 -2.9291
23102SOL    HW276547   2.057  11.162   4.975  0.3887 -0.1165 -1.2250
23103SOL     OW76548   8.627   2.664   9.914 -0.1623 -0.2520  0.1708
23103SOL    HW176549   8.608   2.622   9.998 -0.7047  0.8155  0.5899
23103SOL    HW276550   8.694   2.729   9.934 -0.6321  0.3305 -0.1293
23104SOL     OW76551   3.944  10.519   9.663  0.1947  0.2514 -0.2991
23104SOL    HW176552   3.939  10.556   9.751  0.3859  0.2786 -0.2983
23104SOL    HW276553   3.863  10.470   9.653  0.0642  0.4455 -0.1970
23105SOL     OW76554   2.862   6.372   5.673 -0.3339  0.5039  0.0810
23105SOL    HW176555   2.830   6.325   5.596 -1.4528  1.7008 -0.2196
23105SOL    HW276556   2.885   6.459   5.641 -0.9562  1.0749  1.1056
23106SOL     OW76557   1.551  11.005   0.063  0.2423  0.5455  0.1092
23106SOL    HW176558   1.555  10.910   0.049 -2.0785  0.2612  0.9168
23106SOL    HW276559   1.636  11.038   0.032  0.3578 -1.5439 -2.0698
23107SOL     OW76560   4.493   3.174   4.574 -0.5142 -0.5691  0.1661
23107SOL    HW176561   4.564   3.161   4.511 -0.6341 -1.0086  0.1149
23107SOL    HW276562   4.489   3.269   4.587 -0.8512 -0.4211 -0.9133
23108SOL     OW76563   9.530   2.248  10.164 -0.3266  0.2491 -0.0952
23108SOL    HW176564   9.619   2.247  10.199  0.2237 -0.1571 -1.4387
23108SOL    HW276565   9.541   2.233  10.070 -1.8736 -0.5480 -0.1752
23109SOL     OW76566   6.086  11.511   3.366  0.5946 -0.5700  0.9576
23109SOL    HW176567   6.081  11.563   3.446 -1.5971  1.7032 -0.5125
23109SOL    HW276568   6.118  11.572   3.300 -0.8033 -1.4460 -0.5875
23110SOL     OW76569  11.645   3.946   2.215  0.5066  0.2822  0.0145
23110SOL    HW176570  11.639   3.953   2.120 -0.0163 -1.3248 -0.1017
23110SOL    HW276571  11.699   3.869   2.230 -1.6985 -1.1619  0.9763
23111SOL     OW76572   7.109   2.309   3.320  0.2692 -0.3507 -0.0282
23111SOL    HW176573   7.088   2.280   3.409  0.1984 -1.2677 -0.3330
23111SOL    HW276574   7.065   2.393   3.311 -0.3621 -0.6116  0.5484
23112SOL     OW76575   0.119   6.171   5.511  0.1393 -0.0393 -0.7777
23112SOL    HW176576   0.103   6.162   5.417  2.5779 -1.4196 -1.1552
23112SOL    HW276577   0.067   6.102   5.551  0.0530 -0.2557 -1.2615
23113SOL     OW76578   1.444  11.907   7.999  0.3687 -0.1674 -0.1134
23113SOL    HW176579   1.511  11.928   8.063  0.3320 -0.5470  0.0513
23113SOL    HW276580   1.365  11.951   8.032  0.7836  1.2020 -0.8855
23114SOL     OW76581   9.147   3.353   5.233 -0.2224  0.0086  0.0633
23114SOL    HW176582   9.155   3.348   5.328  0.3053  0.2518  0.0368
23114SOL    HW276583   9.141   3.261   5.205 -0.0342 -0.0798  0.3063
23115SOL     OW76584   7.552   4.025   4.959  0.0144  0.3098  0.2760
23115SOL    HW176585   7.494   4.100   4.969  1.1941  1.4870 -1.1069
23115SOL    HW276586   7.624   4.042   5.020  0.7332  0.8330 -0.6679
23116SOL     OW76587   9.846   6.462   9.905  0.1785 -0.2085 -0.3982
23116SOL    HW176588   9.809   6.550   9.895 -0.6963 -0.7677 -2.7531
23116SOL    HW276589   9.770   6.404   9.903  0.6818 -1.0213  1.9230
23117SOL     OW76590   5.616   9.078  11.735  0.9280  0.3313  0.3119
23117SOL    HW176591   5.575   8.993  11.719  0.3537  1.0422 -2.4285
23117SOL    HW276592   5.693   9.057  11.787 -1.0760 -1.4024  2.8947
23118SOL     OW76593  11.022  11.772  10.831 -0.0523  0.1410  0.0173
23118SOL    HW176594  10.946  11.746  10.883  0.0749  0.3530  0.3114
23118SOL    HW276595  11.017  11.867  10.829 -0.9918  0.0967 -1.7615
23119SOL     OW76596   5.495   3.079   3.158 -0.6915  0.2836 -0.2920
23119SOL    HW176597   5.415   3.044   3.118 -0.6689  0.0716 -0.1514
23119SOL    HW276598   5.519   3.015   3.225 -0.1455  0.1107 -0.6435
23120SOL     OW76599   3.991   7.488   6.642  0.5454 -0.5922 -0.6561
23120SOL    HW176600   4.056   7.489   6.711 -0.1589  1.2843  0.0530
23120SOL    HW276601   3.953   7.400   6.645  0.3771 -0.4897  1.4968
23121SOL     OW76602   3.656  11.585   2.902  0.0493  0.4939 -0.2784
23121SOL    HW176603   3.567  11.618   2.915 -0.1477  0.9553 -2.3487
23121SOL    HW276604   3.712  11.660   2.922 -0.0523  0.3854  0.4330
23122SOL     OW76605  11.694   5.463   9.849 -0.1042  0.1621  0.3293
23122SOL    HW176606  11.762   5.415   9.801 -1.1209 -0.3437 -0.6497
23122SOL    HW276607  11.741   5.533   9.895  1.0002  0.1693 -0.7823
23123SOL     OW76608   3.420   8.968   8.587 -0.1022 -0.6700 -0.0411
23123SOL    HW176609   3.395   9.010   8.505 -2.2941 -0.1210  0.8509
23123SOL    HW276610   3.516   8.966   8.585 -0.1089 -0.8757 -2.6804
23124SOL     OW76611  10.469   1.991   5.255  0.3549 -0.5888  0.3374
23124SOL    HW176612  10.458   2.076   5.211  2.3442 -0.7426 -0.5778
23124SOL    HW276613  10.412   1.931   5.207  1.0391 -0.3317 -0.8492
23125SOL     OW76614   3.553   5.580   7.272  0.1619 -0.1226 -0.5192
23125SOL    HW176615   3.584   5.498   7.312 -1.1754 -1.5002 -2.1766
23125SOL    HW276616   3.461   5.585   7.295 -0.0141  0.3870 -1.2896
23126SOL     OW76617   0.832   4.262   9.816 -0.1887 -0.0438  1.0047
23126SOL    HW176618   0.841   4.357   9.812  1.4657 -0.1992 -0.2549
23126SOL    HW276619   0.910   4.232   9.864 -0.8148 -0.7665  1.6044
23127SOL     OW76620   3.306   6.791   3.181  0.0220 -0.4915  0.1287
23127SOL    HW176621   3.257   6.835   3.250 -0.2924  1.2651 -1.1402
23127SOL    HW276622   3.262   6.817   3.100  0.8216 -1.8825 -0.7965
23128SOL     OW76623   7.888   4.302   9.726 -0.7807  0.3599 -0.5550
23128SOL    HW176624   7.815   4.270   9.780 -0.6020 -1.5227 -1.3882
23128SOL    HW276625   7.873   4.397   9.721 -2.4401  0.1862  0.3742
23129SOL     OW76626   2.660   2.112   9.927  0.1956  0.2412  0.1841
23129SOL    HW176627   2.577   2.120   9.974  1.5841  0.3573  2.8124
23129SOL    HW276628   2.656   2.026   9.885 -0.5412 -0.5542  1.8094
23130SOL     OW76629   9.186  10.825  12.321 -0.0521 -0.3546  0.5107
23130SOL    HW176630   9.174  10.908  12.365 -0.9145  1.4711 -2.8148
23130SOL    HW276631   9.260  10.840  12.261 -0.7739 -1.6270 -0.7776
23131SOL     OW76632   6.407   0.567  12.340 -0.4842  0.5746 -0.1424
23131SOL    HW176633   6.469   0.541  12.271 -0.9319 -0.6857 -0.0874
23131SOL    HW276634   6.458   0.625  12.396  0.3197  0.4598 -0.7239
23132SOL     OW76635  10.599   9.932   0.127 -0.1484  0.0909  0.1956
23132SOL    HW176636  10.659   9.867   0.091  0.7681  1.2117 -0.3548
23132SOL    HW276637  10.628  10.015   0.090 -1.4339  0.8012  0.7006
23133SOL     OW76638   5.785  11.936   3.072  0.4813  0.3531  0.0960
23133SOL    HW176639   5.696  11.950   3.105  0.2061 -0.3978 -0.3176
23133SOL    HW276640   5.807  11.847   3.099  1.5217  0.8997  1.1225
23134SOL     OW76641   9.497   6.780   3.548  0.0383  0.2204 -0.7025
23134SOL    HW176642   9.428   6.826   3.596 -0.7491 -0.3776 -1.2240
23134SOL    HW276643   9.450   6.732   3.480  0.8713 -0.9751 -0.4669
23135SOL     OW76644  10.227   7.763   0.944  0.5558 -0.3753 -0.1649
23135SOL    HW176645  10.244   7.714   1.025  1.4413 -1.5701 -1.0382
23135SOL    HW276646  10.132   7.765   0.937  0.4932 -1.7599  0.0346
23136SOL     OW76647   6.317  10.635   5.804  0.2744  0.0732 -0.2516
23136SOL    HW176648   6.277  10.635   5.891 -0.1542  1.4317 -0.4349
23136SOL    HW276649   6.394  10.692   5.813  0.3289  0.0786 -0.7273
23137SOL     OW76650   4.119   5.239   9.772 -0.0475 -0.3485 -0.5574
23137SOL    HW176651   4.160   5.267   9.854  0.9946 -1.0211 -0.8276
23137SOL    HW276652   4.045   5.298   9.761  1.7996  2.0527 -0.8991
23138SOL     OW76653   6.124  11.610   9.875  0.0563 -0.5024 -0.2044
23138SOL    HW176654   6.183  11.677   9.839  0.0980  0.0849  0.9087
23138SOL    HW276655   6.177  11.530   9.874  0.7259 -0.0824  0.3423
23139SOL     OW76656  12.640   9.518   9.963  0.3820  0.1968  0.2305
23139SOL    HW176657  12.721   9.525   9.912  0.1863 -0.7648 -0.2403
23139SOL    HW276658  12.654   9.574  10.039  2.0593 -1.0342  0.8967
23140SOL     OW76659   5.591   6.008   8.759  0.2296  0.2094  0.2394
23140SOL    HW176660   5.575   5.914   8.768  0.0091  0.2441  0.2146
23140SOL    HW276661   5.568   6.027   8.668 -2.4820  0.8181  0.9745
23141SOL     OW76662   6.687   8.643   0.459  0.3038  0.3616  0.5192
23141SOL    HW176663   6.644   8.727   0.475 -4.3355 -1.9354  1.8668
23141SOL    HW276664   6.636   8.602   0.389 -0.0303 -2.7188  2.3722
23142SOL     OW76665   9.238   2.042   5.387  0.0647 -0.4913 -0.1336
23142SOL    HW176666   9.265   1.951   5.402  0.6856 -0.2139  0.4738
23142SOL    HW276667   9.248   2.054   5.293  1.5263 -0.5893 -0.0203
23143SOL     OW76668   5.884   0.276  12.091  0.1663  0.0914  0.2332
23143SOL    HW176669   5.976   0.272  12.117  0.2414  3.6026  1.0149
23143SOL    HW276670   5.836   0.284  12.173 -0.5798  0.7081 -0.2459
23144SOL     OW76671   1.556   4.842   0.313 -0.1402 -0.4384 -0.0744
23144SOL    HW176672   1.618   4.827   0.385 -0.7585 -0.1160  0.5372
23144SOL    HW276673   1.575   4.773   0.250  0.7245 -0.4520  0.1905
23145SOL     OW76674   7.073   3.421   5.538 -0.1715  0.2762  0.7343
23145SOL    HW176675   7.062   3.335   5.496 -0.3875 -0.3922  2.1083
23145SOL    HW276676   6.994   3.469   5.514 -0.7754 -0.4621  1.1986
23146SOL     OW76677   4.970   8.426   8.836 -0.8934  0.5876  0.3374
23146SOL    HW176678   4.956   8.449   8.744 -1.1359  0.3103  0.3045
23146SOL    HW276679   5.050   8.374   8.836 -1.5368 -0.4270  0.1213
23147SOL     OW76680  11.018   3.551   5.167  0.2779 -0.0295  0.2387
23147SOL    HW176681  10.939   3.529   5.216 -0.3436  0.2807 -0.6052
23147SOL    HW276682  11.058   3.623   5.217  1.2565 -1.6152  1.8995
23148SOL     OW76683   5.951   9.983   9.338  0.4626  0.4906 -0.4514
23148SOL    HW176684   5.885   9.918   9.314 -1.1741  1.2549  1.5987
23148SOL    HW276685   6.032   9.952   9.297 -0.2168 -2.8170  0.4084
23149SOL     OW76686   6.886   8.882   3.557 -0.3994  0.7347  0.2124
23149SOL    HW176687   6.803   8.849   3.522 -0.6132 -1.1004  2.2020
23149SOL    HW276688   6.861   8.937   3.632  0.0878 -1.8557  2.4452
23150SOL     OW76689  10.968   7.591   8.032  0.1779 -0.1268 -0.0879
23150SOL    HW176690  10.971   7.513   8.088  0.2364 -1.0526 -1.3293
23150SOL    HW276691  11.057   7.625   8.034  0.2397 -0.3011  0.1866
23151SOL     OW76692   9.632   0.934   7.575 -0.0463 -0.2132 -0.0112
23151SOL    HW176693   9.666   0.980   7.498 -1.8876 -0.4378 -1.0145
23151SOL    HW276694   9.709   0.921   7.631  1.0428  1.4277 -1.0422
23152SOL     OW76695   7.050  12.238   2.608 -0.0355  0.7975 -0.3338
23152SOL    HW176696   7.139  12.203   2.615  0.2485  1.6319  0.3433
23152SOL    HW276697   7.062  12.332   2.600 -0.8972  1.0190  0.8467
23153SOL     OW76698  10.028   3.179   1.842  0.3640  0.4051  0.0960
23153SOL    HW176699   9.998   3.264   1.874 -0.4305  0.8076 -1.5735
23153SOL    HW276700  10.015   3.184   1.747  0.4270 -1.5436 -0.0459
23154SOL     OW76701   3.611   1.636   2.030 -0.1741 -0.3011  0.0822
23154SOL    HW176702   3.637   1.660   2.118 -0.0283 -1.4106  0.3630
23154SOL    HW276703   3.539   1.573   2.043  1.8594 -2.9190 -0.4374
23155SOL     OW76704   4.604  11.385  10.469 -0.1586 -0.0091 -0.3092
23155SOL    HW176705   4.570  11.434  10.543 -0.6223  0.9807 -1.1414
23155SOL    HW276706   4.698  11.378  10.485 -0.2105  0.4570  0.2266
23156SOL     OW76707   8.390  10.196   0.537 -0.4379  0.3043  0.5055
23156SOL    HW176708   8.343  10.119   0.505  0.7309 -0.0546 -0.4277
23156SOL    HW276709   8.398  10.182   0.631 -1.6193  0.0649  0.5799
23157SOL     OW76710   5.857   2.866   1.696  0.0722 -0.0794  0.6966
23157SOL    HW176711   5.937   2.878   1.748  0.2751  2.4777 -0.0580
23157SOL    HW276712   5.802   2.940   1.720 -1.3382 -0.8280 -0.1278
23158SOL     OW76713  12.162   0.944   6.450 -0.0787  0.2257 -0.0187
23158SOL    HW176714  12.248   0.915   6.480 -1.0449 -2.0738  0.7654
23158SOL    HW276715  12.179   0.984   6.365  1.8520  0.5296  0.4513
23159SOL     OW76716  11.659   9.262   0.992 -0.0399 -0.2897 -0.4050
23159SOL    HW176717  11.700   9.229   0.912 -0.8774  0.6070 -1.2338
23159SOL    HW276718  11.571   9.288   0.965 -0.2125  0.3702  0.7290
23160SOL     OW76719   7.930   0.936   8.524  0.5345  0.3577 -0.0183
23160SOL    HW176720   7.981   0.893   8.593 -0.7898  1.6238  1.8475
23160SOL    HW276721   7.940   1.030   8.541  0.2157  0.7158 -1.6153
23161SOL     OW76722  10.906  10.693   1.468  0.1597  0.7547  0.4050
23161SOL    HW176723  10.817  10.684   1.433  0.9632 -1.4569 -1.3462
23161SOL    HW276724  10.911  10.626   1.536  0.5706  0.6288  0.2521
23162SOL     OW76725  10.901   4.051  10.116 -0.1437 -0.1969  0.0434
23162SOL    HW176726  10.830   3.990  10.137 -0.4489  0.2764  0.4303
23162SOL    HW276727  10.966   3.998  10.069 -0.6868 -0.6669 -0.1847
23163SOL     OW76728   7.058   4.815   7.907  0.0741 -0.2234  0.0262
23163SOL    HW176729   7.002   4.826   7.831  0.4692 -1.5220 -0.4822
23163SOL    HW276730   7.020   4.741   7.955  0.5354 -0.2121  0.4255
23164SOL     OW76731   1.183   0.498   6.907 -0.0610 -0.0580 -0.3967
23164SOL    HW176732   1.096   0.537   6.903  0.5144  1.4635  0.9531
23164SOL    HW276733   1.177   0.420   6.852 -1.5388  1.4139 -2.4832
23165SOL     OW76734   4.514   5.105   8.539  0.6967  0.8666 -0.0566
23165SOL    HW176735   4.466   5.022   8.535 -0.9362  1.8104 -2.3876
23165SOL    HW276736   4.586   5.093   8.477  1.4716  0.6420  0.8711
23166SOL     OW76737   0.119   8.473   2.334  0.8103  0.1935 -0.0225
23166SOL    HW176738   0.174   8.531   2.282  0.8316 -0.1256 -0.3541
23166SOL    HW276739   0.161   8.387   2.329  0.4610  0.0196 -0.0114
23167SOL     OW76740   2.018   2.553   6.681 -0.1608  0.4316 -0.1344
23167SOL    HW176741   2.080   2.518   6.745 -0.8926 -0.2212  0.2290
23167SOL    HW276742   2.071   2.612   6.627  0.1608  2.2248  2.0124
23168SOL     OW76743   9.035   4.005   8.584 -0.5532 -0.1169  0.1279
23168SOL    HW176744   9.081   3.930   8.548 -0.7166 -0.1478 -0.0156
23168SOL    HW276745   8.952   4.007   8.538 -0.6007  0.0781  0.2204
23169SOL     OW76746   1.040   9.517   7.871  0.1483 -0.4266  0.0824
23169SOL    HW176747   1.017   9.589   7.813 -0.6573  1.5320  2.6338
23169SOL    HW276748   0.978   9.448   7.849  0.2064  0.0473 -1.6967
23170SOL     OW76749   2.465  11.222   0.206  0.1724 -0.3945 -0.2855
23170SOL    HW176750   2.458  11.227   0.301  0.4164 -2.7939 -0.0826
23170SOL    HW276751   2.556  11.246   0.187  0.4620 -1.0650  0.2177
23171SOL     OW76752  10.139   1.388   4.080 -0.1202 -0.1813  0.7349
23171SOL    HW176753  10.101   1.473   4.059  0.7136  0.7190  2.6623
23171SOL    HW276754  10.080   1.350   4.144 -0.9504 -1.4960 -0.7312
23172SOL     OW76755   5.066   0.070   9.851 -0.0020  0.2830 -0.4120
23172SOL    HW176756   5.005   0.065   9.924 -1.0054  0.2725 -1.2410
23172SOL    HW276757   5.146   0.027   9.883 -0.0488  1.2138  1.0415
23173SOL     OW76758   8.535   6.598   4.848  0.0351 -0.0209 -0.1694
23173SOL    HW176759   8.565   6.650   4.773  0.2450 -0.3179 -0.2953
23173SOL    HW276760   8.615   6.579   4.897 -0.2651  1.3214  0.8811
23174SOL     OW76761   2.034   4.501   9.224  0.2499 -0.2676  0.2653
23174SOL    HW176762   1.987   4.479   9.305 -0.0073  0.1186  0.2235
23174SOL    HW276763   2.077   4.585   9.244 -0.6108  0.3290 -0.3160
23175SOL     OW76764  11.461   9.505   0.060  0.2618 -0.3630  0.1465
23175SOL    HW176765  11.545   9.459   0.054  0.4899  0.1556 -0.8756
23175SOL    HW276766  11.411   9.473  -0.015 -0.8379 -1.3881  1.2864
23176SOL     OW76767   4.688  11.133   4.549 -0.0630  0.1439 -0.5926
23176SOL    HW176768   4.767  11.142   4.602  0.1462 -0.2954 -0.8247
23176SOL    HW276769   4.681  11.217   4.503 -1.7769  1.6347  2.1532
23177SOL     OW76770   6.722   0.284   7.782 -0.4536 -0.2851 -0.0859
23177SOL    HW176771   6.665   0.216   7.746 -2.3971  0.7350  0.9033
23177SOL    HW276772   6.712   0.276   7.877  0.8335  0.1478  0.1103
23178SOL     OW76773   9.603   8.780  12.656 -0.3116 -0.2845 -0.4473
23178SOL    HW176774   9.660   8.828  12.716 -0.0418 -3.2656  1.9545
23178SOL    HW276775   9.661   8.751  12.586  0.9365 -1.9792  1.1688
23179SOL     OW76776   4.921   4.254  10.218  0.2142  0.3089  0.0078
23179SOL    HW176777   4.976   4.289  10.287  0.1798  0.2465  0.0674
23179SOL    HW276778   4.839   4.303  10.225  1.1221  2.2323 -1.7213
23180SOL     OW76779   1.597   1.238   3.570 -0.1731 -0.5850  0.7468
23180SOL    HW176780   1.565   1.172   3.508  0.1677 -0.1171  0.0642
23180SOL    HW276781   1.519   1.263   3.620 -0.7581  0.0733 -0.4702
23181SOL     OW76782  12.613   9.793  12.106  0.1302 -0.2001 -0.2815
23181SOL    HW176783  12.693   9.744  12.087  0.0579 -0.0769 -0.9340
23181SOL    HW276784  12.620   9.817  12.198  1.0668  0.2253 -0.4554
23182SOL     OW76785   2.363  11.041  10.702  0.2443  0.1815  0.1911
23182SOL    HW176786   2.320  11.041  10.617  1.9846 -0.4313 -0.7225
23182SOL    HW276787   2.291  11.054  10.765 -1.3097 -0.9939 -1.2354
23183SOL     OW76788   4.569   4.959   9.161 -0.3500 -0.4906 -0.6166
23183SOL    HW176789   4.507   4.887   9.164 -0.8480 -0.1376 -1.8959
23183SOL    HW276790   4.521   5.034   9.195 -0.1901 -0.5044 -0.3547
23184SOL     OW76791  12.194   8.444   9.999  0.7274  0.1592 -0.7536
23184SOL    HW176792  12.151   8.361   9.982 -1.4326  1.3521 -1.3573
23184SOL    HW276793  12.172   8.464  10.090  1.3681  0.0404 -0.5622
23185SOL     OW76794   0.277   0.855   2.462  0.3154  0.3762 -0.0572
23185SOL    HW176795   0.221   0.833   2.388  1.7163 -2.4014 -0.4092
23185SOL    HW276796   0.275   0.777   2.518  1.4434  1.3643  1.4490
23186SOL     OW76797   3.370   3.129   4.699 -0.0953 -0.0174  0.0634
23186SOL    HW176798   3.307   3.202   4.694  0.8567  0.9892  1.8253
23186SOL    HW276799   3.336   3.065   4.636 -1.5469  1.4895 -0.8016
23187SOL     OW76800   1.174   1.984   7.559 -0.0554  0.1537  0.1075
23187SOL    HW176801   1.190   1.974   7.466  2.1222  0.7926  0.3556
23187SOL    HW276802   1.245   1.936   7.601 -1.6898 -1.1873  1.5087
23188SOL     OW76803   6.051  11.090   7.880 -0.5527 -0.1272 -0.3124
23188SOL    HW176804   5.985  11.155   7.855  0.1602  0.5223 -0.5376
23188SOL    HW276805   6.009  11.038   7.949 -0.4016  1.9043  1.4003
23189SOL     OW76806   2.563   6.359   6.338  0.4278 -0.2165  0.2753
23189SOL    HW176807   2.494   6.371   6.403  0.4995 -2.1263  0.7596
23189SOL    HW276808   2.568   6.443   6.292 -0.6998  0.6579  1.6834
23190SOL     OW76809   6.067  10.896   1.431 -0.0347  0.3733  0.1306
23190SOL    HW176810   5.990  10.881   1.375  0.6138  1.3418 -1.0693
23190SOL    HW276811   6.141  10.861   1.379  0.4480  0.2510  0.8898
23191SOL     OW76812   6.823   2.879  11.877  0.2446  0.3735 -0.6367
23191SOL    HW176813   6.858   2.895  11.964  2.5988  0.4503 -1.5347
23191SOL    HW276814   6.782   2.792  11.883 -0.9339  0.9851  0.8673
23192SOL     OW76815   4.059   5.428   2.787  0.0252  0.5066  0.1536
23192SOL    HW176816   4.026   5.494   2.848 -0.0282  1.1045 -0.5088
23192SOL    HW276817   4.126   5.474   2.736  0.3722 -0.1068  0.0568
23193SOL     OW76818   7.341  11.065   7.389 -0.0779  0.4809  0.1655
23193SOL    HW176819   7.374  11.134   7.446 -2.4203  1.4993  0.3765
23193SOL    HW276820   7.372  11.088   7.302  1.0675  0.5140  0.5650
23194SOL     OW76821  11.254   4.152   6.773 -0.4034  0.1632 -0.2047
23194SOL    HW176822  11.186   4.193   6.826 -1.4951  1.3967 -2.3954
23194SOL    HW276823  11.227   4.170   6.682 -0.3099 -4.3946 -1.3530
23195SOL     OW76824   0.351  12.033   1.656  0.5044 -0.0213  0.0114
23195SOL    HW176825   0.353  12.035   1.560  0.4530  0.6641  0.0180
23195SOL    HW276826   0.282  11.970   1.677  0.4046 -0.0562 -0.4048
23196SOL     OW76827  11.700   1.717   7.026  0.0938 -0.5216  0.3311
23196SOL    HW176828  11.763   1.750   6.961 -0.0778 -1.2507 -0.2152
23196SOL    HW276829  11.677   1.794   7.078 -0.4190  0.2602 -1.0188
23197SOL     OW76830   3.736  12.237   7.295 -0.0501  0.2720  0.9968
23197SOL    HW176831   3.725  12.329   7.272  2.6131  0.2406 -0.7674
23197SOL    HW276832   3.813  12.235   7.351  0.2404 -0.9206  0.5815
23198SOL     OW76833  10.506   7.154   5.001  0.2871 -0.1108  0.6854
23198SOL    HW176834  10.437   7.193   4.946 -0.1238 -0.7902  0.7041
23198SOL    HW276835  10.463   7.080   5.044  0.9506 -0.3479  0.9505
23199SOL     OW76836   4.397   2.814   2.568  0.0945  0.4791  0.0307
23199SOL    HW176837   4.320   2.793   2.516  1.5053 -1.2498 -1.4798
23199SOL    HW276838   4.470   2.809   2.507  1.5577  0.9594  1.6551
23200SOL     OW76839   9.051   5.899   0.069  0.0300  0.7023  0.1919
23200SOL    HW176840   9.091   5.843   0.002 -2.3342  0.3406 -1.0392
23200SOL    HW276841   9.102   5.980   0.066  0.3744  0.4739 -1.6519
23201SOL     OW76842   8.347  11.697   5.356 -0.4532  0.0429  0.3682
23201SOL    HW176843   8.294  11.628   5.317 -1.3163  0.7005  0.3366
23201SOL    HW276844   8.433  11.657   5.371 -1.1529 -1.2679  1.0659
23202SOL     OW76845   5.756   5.004  11.467  0.4057  0.0411  0.5858
23202SOL    HW176846   5.697   5.068  11.507  0.9356  0.3716  0.8589
23202SOL    HW276847   5.790   5.048  11.389  0.2309 -0.1773  0.3859
23203SOL     OW76848   8.356   0.033  12.349 -0.4187 -0.3034  0.1244
23203SOL    HW176849   8.429   0.093  12.366 -0.9866  0.1783  0.9544
23203SOL    HW276850   8.334   0.048  12.257 -0.6363  0.8796  0.3544
23204SOL     OW76851   9.898   7.746  12.547  0.6672 -0.6066  0.1058
23204SOL    HW176852   9.962   7.807  12.583  0.5424 -0.4448  0.0532
23204SOL    HW276853   9.950   7.683  12.498  0.6466  0.9079 -2.0299
23205SOL     OW76854   1.227  10.445   5.541 -0.0041 -0.0932 -0.1338
23205SOL    HW176855   1.200  10.535   5.554 -0.6738 -0.2337 -0.4751
23205SOL    HW276856   1.247  10.412   5.629  0.7976  0.5456 -0.0665
23206SOL     OW76857   4.790   1.091   7.008  0.0884  0.1278  0.2247
23206SOL    HW176858   4.832   1.157   6.953  0.0914  1.6873  2.0169
23206SOL    HW276859   4.696   1.101   6.990  0.0085  1.3443  1.2232
23207SOL     OW76860  12.331   6.469   2.273  0.1332  0.2311 -0.0715
23207SOL    HW176861  12.305   6.439   2.186 -1.2049  0.7342  0.1279
23207SOL    HW276862  12.393   6.403   2.304  0.1058 -0.3137 -1.1360
23208SOL     OW76863   7.041   7.277  10.403 -0.0298 -0.5096  0.1882
23208SOL    HW176864   7.088   7.269  10.486 -1.8431 -0.8449  1.2391
23208SOL    HW276865   7.107   7.307  10.341  1.5067 -0.7735  1.6157
23209SOL     OW76866   9.623   1.188   7.166 -0.5270  0.0050 -0.3163
23209SOL    HW176867   9.609   1.156   7.077 -0.3811  0.9265 -0.6795
23209SOL    HW276868   9.623   1.283   7.158 -0.3161  0.0986  0.6413
23210SOL     OW76869   1.230   8.164  10.995 -0.1302  0.0072 -0.5053
23210SOL    HW176870   1.270   8.235  11.045  0.3123 -0.5983  0.0158
23210SOL    HW276871   1.283   8.158  10.915  0.2011 -0.1195 -0.2788
23211SOL     OW76872   4.500   9.113   8.277  0.5293 -0.1192  0.0566
23211SOL    HW176873   4.535   9.072   8.356  0.1546 -1.3878 -0.3963
23211SOL    HW276874   4.572   9.167   8.244  1.7754 -1.8897 -0.3241
23212SOL     OW76875   8.997   1.607  10.004 -0.2545 -0.0333 -0.1461
23212SOL    HW176876   8.987   1.595  10.098 -1.8832  0.6405 -0.2043
23212SOL    HW276877   9.030   1.522   9.972 -0.2680 -0.4586  0.9421
23213SOL     OW76878   7.392   5.778   9.686 -0.2137  0.3929  0.5459
23213SOL    HW176879   7.322   5.817   9.737 -0.4550  0.5072  0.1318
23213SOL    HW276880   7.386   5.821   9.600 -1.5989 -1.7419 -0.5087
23214SOL     OW76881   7.764   9.759   2.816  0.3401  0.7905  0.1018
23214SOL    HW176882   7.680   9.725   2.845 -0.0846  1.2462 -0.5467
23214SOL    HW276883   7.829   9.705   2.860 -0.2985 -0.0528  0.0297
23215SOL     OW76884   4.318   6.061   2.734  0.2158  0.3311  0.2873
23215SOL    HW176885   4.300   6.033   2.645  1.9950 -0.1105  0.0300
23215SOL    HW276886   4.346   5.981   2.779  2.3217  1.0692  0.3860
23216SOL     OW76887   2.272  10.509  11.146 -0.2871  0.3518  1.0186
23216SOL    HW176888   2.213  10.584  11.132 -0.6631 -0.1111  0.0486
23216SOL    HW276889   2.360  10.547  11.144 -0.5067  0.9302  1.6777
23217SOL     OW76890  11.844   2.074   3.535 -0.3807 -0.3343 -0.2997
23217SOL    HW176891  11.789   2.149   3.512 -0.9096 -1.1737 -1.9629
23217SOL    HW276892  11.920   2.112   3.577  0.0699  1.3191 -2.4102
23218SOL     OW76893   6.082  10.892   4.122  0.2204  0.0813 -0.1249
23218SOL    HW176894   6.022  10.856   4.057  0.5662  0.1897 -0.5156
23218SOL    HW276895   6.092  10.823   4.187  0.7476 -0.4858 -0.7817
23219SOL     OW76896   0.750   0.754   4.651 -0.1687  0.3191 -0.1890
23219SOL    HW176897   0.803   0.783   4.725  1.5507  0.4902 -1.4302
23219SOL    HW276898   0.723   0.835   4.608  1.2900  0.2130 -1.3762
23220SOL     OW76899   7.648  10.419   8.025 -0.0695 -0.1985 -0.1180
23220SOL    HW176900   7.559  10.384   8.010 -0.4182  0.2797  0.7526
23220SOL    HW276901   7.705  10.342   8.018 -0.4081 -0.3371 -1.7828
23221SOL     OW76902   9.076   5.896  10.318 -0.9049 -0.4283  0.2621
23221SOL    HW176903   8.992   5.850  10.314 -1.6236  0.8996 -1.3150
23221SOL    HW276904   9.139   5.834  10.282 -1.9667 -0.0716 -2.4510
23222SOL     OW76905   0.075  10.945  12.362 -0.2349 -0.4137 -0.0073
23222SOL    HW176906   0.142  11.001  12.325 -1.1416  0.3725 -0.4897
23222SOL    HW276907   0.045  10.991  12.440 -1.6956  0.3060 -0.9589
23223SOL     OW76908   9.330   9.868   8.127 -0.7033  0.4656 -0.1528
23223SOL    HW176909   9.236   9.855   8.115 -0.7106  1.4522 -1.3471
23223SOL    HW276910   9.340   9.884   8.221 -1.8071  0.9395 -0.1035
23224SOL     OW76911   4.865   1.546  10.201 -0.1829 -0.1995  0.2200
23224SOL    HW176912   4.926   1.604  10.247 -0.5362 -0.1911  0.6826
23224SOL    HW276913   4.803   1.517  10.268 -1.6263  1.0068 -0.5120
23225SOL     OW76914  12.463   6.848   0.974  0.0470  0.2221  0.3184
23225SOL    HW176915  12.427   6.762   0.950  0.2824 -0.0731  1.0049
23225SOL    HW276916  12.400   6.910   0.938 -0.9350 -0.2796  1.1204
23226SOL     OW76917   3.961   1.236  10.999 -0.8270 -0.2231  0.3576
23226SOL    HW176918   3.897   1.185  10.949  1.0002 -2.5634  0.1762
23226SOL    HW276919   4.028   1.172  11.023 -0.2382  1.3869  3.4987
23227SOL     OW76920  12.687  10.841   2.483  0.1600  0.2649  0.1830
23227SOL    HW176921  12.701  10.922   2.433 -0.2667  1.0911  1.3356
23227SOL    HW276922  12.614  10.798   2.438 -0.4542  1.1697  0.2713
23228SOL     OW76923   5.407   0.711   8.113 -0.1892 -0.0097 -0.3992
23228SOL    HW176924   5.400   0.757   8.197 -0.4613 -0.3135 -0.2533
23228SOL    HW276925   5.411   0.781   8.048 -0.2462  0.2272 -0.1525
23229SOL     OW76926   9.629  11.602   1.239 -0.2814 -0.0127 -0.2120
23229SOL    HW176927   9.590  11.554   1.165 -1.9497  0.1164  0.5265
23229SOL    HW276928   9.573  11.679   1.249  0.5190  0.4860  0.5719
23230SOL     OW76929   6.232  10.377  10.396  0.2117  0.4248  0.1926
23230SOL    HW176930   6.232  10.424  10.479  0.3455 -0.6891  0.8556
23230SOL    HW276931   6.289  10.301  10.412  1.5370  1.0143 -1.4111
23231SOL     OW76932  10.251   6.141   0.684  0.2065 -0.4224  0.3666
23231SOL    HW176933  10.173   6.157   0.629  0.6973 -0.8779 -0.4870
23231SOL    HW276934  10.312   6.210   0.659  0.5045 -0.7445  0.1986
23232SOL     OW76935   9.332   0.657   4.528  0.3604 -0.4078  0.0016
23232SOL    HW176936   9.279   0.645   4.607  1.4461 -0.7083  0.7094
23232SOL    HW276937   9.270   0.646   4.455 -0.3860 -1.6105  0.7813
23233SOL     OW76938   8.318   2.837   3.330 -0.5958  0.1864  0.5103
23233SOL    HW176939   8.252   2.787   3.378 -0.4368 -0.8215 -0.2957
23233SOL    HW276940   8.294   2.826   3.238 -0.0929  0.9583  0.2766
23234SOL     OW76941   2.424   7.864   4.004  0.5740  0.7084 -0.3372
23234SOL    HW176942   2.360   7.863   4.074 -1.4121  0.4919 -2.0539
23234SOL    HW276943   2.487   7.932   4.029  0.5116 -0.0234  2.0616
23235SOL     OW76944  11.183   3.351   8.588  0.3634 -0.3577 -0.2101
23235SOL    HW176945  11.251   3.418   8.588 -0.9382  1.0954 -2.5845
23235SOL    HW276946  11.220   3.279   8.538  0.1318  0.5695 -1.8085
23236SOL     OW76947  12.034   0.798  10.488  0.2487  0.2413  0.0747
23236SOL    HW176948  12.072   0.844  10.563  0.4045  0.8030 -0.3472
23236SOL    HW276949  12.009   0.713  10.523  0.8246  0.2959  0.6423
23237SOL     OW76950  11.855   3.466   0.821  0.0153  0.1946  0.4599
23237SOL    HW176951  11.931   3.430   0.866  0.7289  0.4493 -0.5095
23237SOL    HW276952  11.865   3.437   0.730 -0.6635  0.8432  0.1676
23238SOL     OW76953   5.154   6.912   0.503 -0.5680 -0.0934  0.4738
23238SOL    HW176954   5.163   6.975   0.575 -0.8257 -0.7174  1.0647
23238SOL    HW276955   5.165   6.827   0.545 -1.6658 -0.5153 -0.0497
23239SOL     OW76956   2.752   6.133  10.954 -0.3308 -0.5100 -0.2834
23239SOL    HW176957   2.728   6.181  10.875 -0.0234 -1.3766 -0.9306
23239SOL    HW276958   2.837   6.094  10.933  0.1126 -0.1545  0.7540
23240SOL     OW76959   4.454   9.767   6.652 -0.2960 -0.7945  0.3673
23240SOL    HW176960   4.505   9.705   6.705  1.3411  0.3282  0.2154
23240SOL    HW276961   4.420   9.830   6.716  1.9271  0.7306  0.1639
23241SOL     OW76962   3.236   6.096   0.150 -0.0515  0.2375  0.0652
23241SOL    HW176963   3.151   6.090   0.194  0.1932 -1.3216  0.3958
23241SOL    HW276964   3.251   6.007   0.117  2.0917  0.1214  1.2157
23242SOL     OW76965   3.222   4.842   7.129 -0.0705  0.3552 -0.5092
23242SOL    HW176966   3.303   4.856   7.178  1.0594 -1.0551 -1.8574
23242SOL    HW276967   3.178   4.772   7.176 -0.5758  1.1742  0.2698
23243SOL     OW76968   3.701  11.721   8.615 -0.0865 -0.4888  0.6732
23243SOL    HW176969   3.653  11.655   8.566  0.6186 -0.6991  0.2546
23243SOL    HW276970   3.790  11.688   8.619  0.7750  1.3188 -1.2636
23244SOL     OW76971   5.591   6.718   2.729  0.3618 -0.3156 -0.5197
23244SOL    HW176972   5.663   6.657   2.744 -0.1321 -0.6046  0.8749
23244SOL    HW276973   5.634   6.804   2.725  0.9794 -0.6599 -1.7244
23245SOL     OW76974   1.119   1.162  12.414 -0.4073 -0.8022 -0.2652
23245SOL    HW176975   1.149   1.087  12.465  0.8156 -2.0425 -2.6608
23245SOL    HW276976   1.192   1.224  12.417 -1.2758  0.2183  1.4070
23246SOL     OW76977  11.072   0.126   8.116  0.0758 -0.0520  0.3012
23246SOL    HW176978  11.051   0.090   8.202  1.7531  0.5466  1.0007
23246SOL    HW276979  11.007   0.195   8.103 -0.8961 -0.8812  0.5572
23247SOL     OW76980   8.695   0.132   4.365 -0.2793  0.3794  0.1291
23247SOL    HW176981   8.600   0.120   4.364 -0.0389 -1.9353  0.4437
23247SOL    HW276982   8.728   0.054   4.409  1.8502  0.5245 -1.1023
23248SOL     OW76983   5.297   2.537   6.696 -0.1469  0.1579 -0.3970
23248SOL    HW176984   5.203   2.526   6.707 -0.2725 -1.0232 -2.1938
23248SOL    HW276985   5.315   2.502   6.609  1.8248  1.2258 -0.4768
23249SOL     OW76986   2.080   3.825   5.341 -0.2067  0.4512  0.2272
23249SOL    HW176987   2.051   3.842   5.252 -0.3744 -1.0936 -0.0292
23249SOL    HW276988   2.157   3.882   5.352  1.6430 -1.4028 -1.9626
23250SOL     OW76989   0.423  11.101   5.924 -0.1529  0.0400  0.2151
23250SOL    HW176990   0.461  11.021   5.961  1.6365  0.2021 -1.1580
23250SOL    HW276991   0.467  11.172   5.972 -0.2599  0.2103  0.0605
23251SOL     OW76992  10.751   2.750   0.715  0.6643 -0.5488 -0.3971
23251SOL    HW176993  10.812   2.755   0.642 -0.1134 -0.1143 -1.0266
23251SOL    HW276994  10.667   2.725   0.676 -0.5365  2.6378 -0.1470
23252SOL     OW76995   4.251   1.558   0.557 -0.1411  0.2255  0.2740
23252SOL    HW176996   4.303   1.478   0.566  0.5634  0.7427  0.9036
23252SOL    HW276997   4.179   1.545   0.619 -0.3314 -0.1428 -0.0154
23253SOL     OW76998   5.027   1.605   8.333  0.0210 -0.0596 -0.5639
23253SOL    HW176999   5.092   1.580   8.267 -0.1144 -0.2699 -0.6218
23253SOL    HW277000   5.046   1.696   8.353 -2.0418  1.1945 -3.4625
23254SOL     OW77001   0.200   9.051   3.799  0.9916 -0.8100  0.5456
23254SOL    HW177002   0.215   9.094   3.884  1.7901 -1.8034  0.9259
23254SOL    HW277003   0.217   8.959   3.816  1.2466 -1.0066 -0.7237
23255SOL     OW77004   0.914   4.216  11.464  0.0755 -0.1241 -0.2429
23255SOL    HW177005   0.862   4.181  11.392  2.5604 -1.6435 -1.4726
23255SOL    HW277006   0.882   4.170  11.542 -0.4448 -0.9701 -0.9398
23256SOL     OW77007   3.251  10.077   4.910  0.2989 -0.2951 -0.3093
23256SOL    HW177008   3.163  10.047   4.932 -0.3959  0.2415 -2.1815
23256SOL    HW277009   3.237  10.150   4.850  2.0133  0.8850  0.6389
23257SOL     OW77010   3.059   4.865   4.122  0.3057 -0.5382 -0.5595
23257SOL    HW177011   3.026   4.888   4.035 -0.4134  0.9496  0.0698
23257SOL    HW277012   3.150   4.894   4.122  0.3650 -0.7220 -0.8759
23258SOL     OW77013   7.368   1.740   9.683  0.2116  0.6106  0.3303
23258SOL    HW177014   7.448   1.730   9.734 -0.0882  0.9766  0.8894
23258SOL    HW277015   7.317   1.661   9.702  0.9779 -0.2571 -1.0523
23259SOL     OW77016   2.009   1.321   2.404  0.7914  0.0247  0.4857
23259SOL    HW177017   1.972   1.317   2.492 -0.1581 -1.1968  0.0597
23259SOL    HW277018   2.103   1.311   2.417  0.7386  0.6259  1.4124
23260SOL     OW77019   9.397   7.711  10.123  0.3271  0.5066 -0.7118
23260SOL    HW177020   9.346   7.745  10.050  0.6790  0.1997 -1.1055
23260SOL    HW277021   9.470   7.665  10.082  0.1499 -0.2649 -0.1775
23261SOL     OW77022   2.523   2.149   8.942 -0.1478 -0.0604 -0.0249
23261SOL    HW177023   2.480   2.212   8.999  0.3387 -0.5359  0.8819
23261SOL    HW277024   2.515   2.187   8.854 -0.1616  1.0901  0.4590
23262SOL     OW77025   1.409   4.351   6.702 -0.4860 -0.3978 -0.8009
23262SOL    HW177026   1.321   4.315   6.714 -0.0525 -0.7977  1.8907
23262SOL    HW277027   1.465   4.274   6.690 -0.0408 -0.5018  1.4392
23263SOL     OW77028   1.859  11.276  10.237  0.0384  0.3626 -0.5205
23263SOL    HW177029   1.811  11.308  10.161 -0.1726  3.5907  0.7991
23263SOL    HW277030   1.819  11.322  10.311  2.8754  0.4976  1.0506
23264SOL     OW77031   4.599   6.882   0.438  0.2866 -0.0007  0.5209
23264SOL    HW177032   4.641   6.917   0.516 -0.7513 -1.5036  1.8065
23264SOL    HW277033   4.527   6.942   0.420  0.1115 -0.0266  1.1240
23265SOL     OW77034   1.525   9.594   7.221  0.3819 -0.0969  0.0158
23265SOL    HW177035   1.503   9.584   7.128  1.1484  0.8297 -0.2806
23265SOL    HW277036   1.443   9.577   7.267 -0.2730  0.5106 -0.8892
23266SOL     OW77037   5.459   9.881   2.447  0.1821  0.2141 -0.0463
23266SOL    HW177038   5.462   9.973   2.421 -1.6847 -0.2055 -2.0672
23266SOL    HW277039   5.388   9.877   2.510  0.3028  0.1730  0.0863
23267SOL     OW77040   2.981   9.176   6.895  0.2438 -0.2379 -0.4773
23267SOL    HW177041   2.900   9.172   6.844 -0.8346 -0.1996  1.1728
23267SOL    HW277042   2.968   9.113   6.966  1.5715 -0.0499 -0.0403
23268SOL     OW77043  12.642   3.451  12.616  0.1166 -0.1365 -0.2097
23268SOL    HW177044  12.564   3.478  12.665 -0.6158 -0.9206 -0.9040
23268SOL    HW277045  12.625   3.359  12.594  1.2872 -0.3420 -0.3033
23269SOL     OW77046   0.862   2.447   3.801 -0.1950 -0.7164  0.1226
23269SOL    HW177047   0.865   2.530   3.848  0.6845 -0.4977 -0.2943
23269SOL    HW277048   0.953   2.430   3.777 -0.3660 -1.8239  0.2325
23270SOL     OW77049  11.835   8.045  12.170  0.3975 -0.4008 -0.1263
23270SOL    HW177050  11.923   8.046  12.132  0.2950  0.6971 -0.3667
23270SOL    HW277051  11.846   8.078  12.259  0.0723  0.9855 -0.5733
23271SOL     OW77052   9.902   2.879   5.497 -0.2374  0.3434 -0.2126
23271SOL    HW177053   9.892   2.968   5.463 -0.2957  0.4129 -0.0191
23271SOL    HW277054   9.814   2.842   5.492 -0.4212  0.6335  0.6153
23272SOL     OW77055   9.346   0.917   2.473 -0.2377 -0.0328 -0.0730
23272SOL    HW177056   9.302   0.932   2.556  0.3334 -3.2197  0.9259
23272SOL    HW277057   9.437   0.900   2.496 -0.7445 -5.1608 -0.5971
23273SOL     OW77058   4.410   2.297   9.684 -0.4076  0.2171 -0.2762
23273SOL    HW177059   4.484   2.357   9.678 -1.2230  1.5761  2.1028
23273SOL    HW277060   4.347   2.329   9.619 -0.4082  1.3637  0.2684
23274SOL     OW77061   7.975   8.999  12.023 -0.0356 -0.3006 -0.0837
23274SOL    HW177062   7.943   8.941  11.954 -0.4398  0.2439 -0.3595
23274SOL    HW277063   8.046   9.048  11.982  0.6719 -0.9897  0.3108
23275SOL     OW77064  11.437   1.626   9.526 -1.0204  0.5547  0.1330
23275SOL    HW177065  11.452   1.537   9.496  1.3798  0.5807  0.9889
23275SOL    HW277066  11.465   1.681   9.453 -1.4245  0.6163  0.0231
23276SOL     OW77067   8.008   7.284  10.328  0.4954 -0.1187  0.3849
23276SOL    HW177068   7.938   7.286  10.394  1.0775  0.8558  0.9951
23276SOL    HW277069   8.085   7.316  10.374  0.7604  1.2612 -0.9426
23277SOL     OW77070   1.912   6.198  10.935  0.4613  0.4285  0.1890
23277SOL    HW177071   1.959   6.220  11.015 -0.0132  1.1407  0.2771
23277SOL    HW277072   1.903   6.281  10.889 -0.5028  0.2603  0.0618
23278SOL     OW77073   3.081   7.484  12.594 -0.1829  0.3461 -0.3109
23278SOL    HW177074   2.990   7.498  12.619 -0.5880 -2.4064  0.0799
23278SOL    HW277075   3.125   7.566  12.618 -2.1233  0.9527  1.5143
23279SOL     OW77076  11.224   1.726   5.529  0.1059  0.2899 -0.1649
23279SOL    HW177077  11.291   1.778   5.486 -0.1471  0.9540  0.2183
23279SOL    HW277078  11.163   1.703   5.459  0.3163  0.3495 -0.3704
23280SOL     OW77079   1.308   3.198   2.486  0.3114 -0.8554  0.0913
23280SOL    HW177080   1.215   3.220   2.482  0.6736  0.6703 -0.2521
23280SOL    HW277081   1.317   3.145   2.566 -0.8616 -1.1524  0.0403
23281SOL     OW77082   2.707   9.699   6.284  0.0084 -0.1547 -0.0369
23281SOL    HW177083   2.652   9.622   6.268 -0.8764  0.1726  1.2641
23281SOL    HW277084   2.721   9.700   6.378  1.4340  0.3492 -0.2317
23282SOL     OW77085  11.318  10.677   3.600 -0.0518  0.0728  0.0083
23282SOL    HW177086  11.331  10.771   3.611 -2.7068  0.4404  0.7206
23282SOL    HW277087  11.310  10.644   3.690  0.2002 -0.7232 -0.2582
23283SOL     OW77088   4.447   1.783   1.545  0.7067 -0.6694  0.2257
23283SOL    HW177089   4.387   1.857   1.551 -0.4393 -1.6692  1.5289
23283SOL    HW277090   4.534   1.822   1.559  0.1819  0.4877  0.3728
23284SOL     OW77091   0.296   5.559   9.911 -0.0989 -0.6560  0.2808
23284SOL    HW177092   0.279   5.653   9.902  1.5378 -0.4192 -0.6586
23284SOL    HW277093   0.367   5.553   9.975  1.2011 -1.0890 -1.1520
23285SOL     OW77094   4.595  11.766   1.980  0.0906 -0.5400  0.0436
23285SOL    HW177095   4.620  11.821   1.906 -0.0685  0.4030  0.6749
23285SOL    HW277096   4.510  11.800   2.008  0.5084 -0.3593  1.1502
23286SOL     OW77097  12.018  10.232  11.155  0.7693  0.6782 -0.5890
23286SOL    HW177098  12.066  10.260  11.233  0.5758  1.4114 -0.7212
23286SOL    HW277099  12.069  10.159  11.121  0.6242  0.0730  0.4550
23287SOL     OW77100   5.753  12.076   7.951 -0.2993 -0.1333 -0.3510
23287SOL    HW177101   5.696  12.152   7.943  0.8012  0.8342  0.5913
23287SOL    HW277102   5.759  12.060   8.045  1.5794  0.2961 -0.3601
23288SOL     OW77103   5.566   4.713   9.484 -0.0287 -0.0202  0.1755
23288SOL    HW177104   5.549   4.779   9.416 -0.3415  1.3856  1.5442
23288SOL    HW277105   5.501   4.645   9.468 -1.5660  1.3329  0.3237
23289SOL     OW77106   7.077   0.417   9.079  0.5054  0.0729 -0.0431
23289SOL    HW177107   7.133   0.451   9.149 -0.0748 -0.7632  0.8390
23289SOL    HW277108   7.119   0.448   8.998  1.0039  1.3248  0.6630
23290SOL     OW77109  12.033   4.970   8.326 -0.0873 -0.0304  0.5696
23290SOL    HW177110  12.052   5.010   8.241  1.2944  2.3021  1.8707
23290SOL    HW277111  12.119   4.964   8.369 -0.6723 -1.7097  1.6161
23291SOL     OW77112  10.562  10.200   3.303  0.3849  0.1103  0.4191
23291SOL    HW177113  10.480  10.191   3.351 -1.1796 -1.1056 -2.2800
23291SOL    HW277114  10.575  10.115   3.260  1.4306  1.2246 -1.6266
23292SOL     OW77115  10.557   3.830  12.463  0.2198  0.0763 -0.1533
23292SOL    HW177116  10.571   3.844  12.369  1.4525  0.1872  0.0285
23292SOL    HW277117  10.473   3.786  12.468  0.3638 -0.3844 -1.3479
23293SOL     OW77118   6.392   0.012   8.068  0.0095  0.1131 -0.2308
23293SOL    HW177119   6.369   0.099   8.101 -2.2892 -1.1115  1.7477
23293SOL    HW277120   6.319  -0.012   8.011  0.6851 -0.4909 -0.8551
23294SOL     OW77121   8.979  10.120  12.280 -0.0944 -0.2015  0.0752
23294SOL    HW177122   8.993  10.109  12.186 -1.7450  1.0607 -0.3621
23294SOL    HW277123   9.046  10.182  12.307  0.9393 -1.2183 -0.0633
23295SOL     OW77124  11.433   8.236   5.703  0.2779 -0.1765  0.2135
23295SOL    HW177125  11.431   8.308   5.767  2.0164  0.2260 -0.1406
23295SOL    HW277126  11.458   8.160   5.754  1.9456  0.2005  0.0055
23296SOL     OW77127   4.409   8.950   2.881  0.1068  0.2055  0.1467
23296SOL    HW177128   4.482   9.009   2.900  0.6099 -0.6151  0.8958
23296SOL    HW277129   4.434   8.905   2.800  0.5011 -0.1488  0.4567
23297SOL     OW77130   6.124  10.537   3.701  0.4017 -0.2651  0.4267
23297SOL    HW177131   6.179  10.614   3.710  2.4401 -1.5679 -0.1484
23297SOL    HW277132   6.079  10.549   3.618 -0.6693  1.0795  1.1685
23298SOL     OW77133   0.508   5.472   6.788 -0.0946 -0.0653  1.0624
23298SOL    HW177134   0.523   5.511   6.874  2.4588 -0.9881  1.1425
23298SOL    HW277135   0.553   5.531   6.727  3.0762 -2.1429  1.0946
23299SOL     OW77136   9.663   1.888  12.255 -0.1611  0.0856 -0.1837
23299SOL    HW177137   9.645   1.798  12.282  0.3124 -0.2296 -0.9151
23299SOL    HW277138   9.721   1.922  12.323  0.0299 -0.3083 -0.1455
23300SOL     OW77139  11.516   8.775   3.920  0.0446  0.6116 -0.4737
23300SOL    HW177140  11.587   8.717   3.946 -1.9368 -1.5927  0.4260
23300SOL    HW277141  11.472   8.728   3.849 -1.4456  1.1469  0.0579
23301SOL     OW77142  11.338   2.661   3.507  0.2025 -0.1081 -0.1666
23301SOL    HW177143  11.402   2.590   3.516 -0.1379 -0.2908  1.0588
23301SOL    HW277144  11.384   2.739   3.535  0.3792  0.0486 -0.8818
23302SOL     OW77145   5.058  11.984   0.324 -0.4070  0.1238 -0.8067
23302SOL    HW177146   5.072  12.038   0.246 -0.4061  0.8889 -0.2759
23302SOL    HW277147   4.985  11.926   0.300  0.4795 -0.6031 -1.8650
23303SOL     OW77148   5.377   2.543  11.676  0.5842 -0.5122 -0.0748
23303SOL    HW177149   5.365   2.533  11.771  2.3291 -0.3373  0.2075
23303SOL    HW277150   5.301   2.500  11.637  0.5666 -1.8943  1.3816
23304SOL     OW77151   1.048   6.859  10.531 -0.7473 -0.1420  0.3246
23304SOL    HW177152   1.118   6.910  10.491  0.3377 -0.2763  1.9515
23304SOL    HW277153   0.978   6.858  10.466 -0.0567  1.7832 -0.5068
23305SOL     OW77154   0.931   8.172   9.477 -0.2415  0.0644  0.2632
23305SOL    HW177155   0.978   8.162   9.560 -0.0223  1.2714  0.3106
23305SOL    HW277156   0.917   8.267   9.469  1.7393  0.2826 -2.1318
23306SOL     OW77157   8.803  10.768  12.078  0.1886 -0.0516 -0.1824
23306SOL    HW177158   8.794  10.724  11.994  0.9875  1.2941 -1.0113
23306SOL    HW277159   8.803  10.861  12.057  0.1974  0.3257  1.3309
23307SOL     OW77160  10.408   3.496   8.041  0.0200 -0.0868  0.2462
23307SOL    HW177161  10.492   3.527   8.076  0.2385  0.1794 -0.4927
23307SOL    HW277162  10.431   3.417   7.993 -0.3069 -0.5486  0.8304
23308SOL     OW77163   4.805   0.511   1.362 -0.2719  0.2647  0.5084
23308SOL    HW177164   4.838   0.590   1.320  1.2748 -1.3640 -1.6075
23308SOL    HW277165   4.710   0.515   1.351 -0.0892  1.1219 -0.9357
23309SOL     OW77166   7.323   2.125   5.433 -0.3536 -0.1780  0.4597
23309SOL    HW177167   7.284   2.058   5.376 -0.0140 -1.3553  1.5781
23309SOL    HW277168   7.414   2.096   5.445  0.0390  0.9419  0.2967
23310SOL     OW77169   4.184   8.174   3.599 -0.1730 -0.2849  0.2160
23310SOL    HW177170   4.239   8.137   3.529 -0.3665 -3.2978  1.4973
23310SOL    HW277171   4.096   8.144   3.577 -0.6652  0.9657  0.4194
23311SOL     OW77172   4.923   8.051   4.132 -0.0871 -0.1434 -0.1200
23311SOL    HW177173   4.876   7.979   4.090  0.7531  0.7734 -2.8867
23311SOL    HW277174   4.859   8.092   4.190 -1.2709 -1.6675 -0.2942
23312SOL     OW77175   5.528   1.426   7.231 -0.2990  0.1818 -0.3780
23312SOL    HW177176   5.610   1.472   7.214 -0.1622 -0.3216 -1.1559
23312SOL    HW277177   5.485   1.422   7.146 -1.5889  1.2704  0.1852
23313SOL     OW77178  10.459   2.332   8.979 -0.1867 -0.3612  0.3061
23313SOL    HW177179  10.511   2.404   9.014  1.3499 -2.3024  2.2634
23313SOL    HW277180  10.522   2.277   8.932 -0.9984 -1.2576  0.2290
23314SOL     OW77181  12.666   5.806   9.030 -1.2716 -0.1429  0.6212
23314SOL    HW177182  12.646   5.800   8.937  1.3876 -0.5524  0.0008
23314SOL    HW277183  12.688   5.898   9.043  0.0546 -0.4194  0.4278
23315SOL     OW77184   2.168   8.980   1.129  0.2316 -0.1043  0.3149
23315SOL    HW177185   2.253   9.024   1.128 -0.9314  2.4064  1.3250
23315SOL    HW277186   2.143   8.973   1.037  0.7581  0.8350  0.0817
23316SOL     OW77187  11.598   1.510  11.269 -0.1639  0.4272 -0.0518
23316SOL    HW177188  11.628   1.540  11.354 -1.5611  1.1897  0.1862
23316SOL    HW277189  11.657   1.553  11.206 -0.3619  1.4079  0.4293
23317SOL     OW77190  12.669   1.628   6.742 -0.1878  0.8729  0.6327
23317SOL    HW177191  12.728   1.693   6.781  0.4439  0.8482 -0.2505
23317SOL    HW277192  12.719   1.546   6.744 -0.4353  0.7180  0.4496
23318SOL     OW77193   3.611   7.589   2.271  0.1647  0.1181 -0.3562
23318SOL    HW177194   3.591   7.497   2.290  1.9840  0.1796  2.4366
23318SOL    HW277195   3.565   7.638   2.340  1.7965  1.0090  0.1400
23319SOL     OW77196   3.764  11.109   0.417  0.0668 -0.1056 -0.1899
23319SOL    HW177197   3.839  11.050   0.420  0.3358  0.2037 -0.6605
23319SOL    HW277198   3.691  11.057   0.450  0.4229 -0.5094 -0.0312
23320SOL     OW77199   0.671   0.200   9.506 -0.8405  0.0809  0.4033
23320SOL    HW177200   0.677   0.134   9.437  0.0050  0.6422 -0.0747
23320SOL    HW277201   0.583   0.190   9.540 -0.8397 -1.0745  0.1149
23321SOL     OW77202  11.949  12.694  10.872  0.6296  0.1418 -0.1354
23321SOL    HW177203  11.997  12.617  10.902 -0.3043 -1.0064 -1.4667
23321SOL    HW277204  11.920  12.672  10.783 -1.7143  1.0274  0.3204
23322SOL     OW77205   3.914   0.121   0.081 -0.3486 -0.4259 -0.4987
23322SOL    HW177206   3.890   0.029   0.089  1.8545 -0.9800  0.4545
23322SOL    HW277207   3.962   0.141   0.162  2.3375  0.4754 -2.1584
23323SOL     OW77208   4.099  10.180   1.618 -0.0798  0.0018  0.0182
23323SOL    HW177209   4.134  10.148   1.534  0.6164 -0.1678  0.3627
23323SOL    HW277210   4.026  10.122   1.638 -1.2552  0.9932 -1.2307
23324SOL     OW77211   9.060   9.712   9.023  0.0457  0.1434 -0.0964
23324SOL    HW177212   9.150   9.735   8.998  0.0630  0.1829  0.0056
23324SOL    HW277213   9.011   9.715   8.941  0.2367 -0.3399 -0.2288
23325SOL     OW77214  11.245   2.669   8.674 -0.4008 -0.2161 -0.3759
23325SOL    HW177215  11.324   2.615   8.682 -0.0946  0.1868 -0.5815
23325SOL    HW277216  11.279   2.756   8.651 -0.7767  0.4545  1.4644
23326SOL     OW77217   0.598  10.093   3.693  0.7394 -0.4792 -0.5483
23326SOL    HW177218   0.687  10.121   3.673 -0.0119  2.1808 -0.4826
23326SOL    HW277219   0.590  10.106   3.787 -0.3797  1.5997 -0.8724
23327SOL     OW77220   3.279   8.522  11.067 -0.6445 -0.8908  0.6075
23327SOL    HW177221   3.232   8.572  11.134 -0.1438 -0.5429  0.7022
23327SOL    HW277222   3.308   8.443  11.113 -0.9933 -1.0332  0.5898
23328SOL     OW77223  11.986   3.404   4.077  0.2201 -0.1649  0.2380
23328SOL    HW177224  11.951   3.321   4.111 -0.0351 -0.5697 -0.9466
23328SOL    HW277225  12.013   3.452   4.155  0.3494 -1.3546  0.9626
23329SOL     OW77226  11.049   0.977   6.403  0.8038  0.2015 -0.0245
23329SOL    HW177227  11.015   0.950   6.318 -0.1708 -0.2188  0.4762
23329SOL    HW277228  11.102   0.903   6.432 -0.5753 -0.5652  0.6428
23330SOL     OW77229   1.847   5.456   0.861 -0.3749  0.5519 -0.0378
23330SOL    HW177230   1.912   5.430   0.926 -0.5544  0.6783  0.1949
23330SOL    HW277231   1.875   5.413   0.780 -0.5539 -0.1922  0.2877
23331SOL     OW77232   3.533   7.676   9.812  0.0986 -0.3675 -0.5620
23331SOL    HW177233   3.454   7.628   9.787 -0.4032 -0.1330  0.5038
23331SOL    HW277234   3.580   7.617   9.871 -0.5692  0.4271  0.8332
23332SOL     OW77235   7.117  12.218   4.583 -0.6043  0.4193 -0.2479
23332SOL    HW177236   7.184  12.276   4.549  0.0877 -0.0367  0.3111
23332SOL    HW277237   7.114  12.237   4.677 -0.9710  0.1486 -0.2021
23333SOL     OW77238   1.485   0.624   9.623  0.1795  0.5053 -0.2235
23333SOL    HW177239   1.501   0.543   9.673  3.0130  0.2585 -1.3699
23333SOL    HW277240   1.517   0.605   9.535 -1.1669  2.1969 -1.1478
23334SOL     OW77241   9.309   8.904   2.601 -0.4749 -0.0167  0.5750
23334SOL    HW177242   9.297   8.809   2.599  1.5899 -0.3802 -2.7829
23334SOL    HW277243   9.389   8.918   2.651  0.1402 -0.2663 -0.3087
23335SOL     OW77244   3.589   6.470   7.129  0.4187  0.4052  0.0682
23335SOL    HW177245   3.619   6.538   7.069 -1.9167  1.2410 -0.2208
23335SOL    HW277246   3.582   6.392   7.074  0.3426  0.6352 -0.2538
23336SOL     OW77247   0.380  11.054   1.619  0.9896  0.3092 -0.0823
23336SOL    HW177248   0.335  10.976   1.587  2.4839 -0.8907  0.6216
23336SOL    HW277249   0.355  11.060   1.711  3.1842 -1.1658  0.7018
23337SOL     OW77250  11.702   4.776   3.914  0.0450  0.4040  0.1476
23337SOL    HW177251  11.781   4.745   3.869  0.0663  0.2890  0.2644
23337SOL    HW277252  11.714   4.750   4.005 -0.1818  0.2801  0.1434
23338SOL     OW77253   3.423   2.598   5.242  0.6101 -0.0622  0.1503
23338SOL    HW177254   3.355   2.531   5.233  0.3656 -0.0590  1.7062
23338SOL    HW277255   3.396   2.649   5.318  2.4597 -0.2093  0.9539
23339SOL     OW77256   1.293   5.365   3.939  0.6108  0.2188  0.2809
23339SOL    HW177257   1.292   5.322   4.025  0.4620 -0.9030 -0.2711
23339SOL    HW277258   1.228   5.318   3.887  0.2420  1.2965 -0.2694
23340SOL     OW77259   3.323   8.281   0.489  0.7167 -0.0497 -0.3314
23340SOL    HW177260   3.336   8.187   0.496 -1.5455 -0.4544 -1.0032
23340SOL    HW277261   3.309   8.297   0.395 -1.1678  0.5780  0.0123
23341SOL     OW77262   2.188   9.680  10.445 -0.3935 -0.9065 -0.8720
23341SOL    HW177263   2.160   9.643  10.529 -1.2867 -1.8673 -1.5633
23341SOL    HW277264   2.169   9.773  10.452 -0.5361 -0.9903 -0.0420
23342SOL     OW77265   3.231  11.476   5.375  0.2222 -0.1642 -0.3877
23342SOL    HW177266   3.167  11.415   5.336 -0.0866 -1.0334  1.3740
23342SOL    HW277267   3.300  11.419   5.408  0.8321  0.6054 -0.3288
23343SOL     OW77268   4.194   9.323   5.874 -0.0313  0.5408 -0.5084
23343SOL    HW177269   4.244   9.307   5.954  0.9793 -1.8323 -1.5111
23343SOL    HW277270   4.175   9.417   5.876 -1.1308  0.3758  3.0831
23344SOL     OW77271   9.162   7.288   2.689  0.0528  0.3164  0.0980
23344SOL    HW177272   9.083   7.234   2.690  0.6531 -0.8567 -3.2424
23344SOL    HW277273   9.233   7.226   2.709  0.3028  1.1879  2.1926
23345SOL     OW77274   2.821  11.149   6.854 -0.1807  0.0376 -0.2953
23345SOL    HW177275   2.900  11.123   6.807 -0.8745  1.9844 -2.7949
23345SOL    HW277276   2.850  11.219   6.913  0.4047 -1.2876  1.0615
23346SOL     OW77277   9.227   1.724   2.281 -0.2974  0.2929  0.2271
23346SOL    HW177278   9.179   1.807   2.287 -1.4319 -0.3981  1.5661
23346SOL    HW277279   9.161   1.661   2.250  0.8141  0.0553 -1.7849
23347SOL     OW77280   6.130   4.700   1.733  0.2021 -0.3275  0.3805
23347SOL    HW177281   6.218   4.699   1.771  0.5541 -0.0343 -0.4062
23347SOL    HW277282   6.100   4.790   1.744  0.8604  0.1278 -1.2325
23348SOL     OW77283   0.429   9.183   6.655 -0.4730  1.1281 -0.4016
23348SOL    HW177284   0.427   9.156   6.563  0.0628  2.4609 -0.8295
23348SOL    HW277285   0.412   9.277   6.653 -0.4089  1.1867  0.8637
23349SOL     OW77286   0.389   5.585  12.211 -0.5172  0.6729 -0.5687
23349SOL    HW177287   0.465   5.622  12.256  0.5557 -2.5033  0.5618
23349SOL    HW277288   0.422   5.562  12.124 -0.1050 -0.7374 -0.0664
23350SOL     OW77289   9.825   7.611   7.272 -0.0082 -0.2703 -0.4057
23350SOL    HW177290   9.840   7.605   7.178  1.6029  0.3751 -0.2273
23350SOL    HW277291   9.844   7.524   7.306 -1.1954 -0.6767 -0.7154
23351SOL     OW77292   1.494   1.174   5.521  0.0410 -0.0679 -0.4387
23351SOL    HW177293   1.467   1.232   5.450  0.0429  0.4167 -0.0451
23351SOL    HW277294   1.590   1.174   5.517  0.1499  1.6065  0.8414
23352SOL     OW77295   1.197  11.266   6.364  0.4775 -0.6654  0.3890
23352SOL    HW177296   1.252  11.306   6.432  0.5963 -0.6975  0.3113
23352SOL    HW277297   1.215  11.172   6.371  0.0737 -0.7247  0.6837
23353SOL     OW77298  11.041   9.950   9.961  0.2698  0.4005 -0.1090
23353SOL    HW177299  10.958   9.938  10.007 -0.1942 -0.3747 -1.1163
23353SOL    HW277300  11.094  10.004  10.020 -1.2901  1.7524  0.1250
23354SOL     OW77301   4.314   4.737  11.420  0.0182  0.1927 -0.0911
23354SOL    HW177302   4.356   4.653  11.440  0.9137  0.9532  1.3070
23354SOL    HW277303   4.224   4.713  11.398  0.4664 -1.2074 -0.5365
23355SOL     OW77304   3.235   1.541   7.592  0.4130  0.0974 -0.3471
23355SOL    HW177305   3.181   1.552   7.671 -2.3226  1.9507 -2.2691
23355SOL    HW277306   3.314   1.591   7.611 -0.2652  0.6835  1.1600
23356SOL     OW77307   5.228  11.705   8.436  0.0133 -0.4331  0.0250
23356SOL    HW177308   5.304  11.710   8.378 -0.3808  0.1713 -0.4526
23356SOL    HW277309   5.212  11.796   8.462  0.0307 -0.6651  0.8937
23357SOL     OW77310  11.127   0.715   5.358 -0.0006  0.3096 -0.6739
23357SOL    HW177311  11.109   0.628   5.393  0.3895  0.3019 -0.4888
23357SOL    HW277312  11.066   0.773   5.405  0.0413  0.2005 -0.4845
23358SOL     OW77313   4.998  10.604  12.581  0.2024 -0.1942  0.2466
23358SOL    HW177314   4.986  10.521  12.536 -0.3337 -0.5976  1.1122
23358SOL    HW277315   4.946  10.596  12.661  1.3105  0.4134  1.0574
23359SOL     OW77316   7.615   8.080   2.255  0.2571 -0.0440 -0.1516
23359SOL    HW177317   7.671   8.153   2.280 -0.4828  0.2357  0.7432
23359SOL    HW277318   7.556   8.117   2.189 -0.4359  0.3093  0.6545
23360SOL     OW77319   1.096  12.404  11.631 -0.6863 -1.0579 -0.5373
23360SOL    HW177320   1.033  12.341  11.595 -1.1897 -0.9096  0.0509
23360SOL    HW277321   1.067  12.489  11.596 -0.4091 -1.0696 -0.7969
23361SOL     OW77322   2.509   0.532   7.660 -0.7218  0.7300 -0.0603
23361SOL    HW177323   2.543   0.466   7.719  0.4151  0.5081 -0.9294
23361SOL    HW277324   2.463   0.594   7.716 -1.2206 -0.4323  0.8340
23362SOL     OW77325   9.540  10.233   0.378 -0.0606 -0.0967 -0.0406
23362SOL    HW177326   9.505  10.241   0.289 -1.0618 -0.3271  0.3220
23362SOL    HW277327   9.627  10.193   0.366 -0.6789 -1.2693 -0.8403
23363SOL     OW77328   7.090  12.394   6.061 -0.3045 -0.2753  0.7744
23363SOL    HW177329   7.146  12.326   6.023 -0.7332  0.2527 -0.8796
23363SOL    HW277330   7.002  12.372   6.031 -0.1125  2.7314 -2.6748
23364SOL     OW77331   1.816  12.273  12.474  0.0527 -0.4197 -0.1223
23364SOL    HW177332   1.728  12.251  12.443  0.4808 -1.6713 -0.5244
23364SOL    HW277333   1.872  12.206  12.435  1.2905  0.7445 -0.4170
23365SOL     OW77334   2.546   1.965   8.300  0.6868  0.0073  0.5511
23365SOL    HW177335   2.465   1.926   8.333  1.1099 -0.5105  0.9939
23365SOL    HW277336   2.517   2.024   8.230 -0.1580  0.5342  1.3148
23366SOL     OW77337   8.725   7.157   3.760 -0.5524  0.1731 -0.5953
23366SOL    HW177338   8.702   7.157   3.667 -0.5988  0.3423 -0.5830
23366SOL    HW277339   8.819   7.177   3.761 -0.0560 -1.8552 -0.7329
23367SOL     OW77340  12.656  12.628   8.322  0.5064  0.7600 -0.2639
23367SOL    HW177341  12.679  12.595   8.410  1.3669  1.4722 -0.2064
23367SOL    HW277342  12.578  12.681   8.336 -1.3300 -1.7214 -0.4595
23368SOL     OW77343   9.850   5.443   2.991 -0.3813 -0.4785 -0.8680
23368SOL    HW177344   9.799   5.435   2.911 -0.0521 -1.6626 -0.9870
23368SOL    HW277345   9.941   5.431   2.962 -0.0741  0.9538 -0.5727
23369SOL     OW77346   3.672   8.957   2.716 -0.0732  0.4464  0.1872
23369SOL    HW177347   3.593   9.010   2.705 -0.1024  0.4366  0.3427
23369SOL    HW277348   3.719   8.999   2.788 -0.6273 -0.3676  1.0542
23370SOL     OW77349   5.574   9.538   9.784  0.9312  0.3052  0.3647
23370SOL    HW177350   5.493   9.507   9.743  1.2868 -0.7722  0.4346
23370SOL    HW277351   5.546   9.611   9.840 -0.2177 -0.8217  1.3589
23371SOL     OW77352  10.225  10.158   5.752  0.0364  0.1334  0.2050
23371SOL    HW177353  10.245  10.247   5.782 -0.0843  0.6294 -1.1419
23371SOL    HW277354  10.155  10.169   5.688  0.7484 -0.8068 -0.7694
23372SOL     OW77355  10.316   0.621   6.779  0.3419 -0.7016 -0.3400
23372SOL    HW177356  10.298   0.527   6.790  2.6330 -1.2433 -0.5513
23372SOL    HW277357  10.358   0.646   6.862  0.0156  0.0762 -0.4056
23373SOL     OW77358   6.432   4.336   7.504  0.2956  0.2490 -0.3357
23373SOL    HW177359   6.390   4.258   7.468 -1.5799  0.4487  1.2675
23373SOL    HW277360   6.505   4.302   7.556  0.0004 -0.3810 -0.3215
23374SOL     OW77361   4.403   9.183   8.652  0.4406 -0.1656  0.1261
23374SOL    HW177362   4.357   9.160   8.571 -0.2813 -0.8084  0.7069
23374SOL    HW277363   4.432   9.098   8.687 -1.6728 -0.1943  1.9685
23375SOL     OW77364   6.683   7.373   3.659 -0.5907  0.0902  0.2725
23375SOL    HW177365   6.776   7.395   3.665 -0.2384 -1.5656  1.5200
23375SOL    HW277366   6.652   7.424   3.584  1.2066  1.0116  0.0824
23376SOL     OW77367   8.528   6.242  11.013  0.5326  0.5695  0.6559
23376SOL    HW177368   8.448   6.255  10.963  0.0488  0.3906  1.3648
23376SOL    HW277369   8.554   6.330  11.041  1.0350  0.7159 -0.2447
23377SOL     OW77370   3.879   2.505   0.558  0.0229  0.3910 -0.2255
23377SOL    HW177371   3.914   2.443   0.622  0.5206  1.3257  0.4276
23377SOL    HW277372   3.784   2.504   0.573  0.1110  0.4139  0.3577
23378SOL     OW77373   2.103   1.150   2.724  0.5382  0.0580 -0.0065
23378SOL    HW177374   2.087   1.119   2.635  1.3235 -0.4813  0.0316
23378SOL    HW277375   2.036   1.217   2.738  0.8053  0.6171 -1.2390
23379SOL     OW77376  11.756   2.382   7.585  0.0072  0.3863  0.4682
23379SOL    HW177377  11.828   2.444   7.571  0.0462  0.1398 -0.4275
23379SOL    HW277378  11.710   2.417   7.662  0.3639  1.2226  0.3161
23380SOL     OW77379   5.667   9.987   8.043  0.1102 -0.4275  0.2070
23380SOL    HW177380   5.763   9.995   8.047  0.2420 -1.9324  0.4637
23380SOL    HW277381   5.650   9.959   7.953 -0.1331  0.1155  0.0762
23381SOL     OW77382   9.712  11.689   6.188 -0.5822  0.2468 -0.2860
23381SOL    HW177383   9.628  11.643   6.186 -0.0065 -0.9034  0.8202
23381SOL    HW277384   9.734  11.696   6.281  0.7737  0.1047 -0.5716
23382SOL     OW77385   4.686   0.089   7.011 -0.4854  0.0761  0.0490
23382SOL    HW177386   4.605   0.139   7.027  0.3596  1.5353 -0.0061
23382SOL    HW277387   4.706   0.106   6.919 -0.5472 -0.9701 -0.1672
23383SOL     OW77388   3.730   8.764   7.384 -0.1163 -0.4559 -0.3280
23383SOL    HW177389   3.789   8.698   7.346  0.3807 -0.6119  0.6732
23383SOL    HW277390   3.643   8.737   7.355  0.0251 -1.8535  0.4339
23384SOL     OW77391   9.591   6.419   1.281 -0.3230  0.1974  0.1223
23384SOL    HW177392   9.599   6.494   1.339 -1.7763  0.7406 -0.3354
23384SOL    HW277393   9.580   6.344   1.339  2.1945  0.1256  0.6178
23385SOL     OW77394   8.517   3.940   8.218  1.2097 -0.0704  0.6437
23385SOL    HW177395   8.562   4.003   8.274  0.5452  0.5993  0.4492
23385SOL    HW277396   8.442   3.912   8.270 -0.5566  2.0578 -0.5756
23386SOL     OW77397   4.101   9.760   3.235 -0.7685 -0.2310  0.1623
23386SOL    HW177398   4.129   9.851   3.244 -0.8231 -0.0054 -1.5384
23386SOL    HW277399   4.009   9.761   3.260 -0.4181 -0.1153  1.5211
23387SOL     OW77400   6.703   8.172   1.719  0.0995 -0.1947 -0.8623
23387SOL    HW177401   6.643   8.247   1.717  0.7410  0.3192 -2.1950
23387SOL    HW277402   6.727   8.158   1.627  1.5770 -0.7355 -0.4295
23388SOL     OW77403   6.882   3.684   6.187  0.2141  0.3625 -0.2945
23388SOL    HW177404   6.943   3.683   6.113  0.8948  1.6629  0.2163
23388SOL    HW277405   6.914   3.754   6.244 -0.7565 -0.0864  0.8538
23389SOL     OW77406   5.352   8.999   3.417 -0.3228 -0.3068 -0.3271
23389SOL    HW177407   5.258   9.013   3.420 -0.1170  0.8724  1.1009
23389SOL    HW277408   5.389   9.084   3.396  0.4798 -0.5751 -0.0429
23390SOL     OW77409  12.250   3.116   4.028 -0.7607  0.3898 -0.3772
23390SOL    HW177410  12.228   3.047   4.090 -2.1523  0.7603 -0.4245
23390SOL    HW277411  12.304   3.177   4.078  0.9271 -0.9418 -0.4782
23391SOL     OW77412   4.356   6.441   8.131  0.2268  0.1461 -0.0003
23391SOL    HW177413   4.395   6.519   8.172 -0.1164  0.7361 -0.7789
23391SOL    HW277414   4.270   6.433   8.171 -0.2461  0.9258 -0.8287
23392SOL     OW77415  10.106   2.459  12.341  0.6263 -0.0069 -0.5417
23392SOL    HW177416  10.034   2.511  12.305 -1.2320 -0.9792  1.5023
23392SOL    HW277417  10.070   2.370  12.347  1.6816 -0.3572  1.3479
23393SOL     OW77418   0.682  11.750   0.924  0.2709  0.4104 -0.0591
23393SOL    HW177419   0.710  11.662   0.949  0.3970  0.6936  0.8528
23393SOL    HW277420   0.600  11.737   0.877  1.6707 -0.4065 -2.4546
23394SOL     OW77421   2.858  11.888   9.011 -0.4858  0.3497  0.1714
23394SOL    HW177422   2.950  11.878   8.984 -0.2020 -2.2231  1.8265
23394SOL    HW277423   2.854  11.976   9.050  1.3376  0.4192  0.2759
23395SOL     OW77424   9.658   3.395  10.440 -0.4365  0.1028  0.0370
23395SOL    HW177425   9.628   3.388  10.530  0.4262 -2.3111  0.1863
23395SOL    HW277426   9.752   3.379  10.444 -0.3105  0.3811 -1.2544
23396SOL     OW77427  10.260   5.807   4.890 -0.5130 -0.0835  0.0682
23396SOL    HW177428  10.220   5.846   4.812 -0.6633 -1.2597 -0.4574
23396SOL    HW277429  10.308   5.731   4.858  1.6710  0.9080  0.7733
23397SOL     OW77430  11.568   1.363  11.642  0.4872 -0.0471  0.2611
23397SOL    HW177431  11.545   1.333  11.730  1.3122 -0.8284  0.2200
23397SOL    HW277432  11.488   1.406  11.610  0.6212  1.5297  1.9126
23398SOL     OW77433   4.697   7.592   6.504  0.0950  0.5984  0.5199
23398SOL    HW177434   4.777   7.540   6.500 -0.7351 -0.6636 -0.8539
23398SOL    HW277435   4.722   7.677   6.468  1.3417  1.0112  2.2599
23399SOL     OW77436   3.173   2.521  11.692 -0.2553  0.0293  0.1263
23399SOL    HW177437   3.226   2.595  11.722 -0.2280  0.3539 -0.7000
23399SOL    HW277438   3.101   2.517  11.754  0.1461  0.2759  0.6166
23400SOL     OW77439   1.717  11.016   2.467 -0.0984 -0.1825  0.2932
23400SOL    HW177440   1.680  11.097   2.433 -0.9236 -0.6707 -0.0031
23400SOL    HW277441   1.811  11.033   2.473 -0.3952  1.2629  1.5309
23401SOL     OW77442   3.136   4.393  12.392  0.0003  0.1902 -0.7765
23401SOL    HW177443   3.137   4.472  12.339 -2.0537 -0.2254 -1.5175
23401SOL    HW277444   3.150   4.424  12.482 -0.7468  1.3960 -1.0558
23402SOL     OW77445   4.011   8.999   7.981 -0.4230  0.2225  0.2145
23402SOL    HW177446   4.060   9.057   7.922 -1.7718 -0.1836 -1.3691
23402SOL    HW277447   3.920   9.012   7.957 -0.9493 -0.6837  1.5994
23403SOL     OW77448  12.537   1.010   0.844  0.0612 -0.3142 -0.2737
23403SOL    HW177449  12.466   1.032   0.904  0.5119  0.6498 -0.0677
23403SOL    HW277450  12.542   1.084   0.784  2.8876  1.2119  1.6148
23404SOL     OW77451   7.925   0.542   9.716  0.0867 -0.1459 -0.4706
23404SOL    HW177452   7.913   0.564   9.624 -1.2437 -1.1364 -0.5551
23404SOL    HW277453   7.965   0.454   9.714  1.6702  0.5227 -0.0925
23405SOL     OW77454   8.547   5.633   5.288  0.6431  0.6074  0.4818
23405SOL    HW177455   8.597   5.708   5.255  2.1355 -0.8834 -0.7863
23405SOL    HW277456   8.566   5.562   5.227 -0.7195 -0.8418  1.6503
23406SOL     OW77457   0.200   6.856   3.151 -0.0963  0.6129  0.0376
23406SOL    HW177458   0.295   6.858   3.162 -0.3033 -0.6607  3.3044
23406SOL    HW277459   0.179   6.765   3.133 -0.7710  0.6398  0.6268
23407SOL     OW77460   5.882   0.686   7.674  0.3078  0.1450 -0.3866
23407SOL    HW177461   5.884   0.591   7.668 -0.6859  0.1549 -1.1782
23407SOL    HW277462   5.905   0.705   7.765  0.7280 -0.8286 -0.2752
23408SOL     OW77463  12.339  11.371   5.130 -0.1184  0.6698 -0.3528
23408SOL    HW177464  12.386  11.288   5.125  1.0651  1.0524  2.6115
23408SOL    HW277465  12.247  11.346   5.140  0.1717 -0.2863  0.0368
23409SOL     OW77466   6.410  10.267   7.871  0.1965 -0.4368 -1.4182
23409SOL    HW177467   6.355  10.214   7.929 -1.5061  0.6895 -1.8980
23409SOL    HW277468   6.414  10.218   7.789 -0.9640 -0.0948 -1.7003
23410SOL     OW77469  12.082  12.130  10.075  0.3928  0.5221  0.6513
23410SOL    HW177470  12.163  12.084  10.097  0.5707 -0.4121 -1.6543
23410SOL    HW277471  12.112  12.215  10.041  0.3444  0.5435  0.6629
23411SOL     OW77472   7.430  10.522   7.682 -0.0997 -0.0842  0.7463
23411SOL    HW177473   7.479  10.458   7.733  0.1451  0.8615  1.7406
23411SOL    HW277474   7.345  10.481   7.667  0.3398 -0.9773  0.6323
23412SOL     OW77475   2.679   5.787   2.622 -0.1456  0.2630  0.1681
23412SOL    HW177476   2.590   5.808   2.651  0.7460  4.1063  0.6077
23412SOL    HW277477   2.673   5.787   2.526 -0.7091 -0.1802  0.1952
23413SOL     OW77478   5.669   7.856   1.191 -0.3797 -0.3688 -0.0537
23413SOL    HW177479   5.654   7.790   1.123 -0.9822  0.0319 -0.3116
23413SOL    HW277480   5.665   7.940   1.146  0.3916 -0.1429  0.2742
23414SOL     OW77481   5.927   6.070  11.481 -0.2364  0.4083  0.3162
23414SOL    HW177482   5.889   6.157  11.476  0.1110  0.5880  0.7338
23414SOL    HW277483   5.919   6.035  11.393 -1.5045  0.3833  0.4179
23415SOL     OW77484   4.957   4.203   8.921 -0.2074  0.3153  0.2162
23415SOL    HW177485   5.023   4.162   8.866  0.0183  1.5969 -0.5260
23415SOL    HW277486   4.993   4.199   9.009  0.1002 -0.4676  0.0561
23416SOL     OW77487   7.382   9.610   2.479 -0.5893  0.3716  0.2526
23416SOL    HW177488   7.398   9.705   2.479  1.8546  0.0287  1.2200
23416SOL    HW277489   7.467   9.572   2.458 -1.5462 -1.6380 -0.1758
23417SOL     OW77490   1.203   0.451  10.164 -0.2176  0.2631 -0.1549
23417SOL    HW177491   1.127   0.505  10.183 -1.1175 -0.5854 -1.1851
23417SOL    HW277492   1.223   0.468  10.072 -0.8811 -1.5355 -0.6729
23418SOL     OW77493   3.352   8.653   1.362 -0.0952  0.3035 -0.4715
23418SOL    HW177494   3.328   8.631   1.452 -0.5322 -0.9122 -0.8605
23418SOL    HW277495   3.341   8.748   1.357 -0.4729  0.3381  0.6387
23419SOL     OW77496   7.813   7.482  10.036 -0.0541  0.1175  0.2898
23419SOL    HW177497   7.882   7.507   9.974 -0.2352 -0.6406 -0.2393
23419SOL    HW277498   7.825   7.387  10.047 -1.1007 -0.0519  0.0675
23420SOL     OW77499   7.779   5.689   7.207 -0.4359  0.2721 -0.0935
23420SOL    HW177500   7.708   5.641   7.249 -1.3681  1.0789 -0.6930
23420SOL    HW277501   7.794   5.764   7.264  1.3971 -0.9505  1.1386
23421SOL     OW77502   9.864   7.485   0.627  0.3604  0.1093 -0.0446
23421SOL    HW177503   9.889   7.452   0.713  0.0159  0.3886  0.1628
23421SOL    HW277504   9.918   7.434   0.566  0.2657 -0.4167  0.3037
23422SOL     OW77505   7.864  10.095   8.972 -0.1123  0.0457 -0.1647
23422SOL    HW177506   7.813  10.172   8.998  1.9748  0.5796  2.9760
23422SOL    HW277507   7.799  10.027   8.956 -1.9048  1.5988  0.1441
23423SOL     OW77508  11.756   8.401   1.954 -0.0319 -0.9162 -0.0230
23423SOL    HW177509  11.803   8.418   1.872 -1.2201 -2.3720 -1.0981
23423SOL    HW277510  11.697   8.475   1.964 -0.0522 -0.8368 -0.6571
23424SOL     OW77511   0.466   8.986   3.638  0.0358  0.4210  0.1559
23424SOL    HW177512   0.504   9.063   3.681 -2.0589  2.2809 -1.1492
23424SOL    HW277513   0.390   8.964   3.692 -0.4669  0.4614 -0.5304
23425SOL     OW77514   4.267   8.313   3.345 -0.0167 -0.2905 -0.4732
23425SOL    HW177515   4.295   8.261   3.269 -1.8361 -0.1662 -1.2708
23425SOL    HW277516   4.321   8.392   3.340  0.1119 -0.4241 -1.4616
23426SOL     OW77517   4.728   9.714  10.130 -0.7672  0.0927  0.1447
23426SOL    HW177518   4.781   9.789  10.100 -2.1446 -0.2423 -3.7523
23426SOL    HW277519   4.676   9.749  10.202 -0.6854  2.6920 -0.9240
23427SOL     OW77520  12.545   6.328   4.083 -0.4694 -0.4311  0.3227
23427SOL    HW177521  12.605   6.374   4.025 -0.2899 -0.1463  0.7279
23427SOL    HW277522  12.575   6.351   4.171  0.3436 -2.2509  0.5641
23428SOL     OW77523   6.904   1.514   1.715 -0.2441  0.0399 -0.2396
23428SOL    HW177524   6.853   1.541   1.791  0.9219  0.9140  0.2673
23428SOL    HW277525   6.995   1.525   1.742  0.3163 -2.9200 -0.5742
23429SOL     OW77526  11.588   3.024   6.860 -0.0684 -0.2800  0.4664
23429SOL    HW177527  11.553   3.110   6.883  0.0141 -0.0840 -0.1082
23429SOL    HW277528  11.677   3.024   6.894 -0.3543 -0.4798  1.2412
23430SOL     OW77529   2.724  11.971  10.332  0.1986  0.3000 -0.0409
23430SOL    HW177530   2.717  12.052  10.382  0.5946  0.8822 -0.9069
23430SOL    HW277531   2.722  11.902  10.398  0.5233  1.0383  0.7621
23431SOL     OW77532   2.459   9.176   4.084  0.6407 -0.7163  0.1732
23431SOL    HW177533   2.541   9.163   4.132  1.0203 -0.7410 -0.4772
23431SOL    HW277534   2.463   9.113   4.012  0.6310  0.1686 -0.6164
23432SOL     OW77535   2.513   1.171   2.478  0.2509  0.2160 -0.5245
23432SOL    HW177536   2.585   1.119   2.445  0.7708  1.5443 -1.6129
23432SOL    HW277537   2.546   1.211   2.559  0.3138 -0.1126 -0.3900
23433SOL     OW77538   7.739   3.997   9.211 -0.1146 -0.3253  0.0715
23433SOL    HW177539   7.769   4.034   9.128 -2.6752  0.4862 -0.5883
23433SOL    HW277540   7.715   3.907   9.190 -0.8493 -0.0925 -0.1189
23434SOL     OW77541   9.276   5.207   3.215 -0.6503 -0.2973 -0.3957
23434SOL    HW177542   9.325   5.143   3.266  1.5120  1.8501  0.3717
23434SOL    HW277543   9.246   5.271   3.279 -0.4906  0.8739 -1.4609
23435SOL     OW77544   4.227   9.663  12.615  0.1394  0.0561  0.0606
23435SOL    HW177545   4.293   9.713  12.566  0.1045  0.9127  0.8522
23435SOL    HW277546   4.186   9.607  12.550  0.8636  0.3523 -0.6722
23436SOL     OW77547   3.570  12.411   8.271  0.2756 -0.4320  0.4514
23436SOL    HW177548   3.648  12.365   8.302  0.5155 -0.3753 -0.0596
23436SOL    HW277549   3.565  12.390   8.178  0.0214  0.0565  0.3508
23437SOL     OW77550   7.629  11.884   9.964 -0.0419 -0.4578  0.0127
23437SOL    HW177551   7.669  11.865  10.049 -0.6755 -0.8277  0.2410
23437SOL    HW277552   7.576  11.962   9.979  1.3792  0.6476 -0.5483
23438SOL     OW77553   8.120   2.119   3.179  0.0512  0.1067  0.0919
23438SOL    HW177554   8.077   2.204   3.166  0.4878  0.1004 -1.6662
23438SOL    HW277555   8.208   2.132   3.144  1.3086 -0.1077  2.9123
23439SOL     OW77556   6.009   2.166   9.911 -0.1793  0.2693  0.6829
23439SOL    HW177557   6.004   2.246   9.963 -0.7935  0.5540  0.1971
23439SOL    HW277558   6.096   2.170   9.871 -0.0778  0.5264  0.9158
23440SOL     OW77559   0.316   8.450   3.246 -0.0072 -0.0393  0.3814
23440SOL    HW177560   0.354   8.493   3.323 -1.5529 -1.0011  1.7454
23440SOL    HW277561   0.290   8.363   3.277 -0.3706 -0.5781 -1.3261
23441SOL     OW77562   5.116   2.546   1.919  0.5840 -0.1529 -0.1459
23441SOL    HW177563   5.121   2.628   1.968  0.8704  0.1480 -0.6726
23441SOL    HW277564   5.032   2.551   1.873  0.3410 -0.4104  0.2646
23442SOL     OW77565   7.629   1.177  10.849  0.1531  0.0057 -0.4069
23442SOL    HW177566   7.556   1.238  10.865  0.8666  0.8571 -0.3396
23442SOL    HW277567   7.657   1.198  10.760  0.9536  0.3661 -0.0738
23443SOL     OW77568   1.351   6.255   0.270 -0.7726 -0.0855  0.0040
23443SOL    HW177569   1.380   6.263   0.360 -0.5129 -0.0056 -0.0859
23443SOL    HW277570   1.426   6.219   0.223 -0.9952 -0.3855 -0.1292
23444SOL     OW77571   3.308   3.659   2.138  0.6102 -0.4783 -0.3551
23444SOL    HW177572   3.348   3.620   2.060  1.7725  0.8785 -0.4591
23444SOL    HW277573   3.295   3.751   2.115 -0.1266 -0.3222  0.6399
23445SOL     OW77574   4.439   9.363   2.816 -0.0990 -0.3226  0.1451
23445SOL    HW177575   4.497   9.418   2.762  2.1458 -1.8598  0.8594
23445SOL    HW277576   4.492   9.339   2.892 -1.2269 -2.8820  0.2241
23446SOL     OW77577  11.791   8.848   2.773  0.2396  0.6189 -0.3058
23446SOL    HW177578  11.827   8.782   2.714 -0.0996  0.3304 -0.1878
23446SOL    HW277579  11.831   8.930   2.744  0.1920  0.4549 -0.8337
23447SOL     OW77580  10.219   4.357   4.192 -0.3329 -0.1553 -0.1260
23447SOL    HW177581  10.291   4.335   4.132 -0.4325 -1.2124  0.1129
23447SOL    HW277582  10.244   4.315   4.274 -0.3704  0.9832  0.4866
23448SOL     OW77583  10.431  11.079   7.435  0.3332 -0.0389 -0.2344
23448SOL    HW177584  10.481  11.105   7.358  1.5807 -2.4841 -0.3157
23448SOL    HW277585  10.375  11.155   7.454  2.4740  1.9534 -1.4397
23449SOL     OW77586  11.655  10.334   6.412  0.1760  0.6521  0.4596
23449SOL    HW177587  11.712  10.409   6.427 -0.8124  1.1666  1.9233
23449SOL    HW277588  11.572  10.359   6.453 -0.5525 -0.7630 -0.0853
23450SOL     OW77589   2.809   6.789  12.290  0.0796 -0.6889 -0.4418
23450SOL    HW177590   2.769   6.751  12.212 -1.6871  0.3925 -0.1196
23450SOL    HW277591   2.757   6.755  12.363  1.0166 -0.8120  0.1902
23451SOL     OW77592   3.517  11.669   4.979 -0.2016  0.0481 -0.3165
23451SOL    HW177593   3.589  11.679   5.041  0.2122  0.0125 -0.7850
23451SOL    HW277594   3.536  11.733   4.910 -0.5025 -0.1062 -0.5456
23452SOL     OW77595   9.659  11.345   7.952  0.1110  0.3028 -0.1199
23452SOL    HW177596   9.575  11.322   7.913  0.5534  1.7663 -2.0942
23452SOL    HW277597   9.636  11.396   8.030 -0.8790  1.2465 -0.9830
23453SOL     OW77598  12.406   4.356  12.406  0.0723  0.3342 -0.1260
23453SOL    HW177599  12.351   4.370  12.483 -1.2375  0.0787 -0.9873
23453SOL    HW277600  12.494   4.382  12.434 -0.8708  3.1161  0.5807
23454SOL     OW77601   0.937   6.481   4.902 -0.1359  0.4197  0.0296
23454SOL    HW177602   0.866   6.470   4.966  1.5158 -1.5877  1.6748
23454SOL    HW277603   0.988   6.555   4.934  1.1046 -1.0257  1.5774
23455SOL     OW77604   6.192   3.654   4.489 -0.6608 -0.6980 -0.2369
23455SOL    HW177605   6.100   3.654   4.515 -0.7729 -0.8039 -0.6163
23455SOL    HW277606   6.204   3.737   4.443 -0.6460 -0.8165 -0.4488
23456SOL     OW77607   6.787  10.927   4.044 -0.4255  0.0885  0.2669
23456SOL    HW177608   6.730  11.002   4.031 -0.7720 -0.4101 -1.3505
23456SOL    HW277609   6.875  10.964   4.047 -0.7166  0.7317  1.5091
23457SOL     OW77610   1.261   9.759   0.378  0.0151  0.0557 -0.2798
23457SOL    HW177611   1.261   9.745   0.283 -1.0651  0.1249 -0.3054
23457SOL    HW277612   1.240   9.673   0.415 -1.2360  0.3767 -0.1941
23458SOL     OW77613   8.595   6.584   2.087 -0.1440  0.6087 -0.1374
23458SOL    HW177614   8.546   6.666   2.094  0.8285  1.2552 -0.6186
23458SOL    HW277615   8.683   6.611   2.063  0.4587 -0.5230  0.6800
23459SOL     OW77616   3.643   0.595   2.815  0.0949  0.2450 -0.2868
23459SOL    HW177617   3.591   0.570   2.891  0.7384  0.5458  0.2707
23459SOL    HW277618   3.705   0.523   2.804 -0.3257 -0.0318 -0.8386
23460SOL     OW77619   4.660   0.784  11.900  0.2515  0.3794  0.0805
23460SOL    HW177620   4.644   0.691  11.916  0.4959  0.1770 -0.8247
23460SOL    HW277621   4.725   0.786  11.830 -0.2050  1.2373 -0.3391
23461SOL     OW77622   4.357   4.474  11.458  0.2839 -0.3996  0.1400
23461SOL    HW177623   4.426   4.426  11.504  0.7495 -0.2337 -0.3840
23461SOL    HW277624   4.334   4.418  11.384 -0.6001 -0.7548  0.6614
23462SOL     OW77625  11.064   2.338   4.660  0.8537  0.4558  0.2788
23462SOL    HW177626  11.131   2.386   4.709  1.2138 -0.5727  0.8320
23462SOL    HW277627  10.981   2.367   4.698  0.9687  1.8056 -0.4704
23463SOL     OW77628  11.719   5.710   2.137 -0.9594  0.6341  1.0907
23463SOL    HW177629  11.624   5.703   2.135 -0.9952  0.7168  1.9883
23463SOL    HW277630  11.743   5.737   2.048 -1.5389 -1.9300  0.0496
23464SOL     OW77631  11.978   7.711   3.672 -0.2980 -0.0193 -0.6268
23464SOL    HW177632  11.896   7.717   3.624 -1.6902  0.7457  1.7013
23464SOL    HW277633  11.952   7.693   3.762  2.0765  0.5325  0.2468
23465SOL     OW77634   1.714   4.587   9.207 -0.3440  0.6141 -0.2761
23465SOL    HW177635   1.704   4.594   9.302  0.3710  1.0060 -0.2221
23465SOL    HW277636   1.785   4.648   9.186 -0.8258  0.8945 -1.1236
23466SOL     OW77637   3.262   7.342   5.610  0.1300  0.6925 -0.0794
23466SOL    HW177638   3.171   7.368   5.617  1.0532  4.5143 -0.2370
23466SOL    HW277639   3.312   7.422   5.626  3.4842 -1.1128 -0.4422
23467SOL     OW77640   0.905   7.309   2.777  0.0440  0.2047  0.3068
23467SOL    HW177641   0.949   7.369   2.838  0.3701  0.2331  0.0467
23467SOL    HW277642   0.840   7.364   2.733  0.6703  0.4917 -0.2785
23468SOL     OW77643  10.357   6.664   3.782  0.0334  0.3131 -0.7411
23468SOL    HW177644  10.291   6.621   3.835 -0.0504 -1.2272 -2.0233
23468SOL    HW277645  10.413   6.709   3.845 -0.7083 -0.5380  0.5632
23469SOL     OW77646   5.907  12.389   1.000 -0.0188  0.4185 -0.1198
23469SOL    HW177647   5.848  12.446   1.049 -0.3934 -0.5090  0.5370
23469SOL    HW277648   5.961  12.347   1.067  2.0837  1.9426 -0.7544
23470SOL     OW77649   8.943  12.034   6.664  0.1524  0.2561 -0.1058
23470SOL    HW177650   8.915  11.945   6.684 -1.0678  0.6579  0.0956
23470SOL    HW277651   8.908  12.086   6.736  0.1935  1.0035 -0.6153
23471SOL     OW77652  12.064   0.427   8.763 -0.1562  0.1019  0.0654
23471SOL    HW177653  11.993   0.457   8.707 -0.6408 -1.0494  0.0285
23471SOL    HW277654  12.126   0.500   8.765  0.2994 -0.1075 -2.6617
23472SOL     OW77655   7.722   9.897   1.339 -0.7249  0.2751 -0.1242
23472SOL    HW177656   7.703   9.930   1.427  0.6318 -2.2974  1.2398
23472SOL    HW277657   7.642   9.851   1.313 -0.6469 -0.1469  0.3735
23473SOL     OW77658   7.597   5.869   5.310 -0.4561 -0.4192  0.2152
23473SOL    HW177659   7.684   5.908   5.312  0.0071 -1.4494  2.1845
23473SOL    HW277660   7.568   5.880   5.219  1.5887  0.1924 -0.4128
23474SOL     OW77661   9.764   5.231  10.679 -0.4469  0.1082 -0.1018
23474SOL    HW177662   9.795   5.142  10.695 -0.3599  0.0121 -0.7453
23474SOL    HW277663   9.837   5.274  10.632 -0.6006  0.4241 -0.0553
23475SOL     OW77664   6.881   7.490   7.612 -0.6188  0.2240 -0.1947
23475SOL    HW177665   6.906   7.436   7.536 -3.2196 -0.0767 -0.9521
23475SOL    HW277666   6.898   7.580   7.584  1.6355 -0.0244  0.2182
23476SOL     OW77667   1.942   1.052   2.243 -0.2092 -0.1157  0.1218
23476SOL    HW177668   1.926   1.025   2.153 -0.0915  1.6339 -0.4580
23476SOL    HW277669   2.013   1.115   2.237 -1.8328  1.9389  1.0985
23477SOL     OW77670   7.875  12.535   6.693  0.1928  0.0617  0.0149
23477SOL    HW177671   7.879  12.495   6.780  0.1103 -0.7757 -0.3597
23477SOL    HW277672   7.952  12.591   6.689  2.0562 -2.3942 -0.5657
23478SOL     OW77673   3.697   7.154   5.103 -0.3960 -0.1327  0.4615
23478SOL    HW177674   3.770   7.216   5.099  0.5922 -1.3399 -1.2675
23478SOL    HW277675   3.636   7.184   5.036 -1.4854  0.8058  1.8245
23479SOL     OW77676  10.742  11.520   7.417  0.3869  0.3629 -0.4938
23479SOL    HW177677  10.718  11.436   7.378 -0.9791  0.6303 -0.2615
23479SOL    HW277678  10.766  11.574   7.342  1.0449 -0.1388 -0.6640
23480SOL     OW77679   6.409   8.563   6.381  0.0203  0.1063 -0.5711
23480SOL    HW177680   6.444   8.581   6.467  1.1936  0.1061 -1.0384
23480SOL    HW277681   6.317   8.542   6.397 -0.1308  1.4609  0.5150
23481SOL     OW77682   9.941   1.193   5.394  0.4182 -0.4782 -0.3606
23481SOL    HW177683  10.032   1.222   5.382 -0.0372  2.0228  1.3622
23481SOL    HW277684   9.906   1.185   5.305  1.4954  1.5347 -1.0283
23482SOL     OW77685  11.307  10.957   7.574 -0.9003  0.4413  0.2995
23482SOL    HW177686  11.367  11.032   7.571  0.0828 -0.3138  0.2892
23482SOL    HW277687  11.337  10.906   7.649 -1.4107 -0.0534  0.1709
23483SOL     OW77688   9.486   1.313   9.920  0.2622  0.4109  0.4504
23483SOL    HW177689   9.517   1.251   9.986  0.1318 -1.1361 -0.8860
23483SOL    HW277690   9.562   1.367   9.898  0.7959 -0.3217  0.4966
23484SOL     OW77691  10.911   6.485   3.345 -0.1088  0.1236  0.1863
23484SOL    HW177692  10.830   6.535   3.355 -1.8723 -2.4447 -0.2261
23484SOL    HW277693  10.968   6.541   3.293 -0.4750  3.1603  2.7617
23485SOL     OW77694   2.978   4.441  11.222  0.3245  0.0879 -0.1747
23485SOL    HW177695   2.977   4.355  11.263  0.2420  0.2385  0.1474
23485SOL    HW277696   3.060   4.445  11.174  0.1103 -0.3495 -0.5782
23486SOL     OW77697  10.064   3.171   8.970  0.7385 -0.2628  0.4761
23486SOL    HW177698  10.037   3.238   9.033  0.1615  1.2282 -1.2867
23486SOL    HW277699   9.985   3.121   8.952  1.1202 -1.3495  1.6192
23487SOL     OW77700   8.410   0.280  11.556  0.6967  0.0543  0.2724
23487SOL    HW177701   8.424   0.374  11.572 -0.8730  0.3415  0.1348
23487SOL    HW277702   8.415   0.271  11.461  0.7496  0.0056  0.2798
23488SOL     OW77703   9.422   2.553  10.769 -0.0623  0.3058 -0.0189
23488SOL    HW177704   9.512   2.534  10.743  0.2426  0.9961  0.5069
23488SOL    HW277705   9.392   2.619  10.707  0.0317  0.5811  0.2251
23489SOL     OW77706   3.046   9.954   4.628  0.3876  0.9242 -0.4070
23489SOL    HW177707   3.031   9.918   4.715  1.6557  0.7757 -0.2278
23489SOL    HW277708   3.050   9.877   4.571  3.0031  0.6916 -0.0384
23490SOL     OW77709   1.516   5.233   1.904  0.6048  0.2894  0.2932
23490SOL    HW177710   1.460   5.291   1.956 -1.1280 -1.1546  0.1461
23490SOL    HW277711   1.568   5.185   1.968 -2.3686 -2.3600  0.9883
23491SOL     OW77712   0.446   9.793   2.657 -0.2379  0.3410  0.3877
23491SOL    HW177713   0.450   9.743   2.576  2.2458 -2.0347  1.7744
23491SOL    HW277714   0.365   9.765   2.699 -0.0690 -0.7144  0.0357
23492SOL     OW77715   6.272   1.607   5.401  0.2338  0.4038 -0.2874
23492SOL    HW177716   6.305   1.697   5.410  0.4587  0.2520  0.5678
23492SOL    HW277717   6.289   1.567   5.487 -0.0940 -0.3798 -0.5772
23493SOL     OW77718   4.586   7.561   2.207 -0.0230  0.0762 -0.3597
23493SOL    HW177719   4.573   7.612   2.128  1.3070  0.0914 -0.6028
23493SOL    HW277720   4.499   7.554   2.247 -0.8789 -0.6633 -2.2450
23494SOL     OW77721   5.203  12.390   8.581  0.2871 -0.1517 -1.4427
23494SOL    HW177722   5.148  12.455   8.537  0.8880  1.1639 -0.3197
23494SOL    HW277723   5.159  12.374   8.664  1.6236  1.0334 -0.4632
23495SOL     OW77724  10.323   5.148   0.192  0.1711  0.7967 -0.1142
23495SOL    HW177725  10.350   5.163   0.283 -0.2816 -0.1228  0.1792
23495SOL    HW277726  10.308   5.236   0.157  1.8887  1.2579  0.2124
23496SOL     OW77727   9.072   0.854   4.818  0.4567 -0.5950  0.0670
23496SOL    HW177728   9.094   0.947   4.809 -0.9524  0.0337  2.2635
23496SOL    HW277729   9.058   0.842   4.912 -0.6428 -2.7396 -0.3106
23497SOL     OW77730  10.963   2.751   6.271 -0.1905 -1.0255  0.8749
23497SOL    HW177731  10.958   2.700   6.190  1.2584  0.6336 -0.3754
23497SOL    HW277732  10.991   2.689   6.338  0.3526 -2.1165 -0.3211
23498SOL     OW77733   6.044   4.074   5.182  0.6511  0.0227 -0.6507
23498SOL    HW177734   5.981   4.143   5.204  1.9668  0.9475  0.3435
23498SOL    HW277735   6.089   4.055   5.264 -1.0296 -3.5463 -0.3665
23499SOL     OW77736  10.417   1.946   1.144 -0.3001  0.5625  0.1749
23499SOL    HW177737  10.445   1.859   1.115 -1.3862 -0.1436  1.1374
23499SOL    HW277738  10.378   1.986   1.067  0.0384  0.1261 -0.2292
23500SOL     OW77739   3.567   8.821   0.831 -0.5305 -0.2808 -0.1826
23500SOL    HW177740   3.612   8.889   0.881 -0.4509 -0.4538 -0.0189
23500SOL    HW277741   3.535   8.866   0.753 -2.3438  0.4261  0.9137
23501SOL     OW77742   2.711   3.477   6.510  0.1608 -0.1945 -1.2094
23501SOL    HW177743   2.726   3.436   6.596 -1.8011  1.2599 -0.0799
23501SOL    HW277744   2.631   3.435   6.478 -0.0138  0.4130 -1.5675
23502SOL     OW77745   8.458  11.607   0.621  0.0523 -1.0151 -0.2675
23502SOL    HW177746   8.431  11.515   0.619 -2.0693 -0.4440 -0.0759
23502SOL    HW277747   8.424  11.644   0.540 -1.1494  0.1115  0.7215
23503SOL     OW77748   3.006   3.516   4.285  0.0084  0.1417 -0.6446
23503SOL    HW177749   3.062   3.441   4.265  0.4701  0.6602 -1.3692
23503SOL    HW277750   3.022   3.534   4.377 -0.2076 -0.7213 -0.4275
23504SOL     OW77751   2.678  12.491   8.216  0.4429 -0.6960 -0.1473
23504SOL    HW177752   2.728  12.550   8.271 -1.6399  0.7010  0.3601
23504SOL    HW277753   2.679  12.532   8.129  0.4004 -0.7992 -0.1974
23505SOL     OW77754   7.205   9.963   0.734  0.3383 -0.9827  0.2543
23505SOL    HW177755   7.126   9.941   0.684  0.5613 -1.1977 -0.0020
23505SOL    HW277756   7.173  10.020   0.804  0.0421 -0.5877 -0.1943
23506SOL     OW77757   9.795   4.057  11.351 -0.4541 -0.2243 -0.1862
23506SOL    HW177758   9.846   3.977  11.334  2.3959  1.3998 -0.0115
23506SOL    HW277759   9.829   4.088  11.435 -1.9845  0.8524  0.0692
23507SOL     OW77760   6.992   3.019   4.603  0.1489 -0.2387 -0.4385
23507SOL    HW177761   6.941   2.945   4.571 -0.7132  0.2133 -0.1330
23507SOL    HW277762   6.982   3.086   4.536  0.4750 -0.1973 -0.4494
23508SOL     OW77763   7.762  11.176   2.901  0.7715  0.6321  0.0305
23508SOL    HW177764   7.771  11.119   2.977 -3.7798 -0.4214  0.0452
23508SOL    HW277765   7.736  11.118   2.830  1.0593  2.0951 -1.3408
23509SOL     OW77766   9.527  10.965   2.091 -0.2351  0.5759  0.8577
23509SOL    HW177767   9.432  10.964   2.081 -0.1731 -1.7261 -0.2038
23509SOL    HW277768   9.553  11.054   2.070 -1.9034  0.5022 -1.9119
23510SOL     OW77769   1.582  12.614   1.426 -0.1370  0.3583  0.1861
23510SOL    HW177770   1.525  12.575   1.360 -2.1999  0.0782  2.0256
23510SOL    HW277771   1.538  12.597   1.509  2.2142  0.9179  1.6545
23511SOL     OW77772   3.298   4.517   7.010 -0.1924 -0.0633 -0.2407
23511SOL    HW177773   3.259   4.580   7.071 -0.7711 -1.0566  0.4487
23511SOL    HW277774   3.392   4.537   7.011  0.0272 -0.9018  2.0522
23512SOL     OW77775   6.468   3.807   4.262  0.2795  0.1015 -0.1757
23512SOL    HW177776   6.450   3.717   4.236  0.1725 -0.0602  0.4265
23512SOL    HW277777   6.384   3.841   4.291  0.5778 -0.0961  1.0061
23513SOL     OW77778   6.425   2.182   1.634  0.2103  0.6882  0.3000
23513SOL    HW177779   6.510   2.193   1.676  0.7397 -1.9875  0.1249
23513SOL    HW277780   6.394   2.097   1.665 -2.2486  1.4206  0.0380
23514SOL     OW77781   7.331   3.989   2.834  0.5991 -0.0064 -0.4220
23514SOL    HW177782   7.252   3.934   2.835  1.0782 -0.7000  0.5032
23514SOL    HW277783   7.331   4.033   2.919  0.5008  1.0585 -0.9494
23515SOL     OW77784   9.394   4.185  11.372 -0.3995 -0.0442 -0.2054
23515SOL    HW177785   9.309   4.169  11.331 -1.0619 -1.0022  1.4445
23515SOL    HW277786   9.445   4.231  11.305 -2.0925  0.2521 -1.3503
23516SOL     OW77787  11.595   3.959   5.514 -0.3712  0.8201 -0.5688
23516SOL    HW177788  11.674   3.926   5.556 -1.1965  0.2960  0.6468
23516SOL    HW277789  11.625   3.998   5.433  0.8945 -1.2598 -1.1855
23517SOL     OW77790  10.914   8.900  11.876  0.0353  0.4606  0.0162
23517SOL    HW177791  10.881   8.978  11.831  1.5639  2.7992  2.6066
23517SOL    HW277792  10.839   8.866  11.924  0.0762  2.7419  1.8950
23518SOL     OW77793   3.321  11.950   4.684  0.0449  0.3015  0.5234
23518SOL    HW177794   3.258  11.977   4.618  2.1874  1.9187 -1.0293
23518SOL    HW277795   3.289  11.989   4.765 -0.6027  1.6959 -0.3621
23519SOL     OW77796   3.804   7.644  11.036 -0.3023  0.1135  0.2287
23519SOL    HW177797   3.726   7.589  11.031  0.8388 -1.4710 -1.2994
23519SOL    HW277798   3.876   7.582  11.041  0.9952  1.4926 -0.7295
23520SOL     OW77799   9.805   5.035   4.698 -0.9787  0.0827  0.2018
23520SOL    HW177800   9.821   5.029   4.604 -1.4606  1.3086  0.0250
23520SOL    HW277801   9.739   4.968   4.715  1.5083 -2.5174  0.3180
23521SOL     OW77802   6.486   3.398   2.311  0.4624 -0.4973  0.0449
23521SOL    HW177803   6.501   3.333   2.380 -1.3852  0.0049  0.9813
23521SOL    HW277804   6.406   3.369   2.267 -0.1768  0.9158  0.2275
23522SOL     OW77805   3.471   3.544   3.532  0.5950  0.1265 -0.1124
23522SOL    HW177806   3.453   3.469   3.476 -0.4203  0.7585 -0.6814
23522SOL    HW277807   3.536   3.595   3.485  0.9971 -0.1952  0.0917
23523SOL     OW77808   9.927   2.715   9.233  0.5984 -0.1829  0.1915
23523SOL    HW177809   9.844   2.747   9.267  1.8121  0.3624  2.8835
23523SOL    HW277810   9.940   2.631   9.276  1.0980 -0.6539 -0.8351
23524SOL     OW77811   0.880  11.568   3.350 -0.3587  0.2378 -0.0802
23524SOL    HW177812   0.844  11.519   3.424  1.5709  0.8887  1.3662
23524SOL    HW277813   0.969  11.536   3.340  0.0920  1.6124 -0.7845
23525SOL     OW77814   3.431   3.526  10.527 -0.0409  0.0614  0.3972
23525SOL    HW177815   3.425   3.433  10.548  1.3334 -0.7064 -2.1786
23525SOL    HW277816   3.446   3.529  10.433  0.7317  2.8693  0.5009
23526SOL     OW77817   7.719  11.563   6.377  0.2837 -0.2111  0.0485
23526SOL    HW177818   7.774  11.485   6.374  1.6152  0.4679  2.9048
23526SOL    HW277819   7.753  11.619   6.307  1.1950 -1.0252 -0.1871
23527SOL     OW77820   2.984   7.593   7.440  0.1611  0.1429  0.2261
23527SOL    HW177821   3.064   7.610   7.490  0.7823  0.6983 -0.9174
23527SOL    HW277822   2.990   7.500   7.417  1.5192  0.6034 -1.5350
23528SOL     OW77823  11.489   8.883   2.801  0.1096  0.2301  0.0729
23528SOL    HW177824  11.563   8.829   2.827 -1.0429 -3.1045 -2.6664
23528SOL    HW277825  11.520   8.932   2.724 -0.0148  0.2150  0.0123
23529SOL     OW77826  12.420   8.788   5.957  0.0440 -0.4817 -0.3937
23529SOL    HW177827  12.417   8.726   5.885 -1.3838 -2.5618  1.3187
23529SOL    HW277828  12.352   8.758   6.017  0.8644  1.4067  1.6221
23530SOL     OW77829   8.025   8.313  11.658 -0.6210  0.0199  0.3092
23530SOL    HW177830   8.042   8.224  11.690  0.7991  0.2194  0.1597
23530SOL    HW277831   8.095   8.366  11.695 -0.4956  0.7589 -0.9330
23531SOL     OW77832   3.535   4.215   7.647  0.8161 -0.4301  0.3835
23531SOL    HW177833   3.480   4.156   7.700  1.0239 -0.1146  0.9584
23531SOL    HW277834   3.520   4.301   7.685  1.3226 -0.2685  0.2125
23532SOL     OW77835   9.307   9.174   8.135  0.1737  0.6442  0.3622
23532SOL    HW177836   9.271   9.219   8.059  0.7618 -0.4835 -0.6115
23532SOL    HW277837   9.319   9.243   8.200 -1.2366  1.4749 -0.2049
23533SOL     OW77838  11.448   1.777   4.808 -0.3027  0.0766  0.5791
23533SOL    HW177839  11.423   1.870   4.805  0.2727  0.3080  1.9616
23533SOL    HW277840  11.413   1.746   4.891  0.9168 -0.5048  0.8978
23534SOL     OW77841   3.852   4.998   0.444  0.3547  0.4377 -0.0368
23534SOL    HW177842   3.801   4.921   0.469 -0.4798  1.8210  3.0377
23534SOL    HW277843   3.902   4.970   0.368 -0.6321 -2.8174  0.3520
23535SOL     OW77844   9.033  10.996  12.034  0.2144  0.3894 -0.6049
23535SOL    HW177845   9.044  11.076  12.086 -1.3642 -1.0087  2.0890
23535SOL    HW277846   8.952  11.010  11.985 -0.0498  0.4294 -0.1531
23536SOL     OW77847  12.566   5.786   0.965  0.3031 -0.0812 -0.2029
23536SOL    HW177848  12.623   5.743   0.900 -1.1624 -1.6329 -0.5104
23536SOL    HW277849  12.626   5.810   1.036  1.6288 -0.0569 -1.2713
23537SOL     OW77850   2.660   0.475   6.318  0.0348  0.0829 -0.2399
23537SOL    HW177851   2.751   0.457   6.343 -0.0679 -0.3880 -0.1863
23537SOL    HW277852   2.660   0.566   6.289  0.5659  0.0267 -0.4238
23538SOL     OW77853  12.515   8.187  10.203 -0.4440  0.0020 -0.1385
23538SOL    HW177854  12.513   8.185  10.108 -1.5542 -0.4390 -0.1208
23538SOL    HW277855  12.561   8.268  10.225 -0.5386  0.3094 -1.0554
23539SOL     OW77856   5.634   6.215  10.404 -0.3270 -0.2219 -0.4823
23539SOL    HW177857   5.645   6.300  10.446  0.6887 -0.7807  0.4315
23539SOL    HW277858   5.576   6.232  10.330 -1.4879  0.9520  0.6413
23540SOL     OW77859   1.915   5.240   6.727  0.0237 -0.2586 -0.2492
23540SOL    HW177860   1.878   5.158   6.761 -0.0985 -0.5264 -1.0009
23540SOL    HW277861   2.009   5.233   6.744  0.1367 -0.9529 -1.0817
23541SOL     OW77862   3.807   0.145   8.311 -0.4536 -0.3491 -0.5626
23541SOL    HW177863   3.733   0.085   8.323  0.7082 -1.4746  1.5979
23541SOL    HW277864   3.770   0.232   8.325 -1.2679 -0.9402  1.1644
23542SOL     OW77865   8.058   3.901   2.836  0.5257 -0.6177  0.2702
23542SOL    HW177866   7.975   3.936   2.869  1.0186 -0.4610  1.3892
23542SOL    HW277867   8.046   3.897   2.741 -0.8119 -0.7420  0.4230
23543SOL     OW77868   6.336   6.269   9.379 -0.3521  0.6006  0.4441
23543SOL    HW177869   6.343   6.173   9.384  0.0318  0.5491 -0.7522
23543SOL    HW277870   6.241   6.285   9.383 -0.4287  0.1634  0.5313
23544SOL     OW77871   9.828   0.358   7.922  0.2562 -0.2715  0.0113
23544SOL    HW177872   9.848   0.275   7.879 -1.0052 -1.7365  2.0897
23544SOL    HW277873   9.760   0.397   7.866  0.0892 -1.1488 -0.4174
23545SOL     OW77874   9.363  12.272   5.234  0.5536  0.9912 -0.1306
23545SOL    HW177875   9.291  12.324   5.270  0.4323  0.3007  0.6499
23545SOL    HW277876   9.430  12.276   5.303  1.8422  2.7547 -1.3786
23546SOL     OW77877  12.514   5.395  12.597 -0.3986 -0.1415 -0.1343
23546SOL    HW177878  12.540   5.473  12.548  0.5345 -0.5066 -0.2336
23546SOL    HW277879  12.582   5.331  12.578 -1.0347 -0.9078  0.1365
23547SOL     OW77880   6.923   5.001   4.964  0.3990 -0.1367  0.4139
23547SOL    HW177881   6.990   5.014   5.031 -0.5461 -0.1187  1.3826
23547SOL    HW277882   6.923   4.907   4.948 -1.2498 -0.5805  2.5168
23548SOL     OW77883   5.587   4.988   0.646 -0.0191 -0.5793  0.1324
23548SOL    HW177884   5.677   5.018   0.640 -0.3118  0.2158 -0.4788
23548SOL    HW277885   5.573   4.938   0.565 -1.0245  1.8950 -1.3268
23549SOL     OW77886   4.917   0.907  11.510 -0.0242 -0.4035  0.1809
23549SOL    HW177887   4.904   0.970  11.440 -1.3105  0.2793  1.0023
23549SOL    HW277888   4.996   0.859  11.484  0.2845  0.7070 -1.0616
23550SOL     OW77889  10.646   9.533   7.457 -0.0374  0.1962  0.0465
23550SOL    HW177890  10.651   9.628   7.449 -0.5612  0.1316 -1.4381
23550SOL    HW277891  10.591   9.506   7.384 -2.1697 -1.0446  1.9983
23551SOL     OW77892   0.865   1.465   2.939  0.3251 -1.0579 -0.2419
23551SOL    HW177893   0.923   1.440   3.011 -0.4797 -1.0078  0.4328
23551SOL    HW277894   0.822   1.545   2.969  1.0972 -0.1694 -1.4067
23552SOL     OW77895   1.938  11.623   5.563  0.5841 -0.0178  0.2252
23552SOL    HW177896   1.872  11.691   5.575  1.3225  0.7026  0.2482
23552SOL    HW277897   1.887  11.543   5.546 -0.2592  0.8133 -1.2714
23553SOL     OW77898   9.604   7.361  11.065  0.3334 -0.3374 -0.0009
23553SOL    HW177899   9.600   7.267  11.083 -1.6102 -0.8385 -2.4704
23553SOL    HW277900   9.651   7.367  10.982  2.6722  1.1799  1.3216
23554SOL     OW77901  10.251   5.770   1.025 -0.1529 -0.1838  0.0269
23554SOL    HW177902  10.305   5.784   1.103  0.6108  0.2873 -0.5827
23554SOL    HW277903  10.166   5.807   1.049  0.8297  2.5488 -0.2882
23555SOL     OW77904  10.005   2.740  10.561  0.7483 -0.4336 -0.3436
23555SOL    HW177905   9.931   2.801  10.566  1.1274 -0.0387  2.6761
23555SOL    HW277906  10.082   2.797  10.559  1.0896 -0.7101  2.0604
23556SOL     OW77907   6.953   0.063   9.480  0.9855 -0.2939  0.4621
23556SOL    HW177908   6.970   0.016   9.562 -0.3696  1.0162  1.5682
23556SOL    HW277909   6.932   0.152   9.508  0.9315  0.3029 -1.3672
23557SOL     OW77910   0.901   6.010  10.541 -0.2805  0.6479  0.1483
23557SOL    HW177911   0.842   5.976  10.608 -0.4427  1.7108  0.5664
23557SOL    HW277912   0.906   5.940  10.476 -2.1328  0.5752  0.0173
23558SOL     OW77913   0.402  10.089   8.914 -0.1612 -0.5032 -0.3688
23558SOL    HW177914   0.394   9.999   8.883  1.0514 -0.1412 -1.8364
23558SOL    HW277915   0.365  10.143   8.845  0.8210  0.2146 -0.3675
23559SOL     OW77916   6.042  11.182  11.147  0.2348 -0.0450 -0.1950
23559SOL    HW177917   6.061  11.233  11.069  0.1733 -0.4807 -0.4995
23559SOL    HW277918   6.004  11.101  11.114 -1.8335  0.6407  0.3806
23560SOL     OW77919   0.509   1.678   9.196  0.3572 -0.1586  0.3737
23560SOL    HW177920   0.501   1.594   9.150 -0.8205 -1.3951  2.6474
23560SOL    HW277921   0.421   1.715   9.192  0.9022  1.1040 -0.7296
23561SOL     OW77922  12.244   7.966   8.030  0.0132 -0.3480  0.3542
23561SOL    HW177923  12.194   7.887   8.049 -0.4384 -0.5821 -1.6113
23561SOL    HW277924  12.328   7.935   7.997  0.0956  0.0158  0.2153
23562SOL     OW77925  10.697   0.874   4.361 -0.4252 -0.6854 -0.6156
23562SOL    HW177926  10.646   0.793   4.355 -0.1906 -0.7929 -1.1591
23562SOL    HW277927  10.705   0.904   4.271 -2.3059  1.0801 -0.2839
23563SOL     OW77928   6.690   1.084   1.589 -0.0178 -0.5341  0.1969
23563SOL    HW177929   6.729   1.149   1.531 -0.2819 -0.4027  0.1619
23563SOL    HW277930   6.722   1.107   1.677 -1.2484  0.5373  0.3946
23564SOL     OW77931  11.088   9.396  11.908  0.2318 -0.3650 -0.1233
23564SOL    HW177932  11.083   9.313  11.860 -0.6775 -0.2282 -0.2945
23564SOL    HW277933  11.172   9.434  11.883 -0.3641 -0.1427 -1.8727
23565SOL     OW77934   3.829   8.102  11.336 -0.0320  0.3317 -0.1095
23565SOL    HW177935   3.868   8.020  11.305 -0.5504 -0.5284  1.3879
23565SOL    HW277936   3.820   8.156  11.257  1.8851 -0.3703 -0.8737
23566SOL     OW77937   2.352   8.240   1.466  0.5284 -0.4322 -0.4443
23566SOL    HW177938   2.345   8.294   1.545 -0.9048 -1.3304  0.0938
23566SOL    HW277939   2.280   8.271   1.411  0.5839 -0.8219 -0.7369
23567SOL     OW77940   8.079  10.769   3.010 -0.0563  0.2831 -0.5651
23567SOL    HW177941   8.087  10.701   3.077  1.8893  2.0694  1.1449
23567SOL    HW277942   7.990  10.760   2.977 -1.5069 -0.0533  3.0063
23568SOL     OW77943   8.438   0.957   7.295 -0.1124  0.1160 -0.1702
23568SOL    HW177944   8.506   0.934   7.358 -0.3950  2.2109  0.9829
23568SOL    HW277945   8.464   0.913   7.214  1.7236 -0.4598  0.6921
23569SOL     OW77946   5.079   8.169  10.554  0.2421 -0.0767 -0.6074
23569SOL    HW177947   5.018   8.231  10.593  0.8833 -0.0577  0.4113
23569SOL    HW277948   5.098   8.107  10.624  0.1295 -1.0415 -1.4116
23570SOL     OW77949  11.230  10.305   4.310 -0.1944 -0.1383 -0.5035
23570SOL    HW177950  11.150  10.274   4.267 -1.4705  0.6498  1.2030
23570SOL    HW277951  11.227  10.267   4.397  1.4227 -0.2531 -0.4731
23571SOL     OW77952   7.342   0.293   1.813 -0.0805  0.0767 -0.1462
23571SOL    HW177953   7.259   0.281   1.766  0.3785 -0.6559 -0.8078
23571SOL    HW277954   7.324   0.261   1.901 -0.4589 -0.2397 -0.3339
23572SOL     OW77955   8.202   3.673   1.439  0.2026 -0.1793 -0.8208
23572SOL    HW177956   8.191   3.578   1.425 -0.3941 -0.6290  2.1009
23572SOL    HW277957   8.119   3.701   1.478  1.0447  1.1812  0.0383
23573SOL     OW77958   2.952   1.185   1.025 -0.1072  0.1816  0.0609
23573SOL    HW177959   2.978   1.277   1.024  0.9578 -0.1009 -1.4118
23573SOL    HW277960   2.856   1.187   1.031 -0.0979  1.3759  0.0088
23574SOL     OW77961  11.942   3.567   8.048  0.2649  0.3992  0.6543
23574SOL    HW177962  12.003   3.629   8.007  1.2218  0.0521  1.4930
23574SOL    HW277963  11.999   3.495   8.079 -0.4848  0.3602  2.0151
23575SOL     OW77964   4.684   5.090   1.988 -0.1117 -0.4153 -0.5322
23575SOL    HW177965   4.674   5.177   1.950  0.6586 -0.0720  0.0287
23575SOL    HW277966   4.779   5.078   1.997 -0.2337 -1.0709 -0.0471
23576SOL     OW77967   8.578   9.830   8.783 -0.4119 -0.0084 -0.3628
23576SOL    HW177968   8.526   9.890   8.729 -1.5910 -1.3463 -0.7733
23576SOL    HW277969   8.523   9.752   8.793  0.7713 -0.7507  0.7699
23577SOL     OW77970  11.762  12.148   6.560  0.0135 -0.2363 -0.6132
23577SOL    HW177971  11.724  12.126   6.646 -0.7796  1.2519 -0.5567
23577SOL    HW277972  11.803  12.066   6.531 -1.3048 -1.2941  0.3453
23578SOL     OW77973  11.731   9.954  12.267  0.1351 -0.2871  0.1698
23578SOL    HW177974  11.715  10.009  12.344  0.0452  0.2545 -0.2281
23578SOL    HW277975  11.644   9.923  12.241  0.3330 -1.9719  1.3533
23579SOL     OW77976   3.844  12.063   4.013  0.4262 -0.2467  0.0528
23579SOL    HW177977   3.864  11.974   3.984  0.5580 -0.5730  1.1006
23579SOL    HW277978   3.930  12.101   4.034  0.2802 -0.3090  0.7997
23580SOL     OW77979   5.881   1.208   3.057 -0.3823 -0.1276 -0.4130
23580SOL    HW177980   5.887   1.216   3.152  3.6535 -2.5173 -0.2231
23580SOL    HW277981   5.938   1.278   3.024  0.5754 -1.1128 -0.8841
23581SOL     OW77982   0.244   3.881   1.950 -0.4021 -0.3565  0.3216
23581SOL    HW177983   0.153   3.892   1.978 -0.9961 -0.0044 -1.5719
23581SOL    HW277984   0.295   3.884   2.031 -1.9632  0.7011  1.3255
23582SOL     OW77985   3.904   7.806  12.018  0.7868  0.5843 -0.1964
23582SOL    HW177986   3.821   7.780  12.058  0.4165  3.1890  0.9139
23582SOL    HW277987   3.943   7.724  11.988 -0.6066 -1.1058  2.2898
23583SOL     OW77988  11.154   7.170   4.448 -0.2240 -0.0776  0.3200
23583SOL    HW177989  11.230   7.227   4.440 -0.1757 -0.2031 -0.1606
23583SOL    HW277990  11.125   7.156   4.358 -1.2276  0.5168  0.5314
23584SOL     OW77991   9.520   7.116   5.134 -0.7195  0.0415 -0.2400
23584SOL    HW177992   9.462   7.042   5.119 -0.9821  0.3850 -0.9666
23584SOL    HW277993   9.461   7.191   5.146 -0.4837  0.0364  1.1825
23585SOL     OW77994  12.594   9.584   3.437  0.0696  0.1002 -0.0782
23585SOL    HW177995  12.560   9.572   3.349 -1.0078  0.3638  0.2900
23585SOL    HW277996  12.661   9.651   3.428 -0.7718  0.8959 -0.5330
23586SOL     OW77997  12.482   2.119  12.664  0.3937  0.1630  0.0602
23586SOL    HW177998  12.398   2.142  12.703  0.5556 -0.7199  0.9757
23586SOL    HW277999  12.473   2.027  12.638  1.3078 -0.1873  0.8943
23587SOL     OW78000   1.607   8.998  12.252 -0.3733 -0.6235  0.2502
23587SOL    HW178001   1.682   8.999  12.192  0.6140  2.2500  1.3537
23587SOL    HW278002   1.646   9.001  12.339 -1.7462 -0.0493  0.8744
23588SOL     OW78003   2.880  12.406   9.931 -0.1388  0.3476  0.0489
23588SOL    HW178004   2.962  12.453   9.915 -0.4411  0.9378  0.1705
23588SOL    HW278005   2.813  12.473   9.920 -0.5798 -0.0551  0.2734
23589SOL     OW78006   5.381   0.484   3.772 -0.2824  0.6250  0.0929
23589SOL    HW178007   5.460   0.517   3.814 -0.9228  2.0305  0.2393
23589SOL    HW278008   5.358   0.551   3.707 -1.8225  0.6583  0.6323
23590SOL     OW78009   6.789  11.118   4.917  0.1287  0.5386 -0.5118
23590SOL    HW178010   6.727  11.094   4.848  0.2014  1.8573 -1.0692
23590SOL    HW278011   6.750  11.195   4.958 -1.1426 -1.5374  2.6044
23591SOL     OW78012   7.687   7.184   1.901  0.4687 -0.2138 -0.5539
23591SOL    HW178013   7.738   7.113   1.939 -0.6348 -1.2289 -0.8955
23591SOL    HW278014   7.751   7.240   1.859  1.4989 -0.2587  0.8858
23592SOL     OW78015   8.960   1.499   1.905  0.2590 -0.0508  0.1420
23592SOL    HW178016   8.871   1.480   1.935 -0.7551  1.0898 -1.8690
23592SOL    HW278017   8.963   1.595   1.900  1.6643 -0.0629  0.2598
23593SOL     OW78018   0.328   6.518  11.922 -0.4697 -0.3549 -0.1768
23593SOL    HW178019   0.326   6.440  11.977 -0.4690  1.0002  1.8243
23593SOL    HW278020   0.398   6.572  11.959 -1.7341  1.4431 -0.2802
23594SOL     OW78021   7.009  11.887   2.847 -0.2681 -0.3336 -0.4862
23594SOL    HW178022   7.006  11.793   2.862  0.0219 -0.1579  0.8215
23594SOL    HW278023   6.962  11.925   2.921  1.5715  0.6311  0.2570
23595SOL     OW78024   9.140   7.670   6.214 -0.2117  0.4561 -0.2569
23595SOL    HW178025   9.225   7.700   6.244 -0.2529  2.7058 -2.1766
23595SOL    HW278026   9.132   7.582   6.251  1.9985  0.9780  1.6929
23596SOL     OW78027  10.499  12.703   1.377  0.0394  0.2238  0.3012
23596SOL    HW178028  10.464  12.636   1.436 -1.0856  0.0186 -0.5605
23596SOL    HW278029  10.565  12.658   1.325 -1.0007 -0.3359 -0.5548
23597SOL     OW78030   1.587   7.295   2.706 -0.0878  0.4054 -0.0328
23597SOL    HW178031   1.507   7.320   2.660 -0.4240  0.6846  0.6903
23597SOL    HW278032   1.557   7.253   2.786  0.4886  0.4685  0.2231
23598SOL     OW78033   2.043   6.174  12.560 -0.1580  0.1914 -0.4935
23598SOL    HW178034   2.080   6.246  12.611 -0.3443 -0.2121  0.2365
23598SOL    HW278035   2.084   6.095  12.597 -1.7054 -0.2634  0.3194
23599SOL     OW78036   9.439  12.338   8.051  0.5727 -0.3882  0.1354
23599SOL    HW178037   9.449  12.361   7.958 -0.5648 -2.0966 -0.4469
23599SOL    HW278038   9.384  12.408   8.086 -0.5935 -0.7208 -0.9501
23600SOL     OW78039   1.787   3.149   3.410  0.5002 -0.3168 -0.2512
23600SOL    HW178040   1.770   3.121   3.320 -0.1252 -0.2682 -0.1564
23600SOL    HW278041   1.707   3.196   3.436  1.3512  1.1913 -0.2650
23601SOL     OW78042   2.947   0.505   1.115  0.3350  0.8134 -0.3460
23601SOL    HW178043   3.042   0.502   1.120  0.3530  1.9490  0.0783
23601SOL    HW278044   2.919   0.419   1.148  1.2427 -0.1842 -2.0387
23602SOL     OW78045   9.194   4.954   3.281  0.6371  0.5673 -0.1181
23602SOL    HW178046   9.124   4.889   3.283  1.2412 -0.0954  0.4393
23602SOL    HW278047   9.156   5.033   3.319 -0.0742  0.4995 -0.6855
23603SOL     OW78048   0.214   6.858   7.694  0.2646  0.0495 -0.4814
23603SOL    HW178049   0.191   6.939   7.739  0.9883  0.6433 -1.1374
23603SOL    HW278050   0.216   6.792   7.763 -0.4283  0.5626  0.0501
23604SOL     OW78051   2.180   5.467   9.521  0.5490 -0.0628  0.0965
23604SOL    HW178052   2.100   5.439   9.565  0.1025  1.2031  0.1328
23604SOL    HW278053   2.171   5.434   9.431 -0.1803  0.3581  0.0061
23605SOL     OW78054  11.544  11.386   7.022  0.0162  0.1115 -0.5643
23605SOL    HW178055  11.638  11.376   7.006  0.3106  1.6596  0.0106
23605SOL    HW278056  11.502  11.341   6.949  1.1408 -2.5060  0.3067
23606SOL     OW78057  10.069   2.393   0.400 -0.7473  0.6083  0.8801
23606SOL    HW178058  10.133   2.454   0.435  0.1584 -0.1503  0.5766
23606SOL    HW278059  10.040   2.433   0.317  2.6389 -1.0412 -1.3200
23607SOL     OW78060   1.393   1.304   5.303 -0.0943 -0.1423  0.3813
23607SOL    HW178061   1.386   1.227   5.248  0.8390 -1.5760  2.1452
23607SOL    HW278062   1.308   1.348   5.294 -0.7553 -1.5179 -0.4702
23608SOL     OW78063   5.365  11.314   8.361  0.1497 -0.0618 -0.0293
23608SOL    HW178064   5.418  11.239   8.390 -0.8073 -0.7765 -0.0575
23608SOL    HW278065   5.320  11.281   8.283  0.9825  1.1059 -1.0364
23609SOL     OW78066   1.756   0.454  11.429  0.5536 -0.8079  0.3485
23609SOL    HW178067   1.725   0.543  11.444  2.4176 -0.1256  0.4370
23609SOL    HW278068   1.727   0.433  11.340  1.1661  0.3944 -0.1561
23610SOL     OW78069   9.447  11.544   4.504  0.5638  0.1005  0.1726
23610SOL    HW178070   9.515  11.530   4.438 -0.9475  1.6292 -1.8098
23610SOL    HW278071   9.427  11.637   4.499 -1.5529 -0.2733  0.8372
23611SOL     OW78072   5.570   6.385   6.502 -0.1275 -0.0364  0.4270
23611SOL    HW178073   5.640   6.442   6.468 -0.0302 -0.9153 -0.9179
23611SOL    HW278074   5.615   6.303   6.521 -0.9458 -1.0404 -1.6363
23612SOL     OW78075  11.586   9.818   5.782  0.3162  0.2038 -0.2743
23612SOL    HW178076  11.651   9.826   5.851  0.0929  0.2866 -0.0718
23612SOL    HW278077  11.524   9.888   5.799 -0.6424 -0.7850  0.4163
23613SOL     OW78078   3.275   1.974  11.153  0.0773  0.3561  0.7103
23613SOL    HW178079   3.291   2.035  11.081  0.5421 -0.1296  0.3949
23613SOL    HW278080   3.258   1.890  11.110 -1.2415  0.4008  1.1166
23614SOL     OW78081   5.046  11.406   5.714  0.0877  0.0400 -0.5299
23614SOL    HW178082   5.040  11.344   5.642  2.0555  0.4452 -1.1073
23614SOL    HW278083   5.082  11.356   5.787 -2.0487 -0.4092  0.2905
23615SOL     OW78084   2.114   6.813  11.333 -0.6500 -0.4683  0.1231
23615SOL    HW178085   2.204   6.796  11.361  0.2424  1.3379 -1.4705
23615SOL    HW278086   2.073   6.855  11.409 -0.2029 -1.3890  0.8934
23616SOL     OW78087   0.639  11.780   9.524 -0.0081  0.0825 -0.4082
23616SOL    HW178088   0.721  11.732   9.532 -0.8267 -1.4194 -0.5779
23616SOL    HW278089   0.650  11.836   9.447  0.6462 -0.5477 -0.7768
23617SOL     OW78090   6.338  10.848   2.121 -0.6936 -0.1455 -0.4725
23617SOL    HW178091   6.255  10.802   2.135 -1.0746  0.5966 -0.2130
23617SOL    HW278092   6.387  10.791   2.063 -1.1096 -0.9285 -0.0857
23618SOL     OW78093   4.416  12.271   7.197  0.7445  0.2830  0.0225
23618SOL    HW178094   4.394  12.362   7.181  2.4262  0.5756 -0.9034
23618SOL    HW278095   4.488  12.274   7.261  1.9994 -0.2396 -1.2945
23619SOL     OW78096   3.284   7.425  11.085  0.0877 -0.3937 -0.0350
23619SOL    HW178097   3.289   7.408  11.179  0.1457 -0.5118 -0.0596
23619SOL    HW278098   3.274   7.520  11.079 -2.7272 -0.6037  0.2017
23620SOL     OW78099   4.259   1.520   3.970  0.1602  0.3597 -0.0620
23620SOL    HW178100   4.260   1.452   3.903 -1.3588  1.1479 -0.9346
23620SOL    HW278101   4.233   1.599   3.923 -1.5175  0.8176  1.5420
23621SOL     OW78102   1.740   5.240  11.190  0.5497 -0.0302 -0.1106
23621SOL    HW178103   1.703   5.156  11.164  0.9100 -0.0252 -0.6566
23621SOL    HW278104   1.828   5.219  11.223  0.8236  0.1798 -0.6902
23622SOL     OW78105   1.405   5.645   4.615 -0.3125  0.3523  0.1720
23622SOL    HW178106   1.411   5.549   4.615  1.0052  0.4060  1.3527
23622SOL    HW278107   1.338   5.664   4.550 -1.8788 -1.4417  1.1527
23623SOL     OW78108   3.411   5.676   5.223 -0.5063 -0.0874 -0.0793
23623SOL    HW178109   3.444   5.737   5.289 -0.0351 -0.7080  0.2742
23623SOL    HW278110   3.414   5.724   5.141 -2.1117  1.0828  0.4838
23624SOL     OW78111   0.942   9.506   8.150  0.3449  0.5631 -0.0309
23624SOL    HW178112   0.989   9.508   8.067 -0.2508 -0.8656 -0.4275
23624SOL    HW278113   0.851   9.523   8.126 -0.0654 -1.2203  0.1082
23625SOL     OW78114   5.654   3.550   2.188  0.2466  0.0684 -0.0385
23625SOL    HW178115   5.708   3.628   2.193  1.3529 -0.5773 -1.2411
23625SOL    HW278116   5.568   3.578   2.221 -0.2004  2.5301 -2.9048
23626SOL     OW78117   9.551   9.814  10.877 -0.4855 -0.0596  0.5963
23626SOL    HW178118   9.477   9.819  10.937 -0.7562 -1.1841  0.3817
23626SOL    HW278119   9.518   9.761  10.804  0.4882 -0.4524  0.4343
23627SOL     OW78120   5.080  12.092   3.461  0.5769 -0.4513 -0.3008
23627SOL    HW178121   5.005  12.151   3.468 -0.2032 -1.0939 -2.2983
23627SOL    HW278122   5.053  12.013   3.507 -0.0813 -0.7478 -1.1656
23628SOL     OW78123   9.935   1.770  11.119  0.0942 -0.1823 -0.0368
23628SOL    HW178124   9.977   1.803  11.040  0.4814 -1.1579 -0.2468
23628SOL    HW278125   9.997   1.789  11.189  0.1469 -0.1224 -0.1002
23629SOL     OW78126   4.716   2.096   4.530 -0.2643 -0.0818  0.3579
23629SOL    HW178127   4.755   2.113   4.444 -1.8982  0.5142 -0.2992
23629SOL    HW278128   4.712   2.001   4.535 -0.4502 -0.1254 -0.3862
23630SOL     OW78129   1.965   6.830   1.925  0.9702 -0.1424  0.1061
23630SOL    HW178130   1.902   6.890   1.965  0.1318 -1.2466  0.5227
23630SOL    HW278131   1.933   6.817   1.836  1.9519  1.1017 -0.4481
23631SOL     OW78132   1.567  11.794   6.488  0.1484  0.4899  0.8131
23631SOL    HW178133   1.480  11.755   6.484  0.9520 -1.3788  0.5403
23631SOL    HW278134   1.600  11.773   6.576  0.1716  1.5762  1.0811
23632SOL     OW78135   3.345  11.281  10.598  0.3809  0.4713 -0.7751
23632SOL    HW178136   3.435  11.279  10.566  0.7943 -0.6989  0.3779
23632SOL    HW278137   3.340  11.360  10.651  0.9181  0.1977 -0.3169
23633SOL     OW78138  10.453   7.787   5.724  0.0895  0.4664 -0.2666
23633SOL    HW178139  10.479   7.843   5.651  0.8926 -0.8718 -1.0556
23633SOL    HW278140  10.439   7.701   5.685 -0.5700 -0.0345  0.9919
23634SOL     OW78141   5.906   0.074  11.358 -0.1759 -0.6899 -0.5656
23634SOL    HW178142   5.952   0.030  11.286  1.1588 -1.3171  0.6320
23634SOL    HW278143   5.947   0.041  11.437 -2.4627 -0.9962  0.5859
23635SOL     OW78144   1.967   0.259   6.808  0.4409 -0.3273 -0.3991
23635SOL    HW178145   1.933   0.257   6.898 -1.6705 -1.3799 -1.1445
23635SOL    HW278146   2.005   0.172   6.795  1.7904  0.2066 -0.1964
23636SOL     OW78147   8.878   3.488   3.583  0.3914  0.0666  0.3183
23636SOL    HW178148   8.831   3.405   3.577  0.8710 -0.2725  1.0925
23636SOL    HW278149   8.836   3.544   3.518 -0.5656 -0.4701  0.4516
23637SOL     OW78150  12.277  10.661   5.489 -0.2446 -0.2935 -0.1260
23637SOL    HW178151  12.280  10.668   5.394 -0.1608  0.7104 -0.0593
23637SOL    HW278152  12.205  10.601   5.507 -2.1112  1.6266 -0.7533
23638SOL     OW78153   8.256   7.354   0.500 -0.0464 -0.2422 -0.4088
23638SOL    HW178154   8.204   7.276   0.517 -0.7234  0.3301  0.2613
23638SOL    HW278155   8.199   7.427   0.528  0.4776  0.4970 -1.2272
23639SOL     OW78156   4.719   1.129  12.299 -0.1472  0.0983 -0.2756
23639SOL    HW178157   4.770   1.054  12.268  0.4448  0.7016 -0.7724
23639SOL    HW278158   4.662   1.092  12.367 -0.6028 -1.0013 -1.2281
23640SOL     OW78159   2.651   1.712   8.743  0.0527  0.4365 -0.4389
23640SOL    HW178160   2.688   1.648   8.682  1.9642  0.6134  0.4555
23640SOL    HW278161   2.632   1.662   8.822  1.6296  0.9189  0.2931
23641SOL     OW78162   0.449  12.637  10.427  0.0914 -0.3137 -0.5187
23641SOL    HW178163   0.363  12.650  10.468  0.1675  0.1437 -0.5025
23641SOL    HW278164   0.452  12.543  10.407 -0.3323 -0.3666 -0.3423
23642SOL     OW78165   1.842   1.799   8.639  0.1537  0.5736  0.3150
23642SOL    HW178166   1.877   1.711   8.653 -1.0913 -0.5280 -2.5738
23642SOL    HW278167   1.901   1.857   8.686  2.3434 -1.6255  0.4471
23643SOL     OW78168   7.161   7.881   3.437  0.4254  0.2937  0.1626
23643SOL    HW178169   7.246   7.924   3.439  1.2802 -1.3106  0.2505
23643SOL    HW278170   7.126   7.900   3.351  0.8164  1.0729  0.1701
23644SOL     OW78171   7.066   5.897  11.035  0.1367 -0.6071  0.0116
23644SOL    HW178172   7.017   5.947  11.101  0.1720  0.6333 -0.8696
23644SOL    HW278173   7.042   5.806  11.052  0.6241 -0.4066  2.1202
23645SOL     OW78174   9.910   6.724  12.508  0.1004  0.1415 -0.0549
23645SOL    HW178175   9.978   6.766  12.561  0.0164  0.6801 -0.3583
23645SOL    HW278176   9.884   6.792  12.446  0.5760 -0.6492 -1.1483
23646SOL     OW78177   8.473   0.332   9.371  0.4651  0.2340  0.1406
23646SOL    HW178178   8.466   0.369   9.283 -0.7281  0.4389  0.3007
23646SOL    HW278179   8.567   0.330   9.389  1.1373 -3.1976 -2.5726
23647SOL     OW78180   6.136  12.479   7.930  0.1780 -0.1146  0.1011
23647SOL    HW178181   6.181  12.562   7.912 -0.8063  0.9321  2.1378
23647SOL    HW278182   6.044  12.503   7.937 -0.6574 -1.9919 -2.5813
23648SOL     OW78183  10.954   6.956  12.112 -0.3365 -0.3381 -0.0439
23648SOL    HW178184  10.868   6.925  12.139 -0.0383 -1.3433 -0.2016
23648SOL    HW278185  10.935   7.030  12.055 -1.0011  1.0701  1.9078
23649SOL     OW78186   5.039  12.186   1.628  0.1606  0.5229 -0.0609
23649SOL    HW178187   4.963  12.241   1.645 -0.4921  0.0084 -1.2363
23649SOL    HW278188   5.050  12.136   1.709  0.1048  1.5834  0.6194
23650SOL     OW78189   9.092   8.770   2.837  0.8569 -0.0290  0.2593
23650SOL    HW178190   9.021   8.816   2.792  1.0744 -0.2020 -0.2636
23650SOL    HW278191   9.070   8.678   2.827  2.1221 -0.1840 -1.5552
23651SOL     OW78192   5.654   3.322   5.793  0.5034 -0.4713  0.3079
23651SOL    HW178193   5.665   3.260   5.865  0.2748 -1.2140 -0.2721
23651SOL    HW278194   5.711   3.395   5.814  1.7141 -1.4191  0.4242
23652SOL     OW78195   7.686   4.282  12.131  0.3092 -0.1610 -0.8724
23652SOL    HW178196   7.686   4.366  12.178  0.0637  0.0829 -1.2992
23652SOL    HW278197   7.725   4.220  12.193 -0.9735 -0.0761  0.0513
23653SOL     OW78198   4.926   8.728   3.025 -0.1724  0.0674  0.5534
23653SOL    HW178199   4.893   8.638   3.024  0.5543 -0.2119 -0.5717
23653SOL    HW278200   5.020   8.718   3.044 -0.2924  0.6792  1.5223
23654SOL     OW78201   5.337   0.885   2.791  0.3390  0.5749  0.0197
23654SOL    HW178202   5.286   0.863   2.713 -0.9129 -1.0222  1.2016
23654SOL    HW278203   5.382   0.803   2.814  3.1627  1.7977 -0.6944
23655SOL     OW78204   5.846  11.856  11.261 -0.2769  0.1662 -0.1275
23655SOL    HW178205   5.899  11.908  11.321  0.0988  2.1225 -1.9972
23655SOL    HW278206   5.908  11.824  11.195 -0.8825 -0.6404 -0.3317
23656SOL     OW78207   0.460   3.214   0.416 -0.0072  0.1618 -0.5685
23656SOL    HW178208   0.481   3.195   0.324 -0.9695  1.9551 -1.2036
23656SOL    HW278209   0.376   3.261   0.413 -0.3725 -0.2752  1.2894
23657SOL     OW78210  10.400   6.949  12.214 -0.1880  0.3246  0.3077
23657SOL    HW178211  10.366   7.036  12.196 -0.3307 -0.0290 -1.3248
23657SOL    HW278212  10.413   6.910  12.127 -0.5855 -1.4525  0.9976
23658SOL     OW78213  12.610   8.309   6.282  0.1419 -0.3180 -0.2939
23658SOL    HW178214  12.595   8.312   6.187  1.4728 -0.1176 -0.5244
23658SOL    HW278215  12.569   8.228   6.311  0.1173 -0.6101 -1.1232
23659SOL     OW78216   4.248   6.611   0.506  0.2041 -0.7418  0.3897
23659SOL    HW178217   4.175   6.552   0.489  0.5233 -0.7313 -1.2173
23659SOL    HW278218   4.240   6.635   0.598 -2.3298 -0.0237  0.0386
23660SOL     OW78219   0.780   7.696   2.784  0.0899  0.5686 -0.0140
23660SOL    HW178220   0.784   7.641   2.706 -1.9355 -0.2261  0.3691
23660SOL    HW278221   0.756   7.636   2.855 -1.3412  1.7773  0.5764
23661SOL     OW78222   9.478   1.705   9.960  0.0739  0.5770  0.8329
23661SOL    HW178223   9.491   1.788   9.914 -0.0734  0.9264  1.4066
23661SOL    HW278224   9.560   1.657   9.948 -0.7512 -0.3569 -1.7769
23662SOL     OW78225  10.526   5.132   9.894 -0.4900  0.0258  0.0980
23662SOL    HW178226  10.438   5.139   9.858 -0.0833 -0.2292 -1.0033
23662SOL    HW278227  10.575   5.201   9.849  0.2318 -0.8314 -0.4840
23663SOL     OW78228   0.960   6.450   0.237  0.0445 -0.5997  0.1240
23663SOL    HW178229   0.998   6.430   0.322 -0.1675  0.3318  0.4546
23663SOL    HW278230   0.975   6.371   0.185  0.6486 -0.9877  0.8556
23664SOL     OW78231   9.161   7.977   0.574 -0.0280 -0.3728  0.3121
23664SOL    HW178232   9.065   7.983   0.578 -0.0279 -0.9094  1.8575
23664SOL    HW278233   9.191   8.038   0.641  0.6961 -0.6702  0.2605
23665SOL     OW78234  10.024   4.471   9.375 -1.1142  0.1883 -0.8518
23665SOL    HW178235  10.106   4.509   9.345 -0.1256 -1.6924 -0.6634
23665SOL    HW278236  10.046   4.423   9.454 -2.5220  0.1625 -0.4462
23666SOL     OW78237  11.148  10.810   2.125 -0.4021  0.0513 -0.1528
23666SOL    HW178238  11.153  10.852   2.038  1.2705 -0.0309 -0.1345
23666SOL    HW278239  11.143  10.717   2.106 -1.6842  0.1032 -0.1586
23667SOL     OW78240   2.011  12.568   0.860 -1.1989 -0.3066 -0.0762
23667SOL    HW178241   1.988  12.627   0.788 -0.0083  1.6640  1.0715
23667SOL    HW278242   1.930  12.557   0.910 -1.5067  0.0914 -0.4813
23668SOL     OW78243  10.367   9.017  12.073 -0.2679  0.5939 -0.2726
23668SOL    HW178244  10.343   9.110  12.075 -2.5751  0.0697  1.7270
23668SOL    HW278245  10.299   8.974  12.125  1.0346 -2.1694 -0.6797
23669SOL     OW78246   2.007   3.772   2.247  0.1886  0.1320  0.3388
23669SOL    HW178247   1.984   3.705   2.312 -0.0754 -0.1759 -0.0667
23669SOL    HW278248   2.012   3.724   2.164  1.2784  0.3748  0.2417
23670SOL     OW78249   5.118   4.109   8.709  0.2501  0.6637 -0.3074
23670SOL    HW178250   5.092   4.168   8.638  0.3124  1.3739  0.2394
23670SOL    HW278251   5.214   4.105   8.704  0.2611  0.7879 -0.2134
23671SOL     OW78252   8.029  11.764  12.495  0.4611  0.0990  0.3577
23671SOL    HW178253   8.012  11.837  12.436 -1.0188 -0.6416 -0.1879
23671SOL    HW278254   8.120  11.739  12.476  1.2260  2.1506  1.0148
23672SOL     OW78255  10.338   2.640   6.625 -0.3563  0.3293  0.0863
23672SOL    HW178256  10.401   2.576   6.591  1.1286  1.7282  0.1086
23672SOL    HW278257  10.390   2.699   6.678 -1.6337  1.7521 -0.1836
23673SOL     OW78258   8.889   5.986   4.267 -0.1258  0.1105 -0.1060
23673SOL    HW178259   8.971   5.937   4.264  1.9943  3.3656 -1.3086
23673SOL    HW278260   8.837   5.951   4.195  1.1157 -0.6282 -0.6726
23674SOL     OW78261  12.091   6.330   9.553 -0.2743 -0.2332  0.2147
23674SOL    HW178262  12.097   6.254   9.610 -1.4385 -0.7966 -0.3880
23674SOL    HW278263  11.997   6.348   9.546  0.0136  1.6876  0.8933
23675SOL     OW78264  12.295   6.244  11.732 -0.3750 -0.0680  0.1009
23675SOL    HW178265  12.368   6.208  11.681 -0.1951  0.3006  0.0974
23675SOL    HW278266  12.241   6.168  11.752 -0.5015 -0.2077 -0.7240
23676SOL     OW78267   9.170   5.476   5.998  0.3776  0.2644 -0.1051
23676SOL    HW178268   9.181   5.381   6.000  0.9759  0.3090 -0.8277
23676SOL    HW278269   9.119   5.496   6.077  2.9127 -0.2979  1.8116
23677SOL     OW78270   9.318  12.596   1.219  0.0847  0.2062 -0.0765
23677SOL    HW178271   9.302  12.522   1.278  0.4153  0.4923  0.3792
23677SOL    HW278272   9.340  12.556   1.135  1.0456 -0.2249  0.3657
23678SOL     OW78273   8.877  11.432   7.142  0.4257  0.1767  0.2193
23678SOL    HW178274   8.946  11.382   7.184 -0.2202 -0.1270  0.9418
23678SOL    HW278275   8.899  11.432   7.049  0.8810 -0.7231  0.3245
23679SOL     OW78276   2.205   1.115   1.540 -0.2598  0.4086 -0.1548
23679SOL    HW178277   2.257   1.064   1.478 -2.1830  0.7103 -2.1472
23679SOL    HW278278   2.173   1.050   1.603  0.8932 -0.0836 -0.0557
23680SOL     OW78279  10.062   9.131   0.046 -0.0868 -0.9854 -0.0211
23680SOL    HW178280  10.055   9.112  -0.047  1.4296  2.5800 -1.0343
23680SOL    HW278281   9.972   9.128   0.078 -0.8387 -0.7148 -1.9591
23681SOL     OW78282   9.577   5.022   8.620  0.1782  0.5494 -0.2062
23681SOL    HW178283   9.607   5.043   8.532  1.2270 -0.0938 -0.0108
23681SOL    HW278284   9.587   4.927   8.627 -2.1777  0.2368 -0.2194
23682SOL     OW78285   3.703   8.910   7.624  0.0001  0.0568  0.4238
23682SOL    HW178286   3.615   8.882   7.600  0.5560  0.1240 -1.8858
23682SOL    HW278287   3.761   8.842   7.588  0.9623  0.6912  0.7233
23683SOL     OW78288   0.332  10.722   5.345 -0.4781 -0.1247  0.0251
23683SOL    HW178289   0.293  10.807   5.364 -0.2140 -0.0123  0.0565
23683SOL    HW278290   0.265  10.659   5.371 -1.3186  0.1051 -1.4841
23684SOL     OW78291   5.364   4.526   2.322  0.0215  0.2107  0.0208
23684SOL    HW178292   5.311   4.453   2.352 -0.4012 -0.1002 -1.4284
23684SOL    HW278293   5.350   4.530   2.228  1.3754  1.0866 -0.1825
23685SOL     OW78294   0.497   8.736  11.895 -0.0155  0.4418  0.5272
23685SOL    HW178295   0.500   8.800  11.823 -0.6954  2.8149  2.4771
23685SOL    HW278296   0.579   8.750  11.943  0.5343 -1.2768  0.1457
23686SOL     OW78297   8.483   5.375  11.048 -0.3380 -0.1416  0.0478
23686SOL    HW178298   8.435   5.417  11.120  0.3566  0.2661  0.2797
23686SOL    HW278299   8.495   5.285  11.076 -0.4868 -0.1048  0.2308
23687SOL     OW78300   5.681   9.511   7.220  0.2827  0.3914 -0.0493
23687SOL    HW178301   5.625   9.570   7.269  0.9177  0.1464  1.0064
23687SOL    HW278302   5.659   9.424   7.253  1.6629  0.3395  0.8070
23688SOL     OW78303   5.095  10.890   9.456  0.3914 -0.2016  0.1390
23688SOL    HW178304   5.190  10.892   9.442  0.4893  0.4651  0.8467
23688SOL    HW278305   5.084  10.884   9.551 -0.2790 -0.8040  0.0334
23689SOL     OW78306  10.382   5.789   1.252 -0.4814 -0.1067 -0.2292
23689SOL    HW178307  10.436   5.867   1.264  2.8830 -2.0178 -1.5124
23689SOL    HW278308  10.379   5.749   1.339  3.4784 -1.7581 -0.6505
23690SOL     OW78309   6.082   4.033   8.755  0.4429 -0.2347 -0.3617
23690SOL    HW178310   6.095   3.943   8.783  1.7566 -0.0499 -0.3093
23690SOL    HW278311   5.999   4.060   8.796  1.0686 -0.7613  1.3035
23691SOL     OW78312   6.070  10.586  10.368  0.5418 -0.3437  0.5451
23691SOL    HW178313   6.061  10.634  10.451  1.6132  0.4961  0.1954
23691SOL    HW278314   6.135  10.518  10.387  0.8734 -0.0788  0.3779
23692SOL     OW78315   0.284   9.050   7.303  0.0884  0.1581  0.0479
23692SOL    HW178316   0.322   9.081   7.385  2.3417 -1.6837 -0.2346
23692SOL    HW278317   0.240   8.968   7.326 -1.5985  0.9474 -0.1505
23693SOL     OW78318   4.308   2.606  11.128 -0.1479  0.1955 -0.3760
23693SOL    HW178319   4.294   2.528  11.181 -2.3621  0.1183 -0.9904
23693SOL    HW278320   4.394   2.639  11.156  0.6126 -2.1381  0.2552
23694SOL     OW78321  12.452   4.880   7.754  0.2388  0.0239  0.0363
23694SOL    HW178322  12.434   4.807   7.694  1.7540 -0.7994  0.5284
23694SOL    HW278323  12.395   4.951   7.723 -1.8972 -1.5750  0.0148
23695SOL     OW78324   4.290  11.424   9.312 -0.2405 -0.1131  0.4464
23695SOL    HW178325   4.352  11.367   9.266 -0.7066 -1.3640  1.3215
23695SOL    HW278326   4.240  11.365   9.368 -2.2816  0.8400 -0.2609
23696SOL     OW78327  11.127   8.087   2.934  0.0571 -0.2263  0.2717
23696SOL    HW178328  11.134   8.181   2.914  0.2327 -0.3965 -0.5080
23696SOL    HW278329  11.038   8.077   2.967 -0.2972  0.0633 -0.5544
23697SOL     OW78330   3.454   9.463  10.255  0.2438  0.6040 -0.3952
23697SOL    HW178331   3.426   9.374  10.273  1.4784 -0.1409 -1.9092
23697SOL    HW278332   3.530   9.477  10.311 -1.3506  1.6406  1.6557
23698SOL     OW78333   4.060  10.342   0.063 -0.2353 -0.0103  0.2499
23698SOL    HW178334   4.151  10.322   0.088 -0.2141  0.1997  0.3487
23698SOL    HW278335   4.067  10.380  -0.024 -0.3235 -0.8706 -0.1391
23699SOL     OW78336   0.044   3.680   0.281 -0.1449 -0.2771  0.4706
23699SOL    HW178337   0.090   3.682   0.365  1.5273 -1.3910 -0.3692
23699SOL    HW278338   0.100   3.731   0.222 -0.4500 -0.8948 -0.3652
23700SOL     OW78339   4.750   7.417   0.692 -0.6159  0.3401  0.1795
23700SOL    HW178340   4.818   7.484   0.686  0.4841 -0.8462 -2.3150
23700SOL    HW278341   4.712   7.413   0.604  0.0490 -2.9022 -0.0974
23701SOL     OW78342   4.157   5.833   1.336 -0.2825  0.2971 -0.2892
23701SOL    HW178343   4.105   5.839   1.256 -1.2229 -1.6676  0.1337
23701SOL    HW278344   4.093   5.842   1.407  0.3245  0.4504  0.2460
23702SOL     OW78345   6.987  12.315   8.826 -0.0563  0.4109 -0.2236
23702SOL    HW178346   7.047  12.315   8.901  0.8483 -1.0239 -0.8908
23702SOL    HW278347   6.908  12.273   8.858  1.1328 -2.3060 -0.5871
23703SOL     OW78348   2.109  12.216   6.963 -0.1896 -0.1692  0.1335
23703SOL    HW178349   2.051  12.284   6.998 -0.7463 -0.6511  0.1585
23703SOL    HW278350   2.149  12.177   7.041 -1.4286 -1.2408  0.2590
23704SOL     OW78351  10.643   8.715   1.626  0.1842  0.3135  0.2214
23704SOL    HW178352  10.691   8.738   1.705  0.1290  1.0798  0.0409
23704SOL    HW278353  10.670   8.781   1.562  0.4013 -0.4251 -0.4651
23705SOL     OW78354   1.496   6.115  12.173 -0.2860 -0.3179  0.1793
23705SOL    HW178355   1.509   6.207  12.149  0.2710 -0.6815 -0.9461
23705SOL    HW278356   1.411   6.092  12.134 -1.0600  0.0659  1.5679
23706SOL     OW78357   5.455   9.189   4.582  0.3229 -0.1799 -0.1031
23706SOL    HW178358   5.377   9.179   4.636  1.4466  0.2602  1.7130
23706SOL    HW278359   5.468   9.283   4.574  0.9713 -0.2429  0.1093
23707SOL     OW78360  10.609   1.139   0.527 -0.1322 -0.0376  0.1992
23707SOL    HW178361  10.632   1.199   0.597 -2.0510  0.5752  0.3605
23707SOL    HW278362  10.634   1.052   0.560  0.1215  0.3737  1.1069
23708SOL     OW78363  10.339  11.080  10.035 -0.5809 -0.2594 -0.1551
23708SOL    HW178364  10.339  11.024   9.957  3.1065 -1.9076  0.8283
23708SOL    HW278365  10.320  11.021  10.108 -0.5814  0.5768  0.5505
23709SOL     OW78366   3.854  11.135   7.092 -0.0134 -0.1704  0.2662
23709SOL    HW178367   3.850  11.040   7.102  0.4683 -0.2742 -0.4874
23709SOL    HW278368   3.941  11.158   7.124  0.3586 -0.1409 -0.7440
23710SOL     OW78369  12.160  12.541   8.283 -0.2511  0.0958  0.4029
23710SOL    HW178370  12.066  12.556   8.273 -0.2981 -1.1717 -1.4265
23710SOL    HW278371  12.187  12.606   8.348 -2.2858  0.8212  0.6077
23711SOL     OW78372  11.959   6.342   5.405 -1.1060 -0.8418  0.6666
23711SOL    HW178373  11.925   6.406   5.467 -1.6498 -0.4098 -0.0613
23711SOL    HW278374  11.910   6.358   5.324  0.3105 -0.6896 -0.1965
23712SOL     OW78375   4.657   5.799   0.165 -1.0854  0.7066  0.4991
23712SOL    HW178376   4.729   5.774   0.222 -0.3552  1.9643  0.1767
23712SOL    HW278377   4.694   5.867   0.109 -1.7811 -0.4354 -1.4499
23713SOL     OW78378   1.103   5.757   3.814 -0.1169  0.4237  0.0990
23713SOL    HW178379   1.021   5.777   3.769  0.6567 -2.1033 -2.7457
23713SOL    HW278380   1.083   5.680   3.868  0.0958  0.5929  0.4278
23714SOL     OW78381   7.859   6.690   9.817 -0.7607  0.4690  0.3761
23714SOL    HW178382   7.779   6.671   9.866 -0.2502  0.6560  1.3181
23714SOL    HW278383   7.898   6.764   9.863 -0.7485  1.2820 -0.9192
23715SOL     OW78384   2.438   0.549   4.086  0.3314 -0.3971 -0.3615
23715SOL    HW178385   2.481   0.536   4.002  0.9845  0.5895 -0.1946
23715SOL    HW278386   2.499   0.511   4.150 -0.3124 -1.4393 -0.3497
23716SOL     OW78387   5.241   6.048  11.838 -0.3613  0.0212 -0.5161
23716SOL    HW178388   5.332   6.073  11.854 -0.2893  0.3164 -1.3512
23716SOL    HW278389   5.231   5.965  11.884  0.1458  0.2994  0.1071
23717SOL     OW78390  12.049  11.798   4.113 -0.0058 -0.1730  0.0307
23717SOL    HW178391  11.959  11.812   4.086  0.0711 -0.9961 -0.7280
23717SOL    HW278392  12.090  11.754   4.038  1.3162  1.1509 -0.0839
23718SOL     OW78393   8.718   6.958   2.866  0.0976 -0.6271  0.2682
23718SOL    HW178394   8.750   6.876   2.905 -2.4479 -2.3358 -0.9434
23718SOL    HW278395   8.714   6.939   2.772  1.1076  1.5762 -0.2859
23719SOL     OW78396   0.126   0.315   5.338  0.6048 -0.6278  0.1940
23719SOL    HW178397   0.114   0.353   5.251  1.4146  0.2707  0.4536
23719SOL    HW278398   0.187   0.242   5.324  0.8206 -0.4164  0.0221
23720SOL     OW78399   9.650   3.370   8.607  0.1552 -0.3988 -0.1430
23720SOL    HW178400   9.704   3.291   8.612  1.0009  0.1732  0.2335
23720SOL    HW278401   9.646   3.391   8.514  1.2808 -0.0080 -0.1213
23721SOL     OW78402   9.896   7.986   3.202 -0.4078 -0.0292 -0.3952
23721SOL    HW178403   9.808   8.015   3.181 -1.0804 -2.3173 -1.0960
23721SOL    HW278404   9.902   7.992   3.298 -1.0665  0.7381 -0.3963
23722SOL     OW78405   9.471   7.852   4.997  0.1698 -0.3514 -0.8738
23722SOL    HW178406   9.379   7.874   4.978  0.9849  2.1058 -2.4372
23722SOL    HW278407   9.518   7.934   4.985  2.4416 -1.2437  1.2244
23723SOL     OW78408   3.515   1.851   7.928 -0.4739  0.4263  0.1105
23723SOL    HW178409   3.480   1.885   8.010  0.2334 -1.5788  1.3348
23723SOL    HW278410   3.601   1.892   7.919 -0.3109  0.2343  0.7113
23724SOL     OW78411  11.857   1.175   0.660 -0.4998  0.6115  0.5733
23724SOL    HW178412  11.916   1.149   0.730 -0.4207  1.2048  0.7383
23724SOL    HW278413  11.783   1.216   0.705 -0.8336  0.2628  0.3481
23725SOL     OW78414  11.105  11.535   0.209  0.5308  0.2157 -0.1759
23725SOL    HW178415  11.156  11.489   0.276 -1.3907 -2.0443 -0.1404
23725SOL    HW278416  11.133  11.495   0.127 -0.2172 -0.1355 -0.2700
23726SOL     OW78417   6.071  11.764  11.125 -0.4804 -0.4939  0.0983
23726SOL    HW178418   6.058  11.818  11.047  0.7816 -2.3772 -1.5103
23726SOL    HW278419   6.166  11.760  11.137 -0.6258  1.8168  3.3690
23727SOL     OW78420   7.530   7.569   2.047 -0.0140 -0.2496 -0.0087
23727SOL    HW178421   7.507   7.656   2.077  0.1807  0.5605 -2.0421
23727SOL    HW278422   7.454   7.515   2.070 -1.3481  1.0583 -1.1271
23728SOL     OW78423  11.004   7.128   5.277  0.0936 -0.4084 -0.5112
23728SOL    HW178424  11.002   7.219   5.307  0.4287  0.0755 -1.8755
23728SOL    HW278425  11.073   7.087   5.327 -1.6635 -0.6041  1.9222
23729SOL     OW78426   8.537   3.888   0.073 -0.0111  0.0023  0.2491
23729SOL    HW178427   8.624   3.883   0.113 -0.7251  1.3884  2.1047
23729SOL    HW278428   8.552   3.933  -0.010  1.0290  0.4292  0.6478
23730SOL     OW78429   5.907   2.838  11.317  0.0535 -0.2755 -0.2421
23730SOL    HW178430   5.837   2.773  11.321 -0.1242 -0.1009 -0.5466
23730SOL    HW278431   5.865   2.917  11.282  0.3134 -0.0556 -0.0629
23731SOL     OW78432   2.731   9.655   7.845  0.0451 -0.4132 -0.3126
23731SOL    HW178433   2.649   9.703   7.833 -0.9161 -2.1000 -0.8627
23731SOL    HW278434   2.718   9.573   7.797  1.1802 -1.6823  1.4071
23732SOL     OW78435   4.554  11.928   7.114 -0.0818  0.2985  1.0956
23732SOL    HW178436   4.480  11.918   7.054  0.3183  0.0381  0.6329
23732SOL    HW278437   4.620  11.975   7.063 -0.0663  0.8560  1.6239
23733SOL     OW78438   5.558   1.658   3.259 -0.1651  0.7204  0.2407
23733SOL    HW178439   5.533   1.567   3.244 -3.4854  1.8745 -2.3555
23733SOL    HW278440   5.557   1.668   3.354 -1.0611 -1.6355  0.5303
23734SOL     OW78441   8.616   9.388   1.429  0.3111  0.4134  0.7844
23734SOL    HW178442   8.615   9.459   1.493 -0.5204 -1.5925  3.1597
23734SOL    HW278443   8.709   9.378   1.406  0.8110  0.4823  2.6058
23735SOL     OW78444   8.137   5.728   3.164  0.0871 -0.2973 -0.1854
23735SOL    HW178445   8.164   5.818   3.144  0.3094 -0.5727 -1.2041
23735SOL    HW278446   8.189   5.703   3.241 -1.0145  0.9226  0.9960
23736SOL     OW78447   4.933   5.366   0.463 -0.2874  0.4420  0.0537
23736SOL    HW178448   4.962   5.285   0.504  0.9489  0.0909 -1.4449
23736SOL    HW278449   4.845   5.381   0.499 -0.4360 -1.4004  0.5457
23737SOL     OW78450  10.316   3.503   5.930  0.3302  0.0391  0.8355
23737SOL    HW178451  10.332   3.587   5.972 -0.5778 -0.1808  1.6593
23737SOL    HW278452  10.269   3.452   5.996  2.0198 -1.6046  0.8691
23738SOL     OW78453  10.198   3.020   9.183  0.2308  0.1713 -0.3488
23738SOL    HW178454  10.163   3.043   9.097 -0.6757 -0.8420 -0.2765
23738SOL    HW278455  10.261   2.950   9.165  0.1400  0.0529 -0.2084
23739SOL     OW78456   6.574   0.254  11.187  0.4506 -0.2444  0.0129
23739SOL    HW178457   6.498   0.285  11.138  0.0444 -0.5366  0.4437
23739SOL    HW278458   6.536   0.216  11.267  0.9727 -1.3688 -0.2680
23740SOL     OW78459   4.507   9.026   0.201  0.2885 -0.0503  0.5015
23740SOL    HW178460   4.507   9.122   0.193  2.6920 -0.1045 -1.2818
23740SOL    HW278461   4.422   8.999   0.167 -0.0199  1.3926  0.0646
23741SOL     OW78462   6.366   1.178  10.215 -0.4754 -0.0143  0.5196
23741SOL    HW178463   6.292   1.128  10.250 -1.6033  0.7195 -0.6684
23741SOL    HW278464   6.443   1.141  10.257 -1.1875 -2.9883 -0.5888
23742SOL     OW78465  11.490   3.166   2.380  0.0937  0.7009  0.0959
23742SOL    HW178466  11.468   3.074   2.393  0.9258  0.0122 -2.8407
23742SOL    HW278467  11.584   3.167   2.365  0.4248  2.3162  1.8503
23743SOL     OW78468   3.573   2.981   6.195  0.0612 -0.2805 -0.4691
23743SOL    HW178469   3.628   3.016   6.265 -0.9311  2.0066 -0.7368
23743SOL    HW278470   3.483   3.002   6.223 -0.3394  1.3342 -2.6798
23744SOL     OW78471   8.885   1.577  10.285  0.2126 -0.4188  0.0236
23744SOL    HW178472   8.918   1.659  10.320 -0.7544  1.1084 -2.3743
23744SOL    HW278473   8.790   1.583  10.294  0.1801 -1.9220  1.0413
23745SOL     OW78474  11.817   5.918   4.695  0.4019 -0.2208  0.3283
23745SOL    HW178475  11.776   6.005   4.697 -0.1958 -0.5108  0.7406
23745SOL    HW278476  11.835   5.903   4.602  2.0509  1.0497  0.3798
23746SOL     OW78477   7.091   0.682   2.638  0.0765  0.1468  0.0643
23746SOL    HW178478   7.077   0.677   2.733  1.5172  0.2296  0.3018
23746SOL    HW278479   7.184   0.666   2.627 -0.2819 -1.0457 -1.4563
23747SOL     OW78480   8.465   5.120   4.823 -0.5402  0.0284 -0.2352
23747SOL    HW178481   8.461   5.024   4.817  1.3504 -0.1629  0.6826
23747SOL    HW278482   8.403   5.142   4.893 -0.7814 -0.5662 -0.2578
23748SOL     OW78483  10.997   1.570   1.641  0.3279  0.1164  0.0091
23748SOL    HW178484  11.029   1.643   1.695  0.2417  0.0354  0.1721
23748SOL    HW278485  10.997   1.604   1.552  2.2742 -0.3471 -0.2119
23749SOL     OW78486   3.244   8.916   2.004 -0.3255  0.2030 -0.3189
23749SOL    HW178487   3.209   8.946   2.088 -1.3029  1.8981 -1.2721
23749SOL    HW278488   3.175   8.863   1.966 -0.7200  1.1368 -0.9298
23750SOL     OW78489  10.149   7.731   2.785 -0.6567  0.5539  0.1069
23750SOL    HW178490  10.124   7.818   2.816  0.0452  0.5495  0.6973
23750SOL    HW278491  10.068   7.680   2.790 -0.6650  0.6713  1.5225
23751SOL     OW78492   0.443   3.923   9.548  1.0522  0.4406 -0.1514
23751SOL    HW178493   0.371   3.979   9.577 -0.0923 -0.8737 -0.3003
23751SOL    HW278494   0.522   3.965   9.582  0.2035  1.8197  0.2053
23752SOL     OW78495   1.155  10.974   2.405 -0.0846  0.5985  0.1561
23752SOL    HW178496   1.124  10.931   2.485 -2.4818  0.9400 -0.5191
23752SOL    HW278497   1.209  10.908   2.362  1.7345  0.5893  2.2645
23753SOL     OW78498   5.756   0.701  10.045 -0.2649  0.2696 -0.4698
23753SOL    HW178499   5.847   0.726  10.028  0.0341 -1.1992 -1.1976
23753SOL    HW278500   5.736   0.738  10.132  1.0913  0.4141 -0.2058
23754SOL     OW78501   2.457   3.147   0.024 -0.3284 -0.1013 -0.5158
23754SOL    HW178502   2.416   3.060   0.025 -0.3186 -0.1096  0.8020
23754SOL    HW278503   2.540   3.135   0.070 -0.8745  0.8346  0.7792
23755SOL     OW78504   0.647   0.909   3.849 -0.3483 -0.7256  0.0981
23755SOL    HW178505   0.728   0.912   3.900 -0.6268 -1.7569  0.6169
23755SOL    HW278506   0.636   0.998   3.817 -0.1762 -0.0343  1.8542
23756SOL     OW78507   1.910   0.101   4.062  0.4033 -0.5042  0.1774
23756SOL    HW178508   1.864   0.112   3.979 -0.6617  1.1462  0.9363
23756SOL    HW278509   1.995   0.063   4.038  0.7893  1.4498 -1.8526
23757SOL     OW78510   6.133   7.634   0.004  0.0553  0.5151  0.2262
23757SOL    HW178511   6.139   7.557  -0.052 -1.0862 -0.4103  1.2968
23757SOL    HW278512   6.041   7.635   0.033  0.3189  1.6548  1.1031
23758SOL     OW78513   2.949  10.495   0.607  0.1332 -0.7507  0.0875
23758SOL    HW178514   2.995  10.446   0.675  1.1196 -1.5695 -1.1459
23758SOL    HW278515   2.857  10.491   0.634  0.2733 -2.6466  0.4300
23759SOL     OW78516   0.175   8.268   7.294  0.1032 -0.6563  0.4474
23759SOL    HW178517   0.209   8.219   7.369 -1.1404 -0.8531  0.9000
23759SOL    HW278518   0.227   8.238   7.220  1.9393  0.1501  1.3354
23760SOL     OW78519  11.543   8.902   7.432  0.2996  0.3392 -0.4367
23760SOL    HW178520  11.591   8.985   7.433 -0.6769  0.9188  0.6235
23760SOL    HW278521  11.457   8.924   7.396  0.1994 -0.3121 -0.6010
23761SOL     OW78522   9.310   9.029   8.803 -0.2639 -0.1750  0.0554
23761SOL    HW178523   9.305   9.105   8.862  1.3699  1.1644 -1.4144
23761SOL    HW278524   9.303   9.066   8.716 -2.9552 -2.1504 -0.7149
23762SOL     OW78525  11.861   9.442  11.753  0.0943 -0.6097 -0.1411
23762SOL    HW178526  11.896   9.531  11.759  0.7721 -0.9626  1.4656
23762SOL    HW278527  11.766   9.454  11.753  0.1798  0.1091 -0.0052
23763SOL     OW78528   7.298   1.963   8.298  0.5610  0.5277 -0.3123
23763SOL    HW178529   7.342   1.894   8.347  0.4424  1.6068  1.4160
23763SOL    HW278530   7.358   1.984   8.227  1.2275 -0.3885 -0.0390
23764SOL     OW78531   2.433  10.795  10.779 -0.0347  0.0925  0.2443
23764SOL    HW178532   2.410  10.884  10.754 -1.1920 -0.4101 -0.5927
23764SOL    HW278533   2.526  10.787  10.757 -0.0632  0.9101 -0.2199
23765SOL     OW78534   3.184   8.243   9.969  0.1185 -0.2472 -0.4566
23765SOL    HW178535   3.278   8.263   9.970  0.1673 -0.4862  0.0360
23765SOL    HW278536   3.159   8.238  10.061 -0.3611 -0.2701 -0.5854
23766SOL     OW78537   7.628   3.697   5.227 -0.0021 -0.3838 -0.5015
23766SOL    HW178538   7.574   3.635   5.177  0.1916 -0.7913 -0.2077
23766SOL    HW278539   7.690   3.642   5.275 -1.1616 -0.1268  1.3921
23767SOL     OW78540  10.979   4.490  12.614  0.1751 -0.0410  0.3470
23767SOL    HW178541  10.965   4.464  12.523  1.6134  0.1113  0.0498
23767SOL    HW278542  10.898   4.533  12.641  0.0625  0.7228 -1.1490
23768SOL     OW78543   2.262  12.633   3.620 -0.9159  0.0148 -0.0500
23768SOL    HW178544   2.238  12.722   3.644 -1.7890 -0.1087 -0.4336
23768SOL    HW278545   2.358  12.633   3.621 -0.8436  1.4132 -1.6598
23769SOL     OW78546   7.465  11.429   1.774 -0.0501  0.0586  0.0888
23769SOL    HW178547   7.415  11.349   1.764 -0.1914  0.2254 -0.5482
23769SOL    HW278548   7.401  11.499   1.767  0.1240  0.2412  0.2891
23770SOL     OW78549   2.895   2.142   2.736 -0.8073 -0.1437  1.1819
23770SOL    HW178550   2.941   2.171   2.814 -2.2653  1.8824  1.3444
23770SOL    HW278551   2.962   2.139   2.668 -0.2495  2.0489  1.5756
23771SOL     OW78552   8.929  12.004  10.510 -0.3274 -0.6524  0.0003
23771SOL    HW178553   8.990  12.035  10.444 -0.3385  1.0982  0.7518
23771SOL    HW278554   8.985  11.973  10.581 -0.2900 -0.0696  0.2346
23772SOL     OW78555  11.763   3.307   4.431 -0.0232  0.0194 -0.7425
23772SOL    HW178556  11.753   3.388   4.381 -2.3786  1.0237  1.1588
23772SOL    HW278557  11.728   3.239   4.374  0.6878  0.5236 -1.8250
23773SOL     OW78558  12.318   8.917   2.010 -0.5256  0.0150  0.2852
23773SOL    HW178559  12.262   8.849   2.048 -0.7248 -0.1933 -0.3702
23773SOL    HW278560  12.298   8.996   2.060 -0.9328 -0.2063  0.4746
23774SOL     OW78561   8.554   4.786   1.813 -0.0574  0.2170  0.1234
23774SOL    HW178562   8.542   4.694   1.835 -0.1710  0.0220 -0.7314
23774SOL    HW278563   8.514   4.796   1.727  1.1581  0.7546 -0.4115
23775SOL     OW78564   5.886  12.173   3.331 -0.3418  0.2377 -0.3454
23775SOL    HW178565   5.822  12.217   3.275 -0.6084  0.7381  0.3453
23775SOL    HW278566   5.842  12.093   3.359  0.0008 -0.3002 -1.2887
23776SOL     OW78567   1.321   5.523  11.557 -0.0516 -0.1074 -0.3641
23776SOL    HW178568   1.385   5.478  11.502  1.1087  1.3758 -0.2752
23776SOL    HW278569   1.248   5.460  11.564  0.9086 -1.4018 -1.3490
23777SOL     OW78570   4.555  11.885   5.832  0.2040  0.0078 -0.2812
23777SOL    HW178571   4.525  11.964   5.876 -1.2406 -0.4420 -0.4102
23777SOL    HW278572   4.648  11.879   5.853  0.6770  2.4365 -1.3606
23778SOL     OW78573   3.575   8.894   8.207 -0.2394  0.7294  0.2824
23778SOL    HW178574   3.667   8.874   8.224 -0.5242  0.9260  2.3221
23778SOL    HW278575   3.539   8.813   8.171  0.7448  0.7013 -0.7022
23779SOL     OW78576   8.497  10.655   2.655 -0.2091 -0.5532  0.0578
23779SOL    HW178577   8.429  10.618   2.711  0.5781 -0.2909  1.2297
23779SOL    HW278578   8.557  10.699   2.715  0.7446 -0.3620 -0.9817
23780SOL     OW78579  12.336   3.409   0.914  0.0064 -0.2572  0.1747
23780SOL    HW178580  12.356   3.371   0.829  0.1228 -0.1064  0.1340
23780SOL    HW278581  12.305   3.336   0.967  1.8112 -0.7375  0.6240
23781SOL     OW78582   3.081   5.280  10.688  0.5586  0.6643  0.3102
23781SOL    HW178583   3.026   5.235  10.625 -0.0861  1.5323  0.2315
23781SOL    HW278584   3.064   5.237  10.771 -2.5254  2.7084  0.8918
23782SOL     OW78585   5.440   9.297   6.956 -0.2118 -0.3029  0.3461
23782SOL    HW178586   5.390   9.355   7.012  0.1934 -0.5519  0.9813
23782SOL    HW278587   5.378   9.229   6.929  0.4080 -2.3080  3.5276
23783SOL     OW78588   8.810   9.803   9.652 -0.2618  0.2059 -0.5302
23783SOL    HW178589   8.846   9.871   9.709 -1.2599  1.9805 -1.9204
23783SOL    HW278590   8.773   9.851   9.578 -0.4887 -1.9103 -1.8658
23784SOL     OW78591  12.707   7.812   8.328 -0.3176 -0.6850 -0.2585
23784SOL    HW178592  12.720   7.906   8.339  1.0943 -0.8543 -0.2607
23784SOL    HW278593  12.751   7.792   8.245 -1.5966 -1.1743 -0.8443
23785SOL     OW78594   8.370  12.037   2.347  0.2062 -0.8558  0.4409
23785SOL    HW178595   8.428  12.023   2.421 -1.6720  3.3446  3.0803
23785SOL    HW278596   8.287  11.997   2.374  0.0578 -1.1167 -0.3675
23786SOL     OW78597  10.773   2.158   1.694  0.5558  0.1795 -0.2628
23786SOL    HW178598  10.706   2.133   1.758  0.8192 -1.4088 -0.5590
23786SOL    HW278599  10.840   2.203   1.746  1.3847 -2.1996  0.8909
23787SOL     OW78600   8.034   8.052   4.452  0.4246 -0.0426  0.2430
23787SOL    HW178601   8.113   7.999   4.457  1.8121  1.7080 -1.5212
23787SOL    HW278602   8.050   8.124   4.513 -0.5298 -0.5028  1.0609
23788SOL     OW78603   4.287   2.690  10.426  0.8290  0.7167  0.1268
23788SOL    HW178604   4.322   2.665  10.512 -0.0144 -0.5929  0.1115
23788SOL    HW278605   4.299   2.613  10.371  0.7573  1.3194 -0.7534
23789SOL     OW78606  11.845  11.576   4.420 -0.2398  0.1724  0.3383
23789SOL    HW178607  11.930  11.540   4.443 -0.9061 -0.7589  1.5052
23789SOL    HW278608  11.798  11.582   4.504 -1.5639  0.0099 -0.3541
23790SOL     OW78609   7.256   8.530   9.493 -0.0048  0.1330 -0.0814
23790SOL    HW178610   7.319   8.569   9.432  1.6565  2.5066  2.8100
23790SOL    HW278611   7.311   8.488   9.560 -1.7194 -2.2785 -0.0672
23791SOL     OW78612  10.894   8.558   2.949  0.6237  0.1096 -0.3705
23791SOL    HW178613  10.864   8.540   3.039  0.0831 -0.8527 -0.7186
23791SOL    HW278614  10.916   8.651   2.949  1.6642 -0.0960  1.0502
23792SOL     OW78615  12.480   3.695   0.291  0.1050 -0.1325  1.0540
23792SOL    HW178616  12.573   3.715   0.300  0.0476  0.1409  1.0574
23792SOL    HW278617  12.436   3.777   0.313 -0.0490  0.6908 -1.9081
23793SOL     OW78618  10.564   1.788  12.538  0.1285 -0.2169 -0.3821
23793SOL    HW178619  10.525   1.864  12.496 -2.3761 -0.9658  0.4166
23793SOL    HW278620  10.603   1.821  12.618  0.3802  0.4253 -0.7631
23794SOL     OW78621   6.135   9.876   4.885 -0.6053 -0.3966  0.2512
23794SOL    HW178622   6.228   9.876   4.906 -0.7573 -1.8488  1.0639
23794SOL    HW278623   6.128   9.927   4.804  0.6747  1.0292  0.9775
23795SOL     OW78624  12.191   3.097   8.504 -0.0757 -0.0126 -0.1164
23795SOL    HW178625  12.136   3.025   8.535 -0.4101  0.4242  0.3112
23795SOL    HW278626  12.252   3.113   8.576  0.2435 -0.1163 -0.3617
23796SOL     OW78627   1.008   0.119  11.227  0.1569 -0.1448  0.2600
23796SOL    HW178628   0.936   0.171  11.190  0.2255 -1.0727 -1.2402
23796SOL    HW278629   1.010   0.039  11.174  0.0970 -1.6762  2.4679
23797SOL     OW78630  11.522   8.678   1.644  0.4244 -0.1387  0.1167
23797SOL    HW178631  11.545   8.610   1.580  0.1068 -0.2468  0.1163
23797SOL    HW278632  11.607   8.710   1.676  0.6897  1.4957 -1.9779
23798SOL     OW78633   1.526   0.206   1.086  0.4339 -0.3932 -0.0378
23798SOL    HW178634   1.596   0.267   1.062 -0.4890  1.5520  1.8584
23798SOL    HW278635   1.546   0.181   1.176 -0.4038 -1.1553 -0.0511
23799SOL     OW78636   7.501  11.147   3.021  0.4067 -0.1977  0.2060
23799SOL    HW178637   7.572  11.108   2.969 -0.7195 -1.3302 -0.5350
23799SOL    HW278638   7.466  11.217   2.965  1.8279  1.3802  1.1655
23800SOL     OW78639   5.109   4.458   8.343 -0.4553  0.6493  0.5708
23800SOL    HW178640   5.154   4.378   8.371  3.4556  1.9228 -1.3739
23800SOL    HW278641   5.045   4.427   8.278 -0.4619 -1.0612  1.3304
23801SOL     OW78642   2.697   6.124   4.352  0.1545  0.2485 -0.0021
23801SOL    HW178643   2.718   6.191   4.287 -1.1823 -0.0440 -0.7603
23801SOL    HW278644   2.621   6.159   4.399 -0.5044 -0.6887 -0.3455
23802SOL     OW78645  11.215   6.878   6.884  0.2059 -0.1061  0.0061
23802SOL    HW178646  11.232   6.906   6.794  1.3365 -2.1046 -0.4604
23802SOL    HW278647  11.258   6.943   6.938  0.2540  0.6470 -0.9186
23803SOL     OW78648   5.719   6.628  12.018 -0.2106 -0.0510 -0.5359
23803SOL    HW178649   5.632   6.590  12.032  0.0508 -0.5398 -0.1791
23803SOL    HW278650   5.769   6.558  11.975  0.8596 -0.9005  1.8664
23804SOL     OW78651   4.186   5.311   6.946 -0.5059 -0.0017  0.0886
23804SOL    HW178652   4.176   5.245   6.877 -0.0876 -0.8876  0.8655
23804SOL    HW278653   4.132   5.279   7.018 -0.9256  0.9121  0.1939
23805SOL     OW78654   2.603   9.810  10.213 -0.3143 -0.4064  0.0827
23805SOL    HW178655   2.634   9.779  10.298  0.5669 -1.3482 -0.5710
23805SOL    HW278656   2.559   9.734  10.174 -1.7876  0.3601  0.1842
23806SOL     OW78657   3.402   3.451   9.522  0.3031 -0.8195 -0.5202
23806SOL    HW178658   3.331   3.421   9.579 -0.3806 -0.8288 -1.3551
23806SOL    HW278659   3.481   3.412   9.560 -0.0257 -0.2255  0.8415
23807SOL     OW78660   5.105   5.080  10.510  0.4427 -0.1672 -0.3358
23807SOL    HW178661   5.047   5.011  10.542  0.9311 -0.4317  0.0016
23807SOL    HW278662   5.057   5.122  10.439 -0.3982 -0.0005  0.3220
23808SOL     OW78663   1.337   4.800   4.106 -0.1835  0.3860  0.4323
23808SOL    HW178664   1.308   4.847   4.184  1.1588  0.1686  1.0949
23808SOL    HW278665   1.259   4.756   4.074 -0.6695  0.0843  1.9386
23809SOL     OW78666   8.405   1.969   5.216 -0.1138 -0.1347  0.0013
23809SOL    HW178667   8.358   1.913   5.277  1.6099 -0.4083  1.1666
23809SOL    HW278668   8.437   1.910   5.148  0.9215 -0.4613  0.7396
23810SOL     OW78669  11.245   7.392   0.489  0.7733 -0.6442  0.0439
23810SOL    HW178670  11.280   7.336   0.419  0.6794 -1.2113  0.4445
23810SOL    HW278671  11.269   7.347   0.570 -0.3751 -0.7527  0.3477
23811SOL     OW78672   8.160  11.115   0.016 -0.2741 -0.4318 -0.2456
23811SOL    HW178673   8.115  11.192   0.050  1.4667 -0.3265  2.0247
23811SOL    HW278674   8.166  11.130  -0.079 -0.8787  1.7240  0.0171
23812SOL     OW78675   8.789   9.381   2.429  0.1086 -0.3636 -0.1885
23812SOL    HW178676   8.870   9.339   2.401 -0.6574 -2.2019  0.1687
23812SOL    HW278677   8.816   9.445   2.495  1.3548 -0.1041 -0.9281
23813SOL     OW78678   8.773   3.573   4.629  0.1031  0.2113  0.6441
23813SOL    HW178679   8.799   3.663   4.649 -0.2835  0.5122 -0.1757
23813SOL    HW278680   8.678   3.571   4.643 -0.2596  0.5582 -1.5267
23814SOL     OW78681   3.530   5.372  11.815 -0.3863 -0.4151  0.1394
23814SOL    HW178682   3.514   5.426  11.893 -2.0245  0.9485 -1.0667
23814SOL    HW278683   3.590   5.304  11.846  0.6526  1.2494  2.1012
23815SOL     OW78684   9.265  12.412   3.124 -0.5758  0.1716 -0.6311
23815SOL    HW178685   9.317  12.429   3.046 -1.0302 -1.2365 -1.2750
23815SOL    HW278686   9.273  12.492   3.177  1.5877  0.2848 -1.0592
23816SOL     OW78687   8.948  10.498   6.883 -0.8168 -0.4439 -0.4879
23816SOL    HW178688   9.015  10.451   6.933  1.4362  1.9054 -1.0610
23816SOL    HW278689   8.874  10.505   6.943  0.2074 -1.3621  0.9661
23817SOL     OW78690   7.752  11.393  10.856  0.6765 -0.1324 -0.1090
23817SOL    HW178691   7.719  11.482  10.850 -1.7570 -0.9392  0.0186
23817SOL    HW278692   7.698  11.343  10.796  0.8976 -1.7958  0.9957
23818SOL     OW78693   8.382   4.708  11.907  0.4440  0.3178  0.1455
23818SOL    HW178694   8.401   4.767  11.981 -0.5446  0.8189  0.0125
23818SOL    HW278695   8.368   4.622  11.947 -0.6584  0.7017  0.6179
23819SOL     OW78696   5.451   1.618   0.592  0.0597 -0.2308 -0.3176
23819SOL    HW178697   5.495   1.537   0.567  0.8225 -0.8678  2.6956
23819SOL    HW278698   5.491   1.642   0.676 -1.3880  2.3176 -0.2658
23820SOL     OW78699   5.117  11.374   3.439 -0.0258 -0.1526  0.2368
23820SOL    HW178700   5.040  11.388   3.493 -0.4824 -0.7402 -0.2461
23820SOL    HW278701   5.178  11.443   3.465 -0.1436 -0.5383  1.6447
23821SOL     OW78702   5.421  10.300   8.319  0.9297 -0.6392  0.0217
23821SOL    HW178703   5.516  10.306   8.321  0.9172  0.8090 -1.4450
23821SOL    HW278704   5.403  10.207   8.330  2.5533 -1.0532 -0.5122
23822SOL     OW78705   2.707   0.392   9.352 -0.4150 -0.4832  0.0818
23822SOL    HW178706   2.727   0.334   9.279  0.0581 -1.5568  1.0283
23822SOL    HW278707   2.678   0.333   9.422 -1.8709  0.6007  0.4367
23823SOL     OW78708  12.364   0.761   3.733  0.4317 -0.3811  0.1424
23823SOL    HW178709  12.271   0.751   3.711  0.1958  1.3670  0.1935
23823SOL    HW278710  12.409   0.705   3.670 -0.5279  0.8390 -1.7311
23824SOL     OW78711   0.371  12.294  12.626  0.0513 -0.1723 -0.5517
23824SOL    HW178712   0.341  12.234  12.694 -0.8924  0.0770 -0.7245
23824SOL    HW278713   0.290  12.327  12.586  0.4799 -2.5878 -3.8799
23825SOL     OW78714   6.277  11.222   3.678 -0.2277  0.5135  0.2069
23825SOL    HW178715   6.243  11.299   3.723 -3.2568 -0.4686 -0.1234
23825SOL    HW278716   6.292  11.252   3.588 -2.4980  0.5658 -0.2232
23826SOL     OW78717   6.929  12.701  12.043  0.0768 -0.2844 -0.0048
23826SOL    HW178718   6.996  12.728  12.106 -2.5386  0.4865  2.6706
23826SOL    HW278719   6.860  12.662  12.097 -2.7547  1.2909 -2.2215
23827SOL     OW78720   7.950  12.276   6.642  0.0286 -0.2991 -0.3372
23827SOL    HW178721   7.892  12.350   6.658 -0.7179 -1.0235  0.5037
23827SOL    HW278722   7.953  12.230   6.727 -0.4966 -1.8683 -1.1188
23828SOL     OW78723   4.282  10.165   8.577  0.0204  0.1468 -0.5885
23828SOL    HW178724   4.312  10.244   8.623  1.9160 -1.0678  0.3980
23828SOL    HW278725   4.333  10.165   8.496  0.6170 -0.4420 -0.2247
23829SOL     OW78726   0.694   7.623  10.638  0.1123 -0.0738 -0.1920
23829SOL    HW178727   0.774   7.608  10.588  0.0002 -1.2350 -0.0567
23829SOL    HW278728   0.723   7.666  10.718  0.6662 -0.8927  0.0561
23830SOL     OW78729   9.356   8.102   5.336  0.0454 -0.5976 -0.3177
23830SOL    HW178730   9.400   8.025   5.371 -0.5064 -0.9609 -0.4056
23830SOL    HW278731   9.417   8.139   5.272  1.0607  0.0480  0.9759
23831SOL     OW78732  12.364   5.130   6.869  0.6431  0.2340  0.1168
23831SOL    HW178733  12.403   5.047   6.895  1.2630 -0.0450 -1.6043
23831SOL    HW278734  12.282   5.106   6.826 -0.4520  0.6964  1.8503
23832SOL     OW78735  10.205   7.967   6.041  0.0590 -0.2360  0.0276
23832SOL    HW178736  10.255   8.010   5.972 -0.3727  0.3167  0.0540
23832SOL    HW278737  10.192   7.878   6.009  0.9113 -0.3462 -0.0514
23833SOL     OW78738  12.577   0.917   3.627 -0.0833  0.5654 -0.1938
23833SOL    HW178739  12.496   0.885   3.668 -0.2233  2.4049  1.0670
23833SOL    HW278740  12.548   0.974   3.556  0.0581  1.6870  0.6207
23834SOL     OW78741   4.721   8.293   7.747  0.5408 -0.4536  0.5534
23834SOL    HW178742   4.718   8.235   7.823 -1.6108 -1.2067 -0.0332
23834SOL    HW278743   4.714   8.234   7.672 -1.0707  0.4689 -0.0820
23835SOL     OW78744  11.000   7.698   6.182 -0.2579 -0.6406  0.4966
23835SOL    HW178745  11.041   7.714   6.097 -3.4842 -0.7159 -1.2414
23835SOL    HW278746  11.023   7.775   6.235  1.4669 -0.4002 -0.5240
23836SOL     OW78747  11.158   6.089   8.044  0.2145  0.0504  0.2430
23836SOL    HW178748  11.126   6.005   8.077  1.4349 -0.4162  0.2989
23836SOL    HW278749  11.197   6.068   7.959  0.0302  0.6653  0.0015
23837SOL     OW78750   0.074   9.228  10.863  0.0640 -0.5037 -0.0494
23837SOL    HW178751   0.004   9.203  10.922 -0.2172 -0.2313 -0.2674
23837SOL    HW278752   0.046   9.196  10.777  0.4664 -0.8931 -0.0429
23838SOL     OW78753   1.695   7.512   5.823  0.7121 -0.4900  0.3198
23838SOL    HW178754   1.709   7.556   5.739 -1.1311 -0.8743 -0.2170
23838SOL    HW278755   1.605   7.532   5.846  0.9454 -1.0735  1.8170
23839SOL     OW78756   1.765   1.941   3.657 -0.7653  0.2985  0.0823
23839SOL    HW178757   1.685   1.914   3.612 -0.8036 -0.6440  0.6931
23839SOL    HW278758   1.813   1.860   3.671 -0.0262  0.7714  0.3547
23840SOL     OW78759   2.937  12.704   7.437  1.0163  0.2508 -0.0312
23840SOL    HW178760   2.914  12.653   7.359 -0.9748  0.6436  0.2337
23840SOL    HW278761   2.866  12.685   7.499  1.7583  1.1307  1.1143
23841SOL     OW78762   1.876   5.423   8.341 -0.6468  0.6810  0.2041
23841SOL    HW178763   1.938   5.488   8.306 -0.7807  1.8917  2.0641
23841SOL    HW278764   1.852   5.458   8.427 -2.0727 -0.9977  0.5238
23842SOL     OW78765   1.283   5.624   0.267 -0.1518 -0.0922 -0.1366
23842SOL    HW178766   1.287   5.719   0.258 -1.2463  0.1892  1.7442
23842SOL    HW278767   1.335   5.605   0.345 -1.0124 -0.8778  0.2624
23843SOL     OW78768   3.852   3.838  11.018  0.6189  0.2443  0.1768
23843SOL    HW178769   3.801   3.918  11.026  0.3566 -0.0345  1.8230
23843SOL    HW278770   3.893   3.827  11.104 -1.1687 -2.5276  0.8500
23844SOL     OW78771   6.748   8.057   4.341 -0.1695 -0.1301 -0.4942
23844SOL    HW178772   6.654   8.048   4.360 -0.1195 -0.6637 -0.4976
23844SOL    HW278773   6.751   8.106   4.259 -0.4646 -0.7267 -0.8657
23845SOL     OW78774   0.381   8.044  10.693 -0.5927  0.0384  0.0488
23845SOL    HW178775   0.426   8.014  10.615 -0.4584 -0.2092  0.2239
23845SOL    HW278776   0.378   8.140  10.684  1.6198  0.2399  0.9305
23846SOL     OW78777   1.968  12.515   1.906 -0.1198 -0.3015 -0.0857
23846SOL    HW178778   1.930  12.437   1.946  0.9687 -0.9670 -0.3054
23846SOL    HW278779   1.994  12.570   1.980 -1.4632  0.1780  0.0698
23847SOL     OW78780   8.845   7.689   8.946 -0.1361 -0.1459 -0.2728
23847SOL    HW178781   8.766   7.655   8.988  0.4846 -0.6304  0.5295
23847SOL    HW278782   8.817   7.768   8.900 -1.4262 -1.1911 -1.3532
23848SOL     OW78783   6.195   0.016  11.218 -0.0065 -1.0490 -0.0752
23848SOL    HW178784   6.229  -0.055  11.272 -1.7033 -2.5909 -0.9352
23848SOL    HW278785   6.267   0.037  11.158  0.5778 -1.9265  0.2937
23849SOL     OW78786   0.094   0.700   1.859  0.2803  0.4821  0.0733
23849SOL    HW178787   0.003   0.720   1.839 -0.6799 -0.9280  2.5098
23849SOL    HW278788   0.124   0.646   1.786 -0.8308  0.9192 -0.7297
23850SOL     OW78789   3.680   9.223  10.797 -0.3529 -0.0260  0.7641
23850SOL    HW178790   3.594   9.221  10.838 -0.5056  0.8701  0.5239
23850SOL    HW278791   3.665   9.188  10.709 -0.3460 -0.4588  0.9362
23851SOL     OW78792   4.158   2.275   0.040 -0.3832 -0.3224  0.1482
23851SOL    HW178793   4.161   2.271  -0.055 -2.6292  2.9337 -0.1913
23851SOL    HW278794   4.071   2.243   0.063 -0.5275  0.6065  0.9385
23852SOL     OW78795   3.674   9.070   2.057 -0.3664 -0.6352  0.0120
23852SOL    HW178796   3.725   9.027   1.988  0.1535 -0.3457  0.2146
23852SOL    HW278797   3.628   8.998   2.100 -0.2200 -0.8848 -0.2439
23853SOL     OW78798  10.452   9.494   0.377  0.3430  0.0307  0.1383
23853SOL    HW178799  10.441   9.426   0.444 -0.1290 -0.2002 -0.1638
23853SOL    HW278800  10.527   9.545   0.406  0.0476  0.0302  0.9246
23854SOL     OW78801   0.574   5.756   7.860 -0.3639  0.0803  0.4171
23854SOL    HW178802   0.599   5.764   7.952 -0.2131  0.5488  0.3338
23854SOL    HW278803   0.552   5.663   7.850 -3.6096  0.5718  1.7595
23855SOL     OW78804   7.476   6.718   0.114 -0.5553  0.0247  0.3425
23855SOL    HW178805   7.555   6.685   0.157 -1.9065 -2.7501  0.9114
23855SOL    HW278806   7.481   6.683   0.025 -1.1081 -0.1052  0.3618
23856SOL     OW78807  10.709  11.881   2.508 -0.1916  0.0228 -0.4359
23856SOL    HW178808  10.671  11.795   2.493 -0.9454  0.4403 -1.0361
23856SOL    HW278809  10.733  11.881   2.601 -0.2440 -0.8016 -0.4146
23857SOL     OW78810   9.899   1.513  10.582  0.5950 -0.4874 -0.5338
23857SOL    HW178811   9.888   1.430  10.630 -0.7372 -0.5562 -0.9315
23857SOL    HW278812   9.960   1.563  10.636  2.3392 -2.1481 -0.8383
23858SOL     OW78813   2.828   3.795   8.526  0.1270 -0.4950 -0.1311
23858SOL    HW178814   2.866   3.878   8.552 -0.1590  0.5653 -2.7824
23858SOL    HW278815   2.837   3.739   8.603  3.1406  0.9993  0.7352
23859SOL     OW78816   2.147   8.351   7.248  0.2482  0.2496  0.0457
23859SOL    HW178817   2.189   8.332   7.332  0.3945  0.8065  0.1012
23859SOL    HW278818   2.134   8.265   7.208 -1.2113 -0.1494  1.3049
23860SOL     OW78819   7.692   0.618   6.180 -0.7831  0.5993  0.5532
23860SOL    HW178820   7.760   0.668   6.223  0.3760  0.6522 -1.2319
23860SOL    HW278821   7.735   0.537   6.152 -1.7999  0.0229  0.5772
23861SOL     OW78822   7.688  10.570   2.121 -1.1498  0.2485  0.2266
23861SOL    HW178823   7.617  10.542   2.178 -0.6103 -0.8493  0.3852
23861SOL    HW278824   7.682  10.513   2.044  0.9398 -1.5067  1.2491
23862SOL     OW78825  12.654  12.407   3.473  0.7785  0.5519  0.4324
23862SOL    HW178826  12.561  12.420   3.452  1.1009  1.2219 -0.6514
23862SOL    HW278827  12.693  12.494   3.466  1.5251  0.2494  0.7402
23863SOL     OW78828   9.659  11.186   3.754 -0.2711 -0.3696 -0.3265
23863SOL    HW178829   9.620  11.245   3.819  0.4595 -0.5219  0.2589
23863SOL    HW278830   9.587  11.163   3.696 -1.5674 -2.1928  1.8428
23864SOL     OW78831   5.196   0.614   1.699 -0.0851  0.0949  0.5900
23864SOL    HW178832   5.171   0.692   1.649  0.9689  0.5776  0.7985
23864SOL    HW278833   5.162   0.541   1.648 -0.4206  0.6568 -0.0012
23865SOL     OW78834   1.685  11.603   9.976 -0.4199  0.1824 -0.0670
23865SOL    HW178835   1.779  11.615   9.992 -0.3773  0.3990 -0.4605
23865SOL    HW278836   1.672  11.509   9.980 -0.2902  0.1838  0.5499
23866SOL     OW78837   2.857   1.540  10.878 -0.1152  0.0293 -0.0984
23866SOL    HW178838   2.889   1.481  10.810 -0.3083  1.1313 -1.1700
23866SOL    HW278839   2.908   1.516  10.956 -0.4643 -1.8052 -0.3759
23867SOL     OW78840   3.992   0.292  11.074  0.0933 -0.6632  0.7981
23867SOL    HW178841   4.053   0.365  11.080 -1.3129  0.6579 -0.1422
23867SOL    HW278842   3.909   0.332  11.046 -0.7675 -2.5929  0.3927
23868SOL     OW78843  11.226   1.318   4.866 -0.0410  0.4958 -0.1612
23868SOL    HW178844  11.237   1.362   4.950 -0.4554  0.9691 -0.3467
23868SOL    HW278845  11.131   1.313   4.854 -0.0126 -0.8553  0.0537
23869SOL     OW78846   2.335   0.333   0.024  0.3958 -0.5227 -0.3412
23869SOL    HW178847   2.274   0.311  -0.047 -0.6287 -0.9295  0.6397
23869SOL    HW278848   2.384   0.252   0.039  0.9785 -0.2828 -0.9303
23870SOL     OW78849  12.559   8.587   2.295 -0.1035  0.4924 -0.2575
23870SOL    HW178850  12.643   8.545   2.315 -1.2793 -1.5117  0.7427
23870SOL    HW278851  12.516   8.527   2.235 -1.4207  0.7652  0.3789
23871SOL     OW78852   2.065  11.037   3.911 -0.0217  0.1662 -0.0936
23871SOL    HW178853   2.031  10.978   3.979  0.6081 -0.0904  0.0037
23871SOL    HW278854   2.151  11.065   3.944  0.5234 -0.3754 -1.0241
23872SOL     OW78855   2.469   1.855   0.773  0.3602 -0.0764  0.3561
23872SOL    HW178856   2.379   1.849   0.742  0.4004  4.1145 -1.1741
23872SOL    HW278857   2.464   1.902   0.856  1.1319  2.4172 -0.9031
23873SOL     OW78858   5.241   8.500   1.787 -0.6631 -0.2299  0.1703
23873SOL    HW178859   5.281   8.445   1.720  0.0801  0.1730  0.2739
23873SOL    HW278860   5.165   8.540   1.744 -1.4351 -1.6129  0.2030
23874SOL     OW78861   4.451   7.556  11.221 -0.1236  0.1878 -0.4571
23874SOL    HW178862   4.500   7.631  11.187 -2.6851  2.0771 -0.2194
23874SOL    HW278863   4.473   7.484  11.162  0.8956  1.6161 -1.8805
23875SOL     OW78864   3.230   7.401   7.783  0.3498  0.3396  0.5449
23875SOL    HW178865   3.165   7.445   7.838  1.8643 -1.3603  4.0330
23875SOL    HW278866   3.188   7.320   7.755 -0.2067  0.9074 -0.2967
23876SOL     OW78867   3.232  11.127   0.864 -0.7588 -0.4588 -0.1426
23876SOL    HW178868   3.211  11.210   0.823 -1.2989 -0.0111  0.9985
23876SOL    HW278869   3.313  11.099   0.821 -0.1722  1.0072 -0.0424
23877SOL     OW78870   7.419   0.815  11.277 -0.3084 -0.3116  0.2103
23877SOL    HW178871   7.451   0.819  11.367  0.0539  0.1068  0.0651
23877SOL    HW278872   7.399   0.905  11.255  3.0064  0.1968 -1.3263
23878SOL     OW78873  10.692  11.268  10.035  0.5619 -0.4915 -0.1261
23878SOL    HW178874  10.695  11.287  10.129 -1.0092 -1.6431  0.2054
23878SOL    HW278875  10.727  11.346   9.994  2.1837 -0.3251  1.4437
23879SOL     OW78876   9.343   8.522  10.500 -0.1836 -0.2026  0.0986
23879SOL    HW178877   9.251   8.499  10.488 -1.1108  1.8430  2.2850
23879SOL    HW278878   9.372   8.466  10.573  0.4347 -1.0060 -0.7312
23880SOL     OW78879   2.179   7.882  11.002  0.4408  0.2758  0.2177
23880SOL    HW178880   2.158   7.811  10.941  0.1068  1.1168 -0.6635
23880SOL    HW278881   2.102   7.938  11.001  0.8313  0.8348  0.6655
23881SOL     OW78882   0.329   1.899   2.408  0.3837  0.2414 -0.2480
23881SOL    HW178883   0.316   1.841   2.333  1.4915  1.2479 -1.2607
23881SOL    HW278884   0.396   1.856   2.461 -1.5603 -1.3093  1.1293
23882SOL     OW78885   4.987  11.153   4.493 -0.0033  0.1543  0.5738
23882SOL    HW178886   4.943  11.100   4.427  0.1016  0.3900  0.3153
23882SOL    HW278887   5.076  11.117   4.496 -0.2337 -0.3798  1.1597
23883SOL     OW78888   3.754   7.190   1.936  0.2462 -0.0229 -0.1005
23883SOL    HW178889   3.820   7.122   1.942 -1.9144 -2.2576 -0.0947
23883SOL    HW278890   3.797   7.268   1.971  1.8431 -2.1574  3.2097
23884SOL     OW78891   3.737   4.275   2.063 -0.1657 -0.0485 -0.2924
23884SOL    HW178892   3.748   4.223   2.143 -1.3122  0.0089 -0.0795
23884SOL    HW278893   3.699   4.213   2.000  0.7198 -0.0906 -0.8031
23885SOL     OW78894   1.366   4.143   7.543  0.2177 -0.2552  0.3021
23885SOL    HW178895   1.325   4.125   7.458 -0.7219  0.3104  0.6204
23885SOL    HW278896   1.293   4.159   7.602  0.8711 -0.4879  1.1872
23886SOL     OW78897   4.931   9.217   2.497  0.1666  0.5265 -0.0247
23886SOL    HW178898   4.951   9.207   2.404  0.4622 -2.4843  0.2709
23886SOL    HW278899   4.842   9.182   2.506 -0.7763  2.8726  0.5423
23887SOL     OW78900  12.376   8.928  11.738  0.1319 -0.8419  0.0473
23887SOL    HW178901  12.312   8.879  11.686  0.1971 -0.4100 -0.4453
23887SOL    HW278902  12.341   9.016  11.744 -0.0688 -0.9787  1.0924
23888SOL     OW78903   1.537   7.518  10.417  0.0261 -0.5266  0.0962
23888SOL    HW178904   1.572   7.473  10.494  0.0316  1.0381  1.0765
23888SOL    HW278905   1.442   7.503  10.422 -0.0642  0.1802  0.8739
23889SOL     OW78906   5.277   8.627  10.073 -0.3135 -0.4707 -0.2709
23889SOL    HW178907   5.234   8.641  10.157  0.7819  1.2429  0.0625
23889SOL    HW278908   5.361   8.673  10.081  0.2161 -1.0509 -1.9840
23890SOL     OW78909  11.505   5.173   2.240  0.2280  0.1935  0.4260
23890SOL    HW178910  11.438   5.232   2.275  1.3581  2.3570 -0.8213
23890SOL    HW278911  11.463   5.130   2.166  0.2252  1.6852 -0.4740
23891SOL     OW78912   9.718   7.926   8.715  0.2622  0.1336  0.3032
23891SOL    HW178913   9.638   7.912   8.765 -0.9486  1.6032 -1.1491
23891SOL    HW278914   9.689   7.957   8.630  2.2743 -2.0300 -1.3160
23892SOL     OW78915   5.715  12.559   8.454 -0.1421 -0.0676 -0.6288
23892SOL    HW178916   5.733  12.653   8.467 -0.5866  0.0762 -1.0475
23892SOL    HW278917   5.690  12.528   8.541 -1.3347  0.5096 -0.7505
23893SOL     OW78918   2.690   0.550   1.209 -0.3037  0.4293  0.0578
23893SOL    HW178919   2.750   0.531   1.137 -1.3300 -1.1245 -0.4468
23893SOL    HW278920   2.710   0.484   1.275 -1.8723 -0.6110 -0.4269
23894SOL     OW78921   4.691   8.828   3.073  0.0231 -0.0177  1.0557
23894SOL    HW178922   4.681   8.830   3.168 -1.0859 -0.8262  0.9746
23894SOL    HW278923   4.785   8.833   3.059  0.1496  1.2897  2.1413
23895SOL     OW78924   5.105  10.075   2.956  0.0297  0.5280  0.2251
23895SOL    HW178925   5.175  10.097   3.017 -0.8775  2.3578  0.6935
23895SOL    HW278926   5.142  10.090   2.869  0.6601  0.0271  0.4045
23896SOL     OW78927   7.836   9.547   8.911 -0.3316  0.3107  0.2724
23896SOL    HW178928   7.810   9.582   8.826 -0.7218  0.5452  0.4868
23896SOL    HW278929   7.867   9.623   8.960  0.2669  0.1145  0.2041
23897SOL     OW78930   2.696   0.076   4.407  0.9730 -0.1846 -0.0056
23897SOL    HW178931   2.690   0.135   4.482  1.0409  1.7810 -1.4738
23897SOL    HW278932   2.646  -0.002   4.434 -0.7402  1.2849  1.3362
23898SOL     OW78933   8.493   4.814   5.353 -0.1755  0.1284  0.0946
23898SOL    HW178934   8.503   4.908   5.371  0.7073  0.0449  0.0845
23898SOL    HW278935   8.478   4.810   5.258 -1.4824  0.3347  0.2742
23899SOL     OW78936  12.308  10.399   6.491 -0.2066 -0.4760  0.0836
23899SOL    HW178937  12.255  10.361   6.561  0.2972 -0.6576  0.3722
23899SOL    HW278938  12.317  10.491   6.515 -0.1868 -0.4980  0.1637
23900SOL     OW78939   2.147   2.938   9.320 -0.2660  0.4715  0.2630
23900SOL    HW178940   2.217   2.977   9.268 -0.6831  0.6880 -0.1420
23900SOL    HW278941   2.188   2.919   9.404  0.4236  0.1024 -0.1425
23901SOL     OW78942   8.055   0.228   0.258 -0.6916 -0.0522 -0.3014
23901SOL    HW178943   8.100   0.313   0.261  1.0513 -0.8920 -0.8586
23901SOL    HW278944   7.998   0.228   0.334  0.5788  0.9442  0.6954
23902SOL     OW78945   4.609   5.867   7.959 -0.0676  0.2644  0.4046
23902SOL    HW178946   4.611   5.774   7.981  3.5568  0.2250  0.4807
23902SOL    HW278947   4.572   5.870   7.871 -0.4487 -1.1824  0.4794
23903SOL     OW78948   2.308   4.905   8.217  0.0365  0.2932 -0.1181
23903SOL    HW178949   2.275   4.980   8.167  0.5766  0.5980 -0.0285
23903SOL    HW278950   2.290   4.830   8.161 -1.8599  0.2942  0.4233
23904SOL     OW78951   3.344   0.184  10.440 -0.3753 -0.5187 -0.3696
23904SOL    HW178952   3.379   0.235  10.367  0.8153 -0.5499  0.1532
23904SOL    HW278953   3.394   0.214  10.516 -1.3285 -0.7635  0.3641
23905SOL     OW78954  10.763   0.404   7.080  0.3529  0.3256  0.6774
23905SOL    HW178955  10.857   0.415   7.091  0.8989 -2.8968  0.1242
23905SOL    HW278956  10.732   0.374   7.165  0.4813 -1.9157 -0.0151
23906SOL     OW78957   5.309   9.766   1.384 -0.6373 -0.1751  0.4542
23906SOL    HW178958   5.317   9.692   1.444 -0.3143 -0.9072 -0.4495
23906SOL    HW278959   5.342   9.841   1.432  0.0013 -0.8244  1.0407
23907SOL     OW78960   0.250  10.663   8.650  0.1145  0.1496 -0.4123
23907SOL    HW178961   0.268  10.715   8.571  1.1871 -0.0402 -0.3197
23907SOL    HW278962   0.297  10.710   8.720 -0.2351 -0.0759 -0.0268
23908SOL     OW78963  11.751   8.473  11.646 -0.2163  0.1645 -0.0053
23908SOL    HW178964  11.798   8.525  11.711 -0.7788  0.0228  0.5198
23908SOL    HW278965  11.663   8.462  11.682  0.2330 -2.2017  0.5014
23909SOL     OW78966   2.930   6.156   1.142 -0.2066 -0.2304 -0.2015
23909SOL    HW178967   2.850   6.135   1.190 -0.4555  0.0239 -0.5042
23909SOL    HW278968   2.937   6.251   1.147  0.6631 -0.3162  0.7577
23910SOL     OW78969   8.378  11.322   0.015 -0.1469 -0.0567  0.0060
23910SOL    HW178970   8.473  11.320   0.005 -0.2547 -0.1522 -1.2596
23910SOL    HW278971   8.360  11.270   0.093  0.8187 -0.3164  0.0650
23911SOL     OW78972   8.079   3.759   0.940 -0.0211  0.1372  0.1288
23911SOL    HW178973   8.116   3.742   1.027  0.1781 -0.6530 -0.1022
23911SOL    HW278974   8.154   3.752   0.881  0.3151  2.9189  0.0968
23912SOL     OW78975  10.168   1.507   6.407  0.5654 -0.0114  0.0221
23912SOL    HW178976  10.248   1.543   6.368  1.3670  0.2420  1.8267
23912SOL    HW278977  10.098   1.538   6.349  1.6962  0.3138 -1.2273
23913SOL     OW78978   0.216   9.720   2.796  0.0022 -0.6937  0.0671
23913SOL    HW178979   0.224   9.646   2.856  1.7062 -0.7477 -0.1796
23913SOL    HW278980   0.158   9.689   2.727 -1.6975 -0.7550  1.4365
23914SOL     OW78981  11.251   9.427   2.650  0.2146  0.1814 -0.4513
23914SOL    HW178982  11.169   9.384   2.675 -0.4675  1.1498 -0.9539
23914SOL    HW278983  11.232   9.465   2.565  0.5070  2.2156  0.3521
23915SOL     OW78984   3.055   5.492   1.956  0.3783  0.3902 -0.0896
23915SOL    HW178985   3.026   5.574   1.916  0.5035  0.8958  0.8352
23915SOL    HW278986   3.143   5.479   1.920  0.4269  0.7515 -0.1115
23916SOL     OW78987  12.666  12.105   2.088 -0.8807 -0.1784 -0.1826
23916SOL    HW178988  12.669  12.170   2.018 -0.0892 -0.3626 -0.3248
23916SOL    HW278989  12.738  12.045   2.069 -1.4562 -0.9727  0.0773
23917SOL     OW78990   4.581   8.075   4.226 -0.5096  0.2156 -0.0197
23917SOL    HW178991   4.535   8.106   4.148  0.0459  1.6057  0.1607
23917SOL    HW278992   4.561   7.982   4.231 -0.9198  0.1954 -1.5634
23918SOL     OW78993   5.440   7.806   3.858 -0.5893  0.0003  0.3453
23918SOL    HW178994   5.457   7.816   3.951 -0.4282  0.1183  0.3030
23918SOL    HW278995   5.410   7.893   3.830 -0.0327  0.1345  0.1572
23919SOL     OW78996   6.487   8.164   2.623  0.1643 -0.2784 -0.7048
23919SOL    HW178997   6.411   8.108   2.612  0.0619 -1.1214  2.9734
23919SOL    HW278998   6.451   8.253   2.628 -0.7459 -0.7079  1.4847
23920SOL     OW78999  11.921   2.706  10.787  0.2239 -0.2107 -0.6158
23920SOL    HW179000  11.938   2.774  10.721  1.2006 -1.1189 -1.3480
23920SOL    HW279001  12.007   2.689  10.826 -0.3065  0.1545  0.7730
23921SOL     OW79002   9.663   7.167   4.715 -0.2102  0.6229 -0.4633
23921SOL    HW179003   9.629   7.241   4.766  0.4952  0.5890  0.0781
23921SOL    HW279004   9.667   7.095   4.778  2.1208  0.9726 -0.0941
23922SOL     OW79005   4.598   8.494   8.142  0.1274  0.3658 -0.6222
23922SOL    HW179006   4.650   8.429   8.096  0.1853  0.0559 -0.1246
23922SOL    HW279007   4.595   8.463   8.233  0.3260  1.1495 -0.3358
23923SOL     OW79008   3.275   0.956  10.211 -0.1728  0.1397 -0.2786
23923SOL    HW179009   3.341   0.939  10.143  0.5930  0.1358  0.4513
23923SOL    HW279010   3.306   1.034  10.256  1.0166 -1.5587  2.0735
23924SOL     OW79011   5.717  10.259  10.021 -0.0899  0.5444  0.0972
23924SOL    HW179012   5.669  10.181   9.992 -0.1421  0.4301  0.4860
23924SOL    HW279013   5.695  10.326   9.957  0.4687  0.0651 -0.6094
23925SOL     OW79014   6.322   8.651   4.910 -0.1772  0.5774 -0.3024
23925SOL    HW179015   6.309   8.684   4.999 -0.4505 -0.8329  0.2124
23925SOL    HW279016   6.401   8.694   4.880  0.3830  0.4636  0.9440
23926SOL     OW79017   8.862   9.609  11.632 -0.1126 -0.3163 -0.2141
23926SOL    HW179018   8.778   9.635  11.670 -0.4168 -0.4892 -0.7640
23926SOL    HW279019   8.868   9.657  11.550 -0.1585 -1.0979 -0.6854
23927SOL     OW79020   9.587  12.426   4.230 -0.2364 -0.2484  0.5051
23927SOL    HW179021   9.515  12.364   4.221 -0.4521 -0.0851  1.0963
23927SOL    HW279022   9.655  12.377   4.277 -0.2252 -0.1851  0.5555
23928SOL     OW79023   5.210   6.195  12.583 -0.2455  0.4304 -0.5186
23928SOL    HW179024   5.305   6.195  12.594 -0.4637  1.1155  2.0729
23928SOL    HW279025   5.184   6.287  12.588 -1.1685  0.1390  0.7156
23929SOL     OW79026   9.582   7.878   5.673 -0.4636  0.0095 -0.7912
23929SOL    HW179027   9.521   7.841   5.736  1.1936 -2.2706 -0.4140
23929SOL    HW279028   9.665   7.835   5.692  1.4253  3.2555 -1.0242
23930SOL     OW79029  11.800  11.336  12.077  0.0012  0.4767 -0.0034
23930SOL    HW179030  11.827  11.416  12.032  2.0297  0.8473  1.6991
23930SOL    HW279031  11.834  11.346  12.166 -3.5456 -0.3325  1.6224
23931SOL     OW79032   0.126   8.895  10.643 -0.3934 -0.0132  0.4311
23931SOL    HW179033   0.203   8.869  10.693 -1.3731 -2.1961  0.9146
23931SOL    HW279034   0.146   8.868  10.553 -0.1603  0.4505  0.3400
23932SOL     OW79035   4.319   7.865   9.810  0.3786  0.0120 -0.3335
23932SOL    HW179036   4.254   7.919   9.766  0.1309  0.9676  1.1339
23932SOL    HW279037   4.271   7.824   9.882  0.9090 -1.0037 -0.5457
23933SOL     OW79038  11.340  11.950   6.134 -0.2366  0.1620 -0.0752
23933SOL    HW179039  11.359  11.963   6.041 -1.3944  0.5694 -0.2784
23933SOL    HW279040  11.370  12.030   6.176 -0.5968  0.3922 -0.2490
23934SOL     OW79041  10.607   1.953   5.000  0.3302 -0.4528  0.0163
23934SOL    HW179042  10.698   1.978   4.989  0.4118  0.3419  2.1278
23934SOL    HW279043  10.563   2.033   5.028 -0.9572 -0.9264 -0.5530
23935SOL     OW79044   9.552   1.201   6.880  0.1129  0.0923  0.4111
23935SOL    HW179045   9.466   1.244   6.873  0.1452  0.1712  0.4894
23935SOL    HW279046   9.594   1.216   6.795  0.8782  1.8513  1.0345
23936SOL     OW79047   3.145   2.675   0.774 -0.0689  0.6585 -0.5869
23936SOL    HW179048   3.178   2.608   0.714  1.5724  1.6106 -0.8024
23936SOL    HW279049   3.177   2.647   0.860 -1.3039 -0.0025 -0.3195
23937SOL     OW79050   5.226   7.870  11.035 -0.5097 -0.2360 -0.2214
23937SOL    HW179051   5.282   7.858  11.111 -0.3916 -0.5143 -0.3484
23937SOL    HW279052   5.262   7.945  10.989  0.5713 -1.2085 -1.0095
23938SOL     OW79053  10.208   3.115  10.155 -0.1885  0.2145  0.4940
23938SOL    HW179054  10.271   3.185  10.136  1.8159 -1.7902 -0.8516
23938SOL    HW279055  10.123   3.153  10.138  0.9155  1.8902 -1.8511
23939SOL     OW79056   5.611   7.443  12.590 -0.0259  0.2240  0.5044
23939SOL    HW179057   5.593   7.438  12.496  3.4631 -1.1613 -0.2578
23939SOL    HW279058   5.634   7.535  12.605 -1.2787  0.6035  0.1897
23940SOL     OW79059   6.485   1.361   7.043 -0.2315  0.0676 -0.2996
23940SOL    HW179060   6.399   1.321   7.030  0.0418 -0.6843  0.1458
23940SOL    HW279061   6.467   1.444   7.087 -0.6899 -0.3863  0.3767
23941SOL     OW79062   0.768  11.041   4.526 -0.3035 -0.0396  0.0078
23941SOL    HW179063   0.864  11.045   4.536 -0.2030 -0.8742 -0.4893
23941SOL    HW279064   0.735  11.049   4.615  0.2926 -1.0890  0.3397
23942SOL     OW79065  11.364   0.332  10.308  0.3554  0.1660  0.1431
23942SOL    HW179066  11.292   0.270  10.296 -0.5651  1.3550 -0.6957
23942SOL    HW279067  11.442   0.277  10.317 -0.2385 -1.0904 -1.8315
23943SOL     OW79068   2.774  11.365   8.713 -0.1608 -0.5744  0.4168
23943SOL    HW179069   2.725  11.446   8.699  0.1840 -0.6906 -1.9507
23943SOL    HW279070   2.708  11.300   8.737 -0.8324 -0.1549 -0.2359
23944SOL     OW79071   1.021   4.894   8.592  0.2144  0.0897  0.0850
23944SOL    HW179072   1.072   4.842   8.655 -0.5183 -0.3646  0.3204
23944SOL    HW279073   0.965   4.948   8.647 -1.7621 -1.6154 -0.1089
23945SOL     OW79074   3.209   1.451   8.617  0.2159  0.3596 -0.0902
23945SOL    HW179075   3.135   1.492   8.662 -0.7091 -1.8038  0.4676
23945SOL    HW279076   3.255   1.402   8.686  0.6768 -0.3751 -0.9045
23946SOL     OW79077   9.811   2.605   7.268  0.1256 -0.2885 -0.0594
23946SOL    HW179078   9.728   2.652   7.275  0.4240  0.5403 -1.6575
23946SOL    HW279079   9.869   2.649   7.331 -0.1204  0.3376 -0.2661
23947SOL     OW79080   9.179   0.240   2.703  0.0867 -0.2818 -0.5620
23947SOL    HW179081   9.190   0.335   2.707  0.6000 -0.3754  1.1092
23947SOL    HW279082   9.158   0.222   2.612  1.5041  1.2870 -1.2631
23948SOL     OW79083   7.087   0.765  11.727  0.4725 -0.0239  0.1946
23948SOL    HW179084   7.134   0.798  11.802 -0.5707  1.5028  0.2132
23948SOL    HW279085   7.029   0.837  11.700 -1.5145 -1.6186 -0.0882
23949SOL     OW79086   0.997  10.055   4.030  0.1135 -0.1079  0.2128
23949SOL    HW179087   0.918  10.088   4.072  0.0393 -0.8183  0.6590
23949SOL    HW279088   1.065  10.059   4.097  0.6675  1.2017 -0.3871
23950SOL     OW79089  12.523   2.493  10.310  0.1135  0.5939  0.4305
23950SOL    HW179090  12.451   2.551  10.337 -0.0147  0.6478 -0.0171
23950SOL    HW279091  12.507   2.412  10.359 -0.5173  0.4434 -0.0109
23951SOL     OW79092   0.505  10.992   2.189 -0.0274  0.2147 -0.2270
23951SOL    HW179093   0.450  10.972   2.265 -0.5806 -0.8538 -0.8811
23951SOL    HW279094   0.463  11.067   2.148 -1.1544 -0.7258 -0.8415
23952SOL     OW79095   0.947  12.448   7.174 -0.3410 -0.4342 -0.0395
23952SOL    HW179096   0.911  12.535   7.192 -0.9699 -0.5562 -0.6240
23952SOL    HW279097   0.869  12.393   7.162  0.0249 -0.6456 -1.6308
23953SOL     OW79098   9.750   0.149   5.780 -0.1663  0.4296 -0.1102
23953SOL    HW179099   9.672   0.105   5.744  0.1093 -0.4156  0.2789
23953SOL    HW279100   9.716   0.228   5.821 -1.1531 -0.8854  1.7875
23954SOL     OW79101   0.593   3.966   7.719  0.1405 -0.4110  0.0098
23954SOL    HW179102   0.515   3.925   7.755 -0.1642  0.1172 -0.0365
23954SOL    HW279103   0.602   3.929   7.631 -0.8289  0.4925 -0.4992
23955SOL     OW79104   4.665   3.419   9.826 -0.1259  0.3465  0.3371
23955SOL    HW179105   4.628   3.507   9.837 -1.1855  0.3779 -2.5062
23955SOL    HW279106   4.659   3.380   9.913  2.3397  3.6996  2.2602
23956SOL     OW79107  12.317   8.464  12.174 -0.3891 -0.0022 -0.0810
23956SOL    HW179108  12.412   8.455  12.166 -0.2024 -0.1937  1.7741
23956SOL    HW279109  12.283   8.376  12.155 -0.1299 -0.0980 -0.1082
23957SOL     OW79110   9.124  12.209   8.118  0.8643 -0.0840  0.2022
23957SOL    HW179111   9.060  12.144   8.090  1.5343 -0.8218  0.3436
23957SOL    HW279112   9.072  12.284   8.147 -0.0216 -1.2769  1.8957
23958SOL     OW79113  10.760   0.922   4.099  0.3720  0.0768  0.6171
23958SOL    HW179114  10.778   0.875   4.018  0.6332 -2.5443  2.0689
23958SOL    HW279115  10.780   1.013   4.079  1.1696 -0.5846 -2.0139
23959SOL     OW79116   7.081   6.311   9.417 -0.2825 -0.2210  0.6995
23959SOL    HW179117   7.112   6.235   9.368  0.8472 -0.1042  1.1895
23959SOL    HW279118   7.153   6.374   9.410 -1.4977  1.0955 -0.3188
23960SOL     OW79119   1.771  10.954   6.737 -0.1923  0.0051 -0.4428
23960SOL    HW179120   1.735  11.043   6.737 -1.2930 -0.4309  0.0210
23960SOL    HW279121   1.764  10.926   6.828  0.2805 -0.5111 -0.5611
23961SOL     OW79122   2.660   6.783   0.962 -0.0590  0.0279  0.0507
23961SOL    HW179123   2.597   6.720   0.926  1.2270 -0.3392 -1.7192
23961SOL    HW279124   2.653   6.859   0.905 -1.0676  1.2563  1.7306
23962SOL     OW79125   6.350   9.243  10.781 -0.1098  0.0299 -0.5627
23962SOL    HW179126   6.341   9.316  10.720 -0.4084 -0.0599 -0.6263
23962SOL    HW279127   6.283   9.260  10.848 -0.1238 -0.1428 -0.5351
23963SOL     OW79128   0.685   6.680   9.846 -0.3075  0.2532  0.1469
23963SOL    HW179129   0.779   6.691   9.862 -0.3908 -0.3748  1.1504
23963SOL    HW279130   0.657   6.765   9.811  0.7043  0.3045 -0.6076
23964SOL     OW79131   6.676   0.011   7.942 -0.5640  0.3173  0.0860
23964SOL    HW179132   6.588   0.022   7.978 -0.6944  1.0156 -0.4254
23964SOL    HW279133   6.731   0.070   7.994 -0.8242  1.6292 -1.0773
23965SOL     OW79134   5.575   9.920  12.015 -0.0296  0.1126  0.1894
23965SOL    HW179135   5.495   9.936  12.064 -0.4413 -0.3775 -0.3222
23965SOL    HW279136   5.623   9.855  12.067  0.3815  0.9248  0.8612
23966SOL     OW79137   3.916   1.205   8.323 -0.0063  0.0293  0.7840
23966SOL    HW179138   3.999   1.235   8.286 -0.5039 -1.3339 -1.7139
23966SOL    HW279139   3.867   1.285   8.342  0.9681  0.8294  0.0115
23967SOL     OW79140   6.993   9.480   2.518 -0.5515 -0.8031  0.0552
23967SOL    HW179141   6.925   9.491   2.585 -0.9522 -0.4784 -0.3893
23967SOL    HW279142   7.038   9.400   2.542 -1.6716 -1.5143 -0.1218
23968SOL     OW79143   6.224   5.724   6.331  0.0957 -0.1011  0.5857
23968SOL    HW179144   6.301   5.685   6.372 -0.4385 -1.7268  0.1261
23968SOL    HW279145   6.154   5.712   6.394 -0.3335 -1.0017 -0.0341
23969SOL     OW79146   1.824   4.198  11.328 -0.0601 -0.1270  0.0256
23969SOL    HW179147   1.876   4.243  11.395  0.2188 -0.1208 -0.1937
23969SOL    HW279148   1.817   4.262  11.256 -0.5886 -0.0316  0.1562
23970SOL     OW79149   7.001   9.271   3.738  0.2897 -0.2844  0.4903
23970SOL    HW179150   6.985   9.294   3.830 -0.3342 -1.2910  0.6518
23970SOL    HW279151   7.072   9.206   3.742  2.2157  1.6883  0.0250
23971SOL     OW79152   8.187   0.264   2.484  0.3754 -0.0083  0.0148
23971SOL    HW179153   8.273   0.277   2.522 -0.0995  2.9727  0.3128
23971SOL    HW279154   8.196   0.185   2.430  3.6148  0.8935 -0.9614
23972SOL     OW79155   9.454   9.815   6.779  0.2942  0.2101 -0.1783
23972SOL    HW179156   9.462   9.909   6.795 -0.4296  0.7766 -2.6724
23972SOL    HW279157   9.530   9.794   6.724 -0.8384 -0.0520 -1.7391
23973SOL     OW79158   0.066   9.889   9.343 -1.0182  0.1969 -0.5359
23973SOL    HW179159   0.017   9.969   9.363  0.4738  1.0833 -0.2812
23973SOL    HW279160   0.033   9.825   9.407 -1.4924  0.8983 -0.0503
23974SOL     OW79161   8.143   2.631   4.139  0.4513  0.1547 -0.2421
23974SOL    HW179162   8.208   2.590   4.083 -0.5633 -0.8004 -0.7658
23974SOL    HW279163   8.064   2.636   4.085 -0.8708 -1.7392  1.3425
23975SOL     OW79164   4.669   1.055   8.736  0.1797 -0.1021  0.4766
23975SOL    HW179165   4.674   0.985   8.671 -0.8283  0.5280 -0.3005
23975SOL    HW279166   4.740   1.115   8.714 -0.3061  0.2314 -0.2014
23976SOL     OW79167   0.748   6.462   7.505 -0.0644 -0.3168 -0.7094
23976SOL    HW179168   0.677   6.492   7.448  1.1186 -0.4848 -2.3148
23976SOL    HW279169   0.804   6.408   7.449 -0.2809 -2.7945  1.2449
23977SOL     OW79170   6.483   1.872   1.235  0.1315  0.1883  0.1116
23977SOL    HW179171   6.492   1.847   1.143 -0.9544 -0.2886  0.1219
23977SOL    HW279172   6.519   1.961   1.239  2.2240 -0.5872 -0.3128
23978SOL     OW79173   2.484   8.931   3.062 -0.3987 -0.6054  0.1336
23978SOL    HW179174   2.525   8.853   3.026 -0.5410 -0.5243 -0.2090
23978SOL    HW279175   2.537   9.004   3.030 -1.3443 -0.4307 -1.0978
23979SOL     OW79176   7.730   6.199   4.850 -0.0733 -0.1365 -0.2847
23979SOL    HW179177   7.774   6.244   4.778 -0.2972 -1.7139 -1.4865
23979SOL    HW279178   7.796   6.138   4.883  0.5217  1.5945  1.9085
23980SOL     OW79179  10.667  12.609   2.171  0.2805  0.0049  0.2021
23980SOL    HW179180  10.622  12.615   2.087 -1.3564 -0.6730  0.9702
23980SOL    HW279181  10.755  12.578   2.149 -0.5394 -1.5429 -1.1834
23981SOL     OW79182   9.091   1.663  10.709 -0.5675 -0.1621 -0.5866
23981SOL    HW179183   9.125   1.599  10.771  1.0635 -0.1020 -1.3569
23981SOL    HW279184   9.042   1.725  10.762  1.0925  0.0966  0.7142
23982SOL     OW79185   4.738  10.310   3.742  0.6319  0.0606  0.3023
23982SOL    HW179186   4.680  10.338   3.671  0.1220  1.5874  1.2683
23982SOL    HW279187   4.705  10.224   3.767  0.7385 -0.4503 -1.1924
23983SOL     OW79188   7.235  10.437   0.943  0.1643 -0.6129 -0.1006
23983SOL    HW179189   7.181  10.455   1.020  1.3389 -2.2192  1.1555
23983SOL    HW279190   7.173  10.411   0.876 -0.7146 -1.6946  1.0918
23984SOL     OW79191   9.040  11.403   3.204  0.2188  0.6340 -0.5444
23984SOL    HW179192   8.952  11.366   3.213  0.7696 -0.4746  0.5979
23984SOL    HW279193   9.075  11.361   3.126  0.2931 -0.1510 -0.1015
23985SOL     OW79194   3.527   5.239   2.338 -0.1223 -0.0704  0.0350
23985SOL    HW179195   3.502   5.264   2.427 -1.2108 -0.6473 -0.0963
23985SOL    HW279196   3.465   5.285   2.282 -0.5285 -1.0461 -0.3369
23986SOL     OW79197   5.223   8.791  11.989  0.0388  0.8886  0.4953
23986SOL    HW179198   5.278   8.833  12.055  0.7984  0.6660  0.0053
23986SOL    HW279199   5.284   8.758  11.923 -0.6849  0.7425 -0.1168
23987SOL     OW79200   6.419   5.084   0.457 -0.3473  0.3643  0.1226
23987SOL    HW179201   6.455   5.168   0.428  2.1967 -1.1276 -1.4658
23987SOL    HW279202   6.351   5.064   0.392  2.6621 -1.1261 -2.8415
23988SOL     OW79203  10.837   4.123  12.524 -0.3274 -0.0281  0.5807
23988SOL    HW179204  10.820   4.137  12.431  0.6765  1.6106  0.6059
23988SOL    HW279205  10.921   4.077  12.526 -0.5106 -0.3632  0.6799
23989SOL     OW79206   4.233   5.939   3.329  0.0448  1.1201  0.0820
23989SOL    HW179207   4.321   5.919   3.361  0.7703  1.3010 -1.6844
23989SOL    HW279208   4.202   6.009   3.386  1.1266  1.2063  0.5933
23990SOL     OW79209   6.675   9.396   9.211  0.0365 -0.0335 -0.2610
23990SOL    HW179210   6.731   9.474   9.217  1.6474 -1.2252  1.2845
23990SOL    HW279211   6.735   9.326   9.184 -0.4284 -1.5579  2.3660
23991SOL     OW79212   5.183   0.591   0.861  0.7820 -0.5568 -0.1504
23991SOL    HW179213   5.227   0.547   0.934 -1.8597 -2.4948  0.3888
23991SOL    HW279214   5.145   0.521   0.809 -2.7855  0.9229  0.1734
23992SOL     OW79215   1.728   9.823   6.904  0.1575 -0.1307 -0.9931
23992SOL    HW179216   1.805   9.799   6.853  0.8161 -0.5362  0.1603
23992SOL    HW279217   1.739   9.779   6.988 -0.9762  0.3869 -0.5409
23993SOL     OW79218  12.651  11.722   3.147  0.1751  0.2332  0.8551
23993SOL    HW179219  12.720  11.781   3.119 -0.2132  2.0225  3.3038
23993SOL    HW279220  12.570  11.773   3.139 -1.1648 -2.0573 -2.7059
23994SOL     OW79221   3.744   9.700   9.224  0.1747 -0.1280  0.6651
23994SOL    HW179222   3.749   9.646   9.145  0.6720 -0.2572  0.7826
23994SOL    HW279223   3.664   9.752   9.213 -0.1860 -0.7235  0.4434
23995SOL     OW79224   4.681   5.170  11.355  0.1767 -0.2442  0.3674
23995SOL    HW179225   4.607   5.197  11.409  0.6593  3.8668 -0.7090
23995SOL    HW279226   4.754   5.164  11.417 -0.3732 -1.1985  0.9504
23996SOL     OW79227   6.367  10.659   5.541 -0.0549  0.2088  0.3774
23996SOL    HW179228   6.325  10.669   5.626  0.2836  0.6488  0.4917
23996SOL    HW279229   6.450  10.616   5.561  1.1033  2.4002  0.5658
23997SOL     OW79230   9.423   2.158   4.013 -0.3872  0.4327  0.3075
23997SOL    HW179231   9.514   2.163   4.043  0.4438 -0.0827 -1.9359
23997SOL    HW279232   9.394   2.070   4.038 -1.1513  1.4000  3.1634
23998SOL     OW79233  11.985   4.624   8.762  0.1283 -0.1874 -0.0466
23998SOL    HW179234  12.013   4.716   8.752  0.2187 -0.1891  0.1738
23998SOL    HW279235  11.986   4.610   8.857  1.8144 -0.9338 -0.1363
23999SOL     OW79236   8.322   5.830  12.031  0.2596 -0.6105 -0.5205
23999SOL    HW179237   8.405   5.817  12.077  0.8711  0.9963 -1.0813
23999SOL    HW279238   8.347   5.844  11.940 -0.4541  1.2995 -0.4774
24000SOL     OW79239  12.097   3.441   7.661 -0.1988  0.4291  0.2471
24000SOL    HW179240  12.086   3.434   7.567 -0.3983  2.2116  0.1013
24000SOL    HW279241  12.188   3.469   7.672  0.5713 -2.0796  0.7487
24001SOL     OW79242   2.195   0.129   8.949 -0.0958 -0.3926  0.0661
24001SOL    HW179243   2.216   0.125   8.856  1.1734 -1.6542  0.3685
24001SOL    HW279244   2.280   0.122   8.993 -0.8919 -4.1293  1.3555
24002SOL     OW79245   9.381   0.186   0.959 -0.1541  0.0050  0.2444
24002SOL    HW179246   9.355   0.199   1.050 -0.5615 -1.3389  0.3376
24002SOL    HW279247   9.311   0.227   0.908  0.7059  1.9318  0.4886
24003SOL     OW79248  12.247  10.879   9.723  0.2087  0.1490 -0.1778
24003SOL    HW179249  12.325  10.824   9.731 -1.3253 -2.3758 -1.2721
24003SOL    HW279250  12.249  10.910   9.633  0.1304  0.3747 -0.1021
24004SOL     OW79251   0.779  10.682  10.914 -0.3369 -0.5331 -0.1813
24004SOL    HW179252   0.700  10.736  10.916  0.3630  0.5265  1.3397
24004SOL    HW279253   0.820  10.697  11.000  0.9310 -1.9227 -0.5091
24005SOL     OW79254   5.617   1.474   0.159  0.2053  0.4474 -0.0944
24005SOL    HW179255   5.616   1.388   0.117 -1.8202 -0.3451  1.3764
24005SOL    HW279256   5.699   1.475   0.209 -0.0794 -0.9969  0.4738
24006SOL     OW79257   1.254  11.718   7.794 -0.5922  0.5918  1.2083
24006SOL    HW179258   1.343  11.754   7.793 -0.5411  0.4596  0.7558
24006SOL    HW279259   1.207  11.769   7.728  0.0534 -1.5489 -1.0878
24007SOL     OW79260  12.517   9.059   8.662  0.2605  0.3514  0.3761
24007SOL    HW179261  12.592   9.032   8.715 -0.8673  0.4826  2.1138
24007SOL    HW279262  12.460   8.982   8.661 -0.4304  0.8448  0.6836
24008SOL     OW79263  11.788   0.208  11.771  0.8163  0.0451 -0.3896
24008SOL    HW179264  11.840   0.282  11.739  0.2562  0.1740 -1.0056
24008SOL    HW279265  11.822   0.192  11.859 -0.0861  2.0120  0.3660
24009SOL     OW79266  12.028   1.520   1.544  0.0985 -0.6459  0.2509
24009SOL    HW179267  11.978   1.571   1.608 -1.8792 -0.4276 -1.3324
24009SOL    HW279268  12.085   1.584   1.502  1.1568 -0.7258  1.5061
24010SOL     OW79269   5.710   4.027   7.313  0.2746 -0.0868  0.1630
24010SOL    HW179270   5.666   4.039   7.229  1.2405  0.6348 -0.2568
24010SOL    HW279271   5.772   4.100   7.319  0.1409 -0.0569  1.5597
24011SOL     OW79272   9.351   3.564   6.286 -0.9939  0.3520 -0.1128
24011SOL    HW179273   9.333   3.641   6.339  0.0210 -0.2530  1.1529
24011SOL    HW279274   9.414   3.594   6.220 -0.8836  0.6798  0.1420
24012SOL     OW79275   7.588  10.203   8.939 -0.3026 -0.8460  0.2954
24012SOL    HW179276   7.553  10.223   9.026  1.4099 -2.7471  1.5080
24012SOL    HW279277   7.576  10.109   8.929  2.4564 -1.2663 -0.0287
24013SOL     OW79278   5.407  10.733   7.157 -0.0224 -0.3917  0.0998
24013SOL    HW179279   5.435  10.817   7.123  0.8237 -0.8183 -0.2989
24013SOL    HW279280   5.386  10.750   7.249  3.4194 -0.3507  1.0385
24014SOL     OW79281   4.083  11.493   6.524  0.4288 -0.2804  0.5563
24014SOL    HW179282   4.122  11.447   6.450 -0.0916 -0.3365  0.3105
24014SOL    HW279283   3.992  11.462   6.526  0.5741 -0.6618  1.5346
24015SOL     OW79284   0.241  11.214   3.030 -0.1283 -0.0024 -0.0293
24015SOL    HW179285   0.332  11.231   3.006  0.6034 -1.0953  1.7741
24015SOL    HW279286   0.222  11.129   2.992 -0.0804 -0.1992  0.3830
24016SOL     OW79287  10.591   1.823   3.274  0.5161  0.2190  0.3468
24016SOL    HW179288  10.592   1.918   3.279  2.0928  0.1698  2.8357
24016SOL    HW279289  10.513   1.797   3.322  0.4885  0.2401  0.3142
24017SOL     OW79290   6.989   9.571   7.427  0.8877 -0.0132 -0.1631
24017SOL    HW179291   6.930   9.501   7.399  0.4520  0.7542 -1.2331
24017SOL    HW279292   7.071   9.552   7.381  1.3103 -0.7464  0.8606
24018SOL     OW79293   1.214   5.742  12.233  0.4930 -0.9641 -0.7035
24018SOL    HW179294   1.209   5.773  12.143  1.3340 -1.4665 -0.9268
24018SOL    HW279295   1.302   5.707  12.242  0.3906 -0.9944  0.2937
24019SOL     OW79296   2.826   5.638  10.250  0.1157 -0.8021 -0.4626
24019SOL    HW179297   2.774   5.692  10.190 -0.0314  0.6146  0.8581
24019SOL    HW279298   2.761   5.589  10.300  0.1608 -0.8200 -0.4218
24020SOL     OW79299  11.912  11.774  10.500  0.0621 -0.1258 -0.3466
24020SOL    HW179300  11.837  11.723  10.469 -0.6392  1.3004 -1.0925
24020SOL    HW279301  11.982  11.709  10.511 -0.9335 -1.3116 -0.7783
24021SOL     OW79302   7.686  12.360   4.527  0.6060  0.5114  0.2587
24021SOL    HW179303   7.712  12.436   4.475 -0.2212  0.4454 -0.2698
24021SOL    HW279304   7.749  12.358   4.599  0.0328  2.3164  0.8753
24022SOL     OW79305   4.094  11.266   2.864  0.1281  0.0263  0.2826
24022SOL    HW179306   4.065  11.289   2.953 -0.0075 -1.1686  0.5602
24022SOL    HW279307   4.065  11.176   2.852 -0.8748  0.5299 -1.4221
24023SOL     OW79308   2.677   0.450   0.858  0.7003 -0.0671  0.4852
24023SOL    HW179309   2.742   0.380   0.857  0.4548 -0.3374 -2.2330
24023SOL    HW279310   2.724   0.529   0.832  0.1291 -0.1068 -0.7205
24024SOL     OW79311   2.453   9.832   0.328 -0.7606 -0.2741 -0.2827
24024SOL    HW179312   2.515   9.796   0.391  1.3871  1.0619 -1.4677
24024SOL    HW279313   2.409   9.903   0.374  1.9080  1.7307 -0.5779
24025SOL     OW79314  10.657   3.391  11.112  0.2952  0.3171 -0.2026
24025SOL    HW179315  10.574   3.348  11.090  0.0495  0.8156 -0.2457
24025SOL    HW279316  10.648   3.480  11.079  0.9113  0.3289 -0.3517
24026SOL     OW79317   0.973   4.078   6.365  0.1740  0.0003  0.2909
24026SOL    HW179318   0.972   4.019   6.289 -1.4236  1.2935 -0.7726
24026SOL    HW279319   0.881   4.101   6.378  0.3352 -0.5136  2.9504
24027SOL     OW79320   4.173  11.267   3.534  0.3026 -0.1142 -0.3544
24027SOL    HW179321   4.089  11.228   3.512  0.0553  0.5113 -0.5417
24027SOL    HW279322   4.199  11.315   3.456  0.0740  0.9978  0.2309
24028SOL     OW79323   7.213   6.915   1.051  0.2036 -0.1085 -0.0114
24028SOL    HW179324   7.199   6.834   1.003  0.7561 -0.0130 -0.3382
24028SOL    HW279325   7.157   6.907   1.128 -0.4298 -0.4123 -0.4896
24029SOL     OW79326  10.921   2.061   4.137 -0.0794 -0.4338 -0.2685
24029SOL    HW179327  10.905   1.966   4.137 -1.0555 -0.2759  0.5114
24029SOL    HW279328  10.873   2.093   4.061 -0.9564 -0.3725  0.3073
24030SOL     OW79329   6.698   9.023   4.667 -0.4344 -0.1186  0.1720
24030SOL    HW179330   6.775   9.008   4.613 -0.7469  0.3052 -0.3952
24030SOL    HW279331   6.646   9.086   4.618 -0.8050  0.1380  0.8881
24031SOL     OW79332   0.325  10.338   5.175 -0.3079  0.4317  0.3039
24031SOL    HW179333   0.382  10.372   5.243  1.8970  0.0366 -1.2291
24031SOL    HW279334   0.320  10.244   5.192 -1.4261  0.6082  1.0461
24032SOL     OW79335   1.657  10.286   8.752  0.0831  0.0249 -0.1264
24032SOL    HW179336   1.669  10.374   8.786  1.2416 -0.3870  0.5882
24032SOL    HW279337   1.617  10.299   8.666  2.0458  1.3646 -0.9012
24033SOL     OW79338  12.488  10.904   7.190  0.0641 -0.3677  0.1776
24033SOL    HW179339  12.523  10.845   7.256  2.0724 -0.4957 -0.9291
24033SOL    HW279340  12.531  10.987   7.205  0.5664 -0.4027 -0.9560
24034SOL     OW79341   3.663  10.224  11.175  0.8704  0.1235  0.0472
24034SOL    HW179342   3.569  10.224  11.161  0.9121 -2.1045 -0.6267
24034SOL    HW279343   3.674  10.229  11.270  0.1221  1.1195  0.0924
24035SOL     OW79344   9.590   0.518   5.908  0.0510 -0.2412 -0.0598
24035SOL    HW179345   9.562   0.590   5.964 -2.3770 -0.9129 -0.3302
24035SOL    HW279346   9.625   0.561   5.830 -0.3194  0.6491  0.2553
24036SOL     OW79347   9.992   8.921   2.055  0.2313 -0.1128 -0.4851
24036SOL    HW179348   9.988   8.835   2.097  0.2338  0.1340  0.0321
24036SOL    HW279349   9.908   8.962   2.077  0.5940  0.3653  0.0561
24037SOL     OW79350   0.613   3.297   9.046 -0.2006 -0.2758 -0.4445
24037SOL    HW179351   0.627   3.206   9.074  0.3573 -0.2804 -0.7171
24037SOL    HW279352   0.597   3.291   8.952  0.7493 -0.0177 -0.6325
24038SOL     OW79353   8.268  11.649   0.129  0.0273  0.6306 -0.0214
24038SOL    HW179354   8.308  11.733   0.108  0.1336  0.6011  0.0602
24038SOL    HW279355   8.336  11.585   0.109 -0.3698  0.4930 -0.9656
24039SOL     OW79356   6.748   9.262   1.837  0.4789  0.5722 -0.0116
24039SOL    HW179357   6.671   9.256   1.781  0.0756  0.1840  0.5801
24039SOL    HW279358   6.713   9.264   1.926  1.1051  1.3781  0.2219
24040SOL     OW79359   0.233   0.310   0.477 -0.7324  0.0350 -0.1945
24040SOL    HW179360   0.189   0.389   0.509 -1.9536  0.0680 -1.7816
24040SOL    HW279361   0.281   0.276   0.552 -0.9750  1.7545  0.7781
24041SOL     OW79362   8.584   1.007   2.496  0.1866  0.3339  0.4431
24041SOL    HW179363   8.607   1.064   2.422  0.2753  0.8411  0.8608
24041SOL    HW279364   8.498   1.037   2.524  0.5777  0.7876  1.1706
24042SOL     OW79365   0.408   9.578   5.372  0.1907  0.5784  0.3285
24042SOL    HW179366   0.351   9.503   5.353  0.0975  1.1190 -1.7881
24042SOL    HW279367   0.496   9.541   5.374  0.0071  0.1610  0.9171
24043SOL     OW79368   8.991   6.344   5.424 -0.4263  0.0901  0.4274
24043SOL    HW179369   8.905   6.304   5.410 -0.6579  0.5754  0.4310
24043SOL    HW279370   9.052   6.284   5.381 -0.7793 -0.1854  0.2983
24044SOL     OW79371  11.913   0.865  10.057 -0.1517 -0.6764  0.3081
24044SOL    HW179372  11.844   0.929  10.074 -0.7665 -1.0891 -0.5166
24044SOL    HW279373  11.866   0.787  10.029  0.6767 -0.7708 -0.8883
24045SOL     OW79374  12.689  10.320  10.908  0.3186 -0.0759 -0.1527
24045SOL    HW179375  12.687  10.408  10.870 -0.7436 -0.2909 -0.6277
24045SOL    HW279376  12.780  10.291  10.897  0.5991  0.8231 -0.2928
24046SOL     OW79377   7.054   0.716   8.925  0.3953 -0.2558 -0.1501
24046SOL    HW179378   7.027   0.782   8.861  1.7128  0.0222 -0.4456
24046SOL    HW279379   7.079   0.766   9.002  1.0073 -0.4185 -0.2340
24047SOL     OW79380  11.105   1.815   9.837  0.5822 -0.2778  0.1348
24047SOL    HW179381  11.103   1.832   9.931 -0.3807 -0.4584  0.1631
24047SOL    HW279382  11.183   1.761   9.824  0.8931 -0.0015  0.7763
24048SOL     OW79383   0.477   6.224   4.667 -0.4682  0.5474 -0.2155
24048SOL    HW179384   0.522   6.143   4.691  1.2336  1.2868 -0.7670
24048SOL    HW279385   0.397   6.224   4.720  0.7783 -0.2248  1.7521
24049SOL     OW79386   8.560   7.698   1.881  0.1083 -0.1711 -0.0249
24049SOL    HW179387   8.537   7.784   1.847  0.3631 -0.3567 -0.6736
24049SOL    HW279388   8.488   7.641   1.855  1.2536 -0.7711 -2.1314
24050SOL     OW79389   3.631  10.267   6.736  0.3377 -0.1575 -0.0811
24050SOL    HW179390   3.602  10.253   6.826  0.3474 -0.4712 -0.1281
24050SOL    HW279391   3.551  10.289   6.688  0.2029 -0.8404 -0.1732
24051SOL     OW79392   1.268  12.011   7.064  0.0761  0.2081 -0.5263
24051SOL    HW179393   1.312  11.941   7.015  0.6106  0.6111 -0.6339
24051SOL    HW279394   1.322  12.088   7.049  1.8615 -0.1612  2.8187
24052SOL     OW79395   1.038  11.957   9.935  0.2482  0.3270  0.5275
24052SOL    HW179396   1.049  12.006   9.854  0.3320 -0.1279  0.2630
24052SOL    HW279397   1.116  11.903   9.943 -0.3359 -0.5881  0.2415
24053SOL     OW79398   4.574   1.857   4.853  0.5193  0.1920  0.3029
24053SOL    HW179399   4.634   1.848   4.926  0.4448 -2.5734  0.1436
24053SOL    HW279400   4.630   1.876   4.777  0.7613  1.4100  0.7723
24054SOL     OW79401   5.365   1.152  10.357  0.1261 -0.3596 -0.0807
24054SOL    HW179402   5.275   1.174  10.380 -0.4919 -0.3628 -2.3263
24054SOL    HW279403   5.402   1.119  10.439 -1.7934 -0.0674  0.9805
24055SOL     OW79404   4.804   3.171   0.303  0.5544  0.9978 -0.8272
24055SOL    HW179405   4.864   3.159   0.229 -0.1738  2.4651 -1.7054
24055SOL    HW279406   4.717   3.161   0.265  0.1902 -0.2692  0.2683
24056SOL     OW79407  10.674   3.203   3.213  0.0043 -0.2462 -0.2929
24056SOL    HW179408  10.689   3.284   3.262 -0.9758  0.2455 -0.7798
24056SOL    HW279409  10.634   3.232   3.131  1.9938 -0.9940 -1.6005
24057SOL     OW79410   3.839   2.862   8.111 -0.6753  0.3976 -0.4118
24057SOL    HW179411   3.901   2.921   8.155 -1.5159  1.2120 -0.2893
24057SOL    HW279412   3.863   2.775   8.142  1.1010  0.5541 -1.2023
24058SOL     OW79413   7.138   9.047   0.196 -0.8430 -0.7429  0.0184
24058SOL    HW179414   7.120   9.137   0.170  0.8744 -0.9159 -1.9640
24058SOL    HW279415   7.064   8.997   0.163 -0.6229 -0.3824 -1.0383
24059SOL     OW79416   3.002   4.891  11.409 -0.1044 -0.0336  0.3223
24059SOL    HW179417   2.984   4.869  11.318 -3.0416 -2.4949  1.3053
24059SOL    HW279418   3.080   4.840  11.432  1.9858  2.2501 -1.2281
24060SOL     OW79419   9.470   6.375   4.346  0.3399  0.8878 -0.0587
24060SOL    HW179420   9.456   6.465   4.318 -0.4975  1.4210  1.9071
24060SOL    HW279421   9.503   6.382   4.436 -0.2240 -0.7495  0.3145
24061SOL     OW79422   0.838   1.885   1.275 -0.2353 -0.3164 -0.0085
24061SOL    HW179423   0.903   1.887   1.345 -1.0858  0.5393  0.7771
24061SOL    HW279424   0.846   1.797   1.237  0.2343 -0.7923  1.1570
24062SOL     OW79425  11.202   4.619  11.982 -0.3946 -0.0206 -0.1892
24062SOL    HW179426  11.259   4.623  11.905 -0.5250  0.0103 -0.2838
24062SOL    HW279427  11.164   4.531  11.978  0.5499 -0.4817  0.5203
24063SOL     OW79428   0.041   8.875   0.806 -0.1657 -0.3184 -0.2984
24063SOL    HW179429   0.055   8.938   0.735  1.5724 -1.4801 -1.0383
24063SOL    HW279430   0.063   8.923   0.885  1.2901 -0.0083 -0.8680
24064SOL     OW79431   8.578   4.828   4.842 -0.6838 -0.3656 -0.6690
24064SOL    HW179432   8.633   4.878   4.781 -0.6135 -1.3834 -1.4655
24064SOL    HW279433   8.527   4.770   4.785 -0.0809 -1.8727  0.2820
24065SOL     OW79434   7.705   5.010   0.351  0.4539  0.2222 -0.3734
24065SOL    HW179435   7.696   5.068   0.426  0.6613  0.0014 -0.1780
24065SOL    HW279436   7.700   4.921   0.387  0.6778  0.1133 -0.6032
24066SOL     OW79437  12.142   5.780   6.315 -0.2584  0.4364  0.1990
24066SOL    HW179438  12.232   5.748   6.308 -0.5465 -0.5171  0.5855
24066SOL    HW279439  12.148   5.874   6.297  0.4945  0.0162 -2.0022
24067SOL     OW79440   1.265   5.126   2.924  0.2366 -0.5244  0.4658
24067SOL    HW179441   1.247   5.071   3.001  1.8562 -0.8278  0.6519
24067SOL    HW279442   1.190   5.185   2.920 -0.4037 -1.2042  1.6529
24068SOL     OW79443   0.520   0.799  12.592 -0.2811 -0.3866  0.3688
24068SOL    HW179444   0.440   0.811  12.643  0.5155 -0.6880  1.7528
24068SOL    HW279445   0.533   0.704  12.590  0.1995 -0.3269  0.4335
24069SOL     OW79446   6.290   7.743  12.360 -0.0175 -0.3092 -0.0237
24069SOL    HW179447   6.217   7.775  12.307  2.2708  2.5610 -1.7863
24069SOL    HW279448   6.279   7.786  12.444 -1.0959 -1.0476  0.2256
24070SOL     OW79449   3.859  11.521   5.343  0.0857 -0.7424  0.2069
24070SOL    HW179450   3.914  11.447   5.369  1.1755  0.4756  1.5503
24070SOL    HW279451   3.921  11.586   5.308 -0.2337  1.1735  2.9190
24071SOL     OW79452   5.410   5.266   2.106  0.2952  0.1841  0.0763
24071SOL    HW179453   5.381   5.258   2.196 -0.6860  1.2870 -0.1224
24071SOL    HW279454   5.473   5.338   2.107  0.1832  0.2846 -0.1481
24072SOL     OW79455   0.485  10.177  11.964 -0.0974  0.1241 -0.1995
24072SOL    HW179456   0.408  10.231  11.980 -0.0054  0.4439 -0.8167
24072SOL    HW279457   0.457  10.088  11.985 -1.2056 -0.0341 -2.1384
24073SOL     OW79458  10.875  11.099  11.787  0.0230  0.5428  0.3856
24073SOL    HW179459  10.797  11.043  11.780  0.3955  0.0521  0.0760
24073SOL    HW279460  10.894  11.125  11.697  0.2050  0.6834  0.4632
24074SOL     OW79461   3.249   0.473   5.648 -0.2693  0.7710  0.2697
24074SOL    HW179462   3.166   0.506   5.682 -0.6664  2.0779 -1.8048
24074SOL    HW279463   3.302   0.552   5.635  1.2725 -0.0170  1.3354
24075SOL     OW79464   5.961   8.095   1.357  0.6563  0.3066  0.3750
24075SOL    HW179465   5.908   8.082   1.436 -0.7301 -0.3634 -0.6161
24075SOL    HW279466   6.010   8.175   1.374 -2.1734  2.1235  0.5840
24076SOL     OW79467   6.279   5.333   2.526 -0.0125  0.5815  0.1282
24076SOL    HW179468   6.212   5.338   2.595 -0.3552 -0.0695 -0.1519
24076SOL    HW279469   6.341   5.268   2.557  0.5701  1.2773  0.4454
24077SOL     OW79470   3.827  12.107  11.081  0.2422  0.3207  0.8011
24077SOL    HW179471   3.868  12.064  11.155  0.5462  0.4776  0.7225
24077SOL    HW279472   3.733  12.107  11.102  0.1741 -0.9143  0.5272
24078SOL     OW79473  10.488   4.534   1.376  0.0989  0.4303  0.0259
24078SOL    HW179474  10.402   4.524   1.417  0.2088  0.7178  0.3316
24078SOL    HW279475  10.508   4.448   1.342  0.1177  0.1161  0.8034
24079SOL     OW79476   6.741  11.245   5.771 -0.3886 -0.1450 -0.3204
24079SOL    HW179477   6.664  11.273   5.821  0.5616  1.2732  0.4319
24079SOL    HW279478   6.730  11.287   5.686 -0.6607 -0.3242 -0.3771
24080SOL     OW79479  12.395   7.875   3.942 -0.1086 -0.0614  0.4687
24080SOL    HW179480  12.448   7.823   3.882 -0.1360 -0.7639  1.0322
24080SOL    HW279481  12.307   7.840   3.932 -0.6390  1.5737 -0.9828
24081SOL     OW79482   8.654   8.578   4.776 -1.1454 -0.4002  0.2673
24081SOL    HW179483   8.588   8.557   4.710 -0.4514 -1.1469 -0.2032
24081SOL    HW279484   8.605   8.582   4.858 -1.9691  0.2625 -0.2424
24082SOL     OW79485   3.161   1.508   9.098 -0.2382  0.2355 -0.2570
24082SOL    HW179486   3.209   1.428   9.120  1.7363  1.0921 -1.1818
24082SOL    HW279487   3.135   1.496   9.006  0.1934  0.6810 -0.4452
24083SOL     OW79488  10.184   8.565   8.075 -0.1509  0.3195  0.0623
24083SOL    HW179489  10.171   8.544   8.167  0.5280 -1.4509 -0.2184
24083SOL    HW279490  10.236   8.646   8.076 -0.1714  0.3355  1.2095
24084SOL     OW79491   0.973   9.029   9.697  0.3011 -0.3882  0.0181
24084SOL    HW179492   1.057   9.075   9.693 -0.0538  0.1601 -2.1290
24084SOL    HW279493   0.916   9.087   9.747  0.9189 -0.3358  0.6876
24085SOL     OW79494  12.147   9.442   8.784 -0.0177  0.0918  0.0836
24085SOL    HW179495  12.141   9.493   8.703 -0.6788  0.0889  0.1218
24085SOL    HW279496  12.219   9.482   8.833 -0.4471  0.9163  0.0586
24086SOL     OW79497  12.627  10.817   9.499 -0.3914  0.4801 -0.3748
24086SOL    HW179498  12.702  10.772   9.461 -0.1876 -0.4641  1.0913
24086SOL    HW279499  12.588  10.864   9.425 -0.3463 -1.7227 -1.9023
24087SOL     OW79500   4.038  12.295   3.333 -0.9110 -0.2128  0.0110
24087SOL    HW179501   4.040  12.216   3.387  1.1884 -0.7280 -0.6881
24087SOL    HW279502   4.101  12.354   3.375 -0.2443 -0.1037 -1.0981
24088SOL     OW79503  10.522  11.660  11.181 -0.3470 -0.2933  0.3652
24088SOL    HW179504  10.555  11.748  11.198  1.0818 -0.4789 -1.2823
24088SOL    HW279505  10.562  11.606  11.249  0.3168  0.0133  0.2239
24089SOL     OW79506   1.095   9.447  10.869  0.7438  0.1588 -0.2312
24089SOL    HW179507   1.157   9.407  10.931  0.9686 -0.9099 -1.1147
24089SOL    HW279508   1.147   9.513  10.823  0.6650  0.7225  0.4751
24090SOL     OW79509   6.859   3.328   3.474  0.1532 -0.0159  0.6679
24090SOL    HW179510   6.937   3.379   3.454 -0.8527  1.0484 -0.6888
24090SOL    HW279511   6.802   3.340   3.398 -1.8517  0.2285  2.1296
24091SOL     OW79512  11.305   0.497   1.014 -0.2933 -0.1182  0.7073
24091SOL    HW179513  11.311   0.411   1.056  1.4156  0.1704  1.1113
24091SOL    HW279514  11.258   0.480   0.932 -0.4732 -1.3265  1.0381
24092SOL     OW79515   6.680   4.959   1.662 -0.0285  0.7282  0.1525
24092SOL    HW179516   6.734   4.914   1.597 -1.4893 -0.2463 -0.4262
24092SOL    HW279517   6.595   4.916   1.657 -0.7274  1.8913  1.3959
24093SOL     OW79518   5.034   6.253   3.751 -0.1806 -0.1536 -0.5885
24093SOL    HW179519   5.113   6.203   3.732  0.7570  1.0990 -0.1454
24093SOL    HW279520   5.064   6.344   3.756 -1.9756  0.6239 -2.4126
24094SOL     OW79521   1.418  12.493   3.108  0.3432 -0.1946 -0.1891
24094SOL    HW179522   1.472  12.447   3.173 -0.0354  0.7786  0.8609
24094SOL    HW279523   1.393  12.574   3.152 -0.0887  0.4083 -1.5070
24095SOL     OW79524  10.454   9.514   0.761 -0.7416 -0.0648  0.2306
24095SOL    HW179525  10.516   9.441   0.752  0.2519  0.6794  0.7627
24095SOL    HW279526  10.481   9.576   0.693 -3.1606 -1.1981 -1.9514
24096SOL     OW79527  12.343   2.416   2.376  0.5535  0.4145  0.0327
24096SOL    HW179528  12.327   2.503   2.412  0.4012  0.6092 -0.4981
24096SOL    HW279529  12.261   2.392   2.332  0.1733 -0.4998  1.1799
24097SOL     OW79530   2.058   4.659   0.142 -0.4194 -0.2777  0.9611
24097SOL    HW179531   2.151   4.681   0.136 -0.5614  0.7796  2.1268
24097SOL    HW279532   2.030   4.646   0.051  0.8760 -0.6791  0.6053
24098SOL     OW79533   9.974   3.819   1.096  0.3251 -0.2211  0.1059
24098SOL    HW179534   9.882   3.830   1.073  0.3728 -0.3779 -0.1636
24098SOL    HW279535   9.986   3.873   1.174 -0.0865 -0.4975  0.3670
24099SOL     OW79536   0.375  10.857  11.256 -0.7037 -0.0005  0.4599
24099SOL    HW179537   0.362  10.913  11.179 -0.6406 -0.7836 -0.1280
24099SOL    HW279538   0.466  10.830  11.252 -1.3004 -2.0836 -0.6226
24100SOL     OW79539   5.349   5.481   4.643  0.3949 -0.2069 -0.1719
24100SOL    HW179540   5.365   5.433   4.562  1.7480 -1.3361  0.7147
24100SOL    HW279541   5.296   5.422   4.696  0.0364  0.2698  0.0065
24101SOL     OW79542  11.327   5.913   6.418  0.0497 -0.0425 -0.1353
24101SOL    HW179543  11.295   5.999   6.391  3.0730  0.7226 -1.7065
24101SOL    HW279544  11.416   5.929   6.450 -0.4299 -2.2043  2.6861
24102SOL     OW79545   2.060  10.135   5.665 -0.1773  0.5489  0.3552
24102SOL    HW179546   1.998  10.105   5.732 -0.4263  2.6913  1.1751
24102SOL    HW279547   2.015  10.119   5.582 -0.7486 -0.2244  0.7959
24103SOL     OW79548   1.039   2.988   6.362  0.7297  0.3303 -0.3260
24103SOL    HW179549   1.093   2.917   6.327 -1.9319 -1.1111 -1.7967
24103SOL    HW279550   1.003   2.954   6.443 -2.6204 -1.2714 -2.2716
24104SOL     OW79551  10.810   7.926   4.550 -0.1881 -0.2801  0.6211
24104SOL    HW179552  10.807   7.962   4.461 -0.0180  2.5139  1.6542
24104SOL    HW279553  10.830   7.834   4.537 -1.0542 -0.1792 -2.2799
24105SOL     OW79554   9.694   1.682   2.222 -0.3139 -0.3113 -0.3452
24105SOL    HW179555   9.625   1.722   2.169 -0.4951  0.3010  0.3285
24105SOL    HW279556   9.722   1.605   2.173 -0.5214  0.2071 -1.2881
24106SOL     OW79557   6.830   8.992   1.067 -0.1723  0.0614 -0.4753
24106SOL    HW179558   6.767   9.052   1.107  0.9206  0.0370  1.3977
24106SOL    HW279559   6.883   8.961   1.140  2.4015  0.5172 -2.0286
24107SOL     OW79560   0.360   3.253   7.743  0.3508  0.4181 -0.2605
24107SOL    HW179561   0.417   3.239   7.668  0.9044 -1.0580  0.3945
24107SOL    HW279562   0.411   3.220   7.818  0.0486  2.3635  0.8577
24108SOL     OW79563   0.561  10.915   5.454  0.3534  0.2419  0.0956
24108SOL    HW179564   0.590  10.827   5.478 -0.2385 -0.1567 -0.6006
24108SOL    HW279565   0.497  10.939   5.521 -1.0856 -0.7480 -0.8844
24109SOL     OW79566   7.488  10.854   2.849  0.1672  0.7208 -0.0831
24109SOL    HW179567   7.560  10.909   2.819  0.3101  1.2334  1.1545
24109SOL    HW279568   7.529  10.785   2.900 -0.1122  0.1830 -0.5784
24110SOL     OW79569  11.531  12.086   5.458 -0.0736  0.0652  0.4135
24110SOL    HW179570  11.544  12.139   5.537 -1.3918  0.4504  0.3923
24110SOL    HW279571  11.437  12.074   5.452  0.0397 -0.3934 -0.8320
24111SOL     OW79572  10.173  11.290   6.401 -0.7082 -0.1744  0.0079
24111SOL    HW179573  10.142  11.252   6.319  0.0603  1.3274 -1.0279
24111SOL    HW279574  10.247  11.234   6.426  0.3933  0.5256 -1.4819
24112SOL     OW79575  11.925   1.919   8.498 -0.7653  0.9465 -0.1980
24112SOL    HW179576  11.942   2.002   8.454 -2.7717  1.7014  0.3613
24112SOL    HW279577  11.842   1.932   8.543 -0.6270 -1.0449  0.7366
24113SOL     OW79578   6.736   3.999   8.944 -0.2192  0.1915 -0.2361
24113SOL    HW179579   6.760   4.071   8.886  3.7436 -1.0199 -0.4234
24113SOL    HW279580   6.695   3.934   8.887  0.2686  0.5005 -0.9458
24114SOL     OW79581   7.323  11.393   7.358 -0.3785  0.3463  0.3687
24114SOL    HW179582   7.406  11.438   7.373 -0.3847  0.7553 -0.7699
24114SOL    HW279583   7.310  11.341   7.437  1.0269  0.1587  0.5002
24115SOL     OW79584   2.623   9.647  12.222 -0.1507  0.4502 -0.3734
24115SOL    HW179585   2.697   9.589  12.240  0.3073  1.1842  0.1253
24115SOL    HW279586   2.631   9.718  12.286  0.2868  2.0072 -2.0688
24116SOL     OW79587   9.378  12.700   3.560 -0.0537  0.1908  0.7735
24116SOL    HW179588   9.469  12.719   3.535  0.0506 -1.7740 -0.5397
24116SOL    HW279589   9.367  12.607   3.542 -1.9377  0.0683  2.2562
24117SOL     OW79590   0.147   7.976  10.526  0.6670  0.3681 -0.1557
24117SOL    HW179591   0.207   7.953  10.597 -3.1531 -0.1089  3.3333
24117SOL    HW279592   0.175   8.063  10.498  3.9657 -0.5604 -0.1332
24118SOL     OW79593   8.875   3.367   3.855  0.5984  0.6976  0.1296
24118SOL    HW179594   8.884   3.396   3.764 -0.7421 -0.2310 -0.3348
24118SOL    HW279595   8.854   3.274   3.848 -0.7467  0.8801  1.3279
24119SOL     OW79596   2.764   1.115   3.795  0.1357  0.0843 -0.0515
24119SOL    HW179597   2.722   1.121   3.709 -0.9457  0.5298  0.4793
24119SOL    HW279598   2.814   1.196   3.803 -2.0091  1.4311  0.8226
24120SOL     OW79599   0.854   9.237   7.557 -0.0430 -0.0645  0.3421
24120SOL    HW179600   0.926   9.221   7.497 -1.1316 -2.2739 -0.4735
24120SOL    HW279601   0.778   9.251   7.500 -0.5845  0.6171  1.1985
24121SOL     OW79602  10.086   4.237   5.459 -0.3325 -0.6759 -0.4873
24121SOL    HW179603  10.168   4.264   5.416  1.8365 -3.4356  1.5411
24121SOL    HW279604  10.060   4.157   5.413  0.7431 -2.3531  1.6143
24122SOL     OW79605   8.692   5.029   9.644 -0.0805 -0.2406  0.0668
24122SOL    HW179606   8.667   5.072   9.562 -0.4641  0.4875  0.5603
24122SOL    HW279607   8.662   5.088   9.712  0.6865 -0.6064  0.7321
24123SOL     OW79608   7.162   6.395   0.310 -0.3552  0.4088 -0.0185
24123SOL    HW179609   7.235   6.434   0.359 -0.3058  1.1550 -0.6661
24123SOL    HW279610   7.143   6.314   0.356  1.2596 -0.0857 -0.1511
24124SOL     OW79611   0.028   1.918  12.526 -0.1053 -0.2255  0.3305
24124SOL    HW179612   0.048   1.926  12.620 -1.2273 -0.3252  0.5935
24124SOL    HW279613  -0.028   1.840  12.521  1.2019 -1.1469 -0.6398
24125SOL     OW79614   5.309   0.816   7.455  0.1212 -0.1774  0.1126
24125SOL    HW179615   5.284   0.872   7.381  1.4272  0.6672  0.2634
24125SOL    HW279616   5.226   0.782   7.489 -0.5782  0.2892 -1.0645
24126SOL     OW79617   9.369   4.775   5.175 -0.2227  0.5509  0.5007
24126SOL    HW179618   9.366   4.820   5.260  1.6042 -0.6510  1.2681
24126SOL    HW279619   9.321   4.693   5.189  0.4450  0.1585  0.5026
24127SOL     OW79620  10.909   5.842  10.955  0.0102 -0.3506 -0.2163
24127SOL    HW179621  10.832   5.788  10.973  0.5054 -0.7622  0.7130
24127SOL    HW279622  10.873   5.925  10.922 -0.7649 -1.0798 -1.2472
24128SOL     OW79623  10.210   1.497   3.373 -0.0712  0.6652  0.4080
24128SOL    HW179624  10.273   1.485   3.302 -1.2684  0.3414 -0.6399
24128SOL    HW279625  10.167   1.412   3.382 -0.6556  0.9923  0.7920
24129SOL     OW79626  11.607   4.114   5.957 -0.7023 -0.5713 -0.3580
24129SOL    HW179627  11.528   4.061   5.946 -0.5329 -1.0170  0.4974
24129SOL    HW279628  11.635   4.096   6.047 -0.3230  0.5465 -0.2484
24130SOL     OW79629   1.766   5.992  10.859  0.2152 -0.0594 -0.1226
24130SOL    HW179630   1.807   6.078  10.863  1.3866 -0.6291  0.4763
24130SOL    HW279631   1.736   5.984  10.769 -0.8934  1.3983  0.0658
24131SOL     OW79632   9.134   4.668  11.709  0.0410  0.0613  0.6949
24131SOL    HW179633   9.135   4.578  11.743 -0.9604 -0.0416  0.4770
24131SOL    HW279634   9.085   4.718  11.775 -0.6909  0.1417  0.1099
24132SOL     OW79635  11.004   0.958   3.548  0.4054  0.3545  0.2817
24132SOL    HW179636  11.096   0.982   3.535  0.6837 -1.2759 -0.9959
24132SOL    HW279637  11.007   0.876   3.596 -0.4769  1.2809  2.0218
24133SOL     OW79638   5.834   5.229   0.084 -0.3086  0.1453  0.4877
24133SOL    HW179639   5.829   5.299   0.149 -0.0622  1.0769 -0.4753
24133SOL    HW279640   5.756   5.239   0.030  0.8560  1.1630 -1.0880
24134SOL     OW79641  11.280   3.482   7.718 -0.1738 -0.5142  0.4856
24134SOL    HW179642  11.374   3.474   7.732  0.0676 -0.6726 -1.0223
24134SOL    HW279643  11.257   3.407   7.663 -0.5944  1.0424 -1.6065
24135SOL     OW79644   7.213   5.660   3.908 -0.1369  0.4388  0.0722
24135SOL    HW179645   7.185   5.683   3.997 -0.3805 -3.4952  1.2142
24135SOL    HW279646   7.308   5.656   3.913 -0.1314  0.5267  0.0463
24136SOL     OW79647   1.973  10.692   0.979  0.0095  0.0304 -0.0520
24136SOL    HW179648   2.026  10.619   0.948  0.6423 -0.3497  1.8418
24136SOL    HW279649   2.018  10.724   1.057 -0.9222  1.6627 -0.1284
24137SOL     OW79650   0.163   6.250   8.794 -0.2975 -0.9359  0.3180
24137SOL    HW179651   0.133   6.339   8.815  0.8802 -0.2437 -0.8009
24137SOL    HW279652   0.117   6.228   8.714  1.0240 -0.4403 -0.6075
24138SOL     OW79653  10.027   6.747   2.344 -0.3660 -0.1046  0.2654
24138SOL    HW179654  10.081   6.668   2.334 -1.2513 -0.8233  1.0003
24138SOL    HW279655   9.972   6.747   2.266  2.0890  1.8324 -1.6563
24139SOL     OW79656  11.871  11.346   1.249 -0.0183 -0.1964  0.0477
24139SOL    HW179657  11.793  11.322   1.298  1.0322 -2.4910  0.7718
24139SOL    HW279658  11.842  11.354   1.159 -1.0160 -1.7454  0.1879
24140SOL     OW79659  10.440   6.607   5.759 -0.1693  0.0447 -0.3926
24140SOL    HW179660  10.396   6.658   5.691 -2.0500  0.5365  1.0949
24140SOL    HW279661  10.521   6.654   5.777 -1.2625  1.8537  0.0608
24141SOL     OW79662  12.202  12.023  11.508  0.1298  0.2341  0.1254
24141SOL    HW179663  12.131  11.960  11.523  0.5801  0.0296  1.6048
24141SOL    HW279664  12.280  11.969  11.496 -0.0045  0.4391 -2.0639
24142SOL     OW79665   6.231   8.725   3.156  0.2335 -0.2983 -0.2960
24142SOL    HW179666   6.184   8.748   3.236  1.2375 -1.3173  0.6228
24142SOL    HW279667   6.191   8.780   3.088 -0.7591  0.4592  0.8550
24143SOL     OW79668   9.048  12.702   2.251  0.0648 -0.2079  0.3906
24143SOL    HW179669   8.970  12.646   2.245  0.1893 -0.3260 -0.2072
24143SOL    HW279670   9.047  12.754   2.171 -0.0523  0.6698  0.9460
24144SOL     OW79671  10.122   5.150  10.032 -0.0997 -0.0368  0.0654
24144SOL    HW179672  10.182   5.171   9.960 -0.6581  0.7909 -0.1727
24144SOL    HW279673  10.086   5.065  10.009  0.6875 -0.3645  0.0173
24145SOL     OW79674  11.642   6.119   7.986  0.5718  0.0854  0.0387
24145SOL    HW179675  11.638   6.089   7.896  0.0397 -0.5100  0.2571
24145SOL    HW279676  11.726   6.086   8.019 -0.4981 -2.2486  0.6312
24146SOL     OW79677   6.611  12.130   1.352 -0.3706  0.4161  0.1244
24146SOL    HW179678   6.701  12.148   1.379  0.4169 -2.2483 -0.3927
24146SOL    HW279679   6.620  12.084   1.268 -2.2641  0.4523 -0.1495
24147SOL     OW79680   5.044   3.808   1.171 -0.0880 -0.0630 -0.4788
24147SOL    HW179681   5.075   3.797   1.081 -1.4922  2.0946 -1.2914
24147SOL    HW279682   4.958   3.766   1.172 -0.0540 -0.1261 -0.1337
24148SOL     OW79683   8.452  11.577   3.035  0.0651 -0.4745 -0.5065
24148SOL    HW179684   8.431  11.484   3.041 -0.6326 -0.3608 -0.9597
24148SOL    HW279685   8.368  11.621   3.051 -0.1894  0.0002 -2.8065
24149SOL     OW79686   9.334   7.557   7.761  0.0917 -0.0175 -0.3434
24149SOL    HW179687   9.245   7.527   7.740 -0.7220  2.6067 -1.0641
24149SOL    HW279688   9.336   7.559   7.856 -0.6471 -0.0792 -0.3172
24150SOL     OW79689  10.313  11.062   1.528  0.0404 -0.2749  0.1132
24150SOL    HW179690  10.225  11.062   1.491 -0.1428 -0.8963  0.5308
24150SOL    HW279691  10.366  11.113   1.466 -0.3143 -1.0353 -0.8314
24151SOL     OW79692   1.062   6.189   0.339 -0.4997  0.5269 -0.1198
24151SOL    HW179693   1.075   6.141   0.421  0.9764  0.3934 -0.4114
24151SOL    HW279694   1.150   6.216   0.312 -1.1326  2.0486 -0.7875
24152SOL     OW79695  10.444   9.160   3.608 -0.3400 -0.2022  0.0708
24152SOL    HW179696  10.396   9.118   3.679 -0.4599  0.2420  0.2567
24152SOL    HW279697  10.512   9.212   3.652 -1.0309  0.8658 -0.0712
24153SOL     OW79698   7.871  10.855   7.793 -0.2959  0.5838 -0.0973
24153SOL    HW179699   7.792  10.825   7.838  0.4345 -1.1985  0.0883
24153SOL    HW279700   7.941  10.801   7.829  0.7150  0.8468 -1.5819
24154SOL     OW79701   1.273   1.308   2.451  0.0316  0.2468  0.2506
24154SOL    HW179702   1.210   1.378   2.466 -0.3558 -0.2220  0.8572
24154SOL    HW279703   1.253   1.243   2.518 -1.0236 -1.4301 -1.5821
24155SOL     OW79704   5.599   9.697  10.913 -0.9940 -0.1507  0.1113
24155SOL    HW179705   5.638   9.702  11.001 -0.7799  0.8352 -0.0294
24155SOL    HW279706   5.515   9.741  10.922 -0.7882  0.3213 -0.2800
24156SOL     OW79707   0.606   0.378  10.359  0.2511 -0.2793  0.0710
24156SOL    HW179708   0.591   0.466  10.394  1.6273 -0.6266  1.6397
24156SOL    HW279709   0.691   0.383  10.316  0.9557 -1.1105  1.2869
24157SOL     OW79710  11.554  12.170   9.243 -0.0394  0.1790 -0.4303
24157SOL    HW179711  11.481  12.223   9.210 -0.1273  0.0694 -0.4096
24157SOL    HW279712  11.539  12.083   9.206 -1.1145 -0.4189  1.3006
24158SOL     OW79713   2.571  12.019   8.679 -0.4213 -0.1539  0.8961
24158SOL    HW179714   2.481  12.046   8.695 -1.0952 -0.9876 -1.0747
24158SOL    HW279715   2.619  12.100   8.665 -1.0086  0.2692  1.2994
24159SOL     OW79716   8.020   1.467   1.906  0.0498  0.0790  0.3436
24159SOL    HW179717   8.035   1.517   1.986 -0.4191  1.0498 -0.1681
24159SOL    HW279718   8.077   1.507   1.841 -1.1866  0.7303 -0.3762
24160SOL     OW79719  11.122   1.173   3.315 -0.4870  0.2383 -0.0515
24160SOL    HW179720  11.196   1.234   3.321  1.9886 -2.6069  0.7522
24160SOL    HW279721  11.066   1.210   3.247  0.7114  3.4811  0.5603
24161SOL     OW79722   9.160  12.196   9.201 -0.9611 -0.2233 -0.6341
24161SOL    HW179723   9.196  12.265   9.145  1.5628  1.5405  2.7495
24161SOL    HW279724   9.074  12.228   9.227 -0.0053  1.5614  0.5292
24162SOL     OW79725   4.973   1.574   4.408 -0.7420 -0.1695 -0.7070
24162SOL    HW179726   5.035   1.522   4.356 -0.6497 -1.4524  0.6204
24162SOL    HW279727   4.888   1.532   4.394 -0.8077 -0.1952 -0.2612
24163SOL     OW79728   8.484  10.174  11.880 -0.2436  0.3971 -0.0724
24163SOL    HW179729   8.411  10.234  11.868  0.9994  1.8396 -0.7837
24163SOL    HW279730   8.485  10.155  11.973 -0.4678  1.7834  0.2311
24164SOL     OW79731   5.042   6.634   5.593 -0.4945  0.5339  0.2027
24164SOL    HW179732   5.033   6.717   5.640 -0.3322  0.4219  0.4331
24164SOL    HW279733   5.134   6.631   5.568  0.0655 -0.6302  2.1827
24165SOL     OW79734   2.473  12.467   0.886  0.1849 -0.1842  0.2659
24165SOL    HW179735   2.510  12.554   0.875 -1.0785  0.1673 -1.6027
24165SOL    HW279736   2.494  12.421   0.805 -2.4854 -0.2889 -0.4536
24166SOL     OW79737   3.097   4.141   0.238 -0.2865 -0.0817  0.0888
24166SOL    HW179738   3.177   4.112   0.195  0.0548  0.1029  0.5863
24166SOL    HW279739   3.066   4.065   0.286 -1.4260 -0.7021 -1.5636
24167SOL     OW79740   1.058   3.228   5.242  0.0686  0.2345 -0.0583
24167SOL    HW179741   1.002   3.225   5.320 -0.2257 -1.3784 -0.3009
24167SOL    HW279742   1.034   3.310   5.199 -2.1699 -0.4165 -0.1770
24168SOL     OW79743   9.371   4.885   8.956 -0.0125  0.1860 -0.3635
24168SOL    HW179744   9.371   4.951   8.887 -0.8572 -0.6347 -1.1766
24168SOL    HW279745   9.392   4.934   9.036  1.5699  1.0542 -1.2569
24169SOL     OW79746   3.908   5.490   0.333 -0.5103 -0.1315 -0.2034
24169SOL    HW179747   3.822   5.527   0.316 -0.8991 -0.2712  1.3404
24169SOL    HW279748   3.969   5.561   0.314 -1.0567  0.3596 -0.1321
24170SOL     OW79749   7.287   3.770   5.857  0.1015  0.0779 -0.0505
24170SOL    HW179750   7.361   3.803   5.805 -1.0927  1.2921 -1.0378
24170SOL    HW279751   7.298   3.810   5.943  0.5358  0.3289 -0.2200
24171SOL     OW79752   4.086   6.078   8.734  0.0954  0.3262  0.9119
24171SOL    HW179753   4.020   6.055   8.800 -0.6326  3.8400  1.5654
24171SOL    HW279754   4.168   6.082   8.783 -0.1036  0.9871  1.1974
24172SOL     OW79755   0.011  11.422   6.977  0.0966 -0.3852 -0.0297
24172SOL    HW179756  -0.069  11.379   7.009 -0.0983 -0.0210 -0.0238
24172SOL    HW279757  -0.006  11.516   6.990 -0.0101 -0.2258 -1.2614
24173SOL     OW79758   2.146   3.319   7.512  0.0698  0.2447  0.2319
24173SOL    HW179759   2.053   3.314   7.492 -0.5059  1.3619  2.3002
24173SOL    HW279760   2.186   3.247   7.463 -1.8713 -0.2803 -0.6520
24174SOL     OW79761   6.432  10.097   1.383  0.2714  0.2436 -1.1325
24174SOL    HW179762   6.452  10.153   1.308  1.3780 -0.6754 -1.5525
24174SOL    HW279763   6.445  10.008   1.351 -1.0398 -0.2574 -0.3566
24175SOL     OW79764   0.298   1.806   9.480  0.0007  0.3840  0.6783
24175SOL    HW179765   0.297   1.711   9.479  0.4543  0.3638 -0.5407
24175SOL    HW279766   0.207   1.832   9.467  0.0282  0.0942 -0.1420
24176SOL     OW79767   0.510  10.044   4.514  0.7555  0.5939  0.3910
24176SOL    HW179768   0.432  10.088   4.479  1.7008  2.0703  0.0827
24176SOL    HW279769   0.478   9.997   4.591 -0.6131  0.4006 -0.2631
24177SOL     OW79770   4.362   6.049   1.214 -0.1055 -0.2727 -0.4487
24177SOL    HW179771   4.452   6.044   1.184  0.6581 -0.8754  1.7660
24177SOL    HW279772   4.325   5.962   1.195 -0.0826 -0.1642 -0.9773
24178SOL     OW79773   2.667   1.840   9.147  0.4369  0.5736 -1.1744
24178SOL    HW179774   2.756   1.805   9.137  1.0370  1.7571 -0.3128
24178SOL    HW279775   2.681   1.927   9.184 -1.1763  0.0348  0.8356
24179SOL     OW79776   5.291  10.723   6.792 -0.1969 -0.3439  0.5757
24179SOL    HW179777   5.260  10.803   6.834 -2.8727 -2.0345  2.1145
24179SOL    HW279778   5.283  10.655   6.859  0.6205 -2.1887 -1.0715
24180SOL     OW79779   7.298   3.124   0.723 -0.1201  0.0114 -0.0030
24180SOL    HW179780   7.308   3.148   0.631  0.7929  2.9537  0.7624
24180SOL    HW279781   7.372   3.066   0.740 -0.4727 -0.8204 -1.1500
24181SOL     OW79782   1.332   8.553   3.895  0.4751  0.7227  0.0149
24181SOL    HW179783   1.371   8.602   3.967  0.4018  1.2162 -0.2717
24181SOL    HW279784   1.256   8.510   3.933  1.1343 -0.0059  0.5060
24182SOL     OW79785  11.748   9.791   4.920 -0.1305 -0.1001  0.4850
24182SOL    HW179786  11.799   9.804   4.840 -1.0898 -2.4782 -0.6233
24182SOL    HW279787  11.796   9.839   4.988  2.2382 -0.2754 -0.9662
24183SOL     OW79788  11.374   9.293  10.102 -0.0919  0.0533 -0.2919
24183SOL    HW179789  11.449   9.285  10.043  1.0346  1.4904  0.8653
24183SOL    HW279790  11.411   9.284  10.190 -1.2035  1.0758  0.3149
24184SOL     OW79791  12.023   9.525   9.123  0.6593 -0.1317 -0.1575
24184SOL    HW179792  12.055   9.494   9.039  0.6665  1.9178 -0.9615
24184SOL    HW279793  12.062   9.612   9.133  0.6301 -0.3021  1.9563
24185SOL     OW79794   2.064   9.492   5.767  0.2336 -0.7010 -0.3336
24185SOL    HW179795   2.064   9.579   5.728 -1.1756 -0.2101  0.6866
24185SOL    HW279796   2.142   9.490   5.823  0.4411 -0.2062 -0.6015
24186SOL     OW79797   8.013   1.614   6.819  0.3728 -0.4857  0.1487
24186SOL    HW179798   7.965   1.560   6.882 -1.1319 -0.0957 -0.6127
24186SOL    HW279799   8.019   1.558   6.741  0.0911 -0.1049 -0.1514
24187SOL     OW79800   5.701   9.355   8.237  0.4755  0.6608  0.1187
24187SOL    HW179801   5.662   9.267   8.236  0.4766  0.5277  2.8720
24187SOL    HW279802   5.670   9.396   8.157 -0.2349 -1.5506 -0.8337
24188SOL     OW79803   7.171   2.401   9.109 -0.5041 -0.7159 -0.2257
24188SOL    HW179804   7.111   2.357   9.168 -1.0387  0.0139 -0.2156
24188SOL    HW279805   7.134   2.488   9.096  0.6131 -0.1948 -0.1068
24189SOL     OW79806   4.421  12.066   9.025 -0.1609  0.0054  0.1772
24189SOL    HW179807   4.478  12.043   9.098  1.4849 -1.9771 -1.5772
24189SOL    HW279808   4.459  12.019   8.950 -1.5862  2.1273 -2.0205
24190SOL     OW79809  12.084   3.639   7.433  0.0822  0.2223 -0.6586
24190SOL    HW179810  12.036   3.720   7.417  0.5648  0.9202  1.1777
24190SOL    HW279811  12.175   3.666   7.440  0.1570 -0.3424  0.7744
24191SOL     OW79812   3.673   5.959   9.118  0.2735  0.5569 -0.2647
24191SOL    HW179813   3.739   5.904   9.160 -0.9651 -1.2714 -0.5926
24191SOL    HW279814   3.604   5.967   9.183  0.3747  1.6281 -0.2798
24192SOL     OW79815   9.142   9.096   2.553 -0.2809  0.5135  0.0721
24192SOL    HW179816   9.116   9.093   2.645  0.8644  1.4623  0.4392
24192SOL    HW279817   9.209   9.028   2.544  0.6801  1.4179  0.2988
24193SOL     OW79818   0.708   9.070   2.446 -0.1952  0.2898  0.8452
24193SOL    HW179819   0.636   9.036   2.499  1.7543 -1.0948  2.8161
24193SOL    HW279820   0.697   9.027   2.361 -0.6939 -1.3379  1.6834
24194SOL     OW79821  10.386   4.156  12.174 -0.1365  0.3482  0.0169
24194SOL    HW179822  10.443   4.183  12.246 -1.9359  0.2235  1.5423
24194SOL    HW279823  10.298   4.154  12.211 -0.8273 -2.3028 -1.4529
24195SOL     OW79824   5.105  10.097   9.779 -0.6953 -0.2557  0.0466
24195SOL    HW179825   5.035  10.058   9.831 -0.7511 -0.3839 -0.1253
24195SOL    HW279826   5.161  10.140   9.844 -0.9027 -0.1974  0.1897
24196SOL     OW79827   1.378   4.443   2.101 -0.3161 -0.2270 -0.7616
24196SOL    HW179828   1.375   4.507   2.030  1.1655 -0.6010 -1.1972
24196SOL    HW279829   1.420   4.366   2.062  1.2102 -0.1759  0.6915
24197SOL     OW79830  11.461   2.555  12.106  0.4363 -0.1812 -0.2431
24197SOL    HW179831  11.518   2.520  12.037 -1.3318 -0.3043 -1.7163
24197SOL    HW279832  11.515   2.620  12.151  2.2356 -1.3968 -0.5339
24198SOL     OW79833   2.050   7.774   1.834  0.0928  0.2420  0.3813
24198SOL    HW179834   2.104   7.731   1.901  0.9508  1.1389  0.2954
24198SOL    HW279835   2.107   7.780   1.758 -0.1408  1.1412  0.2646
24199SOL     OW79836  10.053   2.610   3.004 -0.3715 -0.2095 -0.7761
24199SOL    HW179837  10.072   2.663   2.926  0.5936 -0.2146 -0.5548
24199SOL    HW279838   9.997   2.667   3.058 -1.0018 -0.1833 -1.4347
24200SOL     OW79839   4.703   8.868   2.302 -0.5221 -0.1871  0.1285
24200SOL    HW179840   4.699   8.874   2.206  0.1783  1.3176  0.1569
24200SOL    HW279841   4.656   8.788   2.323 -2.0375  0.2487 -1.3787
24201SOL     OW79842   9.427   7.847   0.650  0.7842 -0.1629 -0.1153
24201SOL    HW179843   9.427   7.769   0.705 -1.1398  0.2264  0.5167
24201SOL    HW279844   9.336   7.877   0.651  1.5320  2.3311 -0.0080
24202SOL     OW79845  10.310  11.186   5.090  0.1739  0.2439 -0.5085
24202SOL    HW179846  10.384  11.235   5.055  0.7580 -0.8503 -0.8529
24202SOL    HW279847  10.330  11.094   5.069 -0.0876 -0.3260  1.5277
24203SOL     OW79848   6.882   8.569  12.337  0.2191  0.5024  0.6417
24203SOL    HW179849   6.931   8.495  12.304 -0.0136  0.4819  0.3364
24203SOL    HW279850   6.884   8.559  12.433 -0.1750 -0.1357  0.5897
24204SOL     OW79851   6.296   4.288   2.015  0.5117  0.2927 -0.1080
24204SOL    HW179852   6.367   4.233   1.983  0.6300  0.0313  0.5958
24204SOL    HW279853   6.238   4.299   1.939  0.4869 -0.7913 -0.2621
24205SOL     OW79854   5.737   8.284  10.302 -0.4067 -0.1999 -0.0998
24205SOL    HW179855   5.753   8.376  10.284  1.5737 -0.1483  1.6040
24205SOL    HW279856   5.693   8.283  10.387 -2.9226 -0.7697 -1.3014
24206SOL     OW79857   0.707   6.183   8.764 -0.3191 -0.2207  0.4856
24206SOL    HW179858   0.724   6.170   8.857 -3.0107 -1.2921  0.9220
24206SOL    HW279859   0.663   6.102   8.737 -1.5593  0.9437 -1.1611
24207SOL     OW79860   2.941  10.842  12.115  0.5089  0.1965 -0.2165
24207SOL    HW179861   2.868  10.809  12.169  0.3013  1.4672  0.3253
24207SOL    HW279862   3.006  10.872  12.179  0.6760  0.8273 -0.6702
24208SOL     OW79863   2.736   8.195  10.013 -0.2145  0.4461  0.7783
24208SOL    HW179864   2.739   8.247   9.932  1.6068  1.1490  1.2513
24208SOL    HW279865   2.663   8.234  10.063 -0.3840  0.9993  0.1256
24209SOL     OW79866   6.373   1.692  11.396 -0.3386 -0.3449 -0.8323
24209SOL    HW179867   6.358   1.660  11.306  1.2501  0.2131 -1.3248
24209SOL    HW279868   6.317   1.769  11.403 -0.1029 -0.0967 -1.5319
24210SOL     OW79869   8.732   3.910   1.498  0.4940 -0.2389 -0.0629
24210SOL    HW179870   8.827   3.897   1.499  0.5416 -0.6593 -2.5573
24210SOL    HW279871   8.697   3.837   1.549  1.5089  0.6685  2.0420
24211SOL     OW79872   2.346   5.155   8.907  0.3603  0.8013  0.1387
24211SOL    HW179873   2.258   5.182   8.882 -0.5694  0.6642  2.8813
24211SOL    HW279874   2.344   5.154   9.003  2.7667 -1.1490  0.2648
24212SOL     OW79875   2.465   1.903   3.874  0.2603  0.6178  0.2839
24212SOL    HW179876   2.521   1.826   3.874  1.1514  1.2249  1.3576
24212SOL    HW279877   2.398   1.885   3.940  0.9656  1.0726  1.1507
24213SOL     OW79878   7.896   0.077   4.806 -0.7498  0.1337 -0.0980
24213SOL    HW179879   7.943  -0.004   4.788  0.1932  0.3529  1.2499
24213SOL    HW279880   7.906   0.129   4.726  1.1614  0.0927  0.0709
24214SOL     OW79881   2.249  12.351   7.495  0.4423 -0.2518 -0.5114
24214SOL    HW179882   2.220  12.432   7.537 -0.5118 -1.4160  1.2189
24214SOL    HW279883   2.338  12.369   7.465  1.1824  0.6993  2.0477
24215SOL     OW79884   7.399   8.924  11.794 -0.1216 -1.3598  0.5079
24215SOL    HW179885   7.442   8.988  11.850 -0.8185 -1.1462  0.8145
24215SOL    HW279886   7.305   8.937  11.811 -0.2817 -2.2198  0.3071
24216SOL     OW79887   6.102   8.363   2.244  0.2604  0.1127 -0.2998
24216SOL    HW179888   6.093   8.373   2.149  0.7155 -0.6867 -0.4375
24216SOL    HW279889   6.013   8.351   2.276  0.2287 -1.2432 -0.8369
24217SOL     OW79890   9.076   6.945   0.898 -0.0287 -0.0466 -0.7669
24217SOL    HW179891   9.045   7.002   0.827 -0.6056  1.8787  0.9323
24217SOL    HW279892   8.996   6.922   0.946  0.6126  1.5621  1.2316
24218SOL     OW79893   5.013   3.977  10.057 -0.4554  0.2063  0.3451
24218SOL    HW179894   4.951   4.020   9.998 -1.2121 -1.0346  0.2041
24218SOL    HW279895   4.974   3.985  10.144 -1.1633 -1.1422  0.1707
24219SOL     OW79896   6.087   5.605   3.109 -0.0805 -0.2525  0.5532
24219SOL    HW179897   6.057   5.672   3.046  0.9997 -0.4427 -0.1881
24219SOL    HW279898   6.035   5.528   3.087  0.2703 -0.3096 -0.0946
24220SOL     OW79899   3.736   6.262   9.702 -0.0450 -0.0322  0.0125
24220SOL    HW179900   3.711   6.172   9.686  1.5767 -0.7533  1.2256
24220SOL    HW279901   3.663   6.299   9.752 -1.1137 -0.3634 -1.2447
24221SOL     OW79902   1.106   7.928   7.651 -0.5304  0.0100 -0.6084
24221SOL    HW179903   1.071   7.905   7.737 -1.1676 -0.8003 -1.0637
24221SOL    HW279904   1.200   7.935   7.665 -0.7649  1.5320  0.4920
24222SOL     OW79905   2.341  12.071   5.987 -0.2986 -0.0604  0.3210
24222SOL    HW179906   2.248  12.091   5.981  0.0210  1.1073 -1.9003
24222SOL    HW279907   2.382  12.123   5.918  2.1267  0.0407  1.6870
24223SOL     OW79908   0.956   8.133   5.753 -0.0172  0.8882  0.3762
24223SOL    HW179909   0.952   8.100   5.843  0.4892 -2.2365 -0.6212
24223SOL    HW279910   0.865   8.143   5.727 -0.1927  0.4015  0.7825
24224SOL     OW79911  12.466   3.130   3.066  0.4323  0.1017  0.0181
24224SOL    HW179912  12.520   3.176   3.002  0.9916 -0.0272  0.3907
24224SOL    HW279913  12.523   3.117   3.141 -0.3183  0.5339  0.6765
24225SOL     OW79914  12.224  10.893   8.624 -0.3311  0.5670  0.1479
24225SOL    HW179915  12.283  10.859   8.692  0.0791  0.9555 -0.0112
24225SOL    HW279916  12.225  10.987   8.638 -0.0214  0.6759 -0.5797
24226SOL     OW79917   4.026   4.289   2.475  0.1107  0.6960 -0.7043
24226SOL    HW179918   3.934   4.284   2.501 -0.5045  0.0059 -2.8238
24226SOL    HW279919   4.060   4.365   2.523 -1.5263  0.9143  0.1942
24227SOL     OW79920   5.631   8.949  10.327  0.7374 -0.1288  0.3355
24227SOL    HW179921   5.660   8.882  10.389  3.4700  1.1526  0.5964
24227SOL    HW279922   5.702   9.014  10.327 -1.7272  2.7556  0.0446
24228SOL     OW79923   7.719  11.174   1.242  0.3420  0.7471 -0.1617
24228SOL    HW179924   7.759  11.091   1.219 -0.5640  0.0509  0.6745
24228SOL    HW279925   7.662  11.195   1.168 -0.4557 -0.0745  0.2050
24229SOL     OW79926   8.310  10.803   3.622  0.0260 -0.1121  0.2516
24229SOL    HW179927   8.388  10.806   3.678 -0.7689  2.4234  1.3586
24229SOL    HW279928   8.244  10.759   3.675 -0.1620  0.5167  0.5456
24230SOL     OW79929   7.187   0.857   3.586  0.6160  0.2771  0.1835
24230SOL    HW179930   7.134   0.785   3.621  0.1363  0.1383 -0.8033
24230SOL    HW279931   7.262   0.814   3.545  0.2500  0.3113 -0.5446
24231SOL     OW79932  10.419   3.412   8.376 -0.0128 -0.0501 -0.3826
24231SOL    HW179933  10.431   3.392   8.469 -0.9633  0.3784 -0.1469
24231SOL    HW279934  10.409   3.507   8.373 -2.5409 -0.2500 -0.5655
24232SOL     OW79935   4.640   2.312   0.513  0.1448  0.0154  0.2782
24232SOL    HW179936   4.624   2.225   0.474  1.9491 -0.2144 -0.0431
24232SOL    HW279937   4.574   2.319   0.582  0.6888 -2.1612  1.1325
24233SOL     OW79938   3.679   7.408   3.158 -0.3488  0.2685  0.2228
24233SOL    HW179939   3.774   7.421   3.154  0.0357 -2.3421 -0.7608
24233SOL    HW279940   3.655   7.438   3.245  1.7589 -1.0020  1.3336
24234SOL     OW79941  10.687  11.270  10.407  0.3199  0.2624 -0.9282
24234SOL    HW179942  10.617  11.206  10.421  0.5895 -0.0658 -1.0686
24234SOL    HW279943  10.673  11.336  10.475  2.6125 -2.1485  2.2178
24235SOL     OW79944  11.382   8.011   4.956  0.1947 -0.0328 -0.0387
24235SOL    HW179945  11.437   7.989   5.031  1.3736  1.3199 -0.4497
24235SOL    HW279946  11.323   8.079   4.988 -1.0163 -1.2101  0.2971
24236SOL     OW79947   5.464   2.877  12.266 -0.1743 -0.3776  0.1854
24236SOL    HW179948   5.485   2.845  12.178  0.9043  0.9522 -0.0745
24236SOL    HW279949   5.369   2.888  12.266 -0.2787 -1.1356 -0.5343
24237SOL     OW79950   1.281   6.516  11.535  0.6797  0.6115  0.0184
24237SOL    HW179951   1.309   6.601  11.499  0.5418  0.8416  0.4445
24237SOL    HW279952   1.336   6.452  11.490 -1.5005  0.5678 -2.8667
24238SOL     OW79953  12.239  10.905   0.138 -0.0639 -0.0308 -0.3995
24238SOL    HW179954  12.161  10.916   0.084 -2.1968  3.0434  2.8270
24238SOL    HW279955  12.305  10.961   0.098  0.9757 -3.1110 -3.5042
24239SOL     OW79956   4.456  11.612   7.474  0.5148  0.7772 -0.0338
24239SOL    HW179957   4.478  11.607   7.381  0.8208 -0.1770  0.0721
24239SOL    HW279958   4.526  11.664   7.512  1.0815  0.1084 -0.1437
24240SOL     OW79959   5.756   9.106   4.926 -0.8297 -0.0484 -0.4830
24240SOL    HW179960   5.764   9.190   4.879  1.0132 -0.3547 -0.8033
24240SOL    HW279961   5.700   9.126   5.001 -2.0739  0.9772 -1.6095
24241SOL     OW79962  11.835   5.011   2.817  0.3139  0.3458  0.0254
24241SOL    HW179963  11.859   4.927   2.776 -1.6502 -0.6419  0.7410
24241SOL    HW279964  11.775   4.986   2.888 -1.7655  2.4450 -0.8639
24242SOL     OW79965   8.357   9.178   1.550  0.2599 -0.3139  0.1919
24242SOL    HW179966   8.347   9.260   1.599 -0.9811 -0.6592  0.5657
24242SOL    HW279967   8.421   9.128   1.600 -0.5866 -0.4395  1.1997
24243SOL     OW79968  10.692   8.249   1.360  0.5770  0.7954  0.6444
24243SOL    HW179969  10.610   8.199   1.353 -0.3144  2.3490 -0.7231
24243SOL    HW279970  10.668   8.327   1.410  0.9351  1.7732 -0.6641
24244SOL     OW79971   0.746   2.301   4.898  0.5163  0.2767 -0.0362
24244SOL    HW179972   0.712   2.248   4.825  0.0395  0.2415  0.2032
24244SOL    HW279973   0.751   2.240   4.971 -0.4337  0.6413  0.3535
24245SOL     OW79974  11.802   5.880   6.213  0.1978  0.1609  0.1932
24245SOL    HW179975  11.719   5.881   6.165  0.5489  0.3333 -0.4377
24245SOL    HW279976  11.832   5.972   6.211  1.1094 -0.1323 -0.8872
24246SOL     OW79977   0.756  11.836  10.565 -0.7152  0.3686  0.0392
24246SOL    HW179978   0.736  11.881  10.483 -0.9995 -0.4689 -0.3514
24246SOL    HW279979   0.674  11.840  10.615 -1.7800 -2.4053 -1.2604
24247SOL     OW79980  12.681  11.114   8.166 -0.9001 -0.0225  0.1524
24247SOL    HW179981  12.628  11.062   8.105 -1.3081  0.4442  0.1031
24247SOL    HW279982  12.644  11.202   8.160 -0.0408  0.3357  0.0311
24248SOL     OW79983   2.260   4.226   3.285 -0.6374 -0.4959 -0.4452
24248SOL    HW179984   2.225   4.187   3.206 -0.0247  1.3448 -1.6893
24248SOL    HW279985   2.267   4.320   3.265 -0.0092 -0.0489  1.6052
24249SOL     OW79986   8.542  12.309   9.583 -0.5240 -0.4447  0.0510
24249SOL    HW179987   8.621  12.255   9.580  0.2221  0.2179  3.4839
24249SOL    HW279988   8.471  12.246   9.597  0.2421 -0.7461  3.2365
24250SOL     OW79989   5.891   4.220   0.033  0.2986 -0.0060 -0.0988
24250SOL    HW179990   5.898   4.294  -0.027  1.0475 -0.4018 -0.5066
24250SOL    HW279991   5.806   4.180   0.012 -0.1293  0.7458  0.1516
24251SOL     OW79992   2.102   5.541  12.273  0.6959  0.2978 -0.0302
24251SOL    HW179993   2.033   5.607  12.273  0.0095 -0.3897 -0.5377
24251SOL    HW279994   2.127   5.533  12.181  0.9368  0.0255  0.0583
24252SOL     OW79995   2.573   6.064   0.176  0.4347 -0.4063  0.1744
24252SOL    HW179996   2.631   6.095   0.246 -0.4746 -0.2115  0.8737
24252SOL    HW279997   2.506   6.013   0.222  0.9189 -1.9523 -0.7803
24253SOL     OW79998   7.901  12.278   3.587 -0.2014  0.1275 -0.1446
24253SOL    HW179999   7.824  12.240   3.629  0.0766 -1.1103 -0.6916
24253SOL    HW280000   7.905  12.235   3.502  0.0247  1.5830 -0.8936
24254SOL     OW80001   7.999  11.128   8.003  0.1116 -0.5763  0.3700
24254SOL    HW180002   7.954  11.212   8.010  0.5333 -0.3390  0.2460
24254SOL    HW280003   8.028  11.124   7.912 -2.5889 -2.2314 -0.5511
24255SOL     OW80004   7.011   0.597   2.096 -0.3184 -0.2258 -0.3167
24255SOL    HW180005   6.974   0.576   2.010  0.9653  0.7784 -1.1584
24255SOL    HW280006   6.945   0.651   2.139 -1.2034 -1.1947 -0.4314
24256SOL     OW80007   1.426   1.790  10.818 -0.2099  0.7108 -0.2320
24256SOL    HW180008   1.401   1.754  10.904  0.9709  0.3757 -0.0196
24256SOL    HW280009   1.370   1.743  10.756  0.5040 -0.6857  0.1487
24257SOL     OW80010   5.989   9.618  10.182  0.2807  0.1185  0.5535
24257SOL    HW180011   5.929   9.688  10.205  1.4292  0.9444  1.1869
24257SOL    HW280012   5.983   9.611  10.087 -1.0455 -0.0620  0.6333
24258SOL     OW80013   9.940   5.873  11.452  0.2739 -0.0098 -0.2317
24258SOL    HW180014   9.970   5.841  11.367  1.8265  0.0477  0.2587
24258SOL    HW280015  10.010   5.931  11.481  0.1635 -0.6823  1.4599
24259SOL     OW80016   0.988   1.298   3.973  0.5009 -0.1557 -0.4046
24259SOL    HW180017   0.964   1.219   4.021  1.1918 -0.0342  0.1659
24259SOL    HW280018   1.011   1.267   3.886 -1.9792 -0.2441 -1.1097
24260SOL     OW80019   1.687   9.855   8.569  0.4709  0.0697 -0.9084
24260SOL    HW180020   1.604   9.894   8.540  1.2600  1.4117 -1.4713
24260SOL    HW280021   1.683   9.857   8.664  0.0328  0.5456 -0.9334
24261SOL     OW80022   7.726  10.324   9.751  0.1620  0.4618 -0.1399
24261SOL    HW180023   7.820  10.340   9.753  0.4081 -0.4269 -2.1340
24261SOL    HW280024   7.716  10.234   9.781 -0.0924  0.6461  0.3379
24262SOL     OW80025   0.340   3.760   9.741 -0.5458 -0.1635  0.3609
24262SOL    HW180026   0.389   3.816   9.680 -1.0921  0.6258  0.6381
24262SOL    HW280027   0.248   3.776   9.720 -0.7160 -1.3588  0.0960
24263SOL     OW80028  11.202   8.139   2.533  1.0740 -0.1404  0.5768
24263SOL    HW180029  11.273   8.199   2.509 -0.1835  2.3196  2.4922
24263SOL    HW280030  11.220   8.115   2.624 -0.0090 -0.2478  0.7829
24264SOL     OW80031   2.419   1.297   5.752  0.0702  0.1809 -0.1793
24264SOL    HW180032   2.365   1.298   5.673 -1.5560  1.1974  0.8982
24264SOL    HW280033   2.387   1.370   5.804  0.6034 -0.8957  1.7635
24265SOL     OW80034   8.358   3.477  11.927 -0.4078 -0.4009 -0.5552
24265SOL    HW180035   8.384   3.386  11.939 -1.8549 -0.8559 -0.6230
24265SOL    HW280036   8.419   3.527  11.980  0.4111 -1.4127 -0.5157
24266SOL     OW80037   8.951   6.471  10.374 -0.3555 -0.2940  0.4404
24266SOL    HW180038   8.911   6.384  10.367 -0.6253 -0.0970 -0.8257
24266SOL    HW280039   9.038   6.461  10.334 -1.0243  0.3627 -1.3045
24267SOL     OW80040   8.550   5.075   0.586  0.3320  0.7505  0.4143
24267SOL    HW180041   8.464   5.051   0.552 -0.1711  0.1918  2.0041
24267SOL    HW280042   8.531   5.130   0.662  1.3472  0.0984  1.1656
24268SOL     OW80043   5.456   8.935   7.600  0.2299  0.2737  0.0655
24268SOL    HW180044   5.503   9.006   7.556 -0.2346 -0.0765 -1.0374
24268SOL    HW280045   5.373   8.929   7.553  0.0262 -0.6100  0.5213
24269SOL     OW80046   0.638   5.224   3.652  0.5162  0.7037 -0.0383
24269SOL    HW180047   0.684   5.142   3.632  0.5290  1.0973 -1.7762
24269SOL    HW280048   0.685   5.290   3.601  0.5068  1.8196  1.3409
24270SOL     OW80049   8.629   7.140   0.912 -0.3584  0.2881  0.0293
24270SOL    HW180050   8.645   7.192   0.833 -2.8686 -0.6102 -1.1889
24270SOL    HW280051   8.547   7.094   0.894 -0.1916 -1.1844  2.5656
24271SOL     OW80052   4.856   5.443   9.699 -0.4101  0.6018 -0.2286
24271SOL    HW180053   4.839   5.372   9.761 -2.7369 -0.2975 -1.7252
24271SOL    HW280054   4.797   5.513   9.726 -0.9936  0.4319 -1.0073
24272SOL     OW80055   7.149   5.178   9.510 -0.6736 -0.0707 -0.4119
24272SOL    HW180056   7.141   5.189   9.415 -1.3231  0.0875 -0.3391
24272SOL    HW280057   7.059   5.173   9.542 -0.4566 -0.5391  0.1526
24273SOL     OW80058  10.744  12.634   4.725 -0.2805  0.2310 -0.2792
24273SOL    HW180059  10.745  12.666   4.634 -1.1284  0.6918 -0.1394
24273SOL    HW280060  10.662  12.669   4.761  0.4382  0.7346  0.9128
24274SOL     OW80061   8.271   5.345  11.839  0.3349 -0.3554 -0.1015
24274SOL    HW180062   8.318   5.307  11.913 -0.7807 -1.9200 -0.1556
24274SOL    HW280063   8.198   5.285  11.823 -1.7306  1.9806  0.0133
24275SOL     OW80064  10.500  12.351   0.580  0.1556  0.5747  0.2463
24275SOL    HW180065  10.537  12.426   0.534  0.4109  0.7723  0.7761
24275SOL    HW280066  10.437  12.389   0.641  0.3661  0.3638  0.5950
24276SOL     OW80067   9.300   5.906  12.278 -0.0021 -0.0650 -0.1586
24276SOL    HW180068   9.383   5.940  12.310 -0.4262  0.5749  0.2859
24276SOL    HW280069   9.321   5.820  12.242  1.2761  1.0478 -2.2494
24277SOL     OW80070   3.598   7.268   2.314 -0.1949  0.4652 -0.2636
24277SOL    HW180071   3.517   7.290   2.270 -1.4177 -1.8597  0.6679
24277SOL    HW280072   3.632   7.192   2.266  0.2052  0.0060  0.7079
24278SOL     OW80073   7.384   6.220  10.601 -0.0264 -0.0116  0.9100
24278SOL    HW180074   7.354   6.305  10.632  1.3641  0.4988  0.9137
24278SOL    HW280075   7.426   6.180  10.677  2.4530  0.7990  0.0594
24279SOL     OW80076   8.006  11.226   3.146 -0.7809 -0.1174  0.3772
24279SOL    HW180077   7.990  11.150   3.202 -1.4497  1.0160  1.7671
24279SOL    HW280078   7.936  11.287   3.167  0.1374  1.1849 -0.1914
24280SOL     OW80079   0.927   6.357   2.521  0.0100 -0.1279 -0.2616
24280SOL    HW180080   0.946   6.284   2.462  2.7419  0.1998  0.0746
24280SOL    HW280081   0.933   6.319   2.609  0.2869  0.2515 -0.1142
24281SOL     OW80082   7.116   3.334   7.601  0.3724  0.4133 -0.2727
24281SOL    HW180083   7.166   3.255   7.583  3.2076  1.8079  0.7887
24281SOL    HW280084   7.123   3.345   7.696 -1.4560  1.0284 -0.1834
24282SOL     OW80085   9.202   6.730  12.631 -0.0993 -0.5465  0.0370
24282SOL    HW180086   9.292   6.715  12.660 -0.0958  1.4310  1.1613
24282SOL    HW280087   9.169   6.642  12.609  2.6955 -1.1483 -2.3800
24283SOL     OW80088   0.719   6.294   7.791  0.3290  0.1865 -0.7364
24283SOL    HW180089   0.755   6.322   7.707  3.6829 -1.8186 -0.1285
24283SOL    HW280090   0.683   6.207   7.774  2.4149 -0.9139  0.0878
24284SOL     OW80091   0.218   4.194   1.360  0.0695  0.2037  0.0845
24284SOL    HW180092   0.236   4.118   1.415 -0.4744  0.5789  0.8010
24284SOL    HW280093   0.178   4.257   1.420  0.0481  0.8584 -0.6136
24285SOL     OW80094   1.097   5.297   7.042 -0.6130 -0.3558 -0.5958
24285SOL    HW180095   1.052   5.368   6.995  1.6759  2.3665  0.9883
24285SOL    HW280096   1.042   5.281   7.119 -0.7012  0.3750 -0.4988
24286SOL     OW80097   6.378   3.175  11.155  0.4528 -0.1545  0.1475
24286SOL    HW180098   6.318   3.216  11.093  2.7014  0.1309 -2.0224
24286SOL    HW280099   6.351   3.208  11.241 -0.1539  2.9558 -1.1131
24287SOL     OW80100   1.090   1.418   4.186  0.8192 -0.5652 -0.0139
24287SOL    HW180101   1.062   1.507   4.167  0.2773 -0.2125  2.2274
24287SOL    HW280102   1.049   1.365   4.118  0.4388  0.7781 -0.8636
24288SOL     OW80103  12.042   6.608  11.439 -0.3566 -0.6619  0.5247
24288SOL    HW180104  12.100   6.637  11.369  0.4081  0.8751  1.7578
24288SOL    HW280105  12.095   6.547  11.491  0.3359  1.0291  1.8687
24289SOL     OW80106   4.921   3.153   2.828 -0.3994 -0.4816  0.4944
24289SOL    HW180107   5.014   3.175   2.832 -0.6696  0.5649  1.4717
24289SOL    HW280108   4.883   3.194   2.906 -1.0779 -4.0069  2.2398
24290SOL     OW80109   0.924  12.133   6.987  0.3895  0.4709  0.1943
24290SOL    HW180110   0.869  12.105   7.060 -0.2107  0.4283 -0.2694
24290SOL    HW280111   1.003  12.080   6.995 -0.2151 -0.4568  0.0577
24291SOL     OW80112   7.313   9.236   4.407  0.3529 -0.1505 -0.0153
24291SOL    HW180113   7.344   9.317   4.447 -1.3183 -0.3180  1.8157
24291SOL    HW280114   7.320   9.171   4.477 -2.4202 -0.5370  0.0227
24292SOL     OW80115  10.200   5.678  10.515 -0.1728 -0.2492 -0.2047
24292SOL    HW180116  10.184   5.710  10.603 -1.3026 -0.1534 -0.4297
24292SOL    HW280117  10.286   5.636  10.520 -0.5032 -0.8320  1.1048
24293SOL     OW80118  11.809   2.746   2.639  0.9256  0.5846 -0.0334
24293SOL    HW180119  11.771   2.664   2.608  1.2911  0.7120 -0.8603
24293SOL    HW280120  11.815   2.736   2.734  0.1273  0.0198 -0.0363
24294SOL     OW80121   3.825   1.377   0.110  0.0050 -0.5434 -0.1048
24294SOL    HW180122   3.846   1.451   0.167  1.1287 -0.7003 -0.2746
24294SOL    HW280123   3.776   1.416   0.037 -0.6709 -0.2054  0.5203
24295SOL     OW80124   8.561   5.672  10.384 -0.3055 -0.2655 -0.3704
24295SOL    HW180125   8.533   5.757  10.349 -0.7819 -0.5451 -0.6838
24295SOL    HW280126   8.653   5.666  10.360 -0.4078 -0.0724 -0.8390
24296SOL     OW80127   6.930   0.961   7.851  0.1908 -0.4046 -0.6141
24296SOL    HW180128   6.875   0.939   7.776 -0.4656 -0.5230 -0.1049
24296SOL    HW280129   7.016   0.925   7.828  0.2317  0.3124 -1.6829
24297SOL     OW80130   5.458   7.595   0.527  0.4167  0.0441  0.5334
24297SOL    HW180131   5.445   7.623   0.618  1.9367  0.0466  0.7776
24297SOL    HW280132   5.372   7.608   0.486 -0.1250  0.6880  1.7885
24298SOL     OW80133   7.280  11.111   9.124 -0.3036 -0.2855  0.5334
24298SOL    HW180134   7.292  11.140   9.215 -1.4486  0.2494  0.5263
24298SOL    HW280135   7.276  11.192   9.073 -2.4387 -0.4399  0.3756
24299SOL     OW80136  10.127  11.889  10.983 -0.3265  0.1638 -0.1082
24299SOL    HW180137  10.032  11.902  10.979 -0.2924  0.3127 -0.4914
24299SOL    HW280138  10.155  11.888  10.891  0.1005  0.5560  0.0143
24300SOL     OW80139   5.162   1.740  11.764  0.2534  0.4902 -0.0275
24300SOL    HW180140   5.240   1.796  11.762  0.8582 -0.3519 -0.5932
24300SOL    HW280141   5.119   1.763  11.846  2.2301 -0.5248  1.3815
24301SOL     OW80142   1.125   3.054   3.196  0.1416  0.1521  0.3515
24301SOL    HW180143   1.219   3.067   3.204  0.2290  3.5523 -3.1897
24301SOL    HW280144   1.115   2.964   3.166  2.3496 -0.0005 -0.0795
24302SOL     OW80145   8.623   8.148  10.595 -0.1389  0.2200  0.1263
24302SOL    HW180146   8.615   8.180  10.505  0.6085  0.8430  0.2761
24302SOL    HW280147   8.554   8.194  10.643 -2.3682 -2.0862 -0.6124
24303SOL     OW80148   8.318   6.611   4.670  0.2784 -0.1805  0.0464
24303SOL    HW180149   8.373   6.628   4.746 -0.7153 -0.5184  0.8756
24303SOL    HW280150   8.368   6.643   4.595 -0.1757  3.5351  1.1513
24304SOL     OW80151   9.926   8.691   5.129 -0.2760  0.3574  0.3876
24304SOL    HW180152   9.992   8.699   5.197  1.2534 -1.5952 -0.7511
24304SOL    HW280153   9.955   8.751   5.060  1.1208 -1.4239 -0.6516
24305SOL     OW80154  11.092   0.631   0.346  0.1734  0.3362  0.3716
24305SOL    HW180155  11.004   0.629   0.308  0.2671 -1.8401  0.1268
24305SOL    HW280156  11.080   0.608   0.438  0.6441 -2.5311 -0.2040
24306SOL     OW80157   8.919   9.670   5.787 -0.4850 -0.0949  0.6411
24306SOL    HW180158   9.002   9.708   5.758  0.1010 -1.5814  0.2590
24306SOL    HW280159   8.882   9.735   5.847  1.7147 -0.0694  2.0817
24307SOL     OW80160   7.571   2.056  11.385 -0.0463 -0.5298 -0.1651
24307SOL    HW180161   7.609   2.108  11.455 -0.2004  0.3458 -0.7129
24307SOL    HW280162   7.595   2.103  11.305  0.6759 -1.8509 -0.7561
24308SOL     OW80163  11.409   5.238   0.790 -0.1894 -0.2567 -0.4506
24308SOL    HW180164  11.443   5.148   0.789 -0.5829 -0.4209  0.3337
24308SOL    HW280165  11.325   5.232   0.746  0.0143 -0.1752 -0.8523
24309SOL     OW80166   3.075   2.527   1.629  0.6041 -0.4927 -0.2665
24309SOL    HW180167   3.141   2.583   1.671  1.2097 -1.0656 -0.4465
24309SOL    HW280168   3.047   2.467   1.698  0.2709 -0.2587 -0.1937
24310SOL     OW80169  11.766   3.779   6.384 -0.3839 -0.5085  0.7379
24310SOL    HW180170  11.843   3.735   6.348 -1.1340 -0.6789 -0.7480
24310SOL    HW280171  11.787   3.794   6.476  1.1099 -1.2293  0.5373
24311SOL     OW80172   9.751   0.051   6.516  0.2072 -0.5137  0.4596
24311SOL    HW180173   9.776  -0.004   6.591 -0.7367 -1.8692 -0.1646
24311SOL    HW280174   9.746  -0.011   6.443  2.3335  0.9774 -1.0392
24312SOL     OW80175   7.782  11.450   8.571 -0.0493  0.0859  0.2669
24312SOL    HW180176   7.819  11.373   8.614 -0.2342  0.2700  0.7661
24312SOL    HW280177   7.856  11.491   8.527  0.4920  0.7985  1.7799
24313SOL     OW80178   7.737   6.024   8.216 -0.6745 -0.1608  0.6997
24313SOL    HW180179   7.787   5.945   8.238 -0.5698 -0.9502 -2.0488
24313SOL    HW280180   7.714   6.062   8.301  0.0249 -2.6646  2.1099
24314SOL     OW80181   4.648  10.282  11.532 -0.4730  0.2678 -0.3662
24314SOL    HW180182   4.582  10.293  11.463 -0.5043 -0.0271 -0.3827
24314SOL    HW280183   4.599  10.243  11.605 -0.6815  1.5686  0.2109
24315SOL     OW80184   1.384  12.075  12.629 -0.0356  0.4621 -0.4311
24315SOL    HW180185   1.372  12.021  12.551  0.8742  0.3072 -0.4731
24315SOL    HW280186   1.465  12.044  12.668 -0.9690 -0.1575  1.1481
24316SOL     OW80187  12.068   3.759   2.028  0.2710  0.1472 -0.4304
24316SOL    HW180188  12.022   3.711   2.097  0.7118  1.5546  0.8972
24316SOL    HW280189  12.003   3.772   1.960 -1.1126  1.3260  1.0295
24317SOL     OW80190   8.178   3.198   0.897 -0.1304 -0.0636  0.1529
24317SOL    HW180191   8.257   3.176   0.945  0.1508 -1.0214 -0.7272
24317SOL    HW280192   8.126   3.118   0.897 -1.1107  0.5523  0.7192
24318SOL     OW80193  11.435   8.578   0.772 -0.1724  0.0367  0.2071
24318SOL    HW180194  11.362   8.622   0.729 -0.0834 -0.8277 -0.8568
24318SOL    HW280195  11.398   8.497   0.807  0.3472 -0.6100 -0.7054
24319SOL     OW80196   5.461   9.782   9.845 -0.3756 -0.9285  0.2168
24319SOL    HW180197   5.429   9.861   9.801  0.0095  1.4819  3.8572
24319SOL    HW280198   5.444   9.797   9.938  2.3268 -3.8708  1.3879
24320SOL     OW80199   8.310   4.983   2.554  0.4622 -0.6017  0.1142
24320SOL    HW180200   8.338   5.070   2.526  1.2941  0.0229  2.6089
24320SOL    HW280201   8.215   4.984   2.546  0.4710  0.5058  0.0676
24321SOL     OW80202   6.324   9.023  11.926 -0.0924 -0.1243 -0.2784
24321SOL    HW180203   6.274   9.058  11.852 -1.2770 -0.4347  0.3432
24321SOL    HW280204   6.408   9.069  11.922 -0.9410  1.4741 -0.5375
24322SOL     OW80205   2.585   9.821  12.471  0.5072  0.0997  0.0408
24322SOL    HW180206   2.634   9.798  12.549  0.8670  1.1649  0.1476
24322SOL    HW280207   2.493   9.821  12.499  0.3101 -2.6255 -0.3396
24323SOL     OW80208   5.895   7.906   0.923 -0.1085 -0.4093  0.6958
24323SOL    HW180209   5.910   7.853   1.001 -1.2058 -1.7725  0.0351
24323SOL    HW280210   5.974   7.892   0.870 -0.4148 -1.5033  0.4913
24324SOL     OW80211   3.719   5.179  11.861 -0.2337 -0.7246  0.0121
24324SOL    HW180212   3.697   5.094  11.899 -2.4686 -0.9019 -1.4827
24324SOL    HW280213   3.800   5.205  11.905 -1.3922 -1.9489  3.1190
24325SOL     OW80214  12.418   7.350  12.377  0.2411  0.3347 -0.2954
24325SOL    HW180215  12.485   7.416  12.394 -2.5609  3.2624  0.3122
24325SOL    HW280216  12.387   7.324  12.465 -0.3257  0.0179 -0.5797
24326SOL     OW80217   0.756   4.284   0.745  1.1194 -0.0441 -0.3508
24326SOL    HW180218   0.676   4.233   0.757 -0.6190  2.3311 -0.8427
24326SOL    HW280219   0.729   4.355   0.686  3.9041  0.2732 -1.3834
24327SOL     OW80220  12.361   1.100   7.905  0.0208  0.6457 -0.6465
24327SOL    HW180221  12.425   1.088   7.975  1.1603 -0.9659 -1.9195
24327SOL    HW280222  12.405   1.071   7.826 -1.7786  0.9442 -1.8144
24328SOL     OW80223   8.010   8.994  12.307 -0.5792  0.3497 -0.3981
24328SOL    HW180224   7.979   8.970  12.220 -2.1326  2.4438 -0.4970
24328SOL    HW280225   7.932   9.021  12.355  0.3293 -0.0644  1.4482
24329SOL     OW80226   3.724   5.109   2.705 -0.5735 -0.0040  0.3147
24329SOL    HW180227   3.773   5.049   2.760  0.1947  0.7211  0.4432
24329SOL    HW280228   3.764   5.102   2.618 -2.0206 -1.4213 -0.2879
24330SOL     OW80229  12.540   9.009   8.321 -0.5022  0.3357 -0.2494
24330SOL    HW180230  12.616   9.025   8.266  0.1095  0.2679  0.5463
24330SOL    HW280231  12.563   8.930   8.370 -0.8343  0.6510  0.4263
24331SOL     OW80232   7.058   2.045   1.863  0.5638 -0.5462  0.0512
24331SOL    HW180233   7.127   2.067   1.800 -0.5883 -0.2075 -1.1430
24331SOL    HW280234   6.986   2.013   1.809  0.4171 -2.6837  1.3913
24332SOL     OW80235   4.852   2.440   9.244 -0.6089  0.3909  0.0554
24332SOL    HW180236   4.932   2.491   9.254 -0.6980  0.2812  1.4893
24332SOL    HW280237   4.881   2.349   9.239 -0.6444  0.3350  0.7751
24333SOL     OW80238   7.364  11.751   4.202 -0.3473  0.0850 -0.0233
24333SOL    HW180239   7.296  11.813   4.178 -0.2413  0.3653  0.3769
24333SOL    HW280240   7.430  11.759   4.134 -0.1477  0.7086  0.2369
24334SOL     OW80241  11.059   0.683  11.314  0.1044  0.0886  0.0199
24334SOL    HW180242  11.110   0.719  11.387  0.1021  0.1548 -0.0116
24334SOL    HW280243  11.068   0.588  11.324 -1.8317  0.0126  1.5026
24335SOL     OW80244   0.571   2.471   3.854 -0.7924 -0.3732 -0.3700
24335SOL    HW180245   0.601   2.558   3.880 -1.1439 -0.9695  2.3164
24335SOL    HW280246   0.649   2.415   3.864 -0.5749 -0.4353 -2.0532
24336SOL     OW80247   8.739   4.610   8.804  0.2111  0.5899  0.2914
24336SOL    HW180248   8.825   4.650   8.820  0.0711  0.5673  1.1785
24336SOL    HW280249   8.741   4.530   8.858  0.3859 -0.4656 -1.2266
24337SOL     OW80250   8.366   4.372  10.176  0.0369 -0.0451 -0.5400
24337SOL    HW180251   8.369   4.288  10.223  0.9129  0.7608  0.9356
24337SOL    HW280252   8.456   4.403  10.177 -0.1230  0.5084 -1.8773
24338SOL     OW80253   4.769  10.218  10.821  0.2476 -0.0533  0.1456
24338SOL    HW180254   4.699  10.171  10.867 -1.3109  1.8857 -0.0758
24338SOL    HW280255   4.780  10.171  10.739 -0.9777 -0.3032  0.0988
24339SOL     OW80256   0.659   1.573   2.288  0.4841  0.4939  0.7756
24339SOL    HW180257   0.606   1.613   2.219  0.4763 -3.6664 -2.0266
24339SOL    HW280258   0.595   1.537   2.349  0.1031 -0.9719 -0.4098
24340SOL     OW80259   6.419   3.798  10.154  0.1369  0.0410  0.1351
24340SOL    HW180260   6.324   3.806  10.161 -0.0271 -1.0888 -0.5995
24340SOL    HW280261   6.444   3.743  10.228  0.5107  1.9998  1.5551
24341SOL     OW80262  10.036   0.568   6.680  0.2979 -0.0118 -0.6374
24341SOL    HW180263   9.955   0.590   6.725 -0.0179  1.1294 -1.7246
24341SOL    HW280264  10.105   0.611   6.731  0.2169 -0.7245  0.1044
24342SOL     OW80265   7.509   4.244  12.648  0.2017 -0.0304 -0.8797
24342SOL    HW180266   7.577   4.296  12.691 -0.5931  0.4222 -0.1500
24342SOL    HW280267   7.521   4.262  12.555  0.6055  0.6385 -0.7088
24343SOL     OW80268   9.249   4.086   1.991 -0.5484 -0.8301 -0.1504
24343SOL    HW180269   9.333   4.081   1.945 -0.8278  1.5974 -1.0296
24343SOL    HW280270   9.265   4.039   2.073  2.5093  1.6090  0.8670
24344SOL     OW80271  12.289   8.296   0.896  0.6478  0.2387 -0.8902
24344SOL    HW180272  12.316   8.342   0.976 -0.8949 -0.9538  0.3917
24344SOL    HW280273  12.359   8.313   0.833  2.0186  1.0495  0.7795
24345SOL     OW80274   8.596   2.990   3.611 -0.2971  0.0898 -0.4345
24345SOL    HW180275   8.602   2.912   3.555 -1.6152  0.2083 -0.7717
24345SOL    HW280276   8.507   3.023   3.597  0.0930  1.4197  0.0242
24346SOL     OW80277   7.946   3.540  12.333  0.4930  0.4888 -0.1001
24346SOL    HW180278   7.883   3.560  12.403  0.8070  0.1569  0.2807
24346SOL    HW280279   8.031   3.547  12.376  0.7048  0.6316 -0.5416
24347SOL     OW80280   0.050  10.224   8.455  0.1216 -0.3301 -0.9741
24347SOL    HW180281   0.046  10.302   8.398  1.7653  0.1210 -0.5077
24347SOL    HW280282   0.054  10.260   8.544 -1.8065 -1.0240 -0.5629
24348SOL     OW80283   8.834   2.771  11.318  0.1275  0.2495  0.0812
24348SOL    HW180284   8.851   2.714  11.242 -0.0663 -0.4808  0.5704
24348SOL    HW280285   8.851   2.714  11.393 -1.2554  0.4889  0.5895
24349SOL     OW80286   3.734  11.220   4.898 -0.1620  0.2636  0.6290
24349SOL    HW180287   3.655  11.220   4.953 -1.0488 -0.3338 -0.5799
24349SOL    HW280288   3.734  11.133   4.857  1.3624  0.1087  0.9270
24350SOL     OW80289  11.659   0.890   4.844 -0.0539 -0.4294  0.2522
24350SOL    HW180290  11.643   0.821   4.780 -1.0432 -0.1633  0.1995
24350SOL    HW280291  11.754   0.904   4.842 -0.0199 -0.7628 -0.7899
24351SOL     OW80292  11.180   3.819   2.879 -0.0934 -0.7864 -0.6801
24351SOL    HW180293  11.141   3.746   2.927  0.9044 -2.0301 -1.6905
24351SOL    HW280294  11.259   3.782   2.839 -0.2121  0.5149 -2.2264
24352SOL     OW80295   9.200  11.387   3.858 -0.5430 -0.1727  0.0854
24352SOL    HW180296   9.159  11.412   3.941 -0.5869  2.5982 -0.6756
24352SOL    HW280297   9.165  11.449   3.794  2.2117  0.1255 -1.3017
24353SOL     OW80298   9.817   6.386   5.178 -0.0170 -0.4589 -0.0824
24353SOL    HW180299   9.846   6.405   5.267 -0.5801 -0.5689  0.1324
24353SOL    HW280300   9.772   6.465   5.149  0.1147 -0.4441 -0.2512
24354SOL     OW80301   4.562  10.901   4.491 -0.2853  0.5371  0.4289
24354SOL    HW180302   4.627  10.853   4.542 -0.2121  0.0092 -0.1527
24354SOL    HW280303   4.600  10.988   4.478 -0.0327  0.4717  0.7392
24355SOL     OW80304   2.308   3.886  11.177 -0.3106  0.2544 -0.0702
24355SOL    HW180305   2.300   3.935  11.095 -0.8759 -0.4148 -0.4303
24355SOL    HW280306   2.218   3.859  11.198 -0.1155  0.0725  0.5490
24356SOL     OW80307   5.056   3.392  11.882 -0.6536  0.4744  0.1498
24356SOL    HW180308   4.998   3.349  11.945  0.8577  0.1198  1.3563
24356SOL    HW280309   5.071   3.327  11.814 -0.4690  0.0260  0.6138
24357SOL     OW80310   6.861   8.942   7.783  0.2500 -0.3492 -0.4442
24357SOL    HW180311   6.830   8.894   7.860 -1.3771  0.9992 -0.1903
24357SOL    HW280312   6.905   8.876   7.730  0.0376 -1.6399  0.9097
24358SOL     OW80313   2.983   8.731   4.418 -0.0394 -0.0763  0.0534
24358SOL    HW180314   3.005   8.638   4.423  0.7184 -0.1188 -2.8118
24358SOL    HW280315   2.980   8.751   4.325 -2.4098  2.3059  0.5125
24359SOL     OW80316   2.474   8.873   2.345  0.0818 -0.1990 -0.3642
24359SOL    HW180317   2.393   8.838   2.306 -0.0793 -0.2283 -0.0058
24359SOL    HW280318   2.543   8.840   2.287  0.0175 -1.8490  0.4315
24360SOL     OW80319   6.186   8.094   5.482 -0.0236  0.2540  0.0109
24360SOL    HW180320   6.130   8.054   5.549 -1.1547  0.5672 -0.7007
24360SOL    HW280321   6.225   8.019   5.436 -0.1831  0.0126  0.2620
24361SOL     OW80322   0.307   8.552   4.546 -0.1025  0.7063 -0.2120
24361SOL    HW180323   0.306   8.646   4.529 -0.3363  0.4767 -1.5487
24361SOL    HW280324   0.373   8.517   4.487  1.5269  0.2619  1.7615
24362SOL     OW80325   1.924   6.124   6.825  0.5725  0.3210  0.1655
24362SOL    HW180326   1.970   6.054   6.871 -1.7730  0.4984  3.0889
24362SOL    HW280327   1.907   6.190   6.891 -2.3947  0.9605 -1.0506
24363SOL     OW80328   0.350   7.764   9.148 -0.1693 -0.9236 -0.1250
24363SOL    HW180329   0.286   7.834   9.161 -0.7274 -1.1419 -1.4961
24363SOL    HW280330   0.345   7.711   9.227 -0.2271  0.1894  0.6359
24364SOL     OW80331   4.323   3.377   3.283 -0.8340 -0.6603 -0.2926
24364SOL    HW180332   4.244   3.323   3.283 -0.8662 -0.6135 -0.0450
24364SOL    HW280333   4.355   3.373   3.193 -0.5022 -1.5709 -0.1476
24365SOL     OW80334   4.181   8.608  11.313  0.1664  0.2797 -0.6641
24365SOL    HW180335   4.103   8.566  11.277 -1.7119 -0.2452  3.4356
24365SOL    HW280336   4.229   8.538  11.355  1.1204  1.1098 -0.3358
24366SOL     OW80337   1.852   8.426  10.538 -0.2593 -0.0097  0.4648
24366SOL    HW180338   1.827   8.355  10.596  0.3066 -0.3007  0.3597
24366SOL    HW280339   1.904   8.485  10.592 -0.1901 -0.0034  0.3928
24367SOL     OW80340   5.605   0.246   0.343  0.0593  0.4423  0.1325
24367SOL    HW180341   5.638   0.263   0.255 -0.6070  1.7428  0.1130
24367SOL    HW280342   5.558   0.163   0.335 -0.3782  0.7725 -0.8475
24368SOL     OW80343   7.571   1.700   3.389 -0.0423  0.2690 -0.0492
24368SOL    HW180344   7.557   1.636   3.319  1.6307  0.9304 -1.0317
24368SOL    HW280345   7.631   1.764   3.351 -2.2625  2.9190  0.5972
24369SOL     OW80346   6.635   3.345   1.279  0.3447 -0.4521  0.1546
24369SOL    HW180347   6.685   3.401   1.220  1.2355 -0.2723  1.0481
24369SOL    HW280348   6.558   3.319   1.228  0.6282  0.4243 -0.7598
24370SOL     OW80349   6.520   2.386  11.605  0.2819 -0.2409 -0.2221
24370SOL    HW180350   6.544   2.314  11.663 -1.9766  0.3128  1.5292
24370SOL    HW280351   6.493   2.457  11.664 -0.4336  0.9744 -1.9291
24371SOL     OW80352  11.416   1.589   4.183 -0.2056  0.4851  0.3428
24371SOL    HW180353  11.362   1.597   4.104  1.4283 -2.8745 -1.3164
24371SOL    HW280354  11.360   1.542   4.245 -0.4105  0.1534 -0.0829
24372SOL     OW80355  10.914   2.727   5.344  0.3195  0.1291  0.1624
24372SOL    HW180356  10.833   2.778   5.350  0.5912  0.4593  1.2652
24372SOL    HW280357  10.934   2.726   5.251 -1.0016 -0.0363 -0.1438
24373SOL     OW80358   7.741   4.568   0.257 -0.7599  0.1121  0.6779
24373SOL    HW180359   7.713   4.621   0.332 -0.0287 -1.0786  1.8443
24373SOL    HW280360   7.699   4.483   0.271  0.4643 -0.5480  0.4924
24374SOL     OW80361   4.680   1.790   6.503  0.1675  0.1539 -0.0815
24374SOL    HW180362   4.714   1.772   6.591 -1.1960 -1.1333  0.2456
24374SOL    HW280363   4.680   1.885   6.496 -0.2961  0.3111  1.5864
24375SOL     OW80364   5.009   0.044  12.249  0.2447  0.6077 -0.2285
24375SOL    HW180365   5.062   0.048  12.329  1.7285 -0.4489 -1.0940
24375SOL    HW280366   5.034   0.122  12.199 -1.3873  1.7766  0.7090
24376SOL     OW80367  10.296  11.857  11.260 -0.2643 -0.0417 -0.0798
24376SOL    HW180368  10.210  11.873  11.298 -0.0036  0.3771  0.3391
24376SOL    HW280369  10.281  11.859  11.165 -0.3465  2.2349 -0.0679
24377SOL     OW80370   6.197   2.883   2.330 -0.3480 -0.1197  0.4532
24377SOL    HW180371   6.268   2.943   2.307 -0.0183 -0.4648  0.5757
24377SOL    HW280372   6.155   2.923   2.406 -0.0088 -0.1460  0.6508
24378SOL     OW80373   6.502   6.090   2.183  0.0738  0.4889  0.7463
24378SOL    HW180374   6.455   6.072   2.264 -0.4268  0.2798  0.4129
24378SOL    HW280375   6.595   6.082   2.206 -0.0698  0.4013  1.2887
24379SOL     OW80376   6.377  11.384   2.604 -0.5818  0.3602  0.2743
24379SOL    HW180377   6.309  11.317   2.599 -1.2210  1.0615 -2.1790
24379SOL    HW280378   6.457  11.339   2.578 -0.7685  0.2593 -0.1359
24380SOL     OW80379   6.793   1.695   0.473  0.3070  0.2930  0.0273
24380SOL    HW180380   6.700   1.716   0.478  0.4961  1.0894  0.2468
24380SOL    HW280381   6.829   1.722   0.557  0.6794 -0.3464  0.0851
24381SOL     OW80382   0.855  10.269   3.724  0.2403  0.0737  0.4051
24381SOL    HW180383   0.874  10.323   3.647  0.7886 -2.3026 -1.2462
24381SOL    HW280384   0.845  10.331   3.796  0.2240  2.3623 -1.4780
24382SOL     OW80385   3.119  12.264   9.537 -0.0357 -0.3684  0.1911
24382SOL    HW180386   3.086  12.206   9.605 -3.1415  0.2793 -0.5948
24382SOL    HW280387   3.051  12.331   9.528  1.0470  0.5143 -2.3840
24383SOL     OW80388   8.376  12.227   6.638 -0.2328  0.2137 -0.1014
24383SOL    HW180389   8.440  12.175   6.588  1.1420  1.6267  0.1174
24383SOL    HW280390   8.321  12.267   6.571  0.2496  0.4016 -0.3910
24384SOL     OW80391  10.181   9.436   3.133  0.1575  0.3253  0.6499
24384SOL    HW180392  10.185   9.354   3.182 -0.3142  0.3654  0.7619
24384SOL    HW280393  10.091   9.467   3.146  0.0121  0.3148 -0.2648
24385SOL     OW80394  11.478   5.218   3.503 -0.2011 -0.5171  0.0824
24385SOL    HW180395  11.491   5.292   3.444  0.6805 -2.1226 -1.8895
24385SOL    HW280396  11.435   5.151   3.449  0.3773 -1.9614  1.3209
24386SOL     OW80397  12.304   9.353   0.654 -0.4197 -0.0822  0.2367
24386SOL    HW180398  12.250   9.430   0.640  0.2631  0.2896 -0.4178
24386SOL    HW280399  12.333   9.360   0.745 -0.2433  0.5094  0.1366
24387SOL     OW80400   3.365   0.691   2.248  0.0301  0.4401  0.1157
24387SOL    HW180401   3.301   0.692   2.319 -0.4275 -1.2153 -0.2174
24387SOL    HW280402   3.323   0.639   2.179  2.3643 -2.3308  0.5670
24388SOL     OW80403  12.424   5.534   2.879 -0.9071 -0.1681  0.4959
24388SOL    HW180404  12.505   5.538   2.929 -0.0766 -0.5617 -0.7546
24388SOL    HW280405  12.412   5.623   2.846 -0.5730 -0.2612  0.1009
24389SOL     OW80406   3.848  12.539  10.770 -0.1140  0.0178 -0.7620
24389SOL    HW180407   3.875  12.469  10.829 -0.3125 -0.8034 -1.6158
24389SOL    HW280408   3.908  12.611  10.787  1.6642 -1.2147 -1.5557
24390SOL     OW80409   5.276   9.020   0.663  0.0452  0.4609 -0.1789
24390SOL    HW180410   5.341   9.020   0.733 -1.0187 -2.3027  0.9615
24390SOL    HW280411   5.325   8.992   0.585  0.5976  0.1949  0.2519
24391SOL     OW80412   5.417   1.873  11.785 -0.2579  0.0573  0.3056
24391SOL    HW180413   5.428   1.937  11.855  1.1258 -0.5686  0.6837
24391SOL    HW280414   5.421   1.788  11.828 -0.2030 -0.3245 -0.4241
24392SOL     OW80415   4.094  10.495  10.272  0.1483 -0.5687  0.0995
24392SOL    HW180416   4.157  10.567  10.268 -1.5388  0.9813 -0.3393
24392SOL    HW280417   4.021  10.530  10.323 -1.0682 -1.6622 -0.8026
24393SOL     OW80418   4.990   8.996   7.344  0.7101 -0.1027 -0.2892
24393SOL    HW180419   4.936   8.920   7.366 -1.3299  1.4706  0.4926
24393SOL    HW280420   4.963   9.020   7.255  2.1029 -0.8593 -0.9473
24394SOL     OW80421  11.852   7.320   2.580  0.0775  0.4537  0.0180
24394SOL    HW180422  11.851   7.342   2.487 -1.2429  0.5199  0.0310
24394SOL    HW280423  11.912   7.246   2.587  2.0765  1.9544 -0.5029
24395SOL     OW80424   7.150   6.654   3.931  0.0367 -0.2794 -0.1733
24395SOL    HW180425   7.145   6.677   3.839 -1.2990  0.5586  0.0862
24395SOL    HW280426   7.242   6.629   3.945  0.3822  0.1486 -1.5778
24396SOL     OW80427   3.939   0.581   3.826 -0.2162  0.4577 -0.2794
24396SOL    HW180428   3.868   0.555   3.767 -0.1438  0.7495 -0.4975
24396SOL    HW280429   3.913   0.667   3.858 -0.3631  0.2039  0.2932
24397SOL     OW80430   1.863   4.059   0.426  0.0615  0.1148 -0.2401
24397SOL    HW180431   1.769   4.037   0.426 -0.1088  0.8282 -0.2137
24397SOL    HW280432   1.878   4.098   0.340  0.0741  1.0615  0.1796
24398SOL     OW80433   0.499   2.344   1.648 -0.4646  0.1547  0.1902
24398SOL    HW180434   0.421   2.384   1.610  0.4798  0.3752 -1.6447
24398SOL    HW280435   0.472   2.315   1.735 -3.0663 -1.3304 -1.0180
24399SOL     OW80436   7.341  11.706   3.745 -0.4428 -0.8093  0.1055
24399SOL    HW180437   7.265  11.761   3.725 -1.2640 -1.1739  2.0045
24399SOL    HW280438   7.311  11.649   3.816  0.9831 -2.4026 -0.5181
24400SOL     OW80439  11.587  11.212   5.791 -0.6337  0.1445 -0.1190
24400SOL    HW180440  11.499  11.248   5.787 -0.4446  0.6380  0.0351
24400SOL    HW280441  11.611  11.219   5.883 -1.7731 -3.2927  0.5838
24401SOL     OW80442   4.453  10.016   1.615  0.1251 -0.0933 -0.1183
24401SOL    HW180443   4.467  10.067   1.695  0.1251  1.9808 -1.3695
24401SOL    HW280444   4.386  10.064   1.566  0.2017 -1.2369 -1.4311
24402SOL     OW80445   5.707  10.825   0.740 -0.0301  0.3592  0.0862
24402SOL    HW180446   5.723  10.895   0.804  0.8718  0.9401 -0.7403
24402SOL    HW280447   5.661  10.757   0.790  1.8610  0.1781  1.7440
24403SOL     OW80448   6.076   6.256   4.210  0.3398 -0.3675  0.2126
24403SOL    HW180449   5.988   6.276   4.177  0.0828 -0.9212  0.5442
24403SOL    HW280450   6.088   6.163   4.191 -0.1211 -0.9023  2.3246
24404SOL     OW80451   4.753   9.368   0.828 -0.4332  0.1737  0.4040
24404SOL    HW180452   4.717   9.440   0.777 -0.3100  0.2255  0.3882
24404SOL    HW280453   4.759   9.295   0.767  1.0812  0.6449 -0.0727
24405SOL     OW80454   4.530   0.942   3.235 -0.6049  0.7265 -0.0393
24405SOL    HW180455   4.498   0.982   3.315  0.9411  0.4879  0.7394
24405SOL    HW280456   4.558   1.016   3.181  0.4110  0.8038  0.5760
24406SOL     OW80457   1.346   9.193   1.633 -0.6177  0.4426  0.1669
24406SOL    HW180458   1.362   9.099   1.638  0.9004  0.5715 -1.3249
24406SOL    HW280459   1.258   9.201   1.597  0.0851 -0.4630 -1.8831
24407SOL     OW80460   5.681   0.419   6.895  0.6428  0.4098  0.1434
24407SOL    HW180461   5.664   0.325   6.888  0.4924  0.2514  2.1045
24407SOL    HW280462   5.597   0.460   6.876  0.6635  0.1418 -0.5389
24408SOL     OW80463   8.103   6.611   1.171  0.4099 -0.1927  0.5870
24408SOL    HW180464   8.181   6.655   1.205  1.2191 -0.7237 -0.4881
24408SOL    HW280465   8.123   6.518   1.179  0.5331 -0.3391 -1.0268
24409SOL     OW80466   5.012  12.572   6.125 -0.0843 -0.2945  0.0350
24409SOL    HW180467   4.928  12.591   6.083 -0.3310 -2.2428 -0.4311
24409SOL    HW280468   5.008  12.479   6.145  1.8114 -0.3298  0.3699
24410SOL     OW80469   4.375   3.750   6.480 -0.2593 -0.2554  0.6706
24410SOL    HW180470   4.428   3.713   6.409 -0.2161  2.1644 -0.6806
24410SOL    HW280471   4.412   3.712   6.560 -0.1350 -2.8793 -0.5183
24411SOL     OW80472   1.437   2.188   2.509 -0.3354 -0.6541  0.8092
24411SOL    HW180473   1.388   2.111   2.480 -0.1026 -0.8846  1.0247
24411SOL    HW280474   1.372   2.258   2.512 -0.6865 -0.9972  1.2673
24412SOL     OW80475   3.550   0.404   6.778  0.1927 -0.1749 -0.5011
24412SOL    HW180476   3.599   0.322   6.788  0.5638  0.0005 -0.8799
24412SOL    HW280477   3.479   0.396   6.842  0.3370 -0.7086 -0.3958
24413SOL     OW80478   6.027  11.976  10.319  0.2792 -0.0448 -0.1352
24413SOL    HW180479   6.109  11.961  10.273  0.5729 -1.1436  0.7177
24413SOL    HW280480   5.964  11.918  10.275  0.4789 -0.8344  0.6087
24414SOL     OW80481  12.547  10.957   6.434 -0.0380  0.1626  0.0597
24414SOL    HW180482  12.481  10.907   6.386  0.2841  0.1460 -0.3723
24414SOL    HW280483  12.543  10.923   6.524  0.4502 -0.9357 -0.3120
24415SOL     OW80484   3.517  10.864   8.566 -0.8533  0.0119  0.1144
24415SOL    HW180485   3.549  10.853   8.477  0.4010 -0.7628  0.6337
24415SOL    HW280486   3.557  10.791   8.615 -0.9556  0.8180  1.4451
24416SOL     OW80487   4.057   6.199  12.638  0.3287  0.1183  0.3724
24416SOL    HW180488   4.066   6.294  12.628 -0.3749 -0.0125 -2.7964
24416SOL    HW280489   4.147   6.168  12.647  0.9380  0.9163 -2.0435
24417SOL     OW80490   9.903   9.116   3.360 -0.2076  0.5191 -0.8091
24417SOL    HW180491   9.823   9.109   3.412  1.0407  0.4412  1.1936
24417SOL    HW280492   9.884   9.187   3.298 -0.4782  3.4907  2.3553
24418SOL     OW80493   4.779  12.043   4.108 -0.1839 -0.2086 -0.2416
24418SOL    HW180494   4.758  12.047   4.015 -1.8396  2.4862  0.1196
24418SOL    HW280495   4.727  11.970   4.141 -2.9405  1.3132 -0.8462
24419SOL     OW80496   0.257   3.440   2.856 -0.2636 -0.4748  0.1701
24419SOL    HW180497   0.293   3.364   2.811  1.4203 -0.0444  0.7265
24419SOL    HW280498   0.222   3.405   2.938  0.6735 -0.6427  0.5093
24420SOL     OW80499  11.230   1.192   6.381  0.0241  0.7906 -0.0621
24420SOL    HW180500  11.177   1.114   6.398  0.5445  0.7499  1.5636
24420SOL    HW280501  11.179   1.264   6.418 -0.0671  1.1205 -0.8098
24421SOL     OW80502   7.522   2.692   9.234 -0.7872 -0.1583  0.0177
24421SOL    HW180503   7.524   2.785   9.256  1.9487  0.2059 -1.3521
24421SOL    HW280504   7.498   2.689   9.142  1.3791 -0.5541 -0.5950
24422SOL     OW80505   4.974   0.185  10.150  0.4567  0.0414 -0.2931
24422SOL    HW180506   5.033   0.144  10.212  0.4008 -0.7534 -0.7458
24422SOL    HW280507   5.031   0.235  10.092  0.4735  1.1294  0.6285
24423SOL     OW80508   3.836   4.070   2.226  0.4260  0.1287 -0.2727
24423SOL    HW180509   3.930   4.085   2.218  0.8212 -2.4927 -1.8758
24423SOL    HW280510   3.826   3.975   2.215 -2.2930  0.1192  1.3632
24424SOL     OW80511   1.014   3.182  10.519  0.2621 -0.2143  0.4781
24424SOL    HW180512   1.046   3.182  10.429  0.7472  0.0950  0.6455
24424SOL    HW280513   0.931   3.230  10.514  0.0930 -0.5366  0.1352
24425SOL     OW80514   9.265   4.448  11.164 -0.3408  0.7071  0.1942
24425SOL    HW180515   9.230   4.464  11.252 -0.3169 -0.6986  0.4899
24425SOL    HW280516   9.187   4.437  11.109 -0.3546  1.1196  0.1270
24426SOL     OW80517   3.790   6.191  11.614 -0.3554  0.2052 -0.0782
24426SOL    HW180518   3.859   6.168  11.552 -1.3310 -1.0055 -0.7677
24426SOL    HW280519   3.832   6.185  11.700  0.7867  1.0446 -0.5530
24427SOL     OW80520   5.983   7.470   2.140 -0.3901  0.3445 -0.1849
24427SOL    HW180521   6.048   7.511   2.083 -0.4996  1.2440  0.3231
24427SOL    HW280522   5.957   7.539   2.200 -1.6797 -0.0508 -0.2559
24428SOL     OW80523   5.141   1.344   7.205 -0.5130 -0.4937 -0.5737
24428SOL    HW180524   5.175   1.321   7.119  1.2504  1.1641 -0.3927
24428SOL    HW280525   5.071   1.280   7.222  0.5735 -2.2113 -2.2611
24429SOL     OW80526   2.643   9.502   8.059  0.3979 -0.0048  0.3692
24429SOL    HW180527   2.632   9.557   8.137 -0.2767 -1.6241  1.4693
24429SOL    HW280528   2.709   9.547   8.007  0.7954  1.1871  1.8312
24430SOL     OW80529   0.626   8.078   7.892 -0.3962  0.4380  0.6908
24430SOL    HW180530   0.692   8.144   7.871  0.8959 -1.0342 -0.0788
24430SOL    HW280531   0.602   8.097   7.983 -0.7059  2.4665  0.2291
24431SOL     OW80532   4.872  10.686   5.054 -0.2040 -0.2263 -0.3658
24431SOL    HW180533   4.906  10.621   5.116  1.4553  1.7368  0.9134
24431SOL    HW280534   4.778  10.687   5.070  0.0819 -0.3599  1.6151
24432SOL     OW80535   8.081  11.604   8.246 -0.1515 -0.3358 -0.0781
24432SOL    HW180536   8.102  11.531   8.187  0.7042  0.5784 -0.9373
24432SOL    HW280537   7.986  11.606   8.250 -0.1908 -1.3567 -0.2180
24433SOL     OW80538  11.337  11.787   8.659 -0.2907  0.2728  0.2631
24433SOL    HW180539  11.363  11.875   8.632 -0.9891  0.4810  0.2348
24433SOL    HW280540  11.334  11.792   8.755 -0.2993  0.2718  0.2627
24434SOL     OW80541   9.627   6.389   7.990  0.3623 -0.5784 -0.1755
24434SOL    HW180542   9.560   6.439   8.036 -0.0911  0.2395 -1.6696
24434SOL    HW280543   9.709   6.433   8.011 -0.0348  0.8341 -1.4761
24435SOL     OW80544   8.137  10.468   9.072  0.2921  0.3258 -0.0797
24435SOL    HW180545   8.173  10.466   9.161  2.5613 -0.9353 -0.9563
24435SOL    HW280546   8.043  10.450   9.084  0.1462  2.1092  2.1755
24436SOL     OW80547   5.755   6.054   4.761 -0.0207 -0.0858 -0.0867
24436SOL    HW180548   5.814   6.014   4.825  2.1372  0.4232 -1.6696
24436SOL    HW280549   5.792   6.140   4.745 -1.3095  0.3192 -1.0470
24437SOL     OW80550   7.306   1.163   8.068  0.7391 -0.2884  0.1539
24437SOL    HW180551   7.298   1.169   8.163 -0.7488  0.0307  0.0235
24437SOL    HW280552   7.342   1.248   8.041 -0.9396  0.4816  0.2423
24438SOL     OW80553   3.737  10.226   4.135  0.8427 -0.3722  0.0947
24438SOL    HW180554   3.809  10.227   4.199 -0.8294 -3.1103  2.2152
24438SOL    HW280555   3.748  10.143   4.088 -0.6442 -0.5980  0.1194
24439SOL     OW80556   6.700   0.122   4.675  0.6023  0.4445 -0.1730
24439SOL    HW180557   6.737   0.050   4.727 -0.0906  2.0717  2.8406
24439SOL    HW280558   6.606   0.104   4.674  0.3328  1.6049  1.2435
24440SOL     OW80559   5.431   5.302   4.181  0.2536  0.2528  0.0421
24440SOL    HW180560   5.394   5.319   4.095  0.5229 -0.9503 -0.3427
24440SOL    HW280561   5.455   5.209   4.178  0.0508  0.1329  1.4986
24441SOL     OW80562  11.033   9.113   6.122  0.3900  0.2614 -0.1956
24441SOL    HW180563  11.109   9.156   6.083 -0.0727  0.5784 -0.7555
24441SOL    HW280564  10.958   9.161   6.089 -0.0617 -0.0614  0.3434
24442SOL     OW80565  11.158  11.607   8.044  0.2117 -0.0052  0.0328
24442SOL    HW180566  11.190  11.664   7.973 -1.5601  0.2419 -0.6288
24442SOL    HW280567  11.064  11.623   8.045  0.1908 -0.0224  2.4644
24443SOL     OW80568   6.765  10.990   5.836 -0.7365 -0.4019 -0.2696
24443SOL    HW180569   6.760  11.086   5.840  0.4999 -0.2407 -1.6436
24443SOL    HW280570   6.853  10.970   5.869 -1.1228 -1.1015  0.3460
24444SOL     OW80571   0.231   0.224  11.702  0.1597  0.2944 -0.4784
24444SOL    HW180572   0.268   0.261  11.622  0.6043  1.3358  0.1930
24444SOL    HW280573   0.304   0.179  11.744 -0.1265 -0.4492 -0.7566
24445SOL     OW80574   5.787   6.031  10.255  0.5569  0.1913 -0.8105
24445SOL    HW180575   5.774   6.091  10.328 -0.9182  0.7391 -1.4993
24445SOL    HW280576   5.830   6.083  10.188  0.4243  0.1366 -0.9377
24446SOL     OW80577  12.530   4.884   3.142 -0.0861 -0.2093  0.2113
24446SOL    HW180578  12.563   4.935   3.216 -0.0700  1.1171 -0.6723
24446SOL    HW280579  12.436   4.903   3.139 -0.5642 -2.2002  1.3523
24447SOL     OW80580   1.817   7.540   9.529 -0.1149  0.0538  0.5914
24447SOL    HW180581   1.758   7.529   9.604  1.2359 -1.0078  1.5518
24447SOL    HW280582   1.817   7.634   9.513 -2.0303  0.0984  0.5659
24448SOL     OW80583   4.655   8.244   1.595 -0.4023 -0.9818 -0.2312
24448SOL    HW180584   4.683   8.324   1.552 -4.0232  0.3533 -0.3659
24448SOL    HW280585   4.699   8.247   1.681 -0.6068  1.2438 -0.1517
24449SOL     OW80586   7.995  12.080  11.122 -0.5086  0.0453  0.1312
24449SOL    HW180587   8.083  12.114  11.107 -0.7266 -0.4717 -2.9254
24449SOL    HW280588   7.990  12.067  11.217  1.4086  3.4581  0.8682
24450SOL     OW80589   8.397   5.010   6.224  0.3005 -0.2818  0.6542
24450SOL    HW180590   8.412   5.104   6.224 -0.1021 -0.2021  1.8700
24450SOL    HW280591   8.304   4.999   6.245  0.3600 -0.9478  0.6150
24451SOL     OW80592   0.897   0.803   7.681  0.4096 -0.3550  0.0629
24451SOL    HW180593   0.929   0.878   7.630 -0.5544 -0.1069 -0.2090
24451SOL    HW280594   0.855   0.747   7.616  0.2509 -0.6467  0.4148
24452SOL     OW80595  11.986   9.268   2.542  0.1509 -0.2139  0.1173
24452SOL    HW180596  12.072   9.234   2.562  0.2811 -1.4740 -2.2087
24452SOL    HW280597  11.998   9.363   2.534  1.1558 -0.3084  0.4721
24453SOL     OW80598   7.030   2.656   0.479 -0.1970  0.1983 -0.1197
24453SOL    HW180599   6.952   2.661   0.423  1.2547  0.7037 -2.2112
24453SOL    HW280600   7.056   2.564   0.474 -0.0614  0.2454 -0.3061
24454SOL     OW80601  10.854  11.345   1.534  0.3403  0.0310  0.5457
24454SOL    HW180602  10.945  11.344   1.507  0.7099  3.7706  1.0475
24454SOL    HW280603  10.818  11.424   1.494 -2.4311 -0.8127  1.1500
24455SOL     OW80604   0.621   7.986   3.681 -0.0527  0.2176 -0.1842
24455SOL    HW180605   0.581   8.036   3.610 -0.3811  2.0332  1.2083
24455SOL    HW280606   0.705   7.958   3.645 -0.8285 -0.1924 -1.7716
24456SOL     OW80607  10.958  10.038  11.891 -0.1801  0.2504 -0.0147
24456SOL    HW180608  10.935   9.946  11.873 -1.1683  0.5371 -0.2743
24456SOL    HW280609  11.006  10.035  11.974 -0.4936 -0.4638  0.1484
24457SOL     OW80610  10.015   7.568   8.038  0.4132  0.6162  0.4026
24457SOL    HW180611   9.962   7.631   8.087  0.7515  0.6223  0.7751
24457SOL    HW280612  10.092   7.554   8.094  0.2188 -0.3275  0.4408
24458SOL     OW80613  11.319  10.204   2.746 -0.1191  0.2835 -0.6302
24458SOL    HW180614  11.403  10.164   2.767  0.3883  1.0862 -1.0806
24458SOL    HW280615  11.318  10.212   2.651 -1.3809 -1.1140 -0.7784
24459SOL     OW80616   4.056   5.922  10.750 -0.1385  0.0922  0.4229
24459SOL    HW180617   4.065   5.961  10.663 -0.3142  1.2252  0.8938
24459SOL    HW280618   4.141   5.935  10.791  0.4026 -1.6758 -0.0323
24460SOL     OW80619   1.477   4.892   9.406 -0.1863  0.4700  0.4879
24460SOL    HW180620   1.499   4.963   9.346  0.2936  0.2247  0.3660
24460SOL    HW280621   1.385   4.906   9.428 -0.2485  0.8025  0.0230
24461SOL     OW80622  10.898   4.815  11.072 -0.3774  0.1912  0.3962
24461SOL    HW180623  10.875   4.781  11.158 -0.2982 -0.7182  0.0683
24461SOL    HW280624  10.817   4.855  11.040 -0.7520 -0.5489  0.3934
24462SOL     OW80625   3.192   1.486  10.929 -0.1660 -0.0352  0.2647
24462SOL    HW180626   3.188   1.394  10.953  0.9754 -0.1868 -0.0816
24462SOL    HW280627   3.155   1.490  10.841 -1.5242  0.0732  0.8037
24463SOL     OW80628   2.587   9.162   4.932 -0.2577  0.2028 -0.8830
24463SOL    HW180629   2.641   9.241   4.930  0.3435  0.1089  3.1127
24463SOL    HW280630   2.497   9.194   4.939 -0.0669  0.5789  0.0364
24464SOL     OW80631   4.389   7.260  12.043  0.2054  0.2916  0.5307
24464SOL    HW180632   4.464   7.211  12.077 -0.1729 -0.3368  0.4830
24464SOL    HW280633   4.314   7.226  12.092 -0.1186  0.5502  0.2207
24465SOL     OW80634  12.385   2.822   5.429 -0.3358 -0.0425  0.2885
24465SOL    HW180635  12.333   2.797   5.505 -1.7976  0.2448 -0.5824
24465SOL    HW280636  12.418   2.909   5.450 -0.4347 -0.1071  0.7264
24466SOL     OW80637   7.319   0.674   1.304 -0.1842 -0.1972  0.3222
24466SOL    HW180638   7.379   0.617   1.255  1.0102  0.3361  1.1287
24466SOL    HW280639   7.313   0.633   1.390 -0.1730  0.3161  0.5650
24467SOL     OW80640   8.419   6.010   0.758 -0.6556  0.2347 -0.3513
24467SOL    HW180641   8.515   6.017   0.754 -0.4273 -2.0920 -0.3949
24467SOL    HW280642   8.401   5.984   0.848 -1.3037  1.0292 -0.2393
24468SOL     OW80643   0.432   6.054   6.615  0.7831  0.0889 -0.4967
24468SOL    HW180644   0.429   6.118   6.544  3.9985 -0.5939 -1.4514
24468SOL    HW280645   0.484   6.096   6.684  0.0638 -0.2726  0.2833
24469SOL     OW80646   9.623   3.496   9.837 -0.1058  0.2269 -0.0099
24469SOL    HW180647   9.672   3.517   9.757 -1.6323  4.0217 -0.1341
24469SOL    HW280648   9.566   3.423   9.811  1.3843 -0.4612 -1.5317
24470SOL     OW80649   0.556  10.811   2.688  0.1624 -0.1664 -0.0723
24470SOL    HW180650   0.634  10.834   2.638 -0.3361  1.4346 -0.2077
24470SOL    HW280651   0.506  10.893   2.691 -0.4972 -0.5930  1.8426
24471SOL     OW80652  10.610   3.865   8.732  0.7810  0.0576 -0.6286
24471SOL    HW180653  10.561   3.833   8.807  0.0575 -0.5363 -1.3354
24471SOL    HW280654  10.546   3.914   8.680  1.2701  0.4691 -0.8536
24472SOL     OW80655   8.792   9.535   5.173 -0.8876 -0.4259  0.2139
24472SOL    HW180656   8.726   9.475   5.207 -1.0501 -0.9051 -0.9270
24472SOL    HW280657   8.784   9.530   5.078  0.2047  0.1676  0.0687
24473SOL     OW80658   3.991   0.499   6.959 -0.6359  0.1216 -0.4257
24473SOL    HW180659   4.081   0.496   6.990 -0.6032  0.5630 -0.4724
24473SOL    HW280660   3.978   0.416   6.913  0.2602  0.7284 -1.8295
24474SOL     OW80661  11.016   0.561  10.719 -0.2115  0.2435 -0.6944
24474SOL    HW180662  10.983   0.574  10.630 -0.7985  0.6258 -0.4297
24474SOL    HW280663  10.940   0.576  10.775 -0.4428 -2.2417 -0.2325
24475SOL     OW80664   6.550   3.527   4.658  0.0134  0.2225 -0.3225
24475SOL    HW180665   6.521   3.453   4.711  0.6737  0.2644  0.1044
24475SOL    HW280666   6.549   3.493   4.568 -2.0523  0.4513 -0.4268
24476SOL     OW80667   2.156   1.364  11.426  0.5191 -0.3919 -0.0704
24476SOL    HW180668   2.228   1.307  11.455  0.2672 -0.1362  1.0982
24476SOL    HW280669   2.080   1.305  11.422  0.1517 -0.0805  1.6036
24477SOL     OW80670   6.150   9.827   8.458  0.4659 -0.1278 -0.1463
24477SOL    HW180671   6.138   9.766   8.385 -2.2525  0.5812 -0.3990
24477SOL    HW280672   6.072   9.816   8.512  1.1467  1.2975  1.2176
24478SOL     OW80673   6.840   2.034  11.440  0.2151 -0.3668 -0.1862
24478SOL    HW180674   6.801   1.949  11.419 -1.3604  0.6635 -1.6811
24478SOL    HW280675   6.923   2.034  11.392 -0.1838 -0.7304 -0.8971
24479SOL     OW80676   1.559   2.751  11.532  0.3569 -0.2526  0.2316
24479SOL    HW180677   1.485   2.690  11.533  0.1691 -0.1113 -1.3828
24479SOL    HW280678   1.631   2.703  11.572 -0.3437 -0.7648  0.8939
24480SOL     OW80679   2.261   2.965   0.378 -0.3413 -0.1067  0.4514
24480SOL    HW180680   2.194   2.946   0.444 -1.7330  0.9237 -0.6190
24480SOL    HW280681   2.285   3.056   0.395 -0.8370  0.2199 -0.5729
24481SOL     OW80682   0.083   9.195   7.151 -0.3483 -0.6585  0.1543
24481SOL    HW180683   0.170   9.175   7.187 -1.1694 -3.3634  0.8755
24481SOL    HW280684   0.057   9.115   7.105 -2.3032  0.2285 -0.3856
24482SOL     OW80685   3.428   5.932   5.777  0.4306  0.3000  0.0026
24482SOL    HW180686   3.423   5.989   5.701 -0.9694 -0.7069 -0.6925
24482SOL    HW280687   3.364   5.968   5.838  1.4113  0.9879  0.6730
24483SOL     OW80688   4.716   0.200   3.192  0.2664 -0.5836 -0.5440
24483SOL    HW180689   4.706   0.108   3.218  1.9721 -1.1595 -1.7478
24483SOL    HW280690   4.655   0.211   3.120 -1.6150 -0.0783  1.0466
24484SOL     OW80691   8.798   6.694  11.540  0.1334  0.2752  0.1905
24484SOL    HW180692   8.882   6.717  11.500 -0.6009  0.6987 -1.1669
24484SOL    HW280693   8.741   6.767  11.520 -0.8677 -0.4967  0.1536
24485SOL     OW80694   5.001   8.867   8.154  0.1193  0.3639  0.2391
24485SOL    HW180695   4.923   8.852   8.208 -0.7815  0.3577 -1.0170
24485SOL    HW280696   4.966   8.898   8.070  1.3113 -1.7958 -1.1435
24486SOL     OW80697   3.814   6.349   4.994  0.3449 -0.1471 -0.0679
24486SOL    HW180698   3.864   6.362   4.914 -0.5676 -1.8024 -0.9661
24486SOL    HW280699   3.840   6.262   5.025 -0.0015  0.0838  0.9219
24487SOL     OW80700  10.123   3.910  12.215  0.6168 -0.2313 -0.2115
24487SOL    HW180701  10.165   3.852  12.278 -0.7046 -0.4573  0.5045
24487SOL    HW280702  10.097   3.987  12.267  0.0623 -0.1445 -0.6028
24488SOL     OW80703   1.961   0.970   7.319  0.5714 -0.0898  0.2055
24488SOL    HW180704   1.935   1.005   7.404  2.2862  1.1577  0.2911
24488SOL    HW280705   1.954   0.875   7.328  0.5212  0.0309  1.6806
24489SOL     OW80706   3.953   0.051   8.080  0.2978 -0.6380 -0.1867
24489SOL    HW180707   3.880   0.026   8.023  0.2281  0.5271 -0.6369
24489SOL    HW280708   3.912   0.081   8.161  0.0651  2.1494 -1.2226
24490SOL     OW80709   5.916   8.541   0.701 -0.1996 -0.0779 -0.1671
24490SOL    HW180710   5.916   8.484   0.779  0.9383 -0.2946 -0.2946
24490SOL    HW280711   5.869   8.619   0.728  2.4289  1.0162  1.6793
24491SOL     OW80712   0.523   7.653   6.519 -0.9160  0.1446  0.2452
24491SOL    HW180713   0.443   7.702   6.537  0.5244  2.7425  0.0044
24491SOL    HW280714   0.558   7.631   6.605 -1.0321  0.4833  0.3795
24492SOL     OW80715   7.059   5.325   9.001  0.2375 -0.0734  0.4738
24492SOL    HW180716   7.108   5.294   8.925 -1.1966  0.5686 -0.7816
24492SOL    HW280717   6.967   5.308   8.978 -0.2690  0.7947  1.7568
24493SOL     OW80718   0.065   4.233   7.150  0.3445 -0.0523  0.3310
24493SOL    HW180719   0.096   4.320   7.174 -0.7767  0.9700 -1.6809
24493SOL    HW280720  -0.029   4.245   7.133 -0.1286 -1.9589  1.3330
24494SOL     OW80721   9.606   5.422   8.667  0.0333  0.8035 -0.3246
24494SOL    HW180722   9.613   5.439   8.573  0.5506  3.1476  0.0964
24494SOL    HW280723   9.520   5.457   8.691 -0.4723 -0.5642 -0.0384
24495SOL     OW80724   4.257   8.947   6.220 -0.2575  0.0660 -0.3464
24495SOL    HW180725   4.224   8.936   6.309 -1.8385 -1.2710 -1.0392
24495SOL    HW280726   4.311   9.026   6.224 -2.0947  1.3392  1.3099
24496SOL     OW80727  12.694  10.032   2.427 -0.3023 -0.1504 -0.9292
24496SOL    HW180728  12.676   9.948   2.470 -0.3646  0.7290  0.8353
24496SOL    HW280729  12.739  10.008   2.346  0.1073 -1.8754 -0.2375
24497SOL     OW80730   4.187   0.142   3.945  0.6590  0.3827  0.3420
24497SOL    HW180731   4.168   0.058   3.904  0.9939  0.6651 -0.4125
24497SOL    HW280732   4.192   0.123   4.039  1.8675 -0.6458  0.0862
24498SOL     OW80733  11.293   0.911   1.947 -0.3364 -0.0621 -0.5188
24498SOL    HW180734  11.333   0.924   1.861 -0.1143  0.2869 -0.3644
24498SOL    HW280735  11.341   0.970   2.005 -0.3228 -0.4758 -0.1043
24499SOL     OW80736   6.492   9.176   1.498 -0.2010  0.4863  0.0808
24499SOL    HW180737   6.559   9.245   1.499 -0.9423  1.2740 -1.1160
24499SOL    HW280738   6.525   9.111   1.436  0.8940 -0.7080  1.8306
24500SOL     OW80739   4.282   6.168   2.234 -0.0968  0.1680 -0.1086
24500SOL    HW180740   4.323   6.082   2.239  0.3517  0.3099 -1.1126
24500SOL    HW280741   4.343   6.221   2.183 -0.7697  0.8328 -0.2414
24501SOL     OW80742   8.034   9.890   5.556  0.5834  0.1859  0.5493
24501SOL    HW180743   8.060   9.895   5.464  0.9492  1.2879  0.7034
24501SOL    HW280744   7.964   9.955   5.566  0.9030  0.4473  1.1616
24502SOL     OW80745   8.018  10.984   2.300 -0.1771  0.4909 -0.0779
24502SOL    HW180746   8.100  10.957   2.260 -0.1885  0.6043 -0.1786
24502SOL    HW280747   8.024  11.080   2.305 -0.4583  0.5289 -0.4231
24503SOL     OW80748   1.238   6.402   2.741  0.2686 -0.5431  0.0975
24503SOL    HW180749   1.240   6.333   2.674 -1.5289  0.5451 -1.1776
24503SOL    HW280750   1.274   6.479   2.697  2.5060 -0.6489  1.5890
24504SOL     OW80751   5.019  10.181   2.448  0.1012 -0.2659 -0.0575
24504SOL    HW180752   5.013  10.267   2.489 -0.2936 -1.5876  2.9292
24504SOL    HW280753   4.933  10.166   2.411 -0.1123  0.2709  0.2056
24505SOL     OW80754   9.892  12.373   0.378  0.2191 -0.1415 -0.0529
24505SOL    HW180755   9.833  12.361   0.303 -0.3117  0.0413  0.3339
24505SOL    HW280756   9.849  12.439   0.432  0.4297 -0.5421  0.6027
24506SOL     OW80757   9.183   6.574   7.367 -0.0371 -0.8877 -0.3122
24506SOL    HW180758   9.186   6.568   7.272  0.8411  1.0271 -0.4440
24506SOL    HW280759   9.264   6.531   7.396  0.4477 -0.1275 -0.5282
24507SOL     OW80760  11.391  11.399  11.671 -0.2383 -0.4037  0.4639
24507SOL    HW180761  11.299  11.418  11.655  0.2578  2.8225  0.7083
24507SOL    HW280762  11.425  11.368  11.587 -0.6976  2.6038 -0.9579
24508SOL     OW80763  12.497   7.797   0.599 -0.1014  0.2084  0.0809
24508SOL    HW180764  12.569   7.819   0.658  0.6605  1.7731 -1.3369
24508SOL    HW280765  12.535   7.803   0.511 -1.1677 -2.1298 -0.6322
24509SOL     OW80766  12.363  11.397   6.819  0.6887  0.4296 -0.5565
24509SOL    HW180767  12.416  11.386   6.740  1.4739 -0.2952  0.0438
24509SOL    HW280768  12.366  11.311   6.862 -0.1303  0.6732  0.0146
24510SOL     OW80769   9.730  10.860   3.082  1.1776 -0.3036 -0.1504
24510SOL    HW180770   9.657  10.872   3.142  0.5321  0.4536 -1.0452
24510SOL    HW280771   9.785  10.794   3.123  1.0577  0.5932  1.5267
24511SOL     OW80772   0.981   6.246   2.770 -0.1091  0.3170  0.2703
24511SOL    HW180773   1.001   6.329   2.814  0.2608  0.0092  0.6831
24511SOL    HW280774   1.035   6.181   2.814 -1.0704 -0.3157  0.5632
24512SOL     OW80775   1.762  11.991   6.389 -0.4089  0.4317  0.5602
24512SOL    HW180776   1.687  11.942   6.424 -1.1001  0.9628 -0.1322
24512SOL    HW280777   1.736  12.083   6.398  0.6704  0.6835  1.4081
24513SOL     OW80778  11.761  11.997  10.549  0.0752  0.2635  0.0600
24513SOL    HW180779  11.768  12.015  10.455 -2.1312 -1.3198 -0.4583
24513SOL    HW280780  11.799  11.910  10.559 -0.6813 -0.0174  0.4625
24514SOL     OW80781  11.385   9.044   4.374 -0.4205 -0.5809  0.0553
24514SOL    HW180782  11.296   9.077   4.369  0.2884  1.2740 -1.3118
24514SOL    HW280783  11.440   9.121   4.387  1.1855 -1.3526 -1.5562
24515SOL     OW80784   8.253   4.369   2.857  0.0261 -0.1479  0.1165
24515SOL    HW180785   8.207   4.422   2.922 -0.6851  0.8543 -1.1537
24515SOL    HW280786   8.278   4.431   2.789  0.0286 -1.2894 -0.9574
24516SOL     OW80787   5.777   4.657   7.425  0.0922 -0.0146 -0.2357
24516SOL    HW180788   5.800   4.644   7.517 -2.4837 -1.1903  0.3290
24516SOL    HW280789   5.747   4.747   7.420 -0.5963 -0.2000  0.3191
24517SOL     OW80790   0.596   2.189   0.251  0.0339 -0.2805 -0.5412
24517SOL    HW180791   0.595   2.229   0.165  1.5760 -0.0796 -0.5025
24517SOL    HW280792   0.675   2.224   0.293 -0.2236 -1.0273  0.6256
24518SOL     OW80793   1.829  10.028   3.390  0.0805  0.9609  0.0574
24518SOL    HW180794   1.862   9.973   3.461 -0.8258  0.2685 -0.0391
24518SOL    HW280795   1.739  10.000   3.378 -0.7880  3.2156  0.7400
24519SOL     OW80796  11.695  11.859   9.844  0.2789  0.1618 -0.2895
24519SOL    HW180797  11.736  11.930   9.892 -0.6889  2.2101 -2.2667
24519SOL    HW280798  11.611  11.845   9.888  1.4741 -1.6315  1.6341
24520SOL     OW80799  10.152   3.906   6.428  0.4231 -0.2235 -0.7350
24520SOL    HW180800  10.161   3.811   6.421  0.6357 -0.1401 -1.8599
24520SOL    HW280801  10.143   3.923   6.521  0.2012 -1.3646 -0.5398
24521SOL     OW80802   2.670  11.212   8.059  0.1764 -0.1542  0.1874
24521SOL    HW180803   2.593  11.191   8.005  0.6686 -2.2819  0.2260
24521SOL    HW280804   2.633  11.239   8.143 -0.5579  1.2361 -0.5480
24522SOL     OW80805   5.165   9.181  10.676 -0.5001  0.0227 -0.0742
24522SOL    HW180806   5.214   9.247  10.626  0.3367 -0.2856  0.3164
24522SOL    HW280807   5.073   9.203  10.661 -0.2428  0.9454 -0.3953
24523SOL     OW80808   1.648   0.421   4.183 -0.2004 -0.5136 -0.7127
24523SOL    HW180809   1.574   0.477   4.158  0.1756  0.2436 -0.1737
24523SOL    HW280810   1.637   0.343   4.130 -2.0992 -0.9623  0.2397
24524SOL     OW80811  11.313   0.337   1.363  0.6216  0.0150  0.1062
24524SOL    HW180812  11.406   0.315   1.367  1.0671  1.6139 -0.6861
24524SOL    HW280813  11.282   0.293   1.283  0.9959  0.4656 -0.2947
24525SOL     OW80814  12.353  11.837   8.810  0.3648  0.2346  0.1596
24525SOL    HW180815  12.428  11.887   8.841  1.0474  0.0621 -1.1613
24525SOL    HW280816  12.308  11.896   8.750 -0.5295  0.3028  0.8641
24526SOL     OW80817  10.991   3.601  11.061 -0.0887 -0.0482 -0.2331
24526SOL    HW180818  10.968   3.525  11.008  1.1576  0.8081 -2.0944
24526SOL    HW280819  10.950   3.584  11.146  0.9279 -3.2442 -0.2501
24527SOL     OW80820   3.665  10.154   7.606 -0.1861 -0.0262  0.6107
24527SOL    HW180821   3.577  10.179   7.575  0.5531 -0.7422 -2.4227
24527SOL    HW280822   3.649  10.106   7.687 -2.7698 -1.3509 -0.5534
24528SOL     OW80823   2.027  10.899   7.230  0.6468 -0.1305 -0.5146
24528SOL    HW180824   2.005  10.811   7.260 -1.3370  0.7259  0.7401
24528SOL    HW280825   2.100  10.926   7.287  0.5161 -0.5347 -0.1515
24529SOL     OW80826   1.622   3.939   3.326  0.8699  0.2217  0.0170
24529SOL    HW180827   1.678   3.924   3.401  1.3378 -2.1963 -0.7347
24529SOL    HW280828   1.534   3.915   3.356  1.0933 -0.9704 -0.2354
24530SOL     OW80829  12.068   7.328   1.435  0.1990 -0.3848 -0.0154
24530SOL    HW180830  11.983   7.353   1.398  0.2174 -0.6370 -0.2244
24530SOL    HW280831  12.068   7.233   1.433  1.2075 -0.3733 -1.6402
24531SOL     OW80832  10.031  11.434   9.668  0.7128  0.0129  0.1040
24531SOL    HW180833  10.061  11.392   9.588 -0.4470 -0.5273 -0.0581
24531SOL    HW280834  10.074  11.386   9.739 -0.4530 -1.3569 -0.0842
24532SOL     OW80835  11.111   9.698   0.551  0.0810  0.9338 -0.0521
24532SOL    HW180836  11.167   9.768   0.517  2.0197  0.5254  2.0896
24532SOL    HW280837  11.165   9.620   0.549 -2.1806 -0.7487 -2.7821
24533SOL     OW80838   7.157  10.093   9.459  0.0289 -0.6570  0.1969
24533SOL    HW180839   7.097  10.043   9.405  0.1622  0.4805 -1.0515
24533SOL    HW280840   7.105  10.168   9.489  0.5535 -0.1609 -0.1204
24534SOL     OW80841   2.808   0.345   3.686  0.2207 -0.0257  0.1157
24534SOL    HW180842   2.832   0.438   3.693  1.3530 -0.3009  0.1007
24534SOL    HW280843   2.886   0.303   3.648  0.4968 -1.2982  1.9495
24535SOL     OW80844   6.350   1.869   1.653 -0.3800  0.3728  0.1169
24535SOL    HW180845   6.279   1.807   1.670 -0.6868  0.6656 -0.1160
24535SOL    HW280846   6.423   1.813   1.626 -0.4645  0.0574  0.5205
24536SOL     OW80847   3.047   4.783   7.959 -0.2296  0.2666  1.0263
24536SOL    HW180848   3.036   4.710   7.898 -0.3735  0.8202  0.3720
24536SOL    HW280849   3.141   4.799   7.961 -0.2130  0.1659  1.0433
24537SOL     OW80850   5.095  12.004   8.447  0.0810 -0.4080 -0.0469
24537SOL    HW180851   5.063  11.974   8.532 -0.5140  2.2970  0.8013
24537SOL    HW280852   5.016  12.021   8.396  0.3943 -0.7507 -0.6541
24538SOL     OW80853   4.105   2.494  11.843  0.7009  0.7136 -0.5015
24538SOL    HW180854   4.060   2.569  11.805  1.1316  0.6118 -1.2354
24538SOL    HW280855   4.040   2.453  11.899 -0.7864 -0.5014 -2.9325
24539SOL     OW80856   7.416  11.633   6.135  0.2530  0.6152 -0.2812
24539SOL    HW180857   7.471  11.648   6.059  0.7668  1.1806  0.1915
24539SOL    HW280858   7.460  11.679   6.206 -0.7003  0.8617  0.1646
24540SOL     OW80859   6.373   5.149   2.794 -0.6332 -0.0270 -0.4293
24540SOL    HW180860   6.323   5.101   2.727  0.3116 -0.6199 -0.7289
24540SOL    HW280861   6.463   5.151   2.760 -0.4270  0.9691  0.1260
24541SOL     OW80862   9.108   9.169   9.850 -0.0551  0.5021 -0.2049
24541SOL    HW180863   9.021   9.153   9.885  0.2356 -2.0681 -0.4754
24541SOL    HW280864   9.115   9.265   9.846 -3.4438  0.8362 -1.6555
24542SOL     OW80865  11.387  10.967   3.616 -0.2420  0.2609  0.1296
24542SOL    HW180866  11.404  11.051   3.659  0.1011  1.2964 -1.8807
24542SOL    HW280867  11.320  10.987   3.551 -0.3175 -1.0953 -0.2423
24543SOL     OW80868   4.540   2.108   1.268  0.0892 -0.7015  0.1864
24543SOL    HW180869   4.462   2.072   1.225 -0.0558 -0.4475  0.2394
24543SOL    HW280870   4.508   2.179   1.323  0.5956  0.8704 -1.4502
24544SOL     OW80871  12.392   1.859   8.473 -0.2828  0.2500  0.0007
24544SOL    HW180872  12.401   1.868   8.568 -1.2515  1.3640 -0.0033
24544SOL    HW280873  12.302   1.884   8.454 -0.4871 -1.1594 -1.0948
24545SOL     OW80874   4.724  11.188   2.501  0.0472  0.5262  0.7326
24545SOL    HW180875   4.728  11.283   2.492  2.4184  0.8330  3.3761
24545SOL    HW280876   4.678  11.174   2.584 -0.6883 -0.6772  0.1457
24546SOL     OW80877   6.746   9.260   0.657 -0.3430  0.0153  0.0882
24546SOL    HW180878   6.765   9.221   0.742  0.7883 -1.5535 -0.8166
24546SOL    HW280879   6.654   9.283   0.661 -0.3705 -0.2509  1.6438
24547SOL     OW80880   3.854  10.668   6.400  0.7795 -0.1547  0.5993
24547SOL    HW180881   3.886  10.758   6.412 -0.1539  0.6618 -2.1748
24547SOL    HW280882   3.765  10.669   6.435  0.7461  0.0244  0.5095
24548SOL     OW80883   1.162   7.785  10.756 -0.2471 -0.6365 -0.0179
24548SOL    HW180884   1.093   7.719  10.755  0.8567 -1.8253 -0.1967
24548SOL    HW280885   1.239   7.740  10.790  0.3030  0.8293  0.7907
24549SOL     OW80886   1.985   9.437   7.037 -0.2002  0.1994  0.1558
24549SOL    HW180887   1.962   9.412   7.127  1.0445 -0.3462  0.3420
24549SOL    HW280888   2.076   9.467   7.043 -0.2537  0.6021 -0.8493
24550SOL     OW80889   6.361   0.084  10.989  0.4211  0.5045 -0.4641
24550SOL    HW180890   6.332   0.039  10.910 -0.4738  1.0317 -0.4536
24550SOL    HW280891   6.328   0.174  10.979  1.4596  0.9476 -0.1124
24551SOL     OW80892  10.395   4.932  11.174 -0.3607 -0.5069 -0.4594
24551SOL    HW180893  10.414   4.839  11.164 -2.9656 -1.5618  2.5325
24551SOL    HW280894  10.313   4.944  11.127 -1.2059 -0.3479  0.9864
24552SOL     OW80895   6.177  12.626   4.298 -0.0190  0.7220  0.0957
24552SOL    HW180896   6.221  12.543   4.281  0.5542  0.4490  2.5421
24552SOL    HW280897   6.138  12.650   4.214  2.6054 -0.3196 -1.5737
24553SOL     OW80898   8.615   0.870   4.498 -0.1176  0.6157  0.1046
24553SOL    HW180899   8.647   0.958   4.478  0.5402  0.5605  0.8504
24553SOL    HW280900   8.671   0.840   4.570 -0.4125 -0.3665 -0.0617
24554SOL     OW80901   0.031   4.249  11.707  0.2252 -0.2799 -0.1225
24554SOL    HW180902   0.123   4.227  11.700  0.5639  1.0226 -0.1033
24554SOL    HW280903   0.025   4.338  11.673 -0.8813 -0.0402  0.6245
24555SOL     OW80904   2.059   0.940   9.974  0.2152 -0.0028  0.0309
24555SOL    HW180905   2.020   1.005  10.033  0.4060  0.1405 -0.0004
24555SOL    HW280906   1.988   0.916   9.915 -0.5796 -1.6053  1.5248
24556SOL     OW80907   0.332   3.403   6.248  0.1652 -0.2568 -0.2719
24556SOL    HW180908   0.326   3.414   6.343 -0.6348  0.7918 -0.4245
24556SOL    HW280909   0.330   3.308   6.235  1.0123 -0.4464  0.7840
24557SOL     OW80910  12.608   3.631   7.636 -0.0148 -0.6982 -0.0628
24557SOL    HW180911  12.556   3.677   7.702 -0.9639 -1.1147 -0.4994
24557SOL    HW280912  12.608   3.540   7.665 -0.2485 -0.8425 -0.5102
24558SOL     OW80913   9.672   4.929  11.800 -0.2788  0.4170  0.0807
24558SOL    HW180914   9.711   5.015  11.783  2.3264 -0.9224 -1.3678
24558SOL    HW280915   9.632   4.904  11.716 -0.5257  0.0153  0.3170
24559SOL     OW80916   2.238   1.128   9.245 -0.0068  0.0772  0.2701
24559SOL    HW180917   2.208   1.132   9.336 -0.7474  3.4905  0.0125
24559SOL    HW280918   2.165   1.088   9.198 -1.1264  1.4930  0.7302
24560SOL     OW80919   3.423   1.366  11.829 -0.5812  0.6693  0.1399
24560SOL    HW180920   3.430   1.455  11.793 -0.9404  0.0378 -1.6031
24560SOL    HW280921   3.391   1.313  11.756 -0.1803 -0.9526  1.0821
24561SOL     OW80922   0.817   0.066   3.687 -0.9179 -0.1791 -0.0636
24561SOL    HW180923   0.835   0.148   3.734 -1.8769  0.6855 -1.1552
24561SOL    HW280924   0.723   0.070   3.667 -0.7831 -1.1094 -0.9609
24562SOL     OW80925   8.371   5.446   4.245  0.0545  0.3151 -0.2485
24562SOL    HW180926   8.371   5.365   4.194  0.4416  0.3565 -0.3189
24562SOL    HW280927   8.453   5.443   4.293  1.0888  1.6338 -1.8146
24563SOL     OW80928   6.733   7.036   0.258 -0.1449  0.8610 -0.0899
24563SOL    HW180929   6.800   7.080   0.206 -1.7498  1.0193 -2.1756
24563SOL    HW280930   6.682   7.107   0.296 -1.4588  0.8380 -1.7294
24564SOL     OW80931   4.725   3.826   7.748  0.1310 -0.0313  0.3576
24564SOL    HW180932   4.711   3.747   7.695 -0.0400 -0.5455  1.1492
24564SOL    HW280933   4.820   3.836   7.752  0.1356  1.1668 -1.6998
24565SOL     OW80934   1.257   7.765   4.775 -0.4454  0.0258  0.6444
24565SOL    HW180935   1.286   7.855   4.783 -1.6149  0.5380 -0.5998
24565SOL    HW280936   1.338   7.713   4.777  0.2280  1.0707  1.4103
24566SOL     OW80937   5.484  11.926  10.004 -0.0277  0.2746  0.0596
24566SOL    HW180938   5.529  11.865   9.946  0.8399 -0.1170  1.1056
24566SOL    HW280939   5.391  11.901   9.998  0.3374 -1.3196  0.6453
24567SOL     OW80940   1.667  10.200   0.903  0.0235  0.0486  0.2148
24567SOL    HW180941   1.616  10.142   0.959 -0.4735  1.1792  0.9803
24567SOL    HW280942   1.757  10.193   0.936 -0.2130  0.4686  0.9846
24568SOL     OW80943   7.650   0.607   2.601  0.4106 -0.4222 -0.4746
24568SOL    HW180944   7.614   0.567   2.681  0.8448  0.2293  0.0569
24568SOL    HW280945   7.741   0.628   2.623  0.3744  0.2747 -0.9544
24569SOL     OW80946  11.857  10.968   4.610 -0.1227  0.4950 -0.1142
24569SOL    HW180947  11.780  10.913   4.601 -0.3135  0.9413 -1.3846
24569SOL    HW280948  11.844  11.038   4.546  1.5888  0.2530 -0.7957
24570SOL     OW80949   3.602  10.876  11.815  0.1575 -0.1803 -0.2580
24570SOL    HW180950   3.562  10.806  11.764 -0.2012 -0.2908  0.1651
24570SOL    HW280951   3.619  10.836  11.901  0.4390  0.0973 -0.1806
24571SOL     OW80952  10.995   3.892   2.697  0.7269  0.2419 -0.0991
24571SOL    HW180953  11.064   3.864   2.759 -0.5933  0.2418  1.4440
24571SOL    HW280954  10.932   3.939   2.752 -0.9460 -0.5208 -1.2970
24572SOL     OW80955   0.938   7.038   7.108 -0.1474  0.4036  0.6166
24572SOL    HW180956   1.024   7.070   7.136 -0.5732  1.7136  0.5269
24572SOL    HW280957   0.876   7.093   7.156 -0.9508 -0.9080  1.1109
24573SOL     OW80958   3.101   8.926   0.151 -0.1400 -0.7247  0.2297
24573SOL    HW180959   3.187   8.946   0.188  0.4807  0.5230 -1.7298
24573SOL    HW280960   3.120   8.886   0.066 -1.4591  0.3209 -0.5958
24574SOL     OW80961   3.313   7.434  11.952  0.2570  0.6801 -0.3861
24574SOL    HW180962   3.394   7.384  11.954  0.1587  0.5388  0.9303
24574SOL    HW280963   3.291   7.441  11.859  0.3239 -1.6131 -0.6301
24575SOL     OW80964   2.136   1.183   5.849 -0.2992 -0.0732 -0.3041
24575SOL    HW180965   2.101   1.213   5.766 -0.6045  0.1271 -0.1059
24575SOL    HW280966   2.069   1.122   5.882  0.2782 -0.9293 -0.6711
24576SOL     OW80967   7.691   6.250   9.383  0.0319 -0.3134  0.0046
24576SOL    HW180968   7.719   6.312   9.316  0.2130  0.4431  0.7763
24576SOL    HW280969   7.672   6.303   9.460  0.7696 -1.2639  0.8733
24577SOL     OW80970   2.558   1.323   7.508  0.2904  0.0933  0.4381
24577SOL    HW180971   2.576   1.231   7.527 -1.3985 -0.4042 -0.1660
24577SOL    HW280972   2.471   1.338   7.545 -0.2505  0.9222 -1.0733
24578SOL     OW80973   5.249   1.583  10.054  0.0269 -0.4034 -0.0572
24578SOL    HW180974   5.252   1.557  10.146 -0.6592  0.4099  0.2166
24578SOL    HW280975   5.333   1.626  10.038  0.2101 -0.6860  0.1421
24579SOL     OW80976   2.595   3.472   5.168  0.0433  0.1677 -0.4145
24579SOL    HW180977   2.607   3.387   5.126 -0.3969 -0.8307  1.3958
24579SOL    HW280978   2.671   3.481   5.227  0.3485  1.2720 -0.9449
24580SOL     OW80979  10.596  10.988   5.276 -1.0072  0.1618 -0.4402
24580SOL    HW180980  10.542  11.067   5.275  0.6513  1.3279 -0.4501
24580SOL    HW280981  10.640  10.987   5.191  1.1373  0.8057  0.5964
24581SOL     OW80982   1.818   3.730   1.377 -0.2665  0.3316 -0.8019
24581SOL    HW180983   1.895   3.673   1.372 -0.3543 -0.1044  1.4388
24581SOL    HW280984   1.747   3.671   1.403 -0.8746  1.0830 -0.7359
24582SOL     OW80985  12.156  11.132   7.404 -0.4917  0.4795 -0.0386
24582SOL    HW180986  12.106  11.051   7.410 -0.0988  0.1686 -0.8237
24582SOL    HW280987  12.089  11.201   7.410 -0.9499  0.0767 -0.3905
24583SOL     OW80988  11.169   8.987  10.549 -0.1799 -0.0644  0.1806
24583SOL    HW180989  11.190   8.992  10.642  3.0902  0.6772 -0.4437
24583SOL    HW280990  11.185   9.076  10.516 -1.9963 -0.1282 -1.0122
24584SOL     OW80991   0.995  12.515  11.165  0.2321  0.0117 -0.3173
24584SOL    HW180992   1.068  12.488  11.220 -0.3231 -0.8080  0.0368
24584SOL    HW280993   0.993  12.450  11.095 -0.2263 -0.0316 -0.2647
24585SOL     OW80994   8.893   0.744   4.374  0.5249  0.0188 -0.4804
24585SOL    HW180995   8.844   0.669   4.339  1.8741 -0.7100 -0.8885
24585SOL    HW280996   8.948   0.772   4.302  2.1347 -0.4443  0.5223
24586SOL     OW80997  12.422   3.181   2.025  0.2416  0.3414 -0.1916
24586SOL    HW180998  12.368   3.117   2.072 -0.4200  1.0111 -0.0058
24586SOL    HW280999  12.506   3.180   2.070 -0.2371  0.6466  0.7574
24587SOL     OW81000  10.696   7.995   7.435 -0.2828  0.1868 -0.3137
24587SOL    HW181001  10.746   7.993   7.354 -1.3139 -0.6358 -0.9643
24587SOL    HW281002  10.676   7.903   7.453 -0.0280  0.3562  0.9033
24588SOL     OW81003   0.613   1.720   1.999 -0.7479 -0.3170 -0.2250
24588SOL    HW181004   0.615   1.633   1.959 -1.6779  0.9457 -3.2393
24588SOL    HW281005   0.703   1.753   1.989 -0.9888  0.0154 -1.4185
24589SOL     OW81006  11.368   5.101   0.111 -0.0177 -0.3555 -0.1437
24589SOL    HW181007  11.456   5.094   0.148 -0.4960  0.9307  1.3808
24589SOL    HW281008  11.324   5.020   0.137  1.2421 -1.9911 -2.6795
24590SOL     OW81009   9.032   3.073   7.433  0.4596 -0.2444 -0.2482
24590SOL    HW181010   9.019   3.168   7.431  2.6456  0.1179 -2.4786
24590SOL    HW281011   9.014   3.044   7.344  0.7457 -1.7976  0.1675
24591SOL     OW81012   6.697   4.636   1.120 -0.0244 -0.1584  0.1225
24591SOL    HW181013   6.645   4.691   1.178 -0.3925 -1.0780  0.6917
24591SOL    HW281014   6.645   4.556   1.110 -0.4874  0.3545 -2.3431
24592SOL     OW81015  10.662   3.959  12.163  0.1217  0.5510 -0.0315
24592SOL    HW181016  10.708   3.896  12.107  0.1808  0.0466  0.5766
24592SOL    HW281017  10.571   3.956  12.134  0.4547  1.6356 -1.3198
24593SOL     OW81018   0.949   4.519   9.874  0.0732 -0.1564 -0.7842
24593SOL    HW181019   1.036   4.554   9.893 -0.0528  0.1457 -0.7588
24593SOL    HW281020   0.888   4.586   9.907 -0.1821 -0.6736 -0.1722
24594SOL     OW81021   6.211   3.217   7.365 -0.2363  0.3654  0.2568
24594SOL    HW181022   6.212   3.262   7.449  0.4529  1.1339 -0.1485
24594SOL    HW281023   6.213   3.287   7.300 -0.3738 -0.2298 -0.4007
24595SOL     OW81024  11.454  10.830   2.033 -0.5450  0.5389  0.1840
24595SOL    HW181025  11.386  10.816   1.967 -1.6010 -0.3615  1.4143
24595SOL    HW281026  11.489  10.742   2.051  0.4511  0.8972  0.1035
24596SOL     OW81027   8.064  11.757  11.092  0.4076 -0.6595  0.2310
24596SOL    HW181028   8.067  11.763  10.996  0.6656  1.0412  0.3110
24596SOL    HW281029   8.043  11.846  11.121  1.3805 -0.9083  1.8017
24597SOL     OW81030  11.618   3.293   5.946  0.2069 -0.3301  0.1524
24597SOL    HW181031  11.645   3.346   5.871  0.1076 -2.6523 -1.6193
24597SOL    HW281032  11.599   3.357   6.015  0.9804  1.8531 -1.5485
24598SOL     OW81033   2.948   6.281   5.913 -0.1192 -0.7246 -0.0252
24598SOL    HW181034   2.891   6.307   5.986  0.4370 -0.2218  0.2443
24598SOL    HW281035   2.910   6.324   5.836  0.8206  1.0188  0.4244
24599SOL     OW81036   7.966  10.885   4.036 -0.6209 -0.1236  0.1343
24599SOL    HW181037   7.929  10.839   4.112 -1.3889 -0.5147 -0.4626
24599SOL    HW281038   7.889  10.913   3.986 -0.1461  1.0600  0.0360
24600SOL     OW81039  10.001  10.470   6.232  0.3038  0.3795  0.6190
24600SOL    HW181040  10.055  10.419   6.292 -0.4183  0.2732  1.1992
24600SOL    HW281041   9.996  10.557   6.272 -3.3409 -0.6378  2.9074
24601SOL     OW81042   6.675   6.000   8.751  0.4525  0.0418  0.1580
24601SOL    HW181043   6.581   6.004   8.768  0.1280 -2.0727 -0.8640
24601SOL    HW281044   6.690   5.912   8.718  2.6218  0.7131 -0.8481
24602SOL     OW81045  12.109   0.694   3.750 -0.0973  0.4583 -0.4907
24602SOL    HW181046  12.112   0.600   3.765  0.8850  0.7925  1.9386
24602SOL    HW281047  12.025   0.722   3.788 -0.2246  0.6061 -0.8791
24603SOL     OW81048   2.240   4.622   0.471  0.1672 -0.0867 -0.1998
24603SOL    HW181049   2.262   4.570   0.393  0.2902 -1.3776  0.6659
24603SOL    HW281050   2.269   4.711   0.449 -0.4973 -0.2456 -1.9161
24604SOL     OW81051   2.007   6.015   2.737 -0.4689  0.0468 -0.0371
24604SOL    HW181052   1.934   5.954   2.723 -1.4588  1.1303  0.3078
24604SOL    HW281053   2.052   5.980   2.814 -0.0007 -1.1864 -0.8318
24605SOL     OW81054   9.246  11.386  10.346  0.5389  0.1236  0.3212
24605SOL    HW181055   9.270  11.344  10.263  1.0595  1.9940 -0.5263
24605SOL    HW281056   9.157  11.418  10.331  0.1630 -0.6078  0.9436
24606SOL     OW81057  10.058   9.774   1.621  0.7119  0.5359 -0.1733
24606SOL    HW181058   9.999   9.849   1.613  0.9177  0.7861  0.5964
24606SOL    HW281059  10.023   9.710   1.559 -0.8883  0.3378  0.8596
24607SOL     OW81060   7.666  10.679   2.951 -0.0298 -0.7691  0.9492
24607SOL    HW181061   7.701  10.678   3.041 -0.1153  0.3460  1.0168
24607SOL    HW281062   7.737  10.716   2.899 -1.4318  2.8594  1.3004
24608SOL     OW81063   0.725   4.278   6.890 -0.4272 -0.4388 -0.1336
24608SOL    HW181064   0.658   4.321   6.944  0.2313  0.4572 -0.0099
24608SOL    HW281065   0.707   4.185   6.901 -3.1813 -0.2465 -2.0212
24609SOL     OW81066   4.443   8.276   6.923  0.5969 -0.8984 -0.2793
24609SOL    HW181067   4.467   8.338   6.991 -1.4766 -0.0380 -0.2605
24609SOL    HW281068   4.351   8.254   6.942  0.2772 -1.3990 -2.2005
24610SOL     OW81069   0.305   2.746   7.092 -0.3687 -0.2995  0.2065
24610SOL    HW181070   0.378   2.755   7.031 -0.8352  3.2996 -0.0632
24610SOL    HW281071   0.344   2.757   7.179 -0.0777 -2.8475  0.4801
24611SOL     OW81072   3.088   1.324  11.328  0.4898  0.0985 -0.2526
24611SOL    HW181073   3.141   1.370  11.393 -0.9515  0.0517  1.0186
24611SOL    HW281074   3.077   1.236  11.364  1.6711 -0.7209 -1.7599
24612SOL     OW81075  10.865   4.642  10.396 -0.0876 -0.1320  0.0295
24612SOL    HW181076  10.893   4.676  10.311 -0.2519 -0.1141 -0.0182
24612SOL    HW281077  10.772   4.665  10.401 -0.6203 -1.9044 -0.6889
24613SOL     OW81078   5.990   1.545   0.079 -0.3846 -0.3453  0.1569
24613SOL    HW181079   5.952   1.484   0.015 -0.1889 -1.0858  0.7283
24613SOL    HW281080   5.950   1.519   0.162  1.0548 -0.8948  0.7130
24614SOL     OW81081   6.704   7.821   8.890 -0.6757 -0.0721 -0.1844
24614SOL    HW181082   6.697   7.851   8.981 -0.0801  2.2593 -0.8288
24614SOL    HW281083   6.796   7.836   8.867 -0.9658  0.0095 -1.3561
24615SOL     OW81084   8.544   4.565   6.479 -0.6581  0.4758  0.3876
24615SOL    HW181085   8.602   4.515   6.536 -0.4058 -0.4365 -0.6278
24615SOL    HW281086   8.492   4.619   6.539 -0.3121 -0.3447  1.4607
24616SOL     OW81087   3.116   5.262  12.253 -0.4007  0.6688 -0.6096
24616SOL    HW181088   3.090   5.242  12.163 -1.4235 -1.2090  0.0599
24616SOL    HW281089   3.210   5.248  12.254 -0.5924 -0.8033 -1.0480
24617SOL     OW81090   7.030   3.180   5.405 -0.3630 -0.2662  0.0571
24617SOL    HW181091   7.108   3.192   5.460 -0.5979 -0.2231  0.3869
24617SOL    HW281092   7.064   3.176   5.316 -0.0017 -0.0527  0.1827
24618SOL     OW81093   5.667   5.213   0.946 -0.3822 -0.4232  0.2273
24618SOL    HW181094   5.705   5.230   0.860 -0.6349 -1.0460 -0.0160
24618SOL    HW281095   5.736   5.235   1.008  0.0514 -0.6601 -0.1685
24619SOL     OW81096   4.114   0.150  11.614 -0.6616 -0.4475 -0.3574
24619SOL    HW181097   4.045   0.150  11.547 -0.3464 -0.8579 -0.6831
24619SOL    HW281098   4.089   0.220  11.674 -0.7785  0.1239 -1.0751
24620SOL     OW81099   9.635   1.308  11.307 -0.0387  0.1961 -0.4140
24620SOL    HW181100   9.727   1.292  11.288  0.2189  1.8515 -0.7585
24620SOL    HW281101   9.606   1.366  11.236 -0.7437  1.4880  0.8725
24621SOL     OW81102   2.183   2.442   8.808  0.2723  0.4706 -0.5370
24621SOL    HW181103   2.115   2.393   8.762  0.9232  1.4188 -2.6793
24621SOL    HW281104   2.210   2.509   8.745  0.9476  2.1590  1.4479
24622SOL     OW81105  12.266   3.131  12.493 -0.5836  0.0057  0.5430
24622SOL    HW181106  12.223   3.085  12.421  1.1437  0.0063 -0.5521
24622SOL    HW281107  12.208   3.205  12.511 -1.5476 -0.5449 -0.1611
24623SOL     OW81108   0.757   7.972   2.282  0.0980 -0.3180  0.4571
24623SOL    HW181109   0.802   7.970   2.197 -1.4692  0.4193 -0.4430
24623SOL    HW281110   0.820   8.012   2.342  0.3421  1.5896 -0.9718
24624SOL     OW81111   1.601   9.485   9.096 -0.0159 -0.7461  0.3186
24624SOL    HW181112   1.613   9.574   9.062 -0.9742 -0.4238  0.7807
24624SOL    HW281113   1.650   9.484   9.178 -1.1734 -0.1731  1.0383
24625SOL     OW81114   5.446   1.341   9.569 -0.2228  0.2301  0.3592
24625SOL    HW181115   5.353   1.325   9.549  0.2423  0.2880 -2.3124
24625SOL    HW281116   5.447   1.425   9.615 -1.4498  0.6685 -0.3558
24626SOL     OW81117   7.768  12.143   7.656 -0.1933 -0.2817 -0.0383
24626SOL    HW181118   7.704  12.171   7.591 -0.3345  0.5167  0.4308
24626SOL    HW281119   7.739  12.183   7.737  0.9371  0.1647  0.1683
24627SOL     OW81120   5.430   6.686   7.490  0.2816  0.3722 -0.1678
24627SOL    HW181121   5.434   6.776   7.522 -1.2181  1.0753 -1.7893
24627SOL    HW281122   5.517   6.671   7.450  0.6057  1.0205  0.2861
24628SOL     OW81123   3.249   8.069   9.308  0.2249 -0.1393  0.2133
24628SOL    HW181124   3.158   8.040   9.310 -0.2494  1.1859 -0.5392
24628SOL    HW281125   3.245   8.159   9.341  1.1499  0.2040 -0.5854
24629SOL     OW81126   8.590   9.386   4.127  0.1052 -0.8616 -0.3145
24629SOL    HW181127   8.549   9.426   4.050  0.1788 -0.1051  0.0272
24629SOL    HW281128   8.520   9.382   4.192  0.4649  0.0956  0.1474
24630SOL     OW81129   4.173   7.470   1.193  0.2289  0.0782  0.1480
24630SOL    HW181130   4.241   7.536   1.204 -0.3248  0.5431  0.8783
24630SOL    HW281131   4.091   7.517   1.209 -0.3880 -0.1828 -1.9033
24631SOL     OW81132   2.642   3.118   2.008 -0.2119 -0.2441  0.0102
24631SOL    HW181133   2.579   3.047   2.022 -0.0873 -0.4979 -0.6825
24631SOL    HW281134   2.611   3.162   1.929 -0.1526  0.3349  0.3029
24632SOL     OW81135   6.541   2.290   3.756  0.1086 -0.1800  0.2045
24632SOL    HW181136   6.488   2.248   3.688  0.1120 -0.7324  0.5441
24632SOL    HW281137   6.514   2.248   3.838  0.7807 -0.1803  0.4332
24633SOL     OW81138   1.746   6.948  10.960 -0.1415  0.1015 -0.1109
24633SOL    HW181139   1.805   7.008  11.004  0.2082  0.2579 -0.7709
24633SOL    HW281140   1.779   6.943  10.870 -0.1285 -1.1186 -0.0585
24634SOL     OW81141   3.493   2.093  10.571 -0.3571  0.1311  0.3840
24634SOL    HW181142   3.546   2.062  10.644 -1.8289  0.7342  1.7659
24634SOL    HW281143   3.496   2.021  10.507  2.3012  0.2653  0.2564
24635SOL     OW81144   9.060   8.485   0.465 -0.6271  0.0686 -0.6545
24635SOL    HW181145   9.135   8.479   0.406  0.1205  0.0691  0.2795
24635SOL    HW281146   8.986   8.503   0.407  0.3936  2.1603 -1.4387
24636SOL     OW81147   3.930   3.973   4.426  0.0638 -0.5706 -0.2961
24636SOL    HW181148   3.917   3.940   4.514 -0.4552  0.0327 -0.1402
24636SOL    HW281149   3.847   4.014   4.403  0.5944  0.3740 -0.5864
24637SOL     OW81150   1.682   9.483   1.094 -0.0008 -0.0424 -0.2904
24637SOL    HW181151   1.644   9.561   1.133  0.6570 -0.5011  1.3720
24637SOL    HW281152   1.777   9.493   1.107  0.1621 -0.6711 -0.9239
24638SOL     OW81153  10.695   1.832   5.271 -0.8105 -0.1936 -0.1394
24638SOL    HW181154  10.642   1.756   5.295 -0.4910 -0.5453 -0.5282
24638SOL    HW281155  10.639   1.883   5.213 -1.2314  0.1587  0.5698
24639SOL     OW81156   9.864   9.213  12.514 -0.2687  0.0548  0.0912
24639SOL    HW181157   9.914   9.244  12.439 -0.0169 -0.7416 -0.0787
24639SOL    HW281158   9.869   9.285  12.577  0.5897  0.2263 -0.1545
24640SOL     OW81159   4.522   5.215   6.168 -0.6292 -0.1092 -0.0536
24640SOL    HW181160   4.499   5.123   6.177 -1.3853  0.0222 -0.5092
24640SOL    HW281161   4.577   5.218   6.089  0.2262 -0.2995  0.5243
24641SOL     OW81162   5.819  10.166  12.357 -0.6220 -0.2223 -0.4609
24641SOL    HW181163   5.830  10.087  12.304  1.2952 -1.5612  1.7358
24641SOL    HW281164   5.897  10.168  12.413 -1.2114  2.5915  0.4018
24642SOL     OW81165   1.161   3.263   3.640  0.1708 -1.0113  0.4243
24642SOL    HW181166   1.130   3.180   3.674 -0.2134 -0.3157  1.8451
24642SOL    HW281167   1.177   3.317   3.718 -0.1228  0.4234 -0.4642
24643SOL     OW81168  10.983   4.936   5.932 -0.3124 -0.5775  0.9557
24643SOL    HW181169  10.941   4.911   5.849 -0.3351  1.0629  0.4436
24643SOL    HW281170  11.070   4.967   5.907 -0.3431  0.0024  1.5442
24644SOL     OW81171   8.617   2.435  11.111 -0.3193 -0.2648 -0.0017
24644SOL    HW181172   8.711   2.420  11.106 -0.6107 -2.2724 -0.3140
24644SOL    HW281173   8.580   2.349  11.133 -1.9981  0.6988  1.2038
24645SOL     OW81174   7.253  10.388   1.616 -0.1919  0.0576 -0.2612
24645SOL    HW181175   7.309  10.321   1.575  0.7340  0.7073 -0.0914
24645SOL    HW281176   7.173  10.341   1.639  0.9116 -1.3146  0.9821
24646SOL     OW81177   2.992   2.689   1.880  0.1324 -0.2764  0.0526
24646SOL    HW181178   3.038   2.759   1.834  1.3304  0.4834  2.2427
24646SOL    HW281179   3.059   2.647   1.934 -1.0624 -1.4769  0.6749
24647SOL     OW81180   1.603   8.503   7.627  0.7072  0.0361 -0.9892
24647SOL    HW181181   1.612   8.513   7.532  1.7812  0.0041 -0.8972
24647SOL    HW281182   1.637   8.584   7.663 -0.3710  0.3516 -0.6460
24648SOL     OW81183   5.196  10.934  12.229 -0.1680  0.0858  0.3425
24648SOL    HW181184   5.240  10.884  12.160 -1.9417 -0.4747 -0.4549
24648SOL    HW281185   5.164  11.013  12.184 -0.1563  0.3875  0.8561
24649SOL     OW81186   4.745   7.526  12.676  0.4102 -0.1638  0.4145
24649SOL    HW181187   4.664   7.577  12.669  1.2003  1.0948 -0.0533
24649SOL    HW281188   4.735   7.476  12.757 -2.1761 -2.5447 -1.1731
24650SOL     OW81189   5.355  10.024   4.177  0.2821  0.2159  0.4998
24650SOL    HW181190   5.393   9.947   4.136  0.1671 -0.1473  1.0535
24650SOL    HW281191   5.315   9.990   4.258 -0.9989  0.6216  0.0527
24651SOL     OW81192  11.362   5.178   4.801  0.4862 -0.4140 -1.2313
24651SOL    HW181193  11.443   5.179   4.749  0.8677 -0.2634 -0.6397
24651SOL    HW281194  11.298   5.223   4.746  1.0459  0.2943 -1.3163
24652SOL     OW81195   0.242  10.397   2.511  0.6343  0.5006 -0.3500
24652SOL    HW181196   0.238  10.302   2.511  1.6980  0.4076 -2.3823
24652SOL    HW281197   0.326  10.417   2.553 -0.1717  0.6470  1.2868
24653SOL     OW81198   2.028   9.872   7.329  0.4722  0.0293  0.1461
24653SOL    HW181199   2.077   9.947   7.361  0.3322  0.6510 -1.0444
24653SOL    HW281200   1.951   9.867   7.385  1.4962 -0.5266  1.5776
24654SOL     OW81201   2.142   5.047   1.297 -0.1466  0.4761  0.2942
24654SOL    HW181202   2.177   5.119   1.245  0.2833 -0.2715 -0.4839
24654SOL    HW281203   2.179   4.968   1.256  0.3831 -0.1332  1.8755
24655SOL     OW81204   6.869   5.319   4.653  0.4126 -0.3007  0.0646
24655SOL    HW181205   6.810   5.275   4.592 -1.4422 -0.1247  1.6185
24655SOL    HW281206   6.825   5.402   4.672  3.9013  2.6264 -2.9971
24656SOL     OW81207   6.630   2.707   1.878 -0.5294 -0.1032  0.0055
24656SOL    HW181208   6.591   2.648   1.942  2.0805 -3.1863 -0.9526
24656SOL    HW281209   6.724   2.703   1.894 -0.0448  1.9005 -1.7377
24657SOL     OW81210   0.551   8.722  10.869  0.1106  0.2959  0.0468
24657SOL    HW181211   0.579   8.638  10.834 -0.6805  0.2313 -0.4693
24657SOL    HW281212   0.581   8.787  10.805 -0.2346  0.2943 -0.1232
24658SOL     OW81213   8.113   5.464   9.579 -0.4197  0.6720 -0.1097
24658SOL    HW181214   8.198   5.496   9.548 -0.9264  1.9979 -0.1876
24658SOL    HW281215   8.079   5.535   9.633 -0.6456 -0.6197  1.5196
24659SOL     OW81216   8.620  10.803  11.736  0.2966 -0.1126  0.2540
24659SOL    HW181217   8.638  10.753  11.815  0.1623  0.3553  0.5887
24659SOL    HW281218   8.608  10.738  11.668  0.2580 -0.5258  0.6541
24660SOL     OW81219  10.705   8.039  10.124 -0.3376  0.2854 -0.4961
24660SOL    HW181220  10.709   7.969  10.189 -1.5349 -0.4679 -1.1897
24660SOL    HW281221  10.673   8.115  10.172 -0.5308 -0.0688 -0.0531
24661SOL     OW81222  11.266  11.566  10.201 -0.0819 -0.1489  0.5430
24661SOL    HW181223  11.253  11.644  10.254  0.1595 -0.9378  1.7960
24661SOL    HW281224  11.182  11.520  10.206 -0.1235 -0.1288  0.0696
24662SOL     OW81225   5.159   8.655  10.535 -0.1204  0.0969 -0.1011
24662SOL    HW181226   5.239   8.630  10.581  0.0840  0.0797 -0.4657
24662SOL    HW281227   5.089   8.614  10.586 -0.1486  2.3344  1.8208
24663SOL     OW81228   3.392   2.323  12.570 -0.3139 -0.1055 -0.6919
24663SOL    HW181229   3.428   2.384  12.506  2.4306  1.5497  2.1620
24663SOL    HW281230   3.434   2.240  12.550 -0.4741  0.0450 -1.7494
24664SOL     OW81231   9.811  11.483   2.746 -0.2313 -0.2209  0.4989
24664SOL    HW181232   9.742  11.541   2.779 -0.2574  0.4541 -0.6762
24664SOL    HW281233   9.825  11.419   2.816  0.4275  1.7199  2.2441
24665SOL     OW81234   6.170   1.044   4.353 -0.6754  0.5817  0.3513
24665SOL    HW181235   6.101   1.083   4.299 -2.1439 -0.1953  1.5965
24665SOL    HW281236   6.204   0.972   4.299 -2.5380 -0.5799  0.5907
24666SOL     OW81237  10.721  10.253   4.034  0.0382 -0.0671  0.1882
24666SOL    HW181238  10.749  10.273   3.945  0.1408  2.7608  0.7828
24666SOL    HW281239  10.631  10.285   4.038  0.1193  0.0466  1.1866
24667SOL     OW81240   8.008  10.512   4.237 -0.3687  0.4536  0.2148
24667SOL    HW181241   8.047  10.441   4.289 -2.1423  0.6130  1.8637
24667SOL    HW281242   7.936  10.470   4.190 -2.8223  1.4255  2.8421
24668SOL     OW81243   2.644  12.005   5.352 -0.1132 -0.1197 -0.3578
24668SOL    HW181244   2.585  12.055   5.296 -0.1428 -0.1465 -0.3508
24668SOL    HW281245   2.588  11.974   5.423  0.0419  0.4145  0.0053
24669SOL     OW81246   5.198   0.995   7.253 -0.2290  0.2948  0.9972
24669SOL    HW181247   5.109   1.026   7.238  0.4969  1.3491 -1.5663
24669SOL    HW281248   5.249   1.074   7.272  0.4487 -0.1130  0.9144
24670SOL     OW81249  11.206  12.199   5.199  0.1582 -0.0691 -0.3462
24670SOL    HW181250  11.135  12.156   5.151  0.1711  0.1964 -0.6108
24670SOL    HW281251  11.204  12.289   5.166 -1.8546  1.0169  2.3741
24671SOL     OW81252   1.109  11.326   2.114 -0.4520 -0.4359 -0.0624
24671SOL    HW181253   1.066  11.269   2.051  1.5463 -2.3670  0.1836
24671SOL    HW281254   1.152  11.393   2.061  0.0215 -1.2018 -0.6718
24672SOL     OW81255   7.410  11.021   9.608  0.3958  0.1770 -0.4424
24672SOL    HW181256   7.417  10.948   9.548 -0.0274 -0.2122 -0.0243
24672SOL    HW281257   7.377  10.983   9.689 -0.1840  0.8789 -0.3315
24673SOL     OW81258   4.373   3.969   1.702 -0.3334  0.7265  0.6325
24673SOL    HW181259   4.403   3.918   1.627  0.0754  3.3373 -1.0869
24673SOL    HW281260   4.279   3.953   1.707 -0.3629  0.5420 -0.4227
24674SOL     OW81261   0.651  10.327   0.245 -0.5826 -0.0816 -0.9847
24674SOL    HW181262   0.594  10.404   0.251  0.4930  0.6402  0.9546
24674SOL    HW281263   0.605  10.259   0.295 -0.1349  0.2463 -0.1202
24675SOL     OW81264   7.911  11.433   4.640  0.1811 -0.1385 -0.0952
24675SOL    HW181265   7.888  11.386   4.560  0.7724  0.6631 -0.7604
24675SOL    HW281266   7.885  11.524   4.623  0.5120  0.0805  0.5328
24676SOL     OW81267   3.057   2.389   5.986 -0.3919 -0.0259  0.4222
24676SOL    HW181268   3.108   2.316   5.953  2.0147  1.3655  0.8662
24676SOL    HW281269   3.031   2.438   5.908  1.1104  0.5805  0.2664
24677SOL     OW81270  11.760  11.836   2.934 -0.4506 -0.6462 -0.4482
24677SOL    HW181271  11.748  11.742   2.919 -2.2527 -0.4613 -0.3607
24677SOL    HW281272  11.844  11.856   2.892 -0.3292 -2.1716 -1.0061
24678SOL     OW81273   0.762  11.980   8.230 -0.5510 -0.3193 -0.0417
24678SOL    HW181274   0.683  11.942   8.267  0.7561 -1.4264  1.7988
24678SOL    HW281275   0.812  12.010   8.306  1.3784 -0.8696 -1.0259
24679SOL     OW81276  10.765   9.112  11.702  0.2859  0.2055 -0.5653
24679SOL    HW181277  10.778   9.037  11.644 -0.7126 -0.4209 -0.0096
24679SOL    HW281278  10.820   9.180  11.665  1.4084 -0.8677 -0.9501
24680SOL     OW81279   0.442   0.962   0.635 -0.0702  0.1729  0.1536
24680SOL    HW181280   0.411   0.872   0.622 -2.8565  1.0500 -0.0888
24680SOL    HW281281   0.490   0.983   0.554  1.4231 -1.3435  0.6038
24681SOL     OW81282   3.450   0.585   4.379 -0.4878  0.0360  0.2086
24681SOL    HW181283   3.515   0.626   4.322  0.0132 -0.6003  0.3079
24681SOL    HW281284   3.396   0.532   4.320  1.8116 -2.9534  0.5822
24682SOL     OW81285   9.961   7.042   1.804 -0.6093 -0.5120 -0.1716
24682SOL    HW181286   9.999   6.988   1.735 -0.4728  0.5888 -0.9810
24682SOL    HW281287   9.908   6.981   1.856 -0.5573 -1.3956 -1.1262
24683SOL     OW81288   2.661   0.214   4.669  0.7989 -0.1598  0.3517
24683SOL    HW181289   2.596   0.208   4.739 -1.0575 -0.1729 -1.2624
24683SOL    HW281290   2.648   0.301   4.632 -1.0133 -1.4156 -2.3539
24684SOL     OW81291  10.741   7.550   1.174 -0.3832  0.3314 -0.7656
24684SOL    HW181292  10.695   7.548   1.090 -2.1685 -0.5352  0.1599
24684SOL    HW281293  10.671   7.554   1.239  0.9527  1.3095  0.6996
24685SOL     OW81294   6.709  12.466  10.147  0.4644 -0.0291  0.3796
24685SOL    HW181295   6.760  12.499  10.073  1.5840  1.7296  1.8611
24685SOL    HW281296   6.620  12.457  10.113  0.6705  1.9911 -0.8466
24686SOL     OW81297   8.244   2.290   2.073 -0.0373  0.2253 -0.1563
24686SOL    HW181298   8.270   2.224   2.137  1.3215  1.0143  0.1611
24686SOL    HW281299   8.171   2.251   2.025  0.5361 -1.3661  0.2181
24687SOL     OW81300   0.095  11.379   6.322 -0.4036  0.0999  0.2475
24687SOL    HW181301   0.134  11.466   6.330 -1.6495  0.6980  0.0383
24687SOL    HW281302   0.037  11.385   6.247  1.0044 -1.5315 -1.0605
24688SOL     OW81303   9.811  11.092   5.978  0.0946  0.0118 -0.1340
24688SOL    HW181304   9.812  11.002   5.945  2.4432  0.8191 -2.6067
24688SOL    HW281305   9.735  11.132   5.935 -1.6944 -0.9694  1.8991
24689SOL     OW81306   5.349   3.054   7.083  0.1140 -0.6612 -0.3966
24689SOL    HW181307   5.311   3.117   7.144  1.5101  1.2769 -1.4311
24689SOL    HW281308   5.292   2.977   7.090 -1.1458  0.3639  1.5548
24690SOL     OW81309  10.105  11.248  10.247 -0.5795  0.5695  0.9511
24690SOL    HW181310  10.153  11.331  10.252 -0.2999  0.6035 -1.3673
24690SOL    HW281311  10.101  11.218  10.338  2.6020  1.2758  1.4611
24691SOL     OW81312   7.192  11.615   0.691  0.3998  0.1515  0.5789
24691SOL    HW181313   7.145  11.535   0.714 -0.2167  0.6459  1.1229
24691SOL    HW281314   7.273  11.612   0.742  0.0852  0.1621  1.0929
24692SOL     OW81315   0.049   8.195  12.611  0.5802  0.2122  0.9740
24692SOL    HW181316  -0.035   8.239  12.621  1.1307  2.1173 -1.7496
24692SOL    HW281317   0.114   8.265  12.616  1.7383 -0.7157 -0.2956
24693SOL     OW81318  11.614   6.497   4.038 -0.1961  0.0284 -0.3406
24693SOL    HW181319  11.568   6.433   3.983 -0.5402 -0.5636  0.6180
24693SOL    HW281320  11.554   6.513   4.111 -0.0627  1.3749 -0.5108
24694SOL     OW81321  11.980   5.016   4.429  0.4297 -0.0330 -0.1289
24694SOL    HW181322  11.942   5.103   4.446 -0.0821  0.0883 -1.7290
24694SOL    HW281323  11.932   4.984   4.353 -0.4835 -2.4237  1.3466
24695SOL     OW81324   8.698  10.753   6.861 -0.2806  0.2057  0.2600
24695SOL    HW181325   8.729  10.678   6.912 -0.5180  0.0893  0.2334
24695SOL    HW281326   8.720  10.732   6.770 -1.6303 -0.4994  0.0627
24696SOL     OW81327  12.009   7.827   3.236 -0.3657 -0.1140  0.2527
24696SOL    HW181328  11.927   7.877   3.232  0.1167  0.8742  1.9328
24696SOL    HW281329  12.075   7.891   3.262  0.8774 -0.9934 -0.6500
24697SOL     OW81330   4.659  10.432  10.949 -0.0793  0.3322 -0.8299
24697SOL    HW181331   4.715  10.367  10.907  0.0248  1.4463 -2.4882
24697SOL    HW281332   4.699  10.516  10.926  0.2567  1.0186  1.9222
24698SOL     OW81333   2.416   2.583   1.791  0.5752 -0.1600  0.1793
24698SOL    HW181334   2.486   2.581   1.856  1.5913  0.6303 -0.8488
24698SOL    HW281335   2.341   2.621   1.837  0.7612 -1.1155  1.3289
24699SOL     OW81336   6.488   3.466   9.137  0.4123 -0.2373 -0.0390
24699SOL    HW181337   6.416   3.491   9.194  0.3385  1.2038 -0.7279
24699SOL    HW281338   6.564   3.512   9.173  0.3962  0.5459 -0.9838
24700SOL     OW81339  11.405   4.904  11.219  0.1222 -0.1334  0.6317
24700SOL    HW181340  11.451   4.911  11.303  0.5090  0.0268  0.4080
24700SOL    HW281341  11.456   4.957  11.159  0.8179 -1.5965 -0.1245
24701SOL     OW81342   5.785   5.752  10.281  0.0324 -0.1577  0.5428
24701SOL    HW181343   5.778   5.733  10.375  0.4392  0.1932  0.6453
24701SOL    HW281344   5.780   5.847  10.275 -0.6560 -0.2102  0.1439
24702SOL     OW81345   6.969  12.460   4.421  0.5908 -0.0083 -0.1559
24702SOL    HW181346   6.939  12.503   4.501  0.4954 -0.3954  0.0174
24702SOL    HW281347   7.064  12.457   4.429  0.5171 -1.0183  0.4464
24703SOL     OW81348   9.850   6.827   8.738 -0.4931 -0.5409  0.2113
24703SOL    HW181349   9.910   6.896   8.767  0.7917 -1.5255  0.0154
24703SOL    HW281350   9.790   6.871   8.678 -0.0009  0.4859  0.4410
24704SOL     OW81351   4.799   2.506   3.096  1.1512 -0.3995 -0.3123
24704SOL    HW181352   4.769   2.584   3.142  1.0733  0.1715 -1.3162
24704SOL    HW281353   4.721   2.475   3.049  1.3994 -0.5789 -0.6070
24705SOL     OW81354   8.182   1.793  11.735  0.2275  0.1375  0.7243
24705SOL    HW181355   8.244   1.837  11.793  0.5245  0.6339  0.0500
24705SOL    HW281356   8.235   1.729  11.687  0.3796  0.9878 -0.3027
24706SOL     OW81357   0.018  12.636   8.827 -0.5012  0.1459 -0.0985
24706SOL    HW181358  -0.074  12.664   8.819 -0.1650  0.7105 -3.5583
24706SOL    HW281359   0.055  12.697   8.890 -1.9375  1.6948 -0.6544
24707SOL     OW81360   0.880   0.358   7.462  0.4496 -0.0794  0.2225
24707SOL    HW181361   0.953   0.310   7.501  0.9749 -0.2600 -0.9448
24707SOL    HW281362   0.888   0.342   7.368 -1.8314 -1.1387  0.1405
24708SOL     OW81363  11.019   8.135   6.376  0.1892 -0.3605  0.3135
24708SOL    HW181364  11.016   8.047   6.414  0.1325 -0.4710  0.0604
24708SOL    HW281365  11.036   8.120   6.283  0.2071 -0.1016  0.2740
24709SOL     OW81366   7.418   7.343  11.795  0.1306 -0.2660  0.2102
24709SOL    HW181367   7.402   7.265  11.848 -0.8801 -0.8567 -0.9108
24709SOL    HW281368   7.450   7.409  11.857  0.1559 -1.3003  1.3204
24710SOL     OW81369   7.528  11.733   3.048  0.5475  0.2987  0.3067
24710SOL    HW181370   7.478  11.713   2.968  1.8490  0.0696 -0.4705
24710SOL    HW281371   7.528  11.651   3.098 -1.9514  0.9465  1.5547
24711SOL     OW81372   2.652   8.905   7.144  0.2792  0.0883 -0.1432
24711SOL    HW181373   2.671   8.965   7.217  0.8249  0.8451 -0.8864
24711SOL    HW281374   2.561   8.923   7.123  0.6542  1.2518 -0.8677
24712SOL     OW81375   8.140   0.923  12.438 -0.2624 -0.4617 -0.1894
24712SOL    HW181376   8.231   0.934  12.413 -0.7638 -1.0371 -2.4521
24712SOL    HW281377   8.136   0.834  12.475  0.0242 -0.5676 -0.4115
24713SOL     OW81378   4.430   6.491   4.864  0.0064  0.3086  0.9525
24713SOL    HW181379   4.474   6.557   4.811  1.6718 -1.4821 -0.0472
24713SOL    HW281380   4.340   6.490   4.832  0.3124  1.1253  0.0240
24714SOL     OW81381   6.711  12.624   4.218  0.4647 -0.3486  0.2398
24714SOL    HW181382   6.727  12.543   4.266 -0.2812 -0.3754  0.4500
24714SOL    HW281383   6.695  12.690   4.285  1.2853  0.0286  0.0760
24715SOL     OW81384   9.933  10.525   5.878 -0.0138  0.4674 -0.0775
24715SOL    HW181385  10.018  10.481   5.869  0.1411  0.6949  0.2394
24715SOL    HW281386   9.955  10.612   5.912 -0.3119  0.8367 -0.8309
24716SOL     OW81387   1.934   2.715   5.457 -0.7279 -0.2652  0.4871
24716SOL    HW181388   1.896   2.800   5.435  0.7323  0.3665  0.3418
24716SOL    HW281389   1.949   2.718   5.551  2.3421  0.9608  0.0534
24717SOL     OW81390   7.429  12.473   9.714 -0.7370  0.2924 -0.6005
24717SOL    HW181391   7.395  12.487   9.625  1.9041 -1.2141 -1.9933
24717SOL    HW281392   7.425  12.559   9.755  0.1873  1.6361 -3.0837
24718SOL     OW81393   2.876   0.112   6.969 -0.1817  0.1146  0.6914
24718SOL    HW181394   2.799   0.166   6.949 -0.2083  1.6339  4.1228
24718SOL    HW281395   2.841   0.024   6.982 -0.8026  0.1071 -0.8514
24719SOL     OW81396   8.293   6.204  10.696  0.3465  0.3461  0.0568
24719SOL    HW181397   8.254   6.226  10.611 -0.8434 -1.4653  0.0557
24719SOL    HW281398   8.246   6.258  10.759  0.9116  1.3589 -0.3785
24720SOL     OW81399  11.086   8.003   0.716 -0.3412  0.0032  0.6631
24720SOL    HW181400  11.132   7.943   0.658 -0.7321  0.1135  0.2348
24720SOL    HW281401  10.998   8.010   0.679 -0.2147  1.0635  0.5248
24721SOL     OW81402   5.484   5.769   0.023 -0.9431  0.5499 -0.6740
24721SOL    HW181403   5.441   5.684   0.034 -1.2951  0.8681  0.5061
24721SOL    HW281404   5.415   5.833   0.037  0.0604  1.1041  2.4415
24722SOL     OW81405   9.126   1.335   1.759 -0.2273 -0.1637  0.7846
24722SOL    HW181406   9.078   1.370   1.834 -0.9675  0.1005  0.1971
24722SOL    HW281407   9.150   1.246   1.785 -1.1185 -0.3304  1.0491
24723SOL     OW81408   0.555   4.559   4.677 -0.2968 -0.3425  0.4757
24723SOL    HW181409   0.478   4.610   4.702 -0.3019  0.4919 -1.1373
24723SOL    HW281410   0.519   4.476   4.645 -0.7302  0.6994 -1.9461
24724SOL     OW81411   9.116   9.031   1.638 -0.4438 -0.0531  0.2439
24724SOL    HW181412   9.077   9.118   1.635  0.2190  0.2826  0.9934
24724SOL    HW281413   9.055   8.976   1.589 -1.3822  0.6322  0.6086
24725SOL     OW81414   7.189   3.265  11.532 -0.3853  0.1289  0.3231
24725SOL    HW181415   7.163   3.318  11.608  2.6540  2.0814  0.1622
24725SOL    HW281416   7.275   3.230  11.555 -0.4515 -1.2434 -1.3174
24726SOL     OW81417   3.275  12.501   9.364 -0.2624 -0.6046 -0.3816
24726SOL    HW181418   3.185  12.478   9.341 -0.9494  0.8013  0.6867
24726SOL    HW281419   3.327  12.477   9.288 -1.5263 -1.5833 -0.9573
24727SOL     OW81420  10.989   9.553   3.685  0.2453  0.1202  0.1233
24727SOL    HW181421  11.084   9.546   3.692  0.2315 -1.5350 -0.8953
24727SOL    HW281422  10.955   9.481   3.738 -0.4351  0.4183  0.1036
24728SOL     OW81423  10.988   8.646   4.299  0.0644  0.1981 -0.0251
24728SOL    HW181424  10.920   8.647   4.366 -0.9395  0.0808 -1.0067
24728SOL    HW281425  10.981   8.731   4.256 -1.3377 -0.7957 -1.9003
24729SOL     OW81426  10.737   3.966   7.351  0.1811  0.4645 -0.1556
24729SOL    HW181427  10.733   3.878   7.314  0.1924  1.4444 -2.6116
24729SOL    HW281428  10.715   3.953   7.444 -2.3204 -1.7821 -0.9394
24730SOL     OW81429   1.898   8.579  10.805 -0.0431  0.0208  0.4238
24730SOL    HW181430   1.983   8.597  10.767  0.0326 -1.6028 -0.2359
24730SOL    HW281431   1.913   8.579  10.900  1.0146 -1.6694  0.2834
24731SOL     OW81432  10.620  11.540   1.098  0.4433 -0.3455  0.3313
24731SOL    HW181433  10.713  11.561   1.088  0.7402 -0.9451  1.7378
24731SOL    HW281434  10.576  11.595   1.032  1.5295  1.9608  1.4227
24732SOL     OW81435   8.921   9.047  10.339  0.2747  0.1787 -0.2473
24732SOL    HW181436   8.873   8.979  10.387  1.6150  0.8542  2.2413
24732SOL    HW281437   8.853   9.105  10.305 -0.7993  0.1935  1.7346
24733SOL     OW81438   8.606  10.592   5.876  0.2653 -0.7781 -0.1495
24733SOL    HW181439   8.672  10.575   5.808 -1.4711  1.8572 -2.7729
24733SOL    HW281440   8.529  10.543   5.846 -0.3648 -0.0286  0.2299
24734SOL     OW81441   5.489  11.513   4.637  0.0756  0.1903 -0.2627
24734SOL    HW181442   5.541  11.500   4.716 -0.4560 -2.6247 -0.2829
24734SOL    HW281443   5.426  11.582   4.661  1.3279  0.9507  0.9883
24735SOL     OW81444   8.208   0.255  11.726  0.2238 -0.4744  0.5544
24735SOL    HW181445   8.284   0.277  11.673  0.6148 -0.9875  0.8941
24735SOL    HW281446   8.199   0.160  11.717 -0.8726 -0.3286 -0.1348
24736SOL     OW81447   8.827   6.979   4.202 -0.0100  0.1439  0.0070
24736SOL    HW181448   8.838   7.055   4.258  1.6644  0.5530 -0.8175
24736SOL    HW281449   8.907   6.928   4.215  0.7814  0.6109 -2.4790
24737SOL     OW81450   2.836   7.664   2.223 -0.0886  0.0928  0.5657
24737SOL    HW181451   2.814   7.674   2.131  1.8165 -0.3323  0.0009
24737SOL    HW281452   2.856   7.753   2.253  0.1733  0.1208  0.3129
24738SOL     OW81453   7.656  10.634   6.455  0.3569 -0.4560  0.6749
24738SOL    HW181454   7.592  10.570   6.486 -0.6346  0.9105  1.5597
24738SOL    HW281455   7.603  10.705   6.418  1.4286 -1.8302 -4.1722
24739SOL     OW81456  12.048   7.555   8.496 -0.1053 -0.2796  0.9621
24739SOL    HW181457  12.032   7.492   8.566  1.6038 -1.2797  0.5070
24739SOL    HW281458  12.008   7.517   8.418  1.3276 -1.0687  0.5857
24740SOL     OW81459   0.776   6.263  10.062 -0.3050  0.4106  0.2154
24740SOL    HW181460   0.752   6.352  10.086 -0.3866  0.3531  0.3541
24740SOL    HW281461   0.718   6.241   9.989  0.5462  0.8980 -0.6221
24741SOL     OW81462  10.432   3.746   6.314  0.0561  0.1675 -0.2429
24741SOL    HW181463  10.459   3.789   6.395 -0.7058  0.5387 -0.1700
24741SOL    HW281464  10.341   3.720   6.331  0.4798 -1.4251 -0.3095
24742SOL     OW81465   4.899   3.995  10.317  0.0744  0.0909 -0.0750
24742SOL    HW181466   4.917   3.998  10.411  0.5586  0.5944 -0.1768
24742SOL    HW281467   4.862   4.081  10.297 -0.8142 -0.3039 -0.2026
24743SOL     OW81468   4.322   9.175   1.778  0.3182 -0.2355  0.5379
24743SOL    HW181469   4.255   9.230   1.819  0.0118  0.7467 -1.1921
24743SOL    HW281470   4.405   9.214   1.806  0.2287 -1.3383  2.5286
24744SOL     OW81471   4.305   7.131   9.344  0.1002  0.0972 -0.0093
24744SOL    HW181472   4.303   7.182   9.426 -0.0112  1.9940 -1.1244
24744SOL    HW281473   4.398   7.124   9.323  0.0774  0.5489 -0.2665
24745SOL     OW81474  12.156   2.536   8.031  0.2228 -0.4743 -0.0665
24745SOL    HW181475  12.216   2.611   8.035 -1.1849  0.6783  0.2321
24745SOL    HW281476  12.072   2.574   8.005 -0.7931 -1.7772  1.1484
24746SOL     OW81477  11.905   7.626   3.955 -0.0048  0.2426 -0.0900
24746SOL    HW181478  11.871   7.715   3.943 -0.3535  0.1986  0.5189
24746SOL    HW281479  11.851   7.589   4.024 -0.3837 -0.7251 -0.8752
24747SOL     OW81480  12.216   5.614   3.418 -0.1991  0.1822  0.1406
24747SOL    HW181481  12.185   5.683   3.477  0.6270 -0.2715  1.1254
24747SOL    HW281482  12.143   5.552   3.412 -0.7764  0.8965 -0.3929
24748SOL     OW81483   8.988   2.659   0.786 -0.1226  0.5633 -0.1859
24748SOL    HW181484   8.977   2.754   0.776  1.7185  1.0015  1.3890
24748SOL    HW281485   9.072   2.649   0.831 -0.1497 -1.8494 -0.5496
24749SOL     OW81486  11.660  11.697   2.280  0.2273 -0.3423  0.0291
24749SOL    HW181487  11.568  11.673   2.280  0.6974 -2.3375 -0.3045
24749SOL    HW281488  11.679  11.722   2.370 -0.2796 -1.4332  0.4424
24750SOL     OW81489  10.859   4.124   0.089 -0.3045 -0.3276  0.1544
24750SOL    HW181490  10.886   4.214   0.107  0.0789 -0.3852 -0.1299
24750SOL    HW281491  10.845   4.121  -0.006 -0.2720 -0.5781  0.1550
24751SOL     OW81492   3.391   6.538  10.635 -0.1104  0.5465  0.1905
24751SOL    HW181493   3.438   6.488  10.569  0.2974 -0.6904  1.3786
24751SOL    HW281494   3.432   6.513  10.718 -0.6689  1.9860  0.9308
24752SOL     OW81495   1.591  10.741   1.878 -0.3074 -0.0255  0.0917
24752SOL    HW181496   1.545  10.803   1.934 -0.3874 -1.0337  1.1926
24752SOL    HW281497   1.678  10.779   1.867 -0.2124  0.0834  1.1170
24753SOL     OW81498  10.379   7.679   2.956 -0.1882 -0.5444 -0.1707
24753SOL    HW181499  10.366   7.762   3.003  1.8887 -0.0302 -0.4026
24753SOL    HW281500  10.310   7.678   2.889 -0.0687  1.1313 -0.3494
24754SOL     OW81501   7.494   1.712  11.002 -0.1832 -0.4956 -0.5810
24754SOL    HW181502   7.430   1.772  11.041  1.2444  1.8217 -1.5319
24754SOL    HW281503   7.469   1.707  10.910 -0.8345 -2.1776 -0.3331
24755SOL     OW81504  12.026   5.512   5.685 -0.0945 -0.0346 -0.1649
24755SOL    HW181505  12.109   5.551   5.712  0.9080 -1.5362 -0.9384
24755SOL    HW281506  11.959   5.571   5.721  1.2970  2.0820 -0.8128
24756SOL     OW81507  10.031   3.183   1.577  0.3271  0.7311  0.2809
24756SOL    HW181508  10.011   3.093   1.550  2.8513  0.1036  0.3020
24756SOL    HW281509  10.005   3.237   1.502  3.7659 -0.6060 -2.1057
24757SOL     OW81510   0.413   4.801   9.694  0.4045  0.4471  1.0406
24757SOL    HW181511   0.448   4.890   9.688  0.6055  0.2756 -0.9202
24757SOL    HW281512   0.318   4.811   9.691  0.4366  0.5532 -0.9248
24758SOL     OW81513   5.434   4.033  10.394  0.0612  0.0386  0.2978
24758SOL    HW181514   5.402   4.105  10.449 -0.4588  0.4302 -0.4938
24758SOL    HW281515   5.423   4.065  10.305 -2.3412 -1.8625 -0.2148
24759SOL     OW81516   5.031   6.343   8.827  0.3210 -0.4403  0.2579
24759SOL    HW181517   4.990   6.309   8.747 -0.5590  1.4201 -0.1443
24759SOL    HW281518   5.123   6.356   8.803 -0.1642  1.2177 -0.8946
24760SOL     OW81519   5.436   9.560   6.853 -0.3467 -0.2845 -0.0111
24760SOL    HW181520   5.433   9.465   6.867  1.3819 -0.5105 -1.0135
24760SOL    HW281521   5.348   9.582   6.823 -0.5659 -1.6971 -0.4920
24761SOL     OW81522   6.215  12.279  12.044  0.0722 -0.1298  0.3870
24761SOL    HW181523   6.164  12.223  12.103 -0.2152 -1.4276 -1.0315
24761SOL    HW281524   6.284  12.222  12.010  0.4378  0.6819 -0.2566
24762SOL     OW81525   5.732   3.445   0.253  0.2486  0.2163  0.2687
24762SOL    HW181526   5.827   3.443   0.257  0.2295 -0.4947  0.8121
24762SOL    HW281527   5.704   3.442   0.345 -0.2940  0.0734  0.1079
24763SOL     OW81528   5.995   3.411   6.621  0.0811 -0.5745 -0.2270
24763SOL    HW181529   5.917   3.367   6.652 -0.2544  1.0086  1.3008
24763SOL    HW281530   6.032   3.351   6.556 -2.2078 -1.4861 -0.7778
24764SOL     OW81531   0.020  12.100  10.561  0.2125  0.6457  0.0335
24764SOL    HW181532   0.075  12.175  10.582  1.0876 -0.3075  1.3145
24764SOL    HW281533   0.075  12.045  10.505  1.3457 -1.1787  2.7624
24765SOL     OW81534   1.186  11.562   4.248  0.1402  0.1989 -0.4500
24765SOL    HW181535   1.107  11.554   4.195 -1.7605 -1.0200  2.3788
24765SOL    HW281536   1.158  11.607   4.327  2.1827 -0.6626  0.8499
24766SOL     OW81537   7.527   5.943   5.852  0.3411  0.3087  0.4778
24766SOL    HW181538   7.594   5.966   5.787  0.8513  2.8364  1.7693
24766SOL    HW281539   7.446   5.980   5.817  0.6855  1.9977  1.3912
24767SOL     OW81540   5.274   9.027   1.790 -0.0424 -1.1483 -0.5498
24767SOL    HW181541   5.253   9.049   1.881  0.1319 -0.3399 -0.6974
24767SOL    HW281542   5.343   8.961   1.798 -0.3549 -1.4253 -0.0921
24768SOL     OW81543   8.640  12.090   8.556 -0.5886 -0.7850  0.1137
24768SOL    HW181544   8.592  12.089   8.639 -0.0052 -3.4760  0.5087
24768SOL    HW281545   8.731  12.080   8.581 -0.3634 -1.2401 -0.8391
24769SOL     OW81546   3.460  11.072   0.054  0.2197 -0.0109  0.1965
24769SOL    HW181547   3.408  11.149   0.029  1.4247  0.9314  0.4931
24769SOL    HW281548   3.408  11.029   0.122 -1.2268 -0.3881 -1.0733
24770SOL     OW81549   2.659   4.096   2.274  0.6558 -0.2944  0.1535
24770SOL    HW181550   2.731   4.113   2.213  0.8376 -0.1369  0.4108
24770SOL    HW281551   2.701   4.088   2.359  0.2213  1.3738  0.5564
24771SOL     OW81552  11.099   3.494   1.138  0.2965  0.3028 -0.0413
24771SOL    HW181553  11.047   3.518   1.215  0.5795 -0.1529  0.2979
24771SOL    HW281554  11.042   3.511   1.064 -1.1666 -2.2237  0.4005
24772SOL     OW81555   2.406   5.403   8.738  0.3106 -0.0585 -0.1046
24772SOL    HW181556   2.488   5.450   8.756  0.3719  0.8937 -2.4816
24772SOL    HW281557   2.339   5.471   8.735 -0.1649 -0.5333 -0.4009
24773SOL     OW81558   4.765   2.322  11.960 -0.1742 -0.4642 -0.2401
24773SOL    HW181559   4.683   2.349  12.001  0.3159 -0.4331  0.7494
24773SOL    HW281560   4.796   2.248  12.013 -0.9827 -2.3928 -2.3012
24774SOL     OW81561   3.892  10.941   1.872 -0.5198  0.3350 -0.0078
24774SOL    HW181562   3.903  11.025   1.829 -0.5196 -0.1463 -0.9704
24774SOL    HW281563   3.857  10.883   1.804  1.6342 -1.0404 -0.0493
24775SOL     OW81564   2.068   4.527   6.656  0.2952 -0.1946  0.4737
24775SOL    HW181565   2.118   4.449   6.681  1.8866  0.3896 -0.6999
24775SOL    HW281566   2.077   4.587   6.730 -0.4745 -0.9012  1.1513
24776SOL     OW81567   5.980   7.951   9.329 -0.0829  0.4126 -0.1238
24776SOL    HW181568   6.018   7.865   9.313  0.8666  0.2494  2.6178
24776SOL    HW281569   6.055   8.009   9.342 -0.7294  1.0869  0.7485
24777SOL     OW81570   1.616   5.456   2.849  0.0765 -0.2218 -0.8369
24777SOL    HW181571   1.607   5.408   2.932  0.5607 -1.6491 -1.5688
24777SOL    HW281572   1.710   5.457   2.833 -0.0658 -0.8660 -1.8481
24778SOL     OW81573   4.137   5.975   9.875  0.2117  0.2087 -0.2425
24778SOL    HW181574   4.136   5.883   9.850 -1.5954  0.1851 -0.1532
24778SOL    HW281575   4.156   5.974   9.969 -1.6393 -0.1997  0.1492
24779SOL     OW81576  12.661   5.994   9.657  0.0788 -0.1778 -1.0077
24779SOL    HW181577  12.755   5.998   9.673 -0.2416 -1.0546  1.5969
24779SOL    HW281578  12.635   6.085   9.641  1.0882  0.3593  0.2559
24780SOL     OW81579   7.028  10.011   7.405 -0.2869  0.1500 -0.4495
24780SOL    HW181580   7.044  10.091   7.354  1.1697 -0.7980 -1.5617
24780SOL    HW281581   7.113   9.990   7.444 -0.5987 -0.9607 -0.3284
24781SOL     OW81582  10.508  12.149   5.473  0.4398  0.2028 -0.3175
24781SOL    HW181583  10.519  12.210   5.545 -3.2148  1.2380 -0.3999
24781SOL    HW281584  10.484  12.204   5.398  3.1431 -0.9159 -2.1838
24782SOL     OW81585  10.389   0.293  10.209 -0.1093  0.4404  0.1299
24782SOL    HW181586  10.342   0.295  10.293 -0.5751  1.6588 -0.1403
24782SOL    HW281587  10.320   0.278  10.144  0.1394  0.3511 -0.1144
24783SOL     OW81588  12.551   6.365  12.648 -0.1512  0.1367 -0.3156
24783SOL    HW181589  12.525   6.276  12.624  1.1581  0.1881 -2.1695
24783SOL    HW281590  12.632   6.355  12.697 -0.5462  0.2591  0.3653
24784SOL     OW81591   8.373  10.983   8.724 -0.1294 -0.2330  0.3328
24784SOL    HW181592   8.303  10.936   8.769  0.3182 -1.0951  0.1390
24784SOL    HW281593   8.399  11.051   8.786 -0.4479 -0.5482  0.8218
24785SOL     OW81594   0.341   1.906   4.900 -0.3005 -0.0872 -0.4803
24785SOL    HW181595   0.265   1.949   4.939 -0.2059 -0.3046 -0.0536
24785SOL    HW281596   0.353   1.950   4.816 -0.9461 -0.1051 -0.5881
24786SOL     OW81597  10.610  10.991  11.784  0.4242  0.6483 -0.1785
24786SOL    HW181598  10.586  10.903  11.755 -0.5484  1.6480 -2.7566
24786SOL    HW281599  10.569  11.000  11.870 -2.1195 -0.4020 -1.1630
24787SOL     OW81600   6.282   0.442   4.179  0.7671  0.4059  0.0308
24787SOL    HW181601   6.207   0.500   4.172  1.1970  0.8296 -1.6245
24787SOL    HW281602   6.287   0.399   4.093  0.8397 -1.6236  0.9759
24788SOL     OW81603   7.673   0.029   9.521 -0.1017 -0.5828 -0.2995
24788SOL    HW181604   7.706  -0.052   9.483 -1.5424 -0.6015 -1.5750
24788SOL    HW281605   7.751   0.086   9.526  0.5075 -1.3004 -1.3633
24789SOL     OW81606   2.169   8.163  12.337  0.1424 -0.2430 -0.2766
24789SOL    HW181607   2.235   8.111  12.383 -0.2125 -1.0088 -0.6119
24789SOL    HW281608   2.184   8.145  12.244  0.5232  0.8840 -0.4490
24790SOL     OW81609   6.422   6.377   7.141 -0.1949  0.1491  0.0082
24790SOL    HW181610   6.505   6.407   7.104  0.5850 -0.0410  1.5083
24790SOL    HW281611   6.367   6.356   7.065  0.5234  1.8603 -1.0468
24791SOL     OW81612  10.247   6.814   2.725 -0.0905 -0.6742 -0.1925
24791SOL    HW181613  10.269   6.806   2.818 -0.9339 -1.5807 -0.0636
24791SOL    HW281614  10.273   6.904   2.703 -1.7265  0.2627  1.4246
24792SOL     OW81615   4.924  10.573   9.258 -0.3541 -0.0691  0.5295
24792SOL    HW181616   4.936  10.668   9.257 -0.4226 -0.0248  1.9943
24792SOL    HW281617   5.006  10.538   9.221 -0.8178  0.5626 -1.1956
24793SOL     OW81618   0.564   2.579   1.461 -0.6931  0.4436  0.5570
24793SOL    HW181619   0.652   2.574   1.422 -1.0879  0.9618 -0.4328
24793SOL    HW281620   0.540   2.488   1.477  0.6345  0.3489  2.2858
24794SOL     OW81621   0.871   8.523   5.459 -0.1870 -0.5493 -0.0265
24794SOL    HW181622   0.931   8.453   5.431 -0.6305 -0.7032 -0.6128
24794SOL    HW281623   0.801   8.522   5.393 -0.5119  0.0428  0.3054
24795SOL     OW81624   9.531  11.113   6.705  0.1287  0.4095 -0.0488
24795SOL    HW181625   9.532  11.046   6.637 -1.1785 -0.4662  0.7512
24795SOL    HW281626   9.449  11.160   6.692 -0.1890  0.1648  0.9735
24796SOL     OW81627   6.306   9.385   5.571  0.1261 -0.0809  0.4890
24796SOL    HW181628   6.259   9.375   5.488  0.4062 -1.0338  0.4312
24796SOL    HW281629   6.353   9.302   5.582 -1.1009 -0.6110  2.3247
24797SOL     OW81630   6.162   2.532   5.462  0.7811  0.1376 -0.1438
24797SOL    HW181631   6.136   2.453   5.415  1.0218  1.1610 -2.0763
24797SOL    HW281632   6.252   2.513   5.491  0.8939 -0.2528 -0.7151
24798SOL     OW81633   2.874   3.603   4.906  0.0173 -0.6795  0.2024
24798SOL    HW181634   2.902   3.599   4.997 -2.0525 -1.5889  0.8517
24798SOL    HW281635   2.831   3.688   4.898 -1.6086 -1.4298  0.6728
24799SOL     OW81636   4.827   1.445   7.199  0.2667  0.1181 -0.4951
24799SOL    HW181637   4.762   1.381   7.229  0.7429 -1.0426 -1.7923
24799SOL    HW281638   4.806   1.525   7.246  0.4231 -1.3155  2.1653
24800SOL     OW81639   0.344   2.720   2.545  0.5898  0.3750  0.1219
24800SOL    HW181640   0.356   2.811   2.572  0.5845  0.4277 -0.0541
24800SOL    HW281641   0.259   2.695   2.582 -0.4602  1.1212 -1.6486
24801SOL     OW81642  10.530   0.177   7.281  0.4698 -0.4661 -0.7134
24801SOL    HW181643  10.611   0.194   7.233  0.0973 -0.9823 -1.5471
24801SOL    HW281644  10.556   0.118   7.352  1.1980  1.0295  0.3428
24802SOL     OW81645   3.694   2.422   6.467 -0.1973 -0.4178 -0.1649
24802SOL    HW181646   3.778   2.408   6.423  0.6290 -0.0449  1.2049
24802SOL    HW281647   3.644   2.476   6.406  0.9946  0.2868 -0.5737
24803SOL     OW81648   0.511   7.047   1.160  0.4180 -0.5929 -0.1998
24803SOL    HW181649   0.579   6.980   1.162  2.0285  0.9351 -0.4693
24803SOL    HW281650   0.469   7.036   1.075  0.5366 -1.3854 -0.1598
24804SOL     OW81651   6.327   2.714  12.150  0.3119 -0.5748 -0.1337
24804SOL    HW181652   6.410   2.674  12.179  0.5156 -0.2017 -0.1924
24804SOL    HW281653   6.336   2.806  12.175 -0.3936 -0.6749  0.5298
24805SOL     OW81654   6.654   1.766   8.634  0.0119 -0.2615  0.4097
24805SOL    HW181655   6.622   1.713   8.561 -1.1033 -0.1471  0.7948
24805SOL    HW281656   6.632   1.856   8.611  1.0679 -0.0449  0.1846
24806SOL     OW81657   7.615  10.766   7.838 -0.5524  0.8392 -0.7163
24806SOL    HW181658   7.526  10.763   7.803 -0.7677 -1.6037 -0.1518
24806SOL    HW281659   7.605  10.798   7.927 -0.4973  3.1013 -1.4718
24807SOL     OW81660   4.952  10.843   2.962  0.0001  0.1822 -0.0944
24807SOL    HW181661   4.962  10.784   3.037  1.0861  0.2935 -0.1318
24807SOL    HW281662   4.872  10.814   2.919 -0.0866 -0.5395  0.5318
24808SOL     OW81663  11.885   1.750   7.684  0.8572  0.1660 -0.5576
24808SOL    HW181664  11.913   1.661   7.665 -2.5738 -1.4059  1.0153
24808SOL    HW281665  11.812   1.766   7.624  0.4441  1.3310  0.2259
24809SOL     OW81666  11.224   2.468   3.777 -0.0474  0.1410  0.1124
24809SOL    HW181667  11.244   2.413   3.853 -1.5414 -0.2714  0.2285
24809SOL    HW281668  11.308   2.477   3.732  0.9154  0.5648  1.8930
24810SOL     OW81669   1.910   5.466   4.839  0.3192  0.0407 -0.2249
24810SOL    HW181670   1.897   5.408   4.914 -1.7548 -0.0803 -0.5986
24810SOL    HW281671   2.005   5.473   4.829  0.6223 -1.5349  1.1633
24811SOL     OW81672   5.864   8.526  12.267  0.4111 -0.1475 -0.0064
24811SOL    HW181673   5.865   8.576  12.185  1.8190  0.2974  0.2576
24811SOL    HW281674   5.840   8.591  12.333 -0.8954 -0.5449 -0.0718
24812SOL     OW81675   7.083   3.115  11.776 -0.1400 -0.1599 -0.3764
24812SOL    HW181676   7.094   3.112  11.681 -2.4894  2.7282 -0.9031
24812SOL    HW281677   7.165   3.152  11.808  1.2727 -2.5517 -1.0216
24813SOL     OW81678   4.431  11.984  11.526  0.7311 -0.0457 -0.0733
24813SOL    HW181679   4.438  11.902  11.477  0.1460  0.3680 -0.8676
24813SOL    HW281680   4.434  11.957  11.618  2.6527 -0.7718 -0.2924
24814SOL     OW81681   7.592   7.517   0.538  0.6203 -0.1195  0.1141
24814SOL    HW181682   7.600   7.482   0.627 -0.2979 -1.9699 -0.4950
24814SOL    HW281683   7.671   7.488   0.493 -0.1879 -1.5652 -0.4197
24815SOL     OW81684   3.082   4.720  11.127 -0.2280  0.4748 -0.4086
24815SOL    HW181685   3.113   4.760  11.045 -1.3041 -1.0493 -1.6272
24815SOL    HW281686   2.987   4.720  11.119 -0.3123 -0.6700  0.3556
24816SOL     OW81687  12.305   6.441   2.005 -0.0263  0.7573  0.0737
24816SOL    HW181688  12.261   6.492   1.937  0.6180  1.2842  0.0460
24816SOL    HW281689  12.277   6.351   1.990  0.3098  0.8350 -1.0430
24817SOL     OW81690  10.489   8.207   3.680  0.3151  0.0349 -0.1125
24817SOL    HW181691  10.477   8.226   3.587 -1.9034  1.3887  0.3678
24817SOL    HW281692  10.445   8.123   3.694 -2.0593  1.2642  0.2001
24818SOL     OW81693  10.620   3.446  10.074 -0.3906 -0.3410  0.2405
24818SOL    HW181694  10.642   3.536  10.096 -2.2630  0.3260 -0.4349
24818SOL    HW281695  10.699   3.412  10.031  0.3467  0.9574  0.5062
24819SOL     OW81696   0.140  11.139  10.603  0.2725 -0.2240  0.2105
24819SOL    HW181697   0.072  11.182  10.551  0.0535  1.2559  1.6413
24819SOL    HW281698   0.105  11.052  10.622 -1.9621  1.0305  2.2048
24820SOL     OW81699   9.731   8.179   2.096 -0.4618 -0.7907  0.5454
24820SOL    HW181700   9.669   8.246   2.122  0.2589  0.2677 -0.3833
24820SOL    HW281701   9.758   8.203   2.007  0.2020 -2.0122  0.3875
24821SOL     OW81702  12.317   1.339   0.241  0.3666 -0.0941  0.8225
24821SOL    HW181703  12.344   1.282   0.169  0.2379 -2.4255  2.5026
24821SOL    HW281704  12.384   1.407   0.245  2.1419 -1.7557  0.4993
24822SOL     OW81705   4.608  10.191  12.564  0.1407  0.1463  0.1767
24822SOL    HW181706   4.672  10.121  12.576  0.2992  0.4948  1.4792
24822SOL    HW281707   4.530  10.147  12.530  0.6473 -0.4580 -0.2285
24823SOL     OW81708  12.509  10.841   6.660  0.3336  0.2478 -0.2994
24823SOL    HW181709  12.442  10.773   6.672 -1.0055  1.7881  1.5605
24823SOL    HW281710  12.545  10.854   6.747  0.1372  2.2960 -0.4652
24824SOL     OW81711  11.715   4.431   3.499 -0.1624  0.1372  0.6618
24824SOL    HW181712  11.677   4.510   3.460 -0.6090 -0.2211  0.3541
24824SOL    HW281713  11.651   4.404   3.564  0.0881  0.1392  0.9105
24825SOL     OW81714   6.952   6.276   2.130 -0.0739  0.6515 -0.3310
24825SOL    HW181715   6.912   6.317   2.053 -0.5369  1.3305  0.2601
24825SOL    HW281716   6.979   6.350   2.185  0.3914  0.1740  0.0912
24826SOL     OW81717   3.222   0.464   0.857  0.5276 -0.6131  0.2460
24826SOL    HW181718   3.276   0.472   0.778  3.5896 -2.2921  1.9668
24826SOL    HW281719   3.193   0.373   0.858 -0.2028 -0.3826  0.6238
24827SOL     OW81720   4.695   4.370   6.179 -0.6772  0.3339  0.2981
24827SOL    HW181721   4.726   4.285   6.150 -2.5213 -0.9216  1.7237
24827SOL    HW281722   4.612   4.383   6.132 -0.5053  1.2772  0.2278
24828SOL     OW81723   4.585   8.090  10.245 -0.6121  0.5314 -0.9099
24828SOL    HW181724   4.533   8.088  10.165  1.5790  0.7219 -2.4436
24828SOL    HW281725   4.662   8.143  10.223  0.6492 -0.3955  0.9401
24829SOL     OW81726   3.322  11.388   0.289 -0.2803 -0.1320  0.8610
24829SOL    HW181727   3.415  11.391   0.314 -0.4812  1.5493  1.5419
24829SOL    HW281728   3.321  11.342   0.205  1.6199  2.8197 -0.9675
24830SOL     OW81729   0.428  11.264   0.267  0.4654 -0.3999 -0.4587
24830SOL    HW181730   0.516  11.292   0.292  0.2822 -0.7036  0.5470
24830SOL    HW281731   0.373  11.291   0.340 -0.0251 -1.6330 -0.3532
24831SOL     OW81732  11.905  11.439   2.454 -0.4877  0.0549 -0.0244
24831SOL    HW181733  11.939  11.366   2.505 -0.3008  0.4673  0.4497
24831SOL    HW281734  11.886  11.507   2.519  0.9401  1.0592 -0.6027
24832SOL     OW81735   0.930   6.633  11.116 -0.5020  0.2945 -0.0640
24832SOL    HW181736   0.990   6.570  11.077 -0.8798  0.2605 -0.5977
24832SOL    HW281737   0.853   6.582  11.139 -0.1700  0.2581  1.0100
24833SOL     OW81738   7.053   0.113   0.134 -0.0470 -0.4240 -0.1972
24833SOL    HW181739   7.085   0.181   0.193 -0.7905  0.6738 -1.0264
24833SOL    HW281740   7.001   0.160   0.069 -1.9063 -1.9333  0.1035
24834SOL     OW81741  11.856   1.892   6.403  0.3235 -0.0088 -1.0837
24834SOL    HW181742  11.934   1.930   6.362  1.8772 -1.8335  0.0073
24834SOL    HW281743  11.848   1.940   6.486 -0.9379  1.5153 -2.0369
24835SOL     OW81744  11.902   5.056   0.181  0.5699  0.2476 -0.5868
24835SOL    HW181745  11.992   5.026   0.191  0.4549  0.3780  1.3517
24835SOL    HW281746  11.853   4.978   0.154  1.0404 -0.1709 -0.2447
24836SOL     OW81747   5.450   0.678   4.799 -0.1963  0.0267  0.0663
24836SOL    HW181748   5.464   0.607   4.861 -1.3027 -0.2433  0.0422
24836SOL    HW281749   5.355   0.690   4.798 -0.0324  1.5584  0.1196
24837SOL     OW81750   4.617   8.770   8.081  0.2592 -0.1834  0.0166
24837SOL    HW181751   4.669   8.817   8.145  1.0645 -0.5864 -0.3259
24837SOL    HW281752   4.634   8.677   8.099  0.0939 -0.3096 -0.4487
24838SOL     OW81753   9.528   8.449   5.166  0.2662 -0.0443 -0.2587
24838SOL    HW181754   9.585   8.407   5.231 -1.7442 -0.4664  1.3258
24838SOL    HW281755   9.515   8.538   5.199 -1.2223 -0.4330  0.2920
24839SOL     OW81756   9.461   0.767   7.444 -0.3692 -0.3481  0.0725
24839SOL    HW181757   9.529   0.830   7.469 -0.9276 -0.1081  1.0093
24839SOL    HW281758   9.453   0.709   7.519 -1.7062  0.0637  0.2664
24840SOL     OW81759  12.142   6.302  10.907 -0.7158 -0.7081 -0.0805
24840SOL    HW181760  12.182   6.223  10.941  0.8562  0.3768  0.7414
24840SOL    HW281761  12.051   6.300  10.938  0.4867  0.0610  4.1022
24841SOL     OW81762  10.549  11.002   7.011 -0.1667  0.0478 -0.6877
24841SOL    HW181763  10.639  11.031   7.022 -0.0451 -0.3647 -0.5757
24841SOL    HW281764  10.496  11.071   7.051  0.1809 -0.5396  0.8732
24842SOL     OW81765   3.930   4.370   7.288  0.3020 -0.3115 -0.6303
24842SOL    HW181766   3.934   4.292   7.344  0.0384  1.6433  2.3826
24842SOL    HW281767   3.836   4.382   7.272  0.1632  0.3119  0.4809
24843SOL     OW81768   3.383   7.416   2.276 -0.5785  0.0625  0.3600
24843SOL    HW181769   3.308   7.374   2.318  0.9299 -3.5591 -0.2156
24843SOL    HW281770   3.373   7.396   2.183  1.3814 -1.1611  0.3510
24844SOL     OW81771   5.597   1.738   4.084 -0.1941  0.0046 -0.7320
24844SOL    HW181772   5.602   1.820   4.035  0.2423 -0.7336 -1.9733
24844SOL    HW281773   5.513   1.742   4.129  0.6743  2.0282  0.9058
24845SOL     OW81774   0.825  10.856   1.043  0.5338  0.3001  0.2787
24845SOL    HW181775   0.737  10.893   1.032  0.1503 -0.8510 -0.7495
24845SOL    HW281776   0.838  10.854   1.137 -1.0761 -0.6635  0.5284
24846SOL     OW81777   8.060   4.468   5.194  0.2431  0.1190 -0.2212
24846SOL    HW181778   8.030   4.419   5.271  0.4388 -0.9165 -0.7894
24846SOL    HW281779   8.134   4.418   5.160 -0.5970 -0.1384 -1.7942
24847SOL     OW81780   2.685   7.454   5.294  0.5697  0.1502 -0.2632
24847SOL    HW181781   2.614   7.518   5.303  0.3810  0.3958 -2.6830
24847SOL    HW281782   2.695   7.417   5.381 -1.8826  0.8109  0.3915
24848SOL     OW81783   3.630   4.600   6.020  0.4510  0.3085  0.0133
24848SOL    HW181784   3.665   4.574   6.105  0.1531 -0.0760  0.0197
24848SOL    HW281785   3.691   4.561   5.957 -0.0176 -0.4673  0.0211
24849SOL     OW81786  10.733   5.051  10.310 -0.1241  0.1805 -0.0992
24849SOL    HW181787  10.800   5.069  10.244  0.1237  0.9645  0.3436
24849SOL    HW281788  10.665   5.117  10.294 -0.4744 -0.1772 -0.1142
24850SOL     OW81789   5.293   6.282  12.092  0.4163 -0.1630 -0.5048
24850SOL    HW181790   5.350   6.254  12.021  0.5377 -0.4950 -0.2787
24850SOL    HW281791   5.214   6.316  12.048 -0.6004 -2.6602 -0.7852
24851SOL     OW81792   2.896   1.332   4.386  0.0435 -0.5438  0.1564
24851SOL    HW181793   2.868   1.421   4.405 -2.0083 -0.9386 -0.7332
24851SOL    HW281794   2.909   1.292   4.472 -0.8725  0.0858  0.6106
24852SOL     OW81795   6.404  11.685   4.821 -0.2873 -0.4320 -0.1687
24852SOL    HW181796   6.344  11.650   4.887  2.1141 -0.1784  2.3502
24852SOL    HW281797   6.464  11.613   4.802  0.9207  0.4014  0.3386
24853SOL     OW81798   8.261   4.587   8.389  0.6288 -0.4762  0.2482
24853SOL    HW181799   8.321   4.599   8.316  0.6952 -0.6503  0.2767
24853SOL    HW281800   8.176   4.570   8.348  0.4634  0.4192  0.1996
24854SOL     OW81801   0.989   6.302   7.992  0.1609  0.2412  0.1463
24854SOL    HW181802   0.943   6.257   7.921 -0.1980  0.7801  0.0274
24854SOL    HW281803   0.956   6.260   8.071  0.4977 -0.3052  0.0030
24855SOL     OW81804   0.814  11.954   4.626  0.2738 -0.1508 -0.0470
24855SOL    HW181805   0.740  11.893   4.616  0.6194 -0.6397  0.3337
24855SOL    HW281806   0.884  11.900   4.663  0.0664  0.8471  1.9343
24856SOL     OW81807   1.038   9.290  12.527  0.5052 -0.1192 -0.5080
24856SOL    HW181808   1.056   9.258  12.438 -0.3409  0.5868 -0.9538
24856SOL    HW281809   1.110   9.350  12.546  2.6021 -2.7697  0.6783
24857SOL     OW81810   8.372   6.744   5.460  0.4467  0.4840 -0.5305
24857SOL    HW181811   8.338   6.739   5.371  2.2295  0.1293 -1.2348
24857SOL    HW281812   8.373   6.837   5.481 -0.8653  0.5118 -0.4850
24858SOL     OW81813   6.855   4.509   6.453 -0.4092  0.1918 -0.7886
24858SOL    HW181814   6.847   4.602   6.430  0.0270  0.6874  0.8709
24858SOL    HW281815   6.910   4.472   6.385  1.2754  1.6758 -0.3244
24859SOL     OW81816   2.683   9.058  11.042  0.2824 -0.1697  0.4115
24859SOL    HW181817   2.610   9.000  11.022  1.2449 -0.7300 -1.7572
24859SOL    HW281818   2.682   9.123  10.972  2.1728 -0.5382 -0.0172
24860SOL     OW81819  10.346   3.182   9.356 -0.2585 -0.5501 -0.1580
24860SOL    HW181820  10.307   3.109   9.308 -1.5000 -0.0449  0.0499
24860SOL    HW281821  10.314   3.171   9.446 -0.7743  0.4551 -0.2029
24861SOL     OW81822   9.847   2.784   5.104  0.1525  0.0208 -0.1194
24861SOL    HW181823   9.776   2.789   5.041 -1.2398 -1.0189  1.3096
24861SOL    HW281824   9.840   2.865   5.154  1.5006  1.0344 -1.4433
24862SOL     OW81825   1.465   2.733   9.478 -0.2142 -0.0109 -0.1348
24862SOL    HW181826   1.497   2.822   9.478  3.7561 -1.2417  1.2297
24862SOL    HW281827   1.434   2.719   9.568  0.4556 -0.3594  0.0500
24863SOL     OW81828  12.571  12.476   2.397 -0.0972 -0.2485 -0.4517
24863SOL    HW181829  12.507  12.483   2.468  0.2809 -1.3687  0.0277
24863SOL    HW281830  12.577  12.382   2.380  0.0143 -0.0131 -1.8059
24864SOL     OW81831   1.581   6.287   8.736  0.9178 -0.3623  0.1874
24864SOL    HW181832   1.577   6.197   8.767  0.4627 -0.3334  0.2290
24864SOL    HW281833   1.674   6.306   8.728  1.0625 -0.4044  1.4441
24865SOL     OW81834   5.444   0.104  10.590  0.0326  0.3897  0.5416
24865SOL    HW181835   5.431   0.009  10.588  1.3997  0.1778 -0.6939
24865SOL    HW281836   5.478   0.121  10.678  0.2400 -0.3561  0.6215
24866SOL     OW81837   1.029   6.744   3.179  0.0480  0.2039  0.4492
24866SOL    HW181838   1.015   6.679   3.247  0.1196 -0.7912 -0.4689
24866SOL    HW281839   1.118   6.776   3.194  0.7827 -1.3844 -0.2873
24867SOL     OW81840   0.110   7.423   8.839 -0.3681 -0.5217  0.1356
24867SOL    HW181841   0.189   7.473   8.821 -0.0045 -0.5042  1.6400
24867SOL    HW281842   0.109   7.354   8.773  0.3697  0.0708 -0.5101
24868SOL     OW81843   4.380   9.959   4.951  0.2340  0.5398 -0.5533
24868SOL    HW181844   4.346  10.028   5.008  1.1567  1.8764 -1.5685
24868SOL    HW281845   4.304   9.933   4.897  0.1188  1.5224 -0.8869
24869SOL     OW81846   9.946   4.028   0.724  0.9335  0.1119 -0.4685
24869SOL    HW181847   9.979   3.966   0.789  0.1025  0.2436  0.0981
24869SOL    HW281848   9.932   3.975   0.645  2.1212 -0.0143 -0.6097
24870SOL     OW81849   5.763   5.971   3.793  0.3992 -0.7322  0.4170
24870SOL    HW181850   5.823   6.016   3.734  0.1639  0.7607  1.2751
24870SOL    HW281851   5.676   6.002   3.769  0.1542 -1.3186  0.5261
24871SOL     OW81852  10.160   4.790   0.265  0.1219 -0.2720  0.1420
24871SOL    HW181853  10.081   4.749   0.301  0.9229 -0.4552  1.8020
24871SOL    HW281854  10.196   4.839   0.339  2.2537 -1.2501 -0.1922
24872SOL     OW81855   3.467  12.511   2.026  0.6237  0.4498 -0.2345
24872SOL    HW181856   3.430  12.440   2.077  0.1624  0.9136  0.0915
24872SOL    HW281857   3.450  12.488   1.935  1.7410 -0.5420 -0.2125
24873SOL     OW81858   2.295  10.105   2.441 -0.1539 -0.1641 -0.0397
24873SOL    HW181859   2.373  10.095   2.386  0.4427 -0.4717  0.8317
24873SOL    HW281860   2.282  10.200   2.445  0.3568 -0.0927  0.0463
24874SOL     OW81861   2.648   3.495   4.818  0.5482 -0.0302 -0.1379
24874SOL    HW181862   2.692   3.479   4.734  1.4043 -0.2070  0.3374
24874SOL    HW281863   2.712   3.541   4.871 -0.2085  0.6371  0.2194
24875SOL     OW81864   3.976   7.261   2.167 -0.3388 -0.0386  0.1426
24875SOL    HW181865   3.970   7.165   2.166  1.8630 -0.2307 -0.0037
24875SOL    HW281866   3.941   7.286   2.253  1.2151 -1.2153  1.1808
24876SOL     OW81867   9.116   1.713   2.589 -0.2648  0.0509  0.1038
24876SOL    HW181868   9.158   1.702   2.674  0.4442 -0.2931 -0.2854
24876SOL    HW281869   9.128   1.629   2.544 -0.0301  0.4491 -0.5995
24877SOL     OW81870   9.596  12.593   1.514 -0.3220 -0.0234  0.1359
24877SOL    HW181871   9.586  12.548   1.430 -0.7119 -0.3736  0.3662
24877SOL    HW281872   9.605  12.685   1.491  0.6466 -0.2215 -0.3561
24878SOL     OW81873   9.974   9.946   8.971 -0.2225  0.0768  0.5622
24878SOL    HW181874  10.033   9.878   8.939  0.7452  0.8516  0.6172
24878SOL    HW281875   9.951   9.917   9.060  2.0876  0.9106  1.5235
24879SOL     OW81876   8.794   6.533   4.929 -0.1468  0.6922  0.0201
24879SOL    HW181877   8.876   6.490   4.956 -1.1375 -1.2453  0.1226
24879SOL    HW281878   8.813   6.626   4.936  1.8288  0.2961  0.7379
24880SOL     OW81879   6.411   2.657   6.843  0.6792  0.2146 -0.5142
24880SOL    HW181880   6.333   2.606   6.863  0.8194  0.6279  1.2580
24880SOL    HW281881   6.441   2.623   6.759 -0.1814 -1.4419 -0.1883
24881SOL     OW81882  10.290   3.216   1.294 -0.5441  0.0510  0.2799
24881SOL    HW181883  10.272   3.258   1.210 -1.0256 -0.1612  0.2765
24881SOL    HW281884  10.320   3.287   1.350  0.1115  0.1372 -0.1673
24882SOL     OW81885   1.353   5.509   9.043  0.0563  0.2468 -0.6223
24882SOL    HW181886   1.298   5.518   8.965 -0.6241  1.0693 -0.0745
24882SOL    HW281887   1.294   5.473   9.110  0.8891 -1.4369 -0.7411
24883SOL     OW81888   7.841   3.056   0.230  0.2615 -0.1105  0.3912
24883SOL    HW181889   7.786   3.096   0.163 -0.2678 -1.4291 -0.0023
24883SOL    HW281890   7.782   3.041   0.304  0.4085 -0.3178  0.4670
24884SOL     OW81891   7.480   9.419   0.645 -0.7365 -0.0825 -0.2979
24884SOL    HW181892   7.565   9.394   0.609 -0.6811 -0.0942 -0.1591
24884SOL    HW281893   7.484   9.514   0.653 -0.5176 -0.1391  0.2650
24885SOL     OW81894   6.967   0.289   1.503  0.4305 -0.6775 -0.5520
24885SOL    HW181895   7.051   0.271   1.461  0.4156  0.7321 -1.2638
24885SOL    HW281896   6.902   0.281   1.433  0.4415  2.0137 -1.0094
24886SOL     OW81897   8.164   0.917   7.352  0.0895  0.0252 -0.3586
24886SOL    HW181898   8.227   0.846   7.352  0.4547  0.3235  1.0506
24886SOL    HW281899   8.162   0.948   7.442 -2.7583 -0.5880 -0.1109
24887SOL     OW81900   8.185   6.996   0.053  0.4508  0.4421 -0.2403
24887SOL    HW181901   8.159   6.964   0.140 -1.1508 -0.1770 -0.9122
24887SOL    HW281902   8.280   6.982   0.050  0.5329  0.4519  1.3934
24888SOL     OW81903  12.264   5.134   9.217  0.1304  0.9409 -0.5241
24888SOL    HW181904  12.356   5.158   9.214 -0.0493  1.6062 -1.1139
24888SOL    HW281905  12.223   5.205   9.267 -0.1872  1.1212 -1.0260
24889SOL     OW81906  11.715   1.321   1.271 -0.0716  0.4281  0.6103
24889SOL    HW181907  11.625   1.289   1.270  0.0625  0.0342 -0.5897
24889SOL    HW281908  11.707   1.416   1.266 -0.4182  0.3712  0.0340
24890SOL     OW81909   1.497   1.932   5.488 -0.0801  0.3089  0.3678
24890SOL    HW181910   1.492   2.000   5.556 -1.7008  0.5496  0.0519
24890SOL    HW281911   1.432   1.867   5.515 -0.3239  0.1198 -0.6386
24891SOL     OW81912   1.137  12.008   4.809  0.2835 -0.5961  0.3874
24891SOL    HW181913   1.112  11.982   4.720 -1.6247 -0.5769  0.8902
24891SOL    HW281914   1.233  12.013   4.806  0.2135  1.1457 -2.1554
24892SOL     OW81915   8.461  10.400   1.911  0.2503  0.3662 -0.2782
24892SOL    HW181916   8.548  10.436   1.932  0.5028  0.1611 -0.9385
24892SOL    HW281917   8.438  10.442   1.828  1.1777 -1.9910 -1.8373
24893SOL     OW81918   4.393   3.130   3.589 -0.2293 -0.9092  0.0028
24893SOL    HW181919   4.436   3.207   3.554 -1.1670 -0.5821 -0.4615
24893SOL    HW281920   4.440   3.111   3.670  1.0696 -0.8424 -0.7089
24894SOL     OW81921   2.389   7.046   9.776 -0.8139 -0.2574  0.2143
24894SOL    HW181922   2.428   7.011   9.696  1.7850  0.7958  0.8825
24894SOL    HW281923   2.406   6.979   9.843  0.6024  0.5043  0.6599
24895SOL     OW81924   0.240   8.407  12.598 -0.0754 -0.4353  0.1648
24895SOL    HW181925   0.261   8.386  12.508  1.9103 -3.3555  1.1669
24895SOL    HW281926   0.240   8.503  12.601  0.8889 -0.2584 -2.6567
24896SOL     OW81927   4.026   0.927   2.017  0.2771 -0.0164 -0.0701
24896SOL    HW181928   4.050   0.865   2.086 -0.6262 -0.0107  0.2492
24896SOL    HW281929   4.087   1.000   2.029 -1.4506  1.1683  2.3606
24897SOL     OW81930   7.726   3.998   9.485 -0.3315 -0.7464 -0.5382
24897SOL    HW181931   7.768   3.912   9.485 -1.5273 -1.3554 -1.1216
24897SOL    HW281932   7.709   4.017   9.393 -0.6512 -0.1744 -0.3676
24898SOL     OW81933  10.859   3.535   6.904  0.4045  0.4038  0.0861
24898SOL    HW181934  10.953   3.523   6.890  0.8887  1.2318  2.1310
24898SOL    HW281935  10.853   3.614   6.958 -1.5168  0.6806 -0.4646
24899SOL     OW81936   6.683  10.468   2.968 -0.6303 -0.4851 -0.2564
24899SOL    HW181937   6.627  10.520   3.026 -0.4529  0.3483 -0.8213
24899SOL    HW281938   6.755  10.439   3.024 -1.0099 -0.5824  0.1913
24900SOL     OW81939   3.750   5.828  11.943  0.3183  0.1794 -0.0984
24900SOL    HW181940   3.695   5.900  11.913  0.1681  0.4676  0.8412
24900SOL    HW281941   3.831   5.871  11.972 -0.1020  0.0823  1.2796
24901SOL     OW81942   0.803   0.079   6.474  0.0588  0.0902 -0.3465
24901SOL    HW181943   0.853   0.015   6.423  1.1805  0.9998 -0.4193
24901SOL    HW281944   0.717   0.081   6.432  0.1068 -1.1192 -0.5409
24902SOL     OW81945   9.529   4.517   0.004 -0.4916  0.1346 -0.0083
24902SOL    HW181946   9.501   4.578   0.071 -0.4544  1.2386 -0.9593
24902SOL    HW281947   9.461   4.523  -0.064  0.1004  0.0063 -0.6308
24903SOL     OW81948   7.362   4.866   9.769 -0.0599  0.1941 -0.2696
24903SOL    HW181949   7.353   4.958   9.797  0.3991  0.4325 -0.8983
24903SOL    HW281950   7.278   4.847   9.726 -0.0240  0.4343 -0.4530
24904SOL     OW81951   1.095  10.774   2.636  0.2141 -0.3900  0.1791
24904SOL    HW181952   1.187  10.791   2.654 -0.1177 -0.7054  2.5336
24904SOL    HW281953   1.092  10.682   2.610  0.4332 -0.8227  1.6076
24905SOL     OW81954   5.630   2.694  10.858  0.2719  0.5985  0.0636
24905SOL    HW181955   5.566   2.760  10.883 -0.0142  0.6017 -0.6431
24905SOL    HW281956   5.711   2.722  10.900  0.0016  1.0477  0.2964
24906SOL     OW81957   3.774   9.392  11.231 -0.1057  0.1352 -0.7571
24906SOL    HW181958   3.860   9.426  11.254 -1.3759  2.0448  1.6071
24906SOL    HW281959   3.738   9.456  11.170 -0.9990  1.1176  0.7185
24907SOL     OW81960   6.889   5.499   2.808  0.3746  0.0701  0.1018
24907SOL    HW181961   6.836   5.528   2.733  0.4356  1.3654  0.5349
24907SOL    HW281962   6.974   5.542   2.795  0.3056  0.5014  1.0332
24908SOL     OW81963  10.360   6.488   2.884  0.0678 -0.1500 -0.4171
24908SOL    HW181964  10.379   6.396   2.867  0.7490  0.2076 -1.7308
24908SOL    HW281965  10.430   6.535   2.839  1.0893  0.9734  2.0992
24909SOL     OW81966   9.658  12.292   7.268  0.1328 -0.1741 -0.5105
24909SOL    HW181967   9.747  12.300   7.233  0.5302  0.4060  0.5751
24909SOL    HW281968   9.609  12.246   7.200  0.5373  1.9902 -2.4058
24910SOL     OW81969   5.447  10.314   4.672  0.3512 -0.1339  0.2574
24910SOL    HW181970   5.397  10.234   4.657  0.4846  0.1716 -2.1762
24910SOL    HW281971   5.434  10.366   4.593  0.5203  2.1454  1.6393
24911SOL     OW81972   6.096  11.353   4.984 -0.0641  0.0672  0.0863
24911SOL    HW181973   6.088  11.267   5.025  1.3398  0.8541  2.1585
24911SOL    HW281974   6.110  11.334   4.891  0.2897 -1.9310  0.5046
24912SOL     OW81975   2.375   2.270   3.466  0.3323  0.1450 -0.0345
24912SOL    HW181976   2.357   2.204   3.534  2.3257 -0.7784 -0.3230
24912SOL    HW281977   2.376   2.353   3.514  0.4561 -0.3508  0.8595
24913SOL     OW81978   7.756   6.404   3.594 -0.4398 -0.4859 -0.2893
24913SOL    HW181979   7.800   6.383   3.512  0.5696 -0.7081  0.2947
24913SOL    HW281980   7.666   6.425   3.568  0.0947  0.3944 -1.5589
24914SOL     OW81981   9.603  11.887  11.625  0.1448 -0.3225  0.5967
24914SOL    HW181982   9.637  11.798  11.635 -0.4262 -0.5615  0.4345
24914SOL    HW281983   9.576  11.893  11.533 -0.4782 -0.2222  0.7781
24915SOL     OW81984   3.139   7.599   0.734  0.0279 -0.8252  0.2441
24915SOL    HW181985   3.191   7.625   0.810  0.4807  0.1989 -0.3891
24915SOL    HW281986   3.192   7.625   0.659 -1.3238  0.0839 -0.4260
24916SOL     OW81987   1.749   0.108  12.142  0.5781  0.0582  0.4569
24916SOL    HW181988   1.708   0.053  12.209  1.6624 -1.9053 -0.4029
24916SOL    HW281989   1.808   0.049  12.096  2.4238  2.1555 -0.0361
24917SOL     OW81990   0.265   3.820   8.180 -0.3775  0.4854 -0.4561
24917SOL    HW181991   0.231   3.778   8.101 -2.4915 -0.0283  0.6389
24917SOL    HW281992   0.360   3.822   8.168 -0.3933 -2.3183 -1.6735
24918SOL     OW81993   7.639  10.210  12.078 -0.2483 -0.7956 -0.1066
24918SOL    HW181994   7.548  10.206  12.051 -0.3047 -0.7115  0.0695
24918SOL    HW281995   7.689  10.220  11.997 -0.4436 -0.0911 -0.1461
24919SOL     OW81996  11.720   9.755   1.325  0.1270 -0.1541 -0.4181
24919SOL    HW181997  11.679   9.703   1.256  1.4794  0.3959 -1.6771
24919SOL    HW281998  11.690   9.845   1.308 -1.5226 -0.3129  1.2452
24920SOL     OW81999  10.675   1.831   8.506 -0.0868 -0.0552 -0.2717
24920SOL    HW182000  10.706   1.800   8.421  0.2990  2.1360 -0.9861
24920SOL    HW282001  10.588   1.791   8.516  0.3419 -1.2522 -1.1531
24921SOL     OW82002  11.652   8.371   4.398 -0.4136  0.0493  0.5558
24921SOL    HW182003  11.717   8.308   4.368 -0.5735  0.3621 -0.5022
24921SOL    HW282004  11.569   8.336   4.367 -0.4456  1.0420 -0.5589
24922SOL     OW82005   9.959   5.216  11.339  0.3678  0.5768 -0.1443
24922SOL    HW182006  10.052   5.210  11.319  1.0505  2.7261  1.9470
24922SOL    HW282007   9.921   5.255  11.260  0.8515 -1.7946 -1.6668
24923SOL     OW82008  10.030   7.948   1.527  0.3904 -0.5028 -0.3604
24923SOL    HW182009  10.056   8.036   1.501  0.9863 -0.4973  0.2199
24923SOL    HW282010  10.055   7.892   1.454  0.4140 -0.2492 -0.5449
24924SOL     OW82011   7.930  11.809   7.155  0.3720 -0.4872  0.3742
24924SOL    HW182012   7.996  11.740   7.155  0.3559 -0.5030  0.7955
24924SOL    HW282013   7.901  11.815   7.064  0.5147 -0.8995  0.3023
24925SOL     OW82014   1.505   3.620   2.445  0.6183  0.0670 -0.1388
24925SOL    HW182015   1.458   3.540   2.423 -0.5099  0.9925 -1.2462
24925SOL    HW282016   1.572   3.592   2.508  0.2109 -1.7148 -0.4390
24926SOL     OW82017   1.050  11.304  11.770  0.1969  0.5348  0.6833
24926SOL    HW182018   1.007  11.228  11.730  0.5813  0.1695  0.9572
24926SOL    HW282019   1.142  11.295  11.746  0.3490  0.5770  1.2291
24927SOL     OW82020   7.859  10.354   4.099 -0.5349 -0.3861  0.6708
24927SOL    HW182021   7.885  10.270   4.138  1.5614 -0.7832 -1.3555
24927SOL    HW282022   7.797  10.330   4.030 -1.2928 -0.0651  1.2270
24928SOL     OW82023   1.041   7.584   9.402  0.0337  0.3617 -0.2198
24928SOL    HW182024   1.108   7.532   9.357 -0.1953 -0.1884  0.0684
24928SOL    HW282025   1.082   7.671   9.413  0.4133  0.2528 -0.7124
24929SOL     OW82026   0.181   4.078  12.531  0.1492  0.2307  0.4641
24929SOL    HW182027   0.202   3.991  12.498 -0.0950  0.9338 -1.6710
24929SOL    HW282028   0.095   4.098  12.493 -1.4047  0.1255  3.5913
24930SOL     OW82029   2.783   6.331   4.212 -0.1522 -0.3396 -0.4505
24930SOL    HW182030   2.751   6.415   4.177  0.9773  0.7544  1.0109
24930SOL    HW282031   2.877   6.345   4.223 -0.3035 -0.9616  2.0092
24931SOL     OW82032   5.938   9.491   3.888 -0.1442 -0.5342 -0.6416
24931SOL    HW182033   5.999   9.436   3.936  1.1363  0.2141 -1.3355
24931SOL    HW282034   5.992   9.534   3.821 -1.1260  1.3273 -0.3054
24932SOL     OW82035   8.109   6.036   2.541 -0.2381  0.1006  0.2879
24932SOL    HW182036   8.058   6.000   2.614  1.3003  0.9228  1.8095
24932SOL    HW282037   8.191   5.986   2.542 -1.0027 -1.4155 -2.3166
24933SOL     OW82038   1.121   0.038   8.711  0.1710  0.0049 -0.4390
24933SOL    HW182039   1.080   0.117   8.678  2.0376  0.7705 -1.0399
24933SOL    HW282040   1.052  -0.028   8.710 -0.5869  0.7342 -3.1706
24934SOL     OW82041   1.202   4.154   6.879  0.1119  0.0974  0.0381
24934SOL    HW182042   1.187   4.241   6.918  1.8022  0.1672  0.6211
24934SOL    HW282043   1.177   4.164   6.787 -0.8817  0.8461  0.3722
24935SOL     OW82044   9.080   1.085   9.710 -0.4695  0.4755 -0.5798
24935SOL    HW182045   9.061   1.118   9.797 -0.7651  1.8932 -1.1485
24935SOL    HW282046   9.037   1.147   9.651  0.6684  0.2000 -1.7562
24936SOL     OW82047   6.350   5.102   7.336  0.2643  0.0225  0.2241
24936SOL    HW182048   6.335   5.011   7.312  1.8446 -0.1036 -0.3581
24936SOL    HW282049   6.316   5.109   7.426 -0.6157 -0.9116 -0.0210
24937SOL     OW82050   5.598   2.319  11.041 -0.0369  0.3719 -0.7195
24937SOL    HW182051   5.537   2.350  10.974 -1.7190 -0.0053  0.5762
24937SOL    HW282052   5.554   2.338  11.124  2.0667  1.0022  0.3157
24938SOL     OW82053   1.892   4.585   7.832  0.0631  0.0185 -0.4053
24938SOL    HW182054   1.912   4.678   7.820 -0.2036  0.1731  0.2785
24938SOL    HW282055   1.861   4.556   7.746 -3.4910  1.5134  0.1678
24939SOL     OW82056   6.976  11.189  12.158 -0.4405 -0.0732 -0.5192
24939SOL    HW182057   7.057  11.142  12.140 -0.2730 -0.5606  1.3294
24939SOL    HW282058   6.995  11.243  12.234 -1.5187  0.7232 -0.7874
24940SOL     OW82059   1.980   6.982   9.952  0.2311 -0.0394  0.1219
24940SOL    HW182060   1.887   7.005   9.948  0.3305  0.4927  0.7624
24940SOL    HW282061   1.988   6.932  10.034  0.5015 -0.1206  0.0453
24941SOL     OW82062   2.438   2.989  10.946  0.6745 -0.4212 -0.2285
24941SOL    HW182063   2.382   2.923  10.986  0.3123  0.7539  1.3153
24941SOL    HW282064   2.463   3.047  11.018  1.2198  0.9607 -1.4548
24942SOL     OW82065  10.817   2.605  12.551  0.3644 -0.5341  0.1744
24942SOL    HW182066  10.822   2.608  12.646  1.0347 -2.3120  0.2288
24942SOL    HW282067  10.807   2.697  12.524  0.3944  0.0096  1.9250
24943SOL     OW82068   0.940   4.738  11.604 -0.1390  0.0599 -0.6822
24943SOL    HW182069   1.027   4.739  11.644 -0.4753 -0.6057  0.0914
24943SOL    HW282070   0.945   4.670  11.537 -0.2708 -0.5201 -0.1200
24944SOL     OW82071   8.461   8.425  10.169 -0.3562  0.0781 -0.1383
24944SOL    HW182072   8.539   8.467  10.134  0.4773 -0.2728  1.2480
24944SOL    HW282073   8.393   8.491  10.163  0.3036  0.7458 -0.3800
24945SOL     OW82074   9.139   1.532  11.629  0.2652 -0.3144  0.0742
24945SOL    HW182075   9.107   1.460  11.684 -0.5326 -1.1898 -1.4291
24945SOL    HW282076   9.203   1.491  11.571  0.1638  0.2855 -0.4793
24946SOL     OW82077   4.082   3.388   2.531 -0.1318 -0.5813 -0.0741
24946SOL    HW182078   4.083   3.420   2.441 -0.9425 -1.7382 -0.5187
24946SOL    HW282079   4.148   3.318   2.533  0.7548  0.2515  0.5627
24947SOL     OW82080   7.110   8.571   3.925  0.3228 -0.4087 -0.7205
24947SOL    HW182081   7.023   8.607   3.909  0.8287  0.2962 -1.9651
24947SOL    HW282082   7.110   8.551   4.019 -1.7431 -2.0017 -0.9676
24948SOL     OW82083   2.237   4.613   2.279  0.3057 -0.3936 -0.5458
24948SOL    HW182084   2.174   4.555   2.236  0.2078 -1.9302  1.5088
24948SOL    HW282085   2.313   4.613   2.220 -1.3028  1.0227 -2.7605
24949SOL     OW82086   4.529   4.448   4.618 -0.2061 -0.0232 -0.4583
24949SOL    HW182087   4.580   4.402   4.684 -1.6314 -0.0262  0.6814
24949SOL    HW282088   4.453   4.392   4.603 -2.1795  2.0192  1.2425
24950SOL     OW82089   6.092   3.163   8.407  0.0780 -0.0417  0.0354
24950SOL    HW182090   6.110   3.250   8.442 -0.1370  0.0383 -0.0487
24950SOL    HW282091   6.119   3.169   8.315  0.0923 -0.0732  0.0376
24951SOL     OW82092   5.894   8.808   8.250  0.0323  0.1773  0.4075
24951SOL    HW182093   5.804   8.833   8.272 -0.1873 -0.6870  0.5175
24951SOL    HW282094   5.892   8.713   8.242  1.2532 -0.0242  1.9291
24952SOL     OW82095  10.017   1.120  10.001  0.1771  0.2569 -0.0914
24952SOL    HW182096  10.055   1.124   9.912  0.9327 -0.5949  0.1713
24952SOL    HW282097  10.093   1.106  10.058  0.0345  3.1148  0.9927
24953SOL     OW82098   7.885   3.647   2.655 -0.2648 -0.1217 -0.3432
24953SOL    HW182099   7.814   3.584   2.646  1.0034 -2.0622  2.1714
24953SOL    HW282100   7.963   3.600   2.626  0.6217  0.4949  0.9693
24954SOL     OW82101   5.482   9.308  10.602  0.5395  0.4689 -0.3967
24954SOL    HW182102   5.547   9.238  10.596  0.7518  0.7305 -1.2279
24954SOL    HW282103   5.503   9.353  10.684 -1.1223 -1.9076  1.4813
24955SOL     OW82104   1.257   3.385   3.391  0.6279 -0.2293  0.8444
24955SOL    HW182105   1.223   3.330   3.461  1.8177 -2.4028 -0.1730
24955SOL    HW282106   1.179   3.413   3.342 -0.0988  0.1454  2.1801
24956SOL     OW82107   9.165   6.261   4.347 -0.1561  0.2863 -0.6100
24956SOL    HW182108   9.249   6.291   4.380 -0.2791  0.3775 -0.3822
24956SOL    HW282109   9.187   6.212   4.268  0.5135 -3.1387  1.5218
24957SOL     OW82110   7.226   6.804  12.627 -0.3359 -0.0099  0.2736
24957SOL    HW182111   7.154   6.744  12.642  1.7922 -2.9306 -0.4483
24957SOL    HW282112   7.304   6.750  12.628  1.8256  2.8358  0.0083
24958SOL     OW82113   8.076   9.441  11.919  0.0791  0.1542 -0.5176
24958SOL    HW182114   8.005   9.435  11.855  0.6676  0.3180 -1.2106
24958SOL    HW282115   8.056   9.519  11.970 -0.8582 -0.4681  0.0821
24959SOL     OW82116   2.671   4.471   2.307 -0.7624 -0.3273 -0.1962
24959SOL    HW182117   2.650   4.546   2.362 -2.2011 -0.5861 -0.3532
24959SOL    HW282118   2.670   4.505   2.218  3.1740  0.4711 -0.1183
24960SOL     OW82119   3.571   5.854   1.111  0.4240 -0.8249 -0.6157
24960SOL    HW182120   3.475   5.855   1.104  0.2580  3.6647 -0.8163
24960SOL    HW282121   3.601   5.872   1.022  1.2815  0.3584 -0.1028
24961SOL     OW82122  10.053   6.160   9.492 -0.3911 -0.0842 -0.2712
24961SOL    HW182123  10.068   6.067   9.475  0.6444  0.1049 -0.4567
24961SOL    HW282124  10.034   6.164   9.586  1.3621 -0.2951  0.1205
24962SOL     OW82125   6.739   7.867   6.116 -0.1220  0.0214  0.2843
24962SOL    HW182126   6.772   7.929   6.051 -1.1901 -0.4725 -0.7706
24962SOL    HW282127   6.645   7.884   6.118 -0.3682 -1.2758  0.2838
24963SOL     OW82128   4.509   0.413   8.632  0.5309  0.2306 -0.1174
24963SOL    HW182129   4.444   0.416   8.562  0.3531  0.5843  0.0580
24963SOL    HW282130   4.459   0.390   8.710  0.6339  0.3882 -0.0032
24964SOL     OW82131  11.277   2.834   3.773  0.0801  0.3719  0.1649
24964SOL    HW182132  11.285   2.856   3.681  0.1622 -1.1638 -0.2293
24964SOL    HW282133  11.183   2.843   3.793 -0.1791 -0.7272 -0.4822
24965SOL     OW82134   2.426   7.634  11.420 -0.2721  0.2048  0.3434
24965SOL    HW182135   2.374   7.671  11.348  0.5821  1.0780  0.1635
24965SOL    HW282136   2.361   7.611  11.487 -0.8276  2.1927  0.5387
24966SOL     OW82137   6.066  11.670  12.543 -0.0373  0.1782  0.1476
24966SOL    HW182138   6.078  11.735  12.612  0.8911  0.5623 -0.3471
24966SOL    HW282139   6.129  11.601  12.565 -2.2057 -1.4725  1.6517
24967SOL     OW82140   4.298  10.550  12.069 -0.3832  0.5476 -0.4701
24967SOL    HW182141   4.393  10.551  12.069 -0.3335  0.0854 -2.3463
24967SOL    HW282142   4.275  10.462  12.037 -1.5267 -0.4140  2.6427
24968SOL     OW82143   7.580  11.728  11.450  0.0100  0.2875 -0.0046
24968SOL    HW182144   7.671  11.731  11.422  0.4800 -0.3307  1.3587
24968SOL    HW282145   7.570  11.805  11.507 -0.6873  1.0388 -1.0760
24969SOL     OW82146   5.258   2.019   4.421 -0.6534  0.1926 -0.3508
24969SOL    HW182147   5.168   2.009   4.390 -0.4218  1.6910 -1.6097
24969SOL    HW282148   5.307   2.048   4.344  0.7894  0.0121  0.4659
24970SOL     OW82149   3.401   3.166   3.662  0.0214  0.7412 -0.7659
24970SOL    HW182150   3.415   3.259   3.679 -0.9469  0.6688  0.5659
24970SOL    HW282151   3.489   3.128   3.661  0.5437  1.8572 -2.7089
24971SOL     OW82152  12.578   9.780   6.588 -0.3331  0.3167  0.2781
24971SOL    HW182153  12.527   9.805   6.666  0.8383  0.5421  0.9945
24971SOL    HW282154  12.653   9.732   6.623  0.8014  1.3732 -0.6042
24972SOL     OW82155  10.037  10.276  11.577  0.3331 -0.2256 -0.2903
24972SOL    HW182156  10.107  10.319  11.627  1.3869 -1.4791 -0.6163
24972SOL    HW282157   9.986  10.348  11.541  0.9619  0.7258  0.6442
24973SOL     OW82158   3.504  11.034   3.917  0.0551  0.3202  0.4221
24973SOL    HW182159   3.511  11.086   3.997 -1.6554 -1.5752  1.8967
24973SOL    HW282160   3.420  11.058   3.880 -0.6580 -1.1389  1.0059
24974SOL     OW82161   3.768   0.354   2.842  0.0525 -0.6789 -0.1422
24974SOL    HW182162   3.759   0.288   2.773  0.0603 -0.2915 -0.5191
24974SOL    HW282163   3.862   0.360   2.856 -0.0317 -2.5483  1.6694
24975SOL     OW82164   9.124   6.700   5.416 -0.8687 -0.2448  0.2573
24975SOL    HW182165   9.147   6.626   5.359  0.6262 -0.6269  1.2873
24975SOL    HW282166   9.137   6.778   5.362  0.4346 -0.6030  0.0197
24976SOL     OW82167   4.951   9.864   6.717  0.2026  0.7598  0.2588
24976SOL    HW182168   5.006   9.786   6.727 -2.2373 -1.1303  0.0240
24976SOL    HW282169   4.870   9.841   6.762 -0.8190  2.9626 -0.3538
24977SOL     OW82170   5.427  10.303   8.795 -0.1619 -0.5778 -0.3307
24977SOL    HW182171   5.440  10.393   8.824  1.2180 -0.4963 -1.1234
24977SOL    HW282172   5.362  10.310   8.726 -2.4734 -0.6179  1.6985
24978SOL     OW82173   9.852   0.757   7.986 -0.1868 -0.2593  0.1823
24978SOL    HW182174   9.945   0.739   7.998 -0.1822  0.3438  1.2012
24978SOL    HW282175   9.808   0.690   8.038 -0.2330  0.7957  1.5949
24979SOL     OW82176   7.520   2.872   8.205 -0.2204 -0.2460  0.5249
24979SOL    HW182177   7.533   2.806   8.137 -0.6245 -0.8420  1.0129
24979SOL    HW282178   7.599   2.925   8.203  0.9181 -1.8283  1.2952
24980SOL     OW82179   3.561   4.405   7.059  0.0003  0.1202 -0.3465
24980SOL    HW182180   3.558   4.325   7.006 -0.5329  0.3028 -0.5998
24980SOL    HW282181   3.603   4.469   7.002 -0.6408  0.3373 -0.5770
24981SOL     OW82182   8.931  11.157   2.989 -0.2471  0.5919  0.5739
24981SOL    HW182183   8.867  11.193   3.051 -1.3456 -1.0332  0.4432
24981SOL    HW282184   8.973  11.234   2.951 -0.8346  1.6671  2.0011
24982SOL     OW82185   2.433   1.894  10.757 -0.3588 -0.1592  0.1580
24982SOL    HW182186   2.455   1.828  10.823 -1.2794 -0.3483  0.2973
24982SOL    HW282187   2.343   1.872  10.732 -0.3507  0.4982 -0.4607
24983SOL     OW82188   0.317   6.689   8.194  0.5149  0.2252 -0.0437
24983SOL    HW182189   0.244   6.648   8.239  2.1654 -0.4726  2.1593
24983SOL    HW282190   0.345   6.760   8.252  2.2182 -0.1689 -0.3215
24984SOL     OW82191   2.960   0.469   0.245  0.1717 -0.0136 -0.2615
24984SOL    HW182192   3.034   0.454   0.186 -0.7122 -0.5575 -1.2688
24984SOL    HW282193   2.952   0.564   0.250 -1.4041  0.1296 -3.2595
24985SOL     OW82194  12.568   6.126   1.384  0.2964  0.0998 -0.2038
24985SOL    HW182195  12.660   6.102   1.396 -0.1909 -1.6914  0.3997
24985SOL    HW282196  12.533   6.057   1.327 -1.0619 -0.3203  1.0545
24986SOL     OW82197   0.483  12.220  12.361 -0.0060  0.2884  0.2277
24986SOL    HW182198   0.446  12.220  12.449  0.0561 -0.1819  0.2584
24986SOL    HW282199   0.578  12.220  12.375  0.0119  1.1170  0.1521
24987SOL     OW82200   1.486   0.302  11.574  0.4271 -0.2158 -0.3274
24987SOL    HW182201   1.548   0.364  11.613 -0.5689 -0.0660  1.1228
24987SOL    HW282202   1.457   0.249  11.648  0.7633 -2.0023 -1.4338
24988SOL     OW82203   2.248   9.002   8.654 -0.1252 -0.3515 -0.3034
24988SOL    HW182204   2.293   9.018   8.572  1.1731 -0.0547  0.4420
24988SOL    HW282205   2.279   8.917   8.683 -0.2455 -0.2623  0.0973
24989SOL     OW82206   6.887   0.097   6.962  0.0104  0.2712 -0.0201
24989SOL    HW182207   6.964   0.041   6.951 -0.5307 -0.3184 -0.9531
24989SOL    HW282208   6.912   0.159   7.030  1.5648  0.5420 -0.7997
24990SOL     OW82209  12.281   9.955   2.772 -0.3766  0.1146 -0.1021
24990SOL    HW182210  12.292   9.906   2.691 -4.4024 -0.7734 -0.3330
24990SOL    HW282211  12.187   9.948   2.792 -0.2455  3.4170  2.6617
24991SOL     OW82212   9.630   0.829   7.145 -0.5140  0.2645  0.5907
24991SOL    HW182213   9.591   0.755   7.099  0.2379  1.2324 -1.7607
24991SOL    HW282214   9.594   0.906   7.101 -0.8325  1.3306  2.5940
24992SOL     OW82215  11.776   1.524   8.196  0.5145 -0.1139 -0.6950
24992SOL    HW182216  11.727   1.583   8.252  1.9758  0.6736 -0.1876
24992SOL    HW282217  11.710   1.476   8.147 -0.7297  1.2924 -0.4449
24993SOL     OW82218   7.106   6.685   5.884 -0.1417 -0.0616 -0.4387
24993SOL    HW182219   7.121   6.692   5.978  1.0494 -0.7049 -0.5617
24993SOL    HW282220   7.116   6.592   5.865 -0.5191  0.0440 -1.1777
24994SOL     OW82221  10.290  11.303  11.767 -0.3354  0.1973  0.2070
24994SOL    HW182222  10.256  11.253  11.694  0.4555 -0.7487  0.4611
24994SOL    HW282223  10.216  11.354  11.799 -0.8147  0.2170 -0.9111
24995SOL     OW82224   6.476   6.832  11.824 -0.0125 -0.6344 -0.1028
24995SOL    HW182225   6.396   6.879  11.850  0.2295 -0.0337 -0.4112
24995SOL    HW282226   6.516   6.889  11.758 -0.2456 -1.7580 -1.2714
24996SOL     OW82227  11.309   0.310  11.585 -0.2690  0.1044  0.0628
24996SOL    HW182228  11.321   0.271  11.672  0.2658  0.3349  0.0949
24996SOL    HW282229  11.380   0.374  11.578 -0.2368 -0.0054 -0.5984
24997SOL     OW82230   9.673   2.967   7.177 -0.0599 -0.2820  0.0877
24997SOL    HW182231   9.738   2.937   7.113  3.5258  5.0626  0.6011
24997SOL    HW282232   9.602   3.004   7.125 -1.3187 -3.2264 -0.4883
24998SOL     OW82233   8.170   9.682   2.725  0.1314  0.4920 -0.2191
24998SOL    HW182234   8.140   9.773   2.719  0.0414  0.4382 -0.5506
24998SOL    HW282235   8.252   9.681   2.677 -0.1433  0.2726 -0.6864
24999SOL     OW82236   7.380  11.764   1.705 -0.1903  0.4944  0.4183
24999SOL    HW182237   7.311  11.729   1.649  1.0640 -0.4117 -0.6471
24999SOL    HW282238   7.461  11.733   1.664  0.8750  2.0294  1.2651
25000SOL     OW82239   8.448  11.270   3.003  0.7397 -0.4996  0.4741
25000SOL    HW182240   8.355  11.265   3.024  0.6607 -2.6276 -0.1525
25000SOL    HW282241   8.471  11.182   2.974  2.9595 -0.0207  0.5986
25001SOL     OW82242   7.599  11.190   7.270  0.5359  0.0668  0.3950
25001SOL    HW182243   7.561  11.163   7.186  0.5081  0.4336  0.2878
25001SOL    HW282244   7.619  11.283   7.258  0.6479  0.0894  0.7531
25002SOL     OW82245   3.538   6.148   4.458 -0.4224  0.0260 -0.7874
25002SOL    HW182246   3.534   6.228   4.405 -0.3803 -1.2698 -2.8525
25002SOL    HW282247   3.593   6.089   4.407 -0.0968 -1.1931  0.9045
25003SOL     OW82248   6.316   2.764   8.017 -0.5682  0.4730  0.3481
25003SOL    HW182249   6.233   2.719   8.031 -0.7913  0.8718  0.3335
25003SOL    HW282250   6.293   2.840   7.963  0.0209 -0.1440 -0.8060
25004SOL     OW82251   0.359   5.897   8.764 -0.2344 -0.7871  0.0949
25004SOL    HW182252   0.437   5.851   8.796  0.4447 -1.2395 -2.0152
25004SOL    HW282253   0.369   5.987   8.794 -1.3823 -1.7835  3.9778
25005SOL     OW82254   0.705  10.170   2.823  0.4101 -0.1238  0.1302
25005SOL    HW182255   0.774  10.225   2.859  0.5070 -0.4269  0.4177
25005SOL    HW282256   0.752  10.095   2.786  0.2266 -0.4245  0.4992
25006SOL     OW82257   1.007   6.506   9.052 -0.2344 -0.9670 -0.0712
25006SOL    HW182258   1.059   6.440   9.097  0.3179 -0.7120 -0.3230
25006SOL    HW282259   1.071   6.561   9.007 -0.7490 -1.0126 -0.8961
25007SOL     OW82260   6.457   3.082   7.721 -0.1929 -0.2111  0.2757
25007SOL    HW182261   6.499   3.168   7.712 -0.8020 -0.1076 -2.3964
25007SOL    HW282262   6.400   3.091   7.797  0.3236  1.4926  0.5093
25008SOL     OW82263  10.688   8.750   6.490 -0.1551  0.0488  0.6878
25008SOL    HW182264  10.618   8.701   6.532 -1.0829 -0.1356 -0.9710
25008SOL    HW282265  10.659   8.841   6.493 -0.6915 -0.0745 -0.3608
25009SOL     OW82266   3.813  10.482   8.052  0.2599 -0.3078  0.2374
25009SOL    HW182267   3.740  10.421   8.051 -0.0653  0.0848 -0.2391
25009SOL    HW282268   3.874  10.446   8.117  0.0690 -1.1264 -0.0307
25010SOL     OW82269   4.627   7.692   5.739 -0.1458  0.7590  0.0634
25010SOL    HW182270   4.669   7.736   5.813  0.4347 -0.0144  0.2015
25010SOL    HW282271   4.533   7.709   5.752 -0.3094 -1.2364  2.2772
25011SOL     OW82272   7.131   7.350  12.622 -0.1168 -0.0712 -0.3730
25011SOL    HW182273   7.097   7.338  12.534 -0.4664  1.1172 -0.4191
25011SOL    HW282274   7.191   7.277  12.635 -0.9524 -0.9228 -1.1493
25012SOL     OW82275   5.896   5.368   9.992  0.2699  0.2673  0.1428
25012SOL    HW182276   5.961   5.399   9.929 -1.6745  0.8366 -1.7155
25012SOL    HW282277   5.846   5.446  10.017 -1.1869 -0.4631 -0.3473
25013SOL     OW82278   8.465   4.191   9.879 -0.5307  0.0798  0.1427
25013SOL    HW182279   8.446   4.150   9.794 -1.4982  0.5318  0.1310
25013SOL    HW282280   8.396   4.255   9.891 -0.8441 -0.4979  1.6328
25014SOL     OW82281   3.076   3.208   4.246 -0.6703  0.0799  0.0815
25014SOL    HW182282   3.112   3.120   4.255  0.9885  0.8264  1.0653
25014SOL    HW282283   3.035   3.226   4.331 -0.5910  0.4266  0.0485
25015SOL     OW82284   4.145   0.085   7.094  0.0791  0.1374 -0.0710
25015SOL    HW182285   4.053   0.060   7.089  0.1493 -0.3178  0.7016
25015SOL    HW282286   4.145   0.181   7.088 -0.4706  0.1600  0.2467
25016SOL     OW82287   2.620   8.665   5.196 -0.0599  0.4455 -0.4989
25016SOL    HW182288   2.645   8.614   5.118 -0.3520  0.7671 -0.8073
25016SOL    HW282289   2.544   8.716   5.167  0.2042  1.0241 -0.1779
25017SOL     OW82290   2.381  10.115   4.506  0.3995 -0.0273 -0.4273
25017SOL    HW182291   2.403  10.159   4.424 -0.0988 -0.8576 -1.0102
25017SOL    HW282292   2.354  10.186   4.564  1.6476  0.6790 -0.6640
25018SOL     OW82293   1.975   0.676   2.058 -0.2203  0.2393  0.3038
25018SOL    HW182294   2.032   0.730   2.112  1.3349  0.1332 -1.1351
25018SOL    HW282295   1.941   0.609   2.117 -0.7350  1.6950  1.7011
25019SOL     OW82296   7.452   5.002   3.942 -0.0384  0.2840 -0.1993
25019SOL    HW182297   7.461   4.914   3.979  0.1401  0.4462  0.1508
25019SOL    HW282298   7.436   5.058   4.019 -1.4052  0.3827 -0.5221
25020SOL     OW82299   7.109  12.539  10.271  0.3519  0.0242  0.0094
25020SOL    HW182300   7.150  12.613  10.315  0.4227 -0.4241  0.7045
25020SOL    HW282301   7.057  12.497  10.339 -0.5735  0.0739 -0.6505
25021SOL     OW82302   0.928   6.062   4.988  0.0519  0.4149  0.2113
25021SOL    HW182303   0.966   6.124   4.925 -1.5961  0.4749 -0.7802
25021SOL    HW282304   0.858   6.112   5.031  0.6023  0.1060  1.4981
25022SOL     OW82305   9.253   6.637  10.783 -0.1307  0.3606  0.2658
25022SOL    HW182306   9.173   6.612  10.738  0.9406  0.3215 -1.7539
25022SOL    HW282307   9.293   6.703  10.725  1.3046  0.3500  1.1910
25023SOL     OW82308   4.753   4.938   7.561  0.0770  0.0672 -0.0859
25023SOL    HW182309   4.818   4.981   7.505  1.1842  0.0234  1.0995
25023SOL    HW282310   4.722   5.007   7.619 -1.5109  0.2495 -1.1096
25024SOL     OW82311   3.762   1.741   1.022  0.4065 -0.0549 -0.3081
25024SOL    HW182312   3.721   1.792   0.952 -1.5844 -0.6671  0.3516
25024SOL    HW282313   3.735   1.784   1.103  1.7927  0.0075  0.1526
25025SOL     OW82314   0.853   8.872  12.280  0.2223  0.8572 -0.0809
25025SOL    HW182315   0.897   8.855  12.364  0.8543  0.8819 -0.3991
25025SOL    HW282316   0.918   8.848  12.214 -0.8343 -0.6897 -0.5967
25026SOL     OW82317   6.139   9.958   3.915  0.2748  0.7241  0.4499
25026SOL    HW182318   6.070  10.024   3.907 -0.6574 -0.2167  0.5105
25026SOL    HW282319   6.098   9.885   3.962  1.0906 -0.1556 -0.1476
25027SOL     OW82320   6.941   9.088  10.962  0.0556 -0.0259 -0.0530
25027SOL    HW182321   6.868   9.133  11.003 -1.5406 -0.9985 -1.6886
25027SOL    HW282322   6.963   9.142  10.885 -0.9011 -1.1871 -1.1919
25028SOL     OW82323   4.066   5.628   4.709 -0.2751  0.1013  0.2639
25028SOL    HW182324   4.080   5.605   4.617  1.1453 -0.6279  0.6542
25028SOL    HW282325   4.026   5.551   4.748  0.3331 -0.0765  0.5476
25029SOL     OW82326   4.447   9.397   1.402  0.0745 -0.6297  0.1324
25029SOL    HW182327   4.503   9.454   1.349  0.4663 -0.6151  0.5633
25029SOL    HW282328   4.379   9.455   1.436  2.1653  0.2901  3.1062
25030SOL     OW82329   9.473   8.695  10.331 -0.5550 -0.3459  0.2441
25030SOL    HW182330   9.424   8.651  10.401 -1.7440 -1.1261 -1.0306
25030SOL    HW282331   9.559   8.652  10.332 -1.4843 -2.3311 -0.5638
25031SOL     OW82332   2.562   0.765   2.011  0.1621 -0.0270  0.0989
25031SOL    HW182333   2.567   0.861   2.018  0.7159 -0.1610  2.4320
25031SOL    HW282334   2.515   0.738   2.090 -0.2674 -1.6735 -0.6867
25032SOL     OW82335   5.983   3.915   8.351 -0.6009  0.2400  0.3121
25032SOL    HW182336   6.062   3.897   8.301 -0.4539  0.7009  0.3670
25032SOL    HW282337   5.985   3.853   8.424 -1.2974 -1.0873 -0.7522
25033SOL     OW82338   6.431   7.764   2.580 -0.1904  0.1652 -0.1256
25033SOL    HW182339   6.488   7.734   2.651  0.6170  0.7385 -0.5220
25033SOL    HW282340   6.474   7.733   2.500 -1.0521 -0.4096 -0.3907
25034SOL     OW82341   7.683   5.173  10.234  0.0423 -0.1088  0.0035
25034SOL    HW182342   7.766   5.175  10.282  0.1430  0.0079 -0.1760
25034SOL    HW282343   7.622   5.221  10.290  0.5541  1.4462 -0.7188
25035SOL     OW82344   9.827   6.576   8.822 -0.3297 -0.0218 -0.0294
25035SOL    HW182345   9.814   6.665   8.788  0.1300 -0.2910 -0.9526
25035SOL    HW282346   9.910   6.548   8.783 -0.3518 -0.7719  0.4484
25036SOL     OW82347  11.842   8.934  10.741 -0.1181  0.1685  0.0480
25036SOL    HW182348  11.892   8.973  10.812  0.2291 -0.5869  0.2238
25036SOL    HW282349  11.778   8.878  10.784  0.0339 -0.2228 -0.2278
25037SOL     OW82350  11.402   2.467   7.431 -0.3977 -0.1454 -0.1995
25037SOL    HW182351  11.422   2.398   7.495  0.5924 -0.0038 -0.3395
25037SOL    HW282352  11.458   2.540   7.457 -0.9637  0.3753 -0.4406
25038SOL     OW82353  10.258   8.090   0.082 -0.3110  0.2867  0.4693
25038SOL    HW182354  10.353   8.094   0.068 -0.4205  1.0194 -0.1256
25038SOL    HW282355  10.225   8.173   0.048 -1.2688 -0.3140 -0.1128
25039SOL     OW82356  12.361   3.619   9.312 -0.0071  0.1980  0.5187
25039SOL    HW182357  12.364   3.582   9.224  0.3764 -2.3076  1.5022
25039SOL    HW282358  12.377   3.713   9.299 -0.1545 -0.0574 -2.0617
25040SOL     OW82359   4.793   9.743   5.702 -0.5077 -0.0025  0.7512
25040SOL    HW182360   4.711   9.708   5.666 -0.1527 -1.1020  0.9841
25040SOL    HW282361   4.799   9.705   5.790  0.8859 -0.9723  0.2635
25041SOL     OW82362   1.807   8.991  12.055  0.0187  0.0047 -0.3993
25041SOL    HW182363   1.877   8.927  12.059  0.2902  0.0793 -2.6458
25041SOL    HW282364   1.847   9.073  12.085 -0.4425 -0.8363  2.8941
25042SOL     OW82365   6.281   0.824   9.207  0.1808  0.9285 -0.3256
25042SOL    HW182366   6.304   0.792   9.294  0.3991  0.3006 -0.6031
25042SOL    HW282367   6.191   0.794   9.193  0.7111 -0.4735 -0.9738
25043SOL     OW82368   8.437  11.054   1.705  0.0032  0.0618  0.0615
25043SOL    HW182369   8.402  11.108   1.634 -0.8620 -0.0464  0.3977
25043SOL    HW282370   8.528  11.036   1.679 -0.1955  0.3272 -0.8390
25044SOL     OW82371   2.603   0.436   7.958 -0.0409  0.0498 -0.2258
25044SOL    HW182372   2.591   0.367   8.023 -3.1375  0.9648  0.3777
25044SOL    HW282373   2.584   0.517   8.007 -1.8517  0.8134 -2.0666
25045SOL     OW82374   2.261   7.562   2.680  0.2896 -0.3639 -0.2284
25045SOL    HW182375   2.231   7.602   2.761 -1.5953  0.7687 -1.4084
25045SOL    HW282376   2.273   7.636   2.620  1.4282 -1.1955 -1.0672
25046SOL     OW82377   6.086   4.463   2.661 -0.5368 -0.0696 -0.0513
25046SOL    HW182378   6.144   4.489   2.589  1.2721 -0.7997  1.0900
25046SOL    HW282379   6.031   4.539   2.676 -0.0162  0.5848 -1.3011
25047SOL     OW82380   6.607  12.671   7.689  0.1094  0.3476 -0.0316
25047SOL    HW182381   6.630  12.694   7.779  5.0023  0.3259 -1.0091
25047SOL    HW282382   6.593  12.576   7.691 -0.1198  0.3916  0.7421
25048SOL     OW82383   0.354   1.651   2.210 -0.1516 -0.1736 -0.7719
25048SOL    HW182384   0.269   1.632   2.248  0.4504  1.9889  1.9206
25048SOL    HW282385   0.339   1.728   2.155 -0.1603 -0.6236 -1.4145
25049SOL     OW82386  11.539   7.203   6.114 -0.3161  0.0522  0.0477
25049SOL    HW182387  11.510   7.131   6.170 -0.5014 -0.9437 -1.2614
25049SOL    HW282388  11.602   7.163   6.055 -1.2525  0.6883 -1.4426
25050SOL     OW82389  12.122   5.550   0.547  0.4665 -0.5457 -0.2859
25050SOL    HW182390  12.063   5.500   0.490  0.7902 -2.4231  0.9077
25050SOL    HW282391  12.191   5.581   0.489  0.2801 -1.5831 -1.0939
25051SOL     OW82392   7.706   5.337  10.937 -0.3623  0.4593 -0.1104
25051SOL    HW182393   7.628   5.328  10.882 -0.1021  0.4167 -0.4768
25051SOL    HW282394   7.722   5.431  10.941  1.1713  0.3785 -2.3481
25052SOL     OW82395   0.607  12.670   8.618  0.2662 -0.6956  0.1535
25052SOL    HW182396   0.549  12.607   8.574  1.3234 -0.4869 -1.6141
25052SOL    HW282397   0.682  12.680   8.559  0.5226  1.6137  0.7626
25053SOL     OW82398   5.520   8.420  10.955  0.2619  0.5952 -0.3946
25053SOL    HW182399   5.609   8.385  10.952  0.3118  0.6417  0.2826
25053SOL    HW282400   5.530   8.515  10.948  0.0432  0.4741 -3.5467
25054SOL     OW82401   6.459   0.909   3.154  0.0245  0.1629 -0.1865
25054SOL    HW182402   6.496   0.826   3.126 -2.8950 -1.2000 -0.3837
25054SOL    HW282403   6.458   0.963   3.074 -0.0927 -0.4387 -0.5950
25055SOL     OW82404   4.550  12.355  10.498 -0.4372 -0.2853  0.2389
25055SOL    HW182405   4.455  12.354  10.503 -0.4392 -2.8930  0.8256
25055SOL    HW282406   4.578  12.280  10.550  1.9397  0.2442 -0.1612
25056SOL     OW82407   8.621   6.339   7.477  0.1630 -0.0195  0.0325
25056SOL    HW182408   8.650   6.406   7.539 -0.1409 -0.1065  0.2696
25056SOL    HW282409   8.663   6.363   7.394 -0.8445  1.1268 -0.1727
25057SOL     OW82410   2.907   5.409   0.095 -0.5156 -0.1215  0.0286
25057SOL    HW182411   2.921   5.460   0.175  2.9617 -1.0027  0.1129
25057SOL    HW282412   2.886   5.475   0.029 -0.4813  0.9391  1.0413
25058SOL     OW82413   8.658   8.751   5.684  0.3930 -0.2204 -0.2740
25058SOL    HW182414   8.672   8.796   5.767  0.0778  0.7144 -0.7150
25058SOL    HW282415   8.746   8.727   5.655  0.8209  1.9407 -1.0058
25059SOL     OW82416  11.016   9.436   9.211 -0.6474  0.1498  0.3821
25059SOL    HW182417  11.057   9.359   9.172 -0.3307  1.6289 -2.4932
25059SOL    HW282418  10.952   9.400   9.273 -0.4552 -2.4160 -0.7552
25060SOL     OW82419   3.438  10.492   8.787  0.4872  0.5087 -0.2425
25060SOL    HW182420   3.369  10.558   8.795  0.4113  0.6145 -1.5490
25060SOL    HW282421   3.411  10.439   8.712  0.6926 -0.8498  0.6156
25061SOL     OW82422   7.573   0.577   6.561 -0.6201  0.6364 -0.0118
25061SOL    HW182423   7.641   0.523   6.521 -0.5109  0.6234  0.1900
25061SOL    HW282424   7.561   0.650   6.500 -0.0497  0.9185  0.2113
25062SOL     OW82425   2.921  10.026   6.811 -0.2258 -0.1322 -0.3434
25062SOL    HW182426   2.945   9.956   6.872  0.8986  1.0257  0.6199
25062SOL    HW282427   2.826  10.032   6.816 -0.3251 -1.4412 -0.3069
25063SOL     OW82428  12.478   1.727  10.913  0.0066 -0.5398  0.2299
25063SOL    HW182429  12.392   1.724  10.955 -0.1459  0.8571  0.0792
25063SOL    HW282430  12.501   1.820  10.913  1.3223 -0.8440 -0.1328
25064SOL     OW82431   5.700   6.451   2.725 -0.3314  0.6851  0.1283
25064SOL    HW182432   5.771   6.481   2.668 -0.9100  2.3564  0.2450
25064SOL    HW282433   5.631   6.424   2.666  0.7712 -2.1142 -0.0255
25065SOL     OW82434   0.739  12.349   8.278 -0.0129 -0.1177  0.4030
25065SOL    HW182435   0.785  12.364   8.195  0.1611 -0.7329  0.3794
25065SOL    HW282436   0.751  12.255   8.295 -1.6601 -0.4006  0.1483
25066SOL     OW82437  12.011   9.643   7.558  0.0370  0.1307  0.0421
25066SOL    HW182438  11.922   9.670   7.538 -0.1799 -0.0778  0.7079
25066SOL    HW282439  12.016   9.552   7.526  0.0466  0.1783 -0.0930
25067SOL     OW82440   8.752  12.682   2.579 -0.1142 -0.1272  0.4143
25067SOL    HW182441   8.833  12.670   2.628  0.5931 -1.5291 -0.9793
25067SOL    HW282442   8.774  12.745   2.510  1.1724 -3.4440 -2.5295
25068SOL     OW82443   5.760   7.057   9.341  0.3899  0.1188 -0.3948
25068SOL    HW182444   5.767   7.082   9.433 -0.0463 -1.3774  0.0741
25068SOL    HW282445   5.817   6.981   9.332 -1.1933 -1.0712 -0.8171
25069SOL     OW82446   6.985   1.367   5.449 -0.5007 -0.4917 -0.4873
25069SOL    HW182447   7.055   1.356   5.384  0.0845  1.0778 -0.1494
25069SOL    HW282448   6.980   1.282   5.493  1.7440 -0.4149  0.0093
25070SOL     OW82449   3.076   4.625   6.721 -0.2213 -0.2389  0.0021
25070SOL    HW182450   3.115   4.713   6.720  1.8196 -1.0269 -3.0873
25070SOL    HW282451   3.147   4.569   6.752 -0.5295 -1.1042 -0.8295
25071SOL     OW82452   2.864  12.659   5.364  0.2201  0.3135 -0.2782
25071SOL    HW182453   2.942  12.613   5.332  1.0713  1.2829  0.3535
25071SOL    HW282454   2.828  12.701   5.286  0.6459  0.3209 -0.4757
25072SOL     OW82455   8.035   3.953  12.518 -0.1061 -0.0681 -0.2349
25072SOL    HW182456   8.010   3.910  12.436 -0.7692 -1.0162  0.4376
25072SOL    HW282457   8.100   3.894  12.556  0.6303  0.6649 -0.3513
25073SOL     OW82458   8.029  11.730   5.178  0.5103  0.3237 -0.9783
25073SOL    HW182459   8.078  11.752   5.098  1.2219 -1.2538 -1.0122
25073SOL    HW282460   8.065  11.647   5.206  2.0291  1.9521  2.4338
25074SOL     OW82461  12.640   3.301   4.968 -0.0303 -0.3245  0.4839
25074SOL    HW182462  12.692   3.363   4.918 -0.6647 -0.5971 -0.5417
25074SOL    HW282463  12.551   3.337   4.967 -0.9587 -2.3341 -2.1801
25075SOL     OW82464   9.614  11.724   8.771  0.0674  0.4976  0.0481
25075SOL    HW182465   9.638  11.747   8.860  1.2576  1.6360 -0.5337
25075SOL    HW282466   9.596  11.630   8.774 -0.3925  0.6196  1.5675
25076SOL     OW82467   0.229   3.945   1.518  0.5542  0.4071  0.4504
25076SOL    HW182468   0.212   3.996   1.597  0.3179  1.0807 -0.0212
25076SOL    HW282469   0.320   3.962   1.497  1.0078 -0.8272  1.3042
25077SOL     OW82470  10.945   1.300   4.825  0.0711  0.1083  0.3809
25077SOL    HW182471  10.884   1.232   4.854 -0.4090  0.3800  0.0184
25077SOL    HW282472  10.928   1.309   4.732  0.0651  0.7878  0.4449
25078SOL     OW82473   1.327   9.036   8.584 -0.3660 -0.2187 -0.8791
25078SOL    HW182474   1.241   9.064   8.615  0.0220  0.3380 -0.2836
25078SOL    HW282475   1.389   9.079   8.642  0.3383 -0.2006 -1.6232
25079SOL     OW82476   6.858  12.193   0.903  0.2117 -0.0608  0.1170
25079SOL    HW182477   6.788  12.205   0.839  1.7673  1.0852 -1.4798
25079SOL    HW282478   6.895  12.108   0.882  0.1036 -0.1091  0.1214
25080SOL     OW82479   5.457   9.472   1.293  0.2184  0.1877 -0.1719
25080SOL    HW182480   5.365   9.447   1.285 -0.1291  0.9178  1.3192
25080SOL    HW282481   5.457   9.568   1.288  0.7374  0.2756  1.1453
25081SOL     OW82482   5.914   5.128   2.044  0.3675 -0.2952 -0.2013
25081SOL    HW182483   5.906   5.185   1.968  1.3822 -1.7487 -1.4803
25081SOL    HW282484   5.827   5.089   2.055  0.1402  0.1500 -0.4265
25082SOL     OW82485   9.015   5.863   5.672  0.0247 -0.1867  0.5939
25082SOL    HW182486   9.052   5.948   5.698  0.7850 -0.4381  0.3568
25082SOL    HW282487   8.923   5.881   5.655  0.2655  0.6714  0.1665
25083SOL     OW82488   0.042   6.968   6.534  0.2476 -0.2032  0.2829
25083SOL    HW182489   0.002   6.887   6.503  0.4073  0.7791 -2.8198
25083SOL    HW282490   0.108   6.939   6.597 -0.1254 -2.4464 -0.2614
25084SOL     OW82491   8.457   6.986  11.332  0.6478 -0.0471 -0.6172
25084SOL    HW182492   8.413   6.992  11.417  0.9897  1.1865 -0.5074
25084SOL    HW282493   8.434   6.899  11.300 -1.8373  0.4937 -0.5408
25085SOL     OW82494   2.811   9.761   3.138 -0.0074  0.5814  0.8210
25085SOL    HW182495   2.827   9.832   3.200 -0.4402  1.2083  0.2302
25085SOL    HW282496   2.739   9.711   3.176 -0.8547  1.4717  0.4151
25086SOL     OW82497   1.509   3.010   4.187 -0.3030  0.0698 -0.3471
25086SOL    HW182498   1.531   3.088   4.237 -2.4540  0.6678 -0.2088
25086SOL    HW282499   1.456   3.042   4.114  0.5260 -1.0639 -1.4891
25087SOL     OW82500   6.506   9.340   9.918  0.1252 -0.0465  0.1320
25087SOL    HW182501   6.582   9.300   9.960  0.0980 -0.9012 -0.6197
25087SOL    HW282502   6.437   9.275   9.925 -0.1776  0.2216 -0.3055
25088SOL     OW82503   4.772   5.199   1.414 -0.7086  0.1844 -0.2445
25088SOL    HW182504   4.820   5.119   1.392 -1.5239 -0.4253  0.1249
25088SOL    HW282505   4.683   5.169   1.431 -0.9864  1.1557  0.0808
25089SOL     OW82506   4.490   2.715   0.178 -0.3005 -0.2071 -0.1846
25089SOL    HW182507   4.563   2.690   0.234  0.3191  1.2595 -0.2864
25089SOL    HW282508   4.414   2.671   0.216  0.1128  0.7056  1.8008
25090SOL     OW82509   7.126  11.165   5.661  0.1529  0.1925  0.1688
25090SOL    HW182510   7.042  11.145   5.620  1.0766 -2.2787 -0.6589
25090SOL    HW282511   7.127  11.112   5.741  1.2182 -0.3907 -0.2196
25091SOL     OW82512   7.338   6.511   0.991 -0.2626  0.6860  0.0645
25091SOL    HW182513   7.307   6.491   0.903 -1.7028  0.8866  0.4960
25091SOL    HW282514   7.323   6.605   1.001 -2.2211  0.3030  1.2673
25092SOL     OW82515  10.068   7.659   6.578  0.0938 -0.4984 -0.8011
25092SOL    HW182516  10.097   7.638   6.667 -0.6894 -1.6274 -0.7924
25092SOL    HW282517  10.146   7.644   6.524  0.3515 -0.5901 -0.4124
25093SOL     OW82518  11.061   1.689   2.037  0.0854 -0.3710  0.2593
25093SOL    HW182519  11.032   1.755   1.975 -1.4794 -0.6103  0.6898
25093SOL    HW282520  10.981   1.646   2.065  0.7014 -0.1323  2.5935
25094SOL     OW82521  11.232   9.935   7.246 -0.0101  0.0691  0.4385
25094SOL    HW182522  11.227   9.869   7.314  0.3311 -0.7767 -0.3285
25094SOL    HW282523  11.154   9.989   7.258 -1.4363 -1.7421 -0.1716
25095SOL     OW82524   5.293   2.580   6.995  0.4253  0.3860 -0.0711
25095SOL    HW182525   5.226   2.512   6.997  1.1096 -0.2826  1.7665
25095SOL    HW282526   5.376   2.533   6.987  0.9340  0.9457  1.5609
25096SOL     OW82527   8.490   1.807   3.679 -0.5556 -0.2597  0.0113
25096SOL    HW182528   8.480   1.800   3.584 -1.3052  0.1311  0.0576
25096SOL    HW282529   8.515   1.718   3.706  2.2547  0.1499 -0.8173
25097SOL     OW82530   2.162   9.499   8.016  0.2027 -0.0952 -0.1807
25097SOL    HW182531   2.142   9.492   7.923  0.0177  2.1801 -0.3778
25097SOL    HW282532   2.157   9.593   8.034  0.3309 -0.4765  2.1109
25098SOL     OW82533  10.438   6.580  10.177  0.3951 -0.1025 -0.1364
25098SOL    HW182534  10.382   6.524  10.124  0.2386  1.6700 -1.9814
25098SOL    HW282535  10.428   6.547  10.266 -2.7672 -0.4900 -0.5427
25099SOL     OW82536   4.984   1.330   1.709  0.2954 -0.8424 -0.3750
25099SOL    HW182537   4.978   1.267   1.637  0.4470  0.8163 -1.8969
25099SOL    HW282538   5.064   1.379   1.691  1.0156 -1.2072  1.6482
25100SOL     OW82539   2.850  12.123   3.385  0.0950 -0.4774 -0.2976
25100SOL    HW182540   2.804  12.206   3.372  0.3918 -0.1938  0.4327
25100SOL    HW282541   2.937  12.138   3.349  1.3789  0.7536  2.9307
25101SOL     OW82542   4.173   0.542  11.079 -0.3930  0.3314 -0.0390
25101SOL    HW182543   4.194   0.525  10.988 -0.8659  0.5820 -0.1985
25101SOL    HW282544   4.255   0.526  11.127  0.0610  0.9306 -0.5941
25102SOL     OW82545   4.167   0.823   1.107 -0.2954 -0.3200  0.3682
25102SOL    HW182546   4.248   0.827   1.056 -0.8013  0.8275 -0.3850
25102SOL    HW282547   4.101   0.792   1.044 -0.8010  0.5128  0.4794
25103SOL     OW82548   7.370  10.817   9.989 -0.0458 -0.1140  0.1754
25103SOL    HW182549   7.399  10.782  10.073 -1.0233 -0.3197  0.4413
25103SOL    HW282550   7.427  10.774   9.924  0.4074 -0.3022  0.6936
25104SOL     OW82551  11.072   8.695  10.028  0.3356 -0.6083 -0.2441
25104SOL    HW182552  11.109   8.770   9.983  0.7130 -0.9226 -0.4637
25104SOL    HW282553  10.978   8.703  10.014  0.3467 -0.0154 -0.0125
25105SOL     OW82554   0.048   8.990   8.764  0.1429  0.3848  0.0365
25105SOL    HW182555   0.096   8.966   8.843 -2.4045 -1.9716  1.0284
25105SOL    HW282556   0.116   8.997   8.696  2.1233 -0.3186  1.8269
25106SOL     OW82557   7.302   9.639  10.017  0.5533  0.4820 -0.2895
25106SOL    HW182558   7.259   9.688  10.087 -1.6034 -1.3477 -0.2010
25106SOL    HW282559   7.396   9.651  10.032  0.1248  1.6554  1.7681
25107SOL     OW82560   0.667   2.761  10.459  0.0506 -0.9541 -0.1318
25107SOL    HW182561   0.706   2.849  10.454 -1.3517 -0.2400  0.8787
25107SOL    HW282562   0.728   2.711  10.513 -1.6068  0.9152  3.8859
25108SOL     OW82563   4.435   3.125   9.674  0.4277 -0.4046  0.3452
25108SOL    HW182564   4.388   3.208   9.666  0.2036 -0.5705 -0.0872
25108SOL    HW282565   4.418   3.097   9.764 -0.4562 -0.5545  0.1385
25109SOL     OW82566   2.249   1.338   3.568 -0.2853  0.2973  0.3009
25109SOL    HW182567   2.318   1.350   3.634  0.3750 -1.3475 -0.0333
25109SOL    HW282568   2.295   1.336   3.485 -0.5027 -2.0731  0.1598
25110SOL     OW82569   1.146   4.094  11.666 -0.7213 -0.4929  0.2728
25110SOL    HW182570   1.159   4.132  11.579  0.5747 -0.7336  0.3372
25110SOL    HW282571   1.057   4.058  11.663 -0.0455 -2.2195 -1.6412
25111SOL     OW82572   9.977  10.874  12.375  0.2232 -0.3213 -0.1108
25111SOL    HW182573   9.890  10.905  12.400  0.2473  0.1120 -0.5437
25111SOL    HW282574  10.037  10.920  12.434  0.1048 -1.2534  0.7462
25112SOL     OW82575   1.453   0.344  12.414  0.6348 -0.1850 -0.0882
25112SOL    HW182576   1.474   0.431  12.381  0.9154 -0.5354 -0.8743
25112SOL    HW282577   1.524   0.323  12.474  0.5011  0.1744  0.1959
25113SOL     OW82578  10.420   8.794   0.129  0.3247  0.0773 -0.2115
25113SOL    HW182579  10.348   8.807   0.067 -0.6771 -0.8588  0.7135
25113SOL    HW282580  10.499   8.793   0.075 -0.2393  2.0819 -1.1516
25114SOL     OW82581  11.976   9.703   9.699  0.4949  0.8241 -0.3172
25114SOL    HW182582  11.904   9.678   9.641  0.8625  0.4669 -0.6362
25114SOL    HW282583  12.047   9.727   9.638  1.0724 -0.1012 -0.0229
25115SOL     OW82584   3.451   2.337  11.895  0.0835  0.6459  0.5153
25115SOL    HW182585   3.541   2.304  11.896  0.7338  2.1736 -1.0958
25115SOL    HW282586   3.416   2.306  11.811 -1.0206 -0.1927  1.2644
25116SOL     OW82587   7.723  11.116   7.763  0.3046  0.6193  0.1188
25116SOL    HW182588   7.777  11.049   7.804 -1.5887 -0.3787  1.0599
25116SOL    HW282589   7.779  11.151   7.692  1.7622 -1.0842  0.3586
25117SOL     OW82590   6.381   0.374   4.684  0.1751 -0.1586 -0.1874
25117SOL    HW182591   6.302   0.370   4.630  1.0092 -1.4673 -1.3973
25117SOL    HW282592   6.398   0.282   4.707  0.0328  0.3280  2.0810
25118SOL     OW82593   6.190  10.667   8.315  0.4884 -0.3352  0.3098
25118SOL    HW182594   6.236  10.591   8.280  3.8871  2.1188 -1.1830
25118SOL    HW282595   6.238  10.689   8.395 -0.2840  0.3550  0.6014
25119SOL     OW82596   5.856  12.176  10.905 -0.0092 -0.0918  0.3189
25119SOL    HW182597   5.793  12.105  10.895 -0.3782  0.2219  0.3983
25119SOL    HW282598   5.932  12.135  10.947 -0.6696 -0.2053  1.4588
25120SOL     OW82599  12.091  11.254   5.111 -0.2710 -0.1233  0.2530
25120SOL    HW182600  12.054  11.299   5.035  1.7574 -1.3020 -1.5030
25120SOL    HW282601  12.034  11.178   5.124 -1.9787  1.2783  1.4238
25121SOL     OW82602   2.164   9.640  10.030 -0.3746 -0.1504 -0.7313
25121SOL    HW182603   2.077   9.632  10.069  0.8806 -0.6890  2.2462
25121SOL    HW282604   2.171   9.732  10.003 -1.4031  0.2145  0.1969
25122SOL     OW82605   4.163   8.265   8.804 -0.0570  0.1458  0.0225
25122SOL    HW182606   4.221   8.302   8.870  1.5598 -0.0568 -1.2297
25122SOL    HW282607   4.148   8.175   8.833  1.3577 -0.2187 -0.3035
25123SOL     OW82608   7.926   3.892   5.173  0.1380 -0.4786  0.5022
25123SOL    HW182609   7.971   3.887   5.258 -0.6781  0.8571  1.0494
25123SOL    HW282610   7.847   3.943   5.191 -1.0917 -1.8801 -0.6465
25124SOL     OW82611   0.716   2.919   6.235 -1.0479 -0.5316 -0.3505
25124SOL    HW182612   0.807   2.896   6.253 -0.3976  2.5431  0.9808
25124SOL    HW282613   0.667   2.882   6.309 -0.7956 -1.5390 -0.6711
25125SOL     OW82614  10.346   1.131   3.551 -0.0858  0.1551  0.8664
25125SOL    HW182615  10.418   1.074   3.524 -0.3689 -0.6068  1.6915
25125SOL    HW282616  10.381   1.220   3.543  0.7839 -0.1867  0.8084
25126SOL     OW82617   6.962  11.575   1.366  0.0538 -0.3323 -0.0699
25126SOL    HW182618   6.888  11.532   1.325  0.3830  0.4093 -1.5069
25126SOL    HW282619   7.016  11.606   1.293  0.2089  1.8247  0.8607
25127SOL     OW82620  10.301   1.773  10.376  0.4116 -0.0088 -0.1515
25127SOL    HW182621  10.262   1.686  10.364  1.4476 -0.3944 -0.9053
25127SOL    HW282622  10.271   1.802  10.462 -2.7331  0.3549 -1.2526
25128SOL     OW82623   1.822   8.121   0.553 -0.7984 -0.2801 -0.5560
25128SOL    HW182624   1.887   8.080   0.495  0.4202 -0.3333  0.7827
25128SOL    HW282625   1.874   8.174   0.614 -2.0259 -0.1924  0.4664
25129SOL     OW82626   3.577   2.942   2.912  0.6685  0.0668  0.2053
25129SOL    HW182627   3.561   2.853   2.882 -1.6419 -0.1916  1.9516
25129SOL    HW282628   3.585   2.994   2.832 -0.3299 -1.3250 -0.8400
25130SOL     OW82629   0.410   9.985  12.667  0.6791  0.0378  0.5948
25130SOL    HW182630   0.414   9.943  12.581  0.8149 -0.4415  0.8328
25130SOL    HW282631   0.343   9.936  12.715  0.2559  0.6096  0.6036
25131SOL     OW82632   0.824  10.139   0.533  0.5963 -0.2151 -0.3870
25131SOL    HW182633   0.773  10.206   0.579 -0.8122 -1.5308  0.0383
25131SOL    HW282634   0.912  10.176   0.528 -0.5233  2.5185 -1.9020
25132SOL     OW82635  11.576  11.074   5.523 -0.1604  0.1103  0.0403
25132SOL    HW182636  11.607  11.119   5.602 -1.0657  0.6584  0.0938
25132SOL    HW282637  11.602  10.983   5.536  1.5213  0.5570  0.0251
25133SOL     OW82638   6.204   1.867   9.125 -0.2743 -0.0331 -0.7189
25133SOL    HW182639   6.181   1.855   9.033  0.3203 -0.7962 -0.7809
25133SOL    HW282640   6.177   1.785   9.167 -1.2453  0.6034 -0.0560
25134SOL     OW82641   7.167  10.896   5.475  0.1962 -0.3339  0.2302
25134SOL    HW182642   7.204  10.930   5.393  1.4895 -1.2259  0.4004
25134SOL    HW282643   7.159  10.973   5.532  2.4537 -0.1457  0.3924
25135SOL     OW82644   8.251   0.613  10.298  0.2577  0.3511 -0.0238
25135SOL    HW182645   8.345   0.628  10.289 -0.0680  2.1956 -0.8549
25135SOL    HW282646   8.222   0.678  10.362 -0.2097 -1.3716  1.5891
25136SOL     OW82647   5.223  10.456  12.384  0.0778 -0.5621 -0.2270
25136SOL    HW182648   5.242  10.489  12.471 -0.0166  3.2792 -1.4760
25136SOL    HW282649   5.309  10.437  12.346  0.1945 -0.9598  0.2266
25137SOL     OW82650   2.671   7.182   0.351 -0.0850  0.3997 -0.1210
25137SOL    HW182651   2.635   7.270   0.353 -0.4713  0.2415 -0.1969
25137SOL    HW282652   2.693   7.166   0.259  0.2932  0.5389 -0.0588
25138SOL     OW82653  11.837  12.058   9.951  0.4298 -0.4853  0.2915
25138SOL    HW182654  11.797  12.041  10.036 -0.1437  1.0506  0.3575
25138SOL    HW282655  11.925  12.089   9.972 -0.0640  0.9342  0.4318
25139SOL     OW82656   1.679   0.917   4.910  0.2989  0.8421  0.0364
25139SOL    HW182657   1.772   0.908   4.931  0.8848  2.8398 -1.3828
25139SOL    HW282658   1.672   0.887   4.819 -1.0635 -2.0482  0.9772
25140SOL     OW82659   6.118  11.388   4.482 -0.2166 -0.2502 -0.1501
25140SOL    HW182660   6.125  11.483   4.495  0.7474  0.0201 -2.1228
25140SOL    HW282661   6.092  11.379   4.390 -1.8721 -1.9091  0.4261
25141SOL     OW82662  10.856  11.552   3.183 -0.2762  0.4953 -0.1353
25141SOL    HW182663  10.921  11.580   3.248 -0.2098  0.2479 -0.0935
25141SOL    HW282664  10.907  11.540   3.103  0.1276 -1.6828  0.3768
25142SOL     OW82665   1.552  10.080   6.618 -0.0813  0.1114 -0.2992
25142SOL    HW182666   1.505  10.005   6.655  0.9987 -1.5696 -2.1662
25142SOL    HW282667   1.642  10.050   6.607  0.1540  1.2881 -2.0921
25143SOL     OW82668   0.402   5.069   5.838  0.2498 -0.5718  0.2877
25143SOL    HW182669   0.373   4.981   5.813 -1.4387  0.2021 -0.6637
25143SOL    HW282670   0.321   5.117   5.853  1.1298  0.9525  0.3046
25144SOL     OW82671   8.632  12.163   4.845 -0.4205 -0.6926  0.4863
25144SOL    HW182672   8.634  12.083   4.898  0.0121 -0.1235  1.3623
25144SOL    HW282673   8.594  12.229   4.904  3.6401  0.9780  1.6142
25145SOL     OW82674   9.784  12.327   4.632 -0.2423  0.6747  0.0249
25145SOL    HW182675   9.803  12.380   4.709  1.5198 -0.8741  0.7452
25145SOL    HW282676   9.708  12.275   4.656 -0.4107  1.0365  0.2766
25146SOL     OW82677   6.053   8.861   2.118 -0.0946  0.1708 -0.5298
25146SOL    HW182678   5.969   8.815   2.122 -0.0837  0.0716 -1.2954
25146SOL    HW282679   6.032   8.945   2.077 -0.1331  0.9174  0.9395
25147SOL     OW82680   0.142   5.250   0.655 -0.2837  0.0105  0.2479
25147SOL    HW182681   0.098   5.267   0.572  1.0102 -0.4416 -0.5691
25147SOL    HW282682   0.221   5.201   0.630  0.2637  0.1041  1.7165
25148SOL     OW82683   4.842   1.322   7.586 -0.6208  0.1624  0.1984
25148SOL    HW182684   4.906   1.383   7.622 -0.5347 -0.2450  0.7540
25148SOL    HW282685   4.757   1.360   7.610 -0.5646 -0.0564  0.7522
25149SOL     OW82686  11.387   9.656   0.730 -0.2331 -0.0665 -0.2295
25149SOL    HW182687  11.313   9.707   0.762  0.2524 -0.1516  1.0986
25149SOL    HW282688  11.388   9.671   0.636 -1.3658  0.6800 -0.1395
25150SOL     OW82689   1.281   7.790   8.210 -0.0929  0.0512  0.1720
25150SOL    HW182690   1.224   7.865   8.196  1.2198  0.4821 -4.4659
25150SOL    HW282691   1.227   7.715   8.185 -0.1948 -0.1905  1.0593
25151SOL     OW82692  11.925  10.179   8.823  0.2749 -0.1936 -0.2091
25151SOL    HW182693  12.001  10.166   8.879 -1.1218  0.0781  1.8718
25151SOL    HW282694  11.952  10.246   8.760  1.6243  0.1828  0.7317
25152SOL     OW82695   1.493   9.879   3.633 -1.2567 -0.3201 -0.3541
25152SOL    HW182696   1.413   9.847   3.675 -0.9756  0.8058  1.1274
25152SOL    HW282697   1.488   9.974   3.641  0.9053 -0.2646  1.1853
25153SOL     OW82698   4.141   7.776   1.077  0.0853 -0.5807 -0.2600
25153SOL    HW182699   4.077   7.728   1.131  0.7009 -1.8917 -0.6578
25153SOL    HW282700   4.121   7.750   0.987  0.1619  0.2590 -0.5239
25154SOL     OW82701   5.371   4.303  11.241 -0.4162  0.5249  0.5465
25154SOL    HW182702   5.386   4.306  11.147  1.2114  1.5149  0.8014
25154SOL    HW282703   5.408   4.385  11.274  0.1072 -0.3270  2.1780
25155SOL     OW82704  12.057   8.692   0.192  0.3609 -0.1007 -0.0999
25155SOL    HW182705  12.133   8.710   0.136  1.9876  2.5341  2.5917
25155SOL    HW282706  12.093   8.643   0.266 -0.4649  1.3017  1.2935
25156SOL     OW82707   9.994   4.198   5.715 -0.1741 -0.1686  0.3456
25156SOL    HW182708  10.005   4.247   5.633 -0.7636 -0.6808 -0.0473
25156SOL    HW282709  10.083   4.182   5.746  0.1195 -1.2308 -0.9619
25157SOL     OW82710  11.323  12.602  11.132  0.2743 -0.1302 -0.3425
25157SOL    HW182711  11.234  12.567  11.128 -0.1419  0.8546  0.1360
25157SOL    HW282712  11.319  12.671  11.197  1.5284 -0.4400  0.0926
25158SOL     OW82713   1.249   7.890  11.144  0.5965 -0.0153  0.0806
25158SOL    HW182714   1.240   7.977  11.104  2.6389  1.1486  1.9761
25158SOL    HW282715   1.199   7.895  11.225  1.0567 -0.4994  0.3989
25159SOL     OW82716  12.171   3.478   6.054  0.1724  0.0563 -0.0115
25159SOL    HW182717  12.118   3.532   5.997 -1.1119 -0.9654  0.1666
25159SOL    HW282718  12.108   3.428   6.106  1.2592 -2.1675 -0.6974
25160SOL     OW82719   7.251   3.319  12.649  0.2766 -0.0876  0.4847
25160SOL    HW182720   7.170   3.269  12.648 -0.6279  1.3306 -0.0110
25160SOL    HW282721   7.297   3.288  12.727 -0.5028 -1.2557  0.5132
25161SOL     OW82722   4.734   6.664   6.861 -0.3731 -0.5734 -0.5995
25161SOL    HW182723   4.725   6.675   6.956 -1.0818 -0.2057 -0.6984
25161SOL    HW282724   4.669   6.598   6.839 -1.3781  0.5315 -1.0429
25162SOL     OW82725   2.755   9.116   3.309 -0.7326 -0.5164  0.5382
25162SOL    HW182726   2.666   9.105   3.342 -1.5201 -1.1056 -1.5782
25162SOL    HW282727   2.743   9.138   3.217  1.2968  2.2054  0.8349
25163SOL     OW82728   1.701   4.590   9.947  0.5105  0.6341 -0.2939
25163SOL    HW182729   1.716   4.635  10.030  0.1088 -0.7856  0.5975
25163SOL    HW282730   1.787   4.556   9.923  0.6343  1.0762 -0.4876
25164SOL     OW82731  12.573   3.396   6.863  0.1435  0.4893  1.1192
25164SOL    HW182732  12.547   3.311   6.898 -1.2933 -0.3106 -1.6229
25164SOL    HW282733  12.516   3.459   6.907  1.4991  0.1870  3.4836
25165SOL     OW82734   1.873   0.876   1.333  0.6354 -0.0283  0.0075
25165SOL    HW182735   1.920   0.793   1.331  0.5909 -0.0521 -0.0470
25165SOL    HW282736   1.781   0.852   1.340  0.5466 -0.0050 -0.9425
25166SOL     OW82737  11.586   3.606   1.213  0.2050 -0.0039  0.5538
25166SOL    HW182738  11.570   3.533   1.273  0.5097  0.7554  1.5895
25166SOL    HW282739  11.672   3.588   1.176  0.2987 -0.1463  0.8403
25167SOL     OW82740  12.365   6.257   1.487 -0.1972 -0.0244  0.1784
25167SOL    HW182741  12.439   6.222   1.437  0.9051  2.2928  0.0456
25167SOL    HW282742  12.398   6.263   1.577 -0.5315  0.2400  0.2846
25168SOL     OW82743   4.312   8.215   0.106 -0.3342  0.0724  0.1998
25168SOL    HW182744   4.344   8.300   0.078 -1.4902  0.4386 -0.0832
25168SOL    HW282745   4.378   8.183   0.167  1.3302  0.0627 -1.5243
25169SOL     OW82746   9.830   2.140   4.412 -0.3033 -0.3116 -0.7325
25169SOL    HW182747   9.917   2.101   4.398  0.2351  1.6530 -3.6988
25169SOL    HW282748   9.789   2.140   4.325 -2.3494  0.9522  0.1462
25170SOL     OW82749   8.215   4.085   0.074  0.7630 -0.1667 -0.3011
25170SOL    HW182750   8.248   4.110   0.160 -0.5204 -0.2129  0.2189
25170SOL    HW282751   8.236   4.160   0.018 -0.5763  0.9576  0.6165
25171SOL     OW82752   7.219   4.674  10.239 -0.2104 -0.0026  0.2889
25171SOL    HW182753   7.269   4.715  10.310  0.1534 -0.5012  0.3232
25171SOL    HW282754   7.241   4.725  10.161  0.4034 -0.2567  0.2920
25172SOL     OW82755   4.830  11.369   8.813  0.1342  0.2445 -0.4437
25172SOL    HW182756   4.890  11.370   8.738  1.1481  0.4929  0.3559
25172SOL    HW282757   4.754  11.419   8.782  0.3323 -0.0432 -1.4575
25173SOL     OW82758   7.487  11.334   2.206 -0.1995  0.3436  0.5133
25173SOL    HW182759   7.543  11.387   2.149  1.5830 -1.9798 -0.0610
25173SOL    HW282760   7.423  11.295   2.147 -0.2689  0.3027  0.6150
25174SOL     OW82761   2.819   6.951   1.269 -0.3075  0.1309  0.5362
25174SOL    HW182762   2.885   7.006   1.312  1.5744 -2.0764  0.6300
25174SOL    HW282763   2.748   7.012   1.248  0.8544  2.2397  2.2459
25175SOL     OW82764   2.324   7.690  11.875 -0.4044 -0.1047  0.9870
25175SOL    HW182765   2.419   7.686  11.889 -0.3525  0.5167  0.8499
25175SOL    HW282766   2.305   7.783  11.871 -0.3653 -0.1126 -3.4878
25176SOL     OW82767   1.077   7.225  11.274  0.5109  0.2713  0.2444
25176SOL    HW182768   1.088   7.142  11.227 -1.2131  0.5609 -0.7751
25176SOL    HW282769   1.163   7.265  11.273  0.9075 -0.5482 -1.1393
25177SOL     OW82770   9.816   8.776   5.445 -0.2957 -0.4115  0.0529
25177SOL    HW182771   9.907   8.754   5.425  0.3873  1.4153  0.8847
25177SOL    HW282772   9.768   8.694   5.433  2.1391 -2.7568  4.0094
25178SOL     OW82773   0.648   1.535   7.247 -0.2833  0.0539  0.0671
25178SOL    HW182774   0.681   1.619   7.280 -0.4611  0.6415 -1.1657
25178SOL    HW282775   0.553   1.541   7.259 -0.1578 -0.7991  1.7566
25179SOL     OW82776  10.652   3.768  11.925  0.6671  0.2704  0.3456
25179SOL    HW182777  10.559   3.772  11.947  0.5796  0.1603  0.0035
25179SOL    HW282778  10.656   3.797  11.834  0.8924 -0.3157  0.1659
25180SOL     OW82779  12.411   3.480   5.006  0.4866 -0.7250  0.6848
25180SOL    HW182780  12.377   3.441   5.087 -0.2567 -1.4301  0.0578
25180SOL    HW282781  12.344   3.544   4.981 -0.2493 -1.8615 -0.3651
25181SOL     OW82782   5.656  10.437   9.093 -0.1461  0.4386  0.1232
25181SOL    HW182783   5.604  10.514   9.117  0.6363  2.2733 -3.2903
25181SOL    HW282784   5.666  10.444   8.998  0.9615 -3.3391 -0.2057
25182SOL     OW82785   7.557   1.850   9.513  0.3902 -0.0259  0.5092
25182SOL    HW182786   7.607   1.903   9.575 -1.2392  1.4251  0.6623
25182SOL    HW282787   7.490   1.808   9.566 -1.8649  2.2803 -0.3485
25183SOL     OW82788  10.112   7.872   4.212 -0.2476  0.5846 -0.0977
25183SOL    HW182789  10.131   7.962   4.187 -0.5002  0.4937 -0.6226
25183SOL    HW282790  10.193   7.824   4.193 -0.8751  0.2368 -2.1384
25184SOL     OW82791  12.509   6.364   3.675 -0.3450 -0.0122 -0.1723
25184SOL    HW182792  12.484   6.389   3.586 -1.9873  0.8409  0.5002
25184SOL    HW282793  12.446   6.407   3.732  0.7548 -0.4219  1.4468
25185SOL     OW82794   6.176   8.913  10.212 -0.3413  0.4248 -0.2993
25185SOL    HW182795   6.184   8.979  10.144  1.7914 -1.4721 -2.0945
25185SOL    HW282796   6.227   8.948  10.285  0.2212  1.0650 -0.9795
25186SOL     OW82797   8.265   1.152   7.017  0.4812  0.2459 -0.3882
25186SOL    HW182798   8.325   1.186   7.083  1.7260 -0.5806 -1.0426
25186SOL    HW282799   8.196   1.110   7.067  0.5105  1.0890  0.3887
25187SOL     OW82800   9.565   0.401   1.954  0.0542  0.3299 -0.2379
25187SOL    HW182801   9.592   0.362   1.871 -0.3674 -1.7035  0.5240
25187SOL    HW282802   9.573   0.496   1.940  1.1053  0.0005 -2.1925
25188SOL     OW82803   4.423   1.259   7.472 -0.2967  0.5573 -0.0289
25188SOL    HW182804   4.467   1.233   7.553  1.6018  0.5108 -1.0208
25188SOL    HW282805   4.455   1.347   7.453  0.0620  0.1960 -1.2290
25189SOL     OW82806   1.826   0.774  11.135 -0.0831  0.6297 -0.6619
25189SOL    HW182807   1.847   0.692  11.091 -0.4039 -0.4115  1.0302
25189SOL    HW282808   1.820   0.839  11.064  1.7284 -0.4514 -1.8810
25190SOL     OW82809   4.313   0.132  10.410  0.1579  0.0731  0.1128
25190SOL    HW182810   4.323   0.162  10.319  0.3858 -1.8317 -0.5308
25190SOL    HW282811   4.297   0.038  10.402  1.1555 -0.3074  2.0957
25191SOL     OW82812  11.225   0.851  10.661 -0.0511  0.1437 -0.0789
25191SOL    HW182813  11.224   0.794  10.738  0.9213  2.1853  1.5074
25191SOL    HW282814  11.266   0.798  10.593  0.1391 -1.3061  1.1108
25192SOL     OW82815  12.023   1.339   3.710  0.4361 -0.2505  0.1724
25192SOL    HW182816  11.995   1.273   3.774 -0.9435 -0.8962 -1.0533
25192SOL    HW282817  12.021   1.421   3.758 -0.3077 -0.7527  1.0400
25193SOL     OW82818  10.537   7.736   7.677 -0.1581  0.0304  0.2842
25193SOL    HW182819  10.475   7.789   7.728  0.4581  0.6109  0.4380
25193SOL    HW282820  10.550   7.657   7.730 -0.5743  0.0087  0.3640
25194SOL     OW82821   0.545   6.324   5.770 -0.5103  0.1639 -0.2095
25194SOL    HW182822   0.516   6.301   5.681  1.7118 -1.2090 -0.6826
25194SOL    HW282823   0.491   6.399   5.795 -0.9544  0.8366 -2.8749
25195SOL     OW82824   0.422   7.419   4.720 -0.8981 -0.1824 -0.7244
25195SOL    HW182825   0.487   7.440   4.787 -0.5156 -0.3990 -1.0250
25195SOL    HW282826   0.434   7.326   4.703 -1.4592 -0.2800 -0.6049
25196SOL     OW82827  10.554   1.433   9.614  0.5021 -0.0079  0.6283
25196SOL    HW182828  10.558   1.529   9.624  0.4473  0.3017 -1.6819
25196SOL    HW282829  10.643   1.408   9.591  0.1538 -0.2429 -0.5147
25197SOL     OW82830   5.541   6.591   9.770  0.0995  0.4656 -0.0293
25197SOL    HW182831   5.535   6.558   9.680  2.1377 -1.4298  0.4468
25197SOL    HW282832   5.454   6.576   9.806  0.0176 -1.3404 -0.8744
25198SOL     OW82833   8.648   0.168   0.021  0.1278 -0.4771 -0.1126
25198SOL    HW182834   8.689   0.107  -0.040 -1.8772 -1.6598 -0.3417
25198SOL    HW282835   8.589   0.220  -0.033 -2.0049 -1.8294  0.7846
25199SOL     OW82836   7.650   0.156   4.193  0.1073  0.5565  0.0461
25199SOL    HW182837   7.560   0.185   4.180  0.4382  1.0065 -1.4089
25199SOL    HW282838   7.644   0.086   4.258 -1.7545 -1.8693 -2.4903
25200SOL     OW82839   6.664   7.927   8.290  0.1101 -0.5536  0.2649
25200SOL    HW182840   6.736   7.990   8.298 -0.4802  0.0385  1.1130
25200SOL    HW282841   6.658   7.910   8.196 -0.4830  1.5904 -0.1436
25201SOL     OW82842   5.921   3.328   7.214  0.0833 -0.2355  0.1030
25201SOL    HW182843   5.919   3.377   7.297  1.3608  1.0872 -0.5996
25201SOL    HW282844   6.007   3.346   7.178 -0.3045 -1.1294 -1.3371
25202SOL     OW82845   0.753   4.049   1.623 -0.3413 -0.4728 -0.5253
25202SOL    HW182846   0.720   4.121   1.569 -1.7270 -1.5955 -1.2442
25202SOL    HW282847   0.689   4.040   1.693 -0.3605 -1.2293 -0.6351
25203SOL     OW82848   4.837   7.959   8.319 -0.4594 -0.0006 -0.4345
25203SOL    HW182849   4.832   8.053   8.303  0.0747 -0.0865 -1.1741
25203SOL    HW282850   4.928   7.943   8.344 -0.1797 -0.5041 -1.6904
25204SOL     OW82851   4.380  11.129   7.011 -0.0684 -0.5036  0.2963
25204SOL    HW182852   4.459  11.162   7.054  1.2430 -1.3092 -1.4116
25204SOL    HW282853   4.362  11.045   7.054  0.2324 -0.5119  0.4028
25205SOL     OW82854  11.776  11.209   0.745  0.3546 -0.1521 -0.0774
25205SOL    HW182855  11.692  11.166   0.759  0.2276 -0.7746 -2.3870
25205SOL    HW282856  11.841  11.146   0.777  0.0307 -0.6211 -0.3360
25206SOL     OW82857   5.103   1.463   2.622  0.3702  0.0597  0.4293
25206SOL    HW182858   5.125   1.369   2.622 -2.0683 -0.5832  0.8179
25206SOL    HW282859   5.067   1.479   2.535  0.1453  0.4624  0.5956
25207SOL     OW82860  11.794   3.248  12.194  0.3969 -0.5592  0.0679
25207SOL    HW182861  11.857   3.276  12.127  0.0835  1.3430  0.5168
25207SOL    HW282862  11.715   3.226  12.144  0.4744 -0.0941 -0.2682
25208SOL     OW82863   1.149  12.227   9.032  0.0558 -0.6378  0.6372
25208SOL    HW182864   1.131  12.135   9.053 -2.1209 -0.2592  0.7084
25208SOL    HW282865   1.151  12.271   9.117 -0.5577 -0.3785  0.5224
25209SOL     OW82866   8.466   7.315  12.574  0.3405 -0.0455 -0.1582
25209SOL    HW182867   8.383   7.357  12.596 -0.4890 -2.1820  1.0698
25209SOL    HW282868   8.448   7.267  12.493  0.2602 -0.7844  0.2915
25210SOL     OW82869   6.486  10.783  12.164 -0.6585  0.0841  0.2083
25210SOL    HW182870   6.404  10.734  12.151 -0.3194 -0.0867 -1.4725
25210SOL    HW282871   6.457  10.870  12.191 -1.3983 -0.0556 -0.0962
25211SOL     OW82872   5.963  12.394   3.509 -0.5352  0.2364  0.1058
25211SOL    HW182873   6.005  12.425   3.590 -1.3946  0.9686  0.2906
25211SOL    HW282874   5.972  12.468   3.449 -1.2121  0.2542  0.0258
25212SOL     OW82875  10.086   6.344   2.033 -0.2454 -0.1641 -0.5329
25212SOL    HW182876  10.046   6.301   1.958 -1.2366 -1.3869  0.6382
25212SOL    HW282877  10.036   6.312   2.108  1.3580  0.2208  0.7507
25213SOL     OW82878   3.819   4.616   1.158 -0.0787 -0.3095  0.1074
25213SOL    HW182879   3.903   4.640   1.119 -0.2729  2.2058  1.0260
25213SOL    HW282880   3.841   4.554   1.227  1.1161  0.8278  0.7793
25214SOL     OW82881  11.648   7.304  10.051 -0.3053  0.2144  0.8359
25214SOL    HW182882  11.583   7.323  10.119  1.0291  2.7317  1.5442
25214SOL    HW282883  11.614   7.347   9.973  0.5236  1.7372  1.2653
25215SOL     OW82884  10.484   6.994   7.850  0.3733  0.1008 -0.1386
25215SOL    HW182885  10.432   6.949   7.783  0.9368  1.0161 -1.2207
25215SOL    HW282886  10.529   6.923   7.897  0.5544 -0.5102 -1.2142
25216SOL     OW82887   8.500   9.604  10.673  0.1957  0.4274  0.1329
25216SOL    HW182888   8.423   9.550  10.651 -0.9897  1.2508  2.0353
25216SOL    HW282889   8.546   9.553  10.740 -1.0004  1.7253  2.0380
25217SOL     OW82890   3.876  11.370   4.698  0.3183  0.0358  0.3849
25217SOL    HW182891   3.847  11.461   4.699  0.0220  0.0321 -2.1218
25217SOL    HW282892   3.819  11.327   4.762 -2.0520  0.9569 -0.9614
25218SOL     OW82893   2.329  12.199  10.044  0.0727 -0.0460 -0.7145
25218SOL    HW182894   2.235  12.187  10.058  0.5264 -1.5240  1.5856
25218SOL    HW282895   2.357  12.257  10.114  0.8436  0.6900 -1.6054
25219SOL     OW82896   2.134   3.573   9.562  0.2170 -0.3905  1.2739
25219SOL    HW182897   2.062   3.569   9.499  1.5126 -0.8636 -0.2583
25219SOL    HW282898   2.162   3.482   9.572 -0.6199 -0.4615  3.3789
25220SOL     OW82899   0.059   7.428  11.731 -0.4341  0.2325 -0.8393
25220SOL    HW182900  -0.011   7.408  11.670 -1.4178 -0.5633  0.4955
25220SOL    HW282901   0.130   7.368  11.706  0.0571  1.4506 -2.5661
25221SOL     OW82902   9.155   8.101  12.685 -0.2447 -0.1595 -0.0284
25221SOL    HW182903   9.199   8.177  12.647 -1.3781  0.1988 -0.6970
25221SOL    HW282904   9.126   8.131  12.771 -0.3866  0.0589 -0.1511
25222SOL     OW82905   4.888   2.003   9.004  0.3317 -0.4905 -0.1687
25222SOL    HW182906   4.935   1.948   9.066 -1.0193  0.3406  1.6531
25222SOL    HW282907   4.848   1.941   8.943 -0.1856 -1.4700  1.1293
25223SOL     OW82908   9.815   9.044   4.927 -0.0162  0.5517  0.2162
25223SOL    HW182909   9.798   8.972   4.987 -2.0524  0.3319 -0.5425
25223SOL    HW282910   9.808   9.006   4.840 -0.2506  1.4680 -0.1866
25224SOL     OW82911   8.408   6.445   7.117  0.2069  0.0890 -0.4225
25224SOL    HW182912   8.406   6.418   7.025  1.1075  0.3672 -0.5386
25224SOL    HW282913   8.479   6.510   7.121 -0.9275  1.3440  0.1273
25225SOL     OW82914   1.439   4.575  12.115  0.3469 -0.0371  0.4034
25225SOL    HW182915   1.471   4.662  12.138  0.5197  0.2820 -0.9840
25225SOL    HW282916   1.360   4.564  12.168 -0.1858  1.3263 -0.0694
25226SOL     OW82917  12.361   9.425  11.324 -0.3822  0.1565  0.3289
25226SOL    HW182918  12.398   9.455  11.407  0.2804 -0.5531  0.3005
25226SOL    HW282919  12.416   9.467  11.257  0.3304 -0.8278  0.2847
25227SOL     OW82920   2.979   3.226  12.180 -0.3905 -0.6659  0.1057
25227SOL    HW182921   3.025   3.304  12.149  0.5732 -1.0109  0.6061
25227SOL    HW282922   2.898   3.224  12.131 -0.0565  0.2079 -0.4999
25228SOL     OW82923   9.715  11.624  10.832  0.6860 -0.0005 -0.2415
25228SOL    HW182924   9.739  11.532  10.845 -0.0545 -0.1320  0.2565
25228SOL    HW282925   9.636  11.621  10.778  0.6665  0.3496 -0.2358
25229SOL     OW82926  11.770   8.132   1.552  0.2746 -0.1885 -0.6194
25229SOL    HW182927  11.800   8.140   1.461  1.8639  1.4887 -0.0245
25229SOL    HW282928  11.845   8.094   1.598 -0.9893 -2.3230 -0.1803
25230SOL     OW82929   3.458   5.977   4.648  0.1497 -0.5243  0.2817
25230SOL    HW182930   3.480   6.055   4.597  1.0323 -0.0807  1.2948
25230SOL    HW282931   3.458   6.008   4.739 -2.5710 -1.0130  0.5253
25231SOL     OW82932  12.156   0.407   0.510 -0.2502  0.0787  0.0851
25231SOL    HW182933  12.243   0.387   0.473 -0.6871 -0.9132 -0.4427
25231SOL    HW282934  12.174   0.469   0.580  0.9295 -0.3223  0.1646
25232SOL     OW82935   7.310   1.783   7.269 -0.0056  0.0495 -0.0297
25232SOL    HW182936   7.251   1.835   7.214 -1.2530 -0.9890  0.2690
25232SOL    HW282937   7.397   1.800   7.234 -0.7249 -0.3342 -2.1736
25233SOL     OW82938   8.988  11.751   8.582  0.8651  0.0503  0.1437
25233SOL    HW182939   9.051  11.704   8.527  1.3268  0.9284 -0.0907
25233SOL    HW282940   8.959  11.825   8.528 -0.2635 -0.2583  0.3022
25234SOL     OW82941   7.167  11.402   8.197 -0.1103 -0.1947 -0.6469
25234SOL    HW182942   7.172  11.348   8.276  0.2596 -0.9667 -1.1969
25234SOL    HW282943   7.249  11.385   8.151 -0.2268  0.4245 -1.0957
25235SOL     OW82944   3.937  11.157   4.130 -0.2243  0.4331  0.0229
25235SOL    HW182945   3.991  11.181   4.205  1.3598  0.6108 -1.1313
25235SOL    HW282946   3.989  11.092   4.083 -0.3576  1.6383 -1.8891
25236SOL     OW82947   4.442   7.142   1.089  0.4302  0.4074  0.0675
25236SOL    HW182948   4.386   7.066   1.075 -2.1977  2.4852 -1.7247
25236SOL    HW282949   4.408   7.183   1.169 -0.9854  1.8231 -1.1710
25237SOL     OW82950   7.273   0.659  11.544 -0.6485 -0.0861 -0.4059
25237SOL    HW182951   7.216   0.705  11.606 -0.0250 -0.9765  0.8904
25237SOL    HW282952   7.232   0.572  11.535  0.3489 -0.6645  0.3859
25238SOL     OW82953  10.929   2.192  11.445  0.3387 -0.0967 -0.2759
25238SOL    HW182954  10.956   2.104  11.471 -0.5133  0.0879  1.3184
25238SOL    HW282955  11.008   2.246  11.458 -0.1612  0.0900  2.5952
25239SOL     OW82956   4.510  12.564  10.964  0.0843 -0.1527 -0.3716
25239SOL    HW182957   4.570  12.513  11.019 -0.0391 -1.2958 -1.2586
25239SOL    HW282958   4.543  12.552  10.875  0.1284  1.4637 -0.5937
25240SOL     OW82959   4.997  11.396   9.967  0.2187  0.0585 -0.1548
25240SOL    HW182960   4.935  11.377  10.038  0.3499  1.2719  0.3078
25240SOL    HW282961   5.070  11.441  10.009 -0.4108  2.2496 -1.2276
25241SOL     OW82962  10.308   0.301   3.345  0.2962 -0.1754  0.1927
25241SOL    HW182963  10.231   0.309   3.289 -0.1691  0.5625  0.9103
25241SOL    HW282964  10.377   0.347   3.299  0.1962 -0.4602 -0.2473
25242SOL     OW82965   0.061   1.325   5.556  0.0690 -0.4759  0.0032
25242SOL    HW182966   0.088   1.266   5.626 -0.1223  0.6249  1.0283
25242SOL    HW282967   0.079   1.276   5.476 -0.3228 -2.0305  0.8169
25243SOL     OW82968   1.858   8.679   5.167  0.0191  0.2115 -0.4120
25243SOL    HW182969   1.904   8.601   5.197 -0.8400 -0.2518 -0.2835
25243SOL    HW282970   1.878   8.686   5.074  0.5452  0.1596 -0.3055
25244SOL     OW82971   4.430   2.264  10.144 -0.8954  0.2610  0.3098
25244SOL    HW182972   4.514   2.255  10.100 -0.4131  1.4061  0.9544
25244SOL    HW282973   4.443   2.219  10.228 -0.5256  1.4642  0.9078
25245SOL     OW82974   9.030   6.479   4.695 -0.4833  0.0901  0.0771
25245SOL    HW182975   8.935   6.470   4.697 -0.3683 -1.5704 -0.5130
25245SOL    HW282976   9.050   6.505   4.605 -0.2950 -1.0916 -0.2422
25246SOL     OW82977   4.962   2.467   9.655 -0.6065  0.1845 -0.1195
25246SOL    HW182978   4.875   2.491   9.686 -0.1912  0.0349  1.2796
25246SOL    HW282979   5.021   2.494   9.726  0.4178 -0.2459 -0.7756
25247SOL     OW82980  11.712   9.370   2.856  0.1443  0.1256  0.2452
25247SOL    HW182981  11.628   9.336   2.889  0.8781  0.7435  2.9513
25247SOL    HW282982  11.689   9.410   2.772 -2.0364 -0.7992  0.3152
25248SOL     OW82983  10.337  12.629   4.296 -0.5653  0.1687  0.3591
25248SOL    HW182984  10.276  12.613   4.224 -1.9907 -1.4391  1.8446
25248SOL    HW282985  10.423  12.626   4.256 -1.3690  0.9475 -1.5418
25249SOL     OW82986   9.527   5.446   0.058  0.3219  0.0142  0.3606
25249SOL    HW182987   9.453   5.472   0.112  1.0667  1.5231  0.7271
25249SOL    HW282988   9.571   5.528   0.037  1.9098 -0.8366  0.1914
25250SOL     OW82989   8.172  11.652   8.991 -0.1885 -0.1506 -0.2979
25250SOL    HW182990   8.110  11.587   8.957  0.2096 -1.1323  0.7836
25250SOL    HW282991   8.225  11.603   9.054  1.3565  0.7897 -0.8203
25251SOL     OW82992  11.813   6.951  12.698  0.6125  0.2923  0.6213
25251SOL    HW182993  11.905   6.958  12.673  0.0567  1.0301 -1.3716
25251SOL    HW282994  11.767   6.933  12.616 -1.0889  0.5135  1.4871
25252SOL     OW82995  11.508   1.618   7.391 -0.1071 -0.2525 -0.3073
25252SOL    HW182996  11.522   1.557   7.318 -0.2091 -0.7929  0.1147
25252SOL    HW282997  11.429   1.586   7.434 -0.3251  0.3537 -0.2458
25253SOL     OW82998   9.959   6.271   7.618 -0.1237 -0.4726 -0.1084
25253SOL    HW182999   9.967   6.186   7.661  0.1064 -0.2462  0.3041
25253SOL    HW283000   9.895   6.257   7.548 -2.0766 -0.3359  1.5961
25254SOL     OW83001   3.461  11.655   9.761 -0.1033 -0.4417 -0.3419
25254SOL    HW183002   3.526  11.629   9.696 -1.4150  0.5375 -2.1526
25254SOL    HW283003   3.424  11.736   9.726 -1.4509 -0.3202  1.2432
25255SOL     OW83004   3.430  12.466   3.970 -0.2511  0.1609 -0.0961
25255SOL    HW183005   3.466  12.438   3.885  1.4588 -0.1576  0.6840
25255SOL    HW283006   3.361  12.403   3.988  0.5160 -0.8273 -0.4869
25256SOL     OW83007   2.188  10.504  12.413  0.1805  0.2327 -0.2490
25256SOL    HW183008   2.166  10.468  12.500  0.0993  0.4389 -0.1828
25256SOL    HW283009   2.158  10.595  12.417 -0.3591  0.0778 -0.6976
25257SOL     OW83010   6.037   3.873  11.205 -0.1169  0.0432 -0.3276
25257SOL    HW183011   5.969   3.837  11.148 -2.5792  2.6701  0.7325
25257SOL    HW283012   6.007   3.853  11.294  1.0060  0.4362  0.1608
25258SOL     OW83013   7.666   2.721   2.620 -0.0754  0.6401  0.4273
25258SOL    HW183014   7.660   2.630   2.592 -2.6291  0.6220  0.8352
25258SOL    HW283015   7.717   2.717   2.701 -1.4998 -0.6932  1.3262
25259SOL     OW83016  11.669   3.679   2.668 -0.1590  0.1501  0.1011
25259SOL    HW183017  11.732   3.648   2.603 -0.9593  0.0680 -0.6527
25259SOL    HW283018  11.601   3.611   2.670  0.7144 -0.7632  2.3433
25260SOL     OW83019   8.289   8.361   7.412 -0.2728 -0.0498  0.1552
25260SOL    HW183020   8.239   8.288   7.376  1.3084 -0.6344 -0.9538
25260SOL    HW283021   8.222   8.425   7.437 -1.6764 -1.7411  0.9375
25261SOL     OW83022   1.521   3.291   5.594 -0.0100 -0.7532  0.1403
25261SOL    HW183023   1.503   3.384   5.581 -1.9350 -0.7854  1.9648
25261SOL    HW283024   1.599   3.289   5.649  0.7819 -0.2991 -0.9280
25262SOL     OW83025   8.201   6.414   3.437 -0.1059 -0.1015 -0.6026
25262SOL    HW183026   8.246   6.331   3.419 -0.4569 -0.0919 -1.6339
25262SOL    HW283027   8.170   6.406   3.527  1.5674 -0.2776  0.0021
25263SOL     OW83028   3.617   9.159  11.866  0.3573  0.4047  0.0747
25263SOL    HW183029   3.666   9.136  11.787 -0.0773 -0.1043 -0.0525
25263SOL    HW283030   3.554   9.088  11.876 -1.7319  2.0051 -0.9151
25264SOL     OW83031   1.553   0.144   8.046  0.4773  0.3095  0.1060
25264SOL    HW183032   1.518   0.229   8.072 -0.9598 -0.2569  0.0691
25264SOL    HW283033   1.588   0.107   8.127 -0.6131  0.1324  0.5050
25265SOL     OW83034   6.464  12.189   2.180  0.3315  0.2393 -0.4993
25265SOL    HW183035   6.494  12.184   2.271 -2.9883 -1.4338  0.6892
25265SOL    HW283036   6.519  12.127   2.133  1.1514  0.0203  0.7113
25266SOL     OW83037  11.505   1.544   1.902  0.2619 -0.0477 -0.0360
25266SOL    HW183038  11.439   1.596   1.856 -1.4493 -2.0963 -0.0480
25266SOL    HW283039  11.584   1.551   1.847 -0.5473  0.7747 -1.1323
25267SOL     OW83040   1.842  12.335   3.086  0.5246  0.4242  0.0676
25267SOL    HW183041   1.908  12.293   3.141 -0.2568  1.7587  2.1438
25267SOL    HW283042   1.886  12.412   3.050  0.5755  0.4309  0.1435
25268SOL     OW83043   5.251   0.735   9.048  0.3796  0.3627 -0.3933
25268SOL    HW183044   5.325   0.717   9.105  0.0495 -0.5788 -0.2331
25268SOL    HW283045   5.289   0.776   8.970  0.9979  0.3548 -0.0995
25269SOL     OW83046  11.110   1.313   5.950 -0.2365 -0.0283 -0.3160
25269SOL    HW183047  11.202   1.311   5.976 -0.4693  1.8107  0.8375
25269SOL    HW283048  11.112   1.320   5.855  0.8723  1.2756 -0.2182
25270SOL     OW83049   7.864   2.785   1.323 -0.3330  0.6052  0.3724
25270SOL    HW183050   7.880   2.691   1.326  0.5730  0.7069 -0.7455
25270SOL    HW283051   7.778   2.793   1.282 -1.2414  0.2256  2.1131
25271SOL     OW83052   2.043   5.116   7.867 -0.3691 -0.4817  0.3886
25271SOL    HW183053   2.120   5.059   7.868  0.1601  0.1718 -1.0168
25271SOL    HW283054   2.036   5.148   7.957  3.2619  2.3607 -0.1451
25272SOL     OW83055   6.989   8.667   5.990  1.0719 -0.2221  0.7650
25272SOL    HW183056   7.073   8.709   5.972  0.7144  0.1118 -0.2000
25272SOL    HW283057   6.980   8.600   5.922  0.3323  0.0940  0.5397
25273SOL     OW83058   5.774   8.645   9.720 -0.0551  0.4872 -0.2242
25273SOL    HW183059   5.702   8.707   9.729 -0.6925 -0.2963  0.2196
25273SOL    HW283060   5.776   8.623   9.627  0.8189  1.9038 -0.5667
25274SOL     OW83061   2.512   1.042   5.454  0.4582  0.2451 -0.2730
25274SOL    HW183062   2.439   0.990   5.488  0.0221  1.4332  0.6798
25274SOL    HW283063   2.548   1.086   5.531  1.3289  0.7265 -0.9367
25275SOL     OW83064   7.468   8.953   6.728  0.0268  0.3196 -0.1816
25275SOL    HW183065   7.551   8.962   6.683 -1.5599  1.2336 -3.1752
25275SOL    HW283066   7.472   9.018   6.799  1.4150  1.1292 -0.9607
25276SOL     OW83067   8.755   3.734   3.445  0.3597 -0.3028  0.7263
25276SOL    HW183068   8.791   3.792   3.512 -0.4727  2.1705 -0.8444
25276SOL    HW283069   8.791   3.766   3.363  1.0649 -3.0233 -0.1408
25277SOL     OW83070   1.116  11.756   1.614 -0.2023  0.0741 -0.0870
25277SOL    HW183071   1.190  11.751   1.552  0.2438 -0.4952  0.4730
25277SOL    HW283072   1.065  11.831   1.584  0.5335  0.4015 -0.5683
25278SOL     OW83073  11.332  12.045  11.780  0.4441 -0.2687 -0.1147
25278SOL    HW183074  11.414  12.041  11.828  0.4094 -0.3536 -0.0613
25278SOL    HW283075  11.321  12.137  11.758  0.5354 -0.2528 -0.0924
25279SOL     OW83076   5.812   4.345  11.137  0.2632 -0.1816 -0.3693
25279SOL    HW183077   5.745   4.412  11.152  0.9300  0.4502 -0.1525
25279SOL    HW283078   5.791   4.276  11.200 -0.4084 -0.1649 -0.5671
25280SOL     OW83079   9.575   3.077   6.432 -0.2808 -0.0814  0.6308
25280SOL    HW183080   9.495   3.027   6.415  0.5149 -1.0382 -0.5527
25280SOL    HW283081   9.602   3.107   6.345  0.0407  1.2105  1.1579
25281SOL     OW83082  11.136   9.047   9.370 -0.1272  0.5810 -0.1665
25281SOL    HW183083  11.058   8.993   9.383  0.3208 -0.1251 -0.3444
25281SOL    HW283084  11.199   8.988   9.329  0.7832  0.9020  0.7252
25282SOL     OW83085   3.745  11.350   2.865  0.2852 -0.2963  0.1762
25282SOL    HW183086   3.699  11.430   2.893 -1.9058 -1.3044 -0.3089
25282SOL    HW283087   3.767  11.306   2.947 -0.4261 -0.2081  0.4225
25283SOL     OW83088   9.078   4.027   6.954 -0.0895 -0.7990  0.0398
25283SOL    HW183089   9.108   3.963   6.888 -1.1414 -0.3515 -0.9102
25283SOL    HW283090   9.122   4.108   6.930  0.0329 -0.7925  0.2881
25284SOL     OW83091   5.788   2.162   0.300 -0.2224  0.1243 -0.3174
25284SOL    HW183092   5.806   2.103   0.227  0.7444  0.0838 -0.0648
25284SOL    HW283093   5.791   2.106   0.378 -0.3406  0.3207 -0.1712
25285SOL     OW83094   9.680   8.917   6.547  0.2191 -0.2877 -0.1919
25285SOL    HW183095   9.661   9.011   6.539  0.4257 -0.3420 -1.4121
25285SOL    HW283096   9.618   8.875   6.488  1.1752 -0.7904 -0.8702
25286SOL     OW83097  11.512   1.094   9.662 -0.2594 -0.3981 -0.2201
25286SOL    HW183098  11.566   1.071   9.586  0.3763  0.3083 -0.0015
25286SOL    HW283099  11.448   1.157   9.627 -1.9386 -2.3053 -0.7968
25287SOL     OW83100   8.405  11.132   3.862 -0.0262 -0.7110  0.1770
25287SOL    HW183101   8.341  11.073   3.901  0.1189 -0.4598  0.8157
25287SOL    HW283102   8.447  11.175   3.937  1.2717 -1.2667 -0.1964
25288SOL     OW83103   2.356  10.600   9.908 -0.1163  0.8549 -0.0353
25288SOL    HW183104   2.429  10.539   9.907 -0.6631  0.0919  1.6590
25288SOL    HW283105   2.388  10.678   9.863  0.2219 -1.0159 -3.3532
25289SOL     OW83106   7.599   1.799   6.708  0.3558  0.4090 -0.1803
25289SOL    HW183107   7.692   1.796   6.732  0.2128  2.7739  0.9749
25289SOL    HW283108   7.595   1.756   6.623  2.3348 -0.6319  0.1849
25290SOL     OW83109  11.256   2.718   5.114 -0.2387  0.0228  0.2175
25290SOL    HW183110  11.187   2.747   5.055 -0.4930  0.3462  0.6701
25290SOL    HW283111  11.319   2.673   5.057 -1.4198 -1.3874 -0.0153
25291SOL     OW83112   3.986   9.420   8.858 -0.4041 -0.1523  0.0547
25291SOL    HW183113   4.064   9.381   8.897 -0.4435 -0.6851 -0.3892
25291SOL    HW283114   4.019   9.469   8.783 -0.3449  0.7619  0.6495
25292SOL     OW83115   5.975   3.246   6.336 -0.2029 -0.4381 -0.9926
25292SOL    HW183116   5.996   3.201   6.254  0.3519  0.6242 -1.4691
25292SOL    HW283117   5.926   3.182   6.388  0.5950 -1.5791 -1.6083
25293SOL     OW83118   2.996   3.156   6.049 -0.2028 -0.1080  0.1288
25293SOL    HW183119   3.072   3.141   6.105 -0.5645  0.7453  0.8891
25293SOL    HW283120   2.922   3.153   6.109 -0.7848 -0.9980 -0.6146
25294SOL     OW83121  10.349   2.453   7.602  0.1056  0.6736 -0.0948
25294SOL    HW183122  10.360   2.475   7.510 -1.7536 -0.3501 -0.6173
25294SOL    HW283123  10.355   2.536   7.648  0.6591  1.2522 -1.1818
25295SOL     OW83124   1.901   0.138   4.659 -0.5159  0.4480 -0.4991
25295SOL    HW183125   1.901   0.154   4.565  3.4599 -0.1610 -0.7776
25295SOL    HW283126   1.945   0.215   4.697 -0.2433 -0.2290  0.6164
25296SOL     OW83127   2.922   2.663   0.023 -0.6641 -0.2617  0.3519
25296SOL    HW183128   2.863   2.630  -0.045  3.3218 -0.9258 -3.1723
25296SOL    HW283129   2.911   2.758   0.019 -0.7678 -0.3106 -0.9798
25297SOL     OW83130   4.442   7.779   8.319 -0.3646 -0.3771  0.1608
25297SOL    HW183131   4.357   7.753   8.355  0.0856 -1.7513  0.2904
25297SOL    HW283132   4.468   7.706   8.263  0.2754  0.4746 -0.6810
25298SOL     OW83133   8.807   5.093   2.534  0.2992  0.1717  0.5307
25298SOL    HW183134   8.858   5.020   2.568 -0.5643  0.2235  2.0040
25298SOL    HW283135   8.802   5.155   2.607 -0.6374  0.8219 -0.0629
25299SOL     OW83136   3.518   6.431  10.860  0.0132 -0.2212 -0.0603
25299SOL    HW183137   3.501   6.346  10.900 -0.6281  0.0490  0.2537
25299SOL    HW283138   3.581   6.474  10.917  1.2979 -0.9626 -0.8719
25300SOL     OW83139  10.716   8.753   8.331  0.6811 -0.1929 -0.3245
25300SOL    HW183140  10.656   8.689   8.369  0.9699  0.7183  1.7931
25300SOL    HW283141  10.746   8.806   8.405  0.4079  2.4590 -1.9556
25301SOL     OW83142   7.488   4.987   2.236 -0.4599 -0.5564  0.4662
25301SOL    HW183143   7.493   5.075   2.275 -2.5796  0.1854 -0.7393
25301SOL    HW283144   7.555   4.987   2.168 -0.0145 -0.1042  0.8966
25302SOL     OW83145   2.149   9.017   6.484  0.5886  0.0501 -0.1188
25302SOL    HW183146   2.143   8.978   6.571  0.1225 -1.3819 -0.7627
25302SOL    HW283147   2.070   9.071   6.476  0.7748  0.4127  0.4299
25303SOL     OW83148   6.030   9.653   8.279  0.2131 -0.3020  0.1403
25303SOL    HW183149   5.999   9.595   8.348 -0.1309  0.2652  0.4738
25303SOL    HW283150   5.995   9.616   8.198  0.0741 -0.6070  0.3392
25304SOL     OW83151   2.898   0.813   3.436  0.0815  0.8742  0.4108
25304SOL    HW183152   2.832   0.833   3.503 -0.8259  0.8800 -0.4608
25304SOL    HW283153   2.982   0.820   3.482 -0.4291  2.3951  1.2025
25305SOL     OW83154   1.451   1.448   4.875 -0.5975 -0.4418  0.0606
25305SOL    HW183155   1.504   1.368   4.877 -0.9942 -0.7520  3.1222
25305SOL    HW283156   1.363   1.418   4.897 -1.2006  0.6018 -0.8343
25306SOL     OW83157   2.666   5.433   0.893  0.0188 -0.3247  0.6703
25306SOL    HW183158   2.680   5.435   0.988 -1.7471 -3.0790  1.0759
25306SOL    HW283159   2.656   5.525   0.869 -0.1564  0.4097  3.2530
25307SOL     OW83160   7.226   3.870   1.730  0.5149  0.1103  0.2550
25307SOL    HW183161   7.141   3.888   1.690 -0.2554 -0.5387  1.5359
25307SOL    HW283162   7.282   3.842   1.657  0.3804  2.8286 -1.0136
25308SOL     OW83163   4.549   7.127  10.195  0.7273  0.0320 -0.0787
25308SOL    HW183164   4.478   7.188  10.177 -0.1086  0.1307  2.9407
25308SOL    HW283165   4.628   7.181  10.194  0.2951  0.6816  0.1821
25309SOL     OW83166   5.574   0.474   3.198 -0.1157  0.4308  0.1656
25309SOL    HW183167   5.638   0.446   3.133  0.0904 -0.7399  0.8268
25309SOL    HW283168   5.626   0.493   3.276 -0.5181 -0.0816  0.5668
25310SOL     OW83169  12.706   7.896  11.943 -0.2162 -0.0836  0.3716
25310SOL    HW183170  12.784   7.916  11.891 -0.0962 -0.8070  0.2639
25310SOL    HW283171  12.734   7.826  12.002 -0.6750 -0.0682  0.6123
25311SOL     OW83172   9.441  11.496   7.547  0.1615 -0.3908  0.2566
25311SOL    HW183173   9.358  11.543   7.551  1.1121  1.3974  0.1800
25311SOL    HW283174   9.423  11.419   7.494 -0.8372  1.3347 -2.0548
25312SOL     OW83175   5.012   8.891  10.468  0.2164 -0.3727  0.1043
25312SOL    HW183176   5.011   8.796  10.474  2.7584 -0.5394 -0.9391
25312SOL    HW283177   5.051   8.909  10.382  0.8430  1.6009  0.7495
25313SOL     OW83178   4.282  11.519  12.283 -0.1512  0.2927  1.3861
25313SOL    HW183179   4.347  11.584  12.258  1.1080 -1.3264  0.2039
25313SOL    HW283180   4.313  11.485  12.367 -0.1430  0.3689  1.4137
25314SOL     OW83181   9.825   2.222  12.401 -0.3235  0.1408 -0.5790
25314SOL    HW183182   9.803   2.177  12.482 -1.6548 -0.0412 -1.0170
25314SOL    HW283183   9.761   2.293  12.395  0.7905  1.1564 -0.6599
25315SOL     OW83184   0.076   7.053   0.311  0.0335 -0.3538  0.8517
25315SOL    HW183185   0.042   7.142   0.322  0.1474  0.0537 -1.4933
25315SOL    HW283186   0.124   7.035   0.392  2.9606  3.0943  0.1025
25316SOL     OW83187   1.186   9.617   4.678 -0.6998 -0.5857 -0.4954
25316SOL    HW183188   1.143   9.637   4.595  2.3285  0.2016 -2.0243
25316SOL    HW283189   1.257   9.557   4.654  1.0488  0.6459  1.2610
25317SOL     OW83190   9.359  11.845   7.188  0.1040 -0.0459  0.4061
25317SOL    HW183191   9.452  11.845   7.207 -0.2221 -1.6394  2.4499
25317SOL    HW283192   9.348  11.906   7.115  2.3894  2.1480  1.7514
25318SOL     OW83193   4.215   5.388   8.334  0.1762 -0.6327  0.3199
25318SOL    HW183194   4.211   5.484   8.341  0.9721 -0.6199  0.6551
25318SOL    HW283195   4.229   5.372   8.240 -0.3796 -0.4452  0.1988
25319SOL     OW83196   5.480   7.974   2.425 -0.2751 -0.4847  0.3156
25319SOL    HW183197   5.535   7.957   2.348  0.7602 -1.8170  1.2974
25319SOL    HW283198   5.394   7.941   2.401  0.3120 -1.9383  0.0931
25320SOL     OW83199   8.171   3.110   5.281  0.3825  0.0655 -0.4203
25320SOL    HW183200   8.241   3.053   5.250 -0.2447 -1.1673  0.3519
25320SOL    HW283201   8.202   3.143   5.365  0.0170 -0.5599 -0.0308
25321SOL     OW83202   3.233   1.577   1.841 -0.2057 -0.0011 -0.1932
25321SOL    HW183203   3.258   1.632   1.916 -1.3834  0.9981 -0.5107
25321SOL    HW283204   3.310   1.522   1.825 -0.0947 -0.6096  2.0575
25322SOL     OW83205   1.607   7.875   6.882  0.2076  0.5002 -0.0578
25322SOL    HW183206   1.514   7.887   6.897  0.6767  0.5462  3.7536
25322SOL    HW283207   1.621   7.780   6.889  0.6842  0.6665  1.9474
25323SOL     OW83208   1.557   1.976   9.385  0.3646  0.3656 -0.9738
25323SOL    HW183209   1.586   1.899   9.433 -0.7911  0.9219  0.6814
25323SOL    HW283210   1.596   2.050   9.431 -3.0774  1.1180  1.1019
25324SOL     OW83211   7.004  12.234   0.187  0.1062  0.2147 -0.1699
25324SOL    HW183212   6.917  12.263   0.159  0.3521 -0.1608 -1.3965
25324SOL    HW283213   6.987  12.176   0.261 -0.7981 -0.7993 -1.1292
25325SOL     OW83214   9.589   2.412   9.222  0.3859  0.6562  0.4729
25325SOL    HW183215   9.608   2.395   9.314  0.4099  1.5579  0.6436
25325SOL    HW283216   9.505   2.457   9.223 -0.8585 -1.5113 -0.1394
25326SOL     OW83217  11.683   9.451   4.618  0.2766 -0.2545  0.0671
25326SOL    HW183218  11.775   9.473   4.631  0.1283  2.0172 -1.9570
25326SOL    HW283219  11.637   9.507   4.680  0.1993 -0.7670  0.4808
25327SOL     OW83220   3.901   4.986   4.712 -0.1273 -0.2028 -0.2076
25327SOL    HW183221   3.842   4.910   4.710  0.5667 -0.7399 -0.7447
25327SOL    HW283222   3.859   5.051   4.657 -1.4677  0.3874  1.4134
25328SOL     OW83223  10.952   4.569   3.078 -0.1372  0.3181 -0.0740
25328SOL    HW183224  10.873   4.623   3.071  0.6991  1.5109 -0.5871
25328SOL    HW283225  11.022   4.623   3.041  1.2325 -0.1158  1.7552
25329SOL     OW83226   4.874   0.724   1.196 -0.4401  0.0355 -0.4058
25329SOL    HW183227   4.895   0.772   1.276 -2.6056 -0.0045  0.2484
25329SOL    HW283228   4.803   0.775   1.156 -2.0395 -1.9795 -0.2616
25330SOL     OW83229   2.870  10.935   6.345  1.0135 -0.1454 -0.2740
25330SOL    HW183230   2.798  10.919   6.406  0.4676  1.2269 -0.5290
25330SOL    HW283231   2.847  11.017   6.302  2.1512 -0.3032 -1.2270
25331SOL     OW83232   6.907   2.871  12.158 -0.1445 -0.6928 -0.0534
25331SOL    HW183233   6.888   2.778  12.169  1.8789 -0.9717  1.6261
25331SOL    HW283234   6.864   2.913  12.232 -0.5177 -0.3531 -0.4572
25332SOL     OW83235   2.768   6.327   8.900  0.1792  0.0407 -0.0443
25332SOL    HW183236   2.702   6.360   8.838 -1.6659 -2.3482  0.4992
25332SOL    HW283237   2.746   6.368   8.983  0.1593  0.2227 -0.1396
25333SOL     OW83238   2.760   7.059   1.014  0.0818  0.0124  0.9482
25333SOL    HW183239   2.738   6.973   1.051 -2.0223 -0.2601 -0.7192
25333SOL    HW283240   2.817   7.039   0.940 -1.0572 -0.0552  0.0678
25334SOL     OW83241   0.156  10.696  12.404 -0.4613  0.3897  0.0424
25334SOL    HW183242   0.113  10.775  12.371 -0.4171  0.0983 -0.7333
25334SOL    HW283243   0.097  10.663  12.472  0.9686  2.7718  2.6722
25335SOL     OW83244   9.537   9.681   8.097  0.4161 -0.1329  0.3209
25335SOL    HW183245   9.447   9.710   8.082  0.3786 -0.7234 -0.6702
25335SOL    HW283246   9.575   9.748   8.154 -0.3636  0.6200 -0.0324
25336SOL     OW83247   9.196   6.526   5.200  0.6612 -0.0454 -0.3205
25336SOL    HW183248   9.275   6.577   5.218  0.3188  1.1355 -1.9203
25336SOL    HW283249   9.213   6.440   5.239  2.3238  0.4850  0.1961
25337SOL     OW83250   6.629  10.624  10.838 -0.2219 -0.1702  0.4556
25337SOL    HW183251   6.590  10.600  10.754 -0.4276 -0.9691  0.7771
25337SOL    HW283252   6.684  10.700  10.817  0.7942 -1.1803 -0.6588
25338SOL     OW83253   1.274  10.762   6.952  0.2706 -0.0220  0.2238
25338SOL    HW183254   1.342  10.715   6.903  0.8725  0.6445  0.4095
25338SOL    HW283255   1.208  10.784   6.886  1.4442  1.5615 -0.4777
25339SOL     OW83256   9.058   3.220  11.721 -0.0317  0.3886 -0.0985
25339SOL    HW183257   8.974   3.255  11.752 -0.4516  0.3992 -1.2036
25339SOL    HW283258   9.035   3.138  11.678  0.9066 -1.1779  2.1781
25340SOL     OW83259   3.990   2.898   3.764  0.9534 -0.0112 -0.5346
25340SOL    HW183260   4.026   2.939   3.685  1.3798 -2.0580 -1.4594
25340SOL    HW283261   4.008   2.805   3.753  0.4894 -0.4147  1.7316
25341SOL     OW83262  11.094   6.508   5.721 -0.1578 -0.0879 -0.2654
25341SOL    HW183263  11.127   6.426   5.683 -2.1936 -1.4281  0.6560
25341SOL    HW283264  11.030   6.539   5.657 -2.2490 -1.3745  1.0855
25342SOL     OW83265  10.031   5.768   1.893  0.1236 -0.2944  0.1296
25342SOL    HW183266  10.090   5.722   1.833 -0.6294  1.9269 -2.5077
25342SOL    HW283267  10.058   5.859   1.888  0.1046  0.0220  3.4215
25343SOL     OW83268   9.340  10.624   3.286  0.1605 -0.0037 -0.0120
25343SOL    HW183269   9.344  10.593   3.376 -0.4711 -1.4348 -0.4540
25343SOL    HW283270   9.292  10.707   3.292 -1.1694 -0.7980  0.8034
25344SOL     OW83271   7.250   8.295   8.104 -0.0720 -0.1266  0.2884
25344SOL    HW183272   7.243   8.201   8.122 -1.2806 -0.2097 -0.4610
25344SOL    HW283273   7.164   8.318   8.069  0.7865  0.8861 -1.2337
25345SOL     OW83274  12.379   1.755   3.098 -0.4529  0.3612  0.8971
25345SOL    HW183275  12.416   1.809   3.168  3.1655 -0.3907 -0.1986
25345SOL    HW283276  12.437   1.770   3.023 -0.7585 -3.0626 -0.1922
25346SOL     OW83277   6.358  11.613   0.192 -0.1825 -0.3094  0.5723
25346SOL    HW183278   6.444  11.574   0.206  0.3186  0.4997 -0.1475
25346SOL    HW283279   6.366  11.659   0.108 -1.0417  0.4903  0.9117
25347SOL     OW83280   9.928  10.874  11.823  0.1574 -0.3285  0.1927
25347SOL    HW183281   9.948  10.928  11.747 -1.4915 -1.4847 -1.1584
25347SOL    HW283282   9.958  10.926  11.898 -0.3078  1.9427 -1.0813
25348SOL     OW83283   9.622  10.122   8.265 -0.4192  0.3230  0.8929
25348SOL    HW183284   9.616  10.042   8.317  0.4559 -0.2242  0.1969
25348SOL    HW283285   9.624  10.091   8.174 -2.2538  1.2691  0.4798
25349SOL     OW83286   1.661   8.166   1.800  0.5986  0.4940 -0.0543
25349SOL    HW183287   1.623   8.078   1.802  0.7928  0.3626 -1.2155
25349SOL    HW283288   1.661   8.195   1.891 -0.4616 -0.2859  0.2162
25350SOL     OW83289   3.268  10.890   4.646 -0.1030 -0.2718 -0.2913
25350SOL    HW183290   3.202  10.925   4.586 -0.8833 -1.3745 -0.1161
25350SOL    HW283291   3.326  10.964   4.665 -1.2479  0.7068 -0.5023
25351SOL     OW83292   3.442  11.016   2.090 -0.1596 -0.0470 -0.3771
25351SOL    HW183293   3.382  10.942   2.086  1.2168 -1.2068 -0.5895
25351SOL    HW283294   3.514  10.985   2.145  1.0762  0.6429 -1.5470
25352SOL     OW83295   3.816   6.074   7.950  0.4187 -0.2274  0.1280
25352SOL    HW183296   3.904   6.111   7.947  1.0948 -1.7415  0.4314
25352SOL    HW283297   3.805   6.047   8.041 -0.8111  0.9327  0.3572
25353SOL     OW83298   2.122   6.245   3.547  0.2289  0.0643  0.8269
25353SOL    HW183299   2.099   6.314   3.484  0.7843 -0.8092 -0.3694
25353SOL    HW283300   2.114   6.288   3.633 -0.6566  1.2503  0.1857
25354SOL     OW83301  10.275   6.449   4.645  0.0660 -0.3147  0.6365
25354SOL    HW183302  10.196   6.501   4.634  0.2534 -0.2911 -0.7614
25354SOL    HW283303  10.315   6.483   4.725 -0.5412  0.7355  0.5112
25355SOL     OW83304   0.176   0.448   4.135  0.2295  0.2455 -0.1406
25355SOL    HW183305   0.120   0.428   4.060  1.5377 -1.4710 -0.7274
25355SOL    HW283306   0.132   0.520   4.179 -1.8824 -0.3603 -1.1401
25356SOL     OW83307   7.970   2.207   8.791 -0.4213  0.3857 -0.0856
25356SOL    HW183308   7.919   2.283   8.764  0.3410  1.5249  1.5092
25356SOL    HW283309   7.917   2.166   8.860  0.0605  0.6532  0.4557
25357SOL     OW83310   4.676   7.402   0.188  0.3158  0.7774  0.2774
25357SOL    HW183311   4.677   7.477   0.247 -1.1381  0.1062  1.2158
25357SOL    HW283312   4.715   7.331   0.239 -1.0382  0.1667  0.5172
25358SOL     OW83313  11.865  11.266  11.311 -0.7687 -0.4611 -0.5065
25358SOL    HW183314  11.928  11.333  11.338 -0.1945 -1.5047  0.8367
25358SOL    HW283315  11.892  11.242  11.223  0.2396 -0.3263 -0.2437
25359SOL     OW83316   9.290   0.706   3.349  0.0314 -0.1056 -0.1537
25359SOL    HW183317   9.310   0.694   3.256  1.7926  1.2416 -0.0063
25359SOL    HW283318   9.263   0.619   3.380  1.7219 -1.1259 -1.3986
25360SOL     OW83319   7.013   0.428   4.977  0.2371  0.0186 -0.7048
25360SOL    HW183320   6.991   0.464   5.063 -1.8204 -0.7035 -0.8827
25360SOL    HW283321   7.091   0.376   4.992  1.5041  2.0343  0.1599
25361SOL     OW83322   2.383   7.200   3.863  0.1300  0.0067  0.3791
25361SOL    HW183323   2.320   7.132   3.838  0.2461  0.4142 -1.1285
25361SOL    HW283324   2.332   7.264   3.913 -0.2923 -0.4651  0.5528
25362SOL     OW83325   1.144   4.408   3.588 -0.2252  0.6431  0.3926
25362SOL    HW183326   1.100   4.491   3.570 -0.9028  0.3084  0.4771
25362SOL    HW283327   1.096   4.344   3.536 -0.3106  0.1495  1.0668
25363SOL     OW83328  10.692   3.809   6.718  0.3127  0.0761  0.1705
25363SOL    HW183329  10.727   3.750   6.651 -1.7174 -2.2594  1.0069
25363SOL    HW283330  10.748   3.794   6.795 -0.3952 -1.0460  0.4791
25364SOL     OW83331  10.844   3.550   8.424 -0.1361 -0.5391 -0.4300
25364SOL    HW183332  10.920   3.543   8.366 -0.3656  0.2909 -0.8523
25364SOL    HW283333  10.782   3.485   8.391 -0.1661 -0.2383 -0.9722
25365SOL     OW83334   9.432   3.974   4.358 -0.2612 -0.2856  0.2304
25365SOL    HW183335   9.388   4.057   4.376  1.7754  0.5897  1.6294
25365SOL    HW283336   9.519   3.999   4.327  0.2893 -1.8837  0.3529
25366SOL     OW83337  10.184   0.641  10.654 -0.0789 -0.9213  0.2463
25366SOL    HW183338  10.262   0.661  10.705  0.8212 -2.3469 -0.5193
25366SOL    HW283339  10.114   0.632  10.719  0.4073  0.2436  0.9429
25367SOL     OW83340   3.466   6.919   1.297  0.3671 -0.1973  0.2349
25367SOL    HW183341   3.516   6.838   1.308 -0.6752 -1.0433 -0.9904
25367SOL    HW283342   3.384   6.903   1.343 -0.3137 -0.3080 -0.9742
25368SOL     OW83343  12.371   5.495   7.571 -0.0399  0.2933 -0.2452
25368SOL    HW183344  12.326   5.556   7.513 -0.6490  0.9262  0.8702
25368SOL    HW283345  12.464   5.513   7.557 -0.1964  0.8887 -0.5427
25369SOL     OW83346   7.342   5.284   3.684 -0.6853 -0.2617 -0.9648
25369SOL    HW183347   7.385   5.347   3.627 -1.1445  0.3790 -0.6195
25369SOL    HW283348   7.274   5.334   3.728  0.5868 -0.3313  1.2751
25370SOL     OW83349  12.461   1.378   5.860  0.0027  0.2887  0.0601
25370SOL    HW183350  12.447   1.464   5.899  0.4881 -0.3898  1.7851
25370SOL    HW283351  12.491   1.397   5.771 -2.6735  1.8694 -0.6322
25371SOL     OW83352   2.157   6.893  10.842 -0.1689 -0.1033 -0.3638
25371SOL    HW183353   2.217   6.823  10.814 -0.3792 -0.2934 -0.3365
25371SOL    HW283354   2.204   6.938  10.912  0.2653  0.2296 -0.8584
25372SOL     OW83355   7.394   8.379  12.306 -0.0930 -0.1930 -0.1017
25372SOL    HW183356   7.298   8.374  12.302 -0.0783 -0.0914 -0.5877
25372SOL    HW283357   7.423   8.365  12.216  0.4687 -2.4603  0.3837
25373SOL     OW83358   8.049  11.306   2.468  0.3161  0.6339  0.0180
25373SOL    HW183359   8.106  11.296   2.391  0.4680  0.6719  0.1255
25373SOL    HW283360   7.961  11.313   2.431  0.2822 -0.2707 -0.1136
25374SOL     OW83361   9.249   9.955  10.304  0.4967 -0.1021 -0.0785
25374SOL    HW183362   9.157   9.944  10.282  0.4487  1.6005 -0.8934
25374SOL    HW283363   9.257   9.922  10.393 -0.8991 -0.2768 -0.0012
25375SOL     OW83364   3.763   3.722   1.941 -0.1188  0.0111  0.9360
25375SOL    HW183365   3.743   3.638   1.899  0.3900  0.7854 -0.9461
25375SOL    HW283366   3.677   3.756   1.966 -0.3428 -0.9950  1.5924
25376SOL     OW83367   1.473  11.526  11.882  0.8222 -0.0522 -0.7796
25376SOL    HW183368   1.411  11.475  11.829 -1.7305  1.6708  0.3615
25376SOL    HW283369   1.449  11.507  11.972  3.9389 -1.5400 -0.0996
25377SOL     OW83370   8.327   3.482  10.335 -0.0703  0.0499  0.5744
25377SOL    HW183371   8.413   3.492  10.375  0.6129 -1.4821 -0.4094
25377SOL    HW283372   8.327   3.393  10.301 -0.5240  1.2750 -2.9730
25378SOL     OW83373   4.383   3.092   6.182 -0.7242  0.1467 -0.0177
25378SOL    HW183374   4.367   3.036   6.259  0.9862 -2.6224 -1.5071
25378SOL    HW283375   4.476   3.113   6.188 -0.7292  0.4529 -0.9844
25379SOL     OW83376   5.268  12.320   2.154  0.4221  0.6878 -0.2895
25379SOL    HW183377   5.258  12.372   2.074  1.0753  1.2589 -0.0150
25379SOL    HW283378   5.182  12.281   2.168  0.3832  0.3181 -1.4437
25380SOL     OW83379   2.206   2.168  12.341  0.0089  0.6730  0.2250
25380SOL    HW183380   2.262   2.126  12.277  1.3732 -0.6219  2.1601
25380SOL    HW283381   2.220   2.119  12.422 -1.1643  2.5872  1.6954
25381SOL     OW83382   3.710   6.660   3.270  0.2996 -0.2053  0.3665
25381SOL    HW183383   3.759   6.728   3.315 -1.3003  0.8393  0.6116
25381SOL    HW283384   3.681   6.702   3.188 -0.9684 -0.4613  0.6636
25382SOL     OW83385   7.746   2.046  10.735 -0.7686 -0.7737 -0.4593
25382SOL    HW183386   7.778   2.105  10.667 -0.4271  0.3075  0.6025
25382SOL    HW283387   7.703   2.104  10.799  1.1350 -1.4005  1.5252
25383SOL     OW83388   3.032  12.268  12.648  0.2641  0.9779 -0.0091
25383SOL    HW183389   3.073  12.259  12.562  1.1487 -0.3949  0.5290
25383SOL    HW283390   2.939  12.284  12.629  0.4406  0.6322 -1.2110
25384SOL     OW83391   0.342  10.211   6.789 -0.0725 -0.4118  0.5985
25384SOL    HW183392   0.390  10.151   6.731 -0.3458 -0.3062  0.2598
25384SOL    HW283393   0.260  10.228   6.742  0.2133  0.6202  0.4636
25385SOL     OW83394  11.224   7.040   0.873  0.1870  0.0807 -0.6171
25385SOL    HW183395  11.302   7.094   0.882 -0.8149  1.4108  0.5106
25385SOL    HW283396  11.246   6.957   0.915  0.3573  1.1440  1.4703
25386SOL     OW83397   7.269   9.740   1.980  0.0988 -0.3500  0.5158
25386SOL    HW183398   7.199   9.724   2.043  1.4565 -1.5228  1.8028
25386SOL    HW283399   7.349   9.721   2.028  1.4475  2.2802 -0.4688
25387SOL     OW83400   3.074  11.050   7.995 -0.0310  0.2269 -0.1529
25387SOL    HW183401   3.156  11.098   8.007 -0.2820  0.7827 -0.6225
25387SOL    HW283402   3.100  10.967   7.955  0.2656  0.5530 -0.6421
25388SOL     OW83403   7.444   0.345  11.386  0.4130 -0.3130  0.2891
25388SOL    HW183404   7.478   0.272  11.438  1.1417  0.4979  0.9761
25388SOL    HW283405   7.492   0.422  11.417  0.3683  0.3125 -1.1103
25389SOL     OW83406   1.765  11.839   0.235 -0.2203 -0.2950 -0.5406
25389SOL    HW183407   1.806  11.772   0.180 -1.3938 -0.7844 -0.8469
25389SOL    HW283408   1.804  11.921   0.205 -0.4173 -0.6127 -1.7237
25390SOL     OW83409   2.905   9.363   2.875  0.4540 -0.5542 -0.1902
25390SOL    HW183410   2.880   9.440   2.825  2.6633  0.0549 -0.4170
25390SOL    HW283411   2.822   9.316   2.888 -0.6071  0.6972 -1.9520
25391SOL     OW83412   5.561   4.185   9.713 -0.0228 -0.0387  0.2698
25391SOL    HW183413   5.581   4.274   9.740 -1.4798  0.1592  0.7931
25391SOL    HW283414   5.519   4.194   9.628  3.5145 -0.5791 -1.6951
25392SOL     OW83415   8.585   1.023   3.995  0.4664 -0.6702 -0.4365
25392SOL    HW183416   8.591   0.945   4.050  2.3555  0.2922  0.8053
25392SOL    HW283417   8.653   1.012   3.930  0.6871 -0.1087 -0.3062
25393SOL     OW83418   8.539   0.368   0.558 -0.2111  0.0678  0.5612
25393SOL    HW183419   8.542   0.444   0.616  0.0958  0.1437  0.4509
25393SOL    HW283420   8.588   0.396   0.480 -0.4996 -0.0818  0.3267
25394SOL     OW83421   4.215  11.012  12.476  0.2143  0.1599 -0.5804
25394SOL    HW183422   4.169  11.091  12.504 -0.3995 -0.8067  1.3923
25394SOL    HW283423   4.305  11.024  12.506  0.5630  0.8325 -1.8582
25395SOL     OW83424   8.164   8.175   8.290 -0.1510  0.0130  0.1640
25395SOL    HW183425   8.154   8.112   8.362 -2.0482  0.0647 -0.0010
25395SOL    HW283426   8.221   8.243   8.326 -1.6892  0.4482  1.9318
25396SOL     OW83427  10.530   8.680   9.507 -0.0620  0.0444  0.2604
25396SOL    HW183428  10.438   8.669   9.530 -0.1007  0.3183  0.2459
25396SOL    HW283429  10.532   8.760   9.453  0.4956  1.4310  2.2239
25397SOL     OW83430   6.922  11.979   8.207  0.0351 -0.1801 -0.5188
25397SOL    HW183431   6.866  12.055   8.216 -0.4411 -0.6593  0.7139
25397SOL    HW283432   6.971  11.974   8.289 -0.5638 -1.6760 -0.2157
25398SOL     OW83433  11.244   3.372   5.468 -0.3051  0.4159  0.3507
25398SOL    HW183434  11.256   3.450   5.521 -0.2710  1.4594 -1.1307
25398SOL    HW283435  11.260   3.299   5.528  0.7496  1.5507  1.5015
25399SOL     OW83436   5.663   5.303  12.499  0.0742  0.5180  0.0982
25399SOL    HW183437   5.703   5.366  12.439 -1.4307  2.2296  0.8257
25399SOL    HW283438   5.592   5.264  12.448  0.4203  0.0548 -0.0435
25400SOL     OW83439  10.050   1.936  11.311 -0.3612  0.0608  0.6458
25400SOL    HW183440  10.136   1.895  11.301 -0.2864 -0.1618  1.9883
25400SOL    HW283441  10.069   2.028  11.330 -0.4142  0.0503  0.7538
25401SOL     OW83442   1.540   4.906   2.244  0.3560 -0.3351 -0.0488
25401SOL    HW183443   1.548   4.812   2.228  0.4165 -0.0228 -2.0365
25401SOL    HW283444   1.452   4.928   2.214  0.0652  0.1480  1.0924
25402SOL     OW83445   8.854   4.715  12.669 -0.4776  0.3424 -0.3062
25402SOL    HW183446   8.874   4.716  12.763 -1.3117 -1.7184 -0.0414
25402SOL    HW283447   8.792   4.788  12.657 -0.7446  0.3299  0.8550
25403SOL     OW83448  12.438   6.464   7.617  0.1510  0.4166  0.6283
25403SOL    HW183449  12.521   6.452   7.662 -0.0845 -1.9314  0.5474
25403SOL    HW283450  12.406   6.375   7.601 -1.6050  1.2368 -0.7718
25404SOL     OW83451   3.570   6.909   7.654  0.5406 -0.2730 -0.5642
25404SOL    HW183452   3.612   6.824   7.666  1.9489  0.5879  0.9455
25404SOL    HW283453   3.522   6.901   7.572 -0.5209 -2.9841  0.2179
25405SOL     OW83454   0.885   1.868   9.259 -0.6124 -0.8921 -0.3768
25405SOL    HW183455   0.846   1.780   9.267 -2.6150 -0.0872 -0.5816
25405SOL    HW283456   0.940   1.863   9.182  0.8578 -2.4705  0.6928
25406SOL     OW83457   8.874   7.489   8.052  0.1145  0.6119  0.2699
25406SOL    HW183458   8.884   7.581   8.027 -2.8545  1.1156  0.6033
25406SOL    HW283459   8.841   7.446   7.972 -0.1643  0.1991  0.6034
25407SOL     OW83460   0.529   1.478   3.825  0.2164  0.5171  0.0996
25407SOL    HW183461   0.609   1.430   3.847  0.2230  0.7440  0.5732
25407SOL    HW283462   0.540   1.502   3.733  0.4517  0.0777  0.0085
25408SOL     OW83463   0.191   6.777  11.133 -0.3524  0.0184  0.2726
25408SOL    HW183464   0.255   6.785  11.203  0.4635 -0.4876 -0.3923
25408SOL    HW283465   0.120   6.725  11.170  0.1993 -0.4784  0.6388
25409SOL     OW83466   3.887   3.107   1.800  0.0229  0.1217  0.6652
25409SOL    HW183467   3.930   3.029   1.766  0.9581 -0.1265  2.2991
25409SOL    HW283468   3.846   3.148   1.724 -2.9658 -3.4185  0.1048
25410SOL     OW83469   7.137   4.178   1.358  0.0319 -0.0268  0.1453
25410SOL    HW183470   7.224   4.218   1.351  0.1944 -0.4985 -0.6735
25410SOL    HW283471   7.128   4.126   1.278 -0.0650 -1.8477  1.3049
25411SOL     OW83472   0.981   6.785   2.559  0.2600 -0.2325  0.0666
25411SOL    HW183473   0.948   6.709   2.511  1.4603 -1.3423  0.9447
25411SOL    HW283474   1.076   6.776   2.556  0.4063  1.0584  0.4762
25412SOL     OW83475   3.222   2.295   8.993 -0.3599 -0.5085 -0.1136
25412SOL    HW183476   3.284   2.251   8.934 -1.6413 -1.7860 -0.5812
25412SOL    HW283477   3.213   2.235   9.067 -1.8131 -0.8776 -0.5564
25413SOL     OW83478  10.604  12.234  11.547  0.0690 -0.1492 -0.4460
25413SOL    HW183479  10.573  12.169  11.610  1.2824  1.1730  1.6110
25413SOL    HW283480  10.681  12.194  11.507 -1.2716 -1.4051 -1.9435
25414SOL     OW83481  10.593  11.368  12.671 -0.3489  0.3889 -0.3605
25414SOL    HW183482  10.672  11.412  12.705 -0.1740 -0.9928  1.1491
25414SOL    HW283483  10.521  11.413  12.714 -0.1535 -0.9263  1.4696
25415SOL     OW83484  11.617   5.512  10.547  0.0898 -0.5158  0.0408
25415SOL    HW183485  11.672   5.589  10.556 -0.3473 -0.4049  2.2079
25415SOL    HW283486  11.554   5.535  10.478  0.2501  0.8808  0.3423
25416SOL     OW83487   1.355   2.649   7.514  0.1369 -0.9443 -0.4447
25416SOL    HW183488   1.384   2.584   7.578 -0.3189 -0.2380  0.5030
25416SOL    HW283489   1.365   2.606   7.430 -0.4331 -2.3402  0.1842
25417SOL     OW83490   2.855  10.763   5.185  0.2284 -0.3019 -0.2594
25417SOL    HW183491   2.903  10.704   5.128 -0.4661 -0.1368 -1.0234
25417SOL    HW283492   2.909  10.767   5.265  1.7080  0.2071 -1.2321
25418SOL     OW83493   6.802   1.018   3.430 -0.0281 -0.1790 -0.5721
25418SOL    HW183494   6.796   0.933   3.386 -1.0585 -1.5310  1.9629
25418SOL    HW283495   6.711   1.045   3.443  0.2405  0.2690  0.4847
25419SOL     OW83496   7.573   5.033   6.033  0.3634  0.2140  0.4179
25419SOL    HW183497   7.666   5.054   6.042  0.0103  1.8039  0.5494
25419SOL    HW283498   7.553   5.050   5.941  0.3210 -0.6999  0.2469
25420SOL     OW83499   5.134  12.467   0.057  0.1709 -0.6507  0.2328
25420SOL    HW183500   5.065  12.501  -0.000  1.6090 -0.9999 -1.8354
25420SOL    HW283501   5.092  12.457   0.142 -1.8751  0.6534 -0.5408
25421SOL     OW83502  11.397   5.014   8.746 -0.4627  0.2326  0.4225
25421SOL    HW183503  11.304   5.032   8.731  0.0906  0.6081 -3.6543
25421SOL    HW283504  11.401   4.921   8.769 -1.8772  0.4632  1.7151
25422SOL     OW83505  11.549   2.582  10.626  0.3524  0.8352  0.1578
25422SOL    HW183506  11.463   2.568  10.665  0.3739  0.5485  0.0989
25422SOL    HW283507  11.535   2.574  10.532  1.0201 -2.5208  0.2258
25423SOL     OW83508  10.043   7.664   8.443  0.3188 -0.2390 -0.7677
25423SOL    HW183509  10.002   7.696   8.523  1.1977 -1.2512  0.1247
25423SOL    HW283510  10.137   7.676   8.457  0.6671 -2.5938 -0.5926
25424SOL     OW83511   5.394   4.748   0.515  0.7142 -0.3799  0.7207
25424SOL    HW183512   5.313   4.698   0.513  0.0409  0.6629  0.7623
25424SOL    HW283513   5.460   4.686   0.544 -0.5683 -0.6269  3.4443
25425SOL     OW83514   8.138   0.628   9.876  0.1320  0.2035  0.4255
25425SOL    HW183515   8.198   0.670   9.815  1.0506 -0.3696  0.8976
25425SOL    HW283516   8.058   0.612   9.825  1.3269 -1.4672 -1.0584
25426SOL     OW83517   9.908  12.451  11.964 -0.0319 -0.2000  0.5524
25426SOL    HW183518   9.936  12.393  11.893 -0.6618 -0.2542  0.3476
25426SOL    HW283519   9.976  12.518  11.968  0.1114 -0.3100  0.0353
25427SOL     OW83520   2.235   8.690   1.189 -0.2967  0.5371  0.0087
25427SOL    HW183521   2.296   8.758   1.216  0.8495 -0.2047 -0.6558
25427SOL    HW283522   2.268   8.659   1.104 -0.4725 -1.2041  0.5263
25428SOL     OW83523   3.280  11.736   6.223  0.3735 -0.3955  0.1083
25428SOL    HW183524   3.211  11.797   6.249  0.3629 -0.1810 -0.4052
25428SOL    HW283525   3.233  11.656   6.199  0.1686  0.1519 -1.4612
25429SOL     OW83526  12.695  10.076  11.781  0.0659 -0.1865  0.0112
25429SOL    HW183527  12.617  10.124  11.754  0.0101 -1.3554 -2.2003
25429SOL    HW283528  12.661  10.004  11.835 -0.2048  0.2154  0.3825
25430SOL     OW83529   1.876   4.210   4.947 -0.5283 -0.3672  0.0756
25430SOL    HW183530   1.950   4.270   4.956 -0.8218  0.7379 -3.3666
25430SOL    HW283531   1.808   4.248   5.003  0.2207  0.9170  0.1614
25431SOL     OW83532   2.885   4.937   7.114 -0.1019  0.5904 -0.5148
25431SOL    HW183533   2.905   4.882   7.190 -3.4918  1.2473  1.0502
25431SOL    HW283534   2.915   5.024   7.139 -1.2869  0.8224  0.2012
25432SOL     OW83535   2.435   6.874   1.159  0.0516 -0.0175  0.1634
25432SOL    HW183536   2.374   6.878   1.086  0.2259 -3.3546 -0.3009
25432SOL    HW283537   2.517   6.844   1.120  0.0679 -2.1857  1.7114
25433SOL     OW83538   1.284  11.827   9.070  0.0873  0.0434 -0.0387
25433SOL    HW183539   1.324  11.747   9.106 -0.7690 -0.2013  0.4185
25433SOL    HW283540   1.341  11.852   8.997  0.2244 -1.1457 -0.3628
25434SOL     OW83541   6.324   4.342  12.332 -0.2948 -0.2781  0.4853
25434SOL    HW183542   6.400   4.291  12.359  0.2328  1.0911  1.7145
25434SOL    HW283543   6.267   4.343  12.409  0.1601  1.7355  0.8652
25435SOL     OW83544  12.045   4.271   5.925  0.3897 -0.0948  0.6672
25435SOL    HW183545  12.036   4.349   5.870  1.1212 -1.8126 -2.1412
25435SOL    HW283546  12.135   4.273   5.956  0.8905 -0.5079 -0.6689
25436SOL     OW83547   1.799  10.147   7.305  0.2526  0.2494 -0.1751
25436SOL    HW183548   1.733  10.118   7.241  0.2717 -1.2577  0.4727
25436SOL    HW283549   1.796  10.082   7.374  0.9163  1.3518  0.9279
25437SOL     OW83550   1.789  12.233   5.956 -0.2849 -0.3665  0.1403
25437SOL    HW183551   1.711  12.288   5.952 -1.1358 -1.1044  3.4124
25437SOL    HW283552   1.860  12.293   5.974 -0.8459 -0.0492  1.4145
25438SOL     OW83553   5.228   5.073  12.304 -0.0350  0.9992  0.4266
25438SOL    HW183554   5.160   5.110  12.360 -1.3276 -0.4282 -0.1250
25438SOL    HW283555   5.211   4.978  12.305  0.0354  0.8822 -2.1000
25439SOL     OW83556  11.963   1.575   0.153 -0.2347 -0.1157  0.0027
25439SOL    HW183557  12.036   1.637   0.157  0.0318 -0.4727  0.9172
25439SOL    HW283558  11.992   1.509   0.090  0.4815 -0.5524  0.7751
25440SOL     OW83559  10.965   0.632   2.738  0.1146 -0.1986  0.3504
25440SOL    HW183560  10.906   0.565   2.703 -0.2423  0.0021  0.5578
25440SOL    HW283561  11.014   0.663   2.662  0.0792 -0.4925  0.2053
25441SOL     OW83562   9.282   2.254  11.546 -0.3349 -0.2898  0.2996
25441SOL    HW183563   9.261   2.232  11.637 -1.7103  0.4574  0.1872
25441SOL    HW283564   9.291   2.169  11.502  0.9939 -0.6660  1.2544
25442SOL     OW83565   4.060  10.119   9.560 -0.1703 -0.3500 -0.3024
25442SOL    HW183566   4.066  10.187   9.627  0.3701  0.3575 -1.0568
25442SOL    HW283567   3.973  10.130   9.522 -0.7463 -1.1912  0.7233
25443SOL     OW83568  10.169   2.839  10.189 -0.0186 -0.0930 -0.0392
25443SOL    HW183569  10.244   2.815  10.135 -1.1918 -1.0557 -1.2881
25443SOL    HW283570  10.175   2.935  10.196  2.2016 -0.2474  1.2662
25444SOL     OW83571   9.778   8.329   4.381  0.7879 -0.1960 -0.6806
25444SOL    HW183572   9.729   8.411   4.379 -0.3176 -0.8407 -1.7996
25444SOL    HW283573   9.718   8.267   4.424  0.5089 -1.0448 -2.2324
25445SOL     OW83574   9.511   4.432   9.011  0.0695 -0.1529 -0.4260
25445SOL    HW183575   9.549   4.405   8.927 -2.1993  1.2224 -2.0147
25445SOL    HW283576   9.575   4.493   9.048  1.3176 -1.1303 -0.9109
25446SOL     OW83577  11.851  12.036   5.719  0.0894 -0.1367  0.3090
25446SOL    HW183578  11.792  12.087   5.775 -0.0001  0.2716 -0.1525
25446SOL    HW283579  11.868  11.957   5.769  0.1900  0.3190  1.0184
25447SOL     OW83580   2.654   3.424   9.313  0.1722  0.3438  0.5685
25447SOL    HW183581   2.662   3.490   9.382  0.8192 -1.1705  1.9949
25447SOL    HW283582   2.742   3.412   9.280  0.2282 -0.4571  0.9761
25448SOL     OW83583   2.510   7.768   0.795 -0.3696  0.2110 -0.6390
25448SOL    HW183584   2.458   7.691   0.774  0.4779 -0.6323  0.2527
25448SOL    HW283585   2.453   7.842   0.775 -2.3122 -0.6595  1.3118
25449SOL     OW83586   7.546   7.306  11.103 -0.1809 -0.9714 -0.0013
25449SOL    HW183587   7.475   7.312  11.166 -0.5789 -1.7028 -0.3669
25449SOL    HW283588   7.547   7.391  11.059  1.0244  0.0851  1.9227
25450SOL     OW83589   0.595   8.059  11.278 -0.7288  0.2428  0.6065
25450SOL    HW183590   0.513   8.032  11.237 -0.4775 -1.5176  1.1728
25450SOL    HW283591   0.585   8.034  11.370  0.8212 -0.9942  0.4746
25451SOL     OW83592  10.147  12.690   8.608 -0.3528  0.2222 -0.5112
25451SOL    HW183593  10.059  12.664   8.632 -0.3969  0.1217 -0.7735
25451SOL    HW283594  10.195  12.695   8.691 -0.1008 -1.5722 -0.5091
25452SOL     OW83595   0.554   6.514   8.368 -0.1484 -0.3634 -0.0830
25452SOL    HW183596   0.632   6.509   8.424  0.9054 -0.1483 -1.4863
25452SOL    HW283597   0.483   6.483   8.424  0.9606 -0.7208  1.1917
25453SOL     OW83598   0.623   7.539  11.955 -0.1369 -0.0584 -0.0537
25453SOL    HW183599   0.633   7.445  11.967  0.4448  0.2204  1.9753
25453SOL    HW283600   0.712   7.574  11.963 -0.3220  0.6606 -0.9923
25454SOL     OW83601   3.292   4.772   9.895 -0.1157 -0.0401 -0.2150
25454SOL    HW183602   3.314   4.865   9.902 -1.6233  0.3414 -0.2454
25454SOL    HW283603   3.212   4.771   9.842 -0.0734 -1.3617 -0.2661
25455SOL     OW83604   3.118   0.654   9.620  0.2434  0.2880 -0.8771
25455SOL    HW183605   3.050   0.706   9.577  0.5462  1.4992  0.0467
25455SOL    HW283606   3.078   0.569   9.634 -0.9533  0.8617 -0.6986
25456SOL     OW83607   5.750  11.453  10.686  0.5594  0.5382 -0.0338
25456SOL    HW183608   5.768  11.380  10.745  1.7741  0.4381 -0.4989
25456SOL    HW283609   5.835  11.492  10.669 -0.0443  1.9225  0.0103
25457SOL     OW83610   8.628   4.891   0.855 -0.1190  0.7848 -0.8165
25457SOL    HW183611   8.599   4.978   0.825 -0.5669  0.4525 -1.3683
25457SOL    HW283612   8.580   4.830   0.800 -2.5005  0.0737  1.8354
25458SOL     OW83613   9.409  11.169   3.584  0.5153 -0.4601 -0.0245
25458SOL    HW183614   9.436  11.159   3.493  1.3935  2.6182 -0.2106
25458SOL    HW283615   9.314  11.183   3.579  0.6912  0.6366 -0.6006
25459SOL     OW83616   8.067   7.852   6.776  0.0016 -0.1235  0.1529
25459SOL    HW183617   8.140   7.856   6.714  0.9218  1.0002  1.2537
25459SOL    HW283618   7.991   7.882   6.725  0.9612  1.9482 -0.1946
25460SOL     OW83619   7.623   9.404   8.092 -0.2872 -0.1457  0.0582
25460SOL    HW183620   7.671   9.481   8.122 -0.6313 -0.3975  1.2993
25460SOL    HW283621   7.583   9.432   8.009 -1.8486  1.6379  1.3144
25461SOL     OW83622   4.573   6.253  11.736  0.2643  0.3317  0.2125
25461SOL    HW183623   4.594   6.162  11.756 -2.3134 -0.0985  1.2517
25461SOL    HW283624   4.487   6.268  11.774  0.7896  3.3799  0.5031
25462SOL     OW83625   1.663  10.595   4.138  0.2676  0.5049  0.3823
25462SOL    HW183626   1.744  10.646   4.145  0.8020 -0.2387 -0.2252
25462SOL    HW283627   1.629  10.615   4.051  2.9390 -3.5973 -1.9119
25463SOL     OW83628   0.567   9.206   0.674 -0.1511  0.3859 -0.0694
25463SOL    HW183629   0.660   9.201   0.697 -0.1874 -1.7234 -0.1921
25463SOL    HW283630   0.538   9.289   0.712  1.8528  1.2934 -0.3820
25464SOL     OW83631   1.602   1.882   7.841  0.4240 -0.0344  0.3608
25464SOL    HW183632   1.592   1.863   7.935  1.4281  1.4999  0.8026
25464SOL    HW283633   1.694   1.864   7.823  0.3040 -0.0147 -0.2751
25465SOL     OW83634   9.454   1.789   7.019 -0.5653  0.4501 -0.3304
25465SOL    HW183635   9.464   1.723   6.951 -0.0404 -0.6144  0.7325
25465SOL    HW283636   9.414   1.742   7.092 -2.9173  2.0085 -0.5238
25466SOL     OW83637   9.580   5.903   3.987  0.4256 -0.1522  0.2512
25466SOL    HW183638   9.584   5.980   3.930 -1.2903  0.0844  0.3822
25466SOL    HW283639   9.659   5.854   3.968  0.8865  0.9642 -0.8289
25467SOL     OW83640   4.675   0.265  11.419  0.0358  0.4445  0.0537
25467SOL    HW183641   4.749   0.221  11.377 -0.4339  0.0390 -0.3672
25467SOL    HW283642   4.604   0.258  11.355  0.0233  2.0754 -0.1529
25468SOL     OW83643   6.400   1.989   3.383  0.1601  0.5049  0.2645
25468SOL    HW183644   6.454   2.051   3.335  1.4282 -0.0134  0.9755
25468SOL    HW283645   6.314   1.995   3.341  1.4890 -0.9315 -3.0383
25469SOL     OW83646   4.603   0.330   2.981  0.3110  0.2717  0.0875
25469SOL    HW183647   4.527   0.358   2.931 -0.4146  1.3178  1.6610
25469SOL    HW283648   4.594   0.376   3.065  1.0434 -1.9619  1.4723
25470SOL     OW83649   4.463   4.008   0.868  0.4191  0.1389  0.2279
25470SOL    HW183650   4.555   3.983   0.861  0.0150 -1.3418 -0.2335
25470SOL    HW283651   4.440   3.991   0.959  0.3802 -0.3525  0.1295
25471SOL     OW83652   5.913   5.300  11.000 -0.1306  0.6206 -0.0841
25471SOL    HW183653   5.926   5.372  10.937 -2.7654 -0.5391 -2.1738
25471SOL    HW283654   5.857   5.338  11.068  1.8440  1.5778  1.1063
25472SOL     OW83655   0.198   1.759   0.556  0.3744  0.3981  0.1761
25472SOL    HW183656   0.158   1.837   0.517  1.4255  0.5517 -0.6422
25472SOL    HW283657   0.158   1.686   0.509  1.3405  0.5673 -0.9491
25473SOL     OW83658   6.896  11.920   0.882 -0.1081 -0.1925  0.6869
25473SOL    HW183659   6.918  11.839   0.928  1.8900 -0.4572 -0.6160
25473SOL    HW283660   6.945  11.915   0.800 -2.1926  1.0449 -0.7334
25474SOL     OW83661   6.057   8.426   3.764 -0.1863  0.1752  0.2533
25474SOL    HW183662   6.098   8.401   3.846 -0.6137 -1.8870 -0.1038
25474SOL    HW283663   6.129   8.456   3.709  0.6759 -1.9149  0.1673
25475SOL     OW83664   2.782   9.159   8.798 -0.1200 -0.0271  0.1121
25475SOL    HW183665   2.877   9.158   8.784 -0.0720  0.4666  0.3591
25475SOL    HW283666   2.768   9.234   8.855 -0.6910  0.0600 -0.1387
25476SOL     OW83667   3.284   6.975   5.961 -0.3013  0.3998  0.2136
25476SOL    HW183668   3.334   6.898   5.932  1.0320  0.6549  1.7056
25476SOL    HW283669   3.350   7.033   6.000 -1.3799  2.0272 -0.2742
25477SOL     OW83670   5.987  10.510   0.522 -0.2854  0.4161 -0.5101
25477SOL    HW183671   6.007  10.424   0.559  1.6405  0.1996 -1.8963
25477SOL    HW283672   5.910  10.494   0.467  0.3908 -0.5905 -1.2098
25478SOL     OW83673   8.140   7.618   7.605  0.0331  0.1622 -0.0987
25478SOL    HW183674   8.226   7.653   7.629 -0.0370  0.5782 -0.4519
25478SOL    HW283675   8.082   7.647   7.676 -0.1889  1.4531 -0.7770
25479SOL     OW83676  11.453   6.203   5.708 -0.5939 -0.4011 -0.5904
25479SOL    HW183677  11.472   6.135   5.643 -1.0887 -2.1065  0.9893
25479SOL    HW283678  11.417   6.156   5.783  2.1261  1.1460  1.9232
25480SOL     OW83679   1.955   6.278   7.036  0.5682 -0.2447 -0.1947
25480SOL    HW183680   2.045   6.310   7.040 -0.3026  2.3807  1.2441
25480SOL    HW283681   1.902   6.355   7.056 -2.0487 -1.6014 -1.4324
25481SOL     OW83682   4.737   0.938   3.541  0.0461 -0.0738 -0.6630
25481SOL    HW183683   4.720   0.851   3.504 -2.8600 -0.8481  1.9870
25481SOL    HW283684   4.826   0.959   3.514  0.3176 -3.1818 -2.7019
25482SOL     OW83685   4.889   6.852  12.250 -0.0920  0.2261  0.3989
25482SOL    HW183686   4.920   6.897  12.172 -1.4406  1.1880  0.3870
25482SOL    HW283687   4.823   6.910  12.287 -1.2670 -1.3485  0.8803
25483SOL     OW83688   9.629  10.987  10.274 -0.1399  0.2000 -0.1611
25483SOL    HW183689   9.645  10.909  10.327 -0.9456 -0.3447 -0.7023
25483SOL    HW283690   9.714  11.007  10.236 -0.3150 -1.6815 -1.7068
25484SOL     OW83691   1.035   0.425  11.274 -0.5390  0.0309 -0.1596
25484SOL    HW183692   1.073   0.484  11.209  1.1643 -1.1112 -0.2477
25484SOL    HW283693   0.942   0.449  11.277 -0.0429  2.2183 -0.7018
25485SOL     OW83694   7.243   7.605   5.252 -0.7206 -0.4257  0.1319
25485SOL    HW183695   7.200   7.574   5.173  1.4070 -0.2112 -1.2093
25485SOL    HW283696   7.197   7.686   5.275 -0.2615  0.5034 -2.0011
25486SOL     OW83697  12.676  10.504  12.202 -0.1374 -0.2787 -0.2206
25486SOL    HW183698  12.708  10.572  12.142  1.4783 -2.9707 -2.7153
25486SOL    HW283699  12.755  10.469  12.242 -1.1022  0.5070  2.5817
25487SOL     OW83700   4.891   3.874   0.740  0.1061 -0.0759 -0.4149
25487SOL    HW183701   4.935   3.790   0.728  0.5150 -0.0528  0.8599
25487SOL    HW283702   4.878   3.907   0.651  1.5888 -0.6361 -0.8565
25488SOL     OW83703   6.973  11.636   9.025 -0.0198 -0.2872 -0.1491
25488SOL    HW183704   6.884  11.612   9.000 -0.1999  0.6273 -0.4379
25488SOL    HW283705   7.028  11.601   8.956 -0.3780  0.9688 -1.1160
25489SOL     OW83706   7.034   9.389   2.974  0.1579 -0.0271 -0.3018
25489SOL    HW183707   7.009   9.455   2.910  0.9036  2.2759  1.6259
25489SOL    HW283708   6.952   9.345   2.997 -0.5002  0.8217 -0.9737
25490SOL     OW83709   5.974   6.714   9.654 -0.5675 -0.0666  0.4452
25490SOL    HW183710   6.069   6.709   9.643 -0.5921 -0.6911  0.4942
25490SOL    HW283711   5.947   6.624   9.672 -1.4389 -0.2663 -1.6304
25491SOL     OW83712   7.067  11.017   7.011 -0.4725 -0.2345 -0.0453
25491SOL    HW183713   7.140  11.077   7.023 -0.9608  0.0361  1.8329
25491SOL    HW283714   7.013  11.058   6.943 -0.1404  0.8044  0.3040
25492SOL     OW83715   3.568   4.134   1.879 -0.0484 -0.5583  0.4138
25492SOL    HW183716   3.550   4.046   1.847 -2.9896 -0.8161  2.3700
25492SOL    HW283717   3.492   4.186   1.851  0.9341  1.0431  0.5444
25493SOL     OW83718   1.832  10.518  10.762  0.7926  0.3152 -0.0332
25493SOL    HW183719   1.828  10.576  10.686  0.2124 -0.5635 -0.6989
25493SOL    HW283720   1.777  10.560  10.828  0.4311  0.5589 -0.4868
25494SOL     OW83721   6.828   0.365   6.817 -0.4253  0.4599 -0.1266
25494SOL    HW183722   6.860   0.283   6.855 -0.8688  0.7344  0.8746
25494SOL    HW283723   6.895   0.388   6.752  1.4823  1.0339  1.9146
25495SOL     OW83724   1.104   4.048   8.104  0.1270  0.4398 -0.3181
25495SOL    HW183725   1.051   4.127   8.091 -0.4517  0.1321  0.0934
25495SOL    HW283726   1.193   4.080   8.120 -0.3497  1.0876  1.2522
25496SOL     OW83727   3.461   3.954   6.004  0.1663  0.4279 -0.6486
25496SOL    HW183728   3.540   4.008   6.005  1.6118 -1.5802  0.1886
25496SOL    HW283729   3.408   3.989   6.075  1.9517 -0.3749  1.1907
25497SOL     OW83730  11.758   3.234   6.336  0.5591  0.1310 -0.0136
25497SOL    HW183731  11.812   3.277   6.402 -0.6208  1.4866  0.1010
25497SOL    HW283732  11.759   3.142   6.361  0.0820  0.6167  1.9502
25498SOL     OW83733  12.503   0.798  12.039 -0.2088  0.0865  0.5154
25498SOL    HW183734  12.571   0.865  12.045 -1.2213  1.1218  0.8207
25498SOL    HW283735  12.482   0.793  11.946  1.0397 -1.0520  0.2639
25499SOL     OW83736   9.143  10.071   7.403  0.3133 -0.3592  0.0853
25499SOL    HW183737   9.219  10.106   7.448  0.0166  0.4089 -0.0003
25499SOL    HW283738   9.110  10.144   7.351 -0.7747 -0.5258  0.5129
25500SOL     OW83739   3.019   4.515  10.903 -0.9401  0.3139  0.2001
25500SOL    HW183740   3.027   4.439  10.845 -2.2449  2.9241 -3.8196
25500SOL    HW283741   2.927   4.514  10.931 -1.1980  0.8139 -0.5888
25501SOL     OW83742  11.737   7.455   4.661  1.0860  0.0460  0.4415
25501SOL    HW183743  11.802   7.398   4.620  1.3038  0.4927  0.1635
25501SOL    HW283744  11.657   7.440   4.610  1.6180  1.3974 -0.8656
25502SOL     OW83745   4.974   4.093   0.324 -0.2909 -0.1726  0.9013
25502SOL    HW183746   5.041   4.038   0.284 -2.3863 -1.0981 -1.5874
25502SOL    HW283747   4.945   4.151   0.254  0.5791  2.9992  2.9812
25503SOL     OW83748  11.773   1.518   5.887 -0.0204 -0.1472 -0.6299
25503SOL    HW183749  11.722   1.469   5.823 -1.4381 -2.0060  1.7737
25503SOL    HW283750  11.708   1.572   5.933  0.6075 -0.4125  0.6065
25504SOL     OW83751   0.035   1.567   4.362 -0.2763  0.6435 -0.4884
25504SOL    HW183752  -0.007   1.568   4.448 -2.2891 -1.6169 -1.3108
25504SOL    HW283753   0.036   1.659   4.335  0.9994  1.5084  2.1304
25505SOL     OW83754   0.318   0.627   7.881  0.2988  0.5107  0.0693
25505SOL    HW183755   0.396   0.574   7.864 -0.0305  0.6083 -2.0408
25505SOL    HW283756   0.245   0.567   7.869 -0.0802  1.3240 -2.4039
25506SOL     OW83757   0.941  10.206   6.310 -0.4158  0.5078 -0.2145
25506SOL    HW183758   0.903  10.280   6.264 -2.1389 -0.6086 -0.6842
25506SOL    HW283759   0.898  10.207   6.396 -0.8276 -0.2185 -0.4043
25507SOL     OW83760  10.368  11.267   3.865  0.2908 -0.7511  0.2178
25507SOL    HW183761  10.437  11.203   3.851  0.8305 -0.3928  1.1535
25507SOL    HW283762  10.288  11.215   3.877  0.4669 -1.1774 -0.4017
25508SOL     OW83763  12.353   9.670   6.486  0.1084  0.0702  1.0041
25508SOL    HW183764  12.427   9.720   6.519 -1.0576  3.4658 -1.0297
25508SOL    HW283765  12.289   9.673   6.558  0.1277  1.4657  0.9895
25509SOL     OW83766  12.579   7.084  10.107  0.0518 -0.6114  0.6601
25509SOL    HW183767  12.619   7.109  10.023 -1.9216  2.5759  0.4790
25509SOL    HW283768  12.628   7.133  10.173 -1.8271  1.4671  0.6602
25510SOL     OW83769   6.773   5.339   1.884  0.1657 -0.1931  0.3038
25510SOL    HW183770   6.779   5.317   1.791  0.1217  0.1054  0.2289
25510SOL    HW283771   6.707   5.409   1.887  0.8044  0.4105  0.4522
25511SOL     OW83772   1.062   5.525  11.307  0.2686 -0.0089 -0.3543
25511SOL    HW183773   1.087   5.463  11.376  0.5178 -1.4466 -1.6904
25511SOL    HW283774   1.087   5.611  11.342  1.2974 -0.7900  0.9248
25512SOL     OW83775   5.788  12.234   2.660 -0.0064 -0.6593 -0.1525
25512SOL    HW183776   5.717  12.288   2.697  1.6266  0.6282  1.2703
25512SOL    HW283777   5.788  12.155   2.713 -0.1974 -0.5500  0.0128
25513SOL     OW83778   4.245  10.706   5.874 -0.0228 -0.1483  0.0019
25513SOL    HW183779   4.202  10.777   5.921 -1.8082 -0.7305 -0.6825
25513SOL    HW283780   4.211  10.626   5.915 -1.1090 -0.6512 -1.7788
25514SOL     OW83781   0.998   3.678   6.430 -0.0161  0.4357  0.0304
25514SOL    HW183782   0.923   3.697   6.373  0.1300 -1.6257 -0.9346
25514SOL    HW283783   1.066   3.738   6.399 -0.8926  1.5103  0.1338
25515SOL     OW83784   0.342   5.280   0.955  0.0713 -0.5697  0.2168
25515SOL    HW183785   0.389   5.345   1.006 -1.1060  0.6742 -0.2234
25515SOL    HW283786   0.304   5.329   0.882 -1.5450 -1.5739  0.3222
25516SOL     OW83787   4.528   1.092  11.034 -0.4972 -0.5014 -0.6544
25516SOL    HW183788   4.446   1.058  10.998  0.2658 -1.9649 -1.0520
25516SOL    HW283789   4.561   1.022  11.090  1.1729 -0.4939 -1.5722
25517SOL     OW83790   0.174  10.729   0.905  0.5031  0.3039 -0.7960
25517SOL    HW183791   0.087  10.765   0.894  0.0022  0.1686  2.0182
25517SOL    HW283792   0.223  10.797   0.951  0.7265 -0.9647  0.9643
25518SOL     OW83793   2.029   4.235   7.618  0.1525  0.1763 -0.8368
25518SOL    HW183794   2.081   4.315   7.610 -0.2266  0.2829 -2.9409
25518SOL    HW283795   1.954   4.249   7.559 -0.0398 -1.6175 -1.0862
25519SOL     OW83796   2.869  11.035   4.885  0.1052  0.1954  0.2672
25519SOL    HW183797   2.942  10.992   4.930 -0.2567  0.2636  0.9369
25519SOL    HW283798   2.822  10.964   4.842 -0.8924 -0.2092  1.9466
25520SOL     OW83799   1.876   9.382   2.951 -0.6164 -0.4657  0.1070
25520SOL    HW183800   1.887   9.438   2.873 -0.9547 -0.2954  0.1805
25520SOL    HW283801   1.940   9.416   3.013 -1.9327  0.9365  0.7642
25521SOL     OW83802   2.442   0.347   2.766 -0.0967  0.6209 -0.0553
25521SOL    HW183803   2.383   0.418   2.744 -1.7207 -0.2483  1.2166
25521SOL    HW283804   2.425   0.329   2.859  0.0770 -1.5587 -0.3803
25522SOL     OW83805  10.605   6.052   6.436  0.3225 -0.7148 -0.5518
25522SOL    HW183806  10.680   6.043   6.378  1.7366  1.2068  0.8584
25522SOL    HW283807  10.562   6.133   6.407 -0.0858 -0.7783 -0.1361
25523SOL     OW83808  11.763   6.417   5.177  0.1009  0.3902 -0.0000
25523SOL    HW183809  11.708   6.384   5.105 -1.4398  1.8134  0.4637
25523SOL    HW283810  11.799   6.499   5.144  1.8647 -0.4268 -0.2186
25524SOL     OW83811   0.023   6.454   9.693  0.2480 -0.0226 -0.0810
25524SOL    HW183812   0.099   6.505   9.722  0.9675 -0.0514 -1.7864
25524SOL    HW283813  -0.051   6.514   9.703  0.4166 -0.0971  1.8811
25525SOL     OW83814   3.346   4.424   7.561 -0.6678 -0.1777 -0.2782
25525SOL    HW183815   3.386   4.414   7.474  0.1909 -0.3679  0.1265
25525SOL    HW283816   3.291   4.347   7.571 -1.4247  0.2477 -0.9813
25526SOL     OW83817   5.135   2.375   4.606  0.3533 -0.3170  0.2071
25526SOL    HW183818   5.205   2.315   4.633 -0.3167 -0.5647  1.4609
25526SOL    HW283819   5.061   2.318   4.585  0.1390  0.0116  0.0591
25527SOL     OW83820   5.288   1.667   7.644 -0.3910  0.5344  0.3091
25527SOL    HW183821   5.348   1.632   7.578  0.0460  1.0412  0.4284
25527SOL    HW283822   5.204   1.675   7.600 -0.4940 -0.6334  0.2709
25528SOL     OW83823   9.269  10.601  10.451  0.1785 -0.5122 -0.1635
25528SOL    HW183824   9.361  10.589  10.427  0.4450  0.2405  0.4502
25528SOL    HW283825   9.270  10.666  10.520 -1.0813  2.4889 -2.7286
25529SOL     OW83826   0.377   9.448   9.093  0.7683  0.2254  0.0275
25529SOL    HW183827   0.292   9.420   9.127  0.7625 -0.4251 -0.4916
25529SOL    HW283828   0.428   9.367   9.086  0.8524  0.3748 -1.2564
25530SOL     OW83829   4.648   9.485   2.608 -0.7006  0.2134 -0.0487
25530SOL    HW183830   4.569   9.476   2.554 -0.1434  1.0463 -1.0441
25530SOL    HW283831   4.678   9.575   2.591  1.9256 -0.8761 -1.7805
25531SOL     OW83832   7.905   6.219  12.026  0.3289 -0.1665  0.1961
25531SOL    HW183833   7.973   6.201  12.090  0.6507 -0.1728 -0.1429
25531SOL    HW283834   7.903   6.141  11.970 -1.6119 -1.2308  1.6272
25532SOL     OW83835   5.914   1.021   1.705  0.0602  0.6771 -0.0329
25532SOL    HW183836   5.837   1.076   1.689  0.4154  0.9150 -0.9869
25532SOL    HW283837   5.893   0.937   1.664  0.4618  0.8692 -0.6383
25533SOL     OW83838   6.047   4.169   0.734 -0.7895  0.1819  0.2204
25533SOL    HW183839   6.070   4.226   0.661  1.5968 -1.4433 -0.4211
25533SOL    HW283840   6.065   4.222   0.812  1.1054  0.4747 -0.3597
25534SOL     OW83841   3.349   4.850   8.826  0.7799  0.4472 -0.1503
25534SOL    HW183842   3.269   4.892   8.857  0.7213  0.1023  0.1845
25534SOL    HW283843   3.360   4.774   8.885  0.3795 -0.5284 -1.2978
25535SOL     OW83844  12.189  12.066   7.388  0.3577 -0.2476  0.4378
25535SOL    HW183845  12.130  12.059   7.462  0.9589  0.7899  1.0457
25535SOL    HW283846  12.159  11.999   7.326  0.7673 -2.1783  2.2330
25536SOL     OW83847   3.389  11.854   7.443  0.2541  0.4173 -0.2062
25536SOL    HW183848   3.481  11.880   7.449  0.2681  0.2235  0.5663
25536SOL    HW283849   3.392  11.764   7.411  0.3165  0.5173 -0.4850
25537SOL     OW83850  12.289  12.517  11.762 -1.0470  0.2710 -0.2289
25537SOL    HW183851  12.297  12.433  11.718 -0.8683  0.9875 -1.6328
25537SOL    HW283852  12.196  12.537  11.761 -1.4447 -1.0762  2.4714
25538SOL     OW83853   8.261  12.439  11.098  0.3201 -0.3129 -0.5335
25538SOL    HW183854   8.229  12.448  11.008 -0.4980 -0.2883 -0.2454
25538SOL    HW283855   8.308  12.355  11.098 -1.1101 -1.1384 -0.5759
25539SOL     OW83856   1.022   8.119   4.255 -0.0405  0.1861  0.2063
25539SOL    HW183857   0.997   8.087   4.342 -0.8051  1.9130  0.6670
25539SOL    HW283858   1.117   8.126   4.259  0.1741 -1.9712  0.0667
25540SOL     OW83859   2.388   9.141  11.191 -0.0243  0.3412  0.7984
25540SOL    HW183860   2.389   9.081  11.116 -0.2505  2.6437 -1.1771
25540SOL    HW283861   2.480   9.151  11.215  0.2833  1.1279 -0.5728
25541SOL     OW83862   1.370  11.813   7.367  0.1637  0.5082 -0.1404
25541SOL    HW183863   1.460  11.845   7.357  0.4629  0.3074  1.6247
25541SOL    HW283864   1.380  11.720   7.388 -0.3212  0.8480  1.8466
25542SOL     OW83865  10.081   4.690  11.064  0.4000  0.0747  0.4137
25542SOL    HW183866  10.089   4.708  11.158 -1.4198 -0.9241  0.8106
25542SOL    HW283867  10.067   4.776  11.024 -0.6267  0.3317  1.2971
25543SOL     OW83868   2.833   8.276   6.019  0.2747  1.0580 -0.1629
25543SOL    HW183869   2.822   8.196   5.967 -1.0544 -0.6976  2.6197
25543SOL    HW283870   2.891   8.251   6.091 -2.2301  1.7180  2.2554
25544SOL     OW83871   2.753   8.487   7.706 -0.1261 -0.2414 -0.2278
25544SOL    HW183872   2.760   8.438   7.788  0.1667 -2.3514 -1.4515
25544SOL    HW283873   2.843   8.498   7.677  0.0035  2.8478  0.9473
25545SOL     OW83874   7.690   0.570   4.153  0.2152  0.1218  0.0705
25545SOL    HW183875   7.768   0.515   4.162  0.4456  0.5315  0.6361
25545SOL    HW283876   7.716   0.641   4.095 -0.6344 -1.3485 -2.2194
25546SOL     OW83877  10.281   1.289  10.876 -0.0495  0.0884  0.4067
25546SOL    HW183878  10.359   1.319  10.829 -0.3307  2.6282  1.4277
25546SOL    HW283879  10.208   1.308  10.818 -0.3011  2.2857  1.3544
25547SOL     OW83880  10.377  10.666  10.210  0.2232  0.3784 -0.4800
25547SOL    HW183881  10.359  10.760  10.204  1.7907  0.6690 -1.2424
25547SOL    HW283882  10.394  10.639  10.119 -2.2287 -1.1224 -0.5881
25548SOL     OW83883  12.069   9.931   1.785  0.3935  0.5244 -0.0323
25548SOL    HW183884  12.162   9.947   1.795  0.6572 -0.9341  0.0550
25548SOL    HW283885  12.031   9.951   1.870  1.2014 -2.4378  1.1281
25549SOL     OW83886   8.404   7.053   0.586  0.0737 -0.3772 -0.4490
25549SOL    HW183887   8.421   6.961   0.564 -1.3720 -0.6042 -0.7054
25549SOL    HW283888   8.313   7.068   0.560  0.3586  1.2078 -0.6586
25550SOL     OW83889   8.321  12.443   1.880  0.6056 -0.0279  0.1339
25550SOL    HW183890   8.375  12.364   1.886  0.8181  0.0994 -0.0772
25550SOL    HW283891   8.323  12.465   1.787  1.8148  1.1075  0.3953
25551SOL     OW83892   1.984   2.419   2.361  0.1071  0.0862 -0.0164
25551SOL    HW183893   1.960   2.351   2.299 -1.4658 -2.6904  3.3169
25551SOL    HW283894   2.046   2.377   2.420  0.1107  1.9684  1.4296
25552SOL     OW83895   5.339   7.862   9.326 -0.1197 -0.3704  0.4787
25552SOL    HW183896   5.333   7.946   9.373 -0.5058 -0.1277  0.0007
25552SOL    HW283897   5.267   7.864   9.263  1.0964 -0.1650 -0.9646
25553SOL     OW83898   7.395   0.506   0.425  0.1286 -0.2796 -0.1019
25553SOL    HW183899   7.304   0.495   0.398  0.0596 -1.6769  0.6045
25553SOL    HW283900   7.402   0.456   0.507  0.9494  1.7163  1.1228
25554SOL     OW83901   8.134  10.707   5.055  0.1751  0.7160 -0.2076
25554SOL    HW183902   8.188  10.780   5.085  0.0451  0.8167 -0.2218
25554SOL    HW283903   8.155  10.636   5.115  0.7760  0.5727 -0.5742
25555SOL     OW83904   2.089  10.099   0.218 -0.1037  0.0484  0.0321
25555SOL    HW183905   2.183  10.113   0.232  0.0802  0.5278 -1.5273
25555SOL    HW283906   2.046  10.151   0.287  0.7222  2.8404 -1.4155
25556SOL     OW83907   6.073  12.043   0.710  0.3177 -0.1431 -0.2783
25556SOL    HW183908   6.003  12.107   0.698  1.2710  1.2393  1.1142
25556SOL    HW283909   6.151  12.095   0.723  0.8010 -1.4295  3.1034
25557SOL     OW83910   8.955   9.765   8.750 -0.3214  0.9062  0.3110
25557SOL    HW183911   8.951   9.841   8.691 -0.2675  0.6021 -0.0905
25557SOL    HW283912   8.999   9.697   8.698  0.3607  0.8507  0.9398
25558SOL     OW83913   9.036   0.724   8.660 -0.3465 -0.3607 -0.1207
25558SOL    HW183914   9.027   0.659   8.589  0.4288 -0.5422 -0.0594
25558SOL    HW283915   9.106   0.689   8.715 -0.1438  0.3751  0.0922
25559SOL     OW83916   0.056  12.528   6.653  0.3876  0.3909  0.6502
25559SOL    HW183917   0.126  12.565   6.600 -0.4886  0.1179 -0.7244
25559SOL    HW283918  -0.020  12.582   6.634  0.0356  0.2458  1.5882
25560SOL     OW83919  11.286   7.134   9.787  0.4336  0.4249 -0.0363
25560SOL    HW183920  11.343   7.087   9.847 -1.1498  1.7808  2.7059
25560SOL    HW283921  11.210   7.076   9.776  0.4366  0.4610 -0.2585
25561SOL     OW83922   2.004   3.093   9.928 -0.3075 -0.1531 -0.1600
25561SOL    HW183923   1.929   3.045   9.964  0.6063 -0.9450  0.7598
25561SOL    HW283924   2.058   3.025   9.887  0.4928  0.2349  0.2304
25562SOL     OW83925   7.347   8.948  10.919  0.5632  0.3316  0.7473
25562SOL    HW183926   7.406   8.880  10.952 -0.0403  0.3914  1.9846
25562SOL    HW283927   7.332   9.005  10.994 -2.1110 -0.4081  0.8603
25563SOL     OW83928   1.840  11.707   1.944  0.0977 -0.6770  0.0291
25563SOL    HW183929   1.834  11.747   1.857  0.7473  1.3455  0.8529
25563SOL    HW283930   1.924  11.661   1.943  1.0247  0.9674  0.1975
25564SOL     OW83931   2.944   2.856   2.577  0.2157 -0.1960  0.1037
25564SOL    HW183932   3.008   2.812   2.521 -0.9618 -1.0673 -0.6011
25564SOL    HW283933   2.888   2.905   2.516  0.2033  0.5736  0.7114
25565SOL     OW83934   2.471   2.744   4.866  0.6328 -0.1373  0.0299
25565SOL    HW183935   2.541   2.757   4.802  1.0999 -1.2341  0.3044
25565SOL    HW283936   2.442   2.654   4.852  0.6213 -0.3336  1.2234
25566SOL     OW83937   6.339  10.089   8.379  0.1488  0.5212  1.1484
25566SOL    HW183938   6.341  10.008   8.327  0.3716 -0.0665  2.0570
25566SOL    HW283939   6.318  10.157   8.315 -2.7875 -0.5805  0.7677
25567SOL     OW83940   8.003   9.353   0.448  0.1612 -0.0869 -0.4849
25567SOL    HW183941   8.054   9.309   0.517  0.6492 -0.5029 -1.0952
25567SOL    HW283942   8.027   9.445   0.456 -0.6483  0.0558  0.6207
25568SOL     OW83943   6.611  11.675   4.241  0.5840 -0.5080 -0.2493
25568SOL    HW183944   6.593  11.596   4.292 -0.0933 -0.4896 -0.4564
25568SOL    HW283945   6.626  11.644   4.152 -0.8855 -0.3015 -0.5806
25569SOL     OW83946   0.506   9.887   1.108 -0.1515 -0.2163 -0.4855
25569SOL    HW183947   0.411   9.875   1.107 -0.1814 -0.0546  0.3405
25569SOL    HW283948   0.520   9.971   1.065 -0.5714  0.9589  1.5861
25570SOL     OW83949  10.525   3.701   0.592 -0.4043 -0.2817  0.1763
25570SOL    HW183950  10.500   3.736   0.507  1.4709  2.6562  0.6784
25570SOL    HW283951  10.491   3.765   0.655  0.4485 -1.0094  1.4272
25571SOL     OW83952   0.489   9.331   4.909  0.2742 -0.2307 -0.3375
25571SOL    HW183953   0.425   9.288   4.852 -0.2617 -0.3422  0.3336
25571SOL    HW283954   0.466   9.424   4.906  0.1417 -0.2573 -0.1778
25572SOL     OW83955   1.418   0.580   6.811  0.3009  0.0425  0.1948
25572SOL    HW183956   1.468   0.650   6.853  0.4317  0.6314 -0.8942
25572SOL    HW283957   1.331   0.587   6.849  0.6603 -0.0405  1.0409
25573SOL     OW83958   3.610   0.496   0.687  0.8283  0.3413  0.2796
25573SOL    HW183959   3.693   0.507   0.639  0.4389  0.6699 -0.3333
25573SOL    HW283960   3.543   0.519   0.623  0.3424  2.1858  1.3858
25574SOL     OW83961  10.828   1.069   2.894  0.1188 -0.0059 -0.3019
25574SOL    HW183962  10.743   1.109   2.879 -0.3430 -0.5698  0.6925
25574SOL    HW283963  10.809   0.976   2.907  0.1713  0.3774  4.6182
25575SOL     OW83964  11.832   9.983   0.627 -0.1686 -0.1375  0.2442
25575SOL    HW183965  11.908   9.924   0.629 -0.8931 -1.0677  1.8770
25575SOL    HW283966  11.830  10.016   0.537  2.0356 -0.2427  0.0958
25576SOL     OW83967   1.651  11.647   9.555  0.3837 -0.1346 -0.3783
25576SOL    HW183968   1.703  11.681   9.482 -0.7578  2.5457 -0.0747
25576SOL    HW283969   1.693  11.682   9.633  0.4598 -1.3480  0.1377
25577SOL     OW83970   9.775   8.112   5.678 -0.2668 -0.1766  0.1073
25577SOL    HW183971   9.745   8.024   5.655  3.3233 -1.4653 -0.2096
25577SOL    HW283972   9.813   8.147   5.597 -0.2896  1.0834  0.6101
25578SOL     OW83973   8.797   1.151  12.659  0.2483 -0.0400  0.0560
25578SOL    HW183974   8.796   1.057  12.676 -0.8315 -0.0263  0.1222
25578SOL    HW283975   8.849   1.188  12.731 -0.6310 -0.4293  0.9163
25579SOL     OW83976   0.445  12.201   8.290  0.7249  0.1234  0.0348
25579SOL    HW183977   0.465  12.125   8.344  1.0829  0.6289  0.6226
25579SOL    HW283978   0.504  12.194   8.215  0.0339 -0.7295 -0.4548
25580SOL     OW83979   0.401   3.104  10.697 -0.2258  0.2622  0.2772
25580SOL    HW183980   0.353   3.060  10.767  1.2132 -2.2232 -0.2105
25580SOL    HW283981   0.352   3.083  10.617 -0.3061  0.7714  0.1840
25581SOL     OW83982   9.232   0.836   7.700  0.1682  0.0315 -0.0607
25581SOL    HW183983   9.222   0.741   7.687 -1.5472  0.0654  0.7335
25581SOL    HW283984   9.289   0.843   7.777 -0.6839 -0.3919  0.6245
25582SOL     OW83985   9.045   6.558   6.560 -0.1755 -0.3405  0.6964
25582SOL    HW183986   9.113   6.612   6.520 -1.0925 -0.2367 -0.8115
25582SOL    HW283987   9.092   6.501   6.621  1.2468 -0.1994 -0.2235
25583SOL     OW83988  10.789   8.700   4.506 -0.1471 -0.1107 -0.2808
25583SOL    HW183989  10.696   8.679   4.514 -0.1700  0.0405 -0.1425
25583SOL    HW283990  10.809   8.750   4.585 -0.1667  0.6536 -0.7494
25584SOL     OW83991   0.353   7.330   7.563  0.2775  0.1571  0.0451
25584SOL    HW183992   0.312   7.410   7.531  0.1180  0.7993  1.7415
25584SOL    HW283993   0.284   7.263   7.554  0.4563  0.1552 -1.4950
25585SOL     OW83994   2.458  12.416   5.380  0.0189 -0.5772 -0.4522
25585SOL    HW183995   2.393  12.347   5.385 -0.4814 -0.1020 -0.3806
25585SOL    HW283996   2.465  12.450   5.470 -0.6213  0.2738 -0.7178
25586SOL     OW83997   6.034  11.099   2.140  0.1463 -0.5161 -0.1170
25586SOL    HW183998   5.974  11.155   2.091 -1.6738 -0.4517  2.0248
25586SOL    HW283999   6.116  11.104   2.091 -1.3409 -0.0460 -2.8184
25587SOL     OW84000   1.841  12.121   1.555 -0.6815  0.3087 -0.1071
25587SOL    HW184001   1.874  12.036   1.526 -0.2155 -0.1744  1.7142
25587SOL    HW284002   1.756  12.101   1.595 -0.6444  0.7090  0.1802
25588SOL     OW84003   4.747   9.491   6.561  0.0327 -0.4947  0.4118
25588SOL    HW184004   4.764   9.585   6.555 -0.8985 -0.3917 -0.9268
25588SOL    HW284005   4.833   9.450   6.547  0.1360  0.1129 -0.8057
25589SOL     OW84006  10.198   7.994  10.299  0.0268  0.2668 -0.0613
25589SOL    HW184007  10.150   7.971  10.379  0.2830  0.9744  0.3019
25589SOL    HW284008  10.160   7.938  10.232  0.5952 -1.1772  0.7741
25590SOL     OW84009   6.614  11.761   2.622 -0.2165 -0.0234  0.5105
25590SOL    HW184010   6.540  11.752   2.561 -0.4058 -0.2278  0.7691
25590SOL    HW284011   6.687  11.787   2.566 -0.5078  0.2851  0.2674
25591SOL     OW84012   9.345   8.856  12.346  0.1916 -0.2356  0.2942
25591SOL    HW184013   9.367   8.850  12.439  0.3176 -3.1021  0.1939
25591SOL    HW284014   9.249   8.855  12.344  0.1169  2.1082  0.4049
25592SOL     OW84015   3.515   3.070  10.801 -0.2619 -0.2418  0.2157
25592SOL    HW184016   3.470   2.991  10.832 -1.1144 -0.4077 -1.3125
25592SOL    HW284017   3.557   3.106  10.879 -3.9570  0.5599  2.0508
25593SOL     OW84018   3.182   3.721   8.418  0.2228  0.2915  0.5639
25593SOL    HW184019   3.098   3.691   8.454 -0.2314 -1.2278 -1.5773
25593SOL    HW284020   3.160   3.801   8.371  0.5538  1.4784  2.3455
25594SOL     OW84021   8.504   7.106   2.979 -0.2054 -0.3808  0.4129
25594SOL    HW184022   8.591   7.070   2.960  0.4917  1.5369 -0.2533
25594SOL    HW284023   8.444   7.054   2.925  0.5935 -1.2875  0.3700
25595SOL     OW84024   6.938   4.900   0.274 -0.3328 -0.1929  0.0153
25595SOL    HW184025   6.939   4.806   0.254 -0.1155 -0.3567  0.7719
25595SOL    HW284026   6.859   4.913   0.325 -0.4866  0.0799 -0.2945
25596SOL     OW84027   7.729   1.661   5.894 -0.1375 -0.2600 -0.0947
25596SOL    HW184028   7.819   1.629   5.882 -0.5573 -0.9622 -1.6795
25596SOL    HW284029   7.740   1.748   5.932  1.0982 -1.5471  2.7815
25597SOL     OW84030   3.757   3.128   1.536  0.2018 -0.4404 -0.1619
25597SOL    HW184031   3.813   3.106   1.462 -0.5804  0.6023 -1.0824
25597SOL    HW284032   3.705   3.203   1.507 -1.0721 -0.8395  0.9693
25598SOL     OW84033   5.100   7.657   4.483  0.0248  0.0144 -0.3052
25598SOL    HW184034   5.195   7.645   4.484 -0.1593 -1.7016  0.5210
25598SOL    HW284035   5.070   7.621   4.566 -1.5073 -1.0240 -1.2490
25599SOL     OW84036   3.943   9.268   4.697  0.6586 -0.2132 -0.3185
25599SOL    HW184037   3.891   9.295   4.772  0.6914  0.6442 -0.5925
25599SOL    HW284038   3.927   9.335   4.631  3.2253  0.9384  0.0954
25600SOL     OW84039   0.120   4.794   9.688 -0.2593  0.5839  0.0078
25600SOL    HW184040   0.087   4.807   9.777 -0.8525  0.4174 -0.1822
25600SOL    HW284041   0.045   4.762   9.639 -0.0168  0.9685 -0.6321
25601SOL     OW84042   8.118   4.114   9.791 -0.4790  0.5011 -0.2007
25601SOL    HW184043   8.031   4.149   9.771 -0.9644  0.6830  1.9783
25601SOL    HW284044   8.164   4.186   9.833  0.7157  0.3654 -1.2265
25602SOL     OW84045   5.526   7.952   9.914 -0.0170 -0.2499 -0.5543
25602SOL    HW184046   5.576   7.871   9.918 -0.8840 -0.7615  1.8629
25602SOL    HW284047   5.590   8.021   9.935  0.8585 -0.1431 -3.2279
25603SOL     OW84048  10.500   5.958   5.871 -0.0538 -0.4478  0.1881
25603SOL    HW184049  10.417   5.914   5.852  0.6015 -1.9509  0.6257
25603SOL    HW284050  10.562   5.919   5.808  0.6045 -0.3310  0.7541
25604SOL     OW84051   5.136   7.343   3.038 -0.6066 -0.2699  0.3085
25604SOL    HW184052   5.224   7.306   3.034 -1.3023 -2.0761  0.5619
25604SOL    HW284053   5.110   7.353   2.946 -0.2445  0.0449  0.2368
25605SOL     OW84054   8.760  12.161   7.258  0.2962  0.2496  0.2910
25605SOL    HW184055   8.781  12.104   7.185  0.0244  0.5655 -0.0348
25605SOL    HW284056   8.740  12.101   7.330  0.2677 -0.0605  0.0266
25606SOL     OW84057   4.920   1.235   9.339 -0.7366  0.3083  0.8519
25606SOL    HW184058   4.906   1.270   9.251 -0.4075 -0.1243  0.6254
25606SOL    HW284059   4.888   1.304   9.398  0.8611  1.4405  0.4456
25607SOL     OW84060  10.919   0.204   1.280  0.9731  0.0400 -0.6249
25607SOL    HW184061  10.866   0.219   1.202 -0.1751  2.2420  0.4929
25607SOL    HW284062  10.931   0.290   1.319  1.1031 -0.9986  1.8828
25608SOL     OW84063  12.095  11.272   0.117  0.4007  0.5767 -0.3065
25608SOL    HW184064  12.191  11.270   0.111  0.4109  0.4698 -0.1131
25608SOL    HW284065  12.066  11.205   0.055  0.4222  1.1141 -0.9123
25609SOL     OW84066   5.807   2.926   6.305 -0.4193  0.1670 -0.4960
25609SOL    HW184067   5.869   2.973   6.250  1.4090  0.3041  1.5309
25609SOL    HW284068   5.810   2.971   6.390 -2.7124 -0.3378 -0.0743
25610SOL     OW84069  10.286   6.321   6.104  0.3749  0.2225  0.4086
25610SOL    HW184070  10.271   6.321   6.010 -1.1340 -0.9777  0.6120
25610SOL    HW284071  10.318   6.233   6.124 -0.3973  0.0990  1.1584
25611SOL     OW84072   1.450   0.712   6.250  0.1071 -0.0835 -0.5625
25611SOL    HW184073   1.526   0.656   6.265  0.2073  0.0259 -0.6659
25611SOL    HW284074   1.435   0.708   6.156 -0.0860 -0.1963 -0.5289
25612SOL     OW84075   5.997   0.454   2.187  0.4312 -0.2137  0.0838
25612SOL    HW184076   5.966   0.544   2.183 -1.1831 -0.7096  0.5473
25612SOL    HW284077   6.090   0.461   2.206  0.2724  1.3480  0.3842
25613SOL     OW84078   1.783   5.157   2.057 -0.0476  0.2483 -0.2918
25613SOL    HW184079   1.841   5.173   2.131  1.1962  0.1559 -1.2299
25613SOL    HW284080   1.841   5.140   1.983 -1.2292 -2.4061 -0.7289
25614SOL     OW84081   4.160   5.016   4.739 -0.1834  0.4155 -0.4770
25614SOL    HW184082   4.189   5.106   4.722  0.4205  0.3956  0.3610
25614SOL    HW284083   4.068   5.015   4.714 -0.0764  1.1493 -0.9223
25615SOL     OW84084   7.677   0.232   5.144  0.4356  0.1713  0.2085
25615SOL    HW184085   7.622   0.238   5.222 -0.4103 -1.3773 -0.2422
25615SOL    HW284086   7.767   0.235   5.178  0.1558 -2.9570  1.5656
25616SOL     OW84087  11.751  12.436   3.296 -0.1604  0.0953  0.6032
25616SOL    HW184088  11.842  12.454   3.272 -0.3965 -1.6055 -2.1122
25616SOL    HW284089  11.713  12.521   3.313  0.9776  1.3207 -2.3047
25617SOL     OW84090   2.321  11.860   9.189 -0.3847 -0.1384  0.6727
25617SOL    HW184091   2.380  11.842   9.116 -0.2784 -0.4660  0.8392
25617SOL    HW284092   2.367  11.925   9.241 -1.6950  2.3865 -1.0943
25618SOL     OW84093   8.492   8.749   6.782 -0.3505  0.0652  0.0310
25618SOL    HW184094   8.498   8.784   6.871 -0.3639  0.0313  0.0455
25618SOL    HW284095   8.583   8.739   6.754 -0.2427 -2.4917  1.0426
25619SOL     OW84096   3.444   9.689  10.614  0.4514 -0.4624  0.2075
25619SOL    HW184097   3.376   9.750  10.642  0.0712 -1.4600  1.5877
25619SOL    HW284098   3.446   9.696  10.519 -0.8164  0.3924  0.2282
25620SOL     OW84099   9.035   9.965   5.536 -0.0403  0.0888  0.2559
25620SOL    HW184100   9.059  10.051   5.503 -1.2047  0.5665  0.6117
25620SOL    HW284101   9.117   9.929   5.571  0.4753  0.9953  0.0091
25621SOL     OW84102   8.262  11.499   9.984  0.7692  0.1069 -0.0803
25621SOL    HW184103   8.315  11.454   9.919  1.0704  0.2437  0.0672
25621SOL    HW284104   8.298  11.470  10.068  0.3202 -0.1441  0.0282
25622SOL     OW84105   3.293   3.688   2.708  0.0681  0.6810 -0.1671
25622SOL    HW184106   3.280   3.596   2.732 -0.7907  0.3405 -1.8325
25622SOL    HW284107   3.213   3.713   2.662  0.4484  2.1667 -0.0868
25623SOL     OW84108   3.128   3.956   7.838  0.0929  0.0079  0.0454
25623SOL    HW184109   3.091   3.899   7.771  2.4736 -1.2519 -0.3268
25623SOL    HW284110   3.058   3.966   7.903 -1.6435 -0.2541 -1.6901
25624SOL     OW84111   1.369   9.902   8.556  0.3563 -0.4726  0.2114
25624SOL    HW184112   1.349   9.962   8.628  0.4450  1.8611 -1.6144
25624SOL    HW284113   1.300   9.918   8.492  2.6592  0.7926 -2.1058
25625SOL     OW84114  10.423   6.927   0.734 -0.0384  0.0457 -0.0183
25625SOL    HW184115  10.507   6.951   0.773  0.6404  0.8538 -1.8616
25625SOL    HW284116  10.411   6.989   0.662 -2.1714 -0.1420  0.1083
25626SOL     OW84117  10.668   9.698   6.191 -0.1812 -0.1075  0.4636
25626SOL    HW184118  10.625   9.660   6.268 -0.5291 -1.6257 -0.4365
25626SOL    HW284119  10.760   9.709   6.218 -0.0503 -1.6670  0.7871
25627SOL     OW84120   9.818   1.847  11.429 -0.0449  0.3865 -0.1231
25627SOL    HW184121   9.885   1.862  11.362  0.5899 -2.3815 -0.2109
25627SOL    HW284122   9.773   1.768  11.400 -0.2872 -0.4316  2.3020
25628SOL     OW84123   9.541  10.095   5.248  0.5195 -0.3220  0.2288
25628SOL    HW184124   9.533  10.111   5.342  1.8364  0.0137  0.2960
25628SOL    HW284125   9.463  10.043   5.226 -0.2732  0.3628  1.3187
25629SOL     OW84126   9.454  11.825  10.120  0.2044  0.2646 -0.2733
25629SOL    HW184127   9.425  11.815  10.029 -2.5264  0.6747  0.4681
25629SOL    HW284128   9.447  11.737  10.157  0.3403  0.2822 -0.2065
25630SOL     OW84129   5.353  10.081   3.484  0.2794  0.3055  0.3784
25630SOL    HW184130   5.302  10.003   3.503  0.3756 -0.0449 -0.7068
25630SOL    HW284131   5.295  10.154   3.504 -0.4728 -0.0808 -0.3553
25631SOL     OW84132  10.359   6.987   8.240  0.3229 -0.4623 -1.3295
25631SOL    HW184133  10.453   6.996   8.250  0.1654  0.4352 -0.3943
25631SOL    HW284134  10.340   6.896   8.263  0.8413 -0.3366 -0.3408
25632SOL     OW84135   8.450   8.340   4.649  0.3013  0.5409 -0.1097
25632SOL    HW184136   8.540   8.321   4.677 -0.3509 -0.8875  1.1751
25632SOL    HW284137   8.401   8.261   4.671 -1.6215  1.9057  0.7874
25633SOL     OW84138   6.618   3.091   1.632 -0.3610 -0.0234  0.2110
25633SOL    HW184139   6.656   3.075   1.545  1.7024 -1.2611  1.2601
25633SOL    HW284140   6.527   3.064   1.623 -0.4674  0.8312 -1.8174
25634SOL     OW84141   9.740   6.113   9.562 -0.0151  0.4999  0.7111
25634SOL    HW184142   9.721   6.204   9.585 -3.1523  0.1751 -0.1569
25634SOL    HW284143   9.723   6.108   9.468 -0.7543 -1.1709  0.9000
25635SOL     OW84144   7.874  12.378   2.272  0.3327  0.2368 -0.2036
25635SOL    HW184145   7.862  12.369   2.366 -1.6299  0.5971 -0.3811
25635SOL    HW284146   7.854  12.470   2.254 -1.0434 -0.2192 -1.1716
25636SOL     OW84147  12.686   2.612   3.798  0.0724 -0.2095  0.2292
25636SOL    HW184148  12.688   2.540   3.734 -1.1746  0.4158 -0.5355
25636SOL    HW284149  12.643   2.574   3.875 -1.9402  0.0851 -0.6912
25637SOL     OW84150   2.593   1.332   6.020 -0.2603 -0.6405  0.0790
25637SOL    HW184151   2.622   1.241   6.024  3.5109  0.3800 -0.7515
25637SOL    HW284152   2.630   1.372   6.098  0.4402  0.7330 -0.9199
25638SOL     OW84153   5.395  10.275   5.914 -0.0106 -0.3141 -0.4912
25638SOL    HW184154   5.374  10.354   5.864 -1.1892 -1.3499 -1.6767
25638SOL    HW284155   5.319  10.218   5.903  0.9005 -1.7141  0.1695
25639SOL     OW84156   8.421   9.267  10.905  0.0594  0.0386 -0.3969
25639SOL    HW184157   8.453   9.346  10.950  1.4213 -0.4067 -0.5178
25639SOL    HW284158   8.399   9.207  10.976  0.9251 -0.1741 -0.2885
25640SOL     OW84159   5.904   8.198   3.693  0.5719  0.2852 -0.3074
25640SOL    HW184160   5.940   8.287   3.689  0.9594  0.1031 -1.0892
25640SOL    HW284161   5.959   8.153   3.756  0.3032  0.6265  0.1791
25641SOL     OW84162   9.512  12.496   1.756  0.2140  0.1592  0.3156
25641SOL    HW184163   9.524  12.550   1.678  1.3589 -1.8374 -0.9680
25641SOL    HW284164   9.451  12.546   1.810  0.9128  2.5519 -0.9275
25642SOL     OW84165   1.302   2.624   8.699  0.3718 -0.1124 -0.0734
25642SOL    HW184166   1.378   2.639   8.756  0.9572 -0.1847 -0.8238
25642SOL    HW284167   1.233   2.678   8.738  0.6277 -0.4994  0.9585
25643SOL     OW84168   7.908   6.689   1.324  0.0268 -0.2417 -0.5327
25643SOL    HW184169   7.968   6.660   1.255  0.2026 -0.9124 -0.1141
25643SOL    HW284170   7.824   6.651   1.299  0.1527 -0.7311 -0.2394
25644SOL     OW84171   3.495   0.457  10.171  0.4278 -0.2695 -0.0888
25644SOL    HW184172   3.532   0.515  10.104  0.0932  0.0626  0.0125
25644SOL    HW284173   3.499   0.370  10.131  0.7226 -0.1487 -0.3310
25645SOL     OW84174   9.771   8.845   8.605  0.2636 -0.0294  0.2257
25645SOL    HW184175   9.832   8.814   8.539 -0.0323  0.1326 -0.1307
25645SOL    HW284176   9.820   8.842   8.687  0.4890 -0.6635  0.0728
25646SOL     OW84177   6.860   0.894  11.541 -0.6968 -0.1674 -0.0198
25646SOL    HW184178   6.798   0.957  11.575 -0.5821 -0.2022  0.2603
25646SOL    HW284179   6.830   0.875  11.452 -0.1933  0.9887 -0.4464
25647SOL     OW84180   0.651   5.178   2.782 -0.5548 -0.5292  0.4440
25647SOL    HW184181   0.701   5.229   2.847  0.4902 -0.0222 -0.7224
25647SOL    HW284182   0.641   5.092   2.822  0.6436 -0.4249  1.0272
25648SOL     OW84183   4.781  11.536   6.069  0.4013 -0.5625 -0.0575
25648SOL    HW184184   4.747  11.459   6.022  0.6604 -0.0844 -1.0541
25648SOL    HW284185   4.704  11.590   6.086  0.5569  0.4509 -2.1817
25649SOL     OW84186  11.963   2.331   7.887  0.2337  0.6745  0.5080
25649SOL    HW184187  12.014   2.411   7.872  1.5605  0.1736  1.9799
25649SOL    HW284188  11.877   2.350   7.851  0.4611  2.8424  0.9642
25650SOL     OW84189  10.309   5.656   6.592 -0.3957  0.0501 -0.4196
25650SOL    HW184190  10.233   5.599   6.606 -0.3084 -0.0841 -0.4947
25650SOL    HW284191  10.384   5.597   6.594 -0.1963  0.3221  0.7385
25651SOL     OW84192   2.347   5.525  10.435  0.0315  0.0629 -0.3187
25651SOL    HW184193   2.272   5.467  10.449  1.6457 -1.8130  1.3164
25651SOL    HW284194   2.341   5.552  10.343 -2.9153  0.4875 -0.0775
25652SOL     OW84195   4.340   4.717   0.864 -0.0752  0.3701  0.4398
25652SOL    HW184196   4.314   4.635   0.821 -0.7317  0.6344  0.3221
25652SOL    HW284197   4.261   4.771   0.863  0.6106  1.4018 -0.3836
25653SOL     OW84198   3.814   5.113   6.177  0.2866  0.8231 -0.8068
25653SOL    HW184199   3.844   5.022   6.181  0.3306  0.8315 -0.9270
25653SOL    HW284200   3.856   5.155   6.252 -0.9641  0.3910  0.1616
25654SOL     OW84201   0.901   8.745   5.600  0.2910 -0.0763  0.1258
25654SOL    HW184202   0.884   8.666   5.549  0.1245  0.0750 -0.0526
25654SOL    HW284203   0.827   8.803   5.583  1.1168  0.7175 -0.9314
25655SOL     OW84204   6.834   8.347   8.133 -0.6445  0.7634 -0.1311
25655SOL    HW184205   6.909   8.395   8.169  0.6794  0.1777 -1.9502
25655SOL    HW284206   6.872   8.265   8.101 -2.5756 -0.8863  1.4704
25656SOL     OW84207   0.387   9.570   1.159 -0.6152  0.3034 -0.3604
25656SOL    HW184208   0.328   9.619   1.102 -1.2498 -0.0865 -0.0493
25656SOL    HW284209   0.402   9.488   1.112 -0.9305  0.0907 -0.1003
25657SOL     OW84210  11.427   8.642   2.314  0.3371 -0.0568 -0.0353
25657SOL    HW184211  11.453   8.594   2.236 -2.2513 -1.2637 -0.2659
25657SOL    HW284212  11.381   8.719   2.281 -2.8827 -1.7616  0.1106
25658SOL     OW84213   7.861   0.331   1.030 -0.1122 -0.1285 -0.1647
25658SOL    HW184214   7.942   0.380   1.017 -0.1766 -0.2363 -1.0319
25658SOL    HW284215   7.865   0.260   0.965  0.6983 -2.2280  2.0364
25659SOL     OW84216   1.789   4.763   6.228 -0.2439 -0.0755 -0.0458
25659SOL    HW184217   1.829   4.847   6.252  1.0113 -0.6598 -0.0118
25659SOL    HW284218   1.749   4.732   6.310 -1.7829  1.0278 -0.3391
25660SOL     OW84219   5.811   1.575   6.217  0.2246 -0.2614 -0.4155
25660SOL    HW184220   5.772   1.596   6.302 -0.5814  0.2402 -0.8912
25660SOL    HW284221   5.888   1.631   6.211  1.7283 -2.0688  1.0161
25661SOL     OW84222   9.679   8.549   9.703 -0.4946  0.3732 -0.0453
25661SOL    HW184223   9.701   8.533   9.795  0.4211  1.1259 -0.1219
25661SOL    HW284224   9.734   8.487   9.654  1.9447  2.5512 -0.2615
25662SOL     OW84225   7.716   9.907   1.961 -0.9903  0.0375  0.0515
25662SOL    HW184226   7.754   9.992   1.938  1.9081 -1.2718 -0.3916
25662SOL    HW284227   7.715   9.907   2.057  0.0381  0.1913  0.0769
25663SOL     OW84228   3.167   4.787   8.347  0.4450 -0.4469  0.4506
25663SOL    HW184229   3.214   4.704   8.360  0.1637 -0.7524 -0.3774
25663SOL    HW284230   3.182   4.836   8.427  3.7901  0.2716 -0.4367
25664SOL     OW84231   1.384   6.854   4.124  0.1724  0.0352 -0.0626
25664SOL    HW184232   1.477   6.840   4.142  0.0230 -1.7434 -0.4718
25664SOL    HW284233   1.383   6.922   4.057  1.2889 -0.8709 -1.0602
25665SOL     OW84234   2.941   3.853   2.398 -0.5686  0.1956  0.0851
25665SOL    HW184235   2.956   3.767   2.437 -2.0350  0.5915  1.6442
25665SOL    HW284236   2.969   3.915   2.466 -2.5250  0.9055  0.2953
25666SOL     OW84237   1.313   9.526   5.567  0.3152  0.4696 -0.5474
25666SOL    HW184238   1.279   9.438   5.548 -2.3147  0.8808  1.5852
25666SOL    HW284239   1.401   9.526   5.530 -0.6521 -2.0280 -3.2114
25667SOL     OW84240   1.460   0.022   5.779  0.0442  0.3717  0.1190
25667SOL    HW184241   1.378   0.003   5.825  0.3246  1.2177  0.9932
25667SOL    HW284242   1.456   0.115   5.759  0.0020  0.0559 -1.4773
25668SOL     OW84243   2.809   7.368   0.098  0.2140 -0.2297  0.6711
25668SOL    HW184244   2.818   7.422   0.019 -2.5998  0.0360  0.4183
25668SOL    HW284245   2.816   7.278   0.067 -0.5533 -0.1164  0.1511
25669SOL     OW84246  11.958   8.784   6.030  0.0999  0.0820  0.2154
25669SOL    HW184247  11.955   8.871   6.071 -1.0519  0.3252 -0.3596
25669SOL    HW284248  11.885   8.737   6.068  0.4085 -0.4712  0.1286
25670SOL     OW84249   3.349   5.853   4.083  0.6827 -0.1720 -0.0559
25670SOL    HW184250   3.286   5.892   4.143 -0.0545  0.9909 -1.5067
25670SOL    HW284251   3.297   5.793   4.029  1.4396 -1.6653  0.8156
25671SOL     OW84252   6.219   2.282  10.526  0.3368 -0.3120 -0.5819
25671SOL    HW184253   6.245   2.259  10.437 -2.0758  0.4075 -1.5473
25671SOL    HW284254   6.277   2.354  10.550 -0.4174  1.0245 -2.5036
25672SOL     OW84255   4.347   0.865  11.013  0.1235  0.0333  0.4916
25672SOL    HW184256   4.369   0.804  10.943  1.3060  1.6340 -0.6044
25672SOL    HW284257   4.421   0.859  11.074  0.7138  1.0231 -0.1045
25673SOL     OW84258   2.924  10.282   6.894  0.0293  1.0056 -0.0116
25673SOL    HW184259   2.855  10.267   6.958  3.8484 -0.4771  4.2594
25673SOL    HW284260   2.920  10.206   6.836 -1.4931  0.7173  0.4178
25674SOL     OW84261  12.503   0.390  11.946 -0.5470  0.1444 -0.0542
25674SOL    HW184262  12.415   0.415  11.975 -0.4570  0.8787 -0.4036
25674SOL    HW284263  12.561   0.423  12.015 -0.4364  0.8389 -0.4674
25675SOL     OW84264   7.280   4.815   3.708  0.4237  0.3587 -0.2092
25675SOL    HW184265   7.335   4.886   3.673 -0.5856 -0.5619 -4.1527
25675SOL    HW284266   7.341   4.743   3.723  1.0988  1.2277  1.5204
25676SOL     OW84267  10.651   4.070   0.523  0.3830  0.5998 -0.1420
25676SOL    HW184268  10.673   4.034   0.437  0.9133  1.5106 -0.4015
25676SOL    HW284269  10.716   4.032   0.582  0.7176  0.8345 -0.3512
25677SOL     OW84270   8.483   9.728   4.256  0.3535  0.3101 -0.4847
25677SOL    HW184271   8.571   9.690   4.255 -0.2249 -1.0962 -1.1870
25677SOL    HW284272   8.439   9.686   4.330 -0.3258 -0.5001 -1.3229
25678SOL     OW84273   2.782   9.947   3.343 -0.5931 -0.3483  0.2139
25678SOL    HW184274   2.744  10.032   3.364 -1.6272 -0.0461 -2.4524
25678SOL    HW284275   2.706   9.893   3.319  0.1988 -1.4763  0.1927
25679SOL     OW84276   7.348  10.121   8.637 -0.4108 -0.3222 -0.1369
25679SOL    HW184277   7.375  10.212   8.624 -0.8261 -0.1905 -0.0939
25679SOL    HW284278   7.430  10.072   8.637 -0.0098  0.2690  1.7853
25680SOL     OW84279   7.309   2.774   5.037  0.3650  0.6002 -0.2176
25680SOL    HW184280   7.393   2.737   5.061  0.8515  1.7604 -0.0749
25680SOL    HW284281   7.315   2.789   4.942  0.2381  0.5088 -0.2419
25681SOL     OW84282  12.531   1.954   1.553  0.1287  0.0612 -0.4470
25681SOL    HW184283  12.571   2.039   1.570 -0.4867  0.2052  0.3243
25681SOL    HW284284  12.584   1.892   1.602  1.4747 -0.2399 -2.1541
25682SOL     OW84285   6.426   0.454   2.745  0.2571  0.7168  0.3381
25682SOL    HW184286   6.521   0.442   2.746  0.3705  1.5797  0.4158
25682SOL    HW284287   6.405   0.465   2.653  0.3844  1.6220  0.4087
25683SOL     OW84288  11.030   7.247  12.273 -0.2387 -0.6367  0.4160
25683SOL    HW184289  10.977   7.174  12.305 -0.1332 -0.4124  1.1016
25683SOL    HW284290  10.993   7.267  12.187 -1.1653 -0.5744  0.8227
25684SOL     OW84291   2.871  10.712   4.696 -0.0758  0.1899 -0.2139
25684SOL    HW184292   2.924  10.723   4.775  0.7567  0.8909 -0.8528
25684SOL    HW284293   2.824  10.630   4.710  0.0756  0.2869  0.9971
25685SOL     OW84294   4.287   7.846   0.691  0.1047 -0.0271  0.2147
25685SOL    HW184295   4.298   7.825   0.784 -0.4424  1.8186  0.7409
25685SOL    HW284296   4.289   7.761   0.647  0.3126 -0.9515  1.9165
25686SOL     OW84297   8.833   6.477   1.512  0.3995  0.3920 -0.4589
25686SOL    HW184298   8.854   6.560   1.469 -0.2727  0.6182 -0.3602
25686SOL    HW284299   8.786   6.427   1.445  0.4154  0.2664 -0.3760
25687SOL     OW84300  10.134  11.681   4.100 -0.6306  0.1127 -0.1507
25687SOL    HW184301  10.052  11.669   4.147  0.1280 -0.2399  1.1319
25687SOL    HW284302  10.202  11.672   4.167  0.4823 -0.0792 -1.2595
25688SOL     OW84303   1.205   3.210   8.966 -0.0970 -0.4288  0.4192
25688SOL    HW184304   1.148   3.230   9.039  0.0370  1.4802  0.0457
25688SOL    HW284305   1.157   3.145   8.915 -0.6327 -1.0067  1.6302
25689SOL     OW84306  11.865   2.766   0.370  0.1778  0.1124  0.0619
25689SOL    HW184307  11.825   2.788   0.454  1.9773  1.1770  0.7210
25689SOL    HW284308  11.816   2.691   0.337 -1.2944  0.4033  1.5121
25690SOL     OW84309   1.327  11.380  10.020 -0.5700  0.1676 -0.1436
25690SOL    HW184310   1.273  11.303  10.037 -2.1656  1.3401  0.3835
25690SOL    HW284311   1.312  11.399   9.927 -0.4820  0.0502 -0.1818
25691SOL     OW84312   5.304   4.942  10.663  0.3196 -0.2015  0.2374
25691SOL    HW184313   5.266   4.854  10.650  0.8735 -0.1055 -2.8661
25691SOL    HW284314   5.233   5.002  10.642  0.5843  0.0391  0.0139
25692SOL     OW84315   7.527   1.562   4.667  0.1201 -0.2830  0.5419
25692SOL    HW184316   7.498   1.571   4.576  1.0984  0.8639  0.3164
25692SOL    HW284317   7.531   1.467   4.681 -1.9123 -0.4859  0.0367
25693SOL     OW84318   0.897   3.042   3.717 -0.3524  0.3401 -0.4064
25693SOL    HW184319   0.919   3.115   3.775 -0.4195 -0.0411  0.1083
25693SOL    HW284320   0.818   3.004   3.756  0.5449 -0.9696  0.2444
25694SOL     OW84321   2.490  10.136   8.590 -0.2723  0.1473 -0.0860
25694SOL    HW184322   2.581  10.151   8.617 -0.4745  0.6704  0.3411
25694SOL    HW284323   2.495  10.066   8.526  0.4813  0.4400 -0.3634
25695SOL     OW84324  12.208   9.643   3.383  0.4277  0.5408 -0.0792
25695SOL    HW184325  12.137   9.690   3.426  1.8582  1.5596  1.2975
25695SOL    HW284326  12.202   9.553   3.416 -0.2535  0.5962 -0.0486
25696SOL     OW84327   7.525   7.013   3.618 -0.2376  0.1606  0.0819
25696SOL    HW184328   7.480   6.998   3.701 -0.6323  1.0794  0.0470
25696SOL    HW284329   7.466   6.977   3.552  0.3279 -1.0655  0.2314
25697SOL     OW84330   1.133   1.671   7.383  0.4267 -0.2588  0.3924
25697SOL    HW184331   1.104   1.758   7.353 -0.6147 -0.4378  0.8231
25697SOL    HW284332   1.067   1.645   7.447  1.1452 -1.0524  0.8228
25698SOL     OW84333   3.572   5.100  12.700  0.2576  0.2061  0.1588
25698SOL    HW184334   3.585   5.190  12.731  1.4435  1.2658 -2.9930
25698SOL    HW284335   3.488   5.103  12.655 -0.7249 -0.8885  1.8519
25699SOL     OW84336  10.813   1.082   4.899  0.3357 -0.0667 -0.4937
25699SOL    HW184337  10.726   1.061   4.933 -0.1344  0.8114 -1.1344
25699SOL    HW284338  10.818   1.035   4.816  0.0469  0.7497 -0.9791
25700SOL     OW84339   5.275   5.524   2.928  0.4815 -0.3900 -0.6657
25700SOL    HW184340   5.309   5.437   2.906  1.6735  0.6365 -3.2466
25700SOL    HW284341   5.353   5.576   2.948  0.0969  0.7616 -1.9629
25701SOL     OW84342   7.433  11.390   9.666  0.3638  0.5172  0.5327
25701SOL    HW184343   7.526  11.403   9.685  0.7279 -1.1283  0.0476
25701SOL    HW284344   7.425  11.412   9.573  1.3184 -3.6265 -0.7529
25702SOL     OW84345   3.903   9.701  10.021 -0.2871  0.1154 -0.1178
25702SOL    HW184346   3.975   9.736  10.073  0.0239  1.8340 -1.6113
25702SOL    HW284347   3.824   9.740  10.060 -0.1930  0.1802  0.0054
25703SOL     OW84348   3.759   1.354  11.515  0.6588  0.0684 -0.2930
25703SOL    HW184349   3.767   1.322  11.425 -0.8239 -0.7154 -0.1680
25703SOL    HW284350   3.704   1.289  11.558  0.1604  1.2051  0.8122
25704SOL     OW84351   0.421  12.374   7.971 -0.5195 -0.5085 -0.1400
25704SOL    HW184352   0.409  12.297   7.916 -0.3054 -0.9041  0.3584
25704SOL    HW284353   0.426  12.339   8.060 -1.3070  0.1593  0.1832
25705SOL     OW84354  10.386   7.030   5.286 -0.2369  0.3093  0.2998
25705SOL    HW184355  10.467   7.048   5.334 -0.0180 -1.0540  0.4912
25705SOL    HW284356  10.331   7.106   5.302  0.8739  1.1085  0.4544
25706SOL     OW84357   6.594   8.676   5.272  0.3411  0.3306  0.3198
25706SOL    HW184358   6.612   8.663   5.365  1.7069  0.2806  0.0683
25706SOL    HW284359   6.595   8.588   5.235 -1.2395  0.2466  0.4030
25707SOL     OW84360   8.527   2.231   1.332 -0.4936 -0.0820 -0.5279
25707SOL    HW184361   8.580   2.231   1.412 -0.2701 -1.7353 -0.6374
25707SOL    HW284362   8.582   2.275   1.267  0.6442 -1.4719 -0.5497
25708SOL     OW84363   8.742  11.381  10.979  0.2499  0.3022 -0.5045
25708SOL    HW184364   8.703  11.454  10.931  0.7472  0.3272 -0.8794
25708SOL    HW284365   8.828  11.414  11.007  0.3532 -0.0320 -0.4152
25709SOL     OW84366   5.735  11.595   8.516  0.0620  0.0740  0.0458
25709SOL    HW184367   5.679  11.557   8.448  0.1985 -0.2839  0.1314
25709SOL    HW284368   5.760  11.521   8.570  1.2436  0.0959 -0.4425
25710SOL     OW84369   1.997   2.735   5.075 -0.2735  0.3966 -0.2143
25710SOL    HW184370   2.044   2.676   5.135 -0.5685  0.0235 -0.3489
25710SOL    HW284371   2.066   2.790   5.037  0.0315  0.0002 -0.2430
25711SOL     OW84372   1.509   3.525   9.948 -0.6923  0.0517  0.1849
25711SOL    HW184373   1.593   3.511   9.905 -0.3936 -0.2107  0.8319
25711SOL    HW284374   1.487   3.439   9.984 -1.3443  0.0685 -0.1675
25712SOL     OW84375  10.036  10.976  10.895  0.0238  0.3456 -0.3427
25712SOL    HW184376  10.109  10.992  10.955  1.2896  0.5902 -1.8929
25712SOL    HW284377   9.973  10.926  10.947  1.8356 -0.9665  0.6806
25713SOL     OW84378   0.079   3.543  11.865 -0.7923  0.0593 -0.1817
25713SOL    HW184379   0.163   3.506  11.895 -0.0940  1.3526 -0.4822
25713SOL    HW284380   0.020   3.528  11.939 -0.4527 -1.3413 -0.1634
25714SOL     OW84381  11.154   2.372   8.388  0.3142  0.1037 -0.0918
25714SOL    HW184382  11.120   2.451   8.431  0.1266 -0.5976  1.1293
25714SOL    HW284383  11.180   2.400   8.301  1.2233  1.7333  0.6723
25715SOL     OW84384   0.854   0.204   5.578  0.2066 -0.0552 -0.2224
25715SOL    HW184385   0.817   0.210   5.666 -1.3950 -1.9741 -0.6796
25715SOL    HW284386   0.948   0.197   5.592  0.0245  0.2092  1.3069
25716SOL     OW84387   5.068   2.985  11.347 -0.0754  0.3335 -0.7074
25716SOL    HW184388   5.012   2.909  11.367  0.2739  0.4637  0.9091
25716SOL    HW284389   5.157   2.955  11.365 -0.0774  1.6959  2.1664
25717SOL     OW84390   0.857  10.448   5.414  0.6930  0.3511 -0.1893
25717SOL    HW184391   0.919  10.521   5.417  0.1042  0.8184  1.6487
25717SOL    HW284392   0.912  10.370   5.412  1.3278  0.8065 -1.1337
25718SOL     OW84393   4.227   6.876   5.202  0.3662 -0.1958 -0.4201
25718SOL    HW184394   4.181   6.960   5.200 -1.3039 -1.0145  0.8456
25718SOL    HW284395   4.176   6.819   5.144 -0.3504 -1.1571  1.0824
25719SOL     OW84396   7.287  10.478  11.231  0.1645  0.0277 -0.2952
25719SOL    HW184397   7.291  10.447  11.141 -0.6252  0.4034 -0.4679
25719SOL    HW284398   7.288  10.574  11.224  0.5519  0.0556  0.1165
25720SOL     OW84399   8.133   9.526   1.037 -0.0000  0.2648 -0.7262
25720SOL    HW184400   8.117   9.618   1.056 -0.0144 -0.0950  1.2027
25720SOL    HW284401   8.051   9.494   1.000 -0.4354  0.7427 -0.1900
25721SOL     OW84402   0.298  10.987   0.347  0.4301  0.1498  0.5054
25721SOL    HW184403   0.287  10.960   0.438 -1.4964 -1.2205 -0.0954
25721SOL    HW284404   0.300  11.083   0.351 -2.3028  0.2352  1.7786
25722SOL     OW84405   7.434   3.598   0.088  0.3329 -0.4807 -0.1674
25722SOL    HW184406   7.453   3.571  -0.002  1.3405 -0.8092  0.1315
25722SOL    HW284407   7.519   3.616   0.126 -0.1793  1.0462  0.3058
25723SOL     OW84408   6.208   5.452   0.896 -0.3244  0.4816 -0.4843
25723SOL    HW184409   6.200   5.374   0.951 -0.7572 -0.0334 -1.2591
25723SOL    HW284410   6.118   5.474   0.873 -0.2452  1.5702  0.2099
25724SOL     OW84411  11.061  12.477   6.798 -0.4776 -0.0082  0.8310
25724SOL    HW184412  11.079  12.571   6.790  1.0587 -0.2276  1.2701
25724SOL    HW284413  10.998  12.459   6.729 -0.2315  1.2166  0.2488
25725SOL     OW84414   6.677   4.656   6.917  0.7969  0.3599 -0.1110
25725SOL    HW184415   6.606   4.605   6.955  1.3185  0.4478  1.0168
25725SOL    HW284416   6.691   4.616   6.830 -0.8872  0.6185 -0.5345
25726SOL     OW84417  11.056   8.272  12.291  0.3036 -0.0989 -1.1816
25726SOL    HW184418  10.998   8.341  12.260 -1.6653 -0.2972  1.6583
25726SOL    HW284419  11.004   8.223  12.354  3.3554 -0.5361  1.3025
25727SOL     OW84420   4.599   2.383   6.704 -0.7847 -0.5325 -0.2950
25727SOL    HW184421   4.553   2.303   6.678  2.1363 -2.4934  0.1085
25727SOL    HW284422   4.596   2.382   6.799 -0.4610 -0.3304 -0.2833
25728SOL     OW84423   9.187   0.978   6.098  0.4014 -0.1660 -0.7395
25728SOL    HW184424   9.197   1.061   6.144  0.5544 -0.5014 -0.1619
25728SOL    HW284425   9.137   0.923   6.157  0.0082 -0.3789 -1.2637
25729SOL     OW84426   3.492   4.255   0.652 -0.1910 -0.6283 -0.0940
25729SOL    HW184427   3.412   4.209   0.679 -1.7809  1.8356 -0.3188
25729SOL    HW284428   3.505   4.230   0.560 -0.6545 -1.0808 -0.0385
25730SOL     OW84429   6.293   3.609   3.063 -0.1333 -0.0001  0.2557
25730SOL    HW184430   6.235   3.683   3.082  1.3956  1.4923 -0.4978
25730SOL    HW284431   6.350   3.603   3.140  0.6656  0.5923 -0.2624
25731SOL     OW84432   1.077   7.865  10.483 -0.1864  0.2848 -0.1595
25731SOL    HW184433   1.152   7.830  10.435 -0.7873 -2.5059  0.7282
25731SOL    HW284434   1.098   7.850  10.575 -1.1587  0.9080  0.1809
25732SOL     OW84435   3.478   1.846   3.882 -0.1539  1.0787 -0.4834
25732SOL    HW184436   3.475   1.751   3.887 -0.0804  1.0888 -0.2579
25732SOL    HW284437   3.531   1.864   3.804  0.0643  0.9374 -0.3671
25733SOL     OW84438   8.681   9.370   2.954 -0.1811 -0.1676  0.3715
25733SOL    HW184439   8.727   9.413   3.026  0.9494 -1.4320  0.4320
25733SOL    HW284440   8.749   9.322   2.907 -1.0474 -0.0844 -1.0275
25734SOL     OW84441  10.432   9.452   9.156  0.0254  0.4718 -0.0386
25734SOL    HW184442  10.421   9.452   9.251  0.1328 -0.9588  0.0055
25734SOL    HW284443  10.459   9.362   9.135 -0.0919  0.7303 -1.4312
25735SOL     OW84444   9.079   8.118  11.390 -0.4232  0.7241  0.0885
25735SOL    HW184445   9.089   8.211  11.368 -1.6301  0.8831  0.1228
25735SOL    HW284446   9.027   8.082  11.318  1.6479 -0.3872 -0.9112
25736SOL     OW84447   6.251  11.529   9.228 -0.0163 -0.4074 -0.1224
25736SOL    HW184448   6.301  11.523   9.147  2.5321  1.3231  1.1754
25736SOL    HW284449   6.259  11.442   9.267 -0.8789 -1.1208 -1.4528
25737SOL     OW84450   9.102   4.819   2.362 -0.3117  0.1541 -0.1702
25737SOL    HW184451   9.011   4.791   2.351 -0.4887  0.3903  0.5833
25737SOL    HW284452   9.152   4.762   2.304 -0.7666 -1.0921  0.6217
25738SOL     OW84453   3.604  10.605   6.458 -0.1168  0.0530 -0.0449
25738SOL    HW184454   3.559  10.525   6.431 -1.4736  0.1277  1.8085
25738SOL    HW284455   3.534  10.661   6.494  1.0338  1.4404  0.1252
25739SOL     OW84456   9.062   5.309   8.595  0.2001  0.1014 -0.0715
25739SOL    HW184457   9.098   5.241   8.652  0.1864 -0.1858 -0.4028
25739SOL    HW284458   9.136   5.338   8.542  0.7765  1.9666  1.6011
25740SOL     OW84459  10.276   0.730   0.230  0.3049 -0.5713 -0.4160
25740SOL    HW184460  10.182   0.739   0.244  0.5144  0.4730  0.4318
25740SOL    HW284461  10.314   0.810   0.265  1.5963 -1.3331  0.0265
25741SOL     OW84462   6.393   6.330   5.329  0.1297  0.3597  0.2444
25741SOL    HW184463   6.340   6.272   5.383 -0.9964  0.7828 -0.3553
25741SOL    HW284464   6.424   6.398   5.388 -0.6856  0.5520  0.4566
25742SOL     OW84465   9.109  12.337   9.624 -0.0593 -0.6990  0.7007
25742SOL    HW184466   9.182  12.309   9.680  0.2204 -0.8231  0.2785
25742SOL    HW284467   9.149  12.350   9.538 -0.1907  0.9044  0.8505
25743SOL     OW84468   6.588  12.552   6.866  0.4123  0.1329 -0.2938
25743SOL    HW184469   6.627  12.538   6.952  0.3006 -1.2023 -0.4344
25743SOL    HW284470   6.559  12.465   6.839  0.1955  0.5795 -1.5595
25744SOL     OW84471   5.106   0.846   1.595  0.3656  0.0073  0.2001
25744SOL    HW184472   5.076   0.910   1.660 -2.0037 -1.1307  0.3519
25744SOL    HW284473   5.178   0.890   1.550  0.9033  1.5472  2.3503
25745SOL     OW84474   0.863   7.799   1.223 -0.3205 -0.4296 -0.5796
25745SOL    HW184475   0.858   7.802   1.128 -2.0421 -1.6900 -0.5724
25745SOL    HW284476   0.786   7.847   1.253  0.2401  0.0101  0.1991
25746SOL     OW84477   8.486   1.817   2.038  0.4993 -0.1004 -0.3517
25746SOL    HW184478   8.505   1.892   2.095  0.9238 -0.5519  0.1106
25746SOL    HW284479   8.399   1.787   2.065  0.2417  0.3486 -0.6746
25747SOL     OW84480   9.752   1.464   9.338  0.1113 -0.3222 -0.2735
25747SOL    HW184481   9.673   1.474   9.284  0.0299  1.7863  0.1474
25747SOL    HW284482   9.721   1.428   9.421 -0.1942 -0.7971 -0.5897
25748SOL     OW84483   0.398  10.256  10.525 -0.5323 -0.3476 -0.0857
25748SOL    HW184484   0.417  10.301  10.443 -1.0631 -0.8742 -0.5067
25748SOL    HW284485   0.308  10.280  10.546  0.2775  1.5459  1.5116
25749SOL     OW84486   2.009   3.999   9.517 -0.2322 -0.0257  0.1038
25749SOL    HW184487   2.016   3.960   9.604  0.0787  0.7921  0.4477
25749SOL    HW284488   1.914   4.008   9.503 -0.2908  2.5682  1.6194
25750SOL     OW84489   4.339   1.793   6.131 -0.1038 -1.2266 -0.0346
25750SOL    HW184490   4.413   1.805   6.190 -1.2169  3.4759  0.7786
25750SOL    HW284491   4.265   1.774   6.188 -0.2286 -2.1983 -0.4965
25751SOL     OW84492   3.608   4.064   4.816  0.5183 -0.1865 -0.2497
25751SOL    HW184493   3.626   4.155   4.793 -0.9302 -0.0599 -1.0237
25751SOL    HW284494   3.627   4.059   4.910 -0.5082  1.2348  0.0653
25752SOL     OW84495   3.348   7.948   1.379  0.0320  0.0564 -0.2666
25752SOL    HW184496   3.388   7.899   1.451 -1.0285 -0.6540 -0.1300
25752SOL    HW284497   3.394   8.032   1.379  1.0767 -0.4903  0.2636
25753SOL     OW84498   9.422   4.477   4.652 -0.0546 -0.0436  0.0294
25753SOL    HW184499   9.476   4.530   4.592  0.2793 -1.2569 -0.7703
25753SOL    HW284500   9.477   4.467   4.730  0.6519 -0.7537 -0.5424
25754SOL     OW84501   7.758  12.425   0.533  0.1274  0.0044 -0.0990
25754SOL    HW184502   7.779  12.345   0.581 -0.5733  1.0728  2.1352
25754SOL    HW284503   7.807  12.418   0.451  2.2462 -1.4648  1.2044
25755SOL     OW84504   5.185   3.430  12.485  0.5342  0.0275 -0.0910
25755SOL    HW184505   5.169   3.515  12.525  2.0431  0.3866 -0.2081
25755SOL    HW284506   5.259   3.394  12.533  0.3714 -0.9183 -0.5165
25756SOL     OW84507  10.025   6.839   3.527  0.3751  0.0378  0.4799
25756SOL    HW184508  10.119   6.817   3.530  0.2992 -0.2022  1.5421
25756SOL    HW284509   9.981   6.761   3.559 -0.1574  0.3571  0.5352
25757SOL     OW84510   8.001   2.436   2.610 -0.2072 -0.0988 -0.1244
25757SOL    HW184511   8.042   2.512   2.652  0.3395  0.4003 -1.4883
25757SOL    HW284512   8.005   2.456   2.516 -0.9538 -1.3768 -0.4491
25758SOL     OW84513   6.888  11.619  10.274 -0.3516 -0.4955  0.0050
25758SOL    HW184514   6.935  11.689  10.320  0.1395  0.4200 -1.8017
25758SOL    HW284515   6.957  11.568  10.230 -0.9110  0.0668 -1.5974
25759SOL     OW84516   4.981   7.467   0.357  0.6779 -0.3964  0.2773
25759SOL    HW184517   5.033   7.477   0.436  2.4448  1.2857 -1.0146
25759SOL    HW284518   4.892   7.492   0.383  1.4195  1.0734  1.5383
25760SOL     OW84519   5.071   1.670  10.396 -0.4530 -0.3951 -0.2532
25760SOL    HW184520   5.132   1.722  10.448  0.4684 -2.0849  0.4439
25760SOL    HW284521   5.128   1.611  10.345 -1.4187 -0.1855 -1.6307
25761SOL     OW84522  10.292   5.625   7.177  0.1060 -0.1858  0.0838
25761SOL    HW184523  10.381   5.614   7.210 -0.0274  1.1865  0.9820
25761SOL    HW284524  10.293   5.709   7.130  0.1186 -1.7623 -2.9656
25762SOL     OW84525   9.472   0.805   4.880  0.3392 -0.1422  0.3543
25762SOL    HW184526   9.398   0.766   4.833 -0.0664  0.5746  0.3854
25762SOL    HW284527   9.548   0.758   4.847 -0.2577 -1.8787  1.3639
25763SOL     OW84528   0.616   9.721   4.333 -0.5436 -1.0046  0.3552
25763SOL    HW184529   0.647   9.720   4.424  1.5399 -0.2949 -0.2944
25763SOL    HW284530   0.692   9.695   4.281 -0.7110  1.5943 -1.3981
25764SOL     OW84531   0.678   9.246   0.177  0.2605  0.3847 -0.1143
25764SOL    HW184532   0.632   9.178   0.226 -1.0976  1.2758 -0.0936
25764SOL    HW284533   0.679   9.214   0.086 -0.5898  0.4388 -0.1479
25765SOL     OW84534   5.133   8.814   3.210 -0.1491  0.1397  0.0638
25765SOL    HW184535   5.187   8.815   3.289 -1.8835  3.5190  1.4090
25765SOL    HW284536   5.173   8.880   3.153 -1.2407  0.6649 -0.1055
25766SOL     OW84537   4.172  12.504   5.691  0.3366 -0.2805  0.2718
25766SOL    HW184538   4.135  12.557   5.621 -0.8633 -1.6126 -0.1469
25766SOL    HW284539   4.157  12.556   5.771  1.5783  1.1691 -0.3828
25767SOL     OW84540  12.707   1.206   7.414  0.3431 -0.0260 -0.4834
25767SOL    HW184541  12.612   1.212   7.421  0.2562 -1.2090 -0.4859
25767SOL    HW284542  12.723   1.120   7.373  1.3864  0.4258 -1.0720
25768SOL     OW84543  10.334   5.081   8.895  0.5407  0.1901 -0.2878
25768SOL    HW184544  10.421   5.062   8.929  0.0849 -1.4290  0.0758
25768SOL    HW284545  10.277   5.075   8.972  0.0204  0.4782 -0.6465
25769SOL     OW84546   1.121   7.549   9.817  0.1317  0.1129  0.1602
25769SOL    HW184547   1.038   7.591   9.792 -0.0423 -0.4154 -0.1880
25769SOL    HW284548   1.094   7.462   9.847  0.5106  0.1429  0.5794
25770SOL     OW84549   6.095   0.725   7.469  0.1673  0.3738  0.4361
25770SOL    HW184550   6.125   0.803   7.422  0.2110 -0.1909 -0.4986
25770SOL    HW284551   6.039   0.759   7.539 -0.4456  1.2145 -0.4336
25771SOL     OW84552  10.237  10.920  11.654 -0.4733 -0.0681  0.0956
25771SOL    HW184553  10.309  10.973  11.620 -0.7014  2.6828  3.3681
25771SOL    HW284554  10.265  10.894  11.742 -2.3209 -1.3597  0.3607
25772SOL     OW84555  11.834   2.165   5.806  0.4400  0.2940  0.3608
25772SOL    HW184556  11.806   2.078   5.834 -2.0624  0.4232 -1.3541
25772SOL    HW284557  11.754   2.219   5.813  0.9838  1.5400 -1.9674
25773SOL     OW84558   1.003   4.028   5.158 -0.3593 -0.0024  0.0903
25773SOL    HW184559   1.023   4.121   5.172  0.4001 -0.1593  0.0747
25773SOL    HW284560   0.926   4.029   5.100  0.0780  0.6166 -0.5026
25774SOL     OW84561   5.748   6.645   7.772 -0.1309  0.4444 -0.3759
25774SOL    HW184562   5.665   6.674   7.811  0.1770  1.1434 -0.2276
25774SOL    HW284563   5.723   6.575   7.712 -0.6234 -0.6261  1.0212
25775SOL     OW84564   5.331   4.911   0.264 -0.2417  0.3721  0.7814
25775SOL    HW184565   5.308   4.965   0.340 -0.1687  0.0593  1.0274
25775SOL    HW284566   5.342   4.823   0.299 -1.2530  0.0118  0.2446
25776SOL     OW84567  12.104  11.237   1.330  0.1263  0.6413  0.3872
25776SOL    HW184568  12.057  11.196   1.403  1.1902 -0.3182  0.5471
25776SOL    HW284569  12.040  11.298   1.292 -1.7061 -1.4707 -0.1526
25777SOL     OW84570  10.355   8.157   1.631  0.6128  0.1042  0.0876
25777SOL    HW184571  10.297   8.101   1.683  0.0841 -0.2341 -0.8315
25777SOL    HW284572  10.299   8.227   1.598  0.8121  0.0298 -0.4340
25778SOL     OW84573   6.974   5.114  12.454 -0.2251  0.1666  0.3636
25778SOL    HW184574   6.921   5.178  12.407 -1.4944 -1.9888 -1.3864
25778SOL    HW284575   6.991   5.153  12.539 -0.1343  3.1463 -0.9191
25779SOL     OW84576   5.397   0.518   7.646  0.6252  0.3528 -0.0874
25779SOL    HW184577   5.390   0.526   7.741 -0.4747 -0.9107 -0.0334
25779SOL    HW284578   5.404   0.608   7.614 -0.9195  0.9199  1.0741
25780SOL     OW84579   7.962   0.224  10.012 -0.0695 -0.4631 -0.3058
25780SOL    HW184580   8.023   0.152  10.023  0.3227  0.0583  1.2915
25780SOL    HW284581   8.012   0.292   9.966 -0.3359 -1.0666 -1.5040
25781SOL     OW84582   8.394   0.474   3.776 -0.1880  0.2688 -0.3635
25781SOL    HW184583   8.477   0.476   3.825 -0.3218 -0.6705 -0.0730
25781SOL    HW284584   8.332   0.435   3.837 -1.0752  1.7482 -0.2679
25782SOL     OW84585   5.605  10.207   4.299  0.5062 -0.0743 -0.3180
25782SOL    HW184586   5.595  10.294   4.260 -2.1468  0.1185  0.6086
25782SOL    HW284587   5.696  10.204   4.327  0.5686  2.5903  0.0451
25783SOL     OW84588  11.655  10.830   3.539 -0.1243 -0.0500  0.2297
25783SOL    HW184589  11.639  10.797   3.450 -2.1318 -0.6543  0.7599
25783SOL    HW284590  11.575  10.878   3.561  1.0243  1.5268  1.1148
25784SOL     OW84591  10.284   2.902   2.162 -0.0105  0.0831 -0.1649
25784SOL    HW184592  10.305   2.862   2.246  1.4763 -0.7343 -0.8881
25784SOL    HW284593  10.275   2.828   2.102  1.4993  0.7410 -1.2601
25785SOL     OW84594  11.287   4.275   7.486 -0.0657 -0.0652  0.6805
25785SOL    HW184595  11.354   4.314   7.543  1.5247 -2.9790  0.9776
25785SOL    HW284596  11.336   4.241   7.411 -1.5968 -0.0262 -0.3890
25786SOL     OW84597   9.981   3.277  10.145 -0.6917 -0.2162 -0.4657
25786SOL    HW184598  10.002   3.317  10.230 -2.0210 -0.8959  0.2146
25786SOL    HW284599   9.965   3.351  10.087 -1.5594  0.2723  0.3613
25787SOL     OW84600   6.903   4.537   7.921  0.4169 -0.5584  0.4204
25787SOL    HW184601   6.844   4.579   7.984  0.1247  0.3605 -0.4473
25787SOL    HW284602   6.851   4.525   7.842  1.7311  1.6476 -0.8860
25788SOL     OW84603   3.181   2.400  11.399  0.2311  0.1507  0.6353
25788SOL    HW184604   3.172   2.436  11.488 -2.2062  3.3117 -0.6680
25788SOL    HW284605   3.231   2.466  11.351  1.6766 -1.5957 -0.3856
25789SOL     OW84606   9.265   6.816   0.689 -0.0091 -0.0351  0.4091
25789SOL    HW184607   9.250   6.752   0.758 -0.3302  0.7106  1.0434
25789SOL    HW284608   9.214   6.892   0.716  1.2135  0.8697  0.1999
25790SOL     OW84609   9.418   1.732   1.267 -0.0352 -0.2154 -0.0952
25790SOL    HW184610   9.505   1.697   1.249  0.2226  0.3100  0.0973
25790SOL    HW284611   9.402   1.793   1.195  0.1157  0.3182  0.3154
25791SOL     OW84612   8.737   4.239   7.813  0.0456  0.4434 -0.2048
25791SOL    HW184613   8.699   4.290   7.884 -0.2286  1.7655 -1.2656
25791SOL    HW284614   8.817   4.202   7.850 -1.1001 -0.5635  1.3868
25792SOL     OW84615   8.403  10.600   6.302  0.0456 -0.2880  0.0202
25792SOL    HW184616   8.348  10.528   6.272 -1.3821  0.9381 -0.4629
25792SOL    HW284617   8.362  10.629   6.384  1.1352 -0.5774  0.6882
25793SOL     OW84618   7.536   8.527   1.548  0.1995 -0.1175  0.2332
25793SOL    HW184619   7.488   8.496   1.624 -0.9588 -0.2666 -0.5263
25793SOL    HW284620   7.513   8.620   1.541  1.6162  0.3316  0.9975
25794SOL     OW84621   9.514  12.220   4.995  0.2239 -0.3390  0.4660
25794SOL    HW184622   9.474  12.271   5.066  1.1592  0.4148  0.4788
25794SOL    HW284623   9.590  12.178   5.036  1.9187  1.6257 -0.4435
25795SOL     OW84624   3.506   3.684   0.163 -0.2327 -0.4586 -0.4545
25795SOL    HW184625   3.536   3.740   0.235 -2.1360  2.1863 -1.5654
25795SOL    HW284626   3.524   3.734   0.084  1.6650 -3.2336 -1.9364
25796SOL     OW84627   1.907   1.249   8.641  0.2375 -0.1301  0.4181
25796SOL    HW184628   1.877   1.217   8.556 -0.9544  1.1331  0.3288
25796SOL    HW284629   1.838   1.224   8.702  1.6228 -2.0683  1.2814
25797SOL     OW84630   8.060   4.369   5.468 -0.3196 -0.5453  0.6069
25797SOL    HW184631   8.137   4.366   5.525 -0.4367 -0.4024  0.7714
25797SOL    HW284632   8.009   4.443   5.500  1.4497  2.0173 -1.9703
25798SOL     OW84633   0.931   1.055   6.915  0.1069 -0.0559 -0.0815
25798SOL    HW184634   1.005   1.086   6.967  0.4772 -1.2067  0.1108
25798SOL    HW284635   0.971   1.005   6.844 -0.4289  0.8140 -1.0199
25799SOL     OW84636   9.295   1.667   8.561  0.8353 -0.0852 -0.0510
25799SOL    HW184637   9.230   1.650   8.493  0.5783 -0.5024  0.2929
25799SOL    HW284638   9.247   1.717   8.627 -0.1295 -3.0924  1.7583
25800SOL     OW84639  11.104   7.968   1.952  0.5828 -0.3700  0.4617
25800SOL    HW184640  11.082   7.876   1.934 -0.7823  0.0551 -0.2027
25800SOL    HW284641  11.173   7.989   1.890 -0.0300 -0.5767 -0.3026
25801SOL     OW84642   5.802   7.113   9.629 -0.0503 -0.5747  0.3810
25801SOL    HW184643   5.862   7.045   9.661 -2.1222 -1.6933  2.0891
25801SOL    HW284644   5.836   7.194   9.667  0.1018 -1.2620  1.7953
25802SOL     OW84645   9.079   8.596   7.386 -0.8732 -0.3501 -0.1947
25802SOL    HW184646   9.020   8.583   7.312 -1.6726  1.8891 -0.0549
25802SOL    HW284647   9.091   8.691   7.389  2.7727 -0.6949 -0.1966
25803SOL     OW84648   2.740   4.426   0.550 -0.3301  0.0769  0.2161
25803SOL    HW184649   2.654   4.411   0.592 -0.7717  1.0691 -0.2975
25803SOL    HW284650   2.723   4.493   0.484  0.3183 -1.5796 -1.7215
25804SOL     OW84651   8.886   3.386   4.446  0.4547 -0.0133  0.0128
25804SOL    HW184652   8.807   3.409   4.496  0.0176  2.7343 -1.7004
25804SOL    HW284653   8.902   3.294   4.467 -2.4176 -0.3083  1.4506
25805SOL     OW84654  11.480   7.149   4.776 -0.2244  0.3192  0.3850
25805SOL    HW184655  11.567   7.185   4.793 -0.5605  0.9293  0.8369
25805SOL    HW284656  11.442   7.208   4.711 -0.2070 -0.1041 -0.0205
25806SOL     OW84657   7.738   7.248   3.126 -0.4843  0.0252 -0.4161
25806SOL    HW184658   7.655   7.295   3.130 -0.1360  0.7462 -1.2650
25806SOL    HW284659   7.756   7.240   3.032  0.2103 -0.4772 -0.2484
25807SOL     OW84660   7.868   7.659  12.276  0.1384 -0.0024 -0.4128
25807SOL    HW184661   7.836   7.732  12.329 -1.4693 -1.3422  0.5457
25807SOL    HW284662   7.885   7.589  12.339  1.0961 -0.6644 -1.3721
25808SOL     OW84663   4.258  10.818   1.921  0.3026 -0.1011  0.7555
25808SOL    HW184664   4.249  10.786   1.832  0.7212 -0.8635  0.9809
25808SOL    HW284665   4.332  10.879   1.918 -1.9600  2.8158 -0.1847
25809SOL     OW84666   6.853   1.745   1.541 -0.8715  0.0953 -0.1277
25809SOL    HW184667   6.865   1.656   1.575  1.4287  0.8702  1.2791
25809SOL    HW284668   6.890   1.742   1.453  1.6353  0.2166  0.8554
25810SOL     OW84669   0.936   3.410   9.021 -0.4061 -0.5671 -0.8174
25810SOL    HW184670   0.931   3.412   8.925  0.4423  0.7363 -0.8653
25810SOL    HW284671   0.869   3.472   9.050  1.7830  1.9369 -0.7591
25811SOL     OW84672  11.659   0.514   7.423  0.2755  0.4684 -0.2521
25811SOL    HW184673  11.584   0.457   7.404 -1.3205  2.4892 -0.4700
25811SOL    HW284674  11.734   0.469   7.386 -0.7307 -1.9279  0.4559
25812SOL     OW84675   9.723  10.967   2.765 -0.4859 -0.3954  0.3561
25812SOL    HW184676   9.805  11.016   2.765  0.1688 -1.4532  1.1307
25812SOL    HW284677   9.707  10.946   2.857 -1.2780 -0.7714  0.1429
25813SOL     OW84678   2.511   5.332   3.308 -0.2999 -0.5090  1.0163
25813SOL    HW184679   2.551   5.415   3.331  0.7722 -0.3318 -1.1743
25813SOL    HW284680   2.432   5.355   3.259  1.0701 -0.6314 -1.4157
25814SOL     OW84681   4.835   7.884  10.522  0.0398 -0.4004 -0.0505
25814SOL    HW184682   4.762   7.866  10.463 -0.0173 -0.4495  0.0354
25814SOL    HW284683   4.804   7.856  10.608 -1.5204  3.5109  0.8952
25815SOL     OW84684   7.336  10.436  10.952 -0.3492 -0.1890 -0.2969
25815SOL    HW184685   7.310  10.522  10.918 -0.4626 -0.3221 -0.5456
25815SOL    HW284686   7.402  10.404  10.890  1.6046  0.8135  1.1344
25816SOL     OW84687   6.842   9.532   0.658 -0.1864 -0.0361 -0.9771
25816SOL    HW184688   6.818   9.439   0.661 -1.7234  0.3516  0.0238
25816SOL    HW284689   6.776   9.575   0.712  0.8066  1.5875 -1.0008
25817SOL     OW84690   4.213   1.209   0.727  0.6232  0.2904  0.0672
25817SOL    HW184691   4.199   1.115   0.729 -0.4467  0.4323 -0.4163
25817SOL    HW284692   4.180   1.240   0.811  0.4908  0.3053  0.0087
25818SOL     OW84693  10.727  12.465   3.780  0.4655 -0.3528  0.0924
25818SOL    HW184694  10.735  12.394   3.843  1.8024 -0.1005  0.2271
25818SOL    HW284695  10.791  12.530   3.808 -1.2767  1.3139  0.4494
25819SOL     OW84696   8.893   5.034   0.284  0.4038  0.6422  0.2004
25819SOL    HW184697   8.828   5.018   0.352 -0.8782  0.6169 -0.9926
25819SOL    HW284698   8.892   5.129   0.272  0.7341  0.6616  0.3123
25820SOL     OW84699   7.434  10.614   8.446  0.2830  0.1438 -0.1436
25820SOL    HW184700   7.475  10.597   8.361  0.0906  0.4898 -0.3060
25820SOL    HW284701   7.487  10.684   8.484 -0.2832  0.7579 -0.4555
25821SOL     OW84702   8.733  12.632   3.791 -0.2599 -0.3897  0.1851
25821SOL    HW184703   8.743  12.704   3.728 -1.3416 -0.4712 -0.1088
25821SOL    HW284704   8.806  12.573   3.771 -1.0251 -0.8230 -1.5884
25822SOL     OW84705  10.861   8.778   9.219 -0.2237  0.4188 -0.1423
25822SOL    HW184706  10.773   8.816   9.213 -0.9094 -1.0683 -0.0143
25822SOL    HW284707  10.862   8.710   9.152  1.0548  0.7910 -0.5263
25823SOL     OW84708   2.621  10.179   5.907  0.2047 -0.1983  0.1316
25823SOL    HW184709   2.566  10.124   5.851 -1.1233 -0.2604  1.4603
25823SOL    HW284710   2.564  10.250   5.936  1.6638  1.4904 -0.8818
25824SOL     OW84711   0.838   4.768   4.545  0.5053  0.0997  0.2285
25824SOL    HW184712   0.777   4.725   4.485  1.8089 -1.6107  0.0358
25824SOL    HW284713   0.840   4.711   4.623  0.4549  1.1274  0.9936
25825SOL     OW84714  11.291   1.559   4.669  0.5412  0.1861  0.2058
25825SOL    HW184715  11.349   1.613   4.723  0.2003 -1.0321  1.8466
25825SOL    HW284716  11.300   1.471   4.704 -0.3034 -0.5107 -1.2405
25826SOL     OW84717   5.467   6.697   7.859  0.0283 -0.1309 -0.6959
25826SOL    HW184718   5.409   6.755   7.809 -0.7546  0.1077  0.4411
25826SOL    HW284719   5.473   6.738   7.945  0.0477 -1.3563 -0.0908
25827SOL     OW84720   1.630   1.435  10.976 -0.2169  0.0629  0.3921
25827SOL    HW184721   1.704   1.490  11.000 -1.0978  1.2063  0.6034
25827SOL    HW284722   1.596   1.475  10.896  0.5494 -1.6120 -0.8165
25828SOL     OW84723   9.109   2.269  10.802  0.3105 -0.5509  0.3072
25828SOL    HW184724   9.110   2.177  10.774  1.9435 -0.1145 -1.2696
25828SOL    HW284725   9.201   2.290  10.817 -0.1709  0.4584  2.0504
25829SOL     OW84726   6.262  10.191   8.989 -0.6537 -0.5152  0.2939
25829SOL    HW184727   6.309  10.250   8.930  0.5424 -0.0896  1.6048
25829SOL    HW284728   6.183  10.239   9.012 -0.3239  0.0324  0.3173
25830SOL     OW84729   2.258   1.294   2.466  0.6815  0.1627 -0.5138
25830SOL    HW184730   2.267   1.389   2.470  1.3861  0.0816  0.1190
25830SOL    HW284731   2.342   1.261   2.497 -0.1384 -0.6615  0.9863
25831SOL     OW84732  10.292   8.131  11.831  0.2221 -0.3821  0.4101
25831SOL    HW184733  10.277   8.186  11.753 -0.1672 -0.5804  0.3425
25831SOL    HW284734  10.353   8.182  11.884 -1.4383  0.9275  1.1634
25832SOL     OW84735  12.376  11.114   4.389 -0.3785  0.2578 -0.2805
25832SOL    HW184736  12.357  11.043   4.450 -0.0859 -0.2931 -0.8134
25832SOL    HW284737  12.465  11.143   4.412 -0.5669  0.5794  0.0529
25833SOL     OW84738   8.350  11.822   3.262  0.4042 -0.1264 -0.2215
25833SOL    HW184739   8.441  11.847   3.247  0.2718  1.1262  0.9019
25833SOL    HW284740   8.300  11.903   3.252 -0.6340 -0.8179 -0.9628
25834SOL     OW84741   7.215   2.986   8.039  0.6083 -0.7502 -0.0006
25834SOL    HW184742   7.156   2.956   7.970  1.6044  0.3978 -1.4261
25834SOL    HW284743   7.302   2.955   8.012  1.0457 -0.1244  0.6410
25835SOL     OW84744   2.082   9.113   6.060 -0.1330 -0.2574  0.0371
25835SOL    HW184745   2.082   9.094   5.966 -1.3749 -0.2405  0.0100
25835SOL    HW284746   2.163   9.074   6.093  0.3724 -0.1573 -1.0567
25836SOL     OW84747   7.537   3.018   0.824 -0.3282  0.4246 -0.2205
25836SOL    HW184748   7.628   2.993   0.805 -0.2951  0.5383 -0.2121
25836SOL    HW284749   7.545   3.101   0.870 -0.4044  0.1164  0.3573
25837SOL     OW84750   9.746   1.720  10.829  0.1785  0.2412 -0.0367
25837SOL    HW184751   9.688   1.734  10.904  0.4873  0.8023  0.1028
25837SOL    HW284752   9.824   1.679  10.866  0.7310  1.3866  0.1179
25838SOL     OW84753   9.479  11.492   2.204  0.2163 -0.6630 -0.3418
25838SOL    HW184754   9.543  11.542   2.154 -0.7088 -0.0771 -0.9650
25838SOL    HW284755   9.453  11.420   2.145 -0.2164 -0.4830 -0.3801
25839SOL     OW84756   2.022   3.468   5.299  0.0707 -0.0322  0.6864
25839SOL    HW184757   1.946   3.525   5.290  0.5649  0.5160 -0.2142
25839SOL    HW284758   2.044   3.470   5.392 -1.0746 -0.2931  0.9804
25840SOL     OW84759   8.720  10.112   6.364 -0.2971 -0.2869 -0.4080
25840SOL    HW184760   8.708  10.080   6.454  3.0515  1.0673  0.7011
25840SOL    HW284761   8.678  10.198   6.364  0.7567  0.2608  0.3461
25841SOL     OW84762   2.336   9.233   8.421  0.9564  0.1751  0.5934
25841SOL    HW184763   2.363   9.305   8.364 -1.0503 -0.0158 -0.7048
25841SOL    HW284764   2.240   9.238   8.423  0.8867 -0.6817  2.8756
25842SOL     OW84765   9.505   9.822   9.702  0.6877 -1.0256  0.1817
25842SOL    HW184766   9.428   9.856   9.655  1.1997 -0.8953 -0.5857
25842SOL    HW284767   9.560   9.786   9.633  1.8748 -0.0265  0.5886
25843SOL     OW84768   8.411   8.525  12.478 -0.2021  0.0277 -0.3522
25843SOL    HW184769   8.503   8.506  12.495 -0.9539 -3.5514  0.5197
25843SOL    HW284770   8.377   8.558  12.561  0.0684  0.5708 -0.4481
25844SOL     OW84771  12.220  12.603   3.902  0.5444  0.2885 -0.8104
25844SOL    HW184772  12.223  12.526   3.958  1.4696  0.3469 -0.7751
25844SOL    HW284773  12.128  12.632   3.907  0.7810  0.8762  1.4636
25845SOL     OW84774   0.458   0.957   6.265  0.1584 -0.1173  1.0344
25845SOL    HW184775   0.503   0.873   6.251  0.4242  0.0391  0.9429
25845SOL    HW284776   0.515   1.022   6.223  0.7240  0.3066  2.3924
25846SOL     OW84777   7.014   1.047   0.079  0.0932 -0.4831 -0.4093
25846SOL    HW184778   6.927   1.053   0.119  0.5272 -0.9049  0.6382
25846SOL    HW284779   7.057   1.129   0.102 -0.1198 -0.1379 -1.1955
25847SOL     OW84780   1.168   3.545   9.072 -0.0112 -0.5355 -0.1042
25847SOL    HW184781   1.132   3.583   9.152  1.6193 -1.0991  0.9335
25847SOL    HW284782   1.100   3.484   9.042 -0.3028 -0.9457  1.3256
25848SOL     OW84783   7.043   2.805  11.700 -0.0659  0.4981  0.1082
25848SOL    HW184784   6.990   2.823  11.622 -1.9744 -2.1631  0.6390
25848SOL    HW284785   7.008   2.864  11.767  0.1927  1.3611 -0.5003
25849SOL     OW84786  10.743   1.250   0.955 -0.7323 -0.7611 -0.2851
25849SOL    HW184787  10.771   1.341   0.964 -0.9248 -0.7414  0.1751
25849SOL    HW284788  10.674   1.240   1.021 -2.3469 -0.5994 -1.8839
25850SOL     OW84789   9.429   1.937   1.623 -0.5236  0.0392 -0.3879
25850SOL    HW184790   9.431   1.985   1.706  0.9890  1.6474 -1.2890
25850SOL    HW284791   9.492   1.866   1.635 -0.6011  0.0285 -0.0294
25851SOL     OW84792   5.682  10.526   6.296 -0.2134 -0.6412 -0.3261
25851SOL    HW184793   5.773  10.532   6.268  0.0991 -0.3834  0.7034
25851SOL    HW284794   5.632  10.522   6.214  0.6101  0.7723 -0.9466
25852SOL     OW84795  10.942  10.735  11.874 -0.0285  0.2809  0.5437
25852SOL    HW184796  11.036  10.724  11.886 -0.2246 -1.2362  0.8799
25852SOL    HW284797  10.904  10.720  11.960 -0.7319 -1.4660 -0.0223
25853SOL     OW84798   2.200  10.046   3.796  0.3353  0.2298  0.2578
25853SOL    HW184799   2.216   9.952   3.799  0.0747  0.1080 -1.2777
25853SOL    HW284800   2.112  10.056   3.831  0.2252 -0.1476  0.0969
25854SOL     OW84801   5.669   1.708   4.725  0.6395 -0.7514 -0.3938
25854SOL    HW184802   5.585   1.753   4.734  1.1375  0.1484 -0.0641
25854SOL    HW284803   5.651   1.617   4.750 -0.4801 -0.8404 -1.4636
25855SOL     OW84804  11.759   3.344   9.631  0.0879 -0.1438  0.5200
25855SOL    HW184805  11.845   3.311   9.656  0.3836  1.8903  2.5370
25855SOL    HW284806  11.724   3.278   9.571  2.9520 -1.1093 -0.2394
25856SOL     OW84807   5.780   2.943   3.913  0.2012 -0.5158 -0.3858
25856SOL    HW184808   5.703   2.888   3.923  0.7623 -1.5865 -1.7066
25856SOL    HW284809   5.748   3.021   3.867 -0.2648 -0.4651  0.0074
25857SOL     OW84810   1.582   6.318   6.984 -0.4443 -0.2155 -0.1309
25857SOL    HW184811   1.661   6.371   6.969  0.5530 -1.4984  0.3560
25857SOL    HW284812   1.515   6.359   6.930  0.9529 -0.0066 -1.8017
25858SOL     OW84813   6.046   8.575   2.742 -0.5179 -0.1039 -0.1137
25858SOL    HW184814   6.122   8.629   2.720 -0.0613 -0.7648 -0.1975
25858SOL    HW284815   6.059   8.550   2.833 -1.2637  0.7777  0.2481
25859SOL     OW84816   6.813  11.290   0.574 -0.3986 -0.2471 -0.0862
25859SOL    HW184817   6.807  11.205   0.529 -0.8317 -0.0572 -0.3879
25859SOL    HW284818   6.761  11.278   0.654  0.0151 -0.4458  0.1568
25860SOL     OW84819   0.938   1.701   5.287  0.1420  0.4682  0.8438
25860SOL    HW184820   0.958   1.763   5.357  2.6305 -2.0934  2.6075
25860SOL    HW284821   1.011   1.638   5.288 -1.8528 -2.1267 -1.2569
25861SOL     OW84822   7.911   9.229  11.706  0.5391  0.3667 -0.3137
25861SOL    HW184823   7.856   9.249  11.782  1.2394  1.6288 -0.0965
25861SOL    HW284824   7.849   9.217  11.634 -0.0886  0.2466  0.2350
25862SOL     OW84825   5.546  10.179  12.396 -0.5527 -0.5466  0.2741
25862SOL    HW184826   5.642  10.176  12.388 -0.3058  1.1707  1.7961
25862SOL    HW284827   5.521  10.261  12.354 -1.3727 -0.9944 -0.1277
25863SOL     OW84828   5.786   1.989  10.838  0.0666 -1.0346  0.0149
25863SOL    HW184829   5.791   1.986  10.934  2.6230 -2.5962 -0.0717
25863SOL    HW284830   5.760   1.900  10.813 -0.7247 -0.5973 -0.7610
25864SOL     OW84831   2.456   1.881   8.975  0.4267  0.7681  0.4636
25864SOL    HW184832   2.502   1.846   9.051  0.2851  3.7238  2.0637
25864SOL    HW284833   2.476   1.975   8.975 -2.6639  1.5662 -0.8772
25865SOL     OW84834   6.016   4.964  11.608  0.5383  0.8192  0.1142
25865SOL    HW184835   6.039   4.984  11.518 -0.7008 -1.3278 -0.7508
25865SOL    HW284836   5.922   4.983  11.614  0.6983  1.4290  1.1369
25866SOL     OW84837   2.768   2.267   1.437  0.0727  1.0869  0.4434
25866SOL    HW184838   2.826   2.246   1.364 -1.2700  1.1596 -0.6851
25866SOL    HW284839   2.806   2.345   1.477  2.1462 -0.3162  1.3436
25867SOL     OW84840   1.938   2.711   3.486 -0.5845 -0.2056 -0.0833
25867SOL    HW184841   1.968   2.653   3.415 -1.2750  0.9332 -1.3379
25867SOL    HW284842   1.892   2.653   3.546 -0.7671 -1.0562 -1.0225
25868SOL     OW84843   8.623  12.071   6.677  0.0401 -0.1680 -0.2439
25868SOL    HW184844   8.626  12.095   6.584  0.8553  2.1224  0.2903
25868SOL    HW284845   8.690  12.126   6.717 -0.5201 -0.8773  1.7650
25869SOL     OW84846   5.168   4.538   2.038 -0.1763 -0.0708  0.3072
25869SOL    HW184847   5.082   4.500   2.058 -0.5164 -0.7315 -2.0619
25869SOL    HW284848   5.222   4.462   2.016  1.2932  0.2706  2.4542
25870SOL     OW84849   8.810   4.447   6.647  0.2752  0.6702 -0.4520
25870SOL    HW184850   8.875   4.377   6.652  0.1567  0.5707 -0.2800
25870SOL    HW284851   8.786   4.463   6.739  0.7689  1.3713 -0.4395
25871SOL     OW84852   5.512   8.364   4.325 -0.0055  0.0319 -0.6681
25871SOL    HW184853   5.430   8.361   4.275 -0.8234 -0.5865  0.6692
25871SOL    HW284854   5.531   8.272   4.346  0.9370  0.1868 -0.7776
25872SOL     OW84855  11.073   7.903   8.297 -0.2840 -0.7055  0.3092
25872SOL    HW184856  11.144   7.840   8.286  0.3549 -0.4561  2.4994
25872SOL    HW284857  11.092   7.972   8.233  0.0371 -1.8278 -0.8311
25873SOL     OW84858   2.432   0.320   3.050 -0.1153  0.0928 -0.6726
25873SOL    HW184859   2.517   0.365   3.044  0.4873 -1.0265 -0.8346
25873SOL    HW284860   2.428   0.290   3.140 -0.7943  0.9713 -0.3965
25874SOL     OW84861   7.623   2.227   6.938 -1.1223 -0.0863  0.2486
25874SOL    HW184862   7.657   2.296   6.994 -2.2380 -0.4560  1.4311
25874SOL    HW284863   7.629   2.263   6.850  1.5268  0.1573  0.4351
25875SOL     OW84864   1.108   2.135   8.222 -0.0494  0.1390  0.0979
25875SOL    HW184865   1.160   2.104   8.148  3.1361  2.1573  1.2685
25875SOL    HW284866   1.057   2.207   8.186  1.0460  0.7308 -0.3377
25876SOL     OW84867   1.154   9.177   8.330 -0.1701  0.1964  0.0558
25876SOL    HW184868   1.103   9.211   8.404  1.8918 -0.9007  2.0949
25876SOL    HW284869   1.223   9.241   8.317  0.1392 -0.1817 -0.1718
25877SOL     OW84870   4.435   5.387   4.051 -0.0068 -0.5080 -0.0073
25877SOL    HW184871   4.368   5.361   3.988 -0.4096  1.9450 -0.7181
25877SOL    HW284872   4.518   5.375   4.004 -0.2685  0.7320 -0.8427
25878SOL     OW84873   3.070   6.313   7.648 -0.0941  0.5912  0.3166
25878SOL    HW184874   2.983   6.291   7.682  0.1201  1.0135  1.1568
25878SOL    HW284875   3.122   6.333   7.726  0.3338  1.8602 -0.2708
25879SOL     OW84876  12.135   8.596   2.484  0.1055  0.3237  0.0926
25879SOL    HW184877  12.164   8.505   2.491  0.8460  0.4389 -1.2176
25879SOL    HW284878  12.068   8.605   2.553  1.0031 -0.8004  1.1620
25880SOL     OW84879   4.437  10.863   4.820 -0.2047  0.6161 -0.2267
25880SOL    HW184880   4.445  10.959   4.814 -1.8008  0.8677  0.8899
25880SOL    HW284881   4.346  10.846   4.797  0.0233 -0.6431 -0.2390
25881SOL     OW84882   0.792   9.344  11.532 -0.4946 -0.1252  0.1277
25881SOL    HW184883   0.805   9.250  11.521 -1.6228 -0.1506 -1.2637
25881SOL    HW284884   0.869   9.373  11.582  0.4665 -1.5805 -0.4449
25882SOL     OW84885   2.199   3.619   0.713 -0.8559 -0.0598  0.2665
25882SOL    HW184886   2.226   3.584   0.798  0.5152  0.7357  0.1982
25882SOL    HW284887   2.242   3.562   0.649  1.3430  1.5914  0.1557
25883SOL     OW84888   2.394   1.859  11.913  0.6017 -0.1768  0.2516
25883SOL    HW184889   2.478   1.839  11.953  0.5885 -0.3188  0.2108
25883SOL    HW284890   2.412   1.930  11.851  0.5158  0.4321  0.9171
25884SOL     OW84891  11.777   2.306   4.014 -0.0537  0.8124  0.3960
25884SOL    HW184892  11.811   2.363   4.083 -1.8642  2.8403 -0.2782
25884SOL    HW284893  11.854   2.281   3.963  0.8796  2.1179  1.1158
25885SOL     OW84894   0.949   9.820   4.389  0.2333 -0.0246  0.2767
25885SOL    HW184895   1.025   9.865   4.425  0.3008  0.4640 -0.4469
25885SOL    HW284896   0.978   9.787   4.304 -0.4067  0.3153 -0.0822
25886SOL     OW84897   8.384   6.971   3.748 -0.7929  0.3131  0.4654
25886SOL    HW184898   8.440   6.924   3.686 -2.8861 -0.3564 -1.0557
25886SOL    HW284899   8.440   7.040   3.783  1.4449 -1.3274  0.3514
25887SOL     OW84900   8.033  10.829  10.864  0.1416 -0.0117 -0.4604
25887SOL    HW184901   8.020  10.920  10.837 -0.9398 -0.1176 -0.3203
25887SOL    HW284902   8.044  10.781  10.782  2.3365  0.4375 -0.5112
25888SOL     OW84903   8.382   9.076   9.846  0.3541  0.5325 -0.5293
25888SOL    HW184904   8.428   8.993   9.829  0.5267  0.1488  1.5282
25888SOL    HW284905   8.335   9.060   9.928 -0.2115  2.2487 -0.4961
25889SOL     OW84906   3.754   3.316  10.621 -0.0576 -0.0198  0.9045
25889SOL    HW184907   3.766   3.395  10.567  1.2636 -1.0405 -0.4027
25889SOL    HW284908   3.660   3.310  10.634 -0.2073  1.6504  0.8559
25890SOL     OW84909   4.953   7.120   8.724 -0.0250 -0.2326  0.3281
25890SOL    HW184910   4.876   7.063   8.729  1.0337 -1.6374  1.5071
25890SOL    HW284911   4.971   7.128   8.630 -1.3812 -0.1727  0.0580
25891SOL     OW84912   0.823   2.554   4.786 -0.1011 -0.2603  0.5675
25891SOL    HW184913   0.751   2.610   4.815 -0.2660 -0.3364  0.3155
25891SOL    HW284914   0.805   2.469   4.826  0.0788 -0.1661  0.8462
25892SOL     OW84915  12.194   5.299  11.566 -0.5135  0.3205  0.1106
25892SOL    HW184916  12.240   5.222  11.599 -1.1793 -0.8715 -1.6062
25892SOL    HW284917  12.235   5.372  11.611 -2.5270 -1.1350  5.0571
25893SOL     OW84918   0.684   4.884   7.812  0.1605 -0.0438 -0.3695
25893SOL    HW184919   0.648   4.799   7.838  2.3300 -0.9735 -0.1953
25893SOL    HW284920   0.629   4.912   7.739 -0.6894 -1.5180 -0.3275
25894SOL     OW84921   0.973   1.087  11.575 -0.4315 -0.0534 -0.1308
25894SOL    HW184922   0.993   1.054  11.488  0.2569  0.2632 -0.0965
25894SOL    HW284923   1.028   1.165  11.585 -0.9679  0.2731  0.3441
25895SOL     OW84924  11.979  12.106   3.493 -0.0504 -0.0820 -0.0913
25895SOL    HW184925  11.991  12.194   3.529  0.3144 -0.1784  0.0204
25895SOL    HW284926  12.032  12.049   3.550 -2.2965 -0.7580  1.4893
25896SOL     OW84927   5.983   2.186   5.619  0.0864  0.1750  0.4490
25896SOL    HW184928   5.994   2.107   5.565 -2.0837  0.3637 -0.3571
25896SOL    HW284929   6.071   2.203   5.654  1.2755 -0.7945 -1.8508
25897SOL     OW84930   1.870   6.844   4.404 -0.4476 -0.1609  0.1685
25897SOL    HW184931   1.883   6.828   4.497  1.3923  0.3242  0.0360
25897SOL    HW284932   1.808   6.777   4.376  0.0780 -1.2312  1.4485
25898SOL     OW84933   0.070   4.863   2.905 -0.0290  0.1419  0.2260
25898SOL    HW184934   0.123   4.867   2.825 -0.0842  1.0962  0.2215
25898SOL    HW284935  -0.018   4.839   2.875  0.4671 -1.8946  0.2811
25899SOL     OW84936   0.071  11.516   7.325  0.0445 -0.2209 -0.2969
25899SOL    HW184937   0.022  11.536   7.405  0.6483  0.7673 -0.1507
25899SOL    HW284938   0.005  11.485   7.263 -0.6200  0.1601  0.2068
25900SOL     OW84939  12.495   2.670   3.578 -0.0832  0.0036 -0.2922
25900SOL    HW184940  12.459   2.758   3.594  0.1606  0.4386 -1.9150
25900SOL    HW284941  12.581   2.672   3.618 -0.1263  0.4796 -0.2095
25901SOL     OW84942   3.295   0.337   4.643 -0.3920 -0.0739  0.0795
25901SOL    HW184943   3.353   0.279   4.594 -0.3949 -0.8464  0.9539
25901SOL    HW284944   3.264   0.283   4.716 -0.6850  0.9219  0.7072
25902SOL     OW84945   5.556   6.600   0.097  0.5668  0.0052  0.1526
25902SOL    HW184946   5.615   6.570   0.027 -0.1546 -0.2213 -0.3786
25902SOL    HW284947   5.508   6.521   0.122 -1.1474  0.6047 -1.0484
25903SOL     OW84948   4.001   0.854   0.152 -0.2688 -0.6319  0.3427
25903SOL    HW184949   4.056   0.900   0.216 -1.0065 -0.3362  0.7736
25903SOL    HW284950   3.922   0.831   0.200 -1.1801  0.2900 -0.6477
25904SOL     OW84951   7.610   8.412   0.809 -0.3827  0.2408  0.0887
25904SOL    HW184952   7.622   8.317   0.806 -1.7165  0.0708 -0.1930
25904SOL    HW284953   7.517   8.424   0.828  0.0827  1.4914  1.9092
25905SOL     OW84954   0.594   5.548   3.259 -0.1970  0.3645 -0.3873
25905SOL    HW184955   0.648   5.608   3.310  0.5885 -0.8768  0.2997
25905SOL    HW284956   0.609   5.573   3.168  0.4984  0.8902 -0.1381
25906SOL     OW84957   7.094   2.909   6.107 -0.5040  0.4019  0.3821
25906SOL    HW184958   7.140   2.957   6.176  2.2951  0.0207 -1.0671
25906SOL    HW284959   7.118   2.817   6.121 -0.4518  0.2402 -0.6695
25907SOL     OW84960   1.261  11.207   4.020 -0.0724 -0.0581  0.0874
25907SOL    HW184961   1.263  11.244   4.108  0.5683 -0.6450  0.3306
25907SOL    HW284962   1.316  11.129   4.026  1.0730  0.6215 -1.1641
25908SOL     OW84963   9.145   7.484   9.989  0.1015  0.0845 -0.1768
25908SOL    HW184964   9.055   7.515   9.996  0.1141  0.0754  0.0505
25908SOL    HW284965   9.142   7.413   9.926 -0.1116 -0.1404  0.0834
25909SOL     OW84966   7.560   7.076  10.098  0.2040 -0.0571  0.5243
25909SOL    HW184967   7.545   7.123  10.180 -1.6285 -0.1753  0.2824
25909SOL    HW284968   7.526   7.135  10.030  3.2455  0.8258 -0.4033
25910SOL     OW84969   2.471   1.692   6.742  0.4278 -0.6294 -0.1911
25910SOL    HW184970   2.523   1.635   6.686  2.7877  0.4166  0.7960
25910SOL    HW284971   2.476   1.651   6.829 -1.4630 -1.1362 -0.2710
25911SOL     OW84972   4.230   1.360   2.334  0.1348  0.6881  0.0053
25911SOL    HW184973   4.164   1.294   2.354  1.0618  0.2608  1.8338
25911SOL    HW284974   4.179   1.440   2.319 -0.8538  0.2629  0.9266
25912SOL     OW84975   0.813   5.755   6.182  0.0639 -0.7951 -0.0567
25912SOL    HW184976   0.770   5.681   6.138 -1.9734 -0.2440  0.8817
25912SOL    HW284977   0.883   5.781   6.122  0.0065 -2.6494 -1.0067
25913SOL     OW84978   3.756  12.353   6.149 -0.1992 -0.6057 -0.1517
25913SOL    HW184979   3.711  12.271   6.167 -0.7439 -0.4328 -0.6600
25913SOL    HW284980   3.828  12.329   6.090 -0.7362 -0.6462 -0.8091
25914SOL     OW84981   6.189   0.126   2.167  0.3830  0.8236 -0.5221
25914SOL    HW184982   6.096   0.126   2.187 -0.0427 -0.0644 -2.2961
25914SOL    HW284983   6.193   0.127   2.071  2.1493 -0.6766 -0.5165
25915SOL     OW84984   6.602   3.251   7.950 -0.3091 -0.2807  0.3835
25915SOL    HW184985   6.637   3.290   8.031  0.4265 -1.6076  0.7260
25915SOL    HW284986   6.644   3.165   7.944 -0.6009 -0.3410 -1.2564
25916SOL     OW84987   4.720  12.436  10.798 -0.0546  0.2633 -0.3728
25916SOL    HW184988   4.730  12.502  10.730 -0.8154 -0.4017 -1.1554
25916SOL    HW284989   4.780  12.463  10.867 -1.2644  2.4721 -0.1041
25917SOL     OW84990   5.132  12.514   0.855 -0.0099 -0.3147 -0.1808
25917SOL    HW184991   5.087  12.471   0.927  0.4448  1.0956  0.9907
25917SOL    HW284992   5.065  12.569   0.814  0.3800  1.2177  1.1073
25918SOL     OW84993   6.003   3.868   6.638  0.0047 -0.3889 -0.0724
25918SOL    HW184994   6.005   3.796   6.574  0.6370 -1.2410  0.8672
25918SOL    HW284995   6.070   3.845   6.702 -1.1208  0.0466  1.3262
25919SOL     OW84996   8.738   8.762   5.963 -0.4395 -0.1703 -0.3201
25919SOL    HW184997   8.708   8.776   6.053 -0.2986  0.0762 -0.3105
25919SOL    HW284998   8.695   8.681   5.936 -0.0034 -0.5828  0.1868
25920SOL     OW84999  10.592   4.902   1.870  0.5338  0.5396 -0.2326
25920SOL    HW185000  10.648   4.828   1.895  0.9299  0.3550 -1.5843
25920SOL    HW285001  10.514   4.862   1.834 -0.7156  0.7957  1.9814
25921SOL     OW85002   2.519   5.662   6.097  0.2289  0.0023  0.5483
25921SOL    HW185003   2.614   5.659   6.108  0.2730 -0.9349  0.0568
25921SOL    HW285004   2.498   5.755   6.091  1.2146  0.1958 -0.1266
25922SOL     OW85005  10.568   5.112   9.329  0.3614  0.4124  0.0537
25922SOL    HW185006  10.513   5.075   9.398 -1.7249  0.0432 -1.6866
25922SOL    HW285007  10.642   5.051   9.323  0.1149 -0.0476  1.3291
25923SOL     OW85008   3.515  10.731   3.685  0.5113 -0.4022  0.9197
25923SOL    HW185009   3.541  10.748   3.775  1.4702  0.8239  0.4295
25923SOL    HW285010   3.589  10.761   3.632  0.4359 -2.1125 -0.2398
25924SOL     OW85011  12.565   6.652   8.664 -0.5910  1.0013 -0.3352
25924SOL    HW185012  12.559   6.711   8.589 -1.0034 -0.5930 -1.6154
25924SOL    HW285013  12.493   6.589   8.651 -1.5411  1.4663  2.1361
25925SOL     OW85014   5.261   5.629  12.510 -0.0210 -0.0530 -0.1026
25925SOL    HW185015   5.313   5.708  12.495  0.1463 -0.0235  0.5988
25925SOL    HW285016   5.175   5.649  12.473  0.1094  0.3451 -0.1923
25926SOL     OW85017   5.568   5.917  12.251  0.0417  0.3392  0.4596
25926SOL    HW185018   5.663   5.901  12.253 -0.1997 -1.3607 -0.1223
25926SOL    HW285019   5.544   5.922  12.344  0.3323 -1.9127  0.7148
25927SOL     OW85020  10.344   4.916   9.231 -0.2008  0.1488 -0.6054
25927SOL    HW185021  10.424   4.967   9.239  0.1048 -0.5353  1.0970
25927SOL    HW285022  10.274   4.977   9.256 -0.0451  0.2997 -0.5408
25928SOL     OW85023  12.244  10.321   4.519 -0.2530  0.6857  0.8245
25928SOL    HW185024  12.152  10.332   4.543 -0.7479 -0.8414 -0.2146
25928SOL    HW285025  12.256  10.226   4.513  0.9018  0.8973 -0.8433
25929SOL     OW85026   0.432   0.521   6.365  0.0329 -0.1010  0.0070
25929SOL    HW185027   0.438   0.590   6.432  0.7449  0.2108 -0.3706
25929SOL    HW285028   0.397   0.565   6.288  1.2487  0.0254 -0.4828
25930SOL     OW85029   6.845   1.332   1.477 -0.0023  0.1089 -0.4162
25930SOL    HW185030   6.847   1.390   1.553 -0.5842  1.0653 -1.1062
25930SOL    HW285031   6.937   1.322   1.452  0.1385  0.3332  0.0083
25931SOL     OW85032   0.486   6.445   3.060  0.5053  0.0960 -0.1057
25931SOL    HW185033   0.483   6.450   3.156 -2.2529 -1.1283 -0.0300
25931SOL    HW285034   0.479   6.537   3.032  0.8866  0.4361  0.8650
25932SOL     OW85035  10.435   7.144   3.026 -0.2896  0.3341  0.3532
25932SOL    HW185036  10.430   7.220   3.083 -2.6399  0.1398  0.4911
25932SOL    HW285037  10.529   7.130   3.012  0.2221  2.3315  1.5210
25933SOL     OW85038   2.814   5.270   8.953  0.0914 -0.4885 -0.3371
25933SOL    HW185039   2.885   5.321   8.992  0.3144 -0.2260 -1.0703
25933SOL    HW285040   2.794   5.203   9.019 -0.0151  0.3571  0.5174
25934SOL     OW85041   0.797   1.472   0.274 -0.1865 -0.0695 -0.6103
25934SOL    HW185042   0.777   1.559   0.241  1.0050  0.5608  0.2102
25934SOL    HW285043   0.764   1.472   0.364  0.0072 -0.3843 -0.5348
25935SOL     OW85044   2.785   7.329  10.528 -0.4762  0.0488 -0.4634
25935SOL    HW185045   2.694   7.360  10.518  0.4348  3.0104 -0.6005
25935SOL    HW285046   2.807   7.352  10.618 -0.1128 -1.5107 -0.1365
25936SOL     OW85047   2.913  11.035   5.967  0.0117 -0.6451  0.1630
25936SOL    HW185048   2.888  10.944   5.985 -0.3294 -0.4358  0.7744
25936SOL    HW285049   2.895  11.081   6.048  0.1263 -0.0136 -0.1660
25937SOL     OW85050   7.330   0.977   3.802 -0.3283 -0.0084  0.5302
25937SOL    HW185051   7.386   0.899   3.800  0.6945  0.7295 -1.0041
25937SOL    HW285052   7.284   0.975   3.718 -0.0046  1.2452  0.3137
25938SOL     OW85053   3.734  10.210   3.345  0.6169  0.0808  0.0915
25938SOL    HW185054   3.764  10.275   3.282 -1.4028  1.6140  0.5896
25938SOL    HW285055   3.643  10.192   3.320 -0.1368  0.4743  2.2418
25939SOL     OW85056  11.890  11.558   8.425  0.0972 -0.0850  0.9167
25939SOL    HW185057  11.851  11.471   8.419  0.4947 -0.2275  0.2689
25939SOL    HW285058  11.852  11.607   8.353  0.9956 -0.1843  0.3599
25940SOL     OW85059  12.218   4.174   6.297  0.4893  0.0359  0.3404
25940SOL    HW185060  12.132   4.140   6.274  1.2666 -1.1236 -1.0150
25940SOL    HW285061  12.246   4.222   6.219  1.7542 -1.0517  0.0836
25941SOL     OW85062   9.440   2.621   5.370  0.2867 -0.2806  0.0259
25941SOL    HW185063   9.359   2.576   5.394  1.2460 -2.7369 -0.9549
25941SOL    HW285064   9.447   2.610   5.276  2.6669 -1.9490  0.2866
25942SOL     OW85065   8.185   9.911   5.327 -0.4608 -0.2576  0.5151
25942SOL    HW185066   8.162   9.917   5.235 -1.8585  1.7913  0.9321
25942SOL    HW285067   8.279   9.892   5.327 -0.7756 -2.1183 -1.2811
25943SOL     OW85068   3.301   6.975  10.565 -0.2746 -0.4298 -0.4552
25943SOL    HW185069   3.286   7.004  10.655  0.9296 -1.3637  0.0678
25943SOL    HW285070   3.283   6.881  10.566  0.9950 -0.6904 -0.8874
25944SOL     OW85071   0.844   7.370  12.256 -0.4404 -0.2928  0.3116
25944SOL    HW185072   0.917   7.336  12.306 -0.4086 -0.9473 -0.1655
25944SOL    HW285073   0.861   7.342  12.166 -0.6317  0.6318 -0.0283
25945SOL     OW85074   1.233   8.654   7.761  0.4975  0.5286  0.7242
25945SOL    HW185075   1.276   8.739   7.759  0.0450  0.7450 -0.3368
25945SOL    HW285076   1.189   8.647   7.676  0.2523 -0.6184  0.9292
25946SOL     OW85077   8.747   2.839  10.977  0.4309  0.2416 -0.1704
25946SOL    HW185078   8.791   2.764  11.016 -0.2069 -1.0216 -1.7772
25946SOL    HW285079   8.713   2.889  11.052 -1.4852 -2.4872  0.9288
25947SOL     OW85080   1.696  12.578   3.982 -0.0558 -0.4863  0.0069
25947SOL    HW185081   1.638  12.601   3.910 -0.3903 -1.2706  0.0206
25947SOL    HW285082   1.778  12.623   3.962 -1.1971  2.2199  0.9525
25948SOL     OW85083   6.461   9.197   1.171 -0.0097  0.4458  0.2305
25948SOL    HW185084   6.537   9.147   1.197 -0.4254 -0.4740 -0.2753
25948SOL    HW285085   6.495   9.285   1.152  0.8975  0.0728  0.1019
25949SOL     OW85086   2.528   0.876  11.261  0.4082  1.2297 -0.0838
25949SOL    HW185087   2.530   0.822  11.340 -1.1642 -1.6387 -1.8316
25949SOL    HW285088   2.620   0.895  11.243  1.2514 -2.1877 -0.1039
25950SOL     OW85089   4.357   2.066   2.197  0.6554  0.6507  0.1862
25950SOL    HW185090   4.305   2.059   2.117  0.1874  1.9497  0.3636
25950SOL    HW285091   4.308   2.017   2.262  0.5009  0.4846 -0.0516
25951SOL     OW85092   2.176   9.306   4.004 -0.1678  0.2419 -0.0369
25951SOL    HW185093   2.263   9.292   3.967 -0.0831  0.2271  0.1711
25951SOL    HW285094   2.155   9.224   4.050 -0.3811  0.1629 -0.2655
25952SOL     OW85095  11.487  12.045   6.596  0.3406 -0.2108  0.2544
25952SOL    HW185096  11.510  11.997   6.517  2.6939  0.2619  0.5547
25952SOL    HW285097  11.486  12.137   6.569 -0.8026 -0.1785  0.3763
25953SOL     OW85098   4.286   8.629   1.625 -0.4235 -0.6202  0.0962
25953SOL    HW185099   4.202   8.586   1.614 -0.0783 -1.2738 -0.0276
25953SOL    HW285100   4.289   8.695   1.556 -0.4839 -1.1558 -0.4206
25954SOL     OW85101  11.458   0.602   4.400  0.2840  0.4371  0.0333
25954SOL    HW185102  11.416   0.653   4.330  1.4444  3.6593  1.4698
25954SOL    HW285103  11.388   0.547   4.434 -1.2080  1.3115 -1.4465
25955SOL     OW85104   8.800   5.956   6.477  0.0634  0.7356  0.0096
25955SOL    HW185105   8.759   6.017   6.538  1.8415 -0.5014  2.6164
25955SOL    HW285106   8.877   6.003   6.444  0.5689  0.4666  0.8005
25956SOL     OW85107   0.218   2.385   5.507 -0.4230  0.1252 -0.1764
25956SOL    HW185108   0.252   2.336   5.432  0.4494  3.2351 -1.9574
25956SOL    HW285109   0.153   2.444   5.470  0.2397  1.9584  1.4242
25957SOL     OW85110   8.500   0.950   9.758  0.2352 -0.7178 -0.4421
25957SOL    HW185111   8.582   0.996   9.745 -0.4829  1.1940  1.2591
25957SOL    HW285112   8.520   0.884   9.824  0.5884 -0.8393 -0.6674
25958SOL     OW85113   3.421   7.947  10.132  0.0317 -0.4394 -0.1846
25958SOL    HW185114   3.480   7.911  10.199  1.3088  0.8320 -0.5688
25958SOL    HW285115   3.346   7.887  10.132  0.2819 -0.8552  1.9039
25959SOL     OW85116   4.437  12.584   8.833  0.5453 -0.7306  0.1134
25959SOL    HW185117   4.415  12.515   8.896 -0.1029 -0.0162  0.6949
25959SOL    HW285118   4.376  12.571   8.761  0.2791 -0.6430  0.3206
25960SOL     OW85119   7.739   0.842   8.367  0.3124  0.1066  0.9110
25960SOL    HW185120   7.814   0.892   8.401  1.6329 -0.1509 -1.4420
25960SOL    HW285121   7.690   0.818   8.445  1.4811  2.1461  2.3900
25961SOL     OW85122   7.492   4.489   2.588 -0.4043 -0.5105 -0.5663
25961SOL    HW185123   7.572   4.540   2.573 -0.3414 -0.7036 -0.8887
25961SOL    HW285124   7.520   4.398   2.580 -0.5469 -0.5977 -0.1378
25962SOL     OW85125   5.624   4.966   5.256 -0.3529  0.7771 -0.2531
25962SOL    HW185126   5.542   4.945   5.301 -0.6633  0.0902 -1.0960
25962SOL    HW285127   5.686   4.900   5.287  0.1748  1.8847  1.1240
25963SOL     OW85128   5.090   6.921   7.313  0.0048  0.6258 -0.5030
25963SOL    HW185129   5.146   6.914   7.390  0.3329  0.1126 -0.7839
25963SOL    HW285130   5.067   6.831   7.292 -2.1047  0.8876  0.4566
25964SOL     OW85131   9.075   5.971  11.083 -0.2982  0.2915  0.1460
25964SOL    HW185132   9.146   5.909  11.095  0.9513  1.4944 -0.7643
25964SOL    HW285133   9.036   5.947  10.999 -2.1477 -1.4297  1.3907
25965SOL     OW85134   2.797   8.118   4.110  0.4018  0.5091 -0.2685
25965SOL    HW185135   2.856   8.052   4.146  1.1420  1.2991  0.0026
25965SOL    HW285136   2.845   8.200   4.118  0.6479  0.7419 -3.1323
25966SOL     OW85137  12.063   6.731   6.510 -0.2138 -0.3352  0.2817
25966SOL    HW185138  12.034   6.656   6.457 -2.1032 -0.7161  1.7254
25966SOL    HW285139  11.996   6.739   6.578  0.3932  2.1658  0.6798
25967SOL     OW85140  11.971   2.116  10.050 -0.4238 -0.7046 -0.2649
25967SOL    HW185141  12.052   2.118   9.999 -0.4721  2.5012 -0.4283
25967SOL    HW285142  11.985   2.048  10.115  2.4984 -0.1558 -0.1801
25968SOL     OW85143  11.947  10.682   4.445  0.4204 -0.1184 -0.4845
25968SOL    HW185144  11.949  10.677   4.350  1.7345 -0.3503 -0.4642
25968SOL    HW285145  11.946  10.775   4.465 -1.0954 -0.0583 -0.7121
25969SOL     OW85146  11.445  11.668   6.136  0.7130  0.1315  0.3311
25969SOL    HW185147  11.406  11.754   6.150  0.7867  0.4375 -1.1863
25969SOL    HW285148  11.461  11.634   6.224 -0.3499  1.1893  0.9611
25970SOL     OW85149   9.363  11.316   8.588 -0.5431 -0.6555  0.1118
25970SOL    HW185150   9.364  11.395   8.534  2.1766  0.2410  1.3195
25970SOL    HW285151   9.328  11.248   8.530 -0.1155  0.8025 -1.9671
25971SOL     OW85152   6.065   7.310  11.137  0.2973  0.0323  0.9244
25971SOL    HW185153   6.026   7.267  11.214  0.0205 -1.4071  0.0129
25971SOL    HW285154   6.055   7.403  11.155 -1.4450 -0.2688  1.8205
25972SOL     OW85155   1.619   3.648  10.271 -0.2523 -0.3889 -0.4609
25972SOL    HW185156   1.654   3.702  10.201 -1.0309  1.5821  0.6095
25972SOL    HW285157   1.655   3.561  10.254  2.5833  0.8090 -1.1767
25973SOL     OW85158  12.408   6.578   3.194 -0.7555 -0.0384  0.0122
25973SOL    HW185159  12.349   6.544   3.127  2.3087 -0.4494 -2.7165
25973SOL    HW285160  12.391   6.672   3.197 -0.9926 -0.0299 -1.2883
25974SOL     OW85161   8.252  12.266   8.881 -0.3602 -0.2171  0.3691
25974SOL    HW185162   8.203  12.236   8.805 -1.2468  2.3746 -0.1870
25974SOL    HW285163   8.308  12.336   8.847  2.1153 -1.5233  1.4296
25975SOL     OW85164   6.968   9.832   1.459  0.0094  0.6519 -0.7935
25975SOL    HW185165   6.874   9.854   1.461 -0.1456 -0.0405  0.5575
25975SOL    HW285166   7.011   9.907   1.500  0.0467  0.8884 -1.2510
25976SOL     OW85167   0.493   0.131  10.923  0.6188 -0.0683  0.0921
25976SOL    HW185168   0.417   0.075  10.908  1.3042 -0.9464 -0.2289
25976SOL    HW285169   0.550   0.078  10.979  1.9503 -0.3259 -1.4362
25977SOL     OW85170  11.873   4.724   4.492 -0.1061  0.0632  0.1220
25977SOL    HW185171  11.807   4.770   4.439  1.4485  1.3619 -0.8049
25977SOL    HW285172  11.927   4.679   4.427  1.2525  0.8842  0.6440
25978SOL     OW85173   8.380   2.003  12.524  0.1089 -0.3596  0.1126
25978SOL    HW185174   8.469   1.987  12.491 -0.5203 -1.0197 -1.3431
25978SOL    HW285175   8.392   2.021  12.617  1.8779  0.5869 -0.2438
25979SOL     OW85176  11.664   3.546  10.338  0.0197  0.2017 -0.2098
25979SOL    HW185177  11.663   3.628  10.289 -0.1280  0.5553  0.3730
25979SOL    HW285178  11.575   3.512  10.331  0.2492 -0.2593 -1.0166
25980SOL     OW85179   7.507   2.688   5.670 -0.0921 -0.2736  0.1812
25980SOL    HW185180   7.484   2.734   5.751  0.2183  0.0546  0.0871
25980SOL    HW285181   7.526   2.599   5.697 -0.4350 -0.2817  0.4061
25981SOL     OW85182   9.854   6.635   1.940  0.1297  0.5675  0.9278
25981SOL    HW185183   9.772   6.673   1.911 -0.8149 -3.5617 -2.7182
25981SOL    HW285184   9.831   6.583   2.018 -0.8918 -0.7807 -0.2280
25982SOL     OW85185   6.947   0.976   0.669 -0.1982  0.3073  0.5802
25982SOL    HW185186   6.881   0.918   0.706  0.2199  0.0422  0.9155
25982SOL    HW285187   7.028   0.953   0.714  0.6048 -0.8929 -1.3073
25983SOL     OW85188   2.349   7.340   1.136  0.3259  0.3080  0.0936
25983SOL    HW185189   2.344   7.272   1.203  0.3056  1.3265  1.1568
25983SOL    HW285190   2.442   7.342   1.112  0.6604  1.1098  1.3699
25984SOL     OW85191   2.137  10.149   9.837 -0.6642 -0.9066 -0.5754
25984SOL    HW185192   2.083  10.224   9.813  0.4442  0.5076  1.1029
25984SOL    HW285193   2.226  10.183   9.839 -0.0372 -2.4618 -0.4270
25985SOL     OW85194  10.064   8.951   8.016  0.3256  0.0677  0.1876
25985SOL    HW185195   9.996   8.886   8.034  0.1872  0.9049  3.1244
25985SOL    HW285196  10.056   8.968   7.922 -4.5736  1.1735  0.5553
25986SOL     OW85197   5.400   2.475   9.929 -0.0933 -0.3912 -0.1003
25986SOL    HW185198   5.407   2.502   9.837 -0.3630  0.5101  0.1312
25986SOL    HW285199   5.443   2.546   9.978 -0.7479 -0.4131  0.5235
25987SOL     OW85200   9.915   8.403   1.443 -0.0840  0.5393 -0.0098
25987SOL    HW185201   9.833   8.368   1.478  0.1574  2.1832  2.4160
25987SOL    HW285202   9.906   8.393   1.348 -2.3074 -0.9519  0.2709
25988SOL     OW85203   7.576   2.329   7.895  0.0109 -0.4634 -0.5365
25988SOL    HW185204   7.671   2.323   7.900 -0.0907 -2.2794  0.0178
25988SOL    HW285205   7.555   2.410   7.941  1.2390 -0.5862  0.3064
25989SOL     OW85206  10.620  11.960   7.971  0.3537  0.2500 -0.1044
25989SOL    HW185207  10.535  11.976   7.930  0.4328 -1.3015 -0.9414
25989SOL    HW285208  10.653  11.882   7.927  2.5219  1.2050 -0.2730
25990SOL     OW85209  10.863   9.672   9.370  0.4047 -0.0469 -0.0541
25990SOL    HW185210  10.836   9.581   9.363 -0.1475  0.1838 -1.2083
25990SOL    HW285211  10.958   9.669   9.373  0.4484 -0.6195 -1.3442
25991SOL     OW85212  11.184   3.304   1.440 -0.0378  0.6651 -0.6573
25991SOL    HW185213  11.165   3.391   1.475 -0.8050  0.3859 -0.3541
25991SOL    HW285214  11.272   3.284   1.471 -0.8170  0.2690  1.4482
25992SOL     OW85215   8.202   1.814   8.341 -0.3853  0.5658 -0.4573
25992SOL    HW185216   8.283   1.790   8.295 -0.3476 -0.6711  0.2224
25992SOL    HW285217   8.228   1.884   8.401  0.6817 -1.1595  1.2197
25993SOL     OW85218   3.261   5.680   6.459 -0.6532 -0.3899  0.2528
25993SOL    HW185219   3.204   5.654   6.386 -0.2832 -0.9655  0.1670
25993SOL    HW285220   3.237   5.622   6.531 -1.2194  0.3693  0.6948
25994SOL     OW85221   9.040   8.991   1.977 -0.4154 -0.3541 -0.0942
25994SOL    HW185222   9.133   8.969   1.984 -0.6235 -0.7451  2.5104
25994SOL    HW285223   8.994   8.914   2.011 -1.4198  1.5633  3.3500
25995SOL     OW85224   8.776  10.342   8.304  0.0837  0.0671  0.1729
25995SOL    HW185225   8.809  10.429   8.285  0.8885 -0.1738  0.4402
25995SOL    HW285226   8.804  10.288   8.230  1.6046 -0.4618  1.0946
25996SOL     OW85227   9.299   3.566   0.987 -0.4923  0.4356  0.7501
25996SOL    HW185228   9.290   3.546   1.080  1.4184  1.4975  1.2112
25996SOL    HW285229   9.304   3.480   0.945  0.5095 -0.0839  1.8657
25997SOL     OW85230  11.244  11.432   1.698 -0.0085 -0.5775 -0.0469
25997SOL    HW185231  11.160  11.464   1.728 -0.1328  0.3303 -1.2897
25997SOL    HW285232  11.305  11.455   1.768 -0.0568  2.6336 -0.8971
25998SOL     OW85233   0.541   8.947   7.708 -0.1280  0.3515 -0.3663
25998SOL    HW185234   0.482   8.908   7.772 -0.0008  2.8016  1.3927
25998SOL    HW285235   0.521   8.902   7.626 -1.9460 -1.2984  0.8917
25999SOL     OW85236   4.725   1.938  10.948 -0.0728 -0.5497  0.3639
25999SOL    HW185237   4.659   1.962  11.014  0.4505 -0.3026  0.8085
25999SOL    HW285238   4.757   2.022  10.915  1.9375 -0.5515  2.0909
26000SOL     OW85239   3.777  11.326   5.949 -0.2372 -0.0727  0.1370
26000SOL    HW185240   3.805  11.417   5.946 -0.0448 -0.1243  0.2775
26000SOL    HW285241   3.773  11.305   6.043  1.3964 -0.7086  0.0988
26001SOL     OW85242   0.820   1.727   6.574  0.1331 -0.1720 -0.3126
26001SOL    HW185243   0.750   1.704   6.635  1.5515  0.9975  1.9189
26001SOL    HW285244   0.789   1.807   6.532 -0.4571 -0.4508 -0.4208
26002SOL     OW85245   3.511   1.022   3.838 -0.1627 -0.4201  0.0341
26002SOL    HW185246   3.464   1.064   3.910 -0.0988 -0.1266 -0.0940
26002SOL    HW285247   3.502   1.082   3.764  0.8690 -0.0852  0.1568
26003SOL     OW85248   7.524   7.666  11.556  0.7236 -0.2141  0.7042
26003SOL    HW185249   7.563   7.729  11.615  2.5777  0.4981 -1.1679
26003SOL    HW285250   7.503   7.716  11.477 -3.7633 -0.6213  1.3759
26004SOL     OW85251   9.065   4.755   6.040 -0.6004 -0.0768  0.3758
26004SOL    HW185252   9.112   4.687   5.992  0.7250  1.5529 -0.7624
26004SOL    HW285253   8.973   4.732   6.032 -0.2856 -0.8214 -1.4345
26005SOL     OW85254   6.386   1.609   3.422 -0.4945 -0.3024  0.0260
26005SOL    HW185255   6.449   1.549   3.461 -1.3216 -0.9790  0.3573
26005SOL    HW285256   6.399   1.691   3.469  1.0228 -0.0211 -0.8036
26006SOL     OW85257   2.581   2.255   2.204 -1.0462  0.2906 -0.2404
26006SOL    HW185258   2.491   2.243   2.235 -0.7631  2.7154  1.9093
26006SOL    HW285259   2.580   2.338   2.158 -0.1480 -0.3400 -1.4508
26007SOL     OW85260   7.251   6.498   4.284 -0.1407  0.1156 -0.1233
26007SOL    HW185261   7.161   6.512   4.310 -0.9830 -0.9699 -2.2199
26007SOL    HW285262   7.280   6.582   4.248 -0.1176  0.6051  1.0019
26008SOL     OW85263  10.787  11.958   6.121  0.0366 -0.6915  0.0731
26008SOL    HW185264  10.870  11.920   6.095  0.0633 -0.7024  0.1718
26008SOL    HW285265  10.759  11.906   6.196  0.3589 -0.1503  0.5827
26009SOL     OW85266   8.981   3.793   9.142  0.1142 -0.2293  0.5700
26009SOL    HW185267   9.035   3.715   9.156 -0.1521 -0.0460  3.0629
26009SOL    HW285268   9.030   3.864   9.184 -1.0178  0.3626  0.9247
26010SOL     OW85269   5.918  11.645   0.696 -0.2614  0.6137  0.2206
26010SOL    HW185270   5.954  11.727   0.729 -0.0491  0.3365  0.6955
26010SOL    HW285271   5.890  11.664   0.607  0.5002  0.9957  0.0580
26011SOL     OW85272  11.352  11.536  12.442  0.0804 -0.1687  0.5090
26011SOL    HW185273  11.443  11.507  12.435 -0.3966 -1.5033 -0.5838
26011SOL    HW285274  11.315  11.520  12.355 -1.1789  0.4576  0.9047
26012SOL     OW85275   2.863   7.635   4.609  0.3888  0.7963  0.1711
26012SOL    HW185276   2.952   7.617   4.581  0.5091  0.9707  0.4324
26012SOL    HW285277   2.837   7.712   4.558  0.3416  0.6711  0.0049
26013SOL     OW85278   3.794  11.718   9.164  0.0177 -0.1925  0.5510
26013SOL    HW185279   3.761  11.735   9.075  2.1785  0.2080 -0.2282
26013SOL    HW285280   3.765  11.795   9.214  0.2483  0.4349 -0.2446
26014SOL     OW85281  10.152   3.754   2.689  0.4170 -0.4993 -0.1816
26014SOL    HW185282  10.217   3.775   2.756  0.6975  0.3625 -0.7039
26014SOL    HW285283  10.129   3.662   2.705 -0.8187  0.1304  2.1935
26015SOL     OW85284   5.491  10.278   2.807 -0.0007  0.8688 -0.5223
26015SOL    HW185285   5.505  10.333   2.884  0.1613  1.2668 -0.8359
26015SOL    HW285286   5.506  10.336   2.732 -2.4610  1.1368 -0.9137
26016SOL     OW85287  10.178   2.434   6.177 -0.3542  0.8210 -0.3404
26016SOL    HW185288  10.268   2.465   6.180 -0.3224  0.8539 -1.2825
26016SOL    HW285289  10.154   2.419   6.268  1.1622 -0.8261 -0.1778
26017SOL     OW85290   4.140   9.858   0.105 -0.0833 -0.7556  0.1185
26017SOL    HW185291   4.222   9.905   0.119  0.3090 -1.5894  0.6934
26017SOL    HW285292   4.167   9.777   0.062 -0.2729 -2.1748  2.4909
26018SOL     OW85293  11.354   4.186   7.812 -0.1163  0.7421  0.0213
26018SOL    HW185294  11.299   4.262   7.797  2.1902  2.1958 -1.9106
26018SOL    HW285295  11.326   4.123   7.745 -0.3177  0.9453 -0.0857
26019SOL     OW85296   9.127   4.965   6.909 -0.1938 -0.6074 -0.1493
26019SOL    HW185297   9.127   5.027   6.836 -2.3546 -1.1531 -0.6620
26019SOL    HW285298   9.139   5.020   6.987 -2.2290  0.5379 -0.5760
26020SOL     OW85299   6.183   8.843   0.807 -0.0795 -0.1146  0.2462
26020SOL    HW185300   6.252   8.908   0.818  0.1822 -0.3531  0.0165
26020SOL    HW285301   6.229   8.760   0.797 -0.2324  0.0676 -2.9710
26021SOL     OW85302  12.441   8.617   1.191 -0.1470 -0.1272 -0.0443
26021SOL    HW185303  12.431   8.556   1.264 -0.8979 -2.1232 -1.7031
26021SOL    HW285304  12.353   8.649   1.174 -0.3375 -1.2519 -1.3088
26022SOL     OW85305  11.876   2.410  11.198  0.1231 -0.1085  0.6662
26022SOL    HW185306  11.842   2.500  11.194 -1.0926 -0.4706  1.9785
26022SOL    HW285307  11.847   2.378  11.283 -1.7602 -2.6272 -0.7772
26023SOL     OW85308   2.869   0.791   0.264  0.1935  0.1547  0.2451
26023SOL    HW185309   2.852   0.769   0.356  1.1478 -2.3140 -0.0941
26023SOL    HW285310   2.819   0.726   0.214 -0.1848  1.3635 -1.0317
26024SOL     OW85311   2.424   1.673   4.896 -0.5377  0.6041 -0.2271
26024SOL    HW185312   2.374   1.716   4.826 -1.4211 -0.8568 -0.5314
26024SOL    HW285313   2.504   1.643   4.853  0.3933  2.4192  0.1274
26025SOL     OW85314  12.227  11.202   4.718 -0.2296 -0.4094 -0.8850
26025SOL    HW185315  12.135  11.208   4.690  0.0418 -0.2807 -1.7706
26025SOL    HW285316  12.243  11.108   4.725 -0.7088 -0.4189  0.2443
26026SOL     OW85317   9.224   4.876   9.766 -0.1863  0.1838 -0.1866
26026SOL    HW185318   9.155   4.818   9.734  0.3198 -1.0199  0.8308
26026SOL    HW285319   9.287   4.880   9.694  0.5196 -1.7936  0.2579
26027SOL     OW85320   5.294   0.100   5.299 -0.2209 -0.2870 -0.2464
26027SOL    HW185321   5.374   0.079   5.249  0.5408  1.4898  0.1671
26027SOL    HW285322   5.326   0.131   5.383 -1.2787  1.6585 -0.5206
26028SOL     OW85323   1.044   7.904   3.749 -0.0475 -0.2564  0.3763
26028SOL    HW185324   1.070   7.897   3.841  0.5296  1.8520  0.4389
26028SOL    HW285325   1.120   7.875   3.699 -1.3475 -4.4025  0.4170
26029SOL     OW85326   2.920   1.180   6.292 -0.1992  0.2279 -0.0276
26029SOL    HW185327   2.942   1.244   6.225 -0.0983  0.7078  0.4584
26029SOL    HW285328   2.826   1.187   6.304 -0.1799  0.3272  0.0673
26030SOL     OW85329   3.993  12.445   8.117  0.2749  0.3344  0.6441
26030SOL    HW185330   4.028  12.534   8.117  0.0276  0.4641  1.9574
26030SOL    HW285331   3.927  12.445   8.048  0.0520  1.2779  0.8386
26031SOL     OW85332   0.897  11.138   4.779  0.1350 -0.3618 -0.1347
26031SOL    HW185333   0.903  11.111   4.871 -0.1655  0.4591  0.1418
26031SOL    HW285334   0.945  11.221   4.776 -1.0611  0.3431 -0.3984
26032SOL     OW85335   7.570   6.808   4.411 -0.2234 -0.0111 -0.6684
26032SOL    HW185336   7.649   6.840   4.367  0.8528 -1.0476  0.4446
26032SOL    HW285337   7.509   6.881   4.404  0.8841  0.8971 -1.3927
26033SOL     OW85338   1.987   2.633   0.961 -0.2292  0.2853  0.2861
26033SOL    HW185339   2.065   2.619   0.907  0.0772  0.1146  0.7589
26033SOL    HW285340   1.995   2.568   1.031  0.1578  1.4649  1.3886
26034SOL     OW85341   7.787   9.526   1.281  0.0708 -0.5058  0.1135
26034SOL    HW185342   7.800   9.599   1.221  2.5091 -1.0641 -0.1459
26034SOL    HW285343   7.754   9.566   1.362 -2.5207  0.3332 -1.2490
26035SOL     OW85344  10.615   9.480   1.523  0.5414 -0.3411  0.3814
26035SOL    HW185345  10.633   9.399   1.477  1.2890 -0.2391  0.4821
26035SOL    HW285346  10.659   9.548   1.471 -1.9364  0.3360 -0.9644
26036SOL     OW85347   9.781  10.650   7.900  0.1661  0.1808 -0.0293
26036SOL    HW185348   9.778  10.601   7.982  1.7612 -1.1024 -0.6879
26036SOL    HW285349   9.850  10.716   7.914  1.0686 -0.6109 -0.5976
26037SOL     OW85350   5.755   4.642   1.404  0.1602  0.1879  0.4046
26037SOL    HW185351   5.839   4.612   1.439 -0.1615  0.2181  1.2368
26037SOL    HW285352   5.762   4.738   1.402  0.8500  0.1372 -1.3875
26038SOL     OW85353  11.468  10.481   7.416  1.1158 -0.8731 -0.3535
26038SOL    HW185354  11.520  10.401   7.419  2.2749 -0.1440 -0.3677
26038SOL    HW285355  11.394  10.460   7.359  0.8660 -2.2263  0.4274
26039SOL     OW85356   6.860   3.327   1.937 -0.5521 -0.0797 -0.3617
26039SOL    HW185357   6.860   3.334   1.842 -0.8310 -0.2775 -0.3769
26039SOL    HW285358   6.773   3.356   1.963 -1.3280 -2.2679 -0.3350
26040SOL     OW85359  12.011   9.843   2.772 -0.2751 -0.3618  0.2240
26040SOL    HW185360  11.964   9.821   2.852  0.2971 -0.0895  0.6481
26040SOL    HW285361  11.953   9.817   2.701 -1.3616  0.5813  0.7266
26041SOL     OW85362   7.713  10.309   5.577 -0.0937  0.1468 -0.1433
26041SOL    HW185363   7.656  10.307   5.500  0.4481  0.9900 -0.5824
26041SOL    HW285364   7.655  10.336   5.649 -0.5650 -0.4742 -0.2804
26042SOL     OW85365   7.945   0.727   4.272 -0.5753  0.3555  0.1424
26042SOL    HW185366   7.891   0.757   4.199 -2.6635 -3.1720 -0.0201
26042SOL    HW285367   7.939   0.797   4.337  0.3708  3.0773 -2.5050
26043SOL     OW85368  10.282   8.557  11.982 -0.3011 -0.1851  0.0594
26043SOL    HW185369  10.201   8.519  12.016  0.5664 -0.3019  2.1289
26043SOL    HW285370  10.340   8.482  11.968  0.2392  0.0672  0.8710
26044SOL     OW85371  11.904   7.962   7.041 -0.1327  0.4478 -0.2236
26044SOL    HW185372  11.823   7.934   6.999  0.3797  0.7943 -1.4799
26044SOL    HW285373  11.885   7.958   7.135 -0.8171 -1.8199 -0.4098
26045SOL     OW85374   6.740   1.514   2.232 -0.2082 -0.1606  0.0603
26045SOL    HW185375   6.648   1.509   2.257 -1.0862 -2.1846 -2.9952
26045SOL    HW285376   6.745   1.587   2.171 -0.1146 -0.9232 -0.8588
26046SOL     OW85377   6.803   3.087   5.536  0.7377  0.2981 -0.3781
26046SOL    HW185378   6.876   3.115   5.481  0.5647  0.2302 -0.6450
26046SOL    HW285379   6.843   3.038   5.607  0.8535 -0.8604 -1.2273
26047SOL     OW85380   1.187  10.686  11.625  0.6290  0.1047  0.0286
26047SOL    HW185381   1.223  10.599  11.612  1.0395  0.5340 -2.2710
26047SOL    HW285382   1.135  10.680  11.705  0.7621 -2.1906 -0.0094
26048SOL     OW85383   7.196   7.131   9.617  0.0195  0.3172 -0.0600
26048SOL    HW185384   7.134   7.200   9.642  0.4082  0.9182 -0.7144
26048SOL    HW285385   7.144   7.071   9.563 -0.5643 -0.4444  1.3117
26049SOL     OW85386   7.429   6.722   8.469  0.1901 -0.1054 -0.2367
26049SOL    HW185387   7.489   6.739   8.542  1.0360  1.0029 -1.1602
26049SOL    HW285388   7.482   6.737   8.390 -0.6904 -1.3085 -1.0974
26050SOL     OW85389   0.775   7.131   6.493 -0.0684  0.0195 -0.6750
26050SOL    HW185390   0.790   7.189   6.568 -2.2081 -2.0194  1.4641
26050SOL    HW285391   0.817   7.049   6.517 -2.2040 -1.1993 -0.8980
26051SOL     OW85392   3.714   4.600  10.984 -0.5258  0.1841  0.1505
26051SOL    HW185393   3.676   4.558  10.907  1.0163 -0.8074 -0.1040
26051SOL    HW285394   3.764   4.673  10.949  1.5697 -1.2547 -0.0227
26052SOL     OW85395   2.940   5.036  10.765  0.1720 -0.1586 -0.2472
26052SOL    HW185396   2.934   4.965  10.828 -0.8545  0.0763 -0.0594
26052SOL    HW285397   2.960   4.993  10.682 -3.1271 -1.0199 -0.7097
26053SOL     OW85398   9.777   4.192   7.384  0.8189 -0.1254 -0.4517
26053SOL    HW185399   9.815   4.275   7.355  0.7201 -0.5363 -1.8780
26053SOL    HW285400   9.743   4.153   7.303 -0.5771 -0.8175  0.4488
26054SOL     OW85401   4.105   1.258   1.477 -0.0696  0.4743 -0.3389
26054SOL    HW185402   4.061   1.178   1.507  0.5994 -0.0024 -0.6005
26054SOL    HW285403   4.104   1.316   1.553 -3.6234  1.6290 -1.0662
26055SOL     OW85404   4.163   1.956  10.439 -0.2025 -0.0763 -0.6616
26055SOL    HW185405   4.241   2.000  10.473  0.1159 -1.2208  0.1515
26055SOL    HW285406   4.193   1.909  10.362  0.2333 -1.5279  0.3508
26056SOL     OW85407   0.633   8.469  10.799  0.1619  0.2929 -0.3998
26056SOL    HW185408   0.666   8.417  10.726  0.1766  1.0297 -0.9317
26056SOL    HW285409   0.547   8.431  10.818 -0.0790  0.4323 -1.1660
26057SOL     OW85410   0.885   8.424  11.482 -0.3962  0.2309  0.0756
26057SOL    HW185411   0.810   8.414  11.423 -0.5509 -0.1314  0.3268
26057SOL    HW285412   0.869   8.359  11.551  0.7606 -0.7227 -0.5100
26058SOL     OW85413   0.159   0.001   1.549  0.1951 -0.3816 -0.0409
26058SOL    HW185414   0.142   0.022   1.640  0.4881  0.2953 -0.1352
26058SOL    HW285415   0.254  -0.006   1.543  0.2102  0.1063 -0.4051
26059SOL     OW85416  11.193  10.304   1.739  0.2166 -0.5275  0.3194
26059SOL    HW185417  11.116  10.262   1.777  0.3834 -1.6538 -0.5424
26059SOL    HW285418  11.200  10.388   1.785 -0.3928 -1.2406  1.7674
26060SOL     OW85419   8.631   6.776   9.074 -0.5060  0.0065 -0.2658
26060SOL    HW185420   8.659   6.774   9.165  1.3508  0.5031 -0.7818
26060SOL    HW285421   8.708   6.806   9.026 -1.3424 -0.5479 -2.0424
26061SOL     OW85422   7.309   4.997   8.598 -0.0195  0.8541 -0.4387
26061SOL    HW185423   7.366   4.938   8.549 -0.4100 -0.0615  0.1642
26061SOL    HW285424   7.239   5.020   8.537  1.1805  2.3205 -1.3181
26062SOL     OW85425   3.570   7.535   4.369  0.6357 -0.5759 -0.4639
26062SOL    HW185426   3.535   7.446   4.378  0.3491 -0.5095 -0.8982
26062SOL    HW285427   3.502   7.582   4.320  0.0457  0.3066  1.1285
26063SOL     OW85428   9.222   7.791   9.934  0.2662 -0.3513  0.1992
26063SOL    HW185429   9.184   7.718   9.885  0.4926  0.3501 -1.0713
26063SOL    HW285430   9.151   7.854   9.943  0.2953 -0.3661  0.5583
26064SOL     OW85431   2.903   1.658  11.284  0.5555  0.2215 -0.1563
26064SOL    HW185432   2.884   1.750  11.265  2.0795  0.7045  0.4726
26064SOL    HW285433   2.986   1.661  11.332 -0.2377 -1.3525  1.4183
26065SOL     OW85434   3.805   5.181  11.599 -0.4700 -0.0850 -0.3186
26065SOL    HW185435   3.759   5.199  11.681 -0.3629 -0.6327 -0.1309
26065SOL    HW285436   3.844   5.094  11.612  0.7812  0.4445 -0.4114
26066SOL     OW85437   4.855   1.773  12.087  0.2370 -0.2096  0.9433
26066SOL    HW185438   4.863   1.769  11.991  0.6680 -2.6824  1.0152
26066SOL    HW285439   4.764   1.748  12.104  0.5443 -1.1880  1.2074
26067SOL     OW85440   6.902   5.221   4.372 -0.0716 -0.6173 -0.2920
26067SOL    HW185441   6.988   5.246   4.404  0.0285 -0.8150 -0.4035
26067SOL    HW285442   6.880   5.287   4.307 -0.5709  0.1779  0.6602
26068SOL     OW85443   3.375   7.317   0.283 -0.0698  0.3135 -0.1356
26068SOL    HW185444   3.430   7.393   0.263 -0.0422  0.5702  0.8730
26068SOL    HW285445   3.419   7.244   0.240  0.7442  0.6113  0.1678
26069SOL     OW85446  10.035   0.846   3.619 -0.3047  0.1919  0.3033
26069SOL    HW185447   9.941   0.835   3.613 -0.2892 -0.4325  1.0389
26069SOL    HW285448  10.067   0.837   3.529 -0.9069  0.0313  0.1056
26070SOL     OW85449   0.018   3.105   1.503  0.2679  0.2041  0.2200
26070SOL    HW185450   0.110   3.124   1.520  0.0677  1.5539 -0.1067
26070SOL    HW285451   0.019   3.024   1.452  1.2227 -0.1957  0.8477
26071SOL     OW85452   9.120   8.293   5.633  0.1022 -0.4384 -0.0097
26071SOL    HW185453   9.214   8.292   5.647  0.2488  1.5544 -0.5421
26071SOL    HW285454   9.110   8.319   5.541 -0.9701 -2.2165 -0.4439
26072SOL     OW85455   3.390   4.268   1.320  0.1799 -0.0762 -0.0142
26072SOL    HW185456   3.349   4.187   1.290 -1.0224  1.1818 -1.9907
26072SOL    HW285457   3.412   4.251   1.412 -2.4959 -1.6977  0.4369
26073SOL     OW85458   1.813   9.816  11.779  0.0526 -0.0801 -0.3610
26073SOL    HW185459   1.894   9.765  11.778  0.3640  0.3773  0.4535
26073SOL    HW285460   1.841   9.907  11.767 -0.0637  0.3822  2.2070
26074SOL     OW85461   2.881   8.748   0.138  0.3199 -0.1025 -0.6857
26074SOL    HW185462   2.845   8.680   0.195  1.2633 -0.6412 -0.7160
26074SOL    HW285463   2.971   8.720   0.122  0.8010  1.2757 -0.5077
26075SOL     OW85464  11.922  12.076  11.140 -0.3545  0.0451 -0.0887
26075SOL    HW185465  11.917  12.164  11.176 -0.0178 -1.1984  3.3676
26075SOL    HW285466  11.831  12.051  11.124 -0.5578  0.5388  0.2795
26076SOL     OW85467   5.675   1.560   2.282  0.1577  0.1774 -0.1651
26076SOL    HW185468   5.669   1.465   2.288 -2.0412  0.3042  0.8638
26076SOL    HW285469   5.677   1.579   2.189  1.5928 -0.8849 -0.3784
26077SOL     OW85470   1.247   2.875   4.302 -0.0128 -0.1438  0.5794
26077SOL    HW185471   1.326   2.910   4.261  1.4621 -0.1576  3.1995
26077SOL    HW285472   1.267   2.783   4.318 -2.2694 -1.3398 -2.4779
26078SOL     OW85473   4.577   2.212  12.254  0.5678 -0.5207  0.0280
26078SOL    HW185474   4.523   2.265  12.195  1.2543 -0.4607 -0.5597
26078SOL    HW285475   4.642   2.274  12.288  0.5670 -0.7016  0.3595
26079SOL     OW85476   2.231  11.263   1.193 -0.4057 -0.2795 -0.3510
26079SOL    HW185477   2.207  11.346   1.234  0.9571  0.4451 -0.9519
26079SOL    HW285478   2.169  11.253   1.121 -1.5443 -0.5688  0.6367
26080SOL     OW85479   8.076   8.996   2.837 -0.3514  0.4366 -0.2504
26080SOL    HW185480   8.093   8.903   2.852  0.9013  0.7555  0.4564
26080SOL    HW285481   8.163   9.037   2.837 -0.7891  1.4497 -1.7414
26081SOL     OW85482   8.662  10.950  10.181 -0.0651  0.5054 -0.2537
26081SOL    HW185483   8.620  11.000  10.251  0.7807  0.7021  0.1202
26081SOL    HW285484   8.593  10.890  10.151 -0.4669  0.4718  0.6884
26082SOL     OW85485   6.884   7.003   0.484 -0.0788  0.1416  0.0369
26082SOL    HW185486   6.847   6.968   0.402  0.7037  0.7637 -0.5918
26082SOL    HW285487   6.839   6.953   0.553 -0.3591 -0.7728 -0.7803
26083SOL     OW85488   4.762   1.301  11.136 -0.1936  0.6659 -0.1297
26083SOL    HW185489   4.730   1.266  11.219  1.0635 -0.1424  0.0426
26083SOL    HW285490   4.730   1.239  11.070 -0.2694  0.7010 -0.1257
26084SOL     OW85491   3.314   7.137  12.387  0.1829 -0.4083  0.0051
26084SOL    HW185492   3.315   7.083  12.308 -0.4003 -1.4632  0.6863
26084SOL    HW285493   3.285   7.077  12.456  0.6185  0.5039  1.0071
26085SOL     OW85494   3.499   0.849   2.852  0.3058  0.2751  0.2886
26085SOL    HW185495   3.557   0.776   2.827  0.5732  0.6819 -0.2968
26085SOL    HW285496   3.493   0.843   2.947 -0.2842 -0.9740  0.1973
26086SOL     OW85497   9.562   1.816   5.970  0.1128 -0.3449 -0.2891
26086SOL    HW185498   9.549   1.896   5.919  2.1374  0.3961  0.2748
26086SOL    HW285499   9.524   1.836   6.056 -3.1059 -1.5188 -1.3207
26087SOL     OW85500   6.328   6.450  12.671  0.3428  0.0894 -0.1230
26087SOL    HW185501   6.325   6.357  12.694 -0.1299  0.0095 -0.4998
26087SOL    HW285502   6.422   6.471  12.666  0.4473 -0.3859 -0.1377
26088SOL     OW85503   7.401  10.267  11.627  0.0771 -0.1354  0.1044
26088SOL    HW185504   7.456  10.272  11.705 -0.3669 -1.2711  0.5149
26088SOL    HW285505   7.325  10.217  11.655 -0.1066 -0.5333 -1.0556
26089SOL     OW85506   9.753  12.623   9.116  0.5048  0.6459 -0.2014
26089SOL    HW185507   9.763  12.702   9.063 -0.3384  0.9250  0.0306
26089SOL    HW285508   9.743  12.552   9.053  1.2994  0.7144 -0.4112
26090SOL     OW85509   5.475   5.919   3.372  0.3725 -0.3540  1.2240
26090SOL    HW185510   5.441   5.926   3.283 -0.7846  1.0683  1.7395
26090SOL    HW285511   5.562   5.878   3.362  0.5645  0.4297 -0.6088
26091SOL     OW85512   9.631   3.837   0.640 -0.3066  0.2071 -0.1955
26091SOL    HW185513   9.613   3.931   0.648 -0.3213  0.3172 -1.4146
26091SOL    HW285514   9.544   3.797   0.630 -0.2885  0.0747  0.1566
26092SOL     OW85515   5.137   0.112   5.848 -0.4350  0.0419  0.0642
26092SOL    HW185516   5.212   0.053   5.846  0.8536  1.5734  1.1376
26092SOL    HW285517   5.110   0.113   5.940 -0.7074  0.7963 -0.0222
26093SOL     OW85518  11.575   2.797   1.432 -0.0776  0.0936  0.5042
26093SOL    HW185519  11.650   2.855   1.442 -0.8148  1.1369  0.0611
26093SOL    HW285520  11.535   2.794   1.519  0.5971 -0.6641  0.8046
26094SOL     OW85521   7.671  11.941  10.230  0.7152 -0.2464 -0.0671
26094SOL    HW185522   7.726  11.882  10.282  0.7739 -1.0123 -0.9734
26094SOL    HW285523   7.644  12.009  10.291  0.7279 -1.1588  0.9851
26095SOL     OW85524   7.967   6.658   6.985 -0.0904 -0.0076 -0.2304
26095SOL    HW185525   8.032   6.638   7.052 -0.6621 -1.2141 -0.0242
26095SOL    HW285526   7.883   6.652   7.029 -0.5114 -1.3241 -1.1586
26096SOL     OW85527   9.498   7.802   2.809  0.1951 -0.1784 -0.4616
26096SOL    HW185528   9.558   7.863   2.767 -0.9633  0.8312 -0.6786
26096SOL    HW285529   9.413   7.820   2.769 -0.4096 -1.0504  0.3971
26097SOL     OW85530   7.248   5.260   2.346  0.2030 -0.4750  0.0035
26097SOL    HW185531   7.225   5.256   2.253 -0.6106 -0.1164  0.1728
26097SOL    HW285532   7.343   5.255   2.348  0.2132 -0.7816 -0.8315
26098SOL     OW85533   9.764   1.494   4.048 -0.1747  0.2662  0.3133
26098SOL    HW185534   9.763   1.511   3.954 -2.4441  1.7111  0.5198
26098SOL    HW285535   9.674   1.466   4.068 -0.9357  3.7447  2.5843
26099SOL     OW85536  11.995   8.116   2.432 -0.2659  0.3306 -0.5836
26099SOL    HW185537  12.063   8.092   2.495  0.2018  0.6546 -0.9592
26099SOL    HW285538  12.043   8.140   2.353 -0.8638 -0.7005 -1.2866
26100SOL     OW85539   3.005   6.208   8.695  0.2866  0.1413  0.2739
26100SOL    HW185540   2.963   6.122   8.687  2.4486 -0.8603 -1.4862
26100SOL    HW285541   3.096   6.188   8.717  0.5668  2.0629  1.0058
26101SOL     OW85542   2.610   9.539   0.977 -0.0756  0.0693 -0.0558
26101SOL    HW185543   2.601   9.628   1.011 -1.9994 -0.3370  0.6799
26101SOL    HW285544   2.614   9.550   0.882 -0.3763  0.9540  0.0208
26102SOL     OW85545   2.491  11.946   3.108  0.3697  0.1946  0.2789
26102SOL    HW185546   2.498  11.952   3.203 -1.4671  0.2483  0.4501
26102SOL    HW285547   2.470  12.034   3.079 -0.4293 -0.0759 -0.0093
26103SOL     OW85548   7.073   1.002  10.432  0.5555 -0.7743  0.0600
26103SOL    HW185549   7.026   1.085  10.422  1.1708 -0.5892 -1.7959
26103SOL    HW285550   7.005   0.935  10.431  0.1413 -0.3574  0.2801
26104SOL     OW85551   4.231   0.536  10.146  0.0125 -0.2909  0.2814
26104SOL    HW185552   4.140   0.519  10.119  0.0413 -1.3051  0.7866
26104SOL    HW285553   4.247   0.626  10.117 -1.1568 -0.0844  0.1914
26105SOL     OW85554   0.897   7.351   5.020  0.7388  0.2119  0.2517
26105SOL    HW185555   0.945   7.299   4.956 -0.1560  0.0668 -0.3315
26105SOL    HW285556   0.894   7.439   4.981  2.5219  0.8320  1.3783
26106SOL     OW85557   3.790   4.209  11.588  0.5300 -0.1630 -0.1297
26106SOL    HW185558   3.696   4.194  11.581  0.3244 -1.2658  3.2434
26106SOL    HW285559   3.830   4.130  11.551  0.2112  0.4826 -1.9383
26107SOL     OW85560  11.408   9.509   9.016 -0.4678 -0.2111 -0.4766
26107SOL    HW185561  11.378   9.598   8.997 -0.4747 -0.2995 -0.8898
26107SOL    HW285562  11.397   9.500   9.111 -1.0466  0.0132 -0.5163
26108SOL     OW85563   0.741   5.533   6.034  0.9397 -0.2304 -0.5563
26108SOL    HW185564   0.809   5.470   6.010  0.6569  0.0925 -2.3386
26108SOL    HW285565   0.685   5.539   5.956  0.2724  1.3332  0.0033
26109SOL     OW85566   6.774   8.121  11.843  0.1640 -0.2648 -0.3613
26109SOL    HW185567   6.848   8.179  11.861  0.3967 -0.9075  0.8678
26109SOL    HW285568   6.716   8.172  11.787  1.9995 -0.0785 -2.2139
26110SOL     OW85569   4.910   9.455   8.470  0.2001 -0.1207  0.2934
26110SOL    HW185570   4.851   9.496   8.407 -1.0958 -1.5425  0.5137
26110SOL    HW285571   4.958   9.528   8.510  0.0840  0.9042 -1.3570
26111SOL     OW85572   8.377   5.542  11.234 -0.1294  0.6023  0.3075
26111SOL    HW185573   8.383   5.493  11.316 -0.6793  1.6311  0.9847
26111SOL    HW285574   8.417   5.627  11.253  1.5332  0.2113 -1.0689
26112SOL     OW85575   7.611   0.671  11.969  0.0101 -0.2992 -0.0421
26112SOL    HW185576   7.666   0.612  11.917 -0.6816 -0.7891 -0.2266
26112SOL    HW285577   7.673   0.715  12.028  0.8571  0.5156 -1.4890
26113SOL     OW85578  12.336   9.191   2.851  0.1268  0.2050 -0.9012
26113SOL    HW185579  12.258   9.203   2.905 -0.1963 -1.3229 -0.9885
26113SOL    HW285580  12.307   9.136   2.778  1.1575  0.0421 -1.2080
26114SOL     OW85581  10.016   3.955   5.353 -0.0335  0.0811 -0.3487
26114SOL    HW185582  10.043   3.941   5.262  2.7917  1.8939  0.0904
26114SOL    HW285583  10.040   3.873   5.397 -0.1922 -0.3198 -0.9914
26115SOL     OW85584   9.481   5.115   1.135 -0.3109  0.5779  0.7259
26115SOL    HW185585   9.399   5.069   1.119  1.0883 -1.8023 -0.1862
26115SOL    HW285586   9.478   5.192   1.079 -1.7507  0.3270  0.4377
26116SOL     OW85587   5.165   3.251   4.272 -0.2186  0.4615 -0.0774
26116SOL    HW185588   5.158   3.254   4.177  0.2432 -0.0105 -0.1338
26116SOL    HW285589   5.256   3.225   4.288 -0.2505  0.6955  0.4946
26117SOL     OW85590   4.431   1.122   1.813 -0.1428  0.3892 -0.0182
26117SOL    HW185591   4.440   1.174   1.733  1.7956 -1.1166 -0.8553
26117SOL    HW285592   4.348   1.150   1.851 -0.6270  1.8511 -2.0293
26118SOL     OW85593  10.979   6.856   2.564 -0.1307  0.1064 -0.3387
26118SOL    HW185594  10.922   6.800   2.512 -1.1543 -0.0315  0.8873
26118SOL    HW285595  10.974   6.941   2.521 -0.7798 -0.0549 -0.5920
26119SOL     OW85596   9.886   6.312   3.822 -0.1420 -0.0633 -0.6125
26119SOL    HW185597   9.814   6.323   3.885  1.3810 -0.9314  1.3675
26119SOL    HW285598   9.940   6.390   3.834  0.6297 -0.6518 -0.1796
26120SOL     OW85599   8.388   5.949  10.755  0.1900 -0.4116 -0.4063
26120SOL    HW185600   8.390   5.926  10.662 -0.5201 -1.5303 -0.1697
26120SOL    HW285601   8.364   6.042  10.756 -1.3456 -0.7558 -1.3164
26121SOL     OW85602   2.600   0.073   6.010 -0.0231  0.0227 -0.3216
26121SOL    HW185603   2.639   0.053   6.095 -1.3905 -0.1111  0.2890
26121SOL    HW285604   2.669   0.120   5.963  0.3411  1.1962  1.3075
26122SOL     OW85605   2.847   9.254   4.685 -0.4020  0.5030  0.4960
26122SOL    HW185606   2.831   9.160   4.698  1.7855  0.2505  1.9551
26122SOL    HW285607   2.835   9.293   4.771  0.6840  1.2314  0.3334
26123SOL     OW85608   7.719   3.069   8.141  0.6446 -0.4172 -0.3252
26123SOL    HW185609   7.710   3.054   8.047 -0.4444  1.1130 -0.5033
26123SOL    HW285610   7.754   3.158   8.148 -0.2637 -0.1117  0.7156
26124SOL     OW85611  10.499   5.545  10.493 -0.2952 -0.1955 -0.1630
26124SOL    HW185612  10.531   5.461  10.462  1.5515  0.0725  0.9010
26124SOL    HW285613  10.481   5.531  10.586  0.9429  0.7870  0.2563
26125SOL     OW85614   7.604  11.476   4.088 -0.1300 -0.9143  0.8301
26125SOL    HW185615   7.639  11.471   4.177  0.5466 -0.5940  0.5900
26125SOL    HW285616   7.680  11.495   4.033 -1.0723  3.5530  0.6602
26126SOL     OW85617   5.068  12.703   5.461  0.1332 -0.5058  0.0591
26126SOL    HW185618   5.073  12.658   5.545  0.4024  0.1127  0.3878
26126SOL    HW285619   5.142  12.669   5.411  0.6686 -0.0355  0.5111
26127SOL     OW85620  10.948  12.151   3.149 -0.2751  0.4936  0.6798
26127SOL    HW185621  10.984  12.063   3.135  1.9580  1.3306  0.6663
26127SOL    HW285622  10.953  12.192   3.062 -0.0174  1.0524  0.9533
26128SOL     OW85623  10.814   4.266   6.075  0.0700 -0.7759 -0.0879
26128SOL    HW185624  10.807   4.290   5.982 -0.2353 -2.2520 -0.4752
26128SOL    HW285625  10.884   4.202   6.078 -0.0315 -0.8603  0.6909
26129SOL     OW85626   3.010   0.129   6.723 -0.1752 -0.3247 -0.3612
26129SOL    HW185627   2.981   0.158   6.809 -3.3703  1.0664 -1.7542
26129SOL    HW285628   2.958   0.050   6.706  0.6472 -0.7616 -0.9214
26130SOL     OW85629   2.376  11.849   1.633  0.1145 -0.1668  0.4661
26130SOL    HW185630   2.408  11.818   1.549  0.8763 -0.1327  0.7351
26130SOL    HW285631   2.288  11.882   1.615  1.5031  3.2349 -1.1416
26131SOL     OW85632   5.801   8.329   4.567  0.1828 -0.2455 -0.1094
26131SOL    HW185633   5.857   8.281   4.628 -0.0282  0.6262  0.7943
26131SOL    HW285634   5.846   8.413   4.555 -1.2312  0.7478  1.1734
26132SOL     OW85635   1.464   5.039   9.014  0.4059  0.2537  0.3107
26132SOL    HW185636   1.374   5.013   9.034  0.1862  0.8817  0.1633
26132SOL    HW285637   1.497   5.073   9.097 -0.0500  1.5727 -0.0281
26133SOL     OW85638  11.360   7.972   8.497 -0.1093 -0.0161 -0.2908
26133SOL    HW185639  11.414   7.972   8.419  0.8982 -0.7920  0.3672
26133SOL    HW285640  11.405   8.029   8.558 -0.1118 -0.5298  0.2063
26134SOL     OW85641  10.369   7.177   5.664  0.3400  0.0453 -0.1292
26134SOL    HW185642  10.462   7.158   5.669  0.3837  0.3690  0.3832
26134SOL    HW285643  10.326   7.092   5.671  0.6182 -0.1911 -1.2169
26135SOL     OW85644   0.577   7.307   1.516  0.0727  0.3679 -0.0132
26135SOL    HW185645   0.639   7.239   1.541  0.0608  0.3392 -0.0619
26135SOL    HW285646   0.568   7.362   1.594  0.2987  0.4778 -0.0629
26136SOL     OW85647   7.823   9.103   0.127  0.6867  0.5773 -0.0940
26136SOL    HW185648   7.766   9.174   0.159  0.9217 -0.2485  2.3675
26136SOL    HW285649   7.762   9.034   0.100  0.4914  1.0963 -1.0316
26137SOL     OW85650   1.338   0.838  11.524  0.6834  0.1723 -0.1401
26137SOL    HW185651   1.337   0.827  11.619 -1.7732 -0.0859 -0.1118
26137SOL    HW285652   1.284   0.765  11.492  0.4917  0.9345 -1.6187
26138SOL     OW85653  12.368   2.057   3.670  0.5469 -0.1155  0.7637
26138SOL    HW185654  12.424   2.119   3.624  1.6378  0.1894  2.4187
26138SOL    HW285655  12.319   2.013   3.601  2.3182  0.1037 -0.6915
26139SOL     OW85656   7.350  11.012  12.490  0.4208  0.3833  0.1082
26139SOL    HW185657   7.260  11.009  12.456  1.0181 -0.7333 -1.4905
26139SOL    HW285658   7.344  10.971  12.576 -0.7293  1.0690  0.3861
26140SOL     OW85659   4.047   3.947   3.331  0.5912 -0.1866  0.2202
26140SOL    HW185660   4.117   3.945   3.266 -0.4207 -0.0712 -0.9081
26140SOL    HW285661   4.023   4.040   3.337 -0.5895 -0.3995 -0.6922
26141SOL     OW85662   4.050  10.888   4.011 -0.4377  0.2745 -0.1784
26141SOL    HW185663   4.020  10.824   4.075 -0.1757  0.3172 -0.0135
26141SOL    HW285664   4.112  10.840   3.957 -0.9230  0.1397 -0.6295
26142SOL     OW85665   0.605   2.200   2.631  0.0680 -0.0182  0.0453
26142SOL    HW185666   0.579   2.154   2.710 -1.6533  1.3745  0.3540
26142SOL    HW285667   0.700   2.186   2.625  0.2343 -0.2164  2.3069
26143SOL     OW85668  10.281  11.539   6.483  0.4213 -0.1561 -0.2366
26143SOL    HW185669  10.227  11.464   6.457 -0.6343  0.3863  0.3500
26143SOL    HW285670  10.236  11.576   6.559  0.7603  1.2481 -0.6900
26144SOL     OW85671   7.873   4.472   1.638  0.0620 -0.2950 -0.8339
26144SOL    HW185672   7.778   4.474   1.628  0.2177 -0.2232 -2.4549
26144SOL    HW285673   7.887   4.419   1.717 -1.3797  1.5620  0.7544
26145SOL     OW85674   4.711   0.863   2.233 -0.2923  0.2178  0.0942
26145SOL    HW185675   4.756   0.854   2.317 -1.1151 -1.1929  0.4268
26145SOL    HW285676   4.744   0.790   2.180  1.0323  1.7025 -1.2448
26146SOL     OW85677   5.645   1.169  12.567  0.4655 -0.6151 -0.0970
26146SOL    HW185678   5.651   1.091  12.622  1.0414 -0.3401  0.2353
26146SOL    HW285679   5.563   1.212  12.594  0.3049 -0.9386 -0.0681
26147SOL     OW85680   1.765   1.194   5.527 -0.4529  0.5853 -0.5216
26147SOL    HW185681   1.775   1.175   5.434  1.9646 -0.4926 -0.1374
26147SOL    HW285682   1.835   1.256   5.547  0.6465 -1.0340  0.9887
26148SOL     OW85683   4.653  12.673  10.271 -0.6947  0.1118 -0.1696
26148SOL    HW185684   4.611  12.623  10.201  0.0057  0.1001 -0.5891
26148SOL    HW285685   4.657  12.763  10.237  0.2726 -0.0274 -0.4348
26149SOL     OW85686  10.232   6.085   1.370 -0.4936  0.3262  0.1802
26149SOL    HW185687  10.243   6.099   1.464 -0.8582 -1.2974  0.4887
26149SOL    HW285688  10.274   6.162   1.330  0.5641  0.5556  1.6266
26150SOL     OW85689   6.915  10.320   6.692 -0.0054 -0.0155 -0.0764
26150SOL    HW185690   6.833  10.351   6.653 -1.1953 -0.7864  1.6653
26150SOL    HW285691   6.909  10.345   6.784  1.4766 -0.5822  0.2120
26151SOL     OW85692   2.145   0.657   3.664  0.4448  1.1274 -0.1232
26151SOL    HW185693   2.108   0.669   3.576 -0.2560  2.6532  0.3329
26151SOL    HW285694   2.233   0.624   3.649 -0.2092 -0.1954 -1.3371
26152SOL     OW85695  11.848   4.910   5.561  0.1058 -0.1513  0.4608
26152SOL    HW185696  11.812   4.824   5.583 -0.4564  0.7263  3.4384
26152SOL    HW285697  11.880   4.945   5.645 -0.8327  3.0586 -0.3675
26153SOL     OW85698   8.232   0.093   1.471 -0.0208  0.4451 -0.2998
26153SOL    HW185699   8.232   0.154   1.545 -0.0224  0.1714 -0.0671
26153SOL    HW285700   8.146   0.052   1.474  0.8806 -1.5465  1.2452
26154SOL     OW85701   5.818   4.706  11.239 -0.1232 -0.3216  0.5027
26154SOL    HW185702   5.765   4.657  11.175 -0.4940 -0.7020  1.0846
26154SOL    HW285703   5.754   4.754  11.291 -0.1547 -2.4533  2.6322
26155SOL     OW85704  10.269   0.832   6.165  0.6630  0.0604 -0.3896
26155SOL    HW185705  10.218   0.750   6.163  0.5692  0.1029  0.0994
26155SOL    HW285706  10.289   0.850   6.073  2.2476 -1.4868 -0.3977
26156SOL     OW85707   7.483   8.386  12.023  0.4147 -0.0762 -0.2565
26156SOL    HW185708   7.437   8.359  11.943  0.2377 -0.9778  0.1396
26156SOL    HW285709   7.566   8.339  12.019  0.4594 -0.0201  0.0290
26157SOL     OW85710  12.416   2.655  12.018  0.2812  0.0336  0.3600
26157SOL    HW185711  12.329   2.648  12.057  0.9709  2.8018  2.7213
26157SOL    HW285712  12.474   2.606  12.076  0.6341  0.2412  0.1928
26158SOL     OW85713  10.497  10.791   8.592  0.1512  0.2413 -0.4163
26158SOL    HW185714  10.487  10.696   8.586  0.3490  0.1329  0.8012
26158SOL    HW285715  10.508  10.820   8.501  2.1663 -1.1294 -0.6763
26159SOL     OW85716   7.464   9.187   3.863 -0.1912  0.2579  0.1047
26159SOL    HW185717   7.498   9.276   3.860 -0.9806  0.5573 -0.3629
26159SOL    HW285718   7.451   9.168   3.956  1.1906  0.1433  0.2954
26160SOL     OW85719   2.648  11.017  10.981 -0.2566  0.6269  0.4116
26160SOL    HW185720   2.638  11.071  10.902 -0.2911  0.5328  0.3511
26160SOL    HW285721   2.735  11.040  11.014 -0.0343  0.2985  0.0656
26161SOL     OW85722   4.397   6.601   1.444  0.5726 -0.0391 -0.2619
26161SOL    HW185723   4.334   6.662   1.483  1.3330 -0.1862  1.2811
26161SOL    HW285724   4.344   6.527   1.414  0.0082 -0.3637  1.4037
26162SOL     OW85725   6.132   9.747   0.230  0.0924 -0.7897 -0.5620
26162SOL    HW185726   6.215   9.793   0.219 -0.7597  0.8134 -0.4610
26162SOL    HW285727   6.144   9.694   0.309  0.5645  0.4777  0.2417
26163SOL     OW85728   6.216  11.529   6.971  0.3699 -0.8303 -0.0149
26163SOL    HW185729   6.225  11.440   7.005  1.2729 -0.6238  0.3142
26163SOL    HW285730   6.287  11.538   6.908  0.0209 -0.4772 -0.3693
26164SOL     OW85731   6.428   5.636   6.482  0.4468  0.1120 -0.5435
26164SOL    HW185732   6.464   5.723   6.464  2.0823 -0.5006 -0.4002
26164SOL    HW285733   6.405   5.637   6.575  1.6315  0.0159 -0.2357
26165SOL     OW85734  12.443  12.325  11.396 -0.6500 -0.0591 -0.4305
26165SOL    HW185735  12.362  12.313  11.445 -0.3705  0.8167  0.2569
26165SOL    HW285736  12.505  12.264  11.436 -1.2581 -1.5949 -1.7096
26166SOL     OW85737   3.173   4.468  10.512 -0.4576  0.1883 -0.4298
26166SOL    HW185738   3.192   4.558  10.539 -0.2511 -0.0642  0.2968
26166SOL    HW285739   3.258   4.426  10.501 -0.5553  0.0006 -0.4906
26167SOL     OW85740   6.028   4.245   6.464 -0.0637 -0.3743 -0.8583
26167SOL    HW185741   6.037   4.227   6.370  0.3591  0.8600 -1.0676
26167SOL    HW285742   6.104   4.299   6.485 -1.5150  1.5734 -0.3769
26168SOL     OW85743   8.496   4.790  12.465  0.1298 -0.3322  0.6993
26168SOL    HW185744   8.421   4.818  12.517  0.4379  1.3431  0.2838
26168SOL    HW285745   8.567   4.849  12.492  0.7855 -0.6475 -0.2846
26169SOL     OW85746  11.573  12.645  11.024 -0.3370  0.6332  0.3605
26169SOL    HW185747  11.483  12.636  11.055 -0.1671  1.0577  1.0007
26169SOL    HW285748  11.613  12.709  11.083  0.9402 -0.9605  1.3292
26170SOL     OW85749   7.637   9.426   3.106 -0.1098  0.1048 -0.1043
26170SOL    HW185750   7.639   9.343   3.058 -1.4572 -0.1961  0.3175
26170SOL    HW285751   7.597   9.488   3.045 -1.9881 -0.3192  0.6204
26171SOL     OW85752  12.418  11.620   6.932 -0.6515 -0.9088  0.5093
26171SOL    HW185753  12.336  11.661   6.907 -0.2633 -0.2946  0.2316
26171SOL    HW285754  12.411  11.530   6.900 -1.3241 -0.9436  0.7414
26172SOL     OW85755   9.399   4.150   5.091 -0.3620 -0.1191  0.5376
26172SOL    HW185756   9.469   4.102   5.136  0.7125  1.9755  1.2393
26172SOL    HW285757   9.319   4.125   5.137  0.5252  0.8528  2.7407
26173SOL     OW85758  11.959   3.576  11.049 -0.3426 -0.2869 -0.3306
26173SOL    HW185759  11.937   3.642  11.115 -0.5340 -0.0371 -0.6358
26173SOL    HW285760  12.043   3.605  11.013  0.1458 -0.8512  0.3409
26174SOL     OW85761   8.935  11.339  12.700 -0.2945  0.4272  0.9202
26174SOL    HW185762   8.936  11.266  12.761  1.3814 -1.3827 -1.1095
26174SOL    HW285763   8.988  11.407  12.742 -0.5348 -0.1248  2.1474
26175SOL     OW85764   2.711   6.275   8.527  0.0679  0.1126 -0.1378
26175SOL    HW185765   2.761   6.351   8.558  0.0240 -0.0279  0.2748
26175SOL    HW285766   2.757   6.247   8.448  0.7506 -0.1266  0.3326
26176SOL     OW85767   5.634   7.685   6.883  0.0488  0.0581  0.2172
26176SOL    HW185768   5.634   7.742   6.806  0.3464 -0.4035 -0.1301
26176SOL    HW285769   5.564   7.622   6.866  0.7382 -0.6355 -0.1321
26177SOL     OW85770   7.767  12.645   1.701 -0.1144 -0.9733  0.0349
26177SOL    HW185771   7.845  12.701   1.698 -0.4790 -0.5012 -1.2334
26177SOL    HW285772   7.729  12.663   1.787 -1.6640  2.8346 -1.2001
26178SOL     OW85773  12.685   1.843   0.255 -0.3221  0.7106 -0.3156
26178SOL    HW185774  12.756   1.805   0.203 -0.1807 -1.2720  1.1923
26178SOL    HW285775  12.730   1.885   0.329 -0.6299 -3.0033  2.2162
26179SOL     OW85776   5.699  11.605   6.563 -0.3779  0.0062 -0.1214
26179SOL    HW185777   5.624  11.666   6.564 -0.1251  0.3256  1.4827
26179SOL    HW285778   5.754  11.633   6.636  1.2029 -0.3954 -1.1018
26180SOL     OW85779   0.779   2.928   4.015 -0.5513  0.1891 -0.1790
26180SOL    HW185780   0.833   3.004   3.991  1.1566 -0.8099  0.3074
26180SOL    HW285781   0.788   2.922   4.110 -0.2586 -0.9043 -0.2696
26181SOL     OW85782   1.205  10.338   3.908  0.0759  0.1872  0.0817
26181SOL    HW185783   1.137  10.326   3.974 -0.9085  0.5548 -0.8295
26181SOL    HW285784   1.266  10.266   3.923 -1.9636 -1.9018 -0.8028
26182SOL     OW85785   8.001   7.368   2.848 -0.3169 -0.7035 -0.3854
26182SOL    HW185786   8.044   7.309   2.909  2.3938  1.8990  0.4516
26182SOL    HW285787   7.927   7.318   2.814 -1.0831 -2.8581  3.8089
26183SOL     OW85788   8.152   5.494  11.496  0.3789  0.4299  0.0167
26183SOL    HW185789   8.170   5.428  11.428 -0.1517  1.0912 -0.7936
26183SOL    HW285790   8.057   5.490  11.507  0.3549  0.9830  0.0316
26184SOL     OW85791   2.647   8.257   3.663  0.0638  0.1384  0.2973
26184SOL    HW185792   2.591   8.181   3.680 -1.0525  0.9643  0.4570
26184SOL    HW285793   2.681   8.241   3.575 -0.3047 -0.4607  0.2508
26185SOL     OW85794   9.655  10.592   1.053  0.2353  0.5956  0.3110
26185SOL    HW185795   9.674  10.547   1.136  0.6560  0.6451  0.2466
26185SOL    HW285796   9.563  10.573   1.036  0.5322 -0.6774  0.0221
26186SOL     OW85797  10.273   4.059   3.301 -0.0776 -0.2437 -0.2217
26186SOL    HW185798  10.225   4.010   3.234 -1.4954 -0.1854  0.7205
26186SOL    HW285799  10.290   3.995   3.370 -1.4952  0.4247  0.7901
26187SOL     OW85800   7.442  10.426   7.344  0.0913 -0.0806 -0.0671
26187SOL    HW185801   7.429  10.422   7.249 -0.3500 -2.3454  0.0296
26187SOL    HW285802   7.470  10.516   7.361 -2.2957  1.1486 -1.9974
26188SOL     OW85803   5.053   0.252   5.220  0.2133  0.0023  0.1109
26188SOL    HW185804   5.122   0.191   5.244  0.3398 -1.1030 -2.7212
26188SOL    HW285805   5.052   0.251   5.125 -1.4949  2.5500  0.0137
26189SOL     OW85806  10.682   4.873   7.507 -0.5135  0.5553 -0.2541
26189SOL    HW185807  10.773   4.899   7.491 -0.8470  2.0275  0.1166
26189SOL    HW285808  10.630   4.932   7.452 -1.2848  0.2484  0.1259
26190SOL     OW85809   3.126   3.494   9.215 -0.3859 -0.0269 -0.7823
26190SOL    HW185810   3.215   3.471   9.243 -0.9645  0.3860  1.6235
26190SOL    HW285811   3.138   3.574   9.164  0.4798  1.5215  1.6505
26191SOL     OW85812   0.451   0.218   5.092 -0.4929 -0.1954  0.1095
26191SOL    HW185813   0.486   0.296   5.134 -1.4658 -0.1344  0.8318
26191SOL    HW285814   0.422   0.163   5.164  0.5837 -1.4369 -0.3716
26192SOL     OW85815   2.837   2.956   1.511  0.7357  0.3664 -0.6682
26192SOL    HW185816   2.864   2.865   1.501  0.6402  0.3408 -0.6852
26192SOL    HW285817   2.876   2.983   1.595  1.7691  0.6682 -1.2272
26193SOL     OW85818  12.321   6.997   3.430 -0.1169  0.1540  0.0333
26193SOL    HW185819  12.277   7.043   3.359  0.5146  0.4273 -0.1866
26193SOL    HW285820  12.353   7.066   3.488 -2.0136 -0.0854  1.4645
26194SOL     OW85821  11.594  11.017   4.934  0.7824 -0.0986 -0.0007
26194SOL    HW185822  11.555  11.088   4.883 -1.4627 -1.5458 -0.4774
26194SOL    HW285823  11.584  11.044   5.025  1.9347  1.1158 -0.2152
26195SOL     OW85824   7.111  12.263   5.502  0.5603 -0.3199  0.2744
26195SOL    HW185825   7.182  12.316   5.538 -0.4028  0.9875  0.3014
26195SOL    HW285826   7.153  12.180   5.478  1.8825  0.0494  1.2217
26196SOL     OW85827   0.668   7.753   8.840 -0.6062 -0.1599 -0.3659
26196SOL    HW185828   0.643   7.793   8.756 -1.7930  1.3502  0.6637
26196SOL    HW285829   0.590   7.705   8.868 -0.3993 -0.2011  0.1455
26197SOL     OW85830   6.333   8.448   1.861 -0.2076 -0.1734 -0.2360
26197SOL    HW185831   6.381   8.387   1.918 -0.9860 -0.9075 -0.3394
26197SOL    HW285832   6.288   8.507   1.922  0.4153  0.1900 -0.1294
26198SOL     OW85833   1.468   4.075   8.766  0.0042 -0.5090 -0.0500
26198SOL    HW185834   1.388   4.059   8.716  0.4201 -2.3998 -0.1734
26198SOL    HW285835   1.473   4.003   8.828  1.2673 -0.0552  0.4076
26199SOL     OW85836   5.557  12.127   8.543  0.1020 -0.2871 -0.0195
26199SOL    HW185837   5.556  12.058   8.477  0.1348  0.2528 -0.5950
26199SOL    HW285838   5.572  12.081   8.626  1.6550 -0.8326 -0.5736
26200SOL     OW85839   2.626   8.719   8.899 -0.0961 -0.4883 -0.3055
26200SOL    HW185840   2.660   8.637   8.934  0.8105  0.1428  0.3178
26200SOL    HW285841   2.640   8.783   8.968  0.8826  0.5828 -1.4361
26201SOL     OW85842   0.354   7.900   8.141  0.1604 -0.0637 -0.5671
26201SOL    HW185843   0.439   7.877   8.178 -0.2057  0.4914  0.6572
26201SOL    HW285844   0.329   7.981   8.185 -2.0980 -1.4616  0.9752
26202SOL     OW85845   2.720   4.738   8.865  0.0286  0.1122  0.2076
26202SOL    HW185846   2.680   4.682   8.931 -1.1111 -0.1486 -0.6775
26202SOL    HW285847   2.658   4.809   8.851  0.7537  0.7647  0.1882
26203SOL     OW85848   6.652   8.437   1.563  0.4216 -0.2115  0.0714
26203SOL    HW185849   6.604   8.484   1.495 -1.2435 -0.1393  1.2432
26203SOL    HW285850   6.628   8.481   1.644  1.2556 -1.1890  0.8742
26204SOL     OW85851  12.537   8.105   1.178 -0.7055 -0.1326  0.3382
26204SOL    HW185852  12.507   8.195   1.173  0.7707  0.4169  0.7161
26204SOL    HW285853  12.529   8.071   1.089 -0.7198  0.5617  0.0688
26205SOL     OW85854  10.216   3.363   1.068 -0.2099 -0.4913  0.2981
26205SOL    HW185855  10.183   3.314   0.993  1.7461 -0.2260 -0.8191
26205SOL    HW285856  10.147   3.427   1.087 -1.0005 -0.9354 -0.9129
26206SOL     OW85857   1.896  11.006   2.143 -0.2496  0.5697  0.0453
26206SOL    HW185858   1.873  11.015   2.050 -2.4357 -0.0796  0.4734
26206SOL    HW285859   1.992  11.015   2.145 -0.2405  1.6499 -2.1262
26207SOL     OW85860   4.758  11.721   7.191  0.4981 -0.2129 -0.4811
26207SOL    HW185861   4.739  11.628   7.178  0.6754 -0.4013  0.5177
26207SOL    HW285862   4.673  11.762   7.204  0.5224 -0.5660  0.9943
26208SOL     OW85863   5.006   7.238   6.266 -0.3357  0.0915  0.1771
26208SOL    HW185864   5.068   7.253   6.337 -0.8779  2.0816  0.2934
26208SOL    HW285865   4.920   7.243   6.307 -0.6305  0.1532 -0.4393
26209SOL     OW85866   9.111   4.231   5.496  0.3649 -0.2638  0.3207
26209SOL    HW185867   9.047   4.226   5.425  1.2684 -0.3318 -0.5192
26209SOL    HW285868   9.075   4.295   5.557 -0.1131  0.2961 -0.5358
26210SOL     OW85869   6.887   9.862   7.846  0.1656  0.0436 -0.3335
26210SOL    HW185870   6.882   9.839   7.753 -0.6588 -0.6952 -0.1223
26210SOL    HW285871   6.796   9.862   7.876  0.3854  0.6753  0.3916
26211SOL     OW85872  12.570   2.861   3.840  0.3995  0.0542  0.2039
26211SOL    HW185873  12.627   2.787   3.821 -1.4472 -1.0542 -1.3054
26211SOL    HW285874  12.485   2.822   3.860  0.0445  1.6599  2.2368
26212SOL     OW85875   1.653   5.146   7.123  0.2200  0.4570 -0.5379
26212SOL    HW185876   1.688   5.157   7.211  1.4119 -0.1034 -0.9179
26212SOL    HW285877   1.677   5.227   7.077 -1.1021  1.0925 -0.1410
26213SOL     OW85878   7.546   8.150   1.214 -0.0478  0.1777 -0.1234
26213SOL    HW185879   7.494   8.089   1.265  2.5232 -1.1123  1.1345
26213SOL    HW285880   7.536   8.120   1.123  0.3943 -1.5642  0.3677
26214SOL     OW85881  12.312   1.121   8.747  0.8748  0.6544  0.6639
26214SOL    HW185882  12.320   1.070   8.828  0.0663  0.7787  0.8305
26214SOL    HW285883  12.259   1.197   8.772 -0.4236  0.0871 -0.2305
26215SOL     OW85884   8.448   5.684   2.135  0.1459 -0.1545  0.1082
26215SOL    HW185885   8.515   5.663   2.070 -0.7776  0.7395 -1.1890
26215SOL    HW285886   8.482   5.760   2.182  0.5059 -0.3705  0.2010
26216SOL     OW85887   8.161   5.850   9.585  0.0704  0.3116  0.1442
26216SOL    HW185888   8.099   5.790   9.625 -1.4050  0.7082 -1.4408
26216SOL    HW285889   8.136   5.937   9.617 -0.6192  0.5413 -0.9717
26217SOL     OW85890   0.516  12.685   1.946 -0.1123 -0.1993 -0.0363
26217SOL    HW185891   0.568  12.635   2.009 -0.5562  0.0499  0.5386
26217SOL    HW285892   0.575  12.755   1.916  0.0294 -0.1879  0.2665
26218SOL     OW85893   4.371   3.590   4.020  0.0968 -0.3789  0.2098
26218SOL    HW185894   4.313   3.631   4.085  0.9570  1.1978  0.0340
26218SOL    HW285895   4.370   3.497   4.042 -1.4992 -0.2087  0.9842
26219SOL     OW85896   7.948   6.151   8.791 -0.5644  0.1768 -0.3474
26219SOL    HW185897   8.037   6.133   8.820 -0.6484 -0.0944 -0.2587
26219SOL    HW285898   7.954   6.150   8.695 -0.3589  0.7327 -0.3511
26220SOL     OW85899   6.703   1.048   3.718  0.0703 -0.6230  0.5990
26220SOL    HW185900   6.669   1.017   3.634 -1.8207 -0.3374  1.1970
26220SOL    HW285901   6.666   0.988   3.783 -2.6706  1.9370  1.6646
26221SOL     OW85902   2.599   6.037   8.567  0.3488  0.1508  0.5776
26221SOL    HW185903   2.570   6.076   8.650 -0.4671  0.0161  0.3668
26221SOL    HW285904   2.664   6.098   8.533 -1.5610  1.8333 -0.2088
26222SOL     OW85905   9.985   3.451   1.916  0.4498  0.0266 -0.4053
26222SOL    HW185906   9.918   3.418   1.976  0.1145 -1.1328 -1.3858
26222SOL    HW285907   9.978   3.547   1.923 -0.2828 -0.0869  0.6205
26223SOL     OW85908   8.333   8.494   6.042 -0.1508  0.1407  0.7434
26223SOL    HW185909   8.379   8.546   6.107  1.9899 -0.5079 -0.1534
26223SOL    HW285910   8.366   8.526   5.958  1.3291 -2.5938  0.1441
26224SOL     OW85911   2.289   4.422   0.825  0.1817 -0.6100 -0.0744
26224SOL    HW185912   2.240   4.355   0.873 -1.2038 -0.1340 -0.7936
26224SOL    HW285913   2.359   4.448   0.886 -0.0224 -1.7867  0.7022
26225SOL     OW85914  10.114   6.922   3.836  0.3924 -0.3433  0.4350
26225SOL    HW185915  10.110   6.979   3.760  1.6787  1.5882  1.7464
26225SOL    HW285916  10.023   6.913   3.864  0.0353 -0.1360 -0.6158
26226SOL     OW85917   9.577   1.718   9.010  0.1636 -0.1722 -0.2600
26226SOL    HW185918   9.557   1.656   9.080  1.3009 -0.3783 -0.1001
26226SOL    HW285919   9.624   1.790   9.053  2.6152 -1.2075 -1.0508
26227SOL     OW85920   1.419   5.527   1.742 -0.3537 -0.0348 -0.0633
26227SOL    HW185921   1.371   5.572   1.811  0.4506  0.1313  0.4075
26227SOL    HW285922   1.361   5.456   1.714 -2.0379  1.7951 -1.4543
26228SOL     OW85923   6.151   0.520  12.180  0.0565 -0.0742 -0.2227
26228SOL    HW185924   6.238   0.559  12.185  0.4853 -1.1442  1.3687
26228SOL    HW285925   6.164   0.429  12.206 -1.4067 -0.4957 -0.8624
26229SOL     OW85926  11.401  11.205   3.769 -0.0330 -0.4244 -0.3890
26229SOL    HW185927  11.339  11.273   3.795 -1.6511 -0.9460 -2.5732
26229SOL    HW285928  11.484  11.232   3.807 -0.4526  3.1209 -1.6149
26230SOL     OW85929   3.958   1.518   2.672 -0.0286 -0.4570  0.3980
26230SOL    HW185930   4.049   1.546   2.669  0.7692 -2.7119  1.2853
26230SOL    HW285931   3.962   1.422   2.677 -2.4239 -0.6091  0.9575
26231SOL     OW85932   5.204  10.857   1.180 -0.1129  0.8933 -0.0443
26231SOL    HW185933   5.293  10.823   1.178 -0.2407  0.5826 -0.6384
26231SOL    HW285934   5.173  10.838   1.268  0.4138  1.0260  0.1765
26232SOL     OW85935   8.612   4.123   6.674  0.3338 -0.8452  0.2332
26232SOL    HW185936   8.548   4.052   6.661  0.4793 -0.6323 -2.0267
26232SOL    HW285937   8.693   4.077   6.698  0.1022 -1.3537  0.0680
26233SOL     OW85938   1.804  10.634   2.681 -0.2769  0.1499  0.0655
26233SOL    HW185939   1.857  10.567   2.638 -1.2510  0.4949 -1.7804
26233SOL    HW285940   1.829  10.629   2.773  1.1521 -1.3438 -0.3550
26234SOL     OW85941   1.376   9.530   9.922 -0.2513 -0.3714 -1.2491
26234SOL    HW185942   1.358   9.581  10.001  0.7113 -0.2528 -1.0939
26234SOL    HW285943   1.294   9.533   9.873 -0.1739  1.5057 -1.3470
26235SOL     OW85944   4.265   1.731  11.290  0.2396 -0.0460 -0.0661
26235SOL    HW185945   4.225   1.648  11.264  1.2772 -0.9169  1.0146
26235SOL    HW285946   4.287   1.719  11.382  1.9295  0.8042 -0.3301
26236SOL     OW85947   4.539   0.697   5.046 -0.0585 -0.4141  0.5918
26236SOL    HW185948   4.476   0.761   5.014  0.0524 -1.8090 -2.9044
26236SOL    HW285949   4.486   0.621   5.070 -0.0706  0.3663  3.3709
26237SOL     OW85950   8.868   4.210   3.064  0.2011  0.1141 -0.3090
26237SOL    HW185951   8.808   4.270   3.109  0.7338  1.3431 -1.1561
26237SOL    HW285952   8.955   4.242   3.087  0.4995  1.2112 -2.6362
26238SOL     OW85953   1.677  11.492   0.617 -0.1717  0.1669  0.7010
26238SOL    HW185954   1.736  11.421   0.591 -1.5798 -0.3993 -1.1721
26238SOL    HW285955   1.686  11.557   0.547 -0.8373  0.6306  1.0428
26239SOL     OW85956   2.471   5.037  12.580 -0.0924  0.0383  0.9550
26239SOL    HW185957   2.421   5.117  12.563  0.5469  0.2310 -0.1906
26239SOL    HW285958   2.501   5.045  12.670  0.4417  1.3780  0.6795
26240SOL     OW85959   1.870  10.815   4.662  0.1431 -0.6470  0.3077
26240SOL    HW185960   1.909  10.730   4.641 -1.9960 -1.3417 -1.1958
26240SOL    HW285961   1.776  10.798   4.665 -0.3055  1.5843  0.4840
26241SOL     OW85962  11.854   2.319  11.788  0.0018 -0.3406 -0.2936
26241SOL    HW185963  11.916   2.356  11.725 -0.6150  2.7742  0.7548
26241SOL    HW285964  11.904   2.249  11.832  2.1751  0.8289 -0.7448
26242SOL     OW85965   7.142   1.075   8.367  0.0455  0.3294  0.0790
26242SOL    HW185966   7.205   1.144   8.346  0.0352  0.5495  0.7570
26242SOL    HW285967   7.187   0.994   8.343  0.0142  0.5646 -0.8350
26243SOL     OW85968  11.281   0.014  11.376  0.2639 -0.1079 -0.0509
26243SOL    HW185969  11.208   0.054  11.423  1.7811  2.7035  0.1418
26243SOL    HW285970  11.312  -0.055  11.435  0.3052  1.4211  1.8227
26244SOL     OW85971   4.474   4.461  10.835  0.4310 -0.4137 -0.3952
26244SOL    HW185972   4.441   4.501  10.754  2.0262  0.0595 -0.8388
26244SOL    HW285973   4.462   4.367  10.821 -0.3453 -0.2829 -0.6988
26245SOL     OW85974   9.159   1.840  12.517 -0.4127 -0.3530 -0.0661
26245SOL    HW185975   9.173   1.920  12.568 -0.9430  0.1128 -0.6249
26245SOL    HW285976   9.246   1.814  12.487 -0.3389  0.5997 -0.7226
26246SOL     OW85977   5.752   3.027   9.502  0.3044 -0.1732  0.3570
26246SOL    HW185978   5.704   3.104   9.472  0.0034 -0.5155 -0.0517
26246SOL    HW285979   5.684   2.966   9.531  0.3870 -1.1582 -1.3806
26247SOL     OW85980   7.477   5.636   3.953 -0.3935 -0.6219  0.2479
26247SOL    HW185981   7.535   5.573   3.995  0.6140 -0.5003 -0.9202
26247SOL    HW285982   7.530   5.714   3.939 -0.3531 -1.0048 -2.1435
26248SOL     OW85983  12.079   8.458   3.151 -0.1578 -0.4186 -0.8859
26248SOL    HW185984  12.026   8.387   3.115 -1.1198  0.0530 -0.4343
26248SOL    HW285985  12.149   8.414   3.200  0.0006 -1.0520 -1.6581
26249SOL     OW85986   7.528   0.766   3.708  0.1419 -0.2788 -0.0585
26249SOL    HW185987   7.606   0.710   3.706  0.5276  0.2248  0.6273
26249SOL    HW285988   7.481   0.744   3.627  0.1898 -1.7171  0.2712
26250SOL     OW85989   2.145   3.391  11.622  0.5194  0.6619  0.8029
26250SOL    HW185990   2.091   3.379  11.544  3.2852 -2.1999 -0.8934
26250SOL    HW285991   2.101   3.339  11.689  0.6177 -0.8982 -0.2928
26251SOL     OW85992   7.093   4.791   6.469  0.0718  0.2917 -0.0327
26251SOL    HW185993   7.112   4.755   6.382  0.4311 -0.8274  0.4845
26251SOL    HW285994   6.999   4.810   6.468  0.3195  1.5670 -1.1023
26252SOL     OW85995   8.066  12.098   6.080  0.2444  0.0386 -0.5060
26252SOL    HW185996   8.000  12.052   6.132  0.0228 -2.3978 -2.7146
26252SOL    HW285997   8.017  12.163   6.030 -0.4465 -1.2425 -1.5615
26253SOL     OW85998   3.509   2.179   8.998  0.0662 -0.3307  0.1978
26253SOL    HW185999   3.598   2.149   8.978 -0.0172  0.4426 -1.4453
26253SOL    HW286000   3.484   2.129   9.076  2.0150 -0.4074  0.8250
26254SOL     OW86001   5.218   9.077   8.195 -0.3365  0.2202  0.4372
26254SOL    HW186002   5.157   9.095   8.267  0.0188  1.0614  0.5362
26254SOL    HW286003   5.168   9.021   8.135 -1.1535  0.7721  0.5917
26255SOL     OW86004   4.637   2.405  11.232  0.4315 -0.1662 -0.1188
26255SOL    HW186005   4.641   2.495  11.200  0.7563  0.3393  1.2553
26255SOL    HW286006   4.569   2.364  11.179 -0.7342  1.2922  0.1645
26256SOL     OW86007   0.598   4.428   7.790 -0.0523 -0.0808 -0.3636
26256SOL    HW186008   0.688   4.430   7.757 -0.9963 -0.4587 -3.2729
26256SOL    HW286009   0.587   4.512   7.836  1.1558  0.9830 -1.9071
26257SOL     OW86010   2.797   0.203  11.457 -0.1192 -0.1546 -0.3315
26257SOL    HW186011   2.758   0.157  11.383  0.4226 -0.4736 -0.4246
26257SOL    HW286012   2.891   0.207  11.436  0.0188 -0.1226  0.2649
26258SOL     OW86013   0.014   6.365   0.844  0.0469  0.5815  0.5807
26258SOL    HW186014  -0.054   6.324   0.791  0.8540 -0.3605  0.2475
26258SOL    HW286015   0.012   6.317   0.927 -1.1176  1.9591  1.4082
26259SOL     OW86016  10.156  12.384   2.809  0.3366  0.0416  0.0259
26259SOL    HW186017  10.227  12.349   2.756  0.0005  1.0460 -1.1509
26259SOL    HW286018  10.102  12.308   2.831  0.6959 -0.4527 -0.7608
26260SOL     OW86019   9.946   9.573   2.140  0.7446  0.0207 -0.2015
26260SOL    HW186020   9.965   9.482   2.160 -0.5843 -0.3355 -0.4417
26260SOL    HW286021   9.949   9.617   2.225  1.8849 -0.1300 -0.1488
26261SOL     OW86022   5.452  11.840   5.435  0.0395  0.0960  0.5690
26261SOL    HW186023   5.413  11.762   5.396 -0.1156  0.8284 -0.7914
26261SOL    HW286024   5.546  11.830   5.422 -0.0549  0.6900 -0.7384
26262SOL     OW86025   3.521   1.644   8.930 -0.0082 -0.1178  0.2958
26262SOL    HW186026   3.454   1.707   8.955 -1.4058 -0.5428 -2.0834
26262SOL    HW286027   3.589   1.697   8.888 -0.7200 -0.0537 -0.8140
26263SOL     OW86028   3.835   3.934   7.293 -0.6387 -0.0508 -0.3994
26263SOL    HW186029   3.908   3.971   7.342 -0.5940 -0.7978  0.1159
26263SOL    HW286030   3.869   3.921   7.204 -0.0492 -0.6613 -0.0906
26264SOL     OW86031   5.702  11.236   0.716 -0.3269 -0.3340 -0.2647
26264SOL    HW186032   5.790  11.197   0.725 -0.8638 -1.7515 -0.8015
26264SOL    HW286033   5.703  11.277   0.630 -0.0748 -0.0417 -0.1231
26265SOL     OW86034   3.580   2.155   3.546  0.2221  0.0799 -0.1336
26265SOL    HW186035   3.604   2.247   3.555  0.1906  0.0946 -0.2014
26265SOL    HW286036   3.562   2.143   3.453  1.4951 -0.3043 -0.3409
26266SOL     OW86037   1.418  12.566   0.123  0.6342  0.1763  0.7285
26266SOL    HW186038   1.340  12.520   0.095  1.1485 -0.9851  1.1420
26266SOL    HW286039   1.488  12.501   0.118  1.4424  0.9965  1.0283
26267SOL     OW86040   0.212   2.324   8.406 -0.1027 -0.9316 -0.2070
26267SOL    HW186041   0.183   2.244   8.361  0.4566 -1.2099 -0.0744
26267SOL    HW286042   0.136   2.383   8.400 -0.5701 -1.5183 -0.1873
26268SOL     OW86043   0.402   5.134   2.192 -0.3658  0.0394  0.3989
26268SOL    HW186044   0.344   5.080   2.138  0.6609 -1.3023  0.6084
26268SOL    HW286045   0.460   5.177   2.129  0.2982 -0.8871  0.3704
26269SOL     OW86046   6.598   3.394   0.832 -0.1962  0.0162  0.0832
26269SOL    HW186047   6.660   3.334   0.874  1.0727  2.5172  2.0589
26269SOL    HW286048   6.542   3.423   0.904 -2.7796 -1.0189 -1.3881
26270SOL     OW86049   6.399   1.963   8.043 -0.0816 -0.3608 -0.1450
26270SOL    HW186050   6.488   1.944   8.011 -0.8379 -3.4240 -0.7612
26270SOL    HW286051   6.398   1.928   8.132 -0.7743 -0.7574 -0.3008
26271SOL     OW86052   8.633   8.135   4.394  0.5455  0.2664  0.4823
26271SOL    HW186053   8.626   8.066   4.459 -0.4400 -0.5712 -0.4890
26271SOL    HW286054   8.568   8.113   4.327  3.4609 -0.6298 -2.3635
26272SOL     OW86055   6.899  11.719   9.993 -0.5268 -0.1668  0.2795
26272SOL    HW186056   6.849  11.674  10.060 -1.0824  0.8363  0.5590
26272SOL    HW286057   6.862  11.687   9.910 -0.0151 -1.2050  0.4318
26273SOL     OW86058   0.201   7.244   8.636  0.2511  0.4082 -0.3441
26273SOL    HW186059   0.252   7.174   8.675 -0.3873 -0.4637 -1.0307
26273SOL    HW286060   0.266   7.304   8.599  0.8303 -1.5264 -2.7081
26274SOL     OW86061  10.570  12.354  12.193  0.1998 -0.4039  0.4237
26274SOL    HW186062  10.570  12.450  12.198 -0.1728 -0.3979  0.3503
26274SOL    HW286063  10.486  12.328  12.231 -0.5113 -0.6016 -1.1954
26275SOL     OW86064  12.408   3.328   8.318  0.3324 -0.4582  0.8599
26275SOL    HW186065  12.324   3.333   8.362 -0.9622  1.6263 -1.5957
26275SOL    HW286066  12.392   3.274   8.241  0.5049  1.8801 -0.9129
26276SOL     OW86067   2.712   3.763   5.603  0.1937  0.1107  0.4983
26276SOL    HW186068   2.668   3.828   5.549  1.4889 -0.4576 -1.3702
26276SOL    HW286069   2.668   3.680   5.582 -0.0199  0.0423  1.1883
26277SOL     OW86070   8.220   1.813  12.396 -0.6338  0.2588 -0.3488
26277SOL    HW186071   8.270   1.783  12.320  0.2220  1.8378 -0.4365
26277SOL    HW286072   8.282   1.866  12.446 -2.0438  1.7529 -0.1352
26278SOL     OW86073   0.585   4.487   9.929 -0.3635  0.8066  0.0400
26278SOL    HW186074   0.658   4.500   9.989 -1.7873 -1.3075  2.4249
26278SOL    HW286075   0.510   4.524   9.975 -1.7585 -2.1339  0.3526
26279SOL     OW86076  12.236   1.771   9.102 -0.1192 -0.0820 -0.6444
26279SOL    HW186077  12.209   1.852   9.145 -1.0977 -0.8079  0.1467
26279SOL    HW286078  12.326   1.787   9.075 -0.0460  0.9950  0.1834
26280SOL     OW86079   0.556  10.861   6.744 -0.0951  0.3497  0.1180
26280SOL    HW186080   0.538  10.767   6.754 -1.4238  0.3914 -1.4908
26280SOL    HW286081   0.470  10.902   6.754  0.3494  1.3254 -0.0250
26281SOL     OW86082  10.169   4.987   8.026  0.2605  0.7321  0.3936
26281SOL    HW186083  10.112   5.031   8.089  0.4811  1.4904  0.0674
26281SOL    HW286084  10.146   5.025   7.941 -0.2302 -0.4823 -0.0491
26282SOL     OW86085   7.149   6.787   3.472  0.9513 -0.3793 -0.1940
26282SOL    HW186086   7.173   6.878   3.489  0.3119 -0.4933  1.5194
26282SOL    HW286087   7.057   6.791   3.445  1.1184 -0.4647 -0.7861
26283SOL     OW86088   5.413   9.766  10.111  0.3720 -0.2534 -0.1202
26283SOL    HW186089   5.474   9.693  10.101 -0.5002 -1.0917  0.4285
26283SOL    HW286090   5.336   9.727  10.153 -0.8211  0.6234 -1.4238
26284SOL     OW86091   9.553   3.377   6.371  0.5930 -0.1283  0.0086
26284SOL    HW186092   9.498   3.449   6.339  2.1752 -0.1005 -2.9873
26284SOL    HW286093   9.623   3.370   6.306  1.4953 -3.2449  1.1565
26285SOL     OW86094   3.745  10.426   2.279  0.2154 -0.0401  0.2584
26285SOL    HW186095   3.791  10.391   2.355  1.8601 -1.0943 -1.1236
26285SOL    HW286096   3.765  10.364   2.209  0.9569  2.2140 -1.6718
26286SOL     OW86097   4.434   8.846   4.995  0.0736 -0.1360  0.1487
26286SOL    HW186098   4.420   8.847   5.090  0.5172 -0.9750  0.2248
26286SOL    HW286099   4.397   8.929   4.965 -0.1232  0.1101  1.0482
26287SOL     OW86100   5.039   7.886   3.004  0.1202 -0.3298  0.1754
26287SOL    HW186101   5.086   7.806   2.979  0.4264  0.2012 -1.0467
26287SOL    HW286102   5.064   7.902   3.095 -1.3248 -2.5690  1.0522
26288SOL     OW86103   3.374   1.754   5.886  0.0640 -0.1873 -0.1692
26288SOL    HW186104   3.337   1.751   5.974  0.8069  2.0177  0.2800
26288SOL    HW286105   3.456   1.802   5.896  0.2400 -0.0240 -2.0450
26289SOL     OW86106   8.322   6.401   6.405  0.1666  0.3497 -0.4616
26289SOL    HW186107   8.318   6.332   6.472 -2.5022 -0.6573 -1.5335
26289SOL    HW286108   8.415   6.424   6.401  0.8464 -1.6449  1.4749
26290SOL     OW86109  10.493  10.384   4.082 -0.5379 -0.2447  0.1226
26290SOL    HW186110  10.447  10.339   4.153 -0.4059 -0.7377 -0.1026
26290SOL    HW286111  10.424  10.409   4.020 -0.4453 -1.6484 -0.5858
26291SOL     OW86112   0.352   4.737   0.426  0.3186  0.1680  0.4367
26291SOL    HW186113   0.428   4.741   0.484  0.5748  2.1413  0.0369
26291SOL    HW286114   0.338   4.643   0.412  2.4707 -0.2670  0.7895
26292SOL     OW86115  12.074   2.393   6.434  0.1406  0.0599 -0.1289
26292SOL    HW186116  12.028   2.458   6.487 -0.1306  0.1872 -0.5232
26292SOL    HW286117  12.123   2.445   6.370 -0.6084 -0.1416 -0.8821
26293SOL     OW86118   8.468  11.020  11.611  0.6975  0.2231 -0.8478
26293SOL    HW186119   8.513  10.940  11.639 -2.3951 -1.4640 -0.3140
26293SOL    HW286120   8.409  10.991  11.542 -1.1715  1.8411 -0.0034
26294SOL     OW86121   4.946   1.733   7.907  0.3383  0.5700  0.0302
26294SOL    HW186122   4.886   1.668   7.944  0.1863  0.1859 -0.8622
26294SOL    HW286123   4.971   1.788   7.981 -1.4991  1.0539  0.3446
26295SOL     OW86124   5.981   6.730  11.905 -0.0357  0.3819  0.1430
26295SOL    HW186125   6.057   6.678  11.933 -0.0816  0.7925  1.0859
26295SOL    HW286126   5.960   6.784  11.982 -1.8287 -0.3686  0.2282
26296SOL     OW86127   2.467   8.600  11.724  0.1338 -0.5243  0.1758
26296SOL    HW186128   2.440   8.594  11.816 -0.1717  0.4099  0.1624
26296SOL    HW286129   2.516   8.683  11.719  1.5421 -1.3329 -0.1742
26297SOL     OW86130   2.135   3.337   1.593 -0.1327  0.7046  0.3234
26297SOL    HW186131   2.149   3.372   1.505 -1.4532  0.4208 -0.0245
26297SOL    HW286132   2.138   3.242   1.583  1.6051  0.6582  0.9449
26298SOL     OW86133   7.510  10.123   4.896  0.6058 -0.4496 -0.0837
26298SOL    HW186134   7.571  10.144   4.826  0.2802 -0.0212 -0.2413
26298SOL    HW286135   7.423  10.136   4.858  0.4014 -1.3274  0.0504
26299SOL     OW86136   0.935   8.046   4.526 -0.6628  0.0790 -0.5666
26299SOL    HW186137   0.960   8.134   4.553  1.8540 -0.6739 -0.2198
26299SOL    HW286138   0.849   8.033   4.565 -0.5309  1.8944  0.4710
26300SOL     OW86139   4.345   6.385   3.940  0.2682  0.4361  0.7077
26300SOL    HW186140   4.430   6.357   3.907  0.4097  2.6672 -1.0969
26300SOL    HW286141   4.366   6.436   4.018  0.3543 -0.8228  1.5342
26301SOL     OW86142  11.292  12.567   1.530  0.0553  0.1689 -0.2685
26301SOL    HW186143  11.343  12.607   1.460  2.4878  0.4768  1.5557
26301SOL    HW286144  11.273  12.640   1.590 -3.0456  0.1729 -1.0620
26302SOL     OW86145   8.529   9.311   5.133 -0.4660  0.3593  0.3679
26302SOL    HW186146   8.477   9.325   5.054 -0.5467 -0.1685  0.3219
26302SOL    HW286147   8.499   9.378   5.194  1.2792  2.3467 -0.8429
26303SOL     OW86148  12.437  12.028   3.496  0.1200  0.4141  0.0255
26303SOL    HW186149  12.373  12.049   3.564  0.8803  1.2639  0.5046
26303SOL    HW286150  12.428  11.934   3.483 -0.6544  0.3857  0.6683
26304SOL     OW86151   8.162   3.394   1.347  0.0534  0.2714  0.6379
26304SOL    HW186152   8.141   3.420   1.257  0.7792  0.7143  0.5871
26304SOL    HW286153   8.141   3.301   1.351  0.4187  0.1494 -0.1268
26305SOL     OW86154  11.144  11.449  11.570  0.1107  0.3745 -0.0916
26305SOL    HW186155  11.155  11.446  11.475  0.8926  1.6895 -0.0676
26305SOL    HW286156  11.064  11.501  11.584 -0.6429 -0.7681 -0.0366
26306SOL     OW86157   2.358   7.094  12.655 -0.2489  0.1265 -0.1511
26306SOL    HW186158   2.427   7.032  12.679 -1.2714 -2.2007 -2.6551
26306SOL    HW286159   2.290   7.080  12.721 -0.5120 -1.5963 -0.7438
26307SOL     OW86160   2.468   3.840  10.179  0.0818  0.0286 -0.1685
26307SOL    HW186161   2.549   3.793  10.160  0.3214  1.3626 -2.9311
26307SOL    HW286162   2.496   3.926  10.210 -0.2604  0.1886 -0.2933
26308SOL     OW86163   3.858   0.128  10.106 -0.4174 -0.8414 -0.1386
26308SOL    HW186164   3.888   0.185  10.177 -0.1069 -1.5892  0.3337
26308SOL    HW286165   3.937   0.104  10.059 -0.5150 -1.1455 -0.1456
26309SOL     OW86166   9.802  11.317   7.722  0.5018 -0.1302 -0.3553
26309SOL    HW186167   9.748  11.244   7.693  0.7705 -0.2443 -0.5784
26309SOL    HW286168   9.758  11.351   7.800 -1.1927  1.2761 -1.8305
26310SOL     OW86169  10.509  10.337   3.069 -0.0913 -0.3425 -0.1824
26310SOL    HW186170  10.595  10.341   3.027 -0.9777  0.5373 -2.0256
26310SOL    HW286171  10.523  10.284   3.147  2.1473 -0.0892 -0.3529
26311SOL     OW86172  12.600   0.546   0.775 -0.1019 -0.2631  0.3622
26311SOL    HW186173  12.571   0.595   0.852 -0.6406 -1.1513  0.7509
26311SOL    HW286174  12.573   0.600   0.701 -1.8356 -0.5280  0.7398
26312SOL     OW86175   1.534   8.429   2.840 -0.0810  0.1744  0.0158
26312SOL    HW186176   1.483   8.443   2.760  0.3777  2.2540  0.0248
26312SOL    HW286177   1.481   8.471   2.909  0.6037  0.4451  0.3839
26313SOL     OW86178   3.822   2.199  10.656 -0.3385  0.2339  0.1616
26313SOL    HW186179   3.893   2.142  10.685 -2.1155 -1.9061  0.5205
26313SOL    HW286180   3.791   2.161  10.574 -2.6008 -0.3735  1.2135
26314SOL     OW86181  10.199   9.909   4.028 -0.3068  0.1085 -0.3539
26314SOL    HW186182  10.207   9.890   4.121  0.3423 -1.0401 -0.6265
26314SOL    HW286183  10.263   9.852   3.986 -1.1594  0.0001 -1.5718
26315SOL     OW86184   1.927   7.269  11.279 -0.0174  0.2340  0.1738
26315SOL    HW186185   1.964   7.348  11.317  0.0443  0.8303 -1.0980
26315SOL    HW286186   1.871   7.233  11.349  0.3406  1.1130  0.9326
26316SOL     OW86187   6.983   7.431   8.726  0.3026  0.3002  0.3416
26316SOL    HW186188   6.992   7.518   8.688  1.4656  0.3152  0.5967
26316SOL    HW286189   7.072   7.408   8.754  0.0469 -1.0360  0.1192
26317SOL     OW86190   8.046   8.524   5.926 -0.1164 -0.0682  0.7428
26317SOL    HW186191   8.119   8.522   5.988 -0.2301 -1.7258  0.8802
26317SOL    HW286192   8.083   8.491   5.844 -0.6600 -0.8385  0.7903
26318SOL     OW86193   5.109  11.632  11.521 -0.2030 -0.3796  0.1201
26318SOL    HW186194   5.083  11.676  11.441 -0.4825 -0.6407  0.0654
26318SOL    HW286195   5.205  11.640  11.523 -0.2470  0.1931  0.0963
26319SOL     OW86196   7.205   4.636   0.484 -0.4322  0.0547  0.1440
26319SOL    HW186197   7.202   4.584   0.565 -1.3692  1.3988  1.0205
26319SOL    HW286198   7.117   4.672   0.476 -0.0297  0.8465 -0.8778
26320SOL     OW86199  11.943  11.318   3.138  0.3523  0.1288 -0.2562
26320SOL    HW186200  12.015  11.255   3.141  0.6156  0.3183 -2.0151
26320SOL    HW286201  11.930  11.336   3.045 -0.6563  1.6134  0.1399
26321SOL     OW86202   0.665   6.343   2.577 -0.2599  0.1816 -0.5375
26321SOL    HW186203   0.648   6.367   2.668  0.9361 -0.1997 -0.2070
26321SOL    HW286204   0.759   6.357   2.565  0.0174 -1.8976 -1.0559
26322SOL     OW86205  11.308  10.707   5.684 -0.4562 -0.0052  0.2285
26322SOL    HW186206  11.295  10.618   5.715  0.3016 -0.4609 -0.7040
26322SOL    HW286207  11.403  10.718   5.681 -0.4234 -0.2917 -2.5925
26323SOL     OW86208  11.000   7.572   5.816  0.7895 -0.0537 -0.4279
26323SOL    HW186209  11.049   7.626   5.754 -0.9257  2.1902  0.0135
26323SOL    HW286210  10.915   7.559   5.774  1.0800 -2.3282 -0.4153
26324SOL     OW86211   0.485   4.680  11.271  0.3238 -0.7978 -0.1956
26324SOL    HW186212   0.468   4.666  11.364 -2.1014  0.4198 -0.3790
26324SOL    HW286213   0.481   4.775  11.260 -0.1180 -0.9596 -1.6609
26325SOL     OW86214   1.246  11.593   5.770  0.3072 -0.3572 -0.3537
26325SOL    HW186215   1.255  11.650   5.846  0.9954 -0.8840 -0.0284
26325SOL    HW286216   1.335  11.562   5.752 -0.1822 -2.2592  0.2372
26326SOL     OW86217   2.734   0.945   9.483  0.0472 -0.6448 -0.4725
26326SOL    HW186218   2.668   0.941   9.414  1.4594  0.4295 -1.9636
26326SOL    HW286219   2.800   0.880   9.457  1.3424  0.8257 -1.0249
26327SOL     OW86220   7.513  12.264   2.267 -0.1974 -0.5179 -0.1229
26327SOL    HW186221   7.477  12.225   2.347 -0.8402  0.5735  0.1387
26327SOL    HW286222   7.555  12.191   2.222 -1.0604 -1.4397  0.5236
26328SOL     OW86223  10.484   3.510   7.253 -0.9262  0.0875  0.1543
26328SOL    HW186224  10.405   3.492   7.203 -0.4544  0.4963 -0.7468
26328SOL    HW286225  10.536   3.568   7.197  0.5329 -1.0988  0.2197
26329SOL     OW86226   5.102   2.359  10.250 -0.0856  0.2707  0.2046
26329SOL    HW186227   5.050   2.392  10.177 -0.2363 -0.0832  0.1525
26329SOL    HW286228   5.076   2.413  10.325  0.0011  0.5709  0.0183
26330SOL     OW86229   6.304   5.169   1.299 -0.2317  0.8025  0.3648
26330SOL    HW186230   6.260   5.180   1.215  0.0650  1.6041  0.3048
26330SOL    HW286231   6.290   5.077   1.322 -1.2706  0.8503 -0.0218
26331SOL     OW86232   8.605  11.256   4.843  0.0908  0.0263  0.8334
26331SOL    HW186233   8.647  11.171   4.829  0.7460  0.2851  1.1663
26331SOL    HW286234   8.645  11.289   4.924 -1.4671 -0.1568  1.7272
26332SOL     OW86235   3.745  10.116   6.326 -0.2139 -0.7411  0.1791
26332SOL    HW186236   3.699  10.063   6.261 -1.2170 -0.7227  0.8502
26332SOL    HW286237   3.822  10.150   6.280 -1.0660 -0.4670 -1.0884
26333SOL     OW86238   5.673   9.362   5.528  0.0434  0.4538 -0.8728
26333SOL    HW186239   5.748   9.396   5.578 -1.2629  1.5702  0.4195
26333SOL    HW286240   5.684   9.267   5.529  0.4687  0.4914  0.8954
26334SOL     OW86241   4.257   4.410   4.332 -0.0771 -0.4350 -0.3766
26334SOL    HW186242   4.180   4.354   4.326 -0.5299  0.2108 -0.8683
26334SOL    HW286243   4.247   4.472   4.259  1.5224 -1.0867 -1.1933
26335SOL     OW86244   5.634   9.093   7.461 -0.1952 -0.6205  0.1424
26335SOL    HW186245   5.608   9.047   7.381 -1.8030 -0.1765  0.3703
26335SOL    HW286246   5.700   9.155   7.432 -0.9013 -0.3261 -0.8982
26336SOL     OW86247   6.417  11.758   8.730 -0.2090  0.1226 -0.3457
26336SOL    HW186248   6.327  11.790   8.745  0.0416  1.4263 -1.3538
26336SOL    HW286249   6.416  11.728   8.639  0.7355  1.6008 -0.8805
26337SOL     OW86250   6.102   0.701   5.071 -0.1869  0.1109  0.3401
26337SOL    HW186251   6.142   0.619   5.042 -0.6227  0.1658 -0.4380
26337SOL    HW286252   6.010   0.679   5.089  0.0284  0.1146  1.5480
26338SOL     OW86253   6.683   5.720  12.660  0.1412  0.5278  0.2687
26338SOL    HW186254   6.688   5.725  12.565 -0.9225 -1.4432  0.0733
26338SOL    HW286255   6.761   5.672  12.686 -0.2463 -0.1137  0.2604
26339SOL     OW86256   4.494   9.358   5.854  0.1859 -0.1651 -0.3709
26339SOL    HW186257   4.410   9.378   5.812  0.7190 -1.9624 -2.4870
26339SOL    HW286258   4.512   9.434   5.908 -0.4066  2.6297 -3.7310
26340SOL     OW86259  11.962  11.250   4.678  0.6411  0.0625  0.3581
26340SOL    HW186260  11.992  11.328   4.631  2.7942 -2.0375 -2.0854
26340SOL    HW286261  11.880  11.227   4.635  0.3113  0.6211  0.6754
26341SOL     OW86262   6.079   0.884  11.342  0.1082 -0.0863  0.5651
26341SOL    HW186263   6.038   0.799  11.358  3.1455 -1.6313  0.8334
26341SOL    HW286264   6.155   0.886  11.400 -0.5908  3.4909  1.5973
26342SOL     OW86265   3.718   8.100  10.290  0.1650 -0.3043 -0.7013
26342SOL    HW186266   3.681   8.151  10.362 -1.2867  0.3660 -1.8665
26342SOL    HW286267   3.741   8.165  10.224  0.7557 -0.9688 -1.1589
26343SOL     OW86268   7.608   6.728   7.533 -0.1978 -0.3370 -0.3294
26343SOL    HW186269   7.542   6.796   7.525  0.1848  0.0230 -0.4298
26343SOL    HW286270   7.605   6.702   7.625 -0.8441 -0.6963 -0.4448
26344SOL     OW86271   6.214   6.513   2.070 -0.3416  0.1580  0.0689
26344SOL    HW186272   6.222   6.607   2.055  0.6856  0.2455  1.0003
26344SOL    HW286273   6.126   6.501   2.104 -1.1113  0.5273 -1.6848
26345SOL     OW86274   3.541   1.040   9.247  0.1963  0.7059  0.0147
26345SOL    HW186275   3.476   1.067   9.313  0.5248  1.3781  0.0660
26345SOL    HW286276   3.551   0.946   9.262 -1.5634  0.3527 -0.7031
26346SOL     OW86277   7.332   0.481   1.521 -0.0608  0.5865 -0.3285
26346SOL    HW186278   7.277   0.513   1.593  0.5769  0.1951  0.3574
26346SOL    HW286279   7.411   0.449   1.565  0.6051  0.9135 -1.2744
26347SOL     OW86280   5.533   1.068   9.121 -0.3813 -0.3771  0.1247
26347SOL    HW186281   5.624   1.097   9.127 -0.4056  0.4676 -2.4916
26347SOL    HW286282   5.487   1.118   9.190  0.7899  0.6788  0.1750
26348SOL     OW86283  11.754   2.535   2.046  0.1689  0.2490 -0.1500
26348SOL    HW186284  11.761   2.576   1.959  2.0855 -0.3611 -0.3305
26348SOL    HW286285  11.842   2.541   2.082  0.2088 -2.4365  0.3857
26349SOL     OW86286   8.889  12.180  12.221  0.0381  0.1019  0.0622
26349SOL    HW186287   8.947  12.107  12.198 -0.9519 -0.6613 -0.0600
26349SOL    HW286288   8.948  12.256  12.227  0.8182 -0.3152 -1.6748
26350SOL     OW86289   6.419   7.426   7.912 -0.4293  0.3216 -0.2272
26350SOL    HW186290   6.439   7.371   7.988 -1.5297 -0.2849 -0.3661
26350SOL    HW286291   6.476   7.502   7.923  0.9862 -0.7372  0.0632
26351SOL     OW86292   1.965   4.572  11.859  0.3938  0.2316  0.3523
26351SOL    HW186293   1.872   4.573  11.834  0.0664 -0.0823  1.5202
26351SOL    HW286294   1.968   4.617  11.943  1.2478 -0.0691  0.4890
26352SOL     OW86295   3.207   1.803   5.147 -0.4177  0.2315  0.2425
26352SOL    HW186296   3.298   1.774   5.140 -0.8387 -0.9395 -0.7721
26352SOL    HW286297   3.161   1.753   5.080 -1.9487  0.2525  1.2297
26353SOL     OW86298   4.019   4.297  11.738  0.0358  0.0760 -0.0741
26353SOL    HW186299   4.087   4.252  11.687  0.2520  0.5252 -0.1911
26353SOL    HW286300   3.937   4.268  11.699  0.1718 -0.2349 -0.1326
26354SOL     OW86301   4.629   6.194   6.534  0.6393  0.0537 -0.0960
26354SOL    HW186302   4.711   6.232   6.503  1.1654 -0.0726  1.0859
26354SOL    HW286303   4.640   6.100   6.524  1.0023 -0.0196  0.8687
26355SOL     OW86304   2.149   4.188   3.576  0.3158  0.2105  0.7718
26355SOL    HW186305   2.169   4.278   3.549  0.2139  0.1874  0.6182
26355SOL    HW286306   2.138   4.140   3.494  0.3545  0.0602  0.8532
26356SOL     OW86307   5.771  12.192  12.636  0.2239  0.5998  0.5592
26356SOL    HW186308   5.693  12.221  12.588  0.4791 -0.5326 -0.5931
26356SOL    HW286309   5.844  12.229  12.588  0.5089 -1.0250 -0.3397
26357SOL     OW86310   2.872  11.365  12.663 -0.0724 -0.1098  0.3203
26357SOL    HW186311   2.821  11.285  12.668 -0.5445  0.1846  0.2477
26357SOL    HW286312   2.920  11.359  12.580  1.2759 -1.1298  1.1263
26358SOL     OW86313   6.053   2.812   5.682 -0.3103  0.1277  0.1088
26358SOL    HW186314   6.026   2.725   5.712 -0.8086 -0.0959 -0.9472
26358SOL    HW286315   6.128   2.834   5.737 -0.6578 -0.6361  0.9120
26359SOL     OW86316  11.720   9.458  12.702  0.5389  0.0793  0.1008
26359SOL    HW186317  11.674   9.506  12.633  0.3718 -0.5421 -0.2308
26359SOL    HW286318  11.781   9.401  12.655  1.0946  0.3282  0.5065
26360SOL     OW86319  10.373   9.784   2.060 -0.0004 -0.1770  0.1033
26360SOL    HW186320  10.364   9.861   2.115  0.1930  0.4481 -0.7197
26360SOL    HW286321  10.412   9.717   2.117 -0.1262  0.3414  0.8058
26361SOL     OW86322  11.953   5.097   1.317 -0.1991  0.8998  0.4547
26361SOL    HW186323  11.999   5.115   1.399 -0.4074 -0.3010  0.8490
26361SOL    HW286324  11.978   5.008   1.293 -3.5984 -0.5389  1.6406
26362SOL     OW86325  12.494   2.189  11.990  0.1951  0.0714  0.3959
26362SOL    HW186326  12.499   2.100  12.024  5.2282  0.4515  1.3270
26362SOL    HW286327  12.411   2.223  12.024 -0.8123 -3.4971  1.8874
26363SOL     OW86328   7.739  10.645   9.035  0.0306 -0.6221  0.1253
26363SOL    HW186329   7.762  10.736   9.056  0.3670 -0.6151 -0.2478
26363SOL    HW286330   7.652  10.633   9.073 -0.4738  0.1869 -0.7208
26364SOL     OW86331   8.734   1.100   9.715 -0.1586  0.1414  0.5470
26364SOL    HW186332   8.807   1.125   9.657 -0.8480  2.5255  0.5845
26364SOL    HW286333   8.660   1.151   9.683 -1.1923 -0.3947  2.0011
26365SOL     OW86334   0.516   2.867   6.454  0.0524  0.1236  0.4421
26365SOL    HW186335   0.432   2.832   6.424 -0.6315  0.8732  1.4274
26365SOL    HW286336   0.546   2.806   6.521  0.6086 -0.4667 -0.3196
26366SOL     OW86337  11.540   7.755   4.041  0.1406 -0.2106 -0.1490
26366SOL    HW186338  11.512   7.665   4.026  0.3261 -0.4193  0.6654
26366SOL    HW286339  11.533   7.797   3.956 -2.2746 -0.3467 -0.0883
26367SOL     OW86340   7.303   2.780   1.871  0.2407  0.2659  0.5027
26367SOL    HW186341   7.212   2.791   1.845  0.3015  0.5495  0.4144
26367SOL    HW286342   7.325   2.859   1.921  0.7399  0.6755 -0.3443
26368SOL     OW86343   5.767  11.438   8.140  0.7130 -0.5586 -0.7706
26368SOL    HW186344   5.697  11.452   8.204 -0.5647  0.3428 -2.2786
26368SOL    HW286345   5.792  11.527   8.112  1.1533 -0.9323 -1.6011
26369SOL     OW86346   5.533   6.208   3.728  0.2331  0.0638  0.2640
26369SOL    HW186347   5.570   6.176   3.810 -0.6942 -0.6599  0.4248
26369SOL    HW286348   5.574   6.154   3.660  0.2422 -0.0415  0.3518
26370SOL     OW86349   5.541  11.870   8.024 -0.3461  0.0903  0.1166
26370SOL    HW186350   5.462  11.902   7.981 -0.2225 -0.1425 -0.2971
26370SOL    HW286351   5.610  11.929   7.995 -0.0130 -0.8448 -1.0969
26371SOL     OW86352   4.727   1.368   6.358 -0.3533  0.1320 -0.2523
26371SOL    HW186353   4.677   1.419   6.422 -1.5691 -0.3532 -0.7755
26371SOL    HW286354   4.769   1.434   6.303 -1.3997  0.5883 -0.5310
26372SOL     OW86355   5.093   4.532  12.530  0.1023 -0.1280 -0.3978
26372SOL    HW186356   5.141   4.520  12.612 -0.3866 -0.7316 -0.1935
26372SOL    HW286357   5.002   4.515  12.552 -0.0657 -0.0612 -1.0173
26373SOL     OW86358   7.505   0.833   4.867  0.2453  0.0862 -0.3032
26373SOL    HW186359   7.555   0.882   4.932 -0.1609 -1.7304  1.4529
26373SOL    HW286360   7.571   0.799   4.806  1.0286 -0.9356  1.0633
26374SOL     OW86361   2.554  12.264   0.217  0.5268 -0.3365  0.0416
26374SOL    HW186362   2.465  12.230   0.223 -0.2011  1.5280  0.4979
26374SOL    HW286363   2.603  12.194   0.173 -0.8772 -1.8782  0.7928
26375SOL     OW86364   4.127   0.502   3.092 -0.3065 -0.2816  0.2840
26375SOL    HW186365   4.196   0.569   3.092  0.5486 -1.1237 -0.3532
26375SOL    HW286366   4.150   0.444   3.165 -0.1145 -0.7770 -0.1639
26376SOL     OW86367   1.812   6.010   3.126  0.1367 -0.0791 -0.1003
26376SOL    HW186368   1.727   6.051   3.140  0.4161  0.6232 -0.4144
26376SOL    HW286369   1.874   6.065   3.174  0.6430  0.4191 -1.2907
26377SOL     OW86370   6.925   9.899   5.891 -0.5899  0.1011  0.2353
26377SOL    HW186371   6.934   9.809   5.860  0.0304  0.5351 -0.8823
26377SOL    HW286372   6.958   9.953   5.820 -0.6176  1.2090  1.0309
26378SOL     OW86373   5.974   3.094   5.742 -0.3397  0.4974 -0.1832
26378SOL    HW186374   5.887   3.084   5.781 -0.1316  1.5841  0.6297
26378SOL    HW286375   6.015   3.008   5.752 -1.4897 -0.1645 -1.0341
26379SOL     OW86376   4.880   8.519   5.590 -0.7324  0.0516 -0.0883
26379SOL    HW186377   4.953   8.499   5.531  0.0489 -0.6772  1.0692
26379SOL    HW286378   4.803   8.521   5.533 -0.0524 -0.9306 -1.0937
26380SOL     OW86379   4.941   0.743   8.811  0.1039  0.1891  0.2854
26380SOL    HW186380   4.869   0.698   8.767 -0.2085  0.7833  0.1850
26380SOL    HW286381   4.946   0.829   8.769  1.4972 -0.1836 -0.3828
26381SOL     OW86382   8.324   5.119   1.998 -0.2175 -0.7688  0.2276
26381SOL    HW186383   8.387   5.177   1.956  0.3047 -1.5213 -0.0454
26381SOL    HW286384   8.257   5.178   2.033  1.8415  0.2782  2.6860
26382SOL     OW86385   1.046   9.710   2.798 -0.3762 -0.4308 -0.2426
26382SOL    HW186386   1.067   9.780   2.860 -3.4188  0.3756  0.0006
26382SOL    HW286387   1.048   9.753   2.712 -0.5194 -0.4789 -0.2695
26383SOL     OW86388   8.406   2.286   0.715  0.0274 -0.3425 -0.3114
26383SOL    HW186389   8.485   2.260   0.667  0.0511  2.2433 -1.8651
26383SOL    HW286390   8.334   2.268   0.655 -0.2211  0.3165 -0.2261
26384SOL     OW86391   0.797   9.466  11.140 -0.2826 -0.1313  0.2641
26384SOL    HW186392   0.801   9.417  11.222 -0.3632  2.4547  1.9245
26384SOL    HW286393   0.885   9.461  11.104  0.2937  0.2771  1.5537
26385SOL     OW86394   3.702   2.790  12.449  0.0778  0.6201  0.0492
26385SOL    HW186395   3.619   2.761  12.410  0.3900  0.6370 -0.6429
26385SOL    HW286396   3.766   2.725  12.420  0.2446  0.4001  0.8920
26386SOL     OW86397   9.655   6.318   1.973 -0.0445 -0.2588  0.4926
26386SOL    HW186398   9.665   6.302   1.879  1.9766  1.2277  0.3787
26386SOL    HW286399   9.587   6.385   1.978 -0.3317 -0.5175  0.1108
26387SOL     OW86400   4.035   8.532   7.621 -0.3960 -0.4291  1.0113
26387SOL    HW186401   3.994   8.543   7.535 -1.6595 -0.4749  1.5951
26387SOL    HW286402   4.117   8.581   7.615  0.1931 -1.5379 -0.6623
26388SOL     OW86403   5.690   1.850   6.096 -0.6288  0.0378 -1.0173
26388SOL    HW186404   5.661   1.914   6.161 -2.4249 -1.6051 -0.0802
26388SOL    HW286405   5.739   1.785   6.146  1.4793  0.7654 -2.0073
26389SOL     OW86406   5.252  12.661  12.023  0.5295 -0.3116  0.8340
26389SOL    HW186407   5.229  12.671  12.116 -2.3987  0.5779  0.1372
26389SOL    HW286408   5.345  12.641  12.023  0.4177 -1.3708  4.0112
26390SOL     OW86409   9.774   3.461   7.256 -0.1216 -0.0895  0.5050
26390SOL    HW186410   9.778   3.387   7.317 -1.4639  0.1310  0.8879
26390SOL    HW286411   9.694   3.508   7.281 -0.9582 -0.2305 -1.7045
26391SOL     OW86412  10.669   7.712   3.339  0.3677  0.3585 -0.3085
26391SOL    HW186413  10.739   7.647   3.349 -0.1574 -0.4802 -1.8207
26391SOL    HW286414  10.709   7.784   3.291  0.0762 -0.3859 -1.7175
26392SOL     OW86415   0.905   2.471   4.221 -0.3183 -0.1136  0.3570
26392SOL    HW186416   0.918   2.523   4.142 -0.0863 -1.0504 -0.2346
26392SOL    HW286417   0.826   2.506   4.261 -0.3014  0.5235 -0.1597
26393SOL     OW86418   9.953   2.292  11.441 -0.3185  0.1783  0.5053
26393SOL    HW186419   9.864   2.326  11.440 -0.0444  1.1492 -2.5559
26393SOL    HW286420   9.950   2.216  11.498 -2.7618  0.9945  1.5581
26394SOL     OW86421  10.389   0.919   4.062 -0.6707  0.3935 -0.2855
26394SOL    HW186422  10.342   0.865   3.998 -0.3169  0.3026 -0.4717
26394SOL    HW286423  10.464   0.953   4.014 -0.4766  0.4365  0.0459
26395SOL     OW86424  11.034   8.867   8.620  0.5133 -0.4727 -0.0419
26395SOL    HW186425  11.063   8.785   8.580 -1.0432 -0.8207 -0.5076
26395SOL    HW286426  11.106   8.928   8.603  1.5296 -1.6239 -0.0250
26396SOL     OW86427   8.772   2.593   5.612 -0.3150 -0.4053  0.0330
26396SOL    HW186428   8.704   2.637   5.663  0.1838  0.4203  0.0032
26396SOL    HW286429   8.726   2.561   5.534 -0.7923 -0.3978  0.3088
26397SOL     OW86430   3.511   7.190   9.165 -0.2028  0.2618  0.6963
26397SOL    HW186431   3.502   7.123   9.233 -0.9568  1.1175  1.4655
26397SOL    HW286432   3.510   7.273   9.213  1.8062  0.8276 -0.1292
26398SOL     OW86433  12.331  12.391   8.131 -0.7227  0.2481  0.2248
26398SOL    HW186434  12.342  12.296   8.141  1.4528  0.4741  0.3306
26398SOL    HW286435  12.261  12.413   8.192  0.1896 -0.9827  1.7871
26399SOL     OW86436   1.750   0.866   8.333 -0.4695  0.0484 -0.6258
26399SOL    HW186437   1.842   0.878   8.357 -0.5668 -2.0435  1.0211
26399SOL    HW286438   1.709   0.950   8.354  0.9017  0.7579 -0.6579
26400SOL     OW86439   6.780   7.907   6.402 -0.6022  0.0637 -0.1840
26400SOL    HW186440   6.707   7.937   6.347 -0.2897  0.6200 -0.3022
26400SOL    HW286441   6.757   7.817   6.426 -1.3241  0.2365 -0.2217
26401SOL     OW86442   2.827   6.303   7.820  0.1123  0.2293 -0.0922
26401SOL    HW186443   2.837   6.264   7.907  3.2262 -0.4588 -0.6259
26401SOL    HW286444   2.744   6.268   7.788 -0.8006 -0.0343  2.2902
26402SOL     OW86445  10.358   3.258  10.887  0.6475 -0.4009 -0.3617
26402SOL    HW186446  10.292   3.213  10.835  0.1782 -0.7079  0.4805
26402SOL    HW286447  10.414   3.301  10.822 -1.0496  0.8529 -1.0671
26403SOL     OW86448   6.069  10.021  11.592  0.3926  0.1067 -0.5269
26403SOL    HW186449   6.012  10.068  11.530 -0.7555 -0.3183  0.1784
26403SOL    HW286450   6.157  10.049  11.568 -0.0455  0.2488 -2.1042
26404SOL     OW86451  10.381   5.070  11.420 -0.4104  0.3810 -0.0285
26404SOL    HW186452  10.355   5.017  11.494  1.5364 -0.9494 -0.2286
26404SOL    HW286453  10.360   5.017  11.343 -0.0280  0.6371 -0.3157
26405SOL     OW86454   7.589   8.139   5.178 -0.4600  0.1663 -0.1882
26405SOL    HW186455   7.532   8.164   5.105  0.1553  1.8805 -0.1292
26405SOL    HW286456   7.545   8.063   5.217 -1.0208 -0.5412 -2.0644
26406SOL     OW86457   4.830   0.407   2.164 -0.1814  0.5358 -0.1869
26406SOL    HW186458   4.907   0.403   2.108  0.3159 -1.2386  0.5332
26406SOL    HW286459   4.861   0.379   2.250 -1.5639 -0.0411  0.1641
26407SOL     OW86460  10.086  10.799   1.758 -0.5184 -0.2684  0.3851
26407SOL    HW186461  10.019  10.756   1.704 -0.9831  0.6415  0.2218
26407SOL    HW286462  10.047  10.883   1.782  0.2246 -0.0983  1.0248
26408SOL     OW86463   5.591   5.773  11.724 -0.1734  0.0041  0.4806
26408SOL    HW186464   5.509   5.806  11.688 -0.8533 -0.0382  1.9436
26408SOL    HW286465   5.657   5.837  11.696 -1.0825  1.3084  1.2476
26409SOL     OW86466   0.310   0.002   0.562 -0.0841 -0.4352 -0.2295
26409SOL    HW186467   0.249  -0.017   0.491  1.0650 -2.1702 -0.7936
26409SOL    HW286468   0.255   0.041   0.631 -1.2152  1.3680 -2.0264
26410SOL     OW86469   4.433   7.897   3.351 -0.5761  0.0731 -0.0058
26410SOL    HW186470   4.428   7.976   3.404 -1.3768 -0.0513  0.1079
26410SOL    HW286471   4.497   7.918   3.283  1.7417 -0.3161  1.9147
26411SOL     OW86472  12.357   9.150   7.127  0.1757  0.3730 -0.6117
26411SOL    HW186473  12.352   9.245   7.118 -1.4991  0.4154  0.4167
26411SOL    HW286474  12.334   9.133   7.218 -2.2060 -1.1723 -1.4011
26412SOL     OW86475  10.990  10.263   1.344  0.1664  0.1596  0.1826
26412SOL    HW186476  11.004  10.289   1.253 -0.9071  0.3057  0.0466
26412SOL    HW286477  11.068  10.211   1.366 -0.2100 -1.0886 -1.2803
26413SOL     OW86478   8.103   9.983   4.795 -0.1556 -0.4379  0.1064
26413SOL    HW186479   8.170   9.996   4.861 -0.3739  1.5303 -0.0272
26413SOL    HW286480   8.138  10.024   4.716  0.1294 -2.7755 -1.1050
26414SOL     OW86481  11.730   7.756   1.982  0.0301  0.5695  0.5622
26414SOL    HW186482  11.754   7.679   1.930 -0.5158  1.1735 -0.6278
26414SOL    HW286483  11.744   7.729   2.073  1.5682 -0.3258  0.0910
26415SOL     OW86484   6.414  10.509   1.048  0.1969 -0.0381  0.3767
26415SOL    HW186485   6.358  10.452   1.100 -0.2160 -0.9954 -1.0604
26415SOL    HW286486   6.363  10.589   1.037 -0.0782 -0.1673  0.6901
26416SOL     OW86487   4.027  11.873  10.536  1.1240  0.2241 -0.1537
26416SOL    HW186488   4.028  11.793  10.587 -1.1530  0.7668  0.8624
26416SOL    HW286489   3.934  11.893  10.523  1.6246  1.7429 -1.9347
26417SOL     OW86490  10.893   6.024  10.262  0.0992  1.0450  0.2724
26417SOL    HW186491  10.937   5.982  10.187 -0.0705  0.0586  0.7032
26417SOL    HW286492  10.940   6.107  10.274  0.0961  1.2364 -0.9483
26418SOL     OW86493   6.408  12.690   7.499  0.1055 -0.5902 -0.2859
26418SOL    HW186494   6.457  12.633   7.440 -0.7563 -1.6710  0.0090
26418SOL    HW286495   6.471  12.713   7.568  0.3820 -1.4596 -0.2370
26419SOL     OW86496   2.545   3.732  10.696  0.3894 -0.2195  0.2709
26419SOL    HW186497   2.624   3.689  10.662  1.2735  1.3329  0.2687
26419SOL    HW286498   2.559   3.825  10.678 -1.8243  0.0344 -0.4662
26420SOL     OW86499   5.575   7.007   3.644  0.4117  0.8604 -0.6570
26420SOL    HW186500   5.650   7.034   3.591  0.9991  0.8182  0.1511
26420SOL    HW286501   5.534   6.937   3.593  0.1090  1.7912 -1.7540
26421SOL     OW86502   8.323   0.463   6.989  0.3976  0.2101  0.3287
26421SOL    HW186503   8.278   0.413   7.058 -2.2691 -1.8158 -2.6020
26421SOL    HW286504   8.412   0.428   6.988  0.0373 -0.8214  1.6821
26422SOL     OW86505   5.587   9.762   5.044  0.5126  0.8679  0.3773
26422SOL    HW186506   5.672   9.740   5.082  0.2787 -1.2579 -0.2019
26422SOL    HW286507   5.607   9.789   4.955  0.5160 -1.4014 -0.3794
26423SOL     OW86508   6.281   3.125   1.901  0.0393 -0.2879  0.6838
26423SOL    HW186509   6.355   3.065   1.914  0.3478 -0.4383 -1.3953
26423SOL    HW286510   6.216   3.073   1.854 -0.5760  0.4117  0.7436
26424SOL     OW86511  11.446   7.341   1.600 -0.6743 -0.0695  1.0648
26424SOL    HW186512  11.428   7.347   1.506 -0.8332  2.3569  1.1894
26424SOL    HW286513  11.367   7.374   1.642 -0.7583 -1.4799  2.1208
26425SOL     OW86514   5.349   7.553   2.737 -0.0133  0.4391 -0.0176
26425SOL    HW186515   5.367   7.644   2.712 -2.2582  1.1274  0.6161
26425SOL    HW286516   5.423   7.503   2.702  0.1177  2.1674 -2.4646
26426SOL     OW86517   9.563   1.199   1.879  0.3174 -0.0019  0.1489
26426SOL    HW186518   9.636   1.138   1.865 -0.2319 -0.4907 -0.6502
26426SOL    HW286519   9.545   1.194   1.972 -0.3859 -1.8681 -0.0428
26427SOL     OW86520   0.063   2.209   8.177 -0.1285 -0.3253 -0.2039
26427SOL    HW186521   0.015   2.291   8.176 -0.0925 -0.3006 -1.3936
26427SOL    HW286522   0.018   2.155   8.242 -1.2856 -0.0326 -0.7564
26428SOL     OW86523   7.285   1.671   2.635 -0.5434  0.2047  0.3674
26428SOL    HW186524   7.370   1.673   2.593 -0.6637 -1.0175  0.0310
26428SOL    HW286525   7.260   1.763   2.643  0.8833  0.5884  0.6590
26429SOL     OW86526   3.160  11.640   1.545 -0.5942 -0.7562 -0.5469
26429SOL    HW186527   3.176  11.564   1.491  0.6468 -1.5858  0.9094
26429SOL    HW286528   3.245  11.682   1.554 -1.0805  0.2678 -0.5286
26430SOL     OW86529   1.401   8.667  10.381 -0.0185 -0.4649  0.4897
26430SOL    HW186530   1.481   8.717  10.366  1.2260 -2.6908 -0.8961
26430SOL    HW286531   1.422   8.609  10.455 -1.1859  0.4978  1.6182
26431SOL     OW86532   9.805  10.595   0.782  0.2413  0.0224  0.0707
26431SOL    HW186533   9.792  10.546   0.701 -0.9934  0.8075 -0.2381
26431SOL    HW286534   9.814  10.529   0.850  1.8600 -0.6667 -0.7534
26432SOL     OW86535   0.127   7.982   3.487 -0.4703  0.1204  0.3883
26432SOL    HW186536   0.032   7.982   3.482 -0.6741 -0.3454  3.0670
26432SOL    HW286537   0.153   8.071   3.461 -1.5950  0.2133 -0.4707
26433SOL     OW86538  11.682  11.101  12.022 -0.2290 -0.3839  0.7637
26433SOL    HW186539  11.619  11.125  11.954 -1.0684 -1.7939  1.0215
26433SOL    HW286540  11.724  11.184  12.045 -2.2508  0.6793  0.8621
26434SOL     OW86541  10.187  12.398   8.373 -0.4443 -0.4791  0.8176
26434SOL    HW186542  10.095  12.409   8.396 -0.6564 -0.7206  0.1134
26434SOL    HW286543  10.201  12.458   8.299 -0.2938 -1.1363  0.2964
26435SOL     OW86544   8.577   6.371  12.574  0.2133 -0.2744  0.7819
26435SOL    HW186545   8.656   6.421  12.554  0.4196 -0.9744 -0.2549
26435SOL    HW286546   8.585   6.347  12.667  0.0111  1.7371  1.3546
26436SOL     OW86547  12.388   1.149   1.411 -0.0499 -0.6737  0.0026
26436SOL    HW186548  12.482   1.136   1.394 -0.5369 -4.2120 -0.9439
26436SOL    HW286549  12.362   1.070   1.459 -2.8702 -0.7412 -1.4335
26437SOL     OW86550  10.540   0.388   2.628 -0.0398 -0.3073  0.2662
26437SOL    HW186551  10.531   0.327   2.701 -0.8828  0.5554  0.9103
26437SOL    HW286552  10.513   0.338   2.551  0.2914 -1.0543  0.6318
26438SOL     OW86553  11.702  10.458  11.812 -0.9081  0.1229 -0.0016
26438SOL    HW186554  11.670  10.375  11.846  0.3166 -0.5983 -0.5324
26438SOL    HW286555  11.648  10.474  11.734 -1.7632  0.3059  0.6195
26439SOL     OW86556   0.411   5.799   6.548 -0.0431 -0.3222 -0.0202
26439SOL    HW186557   0.410   5.894   6.550  0.7501 -0.2393 -1.6965
26439SOL    HW286558   0.320   5.773   6.536 -0.1095  0.3120 -1.0128
26440SOL     OW86559   6.820  11.370   2.865  0.4672  0.2231 -0.3218
26440SOL    HW186560   6.849  11.312   2.795  0.2462  0.0396 -0.2614
26440SOL    HW286561   6.738  11.407   2.834  0.4452  0.2574 -0.2241
26441SOL     OW86562   9.067   5.483   9.310 -0.2760  0.4816 -0.2199
26441SOL    HW186563   8.975   5.459   9.305 -0.1334 -0.4404  1.1139
26441SOL    HW286564   9.086   5.523   9.225 -2.0364  1.2155 -0.3103
26442SOL     OW86565   5.119   5.434   5.670 -0.8529  0.3647  0.2779
26442SOL    HW186566   5.057   5.507   5.661 -1.4829 -0.1219  0.6266
26442SOL    HW286567   5.084   5.366   5.612 -0.4263  0.2236  0.1816
26443SOL     OW86568   1.306   1.829  12.134 -0.0005  0.0913 -0.4592
26443SOL    HW186569   1.225   1.815  12.086 -0.1393  0.5990 -0.3766
26443SOL    HW286570   1.375   1.806  12.072 -0.1891  0.3373 -0.7590
26444SOL     OW86571  11.629   5.156   0.489 -0.0681 -0.4081 -0.2378
26444SOL    HW186572  11.629   5.092   0.560  1.4504  0.9485  1.0611
26444SOL    HW286573  11.717   5.194   0.491 -0.2406  0.2244 -2.3621
26445SOL     OW86574  11.326   2.796   0.483 -0.3216 -0.1613 -0.2754
26445SOL    HW186575  11.298   2.704   0.475 -1.3830  0.0815  0.3440
26445SOL    HW286576  11.420   2.794   0.468 -0.2612 -1.4222  0.1155
26446SOL     OW86577   7.063   2.942   1.485  0.3054  0.3648  0.3805
26446SOL    HW186578   6.975   2.905   1.482 -0.5701  2.2760 -2.6582
26446SOL    HW286579   7.055   3.017   1.544 -0.3543  0.9379 -0.4062
26447SOL     OW86580   6.901   1.088   7.273 -0.0613  0.2879  0.5221
26447SOL    HW186581   6.908   1.130   7.359 -0.3548  0.4920  0.4494
26447SOL    HW286582   6.989   1.053   7.256  0.0296  0.3524  0.8508
26448SOL     OW86583  10.929   6.613  11.362  0.5306  0.5643 -0.1211
26448SOL    HW186584  10.839   6.588  11.381  0.4239  0.9448 -0.1297
26448SOL    HW286585  10.965   6.539  11.313  0.6355 -0.1910  1.0642
26449SOL     OW86586   2.753   6.310   4.904  0.1114  0.2039 -0.2595
26449SOL    HW186587   2.831   6.283   4.857  0.6685 -0.4331  0.9888
26449SOL    HW286588   2.710   6.373   4.845  1.6157  0.6741 -0.9063
26450SOL     OW86589   4.141   8.401   7.192 -0.4871  0.1181  0.2152
26450SOL    HW186590   4.202   8.401   7.265 -0.9004  0.1768  0.5654
26450SOL    HW286591   4.181   8.461   7.128  1.2751 -2.0402 -0.8306
26451SOL     OW86592   7.832   6.385  12.437 -0.0192 -0.3954 -0.4423
26451SOL    HW186593   7.750   6.340  12.455 -0.1603 -0.5749 -1.5239
26451SOL    HW286594   7.897   6.336  12.487 -0.5971 -0.0434  0.7049
26452SOL     OW86595   9.604   1.450   7.132  0.0482  0.4459 -0.1460
26452SOL    HW186596   9.652   1.475   7.212  1.2012 -0.5387 -0.4941
26452SOL    HW286597   9.664   1.471   7.061  0.0456 -0.9256 -0.5871
26453SOL     OW86598  10.482  12.188   0.019 -0.1512 -0.6400 -0.1593
26453SOL    HW186599  10.446  12.128  -0.045  0.1152 -0.7219 -0.2343
26453SOL    HW286600  10.431  12.172   0.099 -1.0792  0.0788 -0.5803
26454SOL     OW86601   2.346   2.424   2.056  0.0887  0.1248 -0.8495
26454SOL    HW186602   2.428   2.467   2.029 -0.0772  0.0556 -1.4602
26454SOL    HW286603   2.294   2.495   2.094  0.4715  0.1488 -0.3394
26455SOL     OW86604   3.996  10.208  10.342  0.3105 -0.3672 -0.1845
26455SOL    HW186605   4.021  10.294  10.310  1.2398 -0.4931  0.1675
26455SOL    HW286606   3.903  10.216  10.365  0.6633  0.8714  0.9471
26456SOL     OW86607   3.136   2.012   0.591  0.0784  0.4632 -0.0990
26456SOL    HW186608   3.219   2.059   0.593 -0.4180  1.4228 -0.7435
26456SOL    HW286609   3.121   1.985   0.681  0.6888  1.0059  0.1753
26457SOL     OW86610   0.086   4.126   5.227 -0.1077  0.7178 -0.3901
26457SOL    HW186611   0.102   4.035   5.202 -0.2115  0.2363  1.1881
26457SOL    HW286612   0.155   4.176   5.183 -0.3705 -0.0235 -1.7166
26458SOL     OW86613  12.111  11.296   9.683 -0.5209  0.1800 -0.3759
26458SOL    HW186614  12.067  11.363   9.736 -1.4999 -0.6745 -0.0727
26458SOL    HW286615  12.060  11.216   9.698  0.5389 -0.6062 -0.8435
26459SOL     OW86616   6.758   6.246   9.994 -0.5073  0.2336  0.1369
26459SOL    HW186617   6.812   6.211  10.065  0.5307 -0.1245 -0.8158
26459SOL    HW286618   6.774   6.189   9.920 -1.7220  0.5018 -0.3620
26460SOL     OW86619   7.277   0.998   1.816  0.4112 -0.1290  0.2640
26460SOL    HW186620   7.359   0.985   1.769  1.3221  0.9749  1.4662
26460SOL    HW286621   7.253   0.911   1.848  1.4073 -0.3830  0.3486
26461SOL     OW86622   0.733   8.211   3.471 -0.4159 -0.5143 -0.2645
26461SOL    HW186623   0.792   8.286   3.466 -1.5583  0.4232 -0.3033
26461SOL    HW286624   0.784   8.138   3.438  0.5638  0.3637 -0.7649
26462SOL     OW86625   9.861   9.096   4.575 -0.2730  0.2403  0.1642
26462SOL    HW186626   9.814   9.076   4.493 -0.7243  3.7106 -0.5902
26462SOL    HW286627   9.792   9.105   4.640 -0.0378 -1.1058  0.6089
26463SOL     OW86628  12.693   9.144  10.645 -0.0940  0.0849  0.0816
26463SOL    HW186629  12.650   9.140  10.560 -0.2850  0.2915  0.1678
26463SOL    HW286630  12.750   9.067  10.647  0.1457  0.2459 -0.3596
26464SOL     OW86631   6.419   0.075   4.386  0.1755 -0.1371 -0.1036
26464SOL    HW186632   6.442   0.145   4.325  0.1493  0.2944  0.3790
26464SOL    HW286633   6.430  -0.005   4.335 -0.9798  0.2724 -1.0386
26465SOL     OW86634  11.900   4.152   0.806  0.0822  0.0031 -0.1774
26465SOL    HW186635  11.901   4.225   0.744  3.6853  0.8095  0.5899
26465SOL    HW286636  11.883   4.075   0.752  1.9352  0.8107 -2.0365
26466SOL     OW86637  11.365   8.918   5.495 -0.3554  0.4063  0.0408
26466SOL    HW186638  11.306   8.843   5.482  1.8568 -1.5381  0.7179
26466SOL    HW286639  11.379   8.951   5.406  0.8440 -1.8174 -0.6909
26467SOL     OW86640   4.331   5.058   3.927 -0.0679  0.2559 -0.2303
26467SOL    HW186641   4.263   5.034   3.990 -0.0692 -1.6473 -0.8949
26467SOL    HW286642   4.298   5.137   3.884 -1.0664  0.3183  0.6352
26468SOL     OW86643   8.987   7.238   3.756  0.5956 -0.1488 -0.0475
26468SOL    HW186644   9.047   7.312   3.748 -0.7899  1.1971  1.4043
26468SOL    HW286645   9.003   7.203   3.843 -1.1409  0.6803  0.6587
26469SOL     OW86646   1.678  10.853   6.979  0.4668 -0.1835  0.1381
26469SOL    HW186647   1.624  10.929   7.002 -0.1859 -0.9226  1.1419
26469SOL    HW286648   1.618  10.795   6.932  1.5698  0.9329 -2.9086
26470SOL     OW86649   8.931   2.162   3.797 -0.7936 -0.0779 -0.2982
26470SOL    HW186650   8.906   2.150   3.706 -1.5384  0.7665 -0.2227
26470SOL    HW286651   9.022   2.131   3.802 -0.4025  0.8038 -1.5551
26471SOL     OW86652   8.869   8.915   6.205  0.0873 -0.1709  0.3009
26471SOL    HW186653   8.897   8.853   6.138  1.9066  0.7672  0.1444
26471SOL    HW286654   8.773   8.916   6.197 -0.0026 -2.7665  0.1817
26472SOL     OW86655   5.095   9.389  11.004  0.3331 -0.1694 -0.3276
26472SOL    HW186656   5.060   9.359  11.089 -0.1419 -2.5557 -1.2731
26472SOL    HW286657   5.079   9.315  10.945  1.0339  1.2731 -2.4179
26473SOL     OW86658   5.231   9.015   1.217 -0.4796 -0.0084 -0.8279
26473SOL    HW186659   5.230   8.924   1.187 -1.3078 -0.2989  0.0444
26473SOL    HW286660   5.213   9.011   1.310  2.3115  0.8760 -0.1471
26474SOL     OW86661   0.401   7.415  11.688 -0.6989  0.1192  0.1732
26474SOL    HW186662   0.484   7.400  11.643  0.2023  1.0999  1.4366
26474SOL    HW286663   0.334   7.386  11.625  0.4244  2.2539 -2.1818
26475SOL     OW86664   6.257   5.846   0.666 -0.1749  0.0848 -0.1877
26475SOL    HW186665   6.217   5.795   0.596 -0.5853 -1.6193  1.2122
26475SOL    HW286666   6.250   5.790   0.744  2.4503  0.8639  0.7259
26476SOL     OW86667   0.919   8.306   2.521  0.4640  0.1092  0.0412
26476SOL    HW186668   0.937   8.382   2.577  1.7208 -0.8478  1.0006
26476SOL    HW286669   0.875   8.244   2.578  1.4130 -0.7293 -0.1150
26477SOL     OW86670   2.201  12.556   1.294 -0.5056 -0.8445  0.5343
26477SOL    HW186671   2.124  12.531   1.346 -0.2131 -3.2671 -0.1025
26477SOL    HW286672   2.177  12.536   1.204 -0.0753  0.9697 -0.0322
26478SOL     OW86673   5.046  10.841  12.458  0.5132  0.1399 -0.3287
26478SOL    HW186674   5.027  10.752  12.488 -0.0412  0.3108 -0.1574
26478SOL    HW286675   5.141  10.851  12.468  0.3276  0.2544  1.5385
26479SOL     OW86676   3.274   7.897  12.296  0.5957  0.1072 -0.4260
26479SOL    HW186677   3.329   7.820  12.312  1.1675  0.2788 -1.4704
26479SOL    HW286678   3.323   7.969  12.335  0.4198  0.0513 -0.1020
26480SOL     OW86679   6.634   6.113  12.076  0.6682  0.2512 -0.3024
26480SOL    HW186680   6.671   6.094  11.990  1.5971 -1.9312  0.5048
26480SOL    HW286681   6.571   6.043  12.092  1.5471 -0.2360  1.3346
26481SOL     OW86682   5.675   2.669   9.417  0.0127 -0.0289 -0.2167
26481SOL    HW186683   5.627   2.595   9.454 -0.0417 -0.2111 -0.6419
26481SOL    HW286684   5.618   2.744   9.433  0.3561  0.0280  0.7843
26482SOL     OW86685   9.524   9.159  11.678  0.2881  0.1963 -0.2653
26482SOL    HW186686   9.471   9.192  11.606  0.6172 -1.6985 -1.4406
26482SOL    HW286687   9.597   9.222  11.685  0.1461  0.5238 -1.4526
26483SOL     OW86688   8.092   6.154   9.236 -0.4124 -0.2502  0.3067
26483SOL    HW186689   8.099   6.243   9.271 -0.6269 -0.9261  2.1443
26483SOL    HW286690   8.176   6.114   9.256 -0.8470 -0.9191  0.8147
26484SOL     OW86691   6.530   3.124  12.668  0.0166  0.6183 -0.6383
26484SOL    HW186692   6.467   3.111  12.597 -0.2135 -1.4909 -0.1277
26484SOL    HW286693   6.477   3.128  12.747  0.4452 -0.4541 -0.2765
26485SOL     OW86694  11.065   0.203   9.193 -0.2200  0.2684  0.0701
26485SOL    HW186695  10.996   0.162   9.141 -0.1652  1.7251 -1.2283
26485SOL    HW286696  11.098   0.133   9.249  0.4165 -1.6903 -2.5815
26486SOL     OW86697  10.239   7.247   1.533 -0.1370 -0.3541 -0.3010
26486SOL    HW186698  10.154   7.250   1.576  0.4291 -0.0667  0.8661
26486SOL    HW286699  10.220   7.234   1.441 -1.4446 -0.1500 -0.0730
26487SOL     OW86700   6.450   3.668   1.074  0.3302 -0.0479 -0.0469
26487SOL    HW186701   6.519   3.682   1.009 -1.1988  2.1318 -1.3123
26487SOL    HW286702   6.456   3.744   1.132  0.5483 -1.1055  1.3780
26488SOL     OW86703   5.944   7.750  11.993  0.0841  0.0952 -0.4594
26488SOL    HW186704   5.990   7.827  12.026 -0.2354 -0.2555  0.8626
26488SOL    HW286705   5.852   7.766  12.016 -0.2905  0.2188 -1.9538
26489SOL     OW86706   3.813   5.675   5.936  0.0006  0.3039 -0.3653
26489SOL    HW186707   3.795   5.618   6.011  1.3641  0.6753  0.2786
26489SOL    HW286708   3.729   5.683   5.891 -0.6446 -0.6467  0.6199
26490SOL     OW86709   7.542  10.163   2.578 -0.1827 -0.4384  0.4854
26490SOL    HW186710   7.610  10.104   2.610 -0.1752  0.1063  1.5249
26490SOL    HW286711   7.573  10.251   2.602 -0.4317 -0.0400 -0.5838
26491SOL     OW86712  11.125   5.328   1.292  0.1045 -0.2973  0.2063
26491SOL    HW186713  11.146   5.415   1.258  0.5540  0.5189  2.4444
26491SOL    HW286714  11.049   5.342   1.348  1.1571 -1.0312  1.8651
26492SOL     OW86715   5.505   5.823   4.483 -0.2740 -0.1771 -0.3751
26492SOL    HW186716   5.503   5.779   4.568  1.2810  0.4434  0.0046
26492SOL    HW286717   5.552   5.763   4.426 -1.8551 -0.8748 -1.0009
26493SOL     OW86718  10.602   5.163  10.810  0.2370  1.0713  0.4020
26493SOL    HW186719  10.507   5.168  10.817  0.0642 -0.7069 -0.1129
26493SOL    HW286720  10.630   5.120  10.891  0.4757  0.5360  0.0400
26494SOL     OW86721   0.840  12.532   6.377 -0.2117  0.1054  0.0757
26494SOL    HW186722   0.748  12.509   6.361 -0.3439  0.5954  0.1190
26494SOL    HW286723   0.890  12.464   6.332 -0.5742 -1.6418  2.1408
26495SOL     OW86724  11.018  10.115  10.704 -0.0102 -0.2143  0.6154
26495SOL    HW186725  11.100  10.085  10.665  0.2462  0.3585  0.7033
26495SOL    HW286726  11.039  10.200  10.743 -0.7907  0.2295  0.1010
26496SOL     OW86727  12.082   9.567   8.445  0.2628  0.1247 -0.3239
26496SOL    HW186728  11.992   9.535   8.446  0.8237 -1.4885  0.4604
26496SOL    HW286729  12.082   9.640   8.507 -0.7118  0.7968 -1.0838
26497SOL     OW86730   5.938  10.933   6.250 -0.2445 -0.0423  0.0500
26497SOL    HW186731   5.896  10.847   6.247  0.4049 -0.3404 -0.7796
26497SOL    HW286732   5.997  10.934   6.175  0.4620  0.7658  0.5933
26498SOL     OW86733   5.397   6.639   5.541 -0.2878  0.1617  0.0990
26498SOL    HW186734   5.454   6.588   5.483 -2.2489 -1.6416 -0.3573
26498SOL    HW286735   5.349   6.698   5.483 -1.1814 -0.6026  0.0388
26499SOL     OW86736   2.136   2.695   6.479  0.4520 -0.0374 -0.5218
26499SOL    HW186737   2.211   2.752   6.497 -0.3503  0.5037  1.3401
26499SOL    HW286738   2.122   2.704   6.384  2.7212 -0.1937 -0.9379
26500SOL     OW86739   2.182  12.495   2.360 -0.3320  0.0835 -0.0661
26500SOL    HW186740   2.275  12.506   2.343 -0.3346 -2.8073 -2.8858
26500SOL    HW286741   2.138  12.552   2.297 -0.4460  0.1584  0.0803
26501SOL     OW86742  11.303   6.832   3.305 -0.8654  0.1338 -0.5915
26501SOL    HW186743  11.350   6.843   3.221 -0.3283  0.5334 -0.2509
26501SOL    HW286744  11.354   6.885   3.367 -1.3843  0.0132 -0.0590
26502SOL     OW86745   2.842  12.658   8.848 -0.4030 -0.4725 -0.0977
26502SOL    HW186746   2.766  12.658   8.790 -0.4571  0.5298 -0.0380
26502SOL    HW286747   2.897  12.730   8.817  0.5960 -1.2577 -0.2124
26503SOL     OW86748   9.515   4.459   1.117  0.2470 -0.7116  0.3480
26503SOL    HW186749   9.487   4.506   1.038 -0.3807  0.0389  1.0095
26503SOL    HW286750   9.499   4.520   1.189  1.6942 -1.0272  0.9836
26504SOL     OW86751   1.660   6.176   3.328 -0.2005 -0.1341 -0.7722
26504SOL    HW186752   1.696   6.213   3.408  0.1275 -1.2889 -0.3690
26504SOL    HW286753   1.581   6.130   3.355 -0.6871  0.3709 -1.2890
26505SOL     OW86754   3.083  11.769   1.774 -0.1279  0.1914  0.0107
26505SOL    HW186755   3.119  11.738   1.691  2.3415  1.1450  0.6338
26505SOL    HW286756   3.056  11.690   1.820  2.2674 -0.7519 -0.0816
26506SOL     OW86757  10.976   9.766  10.564  0.6704  0.3443  0.5548
26506SOL    HW186758  10.906   9.749  10.627  0.4989  0.4735  0.4027
26506SOL    HW286759  11.055   9.772  10.616  0.6225 -0.1561  0.6942
26507SOL     OW86760   9.137   9.217  11.780  0.0662 -0.2191  0.4126
26507SOL    HW186761   9.099   9.176  11.858  2.3449  0.6332  2.1071
26507SOL    HW286762   9.189   9.149  11.739  1.4318  0.1254  1.5102
26508SOL     OW86763  10.076   6.511   1.765 -0.5202  0.3330  0.0751
26508SOL    HW186764  10.010   6.543   1.827 -0.3011 -0.9763  1.0367
26508SOL    HW286765  10.159   6.522   1.811 -0.3256 -0.3936 -0.0859
26509SOL     OW86766  12.195   6.951   1.810  0.0973  0.2247  0.5207
26509SOL    HW186767  12.145   6.894   1.868 -0.4208  1.8305  1.7391
26509SOL    HW286768  12.129   7.009   1.771  0.8755  1.8905  1.5803
26510SOL     OW86769   1.049   7.363   6.809  0.3191  0.1599  0.0252
26510SOL    HW186770   1.095   7.373   6.726 -0.1319  1.5208 -0.0910
26510SOL    HW286771   1.119   7.346   6.873  0.6349 -1.2922 -0.6528
26511SOL     OW86772   7.179   0.093   4.717  0.1513 -0.8974  0.1653
26511SOL    HW186773   7.249   0.117   4.776 -0.8711 -2.3512  2.1037
26511SOL    HW286774   7.154   0.174   4.674  0.9131  0.2426  1.7858
26512SOL     OW86775   0.087   6.321   9.166 -0.3472  0.3016 -0.3652
26512SOL    HW186776   0.093   6.359   9.254 -1.4879 -0.4323  0.0465
26512SOL    HW286777   0.113   6.393   9.108 -1.5825  1.4639  0.4462
26513SOL     OW86778  10.317   4.653   9.598  0.6556  0.0044 -0.3574
26513SOL    HW186779  10.245   4.704   9.636 -0.0589 -1.7441  0.7651
26513SOL    HW286780  10.295   4.644   9.506 -0.5933 -0.5105 -0.0253
26514SOL     OW86781  12.513  11.825  10.945  0.2140  0.1463 -0.2523
26514SOL    HW186782  12.565  11.845  10.868 -0.6705  0.2057 -0.8483
26514SOL    HW286783  12.569  11.770  10.999  0.5745 -0.5048 -1.2750
26515SOL     OW86784   3.034   3.799   0.027 -0.1227  0.0953  0.0952
26515SOL    HW186785   3.080   3.738   0.085 -0.2163 -1.6413 -1.5597
26515SOL    HW286786   3.101   3.860  -0.002  0.4532 -0.4985  0.1555
26516SOL     OW86787  10.319   0.098   8.107  0.1810  0.2756  0.8623
26516SOL    HW186788  10.376   0.173   8.088  2.3466 -0.8358  2.4375
26516SOL    HW286789  10.306   0.101   8.202 -0.4900 -0.7863  0.8231
26517SOL     OW86790   3.122   3.668   3.125  0.3025 -0.1112 -0.3049
26517SOL    HW186791   3.151   3.727   3.055 -1.0147  1.9233  0.7440
26517SOL    HW286792   3.201   3.651   3.176  1.0327 -0.6401 -1.5467
26518SOL     OW86793   6.345  12.604  10.405 -0.3013  0.2978 -0.2096
26518SOL    HW186794   6.431  12.576  10.373 -0.3579  0.8084 -0.8364
26518SOL    HW286795   6.284  12.579  10.336 -0.3346  2.0396 -0.8639
26519SOL     OW86796   1.115   7.006  12.587 -0.0664  0.4057 -0.2128
26519SOL    HW186797   1.087   6.916  12.604 -0.8400  0.6366 -0.1913
26519SOL    HW286798   1.209   6.999  12.569 -0.0474 -0.3586  0.1217
26520SOL     OW86799   7.732   8.754   5.283  0.2497  0.1422  0.0054
26520SOL    HW186800   7.756   8.737   5.374 -0.4601  0.0779  0.1854
26520SOL    HW286801   7.787   8.828   5.257 -0.5686  1.1144  0.9501
26521SOL     OW86802   6.253  11.848   3.271 -0.6100  0.1745  0.1916
26521SOL    HW186803   6.226  11.854   3.179 -3.4095  1.5615  1.0265
26521SOL    HW286804   6.212  11.922   3.314  2.0874  0.6128  2.3211
26522SOL     OW86805   1.158   3.955  10.402 -0.1070  0.4807  0.3277
26522SOL    HW186806   1.080   3.982  10.451 -2.3110 -2.6011 -1.1202
26522SOL    HW286807   1.191   3.880  10.451  0.0498 -0.1479 -0.7068
26523SOL     OW86808   0.355  10.379  11.603  0.2942 -0.0203 -0.2935
26523SOL    HW186809   0.275  10.336  11.635 -0.6833  1.7399 -0.2778
26523SOL    HW286810   0.323  10.456  11.556  1.9282 -0.1635 -1.6931
26524SOL     OW86811  10.771   5.888  11.782 -0.2197 -0.5720 -0.0486
26524SOL    HW186812  10.677   5.897  11.797  0.0035 -0.7823  1.7162
26524SOL    HW286813  10.811   5.916  11.864  1.2967 -0.0459 -0.9170
26525SOL     OW86814   4.959  11.508   4.952 -0.0615 -0.5522  0.2006
26525SOL    HW186815   4.900  11.532   5.023  0.6556 -2.6681  1.6200
26525SOL    HW286816   4.909  11.446   4.899  0.5124 -1.6566  0.8981
26526SOL     OW86817   9.815   2.016   2.072 -0.0151 -0.2146 -0.0156
26526SOL    HW186818   9.801   2.109   2.085 -0.4654 -0.3253  0.3190
26526SOL    HW286819   9.738   1.986   2.024  0.8264 -0.1388 -1.4526
26527SOL     OW86820   2.701   8.125   8.999  0.3392 -0.3448  0.2619
26527SOL    HW186821   2.717   8.219   9.002 -0.3076 -0.2023 -0.5904
26527SOL    HW286822   2.661   8.109   8.914 -0.3678 -1.2647  0.7456
26528SOL     OW86823   9.607   1.774   3.125 -0.1717  0.1242 -0.1393
26528SOL    HW186824   9.633   1.724   3.203 -1.3983  1.7409  1.4236
26528SOL    HW286825   9.565   1.853   3.161 -3.3933 -0.3622 -2.3862
26529SOL     OW86826   6.240   2.534   4.229  0.1076  0.0310  0.8958
26529SOL    HW186827   6.220   2.625   4.252  1.9367  0.6260  0.3375
26529SOL    HW286828   6.332   2.536   4.201 -0.5804 -1.4371 -1.9361
26530SOL     OW86829   0.551  10.918   9.624  0.0208 -0.2057 -0.8361
26530SOL    HW186830   0.569  10.944   9.534 -1.8186  2.3121 -0.6116
26530SOL    HW286831   0.463  10.879   9.621 -1.6258  3.0245  0.1705
26531SOL     OW86832   1.164   1.043   2.168  0.2175 -0.2039 -0.3244
26531SOL    HW186833   1.144   1.096   2.090 -1.4712 -0.2937  0.0242
26531SOL    HW286834   1.122   1.090   2.240  2.1819  0.1544  0.6640
26532SOL     OW86835  11.447   9.254  12.297 -0.2001 -0.3111 -0.0593
26532SOL    HW186836  11.437   9.270  12.203  1.4402 -1.5664 -0.5035
26532SOL    HW286837  11.541   9.266  12.313 -0.4463 -0.1831  1.4178
26533SOL     OW86838   9.370   6.473   7.661 -0.0369 -0.1473 -0.3286
26533SOL    HW186839   9.405   6.388   7.634 -0.9738 -1.0863  1.3264
26533SOL    HW286840   9.353   6.519   7.578  1.9519 -0.9204 -1.2302
26534SOL     OW86841  12.225   7.150   8.376  0.6653  0.1784  0.2316
26534SOL    HW186842  12.136   7.120   8.394  0.9823 -2.9564 -2.5502
26534SOL    HW286843  12.281   7.086   8.419  1.6525  1.7224  1.3436
26535SOL     OW86844   9.683   9.307  10.597 -0.3835 -0.3486  0.1402
26535SOL    HW186845   9.759   9.275  10.547  0.1290  1.0022  0.0267
26535SOL    HW286846   9.694   9.402  10.600 -0.7868 -0.3271  2.2194
26536SOL     OW86847   5.781  11.449   9.397  0.4470 -0.2112 -0.5754
26536SOL    HW186848   5.837  11.519   9.430  1.4162 -0.8215 -0.8655
26536SOL    HW286849   5.716  11.493   9.343  0.4206  0.5521  0.0724
26537SOL     OW86850   5.191  10.633   9.704  0.3822  0.1359  0.0901
26537SOL    HW186851   5.112  10.591   9.671 -0.2887 -0.6323  2.4965
26537SOL    HW286852   5.255  10.625   9.632 -0.6209 -2.3891 -0.6040
26538SOL     OW86853  11.915  10.864  12.333 -0.0860  0.2612  0.2726
26538SOL    HW186854  11.887  10.843  12.244 -1.1831  1.8258  0.2179
26538SOL    HW286855  11.955  10.951  12.327  1.5691 -0.3871  1.0158
26539SOL     OW86856   3.764   9.517   5.683 -0.1043 -0.3149 -0.5112
26539SOL    HW186857   3.771   9.566   5.765 -0.1672 -0.8535 -0.1824
26539SOL    HW286858   3.679   9.475   5.687  0.0717 -0.6914 -0.6544
26540SOL     OW86859   6.140   2.779   4.318 -0.4135  0.6764 -0.0506
26540SOL    HW186860   6.065   2.839   4.313 -0.5044  0.5121 -0.8069
26540SOL    HW286861   6.202   2.824   4.376 -1.2485  0.6286  0.9108
26541SOL     OW86862   8.280   2.895   0.210 -0.0858 -0.1138  0.5402
26541SOL    HW186863   8.329   2.845   0.144  0.0136 -0.8624  1.1633
26541SOL    HW286864   8.189   2.873   0.195 -0.0686 -0.2343  0.6117
26542SOL     OW86865   1.633   3.129   7.883 -0.1820  0.5263 -0.0210
26542SOL    HW186866   1.595   3.042   7.892 -0.4877  0.4058 -1.9847
26542SOL    HW286867   1.622   3.169   7.969 -1.1100 -0.9525  0.5840
26543SOL     OW86868   8.721   9.954  11.501 -0.1372 -0.3458 -0.0014
26543SOL    HW186869   8.670  10.033  11.522  0.0705 -0.2959  0.3305
26543SOL    HW286870   8.786   9.984  11.437  1.7535  0.4319  2.1339
26544SOL     OW86871  11.563   6.758   9.362  0.3477 -0.6356  0.6124
26544SOL    HW186872  11.526   6.824   9.303 -0.2998 -1.0166  0.5961
26544SOL    HW286873  11.657   6.777   9.361  0.2549 -0.1615  0.0474
26545SOL     OW86874   1.915   5.015   9.714  0.0587 -0.7593  0.8707
26545SOL    HW186875   1.998   4.970   9.727  0.7179  0.6324  1.6683
26545SOL    HW286876   1.856   4.975   9.778  0.9139  0.1278  2.2786
26546SOL     OW86877   3.117   8.821   9.711 -0.7409 -0.3134 -0.3984
26546SOL    HW186878   3.054   8.752   9.691  1.2025 -2.5087  0.5903
26546SOL    HW286879   3.200   8.787   9.678  0.3497  1.4068  0.4763
26547SOL     OW86880   4.374   7.901   5.993 -0.2991 -0.1366 -0.0547
26547SOL    HW186881   4.329   7.986   5.991 -2.0419 -1.0193 -0.5903
26547SOL    HW286882   4.465   7.922   5.974 -0.7339  1.5967 -0.4195
26548SOL     OW86883   2.399   6.925   1.665 -0.2628  0.1191 -0.2658
26548SOL    HW186884   2.427   6.898   1.578 -1.2600  0.2558 -0.6428
26548SOL    HW286885   2.444   6.865   1.725 -0.8842 -1.0773 -0.9706
26549SOL     OW86886   7.017  11.032   2.113  0.3532  0.1774  0.1757
26549SOL    HW186887   7.095  11.080   2.083  0.6110 -0.5167 -0.2956
26549SOL    HW286888   6.950  11.052   2.048  0.4406 -0.0249  0.0184
26550SOL     OW86889   8.480  11.849   6.609 -0.0189 -0.0606 -0.2924
26550SOL    HW186890   8.531  11.915   6.657 -1.8675 -0.3203  2.1972
26550SOL    HW286891   8.519  11.766   6.634  0.1067 -0.1134 -0.6566
26551SOL     OW86892   1.909   1.487   1.788 -0.4632  0.1970 -0.5208
26551SOL    HW186893   1.891   1.505   1.881 -0.5393 -0.0771 -0.4822
26551SOL    HW286894   1.829   1.445   1.756 -1.0301  1.6495 -1.0901
26552SOL     OW86895  11.200   1.013   9.764 -0.1195 -0.0222  0.5481
26552SOL    HW186896  11.266   0.945   9.778  0.8247  0.7559 -0.0006
26552SOL    HW286897  11.199   1.027   9.670  0.9877  1.9205  0.7652
26553SOL     OW86898   3.149   3.219   6.960  0.0364  0.2270 -0.3063
26553SOL    HW186899   3.069   3.174   6.933 -0.8000  0.5075  1.5559
26553SOL    HW286900   3.135   3.310   6.935  0.6698 -0.0815 -1.8363
26554SOL     OW86901   6.301  12.573  11.697 -0.3632 -0.2768 -0.2671
26554SOL    HW186902   6.243  12.599  11.769 -1.5127 -0.1347 -1.2186
26554SOL    HW286903   6.344  12.654  11.670 -0.8752 -0.1076 -0.5670
26555SOL     OW86904   2.713   5.600  10.739  0.0963  0.0359  0.3850
26555SOL    HW186905   2.668   5.573  10.819 -0.9362  1.2050  0.2304
26555SOL    HW286906   2.797   5.554  10.742 -0.2290 -0.5130  1.7658
26556SOL     OW86907  11.106   8.801   2.918  0.4456  0.1415  0.3652
26556SOL    HW186908  11.041   8.787   2.849  1.2940  1.1718 -0.6968
26556SOL    HW286909  11.060   8.782   2.999 -0.3792 -1.8856 -0.5094
26557SOL     OW86910   2.445  10.254   3.060 -0.1902  0.3686  0.6890
26557SOL    HW186911   2.507  10.274   3.130  1.6453 -0.1550 -0.7016
26557SOL    HW286912   2.452  10.328   3.000  0.7423 -0.6685 -0.5428
26558SOL     OW86913   3.495   7.016   2.831 -0.1472  0.4163  0.8118
26558SOL    HW186914   3.581   6.977   2.818 -0.4784 -0.4120  1.0461
26558SOL    HW286915   3.487   7.082   2.762 -0.9590 -2.2874 -1.9064
26559SOL     OW86916   6.688   8.133  10.268 -0.5908 -0.3125  0.1403
26559SOL    HW186917   6.704   8.194  10.196  0.4322 -0.7647 -0.0289
26559SOL    HW286918   6.593   8.133  10.278 -0.6050  1.8205  0.5861
26560SOL     OW86919   9.376   9.784   2.526  0.3064  0.1050 -0.6044
26560SOL    HW186920   9.463   9.785   2.566  0.0478  0.0060 -0.0212
26560SOL    HW286921   9.321   9.828   2.591 -0.3160 -0.9491 -0.4042
26561SOL     OW86922   1.920   9.242   9.460  0.4300  0.0324  0.2802
26561SOL    HW186923   1.985   9.256   9.529  0.1003 -0.3950  0.6842
26561SOL    HW286924   1.926   9.149   9.439 -0.9650 -0.3282  1.2794
26562SOL     OW86925  12.007   2.638   8.731 -0.0751  0.0819 -0.3737
26562SOL    HW186926  12.077   2.605   8.675  0.1919 -1.1348  0.6288
26562SOL    HW286927  11.976   2.561   8.779 -0.6045  0.9966  0.8182
26563SOL     OW86928  10.399   0.123   9.324 -0.0789 -0.3049 -0.4195
26563SOL    HW186929  10.328   0.096   9.267  0.6925 -2.4098 -0.4643
26563SOL    HW286930  10.381   0.081   9.408  0.2388  0.5273  0.0847
26564SOL     OW86931   3.725  10.304   7.265  0.2299  0.0446  0.6020
26564SOL    HW186932   3.747  10.367   7.197 -0.2123  0.1349  0.5396
26564SOL    HW286933   3.693  10.227   7.218 -0.7717  0.3735  0.7189
26565SOL     OW86934   5.518   5.803   8.000  0.2651 -0.0258  0.5633
26565SOL    HW186935   5.584   5.740   8.028  2.1683  1.2943 -0.6981
26565SOL    HW286936   5.565   5.886   7.993 -1.3197  0.8030 -1.3051
26566SOL     OW86937   8.523   3.302   3.784  0.4575 -0.1879 -0.0522
26566SOL    HW186938   8.507   3.232   3.848 -1.6196  0.4244  0.1974
26566SOL    HW286939   8.593   3.354   3.823  0.4985 -0.8839  0.8439
26567SOL     OW86940   3.782   7.701   8.309  0.2925 -0.2228  0.3378
26567SOL    HW186941   3.698   7.708   8.264 -0.4701 -1.1207  1.5421
26567SOL    HW286942   3.777   7.618   8.356  1.4099  0.2454  1.3459
26568SOL     OW86943   0.080   0.067   0.212 -0.1329 -0.1189  0.1948
26568SOL    HW186944   0.025   0.105   0.279 -1.6162  0.7002 -1.4011
26568SOL    HW286945   0.167   0.060   0.252 -0.6072  1.7944  1.6558
26569SOL     OW86946   6.453   0.419   5.710  0.3090  0.0924  0.7475
26569SOL    HW186947   6.421   0.447   5.795  0.1691 -0.4778  0.8870
26569SOL    HW286948   6.529   0.365   5.730 -0.4702 -1.0874  0.5905
26570SOL     OW86949  11.148  11.428  12.258 -0.5816  0.2649 -0.5070
26570SOL    HW186950  11.071  11.485  12.263  0.6801  2.3057 -2.5666
26570SOL    HW286951  11.167  11.422  12.164  0.8135 -1.5748 -0.1562
26571SOL     OW86952  10.787  10.740  10.569 -0.2932  0.2334  0.2943
26571SOL    HW186953  10.776  10.742  10.474  1.0957  0.8491  0.1165
26571SOL    HW286954  10.828  10.655  10.586  2.9421  1.5427 -0.1669
26572SOL     OW86955  12.124   0.652   7.555 -0.4913  0.2239 -0.0047
26572SOL    HW186956  12.068   0.729   7.542 -1.1764 -0.5953 -2.4137
26572SOL    HW286957  12.186   0.679   7.623 -1.3847  2.5133 -0.0021
26573SOL     OW86958   7.086   4.134   1.787  0.2111 -1.0309  0.9685
26573SOL    HW186959   7.074   4.087   1.704 -1.8965 -0.4217  0.8494
26573SOL    HW286960   7.172   4.174   1.780 -0.9132  1.2521 -2.1639
26574SOL     OW86961   0.095  11.742   9.900  0.1242 -0.2774 -0.0836
26574SOL    HW186962   0.095  11.667   9.840 -0.0886  0.6990 -1.3368
26574SOL    HW286963   0.177  11.733   9.948 -0.3993 -1.9141  0.5922
26575SOL     OW86964   8.796   9.458  10.790  0.5257  0.8846  0.1506
26575SOL    HW186965   8.873   9.408  10.765 -1.0699 -0.7135 -1.9768
26575SOL    HW286966   8.762   9.413  10.867  0.7980  0.5493  0.0740
26576SOL     OW86967   2.567   2.669   1.584  0.1479  0.6167  0.0334
26576SOL    HW186968   2.633   2.603   1.607  0.8998  2.1345  2.6705
26576SOL    HW286969   2.492   2.649   1.641 -0.4855  0.7648 -0.7298
26577SOL     OW86970  11.062   0.635   8.539 -0.4097 -0.3320  0.6077
26577SOL    HW186971  11.153   0.655   8.559 -0.3821 -0.5139  0.6691
26577SOL    HW286972  11.061   0.541   8.519 -0.2549  0.0278 -1.2722
26578SOL     OW86973  11.335  11.117   8.211 -0.3942  0.5860  0.4195
26578SOL    HW186974  11.242  11.106   8.193 -0.5660  1.8760  0.4386
26578SOL    HW286975  11.365  11.181   8.146  1.2556 -2.1613 -1.8104
26579SOL     OW86976   3.450   1.921   4.164 -0.2178  0.0459  0.2076
26579SOL    HW186977   3.439   1.873   4.083  1.4759  1.3298 -0.8478
26579SOL    HW286978   3.365   1.915   4.208 -0.8185 -1.6298 -1.0931
26580SOL     OW86979   5.432   4.729  12.679 -0.4847  0.0157 -0.6189
26580SOL    HW186980   5.370   4.801  12.691 -1.3127 -0.3727 -2.3255
26580SOL    HW286981   5.428   4.709  12.585 -1.7949 -3.5785  0.0555
26581SOL     OW86982   5.045  11.185   3.225  0.3107 -0.1796  0.0514
26581SOL    HW186983   5.062  11.258   3.286  1.4085 -0.9581  0.7137
26581SOL    HW286984   4.984  11.129   3.271  0.7146 -0.4904  0.2106
26582SOL     OW86985   5.086   7.206  10.460 -0.5976  0.0131 -0.1718
26582SOL    HW186986   5.168   7.216  10.412 -0.6395  1.6777  0.0327
26582SOL    HW286987   5.075   7.290  10.505 -2.0842 -0.4248  0.3257
26583SOL     OW86988   0.203  11.495   3.028  0.2544  0.0862 -0.1603
26583SOL    HW186989   0.291  11.480   3.065  0.1590 -1.3268 -0.4425
26583SOL    HW286990   0.154  11.417   3.054 -0.5526  0.2728 -1.1133
26584SOL     OW86991   9.055   6.169   3.809 -0.0756  0.6729  0.5710
26584SOL    HW186992   8.990   6.108   3.774 -0.7725  0.5599  2.0088
26584SOL    HW286993   9.133   6.115   3.824 -0.0575  0.5452  0.0415
26585SOL     OW86994   1.335   9.128   7.849 -0.6113 -0.5829 -0.0317
26585SOL    HW186995   1.287   9.106   7.928  1.0575 -0.4161  1.0755
26585SOL    HW286996   1.307   9.217   7.828 -0.4653 -0.3100  0.8695
26586SOL     OW86997   6.081  12.428  12.408  0.1117 -0.1242  0.4486
26586SOL    HW186998   6.142  12.358  12.431 -0.2866 -1.0473 -1.0868
26586SOL    HW286999   6.084  12.488  12.481  1.3966 -1.1389  1.2775
26587SOL     OW87000  10.869   2.304   6.869  0.0752 -0.2522  0.0244
26587SOL    HW187001  10.926   2.359   6.815 -0.3970 -1.6932 -2.0217
26587SOL    HW287002  10.787   2.297   6.820 -0.0340 -2.4153  0.4093
26588SOL     OW87003   5.568   9.472   4.581 -0.1388  0.1260 -0.4293
26588SOL    HW187004   5.552   9.486   4.674 -3.1396  0.7313 -0.9247
26588SOL    HW287005   5.612   9.553   4.552  1.7332 -0.4760  0.5650
26589SOL     OW87006  10.105   4.979   9.312  0.5846 -0.1528 -0.0510
26589SOL    HW187007  10.070   4.896   9.282 -0.8768  0.5895 -0.5078
26589SOL    HW287008  10.048   5.045   9.273  1.8797  1.0894  0.0567
26590SOL     OW87009   5.156   6.048   6.479  0.2038  0.6679 -0.0291
26590SOL    HW187010   5.142   5.958   6.508  1.9090  0.8776  1.6090
26590SOL    HW287011   5.237   6.075   6.522 -0.4504  3.1192 -0.1881
26591SOL     OW87012  11.289   7.676   0.269  0.2267 -0.0666 -0.3162
26591SOL    HW187013  11.283   7.618   0.194 -0.6026  0.1327 -0.4081
26591SOL    HW287014  11.303   7.763   0.232 -1.5515  0.2543 -0.3331
26592SOL     OW87015   0.219   1.782   8.949 -0.3029 -0.5299 -0.1549
26592SOL    HW187016   0.303   1.776   8.904  0.8186 -0.8101  1.8533
26592SOL    HW287017   0.158   1.733   8.894  1.3869 -2.3582 -0.5085
26593SOL     OW87018  11.119   2.370  10.549 -0.2886 -0.0151 -0.1742
26593SOL    HW187019  11.073   2.392  10.630 -1.3691  1.1227 -1.0703
26593SOL    HW287020  11.151   2.281  10.563 -0.1144  0.2940  1.6436
26594SOL     OW87021   1.282   6.561   1.217 -0.1551  0.0160 -0.0165
26594SOL    HW187022   1.323   6.497   1.160  0.1384  0.1898 -0.0026
26594SOL    HW287023   1.215   6.602   1.163 -1.4442 -1.4028  0.4374
26595SOL     OW87024   7.971   0.424   3.695 -0.2528  0.0690 -0.0986
26595SOL    HW187025   8.034   0.469   3.638  0.2464 -1.3882 -0.7424
26595SOL    HW287026   7.938   0.351   3.642  0.0340 -1.1936  1.3871
26596SOL     OW87027   3.351  10.103   7.300 -0.4203 -0.0678  0.1725
26596SOL    HW187028   3.442  10.090   7.328 -0.5881  0.2085  0.8575
26596SOL    HW287029   3.331  10.024   7.249  0.0699 -0.3179  0.3567
26597SOL     OW87030   4.287   3.324   1.824 -0.5671 -0.4148 -0.4739
26597SOL    HW187031   4.209   3.348   1.876 -1.7342 -2.4205 -1.1804
26597SOL    HW287032   4.313   3.240   1.860  0.2837 -0.5318 -1.3626
26598SOL     OW87033   1.226   4.326   2.539 -0.1755 -0.0725 -0.0073
26598SOL    HW187034   1.304   4.371   2.571 -1.8885  2.4737  0.8883
26598SOL    HW287035   1.223   4.245   2.590  1.3680  0.1905  0.5611
26599SOL     OW87036   1.971   6.254   6.248 -0.1884 -0.0984  0.4448
26599SOL    HW187037   2.057   6.295   6.241 -1.0251  1.5700 -0.8174
26599SOL    HW287038   1.925   6.279   6.168 -1.6474 -1.4947  0.7685
26600SOL     OW87039   9.833   2.413   6.946 -0.4926 -0.0131  0.0937
26600SOL    HW187040   9.909   2.403   6.889 -0.4040  0.8327  0.0397
26600SOL    HW287041   9.792   2.495   6.916 -0.2990  0.5772  1.4058
26601SOL     OW87042   7.217   1.228   2.742 -0.3783 -0.1166 -0.5672
26601SOL    HW187043   7.255   1.176   2.672 -0.3362 -1.5484  0.4750
26601SOL    HW287044   7.191   1.164   2.808 -0.8781  1.1500  0.5110
26602SOL     OW87045   1.134   4.834   1.125  0.2621 -0.1827 -0.0064
26602SOL    HW187046   1.072   4.898   1.160 -0.0296 -0.1162 -0.6306
26602SOL    HW287047   1.219   4.864   1.157  0.2179  0.9358 -0.8604
26603SOL     OW87048  11.586   7.741   5.825  0.0659 -0.0282  0.4854
26603SOL    HW187049  11.561   7.683   5.753 -0.1472  0.8446 -0.1575
26603SOL    HW287050  11.538   7.707   5.901 -0.2487 -0.5386  0.0614
26604SOL     OW87051   1.153   6.988   6.877 -0.6069 -0.6939 -0.0667
26604SOL    HW187052   1.168   6.904   6.921 -0.9923 -0.4789  0.4801
26604SOL    HW287053   1.098   6.966   6.802  1.5632 -1.3575 -1.5592
26605SOL     OW87054   1.841  10.622   6.091  0.3587 -0.0970  0.7869
26605SOL    HW187055   1.746  10.607   6.089  0.4458 -0.6145  0.2165
26605SOL    HW287056   1.861  10.664   6.008  0.9520 -2.1645 -0.1915
26606SOL     OW87057   9.657   3.352   3.328  0.1306 -0.2304 -0.7017
26606SOL    HW187058   9.745   3.391   3.325  0.5087 -1.1309 -2.1095
26606SOL    HW287059   9.614   3.384   3.249  0.1056 -1.8414 -1.3659
26607SOL     OW87060   7.829   4.444   5.951 -0.6324  0.1144 -0.2628
26607SOL    HW187061   7.803   4.511   6.014 -0.4649  2.0488 -2.1623
26607SOL    HW287062   7.925   4.449   5.949 -0.5668 -0.7640  0.1542
26608SOL     OW87063  12.641  10.336   9.119  0.7249  0.3643  0.2690
26608SOL    HW187064  12.640  10.241   9.116  2.0032  0.2710  1.7850
26608SOL    HW287065  12.671  10.358   9.207  1.5700  2.1538 -0.4072
26609SOL     OW87066   6.373  11.355   6.116  0.4081 -0.3154  0.3064
26609SOL    HW187067   6.405  11.293   6.181 -1.0233  0.3287  1.7020
26609SOL    HW287068   6.277  11.351   6.124  0.2207  0.3597 -1.2268
26610SOL     OW87069   4.313   7.981  12.389 -0.2995  0.1579  0.0781
26610SOL    HW187070   4.287   7.894  12.419  0.0881  0.2911  0.8303
26610SOL    HW287071   4.329   7.971  12.295 -0.3623 -0.5485  0.1398
26611SOL     OW87072  12.111   8.118   1.020  0.0925  0.3926 -0.4823
26611SOL    HW187073  12.160   8.174   0.960  1.2730  1.1833  1.1289
26611SOL    HW287074  12.029   8.099   0.975  1.0702  0.6595 -2.4555
26612SOL     OW87075   9.647   5.000   6.635  0.7329  0.5038  0.0524
26612SOL    HW187076   9.641   5.068   6.568 -0.9488  0.6741  0.3337
26612SOL    HW287077   9.733   5.014   6.676  0.2233  2.8260  0.4685
26613SOL     OW87078   1.584  12.372   5.206  0.0994  0.8699  0.2329
26613SOL    HW187079   1.536  12.370   5.289  0.1997  3.0315  0.4016
26613SOL    HW287080   1.613  12.463   5.198  1.1415  0.4140 -1.5896
26614SOL     OW87081   6.320   4.464   3.349  0.4093  0.1168  0.0259
26614SOL    HW187082   6.345   4.527   3.416  1.6771 -1.5095  1.1602
26614SOL    HW287083   6.349   4.379   3.383 -0.8297 -1.0483 -1.6325
26615SOL     OW87084   2.702   4.433   4.813 -0.0292  0.2417  0.3840
26615SOL    HW187085   2.615   4.413   4.847 -0.4490  1.4650  0.0931
26615SOL    HW287086   2.690   4.516   4.767  1.3602  0.5575  0.5758
26616SOL     OW87087   5.111   0.938   4.608 -0.0368 -0.2687  0.2170
26616SOL    HW187088   5.065   0.985   4.538 -1.1196 -2.7382 -0.8395
26616SOL    HW287089   5.047   0.934   4.680  0.9791  2.0281  1.3643
26617SOL     OW87090  11.867   1.325   9.119 -0.3787  0.3037  0.1104
26617SOL    HW187091  11.879   1.342   9.025 -0.4820 -0.9898 -0.1614
26617SOL    HW287092  11.828   1.405   9.153 -0.3300  0.8033 -0.9478
26618SOL     OW87093   5.340   4.217   4.116  0.2140 -0.7348 -0.0677
26618SOL    HW187094   5.249   4.231   4.089  0.2935 -0.2068 -0.0804
26618SOL    HW287095   5.349   4.270   4.195  0.8417  0.1618 -0.7310
26619SOL     OW87096  12.361   9.699  11.711  0.0193 -0.4172  0.2172
26619SOL    HW187097  12.387   9.760  11.780  0.8499  0.0485 -0.4807
26619SOL    HW287098  12.304   9.751  11.654  2.2947  0.3862 -1.4750
26620SOL     OW87099   5.862   8.901   1.557  0.2798  0.5434 -0.2974
26620SOL    HW187100   5.778   8.891   1.514 -0.2426 -2.2836  1.1733
26620SOL    HW287101   5.925   8.909   1.485 -0.8983 -0.8714 -1.5541
26621SOL     OW87102  12.550  10.985   2.022  0.1894 -0.1019  0.3469
26621SOL    HW187103  12.609  11.057   2.043  0.6239 -0.3994  0.1559
26621SOL    HW287104  12.477  11.026   1.975  0.8011  0.1107 -0.4348
26622SOL     OW87105   1.034   7.138   1.477  0.5473  0.2770 -0.0976
26622SOL    HW187106   1.034   7.054   1.430  1.4108  0.4167 -0.3721
26622SOL    HW287107   1.033   7.204   1.407 -3.5582  0.6273  0.0440
26623SOL     OW87108   3.641   4.781  10.258 -0.1638 -0.4263  0.0508
26623SOL    HW187109   3.603   4.846  10.317  0.8323 -0.2783  0.5514
26623SOL    HW287110   3.730   4.768  10.291  0.1980 -0.8220 -1.0427
26624SOL     OW87111   7.746  11.303   8.058  0.5651  0.2227  0.3380
26624SOL    HW187112   7.685  11.294   8.131 -0.4539  0.7549 -0.4235
26624SOL    HW287113   7.737  11.221   8.009  1.1129 -0.0587  0.7053
26625SOL     OW87114  11.743   5.512   8.608 -0.0310  0.1325  0.4975
26625SOL    HW187115  11.729   5.534   8.516  1.0254 -2.3794 -0.3666
26625SOL    HW287116  11.699   5.427   8.619  0.8603 -0.1725  1.9864
26626SOL     OW87117   1.779   1.676   5.885  0.6691 -0.3589  0.3627
26626SOL    HW187118   1.850   1.721   5.931 -1.1750  1.5702  1.5149
26626SOL    HW287119   1.762   1.598   5.938  0.0512  0.6870  1.7600
26627SOL     OW87120   7.442   7.243   1.564 -0.0885  0.2459 -0.2636
26627SOL    HW187121   7.377   7.214   1.500  0.6593 -0.9149 -0.5362
26627SOL    HW287122   7.431   7.338   1.568 -1.9508  0.0595 -0.1101
26628SOL     OW87123   6.622   7.901   5.413  0.4222 -0.1150 -0.1096
26628SOL    HW187124   6.534   7.897   5.374  0.3993  0.7146 -0.1529
26628SOL    HW287125   6.614   7.960   5.487  1.2759  1.2276 -1.0426
26629SOL     OW87126   9.984   9.785   7.063 -0.2075  0.3506 -0.3873
26629SOL    HW187127   9.989   9.719   7.132  0.7366  1.4685  0.6533
26629SOL    HW287128   9.901   9.829   7.077  0.5778  1.4879  0.9474
26630SOL     OW87129   1.502   6.887   9.851  0.0387  0.2611  0.5530
26630SOL    HW187130   1.432   6.840   9.804  0.1796 -1.4328  1.9542
26630SOL    HW287131   1.485   6.868   9.943  1.4456  1.1509  1.0131
26631SOL     OW87132  11.228   3.120  11.997  0.5808  0.3704  0.2259
26631SOL    HW187133  11.251   3.073  12.077  0.8666 -0.4371 -0.3269
26631SOL    HW287134  11.133   3.112  11.990  0.8717 -2.9867 -1.5738
26632SOL     OW87135  11.041  12.710   8.349 -0.4067 -0.2411 -0.8785
26632SOL    HW187136  10.958  12.731   8.391 -0.4608 -1.6423 -0.2147
26632SOL    HW287137  11.092  12.668   8.418 -0.3881 -2.3735 -2.1076
26633SOL     OW87138   7.515   4.861   5.095  0.1246 -0.1440 -0.1770
26633SOL    HW187139   7.510   4.788   5.033 -1.1121  0.6231 -1.0335
26633SOL    HW287140   7.562   4.929   5.047  1.5350 -0.4392  0.7220
26634SOL     OW87141   1.046   9.690   7.670 -0.4734  0.0017  0.7175
26634SOL    HW187142   1.115   9.636   7.632 -0.4983 -0.2100  0.9726
26634SOL    HW287143   1.069   9.780   7.645  0.3218  0.0178  1.4532
26635SOL     OW87144  10.090  10.138   1.768  0.6109 -0.1422  0.0460
26635SOL    HW187145  10.100  10.229   1.741  2.3807 -0.6787 -1.2686
26635SOL    HW287146  10.029  10.101   1.704 -0.6568  0.2544  0.9920
26636SOL     OW87147   7.227   8.500   2.965 -0.3673 -0.1449  0.4708
26636SOL    HW187148   7.296   8.469   2.907 -0.6454 -0.3794  0.2599
26636SOL    HW287149   7.210   8.590   2.936 -0.2452 -0.1339  0.4332
26637SOL     OW87150  11.368   8.366   2.453 -0.1759  0.0859  0.3067
26637SOL    HW187151  11.320   8.421   2.391 -0.4574  0.5464  0.9227
26637SOL    HW287152  11.427   8.427   2.498  0.5824 -0.3779 -0.0502
26638SOL     OW87153   5.539   5.152  11.571  0.0595 -0.3866  0.0493
26638SOL    HW187154   5.458   5.138  11.620  0.8821 -1.3201  1.2036
26638SOL    HW287155   5.529   5.238  11.531 -2.0109 -1.0043 -0.8761
26639SOL     OW87156  11.055   2.187   6.429  0.5361  1.2038 -0.1700
26639SOL    HW187157  11.122   2.120   6.421  0.1790  0.9770 -1.5587
26639SOL    HW287158  10.986   2.160   6.369 -1.6670  0.4905  2.4697
26640SOL     OW87159   6.133  10.333   9.710  0.1048  0.4310  0.6019
26640SOL    HW187160   6.050  10.285   9.715  0.1542  0.2255 -0.2826
26640SOL    HW287161   6.149  10.343   9.616 -0.5330  3.2885  0.6953
26641SOL     OW87162   5.421  12.305   8.011 -0.2443  0.2921 -0.2996
26641SOL    HW187163   5.449  12.263   7.930  1.1314  0.3189  0.1340
26641SOL    HW287164   5.472  12.262   8.079 -2.2884 -0.6363  0.7525
26642SOL     OW87165  11.827   8.572   3.065  0.0453  0.0942 -0.3401
26642SOL    HW187166  11.804   8.480   3.061 -0.1911  0.0762  0.9668
26642SOL    HW287167  11.785   8.604   3.146 -0.8602  1.6208 -1.3591
26643SOL     OW87168   5.048   1.874   4.091 -0.1178 -1.0636 -0.2758
26643SOL    HW187169   5.109   1.885   4.018 -0.0461 -1.0243 -0.2098
26643SOL    HW287170   4.996   1.797   4.067 -0.8431 -0.3952 -0.8850
26644SOL     OW87171   1.602   4.654   7.491  0.1583 -0.0967  0.5550
26644SOL    HW187172   1.636   4.738   7.462 -1.0043  0.1163 -0.2577
26644SOL    HW287173   1.621   4.594   7.418  0.1639 -0.3318  0.7468
26645SOL     OW87174   4.265   1.735   3.203 -0.5936  0.5538  0.0354
26645SOL    HW187175   4.225   1.814   3.240  2.6005  1.9156  0.9391
26645SOL    HW287176   4.328   1.767   3.139 -0.0442 -1.3216 -0.4422
26646SOL     OW87177   5.484   8.181   3.754 -0.1204  0.6510  0.0019
26646SOL    HW187178   5.429   8.116   3.710 -0.5706  0.1442  1.2772
26646SOL    HW287179   5.533   8.222   3.683 -0.6892 -0.2629 -0.9541
26647SOL     OW87180   0.235  10.150   9.147  0.1350 -0.2574  0.6008
26647SOL    HW187181   0.283  10.189   9.220 -0.2913 -0.4970  1.0171
26647SOL    HW287182   0.302  10.131   9.082  0.8455 -1.9494  1.7620
26648SOL     OW87183   3.737  12.290   3.785 -0.1638  0.2628 -0.0028
26648SOL    HW187184   3.669  12.325   3.727  0.6932  1.8557 -0.1001
26648SOL    HW287185   3.717  12.327   3.871 -0.5260 -0.8446  0.4089
26649SOL     OW87186   1.035   3.288  10.258 -0.4365  0.4531  0.0154
26649SOL    HW187187   1.092   3.364  10.249 -0.9507  0.8696  0.2672
26649SOL    HW287188   0.953   3.314  10.217 -1.0763  0.5293  1.2894
26650SOL     OW87189   7.487   9.854   1.805  0.2742 -0.4713  0.5444
26650SOL    HW187190   7.544   9.864   1.882 -0.9659  0.6418  1.3552
26650SOL    HW287191   7.436   9.775   1.824  1.3150 -1.3173 -0.0614
26651SOL     OW87192   3.031   7.335   7.400  0.5888 -0.0970  0.5504
26651SOL    HW187193   2.957   7.309   7.456  0.9181 -0.0790  0.9942
26651SOL    HW287194   3.100   7.272   7.421  1.4373  1.1812  1.7148
26652SOL     OW87195   4.372   7.434   2.911  0.2506  0.3263  0.3174
26652SOL    HW187196   4.312   7.462   2.842  0.9762 -1.6354 -1.2083
26652SOL    HW287197   4.430   7.509   2.923  0.8100  0.3791 -2.0743
26653SOL     OW87198   0.965   2.859   2.030 -0.6213 -0.6325  0.2975
26653SOL    HW187199   0.967   2.785   2.090 -0.2066 -0.2282  0.7980
26653SOL    HW287200   0.992   2.823   1.946 -0.3493 -1.0334  0.5546
26654SOL     OW87201   7.324  10.251   1.898 -0.2883  0.3084  0.5582
26654SOL    HW187202   7.291  10.300   1.823  0.7799 -1.2153 -1.0008
26654SOL    HW287203   7.411  10.288   1.914  0.6167 -1.1050 -0.7700
26655SOL     OW87204   2.664  11.287  11.873 -0.2716  0.0122 -0.1957
26655SOL    HW187205   2.643  11.198  11.844 -0.9468 -0.0473  0.4371
26655SOL    HW287206   2.602  11.304  11.945  1.2306  0.2033  1.1143
26656SOL     OW87207   5.631   7.026   2.842 -0.4670 -0.1177  0.0631
26656SOL    HW187208   5.582   7.040   2.923  0.0039  1.1967  0.1497
26656SOL    HW287209   5.696   7.096   2.841 -0.5282 -0.0433 -1.5071
26657SOL     OW87210  11.067   3.213  11.649  0.3114 -0.1040  0.3790
26657SOL    HW187211  11.125   3.138  11.637  0.0806 -0.3651  0.8443
26657SOL    HW287212  11.093   3.275  11.581  0.3382 -0.7046 -0.1674
26658SOL     OW87213   7.158   7.220  11.715  0.2613  0.4597  0.1643
26658SOL    HW187214   7.247   7.246  11.738  0.0704  0.0937  1.3763
26658SOL    HW287215   7.109   7.229  11.796 -0.5528 -0.4576 -0.2099
26659SOL     OW87216   1.141   3.904   4.017 -0.3782 -0.0166 -0.1175
26659SOL    HW187217   1.186   3.847   4.080  0.8239  0.3258 -0.6308
26659SOL    HW287218   1.196   3.901   3.939 -1.6174 -0.0907 -1.0128
26660SOL     OW87219   2.475   6.074   6.863  0.1149  0.0330 -0.2209
26660SOL    HW187220   2.407   6.066   6.795  0.2672 -0.5818 -0.3055
26660SOL    HW287221   2.444   6.145   6.919 -1.5359 -1.3783  0.7882
26661SOL     OW87222  10.364   5.567   4.762 -0.3111 -0.1604  0.1604
26661SOL    HW187223  10.426   5.507   4.721 -1.2057 -1.1741  0.2640
26661SOL    HW287224  10.294   5.577   4.697 -1.1083 -0.7683  0.9077
26662SOL     OW87225  12.050  10.372   3.161 -0.4414  0.0288 -0.6703
26662SOL    HW187226  12.138  10.411   3.152  0.3880 -1.3547  0.9908
26662SOL    HW287227  12.064  10.279   3.147 -1.7764 -0.1542 -0.9050
26663SOL     OW87228   2.459   4.365   7.471 -0.2959  0.1586  0.0986
26663SOL    HW187229   2.393   4.396   7.409 -1.3875 -1.6623  0.2714
26663SOL    HW287230   2.482   4.278   7.440 -0.9230 -0.8452  2.2325
26664SOL     OW87231   2.637   3.159   9.916  0.3198 -0.1889 -0.1586
26664SOL    HW187232   2.640   3.195  10.004  0.1490 -1.0946  0.2317
26664SOL    HW287233   2.696   3.214   9.865 -0.6567  1.2377  0.1707
26665SOL     OW87234   6.836   3.568   2.371 -0.0925  0.5703 -0.0283
26665SOL    HW187235   6.823   3.528   2.457  0.9399  1.8701  0.7592
26665SOL    HW287236   6.833   3.494   2.310  1.1270 -0.6477  1.3062
26666SOL     OW87237  12.682   0.869   9.410  0.5470 -0.8613 -0.7830
26666SOL    HW187238  12.706   0.863   9.503  0.1791  1.3802 -0.4863
26666SOL    HW287239  12.719   0.790   9.371 -0.1669 -2.4110  1.4363
26667SOL     OW87240  11.843   6.018  11.037  0.3763  0.0347  0.1013
26667SOL    HW187241  11.866   6.015  11.130 -4.5881 -1.0145  1.5692
26667SOL    HW287242  11.849   5.927  11.008  2.0693  0.3826 -0.7450
26668SOL     OW87243   1.550  11.705   4.267  0.3979 -0.4696  0.2808
26668SOL    HW187244   1.613  11.756   4.319  1.5269 -1.8744  0.3566
26668SOL    HW287245   1.471  11.759   4.266  1.2148  0.8182  1.1823
26669SOL     OW87246   1.945   1.701   9.986  0.6573  0.5634  0.3871
26669SOL    HW187247   1.884   1.626   9.982 -0.4941  1.5310 -2.5036
26669SOL    HW287248   1.927   1.740  10.072 -1.4610 -0.3050  0.4190
26670SOL     OW87249   9.544   6.836   9.732 -0.4285 -0.5091  0.0083
26670SOL    HW187250   9.543   6.931   9.724 -0.3764 -0.5454 -0.4360
26670SOL    HW287251   9.472   6.817   9.792 -0.3987 -0.1849  0.1492
26671SOL     OW87252   1.728   9.746   5.299 -0.3647  0.2972  0.5571
26671SOL    HW187253   1.715   9.828   5.251  1.4917 -0.0445 -0.6610
26671SOL    HW287254   1.738   9.773   5.390 -0.2473  1.3785  0.2393
26672SOL     OW87255   1.449  11.610   8.873  0.4701 -0.4571 -0.3340
26672SOL    HW187256   1.391  11.536   8.862  0.9568 -0.6576 -1.7847
26672SOL    HW287257   1.533  11.571   8.898  0.6131 -0.3734 -0.6748
26673SOL     OW87258   7.347   0.905   8.014  0.6599 -0.4336 -0.6696
26673SOL    HW187259   7.372   0.997   8.029  0.5833 -0.3534 -1.0170
26673SOL    HW287260   7.425   0.855   8.037  0.3512 -0.3703  0.5933
26674SOL     OW87261  11.282   7.519   6.871  0.0407 -0.5268 -0.2247
26674SOL    HW187262  11.375   7.534   6.885 -0.0605  0.6910 -0.7489
26674SOL    HW287263  11.269   7.533   6.777 -1.1000  2.0773  0.2209
26675SOL     OW87264   8.981   1.421   6.727  0.0973 -0.4649  0.2792
26675SOL    HW187265   8.971   1.462   6.813  0.5986  1.3850 -0.4827
26675SOL    HW287266   8.958   1.330   6.741  1.2764 -0.4938  2.6404
26676SOL     OW87267   8.237  12.359   6.454  0.2367  0.3322  0.1385
26676SOL    HW187268   8.256  12.310   6.375  0.2310  0.4940  0.0359
26676SOL    HW287269   8.201  12.442   6.423 -1.1529 -0.1698  0.3269
26677SOL     OW87270  11.789   7.156   8.698  0.1816 -0.0426  0.0132
26677SOL    HW187271  11.771   7.068   8.732  2.0005 -0.7937 -0.8001
26677SOL    HW287272  11.707   7.204   8.709 -1.1363 -2.1164 -0.3716
26678SOL     OW87273   9.546   5.632   2.025  0.0231  0.5492  0.4030
26678SOL    HW187274   9.607   5.626   1.952 -0.3190 -1.0127  0.2058
26678SOL    HW287275   9.560   5.719   2.062  0.4148  1.2431 -1.3260
26679SOL     OW87276  12.374   9.397   4.605  0.1236 -0.0504 -0.1812
26679SOL    HW187277  12.466   9.376   4.624 -0.3346 -2.4061 -0.1840
26679SOL    HW287278  12.336   9.313   4.580 -2.3646  0.5993  1.1457
26680SOL     OW87279  11.658  11.078  10.769  0.4131  0.2439 -0.2841
26680SOL    HW187280  11.705  11.042  10.845 -0.5135  1.5882  0.9992
26680SOL    HW287281  11.707  11.157  10.746  0.4972  0.0207 -0.8767
26681SOL     OW87282   6.800  12.210  10.025 -0.1212  0.6244  0.2382
26681SOL    HW187283   6.886  12.243  10.051  0.1678 -0.7477  1.1142
26681SOL    HW287284   6.739  12.247  10.089  0.0583  0.2863  0.6091
26682SOL     OW87285  11.563   6.698   4.325 -0.3661  0.5959  0.1386
26682SOL    HW187286  11.519   6.616   4.346 -1.0097  0.4991 -1.4678
26682SOL    HW287287  11.641   6.699   4.381  0.7082 -2.0466 -1.1754
26683SOL     OW87288  10.903  10.950   8.002 -0.1974  0.4347  0.1957
26683SOL    HW187289  10.886  10.959   7.908  1.2646 -0.7346 -0.1952
26683SOL    HW287290  10.998  10.949   8.010 -0.2956 -0.4834  1.5916
26684SOL     OW87291   8.243   2.161   5.685  0.1750 -0.1645  0.2046
26684SOL    HW187292   8.243   2.156   5.781  0.8378 -0.0677  0.2142
26684SOL    HW287293   8.323   2.117   5.659  1.1163  1.6994 -0.1997
26685SOL     OW87294  11.713   0.244   4.764  1.0395  0.4591  0.7289
26685SOL    HW187295  11.766   0.315   4.727  1.6448  0.8789  2.3144
26685SOL    HW287296  11.625   0.260   4.728  1.8661 -0.1068 -1.7326
26686SOL     OW87297   2.236  12.679   4.488 -0.5233  0.2773  0.5383
26686SOL    HW187298   2.156  12.701   4.439 -2.2558 -0.1444  2.9823
26686SOL    HW287299   2.219  12.711   4.576  1.7254 -0.5434  1.3203
26687SOL     OW87300   8.939   5.983  10.833 -0.0722 -0.3190 -0.0928
26687SOL    HW187301   9.029   5.954  10.825  0.5139  1.4264 -0.2362
26687SOL    HW287302   8.908   5.990  10.743 -0.5558 -1.4702 -0.0277
26688SOL     OW87303   1.360  11.886   5.442  0.0389  0.1424 -0.0881
26688SOL    HW187304   1.390  11.894   5.533  0.7538 -0.6836 -0.2404
26688SOL    HW287305   1.374  11.973   5.405  1.2029  0.0885  0.1730
26689SOL     OW87306  12.174   3.386   8.701  0.2490 -0.0114  0.1483
26689SOL    HW187307  12.215   3.326   8.763  0.2599 -0.9968 -0.7890
26689SOL    HW287308  12.241   3.453   8.685  0.4815 -0.1053  0.7026
26690SOL     OW87309  10.671   9.031   6.502 -0.1944 -0.2966  0.1378
26690SOL    HW187310  10.615   9.051   6.427 -1.2310 -1.3449  0.6094
26690SOL    HW287311  10.732   9.104   6.506 -0.4183  0.0157 -1.4425
26691SOL     OW87312   7.725  11.553   0.981 -0.2645 -0.1515  0.1032
26691SOL    HW187313   7.698  11.634   0.937  0.9066  0.3328  0.2429
26691SOL    HW287314   7.707  11.484   0.917 -2.1109  0.0860  0.3136
26692SOL     OW87315   9.520   8.864   7.672  0.4773  0.2679  0.3611
26692SOL    HW187316   9.536   8.799   7.603 -1.5918 -2.1190  1.9491
26692SOL    HW287317   9.426   8.883   7.665  0.7724  2.0599  0.8441
26693SOL     OW87318   2.183   8.086   0.597 -0.6226 -0.4513  0.0079
26693SOL    HW187319   2.245   8.127   0.536  0.1006 -1.2883  0.1733
26693SOL    HW287320   2.128   8.031   0.541 -0.5330 -0.5294 -0.0036
26694SOL     OW87321   0.483   8.181   5.779  0.2546 -0.0997 -0.4982
26694SOL    HW187322   0.565   8.132   5.784  1.7890  2.3786  0.3663
26694SOL    HW287323   0.507   8.265   5.739 -1.7417  0.9073  0.2663
26695SOL     OW87324   2.950   0.162  10.949  0.1519 -0.3947 -0.0511
26695SOL    HW187325   2.927   0.077  10.986  1.7776 -0.7347  0.2519
26695SOL    HW287326   2.893   0.224  10.995  0.2713 -1.1124  1.1097
26696SOL     OW87327   7.777   8.244  11.555 -0.3830  0.3705  0.2881
26696SOL    HW187328   7.871   8.263  11.555 -0.1822 -0.4749 -1.3476
26696SOL    HW287329   7.754   8.236  11.648  1.7795 -2.3031  0.7265
26697SOL     OW87330   1.146  10.802   3.781  0.5440  0.0149  0.1372
26697SOL    HW187331   1.227  10.851   3.766  0.8243 -0.1137  1.1461
26697SOL    HW287332   1.176  10.718   3.817 -0.0030 -0.3310 -0.2077
26698SOL     OW87333   3.297   2.991   2.544  0.2263  0.0735 -0.5175
26698SOL    HW187334   3.270   3.077   2.514 -1.1162 -0.5888 -1.3058
26698SOL    HW287335   3.347   3.007   2.624  1.0180  1.6493 -1.2920
26699SOL     OW87336  11.118   3.267   6.473 -0.2817  0.3131 -0.0235
26699SOL    HW187337  11.184   3.266   6.542  0.6605  1.5967 -0.8548
26699SOL    HW287338  11.056   3.199   6.498  1.3128 -0.8890  0.8329
26700SOL     OW87339  10.924   1.229   3.098 -0.5078  0.0560  0.0644
26700SOL    HW187340  10.845   1.282   3.102 -0.9741 -0.6515  0.4828
26700SOL    HW287341  10.903   1.159   3.035  0.1764  0.4727 -0.6573
26701SOL     OW87342  10.871   0.259  10.765  0.5076  0.7280 -0.7571
26701SOL    HW187343  10.848   0.167  10.751 -0.1490  0.8257 -0.3737
26701SOL    HW287344  10.860   0.300  10.679 -0.6419  0.7371 -0.6297
26702SOL     OW87345   3.651  11.371  12.138  0.1126  0.6288  0.6564
26702SOL    HW187346   3.645  11.278  12.115 -1.9028  0.8297  0.2413
26702SOL    HW287347   3.709  11.408  12.070 -1.3768  0.1798 -0.9390
26703SOL     OW87348   4.695   5.044   1.061  0.1094  0.0980 -0.6105
26703SOL    HW187349   4.628   5.066   1.126 -0.1155 -1.5698 -0.2301
26703SOL    HW287350   4.649   4.988   0.997  0.5880  0.8413 -1.6345
26704SOL     OW87351   3.728   2.720  11.842 -0.0219 -0.1837  0.2012
26704SOL    HW187352   3.698   2.635  11.809  1.9956 -0.2421 -1.6904
26704SOL    HW287353   3.737   2.707  11.936 -1.8517 -1.3574  0.2697
26705SOL     OW87354   1.722   6.645  10.135 -0.3657  0.3142  0.3385
26705SOL    HW187355   1.735   6.681  10.048  2.9350  0.3191  0.7132
26705SOL    HW287356   1.726   6.550  10.123 -1.7594  0.2361  0.3024
26706SOL     OW87357   9.121  10.220   3.794  0.8839  0.8568  0.1430
26706SOL    HW187358   9.184  10.285   3.824 -0.2580  1.5656  1.0959
26706SOL    HW287359   9.117  10.155   3.864 -0.6048  1.6746  0.8678
26707SOL     OW87360  11.661   1.413   7.539 -0.7552 -0.1669 -0.3089
26707SOL    HW187361  11.683   1.321   7.526  1.3901  0.0581  1.2286
26707SOL    HW287362  11.686   1.456   7.457 -0.0366 -0.6893 -0.3694
26708SOL     OW87363  11.971   6.685   3.640 -0.0258  0.5438 -0.5484
26708SOL    HW187364  11.977   6.606   3.693 -0.1269  0.9097  0.0160
26708SOL    HW287365  11.892   6.671   3.587 -1.4209  1.2389  1.2202
26709SOL     OW87366   2.059  10.217   8.462 -0.0333  0.6232  0.4812
26709SOL    HW187367   2.081  10.165   8.539  1.6902  1.1337  0.3741
26709SOL    HW287368   1.988  10.275   8.491 -0.2851 -0.0792  1.2988
26710SOL     OW87369   9.314   6.138   1.071  0.4890  0.8010 -0.0298
26710SOL    HW187370   9.219   6.130   1.078  0.7760 -2.3139  2.6292
26710SOL    HW287371   9.328   6.189   0.991 -3.3705  1.3542 -0.5342
26711SOL     OW87372   9.419   1.646   9.370 -0.7229  0.7835 -0.2960
26711SOL    HW187373   9.448   1.736   9.357 -0.3535  0.5723 -0.9905
26711SOL    HW287374   9.350   1.634   9.305 -2.0407  1.1160  0.9901
26712SOL     OW87375  11.539   0.077   4.182 -0.3981 -1.0472 -0.9065
26712SOL    HW187376  11.624   0.055   4.144 -0.2919 -1.4645 -0.4329
26712SOL    HW287377  11.550   0.065   4.276  0.1538  2.6445 -0.3576
26713SOL     OW87378   8.119   1.496   7.124 -0.9532 -0.0666 -0.1877
26713SOL    HW187379   8.159   1.471   7.041 -0.0058  0.9890 -0.0772
26713SOL    HW287380   8.148   1.429   7.186 -1.3519 -0.6442 -0.6157
26714SOL     OW87381   1.671  10.972   9.182 -0.0759 -0.3434 -0.1756
26714SOL    HW187382   1.628  11.051   9.147 -1.5662 -1.1788 -0.2774
26714SOL    HW287383   1.702  10.998   9.269 -0.9230  0.2307 -0.0412
26715SOL     OW87384   1.468   3.748   8.499  0.1123  0.4628 -0.2947
26715SOL    HW187385   1.500   3.696   8.572  1.3970 -0.4977 -1.4922
26715SOL    HW287386   1.445   3.832   8.538  2.3244  0.5481  0.9961
26716SOL     OW87387   3.684   2.506  11.671  0.2400  0.3014  0.0934
26716SOL    HW187388   3.740   2.429  11.668  1.6155  1.2148  0.7996
26716SOL    HW287389   3.611   2.486  11.613  1.8543 -0.5219 -1.7804
26717SOL     OW87390   9.224   8.614   5.577  0.5821  0.2856  0.0874
26717SOL    HW187391   9.275   8.694   5.584  1.0463 -0.1211  2.0234
26717SOL    HW287392   9.276   8.548   5.623 -0.8353 -0.5859  0.5081
26718SOL     OW87393   3.663   3.638   3.978  0.4047 -0.2407 -0.6580
26718SOL    HW187394   3.751   3.619   3.944  0.7125  0.6237 -0.3623
26718SOL    HW287395   3.667   3.730   4.004 -0.3402 -0.4252  0.1294
26719SOL     OW87396   9.491   5.276   3.837 -0.2356 -0.2462  0.1639
26719SOL    HW187397   9.568   5.333   3.842 -0.1274 -0.3368 -0.3693
26719SOL    HW287398   9.446   5.304   3.757 -2.1872  1.5757  1.7882
26720SOL     OW87399  10.081   0.124  12.179  0.3658 -0.5172 -0.1142
26720SOL    HW187400   9.996   0.095  12.146 -1.2729  1.0450  2.3657
26720SOL    HW287401  10.081   0.219  12.166  1.2538 -0.3628  0.8749
26721SOL     OW87402  11.172   9.198  12.469 -0.3202  0.4512 -0.2942
26721SOL    HW187403  11.242   9.242  12.517 -1.7848  3.0002 -0.3628
26721SOL    HW287404  11.118   9.269  12.434 -2.8425 -1.4115 -0.4232
26722SOL     OW87405   6.920  10.687  12.490  0.2080  0.3840  0.9759
26722SOL    HW187406   6.860  10.619  12.523  0.5054  0.1829  1.1122
26722SOL    HW287407   7.003  10.669  12.535  0.3663  0.6693  0.8006
26723SOL     OW87408  10.851   0.750   1.833  0.3924  0.3394  0.4208
26723SOL    HW187409  10.803   0.828   1.861  1.4530  1.4699 -0.7446
26723SOL    HW287410  10.933   0.785   1.797  0.2303 -1.1973 -1.5839
26724SOL     OW87411  11.217   6.661   4.074  0.1984  0.3486  0.7566
26724SOL    HW187412  11.126   6.650   4.103  0.1959  0.8352  0.9506
26724SOL    HW287413  11.210   6.681   3.981  0.1538 -0.3682  0.6003
26725SOL     OW87414  11.595   8.550   2.514  0.2244 -0.1147  0.4851
26725SOL    HW187415  11.641   8.500   2.447  0.3441  0.0989  0.4052
26725SOL    HW287416  11.526   8.597   2.466  0.3892  0.1357  0.4888
26726SOL     OW87417   3.696  11.628   3.379 -0.4424 -0.3582 -0.0381
26726SOL    HW187418   3.674  11.707   3.428 -0.6450  0.0065 -0.7039
26726SOL    HW287419   3.647  11.636   3.297 -0.7402 -1.3397  0.0229
26727SOL     OW87420   6.817  12.074   6.116  0.6541 -0.3515  0.1178
26727SOL    HW187421   6.822  12.015   6.041 -0.5200 -2.7427  1.7643
26727SOL    HW287422   6.904  12.070   6.156  1.2794  0.9267 -1.0572
26728SOL     OW87423   3.857   1.835  10.464  0.4391 -0.2689  0.3848
26728SOL    HW187424   3.829   1.814  10.554  2.5533 -0.7311  0.9752
26728SOL    HW287425   3.873   1.749  10.424 -0.1812 -0.0489 -0.3624
26729SOL     OW87426  12.678   0.181   3.726  0.0781  0.2607  0.2879
26729SOL    HW187427  12.603   0.178   3.666  0.9697  0.4693 -0.8873
26729SOL    HW287428  12.699   0.090   3.742 -0.3451  0.2008  0.5297
26730SOL     OW87429   1.288   3.955   9.165 -0.5099 -0.3621  0.3294
26730SOL    HW187430   1.221   3.951   9.234  0.5988  0.3326  1.4992
26730SOL    HW287431   1.240   3.985   9.088 -1.8143 -1.2659  0.7412
26731SOL     OW87432   4.593   3.778   6.781 -0.0367  0.1712 -0.2891
26731SOL    HW187433   4.618   3.865   6.749 -0.3122  0.3961  0.1009
26731SOL    HW287434   4.650   3.718   6.733  2.5939  0.7476  1.8817
26732SOL     OW87435   4.604   8.040   4.681  0.2524  0.3741 -0.3048
26732SOL    HW187436   4.556   8.123   4.677 -0.9030 -0.2219  0.4609
26732SOL    HW287437   4.535   7.973   4.679  0.8883 -0.4883  2.2114
26733SOL     OW87438   3.302   9.758   1.906 -0.0913 -0.1813  0.3216
26733SOL    HW187439   3.252   9.688   1.948  0.3191 -1.3228 -0.9928
26733SOL    HW287440   3.236   9.824   1.884 -0.3775  0.2217  2.2300
26734SOL     OW87441   5.366   1.633  11.030 -0.4703 -0.1973 -0.1551
26734SOL    HW187442   5.287   1.593  11.066  0.2363 -1.0292  0.5269
26734SOL    HW287443   5.402   1.566  10.971  1.3020 -1.0806  1.8111
26735SOL     OW87444   0.967  10.331  10.498  0.1859  1.0965  0.1330
26735SOL    HW187445   0.920  10.251  10.522  1.2355  0.6367  0.6912
26735SOL    HW287446   0.967  10.331  10.403  0.4147  0.2854  0.1235
26736SOL     OW87447   0.043   2.964   0.004 -0.6323  0.2841  0.3661
26736SOL    HW187448   0.022   2.871   0.004 -0.3496  0.2035  1.3590
26736SOL    HW287449  -0.008   3.000   0.077  2.5897  0.0731  2.9403
26737SOL     OW87450   2.962   5.854   0.412 -0.0080 -0.2303 -0.5043
26737SOL    HW187451   2.941   5.906   0.334 -0.8053  0.5851  0.2462
26737SOL    HW287452   3.057   5.867   0.423  0.1433 -0.4626 -1.4014
26738SOL     OW87453   3.308  10.533  10.659  0.1743 -0.0201 -0.0483
26738SOL    HW187454   3.226  10.548  10.707 -0.3086 -0.8736 -0.5901
26738SOL    HW287455   3.376  10.556  10.722 -0.4652 -0.1121  0.7025
26739SOL     OW87456   7.569   9.254   6.764  0.1266 -0.2437  0.3994
26739SOL    HW187457   7.566   9.341   6.723  3.4152  0.0634  0.6003
26739SOL    HW287458   7.625   9.265   6.840  1.2392 -2.6888  0.0313
26740SOL     OW87459  10.946   2.494   2.147  0.1535  0.0447 -0.5028
26740SOL    HW187460  10.982   2.529   2.229 -0.6209  0.8174 -0.4728
26740SOL    HW287461  10.874   2.438   2.175 -0.7003  1.0224 -0.6611
26741SOL     OW87462   9.250   5.905   7.350  0.3019  0.1808 -0.1270
26741SOL    HW187463   9.241   5.912   7.446  0.3182 -1.9114  0.0761
26741SOL    HW287464   9.321   5.964   7.328 -0.4170  1.5423  0.9909
26742SOL     OW87465   4.791   9.717   9.255 -0.3907 -0.0380  0.5611
26742SOL    HW187466   4.713   9.756   9.294 -0.5925  0.0553  0.0732
26742SOL    HW287467   4.836   9.675   9.328 -1.4790 -1.0730  0.6617
26743SOL     OW87468   4.208   4.962   9.097  0.0146  0.0193  0.0477
26743SOL    HW187469   4.152   4.884   9.107  0.0863 -0.0307  0.0577
26743SOL    HW287470   4.289   4.928   9.058 -0.4830  0.2891 -1.2968
26744SOL     OW87471   3.170   2.519   2.012 -0.0545 -0.0738  0.2224
26744SOL    HW187472   3.257   2.548   2.041  0.0840  0.1047 -0.3611
26744SOL    HW287473   3.130   2.482   2.091  1.3327 -2.1049  0.0676
26745SOL     OW87474   4.099  10.213   7.339  0.5972 -0.6545  0.0049
26745SOL    HW187475   4.044  10.286   7.366  0.4573 -0.8412  0.2344
26745SOL    HW287476   4.119  10.166   7.421  1.2240 -0.5023 -0.0539
26746SOL     OW87477   1.762   7.152   6.996 -0.1026 -0.2758 -0.2808
26746SOL    HW187478   1.667   7.148   6.997 -0.1869 -0.1107 -2.4348
26746SOL    HW287479   1.790   7.063   6.974  0.1465  0.0178 -1.2030
26747SOL     OW87480   2.911   4.116   9.406 -0.3887  0.0323 -0.0244
26747SOL    HW187481   2.875   4.204   9.402 -0.2296  0.0815 -0.4783
26747SOL    HW287482   3.004   4.128   9.421 -0.4818 -0.0823  0.6732
26748SOL     OW87483  11.820   0.091  10.220  0.0703  0.1958 -0.3148
26748SOL    HW187484  11.758   0.019  10.209  0.5796 -0.5819  1.5106
26748SOL    HW287485  11.891   0.072  10.158 -0.4582 -0.1131 -0.8282
26749SOL     OW87486   0.666   2.678   6.634 -0.1983  0.2486 -0.1355
26749SOL    HW187487   0.639   2.595   6.675 -0.3103 -0.2792 -1.2417
26749SOL    HW287488   0.713   2.724   6.704 -0.9762 -0.3181  0.7855
26750SOL     OW87489   9.195   8.813   0.608  0.3386  0.6412 -0.7512
26750SOL    HW187490   9.261   8.744   0.600  0.2194  0.1338  1.8476
26750SOL    HW287491   9.244   8.892   0.629  0.2400  0.5253 -0.0466
26751SOL     OW87492   5.800   5.971   6.141 -0.2444 -0.1837 -0.4840
26751SOL    HW187493   5.873   5.973   6.204 -0.9847 -0.7042  0.4292
26751SOL    HW287494   5.766   6.060   6.140 -2.2965 -0.7586  2.4511
26752SOL     OW87495   1.653   7.901   4.264  0.6050  0.0334 -0.2064
26752SOL    HW187496   1.681   7.858   4.183 -0.1063  1.7883 -1.4553
26752SOL    HW287497   1.734   7.930   4.305  0.9414 -0.3136 -0.6096
26753SOL     OW87498  11.349   7.264   0.735 -0.3416 -0.7447  0.2629
26753SOL    HW187499  11.395   7.252   0.818  1.2965  1.4902 -0.2515
26753SOL    HW287500  11.389   7.201   0.676  0.6738 -0.2134  0.3686
26754SOL     OW87501   6.438   6.014   0.787 -1.2825  0.2072 -0.2797
26754SOL    HW187502   6.380   5.946   0.751 -1.1294 -0.5811  0.9187
26754SOL    HW287503   6.515   6.012   0.730 -1.1322 -0.8723 -0.0612
26755SOL     OW87504   1.236  11.165   9.288 -0.0158 -0.1363  0.5766
26755SOL    HW187505   1.167  11.169   9.222  1.2009  0.2201 -0.7187
26755SOL    HW287506   1.285  11.246   9.277  2.2500 -1.5295 -0.4269
26756SOL     OW87507   4.537  10.032   3.120  0.5217 -0.1522 -0.0996
26756SOL    HW187508   4.449  10.066   3.135 -0.0586 -1.8144  0.4009
26756SOL    HW287509   4.548  10.033   3.025 -0.2187 -0.3868 -0.1910
26757SOL     OW87510   3.377   6.239   2.867 -0.4037 -0.8468 -0.0592
26757SOL    HW187511   3.374   6.244   2.771 -0.1804 -0.3637 -0.0399
26757SOL    HW287512   3.465   6.207   2.887 -0.9453 -2.4596 -0.0693
26758SOL     OW87513  10.106   5.002   2.794  0.4899 -0.1189  0.4079
26758SOL    HW187514  10.189   4.998   2.842  0.5056  0.4023  0.4338
26758SOL    HW287515  10.039   4.991   2.862  0.5425 -0.9397  0.3324
26759SOL     OW87516  10.854   3.820   5.080  0.5056 -0.2177 -0.3210
26759SOL    HW187517  10.899   3.830   4.996 -0.4588  1.0609 -0.7279
26759SOL    HW287518  10.923   3.803   5.143  1.1644 -2.3806 -1.5241
26760SOL     OW87519   3.931   4.898  10.416 -0.3736 -0.1542 -0.4184
26760SOL    HW187520   4.007   4.864  10.369 -1.1178  0.9688 -2.6143
26760SOL    HW287521   3.893   4.822  10.459  0.7142 -1.1639 -1.1589
26761SOL     OW87522   0.239   1.217   9.957  0.6589 -0.1243  0.4471
26761SOL    HW187523   0.261   1.238  10.048  0.8634  0.4079  0.2786
26761SOL    HW287524   0.321   1.186   9.919  1.1931  1.9749 -0.2119
26762SOL     OW87525   6.713   3.278   3.993 -0.1866 -0.4449 -0.0193
26762SOL    HW187526   6.709   3.187   4.023 -0.5439 -0.5668 -0.4245
26762SOL    HW287527   6.644   3.284   3.927  1.2525 -0.4775 -1.5966
26763SOL     OW87528   0.239   9.902   6.929 -0.5392  0.0451 -0.4231
26763SOL    HW187529   0.273   9.945   7.008 -1.5076 -0.2836  0.2051
26763SOL    HW287530   0.196   9.972   6.880  1.1434  0.4954 -1.3106
26764SOL     OW87531   5.504   7.607   1.851 -0.0743  0.3279  0.1085
26764SOL    HW187532   5.488   7.513   1.841 -0.8292  0.3726  0.7719
26764SOL    HW287533   5.599   7.615   1.857  0.0897 -0.2316 -1.4176
26765SOL     OW87534  10.755   0.070  10.460  0.0692  0.0487  0.2863
26765SOL    HW187535  10.728   0.158  10.485  2.5025  0.5615  1.4881
26765SOL    HW287536  10.786   0.031  10.542  0.4449 -1.3663 -0.5012
26766SOL     OW87537  10.293   0.731   2.911 -0.5308  0.2442 -0.7587
26766SOL    HW187538  10.386   0.710   2.908 -0.3984  0.9466 -2.6973
26766SOL    HW287539  10.254   0.680   2.841 -1.3891  0.9113 -0.7853
26767SOL     OW87540  11.438   5.632   7.581  0.3692  0.3050  0.1858
26767SOL    HW187541  11.447   5.545   7.621 -0.3787 -0.2645 -0.8231
26767SOL    HW287542  11.526   5.668   7.583  0.7426 -0.5817  0.4020
26768SOL     OW87543   6.628   2.799   6.026 -0.3359 -0.3269  0.1781
26768SOL    HW187544   6.641   2.812   5.932  0.6845  0.6203  0.4240
26768SOL    HW287545   6.680   2.722   6.048 -1.8612 -1.5515 -0.2846
26769SOL     OW87546   9.877   3.486   2.483 -0.1491  0.5218 -0.1293
26769SOL    HW187547   9.967   3.455   2.487 -0.5082 -0.4650  1.1318
26769SOL    HW287548   9.869   3.547   2.557 -1.0169 -0.9510  1.0677
26770SOL     OW87549   9.549   0.073   7.233  0.2719 -0.0865  0.0329
26770SOL    HW187550   9.582  -0.004   7.187 -1.3974  0.0029 -1.4173
26770SOL    HW287551   9.600   0.146   7.198  0.4569 -0.2827 -0.1057
26771SOL     OW87552   4.374  10.433   1.981  0.3005 -0.9221  0.0272
26771SOL    HW187553   4.405  10.478   1.902 -0.6212  1.8182  1.1214
26771SOL    HW287554   4.454  10.402   2.023  0.9204 -0.9720 -1.1420
26772SOL     OW87555  11.787   8.472  12.477 -0.0846  0.1063  0.0832
26772SOL    HW187556  11.813   8.462  12.385 -0.6897  0.6306 -0.1577
26772SOL    HW287557  11.836   8.549  12.507 -0.1924  0.1765  0.0792
26773SOL     OW87558   6.051   9.743   2.276  0.2545  0.2100  0.1081
26773SOL    HW187559   6.111   9.669   2.266  0.6958  0.3504  1.5049
26773SOL    HW287560   6.080   9.807   2.212  1.8372  0.4096  0.9659
26774SOL     OW87561  11.187   9.581   1.386  0.1018 -0.5005 -0.1405
26774SOL    HW187562  11.120   9.514   1.402 -0.0748 -0.0344  1.1760
26774SOL    HW287563  11.269   9.532   1.383  0.0003 -0.7837  1.0590
26775SOL     OW87564   0.324   8.583   7.753  0.2526 -0.2954  0.0610
26775SOL    HW187565   0.384   8.554   7.684  0.7865  0.1268  0.3414
26775SOL    HW287566   0.238   8.553   7.723  0.5170 -0.3897 -0.6397
26776SOL     OW87567   3.715   4.203   8.408  0.3987 -0.1811  0.2734
26776SOL    HW187568   3.766   4.132   8.449 -1.5877 -1.5750  0.4557
26776SOL    HW287569   3.673   4.162   8.333 -0.2767  0.9842  0.0022
26777SOL     OW87570   5.048   1.443  12.237 -0.2803 -0.2923 -0.7087
26777SOL    HW187571   5.130   1.403  12.265 -0.4237 -0.4004 -0.4400
26777SOL    HW287572   5.054   1.534  12.265 -0.9625 -0.6964  0.8580
26778SOL     OW87573   1.438   6.172   9.163 -0.2814  0.2531  0.1138
26778SOL    HW187574   1.422   6.163   9.257  0.6250  0.3514  0.2807
26778SOL    HW287575   1.488   6.253   9.155  1.0455 -0.5787 -0.2829
26779SOL     OW87576   9.442   8.843   8.486 -0.2760  0.1915  0.3611
26779SOL    HW187577   9.459   8.934   8.462  1.6449 -0.8068 -2.6132
26779SOL    HW287578   9.391   8.808   8.413 -0.0435 -1.3750  0.9123
26780SOL     OW87579   9.746   0.313   6.401  0.0209 -0.0819  0.2052
26780SOL    HW187580   9.653   0.289   6.402 -0.3440  1.2206 -0.6274
26780SOL    HW287581   9.786   0.253   6.464 -1.0526 -1.9152 -0.7607
26781SOL     OW87582   6.759   9.363   6.465 -0.1339 -0.1443 -0.6111
26781SOL    HW187583   6.770   9.270   6.486 -1.0746 -0.3169 -0.7935
26781SOL    HW287584   6.826   9.408   6.516 -0.1207 -0.8663  0.0330
26782SOL     OW87585  11.049   3.281  12.659 -0.4184 -0.7362 -0.2338
26782SOL    HW187586  11.112   3.216  12.692  0.7682 -0.0690 -1.1113
26782SOL    HW287587  11.032   3.254  12.569  0.3086  0.2885 -0.7056
26783SOL     OW87588   9.848   6.025  11.118 -0.2525 -0.4448 -0.6497
26783SOL    HW187589   9.841   5.930  11.131  0.5483 -0.0662  4.1839
26783SOL    HW287590   9.810   6.063  11.197  2.2647  3.1309 -0.9517
26784SOL     OW87591  11.262   8.480   9.500  0.3019 -0.0436  0.1429
26784SOL    HW187592  11.216   8.554   9.539  0.5629  0.8245 -1.1289
26784SOL    HW287593  11.305   8.437   9.573 -1.7377 -0.3173  1.2357
26785SOL     OW87594   9.512   4.252  12.703  0.2181  0.6374  0.5727
26785SOL    HW187595   9.439   4.250  12.764  0.8164  0.0256  1.2825
26785SOL    HW287596   9.534   4.345  12.695  0.2754  0.7094  1.4637
26786SOL     OW87597   4.344   7.853  12.151  0.1382  0.1916  0.5398
26786SOL    HW187598   4.305   7.901  12.078  1.5470 -0.6999 -0.8631
26786SOL    HW287599   4.340   7.761  12.124  1.6156 -0.0663  1.1015
26787SOL     OW87600  11.997   1.543  12.381  0.5256 -0.1764  0.3481
26787SOL    HW187601  11.921   1.557  12.437 -0.1422  0.5891 -0.6951
26787SOL    HW287602  11.965   1.485  12.312  1.4733 -1.5189  0.9970
26788SOL     OW87603  11.541   5.765  12.077  0.1891  0.4570 -0.2010
26788SOL    HW187604  11.628   5.764  12.037 -0.0660  0.9521 -0.7851
26788SOL    HW287605  11.540   5.689  12.135  0.9574  0.3637 -0.3022
26789SOL     OW87606  12.326  11.547   8.677 -0.2326  0.0477  0.4175
26789SOL    HW187607  12.281  11.621   8.636  0.0331 -0.8604 -1.6145
26789SOL    HW287608  12.303  11.472   8.623  1.8021 -0.8558  0.7288
26790SOL     OW87609   5.241   3.144   5.230 -0.1004 -0.0706  0.0398
26790SOL    HW187610   5.311   3.079   5.243  0.5492  0.0687 -2.3016
26790SOL    HW287611   5.230   3.185   5.316  0.3207 -2.4150  1.2954
26791SOL     OW87612   9.889   1.388  10.020 -0.1094 -0.0807 -0.2388
26791SOL    HW187613   9.935   1.447  10.080 -0.8754 -0.4773  0.7820
26791SOL    HW287614   9.935   1.304  10.029 -0.6893 -0.3462  0.4121
26792SOL     OW87615   5.918  11.114   1.254  0.3291 -0.0766 -0.1707
26792SOL    HW187616   5.883  11.099   1.342  0.8921  1.7760  0.4241
26792SOL    HW287617   6.001  11.160   1.269  0.3209  0.4723 -1.6680
26793SOL     OW87618  11.989   7.375   8.693  0.4092  0.1366  0.4240
26793SOL    HW187619  12.053   7.341   8.755  1.0816 -1.0607 -0.8666
26793SOL    HW287620  11.925   7.305   8.683  0.3599  0.2771 -0.2915
26794SOL     OW87621  11.430   7.863   4.718  0.6454  0.2307  0.4326
26794SOL    HW187622  11.417   7.771   4.742 -1.2860  0.6332  1.1595
26794SOL    HW287623  11.392   7.912   4.791 -2.5136  1.5481 -1.8191
26795SOL     OW87624   4.031   7.068   4.597 -0.4534 -0.7535  0.4442
26795SOL    HW187625   4.098   7.009   4.631 -0.1659 -0.8194 -0.2341
26795SOL    HW287626   4.064   7.156   4.615 -0.4536 -0.7855  0.6110
26796SOL     OW87627   3.456  11.933   6.846 -0.8669 -0.1290  0.2053
26796SOL    HW187628   3.436  11.963   6.935 -1.7695  0.8933 -0.3186
26796SOL    HW287629   3.549  11.952   6.834 -0.7382 -0.2793  0.9256
26797SOL     OW87630  10.286   8.511   3.886  0.2838  0.1393  0.5804
26797SOL    HW187631  10.381   8.507   3.875  0.1383  0.4648 -0.8997
26797SOL    HW287632  10.252   8.441   3.830 -0.3231 -0.5334  1.7463
26798SOL     OW87633   6.237   3.302  10.945  0.5726 -0.4805  0.5737
26798SOL    HW187634   6.210   3.392  10.927  1.6855 -0.4057 -0.9164
26798SOL    HW287635   6.156   3.257  10.970  0.0513  0.9884  1.6572
26799SOL     OW87636  12.673   5.603   9.207 -0.0834 -0.0788 -0.1176
26799SOL    HW187637  12.688   5.673   9.143  0.0729  2.1061  2.1858
26799SOL    HW287638  12.581   5.579   9.195  0.5797 -1.6897 -2.9229
26800SOL     OW87639   7.182   1.245   3.640 -0.6222  0.2797 -0.1554
26800SOL    HW187640   7.168   1.295   3.560 -2.8669  0.3174  0.2019
26800SOL    HW287641   7.182   1.154   3.611  1.5211  0.3464 -0.5389
26801SOL     OW87642  10.417   7.120  11.459  0.2568  0.3649 -0.5999
26801SOL    HW187643  10.484   7.132  11.392 -0.0224  0.8192 -0.7977
26801SOL    HW287644  10.334   7.121  11.411  0.0085  1.4008 -0.1693
26802SOL     OW87645   3.627   2.637  10.663  0.1675 -0.3743  0.0005
26802SOL    HW187646   3.609   2.573  10.732  1.7320  0.4566  1.2498
26802SOL    HW287647   3.547   2.688  10.656 -0.7436 -1.8053 -0.3035
26803SOL     OW87648   9.680   4.799   4.725  0.8490  0.6647 -0.1934
26803SOL    HW187649   9.585   4.794   4.714  0.7331 -1.2647  1.2296
26803SOL    HW287650   9.693   4.803   4.820  2.1835  2.3709 -0.3914
26804SOL     OW87651   1.577   7.024   9.498 -0.1944 -0.1494  0.0932
26804SOL    HW187652   1.634   6.963   9.544  0.1067  0.8360  1.0543
26804SOL    HW287653   1.627   7.105   9.492 -1.9798  1.2344  2.3149
26805SOL     OW87654   5.974   0.803   7.210  0.1590  0.2593  0.4051
26805SOL    HW187655   5.940   0.782   7.124  0.0052  0.3069  0.4543
26805SOL    HW287656   6.062   0.838   7.194 -0.7969  2.6826  0.0399
26806SOL     OW87657   4.078  10.956   6.882  0.0129  0.1373 -0.6006
26806SOL    HW187658   4.117  11.044   6.882  0.9532 -0.2647 -0.6791
26806SOL    HW287659   4.144  10.901   6.839 -0.4568 -0.6544 -0.3289
26807SOL     OW87660   4.688   2.065   7.564 -0.3908  0.2365 -0.2663
26807SOL    HW187661   4.674   2.050   7.470 -0.2718 -0.7661 -0.1353
26807SOL    HW287662   4.764   2.011   7.586  0.1631  1.1981  0.2188
26808SOL     OW87663  11.737   5.515  11.407  0.1638 -0.4626 -0.4129
26808SOL    HW187664  11.777   5.489  11.324  1.7876 -1.5426  0.6644
26808SOL    HW287665  11.771   5.603  11.423  1.5319 -1.0681  0.1097
26809SOL     OW87666  11.537  11.900   3.119  0.2134  0.0172  0.1924
26809SOL    HW187667  11.570  11.989   3.128 -0.0176  0.1718 -0.4612
26809SOL    HW287668  11.606  11.854   3.070 -0.2341  0.1667 -0.5831
26810SOL     OW87669   2.898   3.704  11.208 -0.7231 -0.2006  0.1382
26810SOL    HW187670   2.883   3.665  11.122 -0.4913  0.0440 -0.0132
26810SOL    HW287671   2.824   3.764  11.221  0.0578  0.9534 -0.5781
26811SOL     OW87672  11.117  11.307   7.529 -0.8549  0.2557  0.2236
26811SOL    HW187673  11.132  11.298   7.623 -1.7793 -0.1478  0.3400
26811SOL    HW287674  11.147  11.395   7.508 -0.1517  0.1648  0.7920
26812SOL     OW87675  12.000   2.230   1.175 -0.1614 -0.0839 -0.6624
26812SOL    HW187676  11.975   2.303   1.118 -0.2711 -0.4630 -1.1020
26812SOL    HW287677  11.992   2.153   1.120  0.3924 -0.3843 -0.3312
26813SOL     OW87678   9.376   5.234   5.018 -0.0828 -0.0428 -0.5153
26813SOL    HW187679   9.417   5.319   5.039  1.2656 -1.1366  1.6737
26813SOL    HW287680   9.306   5.225   5.083  0.6749 -1.1661  0.1766
26814SOL     OW87681   3.006   3.313  10.919 -0.2244  0.7034  0.3325
26814SOL    HW187682   2.946   3.239  10.922  0.2231  0.2171 -1.5919
26814SOL    HW287683   2.971   3.375  10.983 -2.1888 -0.0022 -0.0001
26815SOL     OW87684   2.956   2.378   2.436  0.2180  0.3269 -0.2953
26815SOL    HW187685   2.990   2.311   2.495 -2.6160 -0.6443  0.4145
26815SOL    HW287686   2.937   2.331   2.355 -1.6834  0.2136  0.1697
26816SOL     OW87687   2.115   8.469   3.062  0.5165 -0.2054 -0.0847
26816SOL    HW187688   2.106   8.565   3.064  0.6688 -0.1429 -1.5990
26816SOL    HW287689   2.165   8.449   3.141  0.3522  0.9453  0.3420
26817SOL     OW87690   9.066   0.172   8.975  0.0624  0.5766 -0.5703
26817SOL    HW187691   9.016   0.184   9.056 -0.1868  0.5218 -0.7138
26817SOL    HW287692   9.158   0.175   9.002 -0.0080 -1.6558  0.0597
26818SOL     OW87693   8.682   5.952   0.570 -0.0027 -0.5023 -0.3853
26818SOL    HW187694   8.708   6.008   0.642  0.7486 -1.1387 -0.1428
26818SOL    HW287695   8.734   5.982   0.495  2.1953 -2.2989  0.2935
26819SOL     OW87696   0.044  10.711   3.551 -0.0219 -0.4969 -0.2067
26819SOL    HW187697   0.041  10.695   3.646  2.5658  0.9765  0.2059
26819SOL    HW287698  -0.002  10.636   3.514 -0.7547 -1.3476  2.1772
26820SOL     OW87699   1.046   5.100   7.445  0.4565  0.5260  0.4691
26820SOL    HW187700   0.983   5.165   7.476  1.4721  1.7406  0.0125
26820SOL    HW287701   1.071   5.130   7.358  0.8684 -0.5388  0.2087
26821SOL     OW87702  12.556   6.819   8.455  0.2618 -0.3034 -0.2320
26821SOL    HW187703  12.462   6.838   8.461  0.4550  0.9583 -0.8066
26821SOL    HW287704  12.598   6.904   8.466  1.3360 -0.8367 -0.1244
26822SOL     OW87705   4.347   9.269   0.869 -0.5513  1.0725  0.6717
26822SOL    HW187706   4.377   9.321   0.943 -0.9543 -0.2113  1.7897
26822SOL    HW287707   4.303   9.194   0.909  0.9056 -0.6960 -0.8063
26823SOL     OW87708   0.331   4.562   5.659  0.4164  0.2259 -0.0265
26823SOL    HW187709   0.397   4.513   5.709  0.3069 -0.8276 -0.8693
26823SOL    HW287710   0.268   4.496   5.633 -0.3185  1.0203 -0.2922
26824SOL     OW87711   5.878   5.120   4.435  0.1828 -0.2815 -0.2736
26824SOL    HW187712   5.862   5.116   4.341 -1.1120  0.7747 -0.1359
26824SOL    HW287713   5.973   5.129   4.443  0.1765  1.6363 -1.5895
26825SOL     OW87714   6.080   9.333   4.571  0.0413  0.7485  0.1289
26825SOL    HW187715   6.016   9.312   4.639 -0.3498 -0.2606 -0.5111
26825SOL    HW287716   6.151   9.270   4.585 -1.0820 -1.1090 -1.7370
26826SOL     OW87717   2.599   6.162   7.753 -0.4781 -0.1192 -0.3819
26826SOL    HW187718   2.540   6.235   7.732 -0.7000 -0.2226 -0.1307
26826SOL    HW287719   2.542   6.096   7.793 -0.5914 -1.1622 -2.1669
26827SOL     OW87720   1.576   9.474   2.631 -0.0807 -0.3346  0.3781
26827SOL    HW187721   1.585   9.384   2.664 -2.2163 -0.3104  1.2186
26827SOL    HW287722   1.665   9.505   2.620  0.7121 -2.2841  0.8622
26828SOL     OW87723   7.961   0.232   2.904  0.0755 -0.0364 -0.0118
26828SOL    HW187724   7.933   0.202   2.990 -0.7405  1.7562  0.3999
26828SOL    HW287725   8.043   0.279   2.920 -0.5246  1.0621 -0.0348
26829SOL     OW87726   1.457   2.947   4.682 -0.1597 -0.1913 -0.0197
26829SOL    HW187727   1.553   2.943   4.678 -0.0075  1.0010  1.6170
26829SOL    HW287728   1.431   2.969   4.593  1.2003  0.9704 -0.1752
26830SOL     OW87729   7.532   2.146  12.654 -0.3320 -0.1280 -0.0850
26830SOL    HW187730   7.503   2.097  12.578 -0.2570  0.6176 -0.6100
26830SOL    HW287731   7.513   2.089  12.729  0.1974 -1.1409 -0.7081
26831SOL     OW87732   1.002   8.182   3.858  0.3465 -0.4584 -0.1177
26831SOL    HW187733   1.094   8.161   3.840  0.6652 -1.1492  2.0878
26831SOL    HW287734   0.958   8.097   3.859 -0.1298 -0.2158 -0.1303
26832SOL     OW87735  12.065   3.371  12.094  0.0962  0.1336 -0.2142
26832SOL    HW187736  12.077   3.422  12.174  0.7653 -0.5057  0.1047
26832SOL    HW287737  12.138   3.396  12.038  0.7933 -0.9212  0.1942
26833SOL     OW87738   6.897   6.679   0.820  0.1033 -0.2981 -0.4532
26833SOL    HW187739   6.979   6.719   0.848 -0.2971 -0.7903  1.5924
26833SOL    HW287740   6.918   6.634   0.738  1.9072 -0.5501  0.1208
26834SOL     OW87741  12.384  10.148   9.515 -0.9709 -0.0350 -0.6807
26834SOL    HW187742  12.319  10.100   9.565 -0.6525  2.6305  2.6390
26834SOL    HW287743  12.360  10.240   9.526  2.1105  0.9456 -1.1093
26835SOL     OW87744   3.760  10.444   7.021 -0.4808 -0.1025 -0.3270
26835SOL    HW187745   3.779  10.439   6.928  3.7501 -1.1055  0.3721
26835SOL    HW287746   3.805  10.522   7.051 -1.0943 -0.2286  1.0049
26836SOL     OW87747   7.639   4.810  10.259  0.5198 -0.3992 -0.5775
26836SOL    HW187748   7.583   4.836  10.332  0.2627  0.1664 -0.9706
26836SOL    HW287749   7.716   4.866  10.267  1.9734 -2.4900  1.1100
26837SOL     OW87750   9.021   9.636   3.462  0.0445  0.0614 -0.4955
26837SOL    HW187751   8.969   9.586   3.524 -2.3852  1.2820 -1.4145
26837SOL    HW287752   9.108   9.642   3.502  0.6559 -5.0248 -0.4362
26838SOL     OW87753   9.996   2.474  10.532 -0.2289 -0.7409 -0.4971
26838SOL    HW187754  10.030   2.563  10.533 -0.8785 -0.4789  0.4778
26838SOL    HW287755   9.910   2.481  10.491 -0.9929 -0.6062  1.0522
26839SOL     OW87756   8.395   7.244   3.448 -0.2837 -0.5598 -0.4031
26839SOL    HW187757   8.351   7.170   3.406 -0.7638 -0.6067  0.1854
26839SOL    HW287758   8.485   7.213   3.462 -0.8811 -1.6587  1.3427
26840SOL     OW87759   7.849   6.275   3.337  0.4799 -0.2254  0.0434
26840SOL    HW187760   7.919   6.240   3.282 -0.7098 -0.1471 -1.5981
26840SOL    HW287761   7.771   6.228   3.309  0.0208 -1.1774  2.6850
26841SOL     OW87762   0.880  11.264   9.604  0.2607  0.3267 -0.4903
26841SOL    HW187763   0.851  11.225   9.687 -0.5969  0.2743 -0.8026
26841SOL    HW287764   0.950  11.206   9.574 -0.4224 -0.5172 -0.5204
26842SOL     OW87765   7.815  10.162   8.539 -0.6208  0.4310  0.4500
26842SOL    HW187766   7.834  10.125   8.453  0.6153  1.3973  0.2883
26842SOL    HW287767   7.813  10.086   8.598 -0.1277 -0.1020 -0.2049
26843SOL     OW87768   0.749   0.600   1.024 -0.4833  0.8216 -0.1267
26843SOL    HW187769   0.772   0.515   1.060  0.8896  0.7383 -1.1170
26843SOL    HW287770   0.659   0.590   0.993 -0.7994  0.1526  0.9553
26844SOL     OW87771  11.741   5.301   1.648 -0.3751 -0.3856  0.2731
26844SOL    HW187772  11.811   5.365   1.662 -0.4941  0.1397 -1.3478
26844SOL    HW287773  11.668   5.333   1.700  0.3871 -0.6421  1.5436
26845SOL     OW87774   7.135   2.706   8.698  0.4354  0.1269 -0.2222
26845SOL    HW187775   7.067   2.665   8.644  0.2872  0.1212 -0.0348
26845SOL    HW287776   7.216   2.662   8.673  0.1422 -0.9465  0.6449
26846SOL     OW87777   4.641  11.449   9.046 -0.0868  0.0041  0.3140
26846SOL    HW187778   4.611  11.404   9.125 -1.2752  1.1373  0.5413
26846SOL    HW287779   4.669  11.378   8.987 -1.2760 -0.9954  0.9042
26847SOL     OW87780   6.414   2.981  12.237  0.5469 -0.2474 -0.1420
26847SOL    HW187781   6.364   3.044  12.186 -0.4625 -0.9815 -0.0759
26847SOL    HW287782   6.497   3.026  12.256 -0.1303  1.0347 -0.1313
26848SOL     OW87783   2.768   6.777  10.110 -0.3191  0.1047 -0.3905
26848SOL    HW187784   2.858   6.754  10.087  0.2001 -1.0624  2.3690
26848SOL    HW287785   2.775   6.819  10.195 -2.4181 -0.6174  0.2132
26849SOL     OW87786   2.911   3.102   5.812  0.1262 -0.5134 -0.4121
26849SOL    HW187787   2.927   3.128   5.903  1.4637 -0.7258 -0.5693
26849SOL    HW287788   2.966   3.161   5.761  2.6742 -3.0331 -0.8337
26850SOL     OW87789   8.082   1.400   6.399 -0.5107 -0.1594 -0.2752
26850SOL    HW187790   8.073   1.454   6.478  1.2142 -0.5066  0.2137
26850SOL    HW287791   8.163   1.351   6.414  0.0261  0.0132 -2.4318
26851SOL     OW87792  11.544   0.381  11.943 -0.4517  0.1674  0.0335
26851SOL    HW187793  11.583   0.305  11.900 -2.1926 -1.0923  0.5538
26851SOL    HW287794  11.615   0.444  11.948  0.6574 -0.8262 -1.7952
26852SOL     OW87795   5.484   4.145   7.465 -0.6421 -0.1912  0.0719
26852SOL    HW187796   5.516   4.058   7.489 -1.3852 -0.6562 -0.5888
26852SOL    HW287797   5.527   4.165   7.383  0.8879  0.8417  1.0834
26853SOL     OW87798   2.349   6.264   1.756  0.4137 -1.0081  0.1427
26853SOL    HW187799   2.321   6.308   1.837  1.4219 -2.1182  1.1349
26853SOL    HW287800   2.270   6.219   1.724  0.4328 -2.1631  1.6044
26854SOL     OW87801   6.229   1.291   3.402  0.7756 -0.0628  0.1952
26854SOL    HW187802   6.215   1.385   3.414  1.0790  0.1215 -0.8463
26854SOL    HW287803   6.158   1.249   3.451 -1.9292  0.7695 -2.6926
26855SOL     OW87804  11.471   2.397   0.359  0.0234 -0.4757 -0.3955
26855SOL    HW187805  11.391   2.419   0.312  0.4978 -1.6221 -1.7951
26855SOL    HW287806  11.447   2.405   0.452 -1.6959 -0.7630 -0.7786
26856SOL     OW87807   8.676   4.806   6.692  0.1121 -0.1516 -0.3133
26856SOL    HW187808   8.655   4.884   6.641 -0.9708 -1.8816 -2.6508
26856SOL    HW287809   8.728   4.751   6.633  1.6994 -0.8488  1.6019
26857SOL     OW87810   4.875   0.212   4.764 -0.1112  0.1822  0.2676
26857SOL    HW187811   4.836   0.264   4.694  1.4697  1.2093  0.0797
26857SOL    HW287812   4.866   0.121   4.735  0.6526  0.5926 -1.3827
26858SOL     OW87813  11.841   1.259   3.166 -1.1561  0.6822 -0.4303
26858SOL    HW187814  11.855   1.203   3.089  1.3753 -0.4205  0.7194
26858SOL    HW287815  11.786   1.206   3.224  0.0951 -0.1308  0.0692
26859SOL     OW87816   5.040  11.128   4.978 -0.0694 -0.0599  0.0458
26859SOL    HW187817   5.023  11.158   5.067  1.4940 -1.1794  0.7591
26859SOL    HW287818   5.087  11.045   4.989 -0.9858 -0.8863 -1.8298
26860SOL     OW87819  10.254   2.323   8.384  0.5188 -0.0446  0.1501
26860SOL    HW187820  10.244   2.234   8.351  0.0060 -0.5135  1.4941
26860SOL    HW287821  10.179   2.335   8.443  1.0478  0.9734  0.6406
26861SOL     OW87822  10.166  11.985   0.906 -0.0673 -0.4490  0.3268
26861SOL    HW187823  10.096  11.961   0.967 -1.2610  1.5349 -0.1478
26861SOL    HW287824  10.142  11.941   0.824 -0.0223 -0.8542  0.5301
26862SOL     OW87825   6.733   1.542   0.189 -0.2157 -0.2035 -0.2406
26862SOL    HW187826   6.744   1.592   0.270 -0.3047 -1.5613  0.6567
26862SOL    HW287827   6.822   1.532   0.155 -0.2943  1.3903 -0.9823
26863SOL     OW87828   4.816   5.884   2.160 -0.0400 -0.0440  0.0189
26863SOL    HW187829   4.886   5.946   2.142 -0.5559  0.9617  1.3400
26863SOL    HW287830   4.859   5.815   2.211  0.2049  0.0134 -0.1048
26864SOL     OW87831   4.289   7.562   3.470  0.4213 -0.1794  0.6871
26864SOL    HW187832   4.382   7.568   3.449  0.1751  1.8635  0.0235
26864SOL    HW287833   4.288   7.527   3.559  1.9017  0.9472  1.1948
26865SOL     OW87834   7.420   6.477   7.668  0.0401 -0.3090  0.3205
26865SOL    HW187835   7.398   6.508   7.580  0.3566  0.1884  0.4096
26865SOL    HW287836   7.347   6.420   7.693  1.5016 -3.2171 -1.5987
26866SOL     OW87837   1.840   3.274   9.833  0.1273  0.4947 -0.2208
26866SOL    HW187838   1.900   3.218   9.883 -0.4127  0.6043  0.5667
26866SOL    HW287839   1.788   3.212   9.781 -1.6796  0.0432  1.9478
26867SOL     OW87840   4.250  10.728   3.938 -0.1529 -0.0483  0.0154
26867SOL    HW187841   4.332  10.778   3.936  0.0708 -0.3522  0.8498
26867SOL    HW287842   4.278  10.637   3.922 -0.3888 -0.0911 -0.1578
26868SOL     OW87843   4.505   5.815  12.605  0.2141 -0.5823  0.8762
26868SOL    HW187844   4.535   5.804  12.695  1.0710  0.3425  0.7205
26868SOL    HW287845   4.508   5.909  12.589  0.0321 -0.7253 -0.1052
26869SOL     OW87846   6.725  11.011   4.539  0.3264  0.4671  0.6361
26869SOL    HW187847   6.663  10.944   4.510 -0.5345  1.9198 -1.1094
26869SOL    HW287848   6.684  11.051   4.615 -0.5942  1.0053 -0.1348
26870SOL     OW87849   1.160   8.115   6.570 -0.5430 -0.0984  0.4484
26870SOL    HW187850   1.166   8.148   6.480 -1.3460  0.2544  0.5199
26870SOL    HW287851   1.223   8.168   6.618  1.6729 -1.8708 -0.3243
26871SOL     OW87852  11.371   8.254  11.991  0.2039 -0.0837  0.8319
26871SOL    HW187853  11.319   8.221  12.064 -0.2249  0.8268  0.9618
26871SOL    HW287854  11.350   8.348  11.987  2.3883  0.4882  1.3371
26872SOL     OW87855   7.159  11.113   8.750 -0.1153  0.3535 -0.0637
26872SOL    HW187856   7.147  11.028   8.792  0.1505 -0.5288 -1.6751
26872SOL    HW287857   7.074  11.156   8.757  0.1965  0.6718  2.2217
26873SOL     OW87858   4.736   8.963  10.489 -0.0242 -0.2285 -0.3856
26873SOL    HW187859   4.728   9.014  10.408 -0.6667  0.5573  0.1576
26873SOL    HW287860   4.828   8.936  10.490  0.1433  0.2654 -1.0807
26874SOL     OW87861   7.240  10.198   2.148  0.0203  0.0790  0.5705
26874SOL    HW187862   7.272  10.183   2.060 -0.7246  0.0062  0.3004
26874SOL    HW287863   7.174  10.267   2.138  1.1737  1.3421  1.3354
26875SOL     OW87864   0.101  10.353   4.179 -0.1849 -0.1355  0.0571
26875SOL    HW187865   0.088  10.281   4.240  1.2871 -0.8757 -0.4606
26875SOL    HW287866   0.077  10.318   4.094 -0.5595  0.3584 -0.0500
26876SOL     OW87867   1.148   9.261   2.965 -0.6083 -0.1922  0.3973
26876SOL    HW187868   1.205   9.187   2.946 -1.2526 -0.6838  0.3492
26876SOL    HW287869   1.073   9.250   2.906 -0.5950  0.6315  0.2150
26877SOL     OW87870   0.506   1.703  10.395  0.1372  0.0803 -0.1599
26877SOL    HW187871   0.415   1.733  10.393  0.7671  2.1291 -0.4110
26877SOL    HW287872   0.540   1.723  10.308  0.3468 -2.4385 -0.7187
26878SOL     OW87873   2.411   4.376  11.366 -0.0573 -0.4085 -0.2789
26878SOL    HW187874   2.354   4.445  11.398  0.5006 -0.1153  0.1092
26878SOL    HW287875   2.457   4.345  11.444  2.5297  1.4106 -0.9519
26879SOL     OW87876   1.710   5.772   0.404 -0.2294  0.9656 -0.0894
26879SOL    HW187877   1.627   5.793   0.445 -0.6892 -0.9748  0.0897
26879SOL    HW287878   1.766   5.743   0.476  0.5516  2.0755 -0.2348
26880SOL     OW87879   2.474  12.176   5.147  0.0118 -0.3281 -0.4980
26880SOL    HW187880   2.445  12.088   5.125 -2.6499  0.9022 -2.4406
26880SOL    HW287881   2.425  12.199   5.226 -0.1421 -0.1754 -0.6388
26881SOL     OW87882  12.381   4.438   2.884 -0.2826 -0.1260  0.4186
26881SOL    HW187883  12.342   4.398   2.807  0.5058 -0.5135  0.2122
26881SOL    HW287884  12.466   4.470   2.855 -0.5512  0.9620  0.7909
26882SOL     OW87885   2.525   2.189   0.107  0.1610  0.5157 -0.2716
26882SOL    HW187886   2.609   2.202   0.152 -0.0700  0.5459  0.1559
26882SOL    HW287887   2.475   2.132   0.165 -0.6490  1.6363  0.1562
26883SOL     OW87888   4.823  11.456   7.220 -1.0627 -0.0162  0.3927
26883SOL    HW187889   4.834  11.516   7.294 -0.0795 -0.7402  0.8645
26883SOL    HW287890   4.908  11.457   7.176 -1.2652 -0.5136 -0.0089
26884SOL     OW87891   0.909   9.202   9.476 -0.1093 -0.0236 -0.1010
26884SOL    HW187892   0.947   9.119   9.505 -0.5273  0.1860  1.1503
26884SOL    HW287893   0.973   9.268   9.502  1.1807 -0.0466 -2.9010
26885SOL     OW87894   6.341   0.488   1.532  0.1947  0.3627  0.1981
26885SOL    HW187895   6.289   0.408   1.520  0.8762 -0.1169  0.3889
26885SOL    HW287896   6.399   0.468   1.605  0.8212  0.8020 -0.1718
26886SOL     OW87897   0.930   2.989   6.613 -0.5583  0.0790  0.0267
26886SOL    HW187898   0.897   3.052   6.676  1.8941  1.8694 -0.3025
26886SOL    HW287899   1.008   2.951   6.655 -0.1207 -0.2788 -1.0541
26887SOL     OW87900   6.969   2.798   3.763  0.1693  0.5209 -0.2538
26887SOL    HW187901   7.002   2.791   3.673  1.0064  2.2203 -0.1257
26887SOL    HW287902   6.934   2.712   3.783  0.5952 -0.0838 -1.9742
26888SOL     OW87903   8.131   2.412   3.402  0.2516  0.4039  0.1205
26888SOL    HW187904   8.188   2.336   3.396 -0.3039  0.0484 -0.6917
26888SOL    HW287905   8.088   2.403   3.487 -1.6062 -1.4776 -0.9415
26889SOL     OW87906  11.017   4.435   5.879  0.0417 -0.2262 -0.4698
26889SOL    HW187907  11.081   4.504   5.861 -0.8235  0.1378 -2.5005
26889SOL    HW287908  10.943   4.482   5.918 -0.1171 -0.1661 -0.8355
26890SOL     OW87909   8.772   6.249  10.081  0.1706  0.0722  0.0012
26890SOL    HW187910   8.750   6.171  10.031 -0.2967 -0.5533  1.1424
26890SOL    HW287911   8.867   6.249  10.086  0.1394 -1.4093  1.4513
26891SOL     OW87912   3.290  10.098  11.893  0.2505  0.6497  0.1125
26891SOL    HW187913   3.262  10.181  11.931 -1.0911  0.9009 -1.3396
26891SOL    HW287914   3.286  10.112  11.798  1.3214 -0.6511 -0.1633
26892SOL     OW87915   9.967  11.996   4.252 -0.4812 -0.3716  0.1975
26892SOL    HW187916  10.007  11.918   4.289 -0.6046 -1.4761 -1.8694
26892SOL    HW287917  10.029  12.027   4.187 -1.4834 -0.1868 -0.7054
26893SOL     OW87918  10.849   5.720   0.091 -0.5641 -0.2508 -0.3778
26893SOL    HW187919  10.899   5.680   0.020  0.3094  0.5024 -0.1937
26893SOL    HW287920  10.758   5.717   0.061 -0.2024  0.0510 -1.5136
26894SOL     OW87921   3.090  11.018  12.638 -0.6595  0.0079 -0.3926
26894SOL    HW187922   3.075  10.994  12.546 -0.6641 -0.1213 -0.3587
26894SOL    HW287923   3.004  11.047  12.669 -0.4638  0.9334 -0.6837
26895SOL     OW87924   2.115  11.507   0.334 -0.1705  0.9211  0.0716
26895SOL    HW187925   2.073  11.559   0.403  0.5329  0.7914  0.6038
26895SOL    HW287926   2.065  11.425   0.332  2.4135 -1.0023  3.5523
26896SOL     OW87927   6.863   0.351   0.522 -0.0947 -0.0713  0.3338
26896SOL    HW187928   6.770   0.351   0.500 -0.0907 -0.1257  0.3150
26896SOL    HW287929   6.868   0.305   0.606 -0.0120 -0.6649  0.0110
26897SOL     OW87930   6.248   0.758   1.281  0.2025 -0.2566  0.3002
26897SOL    HW187931   6.232   0.668   1.307 -1.8320 -0.8869 -2.5804
26897SOL    HW287932   6.177   0.778   1.220  2.2566  2.2591 -1.5077
26898SOL     OW87933   8.261   1.366   0.579  0.0810 -0.4450  0.1840
26898SOL    HW187934   8.322   1.324   0.519 -0.3435 -0.6862 -0.0782
26898SOL    HW287935   8.303   1.450   0.600  1.4559 -1.4300  1.5664
26899SOL     OW87936   6.523   6.062   1.553 -0.0837  0.5419 -0.2160
26899SOL    HW187937   6.573   6.135   1.517 -0.6311  1.6178  1.1241
26899SOL    HW287938   6.434   6.096   1.564 -0.3826 -0.3625  0.3143
26900SOL     OW87939   6.300   3.606   8.702  0.1086 -0.2385  0.1846
26900SOL    HW187940   6.391   3.588   8.728  0.2240 -2.4022 -1.4020
26900SOL    HW287941   6.308   3.656   8.621 -0.1535  0.2244  0.4377
26901SOL     OW87942   9.881   8.193  12.136 -0.2934 -0.1120  0.2699
26901SOL    HW187943   9.886   8.127  12.206  0.9044 -0.7195 -0.3590
26901SOL    HW287944   9.964   8.240  12.141 -0.7643  0.7556  0.1158
26902SOL     OW87945  10.340   4.427  12.015  0.8523 -0.4685  0.0581
26902SOL    HW187946  10.361   4.338  12.043  1.0509 -0.1652  0.9212
26902SOL    HW287947  10.421   4.476  12.030 -0.0133  0.4445  2.2021
26903SOL     OW87948   0.442  12.101   9.794 -0.5423  0.6841 -0.2284
26903SOL    HW187949   0.456  12.015   9.755 -1.1099 -0.0784  1.1784
26903SOL    HW287950   0.356  12.095   9.836  0.0227  1.4570  1.1075
26904SOL     OW87951   1.080   1.263   3.729 -0.0251 -0.1686 -0.2135
26904SOL    HW187952   1.161   1.301   3.695 -0.4579 -0.2139 -1.3322
26904SOL    HW287953   1.072   1.180   3.683  0.2167 -1.0262  1.2297
26905SOL     OW87954   6.677  12.499   6.346 -0.1186 -0.5293  0.1896
26905SOL    HW187955   6.597  12.456   6.316  0.0188 -1.0311  0.5316
26905SOL    HW287956   6.745  12.431   6.342  0.5166  0.1502 -1.0220
26906SOL     OW87957  10.775   8.732  10.081  0.8321  0.1683 -0.2489
26906SOL    HW187958  10.758   8.827  10.084  0.5589  0.1384 -0.7056
26906SOL    HW287959  10.714   8.699  10.015 -1.2150 -0.7825  1.9619
26907SOL     OW87960   7.094  12.709   4.257 -0.1872  0.4339  0.1988
26907SOL    HW187961   7.123  12.705   4.166  0.0148  1.5581  0.1925
26907SOL    HW287962   7.094  12.618   4.287 -1.7171 -0.1175 -1.3613
26908SOL     OW87963  10.097   3.631   9.203 -0.3463 -0.1259 -0.6443
26908SOL    HW187964  10.155   3.555   9.201  0.2542  0.2652  0.6583
26908SOL    HW287965  10.017   3.599   9.243  0.3223  0.1525  1.0078
26909SOL     OW87966  11.514   0.460  11.563 -0.1932  0.1924 -0.1502
26909SOL    HW187967  11.553   0.519  11.629  2.0323 -1.5689  0.2112
26909SOL    HW287968  11.574   0.464  11.489 -1.8280  0.8923 -1.5020
26910SOL     OW87969  10.183   8.855   2.359 -0.0717  0.0979 -0.3207
26910SOL    HW187970  10.198   8.798   2.434  0.6831  0.5931 -0.0775
26910SOL    HW287971  10.123   8.922   2.392  2.7728  2.2347  0.9058
26911SOL     OW87972   5.111   8.264   7.582 -0.4667 -0.1735 -0.0319
26911SOL    HW187973   5.063   8.326   7.526 -1.1229  0.6653  1.4037
26911SOL    HW287974   5.083   8.286   7.671  0.6141 -1.4177  0.6412
26912SOL     OW87975   8.051   9.235  10.903  0.3781 -0.3525 -0.2211
26912SOL    HW187976   7.960   9.234  10.875  0.3069 -0.0091 -0.0047
26912SOL    HW287977   8.102   9.229  10.822  0.1810  0.7118 -0.4316
26913SOL     OW87978   0.494   5.307   5.965  0.3017  0.2106 -0.2715
26913SOL    HW187979   0.478   5.219   5.929  2.9211 -0.6863  0.5157
26913SOL    HW287980   0.407   5.345   5.973 -1.0092 -2.5225 -0.1441
26914SOL     OW87981   0.269   8.341   8.830 -0.0467  0.0885 -0.0583
26914SOL    HW187982   0.194   8.341   8.891  0.5273  1.1265  0.6927
26914SOL    HW287983   0.238   8.292   8.754 -0.7608 -1.3568  1.1077
26915SOL     OW87984   3.886   3.085   7.017  0.0302  0.2506 -0.2117
26915SOL    HW187985   3.876   3.147   7.089  1.1077  0.4272 -0.2077
26915SOL    HW287986   3.800   3.085   6.975 -0.1724  1.2789  0.1597
26916SOL     OW87987   5.053   5.745  11.705 -0.4937 -0.1127 -0.1204
26916SOL    HW187988   5.010   5.830  11.715 -0.6227 -0.4107  2.6967
26916SOL    HW287989   4.997   5.684  11.754  0.9226 -1.3340  0.0364
26917SOL     OW87990   4.040   2.167  10.264 -0.1673 -0.2400  0.0279
26917SOL    HW187991   4.115   2.130  10.311 -0.0925 -1.3385 -0.9106
26917SOL    HW287992   4.057   2.261  10.263  0.2183 -0.2651  1.4913
26918SOL     OW87993  10.346   9.691  11.755 -0.2606  0.3301 -0.4300
26918SOL    HW187994  10.318   9.606  11.722  2.1966 -0.6901 -0.1282
26918SOL    HW287995  10.438   9.698  11.727  0.2314  1.9182  1.3690
26919SOL     OW87996   0.957   2.578   1.248 -0.4270  0.3642 -0.3860
26919SOL    HW187997   0.901   2.500   1.243  0.0326 -0.0697  0.8082
26919SOL    HW287998   0.898   2.651   1.231 -1.3023 -0.1100  0.4910
26920SOL     OW87999   8.174   9.187  11.623 -0.0030 -0.5605  0.6402
26920SOL    HW188000   8.090   9.222  11.651  0.2689 -0.7175  1.6784
26920SOL    HW288001   8.187   9.109  11.676  0.5328 -0.8693  0.0720
26921SOL     OW88002  10.938   9.665   1.517  0.1518 -0.3707  0.1081
26921SOL    HW188003  10.951   9.657   1.612  2.1153  1.4305  0.0775
26921SOL    HW288004  11.010   9.615   1.479  1.2205  1.3656 -0.3065
26922SOL     OW88005   6.650   1.994  11.027 -0.3655 -0.9796  0.2322
26922SOL    HW188006   6.734   1.974  11.069  0.2545 -0.6616 -0.8121
26922SOL    HW288007   6.594   1.920  11.049  0.5652 -1.7770  0.0005
26923SOL     OW88008  11.357   9.089   6.152 -0.0711  0.0055 -0.3219
26923SOL    HW188009  11.299   9.023   6.114 -0.4351 -1.0452  1.8858
26923SOL    HW288010  11.445   9.057   6.132 -0.2489 -0.5357 -0.2414
26924SOL     OW88011   8.400  12.044   8.781 -0.3681 -0.1404 -0.7439
26924SOL    HW188012   8.320  12.018   8.826 -1.2476  0.8326 -1.6874
26924SOL    HW288013   8.445  12.102   8.842 -0.6945 -0.1903 -0.4578
26925SOL     OW88014   8.665   8.890   7.365  0.3953  0.2368  0.1510
26925SOL    HW188015   8.579   8.895   7.407  0.5479 -0.1901  0.5188
26925SOL    HW288016   8.677   8.976   7.324 -0.7970 -0.1295 -1.0647
26926SOL     OW88017   0.012   6.784   4.935 -0.2911  0.0568  0.2458
26926SOL    HW188018   0.014   6.785   4.839  2.0274  2.2760  0.2292
26926SOL    HW288019   0.104   6.786   4.961 -0.8898  0.1943  2.5373
26927SOL     OW88020   9.893   2.691   3.409 -0.4554  0.3598  0.6466
26927SOL    HW188021   9.855   2.670   3.324 -1.4620 -1.7812  1.5243
26927SOL    HW288022   9.933   2.609   3.438  0.3495  1.1895  2.0083
26928SOL     OW88023   1.204   7.350  12.565  0.3196 -0.5105 -0.6516
26928SOL    HW188024   1.249   7.296  12.500  0.0725 -0.0900 -1.1797
26928SOL    HW288025   1.215   7.303  12.648 -0.4743 -1.7356 -1.2090
26929SOL     OW88026   2.266  10.238   7.733 -0.2517  0.1716 -0.0998
26929SOL    HW188027   2.346  10.217   7.782 -0.8773 -0.4971  0.6603
26929SOL    HW288028   2.293  10.307   7.672  1.2346 -1.0094 -0.8396
26930SOL     OW88029   3.059   9.753   4.428  0.1419 -0.2121 -0.0378
26930SOL    HW188030   3.045   9.706   4.346  1.7478  0.0429 -0.4929
26930SOL    HW288031   3.026   9.694   4.495 -1.4646 -0.2996 -0.8705
26931SOL     OW88032   2.513   8.943   5.191 -0.5164  0.4256 -0.3928
26931SOL    HW188033   2.507   9.037   5.208  0.9071  0.7117 -1.3311
26931SOL    HW288034   2.594   8.932   5.141 -0.9990 -1.2228 -0.8924
26932SOL     OW88035   8.085   1.556   0.033  0.4331  0.0249 -0.5908
26932SOL    HW188036   8.118   1.639   0.000  0.9515 -0.2447 -0.7737
26932SOL    HW288037   8.087   1.497  -0.043 -0.3527 -0.0407 -0.5754
26933SOL     OW88038   4.370   7.966   8.748 -0.4415  0.0721  0.2826
26933SOL    HW188039   4.462   7.989   8.749  0.0829 -1.8376 -0.1638
26933SOL    HW288040   4.331   8.019   8.818  0.9127  1.0815  0.3132
26934SOL     OW88041   8.134   1.729   7.862 -0.1276  0.0999 -0.2671
26934SOL    HW188042   8.182   1.809   7.885  2.4130 -0.6071 -2.7363
26934SOL    HW288043   8.201   1.665   7.842 -2.1364 -1.9956 -0.6680
26935SOL     OW88044   4.617   0.271   1.141  0.1946 -0.0680 -0.0217
26935SOL    HW188045   4.527   0.242   1.154 -0.0987  0.1346 -1.4597
26935SOL    HW288046   4.667   0.191   1.128 -0.2417 -0.0952 -1.7831
26936SOL     OW88047   4.666  10.456   5.756  0.3321  0.0604  0.0539
26936SOL    HW188048   4.705  10.381   5.800 -1.4342 -1.6050 -1.0838
26936SOL    HW288049   4.617  10.501   5.826  1.9419  0.6026  0.8819
26937SOL     OW88050   0.705   5.679   6.889 -0.0880 -0.0510 -0.3293
26937SOL    HW188051   0.670   5.751   6.837 -1.8051 -0.2656  0.4574
26937SOL    HW288052   0.684   5.702   6.980  2.9242  0.3654  0.3646
26938SOL     OW88053  10.096   2.860   9.387 -0.1503 -0.8351  0.1852
26938SOL    HW188054  10.142   2.917   9.326  0.8848  0.6326  2.2286
26938SOL    HW288055  10.024   2.823   9.335  1.8878 -1.3873 -2.4804
26939SOL     OW88056  10.372  11.949   3.137  0.1487  0.4619  0.2265
26939SOL    HW188057  10.380  12.018   3.203 -1.0703 -0.0112  0.9112
26939SOL    HW288058  10.292  11.971   3.089 -0.3981 -0.5990  0.6206
26940SOL     OW88059   2.831   8.811  12.595  0.1811 -0.0206  0.0036
26940SOL    HW188060   2.859   8.901  12.577  2.5617 -0.0400  2.8301
26940SOL    HW288061   2.833   8.804  12.690  0.4462 -3.1586 -0.1336
26941SOL     OW88062   0.385   9.639   9.863 -0.1523  0.2540 -0.2801
26941SOL    HW188063   0.366   9.601   9.949 -0.5288  0.7111 -0.1587
26941SOL    HW288064   0.450   9.707   9.880 -2.3208  2.3579  0.1032
26942SOL     OW88065  10.617  10.415   1.657  0.3686  0.9329 -0.1806
26942SOL    HW188066  10.594  10.500   1.619  1.3522  1.3058  0.0324
26942SOL    HW288067  10.698  10.390   1.613 -0.0838 -0.0533 -0.4678
26943SOL     OW88068  10.252   4.960   0.014  0.7296 -0.5222 -0.7608
26943SOL    HW188069  10.282   5.034   0.067  1.6498 -0.6155 -1.1157
26943SOL    HW288070  10.188   4.914   0.068  2.6132 -1.3987  0.8456
26944SOL     OW88071   4.404  11.993  12.157 -0.1197 -0.0097  0.1658
26944SOL    HW188072   4.421  12.080  12.122  0.8026 -0.4279 -0.4436
26944SOL    HW288073   4.309  11.991  12.172 -0.0766  1.2704  0.6820
26945SOL     OW88074   2.880   0.899   3.970  0.1186 -0.2433 -0.5949
26945SOL    HW188075   2.851   0.981   3.930  0.8436  0.0480 -0.5240
26945SOL    HW288076   2.817   0.883   4.040 -0.2518  0.0450 -0.8592
26946SOL     OW88077  12.517   5.104   6.542  0.4159 -0.3571 -0.3705
26946SOL    HW188078  12.442   5.077   6.595 -0.2962  1.3322 -0.4675
26946SOL    HW288079  12.590   5.051   6.576 -0.4509 -0.8123  0.8760
26947SOL     OW88080   2.124  11.235  12.034 -0.0430 -0.1920 -0.1694
26947SOL    HW188081   2.056  11.167  12.037 -1.7692  1.4191 -0.7048
26947SOL    HW288082   2.095  11.294  11.964  1.3974  1.0966  0.2709
26948SOL     OW88083   4.553   9.708   4.641 -0.1909  0.7279 -0.0139
26948SOL    HW188084   4.535   9.614   4.635  0.1336  0.7423 -2.0947
26948SOL    HW288085   4.647   9.716   4.630 -0.4959  1.4053 -2.9138
26949SOL     OW88086   1.184   4.269   3.276  0.2857  0.1030  0.4173
26949SOL    HW188087   1.149   4.290   3.189 -1.0464  0.0103  0.9004
26949SOL    HW288088   1.278   4.285   3.269  0.5199 -1.7800 -1.6052
26950SOL     OW88089   5.905   2.611   2.709 -0.2646 -0.2754 -0.0399
26950SOL    HW188090   5.924   2.587   2.618  0.5712  0.4221 -0.0574
26950SOL    HW288091   5.847   2.686   2.702  1.1708  0.8745 -0.0328
26951SOL     OW88092   4.463   2.157   0.071 -0.4331 -0.1050 -0.3210
26951SOL    HW188093   4.481   2.218  -0.001 -2.7380  1.4680  0.3097
26951SOL    HW288094   4.368   2.143   0.067 -0.7449  0.4949  2.7034
26952SOL     OW88095  10.382   9.331   6.980  0.2747 -0.2431 -0.2957
26952SOL    HW188096  10.373   9.306   6.888 -1.6121  1.4213 -0.6265
26952SOL    HW288097  10.338   9.260   7.028  0.5555 -0.7109 -0.7188
26953SOL     OW88098   3.386   8.002  11.330 -0.0372  0.2121  0.2252
26953SOL    HW188099   3.305   7.955  11.352  0.3355  0.3426  2.0608
26953SOL    HW288100   3.373   8.090  11.366  0.4025  0.6371 -0.6395
26954SOL     OW88101  11.394   1.848   5.930 -0.1078  0.3016 -0.5634
26954SOL    HW188102  11.337   1.814   5.861 -1.6033 -0.8097  1.1088
26954SOL    HW288103  11.347   1.924   5.965  0.7518  1.0065 -0.9049
26955SOL     OW88104  10.605   2.224   6.184  0.2496  0.0745  0.3746
26955SOL    HW188105  10.613   2.258   6.095 -0.1335  2.4480  1.1651
26955SOL    HW288106  10.611   2.129   6.175 -0.5164  0.2074 -2.2555
26956SOL     OW88107   5.657   3.947   1.355  0.3025  0.1304 -0.1950
26956SOL    HW188108   5.582   3.925   1.409  0.6236 -0.3497  0.0627
26956SOL    HW288109   5.711   4.004   1.411  0.0840  0.5592 -0.4157
26957SOL     OW88110   5.072   1.857   1.255 -0.5338 -0.1965  0.3524
26957SOL    HW188111   4.984   1.820   1.268 -0.4556 -0.3367  0.4833
26957SOL    HW288112   5.058   1.931   1.196 -0.4603 -1.5040 -1.3776
26958SOL     OW88113   9.028  10.648   3.760 -0.8841 -0.4987  0.4003
26958SOL    HW188114   9.044  10.630   3.668 -1.7077  0.2040  0.1040
26958SOL    HW288115   8.990  10.736   3.761  0.1169 -0.0428  1.5084
26959SOL     OW88116   6.427   3.916  10.866  0.6081 -0.0519  0.3525
26959SOL    HW188117   6.372   3.913  10.945 -0.5326  0.6746 -0.3802
26959SOL    HW288118   6.476   3.834  10.868 -1.0716 -1.1060  0.6408
26960SOL     OW88119   6.161  11.125  10.088  0.6898 -0.0596  0.2804
26960SOL    HW188120   6.158  11.082  10.173  0.5306 -0.7019 -0.0372
26960SOL    HW288121   6.210  11.064  10.033  3.2263  1.5623  0.5747
26961SOL     OW88122   6.660   4.594   4.429  0.5157 -0.0910 -0.0249
26961SOL    HW188123   6.726   4.609   4.361  1.0646 -0.4158  0.4302
26961SOL    HW288124   6.580   4.574   4.380  0.7338  0.3777 -0.5828
26962SOL     OW88125   6.367   8.178   7.801  0.3367 -0.8336 -0.2037
26962SOL    HW188126   6.420   8.257   7.804 -0.2027 -0.4882  0.8707
26962SOL    HW288127   6.422   8.113   7.759  1.5691 -0.4536  0.7788
26963SOL     OW88128   8.616  10.714   5.501 -0.1228  0.0039 -0.7226
26963SOL    HW188129   8.544  10.721   5.439 -0.4418 -0.8827 -0.4792
26963SOL    HW288130   8.577  10.738   5.585 -0.2226 -0.7670 -0.5413
26964SOL     OW88131   2.584   8.826   9.335 -0.1503 -0.1939  0.4378
26964SOL    HW188132   2.672   8.793   9.353 -0.1254 -0.4236 -0.0864
26964SOL    HW288133   2.578   8.828   9.240 -1.2443 -1.6849  0.4245
26965SOL     OW88134   5.643   7.810  11.802 -0.0506  0.1703 -0.1040
26965SOL    HW188135   5.712   7.875  11.812 -1.4240  1.8742 -1.2590
26965SOL    HW288136   5.568   7.846  11.849 -0.7145 -0.7934 -0.3909
26966SOL     OW88137   0.241   6.120   9.709  0.0273 -0.3286 -0.2968
26966SOL    HW188138   0.311   6.063   9.677 -0.9713 -0.3332 -2.7045
26966SOL    HW288139   0.278   6.208   9.703  1.0162 -0.5425  1.9002
26967SOL     OW88140  11.486  11.570   7.410  0.6149  0.5219 -0.0189
26967SOL    HW188141  11.519  11.637   7.350 -1.5171  0.1322 -1.7321
26967SOL    HW288142  11.530  11.590   7.493  1.2746  3.0485 -0.8637
26968SOL     OW88143   9.468   5.660   2.640 -0.4406 -0.2077 -0.5004
26968SOL    HW188144   9.400   5.665   2.573 -0.8931 -1.3641 -0.1489
26968SOL    HW288145   9.422   5.668   2.723 -0.1187 -0.6387 -0.2717
26969SOL     OW88146   4.479   2.179   2.608  0.4422 -0.1044  0.1133
26969SOL    HW188147   4.502   2.269   2.587  2.0555 -0.4842  0.1406
26969SOL    HW288148   4.501   2.129   2.529 -0.7503 -0.4508 -0.0248
26970SOL     OW88149   6.364   3.818   9.017 -0.4052  0.1960 -0.0217
26970SOL    HW188150   6.288   3.760   9.024  0.2682 -0.9783 -1.7404
26970SOL    HW288151   6.356   3.860   8.931  0.1736  1.1280  0.3570
26971SOL     OW88152   8.703   1.825  10.761 -0.3944  0.3505 -0.1284
26971SOL    HW188153   8.668   1.892  10.703  0.1667  0.6692 -0.1031
26971SOL    HW288154   8.789   1.858  10.787  0.5464 -1.0665 -1.3015
26972SOL     OW88155  11.409   2.401   3.575 -0.6466 -0.5975 -0.2870
26972SOL    HW188156  11.402   2.345   3.652 -1.2213  1.2946  1.1034
26972SOL    HW288157  11.335   2.375   3.520 -1.8512 -0.1657  1.0757
26973SOL     OW88158   2.996   0.869  12.608  0.6190 -0.1999 -0.2504
26973SOL    HW188159   2.971   0.818  12.531  0.1896 -3.1892  1.6900
26973SOL    HW288160   3.091   0.879  12.601  0.5137  0.0363 -1.4093
26974SOL     OW88161   3.037   7.685   7.822  0.1055  0.3782  0.9207
26974SOL    HW188162   2.986   7.695   7.741  2.2425  1.3357 -0.3931
26974SOL    HW288163   2.994   7.614   7.869 -0.5113 -1.0597 -1.6441
26975SOL     OW88164   4.106   4.524  11.587  0.0009 -0.1242  0.2141
26975SOL    HW188165   4.036   4.483  11.536  0.3135  0.0405 -0.3616
26975SOL    HW288166   4.183   4.470  11.571  0.1849  0.1291  0.2290
26976SOL     OW88167   9.155   1.993  10.759  0.6924  0.0271 -0.6276
26976SOL    HW188168   9.099   1.938  10.813  0.0456  0.4066 -0.9081
26976SOL    HW288169   9.125   1.979  10.670  0.8215  0.4903 -0.7470
26977SOL     OW88170   3.453   0.614   8.298 -0.3415 -0.4344  0.2488
26977SOL    HW188171   3.374   0.668   8.294 -0.5404 -0.7957 -2.0370
26977SOL    HW288172   3.425   0.528   8.266  0.9537 -0.5786 -0.5690
26978SOL     OW88173   3.786   3.851  10.692 -0.4449 -0.1576 -0.5284
26978SOL    HW188174   3.853   3.821  10.753  1.2519  1.4943 -1.5021
26978SOL    HW288175   3.783   3.784  10.624  0.9348  0.2191 -0.9759
26979SOL     OW88176   0.518   3.719   8.027 -0.6493 -0.2550  0.0516
26979SOL    HW188177   0.550   3.647   8.082  1.5831  1.7185  1.5637
26979SOL    HW288178   0.590   3.783   8.028 -2.6987  2.2219 -0.7590
26980SOL     OW88179  12.295   1.397   1.832  0.2400  0.3130 -0.5894
26980SOL    HW188180  12.259   1.440   1.910 -0.8672 -1.2905 -0.1741
26980SOL    HW288181  12.219   1.377   1.778  0.7689 -0.6469 -1.0097
26981SOL     OW88182   5.023   0.667  12.412 -0.7154 -0.4295  0.4667
26981SOL    HW188183   5.067   0.748  12.436 -0.9825 -0.0594 -0.2456
26981SOL    HW288184   4.930   0.687  12.421 -0.7629 -1.0267  1.4127
26982SOL     OW88185   2.582  10.060   7.401  0.3526 -0.5675  0.0606
26982SOL    HW188186   2.536  10.143   7.412  0.9591 -0.2196  0.0172
26982SOL    HW288187   2.516   9.993   7.416 -0.5400 -0.0855 -1.5037
26983SOL     OW88188  11.462   3.884   8.965  0.7257 -0.2332  0.2363
26983SOL    HW188189  11.372   3.911   8.985  0.3369 -1.0234 -0.3410
26983SOL    HW288190  11.467   3.794   8.997  1.3257 -0.1794  0.2949
26984SOL     OW88191   4.272   9.076   8.437  0.4175 -0.1280  0.4194
26984SOL    HW188192   4.259   8.983   8.458  1.2895 -0.2149  0.5994
26984SOL    HW288193   4.324   9.075   8.357  2.9350  0.1671  1.9501
26985SOL     OW88194   6.291   4.477   0.660 -0.2441 -0.3118  0.2833
26985SOL    HW188195   6.329   4.537   0.597 -1.8515 -1.1323 -1.5661
26985SOL    HW288196   6.314   4.514   0.745  1.9317  0.8705 -0.7485
26986SOL     OW88197   2.733   5.722   2.073 -0.8659  0.6176  0.1704
26986SOL    HW188198   2.797   5.729   2.003 -2.3043  0.2407 -1.2523
26986SOL    HW288199   2.700   5.633   2.067 -1.9673  0.9842  0.4367
26987SOL     OW88200   7.205   3.232   3.138 -0.0130  0.0692 -0.3966
26987SOL    HW188201   7.201   3.291   3.063  2.4784  0.8428 -0.0324
26987SOL    HW288202   7.238   3.150   3.101  2.3323  0.7878 -0.0938
26988SOL     OW88203   5.434   7.129   4.955  0.1413  0.1776  0.3684
26988SOL    HW188204   5.470   7.059   5.008 -0.0250  1.3069  2.0668
26988SOL    HW288205   5.371   7.086   4.897 -0.4785 -0.9956  1.8418
26989SOL     OW88206  11.608   1.393   4.431  0.4338 -0.6112 -0.4615
26989SOL    HW188207  11.627   1.306   4.399  2.0287 -0.6085  0.3841
26989SOL    HW288208  11.512   1.400   4.428  0.1987 -2.7942  0.5170
26990SOL     OW88209   2.317   5.138  11.846 -0.0122 -0.0771 -0.0422
26990SOL    HW188210   2.289   5.103  11.761  1.0104 -0.0469 -0.4112
26990SOL    HW288211   2.409   5.111  11.854  0.1089  0.5131  0.7397
26991SOL     OW88212   4.380   9.634   2.255  0.0802  0.2850 -0.1965
26991SOL    HW188213   4.318   9.706   2.246  0.2482  0.5592  0.7953
26991SOL    HW288214   4.461   9.667   2.216 -0.0567  0.3543 -0.4246
26992SOL     OW88215   2.017   6.501   2.812  1.2165  0.5868  0.5808
26992SOL    HW188216   2.070   6.548   2.876  1.4818 -0.8524  1.4590
26992SOL    HW288217   2.070   6.427   2.786  0.3039  0.0387  0.2196
26993SOL     OW88218   6.663   8.242   9.816 -0.0685 -0.6601 -0.0018
26993SOL    HW188219   6.719   8.290   9.755  0.0393 -1.8725 -0.8944
26993SOL    HW288220   6.723   8.194   9.872 -0.1873 -0.2471  0.4908
26994SOL     OW88221   9.894   4.157  12.003  0.5508 -0.1846  0.5294
26994SOL    HW188222   9.812   4.140  12.049 -0.0455  1.2460  0.0481
26994SOL    HW288223   9.908   4.079  11.949 -0.5439 -0.4045  0.5391
26995SOL     OW88224   7.530   3.977   2.413  0.2907  0.2921  0.1703
26995SOL    HW188225   7.508   3.994   2.321  0.6746  1.0873  0.2166
26995SOL    HW288226   7.460   3.919   2.443  0.4315 -0.3869 -0.7576
26996SOL     OW88227   0.119   7.367  11.232  0.5980 -0.1054  0.1945
26996SOL    HW188228   0.172   7.442  11.205 -0.5165  0.7475  0.3293
26996SOL    HW288229   0.181   7.294  11.232  1.1266  0.2415 -2.6215
26997SOL     OW88230  11.676   7.432   8.382 -0.1709 -0.3980  0.0237
26997SOL    HW188231  11.752   7.486   8.361 -0.9080  0.6689 -0.0394
26997SOL    HW288232  11.601   7.483   8.350 -0.8888 -1.6431 -0.3757
26998SOL     OW88233   1.233   6.181   7.921  0.8084  0.1829 -0.5244
26998SOL    HW188234   1.254   6.225   7.839  0.1269  0.4294 -0.5739
26998SOL    HW288235   1.157   6.229   7.955  0.1588 -0.8460 -0.4916
26999SOL     OW88236   2.858   5.895   6.450  0.1239  0.3323 -0.3181
26999SOL    HW188237   2.841   5.802   6.434  0.1581  0.2663  0.0023
26999SOL    HW288238   2.891   5.929   6.367 -1.6376  0.4936 -0.9951
27000SOL     OW88239   1.160   7.607  12.258  0.6116  0.2000 -0.0029
27000SOL    HW188240   1.117   7.681  12.215  0.6407  0.1525 -0.1136
27000SOL    HW288241   1.123   7.605  12.346  1.3613  0.9926  0.3518
27001SOL     OW88242  11.464   6.937  11.898  0.1287 -0.3037  0.1298
27001SOL    HW188243  11.375   6.934  11.933 -0.5435 -1.3355 -1.5886
27001SOL    HW288244  11.486   6.846  11.881  1.0392  0.0524 -0.6449
27002SOL     OW88245   4.785   5.738  10.088  0.4715 -0.3778 -0.5055
27002SOL    HW188246   4.729   5.815  10.100  0.6803 -0.0427 -1.5748
27002SOL    HW288247   4.764   5.708   9.999  0.6972 -1.3120 -0.2483
27003SOL     OW88248   8.906   1.647   3.993  0.5908 -0.2395  0.0252
27003SOL    HW188249   8.851   1.725   3.989  0.3912 -0.4083 -0.8504
27003SOL    HW288250   8.995   1.680   4.003  0.3605  0.0422  1.3217
27004SOL     OW88251   0.209   0.866   7.452  0.1200  0.3433  0.2487
27004SOL    HW188252   0.136   0.891   7.397 -2.1147 -2.2246  1.7748
27004SOL    HW288253   0.260   0.805   7.399  0.4561  1.1694 -0.3894
27005SOL     OW88254   9.333   8.405   2.142 -0.6834  0.1851 -0.0452
27005SOL    HW188255   9.395   8.477   2.131 -1.9860  1.2878 -0.5544
27005SOL    HW288256   9.270   8.438   2.206 -1.6733 -0.2319 -0.7736
27006SOL     OW88257   5.646  11.074  12.052  0.4338  0.1184 -0.3194
27006SOL    HW188258   5.661  11.131  12.127 -2.0576  1.0111 -0.4018
27006SOL    HW288259   5.707  11.105  11.985  1.0108  0.8860  0.5470
27007SOL     OW88260  10.145   6.680   1.088 -0.6334  0.7622 -0.3121
27007SOL    HW188261  10.219   6.630   1.121 -0.5036  2.4772  2.2500
27007SOL    HW288262  10.090   6.615   1.044  0.2621 -1.3524  1.4893
27008SOL     OW88263   7.222   3.734   9.838 -0.5774 -0.6368  0.1847
27008SOL    HW188264   7.195   3.692   9.756  1.4272 -1.2709 -0.1951
27008SOL    HW288265   7.170   3.814   9.842  0.2304  0.0976 -2.4066
27009SOL     OW88266   4.498   4.879  11.823 -0.1672 -0.0335 -0.1925
27009SOL    HW188267   4.418   4.918  11.789  0.1441 -0.3489 -1.3028
27009SOL    HW288268   4.569   4.926  11.780  0.3509  1.5533  2.1707
27010SOL     OW88269  10.543   3.414   4.654 -0.1900  0.5112 -0.3791
27010SOL    HW188270  10.635   3.427   4.678  0.0397 -1.0421 -0.2949
27010SOL    HW288271  10.493   3.464   4.719  0.5422 -0.3842  0.9119
27011SOL     OW88272  12.140   7.237   1.703  0.0211 -0.0791  0.4024
27011SOL    HW188273  12.103   7.307   1.649 -0.3822 -0.3553  0.3143
27011SOL    HW288274  12.165   7.169   1.640  0.0175 -0.1881  0.5189
27012SOL     OW88275  10.889   6.732   2.031 -0.4891 -0.0578  0.4613
27012SOL    HW188276  10.937   6.681   2.096  1.0809  1.9240  0.9833
27012SOL    HW288277  10.944   6.729   1.953 -0.7138  0.2681  0.2886
27013SOL     OW88278   7.347   4.425  11.923 -0.8033 -0.1201 -0.3907
27013SOL    HW188279   7.367   4.476  11.845  2.2223 -0.7155 -0.1101
27013SOL    HW288280   7.328   4.491  11.990  0.9950  0.6038 -0.5440
27014SOL     OW88281   2.930   3.356   0.203 -0.3264  0.4222  0.4866
27014SOL    HW188282   2.861   3.422   0.189 -1.1350 -0.7449 -1.3775
27014SOL    HW288283   3.009   3.396   0.166 -0.8854  0.2565 -0.9535
27015SOL     OW88284  11.314   8.914   8.995  0.5983 -0.1168  0.3057
27015SOL    HW188285  11.220   8.904   8.980  0.4210 -1.2989  1.9803
27015SOL    HW288286  11.323   8.924   9.090  2.0036  2.3056  0.0159
27016SOL     OW88287  11.699   6.261  11.533  0.5657  0.3428 -0.1203
27016SOL    HW188288  11.621   6.233  11.486  1.0416 -0.6255 -0.3447
27016SOL    HW288289  11.676   6.348  11.566 -0.0763  0.6947 -1.4210
27017SOL     OW88290   4.357   8.876   2.137 -0.3249 -0.4679 -0.0808
27017SOL    HW188291   4.403   8.911   2.062 -1.7129 -0.6781 -1.0776
27017SOL    HW288292   4.335   8.953   2.190 -2.9761  0.2668 -2.0347
27018SOL     OW88293   3.046   3.258   2.615  0.6536 -0.2877 -0.0874
27018SOL    HW188294   2.954   3.263   2.587  0.7226  0.5948 -0.1820
27018SOL    HW288295   3.096   3.275   2.535  0.8586  1.8153  0.4247
27019SOL     OW88296  11.950   5.663   2.284 -0.4256  0.2533  0.1230
27019SOL    HW188297  11.918   5.599   2.348 -0.9255 -0.2267 -0.6007
27019SOL    HW288298  11.871   5.698   2.244 -0.0840 -0.9478 -1.6880
27020SOL     OW88299   1.971   8.318  11.870  0.0767 -0.7959  0.0147
27020SOL    HW188300   2.010   8.332  11.957 -0.7646 -0.7553  0.3970
27020SOL    HW288301   1.876   8.323  11.885 -0.0630  0.0429 -1.0494
27021SOL     OW88302  10.576   9.886   6.496 -0.4566  0.6674  0.0186
27021SOL    HW188303  10.606   9.796   6.487  1.3430  1.2831 -0.5710
27021SOL    HW288304  10.609   9.914   6.582 -3.1402  0.0437  1.3461
27022SOL     OW88305   2.379   3.988   0.926 -0.0232 -0.4416 -0.5535
27022SOL    HW188306   2.393   4.041   1.005  0.6589 -0.1078 -0.8897
27022SOL    HW288307   2.340   4.050   0.863  0.2479 -0.4803 -0.7612
27023SOL     OW88308   9.877   7.290   9.380 -0.2780 -0.3745  0.1630
27023SOL    HW188309   9.893   7.375   9.340 -1.4219  0.4998  1.4884
27023SOL    HW288310   9.847   7.310   9.469  0.7992 -2.1989  1.0067
27024SOL     OW88311   0.232   1.519   6.163  0.1537  0.8496  0.5781
27024SOL    HW188312   0.297   1.570   6.116  0.9419  0.6744  1.4355
27024SOL    HW288313   0.268   1.430   6.165 -0.9485  0.3517 -0.4417
27025SOL     OW88314   8.845  12.106   8.227 -0.0561 -0.3469  0.1777
27025SOL    HW188315   8.842  12.063   8.142  0.5780 -1.1346  0.5431
27025SOL    HW288316   8.868  12.197   8.207  1.3019 -0.7930 -0.4186
27026SOL     OW88317   0.581  11.602  12.076 -0.9780  0.3153 -0.8152
27026SOL    HW188318   0.513  11.546  12.039  1.0890 -2.3598 -0.9489
27026SOL    HW288319   0.663  11.566  12.041  0.7876  0.7789  2.3994
27027SOL     OW88320   4.897   0.735  11.731 -0.1055 -0.0606  0.3959
27027SOL    HW188321   4.925   0.815  11.686 -2.4631  0.5092 -0.1708
27027SOL    HW288322   4.968   0.717  11.792  1.3204  1.4487 -0.7012
27028SOL     OW88323   9.301   5.933   3.989  0.5725 -0.0511 -0.5294
27028SOL    HW188324   9.395   5.931   4.001  0.5750 -0.3256 -0.5916
27028SOL    HW288325   9.289   5.953   3.896  0.5565  1.2257 -0.2687
27029SOL     OW88326   4.572   4.716   7.221 -0.2372 -0.2375 -0.0571
27029SOL    HW188327   4.553   4.802   7.185  0.5754  0.4641  1.1238
27029SOL    HW288328   4.527   4.715   7.306 -0.8698 -1.2755 -0.3889
27030SOL     OW88329  10.912   7.024   2.226 -0.1710  0.3000 -0.3069
27030SOL    HW188330  10.944   6.952   2.280  1.4804  0.4493 -1.0261
27030SOL    HW288331  10.829   6.993   2.190  0.4143 -1.1556 -0.4478
27031SOL     OW88332   0.553   9.924   9.288 -0.3412  0.0440 -0.9621
27031SOL    HW188333   0.510   9.845   9.253 -1.5287  1.1278 -2.0449
27031SOL    HW288334   0.613   9.951   9.219 -0.0728  0.2015 -0.6685
27032SOL     OW88335   0.028   5.813   5.829 -0.0926  0.0105 -0.8020
27032SOL    HW188336   0.054   5.841   5.917  0.2609 -0.1322 -0.8567
27032SOL    HW288337   0.022   5.718   5.835 -0.0035 -0.0054 -0.9450
27033SOL     OW88338   5.528   0.615   2.533 -0.2753  0.5970 -0.3957
27033SOL    HW188339   5.571   0.677   2.593  1.3832 -0.0155 -0.8837
27033SOL    HW288340   5.567   0.530   2.554 -1.5417 -0.0663 -0.6344
27034SOL     OW88341   4.087   3.504   1.330 -0.1209  0.4591  0.3163
27034SOL    HW188342   4.079   3.410   1.311 -1.6527  0.4328  0.9178
27034SOL    HW288343   4.009   3.542   1.290 -1.0087  1.0608  2.4905
27035SOL     OW88344   0.835   9.772   5.550  0.3512 -0.0506  0.2661
27035SOL    HW188345   0.826   9.859   5.512  0.6964  0.2305  0.8245
27035SOL    HW288346   0.925   9.746   5.529  0.8226  0.4462  1.5792
27036SOL     OW88347   4.377   8.171   6.399 -0.1154 -0.1010  0.1544
27036SOL    HW188348   4.444   8.104   6.389  2.5144  2.6020 -2.2660
27036SOL    HW288349   4.372   8.186   6.493  1.8799 -1.1522  0.4912
27037SOL     OW88350   8.844   5.045   4.270  0.6409 -0.3058 -0.2512
27037SOL    HW188351   8.851   5.139   4.254  1.4025 -0.5354 -1.3226
27037SOL    HW288352   8.880   5.033   4.358  1.3402  0.2852 -0.4529
27038SOL     OW88353  11.209   9.869   3.332 -0.4075 -0.4211 -0.4961
27038SOL    HW188354  11.181   9.959   3.347  0.6904  0.0820 -1.3202
27038SOL    HW288355  11.256   9.844   3.411 -2.5972 -1.0826  0.6700
27039SOL     OW88356   7.790   1.196   0.731  0.1342  0.0335 -0.0249
27039SOL    HW188357   7.772   1.184   0.825 -0.2150 -0.2279 -0.1260
27039SOL    HW288358   7.742   1.275   0.708  3.4998  2.6435  0.9541
27040SOL     OW88359   2.930   1.685   5.243  0.3030 -0.1270 -0.3111
27040SOL    HW188360   2.934   1.708   5.336  0.2436 -0.1160 -0.3113
27040SOL    HW288361   2.997   1.740   5.202 -1.2237  1.5549 -0.6280
27041SOL     OW88362   4.974   1.080   6.657  0.1223  0.2880 -0.2175
27041SOL    HW188363   5.022   1.018   6.712 -0.9284  0.3724  0.8187
27041SOL    HW288364   4.971   1.161   6.708 -0.3735  0.5431 -0.6476
27042SOL     OW88365   4.638   2.897  10.102 -0.6816 -0.5138 -0.6316
27042SOL    HW188366   4.734   2.894  10.107 -0.7276 -1.0319  0.1876
27042SOL    HW288367   4.609   2.837  10.170 -1.6360  1.7313  1.0595
27043SOL     OW88368  11.958  11.524   9.312  0.3508 -0.4761  0.2681
27043SOL    HW188369  12.015  11.455   9.344  0.7363 -0.9107 -1.2523
27043SOL    HW288370  11.980  11.601   9.364 -0.4220 -1.5775  2.3246
27044SOL     OW88371   8.504   3.764   7.329 -0.2100  0.2030  0.4848
27044SOL    HW188372   8.514   3.671   7.308 -1.4903  0.2350 -0.4099
27044SOL    HW288373   8.579   3.806   7.286  0.4268 -0.4101  0.9679
27045SOL     OW88374  10.786   7.353   4.112  0.1432  0.5672 -0.3147
27045SOL    HW188375  10.789   7.445   4.085 -0.6533  0.5456 -0.5078
27045SOL    HW288376  10.837   7.350   4.193  0.8213  1.0316 -0.7148
27046SOL     OW88377   1.634   6.300   4.606  0.0282  0.2094 -0.1946
27046SOL    HW188378   1.645   6.394   4.597  0.9266  0.0669 -0.7848
27046SOL    HW288379   1.542   6.284   4.587 -0.3734  1.0679  0.9249
27047SOL     OW88380  10.687   9.635   9.045 -0.5402 -0.3083  0.2444
27047SOL    HW188381  10.642   9.570   9.099  0.2595  0.4179  1.8638
27047SOL    HW288382  10.623   9.705   9.033 -0.2401  0.2161  1.5824
27048SOL     OW88383   0.836   1.014  11.920 -0.1977  0.3692  0.1777
27048SOL    HW188384   0.812   1.043  12.008  0.7326 -0.2866  0.6617
27048SOL    HW288385   0.771   0.946  11.899  0.1865 -0.2013  0.7898
27049SOL     OW88386   8.709   5.573   3.698 -0.0008 -0.4149 -0.1081
27049SOL    HW188387   8.667   5.507   3.753  0.6772 -1.0399 -0.3343
27049SOL    HW288388   8.690   5.546   3.609 -1.8316  1.0667 -0.2229
27050SOL     OW88389   3.885   9.839   6.196 -0.4728 -0.4458  0.0095
27050SOL    HW188390   3.861   9.766   6.253 -1.2840 -0.4085 -0.2626
27050SOL    HW288391   3.804   9.889   6.185 -0.1446 -0.0137 -0.5346
27051SOL     OW88392   6.366   0.119   9.158  0.0727  0.2741  0.1002
27051SOL    HW188393   6.301   0.159   9.101 -0.5509  1.0568  1.3145
27051SOL    HW288394   6.339   0.144   9.247  1.6221  0.0224  0.6780
27052SOL     OW88395   1.756   0.087   8.889  0.3881 -0.6453  0.4527
27052SOL    HW188396   1.743   0.180   8.903  0.7608 -0.0709 -2.4028
27052SOL    HW288397   1.668   0.049   8.890  0.2591 -0.3583  1.9443
27053SOL     OW88398   1.642   5.039   7.814  0.5423 -0.2546  0.4229
27053SOL    HW188399   1.563   4.987   7.827 -0.8168  1.6456  0.2238
27053SOL    HW288400   1.665   5.027   7.722  0.5534 -0.9045  0.5098
27054SOL     OW88401   3.193  11.102  10.435 -0.6332  0.1305 -0.5469
27054SOL    HW188402   3.193  11.146  10.351 -0.0584 -0.4996 -0.8917
27054SOL    HW288403   3.259  11.149  10.487 -0.0634 -0.2708 -0.8932
27055SOL     OW88404   5.854   3.604   1.877  0.3209  0.0807  0.3691
27055SOL    HW188405   5.867   3.656   1.798  1.5175 -1.9880 -0.8925
27055SOL    HW288406   5.888   3.658   1.948  2.1136  0.7989 -0.9571
27056SOL     OW88407   5.461   5.183   5.854  0.2632  0.1807  0.2007
27056SOL    HW188408   5.501   5.235   5.924  0.1119  2.4161 -1.2772
27056SOL    HW288409   5.479   5.233   5.774 -1.7507 -0.9829 -1.0467
27057SOL     OW88410   8.746   5.653   8.377 -0.0886  0.4356  0.9141
27057SOL    HW188411   8.736   5.747   8.364  0.1369  0.5427  1.5064
27057SOL    HW288412   8.691   5.633   8.453 -0.2158  0.0720  0.7290
27058SOL     OW88413   4.400   7.375   3.997  0.1816  1.0106  0.3958
27058SOL    HW188414   4.339   7.411   4.062  0.3521  1.2723  0.4119
27058SOL    HW288415   4.486   7.387   4.037  0.2999  1.3370  0.0363
27059SOL     OW88416   0.889   6.507   1.385 -0.6693 -0.1126  0.6767
27059SOL    HW188417   0.904   6.415   1.406  1.6124  0.2468  0.9561
27059SOL    HW288418   0.820   6.535   1.445  0.7199 -0.9061  2.7569
27060SOL     OW88419   3.376   7.177   7.270 -0.0053  0.2381  0.0088
27060SOL    HW188420   3.456   7.226   7.289 -0.0856  0.6283 -0.6667
27060SOL    HW288421   3.380   7.102   7.329  1.2752 -0.2000 -0.6065
27061SOL     OW88422  11.547   8.032   2.467  0.5068 -0.1361  0.6050
27061SOL    HW188423  11.571   8.108   2.521 -2.0976  0.5723  0.8842
27061SOL    HW288424  11.497   7.976   2.525 -1.8270  0.3492 -0.8238
27062SOL     OW88425  10.308  12.201   1.231 -0.5375  0.0338  0.4619
27062SOL    HW188426  10.355  12.181   1.312  0.3478 -1.2167 -0.3185
27062SOL    HW288427  10.248  12.128   1.220 -0.3341 -0.0391 -0.2237
27063SOL     OW88428   9.392   2.719   1.988 -0.0460 -0.2632 -0.9176
27063SOL    HW188429   9.364   2.668   2.064  0.8849  1.8407  0.9202
27063SOL    HW288430   9.311   2.757   1.954 -0.4000 -0.7978 -0.6911
27064SOL     OW88431  10.943   1.599   2.343  0.3728 -0.0767  0.0255
27064SOL    HW188432  10.899   1.516   2.361  1.5543 -0.4482  1.4080
27064SOL    HW288433  10.873   1.663   2.339 -0.5374 -1.0846 -0.8078
27065SOL     OW88434   1.247  11.178  10.401 -0.4774  0.5874  0.0589
27065SOL    HW188435   1.160  11.138  10.407 -0.9807  1.5860 -0.3637
27065SOL    HW288436   1.286  11.165  10.488 -1.0462  0.1604  0.2560
27066SOL     OW88437  10.453   5.908   1.885  0.6293 -0.4566  0.7495
27066SOL    HW188438  10.391   5.874   1.820  1.3714  2.5349 -1.7503
27066SOL    HW288439  10.397   5.955   1.948  0.1353  0.4997 -0.3525
27067SOL     OW88440  11.573   8.429  11.189 -0.4094 -0.1859  0.1765
27067SOL    HW188441  11.648   8.450  11.245 -0.6536  2.1154 -0.2652
27067SOL    HW288442  11.612   8.395  11.109  0.2606  1.7373 -0.3608
27068SOL     OW88443   6.178   0.455   9.333 -0.0723 -0.1664  0.1852
27068SOL    HW188444   6.129   0.533   9.309  0.0175 -0.1095  0.1874
27068SOL    HW288445   6.270   0.476   9.314 -0.1441 -0.6020 -0.6958
27069SOL     OW88446  11.817   9.013   3.443  0.1237 -0.2188 -0.1080
27069SOL    HW188447  11.836   9.051   3.358 -1.4737 -0.7094 -0.7047
27069SOL    HW288448  11.729   8.978   3.436  0.1286 -0.7054  1.6013
27070SOL     OW88449   5.853   0.243   7.304 -0.0118 -0.7277 -0.1627
27070SOL    HW188450   5.797   0.295   7.247 -0.1877 -1.1536 -0.3780
27070SOL    HW288451   5.897   0.308   7.359 -1.8660 -0.4464  1.0930
27071SOL     OW88452   8.215   0.684  10.745 -0.2699 -0.0727 -0.2173
27071SOL    HW188453   8.202   0.619  10.675  2.9332 -1.2732  0.0927
27071SOL    HW288454   8.200   0.768  10.702 -1.5492 -0.8848 -1.4610
27072SOL     OW88455   2.730   6.590   4.097  0.0106 -0.5162  0.0440
27072SOL    HW188456   2.820   6.617   4.116  0.1502  0.9476 -2.2845
27072SOL    HW288457   2.714   6.623   4.008 -2.5105 -1.5766  0.0406
27073SOL     OW88458  10.070   3.991   4.140 -0.1840 -0.3820  0.2063
27073SOL    HW188459  10.036   4.051   4.074 -2.1562 -0.8410  0.7317
27073SOL    HW288460  10.106   4.047   4.208  0.0436  0.1347 -0.3343
27074SOL     OW88461   1.109  11.063   1.356 -0.4402  0.6339 -0.6487
27074SOL    HW188462   1.154  11.143   1.331 -0.6936  0.4277 -1.8472
27074SOL    HW288463   1.120  11.057   1.450  1.9149  0.6731 -0.8733
27075SOL     OW88464   0.844  12.557   0.652  0.0859 -0.0302 -0.6769
27075SOL    HW188465   0.778  12.551   0.721  1.3748  1.4040  0.7501
27075SOL    HW288466   0.842  12.649   0.626  1.0002 -0.1401 -1.1567
27076SOL     OW88467   6.817   6.224   8.799  0.5124  0.1667  0.0348
27076SOL    HW188468   6.907   6.205   8.773  0.0868 -0.7811 -0.8004
27076SOL    HW288469   6.772   6.139   8.796  0.1008  0.2129  2.6327
27077SOL     OW88470   9.842   8.497   2.943 -0.4164  0.7119 -0.2654
27077SOL    HW188471   9.753   8.532   2.953 -0.9634 -0.2189 -1.5763
27077SOL    HW288472   9.898   8.565   2.980 -1.7097  0.9166  1.4561
27078SOL     OW88473   0.890   1.670   7.009 -1.0043 -0.4665 -0.6437
27078SOL    HW188474   0.915   1.639   6.922  0.4434 -1.7755  0.1998
27078SOL    HW288475   0.927   1.606   7.069 -0.2401  1.4612  1.0578
27079SOL     OW88476   8.792  10.714   0.676  0.9345  0.1973  0.4383
27079SOL    HW188477   8.720  10.660   0.709 -0.2341  1.0439 -0.6387
27079SOL    HW288478   8.751  10.772   0.612  2.6230  0.5834 -0.3360
27080SOL     OW88479   7.764   3.785   4.973  0.8290  0.1648  0.0900
27080SOL    HW188480   7.676   3.784   5.010  1.2184 -0.8681  1.0357
27080SOL    HW288481   7.822   3.800   5.048  1.6106 -1.5998 -0.1282
27081SOL     OW88482   2.973   9.638   4.188  0.0447 -0.3781  0.2823
27081SOL    HW188483   3.001   9.675   4.104  0.7220 -0.0164  0.6623
27081SOL    HW288484   2.878   9.628   4.179  0.1765 -0.8255 -0.7149
27082SOL     OW88485   3.330   2.198   8.735  0.1706 -0.1940  0.1527
27082SOL    HW188486   3.291   2.214   8.648  0.0943  0.5083  0.3102
27082SOL    HW288487   3.363   2.108   8.730 -1.4507 -0.8186  0.0042
27083SOL     OW88488   6.087   1.778   4.180  0.0750 -0.1650  0.2296
27083SOL    HW188489   6.088   1.811   4.270  0.2302 -0.7996  0.4659
27083SOL    HW288490   6.159   1.715   4.177 -0.8656 -1.2704  0.0966
27084SOL     OW88491  10.160   8.575   6.920 -0.2286  0.2193 -0.5097
27084SOL    HW188492  10.104   8.623   6.981  0.7794 -0.5880  1.1247
27084SOL    HW288493  10.107   8.500   6.893 -0.1259 -0.3277  0.7174
27085SOL     OW88494   7.938   7.489  10.546  0.1129 -0.8387  0.8110
27085SOL    HW188495   7.955   7.504  10.639  1.8419 -0.9600  0.5324
27085SOL    HW288496   8.015   7.522  10.501 -1.4847  1.0091 -0.7749
27086SOL     OW88497   7.199  11.319   1.755  0.5593 -0.1359 -0.4026
27086SOL    HW188498   7.204  11.282   1.667 -2.0808  1.4744 -1.3692
27086SOL    HW288499   7.105  11.330   1.770  0.7717 -2.1823  3.4951
27087SOL     OW88500  11.522   6.603   6.545  0.2228  0.7521 -0.4500
27087SOL    HW188501  11.481   6.565   6.623  0.4825 -0.6101 -0.9542
27087SOL    HW288502  11.546   6.528   6.491  0.9074  1.6373 -1.4209
27088SOL     OW88503   5.385   9.251   7.699 -0.2866  0.3527 -0.4717
27088SOL    HW188504   5.385   9.158   7.724 -3.1864  0.4816  0.3211
27088SOL    HW288505   5.303   9.263   7.652 -0.6348  2.8161  0.6438
27089SOL     OW88506   2.071  10.299   2.350  0.3551  0.4814 -0.4782
27089SOL    HW188507   2.141  10.312   2.414 -1.0261 -0.1182  1.2189
27089SOL    HW288508   2.014  10.376   2.360 -0.1871  0.0956 -0.5453
27090SOL     OW88509   8.533   0.698   5.158 -0.0333  0.4409 -0.1097
27090SOL    HW188510   8.608   0.751   5.129  0.5334  0.6012  1.5097
27090SOL    HW288511   8.506   0.739   5.241 -1.0358 -0.4587  0.0255
27091SOL     OW88512   1.573   6.111   1.701 -0.1311  0.6239 -0.4467
27091SOL    HW188513   1.611   6.045   1.643 -2.0169 -2.0173  1.1015
27091SOL    HW288514   1.499   6.146   1.653  0.5852  1.3187 -1.0789
27092SOL     OW88515   4.642   1.977  12.177  0.0194 -0.6222  0.1382
27092SOL    HW188516   4.615   2.064  12.207  1.4762 -0.1053  0.0154
27092SOL    HW288517   4.642   1.924  12.257 -0.6475 -0.4624  0.2529
27093SOL     OW88518   1.570   1.266   4.036 -0.0449  0.0840  0.1120
27093SOL    HW188519   1.527   1.192   3.993  0.2703  0.1148 -0.2567
27093SOL    HW288520   1.569   1.243   4.129 -1.4792  0.3896  0.2031
27094SOL     OW88521   5.423   4.218   1.664 -0.0934 -0.5673 -0.3257
27094SOL    HW188522   5.514   4.231   1.692 -0.0253  0.4875 -0.9679
27094SOL    HW288523   5.419   4.126   1.637  1.5854  0.0394 -2.9861
27095SOL     OW88524  12.305   7.965   6.002  0.6803 -0.2769  0.3547
27095SOL    HW188525  12.226   7.968   5.948  0.0358 -0.7501  1.2354
27095SOL    HW288526  12.377   7.964   5.940  0.2142  3.7380 -0.4792
27096SOL     OW88527   0.382   6.938   2.433  0.2532 -0.3780 -0.4848
27096SOL    HW188528   0.327   6.984   2.496  1.5725  1.7565 -0.7728
27096SOL    HW288529   0.469   6.938   2.472  0.1935 -3.5042 -0.1277
27097SOL     OW88530   8.561   9.568   1.635 -0.4280 -0.0937 -0.0854
27097SOL    HW188531   8.506   9.579   1.712  0.3126 -2.0041  0.7889
27097SOL    HW288532   8.649   9.594   1.664  0.4692 -3.5224  0.7390
27098SOL     OW88533   5.128   4.881   2.502 -0.3182 -0.3450  0.4366
27098SOL    HW188534   5.190   4.810   2.485  0.0780  0.0005  0.4205
27098SOL    HW288535   5.068   4.846   2.568  0.9301 -0.1015  1.7395
27099SOL     OW88536   9.730   3.861   8.571 -0.1946 -0.2665 -0.2106
27099SOL    HW188537   9.759   3.773   8.594  0.1098  0.0377  0.5718
27099SOL    HW288538   9.790   3.919   8.616  0.8182  0.3667 -2.2622
27100SOL     OW88539   9.058   6.715  11.420  0.3622  0.8656  0.0019
27100SOL    HW188540   9.124   6.735  11.487  1.6557  0.4209 -1.1095
27100SOL    HW288541   9.083   6.770  11.345 -0.7180  0.9122 -0.3395
27101SOL     OW88542   7.907   7.075   3.247  0.8873 -0.1336  0.0407
27101SOL    HW188543   7.865   7.149   3.203  0.9437 -0.6401 -0.8926
27101SOL    HW288544   7.916   7.009   3.179  3.1053 -0.0953  0.2321
27102SOL     OW88545   8.507   5.086  11.023  0.1022 -0.3119 -0.5749
27102SOL    HW188546   8.424   5.065  11.066  0.3895 -0.4186 -0.0647
27102SOL    HW288547   8.552   5.002  11.017  0.2049 -0.2410 -0.7894
27103SOL     OW88548   6.168  10.529  11.915  0.4408 -0.1573  0.2951
27103SOL    HW188549   6.116  10.454  11.888  0.0601  0.5774 -1.0820
27103SOL    HW288550   6.255  10.493  11.935 -0.4984 -1.3839  2.5502
27104SOL     OW88551   9.160  12.492  12.026 -0.1061  0.0149 -0.4835
27104SOL    HW188552   9.104  12.562  11.992 -2.4706 -1.4191  0.2419
27104SOL    HW288553   9.166  12.509  12.120  2.5635  1.3474 -0.8105
27105SOL     OW88554   6.080   6.223  11.646 -0.2619  0.1531  0.2335
27105SOL    HW188555   6.026   6.162  11.595 -1.3178  0.6802  0.6853
27105SOL    HW288556   6.034   6.306  11.640 -0.1164  0.3527  1.5753
27106SOL     OW88557   8.686   8.910   7.969  0.1024 -0.3918  0.1652
27106SOL    HW188558   8.708   8.858   8.046 -1.3305 -0.8176  0.3251
27106SOL    HW288559   8.594   8.889   7.952 -0.4739  1.8997  0.0941
27107SOL     OW88560  12.121   9.684   4.609  0.0497  0.2160  0.6775
27107SOL    HW188561  12.185   9.703   4.540 -0.6783 -0.8089 -0.3302
27107SOL    HW288562  12.053   9.751   4.596 -0.8264 -0.8577 -0.6342
27108SOL     OW88563  12.558   9.728   0.046 -0.9863  0.1781 -0.2601
27108SOL    HW188564  12.641   9.767   0.071 -1.1768  1.1663 -1.0584
27108SOL    HW288565  12.501   9.740   0.122  0.1660 -2.5095  1.1794
27109SOL     OW88566  10.030   2.204   3.253 -0.0156 -0.1945  0.3472
27109SOL    HW188567  10.104   2.206   3.192 -0.5387  0.7376 -0.2855
27109SOL    HW288568   9.991   2.118   3.240  1.0250 -0.7345  0.7713
27110SOL     OW88569   1.999   5.093  11.583 -0.1251  0.1684  0.1901
27110SOL    HW188570   2.085   5.050  11.586 -1.1613 -2.0256  0.5419
27110SOL    HW288571   1.974   5.090  11.490 -0.9516 -1.7110  0.4276
27111SOL     OW88572   6.005   8.165   9.638  0.1097 -0.1413  0.0468
27111SOL    HW188573   5.966   8.078   9.641 -1.2340  0.2083 -3.2350
27111SOL    HW288574   5.942   8.222   9.681 -1.3703 -0.1576 -1.9698
27112SOL     OW88575  10.594  10.561   4.558 -0.6206  0.0356 -0.3746
27112SOL    HW188576  10.639  10.551   4.642  0.2394  2.7454 -0.4188
27112SOL    HW288577  10.653  10.522   4.494 -0.6123 -0.7321  0.0812
27113SOL     OW88578   8.284   8.964   8.707 -0.3838  0.9404 -0.4727
27113SOL    HW188579   8.296   9.026   8.635 -1.6714  0.7668 -0.8612
27113SOL    HW288580   8.337   8.889   8.682 -0.4410  1.0744 -1.0213
27114SOL     OW88581  11.906   9.531   5.621 -0.4683  0.6781  0.2736
27114SOL    HW188582  11.971   9.474   5.662 -0.6324  0.0899 -0.2615
27114SOL    HW288583  11.862   9.475   5.557 -0.2342  1.5445 -0.6827
27115SOL     OW88584  11.794  10.742  11.682  0.1823 -0.5745 -0.0965
27115SOL    HW188585  11.818  10.653  11.659  1.9924 -0.2499  0.3620
27115SOL    HW288586  11.877  10.789  11.686 -0.7802  1.3858 -1.2887
27116SOL     OW88587  10.730   3.979   0.285 -0.1275 -0.4562 -0.2508
27116SOL    HW188588  10.663   3.943   0.227 -0.6953 -0.0898  0.1749
27116SOL    HW288589  10.796   4.016   0.225  0.0460 -1.4248 -0.6783
27117SOL     OW88590  11.587   2.920   8.273 -0.0244 -0.3024  0.4482
27117SOL    HW188591  11.548   2.884   8.193 -1.0393  1.9123 -0.1199
27117SOL    HW288592  11.515   2.924   8.336  0.2898 -0.1016  0.7999
27118SOL     OW88593   0.721   9.753   7.446 -0.6394  0.4446 -0.0217
27118SOL    HW188594   0.691   9.837   7.480  0.7491  1.2210 -0.5890
27118SOL    HW288595   0.740   9.700   7.523 -1.0470  0.8312  0.3469
27119SOL     OW88596   8.342  10.065   6.437  0.0022  0.1908  0.2116
27119SOL    HW188597   8.329  10.012   6.516  0.1092  1.1338  0.8835
27119SOL    HW288598   8.437  10.079   6.433 -0.1384  1.4801  0.8383
27120SOL     OW88599   1.477  10.752   5.350  0.0799  0.4601  0.8267
27120SOL    HW188600   1.503  10.662   5.372 -1.0811  0.0220  0.4860
27120SOL    HW288601   1.411  10.774   5.416 -0.6964  0.5139  0.0470
27121SOL     OW88602   1.680   1.218   5.841  0.6448 -0.4447  0.0752
27121SOL    HW188603   1.699   1.308   5.868  0.6995 -0.1997 -0.7450
27121SOL    HW288604   1.685   1.220   5.745 -0.2260 -1.1212 -0.0039
27122SOL     OW88605   3.386   2.263  11.622  0.0154 -0.0868 -0.4010
27122SOL    HW188606   3.369   2.169  11.620  3.4314 -0.9429  1.9189
27122SOL    HW288607   3.439   2.279  11.544 -0.5916 -0.0438 -0.8130
27123SOL     OW88608   3.045   0.568  11.615  0.0293 -0.3304  0.4007
27123SOL    HW188609   3.086   0.563  11.701  1.0323 -0.5446 -0.0788
27123SOL    HW288610   2.978   0.499  11.617  0.8980 -1.2042  0.5818
27124SOL     OW88611   9.758   1.154  12.393 -0.1639 -0.1276  0.0265
27124SOL    HW188612   9.691   1.190  12.335 -1.8822 -3.3387 -0.1706
27124SOL    HW288613   9.840   1.189  12.358 -1.4521  1.4053 -1.6844
27125SOL     OW88614   4.738  12.156   8.615  0.9402  0.3690  0.0584
27125SOL    HW188615   4.647  12.167   8.643  0.8400 -2.3549  1.1740
27125SOL    HW288616   4.789  12.202   8.681  0.4458 -1.1939  1.6190
27126SOL     OW88617   2.711   0.791   0.916  0.3475 -0.0776 -0.4607
27126SOL    HW188618   2.698   0.819   1.007 -2.2078 -0.4714 -0.6175
27126SOL    HW288619   2.634   0.826   0.870  0.6319 -1.4795 -2.0726
27127SOL     OW88620   3.661   0.417   6.310  0.4688  0.1734  0.3209
27127SOL    HW188621   3.593   0.459   6.364  0.3939 -0.7703  0.9797
27127SOL    HW288622   3.701   0.353   6.368 -0.1232 -1.4224 -0.9685
27128SOL     OW88623   2.675  11.919   0.307 -0.5877 -0.1963  0.6870
27128SOL    HW188624   2.696  11.963   0.224 -1.2220 -1.3231 -0.1083
27128SOL    HW288625   2.596  11.964   0.338  0.1561  0.8177  1.1588
27129SOL     OW88626   1.590   4.781   0.725 -0.5524  0.3449  0.1412
27129SOL    HW188627   1.635   4.821   0.651 -0.3194 -0.4547 -0.1662
27129SOL    HW288628   1.619   4.830   0.802 -0.1267  0.6314 -0.2046
27130SOL     OW88629   3.263  12.285   7.507  0.0037  0.1148 -0.0079
27130SOL    HW188630   3.269  12.200   7.464  1.7098 -0.0593  0.5179
27130SOL    HW288631   3.200  12.334   7.455 -0.9964 -1.4465 -0.3350
27131SOL     OW88632   0.464  11.023   4.600  0.4810  0.0956 -0.1026
27131SOL    HW188633   0.507  10.944   4.633  0.0149 -0.3286 -0.4917
27131SOL    HW288634   0.514  11.095   4.638 -0.1733 -0.3484  1.7452
27132SOL     OW88635   1.937   1.916   6.501  0.6716  0.0538 -0.6042
27132SOL    HW188636   2.032   1.914   6.500  0.6768 -1.5309 -2.2516
27132SOL    HW288637   1.910   1.825   6.483 -1.1119  0.7876 -1.9561
27133SOL     OW88638   9.019  11.191   9.983  0.4664 -0.0456  0.2344
27133SOL    HW188639   8.984  11.214   9.897  0.2855 -0.4412  0.1993
27133SOL    HW288640   8.991  11.101   9.997  2.1381 -0.6625 -0.1491
27134SOL     OW88641   4.921   6.727   7.548 -0.4021 -0.5748  0.0331
27134SOL    HW188642   4.985   6.673   7.595 -0.1358 -0.9299 -0.7254
27134SOL    HW288643   4.926   6.697   7.458  0.3913  1.2911 -0.6144
27135SOL     OW88644   4.980  11.646   1.178 -0.0156 -0.4878 -0.4747
27135SOL    HW188645   5.040  11.606   1.115  0.7977 -0.4165  0.2337
27135SOL    HW288646   5.035  11.707   1.228 -0.8332  0.1143 -0.2838
27136SOL     OW88647  11.368   1.794  11.035 -0.8130 -0.7054 -0.7272
27136SOL    HW188648  11.375   1.708  11.075  1.8116 -0.8616 -1.3746
27136SOL    HW288649  11.451   1.838  11.056 -1.7115  1.3459 -1.1630
27137SOL     OW88650   0.471   4.199  11.170 -0.8084 -0.2775  0.1613
27137SOL    HW188651   0.492   4.289  11.147 -0.0852 -0.5744 -0.3904
27137SOL    HW288652   0.395   4.206  11.229 -1.2926  0.6217 -0.5488
27138SOL     OW88653  11.176  10.926   7.905  0.2435 -0.1500  0.2894
27138SOL    HW188654  11.202  10.878   7.826  1.7294 -1.8546  1.7285
27138SOL    HW288655  11.234  10.894   7.973 -1.1554  1.0779  2.1710
27139SOL     OW88656   5.496   6.608   2.296  0.2346 -0.5446 -0.0961
27139SOL    HW188657   5.506   6.654   2.212  0.6205 -1.9234 -0.8340
27139SOL    HW288658   5.467   6.676   2.357  1.8616  0.9356 -0.8664
27140SOL     OW88659   9.006   5.330   5.745  0.0697 -0.4833  0.1624
27140SOL    HW188660   8.965   5.287   5.821 -0.6941  0.4662  0.3052
27140SOL    HW288661   9.026   5.418   5.776  1.4419 -0.6505 -0.1914
27141SOL     OW88662   1.163   1.213   0.678 -0.3309  0.4173  0.2872
27141SOL    HW188663   1.237   1.270   0.702 -0.4253  0.0339  1.5449
27141SOL    HW288664   1.092   1.274   0.659 -0.4919  0.7510  1.8276
27142SOL     OW88665  12.201  12.020   1.187 -0.3774  0.2222  0.5381
27142SOL    HW188666  12.182  11.964   1.261 -1.0820  0.5317  0.6030
27142SOL    HW288667  12.138  11.994   1.120 -0.2404  0.4471  0.3170
27143SOL     OW88668   7.785   1.786  10.495 -0.3447  0.1900  0.0502
27143SOL    HW188669   7.700   1.802  10.537 -1.4497 -2.9520 -0.7053
27143SOL    HW288670   7.765   1.724  10.424  2.4454  0.1839 -0.8481
27144SOL     OW88671  11.485   2.708   9.581  0.2233 -0.0659 -0.0530
27144SOL    HW188672  11.408   2.758   9.556  0.3569  0.6342  0.8425
27144SOL    HW288673  11.541   2.772   9.626  0.9615 -0.7422  0.0168
27145SOL     OW88674   8.434   9.661   2.602  0.8688 -0.1930 -0.0039
27145SOL    HW188675   8.486   9.581   2.592  1.8471  0.5329 -0.8399
27145SOL    HW288676   8.497   9.729   2.621  0.3126  0.8029 -1.5184
27146SOL     OW88677   8.639   8.167   5.664 -0.4487  0.0783  0.1934
27146SOL    HW188678   8.654   8.087   5.714  0.7881  0.3047  0.2049
27146SOL    HW288679   8.566   8.211   5.709 -0.5514 -0.6031  0.7034
27147SOL     OW88680   1.324   6.906  12.430  0.4056 -0.0299  0.1193
27147SOL    HW188681   1.302   6.819  12.464  1.6819 -0.4577 -0.0985
27147SOL    HW288682   1.325   6.895  12.335  1.2366  0.0354  0.1110
27148SOL     OW88683   9.384  11.051  11.639 -0.1320  0.3017 -0.0326
27148SOL    HW188684   9.463  11.098  11.668 -0.2683  0.3510  0.2700
27148SOL    HW288685   9.387  10.969  11.688  0.0606  0.0295 -0.4942
27149SOL     OW88686  10.912   3.673   0.982  0.2638  0.4382  0.5004
27149SOL    HW188687  10.823   3.676   1.018 -0.6631 -1.0844 -1.4925
27149SOL    HW288688  10.947   3.761   0.998 -0.6278  0.3766  3.5349
27150SOL     OW88689   0.730   7.286  12.509 -0.2208 -0.3731  0.3726
27150SOL    HW188690   0.766   7.243  12.587 -2.4307 -0.7384  1.2557
27150SOL    HW288691   0.721   7.216  12.445 -0.9091 -0.6133  0.7288
27151SOL     OW88692   1.477   4.769   8.602 -0.2030 -0.2977  0.6707
27151SOL    HW188693   1.532   4.840   8.635  0.7765 -0.5480 -0.3814
27151SOL    HW288694   1.472   4.783   8.508  2.9442 -3.5160 -0.1805
27152SOL     OW88695  10.107  10.421  10.536 -0.3454  0.5343  0.1102
27152SOL    HW188696  10.186  10.425  10.481 -0.6044 -1.1390 -0.4687
27152SOL    HW288697  10.039  10.463  10.484 -0.8045 -1.8275 -1.3741
27153SOL     OW88698   0.044   7.112   9.887 -0.3997  0.7377 -0.1064
27153SOL    HW188699   0.082   7.034   9.928 -0.2801  1.4009  1.0851
27153SOL    HW288700   0.072   7.107   9.796 -0.9637 -0.9695 -0.2244
27154SOL     OW88701   7.657   8.701  10.364 -0.3633 -0.6174  0.0032
27154SOL    HW188702   7.734   8.759  10.363 -0.9115  0.1634  0.7303
27154SOL    HW288703   7.641   8.680  10.272  1.3306 -1.6457 -0.1010
27155SOL     OW88704  12.160   3.774  11.774  0.6016  0.6098 -0.5061
27155SOL    HW188705  12.086   3.788  11.834  1.6561  1.3376  0.6885
27155SOL    HW288706  12.180   3.862  11.742 -0.4063  0.1503 -2.5665
27156SOL     OW88707   6.356   0.969  10.532 -0.2642 -0.2241  0.0238
27156SOL    HW188708   6.369   0.964  10.437 -1.5024  0.7305 -0.2252
27156SOL    HW288709   6.429   0.918  10.569 -0.7482 -2.1225 -1.4701
27157SOL     OW88710   0.542  10.327   9.486 -0.1704  0.5144  0.3197
27157SOL    HW188711   0.463  10.275   9.471 -0.6861  1.4239 -0.2613
27157SOL    HW288712   0.598  10.272   9.539 -0.6247 -0.6951 -0.4205
27158SOL     OW88713  10.382   1.824  11.015  0.0926 -0.2121  0.2458
27158SOL    HW188714  10.331   1.827  11.097  1.0799  0.9264  0.8489
27158SOL    HW288715  10.470   1.799  11.043  1.5724  4.0859  0.2445
27159SOL     OW88716   3.221  10.279   3.032  0.3305  0.1278 -0.2038
27159SOL    HW188717   3.190  10.256   3.119 -0.6171 -0.2193 -0.6197
27159SOL    HW288718   3.227  10.375   3.032  0.4877  0.1177  0.2860
27160SOL     OW88719   5.096   9.681   9.675 -0.5346 -0.2049 -0.5903
27160SOL    HW188720   5.112   9.739   9.601 -1.9426  1.4380  0.3220
27160SOL    HW288721   5.107   9.737   9.752 -0.9562 -1.3988  0.3744
27161SOL     OW88722   9.300   7.228   3.702 -0.5731 -0.4199 -0.2544
27161SOL    HW188723   9.262   7.175   3.631  0.2973  2.6176 -3.2247
27161SOL    HW288724   9.249   7.309   3.701  0.7669  0.4975  1.2694
27162SOL     OW88725   5.676  11.865   3.799 -0.5916  0.0344  0.3760
27162SOL    HW188726   5.741  11.875   3.729  0.1754 -1.1636  0.8811
27162SOL    HW288727   5.592  11.874   3.755 -0.0993  1.6202 -0.3006
27163SOL     OW88728  12.701   9.711   9.540 -0.0088 -0.2262 -0.1265
27163SOL    HW188729  12.751   9.727   9.619  2.3459  0.8582 -1.7317
27163SOL    HW288730  12.632   9.649   9.567  1.1577 -0.4908  2.5373
27164SOL     OW88731   1.803   9.973   3.954  0.1379  0.1937  0.0862
27164SOL    HW188732   1.768   9.890   3.922 -0.7026 -0.1845  1.8816
27164SOL    HW288733   1.777  10.037   3.887 -0.1661 -0.8009 -0.7734
27165SOL     OW88734  11.205   8.287   5.529  0.1811  0.5082  0.4434
27165SOL    HW188735  11.283   8.269   5.581  1.9605  0.5042 -2.0324
27165SOL    HW288736  11.176   8.201   5.498 -2.2082  0.2291  2.9882
27166SOL     OW88737   7.605   3.204   6.636 -0.6364 -0.0799  0.1269
27166SOL    HW188738   7.685   3.161   6.605 -0.6585  0.0702 -0.1485
27166SOL    HW288739   7.637   3.271   6.696 -0.4137  1.0265 -1.1552
27167SOL     OW88740  10.141   6.232   0.934 -0.0165 -0.1953 -0.2678
27167SOL    HW188741  10.141   6.322   0.902 -1.9589 -0.7823 -2.1636
27167SOL    HW288742  10.193   6.183   0.870 -0.3160 -0.6742 -0.1520
27168SOL     OW88743   9.645   9.297   7.297  0.2306 -0.1164  0.0874
27168SOL    HW188744   9.613   9.233   7.234 -0.6898  0.6530 -0.2466
27168SOL    HW288745   9.640   9.380   7.252  1.8711  0.1551  0.3532
27169SOL     OW88746   6.129  10.760  10.623 -0.2767  0.0484  0.3968
27169SOL    HW188747   6.038  10.785  10.639 -0.3408 -0.7337  1.3701
27169SOL    HW288748   6.170  10.840  10.591 -1.1058  0.6398  0.7513
27170SOL     OW88749   9.963  12.320   1.258  0.0533  0.2646  0.5099
27170SOL    HW188750  10.036  12.368   1.299 -0.0854  0.9223  0.0091
27170SOL    HW288751   9.980  12.327   1.164  0.0910 -0.7924  0.4275
27171SOL     OW88752   8.903  11.964   3.817  0.0908 -0.6748  0.0038
27171SOL    HW188753   8.928  11.899   3.752  0.0066 -0.4051 -0.3008
27171SOL    HW288754   8.958  12.040   3.798  1.2119 -1.1313  1.2485
27172SOL     OW88755   9.300   5.448  11.075  0.7729 -0.0987 -0.2550
27172SOL    HW188756   9.323   5.393  11.149 -1.0807 -0.9479 -0.2423
27172SOL    HW288757   9.262   5.387  11.011 -0.1140  0.9627 -0.7832
27173SOL     OW88758  12.502  11.968   2.873  0.0100 -0.8252 -0.0232
27173SOL    HW188759  12.483  12.062   2.878  0.1504 -0.8082  0.2091
27173SOL    HW288760  12.594  11.961   2.900 -0.2100 -1.1072  0.6816
27174SOL     OW88761   9.007   2.601   0.150 -0.1360  0.4556 -0.4983
27174SOL    HW188762   8.955   2.563   0.079 -0.5516  0.9224 -0.4484
27174SOL    HW288763   9.065   2.664   0.105  0.0656  0.2699 -0.4999
27175SOL     OW88764  10.059   1.478   1.193 -0.0900  0.3015  0.8460
27175SOL    HW188765  10.091   1.420   1.262  0.5031  0.3291  0.6046
27175SOL    HW288766  10.120   1.552   1.193 -0.3339  0.5093  0.5776
27176SOL     OW88767   0.519   8.451  10.247 -0.3345 -0.0528 -0.3984
27176SOL    HW188768   0.476   8.535  10.236 -1.5416 -0.3023  1.8948
27176SOL    HW288769   0.460   8.387  10.207 -2.0365 -0.3444  2.3681
27177SOL     OW88770   0.804   8.166   2.711 -0.1170  0.0255 -0.6442
27177SOL    HW188771   0.727   8.177   2.767  0.6978  0.6616  0.4093
27177SOL    HW288772   0.844   8.084   2.739  2.1816  1.9021  2.2570
27178SOL     OW88773  11.282  12.215   1.315 -0.1572 -0.2774 -0.2655
27178SOL    HW188774  11.307  12.225   1.407  0.7559  0.0537 -0.5326
27178SOL    HW288775  11.252  12.124   1.308 -1.0673 -0.0417  0.5388
27179SOL     OW88776   7.472   9.179  11.144  0.2901  0.4582  0.1421
27179SOL    HW188777   7.543   9.127  11.182  0.3745  0.2920 -0.2405
27179SOL    HW288778   7.405   9.182  11.213  0.6479  0.5779  0.4868
27180SOL     OW88779   7.628   5.013  12.083  0.3957  0.1956  0.8620
27180SOL    HW188780   7.590   4.958  12.152  0.8766 -0.7928  0.3577
27180SOL    HW288781   7.721   5.018  12.105  0.2473  1.3534  1.2587
27181SOL     OW88782   9.798   6.648   5.027 -0.0258 -0.5056 -0.0168
27181SOL    HW188783   9.744   6.645   4.948  0.2025  0.9968 -0.2583
27181SOL    HW288784   9.888   6.649   4.994  0.0977 -0.9139  0.3065
27182SOL     OW88785   6.198   8.548  10.697 -0.0077  0.0792  0.0263
27182SOL    HW188786   6.267   8.549  10.630 -0.3950 -0.8013 -0.4025
27182SOL    HW288787   6.143   8.474  10.673  0.7770 -1.3427  2.2911
27183SOL     OW88788   5.852   3.253   4.007 -0.2401  0.1008 -0.2287
27183SOL    HW188789   5.810   3.284   3.927  0.3114  0.3878 -0.4160
27183SOL    HW288790   5.945   3.270   3.993 -0.2012  0.8091  0.7530
27184SOL     OW88791  12.539   8.576   3.356 -0.5955  0.2210  0.1917
27184SOL    HW188792  12.561   8.523   3.433 -1.5690  0.1169  0.4152
27184SOL    HW288793  12.595   8.542   3.287  0.1202  0.1524  0.7916
27185SOL     OW88794  10.353   0.657   2.427 -0.5544  0.3723  0.5096
27185SOL    HW188795  10.350   0.702   2.343 -3.0799  0.2121  0.4429
27185SOL    HW288796  10.375   0.725   2.491 -1.2924  1.0633  0.0374
27186SOL     OW88797   9.954   9.659   8.033 -0.1729 -0.1811  0.0181
27186SOL    HW188798   9.880   9.602   8.054 -0.8460  1.1909  1.6022
27186SOL    HW288799  10.026   9.599   8.014 -0.8979 -1.5705  1.4570
27187SOL     OW88800  11.122   7.373  11.522  0.3439  0.5130 -0.2287
27187SOL    HW188801  11.120   7.314  11.446 -1.8166 -1.0773  0.9543
27187SOL    HW288802  11.106   7.460  11.485  1.6472  0.1285 -1.8083
27188SOL     OW88803   2.606   9.289  10.892  0.2762  0.4369  0.3072
27188SOL    HW188804   2.527   9.257  10.848 -0.6836 -1.9124  3.3624
27188SOL    HW288805   2.672   9.294  10.824 -1.6945 -0.5586 -1.7928
27189SOL     OW88806   7.621   4.751   9.759  0.0212 -0.0326 -0.1420
27189SOL    HW188807   7.697   4.809   9.768  0.3326 -0.1010 -1.9510
27189SOL    HW288808   7.546   4.809   9.766  0.2880  0.3299 -0.2470
27190SOL     OW88809   9.705   6.420   6.337  0.4899  0.9477 -0.4647
27190SOL    HW188810   9.625   6.425   6.389  1.7473  1.1182  1.5581
27190SOL    HW288811   9.690   6.347   6.277 -0.5868 -0.0424  0.9395
27191SOL     OW88812   1.704   0.132   4.878 -0.3811  0.1206  0.0048
27191SOL    HW188813   1.783   0.121   4.825 -0.0490 -1.6981  0.7916
27191SOL    HW288814   1.639   0.073   4.838 -1.1112  1.0340 -0.1895
27192SOL     OW88815  11.469  11.220   4.779 -0.1758 -0.4816 -0.0688
27192SOL    HW188816  11.460  11.178   4.693 -0.3256  1.2492 -0.9555
27192SOL    HW288817  11.380  11.229   4.811 -0.2342  0.1231 -0.3865
27193SOL     OW88818   0.537   9.861   9.835  0.1338 -0.2661 -0.4418
27193SOL    HW188819   0.553   9.876   9.741 -0.8699 -0.8240 -0.7082
27193SOL    HW288820   0.475   9.929   9.860  1.3828  0.7035  0.1487
27194SOL     OW88821  10.356  10.418  11.832 -1.0130 -0.3206 -0.3393
27194SOL    HW188822  10.439  10.467  11.830  0.0317 -2.0164 -1.8399
27194SOL    HW288823  10.293  10.476  11.789  0.3463 -0.4592 -2.6875
27195SOL     OW88824   8.165   4.993   9.334  0.3176 -0.1482  0.2137
27195SOL    HW188825   8.080   4.963   9.302 -0.4668  1.9799  0.0836
27195SOL    HW288826   8.223   4.917   9.326 -1.3352 -1.3859 -0.5690
27196SOL     OW88827   1.841  11.014   6.141 -0.0386 -0.3079  0.2452
27196SOL    HW188828   1.862  11.105   6.123  0.1897 -0.3750  0.1687
27196SOL    HW288829   1.807  11.014   6.230  0.1072 -0.1717  0.2999
27197SOL     OW88830   3.532   4.723   0.783 -0.3509 -0.3267 -0.0553
27197SOL    HW188831   3.565   4.658   0.845 -0.4033 -0.7210 -0.4312
27197SOL    HW288832   3.514   4.800   0.836 -0.1452 -0.5708  0.3759
27198SOL     OW88833  10.926   0.006   7.803  0.2279 -0.0435 -0.2106
27198SOL    HW188834  10.994  -0.008   7.870  0.5918  2.1043 -0.0639
27198SOL    HW288835  10.844  -0.007   7.850  0.5088 -0.5063  0.1631
27199SOL     OW88836   6.447   8.307   4.678 -0.6953 -0.3654 -0.0042
27199SOL    HW188837   6.435   8.291   4.584 -0.7155  1.9325 -0.4546
27199SOL    HW288838   6.535   8.274   4.697  0.5575  1.8570 -1.5641
27200SOL     OW88839   8.577   2.494  11.422 -0.1714  0.7365 -0.3947
27200SOL    HW188840   8.561   2.587  11.433 -4.3954  0.5484 -2.5942
27200SOL    HW288841   8.526   2.470  11.344  2.2201 -3.1071 -1.0583
27201SOL     OW88842   2.415   2.725   7.944  0.1547  0.7611  0.6507
27201SOL    HW188843   2.506   2.739   7.969  0.2644 -0.5091  1.0117
27201SOL    HW288844   2.405   2.630   7.940 -0.9206  0.8862 -0.2644
27202SOL     OW88845  11.050   7.257   0.839  0.4349 -0.2646  0.4441
27202SOL    HW188846  11.036   7.276   0.932  0.3821 -0.0681  0.3968
27202SOL    HW288847  11.106   7.180   0.839 -0.2514 -0.7726  0.6399
27203SOL     OW88848   6.981   8.043  11.192 -0.2467  0.1738  0.2424
27203SOL    HW188849   7.032   8.102  11.248  0.0905 -0.7966  1.0028
27203SOL    HW288850   6.910   8.096  11.158  0.6615  1.2935  0.0254
27204SOL     OW88851   0.405   8.010   1.551  0.0690  0.2854 -0.3376
27204SOL    HW188852   0.423   7.988   1.459 -1.1425  0.4882 -0.6392
27204SOL    HW288853   0.453   8.092   1.565 -0.6770  0.8821 -1.1477
27205SOL     OW88854   0.951   1.345  12.538  0.1648  0.6956  0.6040
27205SOL    HW188855   0.982   1.270  12.488 -1.1999 -0.0823  0.8729
27205SOL    HW288856   1.014   1.355  12.609 -0.9560 -1.8222  2.0711
27206SOL     OW88857  11.399   6.953   9.957 -0.0971 -0.4142 -0.0399
27206SOL    HW188858  11.472   6.957  10.019 -1.1330 -0.5355  1.2459
27206SOL    HW288859  11.324   6.927  10.011 -0.6809 -2.3993 -1.6803
27207SOL     OW88860   7.007   3.858   0.758 -0.4784 -0.6326  0.2074
27207SOL    HW188861   6.918   3.856   0.723  0.2483  1.6176 -2.1184
27207SOL    HW288862   7.063   3.852   0.681  1.3701 -0.1562  1.4415
27208SOL     OW88863   5.474  10.147   2.357  0.1342  0.5394  0.0162
27208SOL    HW188864   5.453  10.240   2.364 -0.2971  0.4033  0.5942
27208SOL    HW288865   5.552  10.144   2.301 -1.8331  0.9820 -2.9829
27209SOL     OW88866   2.270  10.074   6.226  0.4398  0.1541  0.4406
27209SOL    HW188867   2.273  10.100   6.134  1.7285 -0.8166  0.1631
27209SOL    HW288868   2.359  10.090   6.258  0.4673 -1.0757  1.0398
27210SOL     OW88869   9.762   1.081   8.450 -0.9070 -0.4278  0.0209
27210SOL    HW188870   9.814   1.131   8.513  2.2883 -1.6019 -1.4569
27210SOL    HW288871   9.772   0.990   8.478 -1.8384 -0.7166 -0.5601
27211SOL     OW88872   2.879   8.170   7.131  0.5778 -0.0475 -0.0400
27211SOL    HW188873   2.961   8.129   7.104  1.1740  1.5189 -0.6947
27211SOL    HW288874   2.838   8.200   7.050  1.0779  2.2763  0.4964
27212SOL     OW88875   8.922   9.751   4.929 -0.0064 -0.1658  0.1489
27212SOL    HW188876   8.968   9.678   4.971  0.1263 -0.5654 -0.6482
27212SOL    HW288877   8.899   9.717   4.842  0.1347  0.7778 -0.2727
27213SOL     OW88878   3.315   4.358  11.537  0.4480 -0.3612 -0.1430
27213SOL    HW188879   3.347   4.447  11.548 -0.1406  0.0876 -1.8299
27213SOL    HW288880   3.339   4.334  11.447 -4.0777  0.1613 -1.7732
27214SOL     OW88881   4.284  10.107   6.510 -0.2424 -0.5261 -0.3885
27214SOL    HW188882   4.200  10.111   6.465 -0.8958  0.7529  0.8657
27214SOL    HW288883   4.331  10.185   6.480 -0.9730  0.7460  1.6002
27215SOL     OW88884   8.536   6.992   5.075 -0.0680 -0.1713 -0.2216
27215SOL    HW188885   8.577   6.992   4.988  0.2841 -0.1952 -0.0565
27215SOL    HW288886   8.456   7.043   5.064  0.7669  1.1969 -0.1926
27216SOL     OW88887   9.814   5.774   6.243 -0.6379  0.0560  0.1916
27216SOL    HW188888   9.804   5.869   6.257 -0.7043  0.1768 -0.6405
27216SOL    HW288889   9.905   5.764   6.215 -0.4999 -0.1888  0.7084
27217SOL     OW88890   5.992   1.799   6.181  0.4349  0.3975  0.1114
27217SOL    HW188891   6.034   1.850   6.251 -0.5139  0.3342  0.7454
27217SOL    HW288892   6.050   1.809   6.106  2.1235 -0.5338  1.2389
27218SOL     OW88893   0.563   2.541   8.766  0.2020  0.2795  0.3382
27218SOL    HW188894   0.580   2.450   8.792  2.0570  0.4140 -0.2418
27218SOL    HW288895   0.483   2.536   8.714  0.1929 -0.9937  0.4278
27219SOL     OW88896   1.394  11.030  10.842  0.1901 -0.6626 -0.6446
27219SOL    HW188897   1.310  11.076  10.841  1.6422  2.2133 -1.7202
27219SOL    HW288898   1.430  11.048  10.929  0.2778 -0.8019 -0.6509
27220SOL     OW88899   8.557   6.315  11.741 -0.1826  0.0140 -0.0269
27220SOL    HW188900   8.542   6.329  11.647 -2.4840 -0.9604  0.1365
27220SOL    HW288901   8.554   6.403  11.778 -0.8223  0.2894 -0.6955
27221SOL     OW88902   0.126   5.660   8.054 -0.3790 -0.4869  0.5745
27221SOL    HW188903   0.182   5.598   8.101 -0.8960 -0.9751  0.5440
27221SOL    HW288904   0.162   5.663   7.966  0.5650  0.3923  0.9609
27222SOL     OW88905   2.632   0.104  11.234 -0.6540  0.1617 -0.0188
27222SOL    HW188906   2.686   0.029  11.211  1.2501  1.4669  0.0206
27222SOL    HW288907   2.617   0.149  11.151 -0.1856  0.7503  0.2082
27223SOL     OW88908  11.104   2.646  10.649 -0.0953  0.4788 -0.4372
27223SOL    HW188909  11.148   2.729  10.630  1.8307 -0.1706  0.8683
27223SOL    HW288910  11.060   2.622  10.568  0.9590  1.7999 -1.4315
27224SOL     OW88911   0.657  12.352   1.934  0.1585  0.5746  0.3978
27224SOL    HW188912   0.569  12.351   1.896  0.0100  1.0380  0.7169
27224SOL    HW288913   0.645  12.327   2.025  0.5775 -0.9964  0.0486
27225SOL     OW88914  12.583   4.591   3.381  0.0069 -0.4124 -0.5509
27225SOL    HW188915  12.654   4.641   3.419 -1.1280 -0.4156  1.7425
27225SOL    HW288916  12.579   4.619   3.289  0.6673  2.2127  0.1571
27226SOL     OW88917   2.450   1.655   9.970 -0.1418  0.3954  0.2755
27226SOL    HW188918   2.371   1.605   9.990 -0.2106 -0.1986 -1.3400
27226SOL    HW288919   2.417   1.736   9.931  0.0339  0.0366 -0.6359
27227SOL     OW88920   8.290   3.763   0.488 -0.5915 -0.0240  0.4359
27227SOL    HW188921   8.265   3.838   0.433 -0.2252  0.0104  0.3098
27227SOL    HW288922   8.258   3.687   0.441 -0.4423  0.0175  0.2668
27228SOL     OW88923   2.087  12.393   5.181  0.1026  0.2995  0.1690
27228SOL    HW188924   2.007  12.343   5.200  0.5546 -0.3072  0.5239
27228SOL    HW288925   2.083  12.410   5.087  1.1387 -2.5839 -0.4913
27229SOL     OW88926   5.958   4.498  11.368 -0.0825  0.1823  0.1801
27229SOL    HW188927   5.955   4.423  11.310 -1.9729  0.8043 -0.5936
27229SOL    HW288928   5.917   4.569  11.319  0.9962  1.5498  1.1556
27230SOL     OW88929   2.794   3.592  11.722 -0.5680  0.2205 -0.2106
27230SOL    HW188930   2.745   3.511  11.739  1.0794 -0.8850 -0.3992
27230SOL    HW288931   2.729   3.655  11.693 -1.9380 -0.9805  0.1574
27231SOL     OW88932   1.095   9.700   2.092  0.1120 -0.1248  0.2962
27231SOL    HW188933   1.091   9.632   2.160 -1.2874 -1.5357 -1.0947
27231SOL    HW288934   1.122   9.653   2.013  3.7029  1.8206  0.1626
27232SOL     OW88935   1.897  12.409   9.525  0.5888  0.0289 -0.1106
27232SOL    HW188936   1.830  12.358   9.480  1.0276 -0.1731 -0.5414
27232SOL    HW288937   1.966  12.346   9.546  0.8763  0.3321 -0.1311
27233SOL     OW88938   1.005   9.707   8.609  0.0416  0.1266 -0.3460
27233SOL    HW188939   0.971   9.651   8.539 -1.4529  0.6991 -0.1036
27233SOL    HW288940   1.057   9.774   8.563 -1.4791  0.9037 -0.9954
27234SOL     OW88941  12.003   2.222   8.133 -0.5432  0.7064  0.1011
27234SOL    HW188942  11.974   2.261   8.051 -2.3053 -1.1334 -0.2228
27234SOL    HW288943  11.968   2.133   8.131  3.4292 -1.0473  0.7081
27235SOL     OW88944   4.893   1.390   9.816  0.0844  0.7887  0.5707
27235SOL    HW188945   4.915   1.483   9.811  0.6341  0.6963  1.2561
27235SOL    HW288946   4.845   1.381   9.898  0.4758  0.3818  0.7577
27236SOL     OW88947   8.146  10.317  10.848 -0.3448  0.2012  0.1885
27236SOL    HW188948   8.223  10.362  10.881  0.0842  0.2641 -0.8509
27236SOL    HW288949   8.075  10.344  10.906  0.1080  1.4159  0.1973
27237SOL     OW88950   0.888   0.303   6.573  0.2354  0.5275  0.8482
27237SOL    HW188951   0.812   0.356   6.596 -0.0611  0.1733  0.6903
27237SOL    HW288952   0.852   0.217   6.551  0.6497  0.4388  0.4954
27238SOL     OW88953   3.578  11.689   0.932  0.5262  0.5877 -0.1068
27238SOL    HW188954   3.519  11.749   0.979  1.5059  2.1603 -0.7946
27238SOL    HW288955   3.525  11.611   0.916 -1.1270  1.6300  0.0085
27239SOL     OW88956   3.389   4.086  11.170  0.2570  0.5055 -0.4696
27239SOL    HW188957   3.430   4.028  11.234 -0.6256  1.3747  0.9527
27239SOL    HW288958   3.398   4.174  11.207  0.3361  1.1243 -1.8916
27240SOL     OW88959   0.133  11.306   9.713 -0.3787  0.1234  0.1804
27240SOL    HW188960   0.075  11.260   9.652  0.0295 -0.5073  0.2596
27240SOL    HW288961   0.203  11.244   9.731  0.5877  1.0436 -0.2865
27241SOL     OW88962   7.466  12.276   1.402 -0.7056 -0.0043  0.1412
27241SOL    HW188963   7.435  12.202   1.454 -1.1541 -1.3698 -1.9385
27241SOL    HW288964   7.391  12.335   1.396 -0.8445 -0.1436  0.5122
27242SOL     OW88965  11.389   7.971  10.452 -0.3856 -0.6994 -0.0478
27242SOL    HW188966  11.438   8.054  10.457 -1.2778 -0.1722  0.2157
27242SOL    HW288967  11.374   7.957  10.359 -1.4162  0.1748 -0.0403
27243SOL     OW88968  11.170   3.616   4.532 -0.2771 -0.2112 -0.3605
27243SOL    HW188969  11.160   3.522   4.518 -0.1292 -0.4139  0.8160
27243SOL    HW288970  11.238   3.642   4.469 -0.5546 -0.8141 -0.9265
27244SOL     OW88971   8.777  11.730  12.155  0.0011  0.0803 -0.5006
27244SOL    HW188972   8.862  11.705  12.119 -0.4404 -0.0788 -1.4639
27244SOL    HW288973   8.756  11.813  12.112  0.2413  0.7886  0.6945
27245SOL     OW88974   0.666   5.280   5.019 -0.7428  0.3473 -0.0383
27245SOL    HW188975   0.604   5.307   5.088  0.3736  0.8170  0.8127
27245SOL    HW288976   0.697   5.194   5.047 -1.4787 -0.1869 -0.8076
27246SOL     OW88977   8.200   8.632   8.933  0.1461  0.1215 -0.3573
27246SOL    HW188978   8.126   8.693   8.931 -0.0579 -0.1059  0.2618
27246SOL    HW288979   8.169   8.557   8.984  0.5052 -0.3642 -0.8395
27247SOL     OW88980   0.629   9.435   7.249 -0.1809 -0.4571  0.3944
27247SOL    HW188981   0.609   9.453   7.341 -0.5963 -2.0530  0.6448
27247SOL    HW288982   0.673   9.514   7.218  0.1845  0.0110  2.0286
27248SOL     OW88983   4.009  10.773   4.863  0.1735  0.1761 -0.0265
27248SOL    HW188984   4.045  10.859   4.885  0.2456  0.0459  0.3843
27248SOL    HW288985   4.058  10.712   4.918  1.6941 -0.3947 -1.9232
27249SOL     OW88986   9.718   4.210   7.704 -0.4405  0.0439  0.2074
27249SOL    HW188987   9.734   4.254   7.787 -0.3379 -2.4152  1.5602
27249SOL    HW288988   9.795   4.231   7.650 -0.2830  1.2633  0.8761
27250SOL     OW88989   8.634   6.893   1.496 -0.5925  0.0911  0.5013
27250SOL    HW188990   8.690   6.877   1.572  0.1648 -0.4453 -0.1510
27250SOL    HW288991   8.691   6.937   1.434 -1.2131  0.5434  0.2458
27251SOL     OW88992   6.000   8.640   0.453 -0.1197 -0.1728  0.0300
27251SOL    HW188993   5.943   8.714   0.434  0.5338 -0.1499 -2.0905
27251SOL    HW288994   5.994   8.629   0.548 -1.3007  1.6943  0.2225
27252SOL     OW88995   4.325  10.382  12.537  0.6404 -0.4126 -0.7123
27252SOL    HW188996   4.246  10.328  12.537 -0.2204  0.8103 -0.8908
27252SOL    HW288997   4.397  10.319  12.543 -0.3310 -1.5647 -0.7776
27253SOL     OW88998   1.217   1.586   6.429 -0.5230 -0.0904  0.0316
27253SOL    HW188999   1.181   1.674   6.438  0.8195  0.6363 -1.2881
27253SOL    HW289000   1.174   1.550   6.352 -0.4254 -0.2425  0.0478
27254SOL     OW89001   5.686  12.259   6.327 -0.6243 -0.2960 -0.2300
27254SOL    HW189002   5.641  12.318   6.388 -1.0716 -1.0383  0.1803
27254SOL    HW289003   5.775  12.292   6.323 -1.1870  1.2247 -1.0693
27255SOL     OW89004   5.175   3.423   5.254  0.0183 -0.3192  0.0673
27255SOL    HW189005   5.200   3.362   5.323 -1.2070  1.2168  2.0092
27255SOL    HW289006   5.253   3.477   5.241  0.4026 -0.9014 -0.0887
27256SOL     OW89007   3.615  12.526   8.563 -0.1081  0.3523 -0.0707
27256SOL    HW189008   3.536  12.472   8.568  0.3041 -0.5512 -2.2793
27256SOL    HW289009   3.617  12.558   8.473  1.5195  1.1781  0.2201
27257SOL     OW89010   5.838   5.067  11.211  0.4113  0.0219  0.0841
27257SOL    HW189011   5.902   4.999  11.192  0.9202  0.5308 -0.0311
27257SOL    HW289012   5.827   5.114  11.129 -0.2153 -0.1446  0.0663
27258SOL     OW89013   0.160   4.752  12.564 -0.2106  0.1015 -0.2854
27258SOL    HW189014   0.090   4.709  12.515 -1.4323  1.2506  0.3748
27258SOL    HW289015   0.114   4.809  12.625  1.2921 -0.3586  1.3376
27259SOL     OW89016   9.373   5.638   2.906 -0.3364 -0.5933 -0.1819
27259SOL    HW189017   9.413   5.557   2.937 -0.5655 -1.1807 -1.3655
27259SOL    HW289018   9.302   5.654   2.968  0.6407 -0.4394  0.9623
27260SOL     OW89019   1.038  10.232   2.564  0.0985 -0.2395 -0.3309
27260SOL    HW189020   1.045  10.179   2.643 -0.8148 -1.1816 -0.8566
27260SOL    HW289021   0.948  10.219   2.534 -0.1487  1.5685 -0.5234
27261SOL     OW89022   6.491   7.717   7.598 -0.8179 -0.2792  0.4507
27261SOL    HW189023   6.439   7.748   7.524  2.5084  0.9291 -1.5892
27261SOL    HW289024   6.532   7.637   7.566 -0.1456 -0.3152  1.3681
27262SOL     OW89025   5.140   7.815   9.525  0.2260  0.0845 -0.1725
27262SOL    HW189026   5.137   7.858   9.611  0.2596  1.0841 -0.6660
27262SOL    HW289027   5.232   7.797   9.510  0.0433 -4.7072  2.1962
27263SOL     OW89028   4.965  11.264   5.281 -0.3392  0.2021  0.1203
27263SOL    HW189029   4.966  11.229   5.369 -0.4909  0.4188  0.2110
27263SOL    HW289030   4.884  11.316   5.277  0.3928  1.4088  0.3352
27264SOL     OW89031   0.716  10.309   4.624 -0.1637 -0.0288  0.0109
27264SOL    HW189032   0.740  10.376   4.560  0.7052  1.6226  1.9311
27264SOL    HW289033   0.629  10.279   4.597 -0.9544  2.4958 -0.4907
27265SOL     OW89034  11.165   0.412   6.511 -0.9284  0.5186  1.0571
27265SOL    HW189035  11.082   0.458   6.517 -2.0264 -1.1621 -0.2188
27265SOL    HW289036  11.154   0.353   6.436  1.8120  1.0248  0.1302
27266SOL     OW89037   6.245   8.154   4.319  0.8496 -0.2143  0.0480
27266SOL    HW189038   6.239   8.082   4.381 -0.0567 -0.6795 -0.5544
27266SOL    HW289039   6.217   8.117   4.236  0.2607  0.8493 -0.2561
27267SOL     OW89040   5.934   5.185   8.501  0.4348  0.0189 -0.6725
27267SOL    HW189041   5.869   5.187   8.430 -1.7580 -1.2746  1.1738
27267SOL    HW289042   5.976   5.099   8.491  0.6435  0.1411 -0.8440
27268SOL     OW89043   7.174   5.688   5.130 -0.0226 -0.4983 -0.1773
27268SOL    HW189044   7.108   5.645   5.076 -0.9464  1.9700 -1.1725
27268SOL    HW289045   7.134   5.771   5.156  1.5462 -0.2746  1.8393
27269SOL     OW89046   8.590   9.578   4.902  0.0980 -0.2319 -0.2511
27269SOL    HW189047   8.580   9.567   4.807  0.9076 -1.5024 -0.2068
27269SOL    HW289048   8.679   9.546   4.920 -0.2224 -0.4369  1.0047
27270SOL     OW89049  11.520   3.892   3.171  0.0707  0.1854  0.2033
27270SOL    HW189050  11.490   3.822   3.112  0.4382  0.9558 -0.9453
27270SOL    HW289051  11.491   3.973   3.127 -0.4813  0.7543  1.5754
27271SOL     OW89052   4.013  10.415   5.381 -0.6477  0.0529  0.0296
27271SOL    HW189053   3.928  10.381   5.351 -0.1811  0.6344 -2.1400
27271SOL    HW289054   4.018  10.503   5.343  0.2778  0.6450  1.4477
27272SOL     OW89055   1.852   3.730   7.885 -0.0700  0.0317 -0.3540
27272SOL    HW189056   1.765   3.740   7.844  0.1494  0.0376 -0.8241
27272SOL    HW289057   1.896   3.664   7.831  0.2776  0.1529 -0.2164
27273SOL     OW89058   1.661   5.984   2.166  0.3344  0.1268  0.2557
27273SOL    HW189059   1.666   5.898   2.125  0.8002  0.7376 -1.0463
27273SOL    HW289060   1.605   6.035   2.107  1.4730  1.1931  0.0505
27274SOL     OW89061  11.688   4.903   4.797 -0.4106  0.1226  0.1320
27274SOL    HW189062  11.674   4.986   4.751  1.0742  2.0304  2.8581
27274SOL    HW289063  11.644   4.915   4.881  1.8874 -0.8316  1.5621
27275SOL     OW89064  11.259  10.754   1.042  0.0913  0.4343 -0.0804
27275SOL    HW189065  11.243  10.848   1.054 -1.4081  0.2860 -0.7379
27275SOL    HW289066  11.183  10.711   1.079  0.4954 -0.5003 -0.3077
27276SOL     OW89067  10.683   2.475   9.017  0.2247  0.4663  0.0557
27276SOL    HW189068  10.695   2.472   9.112  0.8980  1.1237 -0.0007
27276SOL    HW289069  10.760   2.431   8.982  0.9014  1.8275 -0.2254
27277SOL     OW89070   7.678   2.102   6.229  0.0389  0.4967  0.6411
27277SOL    HW189071   7.683   2.172   6.164  0.5771  0.3574  0.5248
27277SOL    HW289072   7.711   2.024   6.183 -1.8554 -0.1833  0.3194
27278SOL     OW89073   7.964   8.489   5.191  0.4277 -0.8203 -0.4813
27278SOL    HW189074   7.884   8.539   5.174 -0.2167 -1.8231 -0.4833
27278SOL    HW289075   7.943   8.400   5.162  1.2390 -1.2968  0.3385
27279SOL     OW89076   1.324   1.872   0.580 -0.6549  0.4551  0.1235
27279SOL    HW189077   1.315   1.916   0.495  2.2359  1.1784  0.0940
27279SOL    HW289078   1.296   1.938   0.644  0.3694  1.1528 -0.1201
27280SOL     OW89079  12.331  12.049  10.142 -0.3725  0.6718 -0.7418
27280SOL    HW189080  12.357  12.058  10.234 -0.4699 -1.4817 -0.4481
27280SOL    HW289081  12.405  12.083  10.092 -0.4421  2.1579  0.1226
27281SOL     OW89082   8.099   1.560   8.493 -0.1984  0.2008 -0.4497
27281SOL    HW189083   8.106   1.466   8.477 -0.5461  0.3654 -1.6930
27281SOL    HW289084   8.175   1.597   8.447 -0.6954  0.6177 -0.9402
27282SOL     OW89085  11.859   3.165   1.714 -0.0817 -0.3181  0.5138
27282SOL    HW189086  11.943   3.202   1.689  0.2416 -1.7647 -0.6588
27282SOL    HW289087  11.803   3.242   1.732  0.7849  0.7222 -1.0060
27283SOL     OW89088   9.471   6.076   7.019 -0.0884 -0.5475 -0.3116
27283SOL    HW189089   9.524   6.056   6.941 -2.3191  0.5591 -2.2422
27283SOL    HW289090   9.481   6.170   7.031 -2.7382  0.0247 -1.7553
27284SOL     OW89091   6.316   6.876   4.341  0.0425 -0.2964  0.0613
27284SOL    HW189092   6.368   6.861   4.420 -0.2562 -1.0088  0.1322
27284SOL    HW289093   6.279   6.790   4.320  0.1250 -0.1184 -0.8618
27285SOL     OW89094   6.360   1.463   5.632  0.5295 -0.1623  0.1556
27285SOL    HW189095   6.274   1.481   5.668  0.0936 -1.0441 -0.4078
27285SOL    HW289096   6.420   1.512   5.687 -0.2874  0.0643  0.8618
27286SOL     OW89097  10.564   0.562   1.224 -0.2781  0.2588  0.3573
27286SOL    HW189098  10.520   0.524   1.300  0.0327  1.2701  1.0725
27286SOL    HW289099  10.535   0.510   1.150  0.9367 -2.0549  1.3986
27287SOL     OW89100   9.892   4.666  10.410 -0.2791 -0.0445  0.0169
27287SOL    HW189101   9.849   4.717  10.478 -1.6736  0.3282 -1.0850
27287SOL    HW289102   9.957   4.725  10.372 -1.3621  0.6977 -0.7420
27288SOL     OW89103   7.293  12.540   3.615  0.1978  0.1350  0.1210
27288SOL    HW189104   7.285  12.486   3.693  1.4867 -0.0090  0.1755
27288SOL    HW289105   7.362  12.602   3.635 -1.7052  2.3427  0.3223
27289SOL     OW89106   8.334   4.090   2.743 -0.4397 -0.1676  0.1630
27289SOL    HW189107   8.334   4.162   2.680 -0.3708  0.2781  0.6650
27289SOL    HW289108   8.248   4.049   2.732 -0.1889 -0.4863 -0.6574
27290SOL     OW89109   1.453   6.079   3.830  0.2578  0.4257 -0.0877
27290SOL    HW189110   1.422   6.086   3.740  1.5258 -0.4614 -0.6136
27290SOL    HW289111   1.477   6.169   3.854 -3.7130  1.4390  0.7964
27291SOL     OW89112   2.550   0.155   0.389 -0.4386  0.9104 -0.3299
27291SOL    HW189113   2.518   0.148   0.479 -0.9660 -1.5693 -0.6575
27291SOL    HW289114   2.477   0.125   0.335  0.5305  0.5187 -1.4641
27292SOL     OW89115  12.214   9.557   8.189  0.1162  0.7790 -0.4041
27292SOL    HW189116  12.196   9.632   8.133  0.0126  0.7293 -0.4385
27292SOL    HW289117  12.161   9.572   8.267 -0.9939  0.0559 -0.9918
27293SOL     OW89118   4.757   7.644   4.719  0.2178  0.1724 -0.2612
27293SOL    HW189119   4.707   7.565   4.740  1.8126 -0.7210  0.3663
27293SOL    HW289120   4.760   7.646   4.623  0.5409 -0.7898 -0.2813
27294SOL     OW89121  12.130   3.783   5.478  0.0117 -0.0214 -0.0235
27294SOL    HW189122  12.118   3.688   5.478 -0.9509  0.0886 -0.7725
27294SOL    HW289123  12.176   3.801   5.560 -1.0322 -0.9832  0.8053
27295SOL     OW89124   8.625   9.148   8.420 -0.3866  0.4582 -0.3988
27295SOL    HW189125   8.635   9.084   8.491  0.1270 -0.4738 -1.2906
27295SOL    HW289126   8.629   9.233   8.465  1.9031 -0.0391  0.5202
27296SOL     OW89127   5.296   3.220   6.506 -0.6630 -0.3627 -0.7442
27296SOL    HW189128   5.302   3.183   6.595 -0.3788  1.7696  0.1913
27296SOL    HW289129   5.380   3.263   6.492 -0.4793 -1.1684 -2.3226
27297SOL     OW89130   6.689   3.600   9.268  0.0288  0.1267 -0.5001
27297SOL    HW189131   6.701   3.539   9.340 -2.0667 -1.0760 -1.0785
27297SOL    HW289132   6.686   3.686   9.309  0.0516 -0.4268  0.7022
27298SOL     OW89133   1.018   0.899   1.726 -0.1648 -0.9559 -0.1846
27298SOL    HW189134   0.973   0.815   1.740 -1.5469 -0.2824 -0.3495
27298SOL    HW289135   0.954   0.965   1.753  0.1440  0.1147 -1.8670
27299SOL     OW89136   1.960  11.347   7.240  0.2693 -0.0137  0.1351
27299SOL    HW189137   1.919  11.295   7.310 -0.8619 -0.4250 -0.8004
27299SOL    HW289138   1.928  11.436   7.254  0.5628  0.0397  0.5074
27300SOL     OW89139   9.296   4.300   1.052  0.0259 -0.1292  0.5250
27300SOL    HW189140   9.308   4.251   0.970  0.2873 -0.8254  0.9643
27300SOL    HW289141   9.356   4.374   1.045 -0.5860  0.3058 -0.2781
27301SOL     OW89142   5.890   3.029   3.321 -0.1053  0.0951 -0.1216
27301SOL    HW189143   5.799   3.023   3.350 -0.4676  0.5373 -1.1419
27301SOL    HW289144   5.941   3.019   3.402 -1.0539  0.0570  0.4903
27302SOL     OW89145   6.993   5.246   3.112 -0.1721 -0.1728 -0.6513
27302SOL    HW189146   6.918   5.230   3.169 -0.6001  0.2525 -1.0808
27302SOL    HW289147   7.048   5.306   3.161 -0.5195  0.1636 -0.6640
27303SOL     OW89148   4.647   5.460   7.457 -0.1761 -0.2934  0.1499
27303SOL    HW189149   4.611   5.516   7.387  0.7868 -0.1296 -0.2241
27303SOL    HW289150   4.669   5.521   7.527 -2.1012 -0.5576  1.0570
27304SOL     OW89151   2.532   7.730   7.088 -0.6816  0.5770  0.0702
27304SOL    HW189152   2.605   7.710   7.147  0.0239 -0.8597 -1.2263
27304SOL    HW289153   2.529   7.825   7.086 -0.4580  0.6756  2.0713
27305SOL     OW89154   5.541   6.560   0.990  0.2173 -0.2318  0.5757
27305SOL    HW189155   5.462   6.580   1.039  0.0252  2.2608 -0.6123
27305SOL    HW289156   5.603   6.528   1.056 -0.3589  2.0078  2.3168
27306SOL     OW89157  10.293   8.548  11.444  0.3785 -0.6271  0.7342
27306SOL    HW189158  10.278   8.630  11.398  1.0947  0.6612  2.6819
27306SOL    HW289159  10.216   8.536  11.499  1.3218  0.0921  2.2942
27307SOL     OW89160   4.878   9.510   9.682  0.1979 -0.6153 -0.5201
27307SOL    HW189161   4.809   9.572   9.659 -0.5348 -0.6996  1.2616
27307SOL    HW289162   4.957   9.563   9.688  0.2398 -0.4396 -2.1360
27308SOL     OW89163   1.205   7.847   0.836  0.4133 -0.5194 -0.9449
27308SOL    HW189164   1.162   7.928   0.807  0.7014  0.0530  0.1462
27308SOL    HW289165   1.298   7.860   0.814  0.9677  0.7300  1.7635
27309SOL     OW89166   2.575   0.708  12.105  0.1918 -0.5384 -0.1357
27309SOL    HW189167   2.658   0.755  12.107  0.4127 -0.9453  0.9714
27309SOL    HW289168   2.577   0.652  12.182 -1.1346 -0.5152 -0.0613
27310SOL     OW89169   6.662   3.795  10.029  0.1181  0.2471  0.1801
27310SOL    HW189170   6.572   3.782  10.058 -0.7764  3.7970 -0.5091
27310SOL    HW289171   6.704   3.841  10.101  1.2227 -0.7525  0.2022
27311SOL     OW89172   5.143   6.929   5.100  0.0240 -0.3272  0.3427
27311SOL    HW189173   5.172   6.956   5.013 -2.1642 -0.6232 -0.5560
27311SOL    HW289174   5.220   6.937   5.155  0.9073  2.1227 -1.1203
27312SOL     OW89175   2.811   3.954   9.942 -0.5158 -0.2147  0.1678
27312SOL    HW189176   2.846   3.976  10.028 -1.5208 -1.2080  0.8681
27312SOL    HW289177   2.731   4.006   9.935 -0.3013  0.0610 -0.2914
27313SOL     OW89178   4.698  11.841   8.556  0.1249  0.2992 -0.1205
27313SOL    HW189179   4.758  11.774   8.587 -1.0407  0.5337  3.0386
27313SOL    HW289180   4.727  11.921   8.600  0.3449  1.5326 -2.3383
27314SOL     OW89181   5.023   0.699   0.354  0.1034  0.2382 -0.3972
27314SOL    HW189182   5.049   0.611   0.324 -2.5637 -0.7311 -0.1598
27314SOL    HW289183   4.944   0.718   0.304 -0.3223  1.7766  0.8075
27315SOL     OW89184   0.913   6.625   6.701  0.1389 -0.3055  0.1213
27315SOL    HW189185   0.946   6.712   6.679 -3.7423  1.8065  1.5904
27315SOL    HW289186   0.875   6.593   6.620 -1.2091  0.8997  0.2266
27316SOL     OW89187   5.673   9.747   3.727  0.0675  0.2635 -0.0261
27316SOL    HW189188   5.678   9.798   3.647 -0.5335  0.7238  0.2198
27316SOL    HW289189   5.718   9.665   3.707 -0.0092  0.4090 -0.8056
27317SOL     OW89190  11.984   0.027  10.032 -0.0577 -0.8788 -0.3268
27317SOL    HW189191  12.074   0.057  10.021 -0.5053  0.9873  0.7071
27317SOL    HW289192  11.957  -0.001   9.944  0.8767  0.4856 -1.0859
27318SOL     OW89193   4.786   8.190   7.108 -0.0335 -0.2428  0.6617
27318SOL    HW189194   4.751   8.243   7.180 -3.5728 -0.7005 -0.5565
27318SOL    HW289195   4.800   8.252   7.037  0.2922 -0.2832  0.6892
27319SOL     OW89196  11.478   7.461  12.337 -0.9675 -0.2199  0.3907
27319SOL    HW189197  11.388   7.491  12.341 -1.8466 -1.9948 -2.4541
27319SOL    HW289198  11.525   7.531  12.291 -1.4793 -0.2656 -0.2220
27320SOL     OW89199  10.007   8.063   9.163 -0.0104  0.2963 -0.0527
27320SOL    HW189200   9.944   8.000   9.128 -1.9625  0.4245  2.9318
27320SOL    HW289201  10.084   8.052   9.107 -1.4510 -2.2759 -1.7607
27321SOL     OW89202   7.002   8.779   9.570 -0.3276  0.1942  0.3335
27321SOL    HW189203   6.979   8.871   9.560  0.1935  0.3453  0.5032
27321SOL    HW289204   6.929   8.732   9.532 -0.8038  0.6695  0.6511
27322SOL     OW89205   1.105   5.661  10.840 -0.1243  0.3890  0.0633
27322SOL    HW189206   1.068   5.717  10.772 -1.0222 -0.3133 -0.0529
27322SOL    HW289207   1.160   5.719  10.892 -1.0404  1.3871 -0.0520
27323SOL     OW89208  12.287   4.897   7.117  1.1790  0.3382 -0.3099
27323SOL    HW189209  12.192   4.907   7.110  0.6599 -2.7245  0.6781
27323SOL    HW289210  12.310   4.946   7.196  0.3793  0.8729 -0.3952
27324SOL     OW89211   4.324  10.198   2.304  0.1671 -0.5329  0.2916
27324SOL    HW189212   4.303  10.151   2.223  0.5425 -0.8879  0.3939
27324SOL    HW289213   4.413  10.229   2.290 -0.1310  0.2864  0.1675
27325SOL     OW89214   9.249   6.174   4.100 -0.2495 -0.1752 -0.5805
27325SOL    HW189215   9.288   6.221   4.027  1.9747 -0.8391  0.0868
27325SOL    HW289216   9.251   6.082   4.074  1.2545 -0.5038  0.5332
27326SOL     OW89217   2.465   0.850   8.940  0.2706 -0.3148 -0.5148
27326SOL    HW189218   2.374   0.828   8.919 -0.4714 -0.0940  2.1601
27326SOL    HW289219   2.466   0.945   8.948  0.1507 -0.4405  1.5952
27327SOL     OW89220   3.407   6.583   9.759  0.5699  0.0071 -0.5873
27327SOL    HW189221   3.447   6.628   9.834  1.8966  0.0627 -1.3034
27327SOL    HW289222   3.481   6.543   9.713 -0.2112  0.0749 -1.9329
27328SOL     OW89223   7.453   6.594  12.562 -0.4763 -0.2605 -0.1403
27328SOL    HW189224   7.415   6.511  12.590 -1.1743  0.2536  0.4805
27328SOL    HW289225   7.419   6.608  12.474 -0.8976 -0.3097  0.0139
27329SOL     OW89226   2.156   1.023   5.355 -0.0963  0.1792  0.4007
27329SOL    HW189227   2.231   0.978   5.317 -0.2871  1.1299 -1.2557
27329SOL    HW289228   2.190   1.109   5.380 -0.6423  0.6973 -0.5671
27330SOL     OW89229   6.125   5.466  10.251 -0.2705  0.2580  0.3437
27330SOL    HW189230   6.134   5.539  10.189  1.4233  0.6984  1.0465
27330SOL    HW289231   6.187   5.487  10.320  1.1529 -2.4457 -0.0046
27331SOL     OW89232  11.703   6.090   1.776  0.2358  0.0328 -0.1750
27331SOL    HW189233  11.633   6.149   1.801  0.2173 -0.2608  0.4918
27331SOL    HW289234  11.763   6.090   1.851  1.3983  0.9354 -1.0652
27332SOL     OW89235   1.152   9.339   8.557  0.0472  0.0478 -0.7538
27332SOL    HW189236   1.124   9.293   8.636  2.0654  0.4805  0.3030
27332SOL    HW289237   1.078   9.394   8.533 -0.2923  0.6539  1.4480
27333SOL     OW89238   7.423   6.583   5.848 -0.2329  0.8399 -0.1082
27333SOL    HW189239   7.362   6.561   5.778 -1.4128  1.7845  0.5865
27333SOL    HW289240   7.421   6.679   5.853  0.1113  0.8122  0.9525
27334SOL     OW89241   5.074   4.629  12.018 -0.2323 -0.4647  0.1500
27334SOL    HW189242   5.023   4.550  12.001 -3.3176  1.1108  1.3596
27334SOL    HW289243   5.062   4.647  12.111  1.9510  0.4618  0.3185
27335SOL     OW89244  11.032  12.064  10.872  0.2503  0.5977 -0.3310
27335SOL    HW189245  11.038  12.132  10.805  1.0563  1.6373  0.7546
27335SOL    HW289246  10.939  12.062  10.896  0.1541  1.0395 -0.6540
27336SOL     OW89247   4.860   0.868   4.337 -0.0280  0.2621 -0.0163
27336SOL    HW189248   4.784   0.833   4.385 -0.1463  0.8069  0.2029
27336SOL    HW289249   4.825   0.895   4.252  0.0054  0.1110 -0.0774
27337SOL     OW89250   3.366  10.748   6.436 -0.1170  0.1891  0.2599
27337SOL    HW189251   3.279  10.783   6.458 -0.2810  2.9032 -3.6319
27337SOL    HW289252   3.356  10.653   6.441 -2.9340  0.4472  1.1956
27338SOL     OW89253   8.011   9.922   7.381  0.3213 -0.2907  0.2400
27338SOL    HW189254   8.035   9.952   7.469 -0.0642 -1.6326  0.8334
27338SOL    HW289255   8.035   9.995   7.324 -3.4328  2.5289  1.8768
27339SOL     OW89256   8.690   2.711  12.325  0.2940 -0.2666  0.6547
27339SOL    HW189257   8.649   2.792  12.297 -0.8332 -0.8849  0.4596
27339SOL    HW289258   8.772   2.739  12.367  1.3780  0.7799 -1.9327
27340SOL     OW89259  10.650  12.584   0.878  0.0964 -0.4530  0.1818
27340SOL    HW189260  10.742  12.582   0.903  0.4842 -2.5364 -1.1743
27340SOL    HW289261  10.606  12.530   0.944 -0.3752  1.3016  1.3809
27341SOL     OW89262  10.722   8.497   2.357  0.0654 -0.0871  0.0909
27341SOL    HW189263  10.789   8.432   2.380 -1.2607 -1.7028 -0.4358
27341SOL    HW289264  10.729   8.564   2.424  1.2827 -0.9189  0.8321
27342SOL     OW89265   6.302   5.808   7.372 -0.1979 -0.5416 -0.0162
27342SOL    HW189266   6.353   5.772   7.445 -0.5573 -2.3695 -0.6119
27342SOL    HW289267   6.229   5.854   7.415  0.5158 -0.1049  0.7811
27343SOL     OW89268  10.915   3.221   4.711  0.2760  0.1537 -0.0673
27343SOL    HW189269  11.007   3.194   4.708 -0.3492 -2.1198 -1.0539
27343SOL    HW289270  10.866   3.142   4.688 -2.0310  0.8805  1.9223
27344SOL     OW89271   7.253   6.903  11.333  0.0700 -0.1083 -0.8385
27344SOL    HW189272   7.244   6.933  11.243  1.5191  1.3001 -0.5628
27344SOL    HW289273   7.268   6.982  11.384  1.2723 -1.0361  0.3455
27345SOL     OW89274   1.715   2.194   4.084  0.1594  0.2837  0.2612
27345SOL    HW189275   1.666   2.119   4.051  0.8905 -0.6286  1.1762
27345SOL    HW289276   1.655   2.236   4.145  1.0603 -1.9999  2.9520
27346SOL     OW89277   0.198   4.098   8.569  0.0141 -0.0934 -0.4096
27346SOL    HW189278   0.201   4.148   8.487 -3.5391 -0.7286 -1.1255
27346SOL    HW289279   0.216   4.008   8.543 -1.5771 -0.3713 -0.6631
27347SOL     OW89280   1.641   8.620   3.633  0.1967 -0.5518  0.2719
27347SOL    HW189281   1.631   8.569   3.714  1.5984 -1.1172  0.1235
27347SOL    HW289282   1.707   8.686   3.654 -0.2887  0.0508 -0.0763
27348SOL     OW89283   3.103   2.470   8.275 -0.3690  0.0618 -0.0128
27348SOL    HW189284   3.135   2.439   8.190 -0.9988 -0.0383 -0.2184
27348SOL    HW289285   3.024   2.418   8.291 -0.2996  0.1401  0.5989
27349SOL     OW89286   6.799  10.942   0.778  0.1716 -0.2006  0.3427
27349SOL    HW189287   6.867  10.946   0.711 -0.6287  0.5481 -0.4487
27349SOL    HW289288   6.820  11.015   0.837 -0.5198  0.6791 -0.4797
27350SOL     OW89289   2.703   9.360   3.657 -0.4320  0.0694  0.5996
27350SOL    HW189290   2.614   9.394   3.655  0.1042  1.5181 -0.1015
27350SOL    HW289291   2.756   9.433   3.690  0.5463 -0.6186  0.6044
27351SOL     OW89292   9.597   0.564   4.485 -0.8111 -0.3042 -0.0406
27351SOL    HW189293   9.618   0.545   4.394 -0.4414  1.5576 -0.3781
27351SOL    HW289294   9.505   0.590   4.484 -0.6837  0.1473  0.0566
27352SOL     OW89295   7.005   3.616   9.628 -0.0889  0.3918  0.1802
27352SOL    HW189296   6.924   3.628   9.579 -0.0739  0.6015  0.2056
27352SOL    HW289297   6.976   3.591   9.716 -0.1147 -0.0155  0.0562
27353SOL     OW89298   0.639   8.134  12.150  0.0297  0.5718 -0.3358
27353SOL    HW189299   0.562   8.117  12.205  1.4907  1.5734  2.1894
27353SOL    HW289300   0.626   8.224  12.119 -0.3130  0.3549 -0.8428
27354SOL     OW89301   7.473  11.679   2.117 -0.6142  0.0294 -0.5147
27354SOL    HW189302   7.535  11.751   2.134 -0.1150 -0.1535 -1.4558
27354SOL    HW289303   7.418  11.675   2.195  0.3244  0.4522  0.1901
27355SOL     OW89304  12.591   5.402   1.878 -0.1925  0.5671 -0.5473
27355SOL    HW189305  12.533   5.370   1.948  1.4711  0.8728  1.0476
27355SOL    HW289306  12.533   5.414   1.803 -1.6924 -1.7408  0.1348
27356SOL     OW89307  10.178   2.536   8.746  0.1816  0.1393  0.4538
27356SOL    HW189308  10.190   2.515   8.838  1.1410  0.9586  0.5320
27356SOL    HW289309  10.264   2.568   8.717 -0.6814  2.0973 -0.1239
27357SOL     OW89310   5.126   5.640   8.615 -0.2757 -0.2912  0.8546
27357SOL    HW189311   5.040   5.638   8.656 -0.1643  0.6381  1.1527
27357SOL    HW289312   5.119   5.581   8.540 -2.4662  2.7970 -1.6208
27358SOL     OW89313  10.635   4.820  10.370 -0.3266  0.2279  0.4119
27358SOL    HW189314  10.671   4.898  10.328 -2.7764  0.6306 -1.1260
27358SOL    HW289315  10.605   4.850  10.456 -2.0087  1.2564 -0.4851
27359SOL     OW89316  10.952  11.691   7.657 -0.2391  0.8338 -0.5549
27359SOL    HW189317  10.927  11.771   7.609 -2.0539  0.7005  0.0812
27359SOL    HW289318  10.877  11.633   7.646  0.5573 -0.3259  0.0190
27360SOL     OW89319   2.888   2.872   4.266  0.6536 -0.6190 -0.0935
27360SOL    HW189320   2.868   2.828   4.349  1.5828  0.6538  0.8477
27360SOL    HW289321   2.982   2.888   4.270  0.4360  0.9706 -0.6090
27361SOL     OW89322  12.069   2.547   4.596 -0.2425  0.0498 -0.5397
27361SOL    HW189323  12.124   2.622   4.619  0.9383 -0.7527 -0.6653
27361SOL    HW289324  12.095   2.479   4.659 -0.1002 -0.7831 -1.4847
27362SOL     OW89325   6.205   9.838   9.627 -0.1704 -0.1229  0.0888
27362SOL    HW189326   6.231   9.748   9.607  1.2480 -0.1656  1.7897
27362SOL    HW289327   6.116   9.830   9.663  0.0709 -0.9092  0.5422
27363SOL     OW89328  11.307  10.095   8.643  0.4847 -0.3197 -0.0440
27363SOL    HW189329  11.331  10.025   8.582 -1.0328 -1.6107  0.7601
27363SOL    HW289330  11.231  10.137   8.602  0.5802  0.0046  0.1065
27364SOL     OW89331   0.682  11.010   2.401  0.5068 -0.0063  0.2991
27364SOL    HW189332   0.639  11.080   2.450  0.5204 -0.8659  1.5822
27364SOL    HW289333   0.731  10.961   2.468  2.7828  0.4170 -0.9580
27365SOL     OW89334   9.014   5.898   0.697 -0.1933 -0.1207 -0.5636
27365SOL    HW189335   9.067   5.929   0.623  2.2288 -2.0363  0.2233
27365SOL    HW289336   9.001   5.805   0.678 -1.2309 -0.2041  0.4908
27366SOL     OW89337   3.782   0.978  10.630  0.0612 -0.1551 -0.3408
27366SOL    HW189338   3.834   1.053  10.599  1.0366 -0.9634 -0.7400
27366SOL    HW289339   3.798   0.909  10.565 -1.1144 -0.6025 -0.1818
27367SOL     OW89340   2.765   9.630   3.759 -0.2042 -0.4692  0.4784
27367SOL    HW189341   2.818   9.652   3.836 -1.8122  0.7463  1.3035
27367SOL    HW289342   2.788   9.697   3.694  0.0809 -0.6210  0.4214
27368SOL     OW89343  11.859  11.929   5.032  0.6906 -0.1498 -0.6088
27368SOL    HW189344  11.926  11.860   5.035  0.1291 -0.7857 -1.7759
27368SOL    HW289345  11.876  11.983   5.109  0.5148 -2.1848  0.9440
27369SOL     OW89346   4.663   2.559   3.552  0.3066  0.4615 -0.4781
27369SOL    HW189347   4.686   2.542   3.460 -0.8695  1.9019 -1.0687
27369SOL    HW289348   4.594   2.625   3.548  0.1660  0.4832  1.4567
27370SOL     OW89349   9.878   6.186   4.405  0.2890 -0.1139 -0.0611
27370SOL    HW189350   9.961   6.222   4.371 -0.4335  1.1210 -0.5742
27370SOL    HW289351   9.816   6.199   4.334 -0.9335  1.2424  1.1951
27371SOL     OW89352  11.170   1.105   8.226 -0.4461  0.7891  0.1944
27371SOL    HW189353  11.231   1.170   8.191  0.7186 -0.0736  0.5564
27371SOL    HW289354  11.114   1.081   8.152  0.4280  0.7366 -0.4551
27372SOL     OW89355   5.267   1.076   5.134  0.2939 -0.1431  0.1707
27372SOL    HW189356   5.251   1.121   5.052 -2.9946  0.0840  0.8296
27372SOL    HW289357   5.290   1.146   5.196  1.1629 -0.1340 -0.1446
27373SOL     OW89358   7.205   6.208  11.872 -0.2838 -0.2666  0.3111
27373SOL    HW189359   7.257   6.206  11.791 -0.5977 -0.7581  0.1178
27373SOL    HW289360   7.213   6.120  11.907  2.2027  0.6491  2.3374
27374SOL     OW89361  12.661  12.552   0.048  0.1867  0.1662  0.3007
27374SOL    HW189362  12.691  12.621   0.108 -1.0073  0.2553  0.8163
27374SOL    HW289363  12.618  12.598  -0.023 -0.4721 -0.0363  0.5637
27375SOL     OW89364   0.752   3.494  11.626  0.0600 -0.5426  0.2317
27375SOL    HW189365   0.735   3.402  11.649 -0.1179 -0.9674 -1.5173
27375SOL    HW289366   0.716   3.504  11.538 -1.7468  1.7470  1.1102
27376SOL     OW89367  10.992  11.836   3.589  0.1332 -0.1147  0.9791
27376SOL    HW189368  10.937  11.847   3.666 -0.8831  0.1550  0.2382
27376SOL    HW289369  11.082  11.845   3.622 -0.2328 -0.9505  2.2729
27377SOL     OW89370   2.177  12.058   7.630 -0.2089 -0.0536 -0.4046
27377SOL    HW189371   2.165  12.150   7.653 -0.7546 -0.4227  0.8941
27377SOL    HW289372   2.268  12.039   7.651 -0.6648 -0.3499  1.4918
27378SOL     OW89373   9.085   1.164   8.548 -0.3464  0.2804 -0.7311
27378SOL    HW189374   9.151   1.225   8.515  1.5354 -1.2042  0.1209
27378SOL    HW289375   9.111   1.079   8.514 -0.6834 -0.6458  1.1990
27379SOL     OW89376   6.039   6.752   7.568  0.0583  0.3674 -0.3353
27379SOL    HW189377   6.083   6.782   7.648 -3.1347  3.2185  0.6034
27379SOL    HW289378   6.007   6.664   7.591  0.0338  0.7403  1.2061
27380SOL     OW89379   8.902   7.211   1.010  0.5011  0.3115  0.8887
27380SOL    HW189380   8.844   7.149   0.967  2.1460  0.1972 -1.3112
27380SOL    HW289381   8.866   7.297   0.987 -0.6153  0.2826  2.2935
27381SOL     OW89382   8.240   1.802   6.551  0.3382 -0.2531  0.1013
27381SOL    HW189383   8.151   1.834   6.537 -0.5603 -2.4855  0.2505
27381SOL    HW289384   8.246   1.791   6.646  0.7494 -0.1321  0.0871
27382SOL     OW89385  11.831   0.468   4.673  0.0732 -0.3076  0.0429
27382SOL    HW189386  11.759   0.488   4.613 -0.5600  0.1750  0.9367
27382SOL    HW289387  11.908   0.460   4.617 -0.4579  0.4064 -0.8039
27383SOL     OW89388   9.172  12.429   0.563  0.0828  0.5943 -0.2329
27383SOL    HW189389   9.210  12.364   0.505  1.8596  1.6689 -0.3504
27383SOL    HW289390   9.115  12.482   0.507 -1.0940 -0.6135 -0.2035
27384SOL     OW89391   9.410   9.958   5.880  0.1011  0.3914  0.3654
27384SOL    HW189392   9.372   9.970   5.967  1.4103 -1.6858  1.2874
27384SOL    HW289393   9.463  10.036   5.866 -0.0904  0.7308  1.4293
27385SOL     OW89394   9.480   4.899  10.580  0.6363  0.6313 -0.1136
27385SOL    HW189395   9.408   4.912  10.519  0.5761 -0.6145 -0.3326
27385SOL    HW289396   9.439   4.896  10.666  0.7957  3.1484  0.1439
27386SOL     OW89397  11.971  12.140   9.073 -0.1660 -0.2911 -0.4891
27386SOL    HW189398  11.920  12.059   9.080  1.0569 -0.9873  1.1889
27386SOL    HW289399  11.943  12.193   9.148 -0.0362  0.2833 -0.8436
27387SOL     OW89400  11.725   7.173   1.072  1.0798  0.2491 -0.4058
27387SOL    HW189401  11.678   7.152   1.153 -0.3838 -1.1207 -1.5401
27387SOL    HW289402  11.785   7.099   1.060 -1.1683 -1.4514 -2.2737
27388SOL     OW89403   9.047   0.456   2.965  0.0903  0.1496 -0.1572
27388SOL    HW189404   9.137   0.423   2.963 -0.3130 -1.1206 -2.9252
27388SOL    HW289405   9.036   0.492   3.053  2.7654 -1.1132  0.8051
27389SOL     OW89406   4.927   7.290   4.773  0.1220 -0.0200  0.7056
27389SOL    HW189407   5.000   7.259   4.719 -0.6829  0.4469 -0.7113
27389SOL    HW289408   4.851   7.284   4.716 -0.5124  1.9927  1.2477
27390SOL     OW89409   2.312   0.410   1.734 -0.5319 -0.3612 -0.0356
27390SOL    HW189410   2.315   0.417   1.830  0.5019 -2.0705  0.1001
27390SOL    HW289411   2.299   0.317   1.717  1.1350 -0.3797 -1.5526
27391SOL     OW89412   1.969   8.010   0.364  0.4221 -0.2383 -0.1302
27391SOL    HW189413   1.943   7.922   0.336  1.0332  0.0879 -1.8375
27391SOL    HW289414   2.002   8.052   0.284  1.9733  0.8700  1.0321
27392SOL     OW89415  10.492  11.945   8.226  0.1170  0.3719  0.3188
27392SOL    HW189416  10.569  11.959   8.172 -0.2416 -0.3022 -0.3900
27392SOL    HW289417  10.504  12.003   8.301  3.1472 -2.2409  2.1696
27393SOL     OW89418   9.994  12.302   3.100  0.2116 -0.3909  0.2683
27393SOL    HW189419   9.904  12.327   3.121  0.3284  1.0336 -0.7189
27393SOL    HW289420   9.988  12.262   3.013  0.5799  0.1638 -0.0186
27394SOL     OW89421   0.599   8.239   1.225  0.3218 -0.8735  0.5860
27394SOL    HW189422   0.591   8.271   1.315  3.8652  2.7050 -0.1052
27394SOL    HW289423   0.527   8.281   1.178  1.1593  1.1025  0.9656
27395SOL     OW89424   7.769   2.131  11.152 -0.0178 -0.4177 -0.4506
27395SOL    HW189425   7.798   2.069  11.219 -0.4969 -1.1729 -0.9376
27395SOL    HW289426   7.764   2.215  11.198  1.3805 -0.5740  0.0337
27396SOL     OW89427  10.870   5.994   7.732 -0.6178 -0.5455  0.0988
27396SOL    HW189428  10.907   5.906   7.745 -0.7271 -0.5381  0.4852
27396SOL    HW289429  10.871   6.033   7.820 -2.3591 -0.8711  0.2844
27397SOL     OW89430   6.313   7.890   8.037 -0.0378  0.5964 -0.0788
27397SOL    HW189431   6.408   7.879   8.044 -0.2125 -1.9052 -0.8342
27397SOL    HW289432   6.301   7.946   7.961  0.8351  1.7981  0.6291
27398SOL     OW89433  10.379   8.479  12.521 -0.4761  0.0136  0.2320
27398SOL    HW189434  10.464   8.514  12.495 -0.7025  2.5231  2.4455
27398SOL    HW289435  10.323   8.494  12.445  0.8321 -1.0335 -1.0000
27399SOL     OW89436   8.431   8.817   3.678  0.1234 -0.2682  0.4793
27399SOL    HW189437   8.442   8.722   3.668 -1.8610 -0.6784  1.5608
27399SOL    HW289438   8.391   8.845   3.596  0.5691 -0.3690  0.2190
27400SOL     OW89439   6.300   9.606   3.338 -0.5181  0.3113  0.0700
27400SOL    HW189440   6.264   9.598   3.249 -0.3963  0.3429  0.0174
27400SOL    HW289441   6.263   9.531   3.385  1.6669 -1.3985 -0.7754
27401SOL     OW89442   1.737   7.816  10.966 -0.1202  0.1554 -0.7049
27401SOL    HW189443   1.717   7.741  10.911 -0.6576  0.9280 -1.6109
27401SOL    HW289444   1.652   7.856  10.984  0.0901  0.1719  0.3347
27402SOL     OW89445   4.751   9.252  12.491  0.1418 -0.6330 -0.1047
27402SOL    HW189446   4.678   9.216  12.441 -0.5274  2.0517 -1.2520
27402SOL    HW289447   4.824   9.254  12.430  0.8310 -2.0318  0.6263
27403SOL     OW89448   6.284   4.209   1.216 -0.1979  0.3233  0.0184
27403SOL    HW189449   6.242   4.248   1.293 -0.0697  0.7070 -0.1074
27403SOL    HW289450   6.346   4.276   1.185 -1.1198  0.6586 -1.1486
27404SOL     OW89451   8.037   9.821   9.739 -0.5220 -0.1423  0.4544
27404SOL    HW189452   8.059   9.746   9.683  1.8357 -0.7897  2.1181
27404SOL    HW289453   8.018   9.892   9.677  2.6010 -0.6301 -1.2917
27405SOL     OW89454   3.379   8.663   9.635  0.3458 -0.2999  0.4937
27405SOL    HW189455   3.378   8.659   9.731  2.3194 -1.4610  0.5092
27405SOL    HW289456   3.468   8.688   9.613 -0.5173  1.7180 -1.0526
27406SOL     OW89457   1.822  10.374  12.580  0.3326  0.6445 -0.1838
27406SOL    HW189458   1.826  10.463  12.545  0.6564  1.5581  2.0636
27406SOL    HW289459   1.897  10.368  12.639 -0.2843 -0.7794  0.4987
27407SOL     OW89460   3.861   4.544   3.225  0.7696  0.2071 -0.3544
27407SOL    HW189461   3.813   4.515   3.303  1.2051 -0.0699 -0.1857
27407SOL    HW289462   3.921   4.610   3.257  0.2523  0.8229 -0.6289
27408SOL     OW89463   5.186  11.765   1.862 -0.2255 -0.2909  0.9067
27408SOL    HW189464   5.154  11.753   1.951 -1.0842  1.4268  0.8544
27408SOL    HW289465   5.216  11.855   1.859  0.8846 -0.6711 -0.2281
27409SOL     OW89466   3.218   9.553  10.086  0.2560 -0.2324 -0.1194
27409SOL    HW189467   3.183   9.546   9.997 -2.0218  0.3629  0.6464
27409SOL    HW289468   3.246   9.465  10.108 -1.8120 -1.0248 -0.4569
27410SOL     OW89469   0.119   6.638   0.740 -0.0323  0.2914 -0.1215
27410SOL    HW189470   0.055   6.682   0.797  0.3215  0.5890  0.0522
27410SOL    HW289471   0.096   6.545   0.744  0.2141  0.2605  0.8056
27411SOL     OW89472   9.623   4.520  11.699 -0.2200  0.4004 -0.8133
27411SOL    HW189473   9.576   4.547  11.620  2.2588 -0.3900 -2.7337
27411SOL    HW289474   9.636   4.425  11.687  1.1305  0.4568 -0.0297
27412SOL     OW89475   0.527   1.741   5.019 -0.1197  0.4097 -0.5537
27412SOL    HW189476   0.465   1.802   4.980  1.5031  2.4052 -0.2194
27412SOL    HW289477   0.503   1.738   5.112  0.6155  1.6783 -0.3006
27413SOL     OW89478   6.104   2.077   4.002  0.0134 -0.6545  0.0148
27413SOL    HW189479   6.156   1.999   3.986  0.6926 -0.1984 -0.0267
27413SOL    HW289480   6.165   2.140   4.040 -0.4566 -0.0427 -0.2190
27414SOL     OW89481  11.005  11.876   5.959 -0.1178  0.3381 -0.1555
27414SOL    HW189482  11.086  11.829   5.939 -0.6916 -0.5615 -0.4262
27414SOL    HW289483  10.982  11.919   5.877 -0.9300 -0.9971 -0.6657
27415SOL     OW89484   9.660  10.793   5.272 -0.5399 -0.4468  0.7579
27415SOL    HW189485   9.569  10.763   5.263 -1.1332  1.3674  0.1378
27415SOL    HW289486   9.661  10.878   5.227  1.2649 -0.0555  1.4690
27416SOL     OW89487   3.856   5.680   8.397 -0.3674 -0.7779 -0.2096
27416SOL    HW189488   3.913   5.673   8.474 -1.6888  1.0482  1.0359
27416SOL    HW289489   3.891   5.616   8.335  2.8993  0.0811  0.5349
27417SOL     OW89490   3.710  12.103   9.534 -0.4777 -0.3915  0.0884
27417SOL    HW189491   3.792  12.147   9.554 -1.0080  1.9715 -2.2676
27417SOL    HW289492   3.648  12.174   9.518 -3.0507 -2.0840  1.7545
27418SOL     OW89493   4.732  10.553  12.426 -0.3541  0.2290 -0.4115
27418SOL    HW189494   4.800  10.607  12.466 -1.2612 -0.6482  2.5823
27418SOL    HW289495   4.756  10.463  12.448  0.4675 -0.6692 -4.2355
27419SOL     OW89496   0.989  10.235   4.464  0.7439 -0.3871  0.3472
27419SOL    HW189497   0.945  10.284   4.533  1.9240  1.8613 -0.3929
27419SOL    HW289498   0.921  10.182   4.424 -1.0026  1.7971  0.2463
27420SOL     OW89499   4.438   4.204  10.713  0.5699 -0.2654 -0.3665
27420SOL    HW189500   4.447   4.203  10.618  2.3343 -0.4003 -0.2256
27420SOL    HW289501   4.491   4.131  10.743 -0.0638 -0.2934  0.7245
27421SOL     OW89502  10.572   7.455   9.005  0.1581 -0.0088 -0.2215
27421SOL    HW189503  10.497   7.439   9.063  0.8117  0.7837  0.8677
27421SOL    HW289504  10.607   7.367   8.987  0.1461 -0.2521  0.8673
27422SOL     OW89505  10.702   7.877   0.043 -0.5023 -0.1673 -0.1233
27422SOL    HW189506  10.796   7.859   0.041 -0.4709  0.0489 -0.7153
27422SOL    HW289507  10.673   7.843   0.128  0.3468  0.9532  0.6438
27423SOL     OW89508   3.650  12.631   9.692 -0.3479  0.0088  0.2192
27423SOL    HW189509   3.718  12.580   9.736  0.0131 -1.4568 -1.9055
27423SOL    HW289510   3.622  12.696   9.757  2.4931  0.1412  1.4297
27424SOL     OW89511   7.096   4.096  12.102  0.1413 -0.2800 -0.1102
27424SOL    HW189512   7.057   4.011  12.081 -0.6588  0.4216 -1.6469
27424SOL    HW289513   7.053   4.123  12.182 -0.4382 -0.8195 -0.2321
27425SOL     OW89514   7.752   1.454   1.082 -0.7176  0.3330  0.3676
27425SOL    HW189515   7.701   1.529   1.113  0.0210  0.2850  1.7857
27425SOL    HW289516   7.799   1.423   1.160  1.2047  0.1528 -0.7974
27426SOL     OW89517   4.133   2.954   1.990 -0.3335 -0.1329  0.1181
27426SOL    HW189518   4.054   2.987   2.034  0.0365  1.5144 -0.3932
27426SOL    HW289519   4.104   2.936   1.901 -0.6052 -1.5754  0.4658
27427SOL     OW89520   1.192   4.720   4.940  0.2810 -0.6758  0.2800
27427SOL    HW189521   1.255   4.670   4.887 -0.4105 -1.3178  0.0504
27427SOL    HW289522   1.242   4.748   5.017  0.8786 -1.0753  0.0411
27428SOL     OW89523  11.220  10.010  10.563  0.4752  0.1002 -0.5352
27428SOL    HW189524  11.301   9.970  10.595  0.5496  1.7807  1.5985
27428SOL    HW289525  11.249  10.085  10.511  0.2972  0.2876 -0.3644
27429SOL     OW89526   9.747   5.464  10.278 -0.2306  0.3814  0.6903
27429SOL    HW189527   9.769   5.547  10.235 -0.2128  0.2167  0.3836
27429SOL    HW289528   9.725   5.489  10.368  2.1458  0.4578  1.3163
27430SOL     OW89529  11.051   4.699   0.474 -0.1461  0.1666  0.1497
27430SOL    HW189530  10.967   4.743   0.479  0.4419  1.1960  1.5445
27430SOL    HW289531  11.092   4.735   0.395 -0.3100  0.9785  0.4237
27431SOL     OW89532   6.201   0.227   7.023  0.1681  0.7593  0.6539
27431SOL    HW189533   6.173   0.318   7.018 -0.1265  0.7277  1.6396
27431SOL    HW289534   6.256   0.222   7.101  0.3418  0.1317  0.5015
27432SOL     OW89535  12.566   8.324  12.382  0.9466  0.4801  0.5287
27432SOL    HW189536  12.565   8.399  12.322 -0.0327 -0.6358 -0.9222
27432SOL    HW289537  12.629   8.264  12.343  0.0932 -0.3787  0.4305
27433SOL     OW89538   1.968   4.114  11.922  0.1838  0.2244  0.3233
27433SOL    HW189539   1.948   4.157  12.005  0.7774  1.0110  0.0733
27433SOL    HW289540   1.982   4.186  11.860  0.9179 -0.3242 -0.1744
27434SOL     OW89541   4.671   7.928   7.175  0.2810  0.0616 -1.0336
27434SOL    HW189542   4.609   7.906   7.106 -0.0693 -0.3054 -0.6068
27434SOL    HW289543   4.713   8.009   7.146 -2.0915  1.6728 -0.2330
27435SOL     OW89544  10.870   5.011   3.868  0.5582  0.2645 -0.3142
27435SOL    HW189545  10.903   4.922   3.873 -0.5457 -0.1153  0.5088
27435SOL    HW289546  10.784   5.008   3.910  0.4181  1.6750 -0.4378
27436SOL     OW89547   1.155  10.809   3.178 -0.4680 -0.1808 -0.1430
27436SOL    HW189548   1.220  10.798   3.247  1.2444  1.2939 -1.4198
27436SOL    HW289549   1.156  10.725   3.131  0.9179 -0.0376 -0.4298
27437SOL     OW89550  10.218   3.102   4.131  0.6835  0.0660 -0.7616
27437SOL    HW189551  10.144   3.130   4.184 -0.7530 -1.4595 -1.8780
27437SOL    HW289552  10.293   3.147   4.170 -0.7172  1.2220  0.7497
27438SOL     OW89553   7.050   4.860   3.886 -0.1191  0.3785  0.0383
27438SOL    HW189554   7.036   4.767   3.871 -1.0383  0.5726 -0.4385
27438SOL    HW289555   7.123   4.884   3.829  2.0658 -0.5898  2.2511
27439SOL     OW89556   7.978  10.872   5.376  0.1823 -0.1374 -0.4148
27439SOL    HW189557   7.925  10.835   5.305 -0.2227 -0.5836  0.1135
27439SOL    HW289558   7.915  10.923   5.428 -0.1383 -2.0822  1.2209
27440SOL     OW89559  12.170   2.994   4.259  0.2194  0.5654  0.1181
27440SOL    HW189560  12.219   2.920   4.296  1.3566  2.0172  1.6661
27440SOL    HW289561  12.079   2.964   4.257  0.6745 -0.9291  0.5387
27441SOL     OW89562  12.638   4.628   0.681  0.0908 -0.3350 -0.3064
27441SOL    HW189563  12.555   4.582   0.683  0.8889 -1.8702 -1.0407
27441SOL    HW289564  12.653   4.655   0.771 -0.8669 -0.6468 -0.0464
27442SOL     OW89565   4.083   2.759  11.229 -0.1694  0.3373 -0.0062
27442SOL    HW189566   4.096   2.707  11.150  1.1740  0.0534  0.3819
27442SOL    HW289567   4.169   2.795  11.249 -0.8107  1.6731  0.4738
27443SOL     OW89568   0.101   7.151   5.228 -0.2799  0.8102 -0.0491
27443SOL    HW189569   0.189   7.115   5.213 -0.9157  0.1179 -2.7240
27443SOL    HW289570   0.102   7.178   5.320  1.7805 -1.8426  0.8613
27444SOL     OW89571   4.656   8.800   0.708 -0.3069  0.1938  0.6838
27444SOL    HW189572   4.652   8.866   0.639 -0.1514  0.7146  1.1689
27444SOL    HW289573   4.641   8.717   0.663  1.6741  0.3123 -0.3142
27445SOL     OW89574   0.709   6.493   0.918  0.3894  0.1285 -0.4107
27445SOL    HW189575   0.725   6.583   0.946 -1.1968  0.4497 -0.4736
27445SOL    HW289576   0.776   6.476   0.852  0.7773  1.2216 -0.3092
27446SOL     OW89577   6.864  11.702   8.539  0.3526  0.3397 -0.2847
27446SOL    HW189578   6.846  11.793   8.565 -0.4751  0.3944 -1.0130
27446SOL    HW289579   6.861  11.653   8.620 -1.2130  0.6601 -0.1175
27447SOL     OW89580   7.571  11.925   0.188 -0.2546  0.7365  0.5225
27447SOL    HW189581   7.557  11.973   0.107  0.3538 -1.0581 -0.7226
27447SOL    HW289582   7.499  11.862   0.192  0.9289 -0.7270  0.1140
27448SOL     OW89583   4.183   5.014   1.760 -0.0877 -0.1507  0.2431
27448SOL    HW189584   4.094   4.994   1.789  0.0075  1.0422  1.4520
27448SOL    HW289585   4.238   4.990   1.835  0.4828  0.2440 -0.0426
27449SOL     OW89586   4.717   8.880  11.078 -0.1089 -0.1322  0.5723
27449SOL    HW189587   4.795   8.932  11.095  0.6397 -0.8223 -0.6013
27449SOL    HW289588   4.702   8.889  10.984 -0.8435 -0.8416  0.6094
27450SOL     OW89589   2.894  12.696  10.466 -0.3222  0.1962  0.8643
27450SOL    HW189590   2.963  12.736  10.518  0.5718  0.8692 -0.7794
27450SOL    HW289591   2.940  12.640  10.403 -1.2215  0.9536 -0.5210
27451SOL     OW89592   4.470   3.359  10.431 -0.3634 -0.2306 -0.1872
27451SOL    HW189593   4.417   3.421  10.383 -0.8445 -0.5805 -0.1137
27451SOL    HW289594   4.543   3.411  10.466 -1.5042  0.5691  1.0735
27452SOL     OW89595   2.889   9.816   3.950  0.3380  0.0366  0.0313
27452SOL    HW189596   2.830   9.854   3.885 -1.6500 -0.3419  1.5192
27452SOL    HW289597   2.962   9.878   3.955  0.2294  0.4171 -2.0230
27453SOL     OW89598   7.752   8.548   0.615 -0.0806 -0.7934 -0.0477
27453SOL    HW189599   7.714   8.508   0.693 -0.8048 -0.4297 -0.2061
27453SOL    HW289600   7.739   8.482   0.546 -0.0146 -0.8542 -0.0027
27454SOL     OW89601   6.600   4.230   2.531  0.2569 -0.2238  0.4759
27454SOL    HW189602   6.514   4.191   2.518  0.4941 -1.2900  1.8332
27454SOL    HW289603   6.658   4.183   2.471  0.2842 -1.0645  1.1391
27455SOL     OW89604   5.194  10.099   3.771  0.0578  0.0610 -0.3322
27455SOL    HW189605   5.113  10.110   3.721 -0.6754 -0.7512  0.6254
27455SOL    HW289606   5.237  10.023   3.730 -0.8090 -0.9499  0.5594
27456SOL     OW89607   5.125   7.160  11.503 -0.4482 -0.0913  0.2533
27456SOL    HW189608   5.213   7.129  11.524 -0.6134 -1.4463 -0.9298
27456SOL    HW289609   5.128   7.255  11.518  1.9607  0.3235 -2.1470
27457SOL     OW89610   6.318   8.782   3.908  0.6644 -0.5371  0.0889
27457SOL    HW189611   6.340   8.859   3.855 -0.1588 -0.6904 -0.4818
27457SOL    HW289612   6.294   8.819   3.993  1.0565 -0.2273  0.0729
27458SOL     OW89613   2.256   0.825  12.620 -0.4494 -0.0181  0.3478
27458SOL    HW189614   2.218   0.836  12.532 -0.4896  0.9922  0.4812
27458SOL    HW289615   2.230   0.904  12.667  1.6316  0.6015  0.5285
27459SOL     OW89616   8.674   3.126   6.156 -0.2831 -0.3325 -0.1836
27459SOL    HW189617   8.610   3.099   6.222 -0.6803  1.2085  0.1079
27459SOL    HW289618   8.758   3.119   6.200 -0.4402 -0.4490  0.1000
27460SOL     OW89619  12.202  10.473   1.788  0.1341 -0.3522  0.5672
27460SOL    HW189620  12.132  10.462   1.725  0.7260  1.7623 -0.5595
27460SOL    HW289621  12.171  10.542   1.848  2.1951  2.8428 -1.6886
27461SOL     OW89622   5.851   0.954   5.221 -0.2907  0.4393 -0.0097
27461SOL    HW189623   5.806   0.902   5.155 -0.0731 -1.0260  0.9558
27461SOL    HW289624   5.934   0.908   5.235  1.4611  2.8685 -1.5031
27462SOL     OW89625   2.571   0.398  11.383  0.4143 -0.0566  0.7595
27462SOL    HW189626   2.646   0.444  11.344 -0.6056  0.5819 -0.5116
27462SOL    HW289627   2.561   0.320  11.329  0.7085 -0.6024  1.4881
27463SOL     OW89628   2.770   0.239   8.450 -0.0040 -0.5146 -0.0309
27463SOL    HW189629   2.750   0.304   8.518  0.3236  0.8322 -1.1898
27463SOL    HW289630   2.812   0.167   8.498 -0.2567  0.1686  1.2672
27464SOL     OW89631   2.554   2.559  11.483  0.1104  0.3664  0.3489
27464SOL    HW189632   2.507   2.476  11.479 -0.8369  0.7534  2.0178
27464SOL    HW289633   2.630   2.541  11.538 -0.2401  0.6340  0.9377
27465SOL     OW89634   0.436   1.562   9.801 -0.2739 -0.3931 -0.3910
27465SOL    HW189635   0.354   1.570   9.752 -0.1072  2.2803 -0.3723
27465SOL    HW289636   0.502   1.601   9.744  0.8843 -1.7152 -0.0242
27466SOL     OW89637   8.110   5.461  10.695 -0.2250  0.7087 -0.3707
27466SOL    HW189638   8.183   5.485  10.639  1.6868 -0.5493  1.4528
27466SOL    HW289639   8.105   5.532  10.760  0.2888  0.1604  0.2913
27467SOL     OW89640   9.507   1.847   2.122 -0.2168 -0.1375  0.0915
27467SOL    HW189641   9.433   1.907   2.125  0.5217  0.7664  1.2240
27467SOL    HW289642   9.553   1.869   2.041 -2.5825 -2.5590 -2.1372
27468SOL     OW89643   8.365   1.740   7.529 -0.1829  0.4942  0.5281
27468SOL    HW189644   8.358   1.666   7.589  1.4782  0.0423  0.2241
27468SOL    HW289645   8.449   1.781   7.552 -1.3223  2.6956  1.1189
27469SOL     OW89646  12.142   8.789  11.580 -0.1060  0.7466  0.3801
27469SOL    HW189647  12.181   8.706  11.553 -1.0008 -0.1222  1.6488
27469SOL    HW289648  12.125   8.835  11.498  2.0301  0.4702 -0.2716
27470SOL     OW89649   2.019   4.434   5.592  0.1991  0.1175  0.1041
27470SOL    HW189650   1.954   4.365   5.579  1.1964 -0.6914 -0.7686
27470SOL    HW289651   2.005   4.494   5.519  0.5244 -0.1356 -0.1683
27471SOL     OW89652  10.377   3.083   3.219 -0.4621 -0.0991 -0.1420
27471SOL    HW189653  10.351   3.010   3.163  0.4395 -1.3390  1.0159
27471SOL    HW289654  10.467   3.102   3.192  0.4384 -1.5323  1.6536
27472SOL     OW89655   8.243   8.212   3.082  0.0478 -0.4680 -0.0932
27472SOL    HW189656   8.200   8.170   3.156 -0.6289 -0.5501 -0.5203
27472SOL    HW289657   8.171   8.245   3.029  0.5050  2.6566  1.0102
27473SOL     OW89658   4.892   9.821  11.258 -0.2163  0.0800  0.3891
27473SOL    HW189659   4.925   9.741  11.215 -1.3568 -0.2453  0.0809
27473SOL    HW289660   4.843   9.866  11.190  0.5782  1.1767  0.5071
27474SOL     OW89661   1.763   3.322  12.662 -0.0207  0.1061 -0.6285
27474SOL    HW189662   1.693   3.345  12.723  0.4357 -1.7711  0.6880
27474SOL    HW289663   1.734   3.240  12.622  0.0680  0.8761 -2.4080
27475SOL     OW89664  11.758   0.891   7.976  0.1710 -0.1713 -0.4811
27475SOL    HW189665  11.687   0.832   8.002  0.4715  0.2664  1.4365
27475SOL    HW289666  11.820   0.835   7.929 -0.5715 -0.9258 -0.5766
27476SOL     OW89667   7.085   2.852   2.571  0.5456  0.4867  0.4463
27476SOL    HW189668   7.056   2.943   2.582 -0.6905  0.5058 -2.1913
27476SOL    HW289669   7.019   2.800   2.616  1.7163  0.8404  2.7240
27477SOL     OW89670   0.212   7.801   7.510  0.5268 -0.4603  0.8355
27477SOL    HW189671   0.224   7.711   7.541  0.3731  0.2631  3.1908
27477SOL    HW289672   0.301   7.837   7.506  0.4762 -0.2874  1.2860
27478SOL     OW89673   5.796   7.969   3.616 -0.6002  0.2685  0.1744
27478SOL    HW189674   5.752   7.929   3.691  1.3841 -0.1261  1.1934
27478SOL    HW289675   5.840   8.046   3.652 -0.5430  0.7129 -0.8246
27479SOL     OW89676   4.418  12.452  10.232 -0.4612 -0.0029  0.2256
27479SOL    HW189677   4.365  12.477  10.308 -2.3739  0.3311 -1.1450
27479SOL    HW289678   4.411  12.526  10.172 -0.4915 -0.9810 -1.0170
27480SOL     OW89679  10.138   1.985   3.733 -0.0998  0.5409  0.2240
27480SOL    HW189680  10.143   2.080   3.720 -0.0621  0.5894  0.5706
27480SOL    HW289681  10.070   1.956   3.673  0.0410  0.7567 -0.0436
27481SOL     OW89682   2.249   9.785  11.111  0.0525  0.0772 -0.0068
27481SOL    HW189683   2.157   9.782  11.138 -0.3891 -0.5871 -1.5029
27481SOL    HW289684   2.265   9.878  11.094 -0.8324  0.0269 -1.2700
27482SOL     OW89685   0.463   2.903   5.233 -0.3637 -0.2066 -0.0972
27482SOL    HW189686   0.477   2.942   5.147  1.8368  0.0523  0.3193
27482SOL    HW289687   0.517   2.824   5.233  1.2594  0.8090  1.6621
27483SOL     OW89688   2.867   0.965   6.586 -0.0203 -0.2138 -0.1212
27483SOL    HW189689   2.816   0.970   6.505  0.9795  3.2330 -0.7036
27483SOL    HW289690   2.888   0.872   6.595 -1.2756 -0.9121 -3.1034
27484SOL     OW89691   4.968   5.042   1.117  0.3042 -0.1703  0.1043
27484SOL    HW189692   4.966   5.012   1.208  0.0073  0.2600  0.2468
27484SOL    HW289693   4.875   5.053   1.094  0.4015  0.7851  0.1219
27485SOL     OW89694   6.858   0.891   0.274  0.0750 -0.0048 -0.3079
27485SOL    HW189695   6.862   0.823   0.341 -1.3943  0.8300  0.6754
27485SOL    HW289696   6.923   0.956   0.301  0.1585 -0.1281 -0.2123
27486SOL     OW89697   0.920   9.263   2.123  0.4079 -0.0534  0.1550
27486SOL    HW189698   0.929   9.168   2.109  0.5503 -0.3063  1.8043
27486SOL    HW289699   0.859   9.291   2.056  0.1350 -1.3762 -0.1754
27487SOL     OW89700   5.868   8.959   9.357 -0.3364 -0.1794  0.2328
27487SOL    HW189701   5.904   9.026   9.415  2.1879 -0.5608 -0.7423
27487SOL    HW289702   5.866   9.000   9.270 -1.5051 -0.4715  0.0993
27488SOL     OW89703  10.890   5.611   4.293 -0.1661  0.3910  0.5887
27488SOL    HW189704  10.929   5.637   4.210  0.9334 -0.6205  0.7581
27488SOL    HW289705  10.820   5.550   4.269  0.9544 -0.8868  0.4078
27489SOL     OW89706  11.742   6.800  10.589 -0.4467  0.1700  0.4659
27489SOL    HW189707  11.838   6.798  10.581 -0.3652  4.2311 -2.1930
27489SOL    HW289708  11.711   6.741  10.521  0.3965  2.9441 -2.6019
27490SOL     OW89709  11.255   4.325   6.098 -0.2839 -0.1437 -0.5259
27490SOL    HW189710  11.207   4.396   6.141 -0.3215 -0.0767 -0.6797
27490SOL    HW289711  11.205   4.306   6.019 -1.0068 -1.2267  0.1650
27491SOL     OW89712   4.153   7.880   0.386 -0.2704  0.1808 -0.1850
27491SOL    HW189713   4.153   7.915   0.475  3.2863 -1.7966  0.7647
27491SOL    HW289714   4.149   7.957   0.330  1.0771  1.7480  1.7412
27492SOL     OW89715   7.756   5.414   8.226  0.0827  0.5357  0.4884
27492SOL    HW189716   7.774   5.489   8.169  2.5151  0.0213  0.4545
27492SOL    HW289717   7.843   5.378   8.246 -0.8760 -0.9559  2.2911
27493SOL     OW89718   9.780   9.728  11.007  0.0465 -0.2612  0.9873
27493SOL    HW189719   9.686   9.725  10.990 -0.1986 -0.1193  2.2370
27493SOL    HW289720   9.816   9.775  10.932 -0.9113 -0.0872  0.6191
27494SOL     OW89721   1.535  10.350   4.189 -0.3698  0.2138 -0.4476
27494SOL    HW189722   1.570  10.435   4.161 -2.1659  0.6542 -1.5174
27494SOL    HW289723   1.532  10.298   4.109 -0.2526 -0.5126  0.0136
27495SOL     OW89724   7.451   9.872   9.108 -0.3559  0.3245 -0.0650
27495SOL    HW189725   7.363   9.838   9.092 -0.4474 -0.0647  1.1297
27495SOL    HW289726   7.438   9.964   9.130 -0.7399 -0.1788  2.1156
27496SOL     OW89727   1.873   4.585   5.398  0.1506  0.2159 -0.1668
27496SOL    HW189728   1.859   4.554   5.308 -2.3895  1.0144 -0.0988
27496SOL    HW289729   1.798   4.553   5.447  1.2237  0.2546  1.6024
27497SOL     OW89730   7.267  10.696   6.247  0.4980 -0.1222  0.1912
27497SOL    HW189731   7.180  10.695   6.288 -0.8302  1.6389 -2.3083
27497SOL    HW289732   7.282  10.605   6.221  0.0585 -0.7060  1.8222
27498SOL     OW89733  11.341  11.254   5.212  0.1866  0.0547  0.0580
27498SOL    HW189734  11.410  11.190   5.195 -1.8286 -1.9002 -1.1932
27498SOL    HW289735  11.260  11.204   5.209 -1.3544  2.3085  1.2583
27499SOL     OW89736   6.820   2.124   1.369  0.0737  0.2324 -0.1872
27499SOL    HW189737   6.746   2.171   1.329  1.7283  2.1233 -1.1937
27499SOL    HW289738   6.881   2.110   1.297  1.2297 -0.2153  0.8445
27500SOL     OW89739   8.029   3.684   9.079  0.2154 -0.2163  0.1171
27500SOL    HW189740   8.083   3.709   9.154 -0.0737 -1.4657  0.7926
27500SOL    HW289741   7.958   3.748   9.078  0.1748 -0.2310  0.9891
27501SOL     OW89742   2.205   5.344   1.480 -0.2116  0.0632 -0.4252
27501SOL    HW189743   2.176   5.285   1.549 -2.1441  0.7042 -0.6412
27501SOL    HW289744   2.151   5.422   1.490 -0.3526  0.2951 -2.4563
27502SOL     OW89745   5.786   1.805   0.354 -0.0739 -0.3886  0.4213
27502SOL    HW189746   5.786   1.870   0.424 -1.5000 -1.1924  1.2211
27502SOL    HW289747   5.769   1.722   0.398  1.4811 -1.2990 -0.6081
27503SOL     OW89748   7.072   8.253   6.865 -0.0366 -0.0257 -0.0198
27503SOL    HW189749   7.091   8.193   6.794  0.4363 -0.2897  0.3259
27503SOL    HW289750   7.136   8.323   6.856 -1.0082  0.7927 -0.8255
27504SOL     OW89751   7.988  11.490  10.235  0.1422  0.1326  0.6283
27504SOL    HW189752   8.077  11.516  10.259 -0.6370  3.0687  0.7566
27504SOL    HW289753   7.937  11.505  10.315 -0.5178 -1.5316  0.5603
27505SOL     OW89754  10.722   7.914   9.830 -0.1832  0.8380  0.3833
27505SOL    HW189755  10.705   7.974   9.903 -2.3108  1.3532 -0.4720
27505SOL    HW289756  10.647   7.854   9.830  0.3090  0.1886 -0.7407
27506SOL     OW89757  12.179   3.833   0.787  0.0523  0.0170  0.1838
27506SOL    HW189758  12.189   3.787   0.871  0.3900  2.4818  1.6049
27506SOL    HW289759  12.091   3.809   0.757  0.5197 -2.1375  0.4163
27507SOL     OW89760  10.958   7.090  11.193 -0.0163 -0.3097  0.0127
27507SOL    HW189761  10.982   7.027  11.260  1.4665  0.8745  0.6558
27507SOL    HW289762  10.986   7.050  11.111 -0.8258 -1.2796  0.1845
27508SOL     OW89763   5.109   2.303   5.431 -0.0465  0.4582  0.0084
27508SOL    HW189764   5.141   2.253   5.506 -3.5436 -1.7661  0.2377
27508SOL    HW289765   5.149   2.260   5.355  1.3091  0.9516  0.4011
27509SOL     OW89766   5.749   7.077   1.563  0.0739  0.7661 -0.1528
27509SOL    HW189767   5.754   7.167   1.595  1.0862  0.1800  1.4555
27509SOL    HW289768   5.657   7.053   1.575 -0.1033  1.4266 -0.1251
27510SOL     OW89769  10.758   0.722   1.492  0.5075  0.0571 -0.2680
27510SOL    HW189770  10.782   0.722   1.399 -0.3915  2.1201 -0.5514
27510SOL    HW289771  10.839   0.740   1.538  0.8044 -0.1531 -0.6938
27511SOL     OW89772  10.148   7.142   9.846 -0.4000 -0.1925  0.0595
27511SOL    HW189773  10.180   7.055   9.869 -0.8643 -0.0062  1.4879
27511SOL    HW289774  10.208   7.202   9.891  0.2957  0.2682 -1.4092
27512SOL     OW89775   9.385   3.590   4.891 -0.3116  0.3970  0.2882
27512SOL    HW189776   9.353   3.623   4.807 -0.1133  0.4591  0.2363
27512SOL    HW289777   9.306   3.577   4.944 -0.5893 -1.1787 -0.4502
27513SOL     OW89778   4.205  10.206   2.668  0.9772  0.0394  0.9072
27513SOL    HW189779   4.229  10.297   2.682 -0.2021  0.8585 -1.7953
27513SOL    HW289780   4.116  10.209   2.633  0.7100 -2.1937  1.2371
27514SOL     OW89781   5.068   9.398   6.125  0.2252 -0.3474  0.3844
27514SOL    HW189782   4.986   9.420   6.082  0.4086 -0.0606  0.1738
27514SOL    HW289783   5.045   9.330   6.189 -0.2025 -0.1498  0.4433
27515SOL     OW89784   2.558   6.597  10.204  1.2950  0.5090  0.0735
27515SOL    HW189785   2.499   6.666  10.233  1.5219  0.8894 -0.3511
27515SOL    HW289786   2.645   6.636  10.210  1.2817  1.0554 -2.2641
27516SOL     OW89787   0.680  10.918   1.719 -0.3104  0.1340  0.1418
27516SOL    HW189788   0.617  10.847   1.702 -2.6381  2.4668 -1.8462
27516SOL    HW289789   0.754  10.899   1.662  0.4066 -2.0453  1.6512
27517SOL     OW89790   8.310   0.116   2.012  0.6920 -0.7589  0.3200
27517SOL    HW189791   8.266   0.031   2.008 -1.6571  0.2875  1.4884
27517SOL    HW289792   8.308   0.139   2.105  2.1392  0.1688  0.1482
27518SOL     OW89793  12.003   9.284  10.577  0.5120  0.2147  0.0759
27518SOL    HW189794  11.976   9.194  10.559  0.0539  0.0610  1.4407
27518SOL    HW289795  11.922   9.329  10.602  0.8248  0.8638 -0.0628
27519SOL     OW89796   8.065   8.143   6.408  0.1679 -0.2796 -0.1672
27519SOL    HW189797   8.040   8.131   6.316  0.1670 -0.2064 -0.1766
27519SOL    HW289798   8.154   8.177   6.404  0.5929 -1.3509 -0.1122
27520SOL     OW89799   1.960   7.950  12.623  0.0739 -0.6196 -0.6622
27520SOL    HW189800   2.045   7.911  12.602  1.0361  0.5443  0.8860
27520SOL    HW289801   1.909   7.878  12.661  0.0043 -1.5470 -2.4465
27521SOL     OW89802   3.635   4.735   0.097  0.4234 -0.2209  0.3321
27521SOL    HW189803   3.699   4.803   0.120 -0.2787  0.7700 -0.5594
27521SOL    HW289804   3.550   4.773   0.122  0.2055 -1.8857  2.3749
27522SOL     OW89805   9.615   0.887   0.086  0.7871 -0.4039  0.3581
27522SOL    HW189806   9.668   0.903   0.008 -0.7597  0.9512 -0.4754
27522SOL    HW289807   9.645   0.953   0.149 -0.6083  1.1894 -0.5339
27523SOL     OW89808  12.696   4.418  10.645  0.4305  0.1268  0.2645
27523SOL    HW189809  12.655   4.365  10.714  0.4369 -1.3130 -0.7781
27523SOL    HW289810  12.750   4.355  10.597 -0.3887  0.8429 -1.6879
27524SOL     OW89811  11.486   9.268   4.941 -0.6325  0.2628 -0.0595
27524SOL    HW189812  11.523   9.244   5.026 -0.4233 -1.1667 -0.5301
27524SOL    HW289813  11.515   9.198   4.882 -0.0018  1.6915 -1.5217
27525SOL     OW89814  12.630   9.672   4.306  0.3901 -0.7188 -0.3477
27525SOL    HW189815  12.557   9.685   4.367  0.2975  1.2652 -0.8182
27525SOL    HW289816  12.591   9.624   4.233 -0.1441 -0.7929 -0.0219
27526SOL     OW89817   0.485  11.257   7.102 -0.2785  0.0144  0.2294
27526SOL    HW189818   0.544  11.319   7.145  1.4759 -1.1724 -0.3649
27526SOL    HW289819   0.477  11.184   7.163  0.0765 -0.4892 -0.3100
27527SOL     OW89820   0.890   2.694  11.413  0.5042  0.3781  0.0250
27527SOL    HW189821   0.942   2.625  11.455 -1.0462 -0.7204  0.2338
27527SOL    HW289822   0.875   2.758  11.483 -0.1639 -0.3343  0.5530
27528SOL     OW89823  11.619   7.739   7.296  0.1776 -0.2541  0.4534
27528SOL    HW189824  11.656   7.692   7.371  2.4605  0.0326 -0.3958
27528SOL    HW289825  11.662   7.699   7.220 -0.4808  0.8768 -0.5419
27529SOL     OW89826  10.581   2.705   4.426 -0.1171 -0.4185 -0.5502
27529SOL    HW189827  10.558   2.752   4.506  3.5201 -1.0481  1.0506
27529SOL    HW289828  10.626   2.770   4.372 -0.7101 -0.5193 -1.1766
27530SOL     OW89829  11.670   3.389   1.636  0.2722  0.3937 -0.3788
27530SOL    HW189830  11.650   3.387   1.542  0.6364  2.8992 -0.5578
27530SOL    HW289831  11.584   3.385   1.678  0.1426 -1.7678 -0.7175
27531SOL     OW89832   6.594   3.887   3.460 -0.4764  0.1972  0.1425
27531SOL    HW189833   6.641   3.970   3.472 -0.7079  0.5271 -1.0788
27531SOL    HW289834   6.661   3.826   3.430 -0.5517  0.3212 -0.2991
27532SOL     OW89835  12.176   9.875   0.471  0.3831  0.6187  0.2827
27532SOL    HW189836  12.263   9.913   0.476  0.5110  0.1470  2.2867
27532SOL    HW289837  12.153   9.853   0.561 -1.6692  0.3955 -0.2274
27533SOL     OW89838   6.730  10.289  10.375  0.0454  0.4203  0.3440
27533SOL    HW189839   6.664  10.355  10.354  0.5162  0.4011 -1.2868
27533SOL    HW289840   6.795  10.336  10.428 -1.5635  0.2624  2.6217
27534SOL     OW89841   8.569  10.029   7.083 -0.7470  0.1997  0.1219
27534SOL    HW189842   8.520  10.105   7.115  1.0101  1.3104  0.3290
27534SOL    HW289843   8.580   9.973   7.160  1.9731  2.0382  1.2179
27535SOL     OW89844  11.504  12.581   2.942 -0.3436 -0.1237 -0.4021
27535SOL    HW189845  11.591  12.543   2.952  0.8758  2.3298 -0.8202
27535SOL    HW289846  11.474  12.550   2.856  0.2218 -0.7986 -0.3636
27536SOL     OW89847   0.236   1.154   1.473 -0.0162  0.4097 -0.5906
27536SOL    HW189848   0.177   1.096   1.522 -1.3301  1.6465 -0.6265
27536SOL    HW289849   0.245   1.112   1.388  0.9652 -0.9226  0.1376
27537SOL     OW89850   7.415   6.900   9.603 -0.5476  0.6525 -0.1666
27537SOL    HW189851   7.479   6.920   9.535 -0.3010  0.7613  0.0968
27537SOL    HW289852   7.393   6.985   9.642 -1.4507  0.7200 -0.7832
27538SOL     OW89853  11.216   7.410   7.899 -0.5410  0.3566  0.0719
27538SOL    HW189854  11.182   7.426   7.811  0.2275  0.7728 -0.1549
27538SOL    HW289855  11.228   7.498   7.936  1.9838  0.3285 -0.5075
27539SOL     OW89856   1.159  10.508   7.875 -0.2104 -0.2314  0.3132
27539SOL    HW189857   1.124  10.513   7.964  2.3539 -0.3678  1.3949
27539SOL    HW289858   1.148  10.596   7.840  1.4255  0.6399  1.8782
27540SOL     OW89859  11.290   5.170  10.069  0.2832 -0.4205  0.0548
27540SOL    HW189860  11.355   5.112  10.028 -0.2611  1.0313 -3.1808
27540SOL    HW289861  11.208   5.148  10.025 -1.1900 -1.0263  2.8527
27541SOL     OW89862   0.274   2.614   0.579  0.2820 -0.2539 -0.2406
27541SOL    HW189863   0.297   2.701   0.548 -0.2796  0.6854  1.8445
27541SOL    HW289864   0.283   2.618   0.674 -2.9988 -1.4064  0.2530
27542SOL     OW89865   3.081   6.614   6.336  0.4057  0.0227 -0.3341
27542SOL    HW189866   2.996   6.570   6.339 -1.7118  3.5187 -1.8314
27542SOL    HW289867   3.089   6.657   6.421  2.0061 -2.2974  0.7666
27543SOL     OW89868  11.131   4.479   6.908  0.2041 -0.0294 -0.8330
27543SOL    HW189869  11.197   4.464   6.840  0.6285  1.1791 -0.7120
27543SOL    HW289870  11.162   4.428   6.983  0.4940 -0.2414 -1.0958
27544SOL     OW89871  12.112   6.910   6.809 -0.0098  0.1571 -0.0555
27544SOL    HW189872  12.035   6.873   6.766  0.2969  0.8914 -1.3129
27544SOL    HW289873  12.166   6.834   6.832 -0.4261 -0.2847 -0.5192
27545SOL     OW89874   1.659   8.959   6.066 -0.1711  0.1825  0.4266
27545SOL    HW189875   1.574   9.002   6.062  0.2660  1.4723  3.0840
27545SOL    HW289876   1.715   9.010   6.008 -0.5447  1.0099  0.7836
27546SOL     OW89877   7.709   0.661   8.133 -0.7402  0.3074 -0.1174
27546SOL    HW189878   7.656   0.632   8.207  0.5747 -1.4665  0.2012
27546SOL    HW289879   7.700   0.756   8.133 -2.7724  0.1612  0.7571
27547SOL     OW89880  11.274   4.277   0.635  0.0004 -0.0313 -0.2078
27547SOL    HW189881  11.322   4.195   0.624 -0.3380 -0.0905 -1.3463
27547SOL    HW289882  11.195   4.266   0.583 -0.5012  0.6652  0.3885
27548SOL     OW89883   1.445   3.686   5.423  0.6764  0.0425  0.0338
27548SOL    HW189884   1.513   3.711   5.485  1.0591 -1.2392  0.1478
27548SOL    HW289885   1.462   3.739   5.345  1.3026  0.3219  0.3575
27549SOL     OW89886   0.785  12.635   8.320 -0.2741  0.2239  0.8278
27549SOL    HW189887   0.735  12.554   8.320 -0.5941  0.4114  0.2676
27549SOL    HW289888   0.872  12.610   8.289 -1.0526  0.4618 -1.7951
27550SOL     OW89889   8.120   2.489   0.273 -0.0815  0.0875 -0.0448
27550SOL    HW189890   8.201   2.524   0.311 -0.3598  1.7486 -0.8785
27550SOL    HW289891   8.100   2.412   0.326  2.0017 -0.3332  0.2138
27551SOL     OW89892   2.884   2.441   3.375  0.2491 -0.0759  0.5415
27551SOL    HW189893   2.798   2.446   3.417  0.9171  2.6039  1.8593
27551SOL    HW289894   2.940   2.401   3.441  0.3160 -0.3655  0.3056
27552SOL     OW89895   6.995   9.565   1.339  0.0224 -0.1619  0.1546
27552SOL    HW189896   7.088   9.588   1.343 -0.3537  1.7823 -0.7900
27552SOL    HW289897   6.950   9.646   1.363 -1.4552 -1.4751  2.1173
27553SOL     OW89898  10.698  11.483   7.689  0.2225 -0.0327 -0.0281
27553SOL    HW189899  10.728  11.392   7.696 -0.4206 -0.4018 -1.5225
27553SOL    HW289900  10.716  11.507   7.598 -0.2991  1.0843  0.1477
27554SOL     OW89901   1.049  11.025  10.529  0.0353  0.3799 -0.5179
27554SOL    HW189902   1.084  10.960  10.589 -2.7280  0.2636  1.1608
27554SOL    HW289903   1.000  10.975  10.464 -0.9369  0.6910 -0.0412
27555SOL     OW89904   5.775   9.457   9.616 -0.7351 -0.3190  0.3414
27555SOL    HW189905   5.828   9.413   9.682  1.9135  2.0146 -0.0626
27555SOL    HW289906   5.697   9.487   9.664  0.6708  0.4918  2.2422
27556SOL     OW89907   7.361   8.834   3.162  0.4435  0.4566 -0.2719
27556SOL    HW189908   7.291   8.770   3.178  1.1239 -0.7098 -1.7164
27556SOL    HW289909   7.335   8.878   3.081  1.5268 -0.2459 -1.0199
27557SOL     OW89910  12.434   5.858  12.281  0.8415 -0.2308  0.3465
27557SOL    HW189911  12.475   5.831  12.199 -0.6857  1.5636 -1.1119
27557SOL    HW289912  12.505   5.855  12.345  2.0399 -1.8958 -0.9646
27558SOL     OW89913   8.227  11.982   7.873  0.5771  0.4644 -0.4438
27558SOL    HW189914   8.237  11.900   7.921 -0.0545 -0.0052 -1.0968
27558SOL    HW289915   8.154  11.966   7.813 -0.6734  2.0242  0.5541
27559SOL     OW89916   4.684   6.191   9.599 -0.2176 -0.3125  0.0610
27559SOL    HW189917   4.674   6.278   9.560  0.9251 -0.2132 -0.0393
27559SOL    HW289918   4.595   6.156   9.603 -1.0032  1.7260  2.1229
27560SOL     OW89919  11.115  11.097   7.102  0.5050  0.1210  0.5281
27560SOL    HW189920  11.085  11.072   7.189 -0.2620  0.4647  0.3768
27560SOL    HW289921  11.206  11.071   7.099  0.2556 -0.8503  1.0626
27561SOL     OW89922   0.628   4.112   0.094  0.0707  0.0576 -0.0305
27561SOL    HW189923   0.671   4.116   0.180  0.0030  3.1639 -0.0563
27561SOL    HW289924   0.541   4.150   0.109 -0.8464 -1.4824 -1.0647
27562SOL     OW89925   5.530   2.213   7.028  0.2177  0.5672  0.3411
27562SOL    HW189926   5.595   2.280   7.007  0.6061  0.6186  1.6406
27562SOL    HW289927   5.450   2.244   6.986  0.3922  1.8571  0.9026
27563SOL     OW89928   2.481   8.236   2.946  0.0046  1.0781  0.0645
27563SOL    HW189929   2.558   8.259   2.997 -0.5289  2.3147  0.3411
27563SOL    HW289930   2.429   8.179   3.004  0.3512  0.8407  0.1427
27564SOL     OW89931  10.529   5.948   0.248  0.7794 -0.3142 -0.6793
27564SOL    HW189932  10.525   6.043   0.262 -1.9216 -0.4256 -0.2260
27564SOL    HW289933  10.572   5.914   0.326  0.3919  0.4239 -0.1306
27565SOL     OW89934   8.313   2.736  10.935 -0.0473  0.4613 -0.3831
27565SOL    HW189935   8.306   2.689  11.019  0.7829 -0.8723 -1.0383
27565SOL    HW289936   8.237   2.706  10.885  0.5230 -0.2598 -0.8292
27566SOL     OW89937   9.889   6.172   5.026 -0.3663  0.1417 -0.3866
27566SOL    HW189938   9.941   6.124   5.091  1.1288 -1.5164 -2.6784
27566SOL    HW289939   9.848   6.242   5.076  0.4192 -1.2425  2.4113
27567SOL     OW89940  11.603   1.941  11.062 -0.1694  0.3868  0.1307
27567SOL    HW189941  11.614   2.023  11.014  1.2446  0.3314  0.3236
27567SOL    HW289942  11.670   1.945  11.131 -1.9899  0.3978  2.0204
27568SOL     OW89943   5.170   5.090   6.991 -0.1219  0.4323  0.0890
27568SOL    HW189944   5.214   5.160   7.040 -0.9377  1.3499 -0.4456
27568SOL    HW289945   5.240   5.029   6.968  0.3343  0.1956  2.0078
27569SOL     OW89946   5.877   9.499   6.075  0.4129 -0.0164  0.0981
27569SOL    HW189947   5.799   9.444   6.083  0.9543 -0.9220 -0.5015
27569SOL    HW289948   5.931   9.475   6.150  0.4455  0.0392  0.0923
27570SOL     OW89949   5.670   4.271   4.274 -0.0999 -0.2120  0.1982
27570SOL    HW189950   5.732   4.311   4.335  1.4575 -0.6958 -0.9891
27570SOL    HW289951   5.703   4.182   4.262 -0.4547 -0.1711 -1.2158
27571SOL     OW89952   1.214  12.526   2.906  0.0236 -0.2461  0.2121
27571SOL    HW189953   1.179  12.612   2.927  1.0324  0.6696 -1.6332
27571SOL    HW289954   1.289  12.515   2.964 -2.0662 -1.4619  2.9217
27572SOL     OW89955   5.321   3.328   3.139  0.3019  0.1982 -0.3245
27572SOL    HW189956   5.251   3.264   3.142  1.0333 -0.6664 -0.9024
27572SOL    HW289957   5.395   3.286   3.183  0.1654  1.5205  1.2846
27573SOL     OW89958   8.639   8.908   2.791 -0.0416 -0.2348 -0.0436
27573SOL    HW189959   8.621   8.831   2.736  3.4415 -1.6507  0.5527
27573SOL    HW289960   8.633   8.875   2.881  0.3755  0.4785  0.2556
27574SOL     OW89961   7.335   4.004  12.689  0.0728  0.2639 -0.7105
27574SOL    HW189962   7.408   4.060  12.714 -0.9626  1.8603 -1.0637
27574SOL    HW289963   7.336   3.932  12.751  1.4309  0.6976 -0.2034
27575SOL     OW89964   0.536   9.052   5.080 -0.1047 -0.1813 -0.4788
27575SOL    HW189965   0.470   9.120   5.068 -0.2765  0.2605  2.3965
27575SOL    HW289966   0.489   8.970   5.065 -1.1909  0.1522  0.9147
27576SOL     OW89967   9.804  12.604   6.736  0.1725 -0.0339  0.1814
27576SOL    HW189968   9.838  12.515   6.737  1.6018  0.3395 -2.7581
27576SOL    HW289969   9.709  12.593   6.741  0.3048 -1.7438 -0.2946
27577SOL     OW89970  10.207   8.415   8.994  0.0519  0.3246 -0.3696
27577SOL    HW189971  10.172   8.349   9.053 -1.0478 -0.5847 -1.9689
27577SOL    HW289972  10.300   8.421   9.015 -0.5768  1.2337  2.5344
27578SOL     OW89973   6.245   6.196   1.253  0.0657  0.5297  0.0140
27578SOL    HW189974   6.255   6.277   1.304 -0.3270  0.2536  0.5363
27578SOL    HW289975   6.326   6.148   1.270  1.0458  1.5139 -1.6029
27579SOL     OW89976  10.973   6.979  11.480 -0.3939 -0.0492 -0.0800
27579SOL    HW189977  10.930   7.065  11.486  0.2398  0.2336  0.5888
27579SOL    HW289978  10.902   6.916  11.497 -0.7464  0.3674  0.0275
27580SOL     OW89979  11.438   6.393   0.261  0.0766 -0.2470 -0.0649
27580SOL    HW189980  11.494   6.470   0.265 -1.7894  1.1907 -0.2266
27580SOL    HW289981  11.384   6.407   0.183  0.1372 -2.0526 -0.4715
27581SOL     OW89982   7.900   9.468   9.233 -0.1217  0.1995 -0.3718
27581SOL    HW189983   7.990   9.495   9.254  1.1227 -2.5167 -1.6604
27581SOL    HW289984   7.847   9.507   9.302  1.9475  2.2820  0.1966
27582SOL     OW89985  11.220   6.530  11.001  0.2026  0.3626 -0.6105
27582SOL    HW189986  11.225   6.535  11.096  0.7981 -0.6597 -0.5811
27582SOL    HW289987  11.283   6.595  10.970 -0.1292  0.8336 -0.3238
27583SOL     OW89988  11.446   9.044   7.672 -0.4440 -0.0050  0.4650
27583SOL    HW189989  11.441   8.964   7.619  1.7580  1.1659 -1.7499
27583SOL    HW289990  11.522   9.090   7.637 -1.9357  3.3462  1.2404
27584SOL     OW89991   2.165   0.963   4.694  0.0852  0.1250  0.1336
27584SOL    HW189992   2.091   0.945   4.635  0.2936 -2.4585  0.5432
27584SOL    HW289993   2.210   1.038   4.654 -2.0332  1.0160 -0.7703
27585SOL     OW89994   7.979  10.368   2.300 -0.0459  0.5998  0.0117
27585SOL    HW189995   7.926  10.389   2.376 -0.2820  1.2693 -0.3213
27585SOL    HW289996   7.943  10.286   2.267 -1.8445  1.7193 -1.0260
27586SOL     OW89997  10.243   2.741   7.423  0.4790 -0.5919  0.1970
27586SOL    HW189998  10.154   2.709   7.406  0.5120 -1.2100  1.1019
27586SOL    HW289999  10.300   2.672   7.391  0.9115  1.6550 -4.6407
27587SOL     OW90000   7.803   3.231  10.869 -0.4847  0.7300 -0.1090
27587SOL    HW190001   7.858   3.174  10.816  0.9507  1.5013  0.4763
27587SOL    HW290002   7.751   3.172  10.923  1.7717 -0.0884  1.3063
27588SOL     OW90003   2.825   2.042   6.852 -0.1662  0.2124 -0.4118
27588SOL    HW190004   2.912   2.003   6.842 -0.7404 -0.9415 -1.1981
27588SOL    HW290005   2.807   2.082   6.767 -0.9671 -0.8024 -0.7394
27589SOL     OW90006   3.208  10.752   8.048  0.2671  0.0529 -0.3139
27589SOL    HW190007   3.168  10.772   8.132  0.3153 -2.0162  0.2519
27589SOL    HW290008   3.183  10.662   8.029  0.0978  0.5126 -2.6383
27590SOL     OW90009  12.709   1.325   0.968  0.4197 -0.2636  0.5507
27590SOL    HW190010  12.762   1.362   0.898 -2.0316 -0.8178 -1.7803
27590SOL    HW290011  12.650   1.396   0.994  0.1580 -0.5700  0.8067
27591SOL     OW90012   0.819   7.934   2.895 -0.0275 -0.4048 -0.0880
27591SOL    HW190013   0.821   7.850   2.850  0.7473  0.3340 -1.5059
27591SOL    HW290014   0.734   7.936   2.939  0.1021 -2.0743  0.3127
27592SOL     OW90015   8.573   9.883   1.773 -0.3950 -0.0753  0.3483
27592SOL    HW190016   8.607   9.939   1.703  1.2095  0.4172  1.4714
27592SOL    HW290017   8.586   9.933   1.853 -0.0162 -1.5701  1.2668
27593SOL     OW90018   5.566   8.730  10.177  0.6431 -0.2629 -0.1700
27593SOL    HW190019   5.550   8.663  10.244 -0.8343  0.8372  0.6186
27593SOL    HW290020   5.580   8.811  10.226 -0.5896  0.6024 -1.1800
27594SOL     OW90021   2.853  10.545   5.427  0.0765  0.1186 -0.2086
27594SOL    HW190022   2.847  10.455   5.461 -0.3152 -0.1919 -1.0540
27594SOL    HW290023   2.795  10.596   5.483  0.9005  0.0021  0.7601
27595SOL     OW90024   0.315   4.081   7.482  0.2486  0.0238  0.0458
27595SOL    HW190025   0.364   4.136   7.420 -0.4910 -0.6337 -1.1441
27595SOL    HW290026   0.226   4.079   7.448 -0.1472 -0.4696  1.0675
27596SOL     OW90027   7.199   8.179  11.995  0.0947  0.0715 -0.3320
27596SOL    HW190028   7.145   8.224  11.931 -0.1540 -0.7540 -0.7168
27596SOL    HW290029   7.180   8.223  12.078 -0.2893  0.5326 -0.6611
27597SOL     OW90030  11.773   0.528   2.310  0.1410 -0.2227 -0.0558
27597SOL    HW190031  11.804   0.575   2.233 -0.0716  0.9061  0.5339
27597SOL    HW290032  11.682   0.505   2.289 -0.4429  1.4891  0.4643
27598SOL     OW90033   8.257   7.437   9.736  0.6069  0.5454  0.2817
27598SOL    HW190034   8.261   7.364   9.675 -0.9113 -0.2718  1.0903
27598SOL    HW290035   8.325   7.419   9.801  1.1147  0.5542 -0.2431
27599SOL     OW90036   0.051   3.112  10.154  0.1470  0.4202  0.2443
27599SOL    HW190037   0.010   3.050  10.093  0.5234 -0.0218  0.4370
27599SOL    HW290038   0.020   3.084  10.240 -1.5086  1.8889  0.1789
27600SOL     OW90039   6.585   5.430   3.185  0.3581 -0.0663  0.0288
27600SOL    HW190040   6.531   5.428   3.106  0.6548 -3.2282 -0.2251
27600SOL    HW290041   6.649   5.499   3.169 -1.3023  1.2875 -1.2145
27601SOL     OW90042   3.100   6.035   6.626 -0.1261  0.2120  0.5512
27601SOL    HW190043   3.057   6.029   6.711  0.4967 -1.1977  0.7944
27601SOL    HW290044   3.150   6.116   6.630 -1.0785  0.7874  1.0529
27602SOL     OW90045   9.922   6.398   5.460  0.6109 -0.3974 -0.2162
27602SOL    HW190046   9.916   6.449   5.541  1.4857 -1.1004  0.3001
27602SOL    HW290047   9.886   6.313   5.483 -1.3735  0.0883 -1.2220
27603SOL     OW90048   8.432   6.690   4.417 -0.2926  0.1591  0.0250
27603SOL    HW190049   8.459   6.750   4.347  2.2548 -1.3329 -0.4180
27603SOL    HW290050   8.338   6.680   4.406  0.0637 -0.5289 -3.6668
27604SOL     OW90051   0.533   7.485   1.717  0.2829 -0.2881  0.2417
27604SOL    HW190052   0.560   7.462   1.805  2.5104  0.9488 -0.0368
27604SOL    HW290053   0.474   7.560   1.729  0.9491  0.1823  0.6930
27605SOL     OW90054   7.180  10.641   5.140 -0.1559 -0.3779  0.9465
27605SOL    HW190055   7.144  10.650   5.228  0.0601  0.6153  0.9387
27605SOL    HW290056   7.260  10.589   5.152  0.1363  0.1700  1.4138
27606SOL     OW90057   9.435   8.572  10.931 -0.4300  0.1266  0.2666
27606SOL    HW190058   9.399   8.606  11.014 -1.6270 -0.2743 -0.0636
27606SOL    HW290059   9.416   8.641  10.868 -0.9285 -0.2262  0.0240
27607SOL     OW90060   7.385   6.258   3.859 -0.2625 -0.3710 -0.5000
27607SOL    HW190061   7.318   6.228   3.921 -0.3558 -0.2071 -0.5219
27607SOL    HW290062   7.458   6.198   3.872 -1.0741 -1.7095 -1.7476
27608SOL     OW90063   3.461   7.378   2.983 -0.4311 -0.5244  0.3512
27608SOL    HW190064   3.497   7.339   2.904 -0.4033 -0.6270  0.4151
27608SOL    HW290065   3.534   7.429   3.019 -0.3035 -0.8515  0.5598
27609SOL     OW90066   5.438   4.654   9.944 -0.1034 -0.3467 -0.6364
27609SOL    HW190067   5.443   4.722   9.877  0.5462  0.1551 -0.0997
27609SOL    HW290068   5.354   4.668   9.987  0.6931  1.1583  0.5208
27610SOL     OW90069   5.092   0.509   3.235 -0.3571 -0.4708  0.5988
27610SOL    HW190070   5.130   0.429   3.271 -0.0887 -0.6179 -0.0006
27610SOL    HW290071   4.998   0.496   3.242 -0.3146 -0.3577  1.5442
27611SOL     OW90072   5.170   8.120   9.876 -0.2806  0.1761 -0.1127
27611SOL    HW190073   5.237   8.187   9.888 -0.2727 -0.0016  0.8901
27611SOL    HW290074   5.087   8.165   9.892 -0.2505 -0.1339  0.9940
27612SOL     OW90075   2.092   8.176   2.215 -0.0869 -0.1346 -0.4882
27612SOL    HW190076   2.152   8.113   2.256 -0.8180 -0.5069  0.0132
27612SOL    HW290077   2.063   8.132   2.135 -0.3817 -0.3197 -0.2791
27613SOL     OW90078   6.273   4.726   5.283 -0.3111  0.4396  0.3721
27613SOL    HW190079   6.248   4.728   5.375 -0.8214 -0.6812  0.2808
27613SOL    HW290080   6.313   4.639   5.271  1.4101  1.2425 -0.0589
27614SOL     OW90081  12.324   4.621   4.080 -0.8352 -0.1613 -0.0477
27614SOL    HW190082  12.380   4.621   4.003 -1.9637 -1.6251 -0.9291
27614SOL    HW290083  12.273   4.702   4.073 -0.4110  0.0807 -0.4195
27615SOL     OW90084   4.069  10.206   9.043  1.0130 -0.5625  0.0578
27615SOL    HW190085   4.128  10.169   9.109  0.6095 -1.5556 -0.1225
27615SOL    HW290086   4.070  10.142   8.972  0.6659  0.0163 -0.4792
27616SOL     OW90087  12.273   2.303   4.047 -0.0637 -0.5391 -0.0483
27616SOL    HW190088  12.253   2.212   4.028  2.9218 -1.1802 -0.5859
27616SOL    HW290089  12.256   2.312   4.141 -2.1662 -1.0613 -0.3283
27617SOL     OW90090  11.566  12.533   0.064 -0.1966  0.5624 -0.1365
27617SOL    HW190091  11.594  12.442   0.056  3.7167  1.5531 -0.1858
27617SOL    HW290092  11.490  12.541   0.007  1.2360 -1.9919 -2.6420
27618SOL     OW90093   0.498   4.440   6.945 -0.4257 -0.2245  0.0877
27618SOL    HW190094   0.428   4.491   6.987 -1.6722 -1.7689 -0.0542
27618SOL    HW290095   0.468   4.350   6.948  2.2691 -1.2121  1.4191
27619SOL     OW90096   1.058   6.891   1.402  0.5347  0.4374 -0.1825
27619SOL    HW190097   1.103   6.867   1.321  0.0335 -0.5019 -0.2059
27619SOL    HW290098   1.128   6.904   1.466  0.9692  1.8294 -0.9171
27620SOL     OW90099   2.225   9.963   1.564 -0.2209  0.0825  0.1850
27620SOL    HW190100   2.317   9.971   1.586 -0.3626  0.9879  0.5068
27620SOL    HW290101   2.193  10.054   1.562 -1.3347 -0.2589  1.1034
27621SOL     OW90102   3.794  10.565   1.105  0.0886 -0.1308 -0.0659
27621SOL    HW190103   3.715  10.518   1.079  0.7222 -0.7897 -0.8703
27621SOL    HW290104   3.763  10.639   1.157 -0.9135 -1.7844  1.8085
27622SOL     OW90105   7.600   4.771  10.899  0.2034  0.6616 -0.3180
27622SOL    HW190106   7.561   4.753  10.813 -0.5967  0.7918  0.0150
27622SOL    HW290107   7.557   4.710  10.959 -0.6070  1.8208  0.3260
27623SOL     OW90108   3.270  12.365  10.753  0.0576 -0.5490 -0.4106
27623SOL    HW190109   3.280  12.318  10.671  0.2015 -1.2326 -0.0097
27623SOL    HW290110   3.349  12.343  10.803 -0.7986 -1.5199  0.5736
27624SOL     OW90111   7.465   0.561   5.938  0.5851 -0.2841 -0.2245
27624SOL    HW190112   7.495   0.536   5.851 -0.3431 -1.5642 -0.2066
27624SOL    HW290113   7.544   0.591   5.984  1.2730 -0.6853 -1.1326
27625SOL     OW90114   6.833   2.199   7.130  0.2427 -0.4613  0.2846
27625SOL    HW190115   6.885   2.279   7.129 -0.2526 -0.1369 -0.6123
27625SOL    HW290116   6.888   2.135   7.175  1.0238  0.1372  0.1948
27626SOL     OW90117   0.211   7.436   0.814 -0.2359 -0.0057  0.5442
27626SOL    HW190118   0.204   7.532   0.819 -0.6111  0.1051 -1.3324
27626SOL    HW290119   0.305   7.420   0.805 -0.1206  0.1371  1.4134
27627SOL     OW90120   2.037   4.380   5.924 -0.0709 -0.2298  0.5481
27627SOL    HW190121   1.996   4.466   5.913 -0.5211 -0.6622 -1.8962
27627SOL    HW290122   1.964   4.318   5.927  0.2692 -0.7682 -1.1125
27628SOL     OW90123  10.558   8.779   7.129 -0.0945  0.0436 -0.5297
27628SOL    HW190124  10.528   8.750   7.215 -1.7545 -0.8987 -1.3773
27628SOL    HW290125  10.625   8.715   7.104 -0.6081 -0.5098 -0.5148
27629SOL     OW90126   9.193   9.564   8.030 -0.0687 -0.4422 -0.6299
27629SOL    HW190127   9.224   9.608   8.109  0.6496 -0.8313 -0.6801
27629SOL    HW290128   9.104   9.537   8.050 -0.7863  1.5991 -0.8314
27630SOL     OW90129   6.555   1.432  10.263  0.3568 -0.4891 -0.1258
27630SOL    HW190130   6.513   1.488  10.199  0.3602 -0.1432  0.1707
27630SOL    HW290131   6.512   1.347  10.254  0.1613 -0.3604 -0.3831
27631SOL     OW90132   4.682   4.394   1.008  0.6385 -0.0756  0.2720
27631SOL    HW190133   4.754   4.352   0.960  0.2325 -1.2137  0.6126
27631SOL    HW290134   4.606   4.381   0.951  0.2892 -0.8198  0.8962
27632SOL     OW90135  10.578   4.503   8.745 -0.2333  0.4051 -0.0591
27632SOL    HW190136  10.539   4.415   8.754  2.2520 -0.8831 -0.9785
27632SOL    HW290137  10.641   4.509   8.818 -1.4325  2.1092  0.9150
27633SOL     OW90138   7.994   5.796  11.632  0.5594 -0.1723  0.0933
27633SOL    HW190139   7.977   5.868  11.692 -0.4694  1.1503 -1.6896
27633SOL    HW290140   7.908   5.770  11.600  1.1237 -0.3087 -1.3761
27634SOL     OW90141  12.443   4.457  12.089  0.1004  0.6575 -0.1153
27634SOL    HW190142  12.438   4.484  12.181 -2.0496  0.7861 -0.2198
27634SOL    HW290143  12.368   4.399  12.077  1.8448 -1.5044 -1.1621
27635SOL     OW90144   6.110   6.907   9.094  0.2243  0.0764 -0.2329
27635SOL    HW190145   6.126   6.901   9.188  2.3391  1.8508 -0.4146
27635SOL    HW290146   6.074   6.994   9.081 -0.2697 -0.2354 -1.0777
27636SOL     OW90147   5.357  12.580   1.084  0.1272 -0.1821 -0.3402
27636SOL    HW190148   5.301  12.518   1.131  0.2551  0.7558  1.1442
27636SOL    HW290149   5.298  12.624   1.022 -0.8502  0.8018  1.2092
27637SOL     OW90150   3.317   3.403   6.212 -1.0961 -0.3376 -0.2543
27637SOL    HW190151   3.365   3.419   6.294 -0.0332  1.7286 -1.1854
27637SOL    HW290152   3.277   3.317   6.223  0.1027 -0.6796  1.9055
27638SOL     OW90153  11.252   7.389   9.855  0.4218  0.2885  0.0300
27638SOL    HW190154  11.270   7.299   9.827 -0.2558 -0.3364  1.4955
27638SOL    HW290155  11.337   7.422   9.886  0.8799  0.5183 -1.4182
27639SOL     OW90156   0.116  10.786   9.985 -0.2881  0.0154  0.3065
27639SOL    HW190157   0.025  10.799  10.010 -0.0189  0.8431  0.9151
27639SOL    HW290158   0.112  10.732   9.905 -1.2983  0.1107  0.2796
27640SOL     OW90159  10.271   0.561   2.679  0.1001 -0.0846  0.4668
27640SOL    HW190160  10.287   0.598   2.592 -0.6505 -1.5229 -0.3254
27640SOL    HW290161  10.313   0.475   2.676 -2.3876 -1.3906  0.4632
27641SOL     OW90162  10.578   8.157  11.821 -0.2900 -0.1680 -0.1798
27641SOL    HW190163  10.578   8.181  11.729  0.1386 -0.8765 -0.3682
27641SOL    HW290164  10.639   8.084  11.827  2.3863  2.0033  1.2225
27642SOL     OW90165   6.207   0.453   5.063 -0.3492 -0.2673  0.2039
27642SOL    HW190166   6.221   0.436   5.157  1.3537 -2.1460 -0.3204
27642SOL    HW290167   6.179   0.369   5.028  2.1752 -0.5214 -1.4719
27643SOL     OW90168   7.699   6.098   4.273 -0.1080 -0.6008  0.1460
27643SOL    HW190169   7.716   6.024   4.331  1.4654  0.7068  1.4487
27643SOL    HW290170   7.770   6.159   4.290 -1.7725  1.5956 -0.2690
27644SOL     OW90171   0.002   0.553   5.166 -0.0653 -0.6509  0.0707
27644SOL    HW190172  -0.086   0.576   5.138 -0.4521 -1.2809  0.7634
27644SOL    HW290173   0.039   0.504   5.092  1.0028  2.5348 -1.7252
27645SOL     OW90174   2.151   5.062   7.027  0.2173 -0.3535  0.5967
27645SOL    HW190175   2.136   5.104   6.942  1.9975  0.2338  0.5296
27645SOL    HW290176   2.128   4.971   7.013 -1.3257  0.0998  0.0265
27646SOL     OW90177   9.574   6.771   0.408  0.0117 -0.2811 -0.2488
27646SOL    HW190178   9.583   6.810   0.321  2.0736 -0.8247 -0.3259
27646SOL    HW290179   9.589   6.844   0.468  2.3106 -0.5624 -0.3956
27647SOL     OW90180   5.934   6.371   1.368  0.4145 -0.4253  0.4375
27647SOL    HW190181   5.886   6.293   1.394  0.7597 -1.0399 -0.7052
27647SOL    HW290182   5.989   6.343   1.295  0.2023  0.9878 -0.3073
27648SOL     OW90183  11.351   1.084   6.163 -0.6931  0.0525  0.0918
27648SOL    HW190184  11.353   1.147   6.090 -1.0164  0.2836  0.2781
27648SOL    HW290185  11.327   1.137   6.239 -1.6541 -0.4195  0.1224
27649SOL     OW90186  11.747   3.769   0.869  0.3544  0.4405 -0.1319
27649SOL    HW190187  11.815   3.791   0.805  0.1830  0.4113 -0.3226
27649SOL    HW290188  11.748   3.673   0.873  0.1212  0.4270 -0.3553
27650SOL     OW90189   6.238   0.899   0.174  0.3580  0.0608  0.2634
27650SOL    HW190190   6.268   0.851   0.251  0.6551 -0.8866 -0.4252
27650SOL    HW290191   6.225   0.831   0.108  0.4643  0.9034 -0.6310
27651SOL     OW90192   3.408  10.749   6.880  0.0310 -0.0655 -0.3658
27651SOL    HW190193   3.348  10.685   6.841 -0.0495 -1.0430  1.2813
27651SOL    HW290194   3.427  10.810   6.809 -1.5490 -0.7203 -1.4076
27652SOL     OW90195   7.349   3.089   0.447  0.3718 -0.1710 -0.1688
27652SOL    HW190196   7.276   3.028   0.434 -0.6760  1.3444 -1.7962
27652SOL    HW290197   7.425   3.045   0.408  0.1417 -1.3041  0.6005
27653SOL     OW90198   5.569   5.412   8.915 -0.1322 -0.5383 -0.0781
27653SOL    HW190199   5.491   5.460   8.887 -0.9274 -0.8774  1.4945
27653SOL    HW290200   5.617   5.395   8.833 -1.1002  0.6947 -0.9327
27654SOL     OW90201   2.005   8.583   3.293  0.4169 -0.2260  0.2838
27654SOL    HW190202   2.018   8.506   3.348  1.4159 -0.9443 -0.9063
27654SOL    HW290203   1.912   8.579   3.269 -0.1944  0.4365  2.3430
27655SOL     OW90204  12.539   8.644  12.694 -0.1200 -0.1661 -0.0428
27655SOL    HW190205  12.602   8.665  12.764  0.3991 -0.0944 -0.5250
27655SOL    HW290206  12.580   8.676  12.614  1.1614 -3.6957 -0.9875
27656SOL     OW90207   2.221  11.036   2.813  0.2203  0.4559 -0.4056
27656SOL    HW190208   2.225  11.115   2.759 -1.1535  1.1728  0.4755
27656SOL    HW290209   2.131  11.006   2.805  0.2620 -0.0011  0.6671
27657SOL     OW90210  11.655   2.286   3.501 -0.5338  0.1263 -0.4980
27657SOL    HW190211  11.646   2.270   3.407  2.6810 -1.0164 -0.7409
27657SOL    HW290212  11.575   2.333   3.525 -1.2462  0.9366 -3.8877
27658SOL     OW90213  12.568   3.976   4.010 -0.4918  0.0745  0.1450
27658SOL    HW190214  12.623   3.935   3.944 -0.2765 -1.6321  1.3397
27658SOL    HW290215  12.511   3.906   4.041 -0.9617  0.9810  1.3879
27659SOL     OW90216   8.488   5.628  11.648  0.0668  0.0716  0.6427
27659SOL    HW190217   8.534   5.611  11.566 -1.0134 -1.9387  0.3730
27659SOL    HW290218   8.518   5.714  11.676  0.1509  1.0086 -2.0664
27660SOL     OW90219   2.936   0.496   2.223  0.8246  0.2842  0.0192
27660SOL    HW190220   2.848   0.460   2.236  1.1293 -0.5658 -0.2448
27660SOL    HW290221   2.934   0.531   2.133 -0.3904  3.6364  1.1845
27661SOL     OW90222   9.789   3.172   2.574 -0.2936 -0.0738  0.7225
27661SOL    HW190223   9.878   3.168   2.541  0.8216 -0.3290  3.5009
27661SOL    HW290224   9.785   3.253   2.624 -1.6125 -0.0612  0.6299
27662SOL     OW90225   1.309   5.172   0.755 -0.7859 -0.1393  0.5893
27662SOL    HW190226   1.388   5.183   0.809 -1.2200 -0.9801  1.4369
27662SOL    HW290227   1.342   5.159   0.667 -0.0659  1.6872  0.5524
27663SOL     OW90228  11.920  10.399   3.951  0.6324  0.5265  0.1835
27663SOL    HW190229  11.973  10.418   3.874  3.4413  0.1530  1.8821
27663SOL    HW290230  11.931  10.476   4.007 -0.2662  0.2259  0.7872
27664SOL     OW90231   3.376  10.690   2.465 -0.1103  0.5124  0.1684
27664SOL    HW190232   3.410  10.689   2.375 -2.4138  0.7724 -0.7836
27664SOL    HW290233   3.296  10.742   2.459 -1.6214 -1.4600  1.8457
27665SOL     OW90234  12.511   1.099   7.139 -0.0725  0.1410 -0.5450
27665SOL    HW190235  12.454   1.029   7.172  0.3211 -0.0182 -0.1962
27665SOL    HW290236  12.507   1.167   7.206  0.1563  0.1263 -0.5164
27666SOL     OW90237   4.823   4.110   7.100 -0.3976  0.4937  0.0621
27666SOL    HW190238   4.814   4.198   7.062  3.0907 -0.2916 -3.1904
27666SOL    HW290239   4.902   4.115   7.154  1.1468 -1.0308 -1.9275
27667SOL     OW90240   0.664   9.693   2.973 -0.0706 -0.3907  0.1150
27667SOL    HW190241   0.589   9.729   3.020  1.0999 -0.2090  1.9623
27667SOL    HW290242   0.730   9.762   2.978  0.3697 -0.6978 -1.1310
27668SOL     OW90243   0.244   2.599   6.160  0.4210  0.1896 -0.1553
27668SOL    HW190244   0.288   2.539   6.221 -2.2311  0.7705  2.6186
27668SOL    HW290245   0.177   2.545   6.119  1.2452  0.1586 -1.4990
27669SOL     OW90246   0.462   9.316  11.167 -0.3410  0.2028 -0.4197
27669SOL    HW190247   0.390   9.341  11.225 -2.2782  0.0877 -2.5903
27669SOL    HW290248   0.492   9.399  11.130 -1.3499  0.0715 -1.6253
27670SOL     OW90249   0.484  10.771  10.575  0.2720 -0.0375 -0.3537
27670SOL    HW190250   0.427  10.798  10.503 -0.7836 -0.7524  0.1902
27670SOL    HW290251   0.427  10.770  10.652  0.9285 -1.0809  0.1434
27671SOL     OW90252   5.714   5.115   2.405  0.0382 -0.2814  0.3962
27671SOL    HW190253   5.804   5.085   2.402  0.3914  0.6524  1.0803
27671SOL    HW290254   5.721   5.210   2.415 -0.9698 -0.3869  2.6371
27672SOL     OW90255   4.470   1.357   8.174 -0.7237 -0.8000 -0.9387
27672SOL    HW190256   4.488   1.392   8.261 -0.4467 -1.8818 -0.5405
27672SOL    HW290257   4.374   1.356   8.168 -0.7465 -0.8789 -0.5802
27673SOL     OW90258   1.430   6.538  11.006 -0.5026  0.0046  0.2997
27673SOL    HW190259   1.483   6.482  11.062 -2.2850 -1.8977  0.2197
27673SOL    HW290260   1.447   6.627  11.037 -0.9914 -0.8933  3.5658
27674SOL     OW90261   2.706   5.142   0.091 -0.1449 -0.4480 -0.3918
27674SOL    HW190262   2.720   5.204   0.019  0.0738 -0.1639 -0.1039
27674SOL    HW290263   2.769   5.168   0.158  0.8698 -1.7713 -0.7741
27675SOL     OW90264   8.839   0.788   7.357 -0.0833 -0.2432 -0.5432
27675SOL    HW190265   8.844   0.811   7.450  1.9370  1.5000 -0.9881
27675SOL    HW290266   8.758   0.829   7.327  0.5201  1.4337 -0.0430
27676SOL     OW90267   1.823   7.499   8.973 -0.3382 -0.2291  0.0651
27676SOL    HW190268   1.910   7.495   8.934 -0.2371  1.2453  0.0703
27676SOL    HW290269   1.823   7.432   9.040  0.0122 -1.7809 -1.4251
27677SOL     OW90270   1.505   0.996  11.374 -0.0739 -0.5092 -0.0362
27677SOL    HW190271   1.521   1.070  11.433 -2.0631 -0.4617  0.5241
27677SOL    HW290272   1.451   0.936  11.425 -0.3547 -1.3172 -1.2366
27678SOL     OW90273   2.527   1.846   3.038  0.1340  0.4700 -0.7613
27678SOL    HW190274   2.573   1.822   3.118 -0.1807  1.0248 -0.4051
27678SOL    HW290275   2.443   1.882   3.068  0.0481  0.7685 -1.3322
27679SOL     OW90276   1.828   7.806   2.838 -0.0665 -0.0737  0.5595
27679SOL    HW190277   1.908   7.860   2.838 -1.8981  2.8814  1.5888
27679SOL    HW290278   1.820   7.775   2.928 -1.0221  1.2706  0.9670
27680SOL     OW90279   6.773   3.211   0.945 -0.0121  0.6277  0.5069
27680SOL    HW190280   6.750   3.140   0.885 -1.1959  0.7429  0.7988
27680SOL    HW290281   6.809   3.166   1.021 -0.0592  0.3781  0.3834
27681SOL     OW90282   5.091  11.525   7.391 -0.5277 -0.4399  0.0136
27681SOL    HW190283   5.007  11.566   7.414 -0.5472 -0.5459  0.1402
27681SOL    HW290284   5.143  11.532   7.471  0.2744  1.2951 -0.6173
27682SOL     OW90285  12.158   9.715   7.255  0.0114  0.5493 -0.2920
27682SOL    HW190286  12.162   9.627   7.291 -0.6904  0.2168 -1.0068
27682SOL    HW290287  12.246   9.751   7.269  0.3572 -0.3290 -0.1702
27683SOL     OW90288   4.279   9.930   2.958 -0.1378  0.5642  0.3059
27683SOL    HW190289   4.339   9.970   2.895 -0.4877  1.1918  0.3575
27683SOL    HW290290   4.254  10.002   3.017  0.0550  0.0279  1.0648
27684SOL     OW90291   1.406   4.307   5.403  0.6779 -0.7657  1.0198
27684SOL    HW190292   1.418   4.213   5.386 -2.3639 -1.6130  2.7067
27684SOL    HW290293   1.381   4.344   5.319  0.0700 -1.9121  0.6644
27685SOL     OW90294   7.045  10.000  12.353  0.1129  0.6114 -0.0658
27685SOL    HW190295   6.982  10.072  12.359  0.4515  1.0446 -1.3604
27685SOL    HW290296   7.050   9.964  12.442  0.8630  2.9702  0.9278
27686SOL     OW90297   7.693   3.446  11.566  0.3369  0.1276  0.9831
27686SOL    HW190298   7.756   3.491  11.510 -1.0849  1.1319  0.1148
27686SOL    HW290299   7.646   3.517  11.611 -0.1385 -0.5905  1.6362
27687SOL     OW90300   5.852   3.334   1.687 -0.0728 -0.3498 -0.4215
27687SOL    HW190301   5.803   3.415   1.674 -1.5297 -1.0843  0.3044
27687SOL    HW290302   5.940   3.364   1.709  0.1313  0.9946 -2.6690
27688SOL     OW90303   9.123   7.587   0.632 -0.1147 -0.6411 -0.2969
27688SOL    HW190304   9.193   7.613   0.692 -1.2281  1.1027  0.3041
27688SOL    HW290305   9.145   7.631   0.550  1.1438 -2.6361 -1.1069
27689SOL     OW90306  12.054   4.995   4.049 -0.3440  0.2573 -0.2422
27689SOL    HW190307  12.029   5.087   4.041  0.0460  0.4260  0.3493
27689SOL    HW290308  11.989   4.958   4.109 -0.1442  0.2971  0.0003
27690SOL     OW90309   7.480   1.987   6.408 -0.2903  0.1335 -0.3713
27690SOL    HW190310   7.545   2.030   6.353  0.5639  1.1403  1.3554
27690SOL    HW290311   7.502   2.013   6.498 -2.1704 -0.7059  0.4023
27691SOL     OW90312   4.002   7.596  10.630 -0.7498 -0.2151 -0.0469
27691SOL    HW190313   3.947   7.518  10.637 -0.4031 -0.5949 -1.4125
27691SOL    HW290314   4.016   7.623  10.721 -2.0319 -0.9187  0.3819
27692SOL     OW90315   1.672   0.118   0.155  0.2842  0.6099 -0.1435
27692SOL    HW190316   1.587   0.159   0.142  0.8700  1.7506 -0.5409
27692SOL    HW290317   1.693   0.079   0.071 -0.3344 -0.6793  0.2726
27693SOL     OW90318   3.317   6.482   1.756  0.2876 -0.4245  0.3113
27693SOL    HW190319   3.310   6.398   1.713  1.4008 -0.5601  0.3594
27693SOL    HW290320   3.244   6.533   1.722 -0.5017 -1.4626  0.4238
27694SOL     OW90321  12.357   3.198  12.103  0.8017  0.3189 -0.5571
27694SOL    HW190322  12.391   3.271  12.155  0.2950  0.4761 -0.4403
27694SOL    HW290323  12.432   3.168  12.052  1.5246 -0.3759  0.8542
27695SOL     OW90324   4.651   5.520   7.159  0.2880  0.0598 -0.3031
27695SOL    HW190325   4.587   5.463   7.116  0.0948  1.2249 -1.6492
27695SOL    HW290326   4.732   5.505   7.110  1.4891 -2.3718  2.1973
27696SOL     OW90327   4.262   3.968   0.443 -0.3742  0.6540  0.0657
27696SOL    HW190328   4.323   3.923   0.386 -0.7106 -0.7413  0.7572
27696SOL    HW290329   4.212   4.026   0.385  0.0835  0.1469 -0.8470
27697SOL     OW90330   8.663  11.452   4.681  0.6518 -0.2107 -0.2294
27697SOL    HW190331   8.573  11.484   4.687  0.2203 -1.1953 -1.0212
27697SOL    HW290332   8.658  11.363   4.715  1.3933 -0.1695 -0.0137
27698SOL     OW90333   4.225   2.952  10.460  0.3800  0.0266 -0.0680
27698SOL    HW190334   4.234   2.859  10.439 -0.3824  0.0001 -0.3042
27698SOL    HW290335   4.311   2.990  10.440  1.1481 -0.8691  1.3467
27699SOL     OW90336  11.551   2.414   6.271 -0.0693 -0.3934  0.2564
27699SOL    HW190337  11.476   2.472   6.257  0.7205  0.8990  1.2041
27699SOL    HW290338  11.627   2.468   6.250  0.7036 -0.9945  1.4318
27700SOL     OW90339   9.350   0.693   1.200  0.0910 -0.3719  0.0881
27700SOL    HW190340   9.341   0.611   1.249  0.0327 -0.0095  0.7010
27700SOL    HW290341   9.337   0.761   1.266 -1.2846  0.1357 -0.6753
27701SOL     OW90342   7.719   5.122   6.997  0.4498  0.2368  0.1245
27701SOL    HW190343   7.679   5.045   7.039  0.6965 -1.6473 -2.7932
27701SOL    HW290344   7.690   5.196   7.051 -3.1925 -1.4584  0.8103
27702SOL     OW90345   3.588   2.609   9.830 -0.6300  0.0000 -0.1302
27702SOL    HW190346   3.654   2.673   9.857 -1.2979  0.1336  1.2608
27702SOL    HW290347   3.639   2.535   9.796  0.1479  1.2805 -1.8611
27703SOL     OW90348   4.295   3.696   9.380 -0.2130 -0.3266  0.3607
27703SOL    HW190349   4.210   3.724   9.412  0.4338  0.3111  1.5759
27703SOL    HW290350   4.323   3.628   9.441 -0.0442 -0.8679 -0.3037
27704SOL     OW90351   2.998   1.273   5.671  0.0982  0.2504  0.0695
27704SOL    HW190352   3.025   1.246   5.759 -1.5385  1.1269  0.8751
27704SOL    HW290353   3.049   1.216   5.613  1.3907 -0.2001  1.5535
27705SOL     OW90354   2.094   5.889   2.053 -0.4300  0.1775  0.5933
27705SOL    HW190355   2.035   5.956   2.087 -0.4325  0.9988 -0.9427
27705SOL    HW290356   2.052   5.806   2.076 -0.2265  0.6247  2.8925
27706SOL     OW90357   9.168   5.006  12.684 -0.4931 -0.1664  0.1533
27706SOL    HW190358   9.200   4.976  12.599  0.7950 -0.1594  0.6068
27706SOL    HW290359   9.145   4.925  12.731 -1.4164 -0.1570 -0.2666
27707SOL     OW90360   7.017   8.905   1.299  0.1450  0.4762 -0.4443
27707SOL    HW190361   7.095   8.941   1.257 -0.4074  1.5693 -0.5863
27707SOL    HW290362   7.051   8.846   1.367  1.0734  0.3777 -0.9822
27708SOL     OW90363   2.623   3.762   3.822  0.0757 -0.4796 -0.1048
27708SOL    HW190364   2.684   3.813   3.769 -0.5820 -0.2754 -0.6699
27708SOL    HW290365   2.565   3.827   3.861  0.1769 -0.6778  0.3927
27709SOL     OW90366   3.501   9.659   7.012 -0.0148  0.5338  0.4740
27709SOL    HW190367   3.487   9.641   6.919  0.4399 -2.4211  0.8785
27709SOL    HW290368   3.581   9.711   7.015  0.4847 -0.1219 -0.7589
27710SOL     OW90369   0.138   7.214   5.499 -0.5587  0.0787  0.1243
27710SOL    HW190370   0.215   7.169   5.532 -0.7148 -0.9703 -0.8585
27710SOL    HW290371   0.129   7.292   5.554  0.1013 -0.7515  1.4493
27711SOL     OW90372  11.164   6.227   9.594 -0.3567 -0.0129 -0.6588
27711SOL    HW190373  11.211   6.310   9.582 -0.3745  0.5936  2.5141
27711SOL    HW290374  11.233   6.161   9.601 -0.0516  0.4149  0.8676
27712SOL     OW90375   3.259   4.076   1.208  0.7474  0.0523  0.1427
27712SOL    HW190376   3.275   3.995   1.160 -1.7696 -0.4234 -0.0556
27712SOL    HW290377   3.207   4.130   1.148 -2.2362 -0.4269  2.0716
27713SOL     OW90378  12.213   4.300   8.789 -0.2570  0.3279  0.0391
27713SOL    HW190379  12.143   4.331   8.846 -2.0313 -0.5650 -1.5771
27713SOL    HW290380  12.232   4.374   8.732 -2.2170 -0.3984 -1.6596
27714SOL     OW90381   1.768   9.043   0.195 -0.7164  0.2969  0.3249
27714SOL    HW190382   1.843   9.010   0.146  0.8946 -2.7277  4.2504
27714SOL    HW290383   1.788   9.134   0.213  2.2200 -0.4321  1.3003
27715SOL     OW90384   3.534   1.285   9.134  0.3572 -0.4108 -0.2200
27715SOL    HW190385   3.552   1.199   9.171  0.0339 -0.5272 -0.3251
27715SOL    HW290386   3.613   1.335   9.149  0.3947 -0.6000  0.2113
27716SOL     OW90387   2.430  10.851  12.407 -0.1885 -0.0152  0.5785
27716SOL    HW190388   2.374  10.814  12.339 -0.8192  1.3192  0.3534
27716SOL    HW290389   2.370  10.887  12.472  0.4149  0.1070  1.0852
27717SOL     OW90390  12.282  10.566   8.000 -0.1071  0.1765  0.3343
27717SOL    HW190391  12.275  10.507   8.074  1.4724 -0.6897 -0.1463
27717SOL    HW290392  12.311  10.510   7.927 -0.7329  1.1560 -0.7018
27718SOL     OW90393   1.867   5.751   3.180  0.0391 -0.1443  0.3121
27718SOL    HW190394   1.784   5.704   3.172  0.0071 -0.2546  1.2306
27718SOL    HW290395   1.848   5.839   3.149 -0.9149  0.3624  2.2482
27719SOL     OW90396   3.924   4.804   0.736 -0.2199 -0.6560 -0.7561
27719SOL    HW190397   3.907   4.714   0.764 -0.3271 -0.3683  0.1252
27719SOL    HW290398   3.855   4.824   0.673 -1.8476 -0.2757  1.0779
27720SOL     OW90399   5.334   9.082   9.903  0.0993  0.4220 -0.2014
27720SOL    HW190400   5.346   9.059   9.995  1.8470  0.6591 -0.3288
27720SOL    HW290401   5.375   9.009   9.855 -0.1554  0.6466 -0.7652
27721SOL     OW90402  12.505   3.878  10.101  0.1520 -0.1936  0.0191
27721SOL    HW190403  12.469   3.798  10.137 -0.8388  0.8355  1.4350
27721SOL    HW290404  12.580   3.898  10.157  0.1794  0.0467 -0.0997
27722SOL     OW90405   3.706   7.816   4.117 -0.4891  0.2238  0.2405
27722SOL    HW190406   3.794   7.795   4.148 -1.1639 -0.8384  1.5480
27722SOL    HW290407   3.665   7.861   4.191 -1.1896  0.3334 -0.2022
27723SOL     OW90408   7.922  10.344   4.923  0.1896  0.5141 -0.1416
27723SOL    HW190409   7.896  10.413   4.984  3.4548  1.1085  0.7886
27723SOL    HW290410   7.977  10.389   4.858 -1.0271 -0.5743 -2.0099
27724SOL     OW90411  11.617   9.669   8.107  0.0094 -0.0184  0.1225
27724SOL    HW190412  11.655   9.582   8.090  0.8379  0.3354  0.0859
27724SOL    HW290413  11.562   9.687   8.031 -0.8219 -0.8574  0.5131
27725SOL     OW90414  10.374   7.207   4.316 -0.5983  0.0299  0.6888
27725SOL    HW190415  10.355   7.287   4.365 -1.7413  0.9933 -1.2427
27725SOL    HW290416  10.412   7.237   4.233 -2.8993 -1.2574 -0.9359
27726SOL     OW90417  11.598  11.551   6.685  0.1428 -0.1977 -0.3877
27726SOL    HW190418  11.644  11.532   6.604 -1.2294 -2.8173 -0.6618
27726SOL    HW290419  11.523  11.491   6.685 -1.4823  1.6604  1.5186
27727SOL     OW90420  11.699  12.470   3.744 -0.1932 -0.3077  0.2720
27727SOL    HW190421  11.632  12.439   3.683 -2.3648  1.4307  1.5759
27727SOL    HW290422  11.680  12.424   3.826 -1.7924  2.2476  1.4787
27728SOL     OW90423  12.557  10.126   2.770 -0.1318 -0.7479  0.1485
27728SOL    HW190424  12.480  10.070   2.776 -1.8981  1.5685  0.4940
27728SOL    HW290425  12.533  10.193   2.705  2.2090 -0.8268 -0.9002
27729SOL     OW90426   5.891   0.660   1.866  0.1302  0.1069 -0.2684
27729SOL    HW190427   5.870   0.686   1.777  0.9753  1.0552 -0.2167
27729SOL    HW290428   5.909   0.566   1.860 -0.1169  0.1007 -1.0366
27730SOL     OW90429   9.482   9.891   9.147  0.4755 -0.4935 -0.1469
27730SOL    HW190430   9.397   9.908   9.189  0.9381 -3.3299  2.2975
27730SOL    HW290431   9.539   9.961   9.178 -0.3087 -0.0935  0.4159
27731SOL     OW90432   7.670   7.672   1.818  0.3777 -0.3976 -0.0353
27731SOL    HW190433   7.758   7.687   1.852  0.7661  0.4142 -1.3294
27731SOL    HW290434   7.625   7.623   1.888  2.0790 -1.5191  0.3245
27732SOL     OW90435   4.500  10.597   5.923 -0.2719  0.4122 -0.7069
27732SOL    HW190436   4.516  10.633   6.010 -1.2476 -0.4959 -0.1366
27732SOL    HW290437   4.414  10.631   5.898 -2.0524 -2.7604  0.5813
27733SOL     OW90438   5.397   3.381   1.687  0.4968  0.1005 -0.5282
27733SOL    HW190439   5.441   3.455   1.646  1.3475 -1.3473 -2.3458
27733SOL    HW290440   5.420   3.388   1.780  0.4232  2.1717 -0.6291
27734SOL     OW90441   1.459   3.875   5.909  0.2061 -0.4423  0.1718
27734SOL    HW190442   1.553   3.874   5.927 -0.0197  0.6933  1.6746
27734SOL    HW290443   1.450   3.922   5.827  1.0882 -2.8342 -1.3920
27735SOL     OW90444   3.302   7.103  11.926 -0.4631 -0.4309 -0.7459
27735SOL    HW190445   3.279   7.050  12.002 -0.0086 -0.3700 -0.5596
27735SOL    HW290446   3.219   7.134  11.891 -0.6249  0.5548  0.4594
27736SOL     OW90447   0.875   4.342   4.860  0.2871  0.6577  0.1290
27736SOL    HW190448   0.794   4.291   4.864 -0.4508  1.7574 -0.3819
27736SOL    HW290449   0.903   4.349   4.952 -0.3968  0.5695  0.3498
27737SOL     OW90450   9.208   9.371  10.643  0.2958  0.1029  0.1172
27737SOL    HW190451   9.297   9.405  10.630  0.1015 -0.0811 -1.9794
27737SOL    HW290452   9.178   9.346  10.555 -1.5968 -0.4504  0.8648
27738SOL     OW90453   8.305   1.777   6.817 -0.0038 -0.2042  0.8422
27738SOL    HW190454   8.341   1.694   6.847 -0.3035  0.4169  3.1588
27738SOL    HW290455   8.236   1.798   6.880 -0.5826  1.3369 -0.2314
27739SOL     OW90456  11.718   2.907   7.227  0.1710 -0.1709 -0.0993
27739SOL    HW190457  11.759   2.948   7.151  1.7872 -0.9036  0.3401
27739SOL    HW290458  11.782   2.844   7.259  0.0246  0.8753  2.5538
27740SOL     OW90459   7.312   3.405  10.953  0.5297 -0.4758  0.0746
27740SOL    HW190460   7.300   3.484  11.006  0.6982  0.6210 -1.4495
27740SOL    HW290461   7.251   3.416  10.879 -0.8444 -2.6949  0.7909
27741SOL     OW90462  11.904   1.355   4.118 -0.6334  0.4040 -0.2087
27741SOL    HW190463  11.818   1.397   4.127 -0.8880  0.1812 -1.4857
27741SOL    HW290464  11.931   1.337   4.208 -1.0531  2.2207  0.3150
27742SOL     OW90465   2.033   9.263   2.416 -0.5115 -0.2834 -0.3693
27742SOL    HW190466   1.979   9.190   2.448  1.2997 -1.1579  0.8369
27742SOL    HW290467   2.049   9.241   2.324 -0.4820 -1.1048 -0.1791
27743SOL     OW90468   2.755   8.832   3.951 -0.3276  0.6381 -0.7508
27743SOL    HW190469   2.672   8.795   3.982  0.7330 -0.8411  0.5038
27743SOL    HW290470   2.782   8.774   3.880  0.7160 -0.2873  0.3683
27744SOL     OW90471   5.234   7.226   8.678  0.0598 -0.1273 -0.5362
27744SOL    HW190472   5.185   7.144   8.676  1.6379 -1.1010 -1.2907
27744SOL    HW290473   5.194   7.280   8.609  0.7975 -1.4001 -2.0359
27745SOL     OW90474   9.681   0.918   5.817  0.1688  0.1499  0.2972
27745SOL    HW190475   9.629   0.932   5.895 -1.8329  1.5092 -1.1725
27745SOL    HW290476   9.725   1.002   5.802  1.2229 -0.3596  0.3906
27746SOL     OW90477   6.092   5.214   0.034 -0.2423 -0.4771  0.3616
27746SOL    HW190478   6.121   5.190   0.122  1.1839  0.9940  0.3508
27746SOL    HW290479   6.001   5.242   0.046 -0.2746 -0.9333  1.2436
27747SOL     OW90480  12.632   6.948   2.157 -0.3700  0.1348 -0.0050
27747SOL    HW190481  12.672   6.920   2.075  1.3298  0.5998  0.6224
27747SOL    HW290482  12.572   6.877   2.180  0.2054 -0.6674 -0.9237
27748SOL     OW90483   8.809   3.136   4.643 -0.0583 -0.0492  0.0234
27748SOL    HW190484   8.718   3.141   4.671 -0.1696 -0.4967 -0.2537
27748SOL    HW290485   8.815   3.054   4.595  1.0731 -1.2230  2.0612
27749SOL     OW90486   7.596   4.411   8.797 -0.6485  0.6104 -0.4910
27749SOL    HW190487   7.666   4.421   8.860 -0.2275 -0.8960 -0.6730
27749SOL    HW290488   7.531   4.356   8.841 -1.5329  1.6228 -0.4820
27750SOL     OW90489  10.185   4.115   4.890 -0.1422  0.8084  0.0040
27750SOL    HW190490  10.162   4.118   4.983 -0.9730  0.8010 -0.1934
27750SOL    HW290491  10.264   4.062   4.886  0.3117  1.4053  0.7819
27751SOL     OW90492   3.562   3.432  11.782 -0.2749  0.2597 -0.2725
27751SOL    HW190493   3.487   3.441  11.841 -0.9957 -0.0893 -1.1149
27751SOL    HW290494   3.548   3.499  11.715  0.4635  0.5657 -0.1237
27752SOL     OW90495   6.867   9.178  12.394  0.3969 -0.0297  0.3283
27752SOL    HW190496   6.780   9.214  12.410  1.5528  2.8142  0.9444
27752SOL    HW290497   6.860   9.085  12.413 -2.4980  0.0985  0.2279
27753SOL     OW90498   2.829   8.630   8.026  0.1778 -0.4110  0.4598
27753SOL    HW190499   2.794   8.712   8.059 -0.4494 -0.8685  0.9559
27753SOL    HW290500   2.915   8.653   7.992  0.6616  0.1814  1.9855
27754SOL     OW90501  10.758   2.669   7.532  0.2882 -0.6145  0.6111
27754SOL    HW190502  10.747   2.760   7.561 -0.6878 -0.4667 -0.1296
27754SOL    HW290503  10.759   2.675   7.436 -0.5775 -1.4464  0.5283
27755SOL     OW90504  12.581   2.953   5.136  0.2128  0.4634  0.5542
27755SOL    HW190505  12.546   2.962   5.047 -0.8565  1.6621  1.0570
27755SOL    HW290506  12.673   2.933   5.124 -0.1312 -0.3919 -0.8262
27756SOL     OW90507  11.255   6.285   8.214  0.3545 -0.0269 -0.0442
27756SOL    HW190508  11.350   6.276   8.209  0.3875  0.7526 -1.2639
27756SOL    HW290509  11.222   6.228   8.144 -0.0069  0.5242 -0.3322
27757SOL     OW90510   5.807   2.690   0.216  0.6252  0.1087  0.4375
27757SOL    HW190511   5.871   2.658   0.152  0.0916 -0.4572  0.1751
27757SOL    HW290512   5.773   2.770   0.176  1.8065  0.9118  0.9953
27758SOL     OW90513   1.193   6.611   5.279 -0.1410 -0.2806  0.0501
27758SOL    HW190514   1.191   6.559   5.360  2.0625 -0.1927  0.2342
27758SOL    HW290515   1.162   6.698   5.305  0.9059 -0.1449  0.9334
27759SOL     OW90516   4.306  11.235   9.063 -0.4702 -0.3788  0.1788
27759SOL    HW190517   4.221  11.218   9.103 -0.8754  2.1710  0.5599
27759SOL    HW290518   4.286  11.288   8.986  0.8161  0.9936  0.7537
27760SOL     OW90519  10.327  10.494   4.517  0.7576 -0.5035  0.5177
27760SOL    HW190520  10.328  10.446   4.434  0.6956 -0.0276  0.2396
27760SOL    HW290521  10.420  10.506   4.538  0.8632  1.7191 -0.8700
27761SOL     OW90522   2.992   6.206  11.867 -0.5217  0.2152  0.2126
27761SOL    HW190523   3.065   6.265  11.847 -0.1808 -0.7733 -1.7708
27761SOL    HW290524   3.027   6.147  11.933 -0.0570  0.7183  0.4312
27762SOL     OW90525   8.508   8.004   0.496  0.9798  0.2313  0.2900
27762SOL    HW190526   8.525   7.924   0.447  0.3481 -0.8558  1.7553
27762SOL    HW290527   8.539   7.984   0.585 -0.2692  1.1808  0.9711
27763SOL     OW90528   6.301   4.249   2.479  0.1193 -0.3642 -0.2531
27763SOL    HW190529   6.213   4.215   2.463 -0.3134  0.5357  0.1200
27763SOL    HW290530   6.306   4.329   2.427  1.0378 -0.8478 -0.9427
27764SOL     OW90531   8.849   4.117   1.200  0.1480  0.2146  0.6795
27764SOL    HW190532   8.766   4.074   1.220 -0.2615  0.8183  0.2886
27764SOL    HW290533   8.914   4.047   1.207 -0.5640 -0.5820 -0.4110
27765SOL     OW90534   8.091   4.840   0.841  0.1261  0.4984  0.4958
27765SOL    HW190535   8.150   4.772   0.809 -2.4267 -1.8013  0.2241
27765SOL    HW290536   8.020   4.791   0.883 -3.1865  2.7384 -1.9272
27766SOL     OW90537   7.398   1.238   9.646 -0.1135 -0.4159 -0.4882
27766SOL    HW190538   7.405   1.298   9.720 -0.6908 -0.2940 -0.5273
27766SOL    HW290539   7.456   1.166   9.667  0.1385 -0.1206 -0.1678
27767SOL     OW90540  11.767   5.595   1.557 -0.1842 -0.0161 -0.1480
27767SOL    HW190541  11.812   5.579   1.640 -0.3775 -0.8102 -0.1914
27767SOL    HW290542  11.711   5.670   1.574 -1.0217 -0.8276  0.7614
27768SOL     OW90543  11.846   7.841   8.513  0.2118 -0.1569  0.0087
27768SOL    HW190544  11.790   7.808   8.583  0.5428 -1.7564 -0.4359
27768SOL    HW290545  11.837   7.936   8.518 -1.2827 -0.3108  0.9631
27769SOL     OW90546   0.678  11.428   8.901  0.8952  0.1981 -0.2291
27769SOL    HW190547   0.666  11.420   8.806 -1.9953  1.2184 -0.0444
27769SOL    HW290548   0.603  11.381   8.938 -0.1468  2.9463  1.4106
27770SOL     OW90549  12.044   5.994   0.595 -0.4986 -0.0908 -0.3762
27770SOL    HW190550  11.989   6.055   0.644 -0.8200  1.5002 -2.5431
27770SOL    HW290551  11.983   5.946   0.539 -0.1397 -1.7867  0.6268
27771SOL     OW90552  11.914   9.354   7.247  0.4013  0.2111  0.1700
27771SOL    HW190553  11.899   9.311   7.163 -0.6878  0.6307  0.1276
27771SOL    HW290554  11.917   9.448   7.226 -0.9053  0.3930  0.7092
27772SOL     OW90555   4.885   2.880   2.908 -0.6896  0.1453 -0.2103
27772SOL    HW190556   4.914   2.971   2.915 -1.1253  0.3652 -1.0670
27772SOL    HW290557   4.791   2.882   2.924 -0.8347 -0.0355 -0.9889
27773SOL     OW90558   1.178   3.765   1.381  0.3251 -0.0562  0.4378
27773SOL    HW190559   1.134   3.685   1.353  0.3844 -0.4031  1.2980
27773SOL    HW290560   1.115   3.808   1.438  0.2255  0.6021 -0.1676
27774SOL     OW90561   5.553   7.004   4.214  0.2857  0.5446 -0.9473
27774SOL    HW190562   5.465   7.008   4.252 -0.3704 -1.6772 -2.0241
27774SOL    HW290563   5.554   7.073   4.148 -1.4255 -0.6134 -2.2850
27775SOL     OW90564   0.998  10.872   7.125  0.3670  0.0934  0.0229
27775SOL    HW190565   0.997  10.829   7.210  2.1406 -1.2456 -0.5657
27775SOL    HW290566   1.049  10.952   7.139 -0.3317  0.4810  0.4394
27776SOL     OW90567   6.763   0.660  11.668  0.4482  0.4859  0.3162
27776SOL    HW190568   6.823   0.701  11.606 -0.0474  1.4768  0.4764
27776SOL    HW290569   6.701   0.729  11.692 -1.0354 -0.6125 -0.1722
27777SOL     OW90570   9.646   8.944   0.687  0.0202 -0.0973  1.1292
27777SOL    HW190571   9.608   8.977   0.605  0.9567 -0.8456  0.3714
27777SOL    HW290572   9.741   8.949   0.672  0.1891 -1.0600  1.8379
27778SOL     OW90573   8.625   8.561   3.432 -0.7210 -0.4064 -0.8584
27778SOL    HW190574   8.624   8.655   3.410 -0.7463 -0.5281 -1.3800
27778SOL    HW290575   8.708   8.530   3.396  0.6347 -0.0313  1.6818
27779SOL     OW90576   9.857   3.902   1.896 -0.3771 -0.1361  0.3014
27779SOL    HW190577   9.838   3.846   1.971 -1.2489  0.3269  0.4401
27779SOL    HW290578   9.951   3.918   1.901 -0.6707  1.3575  2.3386
27780SOL     OW90579   6.527  11.191   8.261  0.0199  0.1833  0.1394
27780SOL    HW190580   6.441  11.150   8.272 -0.1548 -0.1498 -1.9647
27780SOL    HW290581   6.513  11.256   8.192  1.2494  0.8263  0.4666
27781SOL     OW90582   4.887  11.319  10.307  0.1793  0.0584 -0.4896
27781SOL    HW190583   4.832  11.361  10.241 -0.6035  0.7092  0.5408
27781SOL    HW290584   4.900  11.230  10.275 -2.6063 -0.5413 -0.1785
27782SOL     OW90585  11.295  10.199   7.509  0.3799 -0.2822  0.1494
27782SOL    HW190586  11.389  10.190   7.525  0.7297  0.8106 -1.0542
27782SOL    HW290587  11.264  10.253   7.581  0.9305  0.3706 -0.0877
27783SOL     OW90588   0.191   0.048  10.480  0.0066 -0.3256  0.3303
27783SOL    HW190589   0.247   0.126  10.487 -0.7696  0.2158  0.5746
27783SOL    HW290590   0.140   0.063  10.400 -0.1037 -0.6081  0.3473
27784SOL     OW90591   6.913  11.557  10.955  0.5181 -0.0944 -0.2658
27784SOL    HW190592   6.988  11.587  11.005 -1.0931 -0.7959  2.7773
27784SOL    HW290593   6.840  11.611  10.986 -0.5391 -0.3593 -2.1199
27785SOL     OW90594  12.080   4.637   6.045  0.0806  0.2411 -0.0742
27785SOL    HW190595  12.071   4.619   5.952 -0.4238 -1.6077  0.3020
27785SOL    HW290596  12.020   4.576   6.088 -0.7549  1.9875  1.4220
27786SOL     OW90597   5.606   0.378   2.888 -0.0899 -0.0237 -0.0066
27786SOL    HW190598   5.513   0.386   2.911 -0.4679 -1.8890 -0.6383
27786SOL    HW290599   5.606   0.376   2.793  0.6729  0.5084 -0.0193
27787SOL     OW90600   2.974   9.388   2.531  0.5064 -0.2197  0.4267
27787SOL    HW190601   2.907   9.441   2.575  1.4172 -0.0990  1.7336
27787SOL    HW290602   3.019   9.450   2.473 -1.0667 -0.5016 -1.1662
27788SOL     OW90603   9.890   7.366   7.463 -0.4896  0.2992  0.4328
27788SOL    HW190604   9.872   7.275   7.440  0.2089 -0.1540  1.5728
27788SOL    HW290605   9.865   7.372   7.555 -0.2164  1.1779  0.4562
27789SOL     OW90606   2.567   6.322   9.510  0.4069 -0.3557 -0.5649
27789SOL    HW190607   2.521   6.331   9.426  0.8910 -1.4114 -0.9579
27789SOL    HW290608   2.562   6.228   9.530  0.1203 -0.0889  0.7018
27790SOL     OW90609   5.943   1.154   0.021 -0.1487 -0.5144  0.3035
27790SOL    HW190610   6.038   1.165   0.029  0.2657 -3.6812  0.7917
27790SOL    HW290611   5.917   1.108   0.100 -2.0535 -0.1220 -0.0465
27791SOL     OW90612   9.973  12.549   8.760 -0.1793  0.2895  0.3476
27791SOL    HW190613   9.882  12.560   8.734  0.2177  0.5848 -1.0113
27791SOL    HW290614   9.982  12.455   8.775 -1.0529  0.4249  1.9828
27792SOL     OW90615   7.624  11.375   8.322 -0.0465  0.0077  0.0710
27792SOL    HW190616   7.539  11.353   8.357  0.2849 -0.7180  0.4234
27792SOL    HW290617   7.662  11.435   8.386 -0.5987  0.9700 -0.4720
27793SOL     OW90618  10.191   7.282   3.094 -0.2132  0.2196  0.3553
27793SOL    HW190619  10.158   7.193   3.099 -1.5057  0.4694 -2.1745
27793SOL    HW290620  10.115   7.337   3.113  0.1022  0.7741  0.0574
27794SOL     OW90621  11.548   7.129   3.029 -0.3962  0.2439 -0.6835
27794SOL    HW190622  11.541   7.124   2.934 -0.6760  0.0205 -0.6504
27794SOL    HW290623  11.587   7.215   3.046  0.6625 -0.1486 -1.0547
27795SOL     OW90624   6.475   2.880   3.700 -0.1412 -0.0212 -0.3216
27795SOL    HW190625   6.534   2.848   3.768 -0.2809  1.5190  0.5938
27795SOL    HW290626   6.397   2.824   3.707  1.0278 -1.8246 -1.2892
27796SOL     OW90627  12.683   5.265   0.428  0.2362 -0.3385  0.3303
27796SOL    HW190628  12.605   5.223   0.464  0.6285 -0.8820  0.5495
27796SOL    HW290629  12.672   5.258   0.333 -1.1766  1.7782  0.2636
27797SOL     OW90630   5.809   2.044   3.956 -0.4540 -0.0430 -0.4531
27797SOL    HW190631   5.861   1.965   3.940  0.1695  0.2608  0.0109
27797SOL    HW290632   5.868   2.116   3.934 -0.6029  0.3166  0.2769
27798SOL     OW90633   0.970   5.826   5.321  0.0579 -0.6134  0.5336
27798SOL    HW190634   0.967   5.851   5.413  0.8477  0.3356  0.3206
27798SOL    HW290635   0.878   5.829   5.293  0.0366  1.6570  0.6590
27799SOL     OW90636   2.911  12.619   8.352 -0.2697  0.9257 -0.3791
27799SOL    HW190637   2.901  12.685   8.283 -0.0596 -0.7208 -2.0458
27799SOL    HW290638   3.005  12.599   8.353 -0.4502  0.0604 -0.4574
27800SOL     OW90639   0.806  10.265  11.058  0.4193  0.2100  0.5089
27800SOL    HW190640   0.872  10.196  11.060  0.0772 -0.1070  1.5750
27800SOL    HW290641   0.745  10.237  10.989  0.5226 -0.3308  0.6306
27801SOL     OW90642   6.763   1.936   4.614  0.4118 -0.1293 -0.2929
27801SOL    HW190643   6.703   1.995   4.568  1.2235  0.7647 -0.2219
27801SOL    HW290644   6.706   1.870   4.652 -0.4825  0.3828 -0.7103
27802SOL     OW90645   9.048   8.841   9.383 -0.5001 -0.1581 -0.0702
27802SOL    HW190646   9.122   8.783   9.369  0.1694 -0.0183  2.4135
27802SOL    HW290647   9.040   8.848   9.478 -2.9177  0.8488 -0.2648
27803SOL     OW90648  12.439   0.190   9.074 -0.2206 -0.3589 -0.3270
27803SOL    HW190649  12.496   0.265   9.060 -0.0543 -0.2667  0.7930
27803SOL    HW290650  12.470   0.151   9.156 -0.9338 -1.0745 -0.3874
27804SOL     OW90651   5.289   4.987   8.798  0.8289  0.2837  0.2328
27804SOL    HW190652   5.322   4.978   8.709  2.4649  1.2235  0.6941
27804SOL    HW290653   5.359   5.032   8.845  0.0711 -0.2993  2.0303
27805SOL     OW90654   6.696   6.447  11.620  0.0686 -0.7592  0.0042
27805SOL    HW190655   6.697   6.523  11.680 -0.0638 -0.6505 -0.1304
27805SOL    HW290656   6.787   6.437  11.593  0.2904 -1.3626  0.9149
27806SOL     OW90657   8.587   3.118   7.547 -0.6930 -0.2207 -0.4036
27806SOL    HW190658   8.569   3.200   7.500  1.1306 -0.2553 -1.2729
27806SOL    HW290659   8.682   3.120   7.560 -0.8592 -1.3716  1.1683
27807SOL     OW90660   0.647   2.695   5.139  0.4702  0.3245 -0.5555
27807SOL    HW190661   0.708   2.740   5.081 -0.3236  0.4789 -1.2769
27807SOL    HW290662   0.590   2.644   5.081  0.2902 -0.2981  0.1455
27808SOL     OW90663   0.110   4.479   7.333  0.0003 -0.1970  0.0541
27808SOL    HW190664   0.110   4.566   7.372  0.2123 -1.3885  2.9991
27808SOL    HW290665   0.139   4.421   7.403 -0.9136 -2.7612 -1.5241
27809SOL     OW90666   2.733  11.779   2.313  0.4592  0.4118 -0.7798
27809SOL    HW190667   2.789  11.761   2.237  2.5680  2.1021  0.2781
27809SOL    HW290668   2.780  11.847   2.362 -0.7843 -0.6764  2.0999
27810SOL     OW90669   0.423  11.912   4.749  0.4024 -0.4580 -0.2691
27810SOL    HW190670   0.500  11.864   4.722  0.3913  0.0365 -1.2323
27810SOL    HW290671   0.350  11.869   4.703  0.2038 -0.4509  0.0358
27811SOL     OW90672   8.948  12.449   2.674 -0.0938  0.0614  0.3874
27811SOL    HW190673   9.022  12.394   2.646 -0.3861  0.2793 -0.8858
27811SOL    HW290674   8.918  12.409   2.756  0.1313 -1.2646 -0.1536
27812SOL     OW90675   1.601   1.830   5.748 -0.2311  0.3776  0.5041
27812SOL    HW190676   1.670   1.775   5.785 -0.4439 -1.0706 -1.1202
27812SOL    HW290677   1.648   1.900   5.703  0.1190  0.3240  0.7818
27813SOL     OW90678   6.707   4.619   0.570  0.4468 -0.0865 -0.1922
27813SOL    HW190679   6.670   4.545   0.521  1.1026 -1.2148  0.9837
27813SOL    HW290680   6.791   4.588   0.602  1.3666  1.6454 -0.7950
27814SOL     OW90681   6.253   7.090   5.224  0.1334  0.2474 -0.6187
27814SOL    HW190682   6.168   7.094   5.179  0.9408  0.7960 -2.1640
27814SOL    HW290683   6.247   7.157   5.292  0.1613  2.1006 -2.3251
27815SOL     OW90684   5.335   6.480   8.092 -0.6757 -0.3726 -0.2967
27815SOL    HW190685   5.354   6.388   8.113  0.0469  0.2663  2.1793
27815SOL    HW290686   5.309   6.519   8.175 -1.3102  1.6187 -1.3542
27816SOL     OW90687  11.835   9.694   8.273  0.3347 -0.3005 -0.1560
27816SOL    HW190688  11.893   9.741   8.213  0.3320 -0.5026 -0.3171
27816SOL    HW290689  11.752   9.689   8.227 -0.2005  1.1439  0.6089
27817SOL     OW90690  11.481   2.316   0.622  0.7966  0.1039  0.6447
27817SOL    HW190691  11.525   2.390   0.663  0.9872 -0.2006  1.0036
27817SOL    HW290692  11.541   2.243   0.635  0.0479 -0.3921  1.4504
27818SOL     OW90693  10.032   4.739   1.190 -0.2535  0.2531  0.3012
27818SOL    HW190694  10.018   4.804   1.121  1.1389 -0.9219 -1.1856
27818SOL    HW290695  10.097   4.778   1.248 -0.2482  0.6201  0.0475
27819SOL     OW90696   9.274   7.300   4.160  0.4679 -0.0849  0.0560
27819SOL    HW190697   9.334   7.270   4.092 -0.6334  0.6071 -1.2964
27819SOL    HW290698   9.315   7.378   4.196  1.0459 -0.4358  0.1714
27820SOL     OW90699   8.704   2.972   3.157  0.4529  0.3772 -0.6416
27820SOL    HW190700   8.667   2.931   3.235  1.2455  0.2354 -0.3327
27820SOL    HW290701   8.747   2.900   3.110 -0.7004  0.3014 -1.6355
27821SOL     OW90702   7.664   1.192   5.008  0.3119 -0.0812 -0.7126
27821SOL    HW190703   7.691   1.103   5.030 -0.1472  0.4374  2.3614
27821SOL    HW290704   7.745   1.233   4.976  0.7025 -1.3489 -1.4554
27822SOL     OW90705   1.258   2.707   7.997 -0.3295  0.6489  0.7477
27822SOL    HW190706   1.265   2.613   8.013 -1.3492  0.4901  0.3410
27822SOL    HW290707   1.337   2.744   8.036  0.2113 -0.4013  0.6778
27823SOL     OW90708   7.116  10.571   9.586 -0.1554  0.3521  0.0727
27823SOL    HW190709   7.073  10.516   9.651  1.3047 -0.1597  0.6441
27823SOL    HW290710   7.124  10.657   9.628  1.3644 -0.1437  0.8687
27824SOL     OW90711  10.926   8.467  11.209  0.6594 -0.4047 -0.1203
27824SOL    HW190712  10.972   8.506  11.135  1.3741 -1.4791 -0.2680
27824SOL    HW290713  10.945   8.373  11.203 -0.9577 -0.7916  0.2381
27825SOL     OW90714  10.699   5.474   4.776  0.0827  0.4705 -0.0963
27825SOL    HW190715  10.674   5.425   4.698  0.7218  0.1168 -0.0897
27825SOL    HW290716  10.794   5.464   4.781  0.2578  1.8323 -0.1815
27826SOL     OW90717   7.341   4.893   7.979  0.2036 -0.6058  0.2625
27826SOL    HW190718   7.252   4.896   7.946 -0.0571 -0.0116  0.9919
27826SOL    HW290719   7.396   4.882   7.901 -0.4687 -0.4429 -0.2386
27827SOL     OW90720   7.746   7.390   3.453 -0.5174 -0.5223 -0.1870
27827SOL    HW190721   7.801   7.318   3.484  0.3687  1.1178  2.2757
27827SOL    HW290722   7.808   7.460   3.431 -1.4039 -0.1914 -1.8135
27828SOL     OW90723   1.569  10.828   3.453 -0.0693  0.1392 -0.0086
27828SOL    HW190724   1.528  10.914   3.442 -0.7937 -0.2797 -0.6019
27828SOL    HW290725   1.625  10.819   3.376 -0.8712 -0.4086 -0.5324
27829SOL     OW90726   0.979   9.657  12.522 -0.2880 -0.3241 -0.0877
27829SOL    HW190727   0.912   9.614  12.468 -0.3927  0.2083 -0.3879
27829SOL    HW290728   1.037   9.586  12.549  0.0524 -0.5463 -1.3210
27830SOL     OW90729   7.642   5.589   8.759 -0.0922  0.5768 -0.1242
27830SOL    HW190730   7.635   5.683   8.746  0.4951  0.6429  0.0214
27830SOL    HW290731   7.681   5.557   8.677 -0.9652  0.3634 -0.4667
27831SOL     OW90732   2.704   1.035   1.783  0.0807 -0.3052 -0.0241
27831SOL    HW190733   2.620   1.002   1.750 -0.2939 -0.0540  0.6376
27831SOL    HW290734   2.750   1.067   1.706 -0.1316 -1.1004 -0.4904
27832SOL     OW90735   2.664   1.813   8.079 -0.1668 -0.2139  0.0564
27832SOL    HW190736   2.630   1.901   8.065  0.8462 -0.0470 -1.5920
27832SOL    HW290737   2.691   1.812   8.171 -0.4659  1.0839  0.1753
27833SOL     OW90738  11.860  12.241   8.129 -0.0234 -0.1676 -0.0659
27833SOL    HW190739  11.829  12.332   8.130 -0.3585 -0.2867  0.7136
27833SOL    HW290740  11.929  12.239   8.195  0.2207 -0.3952 -0.3318
27834SOL     OW90741   6.966   5.533   2.177 -0.3727 -0.2336 -0.5397
27834SOL    HW190742   6.938   5.485   2.255  0.3262  0.1677 -0.0251
27834SOL    HW290743   7.053   5.566   2.200  0.2574 -0.9244 -1.8475
27835SOL     OW90744  12.621   5.124   4.562  0.2387 -0.1153 -0.2277
27835SOL    HW190745  12.691   5.129   4.628  1.4488 -0.6394 -1.4179
27835SOL    HW290746  12.577   5.041   4.581  1.2369 -0.7645 -0.6912
27836SOL     OW90747   3.482   6.280   8.962 -0.4863 -0.5353  0.5116
27836SOL    HW190748   3.440   6.227   9.031 -0.9816 -1.5779 -0.5631
27836SOL    HW290749   3.558   6.228   8.935  1.0614  0.9208  1.8109
27837SOL     OW90750   5.954  12.115  11.646 -0.2090 -0.1387 -0.4119
27837SOL    HW190751   6.005  12.055  11.591  0.6417  0.3532 -0.1861
27837SOL    HW290752   6.020  12.160  11.699 -0.8499  0.8492 -0.4285
27838SOL     OW90753   7.124   5.908   1.990  0.0903  0.6831  0.4484
27838SOL    HW190754   7.147   5.996   1.959 -0.6578  1.1234  1.1052
27838SOL    HW290755   7.104   5.920   2.083  1.5685 -0.4769  0.9560
27839SOL     OW90756   2.191  10.969  11.459 -0.3995 -0.1308 -0.0541
27839SOL    HW190757   2.135  10.904  11.416 -2.1387  0.3652  1.3414
27839SOL    HW290758   2.190  11.044  11.399 -0.3289 -0.5174 -0.5480
27840SOL     OW90759   2.194  10.538  12.073  0.1610 -0.6262  0.2724
27840SOL    HW190760   2.122  10.495  12.119 -0.1137  1.2354  1.6926
27840SOL    HW290761   2.257  10.467  12.056 -0.8831 -1.8336  1.2037
27841SOL     OW90762   5.585   8.121  11.794  0.0735  0.2858  0.1284
27841SOL    HW190763   5.568   8.146  11.885  0.4375  0.5045  0.1404
27841SOL    HW290764   5.678   8.099  11.792 -0.5045 -2.5677  0.4390
27842SOL     OW90765   7.228   1.340  10.622 -0.2335  0.3484 -0.3914
27842SOL    HW190766   7.142   1.339  10.579  0.8887  1.8990 -2.9146
27842SOL    HW290767   7.290   1.325  10.551  1.6801  0.9106  1.0825
27843SOL     OW90768   8.585   3.689   7.013 -0.0076 -0.5978  0.2966
27843SOL    HW190769   8.515   3.755   7.019  0.2635 -0.3706  1.0634
27843SOL    HW290770   8.630   3.709   6.932  0.5552  0.6629  0.8928
27844SOL     OW90771   6.493   6.783   3.270  0.5946  0.9151  0.0606
27844SOL    HW190772   6.471   6.842   3.342  0.1363 -0.4936  1.0994
27844SOL    HW290773   6.451   6.822   3.193 -3.1183 -0.0700  1.4111
27845SOL     OW90774  11.598   4.810   7.106 -0.5923 -0.1924 -0.4020
27845SOL    HW190775  11.534   4.880   7.120 -0.7344 -0.6227  1.2544
27845SOL    HW290776  11.558   4.753   7.040 -0.9829  0.6354 -0.8970
27846SOL     OW90777   7.226   9.980   5.838 -0.6810 -0.1185  0.1431
27846SOL    HW190778   7.304   9.989   5.892 -1.0027  1.1129  0.4278
27846SOL    HW290779   7.224   9.887   5.815 -0.3519 -0.6270  1.9691
27847SOL     OW90780   8.034   0.543   5.342  0.4161 -0.3378 -0.3227
27847SOL    HW190781   8.003   0.464   5.299  0.1086 -0.3135 -0.1512
27847SOL    HW290782   7.984   0.547   5.424 -3.4264  2.6549 -2.4441
27848SOL     OW90783   9.790  11.836   2.971  0.4154  0.1052  0.6738
27848SOL    HW190784   9.877  11.803   2.992  0.7245  0.3338 -0.2101
27848SOL    HW290785   9.802  11.930   2.959  0.2976 -0.0330 -0.6766
27849SOL     OW90786  11.207   8.408   3.151 -0.9791  0.4688 -0.8433
27849SOL    HW190787  11.289   8.376   3.112 -0.5204 -0.4943  0.8387
27849SOL    HW290788  11.229   8.425   3.242 -2.8258 -0.4695 -0.1835
27850SOL     OW90789   7.016   6.226  11.022 -0.0265  0.0296  0.0546
27850SOL    HW190790   7.107   6.244  11.047 -0.7812  1.7817  1.7858
27850SOL    HW290791   6.983   6.169  11.092 -0.2923 -0.5481 -0.5339
27851SOL     OW90792   6.938   9.372   9.510 -0.7501 -0.0255  0.4850
27851SOL    HW190793   6.964   9.463   9.520  1.5131 -0.7124  1.9900
27851SOL    HW290794   6.998   9.337   9.444 -1.7076 -0.4136 -0.2033
27852SOL     OW90795   7.998   9.663   0.171  0.2760 -0.1312 -0.0392
27852SOL    HW190796   7.952   9.689   0.091 -2.7082  0.6034  1.7327
27852SOL    HW290797   8.024   9.572   0.155  0.8052  0.3561 -2.2374
27853SOL     OW90798   3.692  11.296   4.200 -0.0761 -0.6371  0.3084
27853SOL    HW190799   3.769  11.269   4.150  1.1067  3.0771 -0.1981
27853SOL    HW290800   3.724  11.310   4.289 -0.1435  0.7161  0.1446
27854SOL     OW90801  10.001   0.707  12.087 -0.1231  0.0972 -0.2987
27854SOL    HW190802  10.008   0.700  12.182  1.9700  0.2901 -0.3911
27854SOL    HW290803   9.955   0.789  12.072 -0.2609  0.1798  0.5581
27855SOL     OW90804  12.150   0.460   8.191 -0.0969  0.4624 -0.3038
27855SOL    HW190805  12.131   0.382   8.243  0.5855  1.2013  1.1073
27855SOL    HW290806  12.101   0.447   8.110 -0.7042 -1.0170  0.2641
27856SOL     OW90807   5.885   7.921   9.676 -0.8488 -0.1146  0.4765
27856SOL    HW190808   5.859   7.891   9.763  0.2383 -2.2574  0.1139
27856SOL    HW290809   5.857   7.851   9.617 -0.1946  0.5987 -0.7165
27857SOL     OW90810   4.923   7.205   9.679  0.4666 -0.0250 -0.2933
27857SOL    HW190811   5.016   7.224   9.672  0.5588  0.2628  1.2086
27857SOL    HW290812   4.880   7.270   9.624  1.0750  1.0372  0.4580
27858SOL     OW90813   2.463   7.399  11.248  0.1606 -0.0373 -0.1394
27858SOL    HW190814   2.495   7.488  11.266 -0.5949  0.7251 -2.2213
27858SOL    HW290815   2.377   7.413  11.208 -0.9449 -1.8410  1.4973
27859SOL     OW90816  10.537   0.584   8.176 -0.6213 -0.8384  0.4745
27859SOL    HW190817  10.507   0.623   8.258 -0.7953  1.1793 -0.4877
27859SOL    HW290818  10.631   0.599   8.175 -0.9328  1.4785 -0.7832
27860SOL     OW90819   0.692   2.858   9.950  0.3163 -0.3167  0.3606
27860SOL    HW190820   0.709   2.927  10.014  0.4002 -0.4904  0.5237
27860SOL    HW290821   0.688   2.904   9.866 -0.4107  0.0006  0.5601
27861SOL     OW90822   4.534   6.277   5.540  0.2170  0.8137 -0.3252
27861SOL    HW190823   4.478   6.319   5.606 -0.0586 -0.2755  0.1587
27861SOL    HW290824   4.534   6.185   5.564  1.9698  0.7208 -0.5077
27862SOL     OW90825  12.097   7.192   3.548 -0.4747  0.3346 -0.3896
27862SOL    HW190826  12.182   7.178   3.506  0.9731  1.6965  1.8536
27862SOL    HW290827  12.040   7.125   3.511  2.2350 -2.3111 -0.1623
27863SOL     OW90828  11.385  11.765   7.818 -0.2097 -0.2450 -0.0002
27863SOL    HW190829  11.294  11.774   7.788  0.0343 -1.1488 -1.0805
27863SOL    HW290830  11.388  11.816   7.899 -1.1497  1.5776 -1.0353
27864SOL     OW90831   3.597   7.915   4.374  0.0913 -0.1418  0.0008
27864SOL    HW190832   3.635   7.842   4.422 -1.1354  0.5505  2.1730
27864SOL    HW290833   3.512   7.930   4.416  0.3109  2.5285 -0.3222
27865SOL     OW90834  12.496   9.920  11.139  0.5077  0.0272  0.2912
27865SOL    HW190835  12.454  10.005  11.154  0.6410  0.0707  0.4241
27865SOL    HW290836  12.590   9.939  11.143  0.6884  0.5793 -3.4045
27866SOL     OW90837   6.325   2.972   0.437  0.7598 -0.1386 -0.0928
27866SOL    HW190838   6.235   2.951   0.463  1.7991 -3.4995  1.4047
27866SOL    HW290839   6.316   3.017   0.353 -2.3269  0.9084  0.6667
27867SOL     OW90840   2.324  10.940   0.435 -0.1906  0.0286 -0.2669
27867SOL    HW190841   2.368  10.948   0.520 -0.9909  2.1169  0.0241
27867SOL    HW290842   2.231  10.931   0.457 -0.1048 -4.5279 -0.8749
27868SOL     OW90843   1.721  11.940   3.771 -0.0588  0.0865 -0.2575
27868SOL    HW190844   1.653  11.926   3.838 -0.2964 -2.3676 -0.9129
27868SOL    HW290845   1.788  11.991   3.816 -0.1588 -1.5504  1.9529
27869SOL     OW90846  12.215   2.023   9.256 -0.1737  0.1500  0.5110
27869SOL    HW190847  12.308   2.036   9.273  0.8332 -0.6722 -3.3935
27869SOL    HW290848  12.190   2.097   9.200 -2.0660  0.6592  1.9254
27870SOL     OW90849   4.508   8.823   2.657  0.1761 -0.2203 -0.5482
27870SOL    HW190850   4.584   8.880   2.673 -0.5187  0.2996  1.1621
27870SOL    HW290851   4.544   8.735   2.655  0.9055  0.0594 -0.1985
27871SOL     OW90852   9.118   4.256   8.248  0.0365 -0.1851 -0.6397
27871SOL    HW190853   9.195   4.200   8.262 -0.4649 -0.3269  2.1475
27871SOL    HW290854   9.057   4.201   8.199  1.0796 -0.6151 -1.5010
27872SOL     OW90855   0.050  10.740   4.131  0.1135  0.2233  0.5527
27872SOL    HW190856   0.120  10.721   4.194 -0.1937 -3.7650 -0.0804
27872SOL    HW290857  -0.018  10.782   4.184  0.7458 -0.9711  2.4348
27873SOL     OW90858   9.585  11.170   3.036 -0.1880 -0.6709  0.4560
27873SOL    HW190859   9.533  11.248   3.015  0.5767  0.2269  1.7612
27873SOL    HW290860   9.648  11.163   2.964  0.6700  0.7912  1.0168
27874SOL     OW90861   5.742   0.792   5.014 -0.0713 -0.0458 -0.0598
27874SOL    HW190862   5.821   0.739   5.026  1.9723  2.5975 -0.8411
27874SOL    HW290863   5.723   0.785   4.921 -1.4783 -1.5306  0.3045
27875SOL     OW90864   6.972   9.323  10.572 -0.5974  0.1112  0.1754
27875SOL    HW190865   6.904   9.357  10.514 -0.1072 -0.1822 -0.5822
27875SOL    HW290866   7.053   9.367  10.543 -0.2604 -0.4265  0.2915
27876SOL     OW90867   3.607  11.172   9.011  0.4462  0.2428  0.6480
27876SOL    HW190868   3.634  11.105   9.073  0.9122  0.7779  1.0248
27876SOL    HW290869   3.518  11.146   8.986  0.8261 -0.8328  0.3394
27877SOL     OW90870   5.638   0.274   1.261 -0.3651 -0.2237 -0.0690
27877SOL    HW190871   5.605   0.289   1.349 -0.8203  0.9542 -0.4323
27877SOL    HW290872   5.623   0.180   1.246 -2.3259  0.0039  0.2669
27878SOL     OW90873  12.008   2.353   0.362  0.0210 -0.0038  0.7239
27878SOL    HW190874  12.067   2.291   0.405 -1.6501 -0.1391  3.0088
27878SOL    HW290875  11.926   2.305   0.349 -0.3625  0.8548 -0.2371
27879SOL     OW90876  11.161   3.260   9.977  0.7021  0.2178 -0.3480
27879SOL    HW190877  11.094   3.235   9.914  0.6928 -2.2619  0.5591
27879SOL    HW290878  11.242   3.260   9.928  0.5020 -0.2492 -0.6777
27880SOL     OW90879  11.444  10.970   0.461  0.0250 -0.0845  0.6420
27880SOL    HW190880  11.517  11.028   0.439  1.3184 -1.1241  1.9427
27880SOL    HW290881  11.466  10.936   0.548 -1.1202 -1.8502  0.2954
27881SOL     OW90882   5.081   2.234   4.264 -0.3667 -0.0147  0.2785
27881SOL    HW190883   5.035   2.152   4.278 -0.5532 -0.0879 -0.7003
27881SOL    HW290884   5.105   2.233   4.172  0.4578  0.6105  0.4664
27882SOL     OW90885  11.099   5.349   9.828 -0.0685 -0.1079 -0.0365
27882SOL    HW190886  11.177   5.331   9.882  0.1424 -0.3201 -0.4058
27882SOL    HW290887  11.031   5.372   9.891  0.0836 -0.6792  0.3450
27883SOL     OW90888   6.050  12.694   9.494 -0.2653  0.7973 -0.1005
27883SOL    HW190889   6.015  12.691   9.405  0.7384  0.4060 -0.4941
27883SOL    HW290890   6.107  12.771   9.494 -0.0864  0.6646  0.1356
27884SOL     OW90891  11.961  12.558   9.316 -0.3388 -0.1861  0.1470
27884SOL    HW190892  12.051  12.578   9.290 -0.2830  1.5655  1.4954
27884SOL    HW290893  11.908  12.624   9.272 -0.5858  0.7224  1.7158
27885SOL     OW90894  10.225  12.155   6.842 -0.3881 -0.1342 -0.2480
27885SOL    HW190895  10.209  12.061   6.849 -1.3753  0.0245 -0.1987
27885SOL    HW290896  10.290  12.174   6.910  2.6655 -1.3714 -2.6112
27886SOL     OW90897  11.123   8.105   6.641 -0.0571 -0.2788 -0.0917
27886SOL    HW190898  11.195   8.139   6.588 -0.9521  0.9197 -0.5905
27886SOL    HW290899  11.086   8.182   6.685 -0.8697 -0.8970  0.3532
27887SOL     OW90900   6.985   1.662   4.776 -0.2506  0.5094 -0.2577
27887SOL    HW190901   6.957   1.750   4.801 -1.3906  0.3601 -0.9154
27887SOL    HW290902   6.905   1.620   4.744  0.4680 -0.4385 -0.8595
27888SOL     OW90903   0.994   0.674   7.880  0.1271  0.1894  0.1113
27888SOL    HW190904   0.947   0.703   7.802  0.3248  0.9104  0.2532
27888SOL    HW290905   0.979   0.579   7.884  0.1517  0.1449 -0.8203
27889SOL     OW90906   3.077  11.075   7.094  0.2604 -0.3330 -0.0195
27889SOL    HW190907   3.067  10.992   7.047  0.4892 -0.3954  0.0430
27889SOL    HW290908   2.991  11.091   7.132 -0.5001  0.6783 -2.0231
27890SOL     OW90909   1.662   1.600   3.817  0.2231  0.1434  0.2101
27890SOL    HW190910   1.724   1.564   3.753  1.2137  0.3652  1.0151
27890SOL    HW290911   1.598   1.648   3.765  1.4016  0.8965 -0.5803
27891SOL     OW90912   7.366   2.483   9.355  0.4270  0.0173  0.4529
27891SOL    HW190913   7.298   2.515   9.295  0.1055 -0.1803  0.7096
27891SOL    HW290914   7.446   2.523   9.323  0.2183  0.1090  0.0346
27892SOL     OW90915   3.449   1.499   8.220 -0.2480 -0.2829 -0.5335
27892SOL    HW190916   3.409   1.440   8.284 -1.8815  0.0485 -1.2054
27892SOL    HW290917   3.508   1.444   8.170 -0.5771 -1.0040 -0.1395
27893SOL     OW90918   9.262   2.872   6.890  0.2331 -0.4041  0.5826
27893SOL    HW190919   9.320   2.825   6.830 -0.0744 -1.0195  0.7617
27893SOL    HW290920   9.321   2.911   6.954  0.5754  0.3782 -0.1964
27894SOL     OW90921  10.732   4.215   1.080 -0.0902  0.0880 -0.0405
27894SOL    HW190922  10.754   4.200   0.988  1.7178  2.0837 -0.0285
27894SOL    HW290923  10.705   4.129   1.112  0.5619 -0.9621 -2.0890
27895SOL     OW90924   0.968   7.730   4.104  0.5482  0.2597 -0.1420
27895SOL    HW190925   0.945   7.649   4.058 -1.0951 -0.5398  1.9419
27895SOL    HW290926   1.061   7.720   4.127  1.0356  0.1032 -1.9953
27896SOL     OW90927  12.285  12.567   4.189 -0.0790  0.7364 -0.3651
27896SOL    HW190928  12.368  12.607   4.162 -0.5823  0.5035 -2.4495
27896SOL    HW290929  12.301  12.473   4.183 -0.0221  0.6627  0.8284
27897SOL     OW90930  11.224   4.088   1.038  0.4542 -0.2330 -0.6740
27897SOL    HW190931  11.168   4.150   0.993 -0.9613 -0.5804  0.5261
27897SOL    HW290932  11.293   4.142   1.078 -0.9421  0.6490  0.6398
27898SOL     OW90933   0.785   9.142  10.851 -0.0303 -0.5804  0.6276
27898SOL    HW190934   0.745   9.146  10.938 -0.0881 -1.1506  0.6291
27898SOL    HW290935   0.834   9.060  10.850 -0.3526 -0.7758 -0.0115
27899SOL     OW90936   1.032   3.994  10.145  0.1226  0.5365 -0.2462
27899SOL    HW190937   1.064   3.962  10.229  0.5993 -1.7378 -1.2212
27899SOL    HW290938   0.946   3.953  10.135 -0.0789  1.0576 -0.7299
27900SOL     OW90939   1.096   4.437   3.046 -0.4327 -0.2969  0.0389
27900SOL    HW190940   1.083   4.531   3.055 -2.2384 -0.5314  0.1350
27900SOL    HW290941   1.009   4.402   3.026  0.6407 -1.6509 -2.8249
27901SOL     OW90942  12.098  10.731  12.476  0.0931 -0.2939  0.1875
27901SOL    HW190943  12.017  10.747  12.428 -0.0136 -1.2984  0.0218
27901SOL    HW290944  12.079  10.655  12.530  1.5317 -1.7999 -1.3221
27902SOL     OW90945   9.278   7.063   1.368 -0.4389 -0.3737 -0.5681
27902SOL    HW190946   9.369   7.038   1.356  0.5955  2.0670  1.3521
27902SOL    HW290947   9.252   7.101   1.284  0.4155 -0.7304 -1.0088
27903SOL     OW90948   3.426  11.850   0.133 -0.0898  0.0801  0.2451
27903SOL    HW190949   3.360  11.888   0.191  0.5951 -0.6092  1.5099
27903SOL    HW290950   3.468  11.926   0.092 -0.3128  0.6044  0.9606
27904SOL     OW90951  10.133  12.317   5.688 -0.1395  0.1087  0.0110
27904SOL    HW190952  10.105  12.263   5.615  0.8756  0.6121 -0.7747
27904SOL    HW290953  10.166  12.397   5.648  0.6544  0.3038  1.0046
27905SOL     OW90954  10.497   0.475   5.944 -0.4394 -0.2585  0.6158
27905SOL    HW190955  10.493   0.535   6.019 -1.7026  1.3633 -0.6734
27905SOL    HW290956  10.417   0.424   5.949 -0.2625 -0.5306  0.6718
27906SOL     OW90957   1.715  11.216   6.642 -0.6851 -0.0126 -0.6691
27906SOL    HW190958   1.700  11.210   6.548 -2.5019  0.6423 -0.4522
27906SOL    HW290959   1.791  11.274   6.651 -0.1491 -0.5360 -1.7348
27907SOL     OW90960   3.220   2.740  11.156  0.0421  0.6003 -0.0701
27907SOL    HW190961   3.198   2.747  11.248 -1.1341 -1.9971 -0.0551
27907SOL    HW290962   3.136   2.732  11.111  0.6374 -0.4151 -1.0803
27908SOL     OW90963   7.055   9.645   8.570  0.1999  0.2326  0.1591
27908SOL    HW190964   7.073   9.651   8.664 -1.9276  2.4106  0.5304
27908SOL    HW290965   7.053   9.736   8.540 -0.4060 -0.3659 -1.7343
27909SOL     OW90966   8.839   3.824   9.412  0.0260 -0.0642 -0.2123
27909SOL    HW190967   8.894   3.889   9.456  0.7747 -1.2992  0.7684
27909SOL    HW290968   8.864   3.741   9.453 -0.7101 -1.0040 -1.6006
27910SOL     OW90969   8.822   5.299   1.700 -0.4731  0.5053 -0.6982
27910SOL    HW190970   8.767   5.240   1.752  2.0005 -0.5944  0.8716
27910SOL    HW290971   8.904   5.251   1.689  1.4531  3.4013  0.0586
27911SOL     OW90972   9.253  11.208   6.698  0.3102 -0.4621 -0.2858
27911SOL    HW190973   9.187  11.178   6.635  0.5089  0.6940 -1.0688
27911SOL    HW290974   9.284  11.128   6.740  0.7270 -1.3692 -2.2130
27912SOL     OW90975   0.136   1.602   1.143 -0.0340  0.0057  0.0331
27912SOL    HW190976   0.158   1.543   1.071  0.5679 -0.1708  0.3533
27912SOL    HW290977   0.160   1.689   1.112 -2.9492  0.4546 -1.3115
27913SOL     OW90978   3.658   5.119  11.404 -0.7013 -0.1928 -0.3012
27913SOL    HW190979   3.708   5.053  11.356  1.2846  2.1811 -1.8020
27913SOL    HW290980   3.720   5.153  11.469 -1.4124  0.6506 -0.0375
27914SOL     OW90981   2.251  10.378   1.227 -0.6233 -0.4351 -0.2994
27914SOL    HW190982   2.258  10.465   1.187  0.1334 -0.6433 -0.6393
27914SOL    HW290983   2.169  10.381   1.277 -0.5396  0.5202 -0.1955
27915SOL     OW90984  12.343  12.077   6.694 -0.3925  0.6324  0.0558
27915SOL    HW190985  12.256  12.110   6.715 -0.3949  0.9016 -0.3790
27915SOL    HW290986  12.387  12.150   6.651  0.7266  1.1860  1.9908
27916SOL     OW90987   3.416   1.171   2.597  0.3808  0.1459 -0.3076
27916SOL    HW190988   3.345   1.182   2.660 -0.4819 -1.1750 -1.0028
27916SOL    HW290989   3.390   1.224   2.522  1.0875  1.1922  0.1651
27917SOL     OW90990   4.613  11.299   0.790 -0.4016 -0.1707 -0.3559
27917SOL    HW190991   4.601  11.368   0.856  1.2528  0.8802 -1.0821
27917SOL    HW290992   4.545  11.315   0.726 -0.5706  0.2575 -0.0771
27918SOL     OW90993  10.479  11.192   0.777 -0.2503 -0.2124 -0.0855
27918SOL    HW190994  10.524  11.232   0.703  1.7252 -1.2959  0.4401
27918SOL    HW290995  10.448  11.108   0.744 -1.3204  0.2435 -0.2610
27919SOL     OW90996   5.617  11.517   2.889  0.5027 -0.1533 -0.4788
27919SOL    HW190997   5.677  11.528   2.963 -1.9176  1.3444  1.4273
27919SOL    HW290998   5.548  11.461   2.923 -0.6360  0.5176 -1.6280
27920SOL     OW90999   0.923   7.420   0.651  0.1474 -0.1779  0.5083
27920SOL    HW191000   0.987   7.461   0.709  0.7941 -0.8207  0.2594
27920SOL    HW291001   0.973   7.393   0.574 -0.8195  1.3246 -0.7132
27921SOL     OW91002   5.544   9.435  10.842  0.4167 -0.2542  0.0425
27921SOL    HW191003   5.561   9.527  10.864 -0.1020 -0.6242  2.1728
27921SOL    HW291004   5.628   9.391  10.855  0.1833 -0.4184  1.0603
27922SOL     OW91005   0.733   6.005   9.429 -0.0211  0.8077 -0.1389
27922SOL    HW191006   0.746   5.934   9.366  0.6892 -0.5958  1.5161
27922SOL    HW291007   0.813   6.057   9.424  1.4644 -1.0961  1.7058
27923SOL     OW91008  11.741   2.220   2.474 -0.1052  0.6774 -0.1005
27923SOL    HW191009  11.763   2.219   2.567  0.9339 -1.7540 -0.2915
27923SOL    HW291010  11.716   2.130   2.454  0.8157  0.8525 -2.4088
27924SOL     OW91011   1.360   5.749   9.152 -0.0989 -0.2295  0.5835
27924SOL    HW191012   1.436   5.790   9.110 -0.4729  1.2683  1.3067
27924SOL    HW291013   1.340   5.673   9.097  1.5779 -0.3396  0.0782
27925SOL     OW91014   7.067   5.712   1.414  0.0743 -0.2761 -0.1541
27925SOL    HW191015   7.096   5.801   1.433 -0.5809 -0.3191  1.1458
27925SOL    HW291016   6.989   5.723   1.359  0.2552 -0.0652 -0.3697
27926SOL     OW91017   1.359  11.955  12.356  0.2872  0.2180 -0.9849
27926SOL    HW191018   1.310  12.024  12.310 -1.8248  0.4814  1.4402
27926SOL    HW291019   1.451  11.972  12.335 -0.4030  1.7476 -3.0719
27927SOL     OW91020   6.183   3.411   7.133  0.2463  0.5838  0.5619
27927SOL    HW191021   6.228   3.494   7.123 -1.6971  1.7307  0.6913
27927SOL    HW291022   6.184   3.372   7.045  1.2837  0.6642  0.5310
27928SOL     OW91023   3.645  11.318   0.049  0.1446  0.3746 -0.3397
27928SOL    HW191024   3.620  11.315   0.142  0.5814  0.3555 -0.2201
27928SOL    HW291025   3.695  11.399   0.041 -0.9042  0.9921 -0.8247
27929SOL     OW91026   3.175   2.242   4.228  0.1905  0.1241 -0.3021
27929SOL    HW191027   3.189   2.153   4.261  1.1810  0.8531  1.3579
27929SOL    HW291028   3.256   2.289   4.248 -0.6835  1.6684 -0.2232
27930SOL     OW91029  11.647   6.897   0.724  0.3494  0.4548  0.3492
27930SOL    HW191030  11.738   6.900   0.755  0.7129  1.0681 -0.7170
27930SOL    HW291031  11.647   6.828   0.658 -0.6913 -1.6813  2.4389
27931SOL     OW91032   0.222   7.709  11.196  0.2741 -0.0446 -0.3304
27931SOL    HW191033   0.173   7.732  11.117  0.3254  0.1599 -0.3033
27931SOL    HW291034   0.283   7.641  11.168  0.6514  0.3911 -0.5837
27932SOL     OW91035   8.759   6.449   4.635  0.1088  0.0118  0.3752
27932SOL    HW191036   8.746   6.540   4.662 -1.2118 -0.3371  0.9836
27932SOL    HW291037   8.700   6.438   4.560  0.1537 -0.3835  0.3958
27933SOL     OW91038   4.546   7.928   3.858  0.1552  0.2368  0.5357
27933SOL    HW191039   4.460   7.918   3.899 -0.1896  0.5582 -0.0944
27933SOL    HW291040   4.541   7.871   3.780  0.2419  0.8300  0.0907
27934SOL     OW91041   4.139   4.870   7.824  0.2854  0.4634  0.4972
27934SOL    HW191042   4.142   4.813   7.902  0.8149 -1.2151 -0.6961
27934SOL    HW291043   4.057   4.847   7.781  0.5439  0.5448 -0.0447
27935SOL     OW91044   5.360   8.059   9.520 -0.0269  0.4646  0.1351
27935SOL    HW191045   5.291   8.122   9.541  0.3590  1.1422 -0.5618
27935SOL    HW291046   5.361   7.999   9.594 -0.9433  0.8117  0.4424
27936SOL     OW91047  10.855  10.627   4.367 -0.5665 -0.2931 -0.1215
27936SOL    HW191048  10.788  10.565   4.340  0.7769 -1.2496 -1.4197
27936SOL    HW291049  10.922  10.574   4.411 -0.6942  0.6549  1.2796
27937SOL     OW91050   2.403  11.927   6.228 -0.4772  0.5420 -0.0808
27937SOL    HW191051   2.408  11.972   6.144  2.9050  0.1129 -0.2362
27937SOL    HW291052   2.464  11.854   6.220  1.2985  1.4639  3.2226
27938SOL     OW91053  11.359   7.157   1.807  0.9521 -0.3804 -0.2934
27938SOL    HW191054  11.402   7.221   1.751  1.0996  0.2678  0.5522
27938SOL    HW291055  11.273   7.145   1.767  0.9166  0.3505 -0.4422
27939SOL     OW91056   0.519  10.349   2.958  0.4030  0.2797 -0.0418
27939SOL    HW191057   0.549  10.439   2.944 -0.1417  0.6177  0.8666
27939SOL    HW291058   0.592  10.295   2.928  1.7393  1.0701  1.5948
27940SOL     OW91059   7.496   1.542   1.525  0.0611  0.0647  0.4514
27940SOL    HW191060   7.574   1.571   1.479  0.7869 -1.3477  0.7378
27940SOL    HW291061   7.481   1.610   1.591  0.4456  0.8549 -0.2539
27941SOL     OW91062   9.248   9.530   0.788 -0.3892  0.4557 -0.2819
27941SOL    HW191063   9.232   9.611   0.837  0.8242  2.4134 -2.8560
27941SOL    HW291064   9.310   9.482   0.841  0.3812  2.1679  0.4554
27942SOL     OW91065   0.942   7.550   8.559  0.2436 -1.0514  0.4293
27942SOL    HW191066   0.942   7.469   8.611 -1.9562 -1.9965 -0.8711
27942SOL    HW291067   0.926   7.520   8.469 -1.1462  0.8424 -0.0118
27943SOL     OW91068  11.968   5.872  10.139  0.3205  0.1376 -0.0955
27943SOL    HW191069  12.032   5.943  10.139  0.2401  0.2106  0.4975
27943SOL    HW291070  11.884   5.914  10.152  0.1183  0.0551 -1.0170
27944SOL     OW91071   6.083  11.438   1.333  0.7683  0.2227 -0.5031
27944SOL    HW191072   5.990  11.457   1.345  1.1857  0.6511  3.2881
27944SOL    HW291073   6.126  11.523   1.344  1.7258 -0.3522  0.3539
27945SOL     OW91074   7.333   7.101   6.053  0.1558 -0.1904 -0.0017
27945SOL    HW191075   7.398   7.132   6.115 -0.5253 -0.3701  0.8226
27945SOL    HW291076   7.377   7.033   6.003  0.7641  0.0798  0.1619
27946SOL     OW91077   3.876   6.944   2.574  0.2644 -0.4256  0.2186
27946SOL    HW191078   3.797   6.942   2.520 -0.0859  1.7234  0.5482
27946SOL    HW291079   3.925   7.020   2.542  1.1502 -0.4561  1.4217
27947SOL     OW91080   4.404  10.811   1.336  0.0689  0.4859  0.5938
27947SOL    HW191081   4.435  10.821   1.246 -1.1209 -1.3377 -0.0537
27947SOL    HW291082   4.405  10.717   1.352  2.6733  0.8305  3.4072
27948SOL     OW91083   4.022  10.094   7.861 -0.0760 -0.2472  0.1287
27948SOL    HW191084   3.929  10.074   7.869 -0.3852 -0.0664 -2.3456
27948SOL    HW291085   4.060  10.063   7.943 -2.2386 -0.7288  1.0083
27949SOL     OW91086   9.814   8.858   1.823  0.4030 -0.3734  0.2875
27949SOL    HW191087   9.767   8.783   1.788 -0.4259  0.3477 -0.1867
27949SOL    HW291088   9.878   8.820   1.884  1.1098 -1.5751 -1.1255
27950SOL     OW91089   0.098  11.849   1.723  0.5391  0.7231  0.6715
27950SOL    HW191090   0.028  11.898   1.680 -0.3341  0.3744  1.6551
27950SOL    HW291091   0.131  11.790   1.656  0.9352  1.9431 -0.2424
27951SOL     OW91092   5.467   6.227  11.883 -0.7166  0.1301  0.3797
27951SOL    HW191093   5.559   6.214  11.858 -0.9224 -1.0714  0.1588
27951SOL    HW291094   5.437   6.298  11.827 -0.4780 -0.8684 -1.0896
27952SOL     OW91095   7.715   3.861  12.153  0.4605 -0.2748 -0.3566
27952SOL    HW191096   7.680   3.883  12.066  2.5119  1.5435 -0.8056
27952SOL    HW291097   7.652   3.898  12.215  0.9431  2.0053 -1.1285
27953SOL     OW91098   0.894   8.734   5.900  0.1971  0.1030 -0.2032
27953SOL    HW191099   0.911   8.814   5.950 -0.8236  0.0591  0.2620
27953SOL    HW291100   0.896   8.761   5.808  1.9655  0.2164 -0.1491
27954SOL     OW91101   8.553   3.359   6.011  0.3596 -0.2026  0.0185
27954SOL    HW191102   8.610   3.294   6.051 -0.3384 -0.3515  0.8030
27954SOL    HW291103   8.565   3.438   6.063 -0.0083 -0.1835  0.0802
27955SOL     OW91104   6.539   9.170   3.854 -0.4368 -0.4698  0.0104
27955SOL    HW191105   6.567   9.261   3.844 -1.5977  0.0916  1.5578
27955SOL    HW291106   6.516   9.162   3.946 -2.9767 -1.5671 -0.6551
27956SOL     OW91107   7.378  12.396   2.792 -0.3228  0.3261 -0.5837
27956SOL    HW191108   7.331  12.315   2.810 -1.6737  1.6819  2.9369
27956SOL    HW291109   7.451  12.395   2.854 -0.1531  1.5920 -0.7446
27957SOL     OW91110   3.418  12.536  11.294 -0.0075  0.0621 -0.3499
27957SOL    HW191111   3.434  12.560  11.203  1.6884  0.1180 -0.0724
27957SOL    HW291112   3.493  12.482  11.318 -0.3598  0.1488  1.0531
27958SOL     OW91113  12.541  10.062   7.657 -0.3632  0.0696  0.0447
27958SOL    HW191114  12.476  10.092   7.720  0.0527 -0.3149  0.6764
27958SOL    HW291115  12.494  10.055   7.574 -1.1998 -0.5022  0.5582
27959SOL     OW91116   7.983   1.413   8.154  0.1048 -0.5011 -0.8207
27959SOL    HW191117   7.951   1.345   8.213  0.3991 -0.1756 -0.2735
27959SOL    HW291118   8.078   1.413   8.167 -0.0527  1.6330  1.0121
27960SOL     OW91119   4.737  11.793  10.226 -0.1203 -0.0418 -0.1587
27960SOL    HW191120   4.710  11.809  10.316  1.0649 -1.1014  0.4078
27960SOL    HW291121   4.694  11.862  10.175  1.2250  2.1614  1.5302
27961SOL     OW91122  12.326  12.429   8.897  0.0138 -0.4121 -0.8016
27961SOL    HW191123  12.397  12.365   8.885  0.8339 -0.2460  2.3027
27961SOL    HW291124  12.250  12.376   8.918  0.6056 -0.4699  1.3989
27962SOL     OW91125   7.350  11.364   2.587 -0.4004  0.4881 -0.2353
27962SOL    HW191126   7.321  11.279   2.554 -1.8606 -0.5695  3.2417
27962SOL    HW291127   7.286  11.426   2.552  0.0289  0.0154 -1.9238
27963SOL     OW91128   9.574   2.802  10.509 -0.2261 -0.0017  0.1672
27963SOL    HW191129   9.539   2.772  10.593  1.4090  1.3117  1.3811
27963SOL    HW291130   9.505   2.782  10.446 -1.6007 -0.8268  1.8458
27964SOL     OW91131   6.497   6.325   0.367  0.4883 -0.4671 -0.0819
27964SOL    HW191132   6.442   6.265   0.418 -0.6448  1.4787  1.1606
27964SOL    HW291133   6.515   6.278   0.286 -0.4227 -2.4107  0.7623
27965SOL     OW91134   1.157  10.183  11.255 -0.3538 -0.0054  0.1061
27965SOL    HW191135   1.218  10.121  11.295 -0.3005  0.9573  1.6266
27965SOL    HW291136   1.210  10.261  11.239 -1.3517  1.3265  2.6627
27966SOL     OW91137   3.760   6.049   6.614 -0.1340  0.5489  0.2564
27966SOL    HW191138   3.789   6.021   6.701 -0.2526 -2.7497 -0.6160
27966SOL    HW291139   3.666   6.065   6.625 -0.0547  0.6603  0.8409
27967SOL     OW91140   9.778   2.446   1.204 -0.1549 -0.1124 -0.3648
27967SOL    HW191141   9.780   2.453   1.299  2.9118 -0.5571 -0.2904
27967SOL    HW291142   9.705   2.502   1.177 -1.3649 -0.3099  2.2308
27968SOL     OW91143   4.140   8.089   2.102  0.3873 -0.3859  0.2075
27968SOL    HW191144   4.196   8.145   2.048  0.2964  0.5088  1.0292
27968SOL    HW291145   4.060   8.077   2.049  0.6881 -0.3262 -0.2669
27969SOL     OW91146  12.306   8.374   9.211  0.4212  0.4615 -0.0247
27969SOL    HW191147  12.269   8.332   9.288  0.7516 -0.4471 -0.3388
27969SOL    HW291148  12.240   8.362   9.143  0.9638 -0.5497 -0.4032
27970SOL     OW91149   4.518   7.475   1.175 -0.0974 -0.0748 -0.2690
27970SOL    HW191150   4.549   7.560   1.207 -0.7110 -0.1300  0.5121
27970SOL    HW291151   4.585   7.413   1.201 -0.8085 -0.1924  1.3810
27971SOL     OW91152   4.702   9.595   7.825  0.4643 -0.2460  0.0884
27971SOL    HW191153   4.733   9.635   7.907 -1.7143  0.1828  0.7567
27971SOL    HW291154   4.768   9.620   7.760  0.8141  1.7553  1.1358
27972SOL     OW91155   4.825   9.053  10.830  0.3208  0.0305  0.4968
27972SOL    HW191156   4.892   9.004  10.878  1.6219 -1.3151 -2.4186
27972SOL    HW291157   4.773   8.985  10.785  0.1426  1.1757 -1.1261
27973SOL     OW91158  10.493  12.421   4.664  0.0054  0.4848 -0.3280
27973SOL    HW191159  10.583  12.395   4.644  0.3887  0.7378  0.9905
27973SOL    HW291160  10.501  12.509   4.700 -0.6885  0.2011  0.5480
27974SOL     OW91161   2.803  10.479   3.693 -0.1405 -0.1449  0.2759
27974SOL    HW191162   2.858  10.544   3.649  1.1727 -1.6682 -0.4284
27974SOL    HW291163   2.721  10.480   3.645  0.2784  0.2071 -0.4371
27975SOL     OW91164   9.258   7.034   1.079 -0.5673  0.3724 -0.2038
27975SOL    HW191165   9.199   7.010   1.008 -0.1499  0.3584 -0.5506
27975SOL    HW291166   9.342   7.051   1.036  0.5740 -2.6298  0.5366
27976SOL     OW91167   3.383  10.183   6.360 -0.1270 -0.1939 -0.0520
27976SOL    HW191168   3.476  10.198   6.372 -0.3927  1.5575  0.0702
27976SOL    HW291169   3.363  10.107   6.415  0.9073  0.4475  1.2535
27977SOL     OW91170   2.358   8.238   2.528 -0.1155 -0.2541  0.7552
27977SOL    HW191171   2.400   8.195   2.602  0.2037  0.9049  1.2717
27977SOL    HW291172   2.343   8.328   2.558 -0.2982  0.1350 -0.4608
27978SOL     OW91173   5.530   8.833   1.213  0.1181  0.1504 -0.1361
27978SOL    HW191174   5.445   8.817   1.172 -0.3063  2.0141 -0.0595
27978SOL    HW291175   5.517   8.810   1.305 -0.7037  1.6328  0.1396
27979SOL     OW91176   8.494   3.691   3.421 -0.5530 -0.4594  0.0320
27979SOL    HW191177   8.480   3.599   3.399  0.2838 -0.1024 -2.2222
27979SOL    HW291178   8.587   3.697   3.441 -0.4023  0.0549 -0.7932
27980SOL     OW91179   5.195   0.331   7.601 -0.5103  0.0784  0.5410
27980SOL    HW191180   5.116   0.382   7.618 -0.4006  1.0321 -1.4161
27980SOL    HW291181   5.267   0.391   7.622 -0.3788  0.6049 -1.2176
27981SOL     OW91182   7.046   6.964   2.519 -0.7515  0.4619 -0.1216
27981SOL    HW191183   7.014   6.883   2.480  0.6363  0.3643 -1.1512
27981SOL    HW291184   7.078   6.939   2.605  1.9260 -0.6816 -1.3245
27982SOL     OW91185   2.860  12.395   3.319  0.0475 -0.2446 -0.0292
27982SOL    HW191186   2.915  12.426   3.246  0.8132 -0.4513  0.4505
27982SOL    HW291187   2.832  12.476   3.363 -1.3547 -0.0527 -1.1927
27983SOL     OW91188   8.862   9.455  12.588 -0.0001 -0.0513  0.6669
27983SOL    HW191189   8.867   9.468  12.683 -0.7816  0.0300  0.7022
27983SOL    HW291190   8.809   9.527  12.556 -0.7895 -0.7599  0.3289
27984SOL     OW91191   1.353   4.145  10.599  0.2107  0.4360  0.1564
27984SOL    HW191192   1.384   4.221  10.551  0.7999  0.6586  0.8725
27984SOL    HW291193   1.411   4.073  10.572 -0.8315  0.0409 -1.1116
27985SOL     OW91194   2.639   8.514   2.731 -0.3285 -0.6063  0.7684
27985SOL    HW191195   2.705   8.445   2.732  0.3032 -0.0176  1.4227
27985SOL    HW291196   2.638   8.545   2.641  1.5022  0.4729  1.0628
27986SOL     OW91197   4.179   5.750   4.919  0.6246  0.3164  0.5125
27986SOL    HW191198   4.154   5.728   4.829  0.1374  1.3849  0.3794
27986SOL    HW291199   4.148   5.839   4.932  0.4302  0.0821  1.8410
27987SOL     OW91200   8.875   5.480   1.919 -0.0841 -0.6608  0.4296
27987SOL    HW191201   8.895   5.399   1.872  2.0230 -0.1302  0.3138
27987SOL    HW291202   8.913   5.468   2.005 -0.2925 -0.0185  0.6182
27988SOL     OW91203   4.788  10.367   9.716  0.5086 -0.1801  0.4349
27988SOL    HW191204   4.861  10.308   9.700  1.0236  0.4905  0.2247
27988SOL    HW291205   4.792  10.385   9.810 -0.2434 -1.2227  0.6797
27989SOL     OW91206   4.386   7.333   8.007  0.0731  0.1027 -0.2375
27989SOL    HW191207   4.442   7.407   8.033 -1.2441  1.2459 -0.5569
27989SOL    HW291208   4.346   7.361   7.925 -0.9500 -0.6890 -0.0298
27990SOL     OW91209   2.065   0.447   6.531 -0.4918 -0.5798  0.1472
27990SOL    HW191210   2.013   0.382   6.577 -1.8746 -0.0371 -0.5712
27990SOL    HW291211   2.145   0.456   6.582 -1.5241 -0.7586  1.8450
27991SOL     OW91212  11.138  12.375   1.781  0.3445 -0.3566 -0.0257
27991SOL    HW191213  11.154  12.469   1.773  1.4877 -0.3527  1.6557
27991SOL    HW291214  11.223  12.338   1.802 -0.4790 -1.4530  1.5856
27992SOL     OW91215   0.348   0.272   5.890  0.4188  0.0188 -0.0986
27992SOL    HW191216   0.319   0.357   5.858  0.6859 -0.1650 -0.8435
27992SOL    HW291217   0.302   0.261   5.973 -1.0341  0.1032 -0.8520
27993SOL     OW91218   4.163   3.124   7.521  0.1524  0.6607 -0.0575
27993SOL    HW191219   4.178   3.188   7.591  1.1519 -0.0951  0.4411
27993SOL    HW291220   4.072   3.138   7.495 -0.1362  1.1674  1.1658
27994SOL     OW91221   1.545   3.276   3.413 -0.9238  0.5909  0.1489
27994SOL    HW191222   1.473   3.332   3.385 -0.9638  0.7338  0.5330
27994SOL    HW291223   1.503   3.202   3.456 -0.8219  0.9543  0.8772
27995SOL     OW91224   8.300   4.661   1.191 -0.1491 -0.4220  0.1439
27995SOL    HW191225   8.374   4.675   1.250  1.2880  1.8316 -2.0086
27995SOL    HW291226   8.259   4.748   1.183 -1.1601 -0.9737 -1.0466
27996SOL     OW91227   8.676   3.222   8.430 -0.2912  0.1846  0.0268
27996SOL    HW191228   8.751   3.234   8.489  0.9516 -0.6555 -1.3068
27996SOL    HW291229   8.637   3.308   8.423  0.1159  0.5015  1.2960
27997SOL     OW91230   9.320   0.482  11.970 -0.4272  0.5345 -0.3594
27997SOL    HW191231   9.298   0.518  12.056  1.9764  0.5418  0.3177
27997SOL    HW291232   9.283   0.545  11.908 -0.2841  1.7312  0.7199
27998SOL     OW91233   1.720   6.238   4.183 -0.7233  0.0704 -0.2764
27998SOL    HW191234   1.763   6.194   4.110 -0.7056  0.1731 -0.3270
27998SOL    HW291235   1.654   6.294   4.142 -0.7739  0.0598 -0.2091
27999SOL     OW91236   1.794   4.268  10.475 -0.3507 -0.4203  0.4382
27999SOL    HW191237   1.807   4.343  10.417  3.1693 -0.8432  0.4734
27999SOL    HW291238   1.857   4.281  10.546 -1.2018 -2.3206  1.6187
28000SOL     OW91239   2.739  10.139   1.280  0.4849  0.8845  0.1087
28000SOL    HW191240   2.763  10.209   1.220 -0.0977  0.7749 -0.2604
28000SOL    HW291241   2.809  10.074   1.271 -0.8221 -0.3229 -2.4013
28001SOL     OW91242   0.778   9.792  12.133 -0.1288  0.5944  0.0949
28001SOL    HW191243   0.766   9.864  12.071 -0.0763 -0.4621 -1.1782
28001SOL    HW291244   0.835   9.828  12.200 -0.2269  1.7909 -0.4343
28002SOL     OW91245   7.537  11.282  11.836  0.0708 -0.1956  0.1438
28002SOL    HW191246   7.510  11.361  11.882  0.8822  0.2762 -0.1647
28002SOL    HW291247   7.567  11.223  11.905  0.4468  0.1742  0.3033
28003SOL     OW91248   6.848   0.638   0.762  0.0201  0.7963  0.0379
28003SOL    HW191249   6.937   0.654   0.793  0.8607 -0.0908 -1.7683
28003SOL    HW291250   6.818   0.562   0.812  0.4597  0.7967  0.3053
28004SOL     OW91251   2.615   7.625   3.685  0.2177  0.0973  0.3104
28004SOL    HW191252   2.569   7.662   3.610  0.9915 -0.8789 -0.6860
28004SOL    HW291253   2.699   7.596   3.649 -0.2290 -2.3449  1.0645
28005SOL     OW91254   1.179   7.974   6.834  0.1210  0.3786  0.4053
28005SOL    HW191255   1.136   7.914   6.896  0.9194  0.9031  1.5051
28005SOL    HW291256   1.107   8.015   6.787 -0.5317  0.1847  1.2073
28006SOL     OW91257   6.585   0.489   1.141 -0.2266 -0.1669  0.0942
28006SOL    HW191258   6.490   0.475   1.131 -0.5854  2.0401  0.0738
28006SOL    HW291259   6.598   0.491   1.236  0.1046 -2.0756  0.1282
28007SOL     OW91260  12.226   4.119   1.941  0.3624  0.8204 -0.5762
28007SOL    HW191261  12.261   4.181   1.877 -1.6705  2.6010 -0.0850
28007SOL    HW291262  12.156   4.073   1.894 -1.1452  2.1407  0.2804
28008SOL     OW91263   7.505   7.701   1.043  0.2385  0.0281  0.5342
28008SOL    HW191264   7.484   7.622   0.994  1.4682 -0.8438  1.3592
28008SOL    HW291265   7.421   7.747   1.052 -0.5621 -1.3473  0.3370
28009SOL     OW91266  11.184  10.689   6.011  0.2152 -0.4330 -0.1279
28009SOL    HW191267  11.112  10.644   5.968 -0.4059 -0.7784  1.2290
28009SOL    HW291268  11.233  10.731   5.939 -1.6602  0.3243 -1.0205
28010SOL     OW91269  10.557   4.253   0.050 -0.3685  0.1524  0.2163
28010SOL    HW191270  10.493   4.207  -0.006  0.6400 -0.4892 -0.4497
28010SOL    HW291271  10.575   4.191   0.121 -1.9946  1.1491  1.5658
28011SOL     OW91272   7.411  12.299   5.904 -0.1241 -0.3749  0.2811
28011SOL    HW191273   7.413  12.394   5.912 -2.6967 -0.2935  0.8475
28011SOL    HW291274   7.456  12.280   5.821  1.4092  1.1925  0.6968
28012SOL     OW91275   3.888   4.666   8.445 -0.6674  0.0491  0.0279
28012SOL    HW191276   3.854   4.579   8.424 -2.4180  0.4433  1.0586
28012SOL    HW291277   3.956   4.650   8.510 -0.4253 -0.5930 -0.3682
28013SOL     OW91278  11.504  12.631   9.210  0.1649 -0.2982  0.6400
28013SOL    HW191279  11.521  12.647   9.303 -3.1488  1.2000  1.1492
28013SOL    HW291280  11.541  12.707   9.166  0.1105 -0.0713  0.9776
28014SOL     OW91281   2.442  12.605   5.614 -0.4892 -0.2817  0.3198
28014SOL    HW191282   2.497  12.683   5.619  0.2526 -0.8304  0.9316
28014SOL    HW291283   2.450  12.564   5.700 -1.3316 -0.7257  0.1972
28015SOL     OW91284   2.169   3.425   5.594 -0.0368 -0.0286 -0.6637
28015SOL    HW191285   2.175   3.521   5.591  1.1326 -0.0622  0.1374
28015SOL    HW291286   2.259   3.395   5.592 -0.3526 -1.0814  0.0693
28016SOL     OW91287   8.265   5.128   5.836  0.0865  0.7557  0.2254
28016SOL    HW191288   8.341   5.168   5.794 -0.5478  2.3124  0.4776
28016SOL    HW291289   8.299   5.048   5.875  0.7202 -0.8405 -3.2065
28017SOL     OW91290   0.411  10.418  10.304  0.2671 -0.1466 -0.0330
28017SOL    HW191291   0.378  10.501  10.339 -0.1061 -0.8661  1.4024
28017SOL    HW291292   0.333  10.372  10.273  0.4640 -0.0077 -0.7565
28018SOL     OW91293   3.081  10.339   0.361 -0.1310  0.4383  0.0847
28018SOL    HW191294   3.046  10.382   0.439 -1.2580  1.8677 -1.1533
28018SOL    HW291295   3.105  10.251   0.391  0.4410  1.2655  2.2527
28019SOL     OW91296  12.051   6.742   0.516  0.1055  0.1283 -0.4306
28019SOL    HW191297  12.138   6.713   0.488  0.8554  2.1546 -0.4153
28019SOL    HW291298  12.058   6.748   0.612 -0.7394 -1.6489 -0.2231
28020SOL     OW91299   8.059   0.031   7.820  0.4076 -0.4284 -0.1596
28020SOL    HW191300   7.977   0.078   7.837  1.3009  0.7041  1.3481
28020SOL    HW291301   8.035  -0.039   7.760 -1.6493 -0.1008  0.2015
28021SOL     OW91302   4.931  11.071   7.141 -0.5807  0.0546 -0.0786
28021SOL    HW191303   4.955  11.135   7.208 -1.8469  3.3305 -2.5158
28021SOL    HW291304   5.011  11.059   7.090  0.2665 -2.1315  1.5761
28022SOL     OW91305   8.649   0.681   7.724  0.4320  0.3219  0.2564
28022SOL    HW191306   8.717   0.726   7.674 -2.2905  1.8581 -2.4277
28022SOL    HW291307   8.686   0.594   7.742  3.8330  1.7544  0.9217
28023SOL     OW91308  11.171   6.856   2.132 -0.2231  0.1368  0.2078
28023SOL    HW191309  11.160   6.774   2.181  1.2823  1.5529  3.1522
28023SOL    HW291310  11.098   6.856   2.071 -0.7311 -3.0253  0.6116
28024SOL     OW91311  11.325   6.947   3.927 -0.1669  0.2700  0.1796
28024SOL    HW191312  11.290   7.035   3.941 -0.3581  0.1557  0.4225
28024SOL    HW291313  11.375   6.928   4.006 -0.3862  0.0361  0.2607
28025SOL     OW91314   9.767  10.404   9.481  0.2072  0.2332  0.5316
28025SOL    HW191315   9.833  10.370   9.420  1.0758  0.3371  1.3820
28025SOL    HW291316   9.695  10.341   9.477  0.5016 -0.0699 -0.1598
28026SOL     OW91317   2.624   3.139   5.843  0.0333  0.0899 -0.2170
28026SOL    HW191318   2.718   3.124   5.833  0.2184  1.1449 -0.1707
28026SOL    HW291319   2.597   3.074   5.909  1.3109  1.6650  2.0003
28027SOL     OW91320   9.664   4.384   0.797 -0.5151 -0.3022  0.3899
28027SOL    HW191321   9.660   4.327   0.874 -0.0730  0.3780  0.9343
28027SOL    HW291322   9.640   4.328   0.724  2.4650 -1.9120  0.5114
28028SOL     OW91323   0.089   5.088  11.601  0.8209  0.2264 -0.2268
28028SOL    HW191324   0.051   5.158  11.548  2.3178  1.8951  0.8324
28028SOL    HW291325   0.036   5.087  11.681 -0.6919 -1.5182 -1.1426
28029SOL     OW91326   5.515   3.544   6.124  0.0698 -0.2168  0.3522
28029SOL    HW191327   5.541   3.472   6.067  0.9157  0.8862 -0.7089
28029SOL    HW291328   5.519   3.507   6.212  1.0023 -1.3215 -0.1238
28030SOL     OW91329  12.711   7.444   4.300 -0.1410 -0.3244 -0.1601
28030SOL    HW191330  12.624   7.461   4.336  0.3154  2.3742 -0.1191
28030SOL    HW291331  12.765   7.424   4.377  0.1017  2.1069  0.3908
28031SOL     OW91332  12.462  11.360  10.016 -0.4267  0.4597 -0.3642
28031SOL    HW191333  12.425  11.375   9.929  1.6601  0.0219 -1.4064
28031SOL    HW291334  12.425  11.429  10.071 -0.0341  2.1845 -2.1672
28032SOL     OW91335   6.524  10.778  12.494  0.2118  0.2732  0.0075
28032SOL    HW191336   6.595  10.738  12.444 -1.4276 -2.2673 -0.4585
28032SOL    HW291337   6.502  10.713  12.561 -2.0305  0.7172 -0.2232
28033SOL     OW91338  11.690   4.133   0.334  0.2841 -0.6623  0.0891
28033SOL    HW191339  11.772   4.155   0.289 -0.1610  0.8120 -0.0441
28033SOL    HW291340  11.702   4.166   0.423 -0.1674 -0.4210  0.0628
28034SOL     OW91341   9.245   9.025  10.861 -0.1420  0.4721  0.2376
28034SOL    HW191342   9.280   9.091  10.922 -1.1654  0.0440  1.3302
28034SOL    HW291343   9.152   9.046  10.855 -0.1887  0.0592 -0.6497
28035SOL     OW91344   0.019   7.969   3.791 -0.6685 -0.1561 -0.4515
28035SOL    HW191345   0.030   7.915   3.869 -2.9404  0.1638  0.1412
28035SOL    HW291346   0.053   7.915   3.720  1.5084 -0.4270  0.7063
28036SOL     OW91347  10.126   2.801   6.047 -0.4273 -0.0881 -0.3435
28036SOL    HW191348  10.058   2.866   6.033 -0.3256 -0.3521 -2.5617
28036SOL    HW291349  10.205   2.840   6.010  0.5472  0.0082  1.7339
28037SOL     OW91350   8.040   5.918   0.855  0.0282 -0.0488 -0.3576
28037SOL    HW191351   8.116   5.860   0.863  1.1505  0.9273 -2.7852
28037SOL    HW291352   7.979   5.870   0.800 -2.0608 -1.5818  3.0023
28038SOL     OW91353   1.613   7.241   3.235  0.0873  0.7454  0.1457
28038SOL    HW191354   1.699   7.270   3.206  0.7508 -0.3370  0.9335
28038SOL    HW291355   1.594   7.163   3.181 -0.2794  0.8193  0.1608
28039SOL     OW91356   2.526   5.117   0.316 -0.4004  0.5746  0.6656
28039SOL    HW191357   2.602   5.141   0.370 -0.6649  1.4101  0.6895
28039SOL    HW291358   2.562   5.108   0.228 -0.2602  0.9024  0.6868
28040SOL     OW91359   5.901   9.494   2.435 -0.0173  0.2482 -0.0517
28040SOL    HW191360   5.989   9.527   2.457 -0.4993  0.6201  1.4778
28040SOL    HW291361   5.906   9.471   2.342  1.2199  1.8158 -0.4124
28041SOL     OW91362   5.820   3.407   4.254  0.1523  0.2627 -0.1515
28041SOL    HW191363   5.837   3.353   4.177 -1.2961  1.3045 -1.2808
28041SOL    HW291364   5.794   3.345   4.322 -2.1748 -0.5139 -1.6170
28042SOL     OW91365  11.708   5.328   6.778 -0.1306 -0.3412 -0.2201
28042SOL    HW191366  11.727   5.377   6.859 -1.5995 -0.6064  0.3249
28042SOL    HW291367  11.712   5.394   6.709 -1.4593  0.4835  0.4259
28043SOL     OW91368   8.984   9.161   0.168 -0.1062 -1.2262 -0.3749
28043SOL    HW191369   8.951   9.089   0.114  0.3052 -0.7561 -1.2710
28043SOL    HW291370   8.940   9.238   0.135 -1.7064 -1.2191  1.5695
28044SOL     OW91371   9.056   0.157  10.594  0.2741  0.1107  0.0423
28044SOL    HW191372   9.131   0.145  10.535  0.7447  0.6977  0.5080
28044SOL    HW291373   9.089   0.134  10.680 -0.0630  0.4368  0.2630
28045SOL     OW91374   2.731  12.431  12.274 -0.6501 -0.1071  0.2495
28045SOL    HW191375   2.746  12.433  12.368 -0.7996  1.1838  0.2643
28045SOL    HW291376   2.770  12.512  12.242  0.5791 -1.1200 -1.0029
28046SOL     OW91377   5.924   3.841   4.258 -0.0150 -0.1244  0.5655
28046SOL    HW191378   5.892   3.765   4.307 -0.4143 -0.9252 -0.8828
28046SOL    HW291379   6.016   3.846   4.281  0.3089 -1.7801 -0.1831
28047SOL     OW91380   3.103  10.973   4.440  0.3320  0.0276 -0.1939
28047SOL    HW191381   3.070  11.059   4.412  2.2376  0.3503 -1.6903
28047SOL    HW291382   3.067  10.911   4.376 -0.1703 -0.1358  0.2441
28048SOL     OW91383   4.205  12.332   5.280 -0.2223  0.6882  0.1358
28048SOL    HW191384   4.124  12.360   5.237  0.6839  1.6074 -1.0067
28048SOL    HW291385   4.245  12.271   5.218  0.1353  0.4987  0.5516
28049SOL     OW91386   2.481   3.133   1.204 -0.2248 -0.0270  0.1040
28049SOL    HW191387   2.528   3.098   1.280 -1.4500 -0.2179  0.7973
28049SOL    HW291388   2.438   3.057   1.165 -0.6095  0.2674 -0.0532
28050SOL     OW91389   2.930   7.870  12.526 -0.4982  0.1941  0.2337
28050SOL    HW191390   2.883   7.801  12.479  1.0209 -1.9834  1.7403
28050SOL    HW291391   2.991   7.823  12.582  0.9618  2.8214  0.9815
28051SOL     OW91392  11.650   2.052   2.737 -0.0004 -0.7506  0.0435
28051SOL    HW191393  11.591   1.985   2.702  2.5163 -3.2492  0.1531
28051SOL    HW291394  11.661   2.029   2.829  0.7245 -0.0669  0.1397
28052SOL     OW91395   2.012   6.453   0.276  0.0026 -0.5138 -0.1369
28052SOL    HW191396   1.997   6.384   0.340 -1.5319  0.2270  0.3584
28052SOL    HW291397   2.075   6.512   0.317  1.5180 -1.7050 -0.6667
28053SOL     OW91398  12.230   4.921   5.820 -0.9673  0.2956  0.5895
28053SOL    HW191399  12.308   4.976   5.811  0.7296 -2.1799 -1.0217
28053SOL    HW291400  12.215   4.916   5.914 -0.4301  2.4086  0.8507
28054SOL     OW91401   2.909   7.897  11.351 -0.0678  0.1221  0.4446
28054SOL    HW191402   2.946   7.964  11.294  0.1184 -0.3994 -0.0503
28054SOL    HW291403   2.817   7.891  11.325  0.3156 -1.0418 -0.7135
28055SOL     OW91404   5.463   2.099   5.288  0.1298 -0.3404 -0.3737
28055SOL    HW191405   5.378   2.139   5.275 -0.0503 -1.0291 -1.4664
28055SOL    HW291406   5.468   2.030   5.221  0.6617 -1.7353  1.0316
28056SOL     OW91407  10.170   2.951   2.645  0.6152  0.6335  0.3369
28056SOL    HW191408  10.223   2.996   2.711  0.6938 -0.1090  0.7985
28056SOL    HW291409  10.080   2.981   2.662  0.7571  1.1341  0.1996
28057SOL     OW91410   5.530   2.122   4.894 -0.5697  0.2690  0.5462
28057SOL    HW191411   5.521   2.077   4.809  3.1904  0.0792  0.0720
28057SOL    HW291412   5.520   2.053   4.959 -1.0639 -0.0469  0.1415
28058SOL     OW91413   1.736   1.168   9.026 -0.0630  0.0032 -0.2581
28058SOL    HW191414   1.684   1.144   9.103  0.0483 -0.3381 -0.2878
28058SOL    HW291415   1.684   1.234   8.981  0.1189  0.6169  0.4068
28059SOL     OW91416   0.396   8.722  11.529  0.2092  0.4723  0.1800
28059SOL    HW191417   0.428   8.793  11.585 -0.2910  0.6317  0.2754
28059SOL    HW291418   0.450   8.727  11.450  1.6096 -0.3933  1.0388
28060SOL     OW91419   1.786   2.923   8.862 -0.2920 -0.4896 -0.0342
28060SOL    HW191420   1.732   2.957   8.933  0.6616  0.3864  0.2941
28060SOL    HW291421   1.738   2.946   8.782  0.0058  1.0940  0.2080
28061SOL     OW91422   6.202   9.317   2.632 -0.1252 -0.4031  0.3314
28061SOL    HW191423   6.279   9.262   2.640 -1.2452 -2.0650  0.1915
28061SOL    HW291424   6.128   9.258   2.647 -1.3679  1.2304  0.9959
28062SOL     OW91425   6.230   6.676  12.517  0.1341  0.1285 -0.5433
28062SOL    HW191426   6.250   6.606  12.580 -0.6176 -1.6769 -2.1909
28062SOL    HW291427   6.137   6.692  12.529  0.3120  0.9068 -0.1507
28063SOL     OW91428   0.030  11.853   5.640  0.4259  0.5885  0.3259
28063SOL    HW191429   0.126  11.863   5.644  0.5188  0.9974 -1.7048
28063SOL    HW291430  -0.004  11.935   5.676  0.8983  1.3459 -0.9077
28064SOL     OW91431  12.591   8.150   1.982 -0.8141  0.1230 -0.2023
28064SOL    HW191432  12.592   8.114   2.071 -0.2854 -1.4999 -0.8341
28064SOL    HW291433  12.539   8.230   1.990  1.3691  1.4780  2.0970
28065SOL     OW91434   8.302   1.150   8.643 -0.1636  0.3971  0.7582
28065SOL    HW191435   8.317   1.244   8.658 -0.1010  0.3497  1.0083
28065SOL    HW291436   8.273   1.144   8.552 -0.3307  0.6797  0.7899
28066SOL     OW91437   0.514   7.446   2.210 -0.6412 -0.2883 -0.6898
28066SOL    HW191438   0.481   7.358   2.227 -0.1327 -0.3521 -0.0187
28066SOL    HW291439   0.607   7.434   2.191 -1.1993 -0.3096 -4.1783
28067SOL     OW91440   5.622   1.453   5.336 -0.2599 -0.5589 -0.6682
28067SOL    HW191441   5.586   1.532   5.376 -0.1858 -1.2646  0.8298
28067SOL    HW291442   5.689   1.485   5.276  1.4274  0.4584  1.6204
28068SOL     OW91443   3.848   5.945   9.888 -0.7755 -0.1554  0.5436
28068SOL    HW191444   3.807   5.922   9.805 -0.4004  0.0595  0.2935
28068SOL    HW291445   3.942   5.935   9.871 -0.7483 -1.9462  1.4841
28069SOL     OW91446   3.272  11.976  10.137 -0.2886  0.3228  0.1272
28069SOL    HW191447   3.361  11.946  10.153 -0.7520 -1.8540 -0.9548
28069SOL    HW291448   3.279  12.034  10.061  0.1382 -0.3385 -0.3449
28070SOL     OW91449   4.285   6.110   1.893 -0.3305  0.2893 -0.0931
28070SOL    HW191450   4.298   6.205   1.895 -1.5298  0.4950 -0.8446
28070SOL    HW291451   4.190   6.100   1.885 -0.3714 -1.0072  1.4908
28071SOL     OW91452   1.146   0.305   8.367 -0.5139  0.9427  0.1022
28071SOL    HW191453   1.221   0.360   8.344 -1.6173  1.3920 -2.8306
28071SOL    HW291454   1.183   0.217   8.373  0.2949  1.1233 -1.5234
28072SOL     OW91455   7.034  10.670   5.433 -0.1731  0.4229 -0.2874
28072SOL    HW191456   7.061  10.601   5.493 -0.4867  0.3237 -0.2560
28072SOL    HW291457   7.067  10.751   5.472 -0.7533  0.4097  0.2487
28073SOL     OW91458   8.093   6.477   4.733 -0.3603 -0.5827 -0.8323
28073SOL    HW191459   8.100   6.417   4.808 -0.3062 -1.3873 -1.4697
28073SOL    HW291460   8.176   6.524   4.732 -0.3935 -0.5045 -0.3410
28074SOL     OW91461   2.570   9.104   1.435  0.0342  0.0523  0.1335
28074SOL    HW191462   2.614   9.126   1.517  1.4348 -1.4585 -0.1547
28074SOL    HW291463   2.494   9.053   1.461  0.7538 -0.8662  0.5163
28075SOL     OW91464   2.709   6.982   4.055  0.0394  0.1757 -0.5210
28075SOL    HW191465   2.710   7.071   4.020 -1.7375  0.1748 -0.6632
28075SOL    HW291466   2.637   6.939   4.009 -1.3844 -0.2862  1.9885
28076SOL     OW91467   8.845  12.159   1.168 -0.0958  0.6308  0.0922
28076SOL    HW191468   8.800  12.224   1.222 -0.4139  0.7857 -0.3471
28076SOL    HW291469   8.845  12.197   1.080 -0.6823 -0.1441 -0.2655
28077SOL     OW91470   1.848   7.942  10.360  0.0389  0.1199 -0.5687
28077SOL    HW191471   1.854   7.920  10.453  1.8647  0.7252 -0.4956
28077SOL    HW291472   1.782   8.012  10.356  0.7422  0.8674  0.4420
28078SOL     OW91473   1.307   9.927  10.909  0.4060  0.7700 -0.0459
28078SOL    HW191474   1.354   9.960  10.986 -0.6349  0.0446  0.9340
28078SOL    HW291475   1.372   9.929  10.839  2.2430 -1.1396  1.4659
28079SOL     OW91476   8.603   2.060   9.105 -0.4137 -0.2193 -0.1506
28079SOL    HW191477   8.656   2.089   9.030  0.4242 -0.7597  0.2208
28079SOL    HW291478   8.665   2.016   9.163 -0.8192  1.1837  1.4212
28080SOL     OW91479   5.723   2.977  11.534  0.3698 -0.2106 -0.2080
28080SOL    HW191480   5.682   3.033  11.600  0.7555  0.7359 -0.7507
28080SOL    HW291481   5.790   3.032  11.494 -0.4817 -0.4392 -2.0470
28081SOL     OW91482  12.347   4.580  10.192 -0.3295 -0.1915 -0.0201
28081SOL    HW191483  12.333   4.632  10.113  1.0988  0.1921 -0.0437
28081SOL    HW291484  12.350   4.645  10.263  0.1672 -0.3727  0.1220
28082SOL     OW91485  11.281   7.934   5.800  0.4554 -0.3648  0.2284
28082SOL    HW191486  11.368   7.964   5.825  0.9636 -1.3187 -0.3216
28082SOL    HW291487  11.221   8.002   5.832  1.4124  0.3807  0.4663
28083SOL     OW91488  11.088   0.411  12.560  0.1870  0.3447  0.5167
28083SOL    HW191489  11.080   0.506  12.553  0.8280  0.3641 -0.1205
28083SOL    HW291490  11.178   0.393  12.534 -0.4020 -0.5787 -1.0289
28084SOL     OW91491  10.731   2.185  11.865  0.4972  0.8970 -0.0821
28084SOL    HW191492  10.821   2.210  11.842  0.2551  2.4199  0.5259
28084SOL    HW291493  10.715   2.227  11.949  0.6251 -2.8379  2.0135
28085SOL     OW91494   0.814   3.833   8.617 -0.5966 -0.7673  0.5608
28085SOL    HW191495   0.729   3.789   8.612  0.0672 -2.0134 -0.4547
28085SOL    HW291496   0.858   3.810   8.535 -0.2112  1.8860 -0.0979
28086SOL     OW91497   9.035   2.507   5.929 -0.4137 -0.4125 -0.0009
28086SOL    HW191498   9.113   2.459   5.956  1.2818  1.2219 -1.6754
28086SOL    HW291499   9.044   2.593   5.971 -0.5060  0.2899 -1.3615
28087SOL     OW91500   2.806   4.836  12.707  0.1168 -0.3116 -0.2468
28087SOL    HW191501   2.860   4.859  12.782  0.1230 -1.1159  0.0100
28087SOL    HW291502   2.860   4.774  12.657 -0.9105 -1.9455  0.5582
28088SOL     OW91503   0.839   0.699   9.559 -0.1678 -0.2136  0.2111
28088SOL    HW191504   0.773   0.632   9.577  0.3458 -0.5490  0.9184
28088SOL    HW291505   0.808   0.777   9.606 -0.9936  0.2048 -0.9731
28089SOL     OW91506   6.513   3.628  10.889 -0.2909  0.0749 -0.3580
28089SOL    HW191507   6.569   3.569  10.939 -1.2410 -0.3369  0.2535
28089SOL    HW291508   6.526   3.602  10.798  0.0553 -0.4188 -0.1712
28090SOL     OW91509   8.635   3.383   8.688  0.3386 -0.3518  0.4041
28090SOL    HW191510   8.622   3.448   8.619  0.4444 -1.9241 -1.1621
28090SOL    HW291511   8.723   3.348   8.672  1.3089  0.8053  2.7365
28091SOL     OW91512   6.744   5.193   2.104 -0.2400 -0.1055 -0.1493
28091SOL    HW191513   6.761   5.261   2.038 -1.0335 -0.4967 -0.7605
28091SOL    HW291514   6.744   5.111   2.055 -2.5628 -0.2554  0.0149
28092SOL     OW91515   0.647  11.740   3.741  0.3393  0.0393 -0.1677
28092SOL    HW191516   0.732  11.736   3.698  0.5021 -0.1144  0.1651
28092SOL    HW291517   0.585  11.757   3.670  0.7971  1.6758 -0.2112
28093SOL     OW91518  10.589   6.061  12.687  0.1179 -0.3058 -0.1527
28093SOL    HW191519  10.567   6.051  12.779  1.2503 -0.6323  0.0950
28093SOL    HW291520  10.533   5.998  12.642 -1.7760  1.1058  0.0730
28094SOL     OW91521   3.635   1.719   4.957 -0.1475  0.1105 -0.1392
28094SOL    HW191522   3.671   1.744   5.042 -3.2595 -1.9669  1.9596
28094SOL    HW291523   3.705   1.666   4.917  1.2002  0.7037  1.2936
28095SOL     OW91524   8.456   0.007  11.743 -0.3162 -0.3308  0.0040
28095SOL    HW191525   8.488   0.071  11.807 -2.7112 -0.5270  1.5102
28095SOL    HW291526   8.443  -0.073  11.794 -3.6426 -0.1142 -0.2886
28096SOL     OW91527   9.396  11.562   5.526  0.2537  0.0439 -0.3120
28096SOL    HW191528   9.427  11.547   5.615  0.6852  1.9198 -0.1110
28096SOL    HW291529   9.325  11.499   5.515  0.1992 -0.2323  1.3389
28097SOL     OW91530  12.230   5.158  10.119 -0.6211 -0.0460  0.1751
28097SOL    HW191531  12.316   5.193  10.142 -0.4991 -0.4183  0.2912
28097SOL    HW291532  12.193   5.129  10.202 -0.6787 -0.2850  0.0666
28098SOL     OW91533   8.002   7.240   3.473 -0.2504  0.3425 -0.0791
28098SOL    HW191534   8.049   7.190   3.540 -2.2903  0.7580  1.7652
28098SOL    HW291535   7.953   7.174   3.424 -0.9989  0.2670  0.7438
28099SOL     OW91536   4.439  12.494   4.046  0.4764 -0.2395 -0.1706
28099SOL    HW191537   4.386  12.506   3.968 -0.2085 -0.5067  0.2477
28099SOL    HW291538   4.377  12.498   4.119  1.3445  2.3453  0.5511
28100SOL     OW91539  11.248  10.169   5.637 -0.0827  0.5414 -0.6091
28100SOL    HW191540  11.244  10.215   5.553  0.5910 -1.2135 -1.6615
28100SOL    HW291541  11.195  10.090   5.624 -0.3344  0.4569  0.7774
28101SOL     OW91542   4.444   8.008   9.489  0.2303  0.0180 -0.1468
28101SOL    HW191543   4.463   7.919   9.521 -0.1498 -0.6408 -1.6733
28101SOL    HW291544   4.351   8.005   9.466 -0.4055  1.5300  1.9106
28102SOL     OW91545   1.179   3.715   1.724  0.3851 -0.0738  0.1018
28102SOL    HW191546   1.090   3.680   1.714  0.1264  0.8844 -1.2238
28102SOL    HW291547   1.190   3.726   1.818 -1.4770  1.1805  0.2371
28103SOL     OW91548   5.973   0.472   9.531 -0.0778  0.6896 -0.7914
28103SOL    HW191549   6.015   0.435   9.453  1.8895  0.3705  0.3336
28103SOL    HW291550   5.925   0.548   9.499 -0.1499 -0.0033 -2.4423
28104SOL     OW91551   7.674   8.708   7.374 -0.1317 -0.1558  0.5294
28104SOL    HW191552   7.726   8.689   7.296 -1.0557 -1.3577  0.1683
28104SOL    HW291553   7.590   8.740   7.340  0.0273  0.8695  1.0786
28105SOL     OW91554  11.566   9.652   4.775 -0.0181  0.5468 -0.3840
28105SOL    HW191555  11.620   9.702   4.836  0.3362  0.3750 -0.5589
28105SOL    HW291556  11.476   9.675   4.799  0.0929  0.0324  0.5952
28106SOL     OW91557   2.433   5.203   5.096 -0.3050  0.0718 -0.5818
28106SOL    HW191558   2.375   5.132   5.071  0.1545 -1.0859  1.4421
28106SOL    HW291559   2.419   5.215   5.190  2.7533 -0.3660  0.0607
28107SOL     OW91560   3.077   8.475   7.335 -0.3588 -0.1658 -0.1071
28107SOL    HW191561   3.168   8.497   7.353 -0.5479  2.8146 -2.0934
28107SOL    HW291562   3.080   8.426   7.253 -0.5293 -0.7090  0.2035
28108SOL     OW91563   9.624   6.256  11.980  0.0921 -0.5016 -0.0234
28108SOL    HW191564   9.636   6.257  11.885  3.7936 -0.9353  0.3093
28108SOL    HW291565   9.604   6.164  12.000  2.2313 -1.0356 -0.1792
28109SOL     OW91566   4.140   8.490   9.269  0.0237 -0.1393  0.4546
28109SOL    HW191567   4.160   8.456   9.357 -0.7714 -0.0464  0.6749
28109SOL    HW291568   4.198   8.440   9.211  2.8664  1.9209  1.3047
28110SOL     OW91569   7.277   0.518   1.998  0.1254  0.1340  0.0383
28110SOL    HW191570   7.287   0.423   2.000 -1.0427 -0.0007  0.1315
28110SOL    HW291571   7.183   0.532   2.007 -0.2108  1.1405 -3.5666
28111SOL     OW91572   8.805   6.197  11.749  0.1155  0.2541 -0.1502
28111SOL    HW191573   8.831   6.160  11.665 -1.3083  2.0323 -1.4597
28111SOL    HW291574   8.713   6.222  11.737  0.1451  1.3999  1.6081
28112SOL     OW91575   9.474  11.483   5.768  0.5098 -0.4936  0.5665
28112SOL    HW191576   9.434  11.415   5.823 -0.6954  0.7372  1.2701
28112SOL    HW291577   9.554  11.508   5.814  0.9773 -1.4155  0.2921
28113SOL     OW91578   6.129   0.300   4.851 -0.2416  0.1890 -0.0722
28113SOL    HW191579   6.118   0.205   4.860  1.2298 -0.0652 -0.7836
28113SOL    HW291580   6.084   0.321   4.769 -1.5127  0.3093  0.6230
28114SOL     OW91581   2.914   0.117   9.626 -0.5580 -0.1204 -0.1316
28114SOL    HW191582   2.916   0.076   9.713 -0.7914 -0.1903 -0.1606
28114SOL    HW291583   2.883   0.048   9.568  1.4705 -0.7080 -0.6017
28115SOL     OW91584   8.677   3.386  11.676 -0.2173  0.6707  0.2114
28115SOL    HW191585   8.680   3.478  11.700  1.7787  0.5740  0.4762
28115SOL    HW291586   8.585   3.362  11.683 -0.5343  2.1879  1.8603
28116SOL     OW91587  11.273  12.497   6.017 -0.0530 -0.4070  0.5074
28116SOL    HW191588  11.276  12.449   5.934 -3.1503 -1.4712  0.8779
28116SOL    HW291589  11.195  12.551   6.011 -0.6878 -0.9286  2.9172
28117SOL     OW91590   0.774  12.633   1.151 -0.6913 -0.0647  0.9423
28117SOL    HW191591   0.699  12.649   1.094 -0.5278 -0.6969  0.5339
28117SOL    HW291592   0.842  12.599   1.092 -0.8512 -1.7070  1.6367
28118SOL     OW91593   0.662   5.118  11.682 -0.0043  0.4401 -0.6062
28118SOL    HW191594   0.653   5.029  11.647 -0.6414 -0.2722  1.2345
28118SOL    HW291595   0.662   5.106  11.777  2.1491  2.2148 -0.3003
28119SOL     OW91596  11.266   4.857   0.150 -0.7425  0.4621  0.5042
28119SOL    HW191597  11.206   4.814   0.089 -0.9241  0.2758  0.8132
28119SOL    HW291598  11.321   4.786   0.183  0.6526  0.8185 -0.8829
28120SOL     OW91599  11.479   5.234   3.078  0.2950  0.3007 -0.3563
28120SOL    HW191600  11.536   5.184   3.137 -0.4802 -0.6853 -0.4082
28120SOL    HW291601  11.489   5.325   3.107 -0.9133 -0.2518  2.0733
28121SOL     OW91602  11.236  12.345   6.523 -0.6176 -0.1756  0.2942
28121SOL    HW191603  11.235  12.441   6.523 -0.0202 -0.1664  1.2628
28121SOL    HW291604  11.328  12.322   6.515 -0.8496 -0.6920 -1.2179
28122SOL     OW91605   8.979   3.410  10.550  0.1025 -0.4796  0.1375
28122SOL    HW191606   9.028   3.459  10.617 -2.8275  1.0827  1.3139
28122SOL    HW291607   8.931   3.344  10.600  0.4727 -1.5902 -0.9146
28123SOL     OW91608  11.056   4.925   2.956  0.2501  0.1248  0.1126
28123SOL    HW191609  11.081   4.870   2.881 -0.8809  0.1463 -0.2936
28123SOL    HW291610  11.036   5.010   2.917 -0.2790  0.1536  0.4505
28124SOL     OW91611   4.418   4.480   7.221  0.2245 -0.0023  0.4342
28124SOL    HW191612   4.344   4.538   7.238 -0.7019 -0.3814 -1.8662
28124SOL    HW291613   4.483   4.537   7.178  0.6512 -0.0109  1.0491
28125SOL     OW91614   8.487   6.869  10.300  0.2223 -0.3855 -0.3059
28125SOL    HW191615   8.481   6.822  10.383  0.5674 -1.5595 -0.9217
28125SOL    HW291616   8.490   6.800  10.234 -0.6361  0.5330 -1.3451
28126SOL     OW91617   2.716   3.044   4.028  0.0264 -0.3767  0.3382
28126SOL    HW191618   2.697   2.980   4.097 -1.2166 -1.6994 -1.1564
28126SOL    HW291619   2.776   2.998   3.970  0.2138  0.3375 -0.0396
28127SOL     OW91620  12.237  10.511   6.939  0.1118 -0.6853 -0.5242
28127SOL    HW191621  12.144  10.504   6.963 -0.1783  0.7885 -1.1374
28127SOL    HW291622  12.281  10.532   7.022 -0.4273  0.9007 -0.6093
28128SOL     OW91623   2.562   0.433   0.335  1.0311 -0.6774  0.0341
28128SOL    HW191624   2.597   0.486   0.406  0.8325 -1.1711  0.5047
28128SOL    HW291625   2.540   0.350   0.376  0.5093 -0.8160 -0.5173
28129SOL     OW91626   1.826   6.064   4.701  0.3401 -0.5393  0.1762
28129SOL    HW191627   1.805   6.138   4.758 -1.2441 -0.1951 -0.7827
28129SOL    HW291628   1.827   6.101   4.613  2.6055 -1.0896 -0.0708
28130SOL     OW91629   1.356  11.809  12.017  0.2247  0.4990  0.4185
28130SOL    HW191630   1.439  11.769  12.042  0.1724 -0.1501 -0.3818
28130SOL    HW291631   1.290  11.743  12.037 -0.3283  1.6180  2.5860
28131SOL     OW91632   2.767   1.007   2.289  0.3121 -0.1755 -0.2914
28131SOL    HW191633   2.847   0.981   2.243  1.4143  1.0816  0.8484
28131SOL    HW291634   2.736   1.084   2.241  2.4535  2.2675  1.9216
28132SOL     OW91635   9.988   1.594   6.135  0.0033  0.0204 -0.4712
28132SOL    HW191636   9.997   1.502   6.160 -0.2132  0.1025 -0.0861
28132SOL    HW291637   9.903   1.598   6.091  0.4055 -0.1342 -1.2849
28133SOL     OW91638   8.767   7.520   2.427  0.2053 -0.5636 -0.3558
28133SOL    HW191639   8.753   7.610   2.399 -0.0460 -1.6021 -4.1981
28133SOL    HW291640   8.861   7.513   2.443  0.0397  0.6419  1.3212
28134SOL     OW91641   2.392   5.520   5.149  0.1038 -0.1120  0.8400
28134SOL    HW191642   2.412   5.577   5.224 -2.0728 -0.0193  1.4172
28134SOL    HW291643   2.347   5.578   5.087  1.1452 -0.3907 -0.1941
28135SOL     OW91644   0.791  10.173   7.670  0.2248 -0.0520  0.0629
28135SOL    HW191645   0.722  10.205   7.728 -0.6606  1.1864 -1.6014
28135SOL    HW291646   0.862  10.237   7.679 -0.6965  1.2929 -1.6355
28136SOL     OW91647   2.462   3.345   6.451  0.1324 -0.0133  0.6444
28136SOL    HW191648   2.405   3.268   6.453 -0.0081  0.0915  0.6565
28136SOL    HW291649   2.471   3.365   6.358  0.0600  0.0376  0.6486
28137SOL     OW91650   5.577   4.740  10.548  0.2113 -0.1797  0.0165
28137SOL    HW191651   5.525   4.698  10.616  2.1671  0.4465  2.0501
28137SOL    HW291652   5.598   4.670  10.486 -1.0949 -0.9217  0.3861
28138SOL     OW91653   2.031   8.365   0.273  0.0714  0.0762 -0.1466
28138SOL    HW191654   2.086   8.412   0.211 -0.7541  1.8117  0.3488
28138SOL    HW291655   2.059   8.397   0.359 -1.8756  1.2900  0.1005
28139SOL     OW91656   4.181   3.878   4.670  0.2859 -0.7604 -0.3002
28139SOL    HW191657   4.268   3.887   4.631  0.3143 -1.6082 -0.4525
28139SOL    HW291658   4.196   3.876   4.764  0.5993 -2.3378 -0.3526
28140SOL     OW91659  11.687  10.090   3.142  0.0060  0.7679  0.8110
28140SOL    HW191660  11.658  10.048   3.222 -0.3528 -1.5235 -0.4374
28140SOL    HW291661  11.752  10.154   3.170  1.3619 -1.3258  2.7788
28141SOL     OW91662   0.060   6.142   8.541 -0.4906  0.4350 -0.4770
28141SOL    HW191663  -0.028   6.139   8.503 -0.5404  0.7543 -0.3868
28141SOL    HW291664   0.112   6.189   8.475 -0.8848  2.2522  0.4567
28142SOL     OW91665  11.098   9.341   1.446 -0.2440  0.0386 -0.0444
28142SOL    HW191666  11.142   9.263   1.480 -0.3024  0.4917  1.1413
28142SOL    HW291667  11.049   9.311   1.370 -0.5264 -1.1413  0.5877
28143SOL     OW91668   1.223   7.013   0.460  0.0501  0.3435  0.1797
28143SOL    HW191669   1.282   6.944   0.490 -0.8180 -0.3870  0.2249
28143SOL    HW291670   1.241   7.021   0.367  0.4134  0.3216  0.2449
28144SOL     OW91671   5.066  10.676   4.829 -0.0065  0.3817 -0.6150
28144SOL    HW191672   5.114  10.630   4.760  2.2624  1.2908  0.2620
28144SOL    HW291673   5.094  10.634   4.910 -2.4599 -0.5259 -0.1372
28145SOL     OW91674   3.966   3.553   9.633  0.0506 -0.3755  0.4419
28145SOL    HW191675   3.922   3.615   9.574  3.4579  2.1158  0.2557
28145SOL    HW291676   3.977   3.474   9.580 -1.8019 -0.1795 -0.3162
28146SOL     OW91677  12.436   3.151   8.006 -0.2545 -0.2827  0.0597
28146SOL    HW191678  12.345   3.136   8.031 -0.8669  0.9619 -1.2961
28146SOL    HW291679  12.457   3.080   7.945 -0.7652  0.1905 -0.6737
28147SOL     OW91680   0.438  11.358   4.705  0.1001 -0.3196 -0.1894
28147SOL    HW191681   0.413  11.427   4.767 -2.0741 -2.7912  1.9423
28147SOL    HW291682   0.519  11.322   4.741  0.2325 -0.1067 -0.2687
28148SOL     OW91683   8.906   2.572   2.521  0.7001 -0.1325  0.2316
28148SOL    HW191684   8.980   2.541   2.573  0.1603 -1.3119  0.3244
28148SOL    HW291685   8.915   2.527   2.437 -0.6867 -1.4217  0.7370
28149SOL     OW91686   2.923  11.545   1.271 -0.0376 -0.1805  0.4673
28149SOL    HW191687   2.891  11.522   1.359 -0.1732 -2.0304 -0.0258
28149SOL    HW291688   2.851  11.523   1.212  0.5207 -0.1722 -0.2298
28150SOL     OW91689   3.719  10.969   4.501  0.1525 -0.2959 -0.7826
28150SOL    HW191690   3.802  10.952   4.456  1.2573  1.4438  0.4388
28150SOL    HW291691   3.656  10.985   4.431  1.2317 -0.0578 -1.7310
28151SOL     OW91692   9.431  12.061   4.554 -0.1191 -0.5787 -0.1022
28151SOL    HW191693   9.477  12.130   4.601 -1.1423 -0.0955  0.2175
28151SOL    HW291694   9.440  12.085   4.462 -0.3759 -0.0636  0.0012
28152SOL     OW91695  11.318  10.776  10.712 -0.1330 -0.0489  0.4299
28152SOL    HW191696  11.258  10.758  10.639 -0.6509 -0.7102  1.0032
28152SOL    HW291697  11.386  10.709  10.705  0.7542  0.9068 -0.4211
28153SOL     OW91698   1.194   4.488   2.303  0.0256 -0.1229 -0.5760
28153SOL    HW191699   1.236   4.444   2.377 -0.6268 -0.1032 -0.1818
28153SOL    HW291700   1.252   4.472   2.229  1.5810  1.2618  0.2645
28154SOL     OW91701   7.668   2.799   0.573  0.4902  0.1587 -0.0569
28154SOL    HW191702   7.747   2.804   0.628  0.1389  0.9943  0.3773
28154SOL    HW291703   7.614   2.733   0.615 -0.1752  1.4315  1.1539
28155SOL     OW91704   4.557  11.669  12.506  0.0601  0.1267 -0.2384
28155SOL    HW191705   4.593  11.709  12.585 -1.9749 -0.2511  0.9563
28155SOL    HW291706   4.513  11.740  12.460 -1.5380 -0.1959  0.6905
28156SOL     OW91707   8.415   8.498   6.824 -0.0347  0.4062  0.2678
28156SOL    HW191708   8.452   8.459   6.903 -0.7171  1.8310  1.3435
28156SOL    HW291709   8.457   8.584   6.817 -1.7663  1.3374  0.5519
28157SOL     OW91710   7.550   7.073   1.302  0.2907 -0.3393  0.3453
28157SOL    HW191711   7.593   7.038   1.380 -1.3498  0.3320  1.6060
28157SOL    HW291712   7.622   7.092   1.241  1.5164 -1.8315  1.2819
28158SOL     OW91713  10.403   5.430   1.182 -0.0234  0.1256  0.0303
28158SOL    HW191714  10.387   5.476   1.265  0.8923 -1.5968  1.2209
28158SOL    HW291715  10.319   5.392   1.159 -0.2034  0.3242  0.3459
28159SOL     OW91716   3.704   2.915   3.151  0.2124  0.1241  0.4858
28159SOL    HW191717   3.787   2.962   3.148  0.2506  0.0122 -0.4335
28159SOL    HW291718   3.658   2.941   3.071  0.2623 -1.4072 -0.0805
28160SOL     OW91719   5.274   2.847   5.598 -0.9164 -0.0612 -0.3524
28160SOL    HW191720   5.323   2.791   5.537 -0.0261  1.7157 -1.3494
28160SOL    HW291721   5.227   2.785   5.655 -0.1275 -1.7998 -1.4962
28161SOL     OW91722   5.877   1.941   9.968  0.2314  0.5138  1.3108
28161SOL    HW191723   5.927   1.860   9.955 -0.6689  0.0500  0.6591
28161SOL    HW291724   5.944   2.010   9.971  1.0553 -0.2956  2.4171
28162SOL     OW91725   5.791   7.624   1.904 -0.1135  0.3151  0.1609
28162SOL    HW191726   5.813   7.607   1.995 -1.0860  1.1282  0.5606
28162SOL    HW291727   5.851   7.693   1.877  0.5096 -0.2672  0.0177
28163SOL     OW91728   1.027   4.670   3.737 -0.8003  0.0758  0.4512
28163SOL    HW191729   0.949   4.615   3.734 -0.9318  0.2931 -0.4174
28163SOL    HW291730   1.010   4.732   3.808 -1.5680  0.3273  0.0603
28164SOL     OW91731  10.316   6.731   3.264 -0.0538  0.2913 -0.2357
28164SOL    HW191732  10.328   6.788   3.341 -0.4246 -0.6502  0.5327
28164SOL    HW291733  10.224   6.742   3.240 -0.2371 -0.3246  0.1870
28165SOL     OW91734   8.880   1.356   5.540 -0.0462  0.7777 -0.3002
28165SOL    HW191735   8.922   1.281   5.581  0.4108  1.0564 -0.2571
28165SOL    HW291736   8.846   1.408   5.613 -2.8930 -0.7894 -0.3541
28166SOL     OW91737  10.778   9.680   8.134 -0.2755 -0.4751  0.6267
28166SOL    HW191738  10.781   9.622   8.058  1.0509  0.4153 -0.0448
28166SOL    HW291739  10.760   9.622   8.208 -1.5224 -1.3708 -0.3311
28167SOL     OW91740   8.973  12.115   2.940  0.4075  0.6053  0.1648
28167SOL    HW191741   8.911  12.157   2.880  0.8421  1.5388  0.3587
28167SOL    HW291742   8.935  12.029   2.957  0.8533 -0.1611 -2.3572
28168SOL     OW91743  11.557   4.194   0.830 -0.1637 -0.6092  0.1047
28168SOL    HW191744  11.477   4.176   0.781  1.3374  1.0267 -3.2374
28168SOL    HW291745  11.626   4.195   0.764  2.1351  1.3127  2.3354
28169SOL     OW91746   1.313   2.764   1.565 -0.3843  0.2314 -0.5130
28169SOL    HW191747   1.307   2.681   1.518 -1.8457 -0.5819  1.0050
28169SOL    HW291748   1.224   2.798   1.566 -1.0913 -1.0489  3.6290
28170SOL     OW91749   5.142   8.069  10.817 -0.4205  0.2713  0.3824
28170SOL    HW191750   5.117   8.059  10.909 -1.2122  2.1624  0.4346
28170SOL    HW291751   5.162   7.981  10.787 -1.5492 -0.5757  1.9872
28171SOL     OW91752   8.704   7.003  10.116  0.2508  0.2233  0.3381
28171SOL    HW191753   8.696   6.909  10.134 -0.2082  0.2241  0.1484
28171SOL    HW291754   8.762   7.036  10.185  1.7558 -0.4816 -0.5258
28172SOL     OW91755   1.137   6.759   2.901 -0.0889 -0.2470 -0.6468
28172SOL    HW191756   1.147   6.669   2.933 -0.9410 -0.4214 -0.8594
28172SOL    HW291757   1.077   6.800   2.963 -0.4052 -0.0852 -1.0579
28173SOL     OW91758   8.887   4.346   0.729  0.4588  0.4665  0.2813
28173SOL    HW191759   8.815   4.318   0.673  1.2120  0.2659 -0.6037
28173SOL    HW291760   8.883   4.441   0.730  0.7211  0.4865 -0.4888
28174SOL     OW91761   9.928   5.262   5.417 -0.0167  0.1203  0.4192
28174SOL    HW191762   9.939   5.207   5.494  4.0665 -0.9583 -0.7068
28174SOL    HW291763   9.946   5.205   5.343 -3.1893  1.2784 -1.4506
28175SOL     OW91764  10.718   4.527   8.314 -0.0346  0.0056 -0.3916
28175SOL    HW191765  10.642   4.540   8.256 -0.1205  0.1927 -0.2393
28175SOL    HW291766  10.788   4.578   8.274 -0.0303 -0.0465 -0.4519
28176SOL     OW91767   8.136   5.267  12.476  0.5871  0.2317 -0.4789
28176SOL    HW191768   8.101   5.353  12.453 -0.8713  0.6500  2.7835
28176SOL    HW291769   8.219   5.262  12.428 -0.2623  2.5067 -2.4225
28177SOL     OW91770   1.875   0.633   3.782 -0.1472  0.3083 -0.1623
28177SOL    HW191771   1.836   0.663   3.700 -0.7266 -1.4696 -0.5807
28177SOL    HW291772   1.956   0.590   3.755  0.6626  1.4090  0.4250
28178SOL     OW91773   8.116   5.054   4.849 -0.0214 -0.2315 -0.2187
28178SOL    HW191774   8.186   5.030   4.788 -0.7395 -0.3594 -1.0185
28178SOL    HW291775   8.035   5.035   4.801 -0.6063  0.3070  0.5243
28179SOL     OW91776   9.937  10.283   4.830 -0.1536  0.5079 -0.4758
28179SOL    HW191777   9.980  10.368   4.826  1.0883 -0.0582  0.3655
28179SOL    HW291778   9.853  10.297   4.787  0.1082  2.1059 -0.5241
28180SOL     OW91779  11.521   2.701  11.649 -0.7183  0.4610  0.0089
28180SOL    HW191780  11.610   2.725  11.623 -0.2837 -0.7098  0.3486
28180SOL    HW291781  11.507   2.746  11.733  0.3273 -0.9245  0.9719
28181SOL     OW91782   3.101   1.423  10.669  0.0647  0.2166 -0.5389
28181SOL    HW191783   3.028   1.360  10.665 -0.4184  0.4984  2.2147
28181SOL    HW291784   3.171   1.381  10.620 -0.7947 -1.6992 -0.2118
28182SOL     OW91785   6.781   5.289   1.215 -0.2183  0.1694  0.1272
28182SOL    HW191786   6.852   5.338   1.257 -1.3428 -0.0553  2.4592
28182SOL    HW291787   6.810   5.279   1.124  2.0659  1.2934  0.6353
28183SOL     OW91788   8.295  12.514   0.324  0.3414  0.1920  0.8652
28183SOL    HW191789   8.358  12.472   0.383  1.0943  0.5882  0.3598
28183SOL    HW291790   8.342  12.590   0.290 -0.4409  0.5306  0.5295
28184SOL     OW91791   3.293   7.452   3.678 -0.0584  0.0984  0.3210
28184SOL    HW191792   3.247   7.411   3.605  1.1791 -0.8071  0.0172
28184SOL    HW291793   3.358   7.510   3.636  0.0701  0.2465  0.7187
28185SOL     OW91794  12.317  12.388   6.240 -0.1870  0.1990  0.6700
28185SOL    HW191795  12.372  12.461   6.211  0.6332 -0.4059  0.6314
28185SOL    HW291796  12.282  12.351   6.159  0.9935 -0.6397  0.4994
28186SOL     OW91797   6.181   7.773   6.955  0.3253 -0.8282 -0.2581
28186SOL    HW191798   6.272   7.779   6.927  0.0654 -1.5730 -1.3172
28186SOL    HW291799   6.170   7.682   6.984  0.0742 -0.5787  0.4709
28187SOL     OW91800  11.064  10.140   8.453 -0.5532 -0.1625  0.2420
28187SOL    HW191801  10.969  10.156   8.448 -0.3990  0.7162 -0.0177
28187SOL    HW291802  11.096  10.164   8.366 -0.1044 -0.5718  0.2943
28188SOL     OW91803   6.686  10.360   7.943  0.1641 -0.4132  0.0657
28188SOL    HW191804   6.684  10.417   8.020 -1.2673  1.8004 -1.4651
28188SOL    HW291805   6.596  10.328   7.936  0.4402 -1.1089 -0.3228
28189SOL     OW91806   1.822   3.530   4.236  0.0395 -0.5538  0.7283
28189SOL    HW191807   1.826   3.448   4.188  0.4401  0.0543 -0.2972
28189SOL    HW291808   1.729   3.554   4.236  0.0875 -0.3613 -0.0895
28190SOL     OW91809   0.953   4.276  10.334  0.1155 -0.0361 -0.4617
28190SOL    HW191810   0.874   4.279  10.279 -1.6681  0.4999  1.9820
28190SOL    HW291811   0.935   4.209  10.399  1.0902  0.9922  0.9413
28191SOL     OW91812  11.198  11.052   0.753 -0.7639 -0.1779 -0.0724
28191SOL    HW191813  11.108  11.021   0.742 -0.4375 -1.5084  0.8530
28191SOL    HW291814  11.195  11.107   0.831 -1.1120  1.3409 -1.0909
28192SOL     OW91815   9.815   2.811   0.162  0.1730 -0.2774 -0.1074
28192SOL    HW191816   9.852   2.798   0.074  2.3241 -2.2358  0.9868
28192SOL    HW291817   9.721   2.822   0.147  0.7131  1.6961 -2.8038
28193SOL     OW91818  10.263   2.158   8.861 -0.1325 -0.6691  0.3086
28193SOL    HW191819  10.290   2.080   8.910 -0.6299 -0.3570  1.0985
28193SOL    HW291820  10.326   2.225   8.887  1.1625 -1.1417 -1.4444
28194SOL     OW91821   4.431   4.595   3.405  0.0487  0.1707  0.5727
28194SOL    HW191822   4.414   4.662   3.338  1.1432 -1.0712 -1.0143
28194SOL    HW291823   4.523   4.610   3.430  0.3566 -0.8288  0.0702
28195SOL     OW91824  11.438   2.682   5.540  0.6449  0.1945 -0.3524
28195SOL    HW191825  11.371   2.724   5.486  0.5559  1.8071  0.9264
28195SOL    HW291826  11.458   2.747   5.608  0.3115 -1.9362  1.9257
28196SOL     OW91827   0.240   3.595   4.297 -0.3640 -0.9678 -0.2101
28196SOL    HW191828   0.292   3.550   4.230  0.0648  0.6868 -1.0716
28196SOL    HW291829   0.285   3.679   4.308 -1.8661 -0.2094  0.3381
28197SOL     OW91830   5.559   2.030  12.692  0.4222 -0.1504  0.2838
28197SOL    HW191831   5.543   2.003  12.782 -3.0323  1.3287  0.2978
28197SOL    HW291832   5.505   1.971  12.639 -0.5061  1.2536 -0.4088
28198SOL     OW91833  11.870   7.920  10.137 -0.2149  0.5347  0.5269
28198SOL    HW191834  11.906   8.003  10.168 -1.6170  1.6304 -0.6307
28198SOL    HW291835  11.793   7.905  10.192 -1.5939  1.5033 -1.0274
28199SOL     OW91836   5.603  10.392   3.037 -0.0362  0.0722  0.3187
28199SOL    HW191837   5.559  10.475   3.055  0.4520  0.0402  1.7608
28199SOL    HW291838   5.695  10.410   3.057  0.2337 -0.5472 -0.3292
28200SOL     OW91839  10.411   0.280   4.881  0.3344  0.3068 -0.0615
28200SOL    HW191840  10.392   0.240   4.966 -1.3595  0.1687 -0.4787
28200SOL    HW291841  10.492   0.329   4.896  0.5245 -0.3862  1.4012
28201SOL     OW91842   2.501   3.965  11.436  0.3387 -0.9666  0.0801
28201SOL    HW191843   2.487   3.963  11.342 -0.9623 -1.9842  0.2656
28201SOL    HW291844   2.491   4.057  11.460 -2.2479 -1.0679 -0.3975
28202SOL     OW91845   7.738   6.127  10.519  0.7039  0.3037  0.2282
28202SOL    HW191846   7.660   6.155  10.472  0.3141 -0.8428  0.1616
28202SOL    HW291847   7.770   6.052  10.469  1.7341  0.6356  0.3695
28203SOL     OW91848   2.440  11.607  10.594  0.1440  0.1660  0.2601
28203SOL    HW191849   2.499  11.676  10.562  1.0754 -0.6474  0.1713
28203SOL    HW291850   2.467  11.593  10.685  0.9430 -1.0681 -0.1471
28204SOL     OW91851  11.938   9.701   5.841 -0.1279 -0.2913  0.3241
28204SOL    HW191852  11.866   9.743   5.887  0.0499  1.4090 -0.8637
28204SOL    HW291853  11.902   9.676   5.756 -0.1682 -2.4544  0.8990
28205SOL     OW91854   6.742   9.364   7.801 -0.1426 -0.1193 -0.3966
28205SOL    HW191855   6.754   9.433   7.737  1.3387  0.0945  0.0651
28205SOL    HW291856   6.714   9.288   7.750 -2.1062  0.8499 -0.8701
28206SOL     OW91857   0.360   7.397   2.900  0.6335 -0.3407 -0.1995
28206SOL    HW191858   0.276   7.356   2.879  0.5691 -0.1168 -0.3833
28206SOL    HW291859   0.426   7.337   2.864  0.5269  0.0188 -1.0269
28207SOL     OW91860   0.509  10.889   7.948 -0.2787 -0.3952  0.0118
28207SOL    HW191861   0.500  10.959   8.012  0.8085 -0.1204 -0.1075
28207SOL    HW291862   0.454  10.916   7.875 -2.0028 -0.9942  1.0191
28208SOL     OW91863   5.894   5.689  12.176 -0.0669  0.3358  0.3285
28208SOL    HW191864   5.954   5.624  12.211 -1.6759 -1.1902  0.4108
28208SOL    HW291865   5.911   5.691  12.082 -0.5027 -0.7900  0.2108
28209SOL     OW91866   8.738   4.093   2.584 -0.6304  0.1971  0.0283
28209SOL    HW191867   8.666   4.054   2.632 -2.0878  2.6258 -0.0112
28209SOL    HW291868   8.785   4.145   2.650  0.4132 -0.4621 -0.1804
28210SOL     OW91869   0.672   3.705   0.461 -0.1175  0.5627  0.5472
28210SOL    HW191870   0.670   3.769   0.532  0.7364  0.8341  0.3441
28210SOL    HW291871   0.656   3.756   0.382  3.4971  1.1402  0.0195
28211SOL     OW91872   6.935   1.270  10.465 -0.0248  0.6144  0.3407
28211SOL    HW191873   6.868   1.254  10.399 -0.3099 -1.3687  1.0416
28211SOL    HW291874   6.929   1.364  10.483  1.1587  1.6307 -3.5456
28212SOL     OW91875  12.373   2.338   7.590 -0.4726  0.3126 -0.1208
28212SOL    HW191876  12.296   2.291   7.622 -0.1245 -0.2099 -0.0393
28212SOL    HW291877  12.447   2.292   7.630 -0.1473  1.3475  0.4951
28213SOL     OW91878   5.265   3.395   1.082  0.8689  0.3323  0.7533
28213SOL    HW191879   5.179   3.434   1.070  1.6676  2.8755  2.4316
28213SOL    HW291880   5.326   3.469   1.078  3.3635 -1.5826 -2.8277
28214SOL     OW91881   0.728   1.887   2.324  0.3158  0.7060  0.0386
28214SOL    HW191882   0.676   1.863   2.400 -1.1601  1.1426 -0.7878
28214SOL    HW291883   0.770   1.806   2.297  1.1408  0.6206  1.5017
28215SOL     OW91884   0.711   4.041   5.420  0.3398  0.0403 -0.3199
28215SOL    HW191885   0.673   4.113   5.370  0.0927  0.8027  0.9116
28215SOL    HW291886   0.666   3.963   5.388 -1.0464  0.7208 -0.1200
28216SOL     OW91887  11.693   3.029   4.517  0.1845  0.2487  0.0764
28216SOL    HW191888  11.714   3.099   4.579  0.3625 -0.3275  0.6909
28216SOL    HW291889  11.758   2.961   4.536  0.8240  0.4156 -1.3836
28217SOL     OW91890   7.023   2.776   1.784 -0.0904 -0.5406 -0.4744
28217SOL    HW191891   7.008   2.703   1.724 -1.3291 -0.0891 -0.7545
28217SOL    HW291892   6.945   2.830   1.775  1.6888  1.9829 -1.8454
28218SOL     OW91893   4.543   6.148   6.151 -0.1882 -0.4128 -0.1124
28218SOL    HW191894   4.549   6.053   6.157  1.1709 -0.2965  1.1825
28218SOL    HW291895   4.527   6.166   6.059  0.4607 -1.8820 -0.5354
28219SOL     OW91896   0.517  11.797   3.517 -0.2994  0.0133 -0.2608
28219SOL    HW191897   0.455  11.763   3.452 -0.5933  1.6554 -0.9038
28219SOL    HW291898   0.585  11.840   3.465  1.4660 -1.7943  0.4332
28220SOL     OW91899   8.439   6.463   5.455 -0.2677 -0.3437  0.3037
28220SOL    HW191900   8.399   6.549   5.454 -0.3965 -0.3611 -2.4235
28220SOL    HW291901   8.515   6.470   5.397  0.3602 -1.7971  0.8717
28221SOL     OW91902   8.483   3.976   0.574 -0.5378  0.2797 -0.6493
28221SOL    HW191903   8.463   3.970   0.667  0.5639  3.6438 -0.0533
28221SOL    HW291904   8.404   4.011   0.534 -0.8834 -0.8157 -0.9624
28222SOL     OW91905   4.189   5.274   4.642 -0.3551  0.5315 -0.1821
28222SOL    HW191906   4.169   5.331   4.716 -0.0803  0.6472 -0.1972
28222SOL    HW291907   4.283   5.255   4.651 -0.5208 -0.2382  0.0506
28223SOL     OW91908   4.303  11.378   0.084 -0.0183 -0.0812  0.3358
28223SOL    HW191909   4.311  11.358   0.178 -1.5049 -2.4585  0.0551
28223SOL    HW291910   4.208  11.379   0.068  0.2189 -1.3382 -1.4156
28224SOL     OW91911  11.606  11.822   5.479 -0.1114 -0.3016  0.7868
28224SOL    HW191912  11.554  11.790   5.405  0.5174  0.0438  0.1870
28224SOL    HW291913  11.592  11.917   5.478 -0.3559 -0.3268  1.3203
28225SOL     OW91914   4.663   0.625   2.090  0.5609 -0.5159  0.0392
28225SOL    HW191915   4.730   0.560   2.112  0.8790 -0.2731 -0.1998
28225SOL    HW291916   4.677   0.645   1.998 -0.1423 -0.8030 -0.1351
28226SOL     OW91917   8.645   1.684   1.643  0.4722 -0.5226 -0.5053
28226SOL    HW191918   8.599   1.748   1.698  1.7754  0.3634 -0.4075
28226SOL    HW291919   8.681   1.736   1.572  1.3743 -1.1829 -0.5425
28227SOL     OW91920  10.155   2.868   3.163 -0.0684  0.1741 -0.1625
28227SOL    HW191921  10.158   2.860   3.258  0.9895  0.0377 -0.1920
28227SOL    HW291922  10.070   2.907   3.145  0.7200  2.6331  1.0247
28228SOL     OW91923  11.024   8.473  12.002 -0.5242 -0.0819 -0.7050
28228SOL    HW191924  10.976   8.485  12.083  0.4735  0.2010 -0.1437
28228SOL    HW291925  11.114   8.457  12.029 -0.4529 -1.5479 -1.6986
28229SOL     OW91926   6.730   0.062   6.731 -0.1535  0.2602 -0.3252
28229SOL    HW191927   6.775   0.064   6.646 -0.0690  1.6895 -0.2702
28229SOL    HW291928   6.801   0.054   6.795 -0.3033 -2.7517 -0.3994
28230SOL     OW91929   5.576   3.239  10.856 -0.0693 -0.3655  0.0641
28230SOL    HW191930   5.560   3.262  10.948 -2.2601  1.2492 -0.6502
28230SOL    HW291931   5.526   3.158  10.843  1.5114 -1.4791  0.6417
28231SOL     OW91932  11.532   8.404   5.026 -0.4684  0.0262  0.2617
28231SOL    HW191933  11.592   8.350   5.076 -1.5301 -0.0926  1.4489
28231SOL    HW291934  11.538   8.491   5.066  0.5914  0.6070 -1.0868
28232SOL     OW91935   8.379   4.108   1.573  0.0355 -0.6717  0.0551
28232SOL    HW191936   8.288   4.139   1.576 -0.0374 -0.7242 -1.0886
28232SOL    HW291937   8.373   4.019   1.537  0.6106 -0.3380 -0.8816
28233SOL     OW91938   8.194   0.386   9.500  0.0665  0.0811  0.5296
28233SOL    HW191939   8.278   0.368   9.459 -0.0058  0.2441  0.3076
28233SOL    HW291940   8.213   0.391   9.594  0.3784  0.5710  0.4395
28234SOL     OW91941  11.393   3.157   1.679 -0.2353 -0.6137 -0.0473
28234SOL    HW191942  11.311   3.110   1.696 -2.0045  2.1098 -0.4848
28234SOL    HW291943  11.367   3.248   1.666  2.2409 -0.2874 -5.1272
28235SOL     OW91944  12.320   0.960  11.798  0.6012  0.2964  0.2416
28235SOL    HW191945  12.378   0.889  11.770  1.8750  0.9844  1.0654
28235SOL    HW291946  12.309   1.014  11.720  0.4159 -0.2664 -0.1305
28236SOL     OW91947  11.945   0.667   3.394 -0.1414 -0.3074 -0.1459
28236SOL    HW191948  11.971   0.753   3.427  2.6520 -1.7507  1.7287
28236SOL    HW291949  11.858   0.651   3.432 -0.2242  1.1895  0.3382
28237SOL     OW91950   9.291   6.282   0.790  0.5056  0.1938  0.1394
28237SOL    HW191951   9.313   6.282   0.697  0.0179 -1.6347 -0.0069
28237SOL    HW291952   9.377   6.282   0.834  0.7641 -0.2192 -0.3447
28238SOL     OW91953   0.870   9.185   2.939 -0.0445  0.0023  0.1142
28238SOL    HW191954   0.801   9.229   2.889 -0.1272 -0.0779  0.1577
28238SOL    HW291955   0.847   9.202   3.031  1.2358  1.9407  0.1476
28239SOL     OW91956  11.413   3.479   6.423  0.1705 -0.3664  0.4991
28239SOL    HW191957  11.446   3.413   6.485  0.7627 -0.3226  0.2427
28239SOL    HW291958  11.477   3.550   6.429 -0.7331  0.4167  1.1478
28240SOL     OW91959  11.735   7.531   1.663  0.1850  0.2737 -0.3676
28240SOL    HW191960  11.774   7.525   1.750 -0.3743  1.3645 -0.0267
28240SOL    HW291961  11.673   7.457   1.659 -0.0960  0.4689  0.3193
28241SOL     OW91962   5.693   4.362   9.044  0.1870 -0.0585 -0.1360
28241SOL    HW191963   5.734   4.434   9.093  0.7280  0.1230 -0.8457
28241SOL    HW291964   5.767   4.313   9.007 -0.2271  0.9603 -2.4375
28242SOL     OW91965  12.023   4.798   2.423  0.1651  0.2082 -0.0829
28242SOL    HW191966  12.101   4.758   2.387 -0.3785 -0.7856 -0.1859
28242SOL    HW291967  12.055   4.859   2.490  1.0064 -0.3714  0.0472
28243SOL     OW91968   2.469   1.953   2.530  0.2511 -0.4952 -0.1538
28243SOL    HW191969   2.400   1.941   2.595  0.1003 -0.3269 -0.2797
28243SOL    HW291970   2.551   1.949   2.580  0.0941  1.1391  0.2980
28244SOL     OW91971   9.813   6.928   4.027  0.1143  0.6787  0.2871
28244SOL    HW191972   9.842   7.012   4.064 -1.7707  1.3495  0.3276
28244SOL    HW291973   9.778   6.880   4.102 -1.4833  1.0535 -0.1955
28245SOL     OW91974  10.413  12.244   2.309  0.2880 -0.2102  0.3647
28245SOL    HW191975  10.470  12.272   2.238 -0.6549 -1.4365 -0.9081
28245SOL    HW291976  10.473  12.206   2.374  1.1727  1.1342  0.3755
28246SOL     OW91977   9.787   6.804   3.798  0.2573  0.0909  0.0923
28246SOL    HW191978   9.757   6.877   3.745  1.1812 -1.0660 -2.1607
28246SOL    HW291979   9.806   6.842   3.884  0.7894  2.5013 -1.0209
28247SOL     OW91980   8.454   8.750  11.878 -0.2847 -0.0696 -0.0778
28247SOL    HW191981   8.510   8.726  11.952  0.8946  0.6446 -0.6909
28247SOL    HW291982   8.516   8.774  11.809 -1.3307  2.0444 -0.3591
28248SOL     OW91983   5.574   4.435   9.841 -0.3028 -0.7521 -0.1595
28248SOL    HW191984   5.633   4.420   9.915  1.7405  0.8915 -1.3500
28248SOL    HW291985   5.521   4.510   9.867 -0.6427 -1.1074  0.1938
28249SOL     OW91986   5.611   0.725   2.265  0.0649  0.0476  0.5246
28249SOL    HW191987   5.557   0.718   2.344 -1.0430  0.2126 -0.1983
28249SOL    HW291988   5.589   0.810   2.228  1.2228  0.3493  0.4698
28250SOL     OW91989   3.615   5.230   4.907 -0.3069 -0.2283 -0.1769
28250SOL    HW191990   3.684   5.280   4.950 -1.3492  0.8744  0.2705
28250SOL    HW291991   3.653   5.143   4.895  0.9820  0.2119  0.4923
28251SOL     OW91992   0.664  11.430   7.204  0.1783 -0.8001  0.4772
28251SOL    HW191993   0.735  11.379   7.166 -0.5048 -0.0793 -1.9343
28251SOL    HW291994   0.704  11.476   7.277  1.2737 -3.1900  1.5034
28252SOL     OW91995  11.821  11.279   6.479  0.7724 -0.3209  0.3903
28252SOL    HW191996  11.870  11.231   6.412  0.0340  0.3206 -0.6410
28252SOL    HW291997  11.849  11.239   6.562  0.0769 -2.6553 -0.4094
28253SOL     OW91998   2.191   1.021   4.953  0.4258 -0.3356  0.3371
28253SOL    HW191999   2.178   0.936   4.995 -0.7706 -0.7467 -0.8048
28253SOL    HW292000   2.196   1.001   4.860  0.3194  0.8241  0.0716
28254SOL     OW92001   8.554   3.162   9.538  0.0761  0.2865 -0.4636
28254SOL    HW192002   8.501   3.094   9.579  0.4374  0.6840  0.7018
28254SOL    HW292003   8.637   3.120   9.519 -0.4060 -0.1516 -1.6660
28255SOL     OW92004   3.472   8.165  12.186 -0.0435  0.0670 -0.2545
28255SOL    HW192005   3.426   8.112  12.121  0.1262  0.9995 -1.1588
28255SOL    HW292006   3.532   8.104  12.228 -0.1666 -0.5610 -0.9614
28256SOL     OW92007   2.407  12.131   7.899  0.1880  0.3540 -0.6415
28256SOL    HW192008   2.365  12.212   7.926  0.1072 -0.2154  1.0796
28256SOL    HW292009   2.460  12.105   7.974  1.2407 -0.5138 -1.6463
28257SOL     OW92010   4.854   2.265   6.306 -0.8011  0.2886 -0.3315
28257SOL    HW192011   4.763   2.274   6.333 -0.6188  0.3265  0.2857
28257SOL    HW292012   4.898   2.339   6.347 -0.3528 -0.1558 -0.0028
28258SOL     OW92013   8.881  11.555  11.195 -0.4725  0.2484  0.1426
28258SOL    HW192014   8.971  11.530  11.216 -0.8068 -1.2342 -0.1031
28258SOL    HW292015   8.829  11.524  11.269 -0.8284  0.7800  0.1190
28259SOL     OW92016  11.939   5.513   0.312  0.0219 -0.7536 -0.4192
28259SOL    HW192017  11.908   5.450   0.247  1.0844 -1.2939 -0.4256
28259SOL    HW292018  11.948   5.595   0.264 -1.6859 -0.4922 -0.3382
28260SOL     OW92019   8.363   3.853  10.683 -0.1250  0.0202 -0.2295
28260SOL    HW192020   8.321   3.805  10.754 -0.0404  0.6816  0.2702
28260SOL    HW292021   8.327   3.941  10.688  0.4901  0.2913 -0.4954
28261SOL     OW92022  11.390   4.053  12.536  0.9084 -1.0412 -0.0833
28261SOL    HW192023  11.456   4.015  12.480  1.6904  1.5472 -1.0702
28261SOL    HW292024  11.404   4.012  12.622  0.8889 -3.6981 -1.2729
28262SOL     OW92025   7.885   3.681  11.871 -0.0621  0.4078 -0.0004
28262SOL    HW192026   7.837   3.632  11.939  0.7831  1.5719  1.4886
28262SOL    HW292027   7.965   3.630  11.857 -0.8116 -0.5360 -1.1416
28263SOL     OW92028  11.735  12.284   2.659 -0.2556 -0.6454 -0.2712
28263SOL    HW192029  11.823  12.247   2.651 -0.7049 -1.7276 -0.3820
28263SOL    HW292030  11.688  12.223   2.717 -0.5044  0.7236  1.0066
28264SOL     OW92031   2.064  12.593   8.539  0.1071  0.1041  0.6841
28264SOL    HW192032   2.064  12.681   8.575  1.2430  0.0031  0.9488
28264SOL    HW292033   1.973  12.579   8.509 -0.4719  0.7496  2.0914
28265SOL     OW92034   1.023  11.229   8.637  0.6173  0.4531  0.1991
28265SOL    HW192035   1.064  11.311   8.666  1.9067 -0.3385  0.7424
28265SOL    HW292036   1.089  11.162   8.655 -0.2267 -0.6544 -0.6612
28266SOL     OW92037   6.969   8.753   8.817 -0.5153  0.3146  0.3276
28266SOL    HW192038   6.942   8.703   8.894  0.8848 -0.7827  0.1464
28266SOL    HW292039   7.033   8.815   8.851  1.2513 -1.1799 -0.1195
28267SOL     OW92040   2.838   4.783   0.852 -0.0692  0.0157 -0.7080
28267SOL    HW192041   2.871   4.700   0.816  1.7951  0.2631  0.3295
28267SOL    HW292042   2.900   4.806   0.921 -1.3665  1.5572  0.0059
28268SOL     OW92043  11.269   1.229   1.392 -0.3069  0.6325  0.1507
28268SOL    HW192044  11.337   1.248   1.457 -0.1458  0.0999  0.1417
28268SOL    HW292045  11.313   1.172   1.328 -1.0233 -0.5191  0.6639
28269SOL     OW92046   6.517  12.231  10.238 -0.3057  0.1850 -0.0672
28269SOL    HW192047   6.555  12.307  10.283  0.2338 -0.1812  0.0973
28269SOL    HW292048   6.538  12.157  10.295  3.5414 -0.8897 -2.5445
28270SOL     OW92049   0.545   6.676   5.228  0.3088  0.4337  0.3338
28270SOL    HW192050   0.501   6.702   5.309  1.3978  0.8435  0.8138
28270SOL    HW292051   0.479   6.691   5.160 -1.2590 -1.5909  1.2804
28271SOL     OW92052   6.068  11.267   9.023 -0.1064 -0.7936 -0.6819
28271SOL    HW192053   6.111  11.353   9.027 -0.9737 -0.2476 -2.4768
28271SOL    HW292054   5.977  11.286   9.001 -0.1212 -2.2168 -1.9892
28272SOL     OW92055   6.953  11.292   3.505  0.0938 -0.0795  0.6359
28272SOL    HW192056   7.001  11.350   3.563 -0.9509 -0.3145  1.7834
28272SOL    HW292057   6.977  11.204   3.535 -1.4120 -0.2065  1.6058
28273SOL     OW92058   5.405  11.813   3.671 -0.2585  0.2201  0.5357
28273SOL    HW192059   5.352  11.781   3.744 -0.1907 -0.5396  0.2598
28273SOL    HW292060   5.375  11.903   3.658 -1.6336 -0.2519  0.2551
28274SOL     OW92061   2.067   5.929  10.585  0.0870 -0.3578 -0.2324
28274SOL    HW192062   2.074   5.853  10.643 -0.5680 -0.1502  0.1172
28274SOL    HW292063   2.143   5.983  10.607  0.1330 -0.5390  0.0608
28275SOL     OW92064   0.671   2.627   3.219  0.6402  0.3028 -0.1698
28275SOL    HW192065   0.683   2.542   3.261 -1.2676 -0.2837 -0.7177
28275SOL    HW292066   0.636   2.683   3.289  0.5799  0.2400 -0.1492
28276SOL     OW92067  10.255  12.091  11.945 -0.0784 -0.0081 -0.5539
28276SOL    HW192068  10.264  12.081  11.851 -2.0240  1.5199 -0.9598
28276SOL    HW292069  10.292  12.177  11.964 -0.4319  0.0377 -0.0383
28277SOL     OW92070   5.289   9.220   4.262  0.5790  0.0860  0.1072
28277SOL    HW192071   5.233   9.253   4.192  0.9875 -0.3242 -0.4224
28277SOL    HW292072   5.266   9.274   4.338  0.1799  0.5871 -0.3550
28278SOL     OW92073   0.109  12.235   3.759 -0.5678 -0.2253 -0.7555
28278SOL    HW192074   0.111  12.234   3.663 -0.1813  3.1612 -0.9161
28278SOL    HW292075   0.201  12.225   3.784 -0.2033  2.0297 -0.9706
28279SOL     OW92076   6.642  10.294   5.251 -0.2563 -0.1644 -0.1815
28279SOL    HW192077   6.718  10.237   5.258 -0.8928 -0.8717  1.6677
28279SOL    HW292078   6.650  10.355   5.324 -1.3586 -0.1315 -0.0621
28280SOL     OW92079   3.227   1.943   2.367  0.2486  0.5563 -0.2239
28280SOL    HW192080   3.287   1.973   2.298  2.3109 -1.1657  0.7022
28280SOL    HW292081   3.285   1.915   2.438 -1.5013 -3.0276  0.0161
28281SOL     OW92082   4.694   0.856   1.692  0.4197 -0.6615  0.2670
28281SOL    HW192083   4.721   0.778   1.741  0.6868  0.1310  1.4272
28281SOL    HW292084   4.617   0.888   1.739  0.4341 -0.1169 -0.0734
28282SOL     OW92085   6.305   1.461   4.916  0.1042  0.1409 -0.5275
28282SOL    HW192086   6.212   1.468   4.936 -0.0483 -0.3305 -1.0461
28282SOL    HW292087   6.317   1.371   4.885  0.6753  0.2861 -0.7511
28283SOL     OW92088   9.226   9.080   0.063  0.1824 -0.1175  0.1111
28283SOL    HW192089   9.253   9.015   0.128  0.4531  1.3198  1.4975
28283SOL    HW292090   9.164   9.136   0.108  0.5932  1.1020 -0.7604
28284SOL     OW92091   5.167   0.714   4.773  0.1963 -0.0004  0.2551
28284SOL    HW192092   5.147   0.791   4.720 -0.8725 -0.5106 -0.1026
28284SOL    HW292093   5.194   0.648   4.709  0.6142 -0.0806  0.5134
28285SOL     OW92094   0.074   9.167   2.606  0.1542 -0.3717 -0.0573
28285SOL    HW192095   0.117   9.186   2.523 -0.8000  0.6563 -0.3448
28285SOL    HW292096   0.094   9.075   2.623  4.0196  0.4612  0.7899
28286SOL     OW92097   2.764   7.511   8.398 -0.0552 -0.3038  0.1231
28286SOL    HW192098   2.832   7.565   8.359 -0.8039  0.0743 -0.6940
28286SOL    HW292099   2.709   7.485   8.325 -0.3053 -1.3237  0.6500
28287SOL     OW92100  10.128  11.440   8.974 -0.0721  0.2113 -0.3283
28287SOL    HW192101  10.043  11.456   9.016 -0.4385 -1.5083 -0.3534
28287SOL    HW292102  10.111  11.371   8.910  0.9957  1.0935 -1.6051
28288SOL     OW92103   4.684   0.280  10.313 -0.4444 -0.1422 -0.2395
28288SOL    HW192104   4.626   0.269  10.388  0.3948 -0.2609  0.3980
28288SOL    HW292105   4.772   0.272  10.348 -0.0042  0.6803 -1.0899
28289SOL     OW92106   8.746   2.326   4.851  0.6047  0.4367  0.2515
28289SOL    HW192107   8.670   2.279   4.815  1.7129 -0.6839 -0.7250
28289SOL    HW292108   8.805   2.257   4.881  1.0036  1.3118  1.5613
28290SOL     OW92109   7.888   5.045   6.782 -0.3303 -0.0620 -0.3670
28290SOL    HW192110   7.933   5.126   6.757  0.8320 -0.3681  0.6539
28290SOL    HW292111   7.825   5.073   6.849  0.3723 -0.0442  0.3026
28291SOL     OW92112   4.349   8.212   6.660 -0.1312  0.1010 -0.8477
28291SOL    HW192113   4.444   8.204   6.661 -0.0197  1.3064 -0.0128
28291SOL    HW292114   4.331   8.295   6.704 -1.5115  0.5166 -2.0992
28292SOL     OW92115   6.932   8.109   6.522  0.5774  0.0506 -0.3804
28292SOL    HW192116   6.938   8.140   6.432 -1.7737  2.4246  0.1714
28292SOL    HW292117   6.894   8.021   6.514  1.4725 -0.2538 -1.7067
28293SOL     OW92118   3.943   5.273  11.937  0.1607 -0.0817  0.0739
28293SOL    HW192119   3.944   5.368  11.937  1.7033 -0.0727 -0.7673
28293SOL    HW292120   4.032   5.248  11.913  0.6914 -1.7510  3.2349
28294SOL     OW92121   8.415   4.420   7.938 -0.4603  0.7955 -0.8977
28294SOL    HW192122   8.402   4.486   8.007  0.7366  0.5099 -0.3821
28294SOL    HW292123   8.509   4.403   7.938 -0.8982 -2.4403  0.4672
28295SOL     OW92124  11.294  10.680   8.876 -0.4016  0.7175  0.1803
28295SOL    HW192125  11.383  10.688   8.840 -0.2685 -0.0514  0.3188
28295SOL    HW292126  11.307  10.647   8.965 -0.8730 -0.7735 -0.2736
28296SOL     OW92127   2.931   2.135   2.238  0.0969  0.2911 -0.1201
28296SOL    HW192128   2.916   2.049   2.199 -0.0214  0.6408 -0.8830
28296SOL    HW292129   2.912   2.124   2.331 -1.0217 -0.2296 -0.3928
28297SOL     OW92130   1.695   7.958  12.097  0.4401  0.0036  0.1798
28297SOL    HW192131   1.756   7.920  12.160 -2.6521 -3.5858  1.4226
28297SOL    HW292132   1.723   7.923  12.013  1.6884  0.7505  0.2586
28298SOL     OW92133   6.451  11.255  12.219 -0.2170  0.1157 -0.1827
28298SOL    HW192134   6.515  11.187  12.195 -0.5163  0.5246 -2.4305
28298SOL    HW292135   6.504  11.334  12.230 -0.0882 -0.0376  0.2938
28299SOL     OW92136   5.474   7.923   4.486 -0.2444 -0.1342  0.3234
28299SOL    HW192137   5.540   7.987   4.513  1.8428 -0.9634 -2.3058
28299SOL    HW292138   5.438   7.958   4.405 -1.5272 -0.7092  0.6236
28300SOL     OW92139   8.017   6.210   6.212 -0.1366 -0.5847  0.3669
28300SOL    HW192140   8.111   6.199   6.220  0.3342  1.6346 -1.1884
28300SOL    HW292141   8.002   6.234   6.121 -2.2160 -0.9512  0.5512
28301SOL     OW92142   3.821   8.945   3.878 -0.2913  0.3478 -0.0880
28301SOL    HW192143   3.763   8.880   3.838 -1.3771  1.0829  0.2332
28301SOL    HW292144   3.850   8.904   3.960 -0.5299  0.0589 -0.1468
28302SOL     OW92145  12.384   2.702   3.046  0.1104  0.2782 -0.4679
28302SOL    HW192146  12.372   2.621   2.996 -0.1627 -0.6888  1.0982
28302SOL    HW292147  12.419   2.673   3.131  1.0091  1.9018 -0.2361
28303SOL     OW92148   5.084   1.608  11.068  0.0819 -0.4583 -0.0141
28303SOL    HW192149   4.993   1.580  11.075  0.1400 -1.1878 -1.7662
28303SOL    HW292150   5.080   1.697  11.035 -0.0306 -1.2197 -2.2444
28304SOL     OW92151  10.980   0.718  12.660 -0.0649 -0.4273  0.1700
28304SOL    HW192152  10.999   0.810  12.680 -0.3021 -0.1448 -0.8299
28304SOL    HW292153  11.047   0.692  12.598 -0.8780 -0.4550 -0.7265
28305SOL     OW92154  12.531   9.113  12.682  0.3152 -0.1309  0.2386
28305SOL    HW192155  12.545   9.095  12.589 -0.8075  2.9447 -0.6451
28305SOL    HW292156  12.455   9.060  12.705 -0.6281  0.5451 -1.1791
28306SOL     OW92157   3.982   2.475   3.821 -0.2588  0.1588 -1.3099
28306SOL    HW192158   3.979   2.385   3.852  1.2260  0.2971 -0.6646
28306SOL    HW292159   4.012   2.526   3.896  0.4482  0.9424 -2.0854
28307SOL     OW92160  11.499   3.056   4.031  0.1734  0.0225 -0.4053
28307SOL    HW192161  11.488   2.961   4.026  0.7143 -0.2500  2.1957
28307SOL    HW292162  11.449   3.089   3.957 -1.9134 -2.1749 -0.1275
28308SOL     OW92163   9.267   4.278   4.032 -0.1264 -0.1849 -0.1511
28308SOL    HW192164   9.275   4.243   3.943 -1.5536  2.3685 -1.3846
28308SOL    HW292165   9.172   4.278   4.048  0.1097 -0.5213  1.3784
28309SOL     OW92166   3.334   0.444   9.330 -0.1219 -0.2175 -0.2108
28309SOL    HW192167   3.245   0.419   9.304 -0.1979 -0.1774  0.0080
28309SOL    HW292168   3.357   0.381   9.399  0.0020 -0.2010 -0.2380
28310SOL     OW92169  11.349  11.667   1.846  0.8819  0.4553 -0.2814
28310SOL    HW192170  11.346  11.685   1.752 -0.4744  0.9405 -0.1667
28310SOL    HW292171  11.400  11.740   1.883  1.1632  0.4206 -0.5969
28311SOL     OW92172  11.760   6.601   0.852 -0.1229  0.0524 -0.4023
28311SOL    HW192173  11.834   6.607   0.792 -0.9345  0.9776 -1.3536
28311SOL    HW292174  11.791   6.544   0.923  1.6915  0.8902 -0.4634
28312SOL     OW92175   7.141  11.458  10.538 -0.1292 -0.0673  0.5734
28312SOL    HW192176   7.196  11.528  10.576  0.8935 -0.4289 -0.1932
28312SOL    HW292177   7.091  11.425  10.612 -0.8222  1.6416  0.9053
28313SOL     OW92178   8.534   9.596   3.425 -0.0800 -0.1255 -0.1687
28313SOL    HW192179   8.533   9.681   3.380  1.3478 -0.8516 -1.6859
28313SOL    HW292180   8.472   9.607   3.497  0.2352  2.2807 -0.1566
28314SOL     OW92181   2.264   2.031   8.722  0.0164 -0.4143  0.0104
28314SOL    HW192182   2.351   1.991   8.720  0.9683  1.3745  1.5014
28314SOL    HW292183   2.244   2.039   8.816 -1.0434  0.6187 -0.2734
28315SOL     OW92184   9.774   9.222   7.742  0.4121 -0.5787  0.4324
28315SOL    HW192185   9.698   9.217   7.684 -0.2914 -0.5503  1.3434
28315SOL    HW292186   9.776   9.138   7.788  1.1010 -0.6913  0.2167
28316SOL     OW92187   0.552   3.529   2.916  0.5623 -0.0311  0.2202
28316SOL    HW192188   0.589   3.546   3.002 -0.0484 -0.5939  0.6106
28316SOL    HW292189   0.470   3.578   2.915  1.6736  1.9023 -0.9586
28317SOL     OW92190   2.225   9.364   8.999  0.5243  0.2535 -0.1550
28317SOL    HW192191   2.219   9.459   9.004  1.1992  0.3521 -1.0270
28317SOL    HW292192   2.272   9.347   8.918 -1.1131 -0.8815 -0.9262
28318SOL     OW92193   3.396   7.354   0.887 -0.1391  0.2581  0.2855
28318SOL    HW192194   3.316   7.382   0.932 -0.7426 -0.2457 -0.4362
28318SOL    HW292195   3.401   7.260   0.905  0.3532  0.3126  0.4232
28319SOL     OW92196   2.258   2.926   4.094 -0.1219 -0.6172 -0.2287
28319SOL    HW192197   2.200   2.858   4.129 -0.6272  0.9487  2.2434
28319SOL    HW292198   2.340   2.914   4.141  0.1511 -0.1938 -0.5879
28320SOL     OW92199   5.208   0.944   2.256 -0.5114 -0.2309 -0.1316
28320SOL    HW192200   5.169   0.866   2.295 -1.1966 -0.1927 -0.7174
28320SOL    HW292201   5.166   1.017   2.301  1.4627 -0.1613  1.7266
28321SOL     OW92202   3.668   2.648   0.973  0.1081 -0.5752 -0.0601
28321SOL    HW192203   3.689   2.688   0.888 -2.2883 -0.5701 -0.7316
28321SOL    HW292204   3.621   2.568   0.949  0.7848 -1.4097  1.3014
28322SOL     OW92205  11.353   0.872   1.370 -0.1799  0.1675  0.2263
28322SOL    HW192206  11.417   0.880   1.299 -1.5830  0.7619 -1.0298
28322SOL    HW292207  11.296   0.948   1.360  0.9372  1.6223  3.4732
28323SOL     OW92208   2.038   9.713   5.299 -0.3564 -0.8610 -0.3862
28323SOL    HW192209   1.989   9.724   5.381 -0.3060 -1.0166 -0.3337
28323SOL    HW292210   2.037   9.618   5.284  0.0979 -0.8817 -0.2827
28324SOL     OW92211   0.613  10.099  10.465  0.4734 -0.7732 -0.1831
28324SOL    HW192212   0.548  10.162  10.495  0.7118 -1.4301  1.8286
28324SOL    HW292213   0.581  10.014  10.495  0.8217 -1.4780 -1.7085
28325SOL     OW92214   0.290  10.775  10.763 -0.4346  0.2179 -0.2099
28325SOL    HW192215   0.270  10.764  10.856  0.5629 -0.4167 -0.0493
28325SOL    HW292216   0.206  10.797  10.723 -1.3179 -1.6875  0.4969
28326SOL     OW92217   0.405   3.475   5.147 -0.4295 -0.2909  0.1054
28326SOL    HW192218   0.482   3.474   5.090 -0.9101  0.6178 -0.5956
28326SOL    HW292219   0.341   3.527   5.099 -1.1176 -0.1378  1.1570
28327SOL     OW92220   5.751  11.768   5.402 -0.1733 -0.3417 -0.2066
28327SOL    HW192221   5.762  11.843   5.460  0.5173 -0.8583  0.3545
28327SOL    HW292222   5.797  11.793   5.321 -0.0529 -0.1055 -0.0650
28328SOL     OW92223  11.010  11.770  11.930  0.1314 -0.1495  0.4330
28328SOL    HW192224  10.991  11.834  11.998  1.2816  0.2898  0.3532
28328SOL    HW292225  10.927  11.760  11.883 -0.8732 -0.9221  2.2569
28329SOL     OW92226   4.886   2.054   0.045  0.2604  0.0873  0.3011
28329SOL    HW192227   4.901   2.067   0.138  0.1111  1.9352  0.1046
28329SOL    HW292228   4.909   2.138   0.005  0.3598 -0.6767 -1.3307
28330SOL     OW92229  11.211   3.879   1.649 -0.2279 -0.0528  0.3537
28330SOL    HW192230  11.171   3.886   1.736  1.6128  1.3354  1.1448
28330SOL    HW292231  11.264   3.958   1.640  0.9734 -0.9856 -1.3359
28331SOL     OW92232   4.002   5.091   6.611  0.5178 -0.7219  0.3291
28331SOL    HW192233   3.989   5.101   6.705 -0.0126 -0.7290  0.2589
28331SOL    HW292234   3.967   5.004   6.591 -0.4337 -0.2686 -0.0600
28332SOL     OW92235  12.043   4.440   6.878 -0.7298  0.4313  0.0903
28332SOL    HW192236  12.106   4.470   6.943  0.7634 -0.9558 -0.6333
28332SOL    HW292237  12.043   4.508   6.810  1.0326 -0.1380 -0.5317
28333SOL     OW92238   0.686   6.121  12.165  0.4105 -0.5099 -0.0815
28333SOL    HW192239   0.749   6.185  12.199  0.2762  0.4752 -1.5968
28333SOL    HW292240   0.686   6.135  12.071 -1.8032 -0.7280 -0.1709
28334SOL     OW92241   2.443   9.051   7.023 -0.1399 -0.5472  0.0114
28334SOL    HW192242   2.502   9.126   7.026  1.4049 -1.5880 -1.8705
28334SOL    HW292243   2.389   9.066   6.945 -0.5603 -0.8962  0.2304
28335SOL     OW92244  11.595   5.290  12.262  0.2508 -0.0180  0.8888
28335SOL    HW192245  11.591   5.265  12.170  1.4846 -1.3978  1.1829
28335SOL    HW292246  11.552   5.218  12.309 -2.7130  1.8347  1.2755
28336SOL     OW92247   7.921   6.849   6.630  0.1975 -0.1227 -0.4377
28336SOL    HW192248   8.001   6.813   6.670  0.4336 -0.9605 -1.6002
28336SOL    HW292249   7.930   6.829   6.537 -1.2291  0.0571 -0.6341
28337SOL     OW92250   9.571   3.294   5.404 -0.3628 -0.2512  0.6935
28337SOL    HW192251   9.628   3.325   5.474  0.1582  1.8609 -0.5604
28337SOL    HW292252   9.629   3.283   5.329 -1.0097 -1.8662  0.4011
28338SOL     OW92253   1.235   2.201  10.383 -0.1124 -0.3088 -0.2654
28338SOL    HW192254   1.190   2.188  10.467  0.2405  0.0699 -0.0081
28338SOL    HW292255   1.326   2.175  10.402 -0.2380 -1.1710 -0.8048
28339SOL     OW92256  11.483   7.083   5.075  0.4286 -0.4133 -0.1777
28339SOL    HW192257  11.433   7.008   5.107 -0.5908  0.3386  0.0246
28339SOL    HW292258  11.484   7.072   4.980  0.0602 -0.5501 -0.1683
28340SOL     OW92259   8.398   6.248   2.167 -0.8616  0.4068 -0.3348
28340SOL    HW192260   8.479   6.257   2.115 -0.4968  1.2460  0.3485
28340SOL    HW292261   8.428   6.212   2.251 -0.9237  2.2444  0.5255
28341SOL     OW92262   1.602   6.634   8.055  0.2621  0.4363 -0.2350
28341SOL    HW192263   1.570   6.724   8.060  3.0952  1.4934  0.7854
28341SOL    HW292264   1.604   6.604   8.146 -0.7385 -0.7474 -0.5745
28342SOL     OW92265  11.962   1.765  10.795 -1.1635  0.4376  0.4982
28342SOL    HW192266  11.968   1.723  10.880 -0.5669  0.1482  0.3222
28342SOL    HW292267  11.987   1.696  10.733 -2.5253  0.3491 -0.0012
28343SOL     OW92268   6.244   6.216  10.385  0.2556 -0.1920 -0.7122
28343SOL    HW192269   6.256   6.201  10.479 -1.9438  1.5074 -0.0649
28343SOL    HW292270   6.235   6.311  10.377  1.0583 -0.2387 -2.7675
28344SOL     OW92271   4.893   6.548   4.292  0.0813  0.4337 -0.4608
28344SOL    HW192272   4.915   6.641   4.281  0.4112  0.3039 -0.9179
28344SOL    HW292273   4.977   6.503   4.284  0.1365  0.1908  1.0862
28345SOL     OW92274   3.024   2.570   4.759  0.4090  0.1153 -0.6156
28345SOL    HW192275   3.099   2.553   4.701 -0.5384  1.6359 -2.4078
28345SOL    HW292276   2.993   2.657   4.733 -2.1926 -0.6020 -0.1806
28346SOL     OW92277  12.522   0.624   7.277 -0.1248  0.3191  0.2070
28346SOL    HW192278  12.616   0.642   7.288 -0.1942  0.4158  0.6441
28346SOL    HW292279  12.517   0.530   7.265 -0.1840 -0.0240  2.5792
28347SOL     OW92280   2.906   4.794   4.781  0.3520  0.4141  0.1745
28347SOL    HW192281   2.906   4.886   4.755 -0.0394  0.5562  0.6514
28347SOL    HW292282   2.842   4.752   4.723 -1.4052  0.9544  1.5954
28348SOL     OW92283   2.137   0.723   8.785  0.3476 -0.4214  0.0799
28348SOL    HW192284   2.181   0.638   8.795 -3.2721 -2.5536 -0.4175
28348SOL    HW292285   2.139   0.761   8.872 -1.1408 -2.8157  1.2582
28349SOL     OW92286   3.659   0.757   8.146 -0.2278 -0.4281  0.2486
28349SOL    HW192287   3.594   0.726   8.210 -0.4293  1.0672  0.8183
28349SOL    HW292288   3.665   0.851   8.162  1.1410 -0.3289 -0.6784
28350SOL     OW92289   8.546   2.719   2.831 -0.7546  1.2187 -0.0251
28350SOL    HW192290   8.595   2.795   2.798  1.6932  0.3564  1.3705
28350SOL    HW292291   8.555   2.725   2.926  2.7914 -2.6511  0.1621
28351SOL     OW92292   1.874   4.890   1.842 -0.2751  0.2579 -0.0889
28351SOL    HW192293   1.935   4.960   1.818  2.3625 -1.4064  1.2946
28351SOL    HW292294   1.907   4.812   1.798 -1.9308 -0.5655  0.0422
28352SOL     OW92295   6.851   4.896   4.551 -0.0309 -0.1433  0.0398
28352SOL    HW192296   6.903   4.959   4.601  0.0419 -0.0972 -0.0949
28352SOL    HW292297   6.909   4.820   4.539 -0.0184 -0.1198 -0.0509
28353SOL     OW92298   3.231   3.875   8.780  0.1997  0.5166 -0.0186
28353SOL    HW192299   3.294   3.809   8.750 -1.1829 -0.4867 -0.8558
28353SOL    HW292300   3.171   3.826   8.838 -0.9583  0.9657 -0.8028
28354SOL     OW92301   5.087  10.867   8.426  0.3108 -0.5913  0.4003
28354SOL    HW192302   5.069  10.773   8.437  2.4554 -0.9989  0.7852
28354SOL    HW292303   5.026  10.909   8.487  0.3496 -1.8438  1.3562
28355SOL     OW92304   9.545  12.553   6.758 -0.0923  0.0924  0.1024
28355SOL    HW192305   9.501  12.470   6.779  0.2591 -0.1059  0.0644
28355SOL    HW292306   9.494  12.590   6.686  0.7218 -0.9043 -1.0163
28356SOL     OW92307   6.611   8.870   8.906 -0.6367  0.5761 -0.3902
28356SOL    HW192308   6.670   8.906   8.839 -0.0754 -0.6430 -0.5796
28356SOL    HW292309   6.581   8.947   8.955 -0.4576  1.4150 -1.5553
28357SOL     OW92310  11.887   6.822  11.033 -0.5457 -0.5754 -0.5490
28357SOL    HW192311  11.839   6.881  10.973 -1.6703 -0.9614 -0.0592
28357SOL    HW292312  11.888   6.869  11.116 -1.3830 -1.2012 -0.1740
28358SOL     OW92313   1.651   2.741  10.440  0.3404  0.5409  0.1870
28358SOL    HW192314   1.586   2.688  10.487  0.5738 -0.3036 -0.4081
28358SOL    HW292315   1.606   2.823  10.420 -0.2220  0.3474  0.6285
28359SOL     OW92316  11.281   7.989   5.520  0.0558 -0.8118 -0.2119
28359SOL    HW192317  11.281   7.984   5.615 -0.1850  1.6881 -0.0035
28359SOL    HW292318  11.190   7.975   5.495  0.0900 -1.3071 -0.0587
28360SOL     OW92319  11.667  11.845   8.515 -0.2875  0.0099 -0.2949
28360SOL    HW192320  11.613  11.830   8.438 -0.0957 -0.3238 -0.3649
28360SOL    HW292321  11.751  11.874   8.481 -0.5178  0.8529 -0.1749
28361SOL     OW92322   0.282  11.091  10.052 -0.2119  0.0847 -0.4552
28361SOL    HW192323   0.279  11.036   9.974  1.1683  1.9371 -1.9126
28361SOL    HW292324   0.219  11.161  10.035  0.7870  1.0377 -0.3806
28362SOL     OW92325   1.128   6.851   1.141 -0.1352 -0.0861 -0.3774
28362SOL    HW192326   1.078   6.903   1.078  0.1633  1.0567  0.3002
28362SOL    HW292327   1.074   6.772   1.154 -0.9850  0.3977 -0.8416
28363SOL     OW92328   7.672  12.216   7.918 -0.0768  0.4805  0.1887
28363SOL    HW192329   7.727  12.289   7.945 -0.6065  0.7530  0.5657
28363SOL    HW292330   7.636  12.182   8.000 -0.2984  0.1749 -0.0336
28364SOL     OW92331   9.924   3.542   5.196 -0.2476  0.0179 -0.1007
28364SOL    HW192332   9.965   3.581   5.119 -0.0479  0.7370  0.3546
28364SOL    HW292333   9.837   3.582   5.199 -0.4816 -0.4622 -0.2814
28365SOL     OW92334   7.291   5.821   5.410  0.9612 -0.3526  0.1170
28365SOL    HW192335   7.325   5.910   5.424  0.2395 -0.2987  1.7920
28365SOL    HW292336   7.309   5.803   5.318  0.0155  2.0286 -0.6315
28366SOL     OW92337   6.445   0.572  11.244  0.0354  0.3877 -0.2463
28366SOL    HW192338   6.412   0.507  11.306 -0.2748 -0.2728 -1.0843
28366SOL    HW292339   6.490   0.637  11.298 -0.7156  0.1204  0.7097
28367SOL     OW92340   7.798   2.370  10.152 -0.5033  0.5487 -0.7609
28367SOL    HW192341   7.893   2.363  10.158 -0.4650  0.6485 -1.2671
28367SOL    HW292342   7.774   2.429  10.224 -0.2731 -0.1529 -0.0953
28368SOL     OW92343   3.764   6.256   1.329 -0.7637 -0.4963 -0.3648
28368SOL    HW192344   3.819   6.179   1.317 -2.8706 -2.0025 -1.1624
28368SOL    HW292345   3.806   6.325   1.277  0.7168 -1.3320 -0.3281
28369SOL     OW92346   5.997   3.689   4.756 -0.2879  0.7309  0.3685
28369SOL    HW192347   5.973   3.730   4.839  1.2634  0.3520  1.0375
28369SOL    HW292348   6.044   3.758   4.708  2.8066 -0.2495  1.7145
28370SOL     OW92349  11.400   9.796   8.252  0.4140 -0.3417 -0.4333
28370SOL    HW192350  11.465   9.751   8.198  1.1936  1.2239 -0.8568
28370SOL    HW292351  11.448   9.822   8.331 -0.0037 -0.1634 -0.2315
28371SOL     OW92352  10.136   0.438   6.451 -0.2314  0.4027 -0.3479
28371SOL    HW192353  10.122   0.480   6.535 -0.7661 -0.2028 -0.1273
28371SOL    HW292354  10.073   0.365   6.449  0.3214 -0.0771 -0.9266
28372SOL     OW92355   5.112   9.256   9.937  0.0951 -0.4976  0.0584
28372SOL    HW192356   5.039   9.231   9.879 -0.0240 -1.3604  0.5579
28372SOL    HW292357   5.181   9.193   9.915 -0.2984 -1.4982  1.5320
28373SOL     OW92358   7.459  10.448   5.895  0.0422  0.0988  0.0467
28373SOL    HW192359   7.405  10.433   5.818  0.8735 -0.6681 -0.4071
28373SOL    HW292360   7.490  10.361   5.920  1.4177  0.5535  0.0130
28374SOL     OW92361   5.685   1.952   1.447  0.2348 -0.7874  0.4827
28374SOL    HW192362   5.610   1.996   1.406  1.1960  1.6140  1.0891
28374SOL    HW292363   5.751   1.948   1.378  0.4765 -0.3708  0.6837
28375SOL     OW92364   3.006   6.478   7.389 -0.2835  0.5379  0.4189
28375SOL    HW192365   2.918   6.496   7.355 -0.0686  0.4145 -0.2167
28375SOL    HW292366   3.005   6.385   7.410 -1.0453  1.0056  2.6639
28376SOL     OW92367   8.860   2.006   1.462 -0.2039  0.3545 -0.0095
28376SOL    HW192368   8.859   1.984   1.555  0.0521  2.0261  0.4246
28376SOL    HW292369   8.820   2.093   1.457  0.2650  0.5290 -1.4007
28377SOL     OW92370   9.514   2.275   8.255  0.5332  0.4574 -0.3420
28377SOL    HW192371   9.575   2.218   8.207  0.8581 -0.5911  1.2244
28377SOL    HW292372   9.555   2.285   8.341 -1.3080  0.0465  0.6192
28378SOL     OW92373   5.144  10.155  11.087  0.0404  0.2318  0.0974
28378SOL    HW192374   5.094  10.216  11.141 -1.1663 -0.6180 -0.0037
28378SOL    HW292375   5.087  10.137  11.012  0.7793 -0.2780 -0.3588
28379SOL     OW92376   6.038   9.880   2.037  0.3700 -0.7652  0.0270
28379SOL    HW192377   5.944   9.864   2.022 -0.3792 -0.3305  3.5131
28379SOL    HW292378   6.049   9.973   2.020 -0.0077 -0.6483  0.4274
28380SOL     OW92379   9.816   3.795  12.396 -0.1166  0.7428  0.1320
28380SOL    HW192380   9.824   3.874  12.342 -2.1706 -0.0095 -1.4308
28380SOL    HW292381   9.725   3.796  12.426  0.3174 -0.1554  1.5667
28381SOL     OW92382   9.451  11.189   5.459 -0.4775 -0.4267 -0.0910
28381SOL    HW192383   9.544  11.176   5.481 -0.8055 -1.0366  1.0337
28381SOL    HW292384   9.432  11.123   5.392 -0.3270 -0.9354  0.3608
28382SOL     OW92385   7.475   7.089   5.311 -0.3594 -0.4487 -0.5709
28382SOL    HW192386   7.562   7.062   5.282  0.6298  1.0070  0.8778
28382SOL    HW292387   7.435   7.131   5.234  1.0190  0.6561 -0.7196
28383SOL     OW92388   7.876   5.236   8.553 -0.2422 -0.5332  0.3086
28383SOL    HW192389   7.913   5.221   8.466  1.1218  0.2428  0.7194
28383SOL    HW292390   7.834   5.322   8.547 -1.6797 -1.2349 -0.0417
28384SOL     OW92391  11.202  12.443   5.095  0.1494 -0.9503 -0.1466
28384SOL    HW192392  11.171  12.483   5.014 -1.5042  1.5180  1.5690
28384SOL    HW292393  11.297  12.437   5.085 -0.0616 -1.2019 -2.4333
28385SOL     OW92394   9.674   6.368   9.611  0.2252 -0.3168  0.0436
28385SOL    HW192395   9.695   6.462   9.613  0.1076 -0.3034  1.1439
28385SOL    HW292396   9.603   6.361   9.547  0.6678  0.2474 -0.5282
28386SOL     OW92397   9.780   9.786   8.693 -0.1966 -0.5787  0.0232
28386SOL    HW192398   9.838   9.710   8.702 -1.4691 -1.6975 -0.6621
28386SOL    HW292399   9.721   9.780   8.768 -0.0016  0.0051  0.2191
28387SOL     OW92400   8.545   9.637   0.613 -0.2578 -0.0796 -0.2992
28387SOL    HW192401   8.523   9.559   0.562 -1.1352  0.8944 -1.4831
28387SOL    HW292402   8.640   9.645   0.606 -0.3663  0.0462 -1.8367
28388SOL     OW92403  10.644   4.588   7.470 -0.2033 -0.1898  0.0563
28388SOL    HW192404  10.619   4.679   7.454  0.6444  0.1808  0.7433
28388SOL    HW292405  10.611   4.570   7.558 -0.9587 -0.7695 -0.3412
28389SOL     OW92406   5.594   2.364   6.566  0.2030  0.2666 -0.2379
28389SOL    HW192407   5.550   2.289   6.607 -0.3453  1.4248  1.4230
28389SOL    HW292408   5.675   2.328   6.530  0.1571 -1.0530  0.8939
28390SOL     OW92409   2.997   0.284   1.442 -0.6454  0.3993 -0.0585
28390SOL    HW192410   2.966   0.201   1.478 -0.4156 -0.0248 -0.8161
28390SOL    HW292411   2.997   0.344   1.516  1.9351 -1.0031  1.2087
28391SOL     OW92412   9.967   3.227  10.870 -0.5182  0.4201  0.3107
28391SOL    HW192413   9.943   3.140  10.902 -1.0755 -0.0398 -1.2307
28391SOL    HW292414  10.037   3.211  10.806 -1.3863  0.9517 -0.8124
28392SOL     OW92415   3.520   2.074   8.097  0.3050  0.9384  0.2153
28392SOL    HW192416   3.603   2.088   8.051 -0.5401  2.1567 -0.9798
28392SOL    HW292417   3.547   2.054   8.187  1.9665 -0.8612 -0.5909
28393SOL     OW92418   9.523   9.495   6.661  0.3603 -0.0982 -0.4648
28393SOL    HW192419   9.440   9.478   6.617 -0.0828  0.6495  0.0566
28393SOL    HW292420   9.563   9.566   6.609  1.4606 -1.5467 -1.6936
28394SOL     OW92421   0.778  12.479   4.061  0.2508  0.0238  0.6181
28394SOL    HW192422   0.841  12.413   4.090 -1.2895 -2.9697 -2.1839
28394SOL    HW292423   0.714  12.485   4.131  0.1925 -1.8921  0.7851
28395SOL     OW92424   0.431  10.356  10.969 -0.0711  0.5850  0.2615
28395SOL    HW192425   0.500  10.289  10.962 -2.7714 -2.3015 -1.0621
28395SOL    HW292426   0.445  10.413  10.893  1.1285  0.3682  0.3020
28396SOL     OW92427   4.228   2.835   2.264 -0.4338  0.3951 -0.0274
28396SOL    HW192428   4.199   2.815   2.175  0.6629  1.4510 -0.6447
28396SOL    HW292429   4.196   2.762   2.317  0.1394 -0.9955 -1.5279
28397SOL     OW92430   6.224  12.339   4.194  0.3997 -0.0089  0.3359
28397SOL    HW192431   6.272  12.318   4.114  0.4044 -1.1970  0.6398
28397SOL    HW292432   6.255  12.275   4.258  1.9263  2.1364  1.9137
28398SOL     OW92433  11.281   6.323   7.638 -0.2040 -0.8183  0.6865
28398SOL    HW192434  11.357   6.338   7.582 -1.1152 -0.0665 -0.3871
28398SOL    HW292435  11.252   6.234   7.617  1.5392 -1.9546  2.6013
28399SOL     OW92436   0.053   0.474   7.851 -0.1428 -0.1107 -0.1333
28399SOL    HW192437   0.013   0.560   7.861 -1.0813 -0.5603  0.0704
28399SOL    HW292438  -0.021   0.414   7.840  0.5037 -0.8657 -0.5033
28400SOL     OW92439   1.141   1.945   2.744 -0.7839 -0.2009 -0.0744
28400SOL    HW192440   1.059   1.950   2.694 -0.9287  0.5605  0.2269
28400SOL    HW292441   1.121   1.888   2.818 -0.1651 -2.5461 -1.6115
28401SOL     OW92442   4.507   4.427   7.507  0.0811 -0.2195 -0.4267
28401SOL    HW192443   4.522   4.333   7.500  1.4686  0.0065 -0.8937
28401SOL    HW292444   4.468   4.451   7.423 -0.2113 -0.3563 -0.3333
28402SOL     OW92445  10.153   2.869   0.034  0.3956 -0.0958 -0.3536
28402SOL    HW192446  10.093   2.915  -0.025 -1.2621 -0.2698  1.1261
28402SOL    HW292447  10.125   2.778   0.031  1.1552 -0.3388 -0.3041
28403SOL     OW92448   2.571   5.103   2.998  0.1894  0.2381 -0.0057
28403SOL    HW192449   2.619   5.113   3.080  0.9711  2.7044 -0.6821
28403SOL    HW292450   2.623   5.041   2.947  1.1525  0.7199  0.3624
28404SOL     OW92451   6.061   2.149  12.561  0.5906  0.0444  0.1469
28404SOL    HW192452   6.002   2.158  12.636 -0.9698 -0.5981 -0.9562
28404SOL    HW292453   6.044   2.061  12.527  1.7827  0.0639 -0.5651
28405SOL     OW92454   0.019   9.821  12.421  0.1431  0.1247  0.1037
28405SOL    HW192455   0.060   9.899  12.382 -0.7427 -0.8210 -3.0305
28405SOL    HW292456  -0.064   9.853  12.456  0.8612  0.9805  1.0890
28406SOL     OW92457  10.617   2.104   1.893  0.7364  0.2669  0.1455
28406SOL    HW192458  10.677   2.062   1.953  1.2956  1.7700  0.6852
28406SOL    HW292459  10.575   2.173   1.945 -2.5594 -1.5926  0.2180
28407SOL     OW92460  11.085   0.663   7.634  0.9117 -0.3448 -0.3289
28407SOL    HW192461  11.129   0.684   7.551  1.6191  0.7293  0.3087
28407SOL    HW292462  11.071   0.747   7.677  1.4272 -0.9449  1.0821
28408SOL     OW92463   7.165   5.450   5.917 -0.0665  0.1182 -0.0033
28408SOL    HW192464   7.120   5.428   5.835  0.4251 -0.3087 -0.1633
28408SOL    HW292465   7.102   5.426   5.986 -0.7960  1.2089 -0.2593
28409SOL     OW92466   0.696   3.916   8.874 -0.1896  0.1011 -0.4967
28409SOL    HW192467   0.674   3.827   8.846  0.3852 -0.3551  0.4604
28409SOL    HW292468   0.661   3.972   8.805 -0.4174 -0.8765 -1.1959
28410SOL     OW92469   6.265   0.353   8.672 -0.0470 -0.2203  0.1019
28410SOL    HW192470   6.359   0.366   8.658 -0.2375  2.0214  0.4738
28410SOL    HW292471   6.223   0.403   8.602 -0.9485 -0.0146  0.7740
28411SOL     OW92472   5.012   4.758  11.782  0.3208 -0.3137  0.3170
28411SOL    HW192473   5.052   4.752  11.869  2.0306  0.5049 -0.3669
28411SOL    HW292474   4.987   4.668  11.761 -1.4476 -0.3192  2.2164
28412SOL     OW92475  11.188   3.959   3.129  0.8479 -0.6335 -0.0721
28412SOL    HW192476  11.215   3.883   3.077  0.8689  0.7281 -2.1275
28412SOL    HW292477  11.208   4.035   3.075  0.7529  0.8864  1.8860
28413SOL     OW92478   0.843   3.598   3.436  0.2917 -0.4556 -0.2374
28413SOL    HW192479   0.896   3.572   3.360 -0.8540 -1.5616 -0.6979
28413SOL    HW292480   0.836   3.518   3.489  0.3207  0.0671  0.5671
28414SOL     OW92481  11.487   6.135   3.289 -0.7852  0.3230 -0.1482
28414SOL    HW192482  11.431   6.114   3.364 -0.6101  0.3848 -0.0014
28414SOL    HW292483  11.503   6.050   3.247  1.3513 -0.1468  1.4338
28415SOL     OW92484   6.245  12.223  12.568 -0.1560 -0.1213  0.0606
28415SOL    HW192485   6.223  12.292  12.632 -1.3249 -0.0337 -0.4075
28415SOL    HW292486   6.231  12.141  12.616  0.0556 -0.0444  0.2553
28416SOL     OW92487   8.237   7.609   5.119 -0.6021 -0.8718 -0.4857
28416SOL    HW192488   8.270   7.614   5.209 -0.1406  1.3160 -0.7108
28416SOL    HW292489   8.316   7.604   5.065 -0.8919 -3.0664 -0.7891
28417SOL     OW92490   4.353  10.411   6.237 -0.5049  0.1637  0.0010
28417SOL    HW192491   4.435  10.439   6.196 -0.7193  1.9250  0.6962
28417SOL    HW292492   4.290  10.478   6.212 -0.9456  0.6086  2.1491
28418SOL     OW92493   5.850   1.261   0.659  0.8778 -0.2108 -0.1344
28418SOL    HW192494   5.819   1.202   0.727 -0.0744 -1.4971 -1.6070
28418SOL    HW292495   5.928   1.303   0.696 -0.4433  0.2816  2.2663
28419SOL     OW92496   1.338   6.267   2.450  0.7578 -0.0278  0.0896
28419SOL    HW192497   1.293   6.251   2.367 -2.0458 -0.0558  1.4863
28419SOL    HW292498   1.375   6.355   2.440  0.7499 -0.1520 -1.2743
28420SOL     OW92499   0.347   6.997   0.933 -0.2063 -0.4799  0.1894
28420SOL    HW192500   0.281   6.950   0.985 -2.9492  2.1933 -0.5991
28420SOL    HW292501   0.343   6.955   0.847 -1.4332  0.0410 -0.0361
28421SOL     OW92502   7.721   7.565   0.032  0.5355 -0.2810  0.1344
28421SOL    HW192503   7.782   7.499  -0.002  0.4962 -0.8437  1.1337
28421SOL    HW292504   7.776   7.624   0.084  0.9075  1.6049 -2.2071
28422SOL     OW92505   7.923   4.304   9.207 -0.5064 -0.0923 -0.0488
28422SOL    HW192506   7.874   4.278   9.285 -0.4171  0.8929  0.3573
28422SOL    HW292507   7.967   4.224   9.179 -1.2631 -0.6749  0.3738
28423SOL     OW92508   6.148   0.528   6.736  0.0715 -0.0246 -0.2498
28423SOL    HW192509   6.144   0.438   6.706 -3.0476  0.0667 -0.4329
28423SOL    HW292510   6.154   0.521   6.832 -1.8979 -0.5057 -0.1264
28424SOL     OW92511   3.223  11.780   3.383 -0.1452  0.1635 -0.3816
28424SOL    HW192512   3.182  11.838   3.447  2.7009  0.3422  1.4750
28424SOL    HW292513   3.317  11.790   3.400  0.5903 -1.9937 -2.7114
28425SOL     OW92514   2.169   6.474   1.470 -0.2420  0.3180 -0.7519
28425SOL    HW192515   2.165   6.456   1.564  1.1853  0.3251 -0.6647
28425SOL    HW292516   2.091   6.526   1.452 -0.9165 -0.3056  0.2801
28426SOL     OW92517  10.667  10.263   6.689  0.1675  0.2550  0.1687
28426SOL    HW192518  10.739  10.253   6.628 -0.7723  2.9205 -1.5380
28426SOL    HW292519  10.666  10.180   6.738  0.8609 -2.1736 -3.4873
28427SOL     OW92520   7.046  10.224   6.977 -0.1235  0.3136 -0.0989
28427SOL    HW192521   6.978  10.285   7.005 -1.4024 -2.7312  4.5840
28427SOL    HW292522   7.000  10.159   6.925 -0.2911 -0.2717  0.7558
28428SOL     OW92523   2.567   0.441   4.555 -0.5820  0.1584  0.6413
28428SOL    HW192524   2.623   0.515   4.580 -0.5705  0.0365  0.9758
28428SOL    HW292525   2.483   0.460   4.596 -0.6362  0.0850  0.5630
28429SOL     OW92526   4.052   3.351   2.236  0.1694  0.0259 -0.1185
28429SOL    HW192527   4.113   3.374   2.166  2.0129 -1.3834  0.9527
28429SOL    HW292528   4.085   3.269   2.272 -2.6331 -1.0609  0.2622
28430SOL     OW92529   5.168   1.018   0.658  0.3356  0.3748  0.0660
28430SOL    HW192530   5.174   0.936   0.608 -3.4314  0.2780 -0.5638
28430SOL    HW292531   5.162   0.990   0.749  0.3529  0.0248 -0.0382
28431SOL     OW92532   5.944   4.262   1.786 -0.3458  0.0945  0.2935
28431SOL    HW192533   6.038   4.259   1.765 -0.8763 -0.7604 -2.3737
28431SOL    HW292534   5.941   4.281   1.880  2.4644  0.9429  0.3092
28432SOL     OW92535   5.229   9.015   7.792 -0.3944 -0.6538 -0.3513
28432SOL    HW192536   5.292   8.968   7.847  0.1292  2.7980  2.3614
28432SOL    HW292537   5.147   9.011   7.841 -0.1709  1.6343  0.3236
28433SOL     OW92538   2.096   3.834  10.236 -0.0159  0.1881 -0.8641
28433SOL    HW192539   2.032   3.840  10.307 -0.8798 -0.4671 -1.5624
28433SOL    HW292540   2.169   3.786  10.274 -0.8102 -0.8722 -0.6368
28434SOL     OW92541   4.537   1.486   7.419 -0.1504 -0.0166  0.2505
28434SOL    HW192542   4.475   1.545   7.376 -1.4447 -2.2295 -1.1049
28434SOL    HW292543   4.550   1.524   7.506 -3.2021  0.7329  0.4864
28435SOL     OW92544   6.965   5.626  10.857 -0.0098 -0.2252 -1.2423
28435SOL    HW192545   6.968   5.683  10.780  0.0731 -0.8728 -1.7236
28435SOL    HW292546   6.891   5.659  10.908 -0.8323 -0.5252 -2.1932
28436SOL     OW92547  12.677  10.638  10.503  0.2090  0.1986  0.0177
28436SOL    HW192548  12.699  10.712  10.446 -0.3696 -1.0907 -1.9723
28436SOL    HW292549  12.594  10.605  10.469  1.1127 -2.1917 -0.0166
28437SOL     OW92550  10.688   7.202   2.000  0.1834  0.3345  0.9681
28437SOL    HW192551  10.680   7.242   2.087  0.8520 -0.9669  1.6613
28437SOL    HW292552  10.683   7.108   2.017  1.1456  0.0318 -0.3186
28438SOL     OW92553   4.648  11.483   8.661  0.1977  0.3190 -0.0032
28438SOL    HW192554   4.559  11.516   8.674  0.2483  0.0632  1.0541
28438SOL    HW292555   4.652  11.461   8.568 -0.3727  1.7119 -0.3845
28439SOL     OW92556  10.910  10.193   2.630 -0.1513  0.2719  0.3361
28439SOL    HW192557  10.955  10.111   2.647  1.0156  0.7653 -0.2330
28439SOL    HW292558  10.847  10.172   2.560  0.6468  0.0103 -0.3190
28440SOL     OW92559   4.104   0.970   6.569 -0.4876 -0.5138  0.4019
28440SOL    HW192560   4.032   0.918   6.604 -0.6850 -1.0118 -0.6922
28440SOL    HW292561   4.095   1.056   6.610 -1.6210 -0.6213  0.3838
28441SOL     OW92562   6.381   6.432   9.681 -0.2896 -0.0814  0.0848
28441SOL    HW192563   6.431   6.350   9.688  0.7568  0.5606  0.3612
28441SOL    HW292564   6.292   6.404   9.658  0.2245 -1.2506 -0.5843
28442SOL     OW92565   9.902   8.465  11.876 -0.6768 -0.4268  0.2659
28442SOL    HW192566   9.810   8.454  11.901 -1.8854 -0.1750 -3.4993
28442SOL    HW292567   9.908   8.425  11.789  2.8038 -0.3251  0.3307
28443SOL     OW92568   4.732   9.428   4.061 -0.4107  0.1895 -0.3603
28443SOL    HW192569   4.638   9.431   4.048 -0.6836 -0.5899  1.2508
28443SOL    HW292570   4.760   9.349   4.014 -0.8793 -0.7069  0.8294
28444SOL     OW92571   0.677   5.028   1.686 -0.4209  0.6386  0.1482
28444SOL    HW192572   0.633   4.981   1.615  1.4233  0.2812 -0.8221
28444SOL    HW292573   0.686   4.963   1.756  0.4096  0.0669 -0.4632
28445SOL     OW92574   9.271   4.752   0.518  0.5583  0.1195  0.2707
28445SOL    HW192575   9.264   4.846   0.504  1.5781  0.2490  0.5147
28445SOL    HW292576   9.203   4.732   0.582  0.3830  0.7041  0.2711
28446SOL     OW92577   9.782  11.840  12.473  0.3538  0.2720  0.3467
28446SOL    HW192578   9.792  11.925  12.517  0.0731  0.6121 -0.2267
28446SOL    HW292579   9.763  11.863  12.382 -0.6662 -0.4024  0.3742
28447SOL     OW92580   6.353   3.472   5.290 -0.2911  0.3976  0.2518
28447SOL    HW192581   6.402   3.447   5.212 -0.9363 -0.2167  0.0404
28447SOL    HW292582   6.286   3.533   5.258 -0.6010  0.0900  0.3135
28448SOL     OW92583   3.551  11.783   4.733  0.6824  0.0652 -0.1913
28448SOL    HW192584   3.472  11.833   4.711  0.7791 -0.1101 -0.9390
28448SOL    HW292585   3.583  11.750   4.650  0.4071 -1.5954  0.3335
28449SOL     OW92586  12.614   3.490  12.082 -0.3086 -0.0353  0.0910
28449SOL    HW192587  12.575   3.448  12.158  0.8232 -0.7528  0.3031
28449SOL    HW292588  12.540   3.530  12.036 -1.0968 -0.1911  1.1800
28450SOL     OW92589   6.213  10.621  12.189  0.5581  0.5309 -0.2380
28450SOL    HW192590   6.185  10.588  12.103  0.9882  0.8125 -0.4898
28450SOL    HW292591   6.237  10.542  12.238  2.0146  0.4681 -0.9901
28451SOL     OW92592   9.034   1.163   9.969  0.5606 -0.4683 -0.1395
28451SOL    HW192593   8.968   1.195  10.030 -0.2716 -1.7884 -0.2918
28451SOL    HW292594   9.077   1.091  10.016 -0.5160 -1.9254 -1.2653
28452SOL     OW92595   1.215   3.468  10.157 -1.0907  0.9362 -0.2471
28452SOL    HW192596   1.298   3.421  10.161 -0.8071  1.5318  1.9634
28452SOL    HW292597   1.226   3.528  10.083  0.9508  1.8377  0.6927
28453SOL     OW92598   6.466   2.428  10.499  0.3091  0.0600  0.0474
28453SOL    HW192599   6.412   2.470  10.432  0.1107 -1.8382 -1.0696
28453SOL    HW292600   6.544   2.398  10.452  1.4351  0.9933  1.2406
28454SOL     OW92601   8.482   2.011   2.274 -0.0227 -0.1260 -0.1101
28454SOL    HW192602   8.506   2.013   2.367 -0.0353 -0.5034 -0.0973
28454SOL    HW292603   8.387   2.018   2.273 -0.0925 -0.9959 -0.0523
28455SOL     OW92604   5.113  10.797   6.162 -0.2624  0.5720  0.4184
28455SOL    HW192605   5.058  10.823   6.236 -2.3422 -0.3834 -0.6870
28455SOL    HW292606   5.070  10.836   6.086  2.5435  2.6313 -0.2591
28456SOL     OW92607  11.219   8.093   4.539 -0.2872  0.1304  0.3102
28456SOL    HW192608  11.291   8.128   4.487  0.8603  1.5880  2.7129
28456SOL    HW292609  11.211   8.002   4.510  3.2811 -0.4352  0.6416
28457SOL     OW92610   6.732  12.465   0.999  0.0244  0.1424 -0.3209
28457SOL    HW192611   6.771  12.379   0.985  1.8280  0.9770 -0.8071
28457SOL    HW292612   6.805  12.526   0.989 -0.9477  1.6584  1.2656
28458SOL     OW92613   3.821   4.926   5.244 -0.3003  0.0502  0.4804
28458SOL    HW192614   3.863   4.942   5.160 -0.8099  1.6267  0.5095
28458SOL    HW292615   3.841   5.004   5.296 -3.7015  1.1696  0.3125
28459SOL     OW92616   2.188   2.328   2.525  0.1090 -0.0153  0.0186
28459SOL    HW192617   2.229   2.308   2.441 -1.0727  0.3656 -0.6752
28459SOL    HW292618   2.260   2.353   2.582  0.9345 -0.3291 -0.8704
28460SOL     OW92619   5.035   8.466   3.190  0.3540  0.3851 -0.7201
28460SOL    HW192620   5.054   8.442   3.280 -0.6816 -0.6214 -0.7477
28460SOL    HW292621   5.121   8.469   3.147  0.6815 -1.7824 -0.3258
28461SOL     OW92622  11.978   2.311  12.296 -0.4386 -0.2559  0.1668
28461SOL    HW192623  12.018   2.238  12.249 -2.1239 -0.5763 -0.8578
28461SOL    HW292624  12.036   2.326  12.371  0.6209 -1.8122 -0.2912
28462SOL     OW92625   8.202  11.840  10.660 -0.5495  0.4611  0.7154
28462SOL    HW192626   8.196  11.778  10.732  0.2109  0.0298  0.4201
28462SOL    HW292627   8.296  11.856  10.649 -0.3982 -1.5997 -1.9097
28463SOL     OW92628   5.294   3.756   6.800 -0.4275  0.1782 -0.1497
28463SOL    HW192629   5.249   3.806   6.868 -1.2559 -0.9125  0.1428
28463SOL    HW292630   5.338   3.685   6.848  0.1737  0.2261 -0.6181
28464SOL     OW92631   7.964   6.409  11.784  0.4491  0.5081  0.1117
28464SOL    HW192632   7.906   6.396  11.708 -0.7730 -0.6146  1.1913
28464SOL    HW292633   8.026   6.336  11.779  1.3469  1.2848 -0.6149
28465SOL     OW92634   7.934   0.184   0.777 -0.4018 -0.1196  0.2950
28465SOL    HW192635   7.981   0.216   0.700 -0.6174  1.3354  0.7263
28465SOL    HW292636   7.903   0.097   0.752 -0.3078  0.2407 -1.1828
28466SOL     OW92637   1.486  12.320  12.523 -0.0306  0.1164  0.6005
28466SOL    HW192638   1.508  12.318  12.430 -1.0707 -0.3720  0.3393
28466SOL    HW292639   1.438  12.238  12.537 -1.7630  1.1417  1.0612
28467SOL     OW92640   7.312  10.209  12.023 -1.1499  0.1470 -0.1302
28467SOL    HW192641   7.370  10.134  12.029  1.3811  2.0158  0.8894
28467SOL    HW292642   7.275  10.205  11.935  0.6386 -1.1043 -0.8826
28468SOL     OW92643   1.553  12.629   0.996 -0.0759  0.0363  0.6170
28468SOL    HW192644   1.479  12.597   1.047 -0.0140  1.1512  1.4619
28468SOL    HW292645   1.529  12.719   0.973  1.4660  0.8400  1.9049
28469SOL     OW92646   7.725   8.822   0.646 -0.2283  0.3464  0.0697
28469SOL    HW192647   7.685   8.736   0.641  1.8554 -0.7276  0.7939
28469SOL    HW292648   7.725   8.844   0.739  1.7890 -0.2114  0.2521
28470SOL     OW92649  11.558   0.143   1.862 -0.2782  0.4254 -0.5403
28470SOL    HW192650  11.609   0.119   1.785  0.6310  0.6209 -0.0103
28470SOL    HW292651  11.597   0.226   1.891 -0.8387  0.5264 -0.0742
28471SOL     OW92652   7.817   6.307   2.620 -0.2691  0.1105  0.0986
28471SOL    HW192653   7.898   6.268   2.587  0.3486  1.5880 -0.2480
28471SOL    HW292654   7.759   6.311   2.544 -1.0260 -1.7411  0.5391
28472SOL     OW92655   4.727   9.271  11.162  0.0161  0.0689 -0.1380
28472SOL    HW192656   4.689   9.274  11.074  2.0017 -0.1747 -1.0538
28472SOL    HW292657   4.802   9.212  11.154  2.3252  2.6538  0.8113
28473SOL     OW92658  11.937   5.156   5.421 -0.1650 -0.8373  0.2994
28473SOL    HW192659  11.903   5.067   5.436  2.3634 -2.2403 -1.5503
28473SOL    HW292660  11.986   5.176   5.501  1.4324 -2.2684 -0.2711
28474SOL     OW92661   5.323   7.434   4.624  0.1595 -0.7693  0.4653
28474SOL    HW192662   5.370   7.475   4.552  0.5695  3.2815  2.7086
28474SOL    HW292663   5.390   7.421   4.692 -0.5504 -2.6607  0.8646
28475SOL     OW92664   8.761   2.468   6.009 -0.3040 -0.0020 -0.6721
28475SOL    HW192665   8.828   2.401   5.994 -0.7065 -0.2426 -1.4841
28475SOL    HW292666   8.808   2.551   6.004  0.2843 -0.2258  0.8061
28476SOL     OW92667   7.853   1.847   6.770 -0.4423 -0.3838 -0.1201
28476SOL    HW192668   7.917   1.777   6.757  0.5141  0.2080  1.2007
28476SOL    HW292669   7.892   1.924   6.729 -1.4500 -0.5637 -1.4875
28477SOL     OW92670  10.765   3.880   4.695 -0.0161  0.8077 -0.0734
28477SOL    HW192671  10.816   3.812   4.651 -0.9351  1.2844 -1.9879
28477SOL    HW292672  10.822   3.956   4.697  0.5010  0.4135  0.7913
28478SOL     OW92673   0.055   6.195   7.448 -0.1672 -0.0005  0.1215
28478SOL    HW192674   0.048   6.244   7.366  0.6431  0.2003  0.1617
28478SOL    HW292675   0.078   6.261   7.514  0.5839 -0.3621  0.2400
28479SOL     OW92676   6.718   2.510   9.816  0.1818  0.5168 -0.0728
28479SOL    HW192677   6.634   2.555   9.821 -0.4350 -0.6004  0.1469
28479SOL    HW292678   6.750   2.527   9.727 -1.3949 -0.9078 -0.9711
28480SOL     OW92679   0.849   2.175   9.075  0.5339 -0.3643  0.0759
28480SOL    HW192680   0.878   2.172   9.166 -0.1817  0.2704  0.3319
28480SOL    HW292681   0.825   2.085   9.054  0.1157 -0.4009  0.7062
28481SOL     OW92682   6.189  10.316   1.512  0.0645  0.1339 -0.2490
28481SOL    HW192683   6.174  10.296   1.420  0.8920 -3.3517  0.2194
28481SOL    HW292684   6.284  10.317   1.521  0.0594  2.8790  0.2052
28482SOL     OW92685   8.619   9.024   9.521  0.7000 -0.5252 -0.4973
28482SOL    HW192686   8.697   9.067   9.556  0.8583 -0.3222 -1.0904
28482SOL    HW292687   8.591   8.965   9.591  1.0389 -0.1606 -0.0507
28483SOL     OW92688   2.879   7.417   6.945 -0.2377 -0.2766  0.9221
28483SOL    HW192689   2.809   7.365   6.985 -1.5952 -0.5716 -1.5663
28483SOL    HW292690   2.924   7.355   6.887  1.7836  0.0565  2.0524
28484SOL     OW92691   8.082   9.360  11.153  0.6173  0.1114 -0.0011
28484SOL    HW192692   8.074   9.303  11.077 -0.1931  0.0033  0.1600
28484SOL    HW292693   8.071   9.301  11.228 -2.1708  0.7335  0.1571
28485SOL     OW92694   1.789   2.699   9.253  0.5552 -0.0855  0.0016
28485SOL    HW192695   1.745   2.645   9.318 -0.1990  0.6955  0.1650
28485SOL    HW292696   1.734   2.693   9.175  0.5930  0.2616 -0.0533
28486SOL     OW92697   1.821   0.248  11.626  0.3189 -0.2745  0.1607
28486SOL    HW192698   1.784   0.323  11.579 -2.2677 -0.6027  1.5050
28486SOL    HW292699   1.862   0.287  11.703  0.2289 -0.1336  0.1379
28487SOL     OW92700   6.897   1.172   5.668  0.1869  0.7431 -0.5618
28487SOL    HW192701   6.806   1.197   5.685  0.0798  0.4641 -0.7214
28487SOL    HW292702   6.945   1.200   5.747 -0.0751  0.6823 -0.3809
28488SOL     OW92703   6.405   5.804   5.848  0.4389  0.1077 -0.2352
28488SOL    HW192704   6.388   5.710   5.845 -0.1567  0.2069 -0.1969
28488SOL    HW292705   6.372   5.831   5.934  1.7992  0.1387  0.2982
28489SOL     OW92706   7.167   0.819   7.396 -0.1952 -0.8630  0.1153
28489SOL    HW192707   7.125   0.754   7.454  0.3541 -1.5468 -0.2389
28489SOL    HW292708   7.258   0.791   7.392  0.6030  1.2202  1.7459
28490SOL     OW92709   7.009  10.017   9.151  0.2232  0.5591 -0.2707
28490SOL    HW192710   6.989  10.045   9.062 -1.3782 -0.8919 -0.4081
28490SOL    HW292711   6.947  10.065   9.206  0.5576  0.7091 -0.0110
28491SOL     OW92712   3.074   9.202   8.815  0.4216  0.7680  0.1175
28491SOL    HW192713   3.126   9.208   8.735 -2.6684  1.2227 -2.0489
28491SOL    HW292714   3.119   9.259   8.877  2.5843  0.9442 -1.4891
28492SOL     OW92715   5.264   3.394  10.763  0.4216  0.0747 -0.3960
28492SOL    HW192716   5.263   3.301  10.784  0.0116  0.0641 -0.4378
28492SOL    HW292717   5.336   3.405  10.700  2.8982  0.4281  2.3086
28493SOL     OW92718   6.024  11.399   1.849  0.0150 -0.0862  0.1143
28493SOL    HW192719   5.992  11.487   1.831  0.4960  0.2344  0.8027
28493SOL    HW292720   6.119  11.407   1.846  0.0857 -0.3321  1.2833
28494SOL     OW92721   2.208   4.560   8.498  0.2661 -0.0211 -0.6952
28494SOL    HW192722   2.249   4.539   8.582  0.6858 -0.7484 -1.0835
28494SOL    HW292723   2.258   4.511   8.433 -0.4337  0.0644 -1.3096
28495SOL     OW92724   0.304   4.922   4.181  0.9636  0.0964 -0.4133
28495SOL    HW192725   0.364   4.984   4.139  0.1196  1.7646  0.7345
28495SOL    HW292726   0.232   4.913   4.119  2.5840 -2.4650 -2.1276
28496SOL     OW92727   3.291  11.236   4.600 -0.0523 -0.8283 -0.0611
28496SOL    HW192728   3.201  11.260   4.576 -0.0552 -0.1166  0.6010
28496SOL    HW292729   3.331  11.320   4.624  0.4401 -1.2862  0.7586
28497SOL     OW92730   7.122   2.628   0.187  0.4128  0.1023 -0.0190
28497SOL    HW192731   7.033   2.662   0.181  0.0519 -0.9853 -1.3710
28497SOL    HW292732   7.141   2.594   0.100  1.8164 -0.5016  0.4918
28498SOL     OW92733  11.257   6.917  12.054  0.5008  0.0607 -0.4316
28498SOL    HW192734  11.290   6.877  12.134 -1.9140 -0.2378  0.5182
28498SOL    HW292735  11.177   6.867  12.034 -0.2359  1.6419 -1.6665
28499SOL     OW92736  10.773  10.541   5.577 -0.3779 -0.3514 -0.1477
28499SOL    HW192737  10.685  10.511   5.555  0.1015 -0.0764 -2.7121
28499SOL    HW292738  10.768  10.636   5.575  0.0643 -0.3331 -0.8210
28500SOL     OW92739   6.246   1.562   4.043  0.6251  0.3208  0.3459
28500SOL    HW192740   6.248   1.467   4.056 -1.7219 -0.0094 -1.0863
28500SOL    HW292741   6.338   1.586   4.032  1.3132 -1.7290  0.9798
28501SOL     OW92742  11.625   1.003  10.601 -0.0283 -0.5337 -0.8271
28501SOL    HW192743  11.663   1.035  10.519 -1.3701 -1.6081 -1.9336
28501SOL    HW292744  11.646   0.909  10.601  1.0229 -0.3238  0.7056
28502SOL     OW92745   8.986   5.675   5.316  0.5331 -0.3529  0.0245
28502SOL    HW192746   9.073   5.644   5.293  1.7389  1.1650  2.1497
28502SOL    HW292747   8.986   5.768   5.291 -0.5528 -0.3669 -0.0986
28503SOL     OW92748   5.915  11.192   4.286  0.1748 -0.1989 -0.1066
28503SOL    HW192749   5.935  11.215   4.195 -0.2802 -1.6232 -0.5999
28503SOL    HW292750   5.987  11.135   4.312  0.1119 -0.0919  0.3083
28504SOL     OW92751   5.023  12.076   6.558  0.3419  0.1887 -0.5797
28504SOL    HW192752   5.090  12.131   6.599  0.6020 -0.5275 -0.0133
28504SOL    HW292753   5.055  12.061   6.470  0.8607 -0.0254 -0.3600
28505SOL     OW92754  11.855  10.550   6.324  0.1216 -0.1308  0.3116
28505SOL    HW192755  11.780  10.596   6.285 -0.3053  0.1814  1.4547
28505SOL    HW292756  11.930  10.604   6.302  0.0711 -0.6258 -1.1382
28506SOL     OW92757   8.435   7.483  11.901 -0.1437  0.3175  0.5575
28506SOL    HW192758   8.439   7.543  11.827  0.4887 -1.3132 -0.7931
28506SOL    HW292759   8.347   7.447  11.899 -0.0701  0.1412  0.4918
28507SOL     OW92760  11.615   9.173   4.149 -0.4968 -0.8281 -0.0589
28507SOL    HW192761  11.580   9.128   4.072 -0.1392 -0.8935 -0.1832
28507SOL    HW292762  11.605   9.110   4.220 -0.5378 -0.8854 -0.1155
28508SOL     OW92763  10.637   4.479  11.864 -0.3889  0.1096  0.0849
28508SOL    HW192764  10.695   4.539  11.819  0.0051 -0.2866  0.0532
28508SOL    HW292765  10.550   4.514  11.850 -0.0925  1.1921  0.8594
28509SOL     OW92766  11.634   3.710  11.752 -0.1527 -0.2960  0.1919
28509SOL    HW192767  11.614   3.629  11.798  0.8742 -1.8447 -1.9116
28509SOL    HW292768  11.729   3.706  11.736 -0.0466  1.4054  0.1193
28510SOL     OW92769  10.054   4.547  10.798 -0.4293  0.1893 -0.1209
28510SOL    HW192770  10.068   4.597  10.878 -1.0678 -0.2891  0.2980
28510SOL    HW292771   9.998   4.474  10.824  1.6710 -1.6487 -0.3776
28511SOL     OW92772   1.827   5.683   3.936 -0.2230  0.0771  0.0127
28511SOL    HW192773   1.790   5.771   3.943  0.3894  0.4188 -0.8125
28511SOL    HW292774   1.860   5.678   3.846 -1.2505 -1.4024 -0.3241
28512SOL     OW92775  11.440   4.317   3.486  0.5799 -0.0508 -0.0031
28512SOL    HW192776  11.373   4.250   3.501  1.8365 -1.8425 -1.9008
28512SOL    HW292777  11.477   4.333   3.573 -0.7015 -0.7542  0.7130
28513SOL     OW92778  10.910  12.660   6.458 -0.3148  0.2141 -0.2993
28513SOL    HW192779  10.880  12.576   6.493 -0.8349  0.1718 -0.8449
28513SOL    HW292780  11.004  12.647   6.443  0.2117  0.6092  2.1678
28514SOL     OW92781   2.980   6.746  12.625 -0.2130  0.2255  0.3208
28514SOL    HW192782   2.907   6.791  12.582 -0.1386 -0.5936 -0.7101
28514SOL    HW292783   2.997   6.671  12.569  0.6613 -0.2394  1.1928
28515SOL     OW92784   5.389  12.568   0.679  0.2158  0.2261  0.0432
28515SOL    HW192785   5.355  12.521   0.755  0.4360  0.5786  0.3672
28515SOL    HW292786   5.483  12.552   0.681  0.1591 -0.1848 -0.4540
28516SOL     OW92787   0.530   4.873   1.928  0.1408  0.0414  1.0557
28516SOL    HW192788   0.470   4.941   1.898  1.9730  1.9197  1.3889
28516SOL    HW292789   0.551   4.822   1.850 -0.4557  0.5218  0.5765
28517SOL     OW92790   0.506   5.115   4.113 -0.0073 -0.4261 -0.4180
28517SOL    HW192791   0.486   5.145   4.024 -0.6830  1.7127  0.3967
28517SOL    HW292792   0.594   5.147   4.130 -0.3680  0.3094  0.1216
28518SOL     OW92793   9.708   4.424   9.781 -0.0429  0.1983  0.5508
28518SOL    HW192794   9.683   4.394   9.694  0.0663  0.6378  0.3676
28518SOL    HW292795   9.661   4.507   9.793  1.3973  1.1020  0.1575
28519SOL     OW92796   2.997   9.191   6.393 -0.0663  0.1380  0.2072
28519SOL    HW192797   3.059   9.234   6.452  0.7821  0.3373 -0.8168
28519SOL    HW292798   3.045   9.179   6.311 -1.0942 -0.5135 -0.3236
28520SOL     OW92799   7.186  10.016   1.487 -0.2433  0.3554  0.5524
28520SOL    HW192800   7.234   9.971   1.557 -1.1514  0.8876  1.5528
28520SOL    HW292801   7.236  10.096   1.471 -0.1953  0.3783  0.8126
28521SOL     OW92802   7.338   8.282  10.826  0.1681  0.1833  0.1462
28521SOL    HW192803   7.421   8.323  10.801  0.5702 -1.2584 -1.0738
28521SOL    HW292804   7.363   8.214  10.888 -0.3884  1.1418  1.4734
28522SOL     OW92805  12.223   4.569   1.973 -0.4547  0.6501  0.2000
28522SOL    HW192806  12.194   4.537   1.887  2.2165 -1.9002  0.0999
28522SOL    HW292807  12.303   4.618   1.954 -0.1297  0.5180  1.2101
28523SOL     OW92808   4.697   3.481   8.450 -0.3968 -0.4737 -0.1592
28523SOL    HW192809   4.632   3.419   8.416 -0.5816 -0.5197  0.2589
28523SOL    HW292810   4.769   3.478   8.387 -0.1040 -1.6333  0.2011
28524SOL     OW92811   9.088   2.446   6.919  0.0524  0.1157  0.2193
28524SOL    HW192812   9.148   2.372   6.928 -1.1147 -1.0401 -1.1275
28524SOL    HW292813   9.102   2.477   6.829  1.9991  2.9296  1.3272
28525SOL     OW92814   6.497   2.298   9.172 -0.4135 -0.0337  0.1382
28525SOL    HW192815   6.488   2.335   9.084 -2.9915 -0.0534  0.3127
28525SOL    HW292816   6.453   2.213   9.167  0.8808 -0.7880  1.0497
28526SOL     OW92817   2.976   1.324   3.818 -0.0981  0.2717 -0.2590
28526SOL    HW192818   3.047   1.316   3.754  0.2469  0.7730  0.0477
28526SOL    HW292819   2.918   1.391   3.780 -0.1396  0.2287 -0.2708
28527SOL     OW92820   2.774   4.191   1.415  0.1483  0.5710  0.8250
28527SOL    HW192821   2.750   4.098   1.419  2.1399  0.0712  3.3060
28527SOL    HW292822   2.855   4.192   1.364  0.7028  0.7819  1.6947
28528SOL     OW92823   3.547   6.941  11.376  0.9177  0.1897 -0.1135
28528SOL    HW192824   3.464   6.899  11.352  0.8245 -0.2242  0.8995
28528SOL    HW292825   3.529   7.035  11.368  0.3287  0.1066  0.1798
28529SOL     OW92826   9.585   2.318   2.322 -0.7219 -0.3247 -0.3601
28529SOL    HW192827   9.573   2.280   2.235  0.0839 -0.9586 -0.2135
28529SOL    HW292828   9.520   2.388   2.328 -1.7253 -1.1857 -0.9360
28530SOL     OW92829   9.649   1.075   0.598 -0.4998  0.2027  0.5645
28530SOL    HW192830   9.564   1.079   0.555 -1.1055  0.3308  1.7367
28530SOL    HW292831   9.637   1.014   0.671  0.3899  0.2696  0.7830
28531SOL     OW92832   0.107   7.234   6.843  0.3249 -0.2456 -0.2558
28531SOL    HW192833   0.097   7.261   6.752 -0.9684  0.1006 -0.0261
28531SOL    HW292834   0.170   7.295   6.879  1.2901 -0.7320 -1.0452
28532SOL     OW92835   0.254  12.541  12.087 -0.3183  0.3451  0.4811
28532SOL    HW192836   0.286  12.616  12.137 -1.6605 -0.5766  2.9314
28532SOL    HW292837   0.330  12.483  12.078  0.2657  1.1364  0.2705
28533SOL     OW92838   3.285   0.209   9.869 -0.2341  0.0372 -0.0861
28533SOL    HW192839   3.235   0.230   9.947  0.0424  1.1695 -0.1989
28533SOL    HW292840   3.312   0.294   9.833 -0.5231 -0.4381 -1.5267
28534SOL     OW92841   2.125   4.430  11.357 -0.0816  0.0433 -0.3436
28534SOL    HW192842   2.099   4.477  11.278 -0.1952  1.9044  0.7634
28534SOL    HW292843   2.042   4.401  11.396  0.0173 -2.0881 -1.5445
28535SOL     OW92844   5.075   9.076  12.248  0.0134  0.2358  0.0607
28535SOL    HW192845   5.002   9.040  12.298  0.9816 -2.5651 -0.3728
28535SOL    HW292846   5.151   9.064  12.305  0.4663  1.1170 -0.3402
28536SOL     OW92847   3.795   8.353   0.452  0.2105 -0.4615 -0.2031
28536SOL    HW192848   3.728   8.399   0.402 -0.1955  1.3742  1.8798
28536SOL    HW292849   3.832   8.290   0.390 -1.1801  0.7192 -2.3608
28537SOL     OW92850   1.693   4.909   0.961 -0.1000 -0.4061 -0.7759
28537SOL    HW192851   1.733   4.946   0.883 -0.4037  2.2127  0.1999
28537SOL    HW292852   1.767   4.896   1.022 -0.3239  1.8883  0.0667
28538SOL     OW92853   5.953   8.292   4.036  0.0681 -0.5081 -0.4445
28538SOL    HW192854   5.951   8.197   4.042  0.6040 -0.4962 -0.0056
28538SOL    HW292855   6.044   8.313   4.016  0.4411  0.0102  1.5860
28539SOL     OW92856   8.653  11.600  10.855 -0.0169  0.9629  0.1420
28539SOL    HW192857   8.587  11.634  10.916  1.3683  0.5800  1.9678
28539SOL    HW292858   8.631  11.638  10.771 -3.7619 -0.6955  0.1715
28540SOL     OW92859   9.900   9.328   0.776 -0.9319 -0.1705  0.4703
28540SOL    HW192860   9.956   9.376   0.714 -0.2722 -1.1925  0.2601
28540SOL    HW292861   9.952   9.253   0.803 -1.1803  0.2730  2.3429
28541SOL     OW92862   3.520  11.258   7.880 -0.0404 -0.0684  0.2552
28541SOL    HW192863   3.591  11.241   7.817  2.9388  2.3284  2.6356
28541SOL    HW292864   3.456  11.308   7.832  0.8975 -0.4635 -1.4868
28542SOL     OW92865   5.317  12.224   4.840 -0.3248 -0.0883 -0.3186
28542SOL    HW192866   5.264  12.262   4.910 -1.8939 -0.5364 -1.2024
28542SOL    HW292867   5.261  12.229   4.763  1.3780  0.4748 -1.5916
28543SOL     OW92868   2.190   2.472   7.716  0.2935 -0.3919 -0.4100
28543SOL    HW192869   2.239   2.530   7.658  0.7704 -0.1660  0.2062
28543SOL    HW292870   2.129   2.425   7.658 -0.6793  1.2952 -0.8092
28544SOL     OW92871   0.953   4.424  12.584  0.3222 -0.9272  0.2864
28544SOL    HW192872   0.971   4.445  12.492  4.3857 -0.8255  0.9011
28544SOL    HW292873   0.951   4.509  12.628  1.8043 -1.0577  0.6791
28545SOL     OW92874   3.362   4.611   6.482  0.3218 -0.5511 -0.1427
28545SOL    HW192875   3.315   4.603   6.565 -0.3700  2.8033 -0.0780
28545SOL    HW292876   3.431   4.675   6.498 -0.1632  0.6021 -2.2333
28546SOL     OW92877   4.275   3.886   1.202  0.3401 -0.1963  0.2354
28546SOL    HW192878   4.245   3.975   1.221  0.4718 -0.1778  0.3669
28546SOL    HW292879   4.262   3.839   1.284 -3.6626 -1.4391 -0.9158
28547SOL     OW92880   8.538   8.354   3.130  0.9925  0.1284 -0.2823
28547SOL    HW192881   8.548   8.302   3.210  0.6811 -0.1992 -0.4561
28547SOL    HW292882   8.448   8.337   3.101  0.9518  0.6119 -0.4458
28548SOL     OW92883   2.804  10.473  10.623  0.5812 -0.6145  0.3849
28548SOL    HW192884   2.744  10.546  10.639  0.7535 -0.4076  0.0938
28548SOL    HW292885   2.802  10.423  10.705  0.2368 -0.4500  0.4818
28549SOL     OW92886   0.730   3.636  10.255 -0.1461 -0.0792 -0.4222
28549SOL    HW192887   0.822   3.609  10.251 -0.0772  0.1717 -0.5507
28549SOL    HW292888   0.726   3.693  10.332 -0.2211 -0.1884 -0.3440
28550SOL     OW92889  11.008   9.694   3.142 -0.0870  0.4303 -0.5852
28550SOL    HW192890  11.075   9.732   3.199 -0.6675 -0.2619  0.6123
28550SOL    HW292891  10.929   9.745   3.160 -0.3697 -0.0420 -0.4613
28551SOL     OW92892   1.711   9.462  10.720  0.0292 -0.4749  0.4160
28551SOL    HW192893   1.783   9.524  10.704  0.0589  0.0092  2.1558
28551SOL    HW292894   1.732   9.423  10.805 -1.1231 -1.2575  0.3620
28552SOL     OW92895   3.030  12.024   0.850  0.0295  0.1675 -0.2007
28552SOL    HW192896   3.108  12.000   0.901  1.5593  2.1323 -1.4480
28552SOL    HW292897   2.995  12.101   0.896  0.1753  0.6632 -0.9155
28553SOL     OW92898   6.174   9.400   4.021 -0.8802 -0.3605 -0.4377
28553SOL    HW192899   6.234   9.448   4.079 -1.2561 -1.2035  0.6832
28553SOL    HW292900   6.188   9.308   4.043 -0.1083 -0.8231 -2.6132
28554SOL     OW92901  11.979   7.265   0.214  0.4495 -0.0198  0.5567
28554SOL    HW192902  11.902   7.245   0.161  0.7021  0.9840 -0.2370
28554SOL    HW292903  11.980   7.198   0.282  0.2000 -1.4818 -0.8112
28555SOL     OW92904  10.371   8.928   6.057 -0.0654 -0.8418 -0.0538
28555SOL    HW192905  10.395   8.887   5.974 -2.4460 -1.2310 -0.6138
28555SOL    HW292906  10.284   8.893   6.077 -1.2408  2.1471  0.6277
28556SOL     OW92907   5.532  11.404   3.491  0.0049  0.2253  0.5777
28556SOL    HW192908   5.485  11.332   3.534 -1.6986 -0.2702 -1.9205
28556SOL    HW292909   5.491  11.413   3.406  1.2143  3.1811  0.1683
28557SOL     OW92910  12.665  10.504   7.028 -0.2302  0.0588 -0.1098
28557SOL    HW192911  12.737  10.561   7.002  0.7899 -0.7821  0.7595
28557SOL    HW292912  12.708  10.429   7.069 -1.5000 -1.5195 -1.5324
28558SOL     OW92913   2.141   3.866   6.677 -0.3725 -0.2036 -0.3007
28558SOL    HW192914   2.131   3.771   6.685 -1.5584  0.0450  1.9444
28558SOL    HW292915   2.235   3.880   6.669 -0.2214 -1.5817 -1.2589
28559SOL     OW92916   5.144  11.140   9.233  0.1054 -0.4764  0.0043
28559SOL    HW192917   5.168  11.047   9.229  0.6012 -0.3314 -0.4913
28559SOL    HW292918   5.049  11.139   9.242  0.0600 -1.0345 -0.4225
28560SOL     OW92919  10.250  11.462   9.242  0.3247  0.0118  0.3853
28560SOL    HW192920  10.241  11.557   9.251 -0.2993 -0.0313  0.3143
28560SOL    HW292921  10.222  11.445   9.152  1.2201 -0.1526  0.1299
28561SOL     OW92922  10.568   9.564  10.014 -0.9367 -0.2873  0.3518
28561SOL    HW192923  10.532   9.650   9.992  1.0623  0.7187  0.7862
28561SOL    HW292924  10.537   9.547  10.103 -0.4674  0.4776  0.6613
28562SOL     OW92925  12.140  11.229  11.594  0.4689 -0.1189  0.0050
28562SOL    HW192926  12.155  11.311  11.642  1.0501 -0.5231  0.5326
28562SOL    HW292927  12.047  11.211  11.608  0.1161  0.9145 -0.8794
28563SOL     OW92928  12.502   1.057   3.200 -0.5911 -0.9077 -0.2274
28563SOL    HW192929  12.511   1.151   3.183 -0.0210 -1.1257 -1.1383
28563SOL    HW292930  12.472   1.053   3.291 -3.5519  0.2849 -1.0177
28564SOL     OW92931   0.933  10.770  10.703  0.5489 -0.6866  0.0723
28564SOL    HW192932   0.875  10.759  10.779  0.7700 -1.3785  0.1493
28564SOL    HW292933   0.877  10.747  10.628 -0.1942  1.6580 -0.1778
28565SOL     OW92934   2.408   3.754  12.634  0.5696  0.2165 -0.2432
28565SOL    HW192935   2.372   3.822  12.577 -0.7398 -0.4712 -0.2798
28565SOL    HW292936   2.417   3.797  12.719  0.1765  0.5655 -0.3719
28566SOL     OW92937   2.458  10.412   3.854 -0.5287  0.4615 -0.9325
28566SOL    HW192938   2.456  10.439   3.762 -0.8655  0.2059 -1.0006
28566SOL    HW292939   2.547  10.434   3.883 -0.1651 -0.1555 -1.5342
28567SOL     OW92940   8.055   5.342   2.528  0.7838  0.2099  0.3899
28567SOL    HW192941   8.035   5.333   2.435 -0.7527 -1.0353  0.7804
28567SOL    HW292942   8.022   5.428   2.553 -1.9343 -0.7626  0.4380
28568SOL     OW92943   0.173   1.285   7.119 -0.5832  0.0266  0.9328
28568SOL    HW192944   0.087   1.255   7.146 -0.1105 -2.1294  0.2335
28568SOL    HW292945   0.156   1.356   7.057 -1.9541 -1.6255 -0.6685
28569SOL     OW92946   7.066   5.809   1.736  0.0646 -0.7309 -0.7906
28569SOL    HW192947   7.090   5.883   1.681  0.7782 -0.1822  0.2354
28569SOL    HW292948   7.094   5.833   1.824 -1.3879 -1.4195 -0.0899
28570SOL     OW92949   8.065   4.052   9.114  0.0306 -0.7174  0.0374
28570SOL    HW192950   7.991   4.011   9.068  0.1249 -0.9253  0.0703
28570SOL    HW292951   8.126   4.076   9.045 -0.2697 -0.1360 -0.0275
28571SOL     OW92952   8.263   9.970   6.205  0.4957 -0.2365 -0.1357
28571SOL    HW192953   8.318  10.031   6.157  0.3758  0.0906  0.1400
28571SOL    HW292954   8.280   9.990   6.297  0.6271 -0.7680 -0.0410
28572SOL     OW92955   8.333   8.082   2.692 -0.4146 -0.1413  0.2391
28572SOL    HW192956   8.411   8.136   2.707 -0.0774 -0.5506 -0.0059
28572SOL    HW292957   8.262   8.145   2.682  0.1640  0.3234 -1.1854
28573SOL     OW92958   2.808   4.439  11.795  0.1812  0.3728  0.0659
28573SOL    HW192959   2.850   4.365  11.751 -0.1564 -0.0288  0.4090
28573SOL    HW292960   2.775   4.494  11.724 -0.5751 -0.3928 -0.1938
28574SOL     OW92961   6.063  12.408   4.971 -0.5919  0.0744  0.2031
28574SOL    HW192962   6.124  12.458   5.024  0.1366 -1.0692  0.4858
28574SOL    HW292963   6.069  12.319   5.005 -0.3716 -0.6259 -1.5337
28575SOL     OW92964   1.688   1.571   0.434  0.5535 -0.1462  0.3522
28575SOL    HW192965   1.702   1.477   0.446  1.3554 -0.5565 -2.8933
28575SOL    HW292966   1.774   1.611   0.451  0.1522  0.0844  1.9845
28576SOL     OW92967   3.077   9.618   6.208 -0.1319  0.2379  0.3039
28576SOL    HW192968   2.988   9.627   6.174 -0.2503 -0.5084  0.4063
28576SOL    HW292969   3.073   9.656   6.296 -0.2801  0.4542  0.2051
28577SOL     OW92970  12.228   3.273   5.832  0.0812  0.0115 -0.1227
28577SOL    HW192971  12.323   3.270   5.833  0.1524 -1.2741 -2.6550
28577SOL    HW292972  12.204   3.314   5.915  2.7276 -1.6874  1.6018
28578SOL     OW92973   8.085   9.397   3.103 -0.5414  0.6098 -0.0097
28578SOL    HW192974   8.076   9.425   3.012  0.9526  1.6357  0.1235
28578SOL    HW292975   8.036   9.314   3.108 -2.5980  1.6713 -1.1444
28579SOL     OW92976   3.738   9.761   0.329 -0.1101  0.5653  0.4855
28579SOL    HW192977   3.797   9.688   0.352  0.9784  0.7553 -1.5226
28579SOL    HW292978   3.681   9.770   0.406  0.5862 -1.5271  1.3331
28580SOL     OW92979   4.742   6.897  11.318  0.4287  0.1357 -0.3763
28580SOL    HW192980   4.724   6.979  11.273 -0.3246  0.1792 -0.0173
28580SOL    HW292981   4.681   6.896  11.392 -0.9498 -1.5917 -1.4314
28581SOL     OW92982   6.618   3.078   4.671 -0.0984  0.1646  0.2854
28581SOL    HW192983   6.577   3.164   4.673 -2.6672 -0.9431 -0.2087
28581SOL    HW292984   6.629   3.059   4.577  2.1008  0.6346  0.4143
28582SOL     OW92985   9.887   4.304   4.542  0.2045 -0.0797 -0.4625
28582SOL    HW192986   9.798   4.270   4.531  1.3446 -2.5252 -4.2914
28582SOL    HW292987   9.902   4.357   4.463  2.8776 -1.9419 -1.3496
28583SOL     OW92988   4.784   4.322   5.805  0.1072 -0.2253 -0.3153
28583SOL    HW192989   4.873   4.294   5.788  0.2875  0.5978 -0.7600
28583SOL    HW292990   4.765   4.387   5.737 -0.5280  0.2221  0.2712
28584SOL     OW92991  11.421  10.854   5.322 -0.3748  0.6807  0.6333
28584SOL    HW192992  11.357  10.896   5.379 -0.8310 -0.1773  0.7771
28584SOL    HW292993  11.388  10.765   5.311 -1.0717  1.1724 -2.1077
28585SOL     OW92994   1.127   0.525   2.562  0.6357 -0.2468 -0.1193
28585SOL    HW192995   1.035   0.537   2.539  0.8688  3.7929  0.3516
28585SOL    HW292996   1.171   0.511   2.478 -0.0947  0.8827 -0.7136
28586SOL     OW92997   4.940  12.038  10.423 -0.4738  0.3039  0.4031
28586SOL    HW192998   4.881  12.103  10.384 -0.9134 -0.3620 -0.0659
28586SOL    HW292999   4.912  11.955  10.385  0.7529 -0.0336  0.1989
28587SOL     OW93000  10.393  10.136   6.997 -0.4931 -0.0076  0.8060
28587SOL    HW193001  10.404  10.046   6.967  1.3612  0.2238  0.7139
28587SOL    HW293002  10.440  10.140   7.080 -0.2317  0.9771  0.6220
28588SOL     OW93003   1.880  10.088   7.878 -0.1928 -0.2228 -0.1364
28588SOL    HW193004   1.842  10.168   7.842 -0.1304  0.2516  0.8139
28588SOL    HW293005   1.820  10.019   7.852 -0.6786  0.2483 -0.2832
28589SOL     OW93006  12.287   4.949   3.074 -0.0717 -0.1495 -0.3009
28589SOL    HW193007  12.243   4.889   3.013 -0.8086  1.3441 -1.3082
28589SOL    HW293008  12.230   4.949   3.152 -1.1451  0.6950 -1.0538
28590SOL     OW93009   6.793  12.313   6.004  0.7662 -0.5271 -0.3395
28590SOL    HW193010   6.785  12.246   6.072  1.1329 -0.0829  0.1478
28590SOL    HW293011   6.731  12.381   6.030  0.3537 -0.6862 -0.8649
28591SOL     OW93012   5.788   6.483   6.365  0.1477  0.4252 -0.0632
28591SOL    HW193013   5.849   6.410   6.372 -0.0541  0.2784  0.1885
28591SOL    HW293014   5.831   6.545   6.306  0.4378  0.2228 -0.0655
28592SOL     OW93015   9.936  11.961   7.749  0.0915  0.1933  0.6739
28592SOL    HW193016   9.986  12.013   7.687 -1.2662 -1.3375 -1.8557
28592SOL    HW293017   9.997  11.894   7.780  0.7299  0.8801  0.9343
28593SOL     OW93018   6.853   5.619   4.083 -0.7438  0.1582  0.2272
28593SOL    HW193019   6.914   5.680   4.123 -1.5645  3.0364 -2.5150
28593SOL    HW293020   6.907   5.547   4.052  1.2619  2.2312 -1.4021
28594SOL     OW93021   2.292   9.401   6.247 -0.3400  0.5394 -0.6230
28594SOL    HW193022   2.368   9.455   6.269  1.0208 -1.4481 -0.1062
28594SOL    HW293023   2.227   9.423   6.313  1.5461 -1.0232  1.9494
28595SOL     OW93024   4.214   3.207  11.710  0.0221  0.1326 -0.1713
28595SOL    HW193025   4.212   3.188  11.804 -0.3975 -1.2128 -0.4236
28595SOL    HW293026   4.122   3.216  11.685  0.1365  0.6172 -0.4382
28596SOL     OW93027   5.769   3.760   8.003 -0.1262  0.2617 -0.1290
28596SOL    HW193028   5.755   3.691   8.068 -2.7097 -0.0861 -0.9744
28596SOL    HW293029   5.828   3.721   7.939 -0.8017 -0.8529 -0.0968
28597SOL     OW93030   2.292   0.542   5.267  0.8249 -0.1277 -0.0460
28597SOL    HW193031   2.371   0.576   5.224  0.3810 -0.0739 -0.8440
28597SOL    HW293032   2.314   0.451   5.288  0.2959 -0.8862 -2.4567
28598SOL     OW93033   9.998  12.274   8.809  0.0662  0.7138  0.4494
28598SOL    HW193034   9.936  12.202   8.808 -1.6779  2.1462  0.5208
28598SOL    HW293035  10.084  12.232   8.819 -0.6445 -1.4650 -1.8139
28599SOL     OW93036   5.547   1.607   1.775 -0.0789 -0.4302 -0.0372
28599SOL    HW193037   5.466   1.657   1.763 -0.8120 -1.6415 -0.2633
28599SOL    HW293038   5.603   1.635   1.703 -1.6903 -2.2254 -2.1389
28600SOL     OW93039   1.286   2.284   9.494 -0.3154 -0.0250 -0.1020
28600SOL    HW193040   1.274   2.191   9.511  0.4513 -0.4621 -1.6848
28600SOL    HW293041   1.279   2.292   9.398  1.1122  1.2833 -0.1431
28601SOL     OW93042   2.824   1.539   3.752 -0.2850 -0.1570 -0.4003
28601SOL    HW193043   2.786   1.545   3.664  0.4241 -0.3595 -0.7267
28601SOL    HW293044   2.783   1.611   3.800 -0.2695  0.3046 -1.0575
28602SOL     OW93045  11.545   2.828   8.015 -0.9199  0.1065  0.1536
28602SOL    HW193046  11.485   2.815   7.941 -1.4286  0.4698  0.4969
28602SOL    HW293047  11.608   2.893   7.984 -0.2142 -0.8542 -0.4870
28603SOL     OW93048  12.310   2.261   5.860 -0.5577 -0.4525 -0.3499
28603SOL    HW193049  12.386   2.317   5.874 -0.5933 -0.3053 -0.7348
28603SOL    HW293050  12.347   2.179   5.825 -0.2984 -1.4486  2.0608
28604SOL     OW93051  12.071   6.881   7.314 -0.0081 -0.1966 -0.2974
28604SOL    HW193052  12.025   6.938   7.376 -2.4507 -1.2434 -1.0480
28604SOL    HW293053  12.125   6.825   7.369 -0.1570  0.5928  0.6935
28605SOL     OW93054   9.826   0.928  12.108 -0.2959 -0.3277  0.3383
28605SOL    HW193055   9.815   1.012  12.064  0.0468 -1.1189 -1.3497
28605SOL    HW293056   9.765   0.931  12.182  0.1973  1.6331  0.7043
28606SOL     OW93057   3.812   0.145   8.985 -0.0862  0.3223 -0.0923
28606SOL    HW193058   3.729   0.135   8.938 -0.6402 -0.1569  0.9593
28606SOL    HW293059   3.877   0.108   8.926 -0.2591  2.6279 -1.8754
28607SOL     OW93060   9.075   7.669   2.682 -0.0740 -0.0551 -0.0014
28607SOL    HW193061   9.140   7.605   2.655  0.8302  0.2842  1.2937
28607SOL    HW293062   9.000   7.617   2.709  0.5214 -0.5625  0.7093
28608SOL     OW93063   3.866   9.176   1.784  0.5806 -0.0635  0.2111
28608SOL    HW193064   3.856   9.201   1.692  0.6158  0.8537  0.4502
28608SOL    HW293065   3.810   9.099   1.795 -1.5319  1.3723  0.0625
28609SOL     OW93066   1.835   6.349   3.184  0.1953 -0.8095  0.0543
28609SOL    HW193067   1.778   6.290   3.234  0.9055 -2.0222 -0.5056
28609SOL    HW293068   1.796   6.353   3.097  0.7704 -1.3858 -0.2381
28610SOL     OW93069   9.567   8.121   9.426 -0.2767 -0.0310  0.0821
28610SOL    HW193070   9.542   8.159   9.342 -0.3303 -0.2529 -0.0012
28610SOL    HW293071   9.651   8.078   9.409  0.1361  0.6415  0.3385
28611SOL     OW93072   0.725   5.749   3.399  0.0759  0.4328 -0.2724
28611SOL    HW193073   0.695   5.839   3.385 -0.0608  0.8279  2.0638
28611SOL    HW293074   0.701   5.730   3.490  1.5962 -1.3853 -0.1906
28612SOL     OW93075   9.044   1.302   6.410 -0.1818 -0.1759  0.5205
28612SOL    HW193076   9.097   1.257   6.344  1.8291  0.2354  1.7733
28612SOL    HW293077   9.033   1.391   6.375  0.7111 -0.0138  0.6469
28613SOL     OW93078   6.384   7.061   7.024  0.9196  0.6035  0.6725
28613SOL    HW193079   6.291   7.079   7.009  0.7812 -0.7774 -0.4229
28613SOL    HW293080   6.404   7.104   7.106 -1.3239 -1.0101  2.1923
28614SOL     OW93081   4.594   4.960  10.885  0.1335 -0.4115 -0.1053
28614SOL    HW193082   4.534   4.968  10.960  0.2502  0.9277 -0.1396
28614SOL    HW293083   4.540   4.980  10.809  0.3230 -0.5141 -0.2694
28615SOL     OW93084   1.659   6.994   2.789 -0.2420  0.1278  1.0076
28615SOL    HW193085   1.708   7.056   2.734  2.7068  0.4237  3.6890
28615SOL    HW293086   1.585   7.045   2.823 -1.6916  0.1483 -1.8682
28616SOL     OW93087   1.259   7.297   5.684 -0.3389 -0.2261  0.1782
28616SOL    HW193088   1.216   7.289   5.768 -2.0153  1.6707 -0.4169
28616SOL    HW293089   1.192   7.334   5.626  0.7638 -1.4273 -1.9870
28617SOL     OW93090   7.044   8.363   2.031 -0.0038  0.1440 -0.2074
28617SOL    HW193091   7.086   8.287   2.071 -0.5935 -0.5280 -0.8176
28617SOL    HW293092   6.951   8.339   2.026 -0.3601  1.2854  0.4318
28618SOL     OW93093  11.834   1.040   5.880  0.0098 -0.1426  0.5114
28618SOL    HW193094  11.919   1.063   5.843 -0.0243 -0.0877  0.4666
28618SOL    HW293095  11.854   0.997   5.963  0.0411  1.5606  1.4385
28619SOL     OW93096  12.283   8.025   9.994 -0.0929  0.0380 -0.0177
28619SOL    HW193097  12.221   8.098   9.997 -0.7293 -0.4889 -0.1336
28619SOL    HW293098  12.364   8.065   9.962 -0.6522  0.5566 -0.8618
28620SOL     OW93099  10.249   6.021   2.040 -0.4582  0.5385  0.0696
28620SOL    HW193100  10.225   5.961   2.111 -0.5766 -2.0341 -1.9918
28620SOL    HW293101  10.169   6.028   1.987  0.5611 -0.4168 -1.6694
28621SOL     OW93102  10.467   7.276   7.635 -0.2789  0.1337 -0.5029
28621SOL    HW193103  10.515   7.206   7.591 -1.1912 -0.6041 -0.3691
28621SOL    HW293104  10.389   7.233   7.671 -0.5502  1.1009  0.1238
28622SOL     OW93105   5.607   7.465  10.248 -0.0360 -0.1869 -0.0313
28622SOL    HW193106   5.693   7.425  10.237  0.5571  1.0429  0.0062
28622SOL    HW293107   5.589   7.457  10.342 -0.3834 -1.2396 -0.1699
28623SOL     OW93108  10.915   8.150  12.477  0.0854 -0.1140 -0.1634
28623SOL    HW193109  10.978   8.082  12.501 -0.7077 -0.7996  0.0094
28623SOL    HW293110  10.829   8.108  12.485 -0.5751  1.4473  1.8526
28624SOL     OW93111   0.113   1.036  12.493 -0.1354  0.1726 -0.0660
28624SOL    HW193112   0.080   1.116  12.452  0.3031 -0.2994 -1.3706
28624SOL    HW293113   0.083   0.965  12.436  0.8211 -0.4714  0.2056
28625SOL     OW93114   1.901   4.764  10.283 -0.1419  0.5282 -0.4360
28625SOL    HW193115   1.981   4.796  10.326  0.0960 -2.2711  1.4510
28625SOL    HW293116   1.933   4.718  10.205  0.0142  0.1364 -0.1419
28626SOL     OW93117  11.029   2.199   7.260  0.2393 -0.1840  0.1774
28626SOL    HW193118  10.973   2.272   7.233 -1.4579 -1.9037 -1.2429
28626SOL    HW293119  11.110   2.211   7.209 -0.1575  0.5120 -0.3043
28627SOL     OW93120   2.714   5.976  11.622  0.3393  0.1977 -0.2684
28627SOL    HW193121   2.639   5.991  11.565 -1.0141 -0.6085  1.2241
28627SOL    HW293122   2.754   5.895  11.590 -0.1477 -0.0081 -0.3588
28628SOL     OW93123  12.061   3.101  11.317 -0.2623 -0.3065 -0.0461
28628SOL    HW193124  11.970   3.118  11.292 -0.4397  0.0847  0.8275
28628SOL    HW293125  12.063   3.007  11.335 -0.1959 -0.5431 -1.2290
28629SOL     OW93126   5.135   0.600   6.247  0.3257  0.1434  0.1949
28629SOL    HW193127   5.052   0.645   6.259 -0.0484 -0.0957 -1.3379
28629SOL    HW293128   5.135   0.531   6.313 -1.5205 -1.0023 -0.9274
28630SOL     OW93129   0.318   2.958  11.739 -0.3208  0.5315 -0.2410
28630SOL    HW193130   0.327   2.863  11.742 -2.0019  0.3768  0.7605
28630SOL    HW293131   0.333   2.980  11.647  2.1428 -0.4275 -0.1513
28631SOL     OW93132   3.596   9.369   6.751  0.0251  0.1924  0.2164
28631SOL    HW193133   3.651   9.338   6.679  1.9617  0.0424  1.6849
28631SOL    HW293134   3.593   9.464   6.740 -4.6441 -0.0106 -3.3902
28632SOL     OW93135   1.761   9.241  10.348  0.6960  0.2631  0.3290
28632SOL    HW193136   1.787   9.184  10.420  0.3352 -0.6615 -0.2650
28632SOL    HW293137   1.826   9.312  10.349 -0.7675  1.7767  3.2397
28633SOL     OW93138   2.160   2.666   9.555 -0.4926 -0.4793  0.0927
28633SOL    HW193139   2.079   2.716   9.559 -0.3274 -0.2600  1.3253
28633SOL    HW293140   2.229   2.732   9.550 -0.3954 -0.6587 -3.4267
28634SOL     OW93141  12.116   9.261   6.252 -0.0615 -0.4833 -0.1779
28634SOL    HW193142  12.133   9.291   6.341  2.0292  1.3378 -1.0946
28634SOL    HW293143  12.081   9.338   6.207 -1.8181 -1.5849 -0.8069
28635SOL     OW93144   4.656   1.763   3.109  0.9960 -0.2422  0.1451
28635SOL    HW193145   4.632   1.761   3.202  0.9161 -0.2585  0.1239
28635SOL    HW293146   4.677   1.673   3.087  1.3060 -0.1895  0.2245
28636SOL     OW93147   7.862  12.237   7.299  0.1923  0.5355  0.2161
28636SOL    HW193148   7.953  12.225   7.271 -0.5592  2.3450 -3.8105
28636SOL    HW293149   7.860  12.325   7.336  0.2784 -0.0790  1.7612
28637SOL     OW93150  10.890  10.656  12.508  0.1039 -0.3371 -0.0919
28637SOL    HW193151  10.856  10.711  12.579  0.5958 -0.0562 -0.0707
28637SOL    HW293152  10.879  10.567  12.540  0.3638 -0.2103  0.3632
28638SOL     OW93153   3.778   6.237   8.883  0.0496  0.7528  0.3677
28638SOL    HW193154   3.824   6.321   8.882  0.1773  0.7022  0.9825
28638SOL    HW293155   3.826   6.185   8.948 -0.5511  0.5059  0.6221
28639SOL     OW93156   2.942   0.584   3.770 -0.2542  0.0804  0.4654
28639SOL    HW193157   3.011   0.560   3.831 -0.1962  2.1210  1.2803
28639SOL    HW293158   2.967   0.670   3.738 -1.9119  0.4347  0.0034
28640SOL     OW93159   8.859  10.239   8.048 -0.4391 -0.3662 -0.4319
28640SOL    HW193160   8.913  10.228   7.970  0.7083 -0.8598  0.3965
28640SOL    HW293161   8.774  10.267   8.015  0.3368  0.5167 -1.7838
28641SOL     OW93162   2.858   1.084   0.489  0.1011  0.0885 -0.2557
28641SOL    HW193163   2.801   1.016   0.525  0.6165 -0.5070 -0.5269
28641SOL    HW293164   2.799   1.146   0.447 -0.4777  0.4909  1.0698
28642SOL     OW93165   9.799   1.195   8.193 -0.4120 -0.3652  0.2200
28642SOL    HW193166   9.884   1.238   8.193 -0.6247  0.1032  1.2302
28642SOL    HW293167   9.798   1.144   8.275 -1.1893 -0.1526  0.3565
28643SOL     OW93168   3.610   5.372   1.882  0.4917  0.3857  0.5501
28643SOL    HW193169   3.670   5.434   1.841  0.3248  2.1231  2.7029
28643SOL    HW293170   3.532   5.372   1.827  0.9515  1.2049 -0.1082
28644SOL     OW93171   0.037   7.550   3.203 -0.0708 -0.3686  0.2761
28644SOL    HW193172   0.079   7.615   3.260 -0.4196  0.0822  0.0328
28644SOL    HW293173  -0.055   7.576   3.202 -0.4934 -1.7367  1.3271
28645SOL     OW93174   9.052   1.156   2.634  0.1514  0.2780  0.0948
28645SOL    HW193175   9.107   1.078   2.650  0.3688  0.7234  1.6421
28645SOL    HW293176   8.981   1.149   2.697 -0.2926  0.9237 -0.3228
28646SOL     OW93177   7.200   2.908   2.310 -0.0344 -0.4081 -0.2573
28646SOL    HW193178   7.128   2.888   2.249  1.1629 -1.9269 -1.2477
28646SOL    HW293179   7.158   2.909   2.396 -1.4535 -0.0276 -0.9140
28647SOL     OW93180   2.877   7.440  10.011 -0.7283 -0.0739  0.2397
28647SOL    HW193181   2.844   7.528   9.994  1.0403  0.5199 -0.3939
28647SOL    HW293182   2.904   7.441  10.103  1.5423  0.9005 -0.3642
28648SOL     OW93183   2.533   2.037   4.400 -0.2783  0.1881 -0.0809
28648SOL    HW193184   2.476   2.030   4.323 -0.6889 -1.2204  0.3079
28648SOL    HW293185   2.549   2.131   4.410  0.2644  0.3643 -2.2103
28649SOL     OW93186   4.278   3.531   0.861 -0.3339 -0.4324 -0.4278
28649SOL    HW193187   4.281   3.558   0.953  0.9596 -0.2789 -0.4921
28649SOL    HW293188   4.312   3.442   0.862  0.3658 -0.1801 -0.8229
28650SOL     OW93189   1.172   7.744   2.408  0.1762  0.1242  0.1421
28650SOL    HW193190   1.254   7.702   2.384  1.0957  1.5880  0.5591
28650SOL    HW293191   1.198   7.831   2.440 -1.2168 -0.4107  3.1251
28651SOL     OW93192   2.379   2.871   0.035 -0.7015 -0.0104  0.3546
28651SOL    HW193193   2.454   2.814   0.053  0.3229  1.2338  0.1495
28651SOL    HW293194   2.316   2.851   0.104 -0.5015 -1.5887  0.1224
28652SOL     OW93195   4.320  10.210   0.098 -0.0250  0.2494  0.4430
28652SOL    HW193196   4.345  10.141   0.037 -0.4814  0.4897 -0.0184
28652SOL    HW293197   4.352  10.179   0.183  1.0080  0.1172  0.0208
28653SOL     OW93198   9.091   5.797   6.829 -0.1327 -0.4258 -0.3118
28653SOL    HW193199   9.031   5.864   6.862  1.0022 -0.1565  1.2743
28653SOL    HW293200   9.039   5.716   6.829 -0.3664 -0.3126  1.5932
28654SOL     OW93201   2.941   3.718   9.343  0.3316  0.9508  0.1296
28654SOL    HW193202   2.886   3.664   9.400  0.4958  0.5648 -0.0740
28654SOL    HW293203   2.965   3.660   9.271  0.1141  1.4400 -0.3459
28655SOL     OW93204   0.212   7.305   6.534  0.0223  0.0074  0.2249
28655SOL    HW193205   0.306   7.286   6.544 -0.4477 -2.5179  0.4816
28655SOL    HW293206   0.205   7.398   6.552  2.2485 -0.0822  2.0806
28656SOL     OW93207  11.768   7.707   4.770  0.3707  0.5509 -0.2746
28656SOL    HW193208  11.702   7.760   4.724  1.0407  0.8741 -0.8654
28656SOL    HW293209  11.768   7.623   4.724 -1.5551 -0.4696  1.3907
28657SOL     OW93210  10.312   2.413   8.005  0.1687  0.3201  0.7208
28657SOL    HW193211  10.324   2.377   7.917  0.3716  1.2973  0.3403
28657SOL    HW293212  10.256   2.349   8.049 -0.4714  0.1310 -0.3299
28658SOL     OW93213   7.960  10.077   2.152  0.0792  0.2803 -0.8851
28658SOL    HW193214   7.883  10.020   2.155 -0.8540  1.4994 -0.7290
28658SOL    HW293215   7.949  10.128   2.072  0.3980  0.8886 -0.5501
28659SOL     OW93216   7.031   2.607   0.927 -0.1776 -0.1561 -0.1214
28659SOL    HW193217   6.948   2.652   0.913 -0.9559 -1.3993  0.3363
28659SOL    HW293218   7.040   2.600   1.022  0.2142 -0.4377 -0.1717
28660SOL     OW93219   9.266   2.330   3.897 -0.2238 -0.3459  0.3292
28660SOL    HW193220   9.337   2.296   3.951  1.5332  0.5779 -1.2611
28660SOL    HW293221   9.242   2.413   3.938 -0.1519 -0.5203  0.7209
28661SOL     OW93222  10.206   6.382   3.824  0.6268 -0.0550 -0.5676
28661SOL    HW193223  10.143   6.452   3.839 -0.4668 -1.2093  0.5278
28661SOL    HW293224  10.222   6.382   3.730  0.3697  1.4000 -0.6251
28662SOL     OW93225   7.262   4.519   4.763 -0.2020 -0.4342  0.6821
28662SOL    HW193226   7.212   4.566   4.697 -0.3172 -0.2684  0.8848
28662SOL    HW293227   7.334   4.578   4.785  0.2061 -0.7638  0.2353
28663SOL     OW93228  11.798   4.636   0.721 -0.5926 -0.3183 -0.3885
28663SOL    HW193229  11.734   4.615   0.789 -0.2873 -1.6564 -0.4915
28663SOL    HW293230  11.766   4.591   0.643  0.2485 -0.6742 -0.5393
28664SOL     OW93231   0.042   4.780   7.732  0.2348  0.0593  0.3841
28664SOL    HW193232   0.061   4.866   7.769  2.8598 -0.0961 -0.4116
28664SOL    HW293233   0.059   4.790   7.639 -2.0007 -0.6980 -0.1666
28665SOL     OW93234   7.890   0.742  10.668  0.0225 -0.3853  0.0999
28665SOL    HW193235   7.961   0.806  10.670  0.1357 -0.3544 -2.3780
28665SOL    HW293236   7.827   0.778  10.606 -1.0059 -1.5995  0.3954
28666SOL     OW93237  11.338   8.296   9.215  0.1195  0.4826 -0.3132
28666SOL    HW193238  11.266   8.238   9.191  0.6317 -0.0940 -0.5108
28666SOL    HW293239  11.300   8.358   9.278 -0.5924  0.3342 -0.5909
28667SOL     OW93240   2.392   1.420   3.312 -0.5473  0.0579  0.1260
28667SOL    HW193241   2.422   1.510   3.328  0.4971 -0.4132  0.9991
28667SOL    HW293242   2.343   1.425   3.231  0.1657  1.2911 -0.2607
28668SOL     OW93243   2.198  11.889   6.397 -0.0803  0.2222  0.4622
28668SOL    HW193244   2.207  11.799   6.428 -3.6677 -1.4079 -2.3976
28668SOL    HW293245   2.273  11.903   6.340 -0.4408 -1.8356 -0.6345
28669SOL     OW93246   2.954  11.379   8.055  0.4551 -0.1573 -0.0985
28669SOL    HW193247   2.987  11.427   7.979  3.0620 -1.8552 -0.1776
28669SOL    HW293248   3.010  11.408   8.127  1.5017 -2.3010  0.0269
28670SOL     OW93249   6.954  12.412   3.626  0.3120 -0.0349 -0.2358
28670SOL    HW193250   6.961  12.505   3.648  1.3960 -0.3500  0.8733
28670SOL    HW293251   7.014  12.400   3.553  1.2473 -0.1073  0.5201
28671SOL     OW93252   2.594   5.818   7.621 -0.3083 -0.1456 -0.2071
28671SOL    HW193253   2.635   5.762   7.686 -1.1214  0.0205  0.4499
28671SOL    HW293254   2.534   5.874   7.670  1.0089  1.8402 -0.7084
28672SOL     OW93255   5.127   4.987   6.477  0.4331  0.0492 -0.2426
28672SOL    HW193256   5.070   4.917   6.509 -1.7599  1.0815 -1.5814
28672SOL    HW293257   5.147   5.039   6.555 -0.3989 -0.4199  0.3026
28673SOL     OW93258   8.914   2.428   3.838 -0.9395  0.3212 -0.1237
28673SOL    HW193259   8.985   2.482   3.804 -0.8453  0.5628  0.4640
28673SOL    HW293260   8.922   2.345   3.790 -0.4377  0.4476 -0.2611
28674SOL     OW93261  11.672   2.216   9.269 -0.2442 -0.2585  0.4502
28674SOL    HW193262  11.705   2.276   9.335 -2.0678  0.3484  0.8662
28674SOL    HW293263  11.671   2.266   9.188  0.3716 -0.4581  0.3164
28675SOL     OW93264   7.524   3.517   2.786 -0.2047 -0.6539  0.0057
28675SOL    HW193265   7.588   3.574   2.828 -0.6701 -0.0985 -0.0240
28675SOL    HW293266   7.576   3.461   2.729  0.7520 -3.1496  3.0838
28676SOL     OW93267   4.099   3.477  12.508 -0.5924 -0.1366 -0.0384
28676SOL    HW193268   4.157   3.429  12.449  0.7026 -0.2259  1.2514
28676SOL    HW293269   4.137   3.465  12.595 -1.7351  1.0217  0.6679
28677SOL     OW93270   3.312   3.566   3.302  0.1014  0.2353 -0.0144
28677SOL    HW193271   3.364   3.522   3.235 -0.2076 -0.4433  0.1770
28677SOL    HW293272   3.372   3.578   3.375 -0.0408 -0.6796  0.2617
28678SOL     OW93273   9.900   3.968   8.069 -0.2545 -0.1936  0.2436
28678SOL    HW193274   9.849   3.902   8.022  1.7520 -2.6356  1.2793
28678SOL    HW293275   9.987   3.966   8.028  0.6463 -0.1919  2.0398
28679SOL     OW93276   4.226  10.158   6.787  0.2525 -0.0404 -0.4798
28679SOL    HW193277   4.138  10.120   6.790  0.1977  0.0589 -0.7410
28679SOL    HW293278   4.255  10.144   6.697  0.6447 -0.3795 -0.3032
28680SOL     OW93279  12.001   7.526   7.409 -0.5619  0.3824  0.6144
28680SOL    HW193280  12.044   7.536   7.494  0.4964  0.0863  0.1336
28680SOL    HW293281  11.908   7.530   7.429 -0.3278  1.6443  1.6263
28681SOL     OW93282   5.370   3.704   9.448 -0.1137  0.1866  0.6387
28681SOL    HW193283   5.370   3.666   9.360 -1.7714 -0.1568  0.7567
28681SOL    HW293284   5.388   3.630   9.506  0.0393  0.2287  0.6434
28682SOL     OW93285   9.265   3.258   6.462  0.2155  0.4551  0.6730
28682SOL    HW193286   9.278   3.201   6.538  0.7394  1.1311  1.1059
28682SOL    HW293287   9.349   3.257   6.417 -0.4280 -0.8824 -0.5901
28683SOL     OW93288   3.674  10.059   0.557  0.3155  0.4604  0.2600
28683SOL    HW193289   3.608  10.057   0.488  0.4403  0.7685  0.1261
28683SOL    HW293290   3.750  10.016   0.518 -0.0325 -0.5491  0.6666
28684SOL     OW93291   8.772   1.589   0.869 -0.0281  0.0828  0.2189
28684SOL    HW193292   8.706   1.529   0.834  0.3312 -0.2519  0.1041
28684SOL    HW293293   8.829   1.533   0.922  0.0003  0.4192  0.5472
28685SOL     OW93294   7.361  12.206   9.770  0.0306  0.3208 -0.3562
28685SOL    HW193295   7.398  12.287   9.737 -0.4695  0.1140 -1.4900
28685SOL    HW293296   7.408  12.189   9.851  0.6851  1.3257 -0.5062
28686SOL     OW93297   9.915   5.341   3.665  0.6114  0.0214 -0.3874
28686SOL    HW193298   9.868   5.404   3.720 -1.2971 -2.0144  0.4541
28686SOL    HW293299   9.915   5.381   3.578 -0.1802  1.3579  0.1953
28687SOL     OW93300   3.009  11.215  11.413 -0.1257  0.3508 -0.4148
28687SOL    HW193301   2.993  11.146  11.349 -0.9358  1.8879 -1.9611
28687SOL    HW293302   2.932  11.214  11.469 -0.6254  0.6409 -1.0781
28688SOL     OW93303   6.363   2.996   1.024  0.2740 -0.2407 -0.6724
28688SOL    HW193304   6.399   3.080   1.052 -2.5863  0.1959  2.2404
28688SOL    HW293305   6.321   3.014   0.940  1.3772  0.7055 -1.0505
28689SOL     OW93306   3.509   6.977  10.369  0.6592  0.0914 -0.3195
28689SOL    HW193307   3.444   6.959  10.437  0.2031 -1.1324 -1.0502
28689SOL    HW293308   3.551   7.058  10.398  0.5459 -0.4403  1.4642
28690SOL     OW93309   6.717  12.333   5.736 -0.5422 -0.1954  0.3379
28690SOL    HW193310   6.753  12.342   5.824  0.4224 -1.1612  0.0636
28690SOL    HW293311   6.622  12.338   5.749 -0.6378 -3.2034  1.8812
28691SOL     OW93312  11.835  10.329   2.234  0.0057 -0.7148 -0.4291
28691SOL    HW193313  11.753  10.339   2.185  0.2963  0.6105 -0.6996
28691SOL    HW293314  11.903  10.327   2.166  0.2245 -1.6220 -0.1965
28692SOL     OW93315   1.228   2.762   6.251 -0.3622 -0.1520  0.2025
28692SOL    HW193316   1.283   2.698   6.295 -0.3814  0.3823  1.0239
28692SOL    HW293317   1.288   2.810   6.194 -0.0122  0.2943  0.9398
28693SOL     OW93318   2.698   8.649   2.493 -0.3313 -0.6587 -0.2338
28693SOL    HW193319   2.603   8.650   2.481 -0.5438 -0.2700  1.3204
28693SOL    HW293320   2.731   8.706   2.423 -1.0702 -2.0780 -1.8308
28694SOL     OW93321  10.328   5.615   0.257 -0.8716 -0.1630  0.0346
28694SOL    HW193322  10.314   5.685   0.320 -0.9505 -0.4457  0.3382
28694SOL    HW293323  10.351   5.539   0.311  0.4764 -0.0651 -0.3676
28695SOL     OW93324   8.451   5.998   0.403  0.7485  0.4005 -0.1375
28695SOL    HW193325   8.528   5.993   0.459  2.0835  0.4920 -1.8660
28695SOL    HW293326   8.469   5.936   0.332 -2.1779 -1.9023  0.9575
28696SOL     OW93327  12.572  11.234   7.926  0.1196  0.4243 -0.0564
28696SOL    HW193328  12.598  11.176   7.855 -0.0762 -1.1683  1.1131
28696SOL    HW293329  12.546  11.315   7.883  0.6103 -0.2733 -1.7355
28697SOL     OW93330   2.455   8.027   1.347  0.1988  0.0522 -0.2953
28697SOL    HW193331   2.414   8.103   1.388  0.1437 -0.2161  0.1561
28697SOL    HW293332   2.388   7.959   1.351  0.6345 -0.3545  0.3328
28698SOL     OW93333  11.073   6.279  11.029 -0.1955  0.2432  0.2206
28698SOL    HW193334  11.135   6.238  10.968 -2.3945 -0.4236 -1.6932
28698SOL    HW293335  11.098   6.372  11.027  1.4237 -0.1484  0.3910
28699SOL     OW93336   6.108   1.853   3.496 -0.1169 -0.2350 -0.1806
28699SOL    HW193337   6.133   1.921   3.434  1.9388  0.5148  1.3532
28699SOL    HW293338   6.013   1.860   3.503 -0.0180  2.1562 -0.4493
28700SOL     OW93339   8.469   0.483   6.625 -0.1742 -0.0576 -0.3335
28700SOL    HW193340   8.419   0.438   6.693 -1.5509  1.8052 -0.0401
28700SOL    HW293341   8.533   0.535   6.673 -0.1434  0.0906 -0.5340
28701SOL     OW93342   0.030  10.313   3.756 -0.1542  0.1263 -0.4390
28701SOL    HW193343  -0.029  10.379   3.791 -1.7903 -2.4666  2.1742
28701SOL    HW293344  -0.025  10.261   3.697  0.4621 -0.2625 -0.6829
28702SOL     OW93345   7.073   5.598  12.152 -0.1826  0.3407 -0.2929
28702SOL    HW193346   7.066   5.503  12.165  0.0715  0.0326 -2.1876
28702SOL    HW293347   7.089   5.633  12.240 -2.3028 -1.1390  0.7794
28703SOL     OW93348  10.541  11.952   3.692  0.0686  0.4107 -0.7432
28703SOL    HW193349  10.481  11.957   3.766  0.2290 -0.9467 -0.4900
28703SOL    HW293350  10.578  11.864   3.697  0.7199  0.5882 -1.9450
28704SOL     OW93351  11.583   8.907   3.368  0.3173  0.7071 -0.4071
28704SOL    HW193352  11.508   8.925   3.311  0.2368  0.4231 -0.3902
28704SOL    HW293353  11.548   8.914   3.456  0.5739  1.7358 -0.3754
28705SOL     OW93354  10.953  11.165   0.037 -0.4270  0.0017  0.9696
28705SOL    HW193355  11.011  11.124  -0.028  0.6089  0.4095  1.6100
28705SOL    HW293356  11.011  11.189   0.109 -1.5511 -0.4660  2.0727
28706SOL     OW93357  11.390   6.548   5.510 -0.0626 -0.5014 -0.2738
28706SOL    HW193358  11.400   6.483   5.440 -0.6308  0.3726 -1.1953
28706SOL    HW293359  11.473   6.596   5.509  0.8581 -1.9465  1.2343
28707SOL     OW93360   4.181  12.607   6.423  0.3949  0.5123  0.0138
28707SOL    HW193361   4.224  12.670   6.365 -0.1368  0.7705 -0.1122
28707SOL    HW293362   4.088  12.628   6.416  0.0959 -0.9996 -0.8727
28708SOL     OW93363   8.299  10.662   1.435 -0.3220  0.0757  0.2885
28708SOL    HW193364   8.354  10.614   1.373  1.7753  1.1440  1.1902
28708SOL    HW293365   8.308  10.613   1.517  0.0301  0.7292  0.6548
28709SOL     OW93366  10.106   8.742   1.628  0.0747  0.4345 -0.2090
28709SOL    HW193367  10.112   8.815   1.690  1.0261 -0.9003  1.3662
28709SOL    HW293368  10.197   8.711   1.619 -0.2658 -0.3673 -1.0624
28710SOL     OW93369   7.544   6.302   5.647 -0.7170 -0.4589 -0.3671
28710SOL    HW193370   7.522   6.335   5.734 -0.8864 -1.0479 -0.1878
28710SOL    HW293371   7.625   6.253   5.659  0.1478  0.7822 -0.8310
28711SOL     OW93372   8.917   6.364  11.957 -0.5459 -0.3220  0.2838
28711SOL    HW193373   8.927   6.447  11.911  0.2283 -0.3399  0.4105
28711SOL    HW293374   8.879   6.305  11.892  0.9316 -0.4655 -0.5004
28712SOL     OW93375   3.861   5.861   8.162 -0.1470  0.0003  0.0887
28712SOL    HW193376   3.807   5.851   8.241 -0.4763 -0.7732 -0.2204
28712SOL    HW293377   3.944   5.896   8.194 -0.3262 -0.1769  0.7664
28713SOL     OW93378  11.389   2.798  11.162 -0.2355 -0.3540 -0.3932
28713SOL    HW193379  11.323   2.866  11.155 -0.2939 -0.3935 -0.2380
28713SOL    HW293380  11.470   2.845  11.182 -0.0242 -0.2240 -1.5104
28714SOL     OW93381   5.274  11.142   2.234 -0.1956 -0.8914  0.2553
28714SOL    HW193382   5.292  11.093   2.314  1.3618  0.7571  0.9876
28714SOL    HW293383   5.309  11.088   2.164  1.5048 -0.8717  1.0396
28715SOL     OW93384  11.428  11.890  12.339 -0.3074  0.4254 -0.3065
28715SOL    HW193385  11.508  11.927  12.304  0.4646 -0.2304  0.6996
28715SOL    HW293386  11.390  11.841  12.266  1.5011 -1.3098 -0.1796
28716SOL     OW93387   8.092   3.085   4.614 -0.0951  0.3575 -0.1279
28716SOL    HW193388   8.098   3.145   4.689  1.0047  1.0090 -0.7070
28716SOL    HW293389   8.026   3.125   4.557 -1.5266 -0.5549  0.8122
28717SOL     OW93390   2.745  12.222   8.657  0.0533  0.3703  0.0681
28717SOL    HW193391   2.764  12.315   8.643  1.2637  0.2833  0.9557
28717SOL    HW293392   2.757  12.209   8.751 -0.6310 -0.5803  0.0370
28718SOL     OW93393   6.632   9.619   0.860  0.4673  0.0608  0.4376
28718SOL    HW193394   6.579   9.679   0.914  0.8889  0.7178  0.1312
28718SOL    HW293395   6.722   9.644   0.878  0.6101  0.4206 -0.7154
28719SOL     OW93396   1.997   8.340   2.659 -0.1328  0.0828  0.7136
28719SOL    HW193397   1.959   8.427   2.652 -0.1110  0.1107  0.9284
28719SOL    HW293398   1.965   8.293   2.581 -2.5345 -0.6401  2.0159
28720SOL     OW93399  12.560  10.288   2.427 -0.4051 -0.1744  0.4389
28720SOL    HW193400  12.624  10.342   2.380 -0.2630  1.0100  1.9325
28720SOL    HW293401  12.607  10.208   2.449 -0.0030 -0.0777 -0.0596
28721SOL     OW93402   2.919   1.216  10.613  0.3205  0.6238  0.2935
28721SOL    HW193403   2.831   1.190  10.640 -0.5578  1.6155 -1.4138
28721SOL    HW293404   2.938   1.161  10.537  1.9481 -0.8001  1.6326
28722SOL     OW93405   3.026   6.685  10.383  0.2165 -0.1867 -0.2168
28722SOL    HW193406   3.049   6.655  10.295  0.6289  2.2855 -1.0390
28722SOL    HW293407   3.062   6.619  10.442  1.0589 -1.2456 -1.8537
28723SOL     OW93408   5.118   3.654  11.938  0.3991 -0.1502 -0.4268
28723SOL    HW193409   5.094   3.562  11.924 -1.4746  0.1039  0.7740
28723SOL    HW293410   5.139   3.659  12.031 -0.5220  0.8324 -0.2559
28724SOL     OW93411   9.801   1.199   4.702  0.4183 -0.1016  0.7255
28724SOL    HW193412   9.722   1.159   4.667 -0.0931  0.5258  1.1476
28724SOL    HW293413   9.861   1.126   4.717  0.5287 -0.4225 -1.1264
28725SOL     OW93414   2.669  12.380   5.211 -0.3042 -0.2640  0.0114
28725SOL    HW193415   2.589  12.428   5.232 -0.5524 -0.0276 -1.3975
28725SOL    HW293416   2.639  12.306   5.157  0.3659 -0.4826 -0.0666
28726SOL     OW93417   6.204  11.797   3.995  0.1058  0.1296  0.5282
28726SOL    HW193418   6.257  11.741   3.938 -0.1250  0.8479 -0.4302
28726SOL    HW293419   6.254  11.803   4.076  0.7380 -0.4442  0.1945
28727SOL     OW93420   6.731   1.313  12.203 -0.0059 -0.3439  0.2928
28727SOL    HW193421   6.791   1.288  12.272 -0.2052  3.2460  1.9605
28727SOL    HW293422   6.787   1.345  12.132  0.1878  1.2573  1.1173
28728SOL     OW93423   4.587   6.366  12.061  0.3829 -0.3194 -0.2012
28728SOL    HW193424   4.668   6.367  12.010  0.0329  0.5068 -0.7599
28728SOL    HW293425   4.586   6.452  12.104  0.0950 -0.5595  0.2726
28729SOL     OW93426  12.066  10.035   7.732 -0.3034  0.6578  0.1751
28729SOL    HW193427  12.072   9.947   7.770 -0.7024  0.8423  0.6686
28729SOL    HW293428  12.061  10.019   7.638  0.4868  0.1917  0.1983
28730SOL     OW93429   6.482   3.959   5.400  0.1119 -0.2422  0.5231
28730SOL    HW193430   6.494   3.899   5.326  0.6002 -0.2915  0.6392
28730SOL    HW293431   6.398   3.932   5.439  0.0955 -0.5406  0.2917
28731SOL     OW93432   1.579  11.067   8.183 -0.6765 -0.4174 -0.3859
28731SOL    HW193433   1.563  11.048   8.091  0.8058  0.5820 -0.8800
28731SOL    HW293434   1.538  11.152   8.197 -0.0446 -0.1101 -0.3884
28732SOL     OW93435   0.572   0.093   3.508  0.0856  0.1045 -0.2059
28732SOL    HW193436   0.565   0.015   3.563 -2.8985  0.1010 -0.4473
28732SOL    HW293437   0.542   0.065   3.422  0.4023  1.1855 -0.6894
28733SOL     OW93438   2.426   7.481   7.090  0.3946  0.0313  0.1734
28733SOL    HW193439   2.480   7.451   7.164  2.3623 -0.4309 -1.3706
28733SOL    HW293440   2.450   7.573   7.079  1.2919 -0.2916 -0.8001
28734SOL     OW93441  10.823   8.470   0.001 -0.2174 -0.0911  0.6197
28734SOL    HW193442  10.899   8.411  -0.001  0.0689  0.2734 -0.8535
28734SOL    HW293443  10.748   8.412  -0.012  0.1380 -0.1022 -1.8970
28735SOL     OW93444  10.710   1.805   5.932  0.1590 -0.0735 -0.3794
28735SOL    HW193445  10.651   1.800   5.856  0.4536  1.7390 -0.7720
28735SOL    HW293446  10.789   1.846   5.898  0.4573  0.3833  0.8236
28736SOL     OW93447   7.018   4.115   7.652  0.1717 -0.1628 -0.4007
28736SOL    HW193448   7.107   4.095   7.624  0.2596 -0.0797 -0.1772
28736SOL    HW293449   6.970   4.130   7.570  0.3434 -0.2846 -0.5230
28737SOL     OW93450   9.114   3.015   5.535  0.4661  0.0243 -0.1765
28737SOL    HW193451   9.032   2.967   5.526 -0.1512  1.1416 -0.6305
28737SOL    HW293452   9.167   2.987   5.460  0.7143 -1.0610  0.3789
28738SOL     OW93453   3.224   7.620   7.588  0.2721 -0.1149 -0.2745
28738SOL    HW193454   3.315   7.635   7.613  0.2960 -0.2425 -0.2837
28738SOL    HW293455   3.185   7.577   7.664  0.5064 -1.0807 -0.6911
28739SOL     OW93456   0.734   8.957   3.630 -0.1069  0.5051  0.1020
28739SOL    HW193457   0.759   9.009   3.706 -0.3355  0.6431  0.0833
28739SOL    HW293458   0.639   8.948   3.638  0.0038 -0.4810  0.4752
28740SOL     OW93459   9.864   7.535   1.808  0.5843  0.0858  0.2485
28740SOL    HW193460   9.895   7.446   1.789  0.2709 -0.8191  3.3876
28740SOL    HW293461   9.795   7.551   1.744 -0.3595 -2.5559  0.4770
28741SOL     OW93462   0.584  12.387   9.294 -0.2912 -0.1353  0.1248
28741SOL    HW193463   0.571  12.379   9.389  1.0981 -2.4238  0.1987
28741SOL    HW293464   0.503  12.353   9.256 -0.5012 -0.0484  0.4855
28742SOL     OW93465   6.067   4.315   6.809 -0.1222 -0.1922 -0.1157
28742SOL    HW193466   6.147   4.342   6.764  0.0273 -1.1844 -0.4664
28742SOL    HW293467   5.996   4.341   6.750 -0.1422  1.4813  0.5856
28743SOL     OW93468   4.509  10.972  12.631  0.4917  0.0779 -0.2253
28743SOL    HW193469   4.502  11.053  12.580  2.1103 -0.0153 -0.6614
28743SOL    HW293470   4.583  10.926  12.592  0.1498 -1.2110  0.5910
28744SOL     OW93471  10.212  12.040   2.958  0.0982 -0.0736  0.4585
28744SOL    HW193472  10.295  12.085   2.943 -0.0783  0.2660  0.4830
28744SOL    HW293473  10.152  12.077   2.893 -0.4257  0.7497  1.3821
28745SOL     OW93474   7.155   2.619   7.988  0.1870  0.2523 -0.0423
28745SOL    HW193475   7.116   2.540   7.950  1.2792 -1.1552  1.5656
28745SOL    HW293476   7.081   2.679   8.000 -1.0372 -1.2805  0.4315
28746SOL     OW93477   2.249   7.613  12.364 -0.2571  0.1279 -0.2550
28746SOL    HW193478   2.197   7.545  12.321  1.8761 -1.9058  0.1906
28746SOL    HW293479   2.189   7.651  12.429 -0.7384 -3.6697  1.8525
28747SOL     OW93480   9.130   9.251  10.394  0.2348 -0.4332 -0.5858
28747SOL    HW193481   9.202   9.234  10.333  0.9978  1.3724 -0.2412
28747SOL    HW293482   9.057   9.199  10.360  0.8634 -0.0771 -2.6058
28748SOL     OW93483   1.415   1.620   7.399 -0.2724 -0.0147  0.2719
28748SOL    HW193484   1.320   1.623   7.411 -0.4761  0.3607 -1.2579
28748SOL    HW293485   1.435   1.696   7.345  1.1694  0.9267  2.0056
28749SOL     OW93486   7.263  11.671   0.014  0.3164  0.4552 -0.1960
28749SOL    HW193487   7.183  11.620   0.024  0.2908  0.6602  0.7966
28749SOL    HW293488   7.247  11.751   0.064  0.7070  1.0308 -0.9614
28750SOL     OW93489   6.069   9.377   7.860 -0.4768  0.1476  0.5228
28750SOL    HW193490   6.045   9.351   7.950 -2.6802  0.5840  0.1278
28750SOL    HW293491   6.009   9.448   7.839 -1.6265 -1.4488 -2.0883
28751SOL     OW93492  12.184   2.702  10.810 -0.0931 -0.4987 -0.2006
28751SOL    HW193493  12.230   2.778  10.774  1.0598 -1.1793 -0.2140
28751SOL    HW293494  12.250   2.633  10.813 -0.2360 -0.6241  2.8163
28752SOL     OW93495   0.220   5.037  10.214  1.0356 -0.2334 -0.0261
28752SOL    HW193496   0.200   5.116  10.265 -0.0756  0.1231 -0.9641
28752SOL    HW293497   0.260   4.977  10.277 -0.5342  0.0778  1.3490
28753SOL     OW93498  11.720   0.386   1.936  0.8449 -0.4215  0.1960
28753SOL    HW193499  11.658   0.455   1.912  0.5787 -0.4364  0.8181
28753SOL    HW293500  11.800   0.433   1.960  0.3199 -0.2259  1.7056
28754SOL     OW93501   4.932   8.698   9.311 -0.9332 -0.2951 -0.3205
28754SOL    HW193502   4.886   8.649   9.379  0.0625  0.3625  0.8593
28754SOL    HW293503   5.009   8.734   9.355 -0.2552  0.1439 -1.8033
28755SOL     OW93504   3.119   9.620   4.801  0.1407  0.0776 -0.0847
28755SOL    HW193505   3.214   9.626   4.785  0.3590 -0.7974  0.8067
28755SOL    HW293506   3.093   9.538   4.757 -0.3386  0.6483 -0.8921
28756SOL     OW93507  10.764  10.626   8.840 -0.2312 -0.1490 -0.0738
28756SOL    HW193508  10.806  10.647   8.923 -1.2440  1.3622  0.0973
28756SOL    HW293509  10.674  10.602   8.864  0.1109 -2.0895 -0.5423
28757SOL     OW93510   0.691   0.088   2.613  0.8872 -0.6754  0.1895
28757SOL    HW193511   0.779   0.070   2.646  0.2109  1.6783  4.0503
28757SOL    HW293512   0.635   0.080   2.691 -1.6736  1.5440 -1.2497
28758SOL     OW93513   2.251   9.118   2.026 -0.0265  0.0709  0.1718
28758SOL    HW193514   2.259   9.022   2.031 -0.1182 -0.1896 -2.8175
28758SOL    HW293515   2.176   9.138   2.081 -0.2445 -1.6198  0.5597
28759SOL     OW93516   1.413  12.247   8.584  0.5356  0.3595  0.3166
28759SOL    HW193517   1.488  12.212   8.537 -0.7048 -1.4649 -0.4596
28759SOL    HW293518   1.394  12.181   8.652  0.0302  1.1019  0.9184
28760SOL     OW93519   2.704  11.959  11.250  0.3730  0.0977  0.6220
28760SOL    HW193520   2.642  12.016  11.206 -0.3283 -3.1133 -3.0734
28760SOL    HW293521   2.650  11.892  11.293  1.1905 -0.5606  0.6658
28761SOL     OW93522   2.838   7.812   6.170  0.1171 -0.1810 -0.0088
28761SOL    HW193523   2.902   7.806   6.099  0.9719 -1.3927  0.8117
28761SOL    HW293524   2.887   7.848   6.243 -0.7107  0.8938  0.0351
28762SOL     OW93525  11.962   3.197   5.098 -0.0829 -0.1134  0.0806
28762SOL    HW193526  12.034   3.203   5.035 -1.6955 -0.6933 -1.9388
28762SOL    HW293527  11.896   3.143   5.053 -2.0023  0.8515  1.6096
28763SOL     OW93528   0.654   7.784   8.189 -0.4743  1.1587 -0.4701
28763SOL    HW193529   0.641   7.700   8.233 -0.0008  1.8993  1.1556
28763SOL    HW293530   0.744   7.781   8.156 -0.7583  0.6923 -1.2444
28764SOL     OW93531   7.040   9.155   7.827  0.1945 -0.1014  0.1877
28764SOL    HW193532   7.016   9.205   7.905  0.3752  1.9491 -0.9814
28764SOL    HW293533   6.973   9.087   7.820  0.9495 -1.2206  2.8421
28765SOL     OW93534   1.339   9.250  11.258 -0.1156  0.4492  0.5442
28765SOL    HW193535   1.271   9.317  11.261  0.1780  0.7596  0.3867
28765SOL    HW293536   1.420   9.298  11.275  0.1687  0.2442 -0.1738
28766SOL     OW93537   9.222   0.641   8.848 -0.5846 -0.1414 -0.6505
28766SOL    HW193538   9.207   0.630   8.942 -0.5792 -1.4760 -0.7950
28766SOL    HW293539   9.255   0.731   8.840 -4.1984  1.4646  0.1877
28767SOL     OW93540  10.195   4.360   5.966 -0.3654 -0.3591 -0.0036
28767SOL    HW193541  10.263   4.398   6.021  0.8273  0.1569 -1.7249
28767SOL    HW293542  10.149   4.435   5.929 -0.4020 -0.6568 -0.5788
28768SOL     OW93543  11.315   4.743   6.331  0.5760 -0.2068  0.0441
28768SOL    HW193544  11.277   4.828   6.305  0.0374 -0.1359  1.0298
28768SOL    HW293545  11.293   4.685   6.258 -0.1648  0.1934 -0.0640
28769SOL     OW93546   5.898   7.774  10.209  0.5528  0.9138  0.3940
28769SOL    HW193547   5.978   7.778  10.260 -1.1522 -2.7055  3.9086
28769SOL    HW293548   5.900   7.687  10.169 -2.0389  0.2343  1.5605
28770SOL     OW93549   7.418   0.999   4.585 -0.2865 -0.3095  0.4029
28770SOL    HW193550   7.450   0.940   4.517  1.4895 -0.2981  1.1597
28770SOL    HW293551   7.415   0.945   4.664  1.0176  0.4602  1.0288
28771SOL     OW93552   3.607   2.279   1.708  0.4577 -0.2322 -0.1717
28771SOL    HW193553   3.540   2.211   1.709  2.2402 -2.0873 -1.2886
28771SOL    HW293554   3.658   2.265   1.787  1.3470 -0.7709 -0.8243
28772SOL     OW93555   9.951   3.734  11.208 -0.4192  0.2817 -0.3230
28772SOL    HW193556   9.965   3.641  11.224 -1.5398  0.3878  1.7253
28772SOL    HW293557  10.006   3.778  11.274 -0.8866  1.0082 -0.4032
28773SOL     OW93558   1.102   8.814  12.134  0.3633  0.2996 -0.1475
28773SOL    HW193559   1.180   8.800  12.188  1.0989  3.2581 -0.2987
28773SOL    HW293560   1.132   8.866  12.060 -1.3639 -0.4211 -1.4232
28774SOL     OW93561   3.539   9.695   6.062 -0.0447  0.0452 -0.2329
28774SOL    HW193562   3.463   9.677   6.117  1.1443 -0.8041  1.2311
28774SOL    HW293563   3.550   9.790   6.066 -2.2812  0.5051 -2.3167
28775SOL     OW93564  12.705   6.090   8.009  0.0594 -0.4118 -0.0081
28775SOL    HW193565  12.659   6.055   7.933 -0.5501 -1.9003  1.0067
28775SOL    HW293566  12.789   6.045   8.010  0.5244  0.4176 -0.3947
28776SOL     OW93567   9.773   5.595   3.566 -0.2607 -0.1794  0.7736
28776SOL    HW193568   9.788   5.658   3.495 -1.7309  0.9719  1.4396
28776SOL    HW293569   9.729   5.522   3.523 -0.8065  0.3478  0.4089
28777SOL     OW93570   2.115  11.931   1.142 -0.4616 -0.2160  0.7062
28777SOL    HW193571   2.046  11.991   1.115 -2.4200 -1.4475  2.6858
28777SOL    HW293572   2.088  11.845   1.108  0.5618 -0.5695  0.7384
28778SOL     OW93573   1.630  10.164   5.269 -0.2666  0.6269 -0.6436
28778SOL    HW193574   1.558  10.222   5.292  0.3520  0.6436  1.5037
28778SOL    HW293575   1.677  10.151   5.352  2.2164  0.6679 -1.9600
28779SOL     OW93576   9.260   0.794   5.848  0.5673 -0.0708 -0.5161
28779SOL    HW193577   9.304   0.875   5.822  0.0037 -0.1320 -1.7576
28779SOL    HW293578   9.205   0.771   5.772 -0.6701 -0.6410  0.5163
28780SOL     OW93579   0.746   0.424   0.270  0.8413 -0.3524 -0.0280
28780SOL    HW193580   0.814   0.452   0.208  2.6087 -4.7015 -0.4288
28780SOL    HW293581   0.781   0.447   0.356  0.4409  1.7616 -0.3750
28781SOL     OW93582  12.019  10.610  10.985 -0.2084  0.5263  0.3754
28781SOL    HW193583  12.087  10.578  11.045  0.8896  1.6498 -0.2119
28781SOL    HW293584  11.978  10.531  10.950  1.7953 -0.2666 -0.3506
28782SOL     OW93585   7.273  11.709   3.319 -0.1377 -0.3675 -0.1829
28782SOL    HW193586   7.219  11.745   3.248  0.4232  0.1660 -0.3547
28782SOL    HW293587   7.334  11.650   3.276  0.4671  0.2592 -0.2140
28783SOL     OW93588   6.400   7.662  11.460  0.1189  0.1691  0.3982
28783SOL    HW193589   6.466   7.606  11.419  1.9442  1.3108  1.6306
28783SOL    HW293590   6.424   7.751  11.434 -0.4099  0.6677  1.5538
28784SOL     OW93591   2.526   7.401   3.393  0.1604  0.7559  0.2491
28784SOL    HW193592   2.551   7.353   3.471 -1.5236 -0.4176  0.1191
28784SOL    HW293593   2.430   7.409   3.399  0.0304  0.9367 -1.5002
28785SOL     OW93594  11.379   4.905   2.332 -0.1630  0.0962  0.4509
28785SOL    HW193595  11.419   4.992   2.333 -0.2938  0.1565  0.5552
28785SOL    HW293596  11.435   4.852   2.389 -1.0054  0.5386  1.7496
28786SOL     OW93597   2.652   8.591   4.522  0.2355 -0.0007  0.0180
28786SOL    HW193598   2.642   8.680   4.488  0.3746 -0.2166 -0.5917
28786SOL    HW293599   2.641   8.534   4.446 -1.1517 -0.5816  0.6126
28787SOL     OW93600  12.663  10.743   5.873  0.3040 -0.0191 -0.9974
28787SOL    HW193601  12.700  10.695   5.798 -0.3685  0.9567 -1.9909
28787SOL    HW293602  12.574  10.710   5.881  0.7267 -0.9702  0.1637
28788SOL     OW93603  11.631   1.553   0.422  0.4055 -0.6239  0.1183
28788SOL    HW193604  11.689   1.557   0.346 -0.6424  2.7451 -0.6712
28788SOL    HW293605  11.547   1.585   0.390 -0.2845  0.1792  2.5249
28789SOL     OW93606   0.655  11.767  10.959 -0.7901 -0.5896 -0.2843
28789SOL    HW193607   0.748  11.788  10.970 -0.7071 -2.1173  3.3398
28789SOL    HW293608   0.616  11.848  10.925  1.7465  0.2038 -1.5595
28790SOL     OW93609   6.795   0.631   8.877 -0.3475 -0.3041  0.9559
28790SOL    HW193610   6.886   0.643   8.905 -0.6401  0.6376  1.5470
28790SOL    HW293611   6.766   0.719   8.852 -0.3386 -0.9642 -1.6387
28791SOL     OW93612   0.763   1.530   5.041 -0.5195 -0.2616 -0.6059
28791SOL    HW193613   0.678   1.486   5.045 -0.6234  0.0274  0.6463
28791SOL    HW293614   0.742   1.620   5.015 -0.4203 -0.5969 -1.9345
28792SOL     OW93615   5.302   4.381   2.673  0.4894  0.3239 -0.3075
28792SOL    HW193616   5.261   4.351   2.591  1.3145  0.4489 -0.7765
28792SOL    HW293617   5.240   4.444   2.709 -0.5786 -0.8174 -0.0743
28793SOL     OW93618   9.823   2.661  11.621  0.4997  0.1337  0.7739
28793SOL    HW193619   9.915   2.659  11.647  0.6589 -1.2281  0.1932
28793SOL    HW293620   9.775   2.643  11.701  0.9403 -2.9304  0.4753
28794SOL     OW93621  12.526  11.477   3.574 -0.1097 -0.3532 -0.4667
28794SOL    HW193622  12.508  11.536   3.501  1.0197 -0.8491 -1.1552
28794SOL    HW293623  12.590  11.524   3.627 -2.1925  0.7875  1.2246
28795SOL     OW93624   1.773   7.155  10.410  0.2110 -0.7313  0.1267
28795SOL    HW193625   1.691   7.122  10.373 -0.1751  0.3611 -0.0407
28795SOL    HW293626   1.806   7.216  10.344  0.5766 -0.2983  0.7010
28796SOL     OW93627  11.511   5.846   4.395  0.1579  0.0273 -0.4063
28796SOL    HW193628  11.419   5.872   4.391  0.4726  1.1645 -0.5844
28796SOL    HW293629  11.558   5.916   4.349  1.3331  0.5962  1.5235
28797SOL     OW93630   3.021   8.465   2.441 -0.0577 -0.5015 -0.2282
28797SOL    HW193631   2.940   8.457   2.390  0.0249 -1.0378 -0.2797
28797SOL    HW293632   3.013   8.397   2.508  0.7491 -1.1559 -0.7789
28798SOL     OW93633   2.295   7.745   3.016  0.0816  0.0733 -0.5249
28798SOL    HW193634   2.241   7.778   2.944 -0.7925 -0.2288 -0.0233
28798SOL    HW293635   2.237   7.686   3.064  1.6083 -2.2157 -1.3818
28799SOL     OW93636   6.981  11.122   0.369  0.3436  0.1983 -0.7175
28799SOL    HW193637   6.936  11.138   0.286  0.6049 -0.5863 -1.0195
28799SOL    HW293638   7.071  11.098   0.344  0.7893  1.2046 -0.1509
28800SOL     OW93639   3.573   9.599   0.915  0.0445 -0.1898  0.3510
28800SOL    HW193640   3.545   9.549   0.991 -0.8605 -1.5378 -0.8347
28800SOL    HW293641   3.636   9.543   0.871 -0.1207  0.1944 -0.3905
28801SOL     OW93642   9.644   3.958   6.736 -0.6743  0.6074  0.6159
28801SOL    HW193643   9.687   3.979   6.819 -0.3489  2.0844  0.0987
28801SOL    HW293644   9.681   4.020   6.673 -2.3490  0.8213 -0.2069
28802SOL     OW93645   1.018  10.419   4.163 -0.0712 -0.3152  0.8454
28802SOL    HW193646   1.096  10.393   4.212  1.0625  0.4004 -0.4961
28802SOL    HW293647   1.015  10.514   4.171 -0.3111 -0.2596  0.1682
28803SOL     OW93648   2.584   3.496   5.554 -1.0212  0.1494 -0.7489
28803SOL    HW193649   2.523   3.514   5.483 -0.3217  0.9296 -1.1741
28803SOL    HW293650   2.666   3.474   5.510 -0.4144  1.2344 -0.1945
28804SOL     OW93651   6.739   9.428   3.788 -0.0797  0.0824 -0.6350
28804SOL    HW193652   6.781   9.460   3.867 -0.5134 -1.4686  0.2641
28804SOL    HW293653   6.812   9.407   3.729  0.3157 -0.0674 -0.1038
28805SOL     OW93654   9.470   7.046  12.560  0.0803 -0.6117  0.1538
28805SOL    HW193655   9.396   7.099  12.530  1.3311  1.4150  0.4509
28805SOL    HW293656   9.474   7.062  12.654  2.2594  1.2067 -0.1862
28806SOL     OW93657  11.338   1.013   0.362 -0.0833  0.3107 -0.2613
28806SOL    HW193658  11.413   1.016   0.303 -0.2611 -0.7018 -0.5474
28806SOL    HW293659  11.305   1.103   0.362  0.4237  0.5105 -1.0395
28807SOL     OW93660   6.123   2.657   3.919 -0.3231 -0.2151 -0.3320
28807SOL    HW193661   6.077   2.592   3.973  1.2830 -0.0235  1.4081
28807SOL    HW293662   6.076   2.738   3.933  0.3151 -0.0766  1.2050
28808SOL     OW93663  11.124   1.789   0.449 -0.2760 -0.1068  0.2140
28808SOL    HW193664  11.186   1.841   0.398 -0.5386  3.1313  2.8359
28808SOL    HW293665  11.049   1.778   0.391  0.9246 -0.0722 -1.4222
28809SOL     OW93666   4.252   0.963   4.377  0.0032  0.2099  0.1706
28809SOL    HW193667   4.265   0.879   4.421  1.3482  0.2582 -0.0902
28809SOL    HW293668   4.338   0.985   4.341 -0.6898  0.9252 -1.1475
28810SOL     OW93669  10.078  10.122  12.437 -0.2420  0.4595 -0.0196
28810SOL    HW193670  10.095  10.054  12.502 -0.8720 -0.2913 -0.6185
28810SOL    HW293671  10.163  10.143  12.400  0.1903  1.2343  1.3655
28811SOL     OW93672  10.320   4.337   3.329 -0.4988  1.0668  0.6434
28811SOL    HW193673  10.373   4.333   3.409  0.2003  0.3945  0.1601
28811SOL    HW293674  10.303   4.245   3.308 -0.5454  1.2354 -0.0642
28812SOL     OW93675   9.304  12.550   4.706  0.2237 -0.1214  0.0511
28812SOL    HW193676   9.233  12.604   4.742 -0.3506  0.6549 -2.0705
28812SOL    HW293677   9.264  12.505   4.632  1.6554 -0.6080 -0.4625
28813SOL     OW93678  11.710   7.903   9.826 -0.2983 -0.1395  0.3853
28813SOL    HW193679  11.747   7.838   9.886  0.1380 -0.4365 -0.1852
28813SOL    HW293680  11.621   7.871   9.808 -0.5682  0.1552  1.1509
28814SOL     OW93681   6.366   7.835  11.700 -0.3366  0.4762 -0.1387
28814SOL    HW193682   6.324   7.781  11.633 -1.7813 -0.3554  1.3531
28814SOL    HW293683   6.456   7.804  11.704 -0.8586 -1.0953 -0.0864
28815SOL     OW93684  10.912   7.784   0.848  0.1281 -0.0197  0.1105
28815SOL    HW193685  10.933   7.868   0.806  0.3839 -0.5481 -0.8358
28815SOL    HW293686  10.851   7.741   0.789  1.5414 -1.3697 -0.4403
28816SOL     OW93687   3.992   7.345   9.720  0.4442 -0.2297 -0.0347
28816SOL    HW193688   3.977   7.398   9.798 -2.3844 -1.4089  0.3431
28816SOL    HW293689   3.975   7.404   9.647 -0.7681 -0.1015  0.3396
28817SOL     OW93690   2.944   8.370   5.078 -0.3868 -0.7751  0.4477
28817SOL    HW193691   2.872   8.347   5.136  0.9650 -1.4147  1.9561
28817SOL    HW293692   2.990   8.287   5.062  1.1001 -0.1196  1.0846
28818SOL     OW93693   9.992   8.597   0.404  0.1999  0.1150  0.2910
28818SOL    HW193694  10.005   8.505   0.383 -0.2809 -0.5757  2.6658
28818SOL    HW293695  10.070   8.641   0.370 -0.1779 -0.9022 -2.0546
28819SOL     OW93696   8.054   0.494  12.433 -0.1109  0.0796  0.1211
28819SOL    HW193697   8.000   0.439  12.489 -0.3192  0.1993  0.0376
28819SOL    HW293698   8.115   0.434  12.391 -2.5669 -0.7169 -2.7231
28820SOL     OW93699  12.207   0.191   7.890 -0.0061 -0.0743 -0.5755
28820SOL    HW193700  12.140   0.141   7.842  0.0248 -0.6203 -0.0662
28820SOL    HW293701  12.290   0.149   7.867 -0.0293 -0.6123  0.2615
28821SOL     OW93702  11.493   8.118   5.418 -0.4305  0.1735 -0.4953
28821SOL    HW193703  11.413   8.067   5.429 -0.5098  0.1745 -1.0206
28821SOL    HW293704  11.507   8.160   5.503 -2.0397  1.7125 -0.9182
28822SOL     OW93705   2.891  11.387  12.009 -0.7933  0.0543 -0.2983
28822SOL    HW193706   2.850  11.328  11.946  0.0601 -0.3198 -0.5099
28822SOL    HW293707   2.976  11.408  11.971 -0.3876  0.0622  0.5916
28823SOL     OW93708   9.750   4.380   7.906 -0.2462 -1.1799 -0.0676
28823SOL    HW193709   9.780   4.344   7.989 -1.3426  0.2676  0.9874
28823SOL    HW293710   9.809   4.454   7.889  0.1304 -1.6166 -0.7282
28824SOL     OW93711   6.472  10.244   6.447 -0.7216  0.3609 -0.5596
28824SOL    HW193712   6.419  10.321   6.467 -3.4263 -1.4354 -0.4155
28824SOL    HW293713   6.437  10.211   6.365 -0.4250 -1.3664 -0.0357
28825SOL     OW93714   9.164   7.921  12.087 -0.6241  0.2691  0.1335
28825SOL    HW193715   9.180   7.842  12.035  3.2071  1.2129 -0.4644
28825SOL    HW293716   9.203   7.901  12.173 -0.1741  1.2390  0.1673
28826SOL     OW93717   7.497   5.464  12.155  0.2753  0.3892 -0.2950
28826SOL    HW193718   7.411   5.429  12.133 -0.0261 -0.1843  1.5715
28826SOL    HW293719   7.478   5.547  12.199  0.8112  1.3176 -1.7733
28827SOL     OW93720  12.515   3.993   9.850  0.0478  0.4964 -0.0650
28827SOL    HW193721  12.560   4.076   9.866  1.1983  0.1578 -1.4151
28827SOL    HW293722  12.488   3.964   9.937  2.0198  0.9709  0.7596
28828SOL     OW93723   7.726   0.668   9.542  0.8450  1.0097 -0.1699
28828SOL    HW193724   7.641   0.639   9.573  1.5181  0.0541  0.8518
28828SOL    HW293725   7.756   0.597   9.485  1.0742  1.2083 -0.3002
28829SOL     OW93726   0.697  10.115  12.431  0.1284  0.0391 -0.1514
28829SOL    HW193727   0.614  10.076  12.403 -0.2678  1.3136 -0.8421
28829SOL    HW293728   0.708  10.192  12.374  1.8834 -0.2036 -0.2126
28830SOL     OW93729   1.887  11.445   8.457 -0.3323  0.5050 -0.0615
28830SOL    HW193730   1.931  11.362   8.437  0.2434  1.0531 -1.1593
28830SOL    HW293731   1.837  11.427   8.537 -1.0695 -1.2115 -0.8615
28831SOL     OW93732   1.986   4.179   6.973  0.0304 -0.2894  0.0137
28831SOL    HW193733   1.924   4.162   7.044 -0.1459  1.3335  0.2642
28831SOL    HW293734   2.026   4.263   6.995  0.9585 -0.4120 -1.1248
28832SOL     OW93735   3.436   5.665   4.277  0.3963  0.3006  0.2138
28832SOL    HW193736   3.430   5.714   4.195 -2.4146  0.1005  0.2240
28832SOL    HW293737   3.484   5.585   4.253  1.8573  1.3694 -0.5975
28833SOL     OW93738   2.481   6.123   3.189 -0.0639 -0.5728  0.3821
28833SOL    HW193739   2.563   6.109   3.238 -0.0794  0.1295  0.6161
28833SOL    HW293740   2.507   6.172   3.111 -0.1361 -1.1360 -0.0050
28834SOL     OW93741   8.359   2.120   4.110 -0.1330  0.4068  0.2762
28834SOL    HW193742   8.306   2.188   4.068  0.3037  0.0309 -0.9279
28834SOL    HW293743   8.371   2.054   4.042  3.5472  1.3761 -0.2868
28835SOL     OW93744   1.034   8.963   2.871  0.3861  0.2368  0.6844
28835SOL    HW193745   0.961   8.902   2.881  0.2405 -0.1226 -1.9804
28835SOL    HW293746   0.995   9.050   2.884 -0.0690 -0.0469  1.2627
28836SOL     OW93747   8.161   6.948   4.596  0.2706 -0.4897  0.3061
28836SOL    HW193748   8.122   7.010   4.534  2.5888  0.9360  0.1651
28836SOL    HW293749   8.148   6.862   4.555 -3.7411 -0.3551  0.8874
28837SOL     OW93750   8.290   9.391  11.770  0.2781  0.0932  0.0021
28837SOL    HW193751   8.250   9.365  11.853  3.1274 -0.9411  1.1982
28837SOL    HW293752   8.255   9.330  11.706 -2.1077  1.0129  0.3221
28838SOL     OW93753   9.853   4.222   0.124  0.0728  1.0469 -0.0854
28838SOL    HW193754   9.776   4.168   0.141  1.2054 -0.1062  1.6505
28838SOL    HW293755   9.817   4.305   0.092 -1.8361  0.2925 -0.0319
28839SOL     OW93756   1.866  11.869  10.123  0.2003  0.1813  0.2935
28839SOL    HW193757   1.807  11.913  10.061  1.0116  0.2949 -0.4162
28839SOL    HW293758   1.819  11.873  10.207 -0.8990  0.0604 -0.2901
28840SOL     OW93759   3.180   9.670   6.964  0.0013  0.4632  0.0026
28840SOL    HW193760   3.105   9.614   6.987 -0.3792  0.6163 -0.8415
28840SOL    HW293761   3.200   9.648   6.873  0.4854  0.9917 -0.0231
28841SOL     OW93762   3.357   7.084   0.541  0.2356 -0.4384  0.0088
28841SOL    HW193763   3.337   6.996   0.511 -0.0642 -0.8958  1.4493
28841SOL    HW293764   3.425   7.071   0.608 -0.0687  0.3753  0.4896
28842SOL     OW93765   7.503  11.562   8.935  0.8143  0.3765  0.0990
28842SOL    HW193766   7.527  11.566   9.028  0.6352 -0.1558  0.1684
28842SOL    HW293767   7.561  11.496   8.898  2.1266  1.8311 -0.5557
28843SOL     OW93768   0.774  12.642   9.415 -0.2880 -0.0483 -0.3090
28843SOL    HW193769   0.820  12.682   9.489  0.4495  0.8212 -1.2087
28843SOL    HW293770   0.735  12.563   9.451 -0.3031  0.5729  1.1114
28844SOL     OW93771   9.191   1.186   3.091  0.3905  0.1633 -0.5505
28844SOL    HW193772   9.267   1.208   3.037  0.7010 -0.3783 -0.3375
28844SOL    HW293773   9.222   1.118   3.151 -0.6223 -1.1394 -1.4369
28845SOL     OW93774   0.106  12.570   2.323  0.5896  0.4157  0.1717
28845SOL    HW193775   0.084  12.616   2.242  1.2003 -0.3042 -0.4193
28845SOL    HW293776   0.029  12.514   2.339  0.9679 -0.3620 -0.6101
28846SOL     OW93777  10.771   7.564   5.656  0.5614  0.0003  0.2309
28846SOL    HW193778  10.679   7.568   5.629  0.5425 -0.9517  0.1007
28846SOL    HW293779  10.808   7.646   5.625 -0.0653  0.0514 -0.4386
28847SOL     OW93780  11.256  10.512   4.077  0.1754 -0.0667 -0.1048
28847SOL    HW193781  11.249  10.463   4.158  1.1402 -0.9806 -0.5559
28847SOL    HW293782  11.185  10.576   4.082 -0.2933 -0.6447  1.0778
28848SOL     OW93783   0.893   6.383   8.700  0.0989 -0.0779  0.1620
28848SOL    HW193784   0.830   6.310   8.700 -0.1408  0.1278  0.5739
28848SOL    HW293785   0.873   6.432   8.780 -0.0462  0.7113 -0.3484
28849SOL     OW93786   7.280   1.793  10.044  0.1594 -0.9071  0.1499
28849SOL    HW193787   7.201   1.848  10.043  0.4093 -0.5224  1.1375
28849SOL    HW293788   7.282   1.755  10.132  1.1313 -0.8359  0.1645
28850SOL     OW93789   0.673   4.253   3.809 -0.5283  0.2616 -0.2355
28850SOL    HW193790   0.691   4.236   3.716 -0.7436  1.6506 -0.5505
28850SOL    HW293791   0.601   4.194   3.831 -1.4349  0.9025 -1.3534
28851SOL     OW93792  12.505   0.196   3.028 -0.1392 -0.2092  0.2816
28851SOL    HW193793  12.498   0.267   2.965 -0.4366 -0.8099 -0.3797
28851SOL    HW293794  12.485   0.117   2.978 -0.1852 -0.7250  1.0827
28852SOL     OW93795  11.550   2.028  11.459 -0.0797 -0.1448  0.2510
28852SOL    HW193796  11.596   1.983  11.388  1.0696 -0.0777  0.9246
28852SOL    HW293797  11.490   1.962  11.494 -0.0163 -0.4533 -0.2181
28853SOL     OW93798   0.546   7.251   0.874  0.1590  0.5888  0.1138
28853SOL    HW193799   0.469   7.194   0.875 -1.4453  2.4263 -3.0125
28853SOL    HW293800   0.610   7.204   0.821 -0.6058  0.9763 -1.2023
28854SOL     OW93801   9.878   3.272   7.449 -0.4170 -0.0702 -0.7864
28854SOL    HW193802   9.905   3.272   7.541 -1.3061  2.9427 -0.4202
28854SOL    HW293803   9.961   3.273   7.400  0.0587 -0.8786 -0.0281
28855SOL     OW93804   0.499   8.580   6.704  0.0595 -0.5313  0.0235
28855SOL    HW193805   0.458   8.539   6.780  1.1506 -0.2648  0.7918
28855SOL    HW293806   0.591   8.589   6.730  0.5894 -1.0524 -1.5940
28856SOL     OW93807   1.763   2.173   0.384 -0.2712 -0.3925 -0.0392
28856SOL    HW193808   1.726   2.084   0.392 -0.9638 -0.3066 -1.8103
28856SOL    HW293809   1.794   2.177   0.293 -0.4016  1.2336 -0.0253
28857SOL     OW93810   6.070   5.317   6.449  0.5021 -0.1975  0.4644
28857SOL    HW193811   6.161   5.338   6.427  0.7035  0.2048  1.6298
28857SOL    HW293812   6.076   5.238   6.503  0.0086 -1.1844 -0.8510
28858SOL     OW93813   6.460   0.392   2.441 -0.2813  0.5041  0.3289
28858SOL    HW193814   6.513   0.317   2.469  0.2542  1.7082  2.8460
28858SOL    HW293815   6.523   0.450   2.399 -0.6744 -0.3292 -1.5105
28859SOL     OW93816   6.204   2.450   0.358 -0.1298 -0.0897  0.0020
28859SOL    HW193817   6.216   2.374   0.301 -0.8068  0.1556 -0.4768
28859SOL    HW293818   6.121   2.489   0.330 -2.4120 -1.9689  3.4200
28860SOL     OW93819  11.636   6.118   7.462 -0.0601  0.1855  0.0849
28860SOL    HW193820  11.695   6.096   7.390 -0.4967 -2.0269  0.3310
28860SOL    HW293821  11.691   6.119   7.539  0.5865  3.4664 -0.2842
28861SOL     OW93822   6.056   8.413  10.314 -0.2443  0.2469  0.1708
28861SOL    HW193823   5.978   8.452  10.274 -0.2773  0.6581  0.6233
28861SOL    HW293824   6.123   8.417  10.246  0.3877  3.0885  0.8290
28862SOL     OW93825   6.492   5.833   0.453  0.2810  0.0496  0.6665
28862SOL    HW193826   6.533   5.823   0.367  0.2025 -1.6403  0.7824
28862SOL    HW293827   6.415   5.776   0.449  0.6718 -0.6089  2.0816
28863SOL     OW93828   5.467   3.932   5.834  0.0286 -0.2415  0.3061
28863SOL    HW193829   5.532   3.978   5.780  1.5788  0.7185  2.7877
28863SOL    HW293830   5.518   3.899   5.908 -1.7034 -2.9267  0.4185
28864SOL     OW93831   4.875   4.422   8.786  0.1638 -0.2494 -0.3527
28864SOL    HW193832   4.850   4.393   8.698  0.9160 -1.6568 -0.1357
28864SOL    HW293833   4.886   4.341   8.835  1.2905  0.4630  0.6172
28865SOL     OW93834  10.549   6.271  10.269  0.5745  0.4819 -0.0492
28865SOL    HW193835  10.457   6.282  10.245  0.3372 -2.7469 -1.0956
28865SOL    HW293836  10.597   6.294  10.189  0.5771  0.6809  0.0090
28866SOL     OW93837  11.392   6.724   9.790 -0.0621 -0.0662  1.0113
28866SOL    HW193838  11.326   6.675   9.838 -0.7692  0.5038  0.6564
28866SOL    HW293839  11.413   6.798   9.847  1.9585 -1.4085  2.1259
28867SOL     OW93840   6.819   8.404   2.559 -0.5687  0.3203  0.8580
28867SOL    HW193841   6.795   8.319   2.597 -1.6616  0.6060  0.8143
28867SOL    HW293842   6.881   8.441   2.622 -0.4317 -0.2997  1.1037
28868SOL     OW93843   0.351  11.264   6.313  0.2950  0.2790  1.1002
28868SOL    HW193844   0.355  11.177   6.352 -0.4495  0.1788  0.9611
28868SOL    HW293845   0.260  11.275   6.287  0.4527  0.9683  0.8093
28869SOL     OW93846   4.787   9.173   9.413  0.2102 -0.0882 -0.6047
28869SOL    HW193847   4.757   9.234   9.346 -0.3475 -0.2019 -0.4623
28869SOL    HW293848   4.769   9.218   9.496  0.6971 -0.0383 -0.5234
28870SOL     OW93849   2.292   4.162   6.929 -0.4448  0.6560 -0.0178
28870SOL    HW193850   2.329   4.123   7.008 -2.0226  0.5340  0.6988
28870SOL    HW293851   2.215   4.108   6.909 -0.0451  0.6554 -1.6769
28871SOL     OW93852   9.357   5.170   7.904  0.1335 -0.5175  0.0659
28871SOL    HW193853   9.334   5.200   7.992  2.8889  1.8898  0.1240
28871SOL    HW293854   9.289   5.208   7.848  0.7200  1.7330  0.7491
28872SOL     OW93855   1.276   0.836  12.167  0.2449 -0.1052 -0.6175
28872SOL    HW193856   1.205   0.898  12.152 -0.2516 -0.8136 -1.2721
28872SOL    HW293857   1.241   0.752  12.138  1.3985 -0.4418 -1.0940
28873SOL     OW93858   2.333   8.944   0.641  0.4988 -0.5253  0.6374
28873SOL    HW193859   2.261   8.996   0.607 -0.4135 -2.2632 -0.2687
28873SOL    HW293860   2.404   8.957   0.579  0.7503  0.6441  1.1500
28874SOL     OW93861   1.272   8.207   2.274  0.4052  0.5277  0.0343
28874SOL    HW193862   1.274   8.297   2.241  1.1119  0.1953 -0.8445
28874SOL    HW293863   1.340   8.161   2.225 -0.5853 -0.7239 -0.2198
28875SOL     OW93864  12.116   1.246   1.417 -0.1700 -0.0637  0.6278
28875SOL    HW193865  12.205   1.212   1.415  0.4994  1.6202 -1.0105
28875SOL    HW293866  12.123   1.333   1.457 -0.6765  0.9666 -1.3890
28876SOL     OW93867   9.086  11.722   9.135 -0.2229 -0.6692 -0.1227
28876SOL    HW193868   9.136  11.643   9.114 -0.9725 -1.2962  0.3654
28876SOL    HW293869   9.067  11.762   9.051  2.2329  0.3420 -0.2781
28877SOL     OW93870  12.689   9.377   4.156 -0.0590 -0.3623  0.1171
28877SOL    HW193871  12.706   9.308   4.220  0.2322 -3.4018 -2.9241
28877SOL    HW293872  12.775   9.412   4.135 -0.1144  0.3557  1.0357
28878SOL     OW93873   9.295   7.074   3.087 -0.1081 -0.2990  0.1252
28878SOL    HW193874   9.235   7.144   3.061  0.3807 -0.0974 -0.4900
28878SOL    HW293875   9.358   7.116   3.145  0.3435 -0.1525 -0.4546
28879SOL     OW93876   2.646   7.766   0.558  0.2318 -0.1441  0.2886
28879SOL    HW193877   2.673   7.695   0.616 -2.7763 -0.7635  1.0935
28879SOL    HW293878   2.561   7.794   0.592  0.2462  2.2817 -1.4189
28880SOL     OW93879   4.084   4.210   6.653  0.3801  0.0113  0.0011
28880SOL    HW193880   4.177   4.196   6.635  0.8559 -0.1886  2.2854
28880SOL    HW293881   4.062   4.292   6.608  2.5831  1.9258  2.1443
28881SOL     OW93882   7.772   0.614   3.713  0.5427 -0.0665  0.5198
28881SOL    HW193883   7.828   0.537   3.716 -0.2645 -0.7134  4.1824
28881SOL    HW293884   7.832   0.688   3.704  1.7689 -0.9059  1.5482
28882SOL     OW93885   8.358   0.655   7.710  0.3283 -0.2016  0.9555
28882SOL    HW193886   8.449   0.681   7.701 -0.1325  1.2964  0.3233
28882SOL    HW293887   8.353   0.611   7.795  1.8753 -1.4982  0.4212
28883SOL     OW93888   3.506  11.274   8.520  0.1551 -0.2180  0.4460
28883SOL    HW193889   3.564  11.230   8.457  0.7357 -1.2044  1.6240
28883SOL    HW293890   3.531  11.237   8.605 -0.3372  1.3729  1.3146
28884SOL     OW93891  11.171   3.772   4.911 -0.2595 -0.4417 -0.5232
28884SOL    HW193892  11.217   3.775   4.827 -0.7063 -0.5414 -0.7778
28884SOL    HW293893  11.238   3.746   4.975  0.0407 -0.5416 -0.8775
28885SOL     OW93894   4.985  10.030   8.605 -0.7071  0.3488 -0.1861
28885SOL    HW193895   5.016  10.102   8.550  1.4259 -0.3601 -0.0048
28885SOL    HW293896   4.889  10.035   8.600 -0.5933  2.4099 -1.1601
28886SOL     OW93897  10.475   9.927   4.833 -0.2801 -0.1874 -0.0588
28886SOL    HW193898  10.432   9.990   4.775 -0.9290  0.8633  1.4827
28886SOL    HW293899  10.423   9.847   4.825 -2.6782  1.0707  1.8108
28887SOL     OW93900  11.525   4.562   9.888  0.0078  0.0693 -0.4579
28887SOL    HW193901  11.549   4.625   9.820 -2.5484  0.7657 -0.7969
28887SOL    HW293902  11.518   4.614   9.968  1.0228 -0.3960 -0.0450
28888SOL     OW93903  11.568  10.336  11.082  0.1437  0.4188  0.4952
28888SOL    HW193904  11.585  10.249  11.120 -0.8120 -0.5316 -1.1557
28888SOL    HW293905  11.652  10.382  11.090  1.3050 -1.4041 -0.4461
28889SOL     OW93906   5.793  11.824   7.463 -0.6056 -0.5974 -0.3855
28889SOL    HW193907   5.855  11.852   7.530 -0.1947 -0.4388 -0.8299
28889SOL    HW293908   5.710  11.815   7.510 -0.4684  0.1473  0.0196
28890SOL     OW93909   1.666   8.976   7.469  0.2505 -0.2796  0.1803
28890SOL    HW193910   1.693   9.002   7.381 -2.6427 -1.0521 -1.0454
28890SOL    HW293911   1.744   8.936   7.507  1.8745  0.9740 -1.6064
28891SOL     OW93912  12.307   5.074  12.160 -0.1833 -0.1310 -0.0562
28891SOL    HW193913  12.351   5.088  12.244 -0.2263 -0.5603  0.0403
28891SOL    HW293914  12.332   4.985  12.135  0.3427  0.2192 -0.8074
28892SOL     OW93915   3.835   8.300   2.710 -0.0124 -0.1034 -0.0048
28892SOL    HW193916   3.893   8.299   2.634 -0.4606 -1.0627 -0.3447
28892SOL    HW293917   3.876   8.238   2.772 -0.7930 -0.9898 -0.3530
28893SOL     OW93918   1.091   5.111   0.472 -0.0393  0.4275 -0.2899
28893SOL    HW193919   1.080   5.173   0.544 -1.7316 -0.2193  0.0665
28893SOL    HW293920   1.180   5.079   0.481 -0.1311  0.5529  1.3950
28894SOL     OW93921  11.478   2.059   6.804  0.2531 -0.1492  1.1175
28894SOL    HW193922  11.425   2.126   6.760  0.3395 -1.5852 -1.3195
28894SOL    HW293923  11.418   2.018   6.866 -1.1985 -0.8879 -0.6807
28895SOL     OW93924   4.626   7.536  10.451  0.0070 -0.2010  0.6017
28895SOL    HW193925   4.617   7.458  10.505 -0.7589 -0.5447  0.0100
28895SOL    HW293926   4.552   7.591  10.476 -0.7156 -0.6358 -0.5048
28896SOL     OW93927   0.707   9.255   5.954 -0.4705 -0.3318  0.2842
28896SOL    HW193928   0.623   9.301   5.941 -0.8249 -0.1657  2.7343
28896SOL    HW293929   0.685   9.179   6.007  1.0648  0.3452  1.9823
28897SOL     OW93930   8.821   7.166   9.897  0.4105 -0.0250  0.2356
28897SOL    HW193931   8.731   7.151   9.869  0.4561  0.0955  0.0201
28897SOL    HW293932   8.815   7.181   9.991  0.1923  0.1082  0.2005
28898SOL     OW93933   8.243   4.393   6.548  0.1594  0.1215 -0.2142
28898SOL    HW193934   8.273   4.483   6.552 -0.5253  0.3202  0.6693
28898SOL    HW293935   8.148   4.398   6.545  0.1187 -0.5039 -3.0949
28899SOL     OW93936   1.746   6.966   3.491  0.9077  0.3223 -0.1353
28899SOL    HW193937   1.741   6.978   3.586  0.2125  0.2652 -0.1599
28899SOL    HW293938   1.834   6.995   3.468  0.3833  2.4064  0.2346
28900SOL     OW93939   4.348   2.725   3.488 -0.5203 -0.3512  0.2377
28900SOL    HW193940   4.269   2.686   3.525 -0.8329  0.4351  0.4359
28900SOL    HW293941   4.353   2.690   3.400 -1.7587  0.4794 -0.1913
28901SOL     OW93942   3.794   6.883   0.631 -0.9169  0.3808  0.1795
28901SOL    HW193943   3.749   6.873   0.714 -1.2177  0.9709  0.0916
28901SOL    HW293944   3.739   6.836   0.568 -0.9122  0.2973  0.2374
28902SOL     OW93945   6.708   3.937  12.260  0.3869  0.0239  0.5765
28902SOL    HW193946   6.682   3.944  12.352 -0.3496 -0.4249  0.4118
28902SOL    HW293947   6.680   4.020  12.221 -1.3087 -0.6319  0.2978
28903SOL     OW93948  11.371   7.102   2.087 -0.2475 -0.1611  0.2746
28903SOL    HW193949  11.359   7.123   1.994 -1.3526  0.2436  0.4898
28903SOL    HW293950  11.299   7.041   2.107  0.5562 -1.0179  0.6387
28904SOL     OW93951  11.909   3.878   0.654 -0.0604  0.6033 -0.0946
28904SOL    HW193952  11.834   3.832   0.616  1.1337 -2.4415  0.8806
28904SOL    HW293953  11.973   3.880   0.584  1.7474 -4.0737  1.0113
28905SOL     OW93954   3.171   2.149  10.496  0.1824  0.1699 -0.2238
28905SOL    HW193955   3.117   2.071  10.483  0.3670  0.2028 -1.2588
28905SOL    HW293956   3.238   2.144  10.427  1.0507  0.5172  0.5697
28906SOL     OW93957   4.240   1.790   6.966  0.0185  0.1495  0.4402
28906SOL    HW193958   4.221   1.760   6.877 -0.0687 -0.4864  0.6685
28906SOL    HW293959   4.247   1.709   7.017 -0.1184  0.5205  1.0464
28907SOL     OW93960   0.282   5.280   8.616 -0.8772  0.5649 -0.2743
28907SOL    HW193961   0.238   5.199   8.643  0.0950 -0.2828 -1.1715
28907SOL    HW293962   0.315   5.261   8.528 -0.3933  1.8461 -0.3802
28908SOL     OW93963   5.572   5.016   6.286  0.3663 -0.3035 -0.2019
28908SOL    HW193964   5.647   4.998   6.230  0.8143  2.0689 -0.4604
28908SOL    HW293965   5.604   4.999   6.375  1.4682  1.3034 -0.2564
28909SOL     OW93966  11.787  12.514   4.360 -0.0805  0.0354  0.1935
28909SOL    HW193967  11.793  12.593   4.414 -0.0035 -0.3378  0.7256
28909SOL    HW293968  11.877  12.496   4.335 -0.2625  1.2519 -1.5920
28910SOL     OW93969   5.519   5.657   1.947  0.2685  0.1023 -0.1119
28910SOL    HW193970   5.506   5.602   1.870  0.9435 -0.0279 -0.1365
28910SOL    HW293971   5.499   5.746   1.917  3.1372  0.4845 -1.2254
28911SOL     OW93972   4.173   4.551   0.151  0.2006  0.1452 -0.5386
28911SOL    HW193973   4.079   4.540   0.166 -0.0034  0.7135 -1.2935
28911SOL    HW293974   4.210   4.463   0.157 -0.0425  0.1559  1.8350
28912SOL     OW93975   7.871   0.236   3.176  0.3563  0.4173 -0.0818
28912SOL    HW193976   7.781   0.203   3.180  0.4263  0.2847  0.8261
28912SOL    HW293977   7.862   0.331   3.169  0.1412  0.3835 -0.2588
28913SOL     OW93978   8.645  10.975  10.586 -0.2027  0.6782  0.0814
28913SOL    HW193979   8.594  10.922  10.524  1.4765 -1.2571  0.2265
28913SOL    HW293980   8.722  11.002  10.536 -0.0684  1.2762  0.6020
28914SOL     OW93981  12.643   4.665   4.348 -0.3143  0.0969  0.1408
28914SOL    HW193982  12.711   4.706   4.401  1.1250 -0.2614 -1.3650
28914SOL    HW293983  12.633   4.577   4.386 -1.7995  0.9552  1.9363
28915SOL     OW93984   0.655  10.180  10.851  0.2917  0.2221 -0.1894
28915SOL    HW193985   0.697  10.246  10.796 -0.8501  0.9165 -0.2555
28915SOL    HW293986   0.590  10.139  10.795  0.3686 -0.3302  0.1197
28916SOL     OW93987   1.560   2.161   5.910 -0.0614  0.6247  0.1745
28916SOL    HW193988   1.652   2.143   5.930 -0.6540 -1.0268  1.7721
28916SOL    HW293989   1.542   2.246   5.950  0.8677  1.1930 -0.5850
28917SOL     OW93990  10.241   8.682   9.554  0.3672 -0.8257  0.0311
28917SOL    HW193991  10.206   8.770   9.537  2.1738 -0.4387 -2.1961
28917SOL    HW293992  10.184   8.623   9.505  1.6483 -0.3770 -2.1253
28918SOL     OW93993   4.784   8.536   3.830  0.0575 -0.0956  0.2808
28918SOL    HW193994   4.789   8.454   3.879 -1.8311 -1.6392 -1.8362
28918SOL    HW293995   4.866   8.541   3.782 -0.1668 -1.2885 -0.2668
28919SOL     OW93996   4.629   4.768   8.474 -0.9144  0.1423  0.3120
28919SOL    HW193997   4.657   4.689   8.428 -2.2408 -0.0735 -0.1801
28919SOL    HW293998   4.694   4.782   8.542  0.4111 -0.2523 -0.8392
28920SOL     OW93999   9.191   0.615   4.769 -0.6061  0.1406  0.7828
28920SOL    HW194000   9.135   0.690   4.784 -0.0383  0.3182  2.1687
28920SOL    HW294001   9.153   0.545   4.823  0.2190  0.1348  1.3771
28921SOL     OW94002   1.673   1.332   8.485  0.4198  0.1350  0.1799
28921SOL    HW194003   1.734   1.352   8.414  0.3298  0.8748  0.2932
28921SOL    HW294004   1.642   1.418   8.514  0.4059 -0.1610  1.0720
28922SOL     OW94005  11.186   7.228   4.775  0.2200  0.1068  0.0580
28922SOL    HW194006  11.132   7.174   4.718  1.4564 -1.8960  0.6837
28922SOL    HW294007  11.152   7.212   4.863  1.7262 -1.1288  0.4496
28923SOL     OW94008   6.123   7.542   3.783 -0.1691  0.2321  0.0703
28923SOL    HW194009   6.123   7.638   3.785  1.5142  0.2620  2.9909
28923SOL    HW294010   6.031   7.519   3.769 -0.5308  2.2124 -1.2675
28924SOL     OW94011   9.226   2.814   4.258 -0.1745  0.4096  0.4805
28924SOL    HW194012   9.158   2.868   4.217 -0.8400 -1.2581 -0.7138
28924SOL    HW294013   9.308   2.856   4.232 -0.6664  0.7956 -0.5067
28925SOL     OW94014   4.912   7.159  12.671  0.6228  0.0548  0.0105
28925SOL    HW194015   4.825   7.120  12.675 -0.6246  2.3610 -1.8391
28925SOL    HW294016   4.899   7.249  12.703  1.9052  0.9743 -1.8737
28926SOL     OW94017   2.754   0.527   5.284  0.0923 -0.0572  0.1336
28926SOL    HW194018   2.702   0.602   5.257  0.2274 -0.5694 -1.7106
28926SOL    HW294019   2.838   0.564   5.311 -0.0841  0.5098 -0.0855
28927SOL     OW94020   5.529  11.763   9.473  0.6216  0.2932  0.6312
28927SOL    HW194021   5.570  11.737   9.390  0.8091  1.4767  0.3366
28927SOL    HW294022   5.533  11.684   9.527 -1.0241 -1.0752 -1.0501
28928SOL     OW94023  11.206   8.643  10.257 -0.6496 -0.3922 -0.1605
28928SOL    HW194024  11.136   8.665  10.196 -1.9289  0.2322  1.4395
28928SOL    HW294025  11.287   8.665  10.211 -1.5623  0.2335 -1.5280
28929SOL     OW94026   0.485   4.054  11.826  0.3676 -0.2158 -0.3592
28929SOL    HW194027   0.516   4.104  11.901  0.1639 -0.5271 -0.0658
28929SOL    HW294028   0.443   4.120  11.770 -0.1650 -0.0965  0.1658
28930SOL     OW94029   3.252   9.281   9.534 -0.3058  0.0774  0.3872
28930SOL    HW194030   3.317   9.211   9.537  0.5143  0.7102 -1.4157
28930SOL    HW294031   3.273   9.337   9.608  1.4281  0.4292 -0.3233
28931SOL     OW94032   7.617   9.854   4.680 -0.4878 -0.0631 -0.0231
28931SOL    HW194033   7.570   9.839   4.762  0.3847 -3.0863  0.0332
28931SOL    HW294034   7.701   9.891   4.707 -0.1053 -1.2810  0.5081
28932SOL     OW94035   9.506   4.714   3.964  0.3475 -0.5092  0.2422
28932SOL    HW194036   9.422   4.692   3.925  0.0328  0.3171  0.4301
28932SOL    HW294037   9.569   4.704   3.893 -0.1426  0.4529 -0.3454
28933SOL     OW94038  11.846   7.931   8.910  0.1108  0.3233  0.1080
28933SOL    HW194039  11.764   7.902   8.870  0.2492 -0.4579  0.3709
28933SOL    HW294040  11.893   7.850   8.930  2.2395  0.6994 -2.6320
28934SOL     OW94041   4.154   1.445   7.478 -0.4323 -0.1886 -0.1815
28934SOL    HW194042   4.228   1.385   7.491 -0.9136 -0.9839 -0.9777
28934SOL    HW294043   4.193   1.522   7.436 -0.0283 -0.5487 -0.4823
28935SOL     OW94044   1.130   9.699   1.748 -0.2489 -0.3222  0.6458
28935SOL    HW194045   1.115   9.791   1.728  0.0091 -0.1958  1.0247
28935SOL    HW294046   1.108   9.653   1.668 -3.8281 -0.2860  1.4510
28936SOL     OW94047   6.393   2.421   4.462 -0.5919 -0.2288  0.1206
28936SOL    HW194048   6.435   2.374   4.389  1.2367  1.5168 -0.0283
28936SOL    HW294049   6.306   2.443   4.429 -0.7537 -1.7050 -0.5392
28937SOL     OW94050  12.463   8.568  10.071  0.0778 -0.3928 -0.2214
28937SOL    HW194051  12.507   8.578   9.987  0.1417 -0.8437 -0.2432
28937SOL    HW294052  12.384   8.517  10.051 -0.8198  0.9748 -0.3018
28938SOL     OW94053   0.001   3.374   1.228  0.4000 -0.1362 -0.2593
28938SOL    HW194054  -0.017   3.280   1.216 -1.1073 -1.0803  5.8968
28938SOL    HW294055  -0.085   3.415   1.220  0.5534  0.2123 -0.1190
28939SOL     OW94056   3.396   2.230   7.902  0.2655 -0.0502  0.0390
28939SOL    HW194057   3.415   2.136   7.909 -0.5386 -0.2058  0.1919
28939SOL    HW294058   3.478   2.273   7.926  0.1614 -0.6873  1.6761
28940SOL     OW94059   8.281   5.889   2.807 -0.2216 -0.2287 -0.0094
28940SOL    HW194060   8.206   5.849   2.851 -0.6397 -0.2455 -0.7334
28940SOL    HW294061   8.329   5.815   2.771  1.3581 -0.4248  2.2768
28941SOL     OW94062   1.190  11.134  11.316  0.6348 -0.1660  0.0593
28941SOL    HW194063   1.125  11.130  11.386  0.1877  2.4653 -0.1163
28941SOL    HW294064   1.158  11.073  11.250 -0.8105 -0.0831  0.6557
28942SOL     OW94065   3.439   9.685   9.548  0.2667 -0.0654  0.3130
28942SOL    HW194066   3.411   9.610   9.496 -0.8483 -0.1550  0.9924
28942SOL    HW294067   3.357   9.730   9.569  0.8995  1.1832  0.1500
28943SOL     OW94068   2.524   9.143   1.938 -0.3644  0.0626  0.3150
28943SOL    HW194069   2.431   9.132   1.955 -0.5000  0.6806  0.0108
28943SOL    HW294070   2.561   9.174   2.021 -0.2508 -1.1339  0.7201
28944SOL     OW94071   8.728  12.450   9.797 -0.3260 -0.5449 -0.1180
28944SOL    HW194072   8.658  12.414   9.742  0.4206 -1.6383 -0.3886
28944SOL    HW294073   8.684  12.473   9.879 -1.8266  2.7320 -1.6616
28945SOL     OW94074   8.636   4.931   6.146 -0.2295 -0.1222  0.0647
28945SOL    HW194075   8.650   4.836   6.145 -1.3796 -0.3567  1.6772
28945SOL    HW294076   8.544   4.941   6.171 -0.5612  1.4262 -1.5676
28946SOL     OW94077  10.982   4.161  10.700  0.1171  0.0725  0.2764
28946SOL    HW194078  11.032   4.230  10.657 -1.7306  1.8090  0.7392
28946SOL    HW294079  10.906   4.149  10.644 -0.7359  0.1113  1.3861
28947SOL     OW94080   1.029   6.748   3.995  0.3565 -0.3529 -0.5916
28947SOL    HW194081   1.003   6.825   3.945  0.8729 -0.1120 -0.5030
28947SOL    HW294082   0.964   6.741   4.065  0.5061  0.2134 -0.3903
28948SOL     OW94083  11.537   0.640   0.884  0.4451 -0.5286 -0.5204
28948SOL    HW194084  11.469   0.580   0.914  1.5619 -1.0722  1.1228
28948SOL    HW294085  11.493   0.700   0.825 -1.2725 -1.3437 -0.1219
28949SOL     OW94086   6.761   8.837  10.896  0.1680  0.6092 -0.5737
28949SOL    HW194087   6.700   8.898  10.855  0.9825  0.6619 -1.7817
28949SOL    HW294088   6.847   8.864  10.863  1.0022  1.1888  1.8632
28950SOL     OW94089   5.964   7.066  10.667 -0.2910 -0.1369 -0.0869
28950SOL    HW194090   5.910   7.002  10.714 -0.0368  1.2294  2.2666
28950SOL    HW294091   5.902   7.133  10.639 -0.1892  0.0540  0.1392
28951SOL     OW94092   1.242   5.424  10.885 -0.3961 -0.0760  0.1996
28951SOL    HW194093   1.190   5.501  10.861  0.8412  1.5455  2.3985
28951SOL    HW294094   1.314   5.425  10.822 -1.1867 -0.3512 -0.7327
28952SOL     OW94095   4.387   5.740   8.565 -0.1148 -0.3249 -0.3254
28952SOL    HW194096   4.454   5.807   8.551 -0.5392  0.0565 -0.5783
28952SOL    HW294097   4.388   5.725   8.659  0.7168 -0.7424 -0.3898
28953SOL     OW94098   2.701  12.632   3.846 -0.1624  0.0195 -0.1635
28953SOL    HW194099   2.777  12.609   3.901 -1.3197  0.9931  1.9552
28953SOL    HW294100   2.642  12.557   3.855 -0.0802 -0.1002 -0.6177
28954SOL     OW94101   7.354   6.930  10.420 -0.4689 -0.2862  0.2758
28954SOL    HW194102   7.391   7.018  10.415  0.0023 -0.5098 -0.3623
28954SOL    HW294103   7.430   6.872  10.427 -0.7038 -0.7180 -0.5680
28955SOL     OW94104   0.734   1.284  11.797 -0.1427  0.2151  0.1594
28955SOL    HW194105   0.775   1.199  11.812  0.3196  0.1172 -1.4450
28955SOL    HW294106   0.737   1.328  11.882 -1.0967 -1.6477  1.2151
28956SOL     OW94107   6.213   3.725   3.455 -0.3498  0.2322  0.0971
28956SOL    HW194108   6.140   3.728   3.394  0.6815  0.1154 -1.1720
28956SOL    HW294109   6.189   3.655   3.517 -0.2504 -1.5032 -1.7290
28957SOL     OW94110   7.449   7.063   8.791 -0.0023 -0.5489 -0.3302
28957SOL    HW194111   7.453   7.098   8.880 -2.7466 -2.4803  0.6931
28957SOL    HW294112   7.430   7.139   8.737  0.8977  0.5427  0.8131
28958SOL     OW94113   4.415  10.426   7.402 -0.1664  0.0712 -0.0614
28958SOL    HW194114   4.470  10.386   7.470 -0.7802  0.9117  0.9707
28958SOL    HW294115   4.467  10.499   7.369  0.3793 -0.6940 -0.9525
28959SOL     OW94116  12.635  10.436   4.627  0.5617 -0.4153 -0.6242
28959SOL    HW194117  12.572  10.464   4.562  0.1859 -0.3735 -0.2476
28959SOL    HW294118  12.602  10.351   4.658  0.7855 -0.4801 -0.5549
28960SOL     OW94119   9.748   8.971  12.459 -0.0975  0.2063  0.5220
28960SOL    HW194120   9.659   8.977  12.424  0.2553  1.1538 -0.2949
28960SOL    HW294121   9.770   9.062  12.482  1.2515  0.2765 -0.8809
28961SOL     OW94122  10.296  11.571   2.980 -0.2170 -0.0597  0.0053
28961SOL    HW194123  10.357  11.539   2.914 -0.0193 -0.8443  0.5543
28961SOL    HW294124  10.351  11.588   3.057 -0.6832 -0.7805  0.5061
28962SOL     OW94125   9.281   0.159  10.412  0.2118  0.3023 -0.5793
28962SOL    HW194126   9.336   0.143  10.488 -0.2809 -2.3170 -0.7032
28962SOL    HW294127   9.330   0.222  10.360  1.2213  1.0457  1.1764
28963SOL     OW94128   9.123  11.114  11.734  0.2016 -0.2969 -0.8175
28963SOL    HW194129   9.200  11.103  11.679  0.3765  2.3099 -1.2387
28963SOL    HW294130   9.053  11.069  11.687  1.0724 -1.0645 -1.4020
28964SOL     OW94131   7.584   1.761   2.506 -0.0025 -0.2407 -0.6769
28964SOL    HW194132   7.571   1.855   2.496  0.9047 -0.0013  0.1682
28964SOL    HW294133   7.530   1.721   2.438  0.4341  0.9321 -1.7500
28965SOL     OW94134   4.502  11.965   4.797  0.3965  0.3436 -0.1613
28965SOL    HW194135   4.541  12.037   4.846 -0.6941  0.5654  0.4115
28965SOL    HW294136   4.416  11.952   4.837 -0.1251 -0.1265 -1.3773
28966SOL     OW94137   6.580  11.047   1.018  0.3020  0.6711 -0.2787
28966SOL    HW194138   6.607  10.956   1.033 -0.4261  0.1465 -1.8787
28966SOL    HW294139   6.558  11.081   1.104 -1.1951 -1.2732  0.1641
28967SOL     OW94140   0.129   3.855   5.234 -0.3401 -0.1202 -0.4457
28967SOL    HW194141   0.179   3.798   5.292 -0.1924  0.7222  0.2700
28967SOL    HW294142   0.070   3.795   5.187  0.2046 -0.9227 -0.1255
28968SOL     OW94143   2.378   5.516   9.742 -0.3563  0.1164  0.0137
28968SOL    HW194144   2.294   5.507   9.697 -0.0456  3.0839 -1.4453
28968SOL    HW294145   2.373   5.602   9.784  0.8032 -1.0017  2.6251
28969SOL     OW94146   4.181   8.094   5.240  0.8965 -0.0268 -0.5852
28969SOL    HW194147   4.147   8.163   5.296 -0.3744 -1.2713  0.2483
28969SOL    HW294148   4.132   8.103   5.158  2.1336  1.2408 -1.2297
28970SOL     OW94149   7.131   1.845   6.445  0.2104 -0.2066  0.3557
28970SOL    HW194150   7.095   1.784   6.380  0.7335  0.6917 -0.8230
28970SOL    HW294151   7.072   1.838   6.520  0.6005 -2.6035  0.5281
28971SOL     OW94152   1.314   4.307   2.876 -0.1659 -0.3401 -0.2285
28971SOL    HW194153   1.231   4.351   2.861 -0.9208 -2.0859 -1.6191
28971SOL    HW294154   1.365   4.324   2.797  0.0400 -0.8167 -0.2048
28972SOL     OW94155   3.335   6.404   2.345 -0.5930 -0.1977 -0.6411
28972SOL    HW194156   3.381   6.488   2.343 -0.9509  0.1038  1.3012
28972SOL    HW294157   3.249   6.426   2.381 -0.6388 -1.4141  0.0300
28973SOL     OW94158   6.436   7.104   1.807 -0.3559 -0.2287  0.5175
28973SOL    HW194159   6.419   7.023   1.854  1.1374 -1.4491 -0.9260
28973SOL    HW294160   6.352   7.125   1.766 -0.7461 -1.0906  0.8401
28974SOL     OW94161  10.179   1.441   4.475  0.1385 -0.1132  0.0678
28974SOL    HW194162  10.109   1.415   4.535  0.7439  0.4070  1.0150
28974SOL    HW294163  10.186   1.367   4.414  0.6504 -1.4383  1.6460
28975SOL     OW94164   9.399  10.328  11.260  0.2440  0.0420  0.1283
28975SOL    HW194165   9.412  10.358  11.170  0.4560 -1.3497 -0.3329
28975SOL    HW294166   9.488  10.315  11.293  0.1595 -0.5394  0.1417
28976SOL     OW94167   8.160   9.854   3.708 -0.1422 -0.2354  0.0054
28976SOL    HW194168   8.198   9.856   3.621 -1.2666  0.4270 -0.4932
28976SOL    HW294169   8.111   9.937   3.715  0.0057 -0.2344  1.2914
28977SOL     OW94170   0.679  11.345  10.893 -0.1164  0.1368 -0.4138
28977SOL    HW194171   0.623  11.412  10.931  0.4637  1.6743 -2.1382
28977SOL    HW294172   0.761  11.352  10.942 -0.6246 -0.5477  0.5724
28978SOL     OW94173  10.943  12.397  11.790  0.4601  0.5344 -0.1342
28978SOL    HW194174  10.949  12.448  11.870 -3.1733 -0.5792  1.0689
28978SOL    HW294175  10.886  12.449  11.733 -1.6927 -1.1181  0.3633
28979SOL     OW94176   2.176   5.210   4.083 -0.5033  0.0236  0.3302
28979SOL    HW194177   2.126   5.200   4.164  0.0396 -0.5949  0.5975
28979SOL    HW294178   2.125   5.163   4.017  0.1915 -1.4598  0.8070
28980SOL     OW94179   0.761   1.596   9.272  0.1016  0.4935  0.1950
28980SOL    HW194180   0.770   1.509   9.234  0.6558 -0.0030  1.4058
28980SOL    HW294181   0.686   1.634   9.227 -0.9958 -1.1198  0.5527
28981SOL     OW94182   3.477  10.530   7.037 -0.0426 -0.0590  0.4117
28981SOL    HW194183   3.464  10.618   7.003  0.5188 -0.4913 -1.0021
28981SOL    HW294184   3.572  10.517   7.034  0.1520  0.1878  3.0378
28982SOL     OW94185  12.018  12.660   0.832  0.2331  0.1107  0.3247
28982SOL    HW194186  12.093  12.678   0.888 -0.9850  1.2110  1.6939
28982SOL    HW294187  12.016  12.733   0.769 -0.3301  0.7269  1.0357
28983SOL     OW94188   9.538   4.854  11.535  0.5053  0.0476 -0.0654
28983SOL    HW194189   9.444   4.868  11.538  0.6833  1.1412  1.7042
28983SOL    HW294190   9.548   4.759  11.529 -0.6853 -0.0238 -1.4798
28984SOL     OW94191   3.232   1.240  11.053  0.1604  0.0110  0.1167
28984SOL    HW194192   3.206   1.266  11.141 -0.2895 -0.2920  0.0776
28984SOL    HW294193   3.274   1.155  11.064  1.1482  0.4933  0.1783
28985SOL     OW94194   6.461   3.976   2.206 -0.2118 -0.2157  0.0470
28985SOL    HW194195   6.502   4.046   2.156  0.8563 -0.3504  0.6974
28985SOL    HW294196   6.490   3.991   2.296 -0.6050 -1.0300  0.3179
28986SOL     OW94197  12.482   3.289   3.838  0.1248  0.2225 -0.4482
28986SOL    HW194198  12.493   3.380   3.867  0.9014 -0.7001  2.4097
28986SOL    HW294199  12.448   3.243   3.914  1.4152 -2.2508 -1.2623
28987SOL     OW94200   9.995  10.798   9.746 -0.9171  0.4814  0.1152
28987SOL    HW194201  10.023  10.724   9.799  0.1593  0.2419 -0.7422
28987SOL    HW294202  10.025  10.777   9.657 -1.2162  1.6078 -0.2722
28988SOL     OW94203   4.529   6.189   3.825 -0.1674 -0.7473 -0.4458
28988SOL    HW194204   4.608   6.237   3.799  0.9693 -1.6052  1.2064
28988SOL    HW294205   4.553   6.096   3.815 -1.2751 -1.0093 -0.7511
28989SOL     OW94206   7.197   7.608  11.098  0.1041 -0.1947 -0.4297
28989SOL    HW194207   7.258   7.630  11.028 -0.1451  1.1512 -0.2615
28989SOL    HW294208   7.229   7.657  11.174  0.1787 -1.3716  0.3197
28990SOL     OW94209   9.716   5.059   6.230 -0.0248 -0.3872  0.0326
28990SOL    HW194210   9.683   5.110   6.304  1.0087  2.3913 -1.2890
28990SOL    HW294211   9.800   5.100   6.209  0.8076 -2.5867 -1.2721
28991SOL     OW94212   7.272   8.070   3.015 -0.6558 -0.0875 -0.2486
28991SOL    HW194213   7.227   7.994   3.052  1.1729 -1.2814 -0.3630
28991SOL    HW294214   7.207   8.109   2.956 -1.6480 -1.5701 -0.1966
28992SOL     OW94215  11.249   0.314   4.016 -0.5949  0.2095  0.5742
28992SOL    HW194216  11.202   0.237   3.985 -0.5590 -0.6772  2.5638
28992SOL    HW294217  11.210   0.333   4.101  0.6281  1.2739  0.9278
28993SOL     OW94218   1.061  10.663   5.095 -0.4709 -0.4412  0.0415
28993SOL    HW194219   1.156  10.666   5.100 -0.3917  2.0826 -1.2707
28993SOL    HW294220   1.031  10.721   5.166 -0.9075  0.6916 -1.0403
28994SOL     OW94221  11.983  12.182   0.723 -0.2312 -0.1289  0.3924
28994SOL    HW194222  11.945  12.241   0.788 -0.2308 -1.2735  1.4649
28994SOL    HW294223  11.951  12.095   0.749  1.0931 -0.7996 -0.1794
28995SOL     OW94224   3.954   6.809  10.394 -0.1147 -0.2448 -0.3315
28995SOL    HW194225   4.032   6.817  10.450  0.6830  3.5735 -1.6796
28995SOL    HW294226   3.881   6.831  10.451  0.1780 -0.5382  0.1658
28996SOL     OW94227   2.409   0.606  11.328  0.0954  0.2665 -0.9571
28996SOL    HW194228   2.443   0.681  11.377 -1.7256  1.1261 -0.8860
28996SOL    HW294229   2.458   0.531  11.360  0.8475  1.2037  0.1742
28997SOL     OW94230   0.557  12.291   6.734 -0.0836  1.0921 -0.1076
28997SOL    HW194231   0.560  12.215   6.676 -0.2780  0.3962  0.7876
28997SOL    HW294232   0.544  12.255   6.821  2.0071  2.0151  0.6345
28998SOL     OW94233   1.076   2.910   3.545  0.5467 -0.1704  0.0239
28998SOL    HW194234   1.093   2.974   3.475  1.7427 -0.1226  0.3308
28998SOL    HW294235   0.995   2.940   3.586 -1.0141 -1.0008 -2.2352
28999SOL     OW94236   4.771   7.585  10.211  0.4116  0.2368 -0.5036
28999SOL    HW194237   4.723   7.588  10.293  1.2790 -1.7511  0.1340
28999SOL    HW294238   4.825   7.664  10.211  1.0756 -0.1858  1.2908
29000SOL     OW94239   4.263   8.472  10.256  0.3349 -0.1792 -0.4469
29000SOL    HW194240   4.219   8.500  10.336  1.2148 -0.8752  0.3048
29000SOL    HW294241   4.206   8.405  10.219  0.0971 -0.1030 -0.2198
29001SOL     OW94242   0.869  10.888   8.483  0.5456 -0.0620 -0.4394
29001SOL    HW194243   0.863  10.822   8.552  1.4853 -1.1170 -1.3278
29001SOL    HW294244   0.794  10.871   8.426 -0.0209  0.5732  0.1014
29002SOL     OW94245   4.025   2.164  11.695  0.7098  0.2134 -0.0415
29002SOL    HW194246   4.039   2.187  11.786  0.9628 -0.7824  0.1868
29002SOL    HW294247   4.030   2.068  11.693  0.4823  0.2034 -1.0582
29003SOL     OW94248   9.665   8.072  11.380 -0.2488 -0.0607  0.3621
29003SOL    HW194249   9.734   8.076  11.314  1.3037 -0.8712  1.8581
29003SOL    HW294250   9.645   7.979  11.388 -1.0028  0.1055  0.4542
29004SOL     OW94251   2.154   4.425  12.304 -0.1637  0.3303  0.0508
29004SOL    HW194252   2.197   4.510  12.299  1.9236 -0.7172 -1.3838
29004SOL    HW294253   2.060   4.445  12.305  0.2432  2.5953 -0.9545
29005SOL     OW94254   0.872   6.916   9.431 -0.9171  0.0817 -0.2157
29005SOL    HW194255   0.817   6.926   9.353 -1.1117  1.5363  0.0771
29005SOL    HW294256   0.814   6.933   9.505 -0.2686  0.9304  0.1288
29006SOL     OW94257   1.795   2.383   8.071  0.2744  0.1433  0.0008
29006SOL    HW194258   1.800   2.319   8.143 -0.9758  1.6611  1.5441
29006SOL    HW294259   1.873   2.438   8.083  0.9377 -0.5919 -0.8477
29007SOL     OW94260   3.075   3.060  11.208  0.5266 -0.0055 -0.3249
29007SOL    HW194261   3.035   3.064  11.121  2.7440  1.0905 -1.3982
29007SOL    HW294262   3.116   2.974  11.211 -1.7887 -1.1447  0.7914
29008SOL     OW94263  11.538   8.707  12.208 -0.2689 -0.6266 -0.1495
29008SOL    HW194264  11.614   8.652  12.189  0.0478 -0.7192  1.2520
29008SOL    HW294265  11.537   8.714  12.303  0.2061  2.5100 -0.2791
29009SOL     OW94266   1.611  10.821   8.579  0.2314  0.2169 -0.0921
29009SOL    HW194267   1.527  10.826   8.533  0.0313 -3.2933 -0.3473
29009SOL    HW294268   1.590  10.845   8.670 -0.5604  1.4545 -0.5769
29010SOL     OW94269   6.040   7.061   8.574  0.1518 -0.1961  0.1605
29010SOL    HW194270   6.032   7.130   8.507  1.2042 -0.0553  0.1506
29010SOL    HW294271   5.997   7.098   8.651  0.4078  0.3480  0.0542
29011SOL     OW94272  12.622   5.356  12.206  0.0167  0.0040 -0.1122
29011SOL    HW194273  12.596   5.289  12.143  0.9558  0.3106 -0.8428
29011SOL    HW294274  12.541   5.406  12.221 -0.1707  0.0993 -1.2951
29012SOL     OW94275   4.995  10.448   8.068  0.1123 -0.6040  0.5080
29012SOL    HW194276   4.993  10.361   8.028  1.5561 -0.4811  0.1209
29012SOL    HW294277   5.041  10.435   8.151  2.5427  0.1604 -0.6351
29013SOL     OW94278   0.634   1.763  10.128 -0.0493  0.0426 -0.0238
29013SOL    HW194279   0.672   1.851  10.127 -1.8326  0.8998 -1.8441
29013SOL    HW294280   0.676   1.719  10.054 -0.5356  0.0578 -0.3164
29014SOL     OW94281   8.204   4.715   8.954  0.1381  0.0468 -0.1959
29014SOL    HW194282   8.220   4.676   8.868 -1.5202 -0.0462 -0.4876
29014SOL    HW294283   8.149   4.652   8.999  0.8344  0.1857  0.8843
29015SOL     OW94284  10.933   9.308   4.313 -0.6902 -0.0008  0.4028
29015SOL    HW194285  10.927   9.327   4.407 -1.7779  0.8675  0.1815
29015SOL    HW294286  10.941   9.395   4.272 -1.8439 -0.2543 -0.4047
29016SOL     OW94287   5.704   8.076   0.603  0.2447  0.3052  0.4800
29016SOL    HW194288   5.681   8.000   0.551 -1.5993 -0.5431  2.4031
29016SOL    HW294289   5.661   8.149   0.559 -1.3929 -0.4107  0.8211
29017SOL     OW94290   4.085   7.891  11.043 -0.4046 -0.1606  0.0415
29017SOL    HW194291   4.075   7.906  11.137 -1.5822 -1.6278  0.1860
29017SOL    HW294292   4.165   7.938  11.019  0.4483 -0.5561  1.9658
29018SOL     OW94293   1.953   4.487   1.587  0.1801 -0.1524 -0.7831
29018SOL    HW194294   2.045   4.461   1.594  0.8742  1.7738 -1.7648
29018SOL    HW294295   1.948   4.569   1.637 -1.3591 -0.9265  0.4042
29019SOL     OW94296  10.237   6.174   4.625  0.5553  0.5769 -0.3331
29019SOL    HW194297  10.262   6.265   4.611 -0.3925  0.7565 -0.9561
29019SOL    HW294298  10.158   6.179   4.679 -0.4367  0.2144 -1.6967
29020SOL     OW94299   5.327   9.033   6.373 -1.0068 -0.6393  0.1535
29020SOL    HW194300   5.280   9.044   6.291  1.1561  0.9646 -0.9808
29020SOL    HW294301   5.274   9.079   6.438 -1.2800  0.7034 -0.9746
29021SOL     OW94302   4.367   1.988   3.516 -0.4688  0.2799  0.1496
29021SOL    HW194303   4.419   1.931   3.460 -1.2023 -0.5692  0.3073
29021SOL    HW294304   4.415   2.071   3.518  0.5400 -0.2821 -0.2046
29022SOL     OW94305   0.875   3.525   4.764 -0.1520  0.0828 -0.1309
29022SOL    HW194306   0.831   3.574   4.695  1.1593  1.4065 -0.0897
29022SOL    HW294307   0.963   3.510   4.730  1.0192  2.0428  1.7257
29023SOL     OW94308   4.366   8.889   5.964  0.3074 -0.6721 -0.3360
29023SOL    HW194309   4.337   8.930   6.045  1.1325 -2.3955  0.9081
29023SOL    HW294310   4.441   8.941   5.936  2.2591 -1.9697  1.9942
29024SOL     OW94311   9.248   4.081   7.455 -0.4401  0.4693  0.4579
29024SOL    HW194312   9.212   4.119   7.375  0.6384 -0.9916 -0.7755
29024SOL    HW294313   9.338   4.114   7.459  0.2148 -1.1364 -0.1490
29025SOL     OW94314   7.586   3.891  10.975 -0.4172  0.0654 -0.0470
29025SOL    HW194315   7.612   3.900  11.066 -1.3949  0.9448  0.1601
29025SOL    HW294316   7.502   3.845  10.978 -1.4614  1.8782 -0.3491
29026SOL     OW94317   4.028   7.644  10.358  0.6605  0.2544  0.7656
29026SOL    HW194318   3.980   7.724  10.336 -1.3345 -0.4169  2.3714
29026SOL    HW294319   4.022   7.638  10.453 -0.2906 -2.3813  0.6119
29027SOL     OW94320  12.582   2.680  10.086  0.2321  0.2221  0.2093
29027SOL    HW194321  12.547   2.606  10.137 -0.2332  1.2468  1.4180
29027SOL    HW294322  12.570   2.653   9.995 -3.9102  0.4820  0.4833
29028SOL     OW94323  10.314   7.570   9.098  0.0967  0.0515 -0.4361
29028SOL    HW194324  10.342   7.569   9.190 -0.2149 -0.1270 -0.3429
29028SOL    HW294325  10.391   7.603   9.050  1.0291 -1.8266 -0.3478
29029SOL     OW94326   6.674  12.468   1.798  0.1344  0.6237  0.6038
29029SOL    HW194327   6.597  12.519   1.822 -1.0898 -1.6137  1.6865
29029SOL    HW294328   6.716  12.447   1.882  0.1128 -0.8678  0.2620
29030SOL     OW94329   9.063   5.993  12.022 -0.6674 -0.1566  0.1434
29030SOL    HW194330   8.989   5.982  12.081 -0.5532 -0.1135  0.2948
29030SOL    HW294331   9.023   6.001  11.935 -0.8043 -0.7737  0.1476
29031SOL     OW94332  10.221   3.703   4.690  0.4602 -0.7415 -0.6057
29031SOL    HW194333  10.203   3.609   4.703  0.9593 -0.7327  0.2132
29031SOL    HW294334  10.249   3.709   4.599  2.9568 -1.8084  0.0179
29032SOL     OW94335   7.837   4.017  12.685  1.0117 -0.5090  0.2353
29032SOL    HW194336   7.927   3.990  12.670  1.5242  0.9023  0.6588
29032SOL    HW294337   7.786   3.963  12.624  2.3839  0.4303 -1.8593
29033SOL     OW94338   7.847   2.004   9.518 -0.1530  0.2367  0.1000
29033SOL    HW194339   7.839   1.966   9.605  0.6040  2.1780  1.0601
29033SOL    HW294340   7.909   1.946   9.473 -0.2938 -0.5901  0.9384
29034SOL     OW94341  10.469   1.453   1.178 -0.0699 -0.2511  0.3564
29034SOL    HW194342  10.464   1.512   1.103 -0.8842 -1.5955 -0.7231
29034SOL    HW294343  10.391   1.473   1.230 -0.0958 -0.0430  0.2370
29035SOL     OW94344   7.199   6.314   1.496  0.1403  0.0537  0.3542
29035SOL    HW194345   7.266   6.369   1.457 -0.5830  0.6468 -0.0768
29035SOL    HW294346   7.151   6.277   1.422 -0.6576  0.4602  0.6552
29036SOL     OW94347   8.413   2.913   0.498 -0.6673 -0.3442  0.3902
29036SOL    HW194348   8.440   2.941   0.410  0.0619  0.2127  0.7812
29036SOL    HW294349   8.358   2.984   0.530 -1.9732 -1.1115 -0.0851
29037SOL     OW94350   0.904   7.244   7.789  0.0005  0.6085 -0.0474
29037SOL    HW194351   0.899   7.200   7.873 -4.0887 -1.3289 -1.0685
29037SOL    HW294352   0.828   7.301   7.786 -1.7790 -1.5896 -3.3841
29038SOL     OW94353  10.155  10.921   2.549 -0.2936 -0.0615  0.3707
29038SOL    HW194354  10.158  11.003   2.501 -0.9188 -0.2160  0.0643
29038SOL    HW294355  10.135  10.855   2.483 -2.5183 -0.1047  1.0336
29039SOL     OW94356   5.079   2.576  10.413 -0.5202  0.1157 -0.2047
29039SOL    HW194357   5.119   2.655  10.377 -1.3439  0.2886 -0.7685
29039SOL    HW294358   5.065   2.597  10.505  2.9429 -0.8562  0.7019
29040SOL     OW94359  11.052   1.837  10.569 -0.1758 -0.6975 -0.4202
29040SOL    HW194360  10.960   1.815  10.554 -0.0921 -1.2721 -0.1529
29040SOL    HW294361  11.100   1.780  10.509  0.0786 -1.7129  0.6997
29041SOL     OW94362   6.383   6.802   5.695 -0.1429 -0.0072 -0.0564
29041SOL    HW194363   6.454   6.788   5.758 -0.1966 -0.1401 -0.0261
29041SOL    HW294364   6.355   6.714   5.670  0.1467  0.0386 -0.5676
29042SOL     OW94365   7.495   1.265  11.188  0.0453 -0.4651  0.5625
29042SOL    HW194366   7.478   1.193  11.128 -1.0863 -0.0827  0.3991
29042SOL    HW294367   7.428   1.330  11.168  2.5171  1.8024 -1.0286
29043SOL     OW94368   5.643   5.827   6.863  0.3191  0.2582 -0.1677
29043SOL    HW194369   5.646   5.815   6.768  0.0468  0.6823 -0.2340
29043SOL    HW294370   5.550   5.823   6.885  0.3894  0.0568  0.0959
29044SOL     OW94371   1.163  12.157   1.813 -0.0800  0.8084 -0.3050
29044SOL    HW194372   1.078  12.170   1.853  0.1555 -0.9382  0.8960
29044SOL    HW294373   1.151  12.181   1.721 -2.5914 -1.7255 -0.7712
29045SOL     OW94374   8.274  10.381  10.624  0.0314  0.4742 -0.3068
29045SOL    HW194375   8.255  10.307  10.566 -2.7446  1.7785 -1.2558
29045SOL    HW294376   8.242  10.352  10.710  0.7721 -0.1359 -0.2339
29046SOL     OW94377   0.295   2.388   1.056  0.0310 -0.3310 -0.0775
29046SOL    HW194378   0.204   2.359   1.062 -0.0787 -0.4924 -1.9121
29046SOL    HW294379   0.314   2.389   0.962  0.9194  2.8099  0.0009
29047SOL     OW94380  12.429   3.122  11.537  0.1794 -0.5024 -0.4480
29047SOL    HW194381  12.390   3.170  11.464 -0.3503 -0.8707 -0.4135
29047SOL    HW294382  12.505   3.078  11.499 -0.1685 -0.8003 -0.8121
29048SOL     OW94383   2.719  12.629   7.956 -0.2783 -0.6264  0.0494
29048SOL    HW194384   2.753  12.557   7.903  0.3760 -0.3224  0.0468
29048SOL    HW294385   2.796  12.682   7.977 -0.5922 -0.5103  0.9449
29049SOL     OW94386   2.049   5.103  10.504  0.2027  0.1426  0.3959
29049SOL    HW194387   1.955   5.103  10.522 -0.0604 -0.5580 -0.8903
29049SOL    HW294388   2.072   5.011  10.493  0.4433  0.4574 -2.1502
29050SOL     OW94389  12.219   2.001   3.022 -0.1804 -0.5850  0.3773
29050SOL    HW194390  12.225   1.913   3.058  2.0794 -1.8708 -2.7392
29050SOL    HW294391  12.204   1.988   2.928 -1.0051  2.4024 -0.0175
29051SOL     OW94392  10.700  11.722   7.214 -0.0574  0.0047 -0.2737
29051SOL    HW194393  10.736  11.806   7.243 -1.9068  1.0378 -0.7480
29051SOL    HW294394  10.673  11.738   7.123 -1.2418 -0.7976 -0.0867
29052SOL     OW94395  12.024   2.807  11.329  0.4032  0.1677 -1.0161
29052SOL    HW194396  11.988   2.732  11.375  2.6720  0.0725  0.8155
29052SOL    HW294397  12.011   2.788  11.236 -0.4596 -1.7153 -0.5429
29053SOL     OW94398   1.540   9.183   2.680  0.3641 -0.2534 -0.1140
29053SOL    HW194399   1.523   9.091   2.699 -1.2320 -0.0848 -0.5805
29053SOL    HW294400   1.501   9.230   2.753 -3.1944  0.2488 -2.1210
29054SOL     OW94401   0.334   5.141   8.361 -0.2758  0.7831  0.2751
29054SOL    HW194402   0.327   5.066   8.420 -0.9830  1.4386  1.0537
29054SOL    HW294403   0.370   5.105   8.280 -0.3846 -0.3475  0.7165
29055SOL     OW94404   0.822   6.221   0.471  0.1862  0.0550  0.7353
29055SOL    HW194405   0.743   6.244   0.423  0.1653  1.4135  1.3803
29055SOL    HW294406   0.888   6.208   0.403 -0.8506 -2.4437  0.0891
29056SOL     OW94407  10.449   0.964   2.226  0.1993 -0.5496 -0.0419
29056SOL    HW194408  10.439   0.872   2.200  0.5403 -0.7164  0.4083
29056SOL    HW294409  10.403   1.013   2.158  0.2328 -1.0389 -0.4246
29057SOL     OW94410   0.800   5.475   3.548 -0.6792  0.1230  0.0344
29057SOL    HW194411   0.836   5.536   3.483  2.5191  0.9606  2.3114
29057SOL    HW294412   0.737   5.528   3.597 -0.4094  0.6023 -0.1241
29058SOL     OW94413   1.306   2.138  12.370 -0.0153 -0.1992 -0.0641
29058SOL    HW194414   1.220   2.100  12.360 -0.4417  0.1357  1.8596
29058SOL    HW294415   1.366   2.064  12.373 -0.1347 -0.4053 -1.9945
29059SOL     OW94416   9.151   8.803   7.131  0.0172  0.3005 -0.5998
29059SOL    HW194417   9.117   8.888   7.157 -0.8674 -0.2621  0.1306
29059SOL    HW294418   9.230   8.791   7.184 -0.2831  0.3378 -0.1389
29060SOL     OW94419   7.710  11.871  10.896  0.2133 -0.1920  0.5895
29060SOL    HW194420   7.650  11.866  10.821  2.0535  0.5787 -1.0261
29060SOL    HW294421   7.792  11.902  10.858  1.4029 -0.4062  2.8593
29061SOL     OW94422   8.504   1.213   0.152 -0.3967  0.2874 -0.3600
29061SOL    HW194423   8.477   1.150   0.220 -0.8309  0.5288 -0.3074
29061SOL    HW294424   8.531   1.290   0.201  0.2769  0.0961 -0.4185
29062SOL     OW94425   7.292   5.874  12.079 -0.1033  0.2121 -0.0456
29062SOL    HW194426   7.357   5.892  12.146  0.5186 -0.3479 -0.4853
29062SOL    HW294427   7.211   5.860  12.127  0.4616 -0.8047  0.6523
29063SOL     OW94428  11.232  10.200   9.722  0.7528  0.5639 -0.5052
29063SOL    HW194429  11.233  10.277   9.666 -1.4520 -0.2441 -1.7854
29063SOL    HW294430  11.191  10.231   9.803 -0.4162  0.7146 -1.1269
29064SOL     OW94431   3.545   1.747   8.279 -0.4427  0.1655  0.2239
29064SOL    HW194432   3.621   1.751   8.221 -0.6337  1.6967  0.0433
29064SOL    HW294433   3.506   1.661   8.261  0.8239 -0.3382 -0.2042
29065SOL     OW94434   2.095   3.280   6.669  0.2573 -0.0153  0.3816
29065SOL    HW194435   2.031   3.329   6.618 -0.1232 -0.1953  0.6763
29065SOL    HW294436   2.112   3.335   6.746  0.7169  0.1894  0.1346
29066SOL     OW94437   5.736   8.523   9.969 -0.5111 -0.7044  0.3496
29066SOL    HW194438   5.668   8.493   9.909 -0.6865  0.4296 -0.0487
29066SOL    HW294439   5.800   8.566   9.913  0.0996 -0.9868  0.8190
29067SOL     OW94440  10.724   5.465   8.608 -0.2424  0.1673  0.0491
29067SOL    HW194441  10.653   5.425   8.658 -0.4961  1.2275  0.5583
29067SOL    HW294442  10.760   5.532   8.666  2.3985 -1.5262  0.5422
29068SOL     OW94443  10.415   7.490   7.055  0.0477 -0.0851 -0.5399
29068SOL    HW194444  10.470   7.422   7.016  0.8618 -0.8485  1.7502
29068SOL    HW294445  10.456   7.573   7.028  0.8005 -0.5887 -0.9670
29069SOL     OW94446   6.442   4.137  11.461 -0.1553 -0.0044  0.1076
29069SOL    HW194447   6.376   4.161  11.526  0.4267  1.4455  0.2136
29069SOL    HW294448   6.433   4.202  11.392  1.0733  0.1790  0.0857
29070SOL     OW94449   9.831  10.353   3.475  0.3144 -0.0973  0.1733
29070SOL    HW194450   9.837  10.258   3.485 -2.3521 -0.5658 -1.5483
29070SOL    HW294451   9.868  10.370   3.389 -1.0393  0.1001 -0.3910
29071SOL     OW94452   0.059  11.592   3.626  0.3833 -0.0013 -0.0411
29071SOL    HW194453   0.143  11.636   3.642  0.3423  0.0881 -0.0724
29071SOL    HW294454   0.053  11.586   3.531  0.0950  0.4927 -0.0598
29072SOL     OW94455   3.771   5.617   2.961  0.8554  0.2351  0.3169
29072SOL    HW194456   3.689   5.625   3.011  1.3195 -0.0865  1.1477
29072SOL    HW294457   3.813   5.538   2.996  1.0154 -0.2105 -0.8598
29073SOL     OW94458   6.679   8.614   8.227 -0.0145  0.7247 -0.3188
29073SOL    HW194459   6.701   8.549   8.160 -1.3695  0.0843 -0.1731
29073SOL    HW294460   6.699   8.698   8.186 -1.5182  0.3973 -1.8456
29074SOL     OW94461  12.418   4.233   7.974  0.3194 -0.3274 -0.5874
29074SOL    HW194462  12.404   4.213   8.067 -0.7517 -1.4937 -0.9621
29074SOL    HW294463  12.506   4.268   7.970  0.4212 -0.3438  0.8673
29075SOL     OW94464   8.490   5.166   3.532  0.6121 -0.2422  0.0034
29075SOL    HW194465   8.435   5.115   3.592 -1.1332 -0.8458 -1.9775
29075SOL    HW294466   8.555   5.103   3.500  0.1847 -0.4996 -0.3629
29076SOL     OW94467   7.574   6.624   9.866  0.2623  0.5281 -0.2024
29076SOL    HW194468   7.508   6.693   9.869 -1.1333 -0.7458  0.0038
29076SOL    HW294469   7.577   6.598   9.774 -1.8186 -1.4358  0.1908
29077SOL     OW94470   6.627   4.690  11.016 -0.0476  0.4899 -0.0422
29077SOL    HW194471   6.578   4.765  11.048  0.6791  0.7475  0.4727
29077SOL    HW294472   6.718   4.720  11.012 -0.0025  0.2291 -1.6098
29078SOL     OW94473   6.838  11.392   7.128  0.7514 -0.1736  0.6010
29078SOL    HW194474   6.928  11.419   7.150  0.7929  0.9136 -0.7762
29078SOL    HW294475   6.783  11.438   7.191  1.0529  0.6468  0.2787
29079SOL     OW94476   7.330   5.059   4.528 -0.0248 -0.4437  0.5276
29079SOL    HW194477   7.418   5.092   4.546 -0.0171  0.9377 -1.6332
29079SOL    HW294478   7.344   4.984   4.471 -0.2259 -0.3220  0.3160
29080SOL     OW94479   1.387   9.682   8.710  0.3145  0.2393 -0.8865
29080SOL    HW194480   1.385   9.752   8.645  0.5863 -0.3590 -1.5531
29080SOL    HW294481   1.299   9.681   8.748 -0.3929 -0.5106 -2.4539
29081SOL     OW94482  10.661   2.012   0.682  0.2249 -0.0005 -0.1740
29081SOL    HW194483  10.648   2.103   0.657  1.2044  0.9826  2.4945
29081SOL    HW294484  10.651   2.012   0.777  1.4060 -2.4557  0.0230
29082SOL     OW94485   9.426   4.000   0.912 -0.0896  0.3268  0.1714
29082SOL    HW194486   9.416   3.952   0.829 -0.0483  0.2847  0.1910
29082SOL    HW294487   9.420   4.092   0.887 -0.6381  0.2993  0.1978
29083SOL     OW94488   7.337   8.822   6.222  0.3425  0.2293  0.1951
29083SOL    HW194489   7.385   8.891   6.267 -0.3199  1.8649 -1.4795
29083SOL    HW294490   7.402   8.779   6.167  1.0877 -1.5753  2.3465
29084SOL     OW94491  11.404   5.262   5.684 -0.2494 -0.4208  0.0113
29084SOL    HW194492  11.321   5.220   5.660 -0.1299 -0.3996 -0.4439
29084SOL    HW294493  11.384   5.310   5.765  0.0103 -2.6690  1.4981
29085SOL     OW94494  10.071  10.446   0.549  1.0393  0.0489  0.5624
29085SOL    HW194495   9.983  10.481   0.537  1.1002 -0.3714 -1.6223
29085SOL    HW294496  10.129  10.520   0.531  1.1348 -0.6210 -2.5450
29086SOL     OW94497   0.747   6.541   3.935  0.2701 -0.3557 -0.1729
29086SOL    HW194498   0.806   6.499   3.872  1.6748 -1.5156  1.8380
29086SOL    HW294499   0.735   6.476   4.004 -0.1936  1.3356  1.3946
29087SOL     OW94500   2.119  10.444   3.308  0.3216  0.8365 -0.4025
29087SOL    HW194501   2.057  10.380   3.343 -0.4383  2.9388  2.4761
29087SOL    HW294502   2.205  10.409   3.331 -0.0325  0.3596  0.2421
29088SOL     OW94503  10.507   5.370   8.245  0.2360  0.2541 -0.3368
29088SOL    HW194504  10.496   5.422   8.165  0.4334  0.3562 -0.2992
29088SOL    HW294505  10.583   5.314   8.225 -0.6814 -0.8559 -0.8209
29089SOL     OW94506   9.964  12.660  12.382 -0.0049  0.2247  0.3964
29089SOL    HW194507   9.912  12.687  12.306  1.7110  0.2648 -0.8435
29089SOL    HW294508  10.050  12.700  12.367  1.2610 -2.1716  0.8441
29090SOL     OW94509   9.333  11.476   8.994 -0.0639 -0.2581  0.4334
29090SOL    HW194510   9.323  11.382   8.984  1.0978 -0.5004  1.3410
29090SOL    HW294511   9.299  11.513   8.913  0.9987 -1.5530 -0.6480
29091SOL     OW94512  11.669   8.981   1.637  0.0811  0.4625  0.1758
29091SOL    HW194513  11.734   8.970   1.707 -1.3568 -0.4029  1.4467
29091SOL    HW294514  11.679   9.072   1.609  1.6046  0.4394  0.5558
29092SOL     OW94515   0.186   8.625   4.216  0.5572  0.2593 -0.3486
29092SOL    HW194516   0.107   8.675   4.193 -0.0364 -0.4632  0.0870
29092SOL    HW294517   0.153   8.539   4.243  1.4177  0.2733  0.8006
29093SOL     OW94518   6.610   3.166   8.735  0.4619 -0.1418  0.2583
29093SOL    HW194519   6.632   3.222   8.661  0.1386  0.2101  0.4259
29093SOL    HW294520   6.583   3.226   8.804 -0.5626 -0.5313  0.2209
29094SOL     OW94521   6.220   5.486   6.114 -0.1450 -0.6078 -0.2842
29094SOL    HW194522   6.237   5.435   6.193 -0.4990 -1.1746 -0.5726
29094SOL    HW294523   6.221   5.577   6.144 -1.6528 -0.8586  0.6475
29095SOL     OW94524   8.417   9.351   6.954  0.1606 -0.1662 -0.4011
29095SOL    HW194525   8.384   9.264   6.930 -0.6104  0.1416 -0.4875
29095SOL    HW294526   8.345   9.392   7.002  1.0623 -0.1177  0.9364
29096SOL     OW94527   6.998  11.578  12.362  0.2068  0.2531  0.5827
29096SOL    HW194528   7.084  11.605  12.394  0.5457  2.2270 -1.7331
29096SOL    HW294529   6.938  11.642  12.399  0.1212  0.4869  0.0405
29097SOL     OW94530   5.361   4.252   4.776 -0.0290 -0.0315  0.2706
29097SOL    HW194531   5.412   4.177   4.746 -1.5298 -0.3550 -1.6325
29097SOL    HW294532   5.377   4.320   4.712 -0.1454  0.6665  0.9626
29098SOL     OW94533   9.419   7.275   0.662  0.5443 -0.6653  0.1642
29098SOL    HW194534   9.448   7.348   0.716 -1.5015  0.8137 -0.5911
29098SOL    HW294535   9.379   7.316   0.585  1.0154 -2.6432 -1.2148
29099SOL     OW94536  11.956   2.825   0.115 -0.0957 -0.1640 -0.4715
29099SOL    HW194537  11.918   2.787   0.194 -0.4585  0.1903 -0.4670
29099SOL    HW294538  11.921   2.771   0.044  0.5534 -0.7335 -0.3691
29100SOL     OW94539  10.620   6.813  12.631 -0.1983  0.4067  1.0840
29100SOL    HW194540  10.597   6.905  12.623  0.7936  0.5335 -0.6401
29100SOL    HW294541  10.711   6.812  12.661  0.0345  0.0175  0.3993
29101SOL     OW94542   3.446   9.390   2.560  0.1422 -0.2544  0.4615
29101SOL    HW194543   3.372   9.388   2.498 -0.2341 -1.1104  0.9210
29101SOL    HW294544   3.523   9.373   2.505  0.0270  0.8269 -0.0499
29102SOL     OW94545  10.254   9.665   2.372  0.8467  0.1220 -0.5278
29102SOL    HW194546  10.179   9.707   2.331  1.0236  0.4239 -0.5486
29102SOL    HW294547  10.278   9.723   2.445  1.4966  0.4115 -0.9575
29103SOL     OW94548  12.152  11.564  12.617 -0.2924 -0.2814  0.3549
29103SOL    HW194549  12.235  11.592  12.657 -0.0657  0.1394 -0.3741
29103SOL    HW294550  12.112  11.646  12.587 -0.1278 -0.6306 -0.8723
29104SOL     OW94551   4.717   3.488   8.722 -0.0124  0.4845 -0.3061
29104SOL    HW194552   4.733   3.573   8.764 -1.5276  1.1059 -0.9145
29104SOL    HW294553   4.719   3.507   8.628  0.7395 -0.3813 -0.4777
29105SOL     OW94554  12.465   3.670   1.510  0.2136  0.9107 -0.2085
29105SOL    HW194555  12.545   3.679   1.459 -0.0406 -1.7866 -1.2769
29105SOL    HW294556  12.489   3.611   1.582 -0.3843  1.6006  0.5863
29106SOL     OW94557   5.188   2.839   7.089  0.4195  0.2412 -0.0635
29106SOL    HW194558   5.225   2.752   7.076  0.0999 -0.0727  1.0233
29106SOL    HW294559   5.123   2.827   7.158 -0.4617  1.1177 -0.7007
29107SOL     OW94560   9.453  12.296   1.569  0.9358  0.5120 -0.0333
29107SOL    HW194561   9.419  12.219   1.614 -0.2911  0.1332 -1.5399
29107SOL    HW294562   9.469  12.359   1.639 -1.7599  0.2832  0.9186
29108SOL     OW94563   0.457   4.388   3.358  0.0166  0.6629  0.6868
29108SOL    HW194564   0.413   4.307   3.386  0.3348 -0.5125 -1.9607
29108SOL    HW294565   0.482   4.372   3.267  0.1027  3.7727  0.0540
29109SOL     OW94566   9.783   1.544  12.134  0.9507  0.8598  0.1061
29109SOL    HW194567   9.867   1.574  12.171  1.4795  0.4120 -0.6956
29109SOL    HW294568   9.786   1.572  12.042 -0.5199  2.3199  0.4605
29110SOL     OW94569  11.360   0.935   0.025 -0.5256 -0.0900 -0.2329
29110SOL    HW194570  11.341   0.843   0.045  0.3351  0.2092  2.2642
29110SOL    HW294571  11.281   0.966  -0.020 -1.8278 -1.4636  0.9742
29111SOL     OW94572   3.042  11.723  10.464 -0.0188 -0.0111  0.0453
29111SOL    HW194573   2.959  11.677  10.454 -1.5830  2.5242  0.5614
29111SOL    HW294574   3.058  11.763  10.379  0.4957 -0.1657  0.0638
29112SOL     OW94575   5.816   8.858   4.541 -0.6296 -0.3314  0.0543
29112SOL    HW194576   5.901   8.837   4.502  0.3557 -0.2998  2.0011
29112SOL    HW294577   5.800   8.949   4.518  0.6925  0.1624  0.9714
29113SOL     OW94578  10.316   1.599   0.332  0.2247  0.5208  0.3129
29113SOL    HW194579  10.387   1.589   0.396 -0.5184  1.4941  1.3316
29113SOL    HW294580  10.245   1.545   0.366  1.1331 -2.2511 -1.8528
29114SOL     OW94581   0.062   4.112   5.792  0.4140  0.1074  0.0307
29114SOL    HW194582  -0.025   4.083   5.764  0.6830  0.0396 -0.7673
29114SOL    HW294583   0.120   4.039   5.768  0.9212  0.7918 -0.9030
29115SOL     OW94584   4.495   6.619   7.851  0.3929 -0.1504  0.0010
29115SOL    HW194585   4.549   6.637   7.927  0.0412 -0.0395  0.2278
29115SOL    HW294586   4.405   6.625   7.884  0.2443 -0.4395 -0.3432
29116SOL     OW94587   5.842   0.018   7.149  0.3489 -0.2695 -0.0023
29116SOL    HW194588   5.839   0.103   7.193  2.0826 -0.4434  0.5144
29116SOL    HW294589   5.911  -0.030   7.195  0.3347 -1.4571 -1.1796
29117SOL     OW94590   7.898   6.148   2.895  0.3933 -0.2166 -0.1045
29117SOL    HW194591   7.975   6.163   2.950  1.1976 -1.3374 -0.8621
29117SOL    HW294592   7.840   6.222   2.913  0.9411 -0.1768  1.6883
29118SOL     OW94593   1.931   7.093   5.237 -0.6433  0.1637  0.0008
29118SOL    HW194594   1.908   7.176   5.195 -1.3238 -0.9103 -1.8534
29118SOL    HW294595   1.965   7.039   5.166  0.0802 -1.0464  1.2390
29119SOL     OW94596   6.663   6.988  10.076  0.8198 -0.0141 -0.3202
29119SOL    HW194597   6.581   6.953  10.111 -0.1482 -0.7446 -3.0777
29119SOL    HW294598   6.706   6.913  10.035  2.4221  0.5707  0.2223
29120SOL     OW94599   7.128   9.230   0.725 -0.6327  0.2361 -0.1433
29120SOL    HW194600   7.119   9.272   0.640 -0.0306  1.4703  0.3736
29120SOL    HW294601   7.186   9.289   0.775 -0.3710 -0.8358  0.8645
29121SOL     OW94602   3.048   7.063   6.534  0.3402 -0.4071  0.2913
29121SOL    HW194603   2.993   7.074   6.611  0.7384  0.0184  0.5231
29121SOL    HW294604   3.085   6.975   6.544  1.3583  0.1000  1.2445
29122SOL     OW94605   6.995   1.713  12.606  0.0962  1.0815 -0.0780
29122SOL    HW194606   7.009   1.759  12.524 -0.4066  1.0927 -0.1587
29122SOL    HW294607   6.984   1.782  12.671 -0.3106  1.0730 -0.1389
29123SOL     OW94608   6.814   3.174  10.504 -0.1862  0.1256 -0.8067
29123SOL    HW194609   6.842   3.123  10.428 -0.6049 -2.0848  0.4604
29123SOL    HW294610   6.894   3.185  10.556  0.1096  1.6769 -1.5308
29124SOL     OW94611   6.608   9.095   8.419 -0.2569  0.4382 -0.1569
29124SOL    HW194612   6.611   9.159   8.348  0.5710 -1.8761 -2.3624
29124SOL    HW294613   6.698   9.061   8.424 -0.2888  0.4859  2.0551
29125SOL     OW94614  12.262  10.836  11.542 -0.2725 -0.9105 -0.0022
29125SOL    HW194615  12.345  10.806  11.578  0.0107 -1.1978 -0.8596
29125SOL    HW294616  12.287  10.887  11.465 -0.9107 -1.4114 -0.5543
29126SOL     OW94617   9.630  12.184  11.564  0.2747 -0.6452  0.5230
29126SOL    HW194618   9.614  12.109  11.621  0.3979 -1.6638 -0.7520
29126SOL    HW294619   9.629  12.260  11.623  1.8190 -1.7951  2.1030
29127SOL     OW94620   6.244  11.242   7.391  0.0903  0.6891 -0.3786
29127SOL    HW194621   6.185  11.201   7.455 -0.3998  1.7351 -0.1376
29127SOL    HW294622   6.331  11.222   7.424  0.0662 -3.0494 -2.0615
29128SOL     OW94623   1.876   9.933  11.418  0.4752 -0.0493  0.1298
29128SOL    HW194624   1.897   9.855  11.470 -0.7470  1.5313  3.2227
29128SOL    HW294625   1.961   9.969  11.393  1.0878 -2.8263 -2.3372
29129SOL     OW94626   9.485   5.859   3.019 -0.4042  0.2580 -0.1838
29129SOL    HW194627   9.561   5.849   2.961  1.1379 -1.5564  1.9909
29129SOL    HW294628   9.422   5.794   2.987 -0.1970  0.3314 -0.7506
29130SOL     OW94629   0.883   0.109   0.534 -0.0287  0.2159 -0.6947
29130SOL    HW194630   0.913   0.154   0.613 -0.3381 -0.4582 -0.1870
29130SOL    HW294631   0.958   0.113   0.475  0.6434 -0.3337  0.0920
29131SOL     OW94632  10.208   7.122  11.241 -0.6465 -0.1634 -0.3777
29131SOL    HW194633  10.117   7.128  11.270 -0.4832  1.2737 -0.0872
29131SOL    HW294634  10.206   7.149  11.150 -0.4209  0.5820 -0.1677
29132SOL     OW94635   7.507  11.935  11.927  0.0082  0.2557  0.5486
29132SOL    HW194636   7.501  11.938  12.022 -0.1540 -1.1620  0.5993
29132SOL    HW294637   7.424  11.973  11.896 -1.7659 -2.8672  1.0597
29133SOL     OW94638   4.016   8.973   8.574 -0.0869  0.4772 -0.5143
29133SOL    HW194639   4.082   8.913   8.541  0.4804  0.3185  0.8376
29133SOL    HW294640   3.979   9.014   8.496  0.2187 -0.8830 -1.4027
29134SOL     OW94641   8.689   9.832   9.382 -0.2313 -0.2154 -0.0047
29134SOL    HW194642   8.662   9.922   9.402  0.1108  0.1205 -1.0198
29134SOL    HW294643   8.619   9.778   9.418 -0.5222  0.4626  0.4698
29135SOL     OW94644   1.420   4.370   5.152 -0.2609 -0.6293  0.7767
29135SOL    HW194645   1.418   4.378   5.056 -0.7515 -2.8444  0.5337
29135SOL    HW294646   1.510   4.347   5.172 -0.0142  0.4430  0.9263
29136SOL     OW94647   1.551   0.994   3.926  0.4638  0.1549  0.4083
29136SOL    HW194648   1.591   0.944   3.997  0.8116 -1.3018 -0.7512
29136SOL    HW294649   1.579   0.949   3.847 -1.2690  0.7381 -0.5891
29137SOL     OW94650   9.602  10.723   6.292  0.4259  0.0143  0.3507
29137SOL    HW194651   9.677  10.757   6.341  2.0634 -0.0462 -1.9349
29137SOL    HW294652   9.613  10.628   6.292 -0.0155 -0.0359  0.5678
29138SOL     OW94653   4.933   4.353   6.676 -0.0512 -0.1922 -0.0627
29138SOL    HW194654   4.874   4.330   6.604 -0.4107  0.8272 -0.1150
29138SOL    HW294655   4.963   4.269   6.711 -3.0426 -0.8478  1.2160
29139SOL     OW94656   6.402   8.195   9.037 -0.4164 -0.3872 -0.3234
29139SOL    HW194657   6.315   8.196   8.996 -0.6382 -1.6603  0.0677
29139SOL    HW294658   6.390   8.235   9.123 -0.5397 -0.2523 -0.4042
29140SOL     OW94659  10.958   8.023  10.395 -0.2559  0.2310 -0.1173
29140SOL    HW194660  10.872   8.063  10.402  0.3351  2.0240 -2.0113
29140SOL    HW294661  11.017   8.084  10.439  0.2367 -0.2378 -0.1090
29141SOL     OW94662  11.563   3.175  10.499 -0.9823  1.2312  0.2072
29141SOL    HW194663  11.516   3.111  10.554  0.0557  1.1556  1.0422
29141SOL    HW294664  11.616   3.121  10.441 -2.6606  1.2889 -1.4788
29142SOL     OW94665   1.837   1.060   0.536 -0.8054 -0.4688 -0.0327
29142SOL    HW194666   1.784   0.999   0.588 -2.8401 -0.9872 -2.5235
29142SOL    HW294667   1.773   1.111   0.486  0.9276  2.4008  0.4680
29143SOL     OW94668   7.885  12.106   1.582  0.1018 -0.1966  0.3835
29143SOL    HW194669   7.810  12.164   1.593 -0.8462 -1.0588 -1.0538
29143SOL    HW294670   7.957  12.163   1.554  0.0670  0.6656  1.9546
29144SOL     OW94671  11.329   5.809   9.263 -0.0773  0.1974 -0.3622
29144SOL    HW194672  11.415   5.788   9.300  0.1158  0.0533 -0.8788
29144SOL    HW294673  11.325   5.756   9.183 -2.3608 -3.1445  1.7375
29145SOL     OW94674   5.515  10.380   5.270  0.3739  0.1288  0.0961
29145SOL    HW194675   5.576  10.431   5.324  0.8599  1.2192 -1.3923
29145SOL    HW294676   5.571  10.339   5.204 -0.3322 -0.1184 -0.3538
29146SOL     OW94677   6.057   3.641   6.492 -0.2478 -0.5491 -0.5537
29146SOL    HW194678   6.075   3.558   6.536 -1.5040 -0.1052  0.8892
29146SOL    HW294679   6.062   3.620   6.399  1.8993 -1.6637 -0.2439
29147SOL     OW94680   0.213   8.553   3.938 -0.1433  0.0621  0.0457
29147SOL    HW194681   0.186   8.570   4.028  0.4182  1.9073 -0.0882
29147SOL    HW294682   0.269   8.476   3.943 -1.1686 -0.6358  1.0716
29148SOL     OW94683   8.110   7.627   0.184  0.5214 -0.2141  0.1780
29148SOL    HW194684   8.150   7.713   0.172 -1.3657  0.3994 -2.5208
29148SOL    HW294685   8.183   7.570   0.209  2.0044  1.9152  0.9986
29149SOL     OW94686   0.393   7.352   5.393 -0.0460 -0.1642 -0.2991
29149SOL    HW194687   0.364   7.337   5.303  0.1889 -1.4072 -0.1911
29149SOL    HW294688   0.402   7.264   5.430 -1.2688  0.3479  1.3070
29150SOL     OW94689   4.742  12.364   3.220  0.2908 -0.0053  0.1030
29150SOL    HW194690   4.670  12.314   3.259  0.6081 -1.4550 -1.0647
29150SOL    HW294691   4.714  12.379   3.130  0.9963  0.3696 -0.0554
29151SOL     OW94692   1.536   4.292   0.233  0.0071  0.2359 -0.3956
29151SOL    HW194693   1.628   4.302   0.207 -0.3352  0.5487 -1.5659
29151SOL    HW294694   1.526   4.350   0.308  0.3148  1.7200 -1.4570
29152SOL     OW94695   7.800  11.401   7.574 -0.0445 -0.1505 -0.4483
29152SOL    HW194696   7.718  11.420   7.619  0.4085 -0.6460  0.5998
29152SOL    HW294697   7.869  11.422   7.637  0.6001 -0.8794 -0.8822
29153SOL     OW94698   0.422  12.473   2.318  0.3510 -0.1714 -0.0001
29153SOL    HW194699   0.336  12.499   2.286 -0.5045 -1.9715  0.7014
29153SOL    HW294700   0.446  12.540   2.382 -2.0082 -1.2281  2.1772
29154SOL     OW94701   0.244   1.812   8.070 -0.1125  0.0256 -0.4915
29154SOL    HW194702   0.290   1.743   8.022 -0.6616 -0.0187 -0.9782
29154SOL    HW294703   0.174   1.765   8.117  1.2257 -0.1169  1.4562
29155SOL     OW94704   2.321  11.917  11.760  0.3002 -0.0596  0.5878
29155SOL    HW194705   2.290  11.829  11.740 -0.5738  0.3532  0.1191
29155SOL    HW294706   2.411  11.904  11.792  0.0420 -1.1491  0.8928
29156SOL     OW94707   0.327   9.148  12.711 -0.7158  0.0249 -0.5689
29156SOL    HW194708   0.286   9.094  12.779  0.2731  0.2741  0.2573
29156SOL    HW294709   0.404   9.098  12.684 -0.6515  0.3098 -0.9244
29157SOL     OW94710   6.050   7.526   3.156  0.4357 -0.4642 -0.1586
29157SOL    HW194711   6.039   7.459   3.223  0.2998  0.9213  1.2702
29157SOL    HW294712   5.965   7.532   3.113  0.8135 -2.0792 -1.1931
29158SOL     OW94713   3.916   1.250   7.076 -0.1700 -0.4648 -0.2146
29158SOL    HW194714   3.943   1.185   7.141 -0.8463 -0.3371  0.1990
29158SOL    HW294715   3.995   1.266   7.024 -0.0910 -1.9381 -0.5944
29159SOL     OW94716   3.023   1.779   4.952  0.3546 -0.2515 -0.5379
29159SOL    HW194717   3.061   1.770   4.864  1.2236  0.0288 -0.2046
29159SOL    HW294718   2.996   1.870   4.957  0.5248 -0.2076 -0.4264
29160SOL     OW94719  10.062   1.695   4.715  0.3589 -0.0882 -0.2604
29160SOL    HW194720  10.050   1.719   4.623 -1.1566  1.3643  0.2646
29160SOL    HW294721  10.020   1.610   4.723  0.6366 -0.2976 -0.9501
29161SOL     OW94722   7.390  11.571   4.427 -0.1456  0.1869 -0.0518
29161SOL    HW194723   7.377  11.621   4.507  0.1905 -1.5975  1.1790
29161SOL    HW294724   7.367  11.632   4.356 -0.5209  1.7814  1.3798
29162SOL     OW94725   1.919   7.132   9.639  0.0498  0.6026  0.3149
29162SOL    HW194726   1.858   7.192   9.598  0.5743  1.7400  1.1417
29162SOL    HW294727   1.867   7.086   9.705 -0.4607 -0.2158 -0.6294
29163SOL     OW94728   3.653   0.100   4.265  0.0809  0.0442  0.4589
29163SOL    HW194729   3.678   0.016   4.304  1.3285  0.0547 -0.2698
29163SOL    HW294730   3.731   0.154   4.272  0.3448  0.0873 -1.9093
29164SOL     OW94731   0.533   0.257   3.726  0.0368 -0.3493 -0.3825
29164SOL    HW194732   0.543   0.224   3.815  0.4012  0.2164 -0.2107
29164SOL    HW294733   0.520   0.178   3.672 -0.5796 -0.6649  0.2179
29165SOL     OW94734   8.112   6.219  11.310  0.1002 -0.0597 -0.2857
29165SOL    HW194735   8.165   6.197  11.387  1.6349 -0.2359 -1.3325
29165SOL    HW294736   8.101   6.136  11.264  1.3745  0.4149 -1.5256
29166SOL     OW94737   9.256   3.474   6.680  0.1464  0.1269 -0.0604
29166SOL    HW194738   9.277   3.388   6.646 -0.3220 -0.4091  0.9433
29166SOL    HW294739   9.207   3.457   6.761  0.1144  1.3271  0.2047
29167SOL     OW94740   2.226   5.044   9.800 -0.4086 -0.0689  0.0562
29167SOL    HW194741   2.182   5.014   9.880 -0.3139 -2.6220 -0.7399
29167SOL    HW294742   2.316   5.013   9.810 -0.4638 -0.6653 -1.1182
29168SOL     OW94743   7.896   0.820   7.355 -0.3862  0.3376  0.8862
29168SOL    HW194744   7.978   0.869   7.351 -0.4774  0.4188 -1.3215
29168SOL    HW294745   7.828   0.887   7.361 -0.4573  0.5347 -1.2295
29169SOL     OW94746   5.591   9.935   9.430 -0.1285  0.1147  0.3432
29169SOL    HW194747   5.637   9.852   9.440  0.4987  0.1689 -1.6682
29169SOL    HW294748   5.662  10.001   9.432 -0.3061  0.3554 -0.9175
29170SOL     OW94749   4.451   2.179   6.589  0.6204 -0.5755  0.4707
29170SOL    HW194750   4.381   2.222   6.638 -0.2045  0.5268 -1.5441
29170SOL    HW294751   4.410   2.100   6.553  0.8523 -0.7282  0.5378
29171SOL     OW94752   3.273  12.653   4.090 -0.1632 -0.2426  0.0901
29171SOL    HW194753   3.346  12.593   4.075  0.4065  0.3355  0.5199
29171SOL    HW294754   3.225  12.653   4.007 -0.6264 -1.8783  0.3134
29172SOL     OW94755  10.183   7.835   9.379 -0.0016  0.1001  0.0624
29172SOL    HW194756  10.217   7.771   9.442  2.6401 -1.0038 -2.2763
29172SOL    HW294757  10.093   7.808   9.364 -0.3475 -0.2875  2.4216
29173SOL     OW94758   6.453   9.552   9.123 -0.0325  0.9435  0.2786
29173SOL    HW194759   6.483   9.638   9.153  0.5327  1.2219 -1.0289
29173SOL    HW294760   6.521   9.491   9.152  1.7877  1.5355 -2.4510
29174SOL     OW94761   0.242   3.258   1.871 -0.1401 -0.1238  0.3848
29174SOL    HW194762   0.268   3.323   1.806  0.5257 -1.4795 -0.7639
29174SOL    HW294763   0.308   3.189   1.863 -0.4122 -0.6301  2.0654
29175SOL     OW94764   3.015   3.677  12.391  0.0683 -0.4806  0.1589
29175SOL    HW194765   2.946   3.688  12.325  0.0405 -1.1939  0.0711
29175SOL    HW294766   3.034   3.767  12.419 -1.7441 -0.3328  1.0542
29176SOL     OW94767   1.485   5.634  12.409  0.5596 -0.2963  0.3413
29176SOL    HW194768   1.567   5.631  12.457  0.5482  0.5293  0.4319
29176SOL    HW294769   1.422   5.670  12.471  0.3659  0.0238 -0.0341
29177SOL     OW94770   7.572   5.759   9.962  0.7706 -0.4584 -0.3705
29177SOL    HW194771   7.664   5.731   9.967  0.9019 -0.1580 -1.1054
29177SOL    HW294772   7.523   5.677   9.955  1.1249 -0.5497 -2.0632
29178SOL     OW94773   4.472  12.003   2.095  0.0326 -0.5701  0.1596
29178SOL    HW194774   4.515  12.083   2.066  0.3047 -0.0520  1.8687
29178SOL    HW294775   4.396  11.994   2.037  1.6957 -0.8504 -2.1171
29179SOL     OW94776  10.703  10.191  10.989  0.3290 -0.4222 -0.1483
29179SOL    HW194777  10.636  10.135  11.029  0.7451  0.3200  1.6537
29179SOL    HW294778  10.743  10.135  10.922 -1.2878 -1.2579 -0.4721
29180SOL     OW94779  12.426  11.139   7.359  0.3372  0.5086  0.4163
29180SOL    HW194780  12.334  11.158   7.381  0.3318  1.1401 -0.1050
29180SOL    HW294781  12.451  11.070   7.420  0.0109  1.4610  1.6818
29181SOL     OW94782  12.569   7.378   1.812  0.0318 -0.2212  0.4773
29181SOL    HW194783  12.476   7.359   1.825  0.1545 -1.4799 -0.3324
29181SOL    HW294784  12.615   7.313   1.865  0.4594 -0.7215 -0.4967
29182SOL     OW94785   9.733   4.749   9.637 -0.0708 -0.3624  0.2962
29182SOL    HW194786   9.766   4.838   9.626  1.1270 -0.9702 -1.3227
29182SOL    HW294787   9.639   4.757   9.624  0.1482  0.5147 -0.9816
29183SOL     OW94788   2.754   9.387   4.919 -0.3310  0.3000 -0.4073
29183SOL    HW194789   2.792   9.454   4.975 -0.4062  0.6016 -0.7111
29183SOL    HW294790   2.675   9.429   4.882 -1.0582 -0.3726  0.3507
29184SOL     OW94791   3.870   4.169  11.983  0.2841 -0.0717  0.0471
29184SOL    HW194792   3.908   4.186  12.070  3.1679  0.0790 -1.1201
29184SOL    HW294793   3.902   4.242  11.929 -1.7771  0.0555 -1.1020
29185SOL     OW94794   1.830   0.766   0.007 -0.4212 -0.3264  0.4563
29185SOL    HW194795   1.861   0.854  -0.014 -0.5600 -0.7628 -1.8078
29185SOL    HW294796   1.768   0.744  -0.063  0.4080 -2.6333  0.3498
29186SOL     OW94797   6.607   4.449  12.101 -0.2549 -0.3432  0.3670
29186SOL    HW194798   6.561   4.502  12.167 -1.3987 -0.5367 -0.2461
29186SOL    HW294799   6.654   4.383  12.152 -1.2227 -0.5674  1.0069
29187SOL     OW94800   0.532   1.449   9.052 -0.8682 -0.6646 -0.1853
29187SOL    HW194801   0.536   1.468   8.958 -1.9402 -0.0722 -0.1188
29187SOL    HW294802   0.447   1.407   9.065 -0.3996 -1.4590  0.4054
29188SOL     OW94803   6.386   1.391   9.236  0.2626  0.2492  0.3645
29188SOL    HW194804   6.441   1.338   9.178  0.6579 -0.1490  1.1015
29188SOL    HW294805   6.331   1.328   9.282  0.5882  0.4841  1.0915
29189SOL     OW94806   3.301   7.485   8.573  0.0769 -0.5518 -0.1001
29189SOL    HW194807   3.208   7.509   8.582  0.1264 -0.5606  0.4824
29189SOL    HW294808   3.300   7.407   8.518 -0.1300  0.4431 -1.5849
29190SOL     OW94809   6.058  11.168  10.670 -0.2217 -0.3493 -0.4978
29190SOL    HW194810   6.033  11.197  10.582  0.5074 -0.9696 -0.9215
29190SOL    HW294811   6.150  11.144  10.662  0.7274  2.2856  1.1060
29191SOL     OW94812   5.112   3.800   0.912 -0.4488  0.1105  0.2198
29191SOL    HW194813   5.173   3.792   0.839 -0.2885  1.6626  0.1389
29191SOL    HW294814   5.043   3.858   0.879 -2.8264 -2.7259 -0.1990
29192SOL     OW94815   5.264   6.562   9.773 -0.4049  0.5022 -0.1615
29192SOL    HW194816   5.196   6.629   9.764  0.6298  1.4684 -0.9540
29192SOL    HW294817   5.220   6.481   9.747 -1.4082  1.0262 -0.1503
29193SOL     OW94818   7.674  10.140   4.426  0.4431 -0.2705  0.2695
29193SOL    HW194819   7.753  10.133   4.373  1.2797  2.3417  1.0064
29193SOL    HW294820   7.704  10.121   4.515  0.2419  0.5326  0.5221
29194SOL     OW94821   4.215   8.863   2.637 -0.0161 -0.1739 -0.4030
29194SOL    HW194822   4.277   8.936   2.633  0.6641 -0.7875 -2.3016
29194SOL    HW294823   4.269   8.785   2.627 -0.7819 -0.9354  1.1599
29195SOL     OW94824   6.679   5.974  10.948 -0.2363  0.0173 -0.0382
29195SOL    HW194825   6.668   5.898  10.890  1.4068  0.9813 -1.7260
29195SOL    HW294826   6.729   5.940  11.022  0.7101 -0.5456 -0.8969
29196SOL     OW94827   1.928   7.835   9.450  0.3062 -0.2966  0.0746
29196SOL    HW194828   1.937   7.882   9.534  0.3949  1.1769 -0.7195
29196SOL    HW294829   1.864   7.887   9.401  0.4098 -1.0281 -0.8586
29197SOL     OW94830  11.252  12.673   9.952 -0.6440 -0.5764 -0.5828
29197SOL    HW194831  11.298  12.683  10.035 -1.3922  1.4872 -0.3708
29197SOL    HW294832  11.171  12.626   9.975 -0.2728 -1.1257 -0.3802
29198SOL     OW94833  10.719   2.565   1.839 -0.6546  0.1477  0.2013
29198SOL    HW194834  10.678   2.560   1.925  0.1152 -1.4562  0.5161
29198SOL    HW294835  10.812   2.578   1.857 -0.4235 -0.6492 -0.3500
29199SOL     OW94836   9.616   3.119   0.111  0.0298  0.2906  0.0135
29199SOL    HW194837   9.531   3.148   0.079 -1.0239 -1.4575  1.0679
29199SOL    HW294838   9.632   3.035   0.067  1.5472  0.8809 -0.6582
29200SOL     OW94839   6.995   6.482   6.373 -0.4804  0.4820 -0.3750
29200SOL    HW194840   7.053   6.426   6.321  0.1467  2.0249 -1.4371
29200SOL    HW294841   7.021   6.466   6.464 -2.7656 -3.6157 -0.1922
29201SOL     OW94842   2.639   6.981   7.557 -0.6133  0.1452 -0.2950
29201SOL    HW194843   2.606   6.910   7.612  0.4508  0.7451  1.1839
29201SOL    HW294844   2.732   6.988   7.580 -0.6490  1.8846 -0.5424
29202SOL     OW94845  10.402  10.801   1.965  0.1591 -0.7919  0.5679
29202SOL    HW194846  10.309  10.780   1.952  0.1243 -1.9173  2.3099
29202SOL    HW294847  10.417  10.877   1.910 -1.2945 -1.7842 -1.3087
29203SOL     OW94848   2.375   8.873   0.913  0.1194 -0.0950  0.0838
29203SOL    HW194849   2.339   8.785   0.901  0.7547 -0.4050  0.4355
29203SOL    HW294850   2.366   8.914   0.827 -0.4417 -0.3990 -0.0121
29204SOL     OW94851   8.106   8.824  10.771 -0.1873 -0.0213  0.1096
29204SOL    HW194852   8.042   8.862  10.711  0.2823  0.0721 -0.3401
29204SOL    HW294853   8.079   8.854  10.858 -0.3425  0.5877 -0.1483
29205SOL     OW94854  11.719   7.089  10.265  0.4567 -0.1191  0.3218
29205SOL    HW194855  11.779   7.127  10.329  1.6598  0.0027 -0.8310
29205SOL    HW294856  11.720   7.150  10.192  1.0524 -1.4521 -0.8331
29206SOL     OW94857  10.190  12.549   9.465  0.0121  0.1737 -0.5745
29206SOL    HW194858  10.235  12.520   9.545 -2.4701  1.3568  1.4043
29206SOL    HW294859  10.113  12.493   9.459 -1.7760  2.4192  0.0521
29207SOL     OW94860   2.933   5.738   1.004  0.1361 -0.5303 -0.3542
29207SOL    HW194861   3.015   5.689   1.001  0.2674 -0.3020 -0.5781
29207SOL    HW294862   2.883   5.706   0.928 -0.2546 -1.1363  0.1552
29208SOL     OW94863   3.635   1.058   7.908 -0.8637 -0.0297  0.1954
29208SOL    HW194864   3.627   1.072   7.813 -1.4089  0.4474  0.3051
29208SOL    HW294865   3.566   0.997   7.929 -2.7153  2.1262  0.7349
29209SOL     OW94866   7.291   7.115  12.180 -0.0733 -0.4825 -0.8045
29209SOL    HW194867   7.229   7.169  12.229 -0.3165 -1.8335  0.4448
29209SOL    HW294868   7.237   7.074  12.112 -0.1135 -0.0234 -1.0522
29210SOL     OW94869   7.074   3.480   1.377 -0.1355  0.2648  0.0548
29210SOL    HW194870   7.149   3.481   1.437  0.3605  0.0589 -0.5442
29210SOL    HW294871   7.113   3.498   1.291 -0.6919 -0.4445 -0.3516
29211SOL     OW94872  10.083  12.371  11.027  0.0344  1.2781  0.2952
29211SOL    HW194873   9.995  12.381  11.062 -0.3369 -0.0071 -0.2103
29211SOL    HW294874  10.118  12.293  11.072  0.2358  0.7223 -0.7868
29212SOL     OW94875   4.501   9.609   8.101 -0.7268  0.3973 -0.2782
29212SOL    HW194876   4.583   9.659   8.103 -1.1713  1.1229  1.0766
29212SOL    HW294877   4.435   9.673   8.073 -0.7454 -0.3837 -2.1860
29213SOL     OW94878   7.929  11.959   7.987  0.4071  0.2274 -0.3499
29213SOL    HW194879   7.960  12.001   7.907  0.7316  1.9033  0.5999
29213SOL    HW294880   7.834  11.951   7.975  0.5131  0.0358 -1.0857
29214SOL     OW94881   5.646   2.781   4.658  0.2308  0.0235  0.4691
29214SOL    HW194882   5.555   2.794   4.633  0.1217  0.0863  0.8969
29214SOL    HW294883   5.690   2.863   4.634 -0.1757  0.6854  1.8617
29215SOL     OW94884   6.151   0.652   5.752  0.5011 -0.7442 -0.3476
29215SOL    HW194885   6.220   0.612   5.699 -0.7295 -4.3840  0.4816
29215SOL    HW294886   6.070   0.627   5.706 -0.3987  1.6267 -0.1699
29216SOL     OW94887   0.264   9.629   3.372 -0.4681  0.2748  0.1585
29216SOL    HW194888   0.352   9.610   3.406 -0.2483 -1.4737 -1.2117
29216SOL    HW294889   0.205   9.599   3.441  0.0085 -0.8939  0.0909
29217SOL     OW94890  10.611   5.691   4.553  0.3215  0.1765 -0.0367
29217SOL    HW194891  10.681   5.632   4.524  0.0620 -0.2255  0.1451
29217SOL    HW294892  10.637   5.716   4.642 -0.0298 -0.3913  0.2285
29218SOL     OW94893   2.024   3.293   0.095  0.0441 -0.6538 -0.2988
29218SOL    HW194894   2.063   3.292   0.007  1.5721 -1.1126  0.3561
29218SOL    HW294895   2.013   3.200   0.117 -2.1668 -0.5436 -0.7534
29219SOL     OW94896   0.876   8.328   2.038 -0.6611 -0.4219 -0.2722
29219SOL    HW194897   0.908   8.292   2.121 -0.1581  0.7794  0.0777
29219SOL    HW294898   0.945   8.308   1.975 -0.6244 -0.5325 -0.1972
29220SOL     OW94899  11.565   3.940   2.596 -0.1638  0.3047 -0.1508
29220SOL    HW194900  11.619   3.864   2.619  0.2772  1.3867  2.8080
29220SOL    HW294901  11.480   3.921   2.635 -0.3359  0.9142 -0.2250
29221SOL     OW94902  11.082   7.297   1.356  0.3775  0.0369 -0.0336
29221SOL    HW194903  11.053   7.387   1.344 -1.4178 -0.2741  1.4584
29221SOL    HW294904  11.177   7.300   1.344  0.0578  1.4452 -3.4838
29222SOL     OW94905   7.354   3.385   6.281  0.0701  1.0402  0.1402
29222SOL    HW194906   7.324   3.297   6.302  1.1366  0.9193  1.2301
29222SOL    HW294907   7.406   3.375   6.201  1.3767  0.4347  1.0491
29223SOL     OW94908   0.656   9.300   2.549 -0.4574  0.4090 -0.1608
29223SOL    HW194909   0.723   9.365   2.532  0.2777 -0.4645 -0.7167
29223SOL    HW294910   0.687   9.221   2.504 -1.0343 -0.4865  0.9474
29224SOL     OW94911   1.361   8.371   6.097  0.0326  0.2643  0.3625
29224SOL    HW194912   1.293   8.436   6.079  0.4453  0.6731  0.2586
29224SOL    HW294913   1.375   8.328   6.013  0.5104  0.7752  0.1725
29225SOL     OW94914   5.498   9.519   2.401 -0.0570  0.0646 -0.1195
29225SOL    HW194915   5.440   9.513   2.476  0.2697  0.1234  0.1389
29225SOL    HW294916   5.446   9.560   2.333 -0.1298  0.6733  0.3014
29226SOL     OW94917   9.519   3.633   5.995  0.5170  0.0979 -0.0893
29226SOL    HW194918   9.549   3.681   5.918  1.0217  0.0244  0.0568
29226SOL    HW294919   9.441   3.586   5.966 -0.2238  1.3150 -0.1312
29227SOL     OW94920   8.507   8.209   5.135  0.2236  0.4048  0.4223
29227SOL    HW194921   8.418   8.231   5.106 -1.3493 -2.9117  2.0495
29227SOL    HW294922   8.505   8.223   5.230  2.3665  2.6213  0.2491
29228SOL     OW94923   4.106   8.665   4.545  0.0239 -0.1755  0.1320
29228SOL    HW194924   4.016   8.698   4.551  0.2402  0.2533  1.1480
29228SOL    HW294925   4.137   8.661   4.636  1.1369 -0.0147 -0.2186
29229SOL     OW94926  12.047   4.584   4.943 -0.1093 -0.1356  0.0476
29229SOL    HW194927  11.993   4.586   5.022 -1.4693  1.2252 -0.8519
29229SOL    HW294928  11.986   4.602   4.872  1.1749 -0.7665 -1.2798
29230SOL     OW94929  11.508   6.759   6.990 -0.5546  0.1626  0.4276
29230SOL    HW194930  11.522   6.707   7.069  1.2866 -2.1978 -1.2983
29230SOL    HW294931  11.439   6.714   6.942  0.6721 -0.4753 -0.8295
29231SOL     OW94932  11.756   4.118   7.935 -0.0791 -0.0425  0.4290
29231SOL    HW194933  11.712   4.051   7.989  0.2070 -0.8852 -0.3636
29231SOL    HW294934  11.849   4.095   7.939 -0.0291  0.0334 -0.2238
29232SOL     OW94935   4.365   5.326  11.083 -0.6623  0.2081  0.7946
29232SOL    HW194936   4.298   5.277  11.036 -0.1089 -0.5715  0.7865
29232SOL    HW294937   4.344   5.418  11.067 -0.7639 -0.0342 -0.5663
29233SOL     OW94938   7.637   2.409   1.660  0.1728 -0.2484  0.0758
29233SOL    HW194939   7.704   2.428   1.726 -0.7568 -1.2006  1.3452
29233SOL    HW294940   7.625   2.492   1.613  2.3815 -0.1121 -0.3585
29234SOL     OW94941   7.262   9.393  10.456  0.0134 -0.0641 -0.3572
29234SOL    HW194942   7.329   9.391  10.525 -0.9499  1.7937  0.7004
29234SOL    HW294943   7.241   9.486  10.446 -3.2292 -0.6128  0.2057
29235SOL     OW94944   3.893   0.045  12.255  0.5081 -0.7867 -0.1283
29235SOL    HW194945   3.888   0.077  12.345  1.0995 -0.8170 -0.0825
29235SOL    HW294946   3.970  -0.011  12.253  1.2250  0.1920 -0.9507
29236SOL     OW94947   3.830   3.300   2.579 -0.0444  0.1652  0.1080
29236SOL    HW194948   3.921   3.324   2.559  0.3893 -0.2291  1.4873
29236SOL    HW294949   3.837   3.236   2.649 -1.2799 -2.0378 -1.6390
29237SOL     OW94950   7.608   6.325   1.469  0.3516 -0.0587  0.3259
29237SOL    HW194951   7.552   6.295   1.397  0.5560  0.5390 -0.0878
29237SOL    HW294952   7.674   6.256   1.478  1.6167  0.8378 -1.5024
29238SOL     OW94953  11.759   6.245   3.393 -0.0695  0.2549  1.4077
29238SOL    HW194954  11.848   6.245   3.427 -0.8548 -0.3888  3.6696
29238SOL    HW294955  11.715   6.173   3.440 -0.9442 -1.7697 -2.1199
29239SOL     OW94956   6.738  10.062   9.943  0.5047 -0.0460 -0.8050
29239SOL    HW194957   6.654  10.079   9.986 -0.2449  0.5803 -2.4534
29239SOL    HW294958   6.782  10.148   9.944  1.7837 -0.6330  1.2669
29240SOL     OW94959   4.153   2.892  10.175  0.5408  0.4625  0.1558
29240SOL    HW194960   4.222   2.862  10.116 -0.9399 -0.2826 -1.3126
29240SOL    HW294961   4.152   2.828  10.246 -0.4189 -1.2246 -1.2670
29241SOL     OW94962   3.356   3.506   1.271  0.1099 -0.0724  0.0426
29241SOL    HW194963   3.397   3.421   1.281  1.9045  0.5546 -1.4221
29241SOL    HW294964   3.326   3.508   1.180  0.9686  1.1786 -0.2424
29242SOL     OW94965   2.467   5.655   8.333  0.1933 -0.0470 -0.8673
29242SOL    HW194966   2.542   5.709   8.307 -0.2412  0.0607 -1.9458
29242SOL    HW294967   2.507   5.578   8.374  0.8959  0.0465 -1.3567
29243SOL     OW94968   9.155   3.425   1.973 -0.2064 -0.7755 -0.6049
29243SOL    HW194969   9.097   3.380   1.911  0.4157 -2.6909  0.1312
29243SOL    HW294970   9.232   3.369   1.980  0.4535  0.2190  0.6831
29244SOL     OW94971   6.237  10.517  10.624  0.3657  0.0471  0.4278
29244SOL    HW194972   6.201  10.468  10.698 -0.1539  1.0913  0.8874
29244SOL    HW294973   6.198  10.604  10.631  0.8246  0.3664 -0.6971
29245SOL     OW94974   2.653   8.767   7.766  0.4442 -0.2455 -0.2735
29245SOL    HW194975   2.680   8.684   7.727 -0.5792 -0.3744 -0.7395
29245SOL    HW294976   2.725   8.827   7.748  1.0280 -0.9267 -0.2630
29246SOL     OW94977   1.940   6.917   7.613 -0.1582 -0.6455  0.8245
29246SOL    HW194978   1.983   6.860   7.551  2.2360 -0.9103  2.5821
29246SOL    HW294979   1.908   6.991   7.561  1.9626 -0.7331 -0.6949
29247SOL     OW94980   1.163   2.446   8.949 -0.1488  0.3230 -0.2259
29247SOL    HW194981   1.093   2.457   9.014 -0.4234 -1.1442 -0.2440
29247SOL    HW294982   1.117   2.420   8.869  0.4589 -1.6608  0.0248
29248SOL     OW94983   8.745   2.638   0.665  0.3280 -0.0838  0.0830
29248SOL    HW194984   8.776   2.625   0.576  1.8029 -0.5029  0.6222
29248SOL    HW294985   8.823   2.623   0.720 -0.9528 -1.7685  1.5610
29249SOL     OW94986   3.943  11.320   1.375 -0.4992 -0.4227 -0.5728
29249SOL    HW194987   3.958  11.259   1.447  0.7351  1.2473  0.6657
29249SOL    HW294988   3.902  11.396   1.416 -2.1575 -0.4281 -2.1052
29250SOL     OW94989   6.729  12.194   5.426 -0.0682 -0.1312 -0.4685
29250SOL    HW194990   6.747  12.287   5.413 -0.2289 -0.2961 -2.0513
29250SOL    HW294991   6.636  12.184   5.409  0.1894 -0.7744 -1.6013
29251SOL     OW94992   0.624   3.117  11.471 -0.7489  0.4173  0.4912
29251SOL    HW194993   0.688   3.155  11.531 -1.0067  1.5977  0.0603
29251SOL    HW294994   0.659   3.135  11.384 -1.7696  1.3526  0.2401
29252SOL     OW94995   0.999   8.529   7.885  0.3615 -0.1430 -0.4264
29252SOL    HW194996   0.977   8.516   7.793 -1.7523  1.1351 -0.1683
29252SOL    HW294997   1.087   8.565   7.884  0.4052 -0.2528 -1.9344
29253SOL     OW94998  10.783   6.562   5.251 -0.1552  0.1877 -0.0756
29253SOL    HW194999  10.820   6.625   5.190 -0.3872 -1.6507 -2.2480
29253SOL    HW295000  10.690   6.558   5.229 -0.3212 -0.2259  0.6684
29254SOL     OW95001   6.369  12.284   3.941  0.4763  0.7995 -0.5113
29254SOL    HW195002   6.460  12.264   3.962  0.2601  0.0675 -0.2250
29254SOL    HW295003   6.374  12.356   3.877  1.2165  1.3609  0.1619
29255SOL     OW95004   6.456   7.010   3.906 -0.0775  0.6554 -0.1644
29255SOL    HW195005   6.449   6.929   3.955 -0.6177  0.3535 -0.7270
29255SOL    HW295006   6.522   6.992   3.839  1.2807  1.3339  0.9391
29256SOL     OW95007   8.615   6.601  11.732  0.3214 -0.0374  0.1085
29256SOL    HW195008   8.682   6.640  11.675 -0.6995 -0.7985 -1.6806
29256SOL    HW295009   8.541   6.661  11.727  0.0400 -0.3695  0.2453
29257SOL     OW95010   4.879  10.295   4.974  0.1777 -0.3118  0.0653
29257SOL    HW195011   4.904  10.231   4.907 -2.3085 -0.8371 -0.4881
29257SOL    HW295012   4.831  10.362   4.926  0.8643  0.8411  0.9538
29258SOL     OW95013   7.164   5.418   3.269  0.3324  0.1119 -0.1084
29258SOL    HW195014   7.244   5.412   3.217  0.2432 -0.0507 -0.2274
29258SOL    HW295015   7.193   5.401   3.359  0.7626  2.0451  0.1485
29259SOL     OW95016   5.047   3.958   0.069  0.2775 -0.0884 -0.8208
29259SOL    HW195017   5.079   3.891   0.008  1.3266  0.3273 -0.7578
29259SOL    HW295018   5.087   4.039   0.038 -1.4575  0.6470 -1.2623
29260SOL     OW95019   1.671   8.241  11.697  0.0603 -0.8641  0.2558
29260SOL    HW195020   1.688   8.308  11.764  1.0171  0.6113 -1.3785
29260SOL    HW295021   1.723   8.166  11.725  0.4004 -0.3055  1.1810
29261SOL     OW95022   1.504   3.316   7.352 -0.3959 -0.1464 -0.1911
29261SOL    HW195023   1.460   3.232   7.337 -0.5843 -0.2366  0.8158
29261SOL    HW295024   1.482   3.339   7.442 -0.3740  1.0067 -0.4628
29262SOL     OW95025  10.400   6.289  10.998 -0.6053  0.1366  0.0149
29262SOL    HW195026  10.411   6.340  10.917 -2.4728 -0.2470 -0.5206
29262SOL    HW295027  10.328   6.229  10.979 -0.8999 -0.1486  1.8848
29263SOL     OW95028   5.057  10.579   7.374 -1.0947 -0.5615 -0.3010
29263SOL    HW195029   5.091  10.652   7.321  0.4355  0.0739  1.4573
29263SOL    HW295030   4.962  10.585   7.363 -0.9025  0.1682 -2.1203
29264SOL     OW95031   4.174   2.091   0.846 -0.4396  0.5774  0.6585
29264SOL    HW195032   4.187   2.005   0.887 -0.3328 -0.0855 -0.7241
29264SOL    HW295033   4.200   2.153   0.914 -0.5159 -0.4703  1.6916
29265SOL     OW95034   0.856  12.419   1.724  0.2607 -0.5365 -0.2963
29265SOL    HW195035   0.818  12.507   1.722  1.0992 -0.1244  0.6918
29265SOL    HW295036   0.825  12.381   1.806  0.9640 -0.6632 -0.0841
29266SOL     OW95037   0.510  10.925  11.951 -0.5159 -0.0667  0.0779
29266SOL    HW195038   0.498  10.835  11.982  0.5468 -1.0847 -2.1815
29266SOL    HW295039   0.604  10.933  11.936 -0.6027  1.4184  0.1849
29267SOL     OW95040  11.604   8.576  11.917  0.1277 -0.0453  0.0478
29267SOL    HW195041  11.529   8.627  11.886  0.2670  0.6674  0.8251
29267SOL    HW295042  11.649   8.635  11.978 -0.1659 -1.3692  1.6066
29268SOL     OW95043   8.972   1.827  10.896 -0.1061 -0.1809 -0.5982
29268SOL    HW195044   8.939   1.912  10.927  0.4824  0.5413 -1.8529
29268SOL    HW295045   8.988   1.777  10.976 -1.6886  0.4055  0.1261
29269SOL     OW95046   4.062   1.035   4.135  0.3123 -0.0676 -0.4008
29269SOL    HW195047   4.090   0.979   4.207  0.3930  2.2752  1.5163
29269SOL    HW295048   4.142   1.078   4.106  0.0320  0.1366 -0.8808
29270SOL     OW95049   2.577   2.675  10.362  0.4008 -0.0323 -0.3027
29270SOL    HW195050   2.578   2.691  10.456  0.2639 -0.4130 -0.2349
29270SOL    HW295051   2.521   2.744  10.326 -0.5518 -0.6035  0.0362
29271SOL     OW95052  11.794   3.939  12.687 -0.1465 -0.1724  1.1610
29271SOL    HW195053  11.704   3.923  12.718  0.1311 -2.0935  1.1005
29271SOL    HW295054  11.847   3.876  12.735  0.8374 -0.6563 -0.4897
29272SOL     OW95055   8.510  12.646   8.457 -1.0503  0.3700  0.0426
29272SOL    HW195056   8.458  12.619   8.533 -0.0469 -1.1218  0.2342
29272SOL    HW295057   8.445  12.673   8.392 -1.9371  1.4513  1.3141
29273SOL     OW95058   6.233  12.570   4.740 -0.3612 -0.0807  0.6778
29273SOL    HW195059   6.176  12.494   4.731  1.0525 -1.0718 -0.3558
29273SOL    HW295060   6.322  12.535   4.729  0.3662  1.6279  0.7678
29274SOL     OW95061   4.518   0.016  11.898  0.2352 -0.5777 -0.2972
29274SOL    HW195062   4.574  -0.061  11.899  1.4171  0.1863 -1.7693
29274SOL    HW295063   4.449  -0.005  11.835  0.8543 -0.2824 -1.1008
29275SOL     OW95064   4.631  10.852   9.774  0.7170  0.1662  0.1622
29275SOL    HW195065   4.644  10.878   9.683  0.8534 -2.9027 -0.7757
29275SOL    HW295066   4.539  10.824   9.779  0.8004 -0.0121  0.8853
29276SOL     OW95067   0.822   9.432   2.316 -0.1933  0.0421 -0.2890
29276SOL    HW195068   0.905   9.477   2.301 -0.2708  0.0336 -0.7473
29276SOL    HW295069   0.833   9.347   2.275 -0.4065  0.0179 -0.2957
29277SOL     OW95070  11.708   8.384   5.759  0.1279  0.1145  0.6711
29277SOL    HW195071  11.668   8.441   5.824 -2.1779 -0.5864 -0.0104
29277SOL    HW295072  11.635   8.358   5.702  0.9377 -3.6988  1.0868
29278SOL     OW95073   6.225   1.895   2.483 -0.1598  0.0442 -0.7358
29278SOL    HW195074   6.136   1.876   2.513 -0.2116  0.6967 -0.4770
29278SOL    HW295075   6.236   1.989   2.497  2.6963 -0.6947  5.0302
29279SOL     OW95076   4.143   7.605  10.947 -0.0272  0.2911  0.1244
29279SOL    HW195077   4.056   7.582  10.980 -0.5652  0.9548 -0.7844
29279SOL    HW295078   4.161   7.691  10.986  0.8702 -0.4527  1.4579
29280SOL     OW95079  11.221   9.735   7.433  0.5592  0.4722 -0.5494
29280SOL    HW195080  11.141   9.740   7.380  0.2575  1.1270 -0.0499
29280SOL    HW295081  11.219   9.648   7.471  0.7284  0.0244 -1.5368
29281SOL     OW95082  11.781   6.427  12.286 -0.7562 -0.2408 -0.1480
29281SOL    HW195083  11.712   6.376  12.243  0.3206 -0.9781 -1.0567
29281SOL    HW295084  11.843   6.447  12.216 -0.8100  1.7811  0.3307
29282SOL     OW95085   1.310   4.400   9.137  0.1908 -0.4585 -0.2019
29282SOL    HW195086   1.241   4.337   9.114  0.3337 -1.8058  2.6801
29282SOL    HW295087   1.372   4.395   9.064 -0.4676 -2.6650 -0.6759
29283SOL     OW95088   6.862   2.752   0.106 -0.6930 -0.1373  0.4989
29283SOL    HW195089   6.826   2.706   0.182 -1.3851  1.1252  0.9709
29283SOL    HW295090   6.811   2.833   0.101  1.5248  1.3765  0.7055
29284SOL     OW95091   4.960   6.926   2.512  0.1836  0.0669  0.0066
29284SOL    HW195092   4.891   6.880   2.558  1.0882 -0.4708  0.8644
29284SOL    HW295093   4.983   6.999   2.569  0.9053 -0.2600  0.1481
29285SOL     OW95094   1.232   2.750   9.656  0.0655 -0.0615  0.3774
29285SOL    HW195095   1.190   2.673   9.618  0.3902 -0.0925  0.0764
29285SOL    HW295096   1.188   2.824   9.613  0.5848 -0.0987 -0.2349
29286SOL     OW95097   1.139   8.553   2.999 -0.0904  0.6005 -0.4625
29286SOL    HW195098   1.085   8.561   3.078  0.6154  0.3413  0.0502
29286SOL    HW295099   1.134   8.461   2.976 -0.1025  0.6339 -0.5930
29287SOL     OW95100   4.275   8.060   2.570 -0.5838  0.8352 -0.3212
29287SOL    HW195101   4.356   8.101   2.541 -0.0144  0.0594  0.1342
29287SOL    HW295102   4.294   7.966   2.573 -1.0545  0.7458  1.0804
29288SOL     OW95103   2.788   8.533  10.782 -0.0536  0.0286 -0.2078
29288SOL    HW195104   2.847   8.517  10.708  0.2507 -1.3035  0.2893
29288SOL    HW295105   2.842   8.580  10.846 -1.0044  3.4796 -1.7579
29289SOL     OW95106   8.068   5.050   7.719  0.2601  0.1499  0.5173
29289SOL    HW195107   8.038   5.015   7.802  1.6271  2.1368  1.9468
29289SOL    HW295108   8.115   4.978   7.677 -1.7786 -1.3431  0.6862
29290SOL     OW95109   2.785   2.518  11.641 -0.0853  0.0458  0.1574
29290SOL    HW195110   2.850   2.448  11.635 -1.7022 -1.6134  0.9200
29290SOL    HW295111   2.818   2.576  11.710  0.0376 -1.4156  1.3819
29291SOL     OW95112   4.878   3.591   5.288 -0.0787  0.5407 -0.3088
29291SOL    HW195113   4.850   3.673   5.329 -0.2306 -0.1704  1.0928
29291SOL    HW295114   4.974   3.592   5.296 -0.0279  0.8988 -0.9388
29292SOL     OW95115   7.670   1.942   3.540 -0.5171 -0.5549 -0.6663
29292SOL    HW195116   7.679   2.030   3.503 -1.7868 -0.0209  0.2242
29292SOL    HW295117   7.737   1.890   3.494  0.1735  0.8270 -1.2977
29293SOL     OW95118   0.719   5.670  11.952  0.4545 -0.2227 -0.5712
29293SOL    HW195119   0.777   5.653  12.026 -0.8977  1.7150  1.0421
29293SOL    HW295120   0.760   5.743  11.905 -0.6644  1.3053  0.7030
29294SOL     OW95121   6.521  10.551  11.572  0.3476  0.2108 -0.3871
29294SOL    HW195122   6.427  10.567  11.576  0.1069 -1.0330 -0.8318
29294SOL    HW295123   6.530  10.469  11.523  1.6144 -0.0598  0.2567
29295SOL     OW95124   1.196   3.403   7.818 -0.5283 -0.1195  0.0263
29295SOL    HW195125   1.161   3.317   7.842  0.4171 -0.4568  0.2072
29295SOL    HW295126   1.205   3.450   7.901  0.5289 -0.4470  0.1006
29296SOL     OW95127   3.853   9.570   3.249 -0.0256 -0.5061 -0.4912
29296SOL    HW195128   3.918   9.510   3.212 -0.5586 -0.5982 -1.3026
29296SOL    HW295129   3.804   9.517   3.313  1.7555 -0.0064  1.4010
29297SOL     OW95130   6.604   0.018   5.165 -0.0436 -0.0489 -0.3324
29297SOL    HW195131   6.589   0.089   5.102 -0.2121 -0.1430 -0.3960
29297SOL    HW295132   6.623  -0.058   5.111  0.9833  0.1373 -0.2563
29298SOL     OW95133   7.133   2.243  11.078 -0.0135 -0.0103  0.5838
29298SOL    HW195134   7.098   2.155  11.074 -2.4792  0.9361 -2.0355
29298SOL    HW295135   7.110   2.275  11.165 -1.3638 -1.1123  0.6542
29299SOL     OW95136   0.256   8.263   7.001 -0.1409 -0.4038 -0.3853
29299SOL    HW195137   0.175   8.239   6.956  0.1907  0.3950 -1.4356
29299SOL    HW295138   0.316   8.192   6.983 -0.3653 -0.6298 -0.2509
29300SOL     OW95139   1.785   6.574   3.520 -0.3930  0.4041  0.0268
29300SOL    HW195140   1.862   6.629   3.535  0.1016 -0.3637  0.3167
29300SOL    HW295141   1.724   6.600   3.589  0.5674 -0.7096  1.3553
29301SOL     OW95142   1.917  11.296   0.268  0.4062 -0.0849 -0.0500
29301SOL    HW195143   1.823  11.292   0.282  0.0655  0.6033 -1.9524
29301SOL    HW295144   1.953  11.234   0.331 -1.5060 -2.1502 -0.8714
29302SOL     OW95145  10.508   9.507  11.382  0.3911  0.2138  0.3471
29302SOL    HW195146  10.457   9.553  11.315 -0.6833  1.5971  1.9886
29302SOL    HW295147  10.585   9.562  11.395 -0.3592  1.0456  1.5447
29303SOL     OW95148   3.643   5.943   8.841  0.2001 -0.3986  0.1757
29303SOL    HW195149   3.677   5.919   8.928  1.9729 -0.1428 -0.4037
29303SOL    HW295150   3.571   6.004   8.859  2.8454  2.6225  1.5000
29304SOL     OW95151   9.783   9.151   5.640  0.1519 -0.0190  0.0242
29304SOL    HW195152   9.761   9.171   5.731 -0.5696 -0.4508 -0.0421
29304SOL    HW295153   9.834   9.070   5.645 -1.1288 -0.8587 -0.0391
29305SOL     OW95154  11.670   7.985   0.157 -0.1971  0.3671 -0.4813
29305SOL    HW195155  11.636   8.066   0.120  2.2843  2.7892  2.0428
29305SOL    HW295156  11.755   7.974   0.116  0.3052  0.1414  0.5971
29306SOL     OW95157  10.282   1.384   2.995  0.2426  0.0431 -0.0369
29306SOL    HW195158  10.218   1.312   3.001  1.9448 -1.4604  1.3131
29306SOL    HW295159  10.276   1.414   2.905 -1.7099 -0.6481 -0.1862
29307SOL     OW95160   3.388   2.895  11.378 -0.4778 -0.0612 -0.3873
29307SOL    HW195161   3.305   2.850  11.393 -0.6192  0.5218  0.6380
29307SOL    HW295162   3.454   2.835  11.410 -0.6189  0.1266  0.2778
29308SOL     OW95163  12.344   4.317   2.647  0.2863  0.2139  0.5139
29308SOL    HW195164  12.331   4.223   2.647 -1.2157  0.4007  0.3461
29308SOL    HW295165  12.341   4.343   2.555 -1.0439  0.6261  0.6591
29309SOL     OW95166  12.675   9.695   6.967 -0.4249  0.7029  0.3661
29309SOL    HW195167  12.738   9.718   7.035 -0.0024 -0.0878  0.2594
29309SOL    HW295168  12.652   9.604   6.986 -2.4095  1.2906  1.0734
29310SOL     OW95169   3.429   5.831   5.007 -0.5787  0.2006  0.5211
29310SOL    HW195170   3.335   5.831   4.986 -0.4967  0.4378  0.1551
29310SOL    HW295171   3.460   5.917   4.981 -0.4446  0.4622  1.4952
29311SOL     OW95172   8.991   7.341   4.576  0.2222  0.3162  0.1779
29311SOL    HW195173   9.015   7.428   4.545  0.6205  0.7233  1.5698
29311SOL    HW295174   9.016   7.283   4.504  1.6755  1.1583 -0.0407
29312SOL     OW95175   5.006   1.112   5.265  0.2598 -0.7274  0.0719
29312SOL    HW195176   5.067   1.140   5.197  0.2785 -1.1060 -0.0717
29312SOL    HW295177   4.921   1.145   5.235  0.5144  0.5337  0.7003
29313SOL     OW95178  10.520  12.157  11.093 -0.8099 -0.1246 -0.1184
29313SOL    HW195179  10.613  12.177  11.088 -0.7049 -0.5488  0.0466
29313SOL    HW295180  10.490  12.158  11.002 -1.2604  2.7361 -0.0108
29314SOL     OW95181   9.448   5.664   3.988 -0.0396 -0.1318 -0.1110
29314SOL    HW195182   9.372   5.685   4.041  0.5119 -0.7144  0.9465
29314SOL    HW295183   9.504   5.742   3.995 -1.5585  1.3543 -2.9187
29315SOL     OW95184   7.868   4.321   5.699  0.2474  0.6117 -0.0665
29315SOL    HW195185   7.817   4.335   5.779  2.1534 -0.5170  1.4179
29315SOL    HW295186   7.897   4.409   5.674 -0.3863  0.9794  0.4580
29316SOL     OW95187   4.662   5.359  10.090 -0.4262  0.2878  0.0037
29316SOL    HW195188   4.673   5.376  10.183 -1.9551 -0.2408  0.2972
29316SOL    HW295189   4.570   5.380  10.072 -0.4164 -0.5678 -1.1663
29317SOL     OW95190   5.685  10.383  11.807 -0.1497  0.0909  0.2574
29317SOL    HW195191   5.659  10.445  11.875  1.5506 -0.1118  1.1710
29317SOL    HW295192   5.708  10.303  11.855  2.1204  0.2845 -0.3681
29318SOL     OW95193   1.407  11.619   0.305 -0.1286  0.7051  0.6377
29318SOL    HW195194   1.340  11.607   0.373  0.5157  2.1405  1.5881
29318SOL    HW295195   1.370  11.684   0.245  0.1161  0.9786  0.7773
29319SOL     OW95196   3.564  12.690   8.013  0.1369  0.0299  0.0582
29319SOL    HW195197   3.595  12.716   7.927 -1.2659  0.7797 -0.2586
29319SOL    HW295198   3.552  12.595   8.007  0.5705  0.0016 -0.3889
29320SOL     OW95199   6.772  10.333   7.258  0.2190  0.6885  0.0171
29320SOL    HW195200   6.738  10.263   7.201 -1.7151  0.5208  1.2787
29320SOL    HW295201   6.867  10.321   7.256  0.1960  0.2238 -2.5379
29321SOL     OW95202   7.854   7.572   5.992 -0.1737  0.2214  0.4527
29321SOL    HW195203   7.781   7.632   5.976 -0.6434 -0.9345 -2.1703
29321SOL    HW295204   7.818   7.507   6.053 -0.6693  0.7837  0.7713
29322SOL     OW95205   1.147   2.894   8.658 -0.1615 -0.8447  0.3172
29322SOL    HW195206   1.174   2.893   8.567 -3.7116 -0.3921 -0.8837
29322SOL    HW295207   1.127   2.986   8.677 -2.4792 -1.3022  0.4409
29323SOL     OW95208  11.214   4.599   6.119 -0.0772  0.3176  0.0964
29323SOL    HW195209  11.141   4.657   6.098 -1.1947 -1.1522 -0.2159
29323SOL    HW295210  11.254   4.579   6.034  1.2601  1.7802  0.3362
29324SOL     OW95211  11.259  10.947   4.369  0.0032 -0.0830 -0.1682
29324SOL    HW195212  11.306  10.914   4.292 -0.6799  1.0169 -1.0722
29324SOL    HW295213  11.181  10.989   4.334  0.1491  1.2690  1.0445
29325SOL     OW95214   6.035   6.291  12.458  0.1669  0.1990 -0.7340
29325SOL    HW195215   6.089   6.368  12.445 -0.0035  0.2090 -1.3760
29325SOL    HW295216   5.948   6.316  12.429  0.1591 -0.3001 -1.1633
29326SOL     OW95217   3.518   7.267   4.355  0.2356  0.1080  0.5023
29326SOL    HW195218   3.463   7.251   4.279  0.2541  1.6574  0.1446
29326SOL    HW295219   3.601   7.224   4.334  0.2155  0.4634 -0.3239
29327SOL     OW95220  10.293   2.426   9.329 -0.6633  0.0630 -0.4747
29327SOL    HW195221  10.356   2.495   9.308 -0.7511 -0.1779 -1.6170
29327SOL    HW295222  10.342   2.345   9.319 -0.3493 -0.0383  1.6294
29328SOL     OW95223   0.650   0.315   1.633  0.4773 -0.1703  0.1327
29328SOL    HW195224   0.620   0.350   1.549  1.3878 -0.7906 -0.4755
29328SOL    HW295225   0.727   0.367   1.654  1.3742 -1.2468 -0.3880
29329SOL     OW95226   6.134   3.860   0.894 -0.2418 -0.5133 -0.1808
29329SOL    HW195227   6.043   3.891   0.890 -0.3158 -0.7192 -0.1168
29329SOL    HW295228   6.165   3.865   0.804  0.5034  1.9843  0.1387
29330SOL     OW95229   0.045   4.800   5.692  0.5227  0.1971 -0.0236
29330SOL    HW195230   0.063   4.813   5.785  0.3200 -2.6946  0.5050
29330SOL    HW295231   0.024   4.707   5.684  2.4374 -0.1161 -3.2590
29331SOL     OW95232   3.298   5.829   0.964 -0.7917  0.0061 -0.5280
29331SOL    HW195233   3.312   5.905   0.907  0.9630 -1.4312 -2.1728
29331SOL    HW295234   3.238   5.860   1.031 -0.1633  2.8334 -1.1304
29332SOL     OW95235   1.828   8.234   9.187 -0.5381 -0.2312  0.3171
29332SOL    HW195236   1.824   8.174   9.261 -0.4099 -2.3583 -1.2999
29332SOL    HW295237   1.921   8.237   9.163 -0.6770 -0.1811 -0.2289
29333SOL     OW95238   0.662   0.334  11.499  0.2941  0.0023  0.0617
29333SOL    HW195239   0.644   0.241  11.484 -0.1498  0.4569 -2.6815
29333SOL    HW295240   0.618   0.353  11.583 -1.8447 -1.6881 -0.5721
29334SOL     OW95241  10.636   5.281  12.201  0.0337 -0.5126  0.5461
29334SOL    HW195242  10.683   5.212  12.155 -1.6091 -1.1520 -0.2690
29334SOL    HW295243  10.607   5.240  12.283  0.9048 -0.1082  1.0670
29335SOL     OW95244   9.696  12.122   5.660  0.3428  0.2880  0.0838
29335SOL    HW195245   9.761  12.057   5.635  0.1876 -0.3169  1.1614
29335SOL    HW295246   9.612  12.076   5.655  0.0140  0.9574 -0.9546
29336SOL     OW95247   8.043   6.173   0.186  0.6899  0.1477 -1.1134
29336SOL    HW195248   8.033   6.081   0.163  0.1049 -0.1130  0.0877
29336SOL    HW295249   8.121   6.176   0.242  0.0248  0.1614 -0.1547
29337SOL     OW95250   0.497   6.669   3.464  0.0053  0.2103  0.4564
29337SOL    HW195251   0.471   6.747   3.415  1.3343 -0.5675 -1.6360
29337SOL    HW295252   0.584   6.647   3.429  0.2148 -1.4687  1.9189
29338SOL     OW95253   3.897   8.703   5.932  0.3667  0.3861 -0.0274
29338SOL    HW195254   3.893   8.761   5.856 -0.7666  1.4650  0.8038
29338SOL    HW295255   3.853   8.752   6.002  0.8044 -0.8335  1.1554
29339SOL     OW95256   0.421   9.004   2.198  0.0594  0.2768 -0.1834
29339SOL    HW195257   0.433   9.085   2.247 -0.6269 -0.1984  0.8025
29339SOL    HW295258   0.507   8.961   2.201  0.0375  0.2829  0.5469
29340SOL     OW95259   5.867   9.638   4.776 -0.1188 -0.5318  0.2949
29340SOL    HW195260   5.894   9.578   4.845  0.0131  1.2415  1.8440
29340SOL    HW295261   5.938   9.703   4.772 -1.6456  1.2288  0.7959
29341SOL     OW95262  10.906   0.281   9.873  0.8055  0.2686 -0.3327
29341SOL    HW195263  10.896   0.189   9.900  1.4278  0.5236  0.8163
29341SOL    HW295264  10.906   0.277   9.777 -2.5915 -0.5527 -0.4502
29342SOL     OW95265   3.653   0.268  11.249  0.4482 -0.1053 -0.1009
29342SOL    HW195266   3.582   0.284  11.312  2.0092  0.5610  1.5824
29342SOL    HW295267   3.711   0.343  11.259  1.5720 -0.7933 -1.2050
29343SOL     OW95268   6.165  11.234   1.182  0.4872  0.0045 -0.5865
29343SOL    HW195269   6.124  11.317   1.208  3.6404  1.1821  1.1018
29343SOL    HW295270   6.223  11.257   1.110  1.2346 -0.7735 -0.2491
29344SOL     OW95271  11.339   1.054   4.408  0.4710 -0.0944  0.0407
29344SOL    HW195272  11.314   1.084   4.496 -0.4698 -0.2404 -0.1652
29344SOL    HW295273  11.409   0.991   4.424  2.4052  2.0580  0.4847
29345SOL     OW95274  12.181   0.098   5.645  0.1722  0.4807  0.1184
29345SOL    HW195275  12.095   0.139   5.654 -0.7850 -1.4287  0.1913
29345SOL    HW295276  12.215   0.132   5.562 -1.1123  0.4924 -0.4302
29346SOL     OW95277   2.916   6.882   4.203  0.4996  0.4318  0.0268
29346SOL    HW195278   2.974   6.833   4.144 -0.5463 -0.1094 -0.5869
29346SOL    HW295279   2.839   6.903   4.149 -0.4359  0.0304  1.1555
29347SOL     OW95280  12.323  12.352   8.546  0.0001  0.1178  0.5859
29347SOL    HW195281  12.357  12.441   8.549 -0.4775  0.4778 -1.9038
29347SOL    HW295282  12.233  12.359   8.577 -0.1629  0.6116  0.0245
29348SOL     OW95283   6.546  10.129   2.663  0.2716 -0.1964  0.3605
29348SOL    HW195284   6.512  10.130   2.573  2.1878 -2.2421 -0.4798
29348SOL    HW295285   6.566  10.221   2.681 -1.4527  0.4564 -0.7346
29349SOL     OW95286   7.656  12.502   2.856  0.0897 -0.0164  0.5028
29349SOL    HW195287   7.702  12.490   2.773 -0.1888  1.4791  0.0988
29349SOL    HW295288   7.715  12.467   2.922  1.1733  0.5593 -0.1413
29350SOL     OW95289   0.341   2.646  12.090  0.0689  0.4198 -0.3916
29350SOL    HW195290   0.335   2.551  12.080  1.7889  0.0069  1.7579
29350SOL    HW295291   0.425   2.669  12.052 -0.4433  1.1485 -1.1186
29351SOL     OW95292   9.837  11.064   4.233 -0.2923  0.6492  0.4245
29351SOL    HW195293   9.747  11.093   4.219 -0.5494 -0.4261 -0.2508
29351SOL    HW295294   9.844  11.052   4.327 -1.1334 -0.0936  0.4023
29352SOL     OW95295   4.232  10.776   2.480 -0.4001 -0.5894 -0.7717
29352SOL    HW195296   4.148  10.821   2.479 -0.2599 -0.3193 -0.6143
29352SOL    HW295297   4.273  10.804   2.562  0.5954  0.6932 -1.6708
29353SOL     OW95298   0.777   5.739   7.172 -0.5560 -0.6987  0.3533
29353SOL    HW195299   0.863   5.727   7.131 -1.4993 -1.2930 -1.5667
29353SOL    HW295300   0.754   5.830   7.152 -2.5119 -1.8553 -3.7631
29354SOL     OW95301   5.425  10.216   2.005  0.4185  0.2066 -0.4710
29354SOL    HW195302   5.423  10.137   2.060  2.1201  1.6760  1.9257
29354SOL    HW295303   5.480  10.191   1.931 -1.5892 -1.7136 -1.4396
29355SOL     OW95304   7.022  12.169   3.163  0.2876 -0.0788  0.0049
29355SOL    HW195305   6.976  12.216   3.233  0.8610  0.3441  0.1037
29355SOL    HW295306   7.111  12.158   3.197  0.2035 -1.1129 -0.0788
29356SOL     OW95307   5.965   6.582   5.797  0.2546  0.0341 -0.2227
29356SOL    HW195308   5.892   6.531   5.762 -1.1036  1.4167  0.5257
29356SOL    HW295309   5.988   6.537   5.878 -0.6679  0.3639  0.2279
29357SOL     OW95310   3.541  12.466   1.194  0.1547  0.3301  0.2492
29357SOL    HW195311   3.578  12.393   1.243 -0.8242 -0.8398 -0.6848
29357SOL    HW295312   3.550  12.440   1.102 -0.2727  1.3516 -0.0971
29358SOL     OW95313   9.994   9.536   9.922  0.1258 -0.6194  0.7794
29358SOL    HW195314  10.063   9.475   9.895  0.3488 -0.0284 -0.0399
29358SOL    HW295315   9.978   9.589   9.844 -0.8300 -0.3444  1.1486
29359SOL     OW95316   7.849   8.078   3.031 -0.2068  0.6344 -0.6418
29359SOL    HW195317   7.944   8.064   3.034 -0.1295  1.1241  2.2650
29359SOL    HW295318   7.813   7.993   3.006  0.9668  0.7367 -2.9886
29360SOL     OW95319  10.047   2.434   1.191  0.0303 -0.0392  0.0315
29360SOL    HW195320   9.953   2.451   1.196 -0.0563 -0.6074  0.5862
29360SOL    HW295321  10.060   2.398   1.103 -0.5199 -1.2981  0.4419
29361SOL     OW95322   3.151   4.790   9.081 -0.6401 -0.1733  0.1902
29361SOL    HW195323   3.058   4.796   9.101 -0.7595  0.0014 -0.4050
29361SOL    HW295324   3.173   4.698   9.096 -1.1549 -0.4575 -0.7116
29362SOL     OW95325   0.139   1.225   5.302  0.0806 -0.2878  0.5026
29362SOL    HW195326   0.194   1.298   5.271 -0.7063  0.4398  0.8045
29362SOL    HW295327   0.076   1.212   5.232 -0.2077 -0.2271  0.7515
29363SOL     OW95328   1.036   1.952   7.006 -0.3731  0.0858  0.3759
29363SOL    HW195329   0.976   1.879   7.019  0.8630 -1.0669 -0.2019
29363SOL    HW295330   1.048   1.990   7.093 -0.4634 -0.8599  0.8033
29364SOL     OW95331   9.254   4.692   3.838  0.3363  0.5395 -1.1450
29364SOL    HW195332   9.204   4.710   3.758  1.9680 -2.5521 -3.0524
29364SOL    HW295333   9.203   4.626   3.885  1.1277 -0.3953 -1.5701
29365SOL     OW95334   0.896   9.093   3.861  0.4464  0.7414 -0.2177
29365SOL    HW195335   0.952   9.125   3.932 -0.5073  1.0281  0.4177
29365SOL    HW295336   0.857   9.012   3.895  1.6619 -0.3280 -1.2492
29366SOL     OW95337   6.114   8.552   9.621 -0.2013  0.0856  0.5763
29366SOL    HW195338   6.036   8.505   9.590  0.1526 -0.8200  1.0024
29366SOL    HW295339   6.124   8.625   9.560 -1.3808  0.2179  0.5238
29367SOL     OW95340   0.012  12.479   1.485 -0.4534  0.3011 -0.5828
29367SOL    HW195341  -0.068  12.512   1.526 -0.6288  0.2158 -0.8485
29367SOL    HW295342   0.082  12.534   1.521 -0.5688  0.0696  0.0094
29368SOL     OW95343  11.422   2.245  12.183 -0.0300 -1.0314 -0.7003
29368SOL    HW195344  11.510   2.214  12.201 -0.2261  0.0690  2.7434
29368SOL    HW295345  11.430   2.340  12.179 -1.2335 -0.7970  1.2938
29369SOL     OW95346   9.745   1.641   8.711 -0.5579 -0.4459  0.2277
29369SOL    HW195347   9.823   1.656   8.764 -0.5053  1.0087 -0.2164
29369SOL    HW295348   9.755   1.701   8.637 -1.2659 -1.4851 -0.7442
29370SOL     OW95349  10.643  10.394   9.773  0.5038  0.6171  0.0658
29370SOL    HW195350  10.638  10.392   9.677 -0.5189 -0.9775  0.1086
29370SOL    HW295351  10.680  10.310   9.797  2.2786  1.6304  1.0491
29371SOL     OW95352   5.716   7.812   4.938 -0.6258  0.0623 -0.0285
29371SOL    HW195353   5.698   7.858   5.020 -1.8711  0.7038 -0.6205
29371SOL    HW295354   5.663   7.732   4.943 -0.5661  0.0171 -0.1208
29372SOL     OW95355   0.825   8.487   4.743  0.0166  0.2303  0.4946
29372SOL    HW195356   0.738   8.466   4.777  0.0752 -0.5976  0.1704
29372SOL    HW295357   0.809   8.534   4.662 -0.1591 -1.0758 -0.2619
29373SOL     OW95358  12.091   2.905   8.840  0.3378 -0.1722 -0.8319
29373SOL    HW195359  12.009   2.955   8.843 -0.7523 -1.8927  0.0238
29373SOL    HW295360  12.071   2.831   8.783  0.9932 -1.0722  0.0726
29374SOL     OW95361  12.531   3.056   5.460 -0.1577  0.0156 -0.2735
29374SOL    HW195362  12.589   3.029   5.388  0.8789  1.5272 -0.0422
29374SOL    HW295363  12.577   3.025   5.539 -0.8963 -0.9272 -0.1959
29375SOL     OW95364   5.126   1.021   5.505  0.5066 -0.5001 -0.3323
29375SOL    HW195365   5.088   1.042   5.419  0.5139 -0.6953 -0.3859
29375SOL    HW295366   5.219   1.008   5.487  0.6910  0.4904 -0.1090
29376SOL     OW95367  11.324   0.198   0.589 -0.1805  0.5833  0.1336
29376SOL    HW195368  11.376   0.209   0.510 -0.9348  0.1514 -0.4309
29376SOL    HW295369  11.383   0.157   0.652  0.8128  2.0997  0.2381
29377SOL     OW95370   6.408   9.150   2.645 -0.1019  0.4562 -0.2976
29377SOL    HW195371   6.393   9.092   2.570  0.9077  0.6351 -0.6546
29377SOL    HW295372   6.427   9.090   2.717 -0.9019  0.2890 -0.2159
29378SOL     OW95373   2.781   3.502  11.019  0.2648  0.1025 -0.2730
29378SOL    HW195374   2.737   3.440  11.077 -0.0556  0.6510  0.0825
29378SOL    HW295375   2.722   3.513  10.945 -0.2658  0.9056  0.2458
29379SOL     OW95376   0.515   4.933   0.782 -0.7990 -0.1411 -0.1483
29379SOL    HW195377   0.531   4.968   0.870 -0.2871  0.6685 -0.5471
29379SOL    HW295378   0.420   4.920   0.778 -0.6747 -1.6870  1.0543
29380SOL     OW95379   5.797   4.757   5.354  0.4851 -0.0543  0.1101
29380SOL    HW195380   5.854   4.688   5.322 -0.5184 -0.6000 -0.5678
29380SOL    HW295381   5.750   4.717   5.428 -0.6361 -0.3592 -0.7510
29381SOL     OW95382   1.885   6.919   6.911 -0.0603  0.1363 -0.0266
29381SOL    HW195383   1.936   6.843   6.885  0.0802 -0.0226  0.6903
29381SOL    HW295384   1.807   6.883   6.953  0.3829  0.3706  1.0398
29382SOL     OW95385   3.361   9.486   9.352 -0.1346  0.1153 -0.3586
29382SOL    HW195386   3.411   9.501   9.271 -0.8277  3.2785 -0.3360
29382SOL    HW295387   3.344   9.391   9.352 -1.3799  0.0732 -4.7412
29383SOL     OW95388   9.793   2.978   9.852  0.1685 -0.3391 -0.2115
29383SOL    HW195389   9.768   3.000   9.942  1.2679 -0.3080  0.1110
29383SOL    HW295390   9.733   3.029   9.797  1.0593  1.6256  0.5149
29384SOL     OW95391   0.530   8.604   4.918 -0.0971 -0.0373 -0.0226
29384SOL    HW195392   0.555   8.522   4.963  0.7138 -0.1869 -0.7125
29384SOL    HW295393   0.570   8.596   4.831 -1.3265  0.4144 -0.6486
29385SOL     OW95394   8.668   5.485   5.095  0.4667 -0.2176  0.4105
29385SOL    HW195395   8.720   5.539   5.035  0.4538 -2.3438 -1.6292
29385SOL    HW295396   8.658   5.402   5.050 -4.4055 -0.1276  0.8436
29386SOL     OW95397   5.673   0.165   6.174  0.4970  0.0427 -0.0736
29386SOL    HW195398   5.754   0.205   6.207  0.6201  0.5832 -0.9914
29386SOL    HW295399   5.697   0.132   6.088 -0.1318 -0.2580 -0.1331
29387SOL     OW95400  10.469   8.013   2.332 -0.4123 -0.6566 -0.0537
29387SOL    HW195401  10.470   7.963   2.250 -0.9742 -0.5595 -0.1244
29387SOL    HW295402  10.393   7.980   2.380 -0.6424 -0.0567  0.0099
29388SOL     OW95403   9.560   1.086  10.074 -0.1679  0.8836  0.0582
29388SOL    HW195404   9.550   1.059  10.165  1.6643 -0.3111 -0.0521
29388SOL    HW295405   9.501   1.028  10.026  0.0908  0.3903  0.3249
29389SOL     OW95406   5.774   2.929   2.216  0.3227  0.2077  0.3715
29389SOL    HW195407   5.691   2.921   2.169  1.0936  1.5201 -1.3611
29389SOL    HW295408   5.781   3.022   2.238  1.5990  0.2515 -0.1075
29390SOL     OW95409   7.581   7.720   9.222  0.0665  0.1036 -0.0522
29390SOL    HW195410   7.634   7.768   9.285  1.0425 -1.0482  0.0371
29390SOL    HW295411   7.637   7.648   9.193 -0.9163 -0.2785 -1.0855
29391SOL     OW95412   3.179   6.209   6.109 -0.4890 -0.3998 -0.1627
29391SOL    HW195413   3.112   6.258   6.061 -0.7158 -1.5645 -1.0862
29391SOL    HW295414   3.130   6.143   6.159 -0.1773  0.1692  0.9355
29392SOL     OW95415   8.671   6.166   7.941  0.1021  0.1907  0.0093
29392SOL    HW195416   8.594   6.147   7.994  0.4177 -0.8760  0.1103
29392SOL    HW295417   8.743   6.173   8.003  0.0826  1.3286 -0.0709
29393SOL     OW95418  12.692  12.161   3.144 -0.2174 -0.5402  0.2920
29393SOL    HW195419  12.655  12.112   3.070 -2.5905  1.7436 -0.1953
29393SOL    HW295420  12.705  12.095   3.212  0.5078 -2.4428 -1.5768
29394SOL     OW95421   1.640   8.846   9.773  0.2628  0.9175 -0.1911
29394SOL    HW195422   1.594   8.880   9.696  0.4414 -1.8183 -1.6243
29394SOL    HW295423   1.574   8.796   9.820  0.7730  0.3842 -0.0258
29395SOL     OW95424  12.382   6.175   7.604  0.0424  0.7037  0.1302
29395SOL    HW195425  12.304   6.211   7.563 -0.5340 -2.0112 -1.3585
29395SOL    HW295426  12.349   6.105   7.661  1.3092  0.3521  0.4639
29396SOL     OW95427   5.634   1.920  10.576  0.8933 -0.1534  0.1972
29396SOL    HW195428   5.658   1.844  10.628 -2.0412  0.0107  1.9860
29396SOL    HW295429   5.689   1.991  10.611  0.5551 -0.5363  1.5352
29397SOL     OW95430  10.362   4.173   5.595 -0.1159  0.2145  0.0866
29397SOL    HW195431  10.373   4.147   5.687  1.4875  0.9632  0.1428
29397SOL    HW295432  10.355   4.268   5.598 -1.0106  0.1757 -0.5093
29398SOL     OW95433  11.911   7.208  12.171 -0.8093  0.2005  0.2427
29398SOL    HW195434  11.931   7.302  12.173  1.9137 -0.2827  0.2052
29398SOL    HW295435  11.917   7.185  12.078 -0.3871 -0.1961  0.3672
29399SOL     OW95436   1.926   0.136   0.847 -0.3124 -0.4441  0.2706
29399SOL    HW195437   1.966   0.220   0.868 -0.9212  0.0092 -0.3479
29399SOL    HW295438   1.913   0.138   0.752  2.1071 -2.3199 -0.1861
29400SOL     OW95439   9.153   7.552   8.553 -0.0641  0.5967 -0.2402
29400SOL    HW195440   9.121   7.529   8.466 -0.4158  0.4154 -0.0660
29400SOL    HW295441   9.076   7.582   8.600  0.3810  2.2408 -0.4767
29401SOL     OW95442   7.260   7.367   3.076  0.1267  0.1772  0.3340
29401SOL    HW195443   7.223   7.366   2.988 -0.0954 -0.3229  0.4310
29401SOL    HW295444   7.228   7.287   3.116  0.1145  0.4729  0.9197
29402SOL     OW95445   6.427   0.251   3.596  0.2059  0.1248 -0.2856
29402SOL    HW195446   6.341   0.293   3.607  1.1373  2.3535 -1.0419
29402SOL    HW295447   6.420   0.203   3.514  0.0587  1.4116 -1.0585
29403SOL     OW95448   7.150   8.149   2.497 -0.5061 -0.0337  0.6413
29403SOL    HW195449   7.175   8.238   2.471  1.1788 -0.8197 -0.5968
29403SOL    HW295450   7.067   8.133   2.453  1.1908 -0.5176 -2.7182
29404SOL     OW95451   9.717  12.577  10.934 -0.0882 -0.9703  0.3892
29404SOL    HW195452   9.744  12.509  10.995  1.2836  0.8134  1.8766
29404SOL    HW295453   9.796  12.597  10.884 -0.3293 -0.1014  0.3441
29405SOL     OW95454   9.511   8.327   7.445  0.1160  0.2571  0.2673
29405SOL    HW195455   9.544   8.237   7.442 -2.1713 -0.6899  0.8573
29405SOL    HW295456   9.504   8.347   7.539  0.7182  1.1125  0.1414
29406SOL     OW95457  10.957   9.982  12.564  0.0107  0.3280 -0.1193
29406SOL    HW195458  10.886  10.004  12.504  0.0332 -1.4726 -0.8879
29406SOL    HW295459  10.936   9.893  12.595  1.3237  0.2099  0.5244
29407SOL     OW95460   9.351   0.223  12.026  0.1050 -0.0787 -0.3121
29407SOL    HW195461   9.331   0.309  11.989 -2.4872 -1.1176 -1.5556
29407SOL    HW295462   9.278   0.204  12.085 -0.3635 -2.1469 -1.4662
29408SOL     OW95463   7.357   3.278   9.055  0.6172 -0.1806 -0.0556
29408SOL    HW195464   7.386   3.227   8.980  0.7277  0.1572 -0.2446
29408SOL    HW295465   7.275   3.319   9.026  0.0826 -0.9163  0.3813
29409SOL     OW95466   5.415  11.853   0.940 -0.5467  0.1553  0.1171
29409SOL    HW195467   5.349  11.896   0.885 -0.4360  0.0582 -0.0919
29409SOL    HW295468   5.428  11.767   0.901  1.3713  0.9834 -1.2403
29410SOL     OW95469   4.539   4.893   0.892  0.3400  0.0065 -0.5849
29410SOL    HW195470   4.451   4.874   0.860 -0.7583  1.6569  1.2021
29410SOL    HW295471   4.565   4.813   0.939 -1.5546  0.5167  1.5012
29411SOL     OW95472   0.926   4.148  12.546 -0.1126  0.0935  0.1085
29411SOL    HW195473   0.837   4.114  12.553  0.3898 -1.8673 -2.0981
29411SOL    HW295474   0.920   4.237  12.582 -3.2649  0.5459 -1.2180
29412SOL     OW95475   0.944  11.254   1.759  0.2639 -0.0019  0.0955
29412SOL    HW195476   0.852  11.257   1.732  0.5931  1.2006 -0.9980
29412SOL    HW295477   0.942  11.214   1.846 -1.1542 -1.1725 -0.4376
29413SOL     OW95478   3.633   2.721   2.471 -0.2639  0.0459  0.2510
29413SOL    HW195479   3.555   2.740   2.418  0.1495  0.3959 -0.2387
29413SOL    HW295480   3.649   2.628   2.458 -0.2361  0.1055 -0.1423
29414SOL     OW95481   6.739  10.664   0.726  0.2850  0.3065 -0.4985
29414SOL    HW195482   6.743  10.753   0.763 -0.1169  0.3713 -0.6035
29414SOL    HW295483   6.645  10.644   0.724  0.4082 -0.3761  0.1367
29415SOL     OW95484  11.368  12.284   1.552 -0.2943  0.4918  0.2803
29415SOL    HW195485  11.455  12.260   1.584  0.6903  0.9841 -1.8631
29415SOL    HW295486  11.366  12.380   1.558 -0.3198  0.5493 -0.5172
29416SOL     OW95487  12.217  12.160   6.411 -0.2892 -0.0033  0.3169
29416SOL    HW195488  12.172  12.211   6.478  0.3725  0.3878  0.4644
29416SOL    HW295489  12.255  12.225   6.353 -1.2817 -0.3290 -0.7511
29417SOL     OW95490   5.040   8.729  11.395 -0.1066 -0.1312 -0.4185
29417SOL    HW195491   5.063   8.646  11.437 -1.1084  0.2800  1.0147
29417SOL    HW295492   4.952   8.714  11.360  0.1444 -0.0056 -1.1067
29418SOL     OW95493   7.626   0.949  11.021  0.2187 -0.0210 -0.4946
29418SOL    HW195494   7.637   1.017  10.955  0.2778 -1.6002 -2.2002
29418SOL    HW295495   7.534   0.955  11.047 -0.1001 -0.0676 -1.5656
29419SOL     OW95496   1.551   7.274   1.495 -0.3629  0.2601  0.2914
29419SOL    HW195497   1.595   7.274   1.410 -0.4407 -0.1182  0.2479
29419SOL    HW295498   1.571   7.359   1.533 -0.5962  0.5596 -0.2447
29420SOL     OW95499   7.425   1.519   0.847  0.0032  0.1682  0.3063
29420SOL    HW195500   7.512   1.503   0.811  0.1805  3.7984 -1.3032
29420SOL    HW295501   7.433   1.496   0.940  1.7197 -2.3804 -0.3546
29421SOL     OW95502   0.575   3.571   6.136  0.1973 -0.7073 -0.1395
29421SOL    HW195503   0.488   3.530   6.136 -0.5658  0.7700 -2.0322
29421SOL    HW295504   0.630   3.510   6.185 -1.9825 -1.4777  1.5423
29422SOL     OW95505  11.357  11.064   9.330  0.5742 -0.1222 -0.4371
29422SOL    HW195506  11.426  11.116   9.288  0.1024  0.2606 -0.7548
29422SOL    HW295507  11.293  11.050   9.260 -1.4797  2.6765  0.6975
29423SOL     OW95508   5.797   0.622   5.994  0.3148 -0.0534  0.2778
29423SOL    HW195509   5.747   0.667   5.926 -0.4984  0.3854  1.1450
29423SOL    HW295510   5.883   0.662   5.991 -0.2834  1.3421  0.7813
29424SOL     OW95511   5.935   4.697   0.418 -0.6520 -0.0359  0.2928
29424SOL    HW195512   5.981   4.623   0.378 -1.7463  0.0254 -1.1630
29424SOL    HW295513   5.954   4.690   0.511  0.6889 -1.1301 -0.0421
29425SOL     OW95514   7.614   4.460   1.593  0.6413 -0.0265 -0.0696
29425SOL    HW195515   7.536   4.432   1.641  0.9482 -0.7037  0.0524
29425SOL    HW295516   7.609   4.412   1.510  0.4700  0.6111 -0.4313
29426SOL     OW95517   7.822   9.184  12.152 -0.3041  0.4604 -0.2652
29426SOL    HW195518   7.765   9.202  12.077 -2.1140 -1.0486  0.6854
29426SOL    HW295519   7.888   9.124  12.118 -1.1932 -0.3242 -0.6226
29427SOL     OW95520   9.155   5.288  12.425  0.1078  0.7199 -0.1803
29427SOL    HW195521   9.207   5.250  12.496 -0.1779  1.4052  0.4063
29427SOL    HW295522   9.178   5.235  12.348  0.6697  0.1769  0.3449
29428SOL     OW95523  10.184   7.477   5.242 -0.2020  0.3112 -0.1062
29428SOL    HW195524  10.269   7.434   5.248  0.6026  1.9267  4.0454
29428SOL    HW295525  10.132   7.438   5.312 -1.6456  1.6722 -0.3520
29429SOL     OW95526   4.981  11.101   1.762  0.1511 -0.0803 -0.7701
29429SOL    HW195527   4.931  11.145   1.693  0.5188  0.8956 -0.4388
29429SOL    HW295528   5.071  11.130   1.747  0.5369 -1.3547 -1.0032
29430SOL     OW95529   4.826   1.543  11.059  0.2459  0.0874 -0.2959
29430SOL    HW195530   4.741   1.587  11.061  1.1190  1.8372  0.6063
29430SOL    HW295531   4.815   1.467  11.115 -0.3662  1.0238  0.8971
29431SOL     OW95532   6.091   1.805   3.092 -0.1086 -0.0926  0.1179
29431SOL    HW195533   6.146   1.733   3.121 -1.4097 -1.5692 -0.8803
29431SOL    HW295534   6.152   1.875   3.068  1.2961 -1.4555 -0.4245
29432SOL     OW95535   4.704  10.756   6.399  0.2416  0.3252 -0.9004
29432SOL    HW195536   4.733  10.668   6.376  0.8007  0.4436 -0.6492
29432SOL    HW295537   4.739  10.772   6.486  0.7361  1.0559 -1.2147
29433SOL     OW95538   0.172   7.693   9.412 -0.5730  0.1021  0.6337
29433SOL    HW195539   0.126   7.609   9.407 -0.7599 -0.0980  3.9094
29433SOL    HW295540   0.102   7.758   9.400 -0.3503 -0.0996 -2.4389
29434SOL     OW95541  12.443   2.741   0.159 -0.3154  0.4553  0.3010
29434SOL    HW195542  12.501   2.684   0.108  0.8908  2.3665 -0.5859
29434SOL    HW295543  12.356   2.727   0.122 -0.0228 -0.7206  0.0374
29435SOL     OW95544   3.390   8.843  10.374 -0.0444  0.5294 -1.0422
29435SOL    HW195545   3.406   8.857  10.467 -1.2061  1.3025 -0.9352
29435SOL    HW295546   3.389   8.932  10.337 -1.0652  0.3269 -1.5167
29436SOL     OW95547  12.243   0.591   5.258  0.2976 -0.2129 -0.6449
29436SOL    HW195548  12.226   0.571   5.350  0.3205 -1.3467 -0.8740
29436SOL    HW295549  12.156   0.592   5.217  0.1026  2.0387 -0.3172
29437SOL     OW95550  10.970   0.896   8.496  0.1703 -0.2021  0.2250
29437SOL    HW195551  10.890   0.895   8.445  0.7630 -0.0010 -0.7317
29437SOL    HW295552  10.990   0.804   8.511 -0.7480 -0.2475  1.3186
29438SOL     OW95553   0.597   5.237   2.010  0.4014 -0.0436 -0.2406
29438SOL    HW195554   0.660   5.295   1.967  0.6630 -0.3356 -0.2595
29438SOL    HW295555   0.637   5.150   2.004  0.1552 -0.1790  0.0542
29439SOL     OW95556   6.712   4.732   4.067  0.5916  0.0823  0.0786
29439SOL    HW195557   6.759   4.735   4.151 -0.3887 -0.2000  0.6434
29439SOL    HW295558   6.663   4.650   4.069 -1.5253  1.2785  0.3860
29440SOL     OW95559   5.575   5.948   6.439 -0.9956 -0.2083  0.2101
29440SOL    HW195560   5.589   6.025   6.495  1.0467 -0.6211  0.3405
29440SOL    HW295561   5.498   5.971   6.386 -0.4984  1.9059  0.3027
29441SOL     OW95562   8.091   0.517  11.967  0.0572 -0.1299  0.3459
29441SOL    HW195563   8.119   0.440  12.015  0.5526 -0.0421  0.2066
29441SOL    HW295564   8.025   0.558  12.023 -0.5698 -0.9117  0.2045
29442SOL     OW95565   8.357   7.011   5.494  0.3975  0.0163  0.1178
29442SOL    HW195566   8.358   7.091   5.547  2.1240 -0.3695  0.7399
29442SOL    HW295567   8.437   7.017   5.440 -1.3262  0.4334 -2.5766
29443SOL     OW95568   5.412   7.576   3.691 -0.2886  0.2385  0.3869
29443SOL    HW195569   5.361   7.518   3.747  1.1514 -0.4098  1.0845
29443SOL    HW295570   5.415   7.659   3.738  1.0635 -0.3536  1.4160
29444SOL     OW95571  11.332   0.693   8.542 -0.9042 -0.1149 -0.6974
29444SOL    HW195572  11.363   0.672   8.630 -1.7398 -0.9343 -0.5690
29444SOL    HW295573  11.395   0.650   8.483 -0.5477  0.1264 -0.4920
29445SOL     OW95574   6.586   5.210   6.363  0.1444  0.5052 -0.4764
29445SOL    HW195575   6.530   5.175   6.432  0.8962  1.7792  0.8292
29445SOL    HW295576   6.673   5.213   6.402  0.5597  1.3965 -1.4224
29446SOL     OW95577   5.844   1.221   0.399 -0.5610 -0.6725  0.2491
29446SOL    HW195578   5.898   1.144   0.385 -2.1061 -1.5406 -1.2128
29446SOL    HW295579   5.853   1.240   0.493 -0.2827 -2.7068  0.6684
29447SOL     OW95580   1.387   5.112   7.068 -0.3764  0.1638  0.0286
29447SOL    HW195581   1.482   5.120   7.065 -0.4622  1.4992  0.5802
29447SOL    HW295582   1.355   5.180   7.009 -1.0542  2.2330  2.6076
29448SOL     OW95583   4.614   3.552   6.080  0.4043  0.6214 -0.2124
29448SOL    HW195584   4.658   3.594   6.006  1.4232  0.0980  0.0861
29448SOL    HW295585   4.641   3.460   6.075  1.5014  0.8175  1.5296
29449SOL     OW95586   7.575   3.006  12.437  0.3976  0.1950 -0.5712
29449SOL    HW195587   7.594   3.100  12.434  2.7780 -0.0599  1.7515
29449SOL    HW295588   7.518   2.995  12.514  0.4099 -0.2781 -0.6244
29450SOL     OW95589   9.179   0.586   8.294  0.4138  0.6851  0.1770
29450SOL    HW195590   9.086   0.586   8.319 -0.1839 -3.8238 -1.1001
29450SOL    HW295591   9.225   0.583   8.378 -0.6089  1.6276  0.8136
29451SOL     OW95592   9.169   9.827   5.747  0.6607 -0.1190 -0.3685
29451SOL    HW195593   9.242   9.874   5.786  0.1231  0.8898 -0.5449
29451SOL    HW295594   9.209   9.765   5.686  1.4115 -0.3954  0.4009
29452SOL     OW95595   4.482   3.987  11.709  0.2139  0.1503 -0.2493
29452SOL    HW195596   4.436   3.975  11.626 -1.0867 -0.9317  0.5867
29452SOL    HW295597   4.532   3.907  11.721  0.2290  0.2111  0.1085
29453SOL     OW95598   9.258   8.444   9.232 -0.4142  0.0492  0.3470
29453SOL    HW195599   9.300   8.407   9.310  1.1206 -1.3234 -1.0411
29453SOL    HW295600   9.250   8.537   9.251 -1.6784 -0.4922  2.7957
29454SOL     OW95601   7.480  11.889   5.818 -0.1406  0.5659  0.0942
29454SOL    HW195602   7.480  11.955   5.748  1.8695  0.5718  0.0407
29454SOL    HW295603   7.552  11.915   5.875 -0.1577 -0.8491  0.7942
29455SOL     OW95604   7.834   9.042   8.202  0.0004 -0.0292 -0.0371
29455SOL    HW195605   7.812   9.109   8.266 -2.1371  1.0161 -1.7268
29455SOL    HW295606   7.925   9.058   8.181  0.9645 -0.7656  3.0415
29456SOL     OW95607   0.692   3.181   7.166 -0.1733  0.1455 -0.6385
29456SOL    HW195608   0.705   3.183   7.071 -0.1448 -1.3388 -0.6870
29456SOL    HW295609   0.725   3.096   7.193  1.3738  1.1860  0.9615
29457SOL     OW95610  11.025   3.740   2.426  0.4614 -0.3753 -0.1257
29457SOL    HW195611  11.007   3.828   2.461 -1.1241 -0.8859  0.4286
29457SOL    HW295612  11.099   3.709   2.478 -0.5649 -0.3193  1.4536
29458SOL     OW95613   0.452   9.483   0.761  0.2211  0.0199 -0.3310
29458SOL    HW195614   0.365   9.514   0.740 -0.4301 -1.4621  0.0327
29458SOL    HW295615   0.506   9.562   0.767 -0.9250  0.8966 -1.2837
29459SOL     OW95616   6.793   9.260   2.617  0.6989  0.5060 -0.0847
29459SOL    HW195617   6.883   9.234   2.596  0.9073  1.1809 -0.0583
29459SOL    HW295618   6.766   9.198   2.684  0.8923 -0.1438 -0.5971
29460SOL     OW95619   2.963   3.002  11.500 -0.3240 -0.0145 -0.1849
29460SOL    HW195620   2.959   3.051  11.417  0.5836  1.0388  0.3670
29460SOL    HW295621   3.046   3.029  11.540  0.5231 -2.4771 -0.1104
29461SOL     OW95622   4.782   4.198  12.586  0.0545 -0.5935  0.3650
29461SOL    HW195623   4.699   4.194  12.634  0.3220 -1.5063  0.7786
29461SOL    HW295624   4.759   4.171  12.497 -0.2342 -0.0547  0.2752
29462SOL     OW95625   4.255  11.495   2.902  0.0736  0.1467  0.9441
29462SOL    HW195626   4.204  11.550   2.962  0.7922  1.3214  0.5165
29462SOL    HW295627   4.205  11.414   2.895 -1.5418  1.1233  0.8039
29463SOL     OW95628   0.410   1.355   1.450  0.2641  0.0338  0.2935
29463SOL    HW195629   0.348   1.282   1.444 -1.8722  1.7944 -0.3284
29463SOL    HW295630   0.436   1.372   1.360  0.2484  0.4178  0.3582
29464SOL     OW95631   1.928  11.781   3.121 -0.4329  0.2310 -0.2951
29464SOL    HW195632   2.013  11.791   3.078  0.1065  1.9783  1.0331
29464SOL    HW295633   1.908  11.869   3.154 -1.0858 -0.8595  2.4493
29465SOL     OW95634   1.846   0.833   3.518  0.6208 -0.1092  0.6230
29465SOL    HW195635   1.827   0.893   3.446 -1.5861  0.1759  1.3746
29465SOL    HW295636   1.804   0.751   3.493  0.6998 -0.3081  1.1307
29466SOL     OW95637  10.465   3.273   0.219  0.3163  0.0158 -0.0878
29466SOL    HW195638  10.474   3.294   0.125  2.3001 -1.2885 -0.2419
29466SOL    HW295639  10.549   3.300   0.257 -0.5728  0.8007  1.4165
29467SOL     OW95640   6.661  11.869   8.848  0.2725  0.2266 -0.3483
29467SOL    HW195641   6.639  11.875   8.941  0.9598 -3.0345  0.1518
29467SOL    HW295642   6.587  11.823   8.809  1.1981 -0.8665 -0.8562
29468SOL     OW95643   9.341   6.736   0.969 -0.2131 -0.5385 -0.2521
29468SOL    HW195644   9.271   6.796   0.991 -0.0706 -0.1216 -0.8931
29468SOL    HW295645   9.298   6.651   0.955 -0.1141 -1.3999  3.5663
29469SOL     OW95646   3.385  11.451   7.097 -0.7273 -0.1320 -0.4554
29469SOL    HW195647   3.476  11.422   7.108 -0.2133  1.1308 -1.1193
29469SOL    HW295648   3.390  11.522   7.033 -2.2012 -0.0735 -0.5473
29470SOL     OW95649   2.838   7.150   2.292 -0.0927 -0.6495 -0.6530
29470SOL    HW195650   2.868   7.228   2.246 -0.7835 -0.5931 -1.0229
29470SOL    HW295651   2.839   7.081   2.226 -1.0426 -0.5784 -0.7548
29471SOL     OW95652   5.658   2.334   8.058  0.4260  0.0304 -0.4764
29471SOL    HW195653   5.580   2.286   8.030 -0.6638  2.3478 -1.8159
29471SOL    HW295654   5.670   2.311   8.149 -1.9206 -0.3641 -0.2114
29472SOL     OW95655   6.532   2.391   6.988  0.1882 -0.2937  0.1575
29472SOL    HW195656   6.478   2.370   6.912  2.0773  0.3674 -1.4607
29472SOL    HW295657   6.472   2.437   7.047 -1.3252 -0.7377 -0.9558
29473SOL     OW95658   8.969   0.514  12.651 -0.2632  0.0240  0.5586
29473SOL    HW195659   8.951   0.435  12.703  1.0282 -0.7314 -0.1038
29473SOL    HW295660   9.061   0.534  12.670 -0.5618  1.3488  0.6722
29474SOL     OW95661  11.769   4.768  11.871 -0.1231  0.2129 -0.2475
29474SOL    HW195662  11.732   4.701  11.814  1.2865 -1.7321  0.9736
29474SOL    HW295663  11.863   4.763  11.856  0.0325  1.7603  0.0719
29475SOL     OW95664   4.718   3.763   8.832 -0.1042 -0.0749 -0.4447
29475SOL    HW195665   4.804   3.783   8.794  0.1769 -1.6495 -0.6920
29475SOL    HW295666   4.678   3.849   8.846  1.7502  0.7389  0.2623
29476SOL     OW95667   9.150   6.464  12.329  0.2463 -0.5176  0.0522
29476SOL    HW195668   9.172   6.378  12.293  1.1271 -0.1553 -0.3022
29476SOL    HW295669   9.234   6.500  12.356 -0.0150  0.5551 -0.5314
29477SOL     OW95670  12.649  11.345   5.594 -0.3191 -0.2032 -0.3954
29477SOL    HW195671  12.713  11.276   5.579 -0.0266 -0.2320  0.8541
29477SOL    HW295672  12.604  11.355   5.510  1.2290 -0.2632 -1.2699
29478SOL     OW95673   6.330   1.488   7.801  0.4204  0.2426  0.3285
29478SOL    HW195674   6.253   1.485   7.744  0.3627  0.6452  0.3842
29478SOL    HW295675   6.349   1.396   7.820  0.1504  0.1268  0.0498
29479SOL     OW95676   1.238  11.625   6.749  0.8110 -0.1594 -0.3778
29479SOL    HW195677   1.171  11.558   6.759  0.5385 -0.0601 -1.4152
29479SOL    HW295678   1.265  11.619   6.657  0.3253  1.5459 -0.6789
29480SOL     OW95679   9.842   4.553   5.726 -0.6761 -0.7854 -0.2227
29480SOL    HW195680   9.834   4.467   5.685 -0.7827 -0.5479 -0.7078
29480SOL    HW295681   9.755   4.571   5.761 -0.8839 -0.5142 -0.8586
29481SOL     OW95682   6.551   2.119   6.520  0.0306  0.1656 -0.0508
29481SOL    HW195683   6.545   2.191   6.458  0.7492  0.0754 -0.2356
29481SOL    HW295684   6.505   2.150   6.598 -0.5300  0.4297 -0.4851
29482SOL     OW95685   3.915   2.958  12.022 -0.2469  0.0163  0.4784
29482SOL    HW195686   3.986   3.020  12.040  1.0439 -1.0023 -0.8293
29482SOL    HW295687   3.881   2.984  11.936  0.2127 -0.9742 -0.0175
29483SOL     OW95688  11.848   7.768   5.911  0.2886 -0.2323 -0.6696
29483SOL    HW195689  11.861   7.676   5.936 -1.1946 -0.0817  0.7949
29483SOL    HW295690  11.760   7.769   5.873  0.4590  0.5285 -1.0535
29484SOL     OW95691   8.960   5.534   6.756  0.3961 -0.4248 -0.6221
29484SOL    HW195692   8.909   5.581   6.691 -0.7783  0.8442  1.1462
29484SOL    HW295693   9.016   5.476   6.704 -0.8371  0.1461 -2.7250
29485SOL     OW95694   4.000  12.387   6.475 -0.1628 -0.0775  0.2232
29485SOL    HW195695   4.010  12.477   6.444 -0.2605 -0.4209 -0.8545
29485SOL    HW295696   4.064  12.378   6.545 -0.9690  1.1836  1.1609
29486SOL     OW95697  10.138   0.705   4.388 -0.6355  0.0496 -0.7300
29486SOL    HW195698  10.140   0.613   4.414  0.7199  0.0596 -0.7374
29486SOL    HW295699  10.125   0.704   4.293 -1.2336 -0.1103 -0.6479
29487SOL     OW95700  10.455   9.110   7.615  0.1226  0.0701 -0.1224
29487SOL    HW195701  10.523   9.071   7.670  0.3363 -1.3456 -1.3179
29487SOL    HW295702  10.391   9.040   7.602 -0.4817  0.7128 -0.7685
29488SOL     OW95703   4.177   0.412   9.061  0.1549 -0.1313 -0.4709
29488SOL    HW195704   4.085   0.432   9.080  0.5733  0.7692  0.7686
29488SOL    HW295705   4.194   0.330   9.106  0.2400  0.2557  0.2050
29489SOL     OW95706   6.154   9.569   2.542  0.1529  0.1736 -0.0146
29489SOL    HW195707   6.181   9.483   2.573 -0.2917 -0.1246 -0.4404
29489SOL    HW295708   6.191   9.630   2.605  3.5725 -0.0222 -1.6237
29490SOL     OW95709   5.042   1.458   7.694  0.2378  0.2392 -0.3735
29490SOL    HW195710   5.031   1.522   7.765  0.7220  0.2263 -0.2860
29490SOL    HW295711   5.095   1.389   7.733 -1.1326 -0.7205 -0.1493
29491SOL     OW95712   3.116   6.113   2.805 -0.1603  0.0160  0.2925
29491SOL    HW195713   3.203   6.130   2.839  0.1974 -0.3352 -0.4146
29491SOL    HW295714   3.097   6.022   2.830  0.3483 -0.4440 -0.9004
29492SOL     OW95715  11.654   0.657   3.520  0.3569  0.0008  0.5374
29492SOL    HW195716  11.658   0.743   3.561  0.7695 -0.1566  0.8381
29492SOL    HW295717  11.561   0.643   3.503 -0.2002 -0.9422  3.6333
29493SOL     OW95718   7.741   9.676   1.777  0.3094 -0.1120 -0.6261
29493SOL    HW195719   7.726   9.725   1.857  2.2431  0.1248 -0.3658
29493SOL    HW295720   7.729   9.584   1.802 -0.3102  0.0244 -0.3922
29494SOL     OW95721   0.501   1.703  12.680 -0.8168 -0.8362  0.4486
29494SOL    HW195722   0.459   1.759  12.745 -1.1496 -1.5006  0.8199
29494SOL    HW295723   0.461   1.729  12.597 -2.1649 -1.5936  0.8142
29495SOL     OW95724   5.725  11.532   3.810 -0.2621 -0.0449  0.2226
29495SOL    HW195725   5.808  11.580   3.812  0.0454 -0.5453 -0.3727
29495SOL    HW295726   5.668  11.587   3.756 -0.8592  1.1233  1.9413
29496SOL     OW95727   3.213   8.717   8.294 -0.1322 -0.0106 -0.0417
29496SOL    HW195728   3.144   8.742   8.232  0.4265  1.4279 -0.1448
29496SOL    HW295729   3.178   8.742   8.380  0.2025  0.6649 -0.0887
29497SOL     OW95730   7.557   8.416  10.701 -0.7318  0.5073 -0.0867
29497SOL    HW195731   7.643   8.422  10.742 -0.3353 -1.5758 -0.5104
29497SOL    HW295732   7.576   8.410  10.607 -1.3013 -0.4965 -0.1480
29498SOL     OW95733   5.339  10.530   7.351 -0.2235  0.4453  0.5770
29498SOL    HW195734   5.398  10.580   7.408 -0.5848  0.8021  0.6409
29498SOL    HW295735   5.252  10.543   7.388 -0.3150 -0.3352  0.6680
29499SOL     OW95736   1.642   7.057   0.243  0.1482 -0.3756 -0.4791
29499SOL    HW195737   1.609   7.112   0.314  1.0569  0.8249 -0.9514
29499SOL    HW295738   1.582   7.072   0.170  0.9266  0.7424 -0.9049
29500SOL     OW95739   6.695   4.661   8.044  0.1776  0.5215  0.3580
29500SOL    HW195740   6.674   4.752   8.069 -0.8624  0.7444 -1.1621
29500SOL    HW295741   6.616   4.631   7.999  1.1620 -0.5429 -0.7042
29501SOL     OW95742   5.377   6.606   2.614 -0.1265 -0.5417 -0.2976
29501SOL    HW195743   5.454   6.619   2.668 -0.7031 -0.7979  0.5999
29501SOL    HW295744   5.376   6.681   2.554  0.3484 -0.0998  0.2434
29502SOL     OW95745   8.545   9.846   6.878 -0.0660  0.2407  0.3985
29502SOL    HW195746   8.491   9.781   6.922 -2.2649  0.4981 -1.7587
29502SOL    HW295747   8.555   9.916   6.942 -2.5664  0.3124  0.7772
29503SOL     OW95748   4.514   9.338   6.509 -0.3719  0.6952 -0.9746
29503SOL    HW195749   4.560   9.404   6.560 -2.8366  1.9528 -0.2272
29503SOL    HW295750   4.569   9.259   6.516  1.9193  2.2077 -0.7070
29504SOL     OW95751   0.480   1.913   8.801  0.0328 -0.0390  0.5067
29504SOL    HW195752   0.454   2.000   8.829 -1.4995 -0.6174  0.9926
29504SOL    HW295753   0.557   1.927   8.747  0.4016  1.5163  1.3768
29505SOL     OW95754  11.601   1.388  12.547  0.1525 -0.0616 -0.0857
29505SOL    HW195755  11.506   1.402  12.554 -0.0596 -1.7534  0.9699
29505SOL    HW295756  11.638   1.476  12.547 -1.4496  0.6711 -1.2518
29506SOL     OW95757   6.955  11.283   6.038  0.0112  0.0277 -0.2646
29506SOL    HW195758   6.998  11.291   6.123  0.2773 -1.1743 -0.2696
29506SOL    HW295759   7.006  11.340   5.980 -0.8673  1.7754  0.5962
29507SOL     OW95760   9.386  11.578  11.779  0.2277 -0.3426 -0.3837
29507SOL    HW195761   9.390  11.500  11.834 -1.6965  0.4316  0.9834
29507SOL    HW295762   9.420  11.648  11.835 -0.6237  0.2531 -0.5971
29508SOL     OW95763   7.610   8.605   7.706 -0.0390  0.4259 -0.2475
29508SOL    HW195764   7.556   8.677   7.676 -3.5055 -1.6391  0.5099
29508SOL    HW295765   7.590   8.596   7.799 -1.2628 -2.5982 -0.6784
29509SOL     OW95766   0.352   0.847   5.496  0.1640  0.4884 -0.2535
29509SOL    HW195767   0.295   0.791   5.444  3.2900  0.6848 -4.3671
29509SOL    HW295768   0.386   0.789   5.565  0.0247 -1.4779 -1.7617
29510SOL     OW95769   0.257   6.951  10.331 -0.5639  0.6994 -0.3641
29510SOL    HW195770   0.193   6.882  10.348  1.8858 -1.5409  0.5307
29510SOL    HW295771   0.291   6.931  10.244  1.9173 -0.9010  0.8561
29511SOL     OW95772   5.304   4.592   1.184 -0.4527  0.1290 -0.5474
29511SOL    HW195773   5.359   4.614   1.260 -0.0348  0.5296 -0.9600
29511SOL    HW295774   5.299   4.496   1.186 -0.4410  0.1358 -0.0156
29512SOL     OW95775  11.198   9.233   9.138  0.4038  0.3168  0.1075
29512SOL    HW195776  11.276   9.277   9.105 -0.3845  2.0634  0.4461
29512SOL    HW295777  11.228   9.189   9.218  0.8259  2.0116  0.9408
29513SOL     OW95778   6.143  11.879  11.693  0.1759  0.3859  0.0957
29513SOL    HW195779   6.150  11.790  11.729  1.1775  0.0624 -0.8268
29513SOL    HW295780   6.129  11.935  11.769  1.6724 -0.3260  0.9484
29514SOL     OW95781   7.733   1.430  12.255  0.4639  0.0088  0.0135
29514SOL    HW195782   7.721   1.442  12.161 -1.0157  1.5813  0.3530
29514SOL    HW295783   7.787   1.352  12.263  0.1435 -0.4776 -2.1246
29515SOL     OW95784   1.185   3.072  10.295 -0.8013  0.4307 -0.3037
29515SOL    HW195785   1.246   3.123  10.348 -1.1371  0.8239 -0.2864
29515SOL    HW295786   1.148   3.135  10.233  0.4243 -0.2523 -1.7810
29516SOL     OW95787   6.827   7.869   1.585  0.0680 -0.0487 -0.0491
29516SOL    HW195788   6.855   7.959   1.571 -1.2246  0.5282  0.9136
29516SOL    HW295789   6.803   7.837   1.498 -2.0327  1.4529 -0.0868
29517SOL     OW95790   7.684   4.718   8.604  0.0936  0.3876  0.3632
29517SOL    HW195791   7.765   4.754   8.569  0.2233 -1.1129 -0.9975
29517SOL    HW295792   7.711   4.660   8.675  0.0822  0.9487  0.8354
29518SOL     OW95793   8.952   4.490   9.849  0.0200 -0.6446 -0.2093
29518SOL    HW195794   9.021   4.503   9.783 -1.2760 -2.4783 -2.0324
29518SOL    HW295795   8.997   4.450   9.923  0.9901 -1.5972 -1.2730
29519SOL     OW95796  12.100  10.196   5.000  0.1738 -0.2484  0.1141
29519SOL    HW195797  12.068  10.105   5.000  1.5893 -0.7897  1.2753
29519SOL    HW295798  12.179  10.193   5.054  0.6074  1.5694 -0.3694
29520SOL     OW95799   0.808   0.700   1.787  0.0521 -0.0395  0.0042
29520SOL    HW195800   0.800   0.649   1.706  1.6918 -0.3243 -0.0101
29520SOL    HW295801   0.744   0.660   1.846  0.3307 -1.2439 -0.4672
29521SOL     OW95802   2.470  10.525   6.905 -0.2643 -0.4507 -0.0050
29521SOL    HW195803   2.510  10.442   6.878  0.8663 -0.9086  2.7281
29521SOL    HW295804   2.375  10.508   6.902 -0.1271 -1.1269 -1.4051
29522SOL     OW95805   4.210   6.774   6.376  0.7244 -0.1226 -0.1082
29522SOL    HW195806   4.155   6.801   6.450 -0.7875 -0.0810 -1.2119
29522SOL    HW295807   4.201   6.845   6.312  0.8796 -0.8073 -0.9054
29523SOL     OW95808   7.005  11.105   0.007  0.2328  0.1589 -0.1748
29523SOL    HW195809   7.073  11.136   0.067  1.5779 -0.6690 -1.2126
29523SOL    HW295810   6.933  11.079   0.064  1.0593  0.3756  1.0132
29524SOL     OW95811   8.906   8.701  12.400 -0.7476  0.1451 -0.1310
29524SOL    HW195812   8.849   8.726  12.473 -1.5723 -1.4006 -0.2075
29524SOL    HW295813   8.968   8.638  12.438 -0.0714  0.6389 -0.3951
29525SOL     OW95814   1.434   5.599   0.527  0.2660 -0.5355 -0.0999
29525SOL    HW195815   1.368   5.565   0.586  0.4991  0.3575  0.7210
29525SOL    HW295816   1.512   5.546   0.544  0.4567 -0.0157  0.7405
29526SOL     OW95817  10.444  11.145   6.111 -0.1450  0.2683 -0.5635
29526SOL    HW195818  10.500  11.130   6.187  0.2651  0.4930 -0.8156
29526SOL    HW295819  10.488  11.098   6.040 -1.6595 -1.8090 -0.2322
29527SOL     OW95820   0.541   3.468   0.642 -0.8173  0.2341 -0.5519
29527SOL    HW195821   0.501   3.482   0.556 -1.8132  0.7662 -0.0175
29527SOL    HW295822   0.632   3.446   0.623 -1.0706  0.1697 -1.7487
29528SOL     OW95823  11.490   8.446   1.810 -0.0704  0.0447 -0.3863
29528SOL    HW195824  11.512   8.378   1.746  1.5523  0.6344 -0.5014
29528SOL    HW295825  11.502   8.528   1.763  1.7666  0.5142  0.8073
29529SOL     OW95826   8.162   1.803   4.460 -0.1857  0.4828 -0.2899
29529SOL    HW195827   8.093   1.772   4.518 -0.6609 -0.4401 -1.3109
29529SOL    HW295828   8.243   1.773   4.501 -0.5518 -0.7964 -0.4502
29530SOL     OW95829  11.501  10.679   0.381 -0.1981  0.5052  0.2560
29530SOL    HW195830  11.464  10.636   0.458 -0.7717  1.2442  0.4029
29530SOL    HW295831  11.568  10.738   0.415 -0.6092  1.0003  0.2148
29531SOL     OW95832   1.122   7.009   9.969 -0.3572 -0.0520  0.0057
29531SOL    HW195833   1.174   6.933   9.993  0.7130  0.4803 -0.5135
29531SOL    HW295834   1.036   6.994  10.008  0.8153  0.0951  2.9230
29532SOL     OW95835   1.588   7.033  11.363  0.1582 -0.3781  0.1892
29532SOL    HW195836   1.650   7.075  11.423 -1.7951  0.6063  1.6455
29532SOL    HW295837   1.515   7.006  11.419 -0.9358 -1.1101 -1.5028
29533SOL     OW95838   1.110   3.408   6.365 -0.3323 -0.0269  0.3435
29533SOL    HW195839   1.058   3.335   6.400  0.3058  0.1623  1.7589
29533SOL    HW295840   1.047   3.480   6.355 -0.9626 -0.7409 -1.0561
29534SOL     OW95841  12.071   9.349   3.238 -0.6949 -0.2905  0.5666
29534SOL    HW195842  12.156   9.308   3.223 -0.7877 -0.5592  0.7577
29534SOL    HW295843  12.030   9.352   3.151 -0.9520 -1.2082  0.6425
29535SOL     OW95844   5.169  10.096   2.208  0.3770  0.1295 -0.3519
29535SOL    HW195845   5.253  10.121   2.247 -0.2325  0.8198  0.5533
29535SOL    HW295846   5.103  10.139   2.263 -0.6975 -2.5417  0.6205
29536SOL     OW95847   6.774   8.141   2.657 -0.5538 -0.6427 -0.6333
29536SOL    HW195848   6.679   8.130   2.667 -0.6656  1.3081  1.3112
29536SOL    HW295849   6.811   8.064   2.701 -1.2323 -1.0123 -0.6894
29537SOL     OW95850   2.219  11.952   8.855  0.6658 -0.0483  0.7803
29537SOL    HW195851   2.179  12.004   8.786  1.2676  0.3448  0.7135
29537SOL    HW295852   2.155  11.950   8.925  1.3276  2.3802  1.5408
29538SOL     OW95853   4.088  12.243   1.840 -0.2471  0.3177  0.1059
29538SOL    HW195854   3.996  12.236   1.866 -0.3622  0.8637 -0.1354
29538SOL    HW295855   4.085  12.269   1.748  0.1508  0.1206  0.0366
29539SOL     OW95856   8.666   9.677   3.089  0.1074  0.1074 -0.5331
29539SOL    HW195857   8.663   9.717   3.175 -0.7083 -0.6604 -0.1953
29539SOL    HW295858   8.753   9.699   3.055  0.5716  0.1081  0.6280
29540SOL     OW95859   7.847  12.638   0.677 -0.6223  0.1552 -0.2669
29540SOL    HW195860   7.909  12.612   0.610  0.7772 -1.2825  1.4715
29540SOL    HW295861   7.779  12.570   0.674 -0.4175 -0.0603 -0.0621
29541SOL     OW95862   2.919   0.861  11.825  0.4749  0.1509 -0.4645
29541SOL    HW195863   2.850   0.903  11.774 -0.0305 -1.2535 -0.9949
29541SOL    HW295864   2.880   0.780  11.856  1.2453  0.3108  0.9998
29542SOL     OW95865   1.642  11.752  10.613 -0.5952  0.1302  0.2411
29542SOL    HW195866   1.724  11.793  10.641 -0.6960 -1.0768  2.5324
29542SOL    HW295867   1.653  11.659  10.635 -2.4253 -0.1257  0.2084
29543SOL     OW95868   4.342   4.381   2.440  0.1383 -0.0265 -0.4088
29543SOL    HW195869   4.343   4.412   2.349 -0.9040 -1.1895 -0.8425
29543SOL    HW295870   4.280   4.308   2.440 -0.3780  0.3625  1.3856
29544SOL     OW95871  11.567   5.383   4.648 -0.0751 -0.3963  0.2182
29544SOL    HW195872  11.632   5.441   4.609 -1.1617 -0.1448 -1.3184
29544SOL    HW295873  11.520   5.438   4.710 -0.3168  0.0396 -0.3494
29545SOL     OW95874   4.711  11.265   4.845  0.0012 -0.2151  0.2684
29545SOL    HW195875   4.689  11.236   4.756  1.6150 -1.7949  0.3266
29545SOL    HW295876   4.642  11.228   4.900  0.0825 -0.9585 -0.1090
29546SOL     OW95877   1.354  12.501  11.589 -0.6805 -0.5509  0.1586
29546SOL    HW195878   1.279  12.457  11.629  1.3441 -1.8263  2.8389
29546SOL    HW295879   1.374  12.574  11.648  2.9539 -3.0309  2.4526
29547SOL     OW95880   8.577   1.532   3.712 -0.1624 -0.1952 -0.0957
29547SOL    HW195881   8.582   1.459   3.650  0.4758 -0.8414  0.7017
29547SOL    HW295882   8.537   1.494   3.791 -2.5727  1.0024 -0.6249
29548SOL     OW95883  10.165   8.502   7.760 -0.0314 -0.1444 -0.2271
29548SOL    HW195884  10.098   8.508   7.828  1.5962  1.6312  1.3237
29548SOL    HW295885  10.135   8.430   7.704 -1.2481 -1.9715  2.5575
29549SOL     OW95886   1.459   0.865   5.082 -0.2552  0.2225 -0.0561
29549SOL    HW195887   1.500   0.848   5.167 -1.3342  0.7105  0.5792
29549SOL    HW295888   1.531   0.895   5.026  0.4536 -0.0287  0.7047
29550SOL     OW95889   8.846   9.748   6.482  0.2521 -0.1477 -0.4614
29550SOL    HW195890   8.868   9.790   6.564  0.5939  0.1198 -0.6899
29550SOL    HW295891   8.921   9.692   6.462 -1.7891 -4.1841  1.9453
29551SOL     OW95892   7.046   8.766   5.703 -0.7514  0.5345  0.6395
29551SOL    HW195893   7.130   8.786   5.663 -1.3565 -0.1374 -1.0390
29551SOL    HW295894   6.993   8.845   5.691 -0.5132  0.8126  1.3416
29552SOL     OW95895  11.952  11.915  11.894 -0.4417 -0.0060  0.3946
29552SOL    HW195896  11.912  11.882  11.975 -0.3696  0.0016  0.4333
29552SOL    HW295897  12.035  11.953  11.922 -1.1954  1.5931  0.5930
29553SOL     OW95898   7.566  10.695   5.984  0.0082  0.0679 -0.2415
29553SOL    HW195899   7.534  10.612   5.948  1.3051 -0.2678 -0.6862
29553SOL    HW295900   7.643  10.671   6.035  0.2098  0.9598 -0.1095
29554SOL     OW95901   3.154   7.505  12.186 -0.1008  0.0354  0.3356
29554SOL    HW195902   3.182   7.450  12.259 -1.0499 -1.6848 -0.5582
29554SOL    HW295903   3.200   7.470  12.110 -1.3119 -0.0278 -0.3867
29555SOL     OW95904   5.839   3.829   6.021 -0.2978  0.0262  0.0052
29555SOL    HW195905   5.877   3.899   5.967 -0.6591 -0.0549 -0.3636
29555SOL    HW295906   5.858   3.749   5.973 -2.5427  0.1315 -1.1835
29556SOL     OW95907  11.678   5.296   4.237 -0.1362  0.0962 -0.8190
29556SOL    HW195908  11.615   5.247   4.184  0.7163 -2.6536  0.5512
29556SOL    HW295909  11.634   5.310   4.320  0.2174  0.2449 -0.6565
29557SOL     OW95910   4.586   6.513   1.885  0.2940  0.0739 -0.1505
29557SOL    HW195911   4.558   6.502   1.794  0.1054 -0.4881 -0.0319
29557SOL    HW295912   4.561   6.603   1.908  1.5267  0.6651 -1.0558
29558SOL     OW95913   9.455   1.192  10.419  0.1780 -0.4306 -0.3111
29558SOL    HW195914   9.409   1.262  10.372  0.1704  1.1945  1.9451
29558SOL    HW295915   9.539   1.231  10.444  0.0327 -1.0599  1.2966
29559SOL     OW95916   1.621   2.977   9.449 -0.0402 -0.0699 -0.0007
29559SOL    HW195917   1.658   2.921   9.381 -0.0533 -1.1424  0.8554
29559SOL    HW295918   1.589   3.054   9.401 -0.7716 -1.1424 -1.3169
29560SOL     OW95919  11.750   5.500   0.497  0.3144  0.3498  0.0799
29560SOL    HW195920  11.813   5.527   0.430 -1.2883  0.6176 -1.3930
29560SOL    HW295921  11.680   5.457   0.448  0.9182 -3.1559  1.9724
29561SOL     OW95922   0.217   0.389   2.806  0.1070  0.0874  0.2012
29561SOL    HW195923   0.220   0.452   2.878  1.1290  1.1924 -0.7783
29561SOL    HW295924   0.181   0.309   2.846 -2.2577  1.5728  1.2140
29562SOL     OW95925   8.117   3.464   1.063 -0.2629 -0.4918 -0.6130
29562SOL    HW195926   8.029   3.468   1.101  0.2469 -0.1949  0.5938
29562SOL    HW295927   8.105   3.421   0.979 -1.8021  0.8933 -1.1616
29563SOL     OW95928   1.322   5.747  12.628  0.4050  0.5645 -0.6860
29563SOL    HW195929   1.344   5.835  12.659  0.8707  0.0070  0.5989
29563SOL    HW295930   1.235   5.731  12.664  0.9192 -0.0585  0.3085
29564SOL     OW95931   2.718   0.483   5.850 -0.2995  0.5824  0.3744
29564SOL    HW195932   2.683   0.571   5.833 -0.9178  0.4994  1.1774
29564SOL    HW295933   2.641   0.427   5.852 -0.1112  0.3472  1.8663
29565SOL     OW95934   4.834   0.825  10.370 -0.3485  0.2080  0.5166
29565SOL    HW195935   4.747   0.788  10.383  0.3766 -2.4102 -1.2079
29565SOL    HW295936   4.869   0.777  10.295  1.0863  4.0073 -1.4656
29566SOL     OW95937  12.369   6.362  11.976  0.2333 -0.2119 -0.1033
29566SOL    HW195938  12.352   6.285  12.029 -0.8872  1.1731  1.6746
29566SOL    HW295939  12.326   6.343  11.892  0.8892 -1.9071 -0.0863
29567SOL     OW95940  12.428   1.650   0.006  0.1442  0.5086 -0.5413
29567SOL    HW195941  12.491   1.607   0.064 -1.8193 -0.2985  1.1145
29567SOL    HW295942  12.417   1.590  -0.067  0.3433  0.0486 -0.1961
29568SOL     OW95943  10.403   6.718   9.712  0.1458 -0.3454  0.0977
29568SOL    HW195944  10.384   6.634   9.670 -0.1067  0.2183 -0.9430
29568SOL    HW295945  10.454   6.694   9.790 -0.4519 -1.5042  0.1658
29569SOL     OW95946   0.463   9.211   9.495 -0.2694  0.1656  0.4235
29569SOL    HW195947   0.502   9.187   9.411 -0.8512 -2.3769  0.7920
29569SOL    HW295948   0.525   9.273   9.533  1.2571 -0.5036 -0.8355
29570SOL     OW95949   7.843   9.573   4.851  0.0840  0.3339 -0.6065
29570SOL    HW195950   7.752   9.555   4.826  0.0181  1.3032 -1.1032
29570SOL    HW295951   7.846   9.668   4.862  1.1462  0.3512 -1.0092
29571SOL     OW95952  12.087   7.586   9.822  0.2655 -0.2398 -0.2047
29571SOL    HW195953  12.022   7.632   9.874  1.8421 -0.4279  2.1002
29571SOL    HW295954  12.157   7.650   9.808  0.1162 -0.3629 -1.6748
29572SOL     OW95955   8.503   9.050   4.597 -0.2128 -0.3968 -0.1746
29572SOL    HW195956   8.484   8.959   4.621 -0.5425 -0.9188 -2.2019
29572SOL    HW295957   8.418   9.088   4.576  0.0654 -0.0431 -0.6982
29573SOL     OW95958   8.169   9.710   4.706 -0.3057  0.1059  0.0753
29573SOL    HW195959   8.121   9.780   4.749 -0.3128  1.1194 -1.4786
29573SOL    HW295960   8.252   9.750   4.681  0.2892 -0.8715  0.4134
29574SOL     OW95961   2.740   4.399   7.240 -0.1212  0.1102  0.4353
29574SOL    HW195962   2.751   4.338   7.167 -1.4442 -0.0158  0.3218
29574SOL    HW295963   2.704   4.478   7.200 -0.0435  0.3477  0.8297
29575SOL     OW95964   9.679   6.141   4.861  0.1504  0.1297  0.2488
29575SOL    HW195965   9.694   6.080   4.790  1.2013  0.8584 -0.1717
29575SOL    HW295966   9.764   6.153   4.902 -0.4322 -0.2942  1.6746
29576SOL     OW95967  11.292  10.272  10.769  0.2681 -0.4958  0.0706
29576SOL    HW195968  11.386  10.288  10.761  0.0182  0.3493 -1.9082
29576SOL    HW295969  11.253  10.359  10.773 -0.4115 -0.8437  1.4482
29577SOL     OW95970  11.060  11.065  10.659  0.6574  0.0806  0.0422
29577SOL    HW195971  11.152  11.068  10.634  0.6029 -0.7270 -0.2609
29577SOL    HW295972  11.024  10.991  10.611 -0.4910  1.2377 -0.9490
29578SOL     OW95973   9.036  11.661   2.238  0.3210  0.8120 -0.0872
29578SOL    HW195974   8.952  11.631   2.203 -0.2523  1.2365  0.8779
29578SOL    HW295975   9.086  11.580   2.253  0.1179  0.5598 -0.7136
29579SOL     OW95976  11.969   3.208   2.073  0.4439  0.2992  0.7266
29579SOL    HW195977  11.970   3.117   2.042 -1.9809 -0.1047  1.5988
29579SOL    HW295978  12.061   3.233   2.075  1.1957 -2.1011  0.3493
29580SOL     OW95979   0.225   0.706   5.250  0.0213  0.0327  0.3161
29580SOL    HW195980   0.262   0.713   5.162  1.9812 -0.3331  1.0603
29580SOL    HW295981   0.144   0.658   5.238 -0.9621  1.9870 -1.5755
29581SOL     OW95982  10.038   0.645   2.401  0.1156 -0.4937  0.4779
29581SOL    HW195983   9.955   0.598   2.404  0.3438 -0.8670  1.6970
29581SOL    HW295984  10.018   0.732   2.434  0.3818 -0.8936  1.7344
29582SOL     OW95985  12.484   0.410  10.837  0.8463  0.6192  0.2758
29582SOL    HW195986  12.390   0.397  10.843  0.3836  2.2090 -2.1750
29582SOL    HW295987  12.521   0.322  10.838 -0.8888 -0.1727 -1.1942
29583SOL     OW95988   8.490   4.415  10.470 -0.1635  0.3714  0.2139
29583SOL    HW195989   8.585   4.430  10.470  0.0832 -0.9780  1.1074
29583SOL    HW295990   8.480   4.321  10.456 -1.4918  0.7885 -2.1343
29584SOL     OW95991   4.439  11.826  10.250  0.0416  0.5618  0.0244
29584SOL    HW195992   4.501  11.877  10.303  1.0138  0.4218 -0.9551
29584SOL    HW295993   4.488  11.802  10.172 -1.2537  0.4169 -0.7708
29585SOL     OW95994  11.617  12.049   2.750  0.1166 -0.2141 -0.4674
29585SOL    HW195995  11.534  12.017   2.714  0.6846 -1.4701 -0.7136
29585SOL    HW295996  11.644  11.980   2.811  1.6642 -0.4872 -1.4204
29586SOL     OW95997  11.446   4.563  11.190 -0.1007  0.7455  0.2202
29586SOL    HW195998  11.435   4.653  11.157  1.3802  1.2546  1.0205
29586SOL    HW295999  11.517   4.527  11.138  0.1886  0.4918  0.7831
29587SOL     OW96000   4.677   3.281   3.744  0.1541  0.5866 -0.2381
29587SOL    HW196001   4.599   3.279   3.799  0.0024  0.9990 -0.4329
29587SOL    HW296002   4.662   3.355   3.684  0.6726  0.6427 -0.3020
29588SOL     OW96003   7.469  10.624   9.150 -0.2647  0.3162 -0.0143
29588SOL    HW196004   7.402  10.576   9.198 -0.0191 -0.9901 -0.9193
29588SOL    HW296005   7.430  10.641   9.064  0.4593 -0.2287 -0.4618
29589SOL     OW96006   4.165   2.152   5.159 -0.4635 -0.0379 -1.1405
29589SOL    HW196007   4.258   2.135   5.168 -0.4248  0.9027  1.0873
29589SOL    HW296008   4.157   2.206   5.081  1.0364  0.8691 -0.6965
29590SOL     OW96009   3.579   0.166   8.518  0.0655 -0.2696  0.1138
29590SOL    HW196010   3.500   0.219   8.504  1.0469  1.5013  0.9626
29590SOL    HW296011   3.558   0.081   8.479 -1.8109  0.5302 -0.7429
29591SOL     OW96012  12.064  10.931   4.282 -0.2939  0.2218  0.4998
29591SOL    HW196013  12.055  10.858   4.221  1.3476  1.0127 -0.7680
29591SOL    HW296014  11.998  10.994   4.254  0.0075  0.2977 -0.0445
29592SOL     OW96015   0.630   0.240   4.153  0.1061 -0.6903 -0.2448
29592SOL    HW196016   0.589   0.320   4.183 -2.5101 -1.0511 -2.4791
29592SOL    HW296017   0.715   0.268   4.119 -1.0584  1.3387 -1.7166
29593SOL     OW96018   0.083   2.101   9.328 -0.1535 -0.2903 -0.0283
29593SOL    HW196019   0.089   2.185   9.375  0.5427 -0.3786  0.0535
29593SOL    HW296020   0.059   2.038   9.396  0.8064 -0.4102  0.2177
29594SOL     OW96021   7.984  11.023   3.297 -0.5871  0.1233  0.8137
29594SOL    HW196022   7.983  11.103   3.350  0.7320  0.2095  0.7486
29594SOL    HW296023   8.005  10.954   3.359 -2.6173 -0.3449  1.0393
29595SOL     OW96024   7.393  11.096   1.465 -0.0176 -0.0850 -0.1338
29595SOL    HW196025   7.355  11.104   1.377 -0.6370 -0.5615  0.0881
29595SOL    HW296026   7.331  11.041   1.513 -0.5641  1.5323  1.1022
29596SOL     OW96027   6.510   6.322  10.085 -0.6378  0.4468 -0.1459
29596SOL    HW196028   6.595   6.302  10.045 -1.0544  0.3315 -1.0149
29596SOL    HW296029   6.520   6.301  10.177  0.2622  0.3888 -0.2547
29597SOL     OW96030   9.835   2.100   4.802  0.0459  0.3342  0.2369
29597SOL    HW196031   9.781   2.038   4.851 -0.1435  0.6044  0.3800
29597SOL    HW296032   9.841   2.064   4.714 -1.8240  1.1409 -0.2724
29598SOL     OW96033   4.128   8.927  11.333 -0.5314 -0.2362 -0.5103
29598SOL    HW196034   4.172   8.843  11.326 -0.6058 -0.2319 -1.0522
29598SOL    HW296035   4.199   8.991  11.343 -0.4539 -0.3206 -0.5275
29599SOL     OW96036  10.102   7.712   0.671  0.1837  0.3187 -0.3052
29599SOL    HW196037  10.054   7.716   0.754 -1.3080 -1.1190 -1.0281
29599SOL    HW296038  10.034   7.720   0.604  0.8321 -2.0602 -1.3690
29600SOL     OW96039   0.654   4.248   4.457 -0.1697 -0.3152  0.3650
29600SOL    HW196040   0.643   4.264   4.363  0.6771 -1.1118  0.1188
29600SOL    HW296041   0.574   4.282   4.497  1.0281  3.7224 -0.2067
29601SOL     OW96042   0.123   4.108   8.308 -0.2374 -0.4040 -0.2087
29601SOL    HW196043   0.198   4.089   8.251  2.0007 -0.3639  2.5103
29601SOL    HW296044   0.077   4.025   8.317  1.3949 -1.2700  0.5807
29602SOL     OW96045  10.515   5.553  10.805 -0.1581  0.0692 -0.1496
29602SOL    HW196046  10.599   5.529  10.844  0.3148  0.1108 -1.1064
29602SOL    HW296047  10.513   5.648  10.810  0.5479  0.1872 -1.4399
29603SOL     OW96048  11.810   3.169  10.371  0.1497  0.6260  0.0230
29603SOL    HW196049  11.829   3.193  10.281 -0.1349  1.2305  0.1261
29603SOL    HW296050  11.810   3.251  10.419  0.3248  0.3073  0.5833
29604SOL     OW96051  11.670   9.876   1.946  0.6454 -0.0968 -0.2353
29604SOL    HW196052  11.706   9.787   1.950 -1.6127 -1.1199 -0.7241
29604SOL    HW296053  11.681   9.910   2.035 -2.1379 -2.5316  1.2399
29605SOL     OW96054   7.734   8.528   0.079 -0.3599  0.1187 -0.1001
29605SOL    HW196055   7.773   8.514  -0.007  0.2080 -1.5289  0.3841
29605SOL    HW296056   7.651   8.572   0.061 -0.3203 -0.3313 -1.5058
29606SOL     OW96057   1.028   8.506   1.441 -0.0535 -0.2993 -0.3178
29606SOL    HW196058   1.027   8.514   1.536  2.8398  0.1965 -0.2500
29606SOL    HW296059   1.105   8.452   1.422 -0.1910  0.1572 -2.4176
29607SOL     OW96060   9.472  10.078   6.698  0.5024 -0.1913 -0.0265
29607SOL    HW196061   9.506  10.168   6.701 -0.3421  0.1362  0.1097
29607SOL    HW296062   9.385  10.087   6.660  1.2862 -1.2555 -2.1870
29608SOL     OW96063   9.925   0.133  11.130  0.2315  0.1147  0.0048
29608SOL    HW196064   9.881   0.050  11.148  0.4126  0.2182  0.9650
29608SOL    HW296065   9.887   0.195  11.192  2.2636  0.0145  1.4806
29609SOL     OW96066  10.594   5.260   7.751  0.3976  0.4830 -0.0894
29609SOL    HW196067  10.502   5.280   7.770  0.1499  0.1274 -0.8564
29609SOL    HW296068  10.599   5.164   7.756  1.1144  0.5864  1.5803
29610SOL     OW96069   0.389   7.657   2.675 -0.4484  0.3918  0.1248
29610SOL    HW196070   0.370   7.604   2.752 -1.2676 -0.2531 -0.5005
29610SOL    HW296071   0.310   7.650   2.621  1.3378 -2.1083 -2.4760
29611SOL     OW96072   2.653   2.861   0.395  0.2640 -0.1745 -0.2082
29611SOL    HW196073   2.702   2.936   0.427 -0.1930 -0.7521  2.0506
29611SOL    HW296074   2.597   2.836   0.469 -1.2489 -1.3454 -1.6737
29612SOL     OW96075   4.102   1.455  10.987  0.1019 -0.5963 -0.6643
29612SOL    HW196076   4.041   1.519  11.025  1.0757  0.3084 -0.5812
29612SOL    HW296077   4.058   1.371  10.999 -0.3998 -0.1485  0.8896
29613SOL     OW96078   2.998   3.301   8.079 -0.1897  0.2221  0.2006
29613SOL    HW196079   3.050   3.380   8.094 -0.2519  0.2536  0.2544
29613SOL    HW296080   2.933   3.328   8.013 -0.2021  0.2123  0.2086
29614SOL     OW96081   4.600   4.326   9.189 -0.0981 -0.3654  0.5586
29614SOL    HW196082   4.643   4.251   9.147 -3.4538 -1.3653 -1.5145
29614SOL    HW296083   4.583   4.297   9.278  1.1014 -0.9811  0.6022
29615SOL     OW96084   4.897   3.615   7.119  0.0284 -0.4461  0.3910
29615SOL    HW196085   4.853   3.692   7.082 -1.1111 -1.3020 -0.1130
29615SOL    HW296086   4.862   3.542   7.069  1.0581 -1.3012  0.8935
29616SOL     OW96087   6.954   8.509   4.853  0.0743  0.2964  0.0912
29616SOL    HW196088   6.946   8.464   4.769 -0.2424 -2.0153  1.2895
29616SOL    HW296089   6.892   8.581   4.848 -0.3035 -0.1044 -1.4608
29617SOL     OW96090   3.223   3.293   0.748  0.3195  0.4115  0.0491
29617SOL    HW196091   3.240   3.357   0.817 -0.8967 -0.3278  1.0852
29617SOL    HW296092   3.309   3.254   0.730  0.7020  0.8014  0.9618
29618SOL     OW96093   8.723   9.412   9.540  0.3126 -0.1412 -0.1958
29618SOL    HW196094   8.647   9.398   9.484  0.1577  0.0702 -0.0384
29618SOL    HW296095   8.792   9.442   9.480  0.6360 -1.5061 -0.5298
29619SOL     OW96096  12.203  12.512   4.604 -0.0146 -0.0033 -0.2584
29619SOL    HW196097  12.158  12.532   4.522 -0.0198 -2.0309 -0.8221
29619SOL    HW296098  12.296  12.522   4.584  0.1072 -2.2548 -1.1434
29620SOL     OW96099   9.873   9.420   6.114 -0.2964 -0.2062 -0.5235
29620SOL    HW196100   9.822   9.462   6.184  1.3386 -2.9787  2.5972
29620SOL    HW296101   9.955   9.395   6.156  0.4527 -2.8542 -3.2368
29621SOL     OW96102   0.585   8.180  11.780 -0.5210 -0.0399  0.1422
29621SOL    HW196103   0.558   8.090  11.802 -0.6165  0.2512  1.2632
29621SOL    HW296104   0.507   8.220  11.742 -0.4791 -0.4207 -0.3626
29622SOL     OW96105   4.435   4.184   1.534  0.1887  0.0230 -0.2235
29622SOL    HW196106   4.380   4.261   1.546  1.3536  0.6097  1.6900
29622SOL    HW296107   4.408   4.124   1.603  2.0584  0.4270  0.9181
29623SOL     OW96108   7.269   2.987   3.377  0.0509  0.2594  0.1220
29623SOL    HW196109   7.221   3.069   3.376  0.8265  0.7452 -1.2182
29623SOL    HW296110   7.321   2.990   3.296  1.2393 -0.8603  0.8164
29624SOL     OW96111   9.448   3.944  11.878 -0.6328  0.1557 -0.0593
29624SOL    HW196112   9.419   3.886  11.949 -0.1957 -1.4662 -1.1447
29624SOL    HW296113   9.399   3.914  11.801  0.6521  0.2757 -0.9583
29625SOL     OW96114   2.715   1.744   6.953  0.1565  0.4444  0.4551
29625SOL    HW196115   2.669   1.711   7.030 -0.6213  1.1960  0.3257
29625SOL    HW296116   2.658   1.813   6.919  1.3296  1.3224  0.2192
29626SOL     OW96117   8.864   1.014  12.172 -0.0915  0.1767 -0.0842
29626SOL    HW196118   8.932   1.081  12.174 -0.8476  1.0338 -1.4684
29626SOL    HW296119   8.785   1.059  12.201 -0.6698 -0.0079 -1.3051
29627SOL     OW96120   9.625   1.772   1.669  0.0316  0.7275  0.0787
29627SOL    HW196121   9.674   1.844   1.631  0.1471  0.1978 -0.8127
29627SOL    HW296122   9.690   1.702   1.679 -0.6976 -0.3191 -2.0365
29628SOL     OW96123  10.575  12.649  11.590 -0.2348  0.3266 -0.0916
29628SOL    HW196124  10.604  12.703  11.517 -1.5085  0.2014 -0.7147
29628SOL    HW296125  10.504  12.699  11.630 -0.1960 -0.0514  0.4650
29629SOL     OW96126   8.778  10.598  11.864  0.1252 -0.4988  0.0104
29629SOL    HW196127   8.775  10.505  11.885 -1.1349 -0.5908 -0.5231
29629SOL    HW296128   8.871  10.616  11.848  0.5136 -1.4188  1.1453
29630SOL     OW96129   3.872   1.685   3.630 -0.0739  0.3411 -0.2214
29630SOL    HW196130   3.837   1.647   3.711  1.2739  1.4623  0.9420
29630SOL    HW296131   3.965   1.699   3.648  0.3269  0.3567 -2.0894
29631SOL     OW96132   1.695   1.908   4.737  0.3729 -0.0168 -0.2576
29631SOL    HW196133   1.726   1.869   4.819 -1.8197 -0.6271  0.3338
29631SOL    HW296134   1.692   1.836   4.675  0.3313  0.0828 -0.3721
29632SOL     OW96135   6.043   5.342   4.197 -0.4382  0.0549  0.0046
29632SOL    HW196136   5.962   5.393   4.201  0.2576  1.1103  1.7950
29632SOL    HW296137   6.071   5.334   4.288  1.9857  0.5704 -0.6241
29633SOL     OW96138   1.079   7.213   4.864  0.4974 -0.5166 -0.4204
29633SOL    HW196139   1.172   7.233   4.876  0.1926  0.6620  0.1282
29633SOL    HW296140   1.060   7.242   4.775  0.0378  1.9207  0.3973
29634SOL     OW96141  11.703   6.299   5.985 -0.0313  0.7244  0.3278
29634SOL    HW196142  11.634   6.283   6.049 -1.0749  0.8242 -0.7351
29634SOL    HW296143  11.720   6.393   5.990  0.0508  0.6961  0.6063
29635SOL     OW96144   7.484   8.472   9.644 -0.3280 -0.5112  0.1296
29635SOL    HW196145   7.574   8.502   9.629 -0.9706  1.4306 -0.1548
29635SOL    HW296146   7.474   8.476   9.739 -0.3390  0.0048  0.1104
29636SOL     OW96147   0.933   2.407   8.147  0.5969  0.4930  0.2526
29636SOL    HW196148   0.963   2.497   8.162 -0.5603  0.7636  1.0442
29636SOL    HW296149   0.966   2.385   8.060 -1.3830  2.6779 -1.1639
29637SOL     OW96150  11.553   6.131   6.554 -0.0056  0.1400  0.1101
29637SOL    HW196151  11.591   6.049   6.523 -0.8805  0.4186 -1.8924
29637SOL    HW296152  11.602   6.199   6.506 -0.0986  0.7305  0.8374
29638SOL     OW96153   3.317   1.078   4.298  0.1461 -0.5722  0.1363
29638SOL    HW196154   3.224   1.087   4.279 -0.3980 -0.0522  2.6931
29638SOL    HW296155   3.340   0.992   4.262 -1.8520 -1.6429  1.2481
29639SOL     OW96156  10.225   5.182   5.694 -0.4836 -0.0391  0.5327
29639SOL    HW196157  10.289   5.236   5.740 -0.2255  0.9566 -0.9183
29639SOL    HW296158  10.262   5.170   5.606 -1.6080 -0.6585  0.1248
29640SOL     OW96159   0.227   6.897   3.468  0.2695  0.4794  0.1992
29640SOL    HW196160   0.141   6.855   3.474  0.6350 -0.1976  0.8124
29640SOL    HW296161   0.244   6.904   3.374  0.4206 -1.2020  0.0754
29641SOL     OW96162   5.027  11.112  12.454 -0.1892  0.1259 -0.4280
29641SOL    HW196163   5.060  11.120  12.364  0.1348  1.2375 -0.2316
29641SOL    HW296164   5.021  11.018  12.469 -0.4264 -0.0733 -1.6764
29642SOL     OW96165   3.647   5.102   1.683 -0.3244 -0.0805  0.2669
29642SOL    HW196166   3.602   5.044   1.744 -2.1412  1.4821  0.4979
29642SOL    HW296167   3.721   5.137   1.733 -0.9347  0.0422  1.1032
29643SOL     OW96168   2.355   7.323   8.815  0.3103 -0.1102  0.3316
29643SOL    HW196169   2.284   7.261   8.832  1.2409 -2.1049 -2.2252
29643SOL    HW296170   2.313   7.397   8.773 -0.5163 -0.2238  0.9448
29644SOL     OW96171   6.393  11.882   4.218  0.2272  0.2461  1.1086
29644SOL    HW196172   6.368  11.791   4.239  0.9511 -0.4510 -0.8352
29644SOL    HW296173   6.488  11.880   4.212  0.1680  0.7712 -0.3913
29645SOL     OW96174   8.077   2.507  11.079 -0.4102  0.6001  0.4026
29645SOL    HW196175   7.998   2.538  11.124 -0.6340  0.6790 -0.0403
29645SOL    HW296176   8.069   2.412  11.081 -0.5491  0.6086  0.3081
29646SOL     OW96177   3.421   8.661   7.099  0.0180  0.1170  0.0387
29646SOL    HW196178   3.338   8.710   7.099 -1.2394 -1.8648  1.1333
29646SOL    HW296179   3.394   8.569   7.105  2.2770 -0.7522 -1.6644
29647SOL     OW96180   6.572  10.730   3.036  0.3693 -0.2275  0.4050
29647SOL    HW196181   6.589  10.736   2.942  1.4166 -0.0542  0.5922
29647SOL    HW296182   6.480  10.755   3.046  0.3242  0.0106 -0.5403
29648SOL     OW96183   7.888   7.642   7.040 -0.0816 -0.0707  0.4703
29648SOL    HW196184   7.810   7.696   7.027  0.0262  0.2299  1.0341
29648SOL    HW296185   7.915   7.660   7.130  1.7843  1.3790 -0.3008
29649SOL     OW96186   8.324   2.909   6.158  0.2697  0.2697 -0.2226
29649SOL    HW196187   8.363   2.918   6.071  1.1869  1.5652  0.2955
29649SOL    HW296188   8.398   2.892   6.216 -0.3552 -0.8096  0.2934
29650SOL     OW96189  10.655   0.030  11.043 -0.2959 -0.0095 -0.0543
29650SOL    HW196190  10.714   0.088  11.090  0.6805 -0.2325 -0.9594
29650SOL    HW296191  10.656  -0.052  11.094  1.0177 -0.3667 -0.6007
29651SOL     OW96192   3.660   0.677   6.818 -0.3060 -0.0790  0.4219
29651SOL    HW196193   3.612   0.691   6.737  0.4150  1.4222  0.2174
29651SOL    HW296194   3.625   0.596   6.854 -2.2161  0.4077 -0.2654
29652SOL     OW96195  11.701  12.395   8.584 -0.7466 -0.5260 -0.3155
29652SOL    HW196196  11.690  12.327   8.518 -0.2452 -1.1333  0.2189
29652SOL    HW296197  11.726  12.348   8.664 -0.9924  0.2278  0.2163
29653SOL     OW96198   5.769   5.048  11.744 -0.1548 -0.4872 -0.1967
29653SOL    HW196199   5.745   5.003  11.663 -0.0183 -0.2753 -0.3553
29653SOL    HW296200   5.690   5.096  11.769 -0.0731 -0.2429 -0.4122
29654SOL     OW96201   8.413   1.786   0.573 -0.2317  0.3957 -0.1419
29654SOL    HW196202   8.500   1.762   0.605 -0.9138 -1.1013  0.6967
29654SOL    HW296203   8.361   1.801   0.652 -1.1423 -0.3242 -0.5853
29655SOL     OW96204  10.956   5.395  10.532 -0.4268 -0.2191 -0.3915
29655SOL    HW196205  10.913   5.388  10.617 -0.8518 -0.8796 -0.6526
29655SOL    HW296206  11.014   5.470  10.540 -0.1801 -0.5096  0.6089
29656SOL     OW96207   4.935   2.332  11.722  0.3210  0.1682 -0.5817
29656SOL    HW196208   4.855   2.347  11.773 -0.1373 -0.4916 -1.0849
29656SOL    HW296209   4.938   2.237  11.710  1.0684  0.2064 -0.7533
29657SOL     OW96210   5.213  10.645   8.731 -0.2164  0.4766 -0.0397
29657SOL    HW196211   5.306  10.620   8.735 -0.1857  0.5623 -0.2151
29657SOL    HW296212   5.176  10.588   8.663 -0.7616 -1.0568  1.4743
29658SOL     OW96213  11.024   0.921  12.341  0.5057 -0.4101  0.7973
29658SOL    HW196214  11.053   0.958  12.424  3.5295  2.8708 -1.4192
29658SOL    HW296215  11.104   0.909  12.291 -1.0589 -3.5938 -1.2843
29659SOL     OW96216  11.745   9.195   1.508 -0.7898 -0.1931 -0.0090
29659SOL    HW196217  11.788   9.147   1.437 -2.1260 -1.7600  0.1776
29659SOL    HW296218  11.676   9.245   1.464 -2.1500 -1.7879  0.1800
29660SOL     OW96219   8.930   9.828   3.291  0.1240 -0.1592 -0.1170
29660SOL    HW196220   8.955   9.755   3.348  1.0714  0.5934  0.4694
29660SOL    HW296221   8.960   9.801   3.204  2.6415  0.4758  0.4767
29661SOL     OW96222   4.602   9.432   0.034 -0.1671  0.1496 -0.2956
29661SOL    HW196223   4.628   9.407   0.123 -0.2033  0.0834 -0.3034
29661SOL    HW296224   4.683   9.424  -0.017 -0.0426  0.6201 -0.1801
29662SOL     OW96225   8.231   7.235  11.341 -0.1617  0.1332  0.2640
29662SOL    HW196226   8.201   7.166  11.282  1.0876 -1.3380  1.2946
29662SOL    HW296227   8.151   7.264  11.386 -0.4891 -1.9950  1.1858
29663SOL     OW96228  11.686  10.234   8.575 -0.2253 -0.5178  0.4336
29663SOL    HW196229  11.759  10.290   8.548 -1.1705  0.7132  0.3196
29663SOL    HW296230  11.712  10.146   8.549  0.3368  0.1654 -1.4544
29664SOL     OW96231   5.527   2.565  12.311 -0.2778  0.0404 -0.6453
29664SOL    HW196232   5.578   2.643  12.331  0.9785 -0.9010 -0.1153
29664SOL    HW296233   5.591   2.496  12.299 -1.3552 -0.8633 -1.4261
29665SOL     OW96234   3.983   6.513   0.542  0.1257  0.2917  0.0104
29665SOL    HW196235   3.948   6.444   0.486 -1.0918  1.4044 -0.6625
29665SOL    HW296236   4.015   6.468   0.620 -0.2933 -1.0451 -0.5698
29666SOL     OW96237   6.076   9.040   8.171 -0.9369 -0.0039  0.8067
29666SOL    HW196238   6.168   9.015   8.165 -0.7518  0.5439  1.2749
29666SOL    HW296239   6.038   8.979   8.233 -0.5875  0.5800  1.6118
29667SOL     OW96240   3.305   1.893   0.075 -0.3509 -0.4224  0.1508
29667SOL    HW196241   3.378   1.831   0.072  0.2812  0.3410 -0.9750
29667SOL    HW296242   3.305   1.927   0.165  0.2339 -0.9347  0.3472
29668SOL     OW96243   2.373   8.102   0.396 -0.2633 -0.0502  0.4850
29668SOL    HW196244   2.359   8.130   0.305 -1.1751 -1.3873  0.1816
29668SOL    HW296245   2.453   8.050   0.393  0.8886  1.6120  0.8723
29669SOL     OW96246   5.364  10.276   9.374  0.0200 -0.0418 -0.2662
29669SOL    HW196247   5.437  10.277   9.435  0.1855  2.3071 -0.4130
29669SOL    HW296248   5.404  10.275   9.287 -0.1260  0.6740 -0.3453
29670SOL     OW96249   6.228   2.310   3.775  0.1380  0.2645  0.0463
29670SOL    HW196250   6.312   2.334   3.814  0.0723  1.2828 -0.4078
29670SOL    HW296251   6.244   2.310   3.681 -0.1852 -0.3124 -0.0186
29671SOL     OW96252  12.117   1.694  11.896 -0.1391  0.3551 -0.8143
29671SOL    HW196253  12.197   1.652  11.926 -1.0110 -0.4311  0.4757
29671SOL    HW296254  12.062   1.622  11.866 -1.9027  0.3919  1.9980
29672SOL     OW96255  11.275   1.950   6.994  0.5047 -0.7428 -0.2390
29672SOL    HW196256  11.243   1.865   7.023 -0.4234 -0.2585  0.1925
29672SOL    HW296257  11.197   2.004   6.985  1.0824  0.0776 -0.4846
29673SOL     OW96258   3.864   2.232   2.898 -0.0348  0.3654 -0.7116
29673SOL    HW196259   3.883   2.179   2.820  0.8982 -0.3692 -0.0048
29673SOL    HW296260   3.900   2.318   2.878 -1.3566  0.7244 -1.7809
29674SOL     OW96261  12.215   2.827   9.069  0.3674  0.7026  0.3289
29674SOL    HW196262  12.163   2.857   8.994 -0.3589  0.3575  0.6857
29674SOL    HW296263  12.245   2.740   9.045  1.5753  1.2523 -0.2594
29675SOL     OW96264   0.438  10.450   8.044  0.1056 -0.4800  0.2231
29675SOL    HW196265   0.471  10.502   7.970  1.4544 -0.2836  0.9260
29675SOL    HW296266   0.513  10.396   8.070  0.0179  0.2228  2.0986
29676SOL     OW96267   0.386   6.197   7.292  0.1025 -0.5481 -0.4791
29676SOL    HW196268   0.378   6.188   7.386  2.7230  0.4036 -0.0951
29676SOL    HW296269   0.342   6.280   7.272 -0.6064 -0.8343 -0.1410
29677SOL     OW96270   7.122   9.348   0.476  0.2826  0.1280 -0.0255
29677SOL    HW196271   7.100   9.434   0.511  1.8095  1.0143 -1.1424
29677SOL    HW296272   7.130   9.361   0.382  0.7364 -1.2116 -0.2020
29678SOL     OW96273   6.333   5.962   8.003  0.1052  0.4849 -0.7077
29678SOL    HW196274   6.252   5.990   7.961 -0.1814 -1.0991 -1.2896
29678SOL    HW296275   6.402   6.013   7.961 -0.5920  2.0896  0.0189
29679SOL     OW96276   1.889  11.111   1.325  0.1025 -0.0543  0.3993
29679SOL    HW196277   1.853  11.075   1.244  2.4209 -1.7253 -0.0241
29679SOL    HW296278   1.853  11.055   1.394  2.0486 -2.0826 -0.0701
29680SOL     OW96279   2.815   8.451   4.736 -0.0379  0.1808 -0.8775
29680SOL    HW196280   2.852   8.362   4.736  0.5211  0.3684  1.2224
29680SOL    HW296281   2.759   8.453   4.658 -0.2463 -2.1013 -0.8663
29681SOL     OW96282  10.600   3.140   6.470  0.0624  0.5222 -0.3132
29681SOL    HW196283  10.652   3.129   6.549 -1.3854  1.4454  0.8395
29681SOL    HW296284  10.609   3.058   6.423  2.9512  0.8292 -0.4772
29682SOL     OW96285   9.571   1.063   3.679 -0.2040  0.2580 -0.7049
29682SOL    HW196286   9.506   1.010   3.725  1.7339 -1.3436  0.3400
29682SOL    HW296287   9.618   1.109   3.748 -1.3403  2.9140 -1.5571
29683SOL     OW96288  10.519   7.699   6.377  0.4613  0.0679  0.8749
29683SOL    HW196289  10.528   7.719   6.470 -0.1532 -0.8005  1.1399
29683SOL    HW296290  10.606   7.671   6.349  0.2656 -1.3638  1.6342
29684SOL     OW96291   0.945  11.871   1.917 -0.0287  0.6565  0.1838
29684SOL    HW196292   1.007  11.850   1.847  0.6978  1.1542  0.6811
29684SOL    HW296293   0.966  11.809   1.987 -2.2553 -1.4583 -0.8337
29685SOL     OW96294   8.384   4.502   6.924 -0.5310 -0.5839 -0.1022
29685SOL    HW196295   8.298   4.534   6.895 -1.0161  0.1661  1.9622
29685SOL    HW296296   8.421   4.458   6.847 -1.9204  0.7785 -1.6134
29686SOL     OW96297   2.102   2.069   0.297 -0.1705 -0.0671 -0.6366
29686SOL    HW196298   2.141   2.096   0.214 -1.9455  0.1744 -1.4357
29686SOL    HW296299   2.019   2.029   0.273 -0.5410 -0.3683  1.0031
29687SOL     OW96300   1.123   6.525   9.839  0.4429  0.6185  0.0452
29687SOL    HW196301   1.109   6.492   9.928 -2.3934 -1.3423 -0.9508
29687SOL    HW296302   1.061   6.597   9.830 -3.0279 -2.2815 -1.6490
29688SOL     OW96303   2.116   2.600  11.790  0.0693  0.0768  0.2340
29688SOL    HW196304   2.179   2.547  11.839  0.9712  1.0466  0.1690
29688SOL    HW296305   2.168   2.674  11.758 -1.6150  2.3805  2.4294
29689SOL     OW96306   9.713  12.007   4.387 -0.1289 -0.2415  0.0077
29689SOL    HW196307   9.738  11.954   4.462 -0.0660  1.0513  0.9251
29689SOL    HW296308   9.787  11.997   4.326 -0.5806 -2.0127 -0.3244
29690SOL     OW96309   8.059  12.415   3.793  0.7281  0.0968 -0.2250
29690SOL    HW196310   8.134  12.361   3.818  0.1957  0.1579  1.6377
29690SOL    HW296311   8.010  12.361   3.731  1.1937 -0.8098  0.1812
29691SOL     OW96312   6.951   5.639   0.024  0.2235 -0.0552  0.4408
29691SOL    HW196313   6.979   5.551   0.002  2.6724  0.8738 -0.4415
29691SOL    HW296314   7.005   5.664   0.099  0.1865  1.0072  0.1336
29692SOL     OW96315   7.694   3.559  12.447  0.0770  0.5323  0.3229
29692SOL    HW196316   7.620   3.506  12.417  0.8304  0.4676 -1.5663
29692SOL    HW296317   7.673   3.581  12.537 -2.2242  0.4840 -0.1515
29693SOL     OW96318   8.911   9.531  12.060 -0.3587 -0.5806 -0.3623
29693SOL    HW196319   8.969   9.529  11.983  0.7702  0.3959  0.4322
29693SOL    HW296320   8.897   9.624  12.077 -0.4000 -0.7780  0.7573
29694SOL     OW96321   2.721   5.454   2.337  0.0232 -0.5991 -0.3037
29694SOL    HW196322   2.795   5.485   2.285 -0.4905  0.6394 -0.3395
29694SOL    HW296323   2.662   5.414   2.274  0.6857 -1.6793 -0.2622
29695SOL     OW96324   1.141   6.607  12.390 -0.1716  0.4582 -0.1167
29695SOL    HW196325   1.074   6.560  12.341  1.4935 -2.4700  0.2068
29695SOL    HW296326   1.122   6.587  12.482  1.1055 -0.4008 -0.0255
29696SOL     OW96327   5.757  10.343   8.252  0.0476 -0.7606  0.1252
29696SOL    HW196328   5.847  10.324   8.279 -0.3068 -0.0265  1.9530
29696SOL    HW296329   5.704  10.275   8.294 -0.4598  0.0864  0.8989
29697SOL     OW96330  10.436   5.439  11.997 -0.7878  0.1635  0.6751
29697SOL    HW196331  10.473   5.369  11.943 -0.1145  1.5962 -0.7757
29697SOL    HW296332  10.421   5.511  11.936 -3.6530  0.5342  1.6679
29698SOL     OW96333  11.702   7.608   9.269  0.2740 -0.1393 -0.1793
29698SOL    HW196334  11.741   7.692   9.294 -0.1758  0.3044 -0.9197
29698SOL    HW296335  11.610   7.628   9.253  0.1328 -0.8060 -0.2105
29699SOL     OW96336   8.914  12.378   8.518  0.0538  0.2172  0.4406
29699SOL    HW196337   8.918  12.473   8.503 -0.9859  0.0539 -1.1192
29699SOL    HW296338   9.005  12.353   8.535  0.1483  1.6923  2.4612
29700SOL     OW96339   2.249   6.758   6.640 -0.5328 -0.0049  0.2566
29700SOL    HW196340   2.191   6.731   6.711 -1.4875 -0.3556 -0.6187
29700SOL    HW296341   2.189   6.778   6.567  0.5125 -2.0032 -1.2358
29701SOL     OW96342   1.857   1.981   0.605 -0.0121  0.2040 -0.2281
29701SOL    HW196343   1.776   1.972   0.555 -0.0489  0.4953 -0.2207
29701SOL    HW296344   1.927   1.969   0.540 -0.0589 -0.1481 -0.2164
29702SOL     OW96345   7.890   7.018  10.225 -0.3324 -0.2239  0.7090
29702SOL    HW196346   7.898   7.111  10.203 -0.1519 -0.5603 -0.8205
29702SOL    HW296347   7.854   7.017  10.313 -2.0542  1.3089  0.0956
29703SOL     OW96348  11.652   0.123   6.948  0.4617 -0.1534  0.9037
29703SOL    HW196349  11.682   0.206   6.984 -1.9839  1.0982  0.2647
29703SOL    HW296350  11.700   0.113   6.866  1.6671 -0.0360  1.5635
29704SOL     OW96351   0.690   4.004   6.898  0.5564  0.3772  0.0275
29704SOL    HW196352   0.615   3.945   6.891  1.6079 -0.8687 -1.4775
29704SOL    HW296353   0.766   3.946   6.900  1.5032  1.6088  1.4462
29705SOL     OW96354   8.698   5.817   2.631  0.3000 -0.3068 -0.6924
29705SOL    HW196355   8.780   5.847   2.670  0.0285 -1.5459  0.9183
29705SOL    HW296356   8.636   5.812   2.704 -0.7156 -1.1122 -1.5644
29706SOL     OW96357   6.792   6.289   0.446  0.2285 -0.1583 -0.0807
29706SOL    HW196358   6.783   6.198   0.417 -3.4610 -0.0818  0.3092
29706SOL    HW296359   6.703   6.324   0.440  1.1293  2.7848  1.9042
29707SOL     OW96360   4.146   7.318   4.637 -0.1044  0.0868  0.3051
29707SOL    HW196361   4.226   7.369   4.627  0.1432 -0.0119  1.5804
29707SOL    HW296362   4.110   7.345   4.722 -0.5263 -1.0736  0.5193
29708SOL     OW96363   7.443   9.343   4.847  0.4948  0.1281  0.1201
29708SOL    HW196364   7.516   9.294   4.885  0.0761 -1.1114 -0.6245
29708SOL    HW296365   7.367   9.288   4.863  0.5752 -1.8564 -4.6751
29709SOL     OW96366   3.904   7.702   7.475  0.6799 -0.4986  0.1912
29709SOL    HW196367   3.884   7.795   7.483 -1.0481 -0.9869  2.4331
29709SOL    HW296368   4.000   7.698   7.482  0.8271  1.1114 -0.4112
29710SOL     OW96369   8.630   4.173   7.390 -0.4950  0.3593  0.0033
29710SOL    HW196370   8.684   4.097   7.412  0.0883  0.7305 -0.1236
29710SOL    HW296371   8.569   4.141   7.324 -0.8385 -0.2202  0.5895
29711SOL     OW96372   0.210   3.707   7.312 -0.1654 -0.4775  0.0351
29711SOL    HW196373   0.243   3.774   7.371  0.1251 -0.6740  0.0965
29711SOL    HW296374   0.116   3.703   7.331 -0.0006 -0.8665  0.8190
29712SOL     OW96375   1.627   8.634  12.451 -0.1336  0.0739  0.5388
29712SOL    HW196376   1.628   8.556  12.507  0.2554 -0.2520  0.0843
29712SOL    HW296377   1.654   8.705  12.509 -0.0125 -0.2091  0.8353
29713SOL     OW96378   7.789   7.925   2.103 -0.1561 -0.5704 -0.4209
29713SOL    HW196379   7.777   7.831   2.118  0.2338 -0.4898  0.4857
29713SOL    HW296380   7.706   7.964   2.132 -0.2829 -0.6203 -0.7100
29714SOL     OW96381  11.916   4.797   5.297  0.0512 -0.1245 -0.0752
29714SOL    HW196382  12.007   4.822   5.312  0.0421  0.5419 -1.0487
29714SOL    HW296383  11.874   4.806   5.383  1.1075 -1.3968  0.6022
29715SOL     OW96384   3.451   7.857   7.483  0.3741 -0.2892  0.7897
29715SOL    HW196385   3.366   7.901   7.496  0.1061 -0.7020  0.4465
29715SOL    HW296386   3.454   7.791   7.552  0.1487 -0.6763  0.4304
29716SOL     OW96387   4.594   1.373   4.172  0.4063 -0.0060  0.2544
29716SOL    HW196388   4.511   1.421   4.166 -0.2406 -1.1183  0.0630
29716SOL    HW296389   4.602   1.350   4.265 -0.6788 -1.8557 -0.0509
29717SOL     OW96390   5.484   7.504   1.251  0.5927 -0.4062 -0.0638
29717SOL    HW196391   5.418   7.442   1.219  1.5746 -1.9613  0.8220
29717SOL    HW296392   5.463   7.515   1.343  2.0134 -1.5292  0.4164
29718SOL     OW96393   6.932  10.439   5.133  0.0799  0.1778  0.3993
29718SOL    HW196394   6.890  10.369   5.083  0.2235 -0.8390  1.6315
29718SOL    HW296395   6.884  10.518   5.111 -0.8781 -0.5315 -0.0971
29719SOL     OW96396  11.066   2.534   8.824  0.1364  0.0173 -0.3360
29719SOL    HW196397  11.136   2.585   8.782  0.0902 -0.6385 -1.2369
29719SOL    HW296398  11.096   2.522   8.914  1.9826 -1.5698 -1.0695
29720SOL     OW96399   0.397   5.199   0.185  0.0635 -0.1691  0.0047
29720SOL    HW196400   0.360   5.114   0.205 -0.5062 -0.1006 -0.7156
29720SOL    HW296401   0.460   5.216   0.256  0.1486 -1.1557  0.1715
29721SOL     OW96402  11.284   7.089   8.007  0.2579 -0.3069  0.0518
29721SOL    HW196403  11.252   7.140   7.933  0.7313  1.2023  0.8482
29721SOL    HW296404  11.204   7.059   8.052 -0.0234 -0.2232 -0.3874
29722SOL     OW96405   8.162   3.635   7.924  0.4121 -0.4001  0.1194
29722SOL    HW196406   8.111   3.707   7.885  0.4980 -0.6836 -0.5375
29722SOL    HW296407   8.177   3.575   7.851 -1.0722 -1.9254  0.9911
29723SOL     OW96408   4.973  11.685   4.089 -0.3975  0.1407  0.0967
29723SOL    HW196409   5.042  11.670   4.154 -0.6427 -0.4968  0.2219
29723SOL    HW296410   4.893  11.657   4.134 -0.7731  1.1157  0.0448
29724SOL     OW96411   9.035   2.712   5.609  0.5459 -0.1143  0.0854
29724SOL    HW196412   8.949   2.672   5.615  0.0454  1.0328  0.6898
29724SOL    HW296413   9.050   2.752   5.695  2.1424 -1.1937  0.3653
29725SOL     OW96414   6.608   5.778   4.971 -0.0743  0.2479  0.2692
29725SOL    HW196415   6.663   5.701   4.985 -0.8303 -0.3170  0.1934
29725SOL    HW296416   6.667   5.844   4.934  1.3334  0.8150  3.2796
29726SOL     OW96417  10.863   1.695   9.976 -0.3995 -0.3740 -0.5083
29726SOL    HW196418  10.940   1.674   9.922 -0.1276 -0.9399  0.0917
29726SOL    HW296419  10.887   1.775  10.022  0.3887 -1.3125  0.7441
29727SOL     OW96420   2.256   0.711   4.941 -0.4834 -0.2458 -0.1305
29727SOL    HW196421   2.277   0.738   4.851  0.2468  0.1476  0.1485
29727SOL    HW296422   2.186   0.647   4.931 -1.5533  0.9822 -0.8943
29728SOL     OW96423   3.340   5.990  11.156 -0.0675  0.0124 -0.2259
29728SOL    HW196424   3.321   6.001  11.250  0.9021 -1.9704  0.2526
29728SOL    HW296425   3.374   6.075  11.129 -0.6357  0.7148  1.1536
29729SOL     OW96426   5.048   4.205   5.350 -0.5246 -0.5269 -0.1357
29729SOL    HW196427   4.961   4.210   5.390 -0.7531 -2.7036 -0.2583
29729SOL    HW296428   5.039   4.255   5.269 -1.4786 -0.2202  0.1394
29730SOL     OW96429   1.360   7.922   1.535 -0.1594  0.0655 -0.0915
29730SOL    HW196430   1.408   7.962   1.607  0.1396 -0.2937 -0.0865
29730SOL    HW296431   1.334   7.836   1.569  0.7020 -0.4438 -0.6977
29731SOL     OW96432  10.989   6.410   7.843 -0.3799 -0.3919  0.2135
29731SOL    HW196433  10.999   6.502   7.817  1.7464 -0.7391 -0.4143
29731SOL    HW296434  10.920   6.376   7.786 -0.3116  0.5032 -0.4142
29732SOL     OW96435  12.511   7.832  10.801 -0.2687 -0.5414  0.6476
29732SOL    HW196436  12.587   7.886  10.778 -0.4083 -1.0858 -1.3376
29732SOL    HW296437  12.497   7.776  10.724 -1.3095 -2.0554  1.8625
29733SOL     OW96438   7.563   3.063   8.630  0.4120 -0.0704  0.1662
29733SOL    HW196439   7.543   2.983   8.582  1.4770 -0.2402 -0.0310
29733SOL    HW296440   7.616   3.115   8.569 -0.4684  0.8990  0.2031
29734SOL     OW96441   0.756   4.727   0.871  0.0023  0.1626  0.3095
29734SOL    HW196442   0.759   4.799   0.808 -1.3294  0.8032  0.9309
29734SOL    HW296443   0.848   4.701   0.882  0.6484  2.4833  0.8823
29735SOL     OW96444   9.815   3.722   1.677  0.1252 -0.4967 -0.2171
29735SOL    HW196445   9.832   3.787   1.745  0.6917  1.9737 -2.5919
29735SOL    HW296446   9.743   3.758   1.626  0.1302 -1.9780 -1.3313
29736SOL     OW96447   0.803   1.512   6.328 -0.0439 -0.0439  0.0246
29736SOL    HW196448   0.793   1.582   6.392 -3.2337 -0.0587 -0.2797
29736SOL    HW296449   0.883   1.467   6.354  3.1396  4.4776 -0.6431
29737SOL     OW96450  10.081   9.909   5.416 -0.0286 -0.3422 -0.3104
29737SOL    HW196451  10.142   9.837   5.406 -0.7654 -0.8328 -1.5536
29737SOL    HW296452   9.998   9.875   5.383 -0.6231  0.7713 -0.0291
29738SOL     OW96453   1.802   2.380  12.404  0.6171 -0.1204  0.1176
29738SOL    HW196454   1.715   2.409  12.377  0.4698 -0.7468 -0.0985
29738SOL    HW296455   1.860   2.450  12.375  0.3184 -0.2246 -0.7692
29739SOL     OW96456   5.203   3.414  10.419 -0.1362  0.1569 -0.3933
29739SOL    HW196457   5.143   3.341  10.403 -0.0011 -0.0068 -0.1664
29739SOL    HW296458   5.283   3.373  10.451  0.0579  0.3834 -0.5828
29740SOL     OW96459   6.052   4.965   7.096  0.8737  0.1341  0.0608
29740SOL    HW196460   6.123   5.019   7.133  0.7253  0.6222 -0.3678
29740SOL    HW296461   5.974   5.020   7.102 -0.0123 -1.2274  2.7318
29741SOL     OW96462   9.219   7.804   7.505 -0.7482  0.0410  0.2482
29741SOL    HW196463   9.303   7.762   7.487  0.0106  0.9285  1.5162
29741SOL    HW296464   9.224   7.889   7.461 -1.1467 -0.0806 -0.0280
29742SOL     OW96465   6.318   7.224   0.166  0.2402  0.3386  0.0983
29742SOL    HW196466   6.293   7.132   0.162 -0.6251  0.5645  0.0429
29742SOL    HW296467   6.235   7.271   0.176  0.5150  1.2265 -1.4522
29743SOL     OW96468   1.199   1.257   9.816 -0.1206 -0.4213  0.0675
29743SOL    HW196469   1.152   1.340   9.823  0.7971  0.1765 -0.6250
29743SOL    HW296470   1.263   1.271   9.746  1.7622 -0.8631  1.5939
29744SOL     OW96471   7.694  10.253   9.441 -0.0777  0.2051  0.2325
29744SOL    HW196472   7.677  10.177   9.497 -0.9317 -0.5924 -1.0612
29744SOL    HW296473   7.784  10.278   9.463 -0.0895 -0.5982  1.3406
29745SOL     OW96474   0.213   5.494   0.799 -0.1594 -0.4086  0.3841
29745SOL    HW196475   0.159   5.572   0.808 -2.2642 -1.8528  0.8952
29745SOL    HW296476   0.160   5.433   0.748  1.4073 -1.5575  0.0349
29746SOL     OW96477   6.903   9.171   5.351 -0.5544 -0.6121 -0.0277
29746SOL    HW196478   6.900   9.080   5.381 -0.7296 -0.2192  1.2262
29746SOL    HW296479   6.816   9.206   5.372  0.8519  1.1046  3.8531
29747SOL     OW96480   1.588  11.255   9.107 -0.2053 -0.6627 -0.6063
29747SOL    HW196481   1.672  11.296   9.127  0.5316 -0.9960 -2.7452
29747SOL    HW296482   1.524  11.302   9.161  1.2337  0.0461  0.5517
29748SOL     OW96483   4.389   3.286   8.986  0.7376 -0.0057 -0.1944
29748SOL    HW196484   4.319   3.264   8.925  1.1244 -0.5562 -0.4421
29748SOL    HW296485   4.381   3.381   8.998  1.1935  0.2505 -1.7577
29749SOL     OW96486   7.852   1.380  11.969  0.3855  0.0897  0.6083
29749SOL    HW196487   7.847   1.287  11.990 -1.5181  0.0666  0.2064
29749SOL    HW296488   7.894   1.383  11.883 -1.0396 -0.5409 -0.1369
29750SOL     OW96489   9.585   3.974   0.217  0.8279 -0.4961  0.8320
29750SOL    HW196490   9.523   3.936   0.154 -0.2416 -1.1041  2.2057
29750SOL    HW296491   9.535   4.041   0.262  1.3749 -0.5239  1.4993
29751SOL     OW96492   2.589   6.557   1.745 -0.8629 -0.5783 -0.6240
29751SOL    HW196493   2.526   6.534   1.677 -1.6772 -1.3011  0.3427
29751SOL    HW296494   2.539   6.611   1.807 -0.4426 -0.8536 -0.0338
29752SOL     OW96495   5.742  11.607   6.264 -0.0149  0.1772 -0.4545
29752SOL    HW196496   5.728  11.616   6.358  0.0154  0.4860 -0.4804
29752SOL    HW296497   5.654  11.606   6.226 -0.0226  0.1757 -0.4367
29753SOL     OW96498  10.936   9.372   8.296  0.8192  0.4755 -0.2112
29753SOL    HW196499  10.863   9.429   8.272  1.1722  1.6576  1.3306
29753SOL    HW296500  10.894   9.294   8.333  0.3339 -0.2490 -2.1838
29754SOL     OW96501   2.689   4.174  12.547  0.2755  0.1350 -0.4509
29754SOL    HW196502   2.714   4.136  12.631 -0.0074 -0.5259 -0.6561
29754SOL    HW296503   2.770   4.175  12.495  0.3141 -0.0658 -0.3951
29755SOL     OW96504   1.667   7.898   9.107 -0.3127  0.5512 -0.0127
29755SOL    HW196505   1.756   7.863   9.096 -0.7564 -0.4051 -0.6390
29755SOL    HW296506   1.659   7.911   9.202  0.4409  0.5155  0.0658
29756SOL     OW96507   2.139  10.054  11.393 -0.2165 -0.2537  0.1393
29756SOL    HW196508   2.230  10.057  11.364 -0.5370  0.6009 -0.8245
29756SOL    HW296509   2.125  10.137  11.439 -0.5272 -0.3504  0.2268
29757SOL     OW96510   7.992   7.120   8.248 -0.0024 -0.2135  0.1161
29757SOL    HW196511   8.025   7.171   8.174  1.9354 -0.1464  0.9719
29757SOL    HW296512   7.913   7.167   8.275  0.4989  1.0556 -0.5249
29758SOL     OW96513   1.720   0.489   2.551 -0.1604 -0.1082 -0.3043
29758SOL    HW196514   1.807   0.452   2.571 -0.9470 -1.4704  0.7796
29758SOL    HW296515   1.722   0.502   2.456  0.9793 -0.8381 -0.4150
29759SOL     OW96516   4.097   8.366   2.937 -0.2491  0.5735 -0.3962
29759SOL    HW196517   4.058   8.405   2.859 -1.8184 -0.5979 -0.2626
29759SOL    HW296518   4.064   8.419   3.010 -2.2823 -0.8081 -0.2245
29760SOL     OW96519  10.139   9.341   6.521 -0.7783 -0.0211 -0.0449
29760SOL    HW196520  10.129   9.277   6.591 -2.2096  0.3417  0.1103
29760SOL    HW296521  10.164   9.422   6.566 -0.3756 -0.1139 -0.0976
29761SOL     OW96522   2.538   7.890  10.510 -0.0168  0.5650  0.2874
29761SOL    HW196523   2.628   7.920  10.501  0.1094 -0.0366 -0.5526
29761SOL    HW296524   2.501   7.899  10.422 -1.1744  2.0311  0.8861
29762SOL     OW96525  10.366  10.522   9.202  0.0119 -0.3483  0.0802
29762SOL    HW196526  10.312  10.476   9.138  2.1591 -1.3422 -1.1200
29762SOL    HW296527  10.383  10.457   9.270  0.1212 -0.1889  0.2075
29763SOL     OW96528   3.081   0.581   1.416 -0.1006 -0.0765 -1.1058
29763SOL    HW196529   3.137   0.645   1.372  0.4918 -0.0244 -0.3017
29763SOL    HW296530   3.021   0.551   1.348  1.0268 -0.2750 -2.0584
29764SOL     OW96531   5.775   1.720  11.697 -0.6340  0.1793 -0.3354
29764SOL    HW196532   5.705   1.654  11.700 -0.1856 -0.3740 -1.5337
29764SOL    HW296533   5.847   1.677  11.651  1.1161  0.2021  2.1529
29765SOL     OW96534   0.195  10.026   1.114  0.3687 -0.2569  0.2315
29765SOL    HW196535   0.103  10.050   1.103 -0.0846 -1.6477  0.6720
29765SOL    HW296536   0.240  10.109   1.131 -0.8830  0.4000  0.4823
29766SOL     OW96537   2.604   0.892   0.541  0.0430  0.9600 -0.3346
29766SOL    HW196538   2.524   0.888   0.489 -0.1439 -0.0972  0.0111
29766SOL    HW296539   2.576   0.873   0.631  0.6979  0.3712 -0.2437
29767SOL     OW96540  10.447  11.896   5.200 -0.7594  0.7130 -0.2138
29767SOL    HW196541  10.535  11.922   5.226 -0.0071 -1.7367 -0.0935
29767SOL    HW296542  10.452  11.886   5.104 -2.0310  4.2931 -0.7962
29768SOL     OW96543   1.052   2.170  10.588 -0.0524 -0.0502 -0.3977
29768SOL    HW196544   1.069   2.117  10.666  0.7846  0.8723  0.0784
29768SOL    HW296545   0.974   2.132  10.549 -0.0097 -1.0375  0.4434
29769SOL     OW96546  10.990   8.031   6.107  0.6073  0.3066  0.0666
29769SOL    HW196547  11.029   8.082   6.036  0.1503  1.2574  0.4727
29769SOL    HW296548  10.899   8.019   6.082  0.7401 -0.4162 -0.0772
29770SOL     OW96549   4.308  10.136   2.013  0.6099 -0.5237 -0.2746
29770SOL    HW196550   4.216  10.110   2.015  0.0641  1.1152  2.5050
29770SOL    HW296551   4.321  10.172   1.925 -2.4330  2.1246  0.1426
29771SOL     OW96552  12.406   6.293   0.478 -0.1115 -0.2725  0.5928
29771SOL    HW196553  12.385   6.200   0.485 -0.8149 -0.1570  0.1173
29771SOL    HW296554  12.381   6.317   0.388  1.0400  0.1339  0.3633
29772SOL     OW96555   1.148   4.906  10.998 -0.6440  0.0900  0.5821
29772SOL    HW196556   1.102   4.968  10.941 -0.8265  0.0534  0.6882
29772SOL    HW296557   1.232   4.891  10.954 -0.5199  0.5597  0.6539
29773SOL     OW96558   9.868   0.272   0.474  0.3107  0.4500  0.7024
29773SOL    HW196559   9.864   0.286   0.568  0.9759 -3.0265  1.3938
29773SOL    HW296560   9.778   0.248   0.449  0.5425 -0.6458  0.8849
29774SOL     OW96561   8.867   9.741   2.770  0.2038  0.4724  0.1825
29774SOL    HW196562   8.883   9.680   2.698  0.0879  0.8420 -0.1636
29774SOL    HW296563   8.775   9.766   2.761  0.6391  1.8893 -0.6338
29775SOL     OW96564   4.720   3.979   3.426 -0.7314 -0.2583  0.0432
29775SOL    HW196565   4.637   3.985   3.378 -0.7673 -0.2764  0.1022
29775SOL    HW296566   4.787   3.981   3.358 -0.7439  0.6055  0.0462
29776SOL     OW96567   8.161  12.404  12.171 -0.2029  0.5862 -0.0578
29776SOL    HW196568   8.256  12.412  12.178 -0.2363  1.0982 -0.1090
29776SOL    HW296569   8.127  12.452  12.247 -0.4058 -0.3722  0.4769
29777SOL     OW96570   6.220   7.654   8.221 -0.4555  0.3293 -0.1373
29777SOL    HW196571   6.125   7.666   8.225 -0.7225 -0.9754 -1.4994
29777SOL    HW296572   6.250   7.721   8.159 -0.7176 -0.2017 -0.8587
29778SOL     OW96573  10.737   2.447   7.677 -0.6836 -0.0000  0.2629
29778SOL    HW196574  10.725   2.383   7.607  1.2712 -0.3050  0.1718
29778SOL    HW296575  10.720   2.532   7.636  0.5698 -0.1615 -0.6199
29779SOL     OW96576   3.693  11.098   7.375  0.7958 -0.3095  0.4238
29779SOL    HW196577   3.646  11.181   7.369  1.9961  0.3989  0.5091
29779SOL    HW296578   3.628  11.032   7.352  0.5901  0.8853 -2.9761
29780SOL     OW96579   6.608  10.063   6.009  0.3870  0.5203 -0.2563
29780SOL    HW196580   6.629  10.051   6.101  0.1214  2.0983  0.0385
29780SOL    HW296581   6.613   9.975   5.971 -0.0568 -0.2255  1.3638
29781SOL     OW96582   0.859  12.321   8.666  0.4512  0.0950 -0.1254
29781SOL    HW196583   0.765  12.309   8.676  0.2554  0.1823 -1.6629
29781SOL    HW296584   0.894  12.232   8.658  1.0190 -0.2295  3.9224
29782SOL     OW96585   8.149   4.882   5.986  0.5074  0.8922 -0.2944
29782SOL    HW196586   8.238   4.887   5.949  0.7899 -0.0383  0.2235
29782SOL    HW296587   8.161   4.891   6.080 -0.1439  2.5493 -0.3409
29783SOL     OW96588   1.019   3.631  12.189 -0.3723 -0.2923 -0.2799
29783SOL    HW196589   1.075   3.671  12.255  0.0797  0.0470 -0.8600
29783SOL    HW296590   0.932   3.632  12.228 -0.2892  0.8223 -0.0766
29784SOL     OW96591   6.550   4.188   2.825  0.8214 -0.2681 -0.0542
29784SOL    HW196592   6.527   4.199   2.917  1.4767  1.5814 -0.0559
29784SOL    HW296593   6.467   4.199   2.779  0.2605 -2.4506  0.3225
29785SOL     OW96594   7.433   2.503  12.048  0.3581 -0.1331 -0.2214
29785SOL    HW196595   7.370   2.555  12.099  0.6039  0.0838 -0.1334
29785SOL    HW296596   7.518   2.536  12.077  0.5696  2.8069 -3.5248
29786SOL     OW96597   8.548   3.180  12.132 -0.3053  0.0376 -0.2546
29786SOL    HW196598   8.511   3.247  12.189  0.1847  1.1058 -1.1478
29786SOL    HW296599   8.640   3.176  12.158 -0.6224 -1.3768  0.7904
29787SOL     OW96600   7.050   1.188   7.962 -0.0454  0.0376  0.2092
29787SOL    HW196601   7.137   1.184   8.003 -1.7291  0.2961  4.2403
29787SOL    HW296602   7.029   1.096   7.942  0.4355 -0.2390  0.9276
29788SOL     OW96603   3.708   9.779   7.498  0.3080 -0.3237 -0.2206
29788SOL    HW196604   3.692   9.706   7.439 -0.1268 -1.0733  0.8007
29788SOL    HW296605   3.638   9.775   7.562  0.7433  0.5022  0.3310
29789SOL     OW96606   4.100   1.289   0.972  0.0779  0.2729 -0.2101
29789SOL    HW196607   4.020   1.341   0.982 -0.2654 -0.0930 -1.0286
29789SOL    HW296608   4.092   1.220   1.037 -1.3213 -1.0559 -1.7186
29790SOL     OW96609   8.003   8.828   2.142 -0.2054  0.5219  0.0284
29790SOL    HW196610   7.932   8.809   2.202 -0.1355  0.5964  0.1341
29790SOL    HW296611   8.014   8.923   2.145  1.0297  0.3771  1.3228
29791SOL     OW96612  10.562   0.243   6.742 -0.0965  0.1066 -0.3485
29791SOL    HW196613  10.615   0.178   6.787 -0.5277 -0.7215 -1.0088
29791SOL    HW296614  10.603   0.327   6.764 -0.6650 -0.1905  2.0730
29792SOL     OW96615   5.837   0.091  10.008  0.3716 -0.5047  0.2759
29792SOL    HW196616   5.862   0.172   9.964 -1.6783 -0.5825 -1.1981
29792SOL    HW296617   5.916   0.037  10.007  1.2885  0.8130 -0.3044
29793SOL     OW96618  12.653  12.221   6.986  0.6842 -0.5951 -0.1148
29793SOL    HW196619  12.571  12.236   7.033  1.0134 -0.5068  0.4437
29793SOL    HW296620  12.632  12.154   6.922 -0.0044 -0.0676 -0.4600
29794SOL     OW96621  12.343   5.378   7.019  0.0213 -0.4608  0.0591
29794SOL    HW196622  12.342   5.441   6.947 -1.3410 -0.1870  0.2974
29794SOL    HW296623  12.320   5.294   6.979 -0.4647 -0.3610  0.1287
29795SOL     OW96624   1.736   6.071   3.701  0.0747  0.6797 -0.3006
29795SOL    HW196625   1.704   6.161   3.708 -1.4357  0.0303  2.4738
29795SOL    HW296626   1.676   6.029   3.639  0.2748  1.3416 -0.9597
29796SOL     OW96627   8.078  11.434   7.456 -0.0680  0.0844  0.4403
29796SOL    HW196628   7.985  11.432   7.437 -0.1127 -0.5053  0.7082
29796SOL    HW296629   8.097  11.348   7.493  0.8794 -0.3509 -0.9632
29797SOL     OW96630   4.819   4.479  10.384 -0.3436 -0.3092 -0.2599
29797SOL    HW196631   4.852   4.561  10.419 -0.0174 -0.2875 -0.6043
29797SOL    HW296632   4.724   4.483  10.397 -0.2638 -0.1534  0.2895
29798SOL     OW96633   9.455   6.481   1.990  0.3661  0.2882 -0.0056
29798SOL    HW196634   9.370   6.507   1.954 -0.8157 -1.5803  1.2303
29798SOL    HW296635   9.503   6.563   2.000 -0.5954  1.2189 -2.3735
29799SOL     OW96636   6.187   2.257   5.998  0.5691  0.1716  0.2963
29799SOL    HW196637   6.111   2.306   6.030  0.7334  0.6058  0.0348
29799SOL    HW296638   6.205   2.193   6.067  0.6437  0.8017  0.8733
29800SOL     OW96639   3.319   7.316   2.039  0.0677  0.0147  0.3257
29800SOL    HW196640   3.375   7.326   1.961 -2.6752 -1.4701 -2.0193
29800SOL    HW296641   3.266   7.239   2.020 -2.5914  1.1869  2.4836
29801SOL     OW96642   1.839   3.850   1.930  0.7829  0.8016  0.0384
29801SOL    HW196643   1.754   3.889   1.950  1.2715  1.7652  0.3092
29801SOL    HW296644   1.876   3.906   1.861  1.2339  0.4642  0.0018
29802SOL     OW96645   1.790   4.586   6.927 -0.1413 -0.3168 -0.4048
29802SOL    HW196646   1.879   4.613   6.950 -0.0146  0.6881 -1.9294
29802SOL    HW296647   1.738   4.665   6.937 -0.4144 -0.3106 -1.6989
29803SOL     OW96648   9.183  10.454   2.511 -0.0194  0.0944 -0.4566
29803SOL    HW196649   9.201  10.548   2.514 -0.5851  0.1824  0.8365
29803SOL    HW296650   9.238  10.417   2.580 -0.4274 -0.4158 -0.3978
29804SOL     OW96651   8.561   7.995   0.089  0.3964 -0.0020 -0.3894
29804SOL    HW196652   8.605   8.040   0.017 -2.4534 -0.3825 -2.5279
29804SOL    HW296653   8.533   8.065   0.148 -2.0352  0.9967 -2.5437
29805SOL     OW96654   9.020   9.137   3.399 -0.1468  0.5144 -0.3702
29805SOL    HW196655   9.055   9.069   3.341  0.5988 -0.0095  0.6603
29805SOL    HW296656   9.046   9.219   3.356  1.4255  0.1376 -0.2206
29806SOL     OW96657  10.821   4.526   9.504  0.5070 -0.0116  0.1266
29806SOL    HW196658  10.742   4.474   9.489 -0.8707  2.0371 -0.1154
29806SOL    HW296659  10.866   4.527   9.419 -1.0512  1.6361 -0.7465
29807SOL     OW96660   9.071   4.985   9.092  0.3437  0.1527 -0.6273
29807SOL    HW196661   9.085   5.063   9.038  1.0866 -0.3057 -1.1071
29807SOL    HW296662   9.124   5.001   9.171 -1.0551  1.0026  0.1864
29808SOL     OW96663  11.342   0.266   8.351 -0.7884 -0.0642 -0.3106
29808SOL    HW196664  11.297   0.251   8.434  0.1747  0.7919  0.3949
29808SOL    HW296665  11.431   0.233   8.365 -0.5918  0.1621 -0.9772
29809SOL     OW96666  10.153   2.448   1.834 -0.2335 -0.0952 -0.5191
29809SOL    HW196667  10.160   2.353   1.820  0.8936 -0.1191  0.0798
29809SOL    HW296668  10.113   2.481   1.754  0.7253 -0.9045 -1.3676
29810SOL     OW96669   4.659   4.549  11.051 -0.4048 -0.1641  0.5087
29810SOL    HW196670   4.614   4.507  10.978 -0.7307  0.5141  0.3156
29810SOL    HW296671   4.720   4.610  11.009 -0.2891 -0.0833  0.7954
29811SOL     OW96672   2.550   9.739  10.779  0.5622 -0.2429 -0.1007
29811SOL    HW196673   2.620   9.702  10.833  0.0793 -1.1065 -0.0392
29811SOL    HW296674   2.528   9.668  10.717 -0.0284  0.1319 -0.3289
29812SOL     OW96675  10.450  12.594  12.041  0.3435  0.3663  0.3854
29812SOL    HW196676  10.472  12.603  11.949 -0.4456  1.1025  0.2574
29812SOL    HW296677  10.531  12.615  12.087  0.6648  0.2818 -0.1312
29813SOL     OW96678  10.472   8.420  10.412  0.4787  0.6972  0.4955
29813SOL    HW196679  10.395   8.474  10.394 -0.8390 -0.9776  0.8046
29813SOL    HW296680  10.523   8.423  10.331 -0.1360  1.4889  0.1225
29814SOL     OW96681   8.595   8.978   0.957  0.1497  0.0918 -0.3695
29814SOL    HW196682   8.649   9.055   0.936  0.7800  0.3530  1.9662
29814SOL    HW296683   8.509   8.999   0.921  1.2545  0.1159 -3.2788
29815SOL     OW96684  11.058   6.209   9.126 -0.3824 -0.3361  0.1198
29815SOL    HW196685  11.030   6.129   9.081 -0.1508 -0.6001  0.4382
29815SOL    HW296686  11.130   6.181   9.181 -0.7873 -0.0546  0.8035
29816SOL     OW96687   1.663   6.575   4.558 -0.2867 -0.5511 -0.0865
29816SOL    HW196688   1.595   6.606   4.619 -0.8979 -1.2570 -0.3927
29816SOL    HW296689   1.740   6.628   4.580 -1.3497  1.3836 -0.7752
29817SOL     OW96690   9.976  11.861   1.066 -0.1291 -0.1246  0.2403
29817SOL    HW196691  10.020  11.891   1.145  0.3972  1.8571 -0.7430
29817SOL    HW296692   9.954  11.769   1.084  1.9757 -0.4069  1.8078
29818SOL     OW96693   5.356  11.755  11.499  0.4397 -0.0117  0.0785
29818SOL    HW196694   5.440  11.791  11.529  0.3790 -0.5585  0.9361
29818SOL    HW296695   5.304  11.832  11.474  0.5689  0.4469  1.1993
29819SOL     OW96696   6.172   3.706   7.283 -0.4631  0.0981 -0.7981
29819SOL    HW196697   6.244   3.769   7.272 -1.6462  1.3665 -1.7613
29819SOL    HW296698   6.163   3.696   7.378  1.3937 -0.6329 -0.6590
29820SOL     OW96699   7.515  11.217  10.773  0.0010  0.0072  0.0207
29820SOL    HW196700   7.502  11.182  10.685  0.5248 -0.5319  0.1538
29820SOL    HW296701   7.432  11.198  10.818 -0.0897 -0.1589 -0.2119
29821SOL     OW96702  12.135   7.302   5.338  0.3705 -0.3048 -0.4330
29821SOL    HW196703  12.157   7.396   5.336 -1.5697  0.2437  0.9439
29821SOL    HW296704  12.189   7.263   5.270  1.4131  1.7824 -0.8749
29822SOL     OW96705   5.394   2.266   7.983 -0.2559 -0.1694 -0.0384
29822SOL    HW196706   5.399   2.318   7.903 -0.0608 -0.3756 -0.1611
29822SOL    HW296707   5.316   2.210   7.971  0.6076 -1.2644 -0.7338
29823SOL     OW96708   5.167  10.450   1.438 -0.1190  0.1738 -0.4962
29823SOL    HW196709   5.110  10.399   1.495  0.7264  0.7329  0.9000
29823SOL    HW296710   5.110  10.518   1.401 -0.5877  0.0547  0.0083
29824SOL     OW96711   4.270   7.895   1.944 -0.4916 -0.5211 -0.5791
29824SOL    HW196712   4.284   7.956   1.873  0.7309 -0.1766 -0.0656
29824SOL    HW296713   4.244   7.950   2.018  2.2389 -0.3473  0.3605
29825SOL     OW96714   4.394   5.937   1.703 -0.1495  0.4914 -0.0952
29825SOL    HW196715   4.369   5.995   1.775  1.0792 -1.8460  2.3719
29825SOL    HW296716   4.371   5.849   1.733  2.1356 -0.7661 -1.6884
29826SOL     OW96717   4.942  11.577   5.434 -0.2649 -0.0397  0.1185
29826SOL    HW196718   5.024  11.598   5.479 -0.8052  0.7264  0.7570
29826SOL    HW296719   4.874  11.591   5.499 -0.9136 -0.6950 -0.4019
29827SOL     OW96720   6.893   9.129  11.564  0.2443  0.5722 -0.7429
29827SOL    HW196721   6.851   9.071  11.627  0.6980  0.3906 -0.6022
29827SOL    HW296722   6.952   9.183  11.617 -1.3186  2.2688 -0.6401
29828SOL     OW96723   3.013   6.055  12.335 -0.4806  0.1603 -0.2284
29828SOL    HW196724   2.948   6.124  12.348 -1.8680 -1.2427  0.5920
29828SOL    HW296725   2.992   5.990  12.401  1.7862 -0.3539  0.0491
29829SOL     OW96726   5.148  11.791   1.350 -0.3615  0.1596 -0.0516
29829SOL    HW196727   5.172  11.752   1.435  0.5426  0.8476  0.0270
29829SOL    HW296728   5.230  11.828   1.317 -0.5920 -0.5819 -1.4965
29830SOL     OW96729   7.445   5.209   6.440  0.8022 -0.6217  0.1110
29830SOL    HW196730   7.388   5.172   6.373  0.0971 -1.2082  1.0293
29830SOL    HW296731   7.526   5.158   6.434  0.4649 -1.1722  0.2107
29831SOL     OW96732   5.049   4.160   4.010  0.6925 -0.6839 -0.4535
29831SOL    HW196733   5.067   4.252   3.990 -0.9905 -0.9341 -3.8401
29831SOL    HW296734   5.007   4.161   4.096  0.4345  1.7200 -0.5472
29832SOL     OW96735  11.073  12.076  11.383  0.0476  0.4960  0.1478
29832SOL    HW196736  11.087  12.157  11.433  1.1988  0.3224  0.1339
29832SOL    HW296737  11.108  12.007  11.439  1.5836  0.3233 -0.9574
29833SOL     OW96738  11.075  11.187   8.179 -0.0186  0.0119 -0.1910
29833SOL    HW196739  11.117  11.240   8.247  1.0044  0.3397 -1.0542
29833SOL    HW296740  11.002  11.241   8.149  0.1712  0.3302 -0.0872
29834SOL     OW96741   8.534   1.202   1.169  0.6430  0.3998  0.4760
29834SOL    HW196742   8.515   1.292   1.144 -0.3439  0.7219  2.2071
29834SOL    HW296743   8.483   1.149   1.108 -0.0937  1.0652  0.4991
29835SOL     OW96744   2.158  11.817  11.085 -0.0830 -0.1277  0.1401
29835SOL    HW196745   2.238  11.799  11.135  0.4227 -0.2837 -0.7073
29835SOL    HW296746   2.087  11.794  11.145  0.5142 -0.8392  0.5981
29836SOL     OW96747   7.472   5.066  11.804 -0.0908 -1.1506  0.0067
29836SOL    HW196748   7.479   4.980  11.845  0.9419 -1.6812 -1.2229
29836SOL    HW296749   7.546   5.115  11.840  1.4909 -1.9688 -1.9163
29837SOL     OW96750  11.701  10.670  12.324 -0.0496 -0.5497  0.1875
29837SOL    HW196751  11.761  10.718  12.381  2.7980 -0.6841 -2.4504
29837SOL    HW296752  11.707  10.714  12.239 -0.7108 -2.8822 -1.1811
29838SOL     OW96753   6.357   0.748   9.458  0.6497  0.1973  0.0386
29838SOL    HW196754   6.366   0.826   9.513  3.1327  1.0432 -1.3955
29838SOL    HW296755   6.295   0.692   9.505  0.6424  1.9859  2.3258
29839SOL     OW96756  10.219   0.897   5.379  0.2946  0.3713 -0.3553
29839SOL    HW196757  10.131   0.864   5.401  0.8781 -1.6971 -0.9076
29839SOL    HW296758  10.241   0.853   5.297  1.3854  1.8104 -0.8692
29840SOL     OW96759  10.806   3.216  11.501  0.0756 -0.2211  0.6313
29840SOL    HW196760  10.847   3.230  11.415  0.4891 -1.1930  0.6547
29840SOL    HW296761  10.880   3.212  11.562  0.0441 -2.5287  0.6053
29841SOL     OW96762   7.570   9.438   2.738 -0.0584 -0.0754 -0.0484
29841SOL    HW196763   7.621   9.387   2.800 -1.4539 -1.3489  0.1110
29841SOL    HW296764   7.538   9.513   2.789 -1.1214 -1.0689  0.7765
29842SOL     OW96765   2.509  11.509   1.290  0.0818  1.0859  0.1722
29842SOL    HW196766   2.551  11.424   1.304 -0.4191  0.7777 -0.1144
29842SOL    HW296767   2.557  11.570   1.345 -0.1333  0.4397  1.0938
29843SOL     OW96768   5.927   8.308   2.645 -0.0291 -0.1254 -0.3362
29843SOL    HW196769   5.943   8.402   2.649  1.1326 -0.2936 -0.4882
29843SOL    HW296770   5.924   8.281   2.737  1.0938 -0.1397 -0.2819
29844SOL     OW96771  10.119   5.591   6.893  0.3753  0.2885 -0.0085
29844SOL    HW196772  10.200   5.547   6.920  0.9088  1.4948  0.3948
29844SOL    HW296773  10.069   5.601   6.975 -0.4260 -0.8930 -0.3255
29845SOL     OW96774   9.798   4.769   1.287  0.2999  0.4100  0.8006
29845SOL    HW196775   9.892   4.771   1.267  0.0318 -0.3992 -0.6883
29845SOL    HW296776   9.761   4.843   1.239 -0.0959 -0.4951 -0.3382
29846SOL     OW96777   0.847   0.197   9.261 -0.1797 -0.2056 -0.1089
29846SOL    HW196778   0.846   0.286   9.226  1.5207 -0.8649 -2.0774
29846SOL    HW296779   0.919   0.197   9.325  0.2557 -0.2902 -0.5878
29847SOL     OW96780   7.473  12.230   3.625 -0.1974  0.7849  0.1481
29847SOL    HW196781   7.552  12.210   3.676 -0.0664 -1.1628 -0.7265
29847SOL    HW296782   7.498  12.303   3.569  0.7364  0.6742  0.4114
29848SOL     OW96783   3.876   3.177   9.694 -0.2230 -0.2495 -0.0501
29848SOL    HW196784   3.903   3.191   9.785 -1.2475  2.7576 -0.0858
29848SOL    HW296785   3.794   3.129   9.700  0.0696 -0.6765  0.5828
29849SOL     OW96786   1.093   2.090   4.196 -0.8916  0.2285  0.0837
29849SOL    HW196787   1.059   2.145   4.267 -0.5282  1.3478 -0.5680
29849SOL    HW296788   1.014   2.055   4.153 -1.1151 -0.2390  0.8613
29850SOL     OW96789   0.565   0.667   7.415 -0.4083 -0.0797  0.0858
29850SOL    HW196790   0.661   0.667   7.422 -0.1606 -2.0623 -1.9607
29850SOL    HW296791   0.543   0.753   7.379  0.8417 -0.3109 -1.3145
29851SOL     OW96792   6.275  11.661   7.848 -0.0584 -0.1999 -0.7270
29851SOL    HW196793   6.266  11.675   7.753  1.9922  3.3214 -0.5691
29851SOL    HW296794   6.364  11.629   7.859  0.4762  1.4613  0.0816
29852SOL     OW96795  12.128   3.007  10.002  0.1927 -0.6079 -0.3531
29852SOL    HW196796  12.162   2.923  10.035  2.4198  0.3810  0.0354
29852SOL    HW296797  12.156   3.010   9.911  1.7504  0.4267  0.1014
29853SOL     OW96798   4.897   3.433   0.248  0.0215 -0.4580  0.0043
29853SOL    HW196799   4.924   3.387   0.168 -1.8441 -0.7983 -0.4838
29853SOL    HW296800   4.843   3.369   0.294 -2.9033  1.2579 -0.8380
29854SOL     OW96801   0.145   9.353   9.213  0.3104 -0.1359  0.4440
29854SOL    HW196802   0.103   9.291   9.272 -0.6266  1.5828  1.6712
29854SOL    HW296803   0.154   9.433   9.264  0.9819  0.9263 -1.2441
29855SOL     OW96804  12.221   1.316   5.636  0.5711 -0.2550 -0.1277
29855SOL    HW196805  12.239   1.230   5.673  1.3039 -0.0923 -0.0970
29855SOL    HW296806  12.203   1.371   5.712  4.1131  0.5840  0.2604
29856SOL     OW96807   8.326   3.140  11.535 -0.4703  0.3432  0.1254
29856SOL    HW196808   8.293   3.143  11.625  0.4510  1.2845  0.4455
29856SOL    HW296809   8.263   3.192  11.484 -0.6541  0.3254  0.3335
29857SOL     OW96810   9.296   5.694   2.395 -0.2392 -0.1228 -0.2109
29857SOL    HW196811   9.333   5.607   2.384 -0.8422 -0.8134  2.5063
29857SOL    HW296812   9.247   5.710   2.314  0.0411 -2.2143 -0.8386
29858SOL     OW96813   3.560   1.851   6.464  0.1669 -0.6622  0.7184
29858SOL    HW196814   3.584   1.758   6.469 -0.2300 -0.6981  2.7113
29858SOL    HW296815   3.640   1.897   6.489  0.7995 -0.3488 -1.6571
29859SOL     OW96816   5.904   9.638  12.497 -0.2021  0.3241 -0.0244
29859SOL    HW196817   5.816   9.601  12.506 -0.3722  0.8723  0.6611
29859SOL    HW296818   5.890   9.731  12.477  0.1769  0.9137  2.1814
29860SOL     OW96819   4.270   9.883   2.298 -0.4218 -0.2384 -0.1445
29860SOL    HW196820   4.191   9.914   2.253 -0.3354  0.6301  0.2829
29860SOL    HW296821   4.257   9.908   2.389  0.7394  0.7453 -0.2209
29861SOL     OW96822   0.536  10.125   0.426  0.5613  0.2715  0.2153
29861SOL    HW196823   0.514  10.034   0.403  1.1240 -0.1763  1.3484
29861SOL    HW296824   0.620  10.118   0.473  1.4633  1.5646 -1.1201
29862SOL     OW96825   3.065   8.123   0.187 -0.2338  0.3494 -0.1563
29862SOL    HW196826   3.066   8.208   0.229 -0.9189  0.7521 -0.9167
29862SOL    HW296827   3.157   8.106   0.164  0.1001  0.2651  1.1570
29863SOL     OW96828   7.674   2.468   2.453  0.2965 -0.5197  0.5205
29863SOL    HW196829   7.674   2.373   2.466  0.4526 -0.6237 -0.1755
29863SOL    HW296830   7.764   2.488   2.430  0.1730 -0.2592  0.2677
29864SOL     OW96831   4.591   1.869  11.928  0.0911  0.0951  0.3893
29864SOL    HW196832   4.630   1.902  12.009  0.9237  0.2472 -0.0750
29864SOL    HW296833   4.661   1.823  11.883 -0.4509 -0.2730 -0.1059
29865SOL     OW96834   5.755  11.687   1.091 -0.7481 -0.2312  0.3946
29865SOL    HW196835   5.760  11.604   1.043  0.1775  0.2752 -0.4091
29865SOL    HW296836   5.775  11.663   1.181  0.6217 -0.7435 -0.0146
29866SOL     OW96837   5.825  11.434  11.975 -0.4554 -0.2467 -0.2581
29866SOL    HW196838   5.842  11.528  11.968  1.6554 -0.5335  0.3321
29866SOL    HW296839   5.793  11.422  12.065 -0.7554 -0.0993 -0.3436
29867SOL     OW96840  10.720   3.423   3.395 -0.6684  0.2836 -0.2946
29867SOL    HW196841  10.714   3.407   3.489  2.0542  1.4078  0.1593
29867SOL    HW296842  10.655   3.491   3.378 -0.3389  0.9695  1.0461
29868SOL     OW96843   5.134   5.597   3.137 -0.0743 -0.1927 -0.2690
29868SOL    HW196844   5.149   5.527   3.200  1.1325  1.8336  1.8613
29868SOL    HW296845   5.178   5.567   3.057  1.7803 -1.2230  1.0486
29869SOL     OW96846   5.854   7.971  10.967  0.3864 -0.1803  0.0180
29869SOL    HW196847   5.820   7.940  11.051 -1.3683  0.9706 -0.2303
29869SOL    HW296848   5.870   7.890  10.918 -2.2476 -0.8402  0.0859
29870SOL     OW96849   5.952  10.346   6.298  0.5329  0.0174 -0.0852
29870SOL    HW196850   5.957  10.435   6.264 -0.3483 -0.3294 -1.1778
29870SOL    HW296851   5.859  10.334   6.318  0.7836 -0.3570  0.9189
29871SOL     OW96852   1.476   5.385  11.355 -0.7954  0.1736 -0.1476
29871SOL    HW196853   1.486   5.300  11.399  1.8408  0.8566  0.7377
29871SOL    HW296854   1.437   5.363  11.271 -0.3873 -1.9024  0.1422
29872SOL     OW96855   9.715   0.401   5.269 -0.0494  0.8912 -0.3170
29872SOL    HW196856   9.727   0.381   5.362  0.0475  0.0620 -0.5066
29872SOL    HW296857   9.655   0.476   5.268  0.1867  1.0945  0.4216
29873SOL     OW96858   2.055   9.452   7.735  0.1191  0.0885  0.6172
29873SOL    HW196859   1.961   9.465   7.746  0.4433  2.1114  1.5473
29873SOL    HW296860   2.064   9.361   7.708 -2.0356 -0.4358  1.4621
29874SOL     OW96861   7.635   4.881   7.136 -0.6572 -0.2218  0.0738
29874SOL    HW196862   7.681   4.828   7.070  0.8118 -0.9467  1.5926
29874SOL    HW296863   7.686   4.868   7.216 -1.5008  1.8409  1.0069
29875SOL     OW96864   2.165  11.171   8.701  0.1194 -0.0486 -0.7446
29875SOL    HW196865   2.083  11.168   8.749  0.5155 -0.1102 -0.0621
29875SOL    HW296866   2.228  11.129   8.758  0.7489  0.4956 -1.0211
29876SOL     OW96867   9.495   7.026   3.875 -0.1537  0.5942  0.6404
29876SOL    HW196868   9.470   7.047   3.965 -0.2574  0.1327  0.7196
29876SOL    HW296869   9.571   7.081   3.858 -1.5569  2.4979  0.1827
29877SOL     OW96870   5.648  11.137   6.814  0.4537 -0.2705  0.0900
29877SOL    HW196871   5.629  11.204   6.749  1.7933  0.9429  0.9026
29877SOL    HW296872   5.727  11.094   6.782  1.3455  0.5887  1.0480
29878SOL     OW96873  10.566  11.508   8.080 -0.4250  0.5358 -0.2984
29878SOL    HW196874  10.496  11.457   8.121 -1.3009  1.8987 -0.0164
29878SOL    HW296875  10.634  11.512   8.146 -1.8500  2.7633  1.1695
29879SOL     OW96876   5.500   6.758   3.497  0.4324 -0.4128 -0.0472
29879SOL    HW196877   5.562   6.710   3.551 -0.6772 -1.2113  0.5524
29879SOL    HW296878   5.467   6.693   3.434  0.6346  0.1501 -0.7525
29880SOL     OW96879  11.743   5.401  11.671 -0.4509  0.0604  0.1220
29880SOL    HW196880  11.770   5.447  11.592  0.5762  0.5448  0.7334
29880SOL    HW296881  11.717   5.314  11.641 -0.0453  0.2279 -0.7422
29881SOL     OW96882   5.641   5.408   7.749 -0.1298 -0.5667  0.2342
29881SOL    HW196883   5.669   5.400   7.658  2.4991  0.4337  0.8525
29881SOL    HW296884   5.656   5.500   7.771  0.1381 -0.9708  1.9096
29882SOL     OW96885   1.849   8.110   5.690 -0.3172 -0.2104  0.3638
29882SOL    HW196886   1.844   8.152   5.604  2.0114  1.5499  1.0090
29882SOL    HW296887   1.774   8.050   5.691  0.4651 -1.5457 -3.5077
29883SOL     OW96888   1.339   8.781  11.172 -0.1410  0.4142 -0.4524
29883SOL    HW196889   1.358   8.862  11.218  1.4010 -0.8875  1.3757
29883SOL    HW296890   1.273   8.737  11.226  1.1858 -0.8279  0.2305
29884SOL     OW96891  11.294  10.343   3.844  0.1909  0.0568 -0.3634
29884SOL    HW196892  11.259  10.386   3.922  2.6150 -1.0790  1.4630
29884SOL    HW296893  11.389  10.353   3.852  0.6015 -1.9383 -2.0624
29885SOL     OW96894  12.343   4.136   7.725  0.2361  0.4046 -0.4910
29885SOL    HW196895  12.387   4.209   7.768  2.1341 -1.2286  0.5104
29885SOL    HW296896  12.385   4.128   7.640 -2.3203  2.5189 -2.1204
29886SOL     OW96897   9.775   4.802   5.945  0.4389 -0.6395  0.1294
29886SOL    HW196898   9.844   4.826   5.883  0.5877 -1.6453 -0.1231
29886SOL    HW296899   9.734   4.725   5.906  0.3135 -1.0920  1.1104
29887SOL     OW96900  11.630   9.530  11.160  0.3405 -0.1767  0.0663
29887SOL    HW196901  11.574   9.535  11.083  0.9964 -2.7717 -0.6843
29887SOL    HW296902  11.637   9.621  11.191 -1.5162  0.6609 -1.7528
29888SOL     OW96903  11.622  11.940   6.325  0.1267 -0.1981  0.1327
29888SOL    HW196904  11.622  12.022   6.277  1.0492 -0.2405  0.0466
29888SOL    HW296905  11.677  11.881   6.273 -0.4153 -0.8302  0.2633
29889SOL     OW96906  11.486   3.788   8.722 -0.0856  0.4190 -0.9769
29889SOL    HW196907  11.409   3.840   8.697  0.2148  0.4729 -1.8342
29889SOL    HW296908  11.494   3.800   8.817 -3.1362 -2.2864 -0.2125
29890SOL     OW96909  11.344   6.382   3.667  0.3313 -0.0823 -0.2124
29890SOL    HW196910  11.399   6.447   3.623  0.7188  0.3720  0.9037
29890SOL    HW296911  11.294   6.341   3.597  1.5791 -0.0073 -1.1802
29891SOL     OW96912  10.505   9.080  11.590 -0.3084  0.2520  0.2830
29891SOL    HW196913  10.536   8.992  11.567  0.2636  0.4386  0.3427
29891SOL    HW296914  10.583   9.126  11.621 -0.9352  0.1986  2.0581
29892SOL     OW96915   9.796   9.838   5.223  0.1496  0.1610 -0.2534
29892SOL    HW196916   9.729   9.771   5.210 -1.8586  1.9764  0.1635
29892SOL    HW296917   9.748   9.913   5.258  2.0951  2.2394 -1.8030
29893SOL     OW96918  10.250   9.861   0.982  0.7358  0.3963 -0.5776
29893SOL    HW196919  10.185   9.930   0.993  1.1718  0.8744 -0.9483
29893SOL    HW296920  10.312   9.875   1.054 -1.1771 -1.9574  1.7349
29894SOL     OW96921   8.475   2.156   8.036  0.0947 -0.2293 -0.1304
29894SOL    HW196922   8.454   2.141   7.944 -1.4671 -0.3443  0.2184
29894SOL    HW296923   8.478   2.069   8.075 -0.5549 -0.1130  0.1883
29895SOL     OW96924   9.481   1.934   6.690  0.3561  0.4644  0.3685
29895SOL    HW196925   9.420   1.980   6.747  0.5223  0.8054  0.2698
29895SOL    HW296926   9.568   1.960   6.720  0.4524  0.1117  0.4003
29896SOL     OW96927   1.354   3.217  10.445  0.0634  0.0616  0.0135
29896SOL    HW196928   1.330   3.309  10.450 -0.9736 -0.0593 -1.6446
29896SOL    HW296929   1.399   3.198  10.527  0.1462  1.9915  0.4448
29897SOL     OW96930   5.096   4.835  11.204  0.2003  0.9572  0.1817
29897SOL    HW196931   5.070   4.774  11.274  1.2886  0.5745  0.2815
29897SOL    HW296932   5.016   4.880  11.180 -0.7064 -0.6940 -0.0609
29898SOL     OW96933   2.745   1.754   1.546  0.0781 -0.3114 -0.2815
29898SOL    HW196934   2.787   1.669   1.532 -0.0775 -0.5265  0.5174
29898SOL    HW296935   2.779   1.809   1.476 -2.8920 -2.0914 -3.4246
29899SOL     OW96936   9.433  10.599   0.871 -0.3848 -0.0478 -0.3029
29899SOL    HW196937   9.522  10.634   0.865 -0.0854 -0.6376  0.5252
29899SOL    HW296938   9.393  10.622   0.787  0.2399  1.0432 -0.3298
29900SOL     OW96939   7.349   9.819   6.222  0.4516  0.0719  0.1249
29900SOL    HW196940   7.385   9.846   6.307  2.8164 -0.3994 -0.6508
29900SOL    HW296941   7.313   9.732   6.238 -0.7169  0.6732  0.9949
29901SOL     OW96942   2.381   7.038  12.147 -0.7495 -0.5249 -0.2063
29901SOL    HW196943   2.401   6.947  12.125  0.2240 -0.6486  1.0674
29901SOL    HW296944   2.303   7.059  12.094 -0.1449 -1.6175 -1.6097
29902SOL     OW96945   6.642   7.376   5.531  0.0942 -0.5835 -0.6354
29902SOL    HW196946   6.602   7.462   5.542 -0.2543 -0.7081 -0.9059
29902SOL    HW296947   6.713   7.390   5.469  0.5217 -0.3472 -0.0969
29903SOL     OW96948  12.632   5.875   3.153 -0.1844 -0.2272 -0.3835
29903SOL    HW196949  12.724   5.852   3.158 -0.0138  0.1474 -1.4722
29903SOL    HW296950  12.620   5.906   3.063 -0.7039  2.5707  0.5464
29904SOL     OW96951   7.149  12.073   8.696 -0.2161 -0.2793  0.5953
29904SOL    HW196952   7.099  12.009   8.746 -0.5362  0.0149  0.6542
29904SOL    HW296953   7.127  12.157   8.735 -0.4464 -0.0499 -0.0130
29905SOL     OW96954   1.257   6.797   5.636 -0.5168  0.5121 -0.8213
29905SOL    HW196955   1.173   6.831   5.666 -0.3885  0.5204 -0.4695
29905SOL    HW296956   1.253   6.805   5.541 -1.5408 -0.9101 -0.9401
29906SOL     OW96957   8.373   8.566  12.193  0.7873  0.3844  0.1310
29906SOL    HW196958   8.382   8.477  12.158  3.2819  0.6485 -0.1229
29906SOL    HW296959   8.363   8.554  12.287 -2.1416 -0.2051 -0.1605
29907SOL     OW96960  10.693  10.840   6.432  0.2312 -0.4187 -0.6859
29907SOL    HW196961  10.673  10.860   6.524  1.9609 -0.3507 -0.2786
29907SOL    HW296962  10.764  10.777   6.437 -1.6456 -2.8092 -1.9931
29908SOL     OW96963  11.139   5.309   8.442  0.1987  0.2725  0.0530
29908SOL    HW196964  11.227   5.271   8.444  0.4891  0.9351  0.1217
29908SOL    HW296965  11.112   5.302   8.350  0.4407  0.3209 -0.0232
29909SOL     OW96966   4.068   5.119   2.091 -0.6735 -0.2102 -0.4912
29909SOL    HW196967   4.025   5.158   2.167 -1.4978 -0.3164 -0.8932
29909SOL    HW296968   3.998   5.073   2.045  0.0608 -1.1748 -0.6596
29910SOL     OW96969   5.159   8.908   9.605  1.0541  0.7008  0.3220
29910SOL    HW196970   5.235   8.965   9.594  0.3974  1.7520  1.0442
29910SOL    HW296971   5.137   8.914   9.698 -0.5146  1.2379 -0.0448
29911SOL     OW96972   4.895   5.221   5.576 -0.3339  0.2522  0.6045
29911SOL    HW196973   4.834   5.183   5.639 -1.0572 -0.1809 -0.3238
29911SOL    HW296974   4.971   5.162   5.577  0.0537  0.7426  1.6958
29912SOL     OW96975   7.857   8.370   3.077  0.9497 -0.5944  0.2706
29912SOL    HW196976   7.881   8.463   3.076 -0.3259 -0.2338  0.8478
29912SOL    HW296977   7.915   8.329   3.013  2.3663  0.3798  0.8757
29913SOL     OW96978   2.859   6.428   0.732  0.2542 -0.4380  0.8427
29913SOL    HW196979   2.797   6.423   0.805  0.5633 -0.0597  1.1341
29913SOL    HW296980   2.851   6.517   0.700 -0.8372 -0.9659 -0.4415
29914SOL     OW96981   7.774   9.652   9.763 -0.1479  0.1929 -0.2099
29914SOL    HW196982   7.769   9.687   9.674  4.5859  1.4483 -0.2064
29914SOL    HW296983   7.812   9.565   9.754  1.6977  0.8631  0.5484
29915SOL     OW96984  12.086   8.741   9.950  0.1467 -0.2439 -0.5171
29915SOL    HW196985  12.100   8.653   9.985  2.8895  0.5363  0.5713
29915SOL    HW296986  12.147   8.748   9.877 -1.3624  0.1897 -1.7984
29916SOL     OW96987   3.559   9.952   4.506  0.5293  0.5553  0.0748
29916SOL    HW196988   3.528   9.976   4.593  0.2375  0.5028 -0.0098
29916SOL    HW296989   3.480   9.920   4.461  0.6340  0.7783 -0.2750
29917SOL     OW96990   2.143   9.857   0.554  0.1778  0.0859 -0.2787
29917SOL    HW196991   2.190   9.914   0.493 -0.0010  0.5775  0.0396
29917SOL    HW296992   2.073   9.911   0.589 -0.4089 -0.5290 -0.4704
29918SOL     OW96993   8.451   6.437   1.884 -0.5809  0.0002  0.3632
29918SOL    HW196994   8.377   6.431   1.945 -1.2673 -1.5554 -0.5714
29918SOL    HW296995   8.519   6.482   1.934 -1.7035  0.3058  1.6912
29919SOL     OW96996   0.391   3.817   7.810 -0.0301  0.0087 -0.0996
29919SOL    HW196997   0.316   3.855   7.856 -0.6840 -0.7793 -0.4804
29919SOL    HW296998   0.432   3.759   7.874  1.9839  2.5338  1.0442
29920SOL     OW96999   5.820   4.084   6.592  0.2573  0.4233 -0.5464
29920SOL    HW197000   5.882   4.016   6.616  1.5764  1.9694  0.6645
29920SOL    HW297001   5.872   4.146   6.540 -0.3202  1.6143  0.2555
29921SOL     OW97002   3.358   6.616   4.059  0.1683 -0.5497  0.1616
29921SOL    HW197003   3.264   6.634   4.071  0.3674 -0.6775  2.3407
29921SOL    HW297004   3.361   6.544   3.996 -1.1995 -0.5763  0.1003
29922SOL     OW97005  11.706  12.279   7.494  0.1616  0.2907 -0.7010
29922SOL    HW197006  11.618  12.258   7.463 -0.7181 -0.2399  1.9282
29922SOL    HW297007  11.692  12.330   7.573  2.1998 -0.4746  0.2172
29923SOL     OW97008   3.978  10.809  10.716  0.4490 -0.2769  0.1620
29923SOL    HW197009   3.952  10.831  10.627 -0.6277 -0.3079  0.4640
29923SOL    HW297010   4.059  10.758  10.704 -1.2902 -3.0168 -1.0446
29924SOL     OW97011   8.065   1.520   0.685  0.0313 -0.4896  0.2760
29924SOL    HW197012   8.097   1.527   0.775 -0.9953 -3.6213  1.0056
29924SOL    HW297013   8.105   1.439   0.652  1.5376  1.2977 -2.6784
29925SOL     OW97014   1.885  11.519  11.580 -0.0780  0.5314 -0.7610
29925SOL    HW197015   1.835  11.492  11.657  0.7591  0.3682 -0.2668
29925SOL    HW297016   1.838  11.596  11.547 -0.8496  0.1771 -0.5119
29926SOL     OW97017   7.377  11.630   2.837 -0.5144 -0.1868 -0.5847
29926SOL    HW197018   7.449  11.575   2.805 -0.4366 -0.7685  0.5255
29926SOL    HW297019   7.361  11.692   2.766  0.5956 -0.5116 -1.1507
29927SOL     OW97020   9.302   4.219   6.941  0.4074 -0.7432 -0.0089
29927SOL    HW197021   9.348   4.213   6.857  2.8378  1.0358  1.0626
29927SOL    HW297022   9.351   4.160   6.999 -0.3116 -0.8037  0.5481
29928SOL     OW97023   8.403   8.230   1.273 -0.0326 -0.0566 -0.0652
29928SOL    HW197024   8.422   8.315   1.313 -0.6817 -0.2753  0.7342
29928SOL    HW297025   8.313   8.237   1.241  0.2063 -0.1570 -0.7833
29929SOL     OW97026   7.579   2.137   9.619  0.3340  0.3472 -0.1626
29929SOL    HW197027   7.526   2.162   9.543  1.5160  0.3331 -1.0203
29929SOL    HW297028   7.648   2.082   9.583  1.6056  1.2986  0.7541
29930SOL     OW97029   4.877  10.915   1.392  0.6801  0.4694 -0.0780
29930SOL    HW197030   4.851  10.857   1.320  1.4322 -2.7085  1.9988
29930SOL    HW297031   4.962  10.883   1.420 -0.3539  0.2859  3.3723
29931SOL     OW97032   0.303  11.933   5.681 -0.9437  0.0932 -0.0676
29931SOL    HW197033   0.321  12.027   5.678 -0.0093 -0.0782 -0.4299
29931SOL    HW297034   0.372  11.898   5.738 -1.2029 -0.3941 -0.0507
29932SOL     OW97035   9.248   6.114  11.663 -0.0046  0.3900 -0.0084
29932SOL    HW197036   9.233   6.203  11.696  1.8141  1.3433 -1.5148
29932SOL    HW297037   9.333   6.120  11.619  0.1315 -2.1115 -0.1966
29933SOL     OW97038   3.278   7.053  10.813  0.0326 -0.7954  0.4181
29933SOL    HW197039   3.220   7.106  10.868 -0.0987 -1.0413  0.5144
29933SOL    HW297040   3.363   7.098  10.819 -0.2343 -0.2282 -0.0226
29934SOL     OW97041   8.085   0.498   4.278  0.0223  0.0944  0.5660
29934SOL    HW197042   8.039   0.433   4.226 -0.5476  0.9103  0.0333
29934SOL    HW297043   8.050   0.582   4.249  1.8113  0.7561  0.1575
29935SOL     OW97044   5.993   4.182   3.511 -0.1449  0.1573 -0.0494
29935SOL    HW197045   5.941   4.139   3.442 -0.7424 -2.3560  1.8207
29935SOL    HW297046   6.003   4.272   3.480 -3.0808 -0.0083 -1.9180
29936SOL     OW97047   4.820   6.565   6.073  0.0999  0.5181 -0.2422
29936SOL    HW197048   4.890   6.524   6.125 -0.2239 -1.0588 -0.9947
29936SOL    HW297049   4.860   6.580   5.988 -0.0118  1.1071 -0.1922
29937SOL     OW97050   0.165   5.310   1.791  0.4289  0.2134  0.0620
29937SOL    HW197051   0.211   5.319   1.874  0.2778  0.0717  0.1597
29937SOL    HW297052   0.146   5.400   1.764  1.0633  0.2931 -0.1465
29938SOL     OW97053  10.045   2.987   7.393  0.4424  0.1866  0.2413
29938SOL    HW197054  10.040   3.041   7.314  2.3531 -2.6500 -2.0057
29938SOL    HW297055  10.139   2.977   7.410  0.1777 -2.1556  0.6967
29939SOL     OW97056   0.385   4.192   0.197 -0.0258  0.4131  0.1262
29939SOL    HW197057   0.292   4.178   0.215 -0.2361  0.2678 -0.9949
29939SOL    HW297058   0.424   4.212   0.283 -0.8708 -0.6887  0.7914
29940SOL     OW97059   3.548   2.094   3.274  0.0885  0.8129 -0.3820
29940SOL    HW197060   3.603   2.136   3.208 -1.0361  0.4838 -1.5615
29940SOL    HW297061   3.465   2.078   3.230  0.0858 -1.5990  0.3498
29941SOL     OW97062   6.432   2.699  10.806  0.5868  0.4590  0.2860
29941SOL    HW197063   6.379   2.749  10.743 -0.0506 -0.1055  0.3735
29941SOL    HW297064   6.462   2.764  10.869 -0.9939  0.5985  0.9197
29942SOL     OW97065   7.218   0.141   6.568  0.5374 -0.4815 -0.0915
29942SOL    HW197066   7.291   0.204   6.569 -0.1145  0.2855  0.0011
29942SOL    HW297067   7.145   0.190   6.531  0.5239 -1.7946 -1.9275
29943SOL     OW97068   9.704   7.201  11.700 -0.0375 -0.5043 -0.0332
29943SOL    HW197069   9.798   7.195  11.716 -0.1055 -0.8712  0.2551
29943SOL    HW297070   9.685   7.295  11.695  0.1961 -0.4148  0.7967
29944SOL     OW97071   8.415   3.033   5.906  0.0423 -0.4777 -0.1523
29944SOL    HW197072   8.466   3.101   5.951 -2.8497  1.2503  0.7611
29944SOL    HW297073   8.372   3.080   5.835  1.3719 -2.3675 -2.3454
29945SOL     OW97074  10.822   6.280   6.298 -0.4860  0.1999 -0.1166
29945SOL    HW197075  10.795   6.368   6.324 -0.2670 -0.0862  1.1403
29945SOL    HW297076  10.846   6.237   6.380 -0.1763 -0.8950 -0.7616
29946SOL     OW97077  11.863   7.229  12.497 -0.3581 -0.3233 -0.4025
29946SOL    HW197078  11.781   7.206  12.452 -0.7818  0.8280 -0.2562
29946SOL    HW297079  11.835   7.253  12.585  0.1502  0.0154 -0.3335
29947SOL     OW97080  11.509   4.417   1.971 -0.7088  0.1733  0.2169
29947SOL    HW197081  11.452   4.426   1.894 -0.4369  0.6705  0.0649
29947SOL    HW297082  11.504   4.503   2.014 -0.3731  0.0959  0.4127
29948SOL     OW97083   0.305  10.182   1.658 -0.0027 -0.7019 -0.3260
29948SOL    HW197084   0.214  10.164   1.682  0.4301 -0.2170  1.8998
29948SOL    HW297085   0.350  10.100   1.675  0.4939 -0.0646  1.7361
29949SOL     OW97086   3.397  11.547   1.743  0.2807  0.0156 -0.0181
29949SOL    HW197087   3.341  11.470   1.744 -0.2860  0.4286  0.3509
29949SOL    HW297088   3.478  11.518   1.785 -0.4698  0.0086  1.4731
29950SOL     OW97089   7.941   6.624   1.605  0.4349  0.0659 -0.0104
29950SOL    HW197090   8.026   6.637   1.562  0.1966  1.0249 -0.2153
29950SOL    HW297091   7.896   6.560   1.551  0.4311  0.7134 -0.7985
29951SOL     OW97092   7.119   1.934   0.110 -0.4790  0.0411 -0.1240
29951SOL    HW197093   7.182   1.872   0.074 -0.1916  0.6126 -0.6260
29951SOL    HW297094   7.076   1.887   0.181 -1.5817 -1.4009 -1.6469
29952SOL     OW97095   1.011   2.220   5.630 -0.0230 -0.4430 -0.3744
29952SOL    HW197096   0.973   2.132   5.631  2.1041 -1.5717 -3.2752
29952SOL    HW297097   0.945   2.274   5.587 -0.2460 -1.3325 -1.2106
29953SOL     OW97098   7.607   2.566   1.985  0.1301 -0.7251 -0.4063
29953SOL    HW197099   7.512   2.560   1.997  0.4061 -0.6167  2.8116
29953SOL    HW297100   7.620   2.654   1.948 -0.9518  0.3784  1.6283
29954SOL     OW97101   1.167   3.851   5.610  0.0864  0.0281 -0.5006
29954SOL    HW197102   1.096   3.855   5.546  0.6791  0.1316 -1.1715
29954SOL    HW297103   1.125   3.820   5.690 -0.8299  0.7142 -0.6975
29955SOL     OW97104   3.842   1.216  11.283 -0.4772  0.3001  0.0151
29955SOL    HW197105   3.900   1.176  11.349 -1.7356 -1.5327  0.0845
29955SOL    HW297106   3.894   1.218  11.203 -0.2662 -1.3433  0.0715
29956SOL     OW97107   2.979   2.680   0.521  0.0418  0.2171 -0.6412
29956SOL    HW197108   2.954   2.630   0.599  0.6069  0.7614 -0.1038
29956SOL    HW297109   2.922   2.647   0.452 -0.5868 -0.1461  0.0457
29957SOL     OW97110   4.998   8.578   1.661 -0.0299  0.2563 -0.3439
29957SOL    HW197111   4.937   8.644   1.628  0.3471  0.9513  0.3125
29957SOL    HW297112   4.980   8.500   1.609 -1.5836  0.3974 -0.0526
29958SOL     OW97113   3.468   2.174   7.446 -0.3690 -0.7250  0.4911
29958SOL    HW197114   3.510   2.232   7.383  0.7211 -0.3881  1.4705
29958SOL    HW297115   3.427   2.233   7.509 -0.8231 -1.0450  0.5010
29959SOL     OW97116  11.033   2.479   5.428  0.2003  0.0335  0.2526
29959SOL    HW197117  11.107   2.461   5.371 -0.7693  0.8424 -1.3330
29959SOL    HW297118  11.036   2.574   5.443 -1.5958  0.4438 -1.5134
29960SOL     OW97119   2.720   7.593  11.469  0.1364 -0.0190 -0.3871
29960SOL    HW197120   2.624   7.596  11.470  0.0175 -2.2234 -0.6529
29960SOL    HW297121   2.744   7.614  11.379 -0.3034 -2.2441 -1.0809
29961SOL     OW97122   5.430   3.236  10.443 -0.4673  0.3586  0.5379
29961SOL    HW197123   5.425   3.157  10.495 -0.4227  0.7456  1.1388
29961SOL    HW297124   5.471   3.209  10.361  0.1958 -0.0929  1.0131
29962SOL     OW97125  12.231   9.141   3.573  0.2468  0.0876 -0.1736
29962SOL    HW197126  12.169   9.073   3.546  1.1142 -0.5868 -0.5172
29962SOL    HW297127  12.317   9.101   3.562  0.7524  1.0002  0.3175
29963SOL     OW97128   0.969   3.903   2.840  0.3424  0.3482  0.5001
29963SOL    HW197129   0.924   3.819   2.835 -0.4746  0.8289 -0.3617
29963SOL    HW297130   1.062   3.879   2.850 -0.0918 -0.6553  3.0963
29964SOL     OW97131   3.128   2.789  11.416 -1.0228 -0.1998 -0.6963
29964SOL    HW197132   3.047   2.840  11.425 -1.2860 -0.4612 -1.4905
29964SOL    HW297133   3.146   2.757  11.505 -0.1212  2.3417  0.1389
29965SOL     OW97134   0.051   0.627   7.373 -0.1077 -0.1961 -0.2134
29965SOL    HW197135   0.076   0.623   7.465  1.6691  0.4407 -0.6316
29965SOL    HW297136   0.131   0.605   7.325 -0.6067  0.9207 -1.6352
29966SOL     OW97137   7.853   9.512   8.437 -0.3944  0.4073  0.1784
29966SOL    HW197138   7.941   9.476   8.425 -0.5478 -0.6083  1.7871
29966SOL    HW297139   7.838   9.566   8.360  1.9356  1.1858  0.1933
29967SOL     OW97140  11.303   0.178   7.937  0.4659 -0.3788  0.7080
29967SOL    HW197141  11.224   0.188   7.989  0.4950 -0.5231  0.7807
29967SOL    HW297142  11.327   0.086   7.948 -0.2695 -0.7560 -0.6069
29968SOL     OW97143  11.865  12.200  12.689 -0.0679  0.0955  0.7550
29968SOL    HW197144  11.784  12.223  12.643 -0.6425 -1.8771  0.6966
29968SOL    HW297145  11.835  12.160  12.770  0.8281 -0.9516  0.5863
29969SOL     OW97146   2.173   2.802  11.453 -0.0396 -0.4666 -0.3835
29969SOL    HW197147   2.257   2.771  11.419  0.9667  1.3990  0.2802
29969SOL    HW297148   2.177   2.783  11.546 -1.1290 -1.9399 -0.5963
29970SOL     OW97149   9.041   0.253   7.857 -0.5216  0.1502 -0.3345
29970SOL    HW197150   9.108   0.289   7.916  0.0352 -0.2596 -0.7037
29970SOL    HW297151   9.002   0.181   7.906 -0.0274 -0.2201 -0.4703
29971SOL     OW97152   4.496   8.898   7.476 -0.0392 -0.2403  0.9246
29971SOL    HW197153   4.491   8.950   7.396 -1.0460 -2.6236 -0.6796
29971SOL    HW297154   4.471   8.959   7.546 -1.2172  1.4079 -0.8303
29972SOL     OW97155   6.024   8.973  10.679  0.1636 -0.3238 -0.0699
29972SOL    HW197156   5.992   8.911  10.614  0.7204  0.7186 -1.3776
29972SOL    HW297157   6.107   9.004  10.644 -0.1890  1.3073  0.4345
29973SOL     OW97158  10.129  11.192   8.775  0.1998 -0.0551 -0.2232
29973SOL    HW197159  10.173  11.200   8.690  1.5301  0.3644  0.4670
29973SOL    HW297160  10.080  11.110   8.769  0.9307 -0.4454 -1.1145
29974SOL     OW97161   0.415   5.470   7.466  0.3474  0.1749 -0.1110
29974SOL    HW197162   0.470   5.492   7.391  1.9360  0.3860  1.0444
29974SOL    HW297163   0.349   5.539   7.467  0.2110  0.0884 -1.3856
29975SOL     OW97164   7.016   0.007   8.157  0.1373  0.1454  0.2171
29975SOL    HW197165   7.047   0.049   8.077 -0.9805  1.8179  0.6206
29975SOL    HW297166   6.968  -0.070   8.127 -0.4222  0.8536 -0.7461
29976SOL     OW97167   1.024   7.458   2.958  0.6667 -0.1231 -0.3001
29976SOL    HW197168   0.971   7.499   3.026  1.7740  0.2280  0.3821
29976SOL    HW297169   1.112   7.494   2.972  1.0765 -0.6615 -1.4149
29977SOL     OW97170   3.458   6.005   0.711  0.3085  0.4096 -0.1204
29977SOL    HW197171   3.423   6.077   0.763  3.1171  2.5107 -0.9057
29977SOL    HW297172   3.456   6.037   0.621  1.6406 -0.4658 -0.4941
29978SOL     OW97173   4.629   4.066   5.667 -0.8959 -0.1849 -0.2488
29978SOL    HW197174   4.580   4.005   5.611 -1.9048 -0.5222  0.9487
29978SOL    HW297175   4.685   4.010   5.720 -0.9293  0.0274  0.0097
29979SOL     OW97176   7.463   3.049  11.928 -0.1228 -0.6571  0.1699
29979SOL    HW197177   7.406   3.124  11.943  0.6919 -0.0315  0.1812
29979SOL    HW297178   7.532   3.056  11.994 -0.4989 -1.8988  0.7286
29980SOL     OW97179   7.446   1.079   6.112 -0.2184 -0.4888 -0.2227
29980SOL    HW197180   7.376   1.017   6.131 -2.1731  1.3948 -0.9669
29980SOL    HW297181   7.501   1.033   6.048 -0.9694 -1.8526  0.0711
29981SOL     OW97182   5.831   5.130   4.178  0.8248  0.0387  0.2755
29981SOL    HW197183   5.799   5.087   4.098 -0.2802 -0.2844  0.8707
29981SOL    HW297184   5.783   5.214   4.180  1.3011  0.3121  0.2902
29982SOL     OW97185   6.503  12.065   6.918 -0.2696 -0.2135 -0.1501
29982SOL    HW197186   6.484  12.015   6.998 -1.3979  0.5412  0.0690
29982SOL    HW297187   6.596  12.047   6.901 -0.2947 -1.2840  0.6898
29983SOL     OW97188  10.130   2.185   7.722  0.4731  0.1002 -0.5196
29983SOL    HW197189  10.101   2.137   7.645  4.0700 -1.4403 -1.1124
29983SOL    HW297190  10.111   2.277   7.702 -0.0740 -0.4127 -2.5436
29984SOL     OW97191   6.854   5.772   1.212  0.7553 -0.2903  0.3627
29984SOL    HW197192   6.811   5.850   1.246 -2.2935 -1.4571 -0.4911
29984SOL    HW297193   6.879   5.796   1.123  1.4663  0.2584  0.7056
29985SOL     OW97194   1.565   1.856   8.699 -0.2267 -0.2151 -0.3753
29985SOL    HW197195   1.557   1.891   8.787  0.3653  1.3747 -0.9106
29985SOL    HW297196   1.659   1.842   8.687 -0.0931  1.2754 -1.3338
29986SOL     OW97197   8.315   2.883   3.713 -0.0825  0.0530 -0.4434
29986SOL    HW197198   8.328   2.871   3.807  3.0914  0.8521 -0.6611
29986SOL    HW297199   8.292   2.797   3.680 -1.2335 -0.2380  1.0358
29987SOL     OW97200   4.744   7.875   8.065  0.2479  0.5120  0.2848
29987SOL    HW197201   4.781   7.901   8.149 -3.0354  1.7114  1.5454
29987SOL    HW297202   4.719   7.784   8.078 -0.4453  0.7536  0.7458
29988SOL     OW97203   7.666   6.783   1.476  0.1909 -0.0932  0.3015
29988SOL    HW197204   7.601   6.798   1.545  0.4292 -0.8529  0.6979
29988SOL    HW297205   7.617   6.740   1.407 -0.3291  1.7416 -0.5383
29989SOL     OW97206   1.656   4.780  10.120  0.6699 -0.6445 -0.2576
29989SOL    HW197207   1.561   4.786  10.129  0.5918 -2.9813  1.4327
29989SOL    HW297208   1.690   4.840  10.186  0.3088 -1.1139  0.3716
29990SOL     OW97209   8.745   4.668  11.683 -0.4506  0.3338 -0.1438
29990SOL    HW197210   8.663   4.644  11.641 -0.7801  0.8345  0.2060
29990SOL    HW297211   8.731   4.651  11.776 -0.0705  0.1759 -0.1143
29991SOL     OW97212  10.645   6.036   7.974 -0.5234 -0.2254 -0.1361
29991SOL    HW197213  10.559   6.056   8.011  0.5654  1.8909  1.4610
29991SOL    HW297214  10.670   6.114   7.926  0.9805 -0.3357  0.4094
29992SOL     OW97215   4.324   2.861   4.169 -0.5072 -0.1376 -0.0164
29992SOL    HW197216   4.418   2.856   4.186 -0.2281  1.8271 -0.6718
29992SOL    HW297217   4.316   2.861   4.074 -0.9818  1.4363 -0.0181
29993SOL     OW97218   3.063   8.425   6.330  0.0635  0.1749  0.3851
29993SOL    HW197219   3.019   8.353   6.286 -0.4470  0.6974  0.0173
29993SOL    HW297220   2.993   8.477   6.369  0.4123  0.5227  0.5679
29994SOL     OW97221   7.406  11.409  10.016  0.0101 -0.5875  0.0960
29994SOL    HW197222   7.401  11.487   9.961  1.2036 -0.4850  0.0893
29994SOL    HW297223   7.373  11.338   9.960  0.7881 -0.4121 -0.6136
29995SOL     OW97224   7.237   7.261   7.410  0.3011 -0.2992  0.6928
29995SOL    HW197225   7.160   7.316   7.394  1.4496  1.7437  1.7180
29995SOL    HW297226   7.287   7.266   7.328 -0.6890 -1.7785 -0.0399
29996SOL     OW97227   3.368  10.607   0.522 -0.2901 -0.1140  0.0326
29996SOL    HW197228   3.364  10.523   0.567  0.0544 -0.4439 -0.5460
29996SOL    HW297229   3.424  10.591   0.446 -0.8925  0.4296 -0.5346
29997SOL     OW97230   4.412   7.877  11.276 -0.0187 -0.7102 -0.8047
29997SOL    HW197231   4.465   7.832  11.211  0.6284 -1.1935  0.0259
29997SOL    HW297232   4.383   7.957  11.233 -1.0024 -1.8042 -2.2313
29998SOL     OW97233  11.108   9.289  10.887 -0.9150  0.7651  0.0955
29998SOL    HW197234  11.157   9.302  10.968  0.4140  1.2237 -0.7586
29998SOL    HW297235  11.091   9.195  10.884  2.0273  0.1588 -0.7193
29999SOL     OW97236   5.273   8.725   6.281  0.3607  0.2572  0.3525
29999SOL    HW197237   5.298   8.764   6.364  2.1050  0.0763 -0.0340
29999SOL    HW297238   5.280   8.630   6.295 -0.9158  0.1594  0.4381
30000SOL     OW97239  12.439  12.027   4.797 -0.2693  0.6896 -0.6769
30000SOL    HW197240  12.417  11.934   4.793 -1.1857  0.8303  0.5556
30000SOL    HW297241  12.526  12.033   4.758 -0.1109 -0.7036 -0.5779
30001SOL     OW97242   5.534  11.845   6.269  0.1146 -0.4853 -0.0041
30001SOL    HW197243   5.553  11.927   6.225  2.8417 -1.7755 -1.4596
30001SOL    HW297244   5.484  11.794   6.205  0.4840 -0.8292 -0.0236
30002SOL     OW97245   9.749   1.254   0.859 -0.4120  0.1082 -0.5021
30002SOL    HW197246   9.792   1.281   0.940  1.5896  1.3742 -1.8799
30002SOL    HW297247   9.713   1.167   0.878 -0.5038  0.6028  1.8703
30003SOL     OW97248   9.287   3.252   4.841 -0.3452 -0.0002  0.3932
30003SOL    HW197249   9.294   3.177   4.901 -0.1741  0.1743  0.5913
30003SOL    HW297250   9.193   3.262   4.827 -0.3777 -0.1457  0.4993
30004SOL     OW97251  11.850   5.938   0.877 -0.3949  0.1460  0.0575
30004SOL    HW197252  11.816   6.017   0.919 -0.6857  0.4135 -0.6758
30004SOL    HW297253  11.919   5.908   0.936 -0.5869  0.6919  0.5704
30005SOL     OW97254   8.782   8.167  11.993 -0.3169 -0.3072  0.0940
30005SOL    HW197255   8.866   8.152  12.036 -0.7346  0.9908  1.4294
30005SOL    HW297256   8.719   8.118  12.045 -0.3220 -2.0414 -1.4378
30006SOL     OW97257   9.434   6.806   6.175 -0.7133  0.2994 -0.3616
30006SOL    HW197258   9.347   6.826   6.142 -0.6176  0.3178 -0.6022
30006SOL    HW297259   9.429   6.714   6.203 -1.1153  0.6037  0.6263
30007SOL     OW97260   7.858   5.072   3.839 -0.7391  0.0641 -0.1020
30007SOL    HW197261   7.936   5.083   3.893 -1.8214  1.6251  1.2419
30007SOL    HW297262   7.786   5.060   3.902 -1.7241 -0.3622 -1.2673
30008SOL     OW97263   0.384   3.347   1.492  0.0738  0.2595 -0.3086
30008SOL    HW197264   0.341   3.407   1.553  1.0043 -0.3276  0.9538
30008SOL    HW297265   0.444   3.403   1.442 -0.1635  0.6190 -0.1999
30009SOL     OW97266   1.185  12.424   0.058  0.3460  0.7983 -0.3969
30009SOL    HW197267   1.181  12.370  -0.021 -0.1393  2.2446 -1.4090
30009SOL    HW297268   1.094  12.442   0.080  0.4279 -0.4889  1.1870
30010SOL     OW97269   7.958  12.488   4.397  0.6172  0.0471 -0.1606
30010SOL    HW197270   7.882  12.546   4.402  0.7025  0.1150  0.3502
30010SOL    HW297271   8.033  12.547   4.394  0.6354  0.0001 -1.2984
30011SOL     OW97272  10.719   2.438   9.290 -0.5770  0.5440  0.1963
30011SOL    HW197273  10.747   2.355   9.328  1.0012  1.3548  0.9101
30011SOL    HW297274  10.686   2.489   9.364 -0.8144  0.8309 -0.1012
30012SOL     OW97275   2.294   6.356   8.636  0.2877  0.4104 -0.3091
30012SOL    HW197276   2.270   6.264   8.624  0.2450  0.3598  0.1484
30012SOL    HW297277   2.218   6.395   8.679  1.1186  0.1745  1.4377
30013SOL     OW97278   6.290   3.558   1.668 -0.4457 -0.0749 -0.2498
30013SOL    HW197279   6.363   3.620   1.671 -0.4259 -0.1378  1.1569
30013SOL    HW297280   6.249   3.574   1.583  0.6099  0.6406 -0.6516
30014SOL     OW97281   5.523   1.427   2.888 -0.0601  0.0442 -0.3003
30014SOL    HW197282   5.460   1.359   2.867  0.2992 -0.0420 -1.1752
30014SOL    HW297283   5.496   1.502   2.835  1.0877 -0.2916 -1.4226
30015SOL     OW97284   9.794   0.278   0.050 -0.0063 -0.2768 -0.1254
30015SOL    HW197285   9.714   0.227   0.061 -0.3599 -0.2882 -2.3414
30015SOL    HW297286   9.797   0.299  -0.043  2.2150  0.3415  0.0201
30016SOL     OW97287   7.752  11.936   3.019  0.0338  0.2295  0.3003
30016SOL    HW197288   7.746  11.911   2.927 -0.2967  1.4984 -0.0402
30016SOL    HW297289   7.776  11.855   3.064 -2.3849 -1.0593 -0.5548
30017SOL     OW97290   4.482   5.432   2.747  0.3587 -0.0794 -0.1411
30017SOL    HW197291   4.490   5.473   2.832 -0.0513 -0.4253  0.0720
30017SOL    HW297292   4.403   5.471   2.709  1.2790  1.0732 -0.9388
30018SOL     OW97293  10.896   1.063   8.922 -0.8234  0.2827 -0.1339
30018SOL    HW197294  10.841   1.019   8.986 -1.0266 -1.5518 -1.4872
30018SOL    HW297295  10.985   1.041   8.947 -0.9026 -0.4389 -0.4591
30019SOL     OW97296   7.727  11.474  12.162 -0.1198  0.1172 -0.3210
30019SOL    HW197297   7.684  11.559  12.165  0.4353  0.4348 -1.0756
30019SOL    HW297298   7.814  11.489  12.198 -0.2238 -0.2622  0.0973
30020SOL     OW97299   3.138   0.394  10.626  0.0364 -0.3728  0.2623
30020SOL    HW197300   3.164   0.389  10.718 -3.7341  0.1383  1.5251
30020SOL    HW297301   3.119   0.304  10.601 -2.6719 -0.2024  1.3550
30021SOL     OW97302   8.712   8.172   2.600 -0.5323 -0.0354 -0.0016
30021SOL    HW197303   8.663   8.239   2.553  0.8397 -0.3218 -1.9388
30021SOL    HW297304   8.803   8.199   2.593 -0.1687 -0.7721  1.4466
30022SOL     OW97305   0.038   0.842  11.445  0.0439 -0.8843 -0.1051
30022SOL    HW197306   0.047   0.914  11.383 -0.1644  0.3346  1.2214
30022SOL    HW297307  -0.056   0.839  11.464  0.0136 -1.7002 -0.3636
30023SOL     OW97308   7.695   3.291  10.357  0.1121  0.0585  0.3474
30023SOL    HW197309   7.674   3.218  10.300 -0.3157  1.2121 -1.0238
30023SOL    HW297310   7.634   3.360  10.332  1.9748  1.6721 -0.0071
30024SOL     OW97311   9.094  10.272   3.378 -0.0284  0.0417  0.2761
30024SOL    HW197312   9.067  10.246   3.466  1.0862 -1.2472  0.2645
30024SOL    HW297313   9.077  10.366   3.375 -3.0025 -0.3817  0.7662
30025SOL     OW97314  10.298   0.323   2.071 -0.0104  0.1693 -0.8591
30025SOL    HW197315  10.344   0.348   2.151 -0.0460  1.5466 -1.2477
30025SOL    HW297316  10.287   0.405   2.023  0.7674 -0.7445 -2.6927
30026SOL     OW97317   2.371   6.524   5.974  0.2459 -0.9139 -0.3022
30026SOL    HW197318   2.401   6.587   5.909  0.0714 -1.0585 -0.5277
30026SOL    HW297319   2.356   6.443   5.924  2.1122 -1.6537  0.2518
30027SOL     OW97320   5.955   9.873   6.274  0.5207 -0.5091  0.1120
30027SOL    HW197321   6.003   9.883   6.356 -0.4183  0.7492  0.5435
30027SOL    HW297322   5.912   9.957   6.261 -1.3654 -1.4852 -0.3678
30028SOL     OW97323   4.246   6.770   5.625  0.1011 -0.0959  0.3345
30028SOL    HW197324   4.239   6.692   5.570  0.6555 -0.1394  0.3251
30028SOL    HW297325   4.334   6.802   5.610 -0.8087  1.8160 -1.3435
30029SOL     OW97326  11.293   2.622   2.105  0.3506 -0.5636  0.3473
30029SOL    HW197327  11.315   2.541   2.059  0.0597 -0.4986  0.0920
30029SOL    HW297328  11.310   2.691   2.041  0.2989 -0.4453  0.4609
30030SOL     OW97329   6.805   9.587  11.280 -0.3597 -0.2594 -0.0181
30030SOL    HW197330   6.809   9.681  11.299 -1.8828 -0.3408  0.8556
30030SOL    HW297331   6.791   9.546  11.365 -0.4605 -1.2239 -0.4858
30031SOL     OW97332   5.286   2.628   1.713  0.0183 -0.5724 -0.3761
30031SOL    HW197333   5.245   2.605   1.796 -0.4712  0.8787 -0.1825
30031SOL    HW297334   5.375   2.653   1.736 -0.4405  0.9145 -0.0877
30032SOL     OW97335   1.570   9.141   5.441 -0.3050  0.5585  0.0892
30032SOL    HW197336   1.602   9.090   5.515 -0.0873 -2.0803 -1.6990
30032SOL    HW297337   1.477   9.120   5.435 -0.3476  0.8493 -0.3130
30033SOL     OW97338   4.971  10.767   5.891 -0.0968  0.2443  0.6409
30033SOL    HW197339   4.909  10.725   5.831 -0.8213  0.6411  1.1048
30033SOL    HW297340   4.991  10.699   5.956  0.0994  0.0594  0.3910
30034SOL     OW97341   2.799  11.163   6.172 -0.2373 -0.0753 -0.3997
30034SOL    HW197342   2.711  11.131   6.153 -0.6650  1.5246 -1.3359
30034SOL    HW297343   2.789  11.258   6.179  1.0981 -0.0194  1.4524
30035SOL     OW97344   0.759  11.325   8.606  0.1603 -0.7121 -0.6681
30035SOL    HW197345   0.753  11.344   8.513 -0.8437  1.4814 -0.2233
30035SOL    HW297346   0.852  11.306   8.620  0.5598  0.1451 -1.9257
30036SOL     OW97347   2.299   0.863  12.308  0.2038 -0.1894 -0.2505
30036SOL    HW197348   2.296   0.953  12.276 -1.1770  0.0904  0.5897
30036SOL    HW297349   2.379   0.859  12.361  0.2383  0.5726 -0.2298
30037SOL     OW97350   1.395   1.607   0.483  0.2144  0.1497 -0.6313
30037SOL    HW197351   1.383   1.696   0.516 -0.2282  0.6317 -2.0263
30037SOL    HW297352   1.472   1.612   0.427  1.7857 -0.9588  1.2752
30038SOL     OW97353   5.952   3.622   9.111 -0.2066 -0.1892  0.3695
30038SOL    HW197354   5.907   3.641   9.029 -0.5953  0.0396  0.6319
30038SOL    HW297355   5.901   3.669   9.177 -0.0821 -0.6283  0.7808
30039SOL     OW97356   7.585   2.443   0.590  0.1694  0.4778  0.4092
30039SOL    HW197357   7.568   2.403   0.505 -0.1432  2.5364 -0.5527
30039SOL    HW297358   7.679   2.458   0.591  0.2709 -0.1771  0.7226
30040SOL     OW97359   4.988  12.500   9.796 -0.0445  0.4945  0.1128
30040SOL    HW197360   5.036  12.450   9.730 -0.4429 -1.3433  1.1538
30040SOL    HW297361   5.003  12.591   9.772  0.7834 -0.0949 -1.8150
30041SOL     OW97362  11.232   1.734  11.937 -0.0389 -0.4814 -0.0819
30041SOL    HW197363  11.223   1.789  11.860 -1.0744  1.4971  1.3599
30041SOL    HW297364  11.157   1.674  11.933 -1.2976  0.9971  0.3950
30042SOL     OW97365   9.517   7.729  11.617 -0.2961 -0.5895 -0.6038
30042SOL    HW197366   9.430   7.767  11.631  0.2480  1.1788 -1.7678
30042SOL    HW297367   9.543   7.759  11.530  0.8078 -2.4783 -0.9863
30043SOL     OW97368   7.743   8.525   4.859  0.0349  0.6247 -0.5876
30043SOL    HW197369   7.753   8.437   4.823 -2.6924  0.5515 -1.3906
30043SOL    HW297370   7.821   8.572   4.829  0.6369 -1.0015 -1.7096
30044SOL     OW97371   3.352   0.839  11.335 -0.4381 -0.1247  0.6450
30044SOL    HW197372   3.277   0.828  11.393 -0.3906 -0.4484  0.6471
30044SOL    HW297373   3.391   0.922  11.363 -0.2178 -0.4434  1.3116
30045SOL     OW97374   7.847  11.517  10.016  0.0444  0.1285 -0.3595
30045SOL    HW197375   7.922  11.505  10.073 -0.1198  0.1567 -0.1370
30045SOL    HW297376   7.820  11.428   9.992  0.4595  0.1321 -0.8507
30046SOL     OW97377   1.589   6.521   6.344 -0.3247  0.4160  0.0284
30046SOL    HW197378   1.646   6.467   6.289  0.2771  1.2494 -0.1974
30046SOL    HW297379   1.617   6.503   6.434 -0.4091  0.0420 -0.0210
30047SOL     OW97380   0.564  12.217   1.402  0.6013  0.1348 -0.0910
30047SOL    HW197381   0.514  12.285   1.447 -0.0521  0.9713 -1.9963
30047SOL    HW297382   0.518  12.136   1.422  1.2518  0.2312  2.0144
30048SOL     OW97383   3.126   5.920   1.166 -0.8675 -0.1358  0.3508
30048SOL    HW197384   3.059   5.887   1.106 -0.0288  0.4364 -0.9673
30048SOL    HW297385   3.105   6.013   1.176 -0.9345 -0.2047  0.8577
30049SOL     OW97386   3.921  12.580   6.203  0.8125  0.7681 -0.2899
30049SOL    HW197387   3.885  12.494   6.226  2.5799  0.0785  0.0833
30049SOL    HW297388   3.888  12.598   6.115  0.2920 -0.2140 -0.3026
30050SOL     OW97389  11.917   4.515   8.514  0.0236  0.2222 -0.2365
30050SOL    HW197390  11.936   4.542   8.604  0.4193 -0.0412 -0.2391
30050SOL    HW297391  11.841   4.458   8.522  1.2764 -1.4448  0.1835
30051SOL     OW97392   0.840   4.214   7.371 -0.1827 -0.4296 -0.2965
30051SOL    HW197393   0.786   4.144   7.334  0.4719 -1.4422  0.5709
30051SOL    HW297394   0.917   4.218   7.313 -0.3527 -0.2260 -0.5098
30052SOL     OW97395   0.170   6.542   1.944 -0.0666  0.7986 -0.5040
30052SOL    HW197396   0.093   6.525   1.890  0.5151  0.0378 -1.1106
30052SOL    HW297397   0.135   6.584   2.023 -0.9627  1.5888 -1.3007
30053SOL     OW97398  11.350  10.192  11.359  0.2551  0.4082  0.0509
30053SOL    HW197399  11.325  10.101  11.347 -0.3222  0.9249 -4.1698
30053SOL    HW297400  11.443  10.194  11.340  0.1628  0.7498 -0.3819
30054SOL     OW97401   3.402   7.291   4.090 -0.0381 -0.5037  0.2324
30054SOL    HW197402   3.469   7.227   4.112 -0.9771 -1.9367 -0.8970
30054SOL    HW297403   3.409   7.303   3.995 -1.7815 -1.2520 -0.0468
30055SOL     OW97404   8.253   8.647  10.109  0.4403 -0.0701  0.4404
30055SOL    HW197405   8.223   8.690  10.189  0.5690 -1.7201  1.4308
30055SOL    HW297406   8.331   8.697  10.083 -1.7853  2.9570 -0.9829
30056SOL     OW97407   8.320  10.826  10.666 -0.2120  0.3192 -0.0026
30056SOL    HW197408   8.390  10.789  10.611 -0.3220 -1.1280  0.7699
30056SOL    HW297409   8.276  10.749  10.703 -2.1704  1.1810 -0.3857
30057SOL     OW97410   3.215   3.401   9.697  0.0407  0.2559 -0.1921
30057SOL    HW197411   3.195   3.344   9.772  0.8829  1.8575  1.3245
30057SOL    HW297412   3.143   3.465   9.697  1.2082  1.6327  0.7326
30058SOL     OW97413   6.037   9.027   4.485 -0.1412  0.0732 -0.0712
30058SOL    HW197414   6.033   9.035   4.390  0.8500  0.7366 -0.0739
30058SOL    HW297415   5.990   9.104   4.518  0.7782  0.6574 -0.0559
30059SOL     OW97416   8.139   4.052  12.037  0.4350 -0.2643  0.5737
30059SOL    HW197417   8.222   4.052  11.990 -0.1238  3.3971 -0.7723
30059SOL    HW297418   8.073   4.028  11.972  0.1032  0.6554  0.5427
30060SOL     OW97419   6.204   3.058   2.798  0.0519  0.1302 -0.2562
30060SOL    HW197420   6.166   3.035   2.713  1.7573  1.7486 -1.5294
30060SOL    HW297421   6.287   3.010   2.801  0.1833  0.3831  0.3353
30061SOL     OW97422   2.459   3.107   6.834  0.5157 -0.5346 -0.2158
30061SOL    HW197423   2.374   3.091   6.794  1.8188 -2.1011 -2.5834
30061SOL    HW297424   2.451   3.194   6.874 -2.0815 -0.5526 -0.5624
30062SOL     OW97425   9.470   0.288   2.508 -0.1076  0.5480 -0.1093
30062SOL    HW197426   9.383   0.320   2.485  0.4981  1.2863 -1.5293
30062SOL    HW297427   9.517   0.285   2.424  0.8872 -0.9334  0.4566
30063SOL     OW97428   7.957   8.991   3.681 -0.4087 -0.3909 -0.4742
30063SOL    HW197429   7.870   9.016   3.711 -1.0956 -1.3181 -1.5710
30063SOL    HW297430   7.944   8.961   3.591  1.0242 -0.6786 -0.6251
30064SOL     OW97431  10.866   9.129   5.844 -0.8972  0.1217  0.0082
30064SOL    HW197432  10.900   9.208   5.886 -2.1972  1.2533 -0.9511
30064SOL    HW297433  10.937   9.099   5.787 -0.1649  0.2318  0.8513
30065SOL     OW97434   3.773   6.708   3.687 -0.2033  0.0069 -0.6413
30065SOL    HW197435   3.821   6.746   3.761 -1.0583 -1.5497  0.7702
30065SOL    HW297436   3.682   6.707   3.715 -0.3175 -2.2959 -0.9300
30066SOL     OW97437   2.020   7.526   8.653 -0.2494  0.0883  0.3222
30066SOL    HW197438   2.112   7.501   8.649 -0.4828 -0.9443  1.0305
30066SOL    HW297439   1.975   7.465   8.594 -0.6044 -0.0644  0.7453
30067SOL     OW97440  12.360  11.507  11.595  0.2944  0.0962 -0.4379
30067SOL    HW197441  12.397  11.572  11.654  0.4947  1.7704 -2.2955
30067SOL    HW297442  12.433  11.447  11.577  0.2556 -0.3764  0.8655
30068SOL     OW97443   5.923   7.965   1.613 -0.0244  0.5354  0.2675
30068SOL    HW197444   5.855   8.008   1.665 -1.5156 -1.4905  0.0969
30068SOL    HW297445   6.002   7.971   1.668  0.2722  4.4840 -0.2751
30069SOL     OW97446   4.902   3.189   9.960  0.7299  0.0048  0.4015
30069SOL    HW197447   4.885   3.111  10.012 -0.9173  1.1411  1.6676
30069SOL    HW297448   4.854   3.175   9.878 -0.1925  0.0039  0.9335
30070SOL     OW97449   8.912  10.146   1.796 -0.0848 -0.0259  0.0043
30070SOL    HW197450   8.924  10.163   1.703 -1.5897 -0.6607 -0.3384
30070SOL    HW297451   8.981  10.196   1.839  1.0903 -0.3115 -1.4851
30071SOL     OW97452   5.417   4.613  10.725  0.5215 -0.0080  0.2136
30071SOL    HW197453   5.481   4.544  10.708  0.8188 -0.2427  2.0768
30071SOL    HW297454   5.379   4.590  10.810  2.9438  3.7301  2.6014
30072SOL     OW97455   0.752   6.009  11.209 -0.3390 -0.1526  0.2954
30072SOL    HW197456   0.824   6.061  11.174 -0.3328 -1.3440 -1.6016
30072SOL    HW297457   0.703   5.981  11.132 -1.2526 -1.6325  1.3583
30073SOL     OW97458  10.908   4.113  11.270  0.1088 -0.3059 -0.2961
30073SOL    HW197459  10.880   4.188  11.218 -1.0765  0.3483  1.2260
30073SOL    HW297460  10.937   4.048  11.206 -1.9770  0.1858 -1.8081
30074SOL     OW97461  10.002   1.625   4.068 -0.3517 -0.4020  0.1022
30074SOL    HW197462   9.994   1.713   4.030 -2.3144 -1.3218 -1.7429
30074SOL    HW297463   9.912   1.597   4.083  0.2902 -1.4890  2.2674
30075SOL     OW97464  11.779   1.991  11.262  0.1215 -0.4130  0.3162
30075SOL    HW197465  11.821   1.918  11.307  1.7491  0.9402  1.1357
30075SOL    HW297466  11.852   2.047  11.235 -1.0895  1.6845  1.1215
30076SOL     OW97467   4.828   6.155   9.369  0.6914  0.2509 -0.3933
30076SOL    HW197468   4.894   6.223   9.367  0.6471  0.2980 -0.2137
30076SOL    HW297469   4.783   6.166   9.453  0.6510  0.0335 -0.3847
30077SOL     OW97470   8.920   9.462   1.161  0.6311  0.0484 -0.0008
30077SOL    HW197471   8.991   9.422   1.111  0.4754 -2.2666  1.4726
30077SOL    HW297472   8.840   9.430   1.120  0.4983 -0.8199  0.9064
30078SOL     OW97473   8.038   9.690   1.377 -0.4225 -0.0756  0.1898
30078SOL    HW197474   7.966   9.627   1.382  0.4309 -1.0937 -0.0485
30078SOL    HW297475   8.106   9.653   1.432  0.2253  0.4681 -0.2265
30079SOL     OW97476   1.701   3.072   9.704 -0.1023  0.4419 -1.0728
30079SOL    HW197477   1.742   2.986   9.693 -0.2838  0.2662 -0.4213
30079SOL    HW297478   1.658   3.089   9.620  0.8075  0.3702 -1.5768
30080SOL     OW97479   4.984  10.049   7.491  0.1524  0.7021 -0.2207
30080SOL    HW197480   5.063   9.999   7.511 -0.2733 -0.0502 -0.3519
30080SOL    HW297481   5.010  10.140   7.500  0.8104  0.4496  0.5672
30081SOL     OW97482  11.864   2.035   7.076  0.0120  0.1024  0.6196
30081SOL    HW197483  11.898   2.124   7.064  0.0350  0.1263  0.8524
30081SOL    HW297484  11.771   2.042   7.054 -0.2371  0.4317  1.6900
30082SOL     OW97485   2.835   7.987   9.855 -0.2013 -0.0294  0.1050
30082SOL    HW197486   2.803   8.013   9.768 -1.9944 -2.8616 -0.2020
30082SOL    HW297487   2.784   8.042   9.915 -1.5361 -0.4664 -0.5747
30083SOL     OW97488   7.122   5.659  11.531  0.1484  0.0416 -0.2842
30083SOL    HW197489   7.180   5.617  11.595 -0.5658  1.7754  1.5986
30083SOL    HW297490   7.034   5.638  11.562 -0.2306  0.2927 -1.1645
30084SOL     OW97491  10.999  10.296   7.735 -0.2531  0.2391  0.2464
30084SOL    HW197492  10.967  10.347   7.810  0.6620  1.7036 -0.3361
30084SOL    HW297493  11.094  10.310   7.735 -0.0838 -0.8142 -0.4161
30085SOL     OW97494  10.448   0.424  12.617 -0.5427  0.2801 -0.0368
30085SOL    HW197495  10.428   0.397  12.707  0.7064  0.9110  0.4536
30085SOL    HW297496  10.411   0.512  12.610 -0.0632  0.5004  0.1001
30086SOL     OW97497  10.206   1.862   4.123  0.0655  0.0277 -0.1327
30086SOL    HW197498  10.127   1.889   4.077  0.3602 -0.6379 -1.0847
30086SOL    HW297499  10.231   1.938   4.176 -1.9043 -0.1844  1.2118
30087SOL     OW97500   2.446   9.294   0.950 -0.2644  0.1862 -0.1093
30087SOL    HW197501   2.399   9.362   0.901  0.1284  0.4199 -0.1660
30087SOL    HW297502   2.507   9.256   0.886  0.6955  0.9205  0.3451
30088SOL     OW97503  11.197   0.968   4.029 -0.0278 -0.1382 -0.4819
30088SOL    HW197504  11.245   0.914   3.966 -0.1835 -0.2214 -0.5285
30088SOL    HW297505  11.163   0.906   4.093 -2.7831 -0.5197 -2.1497
30089SOL     OW97506   2.515   6.545   3.372 -0.9988 -0.0676 -0.0918
30089SOL    HW197507   2.496   6.615   3.309 -0.0676  1.4224  1.2159
30089SOL    HW297508   2.606   6.522   3.355 -1.0781 -0.4534 -0.0108
30090SOL     OW97509  10.229   6.158  12.307 -0.1852 -0.1084  0.2330
30090SOL    HW197510  10.264   6.240  12.343  0.5405 -0.5131  0.4786
30090SOL    HW297511  10.297   6.129  12.245  1.2359 -2.2543  2.6083
30091SOL     OW97512   8.026   8.304   4.598  0.0141  0.5554 -0.0075
30091SOL    HW197513   8.087   8.377   4.591  0.4610  0.1018 -0.9880
30091SOL    HW297514   8.046   8.264   4.682  0.3599  1.0270  0.1385
30092SOL     OW97515   4.047   0.657   2.716 -0.3291 -0.1880  0.0826
30092SOL    HW197516   4.140   0.651   2.695 -0.5502  1.1596 -1.4644
30092SOL    HW297517   4.040   0.620   2.804  1.3846 -1.9401 -0.4419
30093SOL     OW97518  10.215   4.379   2.816 -0.1161  0.3999  0.4267
30093SOL    HW197519  10.259   4.307   2.860  0.8775  1.3981  1.1110
30093SOL    HW297520  10.286   4.434   2.783 -0.8552  0.6836 -0.7428
30094SOL     OW97521  11.045   8.143   7.525 -0.2270  0.3673  0.3355
30094SOL    HW197522  11.004   8.181   7.603  0.5586  0.2167  0.8349
30094SOL    HW297523  11.086   8.218   7.481 -1.4723  0.6039 -0.4515
30095SOL     OW97524   9.749   0.993   1.539 -0.4497 -0.1016 -0.2430
30095SOL    HW197525   9.838   0.992   1.502 -0.1273  0.5340  0.4966
30095SOL    HW297526   9.702   1.058   1.485 -0.2685  0.0768 -0.1867
30096SOL     OW97527   7.624   0.005  11.209  0.4204 -0.4128  0.2613
30096SOL    HW197528   7.692  -0.037  11.261 -0.1677 -0.8018  0.7253
30096SOL    HW297529   7.637   0.099  11.223 -0.0575 -0.5197  1.5478
30097SOL     OW97530   8.938   5.660   3.807 -0.2175  0.3032  0.3035
30097SOL    HW197531   8.893   5.653   3.890 -2.2367 -2.0966 -0.8449
30097SOL    HW297532   8.870   5.645   3.741  1.8493 -1.4521 -1.6184
30098SOL     OW97533   2.077   1.270   5.580  0.0042  0.1045 -0.0468
30098SOL    HW197534   2.093   1.286   5.487  0.5441  0.0872  0.0411
30098SOL    HW297535   2.038   1.351   5.612 -2.7561 -0.7769 -0.8657
30099SOL     OW97536  10.146   6.454   1.346 -0.2579 -0.4349 -0.3907
30099SOL    HW197537  10.114   6.389   1.284 -0.9107 -2.3657  1.8359
30099SOL    HW297538  10.107   6.429   1.430 -2.2055  3.9897  0.3276
30100SOL     OW97539   3.085   3.034   2.777 -0.6162  0.1609 -0.1194
30100SOL    HW197540   3.091   3.117   2.731  2.3934  0.2538  0.2052
30100SOL    HW297541   3.042   2.975   2.715 -0.1636  1.2463 -1.5045
30101SOL     OW97542   0.046   8.221   3.895 -0.3891 -0.0822  0.3213
30101SOL    HW197543   0.103   8.215   3.972  0.8874 -0.9441 -0.6471
30101SOL    HW297544   0.062   8.139   3.847 -0.3172  0.8871 -1.4114
30102SOL     OW97545   9.987  11.450   8.047  0.9120 -0.1319  0.7506
30102SOL    HW197546   9.958  11.470   8.136 -0.9310 -0.1999  0.2001
30102SOL    HW297547   9.968  11.357   8.036  0.1257  0.1209 -0.0708
30103SOL     OW97548   2.211   2.532   1.429 -0.3475  0.5250  0.4438
30103SOL    HW197549   2.168   2.507   1.511  0.3678  0.2556  0.7375
30103SOL    HW297550   2.304   2.521   1.446 -0.2044  0.2111 -0.4985
30104SOL     OW97551   2.822   8.482   6.516  0.1591 -0.0782 -0.2814
30104SOL    HW197552   2.800   8.391   6.495 -1.0032  0.5132 -1.8981
30104SOL    HW297553   2.764   8.534   6.459  1.2168  1.6670  0.1575
30105SOL     OW97554   6.298   9.341   3.778  0.3578  0.1333 -0.1579
30105SOL    HW197555   6.376   9.394   3.765 -0.6472  1.2911 -1.9771
30105SOL    HW297556   6.261   9.372   3.860  0.1243  1.8758 -0.8869
30106SOL     OW97557   7.498  10.557   5.108  0.4478  0.4856 -0.6967
30106SOL    HW197558   7.505  10.530   5.017  0.9188  0.9040 -0.7897
30106SOL    HW297559   7.562  10.628   5.117  1.2544 -0.3325  0.2499
30107SOL     OW97560  11.755   9.177  10.286  0.2440 -0.3453 -0.0143
30107SOL    HW197561  11.807   9.187  10.366 -1.2707 -1.3335  1.1292
30107SOL    HW297562  11.820   9.161  10.218  1.6491  1.4760  0.8033
30108SOL     OW97563   3.498   4.929   1.162 -0.0229 -0.3451  0.2977
30108SOL    HW197564   3.575   4.978   1.191  0.3745 -0.6759 -0.1958
30108SOL    HW297565   3.488   4.951   1.070  0.1856 -1.2227  0.0616
30109SOL     OW97566   9.255   7.806  11.691 -0.1446 -0.1708 -0.4567
30109SOL    HW197567   9.210   7.793  11.608 -1.6351 -0.6792  0.3905
30109SOL    HW297568   9.205   7.875  11.735 -2.7021 -3.3328  2.1625
30110SOL     OW97569   4.877   1.841  10.490 -0.8734  0.2406 -0.9009
30110SOL    HW197570   4.799   1.791  10.514 -1.0864  0.5281 -0.9778
30110SOL    HW297571   4.929   1.782  10.437  0.2806 -0.9087  1.3733
30111SOL     OW97572  12.119   9.689  12.589 -0.2671  0.0698 -0.9918
30111SOL    HW197573  12.142   9.779  12.612 -1.2340  0.3360 -1.0084
30111SOL    HW297574  12.139   9.638  12.667 -0.4598  0.4333 -0.7023
30112SOL     OW97575   9.251  11.703   7.648 -0.1268  0.0889 -0.0807
30112SOL    HW197576   9.274  11.746   7.731 -1.1572 -0.4201  0.4955
30112SOL    HW297577   9.216  11.774   7.594  0.9875  0.5129 -0.2708
30113SOL     OW97578   1.134   0.861   2.913 -0.3691 -0.2926 -0.1015
30113SOL    HW197579   1.075   0.935   2.919 -1.3527 -1.1330  1.0477
30113SOL    HW297580   1.105   0.813   2.835  1.6626  1.6138 -2.1932
30114SOL     OW97581   0.432  12.606   7.679  0.5531 -0.3057 -0.3748
30114SOL    HW197582   0.435  12.640   7.768  0.7795 -1.6605  0.1647
30114SOL    HW297583   0.413  12.682   7.624  1.3647  0.7301  0.7267
30115SOL     OW97584   6.396   8.083   0.154  0.4050 -0.3390 -0.5230
30115SOL    HW197585   6.456   8.009   0.145  1.7225  0.4613  1.0903
30115SOL    HW297586   6.423   8.144   0.085  1.3758 -0.0670  0.0706
30116SOL     OW97587   3.228  10.470  12.222 -0.0762  0.0645  0.3258
30116SOL    HW197588   3.288  10.539  12.250 -0.2511  0.7603 -0.9730
30116SOL    HW297589   3.268  10.434  12.143  0.5034 -2.0019  1.4803
30117SOL     OW97590   5.182   0.407   2.365 -0.5065 -0.6113  0.2415
30117SOL    HW197591   5.214   0.353   2.437  0.7512 -0.4099 -0.1380
30117SOL    HW297592   5.180   0.347   2.290 -2.2494 -0.9387  0.5124
30118SOL     OW97593   8.349   9.091  11.152 -0.1196 -0.0490  0.3191
30118SOL    HW197594   8.337   9.141  11.233  0.9389 -1.4629  1.3971
30118SOL    HW297595   8.370   9.002  11.181  1.3342 -0.3600 -1.4838
30119SOL     OW97596   3.282   3.086   5.911 -0.2925  0.0078 -0.2440
30119SOL    HW197597   3.285   3.115   6.002  0.7731 -2.4793  0.5811
30119SOL    HW297598   3.315   3.161   5.861  1.4070  0.5852  1.6436
30120SOL     OW97599  12.130   9.398  11.596 -0.2568 -0.4714  0.4866
30120SOL    HW197600  12.039   9.421  11.614  0.1639 -0.0830  2.3715
30120SOL    HW297601  12.152   9.447  11.517 -1.6511 -0.5134  0.0422
30121SOL     OW97602   4.805   0.107   7.385 -0.2996 -0.2386  0.4992
30121SOL    HW197603   4.760   0.181   7.425 -2.2103 -0.7779 -0.4966
30121SOL    HW297604   4.772   0.031   7.433 -0.8079 -0.6814 -0.5140
30122SOL     OW97605   2.612  11.849   4.271  0.5255  0.9694  0.5814
30122SOL    HW197606   2.659  11.879   4.349  2.5096  1.6399 -0.7876
30122SOL    HW297607   2.656  11.769   4.245 -0.2804  0.6150  0.2658
30123SOL     OW97608   3.646   2.620   0.246 -0.5066  0.2816 -0.2386
30123SOL    HW197609   3.565   2.571   0.231 -0.4790  0.5569 -1.3794
30123SOL    HW297610   3.628   2.707   0.210  0.0876  0.5367  0.0757
30124SOL     OW97611   3.194   7.846  10.816 -0.0939  0.0813  0.0918
30124SOL    HW197612   3.187   7.813  10.727 -0.4631 -0.0003  0.1495
30124SOL    HW297613   3.103   7.858  10.844  0.0255  0.3303  0.3719
30125SOL     OW97614  10.227   7.544   1.655  0.1382  0.2402 -0.2089
30125SOL    HW197615  10.172   7.499   1.592 -0.5996  0.7806  0.0429
30125SOL    HW297616  10.235   7.482   1.728 -1.8465  0.9375  0.6526
30126SOL     OW97617   4.477   5.191   5.335  0.8002 -0.5216 -0.4337
30126SOL    HW197618   4.452   5.275   5.296 -1.8355 -0.5483  0.9756
30126SOL    HW297619   4.511   5.215   5.421 -0.0361 -0.8822  0.0049
30127SOL     OW97620   8.103   1.395   3.509 -0.4557  0.1463  0.2115
30127SOL    HW197621   8.037   1.344   3.555 -0.7052  1.0166  0.8444
30127SOL    HW297622   8.105   1.479   3.555  2.6078 -0.5409  1.6021
30128SOL     OW97623   1.830   3.159   2.258 -0.7901 -0.3562 -0.5742
30128SOL    HW197624   1.757   3.205   2.216 -1.7027 -1.2168  0.0201
30128SOL    HW297625   1.895   3.228   2.275 -0.6981  0.1352 -2.6836
30129SOL     OW97626   2.184   7.709  11.274  0.1800  0.1531  0.3335
30129SOL    HW197627   2.192   7.761  11.194  1.4766 -0.7218 -0.1385
30129SOL    HW297628   2.120   7.757  11.327  0.6194  1.7168 -0.4774
30130SOL     OW97629   2.658   3.368  10.325  0.1776  0.0543  0.5877
30130SOL    HW197630   2.675   3.281  10.290 -0.9503  0.3005 -0.6288
30130SOL    HW297631   2.583   3.401  10.275  0.0246  1.3804  1.6167
30131SOL     OW97632   9.431   7.238   2.295  0.5942 -0.1808  1.1400
30131SOL    HW197633   9.519   7.277   2.302  0.5406  0.0179  0.6984
30131SOL    HW297634   9.429   7.173   2.365  1.2200 -0.4286  0.9334
30132SOL     OW97635   0.621  10.544   0.864  0.4576 -0.7256  0.3345
30132SOL    HW197636   0.587  10.548   0.953 -0.3870  0.7477 -0.0313
30132SOL    HW297637   0.669  10.625   0.852 -2.3758  0.8333 -1.6447
30133SOL     OW97638   3.620  11.330  10.814  0.4554  0.1335  0.4367
30133SOL    HW197639   3.608  11.408  10.867  0.1214 -0.8224  1.8034
30133SOL    HW297640   3.633  11.364  10.725 -3.5392  1.6738  0.2271
30134SOL     OW97641   1.534   4.817   8.292 -0.3484 -0.5548  0.2870
30134SOL    HW197642   1.608   4.763   8.264 -1.2378 -0.4046 -2.7140
30134SOL    HW297643   1.541   4.897   8.239 -1.7685  0.1771  1.1215
30135SOL     OW97644   4.175   7.981   5.668 -0.7128 -0.2286 -0.2515
30135SOL    HW197645   4.080   7.988   5.678 -0.7208 -0.7072  0.0718
30135SOL    HW297646   4.208   8.069   5.683 -0.9676 -0.3745  1.3966
30136SOL     OW97647  12.529   0.421   1.270 -0.3305  0.0656  0.0149
30136SOL    HW197648  12.533   0.355   1.202  0.2411 -0.1524  0.2542
30136SOL    HW297649  12.437   0.447   1.273 -0.2336  0.6807 -1.3980
30137SOL     OW97650   6.776  12.300  10.573  0.1072 -0.5613  0.6042
30137SOL    HW197651   6.780  12.328  10.665  1.7480  0.4901  0.2738
30137SOL    HW297652   6.785  12.205  10.576  1.7174 -0.4160  1.4990
30138SOL     OW97653   9.547   1.346   1.623 -0.2386 -0.1623 -0.2231
30138SOL    HW197654   9.474   1.362   1.562 -0.6119 -1.7528 -0.2503
30138SOL    HW297655   9.531   1.257   1.656 -0.4843  0.8896  2.8133
30139SOL     OW97656   7.422   4.197   6.913 -0.0171  0.1968  0.0123
30139SOL    HW197657   7.336   4.182   6.953  0.4087 -0.8515  0.5551
30139SOL    HW297658   7.446   4.113   6.875  0.4138  0.7023 -0.8684
30140SOL     OW97659   1.813  11.101   8.344  0.4914 -0.8596  0.0826
30140SOL    HW197660   1.801  11.081   8.437  0.1155  0.5756  0.3659
30140SOL    HW297661   1.742  11.055   8.300 -0.2931 -0.2566  0.6954
30141SOL     OW97662   9.240   1.877   3.563 -0.2934  0.3775  0.1281
30141SOL    HW197663   9.333   1.868   3.542 -0.6933 -1.7071 -0.9833
30141SOL    HW297664   9.226   1.972   3.566  1.6579  0.7492 -0.6507
30142SOL     OW97665   7.364   4.752   2.282  0.3623 -0.0019  0.1419
30142SOL    HW197666   7.397   4.841   2.295 -0.3590  0.1510  1.0646
30142SOL    HW297667   7.417   4.717   2.210  0.3505  1.3217 -0.5451
30143SOL     OW97668   5.527   2.914   0.169 -0.6579  0.7038 -0.5015
30143SOL    HW197669   5.520   3.010   0.175 -0.5788  0.6252  1.1794
30143SOL    HW297670   5.518   2.883   0.259  1.1129 -0.7595 -0.7661
30144SOL     OW97671  12.590   5.652  10.005  0.2384 -0.0682 -0.3774
30144SOL    HW197672  12.569   5.735   9.962  1.5308  0.5268  0.0616
30144SOL    HW297673  12.619   5.595   9.934 -2.3334 -0.7992 -0.9424
30145SOL     OW97674   0.545   5.983   4.768  0.0946 -0.4149 -0.3704
30145SOL    HW197675   0.497   5.977   4.851 -0.1147  1.2382 -0.3218
30145SOL    HW297676   0.509   5.914   4.714  0.3884 -1.6705  0.9792
30146SOL     OW97677   0.480   3.755  11.794 -0.9524 -0.0139  0.3779
30146SOL    HW197678   0.469   3.785  11.884 -0.8055  0.2387  0.3121
30146SOL    HW297679   0.393   3.724  11.768 -0.9882 -0.1095  0.6147
30147SOL     OW97680   8.942   0.820   7.631  0.2143 -0.6039  0.1606
30147SOL    HW197681   8.946   0.841   7.724 -2.7376 -2.1609  0.7537
30147SOL    HW297682   9.002   0.881   7.589 -1.0380  2.5851  2.6898
30148SOL     OW97683   5.516   3.673   5.709 -0.1264  0.4738 -0.5069
30148SOL    HW197684   5.480   3.716   5.787  1.0163  0.8474 -0.1716
30148SOL    HW297685   5.593   3.725   5.686 -0.2371  0.1464 -1.6762
30149SOL     OW97686  11.616   2.657   0.635  0.2542 -0.0998 -0.3139
30149SOL    HW197687  11.562   2.634   0.711  0.2446 -0.2637 -0.3692
30149SOL    HW297688  11.648   2.573   0.602  1.2428  0.0378  0.2422
30150SOL     OW97689  10.480   5.899   3.351 -0.1069 -0.8498  0.4611
30150SOL    HW197690  10.496   5.958   3.425  1.3100  0.7509 -1.0237
30150SOL    HW297691  10.387   5.910   3.331  0.3999  2.2806 -0.7874
30151SOL     OW97692  12.339   6.659   7.136  0.1919  0.0999 -0.0085
30151SOL    HW197693  12.302   6.684   7.221 -0.0885 -1.1973  0.2754
30151SOL    HW297694  12.366   6.567   7.147  1.5533  0.3600 -0.8671
30152SOL     OW97695   7.286   2.516   0.381 -0.0512  0.0262 -0.0705
30152SOL    HW197696   7.284   2.601   0.425  1.2477  0.5297 -0.9268
30152SOL    HW297697   7.219   2.522   0.312 -2.0310 -0.7361  1.6839
30153SOL     OW97698  10.782   0.901   4.690 -0.0154  0.5715 -0.0382
30153SOL    HW197699  10.704   0.940   4.653 -0.9910 -0.1334  1.1842
30153SOL    HW297700  10.764   0.807   4.690  2.2883 -0.0194 -2.9497
30154SOL     OW97701   3.290   7.979   0.076 -0.0060  0.0598 -0.0565
30154SOL    HW197702   3.244   7.916   0.131 -2.7097  1.5933 -0.4145
30154SOL    HW297703   3.366   8.005   0.128  0.8671 -2.9082  0.3509
30155SOL     OW97704  10.936   6.608   4.124  0.5436  1.0836 -0.5486
30155SOL    HW197705  10.877   6.674   4.085 -0.7587  1.4190  1.8365
30155SOL    HW297706  10.902   6.525   4.091 -1.6307  1.2327  1.0935
30156SOL     OW97707   2.837   7.757   2.625  0.3053  0.2938  0.8515
30156SOL    HW197708   2.893   7.745   2.548 -0.6654  0.9718 -0.0002
30156SOL    HW297709   2.826   7.669   2.661 -2.6450 -0.8614 -2.3044
30157SOL     OW97710   3.322   4.002   8.205 -0.3914  0.3609 -0.2067
30157SOL    HW197711   3.340   4.096   8.198 -0.1209  0.1882 -3.1556
30157SOL    HW297712   3.235   3.997   8.243  0.2239  1.7096  1.5045
30158SOL     OW97713   9.118  11.098   8.980 -0.4900 -0.2580 -0.4709
30158SOL    HW197714   9.090  11.163   9.045 -0.6971 -0.0308 -0.7821
30158SOL    HW297715   9.137  11.150   8.901 -2.2854 -0.7088 -1.2634
30159SOL     OW97716  10.160   5.185   6.445  0.2374 -0.1653  0.1413
30159SOL    HW197717  10.196   5.102   6.473  0.2762 -0.4059 -0.5950
30159SOL    HW297718  10.116   5.166   6.362 -2.0621 -0.0004  1.2364
30160SOL     OW97719   3.229   5.938   0.414  0.0262 -0.4687 -0.0283
30160SOL    HW197720   3.257   5.935   0.322 -2.8064  0.0249 -0.9954
30160SOL    HW297721   3.288   6.002   0.454  0.3498  0.4935 -1.8898
30161SOL     OW97722  11.905   8.345   6.388  0.0695 -0.1651 -0.0496
30161SOL    HW197723  11.919   8.440   6.392 -0.1329 -0.1791  2.6545
30161SOL    HW297724  11.957   8.311   6.460 -0.9497 -1.9943 -0.1402
30162SOL     OW97725   6.797   0.837  11.263 -0.0505  0.4400  0.0016
30162SOL    HW197726   6.892   0.822  11.260 -0.2540 -0.9313 -0.1923
30162SOL    HW297727   6.780   0.898  11.192  0.4132 -1.0457 -1.4560
30163SOL     OW97728   8.318   5.438   7.780 -0.1395 -0.2589 -0.2793
30163SOL    HW197729   8.289   5.424   7.689 -0.7621 -1.0224  0.0260
30163SOL    HW297730   8.327   5.349   7.815  2.0995 -0.0710 -0.1934
30164SOL     OW97731   4.995   0.135  11.729  0.3113  0.6680 -0.1125
30164SOL    HW197732   4.943   0.116  11.806  0.6648 -0.2847 -0.0947
30164SOL    HW297733   5.045   0.214  11.752  1.4866 -0.4075  1.1736
30165SOL     OW97734   6.139   0.093  10.622  0.2595 -0.4722 -0.2254
30165SOL    HW197735   6.182   0.008  10.618  1.2308  0.0297 -1.0607
30165SOL    HW297736   6.126   0.110  10.716 -2.0342 -2.5094 -0.0702
30166SOL     OW97737   3.247   9.475  10.569 -0.0820 -0.1092 -0.1035
30166SOL    HW197738   3.298   9.538  10.619  0.2795 -0.3340 -0.1829
30166SOL    HW297739   3.224   9.407  10.633 -1.6730  0.7894  0.3133
30167SOL     OW97740  10.618   2.974  11.966  0.2714  0.3396  0.0164
30167SOL    HW197741  10.623   2.897  11.909 -2.8896  0.4381 -0.5890
30167SOL    HW297742  10.587   2.940  12.050  0.2911  0.7645  0.1989
30168SOL     OW97743   6.639   4.224   5.200 -0.1927 -0.3819 -0.2351
30168SOL    HW197744   6.713   4.255   5.149 -0.8123 -1.4222 -1.8296
30168SOL    HW297745   6.577   4.190   5.135 -1.3990 -0.9505  1.1507
30169SOL     OW97746   6.410   5.535  11.734 -0.2960 -0.1405 -0.1048
30169SOL    HW197747   6.389   5.564  11.823 -1.6119 -2.0091  0.2651
30169SOL    HW297748   6.374   5.446  11.729 -0.6699  0.0736 -2.6576
30170SOL     OW97749   9.411   7.182   3.322 -0.3482 -0.7084  0.2670
30170SOL    HW197750   9.375   7.271   3.330  0.7826 -0.2204  0.1746
30170SOL    HW297751   9.486   7.181   3.382  1.2598 -0.7127 -1.6130
30171SOL     OW97752  10.880   9.592   7.057 -0.4435  0.4196 -0.3089
30171SOL    HW197753  10.855   9.528   6.990  1.5352 -1.5483  0.7061
30171SOL    HW297754  10.973   9.578   7.070  0.2140  3.9666 -0.3722
30172SOL     OW97755   8.424   2.264   7.332 -0.2269 -0.4034 -0.1596
30172SOL    HW197756   8.371   2.343   7.316  0.6603  0.0201 -1.1495
30172SOL    HW297757   8.366   2.191   7.309 -0.9220 -0.0363  0.3679
30173SOL     OW97758  10.158   6.976  10.827 -0.2013 -0.2764  0.1423
30173SOL    HW197759  10.114   6.977  10.742 -0.2855 -1.6107  0.1382
30173SOL    HW297760  10.227   6.910  10.818  1.1044  0.9874  0.5014
30174SOL     OW97761   3.619  12.697   6.424  0.0528  0.8815  0.1597
30174SOL    HW197762   3.591  12.669   6.511  0.2523 -1.4298 -0.4530
30174SOL    HW297763   3.708  12.731   6.436 -0.4773  1.9816  1.0673
30175SOL     OW97764   5.949   2.940   2.866  0.2113  0.2866  0.4283
30175SOL    HW197765   5.981   3.014   2.814  0.8627  1.0292  1.8011
30175SOL    HW297766   5.901   2.886   2.805  2.3186  0.2338 -1.3124
30176SOL     OW97767   3.574   6.292   6.902 -0.3172 -0.0973  0.1128
30176SOL    HW197768   3.666   6.320   6.892 -0.5509  0.9344  0.6998
30176SOL    HW297769   3.579   6.197   6.909  0.5539 -0.2215 -1.6412
30177SOL     OW97770   3.441   7.658   0.650  0.1899  0.0055  0.4694
30177SOL    HW197771   3.500   7.585   0.670 -0.1048 -0.5722 -0.6514
30177SOL    HW297772   3.420   7.696   0.735  2.3426  0.3839  0.8958
30178SOL     OW97773   0.647   6.767   3.824 -0.6895 -0.4918  0.1343
30178SOL    HW197774   0.675   6.683   3.861  0.2101 -0.4767 -0.4803
30178SOL    HW297775   0.552   6.759   3.813 -0.5535 -1.5844 -0.3157
30179SOL     OW97776  11.814   0.189   2.733 -0.2686 -0.0469  0.0600
30179SOL    HW197777  11.788   0.196   2.824  1.4729 -0.4911  0.6329
30179SOL    HW297778  11.906   0.218   2.732 -0.2322 -0.1376 -1.5213
30180SOL     OW97779  11.520   2.719   7.474 -0.0017 -0.0707 -0.6444
30180SOL    HW197780  11.585   2.788   7.458 -0.5684  1.8993  4.0187
30180SOL    HW297781  11.436   2.765   7.479 -0.6879 -1.3955  0.6033
30181SOL     OW97782  12.121   6.182   5.201 -0.7056 -0.0543 -0.7155
30181SOL    HW197783  12.029   6.164   5.182  0.2379 -2.6283 -3.6013
30181SOL    HW297784  12.168   6.108   5.164  2.5479  0.7722  1.3345
30182SOL     OW97785   1.871   4.677   8.338  0.2184 -0.5408  0.5802
30182SOL    HW197786   1.796   4.630   8.304 -0.9742  1.0837  0.8419
30182SOL    HW297787   1.913   4.714   8.260 -0.5330  0.3379  0.5724
30183SOL     OW97788   3.264  10.782   5.340  0.4465 -0.0820 -0.0944
30183SOL    HW197789   3.288  10.690   5.329  0.1019 -0.6080  2.9220
30183SOL    HW297790   3.348  10.828   5.349  0.7027  0.2372 -2.9086
30184SOL     OW97791   5.370  10.623   9.497  0.0162 -0.0499 -0.1064
30184SOL    HW197792   5.451  10.624   9.549  1.2080  1.0067 -1.8577
30184SOL    HW297793   5.356  10.715   9.474 -2.0236 -0.1452  0.5929
30185SOL     OW97794  11.515  11.561   0.657  0.1015 -0.0304  0.3988
30185SOL    HW197795  11.521  11.471   0.624 -1.1286  0.3163 -0.8940
30185SOL    HW297796  11.444  11.558   0.721  0.6134 -0.1341  0.9685
30186SOL     OW97797   0.842  11.082  11.694  0.8751  0.0580 -0.0745
30186SOL    HW197798   0.776  11.150  11.679 -0.5482 -1.5147 -1.2677
30186SOL    HW297799   0.810  11.034  11.771  1.1847 -0.0887 -0.0364
30187SOL     OW97800   6.314   8.470   5.224  0.2308  0.1298 -0.2502
30187SOL    HW197801   6.342   8.386   5.263 -1.0795 -0.1826  0.0721
30187SOL    HW297802   6.285   8.447   5.136 -0.6181  0.1381  0.0171
30188SOL     OW97803   5.261   1.009   9.753  0.1183 -0.1865 -0.0126
30188SOL    HW197804   5.319   1.054   9.691 -1.4038  0.3145 -1.1337
30188SOL    HW297805   5.247   0.923   9.713 -2.3959  0.7938 -1.4636
30189SOL     OW97806   9.331   9.690   9.911 -0.2642  0.1340  0.1252
30189SOL    HW197807   9.369   9.708   9.997 -1.3901  1.8294  0.3274
30189SOL    HW297808   9.405   9.699   9.850  0.1651  0.9305  0.7357
30190SOL     OW97809   9.075   9.107   0.872  0.3545 -0.2256 -0.7002
30190SOL    HW197810   9.026   9.183   0.902 -0.9741 -1.3136 -0.0187
30190SOL    HW297811   9.130   9.083   0.947 -0.5086 -0.9448 -0.2735
30191SOL     OW97812   0.011   6.857   9.506 -0.8023 -0.3572 -0.3279
30191SOL    HW197813  -0.057   6.794   9.532  0.9834 -2.3142 -0.1438
30191SOL    HW297814   0.051   6.885   9.589  0.9140 -1.9798 -0.5442
30192SOL     OW97815   8.576  10.452   0.036  0.0053  0.1248  0.2990
30192SOL    HW197816   8.525  10.373   0.016  1.0885 -0.4541 -0.2533
30192SOL    HW297817   8.533  10.520  -0.015 -1.7870  0.2379  1.8299
30193SOL     OW97818   5.353   0.617   2.860  0.0713 -0.3293  0.0262
30193SOL    HW197819   5.281   0.623   2.798  1.5952  0.2801 -1.7987
30193SOL    HW297820   5.337   0.537   2.909 -0.8265 -1.2404 -1.6893
30194SOL     OW97821  12.309   1.178   6.015 -0.4423  0.1025  0.1411
30194SOL    HW197822  12.372   1.228   5.964 -1.6130  1.1639 -0.3035
30194SOL    HW297823  12.242   1.241   6.040 -0.6740 -0.7065  1.7386
30195SOL     OW97824   6.239  10.269   4.499 -0.2462 -0.0981 -0.3397
30195SOL    HW197825   6.219  10.230   4.584 -2.4298  1.3915 -0.1103
30195SOL    HW297826   6.197  10.354   4.501 -1.4267 -0.4994 -3.3639
30196SOL     OW97827   6.520  10.474  10.326 -0.3967  0.0827 -0.2014
30196SOL    HW197828   6.480  10.395  10.291 -0.2758  0.0844 -0.3436
30196SOL    HW297829   6.482  10.545  10.275  2.8893 -0.1565 -3.3716
30197SOL     OW97830  12.555   9.261  11.608 -0.1585 -0.0178 -0.4071
30197SOL    HW197831  12.532   9.354  11.609 -0.8277 -0.1460  1.9456
30197SOL    HW297832  12.471   9.216  11.606 -0.1427 -0.4888  3.1558
30198SOL     OW97833   6.402   4.098  10.631  0.7812 -0.8449 -0.1297
30198SOL    HW197834   6.313   4.099  10.595  0.7269  0.2741  0.0064
30198SOL    HW297835   6.390   4.064  10.720  0.3044  0.3672  0.2939
30199SOL     OW97836   6.868   9.688   0.406 -0.4893  0.5088  0.8123
30199SOL    HW197837   6.875   9.656   0.496  2.2576  0.0004  0.5195
30199SOL    HW297838   6.864   9.608   0.352  1.5633  0.6802  0.3369
30200SOL     OW97839  12.002  12.619   5.159 -0.2122 -0.2292  0.4108
30200SOL    HW197840  11.941  12.655   5.223 -0.1041  2.5775 -0.9128
30200SOL    HW297841  11.947  12.591   5.086 -0.0717  0.8149 -0.1152
30201SOL     OW97842   4.259  11.542   8.211  0.4537  0.8465  0.5291
30201SOL    HW197843   4.232  11.471   8.153  2.5313 -1.1887  1.8457
30201SOL    HW297844   4.283  11.498   8.293  0.4848  3.2600  1.9096
30202SOL     OW97845   5.757   9.892   1.999  0.4077  0.5492 -0.3311
30202SOL    HW197846   5.703   9.872   1.922 -1.0303 -0.7951  0.9649
30202SOL    HW297847   5.694   9.913   2.068  1.4904 -1.0564  1.2391
30203SOL     OW97848   3.813  10.224   9.146 -0.1532 -0.7601 -0.6628
30203SOL    HW197849   3.906  10.219   9.123 -0.0152  0.2637 -0.3740
30203SOL    HW297850   3.767  10.207   9.064  0.2873 -1.1876 -0.8259
30204SOL     OW97851   8.135   9.386   8.329  0.2115 -0.0304  0.5227
30204SOL    HW197852   8.175   9.437   8.259  0.0564 -0.3263  0.2166
30204SOL    HW297853   8.198   9.391   8.401  1.3742 -1.4617 -0.3450
30205SOL     OW97854   1.560   7.537   6.508  0.0109  0.0040  0.0453
30205SOL    HW197855   1.500   7.464   6.497 -2.0701  1.5514  0.3939
30205SOL    HW297856   1.549   7.590   6.429  1.0433  0.2515  0.0500
30206SOL     OW97857  11.571  10.602   6.965 -0.4065 -0.3366 -0.3281
30206SOL    HW197858  11.534  10.622   6.879 -1.9494  2.7143  0.8827
30206SOL    HW297859  11.496  10.571   7.016 -0.1261  0.4717  0.6097
30207SOL     OW97860   0.857   3.279   0.443 -0.2760  0.1310  0.1508
30207SOL    HW197861   0.916   3.261   0.370  0.0829  0.6896  0.2888
30207SOL    HW297862   0.782   3.222   0.429  0.8040 -1.4888  0.6082
30208SOL     OW97863  11.306   2.124  11.323  0.0724 -0.0445 -0.4647
30208SOL    HW197864  11.248   2.190  11.360  2.4720  0.9845  1.8113
30208SOL    HW297865  11.378   2.175  11.285  0.1217 -1.2882 -2.1267
30209SOL     OW97866   1.343   5.763  10.951  0.3857 -0.0321 -0.0985
30209SOL    HW197867   1.349   5.842  10.898 -0.0291  0.1754  0.1583
30209SOL    HW297868   1.433   5.733  10.961  0.4785 -0.0187 -0.8354
30210SOL     OW97869   6.172   0.353   3.584  0.2720 -0.2326 -0.8897
30210SOL    HW197870   6.138   0.353   3.674  0.9431 -2.1567 -0.5784
30210SOL    HW297871   6.110   0.406   3.535  1.2196  3.0351  1.1245
30211SOL     OW97872  10.841   9.003  11.315 -0.1338  0.0234  0.3485
30211SOL    HW197873  10.864   8.942  11.245  1.2072  0.0704  0.7318
30211SOL    HW297874  10.794   9.073  11.269  1.0040  0.2161 -0.5855
30212SOL     OW97875  11.274  10.019   4.033  0.6177 -0.0333  0.6129
30212SOL    HW197876  11.258   9.929   4.006  1.8002 -0.2825  0.6998
30212SOL    HW297877  11.239  10.024   4.122  2.1852 -0.9522  1.3212
30213SOL     OW97878   9.866   9.880   7.837  0.4968 -0.1527 -0.0079
30213SOL    HW197879   9.808   9.812   7.803  1.6769 -0.0326 -2.5528
30213SOL    HW297880   9.921   9.836   7.901 -0.3115 -1.0247  0.0942
30214SOL     OW97881  11.077  11.597   9.407  0.3005  0.3038  0.1542
30214SOL    HW197882  11.019  11.524   9.429 -0.0366  0.3100 -0.6730
30214SOL    HW297883  11.035  11.639   9.332  1.0399  0.7079 -0.0394
30215SOL     OW97884   2.301   3.549   3.582  0.1297 -0.5971  0.3205
30215SOL    HW197885   2.350   3.469   3.564  0.7806 -0.6102  2.0060
30215SOL    HW297886   2.226   3.520   3.633 -0.4153 -0.2901 -0.2902
30216SOL     OW97887   2.769   8.281   2.750 -0.1179  0.1211  0.6234
30216SOL    HW197888   2.751   8.208   2.691 -1.1761  2.1946 -1.7953
30216SOL    HW297889   2.773   8.241   2.837  0.8783 -2.9964 -0.7064
30217SOL     OW97890  12.064  11.518   1.137 -0.0213 -0.2279 -0.1763
30217SOL    HW197891  12.003  11.456   1.176  0.6320 -1.0969 -0.5172
30217SOL    HW297892  12.076  11.585   1.204  0.3126 -1.1777  0.7406
30218SOL     OW97893  11.851  10.539   9.140 -0.7439  0.2377  0.2498
30218SOL    HW197894  11.918  10.572   9.200 -0.5840  2.1539 -0.8800
30218SOL    HW297895  11.893  10.465   9.096  0.2802  0.7818  0.2748
30219SOL     OW97896   7.200  12.120  10.862 -0.2315  0.1895 -0.0473
30219SOL    HW197897   7.290  12.089  10.868 -0.4030 -0.2755  0.2349
30219SOL    HW297898   7.207  12.215  10.856  0.2421  0.2189  0.8372
30220SOL     OW97899  11.664  12.269  10.639  0.2017  0.1484  0.5579
30220SOL    HW197900  11.756  12.294  10.633  0.3055  0.2071  2.0199
30220SOL    HW297901  11.623  12.310  10.562  1.3338  0.3365  0.0302
30221SOL     OW97902   5.449   9.279   9.206 -0.2473  0.6515  0.2843
30221SOL    HW197903   5.387   9.211   9.232 -1.0839  0.7491 -1.3294
30221SOL    HW297904   5.428   9.353   9.262 -0.2974  0.0705  1.0563
30222SOL     OW97905   1.295   0.676   8.879  0.3531  0.0879 -0.0147
30222SOL    HW197906   1.304   0.667   8.784  0.6361 -0.5842  0.0741
30222SOL    HW297907   1.309   0.770   8.895  3.4124 -0.2146 -0.3283
30223SOL     OW97908  12.388   5.150   6.270 -0.0871  0.0724  0.9536
30223SOL    HW197909  12.476   5.138   6.235 -1.1529 -2.5769 -1.3161
30223SOL    HW297910  12.397   5.136   6.364  1.8042 -0.9862  0.6663
30224SOL     OW97911   2.306   3.895  12.420  0.2926 -0.4798 -0.4389
30224SOL    HW197912   2.221   3.894  12.464  0.7224  1.0586  0.5124
30224SOL    HW297913   2.289   3.855  12.335 -0.9835 -1.8106  0.3800
30225SOL     OW97914   2.430  12.344  12.241  0.0143 -0.2768 -0.2588
30225SOL    HW197915   2.439  12.250  12.222  0.2509 -0.5125  0.9062
30225SOL    HW297916   2.509  12.384  12.206 -0.4008 -0.3953 -1.3743
30226SOL     OW97917   7.992  11.172  12.246  0.6987  0.4111 -0.0805
30226SOL    HW197918   7.957  11.161  12.158  0.2708  0.7968  0.0397
30226SOL    HW297919   7.950  11.103  12.298 -0.6724  1.4966  0.2906
30227SOL     OW97920   1.795   1.364   1.168  0.1515  0.2614  0.1116
30227SOL    HW197921   1.861   1.365   1.099 -0.3988  3.1690 -0.4936
30227SOL    HW297922   1.844   1.340   1.247  1.2099 -0.9940 -0.8618
30228SOL     OW97923  10.290   7.909   4.490 -0.1915  0.0224  0.0899
30228SOL    HW197924  10.372   7.888   4.536 -0.4325 -0.7992  0.1684
30228SOL    HW297925  10.296   7.861   4.407  0.0494  1.1470 -0.5622
30229SOL     OW97926   7.420   1.412   9.869  0.7362  0.5765 -0.0887
30229SOL    HW197927   7.418   1.335   9.926  1.1777  0.5012 -0.1660
30229SOL    HW297928   7.463   1.479   9.922 -0.1650  0.9445  0.1832
30230SOL     OW97929   7.258   4.315   2.451 -0.1312 -0.1449  0.0122
30230SOL    HW197930   7.250   4.411   2.451 -0.1607 -0.1473  0.3463
30230SOL    HW297931   7.224   4.289   2.365 -1.8871 -0.0069  0.6214
30231SOL     OW97932   1.455  11.659   9.172  0.0196  0.1408  0.2667
30231SOL    HW197933   1.523  11.643   9.107 -1.6342  3.0485 -2.4618
30231SOL    HW297934   1.483  11.738   9.218 -0.7695  0.5138  0.1324
30232SOL     OW97935   9.192   7.073   8.142  0.0196  0.2690  0.1937
30232SOL    HW197936   9.197   7.036   8.054  0.2988 -0.3921  0.4759
30232SOL    HW297937   9.263   7.030   8.190 -0.4887  0.1845  0.8932
30233SOL     OW97938   9.736   0.262  12.471 -0.2791 -0.0256  0.4189
30233SOL    HW197939   9.785   0.336  12.436 -0.7449 -0.1096 -0.4301
30233SOL    HW297940   9.646   0.278  12.444 -0.6998  0.0284  1.7957
30234SOL     OW97941   5.943   2.318  12.390 -0.6882  0.2180 -0.0392
30234SOL    HW197942   6.016   2.275  12.435 -1.0322  0.7808  1.0905
30234SOL    HW297943   5.976   2.405  12.370 -0.8491  0.2749 -0.0580
30235SOL     OW97944   2.369  12.700   2.274  0.1877  0.5446  0.1127
30235SOL    HW197945   2.302  12.739   2.331 -1.6838 -0.2621 -1.4129
30235SOL    HW297946   2.353  12.740   2.188  1.6541  0.2737 -0.3168
30236SOL     OW97947  10.331   9.931   6.404  0.2044  0.3120 -0.0716
30236SOL    HW197948  10.326   9.941   6.309 -2.1936  0.3471 -0.0154
30236SOL    HW297949  10.417   9.894   6.420  0.3407 -0.5046 -2.3405
30237SOL     OW97950   1.721   7.636  10.726 -0.5492 -0.3617  0.7049
30237SOL    HW197951   1.697   7.567  10.664 -2.0917 -0.2375  1.1295
30237SOL    HW297952   1.755   7.706  10.671 -1.7959 -0.2898 -0.0230
30238SOL     OW97953  12.383   3.872   4.932  0.1586 -0.3499 -0.1433
30238SOL    HW197954  12.340   3.791   4.960  2.7221 -1.1100  1.9808
30238SOL    HW297955  12.409   3.914   5.014 -2.3357  3.5180 -1.0594
30239SOL     OW97956   1.222   7.776   3.955 -0.4431  0.4753 -0.0058
30239SOL    HW197957   1.262   7.689   3.950 -1.4517 -0.0405  0.6944
30239SOL    HW297958   1.291   7.835   3.924  0.2541 -0.5636 -0.5087
30240SOL     OW97959   1.522   6.469   5.093 -0.1159  0.0759 -0.4393
30240SOL    HW197960   1.467   6.406   5.140 -0.5448 -0.0922 -1.1568
30240SOL    HW297961   1.579   6.416   5.038  0.1800  0.2832 -0.3333
30241SOL     OW97962   2.525   3.150   2.500  0.3724 -0.4572 -0.1596
30241SOL    HW197963   2.474   3.176   2.423  0.3228  1.5654  0.5056
30241SOL    HW297964   2.462   3.105   2.556  0.3096 -1.5724 -1.0696
30242SOL     OW97965   1.416   8.233   0.425 -0.4719 -0.6055 -0.0819
30242SOL    HW197966   1.457   8.317   0.447 -1.3936 -0.0771 -0.3266
30242SOL    HW297967   1.453   8.171   0.488 -0.2140  0.1026  0.4806
30243SOL     OW97968   9.970  10.037  11.833 -0.8943  0.3526  0.2646
30243SOL    HW197969  10.012   9.952  11.841 -1.8410 -0.2159 -0.5807
30243SOL    HW297970  10.041  10.100  11.843  0.3379 -0.5677 -1.9022
30244SOL     OW97971   5.286   7.768  12.421  0.5063 -0.2726 -0.3114
30244SOL    HW197972   5.212   7.823  12.396 -0.5977 -1.4902  0.1579
30244SOL    HW297973   5.309   7.797  12.510 -1.2884 -1.7244  0.6999
30245SOL     OW97974   9.562   7.089   4.222  0.0980  0.1347 -0.2293
30245SOL    HW197975   9.477   7.073   4.183  0.7159 -2.8135 -0.5767
30245SOL    HW297976   9.546   7.156   4.288 -2.2204  0.5299 -1.1084
30246SOL     OW97977   4.059   5.377   8.814  0.4387  0.3099 -0.0807
30246SOL    HW197978   4.023   5.387   8.902 -0.8030  0.7119 -0.6117
30246SOL    HW297979   4.130   5.440   8.810 -0.7498  1.7076  0.0108
30247SOL     OW97980  11.888  10.008  11.391 -0.2850 -0.2570  0.0136
30247SOL    HW197981  11.912  10.053  11.472 -0.6338 -0.8176  0.4400
30247SOL    HW297982  11.971   9.996  11.345 -0.1149  0.2833  0.1736
30248SOL     OW97983   5.915   4.558   1.892  0.5145 -0.5634  0.4118
30248SOL    HW197984   5.855   4.548   1.818 -0.7068  1.6223  0.9890
30248SOL    HW297985   5.992   4.601   1.854 -0.2648  0.9073  0.4069
30249SOL     OW97986  12.035   6.240   4.547 -0.5098 -0.5932  0.2791
30249SOL    HW197987  12.033   6.334   4.532  0.4968 -0.8284 -1.6199
30249SOL    HW297988  11.969   6.204   4.487 -0.2336 -1.1682  0.3065
30250SOL     OW97989  10.657   8.242  11.579  0.1429  0.8454 -0.2751
30250SOL    HW197990  10.627   8.301  11.510  1.6866  1.9986  0.0012
30250SOL    HW297991  10.733   8.285  11.617 -0.4512  0.0814  1.9411
30251SOL     OW97992   6.838   7.105   7.351  0.1105  0.1598 -0.1463
30251SOL    HW197993   6.904   7.170   7.373 -1.8256  2.0992  0.2756
30251SOL    HW297994   6.788   7.144   7.279 -2.1615 -0.0188  1.2288
30252SOL     OW97995   9.340   6.871   2.186 -0.2250 -0.1391 -0.2371
30252SOL    HW197996   9.432   6.885   2.210 -0.1190  0.1477 -0.8021
30252SOL    HW297997   9.316   6.790   2.231  1.1558 -1.8194 -2.3728
30253SOL     OW97998   3.516   9.132   6.842 -0.0364  0.2966 -0.0688
30253SOL    HW197999   3.522   9.076   6.764 -2.6552 -0.9779  0.5592
30253SOL    HW298000   3.509   9.221   6.806 -0.3405 -0.1861 -1.2680
30254SOL     OW98001  12.697   9.877   7.360 -0.4316  0.4284  0.3058
30254SOL    HW198002  12.754   9.885   7.437 -0.6369 -0.1127  0.5206
30254SOL    HW298003  12.734   9.804   7.310 -1.6989 -0.8305  1.1320
30255SOL     OW98004   2.880   5.555   3.089  0.2573  1.1922 -0.4454
30255SOL    HW198005   2.812   5.601   3.040 -0.5710  1.8680  1.2535
30255SOL    HW298006   2.959   5.606   3.074  0.2958  0.7606 -1.9226
30256SOL     OW98007   8.508  12.062   4.171 -0.5149  0.1217  0.5770
30256SOL    HW198008   8.593  12.053   4.129 -1.5548  0.8238 -1.8891
30256SOL    HW298009   8.527  12.100   4.257  1.5299  2.0523 -0.6303
30257SOL     OW98010   2.930  12.270   6.375  0.2692  0.1758 -0.9618
30257SOL    HW198011   2.868  12.215   6.423 -0.2034  1.0883 -0.5163
30257SOL    HW298012   3.009  12.270   6.430  1.0986 -1.8632 -2.0412
30258SOL     OW98013  10.181   9.924   9.587  0.0943  0.5148  0.2205
30258SOL    HW198014  10.190   9.853   9.524 -0.3249  0.8403 -0.2040
30258SOL    HW298015  10.119   9.985   9.547 -2.4129 -0.6045  2.1082
30259SOL     OW98016  11.081   9.262   3.512 -0.3549 -0.7197 -0.2914
30259SOL    HW198017  11.154   9.260   3.574  1.5163 -0.4324 -2.3234
30259SOL    HW298018  11.094   9.343   3.462 -1.3130 -1.2925 -1.5421
30260SOL     OW98019   0.692   5.000  12.519 -0.0416 -0.0514 -0.0393
30260SOL    HW198020   0.736   5.004  12.604 -0.0090  0.9660 -0.1021
30260SOL    HW298021   0.621   5.063  12.526  0.6978  0.9331 -1.1845
30261SOL     OW98022   1.343   9.006   5.494  0.0018  0.8515  0.0132
30261SOL    HW198023   1.251   8.983   5.485  0.0314 -0.3720  2.1582
30261SOL    HW298024   1.363   8.991   5.587  2.2326  1.5704 -0.2790
30262SOL     OW98025   4.095   3.200   3.285  0.1347 -0.5999 -0.5563
30262SOL    HW198026   4.134   3.130   3.336 -0.5806  0.4824  1.6243
30262SOL    HW298027   4.003   3.202   3.313 -0.1132  0.5157 -1.3586
30263SOL     OW98028   1.746   0.145   3.860 -0.1259 -0.3200 -0.2532
30263SOL    HW198029   1.654   0.172   3.863 -0.2183 -0.5455 -0.8479
30263SOL    HW298030   1.755   0.101   3.776  0.5450 -0.2459 -0.2273
30264SOL     OW98031   2.889  11.845  11.694 -0.5014 -0.5319  0.4229
30264SOL    HW198032   2.914  11.839  11.786  0.7271 -0.6659  0.1076
30264SOL    HW298033   2.925  11.928  11.664  1.3028 -1.5716 -0.5138
30265SOL     OW98034  12.527   9.135   2.109 -0.2079  0.0308  0.5906
30265SOL    HW198035  12.607   9.107   2.153  0.3814  2.2101  1.0426
30265SOL    HW298036  12.525   9.083   2.028  0.7543 -1.2519  1.3486
30266SOL     OW98037   0.420  12.140   7.365  0.4916  0.0671 -0.5229
30266SOL    HW198038   0.374  12.056   7.361  0.8335 -0.1505 -0.0315
30266SOL    HW298039   0.472  12.143   7.285  1.2105 -0.6280 -0.0961
30267SOL     OW98040   2.988   2.888   5.001 -0.3902  0.2113  0.1199
30267SOL    HW198041   3.060   2.838   5.040 -1.7590 -0.7657  1.4853
30267SOL    HW298042   2.997   2.873   4.907  1.0584 -0.0460  0.2775
30268SOL     OW98043   3.840   0.937   9.295 -0.2559 -0.3068 -0.8992
30268SOL    HW198044   3.844   0.948   9.200  0.5981  0.7611 -0.7563
30268SOL    HW298045   3.912   0.989   9.328 -2.4172  1.9684  0.5555
30269SOL     OW98046   8.466   4.503   8.636 -0.4756  0.8117  0.8811
30269SOL    HW198047   8.390   4.452   8.608 -0.1557  0.6316  0.3135
30269SOL    HW298048   8.448   4.525   8.727 -0.7807 -0.0242  1.0347
30270SOL     OW98049   7.752   6.777   3.320  0.0741  0.0224  0.6023
30270SOL    HW198050   7.697   6.704   3.350 -0.0139  0.3856  1.3504
30270SOL    HW298051   7.830   6.735   3.284 -0.7494 -0.5086 -0.6275
30271SOL     OW98052   0.016   8.779   5.175 -0.3976 -0.2944 -0.1327
30271SOL    HW198053   0.039   8.686   5.184  3.7447  0.2550 -2.4531
30271SOL    HW298054  -0.032   8.784   5.093 -1.9586 -0.4592  0.7260
30272SOL     OW98055  10.034   3.166   2.435 -0.1879 -0.4409 -0.3896
30272SOL    HW198056  10.129   3.166   2.434 -0.1798 -1.4448 -0.5758
30272SOL    HW298057  10.009   3.214   2.356  0.1510  0.1162 -0.1650
30273SOL     OW98058   4.655   6.689   8.047  0.8974 -0.0660  0.3736
30273SOL    HW198059   4.605   6.701   8.128  1.8485  0.8045  0.8423
30273SOL    HW298060   4.719   6.621   8.068  1.7329  0.7852  0.6491
30274SOL     OW98061  11.850   0.160   0.284  0.0685  0.2401 -0.1734
30274SOL    HW198062  11.851   0.251   0.315 -0.3224  0.0780  0.3279
30274SOL    HW298063  11.914   0.159   0.213  1.0982  0.6006  0.7050
30275SOL     OW98064   0.021   5.682   3.594  0.4012 -0.9277 -0.2961
30275SOL    HW198065   0.026   5.775   3.571  1.2915 -0.5978  1.1097
30275SOL    HW298066  -0.028   5.680   3.677 -0.1427 -1.7849 -0.6174
30276SOL     OW98067   7.338   3.411   8.159  0.2639 -0.0442 -0.4088
30276SOL    HW198068   7.407   3.475   8.176 -0.3384 -0.1719  3.3497
30276SOL    HW298069   7.381   3.326   8.166 -0.1967 -0.1323  2.2204
30277SOL     OW98070   8.291   3.773  12.324  0.1883 -0.2144  0.1559
30277SOL    HW198071   8.257   3.724  12.399  2.1024 -0.5087  0.8912
30277SOL    HW298072   8.252   3.731  12.248 -0.3215 -1.1453  0.9123
30278SOL     OW98073   7.970   2.713  11.865 -0.1793  0.5948  0.5729
30278SOL    HW198074   7.962   2.789  11.808  0.4469  1.0866  1.1130
30278SOL    HW298075   7.919   2.736  11.943 -1.8716 -0.4823 -0.1663
30279SOL     OW98076  10.259  11.282   2.262 -0.2824  0.1114 -0.7330
30279SOL    HW198077  10.283  11.302   2.171  1.7125 -1.5767 -0.6808
30279SOL    HW298078  10.324  11.217   2.289 -0.3028  1.1654  2.1954
30280SOL     OW98079   3.626   2.878   1.144  1.2890 -0.1845  0.4643
30280SOL    HW198080   3.622   2.829   1.063  2.4501 -1.1190  0.9407
30280SOL    HW298081   3.600   2.815   1.212 -0.7761  0.8755  0.7543
30281SOL     OW98082   6.103   7.534   4.636 -0.2183 -0.0194  0.3638
30281SOL    HW198083   6.092   7.439   4.638 -0.5980  0.0158  0.0996
30281SOL    HW298084   6.025   7.568   4.679 -0.3660  0.1891 -0.0666
30282SOL     OW98085   9.821   8.857   0.116 -1.0394 -0.1726  0.0735
30282SOL    HW198086   9.870   8.931   0.079  1.1716 -1.2649  0.6256
30282SOL    HW298087   9.884   8.785   0.116 -2.3110 -1.3590  1.9362
30283SOL     OW98088  12.672  12.438   4.290 -0.2680  0.9030  0.0374
30283SOL    HW198089  12.757  12.395   4.288 -0.5768  0.2698  0.0749
30283SOL    HW298090  12.673  12.490   4.371 -1.0643 -1.5753  1.7653
30284SOL     OW98091   3.911   6.458   8.873 -0.0564  0.2172 -0.4320
30284SOL    HW198092   4.000   6.471   8.906 -1.1317  2.0205  2.1239
30284SOL    HW298093   3.893   6.535   8.819  0.0463 -0.3415 -1.2781
30285SOL     OW98094   8.973  12.067   4.207  0.6534 -0.1432  0.0809
30285SOL    HW198095   8.920  12.132   4.253  0.4444  0.3295 -0.8091
30285SOL    HW298096   9.062  12.101   4.210  0.4276  0.6454 -1.1066
30286SOL     OW98097   0.907   8.991   1.233 -0.4632  0.0860  0.0597
30286SOL    HW198098   0.891   8.906   1.276 -1.2353 -0.4663 -1.2718
30286SOL    HW298099   0.877   8.979   1.143  0.7342  1.3506 -0.5464
30287SOL     OW98100   1.996   6.150   8.851  0.0733  0.5193 -0.1255
30287SOL    HW198101   1.944   6.074   8.877  1.5650 -0.1648  1.0050
30287SOL    HW298102   1.955   6.224   8.895  0.5680 -0.1479  1.5271
30288SOL     OW98103   9.282   6.148  11.108 -0.7501 -0.0842 -0.3967
30288SOL    HW198104   9.285   6.215  11.176  1.5120 -0.3144 -0.1933
30288SOL    HW298105   9.189   6.140  11.086 -1.2669  1.7316  0.9169
30289SOL     OW98106   3.157   8.442   7.087 -0.4474  0.0757  0.2759
30289SOL    HW198107   3.237   8.401   7.055  1.0025  1.6696  1.7013
30289SOL    HW298108   3.123   8.491   7.012  0.1974 -0.1622 -0.1773
30290SOL     OW98109   0.884  12.045  11.765  0.3971 -0.7756 -0.8326
30290SOL    HW198110   0.910  11.990  11.839 -0.9389  0.2291  0.4491
30290SOL    HW298111   0.790  12.061  11.779  0.4566  0.7227 -1.8907
30291SOL     OW98112  11.209   5.616   0.746  0.2682 -0.6885  0.5950
30291SOL    HW198113  11.132   5.591   0.696  0.5250  0.0179 -0.1745
30291SOL    HW298114  11.219   5.547   0.811 -0.6858 -1.0703  0.3459
30292SOL     OW98115   9.262   6.474  11.509 -0.3858  0.1326 -0.1070
30292SOL    HW198116   9.173   6.506  11.523 -0.9777 -0.8699 -1.3609
30292SOL    HW298117   9.301   6.471  11.596 -2.0459 -0.7309  0.6487
30293SOL     OW98118   0.435  10.620   0.523 -0.1321  0.4068  0.0202
30293SOL    HW198119   0.530  10.630   0.530  0.0153 -0.8164  0.0056
30293SOL    HW298120   0.422  10.527   0.506 -1.3995  0.3241  1.2330
30294SOL     OW98121   4.910   0.244   6.424 -0.2688 -0.1865 -0.0204
30294SOL    HW198122   4.875   0.249   6.336  0.5081 -1.1479 -0.3997
30294SOL    HW298123   4.994   0.291   6.419  0.0747 -0.7875  0.0448
30295SOL     OW98124  10.944   7.717  10.761  0.0319  0.4128 -0.1971
30295SOL    HW198125  11.038   7.715  10.774 -0.1581 -0.2634  1.3306
30295SOL    HW298126  10.932   7.745  10.670  1.6370  3.0644  0.3079
30296SOL     OW98127   9.134  11.867   9.955  0.1239  0.3762 -0.3665
30296SOL    HW198128   9.221  11.829   9.962  0.2802  0.9123  0.7623
30296SOL    HW298129   9.116  11.904  10.041 -1.5874 -0.5026 -0.2835
30297SOL     OW98130   0.916   1.364   2.548 -0.1254  0.4136 -0.3603
30297SOL    HW198131   0.845   1.302   2.566  0.4112 -0.6234 -1.6702
30297SOL    HW298132   0.988   1.335   2.604 -0.5381  1.1981  0.6325
30298SOL     OW98133   0.744   8.728  10.299 -0.3755  0.1628  0.5438
30298SOL    HW198134   0.752   8.738  10.204  1.1544  1.7164  0.7982
30298SOL    HW298135   0.777   8.640  10.316 -0.4086 -0.0305 -0.3327
30299SOL     OW98136  11.928  10.913   2.254 -0.3066 -0.5251  0.0980
30299SOL    HW198137  11.875  10.834   2.262 -0.3980 -0.5191 -0.3945
30299SOL    HW298138  12.007  10.885   2.207  1.8234 -1.3084  3.7787
30300SOL     OW98139  11.270   8.144   3.320 -0.3893  0.6125  0.0418
30300SOL    HW198140  11.251   8.109   3.407 -1.3014 -0.1087 -0.4209
30300SOL    HW298141  11.271   8.067   3.263  0.1351  1.0807 -0.5979
30301SOL     OW98142  11.930   1.869   3.121 -0.3041 -0.2077  0.1210
30301SOL    HW198143  11.861   1.934   3.136 -0.4061 -0.6719  1.9804
30301SOL    HW298144  11.909   1.798   3.181  2.6806  0.3639  2.0864
30302SOL     OW98145  10.014  12.668  10.439 -0.0773 -0.0633  0.3708
30302SOL    HW198146  10.023  12.588  10.491 -0.5920  0.3626  1.1387
30302SOL    HW298147  10.077  12.657  10.368 -0.4032 -1.3100  0.2452
30303SOL     OW98148   6.543   3.200   2.762  0.0170 -0.4597 -0.0312
30303SOL    HW198149   6.601   3.177   2.835  0.3477 -0.1494 -0.1928
30303SOL    HW298150   6.501   3.282   2.790 -0.4910 -0.7817  0.1662
30304SOL     OW98151  11.251   5.639   8.161  0.6549  0.1274 -0.3211
30304SOL    HW198152  11.275   5.547   8.172 -0.0721 -0.0563 -0.2666
30304SOL    HW298153  11.234   5.649   8.067 -1.7838 -0.4294  0.0081
30305SOL     OW98154   9.841  11.622   0.222 -0.5514 -0.3809  0.4007
30305SOL    HW198155   9.801  11.551   0.172  0.2301  0.2066 -1.1241
30305SOL    HW298156   9.935  11.614   0.204 -0.6463  2.7920 -2.3208
30306SOL     OW98157  11.778   5.247  10.534  0.2285 -0.0769 -0.0014
30306SOL    HW198158  11.825   5.231  10.615  1.0751  1.4889 -0.1402
30306SOL    HW298159  11.736   5.333  10.547  0.7688  0.4248 -1.3748
30307SOL     OW98160  10.602   6.664   4.048  0.1399  0.5655 -0.2570
30307SOL    HW198161  10.590   6.575   4.014  0.1362  0.6112 -0.3731
30307SOL    HW298162  10.582   6.655   4.142 -0.6959  0.6104 -0.4156
30308SOL     OW98163  11.302   1.963   0.306 -0.5772  0.2050 -0.0139
30308SOL    HW198164  11.386   2.004   0.285  0.1747 -0.4428  1.5173
30308SOL    HW298165  11.241   2.036   0.313 -0.0751  0.7197 -0.8617
30309SOL     OW98166   2.705   5.588   5.107 -0.0201  0.1720 -0.0631
30309SOL    HW198167   2.689   5.495   5.091 -1.2436  0.4111 -0.3168
30309SOL    HW298168   2.628   5.617   5.156  0.5692  0.9551  0.4251
30310SOL     OW98169   9.650   9.288   5.035  0.3228  0.2261  0.4923
30310SOL    HW198170   9.618   9.201   5.058  1.1229  0.0395  0.9198
30310SOL    HW298171   9.737   9.293   5.074  1.0639  0.5086 -1.1421
30311SOL     OW98172   8.705   8.699   7.183 -0.7722 -0.7582  0.3403
30311SOL    HW198173   8.715   8.759   7.256 -1.2823 -1.0602  0.6704
30311SOL    HW298174   8.648   8.630   7.217 -2.6043  0.0528 -0.8945
30312SOL     OW98175  11.904   5.564  10.736  0.5888  0.2241 -0.7926
30312SOL    HW198176  11.970   5.517  10.786  0.4404  1.0839  0.2453
30312SOL    HW298177  11.826   5.508  10.740  0.2457  0.7698  0.8982
30313SOL     OW98178   9.354   4.577   3.282 -0.2249  0.3220  0.3988
30313SOL    HW198179   9.300   4.645   3.242 -1.2122 -0.6153  0.0982
30313SOL    HW298180   9.428   4.568   3.221 -0.7047  0.2861 -0.1894
30314SOL     OW98181   4.119   1.010   0.344  0.1640 -0.2329 -0.3689
30314SOL    HW198182   4.059   1.064   0.396 -0.3490 -0.2386 -0.9400
30314SOL    HW298183   4.206   1.044   0.365 -0.2022  1.4897 -1.4409
30315SOL     OW98184   8.342   9.907  10.223 -1.0181 -0.1131 -0.4973
30315SOL    HW198185   8.405   9.976  10.202 -0.6995 -0.7406 -1.6576
30315SOL    HW298186   8.283   9.947  10.286 -0.9597  1.2911 -1.3048
30316SOL     OW98187   1.302   4.361  11.717  0.0034 -0.5442  0.3107
30316SOL    HW198188   1.390   4.399  11.723  0.2669 -1.2089  0.8834
30316SOL    HW298189   1.248   4.431  11.681  0.9856 -0.4732 -1.1475
30317SOL     OW98190   0.250   3.273   4.128 -0.0648 -0.1946  0.4829
30317SOL    HW198191   0.296   3.209   4.183 -0.0397 -0.0896  0.5823
30317SOL    HW298192   0.206   3.219   4.062  1.8124 -0.1985 -0.8510
30318SOL     OW98193   5.299   9.482   9.723 -0.5987 -0.1228  0.1492
30318SOL    HW198194   5.279   9.424   9.649 -3.1942  0.7500  0.0688
30318SOL    HW298195   5.230   9.548   9.721  0.2206  0.8899  2.3761
30319SOL     OW98196  10.699   9.111   9.289  0.0000  0.0972  0.5203
30319SOL    HW198197  10.646   9.162   9.228 -1.2685 -1.9065 -0.1553
30319SOL    HW298198  10.771   9.078   9.236 -0.3587 -0.5370  0.4212
30320SOL     OW98199  11.713  11.477  10.588 -0.0069 -0.2512 -0.5756
30320SOL    HW198200  11.733  11.503  10.498 -0.3692 -1.3907 -1.0103
30320SOL    HW298201  11.730  11.555  10.640 -2.1522  1.2218 -1.9267
30321SOL     OW98202   9.226   2.523   5.502  0.2843  0.1352 -0.5910
30321SOL    HW198203   9.195   2.434   5.521  0.4125  0.3672  0.8444
30321SOL    HW298204   9.181   2.578   5.566  2.7658  0.6267  0.8723
30322SOL     OW98205  11.392   6.306   9.231 -0.9045  0.2033 -0.1243
30322SOL    HW198206  11.456   6.341   9.293  1.4697  0.4398 -2.5295
30322SOL    HW298207  11.427   6.221   9.206 -2.9747 -0.8792  0.4160
30323SOL     OW98208   5.632  10.593   9.382 -0.2284  0.1631 -0.1804
30323SOL    HW198209   5.633  10.631   9.470 -1.1635 -0.9768  0.3564
30323SOL    HW298210   5.639  10.498   9.398  1.1750  0.0192 -1.4195
30324SOL     OW98211  11.369   8.916   9.278  0.1164  0.0435  0.0946
30324SOL    HW198212  11.422   8.846   9.240  1.0995 -0.0565  1.5963
30324SOL    HW298213  11.422   8.952   9.348 -1.4332  0.5799  1.0463
30325SOL     OW98214   1.924   1.006   2.506 -0.3952 -0.2278 -0.0800
30325SOL    HW198215   1.864   1.076   2.531  0.3013  0.6993 -0.9276
30325SOL    HW298216   1.947   1.026   2.415 -0.3804 -1.7048 -0.4191
30326SOL     OW98217  12.180  12.118  10.478 -0.2910  0.4239 -0.2124
30326SOL    HW198218  12.264  12.150  10.448  0.5736 -1.3821  0.1330
30326SOL    HW298219  12.187  12.115  10.573 -0.9301  0.7239 -0.1480
30327SOL     OW98220   4.560  10.817   1.092 -0.5671  0.0569 -0.2936
30327SOL    HW198221   4.561  10.907   1.059 -4.7533  0.6145  0.6003
30327SOL    HW298222   4.515  10.767   1.024  1.8849 -1.5408 -0.8797
30328SOL     OW98223   7.108   7.314  12.317 -0.1928 -0.3624  0.4467
30328SOL    HW198224   7.142   7.402  12.334 -1.9433  0.0128  2.5566
30328SOL    HW298225   7.015   7.328  12.298 -0.3734 -1.7349  0.2023
30329SOL     OW98226   0.576  11.293   9.958 -0.0252 -0.3174  0.0159
30329SOL    HW198227   0.608  11.207   9.929  1.1436  0.0325  0.2168
30329SOL    HW298228   0.534  11.276  10.042  0.6961 -0.6048  0.3203
30330SOL     OW98229   8.839   2.906   7.556 -0.2149  0.1661  0.6297
30330SOL    HW198230   8.828   2.847   7.482  0.7744  0.0175  0.5830
30330SOL    HW298231   8.899   2.974   7.524 -2.4019  2.0302  0.2122
30331SOL     OW98232   0.748   3.685  12.298 -0.1435 -0.7652 -0.2278
30331SOL    HW198233   0.659   3.692  12.332  0.0093 -0.8083  0.1878
30331SOL    HW298234   0.737   3.681  12.202 -0.5289  0.1022 -0.2276
30332SOL     OW98235   7.148   9.859  11.669 -0.0166  0.4146 -0.0146
30332SOL    HW198236   7.141   9.812  11.586 -0.8738 -1.1162  0.9051
30332SOL    HW298237   7.073   9.831  11.720  0.8765  0.7752  1.5681
30333SOL     OW98238   5.416   5.282   2.901  0.4641  0.2533  0.5237
30333SOL    HW198239   5.507   5.310   2.895  0.5185 -0.2308 -2.0003
30333SOL    HW298240   5.413   5.224   2.978  1.9626  1.2484  1.3761
30334SOL     OW98241   3.651   2.504   5.790 -0.4726 -0.1655  0.4771
30334SOL    HW198242   3.640   2.465   5.703  0.0607 -0.6055  0.6010
30334SOL    HW298243   3.576   2.474   5.840 -1.3846  0.9986 -0.1443
30335SOL     OW98244   4.773   1.536   8.599  0.1586 -0.4273  0.0764
30335SOL    HW198245   4.778   1.560   8.506  0.1359 -0.2874  0.1108
30335SOL    HW298246   4.692   1.578   8.630  1.4009  1.6331  0.7637
30336SOL     OW98247   9.776   5.641   4.145 -0.0291  0.0944  0.5327
30336SOL    HW198248   9.818   5.723   4.120 -1.8605  1.0294  0.3863
30336SOL    HW298249   9.753   5.653   4.237  0.1663 -0.4829  0.6637
30337SOL     OW98250  11.794  12.185   0.258  0.1813 -0.5778  0.4529
30337SOL    HW198251  11.842  12.265   0.282  1.7813 -1.1594 -0.6225
30337SOL    HW298252  11.835  12.117   0.311 -1.7699 -0.6137  2.0348
30338SOL     OW98253   1.279   5.633   2.034  0.1607  0.1754 -0.0361
30338SOL    HW198254   1.236   5.671   2.111 -0.5552  1.4791 -1.0329
30338SOL    HW298255   1.220   5.654   1.961  2.0380  1.2246 -1.3255
30339SOL     OW98256   1.557  12.039  12.135 -0.0719 -0.3693  0.8126
30339SOL    HW198257   1.515  12.109  12.085  0.5674  0.6771  1.6802
30339SOL    HW298258   1.574  11.970  12.071 -0.1294  0.5356 -0.2045
30340SOL     OW98259   7.562   6.626   3.409 -0.4702 -0.1361  0.0402
30340SOL    HW198260   7.551   6.686   3.482  1.3412 -1.4097  1.4419
30340SOL    HW298261   7.522   6.544   3.439  0.1338 -0.6234 -0.4549
30341SOL     OW98262   3.556   3.328  12.356  0.3541  0.0221 -0.6545
30341SOL    HW198263   3.562   3.384  12.434  0.1482  1.3100 -1.5337
30341SOL    HW298264   3.592   3.382  12.286  1.4724 -1.4805 -1.2956
30342SOL     OW98265   4.060  12.146   8.102 -0.1294 -0.0176 -0.5854
30342SOL    HW198266   4.053  12.055   8.129 -0.1461  0.8016  2.5211
30342SOL    HW298267   3.971  12.170   8.076 -0.9851 -0.0135  2.0106
30343SOL     OW98268  10.774   1.715   1.464  0.2276  0.3647  0.2973
30343SOL    HW198269  10.860   1.683   1.436 -0.5757 -2.0074  0.3414
30343SOL    HW298270  10.718   1.637   1.462 -1.3411  1.3467  2.6190
30344SOL     OW98271   2.820   9.303   0.177 -0.2427  0.1242  0.4328
30344SOL    HW198272   2.766   9.224   0.176  0.2548 -0.2607  1.7607
30344SOL    HW298273   2.908   9.272   0.155 -0.1924  0.4565  0.1448
30345SOL     OW98274   6.434   0.186   4.103 -0.2042 -0.3798 -0.1188
30345SOL    HW198275   6.422   0.112   4.043 -1.5678 -0.7586  0.5772
30345SOL    HW298276   6.431   0.263   4.047 -1.4777 -0.7247 -0.5580
30346SOL     OW98277   7.006   0.819  12.368  0.5091 -0.2233  0.0042
30346SOL    HW198278   6.955   0.873  12.428 -0.9600 -1.8728  0.3209
30346SOL    HW298279   7.030   0.878  12.296 -1.8606  0.6275 -0.1599
30347SOL     OW98280   7.706   4.681   0.503  0.0105 -0.2202 -0.5018
30347SOL    HW198281   7.766   4.725   0.562  0.0803  0.6765 -1.2295
30347SOL    HW298282   7.660   4.618   0.559 -0.0907  0.7610  0.5629
30348SOL     OW98283   2.411   3.068   9.774  0.1891 -0.5414  0.1289
30348SOL    HW198284   2.360   3.146   9.797 -1.3409 -1.0548 -1.3345
30348SOL    HW298285   2.501   3.091   9.799  0.0063  2.1763 -1.2731
30349SOL     OW98286   6.021   6.719   3.042  0.2339  0.4327  0.4908
30349SOL    HW198287   6.032   6.758   2.956 -1.9997 -1.2368 -0.6619
30349SOL    HW298288   5.974   6.785   3.093 -0.1632  0.7065 -0.2157
30350SOL     OW98289  12.009   1.903   5.675  0.2644 -0.7390  0.1079
30350SOL    HW198290  11.985   1.818   5.712  1.4699 -0.1197  2.4949
30350SOL    HW298291  12.098   1.891   5.644  0.5012 -0.3195  0.6135
30351SOL     OW98292   3.391   4.493   0.079  0.2607  0.5860 -0.4465
30351SOL    HW198293   3.485   4.489   0.093  0.1747 -2.5973 -0.0625
30351SOL    HW298294   3.364   4.577   0.116  2.6762  0.7596  1.0899
30352SOL     OW98295  12.505   7.246   1.055 -0.1944  0.3191 -0.4557
30352SOL    HW198296  12.573   7.243   1.122 -0.5872 -4.4218  0.1315
30352SOL    HW298297  12.547   7.286   0.979  1.7703  1.5367  1.1849
30353SOL     OW98298   4.054   7.412   9.385  0.5322 -0.0043  0.0682
30353SOL    HW198299   3.995   7.463   9.441 -0.8985  0.7944 -2.0374
30353SOL    HW298300   4.097   7.351   9.445 -1.0420  0.6791  2.0016
30354SOL     OW98301   8.719   0.598   3.136 -0.4376 -0.2399 -0.0488
30354SOL    HW198302   8.797   0.590   3.191 -0.9789  1.1865  1.0122
30354SOL    HW298303   8.738   0.546   3.058  1.4891 -0.0676  0.2696
30355SOL     OW98304   0.345   2.696   5.447  0.6150 -0.5642 -0.1509
30355SOL    HW198305   0.434   2.665   5.433  0.0861 -1.5942 -1.4442
30355SOL    HW298306   0.353   2.791   5.449  1.4058 -0.4645 -3.2299
30356SOL     OW98307   7.708   0.305   8.266 -0.3224 -0.0908  0.1488
30356SOL    HW198308   7.652   0.358   8.322 -1.9489  0.0480 -1.5080
30356SOL    HW298309   7.650   0.275   8.195  1.0471 -2.2925 -0.1441
30357SOL     OW98310   4.979   1.575   2.387 -0.3205 -0.5633 -0.4781
30357SOL    HW198311   4.888   1.585   2.360 -0.4944 -0.9749 -0.0687
30357SOL    HW298312   5.024   1.650   2.349 -1.6865  2.3462  3.0710
30358SOL     OW98313   1.604   2.739   4.172 -0.0367 -0.2685  0.2721
30358SOL    HW198314   1.557   2.720   4.253 -0.1500  1.7769  0.7363
30358SOL    HW298315   1.586   2.831   4.155 -0.7803 -0.8450 -2.6083
30359SOL     OW98316   4.149   6.304   1.170  0.0563 -0.1974  0.0235
30359SOL    HW198317   4.198   6.290   1.089  0.3436 -0.8374  0.2964
30359SOL    HW298318   4.206   6.269   1.238 -0.3993 -0.1257  0.4477
30360SOL     OW98319   7.782   1.182   7.507 -0.7159 -0.1076  0.0612
30360SOL    HW198320   7.826   1.265   7.522  1.0081 -0.8820 -0.4381
30360SOL    HW298321   7.832   1.141   7.435 -0.4669 -2.2854  1.3778
30361SOL     OW98322   4.682   8.528   8.456 -0.1942  0.0973  0.2690
30361SOL    HW198323   4.686   8.436   8.428  0.0768 -0.0792  0.8768
30361SOL    HW298324   4.741   8.574   8.396  2.1711 -0.6326  1.8767
30362SOL     OW98325   3.232   9.407   5.141 -0.2916 -0.2466  0.2850
30362SOL    HW198326   3.216   9.358   5.060  0.9912 -1.6729  0.8343
30362SOL    HW298327   3.240   9.340   5.208  1.0582  0.7339  1.1607
30363SOL     OW98328  10.696   1.231   9.829  0.0471 -0.1093 -0.2362
30363SOL    HW198329  10.645   1.150   9.816  1.1468 -0.9435  0.4546
30363SOL    HW298330  10.630   1.297   9.851 -0.8111 -1.0042 -0.0293
30364SOL     OW98331  12.163   5.332   7.483  0.5727  0.1112 -0.1193
30364SOL    HW198332  12.120   5.322   7.568  2.8733 -1.3945  0.9915
30364SOL    HW298333  12.242   5.382   7.502  1.9859 -1.6728 -0.9862
30365SOL     OW98334   0.556   9.735   5.634 -0.3652 -0.6934  0.2455
30365SOL    HW198335   0.479   9.780   5.599 -0.7942 -2.3364 -1.0648
30365SOL    HW298336   0.614   9.723   5.559  1.2604  0.5791  1.2287
30366SOL     OW98337  12.608  10.262  12.018  0.3988  0.5359  0.2727
30366SOL    HW198338  12.575  10.282  11.930 -3.4217 -0.6726  1.2465
30366SOL    HW298339  12.589  10.341  12.069  0.5000  0.4017  0.5181
30367SOL     OW98340   6.078  11.126  12.422  0.5283  0.0766 -0.3513
30367SOL    HW198341   5.993  11.162  12.395  0.4253 -1.3920 -2.2240
30367SOL    HW298342   6.140  11.163  12.360  0.7635 -1.1359 -0.8621
30368SOL     OW98343   5.768   7.269  12.688 -1.0162 -0.1778  0.8376
30368SOL    HW198344   5.766   7.212  12.611  0.3718  0.6378  0.1719
30368SOL    HW298345   5.695   7.329  12.675 -1.5101 -0.7812  0.7584
30369SOL     OW98346   0.344   4.447   6.023  0.4612  0.2901 -0.0018
30369SOL    HW198347   0.402   4.513   5.986  0.6435  1.4411  2.1470
30369SOL    HW298348   0.395   4.406   6.093  0.0729 -1.6350 -0.7896
30370SOL     OW98349   2.201   3.335  11.009  0.0136 -0.4126 -0.3344
30370SOL    HW198350   2.169   3.254  11.048 -0.5080  0.9525  2.2929
30370SOL    HW298351   2.211   3.395  11.083 -0.0457  2.0810 -2.2238
30371SOL     OW98352   5.003   6.066   4.993  0.5436  0.2593 -0.1034
30371SOL    HW198353   5.073   6.118   4.954  1.9470 -0.7878  0.9109
30371SOL    HW298354   5.024   6.063   5.086 -0.8238 -0.1474  0.2177
30372SOL     OW98355  12.104   3.168  10.770  0.7449  0.0511 -0.3866
30372SOL    HW198356  12.141   3.173  10.858 -0.1446  3.4653 -0.0778
30372SOL    HW298357  12.180   3.163  10.713  1.4244  0.0999  0.4820
30373SOL     OW98358   1.472   4.538   4.381 -0.2582 -0.3777  0.3074
30373SOL    HW198359   1.546   4.576   4.333  0.6964 -2.0863  0.3673
30373SOL    HW298360   1.459   4.597   4.456  0.5699  0.3313 -0.0888
30374SOL     OW98361   4.116   6.042   9.594 -0.1941  0.0351  0.1120
30374SOL    HW198362   4.078   6.127   9.618 -0.0466  0.0470  0.3057
30374SOL    HW298363   4.126   5.996   9.677 -1.9770 -0.9045 -0.1314
30375SOL     OW98364  10.152   9.494   7.793 -0.0906 -0.3861 -0.2333
30375SOL    HW198365  10.078   9.450   7.836  1.6333 -2.7430  0.5444
30375SOL    HW298366  10.182   9.431   7.727  1.1028  0.5988 -0.6658
30376SOL     OW98367  11.923   8.667  11.432  0.3038 -0.3886 -0.1359
30376SOL    HW198368  11.972   8.691  11.354 -0.7454  3.1306  0.1283
30376SOL    HW298369  11.990   8.656  11.500  0.9508  1.0133 -0.5213
30377SOL     OW98370   9.865   3.960   3.562 -0.0761 -0.0193 -0.0283
30377SOL    HW198371   9.800   4.014   3.608 -1.1023 -0.8576 -0.4703
30377SOL    HW298372   9.817   3.881   3.537  0.9852 -0.4190 -0.8350
30378SOL     OW98373   8.584  12.007  10.166 -0.6744  0.0879  0.4178
30378SOL    HW198374   8.495  11.980  10.191 -0.3990 -2.8296 -1.3298
30378SOL    HW298375   8.572  12.095  10.129 -3.1921 -0.7991 -1.2200
30379SOL     OW98376   1.693   5.522   1.121  0.1470  0.7298  0.0738
30379SOL    HW198377   1.726   5.539   1.033  0.7495 -0.0913  0.1295
30379SOL    HW298378   1.609   5.567   1.124  1.6745  3.8062  0.2817
30380SOL     OW98379  11.577   3.143  12.088  0.2300 -0.0905  0.1453
30380SOL    HW198380  11.515   3.085  12.132  0.5091 -0.4318  0.0846
30380SOL    HW298381  11.523   3.194  12.028  0.1892 -1.3876 -0.9681
30381SOL     OW98382  12.172   7.048  10.273  0.1317  0.6686 -0.4475
30381SOL    HW198383  12.207   7.096  10.348  1.4797  0.7543 -1.0969
30381SOL    HW298384  12.242   7.051  10.208  0.3225 -2.2391 -0.5036
30382SOL     OW98385   7.914   7.978   1.621 -0.3694  0.2151  0.2427
30382SOL    HW198386   7.886   8.004   1.708 -1.0560 -0.4953  0.2509
30382SOL    HW298387   7.878   7.890   1.609  0.8420 -0.2524 -0.2384
30383SOL     OW98388   6.846   0.737   3.852 -0.5323  0.1370 -0.1183
30383SOL    HW198389   6.867   0.829   3.871  2.8095 -0.6607  0.7618
30383SOL    HW298390   6.803   0.706   3.931  0.1584  0.4904  0.4174
30384SOL     OW98391  10.885   7.226  12.022  0.2763  0.0552 -0.2312
30384SOL    HW198392  10.801   7.230  11.976  0.9172 -1.7105 -1.7058
30384SOL    HW298393  10.938   7.295  11.982 -0.2933  0.8224  0.3290
30385SOL     OW98394  10.772   6.976   5.369  0.1538  0.0712  0.1972
30385SOL    HW198395  10.789   7.053   5.314 -0.5545 -0.2042 -0.4198
30385SOL    HW298396  10.697   6.933   5.328  0.5043 -0.9255  0.5635
30386SOL     OW98397   7.696   5.591   3.547 -0.6819  0.3990 -0.7554
30386SOL    HW198398   7.786   5.611   3.573 -0.6288 -1.2653  0.5640
30386SOL    HW298399   7.642   5.650   3.598 -0.4364 -0.8932  1.1152
30387SOL     OW98400   8.311   3.980   8.454 -0.5526  0.2879 -0.0949
30387SOL    HW198401   8.286   3.922   8.526  1.5922  0.7834  1.1278
30387SOL    HW298402   8.233   4.033   8.437 -1.9301 -1.5531  0.0743
30388SOL     OW98403   5.024   4.734   0.051 -0.0246 -0.1143  0.3381
30388SOL    HW198404   4.959   4.804   0.043 -0.8606 -0.8163  0.7901
30388SOL    HW298405   5.108   4.777   0.034 -0.3735  1.2949  1.9206
30389SOL     OW98406  10.885   7.545   3.346  0.6220  0.0342 -0.3746
30389SOL    HW198407  10.961   7.572   3.295  0.1428  1.7420 -0.2489
30389SOL    HW298408  10.847   7.473   3.295  0.5548  1.2122 -2.0882
30390SOL     OW98409   6.409  12.506   2.804 -0.6424 -0.4082  0.9140
30390SOL    HW198410   6.347  12.566   2.844 -1.0620 -0.9520  1.0925
30390SOL    HW298411   6.388  12.421   2.841  0.0979 -0.6339  0.8399
30391SOL     OW98412   0.196  12.313   7.065  0.1673  0.0117 -0.3109
30391SOL    HW198413   0.119  12.257   7.072  0.5449 -0.4211  0.5364
30391SOL    HW298414   0.165  12.392   7.021 -0.2954 -0.9903 -1.8488
30392SOL     OW98415   0.008   5.199   2.021 -0.0313 -0.1011  0.1581
30392SOL    HW198416  -0.043   5.270   1.980  3.9998  1.1000 -3.5118
30392SOL    HW298417  -0.007   5.123   1.964  0.9826 -0.1950  0.0050
30393SOL     OW98418   3.317   6.909   0.242  0.0110  0.1016 -0.0488
30393SOL    HW198419   3.286   6.822   0.268 -0.5972  0.1240 -0.6715
30393SOL    HW298420   3.241   6.966   0.252  0.2600  0.4591 -0.1630
30394SOL     OW98421   9.853   4.037   4.962  0.3050  0.5106  0.3132
30394SOL    HW198422   9.890   3.963   4.913  1.0472  1.8020 -1.1827
30394SOL    HW298423   9.816   4.094   4.895  1.7027  2.5579  1.1915
30395SOL     OW98424  10.315   2.012   0.289 -0.5045 -0.6889  0.2542
30395SOL    HW198425  10.339   1.942   0.228 -2.5649  0.6332 -2.2972
30395SOL    HW298426  10.395   2.063   0.301 -0.5387  0.6197 -3.7387
30396SOL     OW98427   3.187   1.230  10.025 -0.1990 -0.4214 -0.2807
30396SOL    HW198428   3.117   1.271   9.974 -0.3449 -0.4037 -0.0645
30396SOL    HW298429   3.220   1.160   9.968 -1.7689 -1.7933  0.4306
30397SOL     OW98430   0.756  10.518   4.460 -0.3940 -0.2010  0.2936
30397SOL    HW198431   0.665  10.543   4.447  0.1403  1.7409  0.0517
30397SOL    HW298432   0.801  10.598   4.487  1.0404 -1.3595  1.5804
30398SOL     OW98433  10.580   4.867  12.475 -0.1506 -0.1120 -0.6537
30398SOL    HW198434  10.652   4.928  12.492 -0.9850  1.0419 -1.1925
30398SOL    HW298435  10.577   4.812  12.554  1.3584 -0.2542 -0.6494
30399SOL     OW98436   2.570   3.625  12.085 -0.0880  0.1183  0.3232
30399SOL    HW198437   2.553   3.688  12.154 -1.1620 -0.8071  0.9310
30399SOL    HW298438   2.664   3.610  12.088  0.1541  1.5157  0.2979
30400SOL     OW98439   1.643  10.452   1.548 -0.1268 -0.6364  0.7876
30400SOL    HW198440   1.670  10.445   1.639 -1.0519  1.3846  1.2658
30400SOL    HW298441   1.644  10.546   1.529 -1.2746 -0.9082 -0.8576
30401SOL     OW98442  11.317   0.094   5.052 -0.3115 -0.1066 -0.0891
30401SOL    HW198443  11.337   0.170   5.106 -1.8754  0.0685  0.3047
30401SOL    HW298444  11.338   0.121   4.963 -0.1881  0.5306  0.1288
30402SOL     OW98445  10.143   4.531   6.703 -1.1580 -0.2877 -0.1601
30402SOL    HW198446  10.071   4.484   6.661 -0.6131 -1.3646  0.0972
30402SOL    HW298447  10.203   4.463   6.732 -1.2697  0.4460  1.9270
30403SOL     OW98448  10.493   3.035   3.755  0.0704 -0.4253 -0.0368
30403SOL    HW198449  10.469   3.073   3.670  0.4600 -0.3637 -0.1239
30403SOL    HW298450  10.582   3.067   3.771  0.2686 -1.0083  0.0578
30404SOL     OW98451   4.689   5.073   4.862 -0.1753 -0.2572 -0.0556
30404SOL    HW198452   4.673   5.025   4.944  0.8246 -1.2809 -0.4357
30404SOL    HW298453   4.676   5.008   4.793  1.6534 -0.1209 -0.5620
30405SOL     OW98454  10.790   4.992  10.576  0.5750 -0.0420  0.2492
30405SOL    HW198455  10.778   5.028  10.488  0.7881  0.6032  0.4787
30405SOL    HW298456  10.884   4.992  10.589  0.4753  2.4215  1.4935
30406SOL     OW98457   9.708  11.148  12.261  0.4467 -0.3871  0.0250
30406SOL    HW198458   9.658  11.201  12.323 -0.8023  1.0105 -2.0861
30406SOL    HW298459   9.646  11.082  12.230  0.9016 -0.7354 -0.1636
30407SOL     OW98460   0.051   0.631   9.335  0.2337 -0.1762  0.1008
30407SOL    HW198461   0.091   0.591   9.258 -0.4323  0.3414 -0.5347
30407SOL    HW298462  -0.037   0.594   9.339  0.0602  0.2374  0.2530
30408SOL     OW98463  11.997   7.161   0.887  0.1053 -0.0371  0.5832
30408SOL    HW198464  11.974   7.246   0.924 -1.7312 -0.3474  0.2550
30408SOL    HW298465  12.093   7.160   0.887  0.1676  1.4858  1.7990
30409SOL     OW98466   6.426   0.351   6.455 -0.2976 -0.4252  0.1913
30409SOL    HW198467   6.441   0.314   6.369  1.0642 -1.9447  1.0340
30409SOL    HW298468   6.429   0.446   6.441  0.4879 -0.6464 -1.3208
30410SOL     OW98469   3.228   5.286   9.275  0.3011  0.2343 -0.0455
30410SOL    HW198470   3.167   5.221   9.310  0.1111  0.0595 -0.6824
30410SOL    HW298471   3.257   5.336   9.351 -0.3849  0.1039  0.3045
30411SOL     OW98472   4.817  12.392   1.609 -0.6558  0.3928 -0.1222
30411SOL    HW198473   4.785  12.444   1.535 -3.3191  1.3561  1.5634
30411SOL    HW298474   4.754  12.409   1.679  0.9725 -1.5688  1.9580
30412SOL     OW98475   9.861   3.328  12.603 -0.1100 -0.3182  0.2172
30412SOL    HW198476   9.781   3.309  12.555 -0.3441  0.7317  0.1612
30412SOL    HW298477   9.906   3.394  12.549 -0.0247  0.3321  1.0569
30413SOL     OW98478   6.867   5.203   5.642 -0.2320  0.0496 -0.1879
30413SOL    HW198479   6.794   5.192   5.703 -0.0763  1.8916  0.3821
30413SOL    HW298480   6.825   5.228   5.559 -0.2742  1.1336  0.1465
30414SOL     OW98481   1.122   7.384   5.459 -0.0954  0.0124  0.4518
30414SOL    HW198482   1.057   7.346   5.400 -1.4768 -1.4466  2.7699
30414SOL    HW298483   1.072   7.443   5.516  1.2156  1.4457  0.2023
30415SOL     OW98484   5.133   1.369   2.288 -0.2409 -0.1821  0.1105
30415SOL    HW198485   5.227   1.385   2.279 -0.2997  0.3087  0.2955
30415SOL    HW298486   5.098   1.453   2.320 -0.7293 -0.3820  0.1070
30416SOL     OW98487   9.803   5.556  10.541  0.0108 -0.0959  0.0585
30416SOL    HW198488   9.856   5.481  10.569 -0.4453 -0.1727  0.7461
30416SOL    HW298489   9.804   5.615  10.616  0.4482  0.6405 -0.5189
30417SOL     OW98490   1.308   8.638  12.526 -0.0972  0.5152  0.0890
30417SOL    HW198491   1.355   8.652  12.608 -1.9334 -0.0948  1.3164
30417SOL    HW298492   1.241   8.707  12.525  0.5996  1.2139 -1.4841
30418SOL     OW98493   3.174   3.754   1.788  0.0883 -0.0440  0.0874
30418SOL    HW198494   3.122   3.737   1.867 -1.8070  2.2249 -0.5578
30418SOL    HW298495   3.115   3.734   1.716  0.5591  1.2758 -0.6916
30419SOL     OW98496   3.204   7.336   6.684  0.2268  0.6687  0.3677
30419SOL    HW198497   3.126   7.335   6.740 -1.2404  1.4252 -1.5574
30419SOL    HW298498   3.245   7.250   6.699 -0.7352  0.4038  1.7118
30420SOL     OW98499   9.220   5.275  11.911  0.0114 -0.3426  0.0680
30420SOL    HW198500   9.164   5.211  11.868 -0.1034  0.4449 -0.9976
30420SOL    HW298501   9.308   5.239  11.904 -0.1138 -0.6288 -0.0495
30421SOL     OW98502   9.666  11.596  11.594  0.6501  0.4626  0.2236
30421SOL    HW198503   9.703  11.539  11.662  2.5524  0.7235 -0.5112
30421SOL    HW298504   9.620  11.537  11.535 -0.5063  0.1613  1.3793
30422SOL     OW98505  11.706  12.580   4.107 -0.3196 -0.0244 -0.5619
30422SOL    HW198506  11.743  12.551   4.190 -0.0810  0.4661 -0.4888
30422SOL    HW298507  11.695  12.500   4.055  0.8175 -0.1968 -0.5730
30423SOL     OW98508   6.956   4.848   8.790  0.7824  0.2394  0.2536
30423SOL    HW198509   6.951   4.782   8.722 -0.2199 -1.9968  2.3508
30423SOL    HW298510   6.874   4.898   8.780  0.3242 -0.5036  0.2120
30424SOL     OW98511   0.483   6.081   0.006  0.1039 -0.0955  0.1844
30424SOL    HW198512   0.473   6.110  -0.085 -1.2813  0.9441  0.6433
30424SOL    HW298513   0.463   5.988   0.004 -0.0722 -0.0484 -0.5511
30425SOL     OW98514   3.167   9.439   1.253 -0.2683 -0.0522 -0.7266
30425SOL    HW198515   3.162   9.512   1.191  0.6121 -0.2772 -1.0725
30425SOL    HW298516   3.237   9.463   1.314 -0.7053 -0.1199 -0.1787
30426SOL     OW98517   9.243   8.576   4.654  0.3419  0.3945 -0.3943
30426SOL    HW198518   9.236   8.671   4.664  1.4151  0.4359  0.1700
30426SOL    HW298519   9.331   8.562   4.620  0.2671 -0.4096 -0.2800
30427SOL     OW98520   2.986  11.522   1.889  0.0479 -0.5164  0.1741
30427SOL    HW198521   2.905  11.537   1.938  0.1499 -2.6077  1.0905
30427SOL    HW298522   2.994  11.426   1.886  2.3316 -0.3545 -0.1855
30428SOL     OW98523   3.517   8.530   0.569 -0.4484 -0.3024  0.3741
30428SOL    HW198524   3.443   8.487   0.527  0.1998 -0.2745 -0.8544
30428SOL    HW298525   3.515   8.620   0.536  0.9153 -0.6642 -0.8170
30429SOL     OW98526   2.257   3.048   3.582 -0.0553 -0.1896  0.3671
30429SOL    HW198527   2.240   3.103   3.658  0.5766 -0.0287  0.4046
30429SOL    HW298528   2.321   2.984   3.613 -0.0433 -0.3251  0.0636
30430SOL     OW98529   1.629  12.363   3.255 -0.3594 -0.3040  0.6542
30430SOL    HW198530   1.648  12.450   3.290 -0.8515  0.6227 -1.2150
30430SOL    HW298531   1.710  12.336   3.213 -0.1511 -0.8370  1.3945
30431SOL     OW98532  10.731   4.370   3.117 -0.4075  0.2098  0.0840
30431SOL    HW198533  10.676   4.293   3.103  1.3437 -1.2870  1.0482
30431SOL    HW298534  10.689   4.416   3.190 -1.2256 -0.0558 -0.2056
30432SOL     OW98535   6.135   6.796  11.629  0.0832 -0.4004  0.1912
30432SOL    HW198536   6.166   6.835  11.710  1.0314  0.4628 -0.5536
30432SOL    HW298537   6.045   6.769  11.647 -0.3799  1.5551  0.9372
30433SOL     OW98538   2.663   8.025  11.288  0.4086 -0.4269  0.2310
30433SOL    HW198539   2.584   8.019  11.342  0.7396  0.6176  0.8535
30433SOL    HW298540   2.670   8.118  11.267  1.0218 -0.6397 -0.5092
30434SOL     OW98541  11.250   9.089   1.943 -0.2471  0.2062  0.5779
30434SOL    HW198542  11.323   9.044   1.901 -1.0886 -0.7346  0.0774
30434SOL    HW298543  11.182   9.093   1.875 -0.6100  1.1978  0.9843
30435SOL     OW98544  10.320   3.457   1.425 -0.1129  0.7379  0.3614
30435SOL    HW198545  10.285   3.541   1.398 -1.1658 -0.1428 -1.1592
30435SOL    HW298546  10.282   3.442   1.512  0.6216  2.0944  0.9420
30436SOL     OW98547   5.696   0.166   4.539 -0.2474 -0.3650 -0.8921
30436SOL    HW198548   5.719   0.078   4.569  0.6592 -0.3921 -1.6396
30436SOL    HW298549   5.691   0.158   4.444  0.4513  0.5277 -1.0108
30437SOL     OW98550   1.578   2.720  10.078 -0.0573 -0.7336  0.2474
30437SOL    HW198551   1.536   2.746   9.996  1.1777  0.9134  0.0940
30437SOL    HW298552   1.509   2.729  10.144 -1.0404 -2.0040 -0.5693
30438SOL     OW98553   5.664   1.336   8.782  0.1585  0.3959  0.0286
30438SOL    HW198554   5.664   1.256   8.730  1.2905  0.5125 -0.1958
30438SOL    HW298555   5.605   1.318   8.855  1.4426 -1.1746  0.7517
30439SOL     OW98556   2.519  12.225  10.739 -0.0515 -0.3098  0.5550
30439SOL    HW198557   2.463  12.299  10.764 -1.2622 -1.0776  0.1964
30439SOL    HW298558   2.501  12.158  10.805 -0.1885 -0.8653 -0.0374
30440SOL     OW98559   9.548   3.397  10.706  0.3504 -0.5456 -0.4497
30440SOL    HW198560   9.475   3.336  10.712 -0.0570 -0.2240 -1.8304
30440SOL    HW298561   9.528   3.465  10.771  0.0680 -1.1101  0.0543
30441SOL     OW98562   5.176   3.955   9.296  0.3167 -0.0101 -0.0667
30441SOL    HW198563   5.194   3.861   9.309  1.0075 -0.0532 -1.1698
30441SOL    HW298564   5.261   3.992   9.271 -0.3875  0.4790 -1.8649
30442SOL     OW98565   3.936   4.328   4.088 -0.7059  0.5130 -0.3217
30442SOL    HW198566   3.848   4.311   4.120 -0.3170 -0.7667  0.1080
30442SOL    HW298567   3.924   4.395   4.020 -2.1031 -0.2368 -0.8567
30443SOL     OW98568   2.354  10.002   1.939  0.1885  0.0102  0.6825
30443SOL    HW198569   2.307   9.936   1.990  0.8798 -0.7496  0.3380
30443SOL    HW298570   2.287  10.067   1.918 -0.9103 -1.4352 -0.4636
30444SOL     OW98571  11.195   5.357  12.635 -0.8596  0.1733  0.3035
30444SOL    HW198572  11.144   5.298  12.690 -1.4995 -1.8686 -2.2471
30444SOL    HW298573  11.249   5.299  12.582  0.7686  2.0859 -0.2479
30445SOL     OW98574   4.047   4.001   2.522  0.4890 -0.4226  0.6840
30445SOL    HW198575   4.127   3.990   2.471  0.9759 -0.8972  1.5324
30445SOL    HW298576   4.021   4.091   2.505  0.6302 -0.5634 -0.3992
30446SOL     OW98577  11.943  11.614  10.139 -0.5085 -0.2708 -0.6040
30446SOL    HW198578  12.023  11.666  10.135 -1.1497  1.2548  2.7927
30446SOL    HW298579  11.891  11.645  10.064  0.5587  1.5207 -0.6660
30447SOL     OW98580   3.598  11.576   9.283  0.1285  0.4028 -0.2161
30447SOL    HW198581   3.666  11.614   9.228  1.4524  1.3305  1.9073
30447SOL    HW298582   3.616  11.482   9.283  0.3153  0.4311 -1.0606
30448SOL     OW98583   7.392   0.893  10.600 -0.0305 -0.6503  0.2744
30448SOL    HW198584   7.344   0.862  10.523  1.4541  0.8943 -1.3924
30448SOL    HW298585   7.427   0.814  10.640 -1.9368 -1.6004  0.1705
30449SOL     OW98586   8.446   1.768   5.006  0.1199 -0.0279 -0.2889
30449SOL    HW198587   8.522   1.713   5.027  0.6472  0.8547  0.1305
30449SOL    HW298588   8.444   1.769   4.910  2.4268  2.3112 -0.4070
30450SOL     OW98589   2.067   0.627  11.782 -0.4175  0.2556 -0.6348
30450SOL    HW198590   2.104   0.675  11.856 -0.8554 -0.6483  0.1850
30450SOL    HW298591   2.123   0.650  11.708  1.4343 -0.6045  0.4388
30451SOL     OW98592   5.756  12.569   2.695 -0.0233  0.3222  0.8722
30451SOL    HW198593   5.676  12.576   2.747  0.2609 -0.0730  1.3768
30451SOL    HW298594   5.733  12.514   2.621 -0.5349  1.1964  0.3650
30452SOL     OW98595   1.291   8.587  10.933 -0.0120  0.0329 -0.0734
30452SOL    HW198596   1.259   8.672  10.961 -1.5444 -0.3751 -0.5199
30452SOL    HW298597   1.242   8.568  10.853  2.0968 -0.1736 -1.3985
30453SOL     OW98598  10.979  10.241   4.185 -0.8328  0.2471 -0.1712
30453SOL    HW198599  10.934  10.300   4.124  0.8222  1.2418 -0.5075
30453SOL    HW298600  10.925  10.162   4.186 -1.5282  0.6268 -2.0427
30454SOL     OW98601   7.538   4.919   6.375  0.2878  0.4412 -0.3068
30454SOL    HW198602   7.579   5.005   6.365  1.0708  0.3043  1.3771
30454SOL    HW298603   7.604   4.857   6.343  0.9298  0.3089  1.1848
30455SOL     OW98604   4.928  10.477   8.955 -0.9464  0.8710  0.0175
30455SOL    HW198605   5.023  10.491   8.963 -0.9369  0.3150  1.0504
30455SOL    HW298606   4.896  10.556   8.911  0.0182  0.9895 -0.5044
30456SOL     OW98607   0.729   6.593   8.576  0.5332 -0.4237  0.2398
30456SOL    HW198608   0.747   6.666   8.635 -0.7783  0.9180 -0.9319
30456SOL    HW298609   0.759   6.516   8.624  0.7242  0.7317  2.0927
30457SOL     OW98610   5.620   7.920   5.160  0.0525 -0.6632 -0.0511
30457SOL    HW198611   5.611   8.010   5.191  1.3032 -0.2695 -0.7714
30457SOL    HW298612   5.671   7.876   5.229 -0.3148 -0.7557  0.1655
30458SOL     OW98613   3.263   5.318   1.415  0.0298  0.6553  0.2925
30458SOL    HW198614   3.285   5.388   1.353  0.2826  0.2027 -0.1322
30458SOL    HW298615   3.270   5.237   1.364  0.4061  0.2638  0.9505
30459SOL     OW98616   9.211  11.110   1.428 -0.4878  0.1538  0.7915
30459SOL    HW198617   9.119  11.132   1.438 -0.9490 -2.3300  3.3928
30459SOL    HW298618   9.249  11.127   1.515  1.6385  1.3653 -0.2718
30460SOL     OW98619   5.937   6.038   1.614  0.1655 -0.4013 -0.0575
30460SOL    HW198620   5.997   6.087   1.670 -0.1561  1.5987 -1.3467
30460SOL    HW298621   5.988   6.017   1.536 -0.2565 -0.3112 -0.3660
30461SOL     OW98622   8.228   9.748  10.734 -0.3166  0.3108  0.4301
30461SOL    HW198623   8.312   9.786  10.761  0.8573 -1.5949 -0.3608
30461SOL    HW298624   8.202   9.691  10.806  1.7031 -3.0404 -1.2760
30462SOL     OW98625   8.909  10.397   3.772  0.5580 -0.1076 -0.1111
30462SOL    HW198626   8.971  10.325   3.786 -0.0194 -0.5637  0.1368
30462SOL    HW298627   8.964  10.471   3.747  1.2856 -0.2750  0.9303
30463SOL     OW98628   0.179  11.308  11.395  0.5502  0.1254  0.2352
30463SOL    HW198629   0.141  11.226  11.427 -2.0317  1.1882  0.0384
30463SOL    HW298630   0.204  11.355  11.474  1.0083 -0.3390  0.3795
30464SOL     OW98631   2.134   3.683   1.845  0.0131 -0.2811 -0.7566
30464SOL    HW198632   2.053   3.645   1.812 -0.0755 -0.9947  0.2250
30464SOL    HW298633   2.107   3.768   1.881  0.1871  0.7082 -2.8249
30465SOL     OW98634   7.637  11.800   6.139  0.2501 -0.6978  0.7265
30465SOL    HW198635   7.600  11.842   6.216  2.8832  1.9794  0.7345
30465SOL    HW298636   7.672  11.872   6.087  0.1326 -2.5505 -2.1540
30466SOL     OW98637  11.382   3.290   0.418 -0.2110  0.1189  0.5145
30466SOL    HW198638  11.336   3.262   0.497 -0.9189  1.2558  0.5116
30466SOL    HW298639  11.321   3.348   0.373  0.3536 -0.1637 -0.6535
30467SOL     OW98640  10.628   2.850  11.652 -0.3844 -0.0954  0.4422
30467SOL    HW198641  10.556   2.909  11.632  0.3018  0.2142 -1.3745
30467SOL    HW298642  10.618   2.778  11.589  0.6183 -0.2650  0.4585
30468SOL     OW98643   1.979   4.788   7.323  0.1496 -0.0882  0.2057
30468SOL    HW198644   1.889   4.813   7.344  0.7990  0.9415  2.0208
30468SOL    HW298645   1.973   4.697   7.294 -1.3568 -0.4027  1.3664
30469SOL     OW98646   1.494  11.314  10.381 -0.7781 -0.5307  0.2828
30469SOL    HW198647   1.553  11.260  10.435  0.1492  0.9360  0.8037
30469SOL    HW298648   1.407  11.280  10.400 -0.3610 -0.8316  1.8223
30470SOL     OW98649   4.326   0.423   4.041  0.0417  0.1874 -0.5672
30470SOL    HW198650   4.321   0.414   3.945  2.5328  2.2514 -1.0315
30470SOL    HW298651   4.249   0.475   4.064  0.0854  0.7763 -1.6630
30471SOL     OW98652   0.785   1.653   7.975  0.0617 -0.1888  0.3533
30471SOL    HW198653   0.731   1.574   7.971 -1.2662  0.7238 -1.3352
30471SOL    HW298654   0.745   1.706   8.044 -2.8437  1.4678 -2.3271
30472SOL     OW98655   7.396   8.739   0.920  0.2933 -0.3245  0.2479
30472SOL    HW198656   7.395   8.646   0.941 -0.9221 -0.0371  1.6084
30472SOL    HW298657   7.448   8.779   0.990 -0.7487  0.2203  0.7293
30473SOL     OW98658   6.781   6.089   2.244 -0.0917 -0.5407 -0.6763
30473SOL    HW198659   6.843   6.130   2.184  0.0191 -1.2976 -1.0924
30473SOL    HW298660   6.829   6.078   2.325 -0.0530 -0.0598 -0.6318
30474SOL     OW98661   1.611  10.955   3.872 -0.2905  0.2500  0.3295
30474SOL    HW198662   1.576  10.991   3.953  1.0294 -0.1120  1.0945
30474SOL    HW298663   1.696  10.998   3.861  0.1522 -0.6987 -0.1244
30475SOL     OW98664   0.653   8.129   8.786 -0.3658  0.3623  0.0205
30475SOL    HW198665   0.605   8.149   8.867  0.1357 -1.0611  0.6879
30475SOL    HW298666   0.699   8.210   8.766 -2.1181  1.4199 -0.0217
30476SOL     OW98667   8.273   3.223   9.029 -0.3912  0.4233 -0.0889
30476SOL    HW198668   8.316   3.235   8.944  1.5204  0.2552  0.8143
30476SOL    HW298669   8.237   3.310   9.049  1.0909  1.0672 -0.0689
30477SOL     OW98670   5.479   4.065   0.214 -0.7755 -0.1219 -0.3864
30477SOL    HW198671   5.555   4.056   0.156 -0.6356  1.0020 -0.3973
30477SOL    HW298672   5.413   4.109   0.161 -0.9732  0.0813  0.0226
30478SOL     OW98673   4.835   9.781  10.737 -0.1676 -0.8484  0.0693
30478SOL    HW198674   4.896   9.772  10.811  0.9225 -0.5192 -0.7618
30478SOL    HW298675   4.873   9.725  10.669  0.2246  0.7498 -1.0918
30479SOL     OW98676   4.707   7.414   1.358  0.1113 -0.2422 -0.1569
30479SOL    HW198677   4.736   7.493   1.404  0.5953 -0.6048  0.1759
30479SOL    HW298678   4.742   7.342   1.410 -0.5434 -0.6849 -0.3198
30480SOL     OW98679  12.589   1.310   5.179 -0.0821  0.1645  0.7772
30480SOL    HW198680  12.620   1.257   5.106  1.3880  0.4559  1.1666
30480SOL    HW298681  12.551   1.248   5.240  1.1003 -0.3972  0.9663
30481SOL     OW98682   9.525   5.376   6.221 -0.2179  0.0224  0.0067
30481SOL    HW198683   9.543   5.465   6.190  2.1772 -0.0140  1.0517
30481SOL    HW298684   9.525   5.322   6.142 -1.4644  0.8935 -0.6101
30482SOL     OW98685   5.422  10.595  10.688  0.0313 -0.2856 -0.5173
30482SOL    HW198686   5.355  10.661  10.701  0.7292  0.1613  1.0552
30482SOL    HW298687   5.387  10.516  10.731 -0.3576 -0.6563 -1.4941
30483SOL     OW98688   5.093  10.499   5.928  0.4281  0.5417  0.1401
30483SOL    HW198689   5.015  10.520   5.979  0.7075 -0.7571  1.1552
30483SOL    HW298690   5.060  10.467   5.844 -0.4669 -3.8996  1.9088
30484SOL     OW98691   1.165   1.534   8.324  0.2945 -0.3188  0.6801
30484SOL    HW198692   1.114   1.458   8.298  1.2822 -0.4150 -1.1809
30484SOL    HW298693   1.105   1.608   8.318  0.2459 -0.4625 -1.2294
30485SOL     OW98694  11.091  10.762   0.289  0.0782 -0.7980 -0.0537
30485SOL    HW198695  11.007  10.783   0.250  0.6557 -1.6336 -1.8352
30485SOL    HW298696  11.073  10.686   0.346 -0.3913 -0.9174 -0.3580
30486SOL     OW98697   6.509   7.626   7.088 -0.3065 -0.0274 -0.3564
30486SOL    HW198698   6.556   7.706   7.066  2.0024 -1.0160  0.5358
30486SOL    HW298699   6.572   7.576   7.140 -2.5933 -1.2681  1.4036
30487SOL     OW98700   4.183  10.568   1.440  0.3548  0.5377 -0.1700
30487SOL    HW198701   4.136  10.648   1.461 -0.9319 -0.1697 -0.2600
30487SOL    HW298702   4.164  10.509   1.513  0.7856  0.1048 -0.3991
30488SOL     OW98703   1.843   8.636   8.211  0.5297 -0.8987  0.2254
30488SOL    HW198704   1.843   8.558   8.267  2.6121 -0.0831  1.5077
30488SOL    HW298705   1.826   8.708   8.272  2.2237 -0.0498 -0.2328
30489SOL     OW98706   1.561  10.658  12.415 -0.0507  0.2396 -0.5266
30489SOL    HW198707   1.616  10.583  12.437 -0.4861 -0.3942 -1.5460
30489SOL    HW298708   1.608  10.734  12.451 -0.2681 -0.6148  1.7457
30490SOL     OW98709   1.311  12.365   9.724 -0.1612  0.1610 -0.2718
30490SOL    HW198710   1.394  12.412   9.713  0.4403 -0.3478  1.7193
30490SOL    HW298711   1.323  12.284   9.674  0.8670 -0.2596  0.6151
30491SOL     OW98712   7.839   6.565   4.208 -0.1635 -0.3963  0.2923
30491SOL    HW198713   7.747   6.537   4.202  0.2087 -1.9517  1.2150
30491SOL    HW298714   7.842   6.648   4.160 -1.5370 -1.5169 -1.8700
30492SOL     OW98715  11.920   6.983   0.391 -0.1467  0.4565  1.0321
30492SOL    HW198716  11.905   7.025   0.476 -0.1862 -2.1061  2.3866
30492SOL    HW298717  11.990   6.920   0.407 -0.4842 -0.4401 -0.7334
30493SOL     OW98718   3.595   1.599   1.287  0.0524 -0.2511  0.0416
30493SOL    HW198719   3.537   1.547   1.232 -1.3166  1.3100 -0.0626
30493SOL    HW298720   3.575   1.690   1.264 -0.5552  0.4731  3.0659
30494SOL     OW98721   6.128   3.606   6.222 -0.6438  0.2547  0.0276
30494SOL    HW198722   6.116   3.658   6.143 -0.6367  0.8743  0.4232
30494SOL    HW298723   6.158   3.521   6.191  0.8192  0.9519 -0.5682
30495SOL     OW98724   5.836  10.555   4.811  0.2086 -0.6042 -0.3066
30495SOL    HW198725   5.789  10.634   4.837 -0.5935 -1.4084  0.7764
30495SOL    HW298726   5.772  10.502   4.763  0.6585 -0.7279 -0.7881
30496SOL     OW98727   5.977   2.756   0.710  0.0992 -0.2148 -0.3744
30496SOL    HW198728   5.896   2.706   0.703 -0.3376 -0.4357  3.6106
30496SOL    HW298729   6.040   2.693   0.745  1.5873  0.3708 -1.8812
30497SOL     OW98730   8.277   2.663   1.709 -0.4148 -0.1376 -0.3999
30497SOL    HW198731   8.310   2.605   1.778  0.6147  0.1279 -0.6504
30497SOL    HW298732   8.184   2.644   1.705 -0.3340 -0.8030  0.4519
30498SOL     OW98733   6.602   0.548   8.112 -0.4149 -0.5002  0.2982
30498SOL    HW198734   6.563   0.546   8.025 -1.0512  0.9048  0.5365
30498SOL    HW298735   6.655   0.628   8.114 -1.7163  0.3746  1.7238
30499SOL     OW98736   2.116   1.993  11.932  0.4893  0.4153 -0.0127
30499SOL    HW198737   2.140   1.911  11.976  0.1658 -0.1170 -0.7889
30499SOL    HW298738   2.054   1.966  11.864 -0.2390  1.4189  0.2312
30500SOL     OW98739   2.520   8.088   4.141 -0.7670  0.4524 -0.8101
30500SOL    HW198740   2.489   8.162   4.090  1.0128  1.5062 -0.4343
30500SOL    HW298741   2.615   8.088   4.130 -0.7128 -1.9734 -1.0534
30501SOL     OW98742   4.619  11.142  11.551  0.0803 -0.7667  0.3757
30501SOL    HW198743   4.577  11.092  11.620  0.3325  0.6537  1.6119
30501SOL    HW298744   4.551  11.153  11.484 -0.9477 -0.1413  1.4834
30502SOL     OW98745   5.326   1.069   8.076  0.0453 -0.1554  0.2009
30502SOL    HW198746   5.395   1.091   8.013  0.5734 -0.8849  0.5059
30502SOL    HW298747   5.325   1.141   8.138  1.1579 -0.5560  0.7035
30503SOL     OW98748   6.252  11.399  10.146 -0.2470  0.0587  0.4998
30503SOL    HW198749   6.200  11.336  10.096  1.0874 -0.5795 -0.1479
30503SOL    HW298750   6.265  11.357  10.231 -0.3527 -0.0142  0.4795
30504SOL     OW98751  10.390   8.476   9.708  0.8035  0.5292 -0.2923
30504SOL    HW198752  10.360   8.565   9.690 -0.1311 -0.1255 -2.2214
30504SOL    HW298753  10.339   8.448   9.784 -0.3012  0.9773 -0.8601
30505SOL     OW98754   9.460   5.022   3.368 -0.7701 -0.5195 -0.5997
30505SOL    HW198755   9.520   5.056   3.434  1.8130 -1.1108 -2.4667
30505SOL    HW298756   9.390   4.981   3.418 -0.6992  1.9450  1.7017
30506SOL     OW98757   2.539   4.201  11.542  0.2733 -0.0148 -0.0392
30506SOL    HW198758   2.509   4.200  11.633  1.6626 -0.2391  0.4432
30506SOL    HW298759   2.604   4.272  11.540  2.2618 -1.7251 -0.1316
30507SOL     OW98760   7.158  11.346   0.446  0.2150 -0.3524  0.9895
30507SOL    HW198761   7.223  11.283   0.415 -0.0819 -0.1126 -0.1527
30507SOL    HW298762   7.076  11.297   0.451  0.3724 -0.5333  1.9675
30508SOL     OW98763   7.183   3.456  10.695  0.8110  0.1949 -0.6607
30508SOL    HW198764   7.134   3.379  10.665 -0.5762  1.2017 -1.1005
30508SOL    HW298765   7.256   3.463  10.635 -0.7867  0.9789 -2.6281
30509SOL     OW98766   0.811   7.919   9.399  0.0130  0.4403  0.4278
30509SOL    HW198767   0.717   7.915   9.416  0.0774 -1.1705  0.5814
30509SOL    HW298768   0.834   8.011   9.412 -1.8189  1.1982 -1.2161
30510SOL     OW98769  10.714   5.360   1.638 -0.4110 -0.5997  0.3235
30510SOL    HW198770  10.781   5.369   1.705  0.3792 -0.8349 -0.4223
30510SOL    HW298771  10.686   5.269   1.644  0.2953 -0.8594 -0.2525
30511SOL     OW98772  10.025  11.530  10.018  0.4984  0.3049  0.3331
30511SOL    HW198773  10.063  11.445   9.996  0.4109  0.7518 -1.8165
30511SOL    HW298774  10.061  11.590   9.952 -3.0190  0.9869 -1.2183
30512SOL     OW98775   2.670   4.893   2.102  0.2611 -0.1128 -0.3573
30512SOL    HW198776   2.661   4.944   2.021  1.0278  0.2696 -0.2101
30512SOL    HW298777   2.648   4.804   2.076  2.4368 -0.4048 -1.5066
30513SOL     OW98778  12.440   1.434   2.391  0.3141 -0.5934 -0.5146
30513SOL    HW198779  12.472   1.345   2.405 -1.3961 -1.0595  0.7862
30513SOL    HW298780  12.451   1.477   2.476 -1.1962 -0.3816 -0.3956
30514SOL     OW98781  10.508   7.601   0.494 -0.5434 -0.2826 -0.2014
30514SOL    HW198782  10.440   7.534   0.492 -0.1250 -0.7030 -0.8480
30514SOL    HW298783  10.464   7.679   0.528 -1.6278 -0.2553 -1.5540
30515SOL     OW98784   6.979   0.090   2.569  0.2802 -0.3953 -0.7327
30515SOL    HW198785   7.069   0.110   2.597  0.0948 -0.0021 -0.4122
30515SOL    HW298786   6.934   0.064   2.649 -0.4934  1.6077 -0.4425
30516SOL     OW98787   5.459   8.215   4.875 -0.0286 -0.5374  0.0387
30516SOL    HW198788   5.456   8.228   4.780 -0.1410 -1.3988 -0.0831
30516SOL    HW298789   5.553   8.217   4.896 -0.0537  2.5101  0.3594
30517SOL     OW98790   9.657  10.990   8.723 -0.0926 -0.2446 -0.5988
30517SOL    HW198791   9.621  11.007   8.636  1.4294  2.3381 -0.8563
30517SOL    HW298792   9.651  11.074   8.768  0.5564 -1.1335  1.2513
30518SOL     OW98793  12.637  10.072   8.740 -0.2428  0.2237 -0.6121
30518SOL    HW198794  12.574  10.143   8.747 -1.1990 -0.7687  2.5851
30518SOL    HW298795  12.710  10.099   8.796  0.1517 -0.5654 -0.7307
30519SOL     OW98796  11.323   4.446   8.692 -0.3124 -0.3360 -0.6059
30519SOL    HW198797  11.269   4.404   8.626  1.1007 -0.9156 -1.4368
30519SOL    HW298798  11.406   4.398   8.689  0.1188  0.2550  0.9108
30520SOL     OW98799   7.320   5.822  11.066  0.5173 -0.0241 -0.2360
30520SOL    HW198800   7.244   5.880  11.053 -0.2202 -0.9439 -0.1281
30520SOL    HW298801   7.315   5.797  11.158  0.8336 -0.2474 -0.2798
30521SOL     OW98802   0.966   0.107   2.682 -0.0054  0.1218 -0.0455
30521SOL    HW198803   0.923   0.188   2.709 -0.1925  1.1571 -3.0632
30521SOL    HW298804   1.056   0.134   2.663  0.6604 -0.9771  1.3799
30522SOL     OW98805   7.258  12.187  12.476  0.4410 -0.4668  0.1441
30522SOL    HW198806   7.257  12.266  12.423 -1.1453 -0.7141 -0.2610
30522SOL    HW298807   7.275  12.217  12.565  1.7770  0.1011 -0.2901
30523SOL     OW98808   7.525   4.920   6.699  0.1231 -0.2094  0.0779
30523SOL    HW198809   7.473   4.906   6.620 -1.3094  1.5424  0.6412
30523SOL    HW298810   7.616   4.910   6.671 -0.4215 -2.3436 -1.1622
30524SOL     OW98811   6.151   5.579   5.394 -0.1155 -0.3437 -0.0746
30524SOL    HW198812   6.067   5.545   5.424  0.2589 -1.2955 -0.0737
30524SOL    HW298813   6.177   5.642   5.461  0.0163 -1.3724  0.8647
30525SOL     OW98814   3.201  10.597   7.767 -0.5411 -0.3866  0.7125
30525SOL    HW198815   3.203  10.594   7.671 -3.0419 -0.1800  0.5903
30525SOL    HW298816   3.252  10.520   7.794  0.0144 -0.5850 -0.7615
30526SOL     OW98817  10.572   7.752   9.527 -0.1070  0.1915 -0.2393
30526SOL    HW198818  10.485   7.720   9.552  0.2388 -0.0986  0.6196
30526SOL    HW298819  10.633   7.694   9.571  0.5288  0.4837 -0.7216
30527SOL     OW98820   2.306   0.525   2.416  0.5740  0.3190 -0.0229
30527SOL    HW198821   2.353   0.443   2.430 -0.4851 -0.2827  0.1584
30527SOL    HW298822   2.243   0.505   2.346  1.1841  1.3599 -0.9038
30528SOL     OW98823   4.620   7.338   8.290  0.1041  0.4186  0.0074
30528SOL    HW198824   4.590   7.418   8.247  1.5025 -0.1237 -2.0984
30528SOL    HW298825   4.703   7.317   8.248 -0.3933 -2.3616  0.2150
30529SOL     OW98826   8.114  11.331   9.281 -0.4766  0.4876  0.0698
30529SOL    HW198827   8.182  11.397   9.269 -0.3488  0.2320 -0.6594
30529SOL    HW298828   8.158  11.258   9.323 -0.0734 -0.0224 -1.1811
30530SOL     OW98829  10.594   5.026   1.324  0.1989  0.2044  0.5120
30530SOL    HW198830  10.500   5.040   1.337  0.2703  0.8707  0.3426
30530SOL    HW298831  10.625   5.108   1.286  0.8409 -0.0341  0.5188
30531SOL     OW98832  12.141  11.474   4.098  0.1268  0.5515 -0.0526
30531SOL    HW198833  12.168  11.461   4.189 -1.1880 -0.6270  0.2122
30531SOL    HW298834  12.221  11.495   4.052  1.3438 -1.6714  0.8646
30532SOL     OW98835   9.221   9.018   3.557 -0.4337 -1.1763  0.0059
30532SOL    HW198836   9.165   9.043   3.483 -1.7434 -0.0750  1.3289
30532SOL    HW298837   9.211   9.089   3.620  1.2885 -1.7072  0.9357
30533SOL     OW98838   7.041   7.601   8.204  0.0965 -0.1174 -0.1529
30533SOL    HW198839   6.969   7.543   8.183  0.5499 -0.4132 -0.9613
30533SOL    HW298840   7.051   7.655   8.125  0.3805  0.3102  0.1734
30534SOL     OW98841   7.333   3.298  11.230  0.6611  0.2113 -0.4248
30534SOL    HW198842   7.293   3.213  11.210 -2.8326  1.5103  0.3974
30534SOL    HW298843   7.351   3.337  11.145 -0.8081 -0.0441 -0.8818
30535SOL     OW98844  10.198   5.571   2.727 -0.4257  0.0484  0.1808
30535SOL    HW198845  10.151   5.558   2.810  0.3445 -0.1868  0.5916
30535SOL    HW298846  10.217   5.483   2.696 -0.0741  0.1457  0.1216
30536SOL     OW98847  11.549  11.768  11.110 -0.1500  0.6094 -0.8176
30536SOL    HW198848  11.519  11.725  11.190  0.7121  1.1410 -0.1925
30536SOL    HW298849  11.485  11.742  11.043  0.1898 -1.4011 -0.4158
30537SOL     OW98850   6.395   5.047  12.415  0.3853  0.0489 -0.0893
30537SOL    HW198851   6.398   5.122  12.474 -2.2919 -2.7099  4.0961
30537SOL    HW298852   6.316   5.060  12.362 -2.1275 -1.0279  3.0212
30538SOL     OW98853   1.843  10.379   6.596 -0.1830  0.1706  0.2823
30538SOL    HW198854   1.844  10.406   6.504  2.6125  1.1226  0.5165
30538SOL    HW298855   1.844  10.283   6.592 -3.6869  0.0448 -0.5689
30539SOL     OW98856   5.932   1.804   3.949 -0.3621 -0.4040 -0.0310
30539SOL    HW198857   5.957   1.722   3.908  1.2786 -0.3992  0.9115
30539SOL    HW298858   5.985   1.810   4.028  0.0193  1.8332 -0.3670
30540SOL     OW98859   5.974   5.672   4.435  0.1019 -0.4003  0.3200
30540SOL    HW198860   5.942   5.694   4.523  2.9113  0.0717  1.3215
30540SOL    HW298861   5.998   5.579   4.441  1.0113 -0.1721  0.2959
30541SOL     OW98862  11.125  12.112   0.556 -0.2121 -0.0265 -0.1484
30541SOL    HW198863  11.064  12.043   0.581  1.2405 -1.0368  0.7250
30541SOL    HW298864  11.210  12.070   0.554  0.7531  1.7780  0.6191
30542SOL     OW98865   4.533   1.665   7.098  0.1984 -0.6785 -0.3052
30542SOL    HW198866   4.590   1.733   7.134  1.4308 -1.8899  0.1290
30542SOL    HW298867   4.460   1.660   7.160 -0.0861  0.4513 -0.5224
30543SOL     OW98868  11.848   7.952   5.222 -0.3091  0.3931  0.5727
30543SOL    HW198869  11.855   8.041   5.256 -0.4610  0.5730  0.1416
30543SOL    HW298870  11.939   7.921   5.216 -0.2606  0.4905  0.7988
30544SOL     OW98871  11.020   7.529   9.723  0.3589 -0.0677  0.1395
30544SOL    HW198872  11.064   7.504   9.641 -1.8247 -2.5488 -0.4020
30544SOL    HW298873  11.034   7.454   9.781 -0.9142  0.2238  0.8547
30545SOL     OW98874   9.227   5.295   0.965 -0.9055  0.6840 -0.3601
30545SOL    HW198875   9.133   5.303   0.985 -0.8848  0.4272 -0.1631
30545SOL    HW298876   9.270   5.356   1.025 -0.9800  1.1274 -0.7480
30546SOL     OW98877   3.720   9.082  11.623 -0.1080 -0.1752 -0.2706
30546SOL    HW198878   3.716   9.120  11.535 -1.7382  0.9924  0.2651
30546SOL    HW298879   3.743   8.991  11.608 -2.3423 -0.5265 -2.0963
30547SOL     OW98880   7.454  11.486  11.983 -0.0332 -0.1483 -0.1920
30547SOL    HW198881   7.516  11.557  11.997 -1.4260  0.7597  1.8664
30547SOL    HW298882   7.391  11.522  11.920  0.1245 -0.1110 -0.3263
30548SOL     OW98883   1.653   3.204   6.541 -0.2515  0.0332  0.3529
30548SOL    HW198884   1.746   3.197   6.519  0.0601  2.5099  0.5079
30548SOL    HW298885   1.627   3.115   6.563  1.9513 -0.8265 -0.1700
30549SOL     OW98886   9.767   0.687   1.060 -0.3436  0.2158 -0.0219
30549SOL    HW198887   9.673   0.677   1.047 -0.1748 -1.4185 -0.1945
30549SOL    HW298888   9.785   0.644   1.143  0.3057  0.1579 -0.1821
30550SOL     OW98889  10.332   5.345   4.388  0.0710  0.2495  0.7634
30550SOL    HW198890  10.278   5.311   4.459 -0.9229  2.2661  1.0504
30550SOL    HW298891  10.329   5.440   4.398 -1.6026  0.7822 -2.9601
30551SOL     OW98892  11.025   7.023  10.934  0.2001  0.8050 -0.3632
30551SOL    HW198893  11.119   7.041  10.931 -0.2082  3.0027 -2.0311
30551SOL    HW298894  11.014   6.946  10.878  1.1109 -0.3434  0.9537
30552SOL     OW98895   5.054  10.632   3.886  0.1010  0.1940  0.1687
30552SOL    HW198896   4.979  10.674   3.843 -0.4629  0.3309  1.2472
30552SOL    HW298897   5.053  10.543   3.853  2.1083  1.2544 -3.1950
30553SOL     OW98898   1.363   9.538   6.700 -0.2615 -0.0878 -0.3054
30553SOL    HW198899   1.366   9.493   6.784  0.5021  2.2825  1.0579
30553SOL    HW298900   1.453   9.567   6.685 -1.0837  3.2610  0.3599
30554SOL     OW98901   6.398   5.194   4.040 -0.0032  0.2018 -0.1260
30554SOL    HW198902   6.379   5.284   4.066  0.6254  0.4607 -0.5394
30554SOL    HW298903   6.311   5.153   4.030 -0.3139 -0.1831  3.1546
30555SOL     OW98904   8.011   2.393  12.146 -0.0789  0.7816 -0.4552
30555SOL    HW198905   7.931   2.439  12.120  0.0730  1.9802  1.0474
30555SOL    HW298906   8.037   2.435  12.228  1.0773 -0.8225  0.0494
30556SOL     OW98907  11.713  12.602  11.605  0.2439 -0.0572 -0.0486
30556SOL    HW198908  11.710  12.697  11.613  0.2607 -0.0809  0.2293
30556SOL    HW298909  11.797  12.584  11.563 -0.3670  0.1379 -1.3951
30557SOL     OW98910   2.482   9.999   5.737  0.1906  0.0569  0.0776
30557SOL    HW198911   2.458   9.967   5.824 -0.0736 -0.3781 -0.1530
30557SOL    HW298912   2.406  10.050   5.709 -0.7807 -1.8019 -0.8958
30558SOL     OW98913   2.754   5.653   5.596  0.3208 -0.1839  0.3185
30558SOL    HW198914   2.670   5.629   5.635  0.5568  0.0313  0.9752
30558SOL    HW298915   2.770   5.743   5.626 -0.1768  0.5414 -1.4675
30559SOL     OW98916   8.449   1.623   3.241  0.1370  0.2213  0.2524
30559SOL    HW198917   8.490   1.655   3.321 -2.2409  2.5597  0.6673
30559SOL    HW298918   8.356   1.642   3.251 -0.4151 -0.3081 -2.6645
30560SOL     OW98919   7.400   5.557   2.487  0.4521 -0.2323  0.7610
30560SOL    HW198920   7.460   5.629   2.502 -0.1848  0.2905  0.8723
30560SOL    HW298921   7.453   5.489   2.445  0.7769  0.8273 -0.6213
30561SOL     OW98922   5.389   2.617   5.482  0.2843 -0.0012 -0.4776
30561SOL    HW198923   5.385   2.551   5.552 -1.6156  0.0909 -0.4648
30561SOL    HW298924   5.475   2.657   5.493 -0.0191  0.1508  1.9423
30562SOL     OW98925   4.634   1.544   0.385  0.2208  0.7893  0.7596
30562SOL    HW198926   4.646   1.459   0.429 -0.1371 -0.4711 -1.4357
30562SOL    HW298927   4.554   1.533   0.334  0.8233  2.0467 -0.5028
30563SOL     OW98928  12.537  12.278   7.455  0.1392  0.0282 -0.2927
30563SOL    HW198929  12.569  12.347   7.512 -0.5278  2.0548 -2.2608
30563SOL    HW298930  12.614  12.246   7.408  0.4029 -0.4324  0.4307
30564SOL     OW98931   0.947   0.219   5.121  0.4651 -0.1455 -0.0223
30564SOL    HW198932   0.864   0.172   5.108  0.9851 -0.9532 -0.5123
30564SOL    HW298933   0.963   0.263   5.038  0.3793  0.2529  0.1725
30565SOL     OW98934   9.463  10.641  12.334  0.2369  0.5703 -0.0068
30565SOL    HW198935   9.420  10.683  12.408 -0.0988 -1.6050  1.1159
30565SOL    HW298936   9.398  10.578  12.302 -0.8807  3.4248 -4.1841
30566SOL     OW98937   8.035   5.788   7.679  0.1845  0.5126 -0.5351
30566SOL    HW198938   8.038   5.706   7.729 -0.0978  1.0158  0.3226
30566SOL    HW298939   8.041   5.760   7.587  0.0334 -0.4727 -0.2579
30567SOL     OW98940   8.351   9.061   2.913 -0.2897  0.5185  0.5308
30567SOL    HW198941   8.409   9.050   2.839 -0.4191  0.2583  0.4672
30567SOL    HW298942   8.376   8.992   2.975 -2.2421 -1.3317 -0.5949
30568SOL     OW98943  10.452  12.502   3.810 -0.0542  1.0997 -0.7400
30568SOL    HW198944  10.544  12.491   3.787 -0.2995  0.8086 -1.6208
30568SOL    HW298945  10.410  12.531   3.729 -0.8431  0.6375 -0.5096
30569SOL     OW98946   8.432   6.440   1.482  0.0613 -0.1107  0.9052
30569SOL    HW198947   8.420   6.494   1.561 -2.5034 -0.0184  0.5273
30569SOL    HW298948   8.382   6.360   1.499 -2.2016  0.7075 -1.2945
30570SOL     OW98949   8.869   3.147   1.094 -0.0562  0.0427 -0.1013
30570SOL    HW198950   8.849   3.121   1.184 -1.9950 -1.7459 -0.9601
30570SOL    HW298951   8.960   3.177   1.097  1.0009 -2.9291  1.9025
30571SOL     OW98952   1.030   0.714   4.548 -0.3637 -0.0564 -0.1446
30571SOL    HW198953   1.064   0.789   4.499 -1.3612  0.1551 -0.5216
30571SOL    HW298954   0.941   0.739   4.572 -1.1983 -1.6471 -1.4290
30572SOL     OW98955   8.008   0.752   2.337  0.2599 -0.0816 -0.0331
30572SOL    HW198956   8.062   0.695   2.392 -0.1696  0.4483  0.9704
30572SOL    HW298957   7.945   0.692   2.295  0.7513 -0.5248 -0.1484
30573SOL     OW98958  10.209  12.243   7.881 -0.0268 -0.4212 -0.1544
30573SOL    HW198959  10.258  12.226   7.800 -0.3465  1.2325 -0.7426
30573SOL    HW298960  10.235  12.173   7.940  0.7050 -1.3176 -1.4761
30574SOL     OW98961   9.233   1.725   5.009 -0.2705 -0.1848  0.6587
30574SOL    HW198962   9.203   1.713   5.099  1.3892 -0.7620  1.1795
30574SOL    HW298963   9.159   1.696   4.955 -1.8582  1.5446  1.7708
30575SOL     OW98964   3.756   3.542   7.390 -0.4507  0.2297  0.1809
30575SOL    HW198965   3.745   3.531   7.296 -0.8473  0.0966  0.2432
30575SOL    HW298966   3.790   3.457   7.420  1.4840  0.8366 -0.1086
30576SOL     OW98967  10.809   7.624   6.797  0.2696 -0.8019  0.5056
30576SOL    HW198968  10.862   7.545   6.785 -0.2772 -1.1494  0.3406
30576SOL    HW298969  10.817   7.645   6.890 -0.9941 -2.0856  0.9394
30577SOL     OW98970   9.531   5.939  12.413 -0.0058 -0.5233  0.7770
30577SOL    HW198971   9.594   6.011  12.407 -0.6112 -0.0864 -0.7126
30577SOL    HW298972   9.528   5.917  12.507  0.3126  1.2885  1.2446
30578SOL     OW98973   3.901   0.217  12.028 -0.1681  0.1549  0.5113
30578SOL    HW198974   3.856   0.287  11.980  0.1486  0.0779  0.0945
30578SOL    HW298975   3.833   0.180  12.084 -1.3330 -1.5462 -1.8183
30579SOL     OW98976   9.264  10.750   6.630 -0.6092 -0.0479  0.5526
30579SOL    HW198977   9.171  10.729   6.636 -0.9778  1.7756  2.1560
30579SOL    HW298978   9.274  10.828   6.684  1.3128  1.5982 -1.9686
30580SOL     OW98979   3.908   0.878   9.597  0.3250 -0.6924 -0.7660
30580SOL    HW198980   3.837   0.923   9.551  0.8455 -1.2504 -2.1646
30580SOL    HW298981   3.971   0.947   9.616  0.1064 -0.4543 -0.8983
30581SOL     OW98982   8.607  12.206  11.308 -0.1915  0.0874  0.1365
30581SOL    HW198983   8.613  12.279  11.369  0.0290  0.4085 -0.2618
30581SOL    HW298984   8.550  12.238  11.238  0.2107  0.0159 -0.2302
30582SOL     OW98985  10.952   5.180   4.364 -0.3945 -0.4729  0.2654
30582SOL    HW198986  10.892   5.107   4.351 -1.1891  0.1636  0.2632
30582SOL    HW298987  10.948   5.230   4.282  0.0715 -0.3808  0.2973
30583SOL     OW98988   2.424   7.613   3.890  0.6307 -0.1599  0.3086
30583SOL    HW198989   2.470   7.688   3.929 -2.6042  0.9082  2.5319
30583SOL    HW298990   2.467   7.599   3.806  3.8271  1.7030  1.4799
30584SOL     OW98991   4.107   6.864   9.400  0.7115 -0.5660 -0.7948
30584SOL    HW198992   4.192   6.825   9.422  1.7853  2.6793  1.6163
30584SOL    HW298993   4.128   6.951   9.367 -1.6613  0.0302 -0.9417
30585SOL     OW98994   1.710   7.848   5.955  0.5847  0.5285  0.1989
30585SOL    HW198995   1.638   7.882   6.008 -0.1730  0.0191 -0.4751
30585SOL    HW298996   1.711   7.903   5.877  0.1841 -0.1682 -0.3070
30586SOL     OW98997  11.349  10.809   5.053  0.1397  0.1826 -0.2059
30586SOL    HW198998  11.290  10.753   5.104 -1.6209  0.6494 -1.6531
30586SOL    HW298999  11.374  10.879   5.114 -0.8302  0.0021  0.4249
30587SOL     OW99000   6.669   4.962   0.371  0.1310  0.7488  0.4346
30587SOL    HW199001   6.576   4.973   0.395  0.4712  1.7958  1.3656
30587SOL    HW299002   6.677   5.011   0.289 -0.3928 -0.4051 -0.3432
30588SOL     OW99003  11.437   7.748   5.445 -0.0701 -0.5540  0.4868
30588SOL    HW199004  11.399   7.831   5.474  1.1703 -0.1914  1.1668
30588SOL    HW299005  11.408   7.738   5.354 -0.2425  0.6220  0.4018
30589SOL     OW99006  10.488   7.911   2.029  0.4586  0.1116  0.9685
30589SOL    HW199007  10.491   8.004   2.007  0.5409 -0.0073  0.4632
30589SOL    HW299008  10.578   7.881   2.019  0.1081 -0.4463 -0.7876
30590SOL     OW99009  10.034   2.694   6.324 -0.2638  0.1215  0.1761
30590SOL    HW199010  10.056   2.746   6.247 -0.1940  0.2771  0.2990
30590SOL    HW299011   9.941   2.711   6.339  0.2288  2.0926  1.5900
30591SOL     OW99012   7.773   7.851   9.921  0.0447 -0.0133  0.2425
30591SOL    HW199013   7.783   7.943   9.945 -0.5072  0.0434  0.2877
30591SOL    HW299014   7.834   7.837   9.849 -0.7153  0.7135 -0.5757
30592SOL     OW99015   2.385  10.943   2.528 -0.2692  0.4329 -0.2010
30592SOL    HW199016   2.341  11.008   2.582 -0.6730 -1.0556  1.3403
30592SOL    HW299017   2.454  10.907   2.583 -0.1140 -0.5153 -0.9737
30593SOL     OW99018   9.610   6.044   6.799  0.5535 -0.1762  0.2489
30593SOL    HW199019   9.668   5.990   6.744 -2.5305 -1.6894 -1.7903
30593SOL    HW299020   9.623   6.133   6.766 -0.6919 -0.9444 -2.6952
30594SOL     OW99021   8.698  11.817  12.420  0.1110 -0.0722  0.2428
30594SOL    HW199022   8.746  11.900  12.414  0.4076 -0.2466  0.1858
30594SOL    HW299023   8.698  11.783  12.330 -0.9122  0.3646  0.0577
30595SOL     OW99024   5.507   7.173   5.961 -0.6102  0.3025 -0.0804
30595SOL    HW199025   5.590   7.137   5.929 -0.4677  1.8956 -1.7362
30595SOL    HW299026   5.467   7.212   5.883 -1.4887  2.2134  1.2424
30596SOL     OW99027   4.117   3.750   6.540  0.1273  0.0987 -0.6290
30596SOL    HW199028   4.094   3.657   6.537 -0.8819  0.3468 -2.8258
30596SOL    HW299029   4.209   3.753   6.513  0.4421 -0.3256  0.3764
30597SOL     OW99030   1.364   2.087   2.137  0.3583 -0.3878 -0.2654
30597SOL    HW199031   1.453   2.052   2.133  0.9208  0.9191  0.3361
30597SOL    HW299032   1.335   2.090   2.046  1.3530  0.2168 -0.5817
30598SOL     OW99033   0.402   9.137   1.376  0.1959  0.5775 -0.3283
30598SOL    HW199034   0.349   9.062   1.349 -0.3896 -0.0066  2.2256
30598SOL    HW299035   0.478   9.099   1.420  0.1415  1.4528  0.5515
30599SOL     OW99036   2.155   9.046   4.927  0.4944 -0.3238 -0.5463
30599SOL    HW199037   2.060   9.031   4.926  0.5470 -0.9368 -3.0046
30599SOL    HW299038   2.187   9.002   4.848  2.7172  0.6034 -0.2308
30600SOL     OW99039   0.924   7.984  11.559 -0.1143 -0.7044 -0.2868
30600SOL    HW199040   0.883   7.939  11.633 -0.9412 -0.7320 -0.7435
30600SOL    HW299041   0.923   8.077  11.584  1.5114 -0.8974  0.6173
30601SOL     OW99042   2.376  11.350  11.660  0.2910 -0.1784  0.1935
30601SOL    HW199043   2.352  11.258  11.671 -1.2495  0.1697 -0.0331
30601SOL    HW299044   2.356  11.369  11.568 -0.8096  0.7461  0.5969
30602SOL     OW99045   0.922  11.201   0.449 -0.0442 -0.1183 -0.2502
30602SOL    HW199046   0.866  11.126   0.467  2.0169 -1.7144 -0.1634
30602SOL    HW299047   0.905  11.262   0.521 -0.6326 -1.1660  0.5204
30603SOL     OW99048   9.238   3.287   4.528  0.0135 -0.5153  0.2065
30603SOL    HW199049   9.221   3.363   4.583  1.8587 -0.8662  1.3257
30603SOL    HW299050   9.154   3.271   4.483 -1.2278  0.4576  2.0479
30604SOL     OW99051   0.073   2.925   9.211  0.2701 -0.2610 -0.3620
30604SOL    HW199052   0.068   2.843   9.260 -0.7361  0.5285  0.9046
30604SOL    HW299053   0.147   2.972   9.250 -0.3502  0.2447  0.2112
30605SOL     OW99054   0.016   4.628   2.170  0.0220  0.0545 -0.5653
30605SOL    HW199055   0.097   4.674   2.193 -0.3477  0.4840 -0.1058
30605SOL    HW299056  -0.040   4.695   2.131 -1.8264  0.8833  3.0977
30606SOL     OW99057   1.975   1.115   7.088 -0.0658 -0.0660 -0.3618
30606SOL    HW199058   2.056   1.099   7.040  0.5150  1.4215  0.0494
30606SOL    HW299059   1.977   1.051   7.160 -0.1354 -1.2026 -1.3447
30607SOL     OW99060   7.216  11.132   4.455  0.5973 -0.2138 -0.1862
30607SOL    HW199061   7.227  11.196   4.526 -0.2558 -0.8493  0.5353
30607SOL    HW299062   7.123  11.135   4.434  0.2890 -2.0887  0.7208
30608SOL     OW99063   0.526   3.375   4.089  0.1959  0.1116  0.5376
30608SOL    HW199064   0.450   3.330   4.125  1.1765 -0.6735  1.6685
30608SOL    HW299065   0.499   3.467   4.084 -1.5468 -0.4216 -1.0647
30609SOL     OW99066   3.694   8.888   5.245 -0.1833  0.0485  0.1717
30609SOL    HW199067   3.600   8.876   5.231 -0.3219 -1.1323  1.8227
30609SOL    HW299068   3.735   8.818   5.193 -0.3298 -0.4034  0.6493
30610SOL     OW99069   5.865  10.489   7.701  0.1635 -0.1651  0.2213
30610SOL    HW199070   5.925  10.541   7.648 -1.8043  1.6964 -0.3073
30610SOL    HW299071   5.857  10.537   7.783  1.7705 -2.0706  1.5870
30611SOL     OW99072  10.567   2.483   4.304 -0.1319 -0.3195 -0.0531
30611SOL    HW199073  10.601   2.506   4.218 -2.3939  1.5970 -0.5541
30611SOL    HW299074  10.569   2.566   4.353 -2.5536 -0.4378  0.3463
30612SOL     OW99075   6.095   3.485   4.041  0.3595  0.4238 -0.4926
30612SOL    HW199076   6.151   3.460   4.113 -2.1285 -2.8506  0.5401
30612SOL    HW299077   6.039   3.554   4.077 -1.1873 -1.5076  1.0313
30613SOL     OW99078  10.537   6.942   9.984 -0.0225  0.5709  0.3399
30613SOL    HW199079  10.525   6.848   9.969  1.2175  0.7133 -1.8566
30613SOL    HW299080  10.617   6.948  10.035 -0.4472  0.4436  1.0484
30614SOL     OW99081   9.934   0.325   6.600 -0.0830  0.1801 -0.1762
30614SOL    HW199082   9.902   0.277   6.677  0.3399  0.4358  0.1625
30614SOL    HW299083   9.927   0.417   6.625  1.0877  0.2350 -0.0259
30615SOL     OW99084   8.062   1.960  12.710 -0.2462  0.1175 -0.5800
30615SOL    HW199085   8.137   1.901  12.719 -0.6558 -0.2896  0.3125
30615SOL    HW299086   8.098   2.039  12.670  0.5456 -0.2875 -0.6842
30616SOL     OW99087  12.161   7.934   6.946 -0.1714  0.2311 -0.1248
30616SOL    HW199088  12.069   7.946   6.969 -0.4429 -1.4457 -0.2330
30616SOL    HW299089  12.165   7.848   6.905  1.4899  0.1631  0.1006
30617SOL     OW99090   7.296  11.439   5.907  0.5490 -0.1256  0.8721
30617SOL    HW199091   7.365  11.504   5.922 -1.6011  3.2398 -2.2671
30617SOL    HW299092   7.310  11.410   5.817 -1.2009 -0.5532  0.7121
30618SOL     OW99093   5.591   0.106   3.748  0.1004 -0.3623  0.1881
30618SOL    HW199094   5.507   0.069   3.775 -1.9034  0.7717 -3.6664
30618SOL    HW299095   5.635   0.033   3.703  0.3277 -0.4634  0.5744
30619SOL     OW99096  10.264   2.861   7.066  0.4322 -0.5583 -0.0890
30619SOL    HW199097  10.209   2.855   6.988 -0.1506  0.9520  0.1547
30619SOL    HW299098  10.222   2.805   7.130  0.1072 -0.6986 -0.4240
30620SOL     OW99099   2.565  11.801   2.902  0.1348 -0.0690  0.1584
30620SOL    HW199100   2.661  11.807   2.900  0.2181 -1.1014  0.7000
30620SOL    HW299101   2.539  11.861   2.972  0.1439  2.4609 -1.8346
30621SOL     OW99102   7.539  10.949  11.748  0.1477 -0.1910  0.3133
30621SOL    HW199103   7.567  10.867  11.789  0.4922 -0.5088 -0.5192
30621SOL    HW299104   7.586  11.017  11.795  1.3954 -0.6299 -0.2482
30622SOL     OW99105  11.308   7.938   9.121 -0.2975 -0.2397 -0.3794
30622SOL    HW199106  11.289   8.032   9.125  0.3877 -0.0500 -1.3697
30622SOL    HW299107  11.234   7.897   9.166 -0.4176  0.7888  0.4060
30623SOL     OW99108   4.973   1.720   1.604  0.2995 -0.2638  0.6029
30623SOL    HW199109   4.933   1.807   1.610 -0.0877 -0.4136  0.2066
30623SOL    HW299110   4.919   1.673   1.541 -0.3982 -1.2857  1.9093
30624SOL     OW99111   6.524  12.223   1.789  0.0960 -0.2594  0.4949
30624SOL    HW199112   6.439  12.260   1.764 -0.9664 -2.7120  0.2015
30624SOL    HW299113   6.585  12.297   1.782 -1.1564  0.6536 -3.7604
30625SOL     OW99114   6.236  11.231   7.124 -0.0884  0.2752  0.1762
30625SOL    HW199115   6.163  11.195   7.074  1.5489 -1.2635 -1.2672
30625SOL    HW299116   6.214  11.213   7.215 -0.4248 -2.5085 -0.3553
30626SOL     OW99117   2.941   0.085   4.190 -0.4062  0.0485  0.3582
30626SOL    HW199118   2.903   0.128   4.267  0.7583 -0.1358  1.0479
30626SOL    HW299119   3.013   0.142   4.164 -0.7662  0.0907 -0.5939
30627SOL     OW99120   6.396   5.027   8.361  0.6587  0.8298 -0.1763
30627SOL    HW199121   6.459   5.096   8.339  1.2762 -0.1980 -1.8586
30627SOL    HW299122   6.377   4.985   8.277 -1.7979  0.6751  0.4058
30628SOL     OW99123   2.904   8.284   9.640  0.3437 -0.8858 -0.3348
30628SOL    HW199124   2.989   8.247   9.662  0.5942 -0.2879 -0.2818
30628SOL    HW299125   2.848   8.208   9.624  0.3995 -1.3433  1.3867
30629SOL     OW99126   5.341  12.595   0.211 -0.5023 -0.0983 -0.6088
30629SOL    HW199127   5.276  12.557   0.151 -0.2464  0.1637 -1.0544
30629SOL    HW299128   5.326  12.689   0.206  0.0593 -0.0192 -0.8901
30630SOL     OW99129  10.146   1.209  11.914  0.0777  0.0403  0.1467
30630SOL    HW199130  10.161   1.117  11.894  1.3589  0.0983  0.7279
30630SOL    HW299131  10.098   1.208  11.997  3.9209 -0.1570  2.5994
30631SOL     OW99132   6.245   9.378   5.878  0.4711  0.1085  0.3266
30631SOL    HW199133   6.243   9.468   5.910 -0.7299 -0.1653  1.0964
30631SOL    HW299134   6.278   9.385   5.788 -0.5864  1.4433  0.0090
30632SOL     OW99135   7.673   3.385   1.572  0.4107  0.2008 -0.3134
30632SOL    HW199136   7.644   3.473   1.550 -1.3579 -0.0868  0.6773
30632SOL    HW299137   7.768   3.392   1.582  0.2147  2.1742  0.5408
30633SOL     OW99138   1.927   1.204   9.417  0.5521  0.0012 -0.0326
30633SOL    HW199139   1.854   1.199   9.356  0.0485 -3.7825  0.6435
30633SOL    HW299140   1.986   1.134   9.390  2.2532  0.7352  1.5148
30634SOL     OW99141   0.898   7.840   5.827  0.0137 -0.6358  0.2685
30634SOL    HW199142   0.970   7.903   5.834 -0.2707 -0.2071 -0.5313
30634SOL    HW299143   0.941   7.754   5.831  0.2808 -0.4567  2.7327
30635SOL     OW99144   2.788   0.965   8.459  0.1885  0.0656 -0.5528
30635SOL    HW199145   2.816   0.878   8.431 -1.1244 -0.7648  0.5889
30635SOL    HW299146   2.824   0.975   8.547 -0.4962  0.2771 -0.2940
30636SOL     OW99147   0.519   0.595   2.377  0.0714 -0.3985 -0.4581
30636SOL    HW199148   0.564   0.549   2.307  3.0067  1.8278 -0.2113
30636SOL    HW299149   0.588   0.641   2.424 -1.9182 -0.7630  3.1735
30637SOL     OW99150   1.099   9.020  11.333  0.0329 -0.6504 -0.5937
30637SOL    HW199151   1.189   9.053  11.325 -0.3880  0.8346  0.4203
30637SOL    HW299152   1.105   8.929  11.304  2.0483 -0.8503  0.2252
30638SOL     OW99153   8.856   4.695   2.318  0.3648 -0.7165 -0.3719
30638SOL    HW199154   8.787   4.762   2.324  1.3759  0.4830 -1.5415
30638SOL    HW299155   8.834   4.632   2.386 -0.7678  0.6893  0.6263
30639SOL     OW99156  12.240   8.691   0.551  0.2976  0.2756 -0.6022
30639SOL    HW199157  12.275   8.646   0.475  0.4186  0.5833 -0.7297
30639SOL    HW299158  12.280   8.778   0.548  1.3417 -0.1341  0.5472
30640SOL     OW99159   4.544   7.627  12.221  0.0307 -0.3423 -0.1585
30640SOL    HW199160   4.574   7.708  12.263  0.6516 -1.5716  1.9288
30640SOL    HW299161   4.595   7.622  12.140 -1.1280  2.0769 -1.1459
30641SOL     OW99162   9.097   9.378   0.623 -0.3145 -0.1754  0.5268
30641SOL    HW199163   9.148   9.415   0.695 -0.7702  0.3170  0.6023
30641SOL    HW299164   9.020   9.340   0.665 -0.6999  0.3247  0.2851
30642SOL     OW99165   8.566  11.962   2.523 -0.2153  0.2949  0.1867
30642SOL    HW199166   8.592  11.900   2.455  0.7539  0.9092 -0.0222
30642SOL    HW299167   8.639  11.963   2.584 -0.2730  1.1221  0.2602
30643SOL     OW99168  10.739   8.095   7.892  0.2598  0.2032  0.5017
30643SOL    HW199169  10.664   8.112   7.950  0.4408  1.1067  0.4787
30643SOL    HW299170  10.783   8.020   7.932  0.7401  1.1859  1.9149
30644SOL     OW99171   9.763   3.823   7.619  0.1043  0.2688 -0.3912
30644SOL    HW199172   9.838   3.874   7.588  0.8255  0.5832  1.7382
30644SOL    HW299173   9.705   3.888   7.658 -0.9334 -0.0773 -1.3156
30645SOL     OW99174   6.647   2.457   5.570  0.5650 -0.5601 -0.0727
30645SOL    HW199175   6.604   2.498   5.496  1.4607  0.4248 -0.0799
30645SOL    HW299176   6.588   2.387   5.597 -0.0709 -0.5225 -1.3054
30646SOL     OW99177   8.990   7.895   4.287  0.5711  0.4592 -0.6890
30646SOL    HW199178   9.005   7.987   4.262 -0.9685  0.6216 -1.0923
30646SOL    HW299179   8.905   7.874   4.250 -0.2896 -0.3628  1.6114
30647SOL     OW99180   3.649  11.504   5.523 -0.0149 -0.0081  0.0975
30647SOL    HW199181   3.705  11.504   5.445  1.6538  0.7455  1.2436
30647SOL    HW299182   3.600  11.586   5.517  0.6891  0.4293  0.2221
30648SOL     OW99183   5.026   2.050   6.305 -0.5580 -0.0426  0.3206
30648SOL    HW199184   5.097   2.088   6.254 -0.1194  1.3259  1.8574
30648SOL    HW299185   4.949   2.103   6.284 -0.8222 -0.6759 -0.3308
30649SOL     OW99186   7.574   3.016  11.130 -0.6271 -0.3441 -0.0781
30649SOL    HW199187   7.483   2.991  11.146 -0.8622  0.8290  0.5060
30649SOL    HW299188   7.570   3.070  11.051 -0.6089  0.6203  0.5646
30650SOL     OW99189   9.623  12.610  10.311  0.3792  0.0489 -0.1068
30650SOL    HW199190   9.709  12.613  10.270  0.9180 -1.3174  0.8573
30650SOL    HW299191   9.640  12.611  10.405 -0.7239  0.9066  0.1105
30651SOL     OW99192   6.555  10.624   3.746 -0.0753  0.0514 -0.6342
30651SOL    HW199193   6.494  10.685   3.704 -0.8540 -1.3434 -1.6627
30651SOL    HW299194   6.570  10.556   3.679  1.4652 -0.4105  0.1323
30652SOL     OW99195   7.902   0.911  10.057 -0.4716 -0.4204 -0.0334
30652SOL    HW199196   7.929   0.832  10.104 -0.4597 -1.2119 -1.3116
30652SOL    HW299197   7.822   0.885  10.011 -0.3164  0.2306 -0.6897
30653SOL     OW99198   0.535   6.952   3.659  0.4065 -0.6946  0.2691
30653SOL    HW199199   0.610   6.918   3.707  0.7556  0.0891  0.2832
30653SOL    HW299200   0.534   6.900   3.578 -0.1200 -1.9374  1.0514
30654SOL     OW99201   3.040   8.246   4.224 -0.0140 -0.0834  0.4157
30654SOL    HW199202   3.113   8.185   4.230  0.6122  0.6620  0.5158
30654SOL    HW299203   3.041   8.276   4.133  0.3765  0.6025  0.6359
30655SOL     OW99204  12.071   3.833   5.218  0.3255  0.7490  0.1435
30655SOL    HW199205  12.112   3.912   5.183 -0.0768  1.2507  0.7927
30655SOL    HW299206  12.112   3.820   5.303 -0.8040  1.2210  0.7767
30656SOL     OW99207   7.580  10.910   1.509 -0.1335 -0.2900 -0.2465
30656SOL    HW199208   7.546  10.840   1.455 -0.2906  1.7281 -2.9700
30656SOL    HW299209   7.535  10.989   1.478  0.5864  1.1565  2.1314
30657SOL     OW99210   3.763  11.131   1.597  0.1119  0.2330  0.1189
30657SOL    HW199211   3.857  11.131   1.578 -0.1538  0.2730 -1.3795
30657SOL    HW299212   3.742  11.040   1.614  0.4591  0.2568  0.7063
30658SOL     OW99213   3.454   3.257   1.315 -0.5995 -0.3088  0.2269
30658SOL    HW199214   3.495   3.210   1.242 -1.1527 -0.5377  0.0504
30658SOL    HW299215   3.384   3.198   1.344 -0.8859  0.1262  0.4293
30659SOL     OW99216   7.595   5.692   9.053  0.0982 -0.3219 -0.5264
30659SOL    HW199217   7.601   5.773   9.104  1.2043  0.8812 -2.4293
30659SOL    HW299218   7.679   5.687   9.006 -1.3909 -0.5131 -3.3737
30660SOL     OW99219   3.918  10.981  12.025  0.0263 -0.0275 -0.7137
30660SOL    HW199220   3.995  10.978  12.082  0.8796  0.0758 -1.8332
30660SOL    HW299221   3.911  11.073  11.999 -1.5537  0.3296  0.7714
30661SOL     OW99222  11.715   8.851   3.045 -0.0877  0.0718  0.0358
30661SOL    HW199223  11.759   8.864   2.961  3.4023  0.8658  1.8292
30661SOL    HW299224  11.707   8.755   3.053  1.0165 -0.0777 -0.5007
30662SOL     OW99225   5.548   9.333   8.849  0.0473 -0.1510 -0.2642
30662SOL    HW199226   5.551   9.315   8.755  0.5130 -1.8030  0.0368
30662SOL    HW299227   5.477   9.396   8.859 -0.0524  0.0093 -1.7068
30663SOL     OW99228   3.378   5.008   3.292  0.2635  0.2143 -0.0950
30663SOL    HW199229   3.428   5.063   3.352 -0.9415  0.7141  0.4989
30663SOL    HW299230   3.299   5.059   3.274  0.4554 -0.0676 -1.8717
30664SOL     OW99231   8.141  11.993   7.438 -0.7441 -0.4150 -0.5319
30664SOL    HW199232   8.171  11.916   7.391  0.2132  0.0790 -0.7696
30664SOL    HW299233   8.051  11.973   7.462  0.1921 -2.5966  1.5223
30665SOL     OW99234  10.785   7.470  11.771  0.1639 -0.4388  0.3979
30665SOL    HW199235  10.828   7.385  11.783  3.0101  0.8201  0.0948
30665SOL    HW299236  10.857   7.533  11.772 -1.4792  1.7278 -2.2386
30666SOL     OW99237   0.625  11.518  11.663  0.3633 -0.0953  0.1552
30666SOL    HW199238   0.623  11.422  11.662  0.0029 -0.0990 -1.3828
30666SOL    HW299239   0.595  11.543  11.576 -1.1840  1.4539  1.0627
30667SOL     OW99240  12.247   7.601   2.663 -0.3290  0.3516 -0.4659
30667SOL    HW199241  12.261   7.560   2.578 -0.4148  2.2537 -1.4465
30667SOL    HW299242  12.280   7.537   2.726  0.5036 -0.7544 -1.9596
30668SOL     OW99243   8.600   2.395   0.425  0.6681  0.4124  1.0346
30668SOL    HW199244   8.685   2.427   0.395  0.7012 -0.0944  0.5659
30668SOL    HW299245   8.612   2.379   0.518  0.1454  3.4175  1.7165
30669SOL     OW99246   8.297   8.605   0.021  0.1851  0.0944  0.1628
30669SOL    HW199247   8.210   8.583   0.054 -0.9933  1.7579 -1.5997
30669SOL    HW299248   8.328   8.675   0.078  1.5835 -2.1605  2.3830
30670SOL     OW99249   3.207   7.031   2.095 -0.2006 -0.3873  0.2392
30670SOL    HW199250   3.252   6.948   2.111  0.5404  0.0004  0.1599
30670SOL    HW299251   3.134   7.007   2.037  1.1080 -0.6968 -1.3686
30671SOL     OW99252   7.173   4.147   3.365  0.1292  0.3484 -0.2321
30671SOL    HW199253   7.264   4.175   3.363  0.1350  0.3055 -0.4968
30671SOL    HW299254   7.173   4.068   3.420 -0.1465  1.8572  2.1139
30672SOL     OW99255   8.465   2.625  10.492  0.0906 -0.6908 -0.5945
30672SOL    HW199256   8.503   2.647  10.577  0.2506 -0.7613 -0.6477
30672SOL    HW299257   8.499   2.538  10.472  1.2367 -0.0848 -1.4103
30673SOL     OW99258   1.262  11.702   3.767 -0.1859  0.1207  0.2430
30673SOL    HW199259   1.254  11.706   3.863  0.5702 -2.2188  0.4760
30673SOL    HW299260   1.214  11.623   3.743  0.6237  0.0411 -1.1836
30674SOL     OW99261  10.985   6.466   9.454 -0.6142 -0.0771  0.2283
30674SOL    HW199262  11.072   6.474   9.415 -0.0948 -1.6510  0.9976
30674SOL    HW299263  10.994   6.395   9.518 -2.6306 -0.7178 -0.1495
30675SOL     OW99264   2.447   9.368   3.332  0.6339 -0.4889  0.1510
30675SOL    HW199265   2.445   9.401   3.422 -3.2056 -0.9539  0.3919
30675SOL    HW299266   2.497   9.287   3.338  0.1248 -0.7229  1.9433
30676SOL     OW99267   0.294   6.525   4.559 -0.2095  0.3234  0.0300
30676SOL    HW199268   0.364   6.479   4.606  1.3254  1.3881 -1.1445
30676SOL    HW299269   0.303   6.616   4.585 -0.2338  0.6994 -1.2089
30677SOL     OW99270   6.270   4.185   5.329 -0.0411  0.2093 -0.0011
30677SOL    HW199271   6.272   4.093   5.354  2.2035  0.3668  0.5510
30677SOL    HW299272   6.328   4.191   5.253 -0.9680  1.0145 -0.6787
30678SOL     OW99273   9.621   9.964   0.103 -0.3200 -0.7748 -0.1609
30678SOL    HW199274   9.579   9.955   0.189  0.1865 -0.6153  0.1085
30678SOL    HW299275   9.651  10.054   0.100 -1.2993 -0.4561 -0.9666
30679SOL     OW99276   0.612   5.045  10.203  0.4318 -0.3439  0.0126
30679SOL    HW199277   0.642   5.097  10.128 -0.0190 -1.8445 -1.2596
30679SOL    HW299278   0.595   5.110  10.272  3.6218  0.8540 -0.1591
30680SOL     OW99279   4.816   1.264   8.655 -0.3083  0.0304  0.7945
30680SOL    HW199280   4.812   1.351   8.614 -1.4024 -0.6750 -0.7306
30680SOL    HW299281   4.904   1.232   8.635 -0.4647  0.1357 -0.1348
30681SOL     OW99282   5.478  12.129   4.458  0.1174  0.7657 -0.1409
30681SOL    HW199283   5.388  12.103   4.437  0.3285  0.1142 -0.2430
30681SOL    HW299284   5.478  12.224   4.444 -0.7047  0.8608  0.4154
30682SOL     OW99285   6.503   8.526   9.932  0.5208 -0.6053  0.0471
30682SOL    HW199286   6.548   8.599   9.888 -1.9153  0.5087 -0.7719
30682SOL    HW299287   6.486   8.463   9.861 -0.8297 -0.1354 -0.0788
30683SOL     OW99288   2.417   7.656   6.075  0.1253 -0.0822 -0.2612
30683SOL    HW199289   2.402   7.573   6.029 -0.0542  0.2931 -0.8891
30683SOL    HW299290   2.500   7.643   6.122  0.7700 -0.1728 -1.3952
30684SOL     OW99291   3.295   6.073  12.348 -0.3878 -0.1821  0.0012
30684SOL    HW199292   3.332   6.156  12.377 -0.5974  1.0643 -2.9625
30684SOL    HW299293   3.200   6.084  12.356 -0.3921 -0.4284  0.3074
30685SOL     OW99294   5.417   8.720   5.634  0.2276  0.4127 -0.4081
30685SOL    HW199295   5.324   8.725   5.611 -0.1375 -2.3543  0.0783
30685SOL    HW299296   5.459   8.682   5.557  0.5950 -0.1970  0.0770
30686SOL     OW99297   5.460   1.918   3.721 -0.0442 -0.2527 -0.0229
30686SOL    HW199298   5.381   1.872   3.693 -0.2179 -1.1693  1.8400
30686SOL    HW299299   5.518   1.849   3.753  0.6092  0.6272  0.7277
30687SOL     OW99300   3.837   1.916   1.487  0.2375  0.0149  0.4412
30687SOL    HW199301   3.912   1.941   1.432 -0.3876 -0.7716 -0.8317
30687SOL    HW299302   3.853   1.825   1.511 -0.2235 -0.1114  0.2909
30688SOL     OW99303   9.987   4.964   1.012 -0.7412 -0.3433 -0.4140
30688SOL    HW199304   9.996   5.036   0.949  1.4749  2.7575  3.0169
30688SOL    HW299305   9.896   4.969   1.041 -0.7884  0.7206 -0.7059
30689SOL     OW99306   4.908   6.326   1.134  0.0588 -0.6050 -0.0616
30689SOL    HW199307   4.947   6.240   1.148 -0.2215 -0.8976 -1.0179
30689SOL    HW299308   4.817   6.308   1.113  0.2901 -0.1751 -1.5603
30690SOL     OW99309   2.437   3.285   0.706 -0.4202  0.3902  0.3177
30690SOL    HW199310   2.523   3.305   0.742  0.0907  0.2380 -0.7783
30690SOL    HW299311   2.380   3.354   0.741  0.6507  1.9578 -0.8559
30691SOL     OW99312   9.604   0.078   0.114 -0.1060 -0.3041 -0.2864
30691SOL    HW199313   9.604  -0.007   0.159  1.5338  0.0417  0.4433
30691SOL    HW299314   9.562   0.061   0.030  1.0737 -2.0770 -0.5696
30692SOL     OW99315   5.662  10.303   7.174 -0.1464  0.1579  0.2238
30692SOL    HW199316   5.721  10.372   7.204  0.6897  0.4275 -1.8372
30692SOL    HW299317   5.718  10.226   7.167 -0.8467 -0.5012  1.5109
30693SOL     OW99318   8.590   9.814   1.338  0.7591 -0.5837  0.4789
30693SOL    HW199319   8.529   9.835   1.409  0.0007 -1.5240  0.1365
30693SOL    HW299320   8.675   9.804   1.381  0.5691  0.1963  1.0480
30694SOL     OW99321   2.794   5.574   8.161 -0.7501  0.1382 -0.7579
30694SOL    HW199322   2.784   5.665   8.189 -1.8455 -0.0973 -0.3370
30694SOL    HW299323   2.826   5.580   8.071  1.6518  0.9187  0.0520
30695SOL     OW99324   0.980   9.767   5.964  0.0974 -0.0960 -0.3340
30695SOL    HW199325   0.953   9.824   6.037 -1.2229  1.7062 -2.1048
30695SOL    HW299326   0.899   9.724   5.937  0.9095 -2.1625  0.3371
30696SOL     OW99327   0.279   3.388   4.532  0.3561  0.2764  0.2183
30696SOL    HW199328   0.240   3.463   4.487 -0.4908 -0.6337 -0.6261
30696SOL    HW299329   0.300   3.326   4.462  0.9298 -0.3226  0.9001
30697SOL     OW99330   4.569   6.439  10.615 -0.0931  0.4015 -0.2983
30697SOL    HW199331   4.645   6.462  10.561  0.5535 -1.6701 -0.3679
30697SOL    HW299332   4.576   6.496  10.692  1.8435 -0.0523 -0.0763
30698SOL     OW99333   3.172   2.730  10.360 -0.3193  0.4000 -0.9160
30698SOL    HW199334   3.077   2.724  10.349 -0.3847 -0.9789  0.1513
30698SOL    HW299335   3.202   2.639  10.359  0.6433  0.6139  1.3838
30699SOL     OW99336   3.378   1.219   0.866 -0.0223 -0.5631 -0.7978
30699SOL    HW199337   3.342   1.131   0.874 -0.7785 -0.0940  2.2773
30699SOL    HW299338   3.450   1.221   0.928  0.1263  0.9078 -0.9795
30700SOL     OW99339   2.744   1.113   4.202 -0.1738 -0.1771 -0.5028
30700SOL    HW199340   2.668   1.113   4.145 -0.5442  0.2109 -0.0138
30700SOL    HW299341   2.763   1.206   4.217  0.6406 -0.2582 -0.9391
30701SOL     OW99342  12.050  12.367   5.318 -0.2335 -0.0197  0.3367
30701SOL    HW199343  12.004  12.309   5.257 -2.5706  0.0354  1.8883
30701SOL    HW299344  12.053  12.451   5.273 -1.0416 -0.2067 -0.0944
30702SOL     OW99345   1.034   3.904   2.395 -0.6030  0.1914  0.0324
30702SOL    HW199346   0.960   3.852   2.427 -0.3424  0.1473  0.5712
30702SOL    HW299347   1.111   3.867   2.439 -0.4307  1.1463  0.5682
30703SOL     OW99348   7.065   4.812   7.348 -0.5609  0.0183 -0.1130
30703SOL    HW199349   7.036   4.810   7.257 -0.8060  0.0412 -0.0351
30703SOL    HW299350   7.121   4.735   7.356  2.1177  1.6817 -1.1577
30704SOL     OW99351   2.737   3.636   1.091 -0.1803  0.6111 -0.1807
30704SOL    HW199352   2.700   3.603   1.173  0.5615 -1.0216 -0.4514
30704SOL    HW299353   2.784   3.715   1.115  1.3177 -0.6774  1.2727
30705SOL     OW99354   1.516   3.778   0.924  0.6478 -0.1245  0.1652
30705SOL    HW199355   1.428   3.769   0.960  0.7679  0.7261  0.6997
30705SOL    HW299356   1.548   3.860   0.960  1.1255  0.3002 -1.1838
30706SOL     OW99357   9.042   4.193  10.423 -0.0454  0.0063  0.2533
30706SOL    HW199358   9.009   4.221  10.508 -0.4238 -1.4803  0.6220
30706SOL    HW299359   8.992   4.113  10.402  0.1037  0.2834 -1.3186
30707SOL     OW99360  12.699   0.437   1.504  1.1164 -0.1834 -0.1097
30707SOL    HW199361  12.628   0.460   1.444  0.7743  1.3390  0.8083
30707SOL    HW299362  12.726   0.350   1.477 -1.3490 -0.9730 -0.2690
30708SOL     OW99363   6.099   1.040   2.929  0.3063 -0.4942 -0.9384
30708SOL    HW199364   6.128   1.033   3.020 -1.5510  0.8949 -0.1612
30708SOL    HW299365   6.071   0.952   2.905  0.4135 -0.7939 -0.0023
30709SOL     OW99366   2.893  10.486   5.098  0.2672 -0.1759 -0.1523
30709SOL    HW199367   2.858  10.477   5.010  0.1224  1.7177 -0.3343
30709SOL    HW299368   2.829  10.442   5.154 -0.5139  0.0665 -0.8365
30710SOL     OW99369  11.324   0.494   0.664  0.5460 -0.6441  0.0944
30710SOL    HW199370  11.385   0.544   0.609  0.1058  1.1004  1.0911
30710SOL    HW299371  11.306   0.414   0.615  3.3337 -1.0648 -0.4111
30711SOL     OW99372   5.757   8.295  10.927 -0.2972  0.5192  0.1859
30711SOL    HW199373   5.717   8.210  10.908  2.0913 -0.4510 -0.8367
30711SOL    HW299374   5.789   8.287  11.017  0.7050 -0.0220 -0.2044
30712SOL     OW99375   9.111   5.285   7.823  0.1807 -0.6509 -0.1593
30712SOL    HW199376   9.116   5.333   7.740 -1.8826 -1.7295 -0.9685
30712SOL    HW299377   9.077   5.348   7.886  0.2583 -0.2640 -0.5013
30713SOL     OW99378   5.421   9.853   0.108  0.2156  0.0712 -0.1756
30713SOL    HW199379   5.412   9.789   0.179  1.8598  0.6796  0.6125
30713SOL    HW299380   5.382   9.809   0.032 -1.6180 -0.5881  1.0681
30714SOL     OW99381   6.373  10.476   2.709 -0.6962 -0.3118  0.1352
30714SOL    HW199382   6.313  10.419   2.661 -0.4371  0.2549 -0.9077
30714SOL    HW299383   6.337  10.563   2.698  0.2273  0.0211 -0.4050
30715SOL     OW99384   4.047   4.038   7.402 -0.0655  0.1212 -0.2740
30715SOL    HW199385   4.120   4.048   7.341 -0.3982 -0.4574 -0.7763
30715SOL    HW299386   4.058   4.110   7.464  0.0805  0.9151 -1.2016
30716SOL     OW99387   7.364   7.145   0.972 -0.3851  0.0922  0.7522
30716SOL    HW199388   7.302   7.074   0.988 -0.7969 -0.0366 -1.1352
30716SOL    HW299389   7.381   7.141   0.878  0.3274  1.9037  0.7618
30717SOL     OW99390   9.189   9.873   9.226 -0.0361 -0.5534  0.0154
30717SOL    HW199391   9.115   9.925   9.259 -0.2472 -1.3677  0.8508
30717SOL    HW299392   9.149   9.794   9.189  0.3500 -0.5521 -0.4221
30718SOL     OW99393   5.312  12.205   1.485  0.0182  0.1809  0.3341
30718SOL    HW199394   5.394  12.179   1.527  0.4701 -2.0164 -1.6843
30718SOL    HW299395   5.246  12.195   1.554  1.1140 -0.4401  1.3336
30719SOL     OW99396   1.689   9.893   7.813 -0.0559  0.0142  0.4615
30719SOL    HW199397   1.693   9.826   7.744  1.5609  0.4785  0.0711
30719SOL    HW299398   1.612   9.945   7.791  0.3599  0.0716 -0.9372
30720SOL     OW99399   7.158   5.191   6.591 -0.0722  0.2590  0.1347
30720SOL    HW199400   7.103   5.124   6.632 -1.5086 -0.2609 -2.4182
30720SOL    HW299401   7.225   5.142   6.543  0.4546  0.7552  0.3567
30721SOL     OW99402   0.801   1.498   3.977  0.1098 -0.3848 -0.5887
30721SOL    HW199403   0.765   1.485   4.064  0.3051  0.0234 -0.4434
30721SOL    HW299404   0.871   1.432   3.969  0.9270  0.3778  0.0411
30722SOL     OW99405  10.835   0.754   7.970  0.1065 -0.1787 -0.0479
30722SOL    HW199406  10.849   0.828   7.911  1.1269 -0.1899  0.1517
30722SOL    HW299407  10.842   0.677   7.913 -1.0379 -0.1383 -0.2700
30723SOL     OW99408  11.559   6.839   2.119  0.2367 -0.3189 -0.2880
30723SOL    HW199409  11.550   6.782   2.043  0.7084  0.9969 -1.3785
30723SOL    HW299410  11.487   6.902   2.110 -0.8751 -1.2557  1.4112
30724SOL     OW99411   1.741   4.816   1.458 -0.0326  0.0968 -0.4239
30724SOL    HW199412   1.712   4.838   1.546 -0.3351  1.5401 -0.8672
30724SOL    HW299413   1.804   4.884   1.435  2.8306 -2.1890 -0.0090
30725SOL     OW99414   0.292   1.527   9.524  0.8177 -0.6270  0.0213
30725SOL    HW199415   0.249   1.447   9.556 -1.0150  0.3009 -0.0045
30725SOL    HW299416   0.383   1.501   9.512  0.2961 -2.7094  0.0671
30726SOL     OW99417   7.286   5.543  11.726 -0.4869  0.4076 -0.2222
30726SOL    HW199418   7.256   5.595  11.801  0.4512 -0.0868  0.5153
30726SOL    HW299419   7.277   5.452  11.755 -1.6110  0.1519 -1.3071
30727SOL     OW99420   1.554  10.189   5.903 -0.1161  0.3852  0.1304
30727SOL    HW199421   1.613  10.260   5.876 -0.1529  1.3843  2.4543
30727SOL    HW299422   1.609  10.130   5.953 -0.4480 -0.3749 -0.3847
30728SOL     OW99423   0.948   7.133   3.022  0.0097 -0.3468  0.4971
30728SOL    HW199424   0.864   7.167   2.991  0.3881  0.6087  0.4710
30728SOL    HW299425   0.928   7.048   3.060 -0.9513 -0.1673  0.4012
30729SOL     OW99426  10.362  10.485   6.552  0.3493  0.5046  0.9760
30729SOL    HW199427  10.324  10.545   6.616  0.4235  0.5748  0.9540
30729SOL    HW299428  10.314  10.502   6.471 -1.1347 -0.9938  1.4919
30730SOL     OW99429   2.169   4.261   6.693  0.2802  0.6707 -0.4997
30730SOL    HW199430   2.236   4.227   6.633 -0.0007  0.0427 -0.4633
30730SOL    HW299431   2.212   4.261   6.779  0.5555  1.2056 -0.6354
30731SOL     OW99432   9.824   9.525   4.391 -0.7541  0.7320 -0.2049
30731SOL    HW199433   9.757   9.457   4.397 -1.5354  1.4124 -1.0465
30731SOL    HW299434   9.800   9.589   4.458 -1.1178  1.1122 -0.6897
30732SOL     OW99435   2.715   2.361   4.962  0.0832 -0.1523  0.0267
30732SOL    HW199436   2.716   2.384   5.055 -0.1103  0.7303 -0.1854
30732SOL    HW299437   2.669   2.277   4.958  0.6403 -0.5111  0.7909
30733SOL     OW99438   3.413   8.557   4.018 -0.4546 -0.2769  0.3887
30733SOL    HW199439   3.400   8.485   4.080 -0.1058  0.6795  1.6308
30733SOL    HW299440   3.508   8.563   4.009 -0.2474  1.9010  2.7172
30734SOL     OW99441   2.535   6.776  11.248  0.3058 -0.2775 -0.1951
30734SOL    HW199442   2.605   6.774  11.183 -0.9239 -0.7717 -1.5546
30734SOL    HW299443   2.503   6.686  11.253 -0.5523  0.0326  0.0463
30735SOL     OW99444   2.453   0.246   0.647 -0.0134 -0.3379  0.0471
30735SOL    HW199445   2.374   0.221   0.695 -0.0135  0.1489  0.3053
30735SOL    HW299446   2.445   0.341   0.636  0.4865 -0.3023 -0.0098
30736SOL     OW99447   7.418   0.017   9.821  0.5434 -0.0484  0.1128
30736SOL    HW199448   7.358   0.088   9.847 -0.9682 -1.8829  1.9144
30736SOL    HW299449   7.505   0.054   9.833 -0.1563  2.0722 -0.7264
30737SOL     OW99450   4.448   6.782   1.240 -0.0217  0.0781  0.6300
30737SOL    HW199451   4.400   6.748   1.315  0.5424 -1.9659  0.1214
30737SOL    HW299452   4.468   6.705   1.187  1.4438  1.2097 -0.5481
30738SOL     OW99453   4.811   4.483  12.528  0.8358 -0.3060 -0.3418
30738SOL    HW199454   4.759   4.547  12.577  0.8535  0.1966 -0.9591
30738SOL    HW299455   4.785   4.398  12.564 -0.9551 -0.1258 -1.1035
30739SOL     OW99456   9.872  11.620   1.087  0.0555 -0.1586 -0.0207
30739SOL    HW199457   9.865  11.574   1.003 -0.9600 -1.7430  0.8805
30739SOL    HW299458   9.783  11.618   1.123  0.3642  0.9751  0.8601
30740SOL     OW99459   1.140   3.601  11.125  0.1172 -0.1598 -0.0446
30740SOL    HW199460   1.176   3.687  11.104 -0.7467  0.5595  1.2553
30740SOL    HW299461   1.209   3.558  11.177 -0.7829  1.2272  2.4770
30741SOL     OW99462   5.238   3.260   5.478 -0.3157 -0.2292  0.2182
30741SOL    HW199463   5.294   3.305   5.541 -0.2542 -0.4782  0.3445
30741SOL    HW299464   5.183   3.203   5.532 -1.1535  0.5029  0.1509
30742SOL     OW99465   3.789   1.010   9.006 -0.0667  0.1821  0.1371
30742SOL    HW199466   3.800   1.102   8.983  2.4123 -0.3614 -1.1862
30742SOL    HW299467   3.698   0.991   8.984 -0.8177  2.4056  0.9926
30743SOL     OW99468  11.078   9.128   2.998 -0.7452 -0.4337  0.1707
30743SOL    HW199469  11.111   9.218   3.009  1.0389 -0.8985 -0.9672
30743SOL    HW299470  11.016   9.133   2.926 -3.2946  0.4434  2.2847
30744SOL     OW99471   5.218  11.301   7.813  0.3251 -0.3882  0.1914
30744SOL    HW199472   5.277  11.259   7.750 -0.3840 -1.6613  0.3356
30744SOL    HW299473   5.184  11.228   7.865 -0.3944  0.4667  0.9422
30745SOL     OW99474   8.110   8.034   4.140  0.4589  0.1888  0.3028
30745SOL    HW199475   8.077   8.096   4.205 -0.5416 -0.3965  0.3763
30745SOL    HW299476   8.115   7.951   4.187 -1.8576 -0.6265 -0.7359
30746SOL     OW99477  12.521   3.788   1.130  0.4087 -0.4321 -0.4065
30746SOL    HW199478  12.541   3.718   1.068  0.5272 -1.3084  0.5825
30746SOL    HW299479  12.429   3.776   1.151  1.1581 -2.5522  2.3687
30747SOL     OW99480   5.263   7.027   6.125  0.0231 -0.4920 -0.8042
30747SOL    HW199481   5.271   7.097   6.190  0.4539 -0.5312 -0.8089
30747SOL    HW299482   5.340   7.038   6.069 -1.2243  0.6362 -2.3873
30748SOL     OW99483   4.282   7.616   9.687 -0.0591  0.2292 -0.5595
30748SOL    HW199484   4.267   7.702   9.726 -0.7418 -0.5621  1.0131
30748SOL    HW299485   4.203   7.598   9.636 -0.1190  0.3324 -0.5036
30749SOL     OW99486   5.940   3.509  11.094  0.1244  0.3061 -0.4211
30749SOL    HW199487   5.919   3.417  11.081 -0.4516  0.6664 -2.3493
30749SOL    HW299488   6.033   3.515  11.072  0.3834  0.0742  0.5312
30750SOL     OW99489  12.122   4.316   8.394 -0.5181  0.1431 -0.0936
30750SOL    HW199490  12.121   4.324   8.299 -2.6383  0.4899 -0.1097
30750SOL    HW299491  12.086   4.399   8.425  0.5865  0.2193  1.0431
30751SOL     OW99492   2.778   1.435   0.816 -0.5175  0.0446  0.2103
30751SOL    HW199493   2.835   1.499   0.774  2.3255 -1.1611  1.9200
30751SOL    HW299494   2.705   1.486   0.851 -0.3405  1.7309 -1.7052
30752SOL     OW99495   3.372   4.585   8.920 -0.4332  0.0841 -0.2927
30752SOL    HW199496   3.449   4.529   8.930  1.1564  2.0159 -0.8968
30752SOL    HW299497   3.307   4.548   8.980  1.4017 -0.8794  1.2189
30753SOL     OW99498   2.519   2.784   6.233 -0.0868  0.0247  0.1799
30753SOL    HW199499   2.598   2.767   6.183  0.2154  0.0370  0.6489
30753SOL    HW299500   2.461   2.710   6.213  0.6442 -0.8049  1.0382
30754SOL     OW99501   8.529   6.704   3.095  0.0129 -0.6790  0.9151
30754SOL    HW199502   8.589   6.645   3.050  0.3740 -0.4829  1.1380
30754SOL    HW299503   8.450   6.703   3.041 -0.0710 -1.5391  1.0347
30755SOL     OW99504   8.468   9.818   8.461  0.5097  0.2383 -0.0758
30755SOL    HW199505   8.508   9.793   8.378  0.0947 -0.9469  0.0719
30755SOL    HW299506   8.430   9.905   8.444  1.6646  0.6326 -0.6965
30756SOL     OW99507   4.241   2.935  11.431  0.6212  0.4358 -0.0018
30756SOL    HW199508   4.237   2.959  11.524 -1.8130 -2.4644  0.7976
30756SOL    HW299509   4.182   2.997  11.389  0.3034  0.6307  0.7092
30757SOL     OW99510   6.149   1.544   8.003 -0.8463 -0.0156 -0.2578
30757SOL    HW199511   6.220   1.570   8.062 -1.4686  2.1689 -0.3945
30757SOL    HW299512   6.192   1.529   7.919 -0.2286 -1.2033  0.2448
30758SOL     OW99513   2.425   6.367   6.581 -0.1679 -0.4883 -0.0474
30758SOL    HW199514   2.334   6.393   6.595  0.1629  0.6873  0.0284
30758SOL    HW299515   2.470   6.395   6.660  0.7648  1.5685 -1.2226
30759SOL     OW99516   7.722   5.646   2.192  0.2401  0.3220  0.0885
30759SOL    HW199517   7.761   5.616   2.110  0.2184 -0.0656  0.2186
30759SOL    HW299518   7.628   5.647   2.175  0.0962 -1.4533  0.6499
30760SOL     OW99519  10.835   5.321  11.745 -0.1298 -0.1697  0.1982
30760SOL    HW199520  10.926   5.326  11.776 -0.3496  0.3608  0.7764
30760SOL    HW299521  10.831   5.237  11.699  1.0682  0.4866 -1.1844
30761SOL     OW99522   1.890  12.424   8.300 -0.0078 -0.2271 -0.1624
30761SOL    HW199523   1.868  12.332   8.284  0.2046  0.1203 -2.9684
30761SOL    HW299524   1.806  12.470   8.298 -0.1054 -0.3016  1.1576
30762SOL     OW99525   9.783   2.112   1.248  0.0111  0.4359  0.6269
30762SOL    HW199526   9.735   2.174   1.192  1.9043  0.7341 -0.7749
30762SOL    HW299527   9.761   2.026   1.211 -0.5024  0.4588  0.8671
30763SOL     OW99528   3.542   9.518   3.108  0.1670  0.1024 -0.3962
30763SOL    HW199529   3.556   9.427   3.134  0.0326  0.1964 -0.0007
30763SOL    HW299530   3.463   9.545   3.154  0.6234  0.6505  0.0805
30764SOL     OW99531   0.030   7.853   2.738  0.3450  0.3048  0.0350
30764SOL    HW199532   0.069   7.902   2.666  0.1086 -0.0749 -0.3520
30764SOL    HW299533   0.062   7.764   2.728  0.3482  0.2588  0.4273
30765SOL     OW99534   0.854   6.969   9.766 -0.1999 -0.5286  0.5281
30765SOL    HW199535   0.911   7.040   9.734 -0.3064 -0.7520 -0.1802
30765SOL    HW299536   0.799   7.010   9.832 -0.7133  0.2121 -0.3421
30766SOL     OW99537   6.875  11.106   5.496 -0.2230  0.5137 -1.1035
30766SOL    HW199538   6.843  11.018   5.478 -0.2011  0.3443 -0.3596
30766SOL    HW299539   6.819  11.139   5.567 -0.0569  0.9892 -1.1846
30767SOL     OW99540   9.560   8.149   3.367  0.0239  0.2197  0.4849
30767SOL    HW199541   9.566   8.178   3.276  0.5374  1.7121  0.9592
30767SOL    HW299542   9.618   8.208   3.415  1.6294 -1.9969  1.4851
30768SOL     OW99543   4.062   8.849   7.405 -0.2512 -0.1042  0.5063
30768SOL    HW199544   4.091   8.924   7.457 -3.0105 -0.1122  2.2357
30768SOL    HW299545   3.988   8.882   7.354 -0.4995 -1.2483  0.0963
30769SOL     OW99546   7.791   2.572   0.953  0.4830 -0.3258 -0.1833
30769SOL    HW199547   7.804   2.553   1.046  0.8660  0.6512 -0.0308
30769SOL    HW299548   7.725   2.641   0.951  0.6618 -0.1617 -0.6289
30770SOL     OW99549   4.080   6.155   7.905  0.1331 -0.1290  1.0275
30770SOL    HW199550   4.159   6.182   7.859 -0.9323  2.1760  0.4115
30770SOL    HW299551   4.106   6.147   7.996  0.6909  2.6872  1.1938
30771SOL     OW99552  12.259   2.887   7.299 -0.1110  0.3730 -0.3463
30771SOL    HW199553  12.309   2.968   7.306 -1.4455  1.2152 -0.3673
30771SOL    HW299554  12.190   2.906   7.236 -1.2134 -0.3667  0.5837
30772SOL     OW99555   8.547   8.985   1.441  0.2067 -0.0709  0.0964
30772SOL    HW199556   8.590   8.921   1.384  1.5443  1.8927 -1.2226
30772SOL    HW299557   8.542   9.064   1.388 -0.3408  1.2612  2.0568
30773SOL     OW99558  11.940   5.389   9.744 -0.0169  0.0008  0.3815
30773SOL    HW199559  11.981   5.346   9.820  0.9491  0.0567 -0.0909
30773SOL    HW299560  12.008   5.448   9.711 -0.1047 -0.6668 -1.0494
30774SOL     OW99561   5.150   9.034   3.882  0.1882 -0.1774  0.1497
30774SOL    HW199562   5.137   9.092   3.807 -0.2067 -0.7823 -0.2558
30774SOL    HW299563   5.245   9.024   3.888  0.2663  0.5439  0.2565
30775SOL     OW99564   3.159   8.098   7.334  0.5101 -0.2396  0.2338
30775SOL    HW199565   3.068   8.106   7.362  0.6562 -0.6381  0.8406
30775SOL    HW299566   3.189   8.016   7.374  1.6109  0.6902  1.4194
30776SOL     OW99567   9.398   2.294   0.184  0.0175  0.2163 -0.3184
30776SOL    HW199568   9.447   2.372   0.207 -0.9807  0.8830 -0.3828
30776SOL    HW299569   9.465   2.228   0.163  0.8860  0.6792  0.9043
30777SOL     OW99570   6.381  11.736   2.880 -0.4932  0.2376  0.1377
30777SOL    HW199571   6.350  11.662   2.828 -1.0377 -0.0304  0.8191
30777SOL    HW299572   6.438  11.696   2.945  1.7191  0.7729 -1.3802
30778SOL     OW99573   5.932   2.584   5.806 -0.1357 -0.0254  0.8034
30778SOL    HW199574   5.912   2.518   5.739  0.2649  1.1619 -0.5465
30778SOL    HW299575   5.850   2.631   5.818 -0.1748 -0.1578  1.0608
30779SOL     OW99576  10.520   7.690   8.745  0.6846  0.1170 -0.5642
30779SOL    HW199577  10.587   7.751   8.774  0.2268  0.1382  0.4786
30779SOL    HW299578  10.566   7.606   8.736  0.6178 -0.1474  1.3227
30780SOL     OW99579   4.929   4.166   3.061  0.0250  0.0395 -0.1470
30780SOL    HW199580   4.987   4.106   3.107  0.3303 -2.1420 -3.1315
30780SOL    HW299581   4.988   4.225   3.014 -0.2852  2.3826  2.1243
30781SOL     OW99582   3.316   2.857   6.437 -0.2729 -0.0759  0.7727
30781SOL    HW199583   3.314   2.928   6.373 -0.0126 -3.4315 -3.4331
30781SOL    HW299584   3.224   2.829   6.444 -0.2226 -0.0748  1.4872
30782SOL     OW99585  11.380  11.967   4.432  0.2366  0.0616  0.2082
30782SOL    HW199586  11.373  11.886   4.383 -1.4935  1.1383 -1.4579
30782SOL    HW299587  11.309  11.963   4.496 -0.0373  0.3786 -0.0736
30783SOL     OW99588   9.531   7.690   1.504 -0.0705  0.8479  0.2969
30783SOL    HW199589   9.495   7.643   1.579  0.1137  1.2698  0.6563
30783SOL    HW299590   9.459   7.744   1.472 -0.6271 -0.4798 -0.8133
30784SOL     OW99591   9.631   5.869   1.480  0.0661 -0.1830  0.0441
30784SOL    HW199592   9.593   5.948   1.440 -0.1775 -1.2189 -1.9185
30784SOL    HW299593   9.587   5.861   1.564 -2.9671 -0.4075 -1.4261
30785SOL     OW99594  12.250   3.114   2.239  0.3662  0.0765  0.1242
30785SOL    HW199595  12.243   3.072   2.325 -0.9611 -1.3934 -0.6585
30785SOL    HW299596  12.277   3.203   2.259  1.8652 -0.7057  1.9506
30786SOL     OW99597   6.944   1.464   4.421  0.2823 -0.9182 -0.5891
30786SOL    HW199598   7.012   1.531   4.429  0.7913 -1.4693 -0.2603
30786SOL    HW299599   6.986   1.392   4.375  0.2914 -1.7473  0.6766
30787SOL     OW99600   0.733  10.073   4.147 -0.0890  0.0694 -0.4115
30787SOL    HW199601   0.732   9.977   4.142 -0.3527  0.0264  0.3550
30787SOL    HW299602   0.737  10.092   4.241  0.3377  0.8120 -0.5733
30788SOL     OW99603   1.295   4.516  10.544 -0.1881 -0.3264  0.2249
30788SOL    HW199604   1.333   4.439  10.586 -1.0368 -0.9111 -0.0547
30788SOL    HW299605   1.361   4.543  10.480  0.6227 -0.0973  1.1215
30789SOL     OW99606   6.897   7.188   2.521  0.7236  0.0304 -0.1238
30789SOL    HW199607   6.952   7.112   2.539  0.2362 -0.4436 -0.5933
30789SOL    HW299608   6.807   7.156   2.535  0.4575  0.2303 -1.3006
30790SOL     OW99609   0.428  12.329  12.121 -0.0908 -0.3164  0.0329
30790SOL    HW199610   0.387  12.256  12.074  0.1089 -1.0495  0.9561
30790SOL    HW299611   0.436  12.297  12.211 -0.7707  1.1755  0.6427
30791SOL     OW99612   9.387  10.304   6.355 -0.0383  0.4670 -0.2480
30791SOL    HW199613   9.298  10.317   6.322 -0.7495 -1.1022  0.9221
30791SOL    HW299614   9.399  10.375   6.418 -0.2199  1.0302 -0.8298
30792SOL     OW99615  10.740   7.865   8.775 -0.6734 -0.1146 -1.0265
30792SOL    HW199616  10.697   7.940   8.733 -1.2135  0.7855  1.0145
30792SOL    HW299617  10.818   7.850   8.721 -0.1171  2.4426 -1.0882
30793SOL     OW99618   8.299   5.288   2.637 -0.3253 -0.1317  0.1618
30793SOL    HW199619   8.206   5.310   2.631  0.0063  1.3233  0.0650
30793SOL    HW299620   8.337   5.323   2.557  0.5657  0.6976  0.9309
30794SOL     OW99621   7.312  12.142   3.267  0.3791 -0.3097  0.2252
30794SOL    HW199622   7.361  12.088   3.328 -0.3552 -0.8071  0.3891
30794SOL    HW299623   7.318  12.096   3.184 -1.1740 -1.2715  0.6014
30795SOL     OW99624   2.260   7.784   1.638 -0.1259  0.1846  0.2532
30795SOL    HW199625   2.343   7.760   1.679 -0.4168  0.3963  0.9778
30795SOL    HW299626   2.262   7.740   1.553  0.6021 -0.0448  0.3816
30796SOL     OW99627   2.399   2.145   9.673 -0.0735 -0.0746  0.0490
30796SOL    HW199628   2.348   2.159   9.593 -1.1234  0.2148  0.7517
30796SOL    HW299629   2.459   2.219   9.677 -2.2739  1.7621  1.2140
30797SOL     OW99630  10.762   6.348  11.620  0.2667  0.2911 -0.3178
30797SOL    HW199631  10.823   6.413  11.654 -0.3898  0.8381 -0.1634
30797SOL    HW299632  10.818   6.279  11.584  1.0324 -0.4305  2.0301
30798SOL     OW99633   8.449   3.439  12.546  0.0209 -0.0887 -0.3297
30798SOL    HW199634   8.537   3.452  12.582 -0.1544  0.6627 -0.1565
30798SOL    HW299635   8.410   3.371  12.602  0.1792  0.2048  0.1445
30799SOL     OW99636   8.581   2.148  12.298  0.2305  0.4168 -0.4220
30799SOL    HW199637   8.498   2.101  12.286  0.6291 -0.3767 -0.1695
30799SOL    HW299638   8.648   2.086  12.269  0.8296  0.5213  0.6632
30800SOL     OW99639  10.966   0.938   5.333 -0.6029 -0.0164  0.0623
30800SOL    HW199640  10.876   0.940   5.301 -0.9539  0.5670  1.0283
30800SOL    HW299641  11.017   0.905   5.260 -1.9278 -2.8388  0.2785
30801SOL     OW99642   4.025   4.773   7.058  0.1889 -0.5699 -0.4574
30801SOL    HW199643   4.039   4.681   7.082 -0.2774 -0.7655 -0.9005
30801SOL    HW299644   4.075   4.784   6.977  0.4871 -0.3483 -0.2432
30802SOL     OW99645   9.052  12.659   9.991 -0.1455  0.0636  0.0180
30802SOL    HW199646   9.078  12.728  10.053 -2.3782  0.3927  0.6975
30802SOL    HW299647   9.031  12.584  10.047  0.8951 -0.7349 -0.6240
30803SOL     OW99648   9.801   9.160   0.106  0.0734  0.1568 -0.6378
30803SOL    HW199649   9.722   9.118   0.073  0.8404 -1.5784 -0.3781
30803SOL    HW299650   9.785   9.254   0.096 -1.5526 -0.1973 -1.6128
30804SOL     OW99651   7.259  10.488   7.095  0.0013 -0.2170 -0.1654
30804SOL    HW199652   7.338  10.434   7.087 -0.0138 -0.4175  0.8677
30804SOL    HW299653   7.223  10.492   7.006  0.7661 -0.7396 -0.5110
30805SOL     OW99654  10.299   9.618   5.212  0.2173 -0.7656 -0.1781
30805SOL    HW199655  10.239   9.684   5.177 -2.3717 -3.3757 -0.9414
30805SOL    HW299656  10.297   9.631   5.307 -1.5916 -0.7769 -0.1881
30806SOL     OW99657   8.460   3.883   6.618 -0.3207 -0.1932 -0.1954
30806SOL    HW199658   8.467   3.858   6.526 -2.6986 -0.8802 -0.2679
30806SOL    HW299659   8.527   3.832   6.663 -0.2032 -1.0687 -1.3331
30807SOL     OW99660  11.616   8.597   7.627 -0.2087  0.4445  0.2963
30807SOL    HW199661  11.635   8.622   7.537 -1.0642  2.4065  0.6229
30807SOL    HW299662  11.656   8.665   7.681  0.9800 -1.1081  1.4919
30808SOL     OW99663   5.043   6.233  11.746 -0.2633 -0.7252 -0.3753
30808SOL    HW199664   5.122   6.181  11.763  0.9490  1.1691  0.1281
30808SOL    HW299665   5.000   6.240  11.831 -0.8177 -1.4574 -0.5811
30809SOL     OW99666   5.562   8.772  12.555 -0.1984 -0.1866  0.2017
30809SOL    HW199667   5.620   8.763  12.630  0.4686 -1.7939 -0.4476
30809SOL    HW299668   5.616   8.813  12.487  0.0665 -1.2329 -0.2455
30810SOL     OW99669   4.368   3.603   1.797 -0.3516 -0.2684 -0.6673
30810SOL    HW199670   4.277   3.617   1.769 -0.5890  0.0012  0.2261
30810SOL    HW299671   4.376   3.508   1.805 -0.8791 -0.2437  0.2840
30811SOL     OW99672   9.744   1.166   6.255 -0.0294 -0.4879  0.6049
30811SOL    HW199673   9.819   1.113   6.284 -0.2790 -0.6212  1.0141
30811SOL    HW299674   9.740   1.238   6.318 -1.5695 -1.6602  1.9131
30812SOL     OW99675  10.089   3.647   5.461 -0.0041  0.1724  0.5800
30812SOL    HW199676  10.061   3.591   5.389  0.4363 -0.1028  0.6169
30812SOL    HW299677  10.021   3.637   5.528  0.4462 -0.9097  0.8886
30813SOL     OW99678   1.385  11.652   8.584  0.1153 -0.3738  0.1150
30813SOL    HW199679   1.449  11.686   8.521  0.8057 -1.0096  0.4544
30813SOL    HW299680   1.437  11.631   8.661 -0.8827  1.7140  1.4740
30814SOL     OW99681  10.372   8.195   1.286 -0.5335 -0.3496  0.2050
30814SOL    HW199682  10.359   8.271   1.230 -0.6280  0.1434  0.8873
30814SOL    HW299683  10.308   8.204   1.356 -1.5047 -1.7972 -0.4470
30815SOL     OW99684   6.236   9.614   8.799  0.0053  0.6625  0.1000
30815SOL    HW199685   6.288   9.538   8.775  0.7419  1.5976 -1.4098
30815SOL    HW299686   6.285   9.689   8.764 -0.0037  1.9826  2.6974
30816SOL     OW99687   4.875   8.833   6.354 -0.5583  0.0273  0.6395
30816SOL    HW199688   4.853   8.746   6.320 -2.2234 -0.1568  2.0517
30816SOL    HW299689   4.836   8.894   6.290 -0.2125 -0.2622  0.1479
30817SOL     OW99690  10.151   1.592  11.145 -0.0724  0.2350  0.0844
30817SOL    HW199691  10.162   1.520  11.207  0.4446 -0.0506 -0.3386
30817SOL    HW299692  10.203   1.664  11.181  0.1194  0.1118  0.0538
30818SOL     OW99693   4.692  12.585   3.860  0.2987  0.1351  0.4089
30818SOL    HW199694   4.752  12.510   3.854  0.0060  0.0093 -1.4054
30818SOL    HW299695   4.711  12.638   3.783 -0.8644  0.9150  0.6241
30819SOL     OW99696   7.043   9.389   1.846  0.4549  0.2627  0.1397
30819SOL    HW199697   6.948   9.390   1.839  0.3551 -0.8143  1.1316
30819SOL    HW299698   7.073   9.395   1.755 -0.5475  0.6864 -0.1816
30820SOL     OW99699   9.521   8.453   6.044  0.0585  0.8775 -0.4334
30820SOL    HW199700   9.535   8.379   5.984 -0.3876 -0.1689  0.6920
30820SOL    HW299701   9.443   8.497   6.011 -0.3649  0.1236 -0.4611
30821SOL     OW99702   8.294   7.934  11.653 -0.6114 -0.0374  0.3534
30821SOL    HW199703   8.216   7.989  11.650 -1.8317 -1.7099 -1.1559
30821SOL    HW299704   8.314   7.926  11.746 -3.4615 -1.0788  0.9811
30822SOL     OW99705   8.779   1.548  10.695  0.2666  0.1795 -0.0910
30822SOL    HW199706   8.791   1.527  10.788  0.2405 -1.0218 -0.3461
30822SOL    HW299707   8.723   1.626  10.696  0.0129  0.0052  0.8919
30823SOL     OW99708  10.617   5.306   4.574  0.3097 -0.0543 -0.3457
30823SOL    HW199709  10.590   5.214   4.585 -1.7211  0.2573 -2.0461
30823SOL    HW299710  10.602   5.324   4.481 -0.8468  2.4367  0.2473
30824SOL     OW99711   1.110   3.160   7.891 -0.2871 -0.2361 -0.1830
30824SOL    HW199712   1.149   3.158   7.979  0.3508 -0.4112 -0.4636
30824SOL    HW299713   1.109   3.068   7.864  1.7364  0.0144 -1.3061
30825SOL     OW99714  10.661   6.196   4.553 -0.6293 -0.2231  0.2483
30825SOL    HW199715  10.605   6.145   4.611  1.5141 -0.5910  2.1416
30825SOL    HW299716  10.677   6.140   4.477 -0.9678 -1.0277  0.7681
30826SOL     OW99717   4.110  11.119   6.132  0.4340 -0.0784 -0.3078
30826SOL    HW199718   4.140  11.189   6.191  1.2149 -0.0976 -0.6727
30826SOL    HW299719   4.189  11.069   6.112 -0.5897 -3.6221  3.1490
30827SOL     OW99720  10.857  10.216   9.389  0.6581  0.1137 -0.0061
30827SOL    HW199721  10.838  10.152   9.457  0.0231 -0.2474 -0.5132
30827SOL    HW299722  10.943  10.191   9.355  0.1268 -0.8849 -0.6606
30828SOL     OW99723   7.778   1.934   9.769  0.0601  0.5401 -0.6030
30828SOL    HW199724   7.830   1.933   9.849  0.0600  0.3913 -0.6041
30828SOL    HW299725   7.694   1.971   9.796 -1.2193 -2.6968  0.2723
30829SOL     OW99726   7.534  12.168   0.799 -0.4620  1.0032  0.1423
30829SOL    HW199727   7.500  12.257   0.790  0.7533  1.3800 -1.1224
30829SOL    HW299728   7.456  12.112   0.802 -1.3314  2.1948  2.8455
30830SOL     OW99729   4.739   5.468  12.191  0.4860  0.4456 -0.2869
30830SOL    HW199730   4.650   5.485  12.160 -0.7113 -0.5586  2.2745
30830SOL    HW299731   4.763   5.385  12.151 -0.1669  0.1895 -0.1550
30831SOL     OW99732  11.502   9.990   3.836 -1.1477 -0.4846 -0.6773
30831SOL    HW199733  11.490  10.081   3.809 -1.4633 -0.5162 -0.6395
30831SOL    HW299734  11.442   9.978   3.909 -1.4626 -0.8591 -0.9881
30832SOL     OW99735  10.335   2.052   5.526 -0.2236 -0.2994 -0.0965
30832SOL    HW199736  10.320   1.962   5.556  0.1287  0.0737  1.2853
30832SOL    HW299737  10.430   2.059   5.517 -0.1769  0.1983  0.7107
30833SOL     OW99738   8.110   0.900   2.650 -0.4007  0.7995  0.7004
30833SOL    HW199739   8.145   0.933   2.568 -0.7500  0.3489  0.3661
30833SOL    HW299740   8.156   0.818   2.665  0.1057  1.1783  1.2751
30834SOL     OW99741   5.553  10.354  11.181 -0.3830  0.0315 -0.0837
30834SOL    HW199742   5.501  10.289  11.134 -2.8314  1.8586 -0.1433
30834SOL    HW299743   5.550  10.327  11.272 -1.3652  0.0131 -0.1114
30835SOL     OW99744   8.494  12.406  10.450 -0.4635 -0.2890  0.0074
30835SOL    HW199745   8.441  12.348  10.395 -1.1498 -0.2718  0.6354
30835SOL    HW299746   8.461  12.494  10.431 -0.4578 -0.2493  0.1842
30836SOL     OW99747   2.654  12.652   6.968 -0.0516 -0.1066  0.6625
30836SOL    HW199748   2.591  12.636   6.898  0.2159  1.2493  0.0907
30836SOL    HW299749   2.694  12.566   6.984  1.8136 -0.0471 -2.7239
30837SOL     OW99750  10.195   2.147   6.922  0.0839  0.3749  0.1835
30837SOL    HW199751  10.158   2.083   6.860  0.6197  0.0453  0.1976
30837SOL    HW299752  10.119   2.180   6.970 -0.1424 -0.8474  0.7258
30838SOL     OW99753   0.613   7.639   5.229  0.0980  0.3228  0.3741
30838SOL    HW199754   0.703   7.628   5.261  0.7350 -0.0687 -1.4540
30838SOL    HW299755   0.597   7.733   5.236  0.6458  0.3986  0.7312
30839SOL     OW99756   5.814   3.747  11.123  0.0628 -0.6721  0.5436
30839SOL    HW199757   5.792   3.762  11.215 -0.8600 -0.4191  0.2927
30839SOL    HW299758   5.856   3.661  11.122  0.6693 -0.4030  1.2824
30840SOL     OW99759   9.896   6.109   7.858 -0.5881 -0.0963  0.0325
30840SOL    HW199760   9.899   6.030   7.912  0.0683  0.3896  0.7303
30840SOL    HW299761   9.973   6.159   7.885 -2.0927  1.7363  1.1192
30841SOL     OW99762   8.798   9.691  10.397 -0.0289 -0.0267 -0.2116
30841SOL    HW199763   8.830   9.604  10.419 -2.4806 -0.6231  1.3119
30841SOL    HW299764   8.782   9.734  10.481 -0.3453  1.3109 -0.9166
30842SOL     OW99765   7.130   5.437   3.779 -0.2929  0.6969 -0.0375
30842SOL    HW199766   7.171   5.518   3.809 -0.2991  1.0741 -0.9976
30842SOL    HW299767   7.046   5.434   3.824 -0.6305  1.6377 -0.5712
30843SOL     OW99768   2.500   6.077   9.802  0.5224  0.2787 -0.0595
30843SOL    HW199769   2.558   6.038   9.736 -1.2081 -1.2340 -0.7890
30843SOL    HW299770   2.521   6.031   9.883  0.1521 -0.5232 -0.4006
30844SOL     OW99771   3.385   9.118   5.950 -0.0343  0.2379 -0.0829
30844SOL    HW199772   3.334   9.075   6.019 -0.6906  0.2164 -0.5748
30844SOL    HW299773   3.405   9.204   5.987  1.1042 -0.3870  0.8168
30845SOL     OW99774   7.772  11.775  10.456 -0.0550  0.1418  0.4025
30845SOL    HW199775   7.732  11.733  10.379  0.3052 -0.1077  0.3485
30845SOL    HW299776   7.703  11.772  10.522 -0.2642  0.0796  0.1856
30846SOL     OW99777   5.157  12.567   6.993 -0.1505  0.6655 -0.5940
30846SOL    HW199778   5.219  12.582   7.064 -2.0727  0.5978  1.1940
30846SOL    HW299779   5.149  12.471   6.989 -1.9911  0.6944  0.9748
30847SOL     OW99780   9.455   6.649   7.445  0.4887 -0.3450 -0.0185
30847SOL    HW199781   9.516   6.682   7.510  1.4902  0.0377 -1.1035
30847SOL    HW299782   9.435   6.725   7.390  0.2117 -0.8087 -0.5741
30848SOL     OW99783   7.727   6.681   6.156 -0.3258 -0.0138 -0.1280
30848SOL    HW199784   7.805   6.673   6.102  0.9026  0.6985  1.4514
30848SOL    HW299785   7.751   6.641   6.240 -2.1359 -1.0145 -0.0259
30849SOL     OW99786  12.167  11.033   3.812  0.6929  0.3609  1.0646
30849SOL    HW199787  12.256  10.999   3.820 -0.0287 -1.7536  0.6921
30849SOL    HW299788  12.111  10.964   3.849 -0.9944  0.2942 -1.3599
30850SOL     OW99789   8.708   2.249   0.859  0.1108  0.2239 -0.2250
30850SOL    HW199790   8.721   2.326   0.915 -1.5798  1.9751 -2.0853
30850SOL    HW299791   8.749   2.273   0.776  0.9689 -1.5946 -0.3718
30851SOL     OW99792  10.278   6.767   4.745  0.1865  0.4091  0.9166
30851SOL    HW199793  10.352   6.784   4.686  0.5096  1.5277  1.6245
30851SOL    HW299794  10.209   6.826   4.715  0.5482  1.4079  2.0009
30852SOL     OW99795   4.109   4.923   1.062  0.1204 -0.0119 -0.1377
30852SOL    HW199796   4.096   4.830   1.041 -0.9105  0.3437 -1.1657
30852SOL    HW299797   4.032   4.967   1.027  0.5641  1.2451  0.3848
30853SOL     OW99798   2.416   7.749   8.138  0.7399 -0.2889  0.1384
30853SOL    HW199799   2.505   7.781   8.126  0.9153  0.2738  2.4427
30853SOL    HW299800   2.370   7.821   8.180 -0.4159 -1.0609  0.2412
30854SOL     OW99801  10.421   3.810  12.111 -0.3489  0.7740 -0.3092
30854SOL    HW199802  10.436   3.720  12.141  0.7764  0.1768 -2.4893
30854SOL    HW299803  10.329   3.812  12.086 -0.1274 -0.1052 -1.2452
30855SOL     OW99804   2.101   0.459   2.893  0.4394  0.5228 -0.2143
30855SOL    HW199805   2.078   0.380   2.843 -1.8585 -0.4670  2.1227
30855SOL    HW299806   2.178   0.494   2.849  0.3951 -1.9332 -2.5275
30856SOL     OW99807   7.397   7.824   4.033  0.5729 -0.0541  0.8633
30856SOL    HW199808   7.418   7.748   4.087  0.6801 -0.4969  0.2163
30856SOL    HW299809   7.435   7.898   4.080  0.7354 -0.4374  1.3494
30857SOL     OW99810  10.201   5.086   8.441 -0.7399  0.0404  0.2890
30857SOL    HW199811  10.199   5.004   8.392  2.1179  0.0394 -0.0081
30857SOL    HW299812  10.273   5.075   8.504 -2.4879  1.0873  2.6264
30858SOL     OW99813   5.535   9.104   7.898  0.4472  0.3974  0.2044
30858SOL    HW199814   5.605   9.065   7.845  1.4729  1.1756  0.9572
30858SOL    HW299815   5.523   9.192   7.860  0.2085  0.4400  0.3792
30859SOL     OW99816   9.217  12.400   9.011  0.2599  0.8440 -0.8661
30859SOL    HW199817   9.143  12.418   8.953 -0.0506  1.3828 -0.3159
30859SOL    HW299818   9.269  12.480   9.009  1.8786 -0.1383 -2.7031
30860SOL     OW99819   1.407   1.478   8.716  0.0222 -0.1038  1.0649
30860SOL    HW199820   1.460   1.556   8.698 -0.2147  0.0437  0.9948
30860SOL    HW299821   1.407   1.429   8.633 -0.3416  0.1353  0.9191
30861SOL     OW99822   2.593   2.739   0.098  0.4904  0.8321  0.6256
30861SOL    HW199823   2.585   2.739   0.194  1.3699  1.3289  0.7142
30861SOL    HW299824   2.623   2.650   0.077 -0.7039  0.3900  0.6954
30862SOL     OW99825   7.466  12.251   4.462  0.0845  0.1090 -0.3185
30862SOL    HW199826   7.542  12.303   4.485  0.1081 -0.2558  0.4419
30862SOL    HW299827   7.454  12.266   4.368  0.2083  1.3235 -0.1494
30863SOL     OW99828  12.012   4.276  10.539 -0.4709 -0.2590  0.0930
30863SOL    HW199829  12.041   4.264  10.630 -1.0835  1.2957  0.5262
30863SOL    HW299830  12.060   4.353  10.508 -0.8055 -0.3439 -0.6656
30864SOL     OW99831  11.734   3.324   2.025  0.2713 -0.5015  0.3601
30864SOL    HW199832  11.816   3.292   2.060  0.1302 -1.4407 -0.1497
30864SOL    HW299833  11.679   3.246   2.014 -0.6836  0.1005  0.6697
30865SOL     OW99834  11.043   8.946  10.297 -0.5316 -0.0889 -0.4174
30865SOL    HW199835  11.076   9.019  10.244  1.6875 -1.2326 -0.7166
30865SOL    HW299836  11.093   8.952  10.379 -0.2979 -1.2913 -0.4638
30866SOL     OW99837   1.608   0.858   5.341  0.3786  0.1229 -0.5131
30866SOL    HW199838   1.581   0.863   5.433 -2.8781 -1.2164 -1.2536
30866SOL    HW299839   1.688   0.806   5.343  1.3759  1.5915  1.6628
30867SOL     OW99840   3.572   3.880   2.833 -0.2099  0.5420  0.2123
30867SOL    HW199841   3.576   3.871   2.738  1.4268 -2.8725  0.4247
30867SOL    HW299842   3.624   3.957   2.853  0.1124  0.8306 -1.6195
30868SOL     OW99843   7.460  12.555   9.311 -0.0885  0.3728 -1.0345
30868SOL    HW199844   7.379  12.526   9.355  0.8171 -1.1344 -0.2651
30868SOL    HW299845   7.429  12.603   9.234 -1.7450 -0.6963 -1.1061
30869SOL     OW99846   0.949   3.796   4.899  0.2515 -0.0050  0.4138
30869SOL    HW199847   0.931   3.852   4.974 -0.1108  0.8686 -0.3037
30869SOL    HW299848   0.897   3.717   4.915  1.1812 -0.3864  1.6945
30870SOL     OW99849   2.765  12.185  10.911  0.3035  0.4046 -0.7826
30870SOL    HW199850   2.830  12.177  10.981  0.4395 -0.2149 -0.9664
30870SOL    HW299851   2.763  12.098  10.871  2.8267  1.5413 -3.8617
30871SOL     OW99852   7.523  10.320   0.235  0.3185 -0.3337  0.0887
30871SOL    HW199853   7.505  10.246   0.292 -0.2859 -1.6878 -1.7484
30871SOL    HW299854   7.440  10.367   0.229  0.4337 -0.0769  0.4506
30872SOL     OW99855   2.989   6.891  11.896 -0.2071  0.4655  0.0689
30872SOL    HW199856   3.059   6.849  11.945 -0.6311  0.5371  0.7411
30872SOL    HW299857   2.931   6.819  11.871  0.1956  0.3804 -0.6554
30873SOL     OW99858   1.081   7.835   9.445 -0.7135 -0.4155 -0.3679
30873SOL    HW199859   1.141   7.883   9.388  0.4033 -0.5868  0.6193
30873SOL    HW299860   0.995   7.872   9.427 -0.1125  0.8190 -0.7938
30874SOL     OW99861   5.610   3.269   1.159 -0.1215  0.2717  0.1823
30874SOL    HW199862   5.585   3.205   1.092  1.5655 -0.2896  0.0596
30874SOL    HW299863   5.623   3.350   1.112 -0.6113  0.3052  0.0955
30875SOL     OW99864  10.539  10.102   4.440 -0.0522 -0.3735  0.4972
30875SOL    HW199865  10.628  10.119   4.471  0.4259 -1.3633 -0.2366
30875SOL    HW299866  10.552  10.053   4.358 -1.2707 -0.9444  0.6238
30876SOL     OW99867   4.408   5.614   7.231 -0.1350  0.0181 -0.2397
30876SOL    HW199868   4.384   5.529   7.194 -0.4817  0.9510 -2.3047
30876SOL    HW299869   4.503   5.614   7.234 -0.1433 -0.5725  0.1342
30877SOL     OW99870  10.318  10.269   2.772  0.3579 -0.7716  0.6301
30877SOL    HW199871  10.225  10.249   2.783 -0.0760  1.0864  0.6616
30877SOL    HW299872  10.360  10.231   2.849 -0.6123 -0.2864  1.4209
30878SOL     OW99873  12.515   5.988   7.434  0.0927  0.6552 -0.1535
30878SOL    HW199874  12.475   6.055   7.490 -1.6381  0.1848 -0.7661
30878SOL    HW299875  12.446   5.922   7.424  1.9934 -1.6389  1.0626
30879SOL     OW99876   8.113   1.218   4.949 -0.2103 -0.0148  0.2930
30879SOL    HW199877   8.126   1.160   5.025 -0.0247 -0.3225  0.0307
30879SOL    HW299878   8.161   1.175   4.878 -2.7600 -1.2872 -0.7952
30880SOL     OW99879   8.769   4.483   4.299  0.4488  0.4416  0.3962
30880SOL    HW199880   8.837   4.431   4.256 -1.2588 -1.4148 -0.2150
30880SOL    HW299881   8.720   4.523   4.227  0.6230  1.4402  0.8144
30881SOL     OW99882   1.141   9.421  10.528 -0.0453  0.7737  0.4851
30881SOL    HW199883   1.080   9.457  10.592  1.8390  1.8075  1.7865
30881SOL    HW299884   1.214   9.389  10.580  0.2823 -1.0305 -0.9890
30882SOL     OW99885  12.596   3.804   3.161  0.1726 -0.4697  0.0194
30882SOL    HW199886  12.538   3.785   3.087 -0.8866  1.0542  0.4311
30882SOL    HW299887  12.577   3.894   3.185  1.0068 -0.7039  1.7244
30883SOL     OW99888   9.044   6.046  10.078 -0.3076 -0.0182 -0.3527
30883SOL    HW199889   9.081   6.000  10.153  2.2704  1.2717 -0.6964
30883SOL    HW299890   9.002   5.978  10.026  0.7089 -1.4647  0.6382
30884SOL     OW99891  11.574   6.891   8.202 -0.4200  0.9951  0.2490
30884SOL    HW199892  11.529   6.808   8.212  0.9306  0.2468  0.4089
30884SOL    HW299893  11.565   6.913   8.109  0.6173 -0.1909 -0.1591
30885SOL     OW99894   6.461   1.412   3.917  0.0247 -0.0856  0.1506
30885SOL    HW199895   6.517   1.340   3.945 -0.1485 -1.0399 -1.8009
30885SOL    HW299896   6.518   1.489   3.922  0.2564 -0.3273  2.1146
30886SOL     OW99897  10.412   0.455   3.796  0.3573  0.3413  0.5235
30886SOL    HW199898  10.403   0.368   3.757  0.3733  0.9946 -0.9992
30886SOL    HW299899  10.506   0.469   3.802  0.3625  0.5445  0.0505
30887SOL     OW99900   1.015  10.013   1.272 -0.2018 -0.2745  0.4282
30887SOL    HW199901   0.959  10.082   1.236  1.5379  1.3428  0.6480
30887SOL    HW299902   1.056   9.972   1.196 -0.9821 -0.8589  0.3141
30888SOL     OW99903   3.590   2.900   0.202 -0.2589 -0.2990 -0.3520
30888SOL    HW199904   3.680   2.934   0.209 -0.0934 -0.0235 -2.8684
30888SOL    HW299905   3.564   2.919   0.112 -2.2530 -1.8542 -0.1822
30889SOL     OW99906  10.385   5.178   1.896 -0.2623  0.0648  0.1466
30889SOL    HW199907  10.303   5.167   1.944 -0.4356 -1.1615 -0.3866
30889SOL    HW299908  10.373   5.127   1.816  1.6510 -1.6459  0.8533
30890SOL     OW99909   2.958   9.283   9.186  0.2162  0.0961  0.4651
30890SOL    HW199910   2.891   9.322   9.130  1.0293  0.8170 -0.0329
30890SOL    HW299911   2.928   9.302   9.275 -0.2014  0.4930  0.2475
30891SOL     OW99912   0.126   6.619   8.656 -0.2664 -0.1271 -0.3674
30891SOL    HW199913   0.154   6.710   8.649 -0.8678  0.2096  1.2060
30891SOL    HW299914   0.031   6.624   8.664 -0.2027 -0.7746  1.1065
30892SOL     OW99915   3.357   9.090   1.392 -0.0171  0.1640  0.1062
30892SOL    HW199916   3.386   9.036   1.466 -0.2939 -1.5841 -0.9963
30892SOL    HW299917   3.369   9.034   1.315 -1.9026  1.0720 -0.9236
30893SOL     OW99918  11.355   0.231   7.661  0.4254 -0.1349 -0.5920
30893SOL    HW199919  11.352   0.232   7.757  0.0022  0.1332 -0.6092
30893SOL    HW299920  11.369   0.322   7.636 -2.3181  0.2834 -0.8727
30894SOL     OW99921   7.344   4.221   9.986  0.8975 -0.1582  0.1958
30894SOL    HW199922   7.373   4.185  10.070  0.7352 -0.6437  0.0486
30894SOL    HW299923   7.425   4.244   9.941  0.9999 -0.2353  0.3378
30895SOL     OW99924   4.073   4.167   9.532 -0.0245  0.2430  0.2140
30895SOL    HW199925   4.077   4.232   9.602  2.2924 -2.0627  2.4177
30895SOL    HW299926   4.156   4.176   9.486 -0.4311 -0.0243 -0.5815
30896SOL     OW99927   3.810   6.583   4.039  0.6564  0.1961 -0.1237
30896SOL    HW199928   3.882   6.550   4.093  0.0719 -0.1338  0.4678
30896SOL    HW299929   3.736   6.592   4.100  0.7860  2.6393 -0.2559
30897SOL     OW99930   4.681   2.583  12.571 -0.9457  0.0897  0.0335
30897SOL    HW199931   4.610   2.646  12.588  0.2886  1.1982  1.3100
30897SOL    HW299932   4.727   2.620  12.495 -0.5599  0.4513  0.4357
30898SOL     OW99933   5.763  12.003  12.225 -0.0277  0.2803  0.0166
30898SOL    HW199934   5.775  12.046  12.140  1.8725  0.1801  0.2088
30898SOL    HW299935   5.707  11.927  12.206  0.4789  0.1919 -1.1655
30899SOL     OW99936   5.489   9.293   1.895 -0.5048 -0.5668 -0.3605
30899SOL    HW199937   5.507   9.213   1.945  1.2279 -2.1465 -3.2046
30899SOL    HW299938   5.568   9.346   1.905  0.6926 -1.7325 -2.6608
30900SOL     OW99939   9.573   4.595   5.880  0.5342 -0.0516 -0.3553
30900SOL    HW199940   9.532   4.594   5.967  2.1785 -0.2621  0.4555
30900SOL    HW299941   9.516   4.651   5.827 -1.0158 -0.6640  0.5836
30901SOL     OW99942   2.572   1.015   7.882 -0.3148  0.5209  0.3083
30901SOL    HW199943   2.482   1.050   7.877 -1.4082 -2.0374  0.4576
30901SOL    HW299944   2.601   1.037   7.971 -1.9023 -0.9438  1.2618
30902SOL     OW99945   3.228   5.212  10.937 -0.5171 -0.3715  0.3873
30902SOL    HW199946   3.294   5.279  10.956  1.0890 -2.2060  1.7238
30902SOL    HW299947   3.167   5.217  11.010 -0.6370 -0.0841  0.2666
30903SOL     OW99948   5.261   1.833  12.631  0.7349  0.4103  0.0411
30903SOL    HW199949   5.321   1.863  12.562  0.6067  1.1781  0.2609
30903SOL    HW299950   5.249   1.909  12.688 -1.0737  0.5312 -0.4378
30904SOL     OW99951   6.922  11.652   4.497 -0.5755  0.4576  0.5770
30904SOL    HW199952   6.937  11.744   4.478  1.4639  0.3419  1.4424
30904SOL    HW299953   6.913  11.610   4.412  0.2441  1.1848  0.1303
30905SOL     OW99954   2.591   6.108   5.745  0.4345  0.3806  0.0305
30905SOL    HW199955   2.657   6.149   5.800  2.6829 -1.3879 -1.1991
30905SOL    HW299956   2.510   6.155   5.765  1.4338  0.8056  3.6555
30906SOL     OW99957   9.527   0.296   4.377 -0.6383  0.1798  0.0943
30906SOL    HW199958   9.507   0.344   4.457 -0.7543 -0.3092  0.3612
30906SOL    HW299959   9.452   0.311   4.320  1.0732  3.8287 -1.5344
30907SOL     OW99960  11.822   0.637   2.583  0.2220 -0.0280 -0.5754
30907SOL    HW199961  11.766   0.594   2.519  1.6575 -1.2452 -1.0668
30907SOL    HW299962  11.778   0.622   2.667 -0.6345 -0.1805 -1.0420
30908SOL     OW99963   1.521   6.664   1.351 -0.2130  0.1451  0.7440
30908SOL    HW199964   1.452   6.646   1.287  0.4021 -0.8609  0.3327
30908SOL    HW299965   1.520   6.588   1.409 -0.3219  0.7441  1.5394
30909SOL     OW99966  11.542   4.692  12.078  0.2498 -0.0909 -0.5188
30909SOL    HW199967  11.535   4.684  11.983  1.4002 -0.8282 -0.5583
30909SOL    HW299968  11.623   4.740  12.092  0.6236 -0.8732  0.0974
30910SOL     OW99969  10.600   2.455   5.220 -0.3996  0.1158  0.0962
30910SOL    HW199970  10.518   2.472   5.173 -0.7424 -0.8117  0.3416
30910SOL    HW299971  10.588   2.495   5.306  0.0287  1.3595 -0.3927
30911SOL     OW99972  11.589   3.764   4.248 -0.2940 -0.0306  0.2369
30911SOL    HW199973  11.494   3.754   4.241 -0.3826  0.3753  0.8168
30911SOL    HW299974  11.602   3.813   4.328  0.2958  1.5630 -0.7888
30912SOL     OW99975   3.867   4.481   2.962  0.4709  0.3649 -0.2615
30912SOL    HW199976   3.882   4.506   3.053 -1.4364  0.1224  0.1769
30912SOL    HW299977   3.867   4.385   2.963  1.9753  0.3402 -0.8301
30913SOL     OW99978   1.394  12.313  10.486 -0.0498 -0.7716  0.4473
30913SOL    HW199979   1.358  12.254  10.553  2.1999 -3.2461 -0.3485
30913SOL    HW299980   1.488  12.310  10.501  0.4272 -0.6096 -2.2011
30914SOL     OW99981   7.695   6.311   7.586 -0.2792 -0.1403  0.4969
30914SOL    HW199982   7.610   6.267   7.582  0.1298 -0.8594 -1.1334
30914SOL    HW299983   7.739   6.271   7.661 -0.7798 -0.9013  0.3974
30915SOL     OW99984   7.396   8.654  12.138  0.3215 -0.1559  1.0093
30915SOL    HW199985   7.444   8.580  12.100  0.0495 -0.0858  0.5272
30915SOL    HW299986   7.408   8.644  12.233 -0.8258 -1.5843  1.0413
30916SOL     OW99987   0.502  11.604   7.960 -0.2883 -0.2738  0.7747
30916SOL    HW199988   0.420  11.631   7.918  0.0134  1.5723  1.2591
30916SOL    HW299989   0.476  11.539   8.025 -1.1765 -0.7342 -0.0261
30917SOL     OW99990   9.360   8.641   8.744  0.2988  0.1733  0.3585
30917SOL    HW199991   9.345   8.646   8.839 -0.4324  0.8942  0.2076
30917SOL    HW299992   9.306   8.710   8.707  1.5064  0.7005 -0.5002
30918SOL     OW99993   7.903   3.959   2.085 -0.3255  0.0181  0.0726
30918SOL    HW199994   7.877   3.936   1.995 -0.9751  1.6101 -0.1851
30918SOL    HW299995   7.967   4.029   2.074 -0.0434 -0.1112  0.8543
30919SOL     OW99996   2.211   0.883   9.058  0.1235 -0.3418 -0.1391
30919SOL    HW199997   2.214   0.822   9.132 -0.0655  0.6528  0.7062
30919SOL    HW299998   2.119   0.909   9.052 -0.1884 -1.6067 -1.7562
30920SOL     OW99999   0.270   5.791   3.417  0.1736 -0.2245 -0.5756
30920SOL    HW1    0   0.294   5.702   3.440  0.0036 -0.0583  0.2913
30920SOL    HW2    1   0.313   5.846   3.483 -0.2929  0.2792 -0.6762
30921SOL     OW    2   4.335   0.400   8.407 -0.2461 -0.0524  0.5948
30921SOL    HW1    3   4.354   0.425   8.316  0.5907 -1.3096  0.4056
30921SOL    HW2    4   4.243   0.376   8.407 -0.6728  1.4347  0.4470
30922SOL     OW    5   2.180   6.323   5.509 -0.4789 -0.1560 -0.8414
30922SOL    HW1    6   2.204   6.415   5.502 -1.2577 -0.0045 -1.8973
30922SOL    HW2    7   2.221   6.293   5.590 -0.3605  1.1550 -0.3949
30923SOL     OW    8  12.157   2.733  11.596 -0.1462 -0.2737 -0.1655
30923SOL    HW1    9  12.075   2.688  11.573 -0.1107 -1.0658  1.1331
30923SOL    HW2   10  12.133   2.788  11.671  0.5299 -0.6356  0.3249
30924SOL     OW   11   2.653   6.781   3.829  0.5832  0.3507 -0.1338
30924SOL    HW1   12   2.664   6.729   3.749  0.3229  0.3427 -0.1681
30924SOL    HW2   13   2.558   6.781   3.844  0.7487 -1.1132  1.1564
30925SOL     OW   14   2.308   9.250   2.615  0.2201  0.7388  0.1438
30925SOL    HW1   15   2.275   9.170   2.656 -0.1563 -0.5093 -2.4239
30925SOL    HW2   16   2.230   9.297   2.587  0.4748  0.0660 -1.8007
30926SOL     OW   17   9.477   2.677   9.038 -0.2920 -0.8865  0.5945
30926SOL    HW1   18   9.447   2.594   9.000  0.1450  0.3370 -2.7377
30926SOL    HW2   19   9.573   2.673   9.030 -0.3395  0.4867 -0.9687
30927SOL     OW   20   8.617   7.110   5.330 -0.2237  0.5844  0.2063
30927SOL    HW1   21   8.610   7.077   5.241 -0.5798  1.3443 -0.0629
30927SOL    HW2   22   8.606   7.205   5.321  0.3660  0.7413  0.9865
30928SOL     OW   23   5.271   7.432   4.139 -0.2562 -0.1880  0.3301
30928SOL    HW1   24   5.269   7.443   4.044  2.6628 -1.8366 -0.0479
30928SOL    HW2   25   5.260   7.521   4.174  0.8379  0.7901 -1.6400
30929SOL     OW   26   6.201  10.169   1.832 -0.1377  0.8331  0.2360
30929SOL    HW1   27   6.276  10.117   1.805 -1.5310 -1.0982 -0.1027
30929SOL    HW2   28   6.134  10.152   1.765 -1.7292  0.4787  1.8220
30930SOL     OW   29   9.717   7.046   8.055  0.0308  0.8108  0.3875
30930SOL    HW1   30   9.767   7.127   8.066  0.7811  0.3664  0.2904
30930SOL    HW2   31   9.675   7.033   8.140 -0.8590  1.7888  0.1269
30931SOL     OW   32   1.018   3.171   6.144  0.5861  0.4273  0.4329
30931SOL    HW1   33   0.964   3.165   6.223 -0.4032  2.4729 -0.0102
30931SOL    HW2   34   1.002   3.089   6.098 -0.4492  0.0719  1.3802
30932SOL     OW   35   1.026   6.719   7.822 -0.1939  0.5981  0.2123
30932SOL    HW1   36   0.970   6.758   7.889 -0.7205  2.4051 -1.2007
30932SOL    HW2   37   1.056   6.794   7.770  2.8207 -0.3900  0.3472
30933SOL     OW   38   5.528   6.797   1.534  0.1453  0.1118 -0.2599
30933SOL    HW1   39   5.589   6.783   1.606  1.4115  0.5523 -1.2032
30933SOL    HW2   40   5.523   6.892   1.525 -1.0997  0.1014  0.1256
30934SOL     OW   41   5.330   6.145   3.270 -0.4702 -0.5624 -0.1106
30934SOL    HW1   42   5.373   6.072   3.226  0.2795 -0.6570  0.7511
30934SOL    HW2   43   5.282   6.190   3.201  1.9501  0.2583 -1.3406
30935SOL     OW   44   4.798  12.600   7.771 -0.1725  0.6531  0.6689
30935SOL    HW1   45   4.806  12.684   7.816  2.3457  0.6910  0.2746
30935SOL    HW2   46   4.856  12.541   7.820  0.5053 -0.0158 -0.8664
30936SOL     OW   47  10.802   3.992   9.719  0.0583  0.1146 -0.5239
30936SOL    HW1   48  10.780   4.056   9.787 -1.4161  1.0423 -1.8150
30936SOL    HW2   49  10.890   3.962   9.742  0.8139  2.6197  0.1233
30937SOL     OW   50  10.024   1.767  10.111 -0.2640  0.2807 -0.1524
30937SOL    HW1   51   9.957   1.746  10.175  0.7564  1.3220  1.3417
30937SOL    HW2   52  10.064   1.683  10.089 -0.7598 -0.1169  0.4435
30938SOL     OW   53   4.356   4.221   6.604 -0.0895 -0.4699  0.1793
30938SOL    HW1   54   4.361   4.287   6.534 -2.9923 -1.3667 -1.0126
30938SOL    HW2   55   4.394   4.142   6.564  1.1028 -0.1953  0.7398
30939SOL     OW   56   9.313   2.226   5.006  0.2317 -0.1931  0.0636
30939SOL    HW1   57   9.405   2.205   4.993  0.0925 -0.0886 -1.1519
30939SOL    HW2   58   9.313   2.305   5.059  0.8843  0.8967 -1.5134
30940SOL     OW   59   8.618   5.525   1.984 -0.7020 -0.4655 -0.4255
30940SOL    HW1   60   8.711   5.510   1.966 -0.5661  2.4944 -2.9254
30940SOL    HW2   61   8.573   5.485   1.909 -0.8982  3.0195 -2.3616
30941SOL     OW   62   4.789   6.542   2.779 -0.2942  0.7020  0.2389
30941SOL    HW1   63   4.865   6.597   2.797  0.0433  0.1507  0.4852
30941SOL    HW2   64   4.715   6.603   2.781 -0.2821  0.7622  3.2011
30942SOL     OW   65   9.412   2.399   5.885  0.1477  0.3062  0.0000
30942SOL    HW1   66   9.438   2.312   5.854  0.1239  0.8073 -1.5217
30942SOL    HW2   67   9.342   2.382   5.948  1.4872 -0.8661  1.2402
30943SOL     OW   68   3.824  11.379  11.113  0.1203  0.2072  0.1315
30943SOL    HW1   69   3.820  11.289  11.147  2.2895 -0.1757 -0.4988
30943SOL    HW2   70   3.909  11.412  11.142 -0.4615  1.9283 -0.0202
30944SOL     OW   71   7.255   5.029   7.151  0.1304  0.2402 -0.2212
30944SOL    HW1   72   7.265   5.046   7.057  1.4175 -0.7272 -0.3041
30944SOL    HW2   73   7.261   4.933   7.157  0.2301  0.3128  0.8643
30945SOL     OW   74   9.833  10.542   9.228 -0.7881 -0.2708 -0.3905
30945SOL    HW1   75   9.781  10.590   9.292 -1.4997 -0.7784 -0.5761
30945SOL    HW2   76   9.770  10.511   9.163 -0.4017 -1.6443 -0.1627
30946SOL     OW   77  10.491  11.624   3.170 -0.2901 -0.3036 -0.0671
30946SOL    HW1   78  10.539  11.706   3.161 -1.0090  0.2331  0.8098
30946SOL    HW2   79  10.520  11.587   3.254 -1.7868  0.3274  0.7800
30947SOL     OW   80   7.789  10.357   6.765 -0.1045  0.6396  0.1855
30947SOL    HW1   81   7.832  10.442   6.763 -0.7911  0.9914 -0.4496
30947SOL    HW2   82   7.704  10.372   6.724 -0.2626 -0.3424  0.1121
30948SOL     OW   83  10.045   7.604  12.382 -0.0523 -0.4504  0.4557
30948SOL    HW1   84  10.054   7.561  12.297  0.2958 -0.6384  0.5850
30948SOL    HW2   85  10.009   7.536  12.439 -0.8884 -0.1410  0.3101
30949SOL     OW   86  11.102   2.394   5.026  0.2600 -0.4997  0.3475
30949SOL    HW1   87  11.078   2.454   5.096  1.8227 -0.1672  0.6240
30949SOL    HW2   88  11.131   2.450   4.955  0.2600 -0.8933  0.0301
30950SOL     OW   89   8.954   9.114   8.099  0.0078  0.0227  0.0988
30950SOL    HW1   90   9.001   9.149   8.174  0.1930 -1.3326  0.6545
30950SOL    HW2   91   8.881   9.065   8.137 -0.6197  0.3569 -0.6646
30951SOL     OW   92   4.252   5.349  10.072  0.1469 -0.3063  0.0570
30951SOL    HW1   93   4.271   5.256  10.083  1.5103  0.0519  0.8824
30951SOL    HW2   94   4.196   5.371  10.147 -0.1370 -0.4338 -0.1126
30952SOL     OW   95   9.007   9.774  11.393 -0.6844  0.1780 -0.0279
30952SOL    HW1   96   8.955   9.852  11.371 -1.6949 -0.2665  0.7272
30952SOL    HW2   97   9.097   9.807  11.399 -1.0853  1.2765  0.2111
30953SOL     OW   98   6.891   4.777   3.572  0.1162 -0.2520  0.9477
30953SOL    HW1   99   6.963   4.716   3.590 -0.9714 -1.8404  0.2206
30953SOL    HW2  100   6.905   4.803   3.481 -0.3770 -0.8007  0.7100
30954SOL     OW  101   9.010   9.332   5.716 -0.0865  0.2153  0.4760
30954SOL    HW1  102   9.070   9.383   5.770  0.3938 -0.4886  0.6265
30954SOL    HW2  103   9.025   9.363   5.627  2.0387 -1.3704  0.2165
30955SOL     OW  104   6.510   1.305  12.346 -0.2575  0.0368 -0.4778
30955SOL    HW1  105   6.565   1.324  12.270 -2.0099  0.6519 -1.6479
30955SOL    HW2  106   6.461   1.386  12.361  0.0250 -0.0783  1.3218
30956SOL     OW  107   3.701   9.161   7.169  0.3077  0.0686 -0.5412
30956SOL    HW1  108   3.636   9.093   7.149  2.2249 -1.6607 -1.3285
30956SOL    HW2  109   3.679   9.234   7.111 -0.3233 -0.8851 -1.5408
30957SOL     OW  110   4.822   6.459   8.007  0.0593 -0.0531  0.1831
30957SOL    HW1  111   4.882   6.385   8.020 -0.9746 -0.7078  1.4493
30957SOL    HW2  112   4.735   6.419   8.010 -0.5450  1.3010  1.5269
30958SOL     OW  113   9.976   9.310   1.485  0.3243 -0.0019  0.1993
30958SOL    HW1  114   9.997   9.318   1.392  3.4194 -2.1278  0.5607
30958SOL    HW2  115   9.951   9.218   1.496  1.5760 -0.2117  1.6676
30959SOL     OW  116   8.300   1.428   5.733  0.0789 -0.1292 -0.0472
30959SOL    HW1  117   8.223   1.453   5.681 -0.4656  1.0380  1.2858
30959SOL    HW2  118   8.311   1.334   5.715 -0.6716  0.0306 -1.4963
30960SOL     OW  119   0.772   2.547   0.954 -0.0773  0.2107  0.5070
30960SOL    HW1  120   0.760   2.458   0.985 -1.5382 -0.2058 -1.1496
30960SOL    HW2  121   0.760   2.601   1.033 -1.4205 -0.9182  1.1084
30961SOL     OW  122   9.934  12.291   9.128 -0.0085  0.4811  0.4079
30961SOL    HW1  123   9.918  12.223   9.063 -0.2734  1.0044 -0.0824
30961SOL    HW2  124  10.021  12.324   9.108 -0.5064  1.3780 -0.3776
30962SOL     OW  125   1.750  11.530   1.051 -0.0021 -0.3891  0.0047
30962SOL    HW1  126   1.697  11.475   1.110  1.6574 -2.1815 -0.0966
30962SOL    HW2  127   1.771  11.473   0.977 -2.4008  1.9303 -2.7199
30963SOL     OW  128  12.034   5.441   6.904  0.1238 -0.4569  0.2597
30963SOL    HW1  129  12.048   5.431   6.998  1.5112 -1.3800 -0.0081
30963SOL    HW2  130  12.121   5.456   6.869 -0.5337  1.2128 -0.7584
30964SOL     OW  131   5.229   5.897  12.365 -0.2214  0.3261  0.0372
30964SOL    HW1  132   5.313   5.942  12.377  0.4544 -0.6859 -0.6605
30964SOL    HW2  133   5.163   5.966  12.371  0.6881  1.2090  0.1551
30965SOL     OW  134   4.614   2.559  11.906  0.2104  0.3224 -0.0434
30965SOL    HW1  135   4.539   2.535  11.851 -0.1373 -0.6785  0.8198
30965SOL    HW2  136   4.682   2.497  11.883 -0.3033 -0.8207  1.3898
30966SOL     OW  137   6.324   3.614   7.009  0.3425  0.0669  0.1831
30966SOL    HW1  138   6.383   3.597   6.935 -0.4453 -0.3212 -0.3793
30966SOL    HW2  139   6.358   3.693   7.050 -0.2461  1.3817 -1.7167
30967SOL     OW  140   6.797   6.910  10.336  0.6827 -0.7201  0.3683
30967SOL    HW1  141   6.822   6.949  10.252 -0.8605  0.7525  0.5409
30967SOL    HW2  142   6.824   6.819  10.329 -1.2457 -1.2122 -2.5945
30968SOL     OW  143  11.268  12.523   9.477  0.2703 -0.1249 -0.2100
30968SOL    HW1  144  11.266  12.427   9.485  1.3240 -0.2148 -0.7969
30968SOL    HW2  145  11.347  12.549   9.525 -0.1792  0.4905  0.2071
30969SOL     OW  146  12.550  10.311   3.400  0.5149 -0.6840 -0.1687
30969SOL    HW1  147  12.499  10.259   3.463  0.8524  0.5740  1.1909
30969SOL    HW2  148  12.539  10.401   3.428  0.0803  0.0214 -2.3921
30970SOL     OW  149   2.934   7.388   2.148  0.1633 -0.2281  0.0295
30970SOL    HW1  150   2.898   7.377   2.059  2.2496 -0.3262 -0.8582
30970SOL    HW2  151   2.912   7.478   2.171 -1.9805 -0.7253  0.2225
30971SOL     OW  152   1.117   9.279   7.108  0.3003  0.2218 -0.3210
30971SOL    HW1  153   1.111   9.186   7.128 -1.9291  0.1463 -1.0862
30971SOL    HW2  154   1.148   9.319   7.190 -1.2429 -0.9070  0.8607
30972SOL     OW  155  10.393   3.999   1.895  0.6027 -0.0561  0.1623
30972SOL    HW1  156  10.304   4.018   1.925 -0.2501 -1.6875 -1.1516
30972SOL    HW2  157  10.450   4.032   1.965 -1.0633  0.3845  1.3591
30973SOL     OW  158  12.414   0.720   0.905  0.3050  0.0672  0.1295
30973SOL    HW1  159  12.461   0.774   0.968  0.9585 -1.0499  0.6496
30973SOL    HW2  160  12.352   0.669   0.959 -2.1870  2.1008 -0.6231
30974SOL     OW  161  11.645  10.659   1.564  0.6368 -0.1760 -0.1735
30974SOL    HW1  162  11.581  10.594   1.592 -1.3826  1.8204  0.1112
30974SOL    HW2  163  11.668  10.633   1.474 -0.6944 -0.8526 -0.3362
30975SOL     OW  164   5.714   4.093   0.667 -0.1233 -0.3336 -0.1903
30975SOL    HW1  165   5.789   4.033   0.666 -0.1117 -0.3590 -2.5659
30975SOL    HW2  166   5.754   4.180   0.666 -0.0829 -0.3470 -1.0707
30976SOL     OW  167   2.605   1.193   6.311  0.3079 -0.6242  0.8788
30976SOL    HW1  168   2.605   1.108   6.355  0.8637 -1.5956 -0.8971
30976SOL    HW2  169   2.516   1.200   6.276  0.6036 -1.0654  0.0024
30977SOL     OW  170  10.208   6.294   7.526 -0.0382  0.7443 -0.1855
30977SOL    HW1  171  10.163   6.298   7.441 -0.3260  1.3935 -0.0109
30977SOL    HW2  172  10.137   6.295   7.591  0.2010  1.0892  0.0765
30978SOL     OW  173   9.244   9.026   5.307  0.3058  0.1814  0.1015
30978SOL    HW1  174   9.257   9.118   5.284  0.7192  0.3378  0.9346
30978SOL    HW2  175   9.159   9.025   5.352  1.1362  0.4921  1.7682
30979SOL     OW  176   5.134   2.457  11.578 -0.3819  0.2183  0.4684
30979SOL    HW1  177   5.144   2.402  11.500 -1.9174  0.8318 -0.1947
30979SOL    HW2  178   5.058   2.419  11.624 -1.5458  1.8199 -0.0620
30980SOL     OW  179  11.469  10.436   1.622 -0.1065 -0.4978 -0.3311
30980SOL    HW1  180  11.451  10.355   1.574  0.4755 -1.1606  0.5538
30980SOL    HW2  181  11.483  10.408   1.712  2.0958  0.3349 -0.3586
30981SOL     OW  182   1.929   7.975  10.863  0.2373  0.0419  0.0626
30981SOL    HW1  183   1.848   7.928  10.883 -0.8016  0.8419 -1.9445
30981SOL    HW2  184   1.907   8.067  10.877  1.5575  0.1492  1.7484
30982SOL     OW  185   8.738   9.700   9.139  0.2416 -0.6106  0.2466
30982SOL    HW1  186   8.728   9.706   9.234  1.8318  0.6785  0.3646
30982SOL    HW2  187   8.828   9.673   9.126  0.8125  1.6684 -0.9103
30983SOL     OW  188   0.818   5.028   8.742  0.0813  0.3104  0.2852
30983SOL    HW1  189   0.820   5.060   8.833  3.1301  0.5654  0.2318
30983SOL    HW2  190   0.825   5.107   8.689 -1.0476  0.1104 -0.1903
30984SOL     OW  191   4.018   9.584   3.601 -0.5787  0.4241  0.1313
30984SOL    HW1  192   4.058   9.548   3.522  0.4396 -2.5703  1.8322
30984SOL    HW2  193   3.948   9.523   3.622  0.3163  0.0658  2.4347
30985SOL     OW  194  11.400  10.741   2.321  0.1791  0.0304 -0.4961
30985SOL    HW1  195  11.354  10.759   2.238  1.4589  2.0093 -0.8351
30985SOL    HW2  196  11.389  10.822   2.372  0.4681 -0.7122  0.7713
30986SOL     OW  197   3.218   3.173   1.079  0.1396  0.3482  0.1690
30986SOL    HW1  198   3.307   3.157   1.049  0.5702  2.0677  0.4427
30986SOL    HW2  199   3.203   3.108   1.147  1.3653  0.3439  0.4473
30987SOL     OW  200   4.426   5.368   2.050  0.5931 -0.2654 -0.0554
30987SOL    HW1  201   4.340   5.372   2.008  0.7646  4.8061 -0.4769
30987SOL    HW2  202   4.407   5.361   2.144 -0.1124 -1.5132 -0.2683
30988SOL     OW  203   1.080   4.193   3.904  0.5234 -0.2609  0.1208
30988SOL    HW1  204   1.102   4.123   3.966 -0.6646  0.0779  0.9463
30988SOL    HW2  205   1.084   4.150   3.818 -0.6447 -1.4868  0.6385
30989SOL     OW  206   8.517  10.942   5.361 -0.2979 -0.0098 -0.4890
30989SOL    HW1  207   8.432  10.964   5.401 -0.7193  1.6914 -2.1948
30989SOL    HW2  208   8.500  10.863   5.311 -0.2626 -1.0018  0.9973
30990SOL     OW  209  11.060   7.099   3.320  0.1702  0.1323 -0.0247
30990SOL    HW1  210  11.141   7.090   3.271 -0.5380  0.4633 -1.3023
30990SOL    HW2  211  11.048   7.014   3.362  1.1388  0.0631  0.1312
30991SOL     OW  212  10.386  11.876   5.582 -0.2208  0.4087  0.3664
30991SOL    HW1  213  10.462  11.887   5.524 -0.5200  0.3967 -0.0375
30991SOL    HW2  214  10.316  11.924   5.538 -0.8781 -0.9324 -0.1249
30992SOL     OW  215   6.372   6.308  11.588  0.0326  0.6293 -0.1478
30992SOL    HW1  216   6.380   6.364  11.665  0.0406 -1.5334  1.5082
30992SOL    HW2  217   6.278   6.292  11.580  0.0604  0.5779 -0.3806
30993SOL     OW  218   5.156   3.670  12.641  0.4285  0.2689  0.1015
30993SOL    HW1  219   5.227   3.698  12.699  1.0148  1.2624 -1.0491
30993SOL    HW2  220   5.080   3.663  12.699  1.0968  0.7462  1.0827
30994SOL     OW  221   8.519   3.796   9.764  0.1118 -0.2607  0.0873
30994SOL    HW1  222   8.588   3.832   9.820  0.3972 -1.1702  0.3335
30994SOL    HW2  223   8.522   3.702   9.780  0.8525 -0.6613 -2.1972
30995SOL     OW  224   8.441  12.461   8.140 -0.3957 -0.6526  0.4429
30995SOL    HW1  225   8.346  12.464   8.156  0.0326 -0.7946  3.5015
30995SOL    HW2  226   8.475  12.539   8.184  1.0506 -1.2085  0.3498
30996SOL     OW  227  10.492   4.711  11.832  0.7499 -0.4752  0.1453
30996SOL    HW1  228  10.437   4.771  11.782 -0.5713 -1.9099 -0.2041
30996SOL    HW2  229  10.564   4.689  11.773 -0.0021 -0.9913 -0.6108
30997SOL     OW  230   0.064   8.994   9.071  0.3051  0.4422  0.1260
30997SOL    HW1  231   0.090   8.945   9.149 -0.3170  1.3557  0.9249
30997SOL    HW2  232  -0.032   8.991   9.072  0.2964 -0.2039 -1.0492
30998SOL     OW  233   9.822   6.736   0.903  0.9031 -0.3576  0.0358
30998SOL    HW1  234   9.743   6.779   0.936 -0.4841 -3.9300  1.8772
30998SOL    HW2  235   9.894   6.790   0.936 -0.7010  1.2057  1.1621
30999SOL     OW  236  11.837   0.663  12.486 -0.3092  0.0306  0.5963
30999SOL    HW1  237  11.875   0.668  12.574  1.2265 -2.2591  0.1393
30999SOL    HW2  238  11.907   0.696  12.429 -0.4058 -0.7151  0.0462
31000SOL     OW  239  11.882   2.033   9.259  0.1795 -0.4190 -0.0719
31000SOL    HW1  240  11.811   2.097   9.266 -0.1789 -0.7113 -0.9389
31000SOL    HW2  241  11.956   2.084   9.227  0.8971  0.2463  2.4176
31001SOL     OW  242   7.480   1.476   3.681  0.0773  0.0931 -0.2982
31001SOL    HW1  243   7.504   1.564   3.710  0.1080  0.0334 -0.1451
31001SOL    HW2  244   7.387   1.469   3.699  0.2392 -0.2013  0.4371
31002SOL     OW  245   3.862   5.437   3.728 -0.4843 -0.7523  0.4972
31002SOL    HW1  246   3.925   5.396   3.669 -0.3600 -2.7726  1.9281
31002SOL    HW2  247   3.794   5.472   3.671  0.3426 -1.3720 -0.9036
31003SOL     OW  248   7.997   5.312   7.780  0.8138  0.1723 -0.9237
31003SOL    HW1  249   8.006   5.317   7.685 -0.1687 -0.5583 -1.0702
31003SOL    HW2  250   8.039   5.230   7.805  0.5258  0.0614 -0.8016
31004SOL     OW  251   6.307  12.645   6.781  0.8026  0.3769 -0.6828
31004SOL    HW1  252   6.286  12.551   6.775  1.2602  0.2649 -0.5349
31004SOL    HW2  253   6.278  12.671   6.868  0.5539  0.4050 -0.7724
31005SOL     OW  254   5.843   0.623   2.991 -0.8051 -0.0187  0.2456
31005SOL    HW1  255   5.894   0.545   3.011 -0.7035 -0.5352 -1.7919
31005SOL    HW2  256   5.908   0.691   2.975 -0.7269 -0.5143 -1.7177
31006SOL     OW  257   9.604   9.294   2.958 -0.0155  0.1408  0.7103
31006SOL    HW1  258   9.663   9.330   3.024  0.2298  2.7534 -0.7967
31006SOL    HW2  259   9.662   9.254   2.893 -0.1264 -0.3556  0.9114
31007SOL     OW  260   1.668  12.044   3.242  0.1347  0.0259  0.1514
31007SOL    HW1  261   1.645  12.134   3.264  0.2625  0.3871 -1.0754
31007SOL    HW2  262   1.670  11.998   3.326 -2.8485  0.4597  0.5854
31008SOL     OW  263   1.675  12.584   7.239  0.7063  0.2365 -0.2509
31008SOL    HW1  264   1.740  12.653   7.245  0.3094  0.4838  1.9209
31008SOL    HW2  265   1.593  12.624   7.268  0.5470 -1.1964  1.4344
31009SOL     OW  266   9.674   8.231  12.482 -0.1591  0.2480 -0.0463
31009SOL    HW1  267   9.698   8.154  12.429 -0.5335  1.4718 -2.0815
31009SOL    HW2  268   9.596   8.204  12.529 -0.4769 -0.5380 -0.9829
31010SOL     OW  269   6.268   4.918   0.886 -0.4335  0.6770 -0.2187
31010SOL    HW1  270   6.209   4.982   0.847  0.1914  0.9989 -0.6522
31010SOL    HW2  271   6.233   4.904   0.974 -0.7209  1.4247 -0.2062
31011SOL     OW  272   3.496   1.468   5.251 -0.4171 -0.0083 -0.0182
31011SOL    HW1  273   3.447   1.520   5.187  1.0890  0.1701 -1.0607
31011SOL    HW2  274   3.455   1.381   5.247  0.3830 -0.3410 -2.1159
31012SOL     OW  275  10.117  11.558   0.278  0.2083  0.1073  0.5348
31012SOL    HW1  276  10.189  11.549   0.340  0.5092  1.5411  0.4265
31012SOL    HW2  277  10.085  11.647   0.290 -1.5105 -0.4591  0.5180
31013SOL     OW  278   9.688   7.258   2.240 -0.3882 -0.0313  0.1986
31013SOL    HW1  279   9.707   7.347   2.209 -1.3458  0.7711  1.7810
31013SOL    HW2  280   9.771   7.228   2.278  0.1261 -0.1017 -0.9274
31014SOL     OW  281   7.009   9.899   1.828  0.2371  0.1601  0.5170
31014SOL    HW1  282   7.093   9.945   1.831 -0.1895  0.9884  0.0280
31014SOL    HW2  283   7.029   9.810   1.858  1.2647  0.3775  0.4967
31015SOL     OW  284   9.075   7.678  10.426 -0.4435 -0.3279 -0.0325
31015SOL    HW1  285   8.991   7.650  10.389 -1.0802  0.1105  1.0165
31015SOL    HW2  286   9.121   7.719  10.353 -1.8294  0.8863 -0.2785
31016SOL     OW  287  11.778   4.860   3.195 -0.1428 -0.2507 -0.0316
31016SOL    HW1  288  11.824   4.820   3.121 -0.1824 -0.6420  0.1513
31016SOL    HW2  289  11.805   4.807   3.271  0.2771  0.4421  0.3135
31017SOL     OW  290   2.128   5.107  10.819  0.0055 -0.3886 -0.3771
31017SOL    HW1  291   2.209   5.146  10.787 -0.1583  0.6259  0.3930
31017SOL    HW2  292   2.110   5.036  10.758  1.3026 -0.4289 -0.7415
31018SOL     OW  293  11.976   0.008   8.149 -0.4623  0.7141  0.0733
31018SOL    HW1  294  11.903   0.011   8.210 -1.1608  0.6404 -0.7324
31018SOL    HW2  295  11.943   0.054   8.071  0.1630  0.2111 -0.4959
31019SOL     OW  296   8.351   6.359   2.568  0.9165 -0.0118  0.2089
31019SOL    HW1  297   8.327   6.330   2.656  3.6504  0.2016  1.1104
31019SOL    HW2  298   8.377   6.278   2.523 -0.8777 -0.1845 -0.6223
31020SOL     OW  299  11.098  10.294   2.444  0.1830 -0.3463 -0.1917
31020SOL    HW1  300  11.042  10.279   2.520 -0.7629 -0.7953 -0.9610
31020SOL    HW2  301  11.137  10.380   2.460 -1.3130  0.3294 -0.0028
31021SOL     OW  302   1.868   3.009   7.479 -0.1752 -0.1971 -0.1073
31021SOL    HW1  303   1.801   2.964   7.428  0.0639  0.0454 -0.6385
31021SOL    HW2  304   1.914   2.938   7.525  0.4352 -0.5465 -1.2220
31022SOL     OW  305   5.270  12.311  12.590 -0.0890  0.3346 -0.3625
31022SOL    HW1  306   5.261  12.217  12.604  0.3033  0.2005 -0.9817
31022SOL    HW2  307   5.226  12.351  12.666  0.6567 -0.3466  0.4493
31023SOL     OW  308   3.614   7.511   0.852 -1.1732  0.1494 -0.0091
31023SOL    HW1  309   3.664   7.461   0.788 -0.8393  1.6255 -0.9636
31023SOL    HW2  310   3.546   7.451   0.883 -1.2836 -0.6214 -1.6746
31024SOL     OW  311   6.553  11.097  11.585 -0.3560  0.1855  0.1258
31024SOL    HW1  312   6.546  11.191  11.604 -0.9412  0.1291  0.2258
31024SOL    HW2  313   6.548  11.091  11.490 -1.4035  0.1823  0.1728
31025SOL     OW  314   5.066   3.042   2.484 -0.0775 -0.3220  0.0288
31025SOL    HW1  315   5.110   2.964   2.518  1.1126  1.1240  2.1029
31025SOL    HW2  316   5.016   3.075   2.558  0.9135  1.8347 -0.1692
31026SOL     OW  317   2.935   3.770   6.319  0.0261  0.7845  0.3887
31026SOL    HW1  318   2.973   3.694   6.275 -0.0986 -0.4645  2.3140
31026SOL    HW2  319   2.937   3.840   6.253  0.3396 -0.8150 -1.3688
31027SOL     OW  320  10.792  10.793  10.841  0.0432  0.0641  0.2782
31027SOL    HW1  321  10.886  10.795  10.861  0.1036  2.3787  0.0490
31027SOL    HW2  322  10.788  10.803  10.746 -0.4071  1.8904  0.4472
31028SOL     OW  323   1.195   9.895   9.752 -0.4651  0.1965 -0.0150
31028SOL    HW1  324   1.162   9.949   9.680 -0.9427  1.9766  1.4635
31028SOL    HW2  325   1.232   9.958   9.814 -2.3569 -1.0224  2.4927
31029SOL     OW  326  11.610  10.243  11.953  0.1901  0.4190  0.3890
31029SOL    HW1  327  11.669  10.225  12.026  0.7192  0.3382 -0.0529
31029SOL    HW2  328  11.523  10.245  11.993  0.4808  0.4816  1.0368
31030SOL     OW  329  10.913   1.567  11.608 -0.3698  0.0784  0.1846
31030SOL    HW1  330  10.963   1.573  11.527  0.2564  0.5620  0.5898
31030SOL    HW2  331  10.971   1.522  11.669 -0.6028  0.2356  0.5290
31031SOL     OW  332   7.967   3.719   1.592  0.4375  0.0105 -0.0343
31031SOL    HW1  333   7.943   3.638   1.637  0.6107  0.7117  1.3862
31031SOL    HW2  334   7.966   3.785   1.661 -1.2748  1.5438 -1.4533
31032SOL     OW  335   2.897  12.532   2.617  0.2874  0.1038  0.4559
31032SOL    HW1  336   2.897  12.436   2.611  0.2495  0.1572 -0.7046
31032SOL    HW2  337   2.950  12.551   2.694 -0.1254 -0.8594  1.0023
31033SOL     OW  338   3.443   3.925  11.378 -0.1291 -0.3441 -0.6214
31033SOL    HW1  339   3.503   3.940  11.451 -1.5994  0.3239  0.5056
31033SOL    HW2  340   3.369   3.878  11.416 -0.9856  0.1207 -1.6407
31034SOL     OW  341   1.016  12.211   1.553  0.3608  0.2058  0.1040
31034SOL    HW1  342   0.964  12.283   1.589 -0.6281  0.1132 -1.0640
31034SOL    HW2  343   1.008  12.220   1.458  4.2553  1.4378 -0.2861
31035SOL     OW  344   9.326  12.135   8.723  0.8877  0.1344  0.2106
31035SOL    HW1  345   9.377  12.068   8.677 -0.0668 -0.4434 -0.0318
31035SOL    HW2  346   9.242  12.093   8.740 -0.7916  2.1191 -2.4456
31036SOL     OW  347  12.315   7.511   1.697 -0.0319 -0.2529  0.1454
31036SOL    HW1  348  12.266   7.566   1.636  0.0773  0.1422  0.4090
31036SOL    HW2  349  12.392   7.562   1.718  0.0267 -0.4716  0.4643
31037SOL     OW  350  12.303  10.195   5.188  0.7834  0.2428  0.5700
31037SOL    HW1  351  12.250  10.175   5.264  0.6790  0.1686  0.4764
31037SOL    HW2  352  12.361  10.266   5.217  0.3280  0.6318  0.5390
31038SOL     OW  353  11.149   5.959   5.773 -0.0817 -0.1048  0.4149
31038SOL    HW1  354  11.208   6.000   5.836  0.2787  0.1520 -0.0825
31038SOL    HW2  355  11.193   5.970   5.688 -0.1874 -1.1382  0.2182
31039SOL     OW  356   8.505   1.474   5.470  0.2900  0.6059 -0.7932
31039SOL    HW1  357   8.411   1.484   5.453  0.0619 -0.4808 -0.2952
31039SOL    HW2  358   8.533   1.557   5.507 -1.3779 -0.3100  2.9138
31040SOL     OW  359   7.548  10.368   4.327  0.2588  0.4357  0.2182
31040SOL    HW1  360   7.604  10.295   4.351 -1.3416 -0.9696 -0.1553
31040SOL    HW2  361   7.468  10.356   4.377 -0.6389  1.0376 -0.9984
31041SOL     OW  362   9.127  12.585   4.255 -0.4461 -0.0073  0.1132
31041SOL    HW1  363   9.201  12.555   4.308  1.0712  1.0429 -1.3066
31041SOL    HW2  364   9.060  12.610   4.320  1.0588  0.5636  1.5206
31042SOL     OW  365   1.040   5.242   4.054  0.4704  0.1140 -0.2646
31042SOL    HW1  366   1.089   5.193   3.989  0.4179  1.3089 -1.2380
31042SOL    HW2  367   1.091   5.232   4.135  1.7494  0.4442 -1.0042
31043SOL     OW  368   3.917   0.422   5.682  0.2115  0.1422 -0.1568
31043SOL    HW1  369   3.975   0.353   5.714 -0.6446 -1.3051 -1.5681
31043SOL    HW2  370   3.966   0.463   5.610 -0.0440 -0.3365 -0.6134
31044SOL     OW  371   6.541   7.459  11.018  0.0246  0.0200 -0.2304
31044SOL    HW1  372   6.527   7.541  10.971  2.5577  1.1422  0.8272
31044SOL    HW2  373   6.629   7.431  10.992  0.2360 -0.9719  1.4429
31045SOL     OW  374   1.212   4.330   8.022 -0.3744 -0.5272  0.0570
31045SOL    HW1  375   1.146   4.285   7.970  0.3546  0.1842 -1.5538
31045SOL    HW2  376   1.165   4.358   8.101 -0.6379 -4.8192  1.6547
31046SOL     OW  377   0.909   1.913   8.036 -0.2147  0.3575 -0.3364
31046SOL    HW1  378   0.886   2.004   8.053 -0.6410 -0.0555  1.6215
31046SOL    HW2  379   0.889   1.899   7.944 -0.7403  2.0690 -0.5030
31047SOL     OW  380   6.709   0.210   7.225  0.5381  0.0923  0.5465
31047SOL    HW1  381   6.705   0.180   7.316  0.3049 -2.7212 -0.2705
31047SOL    HW2  382   6.618   0.202   7.194  0.2339  2.8540  0.5103
31048SOL     OW  383  10.758   6.776   4.794 -0.2351  0.8052  0.0150
31048SOL    HW1  384  10.741   6.722   4.716 -1.1035  1.2669 -0.1257
31048SOL    HW2  385  10.850   6.760   4.814 -0.1491  0.2401 -0.7716
31049SOL     OW  386  10.601   1.023   0.791 -0.3051 -0.1451 -0.0239
31049SOL    HW1  387  10.670   1.067   0.840 -0.5717  0.4133 -0.1392
31049SOL    HW2  388  10.585   0.942   0.840  2.0004 -1.4307 -1.2296
31050SOL     OW  389   8.979   9.969   6.710 -0.2436 -0.4210 -0.1761
31050SOL    HW1  390   8.915   9.912   6.753  0.7288 -1.4381 -0.0194
31050SOL    HW2  391   8.937  10.055   6.707 -1.2715 -0.8694  0.6848
31051SOL     OW  392  10.317   8.008   7.466 -0.0461 -0.7016  0.1903
31051SOL    HW1  393  10.392   8.029   7.523 -0.7641 -1.0698  1.2976
31051SOL    HW2  394  10.274   7.935   7.510  0.5977 -2.4726 -1.9536
31052SOL     OW  395   8.347   6.778   3.550  0.0357  0.9875 -0.2390
31052SOL    HW1  396   8.292   6.704   3.524  2.7630 -1.7460  1.0089
31052SOL    HW2  397   8.393   6.803   3.470  0.0799  0.3720 -0.4132
31053SOL     OW  398   0.187   1.141   4.710  0.2170 -0.4413 -0.2980
31053SOL    HW1  399   0.165   1.142   4.617 -0.7992 -0.9394 -0.0694
31053SOL    HW2  400   0.268   1.089   4.715  0.2036 -0.5203 -0.8872
31054SOL     OW  401   1.330   0.896  11.162 -0.3763 -0.3107 -0.3607
31054SOL    HW1  402   1.398   0.942  11.211  0.2657  0.3145 -1.7776
31054SOL    HW2  403   1.336   0.805  11.193  1.9036 -0.5361 -1.1877
31055SOL     OW  404   0.407   5.612   8.487  0.1273  0.3509  0.4915
31055SOL    HW1  405   0.446   5.586   8.570 -1.3553  0.3778  1.2325
31055SOL    HW2  406   0.432   5.543   8.426 -0.6660 -0.8978  1.5312
31056SOL     OW  407   6.238  11.770   4.617 -0.1394  0.5267 -0.1000
31056SOL    HW1  408   6.276  11.857   4.614 -0.4008  0.7643  1.8060
31056SOL    HW2  409   6.284  11.726   4.689 -0.8408 -0.4765 -0.2404
31057SOL     OW  410   1.093   5.515  12.509  0.4096 -0.2556 -0.4932
31057SOL    HW1  411   1.037   5.574  12.458  0.7613  0.6791  0.1743
31057SOL    HW2  412   1.126   5.569  12.580  2.9668 -0.4874 -1.3943
31058SOL     OW  413   0.554   6.587   0.278 -0.3212 -0.0945 -0.1844
31058SOL    HW1  414   0.592   6.625   0.358 -0.4030  0.7838 -0.5548
31058SOL    HW2  415   0.615   6.612   0.209 -0.5085 -0.4333 -0.4695
31059SOL     OW  416   0.087  10.847   6.334 -0.3733  0.2661  0.2600
31059SOL    HW1  417   0.016  10.861   6.397 -1.0963  0.2714 -0.5403
31059SOL    HW2  418   0.047  10.797   6.263  0.5226 -0.0569 -0.0292
31060SOL     OW  419   8.905   0.546   8.404 -0.5697  0.0398 -0.8481
31060SOL    HW1  420   8.853   0.622   8.431 -0.3174 -0.1213  0.1257
31060SOL    HW2  421   8.886   0.479   8.470  2.9274  0.8639  1.2505
31061SOL     OW  422   4.585   8.875   6.157 -0.0080  0.4248  0.0808
31061SOL    HW1  423   4.591   8.837   6.069 -1.8717  1.3716 -0.5027
31061SOL    HW2  424   4.615   8.965   6.147  2.0594 -0.1006  0.9646
31062SOL     OW  425   1.871   6.356  11.253 -0.2468 -0.6681  0.2256
31062SOL    HW1  426   1.880   6.266  11.285  0.6904 -0.9933 -0.8371
31062SOL    HW2  427   1.961   6.383  11.233 -0.5469  0.4081  0.2595
31063SOL     OW  428   1.745   0.483   0.784  0.2382 -0.8253 -0.2368
31063SOL    HW1  429   1.673   0.487   0.847  0.8278  0.1296  0.4093
31063SOL    HW2  430   1.817   0.527   0.828  0.9551 -0.9792 -1.2252
31064SOL     OW  431   2.843   4.970  11.822 -0.0913 -0.3046  0.1887
31064SOL    HW1  432   2.928   4.933  11.844 -0.1910 -0.8291 -0.2887
31064SOL    HW2  433   2.794   4.897  11.784 -1.4472 -0.5336  2.1826
31065SOL     OW  434   7.251  11.148  12.124  0.2492  0.0240  0.0153
31065SOL    HW1  435   7.257  11.242  12.145  0.8976 -0.3510  1.6811
31065SOL    HW2  436   7.253  11.145  12.029  0.0262  1.7216 -0.0747
31066SOL     OW  437   7.190  10.389   6.356  0.2909 -0.1806 -0.6666
31066SOL    HW1  438   7.220  10.355   6.272  2.6282 -1.1040  0.4758
31066SOL    HW2  439   7.158  10.313   6.403  0.4001  0.0828 -0.1600
31067SOL     OW  440   6.941   7.277   0.415  0.0670  0.2483  0.4501
31067SOL    HW1  441   6.928   7.189   0.448  0.1064  0.7590  1.8839
31067SOL    HW2  442   6.908   7.274   0.325  2.2672 -1.8387 -0.4222
31068SOL     OW  443   2.315  10.315   4.763  0.3505  0.3800 -0.3064
31068SOL    HW1  444   2.264  10.298   4.842  1.3844 -0.6708  0.1636
31068SOL    HW2  445   2.254  10.296   4.691  0.3699 -2.0628  0.2310
31069SOL     OW  446   4.514  11.171   9.664 -0.0961  0.1605  0.6039
31069SOL    HW1  447   4.484  11.199   9.578 -0.7319  0.5057  0.9299
31069SOL    HW2  448   4.552  11.084   9.650  0.9973  0.7529 -0.2470
31070SOL     OW  449   2.758   2.871   8.422  0.6810  0.5067 -0.1004
31070SOL    HW1  450   2.799   2.907   8.500 -0.3938  1.0944  0.2141
31070SOL    HW2  451   2.702   2.800   8.454  0.8145  0.2556 -0.4209
31071SOL     OW  452   6.145  10.031   2.537 -0.0051 -0.5546 -0.3281
31071SOL    HW1  453   6.109  10.045   2.450 -0.0774 -0.4094 -0.2751
31071SOL    HW2  454   6.088   9.965   2.577  0.2073 -0.8406 -0.4992
31072SOL     OW  455  10.207   7.936   2.396 -0.4390 -0.0534 -0.0212
31072SOL    HW1  456  10.203   7.852   2.349 -0.8127 -0.9848  1.5712
31072SOL    HW2  457  10.122   7.976   2.379 -0.1136  0.2063 -1.1166
31073SOL     OW  458   0.689   8.577   9.536  0.5411  0.0986  0.9540
31073SOL    HW1  459   0.620   8.544   9.478  0.6408 -0.2232  1.0135
31073SOL    HW2  460   0.705   8.666   9.506  0.6092 -0.0712  0.4608
31074SOL     OW  461  10.358   3.909   4.291  0.0351 -0.2102 -0.4634
31074SOL    HW1  462  10.419   3.976   4.260  0.4283 -0.5168 -0.3568
31074SOL    HW2  463  10.315   3.877   4.212  2.1397 -2.0853 -0.9364
31075SOL     OW  464   0.128   0.374   9.479 -0.1342 -0.4757 -0.1368
31075SOL    HW1  465   0.220   0.376   9.453  0.6728 -1.0094  2.4307
31075SOL    HW2  466   0.083   0.340   9.402  1.7209  0.2381 -1.6289
31076SOL     OW  467   1.031   1.385  11.586 -0.0495  0.2276 -0.1380
31076SOL    HW1  468   0.937   1.407  11.588 -0.8019 -2.3522 -2.0276
31076SOL    HW2  469   1.044   1.331  11.663 -0.5942 -0.9327 -0.8371
31077SOL     OW  470   1.509  12.510  11.125 -0.2838  0.2675  0.6387
31077SOL    HW1  471   1.507  12.415  11.119  1.1740  0.1546  1.5089
31077SOL    HW2  472   1.577  12.538  11.064 -1.3979  0.8621 -0.3819
31078SOL     OW  473  10.870  12.499   8.926 -0.3291  0.0569  0.0645
31078SOL    HW1  474  10.951  12.524   8.971  0.4139  0.9368 -1.6595
31078SOL    HW2  475  10.899  12.440   8.856 -1.2448 -0.0093 -0.2722
31079SOL     OW  476   6.859  11.454   3.889  0.2859 -0.3649 -0.2072
31079SOL    HW1  477   6.837  11.381   3.831  2.6129 -1.6274  0.3769
31079SOL    HW2  478   6.918  11.509   3.837 -0.3219  0.3680 -0.1510
31080SOL     OW  479  10.087   8.758   4.917  0.2840 -0.4800  0.1178
31080SOL    HW1  480  10.111   8.767   4.825  1.4128 -0.5964  0.3964
31080SOL    HW2  481  10.167   8.779   4.966  0.3704 -2.7116  1.0236
31081SOL     OW  482   3.841  10.777   1.437 -0.6422  0.1351  0.0720
31081SOL    HW1  483   3.760  10.727   1.445  0.8072 -2.9691 -2.1784
31081SOL    HW2  484   3.884  10.767   1.522 -1.4844 -0.4553  0.4379
31082SOL     OW  485   0.772   6.740   7.324 -0.4780  0.2989 -0.6051
31082SOL    HW1  486   0.852   6.720   7.372 -0.6416  0.5631 -0.2162
31082SOL    HW2  487   0.746   6.826   7.356  0.0126  0.9775 -1.9759
31083SOL     OW  488  10.532   1.325   3.559  0.0165  0.1276 -0.4805
31083SOL    HW1  489  10.603   1.318   3.623 -0.0512  1.5109 -0.2170
31083SOL    HW2  490  10.575   1.342   3.476  0.0260  0.5945 -0.3857
31084SOL     OW  491  11.428   1.572  11.847  0.1106 -0.7332  0.1563
31084SOL    HW1  492  11.398   1.525  11.768  0.7532 -0.2534 -0.3774
31084SOL    HW2  493  11.358   1.635  11.864 -0.4747 -1.4706  0.5236
31085SOL     OW  494   7.835   8.155   9.750  0.1842  0.2409  0.1643
31085SOL    HW1  495   7.879   8.136   9.833  0.8630 -0.1545 -0.2791
31085SOL    HW2  496   7.808   8.247   9.758 -0.9769 -0.1656  1.3593
31086SOL     OW  497   6.509  10.084   9.109  0.4356  0.6183  0.0276
31086SOL    HW1  498   6.419  10.104   9.086  0.0275 -0.6383  0.4348
31086SOL    HW2  499   6.555  10.078   9.025  0.2195  1.5460 -0.1671
31087SOL     OW  500   3.440  12.286   4.240 -0.1519  0.8751 -0.3797
31087SOL    HW1  501   3.347  12.272   4.221 -0.0371  0.8029 -0.8801
31087SOL    HW2  502   3.439  12.348   4.313 -0.5945  0.8986 -0.3981
31088SOL     OW  503   3.317   7.702  12.030 -0.2280 -0.9116 -0.5564
31088SOL    HW1  504   3.319   7.610  12.002 -0.6798 -0.8137 -0.9347
31088SOL    HW2  505   3.275   7.700  12.116  1.9131 -1.3058  0.5304
31089SOL     OW  506   0.226   3.214   6.493  0.4110  0.0075  0.1163
31089SOL    HW1  507   0.243   3.306   6.474 -0.4755  0.1194 -0.1485
31089SOL    HW2  508   0.239   3.206   6.587 -0.6551  0.6652  0.3365
31090SOL     OW  509   4.853  10.661   4.217 -0.4065 -0.8924 -0.4489
31090SOL    HW1  510   4.774  10.709   4.191  0.2186  0.1240 -0.5517
31090SOL    HW2  511   4.832  10.625   4.303 -0.3820  0.9233  0.3806
31091SOL     OW  512   1.796  12.319   4.060  0.2896 -0.2370 -0.7300
31091SOL    HW1  513   1.882  12.303   4.099  0.2342  0.0776 -0.4672
31091SOL    HW2  514   1.790  12.415   4.056 -0.6399 -0.2154  0.5988
31092SOL     OW  515   2.123  10.980   1.429 -0.5646  0.1156 -0.2758
31092SOL    HW1  516   2.187  11.036   1.472  0.4726 -1.0028 -0.3287
31092SOL    HW2  517   2.064  11.041   1.384 -0.1927  1.2004  0.6479
31093SOL     OW  518   4.105   1.878   4.938 -0.0605  0.2467  0.3527
31093SOL    HW1  519   4.136   1.797   4.979 -0.3942 -0.7299 -1.2720
31093SOL    HW2  520   4.178   1.939   4.949  0.9382 -0.8430 -0.0107
31094SOL     OW  521   8.094   5.556   1.980  0.8483 -0.1213 -0.0765
31094SOL    HW1  522   8.041   5.483   2.010 -0.6192  0.7327 -0.4759
31094SOL    HW2  523   8.091   5.551   1.884  0.6507  0.5095 -0.1087
31095SOL     OW  524  10.724   0.772   1.207 -0.2510  0.2039 -0.1097
31095SOL    HW1  525  10.685   0.686   1.215 -1.1043  0.3412 -2.1480
31095SOL    HW2  526  10.690   0.806   1.124 -2.1875  3.6469  1.8639
31096SOL     OW  527   1.297  12.194  12.201  0.0479  0.3386  0.3554
31096SOL    HW1  528   1.350  12.177  12.123 -0.0217 -0.0912  0.4012
31096SOL    HW2  529   1.303  12.289  12.213  1.1589  0.2469  0.6075
31097SOL     OW  530   1.930   7.857   5.763 -0.3236  0.0200  0.1716
31097SOL    HW1  531   1.838   7.884   5.769 -0.3045  0.1717 -0.2467
31097SOL    HW2  532   1.975   7.933   5.726  0.1803  0.4042  1.4968
31098SOL     OW  533  10.193   2.033   5.939  0.1958 -0.1929 -0.2360
31098SOL    HW1  534  10.143   1.952   5.950  0.9861 -0.7449 -0.5501
31098SOL    HW2  535  10.180   2.057   5.848  0.2477 -0.1710 -0.2379
31099SOL     OW  536   3.241   3.610   6.422  0.0337  0.2503  0.0059
31099SOL    HW1  537   3.316   3.652   6.380  0.5824 -0.4178  0.2853
31099SOL    HW2  538   3.183   3.587   6.350  0.0752  0.8284 -0.2100
31100SOL     OW  539  12.525   8.345   3.883  0.0717  0.7507 -0.1964
31100SOL    HW1  540  12.607   8.297   3.887 -1.1481 -1.5368 -0.8314
31100SOL    HW2  541  12.458   8.278   3.869 -1.6540  2.7249 -2.2714
31101SOL     OW  542   3.553   0.735   7.411  0.3681  0.2767  0.2296
31101SOL    HW1  543   3.608   0.783   7.349 -1.0345  0.1768 -1.1682
31101SOL    HW2  544   3.572   0.643   7.396  1.0407  0.2796  0.9688
31102SOL     OW  545  10.718   6.098   8.895  0.2041 -0.2370  0.5845
31102SOL    HW1  546  10.659   6.028   8.924  1.2167 -0.5579  2.0364
31102SOL    HW2  547  10.804   6.072   8.931  1.0073  0.7458 -0.5556
31103SOL     OW  548   9.926  10.869  11.204  0.3973  0.0501 -0.2129
31103SOL    HW1  549  10.002  10.875  11.262  1.6750 -1.5734 -1.6127
31103SOL    HW2  550   9.953  10.808  11.136 -1.4437  1.0304 -1.9195
31104SOL     OW  551   3.162   8.753  12.640  0.1186  0.1403  0.3471
31104SOL    HW1  552   3.150   8.658  12.633 -0.2121  0.1974  0.1273
31104SOL    HW2  553   3.087   8.790  12.593  1.0291  0.5130 -0.8617
31105SOL     OW  554   1.194   3.841   5.033  0.0852 -0.2428  0.0062
31105SOL    HW1  555   1.100   3.850   5.016 -0.2713 -1.6669  1.0209
31105SOL    HW2  556   1.219   3.760   4.990  1.3789  1.1664 -2.0708
31106SOL     OW  557  11.843   1.066  12.340 -0.1524 -0.0837  0.2393
31106SOL    HW1  558  11.896   1.091  12.416 -0.1911  0.3417  0.1337
31106SOL    HW2  559  11.766   1.124  12.346  1.0553  1.8493 -1.5563
31107SOL     OW  560   1.857   3.580   6.619  0.1583  0.1715  0.2035
31107SOL    HW1  561   1.793   3.542   6.679  1.9535 -1.4973  1.1627
31107SOL    HW2  562   1.845   3.531   6.538 -0.9271  1.0713 -0.2013
31108SOL     OW  563   0.452   6.175  12.415 -0.3354  0.1706  0.1653
31108SOL    HW1  564   0.396   6.115  12.366 -0.6855  0.4782  0.1832
31108SOL    HW2  565   0.519   6.202  12.353  0.0300 -0.5037  0.2563
31109SOL     OW  566   7.204   8.794   7.963  0.1947  0.1685  0.4995
31109SOL    HW1  567   7.209   8.826   8.053  0.7517  0.1485  0.4790
31109SOL    HW2  568   7.265   8.720   7.961  0.3451  0.3023  0.0511
31110SOL     OW  569   0.730   4.833   2.905  0.1213 -0.2786 -0.1543
31110SOL    HW1  570   0.723   4.767   2.974 -0.0363 -0.2614 -0.1525
31110SOL    HW2  571   0.662   4.809   2.842  0.8291 -0.8041 -0.7404
31111SOL     OW  572  10.300   5.298   2.682  0.4768 -0.7100 -0.2778
31111SOL    HW1  573  10.308   5.245   2.761  0.1403 -1.1519 -0.5389
31111SOL    HW2  574  10.366   5.262   2.622  1.2024  0.0604  0.0389
31112SOL     OW  575   1.110   6.680   0.687 -0.1098  0.2674  0.1778
31112SOL    HW1  576   1.199   6.673   0.723  0.2463 -1.7670 -0.9120
31112SOL    HW2  577   1.092   6.774   0.685  0.4139  0.6012  4.0910
31113SOL     OW  578   7.270   6.100   4.061 -0.0605  0.8523  0.1958
31113SOL    HW1  579   7.326   6.026   4.083  0.8888  1.2012 -0.9102
31113SOL    HW2  580   7.181   6.064   4.059  0.3312 -0.1392  0.1713
31114SOL     OW  581  12.272  10.332   2.166 -0.1009  0.3416  0.1201
31114SOL    HW1  582  12.184  10.344   2.130 -0.4320 -0.9706  0.4263
31114SOL    HW2  583  12.329  10.377   2.104 -0.9274  0.6215 -0.4646
31115SOL     OW  584  11.578   2.638   3.107  0.0273 -0.0825 -0.0499
31115SOL    HW1  585  11.617   2.654   3.021  0.4835 -2.0052 -0.2497
31115SOL    HW2  586  11.624   2.561   3.140 -2.5307 -1.5357  0.3968
31116SOL     OW  587   0.480  11.124   0.566  0.1748 -0.2014 -0.2669
31116SOL    HW1  588   0.419  11.161   0.630 -1.0940 -0.8244 -1.0735
31116SOL    HW2  589   0.455  11.031   0.561  1.5642 -0.5995 -0.2121
31117SOL     OW  590   7.480   7.023   0.340 -0.2324  0.0350 -0.1719
31117SOL    HW1  591   7.531   6.988   0.267 -0.3027  0.2516 -0.3255
31117SOL    HW2  592   7.391   7.032   0.305 -0.4362 -0.5720  0.1662
31118SOL     OW  593   1.419   4.041   5.589 -0.0342 -0.6125  0.1034
31118SOL    HW1  594   1.428   4.054   5.495  0.1997 -1.6116 -0.0239
31118SOL    HW2  595   1.327   4.019   5.601 -0.1658 -0.0392  0.1711
31119SOL     OW  596   4.347  12.058   7.904 -0.3329 -0.2308  0.0842
31119SOL    HW1  597   4.296  12.075   7.984 -0.5317 -1.9707  0.3665
31119SOL    HW2  598   4.304  12.112   7.837 -0.3316  1.0528  1.0639
31120SOL     OW  599   8.556   0.655  11.171 -0.1102 -0.6047  0.6807
31120SOL    HW1  600   8.527   0.657  11.079  0.2327  0.4540  0.5823
31120SOL    HW2  601   8.651   0.644  11.165 -0.2430 -2.1046  0.9607
31121SOL     OW  602   5.935   3.303   9.964 -0.4314 -0.1120 -0.0497
31121SOL    HW1  603   6.025   3.300   9.931 -0.5412 -1.5460 -0.2931
31121SOL    HW2  604   5.904   3.212   9.958 -2.8134  0.6984 -2.5534
31122SOL     OW  605  10.941   0.031   2.397 -0.1634  0.3272 -0.2173
31122SOL    HW1  606  10.982  -0.017   2.326 -0.1672  0.9623 -0.6583
31122SOL    HW2  607  10.930   0.120   2.363 -0.1166  0.6537  0.5951
31123SOL     OW  608  11.354   3.711  10.646  0.0128 -0.0118 -0.5473
31123SOL    HW1  609  11.350   3.802  10.676  1.1575  0.4145 -1.5678
31123SOL    HW2  610  11.309   3.661  10.714 -0.9840  1.3534 -0.1541
31124SOL     OW  611   5.356   9.290   1.649 -0.0891  0.4057  0.1625
31124SOL    HW1  612   5.429   9.291   1.711 -0.9648 -0.7816  1.2546
31124SOL    HW2  613   5.310   9.208   1.667 -1.2954  0.7916 -0.9893
31125SOL     OW  614   0.931   8.872  12.588  0.2260 -0.5026  0.3070
31125SOL    HW1  615   0.987   8.795  12.587 -0.0085 -0.6750  0.2689
31125SOL    HW2  616   0.844   8.838  12.610  0.2642 -0.1529  1.0270
31126SOL     OW  617   1.894   4.780  11.255  0.2054 -0.3395 -0.3002
31126SOL    HW1  618   1.971   4.784  11.312  0.1771 -0.3875 -0.2590
31126SOL    HW2  619   1.825   4.744  11.310 -0.2592  1.1411  0.1281
31127SOL     OW  620  11.234   9.715   2.065  0.3581  0.1918  0.4326
31127SOL    HW1  621  11.164   9.698   2.002  0.1333 -4.6888  1.6104
31127SOL    HW2  622  11.198   9.688   2.150  1.9953  2.7250  2.0992
31128SOL     OW  623   2.274   3.335   7.757  0.5044 -0.0333 -0.3955
31128SOL    HW1  624   2.232   3.251   7.779  0.8934 -0.5952 -1.6929
31128SOL    HW2  625   2.236   3.359   7.672 -0.9337  2.0379  0.7705
31129SOL     OW  626   9.060   2.882   0.034 -0.0458 -0.3860  0.3614
31129SOL    HW1  627   9.043   2.915  -0.054  1.2025 -0.7566 -0.0433
31129SOL    HW2  628   8.975   2.886   0.079 -0.3290  1.5387 -0.2567
31130SOL     OW  629  12.007   7.502   7.712 -0.3420  0.3140 -0.6540
31130SOL    HW1  630  12.023   7.592   7.738  1.4959 -0.0882 -0.2652
31130SOL    HW2  631  11.919   7.483   7.744 -0.6143  1.8448 -0.4267
31131SOL     OW  632   1.575   1.855   5.029  0.6141 -0.5341  0.4811
31131SOL    HW1  633   1.528   1.890   5.105  0.3172 -2.5907  1.3137
31131SOL    HW2  634   1.596   1.765   5.053  3.9240 -0.1398 -0.3504
31132SOL     OW  635   5.820   6.654   0.929  0.3369 -0.0950  0.4953
31132SOL    HW1  636   5.734   6.662   0.970 -0.0798 -0.2743 -0.3246
31132SOL    HW2  637   5.862   6.738   0.946 -0.9196  0.9316 -1.1334
31133SOL     OW  638  12.322   9.921  10.354  0.2816  0.7386 -0.0062
31133SOL    HW1  639  12.380   9.894  10.283 -0.0613 -1.0228  0.3263
31133SOL    HW2  640  12.354  10.006  10.381  0.8287  1.1484 -1.8307
31134SOL     OW  641   0.351   1.638   2.557 -0.6736  0.6168  0.3813
31134SOL    HW1  642   0.433   1.591   2.571 -1.4406 -0.3531  1.9612
31134SOL    HW2  643   0.330   1.675   2.643 -2.5557 -0.3204  0.3852
31135SOL     OW  644  11.257   6.093   3.004  0.6363  0.1769  0.3984
31135SOL    HW1  645  11.350   6.114   3.013  0.3996  1.1006  0.7323
31135SOL    HW2  646  11.218   6.116   3.088  0.0603  0.0067  0.1833
31136SOL     OW  647  12.274   9.043   3.917 -0.0577 -0.1270 -0.0748
31136SOL    HW1  648  12.290   9.136   3.901 -0.3476  0.0955  0.8505
31136SOL    HW2  649  12.329   8.998   3.853  0.2741  0.6776 -0.3733
31137SOL     OW  650  11.144  11.958   8.916 -0.1561  0.4991 -0.5604
31137SOL    HW1  651  11.238  11.962   8.935 -0.1729 -1.5743  0.1910
31137SOL    HW2  652  11.106  12.027   8.970  0.9261  1.3792 -0.8885
31138SOL     OW  653  12.102   7.443  11.300  0.9154 -0.1913 -0.7862
31138SOL    HW1  654  12.055   7.428  11.218 -0.5703 -0.3964  0.0707
31138SOL    HW2  655  12.130   7.534  11.295 -0.5296  0.2776 -0.8828
31139SOL     OW  656   4.246   9.152  12.109 -0.3465 -0.3932 -0.0410
31139SOL    HW1  657   4.340   9.150  12.094 -0.2968  1.0733 -0.0427
31139SOL    HW2  658   4.216   9.233  12.067 -1.6677 -0.9996 -0.3500
31140SOL     OW  659  11.106   4.668   7.698  0.3714 -0.0967 -0.2033
31140SOL    HW1  660  11.180   4.659   7.639 -0.2784  1.7434 -1.3819
31140SOL    HW2  661  11.032   4.687   7.641 -0.2840  1.6926  1.1559
31141SOL     OW  662   1.121   6.697   3.515  0.1228  0.2847  0.0478
31141SOL    HW1  663   1.039   6.705   3.563  0.1167  0.2464  0.0435
31141SOL    HW2  664   1.103   6.632   3.447  0.0203  0.6125 -0.2430
31142SOL     OW  665   0.056   2.664   5.933  0.2323 -0.1528 -0.0190
31142SOL    HW1  666  -0.002   2.645   6.007  0.1253 -0.0981 -0.0884
31142SOL    HW2  667   0.102   2.744   5.959 -0.3317  0.2687 -0.3181
31143SOL     OW  668   1.380   3.404   4.287  0.3767 -0.3966 -0.1152
31143SOL    HW1  669   1.319   3.478   4.292 -1.4227 -1.5376 -2.6686
31143SOL    HW2  670   1.346   3.342   4.351  1.9060  0.8690  2.0541
31144SOL     OW  671   0.179   5.367   6.486 -0.0966  0.5174 -0.4664
31144SOL    HW1  672   0.189   5.367   6.581  0.7788 -0.9702 -0.5289
31144SOL    HW2  673   0.269   5.365   6.452 -0.3824 -1.6093 -1.2530
31145SOL     OW  674   6.415   4.657   7.988 -0.0259 -0.9996 -0.7192
31145SOL    HW1  675   6.351   4.621   8.049 -0.5143  0.2267 -0.4812
31145SOL    HW2  676   6.364   4.712   7.929  0.8675  0.7079  0.0196
31146SOL     OW  677   9.865   2.598  10.941  0.2021 -0.2848 -0.2187
31146SOL    HW1  678   9.903   2.527  10.888  0.7433  1.4421 -2.2644
31146SOL    HW2  679   9.939   2.657  10.957 -0.3720  0.1383  0.9293
31147SOL     OW  680  11.732   9.337   6.998  0.6124  0.4723 -0.7951
31147SOL    HW1  681  11.786   9.281   6.942  0.6769 -0.2112 -0.0729
31147SOL    HW2  682  11.686   9.276   7.055  0.7696  1.1619  0.0889
31148SOL     OW  683   6.969   3.874  12.022  0.1290  0.4983 -0.1132
31148SOL    HW1  684   7.027   3.827  11.963 -0.2635  0.5763 -0.5655
31148SOL    HW2  685   6.955   3.813  12.095 -1.1782 -0.5137 -1.1585
31149SOL     OW  686   1.539   2.567   3.303  0.5694 -0.0723  0.1232
31149SOL    HW1  687   1.559   2.486   3.350 -1.6352 -0.7125  0.0951
31149SOL    HW2  688   1.569   2.552   3.214  1.7392 -0.1505  0.5089
31150SOL     OW  689   1.458   7.888  11.685 -0.1443 -0.2583 -0.3533
31150SOL    HW1  690   1.465   7.835  11.765 -0.8879 -2.3599 -1.6002
31150SOL    HW2  691   1.366   7.914  11.681 -0.4970 -1.5454 -1.3052
31151SOL     OW  692   1.275   3.802   1.027 -0.5844  0.3184 -0.2864
31151SOL    HW1  693   1.210   3.741   0.994  0.7306 -2.0155  1.1358
31151SOL    HW2  694   1.240   3.830   1.111 -0.5373  0.4017 -0.2952
31152SOL     OW  695   8.341   7.921  10.656 -0.3152  0.1196 -1.0114
31152SOL    HW1  696   8.426   7.911  10.698 -0.9912  0.4827  0.5349
31152SOL    HW2  697   8.279   7.928  10.729 -1.8612 -1.5105 -2.0832
31153SOL     OW  698   4.406   2.728   8.431  0.3478  0.0654  0.6046
31153SOL    HW1  699   4.445   2.711   8.517  0.6387 -0.5787  0.3592
31153SOL    HW2  700   4.345   2.800   8.446  0.2891 -0.1295  1.3778
31154SOL     OW  701   5.402   4.123   3.825  0.1611  0.1891  0.3194
31154SOL    HW1  702   5.374   4.154   3.911 -0.4696 -0.3139  0.3052
31154SOL    HW2  703   5.422   4.030   3.839  2.2228  0.6064  0.4141
31155SOL     OW  704   5.170   5.055   5.852  0.1999  0.5685 -0.5140
31155SOL    HW1  705   5.244   5.116   5.856 -0.6503  1.5637  1.0840
31155SOL    HW2  706   5.106   5.091   5.913 -0.9133 -1.1895 -0.5731
31156SOL     OW  707   4.035   8.975   2.480 -0.0769 -0.7712 -0.3443
31156SOL    HW1  708   4.077   8.920   2.546 -1.3176  0.4626  1.5627
31156SOL    HW2  709   3.974   9.030   2.529  0.0165  1.2721 -2.3221
31157SOL     OW  710   3.134  10.860  12.311 -0.6330  0.0613  0.4694
31157SOL    HW1  711   3.102  10.819  12.391 -1.3479  1.1546  0.7664
31157SOL    HW2  712   3.223  10.826  12.300 -1.6099 -2.5626 -0.0453
31158SOL     OW  713   7.935   8.814   6.714  0.0419  0.2854  0.6825
31158SOL    HW1  714   7.871   8.840   6.780 -1.2419  0.2080 -0.4967
31158SOL    HW2  715   7.912   8.723   6.694 -0.8567  0.8844 -1.2459
31159SOL     OW  716   1.853   2.045   8.964  0.4749  0.3201 -0.2393
31159SOL    HW1  717   1.794   1.970   8.972  1.3603 -0.4044 -0.3005
31159SOL    HW2  718   1.808   2.117   9.008 -0.6793 -0.0727 -0.7359
31160SOL     OW  719   7.773   8.129  10.940  0.3496 -0.1043  0.2285
31160SOL    HW1  720   7.749   8.219  10.921 -1.5601 -0.5638  0.2611
31160SOL    HW2  721   7.811   8.131  11.028 -1.3226  0.4434  0.9664
31161SOL     OW  722   1.876   1.392   8.296 -1.1031 -0.4925  0.0500
31161SOL    HW1  723   1.859   1.343   8.216 -0.7887  0.6194 -0.7187
31161SOL    HW2  724   1.846   1.481   8.277 -0.4483 -0.0584  0.9520
31162SOL     OW  725   1.998   0.196   4.979 -0.0301  0.5826  0.2002
31162SOL    HW1  726   2.002   0.234   4.892  0.3534  1.4959  0.6053
31162SOL    HW2  727   1.975   0.269   5.037  0.1810  0.0938  0.9216
31163SOL     OW  728  12.445   0.884   4.326  0.6982 -0.0339 -0.7928
31163SOL    HW1  729  12.533   0.846   4.335  0.5635 -0.2213 -0.2401
31163SOL    HW2  730  12.460   0.978   4.317  0.9767 -0.1057 -1.1014
31164SOL     OW  731   7.968   0.984  10.348 -0.4526 -0.6012 -0.1423
31164SOL    HW1  732   7.937   0.987  10.258  4.6528 -0.6965 -2.2376
31164SOL    HW2  733   7.996   1.074  10.367  1.1005 -1.1193  0.1874
31165SOL     OW  734   7.467   7.984   7.917 -0.0824 -0.3118 -0.1110
31165SOL    HW1  735   7.483   7.996   7.824  1.5439 -2.9888 -0.2980
31165SOL    HW2  736   7.500   8.064   7.958 -3.3693  2.1747 -1.8811
31166SOL     OW  737   7.168  11.589   6.585  0.2029  0.1286  0.0346
31166SOL    HW1  738   7.095  11.576   6.525  0.6673 -0.4195 -0.4216
31166SOL    HW2  739   7.246  11.583   6.530  0.6570 -0.8333  0.7368
31167SOL     OW  740   2.512   6.316   5.147 -0.1769 -0.0770  0.0073
31167SOL    HW1  741   2.439   6.256   5.131 -0.4865  0.0484  0.9008
31167SOL    HW2  742   2.554   6.326   5.061 -0.8748 -0.5816 -0.4038
31168SOL     OW  743   8.660   6.070   5.806  0.5881  0.0993  0.2435
31168SOL    HW1  744   8.617   5.985   5.802 -0.8933  0.8487 -0.8904
31168SOL    HW2  745   8.727   6.066   5.737  2.7901 -1.2310  2.3094
31169SOL     OW  746   6.731   7.291   3.342 -0.2128  0.4382  0.9071
31169SOL    HW1  747   6.785   7.282   3.263 -1.6616  0.0782 -0.0987
31169SOL    HW2  748   6.686   7.375   3.331  0.0316  0.6712  1.6561
31170SOL     OW  749   9.388   1.289   3.894 -0.4149  0.0577  0.1656
31170SOL    HW1  750   9.396   1.194   3.890  0.4314  0.0956  0.7328
31170SOL    HW2  751   9.417   1.320   3.808 -0.8481 -0.1966 -0.0766
31171SOL     OW  752  11.658   2.089  11.893 -0.1485 -0.9167  0.4197
31171SOL    HW1  753  11.749   2.086  11.922  0.0809 -2.8964 -0.3356
31171SOL    HW2  754  11.649   2.175  11.851  1.0757 -0.3083  1.3421
31172SOL     OW  755   9.119   2.338   6.445  0.5271 -0.6581  0.5349
31172SOL    HW1  756   9.203   2.298   6.422  0.2208 -0.7449 -0.4688
31172SOL    HW2  757   9.055   2.267   6.437  0.2149 -0.3581  0.3222
31173SOL     OW  758   9.096   5.975  11.510 -0.1635 -0.4800  0.2690
31173SOL    HW1  759   9.061   6.037  11.447 -0.6579 -1.2301 -0.2132
31173SOL    HW2  760   9.141   6.029  11.575  0.4452  0.3012 -0.7689
31174SOL     OW  761   7.220   2.760   5.301  0.2792  0.2891  0.0706
31174SOL    HW1  762   7.228   2.774   5.207 -1.0032 -1.9203 -0.4310
31174SOL    HW2  763   7.137   2.802   5.325  0.2444  0.2161  0.0785
31175SOL     OW  764   3.849   3.540   4.515 -0.2931  0.2866  0.1892
31175SOL    HW1  765   3.807   3.563   4.598  2.0444  0.8389  1.3142
31175SOL    HW2  766   3.928   3.493   4.541  1.0478  1.4091 -1.6615
31176SOL     OW  767   7.248   6.398   1.770  0.2568 -0.3470  0.3357
31176SOL    HW1  768   7.248   6.361   1.681 -0.3188 -1.0621  0.6189
31176SOL    HW2  769   7.155   6.402   1.794  0.0446  3.3217 -0.4683
31177SOL     OW  770   4.408  11.630   8.967  0.0046  0.0508  0.3790
31177SOL    HW1  771   4.501  11.611   8.977 -0.1252 -0.5099  0.5524
31177SOL    HW2  772   4.375  11.639   9.056 -0.4796 -1.6155  0.3949
31178SOL     OW  773   1.595   2.474   6.439  0.1788  0.1581  0.0994
31178SOL    HW1  774   1.538   2.439   6.508 -0.6651 -1.4755 -1.3375
31178SOL    HW2  775   1.679   2.429   6.453 -0.1704 -0.6265 -0.2673
31179SOL     OW  776  10.005   0.803   8.294 -0.0668 -0.2474  0.0069
31179SOL    HW1  777   9.938   0.738   8.316 -0.1596 -0.6926 -1.4844
31179SOL    HW2  778  10.040   0.773   8.211  0.7184  0.9896 -0.1231
31180SOL     OW  779   8.963  11.514   8.745  0.7778  0.1580 -0.3545
31180SOL    HW1  780   8.968  11.444   8.680  0.9350  1.1105 -1.4205
31180SOL    HW2  781   8.966  11.594   8.693 -2.8895  1.0189  0.4610
31181SOL     OW  782  10.401   6.582   8.171  0.1712  0.1355  0.1796
31181SOL    HW1  783  10.495   6.572   8.157  0.5117  2.0186  0.8834
31181SOL    HW2  784  10.382   6.530   8.250  0.3169 -1.3684 -0.7289
31182SOL     OW  785   1.787   9.208   2.091 -0.1651  0.0348 -1.0954
31182SOL    HW1  786   1.750   9.127   2.058  1.8338 -1.3495 -0.1391
31182SOL    HW2  787   1.845   9.239   2.021 -0.4919  0.3409 -1.2336
31183SOL     OW  788   0.027   9.069   5.078 -0.0883  0.2892  0.2366
31183SOL    HW1  789  -0.064   9.098   5.087  0.1951  1.5342 -0.6330
31183SOL    HW2  790   0.032   8.990   5.130 -1.6198  0.3292  0.4931
31184SOL     OW  791  12.647  10.955   1.016  0.2971  0.0928 -0.6577
31184SOL    HW1  792  12.733  10.988   1.043 -0.4694  0.4853  1.4697
31184SOL    HW2  793  12.584  11.015   1.056 -1.0652 -2.1449  0.7414
31185SOL     OW  794   6.913   4.186   3.024 -0.2510  0.2930 -0.0724
31185SOL    HW1  795   6.874   4.198   2.937 -1.8566  0.8381  0.6790
31185SOL    HW2  796   6.914   4.091   3.037 -1.1297  0.2598 -0.2101
31186SOL     OW  797   4.884   1.475   5.079 -0.1770 -0.2907 -0.2124
31186SOL    HW1  798   4.870   1.569   5.089  0.7969 -0.3367  2.2921
31186SOL    HW2  799   4.979   1.465   5.075 -0.1192 -1.2910  2.1381
31187SOL     OW  800   0.145   1.445  12.677  0.4256  0.3277 -0.5511
31187SOL    HW1  801   0.188   1.416  12.596  1.5610  0.7200 -0.1161
31187SOL    HW2  802   0.101   1.366  12.709 -0.1354  0.1944 -1.5948
31188SOL     OW  803   9.533   4.382   7.120  0.1255 -0.0116 -0.6601
31188SOL    HW1  804   9.488   4.303   7.150  0.3979 -0.0218 -0.2606
31188SOL    HW2  805   9.565   4.423   7.201 -0.2026  0.6242 -0.8448
31189SOL     OW  806   3.924  10.678   3.272 -0.4904 -0.1285  0.3037
31189SOL    HW1  807   3.979  10.603   3.251  0.3666  0.3850  0.6850
31189SOL    HW2  808   3.908  10.670   3.367  1.5020  1.3857  0.8226
31190SOL     OW  809   3.413   8.328   1.208  0.1926 -0.0746  0.2954
31190SOL    HW1  810   3.350   8.352   1.140  1.2115  1.5119 -0.1652
31190SOL    HW2  811   3.374   8.360   1.289 -0.3020 -0.5117  0.2289
31191SOL     OW  812   6.261   2.160   2.788 -0.0295  0.2870 -0.3501
31191SOL    HW1  813   6.262   2.164   2.692 -1.0014 -1.0626 -0.4428
31191SOL    HW2  814   6.208   2.235   2.814  0.3914  0.7694 -0.8534
31192SOL     OW  815   0.332  11.571   8.337 -0.9438 -0.6243  0.6936
31192SOL    HW1  816   0.297  11.624   8.265  0.6042  0.1164  0.4509
31192SOL    HW2  817   0.344  11.633   8.408  0.3809 -0.7348  0.5864
31193SOL     OW  818   3.281  12.023   2.298  0.2034 -0.4281  0.3311
31193SOL    HW1  819   3.365  11.981   2.318  0.1938 -0.7265 -0.2260
31193SOL    HW2  820   3.262  11.996   2.208 -0.5150 -0.4034  0.4707
31194SOL     OW  821   0.718   0.702   7.105 -0.1309  0.1193  0.4257
31194SOL    HW1  822   0.721   0.607   7.095 -0.2401  0.2339 -0.8980
31194SOL    HW2  823   0.802   0.725   7.146  0.6538 -0.3838 -0.8480
31195SOL     OW  824   6.780  10.526   5.404 -0.9719 -0.3826  0.0204
31195SOL    HW1  825   6.868  10.556   5.426 -1.6544  0.5914  1.5789
31195SOL    HW2  826   6.759  10.572   5.323 -0.4485  0.1752  0.1905
31196SOL     OW  827  10.847   2.695  12.142 -0.3123 -0.3921 -0.1551
31196SOL    HW1  828  10.906   2.684  12.067 -1.4601 -1.8527 -0.9136
31196SOL    HW2  829  10.899   2.670  12.218  0.9969  1.4971 -0.3755
31197SOL     OW  830   3.783   7.418   4.239  0.5084  0.2042 -0.1979
31197SOL    HW1  831   3.707   7.469   4.270 -0.7880 -1.5671 -0.3318
31197SOL    HW2  832   3.839   7.410   4.316 -0.4882 -0.2949  0.4927
31198SOL     OW  833   1.043   5.074   2.609 -0.1026 -0.1979 -0.4589
31198SOL    HW1  834   1.069   5.167   2.608 -0.5381 -0.0646  0.1738
31198SOL    HW2  835   1.101   5.033   2.545  1.1660  0.2338  0.3724
31199SOL     OW  836   4.771   0.583  10.862  0.3433 -0.2734 -0.0332
31199SOL    HW1  837   4.817   0.561  10.944 -2.2867 -0.6358  1.4561
31199SOL    HW2  838   4.748   0.498  10.825 -2.3677 -0.2235  1.2799
31200SOL     OW  839  11.523   9.703   0.943  0.0581  0.9890  0.3682
31200SOL    HW1  840  11.527   9.654   0.861  0.6765  0.6872  0.5695
31200SOL    HW2  841  11.461   9.774   0.926 -0.2509  0.5963 -0.1753
31201SOL     OW  842   7.775  11.140   7.466  0.4049 -0.1611 -0.2729
31201SOL    HW1  843   7.715  11.152   7.392 -0.8988 -0.0356  0.7741
31201SOL    HW2  844   7.778  11.225   7.508  0.4295 -0.4647  0.3443
31202SOL     OW  845   1.571   3.287   4.899 -0.2917 -0.6018 -0.0619
31202SOL    HW1  846   1.623   3.339   4.960 -1.3223  1.0287 -0.5004
31202SOL    HW2  847   1.568   3.200   4.939 -3.0998  0.9195  3.7838
31203SOL     OW  848   0.677  11.791   1.996  0.0581  0.0513 -0.4298
31203SOL    HW1  849   0.740  11.796   1.924  2.1823 -0.8439  1.2670
31203SOL    HW2  850   0.698  11.865   2.052 -0.6214 -0.0746  0.0062
31204SOL     OW  851   3.628   0.387   4.018  0.7225  0.0556  0.0093
31204SOL    HW1  852   3.696   0.336   3.974  0.1966 -0.6286 -0.0168
31204SOL    HW2  853   3.615   0.343   4.102  0.0479 -0.0398 -0.1405
31205SOL     OW  854   5.428   7.050  12.601  0.5351  0.0307 -0.4001
31205SOL    HW1  855   5.400   7.098  12.680 -0.3932 -0.4557 -0.4257
31205SOL    HW2  856   5.449   7.119  12.538 -3.1228  0.5024 -1.2743
31206SOL     OW  857   6.584   5.333   2.401  0.2171  0.2720  0.3439
31206SOL    HW1  858   6.591   5.404   2.337  0.4814 -0.6574 -0.6891
31206SOL    HW2  859   6.521   5.273   2.362 -0.6193  0.3118  1.5877
31207SOL     OW  860  10.662   5.463   0.819 -0.1804 -0.3494 -0.6317
31207SOL    HW1  861  10.669   5.510   0.736  0.5618  2.8076  1.0804
31207SOL    HW2  862  10.616   5.523   0.878 -0.7650 -2.4951  1.2790
31208SOL     OW  863   8.601  10.058   9.751 -0.0826 -0.6801 -0.8767
31208SOL    HW1  864   8.630  10.081   9.663  1.6918  1.8831  0.2441
31208SOL    HW2  865   8.506  10.069   9.748  0.1329  1.4750 -2.0139
31209SOL     OW  866   0.154   8.387   7.700 -0.2771 -0.3293 -0.4806
31209SOL    HW1  867   0.231   8.335   7.725 -0.8244 -0.6680  0.5797
31209SOL    HW2  868   0.085   8.355   7.758 -1.2523 -0.1168 -1.5058
31210SOL     OW  869   6.235   4.281   9.535 -0.3374 -0.2427  0.1380
31210SOL    HW1  870   6.323   4.270   9.500 -0.3875  1.7488 -0.7727
31210SOL    HW2  871   6.190   4.335   9.469 -1.7436  0.0942  1.3242
31211SOL     OW  872   5.173   9.972  11.349 -0.1152  0.0941  0.2333
31211SOL    HW1  873   5.248   9.976  11.290  0.2075 -2.6741  0.3300
31211SOL    HW2  874   5.103   9.935  11.296 -0.4186 -0.5258  1.0592
31212SOL     OW  875   6.319   0.818   4.277 -0.3136  0.1183  0.0992
31212SOL    HW1  876   6.372   0.863   4.212 -1.3403 -0.9897 -1.5786
31212SOL    HW2  877   6.371   0.743   4.304 -0.3875 -0.1177 -0.4048
31213SOL     OW  878   8.880   9.102   2.173  0.5304  0.5770 -0.1045
31213SOL    HW1  879   8.904   9.193   2.158  0.4441  0.6206  0.0247
31213SOL    HW2  880   8.938   9.052   2.116 -0.6602  0.8088 -1.5996
31214SOL     OW  881   5.718  11.762   8.736 -0.2785  0.6068 -0.1182
31214SOL    HW1  882   5.685  11.702   8.802  0.7019  0.0241 -0.1250
31214SOL    HW2  883   5.702  11.718   8.652  0.8291  0.1307 -0.0995
31215SOL     OW  884  12.127   6.774   2.226 -0.3377 -0.2216  0.1083
31215SOL    HW1  885  12.073   6.698   2.247 -0.0870 -0.1541  1.0562
31215SOL    HW2  886  12.074   6.849   2.252 -0.2924 -0.1054 -0.1370
31216SOL     OW  887   7.022   0.381   9.886 -0.2323 -0.0392  0.0179
31216SOL    HW1  888   7.035   0.375   9.981 -2.0978  1.3222  0.4267
31216SOL    HW2  889   6.951   0.320   9.867 -0.6321  0.5069 -0.2899
31217SOL     OW  890   1.983   9.352  12.623  0.3382  0.1828  0.2561
31217SOL    HW1  891   2.027   9.324  12.703 -0.6701  0.2709  0.8594
31217SOL    HW2  892   1.948   9.439  12.643 -0.5802 -0.1067  0.0020
31218SOL     OW  893   6.618   7.805   1.756 -0.5325 -0.7395 -0.0839
31218SOL    HW1  894   6.683   7.747   1.717 -0.7896 -2.0208  1.2952
31218SOL    HW2  895   6.658   7.892   1.755 -0.0282 -0.9710 -1.9401
31219SOL     OW  896   7.985   3.791   0.330  0.0550 -0.1757 -0.2500
31219SOL    HW1  897   8.051   3.815   0.265 -0.6460 -0.6049 -1.1515
31219SOL    HW2  898   7.942   3.874   0.352 -0.3838 -0.1486 -1.1318
31220SOL     OW  899   7.468  10.106   2.299 -0.2682 -0.9813 -0.3246
31220SOL    HW1  900   7.483  10.172   2.367 -1.0270 -2.2352  1.1132
31220SOL    HW2  901   7.413  10.150   2.235 -0.1006  0.0285  0.2006
31221SOL     OW  902   1.905   6.820   2.790 -0.2835 -0.1365  0.4323
31221SOL    HW1  903   1.968   6.892   2.786 -0.7183  0.2025 -0.7668
31221SOL    HW2  904   1.931   6.762   2.719 -1.6107  0.2758 -0.4343
31222SOL     OW  905   0.356  12.569  10.104  0.3883  0.1667 -0.1019
31222SOL    HW1  906   0.370  12.486  10.060 -1.0710 -0.5378  0.6916
31222SOL    HW2  907   0.383  12.554  10.194 -0.4583  0.3479  0.1912
31223SOL     OW  908   7.490   7.179  10.729  0.0217  0.1166  0.6300
31223SOL    HW1  909   7.478   7.178  10.824  1.1512 -1.5876  0.8027
31223SOL    HW2  910   7.483   7.087  10.704  0.5664  0.4547 -0.8361
31224SOL     OW  911  11.606   5.099   4.626  0.1737 -0.0159 -0.0642
31224SOL    HW1  912  11.562   5.072   4.546  0.9624  0.2550 -0.5985
31224SOL    HW2  913  11.613   5.194   4.619 -0.1590  0.0575  0.5439
31225SOL     OW  914   1.020   5.751   7.035  0.3989 -0.0275 -0.3839
31225SOL    HW1  915   1.016   5.665   6.994 -0.8594 -1.1921  1.9457
31225SOL    HW2  916   1.086   5.799   6.986  1.4753 -2.4757 -1.4686
31226SOL     OW  917  11.476   7.462   2.434 -0.4606 -0.3953 -0.8144
31226SOL    HW1  918  11.442   7.483   2.347  0.6203 -0.9081 -1.3755
31226SOL    HW2  919  11.541   7.394   2.419 -1.4671 -1.7257  0.5974
31227SOL     OW  920   7.938   3.545   0.831  0.4066 -0.1452  0.5435
31227SOL    HW1  921   7.997   3.611   0.865 -0.3759  0.8220  0.0842
31227SOL    HW2  922   7.856   3.560   0.878  0.5738 -1.6223  1.3510
31228SOL     OW  923   8.395   6.974   2.762  0.1599 -0.4352 -0.1723
31228SOL    HW1  924   8.475   6.924   2.743 -0.0190 -0.9658  0.4207
31228SOL    HW2  925   8.324   6.919   2.730  0.0264  0.0188 -0.6621
31229SOL     OW  926   1.490   4.160   7.158  0.3333 -0.0413 -0.4943
31229SOL    HW1  927   1.481   4.078   7.206  0.2099  0.3661  0.1951
31229SOL    HW2  928   1.450   4.226   7.215  1.2435  0.6469 -0.6320
31230SOL     OW  929  12.377  11.796   9.272 -0.3080 -0.1752  0.4412
31230SOL    HW1  930  12.373  11.718   9.217  0.0455  0.0100  0.1445
31230SOL    HW2  931  12.385  11.869   9.209  0.2106  0.0322  0.7355
31231SOL     OW  932  10.008   3.577   0.058  0.0340  0.1653  0.1499
31231SOL    HW1  933   9.980   3.624  -0.020 -2.1706  1.1223  1.4245
31231SOL    HW2  934   9.933   3.523   0.082  1.2559 -1.3536  0.7269
31232SOL     OW  935   4.458  10.153   9.338  0.0818 -0.3414  0.1177
31232SOL    HW1  936   4.514  10.139   9.261  1.6567  0.1559  1.1387
31232SOL    HW2  937   4.518  10.182   9.407 -1.5182  0.7697  1.1068
31233SOL     OW  938   1.928   4.896   1.082 -0.2631  0.0556  0.2349
31233SOL    HW1  939   1.956   4.808   1.107  0.5449  0.0808 -0.5334
31233SOL    HW2  940   2.004   4.935   1.040 -0.5921  1.1559  0.6265
31234SOL     OW  941   6.672   0.836   9.794 -0.3494 -0.6150 -0.2508
31234SOL    HW1  942   6.582   0.807   9.813 -0.3250 -0.1398  0.6577
31234SOL    HW2  943   6.716   0.758   9.762 -0.9112 -1.0120 -0.0787
31235SOL     OW  944   3.164   2.576   7.818  0.1334  0.5230  0.3299
31235SOL    HW1  945   3.118   2.586   7.735 -0.2942 -2.1524  0.1581
31235SOL    HW2  946   3.257   2.580   7.794  0.0536 -1.6479 -0.5927
31236SOL     OW  947  12.709   6.245   2.898 -0.5734 -0.1113  0.3949
31236SOL    HW1  948  12.767   6.304   2.849 -0.9735 -0.0266  0.0228
31236SOL    HW2  949  12.669   6.301   2.965 -0.9718  0.0541  0.0262
31237SOL     OW  950   3.247   2.373  11.082  0.1260 -0.3167 -0.1175
31237SOL    HW1  951   3.272   2.297  11.030  0.9451  0.1474 -0.4188
31237SOL    HW2  952   3.314   2.379  11.149  0.4613  0.5367 -0.5134
31238SOL     OW  953   2.272  11.635   9.375  0.0091 -0.7093 -0.2160
31238SOL    HW1  954   2.349  11.615   9.429  0.4910  2.2161  0.3267
31238SOL    HW2  955   2.307  11.680   9.298 -1.0826  0.0215 -0.3135
31239SOL     OW  956   8.598   0.840   0.150  0.1650  0.3252  0.8218
31239SOL    HW1  957   8.691   0.857   0.141 -0.3907  2.6836 -1.9119
31239SOL    HW2  958   8.580   0.767   0.090  0.0176  1.0801 -0.0786
31240SOL     OW  959  11.971   7.267   1.954  0.1100 -0.2477  0.1496
31240SOL    HW1  960  12.041   7.278   1.890 -0.2095  0.4547 -0.0926
31240SOL    HW2  961  12.016   7.253   2.038  0.6276  2.9359  0.5192
31241SOL     OW  962  10.150   7.881   8.070  0.0307 -0.4012 -0.3413
31241SOL    HW1  963  10.182   7.908   8.156 -0.6439 -2.0135  0.4451
31241SOL    HW2  964  10.229   7.882   8.015  0.5186  0.3911  0.3294
31242SOL     OW  965  11.159  12.661   6.377 -0.0337 -0.5699  0.3901
31242SOL    HW1  966  11.221  12.657   6.304  0.0142 -0.6156  0.4336
31242SOL    HW2  967  11.213  12.671   6.455 -0.0341 -1.3491  0.5023
31243SOL     OW  968  11.436   1.819   7.951  0.3250 -0.1455  0.3657
31243SOL    HW1  969  11.456   1.821   7.857 -0.2438  1.0664  0.2584
31243SOL    HW2  970  11.394   1.733   7.964  0.5433 -0.3884 -0.4525
31244SOL     OW  971  10.165  12.633  11.967  0.2660  0.4918 -0.0387
31244SOL    HW1  972  10.256  12.603  11.964  0.3354  0.7388 -0.5392
31244SOL    HW2  973  10.172  12.729  11.972  0.0362  0.4953  0.2280
31245SOL     OW  974  10.492   8.562   0.267 -0.1870  0.0150 -0.5882
31245SOL    HW1  975  10.561   8.522   0.214  1.6589 -0.3228  1.8576
31245SOL    HW2  976  10.458   8.634   0.213 -0.2872 -1.8223 -3.1870
31246SOL     OW  977   4.149   3.156  10.824  0.0209 -0.7829  0.2528
31246SOL    HW1  978   4.153   3.066  10.791 -0.0721 -0.7025  0.0212
31246SOL    HW2  979   4.059   3.184  10.808  0.4698 -0.0865 -1.1792
31247SOL     OW  980   3.176   5.208   2.170 -0.5016 -0.0505 -0.4236
31247SOL    HW1  981   3.095   5.237   2.128  0.3614  1.4544 -1.1320
31247SOL    HW2  982   3.166   5.113   2.179 -1.4976 -0.1798 -2.3789
31248SOL     OW  983  11.866   0.096   9.168  0.3713 -0.2825  0.0544
31248SOL    HW1  984  11.937   0.094   9.104  1.8510 -0.0156  1.6082
31248SOL    HW2  985  11.788   0.119   9.117  0.6257 -3.9135 -2.3482
31249SOL     OW  986   8.967   0.302   9.560 -0.2419 -0.0987 -0.1811
31249SOL    HW1  987   9.030   0.341   9.620 -1.6339  0.6397  0.8468
31249SOL    HW2  988   9.019   0.276   9.484  1.3621  0.0498  0.8239
31250SOL     OW  989   0.619   3.632   3.230  0.2347 -0.4163 -0.6172
31250SOL    HW1  990   0.704   3.635   3.274 -0.5003  2.8653  0.8184
31250SOL    HW2  991   0.563   3.581   3.288  0.4264  0.0752  0.0027
31251SOL     OW  992   5.944   8.823   9.836 -0.4770  0.1091 -0.0581
31251SOL    HW1  993   5.894   8.847   9.914 -0.2041 -0.9762  0.4631
31251SOL    HW2  994   5.894   8.750   9.798 -0.6780  0.7077 -0.9809
31252SOL     OW  995  12.452   0.707  11.787 -0.1923  0.3162 -0.2454
31252SOL    HW1  996  12.391   0.637  11.811  0.8893 -0.4136  0.4249
31252SOL    HW2  997  12.525   0.662  11.744  0.6198  1.0058  0.3764
31253SOL     OW  998   1.546   6.021   2.872  0.4444  0.0029 -0.1092
31253SOL    HW1  999   1.502   6.022   2.787  0.9474  0.3423 -0.3724
31253SOL    HW2 1000   1.558   5.928   2.891 -0.7387 -0.1070  0.1626
31254SOL     OW 1001  11.411   9.269   0.896  0.4079  0.2820  0.0137
31254SOL    HW1 1002  11.338   9.310   0.944 -0.2800  0.5417 -1.1976
31254SOL    HW2 1003  11.407   9.309   0.809  1.5981 -0.1987 -0.2729
31255SOL     OW 1004   1.267   5.203   1.091 -0.0796 -0.8075  0.0878
31255SOL    HW1 1005   1.306   5.264   1.028  0.2673 -1.5691 -0.4557
31255SOL    HW2 1006   1.329   5.130   1.094  0.0289 -0.6866  1.4932
31256SOL     OW 1007   0.346   5.099   0.522 -0.1835 -0.1664  0.0169
31256SOL    HW1 1008   0.308   5.073   0.438  0.2828 -0.0961 -0.2181
31256SOL    HW2 1009   0.423   5.150   0.499 -0.7033  0.8567  0.4774
31257SOL     OW 1010  11.177   3.833   5.914  0.7318 -0.1361 -0.0464
31257SOL    HW1 1011  11.171   3.844   5.819  1.6577  2.0785  0.0992
31257SOL    HW2 1012  11.122   3.757   5.932 -0.9176  0.4525 -2.1320
31258SOL     OW 1013   3.877   0.521   8.128  0.5877 -0.8282  0.2256
31258SOL    HW1 1014   3.846   0.609   8.151 -0.3498 -1.0641 -0.0779
31258SOL    HW2 1015   3.819   0.462   8.176  0.8002 -1.2887 -0.0759
31259SOL     OW 1016   5.937  11.130   8.213  0.6163  0.0767  0.1984
31259SOL    HW1 1017   5.987  11.049   8.208  2.7654  1.3454 -0.1892
31259SOL    HW2 1018   5.979  11.181   8.282  1.8684  2.4060 -2.0926
31260SOL     OW 1019   9.412   7.366   7.096  0.0328 -0.3541  0.6181
31260SOL    HW1 1020   9.351   7.376   7.169  1.3573 -2.2074  2.1078
31260SOL    HW2 1021   9.497   7.351   7.139  0.6938 -2.5634 -1.2318
31261SOL     OW 1022   2.806   6.624   8.729 -0.2895 -0.1443  0.0035
31261SOL    HW1 1023   2.804   6.697   8.667 -0.4691 -1.9512 -2.2593
31261SOL    HW2 1024   2.725   6.633   8.779 -0.7426  0.7051 -0.8477
31262SOL     OW 1025   5.512   9.755   8.163  0.2539  0.6602  0.4260
31262SOL    HW1 1026   5.466   9.783   8.084 -0.2801 -0.0266  0.4802
31262SOL    HW2 1027   5.443   9.723   8.221  0.8249 -0.9392  0.2874
31263SOL     OW 1028   3.219   1.506   9.638  0.1398 -0.2621  0.2551
31263SOL    HW1 1029   3.160   1.437   9.668 -0.4187 -0.9778 -2.2688
31263SOL    HW2 1030   3.198   1.517   9.545  3.0016  0.4799 -0.4013
31264SOL     OW 1031  12.252  11.797  11.781 -0.0473 -0.4928  1.0442
31264SOL    HW1 1032  12.190  11.815  11.710  0.1146  0.3914  1.1083
31264SOL    HW2 1033  12.337  11.794  11.738  0.0659  0.1705  1.2039
31265SOL     OW 1034   1.916   2.096   1.670  0.3445 -0.1178 -0.1902
31265SOL    HW1 1035   1.921   2.041   1.592 -0.1983 -0.0249 -0.2995
31265SOL    HW2 1036   1.832   2.141   1.662 -0.6325 -1.5402  1.3838
31266SOL     OW 1037   2.974  11.504   2.214 -0.2145 -0.2560  0.1032
31266SOL    HW1 1038   2.937  11.580   2.169 -0.0871  0.2948  0.9217
31266SOL    HW2 1039   3.064  11.498   2.181 -0.0143  0.3511  0.5386
31267SOL     OW 1040   8.214   9.697   6.772  0.9086 -0.7377 -0.1038
31267SOL    HW1 1041   8.211   9.665   6.862  0.4944  2.3722  1.1284
31267SOL    HW2 1042   8.143   9.650   6.727 -1.7050  0.5344  2.3652
31268SOL     OW 1043   7.366   7.339   0.410 -0.3995  0.0361 -0.0469
31268SOL    HW1 1044   7.322   7.410   0.362  1.3656 -1.1254 -3.7720
31268SOL    HW2 1045   7.456   7.370   0.422  0.8290 -1.9141 -3.0810
31269SOL     OW 1046   4.737  11.228   7.540  0.0139 -0.7053  0.3221
31269SOL    HW1 1047   4.821  11.183   7.528 -0.3113 -1.5282  0.9723
31269SOL    HW2 1048   4.710  11.203   7.629 -1.0510 -0.6843  0.0176
31270SOL     OW 1049   9.190   0.722   6.766 -0.0360  0.3706 -0.0945
31270SOL    HW1 1050   9.199   0.627   6.764  1.0937  0.4383  0.9109
31270SOL    HW2 1051   9.278   0.754   6.780 -0.1021  1.6729 -2.1342
31271SOL     OW 1052   5.067   6.393   4.598 -0.2064 -0.2184  0.0873
31271SOL    HW1 1053   5.109   6.459   4.543 -1.6714 -0.1360 -0.9923
31271SOL    HW2 1054   5.116   6.313   4.582  0.9864  0.3726  0.6748
31272SOL     OW 1055   5.563  10.172   1.106  0.0036 -0.3400  0.1975
31272SOL    HW1 1056   5.624  10.132   1.044  0.2567 -1.4363  1.1098
31272SOL    HW2 1057   5.594  10.144   1.192  0.0031  1.6118  0.8858
31273SOL     OW 1058   1.432   6.796   6.747  0.0815  0.4519 -0.5497
31273SOL    HW1 1059   1.474   6.807   6.832  0.5266  1.0328 -0.8361
31273SOL    HW2 1060   1.389   6.711   6.752  0.6466  0.1946  0.0238
31274SOL     OW 1061   2.643   1.764  12.687 -0.2081  0.7780 -0.2260
31274SOL    HW1 1062   2.719   1.800  12.732 -0.3819 -1.5041  2.0969
31274SOL    HW2 1063   2.570   1.820  12.713  0.2036  1.2575 -0.1081
31275SOL     OW 1064  11.380   1.461  10.343 -0.0993 -0.2334  0.1509
31275SOL    HW1 1065  11.435   1.398  10.391 -3.4787 -2.7134  1.2064
31275SOL    HW2 1066  11.357   1.416  10.262 -1.0813  0.4292  0.0451
31276SOL     OW 1067   2.531   0.301   3.414 -0.7299  0.1495  0.4119
31276SOL    HW1 1068   2.587   0.378   3.418 -2.6160  1.6287 -0.1221
31276SOL    HW2 1069   2.591   0.228   3.398  0.9129  1.8420 -1.7535
31277SOL     OW 1070   1.948   8.286   1.919  0.4109 -0.0179 -0.1694
31277SOL    HW1 1071   1.916   8.296   1.829 -2.5178 -0.6697  0.7040
31277SOL    HW2 1072   1.991   8.201   1.920 -0.3470 -0.4175 -0.7395
31278SOL     OW 1073   4.361   8.476   1.122 -0.4848 -0.4525  0.6982
31278SOL    HW1 1074   4.416   8.495   1.046 -0.6479 -0.9284  0.4584
31278SOL    HW2 1075   4.344   8.382   1.117  0.0975 -0.6346  1.7187
31279SOL     OW 1076   4.590   5.191   2.829 -0.3105 -0.5812  0.2050
31279SOL    HW1 1077   4.685   5.191   2.830 -0.2586 -0.7000 -1.7035
31279SOL    HW2 1078   4.566   5.276   2.794 -0.8432 -1.0616 -0.6458
31280SOL     OW 1079  10.911  11.627   9.801  0.1770 -0.0004 -0.0285
31280SOL    HW1 1080  10.852  11.556   9.775  0.0793 -0.7219  1.9552
31280SOL    HW2 1081  10.896  11.696   9.737 -1.2481 -0.9930 -0.8162
31281SOL     OW 1082   0.987  12.280   4.838  0.5253 -0.4218  0.2053
31281SOL    HW1 1083   0.966  12.198   4.794  2.1646 -0.5244 -0.4757
31281SOL    HW2 1084   1.059  12.317   4.787 -0.3930  1.6375  0.2852
31282SOL     OW 1085   3.687   7.020   8.769 -0.2373 -0.3888  0.0203
31282SOL    HW1 1086   3.613   7.039   8.827  0.0102 -0.3276  0.3161
31282SOL    HW2 1087   3.734   6.949   8.812  0.3302  0.1081  0.2472
31283SOL     OW 1088   0.604   2.087   1.654 -0.5085  0.1109 -0.6089
31283SOL    HW1 1089   0.636   2.089   1.564 -1.6175  0.2452 -1.0194
31283SOL    HW2 1090   0.587   2.179   1.676 -0.7533  0.0315 -0.4581
31284SOL     OW 1091  11.364   7.415   6.117  0.6721  0.1063 -0.0227
31284SOL    HW1 1092  11.303   7.347   6.145  1.0694 -0.1454  0.2543
31284SOL    HW2 1093  11.450   7.371   6.116  0.9717  0.6698  0.4317
31285SOL     OW 1094  10.628   9.914   8.126  1.0150 -0.0843 -0.9474
31285SOL    HW1 1095  10.608   9.914   8.032  1.3487 -1.8693 -1.0385
31285SOL    HW2 1096  10.666   9.828   8.143  1.2049  0.3081  0.7837
31286SOL     OW 1097   9.587   4.992   7.740 -0.7792  0.6419 -0.3143
31286SOL    HW1 1098   9.576   5.086   7.724  0.0251  0.4560 -2.1940
31286SOL    HW2 1099   9.680   4.976   7.724 -0.5778 -0.2413  1.4807
31287SOL     OW 1100   4.336   3.574   2.465 -0.0559  0.2842 -0.1115
31287SOL    HW1 1101   4.340   3.653   2.411 -2.3142  0.6984  0.2380
31287SOL    HW2 1102   4.323   3.606   2.554 -1.3923 -0.4369 -0.0129
31288SOL     OW 1103   3.915   0.713  10.323 -0.4115 -0.2973 -0.1860
31288SOL    HW1 1104   3.839   0.728  10.380  0.4685  0.4099  0.8287
31288SOL    HW2 1105   3.909   0.783  10.258 -0.6336 -0.2525 -0.1203
31289SOL     OW 1106   4.935   7.732   9.075  0.3080  0.0341 -0.4063
31289SOL    HW1 1107   4.894   7.818   9.092 -1.1227 -0.4555 -1.1788
31289SOL    HW2 1108   4.896   7.674   9.141  0.3102 -0.2816 -0.6803
31290SOL     OW 1109   1.793   1.030   0.981 -0.1377  0.3714 -0.4550
31290SOL    HW1 1110   1.812   1.045   1.073 -1.5664 -1.3588  0.1968
31290SOL    HW2 1111   1.870   0.985   0.947  1.0549  2.4026 -0.5585
31291SOL     OW 1112   1.585   7.074  12.111  0.2074  0.2124 -0.5331
31291SOL    HW1 1113   1.648   7.009  12.143  1.1846  0.9036 -0.9986
31291SOL    HW2 1114   1.572   7.133  12.184 -1.3412 -0.9463  0.1820
31292SOL     OW 1115   8.616   5.179  10.760  0.3783  0.8048 -0.8810
31292SOL    HW1 1116   8.580   5.209  10.843  0.1204 -1.3848 -0.1440
31292SOL    HW2 1117   8.624   5.259  10.707 -0.6032  2.0723  0.7858
31293SOL     OW 1118   8.686   6.594   9.864 -0.0501 -0.8382  0.2291
31293SOL    HW1 1119   8.776   6.620   9.885 -0.4979  0.4596  0.6168
31293SOL    HW2 1120   8.696   6.531   9.792  1.1120  0.3514 -0.7088
31294SOL     OW 1121   6.577   7.642   5.587  0.6196 -0.4492 -0.2050
31294SOL    HW1 1122   6.645   7.706   5.565 -0.0771  0.1386 -0.7086
31294SOL    HW2 1123   6.496   7.694   5.594  0.0708 -1.2453 -0.4421
31295SOL     OW 1124   7.015   2.879   5.411 -0.5353  0.0887 -0.2140
31295SOL    HW1 1125   6.980   2.859   5.498 -1.4251  0.4454 -0.4885
31295SOL    HW2 1126   6.990   2.970   5.394 -1.8860 -0.4749 -1.5423
31296SOL     OW 1127   5.793  12.200   4.280  0.5891  0.0379  0.2350
31296SOL    HW1 1128   5.775  12.294   4.275 -1.5820 -0.1849  2.0686
31296SOL    HW2 1129   5.823  12.177   4.192 -4.9740  1.3165 -2.4479
31297SOL     OW 1130   7.954   1.508  11.182 -0.7773  0.3826  0.1588
31297SOL    HW1 1131   8.008   1.540  11.110 -0.0773  1.9638  1.3274
31297SOL    HW2 1132   7.868   1.547  11.165 -1.3752 -1.3988 -1.2061
31298SOL     OW 1133   8.880  11.081   3.902  0.4509  0.6734  0.1426
31298SOL    HW1 1134   8.970  11.078   3.869  0.0667  1.9031 -1.1275
31298SOL    HW2 1135   8.855  11.173   3.895 -1.5838  0.0658 -1.5530
31299SOL     OW 1136   5.705   6.248   0.343  0.2756 -0.9055 -0.3695
31299SOL    HW1 1137   5.705   6.153   0.358  0.7480 -0.9479 -0.6308
31299SOL    HW2 1138   5.762   6.283   0.411  0.0516 -0.7993 -0.2344
31300SOL     OW 1139   4.284  10.858  11.615 -0.6162 -0.3567 -0.5348
31300SOL    HW1 1140   4.292  10.926  11.682 -1.1340 -0.3509 -0.4745
31300SOL    HW2 1141   4.302  10.777  11.662  1.2739 -0.1727 -0.8715
31301SOL     OW 1142   3.419   2.094   0.581  0.9099  0.2843  0.1517
31301SOL    HW1 1143   3.450   2.163   0.522  0.7515 -0.5921 -0.9964
31301SOL    HW2 1144   3.481   2.094   0.653  1.5132  0.9389 -0.3568
31302SOL     OW 1145   0.594   5.668   3.621 -0.2739  0.1262 -0.6410
31302SOL    HW1 1146   0.565   5.710   3.702 -1.4435 -0.5845 -0.6634
31302SOL    HW2 1147   0.513   5.642   3.577  0.3591  0.1695 -1.8637
31303SOL     OW 1148   8.957  10.328   2.432  0.0655  0.7072 -0.1059
31303SOL    HW1 1149   9.025  10.382   2.472 -0.7852  0.3626  1.9036
31303SOL    HW2 1150   8.881  10.386   2.425  0.0102  0.5780 -0.6701
31304SOL     OW 1151   2.645   4.918   5.633  0.0332 -0.0133 -0.2213
31304SOL    HW1 1152   2.637   5.006   5.596 -1.4871  0.2041  0.5239
31304SOL    HW2 1153   2.739   4.905   5.644  0.2560  2.0269  0.7696
31305SOL     OW 1154   7.207   9.901   2.969  0.2081 -0.0948  0.0942
31305SOL    HW1 1155   7.142   9.869   3.032 -0.4878 -0.8721 -0.9953
31305SOL    HW2 1156   7.227   9.989   2.999 -1.8243  0.4149  0.1175
31306SOL     OW 1157   4.186   7.629   9.235  0.0078 -0.4881  0.4996
31306SOL    HW1 1158   4.127   7.690   9.279 -1.2343 -1.4821  0.2877
31306SOL    HW2 1159   4.158   7.543   9.266  0.5350 -1.0629 -0.5569
31307SOL     OW 1160   9.173   4.224   9.373 -0.0999 -0.7414  0.4409
31307SOL    HW1 1161   9.242   4.273   9.329 -0.4561 -1.2219 -0.6809
31307SOL    HW2 1162   9.130   4.288   9.430 -0.4279  0.2265 -0.8441
31308SOL     OW 1163   2.039   3.907   9.762 -0.3708 -0.3017  0.2924
31308SOL    HW1 1164   1.998   3.957   9.832  1.9413  0.6676  1.0360
31308SOL    HW2 1165   2.113   3.863   9.804  0.0058 -1.1467 -1.1919
31309SOL     OW 1166   7.112  11.067   9.929 -0.1384  0.4397 -0.2435
31309SOL    HW1 1167   7.072  11.146   9.963  1.0480  1.3707 -0.9332
31309SOL    HW2 1168   7.107  11.004  10.001 -0.7213  1.2712  0.4512
31310SOL     OW 1169  10.287   5.027   7.595 -0.2453 -0.0633 -0.2289
31310SOL    HW1 1170  10.318   4.966   7.662 -1.1507 -1.0796 -0.6951
31310SOL    HW2 1171  10.207   5.065   7.633 -0.0047  0.4039 -0.1801
31311SOL     OW 1172  10.380  11.520   8.853  0.4669  0.1872  0.3821
31311SOL    HW1 1173  10.291  11.520   8.888 -0.0792  0.7892 -0.9637
31311SOL    HW2 1174  10.387  11.438   8.806  1.2379 -0.6696  1.9100
31312SOL     OW 1175   9.543   0.605  11.680 -0.1137 -0.1731 -0.3119
31312SOL    HW1 1176   9.623   0.562  11.649 -0.1957 -0.5753  0.0162
31312SOL    HW2 1177   9.531   0.679  11.621  0.3656 -0.2530 -0.5162
31313SOL     OW 1178   8.899   2.015  10.130  0.0632 -0.1239  1.0480
31313SOL    HW1 1179   8.908   2.110  10.122  0.3686 -0.1922  0.4997
31313SOL    HW2 1180   8.962   1.980  10.067 -0.1477 -0.6888  1.1449
31314SOL     OW 1181   0.252   7.922   7.119 -0.0966 -0.0847  1.0397
31314SOL    HW1 1182   0.324   7.887   7.068 -0.9583  2.2859 -2.1035
31314SOL    HW2 1183   0.285   8.004   7.155 -0.7381  0.2738  0.8348
31315SOL     OW 1184   9.439   6.139  11.472  0.5744 -0.1020 -0.0486
31315SOL    HW1 1185   9.439   6.124  11.377 -1.3667  0.7044 -0.2040
31315SOL    HW2 1186   9.521   6.185  11.488  0.9569 -0.2882 -1.3244
31316SOL     OW 1187  12.682   4.001   4.614 -0.3142 -0.0963  0.1169
31316SOL    HW1 1188  12.647   4.012   4.702  0.5644  0.0546  0.4592
31316SOL    HW2 1189  12.739   3.924   4.620 -1.6326 -1.1894 -0.7692
31317SOL     OW 1190   2.268   0.526   9.560 -0.2841 -0.0404  0.4354
31317SOL    HW1 1191   2.306   0.470   9.628 -0.0657  0.4584  0.7281
31317SOL    HW2 1192   2.335   0.592   9.544 -0.4915  0.0667  0.0008
31318SOL     OW 1193   9.509   1.502   0.785 -0.6390  0.4258  0.0353
31318SOL    HW1 1194   9.559   1.436   0.736  0.7364  1.6530 -0.2960
31318SOL    HW2 1195   9.570   1.531   0.853 -2.5142 -1.3014  2.6607
31319SOL     OW 1196   7.625   5.991  12.557  0.2909  0.1099 -0.3589
31319SOL    HW1 1197   7.638   6.043  12.636 -0.2069  0.3235 -0.4147
31319SOL    HW2 1198   7.660   5.905  12.578  2.1608  0.7527 -0.6349
31320SOL     OW 1199   8.052   0.071   6.727 -0.1835 -0.0226  0.1241
31320SOL    HW1 1200   7.994   0.122   6.670  0.7067  0.4797 -0.3615
31320SOL    HW2 1201   8.073   0.130   6.799  0.6295  0.2080 -0.2955
31321SOL     OW 1202   3.817   4.099   0.075 -0.4286 -0.5903  0.3544
31321SOL    HW1 1203   3.815   4.059   0.163  0.0808  0.2810  0.7718
31321SOL    HW2 1204   3.869   4.039   0.023  1.4327  0.1167  1.3034
31322SOL     OW 1205   5.505   3.152   0.941  0.3536  0.1144 -0.5602
31322SOL    HW1 1206   5.482   3.061   0.918  0.7088 -0.0845 -0.1398
31322SOL    HW2 1207   5.427   3.202   0.920 -0.3324 -0.4921  0.4891
31323SOL     OW 1208  12.000   6.649   0.802  0.4528 -0.3641 -0.0191
31323SOL    HW1 1209  11.980   6.735   0.837 -1.9458 -1.4013  1.4029
31323SOL    HW2 1210  12.057   6.609   0.868  1.1753 -0.0807 -0.4530
31324SOL     OW 1211  12.385   0.505   6.149  0.2860 -0.6653 -0.6550
31324SOL    HW1 1212  12.365   0.454   6.070  1.2673 -1.1612 -0.5981
31324SOL    HW2 1213  12.459   0.459   6.189 -1.5030 -1.6794  1.7287
31325SOL     OW 1214   9.950   6.175  10.041 -0.3859 -0.6982  0.3788
31325SOL    HW1 1215   9.906   6.248  10.084 -1.0995 -1.1188  0.3795
31325SOL    HW2 1216  10.014   6.144  10.105  0.1825  0.1519  0.2415
31326SOL     OW 1217   9.601   3.967   7.781  0.3162 -0.0677  0.0560
31326SOL    HW1 1218   9.506   3.979   7.779  0.1479 -0.9929  0.9860
31326SOL    HW2 1219   9.638   4.053   7.762 -0.7242  0.7216  1.4490
31327SOL     OW 1220   3.745   5.532   6.677 -0.4031  0.4726 -0.3703
31327SOL    HW1 1221   3.808   5.567   6.741 -0.8645 -0.0798  0.4038
31327SOL    HW2 1222   3.688   5.474   6.728 -0.7408 -0.0425 -1.3042
31328SOL     OW 1223  11.576   9.019   3.897 -0.3990 -0.0418 -0.1037
31328SOL    HW1 1224  11.663   9.000   3.864 -0.4505  0.2500 -0.4147
31328SOL    HW2 1225  11.538   8.933   3.917  1.0674 -0.1094  3.0058
31329SOL     OW 1226   3.729   2.354   9.793  0.0166  0.6417 -0.6342
31329SOL    HW1 1227   3.820   2.327   9.806 -0.6109 -0.9584  0.7201
31329SOL    HW2 1228   3.727   2.385   9.702  1.5653 -0.8512 -1.2486
31330SOL     OW 1229   7.900  10.891   4.982  0.1664  0.6595 -0.3911
31330SOL    HW1 1230   7.851  10.853   5.056 -0.0595 -0.2247 -0.9792
31330SOL    HW2 1231   7.991  10.867   4.999 -0.1006 -1.1679 -1.3233
31331SOL     OW 1232   9.157   9.641  12.688 -0.1294 -0.4702 -0.0482
31331SOL    HW1 1233   9.166   9.598  12.773 -1.6095 -0.0318  0.3619
31331SOL    HW2 1234   9.212   9.589  12.629  1.7292 -0.2010  1.3378
31332SOL     OW 1235   2.220   7.398   9.091  0.4110 -0.3214 -0.2385
31332SOL    HW1 1236   2.175   7.460   9.032 -0.2198 -0.6802 -0.1426
31332SOL    HW2 1237   2.160   7.389   9.165  0.2324 -1.4925 -0.5190
31333SOL     OW 1238   6.464   8.747  11.181 -0.2041  0.8232  0.5947
31333SOL    HW1 1239   6.527   8.688  11.139  0.9795  1.6399  1.1558
31333SOL    HW2 1240   6.451   8.817  11.116  1.1933  1.7921  1.2998
31334SOL     OW 1241   7.578  11.066  12.066 -1.0660  0.3144 -0.4291
31334SOL    HW1 1242   7.504  11.006  12.056 -2.1117  1.6003 -0.6338
31334SOL    HW2 1243   7.552  11.125  12.137  0.0679  0.3709 -0.0358
31335SOL     OW 1244   9.309   7.653   9.082  0.3305  0.3979 -1.1827
31335SOL    HW1 1245   9.246   7.725   9.081 -1.2799 -0.8758  0.3365
31335SOL    HW2 1246   9.278   7.593   9.015  1.4349  0.8879 -2.1676
31336SOL     OW 1247   8.759  12.515  12.217  0.2504 -0.2042  0.1914
31336SOL    HW1 1248   8.756  12.437  12.161  0.7210 -0.3885  0.4196
31336SOL    HW2 1249   8.753  12.588  12.155 -0.4871 -0.4189  0.0003
31337SOL     OW 1250   9.866  10.603  10.582  0.4539  0.0222 -0.6515
31337SOL    HW1 1251   9.862  10.587  10.487 -0.6861  0.4057 -0.6791
31337SOL    HW2 1252   9.942  10.659  10.593  0.6267 -0.0623 -1.3324
31338SOL     OW 1253  12.377   9.892   3.288  0.0659 -0.1366  0.4622
31338SOL    HW1 1254  12.356   9.813   3.336 -2.6111  0.5560  0.5705
31338SOL    HW2 1255  12.358   9.871   3.197 -0.0986  0.2056  0.4147
31339SOL     OW 1256   4.618   5.429   3.192 -0.2063 -0.5831  0.2405
31339SOL    HW1 1257   4.606   5.482   3.113  0.8578  1.0781  1.1361
31339SOL    HW2 1258   4.682   5.362   3.166 -0.4733 -0.5575 -0.5173
31340SOL     OW 1259  10.362   0.402  10.460 -0.5756  0.1349  0.2709
31340SOL    HW1 1260  10.354   0.442  10.547  0.5280 -1.8272  1.3206
31340SOL    HW2 1261  10.281   0.352  10.450 -1.5367  1.7789 -0.6587
31341SOL     OW 1262   6.117   4.828   1.131 -0.3080  0.2264  0.3447
31341SOL    HW1 1263   6.180   4.756   1.139  0.3164  0.8189  0.8196
31341SOL    HW2 1264   6.126   4.877   1.213 -0.1653  1.2904 -0.2892
31342SOL     OW 1265   8.315   1.984   0.391 -0.3229 -0.3373 -0.2669
31342SOL    HW1 1266   8.261   2.058   0.418 -0.2997 -0.5710  0.4327
31342SOL    HW2 1267   8.303   1.918   0.460 -0.8739 -1.2582 -1.2097
31343SOL     OW 1268   3.954   2.088  12.349  0.5942 -0.2138 -0.0235
31343SOL    HW1 1269   4.017   2.136  12.402 -0.6136  0.0233  1.2483
31343SOL    HW2 1270   3.872   2.135  12.360  0.3120 -0.0162 -2.3145
31344SOL     OW 1271   3.053   9.077   0.659  0.2418  0.4578  0.5282
31344SOL    HW1 1272   3.011   9.117   0.584  0.1762  2.0905  1.3812
31344SOL    HW2 1273   3.123   9.024   0.622 -0.6163  0.1642 -0.7343
31345SOL     OW 1274  10.591   1.552  11.671 -0.0405 -0.0427 -0.0921
31345SOL    HW1 1275  10.684   1.573  11.685  0.0574  0.5541 -1.4673
31345SOL    HW2 1276  10.544   1.609  11.731  0.4117  1.1812 -0.8616
31346SOL     OW 1277   7.293   7.115   2.029 -0.1191 -0.3005 -0.6952
31346SOL    HW1 1278   7.345   7.061   2.088  0.7168  0.8960 -0.3127
31346SOL    HW2 1279   7.332   7.101   1.943  0.3758  0.0250 -0.5263
31347SOL     OW 1280   3.833   4.449   2.705 -0.3968  0.5488  0.2930
31347SOL    HW1 1281   3.924   4.455   2.676 -0.5215 -0.5308 -0.3667
31347SOL    HW2 1282   3.836   4.475   2.797  0.6223  0.3108  0.3440
31348SOL     OW 1283   2.503   0.541   1.035  0.2338 -0.3622 -0.8830
31348SOL    HW1 1284   2.561   0.513   0.965 -0.2229  1.9041 -2.2711
31348SOL    HW2 1285   2.562   0.557   1.109  1.5983  2.4113 -2.4059
31349SOL     OW 1286   3.207  12.499   5.828  0.6403 -0.2918 -0.2938
31349SOL    HW1 1287   3.157  12.568   5.872 -0.3060 -1.0283 -0.1836
31349SOL    HW2 1288   3.243  12.542   5.750 -0.4916  0.1732 -0.5847
31350SOL     OW 1289  10.730  12.205   1.553 -0.1099  0.4039 -0.0223
31350SOL    HW1 1290  10.752  12.241   1.467  0.6330  0.5887  0.2322
31350SOL    HW2 1291  10.701  12.115   1.535  1.1506  0.0463 -0.3662
31351SOL     OW 1292   7.436   2.850   2.175 -0.7290  0.0504  0.1556
31351SOL    HW1 1293   7.356   2.878   2.220 -0.9576  1.8970 -1.2945
31351SOL    HW2 1294   7.458   2.766   2.216 -2.4367  0.3191  1.7658
31352SOL     OW 1295   6.642   0.731   9.398 -0.2229  0.0846  0.5837
31352SOL    HW1 1296   6.647   0.659   9.461 -0.8752  0.3825  0.9801
31352SOL    HW2 1297   6.558   0.773   9.416 -0.2876  0.3512 -0.2962
31353SOL     OW 1298   8.386  11.226   4.363  0.2951 -0.1576  0.5728
31353SOL    HW1 1299   8.407  11.135   4.385  0.0892 -0.4474 -0.3931
31353SOL    HW2 1300   8.332  11.257   4.436  0.9118 -0.5953  1.2275
31354SOL     OW 1301   6.253  10.250  11.373  0.5790  0.1922 -0.1689
31354SOL    HW1 1302   6.199  10.240  11.295  0.8079  0.8557 -0.4189
31354SOL    HW2 1303   6.225  10.333  11.412  0.5875 -0.0461  0.3593
31355SOL     OW 1304  11.557   9.043   4.740  0.3287 -0.0417 -0.0977
31355SOL    HW1 1305  11.651   9.054   4.754  0.1143 -0.7784  2.3239
31355SOL    HW2 1306  11.542   8.949   4.750 -0.6321  0.0061 -0.8653
31356SOL     OW 1307  11.061   6.698   1.149  0.1000 -0.6389 -0.0270
31356SOL    HW1 1308  11.008   6.777   1.143 -0.8635 -1.3080 -0.7519
31356SOL    HW2 1309  11.135   6.713   1.091 -1.1690 -1.0485 -1.8334
31357SOL     OW 1310   5.647   8.098   4.559 -0.3169 -0.3626 -0.3169
31357SOL    HW1 1311   5.712   8.061   4.617 -1.2528 -0.5017  0.6771
31357SOL    HW2 1312   5.684   8.183   4.532  0.2324 -0.4050  0.2917
31358SOL     OW 1313   9.221   6.966   6.338  0.3561  0.2593  0.5674
31358SOL    HW1 1314   9.288   7.032   6.357 -0.3301  0.8314  1.0678
31358SOL    HW2 1315   9.160   7.010   6.280  0.3890 -0.2535  0.1328
31359SOL     OW 1316   0.923   8.586   7.084  0.5419  0.1724 -0.6335
31359SOL    HW1 1317   0.880   8.571   7.168 -1.1294 -0.5977 -1.5821
31359SOL    HW2 1318   0.906   8.679   7.065 -1.8259 -0.3830 -1.5406
31360SOL     OW 1319   2.437  12.370   8.883 -0.6454  0.4935 -0.7494
31360SOL    HW1 1320   2.460  12.328   8.799  0.9210 -1.2054  0.4384
31360SOL    HW2 1321   2.391  12.301   8.931 -1.3442  1.3934 -0.1113
31361SOL     OW 1322   9.129  12.278   7.647 -0.3853  0.3178 -0.0815
31361SOL    HW1 1323   9.073  12.284   7.569 -1.6410 -0.1802  0.7385
31361SOL    HW2 1324   9.085  12.334   7.712  0.5897  0.6552  0.3050
31362SOL     OW 1325   8.037   4.844   7.241 -0.1940  0.0335 -0.2498
31362SOL    HW1 1326   8.036   4.853   7.146  0.1656 -0.4873 -0.3081
31362SOL    HW2 1327   8.084   4.762   7.257 -0.9007 -0.2717  0.3398
31363SOL     OW 1328   0.213   7.425   4.132 -0.6513  0.3939 -0.3070
31363SOL    HW1 1329   0.264   7.471   4.199  0.4820 -0.2871 -0.6833
31363SOL    HW2 1330   0.129   7.406   4.175 -0.1690  0.5082  0.7174
31364SOL     OW 1331   2.725   2.820  11.636 -0.5129 -0.0654 -0.0233
31364SOL    HW1 1332   2.697   2.731  11.613 -0.5335  0.2228 -1.1571
31364SOL    HW2 1333   2.796   2.806  11.699  0.6592 -0.9734 -1.4537
31365SOL     OW 1334  11.227   6.395   1.831  0.3304 -0.1879  0.1214
31365SOL    HW1 1335  11.148   6.382   1.779 -0.1491 -1.6204  1.1483
31365SOL    HW2 1336  11.202   6.370   1.920  1.8672 -0.4373  0.5172
31366SOL     OW 1337   4.157  10.772  11.092  0.5942 -1.2297 -0.3521
31366SOL    HW1 1338   4.210  10.791  11.170  0.0214 -2.1948  0.3034
31366SOL    HW2 1339   4.208  10.806  11.019  0.8925  0.2077  0.4901
31367SOL     OW 1340   6.671  10.366   6.611 -0.5804 -0.5047 -0.3611
31367SOL    HW1 1341   6.630  10.439   6.657 -0.0333 -0.3137 -0.1732
31367SOL    HW2 1342   6.599  10.324   6.565 -1.3884 -1.4589  1.6542
31368SOL     OW 1343  11.490   2.078   2.182  1.1132  0.0965 -0.1411
31368SOL    HW1 1344  11.462   2.035   2.101 -0.6107 -1.2298  1.0694
31368SOL    HW2 1345  11.514   2.167   2.156  0.7875 -0.3549 -2.1198
31369SOL     OW 1346   2.541   2.129   4.019 -0.1976  0.1314  0.3025
31369SOL    HW1 1347   2.616   2.089   4.063 -0.5076 -1.8442 -0.8060
31369SOL    HW2 1348   2.508   2.059   3.961 -2.5646  1.1086  0.3649
31370SOL     OW 1349   5.332   1.843   3.213 -0.3598 -0.9032  0.0324
31370SOL    HW1 1350   5.401   1.780   3.235 -0.3174 -0.6607  0.5881
31370SOL    HW2 1351   5.359   1.879   3.128  0.3286 -0.6242  0.3661
31371SOL     OW 1352   4.919   1.285   6.879  0.1323 -0.2782 -0.3225
31371SOL    HW1 1353   4.878   1.368   6.903  0.6802 -0.3733  1.0234
31371SOL    HW2 1354   5.012   1.305   6.871  0.4753 -0.9962  1.3656
31372SOL     OW 1355   6.460   2.486   1.718 -0.1248  0.3084 -0.4840
31372SOL    HW1 1356   6.395   2.420   1.693 -0.9236  0.4420  1.1642
31372SOL    HW2 1357   6.409   2.565   1.737  0.1153 -0.2961  3.4043
31373SOL     OW 1358   8.506   0.031   6.321  0.7756 -0.1162 -0.1250
31373SOL    HW1 1359   8.548  -0.005   6.243 -0.4049 -1.9892  0.0305
31373SOL    HW2 1360   8.483  -0.046   6.373 -0.8558  0.9329  0.7997
31374SOL     OW 1361   5.013   8.986   2.972  0.4830  0.0302 -0.5674
31374SOL    HW1 1362   5.035   8.893   2.972 -1.6283 -0.5645  1.0608
31374SOL    HW2 1363   4.949   8.996   2.902 -1.2898 -0.3642  0.9318
31375SOL     OW 1364   8.654   2.217   5.143 -0.2419  0.2289  0.0171
31375SOL    HW1 1365   8.641   2.128   5.110  0.0066 -0.0937  0.7810
31375SOL    HW2 1366   8.683   2.267   5.066  0.0646 -0.4536 -0.3192
31376SOL     OW 1367   8.254   2.774  10.453  0.4912 -0.1746 -0.1006
31376SOL    HW1 1368   8.197   2.710  10.410 -1.4242  0.9094  0.6898
31376SOL    HW2 1369   8.334   2.726  10.471 -1.0013 -2.5003  0.8031
31377SOL     OW 1370   0.781   2.828   0.186 -0.1539 -0.7587 -0.4653
31377SOL    HW1 1371   0.768   2.734   0.200  1.0922 -1.0824 -1.3397
31377SOL    HW2 1372   0.857   2.851   0.239 -0.9724 -0.0290  0.4380
31378SOL     OW 1373   3.261   3.630  12.192  0.1526 -0.3508 -0.0509
31378SOL    HW1 1374   3.240   3.722  12.179 -0.5326 -0.3495  0.9632
31378SOL    HW2 1375   3.201   3.601  12.261 -0.2057 -1.7570 -0.9026
31379SOL     OW 1376   4.169   8.793   5.773  0.8227  0.5488 -0.1467
31379SOL    HW1 1377   4.163   8.697   5.779  0.4832  0.5514 -0.3960
31379SOL    HW2 1378   4.243   8.816   5.829 -0.3770  0.3390  1.5925
31380SOL     OW 1379   4.639   6.434   4.275 -0.0065 -0.5714  0.4592
31380SOL    HW1 1380   4.628   6.430   4.180  0.9672 -2.9615  0.3915
31380SOL    HW2 1381   4.729   6.465   4.288 -0.4058  0.5645  0.6556
31381SOL     OW 1382   3.245   9.458   9.737  0.3388  0.2011  0.3141
31381SOL    HW1 1383   3.236   9.543   9.693 -2.5887  0.2200  0.7561
31381SOL    HW2 1384   3.162   9.446   9.783  0.4383 -3.1521 -0.1341
31382SOL     OW 1385   1.746   6.375   4.928  0.0835 -0.3258 -0.3278
31382SOL    HW1 1386   1.694   6.301   4.959 -1.2676  1.2743  1.4475
31382SOL    HW2 1387   1.836   6.343   4.928 -0.2866 -1.5549  1.8653
31383SOL     OW 1388   7.125  10.512   6.846  0.1129 -0.2463 -0.0677
31383SOL    HW1 1389   7.091  10.556   6.768  0.8310 -0.3494 -0.4541
31383SOL    HW2 1390   7.048  10.486   6.896 -0.3684 -0.6248 -0.9928
31384SOL     OW 1391   4.331  11.941   6.969  0.3808 -0.2646 -0.1366
31384SOL    HW1 1392   4.274  12.016   6.987 -0.2857 -0.6496 -0.6018
31384SOL    HW2 1393   4.273  11.876   6.928  1.4189 -0.1477 -1.9118
31385SOL     OW 1394  12.278   7.544  10.987  0.0362 -0.0078  0.2557
31385SOL    HW1 1395  12.357   7.592  11.012 -0.5629  0.3871  1.4606
31385SOL    HW2 1396  12.261   7.570  10.897  1.5038 -0.4149 -0.1636
31386SOL     OW 1397   4.514   6.109  12.142 -0.9113  0.4004 -0.6380
31386SOL    HW1 1398   4.574   6.063  12.201 -0.1384 -0.4905 -2.0790
31386SOL    HW2 1399   4.569   6.176  12.101 -1.4006  0.8894 -0.5011
31387SOL     OW 1400  10.073   8.986   9.079 -0.2714  0.2461 -0.6071
31387SOL    HW1 1401  10.118   9.068   9.099  0.1960 -0.2572  0.4888
31387SOL    HW2 1402  10.124   8.919   9.124 -1.2149 -0.5280 -0.6567
31388SOL     OW 1403   9.204   0.617   0.401 -0.6848 -0.5219 -0.5692
31388SOL    HW1 1404   9.110   0.623   0.383 -0.8204 -3.1509 -1.0999
31388SOL    HW2 1405   9.210   0.604   0.496 -0.5878  2.6130 -0.0307
31389SOL     OW 1406   5.978   5.528   1.222  0.1400 -0.2621  0.1900
31389SOL    HW1 1407   6.058   5.475   1.225  0.7973  0.7517  1.3767
31389SOL    HW2 1408   6.006   5.616   1.249 -1.4648  0.0137  1.0680
31390SOL     OW 1409   5.215  12.202   2.734 -0.2410  0.6216  0.3456
31390SOL    HW1 1410   5.197  12.293   2.709  0.8795  0.5777 -0.6956
31390SOL    HW2 1411   5.280  12.172   2.671 -0.1796 -0.7415  1.0197
31391SOL     OW 1412   4.734   6.326   6.963  0.1244  0.6273  0.1717
31391SOL    HW1 1413   4.651   6.370   6.942 -0.5423 -0.1357  1.1030
31391SOL    HW2 1414   4.756   6.278   6.883 -1.5446 -0.9804  0.6076
31392SOL     OW 1415  11.642   6.875  12.484  0.2585  0.0033  0.1057
31392SOL    HW1 1416  11.687   6.794  12.461 -0.5895 -0.7651  1.0431
31392SOL    HW2 1417  11.657   6.933  12.410  1.1551 -0.8961 -0.4395
31393SOL     OW 1418   0.359   3.564   8.542 -0.4570 -0.0378  0.3588
31393SOL    HW1 1419   0.295   3.540   8.609 -0.8491 -1.8492 -0.5897
31393SOL    HW2 1420   0.315   3.542   8.459  1.0911 -0.5987 -0.3462
31394SOL     OW 1421   1.721   6.638   4.998 -0.1415 -0.6950 -0.0493
31394SOL    HW1 1422   1.679   6.645   5.084 -0.5379  0.5269 -0.3290
31394SOL    HW2 1423   1.730   6.543   4.984  0.4653 -0.9244  1.5902
31395SOL     OW 1424   9.528   6.944   5.545  0.0710 -0.6593  0.2912
31395SOL    HW1 1425   9.551   6.851   5.539 -0.0946 -0.6035 -2.1877
31395SOL    HW2 1426   9.573   6.984   5.470  0.6299  1.3925  1.6491
31396SOL     OW 1427   5.716   2.328   4.943  0.5954 -0.1666 -0.0257
31396SOL    HW1 1428   5.655   2.256   4.927  1.8611 -1.2615 -0.0294
31396SOL    HW2 1429   5.802   2.292   4.923  1.3264  1.1556  0.6174
31397SOL     OW 1430   6.327   9.748   4.705  0.0665 -0.6696  0.5698
31397SOL    HW1 1431   6.327   9.788   4.792  0.1925  0.1596  0.2062
31397SOL    HW2 1432   6.234   9.748   4.679  0.2197  1.0887 -0.1503
31398SOL     OW 1433   2.400   0.942   6.438  0.9369 -0.4066  0.3096
31398SOL    HW1 1434   2.343   0.870   6.464 -2.9408  3.0452  2.6784
31398SOL    HW2 1435   2.459   0.955   6.513  0.7045 -0.3258  0.4806
31399SOL     OW 1436   0.757   3.509   4.363  0.8963  0.5003  0.2975
31399SOL    HW1 1437   0.714   3.559   4.432 -0.4767 -2.3876  1.7265
31399SOL    HW2 1438   0.773   3.423   4.402  3.1045 -0.2578 -1.9785
31400SOL     OW 1439  10.884   2.249   2.969  0.6727 -0.1983  0.3144
31400SOL    HW1 1440  10.893   2.216   3.058 -2.8864  0.8769  1.2189
31400SOL    HW2 1441  10.858   2.341   2.980  1.1488  0.2720 -1.8935
31401SOL     OW 1442   4.746   0.552   8.677 -0.8144 -0.3649 -0.1918
31401SOL    HW1 1443   4.666   0.507   8.650 -1.3193 -0.9232  1.9649
31401SOL    HW2 1444   4.797   0.484   8.722 -0.2393  0.5401  0.5620
31402SOL     OW 1445   5.162  10.393  12.005  0.0468  0.3880  0.6609
31402SOL    HW1 1446   5.171  10.470  12.062  1.6231  1.4893 -0.9439
31402SOL    HW2 1447   5.231  10.404  11.940 -0.6529 -1.6549 -0.5097
31403SOL     OW 1448   8.321   8.642   3.009 -0.0950 -0.2171  0.0282
31403SOL    HW1 1449   8.334   8.547   3.004  1.2452 -0.0512 -0.1483
31403SOL    HW2 1450   8.236   8.657   2.968 -0.0496 -1.2818 -0.4878
31404SOL     OW 1451   0.107   0.616   5.914  0.2674  0.3987  0.6113
31404SOL    HW1 1452   0.043   0.663   5.861  0.4552  2.0208  1.7177
31404SOL    HW2 1453   0.157   0.564   5.852 -1.3109  0.0759 -0.4159
31405SOL     OW 1454   2.592  10.301   8.993 -0.0463  0.4274  0.3030
31405SOL    HW1 1455   2.519  10.325   8.936 -0.3996  2.7495  1.6067
31405SOL    HW2 1456   2.569  10.214   9.027 -0.2749 -0.6014 -2.2300
31406SOL     OW 1457   5.794   4.710   2.073 -0.2324  0.3185  0.1045
31406SOL    HW1 1458   5.778   4.645   2.005 -1.1582 -1.0743  1.5812
31406SOL    HW2 1459   5.888   4.706   2.089 -0.0722  0.3532 -0.7444
31407SOL     OW 1460   6.894   7.491  12.648  0.4006 -0.0239  0.1990
31407SOL    HW1 1461   6.897   7.570  12.595  0.7776  0.5686  1.0734
31407SOL    HW2 1462   6.981   7.486  12.688  0.1120 -0.4198  0.7909
31408SOL     OW 1463  10.192   5.439   1.450  0.0041 -0.0097  0.2382
31408SOL    HW1 1464  10.265   5.386   1.481  0.1639 -0.6097 -1.0944
31408SOL    HW2 1465  10.144   5.382   1.390  0.3460  1.3960 -1.4756
31409SOL     OW 1466   2.285   0.012   3.322 -0.4796 -0.2973 -0.3162
31409SOL    HW1 1467   2.224   0.070   3.368 -2.6609 -2.1527 -0.7229
31409SOL    HW2 1468   2.264   0.023   3.230 -0.2683 -1.0388 -0.4563
31410SOL     OW 1469   4.664   1.185   5.975 -0.1845 -0.1168  0.1380
31410SOL    HW1 1470   4.607   1.201   6.050  0.7637 -0.1748  0.8922
31410SOL    HW2 1471   4.741   1.239   5.992 -0.5928  1.0677 -1.5699
31411SOL     OW 1472   1.980   4.897   8.792  0.2202 -0.2909  0.2755
31411SOL    HW1 1473   1.895   4.899   8.837  1.2231  0.3866  2.2258
31411SOL    HW2 1474   1.964   4.943   8.710 -0.7699  1.9710  1.6468
31412SOL     OW 1475   8.869   9.420  10.467  0.0278 -0.3370  0.1370
31412SOL    HW1 1476   8.943   9.362  10.446 -0.1276 -0.4268 -0.1898
31412SOL    HW2 1477   8.823   9.375  10.538  1.0516  0.3945  1.3008
31413SOL     OW 1478   6.069   1.949   5.142 -0.2006 -0.0439  0.0894
31413SOL    HW1 1479   6.127   1.874   5.135 -0.7090 -0.4589  0.2531
31413SOL    HW2 1480   6.076   1.976   5.233  1.0835  1.0199 -0.2884
31414SOL     OW 1481   9.779  11.842   9.071 -1.2771  0.0482 -0.2804
31414SOL    HW1 1482   9.738  11.756   9.082 -1.8172  0.3136 -0.2015
31414SOL    HW2 1483   9.852  11.826   9.011 -3.3414  0.1166 -2.9794
31415SOL     OW 1484   4.375  12.609   4.313 -0.8068 -0.4152  0.2186
31415SOL    HW1 1485   4.294  12.657   4.297 -1.1727 -1.4262 -1.1748
31415SOL    HW2 1486   4.369  12.583   4.405 -1.4779  0.5484  0.4711
31416SOL     OW 1487   8.538   9.449   7.326 -0.4997  0.0827  0.0064
31416SOL    HW1 1488   8.466   9.386   7.317 -0.2927 -0.2385  0.5699
31416SOL    HW2 1489   8.521   9.491   7.411 -0.2887  0.3455 -0.0833
31417SOL     OW 1490  10.477   7.128  10.640  0.1054  0.7164  0.1196
31417SOL    HW1 1491  10.493   7.101  10.730  4.0448  0.8949 -0.3501
31417SOL    HW2 1492  10.531   7.069  10.588 -1.9914  0.6757 -2.2253
31418SOL     OW 1493   8.762   1.506   6.577 -0.6475  0.0670 -0.0798
31418SOL    HW1 1494   8.817   1.584   6.567 -1.1731  0.4381 -0.1387
31418SOL    HW2 1495   8.816   1.446   6.629  0.6659 -0.4547 -1.9353
31419SOL     OW 1496   9.396  10.163   3.106  0.3932  0.3262 -0.1144
31419SOL    HW1 1497   9.386  10.186   3.198 -0.0549 -0.1220 -0.0458
31419SOL    HW2 1498   9.348  10.080   3.096 -0.8563  1.1158 -1.0726
31420SOL     OW 1499   9.745   5.897   0.542 -0.2931 -0.3438  0.0670
31420SOL    HW1 1500   9.742   5.924   0.634 -0.6197 -0.1613  0.0029
31420SOL    HW2 1501   9.794   5.815   0.543  0.9312  0.3555  0.2381
31421SOL     OW 1502   9.050   0.198   3.604 -0.1257 -0.4120  0.3751
31421SOL    HW1 1503   9.055   0.179   3.698  1.6078  0.3799  0.4766
31421SOL    HW2 1504   8.972   0.150   3.574 -1.4143  0.2683  2.4114
31422SOL     OW 1505  10.808  11.077   7.027 -0.1961  0.3641 -0.3309
31422SOL    HW1 1506  10.872  11.044   6.964  1.4688  0.7062  1.1146
31422SOL    HW2 1507  10.822  11.172   7.027 -0.9275  0.4776 -0.2088
31423SOL     OW 1508   2.931   7.410   1.856  0.0373 -0.3150  0.0060
31423SOL    HW1 1509   2.876   7.465   1.800  1.0419  0.2091 -0.4976
31423SOL    HW2 1510   3.019   7.422   1.822  0.4079 -1.5449  0.4719
31424SOL     OW 1511   9.924   0.461   8.934  0.7836  0.0385  0.0980
31424SOL    HW1 1512   9.991   0.529   8.943  0.9873 -0.2618  0.9239
31424SOL    HW2 1513   9.888   0.474   8.846  1.4554  0.6318 -0.0941
31425SOL     OW 1514   7.476   8.381   8.255  0.0593 -0.0922 -0.0110
31425SOL    HW1 1515   7.532   8.304   8.268 -1.6983 -1.4413 -0.1534
31425SOL    HW2 1516   7.428   8.364   8.175  0.1499  1.5242 -0.4600
31426SOL     OW 1517   7.357   1.385   1.893  0.3919  0.5067 -0.0409
31426SOL    HW1 1518   7.431   1.324   1.892  0.4632  0.5966 -0.3815
31426SOL    HW2 1519   7.380   1.448   1.963 -1.1179 -1.5730  2.4998
31427SOL     OW 1520   8.854  10.027  10.831  0.0058  0.1553  0.4031
31427SOL    HW1 1521   8.855   9.935  10.805  1.0332  0.8940 -2.5454
31427SOL    HW2 1522   8.825  10.074  10.753 -0.4463  2.3668  1.8231
31428SOL     OW 1523  11.788   1.150   2.381  0.6830  0.0251  0.5949
31428SOL    HW1 1524  11.870   1.173   2.339  0.3252  1.4460  0.6264
31428SOL    HW2 1525  11.766   1.063   2.346  0.5249  1.0313 -1.9706
31429SOL     OW 1526   6.968   3.799   1.023 -0.1967 -0.3791  0.4870
31429SOL    HW1 1527   6.950   3.890   1.048  1.1599  0.0461 -0.0023
31429SOL    HW2 1528   6.996   3.805   0.932  0.2258 -1.2546  0.5557
31430SOL     OW 1529   2.152   7.836   6.474  0.1432 -0.2106  0.2875
31430SOL    HW1 1530   2.144   7.809   6.383 -0.3130  0.0193  0.2525
31430SOL    HW2 1531   2.231   7.890   6.477 -0.4607  0.7232 -0.2141
31431SOL     OW 1532   0.188   9.627   0.500 -0.4375 -0.4579  0.2151
31431SOL    HW1 1533   0.184   9.531   0.501 -0.2743 -0.4759  1.5694
31431SOL    HW2 1534   0.251   9.647   0.431 -3.5391 -1.1019 -3.1161
31432SOL     OW 1535  11.650  11.641   4.244  0.0816  0.8339 -0.2222
31432SOL    HW1 1536  11.722  11.636   4.307  0.0758  0.1688 -0.2538
31432SOL    HW2 1537  11.572  11.655   4.299  0.2333  1.5709 -0.1907
31433SOL     OW 1538   4.731  12.016  11.269  0.1547  0.0785  0.3560
31433SOL    HW1 1539   4.638  11.999  11.286 -0.0452 -0.4074 -1.0236
31433SOL    HW2 1540   4.759  11.940  11.217  1.0039  0.8127 -0.2800
31434SOL     OW 1541  12.103   5.904   2.687 -0.4854 -0.1021 -0.2679
31434SOL    HW1 1542  12.104   5.822   2.737 -1.6506  0.5599  0.9067
31434SOL    HW2 1543  12.173   5.956   2.728 -0.3731 -0.1522 -0.3953
31435SOL     OW 1544   3.827   7.092   5.972 -0.6846  0.3937 -0.1497
31435SOL    HW1 1545   3.889   7.047   5.914  0.0393  1.2168 -0.0289
31435SOL    HW2 1546   3.863   7.081   6.060 -0.9342  0.5213 -0.0303
31436SOL     OW 1547   4.372   5.095   8.810 -0.6170 -0.0360  0.0736
31436SOL    HW1 1548   4.435   5.094   8.738 -1.6440  3.3185 -1.0583
31436SOL    HW2 1549   4.334   5.007   8.809  0.8032 -0.7121 -2.1924
31437SOL     OW 1550   0.529   5.629   2.402 -0.1743 -0.2281  0.2341
31437SOL    HW1 1551   0.469   5.688   2.447  1.1403  3.0556 -1.9453
31437SOL    HW2 1552   0.608   5.629   2.456 -0.1604  0.0459  0.2134
31438SOL     OW 1553   6.380  11.170   9.729  0.6745 -0.0107  0.0075
31438SOL    HW1 1554   6.455  11.113   9.746  2.0461  1.7888  0.3075
31438SOL    HW2 1555   6.405  11.218   9.650  0.0429  0.9473  0.3871
31439SOL     OW 1556   1.572  11.069   7.109  0.2451 -0.0488  0.0543
31439SOL    HW1 1557   1.528  11.125   7.172  0.3586 -0.4324  0.4814
31439SOL    HW2 1558   1.573  11.120   7.028 -0.7479  0.0687  0.1044
31440SOL     OW 1559   7.036   3.399   0.407 -0.1708  0.1316  0.0201
31440SOL    HW1 1560   7.092   3.461   0.452 -0.8422  0.2707  0.6734
31440SOL    HW2 1561   6.964   3.382   0.467 -1.9855  1.5948 -1.5991
31441SOL     OW 1562   8.939   9.440   6.131 -0.0011 -0.4554  0.0030
31441SOL    HW1 1563   8.879   9.416   6.060  0.2491 -0.0996 -0.3305
31441SOL    HW2 1564   8.977   9.523   6.103 -1.5724  0.8703  1.5781
31442SOL     OW 1565  12.686   2.399   8.545 -0.4252  0.2378 -0.1287
31442SOL    HW1 1566  12.691   2.415   8.639 -2.0111  0.6174 -0.0888
31442SOL    HW2 1567  12.624   2.463   8.513 -0.2258 -0.1708 -1.3836
31443SOL     OW 1568   5.000   4.161   1.637  0.0093 -0.3709 -0.0940
31443SOL    HW1 1569   4.956   4.124   1.560 -0.0249  0.4006 -0.4473
31443SOL    HW2 1570   4.933   4.161   1.705  0.2883 -1.8972  0.2184
31444SOL     OW 1571   7.752   3.507   4.650  0.3196 -0.4292 -0.4857
31444SOL    HW1 1572   7.681   3.485   4.710 -0.5230 -0.6453 -1.5397
31444SOL    HW2 1573   7.720   3.482   4.564  1.7237 -0.6338 -0.9759
31445SOL     OW 1574   0.852   3.221   7.873 -0.4742  0.3836 -0.3497
31445SOL    HW1 1575   0.844   3.187   7.962  0.4151  2.8173  0.7368
31445SOL    HW2 1576   0.945   3.213   7.853 -0.2611  2.0067 -0.0988
31446SOL     OW 1577   9.912   5.058   5.917 -0.0607  0.3115  0.3643
31446SOL    HW1 1578   9.940   5.080   6.006  0.0189  2.8848 -0.2202
31446SOL    HW2 1579   9.978   4.995   5.886  0.5568  0.2740  1.7093
31447SOL     OW 1580   3.951  12.455   8.628 -0.2546  0.2137 -0.2266
31447SOL    HW1 1581   3.861  12.427   8.642  0.1690 -1.1978 -0.2383
31447SOL    HW2 1582   3.981  12.404   8.553  0.6034  0.5770 -0.1475
31448SOL     OW 1583   6.545  11.359   3.815 -0.0292 -0.0058  0.5171
31448SOL    HW1 1584   6.583  11.271   3.818  0.2877  0.1606  2.9226
31448SOL    HW2 1585   6.471  11.350   3.754  0.8050 -1.5670 -0.3447
31449SOL     OW 1586   8.140   7.953   8.729  0.3689  0.2542 -0.2972
31449SOL    HW1 1587   8.046   7.941   8.723  0.2793  0.8700 -0.1740
31449SOL    HW2 1588   8.151   8.039   8.770  0.9811 -0.2940  0.7431
31450SOL     OW 1589  11.519  10.064   7.634  0.3728  0.8675 -0.0181
31450SOL    HW1 1590  11.498   9.995   7.572 -1.6190  1.2376  0.1947
31450SOL    HW2 1591  11.526  10.021   7.718 -0.8854  0.9144  0.1170
31451SOL     OW 1592   1.283   6.014  11.719 -0.1230  0.3854  0.3005
31451SOL    HW1 1593   1.277   5.924  11.688  0.4192  0.6183 -0.5181
31451SOL    HW2 1594   1.207   6.058  11.681 -0.0583  0.4183  0.2111
31452SOL     OW 1595   3.224  11.821   6.549  0.2506 -0.0143 -0.2693
31452SOL    HW1 1596   3.188  11.735   6.571 -2.5101  1.0697 -0.1990
31452SOL    HW2 1597   3.161  11.858   6.487  0.4492  2.6276  0.9950
31453SOL     OW 1598  11.135  11.895   9.885 -0.2704  0.3600 -0.9012
31453SOL    HW1 1599  11.200  11.832   9.856 -2.1183 -1.5112 -1.2392
31453SOL    HW2 1600  11.078  11.845   9.943 -1.2990  1.9742 -0.4616
31454SOL     OW 1601  12.101   5.016   6.865 -0.9583 -0.0616 -0.4991
31454SOL    HW1 1602  12.086   4.921   6.864 -0.4483 -0.1969  1.1477
31454SOL    HW2 1603  12.061   5.047   6.784  1.3058 -2.0349 -2.5461
31455SOL     OW 1604  11.917  10.191  12.625  0.2236  0.0486  0.9296
31455SOL    HW1 1605  11.930  10.100  12.652  0.2762 -0.3758 -0.4453
31455SOL    HW2 1606  11.984  10.207  12.559 -1.7160  0.0236 -1.1975
31456SOL     OW 1607   5.954   8.555  11.195  0.0234 -0.5861  0.4562
31456SOL    HW1 1608   6.016   8.540  11.266 -0.7653 -0.0222  1.2916
31456SOL    HW2 1609   6.000   8.614  11.135  1.5963 -2.9359 -0.7805
31457SOL     OW 1610   0.756   0.031   4.769 -0.4041  0.2705 -0.2769
31457SOL    HW1 1611   0.746   0.118   4.731 -0.0901  0.5718  0.3237
31457SOL    HW2 1612   0.781   0.047   4.860  0.2086 -0.4470 -0.3131
31458SOL     OW 1613   6.226   7.808  10.903 -0.6183 -0.0093 -0.0063
31458SOL    HW1 1614   6.273   7.819  10.821 -1.4822  0.6618 -0.4231
31458SOL    HW2 1615   6.202   7.897  10.930  2.4949  0.2066  2.7327
31459SOL     OW 1616   8.929   9.513   9.361 -0.1837  0.2234  0.3251
31459SOL    HW1 1617   8.891   9.486   9.278 -1.6591  0.1663  0.9959
31459SOL    HW2 1618   9.008   9.460   9.369 -1.4651 -1.7895  0.2236
31460SOL     OW 1619   6.573   5.781   1.309  0.4564 -0.0289  0.0097
31460SOL    HW1 1620   6.606   5.742   1.390  0.3886  0.8038  0.4479
31460SOL    HW2 1621   6.583   5.875   1.321  4.9894  0.1828 -2.8002
31461SOL     OW 1622   8.613   6.690   4.624 -0.6356 -0.5621  0.5555
31461SOL    HW1 1623   8.567   6.690   4.540 -1.3342  0.7463  0.9112
31461SOL    HW2 1624   8.668   6.768   4.621 -0.7240 -0.4621  1.3273
31462SOL     OW 1625   0.599   4.717  10.547  0.2213  0.3927  0.1732
31462SOL    HW1 1626   0.577   4.711  10.454  1.2995  1.0430 -0.1479
31462SOL    HW2 1627   0.662   4.789  10.552  3.2928 -2.0836  0.7924
31463SOL     OW 1628   1.552   1.248   1.943 -0.3320 -0.0858 -0.0708
31463SOL    HW1 1629   1.543   1.199   1.861  0.9631  1.3115 -1.1137
31463SOL    HW2 1630   1.642   1.230   1.972 -0.0375  1.1317 -0.1481
31464SOL     OW 1631  11.865   7.295   5.434 -0.0531 -0.0224  0.2628
31464SOL    HW1 1632  11.807   7.238   5.383  0.7805 -0.4681 -0.2105
31464SOL    HW2 1633  11.936   7.318   5.374  1.2719 -1.0318  1.3494
31465SOL     OW 1634   1.649  12.644   7.517  0.0713 -0.1930 -0.3446
31465SOL    HW1 1635   1.570  12.600   7.488  0.0874 -1.4898  1.4518
31465SOL    HW2 1636   1.632  12.737   7.499 -2.0418 -0.3862  0.4118
31466SOL     OW 1637   9.690   1.962   7.008  0.1080  0.1679  0.1041
31466SOL    HW1 1638   9.638   1.927   7.080  0.3206 -0.3154  0.0270
31466SOL    HW2 1639   9.656   2.051   6.995 -0.6339 -0.1036  0.1176
31467SOL     OW 1640   3.344   6.786   0.539  0.0361 -0.4728  0.4478
31467SOL    HW1 1641   3.290   6.716   0.503  0.3353  0.4671 -2.0428
31467SOL    HW2 1642   3.433   6.766   0.510  0.4115  0.0365  1.2034
31468SOL     OW 1643   2.850   7.078   8.349  0.9637  0.0115 -0.0570
31468SOL    HW1 1644   2.899   6.997   8.339 -0.0043 -0.4267 -1.6743
31468SOL    HW2 1645   2.851   7.118   8.262 -1.8156 -0.2277 -0.3081
31469SOL     OW 1646   1.296   9.031  12.557 -0.1671 -0.0203 -0.0419
31469SOL    HW1 1647   1.261   8.965  12.617  0.9328 -0.3369  0.2831
31469SOL    HW2 1648   1.257   9.114  12.587 -0.3915 -0.3118  0.4887
31470SOL     OW 1649   1.246   6.853   2.442  0.4708 -1.0688  0.5480
31470SOL    HW1 1650   1.294   6.835   2.361  0.5517 -0.2555  0.4069
31470SOL    HW2 1651   1.313   6.862   2.509  0.7369  1.7607  0.0526
31471SOL     OW 1652  11.805   4.561   2.250 -0.9638 -0.6238 -0.1209
31471SOL    HW1 1653  11.883   4.524   2.291 -1.0646 -0.6676  0.0346
31471SOL    HW2 1654  11.817   4.545   2.157 -1.7013 -2.4026  0.0606
31472SOL     OW 1655   7.208   9.725   7.986 -0.3815  0.2112 -0.3194
31472SOL    HW1 1656   7.178   9.678   7.908  0.0275 -0.2393 -0.2059
31472SOL    HW2 1657   7.132   9.724   8.044  0.4876 -3.0616  0.9770
31473SOL     OW 1658   3.999   2.783   9.387 -0.0742 -0.2682  0.9023
31473SOL    HW1 1659   4.045   2.736   9.456  0.7350  0.9361  1.2056
31473SOL    HW2 1660   3.938   2.719   9.351 -0.3989 -0.9664  2.6153
31474SOL     OW 1661   1.205   0.442   5.012  0.0408 -0.2246 -0.0329
31474SOL    HW1 1662   1.178   0.530   5.039  1.3886 -0.4830  2.4502
31474SOL    HW2 1663   1.134   0.412   4.956 -1.2440  1.8191  0.3651
31475SOL     OW 1664   0.569   1.067   8.837  0.5228  0.8578  0.0203
31475SOL    HW1 1665   0.637   1.114   8.886  1.7293  0.2004 -0.9513
31475SOL    HW2 1666   0.572   1.106   8.749 -0.2603  0.7230 -0.0677
31476SOL     OW 1667   0.409   3.670   9.085  0.0934  0.1768  0.6445
31476SOL    HW1 1668   0.375   3.757   9.066  0.5378  0.0258 -1.1039
31476SOL    HW2 1669   0.358   3.612   9.028 -0.7731 -0.8542  2.3839
31477SOL     OW 1670   2.288  12.525   8.353 -0.0101  0.4662  0.2825
31477SOL    HW1 1671   2.229  12.507   8.425 -0.2750  1.4684  0.3400
31477SOL    HW2 1672   2.235  12.516   8.274 -0.5294  2.2649  0.3747
31478SOL     OW 1673   4.809   2.827   7.138  0.7531  0.2217 -0.5274
31478SOL    HW1 1674   4.880   2.874   7.182 -0.2829  0.3965  0.9981
31478SOL    HW2 1675   4.779   2.887   7.070  0.6430  1.0219  0.2232
31479SOL     OW 1676   4.841   3.818   1.610 -0.0904 -0.0514  0.2946
31479SOL    HW1 1677   4.782   3.787   1.678  1.5855 -2.2958  0.8506
31479SOL    HW2 1678   4.929   3.803   1.645  0.8591  1.9283 -1.0165
31480SOL     OW 1679   3.788   5.694   5.208  0.0068 -0.0836 -0.0880
31480SOL    HW1 1680   3.873   5.662   5.240  0.3319  0.9756  0.1616
31480SOL    HW2 1681   3.767   5.766   5.267 -1.9417 -1.4351  0.9669
31481SOL     OW 1682   2.428   0.225   7.243  0.2952  0.0739 -0.7831
31481SOL    HW1 1683   2.439   0.264   7.330  1.5616 -0.8426 -0.5086
31481SOL    HW2 1684   2.460   0.292   7.183  1.3830 -0.0851 -0.3944
31482SOL     OW 1685   5.613  11.144   2.175 -0.1066 -0.2334  0.4969
31482SOL    HW1 1686   5.685  11.118   2.232 -1.2916 -0.0295  2.1763
31482SOL    HW2 1687   5.575  11.221   2.218 -0.9688  0.0271 -0.6700
31483SOL     OW 1688   6.691   4.119   5.832 -0.0986  0.0166  0.5859
31483SOL    HW1 1689   6.743   4.072   5.897 -0.7722 -1.8082 -0.1289
31483SOL    HW2 1690   6.617   4.154   5.882 -0.5037 -1.1974  0.8677
31484SOL     OW 1691   8.382   4.687   5.013  0.4799 -0.0606 -0.6677
31484SOL    HW1 1692   8.340   4.773   5.015  0.8571  0.1407  1.9151
31484SOL    HW2 1693   8.475   4.705   4.998  0.5637 -0.0076 -0.0936
31485SOL     OW 1694   5.320   8.397  11.519 -0.8556  0.0017 -0.0246
31485SOL    HW1 1695   5.370   8.318  11.539 -1.6496 -0.4430  0.2160
31485SOL    HW2 1696   5.284   8.381  11.432 -0.5703  0.3348 -0.2086
31486SOL     OW 1697   7.115   1.941   8.553 -0.0437 -0.0082 -0.4069
31486SOL    HW1 1698   7.155   2.020   8.589 -0.6864  0.4975 -0.7689
31486SOL    HW2 1699   7.177   1.911   8.487 -0.3710  0.9190 -1.1542
31487SOL     OW 1700  12.453   4.657   8.912 -0.7111 -0.5050  0.0433
31487SOL    HW1 1701  12.531   4.602   8.919  0.6841  1.3578 -0.0738
31487SOL    HW2 1702  12.448   4.680   8.819  1.1567  2.7664  0.6091
31488SOL     OW 1703   9.790   7.749   5.777  0.0752 -0.1219 -0.3271
31488SOL    HW1 1704   9.808   7.799   5.858 -1.7589  0.1637 -0.0422
31488SOL    HW2 1705   9.782   7.658   5.806 -2.9640  0.2408  0.3288
31489SOL     OW 1706   6.786   9.705   8.890  0.1093 -0.9034 -0.2618
31489SOL    HW1 1707   6.763   9.798   8.897 -0.8056 -1.0244 -1.3750
31489SOL    HW2 1708   6.763   9.669   8.975 -2.0816 -0.6115 -0.6628
31490SOL     OW 1709   5.477   0.365  10.505  0.0109 -0.0800 -0.5523
31490SOL    HW1 1710   5.404   0.396  10.452 -1.9312 -0.1371  1.9087
31490SOL    HW2 1711   5.454   0.275  10.527  1.3453 -0.4421 -0.5549
31491SOL     OW 1712   0.433   8.010   8.490 -0.6957 -0.1914 -0.0330
31491SOL    HW1 1713   0.436   7.923   8.450 -1.1836  0.7763 -2.3606
31491SOL    HW2 1714   0.458   8.070   8.419 -0.2847  1.5737  1.5227
31492SOL     OW 1715   0.493   0.599   0.901  0.1011 -0.5402  0.3976
31492SOL    HW1 1716   0.471   0.637   0.815 -2.5055 -1.6628  0.4735
31492SOL    HW2 1717   0.416   0.618   0.955  1.2720 -0.7647  2.1994
31493SOL     OW 1718   0.782   8.567   6.457 -0.2001 -0.0719  0.0859
31493SOL    HW1 1719   0.828   8.580   6.375  1.0567  1.4002  0.9786
31493SOL    HW2 1720   0.732   8.486   6.444  1.7244 -1.1052 -1.3358
31494SOL     OW 1721   4.637   0.631   3.936 -0.5320 -0.2340 -0.3455
31494SOL    HW1 1722   4.673   0.696   3.876 -0.4170  0.3390  0.3402
31494SOL    HW2 1723   4.543   0.648   3.937 -0.6574 -0.8308 -1.0546
31495SOL     OW 1724   4.208   8.358   8.558  0.6628  0.7020 -0.0380
31495SOL    HW1 1725   4.180   8.347   8.649  0.9415  1.5055  0.1548
31495SOL    HW2 1726   4.224   8.269   8.527  0.0651  0.3809  0.5382
31496SOL     OW 1727   2.175  11.893   4.788 -0.5410 -0.2108  0.2399
31496SOL    HW1 1728   2.166  11.798   4.784  0.0080 -0.2175 -1.8798
31496SOL    HW2 1729   2.135  11.924   4.707  1.1938  1.1812 -0.1417
31497SOL     OW 1730   1.456   0.377   2.550  0.0070  0.1365 -0.0882
31497SOL    HW1 1731   1.549   0.392   2.570 -0.5619  0.0628  3.0102
31497SOL    HW2 1732   1.418   0.348   2.632 -2.4932 -1.4487 -1.6751
31498SOL     OW 1733   4.014   1.410   0.652  0.2285  0.1371 -0.1833
31498SOL    HW1 1734   4.097   1.365   0.667  1.8279  2.0854 -2.5267
31498SOL    HW2 1735   3.991   1.389   0.562 -1.3238  0.4857  0.0887
31499SOL     OW 1736   6.487   2.994   8.562 -0.2260  0.4326 -0.2281
31499SOL    HW1 1737   6.525   3.022   8.479  1.5925 -1.4333 -0.1177
31499SOL    HW2 1738   6.537   3.041   8.629 -0.5227  0.6441 -0.1556
31500SOL     OW 1739   6.098   7.611  11.799  0.4064 -0.1353  0.2981
31500SOL    HW1 1740   6.104   7.674  11.727  1.2672 -0.0674  0.4197
31500SOL    HW2 1741   6.051   7.658  11.868  0.5917  0.1988  0.1986
31501SOL     OW 1742   2.864   5.345   5.742 -0.1633 -0.3806  0.2226
31501SOL    HW1 1743   2.862   5.440   5.744  3.3734 -0.1781  1.7999
31501SOL    HW2 1744   2.834   5.318   5.829  1.5551 -0.4713  0.8288
31502SOL     OW 1745   5.706   7.979   2.246  1.0935  0.2568 -0.7014
31502SOL    HW1 1746   5.643   8.040   2.209  1.1210  0.9526  0.3629
31502SOL    HW2 1747   5.791   8.014   2.220  1.1570  1.4022  0.9558
31503SOL     OW 1748   4.067   6.687   7.970  0.0975  0.2593 -0.3975
31503SOL    HW1 1749   4.001   6.623   7.942  1.0299 -0.8610 -0.1126
31503SOL    HW2 1750   4.106   6.718   7.888 -2.1120  2.5136 -0.7488
31504SOL     OW 1751   6.040   2.367  10.728 -0.5253 -0.7560 -0.1780
31504SOL    HW1 1752   6.113   2.397  10.783 -0.4263  1.5475 -1.4591
31504SOL    HW2 1753   6.082   2.340  10.646 -1.0735  1.0224 -1.0971
31505SOL     OW 1754   4.231   8.569   5.553  0.8859  0.3290  0.0649
31505SOL    HW1 1755   4.243   8.567   5.648  3.0949  1.4615 -0.1359
31505SOL    HW2 1756   4.317   8.593   5.518  0.2522 -0.5101 -2.2693
31506SOL     OW 1757   1.840   9.987  12.439 -0.1024  0.0435 -0.0332
31506SOL    HW1 1758   1.934   9.969  12.431  0.3794  2.0301  0.5634
31506SOL    HW2 1759   1.798   9.916  12.390  1.6622 -1.2246  0.1564
31507SOL     OW 1760  10.082   4.160   9.332 -0.3092  0.0654 -0.3874
31507SOL    HW1 1761  10.141   4.136   9.404 -0.0470 -1.2308 -1.0170
31507SOL    HW2 1762  10.138   4.207   9.271  0.2408 -1.6476 -1.2471
31508SOL     OW 1763   5.518  11.504   2.632  0.3820 -0.0647 -0.3834
31508SOL    HW1 1764   5.561  11.504   2.717  2.6784  0.4220 -1.4616
31508SOL    HW2 1765   5.476  11.590   2.626  1.4570  0.4796 -0.2991
31509SOL     OW 1766  12.090   4.894  12.474 -0.0222  0.2609  0.3916
31509SOL    HW1 1767  12.172   4.943  12.465 -0.7024  1.0478 -2.2630
31509SOL    HW2 1768  12.026   4.945  12.425 -1.7267 -1.2261  0.9771
31510SOL     OW 1769   8.210   6.736   5.727  0.2392  0.0112  0.2463
31510SOL    HW1 1770   8.272   6.664   5.717  0.8312  0.4918  0.4007
31510SOL    HW2 1771   8.134   6.710   5.675  1.1746  0.1135 -1.2196
31511SOL     OW 1772   6.274  10.081   7.061  0.3673  0.4104  0.8788
31511SOL    HW1 1773   6.273  10.169   7.098  1.2090  0.7365  0.1408
31511SOL    HW2 1774   6.184  10.050   7.070  0.1741  1.1614  1.5692
31512SOL     OW 1775   3.740   8.774   4.881 -0.7426  0.3061 -0.4288
31512SOL    HW1 1776   3.734   8.725   4.800 -0.8392 -0.8370  0.2510
31512SOL    HW2 1777   3.692   8.855   4.864 -2.5846 -0.8203 -0.8438
31513SOL     OW 1778  11.885   3.940   5.508  0.0860 -0.2362 -0.2398
31513SOL    HW1 1779  11.959   3.891   5.472 -0.3716  0.1014 -1.6827
31513SOL    HW2 1780  11.878   3.908   5.598  1.7667 -0.5134 -0.1702
31514SOL     OW 1781   4.082   0.222   9.951 -0.1953  0.2378 -0.4170
31514SOL    HW1 1782   4.150   0.268   9.902  0.4879 -0.6366 -0.3129
31514SOL    HW2 1783   4.009   0.283   9.953  0.4660  1.0672 -0.8207
31515SOL     OW 1784   1.969  10.051   6.141  0.2207  0.1970 -0.0353
31515SOL    HW1 1785   2.061  10.058   6.116  0.4226 -0.2961  0.5389
31515SOL    HW2 1786   1.956   9.957   6.157  0.0366  0.4622  1.4496
31516SOL     OW 1787   4.630   6.340   1.136 -0.0216  0.7230 -0.0045
31516SOL    HW1 1788   4.588   6.288   1.067  0.0514  1.4610 -0.6151
31516SOL    HW2 1789   4.577   6.419   1.141 -0.1599  0.5831  0.9537
31517SOL     OW 1790   9.144   6.723   9.373 -0.0251 -0.0546  0.4052
31517SOL    HW1 1791   9.190   6.648   9.336 -0.6280 -0.2659  0.0844
31517SOL    HW2 1792   9.102   6.689   9.452  1.4686  0.4512  1.4672
31518SOL     OW 1793   6.623  10.779   8.936 -0.1649 -0.2031 -0.0785
31518SOL    HW1 1794   6.628  10.859   8.988 -0.4276  1.1115 -1.9902
31518SOL    HW2 1795   6.544  10.788   8.884  0.5829 -0.9964 -1.4195
31519SOL     OW 1796   4.254   9.137   0.031  0.2169 -0.3185  0.2086
31519SOL    HW1 1797   4.202   9.065   0.068 -2.6239  1.0262 -0.8692
31519SOL    HW2 1798   4.283   9.187   0.107 -0.1322 -1.0908  0.8694
31520SOL     OW 1799   0.862   7.328  11.395 -0.3307  0.4305  0.0354
31520SOL    HW1 1800   0.914   7.274  11.337 -2.6126 -0.8255 -0.9862
31520SOL    HW2 1801   0.914   7.334  11.476  0.0996 -3.3216  0.2337
31521SOL     OW 1802  11.232   8.047  11.359  0.3228  0.5439 -0.3361
31521SOL    HW1 1803  11.189   8.132  11.365 -2.9478 -0.9776  0.0890
31521SOL    HW2 1804  11.166   7.990  11.318  3.0432 -1.4120 -2.3734
31522SOL     OW 1805   5.199   3.670   6.568 -0.6116 -0.3154 -0.1810
31522SOL    HW1 1806   5.222   3.724   6.492 -0.2846 -1.3835 -0.8804
31522SOL    HW2 1807   5.230   3.719   6.644  3.1923 -1.1500 -0.9733
31523SOL     OW 1808   2.365   2.731   0.307 -0.5780 -0.0394 -0.1734
31523SOL    HW1 1809   2.354   2.673   0.382  0.7580  0.8213  0.7424
31523SOL    HW2 1810   2.360   2.819   0.345  2.3538  0.4459 -0.6396
31524SOL     OW 1811   0.331   9.029   5.756 -0.3920  0.7810  0.0884
31524SOL    HW1 1812   0.255   9.027   5.814  0.4039  1.1521  1.1860
31524SOL    HW2 1813   0.404   9.003   5.812  0.2553  0.1415 -1.0129
31525SOL     OW 1814  11.783   0.590   6.308 -0.3755 -0.4205  0.3026
31525SOL    HW1 1815  11.760   0.679   6.333  0.1457 -0.2741  0.2635
31525SOL    HW2 1816  11.699   0.544   6.302 -0.7075  0.3000 -0.6072
31526SOL     OW 1817   1.425   7.693   3.388  0.2756 -0.3511 -0.4367
31526SOL    HW1 1818   1.496   7.714   3.449 -0.3306 -0.7536  0.4264
31526SOL    HW2 1819   1.468   7.649   3.315  0.8980 -0.7684  0.1667
31527SOL     OW 1820  10.199  11.712   1.547  0.0671 -0.3888  0.1637
31527SOL    HW1 1821  10.254  11.766   1.490  0.7163  0.2898  1.3837
31527SOL    HW2 1822  10.118  11.699   1.497  0.2288  1.0140 -0.5216
31528SOL     OW 1823   4.267  11.325   0.989 -1.0037  0.0780  0.1043
31528SOL    HW1 1824   4.278  11.335   1.083 -0.3936  0.5125 -0.0087
31528SOL    HW2 1825   4.335  11.381   0.951 -0.9607 -0.4389 -0.5899
31529SOL     OW 1826  11.057   1.864   6.203 -0.4757 -0.2782  0.0518
31529SOL    HW1 1827  10.961   1.872   6.207 -0.5734 -0.1152 -1.7481
31529SOL    HW2 1828  11.072   1.802   6.131  0.8089  3.1634 -2.9369
31530SOL     OW 1829   4.729   6.570   1.296 -0.0043 -0.2223  0.3887
31530SOL    HW1 1830   4.692   6.605   1.215 -0.2446 -1.2002  0.0714
31530SOL    HW2 1831   4.728   6.475   1.285 -2.1811 -0.5510  2.4202
31531SOL     OW 1832  11.436   1.137  12.245 -0.4768 -0.4744 -0.3573
31531SOL    HW1 1833  11.528   1.165  12.246 -1.4002  3.1080 -1.9158
31531SOL    HW2 1834  11.398   1.177  12.323 -1.2087  0.0728 -0.9862
31532SOL     OW 1835  11.030   4.727  10.154  0.2557 -0.4104 -0.0207
31532SOL    HW1 1836  10.993   4.746  10.068  0.4188 -0.7054 -0.1572
31532SOL    HW2 1837  11.050   4.813  10.191  0.2283 -0.2839 -0.2978
31533SOL     OW 1838   3.593  12.663   7.431 -0.0680  0.1097 -0.2096
31533SOL    HW1 1839   3.561  12.731   7.371 -0.6503  0.3072  0.3158
31533SOL    HW2 1840   3.683  12.690   7.452 -0.6158  1.2839  0.7670
31534SOL     OW 1841   4.600   4.230   2.410 -0.1958 -0.6119  0.1936
31534SOL    HW1 1842   4.690   4.260   2.402 -0.4453 -0.0321 -0.6180
31534SOL    HW2 1843   4.553   4.303   2.449 -0.4937 -0.5525 -0.2707
31535SOL     OW 1844   4.308  10.091  11.517  0.3804 -0.7212  0.3138
31535SOL    HW1 1845   4.356  10.170  11.540  1.4129 -0.8482 -1.2577
31535SOL    HW2 1846   4.226  10.123  11.478  1.1080 -0.3706 -0.9870
31536SOL     OW 1847   0.533   8.689   2.125 -0.0859 -0.2497  0.1758
31536SOL    HW1 1848   0.582   8.607   2.129 -0.1362 -0.3491 -0.9969
31536SOL    HW2 1849   0.539   8.716   2.034 -1.2673  0.3195  0.2460
31537SOL     OW 1850   3.573   1.604  10.489 -0.5337  0.4315  0.3860
31537SOL    HW1 1851   3.649   1.634  10.539 -0.3139 -0.5135  0.6417
31537SOL    HW2 1852   3.603   1.602  10.398 -0.1164 -0.3012  0.5297
31538SOL     OW 1853   1.978   7.639   4.444  0.5900  0.2480  0.0403
31538SOL    HW1 1854   1.884   7.654   4.456  0.5708  0.7715 -0.6333
31538SOL    HW2 1855   1.984   7.597   4.358  0.9078 -0.6794  0.5078
31539SOL     OW 1856  11.808   0.477   9.810 -0.0019  0.1219  0.2162
31539SOL    HW1 1857  11.898   0.508   9.804 -0.9362  3.0420 -0.2965
31539SOL    HW2 1858  11.772   0.492   9.722 -0.4513 -3.0786 -0.2574
31540SOL     OW 1859   6.920  12.239   1.888 -0.5263  0.2874  0.1041
31540SOL    HW1 1860   6.845  12.251   1.946 -1.1813  1.5382 -0.9400
31540SOL    HW2 1861   6.949  12.328   1.867  1.2629 -0.1831  0.4845
31541SOL     OW 1862   9.373   0.425   8.798  0.3092 -0.8108  0.3095
31541SOL    HW1 1863   9.333   0.511   8.799  1.2045 -0.3799  0.6603
31541SOL    HW2 1864   9.355   0.388   8.885  0.1300 -0.8783  0.2433
31542SOL     OW 1865   9.886   9.892   6.080 -0.1489  0.4348  0.5853
31542SOL    HW1 1866   9.940   9.923   6.152  4.1632  2.0564 -2.8543
31542SOL    HW2 1867   9.946   9.844   6.024 -3.0134 -0.1606 -2.2934
31543SOL     OW 1868  12.598   7.292   6.194 -0.2219 -0.3829  0.4502
31543SOL    HW1 1869  12.601   7.313   6.101 -0.2332  1.0278  0.7374
31543SOL    HW2 1870  12.651   7.361   6.236 -1.1124 -0.3382  1.5705
31544SOL     OW 1871  11.621   1.970  10.565  0.4616 -0.0023  0.1831
31544SOL    HW1 1872  11.594   2.061  10.558 -1.5056 -0.6472 -2.1744
31544SOL    HW2 1873  11.706   1.965  10.522  1.3882  0.9479  1.8184
31545SOL     OW 1874  10.962  10.908   3.629  0.0594  0.0273  0.4844
31545SOL    HW1 1875  11.038  10.959   3.602  0.4594 -0.7019  0.2055
31545SOL    HW2 1876  10.887  10.966   3.613  0.2351 -0.3977 -2.3750
31546SOL     OW 1877  10.414   2.897   9.031 -0.1931 -0.3206 -0.1117
31546SOL    HW1 1878  10.470   2.942   9.095 -0.6678  0.2398 -0.0816
31546SOL    HW2 1879  10.474   2.841   8.982  0.4504  0.4587 -0.2450
31547SOL     OW 1880   4.042   9.443  10.730  0.2851 -0.1877 -0.5964
31547SOL    HW1 1881   4.124   9.402  10.703 -0.1828 -1.6652  0.1218
31547SOL    HW2 1882   4.036   9.424  10.824  0.6329  2.6113  0.0967
31548SOL     OW 1883  10.091   4.696   8.451  0.4382  0.3538 -0.0152
31548SOL    HW1 1884  10.061   4.742   8.529 -1.7854  0.2663 -0.7399
31548SOL    HW2 1885  10.122   4.612   8.484  1.1382  0.9659  0.9368
31549SOL     OW 1886  12.520   4.994   4.844  0.4073  0.3647 -0.2460
31549SOL    HW1 1887  12.613   4.994   4.819  0.3375  0.2278 -0.5032
31549SOL    HW2 1888  12.505   4.905   4.877  0.1593  0.1284 -0.9760
31550SOL     OW 1889   1.495   4.367   8.120 -0.2058  0.1791 -0.6696
31550SOL    HW1 1890   1.410   4.324   8.110 -0.8504  1.2918 -0.1930
31550SOL    HW2 1891   1.539   4.353   8.036 -0.3521 -1.4404 -0.5004
31551SOL     OW 1892  10.146   1.333   0.272  0.3501  0.3272  0.1487
31551SOL    HW1 1893  10.104   1.386   0.203  1.3015 -0.6231 -1.2044
31551SOL    HW2 1894  10.232   1.312   0.237  0.3132 -1.4155  1.0174
31552SOL     OW 1895   2.445   2.392   1.594 -0.1352  0.3311 -0.2167
31552SOL    HW1 1896   2.436   2.456   1.664 -1.1082  1.9841 -1.7770
31552SOL    HW2 1897   2.514   2.426   1.538  0.7097 -1.0245 -0.0591
31553SOL     OW 1898   7.928   5.123  10.395 -0.0542  0.6158  0.4306
31553SOL    HW1 1899   7.952   5.157  10.480 -2.4695  1.4013  0.8610
31553SOL    HW2 1900   7.887   5.038  10.413 -0.4762  0.7310  0.0451
31554SOL     OW 1901   0.388   3.929  11.529 -0.4421  0.1934  0.1111
31554SOL    HW1 1902   0.415   3.965  11.613  0.5498  0.4126 -0.2922
31554SOL    HW2 1903   0.433   3.983  11.463  2.2728 -2.5409 -0.5272
31555SOL     OW 1904   9.575   9.578   2.087 -0.5883 -0.2391 -0.5050
31555SOL    HW1 1905   9.503   9.640   2.090 -0.5999 -0.2739  0.7323
31555SOL    HW2 1906   9.654   9.633   2.090 -0.5744 -0.2181  2.6475
31556SOL     OW 1907   1.679   5.959   7.344  0.0596 -0.1325  0.1936
31556SOL    HW1 1908   1.758   5.929   7.390 -1.5482 -1.4947  2.2821
31556SOL    HW2 1909   1.709   5.983   7.257  2.3477 -3.2087 -0.0161
31557SOL     OW 1910   5.350   5.530   7.673  0.2848 -0.1388 -0.2363
31557SOL    HW1 1911   5.421   5.521   7.610 -0.5383 -0.5658 -1.1303
31557SOL    HW2 1912   5.294   5.599   7.635 -0.0846 -0.2216  0.1538
31558SOL     OW 1913   0.621   7.106   0.271  0.1156  0.0150 -0.2149
31558SOL    HW1 1914   0.690   7.063   0.220  1.3814 -0.2262  1.6211
31558SOL    HW2 1915   0.657   7.193   0.290  0.8411 -0.7497  2.3557
31559SOL     OW 1916   3.985   5.078   7.510  0.2862  0.6144  0.4097
31559SOL    HW1 1917   3.929   5.156   7.508 -0.4540  0.1071  0.7339
31559SOL    HW2 1918   4.071   5.110   7.483 -0.8958  0.7209 -4.0132
31560SOL     OW 1919   9.942   6.713   4.266 -0.4386 -0.5988  0.2619
31560SOL    HW1 1920   9.856   6.754   4.274  0.9074  2.7222 -0.4488
31560SOL    HW2 1921   9.957   6.670   4.350 -2.4223 -0.5595  0.6803
31561SOL     OW 1922  10.935   1.410   5.164 -0.0885 -0.2924 -0.8081
31561SOL    HW1 1923  11.029   1.422   5.154  0.1350  0.1035  1.3238
31561SOL    HW2 1924  10.926   1.322   5.200 -0.2666  0.6934  1.7168
31562SOL     OW 1925   0.351   5.738  11.625 -0.3301  0.0883  0.1476
31562SOL    HW1 1926   0.366   5.696  11.710 -1.7791 -0.3427  0.2160
31562SOL    HW2 1927   0.306   5.820  11.647 -0.9080 -0.1285 -0.2035
31563SOL     OW 1928   4.246  11.458   5.483  0.0404 -0.3681  0.0516
31563SOL    HW1 1929   4.157  11.423   5.490 -0.8928  1.6949 -0.7498
31563SOL    HW2 1930   4.301  11.394   5.529 -1.9742 -1.1963  1.4319
31564SOL     OW 1931   8.012   8.274   1.261 -0.0148 -0.1979  0.0545
31564SOL    HW1 1932   7.935   8.230   1.297 -0.3848  0.5781  0.2326
31564SOL    HW2 1933   7.989   8.290   1.169  0.2795 -0.7264 -0.1135
31565SOL     OW 1934   3.759   9.175   9.877 -0.4646  0.2512  0.2811
31565SOL    HW1 1935   3.819   9.127   9.934 -0.7197  0.7246  0.9625
31565SOL    HW2 1936   3.688   9.203   9.935 -2.0973 -1.5023 -0.7665
31566SOL     OW 1937   2.906   9.812  10.176 -0.4458  0.0339  0.2816
31566SOL    HW1 1938   2.815   9.784  10.161 -0.6537  1.3525 -1.1498
31566SOL    HW2 1939   2.899   9.901  10.208  0.3273 -0.4052  1.7666
31567SOL     OW 1940   8.826   2.279   6.957 -0.2073 -0.4440  0.0087
31567SOL    HW1 1941   8.918   2.296   6.979 -0.5140 -0.7507  1.6761
31567SOL    HW2 1942   8.783   2.271   7.042 -1.5225 -1.6961 -0.7440
31568SOL     OW 1943   0.902   5.298   7.592 -0.3696  0.2343  0.5643
31568SOL    HW1 1944   0.990   5.293   7.629 -0.0409  1.0654 -0.0771
31568SOL    HW2 1945   0.868   5.381   7.625 -1.1232 -0.3253  1.2383
31569SOL     OW 1946   2.433   8.288   3.961  0.5881 -0.3494 -0.2638
31569SOL    HW1 1947   2.357   8.337   3.991  0.4441 -0.9835  0.4387
31569SOL    HW2 1948   2.488   8.353   3.917 -0.1471  0.1975 -0.3870
31570SOL     OW 1949   9.323   5.514   5.752 -0.3861  0.1257 -0.0070
31570SOL    HW1 1950   9.293   5.501   5.842 -0.6551 -1.4893 -0.3021
31570SOL    HW2 1951   9.412   5.479   5.751  0.5318  2.2727  0.1580
31571SOL     OW 1952   5.072   5.696   3.711  0.5413 -0.0737 -0.4441
31571SOL    HW1 1953   5.086   5.660   3.623  1.2792 -1.3599  0.1749
31571SOL    HW2 1954   5.054   5.619   3.766 -1.9183  0.8608  0.1932
31572SOL     OW 1955  10.477   3.855   7.594  0.1054 -0.1168  0.1368
31572SOL    HW1 1956  10.417   3.927   7.574 -0.4276 -0.4010  0.6942
31572SOL    HW2 1957  10.422   3.786   7.630  0.6377 -0.7350 -0.1854
31573SOL     OW 1958   3.486   2.158   4.309  0.6589  0.0913 -0.5383
31573SOL    HW1 1959   3.456   2.086   4.254  0.8801  0.6519 -1.4136
31573SOL    HW2 1960   3.574   2.178   4.277  1.1057 -0.0839  0.5455
31574SOL     OW 1961   7.455   1.120   5.426  0.0755 -0.1330 -0.7261
31574SOL    HW1 1962   7.412   1.054   5.480  0.6539  0.8446  0.9958
31574SOL    HW2 1963   7.539   1.081   5.403  0.0961 -0.3045 -0.3649
31575SOL     OW 1964   5.964   8.754  10.540 -0.4794 -0.1405 -0.3936
31575SOL    HW1 1965   6.050   8.711  10.539 -0.3295  0.1210 -2.1261
31575SOL    HW2 1966   5.902   8.681  10.533 -0.4572 -0.3702  1.3957
31576SOL     OW 1967   3.190   3.156   0.441 -0.0287  0.4348  0.2056
31576SOL    HW1 1968   3.272   3.111   0.460 -0.8808 -0.5143  1.8535
31576SOL    HW2 1969   3.123   3.104   0.485 -1.5923  0.9308 -1.4693
31577SOL     OW 1970   7.468   1.877  11.939 -0.3382  0.5249 -0.6556
31577SOL    HW1 1971   7.478   1.972  11.948 -1.6736  0.6064  0.2480
31577SOL    HW2 1972   7.557   1.843  11.945  0.0751  1.6615 -0.0596
31578SOL     OW 1973  10.786  10.023   8.704 -0.4071 -0.5154 -0.5135
31578SOL    HW1 1974  10.709  10.067   8.668 -0.1263 -0.3703 -0.9485
31578SOL    HW2 1975  10.814   9.963   8.636 -0.4680 -0.9767 -0.1321
31579SOL     OW 1976   0.051  11.482   7.897  0.2854 -0.6506  0.3886
31579SOL    HW1 1977   0.038  11.570   7.861  1.6740 -0.0681  1.2132
31579SOL    HW2 1978   0.028  11.423   7.826  3.0462  0.4384 -1.6048
31580SOL     OW 1979   5.531   5.507   6.919  0.3168 -0.4075 -0.3307
31580SOL    HW1 1980   5.513   5.487   7.011  0.4679  0.1847 -0.1673
31580SOL    HW2 1981   5.522   5.602   6.913 -2.9875 -0.6776 -1.6578
31581SOL     OW 1982   6.797   3.500   8.856  0.5402  0.1066  0.0816
31581SOL    HW1 1983   6.887   3.528   8.842  0.5155  1.3215  2.0152
31581SOL    HW2 1984   6.796   3.468   8.946 -0.9739  0.2385  0.1310
31582SOL     OW 1985   3.430   9.810  11.131 -0.2769  0.1092 -0.6281
31582SOL    HW1 1986   3.400   9.720  11.136 -1.8808  0.6020 -0.8473
31582SOL    HW2 1987   3.472   9.826  11.215  2.7479 -1.6933 -1.6245
31583SOL     OW 1988  10.558   9.867   9.219  0.2712 -1.0515 -0.3692
31583SOL    HW1 1989  10.650   9.870   9.194  0.6012 -1.1410  0.7727
31583SOL    HW2 1990  10.510   9.890   9.139  1.2741 -1.1323 -1.0026
31584SOL     OW 1991  12.241  11.654  11.384 -0.0542  0.2989  0.0515
31584SOL    HW1 1992  12.273  11.601  11.457  2.5540  0.7691 -0.6599
31584SOL    HW2 1993  12.166  11.701  11.421  0.6249 -0.1465  2.1682
31585SOL     OW 1994  10.307  11.446   8.194  0.0187  0.5661  0.0551
31585SOL    HW1 1995  10.253  11.368   8.185 -0.2394  0.9299 -1.9689
31585SOL    HW2 1996  10.373  11.421   8.259 -0.6300 -0.9962  0.1658
31586SOL     OW 1997   7.888   9.394   6.187 -0.4025  0.1071  0.1232
31586SOL    HW1 1998   7.793   9.382   6.193 -0.3453 -0.5482 -0.2057
31586SOL    HW2 1999   7.924   9.305   6.185  0.2286  0.3496  0.3574
31587SOL     OW 2000   0.342   2.754  11.415  0.7736  0.0963 -0.1073
31587SOL    HW1 2001   0.347   2.846  11.440 -0.5136  0.1040  0.2008
31587SOL    HW2 2002   0.261   2.748  11.364 -0.3107 -1.2323  1.6472
31588SOL     OW 2003   9.860   1.827   9.886  0.4925 -0.0709  0.2722
31588SOL    HW1 2004   9.879   1.821   9.980  1.1434 -1.6575  0.0752
31588SOL    HW2 2005   9.803   1.752   9.868  0.7281 -0.0344 -0.6779
31589SOL     OW 2006   8.892   9.040   8.864 -0.0294  0.5845 -0.3836
31589SOL    HW1 2007   8.974   9.035   8.913 -0.7185  0.6696  0.8120
31589SOL    HW2 2008   8.850   8.955   8.880 -2.0960  1.9794  2.5749
31590SOL     OW 2009   6.167   9.504   9.149 -0.0485 -0.5800 -0.1971
31590SOL    HW1 2010   6.163   9.573   9.083 -0.8701 -0.9698 -0.5751
31590SOL    HW2 2011   6.260   9.491   9.165  0.1469 -0.1669 -0.9476
31591SOL     OW 2012   6.098   8.261   6.650  0.0163 -0.3594 -0.0270
31591SOL    HW1 2013   6.142   8.190   6.604 -1.0872 -1.5304  0.6788
31591SOL    HW2 2014   6.016   8.273   6.602 -0.0386  0.0939  0.1732
31592SOL     OW 2015   7.999  11.923  12.700 -0.1412 -0.2987 -0.2852
31592SOL    HW1 2016   8.002  11.862  12.627 -1.8575  0.6412 -1.2020
31592SOL    HW2 2017   8.080  11.974  12.692  0.8558 -1.7979 -0.0490
31593SOL     OW 2018   6.079   8.569   5.383  0.3561 -0.3086  0.0257
31593SOL    HW1 2019   6.017   8.608   5.321  1.3256  0.4241 -0.5205
31593SOL    HW2 2020   6.151   8.539   5.328 -0.6232 -3.5837  0.3237
31594SOL     OW 2021   0.858  11.403  12.261  0.1844  0.1038  1.2052
31594SOL    HW1 2022   0.894  11.491  12.255  0.4249 -0.0681 -3.3525
31594SOL    HW2 2023   0.771  11.415  12.299 -0.8098  2.7967 -1.5882
31595SOL     OW 2024  10.347   6.413   0.198 -0.7499 -0.1308  0.0072
31595SOL    HW1 2025  10.367   6.507   0.204 -0.5564 -0.1888  0.3172
31595SOL    HW2 2026  10.253   6.409   0.182 -0.2822  0.2055 -3.5357
31596SOL     OW 2027  12.395  12.509   7.813 -0.0847  0.0166  0.0651
31596SOL    HW1 2028  12.343  12.525   7.892 -1.8282 -2.3681 -0.4812
31596SOL    HW2 2029  12.436  12.424   7.829  0.6132  0.1243 -1.0683
31597SOL     OW 2030  10.062   8.644   3.650  0.6185  0.4169  0.1772
31597SOL    HW1 2031  10.135   8.581   3.644 -0.5481 -0.9152 -0.9945
31597SOL    HW2 2032  10.000   8.602   3.709  0.0598  0.7026 -0.1996
31598SOL     OW 2033   0.593   4.747   5.622  0.1907  0.4059  0.0029
31598SOL    HW1 2034   0.529   4.793   5.677  1.6254  1.3936  0.9164
31598SOL    HW2 2035   0.592   4.795   5.540 -0.0767  0.5444  0.0845
31599SOL     OW 2036   5.418  10.527   1.549  0.2745 -0.1199  0.3369
31599SOL    HW1 2037   5.485  10.542   1.483  0.0698  1.6147  0.4804
31599SOL    HW2 2038   5.341  10.499   1.499  0.6562 -0.6358  0.0300
31600SOL     OW 2039  11.288   6.979  11.262 -0.4540  0.3141  0.3676
31600SOL    HW1 2040  11.375   6.973  11.300 -0.0953 -2.5926 -0.6225
31600SOL    HW2 2041  11.235   6.917  11.312 -1.2232  0.0732 -0.6936
31601SOL     OW 2042   4.968   1.400   3.721 -0.3213  0.2518  0.8567
31601SOL    HW1 2043   5.032   1.435   3.659 -1.2893  1.4473  0.4931
31601SOL    HW2 2044   4.954   1.310   3.692  0.2345  0.3793  0.1506
31602SOL     OW 2045  12.582   4.974  10.325 -0.7502 -0.2683  0.0626
31602SOL    HW1 2046  12.627   4.971  10.240  0.2171  2.0396  0.4311
31602SOL    HW2 2047  12.500   4.927  10.309  1.0271 -3.3517 -1.0361
31603SOL     OW 2048   7.360   4.780   7.140  0.5706  0.0436  0.1817
31603SOL    HW1 2049   7.449   4.814   7.137  0.4156  0.4380 -0.0060
31603SOL    HW2 2050   7.356   4.730   7.222  0.9833 -0.0401  0.1530
31604SOL     OW 2051   0.665   7.957   4.362  0.4128 -0.5655 -0.0586
31604SOL    HW1 2052   0.652   8.031   4.421 -0.2716  0.4208 -1.3838
31604SOL    HW2 2053   0.715   7.993   4.289  0.6474 -1.5920 -0.4283
31605SOL     OW 2054   8.336  12.230  10.325  0.3098  0.1393  0.0480
31605SOL    HW1 2055   8.334  12.146  10.280  0.4534  0.9353 -1.5074
31605SOL    HW2 2056   8.245  12.259  10.326 -0.1845 -1.1257  2.8681
31606SOL     OW 2057  12.536  11.175   5.123 -0.0740 -0.1710 -0.2367
31606SOL    HW1 2058  12.617  11.208   5.162  0.3000  0.6760 -1.6651
31606SOL    HW2 2059  12.554  11.173   5.029 -1.6356 -0.1982 -0.5567
31607SOL     OW 2060   3.401   9.082   8.346 -0.3856  0.5605 -0.0687
31607SOL    HW1 2061   3.433   9.164   8.308 -0.7251  0.9845  0.5599
31607SOL    HW2 2062   3.459   9.015   8.309 -0.5346  0.9907 -1.1285
31608SOL     OW 2063  12.429  10.908   7.523  0.1381  0.4383  0.1754
31608SOL    HW1 2064  12.353  10.893   7.580 -0.5869 -0.0119 -0.8805
31608SOL    HW2 2065  12.497  10.942   7.582 -0.1573 -1.2322  1.5641
31609SOL     OW 2066   2.487   9.784   1.244 -0.3898  0.3023 -0.1460
31609SOL    HW1 2067   2.562   9.796   1.187  0.0031 -1.5452 -0.0695
31609SOL    HW2 2068   2.420   9.743   1.189 -0.4525 -0.3390  0.3907
31610SOL     OW 2069   2.180   8.906  11.935  0.1798 -0.1072  0.3758
31610SOL    HW1 2070   2.138   8.902  12.021  0.8632 -1.0713  0.6929
31610SOL    HW2 2071   2.165   8.819  11.897 -0.6443  0.5042 -0.7522
31611SOL     OW 2072   5.716   7.504   4.049 -0.5815  0.5201  0.4494
31611SOL    HW1 2073   5.809   7.488   4.063 -0.0507  2.7363 -0.1572
31611SOL    HW2 2074   5.713   7.568   3.978 -2.5338  1.0333  0.9437
31612SOL     OW 2075   1.991   2.068   9.497  0.3397 -0.6320  0.0202
31612SOL    HW1 2076   1.959   2.080   9.586  0.6057  0.0487  0.0295
31612SOL    HW2 2077   1.926   2.111   9.442  0.0765 -1.2141 -0.1392
31613SOL     OW 2078   2.509   9.364   7.438 -0.4120  0.3612 -0.6355
31613SOL    HW1 2079   2.463   9.378   7.520 -0.1965  2.5232 -0.8349
31613SOL    HW2 2080   2.447   9.315   7.384 -0.4204 -1.4142  0.8696
31614SOL     OW 2081   0.884  11.346   9.100  0.7390 -0.3774 -0.1038
31614SOL    HW1 2082   0.837  11.403   9.161 -0.3517 -2.6355  1.2924
31614SOL    HW2 2083   0.826  11.339   9.024 -0.0140 -1.0730  0.5160
31615SOL     OW 2084   3.430   4.889   4.540  0.2665 -0.2748  0.1988
31615SOL    HW1 2085   3.374   4.906   4.464 -0.6139 -0.2227  0.8487
31615SOL    HW2 2086   3.499   4.954   4.534 -0.5590  0.6205  0.1849
31616SOL     OW 2087   8.228   7.740   1.583  0.1994 -0.6286  0.5392
31616SOL    HW1 2088   8.244   7.798   1.657  0.5139  0.1995 -0.1689
31616SOL    HW2 2089   8.252   7.791   1.505 -3.3837 -0.1549 -0.4470
31617SOL     OW 2090   7.425   9.421   4.560  0.2945  0.0377 -0.0318
31617SOL    HW1 2091   7.427   9.399   4.653 -2.1959  0.6400  0.2354
31617SOL    HW2 2092   7.482   9.498   4.553  0.9540 -0.3420  0.8778
31618SOL     OW 2093  10.254   7.438   2.690  0.2657 -0.4093 -0.5960
31618SOL    HW1 2094  10.261   7.346   2.716 -1.2704 -0.8150 -1.4809
31618SOL    HW2 2095  10.228   7.484   2.770 -0.3494 -0.9817 -0.4571
31619SOL     OW 2096   1.326   0.483   7.177 -0.2944 -0.3845  0.2860
31619SOL    HW1 2097   1.381   0.557   7.202  0.3843 -1.0981  0.9691
31619SOL    HW2 2098   1.284   0.511   7.096  0.2396  0.5984  0.3283
31620SOL     OW 2099  11.805   3.598   3.253  0.0281  0.0185 -0.1904
31620SOL    HW1 2100  11.899   3.592   3.235  0.5552  1.5056  1.8440
31620SOL    HW2 2101  11.786   3.520   3.306  0.2684  0.1104  0.0314
31621SOL     OW 2102  12.064   8.067  10.379 -0.6815  0.0979  0.1811
31621SOL    HW1 2103  12.016   8.118  10.314  0.1887 -0.1996 -0.7112
31621SOL    HW2 2104  12.155   8.097  10.370 -0.1911 -1.4570 -0.2288
31622SOL     OW 2105  10.073   0.686   9.081  0.0234  0.4906  0.6833
31622SOL    HW1 2106  10.113   0.604   9.109 -1.9177 -0.4221  0.9734
31622SOL    HW2 2107  10.142   0.751   9.091  1.5001 -1.0263  0.8232
31623SOL     OW 2108  11.279   6.582   6.315  0.0404  0.2467  0.0073
31623SOL    HW1 2109  11.222   6.541   6.380 -2.2281  2.5419 -0.3316
31623SOL    HW2 2110  11.237   6.562   6.231  0.3883  0.9800 -0.3532
31624SOL     OW 2111   6.064  10.486  10.076 -0.5147  0.5894  0.0192
31624SOL    HW1 2112   6.113  10.558  10.116  1.1329 -0.5732  0.2074
31624SOL    HW2 2113   6.055  10.421  10.146 -0.3781 -0.1368 -0.6173
31625SOL     OW 2114   0.551  10.684   5.033  0.3600 -0.0857  0.3423
31625SOL    HW1 2115   0.551  10.645   5.120  2.2214  2.3723  1.5576
31625SOL    HW2 2116   0.630  10.649   4.991  0.5139  0.2187  0.3765
31626SOL     OW 2117   2.521   2.932   3.695 -0.1933 -0.4997 -0.2688
31626SOL    HW1 2118   2.581   3.006   3.688 -0.6125 -0.0570  0.7253
31626SOL    HW2 2119   2.573   2.863   3.737 -0.4440 -0.0267  0.8445
31627SOL     OW 2120   4.570   3.081  12.272  0.1940  0.0513 -0.2860
31627SOL    HW1 2121   4.628   3.060  12.199 -0.0231 -1.3975 -0.0776
31627SOL    HW2 2122   4.509   3.146  12.237  0.7748  0.1958 -1.0572
31628SOL     OW 2123   5.735  11.401   5.694 -0.0108 -0.1637 -0.4687
31628SOL    HW1 2124   5.661  11.388   5.753  0.6236 -0.9407  0.1641
31628SOL    HW2 2125   5.804  11.438   5.749 -0.6908  3.0968 -1.5327
31629SOL     OW 2126  12.084   6.530   8.094 -0.3961  0.4735 -0.2284
31629SOL    HW1 2127  12.166   6.531   8.044  0.0163  0.6823  0.4332
31629SOL    HW2 2128  12.026   6.587   8.046 -0.1249  0.3871 -0.6657
31630SOL     OW 2129   5.622   4.470   1.123 -0.5035 -0.4078  0.0316
31630SOL    HW1 2130   5.624   4.493   1.216 -1.0668 -0.2559  0.0145
31630SOL    HW2 2131   5.557   4.399   1.117 -0.4251 -0.4579 -0.2334
31631SOL     OW 2132  12.323   4.246   0.021  0.0998  0.8191  0.0140
31631SOL    HW1 2133  12.241   4.229  -0.024 -0.3352  0.6266  0.8626
31631SOL    HW2 2134  12.344   4.337   0.000 -0.1260  0.7486 -0.5146
31632SOL     OW 2135   1.585   4.371   4.864 -0.8766  0.0310  0.4523
31632SOL    HW1 2136   1.622   4.380   4.776  2.5195 -2.6612  1.3810
31632SOL    HW2 2137   1.624   4.443   4.914 -1.0621  0.2562  0.2775
31633SOL     OW 2138  11.040   1.480   0.873  0.3340 -0.1046  0.2206
31633SOL    HW1 2139  11.058   1.408   0.813 -0.2709  0.8566 -1.1495
31633SOL    HW2 2140  11.039   1.558   0.818 -2.6756  0.5529  1.0145
31634SOL     OW 2141   4.005   4.210   4.874  0.4142  0.0190  0.1379
31634SOL    HW1 2142   3.996   4.132   4.929  0.4023 -0.2579 -0.2564
31634SOL    HW2 2143   3.986   4.283   4.933  2.9777 -0.0704  1.2081
31635SOL     OW 2144   8.916   2.249  10.589 -0.5441 -0.1318 -0.4075
31635SOL    HW1 2145   8.972   2.297  10.650  0.7633 -0.1355 -1.5654
31635SOL    HW2 2146   8.977   2.203  10.532 -1.7527 -2.3228 -0.0317
31636SOL     OW 2147   3.813  11.766   3.078 -0.2762 -0.3323 -0.2357
31636SOL    HW1 2148   3.853  11.787   3.162  0.9849 -0.9079 -0.6765
31636SOL    HW2 2149   3.721  11.750   3.099 -0.4983  1.7456  0.6853
31637SOL     OW 2150   5.399  11.453   3.232  0.1140 -0.0999  0.4473
31637SOL    HW1 2151   5.434  11.542   3.236  0.0450 -0.1102  2.0036
31637SOL    HW2 2152   5.313  11.463   3.191  0.4876  0.4112 -0.2304
31638SOL     OW 2153  12.585  11.956   7.087 -0.4465  0.3460  0.1197
31638SOL    HW1 2154  12.490  11.951   7.098 -0.6479  0.5654 -1.2825
31638SOL    HW2 2155  12.597  11.969   6.993  1.0361 -1.1824  0.0617
31639SOL     OW 2156   1.098   8.257   3.296  0.1553  0.4016 -0.0589
31639SOL    HW1 2157   1.052   8.288   3.374 -0.1001  0.7902 -0.3608
31639SOL    HW2 2158   1.030   8.215   3.243  0.2603  0.4569 -0.2397
31640SOL     OW 2159   5.456   4.995   6.589 -0.3166 -0.3147  0.4821
31640SOL    HW1 2160   5.542   4.956   6.569 -0.5231  0.2294 -1.7224
31640SOL    HW2 2161   5.473   5.053   6.662  1.2759 -0.0333 -0.0658
31641SOL     OW 2162  10.242   6.973   7.215  0.0317  0.1811 -0.0015
31641SOL    HW1 2163  10.287   6.899   7.172 -0.7495 -0.5636  0.4303
31641SOL    HW2 2164  10.285   7.051   7.179  1.4003 -0.4907  0.1001
31642SOL     OW 2165   6.345   4.068   8.836 -0.1882 -0.1363 -0.3733
31642SOL    HW1 2166   6.408   4.038   8.771 -0.0263 -0.3942 -0.0957
31642SOL    HW2 2167   6.262   4.073   8.788 -0.5693 -2.5004 -0.1008
31643SOL     OW 2168   9.276   8.835   3.854 -0.0129  0.1988  0.1251
31643SOL    HW1 2169   9.208   8.896   3.826  0.9509  1.3306  0.1620
31643SOL    HW2 2170   9.232   8.776   3.915 -1.2879 -0.0219 -0.9886
31644SOL     OW 2171   1.017   8.551   8.972 -0.5758 -0.0329 -0.2781
31644SOL    HW1 2172   1.016   8.470   9.022  0.7080  0.1525  0.0927
31644SOL    HW2 2173   1.001   8.620   9.036  1.3811  0.2332  0.0045
31645SOL     OW 2174   7.804   0.760   4.001  0.2812  0.9203 -0.0556
31645SOL    HW1 2175   7.759   0.819   3.940 -0.7527 -0.0524 -0.2805
31645SOL    HW2 2176   7.894   0.756   3.969  0.1075  1.5636 -0.6444
31646SOL     OW 2177   7.785  11.172  11.758  0.5170  0.0849 -0.0795
31646SOL    HW1 2178   7.817  11.244  11.813  0.0501  0.4209 -0.2369
31646SOL    HW2 2179   7.706  11.207  11.717  0.5460 -0.3608 -0.5231
31647SOL     OW 2180   0.303   8.803  10.857 -0.0173  0.3923 -0.4055
31647SOL    HW1 2181   0.359   8.869  10.898  1.5160 -0.3755 -1.1912
31647SOL    HW2 2182   0.353   8.722  10.863 -0.0372  0.0914 -3.0720
31648SOL     OW 2183   7.285  10.595   8.109  0.6463  0.0493  0.0930
31648SOL    HW1 2184   7.296  10.623   8.018  3.0662  2.0482  0.8825
31648SOL    HW2 2185   7.216  10.651   8.144  0.3100 -0.1346 -0.2738
31649SOL     OW 2186   6.421  12.432  11.012  0.4198  0.0031  0.0146
31649SOL    HW1 2187   6.483  12.447  11.083  1.9814 -0.7624 -1.1048
31649SOL    HW2 2188   6.476  12.423  10.934 -1.1929  0.3447 -1.2243
31650SOL     OW 2189  11.708   8.962   6.975 -0.1223  0.1248  0.0913
31650SOL    HW1 2190  11.796   8.983   6.944  0.0216 -1.3901 -0.6043
31650SOL    HW2 2191  11.653   8.965   6.897 -0.1399 -1.6758 -0.0169
31651SOL     OW 2192   2.450   7.938   3.565  0.6067  0.7743  0.2167
31651SOL    HW1 2193   2.375   7.896   3.605  1.2336 -0.4914  0.1223
31651SOL    HW2 2194   2.510   7.956   3.637  1.2339 -0.4310  0.0096
31652SOL     OW 2195  11.401   3.804   7.086  0.2340  0.6216 -0.3842
31652SOL    HW1 2196  11.315   3.762   7.082  1.0166 -1.1266  0.3735
31652SOL    HW2 2197  11.390   3.885   7.035 -1.2017 -0.7168 -2.3356
31653SOL     OW 2198   9.629   9.528   7.129 -0.5612  0.5208  0.7653
31653SOL    HW1 2199   9.681   9.588   7.077  0.3931  0.9473  2.1617
31653SOL    HW2 2200   9.541   9.566   7.130 -0.1424  1.4955  1.0134
31654SOL     OW 2201   1.828   1.240   2.012 -0.0196  0.1489  0.0510
31654SOL    HW1 2202   1.893   1.255   1.944  0.0845  0.6115  0.2517
31654SOL    HW2 2203   1.856   1.295   2.085 -0.5400  0.2229  0.1987
31655SOL     OW 2204   2.810   2.870  10.896 -0.3184  0.7605  0.1532
31655SOL    HW1 2205   2.876   2.857  10.828 -1.5357 -0.9944 -0.7747
31655SOL    HW2 2206   2.807   2.964  10.909  0.2096  1.1235 -1.9995
31656SOL     OW 2207   0.588   6.326   2.830 -0.4972 -0.3018 -0.0819
31656SOL    HW1 2208   0.585   6.401   2.890 -2.1621  0.3605 -0.9306
31656SOL    HW2 2209   0.656   6.269   2.867  2.3033  2.4713 -0.4562
31657SOL     OW 2210   6.755   3.039  11.253  0.2339 -0.3211  0.2240
31657SOL    HW1 2211   6.745   3.074  11.341  1.3848  1.6276 -0.3560
31657SOL    HW2 2212   6.825   2.974  11.261  2.1722  1.6618  0.3783
31658SOL     OW 2213   3.469   6.268   6.418  0.7829  0.0897  0.1418
31658SOL    HW1 2214   3.557   6.238   6.442  0.3432 -2.3815 -0.9793
31658SOL    HW2 2215   3.411   6.196   6.445 -0.8360  1.3551  0.2120
31659SOL     OW 2216   5.948   9.666   4.354 -0.4259 -0.8147 -0.6128
31659SOL    HW1 2217   6.017   9.599   4.361  2.4331  1.9893  3.1466
31659SOL    HW2 2218   5.986   9.733   4.298 -0.3493  0.4080  0.8398
31660SOL     OW 2219   4.174   0.605   4.676 -0.2826 -0.2083 -0.1612
31660SOL    HW1 2220   4.194   0.554   4.755  0.5176  0.7924  0.3091
31660SOL    HW2 2221   4.092   0.567   4.644 -1.4231  0.2676  1.9639
31661SOL     OW 2222   1.439   6.001   7.642  0.2797 -0.2173 -0.4079
31661SOL    HW1 2223   1.373   6.057   7.685  0.7815  0.4183 -0.4429
31661SOL    HW2 2224   1.393   5.919   7.624 -0.7831  0.5513 -1.3034
31662SOL     OW 2225  11.015   3.399  10.485 -0.4860 -0.2369  0.0884
31662SOL    HW1 2226  11.005   3.478  10.433  3.7694  0.3399 -0.2348
31662SOL    HW2 2227  11.061   3.338  10.426 -0.2883 -1.4995  1.5040
31663SOL     OW 2228   2.234   4.576  10.485  0.0949  0.0203 -0.6479
31663SOL    HW1 2229   2.328   4.567  10.498 -0.1992 -1.3273  0.8412
31663SOL    HW2 2230   2.195   4.552  10.569 -1.5734  1.1493 -1.0292
31664SOL     OW 2231  11.634  10.436   5.788  0.7418  0.4579  0.6178
31664SOL    HW1 2232  11.670  10.427   5.700 -0.3129  0.5855  0.1609
31664SOL    HW2 2233  11.540  10.444   5.775  0.5380  0.1487  1.7845
31665SOL     OW 2234   5.229  11.713  10.364  0.0402  0.2186 -0.0413
31665SOL    HW1 2235   5.162  11.757  10.417  0.1258  0.5402 -0.1978
31665SOL    HW2 2236   5.312  11.747  10.398  0.2339 -1.6726  1.5072
31666SOL     OW 2237   8.485  10.640   6.683 -0.5181  0.8975  0.3483
31666SOL    HW1 2238   8.500  10.681   6.768  1.1317  1.7395 -0.3055
31666SOL    HW2 2239   8.480  10.713   6.622 -3.5764  0.4532 -0.1152
31667SOL     OW 2240   1.809   1.655  11.000  0.3059  0.7791 -0.0844
31667SOL    HW1 2241   1.859   1.704  11.065 -0.8549  0.4503  1.0989
31667SOL    HW2 2242   1.764   1.723  10.948  0.4723  1.0238  0.0893
31668SOL     OW 2243   9.876   0.449   5.583  0.0022  0.6655 -0.4290
31668SOL    HW1 2244   9.806   0.384   5.583 -0.2120  0.8958 -0.4781
31668SOL    HW2 2245   9.835   0.528   5.618  0.6067  0.4127  0.9073
31669SOL     OW 2246   6.450   4.925   0.682 -0.8189 -0.1574  0.1447
31669SOL    HW1 2247   6.399   4.939   0.761 -1.0316  1.7062 -0.2739
31669SOL    HW2 2248   6.439   5.005   0.631  2.6504  0.4786  0.1166
31670SOL     OW 2249   6.100   6.864   0.755  0.1299  0.6468 -0.3999
31670SOL    HW1 2250   6.025   6.832   0.805  1.3387  1.2487  1.9430
31670SOL    HW2 2251   6.176   6.824   0.798  1.2493  1.1992 -1.7914
31671SOL     OW 2252   5.308  11.833   6.066  0.5694 -0.0671  0.4559
31671SOL    HW1 2253   5.326  11.756   6.012 -0.7969 -0.1143  0.0298
31671SOL    HW2 2254   5.248  11.886   6.014 -0.7175 -0.0702  1.8560
31672SOL     OW 2255   6.611   9.317   9.671  0.0576 -0.5980  0.2486
31672SOL    HW1 2256   6.528   9.321   9.718 -0.8170  0.6912 -1.2698
31672SOL    HW2 2257   6.651   9.403   9.685 -0.9862  0.4530 -2.5280
31673SOL     OW 2258   8.259  10.955   5.071  0.7345 -0.0387 -0.0086
31673SOL    HW1 2259   8.250  10.986   5.162 -1.0338 -1.6456  0.4342
31673SOL    HW2 2260   8.353  10.950   5.057  1.0770  2.0900  1.0424
31674SOL     OW 2261   0.869   7.778   6.576 -0.4996  0.2738 -0.0890
31674SOL    HW1 2262   0.885   7.854   6.631  1.7907 -1.4874  1.8964
31674SOL    HW2 2263   0.839   7.710   6.636 -0.9972 -0.8507 -1.5365
31675SOL     OW 2264   3.924   8.102   5.663 -0.3882  0.5975  0.1949
31675SOL    HW1 2265   3.928   8.171   5.596  1.0701  1.0195  0.6615
31675SOL    HW2 2266   3.856   8.042   5.632  1.3075 -0.1011 -2.5485
31676SOL     OW 2267   9.457   0.854   4.070  0.1613 -0.1021 -0.2057
31676SOL    HW1 2268   9.414   0.853   4.156 -0.4500 -0.7726 -0.5072
31676SOL    HW2 2269   9.463   0.762   4.045 -0.0506  0.1119 -1.0664
31677SOL     OW 2270   0.623   8.455  12.015 -0.1951 -0.2237 -0.5015
31677SOL    HW1 2271   0.657   8.524  12.071  0.7086 -0.4787 -0.7241
31677SOL    HW2 2272   0.701   8.414  11.977 -0.7351 -1.0918 -0.6961
31678SOL     OW 2273   3.622   1.607   1.722 -0.5661 -0.1561  0.5337
31678SOL    HW1 2274   3.550   1.544   1.715 -1.6778  1.1467 -0.5905
31678SOL    HW2 2275   3.634   1.639   1.632  1.1135  0.0178  0.7859
31679SOL     OW 2276   9.048   8.342  10.384 -0.0752  0.0073 -0.1829
31679SOL    HW1 2277   8.985   8.273  10.362 -2.9416  2.0781  0.9444
31679SOL    HW2 2278   9.016   8.420  10.339  1.6358  1.2098  0.5672
31680SOL     OW 2279  10.529  10.634  11.815  0.3197  0.3303  0.0671
31680SOL    HW1 2280  10.456  10.696  11.812  0.3569  0.3512 -0.9955
31680SOL    HW2 2281  10.568  10.639  11.727  0.3653 -1.1371 -0.0203
31681SOL     OW 2282   3.019  10.350   2.452 -0.2732  0.0924 -0.3117
31681SOL    HW1 2283   3.038  10.376   2.542 -0.1775  0.6137 -0.4768
31681SOL    HW2 2284   2.931  10.384   2.436  0.5505  1.9802 -1.1294
31682SOL     OW 2285   0.837   7.962   4.086  0.6914  0.3996 -0.3328
31682SOL    HW1 2286   0.868   7.872   4.090 -0.1081  0.1621  1.4918
31682SOL    HW2 2287   0.898   8.012   4.140  0.3978  0.7020 -0.2708
31683SOL     OW 2288   1.771   9.232   0.489 -0.0321  0.1278 -0.3658
31683SOL    HW1 2289   1.853   9.265   0.525  0.5454  0.7754 -2.1801
31683SOL    HW2 2290   1.778   9.246   0.394 -1.8724 -0.6069 -0.6647
31684SOL     OW 2291   9.371   7.611   0.782  0.0217 -0.0726  0.1067
31684SOL    HW1 2292   9.435   7.540   0.785  1.1034  0.8362 -0.3631
31684SOL    HW2 2293   9.364   7.641   0.872  2.3883  1.5717 -0.1451
31685SOL     OW 2294   0.669   1.058   6.971 -0.0436  0.1418 -0.1332
31685SOL    HW1 2295   0.646   1.141   7.013 -0.7761 -0.9834  1.8045
31685SOL    HW2 2296   0.763   1.065   6.956  0.1003  0.9406  0.9400
31686SOL     OW 2297   4.251  10.942  10.890  0.0855  0.3004  0.8745
31686SOL    HW1 2298   4.205  11.007  10.943 -1.9389  0.0534 -0.4907
31686SOL    HW2 2299   4.229  10.964  10.800  0.4311 -1.4925  0.3107
31687SOL     OW 2300  12.560  10.041   6.410 -0.2913 -0.6638  0.0070
31687SOL    HW1 2301  12.593   9.955   6.387 -1.8288 -1.2612 -0.1087
31687SOL    HW2 2302  12.500  10.025   6.483  0.5616  0.5247  1.0321
31688SOL     OW 2303  12.207   0.374  11.852  0.1239 -0.3160 -0.2898
31688SOL    HW1 2304  12.151   0.450  11.866 -1.1941 -0.9783 -1.7209
31688SOL    HW2 2305  12.253   0.392  11.770  1.8543  0.0865  0.7189
31689SOL     OW 2306   3.119   8.042   1.561 -0.4745  0.5946  0.3465
31689SOL    HW1 2307   3.172   7.986   1.504  1.0750  3.0892 -0.8699
31689SOL    HW2 2308   3.162   8.038   1.646 -0.0037  0.4355  0.1052
31690SOL     OW 2309  10.766   1.042   1.270 -0.3753  0.5485 -0.5953
31690SOL    HW1 2310  10.740   0.950   1.270  1.0573  0.0904  1.3074
31690SOL    HW2 2311  10.683   1.090   1.261 -1.1656 -0.8851 -1.3810
31691SOL     OW 2312   2.468  11.277   2.684 -0.3615  0.0316 -0.5188
31691SOL    HW1 2313   2.494  11.356   2.732 -1.7626  0.0138  0.3268
31691SOL    HW2 2314   2.537  11.264   2.619  2.8257 -1.0751  2.7231
31692SOL     OW 2315   5.482   7.955   7.292 -0.2114  0.3406 -0.3297
31692SOL    HW1 2316   5.535   8.030   7.320  1.6737 -1.4945  1.3685
31692SOL    HW2 2317   5.504   7.945   7.199 -0.4703  1.8341 -0.5811
31693SOL     OW 2318  10.122   3.772   6.078 -0.0984  0.7463  0.1432
31693SOL    HW1 2319  10.108   3.831   6.004 -0.9435 -2.1653 -2.2134
31693SOL    HW2 2320  10.035   3.758   6.115 -0.1483 -0.1906 -0.3117
31694SOL     OW 2321   6.963   0.860   5.077  0.2732 -0.0520  0.2988
31694SOL    HW1 2322   7.013   0.787   5.112  0.0130 -1.0968 -1.3752
31694SOL    HW2 2323   6.883   0.820   5.043  0.6016  0.7942 -1.6337
31695SOL     OW 2324   0.453  12.337   9.976  0.1631 -0.0714 -0.3541
31695SOL    HW1 2325   0.455  12.251   9.935 -0.1585  0.0756 -0.6885
31695SOL    HW2 2326   0.529  12.338  10.034 -0.6517 -1.1113  0.7700
31696SOL     OW 2327  10.884  11.158   5.634 -0.2752  0.2100  0.5526
31696SOL    HW1 2328  10.805  11.207   5.614  0.0069  0.7841  0.8189
31696SOL    HW2 2329  10.859  11.100   5.706 -0.5433  0.1381  0.4008
31697SOL     OW 2330   0.973   8.035  12.000 -0.5116  0.5393 -0.2310
31697SOL    HW1 2331   0.953   8.096  12.071 -0.9711  1.6210 -1.2620
31697SOL    HW2 2332   1.024   8.087  11.938  3.0351 -1.2728  0.8587
31698SOL     OW 2333   7.973   7.278  11.471 -0.2703 -0.0988  0.1208
31698SOL    HW1 2334   7.922   7.229  11.536  1.7319  0.7098  2.4465
31698SOL    HW2 2335   7.926   7.361  11.461 -0.4766 -0.1370  0.7262
31699SOL     OW 2336   2.960   3.214   0.695  0.0123  1.2487 -0.0374
31699SOL    HW1 2337   3.030   3.270   0.727  1.7022  1.0388 -3.0471
31699SOL    HW2 2338   2.985   3.126   0.724 -0.6870  1.5175  1.4904
31700SOL     OW 2339   3.934   7.444   0.715  0.1957 -0.3281 -0.4631
31700SOL    HW1 2340   4.022   7.413   0.692  0.1149 -1.3236  0.4536
31700SOL    HW2 2341   3.891   7.460   0.631  1.3429  0.4453 -0.9178
31701SOL     OW 2342  12.036  11.676   0.852  0.0792 -0.2212  0.3558
31701SOL    HW1 2343  11.981  11.598   0.847  0.3136 -0.3577 -0.1584
31701SOL    HW2 2344  12.091  11.662   0.929  0.4163 -0.7641  0.0244
31702SOL     OW 2345   8.840   5.246   5.956  0.0060 -0.5311  0.5169
31702SOL    HW1 2346   8.861   5.284   6.041 -0.6913  0.8066  0.1144
31702SOL    HW2 2347   8.784   5.311   5.913 -0.1526 -1.4438 -0.7274
31703SOL     OW 2348   8.095   5.008   0.012  0.2249 -0.2884 -0.0537
31703SOL    HW1 2349   8.033   5.079  -0.008  0.9829  0.4084  0.0466
31703SOL    HW2 2350   8.053   4.960   0.084  0.7010  1.3848  1.3923
31704SOL     OW 2351   6.326   9.150   9.377 -0.2345 -0.0463 -0.3081
31704SOL    HW1 2352   6.404   9.191   9.413 -0.7113  1.0945 -0.5403
31704SOL    HW2 2353   6.348   9.133   9.285 -0.4632  0.8036 -0.5200
31705SOL     OW 2354   4.081  11.204  11.964  0.1729 -0.6772  0.5471
31705SOL    HW1 2355   4.149  11.137  11.953  2.3850  1.0709  2.4917
31705SOL    HW2 2356   4.088  11.230  12.056 -2.0883  0.7304  0.3950
31706SOL     OW 2357   8.607  11.888   4.967 -0.5099 -0.5012  0.3543
31706SOL    HW1 2358   8.663  11.839   5.027 -0.4481 -0.8824 -0.0102
31706SOL    HW2 2359   8.522  11.893   5.011 -0.2171  0.0325  0.8886
31707SOL     OW 2360   7.533  11.171   1.962  0.4776  0.8505  0.1676
31707SOL    HW1 2361   7.552  11.121   1.883 -1.7811  2.1467 -1.3065
31707SOL    HW2 2362   7.596  11.243   1.960  0.6986  0.6485 -0.2635
31708SOL     OW 2363   6.214   6.701   3.861 -0.7569  0.1849 -0.5109
31708SOL    HW1 2364   6.134   6.654   3.882  0.0926 -1.6056 -1.0751
31708SOL    HW2 2365   6.189   6.763   3.792 -1.8877  0.5472  0.1993
31709SOL     OW 2366   0.754  11.638   3.980 -0.1118 -0.1340  0.2564
31709SOL    HW1 2367   0.725  11.691   3.905 -0.8830  0.9456  1.2717
31709SOL    HW2 2368   0.673  11.603   4.017  0.1502  0.1707  1.1565
31710SOL     OW 2369   4.424   8.143   4.924  0.1579  0.0337 -0.2183
31710SOL    HW1 2370   4.422   8.175   4.834  1.2665  0.3155 -0.1578
31710SOL    HW2 2371   4.418   8.222   4.978 -0.5706 -0.1401 -0.0352
31711SOL     OW 2372   7.474  10.035  10.954 -0.3049 -0.3616  0.0819
31711SOL    HW1 2373   7.533  10.110  10.961  0.5015 -0.8714 -0.8397
31711SOL    HW2 2374   7.387  10.073  10.942  0.2030  0.4551 -1.2811
31712SOL     OW 2375   6.245   1.203  12.254 -0.1794  0.2959  0.3831
31712SOL    HW1 2376   6.220   1.174  12.342 -0.4555  0.1083  0.2442
31712SOL    HW2 2377   6.331   1.243  12.265  0.0813 -0.3299  0.6293
31713SOL     OW 2378   1.336   0.636   5.237 -0.0682 -0.7287 -0.6860
31713SOL    HW1 2379   1.357   0.680   5.155 -0.4833 -3.2330 -2.2533
31713SOL    HW2 2380   1.342   0.543   5.217 -0.5067 -1.4626  2.0673
31714SOL     OW 2381   4.653   8.852   1.086  0.0482  0.3116  0.0843
31714SOL    HW1 2382   4.713   8.779   1.099  0.3143  0.4170 -0.4955
31714SOL    HW2 2383   4.706   8.930   1.103 -0.1212  0.3853  0.2824
31715SOL     OW 2384   4.611   0.450   4.646 -0.7973  0.0766 -0.0114
31715SOL    HW1 2385   4.675   0.423   4.580 -3.0740 -0.3318 -2.2194
31715SOL    HW2 2386   4.623   0.544   4.656  1.4569 -0.2809  1.2072
31716SOL     OW 2387   4.231   9.113   2.984  0.0019  0.1027 -0.0689
31716SOL    HW1 2388   4.292   9.047   2.951 -1.1123 -1.1661  0.3095
31716SOL    HW2 2389   4.212   9.168   2.908  2.6137  1.3813  0.1215
31717SOL     OW 2390   3.074   7.483   4.097  0.2282  0.0219 -0.5447
31717SOL    HW1 2391   3.048   7.392   4.111  0.3905 -0.0477 -0.6959
31717SOL    HW2 2392   3.050   7.528   4.178  0.0842 -0.1408 -0.4965
31718SOL     OW 2393   3.654   5.075   6.732 -0.1217  0.2029  0.6272
31718SOL    HW1 2394   3.742   5.076   6.769  0.7761 -1.3887 -1.3027
31718SOL    HW2 2395   3.644   5.162   6.693  0.5582  0.4324  0.9444
31719SOL     OW 2396   2.864   8.235  12.299  0.1648 -0.0016  0.8092
31719SOL    HW1 2397   2.787   8.270  12.256  0.0157  0.4894  1.4725
31719SOL    HW2 2398   2.888   8.158  12.246 -1.4537 -0.8595  1.2623
31720SOL     OW 2399   9.158   4.265  12.680 -0.2788  0.2642  0.1893
31720SOL    HW1 2400   9.159   4.205  12.606  1.4703 -0.4433  0.7462
31720SOL    HW2 2401   9.187   4.349  12.643  1.0658 -0.2035  0.1380
31721SOL     OW 2402   9.959   1.823   2.222  0.2773 -0.2050 -0.6551
31721SOL    HW1 2403   9.874   1.786   2.197 -1.8050  2.3035  2.0308
31721SOL    HW2 2404   9.949   1.917   2.204  2.7889  0.0752 -0.8597
31722SOL     OW 2405   7.177  11.847   1.418  0.0851  0.0550  0.3996
31722SOL    HW1 2406   7.095  11.888   1.447 -1.3248 -1.2707 -1.4526
31722SOL    HW2 2407   7.182  11.765   1.466 -0.4958 -0.5671 -0.5707
31723SOL     OW 2408   1.533   6.543   0.376 -0.2217 -0.2439 -0.3144
31723SOL    HW1 2409   1.485   6.532   0.458 -1.6918  2.0393 -0.7674
31723SOL    HW2 2410   1.590   6.618   0.391 -0.2667 -0.0036 -1.2466
31724SOL     OW 2411   7.331  10.690   3.984  0.2194  0.0679 -0.4296
31724SOL    HW1 2412   7.332  10.652   3.896  1.0257  0.6704 -0.6930
31724SOL    HW2 2413   7.398  10.640   4.032  1.9238  1.6396 -1.0225
31725SOL     OW 2414  10.536   2.996  12.238 -0.1383  0.4516 -0.0761
31725SOL    HW1 2415  10.617   3.045  12.253  0.6577 -0.8616  0.0944
31725SOL    HW2 2416  10.467   3.062  12.245  0.9295  1.7014 -0.7095
31726SOL     OW 2417   5.776   5.987   1.080 -0.4743 -0.1238 -0.1391
31726SOL    HW1 2418   5.767   5.923   1.150  2.4859 -0.1672  0.3487
31726SOL    HW2 2419   5.851   6.041   1.106 -0.5731  1.1880 -2.2999
31727SOL     OW 2420   3.679   1.097  11.600 -0.2878 -0.8814  0.5315
31727SOL    HW1 2421   3.616   1.054  11.542 -0.9201  0.6992 -0.0082
31727SOL    HW2 2422   3.644   1.082  11.688 -0.8501 -0.9088  0.3072
31728SOL     OW 2423   8.487   4.774   2.599 -0.3809  0.4560 -0.3251
31728SOL    HW1 2424   8.574   4.803   2.572 -0.2740 -1.2576 -2.0140
31728SOL    HW2 2425   8.429   4.848   2.578  0.2794  0.5704 -1.8063
31729SOL     OW 2426   1.449   8.610   5.525 -0.3337 -0.0083 -0.1104
31729SOL    HW1 2427   1.497   8.564   5.456 -1.1075 -1.5771  0.3333
31729SOL    HW2 2428   1.365   8.633   5.484 -0.2977  0.1988 -0.0668
31730SOL     OW 2429   6.039  10.539   8.080  0.9754 -0.5913 -0.4013
31730SOL    HW1 2430   6.003  10.457   8.046 -1.8874  0.2412  0.3372
31730SOL    HW2 2431   6.018  10.537   8.174 -0.5806  1.6053 -0.6400
31731SOL     OW 2432  10.958   8.000  11.979  0.0949  0.0457  0.5398
31731SOL    HW1 2433  10.945   7.959  12.064  1.5117  1.7038  1.6133
31731SOL    HW2 2434  10.905   8.079  11.983  1.7014  1.1579  0.6972
31732SOL     OW 2435  11.462   2.906   9.984  0.4063 -0.3214 -0.5573
31732SOL    HW1 2436  11.549   2.885  10.016  0.5178  1.5250  0.4799
31732SOL    HW2 2437  11.476   2.972   9.916 -0.2070  1.1649  0.6906
31733SOL     OW 2438   7.658  11.860   8.770  0.0131  0.0989  0.4408
31733SOL    HW1 2439   7.611  11.918   8.830 -1.1392 -0.2698 -0.0864
31733SOL    HW2 2440   7.592  11.831   8.707  0.5778 -1.7281  0.6280
31734SOL     OW 2441   4.625   1.623   1.890  0.3388 -0.4441  0.1197
31734SOL    HW1 2442   4.706   1.573   1.902 -0.8585 -2.8276 -0.9442
31734SOL    HW2 2443   4.581   1.579   1.817 -0.7967  2.3058 -0.9765
31735SOL     OW 2444  11.697  12.033   8.133 -0.3584  1.0722  0.2727
31735SOL    HW1 2445  11.735  12.119   8.117  1.1765  0.7056  1.6405
31735SOL    HW2 2446  11.771  11.972   8.123 -0.7692  0.2168  2.0328
31736SOL     OW 2447   0.614  11.749   4.630 -0.2881  0.0094  0.0085
31736SOL    HW1 2448   0.653  11.681   4.576 -0.4914 -0.6128  0.6333
31736SOL    HW2 2449   0.635  11.724   4.720  1.1555  1.7053  0.2035
31737SOL     OW 2450   5.407   1.766   0.382  0.0894  0.1585 -0.1639
31737SOL    HW1 2451   5.393   1.699   0.314 -0.2922 -0.6927  0.7258
31737SOL    HW2 2452   5.404   1.717   0.464 -1.7316  1.4954  0.6114
31738SOL     OW 2453   8.205   0.901   5.266 -0.2973 -0.4284  0.2332
31738SOL    HW1 2454   8.294   0.882   5.236 -0.4900 -1.7959  0.4501
31738SOL    HW2 2455   8.155   0.915   5.186  0.1305  0.4769  0.1130
31739SOL     OW 2456   0.328   1.221   7.348  0.1208  0.2136 -0.0359
31739SOL    HW1 2457   0.278   1.247   7.425 -0.6395 -2.3664  0.4551
31739SOL    HW2 2458   0.320   1.125   7.346  1.8643  0.0383 -2.1468
31740SOL     OW 2459   9.768   4.767  10.642 -0.1572 -0.2983 -0.0490
31740SOL    HW1 2460   9.728   4.728  10.720 -0.3738 -1.8175 -0.8808
31740SOL    HW2 2461   9.699   4.823  10.606  0.5063  1.8008  1.7328
31741SOL     OW 2462   0.837   2.257  12.401 -0.2004 -0.3602  0.5014
31741SOL    HW1 2463   0.741   2.252  12.394 -0.2623 -1.5494  1.9026
31741SOL    HW2 2464   0.857   2.223  12.488  1.6021 -1.4724 -0.2952
31742SOL     OW 2465   5.634  12.075  11.227  0.5123 -0.2446  0.1700
31742SOL    HW1 2466   5.653  11.982  11.241 -0.8949 -0.9493 -2.0685
31742SOL    HW2 2467   5.575  12.097  11.300 -0.4161 -1.5802 -0.1201
31743SOL     OW 2468   1.556  12.692  10.095 -0.3671 -0.3296  0.2411
31743SOL    HW1 2469   1.588  12.605  10.119 -1.3535 -0.5758  0.7007
31743SOL    HW2 2470   1.461  12.686  10.103 -0.4370  2.2289  5.4776
31744SOL     OW 2471  12.014   4.024   1.765 -0.4450 -0.1771 -0.0305
31744SOL    HW1 2472  11.945   4.063   1.712 -1.2512 -2.2739 -0.6314
31744SOL    HW2 2473  11.998   3.929   1.759  0.6707 -0.5847  2.2901
31745SOL     OW 2474   3.286   1.822   8.324  0.3647 -0.0060 -0.4112
31745SOL    HW1 2475   3.240   1.831   8.241  0.4125 -1.1431 -0.5846
31745SOL    HW2 2476   3.379   1.835   8.302  0.1243  3.7233  0.1753
31746SOL     OW 2477   6.654   4.960   9.569 -0.6867  0.1434  0.0939
31746SOL    HW1 2478   6.602   5.040   9.581 -2.0027 -0.6493 -0.0669
31746SOL    HW2 2479   6.715   4.960   9.642 -1.1809  0.9228  0.5244
31747SOL     OW 2480   7.463   0.841  12.295  0.3086 -0.1066  0.7182
31747SOL    HW1 2481   7.395   0.805  12.237  1.0803  0.2781 -0.4602
31747SOL    HW2 2482   7.463   0.935  12.276  1.6156 -0.1898  0.1997
31748SOL     OW 2483  12.170   3.402   5.152 -0.3399  0.4699 -0.7614
31748SOL    HW1 2484  12.077   3.405   5.175  0.0798 -1.3291  1.5005
31748SOL    HW2 2485  12.195   3.311   5.167  1.8025  0.9159 -1.3749
31749SOL     OW 2486  11.236   4.170   2.725  0.1673  0.8086  0.0990
31749SOL    HW1 2487  11.163   4.143   2.670  0.2105 -0.0129  0.4382
31749SOL    HW2 2488  11.219   4.262   2.744 -0.0303  1.0059 -0.9901
31750SOL     OW 2489   5.064   3.066   3.475  0.2269  0.5727 -0.0861
31750SOL    HW1 2490   5.154   3.065   3.507 -0.1181  0.4411  0.9210
31750SOL    HW2 2491   5.012   3.036   3.549 -0.7379  1.4562 -0.3821
31751SOL     OW 2492   5.887   0.155   2.206 -0.0264 -0.2486  0.4443
31751SOL    HW1 2493   5.871   0.249   2.220  0.2039 -0.1852  0.2932
31751SOL    HW2 2494   5.809   0.112   2.240  0.8696 -0.1692  2.7530
31752SOL     OW 2495   3.806   9.413  11.868 -0.2679  0.3765 -0.1985
31752SOL    HW1 2496   3.747   9.338  11.870  0.2114 -0.0029 -0.2632
31752SOL    HW2 2497   3.810   9.438  11.776  1.7062 -1.2263 -0.5982
31753SOL     OW 2498  11.006   7.672   9.954 -0.5373  0.1240  0.0234
31753SOL    HW1 2499  11.017   7.631   9.868 -0.2321  0.3984 -0.0728
31753SOL    HW2 2500  10.930   7.629   9.993  1.5460 -2.7623  1.2065
31754SOL     OW 2501   4.566  12.224   7.822 -0.3142  0.2012 -0.0568
31754SOL    HW1 2502   4.605  12.311   7.834 -0.3383  0.2884 -0.5640
31754SOL    HW2 2503   4.496  12.220   7.887 -0.7724  0.8459 -0.4870
31755SOL     OW 2504   4.366   5.446  12.280 -0.1334  0.2130 -0.2926
31755SOL    HW1 2505   4.439   5.480  12.332  0.5079 -2.1767  0.4935
31755SOL    HW2 2506   4.290   5.455  12.338  0.4364 -1.6803  0.8592
31756SOL     OW 2507   4.819   9.516   1.689  0.1873  0.0892 -0.1345
31756SOL    HW1 2508   4.862   9.504   1.605  1.4801  1.1909  0.3425
31756SOL    HW2 2509   4.827   9.431   1.732 -1.3452 -0.7970 -1.4450
31757SOL     OW 2510   7.952   9.145   3.046 -0.0955  0.3742 -0.0050
31757SOL    HW1 2511   7.858   9.131   3.058  0.0462 -0.7602 -0.0885
31757SOL    HW2 2512   7.970   9.115   2.957  0.9353 -3.1321  1.1844
31758SOL     OW 2513  11.125   7.439   4.163 -0.1974 -0.4905 -0.0575
31758SOL    HW1 2514  11.089   7.432   4.252  0.6795  1.5714  0.5206
31758SOL    HW2 2515  11.067   7.500   4.118 -0.4334 -1.2534 -0.8023
31759SOL     OW 2516  12.643   9.349  11.204 -0.3876 -0.0225  0.0722
31759SOL    HW1 2517  12.716   9.400  11.169 -0.9568  1.4027  0.8471
31759SOL    HW2 2518  12.679   9.303  11.280 -0.1527  0.2200  0.1096
31760SOL     OW 2519   8.645  10.605  11.493  0.3362  0.0380 -0.6415
31760SOL    HW1 2520   8.727  10.633  11.453 -0.0611  1.6186 -0.4025
31760SOL    HW2 2521   8.579  10.622  11.426 -0.0796  0.9000 -0.0313
31761SOL     OW 2522   7.435  12.148   7.798  0.3609 -0.6625 -0.2461
31761SOL    HW1 2523   7.512  12.190   7.837 -0.4092 -0.1631  0.7587
31761SOL    HW2 2524   7.363  12.171   7.856 -0.9643  0.5926 -2.2675
31762SOL     OW 2525   3.507   6.844  12.105  0.2836  0.3352 -0.3979
31762SOL    HW1 2526   3.586   6.863  12.156 -0.4663  0.6622  0.6626
31762SOL    HW2 2527   3.526   6.760  12.062  0.1184 -1.1277  2.1825
31763SOL     OW 2528   3.234   5.260   8.882  0.1152 -0.1020  0.3307
31763SOL    HW1 2529   3.207   5.168   8.875  0.9248 -0.6417  2.9027
31763SOL    HW2 2530   3.172   5.299   8.943  1.4878  0.2052  1.6161
31764SOL     OW 2531   2.417   3.026   2.744 -0.2459 -0.1959 -0.0262
31764SOL    HW1 2532   2.329   2.991   2.734  0.3103 -1.8383  0.4477
31764SOL    HW2 2533   2.474   2.956   2.711  0.9915 -0.4265  2.3764
31765SOL     OW 2534  12.649   0.372   0.095  0.0697 -0.8099  0.2300
31765SOL    HW1 2535  12.704   0.304   0.134 -2.1161 -1.5383  2.3665
31765SOL    HW2 2536  12.583   0.323   0.045  1.0128  0.0168 -1.9388
31766SOL     OW 2537   2.807  12.210   5.911 -0.5017  0.2069 -0.1832
31766SOL    HW1 2538   2.733  12.258   5.875 -2.0412 -1.4399  0.6283
31766SOL    HW2 2539   2.845  12.270   5.976 -2.0660  0.5506  0.4645
31767SOL     OW 2540   4.237  10.614   8.907  0.2997 -0.0873 -0.0118
31767SOL    HW1 2541   4.163  10.552   8.904 -1.8668  2.3231  0.1304
31767SOL    HW2 2542   4.218  10.670   8.982  1.6276  1.3858 -0.7266
31768SOL     OW 2543   6.488   2.785  10.116  0.3447 -0.7242  0.4381
31768SOL    HW1 2544   6.492   2.773  10.021 -0.0189  1.5514  0.0655
31768SOL    HW2 2545   6.579   2.779  10.145  0.4257 -1.7490  0.0219
31769SOL     OW 2546  10.379   6.224   5.086 -0.0715 -0.3382  0.3838
31769SOL    HW1 2547  10.339   6.137   5.085 -1.1341  0.1205 -1.2253
31769SOL    HW2 2548  10.307   6.283   5.064  1.0618  0.7433 -0.5542
31770SOL     OW 2549   2.467  10.998   0.664  0.2920 -0.0762 -0.0545
31770SOL    HW1 2550   2.440  11.080   0.623  0.4570 -0.5142 -1.0633
31770SOL    HW2 2551   2.551  11.019   0.706 -0.2534  0.5722  0.7386
31771SOL     OW 2552   2.487   3.282   8.473 -0.1355  0.0745 -0.4061
31771SOL    HW1 2553   2.467   3.194   8.442  0.8221  0.0452 -0.9917
31771SOL    HW2 2554   2.421   3.337   8.432 -1.2628 -0.4525  0.6318
31772SOL     OW 2555   6.253   0.878   5.372 -0.1332 -0.7419  0.2317
31772SOL    HW1 2556   6.181   0.815   5.375 -1.3700  0.5717 -0.7787
31772SOL    HW2 2557   6.261   0.902   5.280  1.2324 -0.4253  0.4035
31773SOL     OW 2558   6.134  12.372   0.089 -0.0387  0.3721 -0.5968
31773SOL    HW1 2559   6.057  12.409   0.046 -2.3878 -2.8771  0.4267
31773SOL    HW2 2560   6.170  12.445   0.139 -2.0785  2.2000 -1.6040
31774SOL     OW 2561   4.570   7.236   3.307  0.1156  0.0670  0.3053
31774SOL    HW1 2562   4.650   7.258   3.259 -0.0668 -0.3735 -0.2130
31774SOL    HW2 2563   4.499   7.263   3.249 -0.1172  0.4853  0.7768
31775SOL     OW 2564  12.572   4.846  11.579  0.3384  0.3288  0.0390
31775SOL    HW1 2565  12.608   4.870  11.494  0.7647  0.2436  0.1945
31775SOL    HW2 2566  12.491   4.897  11.586  1.8799  2.8317  0.9439
31776SOL     OW 2567   2.664  10.582   6.369  0.2155  0.0070  0.0032
31776SOL    HW1 2568   2.719  10.592   6.448 -0.0232  1.1250  0.0506
31776SOL    HW2 2569   2.723  10.544   6.304  1.4411  2.2196 -0.2952
31777SOL     OW 2570   4.912   6.087   0.056 -0.3544  0.0324 -0.1566
31777SOL    HW1 2571   4.935   6.086   0.149 -1.7876  0.7365  0.2327
31777SOL    HW2 2572   4.945   6.003   0.022  3.9951  1.4565 -0.0421
31778SOL     OW 2573  10.925  10.717   2.544 -0.9115 -0.0723  0.0784
31778SOL    HW1 2574  10.962  10.630   2.563 -0.4120  0.2627  0.6715
31778SOL    HW2 2575  10.991  10.759   2.488 -0.7862  0.2215  0.4494
31779SOL     OW 2576   7.263   3.183   5.553 -0.8017 -0.5688  0.0930
31779SOL    HW1 2577   7.242   3.205   5.644 -0.5584 -0.8391  0.2164
31779SOL    HW2 2578   7.358   3.189   5.549 -0.8524  0.0442 -0.3037
31780SOL     OW 2579   9.374   3.483   4.267 -0.1354 -0.1626 -0.1495
31780SOL    HW1 2580   9.283   3.505   4.288 -0.2047  0.0215 -0.6326
31780SOL    HW2 2581   9.424   3.560   4.294 -0.3583  0.5594 -1.6808
31781SOL     OW 2582   1.900   3.461   8.305 -0.2663  0.0464  0.6641
31781SOL    HW1 2583   1.976   3.425   8.259 -1.2555 -1.7381  0.3170
31781SOL    HW2 2584   1.873   3.536   8.251  0.8857  0.3508  0.4798
31782SOL     OW 2585  11.673   4.921  10.547 -0.4647  0.3220  0.0666
31782SOL    HW1 2586  11.611   4.872  10.492 -0.0826 -0.3522  0.2301
31782SOL    HW2 2587  11.636   4.914  10.635 -1.6751  2.3363 -0.2154
31783SOL     OW 2588   1.484   9.409  12.678  0.0042  0.5182  0.1161
31783SOL    HW1 2589   1.505   9.341  12.742 -4.0535 -0.5749  0.5157
31783SOL    HW2 2590   1.537   9.485  12.705  0.1000 -0.5891  3.3911
31784SOL     OW 2591   4.185  10.267   4.133 -0.4567  0.6567  0.1023
31784SOL    HW1 2592   4.276  10.239   4.142 -0.4460  0.0612 -1.5448
31784SOL    HW2 2593   4.170  10.325   4.208  0.3730 -1.4900  2.0260
31785SOL     OW 2594   2.696  10.077   6.669 -0.4182  0.1707  0.2602
31785SOL    HW1 2595   2.713  10.103   6.578  1.2160 -1.0712  0.1693
31785SOL    HW2 2596   2.663   9.988   6.663  1.9649 -0.8410  0.9375
31786SOL     OW 2597   7.341   7.983   1.324 -0.7933  0.0340 -0.1200
31786SOL    HW1 2598   7.344   7.930   1.403  1.8735  0.0517 -0.1346
31786SOL    HW2 2599   7.333   7.920   1.252 -0.2594 -0.1757  0.0058
31787SOL     OW 2600   3.478   2.472   1.434 -0.4975  0.1206  0.6864
31787SOL    HW1 2601   3.411   2.404   1.439  0.7444 -1.0252  2.6405
31787SOL    HW2 2602   3.509   2.483   1.523  0.0576  2.5872  0.2745
31788SOL     OW 2603  12.226   4.052   0.585 -0.3999  0.3226 -0.2736
31788SOL    HW1 2604  12.170   3.989   0.630  0.4069 -0.4569 -0.3290
31788SOL    HW2 2605  12.286   4.084   0.653  1.2169 -1.3032 -0.8653
31789SOL     OW 2606   8.033   0.991   5.062  0.3790 -0.2173 -0.0844
31789SOL    HW1 2607   7.996   1.003   4.975 -0.5773  0.2268  0.3667
31789SOL    HW2 2608   7.975   0.927   5.104  1.5095 -1.3234 -0.1547
31790SOL     OW 2609   3.178  11.359  11.063 -0.1970 -0.2752  0.6875
31790SOL    HW1 2610   3.168  11.275  11.019  0.0501 -0.9841  1.9302
31790SOL    HW2 2611   3.261  11.352  11.109  1.5740  1.9541 -1.8844
31791SOL     OW 2612   0.832   6.726   1.744 -0.1855  0.0542 -0.1355
31791SOL    HW1 2613   0.853   6.803   1.797 -0.2812  1.1323 -1.6137
31791SOL    HW2 2614   0.762   6.755   1.686  0.7263 -0.7127 -1.6829
31792SOL     OW 2615   2.386   8.883   3.505 -0.4142  0.6072 -0.0356
31792SOL    HW1 2616   2.469   8.842   3.530 -0.3869  1.0772  0.6668
31792SOL    HW2 2617   2.336   8.812   3.465 -0.0930  0.0500  0.5252
31793SOL     OW 2618  12.271   5.287  12.421  0.0924  0.2499  0.5198
31793SOL    HW1 2619  12.201   5.350  12.403  0.4286  0.5397  0.1874
31793SOL    HW2 2620  12.344   5.341  12.453  0.0656 -0.0810  1.1504
31794SOL     OW 2621   1.887   4.546   7.267 -0.3157  0.0933  0.1471
31794SOL    HW1 2622   1.924   4.460   7.286 -0.4799  0.1719  0.8344
31794SOL    HW2 2623   1.793   4.531   7.261 -0.5494  0.5189  2.0974
31795SOL     OW 2624   0.756  10.749   6.983  0.4300 -0.1136  0.3963
31795SOL    HW1 2625   0.758  10.793   6.898 -1.5116  0.3267  0.5384
31795SOL    HW2 2626   0.814  10.674   6.972  0.1088 -0.1510 -1.3752
31796SOL     OW 2627  10.228   4.886   3.534  0.1614 -0.0867 -0.6647
31796SOL    HW1 2628  10.280   4.810   3.558  1.0331 -0.0294 -2.2168
31796SOL    HW2 2629  10.262   4.957   3.588  2.3464  0.1367 -2.1920
31797SOL     OW 2630   9.189   3.634   0.122 -0.6654 -0.0732  0.0100
31797SOL    HW1 2631   9.212   3.543   0.102  1.0678  0.0674  1.2051
31797SOL    HW2 2632   9.131   3.627   0.198 -0.2969 -0.1603  0.2827
31798SOL     OW 2633   1.073   2.139   4.857 -0.1797  0.1287 -0.3127
31798SOL    HW1 2634   1.131   2.114   4.784 -1.9987  1.8264 -2.4827
31798SOL    HW2 2635   1.111   2.219   4.891  0.5040 -0.5047  0.4570
31799SOL     OW 2636   0.402   2.595   7.910  0.0053 -0.3013  0.5209
31799SOL    HW1 2637   0.465   2.628   7.846  0.2554  1.9563  1.8190
31799SOL    HW2 2638   0.456   2.558   7.980 -0.2351 -1.5789  0.0549
31800SOL     OW 2639   6.049   9.069   9.720  0.0081 -0.3713  0.3120
31800SOL    HW1 2640   5.991   9.005   9.762  0.5425  0.4637  2.4649
31800SOL    HW2 2641   6.096   9.018   9.653 -0.9026 -1.7961  0.7007
31801SOL     OW 2642  10.494   2.223   4.783  0.1163  0.1627  0.0802
31801SOL    HW1 2643  10.440   2.159   4.737 -0.9984 -0.8268  2.5905
31801SOL    HW2 2644  10.481   2.305   4.735 -0.3441 -0.9409 -1.7608
31802SOL     OW 2645   7.756   8.312  10.238 -0.1190 -0.8867  0.0820
31802SOL    HW1 2646   7.836   8.355  10.208  1.2817 -2.6200  1.1886
31802SOL    HW2 2647   7.712   8.378  10.292  0.2102  0.2883 -1.0351
31803SOL     OW 2648   2.060  12.520   7.648  0.2102  0.5550 -0.0739
31803SOL    HW1 2649   2.134  12.569   7.611 -0.4631  2.2531  0.7044
31803SOL    HW2 2650   2.038  12.568   7.729  0.5131 -1.9842  1.6133
31804SOL     OW 2651   9.724   2.502  10.400 -0.4800 -0.2072  0.0114
31804SOL    HW1 2652   9.702   2.588  10.364  0.6181 -0.1968 -0.6689
31804SOL    HW2 2653   9.664   2.442  10.356  0.6125 -0.1453 -1.6304
31805SOL     OW 2654   9.919   5.796  11.729  0.2276  0.1491  0.1273
31805SOL    HW1 2655   9.924   5.799  11.633 -0.4943 -0.4191  0.0585
31805SOL    HW2 2656  10.001   5.756  11.756 -0.0749 -0.8414 -0.3452
31806SOL     OW 2657   2.583   5.263  12.393  0.0165  0.0337 -0.2099
31806SOL    HW1 2658   2.626   5.179  12.409 -0.3465 -0.3637 -1.2030
31806SOL    HW2 2659   2.502   5.239  12.347 -0.8990  0.8170  0.9283
31807SOL     OW 2660   7.266   8.995   7.753 -0.1750 -0.0560 -0.6832
31807SOL    HW1 2661   7.199   9.060   7.734  0.4243  0.2856 -1.6915
31807SOL    HW2 2662   7.278   9.000   7.848  1.0272  2.4842 -0.8932
31808SOL     OW 2663   1.432   1.020   7.602 -0.5811  0.5364 -0.1016
31808SOL    HW1 2664   1.496   1.022   7.531 -0.7356  1.9039 -0.2241
31808SOL    HW2 2665   1.361   0.964   7.569 -0.9253  1.6358 -1.2762
31809SOL     OW 2666   3.051  10.453   7.325  0.0034  0.0146  0.1919
31809SOL    HW1 2667   3.107  10.393   7.374  0.7811 -0.2272 -0.9296
31809SOL    HW2 2668   2.975  10.401   7.300  1.3447 -1.0564 -2.0563
31810SOL     OW 2669   2.851   3.911   1.134 -0.4891  0.1352  0.2563
31810SOL    HW1 2670   2.897   3.967   1.197  0.1146  0.2981 -0.3213
31810SOL    HW2 2671   2.885   3.937   1.049  1.6177 -2.6583  0.0880
31811SOL     OW 2672   0.800   3.982   5.700  0.0814  0.3695  0.4108
31811SOL    HW1 2673   0.721   3.950   5.744 -0.2793 -0.3989 -0.7658
31811SOL    HW2 2674   0.769   4.016   5.617  0.9142  0.7037  0.2268
31812SOL     OW 2675   1.234  10.047  10.031 -0.5390  0.2957 -0.1154
31812SOL    HW1 2676   1.157  10.001  10.064 -0.3966 -0.8726 -1.3339
31812SOL    HW2 2677   1.230  10.134  10.073 -0.6182 -0.8792  2.5369
31813SOL     OW 2678  12.493   5.500   7.221 -0.2051 -0.1812  0.2309
31813SOL    HW1 2679  12.424   5.468   7.163 -1.2331  1.9197  0.2213
31813SOL    HW2 2680  12.541   5.565   7.169  1.1630 -0.8687  0.5815
31814SOL     OW 2681   6.806   2.635   2.122 -0.2768 -0.6468 -0.0138
31814SOL    HW1 2682   6.881   2.578   2.141  0.6359  0.4052 -0.3450
31814SOL    HW2 2683   6.734   2.575   2.104 -0.0405 -1.6877  2.2540
31815SOL     OW 2684   4.786   4.768   5.401  0.3224 -0.1164  0.1513
31815SOL    HW1 2685   4.836   4.688   5.384 -0.2281 -0.4152 -0.0674
31815SOL    HW2 2686   4.696   4.745   5.380  0.0203  0.2905  0.9764
31816SOL     OW 2687   0.785   7.229   9.508 -0.2461  0.2854 -0.1095
31816SOL    HW1 2688   0.775   7.288   9.434  0.6878  0.1712 -0.3420
31816SOL    HW2 2689   0.701   7.185   9.516 -1.3169  2.3137  0.6731
31817SOL     OW 2690   1.624   8.357  11.449  0.2428 -0.2621 -0.0360
31817SOL    HW1 2691   1.530   8.362  11.435  0.3334  0.5028 -0.4544
31817SOL    HW2 2692   1.636   8.288  11.514 -0.5487 -0.8062 -0.4643
31818SOL     OW 2693   8.218   9.822   8.770  0.4132 -0.3608 -0.2585
31818SOL    HW1 2694   8.152   9.846   8.835 -0.6780 -0.7012 -1.2150
31818SOL    HW2 2695   8.276   9.898   8.766 -0.3173  0.2283  0.0993
31819SOL     OW 2696   2.536  12.410   3.874  0.4504  0.9691 -0.0622
31819SOL    HW1 2697   2.444  12.409   3.848  0.7053  2.2484 -1.0988
31819SOL    HW2 2698   2.555  12.319   3.896 -0.6094  0.3619 -1.4842
31820SOL     OW 2699   1.793   5.582   5.269  0.2972  0.1179  0.2974
31820SOL    HW1 2700   1.882   5.611   5.289  0.3467 -0.4328  0.9313
31820SOL    HW2 2701   1.739   5.659   5.285  0.4958  0.0547  1.3674
31821SOL     OW 2702   5.804  12.126  11.969 -0.7760 -0.0180  0.6615
31821SOL    HW1 2703   5.891  12.147  11.935 -1.0692 -0.8098 -0.6325
31821SOL    HW2 2704   5.757  12.209  11.968 -0.5910  0.0836 -0.3516
31822SOL     OW 2705   7.992   2.988   8.245  0.0791  0.0330  0.1131
31822SOL    HW1 2706   7.929   3.049   8.205  0.6988  1.4482  1.2064
31822SOL    HW2 2707   8.077   3.033   8.237  0.7390 -1.1741  0.0164
31823SOL     OW 2708   4.839  10.333  12.545  0.0107  0.2289 -0.1758
31823SOL    HW1 2709   4.904  10.270  12.577  0.5324  0.8188 -0.0574
31823SOL    HW2 2710   4.756  10.286  12.549  0.3173 -0.2724  0.4240
31824SOL     OW 2711  12.483   2.545   7.735 -0.2450 -0.1810  0.9060
31824SOL    HW1 2712  12.437   2.503   7.662 -1.5441  0.1494  1.5008
31824SOL    HW2 2713  12.543   2.607   7.694 -1.9213  0.9912  0.0967
31825SOL     OW 2714   9.870   4.342   3.651 -0.3862  0.6021  0.0628
31825SOL    HW1 2715   9.841   4.377   3.736  2.3617 -0.4722  1.5916
31825SOL    HW2 2716   9.804   4.371   3.589 -1.5640  3.0346  2.2609
31826SOL     OW 2717   3.936   8.278   4.430 -0.0435  0.9806  0.3240
31826SOL    HW1 2718   3.849   8.273   4.390  1.0676  1.2898 -2.4000
31826SOL    HW2 2719   3.923   8.254   4.522 -2.3419 -3.5400 -0.8908
31827SOL     OW 2720   9.766   2.026   9.711 -0.1569  0.1817  0.2964
31827SOL    HW1 2721   9.824   1.959   9.748  0.4041 -0.4378 -1.5863
31827SOL    HW2 2722   9.784   2.105   9.761  0.3804 -0.6598  1.4680
31828SOL     OW 2723   0.673   8.598   8.949 -0.5964 -0.0908 -0.0629
31828SOL    HW1 2724   0.633   8.529   8.896 -1.1510  1.1010 -1.2305
31828SOL    HW2 2725   0.675   8.561   9.037  0.4686 -2.1821 -0.8722
31829SOL     OW 2726   4.557  10.489   9.685 -0.7022 -0.1238 -0.1193
31829SOL    HW1 2727   4.635  10.432   9.682 -0.9194 -0.3897 -1.2213
31829SOL    HW2 2728   4.545  10.518   9.594 -0.0259  2.5106  0.5567
31830SOL     OW 2729   3.286  12.180   9.917  0.5845 -0.3403  0.1953
31830SOL    HW1 2730   3.287  12.267   9.956  0.7435 -0.2722  0.0394
31830SOL    HW2 2731   3.306  12.194   9.825 -0.9970 -0.3644 -0.1921
31831SOL     OW 2732  10.084   4.099   3.070 -0.7413 -0.2105  0.3055
31831SOL    HW1 2733  10.014   4.117   3.007  0.0458  1.2111 -0.2082
31831SOL    HW2 2734  10.077   4.005   3.087 -1.3019 -0.5495 -1.5283
31832SOL     OW 2735   5.068   1.039   1.781  0.0460 -0.3546  0.0022
31832SOL    HW1 2736   4.998   1.008   1.838  0.8501  0.0900  1.2631
31832SOL    HW2 2737   5.070   1.134   1.794 -0.2955 -0.1311 -1.4032
31833SOL     OW 2738   2.229   9.027   3.705  0.4079 -0.3634 -0.6059
31833SOL    HW1 2739   2.227   8.974   3.785  0.2396 -0.5471 -0.7325
31833SOL    HW2 2740   2.272   8.971   3.640  0.0241 -0.4358 -0.8026
31834SOL     OW 2741   9.219   1.423   6.600  0.5340 -0.2535  0.3505
31834SOL    HW1 2742   9.128   1.414   6.626  0.2330  0.9981 -0.1814
31834SOL    HW2 2743   9.251   1.499   6.648  0.7953  0.3398 -0.7156
31835SOL     OW 2744   1.843   6.688   3.821 -0.1413  0.6809 -0.2054
31835SOL    HW1 2745   1.890   6.729   3.748 -0.5422  1.8483  0.1637
31835SOL    HW2 2746   1.762   6.656   3.782  0.8840 -1.2872 -0.8319
31836SOL     OW 2747  10.243  12.151   8.504 -0.3998  0.4723  0.5034
31836SOL    HW1 2748  10.232  12.241   8.473  1.7581  0.9432  0.9643
31836SOL    HW2 2749  10.337  12.142   8.519 -0.5374 -1.9603  0.2437
31837SOL     OW 2750   0.096   7.101   3.041  0.1000 -0.5975 -0.2669
31837SOL    HW1 2751   0.137   7.177   3.084 -1.1936  0.8676 -1.5158
31837SOL    HW2 2752   0.128   7.026   3.091  0.1995  0.8673  2.0362
31838SOL     OW 2753   6.599   1.307  10.846  0.8399 -0.1031 -0.4150
31838SOL    HW1 2754   6.578   1.319  10.753  0.1905 -0.8356 -0.3738
31838SOL    HW2 2755   6.592   1.213  10.860  0.4693  0.0449  0.4828
31839SOL     OW 2756   3.768   4.143  11.232 -0.1238 -0.1991  0.1475
31839SOL    HW1 2757   3.739   4.105  11.150 -0.7079 -1.9899  1.1347
31839SOL    HW2 2758   3.836   4.206  11.207 -1.3238  0.4100 -1.8007
31840SOL     OW 2759   5.083   6.742   2.694 -0.2009  0.0075  0.1147
31840SOL    HW1 2760   5.095   6.668   2.633 -0.4880 -1.9997  2.3418
31840SOL    HW2 2761   5.101   6.819   2.641 -2.0639 -1.4544 -2.9932
31841SOL     OW 2762   8.015   3.242  12.396 -0.0376 -0.3240 -0.1874
31841SOL    HW1 2763   8.034   3.183  12.469 -2.0658  0.7647  1.3070
31841SOL    HW2 2764   7.931   3.282  12.418 -0.4222  0.5381 -2.8393
31842SOL     OW 2765   3.486   1.194   1.528 -0.3185 -0.2624  0.1625
31842SOL    HW1 2766   3.409   1.177   1.474  0.8234 -0.5137 -1.4513
31842SOL    HW2 2767   3.501   1.113   1.577  0.3676 -1.1300 -1.4226
31843SOL     OW 2768   9.932   2.394   7.628 -0.6519  0.3925  0.3418
31843SOL    HW1 2769   9.935   2.483   7.662  1.5822  1.0561 -1.3423
31843SOL    HW2 2770   9.923   2.404   7.533  2.7412 -0.9240 -0.2779
31844SOL     OW 2771   9.486   5.492   5.114 -0.6640 -0.0810 -0.3639
31844SOL    HW1 2772   9.516   5.575   5.076  0.8502  0.2099  1.3293
31844SOL    HW2 2773   9.565   5.440   5.124 -1.6056 -1.7794 -1.4179
31845SOL     OW 2774  11.511   6.104   9.021 -0.1349  0.0464 -0.3428
31845SOL    HW1 2775  11.439   6.051   8.985  0.0931 -0.2347 -0.3879
31845SOL    HW2 2776  11.582   6.092   8.959 -0.2000  0.7034 -0.5437
31846SOL     OW 2777  12.462   9.529  11.554  0.2904  0.5581  0.0213
31846SOL    HW1 2778  12.527   9.588  11.516 -0.3794  0.1299 -1.8997
31846SOL    HW2 2779  12.412   9.585  11.614 -0.3393  2.0138 -1.7589
31847SOL     OW 2780   1.041   0.252   0.284 -0.9758 -0.3010 -0.3273
31847SOL    HW1 2781   1.064   0.329   0.233 -0.3609  0.7996  1.5301
31847SOL    HW2 2782   1.030   0.183   0.218  1.8468  0.5035 -1.8399
31848SOL     OW 2783   5.851   9.357   4.752 -0.1952 -0.8122  0.9511
31848SOL    HW1 2784   5.841   9.452   4.760  0.3726 -0.6010 -0.5190
31848SOL    HW2 2785   5.801   9.334   4.673  2.7664 -1.1036 -1.0045
31849SOL     OW 2786   7.753   4.544   3.444  0.0330  0.3782  0.5415
31849SOL    HW1 2787   7.799   4.484   3.385 -0.0559  2.0600 -1.3438
31849SOL    HW2 2788   7.818   4.568   3.510  0.4310 -0.8131  0.6036
31850SOL     OW 2789   9.982   4.501   9.755  0.3664  0.1415  0.8274
31850SOL    HW1 2790  10.008   4.423   9.706 -0.9115  0.8519 -1.1258
31850SOL    HW2 2791   9.895   4.481   9.788 -0.1438  0.8465 -0.0347
31851SOL     OW 2792   4.603   1.526   6.530  0.4379 -0.1004 -0.2926
31851SOL    HW1 2793   4.612   1.619   6.510 -2.5132  0.4622  0.5510
31851SOL    HW2 2794   4.509   1.511   6.537  0.8062 -3.1611 -0.3041
31852SOL     OW 2795   4.144   5.880   2.033 -0.6284 -0.2114  0.1450
31852SOL    HW1 2796   4.195   5.806   2.065 -0.3655 -0.1413 -0.1124
31852SOL    HW2 2797   4.197   5.957   2.054 -0.0504 -0.2142 -1.1958
31853SOL     OW 2798   5.094  11.831   3.635  0.1341 -0.4925 -0.5266
31853SOL    HW1 2799   5.052  11.764   3.690  1.2208 -0.3530  0.5011
31853SOL    HW2 2800   5.114  11.903   3.695  0.7529 -0.0613 -1.2338
31854SOL     OW 2801   3.896  11.455   8.782 -0.2679 -0.4063 -0.7435
31854SOL    HW1 2802   3.872  11.478   8.692  1.4361  2.9091 -0.4953
31854SOL    HW2 2803   3.886  11.536   8.831 -1.3933 -2.1721  2.2129
31855SOL     OW 2804   5.731   6.186  11.821 -0.1870 -0.1119  0.3188
31855SOL    HW1 2805   5.790   6.249  11.778  0.1290 -1.2323 -0.9618
31855SOL    HW2 2806   5.770   6.101  11.803 -2.2800 -0.9295 -0.7777
31856SOL     OW 2807   5.098   0.313   4.913 -0.5032  0.4811  0.3093
31856SOL    HW1 2808   5.174   0.270   4.874 -0.1701  2.1677 -1.0379
31856SOL    HW2 2809   5.023   0.271   4.870 -0.2785  0.0236  0.3517
31857SOL     OW 2810   4.252   1.461   7.952 -0.3041 -0.5023  0.0379
31857SOL    HW1 2811   4.207   1.509   7.883  0.9180  0.1077 -0.3696
31857SOL    HW2 2812   4.182   1.426   8.007 -1.2661  0.0470 -0.8091
31858SOL     OW 2813   1.433   9.305   4.329  0.2071  0.4367 -0.5588
31858SOL    HW1 2814   1.493   9.233   4.314 -0.6517 -0.8927  1.7574
31858SOL    HW2 2815   1.347   9.271   4.304 -0.4350  0.0154  1.9605
31859SOL     OW 2816   5.210   5.610   2.110  0.7458 -0.4478 -0.0368
31859SOL    HW1 2817   5.168   5.545   2.166 -0.9812  0.0577 -0.6737
31859SOL    HW2 2818   5.283   5.564   2.070  2.3370 -0.7190  2.9010
31860SOL     OW 2819   3.934  12.516  12.521  0.0731  0.8186  0.2435
31860SOL    HW1 2820   4.003  12.580  12.506  0.0405  0.9281  0.5469
31860SOL    HW2 2821   3.918  12.520  12.615  1.0550 -0.6209  0.5110
31861SOL     OW 2822  10.779  10.046   5.018 -0.2481 -0.4000  0.0087
31861SOL    HW1 2823  10.799   9.956   5.044  0.6552 -0.5194 -1.0258
31861SOL    HW2 2824  10.864  10.091   5.023 -0.4774  0.1054 -0.5881
31862SOL     OW 2825   0.488  11.105  12.452  0.5707 -0.1602 -0.7415
31862SOL    HW1 2826   0.461  11.013  12.450  0.9538 -0.3007  0.0675
31862SOL    HW2 2827   0.583  11.103  12.458  0.6926  0.3197 -2.1450
31863SOL     OW 2828   0.530   0.311   0.433  0.4129  0.0144  0.1451
31863SOL    HW1 2829   0.595   0.338   0.368 -0.1786  1.9390  0.2766
31863SOL    HW2 2830   0.446   0.326   0.390 -0.0146  1.9777  1.5138
31864SOL     OW 2831   6.663   0.542   7.686  0.2372 -0.0856 -0.1467
31864SOL    HW1 2832   6.667   0.446   7.694 -2.1750 -0.2732 -0.3394
31864SOL    HW2 2833   6.611   0.570   7.761  1.4235  1.1797  0.2440
31865SOL     OW 2834  11.451  12.484   8.628  0.0437 -0.3418 -0.0387
31865SOL    HW1 2835  11.539  12.461   8.601  0.6285  2.0399 -0.4215
31865SOL    HW2 2836  11.448  12.463   8.722  0.4827 -1.8022 -0.3306
31866SOL     OW 2837   8.003   9.314   5.348  0.2773 -0.5965  0.2358
31866SOL    HW1 2838   8.079   9.256   5.337 -0.1179 -1.5525  2.1132
31866SOL    HW2 2839   8.041   9.398   5.374  0.8200 -0.1191 -1.9162
31867SOL     OW 2840   4.802   8.531   1.085  0.3476 -0.2332  0.1391
31867SOL    HW1 2841   4.794   8.436   1.079 -0.0300 -0.1226 -1.7585
31867SOL    HW2 2842   4.725   8.558   1.135  0.1128 -0.8717  0.1296
31868SOL     OW 2843   5.092  10.723   0.941 -0.0161 -0.2640 -0.0332
31868SOL    HW1 2844   5.172  10.772   0.957  0.6482 -1.0839 -0.7104
31868SOL    HW2 2845   5.046  10.725   1.025  0.5612  0.4788  0.2833
31869SOL     OW 2846  10.238   1.259   6.853  0.0183 -0.3671  0.0792
31869SOL    HW1 2847  10.262   1.260   6.760  1.3110  0.9237  0.4002
31869SOL    HW2 2848  10.320   1.238   6.898 -0.2534  0.5296  1.0093
31870SOL     OW 2849   5.665   5.675   7.745 -0.0596  0.2587  0.3031
31870SOL    HW1 2850   5.740   5.728   7.773  1.2383 -1.2266 -0.2261
31870SOL    HW2 2851   5.602   5.739   7.711  0.9587  1.5488  0.7506
31871SOL     OW 2852   5.557  12.686   0.390  0.0975 -0.3596 -0.4754
31871SOL    HW1 2853   5.515  12.639   0.319 -0.2594  1.1446 -1.2938
31871SOL    HW2 2854   5.535  12.636   0.469  0.3427 -1.9397 -1.3828
31872SOL     OW 2855   4.772   6.919   7.287  0.6002  0.3318  0.1679
31872SOL    HW1 2856   4.725   6.999   7.312  1.1088  0.5588  0.4131
31872SOL    HW2 2857   4.862   6.935   7.315  1.4554  1.0036 -2.6631
31873SOL     OW 2858   1.293  11.640  11.060 -0.0773  0.7031 -0.2755
31873SOL    HW1 2859   1.361  11.706  11.045 -0.9611  1.4820 -1.0035
31873SOL    HW2 2860   1.312  11.605  11.147  0.9852  1.2158 -0.2807
31874SOL     OW 2861   4.840   7.367   9.496 -0.2989  0.2498  0.4036
31874SOL    HW1 2862   4.755   7.373   9.453 -0.9263 -0.2828  1.5095
31874SOL    HW2 2863   4.869   7.458   9.502 -0.6565  0.4156 -0.2315
31875SOL     OW 2864   9.407   7.142   2.705 -0.1244 -0.0594 -0.2014
31875SOL    HW1 2865   9.410   7.080   2.633 -2.5252 -2.3029  1.4112
31875SOL    HW2 2866   9.447   7.096   2.779 -1.5721  0.4206  0.9476
31876SOL     OW 2867   5.273   8.121   6.442  0.0534 -0.1210 -0.3484
31876SOL    HW1 2868   5.242   8.172   6.367  0.5510  2.9632  1.3721
31876SOL    HW2 2869   5.366   8.107   6.424  0.0992  0.3288 -0.4794
31877SOL     OW 2870  10.719   0.263   4.570 -0.3090  0.0580 -0.3735
31877SOL    HW1 2871  10.727   0.338   4.512  0.6050  1.6892  1.7185
31877SOL    HW2 2872  10.625   0.258   4.590 -0.5432 -0.1469 -1.4736
31878SOL     OW 2873   7.183   4.397   5.010 -0.4915  0.0374 -0.2085
31878SOL    HW1 2874   7.214   4.426   4.924 -0.1877 -1.2012 -0.5399
31878SOL    HW2 2875   7.235   4.319   5.029 -1.8953 -0.8358  0.2147
31879SOL     OW 2876   8.153   4.304   4.334  0.4016  0.0185  0.3273
31879SOL    HW1 2877   8.188   4.215   4.339 -1.5224 -0.7578  0.9048
31879SOL    HW2 2878   8.209   4.355   4.393  0.4917 -1.1820  1.3138
31880SOL     OW 2879   5.694   7.402   2.172  0.7330 -0.3828 -0.4045
31880SOL    HW1 2880   5.783   7.428   2.146  0.4397  0.4820 -0.5848
31880SOL    HW2 2881   5.674   7.456   2.248  0.2336 -0.3104 -0.5804
31881SOL     OW 2882   2.808   6.241  10.027 -0.3106 -0.4373 -0.5817
31881SOL    HW1 2883   2.863   6.244   9.948 -1.2656 -1.5586 -1.3181
31881SOL    HW2 2884   2.870   6.254  10.099  0.6426  0.2204 -1.4861
31882SOL     OW 2885   4.233   0.649   7.214  0.0318 -0.0402 -0.0801
31882SOL    HW1 2886   4.297   0.652   7.286 -0.4524  0.3402  0.3423
31882SOL    HW2 2887   4.242   0.734   7.171 -1.9793  1.0878  1.5763
31883SOL     OW 2888   0.750  10.765  10.157  0.4580  0.2987  0.0414
31883SOL    HW1 2889   0.714  10.680  10.130  1.2690  0.3489 -1.3019
31883SOL    HW2 2890   0.686  10.800  10.218 -0.9260 -0.3414 -1.0062
31884SOL     OW 2891  11.317  10.232  10.132  0.1203  0.2485 -0.8780
31884SOL    HW1 2892  11.364  10.229  10.049 -1.2116 -0.8938 -1.6256
31884SOL    HW2 2893  11.309  10.141  10.159  0.3977  0.5914  0.4524
31885SOL     OW 2894  12.422   9.098   9.622 -0.3606 -0.0959 -0.7296
31885SOL    HW1 2895  12.446   9.155   9.549  0.3032  0.3066 -0.2153
31885SOL    HW2 2896  12.361   9.151   9.674  1.2693  0.7214  0.4701
31886SOL     OW 2897   6.845  12.557   8.834 -0.9680  0.2783 -0.0709
31886SOL    HW1 2898   6.876  12.642   8.867  0.4256  0.5830 -1.9733
31886SOL    HW2 2899   6.913  12.495   8.858 -1.9443 -0.3210  1.2383
31887SOL     OW 2900   5.407   4.097   2.628 -0.0568  0.5847  0.2831
31887SOL    HW1 2901   5.350   4.170   2.605 -0.8068 -0.2724 -0.6606
31887SOL    HW2 2902   5.352   4.040   2.682 -0.0744 -0.1984 -0.5455
31888SOL     OW 2903   7.752   2.925  11.491  0.1725  0.5169 -0.9248
31888SOL    HW1 2904   7.703   2.945  11.570  1.7862  0.1956  0.2002
31888SOL    HW2 2905   7.691   2.874  11.437 -0.8083  0.3829  0.2722
31889SOL     OW 2906   7.229  10.089   4.744 -0.0441 -0.1177 -0.0328
31889SOL    HW1 2907   7.208  10.164   4.687 -1.6987  0.1011  0.7940
31889SOL    HW2 2908   7.168  10.097   4.817  0.8691 -1.3734  0.9013
31890SOL     OW 2909  11.516   9.282  10.339 -0.1847 -0.7488 -0.1352
31890SOL    HW1 2910  11.523   9.376  10.325  0.7014 -0.3618  2.4424
31890SOL    HW2 2911  11.605   9.249  10.334 -0.3211 -1.2201  0.3917
31891SOL     OW 2912   1.845   3.382   4.621 -0.4952  0.1765 -0.2993
31891SOL    HW1 2913   1.907   3.402   4.550 -0.7749  0.5085 -0.4521
31891SOL    HW2 2914   1.897   3.391   4.701 -0.3724  0.5749 -0.4204
31892SOL     OW 2915   0.142   2.444   3.606  0.1487  0.1508 -0.1172
31892SOL    HW1 2916   0.131   2.492   3.525  1.7418  0.5227 -0.1427
31892SOL    HW2 2917   0.198   2.500   3.660 -1.3012  0.1437  1.4501
31893SOL     OW 2918   2.369   1.705   1.112  0.2615 -0.3683 -0.0337
31893SOL    HW1 2919   2.358   1.629   1.169  1.3946  0.1633  0.9306
31893SOL    HW2 2920   2.284   1.748   1.113 -0.1381 -1.1417  0.1126
31894SOL     OW 2921   4.754  12.126   7.524  0.4980 -0.2041 -0.1139
31894SOL    HW1 2922   4.672  12.169   7.547  0.2979 -1.1781  1.0965
31894SOL    HW2 2923   4.792  12.181   7.456 -0.4379  1.0646  0.3584
31895SOL     OW 2924   3.738   8.373   7.464 -0.1145 -0.1325  0.6528
31895SOL    HW1 2925   3.687   8.428   7.523 -0.8989 -0.4942  0.3258
31895SOL    HW2 2926   3.776   8.435   7.401 -2.7581 -0.0738 -1.0627
31896SOL     OW 2927   3.757   1.578  12.612  0.4057  0.4071  0.1681
31896SOL    HW1 2928   3.698   1.653  12.615  0.0614  0.1104  1.2053
31896SOL    HW2 2929   3.745   1.541  12.524 -2.1379 -0.5834  0.8696
31897SOL     OW 2930   6.970  11.756   1.863  0.0908 -0.1182 -0.3161
31897SOL    HW1 2931   6.991  11.831   1.807  0.4409  1.4890  1.8411
31897SOL    HW2 2932   7.039  11.754   1.929 -0.5759 -1.5989  0.3979
31898SOL     OW 2933  11.375   9.869   9.401  0.2036  0.3471 -0.2519
31898SOL    HW1 2934  11.292   9.854   9.447  0.6927  0.3235  0.6364
31898SOL    HW2 2935  11.351   9.929   9.330 -1.3177 -2.5955 -2.4247
31899SOL     OW 2936   5.884   1.880   7.381  0.8427  0.1293 -0.1142
31899SOL    HW1 2937   5.873   1.973   7.359  2.3001  0.3911  0.2087
31899SOL    HW2 2938   5.796   1.843   7.368 -0.2204  1.8950  1.4958
31900SOL     OW 2939   1.378   1.696  10.469 -0.2758 -0.3490  0.3599
31900SOL    HW1 2940   1.339   1.708  10.382  0.9777 -1.1745 -0.3544
31900SOL    HW2 2941   1.303   1.689  10.528 -1.1815 -0.6775 -0.7809
31901SOL     OW 2942   6.554   8.569   6.982 -0.0788  0.0558 -0.4675
31901SOL    HW1 2943   6.629   8.566   6.923 -0.4629 -1.6623 -0.9154
31901SOL    HW2 2944   6.504   8.645   6.954  1.3511  1.0896 -0.3127
31902SOL     OW 2945   5.338   0.164   4.960  0.9099  0.1851  0.5841
31902SOL    HW1 2946   5.276   0.125   5.021 -1.1717 -0.3105 -1.7215
31902SOL    HW2 2947   5.332   0.110   4.881  4.3986  0.0416  0.2559
31903SOL     OW 2948   4.708   8.719   7.227 -0.0954 -0.3898 -0.1159
31903SOL    HW1 2949   4.637   8.664   7.195 -0.9378  1.3450 -1.3451
31903SOL    HW2 2950   4.674   8.808   7.224  2.2545  0.5608 -1.1636
31904SOL     OW 2951   9.528  11.236  10.143 -0.3665 -0.0105 -0.0340
31904SOL    HW1 2952   9.557  11.158  10.191  0.5420 -0.3326 -1.0594
31904SOL    HW2 2953   9.433  11.226  10.136 -0.3520 -0.6199  0.5392
31905SOL     OW 2954  10.273   0.027  12.632 -0.4464  0.3690  0.1491
31905SOL    HW1 2955  10.326  -0.042  12.591 -3.3378 -1.7710 -0.3249
31905SOL    HW2 2956  10.269   0.003  12.724  0.0104  0.9455  0.3209
31906SOL     OW 2957   2.457   9.603  10.586 -0.3438  0.2236 -0.1629
31906SOL    HW1 2958   2.521   9.648  10.530 -1.2162  1.9595  0.1440
31906SOL    HW2 2959   2.373   9.620  10.544 -0.5474 -5.0274 -2.6034
31907SOL     OW 2960   3.974  10.548   5.992 -0.2072  0.0387 -0.2839
31907SOL    HW1 2961   3.988  10.614   6.060  0.5107 -1.4897  1.1315
31907SOL    HW2 2962   4.054  10.496   5.991 -1.2679 -1.7108 -0.2857
31908SOL     OW 2963  10.448   2.529  11.647  0.1848 -0.8841 -0.6239
31908SOL    HW1 2964  10.473   2.610  11.602 -0.6383  0.0131  0.4822
31908SOL    HW2 2965  10.432   2.467  11.576 -3.6532  1.1921 -1.8652
31909SOL     OW 2966   9.221   4.743   8.695  0.1475  0.4027  0.2156
31909SOL    HW1 2967   9.223   4.822   8.750  0.0745  1.2037 -0.9045
31909SOL    HW2 2968   9.146   4.756   8.637 -0.1899 -0.7509  0.3707
31910SOL     OW 2969   8.290   4.419  11.016  0.1866  0.5741  0.6144
31910SOL    HW1 2970   8.311   4.434  11.109  0.7873 -0.8853  0.7464
31910SOL    HW2 2971   8.316   4.328  11.000 -1.3254  0.3042 -0.5985
31911SOL     OW 2972   3.516   8.488   5.158 -0.2021  0.6533 -0.4765
31911SOL    HW1 2973   3.548   8.445   5.237  1.2679  0.3951 -1.1767
31911SOL    HW2 2974   3.422   8.476   5.161  0.0967 -2.3524 -0.4605
31912SOL     OW 2975   0.662   2.732   1.990  0.1822  0.1640 -0.4425
31912SOL    HW1 2976   0.716   2.750   1.914  1.2014  0.1161  0.2523
31912SOL    HW2 2977   0.724   2.708   2.059 -0.7950 -1.3961 -0.0352
31913SOL     OW 2978   2.569   9.499   2.175  0.0070  1.0283 -0.0703
31913SOL    HW1 2979   2.622   9.562   2.125 -0.5316  1.3964 -0.1866
31913SOL    HW2 2980   2.502   9.470   2.114  2.5359 -2.7953 -1.4142
31914SOL     OW 2981   0.130   0.900   6.018 -0.1151  0.0245 -0.1498
31914SOL    HW1 2982   0.051   0.901   5.965  0.6726  1.8208 -1.4159
31914SOL    HW2 2983   0.189   0.839   5.973 -0.3995 -0.5053  0.1936
31915SOL     OW 2984   6.527  11.632   5.443 -0.0591 -0.4412  0.3378
31915SOL    HW1 2985   6.559  11.701   5.502  1.1157 -0.8351  0.1948
31915SOL    HW2 2986   6.601  11.616   5.384 -0.9693 -0.5471 -0.8049
31916SOL     OW 2987   8.721  11.799   6.382  0.5446 -0.4630  0.3456
31916SOL    HW1 2988   8.640  11.844   6.356  0.4656 -0.5848  0.3843
31916SOL    HW2 2989   8.708  11.777   6.474  0.8788  0.0797  0.5244
31917SOL     OW 2990   0.626  10.231   6.400 -0.2506 -0.1562  0.0076
31917SOL    HW1 2991   0.663  10.206   6.484 -0.8258 -0.6695  0.1071
31917SOL    HW2 2992   0.551  10.286   6.421  0.4979  0.9778 -0.1971
31918SOL     OW 2993   3.963   0.863   3.169 -0.5820  0.3009 -0.2724
31918SOL    HW1 2994   4.013   0.808   3.229  0.4405  1.7526  0.2560
31918SOL    HW2 2995   3.895   0.903   3.224  0.6286  1.9761  0.0801
31919SOL     OW 2996   2.911   5.085   5.586  0.2557  0.1591  0.1273
31919SOL    HW1 2997   2.986   5.039   5.623 -1.3405 -2.1464  0.7385
31919SOL    HW2 2998   2.912   5.171   5.628  2.7790  0.4018 -0.2670
31920SOL     OW 2999   9.964   8.579   8.969 -0.2449 -0.2575  0.3466
31920SOL    HW1 3000  10.019   8.568   9.047  1.3661  0.4917 -0.6353
31920SOL    HW2 3001  10.018   8.547   8.897 -0.5976  1.6124 -0.8069
31921SOL     OW 3002  11.085   2.795   2.649 -0.0277  0.2791 -0.2308
31921SOL    HW1 3003  11.093   2.709   2.691 -2.7447  0.3189  0.6006
31921SOL    HW2 3004  11.144   2.852   2.698 -0.5941 -0.4425  1.3734
31922SOL     OW 3005  11.838   8.245  11.500 -0.1395  0.2657 -0.1291
31922SOL    HW1 3006  11.821   8.319  11.558  0.1673 -1.2974  2.0936
31922SOL    HW2 3007  11.752   8.202  11.491  0.0082 -0.0693  0.0375
31923SOL     OW 3008   4.566  12.449   0.557 -0.8658  0.1691  0.0414
31923SOL    HW1 3009   4.626  12.376   0.545 -1.7513 -0.8315  1.4431
31923SOL    HW2 3010   4.600  12.496   0.633  0.0335  1.6149 -1.1923
31924SOL     OW 3011   3.868  10.709   4.149  0.0919 -0.0393  1.2745
31924SOL    HW1 3012   3.866  10.783   4.209 -1.0191 -0.1313  1.3698
31924SOL    HW2 3013   3.852  10.632   4.204  1.0395 -0.3423  1.1473
31925SOL     OW 3014   5.542  12.381   3.145  0.3016 -0.0661 -0.1913
31925SOL    HW1 3015   5.516  12.295   3.112  0.3362  0.2687 -1.1035
31925SOL    HW2 3016   5.637  12.374   3.155  0.1574 -0.5657  1.0424
31926SOL     OW 3017   8.327   8.501  10.682 -0.2176 -0.6462 -0.1082
31926SOL    HW1 3018   8.361   8.552  10.608  1.4645  1.5703  2.0333
31926SOL    HW2 3019   8.320   8.564  10.753 -4.1757 -2.1354  1.0582
31927SOL     OW 3020   2.820   4.840   9.870  0.0873 -0.0045 -0.0364
31927SOL    HW1 3021   2.736   4.850   9.914  0.1899 -0.9761  0.4047
31927SOL    HW2 3022   2.815   4.898   9.794 -0.5852  0.7095  0.5462
31928SOL     OW 3023   0.101   8.463   5.495  0.3284 -0.3936  0.0958
31928SOL    HW1 3024   0.119   8.477   5.588  0.4180 -1.0294  0.1746
31928SOL    HW2 3025   0.187   8.449   5.456  0.6060  2.5391 -0.5636
31929SOL     OW 3026   8.207   4.104   2.986 -0.2923 -0.0803  0.1756
31929SOL    HW1 3027   8.137   4.053   2.945 -0.2441 -0.0505  0.0572
31929SOL    HW2 3028   8.275   4.110   2.919  0.7531 -1.9545  1.0228
31930SOL     OW 3029   2.623   1.696  10.908 -0.2122  0.1259 -0.6417
31930SOL    HW1 3030   2.711   1.667  10.881  0.7946  2.3946 -0.0086
31930SOL    HW2 3031   2.615   1.666  10.998  0.4627  1.0059 -0.2778
31931SOL     OW 3032   9.270   5.130   9.885  0.4501  0.8939 -0.0646
31931SOL    HW1 3033   9.237   5.047   9.852 -2.0345  1.7239  0.1280
31931SOL    HW2 3034   9.344   5.106   9.941  0.1898 -1.1102 -0.5200
31932SOL     OW 3035  10.114   5.867   9.426 -0.0635  0.2002 -0.0397
31932SOL    HW1 3036  10.174   5.833   9.492 -0.1072  1.1782  0.5144
31932SOL    HW2 3037  10.170   5.888   9.351  0.5011  2.2001  0.8808
31933SOL     OW 3038   0.311  12.232   5.457 -0.1072  0.3983 -0.2433
31933SOL    HW1 3039   0.369  12.205   5.529  4.2164  1.4798 -2.9040
31933SOL    HW2 3040   0.361  12.299   5.411 -2.4720 -0.3238 -4.3488
31934SOL     OW 3041   5.554  12.373   2.152 -0.0310 -0.4647 -0.0222
31934SOL    HW1 3042   5.560  12.467   2.137 -1.8135  0.3060  3.1553
31934SOL    HW2 3043   5.464  12.350   2.128  0.3812 -1.4052 -0.7542
31935SOL     OW 3044  10.412   3.974   4.842  0.1246 -0.3409  0.1912
31935SOL    HW1 3045  10.470   3.902   4.868  1.8935  1.0625  0.3849
31935SOL    HW2 3046  10.403   3.965   4.747  1.2562 -0.2103  0.0549
31936SOL     OW 3047   4.440   7.003   2.295  0.5891  0.1559 -1.0236
31936SOL    HW1 3048   4.495   7.047   2.360  0.1896 -0.4267 -0.2696
31936SOL    HW2 3049   4.499   6.986   2.221  1.3022 -0.0242 -0.4224
31937SOL     OW 3050   6.841   8.318   3.600 -0.0924  0.3076 -0.2184
31937SOL    HW1 3051   6.776   8.317   3.671  1.4755  1.4074  1.3058
31937SOL    HW2 3052   6.842   8.409   3.570  0.3222  0.1650 -0.6356
31938SOL     OW 3053  11.426  10.901   0.717  0.0750 -0.5486 -0.2531
31938SOL    HW1 3054  11.405  10.816   0.756 -1.7390  0.8998  2.2281
31938SOL    HW2 3055  11.340  10.942   0.701  0.8692  0.3806 -2.5842
31939SOL     OW 3056  11.972  12.151   2.670  0.0610 -0.1414  0.1877
31939SOL    HW1 3057  11.981  12.073   2.615  1.1725  0.8618 -1.1024
31939SOL    HW2 3058  12.003  12.123   2.756  0.1127 -1.2179 -0.1645
31940SOL     OW 3059   0.448   2.020   4.617  0.2735 -0.3276 -0.1129
31940SOL    HW1 3060   0.533   2.061   4.633  0.9770 -0.7170 -2.5337
31940SOL    HW2 3061   0.465   1.953   4.550 -2.1796  0.5823 -1.7901
31941SOL     OW 3062   6.048  10.865   3.342  0.0410 -0.6182 -0.3450
31941SOL    HW1 3063   6.059  10.894   3.251 -1.9668 -1.1236 -0.8162
31941SOL    HW2 3064   6.033  10.946   3.391 -1.2576 -0.4678 -0.9234
31942SOL     OW 3065   0.037   3.823   3.374 -0.0734 -0.6767  0.2231
31942SOL    HW1 3066  -0.003   3.798   3.291 -1.6310  1.8616  0.0679
31942SOL    HW2 3067  -0.037   3.848   3.429  1.0817  0.4333  1.3496
31943SOL     OW 3068   7.539  12.410   4.780 -0.1033 -0.1125  0.0014
31943SOL    HW1 3069   7.525  12.315   4.788  4.2501 -0.8132  2.2400
31943SOL    HW2 3070   7.588  12.419   4.698  1.4103 -0.1870  0.8640
31944SOL     OW 3071  10.433   5.325   5.801  0.5209 -0.2322  0.2872
31944SOL    HW1 3072  10.364   5.330   5.867 -1.2801 -2.3048 -1.2878
31944SOL    HW2 3073  10.476   5.241   5.818 -0.3989 -1.1183 -1.4547
31945SOL     OW 3074   6.445   3.528   4.227 -0.2569  0.3539 -0.0552
31945SOL    HW1 3075   6.501   3.477   4.286  1.1823  0.1661 -1.5034
31945SOL    HW2 3076   6.356   3.507   4.254  0.3318 -0.1289  1.6855
31946SOL     OW 3077   0.256   2.832   2.816 -0.0651  0.6069  0.6512
31946SOL    HW1 3078   0.301   2.767   2.868  1.4182  1.0422 -0.0457
31946SOL    HW2 3079   0.321   2.901   2.801 -1.6864  2.4863  1.7111
31947SOL     OW 3080  11.259   2.444   7.703 -0.0065  0.0758  0.5062
31947SOL    HW1 3081  11.184   2.388   7.682  0.8751 -0.4251 -1.4705
31947SOL    HW2 3082  11.264   2.505   7.630  1.8163 -0.2102  0.3653
31948SOL     OW 3083   1.015   6.838   8.531 -0.8224 -0.3481  0.4069
31948SOL    HW1 3084   1.027   6.850   8.626 -2.8809  0.8402  0.5778
31948SOL    HW2 3085   1.015   6.743   8.519 -0.7607 -0.5224  1.6263
31949SOL     OW 3086  11.846   0.305   4.332  0.2113 -0.7840 -0.5481
31949SOL    HW1 3087  11.895   0.360   4.393  1.8080  0.0455 -2.4624
31949SOL    HW2 3088  11.780   0.364   4.294  2.5776  0.2857 -3.3567
31950SOL     OW 3089  10.214   9.034   9.795  0.5273 -0.0571  0.2350
31950SOL    HW1 3090  10.180   8.994   9.715  0.2387 -1.8166  1.1957
31950SOL    HW2 3091  10.180   9.124   9.792  1.9792  0.5205 -2.4587
31951SOL     OW 3092   3.670   4.832   0.584  0.4075  0.1825  0.2891
31951SOL    HW1 3093   3.659   4.762   0.519 -0.6870  0.0117  0.6423
31951SOL    HW2 3094   3.618   4.804   0.659 -0.0744  1.3807  0.4321
31952SOL     OW 3095  10.871   4.821   3.131  0.3918 -0.4046  0.0332
31952SOL    HW1 3096  10.781   4.834   3.101 -0.5530 -2.6200  1.5955
31952SOL    HW2 3097  10.925   4.856   3.060 -1.6885 -0.3226 -1.6288
31953SOL     OW 3098   8.078  12.126   3.967  0.2104  0.1371  0.3584
31953SOL    HW1 3099   8.112  12.214   3.952 -1.7975  1.3367  2.3620
31953SOL    HW2 3100   8.134  12.090   4.036  0.1957  0.3603  0.4877
31954SOL     OW 3101  10.008   8.689   3.045  0.4424  0.2992  0.1130
31954SOL    HW1 3102   9.968   8.774   3.063  0.6846  0.3850  0.2491
31954SOL    HW2 3103  10.063   8.671   3.121  1.2975  0.5608 -0.4181
31955SOL     OW 3104  11.287   0.419   3.665 -0.0891  0.1050 -0.1485
31955SOL    HW1 3105  11.351   0.423   3.736 -0.0985  1.1441 -0.1866
31955SOL    HW2 3106  11.236   0.340   3.683  0.3185  0.0128  0.6436
31956SOL     OW 3107   3.425   6.153   0.469 -0.4039 -0.1965 -0.0965
31956SOL    HW1 3108   3.510   6.180   0.435 -0.1742  1.1436  1.4098
31956SOL    HW2 3109   3.363   6.213   0.429 -0.8469 -1.8586 -2.0473
31957SOL     OW 3110   9.943   9.419  10.947 -0.4472  0.1778  0.2520
31957SOL    HW1 3111   9.891   9.339  10.935  0.2963 -0.4294  0.9840
31957SOL    HW2 3112   9.901   9.463  11.021 -0.1181 -0.1523  0.6378
31958SOL     OW 3113   8.270   2.487   0.005  0.9586  0.2692  0.1079
31958SOL    HW1 3114   8.203   2.489  -0.063  0.9297  0.9403  0.1459
31958SOL    HW2 3115   8.221   2.492   0.087  1.0368  0.4325  0.1457
31959SOL     OW 3116  10.050   0.287  10.461 -0.1556  0.3151 -0.4639
31959SOL    HW1 3117  10.009   0.209  10.423 -0.0463 -1.7404  3.1886
31959SOL    HW2 3118  10.004   0.301  10.543  3.2994  0.7471  1.5964
31960SOL     OW 3119   4.529   6.584   2.617 -0.0137  0.0530 -0.0571
31960SOL    HW1 3120   4.473   6.531   2.560  1.5510 -1.3386 -0.3871
31960SOL    HW2 3121   4.498   6.565   2.706  0.0105 -0.8175 -0.2254
31961SOL     OW 3122  11.166   0.305   4.828  0.0460 -0.4253  0.0089
31961SOL    HW1 3123  11.168   0.370   4.898 -0.5377 -0.1156 -0.2579
31961SOL    HW2 3124  11.074   0.278   4.822  0.2859 -1.3414  0.1712
31962SOL     OW 3125   0.565   7.982  11.528  0.7033  0.2010  0.2343
31962SOL    HW1 3126   0.610   7.905  11.563  0.1351 -0.3713 -0.2927
31962SOL    HW2 3127   0.543   8.033  11.606  0.7073 -0.3708  0.6166
31963SOL     OW 3128   7.560   7.426   3.847  0.6077 -0.4681 -0.4759
31963SOL    HW1 3129   7.619   7.491   3.809  1.1662  0.1402  1.3579
31963SOL    HW2 3130   7.617   7.356   3.878  0.3154 -0.2154  0.6577
31964SOL     OW 3131   3.149   7.022   3.203  0.2301  0.1084  0.0346
31964SOL    HW1 3132   3.191   7.035   3.288 -2.0918  1.7998  1.0427
31964SOL    HW2 3133   3.211   7.060   3.140  0.6788  1.6874  1.3450
31965SOL     OW 3134   6.871   5.902   2.777 -0.8302  0.1558 -0.6975
31965SOL    HW1 3135   6.928   5.850   2.833 -0.0040  1.5756 -0.1900
31965SOL    HW2 3136   6.882   5.864   2.690 -0.6383 -0.8278 -0.2601
31966SOL     OW 3137   9.457   2.002   7.217  0.2055 -0.2784  0.0599
31966SOL    HW1 3138   9.378   1.957   7.247 -0.0031 -0.1773 -0.3273
31966SOL    HW2 3139   9.474   1.965   7.130 -0.9358  1.5458 -1.0116
31967SOL     OW 3140   1.831   9.424   2.515 -0.0224  0.1555  0.5408
31967SOL    HW1 3141   1.907   9.370   2.493  1.1315  1.6084  0.7782
31967SOL    HW2 3142   1.807   9.466   2.432 -1.9354 -1.8534 -0.0194
31968SOL     OW 3143   3.272   2.705   2.574 -0.5610  0.5353 -0.4862
31968SOL    HW1 3144   3.255   2.682   2.483 -0.3665  1.2161 -0.7027
31968SOL    HW2 3145   3.244   2.796   2.581 -2.3396 -0.0465  0.6257
31969SOL     OW 3146  12.228  10.140   6.974 -0.1677  0.3411  0.5402
31969SOL    HW1 3147  12.321  10.154   6.994  0.1820 -0.1997 -0.6692
31969SOL    HW2 3148  12.221  10.046   6.956 -0.2767  0.8395 -2.5651
31970SOL     OW 3149   0.635  11.251  11.679 -0.5090  0.3149 -0.1566
31970SOL    HW1 3150   0.578  11.224  11.751 -0.4253 -1.5587 -0.7399
31970SOL    HW2 3151   0.581  11.241  11.601  0.3549 -0.7292 -0.6397
31971SOL     OW 3152   7.048   7.671   8.606  0.0860 -0.0697  0.1978
31971SOL    HW1 3153   7.026   7.709   8.521 -1.1085  0.6116  0.7845
31971SOL    HW2 3154   7.132   7.711   8.629 -0.8445  1.7827  0.5131
31972SOL     OW 3155   2.867   6.134  12.684  0.7530  0.0123  0.2930
31972SOL    HW1 3156   2.785   6.171  12.652 -0.3643 -0.1740  2.7133
31972SOL    HW2 3157   2.934   6.174  12.629 -0.9976 -1.4874 -3.2447
31973SOL     OW 3158   1.162  10.267   2.017  0.0130  0.0559  0.4125
31973SOL    HW1 3159   1.113  10.267   2.099 -0.3147 -0.9007  0.2323
31973SOL    HW2 3160   1.214  10.187   2.019  1.1345  0.7575  0.3294
31974SOL     OW 3161   2.846  12.106   9.176 -0.5652  0.3698 -0.5911
31974SOL    HW1 3162   2.941  12.114   9.188 -0.5716  1.3715 -1.1014
31974SOL    HW2 3163   2.808  12.156   9.248 -0.7197 -0.0371 -0.3828
31975SOL     OW 3164   4.963   3.855  11.376 -0.1176 -0.1233  0.7721
31975SOL    HW1 3165   4.911   3.805  11.439  0.1075 -0.8823  0.3647
31975SOL    HW2 3166   4.943   3.815  11.291 -1.5342  1.7971  0.1234
31976SOL     OW 3167   2.879   7.811   5.339 -0.4906  0.6551 -0.0454
31976SOL    HW1 3168   2.788   7.792   5.317  0.0350 -0.1212 -1.7328
31976SOL    HW2 3169   2.927   7.732   5.314  0.7367  1.3187  0.1303
31977SOL     OW 3170   9.068  12.424   6.006 -0.2200  0.0361 -0.6115
31977SOL    HW1 3171   9.068  12.467   6.092  1.7893  1.0232 -1.0634
31977SOL    HW2 3172   8.984  12.377   6.004 -0.3436 -0.0106  1.8689
31978SOL     OW 3173   7.086  10.375   0.716 -0.6349 -0.3407  0.0971
31978SOL    HW1 3174   7.056  10.321   0.642 -0.3068  0.8622 -0.9547
31978SOL    HW2 3175   7.135  10.446   0.675  2.9650 -1.6913  1.6651
31979SOL     OW 3176  10.514   3.461  10.763 -0.0672  0.3405  0.8631
31979SOL    HW1 3177  10.526   3.550  10.796  0.7678  0.3403  0.5705
31979SOL    HW2 3178  10.598   3.438  10.725 -0.4303 -0.3939  0.4920
31980SOL     OW 3179   7.350   8.333  10.329  0.2774 -0.2876  0.1435
31980SOL    HW1 3180   7.275   8.388  10.354  1.7029  1.7602  0.1952
31980SOL    HW2 3181   7.371   8.284  10.408 -0.8915 -0.7738  0.1772
31981SOL     OW 3182   8.758   2.882  10.268  0.4299  0.2281 -0.0956
31981SOL    HW1 3183   8.665   2.883  10.289  0.5424 -1.4728  0.6894
31981SOL    HW2 3184   8.799   2.934  10.336  0.2747 -1.1496  1.1098
31982SOL     OW 3185   8.103   7.554   3.665  0.1160  0.6262 -0.2356
31982SOL    HW1 3186   8.127   7.641   3.698  0.1160  0.5009  0.1013
31982SOL    HW2 3187   8.186   7.506   3.664  0.1411  0.6710 -0.5600
31983SOL     OW 3188   8.606   3.723   6.175  0.2311  0.3184  0.2620
31983SOL    HW1 3189   8.563   3.759   6.097  0.4258 -3.0415 -1.5686
31983SOL    HW2 3190   8.695   3.702   6.146  0.3413 -0.9079  1.3898
31984SOL     OW 3191   7.857   9.251   1.640  0.0186  0.0714  0.1934
31984SOL    HW1 3192   7.935   9.293   1.603  0.1219 -0.4475 -0.1927
31984SOL    HW2 3193   7.866   9.159   1.615 -0.2385 -0.1720  0.9621
31985SOL     OW 3194   5.848  12.035   1.869 -0.2229 -0.1723 -0.4965
31985SOL    HW1 3195   5.907  11.959   1.867 -0.6048 -0.5632  1.3952
31985SOL    HW2 3196   5.764  11.999   1.896 -0.4020  0.9115  0.4490
31986SOL     OW 3197   3.006   3.114   8.525 -0.6107  0.5486 -0.7992
31986SOL    HW1 3198   3.009   3.035   8.470 -0.3690 -0.1078  0.1305
31986SOL    HW2 3199   2.927   3.160   8.496 -1.3611 -0.5881 -0.6222
31987SOL     OW 3200   2.283   3.049   1.853 -0.0024 -0.2714 -0.3390
31987SOL    HW1 3201   2.218   3.077   1.917  0.2833  3.5478 -1.5083
31987SOL    HW2 3202   2.240   3.057   1.768  1.0710 -0.6205 -0.9411
31988SOL     OW 3203  12.073  12.434  12.637 -0.3390 -0.1171  0.1485
31988SOL    HW1 3204  12.008  12.363  12.637  0.2715 -0.6840 -0.6383
31988SOL    HW2 3205  12.087  12.454  12.545  2.0845 -1.3867  0.1662
31989SOL     OW 3206   6.786   8.885   1.492 -0.1890 -0.0477  0.0329
31989SOL    HW1 3207   6.750   8.861   1.578 -0.9850  0.1711 -0.2357
31989SOL    HW2 3208   6.851   8.953   1.511  0.6600 -0.9761  0.5983
31990SOL     OW 3209   3.721   3.416  10.315 -0.7400 -0.0460  0.3370
31990SOL    HW1 3210   3.672   3.335  10.304 -1.2519  0.2534  0.3489
31990SOL    HW2 3211   3.656   3.485  10.300 -0.3513  0.3601  0.4931
31991SOL     OW 3212  10.553   2.796   3.164  0.3228  0.0575  0.4969
31991SOL    HW1 3213  10.499   2.755   3.096  1.9583 -2.1925  0.4608
31991SOL    HW2 3214  10.636   2.816   3.120  1.2517 -1.0332  1.6741
31992SOL     OW 3215  11.020   1.433   6.189 -0.5096  0.7953 -0.2122
31992SOL    HW1 3216  11.061   1.383   6.118  0.0960 -0.1196  0.7533
31992SOL    HW2 3217  10.950   1.482   6.146 -2.5952 -2.5041 -0.9372
31993SOL     OW 3218  10.966   7.231   2.062  0.3231  0.1466  0.3874
31993SOL    HW1 3219  10.876   7.220   2.031  0.5252 -1.0080  0.1618
31993SOL    HW2 3220  10.971   7.176   2.141 -0.3445  3.4310  2.9650
31994SOL     OW 3221   1.420   2.817   1.320  0.2525  0.3946  0.0916
31994SOL    HW1 3222   1.375   2.838   1.402 -0.2597  1.1165 -0.3693
31994SOL    HW2 3223   1.489   2.883   1.313  1.1038 -0.4230  0.5595
31995SOL     OW 3224   9.441   0.316  10.253  0.0273  0.4919  0.7869
31995SOL    HW1 3225   9.532   0.329  10.279  0.5796 -0.4449 -0.5709
31995SOL    HW2 3226   9.431   0.372  10.176 -0.2670 -0.0724  0.4072
31996SOL     OW 3227   6.632   3.952  11.556  0.3682  0.1349  0.1543
31996SOL    HW1 3228   6.606   3.954  11.648  0.1688  0.6536  0.0906
31996SOL    HW2 3229   6.562   3.999  11.510  0.8112  0.4796 -0.1746
31997SOL     OW 3230   6.173   9.857  12.570  0.4203  0.6250  0.2226
31997SOL    HW1 3231   6.086   9.833  12.602 -0.6646  2.0295 -1.4902
31997SOL    HW2 3232   6.217   9.774  12.552 -0.8752 -0.1006  0.3702
31998SOL     OW 3233  10.538   3.369  12.653 -0.5066  0.5539  0.1895
31998SOL    HW1 3234  10.450   3.407  12.655 -0.6195  0.2724  1.7993
31998SOL    HW2 3235  10.597   3.443  12.664 -0.5157  0.7516 -0.9589
31999SOL     OW 3236   7.153   7.672   3.647 -0.4919 -0.0880  0.2370
31999SOL    HW1 3237   7.142   7.699   3.556 -1.7532  1.6312  0.8600
31999SOL    HW2 3238   7.213   7.736   3.685  0.3311 -1.0152  0.5615
32000SOL     OW 3239   3.724   7.238  11.160  0.0054 -0.6201 -0.3830
32000SOL    HW1 3240   3.702   7.322  11.121  0.0578 -1.3336 -2.0372
32000SOL    HW2 3241   3.712   7.251  11.254 -1.6744  0.7343 -0.7345
32001SOL     OW 3242   2.262   6.336   8.982 -0.0092  0.5440  0.5965
32001SOL    HW1 3243   2.202   6.390   8.930 -0.2900  1.0611  1.4239
32001SOL    HW2 3244   2.260   6.250   8.940  0.8433  1.2813 -1.0768
32002SOL     OW 3245  10.911   5.741   9.193 -0.2267  0.2417 -0.2780
32002SOL    HW1 3246  10.894   5.706   9.281  0.5252  1.6195  0.4494
32002SOL    HW2 3247  10.997   5.707   9.169  0.1245  0.8743  0.0642
32003SOL     OW 3248   5.985   7.326   1.756 -0.1108 -0.0994  0.4611
32003SOL    HW1 3249   6.023   7.412   1.739  0.1697 -0.2720  0.2026
32003SOL    HW2 3250   6.060   7.269   1.769 -0.3098 -0.1011  1.6643
32004SOL     OW 3251   7.138   5.489   2.976 -0.0068 -0.4125 -0.1075
32004SOL    HW1 3252   7.223   5.457   2.943  0.1732 -0.8853  0.7743
32004SOL    HW2 3253   7.092   5.409   3.004 -0.5316 -0.1082 -0.1007
32005SOL     OW 3254   9.630   6.382   5.680 -0.1976 -0.2404 -0.0939
32005SOL    HW1 3255   9.708   6.429   5.709 -0.5063  0.3152 -0.1522
32005SOL    HW2 3256   9.641   6.293   5.715  0.3238 -0.0892  0.1340
32006SOL     OW 3257   5.996   6.966   9.757 -0.2612  0.4459 -0.1401
32006SOL    HW1 3258   5.982   6.885   9.707  2.4718 -0.6175  0.6458
32006SOL    HW2 3259   5.953   6.950   9.841  0.3221 -0.2623  0.0375
32007SOL     OW 3260   2.441   0.246   2.375  0.0982 -0.0083 -0.4143
32007SOL    HW1 3261   2.439   0.150   2.374  1.7961 -0.2883  3.5296
32007SOL    HW2 3262   2.532   0.268   2.357 -0.0299  0.7735 -0.1507
32008SOL     OW 3263   5.905   5.913   3.237 -0.2403  0.5646 -0.4632
32008SOL    HW1 3264   5.826   5.885   3.282 -1.5980  3.0067 -1.1442
32008SOL    HW2 3265   5.878   5.927   3.146  1.7662 -1.5564 -1.4825
32009SOL     OW 3266   7.270   4.631   2.658  0.5101  0.1019 -0.0332
32009SOL    HW1 3267   7.241   4.663   2.572  0.7036  0.4896  0.0457
32009SOL    HW2 3268   7.355   4.591   2.642  0.3065 -0.3045 -0.1163
32010SOL     OW 3269  11.970   2.250   1.445  0.0712 -0.7018 -0.0816
32010SOL    HW1 3270  12.059   2.284   1.458 -0.9958  2.6825 -0.5852
32010SOL    HW2 3271  11.967   2.227   1.352 -0.2934  1.9006 -0.7899
32011SOL     OW 3272   8.622   2.826   4.093 -0.2345 -0.1572 -0.3075
32011SOL    HW1 3273   8.657   2.914   4.076 -0.6593  0.0131 -0.3080
32011SOL    HW2 3274   8.674   2.768   4.037 -0.8278  0.2522 -1.3073
32012SOL     OW 3275   3.222  10.278   7.451  0.0113  0.5326  0.5284
32012SOL    HW1 3276   3.275  10.236   7.519 -2.3906 -0.9098  1.6102
32012SOL    HW2 3277   3.249  10.234   7.370  0.9342  0.3200  0.9326
32013SOL     OW 3278   9.403   3.946   2.570 -0.3407 -0.3384 -0.6832
32013SOL    HW1 3279   9.317   3.982   2.593 -0.6589 -1.2487 -0.3932
32013SOL    HW2 3280   9.393   3.852   2.583  0.6160 -0.4816 -0.9492
32014SOL     OW 3281   9.657   3.103   4.983  0.3583 -0.4119 -0.7155
32014SOL    HW1 3282   9.676   3.166   4.914  0.4684  0.0266 -0.2921
32014SOL    HW2 3283   9.646   3.019   4.937  0.3720 -0.1178 -1.2650
32015SOL     OW 3284  10.679   2.011  12.237 -0.4973  0.2058 -0.0845
32015SOL    HW1 3285  10.768   1.978  12.221 -1.4080 -2.1887 -0.5064
32015SOL    HW2 3286  10.683   2.103  12.211  1.4592 -0.2393 -1.5869
32016SOL     OW 3287  10.445   5.079   4.693  0.0704 -0.0375  0.2300
32016SOL    HW1 3288  10.367   5.117   4.733  0.4976 -0.1759  1.2358
32016SOL    HW2 3289  10.460   4.998   4.742  1.6061  0.6569  0.9937
32017SOL     OW 3290  12.199   9.511  10.928  0.3175  0.0375 -0.2231
32017SOL    HW1 3291  12.180   9.422  10.897 -0.3289  0.1103 -0.0504
32017SOL    HW2 3292  12.286   9.504  10.968 -0.2372 -0.8027  0.9095
32018SOL     OW 3293   0.774   6.696   6.028  0.4517 -0.3333 -0.3378
32018SOL    HW1 3294   0.835   6.739   6.088  0.8156  0.0277 -0.9572
32018SOL    HW2 3295   0.829   6.654   5.962  0.0441  0.4819 -1.2379
32019SOL     OW 3296   4.388   7.186   8.342  0.4436 -0.3878  0.3471
32019SOL    HW1 3297   4.337   7.257   8.381 -0.8347 -0.2339 -1.4701
32019SOL    HW2 3298   4.471   7.226   8.316 -0.5871  0.7078 -1.4149
32020SOL     OW 3299   0.811   9.537  10.023 -0.1370 -0.0793 -0.5637
32020SOL    HW1 3300   0.787   9.460  10.076 -1.6166  0.2315 -0.7404
32020SOL    HW2 3301   0.871   9.503   9.957 -0.0724 -0.9171 -0.0866
32021SOL     OW 3302   4.385   8.593  12.686 -0.0499 -0.0223  0.2631
32021SOL    HW1 3303   4.457   8.626  12.739 -0.4925 -0.5899  1.2440
32021SOL    HW2 3304   4.307   8.632  12.725 -0.3891 -0.4975  0.0732
32022SOL     OW 3305   1.160  10.060   6.861 -0.7226 -0.2039  0.3587
32022SOL    HW1 3306   1.067  10.039   6.868 -0.6191 -0.7121  0.2526
32022SOL    HW2 3307   1.175  10.124   6.931 -1.7610  2.1183 -1.3835
32023SOL     OW 3308  12.405   2.841  11.619 -0.1228 -0.1497 -0.2706
32023SOL    HW1 3309  12.406   2.934  11.595  1.2692  0.6517  2.5313
32023SOL    HW2 3310  12.318   2.811  11.592 -1.3068  2.4121  0.3246
32024SOL     OW 3311   2.563  12.196   7.132  0.3844  0.0521 -0.1713
32024SOL    HW1 3312   2.600  12.208   7.219 -0.6488  1.2107  0.1335
32024SOL    HW2 3313   2.549  12.102   7.124  0.2390 -0.0362  1.0360
32025SOL     OW 3314  11.578   3.611  12.130  0.4085 -0.2993 -0.0936
32025SOL    HW1 3315  11.654   3.611  12.188  0.3556  0.6034 -0.0134
32025SOL    HW2 3316  11.609   3.569  12.050  0.4008 -1.8269  0.6567
32026SOL     OW 3317   8.812   5.156   3.726  0.4230 -0.0904  0.5428
32026SOL    HW1 3318   8.824   5.117   3.813  1.6198  1.5794  1.1624
32026SOL    HW2 3319   8.894   5.201   3.708 -0.8455  2.1214 -0.1257
32027SOL     OW 3320  10.918   8.966   4.842 -0.5443  0.2207 -0.0686
32027SOL    HW1 3321  10.992   9.012   4.882 -0.5681 -0.4908  0.8105
32027SOL    HW2 3322  10.841   9.017   4.870 -0.5442 -0.1557  0.6588
32028SOL     OW 3323   8.418   8.512   4.041  0.4812  0.0353 -0.1499
32028SOL    HW1 3324   8.459   8.447   4.098 -0.5188 -1.1903 -0.7716
32028SOL    HW2 3325   8.324   8.504   4.058  0.3784  2.4962  0.9621
32029SOL     OW 3326   0.962   0.077   7.585  0.2451  0.7363 -0.3512
32029SOL    HW1 3327   0.885   0.057   7.532  0.1362 -2.7871  0.8731
32029SOL    HW2 3328   0.928   0.081   7.675  1.4027 -0.6900  0.1795
32030SOL     OW 3329  11.374   1.077  10.687  0.3942  0.1912  0.2246
32030SOL    HW1 3330  11.311   1.010  10.661  0.3519  0.5526 -0.6332
32030SOL    HW2 3331  11.459   1.040  10.664  0.3700  0.4268 -0.2551
32031SOL     OW 3332   4.980   4.030  10.570  0.0143 -0.0677  0.0004
32031SOL    HW1 3333   5.006   4.115  10.605 -0.2573 -0.5121  1.3260
32031SOL    HW2 3334   5.010   3.967  10.635  3.1643 -1.3431 -2.4579
32032SOL     OW 3335   1.928   1.053   0.029  0.9311 -0.3021  0.1649
32032SOL    HW1 3336   1.878   1.089  -0.044 -0.7708 -3.4349 -0.4082
32032SOL    HW2 3337   1.889   1.091   0.107 -1.0891 -1.1282 -0.3800
32033SOL     OW 3338   8.021   1.690   1.167 -0.2360  0.1512  0.1519
32033SOL    HW1 3339   8.054   1.769   1.208 -0.8020  0.4420  0.0620
32033SOL    HW2 3340   7.945   1.719   1.116  0.9600 -0.0420 -1.8476
32034SOL     OW 3341   5.887   8.082  10.245 -0.1207  0.6037 -0.7360
32034SOL    HW1 3342   5.823   8.021  10.283  0.3788  0.1001 -0.6920
32034SOL    HW2 3343   5.848   8.169  10.260 -0.1200  0.4051  0.6075
32035SOL     OW 3344   0.322   1.387   6.706 -0.4027  0.4146 -0.3296
32035SOL    HW1 3345   0.341   1.479   6.691  1.0186  0.0836 -0.7504
32035SOL    HW2 3346   0.339   1.344   6.622  1.3148 -0.5473  0.4505
32036SOL     OW 3347  11.458  10.926   1.300  0.4031 -0.4002 -0.0439
32036SOL    HW1 3348  11.439  10.832   1.296  1.9735 -0.7187 -1.3988
32036SOL    HW2 3349  11.502  10.945   1.217 -1.3054  1.9079 -0.5123
32037SOL     OW 3350   7.590   6.108   3.263  0.1991 -0.4992  0.4457
32037SOL    HW1 3351   7.523   6.122   3.330  0.1642 -0.4861  0.4082
32037SOL    HW2 3352   7.636   6.028   3.291  1.2694  0.4031  1.3792
32038SOL     OW 3353   5.686  10.787   7.165 -0.2684 -0.4441  0.9962
32038SOL    HW1 3354   5.677  10.784   7.260  0.9107  0.5402  1.1574
32038SOL    HW2 3355   5.602  10.753   7.132 -1.3246  0.6982  2.3658
32039SOL     OW 3356  10.157  11.550  12.593  0.0518 -0.4761  0.6263
32039SOL    HW1 3357  10.204  11.566  12.511  1.2315 -0.3092  1.3113
32039SOL    HW2 3358  10.066  11.539  12.567  0.2403  0.6483 -0.6038
32040SOL     OW 3359   7.330  10.734   0.388  0.2017  0.1467  0.3879
32040SOL    HW1 3360   7.365  10.700   0.306 -2.4985 -0.6446 -0.5515
32040SOL    HW2 3361   7.336  10.829   0.379  1.2752  0.0548 -0.0493
32041SOL     OW 3362   8.409  11.879   5.886  0.0316  0.5342 -0.1112
32041SOL    HW1 3363   8.438  11.820   5.816 -0.1509 -0.2325  0.4522
32041SOL    HW2 3364   8.458  11.851   5.963 -1.4886 -0.1725  0.6411
32042SOL     OW 3365   0.240   4.819   1.698  0.3790  0.0811 -0.9278
32042SOL    HW1 3366   0.257   4.728   1.720  0.4486  0.1171 -0.8329
32042SOL    HW2 3367   0.177   4.815   1.626 -0.4355 -0.0263 -0.2240
32043SOL     OW 3368   9.430   0.767   9.581  0.3515  0.1440 -0.1948
32043SOL    HW1 3369   9.353   0.784   9.636 -0.3634  0.9751 -1.4069
32043SOL    HW2 3370   9.455   0.677   9.603 -0.6048  0.0560  0.6444
32044SOL     OW 3371   2.520  12.074   2.046  0.0434 -0.0870 -0.5560
32044SOL    HW1 3372   2.453  12.046   1.984  0.1081 -0.2027 -0.5740
32044SOL    HW2 3373   2.596  12.093   1.992  0.3857 -1.0651 -0.4280
32045SOL     OW 3374   0.751   2.407   1.399  0.0019  0.1653 -0.1840
32045SOL    HW1 3375   0.846   2.400   1.401 -0.0715 -1.0305  1.2633
32045SOL    HW2 3376   0.720   2.332   1.451 -1.7760 -0.3458 -1.8507
32046SOL     OW 3377   1.065   2.875   1.586  0.5027  0.2487  0.9750
32046SOL    HW1 3378   0.978   2.839   1.604  0.2876  1.6384  3.2394
32046SOL    HW2 3379   1.051   2.970   1.585  1.8920  0.4691  0.7229
32047SOL     OW 3380   2.807  11.431   5.377 -0.0775  0.6281  0.3238
32047SOL    HW1 3381   2.871  11.489   5.335  0.3517  0.8683  1.2785
32047SOL    HW2 3382   2.803  11.355   5.319 -0.5192  1.5180 -0.8535
32048SOL     OW 3383   3.240   7.757   5.262  0.1440 -0.2595 -0.1929
32048SOL    HW1 3384   3.155   7.798   5.248 -1.0118 -3.1731 -2.6897
32048SOL    HW2 3385   3.303   7.819   5.225 -1.2203  0.4859 -1.3424
32049SOL     OW 3386   2.012   1.672   8.868  0.2485  0.0481 -0.0992
32049SOL    HW1 3387   2.099   1.704   8.892  0.0598  0.3323  0.2281
32049SOL    HW2 3388   1.954   1.709   8.935  0.2698 -2.5927  1.5470
32050SOL     OW 3389  10.425   7.594   0.836 -0.3463  0.4746 -0.0573
32050SOL    HW1 3390  10.416   7.674   0.785  0.4634  1.5503  1.4381
32050SOL    HW2 3391  10.387   7.615   0.922 -0.9061 -1.0230  0.1090
32051SOL     OW 3392   5.510  10.597  10.239 -0.1225  0.0837  0.4545
32051SOL    HW1 3393   5.603  10.574  10.240 -0.2601 -0.7924 -1.6339
32051SOL    HW2 3394   5.475  10.562  10.321  1.3474  0.3799  1.2457
32052SOL     OW 3395   4.140   9.082   1.206 -0.4701  0.0216  0.3652
32052SOL    HW1 3396   4.194   9.031   1.266 -0.2349 -0.8535 -0.5601
32052SOL    HW2 3397   4.055   9.037   1.206 -1.1748  1.2594  1.6417
32053SOL     OW 3398   6.477   1.258   1.709 -0.1648 -0.1750  0.2501
32053SOL    HW1 3399   6.434   1.228   1.790  0.6258 -1.5726  0.1873
32053SOL    HW2 3400   6.530   1.183   1.681 -0.1247  0.4215 -1.3698
32054SOL     OW 3401  11.170   3.245  10.249 -0.3803 -0.2935 -0.3298
32054SOL    HW1 3402  11.247   3.189  10.259 -1.2801 -1.4675  0.2387
32054SOL    HW2 3403  11.152   3.244  10.155 -0.8310 -1.5806 -0.2396
32055SOL     OW 3404   7.744   8.793   8.511 -0.4781 -0.3186  0.1872
32055SOL    HW1 3405   7.774   8.756   8.594 -1.2736  0.5355  0.8912
32055SOL    HW2 3406   7.784   8.739   8.444  0.3832 -0.8790  1.1307
32056SOL     OW 3407   3.278  12.609  11.961  0.1195 -0.0291  0.0922
32056SOL    HW1 3408   3.364  12.637  11.929 -0.2529 -1.3169 -2.2862
32056SOL    HW2 3409   3.296  12.531  12.014  0.5986  1.2150  1.8635
32057SOL     OW 3410   4.836  10.997   4.165  0.0229 -0.1746  0.1497
32057SOL    HW1 3411   4.791  11.079   4.145 -1.1257 -0.8404 -0.0984
32057SOL    HW2 3412   4.796  10.933   4.107 -1.5556 -1.6241  2.6699
32058SOL     OW 3413   2.340  12.644   5.968 -0.7755  0.0060  0.1523
32058SOL    HW1 3414   2.271  12.684   6.021  1.3784  1.2871  2.1737
32058SOL    HW2 3415   2.411  12.709   5.969 -0.6680  0.3195 -4.7156
32059SOL     OW 3416   7.810   7.361   6.137 -0.5098 -0.0462 -0.3659
32059SOL    HW1 3417   7.756   7.282   6.139 -0.8973  0.2051 -0.8115
32059SOL    HW2 3418   7.783   7.410   6.215 -0.4197 -0.2509 -0.2044
32060SOL     OW 3419  10.747   0.978   9.134  0.5873  0.4064 -0.0790
32060SOL    HW1 3420  10.719   0.888   9.114  1.3975  0.2141 -0.3957
32060SOL    HW2 3421  10.755   0.980   9.229  2.1463 -0.3609 -0.1665
32061SOL     OW 3422   2.415   5.185   0.569 -0.5010 -0.0360  0.0689
32061SOL    HW1 3423   2.472   5.117   0.532 -0.7631 -1.0986  1.5161
32061SOL    HW2 3424   2.332   5.139   0.588 -1.7713  1.4038 -1.7106
32062SOL     OW 3425  10.073  10.575   8.963 -0.2652 -0.2836 -0.5696
32062SOL    HW1 3426  10.047  10.506   9.024  1.0587 -0.1510  0.1821
32062SOL    HW2 3427  10.003  10.641   8.970 -1.0778 -1.1166 -0.6214
32063SOL     OW 3428   8.096   3.135   1.354  0.3250 -0.5762 -0.7291
32063SOL    HW1 3429   8.039   3.097   1.420  0.3824 -1.0452 -0.9438
32063SOL    HW2 3430   8.138   3.060   1.312  3.2986 -0.2096  1.3030
32064SOL     OW 3431  11.880   0.094   2.191  0.1721  0.4760 -0.1644
32064SOL    HW1 3432  11.933   0.173   2.196  0.9118 -0.0709  1.0858
32064SOL    HW2 3433  11.791   0.123   2.206  0.2283  1.2717 -1.2724
32065SOL     OW 3434   1.651   7.555   8.045  0.0814  0.2474  0.4426
32065SOL    HW1 3435   1.693   7.469   8.051 -0.6492  0.0095  3.1212
32065SOL    HW2 3436   1.721   7.612   8.012  0.4586 -1.3783 -1.8208
32066SOL     OW 3437  10.639   4.069   8.141 -0.8844 -0.2332  0.1635
32066SOL    HW1 3438  10.731   4.086   8.125 -0.7413 -0.2108  0.9949
32066SOL    HW2 3439  10.615   4.127   8.213 -1.1265 -1.4149  1.0669
32067SOL     OW 3440   1.558   2.233   8.677  0.2408 -0.2034 -0.2795
32067SOL    HW1 3441   1.540   2.321   8.644  0.2513 -0.4424 -0.9236
32067SOL    HW2 3442   1.474   2.188   8.673  0.0578  0.0079  0.7930
32068SOL     OW 3443   9.694  10.582   3.785  0.0270  0.2256 -0.6004
32068SOL    HW1 3444   9.733  10.504   3.744 -1.2763 -0.5753 -0.3688
32068SOL    HW2 3445   9.769  10.638   3.804  1.6152 -2.6876  2.9694
32069SOL     OW 3446   5.351   2.069   3.419 -0.6272 -0.4314 -0.2270
32069SOL    HW1 3447   5.445   2.051   3.423 -0.6034 -0.1847  0.5613
32069SOL    HW2 3448   5.314   1.992   3.376 -0.0799 -0.5822 -0.4493
32070SOL     OW 3449   7.314   8.873   8.804 -0.1212 -0.1249 -0.0885
32070SOL    HW1 3450   7.406   8.853   8.825 -0.3139  0.4343  1.3836
32070SOL    HW2 3451   7.310   8.968   8.803 -0.6093 -0.1468 -0.5454
32071SOL     OW 3452   7.278   7.342  11.154  0.2747 -0.5466 -0.4646
32071SOL    HW1 3453   7.267   7.437  11.155  0.6720 -0.4840  0.8537
32071SOL    HW2 3454   7.217   7.311  11.087 -2.5477  0.3498  1.4949
32072SOL     OW 3455   4.138   6.782   3.015 -0.2646  0.2149 -0.2144
32072SOL    HW1 3456   4.217   6.787   3.069  0.4163  3.6373 -1.3031
32072SOL    HW2 3457   4.170   6.794   2.925 -1.8359 -0.7289 -0.9467
32073SOL     OW 3458   9.401   1.584  11.192 -0.2729  0.2768  0.6816
32073SOL    HW1 3459   9.413   1.635  11.111  0.0568  0.1948  0.6769
32073SOL    HW2 3460   9.404   1.649  11.262  0.5438  0.2191  0.7028
32074SOL     OW 3461   2.589  10.700   4.632  0.1250 -0.4575 -0.2191
32074SOL    HW1 3462   2.558  10.789   4.614 -0.9754 -0.6971  0.3954
32074SOL    HW2 3463   2.682  10.710   4.652  0.2561  0.4113 -1.1750
32075SOL     OW 3464   8.655  10.482   1.001  0.2381 -0.1530 -0.2872
32075SOL    HW1 3465   8.706  10.562   0.997 -0.0003 -0.0254 -0.7988
32075SOL    HW2 3466   8.585  10.494   0.937  0.5187 -0.9893 -0.7672
32076SOL     OW 3467   2.860   1.394  10.243  0.7185  0.7982  0.3182
32076SOL    HW1 3468   2.934   1.404  10.183 -0.8517 -0.3336 -1.9974
32076SOL    HW2 3469   2.806   1.471  10.228 -0.0381  0.1674 -0.3425
32077SOL     OW 3470   4.771   9.114   3.196 -0.6934 -0.2796  0.0900
32077SOL    HW1 3471   4.704   9.179   3.215  0.8656  1.2720  0.4980
32077SOL    HW2 3472   4.817   9.148   3.120 -0.8714 -1.7384 -0.6971
32078SOL     OW 3473  12.341   1.617   9.659 -0.0452 -0.1730 -0.5893
32078SOL    HW1 3474  12.426   1.654   9.637  0.1134 -0.8097 -1.0947
32078SOL    HW2 3475  12.292   1.619   9.576 -0.0471 -1.0332 -0.6212
32079SOL     OW 3476   3.040   0.875   2.231 -0.3342 -0.0667  0.6593
32079SOL    HW1 3477   3.023   0.833   2.315  0.1738 -0.1599  0.7192
32079SOL    HW2 3478   3.117   0.930   2.247  0.0297 -0.4216  0.1448
32080SOL     OW 3479   4.302   9.278  10.139  0.2100  0.2608 -0.2113
32080SOL    HW1 3480   4.366   9.348  10.152  0.3279  0.2562 -0.7854
32080SOL    HW2 3481   4.276   9.254  10.228 -0.2433  1.4146 -0.0111
32081SOL     OW 3482   8.070   9.052   1.194  0.1897 -0.1631 -0.0558
32081SOL    HW1 3483   8.009   9.125   1.206 -1.5956 -1.3424 -1.5494
32081SOL    HW2 3484   8.077   9.012   1.281  0.8363  1.4400  0.6784
32082SOL     OW 3485   0.696  12.129   5.451  0.2862 -0.0222  0.0761
32082SOL    HW1 3486   0.771  12.070   5.465  0.8059  0.7483  0.6071
32082SOL    HW2 3487   0.728  12.215   5.478 -1.6114 -0.0865  3.0103
32083SOL     OW 3488  11.671  10.002   2.580  0.5339 -0.1925  0.0144
32083SOL    HW1 3489  11.686  10.034   2.668  1.6657  1.2407 -0.6556
32083SOL    HW2 3490  11.710  10.069   2.523  2.2819 -2.3315 -1.4915
32084SOL     OW 3491  10.321   5.086   3.692 -0.1876 -0.0388 -0.2803
32084SOL    HW1 3492  10.276   5.163   3.730  0.4452  0.4813 -0.5741
32084SOL    HW2 3493  10.399   5.122   3.650  0.0242 -0.8298 -0.5788
32085SOL     OW 3494   9.336   6.568   2.676  0.8623 -0.1308 -1.0004
32085SOL    HW1 3495   9.379   6.486   2.700  2.6966  1.1791  0.5916
32085SOL    HW2 3496   9.381   6.595   2.596  0.3579 -0.5837 -1.4439
32086SOL     OW 3497   1.219   2.106   5.380 -0.3924  0.4276 -0.0871
32086SOL    HW1 3498   1.301   2.155   5.385  1.3870 -2.4397  1.2290
32086SOL    HW2 3499   1.176   2.123   5.464 -1.2712  1.9774 -0.8001
32087SOL     OW 3500   2.523   8.350   8.969 -0.4889  0.7521 -0.5104
32087SOL    HW1 3501   2.479   8.374   8.887 -0.1427  3.2370 -0.0656
32087SOL    HW2 3502   2.605   8.399   8.966  0.3137 -0.4901  0.5721
32088SOL     OW 3503   4.521   6.634  12.198  0.4616  0.2065 -0.3326
32088SOL    HW1 3504   4.496   6.688  12.123 -0.1881  1.1151  0.5115
32088SOL    HW2 3505   4.617   6.636  12.198  0.5027  2.8522  0.6497
32089SOL     OW 3506   9.776   2.814   6.395 -0.0896 -0.4562 -0.1081
32089SOL    HW1 3507   9.731   2.797   6.312 -0.5598  0.0301  0.0425
32089SOL    HW2 3508   9.767   2.909   6.407  0.0051 -0.5228  0.4839
32090SOL     OW 3509   9.321   7.131   4.555 -0.4482 -0.3384  0.2383
32090SOL    HW1 3510   9.291   7.187   4.626 -0.0693 -0.3596  0.4192
32090SOL    HW2 3511   9.409   7.163   4.533 -0.3895 -0.6023  0.0706
32091SOL     OW 3512   6.652   2.225   0.549  0.4340 -0.3491 -0.2440
32091SOL    HW1 3513   6.742   2.252   0.567  0.1550  0.3903  0.0773
32091SOL    HW2 3514   6.603   2.253   0.627 -0.3195  0.4645 -0.9954
32092SOL     OW 3515   0.475   1.818   1.584 -0.1293  0.3190  0.0174
32092SOL    HW1 3516   0.394   1.833   1.633  1.1836  1.8187  1.9386
32092SOL    HW2 3517   0.516   1.905   1.580  1.1900 -0.3251 -1.2492
32093SOL     OW 3518   9.386   6.527   6.224 -0.2660  0.4160  0.1786
32093SOL    HW1 3519   9.439   6.504   6.147 -2.5328  1.6682 -1.9188
32093SOL    HW2 3520   9.306   6.475   6.214 -1.7404  2.5344  0.1234
32094SOL     OW 3521   9.808  11.160   3.215  0.5058  0.5057  0.4255
32094SOL    HW1 3522   9.790  11.214   3.292  0.2661 -0.2574  0.9143
32094SOL    HW2 3523   9.724  11.157   3.168  0.7064  1.1450  0.0156
32095SOL     OW 3524   8.307   1.985  11.909  0.1777  0.5598 -0.8241
32095SOL    HW1 3525   8.400   1.977  11.933 -0.1358 -0.9413  0.0084
32095SOL    HW2 3526   8.274   2.054  11.967  0.1405 -0.9185  1.0051
32096SOL     OW 3527   4.757  10.939  11.999 -0.2418  0.0170  0.0696
32096SOL    HW1 3528   4.813  10.862  12.002  0.5119  0.4842 -1.2634
32096SOL    HW2 3529   4.740  10.960  12.091  2.4585  0.3398  0.5808
32097SOL     OW 3530   5.022  11.183   6.780  0.0267 -0.5093 -1.0217
32097SOL    HW1 3531   4.928  11.188   6.799 -0.3213 -1.3295 -2.3876
32097SOL    HW2 3532   5.053  11.108   6.830  0.5649  1.3385  1.5849
32098SOL     OW 3533   0.764   0.252  11.150 -0.7467 -0.3907  0.0595
32098SOL    HW1 3534   0.798   0.275  11.063 -0.8220  1.5886  0.4951
32098SOL    HW2 3535   0.675   0.287  11.150 -0.9421 -0.8885  0.7386
32099SOL     OW 3536  11.892   4.242  11.366  0.9702 -0.1025  0.1257
32099SOL    HW1 3537  11.893   4.317  11.307  2.1660 -0.2462 -0.0722
32099SOL    HW2 3538  11.977   4.246  11.411 -0.2161  0.4885  2.4726
32100SOL     OW 3539  11.470  10.334   5.439 -0.1761 -0.1843  0.5691
32100SOL    HW1 3540  11.505  10.247   5.457 -0.9061 -0.6264 -0.0886
32100SOL    HW2 3541  11.393  10.319   5.385  0.2205  0.9123 -0.3595
32101SOL     OW 3542   5.148  10.066  10.193  0.8435  0.3972  0.1921
32101SOL    HW1 3543   5.067  10.053  10.145  0.1444 -0.3111  1.5048
32101SOL    HW2 3544   5.214  10.082  10.125 -0.4793  1.6016 -0.8619
32102SOL     OW 3545   5.376   8.615   8.669 -0.4380  0.1716 -0.1812
32102SOL    HW1 3546   5.365   8.590   8.577  1.1633  1.9107 -0.9282
32102SOL    HW2 3547   5.352   8.708   8.671  1.8105  0.8015  0.5842
32103SOL     OW 3548   0.999  10.435   0.237  0.3375  0.2625 -0.0856
32103SOL    HW1 3549   0.996  10.471   0.325  1.0446 -3.5986  1.7341
32103SOL    HW2 3550   1.093  10.426   0.219  0.1905  0.6798 -1.1172
32104SOL     OW 3551   5.742   0.700  12.656 -0.2854  0.3148  0.4401
32104SOL    HW1 3552   5.738   0.783  12.704  0.5940  0.6441 -0.0412
32104SOL    HW2 3553   5.694   0.717  12.574  0.6763  0.6386 -0.0669
32105SOL     OW 3554   3.710   2.114   4.589  0.0745  0.0675  0.2196
32105SOL    HW1 3555   3.782   2.110   4.527  1.0789  1.0012  1.2642
32105SOL    HW2 3556   3.743   2.170   4.660 -2.0646  1.3893  0.2388
32106SOL     OW 3557   2.536   2.238   7.030 -0.1314 -0.4459  0.4844
32106SOL    HW1 3558   2.493   2.280   7.105  1.0071 -0.7619  1.3479
32106SOL    HW2 3559   2.530   2.302   6.960 -0.1282  0.3772  1.2174
32107SOL     OW 3560  11.991   7.828   6.402  0.4816  0.1529 -0.5436
32107SOL    HW1 3561  12.044   7.796   6.475 -0.2918 -1.3694 -0.6218
32107SOL    HW2 3562  12.054   7.866   6.342  1.3373 -0.3523  0.0113
32108SOL     OW 3563   1.375   3.383   7.597  0.2188  0.2886 -0.1386
32108SOL    HW1 3564   1.312   3.372   7.668 -0.5803 -1.7902 -1.0765
32108SOL    HW2 3565   1.363   3.473   7.568  0.1084  0.9774  1.8993
32109SOL     OW 3566   9.534  12.352  10.333  0.4802 -0.0180 -0.5671
32109SOL    HW1 3567   9.548  12.446  10.337 -0.5689  0.1817 -1.1570
32109SOL    HW2 3568   9.480  12.339  10.254 -2.4044 -0.6910  1.3445
32110SOL     OW 3569   1.009   6.881   5.714 -0.0872  0.1676  0.1938
32110SOL    HW1 3570   0.942   6.831   5.668 -0.0245  0.2580  0.0035
32110SOL    HW2 3571   0.962   6.926   5.784 -0.0304 -0.7346  0.8290
32111SOL     OW 3572   1.767   7.345   0.404 -0.3213  0.0281 -0.2264
32111SOL    HW1 3573   1.679   7.306   0.402 -0.2080 -0.2080 -1.2022
32111SOL    HW2 3574   1.818   7.286   0.460  0.0409 -1.7330 -2.2631
32112SOL     OW 3575   9.894   6.374   2.931  0.3266 -0.4343 -0.0912
32112SOL    HW1 3576   9.962   6.437   2.907 -1.3537  0.7397 -2.1242
32112SOL    HW2 3577   9.930   6.289   2.906  0.6513  0.2855 -2.2555
32113SOL     OW 3578   3.457   6.241  11.065  0.0713 -0.4392 -0.2328
32113SOL    HW1 3579   3.518   6.274  11.131 -0.8175 -1.1502  0.9906
32113SOL    HW2 3580   3.372   6.276  11.092 -0.1315  0.3357 -1.7722
32114SOL     OW 3581   3.572   2.373   4.990 -0.8018 -0.6224 -0.4665
32114SOL    HW1 3582   3.487   2.387   4.947 -0.2634  0.1869 -1.3223
32114SOL    HW2 3583   3.554   2.384   5.083 -1.3578  1.2008 -0.7466
32115SOL     OW 3584  12.516   1.825   2.877  0.0609  0.4588  0.2719
32115SOL    HW1 3585  12.480   1.818   2.789 -0.9709 -1.1742  0.7684
32115SOL    HW2 3586  12.607   1.853   2.865 -0.0294  0.1298 -1.2970
32116SOL     OW 3587   0.659  10.648   6.205 -0.4873 -0.1392  0.2672
32116SOL    HW1 3588   0.566  10.629   6.209 -0.3267 -1.2264 -0.4483
32116SOL    HW2 3589   0.672  10.724   6.262 -1.6544 -0.5315  1.0814
32117SOL     OW 3590  12.443   1.546   6.884 -0.2835 -0.1325 -0.0539
32117SOL    HW1 3591  12.511   1.561   6.817 -0.3344  1.5899  0.2555
32117SOL    HW2 3592  12.388   1.623   6.880 -1.5004 -0.9456  0.6002
32118SOL     OW 3593   4.144  11.777   9.529 -0.5776  0.3654  0.2978
32118SOL    HW1 3594   4.196  11.825   9.593  0.1453 -1.1398  0.8975
32118SOL    HW2 3595   4.132  11.838   9.457  3.0011  0.5127 -0.3566
32119SOL     OW 3596   0.838   7.927   8.995 -0.4208 -0.3616 -0.6492
32119SOL    HW1 3597   0.775   7.953   9.063  0.4874 -0.7703  0.3842
32119SOL    HW2 3598   0.796   7.854   8.951  0.4932 -2.7558  2.0839
32120SOL     OW 3599   4.722   1.460   3.807  0.5240  0.4216  0.2442
32120SOL    HW1 3600   4.705   1.494   3.719  2.7414 -1.5435 -1.0631
32120SOL    HW2 3601   4.816   1.445   3.809  0.4582 -0.0389  2.8213
32121SOL     OW 3602   2.421   4.055   7.140  0.0028 -1.2942  0.5689
32121SOL    HW1 3603   2.359   3.990   7.173  1.3455 -2.6082  0.5737
32121SOL    HW2 3604   2.478   4.074   7.214  0.0736 -0.6457  0.3557
32122SOL     OW 3605   6.036   3.753   1.162  0.2693 -0.3888 -0.3867
32122SOL    HW1 3606   6.052   3.790   1.248  0.8448 -2.5324  0.5065
32122SOL    HW2 3607   6.088   3.807   1.102 -0.1845  1.1648  0.5845
32123SOL     OW 3608   8.646   8.427   0.446  0.6666 -0.1525 -0.0492
32123SOL    HW1 3609   8.664   8.474   0.528  0.5824 -1.2093  0.5952
32123SOL    HW2 3610   8.712   8.460   0.385  1.4665 -0.1766  0.7753
32124SOL     OW 3611   4.291   2.822   6.077  0.3365  0.8834  0.7723
32124SOL    HW1 3612   4.318   2.878   6.149 -0.5115  1.5199  0.5991
32124SOL    HW2 3613   4.226   2.763   6.115 -0.4445  1.5105  0.4491
32125SOL     OW 3614   3.251   4.186   3.289 -0.3815 -0.3067 -0.0414
32125SOL    HW1 3615   3.311   4.260   3.299  0.1443 -0.8324  0.9131
32125SOL    HW2 3616   3.232   4.182   3.196 -1.5129  1.8684  0.0247
32126SOL     OW 3617   8.785   9.268   6.328  0.2369  0.2637 -0.8668
32126SOL    HW1 3618   8.758   9.254   6.237 -3.5083 -0.7268  0.2247
32126SOL    HW2 3619   8.746   9.352   6.352  0.8919  0.3513 -0.0835
32127SOL     OW 3620   2.585  10.431   1.057  0.2032  0.6318  0.2240
32127SOL    HW1 3621   2.575  10.507   1.114  0.5806 -0.3173  1.5962
32127SOL    HW2 3622   2.662  10.385   1.092  1.3578  0.7834 -1.9456
32128SOL     OW 3623   1.302   6.396   8.578 -0.3565  0.2316  0.1686
32128SOL    HW1 3624   1.278   6.325   8.637  0.6626 -0.1678  0.1201
32128SOL    HW2 3625   1.389   6.423   8.607  1.5794 -2.0286 -2.9423
32129SOL     OW 3626   5.790  12.268   8.423  0.3965 -0.3879 -0.7809
32129SOL    HW1 3627   5.723  12.211   8.461  1.1349 -1.6815 -1.3484
32129SOL    HW2 3628   5.822  12.320   8.496 -1.0820  0.1249 -0.4648
32130SOL     OW 3629  11.455  12.513  12.194 -0.1956  0.0897 -0.1786
32130SOL    HW1 3630  11.388  12.538  12.130 -0.7988  0.1349  0.4653
32130SOL    HW2 3631  11.418  12.437  12.240 -0.4712  1.0341  1.2152
32131SOL     OW 3632   2.490  10.175   2.236  0.2680 -0.0838  0.2490
32131SOL    HW1 3633   2.469  10.262   2.270  2.1730  0.2444  0.7135
32131SOL    HW2 3634   2.526  10.191   2.149 -0.6428 -0.5442 -0.2182
32132SOL     OW 3635   9.218   4.013  11.643  0.0798  0.1209  0.6997
32132SOL    HW1 3636   9.162   3.995  11.567  0.8120 -0.5218  0.2926
32132SOL    HW2 3637   9.229   4.108  11.644 -0.7878  0.2323  0.6307
32133SOL     OW 3638   7.505   3.640   3.271 -0.1121  0.6677  0.0150
32133SOL    HW1 3639   7.436   3.602   3.216  0.6394  0.1509 -0.5961
32133SOL    HW2 3640   7.536   3.716   3.221 -0.3262  0.9890  0.3602
32134SOL     OW 3641   6.682   6.463   4.550  0.2527 -0.1635  0.1769
32134SOL    HW1 3642   6.617   6.398   4.574 -0.7055  0.8407  0.3983
32134SOL    HW2 3643   6.733   6.422   4.480 -0.2690 -1.1677  0.3725
32135SOL     OW 3644   2.107  11.218   0.853  0.3176 -0.0263  0.4511
32135SOL    HW1 3645   2.022  11.176   0.840 -0.3195  1.1032  0.8752
32135SOL    HW2 3646   2.168  11.145   0.862 -0.7103 -0.8673  0.8480
32136SOL     OW 3647   2.552   5.314   1.553  0.0805  1.0898 -0.1580
32136SOL    HW1 3648   2.544   5.250   1.624  0.3218  0.6342 -0.5354
32136SOL    HW2 3649   2.481   5.377   1.570 -2.7322 -1.3439 -1.8866
32137SOL     OW 3650   5.800  11.711   4.414  0.4153  0.1453  0.4207
32137SOL    HW1 3651   5.886  11.709   4.372 -0.0100  1.2416 -0.5448
32137SOL    HW2 3652   5.779  11.804   4.423  0.2039 -0.0469  2.5197
32138SOL     OW 3653   3.644   8.599   7.937  0.1951  0.1759  0.1536
32138SOL    HW1 3654   3.608   8.522   7.981  0.6344  0.6044  1.3086
32138SOL    HW2 3655   3.580   8.668   7.953 -0.3943 -0.0174 -1.2179
32139SOL     OW 3656   8.575   2.746  10.794 -0.1186 -0.0433  0.2856
32139SOL    HW1 3657   8.500   2.713  10.845 -0.5992 -0.4682 -0.6586
32139SOL    HW2 3658   8.618   2.808  10.852 -0.2727 -0.9830  1.4411
32140SOL     OW 3659   3.044   7.156  11.855 -0.0470  0.0034 -0.2354
32140SOL    HW1 3660   3.002   7.178  11.771 -1.7475  0.1010  0.5993
32140SOL    HW2 3661   3.017   7.066  11.872 -2.4996  1.0193  1.7508
32141SOL     OW 3662   0.242   8.281   6.504  0.5537  0.7359 -0.0855
32141SOL    HW1 3663   0.330   8.252   6.528 -0.4266 -1.7529  0.7558
32141SOL    HW2 3664   0.246   8.293   6.409  1.7673  0.5878 -0.0689
32142SOL     OW 3665  10.159   0.973   5.659  0.1188 -0.0266  0.1604
32142SOL    HW1 3666  10.078   0.984   5.610  0.7749 -0.2357 -0.9998
32142SOL    HW2 3667  10.198   1.061   5.662  1.3805 -0.4355 -2.0670
32143SOL     OW 3668   1.106  11.690   6.339 -0.1477  0.4587 -0.2726
32143SOL    HW1 3669   1.058  11.612   6.368 -1.1354  1.0441 -0.2807
32143SOL    HW2 3670   1.099  11.687   6.243  2.0581 -0.8156 -0.4502
32144SOL     OW 3671   1.616   5.316   7.828 -1.0195  0.0025  0.1832
32144SOL    HW1 3672   1.654   5.333   7.914 -2.7994 -0.6479  1.1478
32144SOL    HW2 3673   1.600   5.221   7.828  1.5894 -0.5548 -2.0367
32145SOL     OW 3674   4.328   4.372   5.833 -0.2169 -0.2517  0.0660
32145SOL    HW1 3675   4.259   4.423   5.792 -0.4888 -1.6556 -1.3140
32145SOL    HW2 3676   4.393   4.358   5.764 -0.2719 -1.9504  0.2978
32146SOL     OW 3677  12.602   7.058   6.310  0.0329 -0.6818 -0.0621
32146SOL    HW1 3678  12.612   7.139   6.259  0.3439 -0.6182  0.1007
32146SOL    HW2 3679  12.688   7.043   6.348 -0.4073 -0.2593  1.1649
32147SOL     OW 3680   2.251  11.622   6.496 -0.3378  0.0061 -0.2028
32147SOL    HW1 3681   2.281  11.572   6.571 -0.6953  0.6142  0.3593
32147SOL    HW2 3682   2.228  11.556   6.430 -0.0576 -0.5309  0.2319
32148SOL     OW 3683  11.392  10.992   2.391 -0.0039  0.1431  0.1016
32148SOL    HW1 3684  11.454  11.027   2.455  0.6335  1.7878 -1.3187
32148SOL    HW2 3685  11.407  11.045   2.312 -0.9550 -1.5992 -1.3179
32149SOL     OW 3686  12.390   7.004   0.327  0.4809  0.4647  0.1314
32149SOL    HW1 3687  12.407   7.092   0.360 -1.2012  1.4081 -1.3650
32149SOL    HW2 3688  12.396   7.012   0.232  0.6252 -1.1195 -0.0226
32150SOL     OW 3689  11.635   9.866   5.460 -0.2329  0.0886 -0.0424
32150SOL    HW1 3690  11.566   9.799   5.461 -0.4790  0.3452  0.1933
32150SOL    HW2 3691  11.702   9.832   5.519  0.2158 -0.5505 -0.8949
32151SOL     OW 3692   6.316   6.961   0.108  0.0158 -0.0971  0.1079
32151SOL    HW1 3693   6.269   6.903   0.167 -0.3768 -0.6201 -0.7054
32151SOL    HW2 3694   6.406   6.929   0.109 -0.4792 -1.6489 -1.4286
32152SOL     OW 3695   6.679   9.024   9.728  0.7825 -0.4479  0.4777
32152SOL    HW1 3696   6.773   9.025   9.711  0.2489  0.2418 -3.6812
32152SOL    HW2 3697   6.655   9.116   9.738  0.4828 -0.5815  1.0263
32153SOL     OW 3698  10.203  12.438   1.331 -0.7147 -1.0475 -0.0401
32153SOL    HW1 3699  10.239  12.364   1.282 -1.9148 -2.2180  0.7829
32153SOL    HW2 3700  10.266  12.452   1.401 -0.2955 -1.0448 -0.4109
32154SOL     OW 3701   5.875   6.635   9.974 -0.6462 -0.4517  0.4104
32154SOL    HW1 3702   5.856   6.600   9.887 -0.6266  1.3221 -0.3349
32154SOL    HW2 3703   5.804   6.600  10.029  0.3661 -3.1311  0.1686
32155SOL     OW 3704   3.502   3.923   2.345 -0.0368  0.0293  0.0903
32155SOL    HW1 3705   3.504   4.007   2.390 -0.6475 -0.1080  0.3928
32155SOL    HW2 3706   3.541   3.861   2.407 -0.0724 -0.0005  0.0836
32156SOL     OW 3707   0.507   5.031  10.779  0.5996  0.0990  0.2626
32156SOL    HW1 3708   0.573   5.023  10.710 -0.2320 -2.8311 -0.3524
32156SOL    HW2 3709   0.426   5.050  10.731  0.3389 -0.1235  0.6164
32157SOL     OW 3710  10.953   3.134   5.782 -0.2178  0.3693  0.4660
32157SOL    HW1 3711  11.013   3.132   5.707  0.0519  1.3628  0.6368
32157SOL    HW2 3712  11.004   3.170   5.854 -1.2252  2.1191  0.3779
32158SOL     OW 3713  10.686  11.207   8.898 -0.1991 -0.3152 -0.4447
32158SOL    HW1 3714  10.672  11.119   8.935 -1.9317 -0.0554 -0.4086
32158SOL    HW2 3715  10.772  11.202   8.856  0.0368 -1.8183  0.1577
32159SOL     OW 3716   6.318   6.568   9.253  0.0770 -0.2340 -0.0841
32159SOL    HW1 3717   6.389   6.548   9.314 -0.3829  1.9594  1.2684
32159SOL    HW2 3718   6.264   6.489   9.253  1.8808 -1.5300 -0.2879
32160SOL     OW 3719   4.897   7.276   2.495 -0.3567 -0.6876 -0.8340
32160SOL    HW1 3720   4.933   7.287   2.583  0.0862  0.2968 -1.1215
32160SOL    HW2 3721   4.962   7.317   2.437 -1.6638  0.6819 -1.4173
32161SOL     OW 3722   3.627   6.615  11.844 -0.0983 -0.8896  0.1806
32161SOL    HW1 3723   3.544   6.594  11.887  0.3531 -0.5988  1.2341
32161SOL    HW2 3724   3.658   6.531  11.809  0.0110 -1.3480  1.3314
32162SOL     OW 3725  11.290   9.180   3.702 -0.1150  0.0419  0.1146
32162SOL    HW1 3726  11.243   9.112   3.654 -0.7930  0.9084 -0.4632
32162SOL    HW2 3727  11.264   9.166   3.794 -1.8982  0.7808 -0.2376
32163SOL     OW 3728   2.138  11.505  12.505 -0.0921  0.4203 -0.0155
32163SOL    HW1 3729   2.077  11.466  12.567  0.1455 -0.0735 -0.0857
32163SOL    HW2 3730   2.122  11.459  12.423  2.3021 -1.8158  0.6016
32164SOL     OW 3731   3.370   4.250  10.726 -0.1305 -0.1657 -0.4786
32164SOL    HW1 3732   3.413   4.326  10.766 -2.0259  0.3233  0.7255
32164SOL    HW2 3733   3.415   4.174  10.764  0.8098  0.3232 -0.5823
32165SOL     OW 3734   1.309   8.150  12.179  0.1273 -0.2050 -0.1406
32165SOL    HW1 3735   1.258   8.222  12.142 -0.0835  0.1144  0.7618
32165SOL    HW2 3736   1.303   8.162  12.273  2.7171  0.4380  0.0065
32166SOL     OW 3737   1.800   1.322   5.287  0.3453  0.2775 -0.1710
32166SOL    HW1 3738   1.885   1.298   5.251  1.7134  1.1535  2.3305
32166SOL    HW2 3739   1.739   1.259   5.247  2.0849 -0.2364 -2.1616
32167SOL     OW 3740   3.906   6.604  11.595  0.0971  0.1637  0.2075
32167SOL    HW1 3741   3.831   6.548  11.616  1.4236 -1.7995 -0.0622
32167SOL    HW2 3742   3.899   6.677  11.657 -1.5540 -0.4072  0.7404
32168SOL     OW 3743   0.908  12.100   8.406  0.0649 -0.1150  0.3684
32168SOL    HW1 3744   0.988  12.152   8.397 -0.0720  0.1398  0.6247
32168SOL    HW2 3745   0.901  12.082   8.500 -0.0888 -0.2785  0.3267
32169SOL     OW 3746   0.692  12.155   9.007  0.3481 -0.5622 -0.0197
32169SOL    HW1 3747   0.768  12.213   8.999 -0.7141  0.8526 -0.4146
32169SOL    HW2 3748   0.655  12.151   8.919 -0.6299 -0.3396  0.3626
32170SOL     OW 3749   3.594   9.971   6.126 -0.4145 -0.0564  0.0799
32170SOL    HW1 3750   3.609  10.040   6.062  0.5752 -0.8366 -0.5627
32170SOL    HW2 3751   3.500   9.973   6.143 -0.8254 -0.2664 -1.9125
32171SOL     OW 3752  10.627   5.434   6.063  0.1281  0.3320 -0.3352
32171SOL    HW1 3753  10.570   5.416   5.989 -1.0357  1.3817  0.2567
32171SOL    HW2 3754  10.696   5.490   6.028 -0.4351  0.8509 -0.6425
32172SOL     OW 3755   2.886   7.606   0.854 -0.1098  0.5287  0.3864
32172SOL    HW1 3756   2.967   7.612   0.804 -1.3357  0.7323 -1.7097
32172SOL    HW2 3757   2.856   7.697   0.861 -0.0684  0.4827  1.3741
32173SOL     OW 3758   2.292   0.851   5.547 -0.0557  0.7116 -0.0536
32173SOL    HW1 3759   2.233   0.917   5.511 -0.4577  0.8227  0.7834
32173SOL    HW2 3760   2.247   0.768   5.531 -0.2368  0.7612  0.1862
32174SOL     OW 3761   1.290   5.561   6.998  0.0640  0.6610  0.2440
32174SOL    HW1 3762   1.358   5.620   7.029 -0.5965  1.2856  0.5284
32174SOL    HW2 3763   1.267   5.508   7.074  0.5015  0.1741  0.0452
32175SOL     OW 3764   3.817   6.995   5.350 -0.1305 -0.2978 -0.6284
32175SOL    HW1 3765   3.863   7.068   5.392  0.5274 -0.1105 -1.6423
32175SOL    HW2 3766   3.758   7.038   5.287 -1.5294 -0.5429  0.4776
32176SOL     OW 3767   7.366   1.663   5.211  0.8153 -0.2835  0.3134
32176SOL    HW1 3768   7.384   1.600   5.141 -2.0702 -0.9789  0.0827
32176SOL    HW2 3769   7.377   1.612   5.291 -1.5425 -1.2393  0.1276
32177SOL     OW 3770   6.563   5.223   8.289 -0.3105  0.0000  0.1966
32177SOL    HW1 3771   6.580   5.262   8.203 -0.2746 -0.4531 -0.0043
32177SOL    HW2 3772   6.566   5.297   8.350  2.4034 -0.0294  0.1952
32178SOL     OW 3773   1.354   0.252   0.653 -0.4120  0.4784 -0.0556
32178SOL    HW1 3774   1.339   0.341   0.686  1.0114  1.3542 -1.5744
32178SOL    HW2 3775   1.290   0.242   0.582  0.0388  0.6745 -0.4987
32179SOL     OW 3776   9.723   1.600   9.958  0.8646  0.6017 -0.0363
32179SOL    HW1 3777   9.777   1.529   9.923  2.9102  1.7242  0.6240
32179SOL    HW2 3778   9.691   1.567  10.042 -0.2773 -0.4102 -0.8377
32180SOL     OW 3779   7.679   3.842  12.474  0.8029 -0.2357 -0.0744
32180SOL    HW1 3780   7.687   3.762  12.422  0.2995  0.6696 -1.6058
32180SOL    HW2 3781   7.589   3.871  12.460  1.1878  0.9731 -0.1327
32181SOL     OW 3782   0.321   5.676   4.373  0.2677 -0.1743 -0.8927
32181SOL    HW1 3783   0.353   5.742   4.312  1.8997 -0.6434 -0.5978
32181SOL    HW2 3784   0.380   5.601   4.360 -0.6204 -1.0277 -0.1728
32182SOL     OW 3785  12.313   8.624   8.889 -0.2732 -0.1779 -0.8027
32182SOL    HW1 3786  12.363   8.548   8.917 -0.4769 -0.6253 -1.6295
32182SOL    HW2 3787  12.227   8.590   8.865 -1.0609  0.6086  0.7655
32183SOL     OW 3788   4.022   9.599   1.904 -0.1377 -0.0275  0.5208
32183SOL    HW1 3789   4.039   9.647   1.985 -0.3059  1.0964 -0.0915
32183SOL    HW2 3790   4.110   9.581   1.869 -0.0818  0.0110  0.6381
32184SOL     OW 3791   4.561   8.321   2.716 -0.3958 -0.2663 -0.1037
32184SOL    HW1 3792   4.515   8.317   2.632 -0.4972 -0.5686 -0.0325
32184SOL    HW2 3793   4.493   8.308   2.782 -0.5818  1.4556  0.1025
32185SOL     OW 3794  11.479   9.259   9.203 -0.0789  0.2547 -0.2596
32185SOL    HW1 3795  11.473   9.349   9.235 -2.6573  0.4035 -0.9597
32185SOL    HW2 3796  11.560   9.258   9.151 -0.6874  2.5829 -1.3853
32186SOL     OW 3797   0.351   3.067   6.931  0.2985  0.1097 -0.4151
32186SOL    HW1 3798   0.277   3.007   6.924 -0.2574  0.8205 -0.7371
32186SOL    HW2 3799   0.380   3.058   7.022 -1.6546  1.4993  0.4202
32187SOL     OW 3800   4.354   4.184   8.848  0.1571 -0.2662  0.1475
32187SOL    HW1 3801   4.312   4.106   8.885  0.0892  0.6539  2.1678
32187SOL    HW2 3802   4.305   4.257   8.887  0.5823  0.7953 -1.2522
32188SOL     OW 3803   7.803   2.955   0.873  0.3027  0.3139  0.0285
32188SOL    HW1 3804   7.848   2.881   0.832 -0.8531 -0.5412  0.2534
32188SOL    HW2 3805   7.868   2.994   0.931  1.2715  0.1714 -0.9323
32189SOL     OW 3806   4.921   0.640   8.451 -0.1391 -0.0893 -0.0270
32189SOL    HW1 3807   4.900   0.725   8.412  0.1481  1.5632  3.0984
32189SOL    HW2 3808   4.837   0.609   8.487  0.1604 -0.0345  0.7442
32190SOL     OW 3809   6.404   6.825   1.966 -0.5113  0.4671  0.2689
32190SOL    HW1 3810   6.310   6.805   1.965 -0.1277 -1.5119 -1.2196
32190SOL    HW2 3811   6.434   6.804   1.877  1.7542 -1.1519  1.3199
32191SOL     OW 3812  12.527   1.489   6.244  0.1632 -0.4460 -0.2217
32191SOL    HW1 3813  12.481   1.405   6.245 -1.4787  0.4200  0.8074
32191SOL    HW2 3814  12.503   1.531   6.326 -0.5519  1.7887 -1.4697
32192SOL     OW 3815   9.232   3.637  11.315 -0.0776  0.3898 -0.3448
32192SOL    HW1 3816   9.308   3.694  11.315 -0.9751  1.6324 -0.9807
32192SOL    HW2 3817   9.172   3.677  11.378 -0.2200 -0.5642  0.1378
32193SOL     OW 3818   2.756   1.195   2.108  0.3959  0.2140 -0.0929
32193SOL    HW1 3819   2.727   1.277   2.147  3.2251  2.1760 -1.7404
32193SOL    HW2 3820   2.836   1.218   2.061 -0.5131 -2.7781 -3.5533
32194SOL     OW 3821   9.314   1.056   1.546 -0.0313 -0.3914  0.2387
32194SOL    HW1 3822   9.247   1.071   1.479 -0.5264 -0.1829  0.7675
32194SOL    HW2 3823   9.396   1.049   1.497 -0.2384  0.7419 -0.3165
32195SOL     OW 3824   9.477   1.984   1.369 -0.7757 -0.1087  0.3997
32195SOL    HW1 3825   9.454   2.003   1.459 -1.2386  3.3840 -0.3277
32195SOL    HW2 3826   9.418   1.914   1.343 -3.9822  2.0001  1.4795
32196SOL     OW 3827   5.648   8.892   2.764 -0.0687 -0.0318  0.9046
32196SOL    HW1 3828   5.723   8.868   2.709 -0.1862  0.8982  0.3212
32196SOL    HW2 3829   5.609   8.808   2.789  0.2970 -0.4799  0.0002
32197SOL     OW 3830   8.655  11.467  12.050 -0.0012  0.1464 -0.3953
32197SOL    HW1 3831   8.687  11.408  12.119 -0.3425  0.2802 -0.1196
32197SOL    HW2 3832   8.668  11.555  12.087 -0.2856  0.2150 -0.4593
32198SOL     OW 3833  10.773  12.640   1.696 -0.6884 -0.6803  0.0760
32198SOL    HW1 3834  10.822  12.593   1.763 -1.5100 -0.2329  1.0197
32198SOL    HW2 3835  10.834  12.707   1.664 -0.2221 -1.0233  0.2342
32199SOL     OW 3836   7.885   1.411   2.395 -0.2598  0.0426 -0.4398
32199SOL    HW1 3837   7.801   1.371   2.420 -0.5869  0.9452 -0.0596
32199SOL    HW2 3838   7.917   1.356   2.324 -0.3173 -1.3509  0.5669
32200SOL     OW 3839   4.528   0.467   1.449  0.0035  0.0977 -0.0351
32200SOL    HW1 3840   4.475   0.541   1.479 -0.9585 -0.4222 -0.3951
32200SOL    HW2 3841   4.497   0.450   1.360 -0.2345 -1.1129  0.2574
32201SOL     OW 3842  11.471   9.671   5.425 -0.0615  0.4612 -0.0993
32201SOL    HW1 3843  11.470   9.575   5.424 -0.4682  0.4668 -0.4861
32201SOL    HW2 3844  11.393   9.696   5.376  0.4901  1.0007 -0.7034
32202SOL     OW 3845   3.960   0.511   4.496  0.4828 -0.0042 -0.5848
32202SOL    HW1 3846   4.029   0.486   4.435  0.2194 -0.6568 -0.6242
32202SOL    HW2 3847   3.887   0.537   4.441  0.5479  0.2703 -0.5433
32203SOL     OW 3848   9.165  11.394   7.732 -0.1235 -0.5761  0.2151
32203SOL    HW1 3849   9.128  11.443   7.659  0.5040 -1.6917 -0.8856
32203SOL    HW2 3850   9.215  11.460   7.781 -1.9633  0.5426  0.6734
32204SOL     OW 3851   2.153   1.772   0.327 -0.6981 -0.7260 -0.3092
32204SOL    HW1 3852   2.162   1.866   0.310 -2.0504 -0.6408 -0.7041
32204SOL    HW2 3853   2.227   1.750   0.383  0.8708  0.1253 -1.9327
32205SOL     OW 3854   4.777   1.827   4.251  0.3952 -0.2120 -0.0395
32205SOL    HW1 3855   4.742   1.837   4.340 -0.6764 -2.8446 -0.0612
32205SOL    HW2 3856   4.833   1.749   4.257 -0.1193 -0.7550 -1.7612
32206SOL     OW 3857   4.084   5.570   1.494  0.3245  0.2167  0.4722
32206SOL    HW1 3858   3.997   5.609   1.487 -0.0996 -0.6748  0.7395
32206SOL    HW2 3859   4.100   5.563   1.588  0.0989 -0.8955  0.4372
32207SOL     OW 3860   8.815   7.625   6.040 -0.4615 -0.3019 -0.0024
32207SOL    HW1 3861   8.761   7.627   5.961 -0.2966  2.8916 -0.1645
32207SOL    HW2 3862   8.888   7.567   6.018 -0.4696  0.4466 -2.1919
32208SOL     OW 3863   4.433   6.131  10.224 -0.0764 -0.1896 -0.7020
32208SOL    HW1 3864   4.411   6.114  10.315  0.2709 -1.2234 -0.8015
32208SOL    HW2 3865   4.452   6.045  10.187  2.4627  0.4361 -1.0535
32209SOL     OW 3866   2.675  12.040   0.052  0.5207 -0.5299  0.1746
32209SOL    HW1 3867   2.716  12.071  -0.029 -0.8131  0.6721 -0.0866
32209SOL    HW2 3868   2.591  12.003   0.024  0.2267 -0.4787  0.9664
32210SOL     OW 3869   8.266   3.838   3.543  0.0890 -0.3882 -0.0473
32210SOL    HW1 3870   8.288   3.805   3.630  2.3268 -0.3928 -0.5634
32210SOL    HW2 3871   8.330   3.797   3.485  0.6530  2.0222 -1.2416
32211SOL     OW 3872   0.910   7.248  10.479 -0.2553  0.1062 -0.2063
32211SOL    HW1 3873   0.825   7.225  10.517 -0.8497  0.6800 -1.1638
32211SOL    HW2 3874   0.913   7.200  10.396  1.6488 -2.3040  1.1320
32212SOL     OW 3875  10.638  10.361   9.495  0.7872 -0.5418  0.4589
32212SOL    HW1 3876  10.721  10.317   9.478  1.0397  0.1305 -0.0513
32212SOL    HW2 3877  10.572  10.302   9.458  1.0339 -1.0384  0.7958
32213SOL     OW 3878   1.734   1.087  11.211 -0.0941 -0.1537  0.4261
32213SOL    HW1 3879   1.777   1.041  11.139  1.6643 -0.3656  1.5374
32213SOL    HW2 3880   1.663   1.029  11.239  1.9997 -2.2749  1.7267
32214SOL     OW 3881   6.188  11.072   8.841  0.5662  0.6667  0.8224
32214SOL    HW1 3882   6.137  11.130   8.898  0.1104  0.1659  0.9365
32214SOL    HW2 3883   6.179  10.985   8.881 -0.2704  0.1944 -0.3161
32215SOL     OW 3884  12.346  11.935   5.746  0.8503 -0.0975 -0.1838
32215SOL    HW1 3885  12.297  11.853   5.733  0.3439 -0.1751  1.9455
32215SOL    HW2 3886  12.407  11.915   5.817 -0.6744  1.9090  1.8071
32216SOL     OW 3887  10.993   1.992  10.920  0.0373 -0.0484 -0.0476
32216SOL    HW1 3888  10.936   1.924  10.886  1.2879 -2.5158  2.4234
32216SOL    HW2 3889  10.976   2.068  10.864 -0.2005 -2.7812 -4.0736
32217SOL     OW 3890   3.687  10.856   3.505 -0.5664 -0.1822 -0.0826
32217SOL    HW1 3891   3.746  10.891   3.439  0.3531 -0.3595  0.6355
32217SOL    HW2 3892   3.692  10.918   3.577 -0.8696 -0.4744  0.1947
32218SOL     OW 3893   6.847   2.068   8.063  0.1395  0.4507  0.2370
32218SOL    HW1 3894   6.941   2.058   8.079 -0.0355 -0.3164  0.8471
32218SOL    HW2 3895   6.815   2.114   8.140 -0.0144  0.5770  0.0988
32219SOL     OW 3896   4.853   4.340   2.377 -0.5593 -0.7470 -0.2346
32219SOL    HW1 3897   4.923   4.319   2.439  0.6252  0.1597 -1.2152
32219SOL    HW2 3898   4.810   4.416   2.415  0.1184 -0.2364 -0.4623
32220SOL     OW 3899  10.395  11.838   2.558 -0.1343  0.3556 -0.4687
32220SOL    HW1 3900  10.330  11.837   2.628 -1.8915 -0.2501 -2.0373
32220SOL    HW2 3901  10.439  11.753   2.565 -2.0529 -0.8004 -1.5945
32221SOL     OW 3902   5.781   3.197  10.282  0.0314  0.4516  0.0322
32221SOL    HW1 3903   5.773   3.192  10.377 -0.9625 -1.4796 -0.1081
32221SOL    HW2 3904   5.698   3.164  10.248 -0.3141  2.7004 -1.5501
32222SOL     OW 3905   0.742   7.833   7.822  0.1745  0.0164 -0.9647
32222SOL    HW1 3906   0.683   7.790   7.760 -0.6004 -0.0740 -0.1793
32222SOL    HW2 3907   0.698   7.915   7.844  0.4593  0.0655 -0.5700
32223SOL     OW 3908  10.658   4.954   4.035  0.1667 -0.1996  0.6741
32223SOL    HW1 3909  10.586   5.013   4.056  1.4446  2.0546 -0.8284
32223SOL    HW2 3910  10.621   4.866   4.044 -2.8215  0.8502 -0.2512
32224SOL     OW 3911   3.702   5.169   2.032  0.2763  0.0882 -0.2563
32224SOL    HW1 3912   3.681   5.244   1.977 -0.1096  0.8835  0.9430
32224SOL    HW2 3913   3.753   5.111   1.975  0.2541  1.0746 -1.3138
32225SOL     OW 3914   9.983  11.531   3.838 -0.3821 -0.0910  0.8753
32225SOL    HW1 3915   9.935  11.604   3.878  1.1803  0.7648  1.2631
32225SOL    HW2 3916  10.060  11.572   3.798 -0.8320 -1.1978 -1.2615
32226SOL     OW 3917   2.113   8.022   1.608 -0.3679  0.3434 -0.6155
32226SOL    HW1 3918   2.165   7.942   1.614 -1.1947 -0.1850 -0.3570
32226SOL    HW2 3919   2.067   8.015   1.525 -1.8504 -0.3456  0.2248
32227SOL     OW 3920  10.346   4.872   2.887  0.5099  0.1941 -0.7195
32227SOL    HW1 3921  10.293   4.825   2.950 -2.1966  1.7701 -1.6701
32227SOL    HW2 3922  10.344   4.818   2.807  0.9852 -0.0863 -0.5495
32228SOL     OW 3923   8.994   0.881   7.151 -0.3294 -0.6276 -0.1320
32228SOL    HW1 3924   9.077   0.844   7.182 -0.6449 -2.2575 -1.1155
32228SOL    HW2 3925   8.929   0.849   7.214 -0.2989  0.2869  0.3863
32229SOL     OW 3926   5.865  10.172   4.347  0.5405  0.4636  0.2937
32229SOL    HW1 3927   5.914  10.212   4.274  2.4363 -0.3963  1.0254
32229SOL    HW2 3928   5.896  10.219   4.425 -1.2046  1.1280  0.6233
32230SOL     OW 3929   8.766   8.725   3.907 -0.9700  0.2895  0.1532
32230SOL    HW1 3930   8.702   8.783   3.866 -0.8572  1.6267  1.7687
32230SOL    HW2 3931   8.820   8.693   3.835 -2.1813  0.7596 -0.9836
32231SOL     OW 3932   6.071   0.118  10.263  0.1197  0.3716  0.0780
32231SOL    HW1 3933   6.101   0.081  10.345  0.6908 -0.2527 -0.4036
32231SOL    HW2 3934   5.993   0.068  10.240 -1.4568  2.0754  1.3926
32232SOL     OW 3935   5.314   2.423   1.007 -0.2640 -0.4739 -0.2280
32232SOL    HW1 3936   5.313   2.368   0.928 -2.2072 -1.4070  0.3693
32232SOL    HW2 3937   5.274   2.368   1.074 -0.1216  0.8829  1.0055
32233SOL     OW 3938   6.153   8.806  12.020 -0.1365  0.3037 -0.1993
32233SOL    HW1 3939   6.180   8.797  12.111 -1.5436  1.3396  0.3486
32233SOL    HW2 3940   6.222   8.859  11.979  0.7395 -0.5547  0.1113
32234SOL     OW 3941   8.928   3.200   2.348  0.1552 -0.1889  0.2484
32234SOL    HW1 3942   8.956   3.193   2.257  1.7932 -2.1710  0.8404
32234SOL    HW2 3943   8.894   3.289   2.355  0.3791  0.1714 -2.1749
32235SOL     OW 3944   1.981   7.474  11.048  0.8843  0.2191 -0.4204
32235SOL    HW1 3945   1.939   7.437  10.970 -0.0005  1.0680 -0.3778
32235SOL    HW2 3946   1.909   7.514  11.096  1.2762 -0.9765  1.2655
32236SOL     OW 3947   3.792  10.470   8.902 -0.2223  0.1336 -0.1643
32236SOL    HW1 3948   3.743  10.390   8.882  0.7083 -0.4898 -0.0504
32236SOL    HW2 3949   3.740  10.514   8.969 -0.1108 -1.0481  0.7352
32237SOL     OW 3950   3.648   2.191   0.406  0.2312 -0.6170  0.3332
32237SOL    HW1 3951   3.692   2.250   0.345  1.3559 -0.8908  0.8602
32237SOL    HW2 3952   3.718   2.155   0.460 -0.3872 -2.7270 -0.1952
32238SOL     OW 3953   4.889   8.522  12.571  0.3396  0.6443 -0.2440
32238SOL    HW1 3954   4.941   8.572  12.507 -0.3819  0.7709 -0.7399
32238SOL    HW2 3955   4.799   8.550  12.556  0.3465  2.4798  2.4179
32239SOL     OW 3956   6.997  11.657   5.967 -0.0791 -0.5049  0.6677
32239SOL    HW1 3957   6.909  11.659   6.003 -0.2544  0.7085  0.1918
32239SOL    HW2 3958   6.998  11.725   5.900  1.2643 -0.3711  0.7860
32240SOL     OW 3959  11.646   4.535   0.521 -0.2614 -0.2327 -0.1297
32240SOL    HW1 3960  11.684   4.541   0.433  1.2018 -1.9973  0.3168
32240SOL    HW2 3961  11.551   4.543   0.507 -0.2301 -2.2627 -2.1433
32241SOL     OW 3962   6.285  12.516   3.725 -0.1549 -0.1392  0.0411
32241SOL    HW1 3963   6.379  12.533   3.721 -0.0159 -1.0531 -1.2780
32241SOL    HW2 3964   6.244  12.598   3.697  0.2912 -0.1125 -0.5516
32242SOL     OW 3965  12.051  11.636   2.344  0.0365  0.0763 -0.2588
32242SOL    HW1 3966  11.995  11.682   2.282 -0.2438 -1.1595 -0.9661
32242SOL    HW2 3967  12.003  11.556   2.365  1.6185 -1.1397 -1.0877
32243SOL     OW 3968   5.063   1.700   3.773  0.5787 -0.3059 -0.1760
32243SOL    HW1 3969   5.015   1.661   3.700 -0.6960 -0.0095  0.4638
32243SOL    HW2 3970   5.007   1.683   3.849  1.1205  0.7466  0.4795
32244SOL     OW 3971   1.996   0.601   3.111 -0.1035 -0.4236 -0.1728
32244SOL    HW1 3972   2.025   0.534   3.049  0.6289  0.9020 -1.3349
32244SOL    HW2 3973   1.902   0.608   3.098  0.1185  0.2543 -1.6194
32245SOL     OW 3974   0.368   8.477  10.520 -0.4209  0.1691 -0.2491
32245SOL    HW1 3975   0.308   8.548  10.499 -0.0042  0.8755  0.8644
32245SOL    HW2 3976   0.450   8.500  10.475  0.3655  1.5089  1.7137
32246SOL     OW 3977   9.032   9.608   6.332  0.0374  0.2852 -0.3518
32246SOL    HW1 3978   8.975   9.536   6.304  0.6100  0.1901 -1.3677
32246SOL    HW2 3979   9.120   9.579   6.307  0.8307 -0.3745  2.7840
32247SOL     OW 3980   2.022   2.269   5.992  0.5171  0.3289 -0.0810
32247SOL    HW1 3981   1.968   2.344   6.020 -0.3437 -0.3436  0.1338
32247SOL    HW2 3982   2.106   2.307   5.967 -0.5876  1.6358 -2.0515
32248SOL     OW 3983   1.989   0.887   4.068  0.6699 -0.2506  0.0749
32248SOL    HW1 3984   1.988   0.791   4.064  1.6769 -0.2762  0.2237
32248SOL    HW2 3985   2.050   0.913   3.998  1.7160  0.2010  1.1295
32249SOL     OW 3986  11.799   9.696   3.709  0.0275  0.0131 -0.1916
32249SOL    HW1 3987  11.779   9.664   3.797 -1.5233  1.7174  0.1252
32249SOL    HW2 3988  11.717   9.734   3.677  1.7427  4.3972 -0.1506
32250SOL     OW 3989   7.976   0.701   0.551  0.2534  0.5983  0.1718
32250SOL    HW1 3990   7.901   0.754   0.579 -0.9538 -0.0366 -1.7166
32250SOL    HW2 3991   7.938   0.621   0.516  1.8987 -0.2291  0.1784
32251SOL     OW 3992   8.972  12.711  12.462 -0.3994 -0.4042 -0.9103
32251SOL    HW1 3993   8.942  12.797  12.432 -3.9737 -1.2617 -0.2841
32251SOL    HW2 3994   9.043  12.730  12.524 -1.4130  2.1364 -0.4057
32252SOL     OW 3995   6.458   7.427   9.741 -0.0949  0.2412 -0.1910
32252SOL    HW1 3996   6.498   7.419   9.655 -2.9776  1.8264 -1.8521
32252SOL    HW2 3997   6.475   7.343   9.784  0.5206 -1.0144 -2.7106
32253SOL     OW 3998   7.979   7.216   0.954 -0.0520 -0.0928  0.0574
32253SOL    HW1 3999   8.039   7.263   1.011  1.1989 -1.2977 -0.1865
32253SOL    HW2 4000   7.978   7.266   0.873  2.2784 -1.0741 -0.6642
32254SOL     OW 4001  11.079   1.535  11.366 -0.9125 -0.0264  0.5016
32254SOL    HW1 4002  11.008   1.481  11.332  1.1036 -1.5470 -1.5835
32254SOL    HW2 4003  11.157   1.480  11.358  0.9091  2.4277  0.3288
32255SOL     OW 4004  11.895   8.944   7.636 -0.0838  0.7477  0.1280
32255SOL    HW1 4005  11.844   8.869   7.663 -0.0179  0.4747 -0.4951
32255SOL    HW2 4006  11.835   9.018   7.642  0.7065  1.3246  4.0876
32256SOL     OW 4007   3.335   0.378  12.513  0.1818  0.3432 -0.7286
32256SOL    HW1 4008   3.373   0.291  12.526 -0.1828  0.1589 -0.8617
32256SOL    HW2 4009   3.363   0.429  12.588 -0.7976 -0.3153  0.1187
32257SOL     OW 4010   3.387   5.062   9.998  0.0974  0.0985  0.3072
32257SOL    HW1 4011   3.343   5.111   9.929  1.9310  2.7481  0.8632
32257SOL    HW2 4012   3.336   5.081  10.077  0.1919  0.2654  0.3301
32258SOL     OW 4013   3.881   5.448   3.129  0.4194  0.1497 -0.2824
32258SOL    HW1 4014   3.835   5.459   3.213 -0.8609 -0.7027 -0.8445
32258SOL    HW2 4015   3.974   5.447   3.153  0.0857  0.1386  1.1028
32259SOL     OW 4016   5.555   9.223   9.767  0.2907 -0.2438  0.0334
32259SOL    HW1 4017   5.590   9.304   9.806  1.0650 -0.6849  0.2662
32259SOL    HW2 4018   5.484   9.198   9.827 -0.0109  0.3005 -0.0832
32260SOL     OW 4019   0.721  10.761  12.606 -0.3525  0.6537 -0.4010
32260SOL    HW1 4020   0.780  10.706  12.658 -2.1782  0.2565  1.4300
32260SOL    HW2 4021   0.641  10.708  12.596 -0.2498  0.8830 -3.3783
32261SOL     OW 4022  10.087   8.361   1.056  0.4014  0.2189  0.0572
32261SOL    HW1 4023  10.126   8.374   0.970 -1.5065 -0.9828 -1.0608
32261SOL    HW2 4024  10.085   8.266   1.069 -0.0587  0.3448  1.0699
32262SOL     OW 4025  11.560   9.049   6.495 -0.1110  0.4656 -0.0091
32262SOL    HW1 4026  11.612   9.055   6.415  0.3412 -0.1814  0.2296
32262SOL    HW2 4027  11.494   9.118   6.486 -0.6125 -0.1525 -1.3366
32263SOL     OW 4028   8.605   4.622   6.118  0.5659  0.0314  0.6257
32263SOL    HW1 4029   8.569   4.541   6.157 -0.8432 -0.4332 -1.4724
32263SOL    HW2 4030   8.696   4.601   6.099  0.5530 -0.6334  1.2285
32264SOL     OW 4031   9.696   1.379   0.623  0.0677  0.5163 -0.6460
32264SOL    HW1 4032   9.657   1.302   0.582 -1.0048  0.0574  1.1008
32264SOL    HW2 4033   9.758   1.344   0.687 -0.8375  1.0527  0.5634
32265SOL     OW 4034  12.626   5.162   6.082 -0.2706  0.0387 -0.0478
32265SOL    HW1 4035  12.576   5.220   6.025 -0.6690  0.1817  0.4411
32265SOL    HW2 4036  12.621   5.076   6.040  0.2785  0.3381 -0.7511
32266SOL     OW 4037   4.248   5.457  12.032  0.1234  0.4098  0.6207
32266SOL    HW1 4038   4.269   5.452  12.126 -0.1209 -0.0516  0.6532
32266SOL    HW2 4039   4.233   5.366  12.006 -0.7679  0.6234  0.3561
32267SOL     OW 4040  11.596   0.708   9.856  0.7094  0.0768 -0.2537
32267SOL    HW1 4041  11.598   0.710   9.952  2.5139  3.0130 -0.2411
32267SOL    HW2 4042  11.683   0.677   9.831  0.4157 -0.1951 -0.9512
32268SOL     OW 4043   8.312  10.789   0.085  0.2789 -0.4852  0.2524
32268SOL    HW1 4044   8.391  10.836   0.057  0.8214 -1.1359  0.6575
32268SOL    HW2 4045   8.271  10.759   0.004 -0.3170  1.0296 -0.0544
32269SOL     OW 4046   4.720   4.047   6.309  0.2345  0.0709  0.0936
32269SOL    HW1 4047   4.785   4.103   6.265  2.0072 -0.6257  1.7119
32269SOL    HW2 4048   4.742   3.959   6.280 -0.2116 -0.1365  0.3909
32270SOL     OW 4049   6.495   6.216   7.654 -0.0559 -0.4643  0.4139
32270SOL    HW1 4050   6.450   6.206   7.570  0.3689 -0.0163  0.1263
32270SOL    HW2 4051   6.584   6.241   7.630  0.2720 -1.0630  0.9831
32271SOL     OW 4052   5.929   9.268   4.153 -0.1213 -0.2198  0.2115
32271SOL    HW1 4053   6.016   9.309   4.151  0.0781 -0.5563  1.3496
32271SOL    HW2 4054   5.920   9.228   4.067  0.0805  1.3608 -0.5970
32272SOL     OW 4055   0.137   4.752   7.377  0.0744  0.4421 -0.3536
32272SOL    HW1 4056   0.080   4.802   7.318  0.8391  0.5796 -0.9934
32272SOL    HW2 4057   0.221   4.797   7.373  1.0713 -1.3836 -1.6715
32273SOL     OW 4058   0.687   8.314  10.579  0.8333  0.6710 -0.6530
32273SOL    HW1 4059   0.764   8.271  10.616  0.1231 -0.7524 -0.7502
32273SOL    HW2 4060   0.638   8.243  10.538 -2.0174  0.9558  1.9067
32274SOL     OW 4061   8.936   9.356   4.654 -0.2469 -0.5404  0.0073
32274SOL    HW1 4062   8.925   9.263   4.636  0.1456 -0.7608  0.8512
32274SOL    HW2 4063   8.978   9.392   4.576 -0.5165 -1.0392 -0.3697
32275SOL     OW 4064   5.953  10.803  12.651 -0.4984  0.0005 -0.3218
32275SOL    HW1 4065   5.916  10.770  12.570 -0.7222  0.2674 -0.3312
32275SOL    HW2 4066   5.890  10.779  12.718  0.6122 -1.9673  0.0897
32276SOL     OW 4067   1.770   0.570  10.283  0.3303  0.3222 -0.7482
32276SOL    HW1 4068   1.807   0.548  10.369 -0.4965  1.9737  0.0846
32276SOL    HW2 4069   1.688   0.523  10.279  0.0782  0.7160 -0.3462
32277SOL     OW 4070   2.392   0.593   3.380  0.3467 -0.1406  0.0306
32277SOL    HW1 4071   2.456   0.536   3.422  1.4287  1.5392  0.7717
32277SOL    HW2 4072   2.415   0.591   3.288 -0.2517 -1.6212 -0.1215
32278SOL     OW 4073   2.217  11.294   0.139  0.6646  0.3323 -0.4590
32278SOL    HW1 4074   2.199  11.379   0.179  1.5875  0.3148  0.0230
32278SOL    HW2 4075   2.308  11.276   0.162  1.3939  0.5321 -2.9736
32279SOL     OW 4076   7.582  10.303   7.574 -0.4699  0.4455 -0.4739
32279SOL    HW1 4077   7.504  10.281   7.523 -0.2429 -0.5540 -0.4168
32279SOL    HW2 4078   7.654  10.260   7.529 -0.2727 -0.5110  0.6922
32280SOL     OW 4079  12.130   5.442   5.421 -0.2487  0.5802 -0.4579
32280SOL    HW1 4080  12.180   5.367   5.452  1.5157  1.3912 -1.1930
32280SOL    HW2 4081  12.085   5.475   5.499 -0.6283 -0.8893 -0.0236
32281SOL     OW 4082   8.543  12.363  12.141  0.2840  0.0237  0.0972
32281SOL    HW1 4083   8.559  12.437  12.199  0.7762 -1.2238  1.6273
32281SOL    HW2 4084   8.524  12.290  12.200 -3.3757 -0.4408 -1.3687
32282SOL     OW 4085  11.598   4.374   5.903  0.5321  0.3181  0.7558
32282SOL    HW1 4086  11.548   4.390   5.823  2.3615 -0.2901 -0.5791
32282SOL    HW2 4087  11.607   4.279   5.907  1.5636  0.4121  0.9537
32283SOL     OW 4088   9.726  11.189  11.116  0.1951 -0.9420 -0.0589
32283SOL    HW1 4089   9.780  11.194  11.195 -0.4259 -0.9115  0.3670
32283SOL    HW2 4090   9.698  11.097  11.112 -0.5044 -0.7412  0.2442
32284SOL     OW 4091   8.296   1.799   2.850  0.6407 -0.3540 -0.2483
32284SOL    HW1 4092   8.255   1.735   2.909  0.3014 -1.4404 -1.6029
32284SOL    HW2 4093   8.388   1.800   2.875  0.8683 -2.2080 -0.8712
32285SOL     OW 4094   8.708  10.516   5.630 -0.8195  0.5832 -0.0663
32285SOL    HW1 4095   8.662  10.436   5.603 -2.4963  1.6063 -0.3530
32285SOL    HW2 4096   8.685  10.581   5.564  0.5764  1.3122  0.1273
32286SOL     OW 4097  11.035   6.335   6.617  0.1722 -0.2134  0.1914
32286SOL    HW1 4098  11.063   6.366   6.704 -0.5007  0.0624  0.3117
32286SOL    HW2 4099  10.984   6.256   6.635 -1.0464  0.5350  0.1636
32287SOL     OW 4100  12.378  10.654   0.138  0.2639  0.2830 -0.3495
32287SOL    HW1 4101  12.432  10.678   0.062 -0.4034  0.8536 -0.6501
32287SOL    HW2 4102  12.310  10.721   0.141 -0.4819 -0.4756 -0.0226
32288SOL     OW 4103   1.962   7.627   4.749  0.2452 -0.0322  0.4036
32288SOL    HW1 4104   1.988   7.624   4.657  2.4336  1.1246  0.9094
32288SOL    HW2 4105   1.868   7.644   4.747  0.3265  0.4149 -1.6141
32289SOL     OW 4106  10.112   8.470  12.411 -0.3794 -0.1637  0.1330
32289SOL    HW1 4107  10.024   8.448  12.442 -0.6405  1.4751  0.6359
32289SOL    HW2 4108  10.098   8.506  12.323 -0.4497  1.6715  0.8488
32290SOL     OW 4109   3.036  10.055   3.461  0.2669 -0.3331 -0.6034
32290SOL    HW1 4110   3.047  10.108   3.540  1.2639 -1.3479 -0.0256
32290SOL    HW2 4111   2.946  10.071   3.433  0.4075  1.3408 -0.2432
32291SOL     OW 4112   5.906   0.093   4.083 -0.4547 -0.5406  0.4338
32291SOL    HW1 4113   5.976   0.064   4.024 -0.8546 -0.0515 -0.2888
32291SOL    HW2 4114   5.952   0.140   4.153  0.1423 -2.2703  1.2641
32292SOL     OW 4115   9.474   9.462  10.946  0.3421  0.2611 -0.3521
32292SOL    HW1 4116   9.478   9.521  10.871  0.1351  1.5356  0.5833
32292SOL    HW2 4117   9.504   9.516  11.020  1.2214 -1.1620  0.3618
32293SOL     OW 4118   9.794   9.952   7.124  0.1501  0.4182  0.4329
32293SOL    HW1 4119   9.792  10.015   7.053  0.2436 -0.3747 -0.2873
32293SOL    HW2 4120   9.838   9.997   7.196  2.4081  0.3704 -0.8496
32294SOL     OW 4121   8.969   4.769   4.920 -0.1260 -0.4017 -0.4469
32294SOL    HW1 4122   9.019   4.713   4.860 -0.7747 -0.4988 -0.8999
32294SOL    HW2 4123   8.997   4.858   4.899  1.1656 -0.5453  0.5052
32295SOL     OW 4124   8.717   2.435   1.139  0.1493  0.0915 -0.4337
32295SOL    HW1 4125   8.653   2.506   1.138 -0.7406 -0.6615  0.2014
32295SOL    HW2 4126   8.772   2.452   1.215 -1.9613 -1.4372  1.5868
32296SOL     OW 4127   4.889   3.281   0.530 -0.2110  0.0423 -0.2671
32296SOL    HW1 4128   4.806   3.303   0.573  0.4712 -0.1550  1.2197
32296SOL    HW2 4129   4.863   3.227   0.455 -1.3889 -0.6774  0.6065
32297SOL     OW 4130   4.964   2.704   2.713  0.7231  0.6624  0.8168
32297SOL    HW1 4131   4.948   2.761   2.788  1.1409 -1.2778  2.4881
32297SOL    HW2 4132   4.929   2.619   2.741 -0.1834  0.1317 -1.6782
32298SOL     OW 4133   5.812   6.857  11.148 -0.4770 -0.7175 -0.0785
32298SOL    HW1 4134   5.878   6.863  11.217  0.2718  0.2554 -0.8449
32298SOL    HW2 4135   5.794   6.948  11.125 -0.8184 -1.0252 -1.0569
32299SOL     OW 4136   5.444   3.222   7.762  0.1557 -0.1725  0.0036
32299SOL    HW1 4137   5.388   3.185   7.693 -0.5890  0.5983  0.1811
32299SOL    HW2 4138   5.415   3.312   7.771  1.6011  0.3290 -0.0565
32300SOL     OW 4139   4.206   9.598   6.946  0.5267  0.2950  0.8852
32300SOL    HW1 4140   4.207   9.584   7.040  2.2939  2.2403  1.2357
32300SOL    HW2 4141   4.295   9.580   6.918  0.3040  0.8344 -0.2213
32301SOL     OW 4142  11.654  12.062  11.088  0.4578 -0.0247 -0.1907
32301SOL    HW1 4143  11.616  11.976  11.071  1.5539 -0.5595  0.0312
32301SOL    HW2 4144  11.591  12.105  11.145 -0.3445 -0.4792 -0.7142
32302SOL     OW 4145   0.343   3.016  11.455 -0.4359  0.6042 -0.4117
32302SOL    HW1 4146   0.424   3.065  11.443  0.3866 -0.1873  1.5170
32302SOL    HW2 4147   0.275   3.083  11.465  0.4778  1.3766  0.9298
32303SOL     OW 4148  12.526   5.262  11.035  0.2392  0.6199 -0.0582
32303SOL    HW1 4149  12.568   5.315  11.104 -0.6657 -0.0223  1.0309
32303SOL    HW2 4150  12.537   5.172  11.065  0.4103  0.2828 -1.1107
32304SOL     OW 4151   9.964   5.072  12.613 -0.5705  0.3961 -0.4153
32304SOL    HW1 4152   9.986   5.164  12.631 -0.6561  0.7404 -1.9104
32304SOL    HW2 4153  10.042   5.037  12.569 -0.6368 -0.1885 -0.0769
32305SOL     OW 4154   9.121   4.218   3.188  0.2531 -0.0467  0.3058
32305SOL    HW1 4155   9.190   4.283   3.177  0.2003  0.1234  0.9297
32305SOL    HW2 4156   9.167   4.135   3.192  0.2062 -0.2613 -2.2231
32306SOL     OW 4157  10.862   5.130   9.648 -0.4635 -0.2155 -0.2261
32306SOL    HW1 4158  10.821   5.045   9.638  0.2533 -0.7686  1.1796
32306SOL    HW2 4159  10.929   5.133   9.580 -0.8291 -0.5573 -0.6027
32307SOL     OW 4160  10.801   3.469   7.978 -0.5872 -0.0586 -0.1714
32307SOL    HW1 4161  10.792   3.377   8.004 -2.1997 -0.5879 -2.2960
32307SOL    HW2 4162  10.880   3.471   7.924  0.8235  0.3544  1.8112
32308SOL     OW 4163   7.192   3.782   7.621 -0.0747  0.2966  0.4399
32308SOL    HW1 4164   7.221   3.873   7.631 -0.1279  0.1735  2.0339
32308SOL    HW2 4165   7.166   3.775   7.529 -0.8792  2.1336  0.4890
32309SOL     OW 4166   4.196   5.574  11.665 -0.1695 -0.1607 -0.1617
32309SOL    HW1 4167   4.221   5.639  11.731 -1.3906  0.5555 -0.3824
32309SOL    HW2 4168   4.208   5.619  11.582  0.1699 -0.6504 -0.3841
32310SOL     OW 4169   2.640   4.799   1.209 -0.5493  0.1489  0.3314
32310SOL    HW1 4170   2.699   4.752   1.269 -0.2417  1.2918  0.9392
32310SOL    HW2 4171   2.648   4.751   1.127  1.1861  0.2344  0.4120
32311SOL     OW 4172   3.955   0.957  12.152 -0.2709 -0.1696  0.0419
32311SOL    HW1 4173   3.977   1.050  12.152  0.7706 -0.2568 -3.5773
32311SOL    HW2 4174   3.872   0.952  12.201  0.6150  2.2821  2.0259
32312SOL     OW 4175  10.248   6.065   1.660 -0.5334  0.0331  0.2262
32312SOL    HW1 4176  10.244   5.970   1.666 -1.1651 -0.0657 -1.4422
32312SOL    HW2 4177  10.186   6.096   1.727 -1.5125 -0.7641 -0.3012
32313SOL     OW 4178  12.503   2.211   0.858  0.2592 -0.0770  0.1609
32313SOL    HW1 4179  12.544   2.286   0.900 -0.2768  0.1023  0.3591
32313SOL    HW2 4180  12.416   2.242   0.832  0.8379  0.0852 -1.8002
32314SOL     OW 4181   9.487  12.394   5.725 -0.1567  0.3631 -0.1506
32314SOL    HW1 4182   9.392  12.400   5.739 -0.2568 -1.3612  0.1137
32314SOL    HW2 4183   9.519  12.344   5.800  1.1543  1.8582  0.3337
32315SOL     OW 4184   5.051  10.027   3.268  0.1047  0.2057 -0.3271
32315SOL    HW1 4185   4.963  10.066   3.264 -0.0597  0.1583  1.5613
32315SOL    HW2 4186   5.106  10.084   3.215 -0.9677  0.5534 -1.0922
32316SOL     OW 4187   7.282   0.031  10.397  0.2893  0.4405  0.3006
32316SOL    HW1 4188   7.365   0.023  10.443  0.7923  1.9656 -0.2910
32316SOL    HW2 4189   7.264   0.125  10.395 -1.0314  0.2025 -0.3174
32317SOL     OW 4190   7.911  10.530   3.693  0.2229  0.0011 -0.0712
32317SOL    HW1 4191   7.969  10.599   3.726  0.6928 -0.1808 -0.4824
32317SOL    HW2 4192   7.970  10.457   3.675 -0.2298 -0.4046  0.0823
32318SOL     OW 4193   9.069  11.509   8.378 -0.2355  0.1710 -0.5734
32318SOL    HW1 4194   9.036  11.423   8.402 -0.5703 -0.0403 -1.7238
32318SOL    HW2 4195   9.002  11.545   8.319 -0.9174  1.9021  1.1360
32319SOL     OW 4196   1.407   0.010  10.382 -0.4204 -0.0479 -0.1832
32319SOL    HW1 4197   1.331  -0.037  10.347 -0.8305  0.1363  0.4582
32319SOL    HW2 4198   1.411  -0.016  10.474 -0.1369  0.5149 -0.0353
32320SOL     OW 4199   4.550  12.314  12.307 -0.1000 -0.3232 -0.5799
32320SOL    HW1 4200   4.500  12.286  12.384 -0.8580  0.5029 -0.7587
32320SOL    HW2 4201   4.485  12.320  12.237  0.6692 -1.6072 -1.4575
32321SOL     OW 4202   0.614   1.282  10.352  0.5900 -0.2685 -0.2801
32321SOL    HW1 4203   0.681   1.342  10.320 -0.1881  0.7768 -0.0298
32321SOL    HW2 4204   0.601   1.307  10.444  0.7803 -1.3285  0.0487
32322SOL     OW 4205   1.321   9.428   5.011  0.1014 -0.2150 -0.0522
32322SOL    HW1 4206   1.370   9.479   5.076 -0.5098 -0.3220  0.5094
32322SOL    HW2 4207   1.374   9.432   4.932  0.1738  1.1133  0.0393
32323SOL     OW 4208   7.789   5.781  12.677  0.1472  0.1857  0.2474
32323SOL    HW1 4209   7.770   5.742  12.763 -1.2327  0.4102  0.0694
32323SOL    HW2 4210   7.843   5.716  12.633  1.5009  0.3858  1.5464
32324SOL     OW 4211   5.948   3.197   7.652  0.2310  0.2529  0.1320
32324SOL    HW1 4212   5.869   3.238   7.617 -0.4840 -1.6985 -0.6698
32324SOL    HW2 4213   5.937   3.201   7.747 -1.7102 -1.4657  0.0565
32325SOL     OW 4214   4.659   4.169  10.364 -0.2168  0.1305  0.4121
32325SOL    HW1 4215   4.579   4.136  10.405  0.2283 -1.7251 -0.1380
32325SOL    HW2 4216   4.650   4.264  10.368 -2.1468 -0.0313  0.9447
32326SOL     OW 4217   9.365   4.841   3.090 -0.3778  0.0253  0.8774
32326SOL    HW1 4218   9.311   4.887   3.155 -1.0234 -1.6281  1.5541
32326SOL    HW2 4219   9.439   4.807   3.140 -0.0110  0.1366  0.4180
32327SOL     OW 4220   3.289  11.329   7.748 -0.3220 -0.2016 -0.4096
32327SOL    HW1 4221   3.225  11.388   7.787 -1.7129 -2.6932  1.3368
32327SOL    HW2 4222   3.254  11.310   7.661 -0.2074  0.9389 -0.7256
32328SOL     OW 4223   6.761   6.628   0.316 -0.3250  0.1236  0.0611
32328SOL    HW1 4224   6.800   6.645   0.402  0.3309  0.6492 -0.3269
32328SOL    HW2 4225   6.670   6.608   0.335  0.0866 -0.9653  0.9855
32329SOL     OW 4226   5.521  12.553   4.918  0.0455 -0.1717  0.0891
32329SOL    HW1 4227   5.472  12.513   4.990 -0.5247  1.0366  0.3954
32329SOL    HW2 4228   5.534  12.481   4.856  0.4533 -1.2110  1.3237
32330SOL     OW 4229   9.550   6.198   1.464 -0.2684  0.1754  0.1728
32330SOL    HW1 4230   9.477   6.157   1.416 -0.1976  1.1046 -0.7584
32330SOL    HW2 4231   9.508   6.235   1.542 -0.8975  1.1184 -0.5893
32331SOL     OW 4232   1.621   6.841  10.577 -0.1672 -0.2658  0.1152
32331SOL    HW1 4233   1.610   6.759  10.528  0.8498  0.2719 -1.0799
32331SOL    HW2 4234   1.690   6.888  10.529 -1.0678  1.5063  0.4926
32332SOL     OW 4235   1.599   8.946   4.963  0.3001 -0.0840 -0.0989
32332SOL    HW1 4236   1.663   8.875   4.951  0.2523 -0.2456  0.5563
32332SOL    HW2 4237   1.579   8.944   5.056 -2.2838 -1.4562 -0.5874
32333SOL     OW 4238   7.073   1.020  12.176 -0.0970  0.1281 -0.0464
32333SOL    HW1 4239   7.158   1.057  12.202  0.9612 -0.4144 -2.4301
32333SOL    HW2 4240   7.011   1.090  12.190  1.0876  1.2240 -0.0988
32334SOL     OW 4241   0.750   9.572  12.293 -0.6399  0.0651  0.2498
32334SOL    HW1 4242   0.678   9.616  12.338 -0.6404  1.3883 -1.0016
32334SOL    HW2 4243   0.793   9.641  12.243  0.0351 -1.1647 -0.9150
32335SOL     OW 4244  12.577  11.461   1.088  0.2982 -0.0163 -0.7654
32335SOL    HW1 4245  12.616  11.374   1.090  2.0229  0.7225  0.5689
32335SOL    HW2 4246  12.652  11.521   1.077 -0.6184  1.3948  0.2769
32336SOL     OW 4247  11.539  10.228   0.327  0.5456 -0.2449  0.4687
32336SOL    HW1 4248  11.544  10.168   0.253  0.2045  3.1866 -2.6328
32336SOL    HW2 4249  11.447  10.256   0.329  0.6155 -0.0235  2.0719
32337SOL     OW 4250   3.478   1.448   6.762  0.3489 -0.4405  0.3443
32337SOL    HW1 4251   3.402   1.391   6.750  0.6409 -0.7000 -0.3178
32337SOL    HW2 4252   3.553   1.395   6.734  0.3635  1.0962 -3.0222
32338SOL     OW 4253   4.258   1.421  12.049 -0.5407  0.0082 -0.5014
32338SOL    HW1 4254   4.343   1.378  12.053 -0.5545 -0.0179 -0.4871
32338SOL    HW2 4255   4.245   1.458  12.137 -1.1263 -1.1035 -0.1005
32339SOL     OW 4256   9.402   9.149  10.642 -0.5656 -0.2150  0.1915
32339SOL    HW1 4257   9.325   9.206  10.654 -0.2743  0.4179 -0.7860
32339SOL    HW2 4258   9.465   9.205  10.597  0.2273 -0.9342  0.4014
32340SOL     OW 4259   3.823   0.692   7.042  0.0534  0.5866  0.0467
32340SOL    HW1 4260   3.782   0.680   6.957 -0.2224  0.6758  0.1663
32340SOL    HW2 4261   3.885   0.619   7.049  0.0603  0.5646 -0.2177
32341SOL     OW 4262   4.833   1.952   1.863 -0.0383  0.0985 -0.2366
32341SOL    HW1 4263   4.796   1.864   1.857  0.9006 -0.2614 -0.9503
32341SOL    HW2 4264   4.909   1.942   1.920  0.2898  0.3652 -0.6236
32342SOL     OW 4265   3.467   1.946   8.769 -0.2838  0.0762 -0.2888
32342SOL    HW1 4266   3.463   1.892   8.690 -0.6157  0.9737 -0.9012
32342SOL    HW2 4267   3.553   1.927   8.807  0.6321  0.9624 -1.8411
32343SOL     OW 4268  10.066   5.916   7.224  0.3217 -0.0822 -0.2840
32343SOL    HW1 4269   9.995   5.967   7.186  1.0857  0.1928 -1.3770
32343SOL    HW2 4270  10.145   5.950   7.182  1.0202 -0.9618  0.2871
32344SOL     OW 4271   6.334   5.685   0.871  0.1818  0.2571  0.3042
32344SOL    HW1 4272   6.349   5.731   0.954  2.5263 -0.6921  0.4727
32344SOL    HW2 4273   6.294   5.602   0.896 -0.0991  0.4142  0.3790
32345SOL     OW 4274   9.590  10.258   3.934  0.1012  0.6361 -0.5514
32345SOL    HW1 4275   9.529  10.220   3.997  0.7410  0.6692  0.1039
32345SOL    HW2 4276   9.621  10.338   3.976  1.9351 -0.2803 -0.0839
32346SOL     OW 4277  11.616   5.062   3.255 -0.4696 -0.1956 -0.0405
32346SOL    HW1 4278  11.655   4.977   3.230 -1.9443 -0.2965 -2.3487
32346SOL    HW2 4279  11.536   5.039   3.302 -0.5829 -0.0731 -0.1731
32347SOL     OW 4280   8.166   9.500   2.394  0.6934 -0.3322 -0.0745
32347SOL    HW1 4281   8.196   9.454   2.315  3.2097  0.6509  0.2090
32347SOL    HW2 4282   8.209   9.455   2.466 -0.2816 -0.2035  0.6088
32348SOL     OW 4283   5.395   3.604   4.360 -0.2265  0.0615  0.6959
32348SOL    HW1 4284   5.421   3.696   4.358 -0.8702  0.2598 -0.9235
32348SOL    HW2 4285   5.301   3.607   4.379  0.1105 -0.4048  2.5954
32349SOL     OW 4286   8.580   4.352  11.751  0.1415  0.2508  0.1805
32349SOL    HW1 4287   8.523   4.275  11.753  1.3525 -0.8293 -2.2033
32349SOL    HW2 4288   8.663   4.321  11.789  0.5272  0.4469 -0.4813
32350SOL     OW 4289  11.770  12.283   7.224 -0.1295 -0.6454  0.4648
32350SOL    HW1 4290  11.690  12.334   7.234 -0.5647 -1.5470  1.8898
32350SOL    HW2 4291  11.776  12.232   7.305  1.7477 -0.7983  0.2650
32351SOL     OW 4292  12.558   0.458   5.409 -0.4992  0.2890  0.4379
32351SOL    HW1 4293  12.540   0.365   5.400 -0.9462  0.3985  0.1503
32351SOL    HW2 4294  12.560   0.491   5.319 -1.5523  0.7724  0.5794
32352SOL     OW 4295   2.653   0.011   7.537 -0.3417  0.4008 -0.2153
32352SOL    HW1 4296   2.615  -0.065   7.582 -0.3941  0.2042 -0.5893
32352SOL    HW2 4297   2.643  -0.009   7.444  2.3788 -0.5262 -0.3723
32353SOL     OW 4298   2.795   3.071   0.498 -0.0198  0.4228  0.2884
32353SOL    HW1 4299   2.713   3.121   0.493 -0.7450 -0.6950  0.4822
32353SOL    HW2 4300   2.848   3.117   0.563 -0.4466  1.2294  0.0764
32354SOL     OW 4301   5.816   5.863   4.578 -0.3198  0.1784  0.2834
32354SOL    HW1 4302   5.797   5.925   4.648  2.5811  1.3169  0.1999
32354SOL    HW2 4303   5.795   5.911   4.497 -0.3630  0.1524  0.2790
32355SOL     OW 4304   2.257   1.024   7.598 -0.3134  0.3173  0.2227
32355SOL    HW1 4305   2.239   1.058   7.510 -0.3067  1.2603  0.5767
32355SOL    HW2 4306   2.353   1.023   7.603 -0.3145  0.9714  0.4778
32356SOL     OW 4307  10.551   4.625   3.325 -0.3789  0.2295  0.2313
32356SOL    HW1 4308  10.631   4.661   3.361 -0.1535 -1.0645  1.0699
32356SOL    HW2 4309  10.484   4.642   3.391  0.1151 -2.5040  1.5641
32357SOL     OW 4310   3.476   8.889   3.933 -0.1918  0.0602 -0.4411
32357SOL    HW1 4311   3.443   8.976   3.911 -2.2111 -0.9701 -1.8103
32357SOL    HW2 4312   3.513   8.856   3.852  1.0253 -0.2081  0.1981
32358SOL     OW 4313   4.096   0.214   5.050  0.1847  0.7588  0.3724
32358SOL    HW1 4314   4.042   0.262   5.112  0.0808  0.7866  0.2618
32358SOL    HW2 4315   4.074   0.122   5.065 -0.5667  0.8146 -0.2826
32359SOL     OW 4316   9.605   5.673  10.713  0.2064  0.1423  0.3046
32359SOL    HW1 4317   9.533   5.712  10.763 -1.5206 -0.8812 -1.2694
32359SOL    HW2 4318   9.564   5.638  10.634  2.5725  0.2562 -1.0888
32360SOL     OW 4319   6.279   1.985   3.045 -0.3386  0.1564  0.5225
32360SOL    HW1 4320   6.354   1.939   3.007  0.9243  1.2408  1.6089
32360SOL    HW2 4321   6.251   2.045   2.976 -0.4294 -0.4784 -0.0070
32361SOL     OW 4322   7.254   6.463  12.054 -0.3523  0.4664 -0.6460
32361SOL    HW1 4323   7.261   6.368  12.064 -1.8446  0.4852  0.9699
32361SOL    HW2 4324   7.180   6.475  11.994 -0.6896  0.6203 -0.1991
32362SOL     OW 4325  12.218  12.611  10.515 -0.0529 -0.4564 -0.4355
32362SOL    HW1 4326  12.257  12.560  10.586  0.4946 -0.7514 -0.9395
32362SOL    HW2 4327  12.293  12.640  10.463 -0.4354 -0.0445 -0.7603
32363SOL     OW 4328  10.943  10.461  11.800 -0.0728 -0.7158 -0.4563
32363SOL    HW1 4329  10.958  10.556  11.801 -3.4443  0.0667  2.8347
32363SOL    HW2 4330  11.020  10.424  11.842 -0.0810  1.0506  1.2615
32364SOL     OW 4331   5.827   7.134  11.969  0.2676 -0.2427  0.0128
32364SOL    HW1 4332   5.921   7.146  11.983  0.0799  0.2913  0.8834
32364SOL    HW2 4333   5.786   7.169  12.048 -0.6133 -1.6094  0.1958
32365SOL     OW 4334   1.180   5.943   5.916 -0.4072  0.1129  0.2592
32365SOL    HW1 4335   1.159   5.989   5.835  1.4214 -1.9442 -1.5163
32365SOL    HW2 4336   1.111   5.878   5.925  0.2721 -0.7568 -0.6207
32366SOL     OW 4337   1.388   2.321   0.094  0.4198  0.0219  0.4832
32366SOL    HW1 4338   1.380   2.381   0.168  1.9124 -1.6405  2.1133
32366SOL    HW2 4339   1.479   2.330   0.066 -0.4206  1.5482 -2.0948
32367SOL     OW 4340   9.285  10.542   7.204 -0.5170 -0.4094  0.0045
32367SOL    HW1 4341   9.200  10.506   7.228 -0.1680  0.2540  2.4914
32367SOL    HW2 4342   9.300  10.612   7.268  1.8847 -0.4840 -0.4034
32368SOL     OW 4343   2.083   8.726   2.790  0.0182  0.1022  0.1965
32368SOL    HW1 4344   2.125   8.647   2.824 -0.6403 -0.6335 -0.6348
32368SOL    HW2 4345   2.122   8.798   2.840  1.6167 -0.6182  0.0434
32369SOL     OW 4346   4.416   9.490   1.005  0.5559 -0.3878 -0.6190
32369SOL    HW1 4347   4.401   9.541   0.926  0.5491 -0.7715 -0.8667
32369SOL    HW2 4348   4.429   9.556   1.074  0.0362 -0.0571 -0.8356
32370SOL     OW 4349   2.808   8.486   8.587  0.0804 -0.2883  0.6200
32370SOL    HW1 4350   2.813   8.579   8.610 -1.3870  0.0030 -0.1178
32370SOL    HW2 4351   2.779   8.443   8.668 -1.4448  0.2255  0.3718
32371SOL     OW 4352  10.773   8.386   4.411  0.5408  0.5141 -0.0138
32371SOL    HW1 4353  10.866   8.386   4.433  0.4368  0.3897  0.4366
32371SOL    HW2 4354  10.733   8.329   4.476  0.2070  0.2230 -0.4688
32372SOL     OW 4355   1.654  10.291   4.770  0.3738 -0.2648 -0.3924
32372SOL    HW1 4356   1.673  10.334   4.853 -1.2659 -1.9504  0.9487
32372SOL    HW2 4357   1.691  10.203   4.779 -1.3181 -1.0619 -0.6820
32373SOL     OW 4358   5.546   4.990   7.743 -0.0165  0.0846  0.2107
32373SOL    HW1 4359   5.557   4.988   7.648 -0.2756  1.5531  0.1162
32373SOL    HW2 4360   5.635   4.994   7.778  0.0676 -0.0689  0.0119
32374SOL     OW 4361  11.961   4.041   3.011 -0.8271 -0.0530 -0.2733
32374SOL    HW1 4362  11.915   3.986   3.075 -0.4158 -0.5386 -0.3979
32374SOL    HW2 4363  11.891   4.075   2.954 -1.3481  1.2639  1.0703
32375SOL     OW 4364   6.161   1.314   3.047  0.1727 -0.7500  0.2590
32375SOL    HW1 4365   6.140   1.360   2.966 -3.4388  0.4661  1.6897
32375SOL    HW2 4366   6.128   1.225   3.034  0.0969 -0.7094  0.1724
32376SOL     OW 4367   2.070   5.470  11.299  0.0836 -0.3004  0.2830
32376SOL    HW1 4368   2.037   5.440  11.214 -0.6811 -3.2632  1.5038
32376SOL    HW2 4369   2.160   5.499  11.280  0.8126 -3.1492 -1.2392
32377SOL     OW 4370   1.760   4.147   2.045  0.0080  0.4797  0.3525
32377SOL    HW1 4371   1.686   4.093   2.073 -0.5606  1.3727  0.6178
32377SOL    HW2 4372   1.720   4.229   2.016  0.8807  0.8891  0.2815
32378SOL     OW 4373   1.054   1.430   1.213 -0.1885 -0.2539 -0.2010
32378SOL    HW1 4374   0.999   1.375   1.269 -0.6111  0.3849  0.0229
32378SOL    HW2 4375   1.121   1.466   1.271 -0.9878  0.8922  0.0457
32379SOL     OW 4376   9.058   8.017   2.010 -0.0667 -0.0935 -0.2024
32379SOL    HW1 4377   9.142   8.048   2.043  1.0759 -0.4624 -2.5519
32379SOL    HW2 4378   9.079   7.969   1.930 -2.4218 -1.2246 -0.2429
32380SOL     OW 4379   8.424   7.300   4.885 -0.5705 -0.0003  0.1848
32380SOL    HW1 4380   8.501   7.299   4.829 -0.5141 -2.1640  0.2062
32380SOL    HW2 4381   8.353   7.265   4.830 -1.1689  0.5117  0.6178
32381SOL     OW 4382   3.251   1.220   1.169  0.3737  0.6417 -0.3806
32381SOL    HW1 4383   3.206   1.187   1.091  1.5265 -0.5769 -0.5663
32381SOL    HW2 4384   3.225   1.160   1.239  0.7917  0.6061 -0.2483
32382SOL     OW 4385   9.110   9.786   3.704 -0.4698 -0.0386 -0.0532
32382SOL    HW1 4386   9.202   9.774   3.680 -0.5720 -0.8806 -0.0677
32382SOL    HW2 4387   9.092   9.714   3.766 -1.5101 -0.7985 -1.1764
32383SOL     OW 4388  11.146   7.839   4.464 -0.2677  0.3095  0.3923
32383SOL    HW1 4389  11.236   7.807   4.469 -0.0933  0.8556  0.8526
32383SOL    HW2 4390  11.095   7.777   4.516  0.1526  1.0573  1.7264
32384SOL     OW 4391   7.527   2.131   7.706 -0.1475 -0.4905  0.2908
32384SOL    HW1 4392   7.570   2.057   7.749  0.3398  0.0726  0.8003
32384SOL    HW2 4393   7.541   2.204   7.766 -1.7919 -0.2739  0.4508
32385SOL     OW 4394  12.575   4.270   4.206 -0.2503 -0.5348 -0.8521
32385SOL    HW1 4395  12.518   4.344   4.228  1.4166  1.0856 -1.6790
32385SOL    HW2 4396  12.622   4.251   4.287 -0.0749 -0.0885 -0.8426
32386SOL     OW 4397  10.298   7.498  12.487 -0.4099 -0.4509 -0.8767
32386SOL    HW1 4398  10.231   7.566  12.478  0.1661  0.1968 -0.4197
32386SOL    HW2 4399  10.373   7.533  12.440  0.1996 -0.3362  0.1482
32387SOL     OW 4400   3.060   7.742   9.803  0.0131 -0.1783 -0.2296
32387SOL    HW1 4401   3.137   7.698   9.766 -0.4449 -0.8769 -0.3944
32387SOL    HW2 4402   3.050   7.821   9.751 -0.0622 -0.6768 -0.9895
32388SOL     OW 4403   8.164   5.280   0.572 -0.3435  0.1468  0.3128
32388SOL    HW1 4404   8.206   5.205   0.613 -1.2614 -0.6421 -0.1513
32388SOL    HW2 4405   8.212   5.294   0.491  0.9509  1.1915  1.2248
32389SOL     OW 4406   8.235   9.475   5.693 -0.7214  0.0818  0.1567
32389SOL    HW1 4407   8.265   9.497   5.781 -0.2425 -0.7741  0.2202
32389SOL    HW2 4408   8.296   9.520   5.635  0.1639 -0.8994  0.2850
32390SOL     OW 4409   2.482   9.698   7.287  0.0722  0.2387  0.1070
32390SOL    HW1 4410   2.389   9.695   7.264 -0.0116 -0.1513  0.4921
32390SOL    HW2 4411   2.490   9.769   7.350  0.0164  0.2114  0.1451
32391SOL     OW 4412   5.324   4.464   1.568  0.6960 -0.5740 -0.7685
32391SOL    HW1 4413   5.373   4.382   1.581  1.3852 -0.1519 -0.6734
32391SOL    HW2 4414   5.235   4.435   1.545  0.1934 -1.3584  1.8595
32392SOL     OW 4415  11.978   0.925   8.948  0.1298  0.0171  0.4225
32392SOL    HW1 4416  11.932   0.906   9.029 -1.0793  0.6296 -0.0971
32392SOL    HW2 4417  11.962   1.019   8.932 -2.3069 -0.6790 -2.0662
32393SOL     OW 4418   4.429   4.638   6.874  0.6300 -0.3539 -0.3836
32393SOL    HW1 4419   4.351   4.688   6.898 -0.0743 -1.5541 -0.0925
32393SOL    HW2 4420   4.396   4.551   6.852  1.8025 -0.6592 -1.0422
32394SOL     OW 4421   8.130   7.627  10.052 -1.1263 -0.1155  0.4423
32394SOL    HW1 4422   8.086   7.590   9.976 -1.4015  1.1680 -0.0486
32394SOL    HW2 4423   8.191   7.691  10.016 -0.6412 -0.1026  1.2555
32395SOL     OW 4424   2.000   1.614   4.206 -0.0345 -0.3351  0.6966
32395SOL    HW1 4425   1.957   1.603   4.291  0.4720  0.0660  1.0048
32395SOL    HW2 4426   1.935   1.659   4.152 -0.3784 -0.6403  0.8492
32396SOL     OW 4427   0.186   9.600  12.539 -0.0894  0.6697  0.4305
32396SOL    HW1 4428   0.222   9.630  12.622 -0.2569  0.1854  0.6835
32396SOL    HW2 4429   0.147   9.678  12.499 -1.3356  0.6224  1.4973
32397SOL     OW 4430   6.332   1.602   9.777  0.3631 -0.2286  0.1635
32397SOL    HW1 4431   6.243   1.623   9.748  1.5028  1.3099 -2.7389
32397SOL    HW2 4432   6.356   1.525   9.725  0.7220 -0.6392  0.9329
32398SOL     OW 4433   5.933   4.629   8.211 -0.1023  0.3018 -0.4121
32398SOL    HW1 4434   5.874   4.674   8.150  0.4751  0.8647 -0.5758
32398SOL    HW2 4435   5.954   4.696   8.277 -1.5352 -0.5917  1.0182
32399SOL     OW 4436   7.744   0.802   6.603 -0.3184  0.0829 -0.3422
32399SOL    HW1 4437   7.767   0.833   6.690  0.1647 -1.7164  0.2179
32399SOL    HW2 4438   7.705   0.716   6.618 -1.8412  0.4804 -1.7839
32400SOL     OW 4439  11.821   4.370   4.658 -0.0891  0.3659 -0.0570
32400SOL    HW1 4440  11.897   4.351   4.713 -0.5351 -2.7380 -0.3859
32400SOL    HW2 4441  11.747   4.369   4.719 -0.2708 -0.3545 -0.2820
32401SOL     OW 4442   0.177   0.829   7.973 -0.2497 -0.0729 -0.1066
32401SOL    HW1 4443   0.174   0.891   7.900  1.3545  1.5220  1.1002
32401SOL    HW2 4444   0.231   0.757   7.941 -0.8261 -0.1268 -0.9961
32402SOL     OW 4445   2.770   7.710  12.373  0.1460  0.2164  0.4115
32402SOL    HW1 4446   2.751   7.774  12.305  0.8104  0.2648  0.2630
32402SOL    HW2 4447   2.692   7.654  12.377 -0.3210  0.8612  0.3514
32403SOL     OW 4448   2.391   4.845  11.952 -0.6722 -0.4221  0.3482
32403SOL    HW1 4449   2.296   4.856  11.957 -0.5053  1.2956  0.3065
32403SOL    HW2 4450   2.426   4.910  12.013  0.5394  1.2051 -1.9194
32404SOL     OW 4451   5.227   9.635   7.596 -0.2009  0.1422  0.4697
32404SOL    HW1 4452   5.170   9.642   7.519 -0.3949  1.4691  0.7030
32404SOL    HW2 4453   5.281   9.558   7.580 -1.2456 -0.4449 -0.3137
32405SOL     OW 4454   0.826   6.931   0.195  0.5878 -0.4862  0.7101
32405SOL    HW1 4455   0.766   6.862   0.226  1.3831 -1.0673  0.9990
32405SOL    HW2 4456   0.895   6.884   0.148  0.3433  0.2523 -0.4198
32406SOL     OW 4457   5.324   6.014   6.695 -0.2924 -0.2366 -1.0599
32406SOL    HW1 4458   5.320   5.928   6.737 -1.1290  0.2279 -0.1651
32406SOL    HW2 4459   5.264   6.069   6.746  0.5774  1.0020 -1.3253
32407SOL     OW 4460   0.750   6.226   5.398  0.0891 -0.2188 -0.1782
32407SOL    HW1 4461   0.800   6.169   5.456 -0.3851 -2.2763 -1.6814
32407SOL    HW2 4462   0.663   6.229   5.436  0.5155  0.8757  0.7762
32408SOL     OW 4463  10.014  11.451   5.989 -0.1197 -0.1393 -0.4237
32408SOL    HW1 4464  10.103  11.439   5.956 -0.0509  0.3532 -0.4164
32408SOL    HW2 4465  10.025  11.476   6.081 -0.0778  3.7332 -1.3365
32409SOL     OW 4466  10.404  10.267   1.038  0.1117  0.2923  0.3475
32409SOL    HW1 4467  10.486  10.276   0.990  1.0602 -0.2440  1.8057
32409SOL    HW2 4468  10.377  10.356   1.059 -0.5238  0.5577 -1.4692
32410SOL     OW 4469  11.098   1.461   1.132  0.1319  0.2287 -0.6155
32410SOL    HW1 4470  11.131   1.373   1.118  1.9883  0.7291  0.2866
32410SOL    HW2 4471  11.049   1.481   1.053 -0.2117 -1.5505 -0.8876
32411SOL     OW 4472   4.940   6.907  10.386 -0.1179  0.2141  0.2908
32411SOL    HW1 4473   5.022   6.925  10.433  1.1796  2.7106 -2.5889
32411SOL    HW2 4474   4.873   6.948  10.441  0.5806 -1.1357  2.2907
32412SOL     OW 4475   7.633  11.299   0.429  0.3581  0.2708 -0.1184
32412SOL    HW1 4476   7.555  11.272   0.477 -0.7633 -1.3829 -2.6471
32412SOL    HW2 4477   7.702  11.241   0.462 -1.2145 -3.5711 -2.8465
32413SOL     OW 4478   8.932   2.333   2.199 -0.2388  0.1484  0.9441
32413SOL    HW1 4479   8.914   2.278   2.276 -0.7009  0.5218  1.1093
32413SOL    HW2 4480   8.881   2.292   2.129 -0.7176  0.4583  1.1068
32414SOL     OW 4481   2.477   8.370   4.995 -1.0700  0.7992 -0.8409
32414SOL    HW1 4482   2.533   8.390   4.920  0.5082 -1.0794 -0.2450
32414SOL    HW2 4483   2.430   8.291   4.969  0.1753 -0.4215  0.4146
32415SOL     OW 4484   4.328   6.897   6.677 -0.1675  0.1717 -0.0056
32415SOL    HW1 4485   4.235   6.906   6.654  0.0593  1.9546 -0.4277
32415SOL    HW2 4486   4.330   6.900   6.773 -0.7445 -2.8566  0.1917
32416SOL     OW 4487  10.966   8.767   1.119 -0.7995  0.5685  0.1811
32416SOL    HW1 4488  10.908   8.693   1.140  2.7083 -2.2678  0.9130
32416SOL    HW2 4489  10.943   8.790   1.029 -1.6258 -1.9310 -0.3336
32417SOL     OW 4490   1.036   2.523  11.540 -0.2290  0.2112 -0.1317
32417SOL    HW1 4491   1.106   2.459  11.524  0.0997  0.7291 -0.8063
32417SOL    HW2 4492   0.998   2.496  11.624 -0.7050 -1.4128 -0.8293
32418SOL     OW 4493   0.641   9.519  10.674 -0.0680  0.3756  0.0585
32418SOL    HW1 4494   0.606   9.528  10.763 -0.7417 -1.3042  0.0001
32418SOL    HW2 4495   0.723   9.470  10.686 -0.1410  0.1807 -0.2416
32419SOL     OW 4496   7.496   5.868   0.172 -0.3085  0.5445 -0.2071
32419SOL    HW1 4497   7.504   5.774   0.155 -0.1397  0.4527  0.3688
32419SOL    HW2 4498   7.576   5.892   0.218 -0.9671  0.6687  0.9375
32420SOL     OW 4499   7.712   2.195   7.430  0.3291 -0.1257 -0.4915
32420SOL    HW1 4500   7.676   2.140   7.499 -0.0678  0.4781 -0.2037
32420SOL    HW2 4501   7.779   2.141   7.388 -0.3594 -0.9868 -0.5170
32421SOL     OW 4502  12.229   6.162   1.721 -0.1498  0.3485  0.0085
32421SOL    HW1 4503  12.233   6.068   1.736 -0.6066  0.0470 -1.6008
32421SOL    HW2 4504  12.317   6.194   1.744  1.0414 -0.9707 -2.3485
32422SOL     OW 4505  11.825  10.344  12.117  0.3270  0.4762 -0.7696
32422SOL    HW1 4506  11.790  10.425  12.081  1.3383  0.8810 -0.8943
32422SOL    HW2 4507  11.801  10.346  12.210 -1.2684 -0.0020 -1.1541
32423SOL     OW 4508   3.158   2.804   6.155  0.2641  0.1387 -0.2705
32423SOL    HW1 4509   3.172   2.892   6.191 -1.1647  0.6320 -0.8444
32423SOL    HW2 4510   3.218   2.798   6.082  0.3998  0.6246 -0.2006
32424SOL     OW 4511   4.680   0.142   8.596  0.0654  0.2969 -0.4137
32424SOL    HW1 4512   4.650   0.224   8.636 -1.3319 -0.9520  1.2294
32424SOL    HW2 4513   4.615   0.122   8.529 -0.5539 -0.3194  0.3561
32425SOL     OW 4514   2.027   5.763   0.986 -0.5266 -0.3779  0.4979
32425SOL    HW1 4515   2.063   5.763   0.898  0.0672  0.6971  0.7258
32425SOL    HW2 4516   2.097   5.727   1.041 -0.7170 -0.5953  0.6019
32426SOL     OW 4517   8.548   0.043   5.618 -0.6263 -0.2960  0.2406
32426SOL    HW1 4518   8.506  -0.006   5.689 -1.5089  0.4064  0.2147
32426SOL    HW2 4519   8.476   0.085   5.572 -0.2430 -1.9730 -2.0689
32427SOL     OW 4520   4.695   5.102   9.413  0.0412 -0.1273  0.0400
32427SOL    HW1 4521   4.614   5.117   9.364  0.6598  1.0386 -0.6823
32427SOL    HW2 4522   4.683   5.148   9.496 -0.1447 -0.1839  0.0435
32428SOL     OW 4523   7.298   3.498   5.835  0.7097  0.2991  0.5178
32428SOL    HW1 4524   7.351   3.480   5.757  0.3116 -0.5404  0.4286
32428SOL    HW2 4525   7.314   3.590   5.855  1.5423  0.2730 -0.0060
32429SOL     OW 4526   0.674   2.277   3.100  0.7714 -0.1340 -0.7452
32429SOL    HW1 4527   0.766   2.272   3.077  0.9191 -0.5357 -0.1015
32429SOL    HW2 4528   0.673   2.305   3.192  0.2061  1.4535 -1.2071
32430SOL     OW 4529   0.160  12.541   4.671  0.0165  0.2335  0.4670
32430SOL    HW1 4530   0.154  12.602   4.598 -0.1391  0.8379  0.9713
32430SOL    HW2 4531   0.112  12.584   4.742  0.2904 -0.2718  0.9700
32431SOL     OW 4532   5.754   1.228   1.164 -0.2597  0.0657  0.5603
32431SOL    HW1 4533   5.665   1.265   1.162 -0.5047 -0.5189 -1.2327
32431SOL    HW2 4534   5.752   1.158   1.099  1.2400 -0.6525  1.2506
32432SOL     OW 4535   3.704   7.412   7.169 -0.4847 -0.1649 -0.2348
32432SOL    HW1 4536   3.639   7.406   7.239 -1.4018 -0.4931 -1.0891
32432SOL    HW2 4537   3.756   7.489   7.192 -2.2922  1.1699 -0.4365
32433SOL     OW 4538   1.266   9.705   9.311  0.4603  0.2520  0.1871
32433SOL    HW1 4539   1.296   9.746   9.230  0.1707 -0.3603 -0.2305
32433SOL    HW2 4540   1.338   9.719   9.372  1.1643 -0.2784 -0.5046
32434SOL     OW 4541   9.842   8.547   7.491 -0.1662 -0.4775  0.0699
32434SOL    HW1 4542   9.825   8.512   7.403 -0.0126 -1.0282  0.2536
32434SOL    HW2 4543   9.868   8.638   7.476  0.5793 -0.7741 -0.5184
32435SOL     OW 4544  12.108   7.501   0.654  0.0701 -0.2593  0.1017
32435SOL    HW1 4545  12.150   7.587   0.661 -1.6393  0.9041 -2.5143
32435SOL    HW2 4546  12.017   7.520   0.631 -0.1663 -2.7455 -1.3827
32436SOL     OW 4547   9.249   6.386   5.560  0.1964  0.6726  0.1330
32436SOL    HW1 4548   9.289   6.473   5.562 -0.6958  1.1373 -1.0289
32436SOL    HW2 4549   9.160   6.401   5.530  0.5561 -0.8128 -1.9844
32437SOL     OW 4550  12.561   5.620  12.476 -0.0914 -0.4348  0.3874
32437SOL    HW1 4551  12.496   5.593  12.411 -0.6176 -1.8486  1.4511
32437SOL    HW2 4552  12.531   5.705  12.506 -0.3566 -0.1870 -0.5523
32438SOL     OW 4553   9.416   4.485  10.924 -0.5242 -0.1572 -0.0358
32438SOL    HW1 4554   9.367   4.457  10.847 -0.1378 -0.0659 -0.3186
32438SOL    HW2 4555   9.356   4.472  10.997 -1.0698  0.2234 -0.4069
32439SOL     OW 4556   9.182   6.529   0.878 -0.3634 -0.3590 -0.1370
32439SOL    HW1 4557   9.208   6.463   0.814 -0.4617  0.4497 -1.0358
32439SOL    HW2 4558   9.096   6.500   0.908 -1.1704  0.2210 -1.7843
32440SOL     OW 4559   7.740   5.310   1.040  0.5196  0.1046 -0.2680
32440SOL    HW1 4560   7.689   5.288   0.961  1.6810 -0.1657 -0.9675
32440SOL    HW2 4561   7.702   5.255   1.109  0.0693 -0.3355 -0.8525
32441SOL     OW 4562  11.031   3.348   1.905 -0.4218 -0.1020 -0.1024
32441SOL    HW1 4563  10.950   3.298   1.919 -0.2762 -0.4625 -0.5331
32441SOL    HW2 4564  11.088   3.288   1.858 -0.7940  0.9729 -2.0161
32442SOL     OW 4565   6.856   3.299   9.038  1.0596  0.0966 -0.6712
32442SOL    HW1 4566   6.826   3.209   9.051 -0.9118  0.3177 -2.9844
32442SOL    HW2 4567   6.880   3.330   9.125  1.5366 -2.5513  0.2129
32443SOL     OW 4568   7.273  11.785   5.523  0.8110 -0.4557 -0.1276
32443SOL    HW1 4569   7.235  11.751   5.604 -0.5781 -1.2912 -1.0913
32443SOL    HW2 4570   7.338  11.719   5.498  1.1050 -0.2929  0.1917
32444SOL     OW 4571   5.246   0.864  12.465  0.6752  0.4577  0.2484
32444SOL    HW1 4572   5.311   0.886  12.398  1.2409  2.1529  1.2949
32444SOL    HW2 4573   5.298   0.846  12.543  0.0433 -1.8574  0.2016
32445SOL     OW 4574   4.389  10.761   3.249  0.0242  0.5311  0.3357
32445SOL    HW1 4575   4.455  10.692   3.250 -0.5790 -0.1304 -1.6462
32445SOL    HW2 4576   4.362  10.768   3.158 -2.0832  1.3098  0.9477
32446SOL     OW 4577   1.808   9.307   0.251  0.3506  0.0793 -0.1658
32446SOL    HW1 4578   1.716   9.301   0.226 -0.1846 -0.1055  1.6833
32446SOL    HW2 4579   1.823   9.401   0.266 -0.2436 -0.0774  1.7723
32447SOL     OW 4580   0.212   6.275   4.084  0.3102 -0.4164 -0.2740
32447SOL    HW1 4581   0.170   6.192   4.106 -0.9453  0.5701  1.2983
32447SOL    HW2 4582   0.174   6.299   3.999 -2.5415  0.4690  1.1196
32448SOL     OW 4583   1.402   7.966   9.585  0.2099 -0.3498 -0.0238
32448SOL    HW1 4584   1.349   7.942   9.509 -1.6479  0.2374  1.0061
32448SOL    HW2 4585   1.437   8.053   9.564 -2.7630  1.1943  0.8819
32449SOL     OW 4586   3.986   4.338   4.371  0.3379  0.0835 -0.1045
32449SOL    HW1 4587   3.952   4.304   4.288  1.8393  1.4405 -1.3328
32449SOL    HW2 4588   4.006   4.260   4.422 -1.1875 -0.7805 -0.7457
32450SOL     OW 4589   0.730   6.352  11.328 -0.5771  0.5342  0.4245
32450SOL    HW1 4590   0.800   6.403  11.368  1.0202 -0.0879 -1.4333
32450SOL    HW2 4591   0.750   6.352  11.235 -1.5722 -1.8719  0.1275
32451SOL     OW 4592  10.691   0.350  11.486 -0.2740  0.3685  0.5437
32451SOL    HW1 4593  10.649   0.318  11.567  1.2983 -0.4521  1.0713
32451SOL    HW2 4594  10.774   0.387  11.516 -0.4975  1.7737 -0.5043
32452SOL     OW 4595  10.194   2.981   8.189  0.2345  0.2952 -0.0509
32452SOL    HW1 4596  10.177   3.054   8.249  0.3074 -0.5144  0.9946
32452SOL    HW2 4597  10.221   2.910   8.247 -1.7421 -1.1770 -0.8242
32453SOL     OW 4598  12.395   5.586  10.707 -0.6949  0.2272  0.7285
32453SOL    HW1 4599  12.349   5.663  10.741 -2.1867 -0.7890  1.1322
32453SOL    HW2 4600  12.405   5.604  10.614 -1.1801  0.8504  0.7851
32454SOL     OW 4601   9.606   5.638   7.682  0.4190 -0.4746 -0.3251
32454SOL    HW1 4602   9.679   5.597   7.635 -0.5005 -2.9583  0.2353
32454SOL    HW2 4603   9.622   5.618   7.774  1.0622  2.4709  0.2924
32455SOL     OW 4604   5.856  10.540  11.379 -1.1787 -0.6232  0.3252
32455SOL    HW1 4605   5.859  10.520  11.472 -0.8883  0.4717  0.5599
32455SOL    HW2 4606   5.856  10.636  11.374 -1.4186 -0.6588 -0.7897
32456SOL     OW 4607   9.496  10.551   3.064 -0.4005 -0.5261 -0.4434
32456SOL    HW1 4608   9.467  10.577   3.151  1.3323 -1.5062  0.4834
32456SOL    HW2 4609   9.418  10.513   3.023 -0.9375 -1.2825  1.2005
32457SOL     OW 4610   6.293  12.550   5.931  0.1432 -0.5495 -0.2177
32457SOL    HW1 4611   6.323  12.564   6.020  1.8192  1.0296 -0.9777
32457SOL    HW2 4612   6.212  12.600   5.924 -0.8126 -1.8805  0.7978
32458SOL     OW 4613   1.314   7.231   5.277  0.3782 -0.3857 -0.3270
32458SOL    HW1 4614   1.243   7.293   5.293  0.6456 -0.4591  1.2652
32458SOL    HW2 4615   1.276   7.165   5.219 -1.1535 -0.9218  1.2309
32459SOL     OW 4616   9.520   1.694   9.634  0.2578  0.6462 -0.5041
32459SOL    HW1 4617   9.449   1.665   9.577  1.5557  0.1234 -1.9264
32459SOL    HW2 4618   9.568   1.614   9.654 -0.3924  0.7434  1.7405
32460SOL     OW 4619   4.257   9.583   3.369 -0.5256  0.5905  0.0781
32460SOL    HW1 4620   4.306   9.648   3.420  0.6571 -0.0021 -0.2577
32460SOL    HW2 4621   4.201   9.636   3.312  0.1937  1.3303  0.0272
32461SOL     OW 4622   0.569  11.705  12.569 -0.5553  0.1658 -0.0268
32461SOL    HW1 4623   0.484  11.691  12.611  0.0807 -0.8501  0.9512
32461SOL    HW2 4624   0.610  11.775  12.620 -0.0313 -0.6549  0.6966
32462SOL     OW 4625   5.332   8.598   6.776  0.4959  0.6191  0.4099
32462SOL    HW1 4626   5.391   8.537   6.732  0.4202 -1.6530  3.1950
32462SOL    HW2 4627   5.375   8.683   6.769  3.2187 -0.6432  0.8024
32463SOL     OW 4628   3.816  12.214   0.631 -0.5069  0.1325 -0.5356
32463SOL    HW1 4629   3.799  12.152   0.561 -0.4275  0.6817 -1.0449
32463SOL    HW2 4630   3.840  12.295   0.587  0.3667  0.2493  0.1377
32464SOL     OW 4631   9.887   4.931  11.356 -0.0817 -0.5880  0.0985
32464SOL    HW1 4632   9.921   5.011  11.314 -0.6764  0.2116  1.0792
32464SOL    HW2 4633   9.966   4.882  11.380  0.2740 -0.9655 -1.6955
32465SOL     OW 4634   3.243   4.422   4.707  0.6581  0.2294 -0.1980
32465SOL    HW1 4635   3.266   4.498   4.654 -2.0118  1.8850  0.7781
32465SOL    HW2 4636   3.313   4.415   4.771  1.7682  0.8452 -1.3050
32466SOL     OW 4637   9.097   3.845  12.177  0.7907  0.6331 -0.2004
32466SOL    HW1 4638   9.184   3.809  12.164 -0.4498 -2.1011 -1.6134
32466SOL    HW2 4639   9.058   3.791  12.246 -0.4862  0.4025 -1.0650
32467SOL     OW 4640   1.265   5.355   2.022  0.9885  0.1409 -0.4019
32467SOL    HW1 4641   1.216   5.334   1.943  2.3302  0.4939 -1.3765
32467SOL    HW2 4642   1.265   5.451   2.025  0.8144  0.1285  0.1261
32468SOL     OW 4643  10.061   2.540  11.339 -0.2016 -0.5884  0.4293
32468SOL    HW1 4644  10.010   2.482  11.395  0.5890 -0.7456  1.0084
32468SOL    HW2 4645  10.151   2.529  11.369  0.2634 -0.7817 -0.9812
32469SOL     OW 4646   3.227   6.327   8.178 -0.1856  0.1397  0.3450
32469SOL    HW1 4647   3.133   6.317   8.161 -0.2977  1.2456  0.2265
32469SOL    HW2 4648   3.237   6.314   8.272 -0.6763  1.4239  0.5869
32470SOL     OW 4649   2.809   6.894   4.457  0.0206 -0.0890 -0.0164
32470SOL    HW1 4650   2.792   6.808   4.418  0.4551 -0.8861  1.4704
32470SOL    HW2 4651   2.845   6.946   4.386 -2.6642 -0.2821 -1.6529
32471SOL     OW 4652   4.253   3.296   2.810  0.1682  0.0621  0.5501
32471SOL    HW1 4653   4.324   3.254   2.761  0.5112 -1.0679  1.9586
32471SOL    HW2 4654   4.277   3.389   2.812  0.0042  0.2054 -1.6056
32472SOL     OW 4655   2.440   9.162   2.388  0.4063  0.2907 -0.1577
32472SOL    HW1 4656   2.433   9.067   2.381 -0.7330  0.2858  0.6578
32472SOL    HW2 4657   2.411   9.182   2.478  1.2570  1.3505 -0.0974
32473SOL     OW 4658   1.767   7.204   6.687  0.0204  0.5792 -0.7608
32473SOL    HW1 4659   1.840   7.151   6.657  0.1005  0.9477 -1.2399
32473SOL    HW2 4660   1.716   7.146   6.743  1.1525  0.5639  0.3123
32474SOL     OW 4661   3.032   1.838   9.678  0.0095  0.0906  0.4458
32474SOL    HW1 4662   2.952   1.785   9.676  0.0850 -0.0386  0.7753
32474SOL    HW2 4663   3.088   1.793   9.741  0.3037  0.2361  0.2867
32475SOL     OW 4664  10.363  11.890   1.416 -0.3329 -0.2538  0.0418
32475SOL    HW1 4665  10.445  11.854   1.383  0.2224  0.5947  0.4658
32475SOL    HW2 4666  10.389  11.968   1.465 -1.5224  0.9627 -1.1710
32476SOL     OW 4667   6.341   9.496  12.027 -0.3094  0.3285 -0.1335
32476SOL    HW1 4668   6.304   9.409  12.040 -1.3975  0.8033  0.0834
32476SOL    HW2 4669   6.415   9.501  12.087 -1.6438  0.3542  1.5999
32477SOL     OW 4670   4.865  10.760  11.223  0.7308 -0.4620  0.0563
32477SOL    HW1 4671   4.953  10.729  11.204  0.4578 -0.9123 -0.5413
32477SOL    HW2 4672   4.827  10.778  11.137  0.7711  1.2534  0.3787
32478SOL     OW 4673   7.769   2.475   0.140 -0.0897  0.1080 -0.4690
32478SOL    HW1 4674   7.706   2.544   0.159  0.3516  0.0876  1.3256
32478SOL    HW2 4675   7.825   2.472   0.218  0.4313 -1.6929 -0.8555
32479SOL     OW 4676   6.137   9.569   6.231  0.3500 -0.0861 -0.7539
32479SOL    HW1 4677   6.057   9.549   6.280  0.4574 -0.1353 -0.5977
32479SOL    HW2 4678   6.115   9.550   6.140  1.1851 -3.4466 -0.4195
32480SOL     OW 4679  11.551  10.309  10.773  0.1743 -0.1483 -0.0679
32480SOL    HW1 4680  11.636  10.275  10.747 -0.2131 -0.5129 -0.8814
32480SOL    HW2 4681  11.549  10.297  10.868  0.4877 -1.4155 -0.1966
32481SOL     OW 4682   0.472   8.156   3.522 -0.1315 -0.2919 -0.4904
32481SOL    HW1 4683   0.398   8.199   3.563  0.3747  1.2135 -1.0880
32481SOL    HW2 4684   0.540   8.223   3.517  0.7557 -1.1994 -1.3220
32482SOL     OW 4685   3.274   1.556  12.173 -0.5608 -0.0547 -0.0809
32482SOL    HW1 4686   3.311   1.618  12.110 -1.4067 -0.8632 -1.4278
32482SOL    HW2 4687   3.186   1.589  12.190 -0.8794 -0.6736 -0.5111
32483SOL     OW 4688   8.116   3.096   5.647  0.1039 -0.0165 -0.0582
32483SOL    HW1 4689   8.211   3.095   5.663  0.0034  1.1102  0.6994
32483SOL    HW2 4690   8.077   3.120   5.731 -0.7179  1.4912 -0.8196
32484SOL     OW 4691  11.555   4.767   3.077  0.2302  0.4890  0.1416
32484SOL    HW1 4692  11.509   4.839   3.035  2.4191  1.0902 -1.4484
32484SOL    HW2 4693  11.644   4.801   3.092  1.2315 -1.7272 -0.3511
32485SOL     OW 4694  10.322  12.676   2.919  0.0020  0.1137 -1.2505
32485SOL    HW1 4695  10.401  12.721   2.947  0.8632 -2.7275  1.5016
32485SOL    HW2 4696  10.346  12.634   2.837  0.4193  1.4612 -1.8376
32486SOL     OW 4697   4.155  11.774   7.341 -0.5642 -0.7886  0.3614
32486SOL    HW1 4698   4.247  11.803   7.346 -0.7291 -0.4959  2.3528
32486SOL    HW2 4699   4.115  11.809   7.420 -2.4408 -0.8659 -0.5161
32487SOL     OW 4700   1.899   1.780   1.290  0.0287  0.4741  0.3793
32487SOL    HW1 4701   1.949   1.806   1.368 -0.1010  0.5946  0.4224
32487SOL    HW2 4702   1.957   1.801   1.217 -1.3068  4.0357  0.1690
32488SOL     OW 4703   0.755   8.669   4.509 -0.0139  0.0422 -0.2113
32488SOL    HW1 4704   0.765   8.763   4.521 -0.2548 -0.0644  0.9298
32488SOL    HW2 4705   0.683   8.645   4.567 -0.1203 -0.8073 -0.6787
32489SOL     OW 4706   9.121   1.763   3.799  0.2933 -0.2461 -0.3978
32489SOL    HW1 4707   9.157   1.801   3.719 -2.3555  0.6590 -1.2923
32489SOL    HW2 4708   9.184   1.696   3.825  2.9121  1.7110 -1.2980
32490SOL     OW 4709   9.025   6.261  11.505  0.5560 -0.0312  0.5083
32490SOL    HW1 4710   8.991   6.348  11.528 -1.9509 -0.8296  0.1818
32490SOL    HW2 4711   9.001   6.250  11.413  1.4972 -0.8127  0.3458
32491SOL     OW 4712   5.749   5.613   0.645  0.6238  0.2314  0.1083
32491SOL    HW1 4713   5.697   5.570   0.577 -0.5333 -0.1053  1.1741
32491SOL    HW2 4714   5.685   5.649   0.706  1.6240  0.0006  1.3519
32492SOL     OW 4715  11.637   2.282   1.790  0.3966  0.2606  0.3133
32492SOL    HW1 4716  11.711   2.324   1.746 -0.4716  0.5795 -0.8911
32492SOL    HW2 4717  11.659   2.189   1.790  0.7013  0.3273 -0.2381
32493SOL     OW 4718   5.707   8.009   9.403 -0.1565  0.0912  0.6808
32493SOL    HW1 4719   5.799   7.983   9.398  0.6861  2.4078  2.2021
32493SOL    HW2 4720   5.685   8.037   9.314  0.3408 -1.1858  0.1288
32494SOL     OW 4721   6.505   8.117   6.002  0.2374  0.1653 -0.9320
32494SOL    HW1 4722   6.463   8.095   5.919 -0.5765  1.4355 -0.8758
32494SOL    HW2 4723   6.597   8.132   5.978  0.0650  0.2614 -1.5600
32495SOL     OW 4724   5.732  12.369   5.872 -0.2661  0.1202  0.3297
32495SOL    HW1 4725   5.770  12.437   5.927 -0.5239 -1.3643  2.4632
32495SOL    HW2 4726   5.801  12.302   5.866 -0.5659 -0.1347 -0.4367
32496SOL     OW 4727   1.874   4.061   2.743  0.2626 -0.9035  0.1887
32496SOL    HW1 4728   1.805   4.119   2.710  0.9661  0.4769  1.0841
32496SOL    HW2 4729   1.842   3.973   2.723 -0.6855 -0.2247 -1.4913
32497SOL     OW 4730  10.004   2.293   5.404 -0.1031  0.5973 -0.5410
32497SOL    HW1 4731  10.034   2.298   5.313 -2.1208  0.1180 -1.2822
32497SOL    HW2 4732   9.973   2.381   5.424  0.4150  0.7234 -0.2709
32498SOL     OW 4733   4.969  11.242   8.097  0.1164 -0.1001  0.5731
32498SOL    HW1 4734   4.915  11.256   8.175  0.5309  1.5676  0.5893
32498SOL    HW2 4735   4.918  11.180   8.044 -0.7204 -0.3436  1.6150
32499SOL     OW 4736  12.045   2.653   2.455 -0.1619  0.2531  0.2316
32499SOL    HW1 4737  11.977   2.670   2.521 -0.8755 -0.9790 -0.1513
32499SOL    HW2 4738  12.125   2.685   2.495 -0.8405  1.0021  1.0387
32500SOL     OW 4739   3.683   8.740  12.034 -0.9746 -0.3904  0.2418
32500SOL    HW1 4740   3.659   8.653  12.065  0.8812 -0.7979  0.6558
32500SOL    HW2 4741   3.693   8.730  11.939 -0.3162 -0.7527  0.3452
32501SOL     OW 4742   9.878  11.285   6.155  0.0817 -0.5472 -0.2516
32501SOL    HW1 4743   9.952  11.309   6.099  0.3621 -0.8880 -0.0360
32501SOL    HW2 4744   9.824  11.228   6.100 -0.2320  0.0151 -0.5374
32502SOL     OW 4745   3.643   3.664   9.311 -0.0170  0.4569 -0.1784
32502SOL    HW1 4746   3.571   3.692   9.253  1.1741 -1.2716 -2.6757
32502SOL    HW2 4747   3.609   3.586   9.355  0.3127 -0.4542 -1.4783
32503SOL     OW 4748  11.461   8.460   2.742 -0.2439 -0.1910 -0.0462
32503SOL    HW1 4749  11.419   8.546   2.737 -1.6319 -0.8436 -0.2646
32503SOL    HW2 4750  11.537   8.467   2.684 -1.7526  0.1449 -2.0993
32504SOL     OW 4751   9.288   0.906   5.440  0.3652 -0.5365 -0.3833
32504SOL    HW1 4752   9.193   0.922   5.445 -0.3066 -3.6537 -0.8917
32504SOL    HW2 4753   9.327   0.992   5.452 -2.4728  0.6623  1.4289
32505SOL     OW 4754  11.547  10.370   1.294  0.2311 -0.5702 -0.3067
32505SOL    HW1 4755  11.599  10.341   1.220 -0.0373 -0.1162 -0.6825
32505SOL    HW2 4756  11.562  10.465   1.298  0.8384 -0.6961  0.6872
32506SOL     OW 4757   1.224   3.543   9.670  0.1867  0.5384  0.0887
32506SOL    HW1 4758   1.154   3.594   9.628  0.9830  1.3581 -0.2681
32506SOL    HW2 4759   1.223   3.572   9.761 -1.6325 -1.3387  0.7458
32507SOL     OW 4760   9.386   2.698   4.814 -0.3401 -0.2620  0.1235
32507SOL    HW1 4761   9.308   2.745   4.784 -0.1304 -0.9417 -1.6410
32507SOL    HW2 4762   9.390   2.620   4.758  0.1458 -1.6383  1.9641
32508SOL     OW 4763   3.457   0.293   9.557 -0.4287  0.0237  0.1310
32508SOL    HW1 4764   3.439   0.334   9.642 -0.3967 -0.5549  0.4190
32508SOL    HW2 4765   3.452   0.199   9.574 -0.3050 -0.0969 -0.4843
32509SOL     OW 4766   0.083   2.226   9.618  0.3297 -0.1432  0.7707
32509SOL    HW1 4767   0.022   2.164   9.658 -1.7389  1.8386  0.9559
32509SOL    HW2 4768   0.081   2.302   9.677  1.3337  0.7922 -0.3606
32510SOL     OW 4769   2.367  10.065  11.082  0.3177 -0.2279 -0.1071
32510SOL    HW1 4770   2.438  10.080  11.145 -1.1614 -1.6192  2.0416
32510SOL    HW2 4771   2.349  10.152  11.045  0.5398  0.9061  2.2572
32511SOL     OW 4772   1.690   1.431  11.499 -0.1732 -0.3000 -0.8715
32511SOL    HW1 4773   1.684   1.517  11.542 -2.4410 -0.6206 -0.4439
32511SOL    HW2 4774   1.631   1.438  11.424  0.0758 -1.3008 -1.1673
32512SOL     OW 4775   5.656   9.752   4.690 -0.4412 -0.7591 -0.1522
32512SOL    HW1 4776   5.733   9.701   4.710  1.8851  2.3194 -0.4804
32512SOL    HW2 4777   5.654   9.756   4.594 -0.0509  0.3922 -0.1326
32513SOL     OW 4778   2.303   2.597  12.229  0.0885 -0.2093  0.2402
32513SOL    HW1 4779   2.336   2.594  12.319  1.2966 -0.1884 -0.1804
32513SOL    HW2 4780   2.275   2.688  12.218 -0.6032 -0.3488  0.7686
32514SOL     OW 4781   8.516   7.838   8.646 -0.0844  0.2501  0.2278
32514SOL    HW1 4782   8.607   7.824   8.674  0.3561  0.6463 -0.9351
32514SOL    HW2 4783   8.522   7.912   8.585 -0.8298 -1.2406 -1.7360
32515SOL     OW 4784   9.131   8.414   2.339  0.5013 -0.0787  0.1679
32515SOL    HW1 4785   9.127   8.326   2.376 -0.0432 -0.6573 -1.2032
32515SOL    HW2 4786   9.062   8.462   2.385 -1.9181 -1.4812 -1.7538
32516SOL     OW 4787   7.624  10.612   1.781 -0.0314  0.2678  0.3629
32516SOL    HW1 4788   7.684  10.575   1.717 -0.7426 -0.6699  0.2033
32516SOL    HW2 4789   7.551  10.647   1.729  1.5955  4.0306  0.3170
32517SOL     OW 4790   4.683   6.348   8.383 -0.1552 -0.1448 -0.7078
32517SOL    HW1 4791   4.611   6.327   8.443  0.5723 -1.0751 -0.1338
32517SOL    HW2 4792   4.668   6.439   8.359 -0.1396  0.4427  1.3432
32518SOL     OW 4793   7.782  12.678   3.429 -0.0152  0.1749 -0.2324
32518SOL    HW1 4794   7.807  12.751   3.486  1.1459 -0.5589  0.2338
32518SOL    HW2 4795   7.703  12.709   3.384 -0.6953  0.9478  1.4096
32519SOL     OW 4796   2.128   5.022   5.303  0.1076  0.6455 -0.3268
32519SOL    HW1 4797   2.222   5.030   5.286  0.3901 -2.7139 -0.8962
32519SOL    HW2 4798   2.122   4.956   5.372 -1.8564 -0.6317 -1.6422
32520SOL     OW 4799  11.999   7.823   2.903 -0.0574  0.2687  0.0910
32520SOL    HW1 4800  11.977   7.755   2.839 -0.1794  0.4798 -0.0964
32520SOL    HW2 4801  12.020   7.775   2.983 -0.9136  0.0453  0.1884
32521SOL     OW 4802   8.372   3.811   4.547 -0.8527 -0.1164  0.0000
32521SOL    HW1 4803   8.419   3.751   4.490 -1.2132  0.2273 -0.6712
32521SOL    HW2 4804   8.373   3.769   4.633 -0.3668 -0.6741 -0.2733
32522SOL     OW 4805   7.908   7.396   2.375  0.4641  0.2643 -0.7436
32522SOL    HW1 4806   7.947   7.384   2.288  0.9633 -2.1848 -0.2618
32522SOL    HW2 4807   7.851   7.472   2.365  1.9690  1.2462 -2.6725
32523SOL     OW 4808   1.159   2.574   3.845 -0.8367  0.3657 -0.0060
32523SOL    HW1 4809   1.090   2.617   3.895  1.2755  1.6734  2.0164
32523SOL    HW2 4810   1.206   2.647   3.803  1.0679 -0.1604  1.1147
32524SOL     OW 4811   0.373  12.186  11.876  0.2263 -0.0006 -0.6188
32524SOL    HW1 4812   0.288  12.150  11.852 -0.1768  0.6114 -0.1157
32524SOL    HW2 4813   0.430  12.109  11.883  0.1098 -0.3156 -2.4467
32525SOL     OW 4814   9.980   8.461   5.891 -0.1622 -0.1789  0.6282
32525SOL    HW1 4815  10.008   8.369   5.888 -0.1733 -0.2191  1.4881
32525SOL    HW2 4816   9.920   8.465   5.965 -0.2014  0.5191  0.5630
32526SOL     OW 4817  11.990  10.470   1.609  0.0590  0.0853 -0.1766
32526SOL    HW1 4818  11.957  10.384   1.582 -0.4984  0.4895 -0.7865
32526SOL    HW2 4819  11.912  10.525   1.618  0.4366  0.6136 -0.0687
32527SOL     OW 4820   9.909   5.070   7.261 -0.2553 -0.3835  0.0500
32527SOL    HW1 4821   9.914   5.131   7.188 -3.4720 -0.4852 -0.4154
32527SOL    HW2 4822   9.939   5.121   7.337  0.4284  0.6366 -0.8822
32528SOL     OW 4823   9.623   2.882  12.679 -0.4715 -0.3798  0.1330
32528SOL    HW1 4824   9.628   2.883  12.583 -0.1258  0.6726  0.1560
32528SOL    HW2 4825   9.562   2.811  12.698 -2.4200  0.9018 -0.9741
32529SOL     OW 4826   9.289   4.332   3.568 -0.1537 -0.2113  0.0386
32529SOL    HW1 4827   9.223   4.294   3.510 -1.8463 -1.2820  2.4919
32529SOL    HW2 4828   9.291   4.425   3.545 -0.8655 -0.5517 -1.5541
32530SOL     OW 4829  11.874  12.398   0.870  0.1587 -0.0643 -0.0680
32530SOL    HW1 4830  11.913  12.364   0.951 -3.2733  0.2712  1.9147
32530SOL    HW2 4831  11.895  12.492   0.871 -0.3151  0.0431  0.7589
32531SOL     OW 4832   4.057   2.952  10.672 -0.3078 -0.2301 -0.5033
32531SOL    HW1 4833   3.976   2.913  10.637  0.0893 -1.0644 -0.5122
32531SOL    HW2 4834   4.109   2.973  10.595 -0.7235  0.7747 -0.5163
32532SOL     OW 4835   9.384   2.245   8.951  0.7224 -0.2056 -0.0047
32532SOL    HW1 4836   9.377   2.332   8.913 -1.4806 -0.5147 -0.4377
32532SOL    HW2 4837   9.327   2.247   9.028  3.0588 -0.3927  1.8407
32533SOL     OW 4838   1.965  11.703   0.483 -0.1425  0.0218 -0.3325
32533SOL    HW1 4839   1.874  11.724   0.463  0.8043  2.5250 -2.7362
32533SOL    HW2 4840   1.988  11.763   0.555  0.0177  0.5494 -0.8173
32534SOL     OW 4841  12.124   3.968   9.896 -1.1784  0.1678 -0.4971
32534SOL    HW1 4842  12.032   3.951   9.879 -1.5087  1.9825 -0.7324
32534SOL    HW2 4843  12.124   4.048   9.948  0.2693  0.1654 -0.4555
32535SOL     OW 4844   1.686  10.111   1.695  0.2727  0.1893  0.7361
32535SOL    HW1 4845   1.735  10.047   1.644 -0.3764 -0.9297  1.4866
32535SOL    HW2 4846   1.754  10.165   1.736  0.7976  1.2438 -1.4035
32536SOL     OW 4847  12.385   5.226   4.912 -0.1912  0.0829 -0.0140
32536SOL    HW1 4848  12.460   5.170   4.931 -1.5384 -2.2090 -0.9828
32536SOL    HW2 4849  12.309   5.172   4.934 -1.5812  1.7520 -0.4838
32537SOL     OW 4850   0.902   0.689   3.388 -0.3138 -0.0250 -0.5291
32537SOL    HW1 4851   0.900   0.721   3.478  2.3932 -0.8969 -0.0597
32537SOL    HW2 4852   0.833   0.738   3.344 -1.1111  1.1037  1.7906
32538SOL     OW 4853   7.649   7.892  10.961 -0.2344 -0.0745 -0.2992
32538SOL    HW1 4854   7.693   7.976  10.954 -3.3395  1.6504 -0.9637
32538SOL    HW2 4855   7.643   7.860  10.870 -2.1814  0.8342 -0.5474
32539SOL     OW 4856   0.903   4.025  10.476  0.3266 -0.4280  0.5534
32539SOL    HW1 4857   0.830   3.964  10.465 -1.3600  1.5195  0.4294
32539SOL    HW2 4858   0.869   4.093  10.533  1.4541  1.4310 -0.8695
32540SOL     OW 4859   9.283   3.046   3.961 -0.4618 -0.5996  0.1254
32540SOL    HW1 4860   9.283   3.071   3.869  0.2131 -3.1331 -0.6321
32540SOL    HW2 4861   9.323   3.121   4.006  1.7424 -0.3652 -2.0051
32541SOL     OW 4862   1.725   7.421   2.315 -0.1109  0.0859 -0.0405
32541SOL    HW1 4863   1.761   7.505   2.285 -1.5393  0.5333 -0.5615
32541SOL    HW2 4864   1.739   7.422   2.410 -0.1266  0.9269 -0.0362
32542SOL     OW 4865   1.258  10.037   8.827 -0.0014 -0.2028  0.2690
32542SOL    HW1 4866   1.324  10.088   8.875 -0.3525  1.9256 -1.3480
32542SOL    HW2 4867   1.214   9.986   8.895  1.4936  0.3835  1.7676
32543SOL     OW 4868   3.055  10.096   9.876 -0.8871 -0.4523  0.5379
32543SOL    HW1 4869   2.987  10.092   9.943 -1.8754 -0.0336 -0.4028
32543SOL    HW2 4870   3.010  10.131   9.799  0.9470  2.3753  0.6129
32544SOL     OW 4871   6.029   4.875  11.131  0.6560  0.0375  0.7749
32544SOL    HW1 4872   6.115   4.834  11.142  0.0583 -1.2331  0.8611
32544SOL    HW2 4873   5.967   4.809  11.161 -0.5575 -0.2037 -1.9922
32545SOL     OW 4874   3.635   2.540   7.465 -0.1687 -0.1798  0.0996
32545SOL    HW1 4875   3.697   2.592   7.413 -2.8953  2.7969 -0.5314
32545SOL    HW2 4876   3.649   2.569   7.555 -0.5154  0.3974 -0.0255
32546SOL     OW 4877   7.574   2.762  11.343 -0.2233 -0.2009 -0.0678
32546SOL    HW1 4878   7.482   2.766  11.369 -0.4884 -2.7352 -0.4074
32546SOL    HW2 4879   7.571   2.753  11.248  0.2766 -1.7645  0.0411
32547SOL     OW 4880   3.995  10.052   4.846  0.0333 -0.4889  0.4891
32547SOL    HW1 4881   4.058   9.980   4.842  0.6168 -0.0326  1.1304
32547SOL    HW2 4882   3.992  10.075   4.939  0.3015  0.7151  0.2012
32548SOL     OW 4883   0.547   0.221   6.781  0.3950  0.3489 -0.1783
32548SOL    HW1 4884   0.458   0.223   6.746  0.5922 -0.1113 -0.7090
32548SOL    HW2 4885   0.546   0.149   6.843 -0.0264  1.3246  0.9951
32549SOL     OW 4886  10.908   1.838   4.808  0.2874 -0.1798 -0.2301
32549SOL    HW1 4887  10.988   1.881   4.836 -0.4923 -0.0847  2.0417
32549SOL    HW2 4888  10.922   1.745   4.827 -0.3265 -0.0888  0.7444
32550SOL     OW 4889   7.560  11.941   6.730  0.0491  0.3118 -0.0013
32550SOL    HW1 4890   7.603  12.016   6.773 -2.9131  1.7215  0.7835
32550SOL    HW2 4891   7.611  11.926   6.651  0.2531  3.8668 -0.7023
32551SOL     OW 4892   7.050  12.383  11.388 -0.8656 -0.6756 -0.7595
32551SOL    HW1 4893   7.071  12.457  11.331  1.2895 -1.1728 -0.7176
32551SOL    HW2 4894   7.065  12.306  11.333  1.6799 -1.1830  0.4728
32552SOL     OW 4895   0.831   9.526  10.406 -0.0972 -0.1524 -0.7406
32552SOL    HW1 4896   0.912   9.494  10.368 -0.2616 -0.3624 -0.9123
32552SOL    HW2 4897   0.780   9.447  10.426 -0.1527 -0.0332 -0.4008
32553SOL     OW 4898  10.280   8.024   8.289  0.0921 -0.1745 -0.5600
32553SOL    HW1 4899  10.359   8.072   8.266 -0.0584  0.0771 -0.5515
32553SOL    HW2 4900  10.296   7.991   8.377 -0.5088  1.3614  0.1440
32554SOL     OW 4901   9.583   4.741   6.459  0.1358 -0.3185 -0.1071
32554SOL    HW1 4902   9.662   4.721   6.509 -0.5163 -0.5181  0.8722
32554SOL    HW2 4903   9.614   4.752   6.369  0.8901 -3.5783 -0.3919
32555SOL     OW 4904   9.239   6.622   0.450  0.0891 -0.0881 -0.1672
32555SOL    HW1 4905   9.263   6.686   0.517  0.6442  0.0719 -0.5120
32555SOL    HW2 4906   9.206   6.546   0.499  1.9231 -0.5841  0.3753
32556SOL     OW 4907   6.457   3.099   5.807  0.0498  0.6043  0.0606
32556SOL    HW1 4908   6.435   3.096   5.900 -1.8660 -0.4969 -0.3811
32556SOL    HW2 4909   6.528   3.163   5.801  2.7807 -1.8719  2.7656
32557SOL     OW 4910   5.019   3.403  10.055 -0.1670  0.4226 -0.1446
32557SOL    HW1 4911   4.955   3.343  10.016 -2.6268  2.0047  1.2302
32557SOL    HW2 4912   5.062   3.351  10.123 -0.8902 -0.3096 -0.2326
32558SOL     OW 4913  10.956   2.976   0.810  0.6223 -0.3162  0.0071
32558SOL    HW1 4914  11.012   2.988   0.734  2.4216 -0.2126  1.3039
32558SOL    HW2 4915  11.015   2.982   0.885 -0.9268 -1.4640  1.3830
32559SOL     OW 4916   3.450   7.941   9.197 -0.4354 -0.4440 -0.2687
32559SOL    HW1 4917   3.391   7.995   9.249  1.7184  0.5286  1.2808
32559SOL    HW2 4918   3.456   7.858   9.245  0.1050 -0.2304  0.0378
32560SOL     OW 4919   9.553  12.156   2.546 -0.0327  0.2118 -0.4704
32560SOL    HW1 4920   9.560  12.247   2.576  0.5156  0.0458 -0.0781
32560SOL    HW2 4921   9.470  12.125   2.583  0.6396  0.0009  0.9294
32561SOL     OW 4922   0.383   7.999  12.234  0.3085  0.6192 -0.2168
32561SOL    HW1 4923   0.319   7.960  12.293 -2.2620  2.0167 -1.8621
32561SOL    HW2 4924   0.421   7.925  12.187 -2.8324 -0.1966 -1.7204
32562SOL     OW 4925  11.811   9.361   2.015  0.3534  0.4314 -0.2728
32562SOL    HW1 4926  11.808   9.351   2.110 -0.1651  0.9805 -0.2273
32562SOL    HW2 4927  11.734   9.314   1.984 -0.0071  1.0657 -0.3456
32563SOL     OW 4928   2.228   1.194   4.045 -0.5554  0.0701  0.0613
32563SOL    HW1 4929   2.134   1.201   4.064 -0.7634 -1.9424 -0.0527
32563SOL    HW2 4930   2.247   1.273   3.995 -2.2740  0.3730 -0.1953
32564SOL     OW 4931   2.616   9.933   4.864 -0.3723 -0.5672  0.0675
32564SOL    HW1 4932   2.683   9.893   4.920 -1.2285 -1.1447  0.7027
32564SOL    HW2 4933   2.622  10.027   4.884 -0.7573 -0.7783  1.2532
32565SOL     OW 4934   1.495   9.164  11.594 -0.0553  0.3224 -0.1918
32565SOL    HW1 4935   1.530   9.220  11.663 -0.1960 -0.8122  0.8296
32565SOL    HW2 4936   1.560   9.169  11.524 -0.0797  1.7663 -0.1409
32566SOL     OW 4937   8.634   1.420   4.321 -0.1479  0.0239  0.2230
32566SOL    HW1 4938   8.644   1.432   4.227 -0.6240  0.0449  0.1726
32566SOL    HW2 4939   8.706   1.363   4.346 -1.2753 -1.8232 -0.5320
32567SOL     OW 4940   1.257   3.842  10.077  0.2696  0.1062 -0.4473
32567SOL    HW1 4941   1.171   3.878  10.095  0.6466 -0.8206  4.9926
32567SOL    HW2 4942   1.314   3.918  10.067 -0.6926  0.7448 -1.2359
32568SOL     OW 4943  12.214   9.879   6.894  0.7418 -0.1051 -0.1057
32568SOL    HW1 4944  12.301   9.865   6.856  0.6697 -1.2819  0.1226
32568SOL    HW2 4945  12.172   9.793   6.890 -0.5406  0.5198 -0.5054
32569SOL     OW 4946   9.529  10.656   7.072  0.0450 -0.3447  0.0222
32569SOL    HW1 4947   9.537  10.706   7.153 -1.4900 -0.8041  0.4884
32569SOL    HW2 4948   9.457  10.595   7.088 -1.4745  0.6923 -2.2481
32570SOL     OW 4949   5.761   5.973   0.198  0.0069  0.5889  0.4147
32570SOL    HW1 4950   5.690   5.967   0.262 -0.2257 -0.2660  0.0928
32570SOL    HW2 4951   5.841   5.964   0.250 -0.1406  1.0187  0.7163
32571SOL     OW 4952   3.707  10.938   3.065  0.3683  0.0597  0.3362
32571SOL    HW1 4953   3.788  10.891   3.044  0.1044  0.0429 -0.6573
32571SOL    HW2 4954   3.639  10.871   3.060  0.0211  0.4858 -0.8557
32572SOL     OW 4955  12.431  11.899   4.477 -0.5487  0.1299  0.9625
32572SOL    HW1 4956  12.411  11.867   4.389 -0.2437  0.7458  0.6590
32572SOL    HW2 4957  12.399  11.989   4.478  0.5687  0.5535  1.0469
32573SOL     OW 4958   8.049   8.482   5.465  0.6312 -0.2546  0.3453
32573SOL    HW1 4959   7.973   8.489   5.406  0.3614  1.3632  0.8390
32573SOL    HW2 4960   8.093   8.402   5.437  0.6175  0.5238 -2.2067
32574SOL     OW 4961  10.951   0.429   9.318  1.0871  0.2318 -0.2130
32574SOL    HW1 4962  10.903   0.474   9.249  0.8864  1.2940  0.5719
32574SOL    HW2 4963  10.972   0.343   9.283  1.8291  1.0761 -1.9500
32575SOL     OW 4964   3.763   6.288   5.419 -0.6166  0.3449  0.2157
32575SOL    HW1 4965   3.842   6.299   5.366 -1.1124 -0.1657 -0.6582
32575SOL    HW2 4966   3.758   6.194   5.436 -1.2713  0.3148 -0.1147
32576SOL     OW 4967   0.636   9.170   9.290 -0.1242 -0.2960  0.3969
32576SOL    HW1 4968   0.703   9.113   9.252 -0.7023 -2.0050  1.7893
32576SOL    HW2 4969   0.685   9.235   9.340  0.5938 -2.3514  2.5541
32577SOL     OW 4970   1.780   2.036   2.741 -0.2176  0.3682 -0.1679
32577SOL    HW1 4971   1.816   2.124   2.736  0.7186 -0.0469 -0.9412
32577SOL    HW2 4972   1.731   2.026   2.659 -0.5612  0.2685  0.0490
32578SOL     OW 4973   1.219   6.032   0.901 -0.8040  0.3082  0.1499
32578SOL    HW1 4974   1.147   6.057   0.958 -0.3922  2.0128 -0.0378
32578SOL    HW2 4975   1.297   6.038   0.956 -0.6507 -0.2779  0.0104
32579SOL     OW 4976   6.583   2.190   3.265 -0.6011  0.8106  0.3354
32579SOL    HW1 4977   6.610   2.264   3.210  0.6850 -0.8757 -1.4585
32579SOL    HW2 4978   6.663   2.166   3.312 -1.4262  1.5382  2.1934
32580SOL     OW 4979   5.097   0.406  11.794  0.2435  0.3539  0.2493
32580SOL    HW1 4980   5.042   0.416  11.871  1.2695  0.6832  0.9502
32580SOL    HW2 4981   5.107   0.495  11.759  0.5159  0.3317  0.2653
32581SOL     OW 4982  10.734   9.735   2.904 -0.5308 -0.2378  0.1827
32581SOL    HW1 4983  10.709   9.822   2.933 -1.2399  0.2584 -1.7259
32581SOL    HW2 4984  10.795   9.750   2.832  0.8942 -1.3827  1.1047
32582SOL     OW 4985   1.585   5.583   6.163  0.0036  0.7140 -0.1529
32582SOL    HW1 4986   1.570   5.596   6.069 -2.8482  0.8524  0.2550
32582SOL    HW2 4987   1.615   5.493   6.170  0.1392  0.6670 -1.1728
32583SOL     OW 4988  12.553   6.624   9.234 -0.0001 -0.4049 -0.7101
32583SOL    HW1 4989  12.501   6.594   9.308 -0.0735 -2.2421 -1.4343
32583SOL    HW2 4990  12.537   6.558   9.166 -0.2058  1.3977 -2.4813
32584SOL     OW 4991  12.022  11.006   9.092 -0.7225  0.0672  0.4486
32584SOL    HW1 4992  12.039  10.970   9.005 -0.6709  0.7520  0.1630
32584SOL    HW2 4993  12.028  11.101   9.080 -1.0976  0.1834  1.1211
32585SOL     OW 4994   4.473   6.889   5.111 -0.5425 -0.0040 -0.6175
32585SOL    HW1 4995   4.380   6.904   5.124 -0.5057 -0.4865  0.3428
32585SOL    HW2 4996   4.491   6.807   5.157 -0.1173 -1.2759 -2.8797
32586SOL     OW 4997   9.679   9.588   0.738  0.2117 -0.0985  0.7770
32586SOL    HW1 4998   9.766   9.569   0.702  0.1434  0.1806  0.4628
32586SOL    HW2 4999   9.637   9.502   0.745 -0.1240 -0.0817 -0.6968
32587SOL     OW 5000   5.718  10.802   6.068  0.3111 -0.1610 -0.6542
32587SOL    HW1 5001   5.744  10.886   6.031 -0.1481  1.3244  2.1566
32587SOL    HW2 5002   5.651  10.769   6.008  0.0756  1.7495 -1.5075
32588SOL     OW 5003   5.095  11.388  11.273 -0.1361 -0.9106  0.6038
32588SOL    HW1 5004   5.127  11.321  11.334  1.6683 -0.5362  0.1396
32588SOL    HW2 5005   5.155  11.462  11.285 -0.0118 -0.6493 -1.2596
32589SOL     OW 5006   8.416   7.211   8.748 -0.4259  0.2062 -0.0372
32589SOL    HW1 5007   8.480   7.160   8.700 -1.1129 -0.5625 -0.1512
32589SOL    HW2 5008   8.425   7.183   8.839 -0.8299 -0.1494 -0.1059
32590SOL     OW 5009   8.261   9.284   1.040 -0.5684  0.3066  0.4390
32590SOL    HW1 5010   8.254   9.373   1.005  0.6593  0.2361 -0.0147
32590SOL    HW2 5011   8.298   9.294   1.127 -1.1604  0.2861  0.6988
32591SOL     OW 5012   1.016   8.432  10.083  0.0279  0.0937  0.5420
32591SOL    HW1 5013   1.065   8.364  10.128  2.1856  0.0736 -1.6549
32591SOL    HW2 5014   0.988   8.391  10.001 -0.3304  1.2872  0.0512
32592SOL     OW 5015  12.521   4.575   3.877 -0.3338 -0.0586 -0.0882
32592SOL    HW1 5016  12.553   4.493   3.913 -0.5955 -0.2200 -0.2198
32592SOL    HW2 5017  12.546   4.573   3.784  1.8092  1.0882  0.3983
32593SOL     OW 5018   8.402   8.185   2.024 -0.7020 -0.7046 -0.0788
32593SOL    HW1 5019   8.493   8.166   2.001 -1.0432 -2.9474  0.2033
32593SOL    HW2 5020   8.407   8.219   2.113 -0.2485 -2.6774  0.6952
32594SOL     OW 5021  11.477  11.317   7.288 -0.3293  0.0972  1.0872
32594SOL    HW1 5022  11.478  11.391   7.348 -1.5429  0.2351  0.9594
32594SOL    HW2 5023  11.512  11.351   7.206  0.3453  0.1813  1.4096
32595SOL     OW 5024   3.809   7.434  10.710 -0.0247  0.5658 -0.4299
32595SOL    HW1 5025   3.748   7.465  10.643 -0.1066 -1.7533 -1.5542
32595SOL    HW2 5026   3.764   7.360  10.750  0.7644  0.8263  0.9829
32596SOL     OW 5027   4.261   7.621   2.279 -0.0338  0.3212  0.2119
32596SOL    HW1 5028   4.246   7.650   2.188 -0.1726 -0.0798  0.1046
32596SOL    HW2 5029   4.231   7.530   2.280  0.6522  0.0897  0.4748
32597SOL     OW 5030  10.498  11.508   6.061 -0.1341 -0.0925 -0.1915
32597SOL    HW1 5031  10.425  11.447   6.057  0.1954 -0.4729 -0.4156
32597SOL    HW2 5032  10.576  11.453   6.053  0.2505  0.1299  1.5158
32598SOL     OW 5033   5.881  10.079   4.086  0.3157  0.0477 -0.3436
32598SOL    HW1 5034   5.825  10.076   4.008  1.8466 -1.2676 -1.4555
32598SOL    HW2 5035   5.834  10.028   4.152 -0.8927  0.9917 -0.4332
32599SOL     OW 5036   8.728   4.449   5.419  0.0213 -0.2888 -0.2976
32599SOL    HW1 5037   8.707   4.463   5.512 -0.3397  1.0691 -0.5552
32599SOL    HW2 5038   8.784   4.524   5.396  0.0013 -0.5410 -1.2075
32600SOL     OW 5039   8.884   7.125   7.406  0.2703  0.7978  0.1424
32600SOL    HW1 5040   8.930   7.072   7.471  1.6781  1.4300 -0.2806
32600SOL    HW2 5041   8.807   7.074   7.383  0.5947 -0.1802  1.1173
32601SOL     OW 5042   7.324   6.549   2.897  0.1733  0.3989  0.7399
32601SOL    HW1 5043   7.367   6.607   2.834 -0.5147  0.7107  0.5522
32601SOL    HW2 5044   7.315   6.465   2.851 -0.8786  0.7959  0.1844
32602SOL     OW 5045  10.881  11.335   7.036  0.4396  0.7063  0.4642
32602SOL    HW1 5046  10.864  11.430   7.036  2.0095  1.0138  0.5055
32602SOL    HW2 5047  10.968  11.327   6.999  0.9492 -0.6136  1.8730
32603SOL     OW 5048   5.972  10.061   0.485  0.1261  0.2171 -0.4396
32603SOL    HW1 5049   5.897  10.113   0.457 -0.0139  0.4447  0.3343
32603SOL    HW2 5050   6.024  10.121   0.538  1.3371  0.3330 -1.7033
32604SOL     OW 5051   1.295  11.426   8.376 -0.1395 -0.0461  0.0522
32604SOL    HW1 5052   1.276  11.333   8.386  1.7638 -0.4338  0.3428
32604SOL    HW2 5053   1.298  11.460   8.465  1.4445 -0.2226  0.0943
32605SOL     OW 5054   0.879   4.593   8.054  0.3042  0.3001 -0.3344
32605SOL    HW1 5055   0.954   4.612   7.996 -0.0840 -1.3445 -1.4626
32605SOL    HW2 5056   0.896   4.504   8.086 -1.1369 -0.0859 -0.5799
32606SOL     OW 5057   3.733   1.213   2.786  0.0359  0.0914 -0.4453
32606SOL    HW1 5058   3.710   1.219   2.693  1.8402  1.3337 -0.8772
32606SOL    HW2 5059   3.783   1.132   2.794 -1.4545 -0.8414 -0.1936
32607SOL     OW 5060   8.644   7.840   4.482 -0.0912  0.0820  0.3073
32607SOL    HW1 5061   8.654   7.787   4.403  0.5400  1.4942 -0.5833
32607SOL    HW2 5062   8.560   7.810   4.520 -1.1537  0.3949 -1.6839
32608SOL     OW 5063  11.391  12.604  11.730  0.0164 -0.4353 -0.1039
32608SOL    HW1 5064  11.453  12.543  11.691  0.4625 -0.7015  0.9817
32608SOL    HW2 5065  11.342  12.550  11.793  0.7513  0.4104  1.2275
32609SOL     OW 5066   4.323   5.590   1.269  0.0372 -0.2955  0.0118
32609SOL    HW1 5067   4.287   5.507   1.299  0.3105 -0.6420 -0.6069
32609SOL    HW2 5068   4.262   5.656   1.301  0.5517 -0.6072  1.7040
32610SOL     OW 5069   3.588   8.171   2.718  0.3977 -0.0170 -0.5763
32610SOL    HW1 5070   3.669   8.221   2.711  0.5004 -0.3394 -1.9854
32610SOL    HW2 5071   3.577   8.131   2.632 -2.4027  1.7812 -1.2073
32611SOL     OW 5072  10.265   9.925   2.536  0.0890 -0.1732 -0.6886
32611SOL    HW1 5073  10.280   9.981   2.459 -2.4435  0.1510 -1.0359
32611SOL    HW2 5074  10.181   9.953   2.570  1.1407 -0.3237  2.2803
32612SOL     OW 5075   3.409  12.346   8.509 -0.1239  0.0563  0.3431
32612SOL    HW1 5076   3.440  12.262   8.476  0.0713 -0.0679  0.8404
32612SOL    HW2 5077   3.314  12.344   8.494 -0.2519 -0.6293  1.1805
32613SOL     OW 5078   5.317   9.416   9.413  0.3082 -0.8525 -0.4530
32613SOL    HW1 5079   5.259   9.355   9.458 -0.6853  0.8020  0.6519
32613SOL    HW2 5080   5.261   9.457   9.346  0.7122 -0.5687 -0.6205
32614SOL     OW 5081   0.745   3.018   1.268  0.2055 -0.4329  0.1760
32614SOL    HW1 5082   0.716   3.038   1.357  0.9173 -0.5298  0.4348
32614SOL    HW2 5083   0.712   3.091   1.216  1.3891  0.6263  0.8462
32615SOL     OW 5084   8.629   2.385   8.064  0.2652  0.4959 -0.1919
32615SOL    HW1 5085   8.604   2.293   8.059  0.3204  0.5193 -1.1072
32615SOL    HW2 5086   8.595   2.424   7.983 -0.0086  1.3450  0.3180
32616SOL     OW 5087   0.016   3.063   7.646 -0.1950 -0.3227  0.2034
32616SOL    HW1 5088   0.027   2.984   7.594  0.7907 -0.8552  1.1777
32616SOL    HW2 5089  -0.079   3.078   7.648 -0.2949 -0.7272 -1.0653
32617SOL     OW 5090   2.589  12.224   7.428 -0.4215  0.1228  1.1767
32617SOL    HW1 5091   2.514  12.284   7.426  0.4934  1.2783 -0.9198
32617SOL    HW2 5092   2.653  12.268   7.484  0.0265  0.8705  0.1036
32618SOL     OW 5093  10.869  12.404   2.122  0.2883  0.1088  0.0937
32618SOL    HW1 5094  10.854  12.423   2.029 -0.6055  0.5928  0.3220
32618SOL    HW2 5095  10.803  12.339   2.145  1.4190 -1.0726  0.0589
32619SOL     OW 5096   3.278  12.004   1.997  0.1362  0.5411  0.0928
32619SOL    HW1 5097   3.260  11.997   1.904  2.1268  1.1169 -0.3795
32619SOL    HW2 5098   3.336  11.930   2.016  0.6084  1.0364  0.6238
32620SOL     OW 5099   4.283   5.793   6.047 -0.0350  0.5273  0.3657
32620SOL    HW1 5100   4.199   5.768   6.008  0.1412  0.2548  0.1628
32620SOL    HW2 5101   4.288   5.742   6.128  0.1709  0.1507  0.1186
32621SOL     OW 5102   8.283   9.207   9.625  0.2716  0.0997 -0.5018
32621SOL    HW1 5103   8.353   9.182   9.564  2.1342  2.3735  0.5546
32621SOL    HW2 5104   8.309   9.170   9.709 -0.9679 -0.8424 -0.4948
32622SOL     OW 5105  11.462   8.963   5.729 -0.0171  0.0473 -0.2731
32622SOL    HW1 5106  11.423   8.958   5.641 -0.9232 -0.3993  0.1364
32622SOL    HW2 5107  11.539   8.906   5.724  0.2742  0.4907 -0.9423
32623SOL     OW 5108   0.844  12.077   9.559 -0.2410 -0.6818  0.5917
32623SOL    HW1 5109   0.751  12.055   9.564 -1.0160  2.2225  1.1738
32623SOL    HW2 5110   0.850  12.138   9.485  1.7522 -2.7543 -1.1122
32624SOL     OW 5111  12.141   8.341   5.900 -0.1584  0.3786 -0.4639
32624SOL    HW1 5112  12.170   8.283   5.830 -1.4108 -2.3856  1.1150
32624SOL    HW2 5113  12.047   8.324   5.909 -0.1859  1.2006  1.3791
32625SOL     OW 5114   2.294  10.696   9.336  0.0758 -0.1905  0.2390
32625SOL    HW1 5115   2.254  10.760   9.277  1.7456  0.2345 -0.4909
32625SOL    HW2 5116   2.296  10.615   9.286  3.3555  0.6325 -1.2300
32626SOL     OW 5117   6.109  10.712   6.654 -0.6201  0.0274 -0.4753
32626SOL    HW1 5118   6.015  10.694   6.663 -0.0890 -2.0582  2.4672
32626SOL    HW2 5119   6.128  10.776   6.723  0.1873  0.1074 -0.7576
32627SOL     OW 5120   1.097   0.542   6.393 -0.3892  0.5962  0.1951
32627SOL    HW1 5121   1.133   0.577   6.474 -0.1368  2.3582 -0.6279
32627SOL    HW2 5122   1.011   0.508   6.417 -0.0625  0.5097  1.3075
32628SOL     OW 5123  11.622  10.604   3.732 -0.1054  0.1410 -0.0943
32628SOL    HW1 5124  11.636  10.697   3.716  0.6864  0.3059  1.3662
32628SOL    HW2 5125  11.550  10.600   3.795 -0.5291 -0.2704 -0.5943
32629SOL     OW 5126  11.365   7.965   6.948  0.3149 -0.3264 -0.0264
32629SOL    HW1 5127  11.301   7.894   6.942  0.5137 -0.3805 -3.4108
32629SOL    HW2 5128  11.313   8.044   6.936  0.5013 -0.1199  0.5132
32630SOL     OW 5129   6.926  10.791   6.695  0.0479  0.1344  0.2101
32630SOL    HW1 5130   6.856  10.758   6.751  0.1628 -0.4795  0.0076
32630SOL    HW2 5131   6.883  10.809   6.611  0.4823 -2.3800 -0.6463
32631SOL     OW 5132  11.850   6.460   4.215 -0.0333 -0.1488  0.2278
32631SOL    HW1 5133  11.770   6.471   4.163  0.3917 -0.1796 -0.4438
32631SOL    HW2 5134  11.893   6.545   4.212  0.3777 -0.3659 -0.1201
32632SOL     OW 5135   2.918  10.041   9.258 -0.7499  0.0884  0.2351
32632SOL    HW1 5136   2.838   9.999   9.287 -0.2542 -0.4191  0.8789
32632SOL    HW2 5137   2.907  10.133   9.283 -0.4840 -0.2638  1.7634
32633SOL     OW 5138   0.425  10.550   4.672 -0.3475 -0.4132 -0.3524
32633SOL    HW1 5139   0.345  10.523   4.627 -0.5057  0.9848 -0.9943
32633SOL    HW2 5140   0.426  10.500   4.753 -2.1350 -0.1065 -0.0998
32634SOL     OW 5141   6.016   5.541   6.966 -0.2605 -0.5728 -0.0666
32634SOL    HW1 5142   5.971   5.617   6.930 -0.5879 -1.1830 -0.9982
32634SOL    HW2 5143   6.008   5.474   6.897 -1.1540 -1.8819  1.2622
32635SOL     OW 5144   2.521   0.725   2.696 -0.2461 -0.2731  0.2593
32635SOL    HW1 5145   2.562   0.809   2.674 -2.0869  0.6696  0.1938
32635SOL    HW2 5146   2.569   0.660   2.644 -1.0651  1.2077 -2.5524
32636SOL     OW 5147   5.446   4.900   0.923 -0.2660  0.6590 -0.5412
32636SOL    HW1 5148   5.450   4.942   0.837  1.3281  0.3471 -0.6460
32636SOL    HW2 5149   5.524   4.845   0.927 -0.7173  0.0701  0.8063
32637SOL     OW 5150   4.623   0.781   4.470  0.0273 -0.3942 -0.3154
32637SOL    HW1 5151   4.606   0.783   4.564 -0.2348  2.9377 -0.3383
32637SOL    HW2 5152   4.546   0.737   4.433 -2.4159  2.6037  0.7300
32638SOL     OW 5153   7.640   6.899  11.644  0.9871 -0.0297  0.2416
32638SOL    HW1 5154   7.631   6.916  11.550  1.5374 -0.4485  0.1038
32638SOL    HW2 5155   7.695   6.970  11.676  0.9902 -0.0139  0.2006
32639SOL     OW 5156   7.986   7.377   0.708 -0.6367  0.3879  0.3947
32639SOL    HW1 5157   7.961   7.328   0.630  0.3230  0.8980 -0.2581
32639SOL    HW2 5158   8.036   7.451   0.674  3.2698 -1.4066  1.5711
32640SOL     OW 5159   8.553   9.995   7.697 -0.2069  0.3458 -0.3036
32640SOL    HW1 5160   8.596  10.049   7.631 -1.1123  0.7352 -0.5918
32640SOL    HW2 5161   8.609   9.918   7.705 -0.2073  0.1716 -1.7003
32641SOL     OW 5162   2.089   0.340   7.815  0.0060 -0.2202  0.1003
32641SOL    HW1 5163   1.999   0.346   7.783 -0.4624 -0.8892  1.2128
32641SOL    HW2 5164   2.081   0.304   7.903  1.3489  0.0264  0.3533
32642SOL     OW 5165  11.224  11.187   5.832  0.0334  0.4416  0.0840
32642SOL    HW1 5166  11.238  11.129   5.756  1.8517  0.8941  0.0235
32642SOL    HW2 5167  11.232  11.129   5.908  0.7594  0.4178 -0.0061
32643SOL     OW 5168   3.728   7.755   0.449 -0.7767  0.2167 -0.0065
32643SOL    HW1 5169   3.701   7.833   0.499 -0.9056 -0.1950  0.5735
32643SOL    HW2 5170   3.804   7.722   0.495 -0.5352  0.1720 -0.4343
32644SOL     OW 5171  10.448  12.301   9.897 -0.0070  0.3946  0.2726
32644SOL    HW1 5172  10.528  12.265   9.858  1.5779  2.7379  1.1437
32644SOL    HW2 5173  10.478  12.346   9.976 -2.6031 -0.8858  2.1124
32645SOL     OW 5174   4.761  11.050   9.300  0.5761 -0.3889 -0.2007
32645SOL    HW1 5175   4.810  10.976   9.263  2.8272 -0.0165  1.7571
32645SOL    HW2 5176   4.805  11.128   9.267 -1.2893  0.1423 -1.6087
32646SOL     OW 5177  12.326   4.378  11.328 -0.0032  0.3986 -0.5920
32646SOL    HW1 5178  12.271   4.349  11.256  0.6138 -0.2615 -0.8175
32646SOL    HW2 5179  12.266   4.386  11.403 -0.3726 -0.5187 -0.7740
32647SOL     OW 5180  11.391   9.803   6.365  0.1841 -0.2182  0.3245
32647SOL    HW1 5181  11.396   9.749   6.444 -1.9741 -0.5841  0.2620
32647SOL    HW2 5182  11.317   9.861   6.380 -1.0611 -1.0961 -1.8711
32648SOL     OW 5183   3.977   5.560  11.949  0.2790  0.1751 -0.4003
32648SOL    HW1 5184   4.067   5.549  11.980  1.0605  1.0745 -2.2319
32648SOL    HW2 5185   3.964   5.654  11.945 -0.4904  0.0565 -0.8383
32649SOL     OW 5186   2.112   4.837   8.428  0.7579  0.0556 -0.0253
32649SOL    HW1 5187   2.179   4.830   8.361 -0.0455 -2.1348 -0.6853
32649SOL    HW2 5188   2.093   4.747   8.452 -1.2400  0.6604  0.8652
32650SOL     OW 5189   8.113  10.341   0.557 -0.1612  0.0154 -0.3319
32650SOL    HW1 5190   8.163  10.332   0.475 -1.9753 -2.0299 -1.2907
32650SOL    HW2 5191   8.022  10.348   0.529 -0.6124  3.1308  1.4001
32651SOL     OW 5192   0.243   3.567   7.707  0.2797 -0.3811 -0.0465
32651SOL    HW1 5193   0.282   3.481   7.690  1.9239  0.5495 -1.3826
32651SOL    HW2 5194   0.277   3.622   7.636 -0.2703  1.5031  1.0868
32652SOL     OW 5195   7.863  12.227   5.938 -0.2226  0.1704 -0.0492
32652SOL    HW1 5196   7.908  12.221   5.854  0.1573  2.6041 -0.0821
32652SOL    HW2 5197   7.816  12.310   5.934  1.6609  1.5555  2.9688
32653SOL     OW 5198   5.888   5.060   3.206 -0.1121  0.2441  0.1493
32653SOL    HW1 5199   5.934   5.065   3.290 -0.7623  1.1957  0.4544
32653SOL    HW2 5200   5.884   5.150   3.175  0.0235 -0.0876 -0.8582
32654SOL     OW 5201   4.426   0.899   0.200  0.0445 -0.0831 -0.5639
32654SOL    HW1 5202   4.363   0.848   0.150 -2.5811 -0.2899  2.6217
32654SOL    HW2 5203   4.422   0.987   0.162 -1.4525 -0.3403 -1.0490
32655SOL     OW 5204   3.139   9.872   5.939 -0.0780 -0.1795  0.3910
32655SOL    HW1 5205   3.116   9.841   5.851 -0.7887  1.9204 -0.2200
32655SOL    HW2 5206   3.060   9.858   5.991  0.4200 -1.6489  0.8095
32656SOL     OW 5207  10.414  11.086   2.460 -0.0656 -0.1196  0.1853
32656SOL    HW1 5208  10.389  11.040   2.379  1.3470 -0.2153 -0.2117
32656SOL    HW2 5209  10.417  11.017   2.526  2.3800 -0.7341 -0.4775
32657SOL     OW 5210   3.461  11.923   6.310 -0.1862  0.4213 -0.0513
32657SOL    HW1 5211   3.389  11.984   6.325 -0.1225  1.4969 -3.4602
32657SOL    HW2 5212   3.420  11.846   6.271  0.0524 -0.8867  2.0795
32658SOL     OW 5213   8.172   3.489   0.624 -0.6928 -0.0363 -0.3322
32658SOL    HW1 5214   8.129   3.452   0.701 -0.8449  0.6965 -0.0503
32658SOL    HW2 5215   8.101   3.526   0.571 -0.6162 -0.8017 -0.9785
32659SOL     OW 5216   1.002   9.132   4.747  0.2290  0.5184  0.0027
32659SOL    HW1 5217   1.083   9.093   4.713  1.0156  1.3767  0.8076
32659SOL    HW2 5218   0.982   9.203   4.686  1.9225  2.3884  1.4679
32660SOL     OW 5219   6.525   4.303   3.820  0.0640  0.8429  0.3250
32660SOL    HW1 5220   6.582   4.336   3.750  0.0333  1.0695  0.4062
32660SOL    HW2 5221   6.448   4.360   3.816  0.9187  2.1707  1.8642
32661SOL     OW 5222  11.330   1.246   9.539  0.7037 -0.2973 -0.1966
32661SOL    HW1 5223  11.257   1.187   9.521  0.5936  0.0267 -0.8426
32661SOL    HW2 5224  11.299   1.303   9.609 -0.0467  0.4826 -1.1193
32662SOL     OW 5225   2.256   4.252   4.158  0.2278 -0.5793 -0.3969
32662SOL    HW1 5226   2.212   4.289   4.235  0.5514  0.4670 -0.6972
32662SOL    HW2 5227   2.263   4.326   4.097  0.2911 -1.3071 -1.2916
32663SOL     OW 5228  11.230   6.374   2.140  0.2410  0.3142 -0.2578
32663SOL    HW1 5229  11.292   6.340   2.205 -0.2644 -1.3672 -0.5897
32663SOL    HW2 5230  11.196   6.295   2.097 -0.1660  1.3344 -1.8894
32664SOL     OW 5231   1.720   7.828   7.753  0.2154  0.3839 -0.0264
32664SOL    HW1 5232   1.705   7.917   7.787  1.0364  1.5720 -2.5034
32664SOL    HW2 5233   1.668   7.824   7.674  2.1839 -0.3734 -1.3639
32665SOL     OW 5234  11.107  12.100  12.543 -0.2648 -0.4634  0.0417
32665SOL    HW1 5235  11.199  12.100  12.515  0.2104 -1.5121  1.5129
32665SOL    HW2 5236  11.067  12.171  12.492  1.9399  1.7943  1.2208
32666SOL     OW 5237   1.792  11.330   1.679  0.1044  0.2316  0.2537
32666SOL    HW1 5238   1.734  11.393   1.720 -0.8279 -1.4795  1.7361
32666SOL    HW2 5239   1.807  11.364   1.591 -1.4224  1.7946  0.5468
32667SOL     OW 5240   3.428   7.253   1.526 -0.0327 -0.1842 -0.3280
32667SOL    HW1 5241   3.425   7.168   1.481  0.9022  0.5263 -1.8002
32667SOL    HW2 5242   3.514   7.289   1.503  0.7293  0.0160  2.4935
32668SOL     OW 5243   9.746  12.580   3.332 -0.2264 -0.1838  0.4026
32668SOL    HW1 5244   9.830  12.569   3.377 -0.0102  0.8086  0.2681
32668SOL    HW2 5245   9.705  12.655   3.376 -1.2255 -0.9012  0.7247
32669SOL     OW 5246  11.637   5.106  10.289 -0.0607  0.6219  0.6574
32669SOL    HW1 5247  11.562   5.084  10.343  0.3815 -0.9740  0.7019
32669SOL    HW2 5248  11.712   5.107  10.349  0.1435  0.8472  0.4051
32670SOL     OW 5249  10.572   2.708   7.183 -1.0271 -0.0634  0.1750
32670SOL    HW1 5250  10.630   2.783   7.197 -1.2002 -0.0758  0.9997
32670SOL    HW2 5251  10.529   2.727   7.099 -0.6110  0.4568  0.0710
32671SOL     OW 5252   0.522   9.439  11.474 -0.2993  0.2988 -0.6654
32671SOL    HW1 5253   0.612   9.404  11.476 -0.9883 -1.6544 -1.4654
32671SOL    HW2 5254   0.524   9.504  11.404  0.7251  1.0022 -0.0096
32672SOL     OW 5255   2.401   3.422   4.775  0.0075  0.2807 -0.7568
32672SOL    HW1 5256   2.399   3.350   4.838 -1.6183  1.0550  0.1701
32672SOL    HW2 5257   2.486   3.463   4.788  0.4445 -0.7015 -0.4096
32673SOL     OW 5258  11.920   3.358   8.683 -0.0651  0.0650  0.3883
32673SOL    HW1 5259  12.015   3.361   8.694  0.0831  0.4199 -0.8676
32673SOL    HW2 5260  11.886   3.355   8.772  1.1309 -0.3578  0.8531
32674SOL     OW 5261  10.623   0.619   9.682  0.2477 -0.9908  0.1261
32674SOL    HW1 5262  10.628   0.613   9.587 -0.2374 -2.6966  0.1757
32674SOL    HW2 5263  10.606   0.529   9.711  0.5621 -0.5329  1.8381
32675SOL     OW 5264   4.970   3.024   6.821 -0.1231  0.6236 -0.1742
32675SOL    HW1 5265   5.062   3.007   6.802 -0.2195 -2.6237  1.5979
32675SOL    HW2 5266   4.971   3.097   6.882  1.2051  1.0198 -0.6278
32676SOL     OW 5267   1.300   8.450   5.256  0.6314  0.4882  0.1313
32676SOL    HW1 5268   1.390   8.421   5.270  0.1569 -1.4160 -0.4574
32676SOL    HW2 5269   1.294   8.467   5.162  0.4920  1.0928  0.2439
32677SOL     OW 5270   5.259  10.469   0.631 -0.1059  0.0636 -0.3386
32677SOL    HW1 5271   5.275  10.374   0.625 -1.2024 -0.2550  1.3536
32677SOL    HW2 5272   5.180  10.477   0.684  0.2949  1.9586  0.0260
32678SOL     OW 5273   1.125   9.359  10.244  0.1050  0.0250 -0.5506
32678SOL    HW1 5274   1.127   9.340  10.338  0.5816  0.0377 -0.5523
32678SOL    HW2 5275   1.054   9.304  10.210  0.6527 -0.8342 -0.3525
32679SOL     OW 5276   4.039  12.581   9.059  0.0263  0.3073  0.2488
32679SOL    HW1 5277   4.086  12.554   9.138 -0.5149  3.3583  1.7551
32679SOL    HW2 5278   4.018  12.498   9.015  2.5138 -1.4089  1.9522
32680SOL     OW 5279   0.933   5.378  11.902  0.2138  0.3266  0.2598
32680SOL    HW1 5280   0.919   5.441  11.973 -0.4107  0.0894  0.3600
32680SOL    HW2 5281   1.026   5.356  11.908  0.6628  1.9170 -0.3692
32681SOL     OW 5282   6.997   9.045   5.679  0.7472  0.1261 -0.0535
32681SOL    HW1 5283   7.070   9.010   5.730  1.1888  0.5275 -0.3850
32681SOL    HW2 5284   7.030   9.130   5.647  0.1801  0.2521 -0.3148
32682SOL     OW 5285   5.661   0.426   7.187  0.1365  0.1222  0.6213
32682SOL    HW1 5286   5.649   0.511   7.231  0.2600  0.2165  0.4756
32682SOL    HW2 5287   5.706   0.448   7.106 -0.2993 -0.0224  0.3377
32683SOL     OW 5288   8.030  11.903   3.824  0.1014 -0.1285 -0.3244
32683SOL    HW1 5289   8.051  11.983   3.871  0.3357  0.9706 -2.1718
32683SOL    HW2 5290   8.053  11.832   3.884  2.0766  1.1460  0.5162
32684SOL     OW 5291   3.272  10.505  10.155 -0.1054 -0.0300 -0.3762
32684SOL    HW1 5292   3.366  10.510  10.138 -0.1084 -0.4373 -0.5383
32684SOL    HW2 5293   3.232  10.500  10.068 -0.3852  1.5632 -0.3664
32685SOL     OW 5294   6.885   4.354   0.237 -0.1819 -0.1085  0.2305
32685SOL    HW1 5295   6.827   4.308   0.298  0.4115  0.1757  1.0406
32685SOL    HW2 5296   6.973   4.325   0.262  0.1267  0.6553  0.0653
32686SOL     OW 5297   9.162  10.175  12.704 -0.4913 -0.0192 -0.0749
32686SOL    HW1 5298   9.168  10.232  12.780  1.0825  0.4927 -0.5363
32686SOL    HW2 5299   9.134  10.090  12.739  1.8155 -0.2650  1.3574
32687SOL     OW 5300   4.974   9.014   2.272 -0.0184  0.1971  0.1682
32687SOL    HW1 5301   4.924   8.945   2.315 -0.7761  0.4318 -0.3135
32687SOL    HW2 5302   4.919   9.040   2.198  0.7689  0.5482 -0.2944
32688SOL     OW 5303   3.442  11.205  12.347 -0.1317  0.0714  0.2135
32688SOL    HW1 5304   3.388  11.265  12.400 -0.8540 -0.4028  0.0356
32688SOL    HW2 5305   3.404  11.210  12.259 -0.0927 -0.5122  0.1588
32689SOL     OW 5306   5.126   1.171   4.921 -0.2647  0.0851 -0.0774
32689SOL    HW1 5307   5.086   1.246   4.876  2.1815  1.9895  0.6555
32689SOL    HW2 5308   5.108   1.097   4.863 -2.6921  1.1990 -0.9244
32690SOL     OW 5309   5.791   8.703   7.206  0.0617  0.3087  0.5457
32690SOL    HW1 5310   5.776   8.745   7.121  1.7449 -1.2806 -0.6057
32690SOL    HW2 5311   5.716   8.730   7.259 -1.4376  0.7685 -1.6528
32691SOL     OW 5312   8.329   4.178  11.318  0.5269  0.2052 -0.0376
32691SOL    HW1 5313   8.368   4.111  11.374  0.3659  2.2832  2.8097
32691SOL    HW2 5314   8.237   4.152  11.311  0.7482 -0.5821 -0.1170
32692SOL     OW 5315   3.513   9.864   3.162 -0.6809  0.0364  0.7685
32692SOL    HW1 5316   3.517   9.788   3.220 -3.2180 -0.0704  0.9297
32692SOL    HW2 5317   3.448   9.840   3.095  1.0864  0.7311 -1.2973
32693SOL     OW 5318   5.239  11.220   8.141  0.4372 -0.3706 -0.3474
32693SOL    HW1 5319   5.151  11.229   8.106 -0.3141 -0.2234  1.4709
32693SOL    HW2 5320   5.286  11.168   8.075 -0.9640 -0.3689 -1.3912
32694SOL     OW 5321   3.445   6.726   6.543 -0.2958  0.0943  0.4728
32694SOL    HW1 5322   3.536   6.745   6.520 -0.1463 -0.4294  0.6221
32694SOL    HW2 5323   3.437   6.752   6.634  0.0319 -0.9340  0.8130
32695SOL     OW 5324  10.077   3.172   3.383  0.3559  0.0364 -0.4022
32695SOL    HW1 5325  10.153   3.181   3.326  0.1107  0.0531 -0.7272
32695SOL    HW2 5326  10.061   3.078   3.388 -1.4076  0.1111 -2.7554
32696SOL     OW 5327   9.264   2.094   8.459 -0.4666  0.1607 -0.2308
32696SOL    HW1 5328   9.339   2.035   8.451 -1.2602 -0.9315  0.0823
32696SOL    HW2 5329   9.268   2.128   8.548  0.5058  1.3333 -0.6945
32697SOL     OW 5330   6.076   8.606   0.150 -0.6056  0.0507  0.3353
32697SOL    HW1 5331   6.150   8.544   0.150  1.4911  2.3802 -0.4511
32697SOL    HW2 5332   6.000   8.551   0.167  0.8311 -3.0673 -2.0304
32698SOL     OW 5333   4.499  11.096   4.072 -0.8378  0.2049 -0.3684
32698SOL    HW1 5334   4.563  11.057   4.013 -0.1127 -0.8853  1.0606
32698SOL    HW2 5335   4.420  11.104   4.019  0.2700  0.9498 -1.9707
32699SOL     OW 5336   7.655   4.204   0.552 -0.0883  0.4863 -0.1838
32699SOL    HW1 5337   7.585   4.193   0.616  0.2755 -1.4576 -0.0573
32699SOL    HW2 5338   7.732   4.228   0.604 -0.3645  1.4524 -0.1988
32700SOL     OW 5339  10.229   6.073   6.552  0.1288  0.7952  0.4127
32700SOL    HW1 5340  10.238   6.158   6.594  1.0653  0.6109  0.6115
32700SOL    HW2 5341  10.189   6.092   6.467  0.2385  1.4251  0.4963
32701SOL     OW 5342   6.801   3.445   5.973 -0.2311 -0.4246 -0.7821
32701SOL    HW1 5343   6.836   3.445   6.062  0.4403 -1.1631 -1.0315
32701SOL    HW2 5344   6.874   3.473   5.918  0.4160 -3.0363 -1.4397
32702SOL     OW 5345  11.798   2.547   9.834  0.0945  0.0195  0.2780
32702SOL    HW1 5346  11.738   2.498   9.777  0.4663 -0.2403  0.1020
32702SOL    HW2 5347  11.833   2.616   9.777  0.3218 -0.1231  0.2433
32703SOL     OW 5348   3.569  10.219  10.175  0.4246 -0.3554  0.1054
32703SOL    HW1 5349   3.658  10.187  10.166  0.8269  0.5077  0.7815
32703SOL    HW2 5350   3.544  10.196  10.264  0.4805  0.5735  0.3771
32704SOL     OW 5351   1.548   8.451  10.525  0.0858 -0.5219 -0.4916
32704SOL    HW1 5352   1.624   8.394  10.538  1.2862  1.0990  0.0765
32704SOL    HW2 5353   1.517   8.470  10.614  1.5412  1.9682 -0.4285
32705SOL     OW 5354   2.665   9.943  11.844 -0.3760 -0.5496  0.2558
32705SOL    HW1 5355   2.677  10.006  11.915  3.5777 -1.2313  0.4456
32705SOL    HW2 5356   2.674   9.994  11.764  2.3388 -0.6340  0.4060
32706SOL     OW 5357   0.246   4.546   1.159  0.0305  0.0154 -0.5188
32706SOL    HW1 5358   0.305   4.508   1.224  1.2208  0.4014 -1.3483
32706SOL    HW2 5359   0.303   4.595   1.101 -1.1880  0.9271 -0.9845
32707SOL     OW 5360   5.815   5.912   2.979  0.0418 -0.0003  0.6118
32707SOL    HW1 5361   5.798   5.961   2.899 -0.0863 -1.6824 -0.4353
32707SOL    HW2 5362   5.737   5.858   2.991  0.6740 -0.8489  1.0354
32708SOL     OW 5363   5.836  11.199   3.143  0.5876 -0.0837  0.3280
32708SOL    HW1 5364   5.861  11.194   3.051 -0.2765 -0.7120  0.1280
32708SOL    HW2 5365   5.913  11.238   3.186  0.8986  0.4551 -0.6844
32709SOL     OW 5366  10.403   3.838   3.871 -0.2487  0.5813  0.4065
32709SOL    HW1 5367  10.352   3.839   3.952 -0.0446 -0.0023  0.5534
32709SOL    HW2 5368  10.398   3.927   3.838  0.9943  1.2556  1.9051
32710SOL     OW 5369   7.680   9.792   7.861  0.1655  0.0081  0.5995
32710SOL    HW1 5370   7.747   9.728   7.884 -0.6290 -1.0803 -0.0052
32710SOL    HW2 5371   7.653   9.767   7.772 -1.3595  0.1039  1.0059
32711SOL     OW 5372   8.696   8.776  10.183 -0.3591  0.1416 -0.0107
32711SOL    HW1 5373   8.705   8.756  10.276  0.5637 -1.2847 -0.3767
32711SOL    HW2 5374   8.663   8.866  10.181 -1.5264 -0.2014  1.6897
32712SOL     OW 5375  12.069   5.671   2.834 -0.1092  0.1741 -0.2512
32712SOL    HW1 5376  12.087   5.578   2.847 -0.0930  0.2927  0.6397
32712SOL    HW2 5377  11.982   5.673   2.793 -0.9150 -0.1969  1.3401
32713SOL     OW 5378   5.068   8.049   8.043 -0.0267 -0.2912  0.0624
32713SOL    HW1 5379   5.160   8.063   8.018 -0.0803 -0.4384 -0.2141
32713SOL    HW2 5380   5.067   8.065   8.138  0.4060 -0.8763  0.1704
32714SOL     OW 5381   3.715   2.705   4.883  0.1777  0.0170  0.4842
32714SOL    HW1 5382   3.765   2.661   4.814  0.4346  1.3686 -0.2348
32714SOL    HW2 5383   3.717   2.797   4.858 -0.8059  0.3752  1.6418
32715SOL     OW 5384   3.143   9.714  10.309 -0.6158  0.5550 -0.0597
32715SOL    HW1 5385   3.151   9.662  10.229  0.6601  1.7740 -0.7690
32715SOL    HW2 5386   3.060   9.760  10.299 -0.4582  0.7137 -0.7141
32716SOL     OW 5387   6.942   1.243   7.020 -0.1424  0.3367  0.0099
32716SOL    HW1 5388   6.980   1.202   7.097 -1.0910  0.7572  0.7111
32716SOL    HW2 5389   6.946   1.337   7.039 -0.6892  0.4245 -0.3076
32717SOL     OW 5390  11.860   1.807   4.166  0.1370  0.2259  0.3575
32717SOL    HW1 5391  11.849   1.902   4.165  0.2919  0.2422  0.1270
32717SOL    HW2 5392  11.866   1.784   4.258 -1.4085  0.2705  0.4975
32718SOL     OW 5393   6.316  12.254   4.435  0.1017  0.1287  0.3942
32718SOL    HW1 5394   6.254  12.300   4.492  1.2188  0.5629  1.2841
32718SOL    HW2 5395   6.291  12.162   4.443  1.5579 -0.1203  3.3601
32719SOL     OW 5396  11.968   6.620   3.156 -0.2455 -0.0252 -0.0270
32719SOL    HW1 5397  12.044   6.562   3.145 -1.0218 -0.8314 -1.3273
32719SOL    HW2 5398  11.966   6.639   3.250 -0.6385 -3.0756  0.6808
32720SOL     OW 5399   2.622  11.773   1.297 -0.1090  0.1245  0.0819
32720SOL    HW1 5400   2.576  11.857   1.290  0.1525  0.3104  0.5451
32720SOL    HW2 5401   2.645  11.751   1.207  0.0594  0.6858 -0.0181
32721SOL     OW 5402   0.880   6.904   8.995  0.3262 -0.4889  0.2864
32721SOL    HW1 5403   0.881   6.991   9.034 -0.0471 -1.6262  3.0706
32721SOL    HW2 5404   0.792   6.896   8.957  0.9424  0.9072 -1.5875
32722SOL     OW 5405   0.062   2.566   7.173  0.6842  0.4067 -0.1435
32722SOL    HW1 5406   0.059   2.483   7.219 -2.7548  0.0505 -0.7530
32722SOL    HW2 5407   0.125   2.552   7.102 -0.3884 -1.9934 -0.7148
32723SOL     OW 5408  10.867   6.482   8.346 -1.0519  0.3635  0.4964
32723SOL    HW1 5409  10.921   6.493   8.424 -1.6655  0.3009  0.9366
32723SOL    HW2 5410  10.929   6.478   8.274 -0.4610  0.1135  1.0154
32724SOL     OW 5411   8.735   9.798   1.066 -0.0926 -0.1233 -0.0562
32724SOL    HW1 5412   8.742   9.848   0.984 -0.6815 -0.3009 -0.2167
32724SOL    HW2 5413   8.818   9.749   1.070 -0.4714 -0.8951 -1.0739
32725SOL     OW 5414   0.562   4.315   6.631  0.1161  0.0198 -0.4522
32725SOL    HW1 5415   0.495   4.365   6.585  0.9720  0.1483 -1.6009
32725SOL    HW2 5416   0.592   4.374   6.701 -1.0835 -0.1178  0.2112
32726SOL     OW 5417   6.344   4.822   1.869 -0.4724  0.3155  0.3758
32726SOL    HW1 5418   6.346   4.876   1.790 -1.9242  0.8538  0.6795
32726SOL    HW2 5419   6.432   4.785   1.875  0.5247  2.4388  0.0091
32727SOL     OW 5420   7.216   0.938   6.156  0.3538  0.3675 -0.0454
32727SOL    HW1 5421   7.172   0.903   6.234  1.1198  0.1932  0.3137
32727SOL    HW2 5422   7.174   0.893   6.083 -0.4434  0.6003  0.2513
32728SOL     OW 5423   4.033  12.552   2.412 -0.4528 -0.8090  0.1401
32728SOL    HW1 5424   4.059  12.612   2.482 -0.2018 -1.6481  0.7890
32728SOL    HW2 5425   3.982  12.484   2.456 -1.5043 -0.6070 -0.7187
32729SOL     OW 5426   2.458  12.338   8.614  0.1552  0.0265  0.2955
32729SOL    HW1 5427   2.484  12.336   8.523  0.5265 -1.7363  0.4124
32729SOL    HW2 5428   2.363  12.353   8.612  0.2352  0.4797 -0.3331
32730SOL     OW 5429  11.411   9.688   6.611 -0.0684  0.6019 -0.1061
32730SOL    HW1 5430  11.325   9.646   6.609  0.6672 -0.9970 -0.0869
32730SOL    HW2 5431  11.405   9.751   6.682 -0.2732 -1.8101  2.2054
32731SOL     OW 5432   8.928   1.741   6.568  0.1779 -0.2632 -0.2436
32731SOL    HW1 5433   8.845   1.778   6.598 -1.4086 -2.8104 -1.2511
32731SOL    HW2 5434   8.987   1.751   6.643 -1.5626 -0.0792  1.1581
32732SOL     OW 5435   5.990   7.592   1.635  0.3751 -0.3671  0.2190
32732SOL    HW1 5436   5.988   7.637   1.551  0.7064  0.6228  0.7280
32732SOL    HW2 5437   5.903   7.606   1.672  0.6366  0.3170  0.6004
32733SOL     OW 5438  11.108   8.717   5.475 -0.4902  0.1088 -0.0489
32733SOL    HW1 5439  11.098   8.768   5.394  1.1087 -1.8258 -1.5743
32733SOL    HW2 5440  11.072   8.631   5.452  2.3787 -1.3031  0.3396
32734SOL     OW 5441   0.691  12.503   7.566 -0.3435 -0.2267 -0.1764
32734SOL    HW1 5442   0.607  12.543   7.589  0.1838  1.0824 -0.4365
32734SOL    HW2 5443   0.741  12.574   7.526  0.5886 -1.1962 -0.7842
32735SOL     OW 5444   4.919   3.772   6.155 -0.0668  0.0684 -0.4950
32735SOL    HW1 5445   5.002   3.726   6.164  0.1512  0.8519  3.5905
32735SOL    HW2 5446   4.853   3.703   6.154  0.5165 -0.4874 -0.7270
32736SOL     OW 5447   2.216  10.330   6.935 -0.2614  0.3290 -0.2109
32736SOL    HW1 5448   2.214  10.255   6.877 -1.0123  0.5663 -0.5064
32736SOL    HW2 5449   2.136  10.379   6.915  0.2084  1.2061 -0.0249
32737SOL     OW 5450   6.659   9.293   6.240  0.0364 -0.0167  0.0031
32737SOL    HW1 5451   6.663   9.316   6.332 -0.6198  0.6335 -0.1255
32737SOL    HW2 5452   6.746   9.316   6.206  0.2583 -0.2029  0.4417
32738SOL     OW 5453   1.345  10.672   5.115 -0.0609  0.2354 -0.1853
32738SOL    HW1 5454   1.354  10.713   5.029 -1.2961  1.4540  0.2165
32738SOL    HW2 5455   1.394  10.730   5.174  1.6853 -1.1693 -0.1790
32739SOL     OW 5456  11.823   3.057  11.604  0.0129 -0.1746 -0.8664
32739SOL    HW1 5457  11.810   2.976  11.556  0.8272 -0.2717 -0.9396
32739SOL    HW2 5458  11.914   3.081  11.587  0.4703 -0.4247  0.9417
32740SOL     OW 5459   0.117  11.578   0.102  0.0261  0.0130 -0.1261
32740SOL    HW1 5460   0.039  11.631   0.115  0.0171 -0.0420  0.0491
32740SOL    HW2 5461   0.189  11.630   0.138  0.3233  0.7791 -1.7476
32741SOL     OW 5462   0.111   1.206   4.074 -0.4703  0.1750  0.5724
32741SOL    HW1 5463   0.112   1.301   4.084 -1.4469  0.1090  1.4100
32741SOL    HW2 5464   0.187   1.175   4.123 -0.9023  0.4304  1.4101
32742SOL     OW 5465   5.929   1.545   6.578 -0.4222 -0.1674 -0.3359
32742SOL    HW1 5466   5.838   1.566   6.556  0.3691  1.2622 -2.6460
32742SOL    HW2 5467   5.963   1.624   6.619 -0.1894 -0.7023  0.5346
32743SOL     OW 5468   0.143   7.326   4.488  0.0389  0.1678 -0.3127
32743SOL    HW1 5469   0.219   7.269   4.492  0.3181  0.5464 -0.1350
32743SOL    HW2 5470   0.152   7.384   4.564 -0.8227 -0.2726  0.1442
32744SOL     OW 5471   3.220  11.805  11.356 -0.7428 -0.2051  0.2374
32744SOL    HW1 5472   3.213  11.751  11.277 -1.9565 -0.1548  0.2894
32744SOL    HW2 5473   3.133  11.843  11.367 -0.2008  0.9294  0.8038
32745SOL     OW 5474   1.919   5.723   0.584  0.2525 -0.1206  0.0443
32745SOL    HW1 5475   1.922   5.652   0.647 -1.1723  1.5811  2.1546
32745SOL    HW2 5476   2.008   5.727   0.548  1.3555 -0.6627  2.5183
32746SOL     OW 5477  11.586  12.403   9.929  0.2051  0.1567 -0.0513
32746SOL    HW1 5478  11.513  12.435   9.982 -0.3774  0.2467 -0.8772
32746SOL    HW2 5479  11.651  12.373   9.992 -0.3407  0.5422  0.7058
32747SOL     OW 5480   2.401   7.335   4.142  0.0569 -0.9453  0.3611
32747SOL    HW1 5481   2.374   7.353   4.232 -0.7162 -0.4934  0.0434
32747SOL    HW2 5482   2.330   7.370   4.088 -0.8034 -3.5678 -0.3567
32748SOL     OW 5483   4.330   0.165   5.896  0.1887  0.0030  0.2474
32748SOL    HW1 5484   4.411   0.120   5.919 -0.6837 -1.2809  0.8936
32748SOL    HW2 5485   4.288   0.184   5.979 -1.6170 -2.0886 -0.1210
32749SOL     OW 5486   1.287  11.993   0.661 -0.6688 -0.2896 -0.2132
32749SOL    HW1 5487   1.209  11.966   0.612 -0.9641 -1.2369  0.7581
32749SOL    HW2 5488   1.347  11.919   0.654 -0.0915  0.1894 -0.4280
32750SOL     OW 5489  11.123   0.418  11.416 -0.3582 -0.2464  0.1109
32750SOL    HW1 5490  11.111   0.360  11.340 -1.7985 -0.7517  0.7008
32750SOL    HW2 5491  11.191   0.375  11.468 -0.8323 -0.9784  0.1335
32751SOL     OW 5492   1.838   5.006   0.756  0.0077  0.4061  0.2411
32751SOL    HW1 5493   1.855   5.041   0.668  1.7864 -1.4171 -0.1986
32751SOL    HW2 5494   1.914   5.031   0.807  0.4951 -1.2366  0.3785
32752SOL     OW 5495  11.948  11.134   1.977  0.1763 -0.4492  0.0404
32752SOL    HW1 5496  11.886  11.130   2.050  0.5499  1.7074  0.5124
32752SOL    HW2 5497  12.023  11.182   2.010  0.9697 -0.6534 -1.3556
32753SOL     OW 5498   3.951   7.055  11.210  0.0892 -0.3911 -0.3817
32753SOL    HW1 5499   3.885   7.103  11.160  0.3459 -0.9705 -1.2896
32753SOL    HW2 5500   3.901   6.992  11.262 -0.1764  0.2056  0.0988
32754SOL     OW 5501   6.749   0.967  10.557 -0.5788  0.4394  0.5799
32754SOL    HW1 5502   6.818   0.979  10.621 -0.1563  0.6654  0.0868
32754SOL    HW2 5503   6.786   0.908  10.492 -1.6229 -1.2810  1.4631
32755SOL     OW 5504   4.195   9.297   9.179  0.0397  0.5783 -0.3101
32755SOL    HW1 5505   4.280   9.335   9.159 -0.3759  2.3029  0.9848
32755SOL    HW2 5506   4.147   9.367   9.224 -0.9981 -1.2690  1.6210
32756SOL     OW 5507   5.999   2.326   2.508 -0.2930  0.1167  0.4374
32756SOL    HW1 5508   6.040   2.361   2.429  1.8539  0.1302  1.4663
32756SOL    HW2 5509   5.944   2.254   2.477  1.5076 -0.7371 -0.9934
32757SOL     OW 5510   1.840  11.659   8.324 -0.2740 -0.0944  0.0256
32757SOL    HW1 5511   1.925  11.703   8.316 -0.7493  0.7816 -0.1973
32757SOL    HW2 5512   1.857  11.586   8.384  0.1943  1.1917  1.4934
32758SOL     OW 5513   2.494   4.822   5.319  0.1214  0.0143 -0.1370
32758SOL    HW1 5514   2.446   4.792   5.242 -0.8762 -0.4713  0.6469
32758SOL    HW2 5515   2.433   4.881   5.363 -0.5751 -2.1076  1.9091
32759SOL     OW 5516   0.949   0.582  11.576  0.2173 -0.5774 -0.6313
32759SOL    HW1 5517   0.943   0.514  11.643  1.8167 -0.4927 -0.3741
32759SOL    HW2 5518   0.895   0.549  11.504 -2.8479  0.0239  1.1924
32760SOL     OW 5519   9.069  12.012   9.703  0.1715  0.4786 -0.2682
32760SOL    HW1 5520   9.096  11.967   9.783  0.0599  0.8319 -0.0281
32760SOL    HW2 5521   9.141  12.071   9.683  0.3670  0.1192 -0.6460
32761SOL     OW 5522   9.648   5.013   7.173  0.0855  0.1031 -0.1090
32761SOL    HW1 5523   9.732   5.031   7.215  0.3026 -1.9108  0.4130
32761SOL    HW2 5524   9.653   5.060   7.090  1.3130  0.8295  0.3439
32762SOL     OW 5525   4.583   9.501   8.803 -0.9859 -0.6306 -0.2356
32762SOL    HW1 5526   4.647   9.572   8.799 -1.7538  0.1197  0.3118
32762SOL    HW2 5527   4.502   9.541   8.772 -1.2220 -1.5321 -0.7963
32763SOL     OW 5528   9.677   5.878  10.945 -0.1715  0.4866 -0.3874
32763SOL    HW1 5529   9.635   5.963  10.960 -1.0917 -0.0662  0.3028
32763SOL    HW2 5530   9.605   5.821  10.915 -0.1215 -0.6888  1.5516
32764SOL     OW 5531   4.823   7.122   8.181 -0.3620 -0.2846  0.2277
32764SOL    HW1 5532   4.806   7.035   8.144  1.6539 -0.3522 -0.6765
32764SOL    HW2 5533   4.873   7.105   8.261 -0.9390  0.0301  0.6657
32765SOL     OW 5534  11.867   8.380  12.224  0.5197 -0.4070  0.8693
32765SOL    HW1 5535  11.854   8.369  12.130  2.1449  0.3487  0.5188
32765SOL    HW2 5536  11.953   8.343  12.242  1.3557  1.6630  1.5528
32766SOL     OW 5537   9.762   7.735   6.263  0.0084 -0.2532  0.2748
32766SOL    HW1 5538   9.828   7.669   6.282  1.2074  1.2675  1.6841
32766SOL    HW2 5539   9.795   7.815   6.303 -2.1510  0.8519  0.0281
32767SOL     OW 5540  11.022   9.453   2.328 -0.0214 -0.8525  0.1176
32767SOL    HW1 5541  10.990   9.431   2.240 -0.5063 -1.2536  0.3878
32767SOL    HW2 5542  11.106   9.496   2.313 -0.9233  0.7383 -0.6425
32768SOL     OW 5543  10.981   6.009  11.915 -0.3048  0.7154  0.5407
32768SOL    HW1 5544  11.054   5.984  11.858 -0.6378  0.7146  0.1091
32768SOL    HW2 5545  10.997   5.961  11.996 -0.1899  0.1839  0.2097
32769SOL     OW 5546   8.712  12.173  10.597  0.3491 -0.1545 -0.3043
32769SOL    HW1 5547   8.735  12.207  10.683  0.0322 -1.2969  0.2442
32769SOL    HW2 5548   8.775  12.103  10.581 -0.2575 -0.6541 -0.5333
32770SOL     OW 5549   8.144   2.246  11.709  0.2848  0.1909  0.0402
32770SOL    HW1 5550   8.082   2.195  11.761 -0.9347  1.7387  0.1679
32770SOL    HW2 5551   8.089   2.292  11.645  1.6145 -0.6332 -1.7693
32771SOL     OW 5552   0.661   7.314   5.771 -0.2282  0.1202 -0.6932
32771SOL    HW1 5553   0.569   7.304   5.798  0.0368 -0.2121  0.1045
32771SOL    HW2 5554   0.685   7.229   5.734  0.8836 -1.1636  2.6231
32772SOL     OW 5555   2.460  12.134   4.137  0.3268 -0.1477  0.3482
32772SOL    HW1 5556   2.413  12.050   4.136  0.8068 -0.4410  1.5790
32772SOL    HW2 5557   2.395  12.197   4.169  0.1242 -0.1391 -0.0694
32773SOL     OW 5558  10.137  12.564   9.000  0.2471  0.0166 -0.3788
32773SOL    HW1 5559  10.171  12.475   9.009 -0.6548 -0.3084 -0.1678
32773SOL    HW2 5560  10.064  12.557   8.939  1.7253  1.0344 -2.3879
32774SOL     OW 5561   2.386  11.615   3.031 -0.0012 -0.2706  0.3780
32774SOL    HW1 5562   2.452  11.637   2.966  1.6976  0.3339  2.2254
32774SOL    HW2 5563   2.373  11.695   3.081 -1.0735 -0.7922  0.9715
32775SOL     OW 5564   3.798  11.454   9.671  0.4680 -0.2488  0.4731
32775SOL    HW1 5565   3.890  11.477   9.661  0.4573  0.2607  1.4351
32775SOL    HW2 5566   3.789  11.370   9.626  0.8985  0.7159 -1.5585
32776SOL     OW 5567  10.748   0.365   9.110  0.7155 -0.1692  0.0643
32776SOL    HW1 5568  10.679   0.423   9.143 -0.5038 -2.1924  1.2961
32776SOL    HW2 5569  10.702   0.302   9.054  1.8709 -0.3803 -0.6804
32777SOL     OW 5570   3.097   2.356   0.841  0.0484  0.3047 -0.3095
32777SOL    HW1 5571   3.033   2.417   0.805  0.5052  0.6099 -0.6138
32777SOL    HW2 5572   3.160   2.343   0.770  0.3452  0.0355  0.0015
32778SOL     OW 5573  12.651   1.746   1.701  0.0486 -0.2024  0.1391
32778SOL    HW1 5574  12.591   1.677   1.673  0.9799 -1.1089  0.2984
32778SOL    HW2 5575  12.676   1.721   1.790  1.1383 -0.1994 -0.1497
32779SOL     OW 5576  11.819   4.753   7.264 -0.0935 -0.0104 -0.1034
32779SOL    HW1 5577  11.757   4.786   7.200 -0.7754  1.5869  1.3052
32779SOL    HW2 5578  11.798   4.800   7.345  1.7095 -0.8411  0.9212
32780SOL     OW 5579   0.831   3.821   7.545  0.0105 -0.2296 -0.2391
32780SOL    HW1 5580   0.816   3.839   7.638 -0.7317  0.5239 -0.4889
32780SOL    HW2 5581   0.744   3.799   7.511 -0.0563  1.2849 -1.1183
32781SOL     OW 5582   3.759   1.537  11.897  0.1722 -0.7535  0.6044
32781SOL    HW1 5583   3.696   1.488  11.950 -1.6496 -0.3416 -1.0391
32781SOL    HW2 5584   3.766   1.622  11.941 -0.6810 -0.6945  0.6493
32782SOL     OW 5585   0.428  11.470  10.958  0.3701 -0.3797  0.2121
32782SOL    HW1 5586   0.369  11.445  11.029 -1.0054 -0.7019 -1.0031
32782SOL    HW2 5587   0.381  11.536  10.909  2.1949  1.4715  0.8137
32783SOL     OW 5588   8.746   7.819   2.339  0.0170 -0.4001 -0.0048
32783SOL    HW1 5589   8.682   7.821   2.267 -0.1138  1.2390  0.1257
32783SOL    HW2 5590   8.699   7.854   2.414  0.9693  0.5293  0.1782
32784SOL     OW 5591   7.957  11.994   4.883 -0.0344  0.0429  0.9571
32784SOL    HW1 5592   8.047  12.020   4.904 -0.1348  0.9625  0.2978
32784SOL    HW2 5593   7.909  12.005   4.965  0.5372 -0.9037  1.4392
32785SOL     OW 5594   9.862   7.692   4.937  0.0964  0.3246 -0.1547
32785SOL    HW1 5595   9.785   7.658   4.981 -1.3851  1.5499 -1.6957
32785SOL    HW2 5596   9.873   7.780   4.972  1.8881 -0.4137  1.3206
32786SOL     OW 5597  11.216   4.075  12.069  0.6600 -0.6788 -0.1292
32786SOL    HW1 5598  11.297   4.096  12.115  0.7702  1.5176 -1.1970
32786SOL    HW2 5599  11.161   4.034  12.136  1.2375  1.2931  1.6942
32787SOL     OW 5600   5.694   0.245   0.838  0.3910 -0.0671 -0.4086
32787SOL    HW1 5601   5.725   0.155   0.828 -0.4858 -0.4561  0.2161
32787SOL    HW2 5602   5.744   0.295   0.774  1.7221 -0.7956  0.0400
32788SOL     OW 5603   4.485   1.099   9.480 -0.3909  0.2344  0.2539
32788SOL    HW1 5604   4.574   1.073   9.455  0.8590 -0.6312  4.5786
32788SOL    HW2 5605   4.456   1.028   9.538 -3.6432  0.9185 -0.3469
32789SOL     OW 5606   3.812   2.898   5.976  0.3788 -0.2038  0.5620
32789SOL    HW1 5607   3.739   2.905   5.914  0.9065  1.5101  0.0649
32789SOL    HW2 5608   3.869   2.832   5.937  0.5310  0.5939 -0.6456
32790SOL     OW 5609   2.816  12.371  10.450 -0.0518  0.3825  0.3162
32790SOL    HW1 5610   2.808  12.287  10.495  0.4098  0.0062 -0.2923
32790SOL    HW2 5611   2.824  12.436  10.521 -0.7872 -0.0350  0.7938
32791SOL     OW 5612  12.203   4.649   8.066  0.2612  0.4579 -0.3735
32791SOL    HW1 5613  12.247   4.666   8.150 -0.1495  0.5944 -0.1865
32791SOL    HW2 5614  12.112   4.673   8.081 -0.2645 -1.4134 -0.2369
32792SOL     OW 5615   4.331   5.479   6.624 -0.8976 -0.2088  0.2189
32792SOL    HW1 5616   4.264   5.429   6.577 -1.4863  1.9765 -1.4446
32792SOL    HW2 5617   4.405   5.483   6.564 -1.2507  1.7271 -0.1492
32793SOL     OW 5618  12.324   7.711  12.333  0.0535 -0.0695 -0.7626
32793SOL    HW1 5619  12.373   7.766  12.394  0.2357 -1.2713  0.2027
32793SOL    HW2 5620  12.385   7.694  12.262  1.1442 -1.6542  0.4862
32794SOL     OW 5621  12.201   4.797   8.519 -0.4227 -0.4912 -0.3498
32794SOL    HW1 5622  12.241   4.881   8.493 -0.0939 -1.1288 -2.0257
32794SOL    HW2 5623  12.107   4.812   8.509 -0.7516  0.8872  3.2222
32795SOL     OW 5624   5.588   5.658  11.175 -0.1450  0.3084  0.2130
32795SOL    HW1 5625   5.586   5.710  11.095 -2.8455 -1.7905 -1.2842
32795SOL    HW2 5626   5.554   5.717  11.242  0.2182  1.5218 -0.6330
32796SOL     OW 5627   5.654  11.636  10.013  0.1328  0.6101 -0.3030
32796SOL    HW1 5628   5.648  11.654  10.107 -2.2290  0.7912 -0.4295
32796SOL    HW2 5629   5.727  11.575  10.004 -0.0842  0.0088  1.7369
32797SOL     OW 5630  10.170   2.746   4.013  0.8307 -0.4808 -0.2881
32797SOL    HW1 5631  10.174   2.841   4.025  0.1650 -0.5335  0.4096
32797SOL    HW2 5632  10.228   2.729   3.939  3.8639  0.0544  1.7516
32798SOL     OW 5633   8.339   7.386   9.056 -0.1630  0.1629 -0.3840
32798SOL    HW1 5634   8.380   7.435   8.985  1.9938 -0.3919  0.3920
32798SOL    HW2 5635   8.375   7.298   9.048 -1.2122 -0.3510  0.3666
32799SOL     OW 5636   0.829   5.738  11.138  0.1571  0.1625  0.3221
32799SOL    HW1 5637   0.764   5.781  11.083  0.2690  1.1089  0.8934
32799SOL    HW2 5638   0.871   5.810  11.186  1.6332 -0.4166 -0.0454
32800SOL     OW 5639   1.887   1.510   4.458  0.0534 -0.1152  0.0623
32800SOL    HW1 5640   1.878   1.417   4.478 -3.0313  0.5175  2.4839
32800SOL    HW2 5641   1.799   1.539   4.435  0.3563  2.6193  1.8353
32801SOL     OW 5642   6.760   7.115   5.363  0.5776  0.0304  0.0219
32801SOL    HW1 5643   6.714   7.169   5.427  0.4656  2.0635 -1.6726
32801SOL    HW2 5644   6.692   7.066   5.318  0.6829 -1.6852  1.5924
32802SOL     OW 5645   9.091   6.189   2.148 -0.3639 -0.1008 -0.3118
32802SOL    HW1 5646   9.118   6.137   2.224 -0.0654 -0.7939 -0.8735
32802SOL    HW2 5647   9.126   6.141   2.073  1.2197  1.6943 -0.8089
32803SOL     OW 5648   2.573   7.439  10.138 -0.0202  0.3407  0.3468
32803SOL    HW1 5649   2.583   7.383  10.215 -1.5782 -2.2332 -1.1351
32803SOL    HW2 5650   2.625   7.396  10.070 -0.1536  1.4931 -0.5218
32804SOL     OW 5651   0.752   9.722   4.558 -0.0225  0.1176 -0.7248
32804SOL    HW1 5652   0.799   9.691   4.636 -0.0565  4.7489  1.4778
32804SOL    HW2 5653   0.820   9.748   4.497  0.3394  2.1145  0.4156
32805SOL     OW 5654   1.467   2.160   8.212 -0.4760  0.0367 -0.0261
32805SOL    HW1 5655   1.463   2.075   8.256 -0.3745 -0.5461 -1.1065
32805SOL    HW2 5656   1.414   2.149   8.133  2.2972 -0.1781 -2.0231
32806SOL     OW 5657   0.554   5.228   0.433 -0.0793  0.0920  0.1285
32806SOL    HW1 5658   0.562   5.323   0.425 -1.4030  0.1016 -1.7350
32806SOL    HW2 5659   0.619   5.204   0.500  0.3671  2.2679  0.5539
32807SOL     OW 5660   8.778  12.203   4.320  0.0195  0.3295  0.5316
32807SOL    HW1 5661   8.737  12.178   4.403 -0.6182 -1.9396 -0.3782
32807SOL    HW2 5662   8.734  12.283   4.294 -0.8560  0.2311  1.6388
32808SOL     OW 5663   7.633   8.345   5.357  0.3505  0.6246 -0.3787
32808SOL    HW1 5664   7.642   8.274   5.295  0.7615 -0.0823  0.4675
32808SOL    HW2 5665   7.550   8.387   5.335 -1.5308 -2.0827  1.0609
32809SOL     OW 5666   8.519  11.239   8.515  0.1128 -0.3977  0.0673
32809SOL    HW1 5667   8.551  11.167   8.569 -0.1420 -0.5961 -0.0432
32809SOL    HW2 5668   8.429  11.254   8.545 -0.5790 -1.5205 -1.2969
32810SOL     OW 5669   0.786   0.364  10.653 -0.1001 -0.5623 -0.3129
32810SOL    HW1 5670   0.827   0.286  10.616  0.1316 -0.1819 -0.8683
32810SOL    HW2 5671   0.740   0.404  10.579 -0.2182 -0.1724 -0.0311
32811SOL     OW 5672   3.695   5.581   9.132  0.9337  0.2646  0.2483
32811SOL    HW1 5673   3.698   5.518   9.060  1.4023  0.4774  0.0783
32811SOL    HW2 5674   3.602   5.589   9.153  0.6286  1.3770 -1.3696
32812SOL     OW 5675   9.305   3.245  10.698  0.1600  0.1328 -0.8502
32812SOL    HW1 5676   9.302   3.267  10.605  0.7124 -0.9799 -1.1497
32812SOL    HW2 5677   9.214   3.248  10.727 -0.1910 -1.0429 -1.8034
32813SOL     OW 5678   4.850  10.817   2.425 -0.0556  0.8284  0.1595
32813SOL    HW1 5679   4.791  10.763   2.372 -0.0959  1.3343 -0.3262
32813SOL    HW2 5680   4.936  10.803   2.385 -0.0419  1.0103  0.1269
32814SOL     OW 5681   1.200   1.051   0.451  0.6192 -0.1650 -0.5438
32814SOL    HW1 5682   1.176   1.086   0.537 -0.3829 -2.1004  0.0216
32814SOL    HW2 5683   1.208   1.128   0.395  1.4111  1.1661  1.2855
32815SOL     OW 5684   4.824   4.279  10.647  0.1618  0.2681 -0.4645
32815SOL    HW1 5685   4.846   4.336  10.721 -0.9789  0.8268 -0.5360
32815SOL    HW2 5686   4.885   4.304  10.579  0.9477  0.0470  0.1424
32816SOL     OW 5687   4.663  11.804   4.287 -0.1538 -0.4873 -0.8896
32816SOL    HW1 5688   4.590  11.836   4.340  0.0375  1.1721 -1.5685
32816SOL    HW2 5689   4.739  11.811   4.345  0.0603  1.3530 -1.3007
32817SOL     OW 5690   4.426   9.266  11.079  0.0176  0.5944  0.1857
32817SOL    HW1 5691   4.406   9.344  11.028 -0.2335 -0.1322 -0.8700
32817SOL    HW2 5692   4.508   9.233  11.043  0.9121  1.1491  1.6036
32818SOL     OW 5693   3.862   7.989   0.865  0.4127  0.0703 -0.2589
32818SOL    HW1 5694   3.784   8.039   0.890  1.9788  2.9612 -0.6633
32818SOL    HW2 5695   3.930   8.017   0.927  1.5512 -1.1314 -0.9067
32819SOL     OW 5696   7.895   8.600  12.574 -0.2858  0.3621 -0.5843
32819SOL    HW1 5697   7.878   8.687  12.539 -0.2677 -0.3459 -2.4219
32819SOL    HW2 5698   7.966   8.565  12.521  1.0042 -0.1040  1.3296
32820SOL     OW 5699   7.604   0.611  10.501 -0.1324  0.3406 -0.1374
32820SOL    HW1 5700   7.589   0.545  10.569  0.1029 -0.9726 -1.3165
32820SOL    HW2 5701   7.666   0.569  10.441  0.3452  1.8099 -0.7063
32821SOL     OW 5702   9.192  11.217   4.154 -0.3706  0.0278  0.0005
32821SOL    HW1 5703   9.166  11.166   4.077  1.4716  0.6906 -1.1314
32821SOL    HW2 5704   9.146  11.300   4.144 -1.3251 -0.4202  0.4658
32822SOL     OW 5705   3.314  11.126   8.957  0.1493 -0.1986 -0.3924
32822SOL    HW1 5706   3.304  11.067   8.882 -0.9327 -1.5684  0.7889
32822SOL    HW2 5707   3.253  11.197   8.939 -0.1942 -0.5796 -0.7607
32823SOL     OW 5708   0.729  10.330   0.743 -0.3548 -0.2497  0.4301
32823SOL    HW1 5709   0.695  10.253   0.788 -1.9227  0.6983  0.9378
32823SOL    HW2 5710   0.695  10.404   0.794  0.4303  0.7962 -0.5226
32824SOL     OW 5711  11.793   2.230   4.608  0.0776  0.0701 -0.0599
32824SOL    HW1 5712  11.800   2.245   4.702  1.0339  0.2992 -0.1544
32824SOL    HW2 5713  11.783   2.318   4.571 -1.7306 -0.1096 -0.0847
32825SOL     OW 5714  10.341  11.351   2.008  0.0809  0.0067  0.2381
32825SOL    HW1 5715  10.275  11.394   1.953  0.9706  1.0647 -0.0275
32825SOL    HW2 5716  10.386  11.292   1.949  1.2537  1.3789 -0.3000
32826SOL     OW 5717   6.397  11.494   8.592 -0.5748 -0.2807  0.0042
32826SOL    HW1 5718   6.434  11.533   8.512 -0.2374 -1.4580 -0.4335
32826SOL    HW2 5719   6.303  11.509   8.584 -0.4748  0.2374 -0.2685
32827SOL     OW 5720   4.088  10.427   1.939  0.5722  0.1454  0.2326
32827SOL    HW1 5721   4.177  10.436   1.972  0.5573  0.9458  0.0778
32827SOL    HW2 5722   4.060  10.340   1.967  0.5710  0.7633  2.2765
32828SOL     OW 5723   6.151   4.494   7.281  0.2779 -0.3261  0.1875
32828SOL    HW1 5724   6.067   4.471   7.321 -0.0120 -1.0321 -0.8094
32828SOL    HW2 5725   6.127   4.532   7.196  1.0128 -1.7943 -0.6989
32829SOL     OW 5726   1.376   1.833  12.578  0.1430 -0.9244  0.3677
32829SOL    HW1 5727   1.452   1.862  12.528 -1.3276  0.0486 -1.4614
32829SOL    HW2 5728   1.375   1.890  12.656  1.4599 -1.2019  0.6055
32830SOL     OW 5729   4.189  10.410   9.563  0.3210 -0.2117  0.1541
32830SOL    HW1 5730   4.115  10.460   9.597  0.5439 -0.4080  0.9497
32830SOL    HW2 5731   4.185  10.327   9.610  1.5564  0.1032  0.8684
32831SOL     OW 5732   2.800   0.846  11.402 -0.1898 -0.1527 -0.5459
32831SOL    HW1 5733   2.871   0.811  11.455 -0.7731 -0.4734  0.0419
32831SOL    HW2 5734   2.741   0.887  11.465  0.8054  2.5852 -1.2507
32832SOL     OW 5735   8.230   2.543  11.903  0.6108 -0.4485  0.2180
32832SOL    HW1 5736   8.138   2.568  11.910  1.0431  0.9548  1.8504
32832SOL    HW2 5737   8.229   2.452  11.874 -1.2400 -0.1251 -0.8848
32833SOL     OW 5738   7.857  11.077  12.023  0.5890  0.5033  0.1749
32833SOL    HW1 5739   7.861  11.082  11.928  0.6880  2.3276  0.2363
32833SOL    HW2 5740   7.764  11.064  12.043  0.5582  0.2065 -0.1489
32834SOL     OW 5741  11.346   3.040   3.543 -0.0148 -0.0181 -0.1861
32834SOL    HW1 5742  11.256   3.059   3.515  0.3587  1.5306 -0.4251
32834SOL    HW2 5743  11.400   3.093   3.484  1.1635 -2.0444 -1.0215
32835SOL     OW 5744   3.952   6.293   0.368  0.6562 -0.0763 -0.0208
32835SOL    HW1 5745   4.023   6.334   0.319  0.6300 -0.1657 -0.1331
32835SOL    HW2 5746   3.890   6.263   0.301  0.1069  0.7411  0.1012
32836SOL     OW 5747   8.781   1.407   7.563  0.4680  0.5631  0.2224
32836SOL    HW1 5748   8.843   1.351   7.610  0.0137 -0.6967 -0.6115
32836SOL    HW2 5749   8.829   1.435   7.485  0.2423  0.2216 -0.0382
32837SOL     OW 5750   4.460   7.155   2.979  0.2945 -0.5019  0.0245
32837SOL    HW1 5751   4.376   7.113   2.993 -0.6140  0.7255 -1.4409
32837SOL    HW2 5752   4.441   7.249   2.979  2.1341 -0.0228  2.4700
32838SOL     OW 5753   8.976  11.496  10.316  0.3415  0.1737  0.1476
32838SOL    HW1 5754   8.909  11.553  10.280  2.6989  3.9255  1.0522
32838SOL    HW2 5755   9.007  11.542  10.395  2.0662 -2.7298  1.3536
32839SOL     OW 5756  12.326  12.118   8.136  0.5052  0.2912  0.0908
32839SOL    HW1 5757  12.412  12.097   8.100 -0.3335  0.9335 -2.5091
32839SOL    HW2 5758  12.340  12.121   8.231  2.7653 -2.0996 -0.0445
32840SOL     OW 5759   7.987   6.616   3.260  0.3683 -0.9015  0.7972
32840SOL    HW1 5760   7.986   6.577   3.348  4.2744  2.3787  2.6859
32840SOL    HW2 5761   8.080   6.634   3.244 -0.3270 -0.1638 -3.5277
32841SOL     OW 5762   5.370   3.187  12.024  0.2029  0.4424  0.4687
32841SOL    HW1 5763   5.356   3.213  12.115  0.8268 -0.2427  0.7763
32841SOL    HW2 5764   5.283   3.169  11.990  0.0651 -1.1236  1.5169
32842SOL     OW 5765  10.134   8.583   2.788 -0.0947  0.3809  0.2668
32842SOL    HW1 5766  10.075   8.600   2.862 -1.3035 -0.2410 -0.5296
32842SOL    HW2 5767  10.214   8.630   2.811  0.1706 -1.1069  2.7548
32843SOL     OW 5768   9.979   9.577   7.549 -0.0198 -0.0825  0.0870
32843SOL    HW1 5769  10.072   9.578   7.571  0.1481 -0.0269 -0.6073
32843SOL    HW2 5770   9.949   9.490   7.575  0.1442  0.0226  0.6364
32844SOL     OW 5771  11.100   7.429   1.978  0.1314 -0.0172  0.1856
32844SOL    HW1 5772  11.048   7.361   2.021 -2.5845  1.5772 -0.3512
32844SOL    HW2 5773  11.124   7.391   1.894 -0.1708 -0.7917  0.4398
32845SOL     OW 5774  11.108   7.992   9.903  0.4982 -0.1430 -0.2651
32845SOL    HW1 5775  11.063   7.992   9.988  0.3086  1.0311 -0.3408
32845SOL    HW2 5776  11.053   7.937   9.847  1.4087 -2.1725  0.7294
32846SOL     OW 5777  11.113   9.351  12.215 -0.3085 -0.1620  0.0466
32846SOL    HW1 5778  11.152   9.264  12.223 -3.3740 -1.7051 -0.3025
32846SOL    HW2 5779  11.109   9.368  12.121  0.7319  0.6349  0.1258
32847SOL     OW 5780   8.627   1.185  11.168  0.5530  0.3984 -0.0462
32847SOL    HW1 5781   8.668   1.170  11.083  0.6417  1.9368 -0.2999
32847SOL    HW2 5782   8.570   1.109  11.181  0.0649  0.4339 -1.7665
32848SOL     OW 5783   2.413   6.641   0.902  0.5146  0.1844  0.2571
32848SOL    HW1 5784   2.366   6.571   0.858  0.3393 -0.1666  0.9835
32848SOL    HW2 5785   2.351   6.673   0.968  0.1325  1.8439 -0.8590
32849SOL     OW 5786   4.948   5.642   5.651 -0.0062 -0.4839 -0.5648
32849SOL    HW1 5787   4.862   5.648   5.608 -0.5140 -0.8372  0.3657
32849SOL    HW2 5788   4.950   5.717   5.710  0.1479 -0.7169 -0.2754
32850SOL     OW 5789  11.807   8.758   8.667 -0.1806 -0.1373  0.7139
32850SOL    HW1 5790  11.851   8.773   8.583 -1.8021  1.1572  0.0320
32850SOL    HW2 5791  11.763   8.674   8.657 -0.6922  0.1972  0.1024
32851SOL     OW 5792   2.074   7.364   5.973  0.2355 -0.2784  0.7995
32851SOL    HW1 5793   2.055   7.276   5.941  1.1047 -0.5437  0.9921
32851SOL    HW2 5794   1.988   7.400   5.998 -0.5589  0.0917 -2.1057
32852SOL     OW 5795   0.286  12.710  11.122 -0.0593  0.0432  0.1269
32852SOL    HW1 5796   0.363  12.661  11.152  0.4565  0.1717 -0.9199
32852SOL    HW2 5797   0.293  12.794  11.166 -0.8805 -0.7310  1.8373
32853SOL     OW 5798   2.751   5.919   4.674  0.4119  0.2495  0.0296
32853SOL    HW1 5799   2.784   5.937   4.762 -0.8390  2.0787  0.1735
32853SOL    HW2 5800   2.698   5.996   4.651  2.0056  0.6131 -2.9886
32854SOL     OW 5801   5.642   1.798   1.174  0.2426 -0.2067 -0.1720
32854SOL    HW1 5802   5.557   1.842   1.178  0.0496 -0.2823 -2.1828
32854SOL    HW2 5803   5.634   1.724   1.234 -0.8309  0.2466  0.2560
32855SOL     OW 5804  10.436  10.740  12.665 -0.3388  0.3860 -0.1123
32855SOL    HW1 5805  10.461  10.806  12.730 -1.3592  1.1275 -0.4510
32855SOL    HW2 5806  10.512  10.734  12.607  0.0026  0.8138  0.2774
32856SOL     OW 5807   5.188   8.002   8.843 -0.2436  0.1949 -0.0515
32856SOL    HW1 5808   5.092   8.003   8.841 -0.2562 -0.2893  0.2725
32856SOL    HW2 5809   5.213   8.086   8.804 -0.7929  0.2108 -0.3827
32857SOL     OW 5810   9.124   6.889  12.407  0.7475 -0.0565 -0.3714
32857SOL    HW1 5811   9.210   6.869  12.370  0.6101 -2.6998  0.5653
32857SOL    HW2 5812   9.121   6.840  12.489 -1.3305  0.7030  0.0655
32858SOL     OW 5813  11.642  10.144  11.249  0.4070  0.2105  0.4858
32858SOL    HW1 5814  11.639  10.048  11.254 -1.2606  0.0862 -1.3919
32858SOL    HW2 5815  11.731  10.167  11.275  1.3759 -2.0012 -0.5893
32859SOL     OW 5816   1.627   7.142   8.892  0.2903  0.1724 -0.0064
32859SOL    HW1 5817   1.676   7.196   8.953  0.6398 -0.5511  0.3656
32859SOL    HW2 5818   1.539   7.138   8.929  0.9579 -1.8279  1.5301
32860SOL     OW 5819   4.750   6.007  12.272 -0.0553 -0.0704  0.0373
32860SOL    HW1 5820   4.846   6.003  12.268  0.0319  0.6760  1.0240
32860SOL    HW2 5821   4.723   5.916  12.263  0.7663 -0.3426  0.1674
32861SOL     OW 5822   2.340   9.486  12.390  0.2159 -0.4334 -0.1176
32861SOL    HW1 5823   2.428   9.504  12.358  0.6188  1.6634  1.9513
32861SOL    HW2 5824   2.297   9.571  12.391 -0.5754 -0.7757  2.4277
32862SOL     OW 5825   5.141   3.947  11.007  0.0554 -0.1956 -0.4786
32862SOL    HW1 5826   5.085   3.994  11.068 -0.2484 -0.2676 -0.6980
32862SOL    HW2 5827   5.229   3.957  11.042  0.2084  1.8710 -1.3521
32863SOL     OW 5828   1.928   7.456   6.325 -0.9545  0.5170  0.1156
32863SOL    HW1 5829   1.927   7.507   6.406 -0.1252  0.9908 -0.1629
32863SOL    HW2 5830   1.839   7.463   6.291 -1.0196  1.2253  0.4223
32864SOL     OW 5831   0.866   2.289   0.362 -0.0850  0.2587  0.2895
32864SOL    HW1 5832   0.875   2.384   0.366  0.5446  0.1812  0.7374
32864SOL    HW2 5833   0.949   2.255   0.393 -0.5717 -0.4505  0.8639
32865SOL     OW 5834   6.754  10.044   8.659  0.2227  0.1799  0.2879
32865SOL    HW1 5835   6.782   9.955   8.639 -0.9834 -0.4945  1.4491
32865SOL    HW2 5836   6.764  10.092   8.577  1.0102 -0.9855 -0.3105
32866SOL     OW 5837   1.476  12.064   0.422 -0.3033 -0.3931  0.3016
32866SOL    HW1 5838   1.502  12.150   0.389 -0.4685 -1.1305 -1.8937
32866SOL    HW2 5839   1.536  12.048   0.496 -0.9568  2.0084  1.4666
32867SOL     OW 5840   6.511   2.927   2.734  0.0837 -0.7265 -0.0778
32867SOL    HW1 5841   6.540   2.903   2.646 -1.5838 -0.5137 -0.7439
32867SOL    HW2 5842   6.518   3.023   2.737  0.3708 -0.7538  0.1042
32868SOL     OW 5843   1.371   9.037   6.615 -0.5018 -0.1877  0.4851
32868SOL    HW1 5844   1.373   9.072   6.705  0.5517 -0.6614  0.6589
32868SOL    HW2 5845   1.285   9.063   6.582 -0.4833  0.9548  1.2470
32869SOL     OW 5846   6.082  10.929   8.542  0.5490  0.5377  0.2042
32869SOL    HW1 5847   6.019  10.885   8.485  0.7310  1.8965 -1.1372
32869SOL    HW2 5848   6.090  10.873   8.619  1.4344 -2.1820 -1.7425
32870SOL     OW 5849   5.317  11.525   2.423  0.5944 -0.6535  0.4221
32870SOL    HW1 5850   5.316  11.561   2.512 -0.4273 -2.4762  1.2070
32870SOL    HW2 5851   5.296  11.600   2.367 -1.6086  0.0098  1.9747
32871SOL     OW 5852   6.830   8.952   0.268 -0.1800 -0.1942  0.2294
32871SOL    HW1 5853   6.756   8.898   0.296  0.2697 -0.2658  1.3344
32871SOL    HW2 5854   6.827   9.029   0.325  0.1100  0.2016 -0.2799
32872SOL     OW 5855   1.870  10.678   4.338  0.9283 -0.8352 -0.8429
32872SOL    HW1 5856   1.913  10.615   4.396 -1.7754 -1.6858  0.3986
32872SOL    HW2 5857   1.926  10.681   4.260  2.0791 -3.4266 -0.2147
32873SOL     OW 5858   5.007   8.270   7.861  0.4374 -0.0682 -0.2601
32873SOL    HW1 5859   5.029   8.210   7.933 -1.8140 -2.8769 -1.7005
32873SOL    HW2 5860   4.913   8.286   7.873  0.7427  2.3113 -0.6391
32874SOL     OW 5861   3.011   3.466   2.960 -0.0712  0.2549  0.1999
32874SOL    HW1 5862   3.042   3.517   3.035 -2.2550  0.5270  1.0146
32874SOL    HW2 5863   3.090   3.446   2.910  1.2387  1.7224  1.5419
32875SOL     OW 5864   5.259   6.287  10.917 -0.1960 -0.1120  0.2472
32875SOL    HW1 5865   5.198   6.219  10.888 -0.6135  0.2386  0.2789
32875SOL    HW2 5866   5.205   6.366  10.922  0.3083  0.2491  0.0800
32876SOL     OW 5867   6.545   8.203   0.360 -0.0410 -0.1941  0.2139
32876SOL    HW1 5868   6.521   8.150   0.436  0.2094 -0.4114  0.1438
32876SOL    HW2 5869   6.502   8.161   0.286 -1.6222  0.9395  0.4330
32877SOL     OW 5870   9.453   1.519   8.114 -0.5332  0.3473  0.1007
32877SOL    HW1 5871   9.491   1.607   8.107 -2.8007  1.7151  2.8531
32877SOL    HW2 5872   9.511   1.473   8.175 -0.3774  0.5751  0.1258
32878SOL     OW 5873  10.573  12.067   8.487 -0.0629  0.7930  0.3800
32878SOL    HW1 5874  10.552  12.157   8.510  0.7908  1.0889  0.0429
32878SOL    HW2 5875  10.669  12.063   8.492  0.0156  0.3321 -1.1461
32879SOL     OW 5876  12.687   7.171   2.410  0.0967 -0.2227  0.1423
32879SOL    HW1 5877  12.685   7.178   2.315  1.5121 -0.3653  0.0732
32879SOL    HW2 5878  12.631   7.096   2.430 -1.4251  0.7142 -0.4349
32880SOL     OW 5879   8.011  11.666   8.595 -0.0163  0.0232 -0.3499
32880SOL    HW1 5880   7.976  11.711   8.518 -1.2238 -1.5106 -0.7372
32880SOL    HW2 5881   8.100  11.700   8.603 -1.0938  3.1526 -0.0511
32881SOL     OW 5882   7.688   0.989   5.336 -0.5336  0.6424  0.0443
32881SOL    HW1 5883   7.670   0.936   5.258  1.5512 -0.7740  0.4391
32881SOL    HW2 5884   7.713   0.925   5.403 -0.0156  1.9896  1.1846
32882SOL     OW 5885  12.364  11.236   9.120 -0.1112  0.2858 -0.0502
32882SOL    HW1 5886  12.290  11.229   9.180 -0.2575  0.4839 -0.2031
32882SOL    HW2 5887  12.332  11.293   9.049 -0.2902 -0.7677 -0.8394
32883SOL     OW 5888   2.664   0.216   9.583 -0.3206  0.2671 -0.2031
32883SOL    HW1 5889   2.636   0.268   9.658 -0.3586  0.2287 -0.1902
32883SOL    HW2 5890   2.755   0.193   9.603 -1.1730 -2.2438  1.2724
32884SOL     OW 5891  12.229   7.580  10.720 -0.4400 -0.2647 -0.5495
32884SOL    HW1 5892  12.138   7.599  10.697 -0.1717  1.9632 -0.0044
32884SOL    HW2 5893  12.281   7.621  10.650  0.1966  1.8693  1.0338
32885SOL     OW 5894   7.174   9.204   7.438  0.2446 -0.2178  0.6966
32885SOL    HW1 5895   7.130   9.120   7.454 -0.8284  0.3222  0.6816
32885SOL    HW2 5896   7.174   9.212   7.343  1.4559 -0.7545  0.6322
32886SOL     OW 5897   6.725   6.023   6.558  0.4416  0.5085  0.2473
32886SOL    HW1 5898   6.656   5.957   6.567  0.4422  0.5135  0.2902
32886SOL    HW2 5899   6.735   6.034   6.464  0.7095  0.1687  0.2352
32887SOL     OW 5900   3.459   6.360   1.220  0.1345  0.1551 -0.0126
32887SOL    HW1 5901   3.395   6.430   1.208  0.9154  1.0460  0.8481
32887SOL    HW2 5902   3.428   6.311   1.296 -0.2135 -0.2171 -0.3900
32888SOL     OW 5903  10.271   5.108  10.255 -0.3481  0.8037 -0.6412
32888SOL    HW1 5904  10.270   5.012  10.256 -1.1125  0.8023 -0.6290
32888SOL    HW2 5905  10.210   5.131  10.185 -1.1380  1.2850  0.1929
32889SOL     OW 5906   0.349   9.435   2.880 -1.0161 -0.0009 -0.3328
32889SOL    HW1 5907   0.395   9.480   2.951 -0.8334 -1.9557  0.8650
32889SOL    HW2 5908   0.257   9.437   2.906 -0.9945 -0.4052 -0.2215
32890SOL     OW 5909   0.034   5.326   7.054 -0.3864 -0.0828  0.0115
32890SOL    HW1 5910   0.037   5.405   7.107 -2.2931  0.7146 -0.9752
32890SOL    HW2 5911   0.114   5.278   7.077 -0.4547  0.8908  2.5146
32891SOL     OW 5912   9.081   3.691  12.408  0.2719  0.9597 -0.0998
32891SOL    HW1 5913   8.986   3.702  12.416 -0.5052 -3.9189  0.6805
32891SOL    HW2 5914   9.104   3.631  12.479  3.8243  1.4032 -0.7237
32892SOL     OW 5915   2.038   2.647   0.501 -0.5936 -0.4928 -0.1695
32892SOL    HW1 5916   1.989   2.729   0.493 -1.3334 -0.7917  1.0069
32892SOL    HW2 5917   1.973   2.579   0.483 -0.3230 -0.8543  0.2110
32893SOL     OW 5918   2.002   1.030  12.033 -0.0168 -0.9090  0.1871
32893SOL    HW1 5919   2.027   1.118  12.004  0.7943 -0.5629  1.8317
32893SOL    HW2 5920   1.962   0.990  11.956  3.0149 -0.4490 -1.7921
32894SOL     OW 5921   2.139   9.427   4.374 -0.3617  0.3480  0.6933
32894SOL    HW1 5922   2.223   9.392   4.344 -1.1709 -0.4651 -0.7049
32894SOL    HW2 5923   2.126   9.505   4.320 -0.6292  0.3213  0.7219
32895SOL     OW 5924   9.886   3.483   4.769 -0.5684 -0.5376  0.1689
32895SOL    HW1 5925   9.906   3.532   4.690 -2.2054  1.3928  0.8665
32895SOL    HW2 5926   9.792   3.495   4.782 -0.7618 -2.6552  1.2314
32896SOL     OW 5927   8.053   2.620   2.826  0.4162 -0.3381  0.4302
32896SOL    HW1 5928   8.055   2.704   2.871 -2.1408  0.7507 -1.2401
32896SOL    HW2 5929   8.128   2.621   2.767 -0.4387  1.4966 -0.6892
32897SOL     OW 5930  12.170   1.808   2.340 -0.0673  0.1085 -0.3614
32897SOL    HW1 5931  12.205   1.834   2.254  1.9032  0.7202  0.5787
32897SOL    HW2 5932  12.109   1.878   2.363 -2.4796 -1.2160 -2.2418
32898SOL     OW 5933   9.066   4.477   3.425 -0.2400  0.3461 -0.4205
32898SOL    HW1 5934   8.987   4.530   3.416  0.4838  1.4686 -0.3315
32898SOL    HW2 5935   9.136   4.533   3.392  0.5689 -0.5051 -0.1836
32899SOL     OW 5936   8.006  10.873  12.120 -0.6220  0.2878  0.4794
32899SOL    HW1 5937   7.968  10.870  12.208  0.0040  3.5345  0.9923
32899SOL    HW2 5938   7.960  10.945  12.077  1.3791  0.9751 -0.6355
32900SOL     OW 5939   6.482   4.764   0.151  0.4008 -0.2188 -0.5472
32900SOL    HW1 5940   6.499   4.834   0.214 -0.8234  0.0403 -0.4820
32900SOL    HW2 5941   6.450   4.810   0.073 -4.6868 -0.7409  0.8628
32901SOL     OW 5942   3.118   9.170   1.503  0.2922  0.2977  0.1630
32901SOL    HW1 5943   3.207   9.159   1.468  0.3324  0.8265  0.0963
32901SOL    HW2 5944   3.061   9.164   1.426  0.2132 -0.7295  0.2918
32902SOL     OW 5945  11.694   7.580  11.052  0.2039  0.1209 -0.2275
32902SOL    HW1 5946  11.702   7.554  11.144 -0.8683  1.1117  0.1646
32902SOL    HW2 5947  11.633   7.654  11.053  0.5537  0.4532 -1.6884
32903SOL     OW 5948   1.977  12.061   8.431  0.5161 -0.0904 -0.0516
32903SOL    HW1 5949   2.013  11.980   8.395 -1.9653 -0.3732 -2.2140
32903SOL    HW2 5950   1.935  12.104   8.357 -0.6013  1.8518  1.5866
32904SOL     OW 5951  10.880   5.102  11.564  0.5644  0.4027 -0.2110
32904SOL    HW1 5952  10.947   5.166  11.537  0.7104  0.1802 -0.3722
32904SOL    HW2 5953  10.921   5.017  11.551 -0.0036  0.2400 -0.9816
32905SOL     OW 5954   0.164   5.624   0.375  0.2108 -0.6204  0.2335
32905SOL    HW1 5955   0.207   5.551   0.418  0.6693  0.4152  1.6016
32905SOL    HW2 5956   0.216   5.639   0.296  1.0735 -0.7885  0.7494
32906SOL     OW 5957  11.772   2.635   0.939  1.0481  0.1361 -0.4799
32906SOL    HW1 5958  11.778   2.642   0.844  0.0865  1.9904 -0.4460
32906SOL    HW2 5959  11.800   2.720   0.971  0.9751 -0.3271  0.8965
32907SOL     OW 5960   0.750  11.650   7.831  0.0032  0.4817 -0.0324
32907SOL    HW1 5961   0.670  11.638   7.881 -1.3469  2.0518 -1.6675
32907SOL    HW2 5962   0.801  11.714   7.881 -1.0408  1.5539 -0.2998
32908SOL     OW 5963   2.169   2.176   7.425  0.1269 -0.5457 -0.0941
32908SOL    HW1 5964   2.102   2.193   7.491 -0.8834  0.1400 -1.2287
32908SOL    HW2 5965   2.251   2.172   7.473 -0.5910 -0.2421  1.2042
32909SOL     OW 5966   7.466  10.986   5.545 -0.6294  0.0339 -0.3092
32909SOL    HW1 5967   7.429  10.961   5.461  0.7839 -0.2792 -0.8585
32909SOL    HW2 5968   7.497  11.076   5.532 -1.1937  0.3050  0.1525
32910SOL     OW 5969   2.180   9.893   9.933  0.1407  0.4999  0.4260
32910SOL    HW1 5970   2.174   9.974   9.882 -3.3205  0.7222  0.9707
32910SOL    HW2 5971   2.116   9.903  10.003  0.2615 -2.3594  1.0868
32911SOL     OW 5972   9.979   2.936   0.361  0.2518 -0.4961 -0.2132
32911SOL    HW1 5973   9.940   2.886   0.290 -0.9626  0.5126 -0.2907
32911SOL    HW2 5974  10.048   2.988   0.320 -0.4744  0.1172 -0.6889
32912SOL     OW 5975   7.412  12.253  12.186  0.2779 -0.0634  0.1784
32912SOL    HW1 5976   7.495  12.301  12.183  1.2439 -1.5911  0.9378
32912SOL    HW2 5977   7.351  12.314  12.226  0.7685  1.4385 -1.2827
32913SOL     OW 5978   8.398   6.560   5.114 -0.4799 -0.2252 -0.0511
32913SOL    HW1 5979   8.469   6.531   5.172 -0.1784 -0.7305 -0.6667
32913SOL    HW2 5980   8.429   6.541   5.026  0.2764  3.0805 -0.6530
32914SOL     OW 5981  11.790   8.297   6.824 -0.8529  0.3721  0.7232
32914SOL    HW1 5982  11.837   8.239   6.764 -0.8420  0.9440  0.1588
32914SOL    HW2 5983  11.710   8.250   6.846  0.8602 -1.5606  3.3807
32915SOL     OW 5984   3.548   4.517  10.228  0.1484  0.3925  0.3729
32915SOL    HW1 5985   3.580   4.607  10.233 -1.2497  0.9669 -0.3601
32915SOL    HW2 5986   3.492   4.516  10.150 -0.8793 -0.7695  1.0915
32916SOL     OW 5987  12.325   5.879  11.854  0.7067  0.0565 -0.1665
32916SOL    HW1 5988  12.267   5.938  11.806  1.6665  0.2667 -1.0999
32916SOL    HW2 5989  12.279   5.863  11.937  0.8080  2.8174  0.5171
32917SOL     OW 5990   3.252   7.431   9.233  0.3171 -0.3159  0.2619
32917SOL    HW1 5991   3.255   7.462   9.143 -3.4991  0.4761  0.2636
32917SOL    HW2 5992   3.282   7.505   9.285 -2.9407  1.4296 -0.1233
32918SOL     OW 5993   7.834  12.192   6.373 -0.2973 -0.3592  0.2227
32918SOL    HW1 5994   7.873  12.228   6.452 -0.7993  0.5782  0.0574
32918SOL    HW2 5995   7.814  12.268   6.319 -1.6054 -0.8573 -0.0338
32919SOL     OW 5996   7.361   6.077   9.457  0.3990 -0.4927 -0.2326
32919SOL    HW1 5997   7.292   6.062   9.393 -2.2633  0.3991  2.2043
32919SOL    HW2 5998   7.394   5.990   9.478 -1.7316 -1.2361  0.2594
32920SOL     OW 5999   4.425   9.474  10.895  0.3017  0.0517 -0.1794
32920SOL    HW1 6000   4.493   9.514  10.949 -0.0960  0.7784 -0.2027
32920SOL    HW2 6001   4.367   9.547  10.871  1.1082 -0.0098 -2.5805
32921SOL     OW 6002   7.271   7.476   3.443  0.3209 -0.7365  0.1419
32921SOL    HW1 6003   7.334   7.409   3.415  1.1793 -0.1825  0.7062
32921SOL    HW2 6004   7.274   7.474   3.539 -1.7818 -1.8546  0.2471
32922SOL     OW 6005   2.009   6.619   5.498 -0.1925 -0.3512  0.5998
32922SOL    HW1 6006   1.988   6.532   5.464 -0.0251  0.2334 -1.0928
32922SOL    HW2 6007   1.986   6.679   5.427  1.2512  0.8488  1.0912
32923SOL     OW 6008   0.709   0.754  11.846 -0.0417  0.1737  0.1050
32923SOL    HW1 6009   0.652   0.739  11.771 -0.2206  2.6373 -0.3120
32923SOL    HW2 6010   0.668   0.705  11.918 -0.6850 -0.9789 -1.0009
32924SOL     OW 6011  10.138   4.636   1.502  0.3932 -0.2129  0.7770
32924SOL    HW1 6012  10.138   4.571   1.431 -0.5331 -0.7452  1.2570
32924SOL    HW2 6013  10.057   4.620   1.550  0.2780  1.1249  1.0733
32925SOL     OW 6014   5.451   3.668   2.359 -0.2628  0.0613  0.3314
32925SOL    HW1 6015   5.360   3.641   2.368 -0.7565  1.2401 -0.8740
32925SOL    HW2 6016   5.459   3.744   2.417  0.4581 -1.0488  1.7764
32926SOL     OW 6017   4.308   5.070   7.106 -0.0132 -0.3688  0.2859
32926SOL    HW1 6018   4.393   5.040   7.140  0.2877 -0.7257 -0.7403
32926SOL    HW2 6019   4.319   5.069   7.011 -1.1061 -0.2091  0.1501
32927SOL     OW 6020  11.660   0.333   9.999  0.3643  0.1935  0.0706
32927SOL    HW1 6021  11.653   0.241   9.975 -2.7146  0.2345  0.3694
32927SOL    HW2 6022  11.697   0.376   9.922  1.9489 -1.2590 -0.0205
32928SOL     OW 6023   9.050   5.080   1.288 -0.0129  0.4271 -0.0695
32928SOL    HW1 6024   9.120   5.066   1.352 -1.0688  1.6023  1.4389
32928SOL    HW2 6025   8.979   5.118   1.340 -2.4148 -2.2433 -1.2065
32929SOL     OW 6026   4.171  12.427   1.295 -0.0346  0.5931 -0.2139
32929SOL    HW1 6027   4.154  12.517   1.269 -2.6912 -0.1929 -1.6194
32929SOL    HW2 6028   4.171  12.429   1.391 -2.0365  1.8395 -0.1715
32930SOL     OW 6029   4.173   1.038  11.122  0.6690  0.2366 -0.0195
32930SOL    HW1 6030   4.229   0.977  11.074 -2.1482 -2.3973 -0.3202
32930SOL    HW2 6031   4.209   1.040  11.211  0.5794 -2.4688  0.1591
32931SOL     OW 6032   6.154   8.291  12.554 -0.7908 -0.3924 -0.4436
32931SOL    HW1 6033   6.096   8.288  12.478 -1.0045 -0.4949 -0.2741
32931SOL    HW2 6034   6.097   8.308  12.628 -0.5020  0.3401 -0.3868
32932SOL     OW 6035   8.140   3.922   4.639  0.7344  0.2257 -0.1406
32932SOL    HW1 6036   8.224   3.894   4.603 -0.1626 -1.0466 -1.3425
32932SOL    HW2 6037   8.164   3.975   4.715  2.6218  0.1692 -0.6268
32933SOL     OW 6038   0.867   1.892   0.288  0.3132 -0.5117 -0.0162
32933SOL    HW1 6039   0.951   1.914   0.248 -1.0684  1.5843 -1.9964
32933SOL    HW2 6040   0.825   1.835   0.225 -0.0128 -1.0652  0.6912
32934SOL     OW 6041   2.912  10.615   5.859  0.0048 -0.5039  0.6240
32934SOL    HW1 6042   2.924  10.520   5.858 -0.3978 -0.5823  2.0402
32934SOL    HW2 6043   2.971  10.646   5.927  1.3924  0.4850 -0.9233
32935SOL     OW 6044   0.306   3.669  11.569  0.2784 -0.3933 -0.8911
32935SOL    HW1 6045   0.215   3.669  11.538 -0.8474 -1.9396  2.0314
32935SOL    HW2 6046   0.336   3.759  11.556 -1.9155  0.3444 -1.2943
32936SOL     OW 6047   6.105   8.509   8.974 -0.1078 -0.2627 -0.0387
32936SOL    HW1 6048   6.043   8.581   8.971  1.1949  0.9235  0.3104
32936SOL    HW2 6049   6.096   8.471   9.061  0.3321  0.5473  0.3701
32937SOL     OW 6050   0.217   6.121   2.526 -0.0906 -0.6896 -0.3313
32937SOL    HW1 6051   0.222   6.188   2.457  0.8845 -0.5292 -0.1257
32937SOL    HW2 6052   0.268   6.157   2.598  2.1574 -2.4171 -0.9059
32938SOL     OW 6053  10.021   5.745  11.223 -0.4949  0.1825 -0.3140
32938SOL    HW1 6054  10.043   5.684  11.293 -0.6992  1.2173  0.7007
32938SOL    HW2 6055   9.948   5.705  11.176  0.3892 -1.0560 -0.6758
32939SOL     OW 6056   8.533  11.556   2.007 -0.2490  0.8036 -0.3739
32939SOL    HW1 6057   8.551  11.540   1.915 -0.9413  0.8603 -0.5263
32939SOL    HW2 6058   8.504  11.471   2.041 -0.1920  0.8294 -0.2616
32940SOL     OW 6059   8.804  11.145   9.308  0.7445  0.2625 -0.3739
32940SOL    HW1 6060   8.842  11.094   9.380  2.0013 -0.0874 -1.2536
32940SOL    HW2 6061   8.865  11.217   9.294 -0.2393  1.1698 -0.1595
32941SOL     OW 6062   4.066   2.712   6.441 -0.2532  0.1581  0.1244
32941SOL    HW1 6063   4.102   2.782   6.495 -0.7018  1.0501 -0.6996
32941SOL    HW2 6064   3.973   2.708   6.464  0.1662 -1.6446  1.7202
32942SOL     OW 6065  10.532  10.994  10.221 -0.6801 -0.0884 -0.9342
32942SOL    HW1 6066  10.521  11.057  10.150 -1.7962 -1.1779 -1.7723
32942SOL    HW2 6067  10.610  10.944  10.197 -0.8107 -0.1771 -1.1728
32943SOL     OW 6068   5.108   9.695  12.460  0.5425 -0.0466 -0.1240
32943SOL    HW1 6069   5.044   9.747  12.412  0.5983 -0.5238 -0.7211
32943SOL    HW2 6070   5.121   9.617  12.406 -1.5486 -2.0176  1.9712
32944SOL     OW 6071  12.508   7.877   5.812  0.3299 -0.5838  0.2038
32944SOL    HW1 6072  12.478   7.823   5.740  1.5968 -1.6268  0.4176
32944SOL    HW2 6073  12.603   7.865   5.813  0.4603  0.3377  1.3097
32945SOL     OW 6074  12.087   5.348   3.389  0.2735 -0.0215  0.4612
32945SOL    HW1 6075  12.058   5.334   3.479 -0.0717  0.1035  0.3737
32945SOL    HW2 6076  12.178   5.318   3.387  0.5041  0.6165  1.0246
32946SOL     OW 6077  11.160  11.133   6.182 -0.1959 -0.3473 -0.1123
32946SOL    HW1 6078  11.254  11.145   6.166 -0.2004 -1.0609 -0.7495
32946SOL    HW2 6079  11.133  11.214   6.226  0.7066 -0.1179  0.0472
32947SOL     OW 6080   5.982   8.312  12.361  0.1849  0.2429  0.6084
32947SOL    HW1 6081   5.953   8.398  12.330 -0.3233 -0.1694 -0.0696
32947SOL    HW2 6082   5.902   8.263  12.375  0.4848 -0.2309  0.6757
32948SOL     OW 6083   3.170  11.298   7.486 -0.0517  0.1793  0.0026
32948SOL    HW1 6084   3.095  11.342   7.445 -1.4282 -1.0778  1.0748
32948SOL    HW2 6085   3.143  11.207   7.494  1.2931 -0.1550  1.1090
32949SOL     OW 6086   8.271   0.779   8.995 -0.2524 -0.0628  0.4979
32949SOL    HW1 6087   8.242   0.708   9.052  0.5120 -0.3159  0.5886
32949SOL    HW2 6088   8.353   0.809   9.035  1.0260 -1.1470 -1.1716
32950SOL     OW 6089  12.016   6.756   5.837 -0.3997 -0.1928 -0.4679
32950SOL    HW1 6090  11.977   6.838   5.866 -1.1957 -0.5790 -0.3998
32950SOL    HW2 6091  12.106   6.759   5.869  0.2322  1.5237 -2.2028
32951SOL     OW 6092   5.396  12.138  10.246 -0.3229  0.1569  0.1233
32951SOL    HW1 6093   5.330  12.202  10.221 -0.5370 -0.4155 -0.8430
32951SOL    HW2 6094   5.383  12.066  10.184  0.8217 -0.2141  0.2997
32952SOL     OW 6095   0.517   1.095   5.550  0.2923  0.1344  0.7634
32952SOL    HW1 6096   0.434   1.047   5.546  0.7169 -0.5862  0.4709
32952SOL    HW2 6097   0.503   1.171   5.495 -0.5772  0.6553  1.6635
32953SOL     OW 6098   0.324   1.032   7.122 -0.0404  0.5910 -0.1075
32953SOL    HW1 6099   0.231   1.014   7.131 -0.5209  2.5102 -0.7536
32953SOL    HW2 6100   0.354   0.976   7.050 -0.8772  0.5616 -0.4347
32954SOL     OW 6101  10.130   7.493  11.335  0.1033  0.2421 -0.5366
32954SOL    HW1 6102  10.078   7.494  11.416 -1.5211 -2.0951 -1.4519
32954SOL    HW2 6103  10.087   7.556  11.278 -0.2853  0.0681 -0.4407
32955SOL     OW 6104   2.522   9.813   6.943  0.0441  0.1929  0.5285
32955SOL    HW1 6105   2.460   9.847   6.880 -1.4270 -0.7160  1.4125
32955SOL    HW2 6106   2.548   9.889   6.995 -1.1105  0.4403  0.7702
32956SOL     OW 6107   8.997   8.694   3.744 -0.1068  0.2118 -0.2804
32956SOL    HW1 6108   9.050   8.722   3.819  0.8628 -0.3862 -0.7334
32956SOL    HW2 6109   9.010   8.599   3.739  1.3269  0.4700 -2.3117
32957SOL     OW 6110   9.519  11.243   2.670  0.3191  0.4335  0.0757
32957SOL    HW1 6111   9.536  11.274   2.581  1.2274  0.1802  0.1455
32957SOL    HW2 6112   9.561  11.157   2.674 -1.4785 -0.4875  0.1362
32958SOL     OW 6113  12.045  12.323   8.904 -0.4708 -0.1444  0.3714
32958SOL    HW1 6114  12.107  12.279   8.846  0.3088  0.8692  0.4048
32958SOL    HW2 6115  12.017  12.254   8.965  0.9852 -0.5368  0.6513
32959SOL     OW 6116   6.293   3.594   6.656 -0.4066 -0.2285  0.6152
32959SOL    HW1 6117   6.346   3.671   6.677  0.2042 -0.9909  2.1149
32959SOL    HW2 6118   6.203   3.620   6.675 -0.4251  0.6560 -0.6209
32960SOL     OW 6119   9.867  11.640   3.234  0.0567  0.5987  0.3912
32960SOL    HW1 6120   9.823  11.562   3.201  1.1113  0.0434  0.2617
32960SOL    HW2 6121   9.946  11.647   3.182  1.2375  0.2993  2.0691
32961SOL     OW 6122   3.975   5.556   9.350  0.0159 -0.6624 -0.4970
32961SOL    HW1 6123   4.060   5.518   9.328  0.4746 -0.8983  1.5145
32961SOL    HW2 6124   3.990   5.602   9.433 -2.1910 -2.1524  0.8312
32962SOL     OW 6125   2.389   5.036   4.145  0.5957  0.0042  0.9667
32962SOL    HW1 6126   2.350   4.966   4.197 -0.3705  0.2722  0.6184
32962SOL    HW2 6127   2.318   5.099   4.132  0.7551 -0.1564 -0.8744
32963SOL     OW 6128  10.366   5.066   1.635 -0.7158  0.0805 -1.1499
32963SOL    HW1 6129  10.458   5.080   1.659 -0.8971 -1.7134  0.8062
32963SOL    HW2 6130  10.359   4.973   1.617 -2.6803 -0.4203  1.5444
32964SOL     OW 6131  11.285  10.348   7.745 -0.1355  0.0076 -0.0728
32964SOL    HW1 6132  11.336  10.323   7.822 -0.1120  1.1185  0.2945
32964SOL    HW2 6133  11.321  10.433   7.719 -1.4250  0.5603 -0.1322
32965SOL     OW 6134   0.278   0.792  11.729 -0.2105 -0.8419 -0.2743
32965SOL    HW1 6135   0.312   0.706  11.755 -0.9417 -0.6220  1.5891
32965SOL    HW2 6136   0.192   0.797  11.770  0.3781  1.3060  0.8863
32966SOL     OW 6137   1.978   4.815   7.948  0.3513  0.1464  0.0781
32966SOL    HW1 6138   1.958   4.869   8.024  1.8481  0.4819  0.2657
32966SOL    HW2 6139   2.039   4.748   7.981  2.9581  1.7188 -1.2290
32967SOL     OW 6140   4.217   9.925   5.898  0.0950  0.0837 -0.0956
32967SOL    HW1 6141   4.182   9.887   5.979  2.0474 -0.1678  0.6962
32967SOL    HW2 6142   4.204  10.020   5.909  0.7897  0.0976  0.7852
32968SOL     OW 6143   9.474   9.358   6.132  0.2159 -0.0921  0.2834
32968SOL    HW1 6144   9.525   9.359   6.051  0.4965  0.0542  0.4592
32968SOL    HW2 6145   9.404   9.294   6.116  1.0381 -1.0376  0.3983
32969SOL     OW 6146   1.506   4.704   1.096 -0.3343 -0.1729  0.2955
32969SOL    HW1 6147   1.547   4.750   1.022  0.2870 -2.1827 -0.6791
32969SOL    HW2 6148   1.567   4.717   1.169 -0.5570  1.1554  0.2727
32970SOL     OW 6149   0.950  10.516   0.753  0.1026  0.4055 -0.0375
32970SOL    HW1 6150   0.888  10.452   0.719 -0.3864  0.8148  0.0745
32970SOL    HW2 6151   1.030  10.465   0.768 -0.7515 -0.5529  1.5915
32971SOL     OW 6152   6.683   1.650  12.399 -0.5369  0.6607  0.1402
32971SOL    HW1 6153   6.637   1.631  12.481 -2.1306  1.6518 -0.4882
32971SOL    HW2 6154   6.619   1.634  12.330 -0.7080  3.9805 -0.6519
32972SOL     OW 6155  10.198   0.150   2.629  0.0031 -0.3081  0.4168
32972SOL    HW1 6156  10.192   0.150   2.533 -0.2385  1.6960  0.3941
32972SOL    HW2 6157  10.126   0.092   2.656 -1.1697  0.6016 -0.5910
32973SOL     OW 6158   0.052   7.856   5.323 -0.1540  0.1516 -0.2358
32973SOL    HW1 6159   0.075   7.763   5.324 -1.0879 -0.1249 -1.8984
32973SOL    HW2 6160  -0.042   7.858   5.341  0.0725  0.8758  0.9501
32974SOL     OW 6161   7.419   9.938   6.473 -0.0645 -0.3148  0.0532
32974SOL    HW1 6162   7.470   9.976   6.544  1.0612  0.9559 -1.3586
32974SOL    HW2 6163   7.418  10.005   6.405 -2.5299 -0.8125 -0.5271
32975SOL     OW 6164   0.071   5.625   7.635  0.1580 -0.0435  0.2457
32975SOL    HW1 6165   0.009   5.622   7.562  0.5290 -0.9294 -0.0444
32975SOL    HW2 6166   0.018   5.651   7.711  0.0129  2.2677 -0.5668
32976SOL     OW 6167   1.943  10.834   8.701  0.1991  0.0092  0.0316
32976SOL    HW1 6168   1.923  10.852   8.609  1.0390  0.4095 -0.0825
32976SOL    HW2 6169   1.864  10.862   8.748  0.5522  1.8323 -0.3732
32977SOL     OW 6170   8.484   8.566   7.968 -0.3062 -0.2567  0.0782
32977SOL    HW1 6171   8.424   8.497   7.942 -2.6657  1.7783 -0.2699
32977SOL    HW2 6172   8.563   8.551   7.915 -0.8361 -2.4445 -0.1723
32978SOL     OW 6173  12.550   7.211   2.179 -0.0555 -0.0684  0.1748
32978SOL    HW1 6174  12.547   7.115   2.183 -0.0990 -0.0114  1.9580
32978SOL    HW2 6175  12.605   7.229   2.102  0.9841 -1.5264  0.5180
32979SOL     OW 6176   7.188   0.994   5.326 -0.1921 -0.7521 -0.7633
32979SOL    HW1 6177   7.243   0.959   5.256  0.0174 -1.0407 -0.4607
32979SOL    HW2 6178   7.183   1.088   5.309 -0.6285 -0.9028 -1.4976
32980SOL     OW 6179   4.877   1.520   0.245  0.0470 -0.4217 -0.5081
32980SOL    HW1 6180   4.959   1.556   0.278 -0.3847  0.9417 -0.8428
32980SOL    HW2 6181   4.813   1.539   0.314  0.0407 -1.6475 -0.1649
32981SOL     OW 6182  12.182  12.678   3.466  0.6171  0.2471  0.1427
32981SOL    HW1 6183  12.144  12.763   3.446  1.6367  0.9659  1.1542
32981SOL    HW2 6184  12.273  12.685   3.438  0.8990 -0.2586  0.8999
32982SOL     OW 6185   2.138   8.438  10.658 -0.1960  0.0032 -0.7464
32982SOL    HW1 6186   2.233   8.422  10.656 -0.0102  0.7966  0.4432
32982SOL    HW2 6187   2.129   8.533  10.650 -0.9813 -0.1817 -2.2548
32983SOL     OW 6188   3.383   9.243   1.053 -0.4210  0.6522  0.4636
32983SOL    HW1 6189   3.335   9.186   1.113  1.0676 -0.6978  0.4443
32983SOL    HW2 6190   3.326   9.251   0.976 -2.2094  2.1394  1.8527
32984SOL     OW 6191  11.831   6.077   9.520 -0.7951 -0.3517  0.5512
32984SOL    HW1 6192  11.871   5.996   9.488 -1.6586 -0.5418 -0.0940
32984SOL    HW2 6193  11.748   6.083   9.472 -0.6980  0.9711  0.5177
32985SOL     OW 6194   0.137   3.326   3.071 -0.4077 -0.1231  0.5678
32985SOL    HW1 6195   0.143   3.342   3.165 -1.9390 -0.1109  0.6915
32985SOL    HW2 6196   0.048   3.354   3.047 -1.1719 -2.9201 -0.2878
32986SOL     OW 6197  12.208  11.409   5.568 -0.6002 -0.2513 -0.6580
32986SOL    HW1 6198  12.161  11.489   5.544 -0.6316  0.0777  0.4224
32986SOL    HW2 6199  12.258  11.433   5.646  1.9039 -0.4062 -2.1138
32987SOL     OW 6200   3.366   4.583   1.856  0.3668 -0.1231  0.1613
32987SOL    HW1 6201   3.427   4.656   1.849 -0.2299  0.2949 -0.8958
32987SOL    HW2 6202   3.310   4.591   1.778 -0.4925 -0.9825  0.6719
32988SOL     OW 6203   7.928   1.821   8.358 -0.2567 -0.2266  0.4657
32988SOL    HW1 6204   7.889   1.744   8.317 -0.2620 -0.7999  1.5178
32988SOL    HW2 6205   8.022   1.810   8.342 -0.4055  0.8670 -1.5723
32989SOL     OW 6206   6.652   0.570   2.271 -0.1944 -0.1908 -0.3597
32989SOL    HW1 6207   6.703   0.650   2.255 -0.1950 -0.1314 -0.0640
32989SOL    HW2 6208   6.618   0.546   2.185 -0.1096  0.0716 -0.4674
32990SOL     OW 6209   0.433   5.885   9.864 -0.0791  0.1629 -0.4482
32990SOL    HW1 6210   0.418   5.888   9.769  2.0891  1.8826 -0.7935
32990SOL    HW2 6211   0.527   5.874   9.873 -0.3345 -0.7595  1.5612
32991SOL     OW 6212   0.776   4.983   3.594 -0.7443  0.3648  0.9727
32991SOL    HW1 6213   0.859   4.943   3.621 -0.2106  0.9349  0.2017
32991SOL    HW2 6214   0.745   4.928   3.523 -0.9671  0.2249  1.1776
32992SOL     OW 6215   2.374   1.756   1.537 -0.0120  0.8897  0.7007
32992SOL    HW1 6216   2.283   1.740   1.509  1.0875  0.1844 -3.1800
32992SOL    HW2 6217   2.389   1.848   1.518  0.5884  0.5403 -0.6639
32993SOL     OW 6218   5.749   5.164  10.733  0.2534  0.2443 -0.4533
32993SOL    HW1 6219   5.686   5.095  10.711  2.1064 -1.8614  0.5091
32993SOL    HW2 6220   5.823   5.148  10.676  0.5706  1.7074 -0.4772
32994SOL     OW 6221   2.735   9.626  10.947  0.5940 -0.3282  0.3317
32994SOL    HW1 6222   2.812   9.678  10.968  0.8458 -0.9674  1.0750
32994SOL    HW2 6223   2.760   9.536  10.969  0.3332 -0.8463 -1.3569
32995SOL     OW 6224   0.322   0.228   8.656  0.1407 -0.0373  0.1501
32995SOL    HW1 6225   0.383   0.282   8.706 -0.1185 -0.6194  1.1377
32995SOL    HW2 6226   0.354   0.232   8.566  0.4853  1.2381  0.3034
32996SOL     OW 6227   0.625  10.843   1.230  0.5152 -0.2159 -0.0405
32996SOL    HW1 6228   0.701  10.831   1.287  0.6448  0.5898 -0.0310
32996SOL    HW2 6229   0.586  10.756   1.223  1.4387 -0.6431 -0.0522
32997SOL     OW 6230   1.053  10.756   4.838 -0.0517 -0.3681 -0.1539
32997SOL    HW1 6231   0.958  10.760   4.823 -0.0678  0.0540  0.0429
32997SOL    HW2 6232   1.062  10.739   4.931  0.0513 -2.7838 -0.5219
32998SOL     OW 6233   3.769   8.931   9.429  0.3396  0.2141 -0.3340
32998SOL    HW1 6234   3.761   9.015   9.474  0.2863  0.0444 -0.0186
32998SOL    HW2 6235   3.863   8.911   9.431  0.2977  0.0421  0.0130
32999SOL     OW 6236  12.688   9.406   0.294  0.7270 -0.0850  0.5118
32999SOL    HW1 6237  12.622   9.405   0.364  1.6133 -0.7922  1.3617
32999SOL    HW2 6238  12.638   9.389   0.214 -0.4054  1.3683  0.8556
33000SOL     OW 6239  11.778  10.708   3.212 -0.1256  0.3849 -0.5033
33000SOL    HW1 6240  11.838  10.718   3.138  0.2960 -1.0375 -0.3788
33000SOL    HW2 6241  11.692  10.729   3.176  0.0735 -0.3255 -1.4084
33001SOL     OW 6242  10.295  11.812   2.833 -0.0954 -0.3802 -0.4206
33001SOL    HW1 6243  10.322  11.757   2.907  0.1833  0.1055 -0.1616
33001SOL    HW2 6244  10.263  11.893   2.873 -1.3025 -0.6748 -0.7553
33002SOL     OW 6245   8.443  10.235   4.728 -0.4716 -0.4435 -0.1700
33002SOL    HW1 6246   8.459  10.143   4.712  0.4232 -0.2506 -0.4723
33002SOL    HW2 6247   8.530  10.276   4.721 -0.8294  0.3938  0.0970
33003SOL     OW 6248   2.183   9.786   3.663  0.1179  0.2596  0.2033
33003SOL    HW1 6249   2.258   9.832   3.627 -0.1426  1.2425  0.8718
33003SOL    HW2 6250   2.208   9.693   3.660  0.9028  0.4834 -0.5824
33004SOL     OW 6251   0.759   1.419  11.082 -0.8379 -0.7588 -0.1327
33004SOL    HW1 6252   0.773   1.324  11.083 -1.3226 -0.8361  0.1733
33004SOL    HW2 6253   0.698   1.433  11.010  0.6499 -0.4479 -1.3552
33005SOL     OW 6254   8.602   2.913   5.214 -0.1356 -0.4241 -0.6278
33005SOL    HW1 6255   8.545   2.954   5.280  0.2702  0.2783 -0.7050
33005SOL    HW2 6256   8.685   2.900   5.260  0.2253  0.2905 -1.0648
33006SOL     OW 6257  12.100   2.194  11.430 -0.4555 -0.9344 -0.3310
33006SOL    HW1 6258  12.192   2.209  11.409  0.0334 -1.5262  1.2434
33006SOL    HW2 6259  12.058   2.176  11.346  1.2773 -2.7289 -0.8795
33007SOL     OW 6260   2.103   0.258   1.901  0.1234 -0.1273 -0.9724
33007SOL    HW1 6261   2.094   0.264   1.806 -2.4187 -2.0957 -0.9487
33007SOL    HW2 6262   2.014   0.252   1.934  0.9680 -1.7324  1.3242
33008SOL     OW 6263   9.891   2.880   2.819  0.6454 -0.1364 -0.7146
33008SOL    HW1 6264   9.811   2.931   2.813  0.1727 -0.7547  0.1670
33008SOL    HW2 6265   9.881   2.811   2.753  2.2163  2.0632 -3.4726
33009SOL     OW 6266   6.942  10.262   8.711 -0.0968  0.8922  0.3603
33009SOL    HW1 6267   6.996  10.204   8.765  0.3675  1.2367  0.2699
33009SOL    HW2 6268   6.852  10.235   8.729  0.1460 -0.8221 -0.7444
33010SOL     OW 6269   7.550   2.048   9.923  0.1255 -0.1196 -0.2347
33010SOL    HW1 6270   7.460   2.064   9.895 -0.1113  0.2422  0.7076
33010SOL    HW2 6271   7.542   1.984   9.994  0.8386 -2.3574 -2.0419
33011SOL     OW 6272   0.995  12.543   2.736  0.0413  0.1485  0.0452
33011SOL    HW1 6273   1.077  12.529   2.782  0.5340  0.0852 -0.8186
33011SOL    HW2 6274   1.001  12.633   2.702 -0.3648  0.2411  0.2108
33012SOL     OW 6275  12.467  11.155   2.739 -0.4779 -0.4624 -0.2784
33012SOL    HW1 6276  12.387  11.106   2.718 -1.8417  1.2219  0.7136
33012SOL    HW2 6277  12.440  11.216   2.807  1.2106  1.4844 -1.2686
33013SOL     OW 6278   4.979   6.946   1.373 -0.5650 -0.4654  0.2627
33013SOL    HW1 6279   5.056   6.986   1.413 -0.8642  0.2836  0.0971
33013SOL    HW2 6280   5.000   6.852   1.369  0.2290 -0.3002  0.4504
33014SOL     OW 6281   4.536   7.724   2.577  0.6490  0.0656 -0.4356
33014SOL    HW1 6282   4.564   7.741   2.667  1.3336  0.9400 -0.8058
33014SOL    HW2 6283   4.588   7.783   2.523  0.7616 -0.9447 -1.4829
33015SOL     OW 6284  11.158   4.047   4.913 -0.0605 -0.0997  0.6863
33015SOL    HW1 6285  11.250   4.051   4.887 -0.8526 -1.5623 -2.8686
33015SOL    HW2 6286  11.144   3.955   4.934 -1.5836 -0.9551 -3.2485
33016SOL     OW 6287   1.490   5.171   8.170 -0.4558  0.2225 -0.6410
33016SOL    HW1 6288   1.561   5.114   8.141 -1.0511 -0.1097 -1.4932
33016SOL    HW2 6289   1.418   5.112   8.192 -1.2910  0.6349 -2.1172
33017SOL     OW 6290  11.761  11.904   7.497 -0.0131 -0.3078  0.3820
33017SOL    HW1 6291  11.724  11.907   7.409  0.8907 -2.1043 -0.1035
33017SOL    HW2 6292  11.707  11.965   7.548 -1.7664 -0.6557 -0.9527
33018SOL     OW 6293   1.146   0.524   4.703  0.2378 -0.1286  0.1789
33018SOL    HW1 6294   1.098   0.591   4.654  0.2272 -0.5183 -0.3525
33018SOL    HW2 6295   1.078   0.469   4.742  0.2430  0.3571  0.8880
33019SOL     OW 6296   7.156   9.093   6.584 -0.8412  0.6477  0.3634
33019SOL    HW1 6297   7.106   9.094   6.503 -2.3941 -1.2750  1.2144
33019SOL    HW2 6298   7.101   9.045   6.646  0.8814  0.8615  2.1812
33020SOL     OW 6299   9.284  12.285   0.761  0.4185  0.0102  0.2235
33020SOL    HW1 6300   9.235  12.203   0.763  1.5087 -0.6737  0.2016
33020SOL    HW2 6301   9.249  12.332   0.686  0.5218 -0.9403 -0.4511
33021SOL     OW 6302   7.904  10.771   8.570  0.2082  0.2607  0.7331
33021SOL    HW1 6303   7.854  10.728   8.639  0.3307 -1.6031 -0.2865
33021SOL    HW2 6304   7.987  10.724   8.567  0.4904  0.7814 -0.1957
33022SOL     OW 6305   3.761   9.875   8.940  1.0218  0.1445 -0.3058
33022SOL    HW1 6306   3.710   9.843   9.015 -1.8458  0.8418 -1.8277
33022SOL    HW2 6307   3.783   9.796   8.891 -1.1965 -0.0563 -1.1104
33023SOL     OW 6308   3.350  11.137   1.491 -0.0725 -0.0980 -0.2126
33023SOL    HW1 6309   3.410  11.187   1.546  0.6731  0.3661 -1.4151
33023SOL    HW2 6310   3.301  11.203   1.442 -1.4722 -0.4742  0.6268
33024SOL     OW 6311   5.894   6.620   8.501 -0.4545 -0.0182  0.2399
33024SOL    HW1 6312   5.966   6.558   8.516 -0.4056 -0.0119  0.0384
33024SOL    HW2 6313   5.938   6.702   8.479 -0.5269 -0.2701 -0.8943
33025SOL     OW 6314   5.155   3.664   0.367 -0.0052  0.5065 -0.1689
33025SOL    HW1 6315   5.174   3.755   0.342 -0.1992  1.1384  1.8149
33025SOL    HW2 6316   5.241   3.622   0.371  0.2582  1.0895  0.5843
33026SOL     OW 6317   8.691   2.530   2.300  0.0389  0.6668  0.3347
33026SOL    HW1 6318   8.615   2.569   2.257  0.2279 -1.1659 -1.8344
33026SOL    HW2 6319   8.766   2.577   2.262  0.1088  0.8057  0.6370
33027SOL     OW 6320   6.880   6.962   8.465 -0.9924 -0.3823  0.2664
33027SOL    HW1 6321   6.935   6.916   8.401 -1.2353  2.1275 -1.9051
33027SOL    HW2 6322   6.939   6.979   8.539  0.5957  0.3583 -1.1031
33028SOL     OW 6323   8.161  12.198   1.724  0.4032  0.0627 -0.4568
33028SOL    HW1 6324   8.233  12.144   1.691  0.5142 -0.1001  0.0433
33028SOL    HW2 6325   8.108  12.138   1.777 -0.3936  0.0594 -1.2399
33029SOL     OW 6326   8.331  11.126   6.763 -0.0483 -0.6108  0.0423
33029SOL    HW1 6327   8.424  11.117   6.785  0.1470  0.1034 -0.4544
33029SOL    HW2 6328   8.331  11.156   6.672 -0.7628 -0.5778  0.0498
33030SOL     OW 6329  12.598  11.037   1.623  0.2715  1.0001  0.1579
33030SOL    HW1 6330  12.554  11.116   1.591  1.3162  1.4344 -0.2504
33030SOL    HW2 6331  12.668  11.070   1.679 -0.2307  0.3013  1.2312
33031SOL     OW 6332   9.502   3.297   7.866  0.3443 -0.4631 -0.3738
33031SOL    HW1 6333   9.520   3.227   7.802  0.0125 -0.1479 -0.8176
33031SOL    HW2 6334   9.527   3.378   7.820  2.2444 -0.3822  0.6868
33032SOL     OW 6335  11.869   9.404   6.232 -0.3557 -0.1176 -0.1469
33032SOL    HW1 6336  11.842   9.495   6.249 -0.0944  0.0428 -0.5745
33032SOL    HW2 6337  11.899   9.405   6.141  0.0445 -0.5381 -0.0228
33033SOL     OW 6338   7.654  11.906   7.868 -0.2401 -0.0292 -0.2587
33033SOL    HW1 6339   7.594  11.928   7.940  0.9908 -1.2391  1.2004
33033SOL    HW2 6340   7.652  11.983   7.811 -0.8418  1.1974  1.3409
33034SOL     OW 6341   3.315  11.496  10.218  0.4087  0.3144 -0.1329
33034SOL    HW1 6342   3.311  11.562  10.149 -1.6862 -0.4953 -0.8789
33034SOL    HW2 6343   3.384  11.436  10.188  1.6389  1.5802  0.0605
33035SOL     OW 6344   8.972   2.141   8.150 -0.1505  0.2285  0.0821
33035SOL    HW1 6345   9.009   2.228   8.139  0.5619  0.1300  1.4700
33035SOL    HW2 6346   8.881   2.157   8.174  0.9059  0.9015  4.6058
33036SOL     OW 6347   4.079   7.115   5.132  0.0095 -0.3353  0.0063
33036SOL    HW1 6348   4.034   7.199   5.133 -0.0767 -0.3276 -1.7889
33036SOL    HW2 6349   4.023   7.058   5.080  0.6892 -1.1400  0.1347
33037SOL     OW 6350  10.053   1.044   6.760  0.1956 -0.0048 -0.3991
33037SOL    HW1 6351  10.042   1.102   6.836  2.3977 -1.5755  1.2511
33037SOL    HW2 6352   9.968   1.001   6.750 -0.1216  0.1462  1.2773
33038SOL     OW 6353  10.619   0.475   6.836 -0.1028  0.1604  0.2362
33038SOL    HW1 6354  10.684   0.434   6.893 -0.2724  1.5717  1.5010
33038SOL    HW2 6355  10.557   0.516   6.896 -1.2674  0.2237 -0.9651
33039SOL     OW 6356   0.680   6.132   5.146 -0.1145 -0.1000  0.1421
33039SOL    HW1 6357   0.690   6.183   5.226  0.7583  0.3025 -0.2056
33039SOL    HW2 6358   0.608   6.174   5.099  0.3979  0.6400 -0.0005
33040SOL     OW 6359  11.958   2.584   3.388 -0.6123 -0.0598  0.3870
33040SOL    HW1 6360  11.994   2.497   3.409  2.1078  0.6915 -0.6307
33040SOL    HW2 6361  12.010   2.613   3.313 -2.7554  1.6884 -0.5371
33041SOL     OW 6362  11.538   5.612  10.289 -0.3451 -0.6313  0.2643
33041SOL    HW1 6363  11.612   5.667  10.262 -1.4745  0.7747 -0.1128
33041SOL    HW2 6364  11.549   5.531  10.239  2.5729 -1.7517  2.4221
33042SOL     OW 6365   9.452   2.828   2.735 -0.3942  0.3465  0.4415
33042SOL    HW1 6366   9.361   2.806   2.712  0.0607 -1.2837  0.0619
33042SOL    HW2 6367   9.504   2.757   2.697  1.1279  1.6013  0.0709
33043SOL     OW 6368   5.044   4.030   8.341  0.2647 -0.0562  0.4725
33043SOL    HW1 6369   5.066   4.069   8.256  0.6131 -0.7099  0.2490
33043SOL    HW2 6370   4.990   4.096   8.385  0.5555  0.5268 -0.0234
33044SOL     OW 6371   3.200   2.805  10.062 -0.3496  0.2881  0.2248
33044SOL    HW1 6372   3.145   2.763  10.128  1.7316 -0.3851  1.6288
33044SOL    HW2 6373   3.289   2.774  10.081  0.3767  0.0952 -2.8747
33045SOL     OW 6374  12.530   8.020   6.692 -0.8062 -0.6827 -0.4018
33045SOL    HW1 6375  12.587   8.060   6.627 -1.0814  0.7585  0.1911
33045SOL    HW2 6376  12.442   8.046   6.665 -0.9545 -0.4553  0.2672
33046SOL     OW 6377  11.943   0.546   2.019  0.1460  0.1685 -0.5333
33046SOL    HW1 6378  11.937   0.614   1.952 -0.3094 -0.4928 -1.1864
33046SOL    HW2 6379  12.018   0.493   1.992  1.1581  0.9948  0.5515
33047SOL     OW 6380   6.321   5.473   1.277 -0.0826  0.5081  0.5713
33047SOL    HW1 6381   6.410   5.485   1.311  1.0582  0.7796 -2.2594
33047SOL    HW2 6382   6.316   5.380   1.255  0.2234  0.8225 -0.9696
33048SOL     OW 6383   6.215   0.558   7.813 -0.1329 -0.5383 -0.3511
33048SOL    HW1 6384   6.191   0.534   7.723 -1.1091  0.7959 -0.4780
33048SOL    HW2 6385   6.154   0.510   7.868  0.3079 -1.1716 -0.4139
33049SOL     OW 6386   1.389   6.105  12.431  0.3822  0.0666  0.3878
33049SOL    HW1 6387   1.437   6.099  12.348 -0.4724  0.5504 -0.1584
33049SOL    HW2 6388   1.423   6.184  12.473  1.7008 -0.8383  1.1009
33050SOL     OW 6389   8.870  11.285   6.336 -0.2636 -0.1384  0.2447
33050SOL    HW1 6390   8.824  11.362   6.305  0.2985  0.3265  0.5487
33050SOL    HW2 6391   8.949  11.281   6.283 -0.3941 -0.6344  0.0790
33051SOL     OW 6392   2.243  10.627   1.141  0.1137 -0.1802 -0.3373
33051SOL    HW1 6393   2.328  10.650   1.178  0.3541 -0.8958 -0.4307
33051SOL    HW2 6394   2.199  10.711   1.128  0.3450  0.1368  0.8094
33052SOL     OW 6395   2.911  12.599   4.010  0.6211  0.1768 -0.5130
33052SOL    HW1 6396   2.890  12.664   4.077  0.8258  1.3149 -1.5024
33052SOL    HW2 6397   3.003  12.617   3.988  0.8925 -0.9194 -0.3197
33053SOL     OW 6398  11.017   7.875   3.475  0.7145  0.1326  0.4817
33053SOL    HW1 6399  10.975   7.951   3.435 -1.7066 -1.2519  0.2157
33053SOL    HW2 6400  11.056   7.828   3.402 -0.6392 -0.5425  0.1556
33054SOL     OW 6401   9.973  11.770   5.663 -0.0393  0.3007 -0.6144
33054SOL    HW1 6402  10.011  11.798   5.746 -2.0426  0.1189  0.4182
33054SOL    HW2 6403   9.879  11.766   5.679 -0.4324 -0.3813 -2.7128
33055SOL     OW 6404   1.749   7.760   1.576  0.1058  0.2163  0.1487
33055SOL    HW1 6405   1.688   7.751   1.503 -2.1080  0.6236  1.8301
33055SOL    HW2 6406   1.810   7.829   1.549  1.4810 -1.8518 -2.5676
33056SOL     OW 6407   4.186   4.242   9.155 -0.1415  0.0723  0.1459
33056SOL    HW1 6408   4.158   4.151   9.142 -1.1162  0.2951  0.5893
33056SOL    HW2 6409   4.194   4.251   9.250  2.8305 -0.3589  0.0222
33057SOL     OW 6410   9.585   8.028   1.582 -0.5060  0.0954 -0.2142
33057SOL    HW1 6411   9.546   8.024   1.494 -1.6038 -0.4189  0.2830
33057SOL    HW2 6412   9.634   7.946   1.590  0.6267  0.6874 -0.7920
33058SOL     OW 6413   5.512   6.359   9.119  0.0395  0.6050 -0.0325
33058SOL    HW1 6414   5.594   6.376   9.074  1.9639  1.4517  3.4529
33058SOL    HW2 6415   5.473   6.285   9.072  3.5070 -0.7894 -0.9757
33059SOL     OW 6416   7.895   6.760   5.275 -0.1739  0.5171 -0.3172
33059SOL    HW1 6417   7.910   6.684   5.219  1.6173 -0.1699  0.9865
33059SOL    HW2 6418   7.947   6.742   5.354 -2.3223  1.5687  1.4531
33060SOL     OW 6419   0.768   4.025   2.634  0.4605  0.3340  0.3483
33060SOL    HW1 6420   0.834   3.978   2.684  1.1991 -0.6811 -1.4708
33060SOL    HW2 6421   0.713   3.957   2.597  0.9326  0.8991 -1.5113
33061SOL     OW 6422   6.762   0.592   5.370 -0.2349 -0.0872  0.4442
33061SOL    HW1 6423   6.717   0.607   5.287  0.5170  0.3326  0.1034
33061SOL    HW2 6424   6.807   0.508   5.358  1.1149  0.6974 -0.1430
33062SOL     OW 6425   1.520   2.680   8.346  0.8370  0.1734 -0.3551
33062SOL    HW1 6426   1.463   2.750   8.376  0.3873 -0.0720 -0.6272
33062SOL    HW2 6427   1.553   2.711   8.261  3.0141  1.3835  0.8344
33063SOL     OW 6428   0.035   1.657   1.957 -0.2349  0.3650  0.3720
33063SOL    HW1 6429   0.129   1.654   1.940 -0.2602  0.4540  0.2087
33063SOL    HW2 6430   0.023   1.605   2.036  0.2095  1.9113  1.5216
33064SOL     OW 6431   4.770  12.211  10.287 -0.1409  0.4202  0.6395
33064SOL    HW1 6432   4.678  12.194  10.266 -0.4372  1.4542  1.0683
33064SOL    HW2 6433   4.786  12.300  10.257 -0.0851  1.2900  3.0444
33065SOL     OW 6434   8.778   8.863  11.492 -0.0966  0.1305  0.4040
33065SOL    HW1 6435   8.830   8.815  11.428 -0.3107  0.1802  0.1910
33065SOL    HW2 6436   8.833   8.937  11.518  0.1138 -0.0615  0.5075
33066SOL     OW 6437   8.651   6.748  12.199  0.2017 -0.3352  1.1700
33066SOL    HW1 6438   8.618   6.789  12.119  4.9861  0.3773 -0.7510
33066SOL    HW2 6439   8.590   6.777  12.267 -3.5928 -0.1956 -1.9329
33067SOL     OW 6440   1.101   7.683   7.434 -0.2190 -0.0214 -0.0700
33067SOL    HW1 6441   1.018   7.639   7.453  0.1610 -1.6750 -1.9115
33067SOL    HW2 6442   1.077   7.774   7.416 -1.4583 -0.2049  0.5382
33068SOL     OW 6443  11.702   2.976   0.855  0.5504 -0.2439 -0.1624
33068SOL    HW1 6444  11.686   3.054   0.907 -4.1035 -2.3747  2.2302
33068SOL    HW2 6445  11.757   2.921   0.911  0.8468 -0.0584 -0.2734
33069SOL     OW 6446   8.332   5.706   0.625 -0.0724  0.0314  0.1631
33069SOL    HW1 6447   8.407   5.747   0.583 -1.1739  1.5394 -0.4558
33069SOL    HW2 6448   8.285   5.662   0.553  0.8601 -2.0392  0.7503
33070SOL     OW 6449  10.426   3.122   0.447 -0.2047  0.0578  0.4599
33070SOL    HW1 6450  10.457   3.168   0.369 -0.7998 -1.0664 -0.4620
33070SOL    HW2 6451  10.354   3.067   0.417  0.5728 -1.6284  1.4647
33071SOL     OW 6452   3.204   4.975   4.396 -0.1594  0.2104  0.0225
33071SOL    HW1 6453   3.175   5.031   4.324 -0.6999 -0.4712 -0.2976
33071SOL    HW2 6454   3.205   5.034   4.472  0.7669  1.0163 -0.6007
33072SOL     OW 6455   5.953   4.049   7.845  0.1066  0.9845  0.0009
33072SOL    HW1 6456   6.028   4.019   7.896 -0.1882 -1.8700 -1.0254
33072SOL    HW2 6457   5.941   4.141   7.870  3.2694  1.2519  0.9602
33073SOL     OW 6458  12.274   8.279  11.046 -0.0874  0.4508 -0.5838
33073SOL    HW1 6459  12.189   8.284  11.090  0.6062 -0.8234  1.0185
33073SOL    HW2 6460  12.338   8.294  11.115  1.0197  2.6324 -1.9937
33074SOL     OW 6461   8.759  12.403  12.489 -0.2724 -0.5448 -0.2646
33074SOL    HW1 6462   8.750  12.459  12.412 -0.2222  1.6155  1.2077
33074SOL    HW2 6463   8.842  12.356  12.475 -0.9847 -1.3223 -2.1521
33075SOL     OW 6464   8.183   7.332   7.267 -0.3158 -0.3763  0.2365
33075SOL    HW1 6465   8.134   7.271   7.322 -1.8439 -0.0451 -0.6756
33075SOL    HW2 6466   8.275   7.317   7.289 -0.8085 -1.0152  2.0503
33076SOL     OW 6467   8.813   2.987   5.644  0.3509 -0.0139 -0.3145
33076SOL    HW1 6468   8.893   3.004   5.693  0.6748 -0.1342 -0.7992
33076SOL    HW2 6469   8.756   3.062   5.663  0.9951  0.6187 -0.8479
33077SOL     OW 6470   0.231   1.531  11.370 -0.9266 -0.0357  0.3570
33077SOL    HW1 6471   0.213   1.586  11.293  1.9732  1.4894  0.5878
33077SOL    HW2 6472   0.207   1.443  11.343  0.8332  0.2867 -2.7540
33078SOL     OW 6473  12.022   0.159   0.056  0.3645  0.0817 -0.0510
33078SOL    HW1 6474  11.976   0.234   0.019  0.2483 -0.3374 -0.7981
33078SOL    HW2 6475  12.079   0.195   0.123 -0.2135  0.7489  0.0895
33079SOL     OW 6476   1.381  10.874   6.041 -0.0995 -0.3339  0.3812
33079SOL    HW1 6477   1.374  10.894   6.134 -0.1915 -0.3049  0.3672
33079SOL    HW2 6478   1.473  10.851   6.028 -0.1433 -0.6067  0.5351
33080SOL     OW 6479   9.152  11.325   9.686  0.0469 -0.0862 -0.2253
33080SOL    HW1 6480   9.088  11.384   9.725  1.3932  1.0500  0.3756
33080SOL    HW2 6481   9.146  11.245   9.738  0.4731  0.7291  1.1502
33081SOL     OW 6482  11.970   0.513   9.164 -0.5336 -0.2032  0.1517
33081SOL    HW1 6483  12.045   0.502   9.223  0.5173 -1.4839 -1.3259
33081SOL    HW2 6484  11.913   0.575   9.209  0.6337 -0.4409  2.0803
33082SOL     OW 6485  12.261   1.630   5.474  0.1767 -0.3322 -0.2009
33082SOL    HW1 6486  12.176   1.590   5.491  0.0014  0.6531  1.5558
33082SOL    HW2 6487  12.325   1.567   5.508  0.0082 -0.0251  0.7058
33083SOL     OW 6488   8.939   0.073   8.026  0.2594  0.2012 -0.7624
33083SOL    HW1 6489   8.888   0.136   8.078 -0.4180  0.4857 -1.7487
33083SOL    HW2 6490   9.017   0.056   8.079  0.5951  2.0908 -0.5831
33084SOL     OW 6491   0.591  12.381   0.119  0.3816  0.2348  0.0139
33084SOL    HW1 6492   0.563  12.377   0.028  0.3589 -0.0694  0.0330
33084SOL    HW2 6493   0.510  12.399   0.168  0.3738  0.2770 -0.0146
33085SOL     OW 6494   8.420   3.837  11.122 -0.4191  0.5920  0.1782
33085SOL    HW1 6495   8.347   3.846  11.061 -1.0869 -0.7443  0.7354
33085SOL    HW2 6496   8.492   3.801  11.069 -0.4580  1.0368 -0.1771
33086SOL     OW 6497   8.292  11.520  11.661  0.3635  0.0341 -0.3738
33086SOL    HW1 6498   8.340  11.533  11.743 -0.7675  1.5293  0.1203
33086SOL    HW2 6499   8.236  11.444  11.678  0.2415  0.2446  0.2274
33087SOL     OW 6500   7.219   7.274   4.035  0.1855  0.5121  0.3488
33087SOL    HW1 6501   7.280   7.346   4.022  0.9892 -0.2452 -0.2531
33087SOL    HW2 6502   7.146   7.292   3.975  0.4269  0.7714  0.1358
33088SOL     OW 6503   1.637   4.845   1.716 -0.5408  0.2965  0.7736
33088SOL    HW1 6504   1.714   4.876   1.763 -1.8630  2.1330  1.8499
33088SOL    HW2 6505   1.565   4.853   1.778 -1.9899  0.7177 -0.8662
33089SOL     OW 6506  11.827   8.223   4.261 -0.2077 -0.4375  0.5812
33089SOL    HW1 6507  11.905   8.168   4.260 -0.0756 -0.2458 -0.6734
33089SOL    HW2 6508  11.847   8.296   4.203 -2.0409 -1.4338 -1.4553
33090SOL     OW 6509   6.472   2.468  10.102 -0.2693 -0.4786 -0.1108
33090SOL    HW1 6510   6.545   2.426  10.147  1.1224 -0.2958 -2.0815
33090SOL    HW2 6511   6.482   2.561  10.122  0.0042 -0.4597 -0.3407
33091SOL     OW 6512   3.813   8.520   0.184 -0.3553  0.4184  0.8664
33091SOL    HW1 6513   3.850   8.545   0.099  1.1696 -1.9174  0.7527
33091SOL    HW2 6514   3.764   8.597   0.212 -0.9314  1.2644 -2.1130
33092SOL     OW 6515   1.450   1.850   7.220 -0.2629  0.2551  0.2627
33092SOL    HW1 6516   1.411   1.848   7.133 -0.7098 -1.3989  0.4564
33092SOL    HW2 6517   1.519   1.917   7.214 -1.1251  1.0782 -0.9610
33093SOL     OW 6518   5.206   9.234   2.317  0.1646  0.7546 -0.1471
33093SOL    HW1 6519   5.186   9.145   2.346 -1.6175  1.7527  2.0389
33093SOL    HW2 6520   5.298   9.247   2.340 -0.3099  0.3649  2.1729
33094SOL     OW 6521   0.948   2.541  10.395  0.0903  0.1604 -0.0736
33094SOL    HW1 6522   0.965   2.466  10.337  0.8065  0.8879 -0.8325
33094SOL    HW2 6523   0.992   2.518  10.477 -0.3485 -0.5759 -0.0323
33095SOL     OW 6524   6.222   4.463   2.302  0.0992  0.4862  0.1474
33095SOL    HW1 6525   6.210   4.454   2.207 -1.1773 -1.3703  0.4354
33095SOL    HW2 6526   6.230   4.558   2.316 -0.5425  0.8623 -1.7031
33096SOL     OW 6527   4.009  12.623   1.635  0.8542 -0.0102 -0.3294
33096SOL    HW1 6528   4.090  12.624   1.686 -0.1682 -1.3516  1.4197
33096SOL    HW2 6529   4.013  12.541   1.585 -0.6486 -1.6034  1.9873
33097SOL     OW 6530  12.460   9.136  12.373 -0.1242  0.2268  0.8997
33097SOL    HW1 6531  12.530   9.201  12.366 -1.2932  1.6751  2.1616
33097SOL    HW2 6532  12.379   9.187  12.371 -1.0888 -1.2041  1.7469
33098SOL     OW 6533   8.220   6.430   2.046 -0.1467 -0.2905  0.0494
33098SOL    HW1 6534   8.239   6.359   2.106 -1.8067 -3.1027 -2.4833
33098SOL    HW2 6535   8.173   6.495   2.099 -2.1930 -2.9269  1.6973
33099SOL     OW 6536   3.817   7.773   9.936  0.2362  0.2746  0.3814
33099SOL    HW1 6537   3.727   7.802   9.947  0.0681  0.3430 -0.9937
33099SOL    HW2 6538   3.870   7.849   9.962 -0.1714  1.1687 -1.2392
33100SOL     OW 6539   4.277   8.743  11.785 -0.1484  0.4122  0.4162
33100SOL    HW1 6540   4.208   8.680  11.764  0.6843 -0.3109 -0.2418
33100SOL    HW2 6541   4.274   8.751  11.880 -1.4905  0.8247  0.3707
33101SOL     OW 6542  10.454   2.865   7.549 -0.0239  0.4399 -0.4155
33101SOL    HW1 6543  10.381   2.927   7.558 -2.1518 -1.6319 -2.2026
33101SOL    HW2 6544  10.440   2.823   7.465  1.4141 -2.3320  0.5963
33102SOL     OW 6545   0.187   3.535   8.313 -0.3607  0.0477  0.1504
33102SOL    HW1 6546   0.124   3.598   8.279 -0.1129  0.9495  1.3133
33102SOL    HW2 6547   0.135   3.456   8.329 -1.6349  1.2704  2.6482
33103SOL     OW 6548  12.527   4.858   4.536 -0.2717  0.1912  0.4363
33103SOL    HW1 6549  12.464   4.787   4.530  2.0909 -1.9900 -0.3211
33103SOL    HW2 6550  12.532   4.894   4.448  0.6339 -0.6965  0.1078
33104SOL     OW 6551   3.950   1.312   3.270 -0.0366  0.2876  0.0322
33104SOL    HW1 6552   4.010   1.362   3.216 -0.8934  1.4096  0.0968
33104SOL    HW2 6553   3.920   1.241   3.214  2.0882 -0.9114  0.3065
33105SOL     OW 6554   4.158   9.254  10.386  0.4325 -0.5766 -0.0750
33105SOL    HW1 6555   4.185   9.301  10.464 -0.8179  0.1118 -0.0323
33105SOL    HW2 6556   4.106   9.180  10.419 -0.6170  0.0608 -0.2453
33106SOL     OW 6557   4.562  12.399   2.333 -0.5957 -0.3767  0.3932
33106SOL    HW1 6558   4.494  12.352   2.286 -0.2899 -0.6693  0.2379
33106SOL    HW2 6559   4.545  12.491   2.314 -0.3068 -0.5022 -0.5380
33107SOL     OW 6560   9.307  12.637   6.084 -0.2386 -0.1044 -0.3106
33107SOL    HW1 6561   9.278  12.593   6.004 -2.3250  1.5425 -0.5496
33107SOL    HW2 6562   9.372  12.701   6.054 -1.3231  0.8081 -0.8279
33108SOL     OW 6563   5.746   3.276   8.622 -0.1578  0.2003  0.0576
33108SOL    HW1 6564   5.757   3.363   8.583  1.0323  0.2441  0.4273
33108SOL    HW2 6565   5.736   3.294   8.716  1.2035 -0.0800  0.2859
33109SOL     OW 6566   4.612   0.836   1.422  0.1289 -0.6274  0.1034
33109SOL    HW1 6567   4.691   0.854   1.371  0.6285 -0.0073  1.0612
33109SOL    HW2 6568   4.638   0.854   1.513 -1.2365  0.0119  0.3868
33110SOL     OW 6569   0.478  12.496   3.951 -0.4461  0.3952 -0.4146
33110SOL    HW1 6570   0.520  12.495   4.037  0.4216  1.0124 -0.8156
33110SOL    HW2 6571   0.395  12.451   3.965 -0.0300 -0.1051  0.5951
33111SOL     OW 6572  11.185   7.507   2.764 -0.0840  0.2181 -0.2718
33111SOL    HW1 6573  11.117   7.574   2.760  0.1721  0.4770 -3.4716
33111SOL    HW2 6574  11.267   7.555   2.762  0.2613 -0.1318  2.4074
33112SOL     OW 6575  10.170   6.668   9.241 -0.2197 -0.0836  0.8216
33112SOL    HW1 6576  10.085   6.711   9.246 -0.7135 -0.8779 -0.3721
33112SOL    HW2 6577  10.154   6.580   9.277 -0.4101 -0.9099 -1.1673
33113SOL     OW 6578   8.588   5.235   6.312  0.3502  0.5286  0.4667
33113SOL    HW1 6579   8.532   5.272   6.244 -0.7696 -1.1843  0.4009
33113SOL    HW2 6580   8.674   5.275   6.297 -0.1067  0.8913 -1.3560
33114SOL     OW 6581  12.620   3.625   8.602  0.7205  0.1239 -0.2612
33114SOL    HW1 6582  12.525   3.625   8.592  0.7696  0.3538 -0.7734
33114SOL    HW2 6583  12.653   3.596   8.517  1.0963 -0.5339  0.1038
33115SOL     OW 6584   5.069   7.352   3.695 -0.1110  0.0981 -0.9633
33115SOL    HW1 6585   5.070   7.422   3.630  1.5617 -0.4480 -1.5517
33115SOL    HW2 6586   4.978   7.349   3.725 -0.3826  1.9759 -1.4982
33116SOL     OW 6587   7.752   4.836   0.006 -0.1677  0.1573  0.4267
33116SOL    HW1 6588   7.831   4.808   0.052 -0.0007  1.1026  0.7479
33116SOL    HW2 6589   7.691   4.762   0.015 -0.2838  0.4385  2.5565
33117SOL     OW 6590   1.609   9.601  11.455 -0.0216  0.0204 -0.2143
33117SOL    HW1 6591   1.685   9.636  11.408  1.3247 -0.6148  1.3536
33117SOL    HW2 6592   1.602   9.655  11.534 -0.2578 -0.8414  0.3804
33118SOL     OW 6593   4.859   7.870   1.295  0.0843 -0.1981 -0.4156
33118SOL    HW1 6594   4.768   7.883   1.321  0.2231  0.0818 -0.0434
33118SOL    HW2 6595   4.865   7.777   1.272 -0.0887 -0.4271  0.4245
33119SOL     OW 6596   4.101   0.595  11.913 -0.1808  0.9913 -0.2916
33119SOL    HW1 6597   4.024   0.646  11.885 -2.0936 -1.1091  0.8603
33119SOL    HW2 6598   4.105   0.607  12.007 -1.3249 -1.7047  0.1772
33120SOL     OW 6599   8.479  12.046   8.175  0.4744  0.1582 -0.2278
33120SOL    HW1 6600   8.546  12.085   8.119  0.6461  0.8918  0.4786
33120SOL    HW2 6601   8.460  12.113   8.241  1.6995 -1.4028  1.8150
33121SOL     OW 6602   7.519   1.350   1.339  0.6697  0.2957  0.2087
33121SOL    HW1 6603   7.598   1.305   1.369 -0.2108 -1.3649  0.2022
33121SOL    HW2 6604   7.480   1.387   1.418  1.0681  0.4768  0.3198
33122SOL     OW 6605   8.015   7.786   6.131  0.4444 -0.6588  0.3446
33122SOL    HW1 6606   8.048   7.728   6.199 -0.0042 -0.5442  0.6600
33122SOL    HW2 6607   7.976   7.727   6.066  2.2599 -0.8906 -0.6143
33123SOL     OW 6608   3.523   7.299   7.833 -0.0743 -0.0973  0.6338
33123SOL    HW1 6609   3.544   7.245   7.910  0.6192 -1.2229 -0.3157
33123SOL    HW2 6610   3.427   7.299   7.829 -0.1217 -0.0078  1.5038
33124SOL     OW 6611   0.541   8.538   7.161 -0.6602 -0.0236  0.2490
33124SOL    HW1 6612   0.615   8.493   7.201  0.9913  0.6617 -1.8584
33124SOL    HW2 6613   0.549   8.629   7.189 -0.4716  0.1319 -0.3075
33125SOL     OW 6614   3.458   4.402   5.900  0.0160 -0.1660 -0.1218
33125SOL    HW1 6615   3.539   4.448   5.879  0.0956 -0.6652 -0.9357
33125SOL    HW2 6616   3.466   4.381   5.993  1.3868 -1.2891 -0.4644
33126SOL     OW 6617   7.243   2.379   7.313 -0.4031 -0.5145 -0.0839
33126SOL    HW1 6618   7.276   2.309   7.371 -0.4173 -0.1766  0.3350
33126SOL    HW2 6619   7.321   2.430   7.291 -0.6017  0.1998  0.7905
33127SOL     OW 6620   5.365  12.436   2.439 -0.6051  0.3155  0.0856
33127SOL    HW1 6621   5.365  12.430   2.344  0.0760 -0.2154  0.1103
33127SOL    HW2 6622   5.321  12.357   2.468  1.9121 -1.1252  0.2547
33128SOL     OW 6623  11.447   6.902   0.345  0.6368  0.1339 -0.2595
33128SOL    HW1 6624  11.388   6.843   0.298  0.2160 -0.6092  1.1543
33128SOL    HW2 6625  11.527   6.902   0.293  0.7132 -1.8509 -0.2287
33129SOL     OW 6626   2.744  10.886   6.877  0.5356  0.4200 -0.0464
33129SOL    HW1 6627   2.651  10.864   6.885  0.6421  0.3157  1.0810
33129SOL    HW2 6628   2.751  10.976   6.910  0.9898  0.0252  0.9978
33130SOL     OW 6629   9.082   9.134  12.337 -0.1764  0.2157  0.0414
33130SOL    HW1 6630   9.009   9.072  12.340  0.7098 -0.9306 -0.7840
33130SOL    HW2 6631   9.045   9.217  12.367 -1.6151 -0.5121  0.3771
33131SOL     OW 6632   0.650   9.274   2.837 -0.4247 -0.2278  0.1070
33131SOL    HW1 6633   0.601   9.335   2.892  0.7667 -0.1837  1.1711
33131SOL    HW2 6634   0.646   9.312   2.750 -3.8455 -1.1864 -0.3205
33132SOL     OW 6635   8.779   1.090   9.073  0.0825  0.5707  0.0176
33132SOL    HW1 6636   8.691   1.128   9.067 -0.1507  0.2346  1.0662
33132SOL    HW2 6637   8.837   1.166   9.078 -0.0162  0.8204 -1.8459
33133SOL     OW 6638   8.825   2.106  11.348  0.0596 -0.5347 -0.0578
33133SOL    HW1 6639   8.744   2.133  11.390 -0.1021  0.8513 -1.1673
33133SOL    HW2 6640   8.855   2.184  11.303  2.4464 -0.7940  0.9574
33134SOL     OW 6641   2.693   4.488  12.028  0.2160 -0.2016 -0.8046
33134SOL    HW1 6642   2.737   4.494  11.943  0.8653 -0.6976 -0.5059
33134SOL    HW2 6643   2.600   4.503  12.007  0.2420 -1.2094 -1.7409
33135SOL     OW 6644  10.295   0.273   8.941 -0.0904 -0.1491  0.9684
33135SOL    HW1 6645  10.263   0.228   8.863 -0.7262  0.5717  0.8032
33135SOL    HW2 6646  10.384   0.241   8.952  0.0283 -0.2229 -0.0855
33136SOL     OW 6647   7.658   8.524   6.344 -0.1223  0.0066 -0.2466
33136SOL    HW1 6648   7.601   8.541   6.270 -1.8627 -0.0501  1.0247
33136SOL    HW2 6649   7.693   8.436   6.327  1.4929  0.9444 -2.1777
33137SOL     OW 6650   1.624  10.770   2.518 -0.0630  0.1609  0.1765
33137SOL    HW1 6651   1.690  10.708   2.548 -0.0121 -0.9135 -1.9895
33137SOL    HW2 6652   1.674  10.847   2.491  0.3270 -0.4727 -1.0163
33138SOL     OW 6653  11.318   4.073   8.392 -0.3256  0.2538  0.4580
33138SOL    HW1 6654  11.308   4.047   8.301 -0.1737 -0.8510  0.7421
33138SOL    HW2 6655  11.370   4.003   8.431  0.1714  1.0433  1.2415
33139SOL     OW 6656  10.572   6.299   5.252  0.0543 -0.0738  0.4886
33139SOL    HW1 6657  10.498   6.279   5.196  0.6680 -0.3724 -0.2204
33139SOL    HW2 6658  10.532   6.322   5.336 -0.8278 -0.4366  0.1811
33140SOL     OW 6659   9.300   2.980   2.284 -0.1076 -0.3542 -0.3372
33140SOL    HW1 6660   9.366   2.968   2.216  0.8829 -0.0369  0.5463
33140SOL    HW2 6661   9.310   2.904   2.341 -1.2982 -0.8989 -0.8064
33141SOL     OW 6662   1.482  11.385   5.864  0.2382 -0.2971 -0.3349
33141SOL    HW1 6663   1.569  11.421   5.842  0.8376 -0.8775  0.9765
33141SOL    HW2 6664   1.491  11.291   5.850  0.8711 -0.8173  2.7560
33142SOL     OW 6665   1.233   6.500  11.220  0.4346 -0.9071  0.1905
33142SOL    HW1 6666   1.296   6.572  11.227 -1.5752  0.9548  0.1744
33142SOL    HW2 6667   1.227   6.484  11.126 -0.5697  0.3580  0.0012
33143SOL     OW 6668   9.454   3.445   0.321 -0.1684  0.0201 -0.0085
33143SOL    HW1 6669   9.435   3.362   0.364 -2.5888 -0.1136 -1.1792
33143SOL    HW2 6670   9.392   3.507   0.359  0.7958  1.0369 -0.0167
33144SOL     OW 6671   6.014  11.526   5.501  0.5459 -0.1199 -0.7065
33144SOL    HW1 6672   6.005  11.473   5.422  1.9495 -1.1770 -0.2010
33144SOL    HW2 6673   5.973  11.474   5.570  0.3624  0.2644 -0.5231
33145SOL     OW 6674   4.047  10.481   8.203  0.1598 -0.1530  0.2145
33145SOL    HW1 6675   4.114  10.505   8.139  0.8429 -0.8810  0.6439
33145SOL    HW2 6676   4.014  10.565   8.236 -0.2108  0.2391 -1.0856
33146SOL     OW 6677   0.627  11.343   9.551  0.2907 -0.5171  0.1907
33146SOL    HW1 6678   0.719  11.317   9.552  0.4894 -0.1495 -2.2223
33146SOL    HW2 6679   0.583  11.274   9.502 -0.4056  0.1967 -0.2022
33147SOL     OW 6680  11.554  12.617   6.645 -0.0578  0.4482 -0.0665
33147SOL    HW1 6681  11.461  12.627   6.626  0.1222 -0.0953 -1.2949
33147SOL    HW2 6682  11.598  12.636   6.562  0.9367  0.7686  0.5152
33148SOL     OW 6683   4.364   0.734   3.995  0.1484  0.7720 -0.2216
33148SOL    HW1 6684   4.325   0.821   3.995  0.0211  0.7477  1.1593
33148SOL    HW2 6685   4.292   0.676   4.023  0.6604  0.4724  0.5173
33149SOL     OW 6686   6.623   6.422   3.327 -0.0095  0.4792 -0.6070
33149SOL    HW1 6687   6.601   6.441   3.418  0.1188  0.0713 -0.4887
33149SOL    HW2 6688   6.681   6.493   3.301 -0.1125  0.6420 -0.3961
33150SOL     OW 6689   9.323   5.174  12.240 -1.1255 -0.1699 -0.1132
33150SOL    HW1 6690   9.274   5.132  12.170 -0.4675  0.7886 -1.1755
33150SOL    HW2 6691   9.396   5.217  12.196 -0.6019  0.3136  1.1789
33151SOL     OW 6692   6.420  10.919  11.778 -0.3422 -0.1412 -0.3736
33151SOL    HW1 6693   6.450  10.970  11.702 -1.4205 -0.9119 -1.3559
33151SOL    HW2 6694   6.496  10.866  11.802  0.4591  1.1208 -0.0001
33152SOL     OW 6695   5.284  10.348   8.580  0.2030 -0.4140 -0.0239
33152SOL    HW1 6696   5.335  10.317   8.504  0.7869  1.3270 -0.3909
33152SOL    HW2 6697   5.195  10.359   8.547  0.1876 -0.7903 -0.1189
33153SOL     OW 6698   9.459   4.127   2.337 -0.3929 -0.5287 -0.7403
33153SOL    HW1 6699   9.384   4.175   2.301  0.8377  3.3492  1.2519
33153SOL    HW2 6700   9.424   4.080   2.413 -0.8037  2.0838  0.8014
33154SOL     OW 6701  11.182   0.495   6.048  0.2436  0.3814 -0.2512
33154SOL    HW1 6702  11.216   0.407   6.031 -1.9242 -0.6508  0.3383
33154SOL    HW2 6703  11.244   0.532   6.111  1.6118 -0.4091 -1.0762
33155SOL     OW 6704   0.774   0.512  11.344  1.0075 -0.0553  0.5938
33155SOL    HW1 6705   0.728   0.594  11.362 -0.1723  0.3737 -3.4333
33155SOL    HW2 6706   0.725   0.446  11.393  0.0156  1.2163  1.3861
33156SOL     OW 6707  12.293   6.505  11.030  0.4705  0.5046 -0.0545
33156SOL    HW1 6708  12.269   6.421  10.990  1.8350 -0.0341  0.2013
33156SOL    HW2 6709  12.210   6.551  11.040 -0.2534 -0.6180 -0.6460
33157SOL     OW 6710   2.129   0.690   9.262  0.4193 -0.4594 -0.2164
33157SOL    HW1 6711   2.045   0.645   9.270 -0.1620  0.5842 -0.2451
33157SOL    HW2 6712   2.166   0.687   9.350 -1.1201  1.7790  0.6082
33158SOL     OW 6713   5.718   5.767   1.705 -0.2106 -0.8812 -0.4376
33158SOL    HW1 6714   5.680   5.832   1.764  0.4243  0.5618 -1.5656
33158SOL    HW2 6715   5.644   5.717   1.673 -0.5398 -2.0421  1.9139
33159SOL     OW 6716   2.846   6.203   3.087 -0.2820  0.3056 -0.3525
33159SOL    HW1 6717   2.840   6.239   3.175  1.7270  1.2211 -0.5212
33159SOL    HW2 6718   2.872   6.112   3.099  0.7641  0.6338  0.0320
33160SOL     OW 6719   8.094   1.269   1.079 -0.0300  0.2060 -0.4651
33160SOL    HW1 6720   8.126   1.264   0.989 -1.7990 -0.6360 -1.0881
33160SOL    HW2 6721   8.084   1.178   1.105  1.8651  0.3961  1.1609
33161SOL     OW 6722   5.304   7.838   4.681 -0.2402  0.0303 -0.0117
33161SOL    HW1 6723   5.226   7.853   4.626 -0.7333 -1.1045  0.3325
33161SOL    HW2 6724   5.376   7.878   4.632 -1.2249  2.3468  0.3257
33162SOL     OW 6725   1.306   6.153  10.085 -0.1594 -0.7374 -0.1942
33162SOL    HW1 6726   1.323   6.247  10.085 -1.3729 -0.5074 -0.5882
33162SOL    HW2 6727   1.256   6.137  10.005 -2.1070 -1.2932  1.0550
33163SOL     OW 6728   4.375   3.102   1.998 -0.4916 -0.7076 -0.3131
33163SOL    HW1 6729   4.301   3.043   1.985 -0.8416 -0.5413  0.8314
33163SOL    HW2 6730   4.446   3.046   2.027 -1.3208 -0.4222  2.5519
33164SOL     OW 6731   2.990  11.934   3.105 -0.3973  1.1429 -0.4174
33164SOL    HW1 6732   2.933  11.905   3.176 -1.9227  0.0893 -1.9752
33164SOL    HW2 6733   3.031  12.014   3.137 -1.2959  0.8798  1.4946
33165SOL     OW 6734   8.498   9.338   0.909  0.1577 -0.1411  0.2463
33165SOL    HW1 6735   8.410   9.307   0.889 -0.1339 -0.1668  1.5001
33165SOL    HW2 6736   8.556   9.279   0.860 -0.4784 -0.8350  0.3159
33166SOL     OW 6737   5.484   7.232  11.014  0.8162 -0.2284  0.1438
33166SOL    HW1 6738   5.457   7.152  11.061 -1.7374 -0.5081 -1.5532
33166SOL    HW2 6739   5.509   7.201  10.927  2.0261  0.6368  0.1583
33167SOL     OW 6740   5.354   1.038   1.717  0.2051 -0.0578 -0.0304
33167SOL    HW1 6741   5.394   1.102   1.776  0.5143  0.5379 -0.8608
33167SOL    HW2 6742   5.262   1.039   1.740  0.6956 -2.0375  2.4626
33168SOL     OW 6743   2.853  10.825  10.868 -0.4380 -0.0100  0.1704
33168SOL    HW1 6744   2.880  10.768  10.940  1.1665 -0.4551 -0.7302
33168SOL    HW2 6745   2.851  10.913  10.907  0.5912 -0.2154  0.7237
33169SOL     OW 6746   0.563   2.398   5.379  0.0866 -0.5394  0.4900
33169SOL    HW1 6747   0.578   2.360   5.465 -0.4354  0.1513  0.9053
33169SOL    HW2 6748   0.616   2.346   5.319  1.0911 -0.5194  1.3456
33170SOL     OW 6749   2.638   1.842  12.045 -0.1406 -0.4166  0.1034
33170SOL    HW1 6750   2.673   1.931  12.036  1.3521 -1.0583 -0.8987
33170SOL    HW2 6751   2.704   1.796  12.097 -0.6178 -1.0804  0.1349
33171SOL     OW 6752   7.750   8.431   0.347  0.1916 -0.1551  0.7769
33171SOL    HW1 6753   7.748   8.478   0.263  0.7863  0.7997  1.2824
33171SOL    HW2 6754   7.659   8.406   0.362 -0.3577  1.8826  1.0560
33172SOL     OW 6755   5.459  11.268  11.497  0.1977  0.0178  0.1947
33172SOL    HW1 6756   5.455  11.173  11.503 -1.0472  0.0874  0.7406
33172SOL    HW2 6757   5.368  11.297  11.499  0.5666  1.2509  0.7009
33173SOL     OW 6758   2.754  10.696   5.638  0.0188  1.0179  0.1131
33173SOL    HW1 6759   2.791  10.674   5.724 -0.3798 -2.2177 -0.4259
33173SOL    HW2 6760   2.761  10.791   5.633  2.1761  1.1241  2.7557
33174SOL     OW 6761   0.363   4.088   2.431  0.3750 -0.9397  0.1598
33174SOL    HW1 6762   0.301   4.079   2.503  0.9784 -0.8771  0.6910
33174SOL    HW2 6763   0.418   4.162   2.455  1.0516 -1.3758 -0.0076
33175SOL     OW 6764  11.154   9.410   3.009  0.0752  0.6419 -0.3766
33175SOL    HW1 6765  11.226   9.472   2.993 -0.3046  1.2965  0.3758
33175SOL    HW2 6766  11.086   9.436   2.946 -0.0786  0.9850 -0.0699
33176SOL     OW 6767   3.821  11.119   1.205 -0.3830 -0.0138  0.2721
33176SOL    HW1 6768   3.834  11.181   1.277  0.1937 -0.1607  0.2994
33176SOL    HW2 6769   3.889  11.141   1.141 -1.0217  0.2452 -0.3271
33177SOL     OW 6770   8.582  10.254  10.813  0.3093 -0.8766  0.3033
33177SOL    HW1 6771   8.517  10.203  10.765  0.7463 -0.9466 -0.2291
33177SOL    HW2 6772   8.593  10.334  10.761  1.0477 -1.1139  0.0828
33178SOL     OW 6773   6.405  11.094   5.016  0.2513 -0.1558  0.2522
33178SOL    HW1 6774   6.490  11.074   5.055  0.7095 -0.3897 -0.8238
33178SOL    HW2 6775   6.352  11.125   5.089  1.8457  1.9029  0.6465
33179SOL     OW 6776   2.524   6.289   3.481  0.3187 -0.0313 -0.4708
33179SOL    HW1 6777   2.511   6.383   3.494  0.5154 -0.0619 -0.0376
33179SOL    HW2 6778   2.597   6.283   3.419  0.9798  0.1010  0.2696
33180SOL     OW 6779   9.673   9.631   9.290  0.6435  0.1768 -0.3127
33180SOL    HW1 6780   9.625   9.711   9.267  0.4013 -0.0395 -0.5657
33180SOL    HW2 6781   9.642   9.607   9.377  0.6401  0.2980 -0.2806
33181SOL     OW 6782   7.434   9.747   3.225  0.2298 -0.3858  0.0745
33181SOL    HW1 6783   7.491   9.739   3.148  1.1880 -0.5848  0.7849
33181SOL    HW2 6784   7.366   9.681   3.212 -1.3341  1.4908 -1.9956
33182SOL     OW 6785   0.711   2.910  10.947  0.0975  0.1292  0.1824
33182SOL    HW1 6786   0.805   2.899  10.959  0.0189  0.2144  0.9394
33182SOL    HW2 6787   0.675   2.904  11.036 -0.5486  0.6254 -0.0393
33183SOL     OW 6788  11.477   7.604   4.794  0.4511  0.2638  0.1099
33183SOL    HW1 6789  11.451   7.542   4.725  1.0237  0.8372 -0.6402
33183SOL    HW2 6790  11.571   7.590   4.804  0.1143 -0.9783  1.9764
33184SOL     OW 6791   0.650   3.844   3.483  0.1804  0.1061 -0.6664
33184SOL    HW1 6792   0.558   3.831   3.462 -0.0115 -0.6651  0.5964
33184SOL    HW2 6793   0.693   3.763   3.456  0.2290 -0.1577  0.1878
33185SOL     OW 6794   1.347   6.634  12.154 -0.2293  0.2439 -0.1874
33185SOL    HW1 6795   1.345   6.725  12.125 -0.0931  0.3405  0.1004
33185SOL    HW2 6796   1.256   6.612  12.172 -0.2310  0.4129  0.0140
33186SOL     OW 6797  11.487   9.903   8.504 -0.1168 -0.1521 -0.1708
33186SOL    HW1 6798  11.475   9.816   8.542 -1.3005 -1.1369 -2.6105
33186SOL    HW2 6799  11.571   9.933   8.539 -0.0737 -1.8984  1.3825
33187SOL     OW 6800   1.287   3.115   4.037 -0.8518 -0.2039  0.2530
33187SOL    HW1 6801   1.267   3.097   3.945 -1.4929 -0.0082  0.3510
33187SOL    HW2 6802   1.364   3.171   4.034 -0.1649 -1.1250 -0.1288
33188SOL     OW 6803  11.772   4.749  11.233 -0.2993  0.0103  0.2830
33188SOL    HW1 6804  11.804   4.786  11.151  2.0393  2.3940  2.0911
33188SOL    HW2 6805  11.806   4.660  11.235  2.2834  0.9061 -0.0740
33189SOL     OW 6806  12.599   2.340   7.210  0.7409  0.3469 -0.1539
33189SOL    HW1 6807  12.641   2.254   7.221 -1.0452 -0.4512  0.8845
33189SOL    HW2 6808  12.603   2.356   7.115  0.4449 -1.2579 -0.4800
33190SOL     OW 6809  11.303   0.435   0.336 -0.1843  0.2099  0.1346
33190SOL    HW1 6810  11.377   0.486   0.366  0.7572  0.6127 -2.5990
33190SOL    HW2 6811  11.231   0.498   0.330 -0.5334  0.0237  1.8280
33191SOL     OW 6812   1.098   4.011   9.359 -0.0123 -0.4863  0.6695
33191SOL    HW1 6813   1.037   3.981   9.427 -1.0167 -0.1727 -0.0716
33191SOL    HW2 6814   1.061   4.095   9.330  1.4552  0.3290  1.0583
33192SOL     OW 6815  10.427   9.492   3.423 -0.2070  0.3024 -0.6869
33192SOL    HW1 6816  10.394   9.554   3.358  0.3137  0.9274 -0.3641
33192SOL    HW2 6817  10.509   9.531   3.455 -0.6393  0.1864  0.6112
33193SOL     OW 6818   6.956  11.905   4.928  0.1950  0.3430 -0.1118
33193SOL    HW1 6819   6.950  12.001   4.936  1.3215  0.3861  0.4753
33193SOL    HW2 6820   6.937  11.873   5.016 -0.4277 -0.0026 -0.3666
33194SOL     OW 6821   3.520  12.658  11.844  0.1373 -0.1041 -0.6784
33194SOL    HW1 6822   3.541  12.650  11.750  2.0256 -1.2501 -0.2227
33194SOL    HW2 6823   3.604  12.676  11.885 -0.5744 -0.1812  0.8615
33195SOL     OW 6824   8.489   2.934  10.374 -0.0275 -0.1238 -0.1456
33195SOL    HW1 6825   8.436   3.011  10.353 -0.5890 -0.4054  0.1985
33195SOL    HW2 6826   8.428   2.875  10.419  0.8270 -0.0165  1.2336
33196SOL     OW 6827   6.552  12.369   2.554 -0.1286  0.1762  0.8919
33196SOL    HW1 6828   6.469  12.327   2.528  1.7237 -2.7167 -0.8639
33196SOL    HW2 6829   6.528  12.461   2.568 -3.9323 -0.7915  2.1439
33197SOL     OW 6830   0.992   9.847   7.031 -0.3850 -0.1710  0.0639
33197SOL    HW1 6831   1.022   9.768   6.987  0.0642  0.8672 -1.6267
33197SOL    HW2 6832   1.057   9.863   7.099  0.5011 -0.3420 -0.7152
33198SOL     OW 6833   9.508   3.150   9.230 -0.1486 -0.3572  0.4995
33198SOL    HW1 6834   9.437   3.142   9.294  0.6687 -0.7126  1.3832
33198SOL    HW2 6835   9.482   3.092   9.158 -0.2977 -1.2389  1.2465
33199SOL     OW 6836  10.613   6.347   2.155 -0.8055  0.5587 -0.2842
33199SOL    HW1 6837  10.524   6.331   2.122 -0.4946  0.5618 -1.1477
33199SOL    HW2 6838  10.623   6.442   2.151 -0.7715  0.5612 -0.1519
33200SOL     OW 6839   8.657   7.638   7.606 -0.3105 -0.1838 -0.4972
33200SOL    HW1 6840   8.561   7.633   7.607 -0.3524  0.5388  0.1333
33200SOL    HW2 6841   8.686   7.548   7.614 -0.9578 -0.2983  0.9320
33201SOL     OW 6842   0.580   9.371   8.236 -0.6922 -0.2182 -0.1065
33201SOL    HW1 6843   0.653   9.312   8.218 -0.4632 -0.2950  0.9757
33201SOL    HW2 6844   0.609   9.422   8.312 -1.5579  0.1235  0.0071
33202SOL     OW 6845   8.264   4.927   5.043  0.6840  0.1975 -0.6456
33202SOL    HW1 6846   8.229   4.957   5.126 -1.5060 -1.0915 -1.0330
33202SOL    HW2 6847   8.205   4.963   4.977  1.6068  0.0922 -1.5644
33203SOL     OW 6848  10.853  11.204   3.047 -0.3209  0.1342  0.1108
33203SOL    HW1 6849  10.812  11.193   2.961  1.8504 -2.9663 -0.7341
33203SOL    HW2 6850  10.924  11.266   3.032 -0.7971  0.6605  0.0206
33204SOL     OW 6851  11.811   6.962  11.973  0.3971  0.0534  0.1937
33204SOL    HW1 6852  11.892   6.912  11.980 -0.4660 -1.6054 -0.9046
33204SOL    HW2 6853  11.804   6.983  11.880 -0.8362 -0.6126  0.1039
33205SOL     OW 6854   2.139  10.227   9.203  0.4964  0.1633 -0.1593
33205SOL    HW1 6855   2.123  10.321   9.216  1.8014  0.7041 -2.0242
33205SOL    HW2 6856   2.081  10.184   9.265  0.0304  2.2126  0.9155
33206SOL     OW 6857   9.507   6.497  12.050 -0.5347  0.0107 -0.5447
33206SOL    HW1 6858   9.546   6.561  12.109  0.3208 -0.7849 -0.2121
33206SOL    HW2 6859   9.576   6.432  12.036 -0.4851  0.4997 -2.9391
33207SOL     OW 6860  11.498  12.130   9.754  0.3190  0.5234  0.4444
33207SOL    HW1 6861  11.487  12.193   9.826 -3.8017  1.0091 -0.3531
33207SOL    HW2 6862  11.513  12.046   9.798 -2.8312  0.6678  2.1319
33208SOL     OW 6863   9.011  12.696   2.721  0.1224 -0.1760  0.2476
33208SOL    HW1 6864   9.084  12.727   2.667 -1.0030  0.0995 -1.1625
33208SOL    HW2 6865   8.999  12.605   2.695 -1.5007  0.4161 -1.2766
33209SOL     OW 6866  11.301   8.745  10.502  0.2030  0.1130  0.2429
33209SOL    HW1 6867  11.280   8.708  10.416  1.1725 -0.2574  0.1501
33209SOL    HW2 6868  11.269   8.835  10.498  0.0900  0.0477 -0.4469
33210SOL     OW 6869   9.509   2.979   6.748  0.4951  0.1646  0.1989
33210SOL    HW1 6870   9.466   3.010   6.828  1.1798 -1.8540  1.4436
33210SOL    HW2 6871   9.601   2.968   6.773  0.7528 -0.3265 -0.9246
33211SOL     OW 6872   0.728  10.928   5.235 -0.2835  0.1533 -0.2926
33211SOL    HW1 6873   0.676  10.911   5.314 -0.6917 -0.4865 -0.6938
33211SOL    HW2 6874   0.722  11.023   5.223  1.2709  0.5343  1.4591
33212SOL     OW 6875  10.035   1.386   9.328  0.1262 -0.0719 -1.0008
33212SOL    HW1 6876  10.029   1.293   9.308  0.2227  0.2231 -2.5127
33212SOL    HW2 6877   9.944   1.413   9.344  0.3805 -1.1853  3.5136
33213SOL     OW 6878   6.955   8.508   0.936  0.0568 -0.4928  0.1895
33213SOL    HW1 6879   6.964   8.599   0.963  0.0984 -0.5648  0.4244
33213SOL    HW2 6880   7.020   8.461   0.989  0.7052 -0.5238 -0.6115
33214SOL     OW 6881  10.536   7.091   9.219  0.4644 -0.3740  0.3337
33214SOL    HW1 6882  10.534   7.176   9.262  2.0492 -0.1149 -0.0692
33214SOL    HW2 6883  10.443   7.070   9.205  0.0482  1.6145 -0.2161
33215SOL     OW 6884   4.028   0.599   1.580 -0.1922 -0.2370 -0.0355
33215SOL    HW1 6885   4.099   0.567   1.636 -1.2728 -2.0722  0.3411
33215SOL    HW2 6886   4.073   0.646   1.509  1.3651 -0.7931  0.5443
33216SOL     OW 6887   9.124   1.481  11.307  0.1138  0.1283  0.9061
33216SOL    HW1 6888   9.209   1.436  11.309 -0.3110 -0.6826  1.8098
33216SOL    HW2 6889   9.112   1.512  11.397 -1.0616 -0.8035  1.0955
33217SOL     OW 6890   7.681   6.639   1.187 -1.1286  0.2358  0.4168
33217SOL    HW1 6891   7.727   6.669   1.109 -0.4934 -0.0426  0.6826
33217SOL    HW2 6892   7.631   6.563   1.158 -0.7794  0.0463  0.3181
33218SOL     OW 6893   4.399   2.216  10.395  0.0113  0.4744  0.3638
33218SOL    HW1 6894   4.416   2.134  10.442  2.2270  0.1142 -0.9520
33218SOL    HW2 6895   4.385   2.280  10.464  2.4970 -0.1754  1.5898
33219SOL     OW 6896   9.470   3.373   2.273  0.4124  0.2684 -0.0455
33219SOL    HW1 6897   9.538   3.441   2.271  0.9106 -0.0448  2.5412
33219SOL    HW2 6898   9.511   3.299   2.317 -0.3058 -1.5801 -2.2885
33220SOL     OW 6899  10.067   8.417  11.168  0.3389  0.2842  0.0066
33220SOL    HW1 6900   9.993   8.388  11.114  0.9935 -0.7315 -0.3602
33220SOL    HW2 6901  10.047   8.509  11.188 -0.0776  0.6009 -1.7071
33221SOL     OW 6902   9.294   0.728   0.651  0.0224 -0.2943 -0.4694
33221SOL    HW1 6903   9.311   0.743   0.744 -0.9016 -0.7435 -0.2187
33221SOL    HW2 6904   9.381   0.726   0.611  0.4419 -0.3568  0.4216
33222SOL     OW 6905   9.428   6.173   0.027 -0.0227 -1.1263 -0.0291
33222SOL    HW1 6906   9.517   6.141   0.043 -0.2530 -1.6441  0.2337
33222SOL    HW2 6907   9.440   6.250  -0.029  0.6573 -0.5840  0.8344
33223SOL     OW 6908   2.681   9.118   1.688  0.1592 -0.0002  0.6788
33223SOL    HW1 6909   2.613   9.102   1.754 -2.3551 -1.7155 -2.0931
33223SOL    HW2 6910   2.728   9.035   1.681  0.5937  0.2606  0.4842
33224SOL     OW 6911   9.682   0.381   3.452 -0.6951  0.6644 -0.3034
33224SOL    HW1 6912   9.693   0.450   3.518 -1.3654 -0.2665  0.8106
33224SOL    HW2 6913   9.592   0.352   3.462 -0.0475 -1.3318  0.2308
33225SOL     OW 6914   5.005   0.704   7.886  0.8229  0.4935  0.2368
33225SOL    HW1 6915   5.066   0.764   7.929 -0.5987  1.1869  1.3571
33225SOL    HW2 6916   5.033   0.617   7.916  2.7838  0.5294 -1.2625
33226SOL     OW 6917   8.554   3.084   3.964 -0.2961 -0.3307  0.3474
33226SOL    HW1 6918   8.541   3.056   3.873 -1.7823  1.5556 -0.0612
33226SOL    HW2 6919   8.486   3.038   4.013  0.5924 -1.4593  0.5900
33227SOL     OW 6920   0.481  11.724   3.127 -0.3675 -0.0848 -0.7267
33227SOL    HW1 6921   0.472  11.629   3.134 -2.3879  0.0251 -1.3244
33227SOL    HW2 6922   0.575  11.739   3.130 -0.0407 -2.0221  0.3602
33228SOL     OW 6923   8.739  10.267   0.855 -0.3955 -0.4023  0.0841
33228SOL    HW1 6924   8.739  10.347   0.908 -2.0134 -1.2568  1.5189
33228SOL    HW2 6925   8.722  10.297   0.766  0.8065  0.9738  0.2894
33229SOL     OW 6926   4.652   4.084   3.824 -0.0999 -0.0430  0.2913
33229SOL    HW1 6927   4.659   4.101   3.918  0.0749  1.1592  0.0857
33229SOL    HW2 6928   4.562   4.106   3.802  0.3387  1.5074 -0.1221
33230SOL     OW 6929   5.062   1.729   2.654 -0.0058  0.4022  0.1157
33230SOL    HW1 6930   5.022   1.727   2.567  0.3571  0.9645 -0.0707
33230SOL    HW2 6931   5.101   1.642   2.665  2.6574  1.2407 -1.6038
33231SOL     OW 6932  12.494   5.719  12.049 -0.9817  0.2563 -0.3266
33231SOL    HW1 6933  12.579   5.742  12.011  0.0062  0.6561  1.9601
33231SOL    HW2 6934  12.431   5.774  12.002 -0.1793 -0.7505 -2.7493
33232SOL     OW 6935   9.435   9.643   4.211  0.2261  0.0228 -0.0849
33232SOL    HW1 6936   9.395   9.704   4.149 -1.2994  0.3704  1.1823
33232SOL    HW2 6937   9.492   9.588   4.157 -0.0249  1.1593 -1.5795
33233SOL     OW 6938   9.521   8.970  10.400  0.1715 -0.1512 -0.3698
33233SOL    HW1 6939   9.480   8.889  10.370 -2.2432  1.1380 -0.8434
33233SOL    HW2 6940   9.562   8.947  10.483  0.6847 -2.1355 -1.1235
33234SOL     OW 6941   8.417   1.901  10.111 -0.5286  0.1647 -0.0062
33234SOL    HW1 6942   8.404   1.946  10.195 -1.2871  0.0436 -0.0467
33234SOL    HW2 6943   8.505   1.925  10.084 -0.3388  0.3462  0.7436
33235SOL     OW 6944   7.483   8.996   5.551  0.0119 -0.2214  0.0565
33235SOL    HW1 6945   7.487   9.039   5.465 -0.9280  0.5004  0.3462
33235SOL    HW2 6946   7.554   9.035   5.601  0.3796 -0.4300 -0.2960
33236SOL     OW 6947   9.577   3.174  12.350  0.1572 -0.1873  0.3150
33236SOL    HW1 6948   9.564   3.237  12.421 -3.0395  1.0275 -1.1133
33236SOL    HW2 6949   9.590   3.228  12.272  0.1973 -1.3746 -0.5385
33237SOL     OW 6950  11.431   5.501   9.372  0.0702 -0.0344  0.5713
33237SOL    HW1 6951  11.487   5.439   9.419  0.3745  0.1340  0.4274
33237SOL    HW2 6952  11.490   5.549   9.315 -0.4529 -1.0961 -0.9354
33238SOL     OW 6953   8.464   6.794   7.746 -0.2793 -0.2986 -0.0106
33238SOL    HW1 6954   8.519   6.831   7.816  1.2683 -0.5034 -1.0817
33238SOL    HW2 6955   8.422   6.718   7.787  1.7899 -1.3412  0.3447
33239SOL     OW 6956   9.798   3.747   7.094  0.3966  0.1809  0.3408
33239SOL    HW1 6957   9.770   3.759   7.185  1.4472  1.7938  0.4865
33239SOL    HW2 6958   9.887   3.713   7.100  0.7717  1.0614 -0.0622
33240SOL     OW 6959   1.125   2.699   1.837 -0.0534 -0.2498  0.2708
33240SOL    HW1 6960   1.126   2.738   1.750  0.2149  0.1555  0.4548
33240SOL    HW2 6961   1.097   2.608   1.822 -0.8899  0.0665 -0.1320
33241SOL     OW 6962  11.687   4.769   6.698  0.3213 -0.3048 -0.0380
33241SOL    HW1 6963  11.596   4.738   6.704  0.2174  0.1038  0.5939
33241SOL    HW2 6964  11.698   4.792   6.605 -1.2225  2.5220  0.3687
33242SOL     OW 6965   5.502  11.243   4.332 -0.0489 -0.1068 -0.0527
33242SOL    HW1 6966   5.465  11.165   4.290  0.8182 -0.1590 -0.7558
33242SOL    HW2 6967   5.517  11.304   4.261  2.7782 -0.7334 -0.1084
33243SOL     OW 6968   1.612   4.077   7.672  0.0010  0.1282  0.0766
33243SOL    HW1 6969   1.672   4.039   7.608  0.4967  2.0995 -0.6675
33243SOL    HW2 6970   1.533   4.097   7.622 -1.1892 -2.0167  0.9512
33244SOL     OW 6971   6.960   2.923   5.701  0.0677 -0.3257  0.2632
33244SOL    HW1 6972   6.948   2.962   5.787  0.8053 -0.0980  0.2704
33244SOL    HW2 6973   6.983   2.832   5.719  2.0314  0.1612  0.3928
33245SOL     OW 6974  12.195   5.899  12.105 -0.1512  0.0155  0.8216
33245SOL    HW1 6975  12.113   5.850  12.116 -0.1761 -0.0904  0.2400
33245SOL    HW2 6976  12.250   5.872  12.178 -1.0042  0.8520  1.8064
33246SOL     OW 6977   8.532   3.968   7.742 -0.2094 -0.4520 -0.4484
33246SOL    HW1 6978   8.493   3.921   7.816  0.0400  1.2508  0.8236
33246SOL    HW2 6979   8.587   4.035   7.783  0.2075  0.3102 -2.1912
33247SOL     OW 6980  12.179   1.301  10.706 -0.6307  0.2348 -0.3997
33247SOL    HW1 6981  12.231   1.228  10.673 -0.8292  0.5524 -1.4737
33247SOL    HW2 6982  12.199   1.306  10.799  1.1611  0.2737 -0.7543
33248SOL     OW 6983   1.461   6.337  12.576 -0.1060 -0.4907 -0.1042
33248SOL    HW1 6984   1.555   6.333  12.594 -0.4812  0.9307  2.7518
33248SOL    HW2 6985   1.451   6.411  12.516  0.4473  1.1415  1.7044
33249SOL     OW 6986   8.989   7.816   7.702 -0.5673 -0.5039 -0.3171
33249SOL    HW1 6987   8.920   7.859   7.652 -0.6779 -0.0906  0.1813
33249SOL    HW2 6988   9.053   7.789   7.637 -1.2541 -1.0095 -0.7981
33250SOL     OW 6989   9.383   8.378   9.699 -0.0823  0.3279  0.6713
33250SOL    HW1 6990   9.393   8.440   9.772 -2.6838 -0.2128  1.5827
33250SOL    HW2 6991   9.461   8.323   9.705  0.8047  1.6031  1.7051
33251SOL     OW 6992  11.756   1.809   9.360 -0.7367  0.1038  0.0585
33251SOL    HW1 6993  11.820   1.758   9.410 -2.0932 -0.5952  1.1564
33251SOL    HW2 6994  11.804   1.887   9.332  0.6970 -0.5790  0.4983
33252SOL     OW 6995   6.899   5.792   4.617 -0.2849 -0.1288  0.9587
33252SOL    HW1 6996   6.884   5.854   4.689 -0.3612  1.0125  0.0019
33252SOL    HW2 6997   6.818   5.741   4.612 -0.1505 -0.4506  1.8846
33253SOL     OW 6998   9.564   0.104  10.882 -0.8815 -0.0765  0.4031
33253SOL    HW1 6999   9.648   0.125  10.843 -1.5343  0.8640 -0.5412
33253SOL    HW2 7000   9.575   0.015  10.916 -0.5822 -1.4524 -2.9280
33254SOL     OW 7001   6.484   1.626   1.385 -0.4696 -0.1533  0.4808
33254SOL    HW1 7002   6.552   1.669   1.437 -1.6956  0.4198  1.6872
33254SOL    HW2 7003   6.466   1.687   1.313  1.1212 -0.8744 -0.5814
33255SOL     OW 7004  11.399   4.992   6.040  0.1916  0.2247  0.1032
33255SOL    HW1 7005  11.341   4.998   6.115  1.1924  1.7053  0.8198
33255SOL    HW2 7006  11.446   4.910   6.052  0.8109  0.7464  1.4964
33256SOL     OW 7007  12.452   6.970   4.602  0.2204 -0.0703 -0.2877
33256SOL    HW1 7008  12.459   6.875   4.602 -1.1842 -0.3746  3.7321
33256SOL    HW2 7009  12.358   6.987   4.596  0.5055  1.1782 -1.8905
33257SOL     OW 7010   4.997   9.158   6.297  0.3893  0.2611 -0.3804
33257SOL    HW1 7011   4.916   9.165   6.247  0.3967  1.0105 -0.3035
33257SOL    HW2 7012   5.044   9.086   6.257  0.6596  1.2148 -1.8516
33258SOL     OW 7013   1.458   4.040  12.261  0.2709  0.7508 -0.3186
33258SOL    HW1 7014   1.465   4.119  12.315  1.2492 -1.0419  2.4218
33258SOL    HW2 7015   1.364   4.023  12.255  0.1298  0.8860  1.0995
33259SOL     OW 7016   1.904   8.823   9.054 -0.0611 -0.2745 -0.0789
33259SOL    HW1 7017   1.982   8.803   9.106  0.1985  0.9985  0.0662
33259SOL    HW2 7018   1.888   8.916   9.070 -1.2821 -0.3747 -0.5586
33260SOL     OW 7019   0.537  11.711  10.651 -0.0949 -0.0509  0.1192
33260SOL    HW1 7020   0.613  11.695  10.707  1.0479  1.1628 -1.0358
33260SOL    HW2 7021   0.472  11.751  10.709 -0.5697 -2.6577  1.5264
33261SOL     OW 7022   9.594  10.845  12.195 -0.3892  0.0779 -0.0074
33261SOL    HW1 7023   9.520  10.903  12.180 -0.6788  1.1787  4.3693
33261SOL    HW2 7024   9.554  10.763  12.226  0.1132  0.4267  1.6607
33262SOL     OW 7025   0.143   7.394   9.570 -0.4966  0.4515 -0.4158
33262SOL    HW1 7026   0.081   7.443   9.624 -0.9687  0.2500 -0.7649
33262SOL    HW2 7027   0.122   7.303   9.587 -0.1709  0.3802 -0.3987
33263SOL     OW 7028  11.596  12.319   5.629 -0.4188  0.4391 -0.7298
33263SOL    HW1 7029  11.666  12.375   5.662 -0.4028 -0.5588  1.0468
33263SOL    HW2 7030  11.543  12.377   5.574  0.1036  1.9609  0.3124
33264SOL     OW 7031   0.861   3.721  10.722 -0.6333  0.2646 -0.4950
33264SOL    HW1 7032   0.916   3.747  10.796 -0.5279  2.2072 -1.1975
33264SOL    HW2 7033   0.907   3.647  10.683  0.1883  0.2959  0.3665
33265SOL     OW 7034  10.456   0.834  10.518 -0.0598  0.3383 -0.0922
33265SOL    HW1 7035  10.547   0.826  10.544 -0.1807 -0.5126  0.0831
33265SOL    HW2 7036  10.406   0.823  10.599 -0.3535 -0.0427 -0.3219
33266SOL     OW 7037   1.650   8.531   5.840 -0.6410 -0.1792  0.1041
33266SOL    HW1 7038   1.661   8.458   5.779 -2.3841  0.3830 -0.9691
33266SOL    HW2 7039   1.555   8.537   5.854 -0.3241 -1.0951  3.9616
33267SOL     OW 7040   9.603   9.167   7.544  0.0288  0.0534 -0.2306
33267SOL    HW1 7041   9.520   9.180   7.588  0.1168  0.8091 -0.2737
33267SOL    HW2 7042   9.598   9.221   7.465  0.1437 -0.7368 -0.7922
33268SOL     OW 7043   1.727  10.980   5.246  0.3781 -0.0922  0.0377
33268SOL    HW1 7044   1.688  10.904   5.201 -0.8611  0.5452 -0.0057
33268SOL    HW2 7045   1.819  10.956   5.258  0.1005 -1.4343 -0.3375
33269SOL     OW 7046   6.740   2.364   5.815  0.1297 -0.3454 -0.5041
33269SOL    HW1 7047   6.672   2.298   5.821 -0.4919  0.4369  1.8945
33269SOL    HW2 7048   6.719   2.412   5.734 -2.4250  0.0991  0.3301
33270SOL     OW 7049   3.535  10.496   9.045 -0.0696  0.4375 -0.5467
33270SOL    HW1 7050   3.469  10.450   9.097  1.1322 -1.6844 -0.8094
33270SOL    HW2 7051   3.495  10.506   8.959 -0.5515  0.3792 -0.3333
33271SOL     OW 7052  10.626  12.663   4.446 -0.5194 -0.3206  0.0311
33271SOL    HW1 7053  10.560  12.608   4.488 -2.2926 -0.7641 -3.0744
33271SOL    HW2 7054  10.577  12.720   4.388  1.6813  1.1882 -0.4612
33272SOL     OW 7055   0.706   3.844   3.083 -0.6387 -0.4300  0.3250
33272SOL    HW1 7056   0.671   3.771   3.134 -0.2714 -0.0173  1.1908
33272SOL    HW2 7057   0.773   3.805   3.028 -0.5776 -0.7800  0.6430
33273SOL     OW 7058   2.196  11.195   8.424 -0.1683  0.3750 -0.1647
33273SOL    HW1 7059   2.162  11.170   8.511 -0.4977 -1.4406 -0.7607
33273SOL    HW2 7060   2.289  11.211   8.438  0.1733 -1.6951  0.2449
33274SOL     OW 7061   5.028   4.452   3.084  0.3554 -0.4072 -0.2540
33274SOL    HW1 7062   5.034   4.515   3.012 -0.2396  1.3606  1.1746
33274SOL    HW2 7063   4.957   4.485   3.140  2.0090 -0.6117  2.1365
33275SOL     OW 7064   9.552   0.153   6.870  0.0421 -0.1174 -0.4525
33275SOL    HW1 7065   9.528   0.169   6.779 -0.1727  0.4406 -0.3000
33275SOL    HW2 7066   9.496   0.211   6.921  1.0594  0.5354 -0.0389
33276SOL     OW 7067   0.346   9.993  10.226 -0.1790 -0.2466 -0.1790
33276SOL    HW1 7068   0.440   9.972  10.222 -0.4193 -1.6418  0.7236
33276SOL    HW2 7069   0.319   9.964  10.313 -1.9104 -1.9570 -1.2065
33277SOL     OW 7070  10.232   4.461   0.772 -0.1141  0.2742  0.0018
33277SOL    HW1 7071  10.282   4.418   0.841  0.4733 -0.1248 -0.6659
33277SOL    HW2 7072  10.246   4.554   0.787 -1.1195  0.2633  1.2486
33278SOL     OW 7073   4.857   1.757  11.555  0.4823  0.3537  0.2407
33278SOL    HW1 7074   4.930   1.694  11.550  0.8966  0.7850  0.7904
33278SOL    HW2 7075   4.899   1.841  11.573 -0.0094  0.9250 -1.0962
33279SOL     OW 7076   6.800   8.501   8.884 -0.0525 -0.0229 -0.1450
33279SOL    HW1 7077   6.833   8.559   8.952 -0.8295 -0.3151  0.5101
33279SOL    HW2 7078   6.735   8.446   8.929  0.6264 -1.3698 -0.7450
33280SOL     OW 7079   9.959   2.974   2.102  0.1673 -0.3305 -0.6404
33280SOL    HW1 7080   9.986   3.056   2.061  0.8379  0.0641  0.5646
33280SOL    HW2 7081  10.019   2.908   2.066  1.8142  0.2844  0.8748
33281SOL     OW 7082   3.683   1.891   1.708  0.0096 -0.0382 -0.1197
33281SOL    HW1 7083   3.754   1.914   1.647 -0.6786  0.7061 -0.6695
33281SOL    HW2 7084   3.619   1.961   1.697 -1.2603 -1.1773 -0.3518
33282SOL     OW 7085   4.517   7.079   3.536  0.6217 -0.2497 -0.1735
33282SOL    HW1 7086   4.513   7.096   3.442  0.3911 -0.7392 -0.2586
33282SOL    HW2 7087   4.552   7.159   3.574  1.2045 -0.2302 -0.7327
33283SOL     OW 7088   4.988   4.904   8.357 -0.8449 -0.2340  0.0372
33283SOL    HW1 7089   4.965   4.835   8.295 -0.5535 -0.2837 -0.0134
33283SOL    HW2 7090   4.950   4.984   8.320 -1.2335 -0.3748  0.1251
33284SOL     OW 7091   5.310   6.212   5.426  0.0510 -0.4737  0.3566
33284SOL    HW1 7092   5.235   6.272   5.421  1.2095  0.9821 -0.5553
33284SOL    HW2 7093   5.337   6.216   5.518 -0.8867 -0.8836  0.6537
33285SOL     OW 7094   3.682  10.818   1.163  0.1653  0.1102 -0.4707
33285SOL    HW1 7095   3.628  10.892   1.134  0.5019  1.4311  1.9996
33285SOL    HW2 7096   3.696  10.834   1.257  2.6877 -1.5789 -0.4761
33286SOL     OW 7097   6.832   8.427   2.930  0.3244 -0.0128  0.2599
33286SOL    HW1 7098   6.896   8.395   2.993  0.6199  0.6910  0.3362
33286SOL    HW2 7099   6.883   8.444   2.850  0.3223  0.8922  0.4322
33287SOL     OW 7100   3.872   2.107   0.548 -0.5059 -0.1892 -0.0608
33287SOL    HW1 7101   3.893   2.025   0.594 -1.9435 -0.4899  0.1249
33287SOL    HW2 7102   3.934   2.171   0.582  0.3212 -1.0914  0.1548
33288SOL     OW 7103   4.917   6.091   1.325  0.2196 -0.0035  0.6084
33288SOL    HW1 7104   4.995   6.117   1.276 -0.7378  1.1180 -0.3704
33288SOL    HW2 7105   4.952   6.053   1.406  1.7414  3.1754  1.5858
33289SOL     OW 7106   1.130   8.988  10.279  0.6113  1.0211  0.8013
33289SOL    HW1 7107   1.116   8.937  10.199  2.3672 -0.0002  1.0826
33289SOL    HW2 7108   1.222   8.974  10.300  0.2095  1.3030  2.9761
33290SOL     OW 7109   1.131   5.903   7.748  0.4772 -0.0776 -0.2944
33290SOL    HW1 7110   1.161   5.992   7.764  0.1514 -0.2287  1.2603
33290SOL    HW2 7111   1.166   5.851   7.820 -0.0025 -1.0689 -0.7401
33291SOL     OW 7112   5.460  10.614   3.060  0.0913 -0.3091  0.3668
33291SOL    HW1 7113   5.366  10.627   3.053  0.3341  0.8152 -1.9813
33291SOL    HW2 7114   5.487  10.666   3.135 -1.1222 -0.5095  0.9536
33292SOL     OW 7115  12.024   1.486   5.046 -0.6171  0.2260  0.3576
33292SOL    HW1 7116  11.933   1.462   5.061 -0.6699  0.9310  1.2705
33292SOL    HW2 7117  12.027   1.510   4.953 -1.5086  0.7943  0.4642
33293SOL     OW 7118   5.826   6.423   9.457 -0.5594  0.2322 -0.4625
33293SOL    HW1 7119   5.890   6.375   9.403  0.4025 -0.5771  1.3128
33293SOL    HW2 7120   5.774   6.472   9.394  1.2425  0.2190 -2.0556
33294SOL     OW 7121   8.665   6.431   8.543  0.1875 -0.0877  0.4414
33294SOL    HW1 7122   8.755   6.431   8.510 -0.0486  1.7901 -0.3405
33294SOL    HW2 7123   8.666   6.496   8.614 -0.4103 -0.5768  0.9107
33295SOL     OW 7124   9.703   6.032   0.144 -0.1896 -0.2610  0.2588
33295SOL    HW1 7125   9.733   6.021   0.054  0.9671  0.3912  0.5494
33295SOL    HW2 7126   9.731   5.951   0.188 -0.6905 -0.5480  0.0581
33296SOL     OW 7127   4.902   4.353   1.175  0.7977 -0.1625 -0.2148
33296SOL    HW1 7128   4.928   4.431   1.127 -0.3864  0.5193  0.2214
33296SOL    HW2 7129   4.807   4.357   1.179  0.7704 -1.1471  0.6136
33297SOL     OW 7130   0.116   8.623  10.431  0.4504  0.0036  0.7355
33297SOL    HW1 7131   0.111   8.711  10.394  0.8366  0.6667  2.1890
33297SOL    HW2 7132   0.046   8.621  10.496  0.2443 -0.8801  0.4945
33298SOL     OW 7133  12.555  10.086   0.105 -0.1421  0.0495  0.0789
33298SOL    HW1 7134  12.477  10.121   0.063 -0.7692 -2.8472 -1.4175
33298SOL    HW2 7135  12.628  10.124   0.056 -0.7054  0.3660 -0.5278
33299SOL     OW 7136  11.596   9.953   6.707  0.2652  0.0290 -0.4172
33299SOL    HW1 7137  11.580  10.019   6.639 -0.3053 -0.2639 -0.5695
33299SOL    HW2 7138  11.533   9.973   6.775  1.4703  0.9276  0.4944
33300SOL     OW 7139   0.950   5.448   9.065 -0.3394  0.1715  0.3903
33300SOL    HW1 7140   1.018   5.439   8.999 -1.7933  0.3657 -1.2140
33300SOL    HW2 7141   0.963   5.374   9.124  0.6086 -0.3827 -0.4968
33301SOL     OW 7142   1.325   8.792   2.151  0.5454  0.2670  0.0331
33301SOL    HW1 7143   1.287   8.854   2.090  1.6617 -0.9836 -2.0692
33301SOL    HW2 7144   1.412   8.827   2.170  1.3390 -0.7727 -1.4838
33302SOL     OW 7145   5.415   0.786   1.402 -0.2732 -0.7148 -0.2144
33302SOL    HW1 7146   5.409   0.780   1.306 -0.6135 -1.2417 -0.1629
33302SOL    HW2 7147   5.355   0.719   1.434  0.0031 -0.6874  0.3732
33303SOL     OW 7148   4.977   4.832  12.478 -0.1069  0.0159 -0.0650
33303SOL    HW1 7149   5.024   4.750  12.491  0.7561  0.4967 -0.1262
33303SOL    HW2 7150   4.942   4.854  12.565 -0.5564 -0.5398 -0.1016
33304SOL     OW 7151   1.761  10.923   0.391 -0.4775  0.0376 -0.0036
33304SOL    HW1 7152   1.682  10.893   0.437 -0.2578  0.8573  0.9287
33304SOL    HW2 7153   1.739  11.012   0.362  0.7163  1.0028  1.8768
33305SOL     OW 7154   2.318  12.105   4.700 -0.0056 -0.0864 -0.7450
33305SOL    HW1 7155   2.280  12.021   4.727 -0.9967  0.2737 -0.9983
33305SOL    HW2 7156   2.262  12.136   4.629  0.9526  0.3108 -1.3485
33306SOL     OW 7157   4.609   0.898   3.790 -0.1031 -0.1415 -0.5388
33306SOL    HW1 7158   4.671   0.932   3.725 -1.2362  1.9277 -0.6290
33306SOL    HW2 7159   4.553   0.973   3.810  0.4787 -0.5124  3.1706
33307SOL     OW 7160   1.475  12.685   2.103  0.0220  0.0651  0.0797
33307SOL    HW1 7161   1.421  12.625   2.050 -0.3004 -0.7303  1.2639
33307SOL    HW2 7162   1.492  12.759   2.046  0.4618 -1.1714 -1.4699
33308SOL     OW 7163   8.394   2.976   7.655  0.0058 -0.4339 -0.4152
33308SOL    HW1 7164   8.458   3.030   7.609 -0.0194 -2.2841 -2.7881
33308SOL    HW2 7165   8.321   2.965   7.593 -1.5284 -0.4197  1.2864
33309SOL     OW 7166   7.119   9.340   6.334 -0.1843  0.0243  0.1465
33309SOL    HW1 7167   7.194   9.285   6.355 -1.2434 -1.7555 -0.5534
33309SOL    HW2 7168   7.069   9.290   6.270 -1.8268  1.2791  0.3731
33310SOL     OW 7169  11.138   0.006  10.655 -0.2658 -0.6938 -0.2657
33310SOL    HW1 7170  11.177  -0.040  10.730 -2.2557  0.3898  1.5262
33310SOL    HW2 7171  11.140   0.098  10.680 -1.7248 -0.3834 -1.1862
33311SOL     OW 7172   6.050  10.207  12.494 -0.9146  0.1422 -0.1260
33311SOL    HW1 7173   6.014  10.273  12.554 -0.5437 -0.9129  1.3230
33311SOL    HW2 7174   6.142  10.230  12.486 -0.9624  0.2789 -0.2828
33312SOL     OW 7175  10.181   6.715  10.351  0.1699 -0.2615  0.3776
33312SOL    HW1 7176  10.129   6.702  10.271  0.5040 -0.1092  0.1341
33312SOL    HW2 7177  10.140   6.791  10.393 -0.5712 -0.8851  0.8170
33313SOL     OW 7178  11.279   5.263  11.588 -0.1944  0.2211 -0.2915
33313SOL    HW1 7179  11.276   5.352  11.553 -1.0757  0.1694 -0.3738
33313SOL    HW2 7180  11.229   5.211  11.525  1.3372 -0.5861 -0.9021
33314SOL     OW 7181   4.095  10.404   6.495  0.5073 -0.1920 -0.4191
33314SOL    HW1 7182   4.190  10.412   6.503  0.3509  0.8483  0.7443
33314SOL    HW2 7183   4.061  10.448   6.573 -0.9313 -0.5842 -0.7965
33315SOL     OW 7184   5.530  10.466   6.078  0.1637 -0.1820  0.2134
33315SOL    HW1 7185   5.475  10.397   6.042  0.5215  0.9030 -2.6255
33315SOL    HW2 7186   5.473  10.544   6.077  1.2909  0.6613 -1.5063
33316SOL     OW 7187   1.305   5.644  10.491 -0.5913 -0.1116 -0.3300
33316SOL    HW1 7188   1.310   5.550  10.471  0.6204 -0.0422 -0.4504
33316SOL    HW2 7189   1.273   5.648  10.581 -0.5111 -0.6483 -0.2753
33317SOL     OW 7190   2.112   3.157   7.014 -0.2139  0.1719 -0.0791
33317SOL    HW1 7191   2.159   3.110   6.945 -0.2782  0.8373 -0.5835
33317SOL    HW2 7192   2.114   3.249   6.987  1.4574  0.7489  1.7768
33318SOL     OW 7193   4.990   2.254   6.078  0.5076  0.1441  0.5902
33318SOL    HW1 7194   4.940   2.263   6.159  0.8594  0.5089  0.7739
33318SOL    HW2 7195   5.078   2.229   6.108  0.4260 -0.5590  0.2690
33319SOL     OW 7196   0.379   6.980   0.277  0.6589  0.0483 -0.8593
33319SOL    HW1 7197   0.458   7.033   0.290 -0.4499  1.4524  0.6664
33319SOL    HW2 7198   0.309   7.044   0.265 -0.5664 -1.0793 -0.0808
33320SOL     OW 7199  10.978   3.736   8.579  0.3220 -0.2107  0.1016
33320SOL    HW1 7200  11.000   3.796   8.508  1.6431 -1.7652 -0.8907
33320SOL    HW2 7201  10.924   3.669   8.538  0.1789 -0.5451  0.8173
33321SOL     OW 7202   6.007  10.748  11.872 -0.1337  0.1111 -0.0772
33321SOL    HW1 7203   6.080  10.686  11.870  0.7025  1.0592  0.3009
33321SOL    HW2 7204   5.947  10.712  11.936 -1.2205 -1.9784 -2.1274
33322SOL     OW 7205   0.784   3.787   1.384 -0.0891  0.3730 -0.4800
33322SOL    HW1 7206   0.820   3.853   1.443 -1.6890  1.3293 -0.5275
33322SOL    HW2 7207   0.758   3.836   1.306 -2.8049  0.0211  0.1163
33323SOL     OW 7208   4.880   0.533  11.543 -0.1898  0.3100 -0.2060
33323SOL    HW1 7209   4.875   0.600  11.611 -3.0534  0.7779 -0.7412
33323SOL    HW2 7210   4.902   0.453  11.590 -2.2408  0.5791  1.3779
33324SOL     OW 7211   5.327  10.018   5.545  0.4929 -0.0716 -0.7211
33324SOL    HW1 7212   5.395  10.086   5.546  0.1720  0.2545  0.3041
33324SOL    HW2 7213   5.268  10.044   5.474  0.5797  0.5204 -0.5799
33325SOL     OW 7214   7.906   1.930   4.140 -0.0638 -0.0589 -0.6265
33325SOL    HW1 7215   7.963   1.967   4.072 -0.5664  1.4334 -0.2706
33325SOL    HW2 7216   7.901   1.836   4.119  0.8705  0.1408 -1.8452
33326SOL     OW 7217   8.172   8.770   8.160  0.4575 -0.0628 -0.3332
33326SOL    HW1 7218   8.083   8.803   8.148  0.5571  0.0699 -0.7038
33326SOL    HW2 7219   8.227   8.848   8.161  0.4400 -0.0358  1.2454
33327SOL     OW 7220   2.380   9.953   9.239 -0.7841  0.2385  0.6045
33327SOL    HW1 7221   2.378  10.003   9.158 -0.6850 -0.1304  0.3692
33327SOL    HW2 7222   2.382  10.018   9.308  2.1240  0.6015  0.2696
33328SOL     OW 7223  10.121   3.857   0.871  0.0620  0.1987 -0.0439
33328SOL    HW1 7224  10.203   3.889   0.907  1.0194 -1.3161 -0.7784
33328SOL    HW2 7225  10.068   3.834   0.948 -0.2571  2.3840  0.4784
33329SOL     OW 7226   2.443   1.194   9.802  0.1797  0.3726  0.2606
33329SOL    HW1 7227   2.383   1.120   9.803 -0.2370  0.6718 -0.7779
33329SOL    HW2 7228   2.456   1.216   9.894  0.2596 -0.9435  0.5731
33330SOL     OW 7229   3.387   1.602   0.597  0.0886  0.2654  0.7770
33330SOL    HW1 7230   3.388   1.587   0.692 -0.9894 -1.4423  0.5717
33330SOL    HW2 7231   3.473   1.574   0.567  0.2877  0.4223  1.1936
33331SOL     OW 7232   1.836   5.155   3.386  0.1503  0.0585  0.3160
33331SOL    HW1 7233   1.858   5.095   3.315 -0.4577  0.0522  0.1303
33331SOL    HW2 7234   1.770   5.214   3.349  1.3611  1.4205  0.2032
33332SOL     OW 7235   5.573   0.359   8.881 -0.3093 -0.1730  0.1715
33332SOL    HW1 7236   5.546   0.290   8.941  0.7017 -1.3979 -0.7222
33332SOL    HW2 7237   5.627   0.419   8.934 -0.6860 -0.4033  0.8143
33333SOL     OW 7238  12.496  10.741   9.750  0.3034  0.1223  0.6116
33333SOL    HW1 7239  12.540  10.782   9.676 -0.8061  0.1508 -0.0442
33333SOL    HW2 7240  12.558  10.676   9.782  0.7450  0.0266 -0.4087
33334SOL     OW 7241   7.671   6.368   4.463 -0.4330  0.1801 -0.4406
33334SOL    HW1 7242   7.624   6.431   4.408  0.2251  0.4381 -0.7179
33334SOL    HW2 7243   7.725   6.319   4.402 -1.4796 -1.1703 -0.3204
33335SOL     OW 7244   9.281   0.464  11.593 -0.0563  0.0849 -0.2646
33335SOL    HW1 7245   9.310   0.421  11.673  3.2404  1.3873 -0.6188
33335SOL    HW2 7246   9.360   0.503  11.556 -1.4673 -0.2089 -4.0380
33336SOL     OW 7247   5.340   4.158   3.316  0.0533  0.2388  0.3083
33336SOL    HW1 7248   5.385   4.139   3.398 -1.1215 -2.0298  0.5246
33336SOL    HW2 7249   5.300   4.244   3.329  2.8404  1.5542  0.7033
33337SOL     OW 7250   4.638  11.502   1.843 -0.1918  0.2104  0.3134
33337SOL    HW1 7251   4.723  11.530   1.875  0.1778 -1.5564  0.9955
33337SOL    HW2 7252   4.603  11.448   1.914 -2.6678  2.2449  0.8021
33338SOL     OW 7253   5.330   2.036   4.137 -0.0723 -0.3126 -0.2788
33338SOL    HW1 7254   5.395   2.034   4.067  3.4036 -0.6361  2.6993
33338SOL    HW2 7255   5.301   1.945   4.145 -0.3302 -0.3120 -1.0738
33339SOL     OW 7256  11.329   6.194   6.713 -0.0013 -0.3476 -0.0098
33339SOL    HW1 7257  11.279   6.163   6.637  0.5777  0.2445 -0.6508
33339SOL    HW2 7258  11.420   6.189   6.685  0.3532 -1.8270  1.3011
33340SOL     OW 7259   5.568   0.186  10.164  0.0865  0.6266 -0.4049
33340SOL    HW1 7260   5.616   0.258  10.204 -0.0012  0.5375 -0.1396
33340SOL    HW2 7261   5.636   0.132  10.123  0.5396 -0.9547  2.2247
33341SOL     OW 7262  11.632   7.162   1.549  0.5374  0.1893  0.3134
33341SOL    HW1 7263  11.687   7.141   1.624 -1.5708 -3.5746  1.0615
33341SOL    HW2 7264  11.560   7.214   1.586 -0.3056 -1.3488  0.9021
33342SOL     OW 7265   7.256   7.990   5.414  0.0798 -0.1736 -0.0182
33342SOL    HW1 7266   7.260   8.065   5.355 -0.6775 -1.2901 -1.5606
33342SOL    HW2 7267   7.194   7.930   5.372  2.7750 -2.9419 -0.4325
33343SOL     OW 7268   0.977  11.709   2.145  0.3125  0.3302  0.3372
33343SOL    HW1 7269   0.949  11.775   2.209 -1.0558 -0.5032  0.6328
33343SOL    HW2 7270   0.938  11.627   2.176 -1.2702  0.0788 -2.0844
33344SOL     OW 7271  10.724   7.525   2.954 -0.1807 -0.0130 -0.2436
33344SOL    HW1 7272  10.699   7.614   2.927 -1.2942 -0.5571 -1.0741
33344SOL    HW2 7273  10.679   7.468   2.892  1.7715 -1.1350 -0.7227
33345SOL     OW 7274   0.612   7.242  11.949 -0.5448 -0.0490 -0.4014
33345SOL    HW1 7275   0.614   7.223  11.856  0.8731 -1.7322 -0.0878
33345SOL    HW2 7276   0.523   7.219  11.977 -1.4135  1.7703 -1.5300
33346SOL     OW 7277  10.575   1.603   7.359  0.4491  0.0705  0.0499
33346SOL    HW1 7278  10.495   1.657   7.356  0.6934  0.5073  0.9569
33346SOL    HW2 7279  10.617   1.619   7.275 -1.1969 -1.4223 -1.1248
33347SOL     OW 7280   9.260   7.957   8.290 -0.6715  0.1968  0.0939
33347SOL    HW1 7281   9.202   7.908   8.232  0.6508 -0.4296 -0.7385
33347SOL    HW2 7282   9.224   7.942   8.378 -1.2728 -0.8699 -0.3216
33348SOL     OW 7283   1.720   2.808   7.064 -0.7651  0.2900  0.4509
33348SOL    HW1 7284   1.788   2.765   7.012 -1.8702  1.0407 -1.7389
33348SOL    HW2 7285   1.699   2.745   7.133 -0.3652 -1.5078 -0.9856
33349SOL     OW 7286   1.865   4.868   2.142 -0.0666 -0.1599 -0.4083
33349SOL    HW1 7287   1.826   4.935   2.087  0.9384  0.4233 -0.4360
33349SOL    HW2 7288   1.843   4.893   2.231  0.4295  0.2935 -0.4107
33350SOL     OW 7289  10.557   3.011   8.673 -0.4625 -0.4815 -0.2167
33350SOL    HW1 7290  10.575   2.925   8.711  0.6523  0.0474  0.4900
33350SOL    HW2 7291  10.637   3.034   8.625 -1.2381 -0.4066 -1.5367
33351SOL     OW 7292  10.669   7.278   0.411 -0.1002 -0.2056 -0.3044
33351SOL    HW1 7293  10.622   7.246   0.488  0.2851  0.8723  0.4075
33351SOL    HW2 7294  10.736   7.336   0.447  0.1645  0.2194 -1.4537
33352SOL     OW 7295   1.757   7.860  10.113 -0.7145  0.6027  0.1623
33352SOL    HW1 7296   1.680   7.805  10.129  0.0662 -0.9112 -0.9831
33352SOL    HW2 7297   1.763   7.916  10.190 -3.7644  1.8001 -0.3226
33353SOL     OW 7298   3.054  11.312   8.342 -0.3926 -0.4721  0.4113
33353SOL    HW1 7299   3.043  11.224   8.376 -1.3755 -0.7529 -0.5912
33353SOL    HW2 7300   2.986  11.363   8.385  0.7824  0.0491  1.7318
33354SOL     OW 7301   6.314   2.184   2.500 -0.3307 -0.0641  0.1925
33354SOL    HW1 7302   6.305   2.265   2.450 -2.0305  0.5531  1.3770
33354SOL    HW2 7303   6.400   2.150   2.477 -0.3964  1.0343 -1.8464
33355SOL     OW 7304   7.118   1.050  11.505 -0.2103  0.3147  0.3354
33355SOL    HW1 7305   7.059   1.071  11.432 -0.9732 -0.8368  0.5935
33355SOL    HW2 7306   7.072   0.982  11.554 -0.7469  2.5648  3.1986
33356SOL     OW 7307   0.389   4.158  12.368 -0.2144 -0.3181 -0.2752
33356SOL    HW1 7308   0.331   4.134  12.440  1.0067 -0.7030  0.6312
33356SOL    HW2 7309   0.413   4.249  12.385 -1.4081  0.2100 -1.2786
33357SOL     OW 7310   8.961   7.338  11.462 -0.7109  1.0668  0.1227
33357SOL    HW1 7311   9.004   7.393  11.528 -0.2196 -0.3309  1.0170
33357SOL    HW2 7312   8.890   7.295  11.510  0.1033 -0.5285 -0.0384
33358SOL     OW 7313   8.681   9.057   5.070  0.2983  0.1751 -0.2322
33358SOL    HW1 7314   8.676   9.015   5.156  0.9444  2.7045  1.1346
33358SOL    HW2 7315   8.681   9.150   5.089 -0.6475  0.8600 -3.0814
33359SOL     OW 7316  11.450   3.828   8.331  0.2297 -0.1054  0.2732
33359SOL    HW1 7317  11.517   3.786   8.386  0.4929 -2.1219 -1.4620
33359SOL    HW2 7318  11.373   3.771   8.338 -1.2638  1.9630  1.9135
33360SOL     OW 7319   5.844   5.712   9.448 -0.2822  0.1183  0.5354
33360SOL    HW1 7320   5.766   5.707   9.391 -0.2977  0.6638  0.5046
33360SOL    HW2 7321   5.918   5.706   9.387 -0.2684  2.5836  0.2166
33361SOL     OW 7322   0.542   7.597   3.973 -0.5463  0.6683  0.2584
33361SOL    HW1 7323   0.524   7.673   4.029  0.6456 -0.0812  1.7303
33361SOL    HW2 7324   0.580   7.635   3.894  1.7511  1.5766  1.6872
33362SOL     OW 7325   6.001   4.273   7.499  0.2848  0.7008  0.1210
33362SOL    HW1 7326   5.971   4.289   7.410  0.5984  0.9562  0.0604
33362SOL    HW2 7327   5.930   4.306   7.555 -0.6505 -0.9232 -0.0383
33363SOL     OW 7328   7.918   0.701   5.142 -0.2986  0.0536  0.0868
33363SOL    HW1 7329   7.957   0.649   5.212 -1.4816 -0.2202  0.5693
33363SOL    HW2 7330   7.988   0.713   5.078  0.3893 -0.9238  0.6431
33364SOL     OW 7331   9.023  11.841   7.105  0.4634  0.4287  0.0355
33364SOL    HW1 7332   9.007  11.771   7.169 -1.0962 -1.3406 -2.1478
33364SOL    HW2 7333   9.065  11.797   7.031  2.1838  2.4157 -0.2638
33365SOL     OW 7334   4.044   1.169   6.831 -0.3924  0.0292  0.7172
33365SOL    HW1 7335   4.095   1.109   6.885 -0.3246 -2.5140 -1.9438
33365SOL    HW2 7336   4.106   1.198   6.764 -1.5211 -0.3391 -0.5176
33366SOL     OW 7337   5.202   9.620   0.939 -0.7669 -0.3599 -0.8586
33366SOL    HW1 7338   5.164   9.536   0.965 -0.8462 -0.3248 -0.8608
33366SOL    HW2 7339   5.159   9.684   0.996 -2.4058 -0.0172 -2.3933
33367SOL     OW 7340   8.634   7.320  11.973  0.1531  0.0356 -0.1028
33367SOL    HW1 7341   8.554   7.368  11.953  0.5136  0.2593 -1.0778
33367SOL    HW2 7342   8.676   7.370  12.042  0.0288  0.5761 -0.4116
33368SOL     OW 7343  10.974   9.347   0.039 -0.2465 -0.4339  0.1241
33368SOL    HW1 7344  11.049   9.294   0.012 -0.1512  0.1380 -0.7719
33368SOL    HW2 7345  10.982   9.353   0.134  0.5195 -0.8556  0.0974
33369SOL     OW 7346   6.255   8.062   9.879 -0.5082 -0.7369  0.2737
33369SOL    HW1 7347   6.187   8.128   9.888  0.5173  0.4773 -0.5868
33369SOL    HW2 7348   6.287   8.049   9.968 -1.1651 -0.5806  0.5442
33370SOL     OW 7349  11.800   1.581   3.756  0.3046  0.2814  0.0355
33370SOL    HW1 7350  11.732   1.625   3.704 -0.5499  0.2434  1.0802
33370SOL    HW2 7351  11.786   1.613   3.845 -0.0267 -1.7258  0.7438
33371SOL     OW 7352   3.604   7.797   1.186  0.5354 -0.2474 -0.2630
33371SOL    HW1 7353   3.598   7.760   1.098 -0.8242 -0.7357  0.0030
33371SOL    HW2 7354   3.513   7.809   1.213  0.9337  0.1739  0.9641
33372SOL     OW 7355   4.864   0.532   6.828  0.3189 -0.6815 -0.3298
33372SOL    HW1 7356   4.878   0.612   6.879  0.5272 -0.8850 -0.0660
33372SOL    HW2 7357   4.935   0.474   6.855 -0.5004 -1.3956  0.3619
33373SOL     OW 7358  10.948   2.554   2.765  0.0846  0.9386  0.1729
33373SOL    HW1 7359  10.995   2.472   2.783  0.5025  1.1744  0.1652
33373SOL    HW2 7360  10.895   2.568   2.843  0.4164  0.9349  0.4042
33374SOL     OW 7361   8.319   1.143   3.290 -0.1912 -0.1613  0.3199
33374SOL    HW1 7362   8.377   1.219   3.288  1.1801 -1.1758 -1.7403
33374SOL    HW2 7363   8.377   1.069   3.308 -1.2094 -0.9524  0.4291
33375SOL     OW 7364   5.142  11.929   7.911 -0.3735  0.3457  0.4117
33375SOL    HW1 7365   5.056  11.892   7.893  0.7167 -1.4954 -1.5714
33375SOL    HW2 7366   5.128  11.993   7.980 -3.7144  1.8506 -1.4557
33376SOL     OW 7367   5.483  10.404  12.267  0.0741  0.4010 -0.5982
33376SOL    HW1 7368   5.475  10.351  12.188 -0.5849  1.0462 -0.9845
33376SOL    HW2 7369   5.519  10.488  12.236 -0.2764  0.6917 -0.2358
33377SOL     OW 7370   7.323   7.823   1.540 -0.2563 -0.4458  0.3086
33377SOL    HW1 7371   7.244   7.825   1.594  0.0919  0.8712  0.8350
33377SOL    HW2 7372   7.395   7.824   1.604  0.1696 -0.0078 -0.1659
33378SOL     OW 7373  10.960   6.025   0.321 -0.2560 -0.5750 -0.0783
33378SOL    HW1 7374  10.933   5.937   0.346 -1.0544 -0.0220  1.1145
33378SOL    HW2 7375  11.006   6.014   0.237 -1.8346 -1.8976 -0.8131
33379SOL     OW 7376   1.613   6.394  11.140  0.3554  0.3242  0.0519
33379SOL    HW1 7377   1.593   6.301  11.145 -0.9412  0.4047 -2.1845
33379SOL    HW2 7378   1.701   6.402  11.176  0.4530 -1.7252  0.3856
33380SOL     OW 7379  10.339   2.988   5.935  0.1341  0.6529 -0.3570
33380SOL    HW1 7380  10.338   2.919   5.869 -0.2397  0.0618  0.2492
33380SOL    HW2 7381  10.294   3.062   5.894 -0.7957  0.0286 -0.4953
33381SOL     OW 7382   0.218   8.229  11.059 -0.1169  0.4122  0.0482
33381SOL    HW1 7383   0.168   8.284  11.119 -2.3195  1.1170 -2.2926
33381SOL    HW2 7384   0.190   8.256  10.972  2.0162 -1.4356 -1.3191
33382SOL     OW 7385   3.784  11.247   4.469 -0.2122 -0.1012 -0.1376
33382SOL    HW1 7386   3.827  11.305   4.531 -0.0511 -0.1241 -0.2259
33382SOL    HW2 7387   3.758  11.171   4.521 -2.5543  1.0405  0.4906
33383SOL     OW 7388   2.921   8.208   4.695 -0.0874 -1.0367  0.4107
33383SOL    HW1 7389   3.016   8.220   4.699 -0.2242 -0.0040  3.7346
33383SOL    HW2 7390   2.909   8.113   4.692  0.9894 -1.1499 -1.8248
33384SOL     OW 7391   7.051   1.754  10.807 -0.0503 -0.0649  0.7172
33384SOL    HW1 7392   7.106   1.676  10.804  0.7560  0.5007 -2.5942
33384SOL    HW2 7393   6.962   1.720  10.818  0.4334 -1.3315  0.9326
33385SOL     OW 7394  12.181   6.444   3.085 -0.0316 -0.3746  0.2416
33385SOL    HW1 7395  12.160   6.376   3.149  2.1905 -0.3573  1.0705
33385SOL    HW2 7396  12.243   6.403   3.025 -0.1460  0.3696 -0.4130
33386SOL     OW 7397   9.096   8.479   4.249  0.1573 -0.4021  0.1441
33386SOL    HW1 7398   9.184   8.518   4.243  0.2426 -0.5521  0.3621
33386SOL    HW2 7399   9.069   8.498   4.339  0.1389 -0.7163  0.2055
33387SOL     OW 7400   8.167   6.277  10.471  0.1855 -0.0517 -0.1008
33387SOL    HW1 7401   8.089   6.294  10.419  0.7053  1.8666 -0.3240
33387SOL    HW2 7402   8.228   6.347  10.446  1.7414 -1.1293  0.5334
33388SOL     OW 7403   8.239  11.369   3.816  0.0132 -0.1860  0.2389
33388SOL    HW1 7404   8.317  11.316   3.828 -0.2539 -0.1244  2.8888
33388SOL    HW2 7405   8.167  11.306   3.814 -0.0421 -0.1215  0.1779
33389SOL     OW 7406   9.282   2.433   2.327  0.3393 -0.7400 -0.4121
33389SOL    HW1 7407   9.316   2.370   2.264  1.6491 -1.0478  0.5301
33389SOL    HW2 7408   9.236   2.498   2.275  1.6120 -0.8350 -1.7170
33390SOL     OW 7409   8.993   3.302  11.246  0.2987 -0.2651 -0.1188
33390SOL    HW1 7410   9.067   3.314  11.304 -1.2862 -0.3819  2.0684
33390SOL    HW2 7411   8.990   3.207  11.230  1.3444 -0.1273 -1.3367
33391SOL     OW 7412   1.786   6.068   7.117  0.0028  0.3881  0.7919
33391SOL    HW1 7413   1.712   6.107   7.071 -0.4511  0.9419  1.9671
33391SOL    HW2 7414   1.848   6.140   7.130 -0.3039  0.4702  1.8942
33392SOL     OW 7415   7.553   9.510   6.651  0.3085  0.3956  0.5523
33392SOL    HW1 7416   7.479   9.555   6.610  0.1983 -1.0297 -0.9107
33392SOL    HW2 7417   7.630   9.557   6.620  0.1830 -0.2463 -0.7692
33393SOL     OW 7418   4.892  11.574  11.215 -0.0422 -0.0687 -0.1418
33393SOL    HW1 7419   4.965  11.511  11.215  0.2695  0.2881 -0.3771
33393SOL    HW2 7420   4.933  11.658  11.236 -0.5658 -0.0605  0.9256
33394SOL     OW 7421   0.003   7.459  11.991  0.7509 -0.0971 -0.0235
33394SOL    HW1 7422   0.012   7.465  11.896  0.0526 -1.8227 -0.2189
33394SOL    HW2 7423   0.091   7.476  12.024  0.9072  0.9954 -0.9273
33395SOL     OW 7424   7.118   3.726  10.658 -0.1407 -0.3274  0.3471
33395SOL    HW1 7425   7.147   3.636  10.670  0.2998 -0.0921  1.1445
33395SOL    HW2 7426   7.074   3.726  10.573 -0.3890 -1.3493  0.4591
33396SOL     OW 7427  12.383  10.665   5.910 -0.4554  0.6648  0.4612
33396SOL    HW1 7428  12.363  10.747   5.864  0.0178  0.2684 -0.4634
33396SOL    HW2 7429  12.297  10.635   5.942 -0.6216  1.5636  0.9153
33397SOL     OW 7430   5.915   8.804   0.858 -0.0855  0.2779  0.4766
33397SOL    HW1 7431   5.924   8.798   0.953 -0.9494 -2.5191  0.4876
33397SOL    HW2 7432   6.003   8.822   0.826  0.9295 -2.0959  1.6962
33398SOL     OW 7433   0.343   3.656   5.353 -0.6270  0.2122  0.1998
33398SOL    HW1 7434   0.289   3.639   5.431 -1.1344 -0.6054 -0.3247
33398SOL    HW2 7435   0.341   3.574   5.304  2.7142 -0.5473  1.1107
33399SOL     OW 7436  10.361  12.299   1.875  0.0606 -0.3434 -0.1353
33399SOL    HW1 7437  10.388  12.208   1.880 -2.1888 -1.0336  0.7553
33399SOL    HW2 7438  10.334  12.311   1.784  2.8401  0.2854 -0.9688
33400SOL     OW 7439  12.682  12.154  12.645  1.0703  0.1783  0.1759
33400SOL    HW1 7440  12.772  12.125  12.629  1.2693  0.7559  0.1900
33400SOL    HW2 7441  12.692  12.226  12.707  0.7365  1.2119 -0.9168
33401SOL     OW 7442  11.510  10.415   9.325 -0.4709 -0.1375 -0.5554
33401SOL    HW1 7443  11.525  10.445   9.236 -0.3114 -0.2652 -0.5720
33401SOL    HW2 7444  11.415  10.417   9.335 -0.7447 -2.7766 -1.6889
33402SOL     OW 7445   7.473   6.404   3.521 -0.0835 -0.0539  0.2977
33402SOL    HW1 7446   7.503   6.323   3.479  2.4469 -0.2550  2.2671
33402SOL    HW2 7447   7.383   6.385   3.549 -0.3712 -1.3171 -1.3064
33403SOL     OW 7448  11.390   0.580   5.727  0.1516  0.1069  0.5168
33403SOL    HW1 7449  11.359   0.498   5.765  0.9342 -0.0021  0.9449
33403SOL    HW2 7450  11.433   0.626   5.799  0.9628  0.2496 -0.0413
33404SOL     OW 7451   8.779   8.952   4.373 -0.2903 -0.0758  0.0217
33404SOL    HW1 7452   8.779   9.028   4.314  0.4921  0.6495  0.9154
33404SOL    HW2 7453   8.820   8.882   4.322 -1.5848 -0.1030 -1.0341
33405SOL     OW 7454  10.764   8.769   6.227 -0.1876 -0.8884 -0.2505
33405SOL    HW1 7455  10.851   8.797   6.257 -0.9355  0.6133  0.6524
33405SOL    HW2 7456  10.717   8.748   6.308 -0.7319 -1.5036 -0.7174
33406SOL     OW 7457   5.457   0.208   8.631  0.1165 -0.3566  0.6780
33406SOL    HW1 7458   5.477   0.288   8.679  2.5862 -1.4338  1.6404
33406SOL    HW2 7459   5.415   0.150   8.694 -1.3655  0.0092  0.0738
33407SOL     OW 7460   6.082   9.272   7.320 -0.1786 -0.1626  0.7611
33407SOL    HW1 7461   6.172   9.253   7.349 -0.6869 -1.6641  1.4154
33407SOL    HW2 7462   6.091   9.293   7.227  0.9245  0.3422  0.9624
33408SOL     OW 7463   9.745  12.080  10.367 -0.0788  0.4021 -0.3089
33408SOL    HW1 7464   9.680  12.112  10.430  1.0617  1.4766  0.3686
33408SOL    HW2 7465   9.693  12.048  10.293 -1.5052 -1.6367  1.4467
33409SOL     OW 7466   2.863   8.979   5.593 -0.4901 -0.5108 -0.2500
33409SOL    HW1 7467   2.812   8.899   5.608  0.1907 -1.0281 -0.6169
33409SOL    HW2 7468   2.845   9.001   5.501  0.3491 -1.0059 -0.5470
33410SOL     OW 7469  10.522   0.951   3.453 -0.2541  0.0802 -0.0886
33410SOL    HW1 7470  10.475   0.875   3.419 -2.7501  0.5640  1.9452
33410SOL    HW2 7471  10.574   0.982   3.379  0.1515 -3.0274 -1.2401
33411SOL     OW 7472   8.187  11.663   3.122  0.5717  0.0706 -0.6327
33411SOL    HW1 7473   8.252  11.712   3.173  1.2244 -1.9734  0.5912
33411SOL    HW2 7474   8.116  11.726   3.107  1.7449  1.6416  0.0849
33412SOL     OW 7475   5.591   9.318  11.630  0.0939  0.1629 -0.1010
33412SOL    HW1 7476   5.672   9.353  11.667  0.9146 -0.9393 -0.8126
33412SOL    HW2 7477   5.587   9.228  11.661 -1.6115  0.5844  1.0846
33413SOL     OW 7478  11.311   9.154   2.561  0.1525  0.1401 -0.3366
33413SOL    HW1 7479  11.314   9.238   2.606 -0.8094 -0.0494  0.0957
33413SOL    HW2 7480  11.386   9.157   2.501  0.3167  1.1705 -0.1052
33414SOL     OW 7481   0.085   3.832   6.106  0.3637 -0.0218  0.2823
33414SOL    HW1 7482   0.025   3.861   6.174 -3.0159 -0.4583 -2.2540
33414SOL    HW2 7483   0.106   3.741   6.129 -0.7860 -0.1874  0.7248
33415SOL     OW 7484   5.621   9.504   5.283 -0.4569  0.6005 -0.0931
33415SOL    HW1 7485   5.612   9.409   5.273  1.2790  0.4352 -0.3902
33415SOL    HW2 7486   5.639   9.516   5.376  0.6333  0.4963 -0.2795
33416SOL     OW 7487   2.727   9.806   9.629 -0.4280 -0.5617 -0.1785
33416SOL    HW1 7488   2.659   9.741   9.611  0.5092 -1.7788  0.5035
33416SOL    HW2 7489   2.697   9.853   9.706 -1.2859  0.0910 -0.8891
33417SOL     OW 7490   1.305   8.153   2.981 -0.2831 -0.3055 -0.4997
33417SOL    HW1 7491   1.367   8.114   2.919  0.0678 -0.0467 -0.3168
33417SOL    HW2 7492   1.249   8.080   3.008 -0.3735 -0.4353 -1.0466
33418SOL     OW 7493   2.338   1.231   8.111  0.6896  0.0074 -0.2781
33418SOL    HW1 7494   2.322   1.166   8.043  2.0144 -1.9080  1.1230
33418SOL    HW2 7495   2.251   1.255   8.142  0.0862  0.5762 -2.2802
33419SOL     OW 7496  12.261   4.738  11.704  0.2650 -0.1495  0.3742
33419SOL    HW1 7497  12.294   4.827  11.723  1.0518 -0.4206  0.3136
33419SOL    HW2 7498  12.328   4.680  11.741  0.0687 -0.7174 -0.1611
33420SOL     OW 7499   3.700   1.731   9.285  0.2458  1.0687 -0.2499
33420SOL    HW1 7500   3.733   1.712   9.197 -0.2849  2.9080 -0.8883
33420SOL    HW2 7501   3.651   1.812   9.275 -0.4437  0.9234  1.6213
33421SOL     OW 7502   1.955   5.151   2.904  0.0536 -0.0434  0.0354
33421SOL    HW1 7503   1.915   5.237   2.891 -0.6758 -0.5182 -0.8989
33421SOL    HW2 7504   2.049   5.170   2.911 -0.0468  0.7705 -0.6766
33422SOL     OW 7505   9.100  10.567   1.737  0.2416  0.7619  0.2634
33422SOL    HW1 7506   9.146  10.577   1.653  2.0479 -0.9314  0.9576
33422SOL    HW2 7507   9.032  10.635   1.736  1.5424  2.1485 -1.6748
33423SOL     OW 7508  10.067   3.947   2.528 -0.2246 -0.1678  0.3203
33423SOL    HW1 7509  10.093   3.884   2.595  1.8277  0.7838  0.4890
33423SOL    HW2 7510  10.147   3.963   2.477 -1.8974 -1.6197 -3.0857
33424SOL     OW 7511   5.332   4.760  11.448 -0.5161 -0.0870  0.1582
33424SOL    HW1 7512   5.376   4.743  11.531  0.8117  1.7296 -0.1296
33424SOL    HW2 7513   5.400   4.795  11.391 -2.1370  2.0914 -0.5581
33425SOL     OW 7514  11.282   2.732   9.863 -0.4409 -0.1309 -0.1590
33425SOL    HW1 7515  11.342   2.794   9.905 -0.5207 -0.6224  0.7011
33425SOL    HW2 7516  11.210   2.787   9.831  0.0925  0.3704 -0.5321
33426SOL     OW 7517  10.839   5.102   7.976  0.0710  0.3285  0.1912
33426SOL    HW1 7518  10.919   5.059   7.946 -0.7145 -0.7379 -0.5023
33426SOL    HW2 7519  10.775   5.081   7.908 -0.8390  0.9807  0.8314
33427SOL     OW 7520   1.397   6.156   1.481 -0.2942  0.1292  0.3464
33427SOL    HW1 7521   1.443   6.133   1.400 -1.4226  2.0494 -0.9541
33427SOL    HW2 7522   1.316   6.199   1.450 -1.4670 -0.4054  2.5184
33428SOL     OW 7523  11.570  12.332  10.353  0.3814 -0.5107 -0.3180
33428SOL    HW1 7524  11.494  12.279  10.332 -0.0644 -0.4116  0.9751
33428SOL    HW2 7525  11.629  12.320  10.279 -1.2145  0.0620 -1.7316
33429SOL     OW 7526   2.826   1.936  11.214  0.3478  0.6958  0.0620
33429SOL    HW1 7527   2.872   1.919  11.132 -0.9007 -0.4251 -0.4342
33429SOL    HW2 7528   2.879   2.003  11.257  1.7463  0.3515 -1.0412
33430SOL     OW 7529   1.351   6.908  12.160 -0.7402 -0.1848 -0.0076
33430SOL    HW1 7530   1.295   6.985  12.154 -0.2388  0.1799 -0.1083
33430SOL    HW2 7531   1.434   6.936  12.120 -0.8755 -1.0882 -0.9574
33431SOL     OW 7532  12.219   3.759  10.066  0.5323  0.5330  0.1737
33431SOL    HW1 7533  12.200   3.816   9.991 -0.1710  0.0656 -0.0081
33431SOL    HW2 7534  12.227   3.820  10.140 -1.3953  0.8110  0.2101
33432SOL     OW 7535  10.124   1.216   9.048  0.3718  0.0175 -0.2031
33432SOL    HW1 7536  10.217   1.216   9.069  0.3014 -0.4811  0.1121
33432SOL    HW2 7537  10.084   1.164   9.117 -0.0984 -0.0612 -0.5353
33433SOL     OW 7538   7.728  10.780  10.565 -0.0121 -0.3524 -0.5229
33433SOL    HW1 7539   7.648  10.827  10.540  0.3334  0.6872  0.2721
33433SOL    HW2 7540   7.731  10.786  10.660  2.2777  1.8059 -0.6543
33434SOL     OW 7541   1.427   5.067   8.734  0.7005  0.1360  0.0690
33434SOL    HW1 7542   1.339   5.107   8.734 -0.1012 -1.5379  0.3544
33434SOL    HW2 7543   1.452   5.066   8.827  0.4878 -0.4948  0.1211
33435SOL     OW 7544   6.753   5.047   7.789 -0.2201 -0.5298  0.0955
33435SOL    HW1 7545   6.836   5.030   7.744  0.4154 -0.1788  1.0998
33435SOL    HW2 7546   6.777   5.056   7.881 -1.4186 -0.6833  0.4422
33436SOL     OW 7547   2.730   8.788   0.724  0.4441 -0.1555  0.1199
33436SOL    HW1 7548   2.695   8.767   0.810 -0.1885  0.7597  0.1033
33436SOL    HW2 7549   2.703   8.716   0.668 -1.1157  0.3319  0.1940
33437SOL     OW 7550   1.485   7.864   6.433 -0.6698 -0.2635  0.0444
33437SOL    HW1 7551   1.487   7.807   6.356  1.9075  1.6354 -1.4467
33437SOL    HW2 7552   1.411   7.832   6.484 -1.9016 -2.2475 -2.7149
33438SOL     OW 7553   1.822  12.412  10.780  0.0315 -0.2014 -0.1263
33438SOL    HW1 7554   1.872  12.336  10.810 -0.0229 -0.4259 -0.5901
33438SOL    HW2 7555   1.884  12.485  10.782  0.9822 -0.8359 -2.5262
33439SOL     OW 7556  10.300   0.149   7.571 -0.1952 -0.3565  0.0118
33439SOL    HW1 7557  10.245   0.211   7.619 -0.8789 -0.3559 -0.7404
33439SOL    HW2 7558  10.388   0.163   7.605 -0.3885  0.8189  0.0717
33440SOL     OW 7559   1.389   6.908   1.122 -0.3161  0.2692  0.4647
33440SOL    HW1 7560   1.294   6.903   1.115 -0.6601  0.7157  3.6156
33440SOL    HW2 7561   1.409   7.001   1.115 -0.3237  0.3558  1.4546
33441SOL     OW 7562  11.615   0.820   0.132 -0.4574 -0.6254  0.4595
33441SOL    HW1 7563  11.631   0.882   0.202 -0.7120  1.1868 -1.0087
33441SOL    HW2 7564  11.537   0.853   0.088 -0.4979 -1.8897 -0.4864
33442SOL     OW 7565   3.347   8.157   2.436  0.7301 -0.3093 -0.2958
33442SOL    HW1 7566   3.319   8.089   2.498  0.9070  0.6954  0.9228
33442SOL    HW2 7567   3.443   8.158   2.444  0.6794  0.6762  0.3702
33443SOL     OW 7568  11.885   5.444   8.141 -0.7282 -0.4469 -0.1269
33443SOL    HW1 7569  11.835   5.485   8.212 -0.9747 -1.5723  0.3649
33443SOL    HW2 7570  11.838   5.469   8.062 -2.1160 -1.4867  0.3267
33444SOL     OW 7571   9.791   2.688   9.856 -0.2867  0.5236  0.0475
33444SOL    HW1 7572   9.776   2.782   9.867 -0.7381  0.4316  0.2372
33444SOL    HW2 7573   9.748   2.648   9.932 -1.6238  0.0272 -0.9335
33445SOL     OW 7574   5.176   6.264   0.782  0.0041  0.0388  0.2984
33445SOL    HW1 7575   5.089   6.274   0.743  0.4195  3.3588 -0.0559
33445SOL    HW2 7576   5.235   6.255   0.708  0.3070  1.6467  0.3128
33446SOL     OW 7577   8.939   9.317   6.558  0.3864 -0.7521  0.4111
33446SOL    HW1 7578   9.005   9.256   6.527  0.8260  0.4012 -1.0455
33446SOL    HW2 7579   8.872   9.318   6.490  2.0453  2.8769 -1.5020
33447SOL     OW 7580   1.246   3.736   8.895 -0.1357 -0.1032 -0.1914
33447SOL    HW1 7581   1.196   3.700   8.822 -1.1505 -1.1578  0.9727
33447SOL    HW2 7582   1.223   3.681   8.970  2.2637 -0.2013  0.5638
33448SOL     OW 7583   9.657  11.801   0.323  0.0109 -0.2900  0.3637
33448SOL    HW1 7584   9.572  11.771   0.289 -0.1596  1.4460 -0.8747
33448SOL    HW2 7585   9.720  11.739   0.287 -0.4602 -0.0332 -0.9631
33449SOL     OW 7586   3.817   5.558   6.205  0.3903  0.5215  0.6014
33449SOL    HW1 7587   3.810   5.626   6.273  1.1891  0.1065  1.1173
33449SOL    HW2 7588   3.899   5.513   6.225  0.6709  0.4296 -0.6905
33450SOL     OW 7589   7.507   4.623   3.519  0.1397 -0.4404 -0.0484
33450SOL    HW1 7590   7.483   4.585   3.604  2.2523 -1.8647 -0.0076
33450SOL    HW2 7591   7.596   4.591   3.503  1.1057  2.5441 -1.2413
33451SOL     OW 7592   2.840  12.623   6.646 -0.8858 -0.1713  0.2048
33451SOL    HW1 7593   2.758  12.616   6.597 -1.8616 -1.3650  1.8831
33451SOL    HW2 7594   2.853  12.536   6.683  0.7519  0.2105  0.5946
33452SOL     OW 7595   2.202   4.997   0.587 -1.0869 -0.4248 -0.4704
33452SOL    HW1 7596   2.181   4.925   0.646  1.0984 -1.6227 -1.0734
33452SOL    HW2 7597   2.159   4.974   0.505 -0.1700 -1.2010 -0.7423
33453SOL     OW 7598  11.278  12.678   5.328  0.2341 -0.0916 -0.1307
33453SOL    HW1 7599  11.212  12.609   5.325 -1.3760  1.3548 -0.1074
33453SOL    HW2 7600  11.279  12.715   5.240  0.7254  0.1571 -0.0250
33454SOL     OW 7601   7.157   6.798   0.818 -0.2220  0.7141 -0.0485
33454SOL    HW1 7602   7.175   6.892   0.813 -0.8826  0.8616  0.2028
33454SOL    HW2 7603   7.234   6.756   0.779 -1.3138  1.4587 -3.2873
33455SOL     OW 7604   3.337   0.776   1.712 -0.1243 -0.2022  0.3684
33455SOL    HW1 7605   3.276   0.828   1.660  0.1715 -0.6776 -0.4856
33455SOL    HW2 7606   3.285   0.703   1.745 -0.4817  0.4769  1.3617
33456SOL     OW 7607   4.461   1.271   1.573  0.8162  0.1023  0.6231
33456SOL    HW1 7608   4.497   1.260   1.485 -1.6900  1.4979 -0.6798
33456SOL    HW2 7609   4.484   1.360   1.597  2.4513 -0.6308  1.9131
33457SOL     OW 7610   4.704   6.380   4.855  0.3361  0.3243  0.1401
33457SOL    HW1 7611   4.619   6.419   4.876  0.5777  0.6162  0.6147
33457SOL    HW2 7612   4.711   6.386   4.760 -1.1284 -1.7216 -0.1540
33458SOL     OW 7613   3.968   7.435  11.077  0.1886  0.3874 -0.1266
33458SOL    HW1 7614   3.923   7.354  11.101  0.2733 -0.0032 -1.2175
33458SOL    HW2 7615   4.045   7.439  11.134  0.9191 -1.0127 -0.9628
33459SOL     OW 7616   4.172   7.491  12.407 -0.2794 -0.6123 -0.1485
33459SOL    HW1 7617   4.158   7.477  12.313 -0.8953 -0.1333 -0.1402
33459SOL    HW2 7618   4.127   7.417  12.449 -1.3414 -0.0220 -0.1911
33460SOL     OW 7619   1.242   3.268  11.829  0.2035  0.9940 -0.2405
33460SOL    HW1 7620   1.267   3.272  11.922 -0.6437  3.2272 -0.0488
33460SOL    HW2 7621   1.324   3.284  11.782  0.3808  1.4288  0.1947
33461SOL     OW 7622   1.689   9.867   3.090  0.7354  0.2385 -0.2635
33461SOL    HW1 7623   1.665   9.898   3.177 -0.2815  2.2440 -1.2145
33461SOL    HW2 7624   1.754   9.798   3.107 -0.0092  0.0269  2.0810
33462SOL     OW 7625   9.332  10.870   7.768  0.6243  0.0023  0.1729
33462SOL    HW1 7626   9.373  10.952   7.795 -0.1827  0.5598 -0.2269
33462SOL    HW2 7627   9.389  10.802   7.802  0.3858  0.6957  2.0552
33463SOL     OW 7628   6.778   1.832   0.123 -0.1897 -0.0818 -0.2219
33463SOL    HW1 7629   6.693   1.805   0.156  0.0991 -0.6996  0.0317
33463SOL    HW2 7630   6.837   1.760   0.146  0.1664 -0.1970 -1.4227
33464SOL     OW 7631   8.241  11.158   7.004 -0.0472  0.3446 -0.4124
33464SOL    HW1 7632   8.280  11.133   6.920 -0.0369  2.0381 -0.9598
33464SOL    HW2 7633   8.306  11.217   7.043  0.0785 -0.6525  0.9440
33465SOL     OW 7634   4.040   9.126  12.320 -0.4907 -0.1383  0.1603
33465SOL    HW1 7635   4.093   9.105  12.244  0.2438 -1.3788  0.9868
33465SOL    HW2 7636   4.053   9.053  12.380 -3.1634 -0.5334  0.3986
33466SOL     OW 7637   8.843   7.860   8.691 -0.1949 -0.0872  0.0219
33466SOL    HW1 7638   8.933   7.892   8.697 -0.5301  0.6795  1.2159
33466SOL    HW2 7639   8.836   7.826   8.601  1.6545 -1.3161  0.2795
33467SOL     OW 7640  10.077   4.851  12.311 -0.1235 -0.2346 -0.0888
33467SOL    HW1 7641  10.158   4.886  12.349 -0.6143  0.5508  0.2662
33467SOL    HW2 7642  10.106   4.792  12.242  0.7453  1.8102 -1.5733
33468SOL     OW 7643   0.032   7.657   1.409 -0.5144 -0.0125 -0.0276
33468SOL    HW1 7644   0.014   7.588   1.473  1.1813 -0.3364  0.1307
33468SOL    HW2 7645  -0.028   7.727   1.433 -0.8109 -0.6243  1.1129
33469SOL     OW 7646   6.067  11.584  12.251  0.5432 -0.2221  0.7459
33469SOL    HW1 7647   6.064  11.629  12.335  0.4048  0.2694  0.4851
33469SOL    HW2 7648   6.102  11.650  12.190 -0.6620 -0.1075  0.1476
33470SOL     OW 7649  12.362  11.111   8.776 -0.4028 -0.4416  0.6540
33470SOL    HW1 7650  12.387  11.112   8.869  3.1130  2.6224 -0.0822
33470SOL    HW2 7651  12.445  11.115   8.729 -2.0902 -1.0550 -2.6604
33471SOL     OW 7652  10.257   0.588   5.311 -0.7052 -0.3983 -0.7838
33471SOL    HW1 7653  10.172   0.623   5.284 -0.1097  1.1261 -0.7495
33471SOL    HW2 7654  10.238   0.538   5.391 -1.3113  1.5712  0.3596
33472SOL     OW 7655   8.939   0.323  11.433 -0.4539  0.2996  0.0713
33472SOL    HW1 7656   8.995   0.251  11.403 -1.5895 -0.9876  0.9031
33472SOL    HW2 7657   8.857   0.311  11.385 -0.7333  0.8990  0.3873
33473SOL     OW 7658  10.401   3.420   5.450 -0.1976  0.1117 -0.0745
33473SOL    HW1 7659  10.428   3.423   5.542 -0.6538 -0.5899  0.0884
33473SOL    HW2 7660  10.400   3.327   5.429 -1.6166  0.1739 -0.3360
33474SOL     OW 7661   0.468  10.907   8.547 -0.1551 -0.6244 -0.8397
33474SOL    HW1 7662   0.450  11.000   8.564 -0.7707 -1.0446  0.9948
33474SOL    HW2 7663   0.558  10.894   8.577 -0.7199 -1.0151  0.8068
33475SOL     OW 7664   2.115   8.063  10.349 -0.1108 -0.1263 -0.2592
33475SOL    HW1 7665   2.026   8.029  10.343  0.2105 -0.8618 -1.0603
33475SOL    HW2 7666   2.128   8.080  10.442 -1.4428  1.0044 -0.2494
33476SOL     OW 7667  10.839   1.357   8.102  0.3791  0.5444  0.8349
33476SOL    HW1 7668  10.907   1.391   8.160  0.9811  1.0776 -0.1803
33476SOL    HW2 7669  10.762   1.410   8.122  0.5766  0.7223  1.1380
33477SOL     OW 7670   6.603  10.976   1.674  0.3187  0.0247 -0.6530
33477SOL    HW1 7671   6.688  11.006   1.642  1.3036 -2.1469 -0.2968
33477SOL    HW2 7672   6.619  10.953   1.766 -0.4728 -0.9385 -0.7351
33478SOL     OW 7673   5.055   7.279   4.360 -0.0303  0.4522  0.3553
33478SOL    HW1 7674   4.969   7.290   4.321 -0.3659  0.1764  1.0098
33478SOL    HW2 7675   5.116   7.292   4.287 -0.6820 -1.4926 -0.6215
33479SOL     OW 7676   8.034   2.245  10.302 -0.4894 -0.5375  0.3470
33479SOL    HW1 7677   8.013   2.304  10.375 -1.8367 -0.6332  0.0585
33479SOL    HW2 7678   8.015   2.158  10.336  0.9773 -0.7980  0.5870
33480SOL     OW 7679  10.631  10.426  10.447  0.0375  0.1889  0.0305
33480SOL    HW1 7680  10.661  10.389  10.530  0.9136  2.8643  1.0182
33480SOL    HW2 7681  10.690  10.389  10.382  1.3192  0.3689  1.0473
33481SOL     OW 7682  10.941   0.361   8.905  0.5111  0.4099 -0.3664
33481SOL    HW1 7683  10.893   0.422   8.848 -2.6859 -1.7457 -0.2253
33481SOL    HW2 7684  10.907   0.379   8.993  0.9434 -0.3259 -0.0424
33482SOL     OW 7685  12.154  10.350   2.678  0.3028 -0.4460 -0.4264
33482SOL    HW1 7686  12.118  10.270   2.639 -1.1915 -0.0355  0.0377
33482SOL    HW2 7687  12.232  10.369   2.627 -0.9408 -0.5830 -2.4731
33483SOL     OW 7688   1.343   2.587  11.559 -0.5173  0.3997 -0.3690
33483SOL    HW1 7689   1.379   2.499  11.542  0.1588  0.5468  0.2816
33483SOL    HW2 7690   1.299   2.579  11.643  0.8960  1.0678  0.4672
33484SOL     OW 7691  11.695   9.336   7.423  0.0002 -0.4674  0.2883
33484SOL    HW1 7692  11.627   9.351   7.357  0.6663 -0.1937 -0.3502
33484SOL    HW2 7693  11.777   9.344   7.375  0.5167  0.2274  1.2614
33485SOL     OW 7694   7.150   8.697  11.422  0.4628  0.3166 -0.2617
33485SOL    HW1 7695   7.235   8.739  11.439 -0.0079  1.4513 -0.5978
33485SOL    HW2 7696   7.090   8.770  11.407 -0.2181 -0.5047 -1.7011
33486SOL     OW 7697   2.084  11.038   7.871  0.7295 -0.5802 -0.5097
33486SOL    HW1 7698   2.023  11.007   7.804  0.5663 -1.2584 -0.0617
33486SOL    HW2 7699   2.069  10.979   7.946  1.9420 -0.7759 -0.4029
33487SOL     OW 7700  10.568   8.069   7.136  0.1009  0.3539 -0.6780
33487SOL    HW1 7701  10.655   8.028   7.140  0.4374  0.8870 -1.8970
33487SOL    HW2 7702  10.553   8.102   7.224  1.4203  0.7928 -0.5896
33488SOL     OW 7703   9.445   1.016  11.995 -0.0133  0.7159 -0.5347
33488SOL    HW1 7704   9.487   0.981  11.917 -0.6575 -1.4839  0.0209
33488SOL    HW2 7705   9.356   1.038  11.967  0.0559  0.8583 -0.6408
33489SOL     OW 7706   7.167   4.455  10.423 -0.4552 -0.4580 -0.1468
33489SOL    HW1 7707   7.133   4.507  10.351 -1.1712  0.5971  0.9169
33489SOL    HW2 7708   7.198   4.519  10.487  3.0777 -1.3102 -0.7585
33490SOL     OW 7709   5.657   5.514  11.692 -0.6895  0.6431 -0.1868
33490SOL    HW1 7710   5.730   5.499  11.753  0.7865 -0.5931 -2.1392
33490SOL    HW2 7711   5.643   5.608  11.694  0.2659  0.7830  1.0004
33491SOL     OW 7712   8.057   5.913   3.706  0.3680 -0.0117 -0.3108
33491SOL    HW1 7713   8.035   5.988   3.762  0.9944  1.5921 -2.0841
33491SOL    HW2 7714   8.012   5.931   3.623  0.7974 -1.4475 -0.8884
33492SOL     OW 7715   7.362   8.457  11.323 -0.4572  0.0201  0.4306
33492SOL    HW1 7716   7.283   8.505  11.350 -0.0334  0.1836  1.4302
33492SOL    HW2 7717   7.403   8.430  11.406  1.3597  1.2866  0.0023
33493SOL     OW 7718   6.712   2.526   8.429 -0.6258 -0.5026 -0.1409
33493SOL    HW1 7719   6.739   2.494   8.343 -0.6012 -1.7461  0.3158
33493SOL    HW2 7720   6.641   2.587   8.411  1.0584  1.2697 -1.2267
33494SOL     OW 7721   6.587   6.360  12.197 -0.6330 -0.2780  1.2093
33494SOL    HW1 7722   6.495   6.364  12.172 -0.4276 -0.2502  0.4384
33494SOL    HW2 7723   6.623   6.288  12.146 -0.5373 -1.2369  2.5904
33495SOL     OW 7724   0.723   3.750  12.037  0.1206 -0.2459 -0.0718
33495SOL    HW1 7725   0.722   3.679  11.973 -1.3230  0.0580 -0.4152
33495SOL    HW2 7726   0.699   3.828  11.986 -0.0971  0.1691  0.6581
33496SOL     OW 7727  11.895  10.167   5.181  0.1243  0.4152  0.3277
33496SOL    HW1 7728  11.915  10.074   5.188  0.1589  0.4099  0.1551
33496SOL    HW2 7729  11.944  10.197   5.104 -0.6306  0.3704 -0.1757
33497SOL     OW 7730   8.496   2.429   4.952 -0.3602 -0.2347 -0.1862
33497SOL    HW1 7731   8.464   2.509   4.911  1.3091  0.2088 -0.7111
33497SOL    HW2 7732   8.492   2.363   4.883 -1.0265 -0.4294  0.0299
33498SOL     OW 7733   6.603   6.498  12.681  0.1967  0.1685  0.4022
33498SOL    HW1 7734   6.667   6.553  12.726  0.0508  0.3419  0.3970
33498SOL    HW2 7735   6.656   6.432  12.636  0.2894 -1.6419  2.8870
33499SOL     OW 7736  10.347   5.297   9.266 -0.4610  0.2199  0.5324
33499SOL    HW1 7737  10.395   5.247   9.331 -1.3086 -0.2176  0.8340
33499SOL    HW2 7738  10.414   5.337   9.211  0.2430 -0.0093  1.2266
33500SOL     OW 7739   8.635  11.642   7.722 -0.8894  0.3485 -0.5096
33500SOL    HW1 7740   8.613  11.728   7.687 -0.1053  0.8037  0.0794
33500SOL    HW2 7741   8.637  11.654   7.817 -0.1109 -0.1535 -0.4549
33501SOL     OW 7742   7.174   9.674   0.555 -0.0814  0.5553  0.2755
33501SOL    HW1 7743   7.127   9.741   0.507  1.0548  1.8135  0.8521
33501SOL    HW2 7744   7.215   9.721   0.628  1.5889 -0.5656  0.1087
33502SOL     OW 7745   0.380  11.184  10.483 -0.5446  0.3959 -0.1663
33502SOL    HW1 7746   0.437  11.226  10.547 -0.1668 -0.4034  0.0410
33502SOL    HW2 7747   0.295  11.175  10.528 -0.9542  1.8835 -0.5905
33503SOL     OW 7748   5.014  11.255   4.206  0.3426  0.2502 -0.1024
33503SOL    HW1 7749   4.985  11.305   4.130 -0.4921 -0.7629 -0.4742
33503SOL    HW2 7750   4.966  11.173   4.200  1.1636 -0.3199  0.8766
33504SOL     OW 7751   2.775   5.834   3.709 -0.7113 -0.1171 -0.1775
33504SOL    HW1 7752   2.797   5.760   3.653 -0.5315  0.0954 -0.3870
33504SOL    HW2 7753   2.849   5.894   3.700 -0.2936 -0.4348  0.9107
33505SOL     OW 7754  12.032   9.015   6.195 -0.3113  0.2894  0.1135
33505SOL    HW1 7755  12.121   8.979   6.197 -0.3315  0.2128 -0.3523
33505SOL    HW2 7756  12.045   9.110   6.201 -0.1141  0.3791 -1.3900
33506SOL     OW 7757  10.981   8.694   6.507  0.3040  0.1943 -0.0728
33506SOL    HW1 7758  11.004   8.601   6.509  2.0954  0.5951  0.3477
33506SOL    HW2 7759  10.888   8.695   6.486  0.1951 -1.6936  0.0752
33507SOL     OW 7760   3.267   5.974  11.706 -0.1511  0.3718  0.5892
33507SOL    HW1 7761   3.325   5.966  11.782  0.3448  3.2236  0.6085
33507SOL    HW2 7762   3.194   5.915  11.725  0.9863 -0.5716  2.2648
33508SOL     OW 7763   7.898   3.034   4.044 -0.1426  1.0303  0.9271
33508SOL    HW1 7764   7.812   2.995   4.026  1.9802 -3.6027 -0.8947
33508SOL    HW2 7765   7.928   3.066   3.959  0.0177  2.6065  1.5425
33509SOL     OW 7766  12.398   1.437   9.330 -0.1074  0.1912 -0.0427
33509SOL    HW1 7767  12.314   1.413   9.293 -0.2479  1.1936 -0.3979
33509SOL    HW2 7768  12.399   1.396   9.416  0.2519 -2.2273 -1.1342
33510SOL     OW 7769   1.198   2.832  11.566 -0.0504 -0.4286  0.3275
33510SOL    HW1 7770   1.252   2.755  11.550 -0.3562 -0.0356 -3.9362
33510SOL    HW2 7771   1.109   2.798  11.575 -0.1579 -0.6936 -1.3636
33511SOL     OW 7772   8.047   9.469   2.853  0.0865  0.0638  0.2564
33511SOL    HW1 7773   8.093   9.550   2.829  0.1701 -0.2685 -0.7542
33511SOL    HW2 7774   8.044   9.418   2.772 -2.3901  0.2121  0.1781
33512SOL     OW 7775   4.719   3.053   2.647  0.5012  0.0527 -0.3990
33512SOL    HW1 7776   4.801   3.090   2.681 -0.1143  1.6349 -0.5582
33512SOL    HW2 7777   4.738   2.961   2.634  2.4794  0.5127 -1.0591
33513SOL     OW 7778   7.318   0.665   1.770 -0.1104  0.3365 -0.3121
33513SOL    HW1 7779   7.228   0.698   1.777 -0.3696 -0.4307  0.0384
33513SOL    HW2 7780   7.332   0.616   1.851  0.1696 -0.6490 -0.9419
33514SOL     OW 7781   5.756   0.493  11.104  0.1578  0.3467  0.0051
33514SOL    HW1 7782   5.851   0.498  11.097  0.1317  1.9413  0.4700
33514SOL    HW2 7783   5.725   0.577  11.069 -1.1636 -0.6415 -1.3484
33515SOL     OW 7784   7.323   3.564   7.770 -0.1259 -0.4350 -0.2920
33515SOL    HW1 7785   7.375   3.590   7.846 -1.5477  0.6484  0.3502
33515SOL    HW2 7786   7.288   3.647   7.736 -3.9721 -1.2858  1.1837
33516SOL     OW 7787   3.544   6.252   4.036  0.3130 -0.3409 -0.1878
33516SOL    HW1 7788   3.547   6.159   4.013 -0.8244 -0.0807 -1.5008
33516SOL    HW2 7789   3.602   6.294   3.973 -1.8588  0.2232 -1.9345
33517SOL     OW 7790   9.268   6.788   8.891  0.0420 -0.6480 -0.4251
33517SOL    HW1 7791   9.210   6.825   8.958  1.2989 -1.6257  1.2707
33517SOL    HW2 7792   9.214   6.785   8.812 -2.1971 -1.4430  1.0500
33518SOL     OW 7793   0.441   7.324   8.462 -0.5289 -0.5062  0.0517
33518SOL    HW1 7794   0.525   7.328   8.416 -1.0402  1.6454 -0.8350
33518SOL    HW2 7795   0.376   7.322   8.392 -1.2438 -0.9563  0.7172
33519SOL     OW 7796  10.872   8.522   1.423  0.5437 -0.6086 -0.3389
33519SOL    HW1 7797  10.909   8.600   1.465  0.6292 -2.2341  2.8415
33519SOL    HW2 7798  10.819   8.557   1.351  2.9067  2.1756 -0.9217
33520SOL     OW 7799  11.128   9.778   8.335  0.5992  0.1403 -0.1095
33520SOL    HW1 7800  11.065   9.830   8.286  0.7596  0.6662  0.2343
33520SOL    HW2 7801  11.212   9.798   8.293  0.5821 -0.3094 -0.3602
33521SOL     OW 7802   5.650   7.700   4.556 -0.0332  0.2617  0.4005
33521SOL    HW1 7803   5.605   7.784   4.564 -0.3279  0.4212 -2.2324
33521SOL    HW2 7804   5.692   7.702   4.470  0.4416 -2.0612  0.5001
33522SOL     OW 7805   2.723  11.853   7.102 -0.0094 -0.1426 -0.0259
33522SOL    HW1 7806   2.631  11.876   7.091 -0.5427 -0.9884  2.1578
33522SOL    HW2 7807   2.729  11.816   7.190  2.6781  1.0955  0.4294
33523SOL     OW 7808   1.916   6.945   5.483  0.1269 -0.0453  0.5079
33523SOL    HW1 7809   1.900   7.013   5.418  0.0469  1.3917  1.9693
33523SOL    HW2 7810   1.976   6.884   5.441 -3.4471 -1.8189 -2.6656
33524SOL     OW 7811  10.261   6.891   6.860  0.2126 -0.5684  0.2961
33524SOL    HW1 7812  10.244   6.985   6.870  1.3298 -0.2719 -0.4172
33524SOL    HW2 7813  10.271   6.859   6.950  0.8096  0.2015  0.5163
33525SOL     OW 7814   3.528  12.668   3.626 -0.0689  0.6093  0.1761
33525SOL    HW1 7815   3.551  12.686   3.535 -0.8817  1.1755  0.0697
33525SOL    HW2 7816   3.442  12.708   3.637 -0.0639  0.3763  1.1410
33526SOL     OW 7817   3.226   3.782   5.068  0.7562 -0.0872 -0.1311
33526SOL    HW1 7818   3.244   3.690   5.088  1.2241  0.4107  1.9687
33526SOL    HW2 7819   3.188   3.817   5.148 -0.4181  1.3259 -1.2440
33527SOL     OW 7820  11.563   9.375   1.455  0.3417 -0.1892  0.0023
33527SOL    HW1 7821  11.483   9.392   1.504  0.5078  0.3448  0.0999
33527SOL    HW2 7822  11.533   9.363   1.365  0.2577  1.3867 -0.2147
33528SOL     OW 7823   0.407   2.114   7.025  0.3314  0.1688  0.6422
33528SOL    HW1 7824   0.490   2.161   7.018  0.9107 -0.5557  2.1030
33528SOL    HW2 7825   0.371   2.143   7.109 -0.7433  0.2263  0.1698
33529SOL     OW 7826   6.323   8.435   3.162 -0.5207 -0.2581 -0.1182
33529SOL    HW1 7827   6.391   8.396   3.106 -1.2254 -1.4831 -0.1490
33529SOL    HW2 7828   6.369   8.504   3.210  0.6282 -0.7105 -0.5230
33530SOL     OW 7829   6.916  11.249   4.222  0.1484 -0.8769  0.2928
33530SOL    HW1 7830   6.937  11.342   4.211 -0.8780 -0.6192  0.3946
33530SOL    HW2 7831   6.928  11.233   4.316  0.8680 -1.0006  0.1892
33531SOL     OW 7832  11.844   0.321   3.000  0.4403  0.1396  0.0064
33531SOL    HW1 7833  11.786   0.329   3.075  0.5610 -1.1376  0.2612
33531SOL    HW2 7834  11.924   0.367   3.025  0.1763  0.4269  0.3262
33532SOL     OW 7835   3.484   4.406   3.768 -0.0013  0.1123 -0.8666
33532SOL    HW1 7836   3.440   4.479   3.809 -1.0735 -0.9620 -0.0354
33532SOL    HW2 7837   3.415   4.343   3.749  0.9287 -0.8317 -1.2464
33533SOL     OW 7838   0.116  10.667   1.932 -0.3484 -0.4370  0.5232
33533SOL    HW1 7839   0.131  10.574   1.912 -1.3816 -0.3182 -0.9340
33533SOL    HW2 7840   0.024  10.681   1.911 -0.1099  1.0095  0.3905
33534SOL     OW 7841   2.755   3.197   3.382  0.2066 -0.6381  0.0081
33534SOL    HW1 7842   2.839   3.240   3.370  0.4016 -1.1098 -0.3396
33534SOL    HW2 7843   2.704   3.223   3.305  0.3132 -0.9990 -0.1851
33535SOL     OW 7844   9.177   7.105   3.476  0.0522  0.5507  0.1155
33535SOL    HW1 7845   9.160   7.013   3.455 -0.3682  0.2856  1.5049
33535SOL    HW2 7846   9.263   7.122   3.439 -0.8795  0.3349 -2.3166
33536SOL     OW 7847   6.572   1.400  10.598 -0.5826  0.8027 -0.2956
33536SOL    HW1 7848   6.507   1.381  10.530 -0.9084  1.3844 -0.1495
33536SOL    HW2 7849   6.656   1.389  10.554 -0.7806  2.4278 -1.1740
33537SOL     OW 7850  12.550   0.172   5.274  0.1909 -0.3015  0.0091
33537SOL    HW1 7851  12.578   0.092   5.317  1.0705 -0.3937 -0.6951
33537SOL    HW2 7852  12.630   0.224   5.267 -0.2293  0.3301 -0.1897
33538SOL     OW 7853   4.498   1.638   5.584  0.4996 -1.0519 -0.1383
33538SOL    HW1 7854   4.440   1.703   5.624  0.5237 -1.1246  0.0170
33538SOL    HW2 7855   4.584   1.657   5.621  0.2800 -1.9805  0.9068
33539SOL     OW 7856   9.186   2.932  11.869 -0.3203  0.6820  0.2987
33539SOL    HW1 7857   9.262   2.882  11.897 -0.5932  0.5885  0.9042
33539SOL    HW2 7858   9.213   2.976  11.789 -0.2790 -0.9622 -0.6436
33540SOL     OW 7859  10.980   4.741   6.126  0.3962 -0.3489 -0.4090
33540SOL    HW1 7860  10.895   4.731   6.169  1.1996 -0.7555  1.1696
33540SOL    HW2 7861  10.964   4.804   6.056 -1.2954 -0.7435 -0.4175
33541SOL     OW 7862   9.125  10.885   7.928 -0.2491 -0.0357 -0.5419
33541SOL    HW1 7863   9.200  10.872   7.869 -1.5950 -0.6426 -2.2217
33541SOL    HW2 7864   9.048  10.878   7.870 -1.6510 -0.6629  1.3084
33542SOL     OW 7865  11.804   7.117   1.752 -0.5069  0.2082  0.4897
33542SOL    HW1 7866  11.833   7.026   1.752  0.0219  0.3656 -0.5477
33542SOL    HW2 7867  11.863   7.160   1.814 -0.6099 -0.0990  0.8089
33543SOL     OW 7868   7.183   5.295   5.168  0.6149  0.8351 -0.2708
33543SOL    HW1 7869   7.142   5.341   5.095  1.7857  1.7055 -0.4065
33543SOL    HW2 7870   7.249   5.356   5.201  0.2778  0.3649  1.3707
33544SOL     OW 7871   9.673   8.813   8.207  0.1656  0.0734  0.0051
33544SOL    HW1 7872   9.673   8.764   8.124  2.7475  0.8109 -0.4975
33544SOL    HW2 7873   9.630   8.896   8.185 -1.8315 -0.8420  0.2098
33545SOL     OW 7874   0.471  10.249   3.501 -0.5141  0.0088  0.6468
33545SOL    HW1 7875   0.520  10.190   3.559 -0.3819 -0.3244  0.2011
33545SOL    HW2 7876   0.400  10.281   3.555 -1.6646 -1.9616  0.4053
33546SOL     OW 7877   7.343   9.586   7.591 -0.3513 -0.1332  0.3940
33546SOL    HW1 7878   7.368   9.494   7.602  1.5249  0.4623  1.4200
33546SOL    HW2 7879   7.262   9.594   7.642 -1.6086 -1.5960 -1.2344
33547SOL     OW 7880  10.434   2.478   6.201 -0.3907 -0.0626 -0.1067
33547SOL    HW1 7881  10.484   2.396   6.196 -1.5147 -0.8105  0.6362
33547SOL    HW2 7882  10.498   2.546   6.179  0.2010 -1.2445 -2.3643
33548SOL     OW 7883   3.876   2.027   2.715 -0.0260 -0.3348 -0.4405
33548SOL    HW1 7884   3.945   2.028   2.649 -1.0959  0.3260 -1.6029
33548SOL    HW2 7885   3.844   1.937   2.716  1.8056 -1.0519  1.2166
33549SOL     OW 7886   4.173   3.711   4.413 -1.0852 -0.5423 -0.7160
33549SOL    HW1 7887   4.090   3.706   4.461  0.0208 -1.9687  1.2228
33549SOL    HW2 7888   4.198   3.620   4.398  0.5596 -0.1867 -0.4080
33550SOL     OW 7889   8.580   7.534  11.419 -0.4634 -0.2130  0.0975
33550SOL    HW1 7890   8.558   7.459  11.364 -1.0653  0.2209 -0.2642
33550SOL    HW2 7891   8.586   7.498  11.507  0.9514 -0.9988 -0.2900
33551SOL     OW 7892  12.509   0.751   3.310 -0.2403  0.2983 -0.2560
33551SOL    HW1 7893  12.601   0.775   3.315 -0.1396  0.3357 -1.7271
33551SOL    HW2 7894  12.470   0.819   3.255 -1.0823  0.1063  0.0912
33552SOL     OW 7895  11.986   3.493   2.149 -0.1762 -0.3736  0.5422
33552SOL    HW1 7896  12.031   3.435   2.088 -0.4309 -0.3915  0.3710
33552SOL    HW2 7897  11.955   3.436   2.219  1.3475 -0.1696  1.4312
33553SOL     OW 7898   8.760   9.996   3.429  0.3153  0.6127  0.1468
33553SOL    HW1 7899   8.819   9.946   3.372  1.0337  1.5104  0.0655
33553SOL    HW2 7900   8.817  10.029   3.498  0.0517  2.0210 -0.2702
33554SOL     OW 7901   5.320   1.813  12.178 -0.3946  0.1025  0.4026
33554SOL    HW1 7902   5.358   1.826  12.265 -2.1778  1.1014  1.0952
33554SOL    HW2 7903   5.231   1.784  12.196 -0.1264 -1.8365 -1.1444
33555SOL     OW 7904  11.432   1.009  11.481  0.2439 -0.2959 -0.3819
33555SOL    HW1 7905  11.422   1.048  11.394  0.6284 -0.1488 -0.3624
33555SOL    HW2 7906  11.401   1.076  11.541  0.0842 -0.3549 -0.3973
33556SOL     OW 7907  11.507   4.206   2.798  0.2750  0.1099 -0.7533
33556SOL    HW1 7908  11.419   4.175   2.778 -0.7096  1.7376  0.7172
33556SOL    HW2 7909  11.506   4.299   2.773  1.5465  0.1802 -0.6242
33557SOL     OW 7910   7.704   5.639  10.927 -0.1665  0.1803  0.0862
33557SOL    HW1 7911   7.608   5.633  10.933 -0.5056  1.9967 -2.0392
33557SOL    HW2 7912   7.720   5.725  10.890  2.4754  0.9196  2.5821
33558SOL     OW 7913  11.476   9.973   4.326  0.7502  0.1703 -0.1781
33558SOL    HW1 7914  11.470  10.068   4.318 -0.2587 -0.0483 -3.0060
33558SOL    HW2 7915  11.399   9.948   4.376 -0.5368  0.6790 -1.8267
33559SOL     OW 7916   4.335   0.516  10.402  0.2629 -0.4795  0.2489
33559SOL    HW1 7917   4.292   0.489  10.321 -0.3699 -1.7325  0.9750
33559SOL    HW2 7918   4.428   0.498  10.387  0.1813 -0.4825 -0.2785
33560SOL     OW 7919  12.578  12.196   5.282 -0.5410  0.1600 -0.2847
33560SOL    HW1 7920  12.647  12.240   5.331 -0.0602 -2.5301  1.6728
33560SOL    HW2 7921  12.496  12.229   5.320 -0.2562  0.7219 -0.1525
33561SOL     OW 7922   0.683  11.435   5.616  0.6682  0.6777  0.5786
33561SOL    HW1 7923   0.604  11.394   5.582 -0.9155  0.5608  3.9216
33561SOL    HW2 7924   0.684  11.522   5.576  0.2122 -0.1397 -1.3017
33562SOL     OW 7925   5.836   5.407  10.298  0.3597  0.0790  0.2190
33562SOL    HW1 7926   5.897   5.471  10.332  2.6829 -1.6918 -0.3373
33562SOL    HW2 7927   5.874   5.379  10.215 -0.7444 -1.7225  0.2546
33563SOL     OW 7928   5.354   4.415   5.480  0.2562  0.5987  0.2296
33563SOL    HW1 7929   5.334   4.460   5.397  0.6026  0.8904  0.3018
33563SOL    HW2 7930   5.426   4.465   5.518  0.2279  0.3506  0.6183
33564SOL     OW 7931   4.348  12.342   0.759  0.1747 -0.5431  0.1925
33564SOL    HW1 7932   4.305  12.426   0.741  0.1652 -0.7080 -0.6039
33564SOL    HW2 7933   4.422  12.340   0.698 -0.6361 -1.7130 -0.8073
33565SOL     OW 7934   1.350   1.039   5.261 -0.1108  0.0099 -0.4413
33565SOL    HW1 7935   1.312   0.993   5.336 -1.3478  1.2342 -0.2866
33565SOL    HW2 7936   1.355   0.973   5.192 -0.6238 -0.6800  0.1736
33566SOL     OW 7937   9.976   7.111   5.124 -0.0997  0.1872 -0.5379
33566SOL    HW1 7938   9.910   7.165   5.080  0.6075  1.1726 -0.4010
33566SOL    HW2 7939  10.009   7.053   5.055  0.8209  1.5428 -1.2763
33567SOL     OW 7940  10.716   0.484   3.795 -0.2403 -0.0532  0.6899
33567SOL    HW1 7941  10.790   0.463   3.739  0.2203 -0.0735  1.3009
33567SOL    HW2 7942  10.721   0.421   3.867 -1.9300 -1.2947 -0.2037
33568SOL     OW 7943   5.994   0.961   0.980 -0.5609 -0.0664  0.1208
33568SOL    HW1 7944   5.988   0.941   1.073  1.1513  0.0650  0.3043
33568SOL    HW2 7945   6.085   0.940   0.958 -0.5022  1.3895 -1.1598
33569SOL     OW 7946   1.185   7.195   8.153 -0.1935 -0.1459 -0.1435
33569SOL    HW1 7947   1.164   7.161   8.240  0.4792 -0.2324 -0.0083
33569SOL    HW2 7948   1.178   7.290   8.163 -1.0743 -0.1895 -0.2563
33570SOL     OW 7949   8.823  10.253  10.278 -0.0430 -0.0472 -0.1931
33570SOL    HW1 7950   8.733  10.283  10.292  0.1959  0.1493  0.9832
33570SOL    HW2 7951   8.869  10.276  10.358  0.2737 -3.0959  0.6242
33571SOL     OW 7952   1.545   6.969   2.493 -0.4470  0.2295  0.1674
33571SOL    HW1 7953   1.496   7.041   2.453 -0.0680  0.3145 -0.1526
33571SOL    HW2 7954   1.634   7.003   2.502 -0.3216 -0.1138  0.2448
33572SOL     OW 7955   8.567   9.750  11.439 -0.0753 -0.1823 -0.5797
33572SOL    HW1 7956   8.487   9.803  11.433 -0.7701 -0.5300  3.0614
33572SOL    HW2 7957   8.638   9.814  11.443 -0.4305  0.2482 -1.0245
33573SOL     OW 7958   4.910   2.654   1.714 -0.3909 -0.3938 -0.0942
33573SOL    HW1 7959   4.853   2.727   1.740 -1.0286 -0.9194 -0.0049
33573SOL    HW2 7960   4.973   2.694   1.653 -0.2483  0.3937  0.5394
33574SOL     OW 7961   3.019  10.133   5.826  0.3910 -0.2049  0.2306
33574SOL    HW1 7962   3.109  10.132   5.858 -0.4254 -0.9053  2.7191
33574SOL    HW2 7963   2.995  10.040   5.819  0.0876 -0.0376 -1.1857
33575SOL     OW 7964   3.587   4.214   6.856 -0.0127  0.1479 -0.1306
33575SOL    HW1 7965   3.593   4.224   6.761 -2.1814 -1.8775 -0.6028
33575SOL    HW2 7966   3.668   4.169   6.880 -0.5511 -1.7399 -1.5331
33576SOL     OW 7967   0.245   3.881   0.420  0.1924 -0.3135  0.0670
33576SOL    HW1 7968   0.332   3.882   0.461  0.9715 -0.2593 -1.5011
33576SOL    HW2 7969   0.196   3.816   0.470  0.6544  0.6648  1.8793
33577SOL     OW 7970   9.752   9.791   2.029  0.4765 -0.2709  0.2378
33577SOL    HW1 7971   9.804   9.863   2.064 -0.2052  0.7469 -0.7897
33577SOL    HW2 7972   9.699   9.830   1.959 -1.3455 -1.3449  0.9239
33578SOL     OW 7973   5.688  11.544   2.005 -0.1000 -0.1461  0.2984
33578SOL    HW1 7974   5.704  11.518   2.096  0.8328 -0.0788  0.1718
33578SOL    HW2 7975   5.612  11.602   2.009 -1.5441 -1.9731  0.7266
33579SOL     OW 7976   6.754   5.945   8.378 -0.4175  0.1031 -0.0518
33579SOL    HW1 7977   6.716   5.884   8.441 -0.0388 -0.9457 -0.8096
33579SOL    HW2 7978   6.712   6.029   8.398 -1.7027 -0.6056  0.3828
33580SOL     OW 7979  11.129   7.771   3.248  0.3713  0.7494  0.6529
33580SOL    HW1 7980  11.056   7.807   3.198  0.9636  0.8997 -0.1137
33580SOL    HW2 7981  11.207   7.815   3.213  1.1623 -1.4649 -0.5816
33581SOL     OW 7982   4.364  10.593   9.198  0.2236 -0.2771 -0.6197
33581SOL    HW1 7983   4.430  10.540   9.155 -0.4087 -1.7734  0.1857
33581SOL    HW2 7984   4.296  10.531   9.224 -0.7785  0.9953 -0.0598
33582SOL     OW 7985   3.583   9.879  10.908 -0.4314  0.0005  0.3104
33582SOL    HW1 7986   3.530   9.824  10.966 -1.1278  2.2780  1.9907
33582SOL    HW2 7987   3.532   9.960  10.899  1.6687  1.3782  0.0549
33583SOL     OW 7988   2.548   6.434   3.061  0.3133  0.4654 -0.1626
33583SOL    HW1 7989   2.580   6.458   3.148 -2.1085 -0.1089  0.9699
33583SOL    HW2 7990   2.547   6.516   3.012  0.4785  1.0429  0.7800
33584SOL     OW 7991   7.538   2.450   5.771 -0.7016  0.0313  0.1591
33584SOL    HW1 7992   7.494   2.456   5.856 -0.1440 -1.5720  0.6032
33584SOL    HW2 7993   7.481   2.393   5.719 -0.0877 -0.5572  0.1210
33585SOL     OW 7994   2.180   8.609  11.179  0.3896 -0.3825 -0.0349
33585SOL    HW1 7995   2.197   8.680  11.241  0.6770  1.1920 -1.8049
33585SOL    HW2 7996   2.223   8.533  11.217 -1.2776 -0.0641  2.7231
33586SOL     OW 7997  11.581   6.033   3.995  0.0754  0.1046 -0.3975
33586SOL    HW1 7998  11.564   6.052   4.087  0.3053 -0.4297 -0.2398
33586SOL    HW2 7999  11.548   6.109   3.948  1.3350  1.0754  0.2283
33587SOL     OW 8000   5.636   2.448   3.227 -0.0998 -0.0524 -0.1468
33587SOL    HW1 8001   5.579   2.525   3.236  1.4461  1.1725 -0.2842
33587SOL    HW2 8002   5.584   2.386   3.176 -0.4811  1.9574 -2.4086
33588SOL     OW 8003   2.815   1.580   7.339  0.1650  0.4587  0.0720
33588SOL    HW1 8004   2.810   1.493   7.379 -1.8650  0.6807  0.4392
33588SOL    HW2 8005   2.864   1.567   7.258 -0.3038 -1.0806 -0.0050
33589SOL     OW 8006  12.532   0.054   1.276 -0.1387  0.1987 -0.4667
33589SOL    HW1 8007  12.529  -0.004   1.200 -1.1010 -0.7614  0.2506
33589SOL    HW2 8008  12.464   0.019   1.334 -0.5904  1.9273  0.1042
33590SOL     OW 8009   9.017   5.342   3.730 -0.4873 -0.6846  0.2909
33590SOL    HW1 8010   9.063   5.378   3.654  0.3552 -0.1407  1.0230
33590SOL    HW2 8011   8.966   5.416   3.764 -0.2631 -0.7077  0.6865
33591SOL     OW 8012   6.101   7.681   9.353 -0.1525  0.3823  0.6855
33591SOL    HW1 8013   6.164   7.674   9.425 -0.8576 -0.5427  1.2431
33591SOL    HW2 8014   6.030   7.621   9.378 -0.9142  0.8611 -0.2682
33592SOL     OW 8015   3.232  11.218   8.647  0.3831  0.4575 -0.7154
33592SOL    HW1 8016   3.319  11.243   8.618  0.3965 -0.8141 -1.9006
33592SOL    HW2 8017   3.240  11.124   8.667 -0.5445  0.4871 -0.1600
33593SOL     OW 8018   9.319   7.853   4.648  0.1636 -0.2665 -0.0541
33593SOL    HW1 8019   9.290   7.921   4.709  1.6817 -0.3022  0.7506
33593SOL    HW2 8020   9.243   7.837   4.593 -0.9609  0.4572  1.2174
33594SOL     OW 8021   2.817   2.826   1.147 -0.1187  0.1463  0.1572
33594SOL    HW1 8022   2.873   2.895   1.183 -0.8247  0.7324  0.1489
33594SOL    HW2 8023   2.760   2.800   1.220  0.7335 -1.0634  0.4193
33595SOL     OW 8024   8.570   4.807  11.063 -0.2984  0.1236  0.3669
33595SOL    HW1 8025   8.611   4.761  10.990 -0.7396 -1.5506  1.1132
33595SOL    HW2 8026   8.546   4.737  11.124 -1.7450  1.2869  1.1948
33596SOL     OW 8027   2.129   4.845  10.384  0.0473 -0.6931  0.0319
33596SOL    HW1 8028   2.177   4.774  10.427  0.8701 -0.3224 -0.2584
33596SOL    HW2 8029   2.192   4.884  10.323 -0.0989  0.8715  0.8347
33597SOL     OW 8030   9.296   5.500   5.480 -0.1987  0.1939 -0.0038
33597SOL    HW1 8031   9.255   5.414   5.471  1.7940 -0.7306 -0.8306
33597SOL    HW2 8032   9.291   5.518   5.574 -1.9504 -0.1107  0.0004
33598SOL     OW 8033   5.793   8.352   1.255  0.8126 -0.0793  0.0969
33598SOL    HW1 8034   5.706   8.326   1.285  0.8930 -0.4325  0.0379
33598SOL    HW2 8035   5.821   8.279   1.199  0.3550  0.9097 -1.4663
33599SOL     OW 8036   3.417  11.037   5.547 -0.1599  0.1246  0.3525
33599SOL    HW1 8037   3.436  11.058   5.638  0.8340 -3.3036  1.0832
33599SOL    HW2 8038   3.332  10.994   5.550  0.6416 -1.5850  0.0251
33600SOL     OW 8039   4.819   3.335   2.314 -0.3481  0.3678 -0.9934
33600SOL    HW1 8040   4.829   3.430   2.323 -1.4231  0.3901  0.2733
33600SOL    HW2 8041   4.787   3.307   2.400 -0.7187 -1.0491 -1.5814
33601SOL     OW 8042  12.512   1.118   9.023  0.0302 -0.3741 -0.5025
33601SOL    HW1 8043  12.557   1.173   8.960 -1.4040  0.4788 -0.8480
33601SOL    HW2 8044  12.493   1.037   8.976  0.1786 -0.2789 -0.7256
33602SOL     OW 8045   5.003   2.084   2.921 -0.2429 -0.4465  0.3197
33602SOL    HW1 8046   5.029   2.100   3.012 -0.6440  1.0219  0.1978
33602SOL    HW2 8047   5.040   2.158   2.873 -2.2609  0.2283 -0.2880
33603SOL     OW 8048   9.824   9.961   1.617 -0.2107  0.6968 -0.7076
33603SOL    HW1 8049   9.740   9.923   1.591  0.1930  0.2952 -1.4658
33603SOL    HW2 8050   9.819  10.052   1.590 -0.3984  0.6670 -0.7724
33604SOL     OW 8051   6.386   4.462   5.331  0.2748 -0.6425 -0.6682
33604SOL    HW1 8052   6.477   4.483   5.315 -0.1692  0.8103 -1.4362
33604SOL    HW2 8053   6.380   4.367   5.316  1.6643 -0.7791 -0.4649
33605SOL     OW 8054   5.240  10.151   2.751 -0.2801 -0.3335 -0.4933
33605SOL    HW1 8055   5.195  10.221   2.703 -0.3881 -0.1388 -0.1125
33605SOL    HW2 8056   5.326  10.187   2.771 -0.6411  0.0166  0.4518
33606SOL     OW 8057   2.297   1.581  10.516  0.6711  0.1980  0.2130
33606SOL    HW1 8058   2.364   1.597  10.582  2.0518 -2.0541 -0.5392
33606SOL    HW2 8059   2.291   1.486  10.511 -1.4047  0.3357 -0.9693
33607SOL     OW 8060   4.120   8.401   9.838  0.7016  0.1147 -0.1843
33607SOL    HW1 8061   4.122   8.332   9.904 -0.8861 -0.0636 -0.2797
33607SOL    HW2 8062   4.120   8.483   9.888  1.9319  0.0462 -0.0538
33608SOL     OW 8063  10.979   7.725   8.708 -0.3903 -0.0283 -0.1305
33608SOL    HW1 8064  10.940   7.745   8.623  0.8753 -1.4752 -1.1058
33608SOL    HW2 8065  10.945   7.638   8.730  0.0254 -0.0595  0.4059
33609SOL     OW 8066   9.779   2.004   6.741 -0.0895  0.6158  0.3881
33609SOL    HW1 8067   9.751   2.089   6.706 -1.4780  0.0071 -0.0094
33609SOL    HW2 8068   9.753   2.007   6.833 -1.8060 -0.0497 -0.0382
33610SOL     OW 8069   8.902   1.949   5.403  0.0499  0.0641 -0.4043
33610SOL    HW1 8070   8.949   2.032   5.410  0.3586 -0.1433 -0.0117
33610SOL    HW2 8071   8.815   1.974   5.373  0.0669  0.5570 -0.0618
33611SOL     OW 8072   8.892   4.417   5.809  0.1081 -0.1811  0.3290
33611SOL    HW1 8073   8.931   4.332   5.829 -2.0008 -1.3025 -0.0076
33611SOL    HW2 8074   8.953   4.458   5.748  1.8513 -0.8314  1.5796
33612SOL     OW 8075   7.195   7.597   4.968  0.5634 -0.4024 -0.0090
33612SOL    HW1 8076   7.221   7.682   4.933 -0.8301  0.2459  0.4680
33612SOL    HW2 8077   7.212   7.535   4.897  1.8779  0.2179 -0.2472
33613SOL     OW 8078   7.788   8.642  10.661  0.0010  0.1826 -0.7283
33613SOL    HW1 8079   7.862   8.583  10.646  0.5218  1.1395 -2.0561
33613SOL    HW2 8080   7.753   8.660  10.574 -0.0235  1.9767 -0.3781
33614SOL     OW 8081   2.935  11.941   4.029 -0.0325  0.1697  0.1646
33614SOL    HW1 8082   2.893  11.988   4.101  1.2579 -0.8968  1.6837
33614SOL    HW2 8083   2.890  11.857   4.025  0.7488 -0.2790  0.6083
33615SOL     OW 8084   8.056  12.555   6.328 -0.0327 -0.2444 -1.1743
33615SOL    HW1 8085   7.966  12.559   6.359  0.1581 -0.4872 -0.5681
33615SOL    HW2 8086   8.093  12.641   6.349  0.8651 -1.2296  1.7574
33616SOL     OW 8087  10.918   2.929   3.827 -0.4840  0.1492 -0.3235
33616SOL    HW1 8088  10.904   2.961   3.738  1.7063 -0.4252 -0.9438
33616SOL    HW2 8089  10.924   2.834   3.818 -1.0085  0.0144  0.5830
33617SOL     OW 8090   0.468   6.186  10.450  0.4610  0.0638 -0.0425
33617SOL    HW1 8091   0.404   6.254  10.431  0.8303 -0.0466 -1.8785
33617SOL    HW2 8092   0.438   6.110  10.400  1.4627 -0.3041 -0.1108
33618SOL     OW 8093   2.161   8.861   2.547  0.0951  0.2770 -0.2772
33618SOL    HW1 8094   2.136   8.944   2.586 -0.3152  0.3224 -0.6383
33618SOL    HW2 8095   2.160   8.799   2.620  2.5961  1.0073  0.4751
33619SOL     OW 8096   9.146  10.909   8.620 -0.0136  0.5235  0.2624
33619SOL    HW1 8097   9.115  10.860   8.696  0.3380 -1.3977 -0.7706
33619SOL    HW2 8098   9.229  10.948   8.649 -0.5195  0.9095  1.2465
33620SOL     OW 8099  10.958   2.749   5.074  0.1288 -0.2000  0.5715
33620SOL    HW1 8100  10.915   2.834   5.062 -1.3038 -0.8542  0.8644
33620SOL    HW2 8101  10.912   2.691   5.014  0.5548 -0.9511  0.9634
33621SOL     OW 8102  11.946  10.416   0.553 -0.1383 -0.0470  0.5099
33621SOL    HW1 8103  12.002  10.385   0.482  0.8242  0.6447  0.9395
33621SOL    HW2 8104  11.859  10.423   0.514  0.3001 -0.0309 -0.5016
33622SOL     OW 8105  10.288  10.360   5.433 -0.3264  0.4538  0.4629
33622SOL    HW1 8106  10.292  10.291   5.499 -2.4532 -0.7610 -0.5760
33622SOL    HW2 8107  10.284  10.314   5.350  2.4118  1.9480 -0.6411
33623SOL     OW 8108   9.713   7.940  12.409 -0.2145  0.4476  0.3715
33623SOL    HW1 8109   9.732   7.870  12.472 -0.9130  1.4392  1.7283
33623SOL    HW2 8110   9.644   7.903  12.354 -0.5798  0.0488  1.0695
33624SOL     OW 8111   6.391  12.671   9.832 -0.0386  0.4711 -0.0937
33624SOL    HW1 8112   6.419  12.761   9.851 -0.5601  0.6100  0.0218
33624SOL    HW2 8113   6.324  12.652   9.897 -0.3895  0.2227 -0.5208
33625SOL     OW 8114   2.963   2.261  11.967 -0.0057  0.2065 -0.0086
33625SOL    HW1 8115   3.022   2.240  11.894  0.9698  0.0188  0.8088
33625SOL    HW2 8116   2.886   2.207  11.951 -0.2287  0.8981 -1.4228
33626SOL     OW 8117   4.306   6.391   1.864  0.7081  0.3214  0.3487
33626SOL    HW1 8118   4.246   6.463   1.846 -0.1403 -0.5072 -0.2194
33626SOL    HW2 8119   4.368   6.393   1.791 -0.9289 -1.1639 -1.1574
33627SOL     OW 8120   8.377   1.448   1.155 -0.3687 -0.1406  0.2610
33627SOL    HW1 8121   8.302   1.404   1.116  1.5154 -1.0951 -2.5742
33627SOL    HW2 8122   8.380   1.534   1.114  1.2848 -0.9310 -1.4351
33628SOL     OW 8123   2.337   3.840   3.657 -0.3376 -0.3408 -0.1547
33628SOL    HW1 8124   2.382   3.757   3.639 -0.6719 -0.4386 -0.5474
33628SOL    HW2 8125   2.377   3.902   3.596  0.8752  0.1214  1.0654
33629SOL     OW 8126   5.907   4.383   2.297 -0.0246  0.0752 -0.3712
33629SOL    HW1 8127   5.938   4.458   2.347  1.6401 -0.3870 -0.6637
33629SOL    HW2 8128   5.962   4.310   2.326 -0.9834 -0.8405 -0.7746
33630SOL     OW 8129  11.249   3.679   9.257 -0.6035 -0.1540  0.2668
33630SOL    HW1 8130  11.198   3.612   9.302 -0.1713 -0.1902  0.7098
33630SOL    HW2 8131  11.260   3.748   9.322 -1.9988  0.8609 -0.5316
33631SOL     OW 8132   0.171   3.353  10.725 -0.3265  0.1937  0.0329
33631SOL    HW1 8133   0.202   3.393  10.644  2.8840 -0.5909  0.7293
33631SOL    HW2 8134   0.168   3.259  10.706 -0.9334  0.1283  0.4327
33632SOL     OW 8135   8.218   3.491   9.642  0.2102 -0.4189  0.4608
33632SOL    HW1 8136   8.132   3.454   9.660 -0.6426  1.1298 -0.2635
33632SOL    HW2 8137   8.251   3.439   9.569  0.4659 -1.8227  1.5134
33633SOL     OW 8138  12.541   0.637   8.988 -0.3160 -0.0603  0.0628
33633SOL    HW1 8139  12.624   0.685   8.998  0.9099 -2.3848  1.8911
33633SOL    HW2 8140  12.556   0.554   9.033 -4.0167 -0.1693  1.3667
33634SOL     OW 8141   9.092   4.687  10.526 -0.1584 -0.2346  0.6350
33634SOL    HW1 8142   9.108   4.705  10.433  1.3661  0.5047  1.0072
33634SOL    HW2 8143   9.156   4.620  10.548 -0.7863 -0.6993  1.0692
33635SOL     OW 8144   5.157  12.379   1.299  0.1707 -1.0994 -0.3346
33635SOL    HW1 8145   5.210  12.355   1.374 -0.4184 -1.0979  0.0882
33635SOL    HW2 8146   5.135  12.296   1.257  2.3241 -1.0039 -1.8045
33636SOL     OW 8147   2.253   6.164   2.009 -0.6710 -0.3638 -0.0813
33636SOL    HW1 8148   2.158   6.167   2.001 -0.6318  0.6253 -0.2907
33636SOL    HW2 8149   2.275   6.072   1.996 -1.6619 -0.7514  0.8123
33637SOL     OW 8150   5.028   5.990   4.717  0.2772 -0.7442 -0.3411
33637SOL    HW1 8151   5.095   5.924   4.700  0.4161 -0.4248 -1.0830
33637SOL    HW2 8152   5.027   5.999   4.812  0.5374 -1.5172 -0.2569
33638SOL     OW 8153   9.066   3.681   2.030 -0.0710  0.1094  0.0673
33638SOL    HW1 8154   9.087   3.680   2.124  1.2873 -0.0250 -0.2181
33638SOL    HW2 8155   9.095   3.596   1.998  0.4747  0.5607 -0.6751
33639SOL     OW 8156   0.533   4.666   6.351  0.5376 -0.0166 -0.9148
33639SOL    HW1 8157   0.455   4.623   6.386  1.5727 -1.8450 -0.6821
33639SOL    HW2 8158   0.500   4.726   6.285 -1.0446 -1.0228 -1.0944
33640SOL     OW 8159  10.044   8.720   4.220  0.5061 -0.3674  0.4325
33640SOL    HW1 8160  10.100   8.643   4.206 -0.0667 -0.5773 -0.8886
33640SOL    HW2 8161  10.053   8.771   4.139 -1.1934 -0.4193  0.1838
33641SOL     OW 8162   6.222  10.824   3.707  0.7600 -0.1484 -0.1199
33641SOL    HW1 8163   6.277  10.839   3.630  2.2979  0.8333  1.0942
33641SOL    HW2 8164   6.174  10.905   3.719  0.6102 -0.2545  0.0086
33642SOL     OW 8165  11.048   7.579   9.208  0.0676 -0.0715  0.0241
33642SOL    HW1 8166  11.009   7.598   9.123  0.8951 -0.5910 -0.4912
33642SOL    HW2 8167  10.975   7.547   9.262 -0.2492 -0.9258 -0.8767
33643SOL     OW 8168   6.377   3.176   4.028  0.0851 -0.3691  0.3676
33643SOL    HW1 8169   6.365   3.083   4.011 -0.4668 -0.4660  1.2520
33643SOL    HW2 8170   6.441   3.179   4.099 -0.0762 -0.0788  0.5007
33644SOL     OW 8171   2.103   8.192  10.106  0.2453  0.2079 -0.7115
33644SOL    HW1 8172   2.045   8.268  10.097  3.2524  2.5074 -2.1677
33644SOL    HW2 8173   2.133   8.195  10.197  0.5522  0.9491 -0.8328
33645SOL     OW 8174  10.547  10.257   0.223 -0.0446 -0.0875  0.2284
33645SOL    HW1 8175  10.478  10.301   0.172  0.6942  1.0699  0.1911
33645SOL    HW2 8176  10.501  10.187   0.269 -1.3436  0.9042  0.5177
33646SOL     OW 8177   0.223  11.775   3.033 -0.7005  0.3090  0.5167
33646SOL    HW1 8178   0.195  11.687   3.007  1.9798 -0.1791 -1.1624
33646SOL    HW2 8179   0.297  11.760   3.092 -1.8894  1.5140  2.4285
33647SOL     OW 8180   2.858   7.165   1.768 -0.4853  0.2404  0.6072
33647SOL    HW1 8181   2.787   7.183   1.707 -0.7756 -0.4206  0.7434
33647SOL    HW2 8182   2.880   7.250   1.805 -0.7490  0.5468  0.0691
33648SOL     OW 8183  12.406   4.885   0.700 -0.6846 -0.2812  0.0601
33648SOL    HW1 8184  12.354   4.809   0.673  0.8431 -1.6870  0.8460
33648SOL    HW2 8185  12.471   4.849   0.761 -0.5508  1.8517  1.2870
33649SOL     OW 8186   4.855   1.562   6.942 -0.2256 -0.3154 -0.3076
33649SOL    HW1 8187   4.838   1.507   7.019 -2.0099  0.2312 -0.2683
33649SOL    HW2 8188   4.936   1.609   6.963 -1.0575  0.3618  1.5619
33650SOL     OW 8189   0.221  12.549   7.920  0.0988 -0.3556 -0.0929
33650SOL    HW1 8190   0.277  12.472   7.927  0.5062 -0.1885 -1.1964
33650SOL    HW2 8191   0.183  12.542   7.832 -0.3999  0.3384  0.0596
33651SOL     OW 8192   6.872   6.698   5.599 -0.4063 -0.4930  0.0292
33651SOL    HW1 8193   6.938   6.629   5.604  0.7269  0.5211 -0.5833
33651SOL    HW2 8194   6.920   6.779   5.616 -1.0318  0.4973 -2.4127
33652SOL     OW 8195  10.534   2.091   9.902 -0.0305 -0.3635  0.1118
33652SOL    HW1 8196  10.607   2.094   9.840  1.5486  0.5684  1.9227
33652SOL    HW2 8197  10.574   2.064   9.985 -1.2233  2.5186  1.7577
33653SOL     OW 8198   2.719  12.043   9.503 -0.5317 -0.4328  0.6899
33653SOL    HW1 8199   2.648  12.000   9.552  0.4556 -0.6759  1.9667
33653SOL    HW2 8200   2.755  12.106   9.565  0.2292 -0.1578 -0.0216
33654SOL     OW 8201  10.837   1.095  11.661 -0.1709 -0.2479  0.3772
33654SOL    HW1 8202  10.762   1.059  11.709  0.4216 -1.2124  0.5859
33654SOL    HW2 8203  10.803   1.176  11.622 -1.3748 -0.7624  0.3184
33655SOL     OW 8204   4.520   7.055   5.978 -0.5897  0.2000 -0.0217
33655SOL    HW1 8205   4.522   7.104   5.896 -0.2104  3.4009  1.7149
33655SOL    HW2 8206   4.437   7.007   5.976 -0.5028  0.0601 -2.2903
33656SOL     OW 8207   4.370   4.698  12.344 -0.0210  0.0055  0.6769
33656SOL    HW1 8208   4.390   4.608  12.367  0.4023  0.0819  0.6232
33656SOL    HW2 8209   4.346   4.695  12.252 -2.5783 -0.4332  1.2772
33657SOL     OW 8210   7.295   0.485   5.249 -0.7290  0.9517 -0.0026
33657SOL    HW1 8211   7.320   0.522   5.334 -0.7493  0.9161  0.0185
33657SOL    HW2 8212   7.358   0.523   5.188 -0.8806  1.1869 -0.0139
33658SOL     OW 8213   2.841   8.636   9.849  0.0511  0.3677  0.4108
33658SOL    HW1 8214   2.795   8.552   9.839 -0.8648  0.9939 -0.9260
33658SOL    HW2 8215   2.934   8.613   9.842 -0.1441 -0.6330  0.8586
33659SOL     OW 8216   3.629   4.914   9.959 -0.1403  0.0188 -0.3840
33659SOL    HW1 8217   3.631   4.849  10.030 -0.6157  0.4687  0.0456
33659SOL    HW2 8218   3.558   4.973   9.982 -0.7925 -0.2478 -1.6210
33660SOL     OW 8219   9.509   9.041   5.091  0.4571 -0.0479 -0.9063
33660SOL    HW1 8220   9.552   9.056   5.175 -1.7991 -0.4084  0.3855
33660SOL    HW2 8221   9.515   8.947   5.077 -1.3147 -0.3873  0.1821
33661SOL     OW 8222   1.652  12.579   5.696  0.0723  0.1800 -0.3178
33661SOL    HW1 8223   1.582  12.635   5.729 -0.5176  0.1020 -1.3772
33661SOL    HW2 8224   1.713  12.640   5.654  1.2043  0.3598  1.5021
33662SOL     OW 8225   3.461  12.535  12.231  0.4019  0.1170 -0.0797
33662SOL    HW1 8226   3.398  12.592  12.275 -0.0315 -0.9833  0.8010
33662SOL    HW2 8227   3.535  12.530  12.292  0.2401 -0.5989  0.0757
33663SOL     OW 8228   3.265   0.079   3.578 -0.3682  0.5275  0.0329
33663SOL    HW1 8229   3.298   0.160   3.538 -0.5326  0.1161 -0.9705
33663SOL    HW2 8230   3.211   0.039   3.509 -2.7816  1.0466  1.5227
33664SOL     OW 8231   2.063  11.913   9.084  0.3485 -0.5445 -0.2074
33664SOL    HW1 8232   2.131  11.880   9.143  1.3909  1.8246  0.0636
33664SOL    HW2 8233   2.017  11.979   9.137 -0.5569 -0.3790 -1.1766
33665SOL     OW 8234  10.431  10.932   4.969  0.3821  0.7901 -0.0445
33665SOL    HW1 8235  10.519  10.936   5.006  0.5277 -1.4245 -0.0157
33665SOL    HW2 8236  10.404  10.841   4.980 -2.2017  1.5362  0.5414
33666SOL     OW 8237   1.035  11.116   6.619 -0.7705 -0.7426 -0.2083
33666SOL    HW1 8238   1.102  11.109   6.688 -0.4010 -0.5106 -0.5401
33666SOL    HW2 8239   1.064  11.055   6.551 -0.6915 -0.3667 -0.5175
33667SOL     OW 8240   9.381  11.730   0.300 -0.2242  0.2613 -0.0415
33667SOL    HW1 8241   9.377  11.789   0.375 -0.2406  1.2869 -0.8161
33667SOL    HW2 8242   9.333  11.776   0.231  0.9032 -0.0306 -1.0642
33668SOL     OW 8243   5.391   0.861  11.779 -0.5931 -0.4708  0.0397
33668SOL    HW1 8244   5.453   0.922  11.820 -0.1357 -1.5921  1.0858
33668SOL    HW2 8245   5.307   0.907  11.781 -0.2413  0.1676  0.7153
33669SOL     OW 8246   0.475   7.132  11.581  0.3531 -0.3491 -0.0688
33669SOL    HW1 8247   0.445   7.106  11.669 -0.1565 -1.0133 -0.4235
33669SOL    HW2 8248   0.403   7.105  11.523  0.5771  0.3119 -0.6614
33670SOL     OW 8249  12.435   0.381   3.952 -0.0446  0.0081  0.2301
33670SOL    HW1 8250  12.376   0.455   3.945  0.8716  0.6749 -0.6526
33670SOL    HW2 8251  12.394   0.312   3.900 -0.1644  0.3891 -0.1807
33671SOL     OW 8252   6.434   0.161   2.641  0.2610 -0.0449 -0.2352
33671SOL    HW1 8253   6.361   0.147   2.702 -1.9412 -0.5647 -2.7711
33671SOL    HW2 8254   6.495   0.089   2.659  0.2748  0.4653  2.0433
33672SOL     OW 8255   8.528   8.420   0.013  0.1776  0.8348  0.9320
33672SOL    HW1 8256   8.524   8.355   0.083 -0.6718 -0.4290 -0.2647
33672SOL    HW2 8257   8.456   8.480   0.032  0.1003  0.6394  1.2657
33673SOL     OW 8258   3.082   9.056   8.231 -0.3195  0.5403  0.3662
33673SOL    HW1 8259   3.171   9.022   8.218 -0.3028  0.6075  0.3004
33673SOL    HW2 8260   3.087   9.147   8.199 -0.1422  0.8821  1.3298
33674SOL     OW 8261   0.888   4.866   4.214 -0.4043  0.1147 -0.4142
33674SOL    HW1 8262   0.923   4.944   4.256 -0.1788  0.3392 -1.0113
33674SOL    HW2 8263   0.928   4.793   4.262 -1.3914  0.3365  0.8052
33675SOL     OW 8264   8.831   3.149   0.782 -0.3016 -0.3406  0.0669
33675SOL    HW1 8265   8.869   3.174   0.866  0.3367  0.7281 -0.5171
33675SOL    HW2 8266   8.736   3.163   0.793 -0.0928  1.2157  0.1722
33676SOL     OW 8267   1.174   0.554  11.790  0.1923 -0.5777 -0.3438
33676SOL    HW1 8268   1.141   0.574  11.877 -3.2552 -0.7462 -1.4695
33676SOL    HW2 8269   1.204   0.639  11.756 -0.1963 -0.1622  0.3349
33677SOL     OW 8270   4.576  12.335   5.219  0.1741  0.2117  0.2690
33677SOL    HW1 8271   4.662  12.375   5.211 -0.0998  0.4769 -1.9765
33677SOL    HW2 8272   4.515  12.409   5.213 -0.2512 -0.1582  0.0456
33678SOL     OW 8273  12.117   7.788   8.583 -0.0790 -0.1773  0.3945
33678SOL    HW1 8274  12.039   7.834   8.552 -1.2813 -1.3896  1.5641
33678SOL    HW2 8275  12.106   7.698   8.553  0.5722 -0.4964  1.0802
33679SOL     OW 8276   9.938  11.220  12.139 -0.5696  0.0660 -0.7265
33679SOL    HW1 8277   9.850  11.224  12.176  0.2517 -1.2137  1.5722
33679SOL    HW2 8278   9.947  11.130  12.108  0.4007 -0.2667  0.4460
33680SOL     OW 8279   6.759   6.118   9.463  0.2378  0.2623  0.4601
33680SOL    HW1 8280   6.823   6.058   9.425  0.0808  0.7252 -0.5741
33680SOL    HW2 8281   6.767   6.105   9.557  1.3341 -0.2239  0.3192
33681SOL     OW 8282   9.201   0.213   1.200 -0.3254 -0.4868 -0.0503
33681SOL    HW1 8283   9.263   0.174   1.261  1.1875 -0.3282 -1.4261
33681SOL    HW2 8284   9.163   0.287   1.247  0.5778 -0.5469  0.7921
33682SOL     OW 8285   0.458   6.546   6.378 -0.2287 -0.3130  0.9073
33682SOL    HW1 8286   0.529   6.610   6.384  0.6031 -1.1714  0.5982
33682SOL    HW2 8287   0.378   6.597   6.389  0.4234  0.7213  0.9913
33683SOL     OW 8288   0.535   6.844   7.741 -0.5594 -0.1957  0.3195
33683SOL    HW1 8289   0.499   6.871   7.825 -1.7380  0.4192 -0.3627
33683SOL    HW2 8290   0.483   6.891   7.676  1.3102  0.5144 -0.7313
33684SOL     OW 8291   8.149  10.051  11.923  0.0628  0.5995  0.0631
33684SOL    HW1 8292   8.205   9.973  11.920 -1.1222 -0.2766 -0.1810
33684SOL    HW2 8293   8.069  10.024  11.879 -0.8116  1.6119  0.9755
33685SOL     OW 8294   6.746   3.195   5.876 -0.5502 -0.0387  0.0942
33685SOL    HW1 8295   6.829   3.151   5.894 -0.4124  0.7520  1.5549
33685SOL    HW2 8296   6.767   3.288   5.880 -1.1112  0.1856 -1.5981
33686SOL     OW 8297   8.882   8.172   4.382 -0.0286  0.2737  0.2498
33686SOL    HW1 8298   8.786   8.167   4.378 -0.0342 -1.4133  1.3774
33686SOL    HW2 8299   8.903   8.144   4.471  1.5656 -0.5423 -0.3505
33687SOL     OW 8300   7.941   1.602   3.317  0.0419 -0.4853  0.3296
33687SOL    HW1 8301   7.898   1.577   3.399  2.6928 -0.8440  1.6957
33687SOL    HW2 8302   7.925   1.696   3.309 -0.1444 -0.4246  1.3269
33688SOL     OW 8303  11.118  10.487   5.040  0.1468  0.1881  0.1988
33688SOL    HW1 8304  11.191  10.538   5.073  0.1339 -0.5586  1.4434
33688SOL    HW2 8305  11.041  10.523   5.084  0.1517 -0.9278  1.1777
33689SOL     OW 8306   5.552   8.106   7.787 -0.0353 -0.1776 -0.3470
33689SOL    HW1 8307   5.588   8.192   7.769 -0.0528  0.1384  0.9940
33689SOL    HW2 8308   5.624   8.057   7.826 -0.4854 -0.1920  0.4925
33690SOL     OW 8309   5.334   0.289   1.086  0.0955 -0.0942 -0.1424
33690SOL    HW1 8310   5.254   0.325   1.125 -0.4393 -1.2522 -0.1159
33690SOL    HW2 8311   5.377   0.243   1.158  1.7359  1.9831  0.2906
33691SOL     OW 8312   2.682   3.061   0.170  0.0551 -0.0077 -0.0795
33691SOL    HW1 8313   2.777   3.073   0.175  0.0089  0.3627 -0.0339
33691SOL    HW2 8314   2.663   2.996   0.237  0.3684 -0.6443 -0.5980
33692SOL     OW 8315   0.960   4.484  11.465  0.1108  0.0951 -0.4706
33692SOL    HW1 8316   0.946   4.389  11.461 -2.6783  0.4931 -2.2401
33692SOL    HW2 8317   1.040   4.498  11.415 -0.3479 -1.1817 -1.6295
33693SOL     OW 8318   6.325   3.991   4.834 -0.2101  0.4696 -0.2722
33693SOL    HW1 8319   6.236   3.977   4.801 -0.4526  1.1568  0.0778
33693SOL    HW2 8320   6.375   3.918   4.796 -1.2631 -0.9573  0.9362
33694SOL     OW 8321   0.050   6.599   4.228 -0.1448 -0.1506  0.1686
33694SOL    HW1 8322  -0.009   6.644   4.167  0.1872  1.8490  1.2180
33694SOL    HW2 8323   0.126   6.657   4.233  0.6381 -1.2331  1.0492
33695SOL     OW 8324   0.915   0.881   4.820 -0.2179 -0.0044 -0.1898
33695SOL    HW1 8325   0.906   0.961   4.871 -0.9467  1.0024 -1.8057
33695SOL    HW2 8326   1.009   0.876   4.800 -0.1908  0.5746 -0.2447
33696SOL     OW 8327   6.791  10.544   2.039 -0.4870  0.1186  0.0432
33696SOL    HW1 8328   6.782  10.544   1.944 -2.9705  0.5845  0.2056
33696SOL    HW2 8329   6.827  10.630   2.060 -0.0618  0.0689 -0.4461
33697SOL     OW 8330   0.764   1.623   5.564  0.3364  0.0633 -0.2189
33697SOL    HW1 8331   0.678   1.587   5.585  0.7292 -1.3812 -0.9562
33697SOL    HW2 8332   0.772   1.610   5.469  1.6499 -0.4905 -0.0459
33698SOL     OW 8333   4.227  11.450   3.714  0.3020 -0.3038 -0.5113
33698SOL    HW1 8334   4.212  11.371   3.662 -1.0551  0.8244 -1.9387
33698SOL    HW2 8335   4.292  11.500   3.664 -1.4656  1.0767 -1.5734
33699SOL     OW 8336   6.007   1.794   0.213  0.1752  0.5457 -0.2495
33699SOL    HW1 8337   5.936   1.822   0.270  0.0159 -1.4366  0.6201
33699SOL    HW2 8338   6.008   1.698   0.221  2.6010  0.4680 -0.6368
33700SOL     OW 8339  10.707   9.528   8.387  0.7399 -0.2805 -0.4261
33700SOL    HW1 8340  10.740   9.497   8.471 -2.0510 -0.2556  0.7888
33700SOL    HW2 8341  10.651   9.603   8.409  1.0595  0.6411 -2.4843
33701SOL     OW 8342  11.195   2.717  10.302 -0.6583  0.0665  0.9121
33701SOL    HW1 8343  11.254   2.645  10.278  1.8617  2.4886 -0.7630
33701SOL    HW2 8344  11.249   2.776  10.355 -2.3726  1.2086  1.4823
33702SOL     OW 8345  11.428   6.658   8.243 -0.0864 -0.3071 -0.4694
33702SOL    HW1 8346  11.343   6.680   8.206 -0.3668  0.5378  0.6586
33702SOL    HW2 8347  11.416   6.661   8.337  1.0991 -0.5520 -0.2918
33703SOL     OW 8348   2.247   3.652   4.702 -0.4259  0.3159 -0.1326
33703SOL    HW1 8349   2.155   3.670   4.719 -0.8014  0.0524 -1.7150
33703SOL    HW2 8350   2.264   3.569   4.746 -1.6043 -0.8425 -1.7478
33704SOL     OW 8351   7.534   8.272  10.082  0.5094 -0.0989  0.1818
33704SOL    HW1 8352   7.464   8.233  10.134  0.9683 -0.2985  0.6530
33704SOL    HW2 8353   7.608   8.279  10.142  0.2457  2.1401  0.3503
33705SOL     OW 8354   0.348   6.475   8.551 -0.1998  0.5109 -0.4190
33705SOL    HW1 8355   0.273   6.506   8.602  0.1714  0.2264  0.3125
33705SOL    HW2 8356   0.318   6.393   8.512 -0.8019  1.1888 -1.4435
33706SOL     OW 8357   8.635   6.689   7.103 -0.0064 -0.0782 -0.7078
33706SOL    HW1 8358   8.719   6.708   7.144  0.4259 -2.0036 -0.6509
33706SOL    HW2 8359   8.656   6.637   7.026 -1.1517 -0.9642 -0.4599
33707SOL     OW 8360   0.853   4.881  12.095 -0.5881 -0.3273  0.6011
33707SOL    HW1 8361   0.870   4.894  12.001 -0.3695 -0.8863  0.5590
33707SOL    HW2 8362   0.763   4.847  12.098 -1.0926  0.9598  0.6982
33708SOL     OW 8363   0.682   4.462   2.783 -0.3407  0.1005  0.3842
33708SOL    HW1 8364   0.623   4.520   2.830 -1.1740 -0.7289  0.4081
33708SOL    HW2 8365   0.650   4.374   2.804  0.8161 -0.3659  0.2654
33709SOL     OW 8366   2.349  12.196   3.584  0.3318  0.5927  0.3185
33709SOL    HW1 8367   2.256  12.185   3.605  0.1230  0.9093 -0.4049
33709SOL    HW2 8368   2.395  12.144   3.650 -0.4459 -1.5081 -0.6987
33710SOL     OW 8369   9.569   0.472   6.985 -0.5366 -0.2631  0.6888
33710SOL    HW1 8370   9.497   0.527   7.016  0.6689  1.2613  0.9336
33710SOL    HW2 8371   9.557   0.469   6.890  0.0469  1.4939  0.5228
33711SOL     OW 8372   3.835   1.856  10.848 -0.5142  0.3002 -0.4000
33711SOL    HW1 8373   3.840   1.766  10.814 -1.0387  0.4282 -0.8263
33711SOL    HW2 8374   3.925   1.876  10.875  0.0317  0.3622 -2.1707
33712SOL     OW 8375   3.032  11.019   8.417 -0.0245  0.6595 -0.2156
33712SOL    HW1 8376   3.008  11.031   8.509 -1.5944 -4.3191  0.2979
33712SOL    HW2 8377   3.128  11.010   8.419 -0.0489  0.3888  0.9944
33713SOL     OW 8378   8.114   1.665   0.450 -0.1394  0.3791 -0.0379
33713SOL    HW1 8379   8.088   1.621   0.532 -0.0289 -1.6868 -1.0467
33713SOL    HW2 8380   8.185   1.723   0.476  0.5483 -0.9422  1.2163
33714SOL     OW 8381   5.797   6.661  11.737 -0.4316 -0.2563 -0.3170
33714SOL    HW1 8382   5.870   6.699  11.787  0.7087  0.6961 -2.5714
33714SOL    HW2 8383   5.728   6.726  11.743 -1.0284 -0.9972  1.5270
33715SOL     OW 8384   1.048  11.748  11.000  0.6433 -0.1140  0.0921
33715SOL    HW1 8385   1.123  11.704  11.039  1.6949  0.8565 -0.7762
33715SOL    HW2 8386   0.999  11.679  10.956  0.2124 -0.9889  1.8445
33716SOL     OW 8387   7.375   3.135   6.977  0.1450  0.8392 -0.1112
33716SOL    HW1 8388   7.344   3.208   6.923  2.6387  0.8341 -1.7201
33716SOL    HW2 8389   7.424   3.080   6.916 -0.1466 -1.2656  1.4391
33717SOL     OW 8390   3.641  12.691   7.065 -0.1254 -0.0128 -0.3724
33717SOL    HW1 8391   3.604  12.685   6.977  1.5061  2.3453 -1.3465
33717SOL    HW2 8392   3.585  12.755   7.109  0.5962  0.8248 -0.6387
33718SOL     OW 8393   3.843  10.508   6.707 -0.0770 -0.2915  0.1175
33718SOL    HW1 8394   3.779  10.454   6.660 -0.0202 -0.1099 -0.1671
33718SOL    HW2 8395   3.845  10.591   6.659 -2.3626  1.1132  2.2471
33719SOL     OW 8396   1.847  10.467   6.333 -0.3750  0.0062 -0.0093
33719SOL    HW1 8397   1.857  10.505   6.245  1.3084 -0.3642 -0.0054
33719SOL    HW2 8398   1.787  10.393   6.320  0.3966 -0.4701 -0.9924
33720SOL     OW 8399   9.937   8.162   5.458  0.2057  0.1230 -0.3336
33720SOL    HW1 8400   9.997   8.102   5.502  0.0885  0.0507 -0.2722
33720SOL    HW2 8401   9.971   8.170   5.369 -0.4046 -0.9036 -0.6720
33721SOL     OW 8402   9.436   9.539   7.461  0.0134 -0.2132  0.6477
33721SOL    HW1 8403   9.399   9.614   7.508  0.6888  0.7856 -0.3537
33721SOL    HW2 8404   9.530   9.557   7.458  0.1310 -0.8869  0.0127
33722SOL     OW 8405   7.534   1.672   0.475  0.1285  0.1484  0.3369
33722SOL    HW1 8406   7.602   1.687   0.542  1.9543 -2.1007 -0.8794
33722SOL    HW2 8407   7.579   1.688   0.392 -1.2916  0.0592 -0.4712
33723SOL     OW 8408   3.585  12.158  12.135 -0.0712 -0.1279 -0.4830
33723SOL    HW1 8409   3.617  12.074  12.169  0.8479  0.3926 -0.0166
33723SOL    HW2 8410   3.640  12.224  12.178 -2.5472  0.9347  1.2568
33724SOL     OW 8411   1.649   3.559   1.491 -0.2892  0.2455 -0.0120
33724SOL    HW1 8412   1.627   3.466   1.496  1.3490 -0.1485  0.3917
33724SOL    HW2 8413   1.565   3.604   1.502 -1.0370 -1.1738  0.3078
33725SOL     OW 8414   2.040  11.276  11.553  0.3898 -0.6054  0.2209
33725SOL    HW1 8415   1.996  11.360  11.537  1.2333 -0.0308  0.7906
33725SOL    HW2 8416   2.044  11.234  11.468  3.4926  1.7044 -0.9598
33726SOL     OW 8417   4.259   5.327   3.808 -0.0608 -0.2898  0.2520
33726SOL    HW1 8418   4.175   5.338   3.762  0.7594 -0.6510 -1.4330
33726SOL    HW2 8419   4.323   5.368   3.749  1.0053 -0.4282  1.2895
33727SOL     OW 8420   9.369  11.837   8.171 -0.3013  0.1214 -0.6541
33727SOL    HW1 8421   9.401  11.926   8.160 -0.4036  0.0518 -1.5909
33727SOL    HW2 8422   9.423  11.784   8.112 -0.7974 -0.2978 -0.7417
33728SOL     OW 8423   1.401   3.058   6.716  0.7168 -0.0879 -0.1427
33728SOL    HW1 8424   1.353   3.014   6.786  0.7863  2.3181  1.5828
33728SOL    HW2 8425   1.390   3.002   6.639 -2.4039 -1.0876  0.8793
33729SOL     OW 8426   4.222   7.045  11.313  0.4667 -0.2802 -0.1332
33729SOL    HW1 8427   4.132   7.051  11.281  0.4839 -1.9685 -0.5886
33729SOL    HW2 8428   4.213   7.008  11.401  0.6223  1.3887  0.6198
33730SOL     OW 8429   2.123   3.337   8.834 -0.1155  0.1072 -0.3565
33730SOL    HW1 8430   2.164   3.406   8.783  0.5103  1.0557  1.3465
33730SOL    HW2 8431   2.185   3.317   8.904  0.6285 -3.6195 -1.8361
33731SOL     OW 8432   7.422   5.361   4.640 -0.8021  0.6901  0.3991
33731SOL    HW1 8433   7.497   5.302   4.636 -2.4694 -1.5475  0.3391
33731SOL    HW2 8434   7.423   5.406   4.556  0.4542  0.7420  0.4099
33732SOL     OW 8435   9.455  10.947  12.640 -0.0265 -0.1507 -0.3227
33732SOL    HW1 8436   9.420  10.860  12.620  1.7998 -1.1852  0.7276
33732SOL    HW2 8437   9.524  10.931  12.704  0.8493  2.0150 -0.6437
33733SOL     OW 8438   5.197   7.665   2.483  0.3418 -0.1991 -0.2720
33733SOL    HW1 8439   5.220   7.725   2.413  0.8387  0.1281  0.1636
33733SOL    HW2 8440   5.106   7.642   2.466 -0.2234  1.5495  0.1646
33734SOL     OW 8441  11.203   8.991   2.740  0.0981  0.9872  0.1060
33734SOL    HW1 8442  11.117   9.029   2.758 -0.5287  0.1506 -0.9955
33734SOL    HW2 8443  11.235   9.040   2.664 -2.1496 -2.5114 -3.5400
33735SOL     OW 8444   0.791  11.109  10.259 -0.0112 -0.2590  0.0682
33735SOL    HW1 8445   0.804  11.171  10.188 -0.5288 -0.0011  0.1936
33735SOL    HW2 8446   0.806  11.159  10.339 -2.7488  0.3856  0.2899
33736SOL     OW 8447   0.344   6.235   2.770 -0.4874  0.4716 -0.5764
33736SOL    HW1 8448   0.437   6.261   2.771  0.3540 -2.2138 -0.7622
33736SOL    HW2 8449   0.297   6.316   2.788  1.8781  1.9777 -0.6382
33737SOL     OW 8450   0.150   0.562  11.412  0.5776  0.0932  0.3854
33737SOL    HW1 8451   0.140   0.657  11.423  0.5929  0.2511 -0.8601
33737SOL    HW2 8452   0.064   0.527  11.434  0.7692  0.3132  1.5585
33738SOL     OW 8453   9.172  10.528  12.004 -0.0032  0.6054  0.2561
33738SOL    HW1 8454   9.172  10.519  12.100 -0.5037  1.0600  0.3031
33738SOL    HW2 8455   9.188  10.621  11.989  1.7291  0.2679 -0.1495
33739SOL     OW 8456  11.249   2.234   3.386 -0.3564  0.1188 -0.3814
33739SOL    HW1 8457  11.172   2.259   3.437 -0.3414 -0.3635 -0.1191
33739SOL    HW2 8458  11.219   2.160   3.332  0.2363 -0.8491  0.5868
33740SOL     OW 8459  12.597   5.884   5.286  0.2832  0.0097  0.0652
33740SOL    HW1 8460  12.653   5.825   5.336 -0.8870 -0.4536  0.8776
33740SOL    HW2 8461  12.511   5.843   5.288  0.0864  0.2149 -1.9521
33741SOL     OW 8462  12.023  11.950   0.334  0.1193 -1.0862 -0.1445
33741SOL    HW1 8463  11.948  11.959   0.393  0.8127 -0.4564  0.6684
33741SOL    HW2 8464  12.025  11.856   0.314 -0.5193 -1.2103  0.3119
33742SOL     OW 8465  10.124   1.862  10.926  0.1979 -0.6120  0.4259
33742SOL    HW1 8466  10.205   1.824  10.959 -0.3569 -0.0227  2.6050
33742SOL    HW2 8467  10.135   1.956  10.938 -0.9414 -0.5514  1.1179
33743SOL     OW 8468   4.653   6.003   3.617 -0.6923  0.1086  0.2608
33743SOL    HW1 8469   4.734   6.007   3.567 -0.3822  1.2122  0.8234
33743SOL    HW2 8470   4.586   5.976   3.553 -0.3477  1.6695 -0.8123
33744SOL     OW 8471   2.680  11.715   0.125  0.3382  0.1336 -0.0565
33744SOL    HW1 8472   2.755  11.721   0.066  2.4370 -2.7649  1.9965
33744SOL    HW2 8473   2.703  11.773   0.198 -0.7839  1.3610 -0.6535
33745SOL     OW 8474   8.285   7.952   2.128  0.1509  0.0892  0.4124
33745SOL    HW1 8475   8.307   8.039   2.095 -0.2220  0.1509  0.3267
33745SOL    HW2 8476   8.205   7.965   2.179 -1.7224 -0.6899 -2.1117
33746SOL     OW 8477   7.112   6.309   7.985  0.3358 -0.6183 -0.0152
33746SOL    HW1 8478   7.154   6.277   7.905 -1.0233 -1.8630 -0.2485
33746SOL    HW2 8479   7.025   6.271   7.984 -0.6411  1.4527  0.7614
33747SOL     OW 8480  11.547  10.532  11.596 -0.0120  0.1406  0.6831
33747SOL    HW1 8481  11.491  10.534  11.518  1.0477  0.9552 -0.0738
33747SOL    HW2 8482  11.576  10.622  11.608 -0.9446  0.2376  2.6381
33748SOL     OW 8483   9.306   4.492   5.207  0.0869  0.5875 -0.4557
33748SOL    HW1 8484   9.320   4.450   5.292 -0.9425 -1.6839 -1.3500
33748SOL    HW2 8485   9.222   4.459   5.177  1.9139 -1.5038 -3.8874
33749SOL     OW 8486  11.657   2.543   1.455  0.1944 -0.3498 -0.3882
33749SOL    HW1 8487  11.605   2.617   1.422  0.7490 -0.4867 -1.6047
33749SOL    HW2 8488  11.621   2.467   1.410  0.6282 -0.6170 -0.2888
33750SOL     OW 8489  11.653   5.901   6.464 -0.2844 -0.2818 -0.6716
33750SOL    HW1 8490  11.727   5.866   6.513 -1.6795 -1.9785  0.3476
33750SOL    HW2 8491  11.668   5.874   6.374  1.7861  1.9692 -1.1150
33751SOL     OW 8492   0.418   6.346   9.700  0.1856 -0.4556  0.1366
33751SOL    HW1 8493   0.375   6.431   9.709  2.8514  0.9852  0.3102
33751SOL    HW2 8494   0.423   6.331   9.605 -1.2248 -0.9786  0.1255
33752SOL     OW 8495  10.518   7.263   6.908  0.2474  0.5865 -0.5733
33752SOL    HW1 8496  10.431   7.224   6.898  0.4040  0.5356 -2.0855
33752SOL    HW2 8497  10.574   7.190   6.933 -0.0713  0.5461  0.0446
33753SOL     OW 8498  11.183  11.701   9.654  0.1727 -0.5983  0.6015
33753SOL    HW1 8499  11.254  11.738   9.602  0.5845  0.7581  2.0766
33753SOL    HW2 8500  11.117  11.677   9.589  0.6844  0.9932 -0.5865
33754SOL     OW 8501   3.838   6.961   9.224  0.4281  0.0139 -0.3216
33754SOL    HW1 8502   3.852   7.055   9.230 -0.1855  0.1094 -0.2428
33754SOL    HW2 8503   3.755   6.946   9.271  0.9509 -0.6825  0.4034
33755SOL     OW 8504   4.137   9.620   2.504  0.6685  0.6067 -0.1073
33755SOL    HW1 8505   4.186   9.687   2.456  1.1220  0.1861 -0.2389
33755SOL    HW2 8506   4.096   9.567   2.435 -1.6760  2.1521 -0.0170
33756SOL     OW 8507   9.568   4.943   8.073  0.4581 -0.3848  0.0611
33756SOL    HW1 8508   9.640   4.894   8.034  0.9281  1.2709 -1.2874
33756SOL    HW2 8509   9.509   4.876   8.107  2.3983 -1.7874  0.8225
33757SOL     OW 8510   3.426   4.625  11.538  0.1004 -0.0791  0.2855
33757SOL    HW1 8511   3.430   4.682  11.615  1.7572  0.5317 -0.2159
33757SOL    HW2 8512   3.368   4.670  11.477  1.7761  1.3970 -0.3060
33758SOL     OW 8513   3.067   2.551   1.199 -0.0544  0.3304 -0.0668
33758SOL    HW1 8514   3.033   2.599   1.273  0.3272 -0.0794  0.3831
33758SOL    HW2 8515   3.148   2.510   1.231 -1.5433 -2.5732  0.3100
33759SOL     OW 8516   0.633   0.245   8.518  0.1457 -0.3898  0.4280
33759SOL    HW1 8517   0.655   0.162   8.561 -1.8144 -1.0101  0.3448
33759SOL    HW2 8518   0.561   0.222   8.458  0.7556  1.0354 -0.9202
33760SOL     OW 8519   7.102   6.363   2.710 -0.0558 -0.1368  0.1715
33760SOL    HW1 8520   7.055   6.445   2.694  0.6048  0.0427 -0.9237
33760SOL    HW2 8521   7.152   6.348   2.630 -0.7674 -2.0313  0.0348
33761SOL     OW 8522  10.824   4.660   7.132 -0.2671 -0.0176 -0.0086
33761SOL    HW1 8523  10.786   4.735   7.087 -3.3568 -0.3343  1.7988
33761SOL    HW2 8524  10.895   4.697   7.184 -1.4396  1.6499  0.4978
33762SOL     OW 8525   7.326   1.895   6.212 -0.1010  0.4748  0.1516
33762SOL    HW1 8526   7.316   1.800   6.215 -0.0466  0.4835  1.3051
33762SOL    HW2 8527   7.390   1.914   6.281  0.5925  1.2678 -0.6964
33763SOL     OW 8528   0.444   0.084   2.217  0.0237 -0.0700  0.0007
33763SOL    HW1 8529   0.442   0.057   2.309  0.6315 -0.2587 -0.0353
33763SOL    HW2 8530   0.472   0.006   2.169 -1.0034 -0.1773 -0.4341
33764SOL     OW 8531   7.833   6.195   0.371 -0.4251 -0.0825 -0.3021
33764SOL    HW1 8532   7.877   6.232   0.447 -1.2130  1.2864 -0.4844
33764SOL    HW2 8533   7.892   6.213   0.298 -0.7191  0.6746 -0.3606
33765SOL     OW 8534   4.439   9.636   7.587  0.1328  0.1515  0.7997
33765SOL    HW1 8535   4.470   9.716   7.628  0.5918 -0.0839  0.9207
33765SOL    HW2 8536   4.345   9.650   7.575  0.1943  0.6664  0.9018
33766SOL     OW 8537   0.175  11.620   5.485 -0.0030  0.5768  0.2316
33766SOL    HW1 8538   0.252  11.618   5.541 -0.7920  0.8356  1.3641
33766SOL    HW2 8539   0.110  11.670   5.534 -0.8138  0.5994 -0.8088
33767SOL     OW 8540   7.542   2.169   1.457  0.1809 -0.3423  0.1596
33767SOL    HW1 8541   7.534   2.235   1.388 -0.6380 -0.2292  0.3563
33767SOL    HW2 8542   7.516   2.214   1.537  1.8474 -0.2645  0.6915
33768SOL     OW 8543   0.547  11.567   2.212 -0.4622  0.7224 -0.0941
33768SOL    HW1 8544   0.626  11.604   2.251  0.5328 -0.0152 -1.3501
33768SOL    HW2 8545   0.504  11.642   2.170 -0.2940  1.0849  0.3742
33769SOL     OW 8546   8.397  11.544   6.608 -0.1155 -0.6043 -0.4047
33769SOL    HW1 8547   8.310  11.545   6.648  0.3628 -0.1305  0.6962
33769SOL    HW2 8548   8.385  11.501   6.524 -1.3697 -0.7467 -0.1744
33770SOL     OW 8549   5.644   1.617  12.619 -0.0367 -0.2300  0.0802
33770SOL    HW1 8550   5.635   1.556  12.692 -2.6381 -0.7936 -0.6236
33770SOL    HW2 8551   5.560   1.662  12.614  1.1219  2.0405 -0.6829
33771SOL     OW 8552   2.013  10.012   2.308  0.4260  0.2752  0.1321
33771SOL    HW1 8553   1.939  10.070   2.291 -0.3077 -0.6021  0.2692
33771SOL    HW2 8554   2.073  10.065   2.361 -0.3896  0.7965  0.5616
33772SOL     OW 8555   7.465   3.484   7.546  0.3110  0.1837 -0.5582
33772SOL    HW1 8556   7.388   3.504   7.600  0.3868 -0.8037 -0.0526
33772SOL    HW2 8557   7.539   3.515   7.598  0.3762 -0.6738 -0.1042
33773SOL     OW 8558   6.047  10.831   5.828 -0.0012 -0.3797  0.3587
33773SOL    HW1 8559   6.094  10.805   5.907  0.3093  1.3739  0.7826
33773SOL    HW2 8560   6.114  10.870   5.772 -0.5178 -0.0492 -0.0433
33774SOL     OW 8561   4.988   2.150   0.300 -0.1077  0.6453 -0.2005
33774SOL    HW1 8562   4.966   2.202   0.377  0.1596  1.9133 -0.9371
33774SOL    HW2 8563   5.083   2.138   0.305 -0.1485  0.3578 -0.1103
33775SOL     OW 8564   9.072   3.960   4.072 -0.1333 -0.4248  0.2591
33775SOL    HW1 8565   9.136   3.969   4.001  0.5410 -3.4879  0.3337
33775SOL    HW2 8566   8.992   3.932   4.029  0.1588 -1.8774  0.6032
33776SOL     OW 8567  12.433   5.479   3.522  0.0383 -0.0123 -0.1388
33776SOL    HW1 8568  12.432   5.529   3.603 -0.7436  1.9589 -1.2990
33776SOL    HW2 8569  12.368   5.521   3.466  0.7341 -1.1306 -1.8984
33777SOL     OW 8570   7.252   7.185   5.777 -0.3283  0.2370 -0.2397
33777SOL    HW1 8571   7.253   7.202   5.682  0.6403 -0.0758 -0.2916
33777SOL    HW2 8572   7.217   7.096   5.784 -0.9281  0.4665 -0.2621
33778SOL     OW 8573   0.466   5.733  10.600  0.8520  0.0848  0.7166
33778SOL    HW1 8574   0.417   5.651  10.591  0.1654  0.5829 -0.4101
33778SOL    HW2 8575   0.536   5.727  10.535  1.0477  0.2238  0.9122
33779SOL     OW 8576   5.836   8.441   1.870 -0.5412 -0.5453  0.4933
33779SOL    HW1 8577   5.745   8.421   1.849 -0.2651 -0.5085 -0.8111
33779SOL    HW2 8578   5.851   8.529   1.836 -0.0862 -0.4560  0.9093
33780SOL     OW 8579   8.173   4.351   3.583 -0.0394 -0.0537 -0.1057
33780SOL    HW1 8580   8.144   4.433   3.543  1.0834 -0.1724 -1.2418
33780SOL    HW2 8581   8.263   4.369   3.611  0.1222 -0.8114 -0.1174
33781SOL     OW 8582   0.904   0.594   3.022 -0.0933  0.2370 -0.3187
33781SOL    HW1 8583   0.911   0.672   3.077 -0.3068  0.5772 -0.7595
33781SOL    HW2 8584   0.836   0.616   2.958 -0.2097 -0.3405 -0.4036
33782SOL     OW 8585   7.059  10.143   4.240 -0.6492 -0.0022  0.4690
33782SOL    HW1 8586   7.041  10.088   4.163 -1.7841 -0.4885  1.0663
33782SOL    HW2 8587   7.154  10.135   4.252 -0.5817 -0.6440 -0.3401
33783SOL     OW 8588   9.303   9.903   3.048 -0.4353 -0.5752  0.3658
33783SOL    HW1 8589   9.373   9.871   3.106  0.8747  0.4446 -0.6027
33783SOL    HW2 8590   9.302   9.840   2.976  1.3911  0.8357 -0.9829
33784SOL     OW 8591   5.150  11.085   6.439  0.0596 -0.1722 -0.0124
33784SOL    HW1 8592   5.184  11.087   6.528 -0.4339 -0.4188  0.1861
33784SOL    HW2 8593   5.102  11.002   6.434 -2.4301  1.1629  0.4386
33785SOL     OW 8594   3.028   9.725   1.330  0.1121 -0.3553 -0.5675
33785SOL    HW1 8595   2.962   9.656   1.338 -0.7363  0.4403 -0.5252
33785SOL    HW2 8596   3.111   9.678   1.320 -0.4271 -1.3750 -0.3776
33786SOL     OW 8597   6.052  11.844  10.016  0.2404 -0.0698 -0.0108
33786SOL    HW1 8598   6.046  11.764  10.069  2.1626  0.5663  1.2981
33786SOL    HW2 8599   6.055  11.813   9.926 -0.6035 -1.3587  0.3705
33787SOL     OW 8600   3.967   5.914  12.476 -0.4734 -0.3858  0.1069
33787SOL    HW1 8601   3.983   6.008  12.482  2.0110 -0.5981 -1.6376
33787SOL    HW2 8602   4.004   5.878  12.557 -0.4700  0.0281  0.2916
33788SOL     OW 8603   8.823   1.572   3.286 -0.4843 -0.3392 -0.2670
33788SOL    HW1 8604   8.775   1.506   3.235  0.6268 -1.1792 -0.2630
33788SOL    HW2 8605   8.842   1.642   3.224 -0.0171 -0.8994 -0.7742
33789SOL     OW 8606   9.666  12.374   5.232  0.4698 -0.3034 -0.3422
33789SOL    HW1 8607   9.615  12.445   5.271 -1.1447 -1.6483  0.0664
33789SOL    HW2 8608   9.722  12.418   5.168  0.8108  1.5394  1.1489
33790SOL     OW 8609   9.385   8.121  11.552  0.1762  0.1596  0.3192
33790SOL    HW1 8610   9.433   8.097  11.631  0.7767 -0.2131 -0.1454
33790SOL    HW2 8611   9.299   8.081  11.563  0.0508  0.6344  1.0596
33791SOL     OW 8612   8.136  11.644   6.393 -0.2157 -0.3119  0.2663
33791SOL    HW1 8613   8.183  11.728   6.393 -1.0676  0.1801  0.3482
33791SOL    HW2 8614   8.140  11.615   6.484 -0.6471  0.0730  0.4148
33792SOL     OW 8615   6.900   8.147   2.395 -0.2978  0.0942 -0.2512
33792SOL    HW1 8616   6.858   8.223   2.354  0.7561  0.3027 -1.0160
33792SOL    HW2 8617   6.859   8.140   2.481 -0.1520  1.7833 -0.0005
33793SOL     OW 8618   1.914   5.770   9.302  0.6438 -0.0212  0.2893
33793SOL    HW1 8619   1.848   5.719   9.348 -0.8465  2.9869  1.7519
33793SOL    HW2 8620   1.991   5.766   9.360  0.3299 -0.0563  0.7085
33794SOL     OW 8621   9.609   7.539   8.961  0.4636  0.4995  0.0724
33794SOL    HW1 8622   9.585   7.472   9.026  0.7271 -0.4695 -0.7998
33794SOL    HW2 8623   9.550   7.522   8.888  0.7440  1.0344 -0.2773
33795SOL     OW 8624  11.065   4.997  10.304  0.1280  0.2050 -0.4895
33795SOL    HW1 8625  11.023   5.074  10.265 -0.3045 -0.1831 -0.8091
33795SOL    HW2 8626  11.084   5.023  10.394 -0.1416  0.6399 -0.5527
33796SOL     OW 8627  12.697  12.155   0.581 -0.3090  0.1643 -0.7168
33796SOL    HW1 8628  12.789  12.132   0.594 -0.0982  2.1968  2.4816
33796SOL    HW2 8629  12.649  12.094   0.637 -0.9432 -0.5724 -2.0027
33797SOL     OW 8630  10.508   7.904   4.663  0.3710  0.0784 -0.5091
33797SOL    HW1 8631  10.509   7.973   4.730 -0.5525 -1.2588  0.9857
33797SOL    HW2 8632  10.590   7.857   4.675 -0.1418 -0.6651  0.3248
33798SOL     OW 8633   9.570   7.464   4.125  0.0743 -0.1699 -0.3687
33798SOL    HW1 8634   9.626   7.532   4.088 -1.2116  1.1799  0.0395
33798SOL    HW2 8635   9.515   7.436   4.052  0.6361 -0.8370 -0.5486
33799SOL     OW 8636   0.503   5.585  11.060 -0.6766  0.1893  0.7149
33799SOL    HW1 8637   0.449   5.652  11.018  1.0939  1.7400  0.7753
33799SOL    HW2 8638   0.533   5.626  11.142  1.3138 -0.2142  0.2376
33800SOL     OW 8639  11.194   6.903  10.104  0.0285  0.0175 -0.0125
33800SOL    HW1 8640  11.127   6.854  10.055  0.5820 -1.1446  0.3610
33800SOL    HW2 8641  11.192   6.864  10.191  0.3501  0.8129  0.3559
33801SOL     OW 8642   1.345   1.016   3.639 -0.2364 -0.2698 -0.1963
33801SOL    HW1 8643   1.422   0.961   3.625  1.1032  0.9635  1.8578
33801SOL    HW2 8644   1.357   1.053   3.726 -2.8357  0.5281 -0.0947
33802SOL     OW 8645   6.712   8.935   5.286 -0.3167 -0.5706  0.3536
33802SOL    HW1 8646   6.709   8.949   5.380 -1.3727 -2.1987  0.6096
33802SOL    HW2 8647   6.683   8.844   5.274  0.3841 -0.6060 -1.4951
33803SOL     OW 8648   8.312  10.801   5.642  0.0564  0.6301  0.0945
33803SOL    HW1 8649   8.252  10.741   5.686  1.2562  0.2706  1.3235
33803SOL    HW2 8650   8.379  10.821   5.708  0.6349  1.9619 -0.8381
33804SOL     OW 8651   8.310  10.839   8.509  0.3592 -0.4298  0.1222
33804SOL    HW1 8652   8.332  10.753   8.543  3.8748 -0.2820 -1.3629
33804SOL    HW2 8653   8.332  10.899   8.579  2.1591 -0.5165 -0.3148
33805SOL     OW 8654   7.800   8.900   9.621 -0.0756  0.0663  0.2319
33805SOL    HW1 8655   7.856   8.970   9.656 -0.3044  0.0490  0.6354
33805SOL    HW2 8656   7.861   8.831   9.597 -0.0418 -0.9783  2.9634
33806SOL     OW 8657   9.741   1.066   7.365 -0.0247  0.5045 -0.7040
33806SOL    HW1 8658   9.779   0.997   7.311  0.7886  2.2072 -2.4292
33806SOL    HW2 8659   9.676   1.107   7.308 -0.2344  1.3860  0.1596
33807SOL     OW 8660   9.398  11.645  10.838  0.6105 -0.3901 -0.2778
33807SOL    HW1 8661   9.308  11.678  10.847  0.1449 -1.0377 -2.1467
33807SOL    HW2 8662   9.419  11.656  10.746  2.1254 -1.1138 -0.0561
33808SOL     OW 8663   7.195   1.495   8.780  0.5265 -0.5188 -0.3543
33808SOL    HW1 8664   7.233   1.417   8.822 -1.5277 -1.2121  0.2998
33808SOL    HW2 8665   7.126   1.523   8.839  1.6029  2.2223 -0.2672
33809SOL     OW 8666   9.107   2.448   0.482  0.1166 -0.1709 -0.3645
33809SOL    HW1 8667   9.132   2.404   0.401  1.9622 -0.1597  0.1658
33809SOL    HW2 8668   9.033   2.503   0.457 -1.4579 -2.5615 -1.3171
33810SOL     OW 8669  10.481  12.149   2.895 -0.9183 -0.0626 -0.3378
33810SOL    HW1 8670  10.529  12.109   2.822  0.5330  2.3872 -0.8620
33810SOL    HW2 8671  10.537  12.134   2.971 -0.3627  0.8724 -0.5383
33811SOL     OW 8672   7.192  10.786   2.128  0.0565  0.2196 -0.2713
33811SOL    HW1 8673   7.169  10.848   2.198 -0.6745  1.0403 -1.1987
33811SOL    HW2 8674   7.277  10.817   2.097 -0.7657  1.4491 -1.4225
33812SOL     OW 8675   9.485   4.123   5.991  0.1541 -0.5292 -0.0039
33812SOL    HW1 8676   9.576   4.151   5.984  0.4989 -1.4119  0.8555
33812SOL    HW2 8677   9.486   4.031   5.967 -0.5026 -0.5600  0.0738
33813SOL     OW 8678   6.830   7.649   2.192 -0.1818 -0.5556  0.4516
33813SOL    HW1 8679   6.828   7.556   2.217  0.2108 -0.5038  0.6914
33813SOL    HW2 8680   6.770   7.692   2.253  0.1149 -0.5600  0.7497
33814SOL     OW 8681   0.503  12.534   2.981 -0.2715 -0.0382 -0.0962
33814SOL    HW1 8682   0.588  12.493   2.967 -0.9384 -1.2429 -0.6957
33814SOL    HW2 8683   0.445  12.463   3.006 -0.8493  0.9513  1.5014
33815SOL     OW 8684  10.924   9.619  10.802  0.1080 -0.0376  0.5903
33815SOL    HW1 8685  10.887   9.539  10.767 -1.4453  1.5630 -1.6664
33815SOL    HW2 8686  10.894   9.621  10.893  0.1201 -1.9312  0.6762
33816SOL     OW 8687  12.523   9.516   5.637 -0.0123  0.2623  0.1533
33816SOL    HW1 8688  12.447   9.457   5.646  0.3238 -0.7319 -2.4679
33816SOL    HW2 8689  12.597   9.463   5.665 -0.1344  0.8529  1.6413
33817SOL     OW 8690   5.826  10.200   1.883  0.2828  0.4567 -0.0479
33817SOL    HW1 8691   5.877  10.175   1.805  1.5427  0.4132  0.7546
33817SOL    HW2 8692   5.735  10.185   1.858  0.7219 -0.5130 -1.1716
33818SOL     OW 8693  11.128   5.880   1.970 -0.1185 -0.2052  0.1135
33818SOL    HW1 8694  11.117   5.973   1.990  1.7828 -0.1090  0.9144
33818SOL    HW2 8695  11.206   5.876   1.915 -1.7978 -1.0989 -2.4204
33819SOL     OW 8696  11.474  11.153   2.612 -0.6374  0.2493 -0.0125
33819SOL    HW1 8697  11.526  11.226   2.576  1.8088 -1.2621  0.1891
33819SOL    HW2 8698  11.434  11.189   2.691  1.5233  1.0942  0.7696
33820SOL     OW 8699   0.719   6.193  11.565 -0.8818  0.2048 -0.5434
33820SOL    HW1 8700   0.772   6.229  11.494 -1.0695  0.9899 -0.2997
33820SOL    HW2 8701   0.729   6.098  11.558 -0.5758  0.2972 -1.3611
33821SOL     OW 8702  10.646   8.376   1.004 -0.5683  0.1929 -0.4403
33821SOL    HW1 8703  10.641   8.374   0.908 -1.0269 -2.0024 -0.4254
33821SOL    HW2 8704  10.684   8.291   1.028 -2.0141  0.0008  1.3878
33822SOL     OW 8705   0.374   2.924   1.279 -0.9690  0.0335 -0.1376
33822SOL    HW1 8706   0.415   2.888   1.358 -2.4637 -0.0455  0.6596
33822SOL    HW2 8707   0.443   2.973   1.235 -0.2415  0.6243  1.5793
33823SOL     OW 8708   8.504   5.402   2.795 -0.1433  0.0744 -0.1927
33823SOL    HW1 8709   8.570   5.343   2.832  0.0126 -0.1029 -0.7362
33823SOL    HW2 8710   8.456   5.348   2.732  1.4262  1.0175 -2.3603
33824SOL     OW 8711   2.737   4.597   9.746 -0.1277  0.1871  0.2688
33824SOL    HW1 8712   2.769   4.664   9.806 -1.3637 -0.3535  1.5660
33824SOL    HW2 8713   2.657   4.634   9.709  0.4398  0.3731 -0.8324
33825SOL     OW 8714   5.941  10.598   9.237 -0.3087 -0.3112 -0.4573
33825SOL    HW1 8715   5.995  10.647   9.175 -0.5271 -0.2460 -0.5939
33825SOL    HW2 8716   5.883  10.545   9.182 -0.4388 -0.3222 -0.3090
33826SOL     OW 8717  11.109  11.559   2.504 -0.4309  0.5461 -0.7467
33826SOL    HW1 8718  11.156  11.612   2.440  0.7357  1.0553  0.4751
33826SOL    HW2 8719  11.140  11.470   2.488  0.8119  0.8402 -0.1249
33827SOL     OW 8720   4.705   3.841  11.534 -0.2587  0.2541 -0.4446
33827SOL    HW1 8721   4.658   3.787  11.598 -0.1770  0.0415 -0.5643
33827SOL    HW2 8722   4.658   3.826  11.452 -0.3263  0.4800 -0.4487
33828SOL     OW 8723  10.207   0.611  11.649  0.3088 -0.6404  0.0205
33828SOL    HW1 8724  10.191   0.607  11.743  0.3258  1.1953  0.1472
33828SOL    HW2 8725  10.219   0.520  11.622 -2.8301 -1.5708  1.2337
33829SOL     OW 8726   6.347   4.333   9.782  0.0586  0.2438 -0.0048
33829SOL    HW1 8727   6.404   4.257   9.795 -1.2512 -0.7124  0.2862
33829SOL    HW2 8728   6.302   4.315   9.700 -0.8836  0.2852  0.4934
33830SOL     OW 8729   7.498   9.100   5.290  0.5501 -0.4373  0.1044
33830SOL    HW1 8730   7.469   9.095   5.199  0.9427  2.4354 -0.2714
33830SOL    HW2 8731   7.592   9.082   5.287  0.4868 -0.7648  0.0265
33831SOL     OW 8732   5.076  11.783  11.254  0.1232  0.4727 -0.1117
33831SOL    HW1 8733   5.059  11.824  11.168 -1.9045  1.4610  0.6857
33831SOL    HW2 8734   5.127  11.848  11.302  0.6975  0.1881 -0.3234
33832SOL     OW 8735   5.956  12.630  11.099 -0.2958 -0.2594 -0.7038
33832SOL    HW1 8736   5.934  12.537  11.108 -1.2561  0.1410  1.9878
33832SOL    HW2 8737   6.045  12.638  11.134 -0.4160 -0.0913 -0.4331
33833SOL     OW 8738   3.630   5.535   4.658  0.5596 -0.5085 -0.0362
33833SOL    HW1 8739   3.586   5.609   4.617 -0.1329 -1.1920 -0.5597
33833SOL    HW2 8740   3.574   5.460   4.639  0.8234 -1.0370  1.1831
33834SOL     OW 8741   8.217   7.213   1.759 -0.7758  0.0751 -0.1295
33834SOL    HW1 8742   8.275   7.283   1.790  0.5007 -0.6098 -0.8814
33834SOL    HW2 8743   8.181   7.175   1.839  0.5764 -0.1105  0.4142
33835SOL     OW 8744  10.939   9.764   6.242  0.2172  0.2563 -0.3696
33835SOL    HW1 8745  10.962   9.809   6.161 -1.2374 -1.6537 -1.9609
33835SOL    HW2 8746  10.975   9.676   6.232 -2.3256 -0.8889 -0.2657
33836SOL     OW 8747   4.209  10.588   6.749  0.1449 -0.1224  0.2802
33836SOL    HW1 8748   4.140  10.538   6.793 -1.5496  0.5435 -1.4898
33836SOL    HW2 8749   4.269  10.612   6.820 -0.2679 -2.5085  1.5782
33837SOL     OW 8750   9.245   9.563   5.543 -0.5196 -0.0155  0.6698
33837SOL    HW1 8751   9.234   9.647   5.497 -2.0402 -1.2268 -1.3864
33837SOL    HW2 8752   9.304   9.513   5.486 -0.6326 -0.7667  1.2049
33838SOL     OW 8753   5.775  12.326   1.481 -0.1051 -0.2576 -0.5821
33838SOL    HW1 8754   5.801  12.236   1.502 -1.4810 -0.0192  2.7949
33838SOL    HW2 8755   5.726  12.318   1.399 -1.6169 -2.8998  0.4512
33839SOL     OW 8756   8.689   4.596   6.862 -0.5227  0.6551  0.4431
33839SOL    HW1 8757   8.691   4.684   6.825 -1.8058  0.5882  0.1935
33839SOL    HW2 8758   8.769   4.592   6.916  0.2485  1.4865 -0.5883
33840SOL     OW 8759   6.649   6.986   9.524 -0.5059 -0.1396  0.2003
33840SOL    HW1 8760   6.660   7.059   9.585  1.8296  0.2500 -0.5719
33840SOL    HW2 8761   6.726   6.990   9.467 -1.6313 -1.6393 -1.5666
33841SOL     OW 8762   5.978  10.978   9.883  0.3137  0.3338 -0.2569
33841SOL    HW1 8763   5.961  11.069   9.858  0.8952  0.8133  1.0478
33841SOL    HW2 8764   6.073  10.968   9.877  0.5956  0.7166  2.4191
33842SOL     OW 8765  11.939   2.686   9.244  0.6585 -0.2286 -0.2530
33842SOL    HW1 8766  11.984   2.770   9.256  0.3665 -0.2042  0.6638
33842SOL    HW2 8767  11.881   2.701   9.170  1.2828  0.0957 -0.6923
33843SOL     OW 8768   7.589   8.644   5.053  0.2731 -0.1422  0.4968
33843SOL    HW1 8769   7.647   8.669   5.125  0.3751  0.0632  0.3439
33843SOL    HW2 8770   7.646   8.598   4.992  0.2895  0.1210  0.3137
33844SOL     OW 8771  11.446   2.399   4.251 -0.2016 -1.4027 -0.1057
33844SOL    HW1 8772  11.489   2.314   4.260 -2.5308 -2.6181  0.3960
33844SOL    HW2 8773  11.386   2.404   4.325  1.0131  1.4891  0.8568
33845SOL     OW 8774   1.297   1.841   8.022 -0.0118  0.1136 -0.6037
33845SOL    HW1 8775   1.331   1.809   8.106  0.6215  1.2000 -0.4259
33845SOL    HW2 8776   1.211   1.801   8.014  0.3828 -0.9031  0.0239
33846SOL     OW 8777   7.165   7.353   0.761 -0.4813 -0.4070  1.0628
33846SOL    HW1 8778   7.220   7.287   0.719 -2.3804 -1.4571  0.0540
33846SOL    HW2 8779   7.135   7.408   0.688 -1.3609 -0.3528  1.4489
33847SOL     OW 8780  11.434   3.580   9.855 -0.2926 -0.6876  0.0890
33847SOL    HW1 8781  11.525   3.584   9.824 -0.6411  0.3392 -0.8426
33847SOL    HW2 8782  11.387   3.537   9.784 -0.4057 -2.0497  0.9494
33848SOL     OW 8783  11.275   6.874   1.652 -0.3681  0.4038  0.0454
33848SOL    HW1 8784  11.294   6.800   1.709 -0.9293  0.4921  0.3537
33848SOL    HW2 8785  11.310   6.950   1.699  0.2638  0.3354 -0.2998
33849SOL     OW 8786   9.811   1.145   9.603  0.3547 -0.4768 -0.5545
33849SOL    HW1 8787   9.902   1.148   9.632 -0.5939  0.4051  2.7686
33849SOL    HW2 8788   9.803   1.062   9.556  2.5742 -1.1846  0.2315
33850SOL     OW 8789   7.649   2.131   2.542  0.0561 -0.3155  0.5989
33850SOL    HW1 8790   7.706   2.116   2.466 -0.6407 -1.2162  0.2307
33850SOL    HW2 8791   7.563   2.103   2.512  0.1772 -3.1349  2.4898
33851SOL     OW 8792   9.153   1.803   1.456 -0.2137  0.4507 -0.0459
33851SOL    HW1 8793   9.161   1.714   1.491 -0.2568  0.8407  0.9867
33851SOL    HW2 8794   9.067   1.805   1.414 -0.3584  0.0980  0.2262
33852SOL     OW 8795   7.860  11.865   5.721  0.7256 -0.4284 -0.1777
33852SOL    HW1 8796   7.853  11.906   5.635  0.1244  2.0183  0.9435
33852SOL    HW2 8797   7.946  11.892   5.753 -0.2387  1.3285  1.1523
33853SOL     OW 8798   9.999   1.844   5.984  0.4688 -0.7724 -0.4409
33853SOL    HW1 8799   9.992   1.761   6.031 -1.2708 -1.2539 -1.4850
33853SOL    HW2 8800   9.934   1.838   5.914  0.9991  1.0813 -1.1518
33854SOL     OW 8801   6.858   3.545   9.845 -0.5937  0.1102  0.0797
33854SOL    HW1 8802   6.861   3.549   9.940  1.0454 -0.4622  0.0684
33854SOL    HW2 8803   6.848   3.452   9.824 -1.8978  0.3123 -0.3184
33855SOL     OW 8804   6.804   4.484   6.719  0.3450  0.2925  0.7884
33855SOL    HW1 8805   6.839   4.493   6.630 -0.6874 -0.6811  0.2560
33855SOL    HW2 8806   6.847   4.405   6.753  1.0032  0.8593  1.3008
33856SOL     OW 8807   9.769   8.398   9.202 -0.1072  0.3563  0.3920
33856SOL    HW1 8808   9.794   8.306   9.213 -0.4687  0.5008  2.9266
33856SOL    HW2 8809   9.700   8.397   9.135 -3.3483 -1.8743  3.4493
33857SOL     OW 8810   9.154  10.781   6.134 -0.0149 -0.6454  0.2219
33857SOL    HW1 8811   9.103  10.720   6.081  0.0859  0.4215 -1.1543
33857SOL    HW2 8812   9.238  10.738   6.145 -0.5899 -1.6247  0.9845
33858SOL     OW 8813   4.072  11.970   4.828  0.2736 -0.0020 -0.2073
33858SOL    HW1 8814   3.987  11.973   4.785  0.5782 -0.7788 -0.8991
33858SOL    HW2 8815   4.112  11.889   4.796  0.9482 -0.0578  0.7243
33859SOL     OW 8816   0.713   9.405   0.996  0.0195  0.0831  0.4430
33859SOL    HW1 8817   0.762   9.418   0.915 -0.3166  0.4706  0.3018
33859SOL    HW2 8818   0.710   9.491   1.037 -0.1942 -0.0249  0.6556
33860SOL     OW 8819  10.716  10.186   0.722  0.6020  0.3844  0.7932
33860SOL    HW1 8820  10.621  10.185   0.708  0.7800 -0.2304 -0.4578
33860SOL    HW2 8821  10.746  10.265   0.676  0.8592 -0.1768 -0.0172
33861SOL     OW 8822   0.679   5.002   5.025 -0.4244  0.1627 -0.3170
33861SOL    HW1 8823   0.751   4.950   4.989 -0.8496 -0.6730  0.0036
33861SOL    HW2 8824   0.602   4.971   4.979 -0.7887 -0.0026  0.3929
33862SOL     OW 8825  11.274  10.819   1.821 -0.1475 -0.3404 -0.4703
33862SOL    HW1 8826  11.299  10.857   1.737 -1.3768  0.0550 -0.6730
33862SOL    HW2 8827  11.183  10.844   1.833  0.4230  0.9685  1.7473
33863SOL     OW 8828   9.171   0.522   4.329  0.4853 -0.2783 -0.2674
33863SOL    HW1 8829   9.194   0.456   4.264  1.0913 -0.1103 -0.2299
33863SOL    HW2 8830   9.131   0.593   4.279  0.2771 -0.4682 -0.3680
33864SOL     OW 8831   6.463   9.162   5.573  0.9777  0.2030 -0.6089
33864SOL    HW1 8832   6.486   9.111   5.652 -1.3639  0.7168  0.4893
33864SOL    HW2 8833   6.397   9.108   5.530  0.2942  1.1648 -0.7691
33865SOL     OW 8834   8.818   0.073   9.596 -0.3262 -0.0184 -0.0604
33865SOL    HW1 8835   8.867   0.005   9.642 -2.3325 -1.3064  0.2845
33865SOL    HW2 8836   8.876   0.149   9.599  1.4040 -1.2751  0.7958
33866SOL     OW 8837   2.583  11.923   8.371  0.8997  0.4377 -0.2047
33866SOL    HW1 8838   2.650  11.883   8.316  1.8371 -1.8131  2.3222
33866SOL    HW2 8839   2.622  11.925   8.459 -1.3482  1.6078  0.8651
33867SOL     OW 8840   4.359   9.348   9.812  0.0805  0.6428  0.2165
33867SOL    HW1 8841   4.359   9.422   9.873  0.2411  0.6112  0.2554
33867SOL    HW2 8842   4.445   9.308   9.823 -0.2051  0.1220  0.5953
33868SOL     OW 8843   0.606   2.413   7.587 -0.4177  0.0231 -0.9241
33868SOL    HW1 8844   0.572   2.430   7.499 -2.6160  1.4917  0.0979
33868SOL    HW2 8845   0.533   2.369   7.632 -0.5517  1.9812  0.9663
33869SOL     OW 8846   3.437   6.279   0.094 -0.1992  0.1210 -0.3593
33869SOL    HW1 8847   3.385   6.201   0.114 -0.6878  0.3217 -0.8202
33869SOL    HW2 8848   3.419   6.298   0.002 -0.1710  0.8438 -0.2274
33870SOL     OW 8849   1.824  11.588   7.239 -0.1170  0.0829  0.1069
33870SOL    HW1 8850   1.802  11.639   7.161 -1.2683  0.6216  0.7649
33870SOL    HW2 8851   1.740  11.571   7.282  0.4513 -0.6155  0.9834
33871SOL     OW 8852   8.183   9.691   3.036  0.2588 -0.7554  0.4213
33871SOL    HW1 8853   8.146   9.761   2.981 -1.2245 -0.9596  1.1198
33871SOL    HW2 8854   8.277   9.694   3.017 -0.1644 -0.8188 -2.1315
33872SOL     OW 8855   4.799   4.719   3.004 -0.1090  0.4179  0.2214
33872SOL    HW1 8856   4.746   4.797   2.986  0.1155  1.2542  2.7246
33872SOL    HW2 8857   4.739   4.646   2.995 -0.6037  0.9486 -1.0757
33873SOL     OW 8858   7.783   3.830   6.094 -0.2651 -0.5096  0.3145
33873SOL    HW1 8859   7.831   3.824   6.011 -0.5264 -1.0254  0.1995
33873SOL    HW2 8860   7.708   3.771   6.083  0.2930 -1.4221  1.3345
33874SOL     OW 8861   8.756   5.792  11.496  0.2886  0.0767 -0.0558
33874SOL    HW1 8862   8.701   5.717  11.471  1.1900 -0.5450 -0.2134
33874SOL    HW2 8863   8.805   5.762  11.572  1.2165  0.2331 -0.5749
33875SOL     OW 8864   7.150   8.468   4.191 -0.5752  0.1675  0.0839
33875SOL    HW1 8865   7.130   8.381   4.158 -0.8565  0.4333 -0.4631
33875SOL    HW2 8866   7.245   8.475   4.186 -0.6366  0.3531 -1.0863
33876SOL     OW 8867  10.584   7.136  11.240 -0.2408  0.1080 -0.2811
33876SOL    HW1 8868  10.543   7.060  11.200  1.0398 -0.7504 -0.0199
33876SOL    HW2 8869  10.636   7.176  11.170  0.3926 -0.2223 -0.0071
33877SOL     OW 8870   4.482  11.538   7.214 -0.1392  0.1281 -0.4632
33877SOL    HW1 8871   4.481  11.552   7.119 -0.4769  0.2973 -0.4347
33877SOL    HW2 8872   4.394  11.505   7.234 -0.1548  0.3501 -0.1701
33878SOL     OW 8873   5.788   6.782  10.551  0.4629 -0.6556 -0.0089
33878SOL    HW1 8874   5.842   6.786  10.629  0.2449 -1.0670  0.1652
33878SOL    HW2 8875   5.701   6.810  10.580  0.0218 -2.1924  0.2321
33879SOL     OW 8876   4.002  12.009   2.397 -0.7629 -0.1708 -0.1922
33879SOL    HW1 8877   4.073  12.040   2.340 -0.4021 -0.8359 -0.1139
33879SOL    HW2 8878   4.030  12.035   2.485 -0.0579 -1.4127 -0.0294
33880SOL     OW 8879   3.278   2.695   2.291  0.1160  0.5884  0.1669
33880SOL    HW1 8880   3.344   2.629   2.273 -1.1986 -0.4114 -1.2454
33880SOL    HW2 8881   3.327   2.777   2.297  1.3629  0.1048 -2.2857
33881SOL     OW 8882   0.113   2.152   6.693 -0.0129 -1.0497 -0.8517
33881SOL    HW1 8883   0.185   2.166   6.755 -1.3769  1.3690  0.3280
33881SOL    HW2 8884   0.043   2.114   6.746 -0.8613  0.1295 -1.0908
33882SOL     OW 8885   6.518  10.400   0.809 -0.3057 -0.7642 -0.2782
33882SOL    HW1 8886   6.480  10.395   0.897  1.4368  1.1948  0.6560
33882SOL    HW2 8887   6.496  10.488   0.778  1.9583 -0.1757 -0.3690
33883SOL     OW 8888   5.813   0.890   6.876  0.1749  0.6497 -0.2526
33883SOL    HW1 8889   5.720   0.877   6.855  0.2787  1.3928 -1.2661
33883SOL    HW2 8890   5.859   0.860   6.798  0.8956 -0.8946  0.7113
33884SOL     OW 8891  10.275   1.785   1.565 -0.1358  0.4187  0.5901
33884SOL    HW1 8892  10.196   1.794   1.619  0.8248  1.0722  1.9369
33884SOL    HW2 8893  10.329   1.860   1.588  0.5659  0.4199 -0.9012
33885SOL     OW 8894   4.388  12.162  11.302 -0.1489  0.1353  0.0418
33885SOL    HW1 8895   4.405  12.115  11.383 -0.5797  1.5157  0.9673
33885SOL    HW2 8896   4.473  12.201  11.278 -0.1972  0.3906  0.2785
33886SOL     OW 8897   5.402   0.985   5.402 -0.0932 -0.1675 -0.0204
33886SOL    HW1 8898   5.428   0.976   5.310  0.3927  0.6870  0.0211
33886SOL    HW2 8899   5.475   0.947   5.452  0.3397  0.7064  0.0425
33887SOL     OW 8900   8.330   6.477   5.698  0.5770  0.4064 -0.3141
33887SOL    HW1 8901   8.364   6.457   5.610  0.2559 -1.2046 -0.0869
33887SOL    HW2 8902   8.369   6.411   5.755 -0.2621  0.6253  0.5389
33888SOL     OW 8903   8.363   9.599   5.475 -0.2399  0.8476  0.1341
33888SOL    HW1 8904   8.409   9.525   5.434 -0.3410  1.0493 -0.3459
33888SOL    HW2 8905   8.392   9.675   5.425 -0.9621  1.0003 -0.0516
33889SOL     OW 8906   0.925  10.395   7.761  0.6553  0.3691  0.3093
33889SOL    HW1 8907   0.989  10.441   7.814 -1.4462  2.7684  0.9494
33889SOL    HW2 8908   0.872  10.464   7.720 -0.3212 -1.4563 -1.7456
33890SOL     OW 8909  11.952   6.295   7.118  0.0518  0.8762  0.2452
33890SOL    HW1 8910  11.877   6.263   7.069 -0.1963  0.7028  0.7294
33890SOL    HW2 8911  11.961   6.387   7.092  0.6568  0.4897 -1.0116
33891SOL     OW 8912   6.378  11.074   6.528 -0.1643 -0.2617  0.1181
33891SOL    HW1 8913   6.419  11.025   6.457  1.7423 -1.9628  2.2516
33891SOL    HW2 8914   6.346  11.154   6.486  0.3265 -1.4226 -2.7295
33892SOL     OW 8915   9.703  11.326   6.737  0.3771  0.2057 -0.1581
33892SOL    HW1 8916   9.623  11.375   6.756 -0.2419 -0.8714  0.1308
33892SOL    HW2 8917   9.673  11.235   6.728  1.6558 -0.3077  0.5802
33893SOL     OW 8918   2.590   0.361   9.813  0.2384  0.2231  0.2434
33893SOL    HW1 8919   2.593   0.452   9.843 -0.8695  0.5865 -0.6849
33893SOL    HW2 8920   2.499   0.347   9.787  0.2270 -1.3791  1.0313
33894SOL     OW 8921   5.870   4.675  10.666 -0.1094  0.2312 -0.4954
33894SOL    HW1 8922   5.873   4.749  10.727  0.8983 -0.6530  0.5585
33894SOL    HW2 8923   5.778   4.647  10.666 -0.1769  0.4423  0.3535
33895SOL     OW 8924   7.702   2.628  10.257  0.1052 -0.2520 -0.6143
33895SOL    HW1 8925   7.716   2.719  10.230  1.3004 -0.3128 -0.2681
33895SOL    HW2 8926   7.735   2.625  10.347  0.9943 -1.2399 -0.9548
33896SOL     OW 8927   8.371  10.381   0.334  0.0893  0.3307  0.1196
33896SOL    HW1 8928   8.365  10.468   0.374  2.5773  0.6323 -0.0374
33896SOL    HW2 8929   8.388  10.322   0.407 -0.2804  0.1529  0.0661
33897SOL     OW 8930   2.434   7.978  11.421 -0.0920  0.2853 -0.0447
33897SOL    HW1 8931   2.432   7.910  11.354  0.3407 -1.0599  1.2533
33897SOL    HW2 8932   2.342   7.992  11.445 -0.1191 -0.9165  0.6736
33898SOL     OW 8933  11.451   5.793   5.754 -0.1329  0.1706 -0.0141
33898SOL    HW1 8934  11.516   5.765   5.689 -0.2126 -1.1218  0.4460
33898SOL    HW2 8935  11.369   5.801   5.705  0.0037  0.1272 -0.2512
33899SOL     OW 8936   8.949   6.590   8.271  0.4223  0.4577 -0.4315
33899SOL    HW1 8937   9.007   6.666   8.260 -0.6478  1.1737 -1.2789
33899SOL    HW2 8938   8.959   6.567   8.364  1.5729  0.9541 -0.4033
33900SOL     OW 8939   1.456   5.907   5.837  0.4720  0.2737 -0.2813
33900SOL    HW1 8940   1.428   5.893   5.747 -0.4569 -0.8850  0.1718
33900SOL    HW2 8941   1.376   5.904   5.888  1.2349 -1.6900  0.8841
33901SOL     OW 8942   0.811  10.809   2.557 -0.3666 -0.3857  0.0834
33901SOL    HW1 8943   0.820  10.714   2.554  1.1138 -0.2817  0.7490
33901SOL    HW2 8944   0.898  10.842   2.579 -0.7430  1.1588 -0.5738
33902SOL     OW 8945   8.793   2.863   9.963 -0.2227  0.3651  0.0751
33902SOL    HW1 8946   8.839   2.916   9.899 -0.0499 -0.4854 -0.5316
33902SOL    HW2 8947   8.841   2.876  10.045  0.9470 -0.2832 -0.4812
33903SOL     OW 8948   2.313   3.126   3.894 -0.3216  0.0105 -0.0304
33903SOL    HW1 8949   2.406   3.146   3.903 -0.4509  0.7302 -0.2421
33903SOL    HW2 8950   2.302   3.043   3.941  0.7757 -1.0577 -1.5731
33904SOL     OW 8951   3.936   9.511   4.207  0.6280  0.6868  0.1970
33904SOL    HW1 8952   4.022   9.532   4.169  0.4438  0.3581 -0.4073
33904SOL    HW2 8953   3.904   9.594   4.241 -0.4371  1.6326 -2.8304
33905SOL     OW 8954   0.344   3.196   3.196 -0.0837  0.0174  0.0532
33905SOL    HW1 8955   0.335   3.278   3.245 -0.0358  0.5397 -0.8050
33905SOL    HW2 8956   0.294   3.210   3.116  1.0455 -0.2747 -0.7277
33906SOL     OW 8957   7.088   1.983   1.030 -0.9266  0.5499  0.3264
33906SOL    HW1 8958   7.020   2.050   1.040 -0.6782  1.0930 -1.3226
33906SOL    HW2 8959   7.143   2.015   0.959  0.3349 -0.4940  0.7852
33907SOL     OW 8960   1.874   7.301  10.875  0.9573  0.1827  0.0508
33907SOL    HW1 8961   1.901   7.233  10.938 -0.3396  0.7271  1.2528
33907SOL    HW2 8962   1.849   7.252  10.796 -0.1938 -0.8103  0.9828
33908SOL     OW 8963   6.853   8.935  12.516 -0.7952 -0.1962 -0.6123
33908SOL    HW1 8964   6.938   8.892  12.521  0.4931  2.3294  0.7078
33908SOL    HW2 8965   6.800   8.877  12.461  1.6758 -1.9686 -1.2636
33909SOL     OW 8966   6.161   9.789   7.990 -0.1636  0.7380  0.9534
33909SOL    HW1 8967   6.213   9.768   8.067  0.4003 -0.2177  0.3298
33909SOL    HW2 8968   6.087   9.729   7.993  0.6551 -0.3675 -0.0278
33910SOL     OW 8969   9.166   6.054   2.377 -0.0864  0.6830  0.4322
33910SOL    HW1 8970   9.131   5.985   2.433  0.4493 -0.1019 -0.1741
33910SOL    HW2 8971   9.260   6.034   2.369 -0.5346 -0.7540 -2.7681
33911SOL     OW 8972   1.988   8.283   1.641  0.3951 -0.1000 -0.2141
33911SOL    HW1 8973   2.032   8.198   1.645  0.7084  0.0930  2.5421
33911SOL    HW2 8974   1.903   8.264   1.602  0.6658 -1.5904 -0.1394
33912SOL     OW 8975   6.955  11.392   4.735  0.4792 -0.4048  0.5250
33912SOL    HW1 8976   6.978  11.402   4.827 -1.6259 -1.3736  1.2393
33912SOL    HW2 8977   6.886  11.457   4.720  0.5859 -0.4583 -0.2744
33913SOL     OW 8978   7.738   4.558   2.839  0.6292 -0.4072 -0.5993
33913SOL    HW1 8979   7.662   4.597   2.881  1.7280  0.4695  0.6698
33913SOL    HW2 8980   7.746   4.472   2.880  1.6060  0.3824  0.9948
33914SOL     OW 8981   7.697   8.450   3.915 -0.6085 -0.4406  0.1919
33914SOL    HW1 8982   7.743   8.490   3.841 -1.1363  0.4877  0.3489
33914SOL    HW2 8983   7.752   8.377   3.941 -0.9100 -1.4519 -1.7987
33915SOL     OW 8984  12.594  11.765   8.085  0.0278  0.0739 -0.0221
33915SOL    HW1 8985  12.523  11.733   8.029  0.1699  1.2041 -0.9043
33915SOL    HW2 8986  12.565  11.748   8.174 -1.9739  1.6524 -0.2991
33916SOL     OW 8987   4.868   4.041  10.946  0.7133  0.1728 -0.7047
33916SOL    HW1 8988   4.902   4.096  11.017  0.6963 -1.0719  0.3065
33916SOL    HW2 8989   4.944   3.992  10.914  0.7103  0.6865 -1.5313
33917SOL     OW 8990   2.592  11.039   9.811  0.0491 -0.0647  0.3464
33917SOL    HW1 8991   2.658  11.065   9.875  1.3415  0.1333 -1.0158
33917SOL    HW2 8992   2.532  11.113   9.806  1.5330  1.1281 -0.7008
33918SOL     OW 8993   5.849   0.802  11.736  0.3481 -0.2357 -0.0730
33918SOL    HW1 8994   5.821   0.757  11.815  1.6409 -0.4437  0.2875
33918SOL    HW2 8995   5.840   0.737  11.666 -1.5000  0.1678 -0.2714
33919SOL     OW 8996   5.022   1.005   8.738 -0.3154  0.6837  0.3298
33919SOL    HW1 8997   5.103   1.052   8.756  2.1277 -1.7812 -2.9500
33919SOL    HW2 8998   4.975   1.059   8.675 -0.0800  1.0463  0.4642
33920SOL     OW 8999   7.672   3.211   6.941 -0.1818  0.2020 -0.3868
33920SOL    HW1 9000   7.732   3.136   6.935 -0.9442 -0.7612  2.4888
33920SOL    HW2 9001   7.608   3.185   7.008 -1.0906  3.0121 -0.0541
33921SOL     OW 9002   0.100  12.158   1.019 -0.2429  0.0406  0.4602
33921SOL    HW1 9003   0.072  12.068   1.035 -3.1457  0.2409 -2.5282
33921SOL    HW2 9004   0.196  12.154   1.024 -0.1866 -3.4936 -0.7212
33922SOL     OW 9005   9.868   1.900  12.044 -0.0240  0.2579  0.4530
33922SOL    HW1 9006   9.803   1.871  12.109  1.1613 -0.9167  1.1616
33922SOL    HW2 9007   9.923   1.963  12.090  1.9794 -1.9453  1.2670
33923SOL     OW 9008  12.558  10.841   4.282 -0.1315 -0.4164  0.5138
33923SOL    HW1 9009  12.566  10.917   4.339 -1.2401  0.5656 -0.5760
33923SOL    HW2 9010  12.485  10.791   4.320 -0.7085  0.1090  0.1160
33924SOL     OW 9011  12.491   2.928   6.752 -0.0907 -0.3357 -0.7392
33924SOL    HW1 9012  12.519   2.894   6.836  0.4832  1.2978 -0.2311
33924SOL    HW2 9013  12.400   2.898   6.743  0.3055 -1.7590 -0.2471
33925SOL     OW 9014  10.008   7.084   0.445  0.4591 -0.4248 -0.0972
33925SOL    HW1 9015  10.068   7.020   0.408  0.7153 -1.6156  2.1934
33925SOL    HW2 9016   9.933   7.033   0.475 -0.2439  0.6268  0.0208
33926SOL     OW 9017  11.383   5.082   3.731  0.4242  0.2602  0.2628
33926SOL    HW1 9018  11.410   5.146   3.665 -0.8720 -1.1029 -1.7086
33926SOL    HW2 9019  11.450   5.013   3.725  0.0309 -0.1043 -0.0284
33927SOL     OW 9020   3.480   6.309   7.734  0.1191 -0.0638  0.1529
33927SOL    HW1 9021   3.432   6.300   7.652  1.9172  0.8630 -1.0645
33927SOL    HW2 9022   3.466   6.399   7.761  0.5525 -0.0010  0.1814
33928SOL     OW 9023   1.247   1.582   5.137 -0.0829 -0.0841 -0.1565
33928SOL    HW1 9024   1.258   1.492   5.106  0.9789  0.3088 -0.9761
33928SOL    HW2 9025   1.204   1.572   5.223 -2.5795 -1.2307 -1.4270
33929SOL     OW 9026   1.246   8.303   9.440  0.2510  0.2570 -0.1047
33929SOL    HW1 9027   1.192   8.254   9.502 -0.8192 -1.1503 -2.0414
33929SOL    HW2 9028   1.289   8.236   9.388  1.1263  1.3965 -0.8943
33930SOL     OW 9029   1.863   9.065   9.187  0.1682 -0.1830 -0.4391
33930SOL    HW1 9030   1.846   9.122   9.112  0.0787 -0.9315 -1.0115
33930SOL    HW2 9031   1.954   9.082   9.211  0.3692 -0.3234 -1.0745
33931SOL     OW 9032   9.771  12.096   4.083  0.0180 -0.5457  0.4663
33931SOL    HW1 9033   9.780  12.174   4.139 -1.2420 -0.2554  0.3108
33931SOL    HW2 9034   9.843  12.039   4.109  1.4221  0.9639  0.0952
33932SOL     OW 9035  10.006   8.335   7.573 -0.3608  0.3106  0.0304
33932SOL    HW1 9036   9.973   8.412   7.528  0.6087 -0.2720 -1.7623
33932SOL    HW2 9037   9.938   8.268   7.561 -1.5769  1.0235  2.2698
33933SOL     OW 9038   5.240  11.436   9.563 -0.6198  0.0366 -0.0067
33933SOL    HW1 9039   5.218  11.472   9.477 -1.7637  0.3859  0.4196
33933SOL    HW2 9040   5.202  11.498   9.625 -1.7192 -1.3242  0.7405
33934SOL     OW 9041  12.286  12.259  11.656 -0.4019  0.7277 -0.1103
33934SOL    HW1 9042  12.227  12.192  11.621  0.3537 -0.8471  1.5045
33934SOL    HW2 9043  12.353  12.210  11.704  1.3820  2.5365 -0.5825
33935SOL     OW 9044   8.902   2.504   7.545  0.1152 -0.0651  0.1406
33935SOL    HW1 9045   8.809   2.516   7.566 -0.3754 -0.8074 -1.4116
33935SOL    HW2 9046   8.904   2.423   7.495  1.3529  0.8034 -1.2988
33936SOL     OW 9047   5.888   0.848   8.278  0.0024 -0.4660 -0.1251
33936SOL    HW1 9048   5.805   0.886   8.251 -0.0870 -0.7924 -0.3115
33936SOL    HW2 9049   5.940   0.845   8.198 -0.3012 -1.5357 -0.2992
33937SOL     OW 9050   8.146   2.860   5.891  0.4002  0.3445 -0.5331
33937SOL    HW1 9051   8.116   2.833   5.977  0.9304 -2.4054 -1.1206
33937SOL    HW2 9052   8.225   2.911   5.908  0.6255 -0.3618  0.6104
33938SOL     OW 9053   8.496   7.917   9.338  0.2260 -0.4891 -0.2918
33938SOL    HW1 9054   8.466   7.922   9.247 -1.0424  1.6488  0.1738
33938SOL    HW2 9055   8.422   7.879   9.386  0.7201 -1.1865 -0.0557
33939SOL     OW 9056   0.791   4.083   5.013  0.3555  0.1482  0.0135
33939SOL    HW1 9057   0.706   4.105   5.052  0.3354  1.2899 -0.6156
33939SOL    HW2 9058   0.775   4.084   4.919  1.0019  0.1274 -0.1040
33940SOL     OW 9059   8.894   8.353   4.724 -0.2281  0.4224  1.2353
33940SOL    HW1 9060   8.812   8.331   4.769 -0.8472 -0.4301 -0.2398
33940SOL    HW2 9061   8.922   8.272   4.683  0.5641  1.0533  0.4756
33941SOL     OW 9062   6.504   5.709   9.272 -0.5333  0.2808  0.2783
33941SOL    HW1 9063   6.457   5.726   9.191  1.5737  2.0169 -0.6769
33941SOL    HW2 9064   6.524   5.796   9.307  0.7523 -0.4045  1.3351
33942SOL     OW 9065   9.142   1.322   9.347  0.2821 -0.2487 -0.3776
33942SOL    HW1 9066   9.118   1.414   9.338  1.6503  0.2198  0.4271
33942SOL    HW2 9067   9.148   1.308   9.442  0.2709 -1.1083 -0.4971
33943SOL     OW 9068  10.088  12.540   6.757  0.2007  0.3646 -0.3851
33943SOL    HW1 9069  10.044  12.616   6.719 -1.8190  0.0713  1.1782
33943SOL    HW2 9070  10.094  12.561   6.850 -1.8339 -1.9457  0.3849
33944SOL     OW 9071   9.049   0.987   4.130 -0.4078  0.8286  0.7361
33944SOL    HW1 9072   8.985   1.050   4.161  1.5823  2.6356  1.4179
33944SOL    HW2 9073   9.101   0.967   4.208 -0.5849 -1.2058  0.3815
33945SOL     OW 9074   6.197   6.966   9.574  0.0785 -0.4317 -0.5818
33945SOL    HW1 9075   6.107   6.976   9.604  1.5606  1.2987  4.0712
33945SOL    HW2 9076   6.223   6.879   9.606  1.0073  0.4973  1.3071
33946SOL     OW 9077   7.223   1.807  11.121 -0.0724 -0.1722  0.3503
33946SOL    HW1 9078   7.178   1.724  11.137  0.6611 -1.2551 -2.5362
33946SOL    HW2 9079   7.275   1.822  11.200 -0.4813 -2.2922  1.0904
33947SOL     OW 9080   1.863   9.954   2.874 -0.1688 -0.2238 -0.0872
33947SOL    HW1 9081   1.853  10.048   2.859  2.2645  0.4396  1.7797
33947SOL    HW2 9082   1.801   9.935   2.944  0.2482  0.3262  0.4502
33948SOL     OW 9083   7.760   8.466   9.563  0.0156 -0.2066 -0.1129
33948SOL    HW1 9084   7.848   8.431   9.551 -0.3340 -0.5460 -2.0984
33948SOL    HW2 9085   7.743   8.517   9.483 -1.6846 -0.4064  0.0758
33949SOL     OW 9086   4.994  10.814   3.566 -0.0553  0.0187 -0.7909
33949SOL    HW1 9087   5.078  10.770   3.572 -0.5550 -0.9065 -0.4683
33949SOL    HW2 9088   4.931  10.752   3.602 -1.1263 -0.0317 -2.5963
33950SOL     OW 9089  10.943   5.450   4.655 -0.2259  0.4636  0.2933
33950SOL    HW1 9090  10.953   5.459   4.560 -0.1526  2.8863  0.4645
33950SOL    HW2 9091  10.911   5.361   4.667 -0.9982  0.3388 -2.0746
33951SOL     OW 9092  12.418  11.812   2.017 -0.4365 -0.2148 -0.0363
33951SOL    HW1 9093  12.485  11.747   1.996 -0.3014 -0.2719  0.5405
33951SOL    HW2 9094  12.366  11.771   2.087 -0.3099  0.3209  0.3835
33952SOL     OW 9095   6.394   4.965  11.617 -0.4574 -0.4191  0.1064
33952SOL    HW1 9096   6.322   4.950  11.678 -1.8189  1.1466 -1.0345
33952SOL    HW2 9097   6.471   4.930  11.663 -1.7078 -1.0070  1.8922
33953SOL     OW 9098   1.270   9.303   6.865 -0.3812  0.1453  0.1569
33953SOL    HW1 9099   1.223   9.330   6.944  1.4577 -1.0445  1.7638
33953SOL    HW2 9100   1.335   9.240   6.897  1.6131  0.9543 -2.0631
33954SOL     OW 9101   4.319  12.526   2.248 -0.4378 -0.3705 -0.0757
33954SOL    HW1 9102   4.356  12.573   2.173  1.1875 -0.6616  0.4929
33954SOL    HW2 9103   4.245  12.478   2.213  2.0729 -2.9978 -2.2833
33955SOL     OW 9104   6.934   0.980   3.916 -0.3539  0.5007  0.0580
33955SOL    HW1 9105   7.020   1.020   3.928  0.5892 -0.8152 -1.6690
33955SOL    HW2 9106   6.881   1.048   3.875  0.0740  1.1267  0.5351
33956SOL     OW 9107   4.590  10.519   6.617  0.4621 -0.4168  0.0929
33956SOL    HW1 9108   4.621  10.545   6.703  2.2976  0.3997 -0.7686
33956SOL    HW2 9109   4.505  10.562   6.607  0.7818  0.4406  1.0179
33957SOL     OW 9110   9.714   6.099   1.749 -0.0781  0.1784  0.1687
33957SOL    HW1 9111   9.807   6.084   1.769 -0.3758 -0.4019  1.1897
33957SOL    HW2 9112   9.715   6.171   1.686  0.9718  1.5637  1.6751
33958SOL     OW 9113  11.806   4.313   1.218  0.4243  0.5691 -0.4623
33958SOL    HW1 9114  11.744   4.283   1.152  1.0196  0.7105 -1.1085
33958SOL    HW2 9115  11.890   4.316   1.172  1.2585 -1.2109  0.8175
33959SOL     OW 9116   3.073   3.525   2.246  0.0693 -0.0015  0.7274
33959SOL    HW1 9117   3.159   3.500   2.280 -0.1464 -0.2696  1.0851
33959SOL    HW2 9118   3.050   3.455   2.184  0.2387  0.2272  0.3985
33960SOL     OW 9119   1.469   8.785   6.525 -0.7365  0.4286  0.5612
33960SOL    HW1 9120   1.433   8.857   6.577 -0.1765  0.6645  0.6242
33960SOL    HW2 9121   1.550   8.820   6.488 -2.0082  0.9259 -2.0183
33961SOL     OW 9122   7.511  11.622   8.522 -0.1702 -0.3140  0.2877
33961SOL    HW1 9123   7.541  11.545   8.570 -1.3626 -0.4138  0.9097
33961SOL    HW2 9124   7.432  11.593   8.476  0.8759 -0.1856 -1.6860
33962SOL     OW 9125   5.901   1.764   1.899 -0.7517 -0.1231  0.1417
33962SOL    HW1 9126   5.893   1.830   1.968 -1.8143 -0.4102  0.3136
33962SOL    HW2 9127   5.891   1.681   1.945 -0.5980 -0.3510 -0.2375
33963SOL     OW 9128   1.581   7.052   6.783 -0.2592  0.1542 -0.3924
33963SOL    HW1 9129   1.524   7.018   6.714 -0.5987 -0.0566 -0.0121
33963SOL    HW2 9130   1.573   6.989   6.855  1.7315 -0.7857 -0.9216
33964SOL     OW 9131   2.748   2.194   4.295  0.1016 -0.0390  0.1461
33964SOL    HW1 9132   2.753   2.121   4.232  0.6019  0.9009 -0.9343
33964SOL    HW2 9133   2.823   2.179   4.353 -0.0198 -0.5940  0.1713
33965SOL     OW 9134   3.911   6.184   2.866 -0.4568 -0.5133 -0.0444
33965SOL    HW1 9135   3.902   6.113   2.802 -1.7390 -0.2390 -0.1869
33965SOL    HW2 9136   3.906   6.140   2.951  0.2068 -0.7566 -0.1267
33966SOL     OW 9137   0.212   2.414   2.606  0.2986 -0.5410  0.3420
33966SOL    HW1 9138   0.278   2.385   2.543  1.2066  2.1281 -0.0615
33966SOL    HW2 9139   0.262   2.466   2.670 -1.4072  1.9729 -0.2419
33967SOL     OW 9140   9.159   8.175   3.162 -0.1404  0.0525 -0.2457
33967SOL    HW1 9141   9.213   8.100   3.185 -1.2395 -0.5941  0.2864
33967SOL    HW2 9142   9.177   8.190   3.069  1.3002  0.1651  0.0252
33968SOL     OW 9143   6.823   4.917  10.211  0.4121  0.0044 -0.6558
33968SOL    HW1 9144   6.747   4.973  10.227 -0.4514 -1.6375  1.4026
33968SOL    HW2 9145   6.876   4.967  10.148 -1.3409  2.1132 -0.5985
33969SOL     OW 9146   4.330  12.240   4.642  0.0735  0.4847  0.0472
33969SOL    HW1 9147   4.417  12.219   4.675  0.6681  1.9315 -0.5319
33969SOL    HW2 9148   4.271  12.221   4.716  1.0149  0.7518  0.8858
33970SOL     OW 9149   6.994   2.741   7.507 -0.1320  0.4932  0.2932
33970SOL    HW1 9150   6.936   2.683   7.457  0.8078 -0.8805  0.7435
33970SOL    HW2 9151   6.966   2.731   7.598  0.3599  0.3576  0.4315
33971SOL     OW 9152  12.599   1.095   8.054  0.1120  0.2439  0.0028
33971SOL    HW1 9153  12.537   1.111   8.124  0.2818  0.9495 -0.0007
33971SOL    HW2 9154  12.684   1.119   8.090  0.4018 -0.7192  0.0104
33972SOL     OW 9155   4.477   0.893   5.726 -0.4496 -0.1349  0.0564
33972SOL    HW1 9156   4.413   0.826   5.704  0.7511 -0.7338 -1.8468
33972SOL    HW2 9157   4.428   0.958   5.777 -2.2332 -1.1975 -0.2482
33973SOL     OW 9158   2.502   0.723   7.448  0.0169  0.2761  0.3214
33973SOL    HW1 9159   2.545   0.659   7.505 -0.2827 -0.6887 -0.4999
33973SOL    HW2 9160   2.569   0.790   7.433  1.0213 -0.8388 -0.3631
33974SOL     OW 9161  10.879   5.725   9.833  0.4343 -0.1005 -0.4766
33974SOL    HW1 9162  10.965   5.740   9.872  1.0408  0.2974 -1.9122
33974SOL    HW2 9163  10.887   5.755   9.743 -0.7997 -1.3535 -1.0552
33975SOL     OW 9164   6.776   0.507   7.091  0.5306  0.2057 -0.2444
33975SOL    HW1 9165   6.781   0.446   7.018 -0.1812  1.4763 -1.4078
33975SOL    HW2 9166   6.685   0.538   7.090  0.9799  1.5914  0.0366
33976SOL     OW 9167   6.670   0.115  10.082  0.3750 -0.8068  0.2283
33976SOL    HW1 9168   6.600   0.161  10.128  0.1836 -0.3576 -0.5030
33976SOL    HW2 9169   6.689   0.039  10.138 -0.2169 -0.5627  0.7760
33977SOL     OW 9170   5.847   9.703   6.780 -0.0725 -0.4133 -0.1883
33977SOL    HW1 9171   5.857   9.660   6.865  1.1424 -1.0707 -0.6365
33977SOL    HW2 9172   5.929   9.752   6.768 -0.2149 -0.3584 -0.9956
33978SOL     OW 9173   8.573  12.111   2.178 -0.5951  0.0611 -0.3462
33978SOL    HW1 9174   8.484  12.083   2.200 -1.9703  0.9436 -4.1336
33978SOL    HW2 9175   8.573  12.205   2.199 -1.3326  0.5236 -2.2386
33979SOL     OW 9176   3.986   9.432   5.292  0.3664  0.1066  0.3847
33979SOL    HW1 9177   3.893   9.427   5.270  0.1473  0.2983  1.2543
33979SOL    HW2 9178   4.030   9.417   5.208 -0.4031 -2.0633  0.3030
33980SOL     OW 9179  12.018  10.511   4.687 -0.1484  0.2355  0.0390
33980SOL    HW1 9180  11.973  10.546   4.610 -0.5325  1.3339  0.7541
33980SOL    HW2 9181  11.950  10.503   4.754  0.4173  0.4718  0.6542
33981SOL     OW 9182   9.594   2.218   1.622  0.4772  0.0015  0.0458
33981SOL    HW1 9183   9.567   2.146   1.566 -1.7756  0.0514  0.9857
33981SOL    HW2 9184   9.561   2.296   1.578  1.8057  0.3958 -0.3174
33982SOL     OW 9185   1.571   9.811   4.141  0.7316  0.0029 -0.0430
33982SOL    HW1 9186   1.605   9.796   4.052  0.7384 -1.6758  0.2160
33982SOL    HW2 9187   1.476   9.822   4.129  0.1554 -3.6714 -0.0227
33983SOL     OW 9188   9.836   2.363  11.755  0.4659  0.2092  0.3390
33983SOL    HW1 9189   9.779   2.336  11.683 -0.2813  2.6905 -0.0717
33983SOL    HW2 9190   9.925   2.353  11.720  0.2851 -1.9985  0.3795
33984SOL     OW 9191  11.284  10.512   4.527 -0.1448 -0.4890  0.2619
33984SOL    HW1 9192  11.348  10.467   4.471 -0.8674 -2.9953  1.3056
33984SOL    HW2 9193  11.337  10.561   4.589  0.7449 -1.2468  0.1274
33985SOL     OW 9194   6.745   8.987   3.754  0.0266 -0.4329 -0.1546
33985SOL    HW1 9195   6.678   8.922   3.773 -0.5576  0.5966  1.5866
33985SOL    HW2 9196   6.696   9.065   3.728  0.4539  0.4457  1.4854
33986SOL     OW 9197   6.374   9.178   6.751 -0.1232  0.1373 -1.6600
33986SOL    HW1 9198   6.451   9.230   6.728  1.4670 -2.0044 -1.4990
33986SOL    HW2 9199   6.407   9.112   6.812 -2.4914  0.2730 -0.0970
33987SOL     OW 9200   0.742  10.523   4.901  0.7171 -0.1243 -0.0857
33987SOL    HW1 9201   0.766  10.473   4.979 -0.6803 -0.7414 -0.0166
33987SOL    HW2 9202   0.762  10.465   4.828  1.5507  0.2570 -0.1712
33988SOL     OW 9203   2.078   5.889   2.999  0.4882 -0.0924 -0.5953
33988SOL    HW1 9204   1.991   5.907   3.037  0.5712  0.3595 -0.6104
33988SOL    HW2 9205   2.134   5.873   3.075  0.5322  0.2635 -0.5491
33989SOL     OW 9206  10.517   6.054  12.368 -0.3754 -0.2502  0.3114
33989SOL    HW1 9207  10.597   6.096  12.399 -1.0276  1.2221  0.0795
33989SOL    HW2 9208  10.467   6.037  12.448 -0.4202  0.0827  0.3559
33990SOL     OW 9209  12.152   5.347   4.266 -0.1461 -0.0595 -0.1002
33990SOL    HW1 9210  12.120   5.424   4.219  0.1546 -0.6103 -1.2474
33990SOL    HW2 9211  12.079   5.319   4.321  0.0361  1.5729  1.0583
33991SOL     OW 9212   2.614  11.273  12.363 -0.1706 -0.1314 -0.1036
33991SOL    HW1 9213   2.687  11.254  12.304 -1.2492 -0.1807 -1.4749
33991SOL    HW2 9214   2.635  11.360  12.398  0.4307 -0.0327 -0.6721
33992SOL     OW 9215  10.287   9.064   4.946  0.1900 -0.2446  0.7069
33992SOL    HW1 9216  10.318   9.154   4.943 -2.3186  0.6964  0.7746
33992SOL    HW2 9217  10.192   9.070   4.933 -0.0727 -2.8746  0.7396
33993SOL     OW 9218   3.584   7.864  10.316 -0.1343  0.0067  0.6143
33993SOL    HW1 9219   3.596   7.854  10.411  0.0421 -0.6300  0.5309
33993SOL    HW2 9220   3.644   7.934  10.292  0.3101 -0.2761  0.8742
33994SOL     OW 9221   5.002   9.122   0.148 -0.1421  0.0166 -0.1490
33994SOL    HW1 9222   5.055   9.063   0.202 -1.5417  0.9150  2.3949
33994SOL    HW2 9223   4.917   9.079   0.142 -0.0489 -0.0189 -1.6655
33995SOL     OW 9224   1.885  11.048   7.011 -0.4662 -0.0847 -0.1125
33995SOL    HW1 9225   1.944  11.012   7.077  0.3282  0.8059 -0.3119
33995SOL    HW2 9226   1.813  10.985   7.006  0.7902 -1.5673 -0.3288
33996SOL     OW 9227   1.751   9.675   9.478 -0.3600 -0.0616 -0.4742
33996SOL    HW1 9228   1.757   9.721   9.395  2.1232 -0.1635 -0.4136
33996SOL    HW2 9229   1.698   9.732   9.533 -0.9759  0.6021 -1.7160
33997SOL     OW 9230   0.211   0.230   3.554  0.2928  0.1178 -0.0683
33997SOL    HW1 9231   0.270   0.286   3.605  1.2038 -0.8653 -0.0062
33997SOL    HW2 9232   0.143   0.204   3.616  0.7391 -0.1022  0.3415
33998SOL     OW 9233   8.250   9.937   1.249 -0.2748  0.9301 -0.2777
33998SOL    HW1 9234   8.337   9.945   1.211  0.3508 -1.2844  0.4854
33998SOL    HW2 9235   8.203  10.015   1.220  1.7824  1.9207 -1.1428
33999SOL     OW 9236  10.514   4.149   6.046  0.1068 -0.4987 -0.2929
33999SOL    HW1 9237  10.597   4.100   6.051 -1.0516 -2.6447 -0.7760
33999SOL    HW2 9238  10.513   4.202   6.126  2.4033  0.4487 -0.7918
34000SOL     OW 9239   7.762   4.921   6.588 -0.0636 -0.1819  0.2711
34000SOL    HW1 9240   7.811   4.973   6.651 -1.8946 -0.3738  1.9799
34000SOL    HW2 9241   7.748   4.979   6.513 -0.3780  1.1350  1.3151
34001SOL     OW 9242   2.236  11.351   7.169 -0.1714  0.3894  0.4602
34001SOL    HW1 9243   2.144  11.374   7.179 -0.3220 -0.3299  0.8575
34001SOL    HW2 9244   2.240  11.301   7.087 -0.2430 -0.0712  0.7328
34002SOL     OW 9245   7.378  12.374   8.615  0.1094 -0.0753  0.0244
34002SOL    HW1 9246   7.379  12.290   8.569 -2.9023  1.3572 -3.0983
34002SOL    HW2 9247   7.381  12.351   8.707 -0.8744 -3.6577 -0.7010
34003SOL     OW 9248   4.230   6.960   4.745 -0.0016 -0.2142  0.0892
34003SOL    HW1 9249   4.180   6.898   4.798 -0.2198 -0.6178 -0.5826
34003SOL    HW2 9250   4.258   7.027   4.808 -1.0082 -0.2046  0.5559
34004SOL     OW 9251   6.517   2.462   3.385  0.0570 -0.1824  0.4195
34004SOL    HW1 9252   6.527   2.474   3.291 -1.5122 -0.1316  0.2411
34004SOL    HW2 9253   6.606   2.472   3.420  0.6568 -0.2224 -1.0457
34005SOL     OW 9254  11.994  12.221   4.503 -0.0414 -0.3303  0.1699
34005SOL    HW1 9255  11.910  12.266   4.502 -0.8094 -1.6212  1.8658
34005SOL    HW2 9256  11.973  12.129   4.488  1.1558 -0.5829 -0.0993
34006SOL     OW 9257  12.435   4.176   3.400  0.5550 -0.7673 -0.5595
34006SOL    HW1 9258  12.346   4.192   3.370  0.4406 -0.8634 -0.2660
34006SOL    HW2 9259  12.475   4.126   3.329  1.2768  1.7250 -2.0424
34007SOL     OW 9260  10.603  10.314   8.715  0.1797 -0.2839  0.6568
34007SOL    HW1 9261  10.552  10.292   8.637 -2.3355  0.7778  1.8821
34007SOL    HW2 9262  10.681  10.358   8.682 -0.5544 -0.3365 -1.2606
34008SOL     OW 9263   4.432   3.961   4.563 -0.3214  0.0790 -0.0368
34008SOL    HW1 9264   4.449   3.886   4.507 -0.5706  0.7645 -1.0703
34008SOL    HW2 9265   4.517   4.005   4.570 -0.0615 -0.5629  0.9900
34009SOL     OW 9266   5.135   4.457   8.820  0.3930  0.1939  0.0569
34009SOL    HW1 9267   5.155   4.549   8.835 -1.1536  0.6527 -0.5902
34009SOL    HW2 9268   5.041   4.454   8.804  0.3913 -1.5156  0.1644
34010SOL     OW 9269  11.206   6.282   3.872 -0.2335 -0.2586  0.2202
34010SOL    HW1 9270  11.125   6.318   3.836 -0.6297 -1.8337 -0.5822
34010SOL    HW2 9271  11.275   6.321   3.819 -0.5862 -0.0347 -0.0786
34011SOL     OW 9272   5.031   3.228   8.519 -0.2214 -0.4462  0.2665
34011SOL    HW1 9273   4.978   3.149   8.533 -1.7063  0.2634 -1.0570
34011SOL    HW2 9274   4.973   3.300   8.542  0.6909  0.3180  0.2319
34012SOL     OW 9275   9.541   9.730   5.255 -0.4565  0.7282  0.3883
34012SOL    HW1 9276   9.491   9.804   5.220 -0.5627  0.5100  0.0673
34012SOL    HW2 9277   9.527   9.660   5.191 -1.1653  0.1243  1.1945
34013SOL     OW 9278  12.281   6.691   6.266  0.2316  0.0024  0.1525
34013SOL    HW1 9279  12.291   6.748   6.189 -1.4633  0.5688  0.2934
34013SOL    HW2 9280  12.305   6.747   6.340 -0.0220  0.0881  0.1732
34014SOL     OW 9281  11.221   6.054   0.860  0.6333  0.3127  0.2810
34014SOL    HW1 9282  11.276   6.052   0.938  1.3750  0.6321 -0.2259
34014SOL    HW2 9283  11.269   6.003   0.795  0.9989  1.7192 -0.5889
34015SOL     OW 9284  10.360  10.860  11.884  0.3787 -0.1147 -0.0613
34015SOL    HW1 9285  10.336  10.802  11.957  1.4177 -1.8170 -1.0044
34015SOL    HW2 9286  10.392  10.939  11.926 -2.4418  0.4516  1.2723
34016SOL     OW 9287   8.753  12.429   4.834  0.1733 -0.4631 -0.6197
34016SOL    HW1 9288   8.846  12.410   4.825  0.0890 -0.2514 -2.3531
34016SOL    HW2 9289   8.710  12.345   4.821  0.1360 -0.8174  1.5045
34017SOL     OW 9290   8.639   1.140   2.185 -0.1543  0.0521 -0.0390
34017SOL    HW1 9291   8.669   1.191   2.261  0.2023 -1.2951  0.7475
34017SOL    HW2 9292   8.688   1.177   2.112 -1.6379  2.4454  0.0341
34018SOL     OW 9293   7.555   0.188   6.771  0.2401 -0.0399  0.4373
34018SOL    HW1 9294   7.627   0.250   6.785  0.2511 -0.2255  1.2366
34018SOL    HW2 9295   7.479   0.244   6.755  0.2737  0.1836  1.0317
34019SOL     OW 9296   5.857   7.883   8.810 -0.1359 -0.0832 -0.4044
34019SOL    HW1 9297   5.825   7.812   8.866 -0.7662  0.6922  0.2285
34019SOL    HW2 9298   5.908   7.938   8.869 -0.1500  0.3161 -0.7656
34020SOL     OW 9299   1.141  12.539   5.712 -0.0069 -0.3086 -0.3273
34020SOL    HW1 9300   1.145  12.571   5.622 -0.4325  0.0988 -0.2038
34020SOL    HW2 9301   1.049  12.517   5.726 -0.3310  1.4787  0.6385
34021SOL     OW 9302   1.106  12.087   0.864 -0.3459  0.4709 -0.0986
34021SOL    HW1 9303   1.103  11.993   0.885 -1.7942  0.5707  0.1933
34021SOL    HW2 9304   1.163  12.092   0.787 -0.2350 -0.6410 -0.1057
34022SOL     OW 9305  10.334   6.902   4.032  0.1775  0.9891  0.5018
34022SOL    HW1 9306  10.422   6.934   4.010  1.2457 -1.6413  0.5776
34022SOL    HW2 9307  10.288   6.902   3.948  1.6879 -1.5250 -0.4569
34023SOL     OW 9308  11.928   7.637   6.157  0.0801 -0.1486  0.6584
34023SOL    HW1 9309  11.972   7.594   6.231  1.3689  0.5077  0.2984
34023SOL    HW2 9310  11.882   7.711   6.197  1.4421  0.6965  0.7359
34024SOL     OW 9311   4.510   6.660  10.159 -0.6186 -0.5468 -0.3217
34024SOL    HW1 9312   4.430   6.639  10.110 -1.8509  0.0665  1.3387
34024SOL    HW2 9313   4.485   6.733  10.215  0.6296 -1.3874  1.4368
34025SOL     OW 9314   3.168   3.873   9.242 -0.2826 -0.0922  0.2240
34025SOL    HW1 9315   3.096   3.848   9.300 -1.2340 -2.7083 -1.8785
34025SOL    HW2 9316   3.137   3.850   9.154  1.3873  2.9462 -1.3131
34026SOL     OW 9317  11.964   5.222   6.742  0.4327 -0.1688  0.1415
34026SOL    HW1 9318  12.011   5.276   6.805  0.0697 -0.8834  1.0319
34026SOL    HW2 9319  11.876   5.261   6.737 -0.6494 -2.0253  2.6239
34027SOL     OW 9320   4.481   8.697   5.475 -0.2768 -0.0087 -0.1552
34027SOL    HW1 9321   4.476   8.745   5.392 -0.4895  1.4019  0.6468
34027SOL    HW2 9322   4.525   8.757   5.535  1.2722 -1.5878  0.3816
34028SOL     OW 9323   1.273   5.899   0.239  0.3849 -0.8483 -0.2520
34028SOL    HW1 9324   1.303   5.951   0.165 -0.3242  2.8745  1.8322
34028SOL    HW2 9325   1.177   5.907   0.237  0.0835 -3.5070 -0.7023
34029SOL     OW 9326  11.668  11.702   9.621  0.4968 -0.2559  0.4870
34029SOL    HW1 9327  11.658  11.775   9.682 -0.3733 -0.9550  1.2031
34029SOL    HW2 9328  11.754  11.715   9.582  0.3940  1.0916  0.6833
34030SOL     OW 9329   3.565  11.985   8.966 -0.2312  0.2990  0.0063
34030SOL    HW1 9330   3.563  11.890   8.966  0.7945  0.2091  2.3639
34030SOL    HW2 9331   3.657  12.008   8.958 -0.4713  1.1058 -0.5898
34031SOL     OW 9332  12.046  10.975   0.503 -0.0281 -0.0247 -0.3140
34031SOL    HW1 9333  12.076  10.895   0.460 -1.1379 -1.7826  1.9324
34031SOL    HW2 9334  12.039  10.951   0.596 -2.9245  1.8619  0.0909
34032SOL     OW 9335   7.112   1.965  10.641  0.2835 -0.2978 -0.3806
34032SOL    HW1 9336   7.122   1.954  10.547 -1.7191  0.3294 -0.7138
34032SOL    HW2 9337   7.065   1.886  10.670  0.6432 -0.3601  0.0494
34033SOL     OW 9338  10.603   2.650   8.393  0.5078  0.4195 -0.6609
34033SOL    HW1 9339  10.561   2.601   8.322  2.9645 -0.4472 -1.6508
34033SOL    HW2 9340  10.593   2.742   8.368 -0.5708  0.2385 -0.9501
34034SOL     OW 9341   3.919   1.156   3.047  0.7455  0.1130 -0.6162
34034SOL    HW1 9342   3.956   1.219   2.986  0.7315 -0.0064 -0.7480
34034SOL    HW2 9343   3.986   1.088   3.056  0.5236 -0.1497 -0.9261
34035SOL     OW 9344   3.817   2.436   6.703  0.7421  0.5816  0.3078
34035SOL    HW1 9345   3.755   2.425   6.631  1.2068  0.8177 -0.1338
34035SOL    HW2 9346   3.850   2.525   6.693  0.4775  0.7778  1.0854
34036SOL     OW 9347  12.582   8.943   4.350  0.6161 -0.1867 -0.4373
34036SOL    HW1 9348  12.624   8.910   4.270  0.4532 -1.5093 -0.0038
34036SOL    HW2 9349  12.496   8.902   4.351  0.3908  0.2914  0.1139
34037SOL     OW 9350   6.703   0.011  11.370  0.3771 -0.2790  0.2881
34037SOL    HW1 9351   6.742   0.069  11.305  0.2352  0.1081  0.5492
34037SOL    HW2 9352   6.715   0.056  11.454  1.2339 -1.1240  0.6380
34038SOL     OW 9353  10.725   6.937   3.530  0.1195 -0.1961  0.3224
34038SOL    HW1 9354  10.663   6.928   3.602 -0.3412  0.1318 -0.0242
34038SOL    HW2 9355  10.730   7.032   3.514 -0.0210 -0.2814 -0.2684
34039SOL     OW 9356   2.389   1.555   2.468  0.3720 -0.1805 -0.3084
34039SOL    HW1 9357   2.402   1.581   2.377  1.2295  2.1349  0.4118
34039SOL    HW2 9358   2.455   1.603   2.517  0.1172 -1.5774  1.5448
34040SOL     OW 9359   6.898   1.486   6.624 -0.2942 -0.0516  0.2144
34040SOL    HW1 9360   6.982   1.522   6.598 -0.3482 -0.2866 -0.2976
34040SOL    HW2 9361   6.889   1.510   6.716  0.4828 -0.3205  0.3630
34041SOL     OW 9362  10.043  11.582  12.064  0.5141 -0.6654 -0.1681
34041SOL    HW1 9363   9.959  11.627  12.065  1.3395  0.9281 -0.1954
34041SOL    HW2 9364  10.105  11.647  12.031  1.8830 -1.5697  0.5291
34042SOL     OW 9365  10.232   0.783   5.090 -0.3005 -0.0025  0.1230
34042SOL    HW1 9366  10.268   0.696   5.104  0.3204  0.3082  0.5118
34042SOL    HW2 9367  10.275   0.815   5.011 -0.4566 -0.0108  0.0336
34043SOL     OW 9368   0.202   7.173   6.274 -0.7082  0.1017 -0.5940
34043SOL    HW1 9369   0.195   7.208   6.363 -0.1600  0.2376 -0.6020
34043SOL    HW2 9370   0.149   7.232   6.220  0.0530  0.8157 -0.5760
34044SOL     OW 9371   2.693   8.729   2.184 -0.3902 -0.7790 -0.1450
34044SOL    HW1 9372   2.744   8.668   2.131 -0.0440 -0.9190  0.3338
34044SOL    HW2 9373   2.720   8.816   2.155  1.5925 -0.7995  1.3856
34045SOL     OW 9374   8.849   3.025   9.740 -0.5556 -0.1282  0.0186
34045SOL    HW1 9375   8.848   3.121   9.733  2.8180  0.0644  0.2824
34045SOL    HW2 9376   8.838   2.995   9.650 -2.5173  0.4232  0.0342
34046SOL     OW 9377   5.391   3.950   8.719 -0.0743 -0.2117 -0.0382
34046SOL    HW1 9378   5.442   3.872   8.743 -0.1055 -0.3406 -0.3790
34046SOL    HW2 9379   5.315   3.915   8.672  0.5533  0.0784 -1.3230
34047SOL     OW 9380   5.167   6.576  10.846 -0.3403  0.5714 -0.7585
34047SOL    HW1 9381   5.090   6.616  10.886 -1.7155 -0.1319 -2.5927
34047SOL    HW2 9382   5.241   6.622  10.886 -1.6786  1.3021  1.0158
34048SOL     OW 9383   5.766   3.380   9.247  0.9765  0.4115 -0.1208
34048SOL    HW1 9384   5.860   3.368   9.234  1.0429  2.1358 -1.4327
34048SOL    HW2 9385   5.754   3.475   9.251 -0.7057  0.2125  0.1099
34049SOL     OW 9386   5.892   0.295   1.431  0.2043 -0.1580 -1.3230
34049SOL    HW1 9387   5.878   0.308   1.338 -1.4686 -0.7706 -1.1848
34049SOL    HW2 9388   5.830   0.227   1.456  0.6988 -0.0937  0.2148
34050SOL     OW 9389   6.935   7.455  11.957 -0.0802 -0.2875  0.3317
34050SOL    HW1 9390   6.857   7.465  11.902 -1.4661 -1.2977  2.0027
34050SOL    HW2 9391   6.931   7.529  12.018 -0.3141 -0.8919  1.0658
34051SOL     OW 9392   2.049   9.940   9.616  0.4627 -0.0091  1.2080
34051SOL    HW1 9393   1.991   9.866   9.635  2.2167 -1.1132  2.5739
34051SOL    HW2 9394   2.015  10.010   9.672 -1.6200  0.5167 -0.5841
34052SOL     OW 9395   0.895   8.229   0.778 -0.1760  0.1743 -0.3423
34052SOL    HW1 9396   0.872   8.299   0.716 -2.5009 -0.0122  0.2292
34052SOL    HW2 9397   0.820   8.224   0.838 -0.1115 -2.8057 -0.3618
34053SOL     OW 9398   4.155   9.436   1.451 -0.1446 -0.3192  0.1654
34053SOL    HW1 9399   4.114   9.514   1.412  0.0725  0.2481  1.0395
34053SOL    HW2 9400   4.218   9.471   1.514  0.2944 -1.2061  0.2288
34054SOL     OW 9401   7.377   0.531   7.706 -0.3438  0.1970  0.1035
34054SOL    HW1 9402   7.335   0.519   7.621  0.5770  1.6504 -0.5730
34054SOL    HW2 9403   7.375   0.625   7.721  0.5722  0.0647  1.1589
34055SOL     OW 9404   2.476   0.178   6.957  0.5784 -0.4095 -0.4437
34055SOL    HW1 9405   2.517   0.217   7.035  0.7950 -0.0400 -0.7336
34055SOL    HW2 9406   2.495   0.085   6.964  0.8880 -0.3340 -0.2193
34056SOL     OW 9407   2.686   6.156   6.134  0.1832  0.4582 -0.3983
34056SOL    HW1 9408   2.773   6.171   6.171 -1.2000  1.2337  2.9111
34056SOL    HW2 9409   2.636   6.234   6.159 -0.7674  1.6858 -5.0879
34057SOL     OW 9410   9.143   2.498   3.705  0.0588 -0.0814 -0.1195
34057SOL    HW1 9411   9.213   2.451   3.751 -0.5601 -0.2854  0.6432
34057SOL    HW2 9412   9.174   2.506   3.615  0.7595 -0.7801  0.0487
34058SOL     OW 9413   6.650   8.387  12.564 -0.8026  0.1093 -0.2306
34058SOL    HW1 9414   6.611   8.467  12.529  1.4667  0.6539 -1.6798
34058SOL    HW2 9415   6.702   8.416  12.638  0.9394  0.2007 -1.4439
34059SOL     OW 9416  12.640   5.445   9.815  0.3818  0.2547 -1.1740
34059SOL    HW1 9417  12.729   5.443   9.780  0.8815 -1.3919  0.0610
34059SOL    HW2 9418  12.611   5.354   9.813 -1.1994  0.7256 -1.3095
34060SOL     OW 9419   3.353   8.109   5.386 -0.2846  0.0019  0.1598
34060SOL    HW1 9420   3.373   8.061   5.306  1.7267 -0.4808  0.9027
34060SOL    HW2 9421   3.262   8.137   5.375 -0.6238 -1.5796 -1.5006
34061SOL     OW 9422  11.842   3.891   5.098 -0.0247  0.2111  0.2633
34061SOL    HW1 9423  11.889   3.899   5.015  0.8313 -1.1894  0.5904
34061SOL    HW2 9424  11.908   3.861   5.160 -1.0526 -0.5154  1.0306
34062SOL     OW 9425  11.290  11.765   4.742 -0.4820  0.0739  0.2051
34062SOL    HW1 9426  11.356  11.832   4.761 -0.6432 -0.2504  2.1345
34062SOL    HW2 9427  11.341  11.689   4.715 -0.1960  0.4716 -0.3981
34063SOL     OW 9428   2.773   9.526   9.404 -0.5133 -0.6944  0.6462
34063SOL    HW1 9429   2.825   9.543   9.483  0.1447  1.3715 -0.1706
34063SOL    HW2 9430   2.705   9.594   9.404 -0.3967 -0.5505 -0.6405
34064SOL     OW 9431   6.653  12.698  12.170  0.3000 -0.2527 -0.1625
34064SOL    HW1 9432   6.559  12.681  12.162  0.4355 -0.4218 -1.6028
34064SOL    HW2 9433   6.669  12.699  12.264 -1.0766 -0.6216  0.0960
34065SOL     OW 9434   8.268  10.702   9.907 -0.0249 -0.0305 -0.5356
34065SOL    HW1 9435   8.291  10.647   9.832  0.0883  0.0998 -0.5973
34065SOL    HW2 9436   8.261  10.790   9.871  0.6491  0.1353 -0.2889
34066SOL     OW 9437   0.757   4.653   9.437  0.0867  0.6777  0.0848
34066SOL    HW1 9438   0.696   4.587   9.404 -0.2898  0.1817  1.6593
34066SOL    HW2 9439   0.755   4.722   9.372  1.7614 -1.5372 -2.5265
34067SOL     OW 9440   9.757   9.077   5.234 -0.5254  0.3436 -0.0634
34067SOL    HW1 9441   9.816   9.015   5.278  0.3154 -0.4763 -2.2184
34067SOL    HW2 9442   9.813   9.151   5.212 -0.1174 -0.5699 -2.3931
34068SOL     OW 9443   1.678  10.794   8.285  0.1312 -0.0625  0.1698
34068SOL    HW1 9444   1.652  10.872   8.237  4.5908  1.4750 -0.1487
34068SOL    HW2 9445   1.653  10.812   8.375 -0.2257  1.0870 -0.1435
34069SOL     OW 9446  11.691   0.040   7.454 -0.3056 -0.2721 -0.1642
34069SOL    HW1 9447  11.733   0.083   7.528  0.5755  1.6919 -1.7198
34069SOL    HW2 9448  11.725  -0.049   7.456  1.2654  0.2996  0.6216
34070SOL     OW 9449  10.922   4.751   7.540  0.1160  0.4187  0.2248
34070SOL    HW1 9450  10.837   4.732   7.502  0.9459 -1.2623 -0.8843
34070SOL    HW2 9451  10.936   4.844   7.522 -1.1054  0.5201 -0.3098
34071SOL     OW 9452   4.293   2.701  12.551 -0.0732 -0.1860 -0.3149
34071SOL    HW1 9453   4.243   2.782  12.551  1.1165  0.5763 -0.7093
34071SOL    HW2 9454   4.384   2.728  12.566  0.4494 -1.3714 -1.1503
34072SOL     OW 9455  12.030   7.735   8.900 -0.7641 -0.5494  0.0402
34072SOL    HW1 9456  12.093   7.664   8.910  1.2323  1.2939  1.3580
34072SOL    HW2 9457  12.064   7.788   8.827  0.0353  1.1716  1.5862
34073SOL     OW 9458   4.268   8.059  10.780  0.2111  0.4593 -0.3750
34073SOL    HW1 9459   4.232   8.147  10.774  0.1378  0.5132  0.6609
34073SOL    HW2 9460   4.237   8.015  10.700 -0.2020  1.1993 -0.6345
34074SOL     OW 9461   0.015  11.864   8.540  0.6607  0.0944  0.1647
34074SOL    HW1 9462  -0.010  11.797   8.476 -1.2953  0.9773 -0.0933
34074SOL    HW2 9463   0.055  11.816   8.612  1.8022 -1.0487 -1.1797
34075SOL     OW 9464   1.115   4.773   8.107 -0.2016 -0.3586  0.7270
34075SOL    HW1 9465   1.042   4.793   8.166  1.1044 -1.8369  3.0188
34075SOL    HW2 9466   1.142   4.685   8.132  1.7996 -0.2074 -0.6702
34076SOL     OW 9467   6.510   7.003   5.287 -0.3985  0.9964 -0.1763
34076SOL    HW1 9468   6.487   7.004   5.380 -1.6827  0.9145 -0.4732
34076SOL    HW2 9469   6.427   7.017   5.241  0.2751  1.4883 -1.3077
34077SOL     OW 9470   5.992   0.382   1.927  0.1202 -0.2981  0.0409
34077SOL    HW1 9471   6.067   0.323   1.937  1.1267  1.2039  2.0304
34077SOL    HW2 9472   5.963   0.400   2.016 -1.3921  0.7121 -0.6060
34078SOL     OW 9473   5.515   5.215   6.732 -0.1516  0.1725 -0.3547
34078SOL    HW1 9474   5.505   5.289   6.673  0.6033 -0.8832 -1.8697
34078SOL    HW2 9475   5.609   5.202   6.741 -0.1929 -2.1536 -2.2398
34079SOL     OW 9476   3.943   7.757   9.021  0.3615  0.2946 -0.0784
34079SOL    HW1 9477   3.960   7.742   9.114  0.3203 -0.1855 -0.1437
34079SOL    HW2 9478   3.859   7.802   9.019  0.4864  0.5423  0.1285
34080SOL     OW 9479   6.125   9.451   4.334 -0.4891 -0.4238 -0.5836
34080SOL    HW1 9480   6.218   9.430   4.318 -0.0133  1.1237  0.0169
34080SOL    HW2 9481   6.106   9.411   4.419  0.3045  1.1411  0.3766
34081SOL     OW 9482   1.007  10.320   9.976 -0.5809  0.1059 -0.2607
34081SOL    HW1 9483   0.928  10.368   9.950 -0.5590 -0.5007 -1.5311
34081SOL    HW2 9484   1.075  10.387   9.982 -0.5757  0.2891 -1.9144
34082SOL     OW 9485   2.071   5.164  11.105 -0.3929  0.1040 -0.4455
34082SOL    HW1 9486   2.119   5.108  11.044 -1.0224 -0.5429 -0.3671
34082SOL    HW2 9487   2.044   5.240  11.052  0.4747  0.3509 -0.5479
34083SOL     OW 9488   1.878  12.388  11.076 -0.0104 -0.0596  0.4506
34083SOL    HW1 9489   1.966  12.379  11.038  0.1668  0.3394  0.7562
34083SOL    HW2 9490   1.889  12.454  11.145 -0.5819  0.0901  0.3986
34084SOL     OW 9491   5.785   4.343   7.630  0.0144  0.0968  0.2520
34084SOL    HW1 9492   5.784   4.395   7.711 -0.5877 -2.1924  1.8047
34084SOL    HW2 9493   5.697   4.352   7.594  0.6241  2.1224 -0.9271
34085SOL     OW 9494   1.887   4.648  12.110 -0.7514 -0.3508  0.1488
34085SOL    HW1 9495   1.857   4.583  12.174 -0.8391  0.0248  0.4961
34085SOL    HW2 9496   1.822   4.718  12.116 -1.1952 -0.6457 -0.9059
34086SOL     OW 9497   0.829  10.758   5.813 -0.0167  0.1816 -0.0829
34086SOL    HW1 9498   0.743  10.798   5.829  0.3860  0.8883  0.3333
34086SOL    HW2 9499   0.880  10.828   5.772 -0.2833 -0.8532 -2.3344
34087SOL     OW 9500   0.412  10.517  10.769 -0.0209 -0.3792  0.5712
34087SOL    HW1 9501   0.404  10.508  10.675  0.7781 -1.0045  0.5539
34087SOL    HW2 9502   0.369  10.600  10.789  0.3021  0.0416 -0.4188
34088SOL     OW 9503  12.337   9.697   0.977  0.4218 -0.2228  0.6769
34088SOL    HW1 9504  12.266   9.646   1.016  1.4044 -0.7953  1.7564
34088SOL    HW2 9505  12.311   9.789   0.991 -0.0307 -0.4241  1.1887
34089SOL     OW 9506   7.686   5.626   0.182 -0.3362 -0.5353 -0.2315
34089SOL    HW1 9507   7.676   5.532   0.169  1.1824 -0.8078  0.4042
34089SOL    HW2 9508   7.771   5.636   0.225 -0.3051  1.1619 -0.6084
34090SOL     OW 9509   9.318   0.467   5.202  0.1988 -0.0443  0.4004
34090SOL    HW1 9510   9.249   0.522   5.239 -0.5178 -0.6790  0.0313
34090SOL    HW2 9511   9.295   0.378   5.230  0.2130 -0.4044 -0.6913
34091SOL     OW 9512   2.010   5.508  12.545 -0.3384  0.2457 -0.1936
34091SOL    HW1 9513   2.025   5.439  12.480 -0.2439 -0.0608  0.1491
34091SOL    HW2 9514   2.067   5.580  12.517  3.3103 -1.4699  1.9989
34092SOL     OW 9515  10.434   0.412   5.190 -0.4287  0.2311 -0.1162
34092SOL    HW1 9516  10.363   0.473   5.211  0.2887  1.6345 -1.6052
34092SOL    HW2 9517  10.449   0.364   5.272 -1.0742  2.0026  1.0928
34093SOL     OW 9518   9.379   3.461   3.281 -0.4450 -0.1392  0.1876
34093SOL    HW1 9519   9.427   3.530   3.327  0.0916 -0.1227 -0.3885
34093SOL    HW2 9520   9.293   3.499   3.266 -0.6334 -0.1399  1.1667
34094SOL     OW 9521   1.579  10.474   0.973 -0.5916 -0.4400  0.5178
34094SOL    HW1 9522   1.607  10.387   0.945  1.2063 -0.4216  2.0222
34094SOL    HW2 9523   1.638  10.534   0.926 -1.8024 -0.0042 -0.4901
34095SOL     OW 9524   2.536   4.522   1.539 -0.2309  0.2496  0.2436
34095SOL    HW1 9525   2.596   4.559   1.474  0.9226 -1.1805  0.4453
34095SOL    HW2 9526   2.453   4.514   1.494  0.7604 -1.5772 -1.4231
34096SOL     OW 9527   5.382   1.891   6.783  0.0444  0.2174  0.1647
34096SOL    HW1 9528   5.400   1.922   6.871 -0.5118  0.3410  0.2378
34096SOL    HW2 9529   5.287   1.901   6.773  0.0482 -0.1844 -0.2950
34097SOL     OW 9530   8.765   1.253   2.400  0.5478 -0.5625 -0.4535
34097SOL    HW1 9531   8.841   1.195   2.401  0.9336 -0.0990  1.6474
34097SOL    HW2 9532   8.797   1.335   2.364  1.0758 -0.3355  0.5239
34098SOL     OW 9533   5.597   7.637   8.417 -0.0840  0.4425 -0.0368
34098SOL    HW1 9534   5.517   7.617   8.369 -1.0282  0.3202  1.5047
34098SOL    HW2 9535   5.587   7.730   8.440  0.4384  0.5447 -0.2251
34099SOL     OW 9536   3.537   9.458   1.165  0.1321  0.2888 -0.0268
34099SOL    HW1 9537   3.454   9.414   1.146  0.3450  0.3092 -1.0428
34099SOL    HW2 9538   3.535   9.471   1.260  0.3415 -2.4623  0.4267
34100SOL     OW 9539   3.243   7.626   8.341 -0.4813 -0.1539  0.4093
34100SOL    HW1 9540   3.293   7.703   8.314 -1.7808  0.8006  0.6225
34100SOL    HW2 9541   3.286   7.597   8.421  0.5164 -0.1466 -0.1081
34101SOL     OW 9542   8.098   1.019   5.990  1.0250  0.0099  0.5074
34101SOL    HW1 9543   8.088   1.089   6.054  0.8320 -0.2844  0.7983
34101SOL    HW2 9544   8.010   0.984   5.978  0.8004  0.9379 -0.9257
34102SOL     OW 9545   5.745   6.832   6.493 -0.3612  0.1942  0.3613
34102SOL    HW1 9546   5.657   6.864   6.511 -0.9142  0.2306 -2.0022
34102SOL    HW2 9547   5.803   6.897   6.533 -1.4223  0.7251  1.0653
34103SOL     OW 9548   0.034   4.381   8.244  0.0558 -0.2227 -0.0315
34103SOL    HW1 9549   0.046   4.287   8.256  2.1267  0.1757  1.5860
34103SOL    HW2 9550  -0.060   4.395   8.258 -0.7228 -2.2471 -2.4216
34104SOL     OW 9551  10.253  10.755  10.620  0.9232  0.0401 -0.3763
34104SOL    HW1 9552  10.215  10.668  10.628 -0.8720  0.8151 -0.1479
34104SOL    HW2 9553  10.336  10.740  10.574  1.8368 -2.0734  1.7246
34105SOL     OW 9554   2.783   6.682   7.463 -0.0175 -0.3742 -0.0372
34105SOL    HW1 9555   2.794   6.646   7.550  3.2077  2.6417  1.0389
34105SOL    HW2 9556   2.792   6.777   7.475 -1.1709  0.3184 -3.4474
34106SOL     OW 9557   2.039   5.269  12.403 -0.4031 -0.1578  0.0945
34106SOL    HW1 9558   2.027   5.326  12.326 -0.3649 -0.8578 -0.4413
34106SOL    HW2 9559   1.985   5.192  12.383 -0.4269 -0.3243  0.7985
34107SOL     OW 9560   5.678   0.897  10.621  0.3252  0.3781 -0.1413
34107SOL    HW1 9561   5.659   0.804  10.631 -1.4501  0.5878 -1.1426
34107SOL    HW2 9562   5.750   0.900  10.558  0.3345 -0.3332 -0.1712
34108SOL     OW 9563   6.654   8.168   7.065  0.1319  0.3778  0.2584
34108SOL    HW1 9564   6.734   8.217   7.085  0.4580  0.0447 -0.2076
34108SOL    HW2 9565   6.595   8.234   7.029  0.2485  0.5996  0.4668
34109SOL     OW 9566   2.823  10.412   7.731 -0.6758  0.0298 -0.1218
34109SOL    HW1 9567   2.755  10.436   7.793 -0.0786  0.2180  0.4692
34109SOL    HW2 9568   2.905  10.437   7.773 -0.2615  0.2687 -1.0312
34110SOL     OW 9569  10.361  10.112   6.654 -0.3220 -0.4803  0.2133
34110SOL    HW1 9570  10.351  10.041   6.591  2.3212 -1.0079  0.2548
34110SOL    HW2 9571  10.387  10.069   6.735  1.2927  0.4679  0.2454
34111SOL     OW 9572   6.974   7.755  10.566  0.5931 -0.4269  0.1695
34111SOL    HW1 9573   7.034   7.827  10.589  1.0284 -0.5677 -0.5144
34111SOL    HW2 9574   6.930   7.785  10.487  0.2743 -0.6337  0.2669
34112SOL     OW 9575   4.983   6.945  10.901 -0.3142  0.7459  0.1579
34112SOL    HW1 9576   5.001   7.008  10.971  0.8715  1.4075 -0.7109
34112SOL    HW2 9577   4.899   6.973  10.865  0.8494  2.7959 -1.1660
34113SOL     OW 9578   3.903   6.852   4.735 -0.2886  0.1999 -0.2779
34113SOL    HW1 9579   3.907   6.906   4.656 -0.6229  1.7670  0.7485
34113SOL    HW2 9580   3.813   6.861   4.766  0.0808  0.3284  0.7890
34114SOL     OW 9581  11.078   7.343   8.159 -0.3253  0.2958 -0.0496
34114SOL    HW1 9582  11.113   7.344   8.070 -1.2855  0.0938 -0.4453
34114SOL    HW2 9583  11.150   7.311   8.213  0.5341  1.1928 -0.6286
34115SOL     OW 9584   8.048   9.945   1.485  0.0821  0.2166 -0.4283
34115SOL    HW1 9585   8.045   9.859   1.443  0.0048  0.5853 -1.1944
34115SOL    HW2 9586   8.020  10.006   1.417 -0.2614  0.8066  0.2301
34116SOL     OW 9587   6.522   6.597   0.408  0.7981  0.2471  0.0176
34116SOL    HW1 9588   6.519   6.501   0.410  2.2088  0.1996  0.8772
34116SOL    HW2 9589   6.437   6.622   0.371 -0.1236 -1.2944  0.9451
34117SOL     OW 9590   5.850  11.182   0.084 -0.2820 -0.5202 -0.2425
34117SOL    HW1 9591   5.812  11.267   0.061 -0.3044 -0.1986  0.8978
34117SOL    HW2 9592   5.920  11.204   0.146  0.1424 -1.2954 -0.4408
34118SOL     OW 9593   3.697   4.071   0.649 -0.2438  0.1458  0.1716
34118SOL    HW1 9594   3.624   4.013   0.670 -1.5427  1.4115 -0.6477
34118SOL    HW2 9595   3.657   4.158   0.641  1.1797  0.7202 -1.3245
34119SOL     OW 9596   2.475   5.750   9.176  0.0847 -0.1743  0.7836
34119SOL    HW1 9597   2.432   5.811   9.116  0.3233 -1.7617 -1.1130
34119SOL    HW2 9598   2.479   5.668   9.128  3.2710 -0.6931  1.7086
34120SOL     OW 9599   8.622  11.436   0.185 -0.4208  0.6395 -0.0098
34120SOL    HW1 9600   8.621  11.401   0.096 -2.1690  2.2626 -0.6886
34120SOL    HW2 9601   8.650  11.527   0.175  0.5187  0.5252  1.2789
34121SOL     OW 9602   2.090  10.452  10.499  0.3372 -0.0424 -0.0294
34121SOL    HW1 9603   2.082  10.521  10.434 -2.8742 -0.5503 -0.3522
34121SOL    HW2 9604   2.085  10.497  10.584 -0.6853  0.2406 -0.2285
34122SOL     OW 9605   6.427   1.818   3.594 -0.2457  0.0585  0.6182
34122SOL    HW1 9606   6.410   1.889   3.531 -1.5247 -0.9366 -0.2073
34122SOL    HW2 9607   6.522   1.811   3.598 -0.1371  0.6923 -0.5848
34123SOL     OW 9608  12.308   8.410   5.265  0.1613 -0.5705 -0.0786
34123SOL    HW1 9609  12.300   8.441   5.355  1.8105  1.3867 -0.5257
34123SOL    HW2 9610  12.267   8.479   5.212  0.7721 -0.8345 -0.9186
34124SOL     OW 9611  11.259   6.428   7.879 -0.0016  0.7758 -0.4731
34124SOL    HW1 9612  11.169   6.396   7.883  0.0309  0.7324 -0.0064
34124SOL    HW2 9613  11.277   6.438   7.786 -0.6210  1.1555 -0.5590
34125SOL     OW 9614   2.010   8.025   5.285 -0.2869 -0.2326  0.5487
34125SOL    HW1 9615   1.920   8.043   5.259  0.8257  2.6818 -1.7600
34125SOL    HW2 9616   2.035   8.099   5.341  1.2623  0.1537 -0.5644
34126SOL     OW 9617  12.454   8.669   1.885 -0.2708 -0.2924  0.2724
34126SOL    HW1 9618  12.409   8.754   1.894  0.9180  0.3678  0.1387
34126SOL    HW2 9619  12.533   8.679   1.937  1.0438 -0.4807 -1.6080
34127SOL     OW 9620   1.298   1.300   6.951 -0.4819  0.2775 -0.2585
34127SOL    HW1 9621   1.283   1.343   6.867 -1.0375 -1.1157 -0.8920
34127SOL    HW2 9622   1.393   1.288   6.955 -0.5843 -1.4338 -1.6461
34128SOL     OW 9623   9.995   8.263   2.133 -0.2872 -0.0310 -0.6572
34128SOL    HW1 9624  10.042   8.231   2.056  0.7361  0.4373 -0.2513
34128SOL    HW2 9625   9.903   8.246   2.114  0.0815 -1.6080 -1.1885
34129SOL     OW 9626   5.100  10.887  11.384  0.7100 -0.1764  0.2429
34129SOL    HW1 9627   5.091  10.817  11.318  1.1985 -1.0520  1.0776
34129SOL    HW2 9628   5.011  10.917  11.399  0.5457 -0.2466 -0.5189
34130SOL     OW 9629   8.465   3.765   5.450  0.2482 -0.0337  0.6207
34130SOL    HW1 9630   8.440   3.798   5.363  0.6324 -0.7874  0.2156
34130SOL    HW2 9631   8.419   3.822   5.511  0.2834  0.7527 -0.0745
34131SOL     OW 9632   9.459   9.200   9.264  0.2357  0.4003  0.2786
34131SOL    HW1 9633   9.515   9.177   9.190 -1.2113  1.5740 -1.2701
34131SOL    HW2 9634   9.392   9.131   9.265 -0.4025  0.9925 -0.2735
34132SOL     OW 9635   7.786   8.120   9.476 -0.4211 -0.1785 -0.5386
34132SOL    HW1 9636   7.856   8.147   9.418 -1.2164  2.2379 -0.4629
34132SOL    HW2 9637   7.810   8.154   9.562  0.0388 -2.4852  0.3387
34133SOL     OW 9638  11.992   4.774  11.669 -0.0454  0.1987 -0.0044
34133SOL    HW1 9639  11.983   4.679  11.674  0.0056  0.2755  1.9655
34133SOL    HW2 9640  12.087   4.789  11.669 -0.0409  0.3155  1.8770
34134SOL     OW 9641   5.694  12.393   8.184  0.1690 -0.0342  0.5492
34134SOL    HW1 9642   5.651  12.307   8.181  0.3258 -0.0977 -0.0028
34134SOL    HW2 9643   5.752  12.388   8.260 -0.5037 -0.0885  1.0680
34135SOL     OW 9644   0.102   3.859  10.672 -0.1849  0.6853  0.1903
34135SOL    HW1 9645   0.037   3.812  10.620  0.5162 -0.6612  0.4839
34135SOL    HW2 9646   0.053   3.892  10.747 -0.8204  0.9834 -0.3464
34136SOL     OW 9647   7.385  11.985   3.042  0.2935  0.3261  0.3819
34136SOL    HW1 9648   7.434  11.907   3.067  1.3454  1.1023  0.8052
34136SOL    HW2 9649   7.442  12.032   2.982 -1.1832 -0.2409 -1.5658
34137SOL     OW 9650   4.888   5.368   7.317  0.0133 -0.1059 -0.0908
34137SOL    HW1 9651   4.883   5.389   7.224 -1.7179  1.3272  0.2779
34137SOL    HW2 9652   4.805   5.398   7.353  1.4640  1.3461  2.3173
34138SOL     OW 9653   8.981  10.549   2.122  0.1252  0.2911 -0.2232
34138SOL    HW1 9654   9.034  10.627   2.106 -1.4969  1.8946  1.6929
34138SOL    HW2 9655   9.042  10.487   2.163  0.9380  1.4678  0.4133
34139SOL     OW 9656   9.755   0.993  10.480  0.5625 -0.1944  0.0547
34139SOL    HW1 9657   9.819   0.922  10.488  2.8909  1.9438  2.4121
34139SOL    HW2 9658   9.767   1.026  10.391  0.6183 -1.6293 -0.5057
34140SOL     OW 9659   3.194   2.001   1.188 -0.1147  0.2023 -0.2244
34140SOL    HW1 9660   3.149   2.001   1.104 -2.3633 -0.1426  0.8843
34140SOL    HW2 9661   3.282   2.034   1.169 -0.5105  0.0297 -2.6896
34141SOL     OW 9662  11.180   9.820   0.801  0.1365 -0.5891 -0.6704
34141SOL    HW1 9663  11.154   9.781   0.717 -0.3095  0.0481 -0.8391
34141SOL    HW2 9664  11.164   9.914   0.790  0.5726 -0.4341 -0.0485
34142SOL     OW 9665   0.076   3.090  10.842  0.1953 -0.4590  0.0161
34142SOL    HW1 9666   0.125   3.012  10.867  0.3357  0.0709  1.4793
34142SOL    HW2 9667   0.099   3.156  10.907  1.0442  1.2444 -1.8820
34143SOL     OW 9668   0.181   9.571   9.365 -0.4193  0.2075 -0.7807
34143SOL    HW1 9669   0.142   9.618   9.440  1.0821  0.2504  0.0141
34143SOL    HW2 9670   0.267   9.611   9.355  0.7644 -2.0725 -0.3436
34144SOL     OW 9671  10.161   0.588   2.140  0.0652  0.5144  0.1533
34144SOL    HW1 9672  10.124   0.614   2.225 -0.0251 -1.6601  0.8257
34144SOL    HW2 9673  10.100   0.523   2.106  0.4992  0.8188 -1.2446
34145SOL     OW 9674   8.260   2.843  12.319 -0.0267 -0.5966  0.3859
34145SOL    HW1 9675   8.192   2.812  12.259  0.5072  1.2204 -1.2927
34145SOL    HW2 9676   8.212   2.895  12.384 -0.3685  0.0434 -0.3463
34146SOL     OW 9677   1.857  12.667   9.571  0.8128 -0.0427 -0.2982
34146SOL    HW1 9678   1.864  12.581   9.528  1.4388 -0.1644  0.0275
34146SOL    HW2 9679   1.921  12.663   9.642 -1.1653 -0.3760  1.5869
34147SOL     OW 9680  12.252   2.837   2.508  0.3174 -0.6992 -0.3224
34147SOL    HW1 9681  12.332   2.824   2.558  0.2655 -1.1948 -0.3666
34147SOL    HW2 9682  12.240   2.932   2.506 -0.7996 -0.7052  2.3489
34148SOL     OW 9683  11.956  12.005   5.483  0.0391  0.5155 -0.1669
34148SOL    HW1 9684  11.913  12.015   5.568 -0.7293  1.5378 -0.6538
34148SOL    HW2 9685  11.979  11.912   5.478 -0.9177  0.2128  0.6849
34149SOL     OW 9686   4.452   3.553   0.638 -0.3029 -0.8747  0.1872
34149SOL    HW1 9687   4.384   3.515   0.694  0.2735 -1.9101  0.1976
34149SOL    HW2 9688   4.434   3.647   0.640 -0.8176 -0.9793  1.4076
34150SOL     OW 9689   3.908  12.133   9.200  0.2452 -0.2222  0.2032
34150SOL    HW1 9690   3.861  12.215   9.209 -0.5486 -0.8318  1.9840
34150SOL    HW2 9691   3.987  12.156   9.150  1.1585  2.1084  2.4592
34151SOL     OW 9692   2.010  12.301  11.358  0.0027  0.6304  0.1946
34151SOL    HW1 9693   2.043  12.366  11.421  1.5298 -0.6576  0.7970
34151SOL    HW2 9694   1.920  12.329  11.340  0.0717  1.9859  1.6785
34152SOL     OW 9695   3.569   7.533  11.324 -0.1692 -0.5441  0.2982
34152SOL    HW1 9696   3.648   7.580  11.351 -0.5692  0.4956 -0.2845
34152SOL    HW2 9697   3.498   7.597  11.333 -0.9320 -1.3997  0.6402
34153SOL     OW 9698   9.619   1.755   0.031  0.2928 -0.1591  0.0292
34153SOL    HW1 9699   9.534   1.767   0.074 -0.6510 -0.5718 -1.6432
34153SOL    HW2 9700   9.628   1.660   0.020  0.7262 -0.0893 -0.2729
34154SOL     OW 9701  11.649   1.973   3.016  0.0039  0.2139 -0.2653
34154SOL    HW1 9702  11.554   1.980   3.017 -0.0541  0.1477 -1.8498
34154SOL    HW2 9703  11.674   1.965   3.108 -1.5712 -0.5750  0.1339
34155SOL     OW 9704   2.223   1.612   7.063 -0.4006 -0.4628 -0.3178
34155SOL    HW1 9705   2.198   1.665   6.987 -1.6955 -1.7015 -0.7993
34155SOL    HW2 9706   2.280   1.545   7.026  2.0410  1.0603  0.4382
34156SOL     OW 9707   6.998   3.407  10.411 -0.5041 -0.3173  0.1127
34156SOL    HW1 9708   6.988   3.352  10.489  2.4633 -1.9173 -0.4836
34156SOL    HW2 9709   7.010   3.344  10.339 -0.2677  1.1195 -1.1552
34157SOL     OW 9710   3.221   6.628   0.323  0.3535 -0.1204  0.0508
34157SOL    HW1 9711   3.129   6.648   0.305  0.1553 -0.1463  1.0108
34157SOL    HW2 9712   3.227   6.532   0.315 -0.0978 -0.3144  1.6413
34158SOL     OW 9713   9.295  10.731   2.981 -0.2087  0.8424  0.3752
34158SOL    HW1 9714   9.294  10.768   3.069 -1.5784  2.0270 -0.0968
34158SOL    HW2 9715   9.359  10.784   2.933  2.2563 -1.2302  1.1612
34159SOL     OW 9716  10.982   7.829   7.478 -0.4690 -0.3990 -0.1704
34159SOL    HW1 9717  10.979   7.785   7.563 -0.6696  0.0446  0.0583
34159SOL    HW2 9718  10.978   7.922   7.500  1.5192 -0.1819 -0.5473
34160SOL     OW 9719   7.263   9.952   0.304  0.4523  0.0271 -0.9109
34160SOL    HW1 9720   7.187   9.894   0.296  0.4575 -0.0001 -0.7649
34160SOL    HW2 9721   7.329   9.911   0.249  0.9460 -0.9259  0.3169
34161SOL     OW 9722  10.857   4.017  10.930 -0.4523 -0.4433  0.1093
34161SOL    HW1 9723  10.917   4.047  10.862 -1.0198 -1.2780 -0.7939
34161SOL    HW2 9724  10.909   3.957  10.984  0.4585  1.4606  1.4416
34162SOL     OW 9725   3.078   1.113   1.987  0.3425 -0.0001 -0.0840
34162SOL    HW1 9726   3.145   1.109   2.055  0.7332 -1.7923 -0.5453
34162SOL    HW2 9727   3.060   1.207   1.978  1.5289  0.3978  1.2564
34163SOL     OW 9728   7.068   9.479   9.106  0.1046 -0.2656  0.2718
34163SOL    HW1 9729   7.049   9.463   9.013 -1.3733 -0.2668  0.5497
34163SOL    HW2 9730   7.009   9.550   9.131 -0.5141 -1.1727  1.5354
34164SOL     OW 9731   6.979   9.015   1.910 -0.3821  0.2361 -0.3260
34164SOL    HW1 9732   7.063   9.013   1.864  0.3807 -0.8630  1.0362
34164SOL    HW2 9733   6.958   9.109   1.916  0.9402  0.5559 -0.3326
34165SOL     OW 9734  10.630   1.582   4.811 -0.6646  0.3290  0.6390
34165SOL    HW1 9735  10.541   1.616   4.799 -0.9525 -0.1577  1.3499
34165SOL    HW2 9736  10.636   1.563   4.904  0.7244  1.8347  0.9010
34166SOL     OW 9737  12.089   9.829   5.368 -0.2463 -0.3697  0.1295
34166SOL    HW1 9738  12.179   9.808   5.392  0.1712 -0.8043 -1.6677
34166SOL    HW2 9739  12.094   9.853   5.275 -1.7628  1.0422  0.3687
34167SOL     OW 9740   2.113  11.494   2.712 -0.0630 -0.0366 -0.9041
34167SOL    HW1 9741   2.086  11.554   2.782 -0.4989 -1.2404 -0.0031
34167SOL    HW2 9742   2.174  11.545   2.659  0.6409  0.7825  0.6183
34168SOL     OW 9743   0.609  10.089   3.160  0.4269  0.1800 -0.7143
34168SOL    HW1 9744   0.674  10.125   3.221  0.1850  1.6022 -1.2676
34168SOL    HW2 9745   0.559  10.165   3.130  0.1753 -0.5652 -2.2728
34169SOL     OW 9746   6.060   4.038  12.697  0.4413 -0.0836  0.0064
34169SOL    HW1 9747   5.990   4.103  12.702 -0.6897 -1.1217 -1.7435
34169SOL    HW2 9748   6.015   3.954  12.690  1.8637 -0.8462 -0.3127
34170SOL     OW 9749  11.117   2.941   9.052  0.0315  0.0587  0.4390
34170SOL    HW1 9750  11.140   2.938   8.959  0.2135  1.4758  0.4162
34170SOL    HW2 9751  11.022   2.952   9.052  0.0704  0.4171  0.4038
34171SOL     OW 9752   4.965   3.604   9.351  0.5351  0.4942 -0.4693
34171SOL    HW1 9753   5.020   3.566   9.282  0.7376 -1.0632  0.5140
34171SOL    HW2 9754   4.877   3.603   9.313  0.5388 -0.9715 -0.4873
34172SOL     OW 9755  10.731   4.494   5.881 -0.1990  0.4203  0.1138
34172SOL    HW1 9756  10.763   4.535   5.801  0.0280  0.9132  0.4485
34172SOL    HW2 9757  10.696   4.567   5.932 -0.4438  0.0936  0.4134
34173SOL     OW 9758   3.987   7.249  12.471 -0.5614  0.1953 -0.6385
34173SOL    HW1 9759   4.063   7.199  12.500  1.1380  2.0497 -1.6225
34173SOL    HW2 9760   3.942   7.275  12.551  0.2047 -0.3947 -0.0093
34174SOL     OW 9761   5.681   0.001  12.241 -0.6719  0.3480 -0.0252
34174SOL    HW1 9762   5.740  -0.011  12.315 -1.0914  0.6075  0.3540
34174SOL    HW2 9763   5.736  -0.018  12.164  0.0140  0.9462  0.2994
34175SOL     OW 9764   1.751   7.625   9.882 -0.3879 -0.0414  0.2540
34175SOL    HW1 9765   1.694   7.685   9.835 -0.9596 -0.8583 -0.1158
34175SOL    HW2 9766   1.723   7.631   9.973  0.0159  0.7484  0.3351
34176SOL     OW 9767   5.350   8.705  11.743  1.1749  0.0550 -0.1855
34176SOL    HW1 9768   5.284   8.754  11.694  0.0844 -0.0854  1.0783
34176SOL    HW2 9769   5.319   8.615  11.742  2.2984 -0.3519 -1.0712
34177SOL     OW 9770   9.838   0.282   1.039 -0.3133 -0.2472 -1.0412
34177SOL    HW1 9771   9.893   0.338   1.094 -0.5929  0.6215 -1.6243
34177SOL    HW2 9772   9.861   0.306   0.949 -1.1668 -0.3341 -1.2970
34178SOL     OW 9773   0.995   3.686   5.786 -0.4352  0.3993 -0.2499
34178SOL    HW1 9774   0.941   3.650   5.856 -1.0653  2.8793  0.6627
34178SOL    HW2 9775   0.940   3.683   5.708  0.4495 -2.8454 -0.8757
34179SOL     OW 9776  11.493   6.864   3.126  0.0442 -0.1485 -0.5590
34179SOL    HW1 9777  11.530   6.947   3.096 -0.6542  0.3261 -0.1293
34179SOL    HW2 9778  11.566   6.817   3.166  0.1963  0.7459  0.2233
34180SOL     OW 9779   1.018   5.420   5.996  0.4311  0.8417  0.2653
34180SOL    HW1 9780   1.082   5.416   5.925  0.5954  1.2389  0.3926
34180SOL    HW2 9781   1.065   5.458   6.070  0.2256  0.5386  0.5551
34181SOL     OW 9782   8.930  11.907   9.490  0.1777 -0.2593  0.1336
34181SOL    HW1 9783   8.995  11.955   9.541 -0.0908  1.0796 -0.7191
34181SOL    HW2 9784   8.872  11.867   9.555 -0.6330  2.0624  0.9310
34182SOL     OW 9785   6.350   6.986   3.442 -0.0045  0.1630 -0.1426
34182SOL    HW1 9786   6.265   6.985   3.485  0.8950  0.1645  1.7529
34182SOL    HW2 9787   6.397   7.060   3.481  0.7296  0.4322 -1.4610
34183SOL     OW 9788   2.176   7.356   0.704 -0.3731 -0.2418  0.1086
34183SOL    HW1 9789   2.148   7.432   0.755 -1.3024  0.8223 -1.9085
34183SOL    HW2 9790   2.130   7.282   0.743 -1.9471  0.7196  0.1186
34184SOL     OW 9791   6.019   0.366   4.607  0.1511 -0.1617 -0.4263
34184SOL    HW1 9792   6.085   0.379   4.539 -0.1184  0.2503 -0.6146
34184SOL    HW2 9793   5.987   0.277   4.593  0.7500 -0.4075 -0.2576
34185SOL     OW 9794   6.065   5.064   8.245 -0.3919 -0.2096 -0.5545
34185SOL    HW1 9795   6.090   4.995   8.306 -0.0350 -0.5032 -1.0182
34185SOL    HW2 9796   6.118   5.140   8.270  2.0677 -1.1894 -2.3191
34186SOL     OW 9797   7.915   8.578  11.244  0.1608 -0.0019 -0.1948
34186SOL    HW1 9798   7.969   8.654  11.225 -0.4779  0.9780  1.6025
34186SOL    HW2 9799   7.846   8.611  11.302 -0.6265 -1.7873 -0.0234
34187SOL     OW 9800   6.295  11.644   2.506 -0.4259 -0.2012  0.0318
34187SOL    HW1 9801   6.203  11.621   2.497 -0.4252 -0.4289  0.6242
34187SOL    HW2 9802   6.340  11.561   2.521 -0.0018 -0.2068 -1.1449
34188SOL     OW 9803   1.692   4.253   3.385  0.1317  0.0831 -0.2590
34188SOL    HW1 9804   1.611   4.207   3.408 -0.3194  0.9835 -0.0158
34188SOL    HW2 9805   1.663   4.338   3.352  1.0011  1.9254  3.1589
34189SOL     OW 9806   8.669   7.949   5.823 -0.4634  0.2410  0.2120
34189SOL    HW1 9807   8.577   7.953   5.851 -0.5075 -0.5852  0.1988
34189SOL    HW2 9808   8.682   7.859   5.795 -0.3018  0.9286 -2.0990
34190SOL     OW 9809   1.278  12.465  12.308 -0.6598 -0.2849 -0.0917
34190SOL    HW1 9810   1.190  12.502  12.306 -0.1617  0.9244 -0.7537
34190SOL    HW2 9811   1.324  12.516  12.376 -0.8281 -1.8060  1.2105
34191SOL     OW 9812  10.618   1.288   8.606  0.4210 -0.1502 -0.3229
34191SOL    HW1 9813  10.671   1.357   8.646  0.1023 -0.0087 -0.1460
34191SOL    HW2 9814  10.663   1.207   8.630  1.0566  0.0119 -0.9139
34192SOL     OW 9815   0.641   8.308   0.853  0.0842 -0.0736  0.5877
34192SOL    HW1 9816   0.641   8.229   0.798  1.2059 -1.6343  2.6660
34192SOL    HW2 9817   0.571   8.293   0.916  0.2384  0.6311  0.9342
34193SOL     OW 9818  12.401   8.862   9.004  0.4915 -0.3885 -0.3535
34193SOL    HW1 9819  12.320   8.906   8.982  0.5219 -0.0606  0.1784
34193SOL    HW2 9820  12.393   8.775   8.964 -0.2727 -0.4915  0.0047
34194SOL     OW 9821  10.807  11.611  10.934  0.0951 -0.2853 -0.9454
34194SOL    HW1 9822  10.714  11.614  10.911  0.6050 -0.9977 -3.4041
34194SOL    HW2 9823  10.836  11.525  10.902  1.0323 -1.3047  2.3181
34195SOL     OW 9824   4.264   7.639   6.623  0.3327 -0.0209  0.4579
34195SOL    HW1 9825   4.223   7.651   6.537  2.5118 -1.1247 -0.8434
34195SOL    HW2 9826   4.348   7.685   6.616  0.4007  0.1762  2.1390
34196SOL     OW 9827  12.475   7.267   4.616 -0.0360  0.0039 -0.1512
34196SOL    HW1 9828  12.458   7.174   4.600 -0.8131 -0.2059  1.6444
34196SOL    HW2 9829  12.540   7.269   4.686 -1.2129  0.7637  0.9759
34197SOL     OW 9830   2.294  11.091   4.071 -0.6106 -0.4101  0.0562
34197SOL    HW1 9831   2.320  11.168   4.121  0.8536 -1.3352  0.8139
34197SOL    HW2 9832   2.365  11.079   4.007 -0.7663 -1.1653  0.0127
34198SOL     OW 9833   6.776   9.976   7.479  0.1592 -0.3653 -0.2541
34198SOL    HW1 9834   6.865  10.005   7.461 -0.1413 -0.1417 -1.4816
34198SOL    HW2 9835   6.740   9.954   7.393 -1.3584  0.7189  0.0473
34199SOL     OW 9836   4.002   8.215   3.247 -0.2840 -0.1018  0.0130
34199SOL    HW1 9837   3.961   8.162   3.315  1.7578  0.1323  1.5228
34199SOL    HW2 9838   4.054   8.281   3.295  1.7657 -0.3363 -1.7083
34200SOL     OW 9839   4.427   0.770   6.484 -0.1534  0.3334 -0.3135
34200SOL    HW1 9840   4.397   0.733   6.401 -2.1043 -0.3170  0.6288
34200SOL    HW2 9841   4.391   0.712   6.551  2.2420  0.2591  0.9964
34201SOL     OW 9842   5.800  11.787  11.736 -0.3446  0.0984  0.0531
34201SOL    HW1 9843   5.843  11.868  11.763  0.9585 -1.2619  2.4829
34201SOL    HW2 9844   5.870  11.721  11.740 -1.5607 -1.3102 -0.9420
34202SOL     OW 9845  12.095   3.585   3.243  0.2775  0.2130 -0.3451
34202SOL    HW1 9846  12.144   3.528   3.302  0.4718  0.3628 -0.3617
34202SOL    HW2 9847  12.094   3.670   3.287 -2.0560 -0.3549  0.8275
34203SOL     OW 9848  11.742   1.789   1.497  0.3693 -0.4564 -0.1114
34203SOL    HW1 9849  11.816   1.799   1.437 -0.3247  2.6040 -0.6231
34203SOL    HW2 9850  11.699   1.874   1.496 -1.4999 -1.2577  2.4041
34204SOL     OW 9851   3.122   2.347   3.503 -0.3527 -0.5913  0.0468
34204SOL    HW1 9852   3.193   2.323   3.444 -1.2611 -1.5325 -0.6816
34204SOL    HW2 9853   3.066   2.270   3.508 -1.5440  0.2494  0.2995
34205SOL     OW 9854   4.618   4.163   9.410  0.2258 -0.0695 -0.3081
34205SOL    HW1 9855   4.673   4.203   9.477 -0.2867  0.1522 -0.0114
34205SOL    HW2 9856   4.621   4.069   9.430 -0.1939  0.0232  0.2464
34206SOL     OW 9857  11.953   0.568   1.538  0.2152  0.4658  0.2673
34206SOL    HW1 9858  12.026   0.629   1.529  1.5772 -1.2610 -0.9542
34206SOL    HW2 9859  11.954   0.544   1.631  0.0170  1.8175  0.6404
34207SOL     OW 9860   5.571  12.573   6.260 -0.4744 -0.4817  0.6115
34207SOL    HW1 9861   5.617  12.620   6.330 -0.6940  0.3545  0.2146
34207SOL    HW2 9862   5.485  12.554   6.297 -0.4080 -0.5123  0.7517
34208SOL     OW 9863   3.195   1.096  12.251 -0.0205 -0.5268  0.3872
34208SOL    HW1 9864   3.149   1.178  12.235 -0.0032 -0.2265  1.7648
34208SOL    HW2 9865   3.180   1.044  12.172  0.1712  0.8840 -0.6171
34209SOL     OW 9866   5.802  11.636   3.132  0.0346 -0.0936  0.0963
34209SOL    HW1 9867   5.896  11.634   3.112  0.0232 -1.7158  0.0743
34209SOL    HW2 9868   5.797  11.611   3.225 -0.2943  1.6898  0.6023
34210SOL     OW 9869   6.135   2.600   2.357 -0.6208  0.1868 -0.0549
34210SOL    HW1 9870   6.046   2.581   2.387  0.3361 -1.2489  2.1227
34210SOL    HW2 9871   6.133   2.694   2.335 -2.7059  0.1244 -0.2972
34211SOL     OW 9872  10.301   7.533   8.142  0.0246  0.5379  0.9014
34211SOL    HW1 9873  10.375   7.478   8.114 -0.9968 -0.5930  0.3264
34211SOL    HW2 9874  10.342   7.615   8.169  1.3459  0.8369 -1.6316
34212SOL     OW 9875   9.564   5.954   7.645  0.2742 -0.5440  0.0724
34212SOL    HW1 9876   9.597   5.884   7.701  0.7845  1.7892  2.9690
34212SOL    HW2 9877   9.591   6.035   7.690 -1.5749  1.5254 -2.2576
34213SOL     OW 9878   0.026   9.314   5.712  1.0271 -0.1357 -0.1906
34213SOL    HW1 9879   0.035   9.261   5.632  0.7272  0.8204 -0.8792
34213SOL    HW2 9880   0.107   9.365   5.716  0.9786 -0.0755  0.0304
34214SOL     OW 9881  10.786   2.946   5.595 -0.5738  0.1942 -0.4236
34214SOL    HW1 9882  10.822   3.020   5.644  1.7139 -0.3693 -1.1601
34214SOL    HW2 9883  10.698   2.935   5.630 -0.1383  1.7940  1.3206
34215SOL     OW 9884   1.387  11.354  11.127  0.0472 -0.3959  0.2763
34215SOL    HW1 9885   1.454  11.287  11.117 -0.4276 -0.5387 -2.8758
34215SOL    HW2 9886   1.337  11.351  11.045 -2.3379  1.2978  1.5383
34216SOL     OW 9887  11.049   9.956   1.899 -0.0029  0.1107 -0.1025
34216SOL    HW1 9888  11.038   9.864   1.874  0.4514 -0.4908  1.7564
34216SOL    HW2 9889  11.143   9.968   1.905 -0.0710  0.5986  0.0200
34217SOL     OW 9890   2.516   2.318   4.470  0.2599  0.2197 -0.3266
34217SOL    HW1 9891   2.548   2.319   4.560 -1.1506 -3.5132  0.3875
34217SOL    HW2 9892   2.595   2.328   4.417  2.0816 -3.1725  1.3985
34218SOL     OW 9893   1.141   6.716   6.489 -0.1567 -0.2620 -0.1835
34218SOL    HW1 9894   1.113   6.786   6.548 -0.4255 -1.2894  0.9510
34218SOL    HW2 9895   1.200   6.759   6.427 -0.3193  0.9637  0.4778
34219SOL     OW 9896  12.687  12.007   4.439 -0.2072  0.1313 -0.5379
34219SOL    HW1 9897  12.736  12.038   4.515  0.6717  1.1174 -1.4617
34219SOL    HW2 9898  12.601  11.982   4.474  1.0117 -2.0224  1.2056
34220SOL     OW 9899   3.196   3.356   4.624 -0.1864 -0.3721 -0.1644
34220SOL    HW1 9900   3.145   3.435   4.645  1.4387  0.9742 -0.9683
34220SOL    HW2 9901   3.231   3.374   4.536  0.7195 -1.7404 -0.1051
34221SOL     OW 9902   7.282   4.885  12.698 -0.0070 -0.4399  0.2292
34221SOL    HW1 9903   7.351   4.948  12.679  0.6383 -0.5135  2.0673
34221SOL    HW2 9904   7.214   4.937  12.742  0.3426 -0.9054  1.3664
34222SOL     OW 9905   9.155   0.623   7.563 -0.4359 -0.1051  0.1313
34222SOL    HW1 9906   9.144   0.587   7.475 -2.4674 -0.9884  0.6929
34222SOL    HW2 9907   9.069   0.660   7.584  0.3809  1.1986  1.2746
34223SOL     OW 9908  11.117   5.662   4.730 -1.0549  0.2373 -0.5512
34223SOL    HW1 9909  11.057   5.588   4.719 -0.6625 -0.1609 -0.0948
34223SOL    HW2 9910  11.141   5.688   4.641 -0.3624 -0.8817 -0.7069
34224SOL     OW 9911   7.135   5.899   5.936 -0.4684 -0.0689 -0.7553
34224SOL    HW1 9912   7.214   5.845   5.928  1.1297  2.2583 -1.6346
34224SOL    HW2 9913   7.088   5.885   5.854  0.6389  0.8877 -1.5699
34225SOL     OW 9914   4.154   7.653   2.828 -0.0002  0.0334  0.1235
34225SOL    HW1 9915   4.101   7.636   2.750 -0.5315 -1.9113  0.8378
34225SOL    HW2 9916   4.208   7.728   2.804 -0.8194  0.0918 -1.7688
34226SOL     OW 9917   3.754   5.671   1.212  0.6053  0.2440 -0.1792
34226SOL    HW1 9918   3.778   5.649   1.122  1.1103 -2.3607  0.5169
34226SOL    HW2 9919   3.675   5.725   1.203  1.2184  0.8847 -2.1922
34227SOL     OW 9920   1.927   4.465   0.315  0.1601 -0.7103 -0.3186
34227SOL    HW1 9921   1.967   4.506   0.238  0.4203 -0.0492  0.1687
34227SOL    HW2 9922   1.930   4.532   0.383  0.0300 -1.3268  0.3045
34228SOL     OW 9923  12.382   9.798   9.662 -0.1640  0.1223 -0.3858
34228SOL    HW1 9924  12.310   9.839   9.614  0.7864  1.3834 -0.8167
34228SOL    HW2 9925  12.369   9.824   9.753 -1.2217 -1.1537 -0.1426
34229SOL     OW 9926   7.005   2.854   6.731  0.0210 -0.5967 -0.0886
34229SOL    HW1 9927   7.091   2.821   6.702  0.0385 -0.1798 -0.5337
34229SOL    HW2 9928   7.022   2.944   6.758 -0.6435  0.2390 -2.2539
34230SOL     OW 9929   4.747   4.304   6.468  0.5222  0.0180 -0.0382
34230SOL    HW1 9930   4.722   4.371   6.405 -1.5725  0.5266  1.2595
34230SOL    HW2 9931   4.755   4.224   6.416 -1.5152  0.3518 -0.9423
34231SOL     OW 9932   5.390  12.710  10.250  0.1414 -0.1216  0.0147
34231SOL    HW1 9933   5.464  12.653  10.269  1.6449  1.9893  0.7748
34231SOL    HW2 9934   5.427  12.798  10.244 -2.2882  1.0213  0.3515
34232SOL     OW 9935   0.346   4.095   8.130 -0.1123 -0.5160  0.4025
34232SOL    HW1 9936   0.423   4.048   8.163 -0.0202  0.1031  1.0969
34232SOL    HW2 9937   0.381   4.154   8.063  0.3313  1.0792  1.9690
34233SOL     OW 9938  10.621   2.411  10.893  0.2558 -0.1154 -0.1891
34233SOL    HW1 9939  10.560   2.391  10.964  0.2594 -0.1505 -0.1961
34233SOL    HW2 9940  10.600   2.501  10.869 -1.4351 -0.8769 -1.8267
34234SOL     OW 9941   6.422   5.333   5.319 -0.1571  0.4071 -0.6935
34234SOL    HW1 9942   6.440   5.387   5.396  1.2866 -1.8972  0.7078
34234SOL    HW2 9943   6.484   5.365   5.253 -0.0763  1.1719 -0.2555
34235SOL     OW 9944   5.702  11.939  10.493 -0.7489  0.4199 -0.0077
34235SOL    HW1 9945   5.739  11.988  10.566 -2.3880 -0.2524  1.3623
34235SOL    HW2 9946   5.737  11.981  10.414  2.6939 -0.0598  1.0964
34236SOL     OW 9947  10.934   4.610   0.717 -0.2167  0.0523 -0.6403
34236SOL    HW1 9948  10.993   4.553   0.767 -0.6777 -0.3330 -0.5146
34236SOL    HW2 9949  10.984   4.636   0.640 -0.0375 -0.6369 -0.7637
34237SOL     OW 9950  11.492   1.031   6.697 -0.7506  0.2816  0.0509
34237SOL    HW1 9951  11.466   0.959   6.638 -1.7519  0.3711  0.3684
34237SOL    HW2 9952  11.515   0.987   6.779 -0.1137  0.2220 -0.1565
34238SOL     OW 9953   3.705   3.328   3.866 -0.2268  0.0211 -0.1927
34238SOL    HW1 9954   3.733   3.396   3.805  1.2780 -0.2137  0.2057
34238SOL    HW2 9955   3.777   3.320   3.928 -1.1461 -0.7012  0.8181
34239SOL     OW 9956   8.628   3.526   9.496 -0.1363 -0.1733  0.2057
34239SOL    HW1 9957   8.721   3.548   9.494  0.0091 -0.8081 -1.6591
34239SOL    HW2 9958   8.625   3.440   9.539  0.3535 -0.9086 -1.1672
34240SOL     OW 9959   5.820  10.603   6.689 -0.1321  0.0624  0.0913
34240SOL    HW1 9960   5.835  10.647   6.773  0.5146 -0.3334  0.1869
34240SOL    HW2 9961   5.728  10.579   6.691 -0.4689  1.2662  0.1078
34241SOL     OW 9962   9.268  12.456   9.957  0.0062 -0.5410  0.2242
34241SOL    HW1 9963   9.198  12.519   9.940 -1.4116 -2.1721 -0.2935
34241SOL    HW2 9964   9.328  12.501  10.016 -0.4968  1.5709 -0.7945
34242SOL     OW 9965   9.125   0.402  10.050  0.8594 -0.4551  0.0382
34242SOL    HW1 9966   9.110   0.449  10.132 -0.0876 -0.5670 -0.0548
34242SOL    HW2 9967   9.183   0.459   9.999  1.9834 -0.6825  1.0310
34243SOL     OW 9968   4.912   7.462   5.463 -0.4591  0.6052  0.4133
34243SOL    HW1 9969   4.891   7.368   5.463 -0.1765  0.3693 -3.3503
34243SOL    HW2 9970   5.004   7.465   5.488 -0.4687 -0.1483  0.5850
34244SOL     OW 9971   1.593  11.222   6.895 -0.3991  0.1667  0.3792
34244SOL    HW1 9972   1.645  11.247   6.818 -3.0455 -0.0393 -1.6228
34244SOL    HW2 9973   1.552  11.304   6.923 -0.6642 -0.0464  0.6134
34245SOL     OW 9974   0.124   8.322   0.970 -0.5150 -0.3889 -0.3923
34245SOL    HW1 9975   0.073   8.250   0.933 -0.6021  0.9004 -2.9737
34245SOL    HW2 9976   0.059   8.375   1.018 -0.7862 -1.0117 -0.0593
34246SOL     OW 9977   2.813   5.454  11.796  0.1883  0.0417 -0.2974
34246SOL    HW1 9978   2.799   5.363  11.770 -1.4835 -0.1958  1.2281
34246SOL    HW2 9979   2.898   5.478  11.758  1.1632 -2.4794  0.1323
34247SOL     OW 9980  11.810   4.072  10.777  0.1978  0.2076  0.1247
34247SOL    HW1 9981  11.771   4.034  10.699  0.7441 -2.2846  0.9739
34247SOL    HW2 9982  11.884   4.015  10.798  0.2299  0.9323  2.3061
34248SOL     OW 9983   4.547   5.767   0.635 -0.2721 -0.2935  0.6462
34248SOL    HW1 9984   4.636   5.733   0.632 -0.1108  0.1815 -0.5492
34248SOL    HW2 9985   4.534   5.809   0.550 -1.7525 -0.6234  0.6796
34249SOL     OW 9986   2.327   5.176   0.992  0.2334 -0.2929  0.1613
34249SOL    HW1 9987   2.301   5.216   1.075 -0.9157 -0.6305 -0.0231
34249SOL    HW2 9988   2.416   5.143   1.007  1.3644  2.5021  0.2624
34250SOL     OW 9989   0.449   2.608   9.368  0.1189  0.0107 -0.2095
34250SOL    HW1 9990   0.396   2.669   9.420 -3.2265 -1.9369 -1.0939
34250SOL    HW2 9991   0.490   2.552   9.434  1.1453  1.4830  0.4854
34251SOL     OW 9992   7.134  12.401   0.398 -0.5587  0.1927 -0.6837
34251SOL    HW1 9993   7.135  12.480   0.344  0.9390  0.8156  0.1793
34251SOL    HW2 9994   7.195  12.342   0.354  0.8388  0.7848  0.3772
34252SOL     OW 9995   1.237   5.109   9.614 -0.8539  0.0263  0.2532
34252SOL    HW1 9996   1.150   5.071   9.626 -0.7537 -0.2470  0.1179
34252SOL    HW2 9997   1.295   5.053   9.664 -0.6097 -0.4035 -0.5025
34253SOL     OW 9998   6.944   5.599   6.508 -0.0904 -0.4383  0.2731
34253SOL    HW1 9999   6.958   5.691   6.531  1.2095 -0.5926  0.1580
34253SOL    HW210000   6.877   5.601   6.439  1.2999  0.5883 -1.1116
34254SOL     OW10001   0.855   4.032  12.031  0.7247 -0.0836 -0.2437
34254SOL    HW110002   0.877   3.941  12.010  2.5216  0.4442 -0.8865
34254SOL    HW210003   0.858   4.037  12.126 -1.0120 -1.0309 -0.0957
34255SOL     OW10004   5.802   0.436   2.373 -0.2756  0.1241 -0.9394
34255SOL    HW110005   5.874   0.448   2.311 -0.4037 -0.2784 -1.1699
34255SOL    HW210006   5.820   0.498   2.443  0.0324  0.3722 -1.2364
34256SOL     OW10007   5.611   0.426   4.592 -0.0370  0.7474  0.4115
34256SOL    HW110008   5.649   0.340   4.574  1.4504  0.8124  2.7974
34256SOL    HW210009   5.521   0.407   4.618 -0.1799  0.0908 -0.4995
34257SOL     OW10010   4.284   7.159   4.927 -0.9339  0.3133 -0.5954
34257SOL    HW110011   4.213   7.138   4.987 -0.3740  0.2975  0.0736
34257SOL    HW210012   4.307   7.250   4.947  0.2685 -0.1590  0.2939
34258SOL     OW10013   5.836  10.134   7.513 -0.1685 -0.3877 -0.2738
34258SOL    HW110014   5.772  10.068   7.485 -1.6644  1.0185 -0.3510
34258SOL    HW210015   5.794  10.218   7.492  2.6195  0.6160 -2.2894
34259SOL     OW10016   7.011   3.719   5.962  0.1175  0.2191 -0.1918
34259SOL    HW110017   7.014   3.633   5.921  0.5018  0.3590 -0.4589
34259SOL    HW210018   7.102   3.739   5.983 -0.0391  0.2789  0.4616
34260SOL     OW10019   3.699   9.856   8.133  0.4775 -0.3441  0.3861
34260SOL    HW110020   3.772   9.905   8.171  0.6988 -0.8724  0.6532
34260SOL    HW210021   3.727   9.764   8.139 -0.2018 -0.5467  0.4652
34261SOL     OW10022  12.601  11.317   7.223  0.2518 -0.6363  0.1810
34261SOL    HW110023  12.653  11.245   7.186  1.0419  0.0031  0.0099
34261SOL    HW210024  12.531  11.274   7.270  0.1314 -1.5118 -0.7559
34262SOL     OW10025   1.494  12.683   8.764 -0.3481  0.2488 -0.0689
34262SOL    HW110026   1.446  12.765   8.757  0.1961  0.8318  2.2428
34262SOL    HW210027   1.431  12.616   8.736 -2.3932  1.0449  2.3135
34263SOL     OW10028   3.374   5.134  12.536 -0.6722  0.3279 -0.6603
34263SOL    HW110029   3.338   5.143  12.448 -0.2109  3.4982 -0.6373
34263SOL    HW210030   3.335   5.207  12.585 -0.0059 -0.6560  1.4536
34264SOL     OW10031   5.713   2.471   7.757 -0.2776 -0.5221  0.9235
34264SOL    HW110032   5.654   2.409   7.800 -1.0295 -0.2922  0.2485
34264SOL    HW210033   5.670   2.556   7.767 -1.2950 -0.6604 -1.6072
34265SOL     OW10034   9.356   8.752   2.937 -0.4068  0.6378  0.0773
34265SOL    HW110035   9.271   8.724   2.902 -1.3175  1.9332  1.1451
34265SOL    HW210036   9.396   8.800   2.866 -0.3147 -0.4229 -0.6137
34266SOL     OW10037   2.798   4.195   7.046 -0.3118  0.8764 -0.2576
34266SOL    HW110038   2.876   4.174   7.098  0.0386  2.2847 -0.1824
34266SOL    HW210039   2.791   4.122   6.984 -0.1887 -0.3516  1.1054
34267SOL     OW10040   9.656  11.446   3.235 -0.2712 -0.7788 -0.1565
34267SOL    HW110041   9.621  11.361   3.261 -0.4676 -0.6520 -0.0055
34267SOL    HW210042   9.689  11.484   3.317 -0.2241 -0.6887 -0.2168
34268SOL     OW10043   7.925  12.675   4.183  0.6317 -0.3801  0.6049
34268SOL    HW110044   7.843  12.720   4.164  1.1254  0.1808 -0.3138
34268SOL    HW210045   7.900  12.596   4.230 -0.5186 -0.7534 -0.5974
34269SOL     OW10046  11.269   6.775   9.538 -0.6448  0.1127  0.0299
34269SOL    HW110047  11.334   6.766   9.607 -1.2886 -0.0095  0.6354
34269SOL    HW210048  11.204   6.835   9.574 -0.0746  1.5185 -1.1821
34270SOL     OW10049  12.035   1.149   6.603 -0.2106  0.5063 -0.3178
34270SOL    HW110050  12.016   1.221   6.542 -0.2941 -0.4363 -1.4421
34270SOL    HW210051  12.078   1.083   6.549  1.4509  0.3910  1.0407
34271SOL     OW10052   7.791   6.976   2.655 -0.2134  0.4935 -0.7072
34271SOL    HW110053   7.878   6.943   2.635  0.3655  1.6858 -0.2139
34271SOL    HW210054   7.732   6.909   2.621  0.9038 -1.0873  0.3243
34272SOL     OW10055   7.756  11.635   5.266 -0.1073  0.1561 -0.1294
34272SOL    HW110056   7.778  11.559   5.320  2.5998 -1.5461 -3.3180
34272SOL    HW210057   7.838  11.683   5.257 -1.4526  2.7934  0.5995
34273SOL     OW10058   9.272   7.722   6.758  0.0752 -0.3706  0.2251
34273SOL    HW110059   9.345   7.662   6.773 -2.6616 -3.4338  3.1588
34273SOL    HW210060   9.278   7.785   6.830  0.6034  0.3611 -0.4369
34274SOL     OW10061  10.674   7.672   4.745  0.4593 -0.0460 -0.4199
34274SOL    HW110062  10.693   7.582   4.770 -0.1970  0.1632  0.9449
34274SOL    HW210063  10.610   7.702   4.810  1.4666  1.7453 -0.2015
34275SOL     OW10064   6.370   6.261   8.569 -0.0640 -0.5908  0.3328
34275SOL    HW110065   6.346   6.229   8.482  1.7845 -1.9715  0.2588
34275SOL    HW210066   6.305   6.328   8.589 -1.1133 -0.9239 -1.6912
34276SOL     OW10067   1.172   7.392   2.109  0.3330  0.1658  0.5822
34276SOL    HW110068   1.215   7.404   2.024 -0.1937  0.1616  0.3112
34276SOL    HW210069   1.131   7.477   2.127 -2.1001 -0.6512 -0.6096
34277SOL     OW10070   9.097   4.587   1.431  0.5598  0.0086  0.5839
34277SOL    HW110071   9.027   4.621   1.486  1.0021  0.7880  0.6772
34277SOL    HW210072   9.059   4.586   1.343  0.6013  0.9428  0.5479
34278SOL     OW10073   0.214   7.237   1.352 -0.3533  0.6323  0.4217
34278SOL    HW110074   0.158   7.258   1.277 -0.3231  0.5596  0.3787
34278SOL    HW210075   0.247   7.322   1.381 -1.1663  0.7684  0.9851
34279SOL     OW10076  11.387   0.831   9.753  0.1081  0.8726  0.3829
34279SOL    HW110077  11.464   0.796   9.799  1.0199  2.9583  0.5371
34279SOL    HW210078  11.403   0.810   9.661 -1.1754 -2.2946  0.7227
34280SOL     OW10079   0.598  10.216   1.107  0.4327  0.0216  0.0442
34280SOL    HW110080   0.518  10.199   1.058 -0.9171 -1.0698  2.4811
34280SOL    HW210081   0.611  10.311   1.100 -0.2692  0.0288 -1.4915
34281SOL     OW10082   1.936   6.569   2.371  0.3536 -0.6091 -0.0900
34281SOL    HW110083   1.895   6.635   2.315 -0.9295 -0.9659  0.3982
34281SOL    HW210084   1.983   6.619   2.438 -0.5518 -0.1728  0.2315
34282SOL     OW10085   9.316   6.700   5.776 -0.2318  0.3050  0.5701
34282SOL    HW110086   9.226   6.732   5.786  0.1622  1.5395  0.2961
34282SOL    HW210087   9.310   6.606   5.795 -1.6910  0.2322 -0.1032
34283SOL     OW10088   9.303   3.852  12.371  0.5893 -0.6815  0.5342
34283SOL    HW110089   9.224   3.799  12.374 -0.8242  0.9200 -2.8784
34283SOL    HW210090   9.276   3.938  12.401  1.2443 -0.3342  0.1611
34284SOL     OW10091  11.432   3.352   4.398  0.4578 -0.8354  0.1207
34284SOL    HW110092  11.394   3.318   4.316  0.9377  0.7951 -0.8309
34284SOL    HW210093  11.485   3.427   4.370  0.4939 -0.1312  1.9597
34285SOL     OW10094   0.044  12.141   7.335 -0.6001 -0.1375  0.0738
34285SOL    HW110095  -0.019  12.110   7.271 -1.0245 -2.4947  1.4875
34285SOL    HW210096   0.124  12.092   7.316 -0.0176  0.8474 -0.0635
34286SOL     OW10097   7.269   0.969  12.690  1.0613 -0.1284  0.5482
34286SOL    HW110098   7.176   0.987  12.684  0.8015 -1.6856 -0.7012
34286SOL    HW210099   7.311   1.050  12.662  0.0832  0.4328  0.6663
34287SOL     OW10100   7.979  10.346   5.638  0.1921  0.1229 -0.1894
34287SOL    HW110101   8.010  10.302   5.559  0.4390  1.9893 -1.1797
34287SOL    HW210102   7.883  10.340   5.633  0.2215 -0.2318 -0.3484
34288SOL     OW10103   1.548   8.552   3.131  0.7497  0.0490 -0.9039
34288SOL    HW110104   1.517   8.471   3.172  0.6128  0.9643  0.8547
34288SOL    HW210105   1.603   8.593   3.197 -0.7177  2.3373 -1.0076
34289SOL     OW10106   0.463   2.258  10.183  0.4347 -0.0366  0.0970
34289SOL    HW110107   0.372   2.227  10.186  0.3971 -0.2870 -2.0524
34289SOL    HW210108   0.472   2.313  10.261 -0.5646 -2.5526  2.1538
34290SOL     OW10109   8.346  11.969  10.231 -0.1004  0.2441 -0.0862
34290SOL    HW110110   8.268  11.935  10.188 -2.0520  1.7976  1.9985
34290SOL    HW210111   8.358  11.912  10.307 -0.4910  1.2372  0.7416
34291SOL     OW10112   4.536   5.867   9.452  0.0637 -0.2084 -0.3564
34291SOL    HW110113   4.622   5.870   9.493  0.0446 -1.4788 -0.1976
34291SOL    HW210114   4.533   5.783   9.407 -0.4139  0.5895 -1.9065
34292SOL     OW10115   2.625  11.416   2.016  0.2266 -0.0287  0.4681
34292SOL    HW110116   2.533  11.397   2.031  0.1062  0.8521  0.9276
34292SOL    HW210117   2.668  11.388   2.097  0.3841 -0.5143  0.2229
34293SOL     OW10118  10.305   6.004   5.477 -0.2602 -0.0228  0.1276
34293SOL    HW110119  10.263   6.064   5.416 -0.0216  1.1342  1.0656
34293SOL    HW210120  10.302   6.049   5.561 -0.9061 -1.7202  1.0730
34294SOL     OW10121   1.810   2.080   5.984  0.4519 -0.3265 -0.0349
34294SOL    HW110122   1.878   2.139   5.950  0.5818 -0.2786  0.3080
34294SOL    HW210123   1.841   2.056   6.071  0.4743 -1.0237 -0.2322
34295SOL     OW10124   8.873   4.707  11.193  0.3637 -0.9833 -0.0553
34295SOL    HW110125   8.892   4.638  11.257  1.0849 -1.3855 -0.6875
34295SOL    HW210126   8.798   4.673  11.144 -1.1184 -0.0433  1.4838
34296SOL     OW10127   0.243  10.233   7.692  0.1566 -0.0879  0.8079
34296SOL    HW110128   0.185  10.298   7.732  0.1050  0.1729  0.3190
34296SOL    HW210129   0.194  10.151   7.698  0.0415 -0.0033  1.0449
34297SOL     OW10130  12.118   0.743  10.214  0.2222 -0.7948  0.4242
34297SOL    HW110131  12.034   0.781  10.186  1.0427 -0.2177 -1.4123
34297SOL    HW210132  12.114   0.744  10.310 -1.0204  1.1468  0.4134
34298SOL     OW10133   4.168   8.827   3.490 -0.4297 -0.0768  0.3017
34298SOL    HW110134   4.122   8.819   3.406  1.0765 -0.5808 -0.5036
34298SOL    HW210135   4.240   8.888   3.472  0.4472 -0.8989  0.9791
34299SOL     OW10136   1.838   2.308   0.130 -0.0677 -0.0589 -0.0063
34299SOL    HW110137   1.824   2.394   0.170 -2.0734 -0.5605  0.4703
34299SOL    HW210138   1.902   2.325   0.061 -1.1394  2.0611 -0.5988
34300SOL     OW10139   1.520   6.934   5.505 -0.2479 -0.1796  0.8905
34300SOL    HW110140   1.434   6.971   5.522  0.8026  1.9966  1.9150
34300SOL    HW210141   1.504   6.863   5.443 -2.7558  0.1320  1.0781
34301SOL     OW10142  11.204   3.049  12.549  0.1516 -0.4764  0.0202
34301SOL    HW110143  11.132   3.067  12.488  0.1167  0.3807  0.3017
34301SOL    HW210144  11.202   2.955  12.561 -2.7135 -0.2732  2.1501
34302SOL     OW10145   2.863   3.580   5.827 -0.1510  0.5759 -0.2288
34302SOL    HW110146   2.901   3.645   5.768 -1.2022  0.9256 -0.5297
34302SOL    HW210147   2.770   3.577   5.803 -0.1187 -1.0696 -0.2658
34303SOL     OW10148   3.836  11.607   6.023 -0.3064 -0.3090 -0.1252
34303SOL    HW110149   3.767  11.630   6.085 -0.5350 -0.3497 -0.3590
34303SOL    HW210150   3.910  11.579   6.077 -0.3944 -0.0433  0.1332
34304SOL     OW10151   0.966   6.205   9.478  0.3806 -0.1650 -0.4511
34304SOL    HW110152   0.919   6.195   9.560  0.1152  0.3198 -0.5382
34304SOL    HW210153   1.028   6.276   9.494  2.3270 -1.9152  0.2126
34305SOL     OW10154   6.100  11.258   4.708  0.1474 -0.3700  0.0496
34305SOL    HW110155   6.042  11.185   4.688  2.0615 -1.9937  0.1598
34305SOL    HW210156   6.091  11.317   4.633 -0.4754 -1.3454 -0.6638
34306SOL     OW10157   3.862   1.444   5.736 -0.4612 -0.5108 -0.2955
34306SOL    HW110158   3.807   1.398   5.800  1.2609 -0.8102  1.0492
34306SOL    HW210159   3.800   1.492   5.681 -2.0222 -0.0141  1.7825
34307SOL     OW10160  11.647  11.376   1.024 -0.3916  0.2102  0.1847
34307SOL    HW110161  11.637  11.282   1.009 -1.4474  0.6180 -2.2208
34307SOL    HW210162  11.557  11.409   1.032 -0.1638  1.2760 -1.2278
34308SOL     OW10163   2.385  11.244   6.053  0.1430 -0.1640 -0.1139
34308SOL    HW110164   2.378  11.263   6.147  1.2372 -1.8883  0.3845
34308SOL    HW210165   2.391  11.329   6.011 -0.5323  0.6542  1.3646
34309SOL     OW10166   8.844   3.255   7.721 -0.1654 -0.1275  0.3620
34309SOL    HW110167   8.798   3.247   7.804 -0.8891  0.1284 -0.0004
34309SOL    HW210168   8.876   3.345   7.719  0.9534 -0.5040  0.9108
34310SOL     OW10169  10.438   7.450   8.465  0.0103 -0.0016 -0.5133
34310SOL    HW110170  10.470   7.393   8.395 -0.4900 -0.0786 -0.6849
34310SOL    HW210171  10.489   7.531   8.456  1.9691 -1.0101  0.8192
34311SOL     OW10172   2.164   9.725   5.989  0.1438  0.0263  0.4166
34311SOL    HW110173   2.192   9.635   5.975  0.2220  0.2416 -0.9540
34311SOL    HW210174   2.096   9.740   5.923  0.1416  0.9705  0.6110
34312SOL     OW10175  11.623   8.159   3.909  0.4062  0.0511 -0.1311
34312SOL    HW110176  11.631   8.234   3.851 -0.2301  0.9339  0.8641
34312SOL    HW210177  11.684   8.094   3.875  0.2103  0.6225 -1.6223
34313SOL     OW10178   5.001   1.126  12.097 -0.0574  0.0601 -0.3078
34313SOL    HW110179   5.013   1.212  12.058 -0.4408 -0.3419 -1.3732
34313SOL    HW210180   5.026   1.136  12.189  1.6662  0.8585 -0.8317
34314SOL     OW10181   7.666   3.819   7.568 -0.6808 -0.1190 -0.1241
34314SOL    HW110182   7.746   3.769   7.583 -0.7146 -0.1066  0.0947
34314SOL    HW210183   7.649   3.863   7.651 -0.9639 -0.1909 -0.1434
34315SOL     OW10184  11.689   9.347  11.499  0.4179 -0.3810 -0.3468
34315SOL    HW110185  11.766   9.377  11.451  1.8932 -1.4966  1.1733
34315SOL    HW210186  11.663   9.421  11.553  1.4801 -0.5020  0.3535
34316SOL     OW10187  10.332   6.907   5.741 -0.1590  0.5122  0.0239
34316SOL    HW110188  10.257   6.896   5.798 -1.4720  2.1030 -1.2773
34316SOL    HW210189  10.400   6.946   5.797 -0.7959  0.3961  0.8885
34317SOL     OW10190   9.961   8.253  11.714 -0.5599 -0.1204  0.1109
34317SOL    HW110191  10.011   8.212  11.644  1.2273  1.2640  0.4929
34317SOL    HW210192   9.912   8.181  11.755 -0.8331 -1.1027 -1.8561
34318SOL     OW10193   1.524   3.263  11.397  0.4686 -0.2940 -0.2080
34318SOL    HW110194   1.582   3.189  11.380 -0.4535 -1.0812  0.0314
34318SOL    HW210195   1.457   3.229  11.455 -1.2558  0.1094 -1.8623
34319SOL     OW10196   4.395   9.800   6.208 -0.1819  0.2572  0.3325
34319SOL    HW110197   4.435   9.887   6.204  1.0586 -0.3222 -0.7173
34319SOL    HW210198   4.362   9.793   6.298 -2.4485  2.6836 -0.1714
34320SOL     OW10199  10.785  10.169   5.970  0.7504  0.5766 -0.0657
34320SOL    HW110200  10.706  10.223   5.982  0.5687 -0.0832  1.9757
34320SOL    HW210201  10.780  10.140   5.878 -0.0195  2.6187 -0.7320
34321SOL     OW10202   3.508   0.114   4.753  0.0666 -0.3921 -0.2728
34321SOL    HW110203   3.597   0.087   4.775  0.0296 -0.2151  0.1022
34321SOL    HW210204   3.513   0.143   4.662  0.3538 -0.5578 -0.3080
34322SOL     OW10205   1.624  11.707   5.763 -0.2843 -0.3037 -0.0683
34322SOL    HW110206   1.653  11.617   5.780  0.4965 -0.0856 -0.1882
34322SOL    HW210207   1.675  11.761   5.823  2.2014  0.4277 -2.6205
34323SOL     OW10208   2.923   0.912   1.844  0.3386 -0.0083  0.4975
34323SOL    HW110209   2.973   0.984   1.884  0.3722 -0.9270  2.1669
34323SOL    HW210210   2.836   0.949   1.831  1.0974  1.2553 -1.4150
34324SOL     OW10211   2.886  11.217  12.242 -0.0664 -0.0880  0.8157
34324SOL    HW110212   2.872  11.279  12.170 -1.2735 -2.0144 -0.7058
34324SOL    HW210213   2.953  11.157  12.208  0.3332 -0.2513  1.8621
34325SOL     OW10214  12.079   8.082   4.306  0.4014 -0.2878 -0.0965
34325SOL    HW110215  12.073   7.988   4.292  0.9698 -0.1822 -1.1370
34325SOL    HW210216  12.069   8.093   4.401 -0.5127 -1.3141 -0.0486
34326SOL     OW10217  10.729   8.835   9.639 -0.2229  0.1326 -0.1591
34326SOL    HW110218  10.689   8.771   9.580 -0.3016 -0.2546  0.3061
34326SOL    HW210219  10.760   8.783   9.713 -1.1540  0.7342  0.6909
34327SOL     OW10220   0.247  11.512   2.485 -0.1491  1.2182 -0.2161
34327SOL    HW110221   0.307  11.584   2.503  0.2345  0.3512  2.3944
34327SOL    HW210222   0.176  11.523   2.548 -0.5849 -0.1326 -0.4329
34328SOL     OW10223   8.455  12.072  10.543  0.2731  0.4347  0.1587
34328SOL    HW110224   8.399  12.108  10.474  0.5158 -0.1485 -0.3579
34328SOL    HW210225   8.538  12.119  10.534  0.6263 -0.2981 -0.5856
34329SOL     OW10226  10.251   6.566   5.945 -0.1734  0.3109  0.0428
34329SOL    HW110227  10.307   6.556   5.868  0.2868 -2.6945  0.6564
34329SOL    HW210228  10.307   6.542   6.019 -1.7239 -1.0304  0.8410
34330SOL     OW10229   2.987  11.873   8.099 -0.0552  0.0683 -0.0297
34330SOL    HW110230   2.979  11.967   8.117 -1.3567 -0.1937  0.8727
34330SOL    HW210231   3.069  11.865   8.049  1.2049  1.4216  1.6819
34331SOL     OW10232  10.355   9.037  11.177 -0.4553  0.0046 -0.2627
34331SOL    HW110233  10.426   9.024  11.114  0.2592  0.7677  0.3667
34331SOL    HW210234  10.388   9.103  11.237 -1.2959 -0.4020  0.6711
34332SOL     OW10235   1.702  12.018  12.670  0.0390 -0.7244  0.1544
34332SOL    HW110236   1.735  11.990  12.584 -0.5614 -1.9519  0.2953
34332SOL    HW210237   1.780  12.042  12.719  0.5081 -1.2007 -0.3348
34333SOL     OW10238   9.598   7.817   7.001 -0.7064 -0.0101  0.8790
34333SOL    HW110239   9.655   7.747   6.970  1.1417  2.6527 -2.3598
34333SOL    HW210240   9.648   7.859   7.071  0.2380  0.7471 -0.2179
34334SOL     OW10241  12.466   6.573   4.787 -0.1891 -0.6518 -0.0349
34334SOL    HW110242  12.485   6.640   4.722  2.6922  0.0927  1.3855
34334SOL    HW210243  12.419   6.619   4.856  1.4469 -0.0870  0.7614
34335SOL     OW10244   2.466   9.405   1.913  0.4478 -0.1626  0.3950
34335SOL    HW110245   2.523   9.446   1.848  0.1346 -0.6817 -0.2256
34335SOL    HW210246   2.483   9.312   1.905 -2.0070 -0.5731 -1.3852
34336SOL     OW10247  11.267   9.817   2.513  0.1985 -0.4639  0.0192
34336SOL    HW110248  11.197   9.877   2.487 -0.8640 -1.0585  1.3423
34336SOL    HW210249  11.347   9.869   2.507 -0.4929  0.5690 -0.4855
34337SOL     OW10250   7.459   3.565   6.780 -0.1385 -0.7314  0.1436
34337SOL    HW110251   7.374   3.586   6.818 -0.4498 -0.8269 -0.4853
34337SOL    HW210252   7.441   3.555   6.686  0.5380 -0.8974  0.0300
34338SOL     OW10253   6.730  10.760   8.045 -0.0596 -0.1056  0.0405
34338SOL    HW110254   6.729  10.856   8.046  1.9150 -0.0461  1.3969
34338SOL    HW210255   6.656  10.737   7.988 -0.1405  2.2088 -0.9434
34339SOL     OW10256   0.895   8.549   8.161  0.3997 -0.2679 -0.2354
34339SOL    HW110257   0.936   8.564   8.076 -0.3407  3.0897 -0.1646
34339SOL    HW210258   0.956   8.587   8.224  0.3237 -1.5180  0.6246
34340SOL     OW10259   1.586   8.219   7.345  0.5012  0.0217 -1.1333
34340SOL    HW110260   1.502   8.264   7.344  0.8835  0.9949  1.4880
34340SOL    HW210261   1.647   8.281   7.303  0.2678  0.1317 -1.3095
34341SOL     OW10262   9.867   5.924   3.562 -0.6700  0.3212 -0.4406
34341SOL    HW110263   9.941   5.981   3.585  0.7663 -1.5028 -0.2637
34341SOL    HW210264   9.799   5.984   3.533  1.2178  2.0545 -1.5955
34342SOL     OW10265   0.123   0.016   3.989  0.0560  0.2954  0.0083
34342SOL    HW110266   0.133   0.013   3.894  0.6189 -2.4123  0.0534
34342SOL    HW210267   0.177   0.090   4.017  0.7844  0.4569 -1.7036
34343SOL     OW10268  10.697   8.626  10.984  0.5663 -0.2316 -0.5862
34343SOL    HW110269  10.753   8.549  10.971  3.2367  0.9598  2.4339
34343SOL    HW210270  10.704   8.675  10.903 -1.0779 -2.9289 -2.5367
34344SOL     OW10271  12.364  10.859  11.858 -0.2122 -0.0577 -0.2476
34344SOL    HW110272  12.399  10.811  11.783  0.0581  0.6287 -0.5654
34344SOL    HW210273  12.436  10.858  11.922 -0.0682  0.2581 -0.4050
34345SOL     OW10274   2.321   1.002   6.913  0.3408  0.3962  0.3009
34345SOL    HW110275   2.416   0.995   6.910  0.2593 -0.6694  0.0252
34345SOL    HW210276   2.292   0.930   6.969 -0.3758 -0.1362 -0.7072
34346SOL     OW10277   7.890   1.654   7.168  0.0754  0.6231  0.4793
34346SOL    HW110278   7.916   1.710   7.240  1.1874  1.3337 -0.4341
34346SOL    HW210279   7.963   1.593   7.157 -1.4977 -1.7219  2.0648
34347SOL     OW10280   2.759  11.816   6.248  0.5009 -0.0873  0.0116
34347SOL    HW110281   2.749  11.781   6.337  2.4592 -1.9308 -0.4159
34347SOL    HW210282   2.683  11.783   6.200  0.1110 -0.1603  0.6672
34348SOL     OW10283   6.593  12.575  11.864  0.3220  0.7713 -0.5098
34348SOL    HW110284   6.575  12.669  11.867  1.2142  0.9846 -1.2568
34348SOL    HW210285   6.611  12.557  11.772  0.4683 -0.0732 -0.3249
34349SOL     OW10286  10.902  12.156   8.856 -0.2709 -0.4746  0.3156
34349SOL    HW110287  10.913  12.213   8.780  1.7641 -2.0163 -0.6356
34349SOL    HW210288  10.970  12.185   8.917 -0.0739 -1.0191  0.3619
34350SOL     OW10289   8.899   0.350   7.193  0.0860 -1.0724  0.2539
34350SOL    HW110290   8.840   0.324   7.263  0.1608  0.8023  1.0511
34350SOL    HW210291   8.882   0.286   7.123 -1.7501 -1.5027  1.0330
34351SOL     OW10292   5.352   1.421   9.176  0.2573 -0.1950  0.6265
34351SOL    HW110293   5.286   1.484   9.205  1.4901  0.4823  2.1654
34351SOL    HW210294   5.353   1.354   9.243  0.5177 -0.6637  0.1639
34352SOL     OW10295  10.376   8.308   2.252  0.5048  0.6503  0.1943
34352SOL    HW110296  10.416   8.221   2.252  0.3752  0.5862  0.6953
34352SOL    HW210297  10.443   8.365   2.288  0.3120  0.6214  0.6033
34353SOL     OW10298   4.783   9.985   9.672 -1.2228  0.6529 -0.0324
34353SOL    HW110299   4.863   9.951   9.631 -1.3666  0.2371  0.0224
34353SOL    HW210300   4.805   9.993   9.765 -1.0084  1.2577 -0.1333
34354SOL     OW10301   0.861  10.462   7.429  0.0492 -0.0489  0.3924
34354SOL    HW110302   0.873  10.545   7.384  1.3153 -1.1984 -1.5527
34354SOL    HW210303   0.843  10.486   7.520  0.2534  2.3258 -0.1331
34355SOL     OW10304   7.165   6.654   8.509  0.1272 -0.9923  0.1125
34355SOL    HW110305   7.256   6.680   8.494  0.5810 -1.7129  1.5262
34355SOL    HW210306   7.114   6.728   8.475  1.2276 -0.4969 -0.5326
34356SOL     OW10307   6.248   1.190   9.644  0.1618 -0.0438 -0.4843
34356SOL    HW110308   6.181   1.216   9.708 -3.1864 -0.9748 -3.3145
34356SOL    HW210309   6.260   1.097   9.659  0.7654  0.0984 -0.0595
34357SOL     OW10310   5.405   1.546   9.763  0.0685 -0.1455 -0.2176
34357SOL    HW110311   5.406   1.641   9.776 -0.0127 -0.2494  0.6724
34357SOL    HW210312   5.358   1.513   9.840  1.0754 -0.9813  0.0582
34358SOL     OW10313   4.917   9.912   7.950 -0.3024 -0.0623  0.8272
34358SOL    HW110314   5.003   9.936   7.916 -0.8667 -0.2052 -0.7947
34358SOL    HW210315   4.900   9.974   8.020 -0.1939  2.0044 -0.8787
34359SOL     OW10316   4.023   2.289   0.685  0.0061 -0.5004  0.5540
34359SOL    HW110317   3.991   2.311   0.773 -2.3108 -2.2562  0.2356
34359SOL    HW210318   4.071   2.207   0.697  0.8240 -0.0669  0.3452
34360SOL     OW10319   2.680  12.146   4.380 -0.1978  0.1123  0.0267
34360SOL    HW110320   2.620  12.128   4.308 -1.2079  0.1944  0.8277
34360SOL    HW210321   2.624  12.174   4.452  0.7998  0.1245  0.8265
34361SOL     OW10322   2.517   6.248   1.390  0.3559 -0.4128  0.1766
34361SOL    HW110323   2.498   6.332   1.348  0.3174 -1.1899 -1.4687
34361SOL    HW210324   2.432   6.217   1.422  0.0047 -0.7033 -0.9803
34362SOL     OW10325   8.625   3.135   0.508  0.5937  0.0336  0.7378
34362SOL    HW110326   8.569   3.101   0.438 -2.0137  1.1507  2.1414
34362SOL    HW210327   8.642   3.059   0.564  2.3002 -0.7593 -0.7447
34363SOL     OW10328   2.285   8.213   3.693  0.2533 -0.2069 -0.4071
34363SOL    HW110329   2.230   8.238   3.768  2.4703 -1.0711  1.6382
34363SOL    HW210330   2.336   8.292   3.674 -0.6700  0.1757 -1.4245
34364SOL     OW10331   7.390   7.789   2.162 -0.2681  0.6828  0.1026
34364SOL    HW110332   7.352   7.791   2.249 -0.6114 -1.3104  0.0632
34364SOL    HW210333   7.319   7.760   2.105  0.5839 -0.5845 -0.3809
34365SOL     OW10334   5.986   3.315  11.569  0.5146  0.4278 -0.3550
34365SOL    HW110335   5.907   3.368  11.580 -0.6082 -0.9338 -1.3858
34365SOL    HW210336   5.970   3.237  11.622  2.5767  1.4515  1.9604
34366SOL     OW10337   0.140   6.121   3.091 -0.3317 -0.1246  0.3778
34366SOL    HW110338   0.198   6.049   3.065 -0.5818 -1.3321  2.8474
34366SOL    HW210339   0.107   6.157   3.009 -0.3734 -2.9905 -0.9792
34367SOL     OW10340   3.136   9.635   9.392 -0.0537 -0.6115 -0.2455
34367SOL    HW110341   3.081   9.607   9.465 -0.2763  0.7871  0.1476
34367SOL    HW210342   3.209   9.572   9.391 -1.2217 -2.0208 -0.2922
34368SOL     OW10343   3.441   3.674  11.221 -0.4883 -0.4154  0.4584
34368SOL    HW110344   3.489   3.734  11.277 -0.9807 -0.5544  1.0391
34368SOL    HW210345   3.352   3.673  11.257 -0.6858 -0.8903 -0.0213
34369SOL     OW10346   9.961   7.565   6.338 -0.8187 -0.1732  0.5138
34369SOL    HW110347  10.007   7.632   6.389 -0.3855  0.5355 -0.7761
34369SOL    HW210348   9.964   7.486   6.393 -0.8128  0.6954  1.7917
34370SOL     OW10349   6.882  12.196  12.601  0.2481  0.1904 -0.7136
34370SOL    HW110350   6.883  12.115  12.651 -3.4580  0.6095  0.3064
34370SOL    HW210351   6.922  12.261  12.660 -1.9783  0.1984  0.8855
34371SOL     OW10352   0.538   3.699   3.722 -0.8520 -0.1868 -0.2854
34371SOL    HW110353   0.600   3.766   3.693 -0.8894 -0.1886 -0.3709
34371SOL    HW210354   0.563   3.680   3.812 -3.2725  2.8104  1.1772
34372SOL     OW10355   3.420   1.791  11.316 -0.3409 -0.1422 -0.4053
34372SOL    HW110356   3.417   1.834  11.230  1.7175  0.7888 -0.0701
34372SOL    HW210357   3.479   1.846  11.368  0.1800 -1.8769  0.9311
34373SOL     OW10358   9.076  11.972   8.759  0.0836 -0.6335 -0.4158
34373SOL    HW110359   8.993  12.013   8.782 -0.0115  0.4297 -2.4198
34373SOL    HW210360   9.056  11.920   8.681  1.4932  0.5634 -1.6397
34374SOL     OW10361  11.263  11.032  12.130 -0.0872 -0.4584  0.0834
34374SOL    HW110362  11.209  11.059  12.055 -0.0972 -0.6781  0.0123
34374SOL    HW210363  11.238  11.092  12.200 -1.4871 -1.4721  0.4919
34375SOL     OW10364   5.347  12.089  11.661 -0.2978  0.0998  0.1791
34375SOL    HW110365   5.409  12.116  11.594  1.6527 -2.7002  0.6788
34375SOL    HW210366   5.274  12.050  11.612 -0.3255  0.8074 -0.3495
34376SOL     OW10367   0.296   0.665   4.990 -0.0681 -0.2979  0.1920
34376SOL    HW110368   0.285   0.571   5.008  0.7111 -0.6475 -1.0676
34376SOL    HW210369   0.390   0.681   5.001  0.4044 -0.4294 -2.8070
34377SOL     OW10370  12.185   9.139   7.664 -0.0287 -0.5686 -0.0809
34377SOL    HW110371  12.156   9.048   7.652 -0.1387 -0.7063  1.0531
34377SOL    HW210372  12.251   9.134   7.733  0.9422  0.0653 -0.9314
34378SOL     OW10373   6.405   5.894   9.615 -0.1827 -0.4139 -0.2168
34378SOL    HW110374   6.495   5.901   9.647 -0.2018 -0.9736 -0.0323
34378SOL    HW210375   6.414   5.882   9.521 -0.0574 -0.6469 -0.1756
34379SOL     OW10376   1.517   1.102   0.372  0.2242  0.4199  0.2697
34379SOL    HW110377   1.525   1.050   0.291  1.3735 -0.6350  1.0148
34379SOL    HW210378   1.432   1.076   0.408  0.5245 -0.5135  0.3295
34380SOL     OW10379   4.517   2.321   1.986 -0.1093  0.2052  0.1233
34380SOL    HW110380   4.598   2.352   1.947 -0.3337 -2.0751 -2.5277
34380SOL    HW210381   4.543   2.244   2.037 -0.4769 -0.1937 -0.2718
34381SOL     OW10382   6.853   2.170   4.062  0.0489 -0.8590 -0.1186
34381SOL    HW110383   6.836   2.164   3.968 -0.3583 -3.2645  0.0366
34381SOL    HW210384   6.767   2.183   4.101  0.1221 -0.6371 -0.0291
34382SOL     OW10385   8.219   6.281   1.570 -0.0248  0.1921 -0.0000
34382SOL    HW110386   8.177   6.319   1.648 -1.2581  1.4686 -1.2359
34382SOL    HW210387   8.151   6.228   1.529  1.0268 -1.6185  0.4781
34383SOL     OW10388  11.399  12.047   8.561  0.6411  0.0774 -0.6560
34383SOL    HW110389  11.434  12.041   8.650  0.9874  2.9619 -0.4948
34383SOL    HW210390  11.471  12.082   8.509 -0.3967  1.1470 -1.4264
34384SOL     OW10391   4.575  10.989   0.614  1.0070  0.5105 -0.1012
34384SOL    HW110392   4.524  10.973   0.693 -0.9701  0.7506 -1.2517
34384SOL    HW210393   4.638  10.917   0.610  3.0550  1.9050  3.0426
34385SOL     OW10394   5.433   4.799   2.088  0.2944 -0.1710 -0.2277
34385SOL    HW110395   5.397   4.878   2.049 -1.3251 -0.4724  0.5894
34385SOL    HW210396   5.444   4.820   2.181  2.7807  0.0699 -0.5074
34386SOL     OW10397   0.407  12.021  11.229 -0.0179  0.6338  0.5498
34386SOL    HW110398   0.350  11.949  11.202 -0.0303 -0.1031  2.4171
34386SOL    HW210399   0.367  12.099  11.190  0.6838 -0.4334 -2.5718
34387SOL     OW10400   7.070   7.778   4.545 -0.1551  0.9931 -0.3416
34387SOL    HW110401   7.103   7.858   4.506 -0.0020  1.9751  1.6746
34387SOL    HW210402   7.137   7.713   4.526  0.5546  1.7627 -0.5132
34388SOL     OW10403   1.407   3.039   7.285 -0.4618  0.1548 -0.7185
34388SOL    HW110404   1.473   3.019   7.351 -1.0540 -2.4443 -0.8328
34388SOL    HW210405   1.374   2.954   7.257 -4.7963  1.2513  0.2457
34389SOL     OW10406   8.009   4.911   3.500  0.0314 -0.1613  0.1407
34389SOL    HW110407   7.919   4.907   3.466 -0.0600 -2.7665  0.4832
34389SOL    HW210408   8.062   4.877   3.428  0.8918  1.9379 -0.2913
34390SOL     OW10409   1.821   6.091   5.596 -0.5272 -0.2126 -0.6595
34390SOL    HW110410   1.764   6.098   5.672  2.1080  1.4820  1.3257
34390SOL    HW210411   1.805   6.171   5.546 -1.3445 -0.7269 -1.2393
34391SOL     OW10412  10.359   4.176   3.042 -0.1277 -0.4887 -0.3623
34391SOL    HW110413  10.407   4.141   3.117  0.0997 -0.9934 -0.7326
34391SOL    HW210414  10.276   4.128   3.043 -0.8575  0.7547  0.5818
34392SOL     OW10415   4.568   2.980   1.376  0.2249 -0.6981  0.6337
34392SOL    HW110416   4.638   3.031   1.335 -0.5578 -0.7724 -0.8652
34392SOL    HW210417   4.534   3.036   1.445  0.8849 -0.1231  0.5001
34393SOL     OW10418  12.375  11.159   0.116  0.0428 -0.1306 -0.7722
34393SOL    HW110419  12.444  11.222   0.136 -0.4474  0.2946 -0.3786
34393SOL    HW210420  12.397  11.126   0.029  1.6149 -1.2097 -0.0045
34394SOL     OW10421   9.746   7.381   3.225  0.1532  0.1022 -0.1547
34394SOL    HW110422   9.664   7.429   3.241  0.2253  0.2657 -0.2618
34394SOL    HW210423   9.729   7.333   3.144  0.2072  0.2397 -0.2484
34395SOL     OW10424   2.188   5.624  10.005 -0.3895 -0.1389  0.5564
34395SOL    HW110425   2.182   5.532  10.033 -0.3841 -0.6362 -0.9717
34395SOL    HW210426   2.108   5.638   9.954 -1.4891  1.4013  2.5593
34396SOL     OW10427   8.340  10.585   7.219 -0.2933 -0.1586 -0.5235
34396SOL    HW110428   8.403  10.649   7.253  0.3970 -1.4488  0.7640
34396SOL    HW210429   8.383  10.547   7.142 -0.5308  0.6166 -1.0464
34397SOL     OW10430  12.332  10.808   6.137 -0.3406  0.0435 -0.2343
34397SOL    HW110431  12.280  10.731   6.110 -1.9523  0.7900  0.5659
34397SOL    HW210432  12.321  10.870   6.065 -1.4065  0.5653  0.3543
34398SOL     OW10433  11.177   9.035  11.446 -0.1114 -0.1861  0.4146
34398SOL    HW110434  11.268   9.014  11.468 -0.4129 -2.3922 -0.1813
34398SOL    HW210435  11.171   9.017  11.352 -0.6409  2.0787 -0.0362
34399SOL     OW10436   1.992  11.844  10.874 -0.1935 -0.6487  0.1724
34399SOL    HW110437   2.041  11.851  10.955 -0.8535  2.3478  0.4396
34399SOL    HW210438   1.907  11.808  10.901 -0.1151 -0.4535  0.7009
34400SOL     OW10439   8.801  11.654   3.795 -0.4871 -0.4952 -0.5039
34400SOL    HW110440   8.708  11.676   3.792 -0.2646  1.1253  2.1044
34400SOL    HW210441   8.834  11.681   3.709 -1.8957  1.6511 -0.4455
34401SOL     OW10442   7.807   1.621  10.275 -0.3229  0.2669  0.0397
34401SOL    HW110443   7.788   1.546  10.219  0.7739  0.4523 -0.6182
34401SOL    HW210444   7.901   1.613  10.294 -0.6954  0.0660  2.0799
34402SOL     OW10445  12.542   5.187   7.753  1.3567 -0.4283  0.0691
34402SOL    HW110446  12.478   5.115   7.752  1.5154 -0.5946  0.8860
34402SOL    HW210447  12.490   5.266   7.766  1.3162 -0.5801  0.8966
34403SOL     OW10448   9.940   2.954  10.912 -0.2557  0.1349 -0.6294
34403SOL    HW110449   9.855   2.923  10.943  0.2907 -0.6613  0.1267
34403SOL    HW210450   9.985   2.875  10.882  1.1646  0.1197  1.3250
34404SOL     OW10451   8.949  11.264   2.128  0.2073  0.4064  0.3740
34404SOL    HW110452   9.027  11.279   2.075  0.0657 -0.3486 -0.0616
34404SOL    HW210453   8.982  11.238   2.214  0.4351  1.2655  0.5555
34405SOL     OW10454  10.054   1.293  12.516 -0.1073 -0.2788 -0.5920
34405SOL    HW110455  10.132   1.321  12.466 -0.8257 -0.8992 -2.1307
34405SOL    HW210456   9.994   1.368  12.510 -0.1512 -0.3111 -0.5496
34406SOL     OW10457   6.922   5.387   1.489  0.9149 -0.0947 -0.0256
34406SOL    HW110458   6.907   5.467   1.540 -1.2823 -0.2678 -0.3004
34406SOL    HW210459   6.864   5.322   1.529  1.8031 -1.2233 -0.5373
34407SOL     OW10460   9.468  11.124  10.551 -0.0045 -0.1685  0.0630
34407SOL    HW110461   9.508  11.211  10.546 -0.5474  0.0405 -0.8625
34407SOL    HW210462   9.507  11.076  10.478  0.2734 -0.7004  0.5534
34408SOL     OW10463   4.592   8.361   3.694 -0.1581  0.4313  0.1499
34408SOL    HW110464   4.639   8.279   3.709 -0.5073 -0.0326 -1.1739
34408SOL    HW210465   4.660   8.426   3.680  0.1076 -0.0243 -0.7183
34409SOL     OW10466  11.489  11.730   1.369 -0.3041 -0.2796 -0.1189
34409SOL    HW110467  11.428  11.778   1.425 -0.0077  1.6174 -1.3407
34409SOL    HW210468  11.477  11.638   1.393 -0.8941  0.3780  2.3136
34410SOL     OW10469   8.876   2.284   1.918 -0.2713 -0.0098 -0.5390
34410SOL    HW110470   8.946   2.349   1.915 -0.8088  0.6222  0.3132
34410SOL    HW210471   8.801   2.328   1.877 -0.8537  0.2100  0.7091
34411SOL     OW10472   3.027   0.733   2.013 -0.2031 -0.0685  0.0548
34411SOL    HW110473   2.991   0.795   1.948  0.3215  0.2312  0.0498
34411SOL    HW210474   3.042   0.786   2.091  0.4391 -0.1432 -0.0143
34412SOL     OW10475  10.072  11.704   9.816 -0.3151  0.3254 -0.3764
34412SOL    HW110476  10.050  11.657   9.736 -0.0251  0.8629 -0.7762
34412SOL    HW210477  10.132  11.773   9.788  1.1047 -0.4744  0.5290
34413SOL     OW10478   6.447   6.528   4.379 -0.4956 -0.1631  0.7038
34413SOL    HW110479   6.484   6.602   4.428 -1.4119  1.2710 -0.6627
34413SOL    HW210480   6.360   6.558   4.353 -0.3188 -1.1311 -1.1816
34414SOL     OW10481  10.613   6.965   6.655 -0.6718  0.4949 -0.2403
34414SOL    HW110482  10.689   6.946   6.600 -0.2079 -0.4106  0.6853
34414SOL    HW210483  10.551   7.007   6.595  0.4020  0.9371 -1.0989
34415SOL     OW10484   9.861   0.686   2.090 -0.6886 -0.0080  0.2003
34415SOL    HW110485   9.919   0.611   2.082  2.5408  1.6982  3.9080
34415SOL    HW210486   9.783   0.651   2.135 -0.3050 -1.4927 -0.2339
34416SOL     OW10487   3.728   7.385   6.140  0.0576  0.0723 -0.5049
34416SOL    HW110488   3.743   7.291   6.142  1.0108  0.1967 -1.1860
34416SOL    HW210489   3.810   7.423   6.172 -0.8406  0.6461  1.2308
34417SOL     OW10490   6.520   7.324   4.840 -0.6631  0.1107  0.4857
34417SOL    HW110491   6.468   7.244   4.826 -0.7642  0.3482 -0.5233
34417SOL    HW210492   6.611   7.296   4.828 -0.8110  0.6196 -2.3866
34418SOL     OW10493   2.547   8.929   0.484 -0.1943 -0.1938  0.4923
34418SOL    HW110494   2.559   8.848   0.436 -0.4114  0.2614 -0.3414
34418SOL    HW210495   2.635   8.952   0.514  0.1405  0.1345 -0.7030
34419SOL     OW10496  12.679   1.841  10.701  0.1601 -0.2077  0.4892
34419SOL    HW110497  12.620   1.815  10.630  0.7652  1.5666 -0.7499
34419SOL    HW210498  12.626   1.896  10.758  0.1003 -0.2514  0.4753
34420SOL     OW10499  10.848   0.618   0.177 -0.3322  0.1884  0.4255
34420SOL    HW110500  10.914   0.632   0.110 -0.8147  0.8214  0.0634
34420SOL    HW210501  10.765   0.632   0.132 -0.6695  0.5228  1.1199
34421SOL     OW10502   1.159   5.371   7.650 -0.1595 -0.3693 -0.3767
34421SOL    HW110503   1.166   5.439   7.718  0.2107 -0.3783 -0.4019
34421SOL    HW210504   1.235   5.387   7.593  1.1300 -2.0936  0.7883
34422SOL     OW10505   3.516   5.538   9.576 -0.0255 -0.3574  0.7082
34422SOL    HW110506   3.439   5.504   9.530 -0.6310  0.0149  1.4177
34422SOL    HW210507   3.552   5.605   9.517  0.8949 -1.8445 -0.4843
34423SOL     OW10508   6.817   0.689   0.040  0.0242 -0.1918 -0.0888
34423SOL    HW110509   6.897   0.739   0.060 -1.3958  1.6991  1.1292
34423SOL    HW210510   6.818   0.616   0.102  0.7223 -0.1054  0.0110
34424SOL     OW10511  11.499   3.024   7.373 -0.1936  0.0573 -0.7379
34424SOL    HW110512  11.591   2.999   7.358  0.2485 -0.5476  2.2294
34424SOL    HW210513  11.503   3.118   7.389 -0.1592  0.1112 -1.0607
34425SOL     OW10514   2.944   1.740   0.588 -0.6140  0.5213 -0.1336
34425SOL    HW110515   2.950   1.820   0.642 -0.6762  0.0205  0.6323
34425SOL    HW210516   2.992   1.674   0.639  1.9228  0.7267 -2.0485
34426SOL     OW10517   4.920   1.472   3.140  0.6051  0.8409 -0.5665
34426SOL    HW110518   4.903   1.493   3.232  0.1153  2.4627 -0.9925
34426SOL    HW210519   4.834   1.481   3.097  0.7864 -0.1038 -1.1554
34427SOL     OW10520   7.105   9.034   2.919  0.3770  0.0183  0.6503
34427SOL    HW110521   7.068   8.953   2.884 -0.4159  1.3578 -1.8743
34427SOL    HW210522   7.032   9.077   2.963  0.3223  0.1342  0.4529
34428SOL     OW10523   7.975   8.473   8.054 -0.2679  0.4688  0.4680
34428SOL    HW110524   8.006   8.524   7.979  1.7599 -0.3820  0.6652
34428SOL    HW210525   8.018   8.514   8.130 -0.6683  0.0538  0.9233
34429SOL     OW10526   1.713   6.866   5.296  0.0397  0.1789  0.2545
34429SOL    HW110527   1.767   6.942   5.274  1.0034 -0.6841 -0.4631
34429SOL    HW210528   1.689   6.880   5.387  0.3708  1.2505  0.1939
34430SOL     OW10529  10.492  10.312   2.260 -0.1845  0.0576 -0.1989
34430SOL    HW110530  10.553  10.382   2.282  0.7431 -0.4721 -1.0253
34430SOL    HW210531  10.461  10.334   2.172 -0.5438 -0.1275 -0.1227
34431SOL     OW10532   8.532   7.578   4.304 -0.1523 -0.0928  0.4228
34431SOL    HW110533   8.546   7.497   4.256  1.4402  0.3364  0.1034
34431SOL    HW210534   8.437   7.584   4.314 -0.3533 -1.4675 -0.4378
34432SOL     OW10535   2.442   4.431   5.793  0.5932  0.0652  0.1477
34432SOL    HW110536   2.444   4.527   5.797 -0.4055  0.0617  3.7470
34432SOL    HW210537   2.524   4.404   5.835  0.1221 -0.6468  0.6166
34433SOL     OW10538   1.150   8.546  12.079 -0.6508 -0.1599 -0.2759
34433SOL    HW110539   1.092   8.622  12.079  0.9512  1.1417  0.9602
34433SOL    HW210540   1.159   8.523  12.171  1.2052  0.0586 -0.3655
34434SOL     OW10541   9.893   0.654   3.899 -0.3623  0.5431  0.2644
34434SOL    HW110542   9.908   0.724   3.836 -3.1248  0.3339 -0.7719
34434SOL    HW210543   9.887   0.699   3.983 -0.7717  1.3840 -0.2028
34435SOL     OW10544   1.696  11.921   1.771 -0.0737  0.2154 -0.3135
34435SOL    HW110545   1.608  11.930   1.806 -0.2552  5.0445 -1.3697
34435SOL    HW210546   1.753  11.951   1.842  0.2049  2.2167 -1.3332
34436SOL     OW10547  12.204   1.103   7.509 -0.1857 -0.1107  0.3913
34436SOL    HW110548  12.155   1.024   7.530 -0.6477  0.3412  1.0178
34436SOL    HW210549  12.175   1.127   7.421 -1.4565  0.4188  0.9339
34437SOL     OW10550  10.407   0.684   2.147  0.1285  0.1874 -0.2798
34437SOL    HW110551  10.456   0.623   2.091  0.0410  0.9247 -1.2011
34437SOL    HW210552  10.317   0.654   2.143  0.1919 -0.0174 -0.1810
34438SOL     OW10553  11.261   3.844   2.527  0.1594  0.0652 -0.1056
34438SOL    HW110554  11.322   3.808   2.462  0.5734 -0.9370  0.8153
34438SOL    HW210555  11.302   3.826   2.611 -0.4037  1.2956  0.4533
34439SOL     OW10556  11.217  11.488   9.785  0.2484 -0.4587  0.0509
34439SOL    HW110557  11.181  11.572   9.756  0.2784 -0.1084  0.9930
34439SOL    HW210558  11.141  11.431   9.793  0.0753 -0.1546  0.6075
34440SOL     OW10559   6.327   9.592   7.252 -0.4990  0.3163 -0.7287
34440SOL    HW110560   6.340   9.682   7.281 -0.4665  0.2351 -0.4841
34440SOL    HW210561   6.304   9.599   7.160  0.5263  0.5052 -0.9772
34441SOL     OW10562  11.877   0.370  10.169 -0.2727 -0.3467 -0.3995
34441SOL    HW110563  11.840   0.413  10.092 -1.0643 -0.5266 -0.1309
34441SOL    HW210564  11.855   0.278  10.158 -1.4276 -0.2149  0.6036
34442SOL     OW10565   6.240  11.028   5.960 -0.6719 -0.6936  0.2514
34442SOL    HW110566   6.334  11.039   5.946 -0.4498 -2.6152 -0.0546
34442SOL    HW210567   6.233  10.954   6.020 -1.9736  0.4269  1.5550
34443SOL     OW10568  10.508  11.342   0.291 -0.2254 -0.0172 -0.2975
34443SOL    HW110569  10.492  11.435   0.303 -0.4624  0.0551 -1.1417
34443SOL    HW210570  10.597  11.337   0.256  0.5602 -0.2441  1.5832
34444SOL     OW10571   9.883   0.952  11.767  0.3091  0.2858 -0.6151
34444SOL    HW110572   9.901   0.873  11.716  0.4140  0.5348 -0.9616
34444SOL    HW210573   9.965   0.972  11.810  0.0919 -0.2105  0.0594
34445SOL     OW10574   2.907   3.884   7.986 -0.3013 -0.4700 -1.0794
34445SOL    HW110575   2.812   3.878   7.982 -0.2638 -0.6013 -1.9039
34445SOL    HW210576   2.932   3.819   8.052 -0.6889 -1.5819 -1.9825
34446SOL     OW10577   3.322   3.141   2.947  0.3206 -0.6752 -0.3586
34446SOL    HW110578   3.255   3.074   2.932 -0.4915  0.4751 -2.1884
34446SOL    HW210579   3.384   3.129   2.875  0.3601  0.2892 -0.4912
34447SOL     OW10580   4.122  11.131  11.034  0.1999  0.0559 -0.4751
34447SOL    HW110581   4.060  11.183  10.983  0.7928  0.0388 -1.2229
34447SOL    HW210582   4.068  11.086  11.098 -0.3214  1.7372  0.3429
34448SOL     OW10583   7.023  12.073  10.442  0.0163  0.2700 -0.7319
34448SOL    HW110584   7.031  12.161  10.480 -0.1232 -0.2973  0.6902
34448SOL    HW210585   7.041  12.085  10.349 -2.0723  2.1760 -0.9794
34449SOL     OW10586   3.250   0.809   3.478  0.3260 -0.1088  0.1648
34449SOL    HW110587   3.219   0.894   3.448  0.8975  0.0101 -0.0991
34449SOL    HW210588   3.228   0.807   3.571 -0.6233 -0.1054 -0.0544
34450SOL     OW10589   8.785   2.470   9.042  0.2171 -0.2647  0.1934
34450SOL    HW110590   8.767   2.490   9.134 -0.6208  1.3614 -0.2865
34450SOL    HW210591   8.705   2.429   9.010  0.2429 -0.1786  0.0183
34451SOL     OW10592   9.683   2.135   6.372 -0.2611  0.3842  0.1899
34451SOL    HW110593   9.751   2.074   6.401  0.8165  0.8732 -1.1635
34451SOL    HW210594   9.669   2.113   6.279 -1.9792  0.3020  0.4341
34452SOL     OW10595   3.916   0.689  11.428  0.5179 -0.4718  0.3603
34452SOL    HW110596   3.935   0.754  11.360 -1.3243 -1.2592 -0.9975
34452SOL    HW210597   3.971   0.715  11.502  2.2615  0.7008 -1.2471
34453SOL     OW10598   0.183  11.686   7.718  0.0288 -0.2570  0.1927
34453SOL    HW110599   0.248  11.747   7.682  0.1628 -0.8651 -0.6346
34453SOL    HW210600   0.230  11.602   7.723 -1.8081 -1.9606 -4.8351
34454SOL     OW10601   5.209   8.600   3.972  0.0285  0.0949 -0.0715
34454SOL    HW110602   5.272   8.533   3.947 -0.8759 -0.9228  0.2672
34454SOL    HW210603   5.167   8.565   4.051 -1.0541  0.6631 -0.3664
34455SOL     OW10604   8.917   1.243   7.731  0.6179 -0.3319  0.4321
34455SOL    HW110605   8.875   1.174   7.782  0.9931 -0.3034  0.7864
34455SOL    HW210606   9.006   1.212   7.716  0.9169  0.2505  0.9441
34456SOL     OW10607   6.132   6.829  10.576  0.1377 -0.3602 -0.4304
34456SOL    HW110608   6.080   6.896  10.620 -0.0907 -0.1563 -1.0001
34456SOL    HW210609   6.205   6.811  10.636 -0.2774 -0.2351  0.1126
34457SOL     OW10610  12.047   2.211   9.122 -0.7092 -0.2677 -0.9421
34457SOL    HW110611  12.064   2.242   9.033 -3.7252  2.8076 -0.6427
34457SOL    HW210612  12.055   2.289   9.177 -2.2085 -1.3764  0.9767
34458SOL     OW10613   6.464   2.295   8.341  0.0244 -0.1104  0.2907
34458SOL    HW110614   6.505   2.307   8.426  1.7397  0.3999 -0.5670
34458SOL    HW210615   6.436   2.382   8.314 -1.2298 -0.3812  0.6450
34459SOL     OW10616  10.736   7.272   1.385 -0.2115  0.4401 -0.3112
34459SOL    HW110617  10.668   7.311   1.439 -0.1761 -0.3811  0.3604
34459SOL    HW210618  10.700   7.273   1.296 -1.8448 -1.4693  0.2531
34460SOL     OW10619   8.134   0.310   5.718  0.4373  0.3993 -0.5659
34460SOL    HW110620   8.057   0.335   5.667 -0.6683  1.1150  1.3171
34460SOL    HW210621   8.173   0.394   5.743  0.9656  0.0651 -0.2672
34461SOL     OW10622   9.043   9.048   5.515 -0.3256  0.1170  0.0388
34461SOL    HW110623   9.036   9.139   5.544 -0.5848  0.7591 -1.9203
34461SOL    HW210624   9.020   8.997   5.593 -0.7358  1.7193  1.0277
34462SOL     OW10625  12.392   2.407  12.213 -0.7787  0.0808  0.6975
34462SOL    HW110626  12.397   2.323  12.258  1.5464  0.2817  0.9583
34462SOL    HW210627  12.445   2.466  12.267  1.2730  0.5947 -1.7072
34463SOL     OW10628   4.893  10.513  11.788 -0.3949 -0.0445  0.0004
34463SOL    HW110629   4.876  10.503  11.694  0.4610 -0.4237 -0.1280
34463SOL    HW210630   4.934  10.430  11.814  1.1071  0.7520  0.2902
34464SOL     OW10631   1.058   8.601   1.696 -0.2285  0.0493  0.6751
34464SOL    HW110632   1.080   8.692   1.679  1.4525 -0.5728 -0.7628
34464SOL    HW210633   1.130   8.569   1.751 -2.1046  0.1923  3.4432
34465SOL     OW10634   5.884   0.948  12.491  0.0459  0.2407 -0.7499
34465SOL    HW110635   5.811   0.893  12.463 -0.5528  0.0548  1.0232
34465SOL    HW210636   5.894   0.929  12.585 -0.0558  2.9411 -0.1039
34466SOL     OW10637  10.452   9.580   8.172 -0.2524 -0.0518 -0.0057
34466SOL    HW110638  10.476   9.610   8.084 -1.5179 -2.1715 -1.1651
34466SOL    HW210639  10.513   9.508   8.190  0.7864  1.1271  1.4278
34467SOL     OW10640   0.318   1.624   1.907 -0.1736  0.3137  0.2771
34467SOL    HW110641   0.353   1.712   1.893  1.9742 -0.6908 -1.3159
34467SOL    HW210642   0.394   1.571   1.927 -1.1578 -1.5009 -0.5088
34468SOL     OW10643   0.603   5.397   1.347  0.4078 -0.1466 -0.0156
34468SOL    HW110644   0.679   5.437   1.305  0.4338 -0.7252 -0.5479
34468SOL    HW210645   0.615   5.303   1.334  0.5301 -0.3703  1.5059
34469SOL     OW10646   6.571   8.286   6.619 -0.0819 -1.0546 -0.2842
34469SOL    HW110647   6.651   8.285   6.671 -0.4503 -0.8885  0.2917
34469SOL    HW210648   6.548   8.193   6.608 -0.2840 -1.0714  0.2848
34470SOL     OW10649   0.487   4.234  12.103  0.1292  0.3308 -0.0221
34470SOL    HW110650   0.436   4.215  12.182 -1.0742 -0.2459 -0.9099
34470SOL    HW210651   0.435   4.299  12.056  0.2607 -0.1811 -0.8915
34471SOL     OW10652   8.081  10.160   5.403  0.6384  0.1189 -0.5441
34471SOL    HW110653   8.087  10.067   5.382  0.5069 -0.0695  0.2154
34471SOL    HW210654   8.105  10.205   5.322  1.1176 -0.5765 -0.7983
34472SOL     OW10655   4.370  10.230   1.749  0.0377  0.3854 -0.1617
34472SOL    HW110656   4.277  10.251   1.744 -0.1793  0.5396  2.6212
34472SOL    HW210657   4.414  10.310   1.720 -0.7050  0.5707 -0.7997
34473SOL     OW10658   4.358   2.886   6.380  0.3312 -0.1760 -0.6156
34473SOL    HW110659   4.317   2.924   6.457 -0.1184 -0.5044 -0.6919
34473SOL    HW210660   4.444   2.858   6.410 -0.4956 -1.9445  0.2384
34474SOL     OW10661   8.603   5.473   0.660  0.0637 -0.3767 -0.4401
34474SOL    HW110662   8.621   5.551   0.609  2.3808 -1.0604 -0.7584
34474SOL    HW210663   8.590   5.505   0.750 -0.8384  0.5117 -0.8684
34475SOL     OW10664  11.109   4.871   6.765 -0.2934  0.1504 -0.3796
34475SOL    HW110665  11.195   4.906   6.740  0.1855 -0.4435  0.4229
34475SOL    HW210666  11.071   4.939   6.821  0.1370 -0.0878  0.2036
34476SOL     OW10667   7.835   6.024  12.402  0.3628  0.0596 -0.2532
34476SOL    HW110668   7.754   6.014  12.453  0.9936  0.5163  0.8669
34476SOL    HW210669   7.889   6.083  12.455  1.4157 -0.2215 -1.0029
34477SOL     OW10670   7.258   2.074   1.664  0.0100 -0.3416  0.0144
34477SOL    HW110671   7.250   2.043   1.574 -2.0960 -1.0846  0.3962
34477SOL    HW210672   7.350   2.059   1.687 -0.1356 -3.3029 -0.9088
34478SOL     OW10673   9.141   5.069   5.427 -0.2845  0.2752  0.4043
34478SOL    HW110674   9.057   5.062   5.381 -0.1840  0.7648  0.1369
34478SOL    HW210675   9.205   5.087   5.358  0.2645 -1.4197  0.4407
34479SOL     OW10676  11.402   3.086  10.182 -0.3254  0.3543 -0.5288
34479SOL    HW110677  11.461   3.155  10.151  0.2832  0.0419 -0.0750
34479SOL    HW210678  11.409   3.017  10.116 -1.7154  1.1161 -1.5351
34480SOL     OW10679   6.701   6.233   3.589  0.1514 -0.5587 -0.1644
34480SOL    HW110680   6.616   6.264   3.557  0.9978  1.4145 -0.6896
34480SOL    HW210681   6.687   6.215   3.682 -0.2698  2.4054  0.4532
34481SOL     OW10682  11.253   6.344  11.355 -0.3044  0.2463 -0.0927
34481SOL    HW110683  11.309   6.414  11.322 -0.5624  0.3066 -0.3981
34481SOL    HW210684  11.209   6.383  11.430  0.6935 -0.0580  0.6860
34482SOL     OW10685   0.136   6.829   6.924 -0.0730 -0.1132 -0.5444
34482SOL    HW110686   0.174   6.915   6.943 -2.1584  0.5778  0.9271
34482SOL    HW210687   0.042   6.844   6.926 -0.5131 -1.8100 -3.5768
34483SOL     OW10688  10.472   3.266   0.943  0.0325 -0.2140  0.5946
34483SOL    HW110689  10.542   3.289   0.882  0.4602 -0.0233  1.1408
34483SOL    HW210690  10.497   3.179   0.975 -0.9536 -0.9589 -0.5745
34484SOL     OW10691   8.789   4.597   7.564 -0.1545 -0.0345  0.2173
34484SOL    HW110692   8.727   4.526   7.548  1.4934 -1.4796 -0.1056
34484SOL    HW210693   8.798   4.641   7.479  0.6975 -1.0558 -0.2395
34485SOL     OW10694  12.128  10.063   9.602  0.8189  0.1838 -0.9147
34485SOL    HW110695  12.048  10.113   9.616 -0.3541 -1.8162 -0.1895
34485SOL    HW210696  12.175  10.068   9.685 -0.1279 -1.2671 -0.2507
34486SOL     OW10697   5.481   4.632   9.061  0.0337  0.0171 -0.2459
34486SOL    HW110698   5.559   4.603   9.013 -0.1691  1.5669 -1.5992
34486SOL    HW210699   5.509   4.713   9.103 -0.7301  0.3883 -0.4443
34487SOL     OW10700   2.708   6.705  11.502  0.3209  0.0639  0.9967
34487SOL    HW110701   2.731   6.797  11.494 -0.8434  0.2744 -0.2556
34487SOL    HW210702   2.745   6.664  11.424 -0.9757 -0.1213  0.4607
34488SOL     OW10703  10.949   9.231   1.808  0.3722  0.3280  0.4544
34488SOL    HW110704  10.895   9.207   1.733  2.1900  0.9330 -1.1356
34488SOL    HW210705  10.909   9.311   1.842 -1.7397 -1.1233  1.5478
34489SOL     OW10706  10.798   8.787   5.964  0.2396 -0.8888  0.1175
34489SOL    HW110707  10.772   8.749   6.048  1.4439  0.3177  1.0703
34489SOL    HW210708  10.811   8.880   5.983 -3.5794  0.3861 -2.3286
34490SOL     OW10709   3.420  10.599  11.222  0.1127 -1.0666 -0.4863
34490SOL    HW110710   3.486  10.654  11.182 -1.5443  1.4942  0.0501
34490SOL    HW210711   3.439  10.511  11.191  2.4248 -0.0991 -2.0366
34491SOL     OW10712  10.786   9.148   1.594  0.4020 -0.2807 -0.1644
34491SOL    HW110713  10.702   9.104   1.578 -0.3250  1.2901 -0.8635
34491SOL    HW210714  10.800   9.202   1.516  1.7452 -0.0083  0.2429
34492SOL     OW10715   6.819  11.494   7.933 -0.4708  0.5860 -0.5591
34492SOL    HW110716   6.740  11.543   7.953 -1.1104 -0.8705  0.6524
34492SOL    HW210717   6.872  11.499   8.012  0.6099  1.4244 -1.3073
34493SOL     OW10718   7.864  11.110   0.866  0.3463  0.8933  1.1063
34493SOL    HW110719   7.844  11.049   0.937 -0.0412  1.2070  1.2728
34493SOL    HW210720   7.780  11.128   0.825  0.5341  0.9109  0.7252
34494SOL     OW10721   3.035   8.543   4.851  0.6316 -0.0640  0.0653
34494SOL    HW110722   3.038   8.487   4.929  1.3085 -1.7275 -1.0826
34494SOL    HW210723   2.952   8.519   4.808  0.5680  0.3707 -0.0553
34495SOL     OW10724   7.459  10.629   0.127  0.1959  0.3012 -0.1314
34495SOL    HW110725   7.416  10.588   0.052  0.9412  0.6099 -0.7342
34495SOL    HW210726   7.544  10.657   0.094  0.4719  0.5830  0.7914
34496SOL     OW10727   9.783   4.083   9.472  0.5771 -0.4178  0.2070
34496SOL    HW110728   9.702   4.098   9.424  0.2661 -0.4493  0.7200
34496SOL    HW210729   9.848   4.064   9.404  0.6038  1.4755 -0.3661
34497SOL     OW10730   2.052   8.360  12.141  0.1046 -0.1989  0.5119
34497SOL    HW110731   2.003   8.436  12.173  3.2136  1.2898  2.2644
34497SOL    HW210732   2.050   8.297  12.213 -0.8606 -1.0173 -0.2011
34498SOL     OW10733   5.142   3.197   9.624 -0.1460 -0.5920 -0.1340
34498SOL    HW110734   5.162   3.183   9.717 -0.7775  0.6372  0.2057
34498SOL    HW210735   5.177   3.119   9.580  0.5063 -1.0106  1.0818
34499SOL     OW10736   8.479   2.456  10.154 -0.1000  0.3094 -0.1390
34499SOL    HW110737   8.540   2.384  10.173  0.3633  0.6916 -0.1738
34499SOL    HW210738   8.393   2.417  10.168  0.0599 -0.7333 -1.7428
34500SOL     OW10739   4.810   9.673   5.312 -0.4512  0.3991 -0.3660
34500SOL    HW110740   4.742   9.739   5.306 -1.1452 -0.1587  0.9731
34500SOL    HW210741   4.763   9.589   5.307  0.6504 -0.2556 -5.7333
34501SOL     OW10742   5.974   0.364   0.436 -0.1505 -0.6451 -0.1296
34501SOL    HW110743   5.980   0.388   0.344  2.3282 -4.5064 -1.2376
34501SOL    HW210744   6.048   0.304   0.450 -1.3564 -1.4964  3.9608
34502SOL     OW10745  10.222   9.393   3.585  0.0377  0.6538  0.5303
34502SOL    HW110746  10.291   9.405   3.520 -0.2783  0.3318  0.1336
34502SOL    HW210747  10.268   9.360   3.662  0.2139 -0.4530 -0.0299
34503SOL     OW10748   1.474   3.011  11.588 -0.3557  0.1255 -0.2635
34503SOL    HW110749   1.530   2.945  11.547 -0.0290  0.6529 -0.6778
34503SOL    HW210750   1.409   2.960  11.637 -0.2367 -0.5047 -0.7475
34504SOL     OW10751   7.108   9.041   0.931  0.1605 -0.4737  0.6243
34504SOL    HW110752   7.103   9.116   0.870  0.3444  0.1274  1.3352
34504SOL    HW210753   7.018   9.022   0.954  0.1312 -0.2953  0.6547
34505SOL     OW10754   2.705  10.043   7.720 -0.2879  0.4898 -0.2194
34505SOL    HW110755   2.717   9.954   7.688 -0.5405  0.2532  0.3334
34505SOL    HW210756   2.759  10.097   7.662 -1.2384  0.1599 -1.4679
34506SOL     OW10757   0.486  10.530   7.780  0.2845  0.1848 -0.6778
34506SOL    HW110758   0.420  10.598   7.772  1.6435  1.7781  0.7436
34506SOL    HW210759   0.481  10.481   7.698 -2.3902  0.4389 -0.7354
34507SOL     OW10760  10.942   4.452  11.676 -0.2768  0.0918  0.1182
34507SOL    HW110761  10.899   4.536  11.664  0.5415  0.3267 -1.4343
34507SOL    HW210762  10.913   4.399  11.602  1.2256 -0.0786 -0.3963
34508SOL     OW10763   3.609   7.296   9.746  0.4795  0.3008 -0.0502
34508SOL    HW110764   3.619   7.367   9.810 -0.3053 -0.8242  1.3754
34508SOL    HW210765   3.568   7.338   9.671  0.8744  1.5480  0.3974
34509SOL     OW10766  10.068   2.628   5.793 -0.8959  0.3714  0.1290
34509SOL    HW110767  10.116   2.610   5.712 -0.1662 -0.1859  0.6805
34509SOL    HW210768  10.015   2.550   5.808 -2.3056  1.1318 -0.6811
34510SOL     OW10769   2.023   3.822   0.429 -0.1192  0.6046  0.0647
34510SOL    HW110770   1.975   3.905   0.424 -0.4396  0.4171  0.0574
34510SOL    HW210771   2.097   3.834   0.369  1.3019  1.8508  1.9691
34511SOL     OW10772   4.781   3.877   8.328  0.0217 -0.4090 -0.1095
34511SOL    HW110773   4.830   3.958   8.343 -0.3256 -0.0655 -0.7909
34511SOL    HW210774   4.796   3.826   8.407 -0.5792  0.7364  0.7817
34512SOL     OW10775  10.055  11.525   6.254 -0.8013  0.1168  0.6315
34512SOL    HW110776  10.002  11.482   6.322 -0.5837  0.8724  1.2941
34512SOL    HW210777  10.144  11.522   6.289 -0.6407  0.2338  0.2288
34513SOL     OW10778   9.630  12.050   6.501 -0.7429  0.2870  0.1331
34513SOL    HW110779   9.601  12.079   6.588 -2.4103  1.0024 -0.6172
34513SOL    HW210780   9.566  12.087   6.441 -0.0848 -0.8747 -1.3478
34514SOL     OW10781   9.324  10.165  11.661 -0.3070  0.3907 -0.3033
34514SOL    HW110782   9.366  10.236  11.710 -1.3670  1.1668 -0.4659
34514SOL    HW210783   9.364  10.085  11.696 -0.4540  0.9594  1.2738
34515SOL     OW10784   3.190  11.214   9.526 -0.1390  0.2139  0.4472
34515SOL    HW110785   3.203  11.309   9.523 -2.6130  0.5871 -1.7218
34515SOL    HW210786   3.275  11.177   9.502  0.8405  1.8689  1.2492
34516SOL     OW10787   0.356   4.562   8.118 -0.2611  0.2864  0.0270
34516SOL    HW110788   0.320   4.519   8.040  2.1908  0.0218 -1.0475
34516SOL    HW210789   0.440   4.596   8.090  0.4890  0.6198  2.4579
34517SOL     OW10790  12.003   2.502   1.077  0.1540 -0.0678  0.3712
34517SOL    HW110791  11.933   2.537   1.021 -1.1161  0.1755  2.0152
34517SOL    HW210792  11.991   2.547   1.160  1.3708 -1.1203  1.1537
34518SOL     OW10793   0.664   3.318   2.774  0.2012 -0.0573  0.0546
34518SOL    HW110794   0.740   3.285   2.822  0.3708 -1.5112 -1.1360
34518SOL    HW210795   0.631   3.389   2.828 -1.2044 -3.1961  3.7515
34519SOL     OW10796   6.232   1.472   9.478 -0.1457 -0.6425  0.2512
34519SOL    HW110797   6.255   1.380   9.470 -1.1481 -0.7522 -2.7465
34519SOL    HW210798   6.144   1.472   9.517  0.2845 -0.8755  1.2270
34520SOL     OW10799  10.477   6.781   8.427  0.2546  0.2736 -0.0466
34520SOL    HW110800  10.549   6.727   8.462  0.0490  0.2216  0.2953
34520SOL    HW210801  10.400   6.724   8.432  0.8199 -1.1626 -4.0355
34521SOL     OW10802   7.349   5.585   0.402 -0.6955  0.3358 -0.2223
34521SOL    HW110803   7.415   5.538   0.352 -0.7846 -1.0143  0.8577
34521SOL    HW210804   7.304   5.517   0.452 -2.6518  1.2523 -0.6314
34522SOL     OW10805  10.023   2.796   1.733  0.6279 -0.2189  0.5433
34522SOL    HW110806  10.067   2.780   1.650  0.5617  2.8757 -0.2098
34522SOL    HW210807  10.088   2.845   1.785 -0.8060  1.8348  0.5174
34523SOL     OW10808   3.909   4.840   7.681  0.0185  0.3629  0.1653
34523SOL    HW110809   3.913   4.923   7.635  0.4448  0.4382  0.3382
34523SOL    HW210810   3.845   4.854   7.751 -0.5705  0.2718 -0.3474
34524SOL     OW10811   1.168   3.614   5.367 -0.3438  0.4410  0.6684
34524SOL    HW110812   1.080   3.625   5.404 -0.7111  0.0788 -0.0868
34524SOL    HW210813   1.216   3.692   5.397 -1.4550  1.6072 -0.4497
34525SOL     OW10814   2.178   8.644   6.946  0.1321 -0.1677  0.1937
34525SOL    HW110815   2.184   8.732   6.983  1.2129 -0.5841  1.0786
34525SOL    HW210816   2.106   8.603   6.994  1.0990 -0.4853  1.4558
34526SOL     OW10817   0.384   0.445   1.822  0.5331  0.2686 -0.2089
34526SOL    HW110818   0.324   0.493   1.766  2.2525  1.5914 -1.0321
34526SOL    HW210819   0.329   0.385   1.872 -1.3906  1.2095 -1.1166
34527SOL     OW10820   7.714   3.863   3.367 -0.5142  0.2521  0.4361
34527SOL    HW110821   7.803   3.899   3.360  0.7503 -2.4189  1.0629
34527SOL    HW210822   7.672   3.887   3.284  0.7014  1.7526  0.1954
34528SOL     OW10823   5.388  11.386   2.934  0.0006 -0.2746  0.2795
34528SOL    HW110824   5.309  11.424   2.974 -0.6123  0.1610 -1.2683
34528SOL    HW210825   5.372  11.292   2.936 -0.7007 -0.1789 -0.2747
34529SOL     OW10826  10.764   4.585   7.856 -0.3022 -0.0815 -0.2553
34529SOL    HW110827  10.751   4.600   7.950 -0.8440 -0.4262 -0.2728
34529SOL    HW210828  10.832   4.649   7.831 -1.0299  0.8589  0.1154
34530SOL     OW10829   1.007   0.635   1.517  0.0142 -0.2007 -0.0619
34530SOL    HW110830   0.979   0.726   1.506 -1.9935 -0.7740 -0.2048
34530SOL    HW210831   1.075   0.638   1.583 -0.2223  1.3756  0.1504
34531SOL     OW10832   0.990   4.114   3.420  0.6051 -0.0464 -0.2070
34531SOL    HW110833   1.058   4.145   3.359  0.3466 -0.3181 -0.6324
34531SOL    HW210834   0.985   4.020   3.404 -0.9164  0.1791 -1.2441
34532SOL     OW10835   5.799   7.684   2.204 -0.2872 -0.0573  0.2887
34532SOL    HW110836   5.772   7.761   2.154  1.7941  0.3662 -0.2802
34532SOL    HW210837   5.811   7.716   2.294 -2.5589 -0.4857  0.7968
34533SOL     OW10838  10.683  11.409   8.559 -0.4606 -0.3945 -0.4550
34533SOL    HW110839  10.708  11.398   8.651 -1.4034 -0.2553 -0.1785
34533SOL    HW210840  10.598  11.453   8.562 -0.4856 -0.3654 -1.3951
34534SOL     OW10841  11.448   6.288   2.610  0.3100 -0.3547  0.4987
34534SOL    HW110842  11.411   6.202   2.590 -1.9834  0.6963 -0.0838
34534SOL    HW210843  11.429   6.301   2.703  1.1221 -0.6599  0.7183
34535SOL     OW10844   1.455  11.313   3.702 -0.0030  0.1821  0.2109
34535SOL    HW110845   1.366  11.282   3.718  0.3646 -0.2565  1.6184
34535SOL    HW210846   1.489  11.255   3.633 -0.8835  0.5350 -0.5346
34536SOL     OW10847  11.401   8.816   7.115 -0.0672 -0.1507  0.0027
34536SOL    HW110848  11.389   8.755   7.042  0.6313  0.7833 -0.9330
34536SOL    HW210849  11.495   8.811   7.135 -0.1735 -0.0708  0.5318
34537SOL     OW10850   1.312   8.558   3.491 -0.4496  0.3382  0.2259
34537SOL    HW110851   1.379   8.543   3.558 -1.0352 -3.3064  0.1691
34537SOL    HW210852   1.248   8.616   3.533  2.3028  3.5710  0.4323
34538SOL     OW10853   3.441   8.718   7.468 -0.1110  0.3909  0.0626
34538SOL    HW110854   3.402   8.737   7.383 -0.1027  1.0565  0.2067
34538SOL    HW210855   3.366   8.704   7.526 -0.1892  2.1956  0.4642
34539SOL     OW10856   6.408   4.850  11.353  0.1748 -0.2518 -0.7114
34539SOL    HW110857   6.324   4.805  11.350 -0.3169  0.4685  1.0601
34539SOL    HW210858   6.425   4.864  11.446  2.6309 -1.0174 -0.9474
34540SOL     OW10859   2.087   5.033   2.491 -0.2195 -0.3677  0.2106
34540SOL    HW110860   2.061   5.124   2.474  0.8624 -0.5381 -2.8748
34540SOL    HW210861   2.030   5.006   2.563  0.4724  3.1847  2.3821
34541SOL     OW10862   5.837   1.347   2.622 -0.1199  0.6042 -0.1496
34541SOL    HW110863   5.842   1.359   2.716  0.2103  0.8900 -0.2044
34541SOL    HW210864   5.917   1.387   2.587  0.2736 -0.4207 -0.4597
34542SOL     OW10865   9.715  10.688  12.508  0.4544  0.0650  0.0160
34542SOL    HW110866   9.656  10.668  12.436 -0.3746 -0.4757  0.8208
34542SOL    HW210867   9.737  10.780  12.496  1.6983 -0.4361 -1.8811
34543SOL     OW10868   2.409   6.942   4.977  0.2359 -0.1255 -0.1184
34543SOL    HW110869   2.476   7.006   4.950  1.6380 -1.4066  0.2120
34543SOL    HW210870   2.326   6.984   4.954  1.1994  0.7336 -2.2719
34544SOL     OW10871   6.690   8.878   7.188  0.4513  0.2316  0.0479
34544SOL    HW110872   6.707   8.817   7.116  0.7390  0.0121  0.2956
34544SOL    HW210873   6.711   8.964   7.153  2.2325 -0.0310  0.3671
34545SOL     OW10874   0.157  12.031   6.385 -0.4191 -0.7949 -0.0248
34545SOL    HW110875   0.231  12.027   6.324 -0.2964 -1.3203  0.1530
34545SOL    HW210876   0.158  12.121   6.418 -0.3811 -0.5584 -0.6685
34546SOL     OW10877   6.571   9.487   1.734  0.1302 -0.1849 -0.0226
34546SOL    HW110878   6.636   9.447   1.676 -0.1455 -0.4474 -0.1512
34546SOL    HW210879   6.533   9.414   1.783 -1.3085 -0.2665 -1.1921
34547SOL     OW10880   6.440   8.135   9.698  0.4873 -0.3930 -0.2024
34547SOL    HW110881   6.378   8.119   9.768  0.4584  2.7150  0.6238
34547SOL    HW210882   6.522   8.157   9.742  0.9022  0.1006 -1.1750
34548SOL     OW10883   2.168   2.924   2.703 -0.5832  0.2594 -0.4849
34548SOL    HW110884   2.132   2.917   2.791 -0.5431 -0.0194 -0.4906
34548SOL    HW210885   2.129   2.851   2.655  0.0801 -0.1146 -0.4585
34549SOL     OW10886   1.949   7.155   0.895 -0.1865  0.4906 -0.1716
34549SOL    HW110887   1.997   7.209   0.959 -1.1688 -0.8092  1.7667
34549SOL    HW210888   1.858   7.159   0.924 -0.7071  0.0491 -1.6675
34550SOL     OW10889   2.598   0.310  10.666  0.8346 -0.3194 -0.1466
34550SOL    HW110890   2.582   0.288  10.574  0.1636  1.0335 -0.3858
34550SOL    HW210891   2.519   0.357  10.693  1.8371  1.0323  0.5292
34551SOL     OW10892   8.663   2.020  11.558  0.4220  0.1360  0.1199
34551SOL    HW110893   8.713   2.050  11.634  2.8025  0.9199 -1.6505
34551SOL    HW210894   8.572   2.025  11.587  1.1404  1.9151  2.4131
34552SOL     OW10895  10.371   6.213   5.843  0.4695 -0.0580 -0.0161
34552SOL    HW110896  10.404   6.125   5.860  0.6102 -0.1069 -0.5267
34552SOL    HW210897  10.447   6.262   5.813  0.3954  0.2456  0.2849
34553SOL     OW10898   6.611   1.338   0.758  0.0086 -0.0765 -0.1546
34553SOL    HW110899   6.653   1.354   0.673 -0.5276  0.7352 -0.2790
34553SOL    HW210900   6.677   1.291   0.809  0.7283  0.3677 -0.6536
34554SOL     OW10901   5.087   0.250  12.100  0.1272 -0.3351 -0.2329
34554SOL    HW110902   5.163   0.308  12.094 -0.7974  1.0485  0.6922
34554SOL    HW210903   5.013   0.305  12.075 -0.8803 -0.8573  1.4081
34555SOL     OW10904   8.179   5.402  12.243  0.6002 -1.3366 -0.0137
34555SOL    HW110905   8.248   5.349  12.203  0.4944 -0.9661 -0.6886
34555SOL    HW210906   8.125   5.431  12.170  0.7295 -0.1901  0.3243
34556SOL     OW10907   7.141   4.225   2.845  0.1415 -0.7072  0.4979
34556SOL    HW110908   7.066   4.267   2.888 -0.0027 -0.3334 -0.1046
34556SOL    HW210909   7.194   4.192   2.917 -0.6892 -1.1418  0.9349
34557SOL     OW10910   4.737  10.248   5.921 -0.3856 -0.0298  0.4560
34557SOL    HW110911   4.701  10.174   5.873 -0.8722  0.7579 -0.4152
34557SOL    HW210912   4.794  10.208   5.987 -1.5339 -1.2334  0.7708
34558SOL     OW10913   5.552  10.321  10.883  0.0813  0.0503  0.7321
34558SOL    HW110914   5.567  10.414  10.901 -0.3932  0.1854  0.4559
34558SOL    HW210915   5.475  10.299  10.935 -2.6596  0.9875 -2.5904
34559SOL     OW10916  10.041   8.145   8.116  0.7215  0.0939 -0.2159
34559SOL    HW110917  10.111   8.096   8.159 -0.0598  0.7862  1.9828
34559SOL    HW210918  10.006   8.085   8.050  0.8947 -1.6780  1.2450
34560SOL     OW10919   8.234  10.967   4.718 -0.5447  0.1028 -0.4256
34560SOL    HW110920   8.285  11.003   4.791  0.7163 -1.4489 -0.4870
34560SOL    HW210921   8.171  11.036   4.697  1.1755  1.9099 -0.0004
34561SOL     OW10922   4.171   3.247   6.267 -0.2944  0.5714 -0.0834
34561SOL    HW110923   4.216   3.231   6.350 -0.4580 -0.5408 -0.1896
34561SOL    HW210924   4.185   3.167   6.216 -0.0656  1.2949 -1.2012
34562SOL     OW10925   2.897  11.362   6.992 -0.4909  0.5498  0.2178
34562SOL    HW110926   2.906  11.393   6.902  0.6839  0.2572  0.2226
34562SOL    HW210927   2.987  11.356   7.024 -0.9244  1.3969  1.6699
34563SOL     OW10928  12.511   1.446   5.602  1.0274 -0.2040 -0.3812
34563SOL    HW110929  12.602   1.416   5.601  0.3577 -2.5023 -2.7707
34563SOL    HW210930  12.467   1.391   5.537 -2.1865  0.5610  0.9775
34564SOL     OW10931   6.273   6.175   1.594 -0.0458 -0.2128  0.3940
34564SOL    HW110932   6.217   6.163   1.671 -0.7211  0.7626  0.0740
34564SOL    HW210933   6.291   6.269   1.592  0.7394 -0.3620 -0.1236
34565SOL     OW10934  12.583   2.876   2.356  0.0801  0.1726 -0.0862
34565SOL    HW110935  12.575   2.850   2.448 -0.5940 -1.5234 -0.5851
34565SOL    HW210936  12.656   2.824   2.323  0.3148  0.7683 -0.5233
34566SOL     OW10937   9.648  12.550   0.269 -0.4485  0.0822 -0.5391
34566SOL    HW110938   9.624  12.508   0.352  2.6229  1.1975  1.0785
34566SOL    HW210939   9.689  12.481   0.218 -0.4981 -0.1520 -0.2627
34567SOL     OW10940   8.563   0.906   6.119  0.1647 -0.0530  0.4051
34567SOL    HW110941   8.552   0.993   6.157 -0.6909 -0.0777  0.2316
34567SOL    HW210942   8.507   0.849   6.172  0.7604 -0.5102  0.5489
34568SOL     OW10943   4.761  12.581   5.476  0.2154 -0.1113  0.3235
34568SOL    HW110944   4.793  12.500   5.436  3.5122  0.5695  1.3031
34568SOL    HW210945   4.835  12.641   5.474 -1.4089  2.1488  1.7028
34569SOL     OW10946   1.562   4.257   9.726  0.7563  0.1602 -0.4929
34569SOL    HW110947   1.620   4.181   9.728  2.0356  1.0947  2.1149
34569SOL    HW210948   1.485   4.230   9.774  0.8777  0.2399 -0.2494
34570SOL     OW10949   4.114   9.727   2.935  0.6870  0.6214 -0.5346
34570SOL    HW110950   4.172   9.804   2.941 -0.4052  1.5471 -1.3663
34570SOL    HW210951   4.090   9.709   3.025  1.5311  0.7991 -0.2593
34571SOL     OW10952   5.468   4.839   7.214  0.1470 -0.0061 -0.7198
34571SOL    HW110953   5.543   4.872   7.264 -0.4962  0.2967  0.0752
34571SOL    HW210954   5.484   4.869   7.125  1.2314 -0.3908 -0.6714
34572SOL     OW10955  11.184  12.313   8.788 -0.1750 -0.2875  0.1786
34572SOL    HW110956  11.266  12.301   8.741 -0.5230 -1.3368 -0.2108
34572SOL    HW210957  11.210  12.336   8.877  0.5060  0.9656 -0.3283
34573SOL     OW10958   3.233   5.898   3.254  0.4015 -0.4820  0.4941
34573SOL    HW110959   3.278   5.919   3.335  0.2866  1.8133  0.0556
34573SOL    HW210960   3.273   5.957   3.189 -1.4269 -0.2060 -0.4589
34574SOL     OW10961   6.767   5.964   4.178  0.5142  0.2653  0.1394
34574SOL    HW110962   6.695   5.993   4.233  1.7158 -0.3669  2.1546
34574SOL    HW210963   6.812   5.897   4.229  2.1986  0.2290 -1.2627
34575SOL     OW10964   4.161   0.946   9.399 -0.3006  0.2027 -0.3599
34575SOL    HW110965   4.128   0.857   9.383 -1.1073  0.5205 -0.4970
34575SOL    HW210966   4.246   0.949   9.353  0.6742 -1.1066  1.2304
34576SOL     OW10967   7.260   0.098   8.842  0.2421 -0.0820 -0.4612
34576SOL    HW110968   7.184   0.081   8.786  0.3884  0.2544 -0.7622
34576SOL    HW210969   7.335   0.089   8.784  0.3032  2.4503 -0.8802
34577SOL     OW10970   6.394  11.944   1.164  0.2780 -0.6331 -0.2209
34577SOL    HW110971   6.378  11.849   1.167  1.3134 -0.8338 -0.3462
34577SOL    HW210972   6.486  11.951   1.137  0.2714  0.4079 -0.0098
34578SOL     OW10973   9.056   3.096   7.827  0.8025  0.0920 -0.5054
34578SOL    HW110974   9.096   3.046   7.756  1.9433  1.3908 -0.8146
34578SOL    HW210975   8.990   3.150   7.784  0.9072  0.2637 -0.4498
34579SOL     OW10976  10.691   2.647  10.582 -0.4164 -0.5515  0.1697
34579SOL    HW110977  10.778   2.609  10.570 -0.0540 -0.0512  1.0582
34579SOL    HW210978  10.706   2.720  10.642 -1.0079  1.2325 -1.7210
34580SOL     OW10979   1.143   6.205   5.408  0.2608 -0.1653  0.0485
34580SOL    HW110980   1.145   6.171   5.319 -0.7482 -0.3177  0.0661
34580SOL    HW210981   1.224   6.255   5.417  0.4097 -0.2109 -0.9256
34581SOL     OW10982  10.261   9.583   6.659  0.1794  0.0792  0.2413
34581SOL    HW110983  10.201   9.584   6.733  0.0646  3.0826  0.2115
34581SOL    HW210984  10.347   9.601   6.696 -0.1933  4.1576 -0.3728
34582SOL     OW10985   0.716  10.134  10.184  0.3059  0.0318 -0.4440
34582SOL    HW110986   0.686  10.073  10.117  0.9574 -1.1982  0.3563
34582SOL    HW210987   0.667  10.110  10.263  0.6757  0.4466 -0.0769
34583SOL     OW10988   9.030   6.242   3.343  0.0726  0.0714 -0.1088
34583SOL    HW110989   9.007   6.149   3.347 -0.6210  0.2273 -0.2589
34583SOL    HW210990   8.945   6.287   3.337  0.2121  0.9191  2.9384
34584SOL     OW10991   9.205   1.757   8.847  0.2188  0.4244  0.2668
34584SOL    HW110992   9.152   1.789   8.921  0.0775 -0.3160  0.4951
34584SOL    HW210993   9.285   1.724   8.888 -0.5356 -1.4664  0.2689
34585SOL     OW10994   3.391   5.846   3.461 -0.0775 -0.3828 -0.0448
34585SOL    HW110995   3.406   5.885   3.547 -0.0108  0.7550 -0.5504
34585SOL    HW210996   3.398   5.751   3.476 -0.2887 -0.2196  1.2342
34586SOL     OW10997   9.311   9.249  11.039  0.5239 -0.0606  0.4405
34586SOL    HW110998   9.225   9.280  11.008  0.0512 -0.6396  1.1387
34586SOL    HW210999   9.372   9.319  11.014  0.2516 -0.6452 -2.1128
34587SOL     OW11000   5.683   6.559   5.116 -0.4132 -1.1549  0.4887
34587SOL    HW111001   5.613   6.577   5.179 -1.1773 -1.1957 -0.3206
34587SOL    HW211002   5.704   6.644   5.079  1.0371 -0.9171  1.7942
34588SOL     OW11003  11.852  10.123   0.934  0.1410  0.6993  0.4500
34588SOL    HW111004  11.813  10.064   0.869  1.4180 -0.8520  1.0207
34588SOL    HW211005  11.888  10.195   0.882 -1.7348  1.2007 -0.2353
34589SOL     OW11006   1.633   7.298  11.178  0.2198 -0.0252 -0.3998
34589SOL    HW111007   1.659   7.214  11.218  1.0205  0.5713  0.3728
34589SOL    HW211008   1.716   7.339  11.155 -0.1963  0.2765 -1.3920
34590SOL     OW11009   1.121   7.664   6.948  0.0961 -0.3959  0.4649
34590SOL    HW111010   1.191   7.666   6.883 -0.0207 -1.8297  0.2546
34590SOL    HW211011   1.164   7.639   7.030 -0.0440 -0.4271  0.5295
34591SOL     OW11012   5.815   5.716  12.450  0.7640  0.0172  0.2039
34591SOL    HW111013   5.789   5.773  12.523  2.0984 -0.0264  0.7516
34591SOL    HW211014   5.828   5.775  12.377 -0.5428  0.0682 -0.0205
34592SOL     OW11015   3.561   1.223  11.210  0.3549  0.7385  0.4503
34592SOL    HW111016   3.654   1.243  11.203  0.3331  0.3197 -2.9065
34592SOL    HW211017   3.517   1.303  11.179 -0.2994  0.2467  0.0773
34593SOL     OW11018  10.370   5.742  11.567  0.2079 -0.7189  0.1645
34593SOL    HW111019  10.427   5.731  11.491  1.4892  1.3387  0.7373
34593SOL    HW211020  10.321   5.822  11.548  2.4873  1.4432  2.5157
34594SOL     OW11021   2.955   6.100   0.222 -0.2249  0.6814 -0.9486
34594SOL    HW111022   2.900   6.147   0.285  0.5417  1.1444 -0.6071
34594SOL    HW211023   2.924   6.130   0.136 -3.7106 -2.5815 -1.0885
34595SOL     OW11024   5.352   3.204   1.237  0.4278  0.3217 -0.2790
34595SOL    HW111025   5.447   3.213   1.232  0.5174 -0.0628  0.5939
34595SOL    HW211026   5.318   3.281   1.191  1.1648  1.2681  0.7122
34596SOL     OW11027   9.910   3.413   8.235 -0.1556  0.1069 -0.5457
34596SOL    HW111028   9.939   3.477   8.170  0.5964  0.1586 -0.1590
34596SOL    HW211029   9.987   3.394   8.288  0.0847 -2.2575 -1.5769
34597SOL     OW11030   4.113   0.722   3.328  0.1301  0.3132 -0.3292
34597SOL    HW111031   4.201   0.695   3.354 -0.8623 -0.9520  2.0337
34597SOL    HW211032   4.075   0.757   3.409 -2.4595 -1.7661 -0.5250
34598SOL     OW11033   7.181   1.758   2.314  0.4232 -0.3098  0.4647
34598SOL    HW111034   7.110   1.773   2.376  1.1237  0.3077  1.1356
34598SOL    HW211035   7.174   1.831   2.251  1.2573  0.5240  1.3026
34599SOL     OW11036   0.791   9.365  12.123  0.0912 -0.1566 -0.1775
34599SOL    HW111037   0.800   9.424  12.198 -1.0685  0.3382 -0.4179
34599SOL    HW211038   0.862   9.302  12.134  0.2763  0.2450  1.0334
34600SOL     OW11039   2.888   1.988   1.350  0.1615  0.2858  0.4146
34600SOL    HW111040   2.949   1.995   1.276 -0.6786 -1.1351 -0.4580
34600SOL    HW211041   2.944   1.995   1.427  1.6369 -1.8960 -0.3431
34601SOL     OW11042   0.820   5.592   8.383 -0.1100  0.1124  0.1287
34601SOL    HW111043   0.906   5.576   8.421 -0.9699 -2.0323  1.3180
34601SOL    HW211044   0.781   5.506   8.374 -1.2785  0.8212 -2.6136
34602SOL     OW11045   9.401   3.952   9.018 -0.2410 -0.4170  0.3010
34602SOL    HW111046   9.351   3.929   9.096 -1.1903  3.2705  1.0013
34602SOL    HW211047   9.335   3.978   8.954  0.6091  0.5261 -0.2382
34603SOL     OW11048  12.322   5.516   3.169  0.1260 -0.0305 -0.4313
34603SOL    HW111049  12.355   5.579   3.106 -0.6038 -0.0774 -0.8708
34603SOL    HW211050  12.301   5.568   3.247  1.7085 -0.0729  0.0593
34604SOL     OW11051   8.518   4.581  11.570  0.4992  0.0309  0.2687
34604SOL    HW111052   8.510   4.522  11.496 -0.1567 -1.3269  1.3688
34604SOL    HW211053   8.429   4.585  11.607  0.6407  1.3215  0.5131
34605SOL     OW11054   6.568   3.022  11.910  0.3065 -0.4426  0.3121
34605SOL    HW111055   6.632   2.974  11.858  0.2496  0.7790 -0.9592
34605SOL    HW211056   6.600   3.016  12.000  2.2756  0.1705 -0.2895
34606SOL     OW11057   6.738   5.536   5.674 -0.4825 -0.1427 -0.6817
34606SOL    HW111058   6.696   5.536   5.760 -1.5973  0.0260 -1.2128
34606SOL    HW211059   6.778   5.449   5.667  0.0354  0.0120  0.1978
34607SOL     OW11060   9.088  12.428   0.134  0.1371  0.0484 -0.0911
34607SOL    HW111061   9.153  12.402   0.069  0.0706  0.5845 -0.3797
34607SOL    HW211062   9.138  12.475   0.201  0.0219  0.6397 -0.4158
34608SOL     OW11063   9.613  11.616   9.034  0.8053  0.1636 -0.4046
34608SOL    HW111064   9.518  11.603   9.030  0.4033  2.8305 -1.3509
34608SOL    HW211065   9.633  11.615   9.128 -0.3525  0.6030 -0.1388
34609SOL     OW11066   1.992  10.941   5.339  0.3361  0.6638  0.8276
34609SOL    HW111067   1.962  10.853   5.361 -0.6049  0.3980 -1.2906
34609SOL    HW211068   1.960  10.996   5.410 -0.6660 -0.4409  1.2644
34610SOL     OW11069  10.768   9.210   5.460 -0.0433  0.2230 -0.0705
34610SOL    HW111070  10.831   9.174   5.397 -1.7687 -1.3348 -1.0076
34610SOL    HW211071  10.711   9.265   5.407  0.2766  1.3400  0.7112
34611SOL     OW11072  11.720   9.165   7.631 -0.3062  0.3418 -0.0922
34611SOL    HW111073  11.719   9.225   7.557  2.8047  0.3049 -0.2649
34611SOL    HW211074  11.732   9.222   7.708  1.7103  0.0753 -0.1690
34612SOL     OW11075   7.132   6.651   1.397 -0.4646 -0.1495 -0.0334
34612SOL    HW111076   7.146   6.648   1.491  0.0297  1.3139 -0.0336
34612SOL    HW211077   7.214   6.619   1.359  1.4567  4.1012  0.0259
34613SOL     OW11078   0.922   8.308   4.086 -0.1744 -0.3217  0.0282
34613SOL    HW111079   0.953   8.232   4.135  0.5126  0.8833  1.5834
34613SOL    HW211080   0.941   8.288   3.995  2.4951 -0.9189  0.6341
34614SOL     OW11081   7.794   5.070   8.125  0.1401 -0.0795 -0.1905
34614SOL    HW111082   7.702   5.096   8.115  0.3527  1.4108  1.2027
34614SOL    HW211083   7.833   5.142   8.175  0.8210 -3.1258  4.1664
34615SOL     OW11084  10.335  10.965   2.232  0.2786  0.3660  0.0393
34615SOL    HW111085  10.241  10.964   2.251 -0.0073  0.0439 -1.2742
34615SOL    HW211086  10.349  10.888   2.177  1.4640 -0.0199  0.8387
34616SOL     OW11087   2.417  10.166   3.623 -0.1281  0.3264 -0.2335
34616SOL    HW111088   2.345  10.139   3.679  0.0265  1.6250  0.6221
34616SOL    HW211089   2.494  10.162   3.679  0.3164 -0.0939 -0.8633
34617SOL     OW11090  11.631  12.448   2.470  0.0194  0.3953 -0.3037
34617SOL    HW111091  11.679  12.420   2.547 -0.1547 -1.1414 -0.7119
34617SOL    HW211092  11.691  12.506   2.424  0.9376 -0.3249 -0.0543
34618SOL     OW11093   3.229   3.450   7.893 -0.5253 -0.5130 -0.2342
34618SOL    HW111094   3.278   3.420   7.816  0.9994  1.0403  0.0699
34618SOL    HW211095   3.165   3.512   7.858 -0.7261 -0.7972 -0.3781
34619SOL     OW11096   9.646   2.894  12.363  0.4342  0.5027 -0.9046
34619SOL    HW111097   9.561   2.868  12.399  1.3805  0.3564  1.3715
34619SOL    HW211098   9.640   2.989  12.354  0.6789  0.7580  1.2159
34620SOL     OW11099  11.742   0.569  11.929  0.6876 -0.5960  0.1762
34620SOL    HW111100  11.805   0.515  11.976  0.7096  0.5696  1.5764
34620SOL    HW211101  11.708   0.629  11.996  1.0654  1.4722 -1.3777
34621SOL     OW11102   3.434  11.917   9.341 -0.5626 -0.5502 -0.1525
34621SOL    HW111103   3.407  11.878   9.258  3.2347 -0.7336 -1.4791
34621SOL    HW211104   3.505  11.977   9.318 -0.5796  0.8033  2.8047
34622SOL     OW11105   6.439   9.393   0.140 -0.3286  0.4757  0.0519
34622SOL    HW111106   6.532   9.404   0.161 -0.2380 -1.6715  1.0402
34622SOL    HW211107   6.438   9.352   0.054 -0.3685  0.3624  0.1067
34623SOL     OW11108   6.204   9.622  11.173  0.6302  0.3466 -0.0523
34623SOL    HW111109   6.279   9.569  11.199  0.9612 -0.0098 -1.5783
34623SOL    HW211110   6.219   9.640  11.080 -1.7868 -0.7988 -0.7562
34624SOL     OW11111   5.227   5.837   3.894 -0.0531 -0.7810 -0.0019
34624SOL    HW111112   5.181   5.760   3.859 -0.4484 -0.7570  0.4570
34624SOL    HW211113   5.223   5.826   3.989 -2.4288  1.0901  0.2223
34625SOL     OW11114   3.630   8.142   3.166  0.2769  0.6799  0.4087
34625SOL    HW111115   3.680   8.064   3.144  0.1864  1.1859 -1.9092
34625SOL    HW211116   3.687   8.215   3.143 -1.0690  1.2655 -1.3229
34626SOL     OW11117   8.465   2.434   3.551 -0.0462  0.2745 -0.0534
34626SOL    HW111118   8.535   2.381   3.589 -1.6362 -1.1175  1.0795
34626SOL    HW211119   8.389   2.376   3.551 -1.6240  2.2644  0.2814
34627SOL     OW11120   2.847   3.881  10.591  0.1962  0.2857 -0.0056
34627SOL    HW111121   2.851   3.931  10.672 -0.9105 -0.2362  0.3752
34627SOL    HW211122   2.791   3.933  10.533  1.0747  0.7171 -0.5093
34628SOL     OW11123   5.469  10.240   5.534 -0.0711 -0.2249  0.0656
34628SOL    HW111124   5.456  10.307   5.601 -0.5355 -0.6394  0.3985
34628SOL    HW211125   5.510  10.286   5.461  0.5852  0.2058  0.6939
34629SOL     OW11126  11.114   0.753   8.929 -0.1131  0.4152 -0.2716
34629SOL    HW111127  11.050   0.724   8.863 -1.2786  0.6113  0.7507
34629SOL    HW211128  11.196   0.709   8.903 -0.4904  0.6039 -1.9330
34630SOL     OW11129   4.393   6.492   4.183 -0.3067  0.5551  0.1829
34630SOL    HW111130   4.388   6.584   4.212  0.7937  1.3592 -1.9871
34630SOL    HW211131   4.464   6.455   4.236 -0.8585  0.8764  1.1862
34631SOL     OW11132  10.440   9.471   9.790  0.3514  0.0609  0.8255
34631SOL    HW111133  10.469   9.446   9.877 -0.2769  0.1375  1.0650
34631SOL    HW211134  10.357   9.425   9.778 -0.8808  2.0099  1.3018
34632SOL     OW11135   8.338   6.475  10.391  1.0272  0.3621 -0.0272
34632SOL    HW111136   8.418   6.430  10.363  0.6977 -0.2651  0.0164
34632SOL    HW211137   8.369   6.542  10.452  1.5011 -0.0312  0.1755
34633SOL     OW11138  10.207  11.080   7.066  0.2865 -0.0597  0.0975
34633SOL    HW111139  10.226  11.016   6.997  1.2240  0.1641  0.1430
34633SOL    HW211140  10.206  11.028   7.147  1.2917  0.0113  0.1651
34634SOL     OW11141   9.905   4.898  10.019 -0.0579  0.0392  0.5326
34634SOL    HW111142   9.894   4.946   9.937  1.7513  1.0136  0.8154
34634SOL    HW211143   9.876   4.809   9.998 -1.3240  0.6818 -0.6380
34635SOL     OW11144   5.584  12.500  10.282  0.0784  0.0754 -0.4014
34635SOL    HW111145   5.634  12.501  10.201  1.9194  0.1661  0.6764
34635SOL    HW211146   5.579  12.408  10.307  0.7605  0.1626  0.0888
34636SOL     OW11147   7.321   3.941   7.282 -0.2657 -0.0172  0.0093
34636SOL    HW111148   7.396   3.994   7.255  0.5467  0.8896  3.5340
34636SOL    HW211149   7.303   3.885   7.207  0.9526  2.9030 -2.6805
34637SOL     OW11150   8.554   3.204   6.472  0.6064 -0.4600  0.4560
34637SOL    HW111151   8.540   3.279   6.414 -2.1769 -1.3630 -0.2349
34637SOL    HW211152   8.531   3.236   6.559 -0.0989 -0.3543  0.2395
34638SOL     OW11153   7.297  12.535   5.626 -0.2291 -0.1601  0.1891
34638SOL    HW111154   7.219  12.573   5.665  0.2921  1.1406 -0.0005
34638SOL    HW211155   7.368  12.559   5.685  0.5740  1.8150 -1.4444
34639SOL     OW11156   9.604   1.959   7.847 -0.3355 -0.4181 -0.4420
34639SOL    HW111157   9.561   2.045   7.839  0.1085 -0.1348  0.1663
34639SOL    HW211158   9.679   1.965   7.787  2.0409  1.1173  2.3904
34640SOL     OW11159   0.929   8.592  10.870 -0.4509  0.5776 -0.8934
34640SOL    HW111160   0.884   8.655  10.814 -0.4957  0.7432 -0.6728
34640SOL    HW211161   0.986   8.543  10.811 -1.9816 -0.6289 -1.4391
34641SOL     OW11162   5.468   6.878   8.078  0.1654  0.3447  0.5287
34641SOL    HW111163   5.476   6.973   8.066 -0.6513  0.2498 -0.9072
34641SOL    HW211164   5.400   6.869   8.145  0.0771  0.7678  0.5029
34642SOL     OW11165  11.465   6.864  11.597  0.1396  0.2570 -0.3692
34642SOL    HW111166  11.449   6.792  11.658  1.7110  0.5519  0.4305
34642SOL    HW211167  11.388   6.921  11.606 -0.9741 -1.1245 -0.7882
34643SOL     OW11168   9.883  10.741   8.592 -0.3508  0.4046  0.1826
34643SOL    HW111169   9.788  10.732   8.597 -0.0962 -2.4245  1.9171
34643SOL    HW211170   9.909  10.691   8.515 -0.2400  1.4936 -0.5169
34644SOL     OW11171   4.371   0.592   6.229  0.7262  0.1504  0.2606
34644SOL    HW111172   4.428   0.638   6.167  0.1899 -0.5312 -0.7922
34644SOL    HW211173   4.410   0.504   6.236 -0.7070 -0.6851 -1.3147
34645SOL     OW11174   1.094  10.583   7.104  0.6608  0.4612  0.0556
34645SOL    HW111175   1.147  10.560   7.028 -0.6759 -0.9052 -0.5254
34645SOL    HW211176   1.053  10.667   7.081 -0.9461 -0.6572 -1.4809
34646SOL     OW11177   7.682   2.406   9.022 -0.4963 -0.3435 -0.1482
34646SOL    HW111178   7.709   2.428   9.111 -1.1531  1.2663 -0.3131
34646SOL    HW211179   7.727   2.324   9.003  1.9778  0.7524  0.5896
34647SOL     OW11180   6.116  11.809   5.737  0.1093  0.4662  0.2387
34647SOL    HW111181   6.136  11.792   5.829  0.6484  1.5035  0.3169
34647SOL    HW211182   6.088  11.723   5.703  0.2926 -0.0122  1.2576
34648SOL     OW11183   9.011   2.743   9.677 -0.1284  1.1101 -0.2736
34648SOL    HW111184   8.944   2.676   9.685  0.5805  0.0661 -2.3145
34648SOL    HW211185   9.008   2.791   9.760 -0.6597 -1.4270  1.2686
34649SOL     OW11186  10.689   0.431   6.216  0.2432 -0.3733 -0.0129
34649SOL    HW111187  10.631   0.466   6.149  0.2662 -2.4387 -1.1949
34649SOL    HW211188  10.632   0.384   6.276  0.4420 -0.2993  0.2354
34650SOL     OW11189   9.280   1.297   6.830  0.0033 -0.2163 -0.4459
34650SOL    HW111190   9.278   1.334   6.742  1.3949 -1.0253 -0.8410
34650SOL    HW211191   9.237   1.212   6.822  0.7915 -0.6125 -0.5113
34651SOL     OW11192   0.851   9.242   0.719 -0.2046 -0.0361  0.1889
34651SOL    HW111193   0.920   9.219   0.781 -0.5563  1.7894  1.3341
34651SOL    HW211194   0.897   9.277   0.643  0.1727 -0.4285  0.2366
34652SOL     OW11195   5.708   3.271   6.085  0.1680  0.1439 -0.5424
34652SOL    HW111196   5.761   3.347   6.111  1.3190 -0.1575 -1.8813
34652SOL    HW211197   5.770   3.197   6.087 -1.2169 -1.0726  1.9950
34653SOL     OW11198   7.381   6.668   6.590  0.2314  0.0895 -0.2269
34653SOL    HW111199   7.358   6.631   6.505 -1.3867  1.3942 -0.4186
34653SOL    HW211200   7.382   6.763   6.576  0.4118  0.3069  1.0913
34654SOL     OW11201  11.817   4.239   3.972 -0.6852  0.1841 -0.0858
34654SOL    HW111202  11.738   4.255   3.921 -1.2132  2.1036  1.2558
34654SOL    HW211203  11.789   4.181   4.042 -0.5729 -0.2741 -0.4172
34655SOL     OW11204   1.150   9.660   8.816  0.3449 -0.5498 -0.6350
34655SOL    HW111205   1.089   9.617   8.876 -0.1000 -0.2778 -0.8836
34655SOL    HW211206   1.106   9.658   8.731 -0.1061  1.1853 -0.4839
34656SOL     OW11207   6.416  10.786   2.564 -0.3140 -0.3044 -0.3193
34656SOL    HW111208   6.369  10.853   2.514 -1.0026 -0.8618 -0.4352
34656SOL    HW211209   6.359  10.767   2.639 -0.1923 -0.8436 -0.3562
34657SOL     OW11210  10.946   3.797   3.401  0.3521 -0.1681 -0.8215
34657SOL    HW111211  10.938   3.889   3.428  1.3887 -0.4321  0.4939
34657SOL    HW211212  11.034   3.771   3.431  0.6219 -1.1956 -2.4081
34658SOL     OW11213   6.134   5.983   2.166  0.2159  0.5153 -0.3047
34658SOL    HW111214   6.216   6.031   2.155  1.1037 -1.3428 -2.4679
34658SOL    HW211215   6.078   6.016   2.096 -0.6231  1.1217  0.6124
34659SOL     OW11216   3.343   6.983   7.807 -0.0784 -0.6665 -0.6428
34659SOL    HW111217   3.374   7.004   7.895 -0.2145 -1.7345 -0.3226
34659SOL    HW211218   3.421   6.958   7.758  0.1291  0.8471 -1.1202
34660SOL     OW11219   3.463   0.335   1.716  0.0799  0.0580 -0.4907
34660SOL    HW111220   3.460   0.251   1.762  0.6412  0.0526 -0.4482
34660SOL    HW211221   3.404   0.324   1.641 -2.1541  0.6249  1.0985
34661SOL     OW11222   1.304   6.797   3.277 -0.3582 -0.0391  0.2609
34661SOL    HW111223   1.284   6.889   3.295  0.1732  0.1605 -0.1335
34661SOL    HW211224   1.360   6.769   3.349 -1.5837 -0.4407  1.0775
34662SOL     OW11225  11.714   7.510   0.002  0.2610 -0.1414  0.2406
34662SOL    HW111226  11.620   7.521  -0.013 -0.1265  0.3468  2.7305
34662SOL    HW211227  11.722   7.427   0.048  1.2875 -1.0242 -1.3977
34663SOL     OW11228  10.369  11.066  11.463 -0.4074 -0.2065  0.2628
34663SOL    HW111229  10.327  11.152  11.464  1.9104  1.0600 -1.0514
34663SOL    HW211230  10.412  11.061  11.378  2.2540 -1.2045  1.5372
34664SOL     OW11231  10.177   4.478   8.590 -0.5605 -0.1185  0.5262
34664SOL    HW111232  10.145   4.390   8.610  1.3556 -0.4615  2.4232
34664SOL    HW211233  10.177   4.523   8.675  0.8656  0.8746  0.0274
34665SOL     OW11234   5.445   5.081   9.406  0.2225  0.3259  0.0654
34665SOL    HW111235   5.478   5.098   9.495  1.2658  1.5676 -0.5239
34665SOL    HW211236   5.426   5.168   9.370  2.4287  0.1158 -1.8608
34666SOL     OW11237  10.124   4.482   8.860 -1.0142  0.3712 -0.1436
34666SOL    HW111238  10.050   4.522   8.905  0.5442  2.4134  0.7374
34666SOL    HW211239  10.129   4.393   8.895 -1.5840  0.9940  1.5992
34667SOL     OW11240   7.115   3.429  11.314 -0.0141  0.1376  0.2642
34667SOL    HW111241   7.124   3.375  11.392  0.2978 -0.0181  0.1215
34667SOL    HW211242   7.191   3.406  11.260  0.5460  1.2757  0.5401
34668SOL     OW11243   1.213   9.902   4.824 -0.5261 -0.5045 -0.2124
34668SOL    HW111244   1.240   9.834   4.762 -0.3580 -0.5909 -0.0448
34668SOL    HW211245   1.196   9.979   4.769 -0.9706 -0.7542 -0.4296
34669SOL     OW11246   8.918   1.643   9.027  0.1661 -0.4709 -0.5326
34669SOL    HW111247   8.991   1.685   9.072 -1.3334 -0.2981  1.9296
34669SOL    HW211248   8.956   1.568   8.983  1.9658  0.2179 -0.2129
34670SOL     OW11249   1.623   2.876   1.622  0.6011 -0.2940  0.8865
34670SOL    HW111250   1.605   2.902   1.532  2.1323 -0.7331  0.4230
34670SOL    HW211251   1.561   2.927   1.675 -1.3959 -1.1726 -0.4799
34671SOL     OW11252   7.689   0.468   9.890 -0.2445 -0.6790  0.1416
34671SOL    HW111253   7.744   0.451   9.967 -0.4665 -0.4884  0.3435
34671SOL    HW211254   7.750   0.503   9.825 -0.2486  0.2518  0.6217
34672SOL     OW11255   7.679   1.054   4.269 -0.1869 -0.3208  0.2146
34672SOL    HW111256   7.590   1.082   4.245 -0.2049  0.4273  1.1254
34672SOL    HW211257   7.676   0.959   4.260 -1.7113 -0.5272  2.1701
34673SOL     OW11258   9.754   0.680  10.660 -0.4597  0.2884 -0.0603
34673SOL    HW111259   9.827   0.692  10.600  2.2030 -1.3289  2.5255
34673SOL    HW211260   9.765   0.749  10.726 -2.7291  1.4422 -0.7906
34674SOL     OW11261   0.524   6.517   2.424 -0.2653 -0.2602  0.1868
34674SOL    HW111262   0.538   6.483   2.336  0.8014 -0.1525  0.3054
34674SOL    HW211263   0.554   6.448   2.482 -1.1385 -0.4055  0.4797
34675SOL     OW11264  12.150   0.869   2.492 -0.4557 -0.1621  0.0240
34675SOL    HW111265  12.069   0.906   2.527 -0.8233 -2.0656  1.3653
34675SOL    HW211266  12.212   0.871   2.565 -0.1480 -1.1360 -0.1901
34676SOL     OW11267  10.301   5.261   0.522 -0.0759  0.0794 -0.0594
34676SOL    HW111268  10.244   5.201   0.571 -1.5992  0.5834 -1.1539
34676SOL    HW211269  10.339   5.318   0.589  0.4418 -1.2783  0.8600
34677SOL     OW11270   9.421   0.470   6.289  0.0135  0.4575 -0.0460
34677SOL    HW111271   9.353   0.520   6.333  1.1592  3.0180 -1.0157
34677SOL    HW211272   9.501   0.489   6.338  0.3300 -1.4489  0.2765
34678SOL     OW11273   7.915   4.167   8.716 -0.2630 -0.3664  0.1468
34678SOL    HW111274   7.934   4.080   8.680  2.3758  0.8237 -1.6382
34678SOL    HW211275   7.979   4.177   8.787 -0.4677  0.1675  0.2590
34679SOL     OW11276  10.927   3.601   8.813  0.3340  0.5425  0.2464
34679SOL    HW111277  11.005   3.556   8.843  0.4040 -0.1928 -0.9762
34679SOL    HW211278  10.957   3.657   8.741 -0.4377 -0.7042 -1.0960
34680SOL     OW11279   7.470   5.977   8.078  0.3880  0.3788  0.1022
34680SOL    HW111280   7.536   5.998   8.143 -0.3544 -2.9355  2.1826
34680SOL    HW211281   7.519   5.933   8.008  0.4844 -3.7638  2.4629
34681SOL     OW11282  11.413  10.487  11.807  0.0497  0.2736  0.6138
34681SOL    HW111283  11.367  10.418  11.758 -0.4684  0.9084  0.1989
34681SOL    HW211284  11.487  10.511  11.752  1.2754 -1.1674  1.5468
34682SOL     OW11285   0.131  11.055   9.402 -0.0474  0.1015 -0.9288
34682SOL    HW111286   0.148  10.964   9.378 -1.4318 -0.5629  0.3659
34682SOL    HW211287   0.133  11.055   9.498  1.7903  1.8676 -0.9085
34683SOL     OW11288   0.218   6.090   1.935 -0.9865 -0.4037 -0.1987
34683SOL    HW111289   0.228   6.032   2.011 -0.9542 -0.8579 -0.5440
34683SOL    HW211290   0.262   6.043   1.864 -0.9037  0.0786 -0.4671
34684SOL     OW11291   5.144  11.772   3.269  0.4085 -0.5476  0.1087
34684SOL    HW111292   5.213  11.737   3.325 -0.0330 -1.8113 -0.0946
34684SOL    HW211293   5.064  11.763   3.321  0.0014 -1.6899 -0.6641
34685SOL     OW11294   1.200   4.270   8.418 -0.6683 -0.4582 -0.3309
34685SOL    HW111295   1.112   4.234   8.429 -0.4908 -1.0327 -0.7515
34685SOL    HW211296   1.210   4.332   8.491 -1.8923  0.5644 -0.9817
34686SOL     OW11297   0.806   7.641   6.315  0.6509  0.0041 -0.3233
34686SOL    HW111298   0.786   7.547   6.315  2.4768 -0.4244 -0.9041
34686SOL    HW211299   0.817   7.663   6.407  1.2396 -0.6030 -0.2429
34687SOL     OW11300   4.257  12.286   8.213  0.1704 -0.3018  0.5004
34687SOL    HW111301   4.296  12.223   8.274  0.4096 -0.2760  0.3737
34687SOL    HW211302   4.192  12.236   8.164 -0.0165 -0.3245  0.7712
34688SOL     OW11303  10.678   1.171   0.244 -0.0079  0.1929 -0.0825
34688SOL    HW111304  10.698   1.086   0.206  0.3423  0.8345 -1.3729
34688SOL    HW211305  10.701   1.162   0.337 -1.3655 -1.5476  0.1374
34689SOL     OW11306  10.316  11.420   0.731  0.7183  0.1244 -0.0298
34689SOL    HW111307  10.323  11.475   0.652 -0.9965 -1.0937 -1.1174
34689SOL    HW211308  10.370  11.344   0.712 -2.2398 -1.7816 -1.6171
34690SOL     OW11309  11.959   7.907  11.725  0.0481  0.0466 -1.0290
34690SOL    HW111310  11.913   7.852  11.788  0.7748 -0.0574 -0.5858
34690SOL    HW211311  11.927   7.995  11.743  1.1295  0.1997  0.3140
34691SOL     OW11312  11.905  12.300   9.295  0.1971 -0.0324  0.2822
34691SOL    HW111313  11.968  12.290   9.366 -0.4986 -1.4158  0.7379
34691SOL    HW211314  11.902  12.395   9.279  1.5817  0.1567  0.9611
34692SOL     OW11315   2.471   2.900   7.060 -0.1683 -0.2578  0.3761
34692SOL    HW111316   2.482   2.961   6.987  1.1579  0.6854  1.3360
34692SOL    HW211317   2.384   2.920   7.095  0.0850  0.7999  0.4183
34693SOL     OW11318   5.344  12.446   7.510  0.7416 -0.0747  0.6978
34693SOL    HW111319   5.426  12.490   7.528  0.3459  0.7051  0.6340
34693SOL    HW211320   5.367  12.374   7.452  1.1922  0.9683 -0.4502
34694SOL     OW11321  12.177   5.580   4.910 -0.5805  0.2764 -0.1402
34694SOL    HW111322  12.104   5.582   4.972  0.9604  0.3313  1.7918
34694SOL    HW211323  12.136   5.569   4.825 -2.7354 -2.8074  1.0989
34695SOL     OW11324   4.393   7.027   4.486 -0.0579  0.1594 -0.1568
34695SOL    HW111325   4.327   7.024   4.555 -2.0920  1.0413 -1.9806
34695SOL    HW211326   4.436   6.941   4.491 -0.7751 -0.1467  1.5741
34696SOL     OW11327   9.686   1.823   0.650  0.2418  0.2547 -0.2256
34696SOL    HW111328   9.736   1.860   0.577  1.6525 -0.3740  0.3735
34696SOL    HW211329   9.748   1.822   0.723 -0.5455 -0.8708  0.4561
34697SOL     OW11330   9.560   0.113   9.972 -0.0852 -0.2265 -0.3828
34697SOL    HW111331   9.573   0.037   9.916 -0.5297 -0.8645  0.3501
34697SOL    HW211332   9.499   0.083  10.040 -0.1078  0.7208  0.0422
34698SOL     OW11333   0.496   3.855  12.563 -0.3791 -0.0464 -0.1729
34698SOL    HW111334   0.516   3.765  12.589 -1.0555 -0.4148 -0.8985
34698SOL    HW211335   0.427   3.847  12.497  0.3327  0.9348 -1.0914
34699SOL     OW11336   3.673  11.324   1.099  0.8690 -0.2080 -0.5031
34699SOL    HW111337   3.697  11.239   1.137  2.1532 -0.2004 -1.2468
34699SOL    HW211338   3.653  11.305   1.008  0.6906  0.2209 -0.5566
34700SOL     OW11339   5.207   3.868  12.281  0.5418  0.2115  0.0526
34700SOL    HW111340   5.137   3.853  12.345 -0.1166 -1.2135 -0.9649
34700SOL    HW211341   5.165   3.920  12.213  0.6080 -0.2110 -0.3118
34701SOL     OW11342   7.910  12.240   9.062  0.0537 -0.3669 -0.8621
34701SOL    HW111343   7.872  12.315   9.016 -1.2484 -0.2632  0.3156
34701SOL    HW211344   7.894  12.166   9.004 -1.5284 -0.2350 -0.6350
34702SOL     OW11345  10.292   7.783   8.852 -0.0181 -0.0709  0.0637
34702SOL    HW111346  10.370   7.741   8.816  0.2915  1.3439 -0.9994
34702SOL    HW211347  10.225   7.714   8.850  0.6618 -0.7331 -0.9329
34703SOL     OW11348   8.239  11.129  12.458  0.3486  0.0717  0.4533
34703SOL    HW111349   8.328  11.156  12.438  0.4577 -0.8665 -0.4783
34703SOL    HW211350   8.193  11.134  12.374 -0.6758  1.2248  1.0542
34704SOL     OW11351   8.016   4.752   4.722  0.9429  0.1465 -0.5110
34704SOL    HW111352   8.059   4.739   4.637 -4.0951 -1.9071 -3.1262
34704SOL    HW211353   8.026   4.669   4.767 -2.0507 -1.3135 -2.2547
34705SOL     OW11354   2.487  11.304   5.472  0.0721  0.0665  0.3533
34705SOL    HW111355   2.486  11.216   5.509  0.0859  0.2032  0.6813
34705SOL    HW211356   2.577  11.333   5.481  0.8360 -1.0397 -2.5519
34706SOL     OW11357   0.070   0.071  12.641 -0.6953  0.1434 -0.5763
34706SOL    HW111358  -0.006   0.129  12.643 -1.7307 -1.0366 -2.3179
34706SOL    HW211359   0.085   0.048  12.732 -1.8673  1.1158 -0.1050
34707SOL     OW11360   1.763   3.970   7.463  0.6677  0.0842  0.1482
34707SOL    HW111361   1.796   4.017   7.386  0.2964 -0.6988 -0.4974
34707SOL    HW211362   1.820   3.893   7.470  1.5250  0.7998  1.4326
34708SOL     OW11363   0.959   4.062  11.141 -0.5109  0.4916  0.0845
34708SOL    HW111364   0.878   4.087  11.186 -0.1396 -0.9148  1.6289
34708SOL    HW211365   1.027   4.069  11.209  0.5081  0.7353 -0.9378
34709SOL     OW11366   6.270  10.273   8.181  0.5754  0.3637 -0.4693
34709SOL    HW111367   6.330  10.345   8.161 -0.6017  1.7605  0.7518
34709SOL    HW211368   6.188  10.316   8.206 -0.5129 -1.4467 -0.7338
34710SOL     OW11369   0.580   9.497   3.723  0.1317  0.7682  0.0871
34710SOL    HW111370   0.644   9.554   3.765  0.2273 -1.0959  2.7557
34710SOL    HW211371   0.625   9.463   3.646  2.4440 -0.3978  1.8106
34711SOL     OW11372   7.992   8.041   2.540  0.4181 -0.1783  0.3421
34711SOL    HW111373   7.902   8.044   2.574  0.0908 -0.4151 -0.4676
34711SOL    HW211374   8.032   7.967   2.584 -0.3032 -1.0903 -0.4714
34712SOL     OW11375   6.521  10.893   0.782 -0.2001  0.4076 -0.0335
34712SOL    HW111376   6.478  10.930   0.859 -0.1567  1.5156 -0.5224
34712SOL    HW211377   6.606  10.938   0.778 -0.0221  0.0437 -0.4836
34713SOL     OW11378   6.934   4.682  10.131  0.0612  0.3240  0.8255
34713SOL    HW111379   6.903   4.752  10.189 -1.2323 -1.2891  2.1810
34713SOL    HW211380   7.011   4.719  10.088 -0.3730  2.4479  1.7488
34714SOL     OW11381  12.334   4.764  12.275 -0.1962 -0.3651 -0.0717
34714SOL    HW111382  12.345   4.767  12.370  1.3896 -1.6403 -0.1738
34714SOL    HW211383  12.272   4.693  12.260 -1.0995  0.3890  0.0359
34715SOL     OW11384  10.513   5.530   9.905 -0.0409 -0.3313  0.2709
34715SOL    HW111385  10.513   5.544  10.000 -2.5513 -0.4927  0.3683
34715SOL    HW211386  10.548   5.441   9.894 -0.1315 -0.4763  1.0953
34716SOL     OW11387   8.947   5.591   5.683  0.7882 -0.6528 -0.0834
34716SOL    HW111388   8.914   5.555   5.601  0.7596  0.1226 -0.4235
34716SOL    HW211389   8.986   5.675   5.658 -0.0461  0.0366  0.8135
34717SOL     OW11390   2.257  12.626   1.813  0.5609  0.1251 -0.7006
34717SOL    HW111391   2.295  12.558   1.868  2.2533  1.1208 -0.5936
34717SOL    HW211392   2.198  12.578   1.754 -0.9113 -1.0408  1.5378
34718SOL     OW11393  11.566   0.830   1.183  0.2336 -0.0660 -0.0481
34718SOL    HW111394  11.627   0.842   1.110 -1.7850 -1.7927 -2.1758
34718SOL    HW211395  11.562   0.735   1.196 -0.4960  0.1347  1.4105
34719SOL     OW11396   5.154   5.409   3.331  0.4962  0.1816 -0.3404
34719SOL    HW111397   5.219   5.423   3.400 -1.3674  0.7732  1.3901
34719SOL    HW211398   5.133   5.316   3.336  0.2163  0.2636  0.0426
34720SOL     OW11399   3.671   0.992  12.609  0.1076 -0.2880 -0.2760
34720SOL    HW111400   3.616   1.071  12.607 -1.4258 -1.3331 -0.4546
34720SOL    HW211401   3.655   0.954  12.695  0.1897 -0.8561 -0.5079
34721SOL     OW11402   2.722   0.805  10.581 -0.3120 -0.3510  0.0447
34721SOL    HW111403   2.739   0.714  10.606  0.2518  0.1188  1.4852
34721SOL    HW211404   2.727   0.854  10.663  1.1337  1.2378 -0.9148
34722SOL     OW11405   4.356   4.671   7.718 -0.2540  0.6574  0.8122
34722SOL    HW111406   4.315   4.706   7.797 -0.3400 -0.6220  1.3546
34722SOL    HW211407   4.417   4.605   7.750  1.2732  1.5913 -0.0722
34723SOL     OW11408   0.404   2.243   3.925 -0.1095 -0.7257  0.2506
34723SOL    HW111409   0.437   2.329   3.898  1.4268 -1.3178  0.1636
34723SOL    HW211410   0.353   2.260   4.004  1.5715  0.0836  1.2158
34724SOL     OW11411   3.258   5.009   9.449  0.3937  0.1810  0.0497
34724SOL    HW111412   3.175   4.980   9.412 -1.0545  1.9901  1.6197
34724SOL    HW211413   3.233   5.064   9.524  2.9742  1.6673 -0.0445
34725SOL     OW11414   0.054  12.135   4.185  0.0521 -0.4350  0.7350
34725SOL    HW111415   0.120  12.204   4.191 -0.5255  0.1635  0.3738
34725SOL    HW211416   0.030  12.116   4.276 -0.0177  0.0775  0.8245
34726SOL     OW11417   0.688   2.049  10.181  0.6870 -0.3390 -0.0910
34726SOL    HW111418   0.735   2.095  10.111  2.7200  2.7061  2.9317
34726SOL    HW211419   0.611   2.104  10.197  0.2132 -1.0363  0.0472
34727SOL     OW11420   7.086   9.265   3.470 -0.5895  0.6507  0.4034
34727SOL    HW111421   7.043   9.258   3.555 -0.5586 -0.8467  0.3208
34727SOL    HW211422   7.016   9.292   3.410 -1.6096 -2.1670  0.1904
34728SOL     OW11423   1.996   5.516   6.418 -0.0669 -0.5421 -0.1260
34728SOL    HW111424   2.069   5.469   6.458  1.4018  2.8798  1.7538
34728SOL    HW211425   2.030   5.547   6.334  0.2485  0.0059  0.1947
34729SOL     OW11426   5.871   5.481   6.347  0.1651 -0.6706  0.0076
34729SOL    HW111427   5.870   5.574   6.367 -0.4291 -0.3290 -1.4701
34729SOL    HW211428   5.955   5.450   6.380 -0.4921 -0.0756  2.3987
34730SOL     OW11429  10.440  12.207   4.280  0.0974 -0.1173 -0.2678
34730SOL    HW111430  10.516  12.181   4.332  0.9047 -0.3544 -1.5192
34730SOL    HW211431  10.385  12.257   4.341  1.5412  0.5664  0.5206
34731SOL     OW11432  10.868   6.271   0.393  0.0013 -0.3525 -0.0426
34731SOL    HW111433  10.897   6.185   0.362 -1.1566 -1.0131  0.6333
34731SOL    HW211434  10.845   6.318   0.312  0.2988 -0.8127 -0.4008
34732SOL     OW11435   4.326  12.125   9.358  0.2364 -0.6506 -0.3028
34732SOL    HW111436   4.355  12.208   9.396 -0.2162  0.8656 -3.0125
34732SOL    HW211437   4.404  12.070   9.357  1.3895  0.9345 -1.3489
34733SOL     OW11438  12.068   3.549   4.298 -0.9727 -0.1260 -0.7801
34733SOL    HW111439  12.059   3.619   4.362 -1.9919  0.4546 -1.5219
34733SOL    HW211440  12.090   3.471   4.349  1.4636  0.9528 -0.0391
34734SOL     OW11441   3.996   1.080   7.259 -0.1562 -0.4149 -0.5841
34734SOL    HW111442   4.027   0.995   7.227  0.8825 -0.1404 -0.3343
34734SOL    HW211443   4.075   1.125   7.288 -0.7815  0.3667 -0.0605
34735SOL     OW11444   3.006   7.471   5.929  0.1095 -0.0539 -0.1473
34735SOL    HW111445   2.986   7.429   5.845  0.2263 -1.2194  0.3990
34735SOL    HW211446   3.051   7.404   5.980  0.1082  0.6679  0.8313
34736SOL     OW11447   4.273   6.230   0.943 -0.0891 -0.0614  0.1126
34736SOL    HW111448   4.272   6.148   0.893  0.3719  0.4867 -0.8297
34736SOL    HW211449   4.360   6.266   0.927 -0.0945  0.3611  0.9657
34737SOL     OW11450   0.377   9.365   1.690 -0.2520 -0.2608 -0.2460
34737SOL    HW111451   0.410   9.422   1.759  1.0564 -0.7186 -0.4584
34737SOL    HW211452   0.437   9.380   1.616 -2.1472  0.9006 -1.6318
34738SOL     OW11453   6.185  11.484   0.738  0.3280 -0.5964  0.0961
34738SOL    HW111454   6.097  11.503   0.770  1.9499  1.0493  4.2853
34738SOL    HW211455   6.199  11.548   0.668 -0.7783  1.3127  1.5186
34739SOL     OW11456  11.456   9.902  11.438 -0.5237 -0.0375 -0.1882
34739SOL    HW111457  11.489   9.914  11.527  0.0032  0.2243 -0.4115
34739SOL    HW211458  11.389   9.834  11.446  0.2880 -0.8112  0.2466
34740SOL     OW11459   9.257   8.266   8.738  0.3093  0.2994  0.4547
34740SOL    HW111460   9.169   8.228   8.737 -0.2692  1.5584  0.7888
34740SOL    HW211461   9.244   8.354   8.774  1.3848  1.3022 -1.4898
34741SOL     OW11462  10.009   7.669   6.996  0.0237 -0.3886 -0.4824
34741SOL    HW111463  10.050   7.729   7.058 -1.8217 -0.9983  1.4551
34741SOL    HW211464  10.080   7.644   6.936  1.9112  0.2545  1.3536
34742SOL     OW11465   7.776   9.275   8.700 -0.4480 -0.3128 -0.2020
34742SOL    HW111466   7.748   9.185   8.683 -1.1255 -0.3858  1.1192
34742SOL    HW211467   7.697   9.328   8.688 -0.2146  0.0164 -0.3156
34743SOL     OW11468   1.736   6.030   0.314 -0.4119 -0.0479  0.0084
34743SOL    HW111469   1.811   6.044   0.256 -1.4083  0.2762 -1.2451
34743SOL    HW211470   1.747   5.941   0.346  1.0943  0.3693  0.7510
34744SOL     OW11471   0.508  10.522   5.280  0.3041 -0.0585 -0.2807
34744SOL    HW111472   0.548  10.504   5.365  0.7354 -1.3247 -0.7259
34744SOL    HW211473   0.450  10.597   5.296  1.0814  0.3250  0.9042
34745SOL     OW11474  10.130   9.871   4.307  0.0145 -0.5570  0.5235
34745SOL    HW111475  10.081   9.931   4.252 -0.8994 -1.4351  0.3428
34745SOL    HW211476  10.140   9.916   4.391  0.4657  0.3483 -0.0108
34746SOL     OW11477   4.846  10.164   4.386  0.1861  0.7703  0.4210
34746SOL    HW111478   4.898  10.086   4.367 -1.3294 -0.4813  1.1072
34746SOL    HW211479   4.838  10.209   4.302 -1.6556 -1.6202 -0.8360
34747SOL     OW11480   4.626   3.528  12.295 -0.2638 -0.0267 -0.2036
34747SOL    HW111481   4.535   3.531  12.324 -0.2016  0.5669 -0.0709
34747SOL    HW211482   4.642   3.614  12.257  0.2227 -0.1571 -0.2950
34748SOL     OW11483   3.917   1.773   4.045 -0.2010  0.4696 -0.4324
34748SOL    HW111484   4.001   1.815   4.065  0.6444 -0.9785 -0.7904
34748SOL    HW211485   3.853   1.843   4.052  0.6802  1.1205  2.3705
34749SOL     OW11486   0.073   3.475   4.813 -0.4159  0.2717  0.0188
34749SOL    HW111487   0.093   3.566   4.793  2.7110 -0.3105 -0.0781
34749SOL    HW211488   0.095   3.428   4.733 -0.7891 -0.7019  0.4689
34750SOL     OW11489   8.650   8.283   3.371 -0.6920  0.2863  0.5629
34750SOL    HW111490   8.743   8.270   3.389 -0.2190  0.4529 -1.4389
34750SOL    HW211491   8.631   8.370   3.404 -0.3722 -0.0782  1.7565
34751SOL     OW11492   7.209   0.544   6.005  0.0573 -0.6106 -0.5091
34751SOL    HW111493   7.300   0.539   5.976  0.5837 -2.0805  1.2317
34751SOL    HW211494   7.158   0.550   5.925  1.7246  1.7260 -1.4980
34752SOL     OW11495   3.291   1.826   9.002  0.1800 -0.1370  0.7252
34752SOL    HW111496   3.330   1.877   9.073 -0.4721  2.3943 -0.6059
34752SOL    HW211497   3.302   1.881   8.924 -0.3763 -2.1758 -0.8996
34753SOL     OW11498   1.534  11.155  10.611  0.3545  0.1156 -0.0411
34753SOL    HW111499   1.610  11.102  10.591 -0.0037 -0.0154 -1.1002
34753SOL    HW211500   1.504  11.124  10.697  0.2930 -1.2202 -0.5386
34754SOL     OW11501   9.034   2.368  11.818 -0.0148 -0.2692  0.3446
34754SOL    HW111502   8.967   2.343  11.881 -0.6821  2.0500  0.6369
34754SOL    HW211503   8.988   2.374  11.734  0.1233 -0.0188  0.2849
34755SOL     OW11504  11.041   4.275   2.178 -0.5295 -0.1451 -0.4877
34755SOL    HW111505  11.082   4.361   2.176 -1.7030  0.4078 -2.4401
34755SOL    HW211506  10.947   4.292   2.181 -0.7649 -1.3629 -0.3603
34756SOL     OW11507   2.906   3.009  10.403  0.2026  0.1553 -0.6486
34756SOL    HW111508   2.983   2.968  10.443 -1.0303 -1.2915  0.3598
34756SOL    HW211509   2.888   3.085  10.459 -0.9573 -1.3317  1.1083
34757SOL     OW11510   3.654   6.518   0.791  0.7416 -0.2384  0.5658
34757SOL    HW111511   3.646   6.549   0.701  2.1376  0.8363  0.7852
34757SOL    HW211512   3.579   6.459   0.803 -0.4261  0.9077 -0.7573
34758SOL     OW11513   8.400   3.277  10.639  0.1467 -0.0084 -0.0699
34758SOL    HW111514   8.337   3.308  10.704  0.3743  1.4520 -0.4894
34758SOL    HW211515   8.463   3.224  10.688  0.0871  0.7416  0.8351
34759SOL     OW11516  12.285   3.574   4.107  0.3152  0.5390  0.0363
34759SOL    HW111517  12.287   3.628   4.028 -0.2030 -0.9032 -1.0117
34759SOL    HW211518  12.202   3.596   4.150  0.7322  1.5366  0.3470
34760SOL     OW11519   8.284   0.060   2.295 -0.4447 -0.3422 -0.4020
34760SOL    HW111520   8.278  -0.021   2.245 -0.5700 -0.0005 -0.9480
34760SOL    HW211521   8.349   0.041   2.363  1.1614 -0.2347 -1.8386
34761SOL     OW11522   4.227   7.560   4.776 -0.4182  0.1800 -0.3419
34761SOL    HW111523   4.163   7.625   4.805  0.1994  0.5360  0.2389
34761SOL    HW211524   4.300   7.611   4.741  0.2668 -0.1756  0.5221
34762SOL     OW11525   7.054   7.747   0.511  0.1286 -0.0688 -0.4753
34762SOL    HW111526   7.126   7.810   0.509 -0.9784  1.2547 -0.2741
34762SOL    HW211527   6.976   7.801   0.521 -0.7606 -1.5472  1.1772
34763SOL     OW11528  11.542   5.074  10.875 -0.8355  0.5213  0.4001
34763SOL    HW111529  11.621   5.022  10.857  0.1602  2.0023  0.3105
34763SOL    HW211530  11.545   5.091  10.969  0.3249  2.6054  0.0558
34764SOL     OW11531   8.803   0.105   8.333 -0.3420 -0.3049  0.0189
34764SOL    HW111532   8.869   0.087   8.400 -2.6697  0.5374  2.7381
34764SOL    HW211533   8.772   0.018   8.305 -1.2822 -0.7240  2.1936
34765SOL     OW11534   7.185   3.614   6.271  0.4471  0.1425  0.0473
34765SOL    HW111535   7.247   3.544   6.294 -1.2667 -1.3197  0.4558
34765SOL    HW211536   7.239   3.680   6.227  2.1612 -1.3913 -0.2827
34766SOL     OW11537   7.970   0.222   9.465 -0.1114 -0.1168  0.4688
34766SOL    HW111538   8.047   0.279   9.471 -0.4627  0.2809  1.5335
34766SOL    HW211539   7.996   0.153   9.405  0.9832  0.1603  0.5937
34767SOL     OW11540   1.459   5.007   0.099  0.4738 -0.5341 -0.9641
34767SOL    HW111541   1.404   4.963   0.034 -0.4616 -2.4401  0.9795
34767SOL    HW211542   1.482   4.938   0.161  1.3803  1.1685  0.6891
34768SOL     OW11543   1.179   3.241  12.693 -0.0175 -0.4203 -0.1426
34768SOL    HW111544   1.109   3.215  12.633 -0.0142 -1.0263  0.1159
34768SOL    HW211545   1.247   3.276  12.636 -0.3197 -0.2950 -0.4345
34769SOL     OW11546   0.456   4.950   1.487  0.3918  0.6300  0.0746
34769SOL    HW111547   0.438   4.856   1.480 -2.0152  0.9518  0.8862
34769SOL    HW211548   0.408   4.978   1.565  4.0041  1.9592  2.0720
34770SOL     OW11549   4.998   6.320   2.355 -0.5604  0.2561 -0.2384
34770SOL    HW111550   4.980   6.338   2.263  2.9152  0.2755 -1.0407
34770SOL    HW211551   5.074   6.373   2.376 -0.6317 -0.5175  2.3845
34771SOL     OW11552   7.073   5.952   8.948 -0.2917  0.2223 -0.2877
34771SOL    HW111553   7.163   5.933   8.920 -0.4010 -0.6662 -0.0614
34771SOL    HW211554   7.049   6.031   8.898  0.6457  0.5348 -0.2630
34772SOL     OW11555  11.740   0.270   3.877 -0.4285  0.5008 -0.3072
34772SOL    HW111556  11.793   0.350   3.876  1.2038 -0.4253 -3.9570
34772SOL    HW211557  11.780   0.215   3.944  0.6745  1.3869 -0.2140
34773SOL     OW11558   3.225   4.473   2.058 -0.0052 -0.0743  0.5144
34773SOL    HW111559   3.277   4.511   1.988 -1.0434  0.5543  0.0522
34773SOL    HW211560   3.215   4.544   2.121 -2.6015  0.7622 -0.7092
34774SOL     OW11561   0.941  11.334   4.451  0.1710 -0.1361  0.2659
34774SOL    HW111562   0.910  11.373   4.370  0.1361 -0.9305 -0.1159
34774SOL    HW211563   0.941  11.239   4.434  0.9317 -0.2695  0.9092
34775SOL     OW11564   1.048   7.189  10.216  0.5386  0.2769 -0.2167
34775SOL    HW111565   1.023   7.200  10.124 -0.1242 -0.1736 -0.1005
34775SOL    HW211566   1.091   7.271  10.239 -1.8537  1.6144 -0.1244
34776SOL     OW11567   6.907   0.558  12.360 -0.0989  0.0838  0.1992
34776SOL    HW111568   6.956   0.640  12.358  1.4524 -0.6733  2.6912
34776SOL    HW211569   6.815   0.585  12.367  0.3154  1.5949  0.1072
34777SOL     OW11570   9.975  11.277   0.867 -0.0056  0.1527  0.6682
34777SOL    HW111571   9.930  11.347   0.820 -2.3796 -0.2537  2.1682
34777SOL    HW211572   9.980  11.205   0.804  2.7081  1.6322 -0.9808
34778SOL     OW11573   4.310   6.226  12.307  0.2773 -0.5703  0.6631
34778SOL    HW111574   4.380   6.227  12.242 -1.0577  0.4291 -0.8522
34778SOL    HW211575   4.273   6.315  12.303 -2.0350 -1.4573  0.2483
34779SOL     OW11576   2.898   0.105   8.137  0.0513 -0.5811 -0.0484
34779SOL    HW111577   2.938   0.100   8.050 -0.8280  0.5662 -0.5485
34779SOL    HW211578   2.876   0.197   8.148 -1.3242 -0.9636  0.7153
34780SOL     OW11579  10.863   4.340   1.667 -0.6730  0.7105 -0.0327
34780SOL    HW111580  10.819   4.399   1.607 -0.0027  1.9517  0.6462
34780SOL    HW211581  10.890   4.266   1.613 -0.8489  1.3913 -1.0697
34781SOL     OW11582   8.911  11.962   0.743 -0.0680 -0.3101  0.2039
34781SOL    HW111583   8.904  11.875   0.705 -1.0655 -0.1179 -0.0757
34781SOL    HW211584   8.925  12.020   0.667  1.2106 -0.2806  0.4391
34782SOL     OW11585  12.667   7.210   4.822 -0.4040  0.6872 -0.9110
34782SOL    HW111586  12.725   7.157   4.767 -1.0057 -0.6714 -0.2905
34782SOL    HW211587  12.724   7.277   4.860  0.6469 -0.2832 -0.7233
34783SOL     OW11588   6.197  11.350   6.623 -0.4987  0.2132  0.8016
34783SOL    HW111589   6.246  11.398   6.557  0.4744 -0.4402  1.0183
34783SOL    HW211590   6.105  11.371   6.606 -0.1385  1.6783  0.5433
34784SOL     OW11591   4.801   1.815   8.847 -0.3619 -0.4097 -0.7324
34784SOL    HW111592   4.880   1.792   8.799  1.0447  0.6647  0.9489
34784SOL    HW211593   4.764   1.731   8.874  0.0841 -0.9275 -1.7026
34785SOL     OW11594   3.583  11.380   1.940  0.2879  0.2917 -0.1569
34785SOL    HW111595   3.578  11.378   2.036 -0.7845 -0.3634 -0.2179
34785SOL    HW211596   3.582  11.287   1.914  0.5829  0.4638 -0.8104
34786SOL     OW11597  12.643   2.147  10.436 -0.0923 -0.0622  0.1303
34786SOL    HW111598  12.556   2.185  10.449 -0.6059 -0.7578 -1.0790
34786SOL    HW211599  12.681   2.145  10.524 -2.0715 -1.5861  1.0403
34787SOL     OW11600  11.093   2.119   1.623  0.0539 -0.4684 -0.5681
34787SOL    HW111601  11.047   2.108   1.706  0.6213 -0.2441 -0.2163
34787SOL    HW211602  11.056   2.199   1.585 -0.7551 -1.0018 -0.9000
34788SOL     OW11603   8.449  12.147   6.039  0.0704 -0.5713 -0.8330
34788SOL    HW111604   8.406  12.097   5.970 -0.7715 -0.2275 -0.5614
34788SOL    HW211605   8.511  12.203   5.992  0.1664 -1.0017 -1.2307
34789SOL     OW11606   8.514   4.182   0.141  0.1824 -0.2498  0.1773
34789SOL    HW111607   8.500   4.090   0.160 -1.2892 -0.1685 -0.3395
34789SOL    HW211608   8.443   4.227   0.187  0.6635  0.5917  0.1261
34790SOL     OW11609  11.394   4.578   3.634  0.4923 -0.1378  0.5573
34790SOL    HW111610  11.347   4.529   3.566 -1.0778  0.7455  0.9524
34790SOL    HW211611  11.435   4.510   3.688  0.4381 -0.9056 -0.3414
34791SOL     OW11612   5.577   6.430  11.483 -0.3860  0.3191 -0.4657
34791SOL    HW111613   5.658   6.433  11.432 -0.3712  0.6229 -0.4283
34791SOL    HW211614   5.584   6.505  11.542 -0.1842 -0.3083  0.3160
34792SOL     OW11615  10.885  12.555   3.042 -0.3036  0.3211  0.8207
34792SOL    HW111616  10.859  12.536   3.133  0.8878 -1.2428  0.8845
34792SOL    HW211617  10.876  12.471   2.997  1.8734  0.3680  0.1955
34793SOL     OW11618   3.640   6.335   2.057  0.8230 -0.3685 -0.8764
34793SOL    HW111619   3.680   6.259   2.100  3.1731  0.6980 -1.0365
34793SOL    HW211620   3.638   6.311   1.964  2.6873  0.1681 -1.0920
34794SOL     OW11621   5.952   0.987   2.408 -0.4244  0.3188 -0.1174
34794SOL    HW111622   5.891   1.022   2.342 -0.0519  1.3606  0.0707
34794SOL    HW211623   6.003   0.921   2.362 -1.9002 -0.8297 -0.2027
34795SOL     OW11624   1.999   4.473   3.770 -0.4370  0.3123 -0.3194
34795SOL    HW111625   2.021   4.452   3.679  0.7164 -1.6139  0.3426
34795SOL    HW211626   1.914   4.432   3.784 -0.0922 -0.3779 -0.2167
34796SOL     OW11627   3.948   5.178  10.712  0.6257  0.2540 -0.3275
34796SOL    HW111628   3.855   5.200  10.719  0.2218 -1.3607 -0.4022
34796SOL    HW211629   3.952   5.083  10.719  2.3058  0.2996 -0.0712
34797SOL     OW11630   4.876   7.867   3.788 -0.5388 -0.4489 -0.0734
34797SOL    HW111631   4.960   7.900   3.819 -0.6240  0.5534 -0.8538
34797SOL    HW211632   4.824   7.855   3.868  0.0817 -0.3354  0.3530
34798SOL     OW11633   3.362   3.023   7.016  0.0155 -0.4220 -0.1976
34798SOL    HW111634   3.292   3.079   6.983  1.6241 -0.1650 -3.5478
34798SOL    HW211635   3.442   3.063   6.984  1.6689 -1.5652  2.1889
34799SOL     OW11636   6.624   9.174  10.253 -0.0728 -0.0120  0.0070
34799SOL    HW111637   6.659   9.134  10.333 -1.1249 -0.5622  0.2063
34799SOL    HW211638   6.583   9.102  10.206  0.0630  0.4116 -0.7793
34800SOL     OW11639   1.498   2.391   4.837  0.3416 -0.5094 -0.0685
34800SOL    HW111640   1.522   2.355   4.922 -0.1730  1.1100  0.8047
34800SOL    HW211641   1.406   2.368   4.827  0.0650  0.3291  0.4032
34801SOL     OW11642   2.993   9.739   0.954 -0.4815 -0.3391  0.9063
34801SOL    HW111643   3.067   9.797   0.969  0.0979 -0.9784  0.6019
34801SOL    HW211644   3.021   9.682   0.882 -1.0558 -0.9462  1.1514
34802SOL     OW11645   9.011  12.606   9.709 -0.3777  0.1574  0.5087
34802SOL    HW111646   9.101  12.592   9.682 -0.6839  1.7524 -1.6426
34802SOL    HW211647   9.018  12.644   9.797  0.9881 -0.4381  0.6790
34803SOL     OW11648  10.065   5.624   1.263  0.0130  0.2125 -0.3485
34803SOL    HW111649  10.094   5.574   1.340  0.1280  2.0889  0.9074
34803SOL    HW211650   9.970   5.633   1.275 -0.7610 -3.0645 -2.7137
34804SOL     OW11651   0.855  10.090  10.573  0.2056  0.0703  0.0232
34804SOL    HW111652   0.766  10.099  10.539  0.8413 -0.0680 -1.7858
34804SOL    HW211653   0.882  10.002  10.548  0.8636  0.1245  0.5050
34805SOL     OW11654   9.358   3.556   9.068 -0.8770  0.1928 -0.1363
34805SOL    HW111655   9.278   3.531   9.115  0.4390 -2.1671  1.0589
34805SOL    HW211656   9.388   3.636   9.112 -1.1209 -0.4763  1.2942
34806SOL     OW11657  10.307   4.179   7.749 -0.1790  0.1144 -0.0895
34806SOL    HW111658  10.346   4.216   7.829  1.5812 -0.9895 -0.3668
34806SOL    HW211659  10.374   4.193   7.682 -0.9270 -0.4965 -0.9837
34807SOL     OW11660   0.910   8.393   6.107  0.1847 -0.2001 -0.6874
34807SOL    HW111661   0.846   8.337   6.062  0.1879  0.7286 -1.8780
34807SOL    HW211662   0.863   8.475   6.124  0.9815  0.4150 -1.3736
34808SOL     OW11663   9.194   2.272  11.112  0.4760 -0.1805  0.3073
34808SOL    HW111664   9.276   2.304  11.073  0.4786  0.5010  0.8448
34808SOL    HW211665   9.218   2.190  11.154  0.2608 -1.4954 -1.9654
34809SOL     OW11666   9.480   0.543   8.077  0.5970 -0.5399 -0.4377
34809SOL    HW111667   9.505   0.567   8.167 -1.5243  0.1400  0.0298
34809SOL    HW211668   9.481   0.448   8.077  0.6326 -0.5501  0.3285
34810SOL     OW11669   5.803   3.380   2.058 -0.5664 -0.1172  0.0159
34810SOL    HW111670   5.848   3.436   1.995  1.0670  0.0593  1.2849
34810SOL    HW211671   5.743   3.439   2.104  0.6912  0.5180  0.9136
34811SOL     OW11672   1.595   6.523   6.631 -0.2871 -0.0996  0.0820
34811SOL    HW111673   1.595   6.546   6.724  0.7562  1.6580 -0.3077
34811SOL    HW211674   1.503   6.513   6.609 -0.6100  0.6156  1.0437
34812SOL     OW11675   3.858  11.917   5.949 -0.0428  0.2764 -0.2471
34812SOL    HW111676   3.832  12.009   5.944 -0.3916  0.3798  2.3051
34812SOL    HW211677   3.887  11.905   6.039  0.8455 -1.9209 -0.7624
34813SOL     OW11678   4.207  10.431   0.778  0.0334  0.5488  0.4686
34813SOL    HW111679   4.152  10.404   0.705  0.5558  0.7289 -0.0022
34813SOL    HW211680   4.297  10.425   0.744  0.5846 -2.4895  2.0415
34814SOL     OW11681   0.343   6.516   1.137  0.0668 -0.2348 -0.3983
34814SOL    HW111682   0.311   6.521   1.227 -0.1231  1.6803 -0.5308
34814SOL    HW211683   0.433   6.484   1.145 -0.5749 -1.9880  0.2744
34815SOL     OW11684  10.621   1.531   6.503  0.4578  0.8015 -0.0816
34815SOL    HW111685  10.624   1.507   6.596 -1.5705 -0.2127 -0.2210
34815SOL    HW211686  10.679   1.467   6.460 -1.5020 -1.2312  0.0936
34816SOL     OW11687   4.638   2.547   2.382  0.5015 -0.0653  0.2682
34816SOL    HW111688   4.690   2.562   2.303 -0.9675 -1.9241 -1.1701
34816SOL    HW211689   4.685   2.478   2.429  0.0537 -0.8185 -0.3632
34817SOL     OW11690   4.975   6.727  11.345  0.4389 -0.4273 -0.1578
34817SOL    HW111691   5.041   6.749  11.279  3.2874 -0.6989  2.3698
34817SOL    HW211692   4.925   6.807  11.356  2.4818  0.9059  0.0416
34818SOL     OW11693   3.388   2.794   1.924  0.4763 -0.1955 -0.1727
34818SOL    HW111694   3.341   2.878   1.924  0.2020 -0.3459  0.0886
34818SOL    HW211695   3.462   2.808   1.864 -1.1816 -0.6661 -2.4694
34819SOL     OW11696   6.147   1.109  11.150 -0.1792  0.2788 -0.1693
34819SOL    HW111697   6.095   1.175  11.196  1.9180  1.3196  0.8856
34819SOL    HW211698   6.130   1.028  11.197 -1.3039  0.4719 -0.2324
34820SOL     OW11699   0.829   8.770   1.397  0.1271 -0.3828  0.3013
34820SOL    HW111700   0.915   8.729   1.409 -0.6439 -1.9569  0.6739
34820SOL    HW211701   0.776   8.702   1.355 -0.8634  0.6741 -0.2087
34821SOL     OW11702   6.814  11.972   2.288 -0.2486 -0.0072  0.3685
34821SOL    HW111703   6.760  11.945   2.214  0.9369 -0.0167 -0.5102
34821SOL    HW211704   6.834  11.890   2.334 -0.8348 -0.0203  0.6165
34822SOL     OW11705   1.112  11.790   8.038  0.3892  0.1187  0.0113
34822SOL    HW111706   1.039  11.785   7.976  1.1675  3.4054 -1.4193
34822SOL    HW211707   1.184  11.746   7.993  0.4553  0.8585 -0.6326
34823SOL     OW11708   6.469  11.030   6.975 -0.4481 -0.0955  0.2038
34823SOL    HW111709   6.515  10.957   7.016 -0.9350 -0.0369  0.8822
34823SOL    HW211710   6.443  11.086   7.048  1.5090  1.7305 -0.4079
34824SOL     OW11711   3.885  11.056   5.281  0.2100 -0.0443  0.1862
34824SOL    HW111712   3.837  11.023   5.205  1.5881 -0.0792 -0.6926
34824SOL    HW211713   3.819  11.060   5.350 -1.2651  0.7006 -1.1919
34825SOL     OW11714  10.771   8.905   3.717  0.7577 -0.1143 -0.4209
34825SOL    HW111715  10.816   8.959   3.653  0.8206  1.1971  0.6847
34825SOL    HW211716  10.839   8.879   3.779  0.5436 -0.6672 -0.4076
34826SOL     OW11717  10.072   6.710   4.040  0.1504 -0.5066  0.2213
34826SOL    HW111718  10.124   6.790   4.037 -0.1002 -0.3547 -0.2912
34826SOL    HW211719  10.023   6.716   4.121  0.2029 -0.1819  0.2311
34827SOL     OW11720   7.461   0.644   0.926 -0.0226 -0.1144  0.3098
34827SOL    HW111721   7.484   0.627   0.835  0.1261  0.6267  0.2075
34827SOL    HW211722   7.408   0.724   0.924 -1.9181 -1.2843  0.6370
34828SOL     OW11723   5.046   1.137   2.380  0.2772 -0.2280 -0.1444
34828SOL    HW111724   5.101   1.206   2.345 -0.7692 -0.3009 -2.0404
34828SOL    HW211725   4.962   1.180   2.398  0.1262 -0.6629  0.2069
34829SOL     OW11726   4.783   1.278   2.343 -0.5424  0.8351 -0.0275
34829SOL    HW111727   4.696   1.315   2.360 -0.9501  0.5693 -1.4082
34829SOL    HW211728   4.823   1.340   2.282  0.7983  1.6734  1.6250
34830SOL     OW11729   7.814   4.592   5.210  0.4327 -0.1940  0.1405
34830SOL    HW111730   7.896   4.545   5.192  1.0011  1.3980 -1.7176
34830SOL    HW211731   7.812   4.662   5.145 -0.6398  2.0399  2.4116
34831SOL     OW11732   0.464   7.612   8.946  0.5569  0.1040  0.4143
34831SOL    HW111733   0.395   7.667   8.983 -0.2567 -0.8394  0.3353
34831SOL    HW211734   0.422   7.528   8.929  1.3580 -0.0439 -1.0060
34832SOL     OW11735  10.869   5.832   4.697  0.2124 -0.4806 -0.1564
34832SOL    HW111736  10.963   5.848   4.690  0.2052  0.1281  0.9468
34832SOL    HW211737  10.842   5.878   4.776 -0.9887 -0.7980 -0.3520
34833SOL     OW11738   1.872   1.737   0.695  0.0346  0.0432  0.4895
34833SOL    HW111739   1.904   1.692   0.617  2.2493  1.7671  0.3034
34833SOL    HW211740   1.874   1.830   0.671  1.8765  0.7159  2.8927
34834SOL     OW11741  12.535   7.651   1.792  0.1423 -0.0701  0.0856
34834SOL    HW111742  12.597   7.719   1.820 -0.4496 -0.1065  1.5774
34834SOL    HW211743  12.590   7.574   1.778  0.4381 -0.1577  1.5968
34835SOL     OW11744  10.493   6.654   1.922 -0.1822  0.3976  0.0945
34835SOL    HW111745  10.464   6.649   1.831 -0.1105  0.7409  0.0518
34835SOL    HW211746  10.421   6.616   1.972 -0.6298  1.0601 -0.0294
34836SOL     OW11747  11.930   5.677   0.675  0.1873 -0.2717 -0.0388
34836SOL    HW111748  11.979   5.746   0.718  0.3257 -0.3037 -0.1453
34836SOL    HW211749  11.996   5.615   0.644  0.0518 -0.5923  0.2965
34837SOL     OW11750   0.190   2.054   6.406 -0.7675  0.0839  0.3324
34837SOL    HW111751   0.119   2.066   6.343 -0.8260 -1.1560  0.1407
34837SOL    HW211752   0.147   2.061   6.492 -0.8125  1.0318  0.2430
34838SOL     OW11753   3.342  10.902   9.451  0.1114 -0.4545  0.6043
34838SOL    HW111754   3.315  10.825   9.502  1.0416 -1.5724 -0.5284
34838SOL    HW211755   3.375  10.963   9.516  1.2007 -1.8089  1.3865
34839SOL     OW11756   4.190   5.725   7.828  0.1557 -0.1050  0.0758
34839SOL    HW111757   4.227   5.805   7.792  0.7634 -0.0140  0.8514
34839SOL    HW211758   4.167   5.672   7.752  0.4854  0.4752 -0.4376
34840SOL     OW11759   4.276   7.241   1.331  0.6047  0.1855 -0.0017
34840SOL    HW111760   4.270   7.328   1.290  0.6961 -0.1019 -0.6306
34840SOL    HW211761   4.199   7.194   1.301 -0.3911  0.6059  1.7249
34841SOL     OW11762   4.910   5.551  10.447 -0.3767 -0.5874 -0.0538
34841SOL    HW111763   4.830   5.515  10.409  0.5173 -1.7956 -0.8723
34841SOL    HW211764   4.931   5.626  10.392 -1.7250  0.6718  1.0730
34842SOL     OW11765   7.048   3.953   1.571 -0.4148 -0.4926 -0.1567
34842SOL    HW111766   7.095   4.000   1.502  0.6113 -0.7438  0.3542
34842SOL    HW211767   6.969   3.920   1.528 -1.4265  2.0626 -0.4367
34843SOL     OW11768   2.370   3.116  11.206 -0.2650  0.2112  0.4592
34843SOL    HW111769   2.298   3.079  11.155  0.8502 -2.8912  0.9799
34843SOL    HW211770   2.337   3.120  11.296 -0.4469  0.7690  0.3761
34844SOL     OW11771   3.345   2.450   4.014  0.7561  0.2889  0.1208
34844SOL    HW111772   3.272   2.395   3.984  0.9156  0.2102 -0.1257
34844SOL    HW211773   3.422   2.395   4.003  0.8455  0.3463  0.4506
34845SOL     OW11774   0.898   6.255  12.278  0.0107  0.3832  0.3692
34845SOL    HW111775   0.904   6.183  12.341  1.3698  0.5440  0.4550
34845SOL    HW211776   0.848   6.322  12.323  0.2318  0.1578  0.9600
34846SOL     OW11777   3.230   3.304   2.100  0.1104 -0.0781  0.2453
34846SOL    HW111778   3.255   3.376   2.043  0.5534 -0.9510 -0.6875
34846SOL    HW211779   3.171   3.251   2.047  2.3596 -2.1845 -0.3179
34847SOL     OW11780  11.155   0.979   2.902  0.1257  0.0773 -0.5995
34847SOL    HW111781  11.235   1.031   2.909 -0.8716  1.3914  2.5623
34847SOL    HW211782  11.102   1.025   2.837  0.5902  1.1484 -0.2435
34848SOL     OW11783   5.879   8.636   3.893  0.1639  0.0263 -0.4353
34848SOL    HW111784   5.800   8.595   3.858 -0.7693  0.6503  0.8574
34848SOL    HW211785   5.947   8.614   3.830 -1.0173 -0.5892 -1.5500
34849SOL     OW11786   9.554   5.773   7.219  0.1787  0.5347  0.0016
34849SOL    HW111787   9.646   5.755   7.241 -0.1724 -1.1525  0.1615
34849SOL    HW211788   9.559   5.828   7.141  1.3210  0.1934 -0.1850
34850SOL     OW11789   4.542   9.900   0.607 -0.4084 -0.0421 -0.0337
34850SOL    HW111790   4.571   9.861   0.690  2.6360  0.2912 -0.8168
34850SOL    HW211791   4.513   9.826   0.555 -2.0746 -0.2888  1.1629
34851SOL     OW11792   4.644   6.810   2.508  0.5909 -0.3879  0.1955
34851SOL    HW111793   4.591   6.745   2.554  0.8517 -0.6734  0.0959
34851SOL    HW211794   4.682   6.763   2.434 -1.5308  0.5502 -1.6078
34852SOL     OW11795   8.980   7.220   8.385  0.1216  0.3900  0.4344
34852SOL    HW111796   8.964   7.187   8.296 -1.9972 -0.6640  1.1266
34852SOL    HW211797   9.066   7.185   8.408 -0.1550 -1.0201 -0.5040
34853SOL     OW11798   9.383   2.752   5.662  0.3486 -0.1364 -0.0108
34853SOL    HW111799   9.363   2.704   5.582  3.3672 -0.8449 -0.4653
34853SOL    HW211800   9.471   2.724   5.685  0.0015  0.8987  2.9845
34854SOL     OW11801   2.592  10.209  10.438  0.1929 -0.4802 -0.1718
34854SOL    HW111802   2.561  10.147  10.504 -0.0350  0.4857  0.6380
34854SOL    HW211803   2.686  10.215  10.453 -0.1813  1.7253  1.8532
34855SOL     OW11804   1.801   5.263   2.503 -0.8182 -0.1515 -1.0571
34855SOL    HW111805   1.739   5.196   2.533 -1.0983 -0.3330 -2.0306
34855SOL    HW211806   1.750   5.319   2.445 -0.7189  1.2264  0.1204
34856SOL     OW11807  10.591   7.307   5.431 -0.0410 -0.2096 -0.2295
34856SOL    HW111808  10.618   7.254   5.506  1.4004  0.8796  0.0639
34856SOL    HW211809  10.673   7.341   5.395 -0.8942  1.7447 -0.4488
34857SOL     OW11810   3.777   2.091   8.935 -0.8989 -0.3824  0.1731
34857SOL    HW111811   3.746   2.135   8.856  1.8039 -0.3408 -0.9813
34857SOL    HW211812   3.809   2.007   8.904 -0.6051 -0.7384  1.3944
34858SOL     OW11813  10.156   1.845  11.874  0.3029 -0.2511 -0.3500
34858SOL    HW111814  10.230   1.899  11.847 -1.1144  1.9628 -0.0509
34858SOL    HW211815  10.081   1.883  11.829 -0.9235 -1.3453  0.6781
34859SOL     OW11816   2.585  11.892  11.863 -0.6377  0.5195 -0.6998
34859SOL    HW111817   2.613  11.801  11.875  0.1138  0.8411  0.0838
34859SOL    HW211818   2.660  11.936  11.823  0.1415  1.4366  1.5972
34860SOL     OW11819   6.242   6.957   1.098  0.6687  0.6080  0.4204
34860SOL    HW111820   6.247   6.907   1.179 -2.3413  0.1847  0.4379
34860SOL    HW211821   6.190   7.034   1.119 -0.1353  0.5163 -1.0466
34861SOL     OW11822   7.968   1.259  10.712  0.0543 -0.1330 -0.6219
34861SOL    HW111823   7.992   1.263  10.804  1.2020 -3.6629 -0.6063
34861SOL    HW211824   8.033   1.314  10.668  2.2056 -1.6954  0.3907
34862SOL     OW11825   1.249  10.448   6.821 -0.7816  0.3239 -0.5658
34862SOL    HW111826   1.326  10.393   6.803 -0.5596  0.5867 -0.4257
34862SOL    HW211827   1.186  10.423   6.753 -0.5907  0.0696 -0.6527
34863SOL     OW11828   5.713   2.441   1.910 -0.6331  0.3232 -0.4698
34863SOL    HW111829   5.759   2.522   1.933  0.2691  0.3338 -2.1722
34863SOL    HW211830   5.775   2.371   1.932 -1.5516  0.0137  1.3479
34864SOL     OW11831   1.995   8.717  10.370 -0.1927 -0.3410 -0.2178
34864SOL    HW111832   2.001   8.800  10.324 -0.7229 -0.0996  0.1463
34864SOL    HW211833   1.916   8.675  10.336 -1.0162  0.1762  1.0021
34865SOL     OW11834   2.594   8.797  10.419  0.2773  0.5526 -0.1525
34865SOL    HW111835   2.572   8.706  10.438 -0.6268  0.4342 -1.5925
34865SOL    HW211836   2.676   8.792  10.370 -0.0464  0.4593 -0.6929
34866SOL     OW11837   3.518   8.819  12.615  0.0851  0.2227 -0.2162
34866SOL    HW111838   3.431   8.781  12.622  0.5331 -0.6532  1.0870
34866SOL    HW211839   3.509   8.890  12.552 -1.4934 -0.0511 -0.3330
34867SOL     OW11840   4.772   8.233  11.942  0.5445 -0.5118  0.2795
34867SOL    HW111841   4.704   8.176  11.907  2.0047 -2.4620  0.4753
34867SOL    HW211842   4.737   8.265  12.025 -1.0971  0.5187 -0.7616
34868SOL     OW11843   2.462   3.040   5.128 -0.5426  0.2826  0.1973
34868SOL    HW111844   2.407   2.993   5.190  0.3832 -0.2306  0.6428
34868SOL    HW211845   2.547   3.046   5.170  0.0389  0.1528 -0.9078
34869SOL     OW11846   0.418   2.307   2.461  0.2004 -0.6056  0.3248
34869SOL    HW111847   0.492   2.337   2.409  0.3309  0.5283  1.1103
34869SOL    HW211848   0.457   2.257   2.533  0.0705 -1.5111 -0.2176
34870SOL     OW11849   3.449   9.382  12.558 -0.3141  0.1724 -0.0593
34870SOL    HW111850   3.441   9.464  12.511  1.7174  0.0862 -0.6454
34870SOL    HW211851   3.453   9.315  12.490  3.2436  0.0924 -0.0030
34871SOL     OW11852   5.494   9.573   2.741  0.5005  0.0281 -0.6969
34871SOL    HW111853   5.454   9.642   2.793 -1.1476 -0.5443 -1.1285
34871SOL    HW211854   5.576   9.611   2.710 -0.0268  1.5399 -0.3489
34872SOL     OW11855   9.002   0.299   7.569  0.0726 -0.2878 -0.4796
34872SOL    HW111856   9.036   0.282   7.657  0.0804  1.0082 -0.2235
34872SOL    HW211857   9.064   0.361   7.531 -0.5927  0.0945 -0.9493
34873SOL     OW11858  11.453   5.058   7.339 -0.1299 -0.7018  0.1317
34873SOL    HW111859  11.397   5.135   7.326  1.4103  0.1119 -2.5985
34873SOL    HW211860  11.424   4.997   7.271 -1.1034 -2.4958  2.0464
34874SOL     OW11861   8.746   4.684   9.966  0.2635 -0.0427 -0.2689
34874SOL    HW111862   8.806   4.690   9.892 -0.2110 -1.8268 -0.8465
34874SOL    HW211863   8.721   4.775   9.984  1.7214  0.5686 -1.1634
34875SOL     OW11864  12.300   2.152   2.151  0.5159  1.0130 -0.5618
34875SOL    HW111865  12.230   2.208   2.185  0.9753  1.1446  0.2022
34875SOL    HW211866  12.380   2.202   2.168  1.1054 -0.5100  1.5994
34876SOL     OW11867   8.587   7.245  10.826 -0.2948  0.2923 -0.5843
34876SOL    HW111868   8.519   7.185  10.795 -0.9308  1.2879 -1.1815
34876SOL    HW211869   8.591   7.231  10.920 -0.2903 -0.8137 -0.7378
34877SOL     OW11870   4.690   3.938   2.650  0.2085  0.3463  0.5111
34877SOL    HW111871   4.615   3.898   2.695 -0.3210  0.2003 -0.4722
34877SOL    HW211872   4.682   3.908   2.560 -1.7266  4.5918 -0.9877
34878SOL     OW11873   6.403   0.882   2.255  0.0948 -0.9152 -0.1676
34878SOL    HW111874   6.396   0.798   2.209 -1.0102 -1.3008  0.6777
34878SOL    HW211875   6.324   0.929   2.230  0.9338  0.1020 -1.0230
34879SOL     OW11876  10.499   2.130   8.050  0.2921  0.0011  0.0542
34879SOL    HW111877  10.564   2.180   8.099  0.1482  0.3677 -0.1198
34879SOL    HW211878  10.479   2.186   7.974  0.0880 -0.2975 -0.1121
34880SOL     OW11879  10.146  12.556   7.914  0.8286  0.3808 -0.3923
34880SOL    HW111880  10.080  12.489   7.896  1.0601 -0.1952  0.8569
34880SOL    HW211881  10.171  12.587   7.827 -1.9754  1.5388 -0.9055
34881SOL     OW11882   8.146   7.458   2.514  0.6710  0.0570  0.3277
34881SOL    HW111883   8.141   7.552   2.529  1.4070  0.0269  0.8308
34881SOL    HW211884   8.055   7.430   2.503  0.3665  0.6772  1.1385
34882SOL     OW11885   5.727   7.250  10.832  0.2503  0.2498 -0.3176
34882SOL    HW111886   5.674   7.244  10.753  1.0826  1.1576 -0.9638
34882SOL    HW211887   5.753   7.342  10.837 -0.7671  0.4804  1.6702
34883SOL     OW11888   6.686   3.759   2.604 -0.2361  0.0096 -0.6257
34883SOL    HW111889   6.633   3.762   2.524 -0.0278  1.5182 -0.7474
34883SOL    HW211890   6.625   3.729   2.672 -0.0203 -2.8195 -1.5886
34884SOL     OW11891   5.314   1.278   2.851 -0.4231  0.2347  0.0771
34884SOL    HW111892   5.282   1.277   2.760 -3.1013 -0.3016  0.9122
34884SOL    HW211893   5.340   1.188   2.868  1.9806  0.7223 -0.6811
34885SOL     OW11894   5.362  11.443  12.291 -0.0493 -0.0147  0.0308
34885SOL    HW111895   5.326  11.480  12.210  0.1256  0.4011  0.1418
34885SOL    HW211896   5.389  11.354  12.267  1.2034  0.5365 -0.7076
34886SOL     OW11897  12.223   9.107   2.625 -0.3021 -0.3749 -0.1222
34886SOL    HW111898  12.305   9.107   2.576  1.3221 -0.4721  2.4186
34886SOL    HW211899  12.198   9.014   2.629 -0.6525 -0.3283 -1.0433
34887SOL     OW11900   9.808   7.421   6.640  0.1365  0.0139 -0.0714
34887SOL    HW111901   9.811   7.333   6.679 -1.8058 -0.4265 -0.7941
34887SOL    HW211902   9.788   7.479   6.714  0.2764 -0.3049  0.2196
34888SOL     OW11903   5.139   0.396   6.420 -0.1234  0.0284  0.5396
34888SOL    HW111904   5.179   0.311   6.402  0.9802  0.9007 -1.4367
34888SOL    HW211905   5.197   0.435   6.486  0.5191  0.0210 -0.0052
34889SOL     OW11906  11.135   9.690   9.309  0.3482 -0.4280 -0.1956
34889SOL    HW111907  11.200   9.718   9.244  0.1010  0.2138 -0.1813
34889SOL    HW211908  11.060   9.662   9.257 -0.9705  2.7503 -0.2657
34890SOL     OW11909  12.094  10.166   2.457  0.3452 -0.0085  0.2113
34890SOL    HW111910  12.187  10.150   2.446  0.0592 -0.7978 -1.4163
34890SOL    HW211911  12.079  10.251   2.415  0.2106 -0.2573 -0.2516
34891SOL     OW11912   7.791   8.820   6.301 -0.2345  0.0574  0.0633
34891SOL    HW111913   7.842   8.755   6.252  1.5231  1.0650  0.4389
34891SOL    HW211914   7.856   8.863   6.357 -1.7432  0.6434  1.4411
34892SOL     OW11915  10.659   3.006   2.361  0.0508  0.0030  0.1413
34892SOL    HW111916  10.683   2.995   2.269 -1.8497  0.7078 -0.4793
34892SOL    HW211917  10.570   3.041   2.359 -0.0748 -0.0614  2.2608
34893SOL     OW11918   7.643   5.949   9.158  0.5911 -0.3420  0.1625
34893SOL    HW111919   7.709   5.974   9.222  1.0685  0.6513 -0.6696
34893SOL    HW211920   7.692   5.942   9.075 -0.1173 -0.9362 -0.2170
34894SOL     OW11921   5.756   6.877   3.195 -0.2398  0.0215  0.1449
34894SOL    HW111922   5.843   6.906   3.221  0.5202 -2.4356  0.5710
34894SOL    HW211923   5.722   6.948   3.140  1.9687  1.0651  0.0416
34895SOL     OW11924   6.977  12.133   7.894  0.6192 -0.2568  0.2454
34895SOL    HW111925   6.982  12.178   7.809  1.2645 -0.1073  0.3568
34895SOL    HW211926   6.961  12.041   7.872 -2.4131  0.2289  0.0477
34896SOL     OW11927   5.630   2.723   5.536 -0.1721 -0.4921 -0.0812
34896SOL    HW111928   5.648   2.716   5.630 -0.0974 -0.8295 -0.1172
34896SOL    HW211929   5.717   2.728   5.495 -0.1934 -0.6753 -0.1524
34897SOL     OW11930   3.829   9.986   4.535  0.4144 -0.3997  0.0272
34897SOL    HW111931   3.743   9.952   4.509  0.1428  0.4840 -0.2619
34897SOL    HW211932   3.816  10.080   4.546  0.8178 -0.5435  2.2109
34898SOL     OW11933   1.841   9.213   8.945  0.2581  0.2421  0.1681
34898SOL    HW111934   1.868   9.299   8.978  1.2767 -0.4995  1.3718
34898SOL    HW211935   1.911   9.188   8.884 -0.9225  0.9943 -1.5873
34899SOL     OW11936  12.437   0.626   6.441 -0.2143  0.1302  0.1354
34899SOL    HW111937  12.362   0.630   6.501  0.2805  1.1528  0.7034
34899SOL    HW211938  12.410   0.681   6.367 -0.9043 -1.2823 -0.7210
34900SOL     OW11939   2.541   4.756   9.627  0.2711  1.2891  0.1087
34900SOL    HW111940   2.588   4.835   9.601 -0.7664  1.6417 -0.7574
34900SOL    HW211941   2.456   4.763   9.584  0.9230 -1.3766 -1.8569
34901SOL     OW11942  11.753  10.766   7.610 -0.0188 -0.3716  0.1102
34901SOL    HW111943  11.731  10.747   7.701  0.7528 -0.8253  0.2133
34901SOL    HW211944  11.720  10.690   7.561 -0.9408  0.1299 -0.0780
34902SOL     OW11945  10.646   4.638   9.228 -0.3443  0.1630  0.1865
34902SOL    HW111946  10.661   4.727   9.260  0.0847  0.5769 -1.1190
34902SOL    HW211947  10.730   4.594   9.241 -1.1127 -0.7380  2.7925
34903SOL     OW11948   0.775   2.836   1.615  0.1141  0.5654 -0.1285
34903SOL    HW111949   0.696   2.841   1.560  1.8778  0.8837 -2.8220
34903SOL    HW211950   0.788   2.926   1.645 -0.6211  0.4807  0.4656
34904SOL     OW11951  10.344   2.190  10.340  0.4186 -0.2991 -0.7159
34904SOL    HW111952  10.259   2.212  10.376  0.1431 -2.2536 -0.1071
34904SOL    HW211953  10.398   2.268  10.357 -0.8812  0.4765 -0.0180
34905SOL     OW11954  11.317   0.409   7.004  0.3345  0.3512  0.6095
34905SOL    HW111955  11.323   0.315   7.023 -1.7189 -0.0011 -0.2201
34905SOL    HW211956  11.238   0.438   7.049 -0.1311  1.2402 -0.7155
34906SOL     OW11957  11.101   6.410   6.168  0.2797 -0.3715  0.2738
34906SOL    HW111958  11.023   6.386   6.118  0.8127 -0.0204 -0.7554
34906SOL    HW211959  11.067   6.437   6.254 -0.7389 -0.1126 -0.1928
34907SOL     OW11960   8.219   4.804  11.061  0.0881 -0.2088  0.6858
34907SOL    HW111961   8.289   4.768  11.006 -1.2505  0.9296 -1.9215
34907SOL    HW211962   8.254   4.888  11.092 -0.2203  0.5486 -0.9430
34908SOL     OW11963   5.002   6.617   3.506  0.2265 -0.0710  0.3927
34908SOL    HW111964   5.058   6.635   3.431  0.3045  0.3455  0.5479
34908SOL    HW211965   5.061   6.576   3.570  0.4478  0.7212  0.7047
34909SOL     OW11966  10.016   2.329   8.174  0.3345  0.3712 -0.3810
34909SOL    HW111967  10.052   2.240   8.168  3.1204  1.3190  0.6937
34909SOL    HW211968   9.969   2.329   8.257  1.9070  0.3643  0.5453
34910SOL     OW11969   3.441   2.699  10.084 -0.0111  0.0128 -0.6254
34910SOL    HW111970   3.511   2.739  10.136  0.0012  0.1251 -0.7311
34910SOL    HW211971   3.486   2.650  10.016 -0.0622  0.8649 -1.2743
34911SOL     OW11972   9.590  11.168   4.236 -0.7830  0.0609  0.4151
34911SOL    HW111973   9.525  11.098   4.241 -1.2711  0.4457 -0.2857
34911SOL    HW211974   9.539  11.246   4.214 -0.1220  0.4307  0.1787
34912SOL     OW11975   4.671  10.774  11.616  0.1649  1.0311 -0.2426
34912SOL    HW111976   4.682  10.857  11.663  0.5403  1.6164 -1.3528
34912SOL    HW211977   4.579  10.752  11.630 -0.0247  1.7991 -0.2046
34913SOL     OW11978   5.960   8.363   6.866  0.0066  0.4028  0.0865
34913SOL    HW111979   5.977   8.280   6.821 -1.0571 -0.4796  1.2073
34913SOL    HW211980   5.986   8.346   6.957 -3.2598  0.1313  1.0887
34914SOL     OW11981   6.509   8.931   8.181  0.0863  0.9027 -0.1142
34914SOL    HW111982   6.536   8.972   8.263 -1.3501  1.5113  0.0879
34914SOL    HW211983   6.452   8.996   8.139  0.1808  0.2925 -1.2311
34915SOL     OW11984   2.699   1.756   3.856  0.2246 -0.3459 -0.1017
34915SOL    HW111985   2.718   1.814   3.782 -5.1048  0.4562 -1.2337
34915SOL    HW211986   2.699   1.814   3.932 -1.9542  0.6162 -0.7642
34916SOL     OW11987   0.350   3.423  11.840 -0.1814 -0.3265 -0.1340
34916SOL    HW111988   0.332   3.345  11.893  0.5036  0.3053  1.0689
34916SOL    HW211989   0.386   3.486  11.902 -0.8671  1.0139 -1.0638
34917SOL     OW11990   2.368   1.853   0.026 -0.2219  0.4102  0.0002
34917SOL    HW111991   2.331   1.767   0.047 -1.3564  0.3738 -1.9627
34917SOL    HW211992   2.369   1.899   0.110  0.5420 -1.5225  1.1362
34918SOL     OW11993   7.221   9.765   8.243 -0.1671 -0.3807  0.1727
34918SOL    HW111994   7.160   9.807   8.304 -0.0536  1.7361 -1.0981
34918SOL    HW211995   7.307   9.796   8.271 -0.0497 -0.0383 -0.5531
34919SOL     OW11996  10.168   8.166   1.946  0.3775 -0.3635 -0.1517
34919SOL    HW111997  10.259   8.183   1.920  0.9434 -1.7609  0.7426
34919SOL    HW211998  10.157   8.071   1.934 -1.5732  0.0262 -1.9645
34920SOL     OW11999   0.590   2.173   6.584  0.1902  0.2601 -0.7805
34920SOL    HW112000   0.524   2.148   6.519  2.0193 -1.2494 -2.1653
34920SOL    HW212001   0.603   2.095   6.637  1.6584  0.1397 -1.2686
34921SOL     OW12002  12.027   7.725  12.679  0.4695  0.1169 -0.4491
34921SOL    HW112003  11.991   7.636  12.672  1.2347 -0.2669  0.2794
34921SOL    HW212004  12.040   7.752  12.588 -0.6782 -0.1319 -0.6985
34922SOL     OW12005  11.038   6.667   6.935  0.2969 -0.8602 -0.4915
34922SOL    HW112006  10.982   6.695   6.863  0.4388  0.0258 -0.2710
34922SOL    HW212007  11.112   6.728   6.933  0.6039 -1.2081  0.0250
34923SOL     OW12008   3.610   8.565  12.629 -0.2894 -0.1084  0.0603
34923SOL    HW112009   3.574   8.653  12.635 -0.6012 -0.1314 -1.2601
34923SOL    HW212010   3.600   8.529  12.717 -0.5483  1.0137  0.5045
34924SOL     OW12011  11.228   0.640   1.689  0.3008  0.0245 -0.3351
34924SOL    HW112012  11.313   0.654   1.646 -0.6972  1.0616 -2.0982
34924SOL    HW212013  11.184   0.724   1.682  0.0750  0.2712  2.9237
34925SOL     OW12014   2.121   0.889   3.817 -0.1005  0.2946 -0.0006
34925SOL    HW112015   2.121   0.805   3.772  0.6182 -0.1297  0.7795
34925SOL    HW212016   2.102   0.953   3.747  0.1089 -0.4295 -0.7333
34926SOL     OW12017  10.893   1.982   7.257  0.0615 -0.6119 -0.4238
34926SOL    HW112018  10.901   2.077   7.266 -2.3478 -0.4612  0.8713
34926SOL    HW212019  10.901   1.965   7.163  2.0112  0.6505 -0.5351
34927SOL     OW12020   8.010  12.229   5.263  0.3201  0.0919  0.0632
34927SOL    HW112021   8.043  12.161   5.321 -0.7548 -0.3365  0.2060
34927SOL    HW212022   7.968  12.181   5.191  0.1013  0.6104 -0.1605
34928SOL     OW12023  12.348   9.970   1.810 -0.5256  0.3737 -0.2517
34928SOL    HW112024  12.372  10.058   1.781  0.3044  1.1100  2.3688
34928SOL    HW212025  12.420   9.915   1.780 -1.5968  0.2416 -2.9402
34929SOL     OW12026   0.865   0.631  12.474 -0.2478 -0.2008  0.0750
34929SOL    HW112027   0.892   0.704  12.418 -0.4963  0.6823  1.0702
34929SOL    HW212028   0.916   0.556  12.442  0.6624  0.5996 -0.4149
34930SOL     OW12029   3.306  11.315   2.428  0.1598 -0.0437 -0.2681
34930SOL    HW112030   3.352  11.235   2.454  0.2235  0.2604  0.6159
34930SOL    HW212031   3.213  11.295   2.441  0.2490  0.8447  2.6695
34931SOL     OW12032   2.726   0.340   6.862  0.2802  1.0934 -0.0280
34931SOL    HW112033   2.644   0.316   6.906 -0.1968  0.0050 -1.4281
34931SOL    HW212034   2.700   0.364   6.773  1.5987 -1.1384 -1.1332
34932SOL     OW12035   7.930   1.689  11.748  0.5960  0.7649 -0.2733
34932SOL    HW112036   7.921   1.600  11.715  1.9186  0.2092  0.7932
34932SOL    HW212037   8.019   1.714  11.726  1.5319  0.3903  2.6820
34933SOL     OW12038   3.897   1.133   5.418 -0.0873  0.1824  0.2516
34933SOL    HW112039   3.838   1.176   5.356  1.1157  0.1924 -0.9564
34933SOL    HW212040   3.940   1.204   5.465  0.7094  0.2804 -0.5933
34934SOL     OW12041  12.405  10.238   3.851 -0.1387 -0.1945  0.2460
34934SOL    HW112042  12.456  10.316   3.875 -2.2751  1.3333  0.1070
34934SOL    HW212043  12.337  10.233   3.917 -2.4411  0.4569 -1.9450
34935SOL     OW12044   9.034   4.294   4.180 -0.4947 -0.3428 -0.0703
34935SOL    HW112045   8.954   4.243   4.191 -0.9082  0.5632  1.4757
34935SOL    HW212046   9.081   4.282   4.263 -0.0574  0.8438 -0.1346
34936SOL     OW12047   2.830   0.385   1.692 -0.3337 -0.2021 -0.2086
34936SOL    HW112048   2.809   0.345   1.777 -3.6641  1.0939 -0.2769
34936SOL    HW212049   2.828   0.480   1.709 -3.1195  0.1697 -2.0161
34937SOL     OW12050  12.581  12.008   9.488  0.3437  0.1982 -0.2236
34937SOL    HW112051  12.567  11.958   9.408 -1.0308 -0.6992  0.5330
34937SOL    HW212052  12.628  11.947   9.546 -2.0067 -0.6055  0.9788
34938SOL     OW12053  11.686   9.811   6.430 -0.4489 -0.0273  0.4536
34938SOL    HW112054  11.613   9.786   6.373 -0.5273 -0.1939  0.6264
34938SOL    HW212055  11.655   9.887   6.478  0.0429  0.8764 -0.5936
34939SOL     OW12056   5.129   8.387   3.457  0.3279 -0.1144  0.1309
34939SOL    HW112057   5.195   8.455   3.471  0.7814  0.3565 -3.4141
34939SOL    HW212058   5.180   8.311   3.429 -0.4892 -0.2373 -1.0944
34940SOL     OW12059   5.772  10.567   7.943 -0.0891  0.3430 -0.6157
34940SOL    HW112060   5.709  10.495   7.951  0.2874  0.1935  1.9640
34940SOL    HW212061   5.785  10.597   8.033  1.3459  2.2874 -1.4002
34941SOL     OW12062  11.596   1.867   0.198 -0.5276  0.4720  0.5084
34941SOL    HW112063  11.588   1.862   0.103 -1.1600 -0.1713  0.5913
34941SOL    HW212064  11.586   1.960   0.218 -1.7999  0.4380  0.0610
34942SOL     OW12065   2.760   4.770  10.890 -0.0622  0.0863  0.0916
34942SOL    HW112066   2.736   4.690  10.937 -2.7667  0.7579  0.0330
34942SOL    HW212067   2.788   4.830  10.959 -0.1519 -0.2054  0.3848
34943SOL     OW12068   1.855  12.023   5.365  0.8889  0.2557 -0.5617
34943SOL    HW112069   1.943  12.020   5.402  1.1933  0.0525 -1.2816
34943SOL    HW212070   1.803  11.968   5.424  1.2341  0.3992 -0.1150
34944SOL     OW12071   1.310   4.870  12.630  0.6092 -0.0235 -0.3637
34944SOL    HW112072   1.220   4.851  12.605  0.9576 -1.0175 -0.9712
34944SOL    HW212073   1.342   4.787  12.666  1.7492 -0.1785 -1.6510
34945SOL     OW12074   4.284   8.322   4.480 -0.1836  0.1481 -0.0509
34945SOL    HW112075   4.229   8.251   4.445 -1.1383 -0.8438  3.1555
34945SOL    HW212076   4.269   8.395   4.419 -1.9718 -1.2919 -1.4828
34946SOL     OW12077   7.140   1.245   9.578 -0.0995 -1.1733  0.1760
34946SOL    HW112078   7.231   1.240   9.606  0.1666  1.5076  0.0165
34946SOL    HW212079   7.140   1.208   9.489  0.9128 -0.7901  0.0060
34947SOL     OW12080   9.597   4.704   3.194 -0.0364  0.1113 -0.2384
34947SOL    HW112081   9.651   4.654   3.133  0.0385  0.0231 -0.0987
34947SOL    HW212082   9.651   4.779   3.218  0.3074 -0.3444  0.4540
34948SOL     OW12083   7.619  10.421   1.399  0.0423 -0.2338  0.1549
34948SOL    HW112084   7.537  10.446   1.356 -0.4144  0.1483  1.2339
34948SOL    HW212085   7.679  10.403   1.326 -0.9791 -0.4767 -0.6426
34949SOL     OW12086   1.710  10.474   9.936  0.5937 -0.2468  0.1940
34949SOL    HW112087   1.708  10.541   9.868 -3.0146 -0.3748  0.0010
34949SOL    HW212088   1.704  10.522  10.018 -1.7455 -0.1998  0.0638
34950SOL     OW12089   6.096   1.470   2.802 -0.8867 -0.0047 -0.2482
34950SOL    HW112090   6.179   1.510   2.826 -1.3359 -0.0577  1.5342
34950SOL    HW212091   6.096   1.470   2.706  0.2810  1.8213 -0.2947
34951SOL     OW12092   5.227   7.062   4.795  0.3615 -0.1582 -0.3699
34951SOL    HW112093   5.165   6.992   4.778 -0.1602  0.1365  0.2591
34951SOL    HW212094   5.210   7.127   4.727 -0.1396 -0.0087 -0.1101
34952SOL     OW12095   1.988   9.706   6.769  0.1841 -0.1223 -0.2473
34952SOL    HW112096   2.052   9.657   6.718  0.9054  0.9733 -0.4381
34952SOL    HW212097   2.021   9.796   6.768 -1.3912  0.4921 -0.4053
34953SOL     OW12098   7.106   0.728   1.170  0.2009 -0.4648  0.1328
34953SOL    HW112099   7.043   0.724   1.242  1.2274 -0.5191  1.0625
34953SOL    HW212100   7.190   0.708   1.211  1.1610  1.6659 -0.6634
34954SOL     OW12101   7.037  10.239   7.242  0.4974  0.4203  0.4435
34954SOL    HW112102   7.085  10.211   7.164 -0.8287 -0.3360 -0.1372
34954SOL    HW212103   7.087  10.314   7.275  0.9023  0.9856 -1.3279
34955SOL     OW12104  12.078   5.031   9.076 -0.0733 -0.0962 -0.3682
34955SOL    HW112105  12.104   4.943   9.047  0.3009 -0.2085  0.2940
34955SOL    HW212106  12.148   5.058   9.135  0.1224  0.9042 -1.0455
34956SOL     OW12107  10.601   8.308   6.965  0.4512  0.2399  0.5162
34956SOL    HW112108  10.591   8.221   7.003  2.9482 -0.0918  0.5654
34956SOL    HW212109  10.538   8.362   7.012 -0.8826 -1.4415  0.7489
34957SOL     OW12110  10.765   0.681  11.347  0.6160 -0.2290 -0.0735
34957SOL    HW112111  10.765   0.737  11.425 -0.4425 -1.0085  0.5064
34957SOL    HW212112  10.854   0.647  11.343  1.2228  1.3235 -0.3260
34958SOL     OW12113   4.805  11.370   9.295  0.5818 -0.3367 -0.2985
34958SOL    HW112114   4.870  11.440   9.306  1.7031 -1.5129  0.8984
34958SOL    HW212115   4.827  11.330   9.211  0.2457  0.4278 -0.7557
34959SOL     OW12116   3.794   2.596   7.704  0.0486 -0.0261 -0.0549
34959SOL    HW112117   3.765   2.553   7.785  0.0145  1.9239  1.0410
34959SOL    HW212118   3.889   2.597   7.710  0.0589 -0.1749 -0.1998
34960SOL     OW12119   4.171   9.651   4.134  0.1572 -0.7607 -0.2191
34960SOL    HW112120   4.188   9.746   4.136 -1.4047 -0.4542  1.4629
34960SOL    HW212121   4.204   9.623   4.049 -0.4839  1.5226 -1.3186
34961SOL     OW12122   4.191   2.383  10.680  0.5747  0.0056 -0.2187
34961SOL    HW112123   4.126   2.422  10.622  0.8422 -1.0008 -1.2272
34961SOL    HW212124   4.141   2.319  10.732  0.4037  0.6487  0.4238
34962SOL     OW12125   7.028   1.906  10.033 -0.3095 -0.4262 -0.0349
34962SOL    HW112126   7.017   2.001  10.024 -1.0451 -0.6075 -1.3342
34962SOL    HW212127   6.941   1.874  10.058 -0.2584 -0.8238 -0.3520
34963SOL     OW12128   2.131  11.759   8.057 -0.1568  0.3615 -0.4741
34963SOL    HW112129   2.136  11.670   8.091 -1.4760  1.3719  2.6512
34963SOL    HW212130   2.222  11.783   8.041  0.3258 -1.0346  0.0099
34964SOL     OW12131   2.376   2.754  11.115  0.2974  0.6272 -0.4149
34964SOL    HW112132   2.441   2.684  11.113 -1.3174 -0.9738  0.2319
34964SOL    HW212133   2.369   2.778  11.207 -0.9846 -0.2215 -0.2600
34965SOL     OW12134   7.472   5.451   4.269  0.1543  0.4354 -0.5107
34965SOL    HW112135   7.424   5.487   4.343 -0.2930 -0.8464 -0.1399
34965SOL    HW212136   7.507   5.527   4.222 -0.6117  1.3063  0.3080
34966SOL     OW12137   6.421   3.794   4.646 -0.1313  0.2311 -0.7640
34966SOL    HW112138   6.344   3.807   4.590 -1.9259  0.0562  1.5007
34966SOL    HW212139   6.447   3.703   4.631 -0.0889  0.4115 -1.8464
34967SOL     OW12140   1.265  11.818   2.103  0.1651 -0.1149  0.0252
34967SOL    HW112141   1.298  11.844   2.018  1.0888 -0.0049  0.4071
34967SOL    HW212142   1.194  11.879   2.122  0.1835  0.0721 -0.5017
34968SOL     OW12143   6.368  12.463   1.670 -0.5153  0.5410  0.9148
34968SOL    HW112144   6.406  12.516   1.740  0.7661  0.1478  0.5342
34968SOL    HW212145   6.422  12.482   1.593 -0.4833 -0.7750  0.5965
34969SOL     OW12146   2.062   1.243  10.238  0.4115  0.2839  0.4501
34969SOL    HW112147   2.129   1.280  10.295  1.6351 -0.6821 -0.3277
34969SOL    HW212148   2.007   1.191  10.297  1.1426 -0.0042  0.8862
34970SOL     OW12149   4.900   0.886   3.131 -0.3755  0.3494 -0.7095
34970SOL    HW112150   4.854   0.802   3.132 -0.6840  0.4305  2.4019
34970SOL    HW212151   4.899   0.913   3.040 -1.2778 -2.4704 -1.6350
34971SOL     OW12152   0.097   9.100   5.887  0.5223 -0.2935 -0.0551
34971SOL    HW112153   0.022   9.051   5.920  0.3154  1.3916  2.2258
34971SOL    HW212154   0.064   9.145   5.810 -0.1670 -1.2612 -0.3405
34972SOL     OW12155  12.562   2.329   6.858 -0.2229 -0.3304  0.3511
34972SOL    HW112156  12.537   2.416   6.826 -0.0746 -1.3417 -2.9346
34972SOL    HW212157  12.657   2.327   6.848 -0.2456 -0.9327  0.2411
34973SOL     OW12158   4.209   1.007   9.889 -0.4107  0.3711  0.3364
34973SOL    HW112159   4.297   1.043   9.878 -1.2045  1.9016 -1.5707
34973SOL    HW212160   4.194   1.006   9.983  1.2866  0.9875  0.6376
34974SOL     OW12161   7.141   0.330   4.572  0.1325 -0.2609 -0.0278
34974SOL    HW112162   7.232   0.348   4.597  0.4481 -1.6893 -0.0490
34974SOL    HW212163   7.094   0.411   4.591  0.8514 -0.4208  2.7785
34975SOL     OW12164   2.140  12.637   9.479 -0.1133 -0.4487 -0.3187
34975SOL    HW112165   2.087  12.673   9.407  0.8983 -0.4399 -1.0768
34975SOL    HW212166   2.099  12.553   9.499 -1.8305  0.5741  0.7132
34976SOL     OW12167   1.583   8.873  11.638 -0.3577  0.7056 -0.1678
34976SOL    HW112168   1.667   8.903  11.672  0.0148 -0.5350  0.0666
34976SOL    HW212169   1.527   8.866  11.715 -0.3156  0.4076 -0.1634
34977SOL     OW12170   1.998   3.829   0.703 -0.3430 -0.1509  0.5732
34977SOL    HW112171   2.049   3.842   0.623  0.5348 -1.5912  0.8647
34977SOL    HW212172   2.008   3.736   0.723 -1.8203 -0.1345  1.5158
34978SOL     OW12173   9.437   8.533   9.906 -0.5964  0.1901 -0.1856
34978SOL    HW112174   9.386   8.516   9.985 -0.1363  0.5237  0.1865
34978SOL    HW212175   9.528   8.512   9.931 -0.2806  1.4262 -0.2583
34979SOL     OW12176  12.480  11.901   5.980 -0.1713 -0.3408 -0.0732
34979SOL    HW112177  12.438  11.953   6.048 -1.5967  0.5106 -1.5226
34979SOL    HW212178  12.461  11.811   6.003  1.4167 -0.2309  1.9021
34980SOL     OW12179   4.229  12.474   5.021  0.1159 -0.4537  0.2883
34980SOL    HW112180   4.295  12.491   5.089 -1.2327  0.5017  1.4186
34980SOL    HW212181   4.151  12.447   5.070 -1.2322  1.3119 -0.7753
34981SOL     OW12182   3.257   6.091   7.010 -0.1254  0.5635 -0.2209
34981SOL    HW112183   3.303   6.048   7.082 -2.1000 -0.1335  0.7240
34981SOL    HW212184   3.173   6.045   7.005 -0.0250  0.5108 -3.0804
34982SOL     OW12185   4.109   2.370   4.522 -0.4911 -0.3386 -0.3049
34982SOL    HW112186   4.122   2.406   4.434  0.5103 -1.6869 -0.7423
34982SOL    HW212187   4.099   2.447   4.578  2.3293  0.7056 -1.0721
34983SOL     OW12188   9.020   5.476   8.000 -0.4602 -0.6094 -0.0208
34983SOL    HW112189   8.972   5.557   8.015 -0.9154 -0.9669  0.4924
34983SOL    HW212190   9.110   5.496   8.026 -0.7285 -0.4852  0.8627
34984SOL     OW12191   6.208  11.986   8.740 -0.8085  0.3347  0.2614
34984SOL    HW112192   6.223  11.958   8.831 -0.7097 -1.2815 -0.2217
34984SOL    HW212193   6.284  12.039   8.718 -0.0618 -0.5469  0.6481
34985SOL     OW12194  11.223   0.779  11.503 -0.0332  0.0372 -0.3977
34985SOL    HW112195  11.270   0.719  11.561 -0.2247 -0.2498 -0.5376
34985SOL    HW212196  11.282   0.854  11.492  0.5341 -0.4659 -0.8463
34986SOL     OW12197   9.525  12.360   2.784  0.0955 -0.3510 -0.2487
34986SOL    HW112198   9.616  12.372   2.812 -0.2453 -1.9765  1.7630
34986SOL    HW212199   9.500  12.445   2.747  0.8837  1.8826  3.7781
34987SOL     OW12200   0.261   4.558   1.772 -0.4929  0.6514  0.4917
34987SOL    HW112201   0.331   4.494   1.781 -0.2792  0.7532 -0.3170
34987SOL    HW212202   0.205   4.544   1.848 -1.1407 -1.3704 -0.2674
34988SOL     OW12203   9.706   9.729   6.945 -0.3040 -0.0468 -0.2159
34988SOL    HW112204   9.613   9.736   6.924 -0.0266  0.0743 -1.4709
34988SOL    HW212205   9.726   9.809   6.993 -1.1042 -0.6262  1.1278
34989SOL     OW12206   6.758  11.771  12.458 -0.0183 -0.3251 -0.1387
34989SOL    HW112207   6.841  11.817  12.471  1.2929 -2.4840 -0.3215
34989SOL    HW212208   6.722  11.809  12.377  0.4201  1.1182  0.3145
34990SOL     OW12209   7.916   3.950   3.196 -0.5837 -0.2112  0.0207
34990SOL    HW112210   7.933   3.996   3.114  2.4436 -0.2079  0.5540
34990SOL    HW212211   7.877   3.867   3.169  0.5424 -0.2946 -1.4628
34991SOL     OW12212   1.915   0.039   1.144  0.1291 -0.1266 -0.3936
34991SOL    HW112213   1.979   0.078   1.084 -0.2716 -0.6256 -1.1549
34991SOL    HW212214   1.852  -0.004   1.087  0.0927 -1.1616  0.4110
34992SOL     OW12215   2.403   0.169   4.762 -0.4077 -0.5879 -0.0698
34992SOL    HW112216   2.354   0.248   4.739  2.3366  1.4026  0.4781
34992SOL    HW212217   2.378   0.151   4.853  2.1969  2.4409  1.4079
34993SOL     OW12218  10.831   3.314   6.621 -0.2201  0.2021 -0.7913
34993SOL    HW112219  10.759   3.335   6.680  0.4640  1.7817 -0.4454
34993SOL    HW212220  10.855   3.398   6.581  2.4802  0.1121  0.3665
34994SOL     OW12221   5.380  11.583   1.980  0.5386  0.3230 -0.0635
34994SOL    HW112222   5.356  11.493   1.999  0.0261  0.5448  0.3679
34994SOL    HW212223   5.337  11.603   1.897  1.0968  0.0003 -0.4311
34995SOL     OW12224  11.693   4.725   8.483  0.0204  0.4920 -0.0378
34995SOL    HW112225  11.780   4.686   8.475 -0.2970 -1.0895  2.7005
34995SOL    HW212226  11.634   4.659   8.445 -0.2922 -0.7711  2.3867
34996SOL     OW12227   7.500  11.160   5.946  0.0030 -0.2796 -0.1676
34996SOL    HW112228   7.436  11.192   5.882  1.3993 -1.4124 -2.2340
34996SOL    HW212229   7.585  11.187   5.910  0.7888  0.6824  2.2141
34997SOL     OW12230   5.190  11.680   8.033  0.1864  0.0139  0.6455
34997SOL    HW112231   5.201  11.757   7.978  1.2352  0.8041  1.9208
34997SOL    HW212232   5.103  11.691   8.073  0.2601  0.4510  0.6874
34998SOL     OW12233   6.607   9.245  12.433 -0.1806  0.8453  0.5896
34998SOL    HW112234   6.604   9.336  12.463  0.1945  1.2724 -0.6099
34998SOL    HW212235   6.547   9.199  12.491 -0.6486  1.9265  0.9995
34999SOL     OW12236   2.841   1.534   3.269 -0.3243 -0.0507 -0.0156
34999SOL    HW112237   2.935   1.537   3.285 -0.1227  0.4902 -1.1722
34999SOL    HW212238   2.821   1.442   3.256  0.2550 -0.0708 -0.8233
35000SOL     OW12239   1.135   2.272   0.042 -0.2861 -0.3044  0.1970
35000SOL    HW112240   1.227   2.285   0.064  1.3114 -0.9936 -4.7211
35000SOL    HW212241   1.092   2.352   0.070  2.5159  1.4807 -0.1680
35001SOL     OW12242  10.574   1.201   5.227  0.0550  0.0224  0.1939
35001SOL    HW112243  10.617   1.125   5.265 -1.1951 -0.9032 -0.1878
35001SOL    HW212244  10.574   1.266   5.297  0.1021 -0.7410  0.9119
35002SOL     OW12245   3.694   1.949   2.973 -0.0926  0.2703 -0.4940
35002SOL    HW112246   3.787   1.972   2.971  0.0746 -0.4009 -1.0303
35002SOL    HW212247   3.693   1.853   2.965 -0.8314  0.2912 -0.7230
35003SOL     OW12248   3.339   6.100   1.528  0.4508 -0.3780 -0.1768
35003SOL    HW112249   3.369   6.024   1.477  2.2180 -0.9794  1.6302
35003SOL    HW212250   3.414   6.158   1.531  0.0819  0.0659  0.9467
35004SOL     OW12251   8.456  12.221   8.391  0.1198 -0.3056  0.0949
35004SOL    HW112252   8.498  12.303   8.364 -0.0599 -0.4239 -0.5644
35004SOL    HW212253   8.518  12.181   8.452  0.3942  0.1281  0.1029
35005SOL     OW12254  10.764   7.368   3.169  0.1721  0.4555 -0.2700
35005SOL    HW112255  10.743   7.398   3.081 -0.7662  0.6186 -0.0034
35005SOL    HW212256  10.689   7.396   3.222  0.7023  0.3163  0.5654
35006SOL     OW12257   6.284   4.460   9.121  0.1666 -0.4319 -0.1356
35006SOL    HW112258   6.376   4.464   9.096  0.4540  0.4602  0.9585
35006SOL    HW212259   6.248   4.544   9.091 -0.5024 -1.1035 -1.2783
35007SOL     OW12260  10.481  11.689   7.619 -0.7359 -0.0781  0.2041
35007SOL    HW112261  10.535  11.611   7.628 -0.6627 -0.0600 -0.0727
35007SOL    HW212262  10.488  11.733   7.704 -0.2058 -0.0064  0.1261
35008SOL     OW12263  11.196   3.745   3.504  0.3066  0.5488  0.1760
35008SOL    HW112264  11.235   3.806   3.567  0.9351 -0.4138  0.7629
35008SOL    HW212265  11.264   3.732   3.438 -0.2547  1.3543 -0.5756
35009SOL     OW12266   7.879   8.154   7.594  0.4492 -0.2466 -0.1207
35009SOL    HW112267   7.968   8.158   7.629  1.6885 -0.3874 -2.9613
35009SOL    HW212268   7.855   8.246   7.579 -0.0846 -0.1858  0.9901
35010SOL     OW12269   7.418  10.105   6.880 -0.0129 -0.4565  0.2238
35010SOL    HW112270   7.358  10.148   6.819 -0.2486 -1.1291 -0.0295
35010SOL    HW212271   7.377  10.020   6.897  0.4831 -0.6110  0.6504
35011SOL     OW12272   3.424  10.924   3.382 -0.0728 -0.2679  0.1023
35011SOL    HW112273   3.474  10.861   3.435  1.2912 -1.4586 -2.4496
35011SOL    HW212274   3.436  11.008   3.428 -0.8677 -1.5459  2.8899
35012SOL     OW12275   0.191  10.321   0.678  0.1491  0.0814 -0.3812
35012SOL    HW112276   0.202  10.371   0.758  2.2420  0.4666 -0.8585
35012SOL    HW212277   0.096  10.313   0.668 -0.2006  1.9138  0.9557
35013SOL     OW12278   6.486   2.476   0.408  0.7441  0.0630  0.0764
35013SOL    HW112279   6.393   2.477   0.429  0.9945 -1.3670  1.4532
35013SOL    HW212280   6.527   2.432   0.482  2.3516 -0.6146 -1.1531
35014SOL     OW12281  12.165   0.987   8.336  0.2210 -0.9107  0.9089
35014SOL    HW112282  12.212   0.909   8.308  2.4313  1.2084 -1.8507
35014SOL    HW212283  12.076   0.974   8.302  0.5676 -2.1475  0.4041
35015SOL     OW12284   2.053   9.194   7.675  0.3010 -0.0786 -0.1764
35015SOL    HW112285   2.065   9.183   7.580 -2.8848  0.8162 -0.8303
35015SOL    HW212286   2.040   9.106   7.708 -2.4445 -0.2259 -1.3675
35016SOL     OW12287   3.358   9.406   2.905 -0.3359  0.2672 -0.6554
35016SOL    HW112288   3.414   9.435   2.976  0.8078 -2.9526 -0.0883
35016SOL    HW212289   3.269   9.422   2.936  0.1344 -1.2508  1.6158
35017SOL     OW12290   9.709  10.904   9.072 -0.3046  0.0456  0.1593
35017SOL    HW112291   9.733  10.943   9.157 -1.5560 -0.6239  0.8548
35017SOL    HW212292   9.664  10.823   9.096  1.9279 -1.7284 -1.2252
35018SOL     OW12293   9.895   9.416   0.033  0.1135 -0.5545 -0.4418
35018SOL    HW112294   9.830   9.486   0.021  0.0725 -0.8669 -2.3485
35018SOL    HW212295   9.972   9.461   0.069 -0.3764  0.2277 -0.3456
35019SOL     OW12296   4.999  12.006   3.163 -0.1857 -0.0628  0.2474
35019SOL    HW112297   5.053  11.948   3.217  0.6640 -1.2903 -1.7727
35019SOL    HW212298   5.036  11.997   3.075 -0.8328  2.6472 -0.3903
35020SOL     OW12299   4.890  11.628   4.466 -0.2550 -0.2997  0.0471
35020SOL    HW112300   4.912  11.712   4.507  1.1452  0.3022 -1.8070
35020SOL    HW212301   4.928  11.562   4.524  0.4688  0.4454  0.4306
35021SOL     OW12302   4.974   3.667   0.133 -0.1969  0.1495  0.7605
35021SOL    HW112303   4.920   3.591   0.156 -0.0171 -0.4507 -0.6663
35021SOL    HW212304   5.053   3.657   0.187  0.9440 -2.1148 -1.0864
35022SOL     OW12305   8.870   0.730  12.500 -0.2908  0.8266  0.1898
35022SOL    HW112306   8.963   0.750  12.506 -0.4118  1.2265  0.8166
35022SOL    HW212307   8.855   0.664  12.568 -0.0075 -1.0890 -1.4725
35023SOL     OW12308   9.110   4.731  10.249  0.0109 -0.8154 -0.5300
35023SOL    HW112309   9.167   4.774  10.186 -1.0912  1.6784  0.0296
35023SOL    HW212310   9.041   4.691  10.197  0.6981 -1.3764 -1.0298
35024SOL     OW12311   8.193   0.785   5.811  0.7368 -0.0505  0.6021
35024SOL    HW112312   8.201   0.878   5.831  1.5226 -0.1737  0.8963
35024SOL    HW212313   8.164   0.745   5.893 -0.5815  0.0511  0.2143
35025SOL     OW12314   2.649   0.209   7.714 -0.0862 -0.2924  0.0562
35025SOL    HW112315   2.727   0.263   7.703 -0.4012  0.2109  0.2821
35025SOL    HW212316   2.653   0.146   7.641 -0.9851  1.5860 -1.7282
35026SOL     OW12317   3.766   9.196   8.379 -0.2467  0.1405 -0.4843
35026SOL    HW112318   3.704   9.257   8.339  0.5476  1.2269 -0.1271
35026SOL    HW212319   3.845   9.205   8.327 -0.1535 -0.6808 -0.4872
35027SOL     OW12320  12.308   6.249  11.268  0.2405  0.9859  0.1362
35027SOL    HW112321  12.376   6.231  11.204 -1.0779 -2.6046 -0.4693
35027SOL    HW212322  12.240   6.295  11.218  0.5362  1.0024 -0.2540
35028SOL     OW12323   1.161   1.084   7.062 -0.2357 -0.0072 -0.6491
35028SOL    HW112324   1.224   1.020   7.094 -1.6831 -0.8972  0.5239
35028SOL    HW212325   1.213   1.145   7.009  1.8517  0.1288  1.4256
35029SOL     OW12326   6.127  12.182   7.331 -0.2436 -0.3898 -0.1225
35029SOL    HW112327   6.063  12.244   7.298 -0.4480 -0.0237  0.9312
35029SOL    HW212328   6.200  12.237   7.361  0.0842 -0.7348 -0.2797
35030SOL     OW12329   1.472   2.738   0.127 -0.0611  0.2037 -0.0143
35030SOL    HW112330   1.422   2.799   0.181  0.8263  1.3482 -0.4364
35030SOL    HW212331   1.560   2.775   0.125  0.6994 -1.5178  0.3281
35031SOL     OW12332   7.517   4.095   9.626  0.0905  0.0812  0.9004
35031SOL    HW112333   7.554   4.131   9.707  1.5869 -0.3176  0.4257
35031SOL    HW212334   7.593   4.061   9.578 -0.6241  1.2591 -1.1616
35032SOL     OW12335   0.637   9.508   4.055  0.8601  0.4081  0.4827
35032SOL    HW112336   0.637   9.462   4.139  0.0704  2.4292  1.6427
35032SOL    HW212337   0.547   9.541   4.046  0.2389 -1.6540 -2.2857
35033SOL     OW12338   9.153   8.181   1.644  0.2241  0.8845  0.3770
35033SOL    HW112339   9.195   8.265   1.662  1.2119  0.8075 -1.3581
35033SOL    HW212340   9.063   8.192   1.676  0.7383  2.0763  1.4977
35034SOL     OW12341   3.760   0.389   3.292 -0.4868 -0.2076 -0.0364
35034SOL    HW112342   3.804   0.420   3.213  0.8242 -1.5187  0.1340
35034SOL    HW212343   3.729   0.468   3.335  0.9808  0.7161 -0.6020
35035SOL     OW12344   3.893  12.403   5.475 -0.1895  0.0030 -0.1102
35035SOL    HW112345   3.891  12.308   5.483 -0.1623  0.1125  1.5446
35035SOL    HW212346   3.918  12.419   5.384 -1.5591 -1.5489 -0.7968
35036SOL     OW12347  12.331   9.497   7.331  0.4151 -0.0943 -0.0357
35036SOL    HW112348  12.408   9.528   7.378  1.3593 -0.7934 -1.0759
35036SOL    HW212349  12.300   9.422   7.382 -0.1476  0.7305  0.8785
35037SOL     OW12350   9.217   2.984  11.371 -0.4208 -0.0187  0.1008
35037SOL    HW112351   9.234   2.920  11.302 -1.3756  0.1499 -0.3057
35037SOL    HW212352   9.171   3.056  11.327 -2.6583 -0.6717  1.1836
35038SOL     OW12353   2.454   7.198   7.571  0.7847  0.3209  0.3514
35038SOL    HW112354   2.500   7.250   7.505  2.4097 -1.9504 -0.3935
35038SOL    HW212355   2.519   7.137   7.604 -0.9882 -1.1683  1.2862
35039SOL     OW12356   7.633   3.084   2.231  0.3405  0.1015 -0.2338
35039SOL    HW112357   7.701   3.020   2.251  0.3629  0.2521  0.1793
35039SOL    HW212358   7.551   3.035   2.238  0.4132 -0.1206 -0.8969
35040SOL     OW12359   9.418   0.434   9.262  0.0436 -0.0997  0.0540
35040SOL    HW112360   9.467   0.427   9.344  1.4829 -0.9231 -0.8273
35040SOL    HW212361   9.417   0.345   9.227  1.2399  0.5343 -1.7797
35041SOL     OW12362  10.296  12.564   5.580 -0.0765  0.9198 -0.4358
35041SOL    HW112363  10.288  12.616   5.660  1.4258  1.8242 -0.8398
35041SOL    HW212364  10.308  12.629   5.510 -0.0662  0.0906 -1.2188
35042SOL     OW12365   5.322   0.550   9.905 -0.1667  0.1037 -0.0260
35042SOL    HW112366   5.411   0.560   9.871  0.1047 -0.8622  0.3579
35042SOL    HW212367   5.320   0.604   9.984 -0.0762  0.5293 -0.3155
35043SOL     OW12368   7.505   2.923   4.536  0.4687 -0.0979 -0.1998
35043SOL    HW112369   7.494   2.831   4.516 -0.0340  0.0687 -0.7134
35043SOL    HW212370   7.435   2.967   4.487 -1.9798  0.2002  3.2430
35044SOL     OW12371   7.909   9.479   0.899  0.1507  0.1334 -0.0348
35044SOL    HW112372   7.863   9.563   0.901 -0.6967 -0.3262  0.5060
35044SOL    HW212373   7.840   9.413   0.892  0.7915 -0.5345 -0.2900
35045SOL     OW12374   3.943  12.614   0.611 -0.2360 -0.0658  0.1930
35045SOL    HW112375   3.859  12.617   0.657 -0.9863  2.3474 -1.1434
35045SOL    HW212376   3.922  12.571   0.528 -0.5395  1.6959 -0.6995
35046SOL     OW12377  10.890   2.135   6.232 -0.2185  0.2629  0.0422
35046SOL    HW112378  10.818   2.184   6.190  0.0875 -0.4656 -1.3990
35046SOL    HW212379  10.869   2.043   6.215  0.5707  0.0069  0.4281
35047SOL     OW12380   8.549   0.781   5.696  0.4694 -0.2175 -0.2204
35047SOL    HW112381   8.544   0.689   5.670  0.5600 -0.4846  0.6996
35047SOL    HW212382   8.534   0.781   5.790 -1.0926  0.8702 -0.4394
35048SOL     OW12383   8.467   4.218   8.479 -0.3418 -0.3404  0.0454
35048SOL    HW112384   8.422   4.133   8.479 -0.6937 -0.1677 -1.4501
35048SOL    HW212385   8.417   4.270   8.542 -1.4521 -0.5775 -0.6010
35049SOL     OW12386   4.880   4.535  12.256 -0.2295  0.0544  0.1158
35049SOL    HW112387   4.801   4.555  12.205  0.1973  1.7214  0.0502
35049SOL    HW212388   4.859   4.564  12.345 -0.1470 -0.7197  0.3958
35050SOL     OW12389   6.783  11.446   9.534 -0.3192 -0.4440 -0.1270
35050SOL    HW112390   6.847  11.517   9.531  1.0263 -1.5511  0.8248
35050SOL    HW212391   6.698  11.489   9.529  0.3795  1.4154  2.1558
35051SOL     OW12392   2.284   5.153   1.997 -0.0538 -0.6163  0.0460
35051SOL    HW112393   2.358   5.141   2.056  1.0494 -0.8510 -1.3297
35051SOL    HW212394   2.265   5.065   1.964  0.9545 -0.2099 -1.7715
35052SOL     OW12395   9.709   4.562   2.455  0.1150  0.0371  0.3424
35052SOL    HW112396   9.723   4.468   2.470  3.0633  0.0897 -1.3639
35052SOL    HW212397   9.725   4.602   2.540 -1.5658 -0.9663  1.1974
35053SOL     OW12398   9.391   9.470   9.283  0.0571  0.1284 -0.0938
35053SOL    HW112399   9.407   9.538   9.216 -1.2727  1.2932  0.7086
35053SOL    HW212400   9.422   9.389   9.243  0.5188  1.0080 -1.6032
35054SOL     OW12401   8.709   7.501   4.555 -0.0156  0.3597  0.5191
35054SOL    HW112402   8.768   7.477   4.484 -0.3463  3.0102 -0.7560
35054SOL    HW212403   8.652   7.568   4.518 -2.3559 -0.4535  2.3819
35055SOL     OW12404   7.867   8.241   5.121 -0.1816 -1.1347 -0.4820
35055SOL    HW112405   7.915   8.180   5.064 -1.0266 -1.8338 -0.4530
35055SOL    HW212406   7.776   8.212   5.117 -0.2784 -1.1195  1.1439
35056SOL     OW12407   8.326  12.144   9.592 -0.5004  0.1933  0.0965
35056SOL    HW112408   8.238  12.135   9.627 -0.5619 -0.7309 -0.2582
35056SOL    HW212409   8.317  12.121   9.499  0.2760 -0.9720  0.2771
35057SOL     OW12410  10.528   0.125   1.937  0.2273 -0.4053 -0.3519
35057SOL    HW112411  10.542   0.031   1.943 -0.5806 -0.4638  1.1293
35057SOL    HW212412  10.445   0.140   1.983  0.4491  1.0502 -0.3846
35058SOL     OW12413   9.239   1.990   2.115 -0.2039 -0.5958 -0.3926
35058SOL    HW112414   9.152   1.984   2.157  0.1282  0.1646  0.4455
35058SOL    HW212415   9.250   1.906   2.071 -0.3376 -1.7069  1.5700
35059SOL     OW12416   8.672   9.156   0.774 -0.2752 -0.1918  0.0115
35059SOL    HW112417   8.613   9.140   0.700 -0.6618  3.1015 -0.5061
35059SOL    HW212418   8.737   9.085   0.767 -1.4865 -1.2020 -2.1865
35060SOL     OW12419   8.283  10.823  12.079 -0.0084  0.8595 -0.1710
35060SOL    HW112420   8.197  10.849  12.111 -0.9848 -0.5831 -1.4679
35060SOL    HW212421   8.274  10.730  12.057  1.6123  0.8828 -1.1620
35061SOL     OW12422  11.372   9.282  11.637 -0.0875 -0.0748 -0.1635
35061SOL    HW112423  11.413   9.253  11.718  0.2689 -0.3114 -0.4193
35061SOL    HW212424  11.414   9.229  11.569  0.1148  0.5912 -0.5726
35062SOL     OW12425   4.319   1.023   5.427 -0.4042 -0.1352 -0.0921
35062SOL    HW112426   4.295   1.054   5.340 -0.0060 -0.6321 -0.3869
35062SOL    HW212427   4.239   0.983   5.461 -0.6070  0.2123 -0.1605
35063SOL     OW12428   0.908   6.714   3.697  0.0066 -0.1182 -0.8440
35063SOL    HW112429   0.839   6.780   3.685 -1.0205 -1.1416 -0.7877
35063SOL    HW212430   0.866   6.646   3.750  1.2629 -0.4884 -0.3007
35064SOL     OW12431  12.013   9.377   5.080  0.0483 -0.4888 -0.0224
35064SOL    HW112432  11.931   9.426   5.087  1.2809  1.6835  0.0437
35064SOL    HW212433  12.081   9.440   5.103  1.6971 -2.5205  0.9675
35065SOL     OW12434   7.984   7.011  12.412 -0.1980 -0.1611 -0.3518
35065SOL    HW112435   8.011   6.952  12.341  3.9092 -0.1681  0.9959
35065SOL    HW212436   8.017   7.097  12.385  1.8643 -0.2509  1.6328
35066SOL     OW12437   2.038   5.498   8.930 -0.4715  0.1089 -0.5223
35066SOL    HW112438   2.107   5.537   8.877  0.9477  0.3042  1.3731
35066SOL    HW212439   1.981   5.571   8.954  0.5185  0.5523  0.5690
35067SOL     OW12440   3.062   3.446   5.972 -0.0559 -0.2823 -0.0380
35067SOL    HW112441   2.990   3.494   5.930 -2.1728 -1.9811  1.4401
35067SOL    HW212442   3.031   3.355   5.977  0.7794 -0.5202  3.5069
35068SOL     OW12443   7.388  10.436   9.676 -0.7171  0.3524  0.6805
35068SOL    HW112444   7.363  10.448   9.584 -1.5677  0.3344  0.8962
35068SOL    HW212445   7.483  10.428   9.674 -0.8359 -1.5459 -0.4132
35069SOL     OW12446   8.984   3.962   5.736  0.3314 -0.2974  0.2598
35069SOL    HW112447   9.032   3.959   5.653  1.7615  1.8873  0.9016
35069SOL    HW212448   8.892   3.959   5.711  0.7163  0.8886 -1.4896
35070SOL     OW12449   8.625   3.412   2.577 -0.3158 -0.2935 -0.3121
35070SOL    HW112450   8.559   3.473   2.610 -1.4468 -1.2194 -0.7593
35070SOL    HW212451   8.698   3.467   2.551  0.2985  0.5790  2.8222
35071SOL     OW12452   0.958   8.681   4.076  0.2639 -0.0278 -0.0723
35071SOL    HW112453   0.893   8.631   4.124 -0.7944 -0.1821 -1.5829
35071SOL    HW212454   0.909   8.720   4.003  1.6233  0.8659 -0.5428
35072SOL     OW12455   6.219   2.532   2.980  0.2312  0.5283 -0.1260
35072SOL    HW112456   6.197   2.498   2.893  2.3587 -1.0406 -0.1370
35072SOL    HW212457   6.155   2.489   3.038  0.2278 -0.2313 -0.6653
35073SOL     OW12458   0.827   9.970  11.660  0.3394 -0.1178 -0.1853
35073SOL    HW112459   0.855   9.878  11.653  0.2741 -0.2670  1.1749
35073SOL    HW212460   0.868  10.013  11.585 -1.0303 -1.5644 -1.8476
35074SOL     OW12461   2.861   4.327   4.999  0.2262 -0.0137  0.2601
35074SOL    HW112462   2.807   4.381   4.941  0.8010 -0.0504 -0.3221
35074SOL    HW212463   2.893   4.388   5.066  0.7373  0.3388 -0.2979
35075SOL     OW12464   3.450   1.463  11.138 -0.6594 -0.0904 -0.3391
35075SOL    HW112465   3.355   1.469  11.129 -0.5980  1.9688 -0.0597
35075SOL    HW212466   3.484   1.511  11.062  0.1956 -1.4093 -0.8190
35076SOL     OW12467   3.168   5.964   4.538 -0.1354  0.1879  0.8489
35076SOL    HW112468   3.075   5.961   4.518 -0.3214 -2.2705  1.7590
35076SOL    HW212469   3.174   6.019   4.616 -0.6500  1.2468  0.1685
35077SOL     OW12470   9.090   0.655   6.021  0.3494  0.2972 -0.0449
35077SOL    HW112471   9.012   0.702   5.990  0.4564  0.0562 -0.7054
35077SOL    HW212472   9.162   0.717   6.006  0.5897 -0.3049 -1.5773
35078SOL     OW12473   8.107   3.395   2.983  0.4214 -0.1472  0.0357
35078SOL    HW112474   8.133   3.485   2.966  1.4361 -0.3916  0.2248
35078SOL    HW212475   8.017   3.401   3.016 -0.4399  0.5803 -2.2798
35079SOL     OW12476  11.597  11.630   8.896  0.3836  0.0677 -0.2826
35079SOL    HW112477  11.527  11.695   8.896  0.5865  0.2985 -1.0123
35079SOL    HW212478  11.588  11.585   8.980 -1.6750 -1.0197 -1.0003
35080SOL     OW12479   0.228   6.882   8.610 -0.2014  0.3208 -0.3543
35080SOL    HW112480   0.195   6.921   8.529 -1.8852  0.0498  0.1700
35080SOL    HW212481   0.281   6.952   8.650 -0.7311  1.0288 -0.8665
35081SOL     OW12482   9.151   2.026   4.169  0.4907  0.7882  0.4343
35081SOL    HW112483   9.086   1.959   4.188  1.2254 -0.1857 -0.3861
35081SOL    HW212484   9.121   2.103   4.218 -1.1129  0.2907  0.3093
35082SOL     OW12485   9.397   2.956   3.455 -0.7938  0.0137 -0.1970
35082SOL    HW112486   9.449   2.898   3.400 -1.0165 -0.3276 -0.0567
35082SOL    HW212487   9.422   3.044   3.429 -1.9092 -0.1050 -1.8336
35083SOL     OW12488   1.317   2.054   1.822  0.1903 -0.4626 -0.4094
35083SOL    HW112489   1.230   2.045   1.862  0.1878  0.1854 -0.2551
35083SOL    HW212490   1.317   2.142   1.783  1.1358 -0.0232  0.5096
35084SOL     OW12491   0.893  12.451  12.158  0.5040 -0.1261  0.2060
35084SOL    HW112492   0.816  12.393  12.152  0.2188  0.2543  0.1361
35084SOL    HW212493   0.908  12.479  12.068 -0.1024  0.8557  0.3944
35085SOL     OW12494   3.404   6.068   5.243 -0.0712  0.4450 -0.1058
35085SOL    HW112495   3.460   6.009   5.293  0.4013 -0.1454 -1.2962
35085SOL    HW212496   3.448   6.078   5.158  0.0980  2.8503  0.1733
35086SOL     OW12497   6.176   2.216   0.187 -0.0433  0.1496  0.1078
35086SOL    HW112498   6.144   2.128   0.170  0.6101  0.1651 -1.3082
35086SOL    HW212499   6.270   2.210   0.173 -0.0482  1.1578 -0.4352
35087SOL     OW12500   3.448   8.076   6.384 -0.0901 -0.0876 -0.3955
35087SOL    HW112501   3.394   7.997   6.378 -0.3462 -0.1030  1.4426
35087SOL    HW212502   3.392   8.146   6.348 -0.2909 -0.5555 -0.9965
35088SOL     OW12503   2.967  11.549  10.014 -0.4083  0.5928 -0.2448
35088SOL    HW112504   3.015  11.624  10.050  0.9376 -0.2599 -0.1787
35088SOL    HW212505   2.945  11.496  10.090  2.2045 -1.0775 -0.5438
35089SOL     OW12506  11.040  10.535   0.123 -0.1064 -0.0072  0.3784
35089SOL    HW112507  11.078  10.622   0.111 -0.6083  0.4156  1.7201
35089SOL    HW212508  10.953  10.551   0.158  0.6321 -1.0449  2.8817
35090SOL     OW12509  11.779   8.733   6.623  0.2230 -0.6422  0.8015
35090SOL    HW112510  11.758   8.784   6.545  1.2816 -0.5529  0.5616
35090SOL    HW212511  11.705   8.748   6.682 -0.3145 -0.2532  0.0450
35091SOL     OW12512   1.040  11.880   0.538  0.5795 -0.0746 -0.3156
35091SOL    HW112513   0.951  11.848   0.552  1.3088 -2.5186 -0.8345
35091SOL    HW212514   1.028  11.958   0.484 -1.3758  1.6342  2.3372
35092SOL     OW12515   8.061  10.556   1.766 -0.0224  0.1395 -0.0705
35092SOL    HW112516   8.049  10.590   1.855  0.0152 -0.2510  0.0846
35092SOL    HW212517   8.001  10.608   1.713  0.5947  0.9872  0.0297
35093SOL     OW12518   2.684   5.474   7.021  0.2312  0.6193 -0.0895
35093SOL    HW112519   2.598   5.515   7.030  0.8962  1.9793  0.3320
35093SOL    HW212520   2.746   5.547   7.019  1.2473 -0.1851 -2.6475
35094SOL     OW12521   6.412   6.342   1.901  0.3355 -0.0825 -0.2555
35094SOL    HW112522   6.367   6.405   1.956 -3.2165 -1.7619 -0.9924
35094SOL    HW212523   6.443   6.393   1.826 -2.8677  0.8320 -1.0806
35095SOL     OW12524   9.914   3.931   3.839  0.0516 -0.3460  0.2925
35095SOL    HW112525  10.002   3.893   3.846  0.0558 -0.5915 -0.8733
35095SOL    HW212526   9.874   3.885   3.765 -1.1096 -0.3264  0.8811
35096SOL     OW12527   3.900   9.937  11.402 -0.2548  0.7778  0.5773
35096SOL    HW112528   3.887   9.915  11.309 -2.5050 -1.9213  1.4134
35096SOL    HW212529   3.991   9.911  11.420  0.7258  2.6965 -1.1075
35097SOL     OW12530  11.640  11.126   0.320 -0.5548 -0.5278 -0.6861
35097SOL    HW112531  11.597  11.101   0.238 -0.1405 -2.3005 -0.4190
35097SOL    HW212532  11.734  11.120   0.301 -0.4139  1.2772 -0.6908
35098SOL     OW12533   2.175   2.719   8.331 -0.4428  0.6806 -0.2919
35098SOL    HW112534   2.199   2.629   8.355 -0.7425  0.1319 -1.9192
35098SOL    HW212535   2.090   2.733   8.372 -0.4665  0.1649 -0.1604
35099SOL     OW12536   6.657   3.195  10.186 -0.0835 -0.1591 -0.0827
35099SOL    HW112537   6.581   3.245  10.156  0.5293  0.2018 -1.0828
35099SOL    HW212538   6.667   3.220  10.278  0.4238  1.8706 -0.6446
35100SOL     OW12539  11.753   4.054   8.504 -0.2549 -0.3064  0.0750
35100SOL    HW112540  11.716   4.053   8.593  1.9072  1.0750  1.0809
35100SOL    HW212541  11.834   4.004   8.512 -0.1562 -0.3628 -1.1844
35101SOL     OW12542  12.422   8.082  12.330  0.4852  0.0290  0.3929
35101SOL    HW112543  12.455   8.171  12.337 -0.7442  0.6894 -1.4377
35101SOL    HW212544  12.395   8.059  12.419 -0.3123  1.9512  0.6864
35102SOL     OW12545  11.272   9.467   1.030 -0.0090 -0.3161  0.0233
35102SOL    HW112546  11.188   9.498   1.063 -0.9046  0.5679 -2.7435
35102SOL    HW212547  11.301   9.537   0.971  1.6035 -1.5467 -0.7176
35103SOL     OW12548   7.861   1.789  12.222 -0.2576  0.4395  0.0519
35103SOL    HW112549   7.918   1.722  12.183 -0.0479  0.6115  0.0647
35103SOL    HW212550   7.907   1.817  12.301  0.9328  2.4497 -1.2680
35104SOL     OW12551   0.371   2.890   7.834  0.0955  0.5939  0.2025
35104SOL    HW112552   0.449   2.882   7.890 -0.1314 -0.3177  0.3998
35104SOL    HW212553   0.301   2.913   7.895  0.4731  3.0124 -0.1741
35105SOL     OW12554  11.960   5.661   6.124  0.2226  0.1303 -0.4036
35105SOL    HW112555  11.902   5.735   6.146 -1.6898 -1.0062 -1.3713
35105SOL    HW212556  12.031   5.667   6.189 -0.4793  2.1144  0.2729
35106SOL     OW12557  12.262   5.641   7.378 -0.5392  0.1125 -0.1408
35106SOL    HW112558  12.226   5.728   7.363  2.0761  1.1487 -0.9934
35106SOL    HW212559  12.293   5.612   7.291  0.9752 -0.5088  0.5706
35107SOL     OW12560   5.191   8.499   4.434  0.6198  0.2703  0.3475
35107SOL    HW112561   5.186   8.404   4.444  0.7219  0.2448  0.1551
35107SOL    HW212562   5.237   8.528   4.513  0.0865  0.2174  0.6842
35108SOL     OW12563   2.505   9.117   2.780 -0.3374 -0.0894 -0.4402
35108SOL    HW112564   2.576   9.113   2.844 -1.2144 -0.4139  0.5351
35108SOL    HW212565   2.528   9.050   2.715  0.7018  0.4352 -0.6241
35109SOL     OW12566  12.420   2.138   4.682  1.0550 -0.1771  0.2290
35109SOL    HW112567  12.492   2.183   4.638  0.0201 -0.7508 -2.2556
35109SOL    HW212568  12.361   2.113   4.611 -1.4489 -0.0183  2.1146
35110SOL     OW12569  12.036   4.930  12.079 -0.4433  0.1864  0.1662
35110SOL    HW112570  11.950   4.899  12.108  0.3520 -1.6778  0.6936
35110SOL    HW212571  12.070   4.981  12.152 -1.0255  0.8293  0.0017
35111SOL     OW12572   2.800   8.685   9.376 -0.2452  0.5108  0.0554
35111SOL    HW112573   2.836   8.638   9.451  0.7533  0.9561 -0.1391
35111SOL    HW212574   2.872   8.692   9.314 -0.3225  2.3683  0.1046
35112SOL     OW12575   5.805   6.140   1.404  0.1584  0.4742 -0.3230
35112SOL    HW112576   5.811   6.090   1.485  1.7773  1.5620  0.2677
35112SOL    HW212577   5.722   6.113   1.366  0.2344 -1.4651  0.7481
35113SOL     OW12578   8.121   3.368   3.827  0.6354 -0.0342  0.0687
35113SOL    HW112579   8.181   3.435   3.797  0.3376  0.7169  1.0821
35113SOL    HW212580   8.156   3.286   3.791  0.4417  0.7448 -2.0114
35114SOL     OW12581   8.656  10.701   6.119  0.2494  0.0814 -0.3107
35114SOL    HW112582   8.584  10.672   6.174 -0.1346 -1.6942 -1.6836
35114SOL    HW212583   8.637  10.665   6.032  2.0998  0.7111 -1.0307
35115SOL     OW12584  11.224   2.457   0.241 -0.0837  0.2754 -0.2324
35115SOL    HW112585  11.197   2.487   0.154 -1.9920  0.5567  0.4216
35115SOL    HW212586  11.187   2.521   0.302 -0.6611 -1.1029  0.9215
35116SOL     OW12587   5.220   0.389   9.565  0.2306  0.0461 -0.4818
35116SOL    HW112588   5.153   0.404   9.631 -0.4788  0.1242 -1.2002
35116SOL    HW212589   5.228   0.472   9.519  2.7378  0.8972  1.2581
35117SOL     OW12590   9.940   0.146   8.210  0.3133  0.9105  0.4076
35117SOL    HW112591   9.947   0.102   8.125  2.8967  0.8883  0.5723
35117SOL    HW212592   9.920   0.237   8.188  1.3297  0.9819 -0.2585
35118SOL     OW12593   8.236   7.405   8.603  0.1253  0.8068  0.7348
35118SOL    HW112594   8.321   7.366   8.625  0.1798  0.2543 -0.3704
35118SOL    HW212595   8.258   7.486   8.558  0.0831  0.6634  0.4490
35119SOL     OW12596   3.583  10.272  12.499  0.6740 -0.7928  0.2694
35119SOL    HW112597   3.568  10.179  12.488 -0.0301 -0.8886  1.7925
35119SOL    HW212598   3.499  10.313  12.479  0.7638 -0.5531  0.3747
35120SOL     OW12599  10.076   6.435   0.130  0.5361  0.0668 -0.0527
35120SOL    HW112600  10.095   6.517   0.084  2.6386  0.5381  1.4618
35120SOL    HW212601   9.986   6.445   0.160  1.1536  2.5816  1.3674
35121SOL     OW12602   2.898   1.810   7.821  0.2176  0.4274 -0.4083
35121SOL    HW112603   2.920   1.764   7.903  0.9717 -1.1996 -1.4745
35121SOL    HW212604   2.932   1.898   7.833  0.0809  0.3067  1.1291
35122SOL     OW12605   6.192   7.141   1.670 -0.3145 -0.0940  0.0016
35122SOL    HW112606   6.134   7.064   1.664 -0.7070  0.2253 -0.3560
35122SOL    HW212607   6.177   7.189   1.589  1.6883 -0.8513 -0.8823
35123SOL     OW12608   1.995   3.342   1.915 -0.4494  0.3162  0.2882
35123SOL    HW112609   1.968   3.415   1.970  0.6599 -0.2828  1.6881
35123SOL    HW212610   2.020   3.383   1.832  2.2049  1.8913  1.7148
35124SOL     OW12611   0.943   9.279   1.326 -0.0646  0.0319 -0.2597
35124SOL    HW112612   0.986   9.348   1.275  1.5559 -0.6698  0.0875
35124SOL    HW212613   0.965   9.198   1.280  0.7532 -0.5356  1.0935
35125SOL     OW12614   5.188  11.990  11.391 -0.3089  0.0609  0.0243
35125SOL    HW112615   5.111  12.037  11.360 -0.3198  1.2449  1.7035
35125SOL    HW212616   5.260  12.025  11.338 -0.9345 -1.5161 -2.0001
35126SOL     OW12617   4.503  12.284   2.767 -0.0399  0.6011  0.1666
35126SOL    HW112618   4.496  12.281   2.862  0.3486 -0.7720  0.1732
35126SOL    HW212619   4.477  12.196   2.738 -0.4725  1.0914 -1.0272
35127SOL     OW12620   8.614   9.959  10.036 -0.9764 -0.0463  0.0704
35127SOL    HW112621   8.644   9.954  10.127 -1.0785 -1.5427  0.0322
35127SOL    HW212622   8.687   9.923   9.986 -0.2748  2.1683 -0.6228
35128SOL     OW12623   1.372   3.810   0.615  0.1391  0.0965 -0.3484
35128SOL    HW112624   1.357   3.901   0.642 -1.4177 -0.4066  0.6516
35128SOL    HW212625   1.355   3.758   0.694  3.2024 -0.9757 -0.2673
35129SOL     OW12626   9.943   9.742   9.411 -0.1919  0.3916 -0.2509
35129SOL    HW112627   9.917   9.649   9.407  1.5022 -0.2196  1.3517
35129SOL    HW212628  10.031   9.743   9.373 -0.2096  1.3611 -0.2729
35130SOL     OW12629   4.070   8.285   1.491 -0.1179 -0.6651 -0.4641
35130SOL    HW112630   3.987   8.239   1.504 -0.2179 -0.0046  1.6627
35130SOL    HW212631   4.047   8.366   1.446 -0.9552  0.3651  1.7070
35131SOL     OW12632   3.966   7.886   3.273 -0.2628  0.2522  0.2453
35131SOL    HW112633   3.893   7.898   3.212  0.7957 -0.0992 -1.1521
35131SOL    HW212634   4.044   7.907   3.221  0.9208 -2.6757  0.6385
35132SOL     OW12635   1.221   9.017   1.987  0.2906  0.5838  0.1394
35132SOL    HW112636   1.186   9.091   1.937  0.1192 -1.2330 -2.6405
35132SOL    HW212637   1.144   8.979   2.031 -0.2150  0.1653 -1.0712
35133SOL     OW12638   1.345  10.532   0.813  0.4063  0.1717 -0.3743
35133SOL    HW112639   1.319  10.597   0.879  0.5720  0.3419 -0.4743
35133SOL    HW212640   1.407  10.475   0.858  0.4523  0.2351 -0.3575
35134SOL     OW12641   5.073  10.885   8.705  0.2915 -0.4701 -0.3138
35134SOL    HW112642   5.148  10.825   8.712  1.4998  1.1456  2.3709
35134SOL    HW212643   5.103  10.953   8.644  0.2461 -0.8092 -0.7206
35135SOL     OW12644   9.192   7.084   8.515 -0.4663 -0.4712  0.6762
35135SOL    HW112645   9.229   7.114   8.598 -0.0431 -1.7061  0.9505
35135SOL    HW212646   9.267   7.053   8.465 -0.4195  2.0976 -1.0332
35136SOL     OW12647   1.127  11.101  10.824 -0.6140 -0.2034  0.8357
35136SOL    HW112648   1.073  11.047  10.881 -1.2012 -1.1661 -0.5664
35136SOL    HW212649   1.067  11.167  10.789 -0.5727 -0.4050  0.3698
35137SOL     OW12650  11.457   0.142  11.773 -0.1430 -0.1254 -0.2585
35137SOL    HW112651  11.501   0.165  11.691  1.4616 -0.1665  0.5583
35137SOL    HW212652  11.418   0.056  11.756 -0.0117 -0.0372 -1.0381
35138SOL     OW12653   1.596   5.361  10.416  0.2727  0.4988  0.6853
35138SOL    HW112654   1.560   5.273  10.403  2.6135 -0.7207  1.8372
35138SOL    HW212655   1.534   5.402  10.478  0.7451 -1.5369  2.6610
35139SOL     OW12656  12.192  12.578  10.970 -0.5528  0.3888  0.7699
35139SOL    HW112657  12.226  12.524  10.899 -0.3762 -0.6504  1.6163
35139SOL    HW212658  12.200  12.668  10.938 -0.9071 -0.0733 -0.6911
35140SOL     OW12659   1.680   2.223   6.216  0.4377 -0.8159 -0.3385
35140SOL    HW112660   1.615   2.164   6.254  1.4437 -0.8071  1.5372
35140SOL    HW212661   1.758   2.169   6.204  0.5149 -0.5073 -1.2415
35141SOL     OW12662  12.590   3.855   8.105 -0.0308  0.4231 -0.3764
35141SOL    HW112663  12.548   3.897   8.180  1.1115  0.2936  0.3600
35141SOL    HW212664  12.599   3.763   8.130  1.3920  0.5952 -0.1650
35142SOL     OW12665   2.211   3.930  12.099 -0.2390 -0.2093 -0.2507
35142SOL    HW112666   2.159   3.859  12.137 -1.5582  0.5306 -0.6235
35142SOL    HW212667   2.165   4.010  12.123  0.8683  0.4917 -0.3950
35143SOL     OW12668  10.524   6.617   5.168 -0.0334  0.0433 -0.0474
35143SOL    HW112669  10.520   6.527   5.202  2.6875 -0.3463 -0.5529
35143SOL    HW212670  10.438   6.631   5.129 -0.3862 -2.5262 -0.3982
35144SOL     OW12671   4.710  10.367   5.452  0.2162 -0.0518  1.0063
35144SOL    HW112672   4.785  10.313   5.426 -0.4594 -0.7958  0.5602
35144SOL    HW212673   4.741  10.414   5.530  1.5031  0.4871  0.2003
35145SOL     OW12674   5.693  11.803   1.617  0.4868  0.1751 -0.1623
35145SOL    HW112675   5.752  11.734   1.649 -0.1843  0.1383  1.0779
35145SOL    HW212676   5.625  11.809   1.685 -0.7901  0.3987 -1.4188
35146SOL     OW12677  10.510  10.652  10.566 -0.0954  0.2254 -0.0681
35146SOL    HW112678  10.588  10.707  10.573  0.8231 -1.1225  0.7029
35146SOL    HW212679  10.538  10.577  10.514 -1.2344  0.2897 -0.8157
35147SOL     OW12680   1.988   2.973   2.424  0.1575  0.5692 -0.5568
35147SOL    HW112681   1.965   3.033   2.354  2.7913  0.4048 -1.6787
35147SOL    HW212682   1.965   2.886   2.391  0.2819  0.5913 -0.6973
35148SOL     OW12683   3.319   6.182   0.875 -0.3591 -0.3929  0.1437
35148SOL    HW112684   3.368   6.261   0.850 -0.5530 -0.0341  0.8636
35148SOL    HW212685   3.232   6.195   0.838 -0.6974  0.2163  1.1063
35149SOL     OW12686   2.770   4.348   9.387 -0.1573  0.1590 -0.0525
35149SOL    HW112687   2.793   4.425   9.335 -0.7649  0.3216 -0.0781
35149SOL    HW212688   2.695   4.375   9.439  1.0742  0.3545  1.7255
35150SOL     OW12689  10.949   0.836  11.112 -0.4310 -0.4591 -0.2499
35150SOL    HW112690  10.997   0.779  11.172 -0.1483  0.1092  0.0734
35150SOL    HW212691  11.015   0.898  11.079 -0.5571 -0.8266 -1.2339
35151SOL     OW12692   0.797   9.557   7.654  0.1255 -0.1238 -0.0703
35151SOL    HW112693   0.889   9.584   7.655 -0.3426  1.5856 -0.0611
35151SOL    HW212694   0.795   9.476   7.706  1.2884  0.9937  1.8431
35152SOL     OW12695  10.540  11.247   7.876  0.1509  0.4655 -0.4897
35152SOL    HW112696  10.464  11.265   7.820 -0.1285  2.2235  0.4062
35152SOL    HW212697  10.564  11.332   7.912  1.5187 -0.3379  0.5661
35153SOL     OW12698   9.522  12.120   0.738  0.3901 -0.1292 -0.4700
35153SOL    HW112699   9.579  12.186   0.778  1.0379 -0.2280 -1.1966
35153SOL    HW212700   9.443  12.168   0.714  0.4879  0.1874 -0.1777
35154SOL     OW12701   7.333   6.222  11.632  0.1959 -0.2499  0.8927
35154SOL    HW112702   7.322   6.313  11.604  2.0591 -0.4481 -0.6666
35154SOL    HW212703   7.336   6.172  11.551  3.0337 -1.2052  1.4927
35155SOL     OW12704   7.783   6.911   4.268 -0.6655  1.0616 -0.3722
35155SOL    HW112705   7.782   6.847   4.196 -2.7448  1.0210 -0.3845
35155SOL    HW212706   7.793   6.995   4.224  2.7773  0.8127 -0.3109
35156SOL     OW12707   7.026   4.707   6.195  0.2534 -0.1181  0.2126
35156SOL    HW112708   7.059   4.713   6.105 -1.2421 -2.4164 -0.5922
35156SOL    HW212709   6.932   4.693   6.185  0.0263 -0.2957  2.1621
35157SOL     OW12710   6.627   5.476   5.183 -0.2737 -0.2701  0.1064
35157SOL    HW112711   6.679   5.524   5.118  0.0575  0.3552  0.8279
35157SOL    HW212712   6.538   5.510   5.173 -0.1268  0.1729  0.3151
35158SOL     OW12713   6.485   0.615   7.869  0.0456 -0.4777 -0.0388
35158SOL    HW112714   6.492   0.709   7.884  0.1793 -0.5784  0.5665
35158SOL    HW212715   6.391   0.598   7.864  0.0332 -0.2468 -0.6034
35159SOL     OW12716   4.787   5.356   6.253 -0.1454 -0.1349  0.1766
35159SOL    HW112717   4.751   5.323   6.335 -1.7851  1.0170 -0.0354
35159SOL    HW212718   4.748   5.302   6.185 -0.5243  0.3119  0.0296
35160SOL     OW12719   8.185   0.271   6.522 -0.3347 -0.0016 -0.2787
35160SOL    HW112720   8.090   0.261   6.527 -0.1855 -2.0386 -0.4962
35160SOL    HW212721   8.214   0.267   6.613 -0.4640  1.1658 -0.1657
35161SOL     OW12722  10.697   8.907   0.884  0.0439 -0.7487 -0.3473
35161SOL    HW112723  10.675   8.864   0.802 -0.9330 -0.1922 -0.3926
35161SOL    HW212724  10.629   8.878   0.945 -0.3059  0.2981 -0.2337
35162SOL     OW12725   1.320   1.848   6.941  0.0172 -0.1662 -0.3195
35162SOL    HW112726   1.238   1.896   6.931  1.0254  1.7082 -0.1379
35162SOL    HW212727   1.334   1.807   6.856 -1.0238 -0.3766 -0.3995
35163SOL     OW12728   4.925   0.153   3.695  0.0506 -0.6130  0.3930
35163SOL    HW112729   4.878   0.197   3.624 -0.0776 -1.5359 -0.0956
35163SOL    HW212730   4.959   0.073   3.656  1.4489 -0.3153  0.9192
35164SOL     OW12731   2.372  10.212   9.955  0.2133  0.1560  0.2412
35164SOL    HW112732   2.391  10.192  10.046  0.4020 -0.6632  0.0329
35164SOL    HW212733   2.439  10.277   9.930 -0.6140  1.3393  1.0256
35165SOL     OW12734   4.444  12.294   6.517 -0.1076  0.1141 -0.3137
35165SOL    HW112735   4.473  12.250   6.437 -0.4646 -1.5991  0.4533
35165SOL    HW212736   4.482  12.382   6.511  0.0630 -0.0442 -2.2412
35166SOL     OW12737  12.238   0.117   2.408 -0.0028 -0.1093 -0.8793
35166SOL    HW112738  12.322   0.109   2.362  0.4378  1.3543 -0.3686
35166SOL    HW212739  12.234   0.209   2.435 -1.8050 -0.1479 -0.9400
35167SOL     OW12740  12.355   8.803   6.846  0.5065  0.3782  0.6785
35167SOL    HW112741  12.389   8.713   6.843  0.9912  0.5549  0.7517
35167SOL    HW212742  12.416   8.854   6.792 -0.2616  0.5138 -0.0838
35168SOL     OW12743  10.799   4.664   2.207 -0.3089  0.8919 -0.2122
35168SOL    HW112744  10.824   4.753   2.231  0.4574  0.5842  0.1564
35168SOL    HW212745  10.882   4.618   2.195 -0.6326 -0.3771  1.8260
35169SOL     OW12746   4.444   0.079   2.027 -0.5709 -0.4499  0.5070
35169SOL    HW112747   4.355   0.113   2.028 -0.7622 -0.8881  2.6362
35169SOL    HW212748   4.499   0.156   2.014 -1.1693  0.1413  1.3857
35170SOL     OW12749   3.532  11.506   4.208  0.1533 -0.0445 -0.1849
35170SOL    HW112750   3.568  11.418   4.201 -0.0701 -0.1145 -0.4833
35170SOL    HW212751   3.469  11.500   4.280 -0.4667 -0.3429 -0.7426
35171SOL     OW12752   7.811   1.842  10.060  0.2888  0.1322 -0.2809
35171SOL    HW112753   7.779   1.782  10.128  1.8580  0.2730  0.6365
35171SOL    HW212754   7.872   1.789  10.009 -0.0410  0.3416 -0.8971
35172SOL     OW12755   6.358  11.873   2.376  0.9177  0.4871 -0.0918
35172SOL    HW112756   6.440  11.866   2.327 -0.2695 -0.9250 -2.0615
35172SOL    HW212757   6.348  11.787   2.417 -0.0056  0.2851 -0.6978
35173SOL     OW12758   8.793  12.533   8.013  0.1708 -0.7053  0.2419
35173SOL    HW112759   8.865  12.596   8.007  0.1886 -0.4954  2.0987
35173SOL    HW212760   8.715  12.583   7.986  0.2266  0.0687  1.4313
35174SOL     OW12761   8.698   5.832   5.593  0.1085 -0.1636 -0.2833
35174SOL    HW112762   8.665   5.867   5.511  1.4574  1.0478 -0.3457
35174SOL    HW212763   8.733   5.745   5.570  0.5200  0.1860 -1.0083
35175SOL     OW12764   7.597   3.854   6.593 -0.5276 -0.2556 -0.0882
35175SOL    HW112765   7.654   3.791   6.636 -0.4304  0.2697  0.5649
35175SOL    HW212766   7.549   3.803   6.527  0.7991 -0.6760 -0.7573
35176SOL     OW12767  11.387   6.181   4.700 -0.3049  0.0758  0.0283
35176SOL    HW112768  11.391   6.086   4.697  0.5569  0.1237 -1.1163
35176SOL    HW212769  11.354   6.201   4.787  1.2775 -1.2202  0.9682
35177SOL     OW12770   3.983  11.064   8.633  0.0415  0.4792 -0.4209
35177SOL    HW112771   4.013  10.975   8.652  1.6502  1.2466  0.9527
35177SOL    HW212772   3.951  11.097   8.718  0.1318  1.4366 -0.7463
35178SOL     OW12773   6.765   9.926  11.736  0.0176 -0.2213 -0.1897
35178SOL    HW112774   6.817  10.006  11.751  0.4488 -0.1494 -1.9315
35178SOL    HW212775   6.679   9.957  11.709  0.2424 -0.3335 -1.0544
35179SOL     OW12776  11.632   8.641   4.318 -0.5312  0.0760 -0.3469
35179SOL    HW112777  11.653   8.700   4.391  3.6037  0.3562 -1.5007
35179SOL    HW212778  11.647   8.553   4.352 -2.5117 -0.1202  0.1526
35180SOL     OW12779  12.258   1.580  11.372  0.9748 -0.0273  0.0722
35180SOL    HW112780  12.211   1.579  11.455  0.3155 -1.0013 -0.2967
35180SOL    HW212781  12.322   1.651  11.381 -0.1006  0.8731  0.8327
35181SOL     OW12782   5.188   6.289   3.468 -0.1955  0.1082  0.4536
35181SOL    HW112783   5.253   6.228   3.433 -1.6501 -0.8066 -0.7459
35181SOL    HW212784   5.235   6.337   3.536  1.8472 -0.2047 -0.6709
35182SOL     OW12785   0.866   4.048  11.698  0.1141  0.1126 -0.8084
35182SOL    HW112786   0.813   3.968  11.702  0.7654 -0.3478 -1.2276
35182SOL    HW212787   0.855   4.088  11.784  0.6978 -1.0240 -0.1772
35183SOL     OW12788  10.926   3.489   5.514  0.1712  0.2700 -0.5489
35183SOL    HW112789  10.914   3.399   5.486  0.0276 -0.1266  0.7193
35183SOL    HW212790  10.840   3.530   5.503 -0.0348 -0.0439 -0.1522
35184SOL     OW12791   0.284   1.051   0.841 -0.6024  0.2307 -0.0975
35184SOL    HW112792   0.219   1.111   0.805 -0.9104 -0.9677 -1.6535
35184SOL    HW212793   0.338   1.026   0.766  2.5244  2.0959  1.3030
35185SOL     OW12794   1.411  10.310  11.216  0.2621 -0.1001 -0.6261
35185SOL    HW112795   1.397  10.400  11.186 -0.8648 -0.2509 -0.5986
35185SOL    HW212796   1.419  10.317  11.311 -0.6992 -0.0984 -0.5272
35186SOL     OW12797   8.480   0.775   6.380  0.0950 -0.2001  0.0397
35186SOL    HW112798   8.448   0.830   6.453 -0.9977 -0.7816  0.0244
35186SOL    HW212799   8.402   0.727   6.351  1.3625 -3.4549  1.4964
35187SOL     OW12800   2.443   7.280   5.737  0.4629  0.2091  0.8848
35187SOL    HW112801   2.443   7.354   5.799  0.4569  0.5709  0.4553
35187SOL    HW212802   2.453   7.321   5.651 -0.9631 -0.1702  0.5035
35188SOL     OW12803   1.256   5.068   3.994 -0.2363 -0.1096 -0.2030
35188SOL    HW112804   1.242   4.980   4.029  1.4016 -0.4922 -0.4325
35188SOL    HW212805   1.347   5.067   3.962 -1.0413  0.8108 -2.7439
35189SOL     OW12806   7.647   6.702   2.555 -0.6207 -0.7182 -0.2825
35189SOL    HW112807   7.600   6.625   2.521 -0.3463 -1.2714  0.5702
35189SOL    HW212808   7.740   6.680   2.546 -0.4243  0.5900 -2.4721
35190SOL     OW12809   7.054   8.175  10.575  0.2227  0.7398  0.4445
35190SOL    HW112810   7.012   8.261  10.571 -0.1984  0.5520  0.8701
35190SOL    HW212811   7.012   8.130  10.648  1.6230  0.7927  1.3393
35191SOL     OW12812   3.021   6.772   2.338  0.1256 -0.1171 -0.5064
35191SOL    HW112813   3.018   6.678   2.322  0.5823 -0.3552  0.7252
35191SOL    HW212814   3.114   6.793   2.342  0.0659 -0.0761  1.6277
35192SOL     OW12815   1.796   4.846  12.492  0.5444  0.7464 -0.1501
35192SOL    HW112816   1.780   4.897  12.571  0.7358 -0.9248  1.0211
35192SOL    HW212817   1.844   4.769  12.522 -0.1590 -0.3775 -1.7451
35193SOL     OW12818  11.106   2.624   4.556 -0.0087 -0.0807 -0.0999
35193SOL    HW112819  11.034   2.578   4.515 -0.5123 -0.2993  0.9851
35193SOL    HW212820  11.150   2.671   4.485 -0.1744 -1.3188 -1.0322
35194SOL     OW12821   8.447   7.386   5.151  0.2027  0.7992  0.5610
35194SOL    HW112822   8.391   7.350   5.219  1.9608 -1.8026  0.7578
35194SOL    HW212823   8.411   7.352   5.069  1.2629 -0.7058  0.6736
35195SOL     OW12824   7.320   2.810  11.669  0.3977  0.5718 -0.0250
35195SOL    HW112825   7.316   2.830  11.576 -1.5518  1.1317  0.1228
35195SOL    HW212826   7.239   2.762  11.687  0.2234  1.3819  1.5510
35196SOL     OW12827   6.323   7.164   9.428  0.0668 -0.5649  0.3693
35196SOL    HW112828   6.321   7.079   9.473 -2.5304 -1.5463 -1.4100
35196SOL    HW212829   6.252   7.214   9.467  0.1628 -0.0268 -0.1267
35197SOL     OW12830   5.383   9.940   7.736  0.4772  0.6380  0.1557
35197SOL    HW112831   5.353   9.969   7.650 -0.8966  1.1697  0.7789
35197SOL    HW212832   5.478   9.949   7.733  0.4989  0.1185 -1.4819
35198SOL     OW12833   4.955  11.641   8.178  0.3624  0.2061 -0.5559
35198SOL    HW112834   4.896  11.633   8.103  0.8042  1.3947 -1.0667
35198SOL    HW212835   4.914  11.708   8.233  0.5966  0.1318 -0.2924
35199SOL     OW12836  11.972   2.909   6.131  0.6297 -0.0169  0.0444
35199SOL    HW112837  12.019   2.983   6.169 -0.6784  0.9326 -0.1197
35199SOL    HW212838  11.881   2.938   6.128  0.1719 -1.4474 -0.5052
35200SOL     OW12839  12.182  11.425   3.480 -0.2811 -0.3495 -0.0050
35200SOL    HW112840  12.193  11.360   3.549 -0.7684 -0.7827 -0.3237
35200SOL    HW212841  12.211  11.381   3.400  0.7502  0.3160 -0.0144
35201SOL     OW12842   0.061   0.804   3.335 -0.7269  0.0916  0.3018
35201SOL    HW112843   0.117   0.732   3.362 -1.4931 -0.9364 -0.7805
35201SOL    HW212844   0.093   0.879   3.385  0.3577 -0.8907  1.1290
35202SOL     OW12845   1.405  11.958   4.874  0.0639  0.1235 -0.5858
35202SOL    HW112846   1.444  12.044   4.892  1.5622 -0.5902 -0.3044
35202SOL    HW212847   1.337  11.948   4.940  0.0358  0.9791 -0.4714
35203SOL     OW12848  10.641   4.060   9.352  0.0492 -0.3356  0.4071
35203SOL    HW112849  10.621   4.147   9.385  0.4859  0.5047 -1.3835
35203SOL    HW212850  10.567   4.005   9.380 -2.2837  1.4996 -1.6969
35204SOL     OW12851   5.371   5.570   9.180  0.5376 -0.3424 -0.2157
35204SOL    HW112852   5.329   5.495   9.221  1.7191 -1.2539 -0.6401
35204SOL    HW212853   5.361   5.555   9.086  0.1689  0.4050 -0.3081
35205SOL     OW12854  10.955   5.976   8.976 -0.7472  0.4987 -0.1703
35205SOL    HW112855  10.929   5.885   8.990  0.9932  0.3871  3.7887
35205SOL    HW212856  11.038   5.971   8.929 -0.6832  0.0184 -0.0044
35206SOL     OW12857   2.296   8.430  10.403 -0.3714  0.1833  0.2271
35206SOL    HW112858   2.208   8.421  10.438 -0.4214  1.1843  0.4054
35206SOL    HW212859   2.306   8.357  10.342 -0.2201 -1.6980  2.4084
35207SOL     OW12860   3.647   1.884  11.491  0.0559 -0.2088  0.2207
35207SOL    HW112861   3.695   1.906  11.411 -1.7005 -0.2667 -0.9069
35207SOL    HW212862   3.682   1.800  11.519 -0.6916 -1.2064 -1.6963
35208SOL     OW12863   7.784  11.225   0.016  0.0959  0.9671 -0.1170
35208SOL    HW112864   7.713  11.188   0.069 -0.8316  1.5960 -0.8961
35208SOL    HW212865   7.778  11.180  -0.068  0.0367  1.6648 -0.4940
35209SOL     OW12866  10.363   3.664   1.123 -0.2500  0.1548 -0.8570
35209SOL    HW112867  10.328   3.657   1.212  0.1995 -0.5742 -0.7272
35209SOL    HW212868  10.355   3.757   1.102  0.5561  0.5252  0.3380
35210SOL     OW12869   6.075  11.394   2.293 -0.8501  0.0610 -0.3526
35210SOL    HW112870   6.020  11.368   2.219  0.1454  1.5850 -1.7039
35210SOL    HW212871   6.085  11.314   2.345 -3.8283 -0.3950 -0.3202
35211SOL     OW12872  11.692  11.552   9.890  0.4746 -0.4120  0.5274
35211SOL    HW112873  11.727  11.467   9.864  1.4922 -0.4632  1.9686
35211SOL    HW212874  11.713  11.610   9.816 -0.8019 -1.5136 -0.7507
35212SOL     OW12875  10.661  12.268   9.697  0.2013  0.1257  0.3987
35212SOL    HW112876  10.724  12.327   9.656 -0.4017  1.0575  0.7797
35212SOL    HW212877  10.659  12.191   9.640  1.0662  0.4316 -0.0566
35213SOL     OW12878   7.913   3.419   7.928  0.2104 -0.3855  0.1414
35213SOL    HW112879   7.882   3.402   8.016 -0.3258 -1.1553 -0.1835
35213SOL    HW212880   7.974   3.493   7.937 -0.4512  0.0607  1.0229
35214SOL     OW12881  12.158   6.398  10.652 -0.2265  0.1226  0.1805
35214SOL    HW112882  12.144   6.373  10.744 -0.5914 -0.8626 -0.1280
35214SOL    HW212883  12.153   6.316  10.604 -0.2051  0.6503 -0.7473
35215SOL     OW12884   7.955   1.688   8.682 -0.3990  0.1619  0.8003
35215SOL    HW112885   7.971   1.782   8.696  0.3665 -0.1100  1.8470
35215SOL    HW212886   8.008   1.666   8.606 -0.2985  0.5065  0.7664
35216SOL     OW12887   0.108   3.226   7.836  0.4543 -0.0996 -0.0906
35216SOL    HW112888   0.087   3.178   7.756  2.0420 -0.6189 -0.2317
35216SOL    HW212889   0.200   3.249   7.827 -0.3675  3.7768 -0.4131
35217SOL     OW12890   0.401  10.325   5.771  0.5626  0.8434  0.2510
35217SOL    HW112891   0.377  10.357   5.858 -1.0869  1.8812 -0.5426
35217SOL    HW212892   0.417  10.404   5.720 -0.2637  0.3131 -0.8635
35218SOL     OW12893   7.274   9.176  10.753  0.2082 -0.6922 -0.3753
35218SOL    HW112894   7.304   9.108  10.813 -1.9045 -2.2597 -0.9989
35218SOL    HW212895   7.195   9.211  10.793 -1.0342 -1.5049 -1.9973
35219SOL     OW12896   2.790   0.150   0.235 -0.0534  0.0463  0.4766
35219SOL    HW112897   2.699   0.134   0.262 -0.1921  0.1473  0.0762
35219SOL    HW212898   2.784   0.225   0.177  0.3038  0.1121  0.5279
35220SOL     OW12899   9.212  10.724   7.036  0.3789  0.1791 -0.1387
35220SOL    HW112900   9.133  10.688   6.995  0.7076 -1.3200  0.4530
35220SOL    HW212901   9.237  10.657   7.100  2.1284  0.6147 -0.3231
35221SOL     OW12902   3.773   9.426   7.281  0.1573 -0.2414 -0.2476
35221SOL    HW112903   3.762   9.342   7.236  0.2268 -0.0314 -0.6630
35221SOL    HW212904   3.834   9.475   7.226 -0.9486  0.6091 -0.7655
35222SOL     OW12905   0.664   8.070   0.060 -0.5855 -0.0878  0.2658
35222SOL    HW112906   0.655   8.071  -0.035 -0.1538 -0.4474  0.2172
35222SOL    HW212907   0.646   7.979   0.085 -0.5726 -0.0226  0.5134
35223SOL     OW12908   1.173  10.840   2.020 -0.7095 -0.3300 -0.7620
35223SOL    HW112909   1.258  10.876   1.998 -0.9559 -0.5223 -2.1414
35223SOL    HW212910   1.192  10.752   2.053 -0.2806  0.1995  0.4662
35224SOL     OW12911   1.130   5.176  10.836  0.3571 -0.3450 -0.4044
35224SOL    HW112912   1.159   5.265  10.857 -0.9073  0.0703 -0.2936
35224SOL    HW212913   1.170   5.157  10.752  1.9822 -0.3315  0.3342
35225SOL     OW12914   4.566  11.960   1.774 -0.2377  0.1436 -0.4501
35225SOL    HW112915   4.487  11.906   1.771 -0.3661  0.3040 -0.0465
35225SOL    HW212916   4.588  11.975   1.682  1.2555 -2.6920 -0.6883
35226SOL     OW12917   6.599   2.666   1.155 -0.6866  0.1435  0.9470
35226SOL    HW112918   6.562   2.590   1.201 -2.2743 -0.0267 -0.5277
35226SOL    HW212919   6.557   2.741   1.196 -0.1582  0.1704  1.4647
35227SOL     OW12920   3.071   7.150  11.258  0.4558 -0.1217 -0.0152
35227SOL    HW112921   2.978   7.130  11.266  0.1642  0.8511 -0.8076
35227SOL    HW212922   3.094   7.193  11.340 -0.3714  1.7635 -0.7197
35228SOL     OW12923   2.624   2.583   8.177 -0.3995  0.6007 -0.5248
35228SOL    HW112924   2.696   2.641   8.156 -0.2408  0.8662  0.6549
35228SOL    HW212925   2.549   2.619   8.131 -0.4069  2.0340  0.5254
35229SOL     OW12926  10.967   9.450   7.728 -0.2892 -0.4004  0.0365
35229SOL    HW112927  10.989   9.474   7.638 -0.4679 -1.2178 -0.2363
35229SOL    HW212928  10.938   9.359   7.722 -0.0712 -0.5380  0.9598
35230SOL     OW12929   0.859   9.938   1.799  0.2660 -0.4009  0.5809
35230SOL    HW112930   0.925   9.991   1.755 -0.9621  1.1299  0.5193
35230SOL    HW212931   0.841   9.866   1.738  1.2455 -0.3706  0.2391
35231SOL     OW12932   1.981  12.023   3.459 -0.0717 -0.1548  0.0028
35231SOL    HW112933   1.993  12.054   3.549 -0.0020  1.9197 -0.6711
35231SOL    HW212934   2.025  12.089   3.405 -1.7884 -0.2800 -1.6569
35232SOL     OW12935   2.706   0.095   3.654  0.1415  0.0939  0.0621
35232SOL    HW112936   2.747   0.178   3.680  1.9951 -0.6293 -0.3904
35232SOL    HW212937   2.679   0.055   3.737 -5.1993  3.1013  0.2067
35233SOL     OW12938  12.344   2.902  10.691  0.7176 -0.0821  0.1093
35233SOL    HW112939  12.315   2.975  10.636  0.9936  0.2767  0.4356
35233SOL    HW212940  12.438   2.917  10.704  1.2657 -1.6757 -1.6024
35234SOL     OW12941   7.541  10.200   3.060 -0.1810  0.0569  0.3502
35234SOL    HW112942   7.535  10.276   3.002 -2.0034  0.8592  1.5016
35234SOL    HW212943   7.451  10.183   3.086  0.4729 -0.9664  2.0866
35235SOL     OW12944   2.436   7.422  10.927  0.7041  0.7119  0.7885
35235SOL    HW112945   2.371   7.440  10.995  0.6969  2.0713  0.4606
35235SOL    HW212946   2.473   7.508  10.907  1.8689  0.1053  0.2313
35236SOL     OW12947   0.715   6.381   6.976  0.5230  0.0416  0.4358
35236SOL    HW112948   0.663   6.432   6.914  0.6744 -1.9066 -1.4244
35236SOL    HW212949   0.806   6.405   6.956  0.6283 -1.2549 -0.8286
35237SOL     OW12950   1.362   0.387   6.416  0.0468  0.4820 -0.2279
35237SOL    HW112951   1.384   0.426   6.331 -0.2481  2.3660  0.4910
35237SOL    HW212952   1.271   0.415   6.432  0.6986  1.8254  1.5252
35238SOL     OW12953   6.746   8.727   9.532  0.2347  0.2690 -0.1226
35238SOL    HW112954   6.743   8.819   9.559  0.3568  0.5115 -0.8969
35238SOL    HW212955   6.656   8.698   9.537  0.3729  0.0352  1.4049
35239SOL     OW12956  12.221   5.631   8.337 -0.1861 -0.9889 -0.2181
35239SOL    HW112957  12.306   5.615   8.295  0.4644  0.8541  0.2901
35239SOL    HW212958  12.241   5.635   8.430 -0.8163 -0.4818 -0.0991
35240SOL     OW12959   3.756   2.197  11.619 -0.2082 -0.4943  0.4513
35240SOL    HW112960   3.745   2.137  11.545 -0.8766 -0.7154  0.7311
35240SOL    HW212961   3.850   2.195  11.637 -0.0896 -0.7068 -0.1665
35241SOL     OW12962   3.401   6.347   3.394 -0.1035  0.7078  0.0275
35241SOL    HW112963   3.317   6.371   3.432 -0.0554  0.4063  0.3355
35241SOL    HW212964   3.411   6.403   3.317 -1.0128  0.1170 -0.5421
35242SOL     OW12965   4.758   0.247   3.496 -0.0875  0.2130  0.4743
35242SOL    HW112966   4.695   0.178   3.517 -0.1427  0.1288  0.0489
35242SOL    HW212967   4.757   0.252   3.400  0.7031  0.0691  0.4482
35243SOL     OW12968  12.291   0.414   9.258 -0.4753  0.0573 -0.1681
35243SOL    HW112969  12.309   0.505   9.235 -0.7195  0.0173 -0.5412
35243SOL    HW212970  12.272   0.372   9.174 -0.7483 -0.2462  0.0439
35244SOL     OW12971   5.408   8.752   3.351  0.0082 -0.3142 -0.7178
35244SOL    HW112972   5.504   8.748   3.346  0.0520 -0.8592  0.2901
35244SOL    HW212973   5.389   8.842   3.379  0.2597 -0.3794 -0.3324
35245SOL     OW12974   4.273   0.900   8.473 -0.1569  0.0655  0.8001
35245SOL    HW112975   4.208   0.830   8.463  0.3016 -0.2769  0.1365
35245SOL    HW212976   4.269   0.948   8.390  0.4489  0.0338  0.7531
35246SOL     OW12977  11.312   3.435   6.071 -0.1988  0.2865 -0.1896
35246SOL    HW112978  11.286   3.495   6.140  0.8356  0.3436  0.1745
35246SOL    HW212979  11.318   3.350   6.114  0.8156  0.3873 -0.0959
35247SOL     OW12980   0.785   1.942  11.533  0.7731 -0.0740 -0.0342
35247SOL    HW112981   0.719   1.979  11.475 -0.1100 -0.0811  0.9278
35247SOL    HW212982   0.826   2.019  11.574 -1.0417 -0.0857  1.9422
35248SOL     OW12983   1.076   3.287   3.058  1.2149 -0.0016  0.2249
35248SOL    HW112984   1.157   3.285   3.007  2.0744  0.4537  1.5011
35248SOL    HW212985   1.080   3.208   3.112  0.3635 -0.4364 -0.3331
35249SOL     OW12986   8.269   0.459   8.859 -0.1764  0.7226  0.3655
35249SOL    HW112987   8.203   0.439   8.793  0.2712  0.5668 -0.0423
35249SOL    HW212988   8.329   0.519   8.816  0.1595  0.5614  0.6023
35250SOL     OW12989   9.202   9.898  12.530 -0.1744  0.1410 -0.2400
35250SOL    HW112990   9.170   9.867  12.614 -0.1005 -0.4982 -0.4454
35250SOL    HW212991   9.285   9.941  12.550 -0.8256  1.2267  0.2021
35251SOL     OW12992  10.882   9.758  11.102  0.0016  0.5618  0.2133
35251SOL    HW112993  10.862   9.786  11.191  1.1940  0.8651  0.4082
35251SOL    HW212994  10.908   9.666  11.110 -1.2862  0.1570 -0.0421
35252SOL     OW12995   8.468  11.167   5.150 -0.2233  0.4457  0.5486
35252SOL    HW112996   8.526  11.091   5.153  0.2977  0.8367  0.4477
35252SOL    HW212997   8.488  11.217   5.229 -0.8096  0.3068  0.7926
35253SOL     OW12998   3.397   9.131  10.842  0.3832  0.0710  0.2768
35253SOL    HW112999   3.337   9.093  10.906  1.0326 -1.7174 -0.1395
35253SOL    HW213000   3.352   9.210  10.811 -1.2911 -0.6793  0.6981
35254SOL     OW13001   7.190  11.667   5.754 -0.8273 -0.0228  0.7482
35254SOL    HW113002   7.184  11.645   5.847 -2.6371  0.3777  0.7621
35254SOL    HW213003   7.148  11.594   5.709  0.1354 -0.2685  0.2144
35255SOL     OW13004   1.244   5.269  10.160 -0.3676  0.1376  0.5997
35255SOL    HW113005   1.223   5.311  10.243 -0.5057  1.4093 -0.0648
35255SOL    HW213006   1.192   5.188  10.161 -1.7806  1.0095  0.9642
35256SOL     OW13007  11.907   3.823   5.746 -0.3867 -0.5948  0.6938
35256SOL    HW113008  11.945   3.739   5.773  1.6599 -0.0215 -0.1648
35256SOL    HW213009  11.911   3.877   5.824 -0.7550 -0.9704  0.9791
35257SOL     OW13010   1.168   0.368   9.589 -0.3206  0.1608 -0.1284
35257SOL    HW113011   1.147   0.449   9.636  1.3396 -0.9775  2.8046
35257SOL    HW213012   1.255   0.344   9.620  0.2832 -1.5050 -2.8081
35258SOL     OW13013   6.555   4.160   1.944 -0.8215  0.4859  0.0869
35258SOL    HW113014   6.628   4.188   1.889 -0.6436  2.8574  1.4112
35258SOL    HW213015   6.525   4.078   1.904  1.2888  0.4682 -1.6314
35259SOL     OW13016   9.657   9.628   4.581 -0.2053 -0.1021  0.5242
35259SOL    HW113017   9.592   9.608   4.649 -0.2102 -0.2441  0.4764
35259SOL    HW213018   9.614   9.694   4.527  0.0330  0.4572  1.0106
35260SOL     OW13019   8.617   6.681  10.121 -0.1819 -0.5320 -0.3433
35260SOL    HW113020   8.653   6.658  10.036 -0.8454 -1.8508 -0.2911
35260SOL    HW213021   8.692   6.681  10.180  0.3766  0.9727 -1.0016
35261SOL     OW13022  10.765   7.086   5.936 -0.2447  0.2104  0.3204
35261SOL    HW113023  10.825   7.034   5.989  1.6887  0.5339 -1.4157
35261SOL    HW213024  10.806   7.172   5.932 -0.1541  0.1113 -1.8890
35262SOL     OW13025   1.830   5.682   9.045  0.2161  0.1268  0.1557
35262SOL    HW113026   1.763   5.614   9.054  0.3004  0.0024 -0.1652
35262SOL    HW213027   1.851   5.706   9.135  0.5181 -0.5891  0.2801
35263SOL     OW13028   5.883   0.588   6.979  0.1887 -0.3756  0.2308
35263SOL    HW113029   5.867   0.508   6.928 -0.2177 -0.6303  0.7428
35263SOL    HW213030   5.796   0.615   7.008  0.4411 -0.4484  1.0969
35264SOL     OW13031   0.089  11.123   1.781  0.5918 -0.0086  0.4061
35264SOL    HW113032   0.104  11.186   1.852  0.7220  1.3319 -0.7636
35264SOL    HW213033   0.150  11.051   1.799  0.7592  0.3966  1.5284
35265SOL     OW13034   4.785   7.628   1.552 -0.3825  0.1525  0.9034
35265SOL    HW113035   4.879   7.606   1.549 -0.2725  0.7085 -0.3488
35265SOL    HW213036   4.759   7.608   1.641  1.4015  1.8535  1.8953
35266SOL     OW13037   4.483   9.192   9.456 -0.3097 -0.0079 -0.0550
35266SOL    HW113038   4.572   9.166   9.432  0.2647  0.2758  1.6756
35266SOL    HW213039   4.490   9.285   9.476 -0.5600 -0.3953  1.9795
35267SOL     OW13040  10.979   8.661   4.914  0.2621 -0.6122 -0.3337
35267SOL    HW113041  10.940   8.746   4.890 -1.4352 -0.7729  1.5768
35267SOL    HW213042  10.991   8.616   4.830  0.8577  1.3469 -1.3722
35268SOL     OW13043   0.902  12.648   2.989 -0.2607  0.7366 -0.2645
35268SOL    HW113044   0.981  12.700   2.971  0.0721 -0.4108 -2.6189
35268SOL    HW213045   0.831  12.712   2.993  0.7823  1.8424  2.4092
35269SOL     OW13046   5.542   5.197   4.699 -0.3028  0.2955  0.2871
35269SOL    HW113047   5.460   5.168   4.738 -0.5028  1.3982  0.7518
35269SOL    HW213048   5.516   5.256   4.628  0.0848 -0.3411 -0.3979
35270SOL     OW13049   5.489   0.357   5.415 -0.2479 -0.2566  0.2962
35270SOL    HW113050   5.460   0.276   5.457  0.4084 -0.0915  1.1045
35270SOL    HW213051   5.410   0.397   5.381 -1.0307  0.2930  2.6119
35271SOL     OW13052   0.148   5.282   3.265  0.0423  0.3379  0.3558
35271SOL    HW113053   0.114   5.337   3.336  0.2279  0.2086  0.5444
35271SOL    HW213054   0.094   5.203   3.267 -1.5694  1.3286 -1.1960
35272SOL     OW13055   5.157   8.467   4.977 -0.5322 -0.7672  0.0592
35272SOL    HW113056   5.091   8.419   5.028 -0.8240 -0.6805 -0.2341
35272SOL    HW213057   5.116   8.551   4.958 -0.5304 -0.8935 -0.5359
35273SOL     OW13058   5.223   9.006   7.499 -0.3548 -0.2145 -0.2018
35273SOL    HW113059   5.194   9.041   7.583 -0.5323  0.1497 -0.4128
35273SOL    HW213060   5.147   9.014   7.442  0.3566  1.4756 -0.9891
35274SOL     OW13061  12.209   8.279   7.223  0.2871 -0.0172  0.2749
35274SOL    HW113062  12.269   8.234   7.164 -0.2517  2.2764 -2.1925
35274SOL    HW213063  12.123   8.240   7.206 -0.3303  2.2054 -2.4500
35275SOL     OW13064   3.613   8.630   4.555 -0.0990 -0.3989  0.4735
35275SOL    HW113065   3.567   8.549   4.531  1.4071 -1.4122  0.9135
35275SOL    HW213066   3.558   8.700   4.518 -1.1733 -1.6276 -0.3516
35276SOL     OW13067   7.154   9.632   3.041 -0.5629  0.1376 -0.2623
35276SOL    HW113068   7.130   9.543   3.066  0.3888  0.3841  1.7146
35276SOL    HW213069   7.112   9.687   3.107 -1.1651  1.2015 -1.4724
35277SOL     OW13070   4.355  12.281   1.758  0.1472  0.2962  0.1844
35277SOL    HW113071   4.432  12.225   1.763  0.7136  1.1006  0.9090
35277SOL    HW213072   4.286  12.231   1.802  0.0924 -0.6490 -0.9260
35278SOL     OW13073   2.771   3.092  12.525  0.3064 -0.0459  0.3692
35278SOL    HW113074   2.804   3.028  12.588 -1.1704  0.2500  1.5038
35278SOL    HW213075   2.847   3.146  12.503  1.6330 -2.2257 -0.7484
35279SOL     OW13076   3.299   4.722   0.224  0.0005 -0.1410 -0.2169
35279SOL    HW113077   3.262   4.808   0.239  3.0615  1.3131 -0.1660
35279SOL    HW213078   3.283   4.674   0.305 -0.8734  0.7248  0.1400
35280SOL     OW13079   0.903  12.324   8.941 -0.0320  0.9183  0.2902
35280SOL    HW113080   0.989  12.290   8.968 -1.0935 -2.5176 -0.1752
35280SOL    HW213081   0.898  12.303   8.848 -1.6702  0.2849  0.4970
35281SOL     OW13082   3.316   5.289   7.127  0.1308  0.4717  0.4878
35281SOL    HW113083   3.299   5.346   7.202  1.6505  1.9072 -0.2120
35281SOL    HW213084   3.410   5.270   7.132 -0.0841 -0.8238 -0.0943
35282SOL     OW13085  10.902  10.598   5.160  0.3087  0.4107  0.0891
35282SOL    HW113086  10.910  10.619   5.253 -0.2613 -1.1240  0.5098
35282SOL    HW213087  10.810  10.617   5.139 -0.2195 -1.4733  0.4756
35283SOL     OW13088   7.670   3.835   7.292 -0.2156  0.0815 -0.0867
35283SOL    HW113089   7.592   3.793   7.255  0.4677  0.0293 -1.5510
35283SOL    HW213090   7.655   3.835   7.387 -2.2830  0.6803 -0.3634
35284SOL     OW13091   8.442   5.769   5.663 -0.0340  0.0385  0.0587
35284SOL    HW113092   8.406   5.856   5.645  0.9711  0.7206  1.1896
35284SOL    HW213093   8.536   5.780   5.656  0.1771 -0.6197  1.4648
35285SOL     OW13094   8.307   7.388   2.799  0.0716  0.2687 -0.3424
35285SOL    HW113095   8.230   7.368   2.746  0.6798 -0.4142 -0.9966
35285SOL    HW213096   8.274   7.391   2.889 -0.4195 -1.9457 -0.3791
35286SOL     OW13097   4.230   4.655  10.958 -0.2681 -0.2526 -0.0927
35286SOL    HW113098   4.297   4.679  10.894 -0.4308  0.7023  0.0863
35286SOL    HW213099   4.212   4.736  11.006 -1.5378 -0.4990 -0.1206
35287SOL     OW13100   3.538   5.404  12.114 -0.0386 -0.0867  0.2341
35287SOL    HW113101   3.622   5.426  12.155 -0.7245 -0.2013  1.7773
35287SOL    HW213102   3.477   5.470  12.146 -1.0733 -1.4272  1.1690
35288SOL     OW13103  12.629   8.301   3.485  0.2935  0.8099 -0.9095
35288SOL    HW113104  12.678   8.340   3.558  0.3748 -0.3798 -0.2972
35288SOL    HW213105  12.616   8.210   3.511 -0.9485  0.7169 -1.7414
35289SOL     OW13106   0.695  12.403   3.825 -0.1729  0.0303  0.2342
35289SOL    HW113107   0.610  12.445   3.841 -0.6754 -1.4632  1.8480
35289SOL    HW213108   0.740  12.409   3.909  1.1397  0.3236 -0.4606
35290SOL     OW13109  10.845  11.004   2.379  0.2938 -0.0541  0.1472
35290SOL    HW113110  10.771  10.947   2.397 -0.3248  0.2164 -1.3345
35290SOL    HW213111  10.847  11.066   2.451 -1.0519  0.0476  0.1206
35291SOL     OW13112   1.196  10.444   6.255 -0.5571  0.0611 -0.0031
35291SOL    HW113113   1.160  10.356   6.244  0.5162 -0.2104 -1.7952
35291SOL    HW213114   1.270  10.433   6.314 -0.6464 -0.1581  0.0688
35292SOL     OW13115   3.336   0.773   8.775 -0.0539  0.0016  0.1719
35292SOL    HW113116   3.323   0.694   8.828  0.0420 -0.0918  0.0557
35292SOL    HW213117   3.257   0.780   8.722  0.1417 -0.2731 -0.1539
35293SOL     OW13118   0.085   0.517   5.517 -0.1005 -0.1905 -0.1355
35293SOL    HW113119  -0.008   0.507   5.497 -0.3634  0.8344  0.4641
35293SOL    HW213120   0.130   0.486   5.439 -0.9726 -0.0066 -0.7325
35294SOL     OW13121   7.562   1.144   0.096  0.5304 -0.1924  0.5280
35294SOL    HW113122   7.575   1.055   0.062 -0.9509 -0.3069  0.1740
35294SOL    HW213123   7.521   1.191   0.024 -0.3435  0.2694  1.3058
35295SOL     OW13124   7.657  11.577   5.541  0.1054  0.4891  0.1897
35295SOL    HW113125   7.692  11.588   5.629  1.0364 -1.6211  0.1375
35295SOL    HW213126   7.725  11.528   5.494 -1.4545 -0.7252 -0.9147
35296SOL     OW13127   1.065   7.228  12.354  0.3196 -0.3818  0.0290
35296SOL    HW113128   1.083   7.256  12.444 -2.1680 -1.1969  0.8677
35296SOL    HW213129   1.062   7.132  12.359 -4.2102 -0.4532  0.2374
35297SOL     OW13130   1.998   9.568   0.476 -0.0304 -0.0809  0.7992
35297SOL    HW113131   1.940   9.586   0.402 -0.7932 -1.3411  1.0630
35297SOL    HW213132   2.042   9.652   0.493  0.1432  0.2483 -1.0456
35298SOL     OW13133  11.028   0.317  11.993 -0.6236  0.2014  0.2333
35298SOL    HW113134  11.116   0.349  11.973 -1.2938  0.6657 -2.3641
35298SOL    HW213135  11.036   0.222  11.991 -0.1970  0.2425 -0.2119
35299SOL     OW13136  10.372   5.847   7.043 -0.0988  0.5473  0.1029
35299SOL    HW113137  10.451   5.799   7.019  0.4197  0.9056  1.0341
35299SOL    HW213138  10.379   5.930   6.995 -0.0553  0.4698 -0.0261
35300SOL     OW13139   5.738   4.113  11.313 -0.1361  0.5733  0.1953
35300SOL    HW113140   5.705   4.148  11.396  1.9848  1.7598  0.6052
35300SOL    HW213141   5.765   4.023  11.334 -0.6388  0.4917  0.5076
35301SOL     OW13142   2.301   4.544   9.823  0.0479 -0.2031 -0.3141
35301SOL    HW113143   2.310   4.472   9.885 -2.3342  1.0219  1.6186
35301SOL    HW213144   2.285   4.501   9.739 -2.9127 -2.0709  1.0340
35302SOL     OW13145   2.273   4.971   0.159  0.5050  0.5060 -0.4713
35302SOL    HW113146   2.273   4.881   0.125 -0.5631  0.0208  0.7561
35302SOL    HW213147   2.365   4.987   0.182  0.4200 -1.0274  1.1705
35303SOL     OW13148   3.481   3.627  11.628  1.1052 -0.4509  0.4353
35303SOL    HW113149   3.401   3.680  11.636 -0.2032 -2.3029  0.2986
35303SOL    HW213150   3.550   3.691  11.609 -0.2656  1.2522  0.8746
35304SOL     OW13151   6.117   2.948   6.515  0.4245  0.0569 -0.1561
35304SOL    HW113152   6.032   2.991   6.526 -0.5384 -1.8100  0.0077
35304SOL    HW213153   6.169   3.012   6.466 -0.2851  2.2043  1.6788
35305SOL     OW13154  11.712  10.036   1.732 -0.2877  0.0289 -0.0815
35305SOL    HW113155  11.698   9.979   1.808 -1.0732  1.6702  1.0719
35305SOL    HW213156  11.665   9.994   1.661  1.2475 -2.0574  0.0343
35306SOL     OW13157   0.121   2.781  12.133  0.6581  0.3303  0.4646
35306SOL    HW113158   0.103   2.830  12.052  0.3144  0.8718  0.8626
35306SOL    HW213159   0.201   2.732  12.114  0.0350 -0.3382 -0.5563
35307SOL     OW13160  12.468   6.443   7.962 -0.1119  0.7216 -0.0287
35307SOL    HW113161  12.520   6.416   7.886 -0.3430 -0.2115  0.1353
35307SOL    HW213162  12.438   6.361   8.001 -1.0731  1.2272  0.3254
35308SOL     OW13163  11.097  10.806   6.921  0.0861  0.3667  0.4113
35308SOL    HW113164  11.184  10.821   6.883 -0.0443 -0.2853 -0.1667
35308SOL    HW213165  11.114  10.777   7.010  0.4433  0.6522  0.4404
35309SOL     OW13166   5.018  10.854   6.445  0.4112 -0.0566  0.7431
35309SOL    HW113167   4.929  10.846   6.480 -0.6319  0.4694 -1.5982
35309SOL    HW213168   5.068  10.787   6.491 -1.6505 -1.6580  0.7870
35310SOL     OW13169  12.100   8.836   4.386 -0.4146 -0.3727  0.1669
35310SOL    HW113170  12.031   8.893   4.352  0.0393  1.1337  1.6396
35310SOL    HW213171  12.161   8.827   4.313 -0.7746  0.5673 -0.2623
35311SOL     OW13172   6.765   6.576   1.614 -0.1941  0.5973  0.2397
35311SOL    HW113173   6.833   6.516   1.583 -0.1154  0.2307  1.1050
35311SOL    HW213174   6.812   6.647   1.656 -0.3373  0.4448  0.6612
35312SOL     OW13175   3.012  10.422   4.336 -0.7691  0.3406  0.5811
35312SOL    HW113176   3.000  10.343   4.389 -0.4527  0.2899  0.5814
35312SOL    HW213177   2.938  10.478   4.360 -2.1986 -0.7889 -0.9920
35313SOL     OW13178  12.215   9.626   5.055  0.6382  0.2866 -0.8520
35313SOL    HW113179  12.211   9.574   4.975 -0.4057 -0.5655 -0.2680
35313SOL    HW213180  12.152   9.697   5.040 -4.2072 -3.0685  1.3273
35314SOL     OW13181   7.372  10.347   0.532 -0.1557  0.3984  0.3468
35314SOL    HW113182   7.295  10.289   0.527 -0.3387  0.1828  3.5024
35314SOL    HW213183   7.337  10.432   0.558  0.4562  0.9998 -0.7397
35315SOL     OW13184   0.844  11.148   3.416  0.3149 -0.0264 -0.1393
35315SOL    HW113185   0.927  11.101   3.415  1.1168  1.3481 -0.1666
35315SOL    HW213186   0.830  11.175   3.325  1.2731  2.1240  0.2926
35316SOL     OW13187   8.287   0.027   8.257 -0.3998 -0.5201  0.2459
35316SOL    HW113188   8.265   0.061   8.344  2.0611  0.3324  0.6132
35316SOL    HW213189   8.229   0.075   8.198 -1.6218 -0.5967  1.3268
35317SOL     OW13190   3.026   3.471   1.322 -0.2083  0.9575  0.6092
35317SOL    HW113191   3.081   3.527   1.377 -0.4059 -0.0820  1.8824
35317SOL    HW213192   2.937   3.496   1.344 -0.2865  0.9465  0.3120
35318SOL     OW13193   6.128  11.805   8.542  0.2526 -0.1540 -0.3328
35318SOL    HW113194   6.195  11.807   8.474  2.6614  1.0195  1.8961
35318SOL    HW213195   6.150  11.878   8.600 -2.6018 -0.1313  0.9013
35319SOL     OW13196   4.525   8.544   4.686  0.1817 -0.1197  0.3360
35319SOL    HW113197   4.470   8.553   4.765  0.7380  1.3073  0.5803
35319SOL    HW213198   4.543   8.633   4.658 -0.9120 -0.5801 -2.1008
35320SOL     OW13199   1.051   5.733   2.741 -0.2513 -0.4028  0.0603
35320SOL    HW113200   0.957   5.719   2.751 -0.4229 -0.1911 -1.0720
35320SOL    HW213201   1.071   5.807   2.798 -0.8753 -0.1453 -0.0478
35321SOL     OW13202   2.731   3.415  10.038 -0.1598  0.3408  0.4264
35321SOL    HW113203   2.639   3.426  10.016 -0.1136  1.3592  0.6953
35321SOL    HW213204   2.779   3.449   9.962  0.0143 -1.2732 -0.2211
35322SOL     OW13205   2.802   1.882   2.135 -0.3050  0.5230  0.0847
35322SOL    HW113206   2.838   1.795   2.153  0.6716  0.4514 -1.8468
35322SOL    HW213207   2.736   1.896   2.202  1.2858 -0.6291  2.0030
35323SOL     OW13208   6.371   1.605   8.163 -0.5746  0.1041 -0.0947
35323SOL    HW113209   6.467   1.601   8.161 -0.5129  0.6899 -3.6605
35323SOL    HW213210   6.352   1.671   8.229  1.4095 -0.3596  1.0423
35324SOL     OW13211   3.603   2.918  11.649 -0.0047 -0.1917  0.5082
35324SOL    HW113212   3.613   2.867  11.568 -1.2565 -0.3948  0.4621
35324SOL    HW213213   3.667   2.880  11.709  1.5875  0.5448 -0.6375
35325SOL     OW13214  11.958  11.377  12.565  0.3137  0.4699  0.2724
35325SOL    HW113215  12.030  11.420  12.612 -0.2949  1.2052  0.5589
35325SOL    HW213216  11.958  11.419  12.479  1.8684 -1.3577 -0.6884
35326SOL     OW13217   1.639   2.789  11.264 -0.1705 -0.1819  0.0237
35326SOL    HW113218   1.642   2.698  11.237  0.5264 -0.8408  2.1788
35326SOL    HW213219   1.649   2.787  11.359  1.8499  2.2412 -0.0307
35327SOL     OW13220   1.399   5.370   9.935 -0.0952  0.1877  0.4344
35327SOL    HW113221   1.342   5.333  10.002  0.7890  0.0481  1.1341
35327SOL    HW213222   1.456   5.297   9.909 -1.0494 -0.0121 -1.1709
35328SOL     OW13223   1.302   2.886   2.253  0.6916  0.2398 -0.0027
35328SOL    HW113224   1.269   2.833   2.326  0.3195 -0.2623 -0.5230
35328SOL    HW213225   1.306   2.824   2.179 -0.8833  1.2028 -0.9485
35329SOL     OW13226   4.221  11.456   7.486  0.1180  0.1759  0.4561
35329SOL    HW113227   4.171  11.515   7.543  1.3849  0.7837  0.9717
35329SOL    HW213228   4.311  11.487   7.492  0.2699  0.4889 -2.1585
35330SOL     OW13229   8.364  12.653   5.812  0.7599  0.2464 -0.0525
35330SOL    HW113230   8.356  12.600   5.892  1.5904 -1.2312 -0.9112
35330SOL    HW213231   8.274  12.661   5.781  0.5686 -0.3117  0.3267
35331SOL     OW13232   4.746   7.856   3.110 -0.2781 -0.3847  0.4211
35331SOL    HW113233   4.829   7.868   3.065 -0.5733 -2.1168 -0.6762
35331SOL    HW213234   4.714   7.945   3.126  0.5539  0.3089 -1.4722
35332SOL     OW13235   7.954   7.858   0.494 -0.7713 -0.0723  0.6683
35332SOL    HW113236   7.916   7.939   0.527 -0.4102  1.1751 -1.7235
35332SOL    HW213237   8.047   7.878   0.482 -0.9207 -0.3283 -1.2310
35333SOL     OW13238  10.571   1.650   2.580 -0.7419 -0.3163  0.0767
35333SOL    HW113239  10.490   1.600   2.578 -1.2223  0.4072  0.9075
35333SOL    HW213240  10.561   1.716   2.511 -0.0045 -1.4788 -1.1924
35334SOL     OW13241   0.695   8.725   7.508 -0.0514 -0.6525  0.0633
35334SOL    HW113242   0.743   8.803   7.481  0.2225 -0.3484  1.3377
35334SOL    HW213243   0.693   8.731   7.604 -0.2708 -2.0674  0.1607
35335SOL     OW13244   8.536   8.988  11.534  0.3737  0.2164 -0.1054
35335SOL    HW113245   8.590   8.917  11.499 -1.8990 -1.4297 -0.5128
35335SOL    HW213246   8.554   9.062  11.476  1.9183 -0.3610 -0.4084
35336SOL     OW13247  12.706   7.461   1.607 -0.1575  0.2910 -0.2551
35336SOL    HW113248  12.637   7.419   1.659 -0.3246  0.7072 -0.1400
35336SOL    HW213249  12.782   7.465   1.666 -0.9199  2.5504  0.6636
35337SOL     OW13250   5.831  12.080   8.202  0.2032 -0.1037  0.0015
35337SOL    HW113251   5.853  11.997   8.243 -1.4290 -0.5548  0.0260
35337SOL    HW213252   5.834  12.144   8.274 -0.5324 -0.5098  0.4013
35338SOL     OW13253   0.167  10.772   2.746  0.3211  0.1405 -0.0407
35338SOL    HW113254   0.208  10.756   2.661  1.2990 -1.2997  0.6652
35338SOL    HW213255   0.206  10.707   2.805 -0.6880  0.7791  1.4082
35339SOL     OW13256  10.686  10.239   8.139  0.5402 -0.2864 -0.3813
35339SOL    HW113257  10.692  10.180   8.064  1.9682  0.3492 -0.8112
35339SOL    HW213258  10.660  10.323   8.101  0.9169 -0.0518 -0.1367
35340SOL     OW13259   4.896   5.183   8.618  0.4127  0.3802 -0.2417
35340SOL    HW113260   4.839   5.214   8.688  1.5440 -1.1587  1.4567
35340SOL    HW213261   4.952   5.258   8.599 -0.8858  1.2965 -0.5922
35341SOL     OW13262   8.862   3.309   6.583  0.0171  0.0566  0.2161
35341SOL    HW113263   8.851   3.260   6.664  0.8456 -1.1540 -0.3698
35341SOL    HW213264   8.774   3.341   6.562 -0.6757 -1.6775  0.3176
35342SOL     OW13265  10.951  12.638   1.295 -0.1213 -0.1900  0.2476
35342SOL    HW113266  10.962  12.592   1.379  0.2262 -0.4799  0.0511
35342SOL    HW213267  10.956  12.730   1.317  2.1914 -0.2668  0.2985
35343SOL     OW13268   0.695   9.605   8.062 -0.1744 -0.2862  0.0435
35343SOL    HW113269   0.673   9.522   8.105  0.8938 -0.2675  0.6727
35343SOL    HW213270   0.641   9.670   8.106 -1.6441 -0.7346 -1.0176
35344SOL     OW13271  10.549   2.564   3.356  0.2818  0.2241  0.8614
35344SOL    HW113272  10.518   2.500   3.293 -0.0792  1.6456 -0.4779
35344SOL    HW213273  10.558   2.645   3.306  0.5923  1.2703  2.5032
35345SOL     OW13274  11.306   7.277   9.246 -0.1030  0.2897  0.1880
35345SOL    HW113275  11.314   7.259   9.340 -1.0526 -1.1372  0.0372
35345SOL    HW213276  11.276   7.194   9.209  5.0386 -0.9047 -2.1756
35346SOL     OW13277   0.472   5.823  12.602 -0.3239 -0.8823 -0.4251
35346SOL    HW113278   0.546   5.859  12.553 -0.8291 -0.5129 -0.9408
35346SOL    HW213279   0.501   5.736  12.630  0.2835 -0.7584 -0.6630
35347SOL     OW13280   3.825  11.754   8.339 -0.1912  0.0660 -0.2782
35347SOL    HW113281   3.793  11.844   8.347  0.0954  0.1260  0.2341
35347SOL    HW213282   3.917  11.759   8.367 -0.3695 -0.5145  0.4375
35348SOL     OW13283   1.606  11.303   3.189  0.3094 -0.4867  0.1647
35348SOL    HW113284   1.670  11.358   3.234 -0.2699 -0.0225  0.4214
35348SOL    HW213285   1.569  11.248   3.258  0.2554 -0.5911  0.0529
35349SOL     OW13286   6.557   4.515   2.586  0.1730 -0.5086  0.3981
35349SOL    HW113287   6.558   4.426   2.550  1.2655  0.1532 -1.3535
35349SOL    HW213288   6.539   4.571   2.510  1.4269  0.9024  1.1032
35350SOL     OW13289   6.051  11.141   2.402  0.1519  0.1805  0.2470
35350SOL    HW113290   5.966  11.134   2.444 -0.5441  2.3084 -0.6314
35350SOL    HW213291   6.032  11.132   2.308  1.0501 -0.3851  0.1109
35351SOL     OW13292   9.479  11.923   8.602 -0.4465 -0.2902  0.1049
35351SOL    HW113293   9.521  11.852   8.651 -0.7774 -0.1714  0.5701
35351SOL    HW213294   9.529  11.928   8.520  0.9284  0.3290  0.9405
35352SOL     OW13295   9.976   7.684   8.995  0.1596  0.2734  0.0773
35352SOL    HW113296  10.017   7.600   9.015 -1.9878 -0.1906  3.6445
35352SOL    HW213297  10.042   7.750   9.018  1.0019 -0.4132 -0.3335
35353SOL     OW13298  10.416   6.586   6.437  0.3596 -0.2555  0.4294
35353SOL    HW113299  10.339   6.642   6.446  0.3077 -0.1053 -0.7894
35353SOL    HW213300  10.443   6.596   6.345  1.6925 -0.4880  0.7742
35354SOL     OW13301   7.607   6.636   7.794  0.1851 -0.2490  0.4083
35354SOL    HW113302   7.644   6.586   7.867  1.2952 -1.4986 -0.9548
35354SOL    HW213303   7.545   6.575   7.753  0.5462 -0.0467 -0.4567
35355SOL     OW13304   3.920   9.932   0.821  0.4243  0.5080  0.5037
35355SOL    HW113305   3.921   9.971   0.733  1.0961 -0.6542 -0.0222
35355SOL    HW213306   3.899  10.005   0.879  0.1515  1.3347 -0.6058
35356SOL     OW13307   8.450   9.077   3.942  0.2853  0.2742  0.4374
35356SOL    HW113308   8.373   9.053   3.890 -0.3718 -0.3987  1.6809
35356SOL    HW213309   8.506   9.125   3.881 -0.4189 -0.5463 -0.9026
35357SOL     OW13310   3.350   7.077   9.991  0.0845 -0.0002  0.1621
35357SOL    HW113311   3.271   7.132   9.996  0.8349  1.0359  1.4481
35357SOL    HW213312   3.354   7.033  10.076  0.5867 -0.5014 -0.1120
35358SOL     OW13313   8.232   2.222   0.492  0.1225  0.0739 -0.3130
35358SOL    HW113314   8.148   2.235   0.448  0.8042  0.2536 -1.6304
35358SOL    HW213315   8.297   2.249   0.427  1.2338 -0.7953  0.3958
35359SOL     OW13316   9.168   0.689   5.309  0.5348 -0.0619 -0.5724
35359SOL    HW113317   9.082   0.698   5.350 -0.1377  0.6537 -2.0531
35359SOL    HW213318   9.224   0.751   5.356 -0.3489  1.1307 -1.0386
35360SOL     OW13319   3.673  10.459   3.681 -0.3566  0.1385 -0.2558
35360SOL    HW113320   3.657  10.505   3.763  1.7582  0.8473 -0.1876
35360SOL    HW213321   3.718  10.522   3.625  1.7970 -1.4782 -0.5029
35361SOL     OW13322  10.800  11.271   5.051  0.3811 -0.6414  0.3289
35361SOL    HW113323  10.808  11.306   5.140  0.1729 -1.0265  0.5016
35361SOL    HW213324  10.890  11.258   5.023  0.4578 -2.1549  1.1481
35362SOL     OW13325   9.854  11.439   9.039  0.0604  0.3340 -0.3081
35362SOL    HW113326   9.828  11.366   9.095  1.1149  0.6718  0.6603
35362SOL    HW213327   9.775  11.492   9.031 -0.6005 -0.6725 -0.6739
35363SOL     OW13328   7.954   5.760  12.397  0.4887  0.4238  0.1241
35363SOL    HW113329   7.914   5.719  12.321 -1.4395  0.0423  1.2914
35363SOL    HW213330   7.923   5.850  12.395  0.9841  0.5972  0.0948
35364SOL     OW13331   9.134   4.298  11.763  0.5589 -0.2630 -0.1277
35364SOL    HW113332   9.152   4.266  11.851  2.1864 -1.1786 -0.7369
35364SOL    HW213333   9.218   4.331  11.732  0.1682 -0.5324 -1.5460
35365SOL     OW13334   4.560   1.387  11.772 -0.6385  0.0446  0.3418
35365SOL    HW113335   4.602   1.307  11.803 -0.6512  0.5100  1.6074
35365SOL    HW213336   4.571   1.450  11.843 -0.7640  1.1343 -0.5662
35366SOL     OW13337  10.058   3.878   4.826  0.0603 -0.4221  0.2416
35366SOL    HW113338  10.100   3.955   4.864  2.0798 -2.0004  1.4398
35366SOL    HW213339  10.127   3.835   4.775 -1.3239 -0.8711 -1.3716
35367SOL     OW13340   5.725   7.934   0.344  0.0326 -0.4459 -0.4416
35367SOL    HW113341   5.791   7.941   0.275  0.2737  0.4779 -0.1300
35367SOL    HW213342   5.644   7.914   0.297  0.7075 -2.8293 -0.7371
35368SOL     OW13343   9.103   7.055  10.515  0.1307  0.3906  0.4820
35368SOL    HW113344   9.128   7.110  10.440  1.0550 -0.1350  0.3932
35368SOL    HW213345   9.109   6.965  10.481 -1.4742  0.2104  0.5885
35369SOL     OW13346   9.482   7.902   3.463 -0.1649 -0.4325  0.1167
35369SOL    HW113347   9.558   7.846   3.449  0.2113  0.3250 -1.0593
35369SOL    HW213348   9.519   7.990   3.470 -0.8059 -0.2368  1.1872
35370SOL     OW13349   6.461   3.188   9.206  0.1981 -0.7822 -0.1650
35370SOL    HW113350   6.484   3.105   9.247 -0.5357 -1.1494 -0.4823
35370SOL    HW213351   6.538   3.210   9.153 -0.3580 -2.2937 -1.6843
35371SOL     OW13352   7.530  10.867   6.878 -0.5638 -0.5797 -0.4091
35371SOL    HW113353   7.565  10.814   6.806 -1.0717 -1.8538  0.2374
35371SOL    HW213354   7.437  10.843   6.882 -0.8983  0.6590 -0.3182
35372SOL     OW13355   2.940   5.278   8.560 -0.2623  0.1608  0.2071
35372SOL    HW113356   3.020   5.318   8.594 -1.2461  2.0841  0.3885
35372SOL    HW213357   2.948   5.286   8.465  0.2127 -0.6308  0.1680
35373SOL     OW13358   7.015   7.308   9.072 -0.1517  0.0568  0.1493
35373SOL    HW113359   7.001   7.372   9.141 -1.0129  1.0318 -0.8781
35373SOL    HW213360   6.927   7.286   9.041  0.1959 -0.6106 -0.4104
35374SOL     OW13361   7.940   1.431  11.638  0.1038 -0.0633  0.2370
35374SOL    HW113362   7.849   1.407  11.621 -0.2768  0.6610  1.1681
35374SOL    HW213363   7.966   1.481  11.560  0.6608 -2.6369 -1.3546
35375SOL     OW13364  11.622   1.203   5.984  0.0622  0.4184 -0.9250
35375SOL    HW113365  11.645   1.236   6.071  0.7891  0.2868 -1.0651
35375SOL    HW213366  11.694   1.144   5.960 -1.1980 -1.3344 -0.6627
35376SOL     OW13367   9.843  10.988   7.623  0.5643 -0.0834 -0.1665
35376SOL    HW113368   9.759  11.026   7.650 -0.8807 -1.3338 -2.5474
35376SOL    HW213369   9.872  11.043   7.550  0.5540 -1.0564 -0.9264
35377SOL     OW13370   8.574  10.817   1.473 -0.1700  0.0248  0.6027
35377SOL    HW113371   8.503  10.781   1.525  0.9012 -1.8504  0.8569
35377SOL    HW213372   8.582  10.757   1.399 -1.1054  2.1668 -1.3509
35378SOL     OW13373   5.318   7.816   1.181  0.1304 -0.6358 -0.1959
35378SOL    HW113374   5.247   7.841   1.240 -0.7504 -0.7638 -1.1935
35378SOL    HW213375   5.391   7.873   1.207 -0.5017 -0.1093  0.4627
35379SOL     OW13376  12.256   0.493   4.806 -0.3936  0.2045 -0.0464
35379SOL    HW113377  12.185   0.430   4.819 -0.9512  1.1967  2.1055
35379SOL    HW213378  12.221   0.555   4.742 -1.6209  0.8555  1.2126
35380SOL     OW13379   7.760   2.206   1.131 -0.4468 -0.1812  0.0789
35380SOL    HW113380   7.807   2.285   1.158  0.6989 -0.8362  0.0787
35380SOL    HW213381   7.731   2.166   1.212 -1.2367  0.3452  0.0688
35381SOL     OW13382   3.790   2.209   5.659  0.4364 -0.4206 -0.6492
35381SOL    HW113383   3.724   2.243   5.599  0.9072  1.1598 -0.3199
35381SOL    HW213384   3.763   2.118   5.675 -2.1802  0.3871  0.1699
35382SOL     OW13385   6.013  11.378   7.922  0.2760 -0.1066 -0.5141
35382SOL    HW113386   5.967  11.401   7.841 -0.3910  0.4675  0.0239
35382SOL    HW213387   6.038  11.462   7.961 -0.7320 -0.3126  0.6313
35383SOL     OW13388   3.501  11.371   9.587 -0.1576  0.4663 -0.2204
35383SOL    HW113389   3.422  11.377   9.640 -0.3379 -0.0506 -0.4188
35383SOL    HW213390   3.514  11.458   9.551 -0.3534  0.6780  0.2210
35384SOL     OW13391   4.333  11.068   3.683 -0.2168 -0.0222 -0.0729
35384SOL    HW113392   4.255  11.116   3.657  0.6260  1.4898  0.0367
35384SOL    HW213393   4.365  11.027   3.602 -0.5284  0.2320 -0.3249
35385SOL     OW13394   5.580   5.355   9.326  0.2167 -1.0545 -0.2813
35385SOL    HW113395   5.646   5.323   9.265  1.3715 -1.4453  1.1007
35385SOL    HW213396   5.599   5.449   9.335  0.4707 -1.1243 -0.0526
35386SOL     OW13397  11.982   8.438   9.393 -0.1771 -0.0226  0.2849
35386SOL    HW113398  11.915   8.383   9.355  0.2577 -0.0020 -0.5322
35386SOL    HW213399  11.975   8.423   9.488  0.3456 -1.9523  0.0571
35387SOL     OW13400   4.948   5.265  11.091 -0.2728 -0.3695  0.5327
35387SOL    HW113401   4.967   5.171  11.090  0.5611 -0.2078 -1.0031
35387SOL    HW213402   4.858   5.272  11.059 -0.1010 -0.6013 -0.0047
35388SOL     OW13403   3.356  11.074   6.072  0.3170 -0.2943 -0.1553
35388SOL    HW113404   3.397  11.009   6.129  0.0910 -0.6746 -0.4206
35388SOL    HW213405   3.278  11.102   6.120 -0.2968 -1.1826 -0.5985
35389SOL     OW13406  10.968   6.031   1.502 -0.8221 -0.5212  0.2119
35389SOL    HW113407  11.028   6.090   1.457 -0.8972 -0.8954 -0.3923
35389SOL    HW213408  10.893   6.086   1.526 -0.1982 -0.0298  1.0669
35390SOL     OW13409   2.644   7.466   4.635  0.1792  0.0441  0.2533
35390SOL    HW113410   2.605   7.472   4.722  0.4011 -1.2771  0.4689
35390SOL    HW213411   2.710   7.535   4.633  1.9770 -1.5150  2.1253
35391SOL     OW13412   0.675  12.187   1.146  0.0363 -0.3282 -0.4894
35391SOL    HW113413   0.632  12.195   1.232 -0.1348  0.4120 -0.6349
35391SOL    HW213414   0.626  12.119   1.101 -0.0931 -0.4772 -0.1280
35392SOL     OW13415   0.391   9.829   3.640  0.1870  0.0943  0.0770
35392SOL    HW113416   0.413   9.834   3.547  0.7511 -2.0670  0.0329
35392SOL    HW213417   0.470   9.861   3.684  0.8235 -1.0058 -0.2011
35393SOL     OW13418   8.266   6.232  11.814 -0.4969 -0.7014  0.1128
35393SOL    HW113419   8.348   6.281  11.825 -0.6726 -0.1585 -0.8854
35393SOL    HW213420   8.245   6.200  11.902 -0.3879  1.0359  0.8016
35394SOL     OW13421   3.212   8.281  12.236  0.1096  0.6788 -0.1961
35394SOL    HW113422   3.158   8.231  12.298 -0.7720  0.0119 -1.4641
35394SOL    HW213423   3.292   8.230  12.229 -0.6514 -0.4280 -1.2265
35395SOL     OW13424   2.514   4.749   7.260  0.9573  0.3553 -0.2382
35395SOL    HW113425   2.428   4.770   7.224  0.8481  2.3557  1.0394
35395SOL    HW213426   2.571   4.737   7.184 -0.5377 -1.6937 -1.1189
35396SOL     OW13427  10.593  10.667   0.457 -0.2448  0.3226  0.3930
35396SOL    HW113428  10.600  10.648   0.363 -1.5617 -1.0746  0.5303
35396SOL    HW213429  10.525  10.733   0.463 -0.3468  0.2191  0.3801
35397SOL     OW13430   9.483  12.393   7.775  0.3873 -0.3854  0.1108
35397SOL    HW113431   9.571  12.431   7.782  0.9864 -1.3302 -1.6875
35397SOL    HW213432   9.425  12.469   7.783  1.4701  0.6439 -1.1395
35398SOL     OW13433   8.143   8.228   1.941  0.0149  0.1225  0.3970
35398SOL    HW113434   8.166   8.247   2.032 -1.3783 -2.1141  1.2879
35398SOL    HW213435   8.224   8.196   1.902  0.1395 -0.9795  1.4988
35399SOL     OW13436   8.722   9.216  10.229  0.0566 -0.1816  0.1515
35399SOL    HW113437   8.692   9.306  10.242 -0.1099 -0.1533 -0.3765
35399SOL    HW213438   8.695   9.196  10.139  1.6698 -0.1431 -0.3693
35400SOL     OW13439   0.904   9.816  10.486 -0.6994  0.4781 -0.3363
35400SOL    HW113440   0.895   9.742  10.427  1.1993 -0.8624  0.9185
35400SOL    HW213441   0.863   9.788  10.568  0.9556  0.3260  0.4876
35401SOL     OW13442   2.461   1.503   8.140 -0.0952  0.5748  0.7116
35401SOL    HW113443   2.403   1.428   8.154  0.7775  0.2231  2.8384
35401SOL    HW213444   2.411   1.578   8.171 -0.2405  0.5830  0.4544
35402SOL     OW13445   3.698  12.275   0.096 -0.7738  0.0063  0.1248
35402SOL    HW113446   3.720  12.253   0.187 -2.8635 -0.5875  0.5369
35402SOL    HW213447   3.720  12.368   0.088 -1.0165  0.1929  1.4004
35403SOL     OW13448   5.853   7.972   9.988  0.6923 -0.4837  0.0421
35403SOL    HW113449   5.799   7.893   9.992 -1.0152  0.5900 -0.7829
35403SOL    HW213450   5.884   7.984  10.078 -2.8880  0.4415  1.3408
35404SOL     OW13451   9.703  12.490   6.026 -0.5986  0.2458 -0.3380
35404SOL    HW113452   9.694  12.395   6.013  0.4957 -0.1514  1.3811
35404SOL    HW213453   9.629  12.528   5.979 -1.0518 -1.4544 -1.0876
35405SOL     OW13454   3.470   5.968   7.169  0.4610 -0.1889  0.4549
35405SOL    HW113455   3.523   5.985   7.091  0.2810 -1.0044  0.1507
35405SOL    HW213456   3.531   5.980   7.242  1.0986 -1.1936  0.1083
35406SOL     OW13457   8.726   1.873   2.479  0.1213 -0.3544  0.6349
35406SOL    HW113458   8.641   1.901   2.512 -0.1272 -1.0017  0.5573
35406SOL    HW213459   8.730   1.780   2.500  0.0534 -0.7349 -0.9483
35407SOL     OW13460   8.278   2.301   4.350  0.3959  0.4739  0.0801
35407SOL    HW113461   8.341   2.229   4.342  0.4335  0.6032 -0.9905
35407SOL    HW213462   8.196   2.260   4.377  0.6235  0.1406  0.2666
35408SOL     OW13463   2.950  10.543   6.861 -0.1339  0.1535  0.0051
35408SOL    HW113464   2.935  10.574   6.951 -1.1454 -1.2285  0.3640
35408SOL    HW213465   2.934  10.449   6.866  0.7503 -0.1015 -1.4444
35409SOL     OW13466   2.055   7.829   3.571 -0.5688 -0.3033 -0.3270
35409SOL    HW113467   2.119   7.871   3.628 -1.3173  0.2721  0.1010
35409SOL    HW213468   2.101   7.819   3.487  0.3828 -0.7399  0.2327
35410SOL     OW13469   0.163   9.024   3.510  0.7825  0.8338  0.0681
35410SOL    HW113470   0.147   8.931   3.525  1.9268  0.2430 -1.9733
35410SOL    HW213471   0.182   9.059   3.597  0.3425 -0.8184  0.8836
35411SOL     OW13472   8.587   4.059   3.026 -0.1479  0.0251  0.2583
35411SOL    HW113473   8.527   4.055   3.100 -1.1319 -0.3722 -0.5454
35411SOL    HW213474   8.667   4.096   3.063 -0.0454 -1.6530  1.8897
35412SOL     OW13475   9.613   1.973  10.584 -0.5121 -0.3835 -0.6446
35412SOL    HW113476   9.615   1.880  10.560 -2.7223 -0.6011 -0.1987
35412SOL    HW213477   9.571   2.016  10.509 -1.9662 -0.1800  0.2526
35413SOL     OW13478   6.834   6.133  12.290 -0.0923 -0.3401 -0.0754
35413SOL    HW113479   6.816   6.068  12.357  0.6056  0.9306  1.4226
35413SOL    HW213480   6.776   6.110  12.218 -1.6604 -1.1614  1.3602
35414SOL     OW13481  10.901  10.553   7.238  0.2432 -0.1237  0.6594
35414SOL    HW113482  10.863  10.631   7.196  0.3853 -0.3782  0.0400
35414SOL    HW213483  10.835  10.485   7.226  0.6992 -0.4528 -0.0301
35415SOL     OW13484   7.174   8.652   3.219  0.1296  0.1522 -0.4723
35415SOL    HW113485   7.092   8.603   3.221  0.0884  0.2245 -0.3797
35415SOL    HW213486   7.242   8.586   3.236  0.0495  0.1735 -0.0455
35416SOL     OW13487   8.613   1.796   3.412 -0.0015  0.4977 -0.0631
35416SOL    HW113488   8.661   1.715   3.427 -1.0839  0.2092  2.3476
35416SOL    HW213489   8.680   1.864   3.416  0.8972 -0.1927 -2.0008
35417SOL     OW13490   6.212   1.370  10.832 -0.2923  0.2203  0.7114
35417SOL    HW113491   6.291   1.367  10.779 -1.3799 -1.7843 -0.9510
35417SOL    HW213492   6.238   1.414  10.913  2.5020 -0.4364  0.2471
35418SOL     OW13493   7.382   3.913  11.746 -0.1502  0.1485 -1.0145
35418SOL    HW113494   7.363   3.920  11.839 -0.2413  2.1352 -1.1332
35418SOL    HW213495   7.300   3.935  11.702  0.4498  1.5940 -1.5170
35419SOL     OW13496   8.187  11.121   0.497  0.6628 -0.2964  0.8425
35419SOL    HW113497   8.209  11.211   0.476  0.7661 -0.3506  0.7146
35419SOL    HW213498   8.245  11.069   0.441  0.6443 -0.4416  0.9579
35420SOL     OW13499   2.802   6.104   0.900  0.4040 -0.6990 -0.5093
35420SOL    HW113500   2.864   6.133   0.967  1.2915  1.0447 -2.0161
35420SOL    HW213501   2.856   6.057   0.836  0.1200  0.3522 -1.5510
35421SOL     OW13502   8.558   6.135   3.983  0.1323  0.2176 -0.4556
35421SOL    HW113503   8.463   6.143   3.973  0.2189  0.4887 -1.0936
35421SOL    HW213504   8.592   6.137   3.893  0.8358  1.3354 -0.1844
35422SOL     OW13505   1.889   5.420   8.647 -0.0222 -0.0517  0.5305
35422SOL    HW113506   1.949   5.421   8.722 -0.4964 -0.9609  0.9417
35422SOL    HW213507   1.821   5.358   8.672 -1.6857  1.6841  0.4780
35423SOL     OW13508   7.470  11.907  12.651 -0.0047 -0.1351  0.0081
35423SOL    HW113509   7.451  11.917  12.558  0.5754 -1.1612 -0.2393
35423SOL    HW213510   7.525  11.828  12.656 -2.1295 -1.6467  1.4728
35424SOL     OW13511   9.610   3.183   9.877  0.0242  0.3368  1.0466
35424SOL    HW113512   9.667   3.197   9.953  2.5660  0.9970 -0.8790
35424SOL    HW213513   9.534   3.240   9.894  0.1324 -0.1211  3.4090
35425SOL     OW13514   0.135   5.132   2.589 -0.0689 -0.6653 -0.0435
35425SOL    HW113515   0.134   5.046   2.632  1.5706 -0.8287 -0.2713
35425SOL    HW213516   0.218   5.134   2.541 -1.1534  0.1211 -1.9857
35426SOL     OW13517   8.184   7.679   2.012  0.0426 -0.4193  0.0707
35426SOL    HW113518   8.252   7.613   1.997  1.3900  0.8269  0.4789
35426SOL    HW213519   8.215   7.728   2.088 -1.1096  0.4579 -0.0110
35427SOL     OW13520  12.003   8.548   7.103  0.1843  0.3929  0.3895
35427SOL    HW113521  11.954   8.471   7.134  1.4771 -0.9551 -0.7690
35427SOL    HW213522  12.093   8.531   7.129  0.8992  0.3604 -1.8765
35428SOL     OW13523   8.262   5.709   6.514 -0.1891 -0.7358  0.0018
35428SOL    HW113524   8.236   5.798   6.490 -2.1570 -1.2251  0.1735
35428SOL    HW213525   8.317   5.680   6.441  0.5697  0.6246 -0.0125
35429SOL     OW13526   1.898   1.660   8.153 -0.0267  0.2723 -0.0635
35429SOL    HW113527   1.803   1.657   8.136  0.0727 -1.0745 -0.4996
35429SOL    HW213528   1.904   1.694   8.243 -0.9081  0.5601 -0.0930
35430SOL     OW13529   2.439  11.755   5.257  0.9881 -0.3209 -0.0353
35430SOL    HW113530   2.402  11.801   5.182  2.1429  1.6891  0.5316
35430SOL    HW213531   2.397  11.670   5.257 -1.6816  0.9015 -0.8859
35431SOL     OW13532   7.366   6.208   0.464  0.0412 -0.0215 -0.7017
35431SOL    HW113533   7.391   6.119   0.489  1.7161  0.7909  0.6757
35431SOL    HW213534   7.304   6.235   0.532  1.2868  0.6524  0.1917
35432SOL     OW13535   5.350  11.347   4.990  0.4220 -0.5229 -0.2639
35432SOL    HW113536   5.372  11.255   5.004  1.7595 -0.0801  0.7173
35432SOL    HW213537   5.308  11.374   5.072  2.1782  0.3358  0.3964
35433SOL     OW13538   2.465   5.504   6.646 -0.4572 -0.1319 -0.3027
35433SOL    HW113539   2.508   5.478   6.565  1.3427 -0.3509  0.6777
35433SOL    HW213540   2.518   5.576   6.679 -1.5996  0.4499  0.3201
35434SOL     OW13541   3.298  12.167   3.550  0.4990 -0.1264  0.1923
35434SOL    HW113542   3.381  12.152   3.595  0.7798 -0.9065 -0.5535
35434SOL    HW213543   3.254  12.081   3.552 -0.1394  0.1942  0.2802
35435SOL     OW13544   4.623   7.335   9.342 -0.5493  0.1563  0.4714
35435SOL    HW113545   4.559   7.349   9.272 -1.3986  0.4017  1.2811
35435SOL    HW213546   4.633   7.240   9.347 -0.9197  0.1121  0.3974
35436SOL     OW13547   5.752  10.534  10.333  0.2467  0.0125 -0.0544
35436SOL    HW113548   5.756  10.550  10.427 -0.2182  3.2591 -0.4888
35436SOL    HW213549   5.835  10.567  10.299  0.1340 -0.5202 -0.8941
35437SOL     OW13550   7.579   1.892  12.274  0.1553  0.1766  0.0449
35437SOL    HW113551   7.638   1.882  12.200 -0.0699  0.2743 -0.1488
35437SOL    HW213552   7.625   1.851  12.348  1.2796  1.8505  0.3225
35438SOL     OW13553   4.654   3.599   5.585 -0.1462  0.2293 -0.2904
35438SOL    HW113554   4.709   3.523   5.569 -1.4735 -1.0341  0.8552
35438SOL    HW213555   4.585   3.594   5.519 -2.2770 -1.6795  1.8932
35439SOL     OW13556   7.239  10.795  10.517 -0.5956  0.2351  0.7606
35439SOL    HW113557   7.153  10.755  10.500 -0.7158  0.3056  1.1872
35439SOL    HW213558   7.218  10.885  10.543 -0.2737  0.9319 -1.2353
35440SOL     OW13559   7.484  10.333   7.059  0.3056  0.4801 -0.0879
35440SOL    HW113560   7.578  10.324   7.074  0.2877 -0.9094 -0.7039
35440SOL    HW213561   7.465  10.275   6.986 -1.0280  0.7775 -0.0057
35441SOL     OW13562   3.162   5.802   9.482  0.3414 -0.0686 -0.3145
35441SOL    HW113563   3.234   5.853   9.444  1.5002 -1.1671  0.3386
35441SOL    HW213564   3.178   5.804   9.576  2.3062 -4.1368 -0.3420
35442SOL     OW13565   1.136   0.938  12.577 -0.5799  0.3872  0.3217
35442SOL    HW113566   1.053   0.974  12.608 -0.5403 -1.1373  2.4336
35442SOL    HW213567   1.160   0.873  12.644  1.0284 -1.0452 -1.5260
35443SOL     OW13568   9.069   7.987   9.125 -0.2942  0.2082  0.0503
35443SOL    HW113569   9.095   8.035   9.204 -0.7370  1.4064 -0.5160
35443SOL    HW213570   9.050   7.898   9.157 -0.5164  0.6848  1.3073
35444SOL     OW13571  11.533   8.748   8.778 -0.5642  0.0560  0.3594
35444SOL    HW113572  11.498   8.819   8.831 -1.8606 -0.0093 -0.3562
35444SOL    HW213573  11.624   8.773   8.761 -0.0665 -0.0042  2.6711
35445SOL     OW13574   6.630   2.730  12.576  0.0727  0.3862  0.3495
35445SOL    HW113575   6.700   2.788  12.545 -1.0376  1.7356  0.2216
35445SOL    HW213576   6.621   2.752  12.669 -1.3166  1.5332 -0.0154
35446SOL     OW13577   1.698   9.871  10.619 -0.1049  0.2514  0.2201
35446SOL    HW113578   1.754   9.948  10.634 -1.2364  1.3196 -0.8545
35446SOL    HW213579   1.755   9.808  10.574  0.5940  0.8058  0.3160
35447SOL     OW13580  11.425   5.346   1.764 -0.1940 -0.7201 -0.6941
35447SOL    HW113581  11.345   5.364   1.813  0.0471 -0.2643 -0.4672
35447SOL    HW213582  11.404   5.369   1.673 -0.9404 -2.4240 -1.0002
35448SOL     OW13583  12.131   2.460   9.231 -0.7250  0.4586  0.3455
35448SOL    HW113584  12.174   2.493   9.152  0.0840  2.1645  1.4425
35448SOL    HW213585  12.063   2.525   9.250  1.2217  1.9612  2.8440
35449SOL     OW13586  10.187   2.163   9.562  0.1661  0.4433 -0.1416
35449SOL    HW113587  10.126   2.213   9.507 -0.4371  0.9594  0.9596
35449SOL    HW213588  10.143   2.157   9.647  1.3182  0.1409  0.4515
35450SOL     OW13589  10.800   0.054   6.975 -0.1228  0.2352  0.5285
35450SOL    HW113590  10.885   0.074   7.013  0.5591 -1.6660  0.0827
35450SOL    HW213591  10.818   0.035   6.883 -0.9488 -0.7044  0.5519
35451SOL     OW13592   5.685   5.171   1.592  0.4552 -0.2444 -0.1327
35451SOL    HW113593   5.717   5.103   1.651  0.3572 -0.8713 -0.7763
35451SOL    HW213594   5.613   5.213   1.639  2.5154  1.5635  1.5673
35452SOL     OW13595   9.769  10.569  11.299  0.4541  0.1323  0.1332
35452SOL    HW113596   9.741  10.651  11.340  1.5385  1.3151 -1.3957
35452SOL    HW213597   9.745  10.579  11.206  0.9475 -1.1295 -0.1518
35453SOL     OW13598   8.907  11.600   9.408 -0.0218 -0.3092  0.4740
35453SOL    HW113599   8.985  11.652   9.388 -0.5680  0.1844 -0.4443
35453SOL    HW213600   8.905  11.597   9.504 -0.4047  2.0733  0.6076
35454SOL     OW13601   6.228  11.891   6.150 -0.2076  0.5424  0.4603
35454SOL    HW113602   6.245  11.835   6.226 -1.1365 -0.2318  0.1315
35454SOL    HW213603   6.307  11.885   6.097 -0.7555 -1.5725 -0.2190
35455SOL     OW13604  12.455   2.241   0.534  0.0579 -0.1301 -0.2451
35455SOL    HW113605  12.534   2.205   0.575 -0.7455 -0.6116  0.9309
35455SOL    HW213606  12.406   2.164   0.505  0.1755  0.1806 -1.2745
35456SOL     OW13607   1.897   0.030   1.736 -0.1876 -0.0007  0.2913
35456SOL    HW113608   1.849  -0.021   1.670  2.0694  0.3364 -1.7628
35456SOL    HW213609   1.934  -0.036   1.795 -1.8927 -0.3394  1.0224
35457SOL     OW13610   9.299   3.777   9.923  0.0904  0.0390  0.1597
35457SOL    HW113611   9.249   3.714   9.872  1.9167 -0.5507 -1.0157
35457SOL    HW213612   9.289   3.860   9.875 -0.7176  0.2129  0.6118
35458SOL     OW13613   2.725   0.612   9.545 -0.2843  0.1125  0.2852
35458SOL    HW113614   2.729   0.547   9.475  0.1985 -0.1211  0.5156
35458SOL    HW213615   2.809   0.657   9.541 -0.0429 -0.2428  1.0171
35459SOL     OW13616  12.231   4.636   2.569 -0.1222 -0.2676 -0.3726
35459SOL    HW113617  12.247   4.547   2.538 -1.4640 -0.4094 -0.7084
35459SOL    HW213618  12.302   4.688   2.531 -0.6256 -0.7837 -2.1259
35460SOL     OW13619   5.606  12.246   5.637 -0.4554 -0.8834  0.0181
35460SOL    HW113620   5.654  12.276   5.714 -1.1277  0.8816 -0.2045
35460SOL    HW213621   5.533  12.307   5.629 -0.4236 -1.0468 -1.9874
35461SOL     OW13622   7.222   7.413   2.068  1.2589  0.1327  0.9975
35461SOL    HW113623   7.243   7.341   2.128 -1.1916 -0.7032  0.9738
35461SOL    HW213624   7.181   7.370   1.993 -1.1118  1.5277  1.3739
35462SOL     OW13625   8.086  10.081   1.021  0.2743  0.3459  0.7550
35462SOL    HW113626   8.006  10.125   0.991  0.1596 -0.5247 -0.2913
35462SOL    HW213627   8.157  10.133   0.982  0.1218 -0.8863 -1.3037
35463SOL     OW13628   7.360  11.941  10.250  0.5076  0.2961 -0.5145
35463SOL    HW113629   7.280  11.992  10.242 -0.5623 -1.2265 -0.0899
35463SOL    HW213630   7.384  11.919  10.160 -1.5009 -2.0119 -0.6020
35464SOL     OW13631  12.056   3.723   9.726  0.2392  0.7221  0.0906
35464SOL    HW113632  11.995   3.675   9.669 -0.5058  1.5526  0.1713
35464SOL    HW213633  12.000   3.774   9.783  1.0116  0.8239  0.7716
35465SOL     OW13634   0.421  11.044   2.709  0.0894 -0.7241 -0.3633
35465SOL    HW113635   0.410  11.108   2.639 -1.2802 -0.7835 -0.2339
35465SOL    HW213636   0.334  11.034   2.746  1.3127  2.5461  4.2197
35466SOL     OW13637   8.865   0.282   5.989 -0.3468 -0.6247 -0.5267
35466SOL    HW113638   8.809   0.336   5.932 -0.5888 -0.3536 -0.0351
35466SOL    HW213639   8.817   0.276   6.071  0.1631 -0.7351 -0.2330
35467SOL     OW13640   2.162   5.775   0.457  0.2703  0.5192 -0.5786
35467SOL    HW113641   2.196   5.858   0.489 -0.2443  0.4091  0.3070
35467SOL    HW213642   2.198   5.766   0.369 -0.3044  2.0513 -0.9986
35468SOL     OW13643   7.548   5.190   1.566  0.3129  0.6345  0.4073
35468SOL    HW113644   7.540   5.099   1.595  1.3019  0.6795  0.8850
35468SOL    HW213645   7.460   5.215   1.538  0.2035 -0.7843 -0.6643
35469SOL     OW13646   0.451  10.466   6.956 -0.0977 -0.4244  0.4659
35469SOL    HW113647   0.384  10.519   6.999 -0.1635  2.5568 -2.8658
35469SOL    HW213648   0.410  10.438   6.874  2.3277  0.8007 -1.2944
35470SOL     OW13649   6.688   4.922   8.191 -0.1157 -0.5118  0.0476
35470SOL    HW113650   6.751   4.960   8.131 -0.8947  0.0581 -0.4211
35470SOL    HW213651   6.688   4.981   8.267  0.0745 -0.6392  0.1485
35471SOL     OW13652  10.356   9.235  10.778 -0.1721 -0.4430  0.1013
35471SOL    HW113653  10.375   9.264  10.867  0.4548 -0.8595  0.1136
35471SOL    HW213654  10.274   9.278  10.755  0.9149  1.6741 -0.0543
35472SOL     OW13655   5.990   1.484  11.547 -0.4126 -0.5335  0.0124
35472SOL    HW113656   6.004   1.574  11.515  0.0283 -1.3173 -2.1843
35472SOL    HW213657   6.044   1.479  11.626 -0.9663  1.3241  0.5690
35473SOL     OW13658   5.566  12.571   7.534 -0.1371  0.4934 -0.3721
35473SOL    HW113659   5.618  12.600   7.609 -0.9478  0.2110  0.3099
35473SOL    HW213660   5.590  12.631   7.464  2.4071 -0.6377 -0.6026
35474SOL     OW13661   0.014  10.541   2.675 -0.2298 -0.1418 -0.4326
35474SOL    HW113662   0.074  10.485   2.624 -0.9482 -0.2800 -1.1452
35474SOL    HW213663   0.017  10.504   2.763 -2.0207 -2.4654 -1.2473
35475SOL     OW13664   4.960   9.435   0.998 -0.0936 -0.3834 -0.0263
35475SOL    HW113665   4.892   9.421   0.932  1.2199  0.1341 -1.5360
35475SOL    HW213666   5.000   9.349   1.011 -0.3786 -0.4939  0.1362
35476SOL     OW13667   8.487   4.868  10.285 -0.2088 -0.1195  0.5460
35476SOL    HW113668   8.554   4.801  10.272 -1.3580 -1.3471  0.6566
35476SOL    HW213669   8.489   4.886  10.379  0.8853  0.8970  0.3566
35477SOL     OW13670   6.113   2.486  11.544 -0.4103  0.1987 -0.0063
35477SOL    HW113671   6.094   2.444  11.628 -1.5039 -1.0734 -0.8422
35477SOL    HW213672   6.129   2.578  11.565  0.6664 -0.3630  1.7347
35478SOL     OW13673   2.586  11.668  12.207 -0.6584  0.2568  0.1661
35478SOL    HW113674   2.499  11.677  12.246 -1.5570  1.6545 -1.9722
35478SOL    HW213675   2.629  11.752  12.223 -0.8527  0.6680 -1.2750
35479SOL     OW13676   8.776   3.999   0.177 -0.5518 -0.0581  0.0022
35479SOL    HW113677   8.782   3.986   0.271  0.3478  1.4186  0.1858
35479SOL    HW213678   8.738   4.086   0.167  0.6262  0.3794 -0.9563
35480SOL     OW13679   7.195   1.035  10.728 -0.1993 -0.5423  0.0060
35480SOL    HW113680   7.202   1.103  10.661 -2.2039 -1.3666 -1.1335
35480SOL    HW213681   7.241   0.960  10.691 -0.1081 -0.5739  0.1825
35481SOL     OW13682   0.448   6.424   8.123 -0.0115 -0.1970 -0.2013
35481SOL    HW113683   0.471   6.465   8.206 -1.6802 -0.6575  0.5299
35481SOL    HW213684   0.387   6.354   8.147 -2.1226  0.9122 -1.9304
35482SOL     OW13685   4.861   1.832   7.164  0.2887 -0.1189  0.3626
35482SOL    HW113686   4.929   1.769   7.141 -0.5580 -0.5114 -1.2080
35482SOL    HW213687   4.854   1.888   7.086  0.2401  1.2308  1.2953
35483SOL     OW13688   5.084   7.397   3.306 -0.3914 -0.0024 -0.1705
35483SOL    HW113689   5.079   7.397   3.210  3.4165 -0.2139 -0.5047
35483SOL    HW213690   5.055   7.309   3.331  0.0260 -0.4643 -1.2634
35484SOL     OW13691   8.215  11.737   4.967 -0.1530  0.6371 -0.5409
35484SOL    HW113692   8.209  11.756   4.873 -0.8784 -1.5205 -0.9921
35484SOL    HW213693   8.270  11.659   4.972  0.3885  1.1020  0.8906
35485SOL     OW13694   8.057   0.375   1.333 -0.2579 -0.3815 -0.2215
35485SOL    HW113695   7.980   0.346   1.382  0.3949  0.1767  1.2060
35485SOL    HW213696   8.099   0.438   1.391  1.0143 -0.3107 -1.1844
35486SOL     OW13697   8.955   0.210   3.211  0.0275  0.2380  0.9617
35486SOL    HW113698   9.040   0.235   3.245  0.3126 -0.4990  0.8084
35486SOL    HW213699   8.963   0.219   3.116 -0.6658  1.9814  1.0355
35487SOL     OW13700   7.773  12.472  10.952 -0.1139  0.3171  0.3295
35487SOL    HW113701   7.767  12.410  11.024 -1.8353  0.8275  0.6902
35487SOL    HW213702   7.776  12.418  10.873 -0.5660 -0.2427  0.6884
35488SOL     OW13703  11.860   5.934   3.815 -0.1630 -0.2922  0.6381
35488SOL    HW113704  11.788   5.875   3.792  1.6903 -2.2714 -0.5036
35488SOL    HW213705  11.896   5.899   3.896  0.0880  0.1057  0.7040
35489SOL     OW13706   9.256   6.057   5.423 -0.0760 -0.3331 -0.0503
35489SOL    HW113707   9.337   6.100   5.393 -0.1817 -0.2273 -0.1859
35489SOL    HW213708   9.285   5.996   5.490  0.1128 -0.2611 -0.0653
35490SOL     OW13709  11.126   9.533   5.003  0.0026  0.4228  0.7391
35490SOL    HW113710  11.153   9.448   4.969 -1.2977  0.6652 -1.0485
35490SOL    HW213711  11.100   9.583   4.925 -0.1419  2.1388  1.8257
35491SOL     OW13712   9.674  10.066  10.807  0.2703 -0.1516 -0.3816
35491SOL    HW113713   9.623   9.985  10.819  0.6134 -0.0784  2.3277
35491SOL    HW213714   9.654  10.117  10.885 -1.7647  3.5202 -3.0405
35492SOL     OW13715   5.830   6.307   2.943  0.2032 -0.2457 -0.2191
35492SOL    HW113716   5.859   6.228   2.896  2.0043  0.8479 -1.0236
35492SOL    HW213717   5.837   6.377   2.879  1.0643  1.0033  1.1781
35493SOL     OW13718   6.481   4.602   3.902 -0.7353  0.3486 -0.5719
35493SOL    HW113719   6.558   4.633   3.855 -0.6127  0.1013 -0.5345
35493SOL    HW213720   6.439   4.682   3.935 -0.4889  0.4828 -0.5814
35494SOL     OW13721   1.606   9.874   5.704 -0.1299  0.6088  0.1682
35494SOL    HW113722   1.670   9.813   5.667  0.6966  0.4308  1.8286
35494SOL    HW213723   1.601   9.944   5.638  1.5401  0.4734 -0.1713
35495SOL     OW13724   2.608   7.804   5.901 -0.6258 -0.5287  0.5839
35495SOL    HW113725   2.665   7.743   5.856 -0.7229 -0.8085  0.8336
35495SOL    HW213726   2.523   7.760   5.905 -1.7652  1.1008 -2.5052
35496SOL     OW13727   6.094   8.271   9.857  0.3750  0.0158  0.0652
35496SOL    HW113728   6.004   8.297   9.876  0.2494 -0.2940 -0.1023
35496SOL    HW213729   6.089   8.230   9.771  0.1169 -2.7901  1.2930
35497SOL     OW13730   4.603   9.222   4.520 -0.8386  0.4384  0.0708
35497SOL    HW113731   4.541   9.178   4.463  0.1876  0.0154 -0.7568
35497SOL    HW213732   4.608   9.311   4.486 -1.7817  0.7840  0.8072
35498SOL     OW13733   9.426   1.919  10.808  0.3510 -0.2425  0.0186
35498SOL    HW113734   9.478   1.962  10.740  2.3007 -0.6748  1.1491
35498SOL    HW213735   9.338   1.954  10.797  1.0060  1.0368 -1.5681
35499SOL     OW13736   5.917  10.423   3.057  0.4295  0.1185  0.3284
35499SOL    HW113737   6.004  10.462   3.066  0.2437  0.1964  2.0404
35499SOL    HW213738   5.933  10.336   3.020  1.2886 -0.0390  1.0516
35500SOL     OW13739   1.787  10.402   3.665  0.8753 -0.0615 -0.6182
35500SOL    HW113740   1.856  10.363   3.612  0.2282  0.2422 -1.7182
35500SOL    HW213741   1.765  10.483   3.619  0.9593  0.7167  0.6498
35501SOL     OW13742   0.540   6.915  12.174 -0.1907 -0.1479 -0.2475
35501SOL    HW113743   0.574   6.891  12.088 -1.6119  0.0603 -0.9095
35501SOL    HW213744   0.607   6.971  12.213  0.9485 -1.1313 -0.7531
35502SOL     OW13745   9.820   1.885   4.589  0.2904 -0.3484 -0.0812
35502SOL    HW113746   9.750   1.903   4.526 -0.0397 -0.5678  0.2253
35502SOL    HW213747   9.900   1.917   4.545  0.0330 -0.2962 -0.5177
35503SOL     OW13748   5.179   7.986  12.634 -0.5447  0.0337  0.2000
35503SOL    HW113749   5.268   7.957  12.652 -0.4949 -0.2577 -0.5012
35503SOL    HW213750   5.123   7.923  12.681 -0.4034 -0.3506 -0.1451
35504SOL     OW13751   3.264   8.038   7.813 -0.7250  0.2556 -0.4215
35504SOL    HW113752   3.240   8.105   7.877 -1.7328 -0.5313  0.0684
35504SOL    HW213753   3.290   7.963   7.866  0.6472  0.3291 -0.9632
35505SOL     OW13754  12.146   3.696   2.980 -0.3829  0.5801  0.7501
35505SOL    HW113755  12.056   3.728   2.973 -1.1373 -1.4510  0.3406
35505SOL    HW213756  12.152   3.662   3.069 -0.9575 -1.6480  0.0284
35506SOL     OW13757   0.031   6.220   9.845 -0.1994  0.4143 -0.0001
35506SOL    HW113758   0.112   6.173   9.830 -0.8949 -1.0914  0.7248
35506SOL    HW213759   0.039   6.300   9.793  0.6670 -0.9003 -2.0280
35507SOL     OW13760   6.360   7.635  10.460 -0.0515  0.4193  0.7482
35507SOL    HW113761   6.439   7.677  10.423  0.1115  0.4023  1.0734
35507SOL    HW213762   6.376   7.542  10.449 -0.5228  0.4357 -0.2002
35508SOL     OW13763  10.425   7.373   4.699 -0.1545  0.6946 -0.2303
35508SOL    HW113764  10.379   7.345   4.777  0.0797  0.6199 -0.1189
35508SOL    HW213765  10.481   7.299   4.675 -0.9234  0.3437 -1.0169
35509SOL     OW13766   2.830   5.743  11.538 -0.0005  0.3744 -0.0424
35509SOL    HW113767   2.872   5.661  11.566 -0.2554  0.5129  0.7906
35509SOL    HW213768   2.875   5.767  11.458  0.4953 -0.2654  0.0343
35510SOL     OW13769   4.769   5.627   7.675 -0.1225 -0.3699 -0.0514
35510SOL    HW113770   4.770   5.723   7.665 -0.1612 -0.5059 -1.5774
35510SOL    HW213771   4.854   5.606   7.715  1.4592  0.0328 -2.9558
35511SOL     OW13772  10.023  12.081   9.597  0.5890 -0.1084 -0.7094
35511SOL    HW113773   9.970  12.115   9.524 -0.1078  0.7324  0.1541
35511SOL    HW213774  10.113  12.093   9.569  0.3332  0.3239 -1.3761
35512SOL     OW13775   9.870   1.093   5.719  0.1058 -0.0286 -0.2996
35512SOL    HW113776   9.877   1.181   5.757 -1.4453  0.4339 -0.9890
35512SOL    HW213777   9.885   1.106   5.625  0.8701 -0.6684 -0.2711
35513SOL     OW13778   0.808   3.614   2.679 -0.4981 -0.0893  0.8112
35513SOL    HW113779   0.816   3.666   2.600  1.3967 -0.7677  0.5139
35513SOL    HW213780   0.743   3.547   2.657 -0.7096  0.3112  0.1897
35514SOL     OW13781  12.110   5.628   2.070 -0.1156 -0.1304 -0.1159
35514SOL    HW113782  12.103   5.651   2.163 -1.2282  0.6491 -0.3656
35514SOL    HW213783  12.035   5.571   2.054 -0.3538  0.3398 -0.6936
35515SOL     OW13784   1.100   8.818   4.296 -0.4693  0.8325  0.2521
35515SOL    HW113785   1.095   8.852   4.207 -1.2802  0.1086 -0.0010
35515SOL    HW213786   1.063   8.730   4.290  1.5720 -0.1177  0.8765
35516SOL     OW13787   4.305   1.461   4.245  0.1225 -0.1363  0.0986
35516SOL    HW113788   4.266   1.449   4.159 -0.1112  0.7380  0.0763
35516SOL    HW213789   4.331   1.553   4.248  0.5949 -0.2783  0.7705
35517SOL     OW13790   0.499  11.901   0.642 -0.1038  0.0320 -0.0346
35517SOL    HW113791   0.482  11.995   0.656  0.8291 -0.0086  1.6413
35517SOL    HW213792   0.459  11.858   0.717  0.0965 -0.8568 -0.4247
35518SOL     OW13793   7.907  10.232  11.908 -0.0150  0.6979 -0.2306
35518SOL    HW113794   7.969  10.271  11.969 -0.1136 -0.9115  0.9545
35518SOL    HW213795   7.934  10.141  11.901 -0.0516  0.7976 -2.5875
35519SOL     OW13796   7.783   6.300   5.118 -0.3754 -0.2668 -0.3587
35519SOL    HW113797   7.766   6.285   5.025 -2.3963  2.9242 -0.6621
35519SOL    HW213798   7.767   6.393   5.131  0.0319 -0.5402  3.1837
35520SOL     OW13799   0.255   2.430   4.512 -0.0490 -0.0935 -0.1155
35520SOL    HW113800   0.234   2.516   4.476 -1.7379  0.2271  1.5085
35520SOL    HW213801   0.227   2.434   4.604  1.7118 -1.7170  0.5700
35521SOL     OW13802   4.162   1.344   3.732 -0.1665 -0.2270 -0.0885
35521SOL    HW113803   4.087   1.359   3.674 -0.8336 -1.9465  0.2704
35521SOL    HW213804   4.139   1.264   3.780  1.0058  0.3452  1.5029
35522SOL     OW13805   8.576   1.665   4.003  0.2209  0.3922 -0.0475
35522SOL    HW113806   8.593   1.572   4.018 -3.2961 -0.3050  0.2451
35522SOL    HW213807   8.557   1.701   4.089 -2.9033  0.2520 -0.5628
35523SOL     OW13808   1.932   3.261   2.809 -0.0532  0.6865  0.3659
35523SOL    HW113809   1.924   3.199   2.736 -1.3398  2.0023 -0.6670
35523SOL    HW213810   1.931   3.347   2.768  0.1491  1.4521  1.8846
35524SOL     OW13811   8.010  10.244   4.435  0.1215 -0.0358  0.0127
35524SOL    HW113812   8.054  10.177   4.488 -0.7859 -1.1205 -0.5653
35524SOL    HW213813   7.979  10.197   4.357  0.5684  1.3241 -1.0237
35525SOL     OW13814   1.514  10.602   7.907 -0.5026 -0.5885  0.0108
35525SOL    HW113815   1.600  10.642   7.892 -0.6096 -0.6099 -0.6875
35525SOL    HW213816   1.455  10.649   7.848 -0.7835 -1.2378 -0.2297
35526SOL     OW13817   5.039   1.038  12.365  0.4300 -0.0230  0.3516
35526SOL    HW113818   5.015   1.078  12.449 -0.4021 -2.0773  1.1766
35526SOL    HW213819   5.089   0.960  12.390  1.8566  0.3863 -1.1568
35527SOL     OW13820   9.004   4.722   2.725 -0.1700 -0.6699  0.7457
35527SOL    HW113821   9.091   4.704   2.692 -0.6693  1.4331 -2.0577
35527SOL    HW213822   9.018   4.747   2.817  2.1058 -0.7053  0.4644
35528SOL     OW13823   5.933   4.288  12.142  0.0815 -0.1673  0.4717
35528SOL    HW113824   6.001   4.222  12.157 -0.5119 -0.4711  1.9004
35528SOL    HW213825   5.981   4.364  12.109  0.8489 -1.0713 -0.6096
35529SOL     OW13826  10.119   6.844   0.576  0.4278 -0.1200  0.7136
35529SOL    HW113827  10.172   6.809   0.648 -0.2701  0.9137  1.7732
35529SOL    HW213828  10.162   6.813   0.497  0.4823 -2.4052  1.5561
35530SOL     OW13829   5.006   9.600  11.153  0.0182 -0.5144  0.4810
35530SOL    HW113830   5.013   9.514  11.196  0.8227 -0.9502 -0.4678
35530SOL    HW213831   5.044   9.586  11.066 -1.3464  0.4032 -0.2992
35531SOL     OW13832   9.837  11.937   5.461  0.5210 -0.1349 -0.4228
35531SOL    HW113833   9.835  11.909   5.370  2.2299  2.3087 -1.3136
35531SOL    HW213834   9.879  11.864   5.508  0.5749 -1.0008 -1.7622
35532SOL     OW13835   2.816   9.391  11.048  0.3407  0.2426 -0.1054
35532SOL    HW113836   2.859   9.337  11.115  2.0861  0.2423 -1.1564
35532SOL    HW213837   2.759   9.330  11.001 -0.7031  0.1899  1.1713
35533SOL     OW13838   0.246  12.525   2.822 -0.5601 -0.2345  0.4022
35533SOL    HW113839   0.177  12.490   2.766  0.2503 -0.9283 -0.1850
35533SOL    HW213840   0.328  12.492   2.783  0.0133 -0.9891  2.1438
35534SOL     OW13841   8.481   2.049   8.687 -0.7128  0.3512  0.4527
35534SOL    HW113842   8.546   1.982   8.667  0.6822  1.8513 -0.2869
35534SOL    HW213843   8.464   2.038   8.781  1.0909  0.2837  0.8139
35535SOL     OW13844   7.634  11.694  12.001 -0.4005  0.0799  0.0302
35535SOL    HW113845   7.715  11.695  11.951  0.9881 -0.8458  2.0831
35535SOL    HW213846   7.587  11.773  11.975  1.4829  0.9870 -0.7277
35536SOL     OW13847   5.595   0.900   9.821 -0.0631 -0.1218 -0.0653
35536SOL    HW113848   5.535   0.830   9.847  1.0281 -0.0954  2.8980
35536SOL    HW213849   5.682   0.860   9.825  0.5891  1.3301  1.8061
35537SOL     OW13850   2.422   2.315  10.370 -0.9068 -0.0087 -0.0946
35537SOL    HW113851   2.327   2.305  10.362 -1.2166  1.6014  1.2205
35537SOL    HW213852   2.437   2.331  10.463  0.7386 -0.8696 -0.1818
35538SOL     OW13853   9.089   1.685   5.234  0.9429 -0.3905  0.0412
35538SOL    HW113854   9.174   1.706   5.273 -0.3890  2.8028  1.5299
35538SOL    HW213855   9.029   1.677   5.309 -1.3495  4.1979 -0.9492
35539SOL     OW13856   4.798   1.306   0.914 -0.7406  0.1121  0.1153
35539SOL    HW113857   4.749   1.224   0.907 -0.4021 -0.3181  2.2502
35539SOL    HW213858   4.870   1.295   0.852 -0.8005 -1.1257  0.2278
35540SOL     OW13859   6.383   5.196   7.979  0.0556 -0.4229  0.5524
35540SOL    HW113860   6.409   5.264   8.042  0.4119 -0.3841  0.3714
35540SOL    HW213861   6.349   5.125   8.033  0.4233 -0.4197  0.7969
35541SOL     OW13862   9.391   4.162  12.410 -0.4269 -0.0040  0.1165
35541SOL    HW113863   9.297   4.175  12.397 -0.5370 -0.6126  0.2654
35541SOL    HW213864   9.426   4.250  12.422 -0.8061  0.3275 -1.0754
35542SOL     OW13865   2.983   2.258   8.112  0.8940  0.2660  0.6302
35542SOL    HW113866   3.062   2.209   8.134  1.0289  0.7361  1.2252
35542SOL    HW213867   2.911   2.199   8.135  1.0628 -0.2513 -0.1270
35543SOL     OW13868   9.860   6.218   2.555 -0.5419 -0.4747 -0.1777
35543SOL    HW113869   9.825   6.204   2.643  1.3033 -1.1498  0.4990
35543SOL    HW213870   9.837   6.138   2.507  0.3276 -1.0882  0.3805
35544SOL     OW13871  12.246   8.362   2.518 -0.3234  0.3762  0.2474
35544SOL    HW113872  12.337   8.391   2.529 -0.2946 -0.1764  1.6623
35544SOL    HW213873  12.237   8.289   2.579 -1.9780  1.0010  0.8045
35545SOL     OW13874   0.886   2.465   6.721 -0.5157 -0.2382  0.5431
35545SOL    HW113875   0.915   2.518   6.647 -1.0845  0.6461  0.9323
35545SOL    HW213876   0.797   2.437   6.697  0.0402 -1.6789  0.0131
35546SOL     OW13877   6.908   5.158  11.535  0.0484  0.5539  0.7402
35546SOL    HW113878   6.911   5.071  11.495 -0.9654  1.6292 -1.9831
35546SOL    HW213879   6.850   5.148  11.610  0.2637 -1.1722  0.7297
35547SOL     OW13880  12.179   1.105   3.651 -0.3415  0.2581  0.5483
35547SOL    HW113881  12.197   1.057   3.732 -3.2475 -1.2808  0.4443
35547SOL    HW213882  12.131   1.183   3.680 -0.5700  0.1826  0.3744
35548SOL     OW13883   7.912   5.957  10.432  0.3290 -0.3885 -0.0928
35548SOL    HW113884   7.928   5.863  10.433  1.8494 -0.2037 -1.6429
35548SOL    HW213885   7.994   5.996  10.464  0.2947  0.4240 -0.9372
35549SOL     OW13886   9.060  12.461   1.113  0.7394  0.0946 -0.2562
35549SOL    HW113887   9.098  12.498   1.193  1.2615 -0.8352 -0.0699
35549SOL    HW213888   8.967  12.484   1.119  0.7498 -0.0404  0.6653
35550SOL     OW13889  12.710   9.266   8.917  0.2257  0.1093 -0.1556
35550SOL    HW113890  12.682   9.283   9.007  2.8588 -0.5689  0.8844
35550SOL    HW213891  12.725   9.171   8.914 -1.1522 -0.1015 -1.7691
35551SOL     OW13892   2.257   1.735   7.721  0.0192  0.6394  0.2917
35551SOL    HW113893   2.190   1.734   7.652 -1.6225  1.1959  1.8164
35551SOL    HW213894   2.212   1.701   7.799  2.0919 -0.8903  0.9057
35552SOL     OW13895  11.788   8.617  10.567  0.2401  0.5768 -0.6327
35552SOL    HW113896  11.776   8.689  10.506 -0.0138 -0.4153 -1.7737
35552SOL    HW213897  11.879   8.625  10.596  1.1776 -0.3485 -3.0558
35553SOL     OW13898   2.606   9.781   4.635 -0.0376 -0.4677  0.3430
35553SOL    HW113899   2.586   9.830   4.715  1.8240 -0.3156  0.7578
35553SOL    HW213900   2.599   9.689   4.661 -1.4118 -0.4570  0.1178
35554SOL     OW13901   8.311   6.587   1.693  0.1452  0.2451 -0.3743
35554SOL    HW113902   8.275   6.661   1.742  1.0493  0.4427  0.0099
35554SOL    HW213903   8.367   6.542   1.756  0.0828 -0.4168 -0.7872
35555SOL     OW13904   7.611   1.459   9.618  0.2541 -0.2010  0.1525
35555SOL    HW113905   7.557   1.415   9.684  2.0353 -1.2615  0.9689
35555SOL    HW213906   7.567   1.439   9.535 -1.2877  0.0371  0.8693
35556SOL     OW13907   4.460   9.118  10.680 -0.1780 -0.3657  0.1545
35556SOL    HW113908   4.517   9.146  10.751 -2.5267 -0.8319  2.3784
35556SOL    HW213909   4.519   9.101  10.606  2.3735  0.1696  1.9565
35557SOL     OW13910   7.264   3.847   3.346 -0.1165  0.0840  0.2316
35557SOL    HW113911   7.214   3.796   3.282  0.1556  1.8497 -1.4798
35557SOL    HW213912   7.356   3.831   3.323  0.0585 -0.6656  1.3589
35558SOL     OW13913   9.750   9.458   8.329 -0.1250  0.1440 -0.0144
35558SOL    HW113914   9.825   9.415   8.370 -1.3739 -1.2070  0.9335
35558SOL    HW213915   9.739   9.539   8.378  1.0537  0.6582 -0.5524
35559SOL     OW13916  10.575   2.691  10.869  0.0261 -0.2817 -0.2009
35559SOL    HW113917  10.483   2.686  10.845  0.2491 -3.1589 -0.8429
35559SOL    HW213918  10.605   2.774  10.832 -2.0929  0.3221 -0.7088
35560SOL     OW13919   9.392   7.410   9.617  0.2969 -0.6123 -0.3056
35560SOL    HW113920   9.426   7.496   9.642 -1.8008  0.8593 -2.0526
35560SOL    HW213921   9.448   7.348   9.662 -0.2174  1.6501  3.9146
35561SOL     OW13922  12.563   3.953   1.407  0.1914 -0.3823  0.0483
35561SOL    HW113923  12.543   3.907   1.325 -3.3114 -1.0026  1.0777
35561SOL    HW213924  12.619   3.893   1.455 -0.9722 -1.8231 -0.3265
35562SOL     OW13925   9.582   7.030   2.875 -0.2407  0.0574  0.3315
35562SOL    HW113926   9.563   6.977   2.953 -1.4311  0.1636  0.1299
35562SOL    HW213927   9.654   6.983   2.832  0.8593  0.3238  1.7922
35563SOL     OW13928   1.834   7.854   7.491  0.2435 -0.2105 -0.8394
35563SOL    HW113929   1.806   7.784   7.432 -0.9011  0.5783 -1.2785
35563SOL    HW213930   1.840   7.931   7.435 -0.3092  0.4259 -0.0454
35564SOL     OW13931   8.779   0.421   2.934  0.4576 -0.6263 -0.6054
35564SOL    HW113932   8.875   0.426   2.935  0.3892  1.3821  1.3326
35564SOL    HW213933   8.761   0.334   2.900  3.0339 -2.2058  1.6654
35565SOL     OW13934   9.496   8.188   5.135 -0.8110 -0.1509 -0.0391
35565SOL    HW113935   9.498   8.171   5.041  0.8482 -1.0140  0.1115
35565SOL    HW213936   9.509   8.283   5.143 -0.6328 -0.1203 -0.6678
35566SOL     OW13937  12.185  11.484   8.051 -0.3182  0.0243  0.0763
35566SOL    HW113938  12.195  11.446   7.964  1.0430  0.2680  0.1108
35566SOL    HW213939  12.148  11.413   8.104  0.0179 -0.5183 -0.4031
35567SOL     OW13940   1.489  12.334   9.335  0.2877  0.4238  1.1977
35567SOL    HW113941   1.460  12.345   9.245  1.9019  3.5359  0.9441
35567SOL    HW213942   1.419  12.282   9.376 -0.3024 -1.4221 -1.8475
35568SOL     OW13943  11.370   8.355   4.341 -0.2296 -0.3852  0.0041
35568SOL    HW113944  11.278   8.360   4.314 -0.7922 -0.4687  1.7825
35568SOL    HW213945  11.419   8.368   4.260 -1.7891  0.9473 -0.7947
35569SOL     OW13946   7.102   4.116   3.639  0.2158  0.3175 -0.2633
35569SOL    HW113947   7.185   4.127   3.593  0.3118 -0.3262 -0.2498
35569SOL    HW213948   7.078   4.024   3.624 -0.8685  0.6730 -0.9184
35570SOL     OW13949   7.422  11.778  12.274 -0.3575 -0.1749  0.0341
35570SOL    HW113950   7.508  11.737  12.285  0.8677  1.3163 -2.8708
35570SOL    HW213951   7.431  11.864  12.313 -2.1561 -1.5128  3.8997
35571SOL     OW13952   7.974   5.514   3.035  1.2692 -0.0004 -0.4175
35571SOL    HW113953   8.043   5.490   2.973  1.7715  2.7438 -1.0978
35571SOL    HW213954   8.011   5.588   3.084 -1.1492  1.6568 -0.8718
35572SOL     OW13955   7.481   2.036   6.784  0.2223  0.0486 -0.2330
35572SOL    HW113956   7.542   2.055   6.854  1.5663 -0.6438 -1.1684
35572SOL    HW213957   7.503   1.946   6.757 -1.5648 -0.4305 -0.2538
35573SOL     OW13958   7.389   9.978   3.335 -0.0364  0.5278  0.8435
35573SOL    HW113959   7.328  10.018   3.273 -0.0297  0.5418  0.8458
35573SOL    HW213960   7.420   9.899   3.291 -0.5293  0.1870  1.0856
35574SOL     OW13961   4.212  10.543   0.451  0.4848  0.3894 -0.9566
35574SOL    HW113962   4.257  10.492   0.384  0.0486 -2.5480  0.7796
35574SOL    HW213963   4.122  10.511   0.448  0.4724  0.1273  1.0110
35575SOL     OW13964   5.740  12.639   5.063 -0.4217 -0.5244 -0.0069
35575SOL    HW113965   5.714  12.731   5.050 -2.2407 -0.9328  0.4395
35575SOL    HW213966   5.670  12.589   5.020  0.6014 -1.7138 -0.3200
35576SOL     OW13967   1.434   2.192   0.455  0.3246 -0.1422 -0.1174
35576SOL    HW113968   1.451   2.198   0.549  0.8648  0.2618 -0.2352
35576SOL    HW213969   1.507   2.239   0.414  0.1100 -0.3375 -0.7400
35577SOL     OW13970   0.040   1.676   9.787 -0.2206 -0.0287  0.5460
35577SOL    HW113971   0.087   1.645   9.710  0.7591 -1.4865  1.6846
35577SOL    HW213972  -0.004   1.598   9.822 -1.6106  0.8375  0.8329
35578SOL     OW13973   6.966   4.622   0.269  0.3357 -0.9309 -0.0337
35578SOL    HW113974   6.966   4.529   0.292 -2.0319 -1.6137 -2.2574
35578SOL    HW213975   6.882   4.635   0.224  2.3145  1.2563 -3.6104
35579SOL     OW13976   3.486   4.780  10.605 -0.7740 -0.5010  0.4263
35579SOL    HW113977   3.523   4.693  10.590  1.4441  0.6854 -1.6705
35579SOL    HW213978   3.431   4.796  10.529  1.7720  1.2664 -1.1958
35580SOL     OW13979   1.150   5.703   5.586 -0.0636 -0.0626  0.2726
35580SOL    HW113980   1.175   5.773   5.526  0.7695 -0.4210  0.1934
35580SOL    HW213981   1.094   5.746   5.651 -0.3285  0.4829 -0.3031
35581SOL     OW13982   3.932   7.465   3.261 -0.4594  0.3198  0.2106
35581SOL    HW113983   4.011   7.454   3.208 -0.7531 -1.6438  0.1204
35581SOL    HW213984   3.952   7.538   3.319  1.5701 -0.3790  0.4580
35582SOL     OW13985   1.088   0.232  11.508 -0.6216  0.0596  0.1316
35582SOL    HW113986   1.167   0.232  11.561 -0.8993  0.2202  0.5573
35582SOL    HW213987   1.026   0.287  11.557 -0.5574  1.0653 -0.8679
35583SOL     OW13988   0.414   5.854   2.500  0.5015  0.2374  0.7571
35583SOL    HW113989   0.423   5.934   2.448  0.9546 -0.3485 -0.0988
35583SOL    HW213990   0.319   5.845   2.513  0.4005  0.5408  0.2554
35584SOL     OW13991   2.132   9.940  12.399 -0.1967  0.1409 -0.4747
35584SOL    HW113992   2.166   9.969  12.314  0.2359  0.4341 -0.2073
35584SOL    HW213993   2.114   9.847  12.387  0.8473 -0.0604 -0.5930
35585SOL     OW13994  10.204   9.037   1.520  0.2007 -0.5279 -0.1684
35585SOL    HW113995  10.185   8.981   1.445 -0.8450 -1.2000  0.5596
35585SOL    HW213996  10.269   9.100   1.488 -0.6818 -0.3895 -1.8110
35586SOL     OW13997  12.696   7.372   5.671 -0.0062  0.0460 -0.6103
35586SOL    HW113998  12.681   7.294   5.725  1.0503  0.1675 -0.1183
35586SOL    HW213999  12.682   7.446   5.730  0.1019  0.2007 -0.7766
35587SOL     OW14000   8.243   6.630   0.249 -0.0279  0.5375  0.5209
35587SOL    HW114001   8.154   6.640   0.218 -0.0707  0.5573  0.6485
35587SOL    HW214002   8.270   6.543   0.219 -0.4575  0.0903  1.3961
35588SOL     OW14003   7.401   5.586  10.988 -0.0940 -0.1155 -0.0764
35588SOL    HW114004   7.380   5.678  11.005  0.9943 -0.1049  1.3490
35588SOL    HW214005   7.315   5.543  10.981 -0.6118  0.8011  0.4179
35589SOL     OW14006   3.481   3.804   4.964 -0.2417  0.5539 -0.1204
35589SOL    HW114007   3.394   3.777   4.993  0.0393 -1.6645 -1.1764
35589SOL    HW214008   3.480   3.789   4.869  1.1515  0.9382 -0.2139
35590SOL     OW14009  11.150   3.439  12.443  0.6756  0.0708 -0.1675
35590SOL    HW114010  11.222   3.377  12.428  0.2371 -0.1961 -1.2845
35590SOL    HW214011  11.112   3.411  12.526  0.0169 -1.6608 -1.0122
35591SOL     OW14012   9.128   5.663   6.262  0.4604 -0.3764  0.4444
35591SOL    HW114013   9.081   5.605   6.322  1.8551 -1.2467  0.7568
35591SOL    HW214014   9.063   5.727   6.234 -0.7096 -1.1079  1.3865
35592SOL     OW14015   6.578  11.033   5.207 -0.6081 -0.2846 -0.3839
35592SOL    HW114016   6.537  10.971   5.266  0.9903  2.1940  3.7617
35592SOL    HW214017   6.662  10.993   5.185 -1.0480 -1.0615 -0.6978
35593SOL     OW14018   3.988  11.187   5.874  0.0010  0.4404 -0.0938
35593SOL    HW114019   3.920  11.254   5.884 -1.3043 -0.8546  0.0695
35593SOL    HW214020   4.033  11.186   5.958 -2.0112 -0.9613  1.0694
35594SOL     OW14021   6.892   7.403  11.515 -0.0560 -0.7963  0.1597
35594SOL    HW114022   6.964   7.465  11.528 -0.9342  0.3015 -0.0770
35594SOL    HW214023   6.935   7.317  11.509  1.4481  0.0070 -1.8054
35595SOL     OW14024   0.101  12.487   7.684 -0.4519 -0.2049 -0.1377
35595SOL    HW114025   0.087  12.579   7.662 -0.3907 -0.2824 -0.5211
35595SOL    HW214026   0.140  12.450   7.605  1.2148 -0.1612  0.6167
35596SOL     OW14027   4.034   1.217  12.127  0.3830  0.3249 -0.4087
35596SOL    HW114028   4.083   1.284  12.078  0.7837  0.7074  0.4878
35596SOL    HW214029   4.029   1.252  12.216 -0.3877 -0.3306 -0.1870
35597SOL     OW14030   4.062   7.437   5.921 -0.0461  0.1197 -0.2466
35597SOL    HW114031   3.972   7.469   5.924 -0.5049 -1.2056  1.7606
35597SOL    HW214032   4.082   7.413   6.011  1.8992 -0.7782 -0.8732
35598SOL     OW14033   1.818   6.376  10.748  0.1686  0.0697 -0.5208
35598SOL    HW114034   1.750   6.309  10.741 -0.3982  0.5056  0.5462
35598SOL    HW214035   1.772   6.453  10.782  1.5946 -0.3888  2.8507
35599SOL     OW14036  12.015   0.793   8.722 -0.5695 -0.2101 -0.4235
35599SOL    HW114037  12.051   0.872   8.682 -0.5260  0.9435  1.7545
35599SOL    HW214038  11.973   0.823   8.802 -0.2132 -2.4409  0.7026
35600SOL     OW14039   4.973   0.068   7.098 -0.0826  0.2122 -0.2559
35600SOL    HW114040   4.991   0.015   7.021 -0.2713  2.6760 -2.1256
35600SOL    HW214041   5.060   0.091   7.132  0.0390  0.4550 -0.7249
35601SOL     OW14042   0.472   2.961   2.946  0.2849  0.2797  0.3858
35601SOL    HW114043   0.558   2.978   2.986 -0.6524  3.5833  1.3063
35601SOL    HW214044   0.422   2.917   3.015  0.6693  0.0173  0.5026
35602SOL     OW14045   6.626  10.869   0.313  0.0572  0.3509  0.2545
35602SOL    HW114046   6.601  10.864   0.405  0.7894 -0.2209  0.4277
35602SOL    HW214047   6.546  10.896   0.268 -1.0473 -1.8735  0.7313
35603SOL     OW14048   5.297   7.493   9.662 -0.4131  0.4196  0.0178
35603SOL    HW114049   5.230   7.560   9.676  0.6345  1.2126  1.5112
35603SOL    HW214050   5.253   7.410   9.681 -1.3819  0.7775 -0.5962
35604SOL     OW14051   1.760   1.510   4.693  0.0678  0.7777  0.2603
35604SOL    HW114052   1.773   1.575   4.624  1.2302  2.5987  2.0736
35604SOL    HW214053   1.686   1.457   4.663 -0.1437  2.1558 -1.8540
35605SOL     OW14054   9.476   2.662  12.693 -0.2151  0.2956  0.8991
35605SOL    HW114055   9.549   2.601  12.679 -0.0102  0.7662 -0.2235
35605SOL    HW214056   9.398   2.613  12.667 -0.3544 -0.2992  2.3552
35606SOL     OW14057   5.039  10.899  10.504  0.4592  0.1621  0.1198
35606SOL    HW114058   4.996  10.840  10.442 -1.4538  0.8792  0.6959
35606SOL    HW214059   4.968  10.934  10.557  1.7300  1.7640  0.8477
35607SOL     OW14060  10.968   4.821  12.437 -0.5209 -0.1157  0.5526
35607SOL    HW114061  10.972   4.898  12.381  0.5000  0.5990  1.5503
35607SOL    HW214062  11.058   4.787  12.438 -0.6982 -0.5953  1.0940
35608SOL     OW14063   8.808   7.150   0.261 -0.2102  0.0610 -0.3539
35608SOL    HW114064   8.837   7.240   0.276  1.2904 -0.3111 -0.9189
35608SOL    HW214065   8.720   7.160   0.225  0.0161  1.3075 -0.6121
35609SOL     OW14066   1.359   6.754   4.645 -0.3191  0.7410 -0.2519
35609SOL    HW114067   1.412   6.781   4.719  0.1408 -0.4060 -0.1489
35609SOL    HW214068   1.325   6.668   4.670 -0.3320  0.4359 -1.2780
35610SOL     OW14069   1.567   6.159   0.142  0.3977 -0.2210 -0.4185
35610SOL    HW114070   1.582   6.118   0.056  1.2799 -0.5797 -0.1022
35610SOL    HW214071   1.644   6.137   0.193 -0.7821 -1.2968  0.9841
35611SOL     OW14072   1.739  10.358   2.562  0.4881  0.4604  0.3288
35611SOL    HW114073   1.764  10.389   2.475  0.1661  1.3745  0.5532
35611SOL    HW214074   1.756  10.264   2.559 -0.0986  0.3632 -0.9353
35612SOL     OW14075   6.545   1.977   6.121  0.3924  0.1901  0.3834
35612SOL    HW114076   6.614   1.954   6.182  0.8565  0.1318 -0.1597
35612SOL    HW214077   6.507   1.893   6.095  0.4996  0.1845  0.2426
35613SOL     OW14078   8.960   6.055   5.404 -0.6875 -0.3339 -0.1334
35613SOL    HW114079   8.963   6.041   5.310  0.0898 -2.9492  0.2105
35613SOL    HW214080   9.050   6.040   5.434 -1.3494 -1.8771  1.2504
35614SOL     OW14081   2.960   6.183   4.733  0.2219 -0.1452  0.3144
35614SOL    HW114082   3.051   6.197   4.707 -0.4722  2.2488 -1.1493
35614SOL    HW214083   2.965   6.128   4.811  2.9771  1.1103  1.1320
35615SOL     OW14084   8.849  11.792   9.959 -0.0793 -0.5789 -0.2881
35615SOL    HW114085   8.939  11.799   9.926  0.6124  0.5276  1.6613
35615SOL    HW214086   8.805  11.869   9.922  0.4516  0.1774  0.5982
35616SOL     OW14087  10.852   5.562   6.769  0.2397 -0.4614  0.1243
35616SOL    HW114088  10.897   5.552   6.685 -1.3944 -2.7017 -0.5898
35616SOL    HW214089  10.908   5.517   6.832 -0.8755 -3.3587 -0.7848
35617SOL     OW14090  11.209   8.946   4.682  0.0738  0.4659 -0.2159
35617SOL    HW114091  11.241   8.872   4.631  1.1502 -0.7622  2.1047
35617SOL    HW214092  11.118   8.924   4.701 -0.2872  0.8555 -1.3965
35618SOL     OW14093   4.374   6.987   0.086  0.3401  0.2504  0.4638
35618SOL    HW114094   4.284   6.964   0.108  0.0872  1.1844  0.4305
35618SOL    HW214095   4.410   7.024   0.167  0.3510  0.8725  0.1811
35619SOL     OW14096   0.239  11.205   0.752 -0.0091  0.7104 -0.2303
35619SOL    HW114097   0.249  11.186   0.845 -0.5747 -0.5882 -0.4070
35619SOL    HW214098   0.224  11.299   0.748 -0.5742  0.6951  1.0484
35620SOL     OW14099   6.120   1.667  11.775  0.0407 -0.6441 -0.0188
35620SOL    HW114100   6.163   1.715  11.845 -0.5420  0.2762 -0.2708
35620SOL    HW214101   6.041   1.631  11.815 -0.7015  0.5392 -0.3611
35621SOL     OW14102   7.457   0.464   7.995  0.1664  0.4916 -0.3526
35621SOL    HW114103   7.405   0.471   8.074  1.8701 -0.6659  0.9480
35621SOL    HW214104   7.393   0.461   7.924 -1.5854 -1.3482  1.1728
35622SOL     OW14105   7.097   7.938   2.080 -0.1978 -0.0614  0.2879
35622SOL    HW114106   7.101   7.891   2.163  0.4469 -0.2553  0.1513
35622SOL    HW214107   7.080   7.871   2.015  0.6452 -0.0976  0.1014
35623SOL     OW14108  11.168  12.413  12.675 -0.4001  0.3913 -0.6063
35623SOL    HW114109  11.195  12.364  12.753 -0.1142  1.5045  0.0214
35623SOL    HW214110  11.248  12.419  12.622 -0.7167 -0.8059 -1.2491
35624SOL     OW14111   6.983   2.547   3.243  0.1087  0.1266 -0.3000
35624SOL    HW114112   6.946   2.516   3.160 -0.8408  0.8731 -0.1699
35624SOL    HW214113   6.964   2.641   3.244 -2.3541 -0.2704  1.9641
35625SOL     OW14114   7.854   6.051   9.314 -0.1255 -0.0498  0.6400
35625SOL    HW114115   7.803   6.115   9.363  1.9087  1.3656  1.0648
35625SOL    HW214116   7.943   6.088   9.312  0.9185 -2.3907  0.0109
35626SOL     OW14117   3.002   1.661   4.666 -0.9854 -0.4687 -0.2167
35626SOL    HW114118   3.091   1.631   4.684 -1.2880  0.2440  2.9600
35626SOL    HW214119   3.012   1.755   4.648 -1.0435 -0.4813 -0.3124
35627SOL     OW14120   4.425   0.944  11.827  0.1757  0.1300  0.0610
35627SOL    HW114121   4.478   0.870  11.854 -0.1287 -0.5383 -1.1300
35627SOL    HW214122   4.365   0.959  11.900 -1.5756 -2.5255 -0.7077
35628SOL     OW14123  11.351   1.456   5.366 -0.2053 -0.1638 -0.0738
35628SOL    HW114124  11.406   1.501   5.430 -0.1214 -0.2110 -0.1129
35628SOL    HW214125  11.264   1.453   5.407 -0.4752  1.0088 -0.5158
35629SOL     OW14126  10.094  11.045   3.193 -1.0771  0.1423 -0.8416
35629SOL    HW114127  10.105  10.970   3.252 -1.6528  1.5276  1.1011
35629SOL    HW214128  10.001  11.044   3.170 -1.5168  1.3261  0.7457
35630SOL     OW14129   9.227  11.844   8.910 -0.3670 -0.2150  0.1081
35630SOL    HW114130   9.166  11.898   8.860  0.4940 -0.6982 -1.5235
35630SOL    HW214131   9.268  11.906   8.971  0.1196  0.8831 -1.2716
35631SOL     OW14132  10.118   6.487   0.861 -0.1502  0.0286  0.3471
35631SOL    HW114133  10.034   6.519   0.828 -0.4175  0.5400  1.4705
35631SOL    HW214134  10.183   6.540   0.816 -0.4803  0.3871  0.2870
35632SOL     OW14135   7.476   2.245   9.360  0.0947  0.4040  0.3454
35632SOL    HW114136   7.389   2.205   9.359  0.1108  0.2702  1.9813
35632SOL    HW214137   7.460   2.338   9.374  0.2136  0.3816  0.6331
35633SOL     OW14138   2.173   2.716  10.927 -0.4488 -0.2382  0.2811
35633SOL    HW114139   2.163   2.621  10.932 -0.4908 -0.2345  0.2652
35633SOL    HW214140   2.223   2.739  11.006 -0.4798 -0.2675  0.3099
35634SOL     OW14141   4.102   0.521   8.754 -0.0731 -0.2206 -0.1733
35634SOL    HW114142   4.126   0.508   8.662  0.6599  0.2945 -0.0685
35634SOL    HW214143   4.136   0.445   8.799  1.7274  0.6497  0.0214
35635SOL     OW14144   3.558   1.016   5.041  0.3845  0.6408  0.4136
35635SOL    HW114145   3.629   0.953   5.027  0.9993  1.1626  1.0802
35635SOL    HW214146   3.547   1.058   4.955 -1.5890 -1.8671 -0.6870
35636SOL     OW14147   4.139  11.485  10.570  0.0258 -0.4339 -0.0448
35636SOL    HW114148   4.085  11.518  10.643  0.1685  2.0011 -0.9524
35636SOL    HW214149   4.224  11.527  10.583  0.0567  0.0360 -1.5814
35637SOL     OW14150  11.773   8.303   7.548  0.5157  0.2751  0.2171
35637SOL    HW114151  11.684   8.280   7.575  0.2729 -0.3316 -1.0078
35637SOL    HW214152  11.825   8.224   7.565  0.0518 -0.6961 -2.3151
35638SOL     OW14153   0.337   8.225   7.763  0.0761  0.2796 -0.0888
35638SOL    HW114154   0.315   8.140   7.802  4.4905 -1.3154 -0.4414
35638SOL    HW214155   0.386   8.270   7.832  0.4199  1.1986 -0.9118
35639SOL     OW14156   4.772   3.883   0.090  0.0596 -0.4092  0.3123
35639SOL    HW114157   4.725   3.965   0.099  0.5413 -0.1834  0.8702
35639SOL    HW214158   4.864   3.906   0.108  0.0281 -1.2868  1.6986
35640SOL     OW14159  10.991   0.081   5.606  0.0405 -0.1878 -0.0305
35640SOL    HW114160  10.965   0.145   5.671  0.9570  1.7305 -1.4265
35640SOL    HW214161  10.914   0.026   5.593 -1.3171  1.5803  0.1585
35641SOL     OW14162   6.512   6.860   0.769 -0.2909  0.2878  0.9986
35641SOL    HW114163   6.533   6.949   0.799 -0.7110  0.3585  1.0867
35641SOL    HW214164   6.464   6.873   0.687  1.1140  0.0882  0.1171
35642SOL     OW14165   4.899  10.793   6.907 -0.1566 -0.5662 -0.0204
35642SOL    HW114166   4.985  10.811   6.869 -0.1388 -2.2859 -0.8642
35642SOL    HW214167   4.918  10.762   6.995 -0.1133  1.8085  0.8818
35643SOL     OW14168   5.719   1.291   6.164 -0.4479  0.0553  0.1253
35643SOL    HW114169   5.734   1.385   6.166 -1.2914  0.1910  0.1857
35643SOL    HW214170   5.754   1.259   6.248 -1.8170  0.5810  0.9364
35644SOL     OW14171   2.682   0.782   2.385  0.2025 -0.1648 -0.0773
35644SOL    HW114172   2.703   0.819   2.471  1.2638 -0.7564 -0.0636
35644SOL    HW214173   2.692   0.856   2.325 -2.0119  0.6350  0.4446
35645SOL     OW14174   7.039   1.079   8.799 -0.2786 -0.5627 -0.2489
35645SOL    HW114175   7.073   1.049   8.883 -0.1907 -0.2079 -0.1555
35645SOL    HW214176   7.040   1.175   8.805 -0.8116 -0.5426 -0.4413
35646SOL     OW14177   1.493   1.077   8.798 -0.1602  0.0205  0.1412
35646SOL    HW114178   1.553   1.147   8.774 -0.5071  0.3481  0.2350
35646SOL    HW214179   1.517   1.004   8.740  0.5264  0.0486  0.3854
35647SOL     OW14180   2.399   1.247   1.793  0.2923  0.5465 -0.0564
35647SOL    HW114181   2.481   1.204   1.816  0.3622  0.0269 -1.2115
35647SOL    HW214182   2.421   1.305   1.721 -0.3316  0.4558 -0.3324
35648SOL     OW14183  11.301   4.276   6.485 -0.5760 -0.6432  0.6158
35648SOL    HW114184  11.221   4.307   6.443  0.5489  2.1133  0.2948
35648SOL    HW214185  11.362   4.263   6.413 -0.2312 -1.1282  0.9893
35649SOL     OW14186  10.683  11.723   4.648 -0.2987  0.0330 -0.1508
35649SOL    HW114187  10.726  11.739   4.732  0.8568 -1.5894 -0.3970
35649SOL    HW214188  10.735  11.772   4.584 -0.5645  0.4256 -0.0714
35650SOL     OW14189   3.528   9.467   9.114  0.0244  0.4139 -0.0846
35650SOL    HW114190   3.616   9.495   9.090 -0.3950  2.1715  0.3382
35650SOL    HW214191   3.470   9.521   9.060 -0.8355 -1.0208 -0.6863
35651SOL     OW14192   8.453   2.082   4.374 -0.1777 -0.5005  0.3766
35651SOL    HW114193   8.435   2.014   4.439  2.3280 -1.3182  0.3076
35651SOL    HW214194   8.436   2.041   4.290 -0.1216 -0.5608  0.3945
35652SOL     OW14195   8.240  12.575   2.076  0.1178 -0.0309  0.0202
35652SOL    HW114196   8.270  12.534   1.995  0.3902  2.7509 -1.3921
35652SOL    HW214197   8.187  12.507   2.119  1.1467 -2.0631 -1.7420
35653SOL     OW14198  12.668   4.382   9.151  0.3784  0.9792  0.8071
35653SOL    HW114199  12.729   4.374   9.224 -0.0413 -2.4880  0.9583
35653SOL    HW214200  12.611   4.455   9.176  0.7977  0.4990  3.5380
35654SOL     OW14201   0.962   0.813   7.181  0.1287 -0.6629 -0.5074
35654SOL    HW114202   0.973   0.901   7.216 -2.0246 -0.3617 -0.4676
35654SOL    HW214203   1.013   0.757   7.239 -1.8126  0.0538  2.0401
35655SOL     OW14204   8.313   5.188   7.919 -0.2145  0.0512  0.8618
35655SOL    HW114205   8.324   5.236   8.001  0.0582 -0.6336  1.2315
35655SOL    HW214206   8.400   5.150   7.901 -0.5325 -0.6566  0.7988
35656SOL     OW14207  12.569   6.628  10.306  0.5133 -0.2264 -0.2778
35656SOL    HW114208  12.511   6.678  10.363  0.4039  1.5174 -1.8263
35656SOL    HW214209  12.512   6.598  10.235  0.7474 -1.9220  0.2062
35657SOL     OW14210   1.655   5.156   5.330  0.0686 -0.4368  0.5523
35657SOL    HW114211   1.680   5.078   5.279 -0.7809 -0.4886  0.2098
35657SOL    HW214212   1.707   5.227   5.293  1.5592 -0.9925  1.4757
35658SOL     OW14213  10.815  10.185   6.456 -0.2048 -0.1377 -0.0325
35658SOL    HW114214  10.843  10.216   6.369  0.6087  1.0998  0.6418
35658SOL    HW214215  10.847  10.095   6.461  0.6103  0.1128 -0.6319
35659SOL     OW14216   8.842   7.518   9.969 -0.1867  0.1608 -0.4322
35659SOL    HW114217   8.804   7.583   9.910  0.4073 -0.0569 -1.0580
35659SOL    HW214218   8.777   7.447   9.972 -1.1002  1.0032  0.6917
35660SOL     OW14219   6.653   9.120   7.701  0.2201  0.1027 -0.0531
35660SOL    HW114220   6.628   9.089   7.614  1.8860  0.3934 -0.6816
35660SOL    HW214221   6.726   9.063   7.727 -0.2512  0.0122  1.1718
35661SOL     OW14222   9.457   6.080   1.820  0.6164 -0.7073 -0.2461
35661SOL    HW114223   9.522   6.149   1.823  0.3983 -0.4873 -0.6161
35661SOL    HW214224   9.507   5.999   1.826  0.8289 -0.5077  0.8504
35662SOL     OW14225   9.153  11.570   4.358 -0.0261 -0.0210  0.0969
35662SOL    HW114226   9.108  11.517   4.423  0.6393 -1.1804 -0.3695
35662SOL    HW214227   9.114  11.657   4.368 -0.1239 -0.2274  1.8442
35663SOL     OW14228   8.000  10.976  11.272  0.0916 -0.0414  0.5870
35663SOL    HW114229   7.906  10.996  11.269 -0.1612 -1.2250  0.0421
35663SOL    HW214230   8.007  10.903  11.333  0.7336  0.3650  1.0085
35664SOL     OW14231   5.530   9.232   3.743  0.5479  0.1053 -0.0324
35664SOL    HW114232   5.484   9.202   3.821 -2.0126  0.0536 -1.4389
35664SOL    HW214233   5.539   9.327   3.755  2.3325 -0.1976  1.3191
35665SOL     OW14234   7.600   2.173  10.954  0.0914 -0.3881  0.4089
35665SOL    HW114235   7.678   2.156  11.005 -0.2204 -1.6531  0.4909
35665SOL    HW214236   7.528   2.135  11.005 -0.5316  0.4399  0.1696
35666SOL     OW14237   4.582   5.413   1.653  0.0410  0.0722 -0.7067
35666SOL    HW114238   4.497   5.416   1.610  0.5374  0.3881 -1.7201
35666SOL    HW214239   4.611   5.504   1.655 -0.6798  0.3365  1.8863
35667SOL     OW14240   8.861   1.940   1.184 -0.1473 -0.6431  0.0858
35667SOL    HW114241   8.935   1.974   1.135  1.3494 -1.0908  1.9022
35667SOL    HW214242   8.876   1.969   1.274 -4.1595  2.4557  0.0239
35668SOL     OW14243   2.345   2.256   8.171 -0.0520  0.0458 -0.4255
35668SOL    HW114244   2.266   2.203   8.157  0.2377 -1.1622  2.0198
35668SOL    HW214245   2.315   2.329   8.225  0.6975 -1.4524  2.2349
35669SOL     OW14246   0.285  10.757   4.384 -0.1840  0.5190  0.0612
35669SOL    HW114247   0.222  10.751   4.456  1.6761  0.0180  1.7334
35669SOL    HW214248   0.306  10.850   4.379  0.2893  0.4524  0.7314
35670SOL     OW14249   1.401   3.215   1.341 -0.2152 -0.1693 -0.1343
35670SOL    HW114250   1.308   3.193   1.352 -0.0637 -0.3858  0.7531
35670SOL    HW214251   1.401   3.309   1.322 -0.6817 -0.3801 -1.2801
35671SOL     OW14252   3.596  10.468   5.264  0.2833 -0.2702  0.8754
35671SOL    HW114253   3.510  10.445   5.229  0.6239  0.1191 -0.2584
35671SOL    HW214254   3.655  10.399   5.233  0.9040  0.9318 -0.7877
35672SOL     OW14255  12.082   2.446   0.132  0.4613  0.0365  0.4453
35672SOL    HW114256  12.038   2.422   0.213  0.7497 -0.6779  0.3968
35672SOL    HW214257  12.021   2.422   0.062  0.9920 -1.1453  0.3682
35673SOL     OW14258   7.386   2.777  12.615  0.2090 -0.0572  0.0112
35673SOL    HW114259   7.384   2.769  12.711 -0.0302  0.4502  0.0478
35673SOL    HW214260   7.331   2.853  12.596 -0.4999 -0.7028 -0.5929
35674SOL     OW14261   1.696  10.254   6.265  0.3362  0.0867  0.1761
35674SOL    HW114262   1.758  10.201   6.315 -0.0540 -0.4955  0.0581
35674SOL    HW214263   1.616  10.200   6.261 -0.7396  1.4843  1.7230
35675SOL     OW14264   8.398   7.532  10.960  0.3908  0.1994  0.2969
35675SOL    HW114265   8.431   7.486  11.038 -0.1427 -3.0744 -1.2321
35675SOL    HW214266   8.462   7.513  10.892 -1.2745 -0.6822 -1.0830
35676SOL     OW14267   1.040   5.099   4.833  0.3646 -0.2837  0.4683
35676SOL    HW114268   1.020   5.071   4.922  1.7075  1.0712  1.2281
35676SOL    HW214269   1.135   5.102   4.829  0.3441 -0.5538 -1.1097
35677SOL     OW14270  11.745   5.194   0.858 -0.5498 -0.5582  0.2317
35677SOL    HW114271  11.716   5.172   0.947 -1.4336  1.4592  0.4927
35677SOL    HW214272  11.700   5.130   0.802 -0.8138 -1.1861  1.1410
35678SOL     OW14273  12.544  10.900   5.620 -0.6672 -0.0330  0.2517
35678SOL    HW114274  12.568  10.940   5.537 -3.4758 -0.1138 -0.6816
35678SOL    HW214275  12.521  10.810   5.598 -2.1349  0.1466  0.9619
35679SOL     OW14276   8.582  11.612   9.542  0.2403 -0.1971 -0.0742
35679SOL    HW114277   8.578  11.594   9.448 -0.6084 -0.7638  0.0610
35679SOL    HW214278   8.497  11.650   9.563  0.2670 -0.4685  0.5504
35680SOL     OW14279   4.253   9.809   1.232  0.3791  0.6982  0.1649
35680SOL    HW114280   4.330   9.755   1.247  0.6940  1.3219  0.8259
35680SOL    HW214281   4.186   9.747   1.202  1.0207  0.0988 -0.0604
35681SOL     OW14282  12.429   1.782  11.476 -0.2575 -0.0779 -0.5056
35681SOL    HW114283  12.367   1.798  11.547 -0.5551  0.5022 -0.8829
35681SOL    HW214284  12.455   1.869  11.446  2.3014 -0.2626  0.9307
35682SOL     OW14285   9.004   3.587   0.322 -0.1534 -0.1518 -0.0599
35682SOL    HW114286   8.909   3.577   0.314 -0.1109 -1.0722  0.4783
35682SOL    HW214287   9.016   3.648   0.394 -0.3366  0.2545 -0.3678
35683SOL     OW14288   7.672   3.502   7.719 -0.2593  0.0029  0.1927
35683SOL    HW114289   7.631   3.542   7.796 -0.9312 -0.0643 -0.1236
35683SOL    HW214290   7.753   3.551   7.707 -0.9130  1.0632 -0.0029
35684SOL     OW14291  10.435  11.265   7.037  0.3134 -0.4458  0.4648
35684SOL    HW114292  10.342  11.289   7.036  0.4545  0.1914  1.4378
35684SOL    HW214293  10.479  11.343   7.070  0.9739 -1.4593  2.0457
35685SOL     OW14294   1.869   2.067   3.892 -0.1382 -0.3495  0.0023
35685SOL    HW114295   1.823   2.122   3.956  1.2898 -0.5904  1.2893
35685SOL    HW214296   1.808   2.059   3.819 -1.6270  0.3492  1.1213
35686SOL     OW14297   4.872   6.998   5.221  0.2787 -0.3385  0.1482
35686SOL    HW114298   4.824   6.965   5.146 -0.0803 -1.1481  0.7284
35686SOL    HW214299   4.964   6.998   5.192  0.0308  0.6091 -0.7306
35687SOL     OW14300   5.461   4.668  12.399  0.0591 -0.2540 -0.3907
35687SOL    HW114301   5.485   4.578  12.420  0.3616 -0.4444 -1.4852
35687SOL    HW214302   5.544   4.710  12.374 -0.1569  0.1704 -0.4053
35688SOL     OW14303   7.638   8.273   7.304 -0.4262  0.4982  0.4103
35688SOL    HW114304   7.711   8.233   7.257 -0.6042  1.2297 -0.5075
35688SOL    HW214305   7.588   8.198   7.337 -0.4610 -0.0429 -0.8107
35689SOL     OW14306  11.707   3.595  11.436 -0.1984  0.9115 -0.1132
35689SOL    HW114307  11.639   3.601  11.369 -0.2171  0.6859 -0.1131
35689SOL    HW214308  11.678   3.654  11.506 -0.4765  0.6852 -0.0388
35690SOL     OW14309   2.946   2.632   6.646  0.3344  0.2345 -0.1562
35690SOL    HW114310   3.039   2.638   6.668  0.2377  2.4137 -0.1725
35690SOL    HW214311   2.940   2.669   6.558 -0.2837 -1.9989 -1.1440
35691SOL     OW14312   3.005   0.194   7.219  0.2933  0.7750  0.2673
35691SOL    HW114313   2.942   0.168   7.151 -1.5764 -1.5863  2.6752
35691SOL    HW214314   3.088   0.202   7.172 -0.7662 -1.2900 -2.2422
35692SOL     OW14315  11.277   8.463   6.290  0.0919  0.5786  0.2396
35692SOL    HW114316  11.353   8.437   6.342 -0.5650 -0.4596  0.7264
35692SOL    HW214317  11.202   8.445   6.348 -0.6455 -0.3629 -0.9577
35693SOL     OW14318   7.720   5.575   0.798 -0.5682 -0.2276  0.0328
35693SOL    HW114319   7.765   5.578   0.882 -0.9173  0.3028  0.2026
35693SOL    HW214320   7.735   5.486   0.766 -0.7772 -0.5557  0.8346
35694SOL     OW14321   9.050   9.406  12.409 -0.1455  0.2010  0.8952
35694SOL    HW114322   9.135   9.424  12.449 -0.9057  3.3168  1.3813
35694SOL    HW214323   8.987   9.418  12.480 -1.0907 -1.2375  0.3407
35695SOL     OW14324  11.799  11.907   9.018 -0.4554 -0.1218  0.0765
35695SOL    HW114325  11.746  11.845   9.068 -0.8768 -0.2572 -0.5161
35695SOL    HW214326  11.774  11.890   8.927  1.0489 -0.6066 -0.2639
35696SOL     OW14327   0.829  11.371   2.345 -0.2901  0.2759 -0.4855
35696SOL    HW114328   0.754  11.312   2.353 -0.0631 -0.0025 -0.3815
35696SOL    HW214329   0.824  11.405   2.255  0.5288 -1.2082 -1.1318
35697SOL     OW14330   7.280  10.341   2.825 -0.0099  0.1042  0.0264
35697SOL    HW114331   7.345  10.354   2.894  0.3226  2.3484 -0.6364
35697SOL    HW214332   7.199  10.378   2.860  0.1020  1.0383 -0.6411
35698SOL     OW14333   6.305  10.580   9.625 -0.6528 -0.0084 -0.2666
35698SOL    HW114334   6.361  10.649   9.589  0.8389 -1.7406 -1.4642
35698SOL    HW214335   6.238  10.566   9.558 -1.1979  0.4969  0.1532
35699SOL     OW14336   9.959   6.609   6.856  0.1410 -0.0828  0.1287
35699SOL    HW114337   9.947   6.664   6.934  2.3764  0.3835  0.2217
35699SOL    HW214338  10.054   6.600   6.848 -0.0930 -1.7663 -1.4324
35700SOL     OW14339  11.975  10.308   8.587 -1.1183  0.6516 -0.3879
35700SOL    HW114340  12.040  10.378   8.593 -2.1944  1.6352  0.0064
35700SOL    HW214341  11.998  10.261   8.506  0.8299  0.1865  0.3662
35701SOL     OW14342   2.703   8.015   6.010 -0.3573 -0.2128  0.4580
35701SOL    HW114343   2.730   7.977   6.094  0.8772 -0.4997 -0.0423
35701SOL    HW214344   2.667   7.942   5.960 -0.2883 -0.2261  0.4264
35702SOL     OW14345   1.577   4.286   0.705  0.1954 -0.0248 -0.4019
35702SOL    HW114346   1.525   4.364   0.687  0.4384 -0.0725 -1.3797
35702SOL    HW214347   1.663   4.320   0.730  0.6466  0.0190 -1.9599
35703SOL     OW14348   9.930   8.847   8.286  0.0913 -0.1596  0.2055
35703SOL    HW114349   9.843   8.816   8.259 -0.6374  1.9988 -0.1056
35703SOL    HW214350   9.929   8.941   8.267  2.4386 -0.0441  0.3983
35704SOL     OW14351   9.071   3.114   5.765 -0.5045  0.1607 -0.0977
35704SOL    HW114352   9.107   3.046   5.822  0.5821  1.5512  0.9385
35704SOL    HW214353   9.100   3.088   5.677  1.4804  0.2145  0.4874
35705SOL     OW14354   0.330   9.845  10.900 -0.2588  0.2764 -0.0770
35705SOL    HW114355   0.350   9.905  10.972  0.5527 -1.8947  1.6418
35705SOL    HW214356   0.243   9.811  10.921 -1.1080  1.4536 -1.5303
35706SOL     OW14357   7.741  11.389   6.868  0.8786 -0.1370 -0.3363
35706SOL    HW114358   7.737  11.293   6.878  2.1094 -0.1356  0.2723
35706SOL    HW214359   7.658  11.411   6.825  0.8019 -1.5396 -0.9801
35707SOL     OW14360   1.703   7.273   9.534 -0.3601  0.4031 -0.4226
35707SOL    HW114361   1.677   7.325   9.610 -1.2462  2.0646 -1.7904
35707SOL    HW214362   1.751   7.334   9.478  2.0896 -1.2944 -0.3389
35708SOL     OW14363   7.574   2.114   2.130  0.9568  0.3444  0.0119
35708SOL    HW114364   7.650   2.169   2.148  0.3759  1.0646  0.2852
35708SOL    HW214365   7.548   2.139   2.041  0.1103  1.2340  0.4869
35709SOL     OW14366  12.701  11.606   4.893 -0.0237 -0.5615 -0.1714
35709SOL    HW114367  12.705  11.700   4.877  0.7478 -0.2986  1.4074
35709SOL    HW214368  12.622  11.594   4.946 -0.6366 -0.9551 -1.1388
35710SOL     OW14369   8.134   8.247   2.644 -0.0159  0.0619  0.0496
35710SOL    HW114370   8.073   8.186   2.603  1.0301 -0.8886 -0.1229
35710SOL    HW214371   8.135   8.323   2.584  0.8916 -0.9799 -1.3257
35711SOL     OW14372   7.661   2.956  12.165  0.5525  0.2843  0.4148
35711SOL    HW114373   7.607   2.921  12.236  1.1817 -1.2344  0.1677
35711SOL    HW214374   7.693   3.040  12.198 -1.2163  0.8074  0.9162
35712SOL     OW14375   1.870  10.714   9.417 -0.5718  0.1136  0.1550
35712SOL    HW114376   1.907  10.781   9.359 -1.0904 -1.1394 -1.7072
35712SOL    HW214377   1.776  10.726   9.409 -0.6897  1.2520  2.4314
35713SOL     OW14378   8.846   7.245   6.359 -0.3245  0.0615  0.3007
35713SOL    HW114379   8.846   7.269   6.451  0.7939  0.8577  0.1210
35713SOL    HW214380   8.923   7.290   6.323  0.1406 -1.4403 -0.6981
35714SOL     OW14381   8.607  11.109   9.947 -0.0484  0.0815  0.0964
35714SOL    HW114382   8.598  11.197   9.982 -1.9348  0.3121 -0.8386
35714SOL    HW214383   8.613  11.053  10.024  0.2667  0.9291  0.7049
35715SOL     OW14384   0.524   6.943   4.517 -0.8015 -0.0498  0.3379
35715SOL    HW114385   0.518   6.883   4.444 -2.9162  2.0312 -1.3693
35715SOL    HW214386   0.618   6.959   4.528 -0.3431 -1.8063 -0.6667
35716SOL     OW14387   7.840   9.446   5.123  0.5072  0.3553 -0.0974
35716SOL    HW114388   7.870   9.514   5.063  0.5155  2.4208  2.1369
35716SOL    HW214389   7.919   9.401   5.152  0.4451 -1.2951 -2.2029
35717SOL     OW14390  10.372   5.285   7.146  0.0292  0.4366  0.0622
35717SOL    HW114391  10.306   5.216   7.146 -0.6853  1.1070 -0.0750
35717SOL    HW214392  10.365   5.325   7.233 -0.6597  1.3518 -0.3970
35718SOL     OW14393   9.461   5.432   0.668 -0.6232 -0.0502 -0.6366
35718SOL    HW114394   9.531   5.490   0.697 -1.5331  1.3104 -1.0596
35718SOL    HW214395   9.457   5.445   0.573 -1.7229  0.2233 -0.5626
35719SOL     OW14396  10.603   8.587   2.722 -0.1882  0.5620  0.2052
35719SOL    HW114397  10.642   8.501   2.709 -1.0273  0.2640 -0.4253
35719SOL    HW214398  10.668   8.636   2.773  0.1027 -0.5881  0.9780
35720SOL     OW14399  12.454   9.852   1.394  0.4030  0.0095 -0.2400
35720SOL    HW114400  12.525   9.800   1.430  0.2278  1.8219  3.1502
35720SOL    HW214401  12.497   9.928   1.354  0.4606 -0.7071 -1.6140
35721SOL     OW14402  12.670   7.177   9.387  0.0560 -0.2719 -0.6253
35721SOL    HW114403  12.590   7.226   9.406  0.5309  0.0785  0.5575
35721SOL    HW214404  12.640   7.090   9.361 -0.7013 -0.6068  1.1986
35722SOL     OW14405   0.125   4.167   5.504  0.1488  0.2785 -0.2241
35722SOL    HW114406   0.099   4.125   5.422  1.5285  0.2297 -0.6754
35722SOL    HW214407   0.167   4.097   5.554  1.0579  0.7253 -0.3260
35723SOL     OW14408   0.875   2.708  12.579 -0.4536 -0.1613  0.2686
35723SOL    HW114409   0.823   2.774  12.624 -1.3072 -0.6707  0.0552
35723SOL    HW214410   0.885   2.742  12.490 -0.9933 -0.3712  0.1260
35724SOL     OW14411   2.723   6.730  11.064 -0.4220 -0.0678  0.7167
35724SOL    HW114412   2.814   6.701  11.057 -0.4708 -0.5051  1.7260
35724SOL    HW214413   2.684   6.707  10.979  0.4339  0.2278  0.2404
35725SOL     OW14414   6.357  12.425   7.709 -0.3370  0.1552  0.0988
35725SOL    HW114415   6.331  12.335   7.730  0.6043  0.1723  1.4755
35725SOL    HW214416   6.277  12.467   7.678 -0.6289 -1.3571 -1.3608
35726SOL     OW14417  11.078   4.472   3.669 -0.1673 -0.5626 -0.6201
35726SOL    HW114418  11.003   4.531   3.681 -1.4361 -2.0290 -0.9580
35726SOL    HW214419  11.074   4.448   3.577  1.4298  0.2092 -0.9123
35727SOL     OW14420   0.918   2.148   3.112 -0.5567 -0.4309 -0.0489
35727SOL    HW114421   0.973   2.091   3.166  2.2709  2.4795  0.4428
35727SOL    HW214422   0.970   2.163   3.032 -0.8136  1.9318  0.1509
35728SOL     OW14423   0.070   4.383   5.007  0.1623  0.3319  0.0853
35728SOL    HW114424   0.033   4.439   4.938 -0.7526 -0.0116  0.2773
35728SOL    HW214425   0.008   4.390   5.079  0.0966 -0.8136  0.1637
35729SOL     OW14426   9.167  10.799   1.078  0.2030  0.1513  0.0168
35729SOL    HW114427   9.143  10.716   1.036  1.6073  0.0033 -0.5461
35729SOL    HW214428   9.168  10.862   1.006  1.2835  0.1848  0.0485
35730SOL     OW14429   3.283   6.725   2.129 -0.2974  0.5114  0.1842
35730SOL    HW114430   3.191   6.705   2.111 -0.2389 -0.2813  0.7033
35730SOL    HW214431   3.332   6.655   2.085  0.0753  1.1012 -0.3430
35731SOL     OW14432   8.794   2.109   2.343  0.2923 -0.2082 -0.2053
35731SOL    HW114433   8.758   2.029   2.383 -0.5499  0.1815 -0.1540
35731SOL    HW214434   8.728   2.135   2.279 -1.3197  2.4570  2.2918
35732SOL     OW14435   8.399  10.396   8.205 -0.5248  0.2230 -0.5914
35732SOL    HW114436   8.349  10.464   8.249  0.6254  0.5731  0.2262
35732SOL    HW214437   8.343  10.318   8.208 -0.5106  0.2403  1.4753
35733SOL     OW14438   5.512   9.201   1.093  0.5445  0.0908  0.2077
35733SOL    HW114439   5.470   9.170   1.173  0.2837  0.2349  0.1294
35733SOL    HW214440   5.544   9.288   1.114  1.3738 -0.2693  0.4601
35734SOL     OW14441   6.535   9.936   3.292  1.1574 -0.2511  0.2691
35734SOL    HW114442   6.549   9.977   3.207  0.7664  0.2937  0.4599
35734SOL    HW214443   6.442   9.951   3.311  1.0573 -1.0440  0.4402
35735SOL     OW14444   3.043   5.441   0.720  0.1410  0.4954  0.0969
35735SOL    HW114445   2.982   5.369   0.705  0.7919 -0.4553  1.6998
35735SOL    HW214446   3.128   5.406   0.696  0.0059  2.3310 -3.6894
35736SOL     OW14447  12.055   0.635   6.188 -0.5099 -0.0378  0.5924
35736SOL    HW114448  11.969   0.651   6.227 -0.9200 -0.5811 -0.0420
35736SOL    HW214449  12.078   0.547   6.216 -0.8691 -0.4875 -0.4467
35737SOL     OW14450  10.916   6.825   0.208 -0.1372  0.3099 -0.0097
35737SOL    HW114451  10.890   6.873   0.129 -3.6669 -0.9634  0.1769
35737SOL    HW214452  10.850   6.849   0.273  1.2016 -0.6460  1.7747
35738SOL     OW14453  10.594   8.600  12.414  0.3703 -0.2374 -0.1416
35738SOL    HW114454  10.552   8.660  12.353  0.4283 -0.9422 -0.9072
35738SOL    HW214455  10.660   8.555  12.361 -1.5203 -2.9934 -0.4310
35739SOL     OW14456  12.092   4.076   7.559  0.1305  0.6174  0.2479
35739SOL    HW114457  12.143   4.147   7.597 -1.2416  0.9319  1.5995
35739SOL    HW214458  12.003   4.089   7.592 -0.2099 -1.5968  0.3867
35740SOL     OW14459   8.599   7.341   0.136 -0.8512 -0.0086  0.0574
35740SOL    HW114460   8.564   7.324   0.049 -0.9080 -1.1142  0.2869
35740SOL    HW214461   8.521   7.353   0.191 -0.8240  0.0225  0.0892
35741SOL     OW14462   0.516   6.009   8.144 -0.3313  0.5289  0.1240
35741SOL    HW114463   0.556   5.930   8.180  0.1254  0.8252  0.2657
35741SOL    HW214464   0.583   6.047   8.088 -1.2540 -0.2982 -1.6239
35742SOL     OW14465   5.699  11.434   0.972 -0.2814  0.5037 -1.1366
35742SOL    HW114466   5.674  11.391   0.890 -0.8596  0.7177 -1.0723
35742SOL    HW214467   5.760  11.372   1.013 -1.7346 -0.6516 -0.6540
35743SOL     OW14468   7.645  10.896   8.853 -0.7454 -0.1027 -0.2450
35743SOL    HW114469   7.692  10.957   8.911  0.6265 -0.2642 -1.1579
35743SOL    HW214470   7.606  10.953   8.786 -0.5085 -0.1183 -0.3953
35744SOL     OW14471   7.256   7.824   6.108  0.5234 -0.3396 -0.1578
35744SOL    HW114472   7.341   7.861   6.084  1.1799 -0.9520  1.1128
35744SOL    HW214473   7.235   7.865   6.192 -0.2834 -0.4555 -0.2967
35745SOL     OW14474   5.574   9.037   9.290  0.7439  0.2600  0.3912
35745SOL    HW114475   5.634   9.067   9.358 -0.0736  1.0261  0.7819
35745SOL    HW214476   5.524   9.114   9.266 -0.9772 -0.6105  0.9935
35746SOL     OW14477   1.568   4.022   1.084  0.1468 -0.1858  0.0801
35746SOL    HW114478   1.620   4.020   1.164 -0.1672 -1.1996  0.2633
35746SOL    HW214479   1.479   4.000   1.112 -0.5705  2.1780 -0.1153
35747SOL     OW14480   8.461   1.438   1.441  0.2950 -0.2539 -0.3165
35747SOL    HW114481   8.439   1.345   1.443  0.2713 -0.2419  0.1288
35747SOL    HW214482   8.422   1.471   1.360  2.1980 -1.0979 -1.6487
35748SOL     OW14483   8.744  12.032   9.906 -0.0950 -0.7937 -0.7171
35748SOL    HW114484   8.762  12.083   9.828  1.2261  1.3636  0.8958
35748SOL    HW214485   8.658  12.062   9.936  0.4439  0.1456 -0.0682
35749SOL     OW14486   6.348  11.277   0.015 -0.4132 -0.5637  0.1954
35749SOL    HW114487   6.276  11.257   0.074 -0.4522  0.8603  0.6856
35749SOL    HW214488   6.413  11.320   0.071  1.1797 -2.5178 -0.0742
35750SOL     OW14489   1.821   7.035  12.571  0.0884 -0.1117  0.1046
35750SOL    HW114490   1.885   7.103  12.551 -0.3078  0.5712  1.0738
35750SOL    HW214491   1.840   7.010  12.662 -1.4533  0.6206  0.6604
35751SOL     OW14492  12.270   1.748   6.171 -0.1098  0.0159 -0.2216
35751SOL    HW114493  12.225   1.717   6.093 -2.9897  0.3981  1.1277
35751SOL    HW214494  12.250   1.682   6.238 -1.0080  1.5332  1.1052
35752SOL     OW14495   7.480  10.668  11.343 -0.7024 -0.6311  0.2012
35752SOL    HW114496   7.498  10.762  11.350  2.5258 -1.1952  0.9290
35752SOL    HW214497   7.470  10.639  11.434  2.7140 -1.6052  0.3959
35753SOL     OW14498   2.230   5.269   2.832  0.0212  0.3698  0.5116
35753SOL    HW114499   2.191   5.293   2.748  1.5798 -0.9310 -0.6558
35753SOL    HW214500   2.313   5.317   2.835  0.1381  0.1480  1.1511
35754SOL     OW14501   5.123   3.724   7.554  0.5456  0.0295 -0.0619
35754SOL    HW114502   5.158   3.805   7.516  0.6398  0.5378  1.0710
35754SOL    HW214503   5.074   3.683   7.483  0.4437  1.1168 -0.6347
35755SOL     OW14504   0.641   1.175   6.686 -0.9027 -0.0295  0.1258
35755SOL    HW114505   0.559   1.127   6.674 -0.2566 -0.9420 -0.7857
35755SOL    HW214506   0.687   1.127   6.755 -0.0761 -1.0257 -1.0665
35756SOL     OW14507   0.283   3.859   3.986 -0.2522  0.4389  0.0656
35756SOL    HW114508   0.220   3.854   3.914 -1.7495  1.0456  1.2587
35756SOL    HW214509   0.234   3.900   4.057  1.8032  1.8295  0.7720
35757SOL     OW14510   4.382  10.684   2.286  0.5496 -0.0518  0.5849
35757SOL    HW114511   4.313  10.690   2.220  0.9428  1.5226  0.2583
35757SOL    HW214512   4.352  10.740   2.358  1.1175  0.0253  0.7745
35758SOL     OW14513  11.614   2.944   9.643 -0.0942  0.1757 -0.2977
35758SOL    HW114514  11.707   2.943   9.665 -0.1598 -0.7234 -0.0412
35758SOL    HW214515  11.605   3.018   9.582  0.5835  0.9542  0.5230
35759SOL     OW14516  12.586   5.552   3.794  0.0344 -0.0701  0.3523
35759SOL    HW114517  12.502   5.595   3.780  0.1169  0.3145  0.9804
35759SOL    HW214518  12.571   5.461   3.770 -1.4241 -0.7151  3.2151
35760SOL     OW14519   5.706   1.372   9.249  0.1996  0.7518 -0.1406
35760SOL    HW114520   5.668   1.458   9.230  0.5297  1.2111  1.1824
35760SOL    HW214521   5.715   1.330   9.164 -0.2274  1.9187 -0.7756
35761SOL     OW14522   5.554   6.425  10.682 -0.2776 -0.2233 -0.1369
35761SOL    HW114523   5.639   6.460  10.656 -0.9716  0.5816 -1.3825
35761SOL    HW214524   5.499   6.502  10.694 -1.2303 -0.7952 -0.7701
35762SOL     OW14525   8.628  10.373   6.331 -0.1197 -0.1766  0.0912
35762SOL    HW114526   8.575  10.434   6.382  0.7099 -0.3410  1.1939
35762SOL    HW214527   8.716  10.411   6.333  0.7259 -2.0460  1.9748
35763SOL     OW14528   2.542   8.637  10.810 -0.1010  0.1541  0.4813
35763SOL    HW114529   2.534   8.687  10.892  1.4678 -0.9482  1.3482
35763SOL    HW214530   2.622   8.587  10.820 -1.6297 -2.6597 -0.2986
35764SOL     OW14531   9.038  11.686   0.950  0.0227 -0.7644 -0.4304
35764SOL    HW114532   8.987  11.746   0.895  0.2823 -0.1952 -0.0637
35764SOL    HW214533   9.021  11.599   0.913 -1.2183 -0.5950 -0.2997
35765SOL     OW14534  10.746   1.866   1.688 -0.2181 -0.1615  0.0576
35765SOL    HW114535  10.781   1.844   1.602 -1.7306  0.9130 -0.8954
35765SOL    HW214536  10.738   1.962   1.688  0.7705 -0.0317  1.8328
35766SOL     OW14537   7.746   8.954   3.512  0.1902 -0.3062 -0.0811
35766SOL    HW114538   7.751   8.862   3.487 -2.2195 -0.5466  0.1115
35766SOL    HW214539   7.721   8.999   3.431  0.1795  0.0009  0.0925
35767SOL     OW14540   2.562   5.373   9.581  0.4826 -0.5629 -0.0814
35767SOL    HW114541   2.562   5.413   9.494  1.0282 -0.0220  0.1609
35767SOL    HW214542   2.497   5.423   9.631  2.8165  1.6621  0.9308
35768SOL     OW14543   2.315   3.510  11.203  0.5064 -0.4025 -0.4751
35768SOL    HW114544   2.377   3.552  11.144  2.1171 -0.4178  1.1106
35768SOL    HW214545   2.347   3.532  11.291 -1.3855 -0.9553  0.4094
35769SOL     OW14546   8.477   4.383   6.706 -0.2002 -0.2563 -0.7432
35769SOL    HW114547   8.544   4.319   6.682  1.2329 -0.5969  3.3565
35769SOL    HW214548   8.397   4.349   6.667  1.2273 -2.2658 -2.1310
35770SOL     OW14549   0.010  11.985   6.607  0.6254 -0.6740 -0.6591
35770SOL    HW114550   0.017  11.973   6.513  3.6912  0.3139 -0.7017
35770SOL    HW214551   0.082  12.045   6.628 -0.5315 -0.1325  2.1918
35771SOL     OW14552  11.682  12.709  10.524 -0.0795  0.3745  0.0986
35771SOL    HW114553  11.765  12.662  10.531 -1.0992 -1.6689 -0.5672
35771SOL    HW214554  11.653  12.719  10.615  0.5568  0.4772  0.2963
35772SOL     OW14555   8.145   8.266   4.874  0.0434 -0.1044 -0.1481
35772SOL    HW114556   8.163   8.251   4.966 -0.5323  0.5014  0.0723
35772SOL    HW214557   8.167   8.357   4.859  3.2810 -0.9687 -1.4260
35773SOL     OW14558  12.190   0.689   4.637  0.0362  0.4808  0.1766
35773SOL    HW114559  12.179   0.767   4.693 -0.2076  1.1393 -0.7689
35773SOL    HW214560  12.116   0.692   4.577 -1.6551 -2.1000  1.9225
35774SOL     OW14561   0.146   5.615   4.931  0.1365 -0.0652  0.1532
35774SOL    HW114562   0.100   5.692   4.963 -0.5445 -0.7437  0.8690
35774SOL    HW214563   0.131   5.615   4.836  0.1991  0.7056  0.1408
35775SOL     OW14564   2.675   6.348   1.949 -0.0089 -0.2056  0.4784
35775SOL    HW114565   2.652   6.323   1.860  0.9989 -0.5026  0.2876
35775SOL    HW214566   2.655   6.442   1.953 -0.2409 -0.2297  0.0067
35776SOL     OW14567   0.124   5.658   2.131  0.7293  0.1751 -0.1622
35776SOL    HW114568   0.098   5.744   2.163  1.5176  0.8214 -1.2103
35776SOL    HW214569   0.219   5.664   2.121  0.8364 -0.9303  0.0524
35777SOL     OW14570   4.222   7.963  11.928  0.3545 -0.0021 -0.1226
35777SOL    HW114571   4.157   8.011  11.980  0.5813 -0.1910  0.3298
35777SOL    HW214572   4.227   8.013  11.846 -0.0948  0.2214 -0.0194
35778SOL     OW14573   9.429   9.783  10.172  0.0706 -0.4478 -0.9827
35778SOL    HW114574   9.371   9.839  10.222 -0.6735 -1.9242 -0.1384
35778SOL    HW214575   9.492   9.843  10.131 -1.8981  1.1757 -1.7772
35779SOL     OW14576   0.578   7.810  11.123 -0.0144  0.1690  0.1428
35779SOL    HW114577   0.578   7.778  11.213 -1.0235  0.5648  0.2957
35779SOL    HW214578   0.486   7.830  11.105  0.0138 -0.8636 -1.3242
35780SOL     OW14579  11.978   3.196   6.793 -0.1251  0.0785 -0.5726
35780SOL    HW114580  11.954   3.275   6.842 -1.1273  0.4554 -1.6109
35780SOL    HW214581  12.068   3.178   6.819 -1.1519 -0.8959  2.8975
35781SOL     OW14582  11.372   7.860   3.164  0.3476  0.3031 -0.7056
35781SOL    HW114583  11.449   7.890   3.212  0.7194 -0.8186 -0.5669
35781SOL    HW214584  11.396   7.868   3.072  0.3199  0.7308 -0.6772
35782SOL     OW14585   1.685  10.686   9.774 -0.4144  0.5852  0.5947
35782SOL    HW114586   1.752  10.754   9.782  0.2179  0.2826 -1.4159
35782SOL    HW214587   1.602  10.733   9.781  0.0124  1.6027 -0.7426
35783SOL     OW14588  11.548   6.572   1.938 -0.0229  0.3444  0.3252
35783SOL    HW114589  11.520   6.501   1.996  1.4142 -0.3468  0.2342
35783SOL    HW214590  11.605   6.529   1.874 -0.3921  1.3418 -0.6982
35784SOL     OW14591   0.690   2.628   7.327  0.0108 -0.1347  0.2800
35784SOL    HW114592   0.778   2.606   7.358  0.8350  2.9927  0.5358
35784SOL    HW214593   0.671   2.563   7.259  2.2353 -1.2776  0.6581
35785SOL     OW14594   6.198   9.458  10.607  0.0838  1.1503 -0.1383
35785SOL    HW114595   6.172   9.532  10.551 -2.0210  0.7834  0.2883
35785SOL    HW214596   6.130   9.455  10.675  0.4329 -0.8489  0.1582
35786SOL     OW14597   0.791   9.446   4.846  0.2082  0.1053 -0.1250
35786SOL    HW114598   0.785   9.365   4.896 -0.2663  0.1917 -0.0405
35786SOL    HW214599   0.811   9.513   4.911  0.2438  0.1157 -0.1462
35787SOL     OW14600  12.068  11.393  10.778  0.2044  0.3820 -0.0721
35787SOL    HW114601  12.078  11.450  10.854  0.1935  2.0902 -1.3076
35787SOL    HW214602  12.156  11.389  10.740 -0.2145  1.3066 -1.1733
35788SOL     OW14603   8.775  10.922   9.761  0.3779 -0.4780 -0.5713
35788SOL    HW114604   8.853  10.901   9.813  0.9393 -1.8679 -1.9118
35788SOL    HW214605   8.726  10.984   9.816  1.5621 -0.8976  1.0426
35789SOL     OW14606   6.639   7.463   7.276  0.4781 -0.0290  0.1621
35789SOL    HW114607   6.733   7.444   7.273  0.7231  1.1181  0.3132
35789SOL    HW214608   6.622   7.483   7.368 -0.0809 -0.9637  0.2790
35790SOL     OW14609   2.078  11.750   1.650  0.1958 -0.7834  0.6469
35790SOL    HW114610   2.034  11.777   1.569 -2.1206 -3.1683  0.9774
35790SOL    HW214611   2.127  11.671   1.626  0.0748 -1.1021  1.4151
35791SOL     OW14612   7.175   0.478   8.824 -0.0998  0.0600 -0.0109
35791SOL    HW114613   7.239   0.453   8.757  0.0558 -1.3356  0.6178
35791SOL    HW214614   7.164   0.572   8.813  0.8211  0.0543 -1.2096
35792SOL     OW14615   9.934   5.728   4.748 -0.5158  0.5425 -0.0037
35792SOL    HW114616   9.927   5.766   4.836 -0.3088  1.5879 -0.4180
35792SOL    HW214617  10.013   5.768   4.712  0.8136 -1.7530  0.1979
35793SOL     OW14618   8.210   8.815   0.778  0.4322 -0.1508 -0.3520
35793SOL    HW114619   8.201   8.887   0.840 -1.4749  0.3192 -1.0854
35793SOL    HW214620   8.120   8.790   0.758  1.0204 -1.1774 -1.8889
35794SOL     OW14621   7.583   9.589   4.826 -0.3580  0.1419 -0.4348
35794SOL    HW114622   7.518   9.528   4.861 -1.0986  0.7382 -0.7454
35794SOL    HW214623   7.573   9.668   4.877  1.4305 -0.3434  0.7852
35795SOL     OW14624   4.761   9.800   1.635 -0.0028  0.3676  0.4620
35795SOL    HW114625   4.779   9.889   1.665  0.3491  0.1761  0.8261
35795SOL    HW214626   4.786   9.744   1.708  0.8368 -0.1047 -0.1719
35796SOL     OW14627  11.648   3.468   5.252 -0.1863 -0.0716 -0.0302
35796SOL    HW114628  11.682   3.380   5.264 -2.9397 -1.4858 -1.4840
35796SOL    HW214629  11.720   3.526   5.276  2.3962 -2.7031 -0.9035
35797SOL     OW14630  10.507  10.612   3.054  0.0125 -0.1048  0.2067
35797SOL    HW114631  10.506  10.516   3.059  0.7264 -0.1598 -0.5307
35797SOL    HW214632  10.599  10.634   3.040 -0.3268  0.6078 -1.0225
35798SOL     OW14633   1.455   5.394  10.699 -0.2059  0.0494 -0.2207
35798SOL    HW114634   1.421   5.306  10.682  0.7043 -0.3289 -0.1437
35798SOL    HW214635   1.497   5.387  10.785 -0.3955  0.6391 -0.0785
35799SOL     OW14636  11.693  10.148  12.458  0.1422  0.2114 -0.0130
35799SOL    HW114637  11.674  10.235  12.425  2.4386  0.7913  0.0431
35799SOL    HW214638  11.773  10.158  12.510 -1.1576 -1.3767  2.5259
35800SOL     OW14639   1.999   2.397   9.210  0.0232 -0.3182  0.0465
35800SOL    HW114640   2.088   2.369   9.188  0.1006  0.2589 -0.4088
35800SOL    HW214641   1.955   2.403   9.126 -0.0305  0.7734  0.1438
35801SOL     OW14642   9.537   2.997  11.204  0.0375 -0.5684  0.2379
35801SOL    HW114643   9.507   2.909  11.181 -0.7472 -0.1192 -0.5344
35801SOL    HW214644   9.458   3.052  11.195  0.4895  0.1922  0.8149
35802SOL     OW14645   9.026  11.123   6.522 -0.6807 -0.2412  0.2738
35802SOL    HW114646   8.976  11.193   6.479  0.5889 -0.4280 -1.6289
35802SOL    HW214647   9.037  11.057   6.453  0.9975 -0.8069  1.0503
35803SOL     OW14648  11.564   8.876   0.250 -0.0456  0.2245 -0.5649
35803SOL    HW114649  11.526   8.919   0.327  1.1001  1.9684 -0.9084
35803SOL    HW214650  11.656   8.863   0.273 -0.2719 -1.8490 -0.6141
35804SOL     OW14651   6.848   0.365  11.165  0.2293  0.0723 -0.0943
35804SOL    HW114652   6.758   0.334  11.179 -0.4343  1.0749 -1.7679
35804SOL    HW214653   6.902   0.286  11.171 -0.9233 -0.7530 -0.3132
35805SOL     OW14654   1.768   3.367   8.720 -0.3494  0.4307  0.0323
35805SOL    HW114655   1.694   3.311   8.697  0.3850 -0.5778  0.0240
35805SOL    HW214656   1.762   3.377   8.815 -0.6249  0.5359  0.0037
35806SOL     OW14657  11.917   7.693  10.930  0.5317  0.0199 -0.1774
35806SOL    HW114658  11.966   7.612  10.943 -1.3722 -1.1175  0.1892
35806SOL    HW214659  11.831   7.676  10.967 -0.0293  2.1166 -0.3881
35807SOL     OW14660   2.558   3.610   0.619 -0.0358 -0.5677 -1.2875
35807SOL    HW114661   2.504   3.644   0.547  0.2762 -0.7108 -1.5964
35807SOL    HW214662   2.641   3.587   0.577  0.7811  0.9585 -0.6073
35808SOL     OW14663   2.569  12.274   3.352 -0.3418  0.6500 -0.1346
35808SOL    HW114664   2.542  12.278   3.260 -0.4367  2.3700 -0.0567
35808SOL    HW214665   2.518  12.342   3.396  0.1176  0.2405  1.0849
35809SOL     OW14666  11.076   7.432   7.675  0.1543  0.0920  0.4482
35809SOL    HW114667  10.991   7.387   7.670  0.6568 -0.7897 -1.4383
35809SOL    HW214668  11.054   7.523   7.693 -1.0865 -0.4033  1.5720
35810SOL     OW14669   2.326  10.420   9.220 -0.4481 -0.0510  0.0862
35810SOL    HW114670   2.297  10.330   9.204 -1.4856  0.3864 -0.5725
35810SOL    HW214671   2.293  10.470   9.145 -1.1682  1.1479  1.1444
35811SOL     OW14672   4.024   3.479  10.841  0.0002 -0.2669  0.2038
35811SOL    HW114673   3.976   3.397  10.856 -2.0278  0.6182 -0.9098
35811SOL    HW214674   4.073   3.463  10.760 -0.0872 -0.5231  0.2005
35812SOL     OW14675   3.157  10.115   9.002  0.0909 -0.2153 -0.2634
35812SOL    HW114676   3.156  10.150   9.092 -0.2652 -0.6028 -0.1116
35812SOL    HW214677   3.242  10.142   8.967 -0.6404  1.8512 -0.5841
35813SOL     OW14678  12.555  10.833   6.943  0.3047 -0.0924  0.8036
35813SOL    HW114679  12.639  10.789   6.957  0.9329  1.2406  1.4919
35813SOL    HW214680  12.541  10.883   7.024  0.9028  2.9178 -0.7866
35814SOL     OW14681   1.052   5.947   2.918 -0.2511 -0.2843 -0.5121
35814SOL    HW114682   1.124   6.006   2.940 -0.8994  0.9935 -1.7056
35814SOL    HW214683   1.008   5.931   3.002  0.1546  0.6249 -0.1084
35815SOL     OW14684   4.198   3.583   7.920 -0.3115  0.0915 -0.6677
35815SOL    HW114685   4.117   3.588   7.972 -1.3414 -0.6723 -2.1173
35815SOL    HW214686   4.248   3.512   7.961 -0.3985  0.4991  0.1804
35816SOL     OW14687   3.124   1.850   8.549 -0.3973  0.1930 -0.0621
35816SOL    HW114688   3.091   1.933   8.513 -0.1840  0.2727 -0.0759
35816SOL    HW214689   3.192   1.822   8.487 -0.9788 -0.3729 -0.4553
35817SOL     OW14690   7.000  11.699   7.271  0.1233  0.0553 -0.0095
35817SOL    HW114691   6.950  11.764   7.222 -0.5438 -0.9574 -0.7101
35817SOL    HW214692   6.959  11.698   7.358  0.1959  0.6260  0.0344
35818SOL     OW14693  11.866   6.450   8.191  0.2966  0.5096 -0.4275
35818SOL    HW114694  11.959   6.452   8.167  0.3351  2.7059 -0.2929
35818SOL    HW214695  11.847   6.539   8.222 -1.3036 -0.4820  1.7085
35819SOL     OW14696   5.690   7.928  12.549  0.0399 -0.1935 -0.2119
35819SOL    HW114697   5.632   7.974  12.610  0.2191  2.0373 -1.6245
35819SOL    HW214698   5.694   7.984  12.472  2.1069 -1.5049 -1.1565
35820SOL     OW14699  11.777   8.394   7.232  0.3134  0.3173 -0.1535
35820SOL    HW114700  11.708   8.380   7.167 -0.5404 -1.6247  1.1025
35820SOL    HW214701  11.733   8.442   7.302 -0.4591 -2.6828  1.5862
35821SOL     OW14702   6.330   2.857   4.887 -0.2331  0.0461 -0.5430
35821SOL    HW114703   6.314   2.812   4.803 -1.0953 -0.3261 -0.1885
35821SOL    HW214704   6.243   2.866   4.926  0.0454  1.1305 -0.1388
35822SOL     OW14705   8.559  10.370   1.624 -0.0435 -0.1567  0.0855
35822SOL    HW114706   8.614  10.405   1.693 -2.3573 -0.3102  2.1345
35822SOL    HW214707   8.502  10.443   1.599 -0.7443 -0.7137 -0.0117
35823SOL     OW14708  10.735   7.587   1.909 -0.0455  0.2990  0.5057
35823SOL    HW114709  10.753   7.507   1.861  0.1268  0.1354  0.8367
35823SOL    HW214710  10.680   7.559   1.982 -0.1376  0.5110  0.5181
35824SOL     OW14711   1.722   8.772  10.054  0.3520  0.1071 -0.2428
35824SOL    HW114712   1.790   8.768   9.987  0.1284 -0.9594 -0.4219
35824SOL    HW214713   1.648   8.725  10.016 -0.0608  0.1936  0.4357
35825SOL     OW14714   5.387  11.679   0.687  0.5756 -0.0123 -0.5268
35825SOL    HW114715   5.333  11.722   0.621  1.3220 -0.4723 -1.4491
35825SOL    HW214716   5.470  11.661   0.643  0.8111 -1.0402  0.2976
35826SOL     OW14717   8.343   6.109  12.083  0.4665  0.5166 -0.0578
35826SOL    HW114718   8.316   6.018  12.081  0.0200  0.6388 -2.7717
35826SOL    HW214719   8.437   6.107  12.068  0.6422  0.4685  1.0088
35827SOL     OW14720   9.178   7.953  10.283  0.1647  0.2670  0.0295
35827SOL    HW114721   9.247   7.898  10.320  0.1455  0.1826 -0.0613
35827SOL    HW214722   9.194   7.952  10.189 -0.0477  0.1319 -0.0042
35828SOL     OW14723   5.343   4.602  11.201 -0.9473  0.4447  0.1350
35828SOL    HW114724   5.324   4.637  11.288  1.3272 -0.0942  0.9050
35828SOL    HW214725   5.360   4.679  11.147  1.8343  0.7309  1.2732
35829SOL     OW14726   7.934   0.801   3.558 -0.0098 -0.3404  0.1855
35829SOL    HW114727   7.897   0.745   3.490  0.3366 -0.1032 -0.2065
35829SOL    HW214728   8.007   0.750   3.594  0.3535 -0.1147 -0.2237
35830SOL     OW14729   5.907   0.165   6.352  0.3885  0.4753  0.1360
35830SOL    HW114730   5.951   0.222   6.415  0.9714 -0.6510  0.7741
35830SOL    HW214731   5.973   0.147   6.285  0.0132  1.0351 -0.3943
35831SOL     OW14732   1.182  12.194  11.205 -0.0473 -0.4489 -0.1702
35831SOL    HW114733   1.119  12.227  11.140 -0.3054 -1.2919 -0.3640
35831SOL    HW214734   1.127  12.158  11.275  0.2089  1.6202  1.1787
35832SOL     OW14735   9.380   4.174   6.663 -0.0020  0.3321  0.1447
35832SOL    HW114736   9.465   4.146   6.629 -0.1463  0.7500 -0.5708
35832SOL    HW214737   9.318   4.110   6.629 -0.0751  0.4524  0.0519
35833SOL     OW14738  11.149   6.703  11.727  0.3420  0.4185 -0.1572
35833SOL    HW114739  11.240   6.686  11.750  0.8822  1.0063 -1.7650
35833SOL    HW214740  11.100   6.679  11.806  1.8490 -0.1310  0.6541
35834SOL     OW14741   0.773   4.364   9.435 -0.6088 -0.3454  0.1303
35834SOL    HW114742   0.861   4.400   9.429 -0.7671  0.7135  2.6717
35834SOL    HW214743   0.766   4.304   9.360  1.3117  1.4430 -1.6065
35835SOL     OW14744   3.840   1.495   5.085  0.1663  0.5350  0.0210
35835SOL    HW114745   3.837   1.526   4.995 -0.9023 -2.7721 -1.2393
35835SOL    HW214746   3.749   1.495   5.114  0.2069 -0.6043  0.2067
35836SOL     OW14747   6.329   4.906   4.457  0.1466  0.4222 -0.2991
35836SOL    HW114748   6.366   4.919   4.370 -0.5830  2.2725 -0.3711
35836SOL    HW214749   6.368   4.824   4.487  2.8098  1.2695 -1.1306
35837SOL     OW14750   2.475   7.210   4.635 -0.1652 -0.3159 -0.5753
35837SOL    HW114751   2.494   7.152   4.562  0.4652  0.9057 -1.4166
35837SOL    HW214752   2.509   7.296   4.608  1.8290 -0.1998  1.8955
35838SOL     OW14753  12.417  10.558   8.639  0.2750 -0.0486 -0.3363
35838SOL    HW114754  12.464  10.499   8.698  0.7013  0.4779 -0.1436
35838SOL    HW214755  12.421  10.643   8.682 -0.5374  0.0804 -0.4958
35839SOL     OW14756   4.514   7.744   9.581  0.1241 -0.6168 -0.3619
35839SOL    HW114757   4.446   7.710   9.639 -0.4098  0.3840 -0.3698
35839SOL    HW214758   4.584   7.678   9.583 -0.2847 -1.0313  0.6825
35840SOL     OW14759   5.262   3.565   3.030  0.0774 -0.5710  0.0626
35840SOL    HW114760   5.208   3.532   2.958  0.2009 -1.9222  0.5537
35840SOL    HW214761   5.280   3.488   3.083 -0.7773  0.5392  2.0636
35841SOL     OW14762  10.254   7.520   0.580  0.1208  0.1533 -0.0109
35841SOL    HW114763  10.206   7.595   0.615  0.6086  1.2853 -1.6978
35841SOL    HW214764  10.189   7.474   0.526  0.4470  0.6981 -0.8761
35842SOL     OW14765  10.788  11.511  12.113 -0.0832  0.0217 -0.1391
35842SOL    HW114766  10.845  11.557  12.175  1.0398 -1.5520  0.0583
35842SOL    HW214767  10.763  11.430  12.158  1.9174 -1.8790 -2.1682
35843SOL     OW14768   4.736   5.361   4.901 -0.5379  0.9769  0.4475
35843SOL    HW114769   4.663   5.300   4.906  1.3370 -1.3339  3.7247
35843SOL    HW214770   4.725   5.418   4.977  0.7646  0.8615  0.7534
35844SOL     OW14771  12.624  10.446   7.616 -0.3014 -0.2527 -0.2212
35844SOL    HW114772  12.534  10.448   7.648 -0.1673  0.4297  0.1322
35844SOL    HW214773  12.632  10.525   7.562  0.3295  0.1574  0.4520
35845SOL     OW14774   3.209   1.255   4.766 -0.1064 -0.8298 -0.1294
35845SOL    HW114775   3.203   1.342   4.806 -2.4932 -0.7372 -0.5078
35845SOL    HW214776   3.243   1.272   4.678 -1.6889 -0.0533 -0.6402
35846SOL     OW14777  11.961   9.451   4.641  0.3994  0.2324 -0.2031
35846SOL    HW114778  11.994   9.387   4.704 -0.4374 -1.6579 -1.5917
35846SOL    HW214779  12.034   9.511   4.627  2.4734 -2.3456 -1.2992
35847SOL     OW14780  10.374  10.122   3.538  0.1172 -0.0773 -0.1130
35847SOL    HW114781  10.288  10.144   3.572 -0.3018  1.0012 -1.7623
35847SOL    HW214782  10.434  10.142   3.610 -0.9198 -0.0431  0.7627
35848SOL     OW14783   8.916   5.973   6.922 -0.0385 -0.1203  0.3244
35848SOL    HW114784   8.935   6.044   6.982 -0.8981  0.2011  0.2248
35848SOL    HW214785   8.927   6.011   6.835  0.0013 -0.2522  0.2710
35849SOL     OW14786   1.065   7.856   1.394 -0.3307 -0.7676  0.2558
35849SOL    HW114787   1.154   7.842   1.361  0.5798  2.8423  0.7775
35849SOL    HW214788   1.009   7.837   1.318  0.9118 -1.9444 -0.4323
35850SOL     OW14789   9.130   0.795  12.545 -0.4163  0.0945  0.2020
35850SOL    HW114790   9.142   0.704  12.571  0.4715 -0.1244 -0.9020
35850SOL    HW214791   9.204   0.841  12.585 -0.7599  0.3184  0.6005
35851SOL     OW14792   8.233   1.742   2.085 -0.6581  0.8765  0.2199
35851SOL    HW114793   8.209   1.674   2.148  0.2284 -0.8608 -1.2340
35851SOL    HW214794   8.151   1.766   2.043 -1.4029  2.6050  2.4239
35852SOL     OW14795   1.381   1.304   0.014 -0.0046 -0.1364  0.2149
35852SOL    HW114796   1.377   1.337  -0.076  0.1445 -1.4723 -0.3126
35852SOL    HW214797   1.455   1.350   0.053  0.6278 -0.3456 -0.7048
35853SOL     OW14798   9.901   6.881   2.055  0.1753  0.1480  0.2247
35853SOL    HW114799   9.819   6.928   2.067  0.3804  0.8217 -0.9183
35853SOL    HW214800   9.876   6.798   2.014  0.2055  1.0506 -1.6755
35854SOL     OW14801  11.533  11.015   0.100  0.8079  0.0142  0.1016
35854SOL    HW114802  11.494  11.082   0.043 -0.3133 -1.2195 -0.6273
35854SOL    HW214803  11.458  10.980   0.149  1.4942 -0.2389  0.9910
35855SOL     OW14804   5.255  11.641   1.052 -0.6821 -0.0503 -0.0812
35855SOL    HW114805   5.317  11.695   1.100 -0.9703 -0.2606  0.5311
35855SOL    HW214806   5.235  11.569   1.111 -1.0592 -0.3007 -0.5084
35856SOL     OW14807   6.866   2.664   2.684  0.2017 -0.5069 -0.3332
35856SOL    HW114808   6.771   2.659   2.674  0.3934 -1.8315 -1.9326
35856SOL    HW214809   6.900   2.599   2.622  2.1471 -0.2265  0.3707
35857SOL     OW14810   0.156   8.916   4.876  0.2711 -0.4231  0.2427
35857SOL    HW114811   0.111   8.901   4.793  1.3824 -1.1248 -0.2440
35857SOL    HW214812   0.085   8.918   4.941 -0.6017  0.0295 -0.6922
35858SOL     OW14813   0.246  11.146   3.424 -0.3384  0.2484 -0.2957
35858SOL    HW114814   0.226  11.073   3.483 -1.4575  0.1344 -0.7940
35858SOL    HW214815   0.338  11.134   3.402  0.4528  0.9510  2.2983
35859SOL     OW14816  12.507   1.990  10.867  0.2945  0.3178  0.9415
35859SOL    HW114817  12.455   2.044  10.808  1.0315  1.3529  1.2126
35859SOL    HW214818  12.550   2.052  10.925  0.8542 -0.5866  1.5185
35860SOL     OW14819   2.411  11.967   4.463 -0.0763 -0.1711 -0.4076
35860SOL    HW114820   2.393  12.027   4.391  0.2391 -0.5997 -0.8508
35860SOL    HW214821   2.407  11.880   4.424 -0.6991 -0.4520  0.2687
35861SOL     OW14822   0.844  12.257   9.289  0.1154 -0.4519 -0.1989
35861SOL    HW114823   0.906  12.329   9.303 -1.7755  0.7549  3.1080
35861SOL    HW214824   0.763  12.300   9.261 -0.8015 -1.3431  0.9873
35862SOL     OW14825   2.998  11.994   2.037 -0.2363 -0.2171  0.1838
35862SOL    HW114826   2.996  12.049   2.115 -0.5125  0.3265 -0.2006
35862SOL    HW214827   3.084  12.011   1.999  0.1968 -1.0497  0.7607
35863SOL     OW14828   0.638   9.517   8.448  0.3900  0.0794  0.0332
35863SOL    HW114829   0.638   9.528   8.543  0.1897  1.9907 -0.1553
35863SOL    HW214830   0.551   9.545   8.421 -0.2728 -2.3632 -0.5635
35864SOL     OW14831  10.240   1.641   6.025 -0.3472  0.6146  0.3408
35864SOL    HW114832  10.157   1.647   6.072  0.1072 -0.6332  1.3358
35864SOL    HW214833  10.214   1.641   5.932 -1.4055  0.8459  0.6152
35865SOL     OW14834  10.904   5.651   1.773  0.2840  0.8581 -0.6347
35865SOL    HW114835  10.881   5.686   1.687 -3.3733 -0.6788 -0.4397
35865SOL    HW214836  10.861   5.710   1.835 -3.0698 -1.7283 -0.2150
35866SOL     OW14837   2.141   3.299   9.610 -0.5088 -0.2648  0.2388
35866SOL    HW114838   2.060   3.256   9.580  0.3145 -1.8328  0.1308
35866SOL    HW214839   2.204   3.280   9.541  0.1746  0.2303  0.7198
35867SOL     OW14840   2.229   2.044   5.714 -0.6070  0.6585  0.2111
35867SOL    HW114841   2.294   2.047   5.644 -2.5434  0.2204 -1.6901
35867SOL    HW214842   2.153   2.090   5.680 -0.9117  2.3779  2.8992
35868SOL     OW14843  10.517  10.882  12.151  0.1062 -0.2284  0.1204
35868SOL    HW114844  10.562  10.958  12.187  2.0573  0.5151 -3.3853
35868SOL    HW214845  10.586  10.820  12.131 -1.2529 -2.1109  0.9795
35869SOL     OW14846   5.964   8.431  11.527  0.2285  0.5108  0.5270
35869SOL    HW114847   5.986   8.416  11.619 -1.5066 -1.5233  0.6850
35869SOL    HW214848   5.868   8.429  11.524  0.2455 -0.2945 -1.4061
35870SOL     OW14849   3.323   9.333  11.717  0.1173  0.6996 -0.2530
35870SOL    HW114850   3.317   9.260  11.655  2.5563  1.0610 -1.0286
35870SOL    HW214851   3.283   9.407  11.671 -0.7319  0.2941 -0.1838
35871SOL     OW14852   3.660  10.635   5.721  0.4403  0.1739  0.1453
35871SOL    HW114853   3.595  10.584   5.674 -0.5853 -0.2366  1.8996
35871SOL    HW214854   3.609  10.691   5.780  1.6456  0.2780  1.1417
35872SOL     OW14855   5.656   1.301  10.715  0.1696  0.4176 -0.4363
35872SOL    HW114856   5.733   1.297  10.771  0.2791  1.5187 -0.4846
35872SOL    HW214857   5.610   1.219  10.730  0.9668  0.0758  0.1525
35873SOL     OW14858   2.726   9.511   9.864  0.0122 -0.1845 -0.0636
35873SOL    HW114859   2.687   9.565   9.933 -0.9283 -0.8009 -0.0878
35873SOL    HW214860   2.671   9.528   9.787  0.3423 -0.3907 -0.3454
35874SOL     OW14861   2.473   4.602  10.843 -0.0319  0.5989 -0.1082
35874SOL    HW114862   2.479   4.697  10.836 -3.0826  0.8959  0.0010
35874SOL    HW214863   2.408   4.587  10.911 -0.7676 -1.5342 -1.2043
35875SOL     OW14864  12.066  11.702   8.843 -0.8312  0.3310 -0.4011
35875SOL    HW114865  12.054  11.740   8.930 -0.3944  1.1737 -0.7000
35875SOL    HW214866  12.157  11.722   8.820  0.1768 -2.8060  0.3371
35876SOL     OW14867   1.507   6.108   1.970  0.6816 -0.2813 -0.6871
35876SOL    HW114868   1.476   6.199   1.968 -0.2531 -0.6018 -1.1867
35876SOL    HW214869   1.564   6.100   1.894  0.8276 -0.0948 -0.5988
35877SOL     OW14870   7.308   0.341   5.708  0.1924 -0.2169  0.0861
35877SOL    HW114871   7.387   0.382   5.673  0.4432 -0.4487  0.3780
35877SOL    HW214872   7.244   0.412   5.711  0.3999 -0.0188 -0.1120
35878SOL     OW14873   6.978   8.058  12.264 -0.2391 -0.4551  0.2345
35878SOL    HW114874   7.005   8.150  12.257 -0.4367 -0.3677  0.5998
35878SOL    HW214875   6.903   8.050  12.206 -0.6303 -0.2220  0.7000
35879SOL     OW14876  11.673   2.597   0.251  0.2650 -0.4524  0.4131
35879SOL    HW114877  11.606   2.539   0.285  0.8733 -1.2056  0.3481
35879SOL    HW214878  11.720   2.545   0.186  0.6375  0.2039  0.1414
35880SOL     OW14879   8.526   7.963   9.696 -0.3189 -0.5945  0.3002
35880SOL    HW114880   8.605   8.009   9.668 -0.0272 -0.8959  0.6315
35880SOL    HW214881   8.454   8.015   9.658  0.0231 -0.1705  0.2232
35881SOL     OW14882  10.236  11.273   4.335  0.5595  0.9293  0.4273
35881SOL    HW114883  10.237  11.279   4.240  1.6778 -0.3823  0.3285
35881SOL    HW214884  10.201  11.357   4.364 -1.7452  0.6153 -1.1777
35882SOL     OW14885   6.358   7.287   1.254  0.1201 -0.6160  0.4634
35882SOL    HW114886   6.403   7.371   1.252  0.3953 -0.7659 -0.9520
35882SOL    HW214887   6.404   7.233   1.189 -1.6534 -0.9947 -0.5456
35883SOL     OW14888   7.974   4.162   4.979  0.2676  0.4278 -0.0604
35883SOL    HW114889   7.983   4.069   4.961 -0.8701  0.3934 -0.5197
35883SOL    HW214890   8.064   4.195   4.982  0.7053 -0.7924  0.7922
35884SOL     OW14891   1.985   3.053   5.905  0.3518 -0.0656 -0.1850
35884SOL    HW114892   2.072   3.085   5.881 -0.1303  0.7723 -0.8771
35884SOL    HW214893   1.971   3.087   5.993  0.3668  0.5924 -0.4249
35885SOL     OW14894  11.869   2.289   2.722 -0.1872 -0.1698 -0.2618
35885SOL    HW114895  11.842   2.209   2.767  1.6018 -0.8870 -0.3899
35885SOL    HW214896  11.963   2.279   2.709  0.4517  2.7042  1.2361
35886SOL     OW14897   0.225   4.540   4.632 -0.0359 -0.5489  0.4239
35886SOL    HW114898   0.256   4.619   4.588  0.3322 -1.2290 -0.5865
35886SOL    HW214899   0.159   4.571   4.694  1.9872  0.8260  1.9906
35887SOL     OW14900   4.126  11.051   3.100 -0.5454  0.2517 -0.0285
35887SOL    HW114901   4.084  11.137   3.097  1.0658  1.1252  0.9458
35887SOL    HW214902   4.088  11.004   3.026 -1.2048  1.9241 -0.8248
35888SOL     OW14903   8.877  10.908   3.461  0.1257 -0.2329  0.0238
35888SOL    HW114904   8.895  10.814   3.456  1.0251 -0.1499  1.1873
35888SOL    HW214905   8.782  10.915   3.451 -0.1148 -1.3975  1.1538
35889SOL     OW14906   1.536   3.587   2.047 -0.1568 -0.3918  0.2752
35889SOL    HW114907   1.533   3.679   2.075  1.9381 -0.3985  0.6588
35889SOL    HW214908   1.445   3.557   2.053 -0.9571  1.7540 -0.2244
35890SOL     OW14909   6.361   7.814  10.673  0.0763  0.4313  0.2203
35890SOL    HW114910   6.369   7.747  10.605  1.3389 -0.8248  1.5419
35890SOL    HW214911   6.362   7.897  10.625  0.1583 -0.4415 -1.3382
35891SOL     OW14912   0.390   3.138   6.292  0.0350  0.0323  0.5014
35891SOL    HW114913   0.464   3.080   6.311  0.0437 -0.1376 -0.0339
35891SOL    HW214914   0.336   3.134   6.371 -0.0072 -0.7719  0.4427
35892SOL     OW14915   1.607   7.255   4.897 -0.5165  0.7107 -0.4486
35892SOL    HW114916   1.525   7.304   4.903 -0.2657  1.0554  0.2847
35892SOL    HW214917   1.598   7.186   4.963  0.2233  1.4250  0.4278
35893SOL     OW14918   0.181   2.179  10.249  0.2030 -0.3036 -0.0730
35893SOL    HW114919   0.144   2.094  10.271 -0.6793 -0.1454 -0.8763
35893SOL    HW214920   0.169   2.231  10.328 -0.3147 -0.5868  0.0449
35894SOL     OW14921   2.103   6.428   6.495  0.4701  0.2249  0.0931
35894SOL    HW114922   2.054   6.464   6.568  0.7190 -0.8874  0.8220
35894SOL    HW214923   2.091   6.492   6.424 -1.9375  0.0389  0.2668
35895SOL     OW14924   6.139   6.472   4.964  0.2397 -0.1542  0.2546
35895SOL    HW114925   6.204   6.525   5.009  1.3878 -1.0707 -0.2763
35895SOL    HW214926   6.098   6.531   4.901 -0.8798  0.9545  1.9322
35896SOL     OW14927   8.652  10.197  11.639  0.1360  0.5480  0.7975
35896SOL    HW114928   8.619  10.285  11.658 -0.3805  0.5985 -0.2354
35896SOL    HW214929   8.625  10.145  11.715 -1.5912  0.7904  0.4070
35897SOL     OW14930   7.900   0.468   4.599  0.3799  0.2003 -0.0646
35897SOL    HW114931   7.948   0.393   4.565  0.9588 -0.5267  2.1757
35897SOL    HW214932   7.963   0.540   4.599  0.7531 -0.1203  0.5951
35898SOL     OW14933   7.866   9.836   4.895 -0.0835  0.2273  0.0174
35898SOL    HW114934   7.950   9.879   4.911 -0.0324 -0.3353  1.3018
35898SOL    HW214935   7.820   9.840   4.979 -1.5985  1.0326 -0.7923
35899SOL     OW14936   1.631  12.517   8.263  0.5790  0.4427 -0.5445
35899SOL    HW114937   1.586  12.595   8.295  0.7908  0.3171  0.0829
35899SOL    HW214938   1.566  12.471   8.211  0.2067  0.6243 -0.2395
35900SOL     OW14939  12.572   2.257  10.076 -0.8810  0.0970 -0.1186
35900SOL    HW114940  12.546   2.165  10.084  0.1016 -0.1383  0.5544
35900SOL    HW214941  12.600   2.282  10.164 -1.8339  1.2788 -0.1271
35901SOL     OW14942   8.098   7.906   3.180 -0.0596  0.2642 -0.2638
35901SOL    HW114943   8.155   7.915   3.256 -1.4767  0.0117  0.8775
35901SOL    HW214944   8.126   7.825   3.138 -0.0903 -0.2909  0.7466
35902SOL     OW14945  11.119   4.828   2.387 -0.6427  0.0848  0.0921
35902SOL    HW114946  11.086   4.888   2.454 -0.8241 -0.2272  0.2854
35902SOL    HW214947  11.201   4.868   2.358 -2.4664  2.4177 -2.4300
35903SOL     OW14948   6.937   0.422   8.092 -0.1307  0.5174  0.4335
35903SOL    HW114949   7.014   0.403   8.146  1.1386  2.3582 -0.6211
35903SOL    HW214950   6.969   0.480   8.024 -2.4311  1.1539 -0.1988
35904SOL     OW14951   5.002   1.553  12.529 -0.2891 -0.2933  0.3814
35904SOL    HW114952   4.955   1.601  12.597  0.7415  0.8893  0.3039
35904SOL    HW214953   4.948   1.476  12.512 -0.6840 -0.5117  2.3743
35905SOL     OW14954   2.846   9.096   8.370 -0.4546  0.4194  0.0855
35905SOL    HW114955   2.801   9.159   8.314 -1.3766 -0.8638 -0.6873
35905SOL    HW214956   2.926   9.074   8.323 -0.5352  0.4021 -0.0433
35906SOL     OW14957  10.265   2.141   3.107  0.9352  0.5629 -0.1845
35906SOL    HW114958  10.339   2.144   3.046  2.1475 -2.7516  0.9072
35906SOL    HW214959  10.305   2.117   3.191 -0.9299  2.9044  1.5036
35907SOL     OW14960  12.388   7.269   5.726  0.9391 -0.1231 -0.0582
35907SOL    HW114961  12.341   7.352   5.722 -1.6390 -1.4301  1.0554
35907SOL    HW214962  12.393   7.248   5.820  0.9052 -1.5622 -0.3545
35908SOL     OW14963  11.959  10.251   6.210 -0.3436 -0.6555  0.0131
35908SOL    HW114964  11.939  10.216   6.124  1.5175  0.1042 -0.7770
35908SOL    HW214965  11.927  10.341   6.208  0.8564 -0.2228 -0.3773
35909SOL     OW14966  12.569  10.640   8.255 -0.1154 -0.8549 -0.2249
35909SOL    HW114967  12.546  10.623   8.164  1.7799 -2.0190 -0.5406
35909SOL    HW214968  12.605  10.728   8.256  1.4164 -1.4400 -0.9643
35910SOL     OW14969   4.381   9.128   3.697 -0.3110 -0.0985 -0.8737
35910SOL    HW114970   4.461   9.139   3.645 -1.0526  0.8649 -1.8510
35910SOL    HW214971   4.314   9.176   3.649 -1.2663 -0.0492  0.4522
35911SOL     OW14972  10.817  10.221   0.244  0.1431  0.2309  0.2309
35911SOL    HW114973  10.898  10.255   0.280  0.1920 -0.7591  1.1162
35911SOL    HW214974  10.748  10.274   0.283  0.3405  1.1100 -0.5653
35912SOL     OW14975   9.312   5.698  11.715  0.1467 -0.3678  0.3022
35912SOL    HW114976   9.344   5.757  11.647 -0.9810 -0.7081 -0.5440
35912SOL    HW214977   9.225   5.730  11.735 -0.0768 -1.1319  0.5691
35913SOL     OW14978   8.547   3.804  11.538 -0.2435 -0.3550 -0.7048
35913SOL    HW114979   8.493   3.879  11.563 -0.3616 -0.6270 -0.1178
35913SOL    HW214980   8.485   3.740  11.504 -0.4757 -1.1316  1.0635
35914SOL     OW14981   1.502   3.089  12.467 -0.3635  0.1160 -0.6031
35914SOL    HW114982   1.442   3.016  12.452  0.8882 -0.9663 -0.5306
35914SOL    HW214983   1.545   3.067  12.550 -0.2775  1.1553 -0.3663
35915SOL     OW14984   0.695   7.141   7.229 -0.2194  0.6585 -0.3959
35915SOL    HW114985   0.615   7.111   7.187  0.9103 -1.3430 -1.2878
35915SOL    HW214986   0.717   7.072   7.291  0.2704  1.6881  0.6172
35916SOL     OW14987  12.371   7.275  11.107  0.4343  0.2338 -0.1128
35916SOL    HW114988  12.359   7.368  11.127 -1.2024  0.0574 -0.1835
35916SOL    HW214989  12.283   7.243  11.087  1.3304 -0.6745 -3.0261
35917SOL     OW14990   6.115   3.639   0.336  0.0350  0.4201 -0.6485
35917SOL    HW114991   6.083   3.632   0.426  1.3228  0.1867 -0.1849
35917SOL    HW214992   6.153   3.553   0.317  2.5033  1.3313 -0.2817
35918SOL     OW14993  10.661   1.381   5.430 -0.0081 -0.4739  0.5557
35918SOL    HW114994  10.600   1.407   5.499  2.5037 -0.1244  2.8448
35918SOL    HW214995  10.661   1.455   5.369 -2.7285 -1.0461 -0.2569
35919SOL     OW14996   2.191   0.826  10.208 -0.1796 -0.3322  0.3252
35919SOL    HW114997   2.146   0.879  10.143  0.3113 -0.9318 -0.5191
35919SOL    HW214998   2.226   0.751  10.159  0.4581 -0.6430  1.2192
35920SOL     OW14999   8.434   2.313   9.005  1.1837 -0.1513  0.0160
35920SOL    HW115000   8.480   2.252   9.063  2.2080 -0.2845 -0.9206
35920SOL    HW215001   8.357   2.264   8.975  1.2195 -0.4584  0.4124
35921SOL     OW15002   8.591   4.117  12.508  0.2199  0.2391  0.9278
35921SOL    HW115003   8.522   4.097  12.446  1.6980  0.8576 -1.0122
35921SOL    HW215004   8.564   4.201  12.547 -0.6562 -0.0883  1.0489
35922SOL     OW15005   2.186   1.981   8.976  1.0587  0.1572  0.4475
35922SOL    HW115006   2.255   1.915   8.988  0.4438 -0.5579  0.1593
35922SOL    HW215007   2.108   1.941   9.015 -0.0106 -0.4958 -2.1801
35923SOL     OW15008   0.962   9.068   2.560 -0.1185 -0.0269 -0.3402
35923SOL    HW115009   0.970   9.162   2.581  2.6138  0.1738 -1.7927
35923SOL    HW215010   0.878   9.061   2.514 -0.7999  1.5137  0.5690
35924SOL     OW15011   6.277   7.865   2.324 -0.3063  0.1114  0.0644
35924SOL    HW115012   6.218   7.938   2.307 -0.5576 -0.1109 -0.0250
35924SOL    HW215013   6.315   7.884   2.410 -0.6106  0.1877  0.1828
35925SOL     OW15014   5.689   6.641   5.978  0.3969  0.0144 -0.7129
35925SOL    HW115015   5.691   6.677   5.889 -0.3482 -5.4227 -3.3559
35925SOL    HW215016   5.779   6.614   5.995  0.1797 -0.7520 -0.7326
35926SOL     OW15017   5.463   9.922   2.056 -0.1993 -0.6162  0.2480
35926SOL    HW115018   5.432   9.861   2.123  0.1522 -0.2794  0.7232
35926SOL    HW215019   5.462   9.871   1.975 -0.6747 -1.0122  0.4971
35927SOL     OW15020   4.994  12.123   2.436 -0.2096 -0.0433 -0.0440
35927SOL    HW115021   4.970  12.120   2.343 -0.4793 -0.2720  0.0300
35927SOL    HW215022   4.997  12.216   2.457 -1.2677  0.0034 -0.0037
35928SOL     OW15023   9.179   7.289   0.941  0.2665 -0.5062  0.1866
35928SOL    HW115024   9.163   7.270   0.848  1.6407 -1.4007  0.1067
35928SOL    HW215025   9.121   7.228   0.987 -1.2148  0.6722 -0.0506
35929SOL     OW15026   8.325   0.126  11.020 -0.3102 -0.0579  0.1173
35929SOL    HW115027   8.234   0.157  11.016 -1.6641 -3.5679 -3.5948
35929SOL    HW215028   8.363   0.156  10.938  0.9101 -1.1850  0.2496
35930SOL     OW15029   8.521  10.135   3.684 -0.1957  0.2830 -0.3806
35930SOL    HW115030   8.435  10.167   3.711 -0.0728  0.6481 -0.4218
35930SOL    HW215031   8.560  10.207   3.635  0.7878  0.7489  1.0030
35931SOL     OW15032   3.442   0.405   7.616  0.4442 -0.1444 -0.6211
35931SOL    HW115033   3.358   0.451   7.613 -0.2169 -1.3598 -1.6485
35931SOL    HW215034   3.483   0.426   7.532  0.6073 -0.5801 -0.6515
35932SOL     OW15035   1.008   4.340   5.901 -0.3420  0.3321  0.2020
35932SOL    HW115036   0.981   4.374   5.815  0.1971  1.1275  0.3312
35932SOL    HW215037   0.993   4.246   5.895 -0.6756  0.4230 -0.6319
35933SOL     OW15038   6.611   9.759  11.129 -0.0116 -0.0829 -0.0426
35933SOL    HW115039   6.607   9.797  11.217 -0.9062 -1.0064  0.3459
35933SOL    HW215040   6.547   9.688  11.131  1.1015 -1.1636 -0.9442
35934SOL     OW15041   9.585   0.714   2.937  0.3909  0.1438  0.0478
35934SOL    HW115042   9.671   0.670   2.936  0.4088  0.1623 -1.7024
35934SOL    HW215043   9.604   0.804   2.962  0.5009 -0.4822  2.4802
35935SOL     OW15044   0.097   7.940   0.174 -0.3801  0.5377 -0.5884
35935SOL    HW115045   0.146   7.965   0.095  0.5151  2.1056  0.4124
35935SOL    HW215046   0.152   7.970   0.247 -1.7656  0.2506  0.6176
35936SOL     OW15047  11.542   0.735   8.047 -0.1302 -0.4225  0.3829
35936SOL    HW115048  11.556   0.697   7.960 -2.2621  1.7418 -1.0303
35936SOL    HW215049  11.476   0.679   8.087  0.5052 -1.1496  0.4371
35937SOL     OW15050  11.467  11.678  10.475  0.2551  0.1599 -0.0003
35937SOL    HW115051  11.503  11.592  10.455  1.2114  1.0501 -2.4810
35937SOL    HW215052  11.471  11.684  10.570  0.3407 -2.4322  0.2408
35938SOL     OW15053  11.362   8.342   0.436 -0.1294 -0.3010 -0.3369
35938SOL    HW115054  11.429   8.365   0.372 -1.0718 -1.0306 -1.6251
35938SOL    HW215055  11.411   8.306   0.510  0.8800 -1.3633 -1.4786
35939SOL     OW15056   9.873   3.146   5.432  0.0965 -0.0754  0.5841
35939SOL    HW115057   9.874   3.193   5.515 -1.0337  1.2387 -0.1079
35939SOL    HW215058   9.882   3.214   5.365  2.4548 -1.2169 -0.4023
35940SOL     OW15059  10.171   3.637   6.356  0.6666 -0.2755  0.0113
35940SOL    HW115060  10.126   3.574   6.412  1.5231  0.1516  1.2364
35940SOL    HW215061  10.142   3.616   6.267 -0.0992 -1.5103  0.5279
35941SOL     OW15062   4.114  11.966   3.186 -0.3587  0.0571 -0.2100
35941SOL    HW115063   4.022  11.954   3.212 -0.6000  0.0057 -1.0368
35941SOL    HW215064   4.157  11.886   3.213 -0.2094  0.6905  1.5647
35942SOL     OW15065   3.380   2.312   2.635 -0.1613 -0.0210  0.0786
35942SOL    HW115066   3.454   2.257   2.607 -1.3273 -0.7429 -1.7924
35942SOL    HW215067   3.360   2.365   2.558 -3.5626 -2.0888 -0.6463
35943SOL     OW15068   7.090   0.958  10.100  0.3607 -0.0866  1.0378
35943SOL    HW115069   7.085   0.920  10.013  1.5707 -1.7790  1.6410
35943SOL    HW215070   7.015   0.922  10.147  0.5030 -0.3187  1.0902
35944SOL     OW15071   9.737   2.418  11.478 -0.4534  0.3783 -0.5184
35944SOL    HW115072   9.762   2.508  11.500  1.4325 -0.7569  2.5549
35944SOL    HW215073   9.650   2.426  11.440 -0.3886  3.4730 -0.2763
35945SOL     OW15074   3.166   1.610   7.845 -0.0754  0.3453  0.2522
35945SOL    HW115075   3.070   1.614   7.846 -0.1305  0.0660 -1.1032
35945SOL    HW215076   3.189   1.573   7.930 -1.2939 -1.3952 -0.1099
35946SOL     OW15077   3.437   6.721   5.944  0.2714 -0.1532  1.0827
35946SOL    HW115078   3.365   6.697   6.003 -0.3445  2.1531  1.3616
35946SOL    HW215079   3.515   6.718   5.999  0.2215 -1.3390  1.1201
35947SOL     OW15080   7.164   7.855  10.735 -0.2235 -0.4849  0.1503
35947SOL    HW115081   7.181   7.893  10.821 -0.3321 -0.4265  0.1462
35947SOL    HW215082   7.250   7.825  10.704 -0.2373 -0.8302  0.4340
35948SOL     OW15083   7.776   9.026   5.711 -0.3670  0.5042 -0.5978
35948SOL    HW115084   7.786   9.117   5.741  1.9150  0.1733 -0.2155
35948SOL    HW215085   7.850   9.012   5.653 -0.3686 -1.3081 -0.2055
35949SOL     OW15086   6.435   0.755   8.750  0.1115 -0.2139 -0.1497
35949SOL    HW115087   6.450   0.850   8.750 -4.8836  0.8388 -1.2771
35949SOL    HW215088   6.422   0.732   8.842 -2.2292  1.0478 -0.1062
35950SOL     OW15089   0.797   2.587   1.760  0.1194  0.5796 -0.0328
35950SOL    HW115090   0.762   2.508   1.718 -0.0563  0.4865  0.2830
35950SOL    HW215091   0.769   2.659   1.704 -1.1673  0.5729  0.5806
35951SOL     OW15092   4.512   6.142  10.982  0.3254  0.6450 -0.1953
35951SOL    HW115093   4.454   6.215  10.963 -0.1094  0.3984  0.1464
35951SOL    HW215094   4.461   6.085  11.039  0.2479 -0.4663 -1.3182
35952SOL     OW15095   3.917   9.654   5.504 -0.4876 -0.5792  0.0994
35952SOL    HW115096   3.889   9.606   5.583  2.7010 -1.1577  1.0103
35952SOL    HW215097   3.939   9.585   5.441 -2.0498 -0.1226 -1.0123
35953SOL     OW15098   7.680  12.252   5.189  0.1506  0.5276 -0.4654
35953SOL    HW115099   7.680  12.347   5.200 -2.2230  0.3746  1.9155
35953SOL    HW215100   7.597  12.233   5.146 -0.2747 -0.5625  0.7764
35954SOL     OW15101   1.228   2.035   4.616 -0.5237 -0.2363  0.0452
35954SOL    HW115102   1.277   2.071   4.542 -0.8836 -1.8770 -1.0362
35954SOL    HW215103   1.295   1.994   4.671 -0.2352  1.1359  0.7440
35955SOL     OW15104   9.749  12.243   1.074  0.0490 -0.3048  0.6929
35955SOL    HW115105   9.709  12.156   1.079  2.9009 -1.6784  2.7460
35955SOL    HW215106   9.811  12.245   1.147  1.9148  2.4838 -0.7810
35956SOL     OW15107   7.603   3.681  10.488 -0.1619 -0.0337  0.3995
35956SOL    HW115108   7.650   3.719  10.562 -0.0440 -0.2772  0.4516
35956SOL    HW215109   7.519   3.726  10.488  0.0368  0.3393  0.3625
35957SOL     OW15110   6.259   2.916   5.504  0.1429  0.2769  0.5148
35957SOL    HW115111   6.241   2.896   5.412  0.7493  0.5064  0.3403
35957SOL    HW215112   6.185   2.879   5.552 -1.1689  1.8156 -0.2326
35958SOL     OW15113   7.127  12.318   6.856 -0.2153 -0.3158 -0.2052
35958SOL    HW115114   7.191  12.266   6.905 -1.6406 -1.4438  0.5437
35958SOL    HW215115   7.180  12.372   6.797  1.4008 -1.7030 -0.1131
35959SOL     OW15116   0.744  10.816   0.238 -0.0998  0.3194 -0.2667
35959SOL    HW115117   0.660  10.797   0.195 -0.0027  0.7159 -0.6398
35959SOL    HW215118   0.809  10.772   0.184 -0.2818 -2.6489  1.7126
35960SOL     OW15119   9.776   7.829   1.588 -0.6893 -0.1028  0.0839
35960SOL    HW115120   9.770   7.755   1.527 -1.7036  0.2067 -0.2137
35960SOL    HW215121   9.854   7.877   1.561 -0.3892 -0.7033 -0.1278
35961SOL     OW15122   8.905   2.837   6.293 -0.7919  0.3339 -0.2942
35961SOL    HW115123   8.925   2.931   6.300 -3.0935  0.8234  0.6119
35961SOL    HW215124   8.854   2.818   6.371  1.2502 -2.2007  0.5502
35962SOL     OW15125   0.866   4.460  11.979  0.3496  0.0485  0.1488
35962SOL    HW115126   0.871   4.471  11.884 -0.5837 -0.1249  0.0648
35962SOL    HW215127   0.787   4.508  12.004 -1.4816 -2.7771  0.3180
35963SOL     OW15128   8.541   0.495   4.809  0.1818 -0.3164  0.3743
35963SOL    HW115129   8.526   0.521   4.718 -0.9097  0.7602  0.8267
35963SOL    HW215130   8.456   0.508   4.851  1.0084  0.5495  1.8514
35964SOL     OW15131   9.551   2.196   7.701 -0.2336  0.3116  0.0314
35964SOL    HW115132   9.595   2.273   7.665 -1.1828  0.7657 -0.2048
35964SOL    HW215133   9.536   2.139   7.626 -0.4885  0.3909  0.0191
35965SOL     OW15134   0.831  10.862   7.780  0.3970  0.0808 -0.0328
35965SOL    HW115135   0.826  10.957   7.773 -0.5863  0.0067 -0.4623
35965SOL    HW215136   0.758  10.838   7.836  0.8741 -0.3982  0.3995
35966SOL     OW15137  12.147   8.683  12.260  0.2335  0.0405 -0.0428
35966SOL    HW115138  12.124   8.700  12.169 -0.1337 -0.7654 -0.1099
35966SOL    HW215139  12.201   8.604  12.257  0.2616  0.0364  0.4307
35967SOL     OW15140   8.277  12.285   4.668  0.0564 -0.4056  0.5544
35967SOL    HW115141   8.213  12.214   4.658  0.4654 -0.8617  1.0662
35967SOL    HW215142   8.288  12.293   4.762  0.6523 -0.2417  0.4714
35968SOL     OW15143   8.852   3.416   8.343 -0.1281 -0.4663  0.4814
35968SOL    HW115144   8.919   3.475   8.308 -0.4158  0.1591  0.9646
35968SOL    HW215145   8.820   3.368   8.266  0.4806 -0.3766  0.1653
35969SOL     OW15146   6.418   4.561  11.560  0.0905 -0.2543  0.0032
35969SOL    HW115147   6.372   4.639  11.591  0.8103 -0.2044  0.9734
35969SOL    HW215148   6.352   4.511  11.513  0.1065  2.0975 -2.8615
35970SOL     OW15149   6.802   7.819  12.345  0.0521  0.7338 -0.6946
35970SOL    HW115150   6.768   7.889  12.289  1.3801  0.7455 -1.5322
35970SOL    HW215151   6.723   7.774  12.376 -0.7730  1.5447 -1.5123
35971SOL     OW15152   3.371   4.563   8.407 -0.3914 -0.1659 -0.0758
35971SOL    HW115153   3.408   4.619   8.476 -0.8846 -0.6585  0.6047
35971SOL    HW215154   3.447   4.527   8.362 -0.0641  1.3057 -0.7427
35972SOL     OW15155   2.817   3.991   5.872 -1.1667  0.0492 -0.3234
35972SOL    HW115156   2.799   4.069   5.819 -0.4887 -0.6453 -1.6072
35972SOL    HW215157   2.843   3.924   5.809 -1.5510 -1.1763  0.7797
35973SOL     OW15158  12.444   5.253   3.182  0.5129 -0.3763  0.0188
35973SOL    HW115159  12.415   5.341   3.203  0.0554 -0.4534 -0.2677
35973SOL    HW215160  12.489   5.261   3.098 -1.0587 -0.6729 -0.9073
35974SOL     OW15161   1.441   2.308  11.421 -0.4290  0.5427  0.5127
35974SOL    HW115162   1.491   2.238  11.379 -1.2732 -1.0864  2.0727
35974SOL    HW215163   1.506   2.355  11.474  0.1315  0.9267 -0.4842
35975SOL     OW15164   5.394   6.995   7.089  0.0690 -0.1800 -0.2432
35975SOL    HW115165   5.313   7.016   7.135 -0.6565  0.6275 -1.8028
35975SOL    HW215166   5.422   7.078   7.051 -0.0374 -0.9977 -2.2380
35976SOL     OW15167   5.247   5.612   1.280  0.4509  0.1458  0.5916
35976SOL    HW115168   5.180   5.671   1.246 -1.1229 -1.0934  1.4358
35976SOL    HW215169   5.300   5.589   1.203 -0.7265  0.3069 -0.2914
35977SOL     OW15170  10.841   1.402  11.305 -0.2388  0.1893 -0.2528
35977SOL    HW115171  10.790   1.418  11.385 -1.6158 -0.3289 -0.9906
35977SOL    HW215172  10.829   1.309  11.287 -1.6873  0.6728 -2.1669
35978SOL     OW15173   1.249   0.193  12.499  0.0079 -0.0580  0.2833
35978SOL    HW115174   1.307   0.255  12.456 -0.1180  0.8098  1.3292
35978SOL    HW215175   1.172   0.188  12.442  0.0462  0.7078  0.1543
35979SOL     OW15176   8.907   7.192   5.059  0.1823 -0.0212  0.5010
35979SOL    HW115177   8.902   7.219   4.967 -0.9153  0.0357  0.5727
35979SOL    HW215178   8.834   7.236   5.101 -1.8274 -3.1905  0.6039
35980SOL     OW15179   1.466   8.402   7.855 -0.1767 -0.4818 -0.1940
35980SOL    HW115180   1.477   8.455   7.776 -1.1443  0.8636  0.5368
35980SOL    HW215181   1.380   8.361   7.845  0.5948 -2.0294 -0.7869
35981SOL     OW15182   3.259  12.122   6.247 -0.3519  0.0393 -0.3518
35981SOL    HW115183   3.213  12.073   6.179 -0.4198 -1.1271  0.4965
35981SOL    HW215184   3.272  12.209   6.210 -2.1427  0.0266 -1.1033
35982SOL     OW15185   5.640   3.949   1.813 -0.5809  0.2784 -0.2573
35982SOL    HW115186   5.620   3.857   1.833 -1.1601  0.1123 -1.4308
35982SOL    HW215187   5.588   3.966   1.734  1.1761  0.9724 -1.2985
35983SOL     OW15188   0.530   9.157   8.635  0.1075  0.0795 -0.1713
35983SOL    HW115189   0.524   9.206   8.553 -1.8801 -0.2153 -0.2676
35983SOL    HW215190   0.481   9.210   8.698 -0.9366 -1.0959  0.0461
35984SOL     OW15191   3.188   3.304  11.285  0.0723  0.4705 -0.6748
35984SOL    HW115192   3.131   3.231  11.264 -0.7769  0.6668  0.8004
35984SOL    HW215193   3.224   3.332  11.201 -0.3444 -1.0135 -1.3670
35985SOL     OW15194   6.626  10.656   6.260 -0.0368 -0.2487 -0.0208
35985SOL    HW115195   6.673  10.597   6.319 -0.3857  0.0524  0.5737
35985SOL    HW215196   6.574  10.597   6.205  0.0016 -0.5202  0.2298
35986SOL     OW15197   5.703   9.899   8.330 -0.0211  0.6058 -0.2376
35986SOL    HW115198   5.659   9.831   8.382 -0.7810  0.1811 -1.4099
35986SOL    HW215199   5.673   9.885   8.241  3.2422 -0.3362 -1.3209
35987SOL     OW15200   7.269  10.269   6.699  0.4950 -0.1074 -0.4250
35987SOL    HW115201   7.204  10.304   6.761  0.3655 -3.4285  1.5210
35987SOL    HW215202   7.218  10.250   6.620 -0.3748 -0.2963  0.1654
35988SOL     OW15203   1.083   5.335   9.581 -0.3887 -0.1982 -0.1346
35988SOL    HW115204   1.131   5.418   9.579 -2.0132  0.8489 -2.8040
35988SOL    HW215205   1.130   5.280   9.643  1.2149  2.4477  1.1562
35989SOL     OW15206  12.295   1.112   2.946  0.8593 -0.2394 -0.2979
35989SOL    HW115207  12.280   1.035   3.002 -0.7622 -1.1216 -1.8750
35989SOL    HW215208  12.376   1.091   2.899  0.4653 -0.9848 -0.6709
35990SOL     OW15209  11.888   3.615   9.547 -0.3264  0.5324  0.3593
35990SOL    HW115210  11.894   3.703   9.508  0.2879 -0.3923 -1.8155
35990SOL    HW215211  11.812   3.575   9.504  0.6647 -0.6985 -0.3359
35991SOL     OW15212   5.086   8.841   0.716 -0.1659  0.1036 -0.1152
35991SOL    HW115213   5.140   8.918   0.698  2.0799 -1.4674 -0.4524
35991SOL    HW215214   5.002   8.877   0.745  0.5600  2.6587 -0.9495
35992SOL     OW15215   7.449   8.068  11.019  0.1002  0.0245 -0.1528
35992SOL    HW115216   7.461   8.056  11.113 -0.9147 -0.2806 -0.0524
35992SOL    HW215217   7.487   7.989  10.980 -2.3054 -1.4213  0.2229
35993SOL     OW15218   2.489   4.194   3.854  0.2962 -0.8851 -0.0346
35993SOL    HW115219   2.396   4.215   3.857  0.0309 -2.1200  1.2193
35993SOL    HW215220   2.533   4.279   3.855 -0.8018 -0.2121 -2.3019
35994SOL     OW15221   3.477   0.298   5.250  0.2297  0.2466  0.2805
35994SOL    HW115222   3.463   0.256   5.165  0.2005  1.5077 -0.3505
35994SOL    HW215223   3.527   0.377   5.230  0.5185  0.3845  1.4825
35995SOL     OW15224   1.947   3.631   4.483  0.2073  0.1871 -0.3425
35995SOL    HW115225   2.019   3.570   4.472 -0.9809 -1.2912 -0.2327
35995SOL    HW215226   1.892   3.618   4.406 -0.4649  0.5590  0.0592
35996SOL     OW15227   3.866   9.910   7.663  0.2838  0.6106  0.1696
35996SOL    HW115228   3.816   9.943   7.738  0.2988  2.0599 -0.4200
35996SOL    HW215229   3.809   9.845   7.622  0.2536 -0.1536  1.3840
35997SOL     OW15230   3.934   0.234   0.949  0.0131 -0.1792  0.1630
35997SOL    HW115231   3.882   0.309   0.924  2.4444  1.2649 -0.9359
35997SOL    HW215232   3.951   0.246   1.043  3.6283  3.0226 -0.6472
35998SOL     OW15233   6.710   2.386   8.766  0.1380 -0.3108  0.0888
35998SOL    HW115234   6.787   2.406   8.818 -0.2597 -0.3858  0.7155
35998SOL    HW215235   6.701   2.291   8.771  0.7795 -0.4570 -1.1116
35999SOL     OW15236   8.832   1.293   0.339 -0.8805  0.2756  0.1565
35999SOL    HW115237   8.809   1.201   0.345  0.3055 -0.0217  0.4958
35999SOL    HW215238   8.871   1.303   0.253 -1.8565  0.6774 -0.2494
36000SOL     OW15239   2.740   1.864   1.807 -0.4483  0.0210 -0.1651
36000SOL    HW115240   2.745   1.828   1.718 -1.0974  2.0627 -1.0702
36000SOL    HW215241   2.779   1.796   1.861 -1.0316 -1.7693 -1.8537
36001SOL     OW15242   6.190   7.579   6.352 -0.0325 -0.4588  0.8171
36001SOL    HW115243   6.217   7.668   6.333 -0.5981 -0.6123 -0.8866
36001SOL    HW215244   6.098   7.576   6.325 -0.0828 -1.5073  1.0554
36002SOL     OW15245   4.230   0.749   0.034 -0.5581  0.8391  0.1584
36002SOL    HW115246   4.200   0.669  -0.008 -0.1761  0.2236  1.0251
36002SOL    HW215247   4.153   0.781   0.082 -0.9340  1.4313 -0.8055
36003SOL     OW15248   1.587   2.547   5.738  0.1628 -0.4556  0.6482
36003SOL    HW115249   1.636   2.542   5.655 -1.1493  1.4542 -0.3166
36003SOL    HW215250   1.623   2.476   5.791  1.4578 -1.3851 -1.3381
36004SOL     OW15251   0.131   1.607   7.074 -0.0940 -0.6902  0.1295
36004SOL    HW115252   0.058   1.558   7.035 -0.2803 -0.7853  0.5960
36004SOL    HW215253   0.160   1.666   7.004  1.5430 -2.9386 -1.2284
36005SOL     OW15254   9.908   8.008   4.397  0.4336 -0.5568  0.7979
36005SOL    HW115255   9.960   7.960   4.331 -2.6915 -2.2016 -0.7129
36005SOL    HW215256   9.970   8.027   4.467  3.0751 -2.2133 -0.8922
36006SOL     OW15257   0.295   1.664   6.613  0.0742 -0.1979 -0.1705
36006SOL    HW115258   0.254   1.615   6.543  1.0944 -0.5007 -0.5702
36006SOL    HW215259   0.223   1.709   6.657 -0.6913 -0.8789 -0.7222
36007SOL     OW15260  12.463   7.365   7.679  0.0322  0.0970 -0.1015
36007SOL    HW115261  12.405   7.430   7.639 -1.8593  1.4719  4.2932
36007SOL    HW215262  12.428   7.353   7.767  4.0036 -2.3283  1.3843
36008SOL     OW15263   7.314   5.476  12.620  0.5820  0.8317 -0.2163
36008SOL    HW115264   7.285   5.391  12.652 -0.3233 -0.0482 -3.0444
36008SOL    HW215265   7.406   5.481  12.646  0.6509 -1.0221  0.0619
36009SOL     OW15266   0.358  12.339   3.609 -0.8394  0.0024  0.0175
36009SOL    HW115267   0.278  12.291   3.590 -0.6506 -0.0905 -0.5537
36009SOL    HW215268   0.383  12.310   3.697 -0.9814 -0.5989 -0.1342
36010SOL     OW15269   0.348   1.472   0.174  0.0145 -0.0845  0.5039
36010SOL    HW115270   0.286   1.493   0.104 -0.6483  0.4397  1.2246
36010SOL    HW215271   0.357   1.553   0.223  0.1043 -0.5609  1.2927
36011SOL     OW15272   9.499  12.426   9.199 -0.3410 -0.1338  0.5118
36011SOL    HW115273   9.458  12.440   9.114  0.6399 -0.0971  0.0230
36011SOL    HW215274   9.577  12.481   9.197 -0.2003 -0.2952  1.3534
36012SOL     OW15275  10.956   3.418   1.627  0.7321 -0.4569 -0.0249
36012SOL    HW115276  10.941   3.323   1.626  1.5719 -0.6027 -1.0347
36012SOL    HW215277  10.983   3.437   1.716 -1.7108 -0.7510  0.8679
36013SOL     OW15278   3.562   6.016  11.896  0.4543 -0.7617 -0.1225
36013SOL    HW115279   3.498   5.947  11.878 -0.5398  0.5072 -1.6911
36013SOL    HW215280   3.535   6.052  11.980  0.9013 -2.1570  0.6474
36014SOL     OW15281   8.680   6.166   9.614  0.2308 -0.4753 -0.1618
36014SOL    HW115282   8.632   6.196   9.691  1.6992 -0.3023  0.7430
36014SOL    HW215283   8.719   6.082   9.642  2.0628  0.3443 -0.1255
36015SOL     OW15284   9.740   8.856   9.506 -0.8107 -0.0098 -0.8052
36015SOL    HW115285   9.775   8.767   9.499 -2.9358 -0.8208 -1.8329
36015SOL    HW215286   9.771   8.886   9.592 -0.9839 -2.1815  0.0924
36016SOL     OW15287  11.722  11.017  10.270  0.1247  0.1962 -0.7053
36016SOL    HW115288  11.767  10.989  10.350 -0.8337 -1.5892 -0.7303
36016SOL    HW215289  11.792  11.033  10.207  0.8801  1.3605  0.3831
36017SOL     OW15290  11.909   8.694   9.568 -0.8093 -0.0274  0.0044
36017SOL    HW115291  11.938   8.609   9.603 -0.0214  0.0993 -0.3324
36017SOL    HW215292  11.985   8.751   9.577 -1.8530  1.1852  1.9074
36018SOL     OW15293   4.634  10.744   7.172  0.0598  0.3115 -0.1723
36018SOL    HW115294   4.597  10.800   7.239 -1.4340 -1.7371  0.8059
36018SOL    HW215295   4.595  10.775   7.090 -0.3395  0.9997  0.2743
36019SOL     OW15296   4.566   2.869   3.402  0.0784  0.6479  0.2533
36019SOL    HW115297   4.601   2.919   3.475 -2.7478  5.4167 -1.2367
36019SOL    HW215298   4.475   2.854   3.424 -0.2302  0.0159 -1.2910
36020SOL     OW15299   4.986  11.134   2.967 -0.2560 -0.5395 -0.4602
36020SOL    HW115300   4.982  11.040   2.950  0.8443 -0.4595 -1.2434
36020SOL    HW215301   5.014  11.141   3.058 -0.2440 -0.9728 -0.4301
36021SOL     OW15302  10.254   5.041   4.229  0.0780  0.2270  0.2937
36021SOL    HW115303  10.263   4.962   4.175  1.4657  1.1160 -0.8672
36021SOL    HW215304  10.282   5.112   4.171 -0.2579  1.4622  1.6049
36022SOL     OW15305   1.457   7.213   0.678  0.0124  0.0364 -0.4326
36022SOL    HW115306   1.381   7.254   0.719  0.1369 -0.3647  0.2237
36022SOL    HW215307   1.531   7.267   0.706  0.1641 -0.5585  0.3462
36023SOL     OW15308   4.183   4.532   6.752 -0.0289 -0.1653  0.8480
36023SOL    HW115309   4.136   4.510   6.672 -0.5399 -0.5109  1.2319
36023SOL    HW215310   4.211   4.622   6.740 -1.2701  0.2456  0.8197
36024SOL     OW15311   9.799   9.517   6.759  0.1661 -0.2968  0.1866
36024SOL    HW115312   9.727   9.491   6.701  0.4905 -0.2989 -0.2211
36024SOL    HW215313   9.761   9.583   6.816  0.0407  0.2820 -0.5544
36025SOL     OW15314  11.524  11.226   9.169 -0.7413  0.0121 -0.1220
36025SOL    HW115315  11.507  11.171   9.092  0.4381  0.3328 -0.6379
36025SOL    HW215316  11.514  11.316   9.137 -0.6311  0.1399  0.1951
36026SOL     OW15317   3.233   0.528   1.116 -0.2657 -0.6973 -0.1793
36026SOL    HW115318   3.236   0.532   1.021 -0.3916 -0.0545 -0.1623
36026SOL    HW215319   3.289   0.454   1.139  2.0795  0.8279 -0.6292
36027SOL     OW15320   7.602   2.269  11.675  0.5374 -0.0587 -0.2812
36027SOL    HW115321   7.528   2.299  11.728  0.1544  0.2163 -0.9458
36027SOL    HW215322   7.677   2.274  11.733  0.3100  1.2308 -0.0576
36028SOL     OW15323   4.444   1.513   1.697 -0.7680 -0.4432 -0.4053
36028SOL    HW115324   4.475   1.599   1.667 -2.0312  0.5318  0.9073
36028SOL    HW215325   4.358   1.504   1.656  0.2525 -2.1876 -2.3691
36029SOL     OW15326   8.611   2.008  10.567  0.2705  0.7317 -0.3983
36029SOL    HW115327   8.625   2.082  10.627 -1.3535  1.5015 -0.9055
36029SOL    HW215328   8.682   2.016  10.503  0.5468  1.4087 -0.0311
36030SOL     OW15329   1.765  12.531   6.267 -0.6521 -0.4966 -0.7179
36030SOL    HW115330   1.717  12.614   6.261 -1.2678 -0.8955 -1.6522
36030SOL    HW215331   1.856  12.555   6.253 -0.5203  0.2943  1.1652
36031SOL     OW15332   9.539   8.450   2.672 -0.0047 -0.2864  0.0933
36031SOL    HW115333   9.530   8.360   2.703 -0.1865  0.0200  0.9430
36031SOL    HW215334   9.634   8.464   2.668  0.0203 -0.3537  0.4348
36032SOL     OW15335   1.519   6.413   1.584  0.3515  0.0713 -0.3414
36032SOL    HW115336   1.607   6.415   1.546  0.8205 -2.3922  0.4483
36032SOL    HW215337   1.483   6.329   1.556 -1.0009  0.1726  0.9764
36033SOL     OW15338  12.408   4.622   1.084  0.3375 -0.8145 -0.3170
36033SOL    HW115339  12.348   4.667   1.144  0.4429 -0.0403 -0.7879
36033SOL    HW215340  12.480   4.593   1.140 -0.7021 -2.2427  0.3705
36034SOL     OW15341   6.131  10.154   3.434  0.1144 -0.2051  0.2588
36034SOL    HW115342   6.043  10.192   3.426 -0.2213 -0.9319  0.4126
36034SOL    HW215343   6.132  10.115   3.521 -0.1716 -2.0824 -0.5344
36035SOL     OW15344   1.421   5.950  10.741  0.2845  0.2833  0.2398
36035SOL    HW115345   1.390   6.040  10.757 -0.8716 -0.3003  1.5442
36035SOL    HW215346   1.382   5.926  10.657 -4.0492 -0.8039  2.2725
36036SOL     OW15347   1.393  12.420   6.985  0.0345 -0.3273 -0.4134
36036SOL    HW115348   1.347  12.490   7.031 -2.4484 -1.5385 -0.9222
36036SOL    HW215349   1.405  12.352   7.050  2.9655  0.6424  0.2419
36037SOL     OW15350   5.772  10.964   9.071 -0.1894  0.4144  0.2546
36037SOL    HW115351   5.712  11.028   9.033  1.1237  1.8068  0.4246
36037SOL    HW215352   5.750  10.962   9.164 -0.7654  0.0021  0.1143
36038SOL     OW15353   1.218   1.775   4.956 -0.1563 -0.0038  0.3493
36038SOL    HW115354   1.303   1.818   4.957  0.3872 -0.9416 -1.3252
36038SOL    HW215355   1.217   1.720   5.034 -0.0062  1.4148  1.3709
36039SOL     OW15356   9.722   9.429   2.570 -0.3325 -0.0654 -0.3053
36039SOL    HW115357   9.678   9.452   2.488 -0.0135  3.8572  0.4340
36039SOL    HW215358   9.680   9.484   2.637  1.0317 -1.3498  1.7146
36040SOL     OW15359   9.714   9.738   0.263 -0.5582  0.2148  0.3743
36040SOL    HW115360   9.734   9.805   0.198 -3.2265 -0.7324 -1.6102
36040SOL    HW215361   9.798   9.698   0.284  0.4333  0.3540 -2.8042
36041SOL     OW15362   6.145   3.132   9.487 -0.3834  0.0259 -0.0769
36041SOL    HW115363   6.240   3.120   9.476 -0.2315 -0.4624  1.4858
36041SOL    HW215364   6.115   3.161   9.401  1.3164  1.0207 -0.3970
36042SOL     OW15365   4.630   5.546   9.064  0.1260  0.1560 -0.4587
36042SOL    HW115366   4.568   5.575   8.997 -0.3121  0.6155  0.1446
36042SOL    HW215367   4.579   5.540   9.144  0.2392 -2.0573 -0.4796
36043SOL     OW15368   1.498   8.549  11.753  0.4588  0.2588  0.1383
36043SOL    HW115369   1.510   8.513  11.841  0.4107 -0.4221 -0.1261
36043SOL    HW215370   1.468   8.639  11.768  1.1525  0.3869  0.8080
36044SOL     OW15371   9.042   9.959   0.697 -0.3024  0.1329  0.1427
36044SOL    HW115372   9.048   9.876   0.649 -1.7491 -0.7053  1.3476
36044SOL    HW215373   9.107  10.016   0.654 -2.7343  0.1266 -4.0951
36045SOL     OW15374   8.308   5.592   0.359 -0.3324 -0.2213 -0.5643
36045SOL    HW115375   8.324   5.498   0.371 -2.1256 -0.6406 -1.1247
36045SOL    HW215376   8.387   5.623   0.314 -0.1216 -1.6715 -1.2913
36046SOL     OW15377   6.529   0.996   6.680  0.1911 -0.6828  0.4508
36046SOL    HW115378   6.526   1.092   6.687  0.2097 -0.5665 -1.0096
36046SOL    HW215379   6.439   0.969   6.697 -0.0870 -0.3066 -0.3784
36047SOL     OW15380   2.496   1.753   1.948 -1.2580 -0.2346 -0.0075
36047SOL    HW115381   2.552   1.827   1.922 -2.3619  0.2280 -1.1738
36047SOL    HW215382   2.510   1.688   1.879 -2.1339 -0.1085 -0.3201
36048SOL     OW15383   4.047   7.712   8.192  0.4144  0.3397  0.0280
36048SOL    HW115384   4.090   7.680   8.272 -0.4121 -0.8141  0.0307
36048SOL    HW215385   3.954   7.710   8.212  0.2601  1.4451 -0.4820
36049SOL     OW15386   8.637   3.655  10.702  0.4033 -0.2813  0.0049
36049SOL    HW115387   8.586   3.714  10.646  0.2753 -0.4450 -0.0511
36049SOL    HW215388   8.691   3.605  10.640  0.6444 -0.0985  0.0646
36050SOL     OW15389   3.323  10.349  12.002  0.9875 -0.0265  0.0393
36050SOL    HW115390   3.311  10.396  11.920  1.2227  1.4615  0.8112
36050SOL    HW215391   3.411  10.310  11.995  1.5298  1.1443  0.0477
36051SOL     OW15392   8.527  12.062   1.323  0.7336 -0.2314  0.4395
36051SOL    HW115393   8.534  12.041   1.230  0.4248 -0.4416  0.4637
36051SOL    HW215394   8.613  12.097   1.346  1.8266 -2.8415  0.7213
36052SOL     OW15395  11.829   7.124   0.637 -0.4319 -0.4035  0.1373
36052SOL    HW115396  11.772   7.201   0.644 -0.4562 -0.4058 -0.0509
36052SOL    HW215397  11.895   7.138   0.705 -0.1736  0.0059 -0.1939
36053SOL     OW15398   7.593   9.112   8.059 -0.3305  0.0337  0.7242
36053SOL    HW115399   7.665   9.084   8.115 -1.2422 -0.2065  1.7915
36053SOL    HW215400   7.576   9.203   8.085  0.0876  0.3535 -0.0762
36054SOL     OW15401   3.297  12.151  10.544 -0.0577  0.6743 -0.2760
36054SOL    HW115402   3.232  12.137  10.476 -1.1942  0.4789  0.8136
36054SOL    HW215403   3.262  12.106  10.621  1.7165 -0.0398  0.1569
36055SOL     OW15404   3.075   3.999   8.326 -0.1688  0.0774  0.4656
36055SOL    HW115405   3.035   4.048   8.398  1.1977  3.8540 -1.0766
36055SOL    HW215406   3.000   3.967   8.275 -1.2169  1.7979  0.8430
36056SOL     OW15407   1.169   3.774   8.278  0.1192  0.2194  0.1673
36056SOL    HW115408   1.146   3.866   8.266  2.0990  0.5716 -1.6798
36056SOL    HW215409   1.094   3.725   8.245 -0.3800  1.1849 -0.1595
36057SOL     OW15410   7.285   9.933   1.057 -0.6097  0.1228 -0.3241
36057SOL    HW115411   7.282   9.852   1.006  0.8551  1.1434 -2.1642
36057SOL    HW215412   7.194   9.953   1.075 -1.0060 -2.0100  0.3552
36058SOL     OW15413   6.179   9.258  12.072 -0.1601  0.5970  0.2744
36058SOL    HW115414   6.228   9.211  12.140 -1.5978 -0.9813  0.2562
36058SOL    HW215415   6.175   9.198  11.999  1.1465  2.1890 -1.1970
36059SOL     OW15416   4.455   4.863  12.572 -0.0593 -0.2137  0.1677
36059SOL    HW115417   4.505   4.926  12.521 -0.4877  0.1595  0.1982
36059SOL    HW215418   4.449   4.786  12.516  1.9765 -0.9016  0.8174
36060SOL     OW15419  11.330   2.778   0.934  0.2578  0.2853 -0.3090
36060SOL    HW115420  11.387   2.835   0.882  1.8716 -0.2580  0.7872
36060SOL    HW215421  11.271   2.837   0.979  0.2002  0.9002 -1.1768
36061SOL     OW15422   0.796   3.726   8.007  0.2922  0.1464 -0.1267
36061SOL    HW115423   0.797   3.639   7.967 -1.0272 -0.3815  0.9203
36061SOL    HW215424   0.833   3.713   8.094 -0.4858  0.5132  0.2636
36062SOL     OW15425   2.744   6.588   0.500  0.5972  0.0595 -0.0607
36062SOL    HW115426   2.790   6.664   0.533  2.4657  0.5902 -3.4096
36062SOL    HW215427   2.651   6.612   0.505  1.1349  2.9906 -1.7126
36063SOL     OW15428  10.827  11.347   5.290  0.2174 -0.1469 -0.5585
36063SOL    HW115429  10.758  11.319   5.350  0.5916 -0.5019 -0.2973
36063SOL    HW215430  10.907  11.344   5.341  0.3306  1.0243 -0.6322
36064SOL     OW15431   1.765  11.307   7.908 -0.0069 -0.2438 -0.0898
36064SOL    HW115432   1.754  11.347   7.995 -0.3167  3.3454 -1.6058
36064SOL    HW215433   1.858  11.316   7.889  0.0416 -0.9262 -0.1731
36065SOL     OW15434   7.629   5.631   6.331  0.0506  0.3675 -0.5027
36065SOL    HW115435   7.597   5.608   6.243 -0.2456 -1.0934 -0.0451
36065SOL    HW215436   7.551   5.625   6.386  0.0128  2.3053 -0.2712
36066SOL     OW15437  11.102   1.855   2.257  0.1131 -0.5191 -0.1388
36066SOL    HW115438  11.093   1.791   2.186 -0.8700 -0.3857 -0.1508
36066SOL    HW215439  11.047   1.928   2.230 -1.7924 -1.2168  1.5872
36067SOL     OW15440   6.327   1.562  11.615  0.1378  0.0457 -0.2034
36067SOL    HW115441   6.352   1.608  11.535 -0.3321  0.3134 -0.2034
36067SOL    HW215442   6.240   1.595  11.635  1.2092  1.8703  1.8058
36068SOL     OW15443  12.702   9.169   9.339  0.5630 -0.7048  0.4322
36068SOL    HW115444  12.668   9.096   9.289 -0.0301 -0.0304 -0.1559
36068SOL    HW215445  12.625   9.213   9.374  0.8716  0.1402  0.0707
36069SOL     OW15446   6.640   7.683   2.729 -0.6234  0.6418 -0.2107
36069SOL    HW115447   6.674   7.615   2.670 -1.1806  1.2056 -1.2169
36069SOL    HW215448   6.614   7.635   2.808 -1.6179 -0.4333 -1.1500
36070SOL     OW15449   2.325   5.745  10.223 -0.4808  0.3185 -0.0907
36070SOL    HW115450   2.290   5.712  10.141 -1.2893 -0.0408  0.3846
36070SOL    HW215451   2.247   5.772  10.273 -0.1626 -1.2039  1.2986
36071SOL     OW15452   7.803   5.760   8.465  0.2943  0.2872  0.5593
36071SOL    HW115453   7.721   5.776   8.420  0.9267 -1.0744 -1.1907
36071SOL    HW215454   7.830   5.846   8.496 -0.3616  1.2692 -1.4052
36072SOL     OW15455   1.450  12.217   2.774 -0.0844 -0.2417 -0.3257
36072SOL    HW115456   1.440  12.128   2.740  0.4773 -0.5346  0.2685
36072SOL    HW215457   1.364  12.238   2.811 -0.1132 -0.6772 -0.1381
36073SOL     OW15458   6.173   6.011   7.160 -0.0720 -0.3370  0.3352
36073SOL    HW115459   6.107   5.953   7.121  1.5123 -2.0894  0.1188
36073SOL    HW215460   6.135   6.038   7.243 -1.3608 -0.7142 -0.1017
36074SOL     OW15461   7.634   6.325  11.472 -0.2597  0.1045 -0.1412
36074SOL    HW115462   7.728   6.324  11.455 -0.1230 -3.0453  0.3142
36074SOL    HW215463   7.624   6.384  11.547  1.5187 -0.5177  0.6278
36075SOL     OW15464   7.504   3.318   9.782  0.1389 -0.1783 -0.2420
36075SOL    HW115465   7.539   3.344   9.868 -1.6864 -0.2992  0.5746
36075SOL    HW215466   7.560   3.245   9.755 -0.0137 -0.9707  1.4448
36076SOL     OW15467  12.295   7.207   2.306  0.2616 -0.5111 -0.2435
36076SOL    HW115468  12.292   7.131   2.364 -0.2401  0.7175  1.4201
36076SOL    HW215469  12.383   7.205   2.269  0.2279 -1.9298 -0.2967
36077SOL     OW15470   9.213  12.583   0.325 -0.0278  0.4920  0.4500
36077SOL    HW115471   9.263  12.618   0.399  0.1052 -0.5114  0.8526
36077SOL    HW215472   9.123  12.613   0.341  0.0142  0.3486  0.9824
36078SOL     OW15473  11.844   9.843   9.892 -0.3229 -0.3725  0.7500
36078SOL    HW115474  11.882   9.803   9.970  0.3869 -1.6484 -0.2064
36078SOL    HW215475  11.898   9.810   9.820 -2.5104 -1.3603 -0.5455
36079SOL     OW15476   2.142   6.897  12.520  0.3418 -0.4531  0.6017
36079SOL    HW115477   2.149   6.905  12.615 -1.5525 -1.8654  0.9155
36079SOL    HW215478   2.182   6.977  12.486  3.0806 -0.9023  2.4691
36080SOL     OW15479   1.487   2.996  10.891  0.2108  0.3313 -0.0402
36080SOL    HW115480   1.475   2.919  10.947  1.8668  0.2263  0.2268
36080SOL    HW215481   1.544   2.965  10.821 -0.2959  0.9632 -0.7535
36081SOL     OW15482  12.314   9.336   3.852  0.2732  0.7828 -0.5014
36081SOL    HW115483  12.361   9.365   3.774 -1.1551 -2.3322 -2.7005
36081SOL    HW215484  12.233   9.387   3.852 -0.9147 -0.9278 -2.6838
36082SOL     OW15485   0.172   9.767   5.833 -0.2052  0.2001  0.6176
36082SOL    HW115486   0.083   9.751   5.803  0.0609  0.3424 -0.2747
36082SOL    HW215487   0.162   9.823   5.910 -0.9513 -1.0150  1.4366
36083SOL     OW15488   6.619  11.531   0.201  0.1459 -0.2558 -0.4254
36083SOL    HW115489   6.660  11.573   0.125  0.6584 -0.8167 -0.4576
36083SOL    HW215490   6.672  11.559   0.275 -1.8715  2.4786  0.1462
36084SOL     OW15491   9.400   9.846  12.007 -0.1777 -0.4563  0.3592
36084SOL    HW115492   9.387   9.757  12.040  2.1838 -0.7429  0.6306
36084SOL    HW215493   9.395   9.902  12.084 -1.2868 -0.3448  0.2343
36085SOL     OW15494   3.085  10.804   6.464  0.4049 -0.1236 -0.3426
36085SOL    HW115495   3.027  10.842   6.398  0.8842 -1.4457 -1.5649
36085SOL    HW215496   3.026  10.772   6.532 -0.2335 -0.5085 -1.0667
36086SOL     OW15497   3.593   4.108   4.050  0.1764 -0.1244  0.0320
36086SOL    HW115498   3.624   4.033   4.100  3.8247  0.6219 -0.8090
36086SOL    HW215499   3.571   4.073   3.964 -2.5328 -0.7979  0.8766
36087SOL     OW15500   7.375   8.300   9.215  0.3253  0.5436  0.0912
36087SOL    HW115501   7.435   8.279   9.287  1.2261  0.3243 -0.7043
36087SOL    HW215502   7.352   8.215   9.178 -0.2394  0.6479  0.2016
36088SOL     OW15503   6.321  10.053  12.662  0.5612 -0.1381 -0.3454
36088SOL    HW115504   6.302  10.135  12.617  1.0023  0.2127  0.0986
36088SOL    HW215505   6.262   9.989  12.622  1.1411  0.0978 -1.6166
36089SOL     OW15506   9.847   5.067   1.472 -0.2646  0.0154  0.1274
36089SOL    HW115507   9.782   5.013   1.517 -0.8140  2.2205  2.1761
36089SOL    HW215508   9.922   5.068   1.531  1.9345 -2.6988 -2.3119
36090SOL     OW15509   8.051   7.602   4.937  0.1619 -0.3891  0.5151
36090SOL    HW115510   8.113   7.623   5.007  1.6379 -0.0358 -0.8523
36090SOL    HW215511   7.982   7.552   4.981  1.9581 -1.7753  1.9110
36091SOL     OW15512  11.786   2.287  11.428 -0.1117 -0.0600  0.4449
36091SOL    HW115513  11.766   2.197  11.401  1.6938 -0.7240  1.1743
36091SOL    HW215514  11.815   2.278  11.519  1.3720  1.0674  0.1069
36092SOL     OW15515   2.954   3.328  10.150  0.0806  0.2150  0.2784
36092SOL    HW115516   2.964   3.235  10.169  1.1588  0.0200 -1.0797
36092SOL    HW215517   2.861   3.340  10.132 -0.0650 -0.5939  0.4857
36093SOL     OW15518   0.360   2.749  10.588 -0.5599  0.0947  0.1063
36093SOL    HW115519   0.440   2.797  10.565 -1.3381  1.6382  0.5141
36093SOL    HW215520   0.355   2.678  10.524  0.4267  0.7739 -0.7521
36094SOL     OW15521   2.998   2.275   6.611 -0.2250  0.3459  0.0904
36094SOL    HW115522   2.999   2.323   6.528  2.5608  1.6968  0.8086
36094SOL    HW215523   3.007   2.183   6.586 -0.9291  0.5834 -1.1225
36095SOL     OW15524   3.313   7.686  11.584 -0.1328 -0.5185 -0.6190
36095SOL    HW115525   3.403   7.703  11.554 -0.1613 -1.3233 -1.1825
36095SOL    HW215526   3.295   7.757  11.646  0.8329 -0.2481 -0.6266
36096SOL     OW15527   6.083   6.017   3.657  0.7220  0.9302 -0.0650
36096SOL    HW115528   6.031   6.036   3.579  0.4463  0.0236 -0.1126
36096SOL    HW215529   6.115   6.102   3.686  0.2185  1.3576 -0.7428
36097SOL     OW15530   3.912   3.469   6.267 -0.2436 -0.3728  0.3723
36097SOL    HW115531   3.827   3.499   6.236 -0.0838  0.8459  1.0599
36097SOL    HW215532   3.928   3.388   6.218 -0.2447  1.1526 -2.3398
36098SOL     OW15533  10.144   1.275   8.545 -0.0961  0.2949  0.0323
36098SOL    HW115534  10.119   1.237   8.628  0.2042  0.6747  0.3006
36098SOL    HW215535  10.229   1.316   8.562 -0.5219  1.2920 -0.1830
36099SOL     OW15536   0.381   5.622   6.084 -0.1535  0.8653 -0.5047
36099SOL    HW115537   0.436   5.554   6.123 -0.2324  0.4494 -1.0950
36099SOL    HW215538   0.385   5.695   6.145 -1.6807 -0.3774  1.1914
36100SOL     OW15539   8.433   1.447   2.202 -0.1140 -0.6827  0.2048
36100SOL    HW115540   8.477   1.374   2.246 -0.3650 -1.5234 -0.8975
36100SOL    HW215541   8.438   1.426   2.109 -1.4110  0.0124 -0.0470
36101SOL     OW15542   0.214   0.631   9.578  0.1251 -0.2669 -0.5958
36101SOL    HW115543   0.148   0.651   9.644  0.4961 -1.8499  0.2988
36101SOL    HW215544   0.164   0.594   9.505  0.0130 -1.6411  0.1553
36102SOL     OW15545  12.253   8.257   4.204 -0.3654  0.0236  0.1620
36102SOL    HW115546  12.307   8.276   4.281 -0.6858  1.5991  0.0264
36102SOL    HW215547  12.182   8.202   4.238 -0.1107  0.1146  0.8571
36103SOL     OW15548  10.182   6.543   2.541  0.5157  0.4230  0.5090
36103SOL    HW115549  10.149   6.469   2.591  0.5248  0.7009  0.9250
36103SOL    HW215550  10.203   6.609   2.606 -1.9982  1.8355  0.0136
36104SOL     OW15551   9.350   9.569   6.368  0.1313 -0.7379  0.0397
36104SOL    HW115552   9.355   9.653   6.413  2.9472 -0.5779 -0.3832
36104SOL    HW215553   9.354   9.591   6.275  1.0170 -1.3058 -0.0733
36105SOL     OW15554   6.236   3.851   0.173 -0.4041 -0.5724  0.3806
36105SOL    HW115555   6.207   3.835   0.083 -0.6855  0.9834  0.1585
36105SOL    HW215556   6.186   3.789   0.225 -1.2025 -0.6212 -0.4129
36106SOL     OW15557   4.815   6.990   9.061 -0.2215 -0.0953  0.3167
36106SOL    HW115558   4.761   6.969   8.984 -0.8811  0.7537  0.5200
36106SOL    HW215559   4.752   7.000   9.132  0.1083  1.4912  0.4397
36107SOL     OW15560   1.387   4.747   5.121 -0.4138 -0.2586  0.6110
36107SOL    HW115561   1.457   4.714   5.065  1.3910  1.6937  1.5729
36107SOL    HW215562   1.401   4.703   5.205 -1.2092 -0.8723  0.4357
36108SOL     OW15563   4.940   6.108   0.797  0.0436  0.3763 -0.7738
36108SOL    HW115564   4.859   6.057   0.802 -0.5276  1.2947 -0.5056
36108SOL    HW215565   4.912   6.199   0.805  1.4367  0.6228  3.4681
36109SOL     OW15566   2.768   0.537  10.644  0.7839  0.8113  0.2904
36109SOL    HW115567   2.832   0.517  10.712  0.3804 -0.6110  0.2902
36109SOL    HW215568   2.703   0.467  10.651 -1.0045  2.4186  0.5580
36110SOL     OW15569  11.455   2.576   5.886 -0.1009  0.6588  0.2090
36110SOL    HW115570  11.432   2.525   5.964 -0.9469 -0.3786 -0.6800
36110SOL    HW215571  11.467   2.510   5.818  0.1346  1.5752 -0.6529
36111SOL     OW15572   8.688   3.785   0.707 -0.3099 -0.3640 -0.1186
36111SOL    HW115573   8.744   3.847   0.661  0.0386 -0.4014  0.2478
36111SOL    HW215574   8.707   3.800   0.800 -0.0387 -1.1772 -0.0323
36112SOL     OW15575   1.867   5.319   5.224  0.3258 -0.3736 -0.3092
36112SOL    HW115576   1.840   5.410   5.210 -1.0625 -0.7244 -0.0057
36112SOL    HW215577   1.934   5.324   5.292  1.0770  0.5175 -1.0803
36113SOL     OW15578  12.197  11.455   3.152  0.1916 -1.0259 -0.2542
36113SOL    HW115579  12.245  11.417   3.078  2.1259 -0.1381  0.4661
36113SOL    HW215580  12.174  11.543   3.123  2.3454 -0.0923  0.6828
36114SOL     OW15581   5.907   7.515  11.550  0.0463  0.1205  0.3194
36114SOL    HW115582   5.986   7.563  11.525 -0.8790  0.3713 -2.4306
36114SOL    HW215583   5.913   7.507  11.645  3.7560 -0.5725  0.1549
36115SOL     OW15584   5.829   3.479  11.753  0.3173 -0.1879  0.0178
36115SOL    HW115585   5.742   3.506  11.783  1.1532  1.9727  0.6832
36115SOL    HW215586   5.862   3.422  11.823 -0.6793 -1.3411 -0.4211
36116SOL     OW15587   5.503   9.306   7.244 -0.1004  0.4235 -0.0136
36116SOL    HW115588   5.455   9.360   7.181  0.9031  0.5087 -0.7269
36116SOL    HW215589   5.532   9.230   7.194  0.0037  0.0857  0.5515
36117SOL     OW15590   7.729   8.318   9.147 -0.4507  0.0399 -0.0452
36117SOL    HW115591   7.670   8.362   9.208 -0.1991  0.8614 -0.3851
36117SOL    HW215592   7.670   8.267   9.091 -0.5949 -1.9970  1.8237
36118SOL     OW15593   5.575   7.375   0.679 -0.8671 -0.3160  0.0385
36118SOL    HW115594   5.649   7.331   0.639 -0.4476  1.2710 -1.0682
36118SOL    HW215595   5.535   7.424   0.606 -0.3832  2.2764  1.3926
36119SOL     OW15596   9.590   3.712   9.594 -0.3080 -0.6200 -1.2423
36119SOL    HW115597   9.684   3.719   9.575  0.2641 -0.7279  1.1682
36119SOL    HW215598   9.555   3.800   9.579  0.3469 -0.3708 -1.3276
36120SOL     OW15599   7.679  11.780   2.550  0.6530 -0.3817 -0.1618
36120SOL    HW115600   7.623  11.842   2.503 -2.1310 -2.5255  0.0772
36120SOL    HW215601   7.710  11.829   2.626  1.6200  1.7761 -1.8507
36121SOL     OW15602   2.318   8.501   0.183  0.0818 -0.0651  0.1801
36121SOL    HW115603   2.247   8.536   0.130  0.3936  1.5443  0.7762
36121SOL    HW215604   2.310   8.406   0.174  0.9837  0.0993 -3.8811
36122SOL     OW15605  10.241  11.109   2.977  0.5401  0.7350  0.0975
36122SOL    HW115606  10.163  11.082   3.026  0.2541  0.8625 -0.2829
36122SOL    HW215607  10.289  11.166   3.037 -0.4409  1.9131 -0.1899
36123SOL     OW15608   8.930   8.258   3.472 -0.5299  0.5606  0.4758
36123SOL    HW115609   8.937   8.257   3.568 -2.7966 -2.3942  0.7393
36123SOL    HW215610   8.925   8.166   3.448  1.6341  1.1359 -2.7346
36124SOL     OW15611  11.426  11.420  11.965  0.0195 -0.3626  0.4009
36124SOL    HW115612  11.356  11.464  11.916 -0.4150 -0.1410  1.2109
36124SOL    HW215613  11.454  11.349  11.907 -0.7833 -0.3722  0.0047
36125SOL     OW15614   8.340   2.678  10.067  0.0867 -0.2492 -0.1774
36125SOL    HW115615   8.372   2.761  10.101 -0.1798 -0.2428  0.0613
36125SOL    HW215616   8.409   2.615  10.086  0.3771 -0.0449 -0.5408
36126SOL     OW15617   4.765   4.225  11.959  0.5843  1.0449 -0.5897
36126SOL    HW115618   4.743   4.271  11.878  3.1380 -1.5355 -2.9914
36126SOL    HW215619   4.856   4.251  11.977  0.7512 -0.0489  0.2132
36127SOL     OW15620   0.494   7.132   4.717  0.0995 -0.0667  0.0457
36127SOL    HW115621   0.486   7.076   4.640 -0.1131  0.0163  0.0064
36127SOL    HW215622   0.503   7.072   4.790  1.5539 -0.1423 -0.1698
36128SOL     OW15623   5.975   6.851   2.489 -0.6751  0.0121  0.1493
36128SOL    HW115624   5.923   6.886   2.417 -0.7626 -1.1437 -0.3819
36128SOL    HW215625   6.056   6.821   2.447 -0.8411 -0.9291  0.4700
36129SOL     OW15626   9.011   8.901   6.724 -0.5846  0.0365 -0.2893
36129SOL    HW115627   8.929   8.933   6.763 -0.9154  0.6201 -1.3992
36129SOL    HW215628   9.019   8.952   6.643  1.2895  0.5404  0.1830
36130SOL     OW15629   0.908   1.084   4.186 -0.0774  0.4180  0.3894
36130SOL    HW115630   0.820   1.103   4.154  0.3670 -1.6250 -2.3924
36130SOL    HW215631   0.920   0.990   4.170  2.1711  0.3494  1.9209
36131SOL     OW15632  12.145   3.548   9.485 -0.1851 -0.6802 -0.1452
36131SOL    HW115633  12.111   3.614   9.545  0.8406 -0.2909  0.0284
36131SOL    HW215634  12.213   3.593   9.435  0.2638 -1.4977 -0.3001
36132SOL     OW15635   6.766   9.569  12.583 -0.1295 -0.4562  0.1076
36132SOL    HW115636   6.827   9.586  12.511 -0.2303 -1.3249 -0.2000
36132SOL    HW215637   6.682   9.602  12.552 -0.1613 -0.7790 -0.1661
36133SOL     OW15638   9.724  11.264   1.130 -0.0120 -0.0309  0.3552
36133SOL    HW115639   9.806  11.231   1.094  0.8566  0.4666  1.7727
36133SOL    HW215640   9.700  11.199   1.196 -1.8010 -1.1604 -1.3221
36134SOL     OW15641   8.670   2.220  11.829 -0.4056 -0.2233 -0.4759
36134SOL    HW115642   8.716   2.219  11.913 -0.6080  0.0019 -0.3607
36134SOL    HW215643   8.705   2.297  11.784  0.4977 -0.9499 -1.0503
36135SOL     OW15644   0.531   4.363   5.753 -0.5385 -0.5901  0.5255
36135SOL    HW115645   0.526   4.295   5.820  0.7495 -1.0821  0.1545
36135SOL    HW215646   0.551   4.315   5.672  0.7854  0.2361  0.3302
36136SOL     OW15647   7.789  11.245   2.399 -0.7778  0.4470  0.3077
36136SOL    HW115648   7.782  11.154   2.368  1.4792  0.6868 -1.1877
36136SOL    HW215649   7.715  11.290   2.358 -0.4023 -0.2092 -1.1507
36137SOL     OW15650   1.506   0.543  10.960  0.0224  0.3075  0.3881
36137SOL    HW115651   1.462   0.588  10.887  1.3415  0.0598 -0.6206
36137SOL    HW215652   1.485   0.451  10.947  0.6951  0.2030 -0.0237
36138SOL     OW15653   0.952   3.159   1.635  0.9278  0.4614 -0.4744
36138SOL    HW115654   0.913   3.179   1.720  0.0725 -2.9913  0.0634
36138SOL    HW215655   0.897   3.207   1.573 -0.5701  0.3600  0.6934
36139SOL     OW15656   0.301   1.231  12.038 -0.0630  0.6346 -0.2655
36139SOL    HW115657   0.335   1.157  11.988  2.0311  1.7157 -0.5568
36139SOL    HW215658   0.296   1.199  12.128 -1.8786 -0.6845 -0.7878
36140SOL     OW15659  10.245  11.768   1.939 -0.0900  0.3364 -1.1454
36140SOL    HW115660  10.206  11.740   2.022 -0.6152  0.7596 -1.2440
36140SOL    HW215661  10.207  11.709   1.874 -0.1133  0.3711 -1.1635
36141SOL     OW15662   1.534   0.317   8.975  0.1502 -0.4986  0.2253
36141SOL    HW115663   1.449   0.359   8.968 -1.1990 -2.9462  0.8517
36141SOL    HW215664   1.562   0.305   8.884 -1.2774 -1.6771 -0.1024
36142SOL     OW15665   4.674   1.786   0.476  0.3882  0.5150 -0.2786
36142SOL    HW115666   4.638   1.698   0.462 -1.1103  0.9494  0.6019
36142SOL    HW215667   4.767   1.771   0.493 -0.0775 -1.0691  1.2872
36143SOL     OW15668   9.198   9.471   8.692  0.0544  0.2279 -0.2171
36143SOL    HW115669   9.149   9.392   8.668  0.2675  0.1308 -0.3302
36143SOL    HW215670   9.169   9.537   8.629  2.9315 -0.8161 -2.8904
36144SOL     OW15671   1.075  11.369   4.772 -0.2191 -0.3613 -0.2190
36144SOL    HW115672   1.108  11.453   4.742  0.6564 -1.0387 -1.2227
36144SOL    HW215673   1.034  11.388   4.857 -0.4466  1.1383 -0.6378
36145SOL     OW15674   6.774   2.654  11.514 -0.8216 -0.5546 -0.2811
36145SOL    HW115675   6.811   2.740  11.534  0.3979 -1.0613 -0.2900
36145SOL    HW215676   6.680   2.665  11.530 -1.0734  1.4272 -2.4619
36146SOL     OW15677   3.114   0.211   6.477  0.1988 -0.8511  0.8953
36146SOL    HW115678   3.101   0.206   6.572 -1.4462  1.1006  0.8499
36146SOL    HW215679   3.201   0.248   6.466  0.6403 -1.6432  1.6151
36147SOL     OW15680   0.172   3.195  11.085 -0.5732  0.7656 -0.3648
36147SOL    HW115681   0.240   3.135  11.114 -0.3750 -0.0720 -2.4435
36147SOL    HW215682   0.218   3.277  11.067 -0.7526  1.4234  1.8750
36148SOL     OW15683  12.154   3.364   8.372  0.3349  0.5150  0.2813
36148SOL    HW115684  12.082   3.428   8.380 -0.5543 -0.0199 -2.3775
36148SOL    HW215685  12.138   3.301   8.442 -3.4570 -1.0356 -1.6944
36149SOL     OW15686   7.735   6.823  10.616  0.3360  0.0089 -0.4456
36149SOL    HW115687   7.698   6.797  10.532  0.6750  0.6551 -0.8062
36149SOL    HW215688   7.830   6.819  10.603  0.3904  0.1683 -0.1145
36150SOL     OW15689   7.739   4.781   4.250 -0.4738  0.0257 -0.3588
36150SOL    HW115690   7.653   4.816   4.274  0.4404  1.0410  1.6849
36150SOL    HW215691   7.765   4.831   4.173 -1.9385 -0.7236 -1.3873
36151SOL     OW15692   9.138  11.434  11.834  0.2724 -0.0598  0.7200
36151SOL    HW115693   9.159  11.506  11.774 -0.2024 -1.6459 -1.4900
36151SOL    HW215694   9.066  11.468  11.888 -0.9483  0.7026 -1.2648
36152SOL     OW15695  11.315  12.684   3.621 -0.5385  0.4324 -0.0501
36152SOL    HW115696  11.395  12.732   3.640 -0.2686 -0.2449  0.5739
36152SOL    HW215697  11.304  12.625   3.696 -0.3627 -1.1342 -1.2260
36153SOL     OW15698   7.064   1.056   3.466 -0.0280 -0.4781  0.3099
36153SOL    HW115699   6.971   1.036   3.461  0.1949 -1.6503  0.4757
36153SOL    HW215700   7.103   0.978   3.506  1.0498 -0.0844  0.0648
36154SOL     OW15701   0.988   1.557  11.144 -0.3087  0.0275  0.4865
36154SOL    HW115702   0.911   1.518  11.105 -0.3320 -0.0391  0.5993
36154SOL    HW215703   0.954   1.623  11.204 -0.3154 -0.6950  1.2981
36155SOL     OW15704  10.672   2.540   0.144 -0.4006  0.1251  0.5610
36155SOL    HW115705  10.588   2.563   0.104  0.4818 -0.6047 -1.8688
36155SOL    HW215706  10.724   2.620   0.138 -0.7675  0.4706  1.7365
36156SOL     OW15707   1.664   8.372   0.051  0.8547 -0.3908 -0.3607
36156SOL    HW115708   1.658   8.451   0.104 -0.6007 -0.7145  0.0094
36156SOL    HW215709   1.677   8.301   0.114  1.3925 -0.5406 -0.6313
36157SOL     OW15710   7.041   9.180   6.122  0.4903  0.2030  0.3869
36157SOL    HW115711   7.002   9.118   6.061 -0.0950  0.4971  0.4540
36157SOL    HW215712   7.131   9.191   6.092  0.0897  0.6673 -0.6781
36158SOL     OW15713  11.638  11.945   3.540 -0.0148  0.2429  0.5907
36158SOL    HW115714  11.693  11.991   3.477 -0.8952 -0.3649 -0.6554
36158SOL    HW215715  11.556  11.994   3.541  0.3989  0.9600  2.2070
36159SOL     OW15716   6.973   1.033  11.821  0.3354 -0.1231  0.3934
36159SOL    HW115717   6.919   1.112  11.815  0.0938 -0.3707 -0.8798
36159SOL    HW215718   6.912   0.965  11.851  0.0695 -0.2685 -0.4612
36160SOL     OW15719   9.968   4.603   0.379 -0.0679 -0.0420 -0.7427
36160SOL    HW115720   9.975   4.551   0.299 -1.7691 -0.9881 -0.3158
36160SOL    HW215721  10.029   4.560   0.440 -0.5308 -0.7971 -0.7951
36161SOL     OW15722  12.078   4.065  12.397  0.2332 -0.0363  0.0495
36161SOL    HW115723  12.161   4.076  12.350 -0.3030  0.6140 -0.7678
36161SOL    HW215724  12.013   4.053  12.327 -0.6637  1.4955  0.5995
36162SOL     OW15725   0.790   0.485   5.249  0.0504 -0.7528  0.2931
36162SOL    HW115726   0.827   0.471   5.161 -0.4547  0.9583 -0.2349
36162SOL    HW215727   0.722   0.418   5.257 -0.2216 -0.6477 -0.8449
36163SOL     OW15728  12.466   4.559  11.514 -0.3572  0.1528  0.1073
36163SOL    HW115729  12.409   4.614  11.569 -0.7809  0.0796 -0.2572
36163SOL    HW215730  12.406   4.517  11.452 -0.3954 -2.4395  1.7344
36164SOL     OW15731   6.123   9.169   3.683 -0.1825  0.0734  0.2588
36164SOL    HW115732   6.055   9.205   3.626 -0.6605  0.1958  0.8926
36164SOL    HW215733   6.179   9.243   3.703 -0.2067  0.1018  0.2218
36165SOL     OW15734   4.857   1.701   9.296  0.4846 -0.1587 -0.3487
36165SOL    HW115735   4.918   1.774   9.282  0.7696 -0.3002  0.1459
36165SOL    HW215736   4.866   1.648   9.217  1.4934 -0.5234 -0.0061
36166SOL     OW15737   4.009   7.708  11.691  0.0270  0.1917  0.0170
36166SOL    HW115738   3.982   7.773  11.627 -0.5509 -1.2888 -1.3001
36166SOL    HW215739   4.104   7.712  11.692 -0.0094  1.9374  0.9495
36167SOL     OW15740   8.750   4.503   3.400  0.6281 -0.0941  0.2535
36167SOL    HW115741   8.751   4.532   3.309  0.2093 -0.7077  0.0447
36167SOL    HW215742   8.780   4.412   3.396  2.4107  0.4182  0.9359
36168SOL     OW15743  10.749   1.819   2.302  0.2349  0.0380 -0.1057
36168SOL    HW115744  10.676   1.866   2.344 -0.1874 -0.4370 -0.2981
36168SOL    HW215745  10.785   1.881   2.239  1.5261  1.1581  1.6108
36169SOL     OW15746  11.142   5.412   3.206  0.0181  0.1282  0.1539
36169SOL    HW115747  11.166   5.441   3.294 -1.3439 -1.6358  1.1702
36169SOL    HW215748  11.080   5.479   3.175  0.3320  0.6435  0.6252
36170SOL     OW15749  11.003   4.640   6.664  0.0044 -0.0405 -0.2852
36170SOL    HW115750  11.057   4.562   6.670 -0.1698 -0.0347  2.4421
36170SOL    HW215751  11.056   4.709   6.703 -0.7890  0.6714 -0.4290
36171SOL     OW15752   2.559   4.849   3.609  0.1188  0.5289  0.3078
36171SOL    HW115753   2.505   4.771   3.627 -2.8285  3.0239  3.8312
36171SOL    HW215754   2.536   4.873   3.519 -0.2911 -1.6164 -0.2226
36172SOL     OW15755   3.042  11.258   5.939 -0.2414 -0.0960 -0.6573
36172SOL    HW115756   3.010  11.170   5.921 -0.9412 -0.2178  0.9419
36172SOL    HW215757   2.964  11.306   5.969  0.6483  0.1533  1.4798
36173SOL     OW15758   4.761   6.259  10.385 -0.3185  0.0925 -0.1596
36173SOL    HW115759   4.706   6.330  10.353 -0.9292 -0.2877  0.0074
36173SOL    HW215760   4.755   6.191  10.318  2.8920  1.3828 -1.9613
36174SOL     OW15761  12.178  11.745   8.244 -0.0921  0.3833 -0.1945
36174SOL    HW115762  12.112  11.690   8.202 -0.6885  0.5869  0.4560
36174SOL    HW215763  12.173  11.829   8.198 -0.9531  0.7043  0.4507
36175SOL     OW15764  10.974   6.866   3.427 -0.6019  0.3017  0.0426
36175SOL    HW115765  10.905   6.903   3.482 -0.9172 -0.8875  0.4632
36175SOL    HW215766  11.031   6.820   3.488  1.4863  2.5452 -0.0815
36176SOL     OW15767  10.165  11.326   9.449 -0.8328  0.1251 -0.5720
36176SOL    HW115768  10.215  11.367   9.379  2.1023 -1.7327  0.2749
36176SOL    HW215769  10.138  11.242   9.413  0.4932 -0.7417  0.3527
36177SOL     OW15770  12.028   1.055   4.540  0.1865 -0.3889  0.0364
36177SOL    HW115771  12.055   1.006   4.617  1.1768  0.8300  0.5023
36177SOL    HW215772  12.007   1.143   4.573 -0.9431 -0.3009 -0.8557
36178SOL     OW15773   3.018   8.984   9.159  0.5722 -0.9281  0.5938
36178SOL    HW115774   2.965   9.004   9.235 -0.4900 -0.9882 -0.1167
36178SOL    HW215775   3.086   9.052   9.159 -0.6178  0.3097  0.4607
36179SOL     OW15776   5.219   3.871   8.464  0.4167 -0.0905  0.2555
36179SOL    HW115777   5.172   3.948   8.432 -0.4400  0.0678  1.8005
36179SOL    HW215778   5.274   3.845   8.391  0.2769  1.6246 -0.5094
36180SOL     OW15779  11.286   1.566   5.738 -0.0663 -0.3242 -0.8222
36180SOL    HW115780  11.192   1.551   5.751  0.0264 -0.3182 -0.0725
36180SOL    HW215781  11.290   1.640   5.678 -0.5991  1.6387  1.3774
36181SOL     OW15782   9.924   0.149   2.041 -0.1717  0.1462 -0.0077
36181SOL    HW115783   9.848   0.143   2.099  0.5272 -1.2729  0.8053
36181SOL    HW215784   9.908   0.083   1.973  1.1068 -1.4432  1.1574
36182SOL     OW15785   1.387   4.799   3.476 -0.0307 -0.5904 -0.0951
36182SOL    HW115786   1.376   4.741   3.552  0.2713 -1.2361 -0.5345
36182SOL    HW215787   1.300   4.836   3.462  0.1959  0.6027  1.3932
36183SOL     OW15788   9.488   8.547   9.455  0.1676 -0.1982  0.0819
36183SOL    HW115789   9.576   8.576   9.434 -0.6080  1.7575 -0.6884
36183SOL    HW215790   9.500   8.481   9.523  2.1221  1.8871  1.9274
36184SOL     OW15791  12.070   8.427   7.754  0.6276 -0.1097 -0.4917
36184SOL    HW115792  12.011   8.364   7.797 -1.5155  2.5952  0.8453
36184SOL    HW215793  12.080   8.394   7.665 -1.3391 -1.7329 -0.1849
36185SOL     OW15794   4.752  11.093   3.887  0.3410  0.1983 -0.0834
36185SOL    HW115795   4.676  11.131   3.843 -0.8142 -1.0194  0.7803
36185SOL    HW215796   4.822  11.096   3.822 -0.6136  0.7797 -1.1118
36186SOL     OW15797  12.703   7.000  11.020 -0.1934 -0.2857 -0.2592
36186SOL    HW115798  12.686   7.069  10.956  1.0192 -0.2912 -0.6147
36186SOL    HW215799  12.798   7.003  11.033 -0.3579 -0.5933  1.1922
36187SOL     OW15800   6.531   9.157   4.130  0.0271 -0.3709 -0.3629
36187SOL    HW115801   6.610   9.193   4.170  1.0727 -2.1776 -0.6787
36187SOL    HW215802   6.523   9.069   4.168 -2.3276  0.0501  0.2801
36188SOL     OW15803   9.302   3.182   2.494  0.2219  0.0968  0.5261
36188SOL    HW115804   9.293   3.268   2.452  0.1870 -0.6648 -1.1023
36188SOL    HW215805   9.352   3.130   2.431 -0.4389 -1.3075  1.1277
36189SOL     OW15806  12.252   8.077  11.409 -0.1148 -0.1289  0.2744
36189SOL    HW115807  12.163   8.087  11.374 -0.7130  1.5688  2.1038
36189SOL    HW215808  12.301   8.150  11.372  0.3672 -0.6673 -0.1834
36190SOL     OW15809   0.220   1.514   2.811 -0.3378 -0.4852  0.4470
36190SOL    HW115810   0.186   1.434   2.852  0.3200 -0.5478  0.9011
36190SOL    HW215811   0.315   1.502   2.813 -0.1455  0.9091  1.7988
36191SOL     OW15812   9.923  10.241   9.346  0.6691 -0.0164  0.6330
36191SOL    HW115813   9.853  10.179   9.328  0.3811  0.4391  0.1370
36191SOL    HW215814   9.995  10.214   9.288  1.0618 -0.7389  1.4486
36192SOL     OW15815  11.052   4.085   6.485  0.1780 -0.0620  0.6970
36192SOL    HW115816  11.074   4.062   6.394 -1.3503  0.1820  0.2366
36192SOL    HW215817  11.046   4.180   6.485 -1.1311 -0.1229  0.7058
36193SOL     OW15818  12.054   9.065   4.630 -0.4436  0.0531  0.4887
36193SOL    HW115819  12.061   9.107   4.716 -1.2498  0.6660  0.2713
36193SOL    HW215820  11.974   9.013   4.635 -0.9299  0.7186 -0.1364
36194SOL     OW15821   4.953   1.635   0.528  0.0717  0.0799  0.5154
36194SOL    HW115822   5.039   1.599   0.506  0.0359  1.0850 -1.4395
36194SOL    HW215823   4.965   1.730   0.526 -0.9972  0.2304  0.6282
36195SOL     OW15824   9.295  12.362   3.829  0.2094  0.1860 -0.2222
36195SOL    HW115825   9.362  12.293   3.837 -0.5742 -0.7260 -1.2422
36195SOL    HW215826   9.228  12.338   3.893 -0.6277 -0.7066 -1.3847
36196SOL     OW15827   5.196  10.472   9.310 -0.1757 -0.3380 -0.4823
36196SOL    HW115828   5.214  10.384   9.343  0.9675  0.0919  0.0929
36196SOL    HW215829   5.217  10.530   9.383 -0.1381  0.4701 -1.1231
36197SOL     OW15830   4.443   7.836   0.141 -0.1753  0.2857 -0.1221
36197SOL    HW115831   4.463   7.905   0.078 -0.3088 -0.0346 -0.5175
36197SOL    HW215832   4.468   7.873   0.226  1.9628 -0.0307 -0.5522
36198SOL     OW15833   9.744   5.429  11.806 -0.0634  0.0984  0.5516
36198SOL    HW115834   9.715   5.502  11.750  0.8826 -0.2546 -0.4219
36198SOL    HW215835   9.747   5.466  11.894  0.1208  1.1578  0.1114
36199SOL     OW15836   2.091   8.719   6.328  0.5917  0.1141 -0.1277
36199SOL    HW115837   2.179   8.748   6.308  0.4484  0.8679  0.3192
36199SOL    HW215838   2.055   8.693   6.243  1.5743 -1.1740 -0.1766
36200SOL     OW15839   8.051   8.767   8.575  0.2150 -0.4476  0.1860
36200SOL    HW115840   8.061   8.860   8.551 -1.8102 -0.2783 -0.2018
36200SOL    HW215841   8.137   8.741   8.607  0.9561  1.4471 -0.1316
36201SOL     OW15842  11.670   7.097   3.985 -0.0194 -0.2038 -0.5619
36201SOL    HW115843  11.751   7.048   3.978  0.4216  0.3189  0.6566
36201SOL    HW215844  11.607   7.035   4.022  0.6115  0.1775  1.2541
36202SOL     OW15845   3.517   6.250   9.873 -0.4541  0.5218 -0.1022
36202SOL    HW115846   3.447   6.309   9.899 -1.5437 -1.1372  0.9466
36202SOL    HW215847   3.474   6.183   9.820  0.9013  1.0840 -2.0310
36203SOL     OW15848   5.826  11.358   2.690 -0.1926  0.2031 -0.1138
36203SOL    HW115849   5.785  11.429   2.739 -0.9575 -0.4344  0.1953
36203SOL    HW215850   5.756  11.294   2.676  0.2526 -0.0723 -1.1997
36204SOL     OW15851   7.543  10.505   9.925  0.0423 -0.1702  0.3569
36204SOL    HW115852   7.457  10.465   9.935 -0.3845  0.8402  0.8430
36204SOL    HW215853   7.577  10.468   9.843 -0.1400 -1.8191  0.9699
36205SOL     OW15854   1.212   3.389   0.732 -0.1563  0.1676 -0.0046
36205SOL    HW115855   1.282   3.335   0.768 -0.7365 -0.2309  0.5518
36205SOL    HW215856   1.145   3.326   0.706 -0.8175  0.6140  0.5916
36206SOL     OW15857  12.278   9.177  11.938  0.1347  0.1425  0.2938
36206SOL    HW115858  12.358   9.228  11.952  0.1875 -0.5713  3.3145
36206SOL    HW215859  12.209   9.243  11.928  0.8019  0.7581 -0.3942
36207SOL     OW15860  12.693   1.516   5.313  0.5682 -0.0063  0.1676
36207SOL    HW115861  12.631   1.539   5.382 -0.6505 -0.1448 -0.8434
36207SOL    HW215862  12.653   1.443   5.267  0.6491  0.9826 -1.5702
36208SOL     OW15863   1.849   1.257  11.660 -0.1939 -0.0803 -0.5159
36208SOL    HW115864   1.866   1.304  11.742 -0.3383 -1.7206  0.4997
36208SOL    HW215865   1.772   1.301  11.623 -1.1533 -0.3173  1.0772
36209SOL     OW15866   4.004  11.799   0.556  0.0914  0.1351  0.5865
36209SOL    HW115867   4.053  11.796   0.474  0.4497 -0.3482  0.8157
36209SOL    HW215868   4.021  11.887   0.591 -1.3784  0.9651 -0.6393
36210SOL     OW15869   6.943  11.812   0.397  0.4386  0.0948  0.7465
36210SOL    HW115870   6.867  11.755   0.413 -0.9507  0.9397 -2.1167
36210SOL    HW215871   7.010  11.754   0.361 -1.3329  0.1738 -3.1859
36211SOL     OW15872   9.277   5.983   3.723 -0.4357  0.0622  0.0392
36211SOL    HW115873   9.372   5.986   3.710 -0.6032 -1.8955 -2.3119
36211SOL    HW215874   9.240   5.984   3.634 -2.6325  0.4885  0.8793
36212SOL     OW15875  10.226   2.554   0.956 -0.3113  0.4247 -0.9023
36212SOL    HW115876  10.166   2.482   0.938 -0.9771  0.0785  2.1855
36212SOL    HW215877  10.251   2.542   1.047  0.9532  3.1333 -0.7963
36213SOL     OW15878   0.811  12.627  12.367 -0.1296  0.7189 -0.2126
36213SOL    HW115879   0.773  12.687  12.303 -0.7155 -0.4687 -1.0064
36213SOL    HW215880   0.839  12.551  12.316  1.3975  0.6555  0.6481
36214SOL     OW15881   2.343  10.273  10.570  0.0705  0.2743 -0.3152
36214SOL    HW115882   2.284  10.247  10.641  0.6312 -0.7361 -0.2148
36214SOL    HW215883   2.367  10.363  10.591  0.1546  0.0162  0.7186
36215SOL     OW15884   7.514   5.600   1.761  0.7162 -0.3831  0.2702
36215SOL    HW115885   7.472   5.685   1.755  0.9508 -0.2526  0.4803
36215SOL    HW215886   7.442   5.538   1.773  0.5029 -0.2725 -0.3703
36216SOL     OW15887   1.358  10.956  11.624  0.3539 -0.6338 -0.3203
36216SOL    HW115888   1.372  11.035  11.570 -0.3567 -0.6700 -0.5704
36216SOL    HW215889   1.271  10.925  11.598  0.1398 -0.8406  0.6198
36217SOL     OW15890   5.863   1.470   0.295  0.6125 -0.2556  0.2160
36217SOL    HW115891   5.865   1.378   0.319  0.7595 -0.2819  0.1003
36217SOL    HW215892   5.858   1.517   0.379 -1.1059 -0.4177  0.2351
36218SOL     OW15893   3.213   6.529   0.002 -0.1548 -0.1046  0.4341
36218SOL    HW115894   3.229   6.462  -0.064 -1.1740 -2.2876  2.2979
36218SOL    HW215895   3.300   6.564   0.022  0.4895 -1.3404 -0.1102
36219SOL     OW15896   3.106   5.042   1.320  0.3913 -0.3905  0.3051
36219SOL    HW115897   3.164   5.078   1.252 -0.8722 -1.0555 -1.1920
36219SOL    HW215898   3.018   5.059   1.287 -0.2513 -2.1184  1.0198
36220SOL     OW15899   3.563  12.141   6.682  0.4358 -0.9353  0.4387
36220SOL    HW115900   3.583  12.214   6.624 -1.6172 -0.9542 -0.3855
36220SOL    HW215901   3.609  12.066   6.643 -0.6749 -0.8917 -1.0490
36221SOL     OW15902   2.711   7.298  12.423 -0.5973 -0.2690  0.0272
36221SOL    HW115903   2.771   7.289  12.350 -0.4050 -1.9304  0.3474
36221SOL    HW215904   2.672   7.385  12.412  1.9499  0.9587 -0.0965
36222SOL     OW15905   3.502   7.518   5.584 -0.5880 -0.4138 -0.2236
36222SOL    HW115906   3.460   7.593   5.543  1.2154  0.8234  0.0703
36222SOL    HW215907   3.577   7.498   5.528 -0.3408 -1.1933  0.3632
36223SOL     OW15908   0.620   7.413   3.174 -0.3028 -0.2988 -0.0688
36223SOL    HW115909   0.527   7.426   3.189 -0.1517 -0.2420  0.8475
36223SOL    HW215910   0.632   7.430   3.080 -1.4430 -1.7756 -0.5139
36224SOL     OW15911  12.562   0.753   7.590  0.1258  0.4189 -0.5556
36224SOL    HW115912  12.473   0.752   7.625 -0.2625  1.3643 -1.4789
36224SOL    HW215913  12.557   0.697   7.512  0.5303 -0.1274 -0.1988
36225SOL     OW15914   1.935   1.889   1.878  0.1367 -0.3687  0.6877
36225SOL    HW115915   1.934   1.890   1.974  0.8038  0.0022  0.6969
36225SOL    HW215916   1.846   1.866   1.853 -0.2192  0.2076  1.3955
36226SOL     OW15917   2.072   2.164   5.048 -0.2930  0.2487  0.0873
36226SOL    HW115918   2.005   2.097   5.060 -0.1229  0.2469  1.1666
36226SOL    HW215919   2.047   2.210   4.968 -0.6428 -0.8341 -0.4388
36227SOL     OW15920  12.013   8.632   3.384 -0.2952 -0.5508 -0.2505
36227SOL    HW115921  12.078   8.621   3.315  3.0315  1.1479  2.3316
36227SOL    HW215922  11.989   8.543   3.410  0.4318 -1.2083 -1.7143
36228SOL     OW15923   2.417   7.332  11.965  0.4477 -0.2643 -0.2771
36228SOL    HW115924   2.361   7.285  11.904 -0.8367  0.5607  0.2216
36228SOL    HW215925   2.491   7.273  11.981 -0.7925 -1.8435 -0.1441
36229SOL     OW15926   7.677   6.343   2.841  0.1516 -0.0138 -0.2134
36229SOL    HW115927   7.741   6.324   2.773  0.0735 -1.3329  0.0492
36229SOL    HW215928   7.592   6.340   2.797  0.0984 -0.9046 -0.0829
36230SOL     OW15929   5.203   0.105   4.036 -0.4313 -0.0281 -0.4142
36230SOL    HW115930   5.176   0.038   3.973 -0.3553 -1.6630  1.1973
36230SOL    HW215931   5.217   0.056   4.117  1.4214  1.6954  0.3621
36231SOL     OW15932  12.211   8.229   2.155  0.7238  0.1966 -0.2247
36231SOL    HW115933  12.126   8.186   2.147 -0.1445  1.7339  0.3294
36231SOL    HW215934  12.275   8.160   2.136 -0.6202 -1.1069 -0.1740
36232SOL     OW15935   9.223   6.387  11.260 -0.3599 -0.0136  0.2815
36232SOL    HW115936   9.146   6.445  11.257 -0.2921  0.0733  0.1902
36232SOL    HW215937   9.238   6.372  11.353 -1.2989 -1.1177  0.2739
36233SOL     OW15938   1.223   3.080   1.003  0.5348 -0.4967 -0.2818
36233SOL    HW115939   1.136   3.092   1.042 -0.0291 -0.0927 -1.5894
36233SOL    HW215940   1.247   2.990   1.025  0.5424 -0.1015  1.5103
36234SOL     OW15941   0.639   8.854   1.157  0.4617  0.1690 -0.5275
36234SOL    HW115942   0.612   8.804   1.080 -2.4221  1.9339 -0.8074
36234SOL    HW215943   0.677   8.935   1.121  0.6703  0.2707 -0.0911
36235SOL     OW15944   5.343   8.271   8.365 -0.4315 -0.7430  0.4836
36235SOL    HW115945   5.412   8.255   8.301  1.4992 -0.6727  2.4508
36235SOL    HW215946   5.337   8.366   8.372 -2.4266 -0.6381 -1.3114
36236SOL     OW15947  10.684   4.742   6.144 -0.0887  0.6902  0.2839
36236SOL    HW115948  10.695   4.648   6.152  1.3493  0.4161 -3.1733
36236SOL    HW215949  10.590   4.757   6.158 -0.9906 -1.7620 -2.1694
36237SOL     OW15950  12.494   4.926   3.899 -0.6113  0.4158 -0.0857
36237SOL    HW115951  12.501   4.864   3.826  0.7247 -0.0501  0.4125
36237SOL    HW215952  12.568   4.905   3.955 -0.5904  1.9611  0.5010
36238SOL     OW15953   5.631   6.865  12.645 -0.3587 -0.7295  0.1500
36238SOL    HW115954   5.610   6.784  12.599 -1.4375 -0.4457  0.1238
36238SOL    HW215955   5.551   6.917  12.641  0.7083  0.9661 -1.1092
36239SOL     OW15956  11.261  11.116  10.411  0.0748  0.1622 -0.2947
36239SOL    HW115957  11.319  11.109  10.336 -0.8716  0.8304 -1.1081
36239SOL    HW215958  11.318  11.103  10.487  0.9338 -1.1647 -1.1284
36240SOL     OW15959   2.000  11.256   8.224  0.4961  0.4354  0.5404
36240SOL    HW115960   1.928  11.205   8.261  1.1843 -1.9648 -1.2311
36240SOL    HW215961   2.077  11.225   8.271  0.8343  0.3386 -0.0737
36241SOL     OW15962   9.927   1.868   3.483  0.6389 -0.3536  0.0710
36241SOL    HW115963   9.908   1.911   3.399  1.5150  0.2265  0.1577
36241SOL    HW215964   9.914   1.775   3.466  2.5230 -0.4258 -1.2088
36242SOL     OW15965   7.598   6.784  10.381  0.3087  0.4277 -0.5479
36242SOL    HW115966   7.663   6.826  10.325  3.1994 -0.7963  1.6482
36242SOL    HW215967   7.585   6.697  10.343  1.9089 -0.2300  0.3291
36243SOL     OW15968   1.196  11.558   0.060  0.3126  0.7670 -0.6120
36243SOL    HW115969   1.178  11.619   0.132  0.2237  0.8033 -0.6664
36243SOL    HW215970   1.251  11.491   0.100 -1.2020 -0.1802 -0.0613
36244SOL     OW15971   3.914   0.782   1.337  0.5570  0.7271  0.0762
36244SOL    HW115972   3.976   0.768   1.266  2.0329  1.8615  1.0900
36244SOL    HW215973   3.859   0.704   1.336  1.5936 -0.0295 -1.2473
36245SOL     OW15974   5.839   4.194   6.051 -0.5470 -0.7999  0.1192
36245SOL    HW115975   5.859   4.134   5.979  0.8652 -1.8952  1.3483
36245SOL    HW215976   5.745   4.211   6.043 -0.9004 -2.8007 -0.5822
36246SOL     OW15977   6.141   5.569   4.699 -0.3753 -0.1334  0.5166
36246SOL    HW115978   6.075   5.503   4.676  0.3848 -1.3159  1.6397
36246SOL    HW215979   6.116   5.599   4.786  0.7015 -0.7804  1.0624
36247SOL     OW15980   3.189  12.584   1.858  0.1483 -0.2567 -0.1612
36247SOL    HW115981   3.176  12.491   1.840  0.5809 -0.3854  0.1539
36247SOL    HW215982   3.102  12.622   1.854 -0.0740 -0.7374  0.0513
36248SOL     OW15983   3.073   7.917   8.766 -0.0260 -0.2431 -0.6176
36248SOL    HW115984   3.127   7.849   8.726 -0.6049 -1.0054 -0.1392
36248SOL    HW215985   3.106   7.924   8.855 -1.3643 -1.4688  0.0095
36249SOL     OW15986   0.849   0.823  12.224  0.0119 -0.3217 -0.8595
36249SOL    HW115987   0.764   0.861  12.202 -1.3662 -0.3733  3.3951
36249SOL    HW215988   0.911   0.895  12.214 -1.3177  1.0174  0.0726
36250SOL     OW15989   3.184   2.762   6.776 -0.6510  0.0284  0.2898
36250SOL    HW115990   3.246   2.740   6.845 -0.9153 -1.6426  0.0456
36250SOL    HW215991   3.232   2.821   6.719 -0.2034  0.8999  1.5252
36251SOL     OW15992   3.769  11.962   5.065 -0.1076  0.0252 -0.1174
36251SOL    HW115993   3.845  11.969   5.123 -0.6951  0.8839  0.5623
36251SOL    HW215994   3.701  11.921   5.119 -0.4012  0.0520 -0.4632
36252SOL     OW15995   4.130   4.002  12.000  0.3108 -0.5973 -0.1884
36252SOL    HW115996   4.072   4.022  11.926 -0.8391  2.0750  1.2790
36252SOL    HW215997   4.071   3.985  12.073  1.3747  0.1002  0.8709
36253SOL     OW15998   2.135   0.159   2.378  0.5287 -0.4018 -0.5419
36253SOL    HW115999   2.042   0.141   2.366  0.1578  1.0430  0.0121
36253SOL    HW216000   2.150   0.242   2.333  1.2356  0.0804  0.5510
36254SOL     OW16001   4.512   9.258   3.921 -0.0913 -0.2139  0.0338
36254SOL    HW116002   4.443   9.223   3.866 -0.1503  1.3092 -0.9110
36254SOL    HW216003   4.488   9.350   3.935  1.7146  0.3589 -0.3349
36255SOL     OW16004   0.371   9.907   8.604 -0.1430  0.1496  0.0405
36255SOL    HW116005   0.404   9.997   8.595  0.0447  0.0180 -0.7237
36255SOL    HW216006   0.420   9.870   8.677  2.2840 -0.3822 -1.7229
36256SOL     OW16007   7.344   0.625   5.493 -0.0590  0.4844  0.0040
36256SOL    HW116008   7.388   0.707   5.513  0.6388  0.1767 -0.2107
36256SOL    HW216009   7.406   0.557   5.520 -1.4694 -0.0356  2.1729
36257SOL     OW16010   5.219   6.823   8.247 -0.3677 -0.3209 -0.4721
36257SOL    HW116011   5.202   6.738   8.288  2.2120 -0.3894  0.6152
36257SOL    HW216012   5.199   6.887   8.316  1.6795 -0.3131  0.1681
36258SOL     OW16013   5.613   4.647   6.765 -0.5492 -0.0142  0.1995
36258SOL    HW116014   5.702   4.654   6.732 -0.1135  0.6952  1.4801
36258SOL    HW216015   5.614   4.694   6.848 -2.8651  2.8767 -1.2200
36259SOL     OW16016  10.308  10.488   7.582  0.2481  0.7058  0.0563
36259SOL    HW116017  10.324  10.437   7.661  2.9850 -0.2111 -0.9715
36259SOL    HW216018  10.368  10.451   7.517  0.5572  3.6031 -1.4761
36260SOL     OW16019  12.511   1.128   4.306 -0.8526  0.3242  0.1682
36260SOL    HW116020  12.420   1.150   4.325 -1.6525 -1.4105 -1.3596
36260SOL    HW216021  12.542   1.200   4.251 -1.2067  1.0672  0.9293
36261SOL     OW16022   7.747   7.382   1.333 -0.1686  0.2134  0.2156
36261SOL    HW116023   7.773   7.355   1.245 -0.6044 -0.8264  0.3953
36261SOL    HW216024   7.671   7.439   1.319  0.8120  1.4797 -0.1706
36262SOL     OW16025   3.847   0.995  11.891  0.3329 -0.4625  0.6126
36262SOL    HW116026   3.794   1.074  11.900  1.3039  0.3341 -0.3322
36262SOL    HW216027   3.895   0.988  11.973  1.1071  0.6060  0.2667
36263SOL     OW16028  10.946   5.249   3.712 -0.0099 -0.0354 -0.2509
36263SOL    HW116029  10.932   5.189   3.785 -1.9565 -2.0055 -2.0667
36263SOL    HW216030  11.030   5.222   3.675  1.2006  1.2518  1.3754
36264SOL     OW16031   9.763   7.982  10.913 -0.2144 -0.5860  0.3348
36264SOL    HW116032   9.803   8.010  10.995  1.4658 -0.6887 -0.4137
36264SOL    HW216033   9.794   7.892  10.902  0.1153 -0.3520 -0.7253
36265SOL     OW16034  10.475   2.782   6.927 -0.0165 -0.0322 -0.3425
36265SOL    HW116035  10.481   2.840   6.851 -1.0477 -2.1408 -2.1505
36265SOL    HW216036  10.390   2.803   6.966 -0.1025  0.1236 -0.6064
36266SOL     OW16037   2.943   1.739   5.504 -0.4669  0.0125 -0.3116
36266SOL    HW116038   3.036   1.757   5.518 -0.4838 -0.1531 -0.0049
36266SOL    HW216039   2.926   1.658   5.551 -0.6630 -0.2031 -0.7460
36267SOL     OW16040   3.125   2.214  11.754 -0.5700  0.6462 -0.0750
36267SOL    HW116041   3.200   2.262  11.718 -0.2506  0.6855  0.6276
36267SOL    HW216042   3.160   2.128  11.777 -0.7249  0.6871  0.3173
36268SOL     OW16043   8.917   6.037   4.870  0.8289 -0.9783 -0.0338
36268SOL    HW116044   8.863   6.050   4.793 -0.5088 -0.3055  0.9798
36268SOL    HW216045   8.998   5.998   4.836  0.3043 -0.6539 -1.7583
36269SOL     OW16046   3.971   2.089   2.010  0.0588  0.6821  0.1220
36269SOL    HW116047   3.966   2.023   2.079  2.1365 -0.8318 -1.0797
36269SOL    HW216048   4.036   2.152   2.042  0.0373  0.7044  0.1219
36270SOL     OW16049  12.235   2.270   0.719  0.4168 -0.3014  0.0021
36270SOL    HW116050  12.225   2.177   0.738  0.3839 -0.4950 -0.8961
36270SOL    HW216051  12.280   2.272   0.634 -2.0312  0.4478 -1.3670
36271SOL     OW16052   4.014   2.042   2.487  0.4445  0.2183 -0.5568
36271SOL    HW116053   4.001   1.984   2.412 -0.0950 -1.7787  0.9927
36271SOL    HW216054   4.109   2.040   2.502  0.2132 -2.4610  1.0523
36272SOL     OW16055   7.148  10.916  10.148  0.2812  0.1016  0.2365
36272SOL    HW116056   7.081  10.852  10.174 -1.0234  1.2530 -0.1418
36272SOL    HW216057   7.231  10.872  10.163 -0.5728 -1.6595  0.0346
36273SOL     OW16058   4.822   7.211   3.166 -0.0201  0.1562  0.8423
36273SOL    HW116059   4.889   7.179   3.226  0.5717  1.3687  0.8654
36273SOL    HW216060   4.812   7.141   3.101  0.9083 -0.2529  1.1219
36274SOL     OW16061   0.112  12.445   4.931 -0.4322  0.4745 -0.7443
36274SOL    HW116062   0.124  12.353   4.910 -2.1853  0.6227 -2.6571
36274SOL    HW216063   0.086  12.445   5.023  1.3364 -0.7396 -0.1884
36275SOL     OW16064   9.713   1.023   2.382 -0.3608 -0.0857  0.0635
36275SOL    HW116065   9.654   1.067   2.322 -0.6597 -1.1453 -0.4448
36275SOL    HW216066   9.744   1.092   2.441  1.0400  1.2671 -2.1428
36276SOL     OW16067   1.037  10.949   9.076 -0.4379 -0.0956  0.0872
36276SOL    HW116068   1.055  11.030   9.028  1.5154 -1.7493 -2.2198
36276SOL    HW216069   0.947  10.926   9.052  0.5888 -1.0560 -3.3087
36277SOL     OW16070   0.488   0.167   1.332 -0.4039 -0.1592 -0.1564
36277SOL    HW116071   0.470   0.118   1.252  1.0142 -0.1130 -0.5255
36277SOL    HW216072   0.574   0.137   1.361 -0.7026  0.1279  1.1316
36278SOL     OW16073   3.351   8.586   9.903  0.3422 -0.2981 -0.3891
36278SOL    HW116074   3.372   8.657   9.963 -0.8967 -0.1998 -0.0438
36278SOL    HW216075   3.378   8.507   9.950 -0.5856 -0.2216  0.3243
36279SOL     OW16076  10.236   3.706   1.390  0.3806 -0.1913  0.0022
36279SOL    HW116077  10.234   3.786   1.442 -0.1460  0.0928 -0.4357
36279SOL    HW216078  10.147   3.671   1.397  0.9394 -1.4482  1.2430
36280SOL     OW16079  10.801   1.813  10.822  0.3158 -0.1055 -0.1953
36280SOL    HW116080  10.765   1.751  10.885 -0.9650  0.5567 -0.2421
36280SOL    HW216081  10.858   1.761  10.766  1.7796 -0.6407  1.7164
36281SOL     OW16082   5.773   6.577   4.770  0.6072 -0.1833 -0.0373
36281SOL    HW116083   5.710   6.601   4.837  1.7885 -0.2039  1.1064
36281SOL    HW216084   5.747   6.628   4.693  1.3937  2.7114  1.5050
36282SOL     OW16085   9.852  12.701   8.424 -0.1147 -1.1801  0.3005
36282SOL    HW116086   9.873  12.764   8.493  1.3581 -0.8859 -0.3748
36282SOL    HW216087   9.873  12.747   8.343  2.1555 -2.9050 -0.1763
36283SOL     OW16088   7.227  11.699   8.842 -0.6752  0.1597 -0.0712
36283SOL    HW116089   7.246  11.666   8.754 -0.4599  0.3413 -0.0936
36283SOL    HW216090   7.313  11.718   8.879 -0.7264 -0.5353  0.4218
36284SOL     OW16091  10.754  12.366   4.510  0.6550  0.1191 -0.3695
36284SOL    HW116092  10.779  12.428   4.441  0.3523  0.4275 -0.2053
36284SOL    HW216093  10.837  12.332   4.543  0.8179  0.3402 -0.5508
36285SOL     OW16094  11.555   9.997  10.919 -0.7723 -0.4752 -0.1338
36285SOL    HW116095  11.523  10.015  10.831  0.0220  0.9664 -0.1560
36285SOL    HW216096  11.650   9.988  10.909 -0.4264  1.5781  0.7978
36286SOL     OW16097   3.006   5.157   9.305 -0.2521  0.1778 -0.0205
36286SOL    HW116098   2.964   5.143   9.390 -0.9926 -0.3559 -0.4682
36286SOL    HW216099   2.934   5.159   9.242  0.3586 -0.4785 -0.7633
36287SOL     OW16100  10.569   0.562   1.929 -1.0046  0.1579 -0.0433
36287SOL    HW116101  10.579   0.500   1.857 -1.4860  0.3582 -0.2842
36287SOL    HW216102  10.636   0.629   1.913 -0.5162 -0.2647  0.1915
36288SOL     OW16103   6.412  11.783   6.337 -0.4641  0.1365  0.4628
36288SOL    HW116104   6.471  11.817   6.269 -0.7399  0.4252  0.3604
36288SOL    HW216105   6.429  11.838   6.413 -3.1535  2.7575 -0.6096
36289SOL     OW16106  12.341  12.414   3.683 -0.1319  0.3050 -0.0079
36289SOL    HW116107  12.384  12.498   3.667  0.8951 -0.2347 -0.1853
36289SOL    HW216108  12.331  12.409   3.778  1.2468 -0.0392  0.1420
36290SOL     OW16109   5.207   6.520   7.150 -0.8166 -0.3428  0.2355
36290SOL    HW116110   5.121   6.521   7.107 -0.4837  0.0455 -0.4450
36290SOL    HW216111   5.251   6.597   7.115  0.1670 -1.0746 -0.1635
36291SOL     OW16112   0.792   6.031   1.202  0.3001  0.1954 -0.2530
36291SOL    HW116113   0.717   5.980   1.232  0.4132 -0.0926 -0.4536
36291SOL    HW216114   0.797   6.012   1.108  0.8450 -0.0795 -0.1728
36292SOL     OW16115  10.845  12.567   5.505 -0.0048  0.4299 -0.0316
36292SOL    HW116116  10.891  12.523   5.433  0.1861  0.4937  0.0513
36292SOL    HW216117  10.830  12.497   5.569  1.4400  0.7192  0.6764
36293SOL     OW16118   9.556   2.601   2.616  0.3929 -0.0882 -0.2072
36293SOL    HW116119   9.492   2.533   2.599  2.6013 -2.5696  0.7728
36293SOL    HW216120   9.578   2.636   2.529 -0.7028 -0.6806 -0.7414
36294SOL     OW16121   6.891   1.730  10.392  0.2370 -0.6180 -0.6335
36294SOL    HW116122   6.964   1.783  10.361  0.1782 -0.7176 -0.9447
36294SOL    HW216123   6.813   1.779  10.366  0.1668  0.8068  1.9419
36295SOL     OW16124   1.860   4.097   1.792  0.0509 -0.4791 -0.1864
36295SOL    HW116125   1.814   4.166   1.743  0.6309  0.5840  0.7205
36295SOL    HW216126   1.840   4.115   1.884 -0.1956 -1.8387  0.0461
36296SOL     OW16127   8.761   7.743   1.278  0.3812 -0.1750 -0.0739
36296SOL    HW116128   8.790   7.778   1.362  0.8055 -0.2029 -0.2062
36296SOL    HW216129   8.753   7.649   1.293 -0.1102 -0.1060  0.0965
36297SOL     OW16130   9.136  10.168   4.216 -0.1369 -0.4231 -0.5766
36297SOL    HW116131   9.088  10.123   4.147 -0.6850  0.4019 -0.7555
36297SOL    HW216132   9.070  10.185   4.284 -0.0667  0.5380 -0.7351
36298SOL     OW16133   8.385   4.927   8.995  0.7532 -0.1910 -0.0392
36298SOL    HW116134   8.447   4.901   8.927  1.8124  0.0397  0.8086
36298SOL    HW216135   8.308   4.873   8.979  1.0571 -0.2789 -1.2908
36299SOL     OW16136  12.229  12.565   0.644  0.3382 -0.2252  0.1447
36299SOL    HW116137  12.205  12.488   0.592  0.3140 -0.4294  0.4587
36299SOL    HW216138  12.162  12.570   0.712  1.4240 -1.0842  1.3238
36300SOL     OW16139   6.172   1.230   9.353 -0.0116  0.8498 -0.5658
36300SOL    HW116140   6.114   1.224   9.428  1.0725  0.6151  0.2693
36300SOL    HW216141   6.130   1.176   9.286 -2.2132  2.9148 -0.9966
36301SOL     OW16142  11.376   5.715   3.631  0.3455  0.3772 -0.2715
36301SOL    HW116143  11.432   5.792   3.640  1.5204 -0.6138  1.6725
36301SOL    HW216144  11.383   5.670   3.716 -1.2061 -1.2658 -0.9401
36302SOL     OW16145   8.060   0.544   7.713  0.2750  0.0114  0.5112
36302SOL    HW116146   8.111   0.591   7.779  0.8390 -0.0506  0.1295
36302SOL    HW216147   7.995   0.607   7.683 -0.0935 -0.0138  1.2397
36303SOL     OW16148   5.494   4.843   1.662 -0.4306 -0.3514 -0.6881
36303SOL    HW116149   5.437   4.778   1.704 -0.7466  1.4367  1.8153
36303SOL    HW216150   5.434   4.905   1.622 -0.1780 -0.0541 -0.6057
36304SOL     OW16151   8.889   2.099   4.836 -0.4790  0.0132 -0.6430
36304SOL    HW116152   8.849   2.033   4.893 -1.2886  0.5244 -0.6024
36304SOL    HW216153   8.982   2.099   4.861 -0.6243 -0.5356 -0.0785
36305SOL     OW16154   6.153  10.029   9.999 -0.6139 -0.2538 -0.2858
36305SOL    HW116155   6.084  10.073   9.949 -0.2384  2.0296  1.0959
36305SOL    HW216156   6.110  10.001  10.080 -0.5167 -1.2667 -0.5693
36306SOL     OW16157   3.469  11.329   6.192  0.0311 -0.0589  0.4997
36306SOL    HW116158   3.431  11.350   6.107 -0.0016  2.0731  0.9856
36306SOL    HW216159   3.563  11.330   6.177  0.0372  0.7415  0.5626
36307SOL     OW16160   8.410  10.089   8.459 -0.2276 -0.8714  0.1584
36307SOL    HW116161   8.373  10.078   8.372  0.5823 -2.9279  0.0312
36307SOL    HW216162   8.336  10.117   8.514 -0.8582 -0.1071 -1.0479
36308SOL     OW16163   3.616   9.652   6.748  0.1700  0.0536  0.1626
36308SOL    HW116164   3.561   9.729   6.732  0.4777  0.1477 -0.4535
36308SOL    HW216165   3.706   9.684   6.742  0.3139 -0.0465  1.4317
36309SOL     OW16166   3.567   4.899   6.374 -0.2686  0.2494 -0.3136
36309SOL    HW116167   3.560   4.884   6.468  0.4594  0.3486 -0.2383
36309SOL    HW216168   3.546   4.992   6.363  0.7211  0.5072 -0.1109
36310SOL     OW16169   2.581   4.823   4.132  0.0025  0.1687 -0.1310
36310SOL    HW116170   2.518   4.894   4.128 -1.8516 -1.4334 -0.7165
36310SOL    HW216171   2.623   4.823   4.045  3.8036  3.6434  1.3625
36311SOL     OW16172   6.719   2.738   4.726  0.7951  0.2178 -0.3777
36311SOL    HW116173   6.627   2.743   4.700  1.3979 -0.3999 -2.8403
36311SOL    HW216174   6.761   2.810   4.679  1.9811 -1.0783 -1.3850
36312SOL     OW16175   9.982   6.190   9.780  0.0670 -0.1868 -0.1426
36312SOL    HW116176   9.896   6.169   9.745  0.7660 -1.3878 -1.2326
36312SOL    HW216177   9.970   6.188   9.875 -1.0400 -0.6163 -0.2756
36313SOL     OW16178   3.488   8.653   8.446 -0.2484  0.1154 -0.1800
36313SOL    HW116179   3.583   8.656   8.447 -0.0264 -3.0794  1.0272
36313SOL    HW216180   3.465   8.669   8.354  1.3866  1.1252 -0.4569
36314SOL     OW16181   5.208   1.741   4.429 -0.4009  0.3370  0.1144
36314SOL    HW116182   5.249   1.794   4.498  0.1211 -1.4183  1.2232
36314SOL    HW216183   5.135   1.698   4.473  0.0107 -0.8964 -0.3919
36315SOL     OW16184   4.019  12.349   6.001  0.0274 -0.3230 -0.1618
36315SOL    HW116185   3.959  12.332   5.929 -0.5730 -0.2647  0.3223
36315SOL    HW216186   4.020  12.444   6.009  0.3436 -0.3130 -0.2980
36316SOL     OW16187   3.778   5.461   3.363 -0.5314  0.3553 -0.2523
36316SOL    HW116188   3.735   5.382   3.396  3.8962 -1.1568  2.6932
36316SOL    HW216189   3.748   5.530   3.422 -0.4034 -0.2474  0.5352
36317SOL     OW16190   8.110   0.345  11.026 -0.1914  0.5874  0.7004
36317SOL    HW116191   8.063   0.280  11.077  2.0495  0.2378  2.4838
36317SOL    HW216192   8.082   0.429  11.063 -1.6773  0.5965 -0.3562
36318SOL     OW16193  10.417   9.604   2.879 -0.2630  0.4309  0.5684
36318SOL    HW116194  10.403   9.623   2.972  0.9693  0.6158  0.7349
36318SOL    HW216195  10.413   9.690   2.836 -0.1163  0.4334  0.5584
36319SOL     OW16196  12.585   4.069   4.861 -0.1184  0.1146  0.5591
36319SOL    HW116197  12.541   4.152   4.879 -0.7851  0.1640 -1.1183
36319SOL    HW216198  12.523   4.002   4.891  0.6811  0.1585  2.5037
36320SOL     OW16199   2.496   1.405   8.608  0.0362 -0.1756 -0.1200
36320SOL    HW116200   2.446   1.474   8.650 -0.9282 -0.1978 -1.1927
36320SOL    HW216201   2.483   1.328   8.664  1.5723  0.5954  1.3921
36321SOL     OW16202   0.369   2.536   3.395 -1.0611  0.2052 -0.5205
36321SOL    HW116203   0.318   2.611   3.365 -0.5242  1.7612  2.0685
36321SOL    HW216204   0.396   2.560   3.484  0.7637 -2.2753 -0.2928
36322SOL     OW16205  12.526   9.270   0.493  0.1597 -0.1732 -0.3266
36322SOL    HW116206  12.480   9.274   0.577 -0.8908  1.4456 -0.9268
36322SOL    HW216207  12.460   9.236   0.431  0.5480 -0.2125 -0.7231
36323SOL     OW16208   4.417   5.854   8.157  0.3004  0.3618  0.1111
36323SOL    HW116209   4.413   5.934   8.209  0.0558  0.4760 -0.0823
36323SOL    HW216210   4.503   5.857   8.114  0.0039  0.8606 -0.4430
36324SOL     OW16211  11.520   1.157   8.417 -0.4412  0.1097 -0.1991
36324SOL    HW116212  11.534   1.108   8.336  1.1111  0.6566 -0.2831
36324SOL    HW216213  11.427   1.178   8.417 -1.1906 -2.8160 -0.1618
36325SOL     OW16214   0.258   1.786   0.989  0.5016 -0.4166 -0.2755
36325SOL    HW116215   0.219   1.841   0.922  0.7502 -1.1244 -1.0144
36325SOL    HW216216   0.323   1.843   1.032 -0.6996  0.4937  0.3838
36326SOL     OW16217   3.274   8.150  10.475 -0.2952  0.4777 -0.2351
36326SOL    HW116218   3.235   8.077  10.428  0.9776 -1.4371  1.5132
36326SOL    HW216219   3.212   8.168  10.547  0.2843 -0.1740  0.4412
36327SOL     OW16220   5.927   5.461   0.206 -0.4449  0.2832  0.2228
36327SOL    HW116221   5.890   5.542   0.172 -0.6486 -0.6466 -1.9523
36327SOL    HW216222   6.006   5.448   0.155 -1.7212 -2.1232 -1.3283
36328SOL     OW16223   3.993   0.288   6.006  0.1595 -0.1266  0.0002
36328SOL    HW116224   3.921   0.235   6.038 -0.3283  0.2209 -0.4971
36328SOL    HW216225   4.012   0.252   5.919  0.4008 -0.0427  0.0182
36329SOL     OW16226   0.348   4.627   3.688  0.2357 -0.0451  0.1030
36329SOL    HW116227   0.421   4.688   3.698  1.4340 -1.7015  2.7574
36329SOL    HW216228   0.279   4.663   3.744  0.8465 -0.8788  1.4551
36330SOL     OW16229   5.963  11.629   3.948 -0.4437 -0.2852 -0.2654
36330SOL    HW116230   6.036  11.678   3.987 -0.7476 -0.6033  0.7321
36330SOL    HW216231   5.982  11.630   3.854 -1.2686  3.1925 -0.5504
36331SOL     OW16232   6.716   5.517   4.934  0.4004  0.3605 -0.1253
36331SOL    HW116233   6.696   5.531   4.842  1.2629  1.4649 -0.1694
36331SOL    HW216234   6.736   5.424   4.941  2.4149  0.6232 -1.5022
36332SOL     OW16235  11.221   8.768   6.138 -0.1471 -0.7775 -0.0461
36332SOL    HW116236  11.154   8.800   6.198  0.6432  0.0883  0.4033
36332SOL    HW216237  11.189   8.793   6.051 -1.1539 -1.7804  0.0133
36333SOL     OW16238   1.119   0.612   7.340  0.3149  0.1249 -0.0188
36333SOL    HW116239   1.148   0.595   7.430  1.3918  1.2680 -0.1155
36333SOL    HW216240   1.188   0.573   7.285  0.5460  0.9039 -0.3007
36334SOL     OW16241  10.113   0.353   9.749 -0.9124  0.5623  0.2829
36334SOL    HW116242  10.194   0.376   9.703 -0.8698 -0.1938 -0.0193
36334SOL    HW216243  10.043   0.381   9.690 -0.8577 -0.7211 -0.4096
36335SOL     OW16244   9.897   1.113   3.084 -0.1815  0.6018 -0.5558
36335SOL    HW116245   9.888   1.022   3.110  0.2427  0.3676 -1.2065
36335SOL    HW216246   9.974   1.115   3.027  0.3556  1.5218  0.1704
36336SOL     OW16247   7.760  12.686   9.198 -0.6173 -0.4679 -0.3391
36336SOL    HW116248   7.718  12.767   9.167 -0.3284 -0.4301 -0.6358
36336SOL    HW216249   7.749  12.624   9.127  2.0476  0.2915 -1.5305
36337SOL     OW16250   8.965   5.774   7.876  0.3319 -0.8753 -0.0550
36337SOL    HW116251   8.984   5.867   7.885 -0.8640 -0.5985 -0.2963
36337SOL    HW216252   9.050   5.734   7.856  0.6804  0.2914 -1.0040
36338SOL     OW16253  10.428   3.240  10.098 -0.0189 -0.7893  0.8280
36338SOL    HW116254  10.464   3.183  10.030 -0.0113  0.6198 -0.4170
36338SOL    HW216255  10.498   3.304  10.116 -1.1429  0.8283 -0.2474
36339SOL     OW16256   4.666   7.936   2.504 -0.6038 -0.7377 -0.2769
36339SOL    HW116257   4.705   7.943   2.417 -0.5157  1.3633 -0.1017
36339SOL    HW216258   4.588   7.992   2.501 -0.1874 -0.0277  1.2084
36340SOL     OW16259   7.962   7.585  10.264 -0.0876 -0.8185  0.1314
36340SOL    HW116260   7.904   7.527  10.216 -0.3579  1.4588 -2.5896
36340SOL    HW216261   8.034   7.603  10.203  0.9761  0.1491  1.6056
36341SOL     OW16262  11.700   6.922   0.238 -0.3212 -0.2362  0.0112
36341SOL    HW116263  11.774   6.928   0.297 -0.6289 -2.4295  0.6874
36341SOL    HW216264  11.739   6.906   0.152  0.1060  2.6040 -0.4412
36342SOL     OW16265   2.942   2.972  12.022  1.1598 -0.2579  0.1821
36342SOL    HW116266   2.875   2.996  11.959 -2.2651 -1.0188  3.1913
36342SOL    HW216267   2.947   3.047  12.082  0.4889 -1.4470  1.8261
36343SOL     OW16268   1.494   2.840   6.933 -0.0669 -0.5971  0.2701
36343SOL    HW116269   1.578   2.821   6.977 -0.2468 -0.5103  0.6533
36343SOL    HW216270   1.431   2.849   7.005 -0.3736 -0.4975 -0.0110
36344SOL     OW16271   6.997   1.973  11.025  0.5657  0.4283  0.5194
36344SOL    HW116272   6.937   1.941  10.958  0.3624  1.2293  0.3199
36344SOL    HW216273   7.063   1.904  11.032  1.0088  0.6631 -1.0273
36345SOL     OW16274   8.149   1.417   4.679  0.0298  0.4617 -0.2761
36345SOL    HW116275   8.084   1.450   4.616  0.5625  0.6757 -0.7218
36345SOL    HW216276   8.217   1.484   4.680  0.5439 -0.0568 -0.2776
36346SOL     OW16277   3.928  10.703   8.333 -0.4374  0.5891 -0.5215
36346SOL    HW116278   3.968  10.787   8.312 -2.0022  1.5359  0.1202
36346SOL    HW216279   3.834  10.720   8.333 -0.8428 -1.3629 -1.1901
36347SOL     OW16280   1.618   1.362   3.104 -0.0987 -0.3683 -0.0954
36347SOL    HW116281   1.600   1.299   3.173  1.0631 -0.9872 -0.3246
36347SOL    HW216282   1.600   1.315   3.023 -1.9450  0.5119 -0.2445
36348SOL     OW16283   8.794   1.702  12.619 -0.0961  0.5249  0.1051
36348SOL    HW116284   8.845   1.651  12.556  0.2525  0.8617  0.1178
36348SOL    HW216285   8.858   1.741  12.678 -0.3385  1.1811 -0.0503
36349SOL     OW16286  10.318   6.366   7.879 -0.2124  0.0168  0.1975
36349SOL    HW116287  10.401   6.373   7.833  0.8767  2.0176  2.2654
36349SOL    HW216288  10.285   6.455   7.882 -1.4099 -0.4321  1.2132
36350SOL     OW16289   9.251  12.094   4.986  0.2815  0.2869 -0.0148
36350SOL    HW116290   9.337  12.133   4.966  1.2105 -1.8295 -0.3867
36350SOL    HW216291   9.272  12.017   5.039 -1.2431 -1.1663 -1.4192
36351SOL     OW16292   6.166   4.437  11.045  0.2236 -0.4021  0.2558
36351SOL    HW116293   6.245   4.408  11.000  0.6085  0.2832  0.4626
36351SOL    HW216294   6.110   4.360  11.050  0.1980 -0.5108 -1.3331
36352SOL     OW16295   6.209   9.150   4.134  0.4000  0.1329 -0.0684
36352SOL    HW116296   6.199   9.055   4.144  1.4403  0.1871  1.9658
36352SOL    HW216297   6.303   9.165   4.137  0.2701  1.1963 -0.7975
36353SOL     OW16298  11.380   5.772  12.643  0.5888  0.3114 -0.0156
36353SOL    HW116299  11.459   5.815  12.613  0.5701  0.6225  0.3676
36353SOL    HW216300  11.410   5.688  12.679  1.0095  1.1942  1.8299
36354SOL     OW16301  11.161  11.818   5.009  0.2680  0.0908  0.0792
36354SOL    HW116302  11.214  11.848   5.083  0.0354  1.8061 -0.3904
36354SOL    HW216303  11.223  11.802   4.939  0.3957 -0.5487  0.3337
36355SOL     OW16304   1.141   9.449  11.272  0.0676 -0.1669  0.2482
36355SOL    HW116305   1.169   9.504  11.198  0.2149 -0.0519  0.3877
36355SOL    HW216306   1.212   9.457  11.335  0.8601 -1.7867 -0.3709
36356SOL     OW16307   6.809   3.645   6.776 -0.4794 -0.2369 -0.4786
36356SOL    HW116308   6.766   3.580   6.721  0.0445  0.0990 -1.3121
36356SOL    HW216309   6.831   3.716   6.716 -1.4928  0.9600  0.4943
36357SOL     OW16310   0.520  12.436   7.039 -0.4326 -0.3735  0.4971
36357SOL    HW116311   0.538  12.344   7.017  1.6538  0.2420 -0.7125
36357SOL    HW216312   0.569  12.450   7.120  1.9669  0.4132 -0.9828
36358SOL     OW16313   5.121   3.110  10.868 -0.0530 -0.0092  0.2625
36358SOL    HW116314   5.068   3.124  10.947 -1.4338 -0.0284 -0.6110
36358SOL    HW216315   5.199   3.066  10.899 -1.3157 -1.5547  1.4239
36359SOL     OW16316   3.108   5.748   1.369 -0.2969  0.0067 -0.3087
36359SOL    HW116317   3.048   5.804   1.418  0.3072  1.3156 -0.9883
36359SOL    HW216318   3.113   5.789   1.283  1.4179 -0.1574 -0.3195
36360SOL     OW16319   1.111   1.524   7.158  0.2343 -0.4394  0.0864
36360SOL    HW116320   1.185   1.486   7.111  0.1549  0.3074 -0.6706
36360SOL    HW216321   1.150   1.572   7.231  0.2989 -2.5103  1.4999
36361SOL     OW16322   1.964   9.797  11.137 -0.4376  0.3570  0.4535
36361SOL    HW116323   1.907   9.730  11.098  0.8327 -0.7384  0.4114
36361SOL    HW216324   1.954   9.784  11.232 -1.3709  1.1602  0.4845
36362SOL     OW16325   1.673   7.958   7.281  0.6025 -0.5906  0.3861
36362SOL    HW116326   1.619   7.897   7.329 -0.9178  0.8518  0.6026
36362SOL    HW216327   1.655   8.043   7.321  1.5435  0.2184 -0.8180
36363SOL     OW16328   3.957  11.583   9.351 -0.6412  0.1793 -0.0145
36363SOL    HW116329   3.890  11.614   9.290 -0.2669 -0.0487 -0.5572
36363SOL    HW216330   3.970  11.655   9.412  0.6543  1.3747 -1.6139
36364SOL     OW16331  10.857   2.242  10.110 -0.1746  0.2404 -0.0741
36364SOL    HW116332  10.891   2.154  10.125  1.5053  1.0473  1.0656
36364SOL    HW216333  10.933   2.294  10.082 -0.9718  1.5063  0.0069
36365SOL     OW16334   3.577  11.986   4.107 -0.4832 -0.6754 -0.4062
36365SOL    HW116335   3.672  11.997   4.095 -0.3833 -0.7502  0.2458
36365SOL    HW216336   3.547  11.943   4.027 -0.2702  0.9746 -1.4379
36366SOL     OW16337   5.687   3.155   4.211 -0.3596  0.3382  0.0271
36366SOL    HW116338   5.727   3.199   4.136  0.5327  0.0149  0.2945
36366SOL    HW216339   5.634   3.085   4.172  1.1740 -0.7093 -0.3052
36367SOL     OW16340   3.281   8.814   4.143  0.0581 -0.8182  0.0598
36367SOL    HW116341   3.321   8.809   4.057 -0.2847  1.3777 -0.2868
36367SOL    HW216342   3.264   8.723   4.167  0.9220 -1.5217 -1.7998
36368SOL     OW16343  12.352   7.987   8.596 -0.3922 -0.6196  0.2898
36368SOL    HW116344  12.283   7.920   8.599 -0.6494 -0.4170 -0.7845
36368SOL    HW216345  12.349   8.021   8.507  1.6115 -1.1357 -0.0351
36369SOL     OW16346   8.463   7.840   8.127  0.1670 -0.0904  0.0413
36369SOL    HW116347   8.478   7.746   8.126 -1.7476 -0.4641  1.1842
36369SOL    HW216348   8.368   7.849   8.129  0.2882  1.8994 -0.7316
36370SOL     OW16349   3.903   0.267   6.860  0.2608  0.3354  0.6490
36370SOL    HW116350   3.852   0.201   6.813 -0.7642 -0.3228  2.5820
36370SOL    HW216351   3.994   0.238   6.850 -0.0386 -0.4740  0.1524
36371SOL     OW16352   9.299   4.298   2.147  0.0556 -0.1830  0.0486
36371SOL    HW116353   9.381   4.301   2.097 -0.6308  1.6947 -1.0938
36371SOL    HW216354   9.240   4.246   2.093 -0.8962  2.4042 -1.5920
36372SOL     OW16355   3.678   8.182   4.320  0.4489  0.0727  0.1625
36372SOL    HW116356   3.660   8.090   4.338  2.3796 -0.7779 -1.8226
36372SOL    HW216357   3.672   8.190   4.224  0.1717  2.0627  0.2964
36373SOL     OW16358   5.584   9.618  10.401 -0.1599  0.9092 -0.7216
36373SOL    HW116359   5.568   9.707  10.369  0.6957  0.5071 -2.3373
36373SOL    HW216360   5.538   9.561  10.340  0.5801  0.1711 -0.6066
36374SOL     OW16361   8.761   1.941   5.039  0.4014  0.0503 -0.2228
36374SOL    HW116362   8.742   1.848   5.034 -0.7162 -0.0798  3.6120
36374SOL    HW216363   8.856   1.945   5.054  0.7601 -0.2683 -2.0966
36375SOL     OW16364  10.729   4.929   9.878  0.3177 -0.0512 -0.4728
36375SOL    HW116365  10.652   4.958   9.927  1.1777 -2.3387  2.5923
36375SOL    HW216366  10.694   4.873   9.810 -0.8327 -1.7111  1.3672
36376SOL     OW16367  10.700  11.663   3.444 -1.0522 -0.5646 -0.0476
36376SOL    HW116368  10.736  11.622   3.365 -0.4233 -2.3452  1.1034
36376SOL    HW216369  10.680  11.752   3.417  0.5831 -0.6607 -1.8118
36377SOL     OW16370   9.158  11.225   9.414 -0.9924  0.0624 -0.1000
36377SOL    HW116371   9.106  11.277   9.352  1.0498  1.9840 -0.3319
36377SOL    HW216372   9.125  11.250   9.500 -0.6428  1.1112 -0.2543
36378SOL     OW16373  11.091  11.441   5.787 -0.3914  0.2329  0.0180
36378SOL    HW116374  10.999  11.421   5.773 -0.2610  0.4571 -1.3341
36378SOL    HW216375  11.132  11.357   5.807 -0.8942  0.1419  0.6833
36379SOL     OW16376   0.615   2.469  11.711 -0.1757 -0.3598  0.3684
36379SOL    HW116377   0.522   2.476  11.729 -0.0784 -0.4781  0.9398
36379SOL    HW216378   0.630   2.526  11.636 -0.5612  0.3185  0.7981
36380SOL     OW16379   4.376  12.160   0.449  0.5468 -0.1513 -0.7518
36380SOL    HW116380   4.297  12.142   0.500  0.6634 -0.6689 -0.7477
36380SOL    HW216381   4.437  12.090   0.473  1.3778  0.8035  0.0018
36381SOL     OW16382   9.604   8.306   6.269 -0.4021  0.7564  0.0337
36381SOL    HW116383   9.553   8.374   6.226  0.4236  1.7759  0.6136
36381SOL    HW216384   9.599   8.328   6.362 -0.0369  0.0775  0.2187
36382SOL     OW16385   0.717   7.824  11.718  0.6015  0.6387  0.6265
36382SOL    HW116386   0.686   7.838  11.808  2.5735  0.1951  1.4109
36382SOL    HW216387   0.731   7.730  11.712  1.5730  0.7990  0.2450
36383SOL     OW16388   3.762  10.205   1.846  0.1277 -0.0511 -0.0124
36383SOL    HW116389   3.756  10.271   1.915 -1.8466 -0.0785 -0.0849
36383SOL    HW216390   3.672  10.197   1.813  0.4447 -2.2667 -0.4996
36384SOL     OW16391   2.404   9.568  11.494  0.6778  0.6133 -0.1527
36384SOL    HW116392   2.374   9.482  11.522  0.9832  0.2073 -1.0228
36384SOL    HW216393   2.432   9.611  11.575 -0.0593  0.1336  0.3680
36385SOL     OW16394   3.278   4.867   6.681 -0.2742  0.6005  0.0478
36385SOL    HW116395   3.252   4.959   6.680  0.6024  0.8646  0.3387
36385SOL    HW216396   3.373   4.869   6.669 -0.4120 -0.3509 -1.4524
36386SOL     OW16397   5.108   1.684   9.660 -0.2599 -0.2834  0.3884
36386SOL    HW116398   5.054   1.622   9.612  0.1958  0.5678 -1.3363
36386SOL    HW216399   5.079   1.677   9.751 -0.2681 -2.9249  0.2605
36387SOL     OW16400   8.262   2.484   9.872  0.4096  0.9138  0.2298
36387SOL    HW116401   8.220   2.421   9.930 -0.5508  0.8572 -0.4898
36387SOL    HW216402   8.275   2.561   9.926 -1.8978  1.4308  0.1761
36388SOL     OW16403   4.460  12.158   6.783  0.2293  0.0301 -0.0613
36388SOL    HW116404   4.395  12.089   6.797 -1.8625  2.1495  1.3774
36388SOL    HW216405   4.444  12.187   6.693  0.6936 -0.8718 -0.4537
36389SOL     OW16406  11.979   9.567   1.291  0.1893 -0.5072  0.1133
36389SOL    HW116407  11.931   9.541   1.212 -3.6456  1.3199  1.5828
36389SOL    HW216408  11.926   9.533   1.363  1.0530  1.7092  1.9071
36390SOL     OW16409   5.556  10.943   5.610 -0.5606  0.0663 -0.4691
36390SOL    HW116410   5.574  10.878   5.542  2.9251  1.0221 -0.6837
36390SOL    HW216411   5.625  11.009   5.598 -1.4408  1.6546  2.3275
36391SOL     OW16412   4.958   4.964   3.372  0.9883  0.4363  0.0004
36391SOL    HW116413   4.949   4.946   3.466 -0.0385 -0.7219 -0.3014
36391SOL    HW216414   4.885   5.023   3.352 -0.4253 -1.4457 -0.5758
36392SOL     OW16415  12.426   9.964   0.466  0.1541 -0.8070 -0.2314
36392SOL    HW116416  12.420  10.055   0.436  1.3932 -0.8316 -0.5901
36392SOL    HW216417  12.514   9.957   0.503 -0.7343 -1.2333  1.9627
36393SOL     OW16418   0.082  12.585   1.026 -0.4052  0.1327  0.0024
36393SOL    HW116419   0.048  12.512   1.078 -1.9280  1.2493  0.6357
36393SOL    HW216420   0.104  12.545   0.942 -0.7027 -1.1559  0.5045
36394SOL     OW16421   7.262   3.144   2.551 -0.1531  0.6420 -0.1041
36394SOL    HW116422   7.319   3.215   2.521  1.9809 -1.2730 -0.8948
36394SOL    HW216423   7.258   3.084   2.477 -2.2306  0.0940  0.4014
36395SOL     OW16424  12.198   3.336   1.982 -0.0430 -0.3301  0.4456
36395SOL    HW116425  12.226   3.379   1.901 -0.0557  2.7674  1.9386
36395SOL    HW216426  12.279   3.301   2.019  0.2290 -0.2721 -0.0810
36396SOL     OW16427  11.563   1.682   5.333 -0.5182  0.4389  0.1498
36396SOL    HW116428  11.598   1.594   5.325 -0.6520  0.4101 -0.1452
36396SOL    HW216429  11.579   1.722   5.248  0.6229  1.1041  0.6641
36397SOL     OW16430   6.582   5.128  12.223  0.2460 -0.1545 -0.0990
36397SOL    HW116431   6.498   5.101  12.261 -0.1150 -1.1803 -1.5505
36397SOL    HW216432   6.631   5.047  12.212  1.8676  0.5238  1.6267
36398SOL     OW16433   3.309   9.690   1.189  0.8140 -0.0547  0.0555
36398SOL    HW116434   3.388   9.731   1.223 -0.2006  2.0168  0.0911
36398SOL    HW216435   3.256   9.763   1.156 -0.8730 -1.4077 -0.4225
36399SOL     OW16436   3.791   8.859   6.149  0.0120  0.4229  0.2296
36399SOL    HW116437   3.735   8.913   6.093  1.8326  0.9827 -1.1294
36399SOL    HW216438   3.877   8.901   6.146  0.4402 -0.0744  2.7163
36400SOL     OW16439   6.698   0.806   3.300 -0.2470  0.0003  0.1738
36400SOL    HW116440   6.651   0.756   3.233 -0.4815 -0.1044  0.4143
36400SOL    HW216441   6.714   0.742   3.370  1.1236 -0.2348 -0.3047
36401SOL     OW16442   6.571  11.941   7.427 -0.1669 -0.1812 -0.6809
36401SOL    HW116443   6.584  11.851   7.455 -0.5349  0.1228  0.5379
36401SOL    HW216444   6.646  11.989   7.463 -1.0442  0.3562  0.4888
36402SOL     OW16445   4.284   4.227   8.087 -0.2252 -0.1324  0.1762
36402SOL    HW116446   4.213   4.282   8.120  0.0826  0.3818  0.0051
36402SOL    HW216447   4.346   4.221   8.159  0.8273  1.6449 -0.4899
36403SOL     OW16448   8.003  10.755  11.402  0.6656  0.2333  0.1335
36403SOL    HW116449   7.946  10.762  11.478 -1.5813 -0.2557 -1.4247
36403SOL    HW216450   8.059  10.679  11.420 -0.1629 -0.1654  1.0725
36404SOL     OW16451   4.505   2.936   0.997 -0.1594  0.2316  0.1757
36404SOL    HW116452   4.592   2.971   1.014 -0.9041  2.4307 -0.2303
36404SOL    HW216453   4.487   2.959   0.906 -1.1312 -0.2695  0.2254
36405SOL     OW16454   7.572  10.371   1.913  0.2824  0.0570  0.5510
36405SOL    HW116455   7.632  10.334   1.848 -0.0448 -0.6941  0.6582
36405SOL    HW216456   7.545  10.455   1.876 -1.6090 -1.2843 -1.3782
36406SOL     OW16457   0.174   1.380   3.309 -0.1963 -0.6272 -0.1880
36406SOL    HW116458   0.121   1.331   3.373 -1.2780 -0.0734 -0.6385
36406SOL    HW216459   0.129   1.464   3.300  1.2233  0.1778  0.0034
36407SOL     OW16460   1.148   1.108   2.630 -0.0960 -0.1888 -0.2418
36407SOL    HW116461   1.146   1.016   2.605 -1.0050 -0.5557  1.0624
36407SOL    HW216462   1.098   1.112   2.712 -0.9357  1.6206 -0.7864
36408SOL     OW16463   7.726   6.653   7.153  0.2000 -0.4758  0.0262
36408SOL    HW116464   7.709   6.574   7.206 -0.6075  0.2231  0.8401
36408SOL    HW216465   7.670   6.720   7.192  2.2727  1.0147  0.5542
36409SOL     OW16466   6.375   4.287   6.332  0.5501 -0.0477 -0.0861
36409SOL    HW116467   6.424   4.355   6.287  0.4236 -0.5160 -0.9427
36409SOL    HW216468   6.299   4.332   6.368  1.8277  0.8106  1.7293
36410SOL     OW16469  12.252  12.058   3.155 -0.1317 -0.4049 -0.4258
36410SOL    HW116470  12.163  12.030   3.176  0.4295 -1.2348  1.0577
36410SOL    HW216471  12.248  12.154   3.155 -1.2676 -0.4244 -1.6746
36411SOL     OW16472  12.231  11.368   6.232  0.4711 -0.0453  0.5673
36411SOL    HW116473  12.181  11.311   6.291  1.3775  0.6117  2.0186
36411SOL    HW216474  12.312  11.386   6.280  0.8061  1.3256 -0.4730
36412SOL     OW16475   5.670   3.721   4.888  0.5319  0.1540  0.3871
36412SOL    HW116476   5.665   3.790   4.954 -1.4297  0.3464  0.0973
36412SOL    HW216477   5.653   3.766   4.805  0.9073 -0.4199 -0.0053
36413SOL     OW16478  11.627   3.754   3.658 -0.0099  0.4608 -0.4362
36413SOL    HW116479  11.598   3.814   3.590  1.5299 -0.0472 -1.6123
36413SOL    HW216480  11.719   3.738   3.638  0.0847 -0.9077  0.8854
36414SOL     OW16481   8.854   5.013   3.156  0.3174  0.4996 -0.1843
36414SOL    HW116482   8.873   4.944   3.219 -1.7090 -0.1423 -0.2078
36414SOL    HW216483   8.884   5.093   3.198  0.2476 -0.0771  1.0049
36415SOL     OW16484   2.134   9.483   8.380 -0.6995  0.4044 -0.2205
36415SOL    HW116485   2.081   9.529   8.315  1.1214  0.9318 -1.4316
36415SOL    HW216486   2.224   9.509   8.360 -0.1139  1.8917  3.5311
36416SOL     OW16487   3.664   9.957   3.708 -0.1199 -0.2961  0.0192
36416SOL    HW116488   3.699  10.042   3.679 -1.2774  0.9151  1.9474
36416SOL    HW216489   3.658   9.905   3.628 -0.7965  1.9563 -1.4849
36417SOL     OW16490  11.807   0.879   1.032  0.0207 -0.1615  0.1489
36417SOL    HW116491  11.856   0.830   1.099 -0.8914 -0.4592  0.6190
36417SOL    HW216492  11.833   0.839   0.949 -1.3961 -2.1259  0.5752
36418SOL     OW16493   0.053   2.717   0.864 -0.7536 -0.3191 -0.5861
36418SOL    HW116494  -0.031   2.709   0.909 -0.6077  2.9587  0.5377
36418SOL    HW216495   0.030   2.736   0.773 -1.3093  1.1596 -0.1644
36419SOL     OW16496   4.091   1.625   0.839  0.0859  0.6005  0.7129
36419SOL    HW116497   4.012   1.591   0.798  0.8426  1.5545 -1.7101
36419SOL    HW216498   4.124   1.552   0.893 -0.7952 -0.8712 -0.6598
36420SOL     OW16499   5.598  12.437  11.873 -0.2949 -0.3414 -0.3495
36420SOL    HW116500   5.530  12.426  11.807 -1.0161 -0.4750  0.4030
36420SOL    HW216501   5.673  12.473  11.825 -0.9387 -0.0684 -1.1637
36421SOL     OW16502   1.991   2.261   2.758  0.0998  0.1299 -0.0458
36421SOL    HW116503   2.030   2.317   2.690 -1.8884  2.3769  0.5430
36421SOL    HW216504   1.912   2.307   2.785 -0.1932 -1.6584  2.4779
36422SOL     OW16505   1.705  12.075   5.694  0.7289  0.5190 -0.2927
36422SOL    HW116506   1.702  12.165   5.663  0.6473  0.7039  0.2523
36422SOL    HW216507   1.720  12.082   5.788 -3.1371  0.0830  0.5061
36423SOL     OW16508  10.585   2.381   0.885 -0.8495  0.1154 -0.8751
36423SOL    HW116509  10.584   2.340   0.799 -0.4832 -0.6527 -0.5250
36423SOL    HW216510  10.658   2.339   0.931 -2.1362 -0.8048  0.4222
36424SOL     OW16511   2.477   1.900   7.756 -0.1912 -0.0393 -0.4369
36424SOL    HW116512   2.548   1.838   7.773  0.1514  0.4111 -0.1988
36424SOL    HW216513   2.402   1.845   7.733 -0.2508 -0.5995  0.9934
36425SOL     OW16514   4.874  10.160   6.868  0.3634  0.1963  0.4387
36425SOL    HW116515   4.836  10.139   6.954  0.2073 -0.4236  0.2281
36425SOL    HW216516   4.832  10.098   6.808  1.8175 -0.6198  0.2188
36426SOL     OW16517  11.264  10.000   1.140 -0.2567 -0.5830  0.3683
36426SOL    HW116518  11.213   9.964   1.213  0.3901 -0.7554  0.7450
36426SOL    HW216519  11.329  10.057   1.182  0.6006 -1.2602 -0.0078
36427SOL     OW16520   8.272   8.852   9.610 -0.2319  0.1323 -0.5832
36427SOL    HW116521   8.348   8.887   9.657 -0.6903  0.0653  0.2291
36427SOL    HW216522   8.281   8.757   9.617 -0.2413  0.1195 -0.7431
36428SOL     OW16523   8.002   2.141   3.484  0.3763  0.5533 -0.0781
36428SOL    HW116524   7.994   2.143   3.580  0.3136 -2.2795  0.0359
36428SOL    HW216525   8.096   2.147   3.468  0.4134  0.6698  0.1737
36429SOL     OW16526   7.440   0.748   7.225  0.5585  0.1732 -0.1040
36429SOL    HW116527   7.501   0.707   7.287 -0.5184  1.1931  1.6839
36429SOL    HW216528   7.497   0.797   7.165  1.5966 -0.4901  0.3072
36430SOL     OW16529  10.059   3.930  11.390  0.8579  0.0282 -0.5216
36430SOL    HW116530  10.076   3.851  11.441 -0.2454 -0.9253 -1.5735
36430SOL    HW216531  10.040   3.997  11.455 -1.2247 -1.3202  0.3599
36431SOL     OW16532   6.483   8.994   2.882  0.1475 -0.7681 -0.2452
36431SOL    HW116533   6.550   8.930   2.908 -0.3349 -0.7334  1.1419
36431SOL    HW216534   6.471   9.049   2.959 -0.1479  0.3983 -1.1071
36432SOL     OW16535   9.700   5.318  12.400 -0.1819  0.2807  0.5262
36432SOL    HW116536   9.761   5.245  12.405  2.0133  2.0038  0.7500
36432SOL    HW216537   9.735   5.382  12.463 -0.7631  2.3598 -1.1334
36433SOL     OW16538   7.142  12.256  12.023  0.0263 -0.0366 -0.4446
36433SOL    HW116539   7.075  12.313  12.061 -0.0780  0.7857 -1.7978
36433SOL    HW216540   7.152  12.185  12.086 -0.3509  1.1093  0.9444
36434SOL     OW16541   9.604   2.819  11.495 -0.4167  0.1920  0.3267
36434SOL    HW116542   9.678   2.769  11.530  0.3613  0.2940 -1.0816
36434SOL    HW216543   9.645   2.895  11.453 -1.2931  0.0475 -0.8110
36435SOL     OW16544   7.973   6.298   9.819 -0.2332 -0.1330 -0.6144
36435SOL    HW116545   7.940   6.341   9.898  0.1389  0.8440 -0.9813
36435SOL    HW216546   7.975   6.367   9.752 -0.4440 -0.9221 -1.4556
36436SOL     OW16547   9.608   8.916   0.278  0.8496 -0.0359 -0.0939
36436SOL    HW116548   9.615   8.988   0.341 -0.4899  1.1798 -1.2539
36436SOL    HW216549   9.694   8.914   0.234  0.6241  1.4953 -0.6661
36437SOL     OW16550   0.966  10.959   5.674  0.2296  0.1137  0.2075
36437SOL    HW116551   1.043  10.999   5.715  0.1271 -0.5030  1.0459
36437SOL    HW216552   0.931  11.026   5.617  0.0960  1.2120  1.5297
36438SOL     OW16553   4.426   1.799   2.912  0.1486 -0.5545  0.6689
36438SOL    HW116554   4.434   1.705   2.896  0.2896 -0.2763 -1.0945
36438SOL    HW216555   4.363   1.830   2.847  2.3313  1.0427 -0.8170
36439SOL     OW16556   8.204   0.025  10.073 -0.0387  0.0736  0.3222
36439SOL    HW116557   8.272   0.059  10.015  0.9924  0.3241  1.6526
36439SOL    HW216558   8.222   0.065  10.158 -1.6441 -0.1344  0.7885
36440SOL     OW16559  10.452   8.879   4.746 -0.4525  0.1061 -0.1046
36440SOL    HW116560  10.413   8.963   4.772 -1.1364  0.6333 -2.6094
36440SOL    HW216561  10.378   8.823   4.727 -0.0050 -0.2290 -0.9145
36441SOL     OW16562   2.985   8.051  11.144 -0.0175  1.0232  0.3630
36441SOL    HW116563   3.075   8.069  11.116  0.1403  1.3116  1.0409
36441SOL    HW216564   2.958   7.976  11.091  1.7150 -1.1437  2.3390
36442SOL     OW16565   4.343   0.537  11.625 -0.5019 -0.3547  0.6818
36442SOL    HW116566   4.431   0.575  11.628 -0.9964  0.7724  2.8067
36442SOL    HW216567   4.346   0.464  11.687 -1.4318  0.6306  1.9382
36443SOL     OW16568  10.545   7.458   4.956 -0.0174 -0.0093  0.1334
36443SOL    HW116569  10.493   7.484   4.880  1.0410  0.9221 -0.2877
36443SOL    HW216570  10.486   7.470   5.031 -1.6473 -2.4725 -0.6051
36444SOL     OW16571   8.138   5.738   0.125  0.3060  0.1696 -0.5218
36444SOL    HW116572   8.120   5.707   0.213  3.5287  1.0304  0.5920
36444SOL    HW216573   8.188   5.668   0.084  2.1994  1.2804 -0.2127
36445SOL     OW16574  12.157   3.126  11.027  0.4772  0.4211 -0.1428
36445SOL    HW116575  12.091   3.144  11.094  0.3110  0.6173 -0.3541
36445SOL    HW216576  12.240   3.154  11.066  0.2013  1.9489 -0.5431
36446SOL     OW16577   9.557  12.259   8.412 -0.3807 -0.0297 -0.0115
36446SOL    HW116578   9.500  12.242   8.338 -0.4275  0.7761 -0.1625
36446SOL    HW216579   9.579  12.352   8.406  1.7266 -0.5098 -0.5158
36447SOL     OW16580   7.580   5.253   3.856 -0.5146 -0.3064 -0.1938
36447SOL    HW116581   7.488   5.278   3.844 -0.3326  0.7526  0.4150
36447SOL    HW216582   7.577   5.171   3.904 -1.1662  0.5071  1.2294
36448SOL     OW16583  10.958  12.252  12.393  0.1081  0.3946  0.2197
36448SOL    HW116584  10.947  12.344  12.417 -1.0137  0.5230 -0.6934
36448SOL    HW216585  10.887  12.234  12.331 -0.7721 -1.5595  1.6552
36449SOL     OW16586   0.295   9.101  11.001 -0.3278  0.0405  0.5429
36449SOL    HW116587   0.341   9.173  11.044 -0.0425  1.2685 -1.6693
36449SOL    HW216588   0.222   9.142  10.956 -0.0550 -1.0036 -0.9380
36450SOL     OW16589   2.644   8.300  12.125 -0.1418 -0.0052  0.3428
36450SOL    HW116590   2.694   8.281  12.046 -0.5272  1.6921 -0.3518
36450SOL    HW216591   2.623   8.393  12.119 -1.2758 -0.1177  1.8244
36451SOL     OW16592   9.491   3.381  10.211 -0.2564 -0.0542 -0.0964
36451SOL    HW116593   9.525   3.458  10.165 -1.3880 -0.4618 -1.6882
36451SOL    HW216594   9.553   3.368  10.283 -1.1321  3.5391  1.5165
36452SOL     OW16595   0.608   0.337   5.926  0.5681  0.1392 -0.1404
36452SOL    HW116596   0.642   0.251   5.902  0.9738  0.2159  0.1629
36452SOL    HW216597   0.513   0.325   5.927  0.6062 -0.2251 -0.3960
36453SOL     OW16598   6.575   0.309   9.510 -0.4079  0.5906  0.2500
36453SOL    HW116599   6.576   0.312   9.414  1.5084  2.0941  0.2617
36453SOL    HW216600   6.596   0.218   9.531 -1.1297  0.1707 -0.7321
36454SOL     OW16601  10.939   9.540   8.984 -0.6618 -0.4257 -0.0434
36454SOL    HW116602  10.852   9.572   9.005 -0.6814 -1.7433  2.2866
36454SOL    HW216603  10.982   9.530   9.069  1.1962 -1.3333 -1.0173
36455SOL     OW16604   6.862  11.874   7.060  0.2907 -0.1665 -0.4459
36455SOL    HW116605   6.837  11.928   6.985 -1.6872  0.0616  0.3433
36455SOL    HW216606   6.875  11.936   7.132  3.2051 -0.2684 -0.7484
36456SOL     OW16607   7.220   9.562   2.725 -0.7756  0.1380 -0.7438
36456SOL    HW116608   7.249   9.573   2.635  1.9418 -0.7694 -0.0618
36456SOL    HW216609   7.191   9.471   2.730  4.3494 -1.7433  0.4335
36457SOL     OW16610  11.461   4.731  12.339 -0.1877  0.6103  0.1426
36457SOL    HW116611  11.487   4.732  12.246 -2.0494 -2.2011 -0.5508
36457SOL    HW216612  11.523   4.670  12.380 -1.0967 -0.4116  0.0542
36458SOL     OW16613   3.283  10.679   4.355 -0.2856  0.0228 -0.3853
36458SOL    HW116614   3.284  10.733   4.434  2.9307 -0.1905 -0.1259
36458SOL    HW216615   3.315  10.737   4.286  1.3629 -0.9606 -0.5009
36459SOL     OW16616   4.129   9.679  10.183 -0.3689 -1.2481  0.3359
36459SOL    HW116617   4.188   9.744  10.146 -2.0318 -0.3936 -0.9068
36459SOL    HW216618   4.123   9.702  10.276 -0.4286 -0.0076  0.0395
36460SOL     OW16619  10.921  11.098   2.120  0.7655 -0.6751  0.4713
36460SOL    HW116620  10.846  11.157   2.119  0.2901 -1.2630  0.7208
36460SOL    HW216621  10.920  11.059   2.208  1.5613 -0.4366  0.5866
36461SOL     OW16622  11.463   2.563   0.831 -0.3350  0.0544  0.2238
36461SOL    HW116623  11.434   2.646   0.868  1.5186  1.1058 -0.5687
36461SOL    HW216624  11.510   2.521   0.903 -0.4308  0.1242  0.3287
36462SOL     OW16625   2.699   5.836   2.345 -0.2832  0.2546  0.0076
36462SOL    HW116626   2.607   5.820   2.323 -0.3878  1.3787 -0.4570
36462SOL    HW216627   2.748   5.805   2.268 -0.2328 -0.7328  0.4296
36463SOL     OW16628   1.329   0.158   1.520 -0.0468 -0.3698  0.3384
36463SOL    HW116629   1.345   0.073   1.561  0.9537 -0.1523  0.4193
36463SOL    HW216630   1.347   0.222   1.590  0.5462 -0.0377 -0.1147
36464SOL     OW16631   8.301   9.167   8.553  0.0082 -0.0226  0.2432
36464SOL    HW116632   8.313   9.261   8.563  2.6794 -0.3987  1.5689
36464SOL    HW216633   8.363   9.142   8.484 -1.8555 -0.6599 -1.3035
36465SOL     OW16634   0.831  10.733   3.431  0.1701  0.4609 -0.0412
36465SOL    HW116635   0.908  10.782   3.460  2.7861 -1.8041 -2.5468
36465SOL    HW216636   0.822  10.754   3.338 -2.5430  0.8713  0.2160
36466SOL     OW16637   6.273  10.889  11.498  0.3331 -0.3497 -1.2541
36466SOL    HW116638   6.187  10.877  11.458 -0.2743 -0.6060  0.0716
36466SOL    HW216639   6.275  10.981  11.523  0.0190 -0.5713 -0.3757
36467SOL     OW16640   3.948   0.247   7.287 -0.2807 -0.0940 -0.2938
36467SOL    HW116641   4.043   0.232   7.293 -0.2440  0.6312  1.1721
36467SOL    HW216642   3.915   0.169   7.241  0.5975 -2.0861  2.2403
36468SOL     OW16643   2.149   7.824   9.049 -0.1263 -0.7016 -0.2600
36468SOL    HW116644   2.164   7.793   9.138 -2.4793 -0.9745  0.0979
36468SOL    HW216645   2.207   7.900   9.040  0.8065 -1.1997  1.1651
36469SOL     OW16646  10.303   0.955   9.915 -0.3555  0.5016 -0.0074
36469SOL    HW116647  10.286   1.004   9.996 -0.0142  3.7664 -1.7206
36469SOL    HW216648  10.242   0.993   9.852 -0.3100 -1.6650 -1.4445
36470SOL     OW16649   5.825   3.591   2.903 -0.3895 -0.8548 -0.3395
36470SOL    HW116650   5.809   3.665   2.962  2.9383 -0.6195  0.4614
36470SOL    HW216651   5.796   3.514   2.952  0.4115 -0.4667  0.7807
36471SOL     OW16652  12.669   4.540   1.209 -0.0906  0.4588  0.3707
36471SOL    HW116653  12.750   4.522   1.162  0.9374  1.3239  1.7651
36471SOL    HW216654  12.636   4.453   1.234 -0.1437  0.0465 -1.0479
36472SOL     OW16655  12.231   4.707   6.335  0.0865 -1.1694 -0.2027
36472SOL    HW116656  12.164   4.764   6.372 -0.0896 -1.5694  0.0938
36472SOL    HW216657  12.183   4.637   6.292  0.2853 -0.6711 -1.2750
36473SOL     OW16658   1.386   6.480  10.257  0.2307  0.2181 -0.1838
36473SOL    HW116659   1.376   6.466  10.163  1.1167  1.5259 -0.4985
36473SOL    HW216660   1.299   6.462  10.294 -0.0129 -0.7347 -1.1750
36474SOL     OW16661   2.209  10.986  12.501  0.4008 -0.6187  0.3713
36474SOL    HW116662   2.192  11.015  12.591  0.5579 -0.5809  0.3887
36474SOL    HW216663   2.262  11.056  12.463  0.8887 -0.9402  0.4530
36475SOL     OW16664   1.704   2.528   2.372  0.0042  0.2815 -0.2578
36475SOL    HW116665   1.716   2.611   2.417  1.3814 -0.5124  0.9369
36475SOL    HW216666   1.757   2.535   2.293  0.8331  0.2471  0.2781
36476SOL     OW16667  11.129  12.694   4.005  0.4003  0.1012  0.1933
36476SOL    HW116668  11.144  12.643   4.085 -0.4134  0.0570  0.3228
36476SOL    HW216669  11.217  12.714   3.973  0.7826  1.3930  1.9110
36477SOL     OW16670   2.813   5.615   6.401  0.4050  0.1603  0.2160
36477SOL    HW116671   2.726   5.574   6.398  1.0276 -1.2001  0.1601
36477SOL    HW216672   2.861   5.566   6.468  1.4300  0.3121 -0.3892
36478SOL     OW16673   9.059   3.764   4.918 -0.6029 -0.0052 -0.9700
36478SOL    HW116674   9.108   3.717   4.985 -1.0595 -2.1799 -2.0635
36478SOL    HW216675   8.996   3.816   4.967 -1.2699 -1.9115  0.3479
36479SOL     OW16676   4.073   1.879   8.940  0.0209  0.0740  0.6967
36479SOL    HW116677   4.061   1.864   9.034  0.5698 -1.0737  0.5971
36479SOL    HW216678   3.988   1.858   8.902 -0.2682  0.7514  0.9552
36480SOL     OW16679   4.115  10.194  12.471 -0.1493 -0.1680 -0.0163
36480SOL    HW116680   4.030  10.197  12.515  0.0588 -0.5767  0.4235
36480SOL    HW216681   4.103  10.247  12.392 -1.0356 -0.8088 -0.3385
36481SOL     OW16682   8.667   9.505   3.799 -0.2843 -0.7908  0.0678
36481SOL    HW116683   8.640   9.420   3.766  1.9907 -1.5648 -0.0130
36481SOL    HW216684   8.593   9.537   3.851 -1.6820 -2.1889 -1.0021
36482SOL     OW16685   6.113   1.581   5.686  0.2283 -0.0217  0.8686
36482SOL    HW116686   6.091   1.562   5.777 -1.3695  0.9634  0.7070
36482SOL    HW216687   6.053   1.527   5.635 -0.2530  0.9255  0.4115
36483SOL     OW16688   2.084   3.335   8.132 -0.2173  0.2417 -0.5709
36483SOL    HW116689   2.128   3.253   8.156  1.5226  1.0572 -0.8778
36483SOL    HW216690   2.026   3.310   8.060  0.4061 -0.6999 -0.7727
36484SOL     OW16691  10.645   9.063  11.951 -0.0847 -0.4251 -0.2565
36484SOL    HW116692  10.636   9.134  12.016 -1.1250 -1.8968  1.3001
36484SOL    HW216693  10.688   9.104  11.877 -0.6499  1.8539  0.5849
36485SOL     OW16694   9.772   8.813   4.676 -0.4184 -0.1042 -0.0905
36485SOL    HW116695   9.836   8.778   4.615 -0.3692  0.2838 -0.2586
36485SOL    HW216696   9.691   8.820   4.625  0.0406  1.8794 -0.6234
36486SOL     OW16697   4.709   2.147   4.220  0.1932 -0.4884 -0.1504
36486SOL    HW116698   4.710   2.123   4.127  1.0840 -1.7196  0.1483
36486SOL    HW216699   4.617   2.146   4.244 -0.0353 -0.3467 -0.9746
36487SOL     OW16700   3.268   9.150  11.243 -0.8490 -0.1844 -0.1953
36487SOL    HW116701   3.254   9.162  11.337  0.9062 -2.4726  0.4649
36487SOL    HW216702   3.343   9.205  11.222 -0.2438 -0.8770  0.1233
36488SOL     OW16703   8.017   8.995   5.578 -0.1893  0.1081 -0.0704
36488SOL    HW116704   8.032   9.089   5.574 -0.5516  0.1381 -0.8975
36488SOL    HW216705   8.105   8.957   5.574 -0.1121  0.3808 -1.1227
36489SOL     OW16706  10.060   4.624   1.971  0.3423  0.0972  0.1753
36489SOL    HW116707  10.012   4.589   2.046 -0.0623  0.1955 -0.0310
36489SOL    HW216708  10.080   4.548   1.917 -0.7671  0.1972 -0.4034
36490SOL     OW16709  10.712   8.403   5.126  0.0820 -0.1129 -0.5258
36490SOL    HW116710  10.754   8.332   5.077 -0.3869 -0.4354 -0.4654
36490SOL    HW216711  10.679   8.463   5.058 -2.3244 -1.5486 -0.7293
36491SOL     OW16712   2.823   3.062   7.768 -0.3413  0.3216 -0.2572
36491SOL    HW116713   2.888   3.121   7.731 -1.4158  1.3286 -0.6376
36491SOL    HW216714   2.862   2.975   7.763  1.2711  0.9785  0.2555
36492SOL     OW16715   2.720   7.623   8.770 -0.1704 -0.1444 -0.3285
36492SOL    HW116716   2.776   7.681   8.718 -1.2914  2.0538  0.7891
36492SOL    HW216717   2.632   7.658   8.759 -1.1119 -2.3503 -0.4585
36493SOL     OW16718   8.292   2.527   1.962 -0.3626 -0.0419 -0.3097
36493SOL    HW116719   8.282   2.432   1.971 -0.4283 -0.1023 -0.9722
36493SOL    HW216720   8.208   2.563   1.991 -0.2248 -0.1618  0.2518
36494SOL     OW16721   6.940  10.289  11.557  0.2730 -0.3704  0.1148
36494SOL    HW116722   7.023  10.281  11.510  0.8959 -3.3059  1.5046
36494SOL    HW216723   6.875  10.247  11.500  0.4460 -1.2034  0.5176
36495SOL     OW16724   1.823   0.138   0.587  0.0336  0.3151  0.5563
36495SOL    HW116725   1.848   0.222   0.549 -0.2843  0.6713  1.1241
36495SOL    HW216726   1.770   0.095   0.519 -0.3584  0.8529  0.5218
36496SOL     OW16727   8.953   7.926   9.457  0.2636 -0.1038  0.3015
36496SOL    HW116728   9.034   7.976   9.452  0.4450 -0.1961  1.8537
36496SOL    HW216729   8.892   7.974   9.401  1.5655 -0.4369 -1.4663
36497SOL     OW16730   9.150  11.484  10.637  0.2530 -0.3655 -0.3313
36497SOL    HW116731   9.178  11.576  10.641 -2.3018  0.4880 -0.4030
36497SOL    HW216732   9.199  11.442  10.707  2.2739  0.7746 -0.9529
36498SOL     OW16733  10.792   4.549   1.502  0.1624 -0.4690 -0.0286
36498SOL    HW116734  10.701   4.539   1.473  1.0820 -0.7055 -3.3059
36498SOL    HW216735  10.820   4.632   1.463  1.3220 -0.3236  1.0675
36499SOL     OW16736  10.068  10.589   3.712 -0.2399 -0.1759 -0.5009
36499SOL    HW116737  10.026  10.664   3.752 -3.0643 -2.1529  0.5498
36499SOL    HW216738  10.160  10.597   3.737 -0.7673  2.0145  0.9843
36500SOL     OW16739   4.174   9.663   3.853  0.8086  0.2094  0.1886
36500SOL    HW116740   4.251   9.714   3.828  1.3392 -0.0417  1.2514
36500SOL    HW216741   4.113   9.674   3.780  1.7025  0.7163 -0.5006
36501SOL     OW16742  10.963   3.115   3.190  0.9327  0.1374 -0.6293
36501SOL    HW116743  10.897   3.151   3.249  1.6879  0.5660 -0.0367
36501SOL    HW216744  11.042   3.166   3.208  0.8512  1.2273 -2.9512
36502SOL     OW16745   7.551   3.210  10.672 -0.0035  0.6222  0.2043
36502SOL    HW116746   7.610   3.140  10.645  0.0650  1.1498 -1.1342
36502SOL    HW216747   7.600   3.291  10.652 -0.3221  1.0481  1.1337
36503SOL     OW16748   9.527  10.546   0.550 -0.6100 -0.0266  0.4725
36503SOL    HW116749   9.542  10.640   0.562 -1.8060  0.1760  0.5072
36503SOL    HW216750   9.432  10.538   0.538 -0.3726 -1.0588 -1.0417
36504SOL     OW16751   4.893   9.133   4.247  0.0949  0.3118 -0.4359
36504SOL    HW116752   4.954   9.102   4.179 -0.2863  0.8648 -1.0419
36504SOL    HW216753   4.809   9.141   4.202 -0.1661  0.6799  0.1053
36505SOL     OW16754   1.197   8.895   3.282  0.4640 -0.4312  0.5573
36505SOL    HW116755   1.237   8.833   3.222  1.3878 -0.8413  1.5892
36505SOL    HW216756   1.188   8.848   3.364  0.2423  0.4760  1.0686
36506SOL     OW16757  10.323   2.625  10.394 -0.4238  0.1439  0.1285
36506SOL    HW116758  10.279   2.644  10.312  2.1398  0.5778 -1.2558
36506SOL    HW216759  10.391   2.693  10.401  1.5960 -1.8282  0.8499
36507SOL     OW16760   6.176  11.947   8.095 -0.5556 -0.0697 -0.3313
36507SOL    HW116761   6.188  12.033   8.136 -0.3775 -0.6105  0.7855
36507SOL    HW216762   6.114  11.963   8.024 -0.1640  1.0653 -0.4371
36508SOL     OW16763   5.681   1.440   5.719  0.1370 -0.5874  0.6290
36508SOL    HW116764   5.691   1.351   5.684  0.8234 -0.1736 -0.2708
36508SOL    HW216765   5.587   1.449   5.734  0.0340 -1.3837  0.5150
36509SOL     OW16766   4.091  12.613   6.877  0.6097  0.0893  0.7038
36509SOL    HW116767   4.016  12.619   6.818 -0.0711 -1.1685  1.4084
36509SOL    HW216768   4.167  12.621   6.819 -0.0462 -0.4775 -0.2788
36510SOL     OW16769   7.669   7.811  10.676 -0.1509  0.2557 -0.2651
36510SOL    HW116770   7.741   7.874  10.674 -0.0406  0.1493  0.2080
36510SOL    HW216771   7.702   7.736  10.627  1.3613 -1.1328  2.6119
36511SOL     OW16772   3.975   8.038   3.976  0.2036 -0.2784 -0.3534
36511SOL    HW116773   3.937   7.986   4.047 -1.3421  0.1217 -0.8360
36511SOL    HW216774   4.070   8.028   3.986  0.0078 -0.6491  1.4329
36512SOL     OW16775   1.992  12.157   0.462  0.2091  0.9260 -0.6660
36512SOL    HW116776   1.938  12.108   0.400  2.2149 -2.0221 -0.3281
36512SOL    HW216777   1.940  12.162   0.542  0.5102 -2.5170 -0.0974
36513SOL     OW16778   2.348   3.218   0.348 -0.4523 -0.3695  0.4931
36513SOL    HW116779   2.367   3.178   0.263 -0.9026 -0.2203  0.3192
36513SOL    HW216780   2.433   3.223   0.391 -0.5307 -2.6267  1.0236
36514SOL     OW16781   6.982   6.069   4.041 -0.6154  0.0040  0.1423
36514SOL    HW116782   6.922   6.020   4.097 -0.8326 -0.7162 -0.6796
36514SOL    HW216783   6.993   6.154   4.083 -0.4041 -0.6774  1.5037
36515SOL     OW16784   9.702   3.821  11.086  0.3037  0.4295  0.4063
36515SOL    HW116785   9.756   3.796  11.162  0.9954 -0.5055 -0.3727
36515SOL    HW216786   9.723   3.913  11.071  1.5419  0.1375  0.2467
36516SOL     OW16787   9.905  11.333   4.193 -0.3139  0.5138  0.0204
36516SOL    HW116788   9.862  11.335   4.279  3.2568 -0.4592  2.0637
36516SOL    HW216789   9.931  11.241   4.181  2.0541  1.1664 -0.4563
36517SOL     OW16790  10.217   4.696   3.060 -0.1392  0.5764  0.2499
36517SOL    HW116791  10.285   4.629   3.053 -1.6481 -0.8412 -2.2155
36517SOL    HW216792  10.139   4.655   3.024 -1.4954  3.2254 -0.0600
36518SOL     OW16793   4.166   5.170   9.512  0.1546 -0.3925 -0.6015
36518SOL    HW116794   4.167   5.190   9.606 -0.8909 -1.4369 -0.3542
36518SOL    HW216795   4.176   5.256   9.470  1.5603 -0.0032  0.4430
36519SOL     OW16796   8.566   2.665   1.135 -0.1479  0.0891  0.3182
36519SOL    HW116797   8.503   2.597   1.113  0.1437 -0.9620  2.4644
36519SOL    HW216798   8.523   2.747   1.110 -0.6631 -0.8068 -1.9590
36520SOL     OW16799   8.598   2.696   4.534  0.1160  0.2889  0.3806
36520SOL    HW116800   8.545   2.745   4.596 -0.3945  0.7406 -0.3899
36520SOL    HW216801   8.654   2.640   4.588 -1.1822 -0.2477  1.2174
36521SOL     OW16802   9.472   7.763   7.664  0.0293  0.2769  0.2113
36521SOL    HW116803   9.429   7.680   7.688 -0.1120  0.1804 -0.3539
36521SOL    HW216804   9.540   7.737   7.602  1.0115  0.4175  1.1971
36522SOL     OW16805   9.460   4.367   4.183  0.3374 -0.1675  0.1936
36522SOL    HW116806   9.397   4.327   4.124 -0.2108  2.1098 -0.8469
36522SOL    HW216807   9.440   4.330   4.269 -1.5975 -0.4219 -0.3363
36523SOL     OW16808   9.367   8.888   6.128 -0.0482  0.2355 -0.2909
36523SOL    HW116809   9.307   8.845   6.188  1.2383  1.6172  2.1448
36523SOL    HW216810   9.326   8.971   6.107 -0.1746  0.0555 -0.7751
36524SOL     OW16811  11.262  11.974   9.311 -0.2565 -0.5080 -0.0680
36524SOL    HW116812  11.269  11.983   9.406 -1.7299 -0.6041  0.0758
36524SOL    HW216813  11.217  12.053   9.282  0.8043 -0.1586 -0.7799
36525SOL     OW16814   1.472   1.343  12.218  0.3661  0.1224 -0.7588
36525SOL    HW116815   1.467   1.250  12.195 -2.4909  0.1281 -0.5178
36525SOL    HW216816   1.528   1.381  12.150  0.8838 -1.6162 -1.3645
36526SOL     OW16817   6.221  11.416  11.801  0.0402  0.1774 -0.2838
36526SOL    HW116818   6.297  11.460  11.762  0.6972 -1.0324 -0.4296
36526SOL    HW216819   6.259  11.348  11.857 -0.9445 -0.7497 -0.7146
36527SOL     OW16820   8.001   6.178  12.573 -0.2693 -0.0495  0.2123
36527SOL    HW116821   8.014   6.099  12.626  1.9732 -0.6413 -1.1055
36527SOL    HW216822   8.090   6.205  12.548 -1.1752  0.3685 -2.9696
36528SOL     OW16823   5.325  12.167   2.992 -0.0019 -0.1012  0.0475
36528SOL    HW116824   5.286  12.190   3.077 -0.5421 -0.3011 -0.1397
36528SOL    HW216825   5.252  12.172   2.931  0.5015  0.5957 -0.5100
36529SOL     OW16826  11.798   5.674   4.430  0.6963 -0.1533  0.5284
36529SOL    HW116827  11.825   5.765   4.416  1.0162 -0.3485 -0.1591
36529SOL    HW216828  11.749   5.651   4.351  2.4301 -1.2322 -0.2855
36530SOL     OW16829   0.346   7.450   5.653  0.2316  0.4899 -0.0807
36530SOL    HW116830   0.394   7.425   5.573  0.7443  2.0957 -0.3124
36530SOL    HW216831   0.359   7.376   5.712  1.8688  0.2826 -0.6427
36531SOL     OW16832   7.542   3.156   5.187 -0.1345  0.1027  0.1558
36531SOL    HW116833   7.486   3.102   5.241 -0.2632 -0.2828 -0.3566
36531SOL    HW216834   7.506   3.244   5.195 -1.3889 -0.2927 -0.9041
36532SOL     OW16835   8.006   5.234  11.951  0.3179 -0.3298  0.0072
36532SOL    HW116836   7.919   5.195  11.957 -0.2317  0.7577 -0.5841
36532SOL    HW216837   8.058   5.168  11.905 -0.3767 -0.6985 -0.2702
36533SOL     OW16838   0.891   8.613   2.402 -0.4157 -0.0173 -0.5264
36533SOL    HW116839   0.923   8.544   2.461 -0.2867  0.7514  0.3128
36533SOL    HW216840   0.971   8.655   2.370 -0.5119  0.0650 -0.6552
36534SOL     OW16841   3.596   9.459   0.513  0.1554  0.2165  0.4815
36534SOL    HW116842   3.613   9.430   0.424 -1.7178  0.4787 -0.0044
36534SOL    HW216843   3.576   9.552   0.504  1.0372  0.5134  1.3480
36535SOL     OW16844   4.875   9.976   0.088  0.5524  0.1281 -0.1273
36535SOL    HW116845   4.875   9.890   0.129 -1.3306  0.3033  0.3292
36535SOL    HW216846   4.840  10.035   0.155  1.0800  1.1199 -0.6948
36536SOL     OW16847   3.966   4.285   9.787  0.3004 -0.0267  0.1992
36536SOL    HW116848   4.008   4.355   9.736  0.3456 -1.4022 -1.7559
36536SOL    HW216849   4.038   4.224   9.806  0.2144  0.3018  1.6918
36537SOL     OW16850   3.277   5.549   0.986  0.2050  0.2140  0.1717
36537SOL    HW116851   3.286   5.642   0.966 -1.9311  0.7742  1.5962
36537SOL    HW216852   3.332   5.536   1.063  0.3645  0.2995  0.0756
36538SOL     OW16853   3.270   4.943   7.590 -0.2875  0.4339  0.7045
36538SOL    HW116854   3.312   4.985   7.665  1.5457 -2.0660  1.1718
36538SOL    HW216855   3.337   4.943   7.521 -0.7719 -0.3708  0.2194
36539SOL     OW16856   9.259  10.790   4.952 -0.0735 -0.2252 -0.2812
36539SOL    HW116857   9.333  10.770   4.894  1.0192  0.7862  0.7063
36539SOL    HW216858   9.192  10.727   4.928  1.2460 -1.4216 -0.9630
36540SOL     OW16859   6.606   3.294   5.562 -0.2674  0.0043 -0.1176
36540SOL    HW116860   6.525   3.244   5.547  0.1291 -0.5092 -0.6050
36540SOL    HW216861   6.675   3.228   5.557  0.3037  0.6579 -1.1891
36541SOL     OW16862   4.615  10.270   3.311 -0.2139 -0.5649 -0.2246
36541SOL    HW116863   4.706  10.267   3.341  0.6147  1.4864 -2.2344
36541SOL    HW216864   4.609  10.202   3.245 -0.3550 -1.1568  0.3893
36542SOL     OW16865   2.512   7.226   0.776 -0.6275 -0.5124 -0.0039
36542SOL    HW116866   2.513   7.320   0.756 -1.0638 -0.5909 -0.4150
36542SOL    HW216867   2.432   7.213   0.826 -0.8226 -0.7477 -0.3726
36543SOL     OW16868  10.124  10.556   7.245 -0.6341  0.1463  0.0020
36543SOL    HW116869  10.029  10.553   7.249 -0.5792 -2.2318  1.9978
36543SOL    HW216870  10.149  10.627   7.304 -1.1309  1.8746 -1.7754
36544SOL     OW16871   2.358   2.172   7.656  0.3408  0.1024 -0.1978
36544SOL    HW116872   2.417   2.238   7.690 -0.2603  0.5693 -0.0371
36544SOL    HW216873   2.387   2.090   7.696  1.7915  0.0558 -1.2550
36545SOL     OW16874   6.563   6.765   5.100 -0.1900  0.4026 -0.1250
36545SOL    HW116875   6.577   6.819   5.177  0.9832 -0.1499  0.0845
36545SOL    HW216876   6.652   6.741   5.072 -0.6561 -2.0051  0.2273
36546SOL     OW16877  12.060   0.066   3.687  0.1995 -0.4307 -0.9012
36546SOL    HW116878  12.001   0.015   3.741  0.1908 -0.2624 -0.7508
36546SOL    HW216879  12.089   0.006   3.618  1.0342 -0.9571 -0.1139
36547SOL     OW16880   6.152   4.715   9.409  0.0947 -0.3847  0.1233
36547SOL    HW116881   6.113   4.800   9.386  1.5130 -0.0638 -1.2928
36547SOL    HW216882   6.246   4.734   9.419  0.4349 -1.7893 -0.2298
36548SOL     OW16883  10.153   4.495  11.511 -0.0173 -0.2159  0.0707
36548SOL    HW116884  10.193   4.425  11.461  0.2442  1.1851 -1.8028
36548SOL    HW216885  10.202   4.497  11.593  0.9018 -1.2850 -0.4266
36549SOL     OW16886  12.538   7.262   5.465  0.1116 -0.3072  0.0680
36549SOL    HW116887  12.617   7.214   5.491 -0.6749 -2.9535 -2.0014
36549SOL    HW216888  12.489   7.273   5.547  1.3186 -1.1191  0.9461
36550SOL     OW16889   1.521  12.166  11.719  0.3624 -0.0888  0.0224
36550SOL    HW116890   1.474  12.131  11.644 -2.3908  1.8658  0.6644
36550SOL    HW216891   1.572  12.238  11.684  0.0034  0.0796 -0.1597
36551SOL     OW16892   4.646  10.423   7.163  0.7554  0.4875 -0.4450
36551SOL    HW116893   4.581  10.488   7.136 -1.2924  0.6960  4.0514
36551SOL    HW216894   4.728  10.473   7.168  0.3704  1.3407 -2.1150
36552SOL     OW16895   4.441   8.716   6.324 -0.0723 -0.0590  0.1623
36552SOL    HW116896   4.487   8.773   6.263 -0.8107 -0.7021 -1.0468
36552SOL    HW216897   4.440   8.764   6.407  1.8208  0.4040 -0.0534
36553SOL     OW16898   6.290   4.193  12.566  0.1317 -0.5575 -0.4779
36553SOL    HW116899   6.216   4.132  12.556 -0.0703 -0.5175  0.5827
36553SOL    HW216900   6.249   4.274  12.596  0.5237 -0.2805 -0.6967
36554SOL     OW16901  10.591   9.606  12.191 -0.5977  0.4246  0.4669
36554SOL    HW116902  10.602   9.522  12.147 -2.9434  0.7768 -0.9609
36554SOL    HW216903  10.497   9.611  12.209 -0.7530  3.2899 -0.6885
36555SOL     OW16904   0.693   3.593   6.905 -0.1052  0.4670 -0.6113
36555SOL    HW116905   0.708   3.555   6.819 -2.9827 -1.6924 -0.2874
36555SOL    HW216906   0.776   3.580   6.951  0.4848 -1.2800 -2.0484
36556SOL     OW16907   7.342  11.645   7.192 -0.3424 -0.3728  0.2444
36556SOL    HW116908   7.435  11.640   7.214 -0.2101  1.7097  0.2752
36556SOL    HW216909   7.298  11.611   7.271  0.3371  0.6916  1.1046
36557SOL     OW16910   0.830   9.862   1.468  0.1648  0.4329  0.3513
36557SOL    HW116911   0.737   9.876   1.485 -0.9502 -1.4933 -3.0455
36557SOL    HW216912   0.863   9.948   1.441 -1.0618  0.8274  0.0333
36558SOL     OW16913   4.641   1.111  10.766 -0.2134  0.3553 -0.4932
36558SOL    HW116914   4.562   1.071  10.731 -0.0042 -1.5073  1.0117
36558SOL    HW216915   4.623   1.122  10.859  1.3575 -0.3402 -0.0649
36559SOL     OW16916   7.710   9.972   2.658 -0.0620  0.2506  0.0281
36559SOL    HW116917   7.681   9.901   2.716  0.7351 -1.0361 -1.0916
36559SOL    HW216918   7.805   9.974   2.667  0.1943 -0.6457 -1.9117
36560SOL     OW16919   6.745   2.309   6.204  0.0154  0.5201 -0.4002
36560SOL    HW116920   6.665   2.285   6.251  0.8427 -2.1594 -0.1817
36560SOL    HW216921   6.801   2.350   6.270 -1.6206  3.8311 -0.8781
36561SOL     OW16922  11.445   8.476   2.065 -0.1951 -0.0096 -0.6413
36561SOL    HW116923  11.469   8.450   1.976  1.9343 -2.0362  0.4145
36561SOL    HW216924  11.376   8.414   2.090  0.6135 -0.7616 -0.2259
36562SOL     OW16925   8.435  11.693  11.074 -0.1370 -0.0274  0.6697
36562SOL    HW116926   8.400  11.743  11.148 -1.1375 -1.1122  0.9828
36562SOL    HW216927   8.421  11.601  11.100 -0.4050 -0.4276 -0.8106
36563SOL     OW16928   8.555   1.126   9.416 -0.3768 -0.1110  0.1157
36563SOL    HW116929   8.630   1.069   9.428 -0.8094 -0.3925  1.8048
36563SOL    HW216930   8.590   1.205   9.375  0.3475 -1.2769 -1.6022
36564SOL     OW16931   7.794   3.394   5.075  0.2404  0.2754  0.7081
36564SOL    HW116932   7.737   3.389   4.999 -0.1772 -0.2283  1.0491
36564SOL    HW216933   7.876   3.430   5.041 -0.2849  1.0644  0.2234
36565SOL     OW16934   5.540   2.759   3.773 -0.2588  0.0341 -0.3231
36565SOL    HW116935   5.478   2.823   3.809 -0.8273 -0.4713 -0.3856
36565SOL    HW216936   5.536   2.772   3.678  2.2934  2.3454 -0.2364
36566SOL     OW16937   8.690   3.602  11.327 -0.5332 -0.4765  1.0249
36566SOL    HW116938   8.653   3.667  11.387 -0.6108 -0.2941  0.7816
36566SOL    HW216939   8.734   3.654  11.259  1.5788 -0.6988  2.1549
36567SOL     OW16940  10.949   6.799   9.346 -0.0029 -0.2121 -0.7128
36567SOL    HW116941  10.866   6.759   9.320 -0.2414 -0.7712  0.8138
36567SOL    HW216942  11.010   6.725   9.351  0.0208 -0.1340  0.3172
36568SOL     OW16943  10.692   2.956   5.331  0.5265  0.2843 -0.3136
36568SOL    HW116944  10.724   2.964   5.421 -0.1328  0.7425 -0.1148
36568SOL    HW216945  10.599   2.934   5.340  1.1677 -3.3558 -0.8447
36569SOL     OW16946   0.752   2.295   3.592  0.3441  0.0149 -0.3323
36569SOL    HW116947   0.784   2.369   3.644 -2.6113  1.9647 -0.9910
36569SOL    HW216948   0.714   2.235   3.656  2.5087 -0.8841  0.1875
36570SOL     OW16949   7.062  10.310  11.894  0.0571 -0.2184  0.1946
36570SOL    HW116950   7.094  10.400  11.892  1.3236 -0.6580 -1.2254
36570SOL    HW216951   7.120  10.264  11.954  0.5761 -0.4688 -0.4818
36571SOL     OW16952   7.876   6.040   5.005  0.3948 -0.8139  0.1719
36571SOL    HW116953   7.845   6.027   5.095  1.2991  1.3796  0.8840
36571SOL    HW216954   7.970   6.054   5.015  0.4223  0.0026 -1.0420
36572SOL     OW16955   2.313   6.794   5.770 -0.1623 -0.1032  0.3468
36572SOL    HW116956   2.400   6.773   5.734 -1.2904 -2.1343 -1.4066
36572SOL    HW216957   2.282   6.867   5.716 -0.8229 -1.5164 -1.2715
36573SOL     OW16958   4.042  10.154   8.460 -0.4903 -0.1192 -0.1062
36573SOL    HW116959   4.027  10.248   8.465  1.4314  0.3555 -1.9310
36573SOL    HW216960   4.116  10.137   8.518 -0.5235 -0.4276 -0.1489
36574SOL     OW16961   5.236   2.871   7.573 -0.5257 -0.0650  0.3753
36574SOL    HW116962   5.143   2.891   7.575 -0.3144  0.9348  0.7184
36574SOL    HW216963   5.277   2.949   7.536  0.1183 -0.7590 -0.4298
36575SOL     OW16964   5.256   8.802   2.910 -0.2840  0.8459 -0.0447
36575SOL    HW116965   5.284   8.878   2.962  0.7496  0.1377  0.4548
36575SOL    HW216966   5.337   8.764   2.877 -0.7746 -0.1582 -0.1354
36576SOL     OW16967   6.962   1.160  11.299 -0.0572 -0.2986  1.0279
36576SOL    HW116968   6.917   1.170  11.216  4.8502  0.1102 -1.9531
36576SOL    HW216969   6.951   1.244  11.343 -0.2819  0.5554 -0.6096
36577SOL     OW16970   4.754   0.055   8.208  0.0153  0.4141  0.0194
36577SOL    HW116971   4.668   0.047   8.167  1.5371 -0.3276 -3.3735
36577SOL    HW216972   4.756  -0.014   8.274 -3.3251  2.9742  3.1636
36578SOL     OW16973   8.476   2.577   3.329  0.0580 -0.3702  0.8565
36578SOL    HW116974   8.419   2.641   3.372 -0.4046 -0.6069  0.6060
36578SOL    HW216975   8.497   2.513   3.396 -2.4712 -1.9810  0.2441
36579SOL     OW16976  11.743   8.177   9.478 -0.0866 -0.6534 -0.2689
36579SOL    HW116977  11.818   8.207   9.427 -0.6172 -1.1601 -1.3655
36579SOL    HW216978  11.674   8.164   9.414 -0.8327 -1.1105  0.6105
36580SOL     OW16979   4.040   1.827   5.205  0.5879 -0.1307 -0.6690
36580SOL    HW116980   4.113   1.770   5.181  0.1793  0.4332 -3.6957
36580SOL    HW216981   4.035   1.890   5.133 -1.4728  1.2683  0.5923
36581SOL     OW16982  10.024   9.415  10.451 -0.1260  0.3788  0.3883
36581SOL    HW116983  10.002   9.483  10.514  0.8582 -0.3841  1.6085
36581SOL    HW216984   9.975   9.438  10.372  1.2983  3.2920  0.2538
36582SOL     OW16985  11.005  12.617   0.071 -0.2805  0.1495 -0.4709
36582SOL    HW116986  11.045  12.532   0.052 -1.5935 -1.0877  1.8184
36582SOL    HW216987  11.073  12.681   0.049  1.8334 -1.6523  0.4575
36583SOL     OW16988   6.353  10.222   0.665 -0.2468 -0.1034 -0.1992
36583SOL    HW116989   6.353  10.131   0.694  2.1784 -0.7261 -1.8195
36583SOL    HW216990   6.412  10.267   0.725 -1.3930  0.4347  0.5612
36584SOL     OW16991   8.629   7.095   3.495 -0.0864  0.2635  0.1691
36584SOL    HW116992   8.607   7.008   3.462 -1.4837  0.5743  0.2270
36584SOL    HW216993   8.716   7.112   3.460  0.3531 -1.2837  0.4210
36585SOL     OW16994   6.487   2.946  11.279  0.0547 -0.3499 -0.6245
36585SOL    HW116995   6.576   2.978  11.263  0.5757 -1.7112 -0.5600
36585SOL    HW216996   6.430   3.010  11.235  1.1833 -0.9933 -3.1796
36586SOL     OW16997   5.518  12.106   4.998  0.1307  0.1246  0.1505
36586SOL    HW116998   5.447  12.137   4.941  0.9247  1.4739 -0.1447
36586SOL    HW216999   5.474  12.084   5.080 -0.6222  1.1342  0.0413
36587SOL     OW17000   8.789   9.970   3.874 -0.1799 -0.2157 -0.5842
36587SOL    HW117001   8.827   9.944   3.790 -1.4788  0.4533 -1.4052
36587SOL    HW217002   8.717  10.028   3.851 -0.8889 -0.4283  0.9865
36588SOL     OW17003   5.709   2.961   9.210  0.2501  0.2470 -0.2266
36588SOL    HW117004   5.751   2.984   9.293 -1.4836  2.2416  0.1667
36588SOL    HW217005   5.652   3.035   9.191 -1.4207 -1.3744 -1.8566
36589SOL     OW17006  11.574   3.429   0.876  0.0168 -0.3656 -0.2936
36589SOL    HW117007  11.664   3.442   0.845  0.2507  1.0200  0.8790
36589SOL    HW217008  11.581   3.361   0.943  0.2293 -0.1216 -0.0656
36590SOL     OW17009   1.138   7.256   3.163 -0.2564  0.1971 -0.0349
36590SOL    HW117010   1.204   7.317   3.132 -0.5383  0.7826  0.4836
36590SOL    HW217011   1.081   7.241   3.087 -0.5654  1.1037  0.0100
36591SOL     OW17012   8.416   4.272  12.146  0.0440  0.1814  0.2140
36591SOL    HW117013   8.419   4.235  12.058 -0.3414  0.9978 -0.1456
36591SOL    HW217014   8.372   4.205  12.198 -0.5860  0.0943 -0.4167
36592SOL     OW17015   2.921  12.276   3.019 -0.1066  0.2057  0.3628
36592SOL    HW117016   2.953  12.245   3.104 -0.2085  1.8366  1.0233
36592SOL    HW217017   3.001  12.297   2.969 -0.0227  2.8294  1.4621
36593SOL     OW17018   4.081   7.460   7.793 -0.4540 -0.4649  0.2312
36593SOL    HW117019   4.166   7.503   7.780 -1.2617  0.9413 -0.6460
36593SOL    HW217020   4.097   7.368   7.773  0.8877 -0.2440  0.1930
36594SOL     OW17021   8.810   3.158  12.252  0.5385  0.0350 -0.2978
36594SOL    HW117022   8.839   3.246  12.276  0.9407  0.2197 -1.3991
36594SOL    HW217023   8.865   3.100  12.305 -1.1397  0.4153  2.0048
36595SOL     OW17024  11.155   0.655   3.270  0.1610 -0.3489 -0.1497
36595SOL    HW117025  11.186   0.743   3.292  1.0595 -1.0704  1.6549
36595SOL    HW217026  11.060   0.664   3.267  0.2457  0.7159 -0.2061
36596SOL     OW17027  10.792   9.368   9.385  0.5752 -0.1863 -0.2193
36596SOL    HW117028  10.787   9.276   9.357  1.6297 -0.1591 -0.5611
36596SOL    HW217029  10.754   9.368   9.472  0.5052 -0.9454 -0.2378
36597SOL     OW17030   4.730  12.398   9.879  0.2187 -0.1355 -0.2501
36597SOL    HW117031   4.796  12.391   9.948  1.6523 -0.5821 -1.6041
36597SOL    HW217032   4.718  12.492   9.867 -1.3432 -0.0120  1.7354
36598SOL     OW17033   0.732  11.547   9.278  0.1442  0.5338  0.5293
36598SOL    HW117034   0.717  11.629   9.229  2.4280  0.2673 -0.7487
36598SOL    HW217035   0.790  11.573   9.350 -0.4805  0.3153  1.1181
36599SOL     OW17036   5.503   7.570   5.769  0.1069 -0.1722 -0.2742
36599SOL    HW117037   5.563   7.642   5.785 -0.8012  0.9942 -1.8046
36599SOL    HW217038   5.555   7.491   5.784  1.5248  0.7858  0.0597
36600SOL     OW17039  12.516   2.450   1.014 -0.1875 -0.4603  0.2452
36600SOL    HW117040  12.516   2.536   0.971  0.4145 -0.9192 -0.7259
36600SOL    HW217041  12.444   2.454   1.076 -0.1706  0.7484  0.2192
36601SOL     OW17042   2.543   1.058   3.553 -1.1734 -0.4352  0.3570
36601SOL    HW117043   2.570   1.118   3.483 -0.7797 -2.0724 -0.9590
36601SOL    HW217044   2.492   1.113   3.613 -0.1428  1.3760 -0.3381
36602SOL     OW17045   1.240   7.082  10.917 -0.5207  0.4991 -0.5899
36602SOL    HW117046   1.229   7.169  10.879 -0.9393  0.2764 -0.9800
36602SOL    HW217047   1.308   7.041  10.864  1.4718  1.4227  1.0553
36603SOL     OW17048   7.380   7.288   7.176  0.3612  0.5090  0.0007
36603SOL    HW117049   7.377   7.259   7.084  0.7379  1.2034 -0.2384
36603SOL    HW217050   7.473   7.285   7.199  0.3220  0.8140  0.2031
36604SOL     OW17051  10.782   8.839   2.229  0.1090  0.4552  0.5281
36604SOL    HW117052  10.868   8.812   2.195  0.5243  0.4829  1.5127
36604SOL    HW217053  10.782   8.934   2.220  0.1304  0.4421  0.3944
36605SOL     OW17054   4.844   2.391   4.268  0.2964  0.1635  0.8178
36605SOL    HW117055   4.934   2.376   4.295 -0.1753 -0.9100  1.9127
36605SOL    HW217056   4.814   2.305   4.237  0.1825  0.8944 -1.2998
36606SOL     OW17057   5.002   7.595  12.078 -0.1127  0.3877  0.3848
36606SOL    HW117058   5.015   7.643  11.996  3.5574  0.2072  0.6842
36606SOL    HW217059   4.969   7.660  12.139 -1.3030  0.9256 -0.7898
36607SOL     OW17060   4.548   5.238   0.374 -0.1416  0.3678 -0.6649
36607SOL    HW117061   4.622   5.182   0.348  0.0964  0.1188  0.5046
36607SOL    HW217062   4.554   5.313   0.314  0.1735 -0.3414 -1.5501
36608SOL     OW17063  10.742   6.425   2.407  0.0280  0.0757 -0.3677
36608SOL    HW117064  10.688   6.384   2.475 -0.9864  0.3147 -1.0039
36608SOL    HW217065  10.709   6.389   2.325  1.2697 -0.2398 -0.7499
36609SOL     OW17066   1.611   9.234   4.929 -0.0312  0.1236 -0.2563
36609SOL    HW117067   1.653   9.229   5.015  0.4250  0.9794 -0.4088
36609SOL    HW217068   1.568   9.150   4.918  0.9940 -0.4893  0.2619
36610SOL     OW17069   6.461  12.599   1.880 -0.4930 -0.6954 -0.2403
36610SOL    HW117070   6.438  12.544   1.956 -1.0568 -0.1205  0.0135
36610SOL    HW217071   6.444  12.688   1.909 -0.3627 -0.4409 -0.9306
36611SOL     OW17072  12.098   4.452   1.746 -0.1711 -0.5394  0.3301
36611SOL    HW117073  12.051   4.392   1.804 -1.2624  1.6183  1.8069
36611SOL    HW217074  12.077   4.422   1.658 -1.0249 -2.0548  1.0194
36612SOL     OW17075   2.382   2.139   2.933  0.6963  0.8367  0.3769
36612SOL    HW117076   2.373   2.054   2.890  2.1666  2.3622 -3.4659
36612SOL    HW217077   2.465   2.134   2.980  0.3603 -0.0595  0.9027
36613SOL     OW17078   1.524   5.640   5.897 -0.5002 -0.5033 -0.1710
36613SOL    HW117079   1.525   5.723   5.849 -1.0790  0.2134  1.0077
36613SOL    HW217080   1.592   5.587   5.855  0.5553  0.9233 -0.3356
36614SOL     OW17081   0.986   8.081  12.477  0.4818 -0.3664 -0.2781
36614SOL    HW117082   0.942   8.160  12.510  0.0246 -0.7540  0.0520
36614SOL    HW217083   1.019   8.038  12.556 -1.5906 -1.8877 -0.1653
36615SOL     OW17084   4.092   9.473   0.577 -0.3415 -0.1321 -0.1133
36615SOL    HW117085   4.104   9.507   0.488  0.0651 -0.0297 -0.0199
36615SOL    HW217086   4.024   9.529   0.615 -2.3845 -1.7186 -1.1913
36616SOL     OW17087   9.428  11.718   9.886  1.0073 -0.3032 -0.0549
36616SOL    HW117088   9.483  11.751   9.814  1.3976  0.8836  0.7430
36616SOL    HW217089   9.417  11.625   9.867  3.3840 -0.6349 -0.2195
36617SOL     OW17090   9.004   8.082   6.028 -0.0270 -0.2116  0.1286
36617SOL    HW117091   8.918   8.123   6.013 -0.4644 -1.1111  0.1039
36617SOL    HW217092   8.983   7.992   6.053  0.9466 -0.8400 -1.2052
36618SOL     OW17093   2.330   8.053   2.038  0.1886 -0.1066  0.2374
36618SOL    HW117094   2.390   8.052   1.963  1.2020 -1.3738  1.0083
36618SOL    HW217095   2.388   8.051   2.114 -0.8135  1.2382  1.0765
36619SOL     OW17096  11.433  10.192   9.895 -0.0422 -0.2191  0.1595
36619SOL    HW117097  11.487  10.113   9.893  1.3811  0.7326  0.1593
36619SOL    HW217098  11.380  10.187   9.815 -0.9082 -1.7769  0.7731
36620SOL     OW17099   3.662   6.200   1.804 -0.0921  0.0412 -0.3850
36620SOL    HW117100   3.704   6.121   1.839 -1.4195 -0.4743  0.0802
36620SOL    HW217101   3.657   6.185   1.710  1.1941  0.3291 -0.5183
36621SOL     OW17102   3.002  10.102   6.551 -0.2118 -0.2977 -0.0261
36621SOL    HW117103   2.967  10.069   6.633  1.1567  1.0452  1.1544
36621SOL    HW217104   2.925  10.127   6.500 -1.0496  0.2630  1.4623
36622SOL     OW17105  10.389   8.778   1.712 -0.1720  0.0204  0.1566
36622SOL    HW117106  10.457   8.746   1.653 -0.7474 -1.0674  0.0512
36622SOL    HW217107  10.437   8.820   1.783  0.5635  0.3953 -0.5466
36623SOL     OW17108   0.945   2.459  11.793 -0.0937  0.1793 -0.3971
36623SOL    HW117109   0.851   2.475  11.802  0.3026  2.0919  0.8710
36623SOL    HW217110   0.963   2.389  11.856 -0.6658 -0.2629 -0.7103
36624SOL     OW17111  11.232   9.169   3.987 -0.2455 -0.1182  0.3109
36624SOL    HW117112  11.295   9.103   4.017 -2.2324 -2.7015 -0.8615
36624SOL    HW217113  11.150   9.146   4.030 -0.6448  2.8095  1.3275
36625SOL     OW17114   7.700  10.485   0.812 -0.0278  1.1441 -0.3943
36625SOL    HW117115   7.736  10.432   0.740  0.7460  2.0637 -0.7000
36625SOL    HW217116   7.620  10.439   0.837  1.4385 -1.1609  0.4849
36626SOL     OW17117   5.496   5.539   7.437  0.5166 -0.2042 -0.0756
36626SOL    HW117118   5.444   5.577   7.366 -1.1966 -0.6265  0.8905
36626SOL    HW217119   5.523   5.453   7.405 -0.3348 -0.4343 -0.1862
36627SOL     OW17120   4.653  12.531   0.248 -0.0817  0.0446  0.2304
36627SOL    HW117121   4.587  12.519   0.317 -1.5633  1.7588 -0.8171
36627SOL    HW217122   4.621  12.477   0.176  0.3802 -0.1353  0.1563
36628SOL     OW17123   8.928   0.718   1.257  0.0058 -0.1079  0.8094
36628SOL    HW117124   8.876   0.779   1.308 -1.7343 -0.4229 -0.5060
36628SOL    HW217125   9.003   0.770   1.226  0.3871  0.4161  2.4984
36629SOL     OW17126   0.415   5.035   6.689  0.3569 -0.3516  0.4076
36629SOL    HW117127   0.324   5.058   6.673  0.3009 -0.8369  0.0100
36629SOL    HW217128   0.447   5.102   6.749 -0.6456 -0.9612  1.6623
36630SOL     OW17129  11.915  10.470   5.255 -0.2759 -0.4804 -0.2608
36630SOL    HW117130  11.842  10.493   5.199 -1.2719 -1.0771  0.7412
36630SOL    HW217131  11.988  10.455   5.195 -1.0874 -0.3019 -1.3193
36631SOL     OW17132   8.220   2.372   7.604 -0.2275 -0.1564  0.4212
36631SOL    HW117133   8.290   2.310   7.623  0.2787  0.6590  1.2844
36631SOL    HW217134   8.190   2.348   7.516 -0.6585 -2.1777  1.0873
36632SOL     OW17135   2.791   0.387   3.163  0.2709  0.5546  0.3067
36632SOL    HW117136   2.833   0.462   3.204 -0.6803  1.4836 -0.3606
36632SOL    HW217137   2.732   0.425   3.097  1.4458 -0.8314 -1.6822
36633SOL     OW17138   9.478  12.242  10.571  0.2526 -0.2360  0.3195
36633SOL    HW117139   9.552  12.258  10.629  0.0832  0.2411  0.4097
36633SOL    HW217140   9.504  12.280  10.487  1.0708 -2.1446 -0.3548
36634SOL     OW17141  11.852   7.813   9.402 -0.3932  0.2466  0.0174
36634SOL    HW117142  11.827   7.753   9.472 -0.1260  0.5370  0.3598
36634SOL    HW217143  11.883   7.892   9.447 -0.6468  0.6058 -0.4270
36635SOL     OW17144   9.453   4.585  11.497 -0.2024 -0.3047 -0.1631
36635SOL    HW117145   9.363   4.607  11.470 -1.3482 -1.9779  1.9242
36635SOL    HW217146   9.502   4.581  11.416 -2.1456  0.1405 -1.4366
36636SOL     OW17147   9.986   7.037   6.172 -0.0002  0.1309 -0.0448
36636SOL    HW117148  10.070   7.047   6.127 -0.3436 -0.0599 -0.7535
36636SOL    HW217149   9.923   7.079   6.113 -0.4462 -0.0001  0.3355
36637SOL     OW17150   7.365   9.122   2.875  0.1089  0.0827  0.4858
36637SOL    HW117151   7.359   9.198   2.817  1.4138  0.0560  0.2826
36637SOL    HW217152   7.274   9.092   2.885 -0.2439  0.6632 -0.7587
36638SOL     OW17153   9.199   2.093   3.779  0.5204 -0.4165 -0.4965
36638SOL    HW117154   9.226   2.163   3.839  2.2838  0.2220 -1.9269
36638SOL    HW217155   9.221   2.012   3.825  0.4703  0.0236  0.3109
36639SOL     OW17156  10.262   5.644   8.390 -0.0946 -0.8783  0.3613
36639SOL    HW117157  10.352   5.627   8.420  0.5255 -0.3158 -1.1048
36639SOL    HW217158  10.259   5.607   8.302 -0.4174  1.5064 -0.7022
36640SOL     OW17159   3.110  12.311   7.145 -0.0965  1.0542  0.2391
36640SOL    HW117160   3.197  12.288   7.178 -1.3448 -1.5236  2.0957
36640SOL    HW217161   3.108  12.277   7.056  0.0578 -1.0711  1.0003
36641SOL     OW17162   9.752   4.485   9.516 -0.7035 -0.4708 -0.0375
36641SOL    HW117163   9.771   4.564   9.568 -2.5390 -0.4175  0.6141
36641SOL    HW217164   9.821   4.424   9.540 -0.9637 -0.1111  1.7882
36642SOL     OW17165   9.429  10.480   1.684 -0.0584 -0.2627  0.1186
36642SOL    HW117166   9.389  10.398   1.712 -0.0690  0.2833  1.8763
36642SOL    HW217167   9.386  10.502   1.602 -1.2939 -1.1385  0.5069
36643SOL     OW17168  11.359  10.278  11.632 -0.3909  0.1483 -0.4547
36643SOL    HW117169  11.309  10.217  11.687 -0.1547 -0.6079 -1.0480
36643SOL    HW217170  11.336  10.253  11.542  0.2784  0.4508 -0.7144
36644SOL     OW17171   0.609   9.167   7.339 -0.2586  0.4646 -0.4744
36644SOL    HW117172   0.601   9.263   7.336 -1.1914  0.3997 -0.4738
36644SOL    HW217173   0.551   9.141   7.410  0.6914 -0.0467  0.1271
36645SOL     OW17174   6.725  10.350   4.517 -0.4208 -0.6059 -0.8409
36645SOL    HW117175   6.682  10.425   4.557  2.1418 -0.0762  1.1985
36645SOL    HW217176   6.777  10.387   4.445  1.5235 -0.1759  0.7007
36646SOL     OW17177   4.583   3.293   3.471 -0.5369  0.5152 -0.0036
36646SOL    HW117178   4.674   3.267   3.457 -1.1072 -2.0832  0.5113
36646SOL    HW217179   4.536   3.253   3.398 -1.3730  0.9612  0.2863
36647SOL     OW17180   6.285   0.700   6.539  0.1652 -0.0287 -0.2258
36647SOL    HW117181   6.318   0.784   6.573  1.6092  0.2100 -2.0665
36647SOL    HW217182   6.269   0.647   6.617 -0.3636  1.7908  0.9677
36648SOL     OW17183   2.530   9.606   5.988  0.0150  0.1593 -0.1128
36648SOL    HW117184   2.624   9.586   5.996  0.1671  1.0862  0.6864
36648SOL    HW217185   2.518   9.683   6.043 -1.1804  0.1994 -0.4105
36649SOL     OW17186   0.219   4.056   2.873 -0.1621  0.4710  0.5494
36649SOL    HW117187   0.181   3.987   2.818  1.1059  0.2282 -0.0518
36649SOL    HW217188   0.240   4.127   2.813  1.1498  0.2411  0.7175
36650SOL     OW17189   7.238  12.169   8.219  0.2066  0.0439  0.5788
36650SOL    HW117190   7.306  12.235   8.206  0.4769 -0.2360  0.5797
36650SOL    HW217191   7.248  12.144   8.311  0.3390 -0.2643  0.4791
36651SOL     OW17192   9.829   6.334  12.289  0.3099  0.0171  0.4055
36651SOL    HW117193   9.895   6.287  12.238 -0.7959  0.3740 -1.4595
36651SOL    HW217194   9.823   6.285  12.371  3.2545  0.3132  0.9153
36652SOL     OW17195   8.251   3.341  10.869  0.0832  0.3429  0.3929
36652SOL    HW117196   8.288   3.394  10.940 -1.9826  0.8580  1.1531
36652SOL    HW217197   8.221   3.261  10.912 -0.5809  0.3756 -0.0017
36653SOL     OW17198   7.985   1.708   9.893 -0.7631 -0.0254  0.2934
36653SOL    HW117199   7.945   1.698   9.807 -2.5054 -1.6728  1.2525
36653SOL    HW217200   8.051   1.639   9.897  0.4838  1.0774 -0.2914
36654SOL     OW17201   3.179  11.959  10.811  0.2176 -0.0538  0.1581
36654SOL    HW117202   3.145  11.965  10.722 -0.0886  0.8121  0.3308
36654SOL    HW217203   3.112  11.911  10.859 -0.2816  0.7121  0.2444
36655SOL     OW17204   1.071   5.509   7.326  0.0500 -0.6670 -0.5431
36655SOL    HW117205   1.021   5.589   7.341  0.1223 -0.4611 -1.3257
36655SOL    HW217206   1.012   5.452   7.276 -0.1868 -1.3184  0.4626
36656SOL     OW17207   8.561   0.442   3.295  0.0549  0.2224  0.2506
36656SOL    HW117208   8.487   0.432   3.235 -1.7486  1.4720  2.1596
36656SOL    HW217209   8.623   0.496   3.246 -1.7825  2.0129 -0.2395
36657SOL     OW17210   9.285   6.513   8.450 -0.3678  0.0532 -0.5026
36657SOL    HW117211   9.342   6.575   8.406  1.0401 -0.9931 -0.2383
36657SOL    HW217212   9.332   6.491   8.531 -1.6727 -0.0266  0.2669
36658SOL     OW17213   3.555   5.301   6.578  0.6068  0.4116 -0.2416
36658SOL    HW117214   3.554   5.362   6.505 -0.9737 -0.5835 -1.1013
36658SOL    HW217215   3.561   5.357   6.656  2.2928  1.4825 -1.0886
36659SOL     OW17216   1.783   3.234  11.668 -0.0480 -0.3519  0.0415
36659SOL    HW117217   1.702   3.193  11.699  0.8034 -2.1439  0.0541
36659SOL    HW217218   1.845   3.220  11.739  0.3403  0.8653 -0.0371
36660SOL     OW17219   1.077  12.570   3.291  0.1437  0.4074  0.5066
36660SOL    HW117220   1.065  12.657   3.253  0.1145  0.5997  0.9535
36660SOL    HW217221   0.988  12.535   3.299  0.1772  0.2198  0.0537
36661SOL     OW17222   1.497   7.845  10.456  0.2521 -0.4400 -0.5880
36661SOL    HW117223   1.540   7.765  10.484 -0.0088 -0.0508  1.0709
36661SOL    HW217224   1.429   7.817  10.395  0.0500 -1.4921  0.1089
36662SOL     OW17225   6.956   0.284   7.189  0.2209  0.0198 -0.5046
36662SOL    HW117226   6.941   0.377   7.176  1.6818  1.0044  3.4885
36662SOL    HW217227   6.869   0.247   7.201 -0.3483  0.8623 -1.7775
36663SOL     OW17228  10.769   5.538   3.094 -0.4992  0.0084 -0.1126
36663SOL    HW117229  10.845   5.597   3.089 -0.8209  0.3430 -2.4953
36663SOL    HW217230  10.779   5.482   3.017 -1.2027 -1.8501  1.0918
36664SOL     OW17231   6.073   7.423   8.891  0.3458 -0.3849  0.0477
36664SOL    HW117232   6.037   7.494   8.944 -0.1859 -1.0245  0.5598
36664SOL    HW217233   6.161   7.453   8.867 -0.2264  0.8703 -0.5795
36665SOL     OW17234   7.033   4.024  10.326 -0.3759 -0.0416 -0.2181
36665SOL    HW117235   7.075   4.110  10.319  1.1649 -0.4499  2.3608
36665SOL    HW217236   7.067   3.974  10.253 -1.5713  1.5784 -1.9788
36666SOL     OW17237   4.276   2.902  11.715  0.0205 -0.1765  0.3580
36666SOL    HW117238   4.259   2.808  11.728 -0.3423 -0.1535  0.0551
36666SOL    HW217239   4.245   2.943  11.796  0.4785 -0.3518  0.6263
36667SOL     OW17240   2.968   7.263   8.507  0.3364 -0.1775  0.3427
36667SOL    HW117241   3.054   7.222   8.501 -0.1056 -1.3573  1.4854
36667SOL    HW217242   2.910   7.202   8.460 -0.0215  0.1444  0.3646
36668SOL     OW17243   6.092   7.688   2.454 -0.1909 -0.1732 -0.1960
36668SOL    HW117244   6.130   7.759   2.402 -0.4490 -1.0238 -1.6014
36668SOL    HW217245   6.000   7.713   2.465 -0.3392 -0.4011 -0.8956
36669SOL     OW17246  11.873   9.381   3.866 -0.8728 -0.0545  0.5349
36669SOL    HW117247  11.874   9.379   3.961  1.2012  1.3830  0.6098
36669SOL    HW217248  11.794   9.430   3.843 -1.3389 -0.3397  1.4801
36670SOL     OW17249  10.168   8.781   3.928  0.4814  0.2833  0.3471
36670SOL    HW117250  10.163   8.755   3.836  0.4901  0.6938  0.2250
36670SOL    HW217251  10.223   8.715   3.969  2.1673  1.1796 -0.3727
36671SOL     OW17252  10.646  10.618  12.126 -0.2058  0.4094 -0.0707
36671SOL    HW117253  10.740  10.601  12.125 -0.2722 -0.3476  1.9874
36671SOL    HW217254  10.615  10.591  12.039  1.1403 -1.4892 -0.0092
36672SOL     OW17255   2.959   3.889   9.710 -0.7683  0.6338  0.2384
36672SOL    HW117256   2.917   3.952   9.768  2.6995  0.9419  2.7074
36672SOL    HW217257   2.901   3.886   9.633 -4.0862  2.4101  2.3908
36673SOL     OW17258   4.539   0.318   6.537 -0.5745 -0.2123 -0.6373
36673SOL    HW117259   4.481   0.362   6.599 -0.2398 -0.0414 -0.4366
36673SOL    HW217260   4.623   0.313   6.583 -0.6555 -1.2355 -0.5844
36674SOL     OW17261   1.896   8.122   7.372  0.5695 -0.0565  0.1875
36674SOL    HW117262   1.904   8.159   7.285  0.9902  1.2564  0.7661
36674SOL    HW217263   1.862   8.193   7.426  0.8864 -0.6682  1.2249
36675SOL     OW17264   4.268   8.431   9.591  0.5545 -0.2337 -0.5013
36675SOL    HW117265   4.251   8.417   9.684  1.5278  0.9733 -0.1275
36675SOL    HW217266   4.347   8.381   9.573  0.4587 -0.3343 -0.6493
36676SOL     OW17267  10.202   3.483   5.663  0.0015 -0.0464  0.2842
36676SOL    HW117268  10.270   3.494   5.730  1.2308 -1.1669 -0.7397
36676SOL    HW217269  10.230   3.540   5.591  0.9198 -1.8543 -0.8825
36677SOL     OW17270   7.651  10.373   2.721 -0.0372  0.2265 -0.2920
36677SOL    HW117271   7.586  10.339   2.784  0.0601 -0.3963 -0.5163
36677SOL    HW217272   7.627  10.465   2.709 -0.7741  0.0497 -0.2366
36678SOL     OW17273   8.959   9.717   3.016  0.3137  0.2320  0.5898
36678SOL    HW117274   9.054   9.726   3.007  0.2433  2.2927  1.3237
36678SOL    HW217275   8.926   9.718   2.927  1.0234 -1.3445  0.2875
36679SOL     OW17276   8.943   7.433   9.132  0.0249  0.2023 -0.0306
36679SOL    HW117277   8.849   7.453   9.135  0.2212  1.0411  0.9725
36679SOL    HW217278   8.962   7.395   9.217  0.7243  0.6604  0.0249
36680SOL     OW17279   4.382   2.794   7.829 -0.6594  0.2823 -0.0788
36680SOL    HW117280   4.294   2.755   7.829 -0.9490  0.9245 -0.1934
36680SOL    HW217281   4.415   2.778   7.740 -0.5780 -0.1313  0.0231
36681SOL     OW17282   4.252  12.418   1.551  0.1438  0.0113 -0.1718
36681SOL    HW117283   4.327  12.469   1.522  1.1228 -1.0719  0.3882
36681SOL    HW217284   4.279  12.381   1.635 -1.4638  0.5459  0.6289
36682SOL     OW17285   5.008   6.631   2.946  0.8029 -0.4681  0.4626
36682SOL    HW117286   5.064   6.670   2.879 -1.4520 -0.5371 -1.6015
36682SOL    HW217287   5.049   6.655   3.029  2.9246  0.8746 -0.8929
36683SOL     OW17288   9.236   8.284   3.659 -0.4345  0.4251 -0.0979
36683SOL    HW117289   9.302   8.237   3.710 -2.5732 -2.0679  0.5742
36683SOL    HW217290   9.231   8.235   3.576 -1.4114  0.5850 -0.1407
36684SOL     OW17291   9.043   9.285  11.168  0.1921 -0.3196  0.1081
36684SOL    HW117292   9.136   9.261  11.168  0.1296 -0.5770  1.0283
36684SOL    HW217293   9.034   9.348  11.239  0.1360  1.6670 -1.5780
36685SOL     OW17294  10.090   7.141   2.043 -0.3629 -0.4856  0.3297
36685SOL    HW117295  10.040   7.071   2.002 -0.7885 -1.4716  2.4084
36685SOL    HW217296  10.053   7.150   2.131 -0.6430  2.7015  0.0153
36686SOL     OW17297   1.314  11.660   4.048  0.7400  0.0931  0.0690
36686SOL    HW117298   1.260  11.614   4.114 -0.9931  0.9492 -0.6892
36686SOL    HW217299   1.384  11.598   4.028 -0.5429 -1.5243  0.3463
36687SOL     OW17300   4.452   3.347   4.114  0.0830  0.3784  0.4081
36687SOL    HW117301   4.536   3.334   4.158 -0.9130  0.7802  2.5649
36687SOL    HW217302   4.392   3.286   4.158 -0.7107 -0.1802 -1.3386
36688SOL     OW17303   7.735   3.907   0.770  0.3251 -0.2464  0.1386
36688SOL    HW117304   7.796   3.981   0.774  0.2907 -0.2364  0.5157
36688SOL    HW217305   7.761   3.850   0.843  0.0029 -0.3378  0.1839
36689SOL     OW17306   1.453  12.230  11.985  0.7850 -0.1105 -0.4532
36689SOL    HW117307   1.397  12.307  11.980  2.4532  1.1686 -0.5959
36689SOL    HW217308   1.488  12.221  11.896  1.7312 -0.1138 -0.0905
36690SOL     OW17309   2.674   2.657   0.767 -0.0897 -0.0834 -1.0029
36690SOL    HW117310   2.626   2.696   0.694 -0.0299 -1.6654 -1.9421
36690SOL    HW217311   2.635   2.570   0.777 -0.8839  0.4652  1.6386
36691SOL     OW17312   4.220   7.161   9.074 -0.5006  0.0339 -0.5602
36691SOL    HW117313   4.196   7.069   9.066  2.0471 -0.7011 -0.5964
36691SOL    HW217314   4.254   7.170   9.164 -0.4463  0.8526 -0.6523
36692SOL     OW17315   1.744  11.277   5.019 -0.0675  0.2503  0.3751
36692SOL    HW117316   1.700  11.210   4.966 -0.8453  0.8951  0.1715
36692SOL    HW217317   1.685  11.353   5.014  0.3720  0.6635  1.3032
36693SOL     OW17318   1.954   0.874  11.575 -0.0691  0.2631 -0.0210
36693SOL    HW117319   2.050   0.873  11.573 -0.0538 -1.2479  0.2126
36693SOL    HW217320   1.928   0.811  11.507 -0.9314  1.2302 -0.6244
36694SOL     OW17321  10.010   3.490  10.952  0.0056  0.4068  0.1898
36694SOL    HW117322   9.989   3.400  10.927 -3.7609  0.9907  0.6529
36694SOL    HW217323  10.044   3.482  11.041 -0.8811 -0.5401  0.4661
36695SOL     OW17324  12.647   0.539   2.126  0.5393 -0.1045 -0.0075
36695SOL    HW117325  12.624   0.494   2.045 -0.5859 -0.4774  0.4884
36695SOL    HW217326  12.665   0.469   2.188 -1.0078  0.0794  0.7110
36696SOL     OW17327   8.847   2.575   0.380  0.1997  0.1494 -0.7204
36696SOL    HW117328   8.763   2.610   0.348 -1.1081 -2.7663 -0.8190
36696SOL    HW217329   8.902   2.572   0.302 -0.4689 -0.1525 -1.1975
36697SOL     OW17330  10.392  11.297  11.110  0.6149 -0.1150  0.0947
36697SOL    HW117331  10.488  11.301  11.106  0.7717 -1.7547  1.3344
36697SOL    HW217332  10.371  11.302  11.203 -0.4097 -1.3289 -0.0505
36698SOL     OW17333  12.306   3.845   1.648  0.1480 -0.6168 -0.4203
36698SOL    HW117334  12.356   3.805   1.577  1.7023  0.4432  0.0221
36698SOL    HW217335  12.224   3.872   1.607  0.2930 -1.6056 -1.3958
36699SOL     OW17336   3.328   8.338  11.925  0.0866  0.7015  0.2316
36699SOL    HW117337   3.239   8.374  11.924 -0.7347 -1.1187  1.9373
36699SOL    HW217338   3.320   8.257  11.974  2.9162  0.9973  1.3228
36700SOL     OW17339   1.558  12.135   6.844  0.5376  0.0723 -0.1802
36700SOL    HW117340   1.565  12.132   6.940 -1.3360 -0.2491 -0.0079
36700SOL    HW217341   1.648  12.135   6.813  1.2350 -2.3237  1.5297
36701SOL     OW17342   5.304   9.489   3.571  0.2570 -0.1599  0.4181
36701SOL    HW117343   5.232   9.489   3.507 -0.0206 -1.2334  0.7137
36701SOL    HW217344   5.370   9.546   3.532 -0.1487 -0.3300 -0.5546
36702SOL     OW17345  11.391   0.729  10.950 -0.1146  0.0328 -0.1699
36702SOL    HW117346  11.347   0.687  10.876  0.0070  0.7108 -0.6392
36702SOL    HW217347  11.320   0.749  11.012 -0.1788 -0.7981  0.0379
36703SOL     OW17348   4.028   8.693   5.243  0.7253 -0.3102  0.0647
36703SOL    HW117349   3.963   8.649   5.189 -0.5874  0.3208  1.0792
36703SOL    HW217350   4.060   8.765   5.188  0.2658 -0.3848 -0.3083
36704SOL     OW17351   8.978   8.263   4.161 -0.3061 -0.4426  0.1937
36704SOL    HW117352   9.006   8.350   4.190 -2.0098  0.5774 -1.0505
36704SOL    HW217353   8.937   8.224   4.238 -0.0551  0.0821  0.5967
36705SOL     OW17354   2.706   4.631   0.369 -0.0124  0.4684  0.2649
36705SOL    HW117355   2.724   4.706   0.313 -0.5173 -0.9588 -1.9377
36705SOL    HW217356   2.634   4.585   0.325  0.3735 -1.3775  1.4386
36706SOL     OW17357   2.768   0.407  11.053  0.6436 -0.4997 -0.3438
36706SOL    HW117358   2.674   0.404  11.031  0.3980  0.5008  0.5065
36706SOL    HW217359   2.774   0.472  11.123  1.9006 -0.9870  0.0273
36707SOL     OW17360   8.884   1.473   5.051  0.1650  0.4023 -0.0949
36707SOL    HW117361   8.860   1.449   5.140 -2.3310  1.7560 -0.3233
36707SOL    HW217362   8.908   1.390   5.010 -0.0361 -0.4455  1.4128
36708SOL     OW17363   5.980   0.509   4.282  0.1397  0.6803 -0.5971
36708SOL    HW117364   6.019   0.431   4.241  0.6195  1.1678 -1.0917
36708SOL    HW217365   6.020   0.583   4.235  0.1567  1.2401  0.2814
36709SOL     OW17366   7.119   9.601   5.977 -0.2228 -0.0946 -0.5043
36709SOL    HW117367   7.112   9.510   5.951 -2.2051 -0.2694  0.4730
36709SOL    HW217368   7.029   9.635   5.973  0.2401  1.3958  0.5768
36710SOL     OW17369   7.378   3.032   3.109 -0.0025  0.2714 -0.5837
36710SOL    HW117370   7.462   3.067   3.079 -0.1593  1.5739  0.4493
36710SOL    HW217371   7.389   2.937   3.102  1.3819  0.4294 -0.9326
36711SOL     OW17372  10.600   5.978  10.238  0.1490  0.0910 -0.6022
36711SOL    HW117373  10.608   6.073  10.228 -0.2744  0.1164 -0.7148
36711SOL    HW217374  10.606   5.944  10.149  0.2545  0.0136 -0.5660
36712SOL     OW17375   4.172   6.231   6.127 -0.7617 -0.2430  0.1771
36712SOL    HW117376   4.242   6.290   6.102 -0.1600 -1.2957 -0.6921
36712SOL    HW217377   4.092   6.283   6.118 -0.1950  0.6123  0.0413
36713SOL     OW17378  10.381   5.889   6.364  0.4912 -0.0340 -0.5353
36713SOL    HW117379  10.400   5.841   6.282 -0.1592  0.6744 -1.1126
36713SOL    HW217380  10.461   5.939   6.380 -0.0967  1.4247 -1.8910
36714SOL     OW17381   7.631   9.332  10.550 -0.4700 -0.3283  0.3526
36714SOL    HW117382   7.612   9.372  10.465 -1.9368 -3.5714 -1.0109
36714SOL    HW217383   7.553   9.349  10.603  1.2384  3.4849  1.9910
36715SOL     OW17384   9.461   7.870   9.471 -0.2160 -0.0531  0.0907
36715SOL    HW117385   9.477   7.944   9.412  0.1399 -1.8989 -2.2786
36715SOL    HW217386   9.378   7.833   9.441 -0.7730 -0.2003  1.7273
36716SOL     OW17387   4.034   7.913   0.070 -0.5505  0.3612  0.8063
36716SOL    HW117388   3.998   7.953  -0.008  1.7157 -1.8065 -1.5428
36716SOL    HW217389   4.077   7.986   0.117 -0.5557  1.4577 -0.8221
36717SOL     OW17390   8.430   8.997   4.962  0.3173 -0.1219 -0.8514
36717SOL    HW117391   8.508   9.018   5.012 -1.7027  2.0071  1.6773
36717SOL    HW217392   8.413   9.075   4.910  0.0558 -0.7285 -1.7111
36718SOL     OW17393   7.683   7.967   7.682  0.2945  0.1182 -0.1257
36718SOL    HW117394   7.768   8.011   7.682 -0.2681  1.4430  2.9078
36718SOL    HW217395   7.673   7.933   7.771 -0.8661 -3.2270 -1.3684
36719SOL     OW17396   1.581   0.857  10.833  0.1424 -0.8724 -0.3882
36719SOL    HW117397   1.508   0.918  10.823  0.2105 -0.8763 -0.9337
36719SOL    HW217398   1.544   0.771  10.811  0.5219 -0.7519 -1.5705
36720SOL     OW17399   1.250  10.016   5.554  0.2508 -0.1672 -0.2443
36720SOL    HW117400   1.188   9.966   5.606  0.8826  0.2358  0.9255
36720SOL    HW217401   1.278   9.955   5.485  1.6812 -1.7873  1.6610
36721SOL     OW17402  11.547   8.182   2.741 -0.1046  0.1302 -0.7155
36721SOL    HW117403  11.509   8.268   2.756  0.5837  0.4116 -0.5156
36721SOL    HW217404  11.528   8.132   2.820  1.4758  0.8494  0.1572
36722SOL     OW17405  11.973   3.974   4.841 -0.0965 -0.2937 -0.1788
36722SOL    HW117406  12.021   3.990   4.760  0.4818 -1.5753 -0.1060
36722SOL    HW217407  11.881   3.981   4.817  0.0638  1.8643 -0.3913
36723SOL     OW17408   4.521   0.469   9.513 -0.0307 -0.3396 -0.1659
36723SOL    HW117409   4.605   0.423   9.509 -0.1740 -0.7532  1.1111
36723SOL    HW217410   4.484   0.459   9.426  0.0918 -2.3823 -0.0340
36724SOL     OW17411  11.540   4.530   7.233 -0.2970 -0.0864 -0.1171
36724SOL    HW117412  11.531   4.625   7.231 -0.0618 -0.0158  1.0503
36724SOL    HW217413  11.480   4.502   7.303  1.3070 -0.5485  1.1321
36725SOL     OW17414   6.745   0.069   7.495  0.1459 -0.0976  0.0153
36725SOL    HW117415   6.826   0.060   7.546 -0.2610 -0.7743  0.5602
36725SOL    HW217416   6.675   0.049   7.557 -0.5455  1.7479 -0.1090
36726SOL     OW17417   4.262   8.351   2.649  1.3135 -0.0897 -0.1016
36726SOL    HW117418   4.241   8.417   2.583  0.0549  0.4275  0.8017
36726SOL    HW217419   4.281   8.272   2.597 -0.3949  0.1012 -1.0724
36727SOL     OW17420   4.765   6.990   0.205 -0.5031  0.1596  0.4472
36727SOL    HW117421   4.861   6.992   0.204 -0.2704 -2.6251 -2.7051
36727SOL    HW217422   4.743   6.949   0.288  1.2582 -1.3332  0.2615
36728SOL     OW17423   5.583   4.186   5.945 -0.3935 -0.4191  0.6511
36728SOL    HW117424   5.563   4.145   6.029 -1.9157 -0.7531  0.1558
36728SOL    HW217425   5.541   4.272   5.948 -0.3646 -0.3860  0.2643
36729SOL     OW17426  11.200   0.965   5.737  0.3839 -0.6834 -0.1817
36729SOL    HW117427  11.225   1.056   5.719 -0.3117 -0.6636 -1.1039
36729SOL    HW217428  11.270   0.913   5.697  1.4621 -0.5543  1.4568
36730SOL     OW17429   5.722   1.531   9.008  0.0890  0.2700 -0.0633
36730SOL    HW117430   5.651   1.587   9.039 -0.3324  0.4099 -1.2340
36730SOL    HW217431   5.678   1.456   8.969  0.6425 -0.7335  1.1527
36731SOL     OW17432   3.305  10.869   8.439  0.1048  0.7246 -0.1684
36731SOL    HW117433   3.378  10.877   8.500  0.9997 -1.2253 -0.9081
36731SOL    HW217434   3.240  10.817   8.487 -0.0397  0.9030 -0.1681
36732SOL     OW17435   4.943  11.733   9.513  0.0045 -0.0242 -0.1638
36732SOL    HW117436   4.987  11.813   9.542 -0.6074  0.1020  0.4527
36732SOL    HW217437   4.940  11.677   9.591  0.3537 -0.6241 -0.5672
36733SOL     OW17438   5.027   1.148   8.215  0.2342 -0.7044  0.2842
36733SOL    HW117439   4.995   1.187   8.134  1.6548 -0.5988 -0.2653
36733SOL    HW217440   5.122   1.139   8.201  0.6095 -0.1064  2.1631
36734SOL     OW17441  12.253   9.735  12.327 -0.3297  0.2836  0.4048
36734SOL    HW117442  12.202   9.785  12.264 -0.5438  1.0446  1.1692
36734SOL    HW217443  12.193   9.721  12.401 -0.0684 -0.5498  0.4721
36735SOL     OW17444   9.016   6.114  10.458  0.2488  0.1159  0.4381
36735SOL    HW117445   9.063   6.046  10.409 -0.0546 -0.1707  0.5452
36735SOL    HW217446   9.085   6.163  10.503  0.4495 -0.2859  0.5718
36736SOL     OW17447   3.864   2.730   4.412  0.2454  0.0177  0.1358
36736SOL    HW117448   3.926   2.729   4.339  0.6954 -0.2096  0.5152
36736SOL    HW217449   3.818   2.646   4.406 -0.0959  0.2264 -0.2020
36737SOL     OW17450  11.065  11.437   3.505  0.2704  0.2954  0.1474
36737SOL    HW117451  11.056  11.437   3.410  0.0556 -1.4344  0.1361
36737SOL    HW217452  11.159  11.443   3.521  0.4282 -0.8989 -0.2304
36738SOL     OW17453   3.790   0.522   4.938 -0.1367  0.3487  0.4064
36738SOL    HW117454   3.794   0.478   4.853  0.7602 -1.8250  1.4986
36738SOL    HW217455   3.880   0.550   4.955  0.1644 -1.1968  1.5647
36739SOL     OW17456   9.749  10.364   1.738  0.1232  0.0833  0.1150
36739SOL    HW117457   9.700  10.446   1.739 -0.3770 -0.1978  2.0634
36739SOL    HW217458   9.769  10.347   1.830  0.2464 -1.9581 -0.2512
36740SOL     OW17459   1.395   7.862   0.550 -0.1999 -0.2184  0.3785
36740SOL    HW117460   1.398   7.833   0.641 -0.0023 -0.9775  0.1347
36740SOL    HW217461   1.485   7.889   0.530 -0.5177  1.2817  0.8166
36741SOL     OW17462   5.445   0.666  11.962 -0.5856  0.6951 -0.1740
36741SOL    HW117463   5.455   0.715  12.043 -0.1990  1.2520 -0.5559
36741SOL    HW217464   5.411   0.729  11.899 -4.0197 -0.4339  0.3237
36742SOL     OW17465   5.312   2.232   9.828  0.1971 -0.1722 -0.2478
36742SOL    HW117466   5.347   2.311   9.868 -0.4258 -0.4799  0.9371
36742SOL    HW217467   5.293   2.257   9.737  3.0068  0.1300 -0.8275
36743SOL     OW17468   9.855   8.334  11.050  0.2969 -0.0159  0.2414
36743SOL    HW117469   9.861   8.280  10.971  0.7685  0.2323  0.1047
36743SOL    HW217470   9.762   8.336  11.071  0.3018 -1.1402  0.4291
36744SOL     OW17471   5.932   3.269   7.915  0.3816 -0.2248 -0.1813
36744SOL    HW117472   5.986   3.278   7.993 -0.0493  0.7767  0.0099
36744SOL    HW217473   5.844   3.249   7.949 -0.1638  1.7681 -0.3094
36745SOL     OW17474   6.016  12.580   3.297 -0.2954  0.0682 -0.3361
36745SOL    HW117475   5.942  12.633   3.269 -1.0425  0.5827  2.2866
36745SOL    HW217476   6.092  12.620   3.256 -1.0969  1.7900 -0.2160
36746SOL     OW17477   3.612   8.101   2.103  0.2655  0.5430 -0.1047
36746SOL    HW117478   3.608   8.193   2.129  1.5931  1.1620 -1.8470
36746SOL    HW217479   3.658   8.102   2.019  0.8291 -1.7836  0.1042
36747SOL     OW17480   2.907   2.183   5.242  0.1400 -0.6092  0.2066
36747SOL    HW117481   2.832   2.129   5.220  1.2737 -2.5039  0.7807
36747SOL    HW217482   2.981   2.144   5.195  0.9460  0.6667  0.3373
36748SOL     OW17483   7.965  11.566   1.166 -0.0998 -0.2359 -0.2761
36748SOL    HW117484   7.936  11.522   1.246  0.4125  0.3878  0.2661
36748SOL    HW217485   7.892  11.557   1.106 -0.9046  0.1706  0.6185
36749SOL     OW17486  10.400  11.877   4.505  0.6043  0.2377  0.4796
36749SOL    HW117487  10.392  11.924   4.588  0.6364 -0.3998  0.8526
36749SOL    HW217488  10.355  11.933   4.441  2.7934  1.9929  0.3832
36750SOL     OW17489  10.140   1.594   6.970  0.0268  0.0710 -0.0876
36750SOL    HW117490  10.124   1.554   6.885  1.5821 -0.3329 -0.2152
36750SOL    HW217491  10.089   1.675   6.969  0.6131  0.4454 -1.7049
36751SOL     OW17492   4.572   9.160  12.000  0.6025 -0.5551  0.3051
36751SOL    HW117493   4.630   9.226  12.039  1.4617 -0.7823 -0.5507
36751SOL    HW217494   4.530   9.205  11.927 -1.7015  0.1474  1.9355
36752SOL     OW17495   3.370   2.727  10.666  0.5971 -0.2290  0.2427
36752SOL    HW117496   3.328   2.641  10.676  1.6314 -0.6915  0.7243
36752SOL    HW217497   3.339   2.758  10.580 -0.0902 -0.9044  0.2292
36753SOL     OW17498   3.464   0.583   8.579  0.0974  0.1732  0.0056
36753SOL    HW117499   3.397   0.615   8.639  0.9558  1.0840  0.5079
36753SOL    HW217500   3.442   0.622   8.495  1.9358  3.5105  0.8690
36754SOL     OW17501   9.895   9.736  10.058  0.5844 -0.4155 -0.2231
36754SOL    HW117502   9.954   9.738  10.134  0.2989 -1.1297  0.0194
36754SOL    HW217503   9.913   9.653  10.015 -0.4577 -0.7772  0.0230
36755SOL     OW17504   3.675   0.867   7.215  0.4259  0.3121 -0.1104
36755SOL    HW117505   3.750   0.815   7.186 -1.2207 -1.4591 -1.4613
36755SOL    HW217506   3.626   0.885   7.134 -1.0524  0.6518  0.8248
36756SOL     OW17507   9.663  11.911   9.475  0.4629  0.1571 -0.2864
36756SOL    HW117508   9.600  11.872   9.415  0.5667 -0.9192  0.2839
36756SOL    HW217509   9.638  12.003   9.480 -1.1525 -0.2743  0.0398
36757SOL     OW17510   7.984   6.655  10.617  0.0585 -0.0118 -0.3755
36757SOL    HW117511   8.018   6.583  10.669 -0.5964 -0.3322 -0.3754
36757SOL    HW217512   8.048   6.725  10.628  1.0568 -0.8045 -0.9154
36758SOL     OW17513   4.393  11.494   3.957 -0.6256  0.1894 -0.1758
36758SOL    HW117514   4.374  11.482   4.051 -2.6423  0.0156 -0.5556
36758SOL    HW217515   4.340  11.427   3.914 -1.1939  1.4523 -1.5307
36759SOL     OW17516   5.568   1.521  11.633  0.1832  0.5829  0.7276
36759SOL    HW117517   5.613   1.475  11.562  1.1187  1.2321  0.8798
36759SOL    HW217518   5.544   1.451  11.694 -0.9623 -0.0234 -0.3781
36760SOL     OW17519   5.657   9.455   3.864 -0.1116 -0.2104  0.1156
36760SOL    HW117520   5.753   9.462   3.865 -0.0909  0.6058 -2.2458
36760SOL    HW217521   5.632   9.461   3.956  2.0126  1.1441  0.6763
36761SOL     OW17522   0.675   5.023   9.245  0.3199 -0.1857  0.2919
36761SOL    HW117523   0.635   5.075   9.314  0.2298 -1.0564  0.9114
36761SOL    HW217524   0.746   4.975   9.289  0.5639 -0.3998 -0.3180
36762SOL     OW17525   2.373   6.842   3.719  0.3924 -0.2615 -0.1460
36762SOL    HW117526   2.287   6.843   3.678  0.4140  0.1442 -0.1898
36762SOL    HW217527   2.434   6.861   3.648  0.4737 -0.0588 -0.0240
36763SOL     OW17528   4.199   5.416   4.869 -0.4635 -0.2174  0.0985
36763SOL    HW117529   4.269   5.459   4.919 -0.9016 -0.3893  0.8864
36763SOL    HW217530   4.136   5.389   4.936 -1.5379  0.3995 -0.6377
36764SOL     OW17531   0.126  11.917   2.006 -0.4955  0.4766  0.4767
36764SOL    HW117532   0.097  11.902   1.916  1.0131  1.2288 -0.1782
36764SOL    HW217533   0.186  11.845   2.024 -0.0572  0.8469  0.5187
36765SOL     OW17534   0.347   0.825  12.284 -0.0761  0.4443 -0.0938
36765SOL    HW117535   0.342   0.854  12.375  0.2423  2.7765 -0.7497
36765SOL    HW217536   0.421   0.765  12.282  1.1499  1.8418  0.8724
36766SOL     OW17537   4.110   6.796   8.867  0.3822  0.3933  0.2604
36766SOL    HW117538   4.146   6.878   8.835  1.5602 -0.0561  0.3774
36766SOL    HW217539   4.070   6.755   8.790 -0.7056  1.3031  0.3123
36767SOL     OW17540  10.493  11.796  12.054  0.4921 -0.2449  0.1744
36767SOL    HW117541  10.518  11.711  12.092  1.7561  0.3195  0.6783
36767SOL    HW217542  10.490  11.780  11.960  1.0506 -0.7925  0.2374
36768SOL     OW17543   5.841   2.558  11.468  0.6509  0.2338 -0.3640
36768SOL    HW117544   5.924   2.516  11.447  0.8308 -0.2476  1.2190
36768SOL    HW217545   5.863   2.625  11.532 -0.2874 -0.5564  0.8304
36769SOL     OW17546   7.164   1.261   0.180 -0.5647  0.4528  0.3093
36769SOL    HW117547   7.103   1.329   0.210  1.0786  1.8462  0.6187
36769SOL    HW217548   7.241   1.272   0.234  0.8032  0.1250 -1.4893
36770SOL     OW17549   6.932  10.590   1.435  0.6463 -0.1427  0.3174
36770SOL    HW117550   6.926  10.658   1.502 -0.1137 -1.4695  1.6624
36770SOL    HW217551   6.851  10.598   1.385  0.5848 -0.0205  0.4369
36771SOL     OW17552   5.360  12.034   2.254 -0.5411 -0.2446 -0.2670
36771SOL    HW117553   5.422  12.103   2.278 -0.4117 -0.8812  1.4102
36771SOL    HW217554   5.376  12.019   2.161  1.0295  0.4052 -0.1435
36772SOL     OW17555   7.561   5.448   5.009  0.1829 -0.3901  0.5177
36772SOL    HW117556   7.556   5.530   5.057 -0.0248  0.4987 -0.9589
36772SOL    HW217557   7.474   5.438   4.969  0.4562 -0.9092  0.0294
36773SOL     OW17558  11.717  12.128   1.705  0.1234  0.2822 -0.2201
36773SOL    HW117559  11.739  12.167   1.790  2.0488  1.2614 -1.0942
36773SOL    HW217560  11.639  12.075   1.722 -1.3688  2.7942  1.5415
36774SOL     OW17561   9.993   5.347  10.610 -0.4722  0.1790  1.2142
36774SOL    HW117562  10.083   5.336  10.640 -0.0738  0.3900  0.1164
36774SOL    HW217563   9.989   5.299  10.527 -1.4381 -0.0308  1.3663
36775SOL     OW17564   9.121   5.096   3.813  0.8177  0.0839 -0.6062
36775SOL    HW117565   9.081   5.183   3.819  1.3488  0.3372 -0.6690
36775SOL    HW217566   9.062   5.040   3.863  0.0919  0.3369 -1.1468
36776SOL     OW17567   2.127   5.354  10.448  0.0444  0.2072  0.1145
36776SOL    HW117568   2.062   5.385  10.511  0.1595  1.0510 -0.1760
36776SOL    HW217569   2.112   5.259  10.443  0.0009  0.1388  1.3586
36777SOL     OW17570   7.040  10.327   6.039  0.5729  0.3952 -0.2282
36777SOL    HW117571   7.097  10.274   6.095 -1.1536 -0.1242  1.1735
36777SOL    HW217572   7.065  10.304   5.950  1.7639 -0.6512  0.3409
36778SOL     OW17573   0.494  10.774   1.997  0.3197 -0.2401  0.0831
36778SOL    HW117574   0.487  10.736   2.085 -1.7311 -1.1325 -0.3907
36778SOL    HW217575   0.587  10.788   1.984  0.8202 -1.5814  1.7886
36779SOL     OW17576   6.256   5.426   5.040  0.8256  0.1474  0.0300
36779SOL    HW117577   6.262   5.440   5.134  0.5010  1.1597 -0.0858
36779SOL    HW217578   6.176   5.376   5.028  0.4387  0.6985  0.2426
36780SOL     OW17579   9.905   4.560   0.679  0.6771 -0.2719  0.2025
36780SOL    HW117580   9.952   4.492   0.630  0.1189  1.1841 -2.5152
36780SOL    HW217581   9.830   4.514   0.717 -0.4271 -1.0701 -2.6635
36781SOL     OW17582   6.899   8.665   9.076 -1.0471 -0.1196  0.1863
36781SOL    HW117583   6.972   8.660   9.138 -1.2247 -1.3561  0.3140
36781SOL    HW217584   6.847   8.739   9.108  0.0445  0.6805  0.1868
36782SOL     OW17585   8.151   4.863   1.284  0.2802  1.0504 -0.4187
36782SOL    HW117586   8.224   4.922   1.306 -0.5036  1.3768  1.5553
36782SOL    HW217587   8.077   4.897   1.335 -0.4052 -1.1715  0.1930
36783SOL     OW17588   7.958   8.919   5.177 -0.4580 -0.1155  0.8539
36783SOL    HW117589   8.015   8.873   5.239 -0.1500 -1.4708 -0.4070
36783SOL    HW217590   8.014   8.940   5.103 -0.7937  1.6276  1.0435
36784SOL     OW17591   1.297   6.986   0.208 -0.4250  0.5965 -0.7826
36784SOL    HW117592   1.352   7.026   0.141  2.4299 -0.7165  0.5909
36784SOL    HW217593   1.315   6.892   0.200 -1.1019  0.2918  0.8711
36785SOL     OW17594   6.193   6.567   6.546 -0.7055  0.1818  0.5577
36785SOL    HW117595   6.275   6.616   6.558 -1.1281  0.5287  2.2205
36785SOL    HW217596   6.139   6.592   6.621 -1.2217 -2.2663  1.0850
36786SOL     OW17597  10.477   1.880   9.296  0.0984 -0.5248  0.0375
36786SOL    HW117598  10.563   1.911   9.325 -0.0942  2.7031 -2.2340
36786SOL    HW217599  10.424   1.878   9.375  1.0708  2.1811  0.8696
36787SOL     OW17600   6.452   6.520   1.034 -0.1004  0.5473  0.1987
36787SOL    HW117601   6.421   6.471   0.958 -1.2201  0.6192  0.5821
36787SOL    HW217602   6.545   6.534   1.018 -0.0792 -0.4139 -0.6174
36788SOL     OW17603   5.377  11.358  10.546  0.5344  0.4361 -0.2397
36788SOL    HW117604   5.396  11.272  10.584  1.3448  0.6019 -0.2538
36788SOL    HW217605   5.373  11.416  10.622  0.6512  0.5051 -0.2871
36789SOL     OW17606   5.034  10.434  11.372 -0.2538  0.4045 -0.3318
36789SOL    HW117607   4.991  10.402  11.292 -1.3259  0.3061  0.2660
36789SOL    HW217608   5.069  10.519  11.348 -0.7505  0.4702 -0.8551
36790SOL     OW17609   6.812   2.121   3.398  0.1379  0.1600  0.3832
36790SOL    HW117610   6.842   2.200   3.442  3.7984  0.6336 -2.4723
36790SOL    HW217611   6.888   2.064   3.396 -0.3517 -0.6241 -3.3154
36791SOL     OW17612   2.947  12.085   8.524 -0.2930 -0.5683 -0.0315
36791SOL    HW117613   2.881  12.122   8.583  1.1860 -1.2182  2.1537
36791SOL    HW217614   2.950  11.992   8.546  0.1947 -0.8756 -1.2816
36792SOL     OW17615   3.835   4.648  10.545  0.7645 -0.2221  0.5110
36792SOL    HW117616   3.897   4.642  10.618  1.5408 -1.6719 -0.2094
36792SOL    HW217617   3.752   4.618  10.582  0.3895  1.8436  1.5167
36793SOL     OW17618   9.387  12.363  11.072  0.0403 -0.1917 -0.5536
36793SOL    HW117619   9.302  12.333  11.040 -1.0245  0.3878  1.5733
36793SOL    HW217620   9.438  12.282  11.082 -0.4670 -0.6079 -1.2056
36794SOL     OW17621  10.825  11.033   0.660  0.1437  0.4374 -0.1151
36794SOL    HW117622  10.819  10.945   0.624  1.7620 -0.3221  1.3424
36794SOL    HW217623  10.824  11.091   0.583  0.8312 -0.9456 -1.2052
36795SOL     OW17624  12.164   8.085  12.534  0.0982  0.6458 -0.0044
36795SOL    HW117625  12.113   8.004  12.524  0.3481  0.6367 -1.5093
36795SOL    HW217626  12.246   8.057  12.574  0.1597  0.1393 -0.4677
36796SOL     OW17627   0.248   8.059   5.668  0.1452  0.2467 -0.6264
36796SOL    HW117628   0.313   8.107   5.719  0.0892  1.0908 -1.3420
36796SOL    HW217629   0.268   8.079   5.577  0.4473 -1.5128 -0.9800
36797SOL     OW17630   8.144  11.442   8.033 -0.2448  0.2855  0.1019
36797SOL    HW117631   8.193  11.366   8.002  1.5515  2.0284 -1.6619
36797SOL    HW217632   8.092  11.469   7.958 -1.0148  0.6821  0.7692
36798SOL     OW17633   9.841   0.129   8.924 -0.6507 -0.2209 -0.3484
36798SOL    HW117634   9.758   0.173   8.944  0.5956  1.8910  0.5555
36798SOL    HW217635   9.901   0.159   8.993  1.2022 -0.6451 -1.7006
36799SOL     OW17636   6.324  10.316  12.545 -0.1868 -0.4440  0.2135
36799SOL    HW117637   6.314  10.409  12.565 -0.8992  0.1573 -2.4762
36799SOL    HW217638   6.414  10.296  12.569 -0.2212  0.7498  1.4714
36800SOL     OW17639   6.815   2.464   1.194  0.1279 -0.0336 -0.6326
36800SOL    HW117640   6.900   2.506   1.211 -1.4403  2.7940  0.9590
36800SOL    HW217641   6.764   2.531   1.148 -1.6513 -1.2274 -0.4896
36801SOL     OW17642   8.666   1.209   4.763  0.2340  0.0342 -0.0640
36801SOL    HW117643   8.606   1.154   4.815  0.5307 -0.2108  0.0205
36801SOL    HW217644   8.639   1.195   4.673 -0.4473  0.6523  0.0309
36802SOL     OW17645  10.422   0.427   5.614 -0.4011 -0.1477 -0.3387
36802SOL    HW117646  10.331   0.433   5.583  0.0673 -3.0576 -2.6588
36802SOL    HW217647  10.416   0.376   5.694 -0.8259  0.0233 -0.2541
36803SOL     OW17648  10.549   2.543  12.445 -0.2526  0.4135  0.0507
36803SOL    HW117649  10.516   2.618  12.394  0.0376  0.6896  0.2713
36803SOL    HW217650  10.641   2.564  12.462 -0.0506 -0.1922 -0.2547
36804SOL     OW17651   3.162  11.748   2.949 -0.1894  0.5702  0.4077
36804SOL    HW117652   3.121  11.661   2.955 -0.4141  0.2875 -3.1716
36804SOL    HW217653   3.115  11.801   3.013 -1.6126 -1.3795  1.0795
36805SOL     OW17654   4.927   3.298   5.333  0.1359  0.2275 -0.7553
36805SOL    HW117655   4.870   3.368   5.303  0.3105 -0.5963 -3.1607
36805SOL    HW217656   4.996   3.292   5.267  1.4891 -0.6196  0.6596
36806SOL     OW17657  12.662  10.491   5.084  0.2991  0.7336  0.4430
36806SOL    HW117658  12.650  10.558   5.017 -0.2145  0.4948  0.2923
36806SOL    HW217659  12.734  10.437   5.051 -0.5900  0.0283 -0.4144
36807SOL     OW17660   8.852  10.095   6.124  0.2820 -0.4875  0.0211
36807SOL    HW117661   8.898  10.012   6.132  1.6990  0.3071  0.3301
36807SOL    HW217662   8.785  10.091   6.193 -0.1010 -1.6168 -0.3860
36808SOL     OW17663  11.059   7.518  10.473 -0.2470 -0.3991 -0.2730
36808SOL    HW117664  11.087   7.476  10.555  3.8546  2.1248 -0.0848
36808SOL    HW217665  11.000   7.588  10.502 -0.3137 -0.6813  0.2959
36809SOL     OW17666  11.396   3.915   7.338  0.2928 -0.4971 -0.4495
36809SOL    HW117667  11.382   3.862   7.260 -0.5681 -0.1732 -0.5293
36809SOL    HW217668  11.341   3.874   7.405  1.3401 -1.0182  0.1114
36810SOL     OW17669   7.249   6.835   9.068  0.0060  0.3486 -0.4754
36810SOL    HW117670   7.236   6.895   9.141 -1.1826  0.4714 -0.7744
36810SOL    HW217671   7.335   6.859   9.032  0.0899  1.0341  0.1646
36811SOL     OW17672  11.856  10.270   8.041  0.3548 -0.0971 -0.3264
36811SOL    HW117673  11.836  10.282   8.134  2.1504  0.9132 -0.0347
36811SOL    HW217674  11.834  10.179   8.024  0.3643 -0.4203  1.1967
36812SOL     OW17675   1.087   9.229  12.285  0.2640 -0.1939 -0.1164
36812SOL    HW117676   1.144   9.153  12.275  1.1506  0.3720  0.5064
36812SOL    HW217677   1.118   9.291  12.219  1.7845  0.9348  1.5696
36813SOL     OW17678  11.826   2.759   4.809 -0.3531  0.3977  0.0623
36813SOL    HW117679  11.810   2.667   4.828 -0.0668  0.3396  0.0366
36813SOL    HW217680  11.882   2.789   4.880 -0.1146  0.4456 -0.1426
36814SOL     OW17681   6.302   4.598   8.649 -0.3686  0.3284 -0.6124
36814SOL    HW117682   6.317   4.504   8.641  3.4631  0.6961  0.1301
36814SOL    HW217683   6.235   4.606   8.717  0.7748 -1.8804  0.9004
36815SOL     OW17684   4.705  11.390   0.454 -0.2390  0.4452  0.6204
36815SOL    HW117685   4.703  11.295   0.442  0.8605  0.4472  0.3177
36815SOL    HW217686   4.792  11.417   0.422 -1.0745  1.7379 -0.6760
36816SOL     OW17687   6.560   4.796   2.650 -0.1604  0.3101  0.1008
36816SOL    HW117688   6.467   4.792   2.670 -0.7026  1.2144 -1.9693
36816SOL    HW217689   6.582   4.707   2.621  0.4787 -0.8217  3.6098
36817SOL     OW17690  10.171   9.454   8.221 -0.4867 -0.1375  0.0810
36817SOL    HW117691  10.134   9.506   8.292 -0.4049 -1.8278  1.4401
36817SOL    HW217692  10.255   9.494   8.202 -0.8981  0.8606  0.3266
36818SOL     OW17693   8.961  10.569   8.858 -0.0947  0.2979 -0.2896
36818SOL    HW117694   9.044  10.616   8.851  0.5652 -0.9916 -2.0690
36818SOL    HW217695   8.899  10.622   8.808  0.1551  0.3135 -0.5882
36819SOL     OW17696   3.038   6.027   7.440 -0.3993 -0.1887  0.4354
36819SOL    HW117697   2.980   6.010   7.366 -0.3859 -0.2700  0.4440
36819SOL    HW217698   3.062   6.119   7.431 -1.2417  0.0952  0.9326
36820SOL     OW17699   7.009   8.051   0.232 -0.1938  0.5399  0.0491
36820SOL    HW117700   6.970   7.967   0.206 -1.3800  0.9398  0.4389
36820SOL    HW217701   7.013   8.048   0.327 -0.6241  1.0735  0.0917
36821SOL     OW17702   1.367   5.662   3.665 -0.1812 -0.0085 -0.4800
36821SOL    HW117703   1.318   5.677   3.584 -1.0500  1.4626  0.2773
36821SOL    HW217704   1.303   5.677   3.734  0.5258 -1.3217  0.5110
36822SOL     OW17705  11.551   3.423   7.651  0.1028  0.3764 -0.0408
36822SOL    HW117706  11.544   3.395   7.560  0.6933 -0.0680  0.0501
36822SOL    HW217707  11.643   3.446   7.663  0.1431 -0.0583  0.5783
36823SOL     OW17708   4.762   8.216   8.026 -0.1884  0.4181 -0.0675
36823SOL    HW117709   4.782   8.123   8.024 -2.2911 -0.0890  0.2774
36823SOL    HW217710   4.807   8.248   8.104  1.7674  0.0459 -0.9885
36824SOL     OW17711   2.041  10.534   1.361  0.1583  0.0797 -0.6340
36824SOL    HW117712   1.967  10.576   1.318  1.0684  1.5105 -0.8794
36824SOL    HW217713   2.051  10.581   1.444  0.9920  0.1390 -0.7581
36825SOL     OW17714  10.484   1.525   0.535  0.4248  0.6533 -0.3818
36825SOL    HW117715  10.445   1.497   0.618 -0.1770 -1.9418 -1.4149
36825SOL    HW217716  10.572   1.554   0.558  0.5103 -0.6306  1.1253
36826SOL     OW17717   6.303   1.243   4.473  0.0130  0.0662  0.6389
36826SOL    HW117718   6.329   1.285   4.391 -0.0513  0.7323  0.9558
36826SOL    HW217719   6.256   1.164   4.446 -1.0461  0.8976  0.0142
36827SOL     OW17720   5.164   3.730   5.125  0.4881  0.0697  0.3074
36827SOL    HW117721   5.115   3.806   5.155  1.0484  0.4654  0.2420
36827SOL    HW217722   5.224   3.710   5.197  0.5586 -0.1182  0.1981
36828SOL     OW17723   0.622   6.267   3.555 -0.4815  0.0880 -0.5102
36828SOL    HW117724   0.568   6.325   3.500  0.5734  1.0702 -0.5587
36828SOL    HW217725   0.575   6.263   3.638 -0.8337  0.5941 -0.6760
36829SOL     OW17726   8.290   2.007   7.277 -0.2323 -0.4306 -0.5168
36829SOL    HW117727   8.344   1.976   7.350  0.6789 -1.2742 -1.5084
36829SOL    HW217728   8.221   1.941   7.270  0.4132 -1.0439 -1.2081
36830SOL     OW17729  11.815  12.599   8.411 -0.0006 -0.2569 -0.1280
36830SOL    HW117730  11.776  12.537   8.473  3.7265 -1.3269  1.3862
36830SOL    HW217731  11.806  12.684   8.453 -0.6986 -0.4522  0.1382
36831SOL     OW17732   5.861  10.804   2.890 -0.9874 -0.1437 -0.3908
36831SOL    HW117733   5.867  10.846   2.976  1.5986 -1.2367  0.0679
36831SOL    HW217734   5.802  10.729   2.904  0.8727 -1.4491  1.0478
36832SOL     OW17735   6.531  11.213   7.369  0.2326 -0.5739  0.0915
36832SOL    HW117736   6.626  11.211   7.375  0.1785 -2.2314  1.1748
36832SOL    HW217737   6.503  11.127   7.403 -1.6006 -0.4574 -0.9896
36833SOL     OW17738   0.101   9.724  10.955 -0.2496 -0.0895  0.0468
36833SOL    HW117739   0.007   9.713  10.942 -0.5161  0.0501  1.6811
36833SOL    HW217740   0.131   9.639  10.986  0.0727  0.0041 -0.0092
36834SOL     OW17741  10.551   6.644   4.309 -0.0604  0.1081 -0.1342
36834SOL    HW117742  10.470   6.684   4.343 -1.0274 -0.7352 -1.3550
36834SOL    HW217743  10.566   6.568   4.366 -0.4650 -0.0742 -0.2663
36835SOL     OW17744   6.475  11.335   7.696  0.7198  0.4633  0.4622
36835SOL    HW117745   6.383  11.363   7.689 -0.0217 -1.6530  0.8226
36835SOL    HW217746   6.472  11.261   7.758  2.6602  0.2848  0.3947
36836SOL     OW17747  11.024   1.316  12.252 -0.3653 -0.4549 -0.0109
36836SOL    HW117748  11.066   1.230  12.242 -0.3141 -0.4499  0.1617
36836SOL    HW217749  10.971   1.308  12.331  0.7283  0.1161  0.8019
36837SOL     OW17750   7.541   2.267  10.655 -0.0953  0.0520 -1.1460
36837SOL    HW117751   7.622   2.262  10.603  1.2194  3.5117  0.2598
36837SOL    HW217752   7.504   2.179  10.651  1.8889 -0.8067 -4.7357
36838SOL     OW17753   4.177   8.530   2.443  0.2595  0.4310  0.0459
36838SOL    HW117754   4.137   8.476   2.374  1.2815  0.7208 -0.8099
36838SOL    HW217755   4.131   8.613   2.438 -0.3315  0.1270  0.3774
36839SOL     OW17756   3.741   1.395   2.973  0.2397 -1.0724  0.0179
36839SOL    HW117757   3.708   1.327   2.914  0.2318 -0.8489 -0.2365
36839SOL    HW217758   3.834   1.401   2.954 -0.0267  0.0659 -1.0683
36840SOL     OW17759   3.772   6.682   7.042 -0.2225 -0.1725 -0.3116
36840SOL    HW117760   3.861   6.712   7.021 -0.1931 -1.1036 -1.7024
36840SOL    HW217761   3.743   6.638   6.962 -1.5838 -0.7118  0.4496
36841SOL     OW17762   0.208   5.875  10.029  0.3104  0.1424  0.1615
36841SOL    HW117763   0.289   5.876   9.977  0.0406 -1.4942 -0.3344
36841SOL    HW217764   0.191   5.967  10.048  1.4295  0.6391 -1.0847
36842SOL     OW17765   0.612   2.726   3.964 -0.2520  0.0700  0.2295
36842SOL    HW117766   0.526   2.716   4.005 -1.5669  1.6389 -1.9561
36842SOL    HW217767   0.645   2.809   3.999 -0.6555  0.5949 -0.6109
36843SOL     OW17768   2.444   2.247   0.470  0.2496  0.0604 -0.4486
36843SOL    HW117769   2.429   2.213   0.558  1.8955  1.2224  0.3325
36843SOL    HW217770   2.390   2.191   0.413 -0.6881 -0.8441  1.2443
36844SOL     OW17771   7.997   6.833   0.542 -0.4814 -0.6866  0.3767
36844SOL    HW117772   8.038   6.748   0.558  0.9715 -0.2722 -0.9098
36844SOL    HW217773   7.921   6.834   0.600 -0.6054 -2.9095  0.3418
36845SOL     OW17774   8.443   1.681   8.303 -0.0193 -0.5880  0.5139
36845SOL    HW117775   8.427   1.595   8.264  2.3502 -0.3681 -1.1278
36845SOL    HW217776   8.514   1.667   8.365  2.7321  0.6023 -2.1304
36846SOL     OW17777   2.933   7.359   3.358 -0.2012  0.0023 -0.3279
36846SOL    HW117778   2.999   7.323   3.419  1.8143  0.9070 -1.8735
36846SOL    HW217779   2.926   7.293   3.289 -1.6750 -0.5108  0.2593
36847SOL     OW17780  10.919  11.930   7.552  0.4280  0.1476 -0.3715
36847SOL    HW117781  10.995  11.988   7.560  0.2317  0.3658 -0.0736
36847SOL    HW217782  10.851  11.972   7.604  0.4876 -0.7026  0.4231
36848SOL     OW17783   2.151   5.114   8.131  0.1397  0.5977  0.1623
36848SOL    HW117784   2.061   5.092   8.159  0.2006 -0.2211 -0.2483
36848SOL    HW217785   2.155   5.209   8.136 -1.2019  0.7563 -1.1634
36849SOL     OW17786   5.257   5.031   2.888  0.0349  0.3403 -0.1770
36849SOL    HW117787   5.255   4.936   2.900  0.0640  0.4120  0.4390
36849SOL    HW217788   5.309   5.063   2.962  1.0207  0.7391 -1.0270
36850SOL     OW17789   0.835  10.138   1.456  0.3425  0.1514  0.7857
36850SOL    HW117790   0.762  10.194   1.431  1.0996  1.3612  1.2281
36850SOL    HW217791   0.911  10.173   1.409  0.9352 -0.1724  1.4724
36851SOL     OW17792   0.633   7.529   8.565  0.1605  0.3933  0.1442
36851SOL    HW117793   0.727   7.534   8.583  0.3587 -0.8369 -0.3855
36851SOL    HW217794   0.598   7.473   8.635  0.0652 -0.2248 -0.3831
36852SOL     OW17795   9.632  11.871   0.621 -0.5138 -0.1911 -0.3874
36852SOL    HW117796   9.600  11.956   0.652  1.9704  0.8377 -0.4772
36852SOL    HW217797   9.623  11.876   0.525  2.2264  1.1763 -0.6455
36853SOL     OW17798   0.550   3.195   3.505  0.1433 -0.2131  0.1548
36853SOL    HW117799   0.555   3.129   3.436  1.2350 -1.9860  1.8305
36853SOL    HW217800   0.499   3.153   3.575 -0.0487  1.1294  0.8533
36854SOL     OW17801   8.368   1.102   7.522  0.3815  0.1565 -0.2479
36854SOL    HW117802   8.391   1.063   7.438 -0.4577  1.1385 -0.9547
36854SOL    HW217803   8.370   1.029   7.584  0.8420 -0.6096 -1.1489
36855SOL     OW17804   3.723   8.423   3.059  0.1132  0.0841  0.0997
36855SOL    HW117805   3.662   8.468   3.000 -0.7719 -0.7296  0.3722
36855SOL    HW217806   3.678   8.424   3.144  0.6150 -0.2728  0.3697
36856SOL     OW17807   0.461   9.377   4.347 -0.3431  0.3291 -0.8503
36856SOL    HW117808   0.550   9.397   4.319  1.4499 -3.2092  1.5399
36856SOL    HW217809   0.451   9.421   4.431  0.5329 -1.7851  0.4553
36857SOL     OW17810   8.092  12.250   8.333  0.1030  0.1283  0.1187
36857SOL    HW117811   8.121  12.186   8.268  0.4986 -0.2176  0.6259
36857SOL    HW217812   8.032  12.201   8.390 -0.8003  0.6106 -0.3899
36858SOL     OW17813  11.864  10.126  10.385  0.4534 -0.0654 -0.0760
36858SOL    HW117814  11.770  10.113  10.400  0.6145 -0.1389  0.9389
36858SOL    HW217815  11.870  10.158  10.295 -0.4900 -0.7087 -0.3828
36859SOL     OW17816   6.079   7.161   7.334 -0.2192 -0.1481  0.1373
36859SOL    HW117817   6.141   7.096   7.368 -1.7312 -1.1355  1.0916
36859SOL    HW217818   6.127   7.244   7.340  1.1801 -0.9418  0.3950
36860SOL     OW17819   1.924   0.565   6.892 -0.4013  0.3384 -0.0544
36860SOL    HW117820   1.957   0.537   6.978  1.8466  1.6944 -0.4061
36860SOL    HW217821   1.921   0.484   6.841  3.0259  0.1287 -0.1295
36861SOL     OW17822   9.661  11.481   9.530 -0.1555 -0.7908 -0.2905
36861SOL    HW117823   9.703  11.425   9.595 -0.4250 -0.6858 -0.0183
36861SOL    HW217824   9.573  11.496   9.566  1.0663  3.0428  1.7367
36862SOL     OW17825   8.734   9.486   5.738  0.3248  0.1234 -0.8563
36862SOL    HW117826   8.773   9.409   5.695  1.6736  0.0588  0.3949
36862SOL    HW217827   8.805   9.550   5.741  0.3475  0.0906  1.2832
36863SOL     OW17828  10.410  10.426   8.101  0.1403 -0.8471  0.3307
36863SOL    HW117829  10.377  10.501   8.149  0.2775 -1.2857  1.1317
36863SOL    HW217830  10.498  10.452   8.073  1.4663 -1.7362  3.2252
36864SOL     OW17831   8.993   2.428   1.594 -0.2865  1.1456 -0.0557
36864SOL    HW117832   8.973   2.512   1.636  1.1764  1.2784  0.4098
36864SOL    HW217833   9.062   2.390   1.648  2.3387  1.7130 -2.7337
36865SOL     OW17834   9.274   7.192   6.922  0.1036 -0.4501 -0.2095
36865SOL    HW117835   9.319   7.262   6.970 -1.2962  0.6579 -0.4642
36865SOL    HW217836   9.231   7.140   6.990 -0.9713  0.4738 -0.1545
36866SOL     OW17837   7.770   2.822   8.739  0.4276  0.4139 -0.2152
36866SOL    HW117838   7.699   2.769   8.774  0.3640  0.7629  0.1976
36866SOL    HW217839   7.745   2.912   8.759 -1.4897  1.0721 -4.4389
36867SOL     OW17840   7.134   8.311   0.766  0.2346  0.1484 -0.3058
36867SOL    HW117841   7.061   8.262   0.729 -0.7468  0.6225  0.9106
36867SOL    HW217842   7.093   8.374   0.825  1.5784  1.0978 -0.3340
36868SOL     OW17843   9.450   7.534   1.709 -0.1355 -0.2005 -0.1074
36868SOL    HW117844   9.463   7.472   1.781 -1.4791 -0.7196 -0.2760
36868SOL    HW217845   9.355   7.539   1.700  0.0084  0.2154 -1.5437
36869SOL     OW17846  12.259  10.999   2.718  0.3241 -0.0954  0.2466
36869SOL    HW117847  12.178  10.995   2.668 -0.2438 -1.1076  1.2045
36869SOL    HW217848  12.282  10.907   2.733  0.6778  0.1876  1.5097
36870SOL     OW17849   1.921  11.383   3.018 -0.4125  0.0753 -0.8266
36870SOL    HW117850   1.922  11.302   2.966  1.0218  0.3186 -1.2357
36870SOL    HW217851   2.014  11.406   3.027 -0.8139  2.6022 -2.2121
36871SOL     OW17852   9.231   8.037  10.702 -0.1906  0.2402 -0.4529
36871SOL    HW117853   9.154   7.981  10.696 -0.8464  1.2353 -1.7355
36871SOL    HW217854   9.304   7.980  10.679 -0.4867 -0.7797  1.0403
36872SOL     OW17855   8.226   2.607   4.403  0.8573 -0.0864 -0.4010
36872SOL    HW117856   8.263   2.675   4.459 -0.5902  1.9823 -1.8464
36872SOL    HW217857   8.171   2.654   4.340 -0.7563 -2.6502 -1.0561
36873SOL     OW17858   5.081  11.196  12.181 -0.0515 -0.2405  0.6259
36873SOL    HW117859   5.136  11.243  12.119 -0.0541  0.0233  0.8238
36873SOL    HW217860   4.999  11.182  12.135 -0.5716  1.2052  1.0553
36874SOL     OW17861  11.223   4.007   0.097  0.0393  0.3371 -0.2029
36874SOL    HW117862  11.209   3.953   0.174  0.1585  1.1191  0.3838
36874SOL    HW217863  11.255   4.090   0.132  1.9194  0.0805 -1.2149
36875SOL     OW17864   3.807   3.393   3.462 -0.0324  0.0409 -0.7006
36875SOL    HW117865   3.878   3.437   3.416 -1.6763  2.5044 -1.0503
36875SOL    HW217866   3.740   3.380   3.396 -0.6222 -0.6116  0.0087
36876SOL     OW17867   8.452   7.396   6.557  0.0086 -0.2487 -0.2689
36876SOL    HW117868   8.502   7.398   6.476 -0.8086  1.6147 -0.8009
36876SOL    HW217869   8.439   7.489   6.579 -0.0038 -0.7097  1.8601
36877SOL     OW17870   0.453  10.557   9.650 -0.9295  0.0297  0.1270
36877SOL    HW117871   0.475  10.489   9.586 -0.0256  1.1394 -0.7870
36877SOL    HW217872   0.471  10.517   9.735  1.1193 -0.3669 -0.4525
36878SOL     OW17873   9.479   8.039   1.823  0.0854  0.2213 -0.4050
36878SOL    HW117874   9.546   7.997   1.876 -0.1200 -0.1328 -0.4154
36878SOL    HW217875   9.516   8.042   1.735  1.2810  2.7021  0.1039
36879SOL     OW17876   5.258   2.566   2.811  0.1211  0.6414 -0.4403
36879SOL    HW117877   5.190   2.581   2.876  2.3680 -0.4671  2.3930
36879SOL    HW217878   5.295   2.653   2.794 -0.6457  0.9725 -0.4369
36880SOL     OW17879  10.556   5.633   3.209 -0.4408  0.0017 -0.5727
36880SOL    HW117880  10.618   5.570   3.171  0.7173  0.1943  0.8929
36880SOL    HW217881  10.470   5.603   3.179  0.3379 -0.0356 -3.0334
36881SOL     OW17882   1.269   0.702   9.145 -0.3692  0.4468 -0.7710
36881SOL    HW117883   1.292   0.699   9.052  0.1876 -0.0559 -0.6245
36881SOL    HW217884   1.281   0.612   9.175  0.7417  0.8552  0.0719
36882SOL     OW17885  11.909   3.437   6.499  0.3027 -0.3753 -0.0490
36882SOL    HW117886  11.940   3.473   6.582  2.0082  1.9460 -1.5691
36882SOL    HW217887  11.986   3.437   6.442 -0.9740 -1.1421 -1.8786
36883SOL     OW17888   2.973   4.779   1.894  0.5019 -0.1202 -0.0274
36883SOL    HW117889   3.045   4.837   1.868 -0.2011  0.8038  0.0581
36883SOL    HW217890   2.894   4.826   1.868 -0.1514 -0.1896  1.7058
36884SOL     OW17891   2.091   3.971   5.064  0.1983 -0.0005  0.5044
36884SOL    HW117892   2.181   3.980   5.033 -0.4992  0.8634 -1.4733
36884SOL    HW217893   2.060   4.061   5.076 -1.1067 -0.1424 -1.2604
36885SOL     OW17894   9.282   5.737  10.202 -0.2101  0.7551  0.7889
36885SOL    HW117895   9.279   5.647  10.170  0.1037  1.2697 -0.7518
36885SOL    HW217896   9.370   5.746  10.240  0.0684  0.6520  0.1821
36886SOL     OW17897   4.984   4.555   6.886 -0.0089 -0.5721  0.1712
36886SOL    HW117898   4.981   4.484   6.822  0.9838  0.8109 -1.5152
36886SOL    HW217899   4.893   4.567   6.913 -0.3739 -1.5564 -0.5577
36887SOL     OW17900   5.453   6.827   1.146 -0.2979 -0.7526  0.0304
36887SOL    HW117901   5.455   6.740   1.184 -0.2282 -0.2349  1.2400
36887SOL    HW217902   5.544   6.846   1.123 -0.2893 -0.9246 -0.0799
36888SOL     OW17903   4.299   7.630   8.988  0.3743  0.2238  0.2509
36888SOL    HW117904   4.274   7.651   9.078 -1.2334  0.7901 -0.3025
36888SOL    HW217905   4.239   7.560   8.962 -0.3876  1.2740 -0.9489
36889SOL     OW17906   1.421   1.594   3.974 -0.1081 -0.2627 -0.3027
36889SOL    HW117907   1.497   1.583   3.918 -0.5319 -1.3371 -0.6923
36889SOL    HW217908   1.396   1.686   3.963  0.4545 -0.1881 -1.0316
36890SOL     OW17909  12.004   4.085  10.356  0.5177  0.0115 -0.2015
36890SOL    HW117910  11.997   4.113  10.265 -0.6119  2.7272  0.6237
36890SOL    HW217911  12.002   4.166  10.407  1.7614 -1.3642  2.2480
36891SOL     OW17912  10.631  11.624   9.689 -0.2883 -0.1776 -0.2168
36891SOL    HW117913  10.571  11.658   9.623 -0.8345 -1.0721 -0.1927
36891SOL    HW217914  10.675  11.702   9.724 -0.0823  0.3296 -1.5277
36892SOL     OW17915  11.376   4.433  12.208 -0.0028 -0.6569 -0.6217
36892SOL    HW117916  11.436   4.497  12.169 -0.8559  0.1594 -0.6236
36892SOL    HW217917  11.331   4.394  12.132  1.3794 -2.1916 -0.7208
36893SOL     OW17918  11.756   8.742   6.279  0.7928 -0.8325 -0.0201
36893SOL    HW117919  11.822   8.683   6.314 -1.1150 -1.6272  2.5041
36893SOL    HW217920  11.779   8.828   6.316  2.6405 -0.1874 -2.4157
36894SOL     OW17921   0.677   4.359  10.358  0.2300  0.3325 -0.1887
36894SOL    HW117922   0.688   4.426  10.291 -1.2836  0.9435  0.1231
36894SOL    HW217923   0.672   4.276  10.310  0.6446  0.5970 -0.6949
36895SOL     OW17924   3.554  10.527   3.080  0.0909  0.2273  0.3056
36895SOL    HW117925   3.552  10.588   3.154  0.2376 -0.4499  0.8739
36895SOL    HW217926   3.554  10.584   3.003 -1.2916  0.9329  0.7904
36896SOL     OW17927  10.914   9.852   4.161 -0.1896  0.2982  0.7699
36896SOL    HW117928  10.963   9.775   4.191  1.2844  0.8951 -0.0091
36896SOL    HW217929  10.835   9.816   4.122  0.7681 -0.8936 -0.1640
36897SOL     OW17930   2.262   6.146   4.614 -0.3410 -0.4047  0.6297
36897SOL    HW117931   2.195   6.195   4.567 -0.3262  0.5001  1.4981
36897SOL    HW217932   2.318   6.109   4.546 -1.4575 -0.8113 -0.0945
36898SOL     OW17933   5.311   9.226  11.312 -0.1644 -0.7611 -0.4725
36898SOL    HW117934   5.285   9.285  11.383 -0.1344 -0.3044 -0.8322
36898SOL    HW217935   5.385   9.271  11.271  1.0898 -1.9323  0.4095
36899SOL     OW17936   2.309  11.643   0.124  0.0581  0.6536 -0.3413
36899SOL    HW117937   2.389  11.593   0.142 -0.5857 -0.4046 -0.3453
36899SOL    HW217938   2.241  11.599   0.174 -0.5997  1.3235 -0.6266
36900SOL     OW17939   0.033  11.552   3.352  0.0310 -0.3601  0.0417
36900SOL    HW117940   0.010  11.617   3.286 -3.4233 -0.0015  1.3907
36900SOL    HW217941   0.033  11.468   3.305 -2.2476 -0.0976 -0.5555
36901SOL     OW17942   2.603   9.481   0.201  0.9438 -0.4435 -0.0472
36901SOL    HW117943   2.553   9.428   0.264  0.2076 -0.3971 -0.5791
36901SOL    HW217944   2.671   9.422   0.168  0.6064 -0.8285 -0.0638
36902SOL     OW17945   6.923   8.992   8.469  0.0880  0.9896  0.2411
36902SOL    HW117946   6.981   8.921   8.498 -0.6538  0.4301  0.3930
36902SOL    HW217947   6.973   9.037   8.401 -0.8308 -2.1191 -2.8388
36903SOL     OW17948  12.163   5.346   1.701  0.1916 -0.6726 -0.3077
36903SOL    HW117949  12.174   5.294   1.781  0.3711 -0.5064 -0.2244
36903SOL    HW217950  12.159   5.281   1.631  0.9852 -0.7733 -0.2654
36904SOL     OW17951   8.673   1.868   6.609 -0.0609  0.2945 -0.3017
36904SOL    HW117952   8.676   1.958   6.578  0.4739  0.4299  0.1383
36904SOL    HW217953   8.606   1.826   6.555 -1.1941  1.2593  0.3042
36905SOL     OW17954   9.012   2.926   0.758 -0.4128 -0.5166  0.8119
36905SOL    HW117955   9.050   2.948   0.843 -0.4595  0.3207  0.6332
36905SOL    HW217956   8.932   2.979   0.754  0.0783  0.1744 -0.1369
36906SOL     OW17957   5.305   8.752  12.392  0.0214 -0.6908  0.1837
36906SOL    HW117958   5.372   8.737  12.458  0.8932 -1.7733 -0.9034
36906SOL    HW217959   5.347   8.809  12.327  0.7834 -3.2027 -1.6855
36907SOL     OW17960   0.019   9.226   1.739 -0.1019 -0.4321 -0.0580
36907SOL    HW117961   0.032   9.148   1.685 -2.7224 -0.6245 -0.5403
36907SOL    HW217962   0.048   9.298   1.684 -0.7827 -0.8111 -0.9444
36908SOL     OW17963   7.356  11.362   5.534  0.3789  0.2333  0.3843
36908SOL    HW117964   7.328  11.286   5.585  0.9687 -0.2495  0.0045
36908SOL    HW217965   7.440  11.336   5.495  1.8469  1.9469  2.1886
36909SOL     OW17966   8.353   5.052   2.814 -0.0125 -0.1668 -0.2732
36909SOL    HW117967   8.347   5.014   2.727  0.8028 -0.8880 -0.0271
36909SOL    HW217968   8.334   5.145   2.801  1.3443 -0.0225 -1.4287
36910SOL     OW17969   9.515  12.645   5.323 -0.0557 -0.0570  0.6239
36910SOL    HW117970   9.531  12.689   5.240 -3.6768 -4.2220 -2.7662
36910SOL    HW217971   9.431  12.681   5.353 -0.1485 -0.5203  0.9325
36911SOL     OW17972   8.173  12.649   0.790  0.2658 -0.2748 -0.5047
36911SOL    HW117973   8.098  12.662   0.731  1.0487 -1.9522 -1.9770
36911SOL    HW217974   8.204  12.561   0.770  2.2905  0.1555  0.4696
36912SOL     OW17975   8.206   3.458   5.304  0.4680  0.4487 -0.0430
36912SOL    HW117976   8.195   3.547   5.270  1.3208  0.8902  0.7973
36912SOL    HW217977   8.120   3.435   5.340  0.1940  0.8573 -0.4349
36913SOL     OW17978   7.198  10.903   4.773 -0.2193  0.0622 -0.6028
36913SOL    HW117979   7.137  10.976   4.780 -0.2955  0.0308 -0.9258
36913SOL    HW217980   7.202  10.883   4.680  1.9188  1.4746 -0.9006
36914SOL     OW17981  11.331   9.737   2.758  0.2524 -0.0913  0.1337
36914SOL    HW117982  11.243   9.734   2.795 -0.0090  1.7848 -0.2396
36914SOL    HW217983  11.319   9.767   2.668  1.2949  0.7861  0.2538
36915SOL     OW17984   7.148   3.028  12.170 -0.4504 -0.1058 -0.0997
36915SOL    HW117985   7.219   3.023  12.107 -1.2692  1.2721 -1.1939
36915SOL    HW217986   7.076   2.979  12.129 -0.9071  0.5779 -0.1297
36916SOL     OW17987   3.962   7.668   0.555 -0.3471 -0.4771 -0.2184
36916SOL    HW117988   4.020   7.605   0.512 -0.1169  1.0416 -2.3061
36916SOL    HW217989   4.011   7.750   0.552 -1.1628  0.0993  1.2759
36917SOL     OW17990   5.433   6.416   7.264  0.0221  0.0751 -0.0121
36917SOL    HW117991   5.476   6.497   7.293 -0.0065  0.4729 -1.0358
36917SOL    HW217992   5.341   6.439   7.255  0.2628  0.4645 -2.0117
36918SOL     OW17993   1.971   6.815  10.170 -0.4939  0.3349  0.1457
36918SOL    HW117994   1.926   6.731  10.158  1.1765 -0.5359 -0.4878
36918SOL    HW217995   1.948   6.843  10.258  0.2545 -1.6971  1.0651
36919SOL     OW17996  11.738   9.166   9.523  0.3113  0.3705  0.0453
36919SOL    HW117997  11.746   9.105   9.596 -0.6829  0.8476  0.5715
36919SOL    HW217998  11.710   9.248   9.564 -0.4561  0.5860 -0.8853
36920SOL     OW17999   9.083   3.408   6.300  0.2153  0.5237 -0.3623
36920SOL    HW118000   9.132   3.346   6.355 -0.6948  0.6607  0.6314
36920SOL    HW218001   9.150   3.464   6.261  0.9961 -0.5822 -0.6529
36921SOL     OW18002   0.643   2.504   9.779 -0.4759 -0.1243 -0.0903
36921SOL    HW118003   0.713   2.473   9.837 -1.2833 -0.7281  0.5902
36921SOL    HW218004   0.567   2.512   9.836 -0.7401  1.4566 -0.6214
36922SOL     OW18005   2.717   7.854   0.929  0.1740 -0.0732 -0.7143
36922SOL    HW118006   2.698   7.948   0.919  0.2893  0.0735  0.3350
36922SOL    HW218007   2.651   7.811   0.874 -0.0228  0.6159 -1.0311
36923SOL     OW18008   8.916   3.955   8.196 -0.1865  0.5470 -0.5884
36923SOL    HW118009   8.874   3.910   8.123 -1.1994  0.6988 -0.1183
36923SOL    HW218010   8.975   3.889   8.233 -3.2588 -1.3221  1.4877
36924SOL     OW18011   6.369   8.076   5.794  0.3190  0.0305  0.1250
36924SOL    HW118012   6.277   8.050   5.791 -0.1206  1.5433 -0.0999
36924SOL    HW218013   6.374   8.156   5.742  1.5311  0.6535  1.1211
36925SOL     OW18014   9.315   1.098   1.817  0.0364  0.5646 -0.3099
36925SOL    HW118015   9.401   1.132   1.840 -0.0659  0.0922  0.8200
36925SOL    HW218016   9.323   1.073   1.724  1.0128  0.8162 -0.2992
36926SOL     OW18017   4.404   5.807   2.762 -0.1774 -0.0304 -0.0088
36926SOL    HW118018   4.495   5.798   2.734  0.0704  0.0357  0.7616
36926SOL    HW218019   4.353   5.770   2.689  0.4870 -0.6146 -0.1879
36927SOL     OW18020   4.208   2.090   6.174 -0.3098  0.2647  0.4900
36927SOL    HW118021   4.257   2.055   6.248  0.1894 -1.3793 -0.5678
36927SOL    HW218022   4.140   2.024   6.157 -0.2503  0.4849 -0.6710
36928SOL     OW18023   4.542   7.443  11.442  0.0745 -0.0259  0.1731
36928SOL    HW118024   4.502   7.494  11.372  0.2811  0.6366  0.5266
36928SOL    HW218025   4.627   7.417  11.408  0.6882  1.3194  0.5977
36929SOL     OW18026   8.880   0.294   8.552  0.2656  0.1696 -0.2363
36929SOL    HW118027   8.960   0.255   8.517 -0.7759 -2.0460 -0.3131
36929SOL    HW218028   8.902   0.320   8.641  1.5239  1.1809 -0.8153
36930SOL     OW18029   4.895  11.180   5.909 -0.1842  0.2162 -0.1317
36930SOL    HW118030   4.971  11.215   5.956  0.8975  0.5229 -2.0095
36930SOL    HW218031   4.828  11.248   5.917 -0.5590 -0.3422  2.1187
36931SOL     OW18032   0.109   9.817   0.772 -0.1260 -0.3886 -0.1671
36931SOL    HW118033   0.068   9.744   0.725  0.1389 -0.2191 -0.6654
36931SOL    HW218034   0.035   9.868   0.805 -0.3233 -0.1513 -0.9588
36932SOL     OW18035   4.404   1.010  10.629  0.5350 -0.2237 -0.0534
36932SOL    HW118036   4.350   1.011  10.709  2.3695 -0.2191  1.2395
36932SOL    HW218037   4.343   1.036  10.560 -0.9758  0.4287  1.4320
36933SOL     OW18038   9.846   3.288   0.156 -1.0731 -0.5004  0.0777
36933SOL    HW118039   9.845   3.323   0.067 -0.7647 -2.9374 -0.9600
36933SOL    HW218040   9.766   3.237   0.163 -0.5295 -1.2838  0.7943
36934SOL     OW18041  12.021   9.484   0.650  0.0554 -0.2290 -0.3569
36934SOL    HW118042  11.958   9.431   0.600 -0.1490 -1.6379  1.2717
36934SOL    HW218043  12.044   9.428   0.725  0.0048  1.9385  1.3570
36935SOL     OW18044   3.212  12.078   6.717  0.0569  0.3758  0.2311
36935SOL    HW118045   3.161  12.007   6.679 -0.3468 -0.9672  3.0307
36935SOL    HW218046   3.296  12.038   6.741  0.6729  1.4044 -0.1452
36936SOL     OW18047   8.664   5.408  10.581 -0.1485  0.1509  0.3449
36936SOL    HW118048   8.613   5.488  10.594  0.1193  0.3380  0.2375
36936SOL    HW218049   8.696   5.414  10.491  1.9759  1.1320  1.1122
36937SOL     OW18050   4.214   5.133   0.305 -0.0029 -0.2529  0.4640
36937SOL    HW118051   4.263   5.123   0.223 -0.3542 -1.6965  0.4031
36937SOL    HW218052   4.282   5.138   0.373  0.3301  1.9164  0.0561
36938SOL     OW18053   0.499   0.511   9.997 -0.2197 -0.1999 -0.2353
36938SOL    HW118054   0.537   0.430  10.031 -0.4646 -0.2007  0.0463
36938SOL    HW218055   0.405   0.493   9.992 -0.1997 -0.1625 -0.8168
36939SOL     OW18056   2.475  12.205   3.078 -0.0775  0.3212  0.7364
36939SOL    HW118057   2.518  12.193   2.993 -0.6431 -1.0004  0.6091
36939SOL    HW218058   2.426  12.287   3.069 -1.7656 -0.7880 -0.9510
36940SOL     OW18059  11.767   5.080  10.010 -0.3597  0.0159 -0.1624
36940SOL    HW118060  11.769   5.121  10.096  0.5882 -3.6334  1.7638
36940SOL    HW218061  11.841   5.120   9.963 -0.0887  1.1571  1.1657
36941SOL     OW18062   1.421  12.484   1.214  0.3135  0.2554 -0.7649
36941SOL    HW118063   1.405  12.402   1.167 -0.1011 -0.5290  0.6834
36941SOL    HW218064   1.342  12.536   1.199  0.2590  0.0908 -1.0649
36942SOL     OW18065   6.118   7.976  11.997 -0.3404 -0.1320  0.1715
36942SOL    HW118066   6.122   8.057  12.046  2.0216  0.2104 -0.4669
36942SOL    HW218067   6.144   8.000  11.908 -0.0151 -1.4954 -0.1267
36943SOL     OW18068   7.048   6.101  10.561  0.3777 -0.1311 -0.3582
36943SOL    HW118069   7.086   6.079  10.646  0.1531 -0.3023 -0.2989
36943SOL    HW218070   6.955   6.080  10.571  0.0475  1.3809 -0.1138
36944SOL     OW18071  10.260  11.435  10.322 -0.1079 -0.7115 -0.4423
36944SOL    HW118072  10.333  11.409  10.265  1.2602 -0.0179  0.9257
36944SOL    HW218073  10.290  11.516  10.364 -0.7718 -1.5661  1.7909
36945SOL     OW18074   5.623   3.274   8.256 -0.2612  0.0611  0.3929
36945SOL    HW118075   5.573   3.273   8.338  1.0769  2.0027  1.3082
36945SOL    HW218076   5.709   3.239   8.280  0.4008  1.3934  0.0231
36946SOL     OW18077  10.128   6.628   8.101  0.9628 -0.0587  0.0306
36946SOL    HW118078  10.215   6.592   8.117  1.5995  0.9757 -0.8987
36946SOL    HW218079  10.123   6.704   8.159  1.2271  0.6512 -0.8430
36947SOL     OW18080   7.297  11.379   1.408  0.0237  0.0971  0.1589
36947SOL    HW118081   7.214  11.332   1.404  0.0869 -0.0705  0.7089
36947SOL    HW218082   7.364  11.310   1.400  0.1467  0.4488 -2.8834
36948SOL     OW18083   6.549   3.904   8.161 -0.3814 -0.5334  0.1293
36948SOL    HW118084   6.623   3.880   8.217 -0.4528  0.5817  0.7125
36948SOL    HW218085   6.586   3.964   8.096 -0.6089 -0.6624 -0.1266
36949SOL     OW18086   7.844  12.671  11.355  0.1981  0.0630 -0.6179
36949SOL    HW118087   7.930  12.678  11.314  0.0292  1.1637 -0.8197
36949SOL    HW218088   7.847  12.732  11.429 -0.1444 -0.4881 -0.1402
36950SOL     OW18089   9.959   8.075   1.071 -0.0310 -0.2790  1.2314
36950SOL    HW118090   9.912   8.001   1.110  1.3619 -2.0772 -0.3257
36950SOL    HW218091   9.946   8.064   0.976 -0.0307  1.6755  0.9645
36951SOL     OW18092   5.037   0.446   0.242  0.9166  0.4282 -0.2312
36951SOL    HW118093   4.943   0.431   0.239  1.0042 -0.0438 -1.0498
36951SOL    HW218094   5.064   0.447   0.149  1.9456 -0.9188  0.0206
36952SOL     OW18095   4.588   8.644  10.528 -0.2095  0.2087  0.3218
36952SOL    HW118096   4.607   8.716  10.468  2.6800 -0.3790  0.3679
36952SOL    HW218097   4.547   8.577  10.473  2.4945 -0.3821 -1.1826
36953SOL     OW18098  12.702   4.175  12.172  0.0797  0.0849 -0.4168
36953SOL    HW118099  12.713   4.266  12.147  0.0143  0.6447  1.4731
36953SOL    HW218100  12.668   4.132  12.093 -1.3613  1.9904 -0.8864
36954SOL     OW18101   3.672   0.706   3.871 -0.4249  0.5156 -0.2212
36954SOL    HW118102   3.735   0.764   3.914  0.5058  0.1931 -1.1115
36954SOL    HW218103   3.638   0.757   3.798 -0.3105  0.2791 -0.4424
36955SOL     OW18104  10.990   0.437  10.072  0.4622  0.0810  0.3870
36955SOL    HW118105  10.916   0.468  10.124  0.2310 -2.7048  1.9164
36955SOL    HW218106  10.950   0.399   9.993  0.3516 -0.4556  0.7007
36956SOL     OW18107   9.445   3.022   9.739 -0.1204 -0.3616  0.1896
36956SOL    HW118108   9.372   3.056   9.687  0.5041 -0.1799 -0.5931
36956SOL    HW218109   9.485   3.099   9.779 -1.7023 -0.6361  2.5112
36957SOL     OW18110   4.551  11.561   0.238 -0.4076  0.3637  0.5746
36957SOL    HW118111   4.601  11.524   0.166 -0.1856  0.6396  0.5847
36957SOL    HW218112   4.562  11.500   0.310  0.1568  0.5715  0.6677
36958SOL     OW18113   8.312   7.728   5.351 -0.4225  0.0932 -0.1395
36958SOL    HW118114   8.233   7.775   5.378 -0.1770 -0.2030  1.2131
36958SOL    HW218115   8.348   7.694   5.433  0.7505 -0.3410 -0.8082
36959SOL     OW18116  10.191   2.489   2.532 -0.7935  0.7768  0.1435
36959SOL    HW118117  10.114   2.514   2.480  0.1428  0.7707 -1.2857
36959SOL    HW218118  10.232   2.419   2.482 -2.1191 -2.2990  2.9482
36960SOL     OW18119   9.855   5.683  10.085 -0.7454 -0.3389  0.3321
36960SOL    HW118120   9.901   5.705  10.166  1.0824 -0.8853 -0.5039
36960SOL    HW218121   9.846   5.766  10.039  0.1049 -0.3160  0.1833
36961SOL     OW18122   1.811   5.551  11.167  0.1788  0.2133 -0.4223
36961SOL    HW118123   1.848   5.600  11.240  2.1014 -0.5128 -0.8579
36961SOL    HW218124   1.792   5.464  11.204 -0.9526  0.5106 -0.2596
36962SOL     OW18125   0.815  10.137   4.841  0.0651  0.6953  0.0751
36962SOL    HW118126   0.796  10.173   4.754 -0.6025 -1.7971 -0.9005
36962SOL    HW218127   0.736  10.152   4.892  0.2624  1.6849  0.1126
36963SOL     OW18128   8.902   8.098   5.623  0.0681  0.3181  0.5655
36963SOL    HW118129   8.977   8.148   5.657  0.5341  0.6933 -0.9452
36963SOL    HW218130   8.826   8.151   5.643  0.3559  0.6591  0.7667
36964SOL     OW18131   5.731   3.987   9.731  0.0436 -0.8489  0.3591
36964SOL    HW118132   5.726   3.961   9.639 -0.9536  1.2920 -0.2535
36964SOL    HW218133   5.669   4.059   9.739  0.3289 -0.7792  2.6644
36965SOL     OW18134  11.049   8.445   5.715  0.4243 -0.2001 -0.1818
36965SOL    HW118135  11.015   8.382   5.778 -2.2144  0.2755 -1.0026
36965SOL    HW218136  11.074   8.391   5.639 -2.1152 -0.3582 -1.0045
36966SOL     OW18137   5.315   8.530  12.690 -0.2176 -0.2386 -0.2456
36966SOL    HW118138   5.243   8.593  12.679  0.9858  1.3081  0.3307
36966SOL    HW218139   5.357   8.527  12.604  0.9975  1.4443  0.2272
36967SOL     OW18140   8.354   4.381   2.146  0.1950  0.6791  0.3745
36967SOL    HW118141   8.349   4.291   2.177 -0.6693  0.0547 -1.4308
36967SOL    HW218142   8.308   4.432   2.212  0.2141 -0.2832  1.1505
36968SOL     OW18143   8.133   0.422   3.369 -0.4518 -0.1333  0.3633
36968SOL    HW118144   8.187   0.438   3.292  0.0026 -1.0756  0.4610
36968SOL    HW218145   8.043   0.420   3.336 -0.3775  0.7520  0.0834
36969SOL     OW18146   6.290   4.812   7.802  0.1688  0.8667  0.3557
36969SOL    HW118147   6.317   4.802   7.711  1.5856  0.7706  0.7488
36969SOL    HW218148   6.274   4.906   7.813 -0.7176  0.7809 -0.1646
36970SOL     OW18149  12.595   9.925   0.862 -0.1517 -0.2952  0.0155
36970SOL    HW118150  12.572   9.986   0.792  2.6865  1.3560  0.3606
36970SOL    HW218151  12.618   9.980   0.936 -0.8832 -1.9501  1.5437
36971SOL     OW18152   1.925  12.423   3.602 -0.4872 -0.8970 -0.2024
36971SOL    HW118153   1.960  12.346   3.647 -2.1510 -1.4332  0.2532
36971SOL    HW218154   1.984  12.437   3.528  1.9233 -0.4409  1.6638
36972SOL     OW18155   8.869   6.183   0.106 -0.3660  0.5478  0.0051
36972SOL    HW118156   8.955   6.223   0.094  0.7735 -1.6166  0.4035
36972SOL    HW218157   8.851   6.136   0.024 -1.5302  1.5532 -0.3494
36973SOL     OW18158   6.209   6.816   9.332  0.4428 -0.8753  0.5277
36973SOL    HW118159   6.209   6.722   9.313  1.2416 -0.7149 -0.3358
36973SOL    HW218160   6.290   6.830   9.382 -0.0333 -0.7516  1.2883
36974SOL     OW18161   1.908  10.335   2.939 -0.2501 -0.0694  0.3528
36974SOL    HW118162   1.948  10.297   3.017  0.1238 -4.2122 -1.6163
36974SOL    HW218163   1.817  10.307   2.941  0.0176 -1.1590 -1.1537
36975SOL     OW18164  11.796   1.268   1.790  0.0289 -0.0581 -0.2152
36975SOL    HW118165  11.744   1.321   1.729  0.1586 -0.1835 -0.4394
36975SOL    HW218166  11.734   1.205   1.826 -0.8985  2.1968  2.4765
36976SOL     OW18167  12.230   9.047   9.919 -0.0271  0.3076  0.3910
36976SOL    HW118168  12.166   9.006   9.977 -1.2967  1.3045 -0.2532
36976SOL    HW218169  12.305   8.987   9.919 -1.4406 -1.5456  0.1921
36977SOL     OW18170   9.232  11.454  11.038 -0.0332 -0.7124 -0.3400
36977SOL    HW118171   9.195  11.366  11.027 -0.1738 -0.7268  0.2284
36977SOL    HW218172   9.217  11.475  11.130 -2.0043  0.8179 -0.9462
36978SOL     OW18173  12.142   4.819   0.046  0.8248 -0.2589 -0.7235
36978SOL    HW118174  12.133   4.848  -0.045 -1.2224  2.7842  0.2935
36978SOL    HW218175  12.172   4.897   0.093  1.7059 -1.7167  1.2484
36979SOL     OW18176   0.593   8.952   6.912  0.2418  0.3762  0.4320
36979SOL    HW118177   0.557   8.947   6.824  1.2171 -1.0795  0.0724
36979SOL    HW218178   0.525   8.994   6.964 -0.5044  0.8918 -0.9351
36980SOL     OW18179   7.293  10.844   9.224 -0.4525 -0.6929 -0.2447
36980SOL    HW118180   7.205  10.808   9.236 -0.3893 -0.3990  1.3208
36980SOL    HW218181   7.279  10.934   9.196 -0.6925 -0.4257  0.6730
36981SOL     OW18182   3.745   1.818   6.971  0.2699  0.3620  0.4073
36981SOL    HW118183   3.791   1.763   6.908 -1.4804 -0.0569 -0.5587
36981SOL    HW218184   3.771   1.908   6.949 -1.3329  0.3358 -1.8364
36982SOL     OW18185  12.509   5.322   9.279 -0.4949  0.2003 -0.4724
36982SOL    HW118186  12.477   5.394   9.225 -0.1826  1.5153  0.9916
36982SOL    HW218187  12.601   5.344   9.295 -1.0893  1.1538  2.3933
36983SOL     OW18188   1.963   7.564   3.925 -0.0318 -0.1210  0.1477
36983SOL    HW118189   2.049   7.571   3.966  0.8167  0.8632 -1.6753
36983SOL    HW218190   1.903   7.603   3.989  1.1140  0.6422  0.7935
36984SOL     OW18191  10.103   4.460   7.005  0.1646  0.0026  0.1617
36984SOL    HW118192  10.188   4.443   7.045  0.3713 -0.7455 -0.5585
36984SOL    HW218193  10.109   4.549   6.972  0.5830  0.0328  0.3198
36985SOL     OW18194   2.985  12.174  12.374 -0.1664  0.3392  0.3715
36985SOL    HW118195   2.925  12.158  12.302  1.8437  0.6930 -1.4831
36985SOL    HW218196   3.071  12.150  12.340  0.8737  0.4609  2.6892
36986SOL     OW18197   4.315   6.607  12.623 -0.0047 -0.5111  0.3129
36986SOL    HW118198   4.269   6.651  12.694 -0.8320  0.9437 -1.0750
36986SOL    HW218199   4.387   6.666  12.600  1.3082 -1.7537  0.9915
36987SOL     OW18200   7.471   8.373   4.188  0.3319  0.2521  0.1391
36987SOL    HW118201   7.505   8.440   4.247  0.5142  0.4083 -0.1387
36987SOL    HW218202   7.541   8.359   4.124  0.2391 -0.1031  0.1127
36988SOL     OW18203   9.244   9.862   8.871  0.0122 -0.0128  0.2045
36988SOL    HW118204   9.196   9.936   8.834  0.1391 -0.0140  0.0390
36988SOL    HW218205   9.316   9.847   8.811 -0.1249 -0.3997  0.1317
36989SOL     OW18206   6.100  11.775   4.918  0.2364 -0.3758  0.2983
36989SOL    HW118207   6.057  11.728   4.847  0.0274  0.6870 -0.2963
36989SOL    HW218208   6.181  11.726   4.934 -0.0674 -1.0432 -0.1681
36990SOL     OW18209   2.877   3.399   9.172  0.1778  0.4234  0.2303
36990SOL    HW118210   2.884   3.358   9.086 -0.8615 -0.8589  0.7162
36990SOL    HW218211   2.966   3.427   9.193  0.3677  1.1803 -1.4468
36991SOL     OW18212   3.307   7.019   3.439  0.2522  0.0059 -0.5624
36991SOL    HW118213   3.363   7.083   3.397  0.6749  0.4483  0.6230
36991SOL    HW218214   3.366   6.951   3.471  0.0323  0.0213 -0.0984
36992SOL     OW18215   9.481   5.276   0.893 -0.0763 -0.5343 -0.5480
36992SOL    HW118216   9.389   5.258   0.911  0.2389 -2.5216 -0.6851
36992SOL    HW218217   9.480   5.336   0.819 -1.2616  0.0289 -0.0972
36993SOL     OW18218   6.209   6.562   8.206  0.6621  0.2932 -0.0243
36993SOL    HW118219   6.137   6.524   8.254  0.1630  1.1516 -0.0705
36993SOL    HW218220   6.182   6.557   8.114  1.4130 -0.9268 -0.2035
36994SOL     OW18221   5.030  12.107   7.160  0.1829  0.1347 -0.3177
36994SOL    HW118222   5.051  12.050   7.234 -0.9016  1.0017  0.6967
36994SOL    HW218223   4.982  12.051   7.099  1.6269 -0.7478 -0.6959
36995SOL     OW18224   0.819   5.933   8.078  1.0008  0.1159  0.3782
36995SOL    HW118225   0.852   6.010   8.123  1.6975 -0.2768  0.5457
36995SOL    HW218226   0.819   5.956   7.985  0.2969  0.6500  0.5011
36996SOL     OW18227   4.941   8.969   7.905 -0.2578 -0.2638 -0.5783
36996SOL    HW118228   4.902   9.055   7.889 -1.9747 -1.0207 -0.7263
36996SOL    HW218229   4.948   8.930   7.818 -0.1455 -0.5352 -0.4491
36997SOL     OW18230   6.079   4.602   7.764  0.1649  0.0717  0.1217
36997SOL    HW118231   6.140   4.664   7.803 -0.1486  2.7197 -3.1557
36997SOL    HW218232   6.130   4.556   7.697  0.1418 -2.7119  1.8490
36998SOL     OW18233   4.916   4.734   2.602  0.0454 -0.1270 -1.2171
36998SOL    HW118234   4.947   4.668   2.664 -0.8061 -0.7508 -1.4314
36998SOL    HW218235   4.851   4.785   2.652  3.0664  2.8383  0.0634
36999SOL     OW18236   6.240  10.489   0.210 -0.1235  0.5143 -0.2667
36999SOL    HW118237   6.172  10.471   0.145  0.7878  2.7265 -1.9661
36999SOL    HW218238   6.207  10.564   0.260  0.1311  0.2086  0.3687
37000SOL     OW18239   2.204   1.707   2.924 -0.5227 -0.3668 -0.5681
37000SOL    HW118240   2.117   1.743   2.911 -0.2866 -0.3269 -2.1567
37000SOL    HW218241   2.200   1.667   3.011 -1.9382  0.1362 -0.3749
37001SOL     OW18242   2.895   0.139   2.140 -0.0403  0.2747  0.3807
37001SOL    HW118243   2.925   0.208   2.081 -1.9498  0.4490 -0.4513
37001SOL    HW218244   2.819   0.101   2.096 -0.2347 -1.0232  1.7557
37002SOL     OW18245   2.935   3.438   7.511  0.6013  0.4220 -0.0226
37002SOL    HW118246   2.840   3.428   7.516  0.6132  0.6559  0.9291
37002SOL    HW218247   2.950   3.531   7.529  1.0105  0.3704 -0.0961
37003SOL     OW18248  11.934  12.047  12.276 -0.3339  0.3933  0.2266
37003SOL    HW118249  12.008  12.021  12.222  1.0923  0.0239  2.2404
37003SOL    HW218250  11.972  12.098  12.347 -2.2127  1.4941  0.5240
37004SOL     OW18251   2.497  11.262   8.252 -0.3786  0.7867 -0.2691
37004SOL    HW118252   2.425  11.200   8.263 -1.2406  1.7831 -0.1759
37004SOL    HW218253   2.556  11.243   8.325 -0.4028 -0.2139 -0.4936
37005SOL     OW18254   1.475   7.763   4.422 -0.2846 -0.3245  0.2947
37005SOL    HW118255   1.538   7.803   4.361  1.0776 -1.7892  0.6840
37005SOL    HW218256   1.507   7.786   4.509  0.1956 -1.7254  0.5121
37006SOL     OW18257   5.884   4.174  10.093  0.0356  0.0805 -0.1560
37006SOL    HW118258   5.970   4.161  10.056 -0.0040 -0.5724 -0.0338
37006SOL    HW218259   5.890   4.138  10.182 -0.2667  0.3252 -0.0328
37007SOL     OW18260   3.109   4.827   3.147 -0.0128 -0.1513 -0.8806
37007SOL    HW118261   3.190   4.802   3.192 -0.9170 -0.4717  0.6560
37007SOL    HW218262   3.062   4.880   3.211 -2.6625 -2.9652 -0.2565
37008SOL     OW18263  12.297   3.098   8.799  0.1264  0.1333 -0.3956
37008SOL    HW118264  12.216   3.054   8.824  1.1291 -0.6924  1.6225
37008SOL    HW218265  12.353   3.028   8.765  0.5787  0.3927 -0.2020
37009SOL     OW18266   1.981   5.951   3.700  0.4027 -0.1432  0.0222
37009SOL    HW118267   1.896   5.993   3.691  0.9786  1.0584 -0.0525
37009SOL    HW218268   1.965   5.859   3.681 -0.6353  0.2920 -1.3106
37010SOL     OW18269   0.810   8.845   9.595 -0.1162  0.2951 -0.3114
37010SOL    HW118270   0.882   8.896   9.633  1.2660 -1.7245 -0.0709
37010SOL    HW218271   0.764   8.808   9.670  1.3497 -1.9911 -0.4389
37011SOL     OW18272  12.130   8.774   0.978  0.8202 -0.0682 -0.5880
37011SOL    HW118273  12.156   8.710   0.911 -0.3490 -0.6652 -0.5027
37011SOL    HW218274  12.138   8.725   1.061  0.2070 -0.0172 -0.4958
37012SOL     OW18275  10.400  10.404   6.257  0.7155  0.1800 -0.4520
37012SOL    HW118276  10.323  10.368   6.301 -0.5286  0.9784 -1.9005
37012SOL    HW218277  10.471  10.390   6.319 -0.5361 -0.8019  0.8309
37013SOL     OW18278   9.221   0.116  11.068 -0.6435  0.9216 -0.3070
37013SOL    HW118279   9.192   0.206  11.083  1.3620  1.6545 -0.4571
37013SOL    HW218280   9.312   0.115  11.099 -0.2089 -0.7015 -1.5201
37014SOL     OW18281  10.682   5.992   9.277  0.0315 -0.3895 -0.1481
37014SOL    HW118282  10.770   6.029   9.274  0.0989 -0.6197 -1.1057
37014SOL    HW218283  10.676   5.952   9.364  1.2855 -1.3592 -0.4805
37015SOL     OW18284  11.062  12.649   6.059 -0.1505  0.0809 -0.3334
37015SOL    HW118285  10.990  12.604   6.104 -1.2242  1.3681 -0.6940
37015SOL    HW218286  11.041  12.742   6.067  1.3007  0.4712 -0.7691
37016SOL     OW18287   8.013   7.280   8.015  0.0686  0.4323 -0.1501
37016SOL    HW118288   8.064   7.357   7.990  2.1154 -1.0019 -0.6450
37016SOL    HW218289   7.941   7.278   7.953 -0.0576  1.9570 -0.0923
37017SOL     OW18290   4.003  12.411   9.488  0.2535  0.4058  0.4089
37017SOL    HW118291   3.907  12.403   9.488  0.2623 -0.0924 -1.4102
37017SOL    HW218292   4.020  12.505   9.490 -0.2783  0.5073  0.1709
37018SOL     OW18293   4.436  11.252  11.355  0.3743  0.3840 -0.3782
37018SOL    HW118294   4.444  11.203  11.273 -1.7207  0.5286 -0.7117
37018SOL    HW218295   4.345  11.241  11.381  0.8650  0.7697  1.6971
37019SOL     OW18296  10.857   8.385  11.714 -0.2159 -0.1506 -0.1594
37019SOL    HW118297  10.879   8.477  11.728  0.0809 -0.4609  1.5875
37019SOL    HW218298  10.942   8.342  11.701 -0.3050 -0.3100 -0.2147
37020SOL     OW18299   7.983   5.783   9.207 -0.6215  0.1885  0.1864
37020SOL    HW118300   7.967   5.856   9.266 -0.1181  1.1483 -0.8299
37020SOL    HW218301   8.002   5.709   9.264 -0.2499  1.0647  1.2174
37021SOL     OW18302   8.828   6.369   1.764 -0.5831 -0.0308  0.4642
37021SOL    HW118303   8.734   6.351   1.767 -1.1162  2.1243 -1.0975
37021SOL    HW218304   8.843   6.405   1.677  1.8653 -1.0016  0.4135
37022SOL     OW18305   7.494   4.194   2.566  0.5122 -0.3862  0.4439
37022SOL    HW118306   7.517   4.103   2.547  1.6669  0.1062 -0.7272
37022SOL    HW218307   7.415   4.211   2.514  0.2721 -0.7329  0.6983
37023SOL     OW18308   2.935   7.899   4.930 -0.4954 -0.0105  0.0580
37023SOL    HW118309   2.877   7.824   4.926 -0.2467 -0.2459  0.7853
37023SOL    HW218310   2.934   7.934   4.841 -0.7438 -0.7680 -0.2471
37024SOL     OW18311   6.037   4.647   0.055 -0.3549 -0.1547 -0.5616
37024SOL    HW118312   6.062   4.604   0.137  1.2764 -0.3258 -1.1217
37024SOL    HW218313   5.966   4.592   0.020 -0.1562 -0.8366  0.0720
37025SOL     OW18314   8.755   3.324   8.016 -0.2327  0.0377 -0.7499
37025SOL    HW118315   8.787   3.413   8.026 -0.9160  0.2550 -0.4150
37025SOL    HW218316   8.826   3.269   8.049 -0.5328  0.5418  0.8364
37026SOL     OW18317   9.553   8.904   2.762 -0.2954  1.0262  0.5064
37026SOL    HW118318   9.570   8.886   2.670 -1.1466  2.9203 -0.0448
37026SOL    HW218319   9.603   8.836   2.808 -0.0462 -0.1080 -1.3205
37027SOL     OW18320   6.593  10.766   4.144 -0.0353  0.7153 -0.3341
37027SOL    HW118321   6.534  10.758   4.070  0.9382 -1.1713 -0.9903
37027SOL    HW218322   6.674  10.803   4.107  0.7796 -1.0933 -0.4883
37028SOL     OW18323   3.091   1.199   7.152  0.4140  0.4742 -0.1251
37028SOL    HW118324   3.021   1.148   7.193  0.4619  0.3504 -0.1987
37028SOL    HW218325   3.093   1.168   7.061  1.4185 -0.4341  0.1906
37029SOL     OW18326   9.230   7.085   9.756  0.2207 -0.2337  0.3179
37029SOL    HW118327   9.177   7.153   9.797 -0.8781  0.0206 -1.4091
37029SOL    HW218328   9.310   7.130   9.729  0.0996  0.0434  0.4167
37030SOL     OW18329   6.644   5.402   9.742  0.0504  0.2722  0.6061
37030SOL    HW118330   6.720   5.441   9.700 -1.3537  2.3103 -0.1733
37030SOL    HW218331   6.673   5.385   9.832  1.0948  2.0961  0.6594
37031SOL     OW18332   8.865   7.935  11.826 -0.0923 -0.1885 -0.4311
37031SOL    HW118333   8.882   7.973  11.739 -1.3624  0.0202 -0.6069
37031SOL    HW218334   8.911   7.993  11.887  0.3263 -0.0028 -0.9145
37032SOL     OW18335   9.739  11.291   4.426  0.9517 -0.2069  0.1004
37032SOL    HW118336   9.681  11.366   4.413  1.5139  0.5912  1.8528
37032SOL    HW218337   9.688  11.215   4.398  0.5417  0.8364 -2.1777
37033SOL     OW18338   7.591   0.507   5.025  0.1539 -0.3674  0.3163
37033SOL    HW118339   7.655   0.473   4.963 -0.2478 -1.0309  0.2576
37033SOL    HW218340   7.603   0.455   5.104 -2.4288 -2.7897 -0.7171
37034SOL     OW18341  11.215   5.646   5.188 -0.1469  0.7829 -0.2567
37034SOL    HW118342  11.183   5.733   5.212 -0.8820  0.7497 -1.0764
37034SOL    HW218343  11.147   5.610   5.131  0.2106 -0.2816 -0.0348
37035SOL     OW18344  10.374   4.142  12.599 -0.0399  0.2748  0.2575
37035SOL    HW118345  10.405   4.053  12.586  0.6552  0.3171  1.3958
37035SOL    HW218346  10.280   4.138  12.585  0.3437  0.0610 -2.9984
37036SOL     OW18347  12.637   1.265   6.078  0.1129 -1.5369  0.0781
37036SOL    HW118348  12.622   1.333   6.143 -1.5381 -1.8357  0.0633
37036SOL    HW218349  12.580   1.288   6.005  1.8031 -1.3042 -1.2265
37037SOL     OW18350   6.392   4.235   6.928 -0.3188  0.2355 -0.1121
37037SOL    HW118351   6.340   4.156   6.914 -0.4549  0.3215 -0.0933
37037SOL    HW218352   6.419   4.262   6.840  0.3192 -0.2288 -0.0625
37038SOL     OW18353   4.495   5.660   5.651  0.3960  0.2593  0.4705
37038SOL    HW118354   4.580   5.661   5.607 -0.1456 -1.3730 -0.6919
37038SOL    HW218355   4.506   5.720   5.725  2.4058  0.4213  0.0957
37039SOL     OW18356   5.419   8.491   1.994  0.4499 -0.1578 -0.5168
37039SOL    HW118357   5.362   8.491   1.917 -1.1964 -1.0983  0.6336
37039SOL    HW218358   5.419   8.582   2.023 -1.1083 -0.2513 -0.1262
37040SOL     OW18359   4.781   8.360   5.817  0.3644 -0.2516 -0.0403
37040SOL    HW118360   4.795   8.416   5.893  0.3575  0.7159 -0.7372
37040SOL    HW218361   4.811   8.412   5.743 -1.8284 -0.2089 -0.9849
37041SOL     OW18362   1.351   8.571   5.827  0.1970 -0.5533  0.5590
37041SOL    HW118363   1.277   8.558   5.886 -1.0126  0.7924 -0.5932
37041SOL    HW218364   1.312   8.606   5.746  2.1354  0.7117  0.1083
37042SOL     OW18365   1.274   7.070   5.493  0.3086  0.1715 -0.2752
37042SOL    HW118366   1.306   7.154   5.461 -1.7875  0.9275 -0.5382
37042SOL    HW218367   1.249   7.087   5.584 -2.1595  0.5032 -0.9395
37043SOL     OW18368   1.572   4.779   5.949  0.3189  0.2693  0.0305
37043SOL    HW118369   1.586   4.692   5.986  1.5119  0.6567  0.5583
37043SOL    HW218370   1.548   4.763   5.858  1.4430 -0.6111 -0.1433
37044SOL     OW18371   5.475   7.584   7.394 -0.0973 -0.0416  0.3282
37044SOL    HW118372   5.410   7.535   7.444 -0.2916  0.5362  0.6498
37044SOL    HW218373   5.424   7.627   7.325 -0.4730  2.2289  1.8857
37045SOL     OW18374  11.972   6.552   6.342 -0.0361  0.3857  0.0913
37045SOL    HW118375  11.994   6.546   6.249 -0.7721  1.3136 -0.1598
37045SOL    HW218376  11.883   6.517   6.348  0.0740  0.1755  0.4663
37046SOL     OW18377   9.158   0.848   1.023  0.0051 -0.0159  0.1492
37046SOL    HW118378   9.203   0.767   1.047 -3.0548 -1.1630  2.5304
37046SOL    HW218379   9.208   0.917   1.067  0.1496 -1.1198  1.7995
37047SOL     OW18380   5.338   6.903   3.092 -0.0114  0.1887 -0.2785
37047SOL    HW118381   5.320   6.845   3.018  1.6767 -0.6211 -0.1113
37047SOL    HW218382   5.262   6.893   3.149 -0.8599  0.0252 -1.3957
37048SOL     OW18383   8.014  11.160  10.889  0.5532  0.0958 -0.3964
37048SOL    HW118384   8.074  11.125  10.823 -0.1689 -0.1584 -0.9271
37048SOL    HW218385   7.950  11.211  10.839  0.2086  0.1960  0.1445
37049SOL     OW18386  11.123   2.959   9.937  0.0591  0.2328 -0.4649
37049SOL    HW118387  11.114   3.016   9.861  0.6478  0.0009 -0.7195
37049SOL    HW218388  11.128   3.019  10.012  0.2592  0.4982 -0.6877
37050SOL     OW18389  12.582   2.611  12.264  0.1033  0.3412 -0.4252
37050SOL    HW118390  12.663   2.656  12.240 -0.3461  1.6723  0.4306
37050SOL    HW218391  12.548   2.662  12.337 -0.4835 -1.3760  0.5497
37051SOL     OW18392  11.039   9.366   3.875 -0.3033 -0.1532 -0.1330
37051SOL    HW118393  11.133   9.374   3.887  0.0569 -2.5000 -0.9575
37051SOL    HW218394  11.010   9.305   3.943 -0.8816 -0.9492 -1.0611
37052SOL     OW18395   8.012   6.438   9.571  0.3602 -0.3002 -0.0603
37052SOL    HW118396   7.919   6.416   9.563  0.0530  0.5918  0.8647
37052SOL    HW218397   8.043   6.444   9.481 -0.1721 -1.8246 -0.3672
37053SOL     OW18398   4.697   0.835   9.290  0.0555  0.1159 -0.1544
37053SOL    HW118399   4.602   0.822   9.300  0.4375 -1.2881  2.3736
37053SOL    HW218400   4.721   0.891   9.363  1.0128  1.7365 -1.6394
37054SOL     OW18401   6.896  10.324   0.486  0.1975  0.3944  0.7962
37054SOL    HW118402   6.876  10.412   0.519  0.0724  0.9771 -0.7581
37054SOL    HW218403   6.859  10.322   0.398  2.5255 -0.2850 -0.2475
37055SOL     OW18404   9.481   6.336   4.792 -0.4268 -0.1807  0.4596
37055SOL    HW118405   9.393   6.299   4.793 -0.2123 -0.6928  0.5652
37055SOL    HW218406   9.539   6.261   4.810  0.0991 -0.0482 -0.6404
37056SOL     OW18407   1.923   7.510   7.913  0.1043 -0.1965 -0.3538
37056SOL    HW118408   1.964   7.557   7.985 -0.6108  0.5185 -0.3942
37056SOL    HW218409   1.975   7.430   7.903  1.1913  0.4616 -0.1127
37057SOL     OW18410   6.348   9.545  11.744  0.4403 -0.2137  0.3810
37057SOL    HW118411   6.354   9.545  11.840 -1.8534 -0.8584  0.5900
37057SOL    HW218412   6.291   9.471  11.724 -0.6653  1.0276 -1.3501
37058SOL     OW18413   3.521   0.286   3.273 -0.2728  0.7796 -0.6032
37058SOL    HW118414   3.614   0.311   3.276  0.1010 -0.5983  0.8729
37058SOL    HW218415   3.516   0.219   3.205 -0.1613  0.7740 -0.6057
37059SOL     OW18416   2.024   3.241   9.121 -0.7599  0.6291 -0.2613
37059SOL    HW118417   1.944   3.207   9.161 -0.3749  0.1435  0.1085
37059SOL    HW218418   2.006   3.334   9.107  0.1478  1.7023  4.0302
37060SOL     OW18419   2.200   2.737   1.862 -0.4422 -0.1671  0.1844
37060SOL    HW118420   2.130   2.756   1.799 -0.1573 -0.6722 -0.2916
37060SOL    HW218421   2.154   2.720   1.944 -0.8538 -0.0669 -0.0235
37061SOL     OW18422   9.131   9.348   9.463  0.0441 -0.0779  0.2639
37061SOL    HW118423   9.210   9.388   9.425 -0.1302 -1.9209 -2.3469
37061SOL    HW218424   9.164   9.282   9.523  0.4979 -0.2728 -0.1899
37062SOL     OW18425   3.019   4.600   4.977  0.1097 -0.2569  0.6007
37062SOL    HW118426   3.087   4.613   4.912  0.9267 -1.4347  1.1867
37062SOL    HW218427   2.941   4.642   4.940  0.9880  0.5798 -0.3464
37063SOL     OW18428   4.608   2.586   9.206  0.4771 -0.3815  0.0435
37063SOL    HW118429   4.686   2.563   9.257  0.5485 -0.9230 -0.2943
37063SOL    HW218430   4.538   2.592   9.271  0.2118 -2.6987  0.0649
37064SOL     OW18431   2.206   8.881  12.705 -0.1777 -0.6402  0.2345
37064SOL    HW118432   2.228   8.930  12.625  0.3686 -0.4747  0.4851
37064SOL    HW218433   2.239   8.936  12.776  0.2210 -1.2577  0.5274
37065SOL     OW18434   1.644  10.074   7.038  0.1038  0.2028 -0.0135
37065SOL    HW118435   1.689   9.998   7.003 -1.4896 -0.8508  0.1034
37065SOL    HW218436   1.552  10.048   7.040 -0.0815  0.4993  4.0654
37066SOL     OW18437  11.211   0.503   9.395  0.1914  0.3426  0.1646
37066SOL    HW118438  11.197   0.573   9.459  0.6575  0.8016 -0.2198
37066SOL    HW218439  11.124   0.490   9.355  0.1627  0.9409  0.0093
37067SOL     OW18440  10.110  11.233   2.498 -0.5070 -0.6019 -0.2434
37067SOL    HW118441  10.178  11.251   2.433 -1.4205  1.3136 -0.7665
37067SOL    HW218442  10.087  11.319   2.532 -1.0078 -1.4446  1.6703
37068SOL     OW18443   6.917  10.265   2.224 -0.1195 -0.9121 -0.0136
37068SOL    HW118444   6.940  10.337   2.165 -0.7262  0.2081  1.0698
37068SOL    HW218445   6.964  10.284   2.305  0.3310 -2.1770  0.0444
37069SOL     OW18446   2.794   2.413   6.709  0.2667 -0.3673 -0.3237
37069SOL    HW118447   2.839   2.497   6.698 -0.0665 -0.2078 -0.4764
37069SOL    HW218448   2.853   2.349   6.669 -0.3263  0.0324 -1.9152
37070SOL     OW18449   2.156   9.017   5.789 -0.1530 -0.1207 -0.2551
37070SOL    HW118450   2.164   8.975   5.704 -1.1241  0.2113 -0.5285
37070SOL    HW218451   2.115   9.102   5.770  1.9120  1.0680  0.2470
37071SOL     OW18452   0.152   3.097   3.416  0.5202 -0.3851 -0.5485
37071SOL    HW118453   0.200   3.069   3.338  0.8250 -0.8740 -0.1882
37071SOL    HW218454   0.166   3.192   3.420  2.7226 -0.6880  0.3784
37072SOL     OW18455   3.925   8.483   4.996 -0.0482 -0.0688 -0.0239
37072SOL    HW118456   3.861   8.468   5.066 -0.2287 -0.1469 -0.2038
37072SOL    HW218457   3.872   8.500   4.918  0.1339 -1.0777 -0.3823
37073SOL     OW18458   2.594  12.649  10.769 -0.3068 -0.2866  0.3386
37073SOL    HW118459   2.530  12.657  10.698  1.4384  1.2415 -1.1887
37073SOL    HW218460   2.645  12.572  10.746 -0.2496 -0.2548  0.3603
37074SOL     OW18461   4.007   1.425   2.984 -0.0169  0.3143  0.0971
37074SOL    HW118462   3.965   1.495   3.034  0.1202  1.2474 -1.0256
37074SOL    HW218463   4.098   1.426   3.014 -0.3007 -0.2539  0.9959
37075SOL     OW18464  10.364   2.336   0.614 -0.7412  0.0040  0.1496
37075SOL    HW118465  10.360   2.312   0.522  2.0149  1.2586 -0.3782
37075SOL    HW218466  10.328   2.425   0.618  1.8938  1.1890 -0.3374
37076SOL     OW18467   9.249   2.949   0.415 -0.2635 -0.3921  0.2213
37076SOL    HW118468   9.286   2.889   0.480  0.1526  1.1818  1.4984
37076SOL    HW218469   9.248   2.898   0.334 -0.7014 -2.3833  1.4136
37077SOL     OW18470   5.265  10.396   3.265 -0.4121 -0.4797  0.1367
37077SOL    HW118471   5.354  10.406   3.299  0.3991 -2.2951 -1.3213
37077SOL    HW218472   5.252  10.473   3.209  0.5136 -0.5444 -0.1903
37078SOL     OW18473  12.055   5.576  11.971 -0.4219  0.7218 -0.4514
37078SOL    HW118474  11.988   5.508  11.982  0.4330 -0.0080  0.4100
37078SOL    HW218475  12.138   5.531  11.989  0.3791  1.4632 -2.0353
37079SOL     OW18476  11.111   3.019   1.032 -0.0753 -0.4310 -0.0586
37079SOL    HW118477  11.119   3.110   1.060 -1.4140 -0.6946  1.3344
37079SOL    HW218478  11.106   2.969   1.114 -1.7653 -1.5033 -0.7642
37080SOL     OW18479  10.782   1.351   6.355  0.1598 -0.1837 -0.4349
37080SOL    HW118480  10.752   1.419   6.295 -1.0331 -0.7546 -0.5186
37080SOL    HW218481  10.877   1.357   6.352  0.0953  1.6826 -0.1959
37081SOL     OW18482  11.659   2.110   9.812  0.0887 -0.1220  0.0025
37081SOL    HW118483  11.724   2.112   9.742  0.1482 -0.6476  0.0417
37081SOL    HW218484  11.576   2.123   9.768  0.3324  2.3792  0.1346
37082SOL     OW18485   3.189   0.416   4.279  0.2255 -0.5784  0.2363
37082SOL    HW118486   3.196   0.355   4.205 -1.7442 -1.0083  0.3501
37082SOL    HW218487   3.132   0.371   4.342 -1.1172  1.2697  0.4202
37083SOL     OW18488   6.477   1.824   2.781 -0.4140 -0.1237 -0.3450
37083SOL    HW118489   6.485   1.915   2.809 -1.2223 -0.3331  0.6237
37083SOL    HW218490   6.551   1.810   2.722  1.5037  0.2663  1.8525
37084SOL     OW18491   8.719   8.046   8.227  0.5702  0.2013 -0.3136
37084SOL    HW118492   8.699   8.130   8.186  1.2686  0.7149  0.3831
37084SOL    HW218493   8.678   7.981   8.169 -0.0773  1.0178 -0.7894
37085SOL     OW18494  11.647   1.659   8.998  0.1751 -0.4680 -0.0361
37085SOL    HW118495  11.727   1.699   9.032  0.3595 -2.1913  1.7045
37085SOL    HW218496  11.667   1.641   8.906  1.4026  0.0712  0.0984
37086SOL     OW18497   7.681  10.759   0.782 -0.1276 -0.3052  0.0323
37086SOL    HW118498   7.605  10.777   0.838  0.4482  0.7300  0.5220
37086SOL    HW218499   7.700  10.666   0.797 -1.2250 -0.5454 -0.0162
37087SOL     OW18500   1.601   7.341   6.240  0.0329 -0.4827  0.1725
37087SOL    HW118501   1.521   7.299   6.208  0.2685 -1.1934  0.4910
37087SOL    HW218502   1.607   7.315   6.332  0.8536 -0.7969  0.0386
37088SOL     OW18503  10.859  11.863   8.753  0.3365 -0.3598  0.5928
37088SOL    HW118504  10.880  11.952   8.782  2.2931 -0.4944 -0.2424
37088SOL    HW218505  10.913  11.806   8.807 -0.6200 -1.0535  0.8611
37089SOL     OW18506   2.005   6.161  12.050 -0.4857 -0.1106 -0.2524
37089SOL    HW118507   1.958   6.184  12.130 -1.9818 -0.7653 -0.8889
37089SOL    HW218508   2.060   6.236  12.032 -0.0074 -0.0118  1.4615
37090SOL     OW18509   2.866   0.379   8.061 -0.0431 -0.0504 -0.0320
37090SOL    HW118510   2.926   0.452   8.045  1.4195 -1.0806  0.5393
37090SOL    HW218511   2.819   0.367   7.978  0.6724  0.6457 -0.5502
37091SOL     OW18512   6.502   0.954   3.436 -0.0417 -0.4563  0.3321
37091SOL    HW118513   6.541   0.871   3.460 -1.4757 -1.4681 -0.6618
37091SOL    HW218514   6.515   0.962   3.342 -1.1460 -0.2683  0.1729
37092SOL     OW18515   1.282  10.866   1.224  0.3210 -0.3055  0.7474
37092SOL    HW118516   1.240  10.809   1.159 -0.1926  0.1036  0.7167
37092SOL    HW218517   1.219  10.937   1.238  1.5557  1.0835 -0.3469
37093SOL     OW18518   7.161   7.503  11.529 -0.1322  0.1366 -0.6848
37093SOL    HW118519   7.151   7.559  11.606  2.0610  0.0776 -0.3056
37093SOL    HW218520   7.242   7.454  11.545  0.3952  0.1377 -3.0277
37094SOL     OW18521  10.934   7.792  11.091 -0.0553  0.3979 -0.2924
37094SOL    HW118522  10.990   7.849  11.038 -0.0188  1.0128  0.3966
37094SOL    HW218523  10.989   7.718  11.114 -0.4321 -0.5268 -2.1630
37095SOL     OW18524   0.831   5.573   2.050  0.2400 -0.5695 -0.1976
37095SOL    HW118525   0.751   5.558   2.100 -0.4416  1.0521 -0.7510
37095SOL    HW218526   0.860   5.485   2.026 -1.4511 -1.2048 -0.0972
37096SOL     OW18527  11.394   6.529   7.115  0.2187  0.6012  0.4100
37096SOL    HW118528  11.441   6.458   7.072 -0.8151 -0.3183  0.7523
37096SOL    HW218529  11.352   6.488   7.190 -0.5502  1.5375  0.5140
37097SOL     OW18530  10.955   6.410   1.721  0.2584 -0.0473 -0.1564
37097SOL    HW118531  10.872   6.454   1.704  0.1088  0.2574  1.2141
37097SOL    HW218532  10.959   6.339   1.657  0.2625  1.6190 -2.0850
37098SOL     OW18533   1.466   3.221  10.746  0.5752 -0.2005  0.0852
37098SOL    HW118534   1.453   3.286  10.815  0.2380 -0.9721  0.7714
37098SOL    HW218535   1.475   3.138  10.793  2.2683 -0.5001 -0.7051
37099SOL     OW18536   5.526   7.328   1.827  0.5122  0.1024  0.1281
37099SOL    HW118537   5.599   7.340   1.766  0.6697 -1.1893  0.0163
37099SOL    HW218538   5.554   7.255   1.883 -0.4063  0.0409  0.5286
37100SOL     OW18539   7.756  12.197  11.595  0.1283 -0.0411  0.0600
37100SOL    HW118540   7.730  12.237  11.678  0.8858  0.2510  0.1632
37100SOL    HW218541   7.776  12.271  11.538 -1.4388 -0.2056 -0.7515
37101SOL     OW18542   8.660   0.091   5.313 -0.3019 -0.2995 -0.0408
37101SOL    HW118543   8.656   0.010   5.262 -1.4134  0.4785 -1.2242
37101SOL    HW218544   8.634   0.064   5.401 -0.0251 -1.3492 -0.2616
37102SOL     OW18545   9.933  11.134   8.989 -0.8232  0.3327  0.0596
37102SOL    HW118546  10.020  11.170   8.972 -1.4724  1.9088 -0.0971
37102SOL    HW218547   9.929  11.055   8.935 -0.5666  1.8504 -2.3319
37103SOL     OW18548   7.749   2.834   1.722 -0.1446 -0.1646  0.3129
37103SOL    HW118549   7.724   2.816   1.813 -0.9624 -1.7586 -0.2037
37103SOL    HW218550   7.725   2.926   1.709 -2.0431 -0.5058  1.0679
37104SOL     OW18551   2.405  12.623   9.390  0.1414  0.1268 -0.1778
37104SOL    HW118552   2.315  12.631   9.423 -0.4861  0.9563 -1.9134
37104SOL    HW218553   2.419  12.704   9.340  0.6347 -1.3599 -2.6514
37105SOL     OW18554  12.582   3.185   6.656 -0.7842  0.2630  0.2734
37105SOL    HW118555  12.623   3.237   6.726 -0.4456 -0.3668  0.5541
37105SOL    HW218556  12.557   3.103   6.699  1.0080 -0.8551 -0.7005
37106SOL     OW18557   7.678   8.824   3.898  0.6826 -0.4130 -0.7076
37106SOL    HW118558   7.654   8.899   3.844 -1.8199 -1.3409 -1.0645
37106SOL    HW218559   7.739   8.773   3.844 -0.6685 -0.5973 -2.1449
37107SOL     OW18560   0.089   5.671  10.187 -0.2026  0.2217 -0.4691
37107SOL    HW118561   0.018   5.645  10.128  0.3357 -1.2928 -0.5123
37107SOL    HW218562   0.133   5.743  10.142  1.0328 -1.7433 -2.6953
37108SOL     OW18563   1.339   6.272   9.686  0.1503  0.7766 -0.0986
37108SOL    HW118564   1.257   6.298   9.645  0.7788  1.8249 -0.7239
37108SOL    HW218565   1.382   6.355   9.709  0.4769  0.2360  1.3618
37109SOL     OW18566   6.208  10.942   1.125 -0.0093  0.4942  0.3965
37109SOL    HW118567   6.176  11.019   1.172  0.3586  0.3164  0.9408
37109SOL    HW218568   6.257  10.892   1.190 -0.8966 -0.6068  0.2544
37110SOL     OW18569   1.634   1.523   1.945 -0.2922 -0.4373  0.0111
37110SOL    HW118570   1.646   1.429   1.960  0.0426 -0.2499  0.9981
37110SOL    HW218571   1.569   1.528   1.875  1.1096 -1.4251 -1.4388
37111SOL     OW18572  11.092   2.798   0.060 -0.4665 -0.3159 -0.4536
37111SOL    HW118573  10.999   2.780   0.073 -0.2287 -0.6307  0.8540
37111SOL    HW218574  11.114   2.862   0.128  0.7547 -1.8379  0.6349
37112SOL     OW18575   8.805   0.139   7.033 -0.2842  0.7709  0.2051
37112SOL    HW118576   8.807   0.145   6.937  2.0437 -0.2299  0.1254
37112SOL    HW218577   8.828   0.049   7.052 -0.4283  1.0263  1.7435
37113SOL     OW18578   7.519   4.625   2.978 -0.4327 -0.0030 -0.0469
37113SOL    HW118579   7.431   4.587   2.971 -0.6706  0.1918  1.4931
37113SOL    HW218580   7.563   4.572   3.046  0.7410 -0.2684 -0.9819
37114SOL     OW18581   8.123  11.441   8.455 -0.1836 -0.1284  0.1000
37114SOL    HW118582   8.130  11.496   8.376 -1.1586 -0.7598 -0.4527
37114SOL    HW218583   8.073  11.494   8.517 -0.0741  0.0726  0.0182
37115SOL     OW18584   6.253   2.073   6.181  0.2867 -0.2301 -0.3273
37115SOL    HW118585   6.213   2.017   6.247 -0.3050 -1.7884 -1.9376
37115SOL    HW218586   6.338   2.034   6.164  0.0179 -0.4581 -1.2064
37116SOL     OW18587   4.897   2.532   6.412 -0.0446  0.3755  0.3283
37116SOL    HW118588   4.917   2.579   6.331  1.0773  0.7563  0.7952
37116SOL    HW218589   4.819   2.575   6.446  0.2707  1.1230  0.1362
37117SOL     OW18590   8.620   6.683   5.626  0.1073 -0.0605  0.1029
37117SOL    HW118591   8.548   6.709   5.569  0.3305 -1.2745 -0.7588
37117SOL    HW218592   8.696   6.727   5.590  0.0745 -0.0314  0.0691
37118SOL     OW18593   9.620   0.574   4.765 -0.4683 -0.8314  0.3109
37118SOL    HW118594   9.701   0.524   4.763 -1.0125 -1.8235  1.4709
37118SOL    HW218595   9.580   0.560   4.679  1.4622  1.2888 -1.0479
37119SOL     OW18596   2.904  12.482   7.774  0.3266 -0.0919 -0.3017
37119SOL    HW118597   2.955  12.425   7.831  0.4775  1.1354  0.8270
37119SOL    HW218598   2.966  12.549   7.745  0.0071 -0.1390 -1.1299
37120SOL     OW18599   4.659   4.877   2.624 -0.0707  0.2312  0.0061
37120SOL    HW118600   4.671   4.965   2.587  2.4994 -0.2086 -0.3936
37120SOL    HW218601   4.574   4.881   2.666 -0.1740  2.8290 -0.2442
37121SOL     OW18602   0.468  11.135  11.499  0.0773 -0.0521  0.5805
37121SOL    HW118603   0.382  11.102  11.477 -0.5049  0.8726  1.3528
37121SOL    HW218604   0.529  11.070  11.465 -1.0126 -2.4176  2.8336
37122SOL     OW18605   9.321   8.331   0.358  0.1243  0.0900 -0.8355
37122SOL    HW118606   9.381   8.269   0.400  0.3929  1.0276  0.2004
37122SOL    HW218607   9.375   8.409   0.341 -0.6476  0.7194 -0.4526
37123SOL     OW18608  10.451   5.692   2.779  0.4442  0.2712  0.3311
37123SOL    HW118609  10.358   5.698   2.760  0.5848 -1.1560 -0.9553
37123SOL    HW218610  10.467   5.763   2.841 -2.0546 -1.1527  2.8488
37124SOL     OW18611  10.645   1.123   8.213 -0.6075  0.0010 -0.1464
37124SOL    HW118612  10.708   1.144   8.144  0.8099  0.3621  1.1999
37124SOL    HW218613  10.674   1.038   8.247 -0.5260  0.3986  0.8153
37125SOL     OW18614   0.377   1.262   2.841  0.9226 -0.3296  0.2357
37125SOL    HW118615   0.469   1.285   2.855  0.8077 -0.7101  1.7850
37125SOL    HW218616   0.332   1.294   2.918 -0.0668 -1.1489  0.0232
37126SOL     OW18617   6.090  12.581  11.887 -0.2697 -0.2155 -0.4602
37126SOL    HW118618   6.109  12.585  11.981  0.5729 -1.0466 -0.5717
37126SOL    HW218619   6.030  12.653  11.871 -1.2109 -0.6520  0.9011
37127SOL     OW18620   9.757  10.593   5.108  0.4149  0.0133  0.5120
37127SOL    HW118621   9.717  10.665   5.158 -0.6734 -0.4456  0.3295
37127SOL    HW218622   9.688  10.527   5.103  0.9228 -0.4475 -0.5707
37128SOL     OW18623   1.371   4.486   9.409  0.3096  0.0079  0.0349
37128SOL    HW118624   1.428   4.417   9.444  0.4052 -0.0402 -0.2094
37128SOL    HW218625   1.341   4.452   9.325  1.0219  0.6066 -0.4780
37129SOL     OW18626   9.737  12.097   2.816  0.1940  0.4580 -0.0420
37129SOL    HW118627   9.702  12.178   2.779 -0.4991 -0.0532 -0.5398
37129SOL    HW218628   9.674  12.030   2.790  1.6007 -0.5200 -1.0482
37130SOL     OW18629  11.349   2.456   9.376 -0.6617 -0.0483 -0.0616
37130SOL    HW118630  11.288   2.466   9.449 -2.4980  0.3358 -1.5868
37130SOL    HW218631  11.374   2.364   9.378  0.3319  0.2062  1.7695
37131SOL     OW18632   1.113   0.398   1.777  0.1951 -0.0710  0.0113
37131SOL    HW118633   1.083   0.380   1.866  0.1890  0.9021  0.2219
37131SOL    HW218634   1.035   0.392   1.723  0.3515 -1.5550 -0.0832
37132SOL     OW18635  10.013   9.617   7.266 -0.7330  0.6734 -0.0404
37132SOL    HW118636   9.991   9.608   7.359  0.5687 -1.0227  0.1622
37132SOL    HW218637  10.023   9.527   7.235 -1.0022  1.2150 -1.8080
37133SOL     OW18638   0.800   3.792   6.285  0.7068 -0.0151 -0.2286
37133SOL    HW118639   0.769   3.783   6.376  0.6868  0.2577 -0.2076
37133SOL    HW218640   0.725   3.767   6.232  0.9300 -0.8379 -0.1664
37134SOL     OW18641   1.621   6.715   5.827  0.5458  0.2560 -0.0718
37134SOL    HW118642   1.680   6.770   5.774  0.8137  0.4758  0.4398
37134SOL    HW218643   1.588   6.649   5.766  0.4635  0.7976 -0.6255
37135SOL     OW18644   2.763  10.811   3.991  0.3264  0.3282 -0.0147
37135SOL    HW118645   2.699  10.815   4.062  0.5810 -0.6210  0.2769
37135SOL    HW218646   2.800  10.723   3.996  0.9576  0.5339 -0.7961
37136SOL     OW18647  11.983   1.188   2.165  0.2014 -0.3916 -0.2638
37136SOL    HW118648  11.947   1.237   2.092  1.2802  0.5896 -0.1682
37136SOL    HW218649  12.062   1.237   2.191 -1.3037  0.6180  3.0219
37137SOL     OW18650  11.758   0.741   4.239 -0.7763  0.4270  0.1411
37137SOL    HW118651  11.692   0.799   4.201 -0.7067  0.3277 -0.1373
37137SOL    HW218652  11.778   0.680   4.168  0.0113  0.7891  0.0444
37138SOL     OW18653   7.476  12.608   0.196  0.1930 -0.8515  0.3495
37138SOL    HW118654   7.500  12.516   0.188 -0.3772 -0.9565 -0.1969
37138SOL    HW218655   7.550  12.648   0.243  1.2815 -1.2153 -0.9958
37139SOL     OW18656   6.329   5.427   8.559 -0.1301 -0.4460 -0.1529
37139SOL    HW118657   6.304   5.369   8.630 -0.4485 -1.3599 -0.9916
37139SOL    HW218658   6.260   5.494   8.559  0.0206 -0.2824  0.5620
37140SOL     OW18659  11.833  10.375   4.329 -0.4816 -0.0315 -0.5854
37140SOL    HW118660  11.776  10.333   4.265 -0.9473 -0.8002  0.2966
37140SOL    HW218661  11.885  10.437   4.279 -0.6571 -0.7940 -1.7446
37141SOL     OW18662   8.145   1.601   5.278 -0.2483 -0.1713  0.0383
37141SOL    HW118663   8.107   1.520   5.242  1.6781 -0.2297 -2.0567
37141SOL    HW218664   8.201   1.634   5.208  2.0552  0.9027  2.2561
37142SOL     OW18665   5.847   1.088   1.404  0.0848 -0.5110  0.5365
37142SOL    HW118666   5.854   1.145   1.481 -1.5818  0.5575 -0.0342
37142SOL    HW218667   5.796   1.139   1.341 -0.6493 -2.2640 -0.3803
37143SOL     OW18668   7.546   3.501  10.285 -0.4039 -0.1905 -0.6697
37143SOL    HW118669   7.553   3.544  10.370 -0.6194  0.3124 -0.8961
37143SOL    HW218670   7.465   3.535  10.248 -0.8875 -1.2503 -0.6182
37144SOL     OW18671   3.459   6.776   1.024  0.0542 -0.2605 -0.8347
37144SOL    HW118672   3.376   6.806   1.061  0.2316  1.3553 -1.6460
37144SOL    HW218673   3.505   6.737   1.098 -0.6134  0.6517  0.0945
37145SOL     OW18674   8.597   9.686  12.271 -0.1380  0.3906 -0.1250
37145SOL    HW118675   8.531   9.622  12.245 -0.9483  1.0614  0.2386
37145SOL    HW218676   8.629   9.655  12.355 -0.1190  0.1618 -0.2162
37146SOL     OW18677   2.039   5.862   5.028 -0.4561 -0.3271 -0.4881
37146SOL    HW118678   2.074   5.777   5.056 -1.2421 -0.2997  0.6330
37146SOL    HW218679   2.113   5.922   5.036 -0.3114 -0.5974  0.2742
37147SOL     OW18680   3.465   4.426  10.464 -0.7593 -0.0180  0.6499
37147SOL    HW118681   3.519   4.470  10.399 -2.0416  0.4024 -0.1627
37147SOL    HW218682   3.507   4.446  10.548  1.6039 -1.5470 -0.0673
37148SOL     OW18683   6.983   1.756   9.803 -0.4069  0.0010  0.0710
37148SOL    HW118684   6.989   1.817   9.876  0.0215  0.0295  0.0160
37148SOL    HW218685   7.068   1.712   9.801 -0.9478 -1.1137  0.5531
37149SOL     OW18686  10.943   2.933   4.218 -0.8018 -0.2260  0.0092
37149SOL    HW118687  10.996   2.959   4.294 -1.4364 -0.2629  0.4748
37149SOL    HW218688  10.973   2.989   4.147 -1.2537  0.8829  0.6691
37150SOL     OW18689  11.211   9.808   6.733 -0.0981 -0.1055 -0.6182
37150SOL    HW118690  11.229   9.827   6.825  0.5004 -1.2672 -0.4679
37150SOL    HW218691  11.144   9.739   6.735  0.8255 -1.0527 -0.9886
37151SOL     OW18692   6.868   6.552   7.597 -0.2131 -0.1926  0.0373
37151SOL    HW118693   6.838   6.488   7.661  0.3502  0.4735  0.9912
37151SOL    HW218694   6.954   6.579   7.628  1.0101 -1.3608 -2.1392
37152SOL     OW18695   1.457   3.296  10.118  0.2536 -0.1397  0.1122
37152SOL    HW118696   1.498   3.221  10.077  0.6361 -0.2897  0.7536
37152SOL    HW218697   1.517   3.321  10.188  0.1999  0.8468 -0.1768
37153SOL     OW18698   4.161   3.492  11.595  0.1448  0.8837 -0.1879
37153SOL    HW118699   4.148   3.468  11.687  0.8308 -0.8251 -0.4871
37153SOL    HW218700   4.238   3.442  11.568  0.7621  2.3788 -1.3491
37154SOL     OW18701  11.715   6.032   3.123  0.7892  0.4788  0.1405
37154SOL    HW118702  11.793   5.999   3.168 -0.4802 -0.3677  1.8445
37154SOL    HW218703  11.708   5.978   3.044  1.8563  0.4863  0.0366
37155SOL     OW18704   9.661   5.649   5.372 -0.0565 -0.2616  0.2810
37155SOL    HW118705   9.572   5.629   5.344 -0.6956  2.2120  0.2673
37155SOL    HW218706   9.674   5.741   5.348  2.4216 -0.4636  0.5143
37156SOL     OW18707   2.712  10.423   0.381  0.2257  0.2943 -0.4058
37156SOL    HW118708   2.732  10.438   0.474 -0.5368  0.1464 -0.2116
37156SOL    HW218709   2.735  10.332   0.365  0.1896  0.2692 -0.3132
37157SOL     OW18710   9.038   3.363  10.243  0.1437 -0.6493 -0.0606
37157SOL    HW118711   9.066   3.367  10.334  0.7262 -0.3421 -0.2446
37157SOL    HW218712   8.944   3.344  10.247  0.3295 -1.4879  0.5803
37158SOL     OW18713   8.190   8.344   9.288 -0.4602  0.7353 -0.4745
37158SOL    HW118714   8.281   8.353   9.318 -0.3018 -0.3297 -0.5704
37158SOL    HW218715   8.175   8.421   9.233  0.8081  0.3083 -1.4873
37159SOL     OW18716   0.241   3.142  12.656 -0.0492  0.0482  0.1827
37159SOL    HW118717   0.332   3.114  12.663  0.7985  2.7531  1.1544
37159SOL    HW218718   0.191   3.065  12.682  1.9331 -1.4120 -0.0324
37160SOL     OW18719   2.161   7.065   9.566  0.4141 -0.2293 -0.1864
37160SOL    HW118720   2.200   7.036   9.649 -2.1206 -0.1572  1.1407
37160SOL    HW218721   2.067   7.069   9.584 -0.0196  2.0714 -2.4095
37161SOL     OW18722   6.119   2.982   3.664  0.8804 -0.0613 -0.7077
37161SOL    HW118723   6.184   2.914   3.648  0.4847 -0.4063 -0.8749
37161SOL    HW218724   6.037   2.946   3.630  0.7150  0.6104 -1.0418
37162SOL     OW18725   6.049   2.556  12.025 -0.0149 -0.0725  0.0224
37162SOL    HW118726   6.054   2.554  12.121 -0.0873  0.2514  0.0342
37162SOL    HW218727   5.974   2.612  12.006  0.0007 -0.1353 -0.2239
37163SOL     OW18728   2.436   9.316  11.596 -0.4494  0.7280 -0.2121
37163SOL    HW118729   2.445   9.223  11.573  0.0589  0.4097  1.2046
37163SOL    HW218730   2.433   9.317  11.691 -0.4035  2.1781 -0.2123
37164SOL     OW18731  11.311   1.341  11.361  0.1897  0.1184  0.2397
37164SOL    HW118732  11.258   1.275  11.317  1.4353  0.0364 -1.1940
37164SOL    HW218733  11.399   1.328  11.327  0.5379  2.2754  0.2163
37165SOL     OW18734   9.430   4.037  10.543  0.4158 -0.4607  0.2162
37165SOL    HW118735   9.448   3.959  10.597 -1.1917 -2.2096 -1.6005
37165SOL    HW218736   9.455   4.011  10.455  1.8951  1.9332 -0.1421
37166SOL     OW18737   6.901   2.090   0.183  0.3070  0.3707  0.5268
37166SOL    HW118738   6.825   2.043   0.217  0.6404 -0.3074  0.3408
37166SOL    HW218739   6.965   2.086   0.254  0.3205  0.5873  0.5277
37167SOL     OW18740  10.694   3.226   5.829 -0.0580  0.2973 -0.7477
37167SOL    HW118741  10.787   3.230   5.805  0.1017  1.8617  0.0213
37167SOL    HW218742  10.693   3.211   5.923 -0.6190 -0.8061 -0.9137
37168SOL     OW18743   6.103   1.855   4.428  0.3594 -0.8375 -0.5939
37168SOL    HW118744   6.103   1.773   4.477 -0.6054 -0.3030  0.3365
37168SOL    HW218745   6.195   1.881   4.423  0.6344 -1.7992 -0.6179
37169SOL     OW18746   4.447   7.275   4.263 -0.5266 -0.1935  0.5899
37169SOL    HW118747   4.510   7.226   4.316  0.6045  1.0078  0.4027
37169SOL    HW218748   4.380   7.210   4.239  1.5263 -1.9777 -0.6988
37170SOL     OW18749   8.238   6.360   5.259  0.3221 -0.3001 -0.1014
37170SOL    HW118750   8.290   6.358   5.339  0.4761 -1.9318 -0.2187
37170SOL    HW218751   8.288   6.414   5.199 -0.1737  1.6344  1.1168
37171SOL     OW18752  12.556   9.931   2.041  0.0180 -0.0746  0.2710
37171SOL    HW118753  12.535   9.898   1.953  0.4907 -0.0475  0.1466
37171SOL    HW218754  12.565  10.025   2.029  0.9563 -0.1712  0.1744
37172SOL     OW18755  11.355   3.847   9.863  0.2854  0.5733 -0.4283
37172SOL    HW118756  11.384   3.757   9.853 -0.4646  0.4006 -1.1453
37172SOL    HW218757  11.264   3.840   9.890  0.3063  1.1112 -0.2131
37173SOL     OW18758   5.839   5.021   5.090  0.1604  0.0208 -0.1552
37173SOL    HW118759   5.761   4.995   5.139 -2.0934  0.3890 -3.2568
37173SOL    HW218760   5.844   4.960   5.017  1.6003  1.2680 -1.1814
37174SOL     OW18761   8.314   1.052  10.234 -0.4013  0.1043 -0.1003
37174SOL    HW118762   8.295   1.069  10.141  3.0124  1.6561 -0.6895
37174SOL    HW218763   8.298   1.136  10.277 -0.1835 -0.0974  0.3722
37175SOL     OW18764   5.781   5.243   9.575  0.0606  0.0638 -0.0251
37175SOL    HW118765   5.705   5.185   9.583  0.7834 -0.9336 -0.1993
37175SOL    HW218766   5.831   5.229   9.655  0.5633 -0.0471 -0.3502
37176SOL     OW18767  11.978   8.289  10.899 -0.1818 -0.3258 -0.7027
37176SOL    HW118768  11.963   8.311  10.807 -0.9816  0.3509 -0.4267
37176SOL    HW218769  11.991   8.194  10.898 -0.1671 -0.3300 -1.5132
37177SOL     OW18770   9.508   3.026   1.558 -0.6006 -0.0517 -0.4532
37177SOL    HW118771   9.566   3.067   1.494 -1.2469  0.1757 -0.8961
37177SOL    HW218772   9.548   3.046   1.643 -0.2729  0.4803 -0.7301
37178SOL     OW18773   5.594   5.221   3.825  0.2507 -0.1255  0.3413
37178SOL    HW118774   5.533   5.294   3.835  1.1594  0.8582 -0.8582
37178SOL    HW218775   5.631   5.233   3.737  0.0186 -2.3764 -0.1091
37179SOL     OW18776  11.713  12.645   1.199 -0.3613  0.3716 -0.4363
37179SOL    HW118777  11.766  12.572   1.233 -0.0629  0.8523  0.1505
37179SOL    HW218778  11.777  12.703   1.156 -0.0409  1.9746  2.0069
37180SOL     OW18779   6.565  11.714   2.297  0.5345  0.4879  0.7360
37180SOL    HW118780   6.624  11.676   2.231 -0.6521  0.8977 -0.6209
37180SOL    HW218781   6.494  11.650   2.305 -0.4597  1.4377 -0.0849
37181SOL     OW18782   2.902  11.537  11.139 -0.2727  0.0323 -0.4041
37181SOL    HW118783   2.901  11.629  11.113  0.8823  0.1967  0.0511
37181SOL    HW218784   2.952  11.493  11.071 -1.6596 -0.4525 -1.1415
37182SOL     OW18785   2.672   3.194  11.719  0.5869  0.1248 -0.3101
37182SOL    HW118786   2.584   3.205  11.754 -0.0992 -0.0785 -1.8775
37182SOL    HW218787   2.674   3.251  11.642  3.1006  3.0820  1.6799
37183SOL     OW18788   9.076   5.075   3.005 -0.3824  0.3587  0.0084
37183SOL    HW118789   9.144   5.068   3.072 -0.0475  0.4681 -0.3135
37183SOL    HW218790   8.996   5.047   3.048 -0.2418  0.8031  0.5705
37184SOL     OW18791   4.454   6.355  12.651  0.3666 -0.3418  0.2318
37184SOL    HW118792   4.418   6.444  12.648  0.5238 -0.3014 -0.4151
37184SOL    HW218793   4.529   6.357  12.592  1.1713 -0.5551  1.2176
37185SOL     OW18794   2.332  12.426   3.149  0.5685  0.1576 -0.3132
37185SOL    HW118795   2.313  12.430   3.242  0.5757  0.7649 -0.3328
37185SOL    HW218796   2.349  12.517   3.124  2.8725 -0.2264 -0.4081
37186SOL     OW18797   0.852   3.450   0.653 -0.6736  0.4210 -0.1565
37186SOL    HW118798   0.859   3.395   0.575 -0.1372 -1.2701  1.0055
37186SOL    HW218799   0.895   3.532   0.629  0.6015 -0.5228 -1.2584
37187SOL     OW18800   0.184   0.957   6.277 -0.1265 -0.0600 -0.2594
37187SOL    HW118801   0.166   0.915   6.193  0.8420 -0.1021 -0.4573
37187SOL    HW218802   0.276   0.984   6.271  0.1400 -0.5991  1.0072
37188SOL     OW18803   3.931   8.674   5.519 -0.0531  0.6613  0.0747
37188SOL    HW118804   4.011   8.622   5.531 -0.3206  0.1482 -0.3384
37188SOL    HW218805   3.946   8.723   5.438 -0.0341  0.7926  0.1577
37189SOL     OW18806   9.720   9.531  10.430  0.2821  0.2242  0.2578
37189SOL    HW118807   9.651   9.556  10.369  1.4659 -1.3091 -1.8467
37189SOL    HW218808   9.757   9.615  10.460  0.3383  1.0733 -1.9933
37190SOL     OW18809  12.191   0.641   3.227 -0.3129 -0.2776  0.3707
37190SOL    HW118810  12.113   0.641   3.283 -0.5506  0.8512  0.0677
37190SOL    HW218811  12.236   0.723   3.250 -0.3328  0.1295 -0.9701
37191SOL     OW18812   8.420  11.537  11.929  0.3147  0.0452 -0.1436
37191SOL    HW118813   8.501  11.500  11.965 -0.0132 -1.0531 -0.4870
37191SOL    HW218814   8.350  11.500  11.983 -0.0721 -0.4110 -0.9470
37192SOL     OW18815   1.172   2.552   1.466  0.3198  0.0152  0.3441
37192SOL    HW118816   1.192   2.462   1.442  0.9269 -0.2905  1.8662
37192SOL    HW218817   1.118   2.585   1.394  1.3537 -1.0610 -0.9805
37193SOL     OW18818   2.532   9.491   6.321 -0.2989  0.3979 -0.6290
37193SOL    HW118819   2.505   9.466   6.410 -0.1663  3.0151  0.2235
37193SOL    HW218820   2.580   9.415   6.289 -0.9116 -0.8861  1.2716
37194SOL     OW18821   6.332   9.831   3.500 -0.2543  0.0657 -0.0643
37194SOL    HW118822   6.242   9.863   3.488  0.0276  0.5636 -0.9087
37194SOL    HW218823   6.330   9.742   3.464 -0.2097  0.3892 -0.9011
37195SOL     OW18824   2.397   3.974   6.678  0.2277  0.0827 -0.4415
37195SOL    HW118825   2.472   3.975   6.738  1.5113 -0.3909 -1.9487
37195SOL    HW218826   2.417   3.904   6.616 -1.5588 -0.1426 -0.8106
37196SOL     OW18827   7.904   9.503   2.450 -0.3628  0.2593 -0.1692
37196SOL    HW118828   8.000   9.506   2.454 -0.3941  1.3224  0.0161
37196SOL    HW218829   7.884   9.522   2.359 -0.3802 -1.1336 -0.4833
37197SOL     OW18830  11.126   5.813   2.719  0.2344  0.1513 -0.3983
37197SOL    HW118831  11.148   5.901   2.751 -1.9219  0.1477  1.2764
37197SOL    HW218832  11.056   5.828   2.655 -0.4142 -0.3438  0.1803
37198SOL     OW18833   7.646   9.520   2.473  0.2570  0.1179 -0.4369
37198SOL    HW118834   7.741   9.516   2.481  0.2511  0.1417 -0.3578
37198SOL    HW218835   7.613   9.488   2.557  0.1991  1.0922 -0.0743
37199SOL     OW18836   3.058  10.439   2.186  0.0703 -0.3501 -0.0594
37199SOL    HW118837   3.004  10.380   2.133 -2.5849  2.9468 -1.4171
37199SOL    HW218838   3.046  10.408   2.276 -3.2094 -0.5824 -0.4252
37200SOL     OW18839   9.526   6.391  10.801 -0.2283  0.3612  0.8410
37200SOL    HW118840   9.454   6.377  10.861 -0.2402  0.0136  0.7493
37200SOL    HW218841   9.485   6.401  10.715 -0.1063 -1.1195  0.5857
37201SOL     OW18842  10.542   0.516  10.131 -0.1534  0.1793 -0.4055
37201SOL    HW118843  10.520   0.605  10.158 -1.3498 -0.7519  1.9797
37201SOL    HW218844  10.467   0.463  10.158  1.9721 -2.0865  1.5682
37202SOL     OW18845   8.904   4.441   4.862  0.3340  0.4174  0.1019
37202SOL    HW118846   8.985   4.463   4.906  0.1586 -0.4297  0.8772
37202SOL    HW218847   8.877   4.357   4.900 -1.5496  1.2611  0.7922
37203SOL     OW18848  10.639   5.266   1.205 -0.0269 -0.5617 -0.2521
37203SOL    HW118849  10.548   5.290   1.186  0.1811  0.5473  0.0816
37203SOL    HW218850  10.687   5.349   1.202  0.8392 -1.0239  0.3370
37204SOL     OW18851   8.590   2.427   4.419 -0.0528 -0.1231 -0.2588
37204SOL    HW118852   8.548   2.446   4.503 -1.0092  1.7510 -1.1004
37204SOL    HW218853   8.629   2.341   4.430 -0.2974  0.0167  2.0519
37205SOL     OW18854  12.507   4.592  11.133 -0.1626 -0.5103  0.6235
37205SOL    HW118855  12.471   4.663  11.186  0.8761  0.3839  0.1825
37205SOL    HW218856  12.600   4.589  11.158  0.1834 -0.5362 -0.6189
37206SOL     OW18857   4.411   4.054  10.459 -0.5374  0.2021 -0.7855
37206SOL    HW118858   4.375   4.051  10.371 -1.0685 -2.3358 -0.5589
37206SOL    HW218859   4.352   4.000  10.511  0.6802  0.3026  0.7698
37207SOL     OW18860   1.342   0.800   1.903  0.8070  0.2673  0.0935
37207SOL    HW118861   1.297   0.766   1.980 -1.2776 -1.8881 -1.8921
37207SOL    HW218862   1.434   0.781   1.917  0.2559 -1.7691  1.2753
37208SOL     OW18863   1.007   9.729  11.620 -0.1761  0.4970 -0.4255
37208SOL    HW118864   1.054   9.691  11.546  1.2649  1.6555 -0.1376
37208SOL    HW218865   0.997   9.655  11.681 -1.2619 -0.4336 -1.6572
37209SOL     OW18866   4.095   4.156   4.613  0.0989 -0.1038 -0.0241
37209SOL    HW118867   4.075   4.173   4.705 -0.8644 -0.2252 -0.2028
37209SOL    HW218868   4.073   4.064   4.600 -0.9366  0.2170 -0.6634
37210SOL     OW18869   3.032   1.718   8.945 -0.0322 -0.1108 -0.5878
37210SOL    HW118870   3.115   1.756   8.976  0.3956 -0.8654 -0.7740
37210SOL    HW218871   2.977   1.714   9.023  0.7530 -1.2502 -0.0666
37211SOL     OW18872   6.361   6.803   6.570  0.9644  0.1851  0.3120
37211SOL    HW118873   6.343   6.850   6.489 -0.8935 -0.6034  0.2383
37211SOL    HW218874   6.321   6.857   6.639 -1.2992 -1.2455  0.2153
37212SOL     OW18875   1.999   3.098   3.758 -0.4317  0.2264  0.2959
37212SOL    HW118876   1.935   3.123   3.825 -0.7293  0.1112  0.0558
37212SOL    HW218877   2.023   3.007   3.780 -1.5722 -0.2969 -0.5593
37213SOL     OW18878   9.662   7.008   2.078 -0.2596  0.1777 -0.7150
37213SOL    HW118879   9.664   7.086   2.134  1.8535  0.5778 -1.2594
37213SOL    HW218880   9.641   7.042   1.991 -0.9736 -0.0967 -0.6543
37214SOL     OW18881   5.651   9.325   6.151  0.1611  0.5864 -0.3636
37214SOL    HW118882   5.655   9.389   6.222 -0.5098 -1.0736  1.2308
37214SOL    HW218883   5.620   9.245   6.192  0.0165 -0.5213 -2.4967
37215SOL     OW18884   5.478   2.989   2.294 -0.1886  0.1406 -0.0817
37215SOL    HW118885   5.487   3.057   2.227  0.7108  0.5465  0.4359
37215SOL    HW218886   5.541   3.013   2.362 -0.0107 -1.0901  0.2156
37216SOL     OW18887   1.088   3.951   9.800 -0.5758 -0.2139  0.2518
37216SOL    HW118888   1.014   3.893   9.817  0.5688 -1.1850  2.2539
37216SOL    HW218889   1.063   4.035   9.839 -2.4338  0.9348 -3.0640
37217SOL     OW18890   0.134   4.991   3.245  0.0029 -0.5781 -0.1079
37217SOL    HW118891   0.074   4.997   3.171  0.1671 -0.1088 -0.2070
37217SOL    HW218892   0.221   5.004   3.207  0.4551 -3.5729 -0.3472
37218SOL     OW18893   8.940   5.585   3.368  0.1766 -0.3671  0.6888
37218SOL    HW118894   8.998   5.515   3.399 -1.7565 -2.7646 -0.7757
37218SOL    HW218895   8.927   5.567   3.275 -0.9983  1.5229  0.4217
37219SOL     OW18896   0.363   0.149   7.578 -0.1940  0.4182 -0.1029
37219SOL    HW118897   0.336   0.217   7.517 -1.0283 -0.1584 -0.3963
37219SOL    HW218898   0.324   0.174   7.662  1.0393  1.2656  0.2445
37220SOL     OW18899  10.939   6.458   1.264 -0.3895  0.1454 -0.6965
37220SOL    HW118900  10.845   6.466   1.280 -0.0916  0.7536  0.9046
37220SOL    HW218901  10.972   6.548   1.266  0.3119 -0.1013 -0.7450
37221SOL     OW18902   4.824   5.716   0.356  0.3866 -0.2998 -0.1490
37221SOL    HW118903   4.843   5.787   0.418 -2.1188  0.7772 -0.5154
37221SOL    HW218904   4.770   5.654   0.405 -1.0196  0.2051 -1.0102
37222SOL     OW18905   3.171   5.218   0.539  0.0872 -0.0283  0.3876
37222SOL    HW118906   3.245   5.275   0.521  0.3523  0.4860  2.7289
37222SOL    HW218907   3.211   5.135   0.567 -0.2651 -0.4769 -0.4071
37223SOL     OW18908  10.572   9.298   0.602  0.4865 -0.0485 -0.0651
37223SOL    HW118909  10.518   9.227   0.567 -1.3137  1.7269 -1.1168
37223SOL    HW218910  10.641   9.254   0.652  1.1092 -2.6434 -2.9141
37224SOL     OW18911   6.998   5.781  12.518 -0.6532  0.1997 -0.0656
37224SOL    HW118912   6.976   5.729  12.595  0.2816 -1.8895 -1.1418
37224SOL    HW218913   6.943   5.860  12.526 -3.6809 -1.8014  0.6461
37225SOL     OW18914  12.628  10.436   1.793 -0.2446  0.3654  0.3859
37225SOL    HW118915  12.705  10.421   1.849  0.2924 -1.7303 -0.7812
37225SOL    HW218916  12.662  10.487   1.719  0.0385 -0.4514 -0.0660
37226SOL     OW18917   8.219   6.062   4.597  0.3034 -0.1015  0.4658
37226SOL    HW118918   8.259   6.147   4.616 -0.7019  0.2760  0.9686
37226SOL    HW218919   8.293   6.003   4.584  1.0617  1.1860 -1.5425
37227SOL     OW18920   0.685  12.656  10.999  0.6305 -0.8845  0.0028
37227SOL    HW118921   0.779  12.661  10.981  0.3604  0.8670 -1.1639
37227SOL    HW218922   0.658  12.574  10.957  1.1769  0.0058 -2.2901
37228SOL     OW18923   2.474   0.180   9.339 -0.2122 -0.1151  0.4455
37228SOL    HW118924   2.386   0.216   9.351 -0.3413 -0.0881 -0.5111
37228SOL    HW218925   2.519   0.199   9.421 -0.6362  1.1836  0.3978
37229SOL     OW18926   4.528   1.420   7.921 -0.3334  0.7006 -0.0530
37229SOL    HW118927   4.453   1.480   7.913 -0.4030  0.7596  0.8865
37229SOL    HW218928   4.520   1.384   8.010  0.3339  0.1355 -0.2149
37230SOL     OW18929  11.821   3.069   7.025  0.2435 -0.0549  0.2658
37230SOL    HW118930  11.916   3.064   7.028  0.1661 -1.1978  0.9922
37230SOL    HW218931  11.802   3.161   7.045  1.1746  0.1157  0.4233
37231SOL     OW18932   1.322  12.225   4.692  0.7189  0.1523  0.0286
37231SOL    HW118933   1.346  12.270   4.774  1.1515  1.2566 -0.6742
37231SOL    HW218934   1.261  12.285   4.649 -0.9287 -1.2287  0.3358
37232SOL     OW18935   1.005   4.246  12.285 -0.4539 -0.6346 -0.5285
37232SOL    HW118936   0.913   4.243  12.257  0.0305 -0.1023 -2.2731
37232SOL    HW218937   1.003   4.216  12.376 -2.5228  0.6337 -0.0940
37233SOL     OW18938   1.980   2.914   1.755  0.0870  0.8268 -0.5896
37233SOL    HW118939   1.920   2.974   1.799 -2.0418 -0.4029 -1.6649
37233SOL    HW218940   1.934   2.830   1.754  2.4560 -0.5674 -0.2071
37234SOL     OW18941   2.772   0.378   2.003  0.5220  0.5581  0.1366
37234SOL    HW118942   2.681   0.351   1.994  0.6600  0.1176  0.0348
37234SOL    HW218943   2.771   0.472   1.987  0.0873  0.5528  0.1294
37235SOL     OW18944   7.913   7.723   7.295 -0.2507 -0.1835 -0.0386
37235SOL    HW118945   7.901   7.814   7.322 -1.3525 -0.7060  1.3529
37235SOL    HW218946   7.997   7.698   7.334 -0.2831  0.0331  0.1778
37236SOL     OW18947   5.585   1.141  12.166 -0.5073 -0.5999 -0.6556
37236SOL    HW118948   5.524   1.069  12.177  0.0891 -0.9537  0.4636
37236SOL    HW218949   5.650   1.129  12.235 -1.0181  1.6444  0.3149
37237SOL     OW18950   3.406  12.587   4.878  0.3352 -0.2395 -0.1007
37237SOL    HW118951   3.470  12.654   4.855  1.1441 -1.4778 -1.7062
37237SOL    HW218952   3.332  12.602   4.818 -0.4083  0.4792  0.9649
37238SOL     OW18953   9.205   2.533  11.623  0.4553  0.4513  0.0705
37238SOL    HW118954   9.250   2.457  11.584  0.1393  0.8146 -1.0487
37238SOL    HW218955   9.260   2.608  11.601 -0.9152  0.9853 -1.8304
37239SOL     OW18956  10.284   3.443  12.303 -0.4961  0.3446 -0.3354
37239SOL    HW118957  10.239   3.514  12.349 -1.3413 -0.9740  0.9607
37239SOL    HW218958  10.355   3.487  12.256 -1.7917  2.2215 -0.6823
37240SOL     OW18959  10.207   7.772   2.120 -0.6354 -0.2959 -0.2873
37240SOL    HW118960  10.238   7.682   2.135 -2.3258 -0.9493 -0.4776
37240SOL    HW218961  10.287   7.824   2.111  0.3774 -1.6840  0.3862
37241SOL     OW18962  11.383   4.969   3.425 -0.2292 -0.2005 -0.2000
37241SOL    HW118963  11.313   4.934   3.369  0.7581 -1.7851 -0.5186
37241SOL    HW218964  11.397   4.902   3.491  2.6720 -1.2022 -1.6370
37242SOL     OW18965   8.913   7.098   1.643  0.0098 -0.0607  0.0020
37242SOL    HW118966   8.908   7.013   1.600  0.9926  0.6812 -1.6568
37242SOL    HW218967   8.997   7.133   1.616 -0.3921  1.4720  0.6527
37243SOL     OW18968   5.404   5.526   0.265  0.0663  0.1154 -0.3884
37243SOL    HW118969   5.313   5.522   0.295  0.3811 -0.1769  0.5368
37243SOL    HW218970   5.403   5.478   0.182 -0.4554 -0.6918  0.0643
37244SOL     OW18971   5.974   9.821   2.527  0.1138  0.3734  0.0977
37244SOL    HW118972   5.996   9.805   2.435  0.2229  0.8159  0.0449
37244SOL    HW218973   5.971   9.734   2.566 -1.3557  0.0685 -0.6343
37245SOL     OW18974   3.515   2.677   4.327  0.1249  0.5372  0.1443
37245SOL    HW118975   3.509   2.714   4.415 -1.0314 -0.0812  0.3491
37245SOL    HW218976   3.484   2.747   4.270 -0.7453  0.3736  0.4024
37246SOL     OW18977  11.612  11.076   6.736  0.1620 -0.6237 -0.5389
37246SOL    HW118978  11.651  11.003   6.687 -0.1725 -0.1765 -1.4924
37246SOL    HW218979  11.682  11.141   6.742  0.2749 -0.7747 -0.2147
37247SOL     OW18980  12.083   7.065  11.694 -0.0235  0.1236 -0.0455
37247SOL    HW118981  12.064   7.133  11.630 -0.4265  0.5387  0.5074
37247SOL    HW218982  12.020   7.079  11.764  0.6917 -0.0530  0.6474
37248SOL     OW18983   8.934   8.699   5.589 -0.3503 -0.3332 -0.2355
37248SOL    HW118984   9.022   8.661   5.590 -0.1342  0.1283 -1.0141
37248SOL    HW218985   8.943   8.784   5.631 -0.2208  0.1093 -1.1215
37249SOL     OW18986   0.262   0.223   4.284  0.0435  0.0867 -0.2688
37249SOL    HW118987   0.309   0.276   4.349  0.3716 -0.5594  0.0254
37249SOL    HW218988   0.236   0.286   4.217 -0.1463  0.7370  0.3980
37250SOL     OW18989  10.214   6.506   9.937 -0.6287  0.2537  0.2385
37250SOL    HW118990  10.197   6.600   9.943  0.2490  0.3618  1.2238
37250SOL    HW218991  10.175   6.480   9.853  1.6224  2.0566 -1.4740
37251SOL     OW18992   6.150   0.150   9.765  0.4287  0.3018 -0.2958
37251SOL    HW118993   6.083   0.215   9.783  0.7440  1.9992 -4.2701
37251SOL    HW218994   6.224   0.200   9.731  1.3861 -1.9804 -1.8300
37252SOL     OW18995  10.298  11.269   3.568 -0.5284  0.3994 -0.1378
37252SOL    HW118996  10.340  11.186   3.588 -0.6637  0.2387 -0.5228
37252SOL    HW218997  10.221  11.272   3.624 -0.7010  0.1191 -0.3612
37253SOL     OW18998  10.076   1.155   6.377  0.7473 -0.3183  0.8099
37253SOL    HW118999  10.111   1.165   6.465 -0.8603  0.2858  1.4165
37253SOL    HW219000  10.051   1.063   6.371  0.6901 -0.3190  1.0535
37254SOL     OW19001   2.019   7.566  12.568 -0.5972 -0.3546  0.5479
37254SOL    HW119002   2.107   7.549  12.603 -0.3692  2.0749  1.3172
37254SOL    HW219003   1.976   7.618  12.636 -0.9456  2.6378 -1.7465
37255SOL     OW19004   5.117   1.451   1.390 -0.3887  0.5762 -0.0708
37255SOL    HW119005   5.112   1.468   1.296  1.3475 -1.3682 -0.6128
37255SOL    HW219006   5.067   1.370   1.403 -1.6970  1.5007  0.9519
37256SOL     OW19007  11.856   1.857   6.855  0.3722 -0.1047 -0.0380
37256SOL    HW119008  11.884   1.925   6.916  0.1321  0.6837 -0.7975
37256SOL    HW219009  11.848   1.901   6.771 -1.5115 -0.6634 -0.2031
37257SOL     OW19010   6.167   2.777   3.326  0.4108 -0.3309  0.6700
37257SOL    HW119011   6.145   2.795   3.235 -0.7455 -2.0841  0.5398
37257SOL    HW219012   6.203   2.688   3.325 -0.5960 -0.7996  2.0188
37258SOL     OW19013  10.809   3.968   2.876  0.0618  0.2532  0.7221
37258SOL    HW119014  10.806   3.907   2.950  1.4014  0.9137  1.3370
37258SOL    HW219015  10.717   3.992   2.862 -0.8572 -3.6027 -1.0239
37259SOL     OW19016   3.951  10.911   4.326 -0.2602  0.8752  0.6303
37259SOL    HW119017   4.041  10.899   4.355  0.6735 -0.8083 -2.5677
37259SOL    HW219018   3.956  10.978   4.258 -0.6299 -1.7782 -2.2405
37260SOL     OW19019   0.347   0.273   9.965 -0.1722 -0.2716 -0.4202
37260SOL    HW119020   0.284   0.246  10.031 -1.9971  0.4088 -1.7952
37260SOL    HW219021   0.294   0.318   9.899  2.0051  1.9743 -0.7610
37261SOL     OW19022   3.929   7.572   9.538  0.8999 -0.8063  0.3480
37261SOL    HW119023   3.933   7.647   9.478  2.9514 -0.1374  1.2276
37261SOL    HW219024   3.848   7.585   9.587  0.5649  0.1193 -0.4332
37262SOL     OW19025   3.655   4.869   6.968 -0.0081  0.0388 -0.1031
37262SOL    HW119026   3.631   4.943   6.913 -0.0939 -0.7785 -1.1731
37262SOL    HW219027   3.727   4.903   7.022  1.6210  0.2239 -2.2776
37263SOL     OW19028  10.666  12.681  11.872  0.4396  0.1935  0.0198
37263SOL    HW119029  10.756  12.652  11.875 -0.0456 -1.3806  0.0799
37263SOL    HW219030  10.633  12.649  11.788 -0.6119 -0.9855  0.8477
37264SOL     OW19031  12.569   9.316   6.628  0.0401  0.0124 -0.2489
37264SOL    HW119032  12.510   9.242   6.612 -1.6750  1.2424  0.0601
37264SOL    HW219033  12.570   9.326   6.723 -1.4400  1.6223 -0.3470
37265SOL     OW19034   7.632   5.709  10.252  0.3884 -0.5959 -0.3822
37265SOL    HW119035   7.710   5.713  10.197 -0.0185 -1.6248 -1.0686
37265SOL    HW219036   7.578   5.639  10.213 -0.5426 -0.4037  0.5014
37266SOL     OW19037   8.974   6.550   5.605  0.3362 -0.5241  0.1253
37266SOL    HW119038   9.020   6.608   5.544 -0.9880 -0.5905 -0.9776
37266SOL    HW219039   8.949   6.474   5.552  0.1951 -1.1412  1.0441
37267SOL     OW19040   7.172   2.801  12.400 -0.6671  0.2911  0.4856
37267SOL    HW119041   7.096   2.765  12.445 -0.6088  1.0333  1.2015
37267SOL    HW219042   7.136   2.864  12.338 -0.6108  1.0753  1.2396
37268SOL     OW19043  11.985   3.311   6.182 -0.4587  0.1306  0.0938
37268SOL    HW119044  12.041   3.272   6.249 -0.2527  0.4073  0.0836
37268SOL    HW219045  11.899   3.269   6.194  0.0516 -1.2190 -0.6799
37269SOL     OW19046   8.551   8.488  10.869 -0.1132 -0.1149  0.0561
37269SOL    HW119047   8.624   8.443  10.912 -0.4061 -0.2685  0.3953
37269SOL    HW219048   8.571   8.482  10.775  0.3099 -0.1553  0.1475
37270SOL     OW19049  11.171  12.073   2.742 -0.4193  0.4662 -0.0645
37270SOL    HW119050  11.225  12.044   2.816  0.6875 -0.5048 -1.1890
37270SOL    HW219051  11.168  12.168   2.750 -0.7771  0.3497  1.5084
37271SOL     OW19052   6.586   2.097   2.353  0.2659 -0.5291 -0.4721
37271SOL    HW119053   6.555   2.008   2.339  1.5143 -1.0411 -0.1130
37271SOL    HW219054   6.634   2.093   2.436 -1.0200  0.8453  0.3912
37272SOL     OW19055   0.464  10.262   1.458  0.6919 -0.3656  0.5168
37272SOL    HW119056   0.463  10.181   1.408  2.9145 -0.1466 -0.0044
37272SOL    HW219057   0.381  10.262   1.507 -0.7743 -1.4065 -1.8219
37273SOL     OW19058   1.983  12.616  12.388  0.4030 -0.5237  0.1980
37273SOL    HW119059   1.978  12.560  12.466  0.4665 -0.5455  0.1865
37273SOL    HW219060   2.059  12.584  12.340  0.4430 -0.4224  0.1952
37274SOL     OW19061   6.154  12.323   4.687  0.1459 -0.2343  0.8373
37274SOL    HW119062   6.147  12.252   4.751  1.4901 -0.9283  0.2642
37274SOL    HW219063   6.097  12.296   4.615  2.1184 -1.8096 -0.2652
37275SOL     OW19064   3.117   6.459   2.511 -0.3215 -0.0302  0.1229
37275SOL    HW119065   3.157   6.491   2.591  0.3828 -2.8755  0.9968
37275SOL    HW219066   3.026   6.441   2.535 -0.1486 -0.7407  0.2703
37276SOL     OW19067   6.216   9.337  11.002  0.4536 -0.4750 -0.6456
37276SOL    HW119068   6.274   9.330  11.078 -0.7662 -1.2453  0.2530
37276SOL    HW219069   6.209   9.431  10.985  0.0413 -0.2283  0.7728
37277SOL     OW19070   1.240   0.409   9.290 -0.1215  0.4458  0.2741
37277SOL    HW119071   1.223   0.404   9.384  0.6485  0.7667  0.4359
37277SOL    HW219072   1.188   0.338   9.252  0.1716 -0.1854  1.0285
37278SOL     OW19073   3.361   4.214   0.121  0.3550  0.0044  0.7122
37278SOL    HW119074   3.314   4.294   0.097  0.3657  0.1806  1.2470
37278SOL    HW219075   3.439   4.215   0.066 -0.5895 -0.6579 -0.7007
37279SOL     OW19076   4.962   3.847   2.777  0.2245 -0.5357 -0.2837
37279SOL    HW119077   4.905   3.885   2.710  1.1618 -2.5344 -2.3347
37279SOL    HW219078   5.049   3.883   2.758  0.5016 -1.1347 -0.1929
37280SOL     OW19079   0.884   0.144   1.943 -0.1907  0.0430  0.1885
37280SOL    HW119080   0.933   0.211   1.990  1.5852  0.3792 -1.9757
37280SOL    HW219081   0.794   0.178   1.941  0.2727  1.3873  0.8526
37281SOL     OW19082  12.608   1.234  11.809 -0.8291 -0.9116  0.1459
37281SOL    HW119083  12.566   1.303  11.757  0.0701 -0.6920 -0.3249
37281SOL    HW219084  12.609   1.158  11.751  0.7344 -0.4923 -0.4432
37282SOL     OW19085   1.613   6.930  12.439 -0.1089  0.2299 -0.2077
37282SOL    HW119086   1.686   6.960  12.492  0.0532 -2.4521  1.2805
37282SOL    HW219087   1.549   6.898  12.502 -0.2947 -2.2644 -1.5357
37283SOL     OW19088   9.941   2.443  10.218  0.7327 -0.0463 -0.0850
37283SOL    HW119089  10.016   2.455  10.160  0.7512 -0.6900 -0.2004
37283SOL    HW219090   9.916   2.532  10.243  0.3330  0.2825 -1.5605
37284SOL     OW19091   3.954   2.570   5.632  0.0210  0.0028 -0.1930
37284SOL    HW119092   3.995   2.590   5.716 -0.0003 -0.8894  0.0442
37284SOL    HW219093   3.992   2.485   5.607  0.1414  0.3316 -1.1577
37285SOL     OW19094  11.374   0.723   4.171 -0.5494  0.6734 -0.2563
37285SOL    HW119095  11.395   0.671   4.093  2.3702 -0.8912  1.3967
37285SOL    HW219096  11.445   0.788   4.176 -1.4785  1.6725  0.3660
37286SOL     OW19097  11.346  10.861   8.105 -0.4214 -0.6472 -0.1283
37286SOL    HW119098  11.420  10.886   8.161 -2.0184 -0.2409  1.9296
37286SOL    HW219099  11.341  10.766   8.115 -0.9093 -0.5417  0.7489
37287SOL     OW19100  10.746   9.239   1.315  0.0226 -0.1349  0.0671
37287SOL    HW119101  10.816   9.180   1.285  0.6995  1.2097 -1.1332
37287SOL    HW219102  10.733   9.299   1.241 -1.9937  0.0248  0.5096
37288SOL     OW19103  12.437   6.743  10.517  0.0710  0.2919  0.1858
37288SOL    HW119104  12.474   6.761  10.604 -1.5589  0.7462  0.8282
37288SOL    HW219105  12.398   6.826  10.490  0.4953  0.1352 -0.9690
37289SOL     OW19106   2.702   0.495   2.574  0.2921 -0.3289  0.3738
37289SOL    HW119107   2.753   0.460   2.647  1.3767 -0.9563 -0.6557
37289SOL    HW219108   2.707   0.427   2.506 -0.6768  0.2499 -0.3017
37290SOL     OW19109  10.368   1.646   0.808 -0.1095  0.0679 -0.7541
37290SOL    HW119110  10.353   1.552   0.797 -1.1607  0.0380  0.6049
37290SOL    HW219111  10.315   1.687   0.740  1.6421 -0.3342 -2.4319
37291SOL     OW19112   3.969   2.843  11.448 -0.2240 -0.5142 -0.1341
37291SOL    HW119113   4.013   2.830  11.364 -1.3815  2.2890 -1.3009
37291SOL    HW219114   3.914   2.920  11.434 -0.1326  0.3226  3.3626
37292SOL     OW19115  10.560   5.198   3.569  0.3895  0.3430 -0.5298
37292SOL    HW119116  10.631   5.220   3.509  0.9275  0.2225  0.0372
37292SOL    HW219117  10.486   5.252   3.541  0.9850  1.1626 -0.5707
37293SOL     OW19118   3.254   1.972   0.889  0.1209 -0.4296  0.3138
37293SOL    HW119119   3.321   2.033   0.920 -0.1438 -0.5761  1.1825
37293SOL    HW219120   3.304   1.900   0.851  0.4402  0.0267 -0.1440
37294SOL     OW19121   8.816   7.896  12.428 -0.7065 -0.0141 -0.1901
37294SOL    HW119122   8.791   7.839  12.355 -0.8832 -2.4423  1.6489
37294SOL    HW219123   8.739   7.950  12.444 -1.1665 -0.4367 -0.9281
37295SOL     OW19124   1.655  11.807  10.332  0.2731 -0.6960  0.2308
37295SOL    HW119125   1.657  11.790  10.426  1.2520 -1.2364  0.1288
37295SOL    HW219126   1.617  11.728  10.294  2.2040 -1.5828 -0.0058
37296SOL     OW19127   5.428   2.308   9.023  0.0839  0.0178  0.4361
37296SOL    HW119128   5.380   2.377   8.976 -0.7046  1.1208  2.6951
37296SOL    HW219129   5.491   2.356   9.078 -0.9599 -0.9471  2.5986
37297SOL     OW19130   3.495   3.525  10.244  0.3053  0.0368 -0.1966
37297SOL    HW119131   3.430   3.456  10.230 -0.6146  0.7644  0.3854
37297SOL    HW219132   3.526   3.546  10.156 -0.8199  0.2020 -0.5769
37298SOL     OW19133   1.031   4.195   9.954  0.6525 -0.5469  0.6808
37298SOL    HW119134   1.030   4.148  10.037  0.1902  0.2725  1.1482
37298SOL    HW219135   1.072   4.279   9.973  0.1298 -0.1673  0.1883
37299SOL     OW19136   9.945   0.046   7.931  0.0377  0.1492  0.1499
37299SOL    HW119137   9.921   0.059   7.840 -2.9664  0.7964  0.9358
37299SOL    HW219138  10.009  -0.025   7.929 -1.7140 -1.5030 -2.2823
37300SOL     OW19139   7.945   4.856   8.250  0.7432  0.5293  0.2530
37300SOL    HW119140   7.877   4.914   8.215  0.8710  0.3444 -0.3129
37300SOL    HW219141   8.016   4.916   8.274  0.7787  0.6353 -0.1027
37301SOL     OW19142   2.397  12.576  11.897  0.5859  0.2097  0.0290
37301SOL    HW119143   2.389  12.482  11.879  1.3515  0.0939  0.2503
37301SOL    HW219144   2.326  12.595  11.958  0.5820 -0.2802  0.1808
37302SOL     OW19145   2.209   9.839   6.374  0.4150 -0.2740 -0.2477
37302SOL    HW119146   2.133   9.805   6.329  0.7867 -0.2547 -0.9027
37302SOL    HW219147   2.220   9.928   6.340 -0.5004  0.5159  1.3848
37303SOL     OW19148  12.191   6.156   9.204 -0.5700  0.4721  0.6285
37303SOL    HW119149  12.234   6.127   9.124 -0.4251  0.2116  0.7993
37303SOL    HW219150  12.189   6.251   9.197 -0.9233  0.4302  0.1298
37304SOL     OW19151  10.617   3.333   1.607 -0.0977 -0.0581  0.0066
37304SOL    HW119152  10.673   3.355   1.532  0.6406 -2.2768 -0.1760
37304SOL    HW219153  10.542   3.288   1.569 -1.2066  1.3831  0.4046
37305SOL     OW19154   7.935   6.525  12.217 -0.2044 -0.2635 -0.4167
37305SOL    HW119155   8.014   6.471  12.222 -1.0100 -1.3975  0.7368
37305SOL    HW219156   7.870   6.477  12.269 -1.0790  1.6401  0.3364
37306SOL     OW19157   4.240   6.028   0.762 -0.1970 -0.3046  0.3204
37306SOL    HW119158   4.153   6.039   0.724 -0.3065  0.1966  0.7111
37306SOL    HW219159   4.236   5.943   0.807  0.0412 -1.0715 -1.0605
37307SOL     OW19160   7.817   9.273   5.812  0.0170  0.2224 -0.4189
37307SOL    HW119161   7.812   9.358   5.856  0.9408 -0.2627  0.6646
37307SOL    HW219162   7.810   9.295   5.719 -0.0663  1.4518 -0.1473
37308SOL     OW19163  12.679   5.684  11.514 -0.3258 -0.1016 -0.7311
37308SOL    HW119164  12.611   5.751  11.520  0.6855  0.8745  0.2404
37308SOL    HW219165  12.726   5.705  11.433 -1.1179 -0.7554 -1.3842
37309SOL     OW19166   2.602  11.982   3.351  0.1399  0.2132  0.1806
37309SOL    HW119167   2.691  11.964   3.319 -0.3495 -1.1434 -0.4679
37309SOL    HW219168   2.602  12.077   3.367  1.4356  0.3854 -0.6292
37310SOL     OW19169   3.220   2.212   3.280 -0.6219  0.7269  0.5925
37310SOL    HW119170   3.131   2.177   3.280  0.5370 -2.6729 -0.4702
37310SOL    HW219171   3.263   2.169   3.354  1.1363 -1.0180 -1.3017
37311SOL     OW19172  10.508   0.431   9.860  0.5294 -0.6104  0.1108
37311SOL    HW119173  10.562   0.380   9.920 -0.3232 -0.1405  1.3084
37311SOL    HW219174  10.468   0.499   9.914 -0.2680 -0.1718 -0.9814
37312SOL     OW19175   8.732   9.443   7.875  0.2729  0.0293 -0.5494
37312SOL    HW119176   8.746   9.537   7.865 -0.9506  0.4710  1.3096
37312SOL    HW219177   8.657   9.436   7.935  0.8514 -2.1269  0.0296
37313SOL     OW19178  10.294   9.782   9.980  0.5606 -0.7704 -0.5079
37313SOL    HW119179  10.276   9.700   9.934 -0.3983 -0.4621 -0.6963
37313SOL    HW219180  10.218   9.837   9.963  0.6225 -0.2880  0.6364
37314SOL     OW19181   5.725   2.437   0.326  0.1577 -0.0536 -0.2302
37314SOL    HW119182   5.759   2.494   0.257 -1.2493 -0.5243 -1.3773
37314SOL    HW219183   5.766   2.352   0.308 -0.8860 -0.4080 -1.1013
37315SOL     OW19184   1.530  12.291   3.986 -0.0274 -0.1195  0.4505
37315SOL    HW119185   1.566  12.334   3.909 -0.3314  1.7378  1.2884
37315SOL    HW219186   1.604  12.281   4.046  0.1416 -1.2575  0.0752
37316SOL     OW19187   0.661   4.968   0.386 -0.1017 -0.3224 -0.1294
37316SOL    HW119188   0.746   5.013   0.384 -0.3113  0.1129  0.4660
37316SOL    HW219189   0.596   5.038   0.385 -0.4950 -0.6745 -1.6295
37317SOL     OW19190   6.369   1.044  12.559  0.3758 -0.0786 -0.0209
37317SOL    HW119191   6.282   1.070  12.530  0.4251 -1.4413 -1.5349
37317SOL    HW219192   6.365   1.048  12.655 -0.9082  1.1791 -0.1048
37318SOL     OW19193   3.365   5.332   3.774 -0.1021  0.5978  0.4533
37318SOL    HW119194   3.381   5.394   3.703 -0.8591 -0.3181 -0.5574
37318SOL    HW219195   3.286   5.285   3.747  0.4270 -0.7786  1.2048
37319SOL     OW19196   8.410  10.727   9.266 -0.1357 -0.2602 -0.2213
37319SOL    HW119197   8.364  10.728   9.182 -2.3572 -0.4075  0.9267
37319SOL    HW219198   8.502  10.711   9.242 -0.6942 -0.4087 -2.5923
37320SOL     OW19199  10.485   3.007   1.436  0.1618  0.0774  0.6026
37320SOL    HW119200  10.399   3.021   1.397 -0.6498  1.3000  2.6465
37320SOL    HW219201  10.542   2.989   1.362 -1.8825 -1.0653 -0.8005
37321SOL     OW19202  12.384   1.604  11.938  0.2333 -0.0283 -0.7028
37321SOL    HW119203  12.432   1.560  11.867  2.1795  1.6207 -0.4978
37321SOL    HW219204  12.452   1.649  11.988 -1.2954  0.3105  1.1884
37322SOL     OW19205   0.150   4.628  10.116 -0.8852  0.3786  0.3344
37322SOL    HW119206   0.143   4.661  10.206  0.1159 -2.3356  1.5013
37322SOL    HW219207   0.064   4.590  10.098 -0.7044 -0.1620  0.6104
37323SOL     OW19208  11.768  11.801   5.876  0.0448 -0.0132  0.2260
37323SOL    HW119209  11.832  11.730   5.875 -0.3292 -0.3509 -0.4875
37323SOL    HW219210  11.694  11.767   5.826 -0.9962  0.0988  1.6301
37324SOL     OW19211   6.781   4.638  11.942  0.0772 -0.4940 -0.4114
37324SOL    HW119212   6.712   4.600  11.996 -0.0404 -0.3093 -0.4284
37324SOL    HW219213   6.838   4.682  12.004  0.2640 -0.7762 -0.3836
37325SOL     OW19214   1.965  12.363   4.600  0.6066  0.9029 -0.6626
37325SOL    HW119215   1.905  12.426   4.640 -0.2509  0.8839 -1.8493
37325SOL    HW219216   1.913  12.282   4.592  1.6386  0.0773  0.6854
37326SOL     OW19217   2.477   0.719   3.152  0.1266 -0.0759 -0.7352
37326SOL    HW119218   2.443   0.801   3.189 -0.2137 -0.4554 -0.1925
37326SOL    HW219219   2.567   0.713   3.186 -0.9751 -1.7001  2.2524
37327SOL     OW19220   4.307  10.706   7.204  0.2074 -0.7478 -0.4528
37327SOL    HW119221   4.343  10.765   7.138 -1.7384  1.6228  0.4651
37327SOL    HW219222   4.278  10.629   7.154 -3.3504  1.8929 -2.8992
37328SOL     OW19223   2.936   9.060   7.278  0.5926  0.4787 -0.3624
37328SOL    HW119224   3.005   9.090   7.338 -0.2116 -0.4769  1.1020
37328SOL    HW219225   2.857   9.056   7.332  0.2990 -2.6007 -0.8277
37329SOL     OW19226   3.935   9.178  10.694  0.1618  0.1192 -0.1677
37329SOL    HW119227   3.874   9.185  10.768  0.2283  2.8306 -0.2567
37329SOL    HW219228   3.970   9.267  10.684  1.9021 -0.6999 -2.0127
37330SOL     OW19229   3.721   8.219  12.692 -0.0798  0.1323 -0.4834
37330SOL    HW119230   3.808   8.255  12.709 -0.1524 -0.6523  1.9013
37330SOL    HW219231   3.732   8.165  12.614  1.0744  1.5988 -1.3927
37331SOL     OW19232   7.898   2.726   0.683  0.2352 -0.2622 -0.2003
37331SOL    HW119233   7.902   2.636   0.715  0.8955 -0.2031 -0.0933
37331SOL    HW219234   7.984   2.740   0.642  0.1856  0.3601 -0.1020
37332SOL     OW19235   9.911   0.425   0.233  0.3818  0.1347  0.2188
37332SOL    HW119236   9.930   0.382   0.317  0.6778  0.0281  0.0991
37332SOL    HW219237   9.871   0.357   0.179 -0.7988  0.4822  0.6292
37333SOL     OW19238   0.927   3.633   5.493 -0.2275 -0.5443 -0.5379
37333SOL    HW119239   0.839   3.606   5.467  0.3571 -1.3721 -1.7540
37333SOL    HW219240   0.923   3.729   5.495 -1.5658 -0.5887  1.0379
37334SOL     OW19241  11.523   9.290  10.900  0.2661  0.2541  0.1391
37334SOL    HW119242  11.517   9.384  10.915 -2.4348  0.1002  0.5516
37334SOL    HW219243  11.525   9.281  10.805 -2.6604  0.7246 -0.0547
37335SOL     OW19244   2.466  11.537   4.149 -0.5457 -0.0324  0.5428
37335SOL    HW119245   2.475  11.526   4.055  0.0621 -1.4967  0.7387
37335SOL    HW219246   2.554  11.559   4.180 -0.2822 -1.5433  0.9708
37336SOL     OW19247   1.569   9.949   0.625 -0.0837  0.1384  0.1828
37336SOL    HW119248   1.610   9.933   0.540  1.9723  0.3415  1.0826
37336SOL    HW219249   1.483   9.909   0.618 -0.4476  1.1861 -2.3944
37337SOL     OW19250  12.705   6.380  10.304 -0.1486 -0.5182  0.0274
37337SOL    HW119251  12.615   6.355  10.324 -0.3510 -2.9301 -3.1828
37337SOL    HW219252  12.698   6.464  10.259 -0.8432 -0.8493 -0.4904
37338SOL     OW19253   7.693   5.955  11.949  0.0290 -0.6221 -1.2181
37338SOL    HW119254   7.618   5.983  11.897  1.4666  1.6805 -2.2407
37338SOL    HW219255   7.694   6.014  12.024  1.3667  0.1818 -1.8061
37339SOL     OW19256   6.825   9.647   1.899 -0.1497  1.0486  0.0183
37339SOL    HW119257   6.858   9.662   1.810 -1.5188  2.2926 -0.3144
37339SOL    HW219258   6.733   9.623   1.887 -0.3929  1.3621  1.1059
37340SOL     OW19259  10.020   1.217  12.194 -0.4049  0.0225 -0.0008
37340SOL    HW119260  10.032   1.307  12.225 -2.1421  0.2675  0.0862
37340SOL    HW219261  10.097   1.170  12.226 -0.0062  1.2384  0.9138
37341SOL     OW19262   0.756   3.198  11.700 -0.1011  0.8082  0.6172
37341SOL    HW119263   0.690   3.134  11.726  1.3834 -1.5034 -0.9619
37341SOL    HW219264   0.818   3.200  11.774 -0.5223  0.9755  0.9690
37342SOL     OW19265   0.741   3.510   9.833 -0.4414  0.0132  0.0748
37342SOL    HW119266   0.792   3.430   9.845 -1.5601 -0.9388 -1.2011
37342SOL    HW219267   0.684   3.491   9.758 -0.5604  2.0959 -0.4297
37343SOL     OW19268  11.352   4.960   7.097  0.2863 -0.3099  0.1125
37343SOL    HW119269  11.341   5.039   7.045  0.0728  0.0280  0.6624
37343SOL    HW219270  11.301   4.894   7.051  1.6739 -0.5246 -1.1678
37344SOL     OW19271   4.614   8.180   6.666  0.6291 -0.1307 -0.0569
37344SOL    HW119272   4.572   8.211   6.746  1.8718  1.4742  0.0104
37344SOL    HW219273   4.634   8.088   6.684 -0.9135 -0.3664  0.6803
37345SOL     OW19274   0.001   8.981   7.591 -0.3251 -0.1919  0.0702
37345SOL    HW119275   0.044   8.982   7.506  0.7493 -2.6553  0.4961
37345SOL    HW219276  -0.087   8.948   7.573 -0.2267 -0.3458 -0.1309
37346SOL     OW19277   6.056   8.946  11.786  0.2669  0.0798 -0.0004
37346SOL    HW119278   5.996   8.996  11.841  2.2328  0.4365  1.9944
37346SOL    HW219279   6.094   8.882  11.846 -1.1621 -3.0355 -2.1455
37347SOL     OW19280   8.532   2.926   6.373 -0.1516 -0.7135 -0.0007
37347SOL    HW119281   8.553   3.005   6.424 -1.3126 -0.3628 -0.0387
37347SOL    HW219282   8.552   2.854   6.433  2.2684 -0.5024 -0.4420
37348SOL     OW19283  10.137   4.362  10.076 -0.0667  0.7478  0.1059
37348SOL    HW119284  10.044   4.370  10.093 -0.9258 -0.9861 -3.0348
37348SOL    HW219285  10.149   4.271  10.050  2.2486  1.2664 -0.9042
37349SOL     OW19286  12.610   2.653   6.202 -0.0904 -0.2193  0.2416
37349SOL    HW119287  12.642   2.593   6.269 -0.7175 -0.6212  0.1898
37349SOL    HW219288  12.640   2.739   6.230  2.1105 -0.6998 -0.4502
37350SOL     OW19289   8.859   3.859   2.009  0.3632 -0.6836  0.2430
37350SOL    HW119290   8.885   3.947   2.036 -1.7006 -0.2135  0.8417
37350SOL    HW219291   8.941   3.810   2.005  1.6485  1.4060 -0.7429
37351SOL     OW19292   8.836  11.248  10.272 -0.1904  0.1272  0.0231
37351SOL    HW119293   8.800  11.254  10.184  1.1839 -1.4440 -0.6991
37351SOL    HW219294   8.904  11.316  10.275  2.4978 -2.2348 -1.6146
37352SOL     OW19295   9.323   7.927  12.580  0.0502  0.2463  0.3644
37352SOL    HW119296   9.247   7.973  12.615  0.6399  1.2419  0.3847
37352SOL    HW219297   9.321   7.841  12.621 -1.2035  0.1623  0.1592
37353SOL     OW19298  12.327   8.761   3.330  0.1346 -0.0284 -0.3960
37353SOL    HW119299  12.291   8.772   3.418 -3.1070 -2.1569 -1.2799
37353SOL    HW219300  12.394   8.694   3.340  0.6602  0.6142  0.5880
37354SOL     OW19301  10.192   4.300   7.391  0.4025  0.7539  0.0614
37354SOL    HW119302  10.266   4.245   7.416  0.3317  1.0627  0.9805
37354SOL    HW219303  10.203   4.314   7.297 -0.6170 -2.4241 -0.6737
37355SOL     OW19304   0.224   8.747   2.565 -0.3273  0.4008  0.2537
37355SOL    HW119305   0.285   8.686   2.606 -1.4673 -1.6388 -0.9246
37355SOL    HW219306   0.234   8.732   2.471 -2.6981 -0.1447  0.0193
37356SOL     OW19307   1.623  11.840   7.800  0.2904 -0.0344 -0.4777
37356SOL    HW119308   1.555  11.870   7.860 -1.0435  0.2918 -2.0842
37356SOL    HW219309   1.681  11.915   7.790 -0.4078  0.4692 -0.8446
37357SOL     OW19310   6.058   9.107  11.539 -0.0475 -0.2708 -0.4634
37357SOL    HW119311   6.047   9.041  11.607  1.1233 -2.0516 -1.8919
37357SOL    HW219312   5.969   9.129  11.511 -0.4640 -1.1523  0.1356
37358SOL     OW19313   4.848   2.111   8.196  0.1410  0.2366  0.9244
37358SOL    HW119314   4.927   2.162   8.178 -0.4988  1.4380  1.4575
37358SOL    HW219315   4.799   2.112   8.114  1.0789 -1.3331  0.2801
37359SOL     OW19316   9.119   7.311   3.006 -0.7067 -0.4499  0.2644
37359SOL    HW119317   9.134   7.361   2.926 -2.9907  1.6247  0.9934
37359SOL    HW219318   9.042   7.258   2.988 -2.1114  1.0870  1.4328
37360SOL     OW19319   9.549  11.468  12.250 -0.1505 -0.0268 -0.2941
37360SOL    HW119320   9.525  11.551  12.290 -2.8189 -1.6212  1.7012
37360SOL    HW219321   9.611  11.429  12.311  0.4148  0.0854 -0.7848
37361SOL     OW19322   9.395   2.791   0.578 -0.2504 -0.5216  0.2568
37361SOL    HW119323   9.486   2.812   0.600 -0.8266  0.7122  1.6104
37361SOL    HW219324   9.384   2.700   0.604  0.0863 -0.1238  1.9092
37362SOL     OW19325   6.785   6.506   9.912  0.0000  0.0422  0.3722
37362SOL    HW119326   6.842   6.498   9.835  1.0150  0.4767  1.0526
37362SOL    HW219327   6.788   6.420   9.954 -0.1388 -0.0416  0.2102
37363SOL     OW19328  11.576   4.318  10.667 -0.5423  0.2287  0.5212
37363SOL    HW119329  11.537   4.250  10.612  0.0837  0.9589 -0.8522
37363SOL    HW219330  11.569   4.282  10.756 -1.4237 -1.0443 -0.0232
37364SOL     OW19331   3.882   9.336   1.063  0.6626 -0.1332 -0.6460
37364SOL    HW119332   3.975   9.345   1.086  0.7357 -1.0173 -0.5604
37364SOL    HW219333   3.851   9.426   1.055  1.5582  0.1761 -0.7985
37365SOL     OW19334   8.693   2.761   6.559  0.0632  0.1648  0.3797
37365SOL    HW119335   8.656   2.684   6.603 -0.0159  0.8246  1.5090
37365SOL    HW219336   8.692   2.829   6.626  0.8486  0.9407 -0.3749
37366SOL     OW19337  10.635  11.818   6.956  0.0370  0.5672 -0.3054
37366SOL    HW119338  10.558  11.873   6.967  0.3387  0.8453  0.5439
37366SOL    HW219339  10.692  11.866   6.896  0.3367  1.2391  0.4969
37367SOL     OW19340   2.286   4.674  12.237 -0.0296  0.1538 -0.1591
37367SOL    HW119341   2.213   4.727  12.270  1.0390  1.3260  0.4285
37367SOL    HW219342   2.363   4.715  12.275  0.9620 -0.9032 -0.9804
37368SOL     OW19343   1.999   7.109  11.859 -0.1371  0.0542  0.3646
37368SOL    HW119344   2.017   7.065  11.942  1.8509  1.4237  0.7387
37368SOL    HW219345   1.904   7.105  11.850 -0.3483 -0.7093  2.3824
37369SOL     OW19346   2.139   3.247  10.414 -0.0717 -0.6595 -0.2426
37369SOL    HW119347   2.230   3.237  10.443  0.2972 -0.5565 -1.3318
37369SOL    HW219348   2.119   3.167  10.366 -0.4307 -0.5071 -0.3521
37370SOL     OW19349   2.268   7.997   4.726 -0.1783 -0.1660 -0.4517
37370SOL    HW119350   2.336   7.940   4.692 -1.6750 -2.5112  0.2573
37370SOL    HW219351   2.254   8.062   4.657  3.2446  0.9300 -0.2784
37371SOL     OW19352   0.620   4.667   7.987  0.1078  0.6500  0.3282
37371SOL    HW119353   0.708   4.635   8.006 -0.7759 -2.4314 -0.0854
37371SOL    HW219354   0.591   4.706   8.070  1.3098  0.3147  0.9347
37372SOL     OW19355   0.822   3.918   7.836 -0.4585 -0.1127 -0.2760
37372SOL    HW119356   0.739   3.944   7.797  0.0411  1.7832 -0.1638
37372SOL    HW219357   0.801   3.838   7.884 -2.4914  0.9044  0.6691
37373SOL     OW19358   2.492   4.795   0.612  0.6292 -0.2988 -0.6097
37373SOL    HW119359   2.497   4.701   0.598 -0.4463 -0.1154 -2.4465
37373SOL    HW219360   2.411   4.808   0.660 -0.4344 -0.1503 -2.3704
37374SOL     OW19361   4.761   6.065  10.189 -0.3236  0.2217 -0.1272
37374SOL    HW119362   4.752   6.055  10.095 -0.0740  0.2625 -0.1541
37374SOL    HW219363   4.696   6.005  10.226  1.3072 -1.7583 -0.2775
37375SOL     OW19364   9.257   9.013   9.209  0.1967 -0.8679 -0.7312
37375SOL    HW119365   9.188   9.049   9.264 -1.4107 -2.1293 -1.8185
37375SOL    HW219366   9.213   8.991   9.127  2.1262 -0.7406 -1.8655
37376SOL     OW19367   6.631   4.417   0.044 -0.2284 -0.2838 -0.2516
37376SOL    HW119368   6.581   4.350  -0.002  0.8934 -1.1025 -0.3370
37376SOL    HW219369   6.712   4.372   0.070 -0.6273  0.2454  2.1607
37377SOL     OW19370   7.484   6.666   4.610 -0.3209 -0.3117 -0.2938
37377SOL    HW119371   7.519   6.699   4.527  0.3965 -1.4311 -0.4544
37377SOL    HW219372   7.547   6.599   4.638 -1.1467 -0.7440  0.5922
37378SOL     OW19373   8.935  11.433   6.874 -0.0155 -0.1931 -0.0036
37378SOL    HW119374   8.919  11.427   6.779  1.7383  1.0136 -0.4230
37378SOL    HW219375   8.987  11.355   6.894  0.2453 -0.0642 -0.1798
37379SOL     OW19376  11.407   5.580   4.799  0.2854 -0.2177 -0.1340
37379SOL    HW119377  11.433   5.662   4.759 -0.6909  1.4972  2.4554
37379SOL    HW219378  11.314   5.571   4.780  0.0957 -0.0212  0.6464
37380SOL     OW19379   8.339  10.495   0.641  0.5039  0.6601  0.3255
37380SOL    HW119380   8.302  10.571   0.596  0.3441  0.5636  0.2944
37380SOL    HW219381   8.265  10.438   0.656  0.7379  0.1756 -0.3048
37381SOL     OW19382   0.591   6.372   1.437  0.1601  0.2675 -0.0606
37381SOL    HW119383   0.587   6.416   1.523 -1.8715  0.5212 -0.2411
37381SOL    HW219384   0.613   6.281   1.458 -0.2258  0.3454  0.7457
37382SOL     OW19385   3.957  12.218   7.441 -0.2044 -0.1673 -0.8392
37382SOL    HW119386   3.957  12.253   7.529 -1.0896 -1.0864 -0.4573
37382SOL    HW219387   4.050  12.203   7.421 -0.1071 -2.6236  1.0558
37383SOL     OW19388  12.031  10.726   8.506  0.6574  0.6073  0.1916
37383SOL    HW119389  12.098  10.793   8.521  1.5012  0.2332 -1.6482
37383SOL    HW219390  11.948  10.771   8.519  1.2312  1.7833 -0.1438
37384SOL     OW19391   4.461  11.899  11.183  0.3368 -0.1285 -0.0426
37384SOL    HW119392   4.443  11.826  11.242  1.1234 -0.6609 -0.4492
37384SOL    HW219393   4.409  11.971  11.219 -0.4579 -0.8759  0.3663
37385SOL     OW19394   0.083  12.171   4.824 -0.1288  0.3613  1.1768
37385SOL    HW119395   0.056  12.090   4.781  1.3464  0.7751 -0.6305
37385SOL    HW219396   0.009  12.193   4.881 -0.5860 -2.2176  1.7359
37386SOL     OW19397  10.728   6.779   6.265 -0.0126  0.2662 -0.2345
37386SOL    HW119398  10.813   6.797   6.225  0.7986 -1.1907  0.7759
37386SOL    HW219399  10.670   6.763   6.191  1.4762 -2.4986 -0.9127
37387SOL     OW19400   1.248   0.180   3.944 -0.1452  0.0604 -0.1405
37387SOL    HW119401   1.202   0.265   3.941 -1.5472 -0.6254  0.7483
37387SOL    HW219402   1.182   0.116   3.919  0.7249 -0.8414 -0.1854
37388SOL     OW19403   5.330  12.174   3.884 -0.3590  0.3761 -0.0997
37388SOL    HW119404   5.317  12.115   3.958 -1.5753 -0.0682 -0.6430
37388SOL    HW219405   5.424  12.168   3.865 -0.2159 -0.2852  0.7599
37389SOL     OW19406   8.222  12.446   7.509  0.4242 -0.2186  0.2797
37389SOL    HW119407   8.222  12.352   7.524  0.8133  0.1825  3.4208
37389SOL    HW219408   8.315  12.470   7.511  0.2558  0.4081  1.0980
37390SOL     OW19409   3.070   6.279  12.575  0.3054 -0.1298 -0.2837
37390SOL    HW119410   3.051   6.368  12.546  0.2913  0.4253  1.3462
37390SOL    HW219411   3.165   6.271  12.570  0.2248 -0.4953 -1.6720
37391SOL     OW19412   1.353   1.620   2.087  0.2783  0.3886 -0.1353
37391SOL    HW119413   1.343   1.537   2.039  1.9066  0.1198 -0.0651
37391SOL    HW219414   1.410   1.672   2.031 -0.2213  1.2303  0.1334
37392SOL     OW19415   0.720   2.971   3.045 -0.7532  0.0724 -0.0631
37392SOL    HW119416   0.767   3.051   3.023  0.4566 -0.7651 -0.6785
37392SOL    HW219417   0.774   2.931   3.113 -0.2724 -1.1425 -1.1146
37393SOL     OW19418  12.601   8.994  11.917  0.0594  0.2561  0.4169
37393SOL    HW119419  12.604   9.085  11.945 -0.6724  0.3034  0.3667
37393SOL    HW219420  12.528   8.991  11.855  0.3283 -0.2829  0.1181
37394SOL     OW19421   1.618  10.957   4.319  0.1762  0.8253  0.6052
37394SOL    HW119422   1.675  11.007   4.377  0.9679 -1.0968  1.5785
37394SOL    HW219423   1.678  10.910   4.261 -0.5272  0.8542 -0.1667
37395SOL     OW19424   0.872   3.246   5.479 -0.3700  0.2805  0.9810
37395SOL    HW119425   0.788   3.249   5.525 -0.2873 -0.1033  1.1605
37395SOL    HW219426   0.889   3.153   5.466  0.1275  0.3489  1.1222
37396SOL     OW19427   5.744   6.273   0.056  1.1445  0.6224 -0.4508
37396SOL    HW119428   5.738   6.217   0.134 -0.8018  1.0409 -0.2412
37396SOL    HW219429   5.802   6.344   0.082 -0.1627  1.2391  0.9764
37397SOL     OW19430   3.099   0.155   1.782 -0.2022  0.0665  0.1892
37397SOL    HW119431   3.129   0.098   1.712 -0.5971 -0.3887  0.3860
37397SOL    HW219432   3.032   0.210   1.741 -0.1323  0.0894  0.1058
37398SOL     OW19433   5.739   0.636  11.979  0.0937 -0.2125 -0.6611
37398SOL    HW119434   5.763   0.562  11.925  0.4374  0.3069 -1.2284
37398SOL    HW219435   5.643   0.633  11.983  0.0448 -0.0572 -1.5820
37399SOL     OW19436   6.533  12.202   4.700  0.1777 -0.1698  0.1448
37399SOL    HW119437   6.479  12.280   4.687  0.3052  0.0715  0.9930
37399SOL    HW219438   6.623  12.233   4.694  0.2407 -0.1026  1.1685
37400SOL     OW19439   2.544  10.209   4.914  0.1064 -0.1045  0.1093
37400SOL    HW119440   2.464  10.242   4.873 -0.3653 -1.0280  0.2643
37400SOL    HW219441   2.547  10.252   5.000 -1.3003 -1.5440  0.9272
37401SOL     OW19442   9.140   3.983  10.646 -0.5932  0.2500 -0.8308
37401SOL    HW119443   9.221   3.941  10.676 -0.1608  0.5541 -1.5439
37401SOL    HW219444   9.157   4.077  10.656 -0.6098  0.3391 -1.5736
37402SOL     OW19445   3.227   0.559   2.037  0.1210  0.4464 -0.0482
37402SOL    HW119446   3.158   0.624   2.025  0.3285  0.4625 -1.3597
37402SOL    HW219447   3.191   0.479   1.997  0.2406  0.0224  0.6902
37403SOL     OW19448   9.117   4.985   8.592  0.7743 -0.4884 -0.2767
37403SOL    HW119449   9.039   4.996   8.646  0.7287 -1.9157 -0.0143
37403SOL    HW219450   9.084   4.972   8.503  0.6970 -1.0898 -0.1666
37404SOL     OW19451   3.413   6.801  12.454  0.0394 -0.4449  0.2070
37404SOL    HW119452   3.362   6.758  12.385  1.5356 -1.3783 -0.3803
37404SOL    HW219453   3.352   6.864  12.493 -1.0947 -0.4389 -1.4411
37405SOL     OW19454   4.221  10.406   3.434 -0.4872 -0.4318 -0.0268
37405SOL    HW119455   4.300  10.418   3.487  0.9098 -1.4063 -1.7924
37405SOL    HW219456   4.152  10.386   3.498  0.9782 -0.9853  1.4584
37406SOL     OW19457   0.154   1.713   3.093  0.3719  1.1806  0.0625
37406SOL    HW119458   0.076   1.667   3.061  0.7117  0.5051  0.1868
37406SOL    HW219459   0.172   1.673   3.178  1.2867  0.8238 -0.2908
37407SOL     OW19460   7.177  12.410  10.736 -0.4897 -0.1417 -0.6461
37407SOL    HW119461   7.101  12.468  10.735 -1.1407 -0.9882 -1.2663
37407SOL    HW219462   7.192  12.388  10.644  0.3359 -0.2013 -0.5030
37408SOL     OW19463   0.753   1.072  10.721 -0.1799  0.0339 -0.1800
37408SOL    HW119464   0.838   1.117  10.717  0.4427 -1.0393  0.6114
37408SOL    HW219465   0.712   1.107  10.800  1.5464 -2.7990  2.1547
37409SOL     OW19466   0.238  10.477  12.245 -0.5083 -0.5596  0.1769
37409SOL    HW119467   0.206  10.557  12.287 -0.6960 -1.0398  0.9825
37409SOL    HW219468   0.332  10.493  12.231 -0.8531  0.4275 -1.1910
37410SOL     OW19469  12.656  12.388   9.615 -0.4639  0.5759  0.2517
37410SOL    HW119470  12.681  12.300   9.644 -0.5578  0.0756 -1.1023
37410SOL    HW219471  12.676  12.445   9.690 -1.0658 -0.6846  1.3994
37411SOL     OW19472   4.502   4.283   4.353  0.3092 -0.4375 -0.0381
37411SOL    HW119473   4.446   4.359   4.370  2.1072  0.8863  0.2753
37411SOL    HW219474   4.442   4.208   4.352 -1.3303  0.7958  1.1360
37412SOL     OW19475   6.391   5.665  11.484 -0.3257 -0.0141  0.4036
37412SOL    HW119476   6.418   5.615  11.561  1.0681  2.0362  1.3469
37412SOL    HW219477   6.432   5.620  11.410  0.6545 -0.4302  1.1742
37413SOL     OW19478   0.466  11.541   0.718  0.5477 -0.5845  0.0844
37413SOL    HW119479   0.485  11.520   0.627 -1.7313 -0.4530 -0.4816
37413SOL    HW219480   0.370  11.546   0.722  0.5630 -1.0540  2.5933
37414SOL     OW19481   1.949   6.696   0.197  0.1757 -0.5188  0.0238
37414SOL    HW119482   1.962   6.601   0.192  1.5432 -0.3478 -0.1475
37414SOL    HW219483   1.897   6.709   0.276 -1.5710 -1.5314 -0.9110
37415SOL     OW19484  12.239   3.162   6.784 -0.4323  0.1171  0.5259
37415SOL    HW119485  12.299   3.160   6.858  0.0674 -0.6751  0.1098
37415SOL    HW219486  12.289   3.203   6.713  0.0856 -1.6549 -0.1910
37416SOL     OW19487  10.361   1.675   4.777  0.7141 -0.1575  0.1803
37416SOL    HW119488  10.300   1.646   4.710  2.0166 -2.4596 -0.1212
37416SOL    HW219489  10.394   1.759   4.745  0.6543 -0.7860 -1.6345
37417SOL     OW19490   2.519   6.084   5.352  0.1472  0.0399  0.3680
37417SOL    HW119491   2.537   6.114   5.263  2.4244 -0.6802  0.5208
37417SOL    HW219492   2.435   6.039   5.345 -0.9414  2.1259 -0.8511
37418SOL     OW19493  11.816   3.120  10.898 -0.1798  0.0169 -0.7778
37418SOL    HW119494  11.904   3.123  10.859  0.1593  0.3133 -0.0001
37418SOL    HW219495  11.818   3.186  10.967 -0.8561 -0.3319 -0.4205
37419SOL     OW19496   3.124   9.455   3.014  0.1489 -0.3878 -0.2803
37419SOL    HW119497   3.044   9.430   2.966  0.3271  0.9922 -1.3600
37419SOL    HW219498   3.095   9.468   3.104 -0.9225  0.3477 -0.7095
37420SOL     OW19499  10.323  10.603   4.939 -0.6523  0.5615 -0.2331
37420SOL    HW119500  10.268  10.532   4.973 -0.0983 -0.2629 -1.0382
37420SOL    HW219501  10.274  10.636   4.863 -1.1286  1.3538  0.4083
37421SOL     OW19502   2.741   2.045   3.367 -0.1790  0.2254  0.0076
37421SOL    HW119503   2.774   2.014   3.452 -1.0953  1.7338  0.9637
37421SOL    HW219504   2.719   1.965   3.319  2.1872 -0.7321  0.3934
37422SOL     OW19505   2.252   8.041   2.395  0.3470  0.5771 -0.3306
37422SOL    HW119506   2.329   8.025   2.340  1.2944 -1.2419  1.3888
37422SOL    HW219507   2.282   8.103   2.461  1.5109 -2.4994  2.3043
37423SOL     OW19508   5.301   7.051   5.671  0.6371  0.4635 -0.1901
37423SOL    HW119509   5.252   6.972   5.692 -1.2048  1.0208 -2.0424
37423SOL    HW219510   5.391   7.021   5.659  0.2591 -1.0876  0.5701
37424SOL     OW19511   8.906  11.039   5.633 -0.0929  0.2167 -0.1435
37424SOL    HW119512   8.994  11.070   5.613  0.0255 -0.5357 -0.8274
37424SOL    HW219513   8.888  10.972   5.567 -1.0980  0.2147  0.1085
37425SOL     OW19514   4.349   0.056  12.627 -0.2460 -0.6152 -0.1298
37425SOL    HW119515   4.439   0.036  12.653  0.1072  1.7245  0.7090
37425SOL    HW219516   4.359   0.102  12.543 -0.5654  0.3876  0.3696
37426SOL     OW19517   1.357   1.357   9.611 -0.4375  0.1706  0.0390
37426SOL    HW119518   1.321   1.301   9.543 -0.1389 -0.1735  0.1680
37426SOL    HW219519   1.322   1.444   9.591  0.3065  0.2342 -1.0256
37427SOL     OW19520   9.209   0.831   1.399  0.1439  0.0099 -0.6474
37427SOL    HW119521   9.174   0.915   1.370  0.4784  0.5576  0.4741
37427SOL    HW219522   9.233   0.845   1.490  0.1856 -1.3202 -0.4318
37428SOL     OW19523   0.655   1.740   1.012 -0.6418  0.6804  0.0516
37428SOL    HW119524   0.693   1.752   0.925  0.0056 -0.6509  0.1277
37428SOL    HW219525   0.731   1.724   1.069 -1.1524  0.1901  0.6115
37429SOL     OW19526  11.800   1.330   6.743 -0.2970  0.0259  0.4590
37429SOL    HW119527  11.887   1.368   6.729 -0.2366 -0.3921 -0.4436
37429SOL    HW219528  11.745   1.403   6.771 -0.1173  0.7381 -0.9572
37430SOL     OW19529   8.038   8.820  11.201  0.8158  0.2413  0.1131
37430SOL    HW119530   8.022   8.867  11.283 -2.3074 -0.1438 -0.1848
37430SOL    HW219531   8.069   8.887  11.141 -0.5401  1.3246  0.5791
37431SOL     OW19532   4.706   8.688   7.656 -0.7146 -0.0672  0.4708
37431SOL    HW119533   4.632   8.627   7.666 -1.8762  1.1444 -0.3834
37431SOL    HW219534   4.784   8.633   7.661 -1.6643 -1.3769  1.5002
37432SOL     OW19535   8.655   6.156   8.458 -0.2329 -0.5490 -0.5197
37432SOL    HW119536   8.572   6.189   8.423  0.4584  0.1663 -1.5383
37432SOL    HW219537   8.692   6.229   8.508  0.3597 -0.4345 -1.1114
37433SOL     OW19538  12.366   2.216   7.324  0.1401 -0.2300 -0.2060
37433SOL    HW119539  12.448   2.206   7.274 -0.4456 -1.5173 -0.9765
37433SOL    HW219540  12.393   2.253   7.408  1.4567 -0.2109 -0.6181
37434SOL     OW19541   7.651   3.235  12.207  0.1218  0.1188 -0.0109
37434SOL    HW119542   7.572   3.277  12.239  0.3136  0.9259 -0.5625
37434SOL    HW219543   7.705   3.307  12.174  0.5733 -0.5353 -0.7420
37435SOL     OW19544   2.169   0.609   0.515  0.0143  0.4067  0.2460
37435SOL    HW119545   2.172   0.529   0.463 -1.0811 -0.0738  0.8692
37435SOL    HW219546   2.245   0.602   0.573  0.0423 -0.0896  0.1602
37436SOL     OW19547   5.466   4.113   8.477  0.6476 -0.7907  0.4800
37436SOL    HW119548   5.436   4.082   8.563  2.1757 -0.1201  1.3096
37436SOL    HW219549   5.488   4.032   8.429 -1.7071 -1.2570  0.0746
37437SOL     OW19550   5.119  11.171  10.481  0.1983 -0.1316 -0.2707
37437SOL    HW119551   5.075  11.088  10.464  1.7815 -1.0522 -0.0846
37437SOL    HW219552   5.155  11.197  10.397  0.5992 -0.1981 -0.1241
37438SOL     OW19553   3.148   9.861   9.963  0.5171 -0.1589  0.2285
37438SOL    HW119554   3.095   9.864  10.042 -0.2174  0.3786 -0.2656
37438SOL    HW219555   3.133   9.945   9.920  1.2257 -0.2754 -0.2742
37439SOL     OW19556   0.494   4.292   6.326 -0.1479  0.1283 -0.2203
37439SOL    HW119557   0.429   4.339   6.378  0.5617  1.7641 -0.7460
37439SOL    HW219558   0.442   4.230   6.274 -0.9520 -0.8410  1.6395
37440SOL     OW19559   1.859   9.475   6.560 -0.1122 -0.1394  0.0375
37440SOL    HW119560   1.850   9.463   6.655 -0.2131  1.3137  0.2381
37440SOL    HW219561   1.792   9.540   6.538  0.9377  0.7094 -0.7554
37441SOL     OW19562   9.755   0.842   3.638  0.0089 -0.6672  0.4717
37441SOL    HW119563   9.718   0.920   3.681  0.4248  0.7384 -1.5784
37441SOL    HW219564   9.705   0.833   3.557  1.1544 -1.4574 -0.1729
37442SOL     OW19565  10.892   6.764   6.718  0.1110 -0.1604 -0.2154
37442SOL    HW119566  10.895   6.816   6.639 -2.2084  0.3954 -0.0092
37442SOL    HW219567  10.836   6.689   6.696  1.1449 -1.1293  0.3081
37443SOL     OW19568   8.860  11.978   7.979  0.2247 -0.4335 -0.1944
37443SOL    HW119569   8.896  12.012   7.897 -1.5928  0.6040 -0.6222
37443SOL    HW219570   8.920  11.908   8.005  1.0076 -0.5798 -2.2429
37444SOL     OW19571   3.772   1.884  11.260 -0.3128  0.3665  0.4426
37444SOL    HW119572   3.834   1.940  11.213 -1.5896  0.9702 -0.6191
37444SOL    HW219573   3.706   1.861  11.194 -0.5304 -1.3306  1.1960
37445SOL     OW19574   7.150   4.038   7.885  0.0159 -0.1921 -0.2002
37445SOL    HW119575   7.083   4.014   7.949 -0.5779  2.7232  0.4122
37445SOL    HW219576   7.101   4.072   7.810  0.6182  3.7267  0.9628
37446SOL     OW19577   3.659   5.247  11.108  0.1524  0.1562 -0.0292
37446SOL    HW119578   3.652   5.308  11.182  0.1767 -1.4747  1.3874
37446SOL    HW219579   3.589   5.184  11.123 -0.9369  0.7177 -2.3762
37447SOL     OW19580   5.968  11.327  11.339 -0.4464 -0.0956 -0.1970
37447SOL    HW119581   5.956  11.263  11.410  0.0178  0.4796  0.4086
37447SOL    HW219582   5.992  11.273  11.263  2.6962 -0.5278  0.9311
37448SOL     OW19583  12.498  10.246  10.689 -0.1551 -0.0740  0.0721
37448SOL    HW119584  12.433  10.311  10.715 -0.1956  0.0336 -0.2913
37448SOL    HW219585  12.563  10.247  10.759  1.2394  2.2705 -1.1350
37449SOL     OW19586  11.959   1.539   3.525  0.6412  0.6780 -0.1479
37449SOL    HW119587  11.995   1.454   3.550  1.1170  0.5079 -1.3697
37449SOL    HW219588  11.905   1.564   3.600  0.7156 -0.5633  0.3544
37450SOL     OW19589   0.620   3.425  12.146 -0.2188 -0.0756 -0.5951
37450SOL    HW119590   0.633   3.462  12.059 -1.1562  0.5271 -0.4957
37450SOL    HW219591   0.528   3.402  12.149 -0.1519 -0.2727  0.1674
37451SOL     OW19592   0.814   7.005   5.872 -0.4382  0.2325  0.4233
37451SOL    HW119593   0.733   6.968   5.906 -1.9401  2.6082 -0.3486
37451SOL    HW219594   0.836   7.074   5.934  0.9220 -0.2250  0.4869
37452SOL     OW19595   4.071   3.669   6.937  0.1320  0.6531 -0.3783
37452SOL    HW119596   4.150   3.689   6.888  0.4739 -0.8182 -0.4963
37452SOL    HW219597   4.059   3.574   6.925  0.2820  0.1865  2.3830
37453SOL     OW19598   7.268   0.429  10.797  0.3570 -0.6050 -0.2906
37453SOL    HW119599   7.181   0.469  10.794  1.0727  1.1932  0.8804
37453SOL    HW219600   7.265   0.369  10.871  0.5571  0.7703  0.8955
37454SOL     OW19601   1.167   6.242   1.384  0.1322  0.1754  0.7898
37454SOL    HW119602   1.117   6.302   1.439  1.8843  1.4799  1.0404
37454SOL    HW219603   1.106   6.218   1.314 -1.0907  1.0662  1.5070
37455SOL     OW19604   1.981  12.316   1.281 -0.2800 -0.2069 -0.2017
37455SOL    HW119605   1.954  12.228   1.305 -1.2155  0.1657  0.1732
37455SOL    HW219606   1.909  12.372   1.310 -0.6248  0.4782 -2.2215
37456SOL     OW19607   2.267   1.612   4.125 -0.2277 -0.3351  0.2863
37456SOL    HW119608   2.193   1.564   4.162 -1.0243 -0.6898 -1.6351
37456SOL    HW219609   2.316   1.546   4.075  1.8450 -0.2593  2.0906
37457SOL     OW19610   2.386   4.880   1.679  0.4592  0.5609  0.2145
37457SOL    HW119611   2.481   4.880   1.689  0.6352  0.5590 -1.2878
37457SOL    HW219612   2.371   4.850   1.590 -1.0342 -1.3441  1.0319
37458SOL     OW19613   9.146  11.551   3.661 -0.5509  0.0542 -0.1710
37458SOL    HW119614   9.233  11.586   3.642 -0.3677 -0.3115 -0.0047
37458SOL    HW219615   9.089  11.591   3.595 -0.3478  0.6781  0.0251
37459SOL     OW19616   8.695   8.325   6.414  0.5580  0.1243 -0.9777
37459SOL    HW119617   8.731   8.308   6.501 -0.8700 -0.0211 -0.3989
37459SOL    HW219618   8.688   8.239   6.374  0.9894  0.1696 -1.1588
37460SOL     OW19619   7.862  10.344   2.557  0.0675  0.4453 -0.0726
37460SOL    HW119620   7.951  10.335   2.593  0.6311  0.0310 -1.4873
37460SOL    HW219621   7.806  10.352   2.633  1.6440  4.4387  0.8937
37461SOL     OW19622   2.218   0.195   7.044  0.1754  0.2441  0.4473
37461SOL    HW119623   2.295   0.195   6.988  0.2219 -1.2368  0.4771
37461SOL    HW219624   2.242   0.252   7.117  0.8921  0.5245  0.0042
37462SOL     OW19625   7.811   0.944   2.700  0.6843  0.0379  0.1017
37462SOL    HW119626   7.850   0.946   2.787 -1.6147  0.7789  1.1888
37462SOL    HW219627   7.886   0.940   2.640  2.2986 -1.7260  2.1008
37463SOL     OW19628   7.741   4.130   5.124 -0.2715  0.4372 -0.0912
37463SOL    HW119629   7.730   4.210   5.174  0.0215  0.6276 -0.3269
37463SOL    HW219630   7.831   4.134   5.091 -0.3855  0.2047 -0.4374
37464SOL     OW19631   6.465  11.204   9.450  0.7877 -0.2828  0.3652
37464SOL    HW119632   6.508  11.135   9.399 -0.8469 -1.2039  0.1806
37464SOL    HW219633   6.469  11.281   9.392  0.0822 -0.9832 -0.6507
37465SOL     OW19634   5.619   1.086   3.831  0.2388  0.1157  0.2310
37465SOL    HW119635   5.611   1.050   3.742 -0.3239 -0.1602  0.3928
37465SOL    HW219636   5.707   1.124   3.833  0.4639 -0.3666 -0.2676
37466SOL     OW19637  10.817   8.184   4.935 -0.1102  0.0861  0.2847
37466SOL    HW119638  10.901   8.206   4.976 -0.1391  0.9718 -0.1319
37466SOL    HW219639  10.837   8.179   4.841 -0.7167  1.2353  0.0888
37467SOL     OW19640   6.180   0.586   9.643 -0.3160  0.2340 -0.2073
37467SOL    HW119641   6.240   0.512   9.652 -0.4629  0.0343 -0.7962
37467SOL    HW219642   6.104   0.550   9.597  0.0987  1.0051 -1.5399
37468SOL     OW19643  12.708   6.322   7.194  0.2976  0.1211  0.0393
37468SOL    HW119644  12.744   6.276   7.118 -0.2441  2.1730 -1.5712
37468SOL    HW219645  12.746   6.410   7.188 -1.3838  0.9503  0.9299
37469SOL     OW19646   6.288   5.901  10.058 -0.1303  0.1554  0.3551
37469SOL    HW119647   6.306   5.984  10.012  0.8238  0.2551  0.8683
37469SOL    HW219648   6.248   5.928  10.140 -1.5151 -0.0046 -0.2537
37470SOL     OW19649   4.253   8.567   4.358  0.6006 -0.5558  0.5786
37470SOL    HW119650   4.212   8.606   4.281  2.9731  1.6713  0.3473
37470SOL    HW219651   4.197   8.594   4.432 -0.7693 -1.3577 -0.1113
37471SOL     OW19652   4.860   7.916   4.751 -0.0216 -0.0014  0.4843
37471SOL    HW119653   4.856   7.820   4.749 -0.4062  0.0283 -0.2127
37471SOL    HW219654   4.774   7.945   4.723  0.0440  0.5562  0.8427
37472SOL     OW19655  11.128  11.359   1.467  0.3586 -0.5768 -0.2967
37472SOL    HW119656  11.153  11.268   1.452  0.2719 -0.5706 -0.4779
37472SOL    HW219657  11.152  11.376   1.558 -0.4821 -1.0601  0.0161
37473SOL     OW19658   4.346   4.395   0.444 -0.4404  0.0091 -0.2217
37473SOL    HW119659   4.358   4.330   0.513 -2.2231  0.3999  0.5251
37473SOL    HW219660   4.418   4.457   0.457 -0.7532  0.0901  1.3452
37474SOL     OW19661   4.217   5.558   9.583  0.5175  0.0999  0.1895
37474SOL    HW119662   4.222   5.498   9.509 -1.7833  0.1368 -0.0609
37474SOL    HW219663   4.305   5.557   9.621  0.6770 -3.0928 -0.0556
37475SOL     OW19664   6.061  12.029  11.007 -0.3132  0.8149 -0.5568
37475SOL    HW119665   6.095  12.065  11.089 -0.2926  2.4947 -1.2654
37475SOL    HW219666   6.119  12.065  10.940  0.8263 -2.0079 -1.2201
37476SOL     OW19667  11.411  12.516   6.252 -0.2438  0.3672  0.0150
37476SOL    HW119668  11.381  12.430   6.282 -0.9432  1.0401  1.3410
37476SOL    HW219669  11.380  12.522   6.161  1.2811 -1.4346 -0.6699
37477SOL     OW19670  12.692   3.426   2.639  0.0767 -0.2531 -0.7477
37477SOL    HW119671  12.735   3.444   2.555 -0.1596  2.5142 -0.3534
37477SOL    HW219672  12.690   3.510   2.684 -1.1557 -1.3590  1.4357
37478SOL     OW19673   7.256   4.613   9.365 -0.5825  0.2541 -0.2211
37478SOL    HW119674   7.253   4.707   9.380  0.6519  0.1958  0.5901
37478SOL    HW219675   7.243   4.575   9.452  0.9731 -0.2551 -0.1773
37479SOL     OW19676   8.874   7.803   4.670 -0.2897 -0.1685 -0.1607
37479SOL    HW119677   8.847   7.713   4.684 -1.2727  0.2485  0.7600
37479SOL    HW219678   8.800   7.844   4.625 -1.2838  0.9862  2.3624
37480SOL     OW19679   6.269   3.077   7.943 -0.3973  0.0308  0.6833
37480SOL    HW119680   6.330   3.058   8.014  0.0281 -0.1846  0.2714
37480SOL    HW219681   6.222   3.155   7.971  1.8274  1.7465 -0.0715
37481SOL     OW19682   1.959   8.772   6.553  0.1983  0.1986 -0.7224
37481SOL    HW119683   1.978   8.752   6.461  1.3788 -3.6427  0.1671
37481SOL    HW219684   1.896   8.704   6.579 -0.1180  1.2076  1.3319
37482SOL     OW19685   4.051   7.100   1.211  0.4248  0.1188  0.3563
37482SOL    HW119686   4.018   7.012   1.197  1.3502 -0.0694 -0.8199
37482SOL    HW219687   3.974   7.156   1.211 -0.0334 -0.5036 -0.5672
37483SOL     OW19688   0.851   7.851  10.012 -0.4311 -0.3900  0.1964
37483SOL    HW119689   0.895   7.902   9.944 -0.1535  0.9573  1.3417
37483SOL    HW219690   0.764   7.890  10.019  0.3489  1.1856  2.2788
37484SOL     OW19691   0.933   1.814  12.447  0.2222 -0.1227 -0.1372
37484SOL    HW119692   0.941   1.744  12.382  2.0494  0.1046 -0.2054
37484SOL    HW219693   0.841   1.841  12.442  0.0929 -0.7695 -1.9470
37485SOL     OW19694   2.182   0.057  12.005  0.2398  0.3077 -0.0654
37485SOL    HW119695   2.132   0.059  12.087 -0.0179  0.2242 -0.2218
37485SOL    HW219696   2.116   0.046  11.937  0.6113 -1.8550 -0.1447
37486SOL     OW19697  10.902   0.695   4.172 -0.3592  0.2599 -0.0393
37486SOL    HW119698  10.837   0.761   4.146 -0.2986  1.4367  2.4963
37486SOL    HW219699  10.956   0.740   4.238  0.0927 -2.1189  1.3134
37487SOL     OW19700   0.580   1.602   0.496  0.2975 -0.3571  0.4519
37487SOL    HW119701   0.676   1.603   0.504  0.2497 -0.7982  1.1568
37487SOL    HW219702   0.564   1.621   0.404  1.0178  0.9606  0.5643
37488SOL     OW19703   1.854  10.176   9.578  0.5965 -0.5092 -0.0764
37488SOL    HW119704   1.760  10.158   9.571  0.4479  0.5130 -1.0154
37488SOL    HW219705   1.864  10.209   9.668 -0.0059 -0.3530 -0.0549
37489SOL     OW19706   1.375  10.381   2.937  0.6556 -0.0133 -0.0808
37489SOL    HW119707   1.452  10.351   2.985  0.2453 -1.5054 -0.2902
37489SOL    HW219708   1.409  10.417   2.855  1.6329  4.9570  2.1145
37490SOL     OW19709   3.593   0.464   9.226  0.2419 -0.0975  0.2198
37490SOL    HW119710   3.608   0.370   9.240  1.6749  0.0321 -0.2969
37490SOL    HW219711   3.505   0.479   9.261 -0.3732 -1.7948 -0.4658
37491SOL     OW19712   6.018   7.896   6.786 -0.4420  0.5394 -0.0026
37491SOL    HW119713   6.069   7.952   6.728 -0.8454  2.0125  1.0144
37491SOL    HW219714   6.079   7.870   6.855 -0.5245  0.6155  0.1012
37492SOL     OW19715   2.442   2.795   2.553  0.5994 -0.0718 -0.5156
37492SOL    HW119716   2.481   2.740   2.485  1.0270  0.6429 -0.8690
37492SOL    HW219717   2.349   2.797   2.532  0.7899  0.4991 -1.3557
37493SOL     OW19718   1.461   5.299   1.439 -0.5284 -0.0741  0.6506
37493SOL    HW119719   1.372   5.306   1.403 -1.1469  0.4891  2.1909
37493SOL    HW219720   1.493   5.216   1.406 -2.0644 -0.8250  0.9328
37494SOL     OW19721   9.477   0.325  12.337 -0.2240  0.4248 -0.2312
37494SOL    HW119722   9.519   0.355  12.256 -0.4644 -0.5239 -0.7223
37494SOL    HW219723   9.384   0.340  12.322 -0.6023 -2.3329 -1.3441
37495SOL     OW19724  10.265   7.488   6.161 -0.1816 -0.1920 -0.2707
37495SOL    HW119725  10.235   7.413   6.213  0.0476  0.3254  0.6229
37495SOL    HW219726  10.357   7.469   6.143 -0.8026 -1.4435 -2.4187
37496SOL     OW19727   6.530  11.444   4.773 -0.0952 -0.2411 -0.0119
37496SOL    HW119728   6.570  11.412   4.854  1.9383  0.9849 -0.4712
37496SOL    HW219729   6.604  11.456   4.713 -1.3314  0.8169 -1.3852
37497SOL     OW19730   3.484  10.898   6.652 -0.4513  0.1284  0.0592
37497SOL    HW119731   3.531  10.969   6.609  2.0528 -0.9557  0.7539
37497SOL    HW219732   3.461  10.838   6.581  2.1272 -0.8279 -0.0754
37498SOL     OW19733   9.566   0.670  10.271  0.2553 -0.1040 -0.2693
37498SOL    HW119734   9.632   0.616  10.314  1.0542 -0.0447 -1.3544
37498SOL    HW219735   9.564   0.751  10.322  0.0272 -0.6284  0.5728
37499SOL     OW19736   7.200   2.451  10.165 -0.4055 -0.2445  0.7835
37499SOL    HW119737   7.291   2.472  10.184 -0.7764  0.2519  2.1450
37499SOL    HW219738   7.203   2.363  10.126  0.6367 -0.2704  0.8957
37500SOL     OW19739  11.236   5.436   0.964 -0.1542 -0.4413 -0.4457
37500SOL    HW119740  11.230   5.488   1.044  0.2500  0.8496 -1.2199
37500SOL    HW219741  11.321   5.392   0.971 -0.0939 -0.2884 -0.1887
37501SOL     OW19742   8.901   7.753  11.582 -0.0529  0.1828 -0.6360
37501SOL    HW119743   8.978   7.798  11.546  1.0658 -0.1744  1.1719
37501SOL    HW219744   8.925   7.661  11.582 -0.9681 -0.0593 -1.1644
37502SOL     OW19745   2.991   1.763   0.319  0.2658 -0.0235  0.6670
37502SOL    HW119746   2.968   1.771   0.411  1.3936  1.4825  0.8533
37502SOL    HW219747   3.063   1.700   0.317  0.4548  0.1877  0.8515
37503SOL     OW19748   4.888   4.005   1.447  0.4296 -0.2621 -0.2695
37503SOL    HW119749   4.801   4.017   1.409 -0.4214 -0.6897  1.4295
37503SOL    HW219750   4.878   3.933   1.508  1.5780  0.7121  1.1499
37504SOL     OW19751   9.759   7.481   2.624  0.3621 -0.1061 -0.0853
37504SOL    HW119752   9.687   7.465   2.563 -1.6013 -1.4855  2.3899
37504SOL    HW219753   9.746   7.572   2.653  0.6694  0.2045 -0.8896
37505SOL     OW19754  11.780   9.718   7.430  0.0963  0.1352 -0.0386
37505SOL    HW119755  11.814   9.704   7.342  0.5726 -0.5088  0.2478
37505SOL    HW219756  11.685   9.722   7.419  0.2250  1.9348 -0.8369
37506SOL     OW19757   3.386   4.340  11.282 -0.2818  0.2219  0.2301
37506SOL    HW119758   3.330   4.401  11.235 -0.1344  1.2314  1.3270
37506SOL    HW219759   3.472   4.382  11.285  0.1780 -0.6424 -0.1367
37507SOL     OW19760   8.870   3.624   7.137  0.4304  0.0048  0.2316
37507SOL    HW119761   8.959   3.622   7.102  0.1315 -1.2404 -0.5247
37507SOL    HW219762   8.826   3.550   7.096 -0.9091  0.4711  0.7473
37508SOL     OW19763   7.579   6.000  11.542 -0.4387  0.3274  0.5686
37508SOL    HW119764   7.629   6.068  11.497  0.0461 -0.0932  0.4743
37508SOL    HW219765   7.573   6.032  11.632 -2.6947  1.9192 -0.0416
37509SOL     OW19766   1.146   1.998  12.598  0.5205 -0.1204  0.5518
37509SOL    HW119767   1.188   1.917  12.569  0.8857  0.8117 -1.6843
37509SOL    HW219768   1.202   2.030  12.669  1.8182 -0.5371 -0.2522
37510SOL     OW19769   4.834   6.889   5.456 -0.2934 -0.5385 -0.1524
37510SOL    HW119770   4.920   6.881   5.497  0.0271  3.1165  0.1813
37510SOL    HW219771   4.851   6.924   5.369 -1.4313  0.5597  0.0417
37511SOL     OW19772   9.203   4.955   0.312  0.1520 -0.0843 -0.4037
37511SOL    HW119773   9.152   4.998   0.380 -0.0963  0.5928 -1.0124
37511SOL    HW219774   9.144   4.889   0.275  0.9634 -1.9668  1.4471
37512SOL     OW19775   3.365   5.531   6.146 -0.0829  0.4286  0.4853
37512SOL    HW119776   3.288   5.564   6.193 -0.1238 -1.2945  1.7421
37512SOL    HW219777   3.330   5.495   6.064 -0.9269 -1.7796  1.7370
37513SOL     OW19778   8.577  11.715   4.412 -0.1535 -0.4185 -0.8247
37513SOL    HW119779   8.520  11.641   4.436 -0.8817 -0.0056 -1.2553
37513SOL    HW219780   8.627  11.683   4.337 -0.2670 -0.5668 -0.8385
37514SOL     OW19781   8.300   8.742   7.284  0.2556  0.3041 -0.3516
37514SOL    HW119782   8.372   8.724   7.344  0.1089  1.5679  0.2316
37514SOL    HW219783   8.269   8.656   7.257  2.0069 -0.2563 -0.6601
37515SOL     OW19784  11.196   0.110   0.064  0.8868  0.4332  0.0037
37515SOL    HW119785  11.238   0.068   0.139  2.8487  1.5020 -0.4097
37515SOL    HW219786  11.168   0.196   0.097  0.1245  0.2042 -0.0390
37516SOL     OW19787   2.031   5.386   0.345  0.2905  0.2194 -0.3595
37516SOL    HW119788   2.038   5.451   0.275 -3.7702  0.1080 -1.0782
37516SOL    HW219789   1.965   5.324   0.314  1.0870 -2.0400  2.0365
37517SOL     OW19790  12.517   6.786   0.533 -0.0474 -0.1972 -0.3772
37517SOL    HW119791  12.609   6.777   0.507  0.5554  2.9078  0.3145
37517SOL    HW219792  12.487   6.864   0.487 -1.8877 -0.2674  0.6333
37518SOL     OW19793   5.368   5.476   5.528  0.0139  0.2747 -0.2860
37518SOL    HW119794   5.287   5.464   5.577 -0.5330  2.7778 -0.4116
37518SOL    HW219795   5.357   5.425   5.448 -0.8832 -0.4567  0.2979
37519SOL     OW19796   6.031   7.364   0.203  0.0720 -0.4031 -0.2973
37519SOL    HW119797   6.024   7.367   0.107 -0.5139  2.1123 -0.2248
37519SOL    HW219798   6.009   7.452   0.232  1.3287 -0.8026  2.1107
37520SOL     OW19799  11.546   3.547  11.245 -0.2455 -0.0502 -0.4333
37520SOL    HW119800  11.561   3.587  11.159 -1.9698  0.2186 -0.6552
37520SOL    HW219801  11.457   3.575  11.269 -0.6807 -1.9834  0.4039
37521SOL     OW19802   9.977   4.742   9.282 -0.4383  0.8206 -0.2798
37521SOL    HW119803   9.975   4.648   9.302  0.0625  1.1160  1.3069
37521SOL    HW219804   9.904   4.778   9.333  1.2395  1.6960  1.5949
37522SOL     OW19805   5.058   8.815   0.411 -0.2437 -0.5850 -0.2175
37522SOL    HW119806   5.051   8.852   0.498 -3.1901  2.2343 -1.4291
37522SOL    HW219807   5.109   8.879   0.361  1.2215 -2.0496 -0.6915
37523SOL     OW19808  12.582   5.061   5.201 -0.0816 -0.7966  0.2702
37523SOL    HW119809  12.614   5.124   5.136  0.5409 -1.7972 -0.4271
37523SOL    HW219810  12.491   5.086   5.216 -0.7730 -1.4567 -2.1997
37524SOL     OW19811   6.958   8.600   3.564 -0.7508 -0.6034 -0.2778
37524SOL    HW119812   6.929   8.691   3.565 -2.9723 -1.2332 -0.7899
37524SOL    HW219813   7.031   8.598   3.626 -0.3117  1.5944 -0.6295
37525SOL     OW19814   8.894   0.898   0.025  0.0464 -0.8481  0.2746
37525SOL    HW119815   8.950   0.852  -0.039 -0.2222 -0.1231 -0.5001
37525SOL    HW219816   8.949   0.908   0.102  1.2382  0.4193 -0.6939
37526SOL     OW19817   9.766   2.617   9.017 -0.2598 -0.3951 -0.4359
37526SOL    HW119818   9.799   2.553   8.954  1.9106  1.2769 -1.1360
37526SOL    HW219819   9.838   2.629   9.079 -1.0675  0.4804  0.3775
37527SOL     OW19820   2.414   0.748   2.291  0.1781  0.1240 -0.1841
37527SOL    HW119821   2.386   0.672   2.341 -0.6960 -0.5590 -1.6358
37527SOL    HW219822   2.503   0.766   2.321  1.1157 -2.6064 -1.0775
37528SOL     OW19823   3.240   5.439   9.520  0.0323 -0.1763  0.1425
37528SOL    HW119824   3.186   5.433   9.599  0.5660 -0.9278  0.4593
37528SOL    HW219825   3.181   5.475   9.453 -0.6115 -0.1724  0.7072
37529SOL     OW19826   4.978   5.826   8.862  0.1520 -0.1943 -0.0260
37529SOL    HW119827   4.971   5.824   8.958  0.3467  1.0850  0.0334
37529SOL    HW219828   4.952   5.739   8.834  0.6294 -0.7571  1.2357
37530SOL     OW19829  12.469  12.588  12.558 -0.3597  0.0850  0.8583
37530SOL    HW119830  12.386  12.627  12.586 -0.6933 -0.8391  1.1932
37530SOL    HW219831  12.443  12.509  12.510  0.2389  1.0274 -1.1378
37531SOL     OW19832  10.103  10.121   3.871 -0.1115  0.0139  0.0623
37531SOL    HW119833  10.152  10.075   3.940  0.5562  0.0478 -0.3764
37531SOL    HW219834  10.011  10.107   3.893  0.0929 -0.1298  0.8580
37532SOL     OW19835  11.492  12.597   4.718 -0.3028  0.0721 -0.1430
37532SOL    HW119836  11.551  12.621   4.647  2.8134  0.2554  2.3003
37532SOL    HW219837  11.482  12.502   4.709  1.4444 -0.1602  0.1033
37533SOL     OW19838   8.100   1.358   6.717  0.2099 -0.4736  0.5524
37533SOL    HW119839   8.138   1.275   6.689 -1.9198 -0.7526 -1.8438
37533SOL    HW219840   8.025   1.334   6.771 -0.5466 -0.1269 -0.3289
37534SOL     OW19841   9.060  10.629  11.767 -0.1313  0.3165 -0.0817
37534SOL    HW119842   9.123  10.636  11.838  0.9090  3.1819 -1.1586
37534SOL    HW219843   9.113  10.627  11.688 -1.3227  1.1028 -0.9404
37535SOL     OW19844   5.266  10.121   1.803 -0.7456  0.1707  0.0046
37535SOL    HW119845   5.320  10.071   1.742 -1.9431 -1.3654  0.1168
37535SOL    HW219846   5.327  10.154   1.869 -0.0806 -2.9023  1.0693
37536SOL     OW19847   7.438   8.049  11.647  0.2444 -0.2343 -0.2423
37536SOL    HW119848   7.529   8.019  11.647  0.8837  1.4768  2.0009
37536SOL    HW219849   7.424   8.084  11.735 -2.3238  0.3814 -0.8179
37537SOL     OW19850   3.441   7.273   3.814  0.4904 -0.2106 -0.7166
37537SOL    HW119851   3.367   7.313   3.770 -1.2014 -0.5926  1.6084
37537SOL    HW219852   3.513   7.335   3.802 -0.7683  1.1939 -1.2172
37538SOL     OW19853   2.418   3.421  10.177 -0.3466  0.2562  0.2142
37538SOL    HW119854   2.437   3.432  10.084  0.1740  0.0862  0.2994
37538SOL    HW219855   2.355   3.349  10.180  0.3170 -0.3450  0.0545
37539SOL     OW19856   8.840   9.870   5.363 -0.1690 -0.4504  0.2367
37539SOL    HW119857   8.884   9.875   5.278 -0.2906  0.6874  0.2243
37539SOL    HW219858   8.904   9.906   5.425  0.0915 -1.6838  0.7152
37540SOL     OW19859   4.468   6.215   8.546 -0.0367  0.1497 -0.4200
37540SOL    HW119860   4.527   6.204   8.622  1.0125  1.3071 -1.0371
37540SOL    HW219861   4.424   6.298   8.562  0.0183  0.2840 -0.9694
37541SOL     OW19862  12.693   9.585   8.570 -0.2995 -0.4543 -0.3156
37541SOL    HW119863  12.678   9.653   8.635  0.4154  0.6062 -1.2144
37541SOL    HW219864  12.775   9.611   8.527 -0.1328 -1.7696 -0.8320
37542SOL     OW19865   7.426   5.909  10.816  0.1958 -0.6777  0.3195
37542SOL    HW119866   7.421   5.896  10.911 -0.4742 -0.4320  0.3259
37542SOL    HW219867   7.480   5.988  10.805 -0.7499  0.0242  0.5663
37543SOL     OW19868   7.216   9.156   9.029  0.3224 -0.2735  0.2310
37543SOL    HW119869   7.190   9.214   8.958 -2.2952 -1.9233 -0.2815
37543SOL    HW219870   7.264   9.212   9.090 -2.3705  2.5667 -0.0371
37544SOL     OW19871   4.942  12.205  11.068 -0.0503 -0.3096  0.5686
37544SOL    HW119872   4.882  12.132  11.052  0.9931 -0.7618 -1.7264
37544SOL    HW219873   4.996  12.209  10.989  0.5475  2.3774  1.0221
37545SOL     OW19874   9.076   7.282   7.911  0.3920  0.1967 -0.1498
37545SOL    HW119875   9.098   7.335   7.988 -1.6490 -0.5915  1.0580
37545SOL    HW219876   9.074   7.345   7.839 -0.7793  1.6123  1.0325
37546SOL     OW19877   7.410   4.222   0.733 -0.1043  0.0415 -0.1045
37546SOL    HW119878   7.448   4.211   0.820  0.5662 -2.6540 -0.6446
37546SOL    HW219879   7.316   4.217   0.747  0.0128 -0.9314  0.4481
37547SOL     OW19880   9.081   2.509   1.884  0.0951  0.3855  0.5361
37547SOL    HW119881   9.166   2.488   1.844  0.4075 -0.5272  1.6188
37547SOL    HW219882   9.049   2.584   1.834  1.2290  0.3288 -0.3250
37548SOL     OW19883   1.424   5.508   8.694 -0.1603  0.1723 -0.0418
37548SOL    HW119884   1.342   5.503   8.744  0.4287  0.2143  0.9511
37548SOL    HW219885   1.398   5.491   8.604 -1.2648  0.1707  0.2641
37549SOL     OW19886   9.412   5.627  12.494 -0.1911 -0.3822 -0.2530
37549SOL    HW119887   9.426   5.533  12.481  0.2586 -0.1502 -1.4954
37549SOL    HW219888   9.327   5.644  12.452 -0.2214 -0.2081 -0.1219
37550SOL     OW19889   0.819   2.824   4.955 -0.1924  0.0769  0.1028
37550SOL    HW119890   0.885   2.813   4.886  1.6976 -0.4995  1.9158
37550SOL    HW219891   0.847   2.902   5.003 -0.5030 -0.4801  1.2212
37551SOL     OW19892   7.929   3.201  11.521  0.2804  0.4157  0.4287
37551SOL    HW119893   7.848   3.232  11.481 -0.4267  0.2452  1.7063
37551SOL    HW219894   7.969   3.279  11.559  1.0094  0.5963 -0.6643
37552SOL     OW19895   6.713   2.598   7.107  0.1203  0.2656  0.0847
37552SOL    HW119896   6.783   2.618   7.046 -0.7077 -0.0612 -1.0010
37552SOL    HW219897   6.664   2.527   7.065  0.8181 -1.5687  2.1130
37553SOL     OW19898   6.493   2.112   1.995 -0.1630  0.8279 -0.3383
37553SOL    HW119899   6.555   2.050   2.033 -0.0106  1.6984  0.9138
37553SOL    HW219900   6.536   2.144   1.916  1.1224  1.5696  0.6225
37554SOL     OW19901   7.835   8.011  11.936  0.2391  0.4665 -0.1754
37554SOL    HW119902   7.777   7.938  11.956 -0.8942  1.3792 -0.0351
37554SOL    HW219903   7.850   8.053  12.021  0.4416  0.7189 -0.3342
37555SOL     OW19904   6.379  11.394   2.873 -0.1516 -0.4069 -0.4719
37555SOL    HW119905   6.379  11.380   2.778  0.5519 -0.5922 -0.4510
37555SOL    HW219906   6.463  11.436   2.891 -0.1044 -0.7428  0.1176
37556SOL     OW19907   8.246  10.708  11.076 -0.1185  0.1020  0.1045
37556SOL    HW119908   8.244  10.767  11.001  2.1196  1.2098  0.8116
37556SOL    HW219909   8.156  10.708  11.110 -1.0042  0.1488 -2.0836
37557SOL     OW19910   8.778   7.821   5.064  0.7311 -0.1536 -0.4584
37557SOL    HW119911   8.689   7.819   5.098  1.2933 -0.7909  1.0486
37557SOL    HW219912   8.782   7.748   5.002  0.0863  0.1891 -0.9194
37558SOL     OW19913   6.729  12.386   4.344  0.3122 -0.1579 -0.0354
37558SOL    HW119914   6.824  12.395   4.335  0.3676  0.1545  0.7680
37558SOL    HW219915   6.717  12.343   4.429 -0.2284 -1.2720 -0.6525
37559SOL     OW19916   8.862   7.486   0.083  0.1702  0.2563 -0.6983
37559SOL    HW119917   8.877   7.570   0.040 -1.8776  1.2533  0.3885
37559SOL    HW219918   8.773   7.493   0.119  1.0201 -1.2278  1.9634
37560SOL     OW19919  11.577   2.893   3.312  0.5079 -0.2158 -0.1056
37560SOL    HW119920  11.572   2.839   3.233 -2.0209 -0.7865  0.3556
37560SOL    HW219921  11.507   2.957   3.302  1.7717  1.3441  0.5734
37561SOL     OW19922   5.128  12.196   0.177  0.0819  0.1914  0.5904
37561SOL    HW119923   5.193  12.252   0.220 -0.0931  0.5641  0.3820
37561SOL    HW219924   5.178  12.149   0.110  0.6647 -1.5347  2.1633
37562SOL     OW19925   7.576  10.001   6.698 -0.0746  0.7933  0.2742
37562SOL    HW119926   7.523  10.027   6.774  1.0993  1.4302  0.8967
37562SOL    HW219927   7.662  10.038   6.715  0.9235 -1.2096 -0.1538
37563SOL     OW19928   4.002  10.088   5.497  0.4245 -0.0948 -0.3968
37563SOL    HW119929   4.029  10.176   5.472  1.0793  0.2083  1.2502
37563SOL    HW219930   4.083  10.037   5.496  0.5559  0.0239  1.3673
37564SOL     OW19931   3.166   8.693   8.928  0.3226  0.6321  0.2993
37564SOL    HW119932   3.165   8.648   8.843  1.9166  0.3421  0.4039
37564SOL    HW219933   3.109   8.769   8.915  0.6652  0.6840 -1.0846
37565SOL     OW19934   8.726   4.924   0.465 -0.4670  0.3717  0.4066
37565SOL    HW119935   8.653   4.979   0.495 -1.4727 -1.0532  0.6872
37565SOL    HW219936   8.775   4.904   0.544  0.0711  1.0853  0.2612
37566SOL     OW19937   3.691   3.021  10.591 -0.0526 -0.5061 -0.3967
37566SOL    HW119938   3.738   3.103  10.578 -1.1779  0.0374 -1.1385
37566SOL    HW219939   3.627   3.040  10.660 -0.3360 -0.7441 -0.5892
37567SOL     OW19940   6.862   9.015  10.404  0.1224  0.6877 -0.2404
37567SOL    HW119941   6.931   9.075  10.434  0.9111 -0.0427 -0.5395
37567SOL    HW219942   6.910   8.938  10.375 -0.9211 -0.6186  1.3311
37568SOL     OW19943  11.352   3.298   4.122 -0.0253  0.1293 -0.1157
37568SOL    HW119944  11.372   3.386   4.092  0.7898 -0.4960 -1.5369
37568SOL    HW219945  11.430   3.247   4.098 -0.4485 -0.9574  0.7429
37569SOL     OW19946   4.048  10.767  12.516 -0.0289 -0.0385  0.3268
37569SOL    HW119947   4.119  10.831  12.507  1.7510 -1.4764  2.8411
37569SOL    HW219948   4.004  10.791  12.598 -0.5447 -0.9066  0.3200
37570SOL     OW19949  11.128  12.110   7.630 -0.2770 -0.0064  0.2209
37570SOL    HW119950  11.151  12.203   7.629  0.1462 -0.1191 -0.7804
37570SOL    HW219951  11.208  12.066   7.659 -0.2950 -0.1045  0.1228
37571SOL     OW19952   1.690  12.042  10.564 -0.5876  0.7147 -0.1883
37571SOL    HW119953   1.653  11.976  10.505 -3.3138  0.9499  1.1125
37571SOL    HW219954   1.756  11.994  10.614 -2.9249 -1.3036  1.1670
37572SOL     OW19955  10.609   5.759   7.870  0.0503  0.5636  0.5358
37572SOL    HW119956  10.587   5.756   7.777  0.5230  0.1333  0.4300
37572SOL    HW219957  10.652   5.844   7.882  0.4623  0.4000  0.2456
37573SOL     OW19958   8.908  11.075  10.767  0.3386 -0.5923 -0.0408
37573SOL    HW119959   8.864  11.083  10.682 -0.0338  0.0252  0.2157
37573SOL    HW219960   8.873  10.993  10.804 -0.1546 -0.4090 -0.0937
37574SOL     OW19961   4.160   4.768  10.316  0.2250 -0.1258  0.2585
37574SOL    HW119962   4.197   4.757  10.228 -1.0955 -1.4459 -0.1813
37574SOL    HW219963   4.235   4.759  10.375  0.9648 -0.3220 -0.6868
37575SOL     OW19964   2.990   1.279   0.208 -0.2658  0.1535  0.3992
37575SOL    HW119965   3.012   1.223   0.133  0.3630  0.9784 -0.0486
37575SOL    HW219966   3.073   1.290   0.255 -0.1464  1.5241 -0.0918
37576SOL     OW19967   2.257   8.028   9.481 -0.2762  0.6720  0.5102
37576SOL    HW119968   2.180   8.061   9.528  0.1477  1.3835  0.7161
37576SOL    HW219969   2.306   8.107   9.456  0.4167  0.2257  0.4234
37577SOL     OW19970   5.341   6.359   8.670 -0.2546  0.2996 -0.2188
37577SOL    HW119971   5.331   6.272   8.631  1.4100  0.1138 -0.3067
37577SOL    HW219972   5.386   6.409   8.603  0.1271  0.7962  0.4030
37578SOL     OW19973  10.864   1.939   4.554  0.4808 -0.1706  0.6547
37578SOL    HW119974  10.942   1.983   4.519 -0.8527 -0.1583 -2.6012
37578SOL    HW219975  10.847   1.984   4.637  2.1326  1.9280 -0.0584
37579SOL     OW19976  11.077  12.084   8.582  0.1179  0.5630 -0.2273
37579SOL    HW119977  11.172  12.073   8.576  0.5357  2.2942  1.8006
37579SOL    HW219978  11.052  12.026   8.654 -0.3517  0.1642 -0.7128
37580SOL     OW19979   5.010   3.277  12.140  0.3951  0.3669  0.2780
37580SOL    HW119980   4.916   3.287  12.125  0.4265  0.5693  0.2148
37580SOL    HW219981   5.022   3.184  12.158  0.0478  0.5033  1.2401
37581SOL     OW19982   3.655  11.964   7.465 -0.0504  0.2435  0.5153
37581SOL    HW119983   3.688  11.989   7.378  2.4209  0.9421  1.5561
37581SOL    HW219984   3.658  12.045   7.515 -2.2729  0.0333  1.0769
37582SOL     OW19985   6.443   7.993  10.460 -0.5156 -0.2568 -0.2142
37582SOL    HW119986   6.405   8.065  10.410  0.1964 -0.8192 -1.6263
37582SOL    HW219987   6.494   8.035  10.529 -0.3852  0.5850 -0.8104
37583SOL     OW19988   2.201  12.490  12.286  0.8560 -0.2113 -0.5927
37583SOL    HW119989   2.144  12.433  12.235  0.4816  0.6879 -1.2009
37583SOL    HW219990   2.282  12.439  12.296  0.3540 -1.0521 -0.6683
37584SOL     OW19991   0.694  10.368   8.136 -0.1690 -0.5948  0.6543
37584SOL    HW119992   0.716  10.279   8.110  0.5054 -0.7877  1.8379
37584SOL    HW219993   0.758  10.390   8.204 -1.1097  0.3307  1.2677
37585SOL     OW19994   0.070   6.816  12.547  0.3227  0.5713  0.0099
37585SOL    HW119995   0.027   6.900  12.565 -1.6491 -0.2747 -0.4490
37585SOL    HW219996   0.068   6.770  12.631  0.6900  0.6617  0.0716
37586SOL     OW19997   4.143   3.363   3.985 -0.0900 -0.3556 -0.3294
37586SOL    HW119998   4.140   3.391   3.894 -2.1183 -0.6621 -0.3990
37586SOL    HW219999   4.117   3.271   3.983 -1.0662 -0.1170  0.6307
37587SOL     OW20000  12.524   0.983   2.656 -0.3030 -0.2088 -0.2859
37587SOL    HW120001  12.454   0.923   2.680 -1.8985  2.0121  1.0133
37587SOL    HW220002  12.547   1.028   2.737  0.7294  1.0215 -1.2095
37588SOL     OW20003   6.571   0.595   0.315 -0.2570 -0.3897 -0.3558
37588SOL    HW120004   6.666   0.604   0.319 -0.3414  0.4128  0.1657
37588SOL    HW220005   6.539   0.685   0.317 -1.0885 -0.6869  1.6687
37589SOL     OW20006   7.319   0.242   2.371  0.2701 -0.0071  0.6171
37589SOL    HW120007   7.400   0.247   2.422  0.1483 -1.6238  1.0257
37589SOL    HW220008   7.274   0.165   2.406 -3.3034  2.8760  3.1113
37590SOL     OW20009   2.676   2.295   3.673  0.1232  0.2539  0.1794
37590SOL    HW120010   2.681   2.382   3.635 -0.6985  0.0506 -0.4327
37590SOL    HW220011   2.625   2.244   3.609 -0.2390 -0.4117  0.9813
37591SOL     OW20012  10.886  10.243   6.204  0.3417  0.5898 -0.2679
37591SOL    HW120013  10.844  10.230   6.119 -0.0263 -0.2582  0.0388
37591SOL    HW220014  10.980  10.239   6.186  0.2572 -0.0483 -0.5585
37592SOL     OW20015   5.395   5.359   2.643  0.4970  0.0226 -0.9000
37592SOL    HW120016   5.420   5.451   2.637 -0.7868  0.3972 -0.7724
37592SOL    HW220017   5.410   5.336   2.735 -0.0444  0.3800 -0.7134
37593SOL     OW20018  10.234   6.797   6.585  0.1118 -0.6245 -0.3576
37593SOL    HW120019  10.157   6.742   6.602  0.7904 -1.3398  0.4807
37593SOL    HW220020  10.234   6.861   6.655 -1.1432  1.0311 -1.7882
37594SOL     OW20021   1.057   8.373   7.345 -0.0796 -0.1129 -0.2933
37594SOL    HW120022   0.979   8.355   7.396  0.4158 -1.8115 -0.0726
37594SOL    HW220023   1.045   8.324   7.264  1.5411 -2.0265  0.5235
37595SOL     OW20024   7.149   6.283   3.402  0.4702 -0.3945  0.1184
37595SOL    HW120025   7.068   6.239   3.376  0.1029  0.4767 -0.2382
37595SOL    HW220026   7.132   6.376   3.387  1.3784 -0.1611  0.4757
37596SOL     OW20027   2.303  11.430  10.417 -0.3269  0.1184 -0.5126
37596SOL    HW120028   2.315  11.482  10.496 -0.7037 -1.7317  0.8261
37596SOL    HW220029   2.239  11.479  10.365 -0.6036  1.0211  0.6541
37597SOL     OW20030   9.294   2.742   3.005 -0.7883 -0.0697 -0.0316
37597SOL    HW120031   9.300   2.691   3.086  1.8338 -0.5315 -0.4491
37597SOL    HW220032   9.244   2.685   2.946 -0.1483 -1.0316  0.3267
37598SOL     OW20033   0.390   7.863  12.586  0.3332  0.2964  0.0680
37598SOL    HW120034   0.438   7.839  12.665 -0.8330 -0.2486  0.6342
37598SOL    HW220035   0.346   7.782  12.560  0.8687  0.4156 -1.2724
37599SOL     OW20036   8.111  10.990   7.354  0.0473  0.3863  0.7932
37599SOL    HW120037   8.117  10.924   7.285 -1.7285  1.0886 -0.1146
37599SOL    HW220038   8.040  10.959   7.411  0.0865  0.8595  1.1088
37600SOL     OW20039  11.932   9.906   3.838 -0.1439  0.3059 -0.3258
37600SOL    HW120040  11.877   9.940   3.908 -1.8151 -1.8012 -0.4899
37600SOL    HW220041  11.880   9.835   3.799  1.6078 -0.0111 -2.2929
37601SOL     OW20042   7.828   4.758  10.716  0.0686 -0.1846  0.3603
37601SOL    HW120043   7.885   4.719  10.781  1.1061  2.4417  1.1665
37601SOL    HW220044   7.754   4.792  10.766  0.7827  1.6899  0.2107
37602SOL     OW20045   9.351   6.317   9.976  0.1466  0.6001 -0.2365
37602SOL    HW120046   9.317   6.244   9.924 -1.6459 -0.1338  1.8307
37602SOL    HW220047   9.280   6.380   9.978  0.9726  1.5598 -0.3690
37603SOL     OW20048  11.777   2.064   1.532  0.3525 -0.1467 -0.3373
37603SOL    HW120049  11.871   2.074   1.516  0.0295  1.8935 -1.1743
37603SOL    HW220050  11.736   2.083   1.448 -0.8683 -0.2801  0.2051
37604SOL     OW20051  10.315   4.426   9.864 -0.2031 -0.3497  0.1457
37604SOL    HW120052  10.364   4.355   9.905  0.4137  0.7364  1.3648
37604SOL    HW220053  10.237   4.436   9.918 -0.5945 -0.5068 -0.3869
37605SOL     OW20054  11.477   8.382  11.623  0.0609  0.4555  0.3504
37605SOL    HW120055  11.465   8.340  11.538  0.9756  0.8798  0.0012
37605SOL    HW220056  11.389   8.412  11.647 -0.4707 -0.9043  0.2325
37606SOL     OW20057   8.676   2.294   6.238 -0.2820  0.1100  0.2824
37606SOL    HW120058   8.677   2.346   6.319  1.7889  0.3134  0.1732
37606SOL    HW220059   8.685   2.359   6.168  0.2820 -0.2372  0.0263
37607SOL     OW20060  11.617   9.891  11.975 -0.1054 -0.0555 -0.1188
37607SOL    HW120061  11.686   9.947  12.011  0.5971  0.0324 -1.5343
37607SOL    HW220062  11.535   9.929  12.008  0.5202 -0.6473  2.2479
37608SOL     OW20063   4.555   8.028  11.798  0.0391  0.1207  0.4639
37608SOL    HW120064   4.549   8.123  11.787  1.3219  0.1316 -0.4686
37608SOL    HW220065   4.467   7.996  11.777 -0.1949  1.0434 -0.0383
37609SOL     OW20066   2.625  12.358   0.641 -0.9132 -0.1048 -0.4473
37609SOL    HW120067   2.648  12.266   0.657  1.0384  0.3578 -0.3465
37609SOL    HW220068   2.672  12.381   0.561 -0.4951  1.0883  0.1153
37610SOL     OW20069   8.602   4.458   0.739  0.1024  0.2861  0.0411
37610SOL    HW120070   8.612   4.501   0.824  0.7013  0.0284  0.1033
37610SOL    HW220071   8.617   4.528   0.675 -1.3389  0.7119  0.1305
37611SOL     OW20072   4.533  11.215   8.220 -0.1959  0.6629 -0.4974
37611SOL    HW120073   4.542  11.213   8.125 -0.2136  0.7022 -0.5001
37611SOL    HW220074   4.622  11.220   8.253 -0.1745  0.3108 -0.5001
37612SOL     OW20075   2.483   6.034   7.279  1.0825  0.0441 -0.1563
37612SOL    HW120076   2.408   5.974   7.278  1.3592 -0.3041 -0.1557
37612SOL    HW220077   2.535   6.008   7.204  2.8418 -1.8332  1.5886
37613SOL     OW20078   5.317  10.889   3.999  0.0137 -0.1591 -0.1793
37613SOL    HW120079   5.271  10.955   3.947  0.0964 -0.7018 -0.9623
37613SOL    HW220080   5.248  10.841   4.044 -0.2268 -1.0796 -1.4823
37614SOL     OW20081   6.111   4.155  11.098 -0.0704 -0.2966  0.3047
37614SOL    HW120082   6.127   4.085  11.161 -2.1912 -1.1996 -0.0725
37614SOL    HW220083   6.103   4.111  11.013 -0.6154  0.4666 -0.0613
37615SOL     OW20084   3.850   4.465   0.763  0.1244  0.0800 -0.3735
37615SOL    HW120085   3.798   4.408   0.820  0.6574  1.1150  1.2244
37615SOL    HW220086   3.889   4.406   0.699 -1.2684 -0.9949 -0.2837
37616SOL     OW20087   0.201  10.474   9.007 -0.8169  0.1662 -0.3294
37616SOL    HW120088   0.196  10.421   9.086  2.2527  1.1389  0.6509
37616SOL    HW220089   0.164  10.558   9.032 -0.6430  0.1987 -0.1816
37617SOL     OW20090   6.033  10.289   0.948 -0.6173 -0.1746 -0.0491
37617SOL    HW120091   5.990  10.348   0.885 -0.2046 -1.5141 -1.6603
37617SOL    HW220092   6.046  10.343   1.026 -0.4777  1.7932 -1.3529
37618SOL     OW20093   5.466   8.810   1.494  0.3240 -0.2782  0.1694
37618SOL    HW120094   5.371   8.823   1.491  0.2683 -0.6705  0.1282
37618SOL    HW220095   5.483   8.779   1.583  0.3356 -0.7693 -0.0002
37619SOL     OW20096   2.061  10.559   8.795 -0.3781  0.5305 -0.3273
37619SOL    HW120097   2.018  10.635   8.756 -1.9135  0.4697  1.1345
37619SOL    HW220098   1.997  10.525   8.858  1.1754 -0.6005  0.7153
37620SOL     OW20099  11.035  12.058   5.021 -0.5912  0.1656  0.0990
37620SOL    HW120100  11.062  11.966   5.030 -1.9335 -0.3906 -1.1159
37620SOL    HW220101  11.054  12.079   4.929 -0.4270  1.0697  0.3349
37621SOL     OW20102   2.800  10.085   2.875  0.4416  0.5972 -0.4124
37621SOL    HW120103   2.794  10.171   2.835  1.4918 -0.1199 -2.2436
37621SOL    HW220104   2.878  10.045   2.836 -0.7254 -1.6679 -0.6496
37622SOL     OW20105  11.143   6.045   0.539 -0.1142  0.1453 -0.3643
37622SOL    HW120106  11.083   6.052   0.465  0.2234 -0.8143 -0.7383
37622SOL    HW220107  11.223   6.007   0.502  0.0964 -0.2396  0.4731
37623SOL     OW20108   6.973   3.743   7.777 -0.1603 -0.2542  0.0456
37623SOL    HW120109   6.974   3.782   7.864  0.5874 -1.0682  0.4227
37623SOL    HW220110   7.051   3.779   7.734 -0.4642  0.0563 -0.2473
37624SOL     OW20111   8.125   2.245   1.191 -0.5795 -0.3613 -0.1853
37624SOL    HW120112   8.052   2.304   1.209  0.0725  0.0842  1.1759
37624SOL    HW220113   8.173   2.287   1.120  0.1825  1.0663  1.1260
37625SOL     OW20114   8.996   0.508   2.579  0.1461  0.5588  0.7020
37625SOL    HW120115   9.015   0.595   2.615  1.7881  0.2008  0.8016
37625SOL    HW220116   9.072   0.455   2.605 -0.8141 -0.9000  0.6275
37626SOL     OW20117   0.011   8.117   6.537 -0.1008  0.2778  0.0444
37626SOL    HW120118   0.014   8.080   6.449 -2.2639  1.7070 -0.7210
37626SOL    HW220119   0.081   8.183   6.537 -1.6141  2.0002 -1.5396
37627SOL     OW20120  10.589   9.757   8.517  0.2792  0.0407 -0.0981
37627SOL    HW120121  10.655   9.818   8.483 -0.1323  0.0034 -1.0034
37627SOL    HW220122  10.620   9.735   8.605  0.8494  0.9350 -0.0631
37628SOL     OW20123   3.459   8.834   7.848 -0.2443 -0.2809 -0.3017
37628SOL    HW120124   3.392   8.857   7.912 -0.8762  0.1204 -1.0945
37628SOL    HW220125   3.411   8.812   7.768  0.5922  1.2954 -1.2931
37629SOL     OW20126   6.585   0.792  12.243 -0.4639 -0.1601 -0.7003
37629SOL    HW120127   6.639   0.765  12.317 -0.4822 -0.3695 -0.7614
37629SOL    HW220128   6.577   0.887  12.251  1.1122  0.0766 -1.4826
37630SOL     OW20129   6.329   8.517   1.580 -0.4875 -0.2228 -1.0389
37630SOL    HW120130   6.351   8.446   1.519 -1.2081 -0.7043 -0.7612
37630SOL    HW220131   6.302   8.471   1.660 -1.0139  0.3639 -0.8750
37631SOL     OW20132   7.741  10.439   7.258 -0.3473  0.4662 -0.1544
37631SOL    HW120133   7.811  10.413   7.319 -0.6871 -0.5952 -0.1963
37631SOL    HW220134   7.724  10.361   7.206 -3.0697 -0.0395  1.2913
37632SOL     OW20135   8.563   6.250   2.981 -0.3948  0.5859  0.7519
37632SOL    HW120136   8.485   6.249   2.926 -1.0255  0.3462  1.6199
37632SOL    HW220137   8.637   6.247   2.920 -1.0718 -0.8317 -0.0447
37633SOL     OW20138   5.993   0.637  11.437 -0.1836 -0.8489 -0.1370
37633SOL    HW120139   6.005   0.553  11.393  0.2318 -1.0030  0.2699
37633SOL    HW220140   6.035   0.626  11.522 -0.3595 -0.3159  0.0201
37634SOL     OW20141   5.002   8.499   8.543  0.1300 -0.0829  0.0604
37634SOL    HW120142   4.971   8.432   8.483 -0.1334  0.2197 -0.1446
37634SOL    HW220143   5.090   8.471   8.567  0.0300 -0.4883 -0.0398
37635SOL     OW20144   0.954   4.479   2.712  0.1269  0.3953  0.0183
37635SOL    HW120145   0.865   4.473   2.746  0.4017  1.2139  0.9485
37635SOL    HW220146   0.962   4.406   2.651 -1.0646  0.1078  0.1852
37636SOL     OW20147   4.408  11.216   6.547 -0.1379 -0.1320 -0.4884
37636SOL    HW120148   4.498  11.249   6.551 -0.8115  1.8468 -0.4891
37636SOL    HW220149   4.368  11.266   6.475 -1.0895 -1.4188 -0.8837
37637SOL     OW20150   0.754   4.044   4.739 -0.2103  0.3021 -0.7051
37637SOL    HW120151   0.685   4.101   4.706 -1.4561 -0.7192  0.0169
37637SOL    HW220152   0.708   3.964   4.766  1.0554  0.1290  1.1381
37638SOL     OW20153   5.884   0.505   8.189 -0.0638  0.8806 -0.1331
37638SOL    HW120154   5.886   0.600   8.183 -2.0727  0.9863 -0.0835
37638SOL    HW220155   5.798   0.486   8.228  0.7124 -0.9147  0.7968
37639SOL     OW20156   3.348   0.620   7.167  0.1414 -1.1467 -0.6879
37639SOL    HW120157   3.411   0.550   7.152  1.7601 -0.4878  2.1841
37639SOL    HW220158   3.399   0.701   7.155  0.1229 -0.6011  2.0990
37640SOL     OW20159  11.548   8.170   0.930  0.0901 -0.3135  0.2015
37640SOL    HW120160  11.621   8.232   0.928 -0.6941  0.6592  0.9007
37640SOL    HW220161  11.584   8.093   0.975  1.1940 -0.5627 -1.0373
37641SOL     OW20162  10.990   8.658   7.983 -0.0611  0.6137  0.0704
37641SOL    HW120163  11.049   8.655   7.907 -0.1820 -1.3254 -0.0026
37641SOL    HW220164  11.002   8.573   8.025 -1.6600  0.7950  0.9535
37642SOL     OW20165   5.573   2.764   9.041 -0.0881 -0.5663  0.2810
37642SOL    HW120166   5.627   2.808   9.107 -0.1133 -1.1827  0.7260
37642SOL    HW220167   5.511   2.831   9.012  0.4329 -0.0673  0.3113
37643SOL     OW20168   3.058   9.839   7.501 -0.1650 -0.2206  0.3455
37643SOL    HW120169   3.058   9.757   7.550  1.9517 -0.0804  0.6785
37643SOL    HW220170   3.138   9.884   7.530 -0.4186  1.2045 -1.0486
37644SOL     OW20171   0.627  11.257   4.428 -0.9249  0.0228 -0.0081
37644SOL    HW120172   0.667  11.174   4.453 -0.9988  0.3804  1.3386
37644SOL    HW220173   0.599  11.296   4.510  0.1552  1.9175 -0.4794
37645SOL     OW20174  10.268   0.140   1.477 -0.1944 -0.2585  0.3580
37645SOL    HW120175  10.251   0.123   1.384 -0.8718 -0.2758  0.4813
37645SOL    HW220176  10.182   0.135   1.519  0.4034 -3.1075  1.4584
37646SOL     OW20177   4.254   7.326   2.276  0.3343  0.2430 -0.1444
37646SOL    HW120178   4.322   7.302   2.214  0.8109  1.6869 -0.2107
37646SOL    HW220179   4.172   7.295   2.237  0.8616 -0.8074 -0.4308
37647SOL     OW20180   0.324   5.094   4.409  0.2632 -0.1803  0.1444
37647SOL    HW120181   0.405   5.115   4.363 -0.5031 -0.1253 -1.2519
37647SOL    HW220182   0.294   5.012   4.369 -0.6786  0.1288  0.1769
37648SOL     OW20183   3.902   8.353   5.505  0.0003  0.4363 -0.5548
37648SOL    HW120184   3.994   8.327   5.497 -0.3569 -1.0501 -0.1678
37648SOL    HW220185   3.897   8.398   5.589  0.1190 -0.8345  0.1688
37649SOL     OW20186   2.173   1.971   7.252 -0.6577 -0.1788  0.3413
37649SOL    HW120187   2.223   1.894   7.278 -0.2938  0.4337  1.5304
37649SOL    HW220188   2.181   2.031   7.326  0.4729  1.6866 -1.1973
37650SOL     OW20189   4.747   3.607   3.856  0.1358  0.3373 -0.5154
37650SOL    HW120190   4.788   3.619   3.942 -1.0832 -1.4138  0.3967
37650SOL    HW220191   4.805   3.651   3.795  1.3877  1.0982  1.1392
37651SOL     OW20192  11.469   2.079   7.786  0.2725 -0.0668  0.2193
37651SOL    HW120193  11.481   2.107   7.876 -2.6294 -2.0487  1.3559
37651SOL    HW220194  11.379   2.105   7.765  0.5148 -0.6488 -1.7410
37652SOL     OW20195  12.370   1.700   4.812 -0.3044 -0.3983 -0.3988
37652SOL    HW120196  12.424   1.657   4.878 -1.0399 -1.5083 -0.4872
37652SOL    HW220197  12.399   1.791   4.812  2.5761 -1.2188 -1.4691
37653SOL     OW20198   0.472   1.930   1.108  0.0059 -0.3952  0.2803
37653SOL    HW120199   0.535   1.866   1.075 -1.9081 -1.1701 -2.1962
37653SOL    HW220200   0.492   2.010   1.059  0.2571 -0.0572  0.9188
37654SOL     OW20201   5.873  10.250   3.733  0.2722  0.0273  0.1134
37654SOL    HW120202   5.965  10.252   3.757  0.3236  0.3834 -0.0987
37654SOL    HW220203   5.837  10.176   3.781  0.6142  0.0392  0.3905
37655SOL     OW20204  10.472   7.309   0.672 -0.2147  0.6561  0.0642
37655SOL    HW120205  10.479   7.323   0.767  0.6120  0.2123  0.0761
37655SOL    HW220206  10.439   7.392   0.638 -0.7815  0.7317  0.7688
37656SOL     OW20207   7.612   3.193   3.063  0.2267  0.0982  0.2139
37656SOL    HW120208   7.689   3.136   3.064  0.7944  0.8440  0.0462
37656SOL    HW220209   7.630   3.258   3.132 -1.1109 -0.8140  1.4840
37657SOL     OW20210   6.032   5.415  10.552  0.5213  0.3732 -0.0074
37657SOL    HW120211   5.939   5.429  10.538  0.6735  0.0896 -1.4893
37657SOL    HW220212   6.041   5.320  10.564  0.9040 -0.0592 -2.9424
37658SOL     OW20213  11.666   3.586   9.363 -0.1094 -0.0515  0.4912
37658SOL    HW120214  11.600   3.611   9.428 -0.2862 -0.7187  0.5790
37658SOL    HW220215  11.705   3.668   9.335 -1.9666  0.5206 -0.6087
37659SOL     OW20216  10.980   7.660  11.710  0.1807 -0.7064  0.1577
37659SOL    HW120217  10.967   7.755  11.711 -1.5215 -0.8939 -0.3255
37659SOL    HW220218  11.075   7.649  11.716  0.3507  0.9806  1.6667
37660SOL     OW20219   3.219   9.628   3.956 -0.6126  0.7996 -0.1440
37660SOL    HW120220   3.169   9.657   3.880  0.5739 -0.0137 -1.2996
37660SOL    HW220221   3.306   9.667   3.944 -1.0795  2.8460  2.2223
37661SOL     OW20222   6.438  10.521   6.128  0.3119  0.2366  0.6694
37661SOL    HW120223   6.415  10.428   6.122  0.2794  0.2744  0.1776
37661SOL    HW220224   6.355  10.567   6.124  0.1227  0.2228  3.0153
37662SOL     OW20225  10.359  12.320  12.353  0.2247  0.4615 -0.2836
37662SOL    HW120226  10.366  12.244  12.410 -0.6212  1.3011  1.0101
37662SOL    HW220227  10.275  12.309  12.309 -1.0632  1.7063  1.6593
37663SOL     OW20228   9.434   6.313   2.674  0.8084 -0.1275 -0.1461
37663SOL    HW120229   9.474   6.297   2.759  2.3146 -0.6210 -0.9215
37663SOL    HW220230   9.499   6.283   2.610 -0.0217  0.8009 -1.4864
37664SOL     OW20231   0.649   7.539   8.306 -0.3467  0.3571  0.7819
37664SOL    HW120232   0.640   7.545   8.401  0.8739  0.6399  0.8934
37664SOL    HW220233   0.733   7.495   8.292 -0.1220  1.0486 -0.1723
37665SOL     OW20234   1.229   1.059   5.548 -0.1607  0.0351 -0.1356
37665SOL    HW120235   1.301   1.119   5.531 -1.3117  0.7090 -3.3940
37665SOL    HW220236   1.270   0.973   5.558  1.1761  0.6213 -0.3698
37666SOL     OW20237   4.296  11.353   0.361 -0.6345  0.7634  0.1960
37666SOL    HW120238   4.204  11.348   0.387 -0.1433 -0.0605  1.8944
37666SOL    HW220239   4.333  11.268   0.385  0.5256  0.9833 -0.6886
37667SOL     OW20240  10.489   8.760  11.941  0.1565  0.2236  0.0046
37667SOL    HW120241  10.433   8.684  11.957  0.7777 -0.6207 -1.6201
37667SOL    HW220242  10.523   8.747  11.852  0.9640  1.9716  0.0127
37668SOL     OW20243  12.583   6.866   3.071 -0.7707  0.2187 -0.2543
37668SOL    HW120244  12.496   6.847   3.106 -0.0609 -2.9965  0.0563
37668SOL    HW220245  12.626   6.917   3.140 -2.2077  1.5608 -0.2737
37669SOL     OW20246  11.145   7.081   2.725  0.4615 -0.1108 -0.5907
37669SOL    HW120247  11.126   7.133   2.647  0.1266 -1.6894 -1.6139
37669SOL    HW220248  11.137   6.990   2.696  0.3301 -0.7493  1.2960
37670SOL     OW20249   8.693   3.658   9.231  0.2635 -0.1639  0.2221
37670SOL    HW120250   8.743   3.594   9.180 -0.6071  0.0939 -0.9851
37670SOL    HW220251   8.760   3.710   9.277  1.0606 -0.4537 -0.5950
37671SOL     OW20252   9.925   8.033   3.467 -1.0411 -0.1497 -0.7762
37671SOL    HW120253   9.968   8.003   3.547 -0.8792 -0.9164 -1.1400
37671SOL    HW220254   9.855   8.091   3.497 -0.2755  0.4517 -0.1408
37672SOL     OW20255   3.668   6.589  11.351  0.4492  0.0003 -0.1560
37672SOL    HW120256   3.748   6.638  11.369  0.1381  0.1822  0.7755
37672SOL    HW220257   3.615   6.599  11.430  0.5414 -2.1603  0.2508
37673SOL     OW20258   7.141   2.994   9.356  0.6010  0.4645 -0.2499
37673SOL    HW120259   7.116   2.920   9.410  1.5895 -1.1702 -1.9223
37673SOL    HW220260   7.112   2.971   9.268 -2.1416  3.5823 -0.3786
37674SOL     OW20261  11.303  11.633   9.215  0.1040 -0.1362  0.0793
37674SOL    HW120262  11.261  11.609   9.297 -1.2563 -0.9011 -0.8115
37674SOL    HW220263  11.266  11.718   9.193  1.0334  0.4249  0.6103
37675SOL     OW20264   2.824   1.578   6.102 -0.0816 -0.2583  0.3724
37675SOL    HW120265   2.773   1.654   6.076  0.0430 -0.2796  0.0587
37675SOL    HW220266   2.776   1.540   6.176 -1.5876 -1.3711 -1.0989
37676SOL     OW20267  12.691   2.385   9.417 -0.2079 -0.0405  0.0797
37676SOL    HW120268  12.723   2.338   9.495 -0.0312  2.0392  1.3374
37676SOL    HW220269  12.768   2.427   9.380 -0.0650 -1.9514 -2.0135
37677SOL     OW20270   9.267  11.813   1.045 -0.4165  0.5442 -0.5104
37677SOL    HW120271   9.196  11.757   1.014  0.4893 -0.6583 -0.4885
37677SOL    HW220272   9.223  11.888   1.085 -1.7297 -1.0273  1.1405
37678SOL     OW20273   5.938   6.697   3.863 -0.1175  0.1383  0.2846
37678SOL    HW120274   5.897   6.649   3.791  1.7060  0.2085 -0.8879
37678SOL    HW220275   5.938   6.789   3.835  3.6572 -0.1664 -1.4267
37679SOL     OW20276   8.262  10.832   0.584  0.0035 -0.4077  0.2968
37679SOL    HW120277   8.282  10.925   0.572 -0.5875 -0.0173  2.1186
37679SOL    HW220278   8.174  10.822   0.546 -0.5740  0.1435  1.4263
37680SOL     OW20279  10.652   4.683   1.031 -0.1682 -0.3457 -0.4907
37680SOL    HW120280  10.626   4.753   1.091 -0.9925 -0.3345 -0.8489
37680SOL    HW220281  10.679   4.611   1.089  0.3753  0.1488 -0.1220
37681SOL     OW20282   8.073   7.360   2.145 -0.1834 -0.0703  0.3746
37681SOL    HW120283   8.094   7.396   2.058 -1.1681 -0.9098 -0.2421
37681SOL    HW220284   8.102   7.269   2.141 -1.7341 -0.5918  0.3105
37682SOL     OW20285  12.286  12.445  10.731 -0.4130 -0.2493  0.0477
37682SOL    HW120286  12.373  12.411  10.751  0.0322  1.3931  1.0560
37682SOL    HW220287  12.227  12.372  10.748  0.6245 -0.9475  0.7510
37683SOL     OW20288  11.200   4.639   5.836  0.2936 -0.3591 -0.1382
37683SOL    HW120289  11.219   4.600   5.751  1.6632  0.7826 -0.3982
37683SOL    HW220290  11.245   4.724   5.834 -0.1029 -0.0728  1.5191
37684SOL     OW20291   7.286   2.746  10.366 -0.1548 -0.0231  0.0592
37684SOL    HW120292   7.342   2.684  10.319 -2.0619 -1.4286 -0.4874
37684SOL    HW220293   7.322   2.748  10.454  0.6850 -0.9911 -0.2369
37685SOL     OW20294   0.860   0.427   7.935  0.7107  0.2350 -0.2710
37685SOL    HW120295   0.767   0.440   7.954  0.7223  0.9647 -0.6923
37685SOL    HW220296   0.898   0.397   8.018 -0.0448 -0.8865 -0.3016
37686SOL     OW20297   5.526   7.848   1.706  0.2385  0.6386 -0.3351
37686SOL    HW120298   5.536   7.813   1.617 -1.6721  0.3276 -0.4720
37686SOL    HW220299   5.507   7.770   1.760  0.4723  0.9334  0.1805
37687SOL     OW20300   4.499   5.514  11.768 -0.1798  0.0780 -0.4960
37687SOL    HW120301   4.486   5.505  11.673 -0.8798 -1.4089 -0.2833
37687SOL    HW220302   4.498   5.425  11.801 -0.0041  0.5845  0.9387
37688SOL     OW20303   0.604   4.827   9.076  0.1299 -0.0198  0.0998
37688SOL    HW120304   0.675   4.807   9.015 -0.0286 -2.2495  0.5725
37688SOL    HW220305   0.642   4.893   9.135  0.6724  1.2800 -1.6115
37689SOL     OW20306   6.459   1.028   4.125  0.4440 -0.6479  0.4715
37689SOL    HW120307   6.469   1.025   4.220 -3.6024  1.7054  1.2133
37689SOL    HW220308   6.516   1.098   4.096 -1.1253  1.3181  1.8714
37690SOL     OW20309   4.884   0.267   4.071  0.0253 -0.4423  0.0595
37690SOL    HW120310   4.869   0.360   4.082 -2.0724 -0.9426  2.3949
37690SOL    HW220311   4.980   0.258   4.070  0.2976  1.5809  1.5390
37691SOL     OW20312  10.667   0.238   1.393  0.0467  0.4085 -0.0228
37691SOL    HW120313  10.750   0.199   1.365 -1.5766 -3.8327  0.2543
37691SOL    HW220314  10.688   0.281   1.476  1.9709 -0.8297  0.2099
37692SOL     OW20315   6.993   6.503  12.413  0.0676 -0.2488 -0.4947
37692SOL    HW120316   7.071   6.525  12.362  0.3446  0.8648  0.3611
37692SOL    HW220317   7.007   6.547  12.497 -2.2678  1.4761 -0.9150
37693SOL     OW20318   7.311   6.885   4.655 -0.0964  0.0279  0.3309
37693SOL    HW120319   7.357   6.802   4.646  0.6060  0.4261  0.1588
37693SOL    HW220320   7.349   6.941   4.586  0.7406  1.0566  1.5656
37694SOL     OW20321   7.918   8.596   1.810 -0.3435  0.8099  0.4191
37694SOL    HW120322   7.955   8.517   1.769  0.3867  1.6418 -0.5781
37694SOL    HW220323   7.824   8.579   1.813 -0.2381  0.0577 -0.1333
37695SOL     OW20324  12.473  12.112  11.802 -0.5864 -1.0308  0.1783
37695SOL    HW120325  12.491  12.026  11.839  0.7725 -0.7465  0.2235
37695SOL    HW220326  12.445  12.165  11.877  0.4733 -0.9275  0.5249
37696SOL     OW20327  11.566   4.485   2.830  0.6436 -0.3779 -0.2077
37696SOL    HW120328  11.601   4.537   2.758  0.8708  1.0125  0.8528
37696SOL    HW220329  11.643   4.445   2.871  0.4006 -2.4829 -1.6240
37697SOL     OW20330   4.759   3.622   1.954 -0.0930  0.2002 -0.1684
37697SOL    HW120331   4.751   3.536   1.996 -1.5956 -1.0040 -2.6549
37697SOL    HW220332   4.805   3.676   2.018 -3.0634 -1.1249  3.4569
37698SOL     OW20333   1.057   9.941   0.654  0.1540  0.1161 -0.6800
37698SOL    HW120334   1.049  10.025   0.609 -0.4856  1.4419  1.7438
37698SOL    HW220335   1.150   9.935   0.675  0.0671  0.6508 -0.1156
37699SOL     OW20336  12.201   7.811  10.300 -0.0371  0.0684 -0.2708
37699SOL    HW120337  12.140   7.738  10.296 -0.5747  0.5501 -1.4965
37699SOL    HW220338  12.150   7.884  10.335  0.2814  0.0533  0.2270
37700SOL     OW20339   6.779   0.999  11.066  0.2443 -0.2837  0.5989
37700SOL    HW120340   6.727   1.026  10.990 -0.4307  0.3825  1.2743
37700SOL    HW220341   6.864   0.974  11.030 -0.3303 -0.7381 -0.4522
37701SOL     OW20342  12.068   6.100   2.296 -0.2927  0.3927  0.4083
37701SOL    HW120343  12.072   6.180   2.243 -1.0220 -0.3318 -0.7820
37701SOL    HW220344  12.153   6.058   2.282 -0.5848  0.0646 -0.4348
37702SOL     OW20345   7.148   2.220  11.977 -0.0905 -0.9669  0.5245
37702SOL    HW120346   7.167   2.309  12.008  0.0234 -0.8995  0.2704
37702SOL    HW220347   7.054   2.210  11.987 -0.8056  0.6256 -3.0525
37703SOL     OW20348  11.264  11.311   9.388  0.5040  0.6274  0.5450
37703SOL    HW120349  11.295  11.224   9.364  0.8299  1.2480 -1.3964
37703SOL    HW220350  11.292  11.322   9.479 -0.0026 -1.4711  1.0118
37704SOL     OW20351   3.264   6.408   8.597 -0.4028  0.6840  0.2864
37704SOL    HW120352   3.235   6.348   8.528  0.5579  0.1344  0.3414
37704SOL    HW220353   3.205   6.484   8.589 -0.6432  0.4059 -0.7933
37705SOL     OW20354  12.301  10.583   4.604  0.3809  0.0212 -0.2041
37705SOL    HW120355  12.221  10.595   4.656  1.5577  0.0827  1.6904
37705SOL    HW220356  12.297  10.492   4.575  0.6254 -0.6788  1.7604
37706SOL     OW20357   4.203   1.750   3.595  0.0158 -0.0710 -0.1884
37706SOL    HW120358   4.267   1.798   3.542 -0.0305  0.3736  0.1563
37706SOL    HW220359   4.133   1.727   3.534  0.7482 -1.0279 -0.6896
37707SOL     OW20360   6.785   6.321   2.610 -0.4863 -0.5005 -0.2457
37707SOL    HW120361   6.763   6.343   2.519 -0.6648 -0.6251 -0.2349
37707SOL    HW220362   6.831   6.398   2.643 -1.6311  0.1140 -0.0210
37708SOL     OW20363   5.932  11.923   2.508  0.6732  0.2076 -0.1810
37708SOL    HW120364   5.904  11.940   2.598 -0.3205 -0.5226 -0.3329
37708SOL    HW220365   5.891  11.839   2.486  1.3536  0.1149 -1.1286
37709SOL     OW20366  10.595   6.798   7.630  0.3085 -0.2827  0.3324
37709SOL    HW120367  10.570   6.750   7.551 -0.7636  0.1869  0.3772
37709SOL    HW220368  10.639   6.877   7.596 -0.8556  0.3104  0.1708
37710SOL     OW20369   3.527   5.631   1.452  0.2544 -0.2221 -0.1211
37710SOL    HW120370   3.534   5.679   1.535  1.7744  0.3411 -0.5381
37710SOL    HW220371   3.594   5.563   1.459 -0.0257 -0.5554 -0.6511
37711SOL     OW20372   1.384   0.326   7.623 -0.8671 -0.1137  0.5507
37711SOL    HW120373   1.348   0.245   7.587  2.2667 -1.2112 -0.4736
37711SOL    HW220374   1.412   0.302   7.711  0.4037 -0.3136  0.1128
37712SOL     OW20375   7.020   6.858   6.243 -0.0501  0.3382 -0.0338
37712SOL    HW120376   6.947   6.798   6.262  0.0803 -0.2447 -1.2488
37712SOL    HW220377   7.096   6.816   6.283 -0.2387  0.5355  0.5390
37713SOL     OW20378   5.271   5.628   4.957 -0.3402  0.1571 -0.5064
37713SOL    HW120379   5.241   5.688   5.025  0.4773  0.5572 -0.4902
37713SOL    HW220380   5.245   5.541   4.989 -3.8275  0.6172 -1.7126
37714SOL     OW20381   2.900   1.896   4.469 -0.4446 -0.1181  0.4208
37714SOL    HW120382   2.906   1.981   4.513  2.1015 -0.5908  1.2006
37714SOL    HW220383   2.976   1.895   4.411 -0.9292 -1.5196 -0.2164
37715SOL     OW20384  10.388   1.067   9.415 -0.4427 -0.4697 -0.3176
37715SOL    HW120385  10.360   1.155   9.390  1.8667  0.2504 -0.6323
37715SOL    HW220386  10.307   1.023   9.442 -1.6236  1.8742  0.2874
37716SOL     OW20387   1.045  11.484   8.291  0.3353  0.3756 -0.0746
37716SOL    HW120388   1.015  11.557   8.344  1.7802 -0.4230  1.9294
37716SOL    HW220389   1.140  11.482   8.301  0.6824  0.0387 -2.5664
37717SOL     OW20390   0.056   5.797  11.995 -0.1007  0.2733  0.0346
37717SOL    HW120391   0.113   5.728  11.961 -0.1919 -0.0589  0.5390
37717SOL    HW220392   0.073   5.797  12.090 -2.6181 -1.4451  0.5957
37718SOL     OW20393   2.594  12.095   8.101 -0.0487  0.3038 -0.5137
37718SOL    HW120394   2.645  12.048   8.167  0.5464  0.0532 -1.1346
37718SOL    HW220395   2.607  12.187   8.122  1.4382  0.2769 -1.2086
37719SOL     OW20396   8.299   1.209  11.869 -0.1620  0.0548  0.2692
37719SOL    HW120397   8.309   1.115  11.852 -0.1315  0.3408 -1.4672
37719SOL    HW220398   8.357   1.226  11.943 -0.4766 -1.3538  0.8858
37720SOL     OW20399   3.149   9.283   8.074  0.3644 -0.2977 -0.0654
37720SOL    HW120400   3.137   9.373   8.105 -0.5486 -0.0543 -1.0336
37720SOL    HW220401   3.090   9.277   7.999  0.3685 -1.7389  0.0374
37721SOL     OW20402   6.534   0.793  11.380 -0.4269  0.3658 -0.3041
37721SOL    HW120403   6.479   0.868  11.405 -0.0440  0.6260 -0.2270
37721SOL    HW220404   6.622   0.830  11.372 -0.1098 -0.2037  0.3973
37722SOL     OW20405   6.086   6.776  10.308 -0.3260  0.5019  0.1842
37722SOL    HW120406   5.994   6.772  10.282  0.0047  3.2427 -1.8544
37722SOL    HW220407   6.084   6.800  10.401 -1.6769  1.0637  0.0275
37723SOL     OW20408  10.362   0.094  11.658 -0.6364 -0.3030 -0.0936
37723SOL    HW120409  10.308   0.094  11.579 -1.9492 -0.0707  0.7775
37723SOL    HW220410  10.356   0.183  11.691 -0.0060 -0.3738  0.2301
37724SOL     OW20411   3.295  12.368   8.195  0.2658 -0.0793  0.5382
37724SOL    HW120412   3.378  12.382   8.240  0.2473  1.8000  0.0608
37724SOL    HW220413   3.303  12.280   8.157  1.4098 -0.5392  1.7450
37725SOL     OW20414   9.439  11.426   1.794 -0.0632 -0.1523  0.2501
37725SOL    HW120415   9.375  11.496   1.786 -0.8731 -0.8902  0.1346
37725SOL    HW220416   9.524  11.469   1.784 -0.3497  1.3055  3.2708
37726SOL     OW20417  12.240   3.012   9.721 -0.1857  0.0534 -0.9690
37726SOL    HW120418  12.261   3.063   9.643 -0.4172 -1.3606 -1.9938
37726SOL    HW220419  12.319   3.019   9.776  1.0313 -0.9824 -2.4796
37727SOL     OW20420   6.131   9.261   2.194  0.5118 -0.3846  0.4450
37727SOL    HW120421   6.063   9.222   2.249  1.0457  0.7288  1.9617
37727SOL    HW220422   6.084   9.292   2.116 -0.7517  0.4360  1.4913
37728SOL     OW20423   6.008   9.718   5.729 -0.1861 -0.4068 -0.1222
37728SOL    HW120424   5.982   9.727   5.821 -0.0884  0.8470 -0.1984
37728SOL    HW220425   6.002   9.807   5.694  0.1616 -0.8068 -1.2330
37729SOL     OW20426  10.059  11.311   7.006 -0.2462  0.1815 -0.0625
37729SOL    HW120427  10.131  11.251   7.026 -1.3659 -1.2806 -0.1886
37729SOL    HW220428  10.002  11.260   6.948 -1.4432  1.2431  0.1520
37730SOL     OW20429   6.314  11.313   0.950  0.4721 -0.1094 -0.0425
37730SOL    HW120430   6.278  11.380   0.891 -1.8182 -0.4278  0.8782
37730SOL    HW220431   6.409  11.322   0.941  0.2233  1.7643 -1.6006
37731SOL     OW20432  11.596   4.335   7.863  0.1677  0.4482 -0.9686
37731SOL    HW120433  11.510   4.294   7.864 -0.6016  1.9938 -0.1995
37731SOL    HW220434  11.657   4.263   7.873 -1.0254 -0.6903 -1.6250
37732SOL     OW20435  10.601   3.891   2.624 -0.5057  0.9259  0.2949
37732SOL    HW120436  10.602   3.824   2.556  0.5227  0.1390  1.0410
37732SOL    HW220437  10.513   3.885   2.662 -0.8892  0.9758 -0.5656
37733SOL     OW20438  10.243   5.314   4.109  0.2464 -0.4191  0.5547
37733SOL    HW120439  10.259   5.333   4.201 -2.4107 -1.2196  1.2845
37733SOL    HW220440  10.183   5.383   4.080  1.6810  0.2945 -0.8613
37734SOL     OW20441   7.619  11.098   9.797  0.0494  0.3946  0.1981
37734SOL    HW120442   7.541  11.148   9.819 -0.8163 -0.7659 -0.1193
37734SOL    HW220443   7.614  11.087   9.702 -0.7670 -1.7794  0.4319
37735SOL     OW20444   5.598  10.763   7.449  0.3985 -0.2946 -0.1412
37735SOL    HW120445   5.581  10.805   7.533  0.0970 -0.2940 -0.2039
37735SOL    HW220446   5.520  10.781   7.397  0.7827  0.1219 -0.5896
37736SOL     OW20447  10.369   3.361  11.944 -0.0203  0.0956  0.1611
37736SOL    HW120448  10.451   3.350  11.991 -0.2908 -1.8905  0.2585
37736SOL    HW220449  10.369   3.291  11.879 -0.6471  1.4360 -1.3311
37737SOL     OW20450   8.924   0.737   9.610 -0.4741 -0.3982  0.3836
37737SOL    HW120451   8.868   0.706   9.682 -0.8799 -1.0699 -0.2078
37737SOL    HW220452   8.907   0.675   9.539  0.7091 -0.3575  0.0559
37738SOL     OW20453  12.685   6.880   0.116  0.0461  0.1409  0.1370
37738SOL    HW120454  12.734   6.932   0.179 -2.4490  1.7496  0.8963
37738SOL    HW220455  12.612   6.937   0.090 -1.3879 -2.0723 -0.9415
37739SOL     OW20456   2.625   9.588   7.023  0.0812 -0.5359  0.1240
37739SOL    HW120457   2.607   9.589   7.117  0.6260 -0.4732  0.2293
37739SOL    HW220458   2.622   9.680   6.996  0.0928 -0.5390  0.1123
37740SOL     OW20459   8.700   3.769  10.385 -0.0377 -0.6776  0.3784
37740SOL    HW120460   8.715   3.677  10.362 -2.4138 -0.8931 -0.6424
37740SOL    HW220461   8.605   3.780  10.377  0.3505  2.4855 -2.0048
37741SOL     OW20462   7.899   9.302  10.052  0.0880 -0.4458 -0.5146
37741SOL    HW120463   7.840   9.280  10.124 -1.4492 -0.7115 -1.8043
37741SOL    HW220464   7.928   9.217  10.019 -0.4542 -0.3718 -1.1911
37742SOL     OW20465   6.894   1.351   2.395  0.0400 -0.0595 -0.2269
37742SOL    HW120466   6.982   1.386   2.381 -0.0778  0.6363  0.6781
37742SOL    HW220467   6.837   1.405   2.340  0.1201 -0.2227 -0.4713
37743SOL     OW20468  11.780   3.761   0.214 -0.1042 -0.1525 -0.3229
37743SOL    HW120469  11.689   3.785   0.232 -1.4274 -2.8871 -2.5424
37743SOL    HW220470  11.814   3.729   0.298 -0.4182  2.7079  1.0136
37744SOL     OW20471   9.678   5.331   3.471  0.1524 -0.3356 -0.1692
37744SOL    HW120472   9.584   5.347   3.485 -0.3011 -3.4834  1.1329
37744SOL    HW220473   9.708   5.290   3.552  3.1499  2.0847  0.1081
37745SOL     OW20474   5.176   7.964   5.406 -0.0074  0.5407 -0.4667
37745SOL    HW120475   5.155   7.904   5.335  1.0281  1.6244 -1.7314
37745SOL    HW220476   5.107   7.949   5.471 -1.2076 -0.2022 -1.8526
37746SOL     OW20477   5.163   0.188  10.561  0.0040 -0.0780 -0.3883
37746SOL    HW120478   5.256   0.167  10.558  0.1341  0.5008 -0.5368
37746SOL    HW220479   5.152   0.242  10.639 -0.5860 -1.8601  0.8302
37747SOL     OW20480   7.539   9.378  10.968  0.3649  0.0688  0.2075
37747SOL    HW120481   7.462   9.434  10.959  0.9419  1.1118  1.3395
37747SOL    HW220482   7.523   9.327  11.048  1.7917  2.0062  1.8387
37748SOL     OW20483   5.017   7.562   4.740  0.5595  0.2298 -0.3380
37748SOL    HW120484   4.936   7.610   4.757  1.4557  1.6849 -0.0915
37748SOL    HW220485   4.994   7.470   4.757 -1.1334  0.5569 -0.6662
37749SOL     OW20486   4.941   6.253   3.361 -0.6148 -0.0417 -0.8707
37749SOL    HW120487   4.968   6.261   3.269  0.1550 -0.3539 -0.6760
37749SOL    HW220488   5.016   6.285   3.411 -0.4764 -1.1933 -0.3166
37750SOL     OW20489   7.942  11.770   7.643  0.0114  0.6793  0.0647
37750SOL    HW120490   7.897  11.769   7.558 -2.5722 -0.7745  1.2966
37750SOL    HW220491   7.887  11.714   7.699  3.3446 -1.0761  1.8498
37751SOL     OW20492   1.816  10.661   1.259  0.3034  0.0906  0.1740
37751SOL    HW120493   1.731  10.680   1.221  0.7513 -0.2689 -1.0542
37751SOL    HW220494   1.804  10.676   1.353 -1.3511 -0.8051  0.1493
37752SOL     OW20495   3.833   0.591   1.090  0.0819 -0.5227 -0.2890
37752SOL    HW120496   3.764   0.589   1.156 -0.1889  0.3358 -0.5333
37752SOL    HW220497   3.897   0.526   1.120 -0.0878 -0.2252  0.7507
37753SOL     OW20498   5.305  11.897  12.287  0.0225 -0.2043  0.8912
37753SOL    HW120499   5.319  11.852  12.204 -1.9114 -0.5944  0.7217
37753SOL    HW220500   5.297  11.826  12.351  0.6946  0.0650  1.2813
37754SOL     OW20501   4.164   7.775  11.330  0.1964  0.2979 -0.1022
37754SOL    HW120502   4.251   7.802  11.301  1.2491 -1.3638  1.2845
37754SOL    HW220503   4.156   7.814  11.417 -0.3028  0.1494 -0.0848
37755SOL     OW20504  10.873   4.596   5.365 -0.0588 -0.1152  0.4131
37755SOL    HW120505  10.820   4.658   5.314  1.5796  0.6015 -0.5034
37755SOL    HW220506  10.845   4.510   5.334  0.6859  0.2993 -1.5362
37756SOL     OW20507  12.679  11.204  10.807  0.2484  0.1251 -0.8696
37756SOL    HW120508  12.766  11.199  10.769  0.8349  0.3341  0.4101
37756SOL    HW220509  12.683  11.149  10.885 -0.8798 -0.1593 -0.9787
37757SOL     OW20510   7.027   2.213   6.579 -0.3219  0.5041  0.0607
37757SOL    HW120511   6.939   2.175   6.575  1.0225 -3.1328  1.0129
37757SOL    HW220512   7.038   2.238   6.671  0.0879 -0.3294  0.2443
37758SOL     OW20513   3.380   7.109   6.784  0.6035  0.2942  0.5547
37758SOL    HW120514   3.391   7.014   6.794  0.8359  0.4568  2.1271
37758SOL    HW220515   3.354   7.139   6.871 -1.4405  1.4273 -0.3859
37759SOL     OW20516  10.023  11.794  11.301  0.2032  0.0861 -0.0909
37759SOL    HW120517   9.937  11.759  11.327  1.1258 -0.9920  1.6944
37759SOL    HW220518  10.046  11.745  11.222  0.1685 -1.3091  0.7286
37760SOL     OW20519   7.258   0.082   7.961 -0.3956  0.3214  0.3853
37760SOL    HW120520   7.241   0.147   7.893  1.1126 -0.5832 -0.9345
37760SOL    HW220521   7.189   0.017   7.950  1.2029 -1.1472 -2.0983
37761SOL     OW20522   8.198   2.195   2.520 -0.0519 -0.4797  0.3538
37761SOL    HW120523   8.283   2.161   2.548  0.7842  0.7527 -0.5890
37761SOL    HW220524   8.203   2.289   2.536 -0.9509 -0.2813 -0.4275
37762SOL     OW20525  12.202   3.125   3.089 -0.5127 -0.1376 -0.1758
37762SOL    HW120526  12.296   3.127   3.067 -0.4330  1.2871  0.2340
37762SOL    HW220527  12.159   3.103   3.006  0.1976 -1.5813 -0.2095
37763SOL     OW20528  12.347  10.357   0.126 -0.0177 -0.0661 -0.1410
37763SOL    HW120529  12.362  10.310   0.044  0.2859 -0.9246  0.3886
37763SOL    HW220530  12.364  10.449   0.105  0.6916 -0.3522 -0.8810
37764SOL     OW20531   4.008   3.337   0.144  0.2292  0.1131 -0.5799
37764SOL    HW120532   4.014   3.297   0.230 -1.4474  2.3738  0.7065
37764SOL    HW220533   3.985   3.265   0.085 -2.5038 -0.9536  1.5593
37765SOL     OW20534  11.797  12.564   2.277  0.4068  0.7471 -0.5862
37765SOL    HW120535  11.833  12.644   2.238 -0.7487  1.4102 -0.3320
37765SOL    HW220536  11.874  12.514   2.303  1.1596  1.4953 -1.3147
37766SOL     OW20537  11.075   1.680   4.330  0.4859  0.1353 -0.1049
37766SOL    HW120538  11.065   1.591   4.297  1.2953  0.4163 -1.1257
37766SOL    HW220539  11.045   1.675   4.421  1.5778 -1.4322  0.2022
37767SOL     OW20540  10.235   2.362   5.921  0.9033 -0.3093 -0.0609
37767SOL    HW120541  10.214   2.377   6.013 -0.0426  1.9158 -0.5647
37767SOL    HW220542  10.154   2.328   5.883  0.8838 -0.0187 -0.2921
37768SOL     OW20543  10.739   4.471   1.188 -0.1442 -0.1778  0.5870
37768SOL    HW120544  10.745   4.388   1.140 -0.0595  0.7554 -1.1224
37768SOL    HW220545  10.704   4.448   1.273 -2.1601 -1.7295 -0.5766
37769SOL     OW20546  12.214   1.290  11.014  0.6576  0.3258 -0.5208
37769SOL    HW120547  12.128   1.253  11.035  0.7589 -1.0746 -2.3124
37769SOL    HW220548  12.253   1.310  11.100 -0.5311 -1.1830  0.4300
37770SOL     OW20549   1.885   1.913   3.406  0.0881  0.1605  0.1068
37770SOL    HW120550   1.927   1.934   3.489  0.8106 -1.5925  0.2131
37770SOL    HW220551   1.833   1.835   3.423 -1.4040  0.9603 -0.6085
37771SOL     OW20552   2.220   7.146   4.868 -0.5093 -0.3901 -0.5902
37771SOL    HW120553   2.247   7.215   4.929  1.6144 -2.2292  0.6692
37771SOL    HW220554   2.228   7.187   4.781 -0.2381  1.2234  0.1551
37772SOL     OW20555   3.670   2.443   2.439 -0.4096  0.5554  0.3460
37772SOL    HW120556   3.681   2.441   2.534 -2.2351 -1.6374  0.5840
37772SOL    HW220557   3.729   2.375   2.406 -0.2879  0.8422 -0.0386
37773SOL     OW20558  12.411   6.565   0.646  0.1971  0.0946  0.0515
37773SOL    HW120559  12.430   6.654   0.616  0.3892 -0.3188 -1.0720
37773SOL    HW220560  12.457   6.508   0.585 -0.4749 -0.7992  0.3560
37774SOL     OW20561  12.338   4.188   0.788  0.0572 -0.1540  0.6200
37774SOL    HW120562  12.400   4.127   0.829  2.3136  0.6737 -1.2691
37774SOL    HW220563  12.329   4.259   0.850  1.0119 -0.3167  0.9585
37775SOL     OW20564   6.417   9.479   4.684 -0.0201  0.2275 -0.4396
37775SOL    HW120565   6.353   9.410   4.670  0.2710 -0.5939  1.8650
37775SOL    HW220566   6.369   9.560   4.667 -1.0956 -0.4433 -0.6898
37776SOL     OW20567   4.546   5.487   0.245 -0.2088 -0.0981 -0.3001
37776SOL    HW120568   4.575   5.478   0.154 -0.9175 -1.9867 -0.3827
37776SOL    HW220569   4.470   5.544   0.241 -0.1002  0.0097 -0.8581
37777SOL     OW20570   5.377   3.783  11.857 -0.3923 -0.1362  0.6034
37777SOL    HW120571   5.283   3.769  11.863 -0.3000 -0.8629  0.3678
37777SOL    HW220572   5.389   3.827  11.773 -0.4824 -0.3478  0.4807
37778SOL     OW20573   3.429   5.509   0.512 -0.4431  0.0862  0.6989
37778SOL    HW120574   3.340   5.539   0.491  0.5533  2.4526 -0.6040
37778SOL    HW220575   3.450   5.448   0.441 -0.6248  0.4633  0.3084
37779SOL     OW20576   6.449  10.041   1.715  0.1967 -0.2295  0.4298
37779SOL    HW120577   6.475   9.952   1.740 -0.1420 -0.1548  1.0699
37779SOL    HW220578   6.425  10.034   1.623 -1.2429 -1.1377  0.8429
37780SOL     OW20579   9.959   5.711  12.310 -0.5509 -0.2399  0.6854
37780SOL    HW120580   9.922   5.635  12.265 -1.6480  0.4926  0.2889
37780SOL    HW220581  10.049   5.687  12.329 -0.2718 -0.8718 -1.2532
37781SOL     OW20582   4.561   1.591  11.126 -0.1102  0.1012 -0.0784
37781SOL    HW120583   4.511   1.568  11.205  0.1760 -0.7845 -0.1545
37781SOL    HW220584   4.529   1.679  11.104 -0.5670  0.1544  0.7249
37782SOL     OW20585   2.157   0.939   3.302 -0.1427  0.3819 -0.8805
37782SOL    HW120586   2.189   0.930   3.213 -1.4966 -1.5326 -1.2153
37782SOL    HW220587   2.149   0.850   3.335  1.4842  1.0505  1.6303
37783SOL     OW20588   8.438   5.472   1.651  0.6564 -0.3137  0.0239
37783SOL    HW120589   8.424   5.436   1.563 -1.3578 -0.2423  0.2587
37783SOL    HW220590   8.350   5.490   1.684  1.4402  1.4412  1.3458
37784SOL     OW20591  10.502   3.245   8.568 -0.3010  0.1767  0.2449
37784SOL    HW120592  10.582   3.253   8.620 -0.9844  2.0540  1.0979
37784SOL    HW220593  10.471   3.156   8.586  0.3583  0.2178  1.7747
37785SOL     OW20594  10.850  10.946   4.756  0.4151 -0.0746  0.3760
37785SOL    HW120595  10.847  10.856   4.725 -0.0657  0.1953 -0.4076
37785SOL    HW220596  10.794  10.994   4.695 -1.5649  0.2950  2.3193
37786SOL     OW20597  11.890  11.123   4.122  0.5471 -0.2688  0.1286
37786SOL    HW120598  11.869  11.217   4.126  1.9994  0.0569  0.7827
37786SOL    HW220599  11.909  11.107   4.030  0.6751  0.1723  0.0723
37787SOL     OW20600   0.764  10.781   4.847 -0.2962  0.2166 -0.4324
37787SOL    HW120601   0.734  10.691   4.863 -1.3462  0.7807  0.9032
37787SOL    HW220602   0.698  10.817   4.788 -2.3240  1.3960  2.3538
37788SOL     OW20603   7.450   6.347   7.289 -0.2914  0.2901  0.6872
37788SOL    HW120604   7.386   6.414   7.262  0.2384  0.2438 -0.7987
37788SOL    HW220605   7.526   6.364   7.234 -0.9057 -2.8300 -1.3903
37789SOL     OW20606   7.127   6.923   1.318  0.2035  0.0904 -0.8007
37789SOL    HW120607   7.124   6.833   1.351  0.2683  0.6524  0.8286
37789SOL    HW220608   7.038   6.955   1.330  0.7138  0.9765  0.8705
37790SOL     OW20609   6.868   3.068   1.997  0.3715 -0.1622  0.1075
37790SOL    HW120610   6.824   3.020   1.926  0.1601 -1.1938  0.9206
37790SOL    HW220611   6.857   3.160   1.973 -3.2250 -0.2544  0.7476
37791SOL     OW20612   9.133   9.321   0.373 -0.5745  0.2919  0.0505
37791SOL    HW120613   9.111   9.345   0.462  0.2830  0.1556  0.3092
37791SOL    HW220614   9.062   9.263   0.345 -2.1377  2.2706 -0.2380
37792SOL     OW20615   7.922   3.072   3.751 -0.1161  0.1840  0.2221
37792SOL    HW120616   7.850   3.135   3.746 -0.0912  0.3420  1.5314
37792SOL    HW220617   7.981   3.096   3.679 -0.2295  1.5059  0.5542
37793SOL     OW20618   0.249   7.733  10.114  0.2383 -0.5689 -0.3837
37793SOL    HW120619   0.335   7.691  10.105 -0.1311 -0.9882 -2.4168
37793SOL    HW220620   0.189   7.673  10.069 -1.1291 -0.2374  0.9239
37794SOL     OW20621  12.443   5.281   2.130  0.0912 -0.0654  0.6239
37794SOL    HW120622  12.503   5.285   2.205  1.0799  0.6565 -0.1679
37794SOL    HW220623  12.359   5.307   2.166  0.0562 -1.7792  1.9140
37795SOL     OW20624  10.465   4.057   8.961  0.0458  0.6207 -0.2815
37795SOL    HW120625  10.456   3.961   8.958 -1.7522  0.6166  2.1566
37795SOL    HW220626  10.543   4.071   9.015  0.7158  0.5930 -1.2018
37796SOL     OW20627  11.975   8.636   3.978  0.3859  0.0620 -0.0508
37796SOL    HW120628  12.021   8.622   3.895  0.4521 -1.1846  0.1830
37796SOL    HW220629  12.019   8.712   4.017  1.2058 -0.1415 -0.5489
37797SOL     OW20630   4.788   9.672   3.395  0.0352 -0.1643  0.0278
37797SOL    HW120631   4.736   9.668   3.475 -0.4354 -0.5940 -0.2954
37797SOL    HW220632   4.729   9.711   3.330 -0.9179 -3.1994 -1.0969
37798SOL     OW20633   5.193   4.804   2.965 -0.0974 -0.0325  0.2508
37798SOL    HW120634   5.162   4.744   2.898 -1.2955  2.4533 -1.6215
37798SOL    HW220635   5.127   4.799   3.034 -0.0750 -0.9932  0.2041
37799SOL     OW20636  11.108   6.157   2.023  0.1278 -0.3206  0.3369
37799SOL    HW120637  11.029   6.169   2.076  0.0679  0.9339  0.0154
37799SOL    HW220638  11.077   6.160   1.933  0.3359 -1.5861  0.2124
37800SOL     OW20639   9.466   8.642   2.176 -0.3663  0.0615  0.2597
37800SOL    HW120640   9.463   8.714   2.240 -0.1637 -0.5116  0.9320
37800SOL    HW220641   9.436   8.681   2.094  0.1193  1.0108  0.5197
37801SOL     OW20642   7.100   5.624   9.853 -0.1516  0.6800  0.6089
37801SOL    HW120643   7.108   5.694   9.917  3.9733  0.6386  0.3597
37801SOL    HW220644   7.122   5.545   9.901 -2.5108 -0.2515  0.3241
37802SOL     OW20645   8.108   4.293   1.594  0.4305  1.0441 -0.6795
37802SOL    HW120646   8.030   4.345   1.613 -1.7027 -2.0370 -0.2633
37802SOL    HW220647   8.136   4.261   1.679 -0.2144 -0.9267 -1.1655
37803SOL     OW20648   9.578  10.131   9.275 -0.3421 -0.1859 -0.2063
37803SOL    HW120649   9.518  10.138   9.350 -1.2439 -3.0494 -0.5430
37803SOL    HW220650   9.645  10.069   9.304 -0.1861 -0.6206 -1.4448
37804SOL     OW20651  11.708   7.102  10.717 -0.1919 -0.1531  0.7294
37804SOL    HW120652  11.652   7.077  10.644  0.5786  2.1775 -0.7902
37804SOL    HW220653  11.714   7.023  10.771 -0.4018 -2.1666 -1.9551
37805SOL     OW20654   9.622  10.285   4.302 -0.3804 -0.5115 -0.1317
37805SOL    HW120655   9.700  10.337   4.283  0.2247 -1.0207  0.9229
37805SOL    HW220656   9.550  10.338   4.267  0.5002 -0.5938 -2.2305
37806SOL     OW20657   1.564   7.104   6.029  0.3911 -0.3343  0.4574
37806SOL    HW120658   1.572   7.134   5.939  1.3545 -0.3962  0.5127
37806SOL    HW220659   1.501   7.165   6.069  0.3500  0.0077 -0.1130
37807SOL     OW20660  11.241  10.454   2.835  0.6743 -0.1082  0.0833
37807SOL    HW120661  11.182  10.470   2.762 -0.9408 -1.8181  0.9232
37807SOL    HW220662  11.274  10.365   2.821 -0.6104 -0.9641  1.9603
37808SOL     OW20663   4.446   4.020   5.975  0.1255 -0.1464  0.5817
37808SOL    HW120664   4.383   4.052   5.910  0.1670 -2.4409 -0.7123
37808SOL    HW220665   4.392   3.983   6.045  0.0620  0.1963  0.7147
37809SOL     OW20666   1.691   6.383  10.082  0.0609  0.0774  0.6101
37809SOL    HW120667   1.672   6.405   9.991 -0.1725  0.0474  0.6514
37809SOL    HW220668   1.610   6.344  10.115  0.0740  0.2874  0.8945
37810SOL     OW20669   4.128   4.262   0.991 -0.3705  0.3765  0.2157
37810SOL    HW120670   4.086   4.202   0.929  0.7832 -0.2872  0.0453
37810SOL    HW220671   4.093   4.237   1.076 -0.8100  0.2691  0.0034
37811SOL     OW20672   1.773   5.232   1.089 -0.3337  0.2040  0.2136
37811SOL    HW120673   1.749   5.322   1.111  0.9365 -0.2922  4.4119
37811SOL    HW220674   1.862   5.239   1.055 -0.2646  0.5403  0.4559
37812SOL     OW20675   2.540   4.617   1.822 -0.5032 -0.0699 -0.4330
37812SOL    HW120676   2.564   4.708   1.804 -0.1755 -0.0165  0.2363
37812SOL    HW220677   2.503   4.585   1.740 -1.1492  0.8362 -0.5153
37813SOL     OW20678  10.031   5.241   2.622  0.0050  0.4563  0.1674
37813SOL    HW120679  10.109   5.282   2.659  1.3201 -0.3146 -1.5928
37813SOL    HW220680  10.042   5.148   2.640 -1.4250  0.4981  1.4387
37814SOL     OW20681   2.502   7.531   2.077  0.0190  0.1095  0.4574
37814SOL    HW120682   2.558   7.591   2.027  0.5374  0.6588  1.6484
37814SOL    HW220683   2.542   7.528   2.164 -0.4027 -1.4383  0.6312
37815SOL     OW20684   2.848  10.272   2.031 -0.5872  0.3552  0.2849
37815SOL    HW120685   2.773  10.213   2.038 -0.0221 -0.5198 -0.6438
37815SOL    HW220686   2.924  10.214   2.035  0.0364  1.1862  0.7923
37816SOL     OW20687   3.061   2.994   5.294  0.3178  0.4089  0.0681
37816SOL    HW120688   3.046   2.902   5.316  1.0903 -0.3319 -2.2366
37816SOL    HW220689   2.989   3.040   5.338 -0.3678 -1.3320  0.8997
37817SOL     OW20690   0.050   8.908  11.267 -0.1231 -0.3676 -0.0363
37817SOL    HW120691   0.050   8.815  11.291 -1.8720 -0.7438 -1.2209
37817SOL    HW220692   0.029   8.908  11.173  1.4784  1.1868 -0.4362
37818SOL     OW20693   2.910   3.073   2.081 -0.1546  0.1254  0.4171
37818SOL    HW120694   2.816   3.086   2.070  0.1781  2.1379 -0.4311
37818SOL    HW220695   2.934   3.014   2.009 -0.5914  0.4439  0.0069
37819SOL     OW20696   4.355   6.761   6.014 -0.1023 -0.4947 -0.3287
37819SOL    HW120697   4.310   6.678   6.029  0.4086 -0.7870 -0.3773
37819SOL    HW220698   4.427   6.739   5.954  1.0496 -0.3440  0.9432
37820SOL     OW20699   7.311   6.091   0.995 -0.2798  1.1851 -0.2643
37820SOL    HW120700   7.364   6.119   1.069 -1.2706  0.1029  0.9011
37820SOL    HW220701   7.369   6.037   0.941  0.2284  1.3036  0.1680
37821SOL     OW20702   3.349   5.593  12.348  0.2596  0.1138 -0.3350
37821SOL    HW120703   3.396   5.547  12.418  0.2887 -0.7605 -0.9067
37821SOL    HW220704   3.283   5.645  12.394  0.0490 -0.7101  0.3278
37822SOL     OW20705  11.194   0.755   6.464  0.0528  0.3842 -0.1395
37822SOL    HW120706  11.147   0.689   6.515  0.4013  0.1522 -0.1108
37822SOL    HW220707  11.287   0.731   6.474  0.1333  0.3795 -0.8128
37823SOL     OW20708  12.646   3.437   3.627 -0.0949  0.0614 -0.2838
37823SOL    HW120709  12.701   3.442   3.705 -0.1394 -0.8856 -0.1801
37823SOL    HW220710  12.568   3.389   3.656 -1.3710  2.0689 -0.2211
37824SOL     OW20711   2.503   1.781   5.131  0.5009 -0.7712  0.4698
37824SOL    HW120712   2.482   1.756   5.041  0.4763  0.1015  0.2240
37824SOL    HW220713   2.442   1.731   5.185 -1.6128  0.9531 -0.1635
37825SOL     OW20714   1.113   6.492  12.668  0.4760 -0.3686  0.0353
37825SOL    HW120715   1.055   6.420  12.694 -0.8342  0.6747  0.0989
37825SOL    HW220716   1.189   6.484  12.725  0.0009 -1.2340  0.5649
37826SOL     OW20717   3.980   3.310   9.502 -0.3683  0.3071  0.6851
37826SOL    HW120718   3.940   3.257   9.571 -1.1833 -1.4841 -1.0550
37826SOL    HW220719   3.962   3.262   9.421  2.0966  1.3891 -0.6170
37827SOL     OW20720   6.022  12.141   4.502 -0.3312  0.1565 -0.1303
37827SOL    HW120721   6.011  12.100   4.416  0.2770  0.6236 -0.4411
37827SOL    HW220722   6.017  12.068   4.564 -0.4701 -0.2267 -0.5820
37828SOL     OW20723   4.350   5.403   8.832  0.3011  0.5811  0.0625
37828SOL    HW120724   4.406   5.354   8.893  1.1728  2.3059  0.7243
37828SOL    HW220725   4.376   5.371   8.745  1.2388  0.2620  0.4433
37829SOL     OW20726   3.537   3.705  12.335 -0.0656 -0.0016  0.0217
37829SOL    HW120727   3.529   3.790  12.378 -2.3293  0.9902 -2.1445
37829SOL    HW220728   3.454   3.693  12.289  0.4996 -3.0436 -0.4179
37830SOL     OW20729   5.647   9.717   1.197 -0.5873 -0.6071  0.0904
37830SOL    HW120730   5.563   9.751   1.167 -0.7222  1.2462  2.2793
37830SOL    HW220731   5.709   9.740   1.128 -1.7270 -1.3943 -1.2377
37831SOL     OW20732   5.561   1.992   3.984  0.0254  0.1839  0.0128
37831SOL    HW120733   5.654   2.010   3.972  0.3844 -1.0870  0.6889
37831SOL    HW220734   5.521   2.014   3.900  1.1894 -0.7173 -0.8216
37832SOL     OW20735   7.310   1.612   6.331 -0.1400  0.3415  0.6081
37832SOL    HW120736   7.218   1.597   6.312  0.0277 -0.6102  0.5035
37832SOL    HW220737   7.357   1.566   6.261  0.4112  2.2293 -0.3404
37833SOL     OW20738   8.963  12.581   0.482 -0.2141  0.8315  0.0306
37833SOL    HW120739   8.965  12.671   0.514 -1.6681  0.2252  2.0665
37833SOL    HW220740   8.870  12.559   0.480  0.1113 -0.5812 -0.5718
37834SOL     OW20741   2.099   6.152   6.506 -0.3329  1.1253 -0.4643
37834SOL    HW120742   2.096   6.245   6.483 -0.7061  1.3127  0.3031
37834SOL    HW220743   2.011   6.120   6.486 -0.4594  1.1393  0.0531
37835SOL     OW20744   1.490   4.543  10.309 -0.2253  0.5182  0.6999
37835SOL    HW120745   1.464   4.488  10.235 -2.2072  0.3950  1.4245
37835SOL    HW220746   1.466   4.632  10.283  0.2360  0.6497  0.7114
37836SOL     OW20747   6.714   4.200   3.526  0.2313 -0.1071 -0.2516
37836SOL    HW120748   6.652   4.256   3.479 -1.3676 -2.0146 -0.5521
37836SOL    HW220749   6.784   4.185   3.462 -0.2936 -0.0408 -0.8611
37837SOL     OW20750   3.975   5.754  10.215  0.2229 -0.4934  0.6926
37837SOL    HW120751   4.025   5.820  10.167  0.5290 -1.2149  0.0181
37837SOL    HW220752   3.945   5.801  10.294  1.4116  0.1332  0.8061
37838SOL     OW20753   7.144   4.241  10.592 -0.0224 -0.1558  0.1439
37838SOL    HW120754   7.141   4.315  10.531  1.1881  0.7670  1.1488
37838SOL    HW220755   7.182   4.169  10.541 -1.8219 -0.3380 -1.0407
37839SOL     OW20756   1.552   2.612   0.484  0.2600 -0.3142  0.2292
37839SOL    HW120757   1.551   2.686   0.545 -0.1855  0.3218 -0.5358
37839SOL    HW220758   1.644   2.584   0.483  0.4296  0.2121  0.5455
37840SOL     OW20759   6.559   0.518   7.414  0.1838 -0.4366  0.0309
37840SOL    HW120760   6.546   0.424   7.402 -1.0133 -0.5653  1.8938
37840SOL    HW220761   6.619   0.525   7.488  0.7778  0.2753 -0.5020
37841SOL     OW20762   5.157   7.600  11.225  0.1593 -0.1614  0.1031
37841SOL    HW120763   5.232   7.551  11.192  0.9790  0.0551  1.5708
37841SOL    HW220764   5.156   7.680  11.173 -0.5384 -1.1727 -1.5706
37842SOL     OW20765   4.420   3.627  11.043 -0.5333  0.4486 -0.3655
37842SOL    HW120766   4.352   3.559  11.042 -0.9510  0.8684 -1.0111
37842SOL    HW220767   4.461   3.617  11.129 -1.4439  0.2221  0.0626
37843SOL     OW20768   0.921   5.048   2.895 -0.0108 -0.2823  0.0197
37843SOL    HW120769   0.857   4.976   2.895  0.2388 -0.5072 -0.1836
37843SOL    HW220770   0.966   5.039   2.811  0.8176 -0.5998  0.4959
37844SOL     OW20771   5.982   1.257   7.735  0.0643  0.0518 -0.0422
37844SOL    HW120772   5.897   1.300   7.727 -0.1187 -0.2520  0.2475
37844SOL    HW220773   5.962   1.163   7.738  0.4112 -0.0247  0.0107
37845SOL     OW20774   4.657   7.635   3.257 -0.3636 -0.1871  0.6668
37845SOL    HW120775   4.686   7.724   3.237 -0.7666 -0.1513  0.2301
37845SOL    HW220776   4.700   7.580   3.191 -1.5379 -0.0917 -0.2125
37846SOL     OW20777   7.843   1.891   2.099 -0.0925  0.2726  0.3363
37846SOL    HW120778   7.843   1.826   2.169 -2.0712 -0.7907 -0.5602
37846SOL    HW220779   7.811   1.971   2.141  0.6952  0.2241  1.0667
37847SOL     OW20780   8.417   1.970  10.366  0.7019  0.2298 -0.5173
37847SOL    HW120781   8.368   2.040  10.409 -0.5205 -0.7762 -0.2256
37847SOL    HW220782   8.487   1.949  10.428 -0.1925 -0.2278  0.3648
37848SOL     OW20783   4.009   5.447  10.214 -0.2632 -0.0764  0.3710
37848SOL    HW120784   3.947   5.504  10.168  0.8805  1.4464  0.6684
37848SOL    HW220785   3.980   5.449  10.305 -0.5665 -0.4574  0.2871
37849SOL     OW20786   4.893   1.779   3.458  0.2489 -0.1487 -0.3798
37849SOL    HW120787   4.947   1.794   3.381 -0.6994 -0.3849 -1.1023
37849SOL    HW220788   4.923   1.846   3.521 -0.6620  1.7390 -1.8501
37850SOL     OW20789  10.654   4.983   0.709 -0.1069 -0.3325 -0.2892
37850SOL    HW120790  10.668   5.036   0.787 -0.4016 -1.4590  0.5633
37850SOL    HW220791  10.671   5.042   0.636 -0.0034  0.7973  0.6233
37851SOL     OW20792   0.786   5.250   3.005 -0.9103 -0.2253  0.4353
37851SOL    HW120793   0.831   5.170   2.977 -1.3795 -0.1261 -0.6541
37851SOL    HW220794   0.851   5.319   2.995 -1.0578 -0.1973 -0.4156
37852SOL     OW20795   4.533   7.300   3.689  0.4435  0.3014 -0.0803
37852SOL    HW120796   4.444   7.302   3.725  1.4555 -0.9746  2.7973
37852SOL    HW220797   4.554   7.392   3.673 -1.2945  0.6455 -0.5832
37853SOL     OW20798  10.227  11.115   4.578 -0.0043 -0.5266  0.0889
37853SOL    HW120799  10.218  11.194   4.525 -1.8818 -1.9759 -1.9004
37853SOL    HW220800  10.145  11.109   4.628 -0.3060 -1.6930 -0.5122
37854SOL     OW20801  11.833   0.625   5.670 -0.4008  0.5992 -0.5994
37854SOL    HW120802  11.921   0.660   5.687 -0.9338  0.9406  1.7841
37854SOL    HW220803  11.778   0.702   5.659 -1.1694  0.6027  2.4673
37855SOL     OW20804   4.588  10.910   1.498 -0.0594  0.2678 -0.0594
37855SOL    HW120805   4.534  10.875   1.427  0.5553  0.1319 -0.4644
37855SOL    HW220806   4.675  10.921   1.459  0.1347  0.7712  0.4999
37856SOL     OW20807  12.204   0.997   3.920  0.1026 -0.0102 -0.5173
37856SOL    HW120808  12.269   0.929   3.937 -0.7813 -0.6041  0.6695
37856SOL    HW220809  12.127   0.969   3.969 -0.9578  0.8198 -1.6594
37857SOL     OW20810   6.690   0.218  12.052 -0.2801  0.1906  0.7032
37857SOL    HW120811   6.778   0.239  12.021  0.1046 -0.4932  1.3043
37857SOL    HW220812   6.698   0.132  12.093 -0.9287  0.6811  1.9428
37858SOL     OW20813  11.649   7.419  12.065  0.2708  0.2026  0.1976
37858SOL    HW120814  11.606   7.505  12.058  1.2663  0.6399 -1.0791
37858SOL    HW220815  11.720   7.433  12.128  0.5219  0.3631 -0.1182
37859SOL     OW20816  12.479   8.541   9.529 -0.3604 -0.1289 -0.0667
37859SOL    HW120817  12.496   8.451   9.503 -0.6518  0.3725 -2.1255
37859SOL    HW220818  12.383   8.548   9.530 -0.3417  0.0943  0.3236
37860SOL     OW20819   9.539   6.761   5.905 -0.4561 -0.0851  0.5757
37860SOL    HW120820   9.508   6.733   5.992  1.3304  0.1103  1.3308
37860SOL    HW220821   9.462   6.756   5.849 -1.9249  0.7154  2.3878
37861SOL     OW20822  12.394   4.489   9.874 -0.5148  0.9993 -0.2813
37861SOL    HW120823  12.362   4.522   9.791 -1.6684 -0.6889 -0.5635
37861SOL    HW220824  12.321   4.437   9.909  0.7540 -0.2469  0.6416
37862SOL     OW20825  10.292   8.821   5.068  0.1237  0.8544 -0.3884
37862SOL    HW120826  10.370   8.774   5.098 -0.0622 -1.5130 -3.1595
37862SOL    HW220827  10.327   8.899   5.025  1.0245 -0.1198 -1.5021
37863SOL     OW20828  11.608  12.703   7.162 -0.3280  0.3027  0.3174
37863SOL    HW120829  11.611  12.732   7.071 -0.9246 -0.2761  0.1100
37863SOL    HW220830  11.564  12.773   7.208 -0.0863  0.5668  0.1533
37864SOL     OW20831   9.563   9.607   5.503 -0.5078  0.6077 -0.1018
37864SOL    HW120832   9.544   9.644   5.417 -0.7303 -0.4428 -0.5206
37864SOL    HW220833   9.515   9.663   5.564  2.7968  3.8937 -0.1592
37865SOL     OW20834  10.075  10.397   1.653  0.1641 -0.4258  0.1240
37865SOL    HW120835  10.018  10.451   1.599 -0.5664 -0.3851  0.9074
37865SOL    HW220836  10.162  10.407   1.615 -0.3167 -0.3340 -0.9767
37866SOL     OW20837   8.959   6.975   7.638 -0.2936 -0.5967  0.3920
37866SOL    HW120838   8.964   6.884   7.607  1.3375 -0.5067  0.2840
37866SOL    HW220839   9.001   6.973   7.724 -0.4373  0.0263  0.4776
37867SOL     OW20840   8.120   8.494   8.455 -0.9444  0.3578 -0.2611
37867SOL    HW120841   8.042   8.440   8.472 -0.4017 -0.3208  0.1207
37867SOL    HW220842   8.174   8.483   8.533  0.2318 -0.4130 -1.1400
37868SOL     OW20843  11.860  10.181   9.673  0.5181 -0.3765  0.0092
37868SOL    HW120844  11.811  10.222   9.602 -0.4641  0.7167  1.2607
37868SOL    HW220845  11.818  10.096   9.687 -0.1431 -0.0373  0.1363
37869SOL     OW20846   8.608  10.680   7.683  0.8513 -0.0234 -0.0215
37869SOL    HW120847   8.534  10.728   7.646  1.7021  1.4207  0.0767
37869SOL    HW220848   8.568  10.603   7.724 -0.6542  0.9368  0.4035
37870SOL     OW20849   0.147   9.898   6.565  0.0447 -0.4406  0.5090
37870SOL    HW120850   0.119   9.813   6.598 -0.3966 -0.6708 -0.4257
37870SOL    HW220851   0.136   9.958   6.639 -0.4871 -1.0194  0.9038
37871SOL     OW20852   9.172   0.149  11.788  0.0767 -0.0699  0.1278
37871SOL    HW120853   9.236   0.163  11.858 -0.0899  1.3631  0.0271
37871SOL    HW220854   9.120   0.074  11.818  1.2500 -0.7271  0.5973
37872SOL     OW20855  10.149   3.966   7.940  0.0273 -0.0304  0.2101
37872SOL    HW120856  10.209   4.002   7.875 -2.5847 -0.1956 -2.4683
37872SOL    HW220857  10.182   3.878   7.958  0.2138 -0.4011 -1.7709
37873SOL     OW20858   2.466   0.821   0.797 -0.0530 -0.2490  0.2219
37873SOL    HW120859   2.410   0.755   0.839 -1.1824 -0.4240 -1.4605
37873SOL    HW220860   2.411   0.899   0.791  0.1022 -0.2073 -0.8385
37874SOL     OW20861   3.091   1.882   8.074 -0.4783 -0.5941  0.1733
37874SOL    HW120862   3.054   1.797   8.097 -1.2997 -0.3788 -0.2914
37874SOL    HW220863   3.091   1.882   7.978  1.3915 -0.8591  0.1501
37875SOL     OW20864   9.089  10.641   6.359 -0.0454  0.5516 -0.4127
37875SOL    HW120865   9.165  10.635   6.418 -0.7523  0.2510  0.5058
37875SOL    HW220866   9.119  10.694   6.286  1.2081  0.0174 -0.3123
37876SOL     OW20867   3.547   3.933  10.540  0.2797  0.3647  0.5689
37876SOL    HW120868   3.619   3.923  10.477  0.3666  0.7378  0.6050
37876SOL    HW220869   3.590   3.954  10.623  0.1533  0.0777  0.7077
37877SOL     OW20870   8.924   8.019   2.416 -0.0466 -0.4957  0.6273
37877SOL    HW120871   8.834   7.989   2.425 -0.5540  0.7091 -0.1163
37877SOL    HW220872   8.975   7.940   2.403 -1.0712 -1.1514  0.5079
37878SOL     OW20873  11.672  11.750   9.315 -0.3051 -0.0092 -0.3452
37878SOL    HW120874  11.742  11.686   9.330  0.3428  0.2669 -1.9304
37878SOL    HW220875  11.630  11.760   9.400  1.8568  0.1225  0.7821
37879SOL     OW20876   7.762   8.927   9.948  0.0626 -0.1522  0.5314
37879SOL    HW120877   7.714   9.008   9.962 -0.4177 -0.3879  0.2640
37879SOL    HW220878   7.853   8.950   9.965  0.0560  0.6809 -0.4486
37880SOL     OW20879  11.991   3.888   8.508  0.0425 -0.1220  0.1676
37880SOL    HW120880  12.064   3.950   8.509  0.6657 -0.8157 -0.6399
37880SOL    HW220881  12.015   3.821   8.571  0.4391 -0.6947 -0.5677
37881SOL     OW20882   7.066   7.743   2.284  0.2516  0.2758  0.0178
37881SOL    HW120883   6.973   7.742   2.264  0.0739  1.8453  0.7041
37881SOL    HW220884   7.078   7.669   2.344 -0.4229 -0.2854 -0.5152
37882SOL     OW20885   8.292  12.085   9.309 -0.4708  0.0138 -0.0021
37882SOL    HW120886   8.387  12.080   9.301 -0.6802 -1.3953 -2.5980
37882SOL    HW220887   8.266  12.149   9.242 -1.4438 -1.0353 -0.6714
37883SOL     OW20888  11.890  12.126   2.257  0.0407  0.3395  0.1209
37883SOL    HW120889  11.830  12.120   2.330  0.0078 -0.2040  0.0514
37883SOL    HW220890  11.888  12.219   2.232  0.4067  0.6232  1.0959
37884SOL     OW20891  10.472   6.896  11.598  0.1034  0.3718 -0.3121
37884SOL    HW120892  10.396   6.847  11.628  0.6457  0.0324  0.5510
37884SOL    HW220893  10.436   6.972  11.553 -0.7498  0.6171  0.7553
37885SOL     OW20894   0.161   6.405   5.727  0.1576  0.1974  0.2523
37885SOL    HW120895   0.243   6.448   5.749  2.0650 -0.7066 -4.0343
37885SOL    HW220896   0.120   6.462   5.661  0.0403 -1.7784 -1.5007
37886SOL     OW20897  10.354  10.075   5.475  0.0168 -0.2448  0.0966
37886SOL    HW120898  10.308  10.040   5.398 -1.2964  1.2644  0.1393
37886SOL    HW220899  10.357  10.002   5.536  0.1948 -1.1860 -1.0018
37887SOL     OW20900   5.380  10.009   8.082  0.2167  1.1178  0.3502
37887SOL    HW120901   5.360  10.033   8.173  1.0211  0.6061  0.6784
37887SOL    HW220902   5.476  10.007   8.079  0.1926 -0.1242 -0.1686
37888SOL     OW20903   7.611   8.477   3.137 -0.4235 -0.0196 -0.0040
37888SOL    HW120904   7.654   8.549   3.183 -1.4459  0.4743  0.1905
37888SOL    HW220905   7.585   8.514   3.053  0.1648 -0.5237 -0.4187
37889SOL     OW20906  10.280   1.223   2.602  0.2660  0.5988  0.3392
37889SOL    HW120907  10.284   1.292   2.668 -2.1655  1.2325 -0.0814
37889SOL    HW220908  10.285   1.270   2.519  2.1565 -0.1051 -0.0045
37890SOL     OW20909   1.216   0.109   7.522  0.1682  0.4730 -0.2326
37890SOL    HW120910   1.121   0.106   7.531  0.1311  0.7667 -0.4964
37890SOL    HW220911   1.244   0.018   7.535 -0.0884  0.4845  0.4399
37891SOL     OW20912   5.923   2.232   3.482 -0.4775 -0.1181  0.0035
37891SOL    HW120913   5.954   2.207   3.569 -2.2542 -0.2490  0.6437
37891SOL    HW220914   5.889   2.321   3.493 -1.0248 -0.2613 -0.4687
37892SOL     OW20915   6.546   6.223  10.353 -0.3682  0.2133 -0.1568
37892SOL    HW120916   6.460   6.220  10.395  0.7087 -0.7409  2.1739
37892SOL    HW220917   6.587   6.140  10.378  1.6869  1.1843 -0.1390
37893SOL     OW20918   9.179   2.858   1.862 -0.3969 -0.0192 -0.5306
37893SOL    HW120919   9.163   2.952   1.869  0.2791  0.0660 -0.0343
37893SOL    HW220920   9.106   2.825   1.810 -1.5940  0.5206  0.7403
37894SOL     OW20921  10.637   5.095   1.696 -0.9376  0.7574  0.0720
37894SOL    HW120922  10.662   5.063   1.783 -0.0184  2.3464  0.4455
37894SOL    HW220923  10.708   5.066   1.639 -0.3903  1.6216  0.3013
37895SOL     OW20924   5.336  11.585  11.897 -0.3539 -0.0450 -0.1274
37895SOL    HW120925   5.310  11.658  11.842  0.5305 -0.7477 -1.5278
37895SOL    HW220926   5.432  11.589  11.898 -0.3337  0.2930  1.8673
37896SOL     OW20927   8.464   3.445   1.078 -0.2365  0.1387 -0.1988
37896SOL    HW120928   8.527   3.385   1.119  0.3442  0.9300  0.0894
37896SOL    HW220929   8.388   3.390   1.060  0.7788 -1.0155 -1.2179
37897SOL     OW20930   9.947   6.973   7.126 -0.1071  0.7669  0.4722
37897SOL    HW120931  10.034   6.999   7.096 -0.3263  1.3922  0.3657
37897SOL    HW220932   9.947   6.877   7.118  0.0437  0.8593 -0.9940
37898SOL     OW20933  11.600   1.930   5.146 -0.1347  0.2262 -0.0250
37898SOL    HW120934  11.662   1.905   5.077 -0.7465 -1.0089 -0.1641
37898SOL    HW220935  11.655   1.945   5.223  0.2691 -2.5674  0.3297
37899SOL     OW20936   9.475   0.777  10.665  0.5188 -0.1307  0.1880
37899SOL    HW120937   9.559   0.735  10.648 -0.4016 -2.7409  1.5762
37899SOL    HW220938   9.479   0.803  10.757 -0.3664 -0.7866  0.4213
37900SOL     OW20939   9.121   7.469   9.552 -0.0648  0.1928  0.4531
37900SOL    HW120940   9.203   7.434   9.588 -0.4020  0.0001  1.0564
37900SOL    HW220941   9.124   7.563   9.573  0.2172  0.2749  0.0486
37901SOL     OW20942   9.950   7.703   7.813  0.7905 -0.4638  0.1146
37901SOL    HW120943   9.979   7.649   7.887 -1.3944 -1.5495  0.2679
37901SOL    HW220944   9.856   7.714   7.827  0.9513  2.5790 -0.4943
37902SOL     OW20945   1.959   2.749  10.445 -0.1355  0.1946  0.7636
37902SOL    HW120946   1.925   2.838  10.446 -1.4331 -0.2612 -0.3811
37902SOL    HW220947   1.925   2.709  10.525  0.0478  0.5801  1.0341
37903SOL     OW20948   7.970   5.094   3.194 -0.3681 -0.0326  0.0268
37903SOL    HW120949   8.060   5.121   3.213 -0.3155 -0.8828  1.0832
37903SOL    HW220950   7.919   5.126   3.268 -1.2811  1.9449 -1.3717
37904SOL     OW20951   2.023   7.435   4.272 -0.0054  0.2750 -0.1896
37904SOL    HW120952   2.064   7.465   4.191  2.5968 -1.5730  0.3173
37904SOL    HW220953   1.943   7.391   4.243 -0.5652  2.0075 -1.4529
37905SOL     OW20954   3.494   9.351   1.676 -0.2701  0.2569 -0.1439
37905SOL    HW120955   3.444   9.366   1.596  0.4437 -3.1358 -1.4008
37905SOL    HW220956   3.575   9.401   1.663 -0.6391  0.6648 -0.9969
37906SOL     OW20957   4.197   9.371  11.653 -0.1546 -0.5606 -0.1436
37906SOL    HW120958   4.290   9.352  11.667 -0.0863  0.2845  0.6857
37906SOL    HW220959   4.196   9.435  11.581  0.0486  0.6764  0.9171
37907SOL     OW20960  11.445   5.035   4.400 -0.4281 -0.0964 -0.1204
37907SOL    HW120961  11.446   5.104   4.334 -0.6984  0.1732  0.1542
37907SOL    HW220962  11.352   5.010   4.406 -0.2959 -0.6789 -0.4195
37908SOL     OW20963   6.799   0.812   1.829  0.0507 -0.4624  0.3984
37908SOL    HW120964   6.729   0.771   1.779  0.9688 -0.7135 -0.7305
37908SOL    HW220965   6.765   0.898   1.854 -0.4247 -0.3295 -0.6789
37909SOL     OW20966   3.150   0.005   3.818  0.3386  0.2970  0.8901
37909SOL    HW120967   3.094  -0.067   3.788 -2.7568  1.7083  2.7489
37909SOL    HW220968   3.185   0.043   3.738  1.3432 -2.6065 -0.1938
37910SOL     OW20969   9.239   3.506   0.669  0.5620  0.5189 -1.0849
37910SOL    HW120970   9.167   3.543   0.619  1.0360  1.6213 -0.9880
37910SOL    HW220971   9.206   3.421   0.700 -0.0060  0.1660 -2.5921
37911SOL     OW20972   9.266   6.162   2.907  0.1572 -0.1559  0.5065
37911SOL    HW120973   9.265   6.168   3.002  1.1969  2.1221  0.4486
37911SOL    HW220974   9.228   6.245   2.878 -0.2072 -0.8427 -1.0610
37912SOL     OW20975   6.899  12.570   2.144  0.4564 -0.0818  0.0153
37912SOL    HW120976   6.825  12.622   2.176  1.4210  0.8713  0.7703
37912SOL    HW220977   6.904  12.592   2.050  0.2158  0.3950  0.1068
37913SOL     OW20978   3.185  11.989   8.363 -0.1951 -0.4170  0.2490
37913SOL    HW120979   3.135  12.035   8.431 -2.2472 -0.7447 -0.9569
37913SOL    HW220980   3.148  11.901   8.362 -0.0967 -0.4648 -1.1902
37914SOL     OW20981   7.777   9.453  10.851 -0.2117 -0.1270  0.1149
37914SOL    HW120982   7.698   9.442  10.904  1.2762  0.9599  2.7826
37914SOL    HW220983   7.789   9.369  10.808 -1.3733 -1.2133  1.7959
37915SOL     OW20984  12.628   6.090   3.924 -0.2769 -0.0082 -0.0355
37915SOL    HW120985  12.631   6.183   3.944 -0.3432 -0.1825  0.8142
37915SOL    HW220986  12.583   6.050   3.998 -0.2061 -0.7260 -0.3631
37916SOL     OW20987   4.255   0.521  10.821  0.0341 -0.4365 -0.4230
37916SOL    HW120988   4.325   0.581  10.845  0.1384 -0.5411 -0.4656
37916SOL    HW220989   4.300   0.441  10.795 -0.0689 -0.2621 -1.1501
37917SOL     OW20990   6.204   5.828  11.558 -0.5112 -0.1052  0.0010
37917SOL    HW120991   6.222   5.898  11.496  0.1209  1.2183  1.5829
37917SOL    HW220992   6.256   5.754  11.527 -2.0471 -0.2955 -2.3278
37918SOL     OW20993   1.144   9.388   6.135  0.2466 -0.2001 -0.1649
37918SOL    HW120994   1.089   9.377   6.057 -0.9321 -0.3280  0.6580
37918SOL    HW220995   1.107   9.463   6.181  0.9058 -0.1497  0.3040
37919SOL     OW20996   8.515   5.779   0.216  0.3867 -0.0070  0.1509
37919SOL    HW120997   8.541   5.686   0.217 -3.2254 -1.1681 -0.1550
37919SOL    HW220998   8.476   5.792   0.130 -0.8232  1.2378  0.8487
37920SOL     OW20999   4.038  11.233   0.079  0.5117  0.2814 -0.0083
37920SOL    HW121000   3.999  11.297   0.019 -1.1033 -0.2452  0.4276
37920SOL    HW221001   3.963  11.193   0.123  1.6182 -0.0128  1.6843
37921SOL     OW21002   0.834   3.608   9.353  0.3910 -0.5371 -0.3232
37921SOL    HW121003   0.790   3.543   9.298 -0.3798 -2.3474  2.2054
37921SOL    HW221004   0.784   3.688   9.340 -1.4889 -1.6247 -0.2398
37922SOL     OW21005  10.658   2.706   2.863  0.0299  0.2635 -0.4900
37922SOL    HW121006  10.667   2.802   2.868  0.6202  0.1951 -0.2269
37922SOL    HW221007  10.680   2.685   2.772  0.4968  0.3195 -0.3937
37923SOL     OW21008   6.840  10.904   5.108  0.1063 -0.2257 -0.1809
37923SOL    HW121009   6.847  10.972   5.040 -0.6160 -1.5684 -1.6789
37923SOL    HW221010   6.841  10.822   5.059 -2.2038 -1.2223  1.2594
37924SOL     OW21011   7.051   9.599  11.150  0.2467  0.5219  0.4726
37924SOL    HW121012   7.032   9.584  11.058  0.8293  1.2275  0.2297
37924SOL    HW221013   6.965   9.598  11.193 -0.1933  1.8716 -0.3332
37925SOL     OW21014   1.743   6.827  11.249  0.1409  0.1543  0.5713
37925SOL    HW121015   1.684   6.898  11.273 -1.6602 -0.6711 -1.1464
37925SOL    HW221016   1.775   6.793  11.333 -0.4203  1.7471  1.4697
37926SOL     OW21017   5.102   1.996   7.069  0.0343 -0.6130 -0.0071
37926SOL    HW121018   5.141   1.959   7.148  2.1467  0.8316 -0.2910
37926SOL    HW221019   5.140   2.084   7.062  0.0887 -0.7598 -2.7273
37927SOL     OW21020   0.785   2.245   7.004 -1.0330 -0.2582  0.5123
37927SOL    HW121021   0.804   2.209   7.090  0.9301  0.2680  0.3509
37927SOL    HW221022   0.708   2.301   7.018 -2.8857 -2.7750  1.1604
37928SOL     OW21023   2.887   9.293  12.264  0.3108 -0.1363  0.0204
37928SOL    HW121024   2.868   9.338  12.346 -0.6434  0.3156 -0.4409
37928SOL    HW221025   2.982   9.303  12.253  0.2381  1.0444  0.3350
37929SOL     OW21026   2.039   4.793  12.311 -0.2191 -0.0175 -0.0645
37929SOL    HW121027   2.006   4.881  12.294 -0.3666 -0.2103 -0.7909
37929SOL    HW221028   1.976   4.735  12.269 -0.7998 -0.5349  1.4565
37930SOL     OW21029   4.794   9.411   5.497  0.4395 -0.2520 -0.2013
37930SOL    HW121030   4.774   9.363   5.577 -2.2391  0.4593 -0.3458
37930SOL    HW221031   4.757   9.498   5.511  1.5951  0.5090 -1.5218
37931SOL     OW21032   5.921  10.146  11.392  0.5919 -0.0151 -0.0338
37931SOL    HW121033   5.925  10.188  11.306  0.8837 -0.4940 -0.2588
37931SOL    HW221034   5.837  10.174  11.429 -0.4232 -1.3403 -1.2727
37932SOL     OW21035   3.773  11.919   4.806 -0.0219  0.0952  0.2188
37932SOL    HW121036   3.779  11.935   4.900  0.3342  0.9008  0.0597
37932SOL    HW221037   3.701  11.856   4.798  0.9227 -1.1651  1.1505
37933SOL     OW21038   6.927  11.021   6.302  0.6068 -0.1737  0.3713
37933SOL    HW121039   6.902  11.025   6.395 -0.0200  1.1557  0.1752
37933SOL    HW221040   6.979  11.100   6.288  0.1903 -0.0476 -0.5355
37934SOL     OW21041   1.607   3.666   9.114  0.0900  0.4034  0.7823
37934SOL    HW121042   1.577   3.745   9.069 -0.2203 -0.4526 -0.5875
37934SOL    HW221043   1.527   3.618   9.132  0.3921 -0.5282 -0.2404
37935SOL     OW21044   0.052   9.822   7.932 -0.3383  0.0924 -0.0738
37935SOL    HW121045   0.120   9.867   7.983  0.5094 -1.8466  0.6005
37935SOL    HW221046   0.088   9.735   7.915 -1.5883 -0.1012 -2.0134
37936SOL     OW21047   0.389   5.556   3.461  0.0888  0.0094 -0.4026
37936SOL    HW121048   0.380   5.461   3.460  2.2358 -0.3707  2.5927
37936SOL    HW221049   0.451   5.576   3.391  1.7734 -1.1950  0.6753
37937SOL     OW21050   6.097  12.002   3.458 -0.4375  0.0176 -0.0517
37937SOL    HW121051   6.131  11.956   3.535 -1.6417  0.7763  0.9833
37937SOL    HW221052   6.029  11.944   3.423 -1.4125  0.6007  0.7930
37938SOL     OW21053   7.506   7.918   6.042  0.0649 -0.2993 -0.1418
37938SOL    HW121054   7.523   7.999   6.090 -0.5650 -0.5246  0.4763
37938SOL    HW221055   7.556   7.851   6.088 -0.0385 -0.4010 -0.1754
37939SOL     OW21056  11.252  10.529   1.508  0.5969  0.0331 -0.0062
37939SOL    HW121057  11.338  10.506   1.544  0.8709 -0.2600 -0.8135
37939SOL    HW221058  11.189  10.493   1.570  1.0537 -0.9108 -0.0729
37940SOL     OW21059   9.530   8.833   4.508  0.1599 -0.2017  0.3668
37940SOL    HW121060   9.565   8.770   4.445  2.0697 -0.5273  1.6697
37940SOL    HW221061   9.443   8.856   4.474  0.9343 -0.6777 -2.1287
37941SOL     OW21062   4.331   6.131   3.056  0.5488 -0.5530  0.1284
37941SOL    HW121063   4.238   6.130   3.081  0.3712  0.2362 -0.4731
37941SOL    HW221064   4.356   6.039   3.057 -0.4511 -0.8482 -0.4629
37942SOL     OW21065   5.740   9.564   1.689  0.1818 -0.1393 -0.0723
37942SOL    HW121066   5.711   9.563   1.598 -0.3142 -2.4570  0.0594
37942SOL    HW221067   5.728   9.655   1.717 -1.1557  0.2802 -1.8429
37943SOL     OW21068   6.236   1.242   6.630  0.0461  0.0963  0.4641
37943SOL    HW121069   6.141   1.242   6.624  0.0483  1.2441  0.1155
37943SOL    HW221070   6.257   1.164   6.680 -1.0930 -0.0230  0.7869
37944SOL     OW21071   2.718  10.868   7.873  0.3272 -0.4041 -0.2040
37944SOL    HW121072   2.685  10.856   7.784  1.1184  0.4757 -0.6272
37944SOL    HW221073   2.797  10.813   7.877  1.6696  1.3894 -0.8535
37945SOL     OW21074  12.136   5.433  10.267 -0.0959 -0.1920 -0.4406
37945SOL    HW121075  12.229   5.438  10.244 -0.3641  1.2478 -1.3316
37945SOL    HW221076  12.114   5.521  10.299 -1.1051 -0.5733 -0.0245
37946SOL     OW21077   2.601   4.149   7.329  0.5260  0.3102  0.5006
37946SOL    HW121078   2.639   4.201   7.258  0.9225 -1.3058 -0.5023
37946SOL    HW221079   2.667   4.153   7.399  0.3441  1.5116  0.6390
37947SOL     OW21080   2.714  12.210   2.416  0.3229  0.0929  0.2201
37947SOL    HW121081   2.668  12.126   2.419  0.1465  0.1988  0.5891
37947SOL    HW221082   2.645  12.275   2.401  0.5362  0.1129 -0.6951
37948SOL     OW21083   4.924   1.986   3.654  0.1356  0.6655 -0.5542
37948SOL    HW121084   5.009   2.030   3.650 -0.0212  1.0324 -0.0432
37948SOL    HW221085   4.864   2.053   3.688  0.1032 -0.2230  1.2769
37949SOL     OW21086   6.412  10.133   7.614  0.2451  0.1835 -0.2735
37949SOL    HW121087   6.484  10.181   7.573 -0.5433  2.7956  1.1841
37949SOL    HW221088   6.335  10.154   7.561  0.3257 -1.8229 -1.2626
37950SOL     OW21089  11.012   3.896   4.175 -0.0859 -0.3383 -0.4986
37950SOL    HW121090  10.960   3.973   4.197  0.9237  0.2842 -0.2243
37950SOL    HW221091  10.956   3.822   4.198 -1.5712  0.2691 -1.9276
37951SOL     OW21092   9.504   4.649   1.322 -0.3730  0.3038  0.0894
37951SOL    HW121093   9.452   4.677   1.397  1.7947  0.9240  1.4358
37951SOL    HW221094   9.585   4.699   1.328  0.5848 -0.9072 -1.6918
37952SOL     OW21095   6.925  11.368   6.856  0.0193  1.1929  0.3656
37952SOL    HW121096   7.020  11.377   6.854  0.2810 -0.6768  1.4809
37952SOL    HW221097   6.903  11.368   6.950 -1.2626  2.8439  0.1222
37953SOL     OW21098  11.081  10.867   2.399 -0.3167 -0.1934 -0.0095
37953SOL    HW121099  11.113  10.882   2.310 -1.3425 -0.4591 -0.4267
37953SOL    HW221100  11.026  10.943   2.418  0.9956  0.5802  0.9477
37954SOL     OW21101  11.298   1.539  12.439 -0.0874  0.1903 -0.6993
37954SOL    HW121102  11.221   1.547  12.384  0.0219 -0.3374 -0.9304
37954SOL    HW221103  11.361   1.601  12.402 -0.4780  0.7920 -0.3679
37955SOL     OW21104   9.893   4.183   0.930  0.1225 -0.3502  0.0393
37955SOL    HW121105   9.883   4.150   0.841 -2.2891  2.0240 -0.7219
37955SOL    HW221106   9.804   4.190   0.963  0.9182 -0.3017  2.3171
37956SOL     OW21107   3.948   4.636   4.977 -0.1778 -0.1524 -0.4226
37956SOL    HW121108   3.900   4.555   4.963  2.4366 -1.8777 -0.0878
37956SOL    HW221109   4.039   4.613   4.962  0.9548  2.1359  1.9974
37957SOL     OW21110  11.584   7.627  10.483  0.7182 -0.1501  0.1049
37957SOL    HW121111  11.500   7.664  10.508  0.4029  0.1762 -1.3601
37957SOL    HW221112  11.590   7.545  10.531 -0.6161 -0.3645 -0.0689
37958SOL     OW21113   7.713   9.013   7.551 -0.7484 -0.6116 -0.3341
37958SOL    HW121114   7.659   8.934   7.554 -0.3367 -0.8834  0.0240
37958SOL    HW221115   7.759   9.014   7.635 -0.0315 -0.5030 -0.7182
37959SOL     OW21116   5.942   6.814   9.411  0.0499  0.0040 -0.0210
37959SOL    HW121117   5.928   6.788   9.502 -0.6267 -0.6749 -0.3105
37959SOL    HW221118   6.037   6.824   9.402  0.0269  1.9374  1.2577
37960SOL     OW21119  11.880   8.474   6.624  0.3227 -0.3563 -0.4280
37960SOL    HW121120  11.891   8.445   6.714 -0.3702 -1.1326 -0.5710
37960SOL    HW221121  11.865   8.568   6.630 -2.1478 -0.7253  0.5168
37961SOL     OW21122   3.947   6.831   1.704 -0.3370  0.2790 -0.2486
37961SOL    HW121123   4.036   6.836   1.669  0.6917  1.6802  2.3266
37961SOL    HW221124   3.913   6.920   1.695 -0.3767  0.4479  1.3256
37962SOL     OW21125   7.545   6.831  11.344  0.3766  0.1843 -0.0066
37962SOL    HW121126   7.554   6.736  11.341  1.2633  0.2762 -0.7741
37962SOL    HW221127   7.451   6.846  11.348  0.0568 -0.6773 -2.6536
37963SOL     OW21128  11.763   1.649   4.395  0.3912 -0.4445  0.4929
37963SOL    HW121129  11.681   1.700   4.394  0.2763 -0.6097 -1.1682
37963SOL    HW221130  11.743   1.570   4.346  0.7219 -1.9328  2.6131
37964SOL     OW21131  11.412   5.095  10.458 -0.2293 -0.0080 -0.2419
37964SOL    HW121132  11.403   5.062  10.547  1.7221  1.3310  0.5318
37964SOL    HW221133  11.348   5.166  10.451 -0.7549 -0.4628 -0.1120
37965SOL     OW21134   9.742  12.534   7.409  0.6591 -0.2122  0.1442
37965SOL    HW121135   9.718  12.457   7.359  0.7139  0.0194 -0.2396
37965SOL    HW221136   9.659  12.580   7.425  0.8079  0.5243 -1.0791
37966SOL     OW21137   9.115   2.551   2.144 -0.0482 -0.0665  0.2711
37966SOL    HW121138   9.123   2.575   2.051 -0.4040  0.9308  0.4922
37966SOL    HW221139   9.068   2.468   2.143 -0.6962  0.3003 -0.4130
37967SOL     OW21140   3.448  12.344   4.735 -0.1018  0.0002  0.3270
37967SOL    HW121141   3.457  12.417   4.796 -0.3113 -0.5096  0.9808
37967SOL    HW221142   3.514  12.281   4.763 -1.7167 -1.2569  1.5344
37968SOL     OW21143   5.354   1.284   0.801  0.7240 -0.0287  0.1142
37968SOL    HW121144   5.366   1.244   0.887 -1.5734 -1.6115 -0.2145
37968SOL    HW221145   5.429   1.254   0.750  0.7443 -1.2614  0.8373
37969SOL     OW21146   7.098   9.798   2.488 -0.2663 -0.0473  0.2670
37969SOL    HW121147   7.065   9.732   2.427  1.5213  0.0574 -0.8966
37969SOL    HW221148   7.089   9.881   2.441  0.2581  0.1575  0.5151
37970SOL     OW21149   3.317   4.037   6.446 -0.4084  0.1968  0.0707
37970SOL    HW121150   3.354   4.122   6.421  1.2744 -0.4861  0.0920
37970SOL    HW221151   3.286   3.998   6.364  2.4684 -0.8167 -0.6455
37971SOL     OW21152   1.321  12.035  11.533  0.4494  0.0694 -0.2507
37971SOL    HW121153   1.243  12.084  11.505  0.2531 -0.1982 -0.1780
37971SOL    HW221154   1.298  12.002  11.620  0.7836  0.2906 -0.0738
37972SOL     OW21155   3.095   6.781  12.234 -0.4242 -0.3374  0.6045
37972SOL    HW121156   3.128   6.692  12.250 -0.3890 -0.5246 -0.4045
37972SOL    HW221157   3.002   6.776  12.252 -0.4033 -0.5577  0.6563
37973SOL     OW21158   1.673   7.580  11.856 -0.1369 -0.1471  0.3620
37973SOL    HW121159   1.674   7.529  11.937  0.2557  1.3522  1.3299
37973SOL    HW221160   1.591   7.627  11.858  0.6244  1.2187  0.7762
37974SOL     OW21161  11.542   6.416   4.662  0.2735 -0.0114  0.6256
37974SOL    HW121162  11.505   6.461   4.737 -0.1311 -0.1858  0.5311
37974SOL    HW221163  11.491   6.336   4.654  1.1638 -0.6364  0.9635
37975SOL     OW21164   4.669   0.876   8.315 -0.2671 -0.1831  0.1857
37975SOL    HW121165   4.601   0.839   8.259 -1.7236  1.8775  0.4830
37975SOL    HW221166   4.742   0.894   8.256 -1.2979  0.7908 -0.8406
37976SOL     OW21167   6.323  10.055   8.025 -0.2150 -0.2622  0.4310
37976SOL    HW121168   6.303  10.128   8.084 -1.1303 -0.4729  0.3868
37976SOL    HW221169   6.377   9.996   8.078  2.6525  1.5483 -0.2399
37977SOL     OW21170   9.527   3.572   7.332 -0.3785 -0.0285 -0.5155
37977SOL    HW121171   9.459   3.639   7.332 -1.5233 -1.0779  1.8940
37977SOL    HW221172   9.480   3.490   7.349  1.4728 -0.7332  1.6393
37978SOL     OW21173   7.395   7.021   2.274  0.4022 -0.4396 -0.6412
37978SOL    HW121174   7.486   7.028   2.304 -0.8709  0.8871  3.5079
37978SOL    HW221175   7.368   6.933   2.299  0.4011 -0.7157 -1.5766
37979SOL     OW21176   0.909   2.673   2.457  0.6301 -0.1841  0.4969
37979SOL    HW121177   0.984   2.638   2.409  0.3393 -0.8236  0.5071
37979SOL    HW221178   0.843   2.689   2.390  1.5564  2.6165  0.1253
37980SOL     OW21179   8.010   6.531   2.716  0.2822 -0.2741  0.4437
37980SOL    HW121180   7.976   6.519   2.627 -0.5259 -1.0835  0.8492
37980SOL    HW221181   7.978   6.455   2.764  1.7606 -0.4926  1.1273
37981SOL     OW21182   9.911  12.430   8.428  0.0931  0.1992  0.3626
37981SOL    HW121183   9.874  12.508   8.469 -0.7155  0.8000 -1.3894
37981SOL    HW221184   9.871  12.357   8.475 -1.6371  0.8554 -0.0148
37982SOL     OW21185  12.169  12.582   7.988 -0.1759 -0.2115 -0.0474
37982SOL    HW121186  12.198  12.505   8.036 -1.2532 -0.0628  0.8797
37982SOL    HW221187  12.113  12.630   8.050 -1.1623  0.2655 -1.2631
37983SOL     OW21188   6.926  10.517   4.386  0.8812 -0.1864 -0.6627
37983SOL    HW121189   6.933  10.447   4.320 -0.9588 -1.0521 -0.0074
37983SOL    HW221190   6.920  10.597   4.335 -1.6550 -0.9337 -1.6841
37984SOL     OW21191   7.362   8.740   5.854  0.2648 -0.1207  0.2419
37984SOL    HW121192   7.457   8.742   5.864  0.2382  0.9241  0.3770
37984SOL    HW221193   7.347   8.758   5.762  0.1469  2.3016  0.6707
37985SOL     OW21194  10.437   6.853   1.337 -0.3249  0.1200  0.5454
37985SOL    HW121195  10.374   6.875   1.405 -0.7393 -1.4319  0.7166
37985SOL    HW221196  10.520   6.840   1.384 -0.7109 -1.4145  0.8837
37986SOL     OW21197   2.952  11.399   3.278 -0.2151  0.5066 -0.4624
37986SOL    HW121198   3.036  11.439   3.300  0.0180 -0.5136  0.6277
37986SOL    HW221199   2.898  11.413   3.356 -0.4504 -0.3924 -0.4535
37987SOL     OW21200   8.411   7.665   5.599  0.2437  0.2018 -0.0063
37987SOL    HW121201   8.401   7.760   5.611 -0.4632  0.2195 -0.6620
37987SOL    HW221202   8.499   7.646   5.631  0.1178  0.9606  0.8513
37988SOL     OW21203   8.023   7.441   4.017  0.0274 -0.3347 -0.0686
37988SOL    HW121204   8.060   7.359   4.052  2.5924  0.1764 -1.3695
37988SOL    HW221205   7.973   7.414   3.940 -2.1092 -0.9779  1.4318
37989SOL     OW21206  12.644   8.804   2.022  0.6272 -0.3608 -0.3236
37989SOL    HW121207  12.647   8.881   1.966 -1.5507  1.0650  1.3650
37989SOL    HW221208  12.647   8.838   2.111  1.1181 -2.3467  0.4756
37990SOL     OW21209   6.389  12.610   6.191 -0.5838  0.3695  0.1074
37990SOL    HW121210   6.321  12.582   6.253  1.9083 -0.1916  2.8284
37990SOL    HW221211   6.398  12.704   6.207 -0.2481  0.3076  0.2908
37991SOL     OW21212  12.058   2.826   9.582  0.2063  0.0252 -0.2863
37991SOL    HW121213  12.082   2.849   9.492  0.4681  0.1738 -0.1836
37991SOL    HW221214  12.122   2.874   9.636  0.9981 -1.2387 -0.0733
37992SOL     OW21215   5.458   7.231   0.887 -0.1125  0.0622  0.0036
37992SOL    HW121216   5.491   7.294   0.823 -0.5543  0.0885 -0.1974
37992SOL    HW221217   5.509   7.151   0.871  1.5463  0.7990  1.2596
37993SOL     OW21218   4.604  12.523   7.505  0.5532 -0.0729 -0.1032
37993SOL    HW121219   4.576  12.431   7.509  1.9050 -0.4695  1.2108
37993SOL    HW221220   4.687  12.524   7.552  2.6310  1.1012 -3.4567
37994SOL     OW21221   4.679  10.737   4.719  0.3501 -0.0044 -0.4307
37994SOL    HW121222   4.597  10.770   4.756  1.4431  1.7768  0.5586
37994SOL    HW221223   4.746  10.761   4.784  1.7178 -0.9713 -1.4292
37995SOL     OW21224  11.426   0.294   0.136 -0.7704  0.7083 -0.0483
37995SOL    HW121225  11.361   0.330   0.197 -1.2011  0.9778 -0.6518
37995SOL    HW221226  11.441   0.205   0.167  0.3538  1.3907  1.5126
37996SOL     OW21227  11.299  11.869   5.226  0.0066  0.0481 -0.4014
37996SOL    HW121228  11.369  11.810   5.255 -0.2574 -0.1847 -0.2394
37996SOL    HW221229  11.295  11.936   5.294  0.5164  0.4302 -0.7411
37997SOL     OW21230   2.589  10.602  10.416  0.8471 -0.3747 -0.0393
37997SOL    HW121231   2.554  10.531  10.363 -2.3519  1.4083 -0.5468
37997SOL    HW221232   2.569  10.577  10.506  2.9733 -1.6649  0.1598
37998SOL     OW21233  12.293   0.190   5.417  0.1150  0.2015 -0.0724
37998SOL    HW121234  12.239   0.205   5.339  0.5622 -1.9608 -0.8802
37998SOL    HW221235  12.383   0.187   5.383  0.2050 -2.2453  0.1930
37999SOL     OW21236   4.012   5.005  11.297 -0.7354  0.1083  0.1638
37999SOL    HW121237   3.982   5.084  11.253  0.5428  3.5409  4.6819
37999SOL    HW221238   3.951   4.992  11.369  0.7870 -1.1721  1.3174
38000SOL     OW21239  10.543  10.207   3.731 -0.8130 -0.0886 -0.4603
38000SOL    HW121240  10.562  10.176   3.820 -1.2996  0.7541 -0.0449
38000SOL    HW221241  10.580  10.295   3.728 -0.1009 -0.4083 -1.3720
38001SOL     OW21242   0.561   2.081   4.992  0.3836  0.0678  0.0464
38001SOL    HW121243   0.609   1.998   4.992  1.2654  0.5406  1.6333
38001SOL    HW221244   0.484   2.065   5.045  0.2569  0.1086 -0.1238
38002SOL     OW21245   6.289   6.699   0.303  0.3910  0.0952 -0.5638
38002SOL    HW121246   6.234   6.705   0.381  0.1603  2.5415 -0.8361
38002SOL    HW221247   6.228   6.683   0.231  0.5354 -1.4628 -0.3810
38003SOL     OW21248   0.061   4.922   8.095 -0.3445 -0.0596 -0.5751
38003SOL    HW121249   0.094   4.854   8.153 -0.0808  0.5829  0.0414
38003SOL    HW221250  -0.035   4.916   8.102 -0.3119  0.1642  0.1117
38004SOL     OW21251   5.257  12.105   8.668 -0.4651 -0.1653  0.2458
38004SOL    HW121252   5.254  12.060   8.752  1.8287  0.2362  0.5919
38004SOL    HW221253   5.181  12.071   8.620 -1.4283 -0.9023  2.1950
38005SOL     OW21254  11.721   7.420   6.220  0.0078  0.0067  0.0672
38005SOL    HW121255  11.751   7.490   6.163 -0.7539 -0.1159 -0.4990
38005SOL    HW221256  11.707   7.346   6.161  1.0553 -0.7132  0.6910
38006SOL     OW21257  10.237   4.848   8.308 -0.1637  0.5961 -0.5309
38006SOL    HW121258  10.208   4.833   8.218 -0.6806  0.5489 -0.3634
38006SOL    HW221259  10.171   4.804   8.362  1.2876 -1.2363 -0.1580
38007SOL     OW21260   9.276  11.546  12.446  0.4048  0.3878 -0.0235
38007SOL    HW121261   9.339  11.597  12.394 -0.7229  1.1330 -0.7181
38007SOL    HW221262   9.221  11.504  12.381  2.0606 -2.8784  0.4748
38008SOL     OW21263   9.028   3.175   3.201 -0.2370 -0.3563 -0.4410
38008SOL    HW121264   8.951   3.176   3.258  0.8047 -2.2821  1.1258
38008SOL    HW221265   8.993   3.186   3.113 -2.1225  0.4542  0.3586
38009SOL     OW21266  10.163   9.024   8.470  0.3075 -0.4738  0.4791
38009SOL    HW121267  10.141   9.075   8.393  3.2068 -0.1855 -0.2911
38009SOL    HW221268  10.156   8.933   8.441 -0.6180 -0.4187  0.5197
38010SOL     OW21269   2.015  12.122  12.339 -0.3012 -0.3005 -0.3768
38010SOL    HW121270   2.093  12.141  12.391 -0.3057 -0.2428 -0.3910
38010SOL    HW221271   2.021  12.029  12.318  0.2095 -0.1003 -1.1306
38011SOL     OW21272   9.076   2.942   3.363  0.5223 -0.2629 -0.0907
38011SOL    HW121273   9.049   3.026   3.327  0.9742 -0.6386 -1.3781
38011SOL    HW221274   9.160   2.959   3.406  0.7711 -0.1079 -0.6323
38012SOL     OW21275   7.028  11.035   5.253 -0.4244 -0.5224  0.2475
38012SOL    HW121276   6.989  11.008   5.337 -1.3003 -1.8038 -0.5265
38012SOL    HW221277   6.998  10.968   5.191  1.4310 -0.4378 -0.7959
38013SOL     OW21278  10.817  10.101   1.196  0.0499 -0.3419 -0.4531
38013SOL    HW121279  10.873  10.161   1.245 -0.9166 -0.1225  0.4134
38013SOL    HW221280  10.818  10.020   1.247 -2.1710  0.3587  0.8230
38014SOL     OW21281  11.457   4.185   6.273  0.1111 -0.3647 -0.5875
38014SOL    HW121282  11.484   4.093   6.270 -0.9614 -0.7191  0.0902
38014SOL    HW221283  11.386   4.192   6.209  0.4938  0.0987 -0.9659
38015SOL     OW21284   0.612  11.025  10.597 -0.4156  0.2703 -0.1286
38015SOL    HW121285   0.569  10.939  10.589 -0.1084  0.0875  0.1592
38015SOL    HW221286   0.559  11.083  10.543 -0.7285 -0.0655 -0.1884
38016SOL     OW21287   2.819   9.092  12.584 -0.1472  0.0319 -0.1557
38016SOL    HW121288   2.893   9.123  12.532 -0.1328 -0.2872 -0.3301
38016SOL    HW221289   2.787   9.169  12.630  0.1736  0.2103 -0.2316
38017SOL     OW21290  12.618   7.441   2.483 -0.2656 -0.1296  0.0489
38017SOL    HW121291  12.655   7.525   2.456  2.6733 -0.7684  1.5688
38017SOL    HW221292  12.617   7.388   2.404  1.0201  0.3572 -0.3228
38018SOL     OW21293   5.926   5.501  12.605  0.5563  0.0791  0.0978
38018SOL    HW121294   5.883   5.541  12.681  0.7366  0.3328  0.0693
38018SOL    HW221295   5.920   5.568  12.537 -2.3546 -1.2223 -1.1228
38019SOL     OW21296   8.453   4.964   3.979 -0.3245  0.1141  0.6847
38019SOL    HW121297   8.547   4.951   3.985  0.0412  0.8647 -2.0573
38019SOL    HW221298   8.417   4.919   4.056  2.1738 -1.0595  1.2523
38020SOL     OW21299   3.253   0.687  10.872  0.5008  0.1207  0.5797
38020SOL    HW121300   3.239   0.680  10.778  0.2939 -0.6467  0.6586
38020SOL    HW221301   3.345   0.712  10.881  0.3413  0.8782  0.1635
38021SOL     OW21302   8.992  10.327   5.061 -0.3817  0.0196 -0.2631
38021SOL    HW121303   8.997  10.414   5.021  0.3981  1.3587  2.4901
38021SOL    HW221304   9.083  10.302   5.077 -0.6491  0.2749  1.9701
38022SOL     OW21305  11.997  10.493   8.260  0.7008  0.1867  0.2173
38022SOL    HW121306  11.942  10.427   8.218  0.6642  0.5786 -0.3705
38022SOL    HW221307  12.080  10.449   8.278  0.0756 -0.5322  1.4889
38023SOL     OW21308  12.276   4.051  11.739 -0.1986 -0.7159 -0.2106
38023SOL    HW121309  12.340   4.121  11.730 -0.4168 -0.5680 -0.6006
38023SOL    HW221310  12.314   3.994  11.806 -0.5547  0.3587  0.9409
38024SOL     OW21311  11.063  10.480   8.203 -0.6939  0.0676  0.1699
38024SOL    HW121312  11.020  10.473   8.117  0.0680  0.0678 -0.2133
38024SOL    HW221313  11.153  10.454   8.187 -0.0915  1.7873  0.5843
38025SOL     OW21314  11.702   9.656  12.472 -0.5524 -0.2855  0.0119
38025SOL    HW121315  11.786   9.611  12.481 -0.7778 -1.0325 -1.3171
38025SOL    HW221316  11.701   9.687  12.382 -0.9735  1.2718  0.5266
38026SOL     OW21317   0.082   1.124   3.122  0.0245 -0.4406  0.1658
38026SOL    HW121318   0.049   1.176   3.195  1.3337  1.8384 -0.7548
38026SOL    HW221319   0.093   1.187   3.051  2.1317 -1.8921 -0.8997
38027SOL     OW21320  10.693   8.908   5.730 -0.0842 -0.3212 -0.2209
38027SOL    HW121321  10.703   8.827   5.781  0.3873 -0.5331 -0.6440
38027SOL    HW221322  10.755   8.969   5.769  0.8905 -0.7478 -1.0547
38028SOL     OW21323   8.689  11.613   9.247  0.5350 -0.3357 -0.0883
38028SOL    HW121324   8.738  11.658   9.178 -0.0650  1.0254  0.3431
38028SOL    HW221325   8.754  11.596   9.315  0.7843 -0.1974 -0.2885
38029SOL     OW21326  10.551  10.669  11.060 -0.1165  0.1718  0.1374
38029SOL    HW121327  10.540  10.578  11.031 -0.1932 -0.3464  1.7384
38029SOL    HW221328  10.539  10.720  10.980 -0.8572 -1.1729 -0.6595
38030SOL     OW21329   3.548   8.724   2.639  0.1129  0.4292 -0.0454
38030SOL    HW121330   3.612   8.792   2.661  0.8593  0.2731 -1.6271
38030SOL    HW221331   3.549   8.666   2.715  0.9335  1.0951  0.4813
38031SOL     OW21332  12.591   5.725   8.497  0.1413  0.4581  0.0837
38031SOL    HW121333  12.659   5.712   8.431  1.9113 -0.7498  2.0154
38031SOL    HW221334  12.554   5.811   8.477  1.3531  0.6067 -1.7873
38032SOL     OW21335   9.086   7.102   0.376 -0.2139 -0.1163  0.6367
38032SOL    HW121336   9.008   7.081   0.326  0.0671  0.4165 -0.0515
38032SOL    HW221337   9.074   7.059   0.460 -0.1977 -1.9789 -0.2707
38033SOL     OW21338  10.576  12.024   9.264 -0.6517  0.3906 -0.3702
38033SOL    HW121339  10.645  11.960   9.246  1.2064  1.7067  1.5855
38033SOL    HW221340  10.584  12.088   9.192 -1.3285 -0.5797 -1.3377
38034SOL     OW21341   1.759   1.099   6.378 -0.3650 -0.0058  0.5981
38034SOL    HW121342   1.771   1.005   6.390 -0.2556  0.0307  0.7850
38034SOL    HW221343   1.834   1.127   6.326 -1.0831 -0.2442 -0.6077
38035SOL     OW21344  10.917   4.997   7.421  0.4962  0.6325 -0.0513
38035SOL    HW121345  10.964   4.976   7.341  0.4122  2.1469 -0.5233
38035SOL    HW221346  10.966   5.069   7.459  1.2849 -0.8611  1.9668
38036SOL     OW21347   7.154   4.205   7.377 -0.5507  0.0814 -0.7654
38036SOL    HW121348   7.123   4.116   7.360  0.7542 -0.7210  0.8375
38036SOL    HW221349   7.102   4.259   7.318 -3.0394 -1.4567 -0.1589
38037SOL     OW21350  12.330  10.921  10.299  0.6260  0.0764 -0.4692
38037SOL    HW121351  12.366  10.990  10.243  0.6641 -0.7366 -1.4844
38037SOL    HW221352  12.388  10.847  10.286 -0.8901 -1.0033 -1.4938
38038SOL     OW21353   7.382   0.006  11.081  0.4325  0.9124 -0.2657
38038SOL    HW121354   7.460   0.012  11.136 -0.3157 -1.8290  1.2730
38038SOL    HW221355   7.408  -0.051  11.009  0.3081  1.3881 -0.6952
38039SOL     OW21356   5.438  10.993   9.783  0.2695  0.5752  0.0856
38039SOL    HW121357   5.527  10.958   9.780  0.1363  0.1815  0.6214
38039SOL    HW221358   5.425  11.018   9.875 -0.3912  0.0543  0.1428
38040SOL     OW21359  10.628   6.043   5.441 -0.4029  0.1219 -0.2718
38040SOL    HW121360  10.596   6.103   5.373  1.1638 -0.0415 -1.2230
38040SOL    HW221361  10.610   5.956   5.406  0.9628  0.0276 -0.8118
38041SOL     OW21362   5.266   7.381   3.877 -0.5113 -0.9198  0.9072
38041SOL    HW121363   5.186   7.380   3.824  0.4223 -1.8011 -0.5487
38041SOL    HW221364   5.305   7.295   3.863  1.0146 -0.2844  1.0777
38042SOL     OW21365  11.333   9.528  11.502 -0.5489  0.5210 -0.0627
38042SOL    HW121366  11.381   9.491  11.427  1.9987 -0.1481  1.7428
38042SOL    HW221367  11.316   9.452  11.558 -1.2856  1.1824  0.6121
38043SOL     OW21368   9.758   4.964   3.899 -0.1104 -0.2104  0.0530
38043SOL    HW121369   9.734   4.884   3.853  0.4012 -0.3331  0.0041
38043SOL    HW221370   9.687   4.977   3.962 -0.1537 -0.7478  0.1187
38044SOL     OW21371  10.316   7.581   5.018 -0.0639 -0.5451 -0.1543
38044SOL    HW121372  10.235   7.554   4.975  0.1158 -4.3371  1.4362
38044SOL    HW221373  10.293   7.584   5.111  1.8207 -3.2046  0.4996
38045SOL     OW21374   4.164   3.655  11.362 -0.0473  0.1901  0.3360
38045SOL    HW121375   4.246   3.657  11.313 -0.4516 -1.9040 -0.5346
38045SOL    HW221376   4.188   3.621  11.448  0.0539 -0.2343  0.1450
38046SOL     OW21377   0.117   1.023   6.777 -0.2990  0.0839  0.4564
38046SOL    HW121378   0.043   1.062   6.823  1.0941  1.6952  1.4207
38046SOL    HW221379   0.111   1.056   6.687  0.0966  1.4871  0.9262
38047SOL     OW21380   0.141   1.427   7.513  0.0947 -0.1310  0.4635
38047SOL    HW121381   0.096   1.342   7.509 -1.0753  0.4995 -0.0058
38047SOL    HW221382   0.097   1.481   7.448  1.7790  0.4158 -0.2728
38048SOL     OW21383   8.094   2.492   1.506 -0.1886 -0.2507 -0.3801
38048SOL    HW121384   8.052   2.564   1.552 -0.0912  1.2520 -2.4787
38048SOL    HW221385   8.029   2.462   1.443  0.1277 -1.3738 -0.1998
38049SOL     OW21386   9.613   1.975   1.922  0.1003 -0.2118  0.2680
38049SOL    HW121387   9.541   2.036   1.909 -0.0943 -0.1458  1.5388
38049SOL    HW221388   9.675   1.997   1.853 -0.8310  0.1149 -0.4882
38050SOL     OW21389   0.243  10.582   8.165 -0.2616 -0.5749  0.0985
38050SOL    HW121390   0.321  10.544   8.124  0.9045  1.1311  0.6430
38050SOL    HW221391   0.277  10.642   8.231 -1.8664  2.9699 -2.0176
38051SOL     OW21392   3.068   8.805   6.547  0.5116 -0.0221  0.2419
38051SOL    HW121393   3.108   8.849   6.622 -0.5129 -0.1209  0.8690
38051SOL    HW221394   3.136   8.806   6.479  1.0022  1.2308  0.7250
38052SOL     OW21395   4.862   1.070  10.478 -0.1934 -0.6569  0.1616
38052SOL    HW121396   4.831   1.132  10.413 -0.9225 -0.7758  0.3806
38052SOL    HW221397   4.852   0.984  10.436  1.4763 -0.6109 -0.4092
38053SOL     OW21398  11.211   5.168   6.925  0.0743 -0.4640 -0.1323
38053SOL    HW121399  11.170   5.206   6.848  0.0279 -1.2082 -0.4828
38053SOL    HW221400  11.279   5.231   6.949 -0.0198 -0.1463 -0.6818
38054SOL     OW21401   4.104   3.170   4.492 -0.0558 -0.1211  0.3534
38054SOL    HW121402   4.140   3.168   4.403 -0.1268 -0.9077  0.3343
38054SOL    HW221403   4.042   3.097   4.495 -0.9472  0.6281  0.6894
38055SOL     OW21404   6.286   3.872   8.201 -0.3497 -0.0698 -0.2860
38055SOL    HW121405   6.280   3.783   8.236  0.5119  0.3956  1.1356
38055SOL    HW221406   6.378   3.885   8.181 -0.0379  1.2026  1.6178
38056SOL     OW21407   0.170   4.500   0.265 -0.3082  0.2879  0.7409
38056SOL    HW121408   0.193   4.408   0.257  0.9569  0.6597 -0.1206
38056SOL    HW221409   0.210   4.542   0.189 -2.4311  1.2647  0.0921
38057SOL     OW21410   1.099   9.060   5.763 -0.4426 -0.1510  0.1279
38057SOL    HW121411   1.179   9.008   5.766 -0.0685  0.3020 -1.2822
38057SOL    HW221412   1.047   9.029   5.837  1.0303 -0.4529  1.0641
38058SOL     OW21413  11.437  10.867   1.580  0.0968  0.3239 -0.1667
38058SOL    HW121414  11.523  10.828   1.593  0.5248  0.9982 -0.9042
38058SOL    HW221415  11.434  10.890   1.487 -0.9624  0.1216 -0.2020
38059SOL     OW21416  10.287   6.381  12.452  0.3250 -0.2488  0.5984
38059SOL    HW121417  10.192   6.383  12.461  0.3625 -0.8914  1.1389
38059SOL    HW221418  10.320   6.409  12.537  0.6193  0.0478  0.3879
38060SOL     OW21419   9.219   6.342   2.491 -0.4773  0.2944  0.0852
38060SOL    HW121420   9.281   6.345   2.564  1.5322  0.3459 -1.5364
38060SOL    HW221421   9.191   6.251   2.486 -1.8302  0.5467  1.7790
38061SOL     OW21422   1.794  10.223   0.134  0.3037 -0.4458  0.0373
38061SOL    HW121423   1.732  10.196   0.201  2.2185 -1.5255  1.4790
38061SOL    HW221424   1.799  10.148   0.075  0.9002 -0.7381  0.4493
38062SOL     OW21425  10.923  10.556   1.724 -0.1808 -0.1408 -0.1859
38062SOL    HW121426  10.991  10.523   1.782 -1.1654 -0.5210  0.7918
38062SOL    HW221427  10.907  10.646   1.754  0.2776  0.1544 -0.7938
38063SOL     OW21428   2.471   3.680  11.826  0.1813 -0.1375 -0.1748
38063SOL    HW121429   2.386   3.636  11.831 -0.6478  1.4900  1.7309
38063SOL    HW221430   2.517   3.652  11.905  0.1097  1.3634  0.4491
38064SOL     OW21431   7.279   0.287  10.496  0.1141 -0.3473 -0.1029
38064SOL    HW121432   7.290   0.375  10.460 -0.1810 -0.7987 -1.3471
38064SOL    HW221433   7.191   0.287  10.533 -0.0552 -0.2475 -0.4990
38065SOL     OW21434   4.016   6.498   6.888  0.4456 -0.0423 -0.2664
38065SOL    HW121435   4.108   6.492   6.913  0.3775  0.7522  0.2152
38065SOL    HW221436   4.000   6.592   6.878 -0.0101 -0.2389 -1.5064
38066SOL     OW21437   9.971  11.163  12.624  0.1926  0.1114  0.3742
38066SOL    HW121438   9.986  11.226  12.553  4.2115 -0.5010  0.4651
38066SOL    HW221439   9.991  11.211  12.704 -2.2904  0.1981  1.0204
38067SOL     OW21440   9.875   6.955   1.081  0.1189 -0.1746  0.0115
38067SOL    HW121441   9.920   7.018   1.025 -0.6148  0.5654  0.2377
38067SOL    HW221442   9.788   6.993   1.095 -0.4660 -1.3992 -0.1274
38068SOL     OW21443   4.065   9.233   2.764 -0.0607  0.0506 -0.3396
38068SOL    HW121444   4.075   9.327   2.777 -0.2910 -0.0581  0.7571
38068SOL    HW221445   4.150   9.204   2.733  0.5022  0.3990  0.8200
38069SOL     OW21446  11.124   8.803   0.284  0.1202  0.1923  0.9471
38069SOL    HW121447  11.052   8.741   0.271 -0.9277  1.7805 -1.9833
38069SOL    HW221448  11.172   8.770   0.359 -1.1980 -3.3235  0.4129
38070SOL     OW21449   7.624   0.197   6.419  0.3289 -0.0803  0.0887
38070SOL    HW121450   7.599   0.124   6.361  1.1645  1.4453 -2.3300
38070SOL    HW221451   7.542   0.243   6.436 -0.1550 -1.3400  1.3802
38071SOL     OW21452  10.156   4.697  10.081  0.1734  0.4635  0.0480
38071SOL    HW121453  10.243   4.663  10.064 -0.5331 -1.8051  0.6341
38071SOL    HW221454  10.162   4.736  10.169  0.2700 -1.0890  0.7647
38072SOL     OW21455   5.028   7.202   3.987 -0.1591  0.1304  0.9543
38072SOL    HW121456   4.962   7.207   4.056 -1.1637 -0.7420  0.0981
38072SOL    HW221457   5.039   7.293   3.958 -1.5302  0.2200  0.6413
38073SOL     OW21458  10.103   5.407  11.802  0.5365 -0.1977  0.4750
38073SOL    HW121459  10.167   5.340  11.779  1.4303  0.2189  1.6393
38073SOL    HW221460  10.075   5.384  11.891  0.1923  0.4682  0.5482
38074SOL     OW21461  12.600  12.213  11.162 -0.3942 -0.4551  0.3148
38074SOL    HW121462  12.530  12.152  11.140 -1.4366  1.2654 -1.5041
38074SOL    HW221463  12.677  12.178  11.119 -0.5945 -1.3293  0.6527
38075SOL     OW21464   2.122   2.122   2.284  0.0910 -0.3360  0.1582
38075SOL    HW121465   2.028   2.134   2.274  0.4310  1.2567 -1.6229
38075SOL    HW221466   2.154   2.106   2.196  1.4043 -1.7359  0.8541
38076SOL     OW21467   0.143   5.451   4.478 -0.3714  0.0825 -0.2665
38076SOL    HW121468   0.198   5.397   4.535  0.8175 -0.2216 -1.6429
38076SOL    HW221469   0.173   5.430   4.389 -2.5314  0.1303 -1.0674
38077SOL     OW21470   3.866  12.696   1.877  0.6977 -0.0834 -0.9029
38077SOL    HW121471   3.871  12.751   1.799  0.3085  0.6797 -0.4143
38077SOL    HW221472   3.831  12.755   1.945 -3.6325 -1.8533 -1.2610
38078SOL     OW21473   9.107   7.592  10.845  0.4588 -1.2959  0.3539
38078SOL    HW121474   9.133   7.528  10.779  1.0874  1.2311 -2.0346
38078SOL    HW221475   9.189   7.623  10.883  0.2235 -1.2237  0.8119
38079SOL     OW21476   3.796   2.460   2.699  0.0136 -0.2067  0.1758
38079SOL    HW121477   3.822   2.536   2.752 -0.6160 -0.0749  0.3007
38079SOL    HW221478   3.872   2.443   2.644 -0.5484  1.7889 -1.3318
38080SOL     OW21479   4.281   1.188   1.291 -0.5200  0.0917  0.3106
38080SOL    HW121480   4.241   1.204   1.376 -1.0243  2.6781 -0.3279
38080SOL    HW221481   4.210   1.152   1.238 -0.9498  0.9609  0.2790
38081SOL     OW21482   0.040   6.599   7.184 -0.2312  0.1434 -0.2682
38081SOL    HW121483   0.066   6.668   7.244  1.7884  0.3033 -1.2276
38081SOL    HW221484  -0.028   6.638   7.129  0.5855  1.2482 -0.5176
38082SOL     OW21485   1.668   2.510  12.165  0.3830  0.1163 -0.5472
38082SOL    HW121486   1.637   2.422  12.187 -0.2266  0.3853 -0.3157
38082SOL    HW221487   1.752   2.496  12.121 -0.6673 -0.7005 -2.3676
38083SOL     OW21488   0.061  10.065   6.770  0.6405 -0.8596 -1.0330
38083SOL    HW121489   0.022  10.147   6.738 -1.7767 -0.9067  1.3917
38083SOL    HW221490  -0.007   9.999   6.757  1.5072 -1.8992 -0.4527
38084SOL     OW21491   9.876  11.051   3.739 -0.6240 -0.8304 -0.2264
38084SOL    HW121492   9.889  11.046   3.644  3.4993  2.4636 -0.1176
38084SOL    HW221493   9.802  11.111   3.749  1.3035  1.9966 -1.5877
38085SOL     OW21494   7.638   5.977   7.536 -0.1258  0.4738 -0.3408
38085SOL    HW121495   7.593   5.900   7.570  0.9493 -0.3397 -0.7223
38085SOL    HW221496   7.567   6.040   7.518 -0.9225 -0.0408  0.8954
38086SOL     OW21497   7.469   1.222   0.821  0.0025  0.0446 -0.2031
38086SOL    HW121498   7.532   1.228   0.893 -0.4725 -0.7301  0.2894
38086SOL    HW221499   7.409   1.295   0.836  0.9288  0.9793 -0.8495
38087SOL     OW21500   6.138   4.793   6.899  0.1752  0.0542 -0.5849
38087SOL    HW121501   6.064   4.804   6.839 -0.1341 -0.4743 -0.3067
38087SOL    HW221502   6.116   4.847   6.974 -0.7806 -1.4428  0.2643
38088SOL     OW21503   3.890   7.005  10.741  0.0599  0.5840 -0.1000
38088SOL    HW121504   3.795   6.994  10.750  0.1473  0.5223  0.8032
38088SOL    HW221505   3.900   7.056  10.660 -0.7120  0.2188 -0.4389
38089SOL     OW21506   1.045   4.859   7.536 -0.3423 -0.4521  0.4555
38089SOL    HW121507   1.069   4.950   7.518  0.7970 -0.8055  0.0655
38089SOL    HW221508   1.065   4.812   7.455 -2.3276 -0.8260  0.1392
38090SOL     OW21509   4.613   8.581   2.706 -0.2354  0.7205 -0.0022
38090SOL    HW121510   4.576   8.502   2.667  0.3567  0.8938 -0.9590
38090SOL    HW221511   4.590   8.576   2.799  1.1686 -1.3812  0.2921
38091SOL     OW21512   9.856   7.666   0.250 -0.5620 -0.1863 -0.1187
38091SOL    HW121513   9.800   7.674   0.327 -0.0458 -0.2396  0.2670
38091SOL    HW221514   9.803   7.700   0.178 -1.9792 -2.3319 -0.1911
38092SOL     OW21515  12.441   5.659  10.426 -0.1384 -0.4127  0.1216
38092SOL    HW121516  12.444   5.615  10.341 -0.7202  0.8978 -0.6106
38092SOL    HW221517  12.420   5.750  10.405 -1.1707 -0.2378  1.7298
38093SOL     OW21518   3.366   8.986   9.809 -0.0272  0.3546  0.7800
38093SOL    HW121519   3.370   8.965   9.903 -2.1541  1.3227  1.1452
38093SOL    HW221520   3.378   9.081   9.805 -0.9107  0.4569  0.1971
38094SOL     OW21521   1.385  12.037  11.125 -0.9473 -0.6036 -0.3600
38094SOL    HW121522   1.441  12.018  11.200 -0.6350  1.0549 -0.1314
38094SOL    HW221523   1.308  12.079  11.162 -1.3295 -0.8323 -0.8786
38095SOL     OW21524   8.740   7.333   5.634  0.4869  0.1440  0.0289
38095SOL    HW121525   8.738   7.417   5.680 -0.7246  0.0099  0.2364
38095SOL    HW221526   8.663   7.333   5.578  1.0338 -0.4068 -0.7631
38096SOL     OW21527  10.536  10.709   6.213  0.2265  0.5387  0.1215
38096SOL    HW121528  10.582  10.726   6.296  0.4559 -2.4341  0.7056
38096SOL    HW221529  10.444  10.698   6.239  0.3427 -0.6868  0.0602
38097SOL     OW21530   5.399   5.703   6.564  0.0530 -0.2948 -1.0601
38097SOL    HW121531   5.332   5.664   6.620 -1.7193  2.1428 -1.3410
38097SOL    HW221532   5.469   5.729   6.624  0.1456 -1.5747 -0.5800
38098SOL     OW21533   2.378  10.274   1.747 -0.1152 -0.1775  0.0597
38098SOL    HW121534   2.398  10.200   1.689  1.4972  2.0393 -2.4360
38098SOL    HW221535   2.289  10.258   1.777  0.5124 -3.6017  0.4728
38099SOL     OW21536   8.028   1.153  12.522 -0.1511 -0.3596  0.1134
38099SOL    HW121537   8.069   1.067  12.508  0.4469 -0.0759  0.0702
38099SOL    HW221538   8.095   1.203  12.568 -0.5376  0.0533  0.2256
38100SOL     OW21539   7.672   2.595   6.586 -0.5543  0.1346 -0.2312
38100SOL    HW121540   7.741   2.629   6.644 -1.2151 -0.4336  0.9307
38100SOL    HW221541   7.720   2.545   6.520  0.2272  0.8501 -0.2307
38101SOL     OW21542   9.645  11.585   2.954 -0.5689 -0.1254 -0.0589
38101SOL    HW121543   9.626  11.555   3.043  1.1349  0.8748  0.6911
38101SOL    HW221544   9.672  11.676   2.964 -0.8738  0.1795 -1.6806
38102SOL     OW21545   6.069   3.817   7.052 -0.0076 -0.0004  0.2888
38102SOL    HW121546   6.094   3.778   7.136  3.0166  0.2741 -0.3470
38102SOL    HW221547   6.093   3.750   6.987 -2.3580 -0.2377 -0.4220
38103SOL     OW21548   8.399  11.226   3.435  0.0928  0.3060 -0.1312
38103SOL    HW121549   8.354  11.213   3.519 -0.1207  2.5031  0.1493
38103SOL    HW221550   8.341  11.286   3.386  1.4859  1.1701 -0.7775
38104SOL     OW21551   5.048  10.362  10.536  0.4947  0.8219 -0.8843
38104SOL    HW121552   5.057  10.451  10.568 -0.1214  1.1799 -1.6902
38104SOL    HW221553   5.117  10.353  10.470  0.1835  0.8847 -1.2153
38105SOL     OW21554  10.038   2.699   9.583 -0.0818  0.8199 -0.4288
38105SOL    HW121555  10.027   2.609   9.550  2.7978  0.3584 -0.3834
38105SOL    HW221556  10.064   2.750   9.506  0.3041  1.1568 -0.0803
38106SOL     OW21557   5.006   3.859  12.483  0.0196 -0.2888  0.2105
38106SOL    HW121558   5.061   3.785  12.508  1.1057  1.0668  2.0689
38106SOL    HW221559   4.919   3.836  12.515  0.5991 -0.2760  1.8626
38107SOL     OW21560   1.738   1.786   9.033 -0.3401 -0.4352  0.0440
38107SOL    HW121561   1.716   1.693   9.044 -0.7268 -0.4274 -0.6205
38107SOL    HW221562   1.655   1.832   9.045 -0.1942 -0.1912  0.1314
38108SOL     OW21563   6.544   7.746   6.451  0.2613 -0.1819  0.1344
38108SOL    HW121564   6.510   7.723   6.537 -1.6664 -0.4440 -0.6454
38108SOL    HW221565   6.481   7.809   6.417  2.5871  2.3255  0.0815
38109SOL     OW21566   5.338   7.580   8.830 -0.0423  0.2330  0.0130
38109SOL    HW121567   5.392   7.659   8.828 -0.7242  0.7112  0.2889
38109SOL    HW221568   5.248   7.612   8.839 -0.4601 -0.5255 -1.2165
38110SOL     OW21569  10.831   6.808   7.781 -0.7476 -0.0350 -0.1340
38110SOL    HW121570  10.741   6.809   7.748 -0.1351  1.9142 -1.9839
38110SOL    HW221571  10.822   6.815   7.876 -2.5269 -0.4783 -0.2320
38111SOL     OW21572   1.162  10.005   9.115  0.4840  0.1319  0.1675
38111SOL    HW121573   1.211  10.020   9.196  0.4466  1.0153  0.0381
38111SOL    HW221574   1.172   9.911   9.097  0.7012 -0.0198  1.0557
38112SOL     OW21575   3.641   7.564   4.796 -0.2264 -0.4557 -0.1533
38112SOL    HW121576   3.636   7.644   4.849  0.6584  1.0256 -2.1651
38112SOL    HW221577   3.577   7.505   4.836  0.3754  0.5522  2.5104
38113SOL     OW21578   3.118   5.022   1.817 -0.2772  0.1732 -0.6266
38113SOL    HW121579   3.037   5.072   1.825  0.5374  1.6108 -1.0152
38113SOL    HW221580   3.178   5.064   1.879  0.8896  0.6811 -2.0528
38114SOL     OW21581   2.814  12.655  12.167  0.2445  0.3992 -0.8117
38114SOL    HW121582   2.730  12.653  12.122 -0.3401 -0.8165  0.2707
38114SOL    HW221583   2.876  12.685  12.101 -0.9493  0.8499 -1.7627
38115SOL     OW21584   1.202   1.272   6.530  0.2547  0.0510 -0.0955
38115SOL    HW121585   1.194   1.337   6.600 -1.2650 -0.3747  0.1662
38115SOL    HW221586   1.119   1.278   6.482  0.9124 -0.3007 -1.3142
38116SOL     OW21587   5.295   7.256   2.377  0.1619 -0.1863 -0.0404
38116SOL    HW121588   5.246   7.312   2.437 -1.1504 -0.6914 -0.5885
38116SOL    HW221589   5.258   7.168   2.391  0.0467 -0.3659 -1.3487
38117SOL     OW21590   1.681   2.871   5.184 -0.1606 -0.2593  0.3856
38117SOL    HW121591   1.626   2.828   5.249 -1.1015  0.3231 -0.0070
38117SOL    HW221592   1.768   2.874   5.224 -0.6669 -0.1694  1.4964
38118SOL     OW21593   7.147   5.436   6.474  0.5887  0.4069 -0.2555
38118SOL    HW121594   7.069   5.489   6.486  0.1669  0.1740 -1.7271
38118SOL    HW221595   7.127   5.353   6.518  0.7702  0.9986  0.9844
38119SOL     OW21596  10.772   6.916   7.260  0.0174  0.3547 -0.2899
38119SOL    HW121597  10.722   6.912   7.179 -0.6861 -0.4950  0.1704
38119SOL    HW221598  10.781   7.010   7.279  0.3164  0.5591 -1.4111
38120SOL     OW21599   1.757   4.236   0.924 -0.8434  0.0960 -0.1191
38120SOL    HW121600   1.795   4.180   0.857  0.4316  0.4904  0.2452
38120SOL    HW221601   1.681   4.188   0.956  1.0701 -2.1920  1.2972
38121SOL     OW21602   8.486  12.476  11.875  0.2234  0.5563  0.4332
38121SOL    HW121603   8.417  12.416  11.848 -0.5237  1.2857  0.6851
38121SOL    HW221604   8.517  12.441  11.959  1.0170 -0.4562 -0.2618
38122SOL     OW21605   5.013  10.323   2.939  0.5302  0.0593  0.4004
38122SOL    HW121606   5.063  10.245   2.964  1.0805  0.4943  0.6682
38122SOL    HW221607   4.932  10.288   2.901  0.9366 -0.6453  0.1699
38123SOL     OW21608   0.901   3.714   8.866  0.2057 -0.7470 -0.2190
38123SOL    HW121609   0.908   3.625   8.832 -0.3518 -0.8162 -0.1535
38123SOL    HW221610   0.887   3.769   8.789  0.0399 -0.7732 -0.2065
38124SOL     OW21611   7.991   7.654   4.627 -0.1637  0.3086 -0.6161
38124SOL    HW121612   8.084   7.676   4.624  0.6029 -2.5268 -1.4882
38124SOL    HW221613   7.955   7.689   4.545  0.8013 -0.8468 -1.5710
38125SOL     OW21614   5.481   4.220   8.951  0.2745 -0.3724 -0.1486
38125SOL    HW121615   5.448   4.163   9.021  0.3303  0.7970  0.8893
38125SOL    HW221616   5.560   4.259   8.987 -0.5064  1.4165 -0.2139
38126SOL     OW21617   6.431   6.049  11.831 -0.1841  0.3858 -0.3076
38126SOL    HW121618   6.467   6.138  11.838  0.6046  0.0530  0.0651
38126SOL    HW221619   6.507   5.992  11.845 -0.8310 -0.3504  0.2929
38127SOL     OW21620   8.700   6.167   9.310  0.5670 -0.2077  0.0326
38127SOL    HW121621   8.628   6.127   9.261  0.0026 -0.0182  0.6951
38127SOL    HW221622   8.657   6.212   9.382  1.3138  0.3608  0.1283
38128SOL     OW21623   3.678  10.671   8.672 -0.1361 -0.3404 -0.0887
38128SOL    HW121624   3.679  10.587   8.628  1.4177 -0.0902 -0.5627
38128SOL    HW221625   3.712  10.653   8.760  4.0666  0.3421 -1.3766
38129SOL     OW21626  12.153   6.394   0.631  0.8969  0.2630 -0.1917
38129SOL    HW121627  12.124   6.420   0.543  0.8437 -0.5313 -0.4192
38129SOL    HW221628  12.239   6.435   0.640  0.4812  1.1591 -0.2208
38130SOL     OW21629   4.335  12.267   3.766 -0.1969  0.1800 -0.5457
38130SOL    HW121630   4.350  12.205   3.837 -1.9897  0.0932 -0.1966
38130SOL    HW221631   4.359  12.353   3.802 -0.0369 -0.0047 -0.2151
38131SOL     OW21632   2.924   7.900  12.036 -0.1078 -0.2044 -0.1006
38131SOL    HW121633   2.886   7.818  12.066  0.5828 -0.7666 -0.7422
38131SOL    HW221634   2.963   7.939  12.114  1.9689 -1.8145 -0.2611
38132SOL     OW21635   1.010   6.563   6.298 -0.2836 -0.1581 -0.0579
38132SOL    HW121636   1.031   6.612   6.378  1.0086 -1.0869  0.2018
38132SOL    HW221637   1.001   6.629   6.230 -3.0456  0.8249  1.1217
38133SOL     OW21638   2.197   2.309   9.041  0.1639  0.7257  0.5514
38133SOL    HW121639   2.171   2.220   9.017 -2.1007  1.2135  0.9670
38133SOL    HW221640   2.184   2.360   8.961 -1.0674  1.1343  0.9899
38134SOL     OW21641   8.591   2.471   7.492  0.0736 -0.4504  0.4798
38134SOL    HW121642   8.564   2.405   7.427  0.7508 -0.5660  0.3060
38134SOL    HW221643   8.539   2.450   7.569  0.0749 -1.0269  0.3353
38135SOL     OW21644   3.747   3.168   2.060  0.3136  0.4759 -0.3831
38135SOL    HW121645   3.694   3.239   2.025  1.8399  1.5519 -0.6133
38135SOL    HW221646   3.817   3.156   1.996  0.3258 -0.9555 -0.1356
38136SOL     OW21647   7.306   6.076   8.545  0.7190 -0.3668 -0.4267
38136SOL    HW121648   7.258   6.127   8.480  1.5268  1.5561  0.4308
38136SOL    HW221649   7.398   6.084   8.519  0.8169 -2.3316 -0.8879
38137SOL     OW21650   7.483   5.897   0.920 -0.6551 -0.4087  0.4055
38137SOL    HW121651   7.546   5.874   0.988  0.0046 -1.1705 -0.4384
38137SOL    HW221652   7.405   5.844   0.941 -0.9071  0.2729  1.2478
38138SOL     OW21653   2.757   7.940   3.868  0.0485 -0.8948 -0.5061
38138SOL    HW121654   2.682   7.997   3.854  1.1200  0.0760 -2.7223
38138SOL    HW221655   2.799   7.974   3.948  0.3784  1.1488 -1.4901
38139SOL     OW21656   1.517   9.569   6.935 -0.4444  0.1503  0.4869
38139SOL    HW121657   1.486   9.640   6.879  0.2479  0.5017  0.5391
38139SOL    HW221658   1.609   9.558   6.912 -0.8507 -1.6109 -0.4430
38140SOL     OW21659   0.740  12.074   2.211 -0.0114 -0.2199  0.4506
38140SOL    HW121660   0.740  12.166   2.237 -1.8048  0.1359 -0.6195
38140SOL    HW221661   0.817  12.037   2.254  1.0162  1.8663  0.5454
38141SOL     OW21662   1.513   2.268   8.962 -0.0212 -0.4174  0.3741
38141SOL    HW121663   1.507   2.264   8.866  0.6702 -0.3117  0.3217
38141SOL    HW221664   1.538   2.359   8.980  1.2778 -0.7924  0.5632
38142SOL     OW21665   3.338   5.524   5.880 -0.5038 -0.3132  0.2734
38142SOL    HW121666   3.346   5.473   5.799  0.4805 -1.0127  0.7980
38142SOL    HW221667   3.426   5.556   5.897 -0.7817  0.1267  0.8818
38143SOL     OW21668   1.264   7.827   1.842 -0.4073  0.2457 -0.1129
38143SOL    HW121669   1.251   7.769   1.768  0.5336 -0.6634  0.4172
38143SOL    HW221670   1.175   7.848   1.872 -0.7890  0.6503 -1.4903
38144SOL     OW21671   2.508   8.424  11.050 -0.0617  0.1355  0.3792
38144SOL    HW121672   2.546   8.503  11.088  0.2906  0.4370 -0.5691
38144SOL    HW221673   2.429   8.408  11.100 -0.1311  1.0922  0.5829
38145SOL     OW21674   3.625   0.032   9.946 -0.7136  0.1035 -0.3405
38145SOL    HW121675   3.580  -0.034  10.000 -2.2126  2.5035  1.5687
38145SOL    HW221676   3.703   0.054   9.997  0.7642 -1.3431 -1.8375
38146SOL     OW21677   9.395   4.308   1.722 -0.2998  0.1455 -0.0662
38146SOL    HW121678   9.439   4.293   1.639 -2.8159 -1.1237 -1.2746
38146SOL    HW221679   9.328   4.373   1.703 -0.3656  0.4870  1.2011
38147SOL     OW21680  10.534   5.600   8.418  0.0361 -0.4529  0.4854
38147SOL    HW121681  10.532   5.545   8.496 -1.2330 -1.9931 -0.5664
38147SOL    HW221682  10.576   5.546   8.351 -0.4944  0.1694 -0.3723
38148SOL     OW21683   2.218  11.869   3.104  0.1175  0.4751 -0.0530
38148SOL    HW121684   2.291  11.915   3.064  1.1627 -0.3972  0.8160
38148SOL    HW221685   2.195  11.921   3.181 -1.2255  1.5915 -1.1492
38149SOL     OW21686   6.720   8.916   4.184  0.0302 -0.3951  0.4249
38149SOL    HW121687   6.652   8.882   4.125  1.3691 -1.6572 -0.4497
38149SOL    HW221688   6.752   8.840   4.231  0.7672  0.2064  0.9203
38150SOL     OW21689   6.534   2.533   2.056 -0.4426  0.5083 -0.7617
38150SOL    HW121690   6.547   2.445   2.089  1.7650  1.2567  0.6186
38150SOL    HW221691   6.489   2.579   2.126  1.0248  1.1674 -0.1932
38151SOL     OW21692   2.322   4.695   5.140 -0.3263 -0.4588 -0.4081
38151SOL    HW121693   2.255   4.713   5.074 -0.2685 -2.5293 -1.1165
38151SOL    HW221694   2.292   4.614   5.182  1.5586 -1.3008 -0.5733
38152SOL     OW21695   2.260  11.113   6.981  0.3296  0.0401 -0.2844
38152SOL    HW121696   2.191  11.073   6.927 -0.3729  0.6964  0.1034
38152SOL    HW221697   2.300  11.039   7.028 -0.3268 -0.3205 -0.2784
38153SOL     OW21698   4.505   4.074   0.151 -0.3531 -0.0052 -0.0960
38153SOL    HW121699   4.471   3.986   0.170  1.3075 -0.6156  0.2275
38153SOL    HW221700   4.531   4.108   0.236 -0.0841  0.3985 -0.3371
38154SOL     OW21701   6.525   1.644   5.781  0.0654 -0.3057 -0.4670
38154SOL    HW121702   6.618   1.623   5.774  0.1260  0.4302 -2.4032
38154SOL    HW221703   6.518   1.734   5.751 -0.9943  0.5072  1.9584
38155SOL     OW21704  11.100  10.100   2.896  0.7820  0.3938 -0.4406
38155SOL    HW121705  11.139  10.016   2.869  1.1468  0.4110  0.0231
38155SOL    HW221706  11.162  10.166   2.865  1.1251  0.4212  0.2872
38156SOL     OW21707  10.849   4.268   9.239 -0.4824 -0.0769  0.4785
38156SOL    HW121708  10.833   4.174   9.227  0.5657 -0.2125  0.0448
38156SOL    HW221709  10.819   4.287   9.328  0.1009 -1.0093  0.8830
38157SOL     OW21710  11.874  11.713   3.253  0.0456 -0.2345 -0.2520
38157SOL    HW121711  11.785  11.710   3.287 -0.5211 -1.2685 -1.7444
38157SOL    HW221712  11.920  11.644   3.302  0.3450  0.9651  1.2429
38158SOL     OW21713   5.704  11.974  10.155  0.3409  0.0363  0.1630
38158SOL    HW121714   5.619  11.959  10.114  0.5766  0.9352 -0.6992
38158SOL    HW221715   5.720  11.895  10.207 -1.1946  0.0130  0.6770
38159SOL     OW21716   4.130   2.395   8.103  0.2808 -0.0065  0.3918
38159SOL    HW121717   4.078   2.458   8.054  0.3984 -0.3119 -0.1363
38159SOL    HW221718   4.208   2.444   8.130  1.7642 -0.5628 -2.4078
38160SOL     OW21719   8.754   2.069   8.863  0.1158 -0.1995  0.0784
38160SOL    HW121720   8.739   2.064   8.768 -1.8886  1.2684  0.2327
38160SOL    HW221721   8.848   2.058   8.873  0.4359 -0.0630 -2.1241
38161SOL     OW21722   8.260  11.606   2.523 -0.2030  0.9289 -0.0893
38161SOL    HW121723   8.233  11.577   2.611  0.9925  1.0356  0.3314
38161SOL    HW221724   8.241  11.700   2.522 -0.5909  0.8533 -0.0944
38162SOL     OW21725   5.094   2.542   4.821 -0.2559 -0.0802  0.0989
38162SOL    HW121726   5.108   2.480   4.750  1.6322 -2.5791  2.4306
38162SOL    HW221727   5.144   2.620   4.795 -1.2873 -0.0895 -2.1444
38163SOL     OW21728   8.495   3.212  11.870 -0.1610 -0.6325 -0.1494
38163SOL    HW121729   8.505   3.203  11.965  1.2185 -1.4345 -0.3363
38163SOL    HW221730   8.525   3.128  11.835  0.8231  0.1824 -1.3590
38164SOL     OW21731   4.916   8.913  12.393  0.5408 -0.0102  0.2425
38164SOL    HW121732   4.961   8.900  12.476  0.8218  1.8134  0.4181
38164SOL    HW221733   4.913   8.826  12.353 -0.7258 -1.1828  2.6905
38165SOL     OW21734   5.858  11.597   1.725 -0.1690 -0.2131 -0.3461
38165SOL    HW121735   5.805  11.604   1.803  0.7371 -0.8766  0.3517
38165SOL    HW221736   5.819  11.525   1.675 -2.2252  1.7594 -1.7279
38166SOL     OW21737   3.536   9.425   5.939  0.6275  0.3157  0.2873
38166SOL    HW121738   3.581   9.364   5.997 -0.4835 -0.3004  0.5182
38166SOL    HW221739   3.556   9.512   5.975 -1.8842 -0.1007  3.0464
38167SOL     OW21740  12.285   5.598   1.718  0.4923 -0.1394  0.2581
38167SOL    HW121741  12.310   5.592   1.810 -0.0241  0.3881  0.4410
38167SOL    HW221742  12.239   5.517   1.699 -0.4876  0.2748  0.8126
38168SOL     OW21743   9.753   5.793   0.279  0.5831  0.1371  0.7494
38168SOL    HW121744   9.843   5.788   0.313  0.0962  1.2880  2.3320
38168SOL    HW221745   9.698   5.789   0.356 -0.6627  1.1672 -0.0498
38169SOL     OW21746   3.832   9.937  10.283  0.0887  0.1250 -0.2292
38169SOL    HW121747   3.762   9.887  10.240 -0.9640  0.6316  0.8514
38169SOL    HW221748   3.843  10.014  10.227 -0.6960  0.3699 -0.0670
38170SOL     OW21749  11.297   3.304   3.048 -0.3170 -0.0394 -0.4132
38170SOL    HW121750  11.277   3.317   2.956 -1.2696 -0.2307 -0.2395
38170SOL    HW221751  11.389   3.330   3.057  0.6947 -2.6434 -1.9915
38171SOL     OW21752   6.807   7.383  11.174 -0.4430  0.7242 -0.1039
38171SOL    HW121753   6.784   7.325  11.102  0.6089 -0.8432  0.7447
38171SOL    HW221754   6.861   7.329  11.232  1.7314  2.9250  0.1008
38172SOL     OW21755  11.683   9.017   7.900 -0.0817  0.2259 -0.1846
38172SOL    HW121756  11.641   9.053   7.822 -1.2104  0.2287  0.4076
38172SOL    HW221757  11.612   8.974   7.948  0.5658  0.3477  0.9123
38173SOL     OW21758   3.586  11.103  11.428 -0.0858 -0.0969  0.3784
38173SOL    HW121759   3.681  11.102  11.435  0.0506  0.8657 -0.8609
38173SOL    HW221760   3.559  11.014  11.448  0.9786 -0.1347  1.7353
38174SOL     OW21761   7.066   3.484   3.399 -0.0671 -0.8876  0.3727
38174SOL    HW121762   7.029   3.550   3.341  0.9630  0.1903  0.9146
38174SOL    HW221763   7.158   3.479   3.375  1.0299  1.4390  3.4896
38175SOL     OW21764   3.279  11.596   7.525 -0.3305 -0.1182 -0.9710
38175SOL    HW121765   3.204  11.626   7.473  1.1074  0.0237 -3.0514
38175SOL    HW221766   3.317  11.524   7.474  2.1566  1.1380 -1.0274
38176SOL     OW21767   7.811   4.369   8.981  0.3572 -0.1348  0.4414
38176SOL    HW121768   7.833   4.340   9.070 -1.7473 -0.7718  0.7966
38176SOL    HW221769   7.896   4.374   8.936  1.2114 -3.3363  1.4352
38177SOL     OW21770   9.936   5.456   4.670 -0.0825  0.2720 -0.6002
38177SOL    HW121771   9.889   5.417   4.744 -0.4243  0.6144 -0.6350
38177SOL    HW221772   9.948   5.547   4.694 -1.6013  0.7913 -1.6178
38178SOL     OW21773   3.737  12.309   8.919  0.7486  0.2319  0.5095
38178SOL    HW121774   3.707  12.226   8.881 -0.8783  0.8652  0.3600
38178SOL    HW221775   3.688  12.376   8.871  1.6174  1.2585  1.0302
38179SOL     OW21776   3.189   0.253  11.808  0.3131 -0.4541  0.0264
38179SOL    HW121777   3.171   0.333  11.857  1.6410 -0.0557 -0.1016
38179SOL    HW221778   3.283   0.255  11.791  0.1760 -1.4517 -1.0307
38180SOL     OW21779   9.540  12.184   6.716  0.0847  0.4315  0.3548
38180SOL    HW121780   9.475  12.248   6.688  0.2852  0.5619  0.1812
38180SOL    HW221781   9.494  12.129   6.779  0.3940  1.8420  1.8698
38181SOL     OW21782   2.893   8.933   7.719 -0.4814 -0.4385 -0.1386
38181SOL    HW121783   2.975   8.914   7.764 -0.2948  1.3671  0.3901
38181SOL    HW221784   2.900   8.887   7.636  1.5736  0.5144 -0.5696
38182SOL     OW21785   0.268  12.342   9.557 -0.5718  0.3382 -0.2470
38182SOL    HW121786   0.360  12.341   9.584 -0.4947  0.8083 -0.4684
38182SOL    HW221787   0.220  12.351   9.639 -0.5047 -1.3138  0.0060
38183SOL     OW21788   1.860   6.190   1.293  0.2167 -0.2013  0.1506
38183SOL    HW121789   1.940   6.158   1.336  0.0953  0.3396  0.8096
38183SOL    HW221790   1.891   6.225   1.209  0.4930 -1.0834 -0.1194
38184SOL     OW21791   1.976   4.444   8.449  0.2947  0.6562 -0.2434
38184SOL    HW121792   2.055   4.494   8.468  1.9665 -1.6154 -0.7317
38184SOL    HW221793   1.911   4.510   8.424  2.0382  2.6044  0.0790
38185SOL     OW21794   1.431   8.905   1.376  0.8959  0.1668  0.1315
38185SOL    HW121795   1.375   8.827   1.373  1.4360 -0.2194  0.0137
38185SOL    HW221796   1.394   8.964   1.310  0.3990  0.0728  0.3221
38186SOL     OW21797   7.745  11.029  11.270 -0.2014  0.4841  0.0288
38186SOL    HW121798   7.692  10.959  11.232  0.9358 -1.1561  1.3231
38186SOL    HW221799   7.682  11.086  11.314 -0.9308 -1.6794  1.9606
38187SOL     OW21800   5.552   7.458   8.015  0.3044  0.3051  0.0342
38187SOL    HW121801   5.584   7.417   7.935  1.4026 -1.0318  1.1026
38187SOL    HW221802   5.489   7.394   8.051  0.0458  0.7583  0.3944
38188SOL     OW21803   0.294   4.567   7.096 -0.1999 -0.6373  0.2344
38188SOL    HW121804   0.206   4.533   7.112  0.3485 -1.9993  0.5508
38188SOL    HW221805   0.322   4.600   7.182 -0.6817  0.5356 -0.0426
38189SOL     OW21806   1.033   2.896   6.022 -0.9580 -0.2348 -0.5373
38189SOL    HW121807   1.102   2.841   5.986 -0.2398  0.6051 -0.4818
38189SOL    HW221808   0.982   2.837   6.077 -0.1620 -0.8347 -0.4160
38190SOL     OW21809   2.668   6.868   5.344  0.3327 -0.3775  0.2767
38190SOL    HW121810   2.616   6.949   5.345  0.5101 -0.2538 -0.2123
38190SOL    HW221811   2.669   6.841   5.252  2.7478  0.6927 -0.1116
38191SOL     OW21812  10.495   0.824   1.546 -0.3461 -0.1256  1.1568
38191SOL    HW121813  10.572   0.794   1.499 -1.2973  1.4404 -1.6548
38191SOL    HW221814  10.526   0.900   1.596 -0.2327  1.4915 -1.1878
38192SOL     OW21815   8.291  11.286   4.616 -0.7230  0.3104  1.0235
38192SOL    HW121816   8.334  11.259   4.696 -0.9142 -1.9988  0.4266
38192SOL    HW221817   8.203  11.249   4.622 -0.2313 -1.3574 -0.8991
38193SOL     OW21818   1.425   2.194   3.035 -0.3778  0.3104  0.1788
38193SOL    HW121819   1.504   2.141   3.023 -0.4962  0.1535  0.0843
38193SOL    HW221820   1.377   2.185   2.953 -1.5514 -1.3878  0.9883
38194SOL     OW21821   3.046   1.034   3.537 -0.0236  0.0755 -0.2164
38194SOL    HW121822   3.058   1.030   3.442  0.1778  1.7595 -0.3010
38194SOL    HW221823   3.040   1.128   3.556 -1.7797 -0.2762  1.2319
38195SOL     OW21824  12.545   1.388   4.184  0.0102  0.4454  0.2435
38195SOL    HW121825  12.618   1.437   4.222  1.6536 -1.0428 -0.8580
38195SOL    HW221826  12.527   1.433   4.101 -0.2317  0.7209  0.4432
38196SOL     OW21827   5.788   2.304  12.686 -0.4318  0.4435  0.1180
38196SOL    HW121828   5.849   2.377  12.701 -0.3354  0.0692  1.7885
38196SOL    HW221829   5.809   2.242  12.755  1.1940 -2.3825 -2.6660
38197SOL     OW21830   8.891   2.578   2.843  0.0808  0.1604 -0.0290
38197SOL    HW121831   8.871   2.489   2.870 -1.1197  0.3535 -0.2316
38197SOL    HW221832   8.847   2.589   2.759  1.3575  0.5085 -0.6689
38198SOL     OW21833   2.552   2.492  11.083  0.6457  0.0139 -0.0909
38198SOL    HW121834   2.628   2.434  11.089  0.4349 -0.2289  0.2020
38198SOL    HW221835   2.567   2.541  11.002  0.5435 -0.8459 -0.6429
38199SOL     OW21836   0.084   4.581   5.290 -0.0862  0.0599  0.5891
38199SOL    HW121837   0.017   4.645   5.268  0.5983 -0.0499 -2.1625
38199SOL    HW221838   0.158   4.603   5.233  0.1752 -3.1344 -0.4970
38200SOL     OW21839   0.272   0.669   7.201 -0.0630 -0.0179 -0.1434
38200SOL    HW121840   0.224   0.628   7.129 -0.6045  0.3803 -0.0134
38200SOL    HW221841   0.329   0.733   7.158 -2.3415  2.1953 -0.0797
38201SOL     OW21842  11.320   6.646   1.791  0.1154 -0.2317  1.1735
38201SOL    HW121843  11.287   6.556   1.788  1.7671 -0.8641  0.6911
38201SOL    HW221844  11.402   6.640   1.840  0.7510  0.8375  0.3025
38202SOL     OW21845   1.790   8.849   4.629 -0.1359  0.0182  0.0464
38202SOL    HW121846   1.719   8.899   4.588  0.3478  1.4191  0.8454
38202SOL    HW221847   1.745   8.789   4.688 -0.6792  0.4385  0.0721
38203SOL     OW21848   3.016   9.862   4.876  0.4005  0.5583  0.0206
38203SOL    HW121849   3.043   9.771   4.860 -0.1651  0.5163 -0.7200
38203SOL    HW221850   2.958   9.856   4.952 -0.9593  0.0570 -1.0248
38204SOL     OW21851   2.093   1.078   0.359 -0.3523  0.0958  0.0697
38204SOL    HW121852   2.042   1.078   0.441 -1.7186  1.2472 -0.7292
38204SOL    HW221853   2.045   1.018   0.302 -2.0842  2.6576 -1.3638
38205SOL     OW21854   5.262   3.453   7.656  0.0063  0.1359 -0.0732
38205SOL    HW121855   5.235   3.543   7.636  1.6453  1.2433  2.2217
38205SOL    HW221856   5.329   3.433   7.591 -1.1779  0.0947 -1.3149
38206SOL     OW21857  12.657   6.707   6.528  0.4027 -0.4718 -0.5909
38206SOL    HW121858  12.680   6.624   6.570  1.9521  0.8625  1.3764
38206SOL    HW221859  12.592   6.745   6.586  1.5281  0.7711 -0.1025
38207SOL     OW21860   1.699  10.780  11.349  0.3414  0.1285  0.2316
38207SOL    HW121861   1.675  10.819  11.433 -1.3915  0.1512 -0.2407
38207SOL    HW221862   1.661  10.692  11.352 -1.6811  0.8723 -1.3392
38208SOL     OW21863   3.142  12.292   0.186 -0.0666  0.3398  0.1726
38208SOL    HW121864   3.070  12.281   0.249 -0.2177 -1.8751 -0.3054
38208SOL    HW221865   3.103  12.276   0.101  0.4367  1.9470 -0.4008
38209SOL     OW21866  12.456  12.677   7.518 -0.2143  0.0438  0.6974
38209SOL    HW121867  12.448  12.613   7.589  1.7714 -0.3964  0.5856
38209SOL    HW221868  12.401  12.643   7.448  2.1545 -2.5807 -0.0369
38210SOL     OW21869   9.392   4.753  12.271 -0.4709  0.1164 -0.2695
38210SOL    HW121870   9.478   4.738  12.233 -0.0642  0.2467  0.5621
38210SOL    HW221871   9.353   4.665  12.279  0.0532 -0.0707  0.3851
38211SOL     OW21872   3.966   5.014   9.377 -0.2366  0.4346  0.1057
38211SOL    HW121873   4.013   4.938   9.409 -2.3537 -0.7304  0.6411
38211SOL    HW221874   4.024   5.088   9.395  1.3513 -0.8976  0.6856
38212SOL     OW21875   3.863   9.645  10.563  0.2595 -0.3156 -0.3316
38212SOL    HW121876   3.830   9.689  10.641  0.0851  0.1538 -0.6654
38212SOL    HW221877   3.886   9.557  10.593 -0.4310 -0.3559  0.1098
38213SOL     OW21878  10.962  11.281   3.784 -0.3224  0.0657  0.1502
38213SOL    HW121879  10.870  11.306   3.773  0.2366  2.2788  0.1939
38213SOL    HW221880  11.009  11.332   3.718  1.0739  0.2674  1.2718
38214SOL     OW21881   5.014   8.633  11.077 -0.4344  0.5704  1.1353
38214SOL    HW121882   5.105   8.661  11.089  0.1040 -0.5879  0.0738
38214SOL    HW221883   5.021   8.542  11.049 -1.8746  0.8103 -0.1254
38215SOL     OW21884  11.357   3.172   3.818 -0.1300  0.5717 -0.3429
38215SOL    HW121885  11.272   3.215   3.827  0.1144  0.6900  1.6766
38215SOL    HW221886  11.350   3.125   3.734 -3.0003 -1.1522  0.7087
38216SOL     OW21887  11.474   5.383  10.959 -0.3315 -0.1852  0.0752
38216SOL    HW121888  11.395   5.338  10.990  0.4579 -0.4361  1.8117
38216SOL    HW221889  11.533   5.312  10.933  0.2884 -0.1084  1.2418
38217SOL     OW21890   9.851  10.676   7.281 -0.3411  0.0534  0.0150
38217SOL    HW121891   9.800  10.751   7.248  0.3489  0.1110 -0.9521
38217SOL    HW221892   9.862  10.694   7.375 -1.9022  0.1449  0.2119
38218SOL     OW21893   0.612   0.329   2.855 -0.6888 -0.2886 -0.0651
38218SOL    HW121894   0.584   0.241   2.832  1.4165 -0.6735 -1.4854
38218SOL    HW221895   0.573   0.386   2.788  0.1655 -0.5453 -0.8033
38219SOL     OW21896   4.359   1.778   8.849 -0.1251  0.2800 -0.3947
38219SOL    HW121897   4.339   1.779   8.943  2.3818 -2.4151  0.3377
38219SOL    HW221898   4.283   1.818   8.808 -1.7015  0.8163  2.7305
38220SOL     OW21899   2.912   5.994   1.821 -0.2637  0.3386 -0.2551
38220SOL    HW121900   2.932   6.020   1.731  1.3415 -0.9962 -0.3339
38220SOL    HW221901   2.900   6.077   1.868  0.3580  1.0997 -1.3932
38221SOL     OW21902   6.363   2.536   8.247  0.2838 -0.0133 -0.0100
38221SOL    HW121903   6.425   2.608   8.246  1.4796 -0.9629  1.3849
38221SOL    HW221904   6.290   2.566   8.192  1.9065  1.1564 -1.6438
38222SOL     OW21905   9.221   1.313   5.788 -0.3637  0.5973  1.1581
38222SOL    HW121906   9.215   1.345   5.878 -0.4532  1.5134  0.8453
38222SOL    HW221907   9.182   1.383   5.735 -0.9989 -0.2517  0.4686
38223SOL     OW21908   9.412   4.441   6.638 -0.3077  0.0387 -0.0362
38223SOL    HW121909   9.410   4.346   6.649  2.4008 -0.0281  0.6188
38223SOL    HW221910   9.422   4.475   6.727 -1.3384  0.9467 -0.2580
38224SOL     OW21911   9.681   3.732   0.878  0.0593  0.2201  0.0079
38224SOL    HW121912   9.701   3.783   0.800 -1.1495  1.9312  0.7700
38224SOL    HW221913   9.608   3.675   0.852 -1.2705  1.7689  0.2270
38225SOL     OW21914   8.571   0.571   7.328  0.0190  0.4718 -0.1834
38225SOL    HW121915   8.637   0.569   7.258 -0.5170 -0.6997 -0.6825
38225SOL    HW221916   8.609   0.517   7.397 -0.4401 -0.2807 -0.5080
38226SOL     OW21917   6.424   7.251  11.664 -0.1821 -0.0988 -0.5523
38226SOL    HW121918   6.360   7.255  11.734  1.1716 -1.7143  0.8740
38226SOL    HW221919   6.478   7.175  11.685  2.1961  1.1514 -1.6625
38227SOL     OW21920  10.921   4.378   9.773  0.0655  0.4300  0.2138
38227SOL    HW121921  10.910   4.453   9.714 -2.3336  0.8423  1.0477
38227SOL    HW221922  10.963   4.416   9.851  0.0620  0.6250  0.1220
38228SOL     OW21923   6.454   2.587  11.767  0.1289  0.8391 -0.3463
38228SOL    HW121924   6.401   2.639  11.827 -0.7306 -0.1193 -0.2493
38228SOL    HW221925   6.467   2.644  11.691  0.6502  1.8057  0.4596
38229SOL     OW21926   7.197  12.411   7.530 -0.4607  0.1851 -0.7800
38229SOL    HW121927   7.176  12.503   7.550 -0.9786 -0.2839  0.9645
38229SOL    HW221928   7.183  12.404   7.435  0.4298  2.1075 -1.0971
38230SOL     OW21929   9.332   8.076   0.994  0.2876 -0.7199  0.2013
38230SOL    HW121930   9.286   7.998   0.964  0.8679 -0.7438 -0.6783
38230SOL    HW221931   9.275   8.114   1.060 -0.2437 -1.6080  0.2691
38231SOL     OW21932   8.676   0.905   6.732  0.1190  0.6525  0.2850
38231SOL    HW121933   8.757   0.872   6.692 -0.0690 -0.3330  0.6981
38231SOL    HW221934   8.693   0.902   6.826  0.2081  2.0614  0.3407
38232SOL     OW21935   6.075   5.384   9.610 -0.5146 -0.3569 -0.0445
38232SOL    HW121936   6.068   5.446   9.682 -0.3972 -1.0738  0.6036
38232SOL    HW221937   5.986   5.379   9.574 -0.6577 -0.2757  0.2940
38233SOL     OW21938   4.262   9.288   8.839  0.1809  0.0995 -0.2229
38233SOL    HW121939   4.292   9.377   8.820 -0.7314  0.2469 -1.1047
38233SOL    HW221940   4.304   9.234   8.773  1.2205 -0.2387  0.6928
38234SOL     OW21941  10.732   0.114   5.734 -0.1208 -0.1684 -0.1822
38234SOL    HW121942  10.730   0.030   5.780  0.3780 -0.1068 -0.0427
38234SOL    HW221943  10.788   0.170   5.788  0.5295 -0.1118 -0.8842
38235SOL     OW21944   6.979   5.870   8.579  0.0144 -0.5759  0.1616
38235SOL    HW121945   7.028   5.822   8.646  0.2691 -1.4838 -0.6464
38235SOL    HW221946   6.887   5.849   8.597 -0.0156  0.2531  1.0206
38236SOL     OW21947   0.252   0.299   7.800  0.2030  0.1852  0.0362
38236SOL    HW121948   0.183   0.363   7.819 -1.5134 -1.2621 -0.9474
38236SOL    HW221949   0.330   0.335   7.839 -0.6084  3.0402 -0.7473
38237SOL     OW21950   0.778  10.212   2.482 -0.0215 -0.1194  0.1291
38237SOL    HW121951   0.742  10.236   2.396  4.6959  1.7649 -1.6512
38237SOL    HW221952   0.757  10.286   2.539  1.6418  1.4196 -1.1440
38238SOL     OW21953   5.642   6.649  10.102  0.0722 -0.0639  0.1700
38238SOL    HW121954   5.622   6.614  10.015  0.4878 -0.8560  0.3814
38238SOL    HW221955   5.559   6.684  10.133 -0.1806 -0.1678 -0.3740
38239SOL     OW21956   4.023   3.484   8.385  0.3685 -0.0143 -0.9674
38239SOL    HW121957   4.023   3.403   8.436  2.0737 -0.6899 -1.9387
38239SOL    HW221958   3.933   3.496   8.356 -0.1126 -0.9672  0.0907
38240SOL     OW21959   3.634   6.317  11.276  0.3394 -0.0955  0.2732
38240SOL    HW121960   3.686   6.391  11.306  1.0230  0.1082 -1.2795
38240SOL    HW221961   3.583   6.290  11.352  0.5670  1.5432  1.0515
38241SOL     OW21962   0.729  12.501   2.787 -0.3935 -0.0811 -0.2508
38241SOL    HW121963   0.751  12.466   2.873  1.0827 -0.1368 -0.6147
38241SOL    HW221964   0.811  12.540   2.756 -1.5890  2.3784 -0.5018
38242SOL     OW21965   2.349  11.679   2.169  0.0753  0.4560 -0.1135
38242SOL    HW121966   2.346  11.739   2.244 -1.6859 -0.1425  0.3547
38242SOL    HW221967   2.358  11.736   2.093  0.2318  1.1939  0.4457
38243SOL     OW21968  11.508   8.396  12.490 -0.2023 -0.3117  0.2077
38243SOL    HW121969  11.592   8.441  12.500 -0.0904 -0.5749  0.4628
38243SOL    HW221970  11.454   8.458  12.440 -0.0921  0.1628  0.6620
38244SOL     OW21971   9.551   8.845   1.951  0.2589 -0.0769  0.0417
38244SOL    HW121972   9.518   8.928   1.918 -0.8928 -0.5249  0.0166
38244SOL    HW221973   9.552   8.787   1.875  0.3941 -0.2827  0.1978
38245SOL     OW21974   1.832   5.718   0.142  0.8387  0.0318 -0.2602
38245SOL    HW121975   1.779   5.758   0.074  0.1950 -0.7906 -0.2514
38245SOL    HW221976   1.773   5.710   0.217  0.8451 -1.2518 -0.3745
38246SOL     OW21977  10.325   8.072  10.718 -0.5301  0.7193 -0.0803
38246SOL    HW121978  10.381   7.994  10.726 -1.1613  0.2073 -0.5194
38246SOL    HW221979  10.240   8.044  10.751 -0.2591  1.8434  1.7212
38247SOL     OW21980   5.363   3.548   7.031  0.4836 -0.4965 -0.1259
38247SOL    HW121981   5.359   3.611   7.103  0.5245 -1.0542  0.3683
38247SOL    HW221982   5.397   3.468   7.071 -0.2479 -1.0519 -0.5821
38248SOL     OW21983   1.318   4.749   6.940  0.2416 -0.5150  0.1995
38248SOL    HW121984   1.235   4.729   6.983  0.1498  1.0629  0.8122
38248SOL    HW221985   1.373   4.784   7.009  0.3260  1.4449 -0.8073
38249SOL     OW21986   0.952   9.756  11.223 -0.1109  0.0672 -0.6401
38249SOL    HW121987   1.046   9.749  11.210  0.0753  0.0793  0.6185
38249SOL    HW221988   0.924   9.667  11.245 -0.3771  0.0980 -0.8399
38250SOL     OW21989   5.666   8.529   3.735 -0.1068 -0.0034 -0.1034
38250SOL    HW121990   5.673   8.605   3.678  0.2396 -0.8454 -1.2130
38250SOL    HW221991   5.660   8.454   3.675 -4.2227 -0.6461  0.8053
38251SOL     OW21992  10.847   2.373   8.808 -0.1783  0.1286 -0.0634
38251SOL    HW121993  10.936   2.387   8.842 -0.4953  0.2346  0.7474
38251SOL    HW221994  10.860   2.340   8.719  0.7282 -1.6565  0.6751
38252SOL     OW21995   6.638   5.217   5.801  0.1057 -0.0173 -0.0401
38252SOL    HW121996   6.617   5.247   5.890 -0.9083  0.0388 -0.2815
38252SOL    HW221997   6.553   5.191   5.765  0.3365  1.0469 -1.4071
38253SOL     OW21998   2.260   7.411   1.444  0.1437 -0.4532  0.1420
38253SOL    HW121999   2.191   7.380   1.503  0.1831  1.1728  1.0957
38253SOL    HW222000   2.221   7.486   1.399  0.4771 -1.0340 -1.1621
38254SOL     OW22001   9.178   5.435  11.538 -0.3309 -0.4967  0.0466
38254SOL    HW122002   9.171   5.458  11.631 -1.4801 -0.8556  0.0715
38254SOL    HW222003   9.199   5.518  11.495  0.5935 -0.3988  0.6564
38255SOL     OW22004  11.008  11.303   7.869  0.0570 -0.6892  0.2381
38255SOL    HW122005  10.966  11.288   7.955  2.6672  0.6993  1.8818
38255SOL    HW222006  11.053  11.386   7.879  0.7091 -0.6563 -2.4409
38256SOL     OW22007  11.095   0.916   0.367  0.5934 -0.3227  0.1758
38256SOL    HW122008  11.068   0.826   0.349 -1.9312  0.0493  1.6233
38256SOL    HW222009  11.191   0.914   0.363  0.5985 -3.0108 -0.0473
38257SOL     OW22010   6.207   4.448   6.478  0.6180 -0.4554 -0.3362
38257SOL    HW122011   6.220   4.478   6.568 -0.0774  0.0371 -0.3865
38257SOL    HW222012   6.227   4.525   6.424 -1.1279 -0.0552 -0.4759
38258SOL     OW22013   0.278  11.873   8.195  0.2731  0.4557  0.7541
38258SOL    HW122014   0.367  11.847   8.219  0.8618  1.5251 -0.1871
38258SOL    HW222015   0.247  11.804   8.137  0.8861  0.5980  0.2563
38259SOL     OW22016   2.283   8.596   4.460 -0.5043 -0.4134  0.1250
38259SOL    HW122017   2.301   8.591   4.553 -0.3517  0.2522  0.1416
38259SOL    HW222018   2.329   8.675   4.431 -0.5632 -0.6057 -0.5072
38260SOL     OW22019   1.735   6.596   5.399  0.1011  0.2391 -0.1496
38260SOL    HW122020   1.711   6.675   5.351  0.8131 -0.9515 -2.6140
38260SOL    HW222021   1.689   6.525   5.353  0.8129 -0.9819  0.9555
38261SOL     OW22022  10.457   2.595   0.795 -0.0504  0.7577 -0.4683
38261SOL    HW122023  10.374   2.571   0.837  0.3952  0.9514  0.5554
38261SOL    HW222024  10.519   2.528   0.824  0.1421  0.5696 -1.2890
38262SOL     OW22025   6.380   5.416   2.227  0.8486  0.5854 -0.1581
38262SOL    HW122026   6.458   5.471   2.235  1.9979 -0.9869 -0.1493
38262SOL    HW222027   6.386   5.378   2.140  1.6362 -1.7253  0.8374
38263SOL     OW22028   9.884   9.623   6.425  0.5537 -0.4622  0.2133
38263SOL    HW122029   9.813   9.638   6.362  0.8599 -1.1486 -0.3171
38263SOL    HW222030   9.964   9.638   6.374  0.8149  1.9252  1.2180
38264SOL     OW22031   5.948  11.993   3.733 -0.0397 -0.0379  0.8468
38264SOL    HW122032   6.027  12.016   3.783 -0.1242  0.1029  0.9175
38264SOL    HW222033   5.970  11.911   3.689  0.7390  0.8422 -0.4778
38265SOL     OW22034  10.977   3.423   6.315  0.2398  0.2758  0.0839
38265SOL    HW122035  10.993   3.373   6.395 -0.3640 -1.1621 -0.6492
38265SOL    HW222036  10.882   3.424   6.307  0.2897  0.6822 -0.4568
38266SOL     OW22037   8.142   9.430   9.722 -0.1522 -0.0355 -0.1655
38266SOL    HW122038   8.165   9.349   9.677 -0.2368 -0.3593  0.3618
38266SOL    HW222039   8.096   9.482   9.657  2.6730  0.9745 -1.5526
38267SOL     OW22040   9.029   1.924   5.684  0.5057  0.3489  0.0166
38267SOL    HW122041   9.096   1.862   5.711  0.5011  0.8782  1.3156
38267SOL    HW222042   9.018   1.908   5.590  0.8870 -1.2244  0.2101
38268SOL     OW22043   1.522   8.381   5.641  0.0537  0.3161 -0.2475
38268SOL    HW122044   1.478   8.464   5.625 -2.4399 -0.9544 -0.5282
38268SOL    HW222045   1.524   8.338   5.555  0.7364 -0.1727  0.0018
38269SOL     OW22046   8.892   6.931   8.137 -0.9815  0.2602 -0.2318
38269SOL    HW122047   8.883   7.024   8.156  0.6744  0.6252 -0.9971
38269SOL    HW222048   8.972   6.925   8.084 -0.7598 -1.6526  0.2336
38270SOL     OW22049   3.914   3.142  12.691  0.0728  0.1405 -0.0107
38270SOL    HW122050   3.846   3.129  12.626  0.3355 -2.7090  0.1508
38270SOL    HW222051   3.870   3.130  12.775  0.5746 -0.8552  0.1267
38271SOL     OW22052   7.923  12.071  10.131  0.5006 -0.3070  0.1058
38271SOL    HW122053   7.862  12.083  10.058  0.4635 -0.5105  0.1037
38271SOL    HW222054   7.939  12.160  10.163 -1.9874 -0.4282  1.9503
38272SOL     OW22055  10.235   5.329   5.996 -0.5415 -0.6488  0.8372
38272SOL    HW122056  10.202   5.252   6.042  0.3284 -1.1451  0.6607
38272SOL    HW222057  10.218   5.402   6.056 -0.7061 -1.0819  1.3247
38273SOL     OW22058   1.887   8.243   0.807  0.5776 -0.0374  0.3240
38273SOL    HW122059   1.960   8.300   0.832  0.0670  1.3795 -1.2300
38273SOL    HW222060   1.816   8.269   0.865  0.1809  1.3854 -0.7220
38274SOL     OW22061  11.212  12.294  10.467  1.0397  0.2647 -0.7059
38274SOL    HW122062  11.245  12.311  10.555  2.3264  4.5104 -1.7499
38274SOL    HW222063  11.134  12.351  10.460  0.0852 -1.1171 -1.8847
38275SOL     OW22064  10.342   9.912   5.696  0.1699 -0.4449  0.7315
38275SOL    HW122065  10.294   9.994   5.710 -0.1137 -0.7250  1.4675
38275SOL    HW222066  10.298   9.849   5.754  1.1458 -0.8183  1.0789
38276SOL     OW22067   5.734   1.522   4.061  0.5355  0.8507  0.0960
38276SOL    HW122068   5.677   1.599   4.057 -0.8928 -0.2053 -2.0038
38276SOL    HW222069   5.816   1.551   4.022  0.8015  1.8591  1.3321
38277SOL     OW22070  10.564   8.401   0.065  0.3270  0.2652 -0.6653
38277SOL    HW122071  10.576   8.318   0.111 -0.2695  0.4581 -0.1457
38277SOL    HW222072  10.512   8.378  -0.012  2.0312 -0.1977 -1.7218
38278SOL     OW22073  10.913  10.328   4.903  0.0071 -0.4944 -0.4769
38278SOL    HW122074  10.899  10.280   4.984  0.7951  0.6066  0.3440
38278SOL    HW222075  10.995  10.374   4.916  0.4511 -0.7247 -2.1345
38279SOL     OW22076   4.007   8.230   5.077 -0.1194 -0.1452  0.0150
38279SOL    HW122077   3.916   8.216   5.102  0.3054 -0.3357  1.5125
38279SOL    HW222078   4.010   8.321   5.046 -0.3729  0.6430  2.1575
38280SOL     OW22079   3.186   8.751   2.977  0.1543 -0.0710  0.0038
38280SOL    HW122080   3.207   8.733   3.069 -1.8024 -0.5713  0.4010
38280SOL    HW222081   3.208   8.843   2.965 -0.0614  0.1441  1.1214
38281SOL     OW22082   7.391   0.438   3.175  1.0374 -0.3340 -0.0287
38281SOL    HW122083   7.428   0.353   3.153 -2.4816 -2.1626  0.4830
38281SOL    HW222084   7.358   0.473   3.091  0.9936 -0.2520  0.0217
38282SOL     OW22085  12.026   1.651   5.242  0.1697  0.5057 -0.3005
38282SOL    HW122086  12.035   1.606   5.158 -1.2639  0.0931 -0.2553
38282SOL    HW222087  12.100   1.619   5.294  1.0901  0.7793 -1.3896
38283SOL     OW22088  10.340  12.166   7.670 -0.1110  0.2991 -0.2261
38283SOL    HW122089  10.307  12.131   7.587  0.0399  2.0566 -1.0512
38283SOL    HW222090  10.361  12.088   7.721 -0.4622 -0.8283 -1.7251
38284SOL     OW22091   7.818  12.333  11.175 -0.2640 -0.1421 -0.0488
38284SOL    HW122092   7.879  12.305  11.243 -0.5591 -1.1818 -0.1823
38284SOL    HW222093   7.731  12.315  11.211 -0.5821  2.3042  0.5689
38285SOL     OW22094   9.690   6.092   3.441 -0.0838  0.2934 -0.2747
38285SOL    HW122095   9.616   6.037   3.468 -0.6361  1.9360  1.8420
38285SOL    HW222096   9.678   6.173   3.490  2.5957  1.0004 -0.6434
38286SOL     OW22097   1.410   4.125   8.342 -0.2845 -0.6383  0.2888
38286SOL    HW122098   1.333   4.179   8.360 -1.7011 -2.1843 -0.7931
38286SOL    HW222099   1.395   4.091   8.254  1.2246 -1.6864  0.4003
38287SOL     OW22100   9.810   6.605   3.285 -0.4470 -0.2530  0.2280
38287SOL    HW122101   9.767   6.670   3.230  2.2107  1.5232  0.0168
38287SOL    HW222102   9.795   6.636   3.375  1.1053  0.9763  0.1162
38288SOL     OW22103   3.935   9.741   9.417  0.1755 -0.7033 -0.5903
38288SOL    HW122104   3.895   9.708   9.337 -1.9913  0.0386  0.1100
38288SOL    HW222105   3.956   9.832   9.397  2.5312 -1.3411 -1.2641
38289SOL     OW22106   0.152   0.059  10.047 -0.3081 -0.5755 -0.4585
38289SOL    HW122107   0.129   0.106  10.128  0.7306 -0.9466  0.0767
38289SOL    HW222108   0.213  -0.009  10.076  0.2935 -0.5406 -1.5916
38290SOL     OW22109   6.092   7.428   0.827  0.0788 -0.5210  0.6081
38290SOL    HW122110   6.155   7.484   0.873 -1.1524 -0.5163  2.3744
38290SOL    HW222111   6.045   7.488   0.769  0.7385 -0.2705  0.3241
38291SOL     OW22112   5.453   2.497   5.711 -0.0188 -0.2183 -0.5013
38291SOL    HW122113   5.506   2.564   5.754  1.6275 -1.4159 -0.5807
38291SOL    HW222114   5.377   2.486   5.768 -0.1874  1.4860 -0.3499
38292SOL     OW22115  10.818   6.901   6.502  0.0523  0.3567  0.3251
38292SOL    HW122116  10.771   6.865   6.427 -0.2928 -2.0321  1.5841
38292SOL    HW222117  10.898   6.939   6.465 -0.7246  0.4078 -1.3660
38293SOL     OW22118   4.374   1.082   5.907  0.3473  0.2171 -0.1308
38293SOL    HW122119   4.407   1.068   5.996 -0.2966  0.3194  0.1295
38293SOL    HW222120   4.284   1.111   5.919  0.0206 -0.4723 -0.8423
38294SOL     OW22121   8.060  10.109   9.293  0.3380  0.3776  0.2779
38294SOL    HW122122   8.012  10.189   9.273  1.4800  1.1056  0.3668
38294SOL    HW222123   7.994  10.040   9.290 -0.6241  1.2884 -0.0154
38295SOL     OW22124   0.919   8.340   9.847 -0.0781 -0.3222 -0.1164
38295SOL    HW122125   0.837   8.371   9.809  0.5731  2.2752  0.3853
38295SOL    HW222126   0.985   8.359   9.781  0.2628 -1.6303 -0.1800
38296SOL     OW22127   0.839   6.856   3.018  0.4509 -0.1570 -0.2884
38296SOL    HW122128   0.761   6.905   3.042  0.5443  0.4430 -1.1796
38296SOL    HW222129   0.864   6.810   3.098 -0.8412 -0.4087 -0.0063
38297SOL     OW22130   6.360   7.074  12.277 -0.0130  0.1841 -0.6993
38297SOL    HW122131   6.401   7.072  12.364 -0.9452 -0.5472 -0.2496
38297SOL    HW222132   6.321   6.987  12.267 -2.2822  1.1214 -0.6464
38298SOL     OW22133   0.173   2.901   9.805 -0.3042  0.2176  0.7006
38298SOL    HW122134   0.222   2.969   9.759 -1.2762  1.7354  1.8448
38298SOL    HW222135   0.240   2.838   9.832  0.8245  1.4370  0.8443
38299SOL     OW22136   9.519  11.957   5.273 -0.0064 -0.0583  0.3444
38299SOL    HW122137   9.560  12.027   5.324  1.1977 -1.0066  0.7264
38299SOL    HW222138   9.531  11.879   5.326 -1.2084 -0.5900 -0.1404
38300SOL     OW22139   5.044   8.222  11.833 -0.4512  0.2238 -0.7681
38300SOL    HW122140   5.061   8.129  11.848 -0.1851 -0.1911 -3.2235
38300SOL    HW222141   4.954   8.235  11.865  0.7486  0.0953  3.0767
38301SOL     OW22142   6.394  12.695   0.453 -0.3475 -0.2786  0.6128
38301SOL    HW122143   6.383  12.625   0.517 -0.3837  0.0617  0.9839
38301SOL    HW222144   6.347  12.770   0.491  0.6305  0.2758  0.7609
38302SOL     OW22145  11.577   4.537   6.448  0.3545  0.0074  0.5770
38302SOL    HW122146  11.661   4.580   6.433 -0.3816  0.7708 -1.6925
38302SOL    HW222147  11.547   4.511   6.361 -1.5339 -0.7266  1.3941
38303SOL     OW22148  11.623  12.670   5.751  0.6048  0.2670  0.1967
38303SOL    HW122149  11.594  12.651   5.661 -1.3281  1.6259  0.4840
38303SOL    HW222150  11.719  12.667   5.745  0.6260  2.2177 -2.3855
38304SOL     OW22151   8.000   8.598  10.313  0.0776 -0.4346  0.1631
38304SOL    HW122152   8.003   8.691  10.337 -1.5811  0.0403 -1.2703
38304SOL    HW222153   7.998   8.552  10.397  0.2693  0.8569  0.9074
38305SOL     OW22154   3.498   3.585   8.118 -0.1058  0.3173 -0.1280
38305SOL    HW122155   3.506   3.675   8.150  0.6415  0.5042 -0.8091
38305SOL    HW222156   3.406   3.575   8.094 -0.4487  0.5183  1.0480
38306SOL     OW22157   7.123   9.231   2.539  0.7114 -0.5496 -1.0126
38306SOL    HW122158   7.123   9.135   2.546  0.6311 -0.8213 -3.7926
38306SOL    HW222159   7.216   9.254   2.534  0.7002 -0.6969 -2.1823
38307SOL     OW22160   1.386  10.435   4.744  0.5046  0.2678  0.2779
38307SOL    HW122161   1.372  10.432   4.839  0.3665 -0.0481  0.2472
38307SOL    HW222162   1.454  10.370   4.727 -1.3351 -1.6462 -0.1678
38308SOL     OW22163   2.130   1.504   2.678 -0.6853  0.4395 -0.4839
38308SOL    HW122164   2.114   1.598   2.671 -2.1849  0.3406  0.9936
38308SOL    HW222165   2.044   1.466   2.694 -0.0323 -1.1323 -0.5057
38309SOL     OW22166   4.514   8.194   0.348 -0.0014  0.7946 -0.6426
38309SOL    HW122167   4.598   8.238   0.359 -0.3242  1.2509  0.0930
38309SOL    HW222168   4.515   8.124   0.414 -0.3464  1.0447 -0.3660
38310SOL     OW22169   0.293   8.169   6.003  0.3856 -0.0233 -0.3411
38310SOL    HW122170   0.370   8.155   5.947  0.1267  0.4957 -0.8401
38310SOL    HW222171   0.262   8.256   5.979  0.9136  0.6916  1.4007
38311SOL     OW22172   5.175  12.384  12.328  0.2462 -0.3616 -0.2941
38311SOL    HW122173   5.151  12.475  12.343  0.8222 -0.3994  1.0347
38311SOL    HW222174   5.226  12.360  12.406 -0.8187 -2.1431 -0.0989
38312SOL     OW22175  11.399   4.925   8.128  0.2938 -0.3606  0.5754
38312SOL    HW122176  11.438   4.954   8.210 -0.3915 -1.3193  1.2610
38312SOL    HW222177  11.305   4.935   8.141  0.1878 -0.2616 -0.2020
38313SOL     OW22178  12.226   8.368   4.944 -0.3768 -0.5538 -0.4131
38313SOL    HW122179  12.191   8.439   4.998 -1.6065 -2.8488  1.9997
38313SOL    HW222180  12.170   8.368   4.866 -1.1062  0.3768  0.0864
38314SOL     OW22181   0.095  11.928   8.946  0.2769 -0.2093  0.0535
38314SOL    HW122182   0.166  11.992   8.940  0.5535 -0.4666  0.5973
38314SOL    HW222183   0.121  11.858   8.887  0.6975 -0.5125  0.5881
38315SOL     OW22184   8.127   0.684   7.943  0.4666  0.1518 -0.4846
38315SOL    HW122185   8.212   0.639   7.948 -0.1264 -1.0163 -0.6449
38315SOL    HW222186   8.070   0.633   8.000 -0.5538 -0.0496 -1.6592
38316SOL     OW22187   2.374  11.397   2.171  0.1258 -0.4878 -0.5850
38316SOL    HW122188   2.339  11.373   2.257  0.1925  0.1793 -0.3715
38316SOL    HW222189   2.359  11.491   2.164 -3.5846 -1.0480 -2.9653
38317SOL     OW22190   5.081  12.026  11.817 -0.4233  0.9868  0.6441
38317SOL    HW122191   5.136  12.083  11.870 -0.5328  0.9645  0.7838
38317SOL    HW222192   5.058  12.079  11.740 -1.3913  1.5190  1.2734
38318SOL     OW22193   0.794  10.102   5.911 -0.5994 -0.4640  0.3176
38318SOL    HW122194   0.792  10.011   5.884  0.6845 -0.5587  0.4494
38318SOL    HW222195   0.751  10.103   5.996 -1.3325 -0.8008 -0.0433
38319SOL     OW22196   1.016   5.952   0.208  0.3071  0.4414 -0.2063
38319SOL    HW122197   1.012   6.045   0.231 -0.0625  0.3165  0.2601
38319SOL    HW222198   0.942   5.938   0.149 -0.0682  0.2985  0.2890
38320SOL     OW22199  11.896   7.129  10.479 -0.3434 -0.2217  0.2576
38320SOL    HW122200  11.908   7.062  10.546  2.8684  0.1941  0.2626
38320SOL    HW222201  11.913   7.211  10.524 -2.1817  0.4829 -0.2262
38321SOL     OW22202   7.132   1.860   1.292  0.2380  0.1679 -0.1122
38321SOL    HW122203   7.085   1.777   1.298  0.3553  0.2014  2.3254
38321SOL    HW222204   7.115   1.892   1.203 -0.8800 -1.8162 -0.6540
38322SOL     OW22205  11.748   7.406   9.676  0.5773 -0.7343 -0.2237
38322SOL    HW122206  11.758   7.382   9.583  0.3579  2.1929 -1.0959
38322SOL    HW222207  11.768   7.325   9.723  1.1185 -2.2314 -2.7923
38323SOL     OW22208  11.735  10.400  12.360 -0.0530  0.1434 -0.0697
38323SOL    HW122209  11.779  10.442  12.433  2.3989  1.5047 -2.1728
38323SOL    HW222210  11.684  10.470  12.319  0.8114  0.1287 -1.2320
38324SOL     OW22211   1.436   1.746   9.113  0.0780  0.1866 -0.3723
38324SOL    HW122212   1.426   1.723   9.206  0.3778  0.2891 -0.3118
38324SOL    HW222213   1.358   1.711   9.071  0.3784 -0.6637 -0.2301
38325SOL     OW22214  12.212   5.093   0.461  0.2702 -0.3506 -0.0227
38325SOL    HW122215  12.150   5.063   0.528 -0.6280 -0.8120 -1.0187
38325SOL    HW222216  12.287   5.125   0.510 -0.2202 -0.9886  1.1917
38326SOL     OW22217  10.182   9.864  12.436  0.3947 -0.4061 -0.6576
38326SOL    HW122218  10.165   9.771  12.449  2.3381 -0.7435 -0.2605
38326SOL    HW222219  10.149   9.883  12.348 -0.2675 -1.3987 -0.6334
38327SOL     OW22220   3.439   8.528  10.864  0.2578 -0.3519 -0.1344
38327SOL    HW122221   3.377   8.533  10.936  1.3766  1.0379  0.7863
38327SOL    HW222222   3.466   8.436  10.863 -0.8635 -0.7045  0.2507
38328SOL     OW22223   1.410  10.764   7.708  0.1540 -0.1655  0.4438
38328SOL    HW122224   1.357  10.755   7.629 -0.6345 -0.0993  0.9521
38328SOL    HW222225   1.415  10.859   7.723  1.2819 -0.1081 -0.1574
38329SOL     OW22226   1.101   1.469   0.928  0.3407  0.1615  0.3015
38329SOL    HW122227   1.139   1.382   0.915  0.8497  0.3898  0.2140
38329SOL    HW222228   1.110   1.485   1.022  0.0459  0.0311  0.3529
38330SOL     OW22229   9.857  10.655   7.560  0.5827 -0.0384  0.4840
38330SOL    HW122230   9.915  10.683   7.631  0.0500  0.4809  0.7158
38330SOL    HW222231   9.777  10.627   7.603  0.5838 -0.5699  0.1473
38331SOL     OW22232   0.522   0.974   1.158  0.1704 -0.4880  0.1149
38331SOL    HW122233   0.583   1.038   1.195 -0.4362  0.2905 -0.2008
38331SOL    HW222234   0.462   1.026   1.104 -0.0276 -1.3884 -0.5596
38332SOL     OW22235   9.661   0.926   8.124  0.0878  0.3885  0.2281
38332SOL    HW122236   9.704   1.000   8.166  0.9640  0.2091 -0.3260
38332SOL    HW222237   9.727   0.891   8.064 -0.4183 -0.6428  0.2521
38333SOL     OW22238   6.017   2.409   6.180 -0.2839 -0.0617 -0.0079
38333SOL    HW122239   5.941   2.354   6.159 -1.3441  1.1977  0.3825
38333SOL    HW222240   5.984   2.499   6.172  1.3463  0.5284 -0.4531
38334SOL     OW22241   3.230   3.253   2.404  0.1421 -0.3289 -0.4599
38334SOL    HW122242   3.305   3.311   2.416  0.4371 -0.3702 -1.8965
38334SOL    HW222243   3.214   3.253   2.310 -2.7484  0.9797 -0.0628
38335SOL     OW22244  12.183   0.916   5.530 -0.2249 -0.1730 -0.3962
38335SOL    HW122245  12.246   0.974   5.572  0.3240 -0.1607 -1.2023
38335SOL    HW222246  12.110   0.972   5.505  0.4806  0.2815 -1.5397
38336SOL     OW22247   8.384  11.493   8.810 -0.0364 -0.4966 -0.0118
38336SOL    HW122248   8.395  11.499   8.905  2.2610 -0.9536 -0.1728
38336SOL    HW222249   8.349  11.578   8.784 -1.7875 -0.7631  1.3369
38337SOL     OW22250   6.621   0.967   5.435  0.4031 -0.0109 -0.2972
38337SOL    HW122251   6.685   0.903   5.466 -0.3505 -0.9385 -0.5833
38337SOL    HW222252   6.580   0.924   5.359 -0.4354  0.6260 -0.2172
38338SOL     OW22253  10.581   8.863   9.335 -0.8054  0.3519  0.3214
38338SOL    HW122254  10.627   8.947   9.335 -0.9823  0.4699  1.7959
38338SOL    HW222255  10.545   8.856   9.247 -1.0059  1.9547  0.2440
38339SOL     OW22256   7.918   8.036   9.053  0.1078 -0.6357 -0.4099
38339SOL    HW122257   7.825   8.036   9.031  0.2350 -0.9964 -0.9980
38339SOL    HW222258   7.922   8.068   9.143 -0.5059  0.2459 -0.6822
38340SOL     OW22259   7.432   9.264  10.214  0.3678  0.0473 -0.0974
38340SOL    HW122260   7.441   9.339  10.273  3.1159 -1.0656  1.0219
38340SOL    HW222261   7.355   9.217  10.247 -0.8049  1.7783 -0.2186
38341SOL     OW22262  10.143   6.189   7.963 -0.1183 -0.4047 -0.1962
38341SOL    HW122263  10.179   6.179   8.051  0.3693 -1.4151 -0.4904
38341SOL    HW222264  10.198   6.255   7.922 -0.5270  0.2800  0.3439
38342SOL     OW22265   3.688   0.280   7.033  0.5207 -0.2885 -0.4860
38342SOL    HW122266   3.777   0.299   7.006  0.2030 -0.1734 -1.4988
38342SOL    HW222267   3.673   0.189   7.007 -0.5960  0.5463 -3.0563
38343SOL     OW22268   6.645   0.854   6.457 -0.1622 -0.1845 -0.5279
38343SOL    HW122269   6.578   0.802   6.413  0.1039 -0.5135 -0.5555
38343SOL    HW222270   6.605   0.882   6.539 -0.6317  0.3520 -0.9279
38344SOL     OW22271   3.478   1.464   4.687 -0.2510 -0.2076 -0.1061
38344SOL    HW122272   3.480   1.459   4.592 -0.1289 -2.5226 -0.0325
38344SOL    HW222273   3.563   1.431   4.715  0.3623  1.9686  0.8289
38345SOL     OW22274   2.336   7.799   2.560  0.4749  0.3224 -0.0708
38345SOL    HW122275   2.420   7.790   2.516  0.0840  0.3132 -0.8464
38345SOL    HW222276   2.292   7.869   2.511  0.1651  0.5514  0.5324
38346SOL     OW22277   7.159   6.843   2.732  0.0650  0.0311  0.0595
38346SOL    HW122278   7.080   6.790   2.728 -1.4687  2.1799  0.0081
38346SOL    HW222279   7.231   6.780   2.734 -1.5521 -1.9951 -1.5419
38347SOL     OW22280   8.608   4.824   0.164 -0.6150 -0.2330  0.4426
38347SOL    HW122281   8.570   4.909   0.186 -0.4572 -0.1512  0.3985
38347SOL    HW222282   8.669   4.805   0.236  1.1198  0.7785 -0.6839
38348SOL     OW22283   3.969   7.645   1.246  0.1271 -1.0533  0.7683
38348SOL    HW122284   3.890   7.670   1.198  0.6409  0.7319  0.7719
38348SOL    HW222285   3.938   7.624   1.334 -0.6380 -2.9334  0.0948
38349SOL     OW22286   2.565   6.072  12.372 -0.8341 -0.0119  0.0403
38349SOL    HW122287   2.482   6.037  12.339 -0.6334 -0.1273 -0.3465
38349SOL    HW222288   2.632   6.022  12.326 -0.5465 -0.7214  1.2144
38350SOL     OW22289   9.635  11.888   7.165 -0.4170  0.6331  0.6690
38350SOL    HW122290   9.699  11.913   7.098 -0.7054 -0.2777  0.0387
38350SOL    HW222291   9.678  11.909   7.248  0.4386  0.6409  0.2356
38351SOL     OW22292   2.834  11.534  12.235  0.1920  0.9255 -0.1717
38351SOL    HW122293   2.855  11.506  12.146  0.1048 -1.6659  0.5363
38351SOL    HW222294   2.743  11.562  12.230 -0.5588 -1.3468 -0.5480
38352SOL     OW22295   4.723   0.560   7.663 -0.1257 -0.3640 -0.1788
38352SOL    HW122296   4.705   0.556   7.757 -0.0846  0.8772 -0.0990
38352SOL    HW222297   4.760   0.647   7.650 -1.5727  0.0904 -1.5744
38353SOL     OW22298   5.526   6.826   9.571 -0.3103 -0.3091  0.0024
38353SOL    HW122299   5.434   6.803   9.564 -0.6547  0.8664  0.5070
38353SOL    HW222300   5.564   6.759   9.629 -0.5482 -1.5346 -1.1956
38354SOL     OW22301   3.964   4.134   8.142 -0.0793 -0.3029 -0.0052
38354SOL    HW122302   3.875   4.117   8.174 -0.1482  0.0800  0.0132
38354SOL    HW222303   3.982   4.224   8.170  0.0569 -0.1431 -0.5901
38355SOL     OW22304   1.579   4.455   7.684  0.3923 -0.0627  1.0443
38355SOL    HW122305   1.571   4.540   7.641 -0.2098  0.4869  2.1885
38355SOL    HW222306   1.492   4.438   7.720  0.2362 -1.6530 -0.0225
38356SOL     OW22307   3.068  12.329   2.098 -0.3448  0.2071 -0.2903
38356SOL    HW122308   3.050  12.416   2.135 -1.6159 -0.3963  0.5783
38356SOL    HW222309   3.040  12.268   2.165  0.9538 -0.8972 -0.7165
38357SOL     OW22310   9.178   5.153   7.102  0.2977  0.4175 -0.4219
38357SOL    HW122311   9.220   5.226   7.057 -0.4579  1.7664  0.9322
38357SOL    HW222312   9.235   5.135   7.177  0.3822 -0.2565 -0.6488
38358SOL     OW22313   5.010   7.563  10.795 -0.2635 -0.3821 -0.2643
38358SOL    HW122314   5.102   7.589  10.794 -0.3157 -0.2132 -1.0112
38358SOL    HW222315   4.962   7.645  10.810 -0.3044 -0.4420 -0.0647
38359SOL     OW22316   1.418   2.850   1.815  0.2705  0.1767  0.5257
38359SOL    HW122317   1.413   2.777   1.876  1.8609  0.2833  0.8373
38359SOL    HW222318   1.401   2.811   1.729  0.6447 -0.4868  0.7434
38360SOL     OW22319  10.056  11.260   1.204 -0.1527  0.0789 -0.2421
38360SOL    HW122320  10.133  11.315   1.210 -1.5881  2.0568  1.4009
38360SOL    HW222321  10.025  11.272   1.114  0.3183  0.8781 -0.3052
38361SOL     OW22322   9.269   2.081  11.843  0.3866 -0.9148  0.1691
38361SOL    HW122323   9.238   2.012  11.902  2.6317 -0.1346  2.4326
38361SOL    HW222324   9.316   2.034  11.774  0.6935 -1.7356  0.9177
38362SOL     OW22325   9.459   6.035   9.325  0.7101 -0.1354 -0.2312
38362SOL    HW122326   9.407   6.100   9.278  1.9167  1.1409  0.1217
38362SOL    HW222327   9.401   6.003   9.393 -1.5193 -2.8840 -3.1183
38363SOL     OW22328   6.656   2.128   8.872  0.2438 -0.0717  0.3324
38363SOL    HW122329   6.692   2.197   8.928  0.3959  0.8411 -0.8587
38363SOL    HW222330   6.682   2.047   8.915  1.8029  0.5895  0.7017
38364SOL     OW22331   7.844   5.872   8.979  0.3824  0.1951  0.6637
38364SOL    HW122332   7.912   5.905   8.919  0.4561 -1.0878 -0.0060
38364SOL    HW222333   7.893   5.839   9.054  0.4935 -0.4560  0.3138
38365SOL     OW22334   5.965   7.727  10.923 -0.3940 -0.7369  0.6553
38365SOL    HW122335   6.040   7.729  10.982  0.1608 -2.5063  0.0627
38365SOL    HW222336   6.003   7.733  10.836 -1.1642  1.1465  0.4078
38366SOL     OW22337   3.043  10.031  10.271  0.0696  0.4831 -0.1752
38366SOL    HW122338   3.115  10.050  10.210  0.2374 -0.9548 -0.4621
38366SOL    HW222339   3.087  10.006  10.352 -0.1539  2.0769  0.4801
38367SOL     OW22340  11.605   4.080   8.768 -0.1824 -0.1870 -0.2528
38367SOL    HW122341  11.538   4.064   8.835 -0.0276  0.9696  0.1930
38367SOL    HW222342  11.567   4.147   8.712 -0.1344 -0.8502 -1.1027
38368SOL     OW22343   4.251   5.677   8.320 -0.4017 -0.3574  0.8856
38368SOL    HW122344   4.294   5.679   8.405 -0.5038 -1.0846  0.9622
38368SOL    HW222345   4.310   5.725   8.262  0.7333 -1.6929  0.8935
38369SOL     OW22346  10.381   9.934   5.121 -0.2745  0.4540  0.8869
38369SOL    HW122347  10.428   9.909   5.042 -0.8289  0.1616  0.6494
38369SOL    HW222348  10.447   9.979   5.174  0.5507 -0.8091  0.9917
38370SOL     OW22349   8.316   5.694   8.314 -0.0427 -0.4764  0.4018
38370SOL    HW122350   8.299   5.781   8.348  0.9383 -1.0049  2.3777
38370SOL    HW222351   8.342   5.708   8.223 -2.3894  1.0254 -0.0896
38371SOL     OW22352  10.001  11.787   7.050 -0.4116  0.1385 -0.0367
38371SOL    HW122353   9.996  11.700   7.088  2.3082  0.0389  0.2876
38371SOL    HW222354  10.014  11.845   7.125  0.9257  0.4284 -0.4717
38372SOL     OW22355   7.451   1.046   9.928  0.2251  0.1564  0.3802
38372SOL    HW122356   7.517   0.983   9.959  0.0466 -0.2135  0.0119
38372SOL    HW222357   7.465   1.051   9.834  0.4966  0.9737  0.4547
38373SOL     OW22358   9.918  11.902   5.194 -0.0067 -0.0105  0.0223
38373SOL    HW122359  10.006  11.930   5.170  0.1890  0.3767  1.1454
38373SOL    HW222360   9.905  11.820   5.145  0.5261  0.5114 -1.0270
38374SOL     OW22361  11.416   1.982   8.144 -0.4040  0.0251 -0.0428
38374SOL    HW122362  11.331   2.020   8.168 -0.0743  0.7838 -0.0622
38374SOL    HW222363  11.397   1.927   8.069 -0.3217  3.0093 -2.4393
38375SOL     OW22364   4.071   7.666   0.834 -0.1431 -0.4943  0.2533
38375SOL    HW122365   4.014   7.617   0.775  0.5548 -0.0158 -0.8588
38375SOL    HW222366   4.160   7.644   0.805  0.1887  1.1072 -0.0200
38376SOL     OW22367   3.101   2.296   5.402  0.2056  0.4548 -0.0274
38376SOL    HW122368   3.126   2.385   5.378 -0.0922  0.4189 -0.4671
38376SOL    HW222369   3.034   2.271   5.339  0.3833 -0.1319  0.0065
38377SOL     OW22370   3.412  11.173   5.089  0.6087  0.2963  0.3142
38377SOL    HW122371   3.468  11.114   5.140  1.0063  0.6411  0.2785
38377SOL    HW222372   3.427  11.260   5.128 -0.9617  0.1979  1.2257
38378SOL     OW22373   4.897   9.387   1.343  0.1066  0.0338 -0.7401
38378SOL    HW122374   4.825   9.338   1.384  0.0145 -0.1841 -1.1555
38378SOL    HW222375   4.863   9.476   1.333  1.1556  0.8801  2.3371
38379SOL     OW22376  11.036   5.718   5.703 -0.0077  0.0556  0.3314
38379SOL    HW122377  11.091   5.661   5.757  1.9068 -1.0423 -2.5141
38379SOL    HW222378  11.080   5.803   5.703 -0.3380  0.2295  0.9397
38380SOL     OW22379  12.475   1.759   5.872  0.4298  0.1953  0.0089
38380SOL    HW122380  12.523   1.683   5.839 -1.2162 -0.4121 -1.1406
38380SOL    HW222381  12.503   1.767   5.963 -0.7579 -3.0795  0.8250
38381SOL     OW22382  11.360   6.235   1.644  0.2290  0.4462  0.4349
38381SOL    HW122383  11.383   6.290   1.569  3.0834 -1.0227  0.1157
38381SOL    HW222384  11.346   6.296   1.716  2.2716  1.6892 -0.1581
38382SOL     OW22385   0.039   0.078   2.149 -0.1200 -0.1140  0.1280
38382SOL    HW122386   0.030   0.068   2.054 -0.3791 -0.6844  0.2122
38382SOL    HW222387   0.054   0.172   2.161 -0.8706  0.0864 -0.4197
38383SOL     OW22388  11.932   9.896   1.462 -0.5545  0.1429 -0.2708
38383SOL    HW122389  11.986   9.927   1.389  0.8034  2.6071  1.6501
38383SOL    HW222390  11.858   9.851   1.420  2.0278 -1.9132 -3.0653
38384SOL     OW22391  11.666   8.636   0.454  0.1888  0.2511  0.0624
38384SOL    HW122392  11.628   8.717   0.489  0.6871  0.8394 -0.7302
38384SOL    HW222393  11.599   8.569   0.471  0.7890  0.2884  2.9924
38385SOL     OW22394   6.014   7.370  12.628 -0.2921 -0.3314 -0.6944
38385SOL    HW122395   5.932   7.325  12.650 -0.0132 -0.5924 -0.1734
38385SOL    HW222396   6.012   7.375  12.532 -0.6726 -0.8118 -0.7220
38386SOL     OW22397   8.097   7.614   0.645  0.2184 -0.0995 -0.4188
38386SOL    HW122398   8.015   7.664   0.640 -0.3405 -0.6680  1.7723
38386SOL    HW222399   8.165   7.677   0.622 -0.6964  0.8297 -0.6752
38387SOL     OW22400  11.198   4.080  10.353  0.5371 -0.3742 -0.3086
38387SOL    HW122401  11.175   4.020  10.283  1.4987 -1.1433  0.0104
38387SOL    HW222402  11.142   4.156  10.339  0.4427 -0.6704 -1.6853
38388SOL     OW22403   7.750  11.071   8.444 -0.0107  0.3406 -0.2572
38388SOL    HW122404   7.659  11.101   8.441  0.1140  0.6726 -1.9903
38388SOL    HW222405   7.763  11.027   8.360  1.8864  1.6976 -0.7349
38389SOL     OW22406   8.451  12.329   0.997  0.2381 -0.4238 -0.3576
38389SOL    HW122407   8.406  12.358   0.918  1.6026  0.8025 -0.7246
38389SOL    HW222408   8.391  12.354   1.068  0.2916  1.1666 -0.8317
38390SOL     OW22409   7.169  10.172   0.495 -0.1712 -0.2494 -0.0904
38390SOL    HW122410   7.136  10.212   0.415  0.1238 -0.0797 -0.1289
38390SOL    HW222411   7.171  10.078   0.476  0.0735 -0.1934 -0.3513
38391SOL     OW22412   0.633   5.911   6.325  0.4463  0.1616 -0.1963
38391SOL    HW122413   0.696   5.844   6.300 -1.0644 -0.9870 -1.0805
38391SOL    HW222414   0.644   5.922   6.419 -0.4525 -2.6193  0.3007
38392SOL     OW22415  12.430   2.656   8.464  0.4284  0.1379  0.2154
38392SOL    HW122416  12.412   2.643   8.371 -2.2427  2.1935  0.3422
38392SOL    HW222417  12.472   2.742   8.469  0.1442  0.2402  0.9513
38393SOL     OW22418   5.522   4.463  11.421  0.3622 -0.2192 -0.2060
38393SOL    HW122419   5.544   4.548  11.458 -0.0315  0.5222 -1.6247
38393SOL    HW222420   5.529   4.402  11.495  2.5399  0.7074  0.4208
38394SOL     OW22421   1.639   9.411   9.960 -0.6522 -0.2485  0.6522
38394SOL    HW122422   1.602   9.347   9.900  0.6728  0.5785 -1.1329
38394SOL    HW222423   1.576   9.483   9.960 -0.5890 -0.1933  0.1407
38395SOL     OW22424   0.400   8.502   6.927  0.6378  0.5962 -0.0167
38395SOL    HW122425   0.314   8.480   6.963  0.5984 -0.2293 -0.6005
38395SOL    HW222426   0.454   8.522   7.004  0.7865 -1.9242  0.6024
38396SOL     OW22427  11.559   2.409   9.931  0.7226 -0.3915  0.1008
38396SOL    HW122428  11.559   2.409   9.836 -0.2115 -1.1411  0.0875
38396SOL    HW222429  11.649   2.432   9.955  0.8773  0.1684 -0.9463
38397SOL     OW22430  11.246   6.733   7.218 -0.0916 -0.0024  0.2503
38397SOL    HW122431  11.198   6.763   7.141 -2.5271  0.1722  1.7591
38397SOL    HW222432  11.308   6.668   7.183 -0.9886  0.1866 -1.8511
38398SOL     OW22433  10.234   1.572   1.865  0.0144  0.3713  0.0521
38398SOL    HW122434  10.310   1.606   1.818 -0.5972 -1.6388 -2.6939
38398SOL    HW222435  10.162   1.629   1.838  0.0929  0.7238  0.5813
38399SOL     OW22436  12.507   9.207   2.492 -0.0799  0.3768  0.1465
38399SOL    HW122437  12.508   9.251   2.407 -0.4010  2.2597  1.0612
38399SOL    HW222438  12.597   9.213   2.523 -0.3865  1.7171  0.8734
38400SOL     OW22439   3.997   5.512  10.505 -0.4000  0.3668  0.0591
38400SOL    HW122440   4.073   5.544  10.554  0.4869  1.5349 -1.9406
38400SOL    HW222441   3.933   5.582  10.513 -0.2498  0.5627 -0.4461
38401SOL     OW22442  12.306   4.231  10.674 -0.7135  0.4007 -0.3526
38401SOL    HW122443  12.331   4.302  10.733  0.8552 -0.5196  0.1571
38401SOL    HW222444  12.327   4.264  10.586  0.2841  0.4893 -0.0969
38402SOL     OW22445   2.082  11.501   0.720  0.0405 -0.3959  0.1193
38402SOL    HW122446   2.141  11.536   0.653  0.3524  0.7720  0.9849
38402SOL    HW222447   2.134  11.435   0.766  1.2645  1.6679  1.8676
38403SOL     OW22448   2.037   4.408   4.669  0.0166  0.1065 -0.4168
38403SOL    HW122449   2.004   4.497   4.662 -1.0044 -0.1654  0.5151
38403SOL    HW222450   2.073   4.403   4.758 -0.2171 -0.4897 -0.3526
38404SOL     OW22451   9.142   8.257  11.136 -0.1678 -0.4533  0.3473
38404SOL    HW122452   9.065   8.287  11.184 -0.1122  1.0759 -0.4558
38404SOL    HW222453   9.216   8.298  11.180 -0.0061 -0.1974 -0.1442
38405SOL     OW22454  12.190   8.854  12.469 -0.0285  0.2387 -0.7181
38405SOL    HW122455  12.238   8.926  12.426 -0.1988  0.2489 -0.8933
38405SOL    HW222456  12.176   8.790  12.399 -3.3020  1.7280 -1.6038
38406SOL     OW22457   9.480   0.663   6.507  0.5454 -0.0006 -0.2566
38406SOL    HW122458   9.520   0.749   6.491 -0.6391  0.6595  0.1586
38406SOL    HW222459   9.390   0.672   6.474 -0.5090 -0.1084  2.3094
38407SOL     OW22460   2.646   0.588   8.586 -0.8007  0.4240  0.0050
38407SOL    HW122461   2.579   0.654   8.568  0.2723  1.6831  0.4949
38407SOL    HW222462   2.709   0.597   8.514 -0.6652 -0.1010  0.0490
38408SOL     OW22463   4.259  11.791  12.568  0.1654  0.1218 -0.5625
38408SOL    HW122464   4.312  11.853  12.518  0.9324 -1.7300 -2.1707
38408SOL    HW222465   4.309  11.776  12.648  0.3349  0.9780 -0.4953
38409SOL     OW22466   7.956   1.574   7.709  0.1316  0.0248 -0.1817
38409SOL    HW122467   7.943   1.507   7.777  1.3321 -1.3294 -1.2181
38409SOL    HW222468   8.012   1.639   7.750  0.8969 -0.8126  0.1333
38410SOL     OW22469   8.237   2.789   3.078 -0.0861  0.1625 -0.9258
38410SOL    HW122470   8.178   2.854   3.039 -0.9130 -0.6685 -1.0921
38410SOL    HW222471   8.181   2.715   3.099  0.7455 -0.2794 -0.2022
38411SOL     OW22472   3.200  12.146   2.846 -0.0333 -0.2191 -0.3641
38411SOL    HW122473   3.265  12.182   2.906  1.3598 -0.3769 -1.7082
38411SOL    HW222474   3.153  12.223   2.813  0.0966 -0.0174 -0.0825
38412SOL     OW22475   5.672   0.036   6.462 -0.2582 -0.9436 -0.2969
38412SOL    HW122476   5.751   0.077   6.427 -0.6629 -0.7022 -0.9537
38412SOL    HW222477   5.614   0.109   6.481  0.4930 -0.9514  2.3397
38413SOL     OW22478   0.453   8.183   5.159 -0.2383  0.0795 -0.1388
38413SOL    HW122479   0.437   8.127   5.235 -0.0396  1.1845  0.7348
38413SOL    HW222480   0.480   8.267   5.196 -2.3404  1.3709 -1.3744
38414SOL     OW22481   5.089   9.357   0.293 -0.7552  0.3366 -0.1366
38414SOL    HW122482   5.046   9.279   0.259  0.6003 -0.5504  0.1372
38414SOL    HW222483   5.050   9.372   0.379 -0.2081 -0.7254  0.3057
38415SOL     OW22484   5.896  11.278  10.126 -0.3253 -0.5066  0.0553
38415SOL    HW122485   5.971  11.221  10.112 -0.6095 -0.8123 -0.2194
38415SOL    HW222486   5.897  11.338  10.051 -1.0076 -1.2288 -0.5500
38416SOL     OW22487   8.907   2.079   6.698 -0.4035  0.2866  0.1317
38416SOL    HW122488   8.903   2.146   6.767 -1.4643 -0.1339  0.4939
38416SOL    HW222489   8.818   2.072   6.666  0.3097  1.6550 -2.4675
38417SOL     OW22490   9.222  12.397   4.499  0.4883 -0.0643 -0.1049
38417SOL    HW122491   9.256  12.342   4.428 -1.1134 -0.2950 -0.7199
38417SOL    HW222492   9.131  12.371   4.508  0.7466 -0.3818  2.3905
38418SOL     OW22493   7.043   2.892  10.512  0.4242 -0.0627 -0.0312
38418SOL    HW122494   7.107   2.834  10.470  1.2786 -0.3391  1.5501
38418SOL    HW222495   7.030   2.963  10.450  0.2751 -1.3290 -1.5017
38419SOL     OW22496   0.497   2.446   9.557  0.1017  0.3481  0.1390
38419SOL    HW122497   0.449   2.363   9.556  1.8394 -0.7440 -1.7292
38419SOL    HW222498   0.548   2.444   9.637 -1.2607  0.5115  1.0390
38420SOL     OW22499  10.480   7.023   8.611  1.1786  0.4536 -0.1702
38420SOL    HW122500  10.502   6.979   8.693  0.3193  0.5622  0.1311
38420SOL    HW222501  10.467   6.951   8.549  0.6648  0.3032  0.0981
38421SOL     OW22502  12.198   2.381   7.153 -1.0622  0.4394  0.0758
38421SOL    HW122503  12.226   2.304   7.203 -2.1781 -0.0511 -0.0044
38421SOL    HW222504  12.158   2.344   7.074 -1.4625  1.1126 -0.0426
38422SOL     OW22505   7.460   9.613   3.491  0.0058  0.2110  0.4288
38422SOL    HW122506   7.430   9.694   3.531  0.7571  1.0298 -0.6051
38422SOL    HW222507   7.475   9.636   3.399  0.7876 -0.9439  0.2494
38423SOL     OW22508   2.793   0.572   8.922  0.1660  0.4022 -0.2485
38423SOL    HW122509   2.801   0.648   8.864 -0.5484  0.3760 -0.3916
38423SOL    HW222510   2.706   0.581   8.962  0.2654 -0.0909  0.0942
38424SOL     OW22511  10.738   2.309   2.203  0.1122 -0.0610 -0.0451
38424SOL    HW122512  10.779   2.224   2.190 -0.9162 -0.6775  0.6078
38424SOL    HW222513  10.702   2.305   2.292 -0.9557  0.6054 -0.4265
38425SOL     OW22514   8.283   6.195   0.316  0.1047  0.5476 -0.0093
38425SOL    HW122515   8.329   6.115   0.342  0.1905  0.4058 -0.5773
38425SOL    HW222516   8.315   6.262   0.377  0.6513  0.3266 -0.0445
38426SOL     OW22517  11.290   2.347   5.282  0.0359  0.2955 -0.5728
38426SOL    HW122518  11.300   2.372   5.190  0.2226  1.5919 -0.2174
38426SOL    HW222519  11.259   2.256   5.279  0.9361  0.0100 -1.8962
38427SOL     OW22520   7.883   3.420   3.959  0.1901 -0.1604  0.1391
38427SOL    HW122521   7.836   3.471   3.893 -1.5314 -1.9715 -0.1544
38427SOL    HW222522   7.964   3.394   3.915 -0.9389 -1.3638 -1.3517
38428SOL     OW22523   2.227   2.833   4.978  0.1980  0.4312  0.4533
38428SOL    HW122524   2.237   2.858   5.070  1.3645  0.7478  0.2557
38428SOL    HW222525   2.314   2.805   4.951 -0.3706 -0.7201 -0.2671
38429SOL     OW22526   4.552  10.502   9.414 -0.2057  0.5909  0.1082
38429SOL    HW122527   4.549  10.406   9.410 -0.8302  0.6341 -0.9374
38429SOL    HW222528   4.592  10.528   9.331 -1.1793  1.2612 -0.1727
38430SOL     OW22529   0.230   5.395   6.764 -0.1030 -0.2915 -0.4659
38430SOL    HW122530   0.176   5.363   6.837 -1.1952  1.0508 -0.6319
38430SOL    HW222531   0.318   5.402   6.801 -0.2884 -1.2963  0.2048
38431SOL     OW22532   7.853   2.233   7.883 -0.4160  0.1256  0.1637
38431SOL    HW122533   7.921   2.186   7.932 -0.2276 -0.0489 -0.2611
38431SOL    HW222534   7.902   2.285   7.820 -0.7056 -0.5412 -0.6241
38432SOL     OW22535   3.504   1.243  12.625 -0.1287  0.0263 -0.0975
38432SOL    HW122536   3.478   1.309  12.689 -0.6835  0.7943 -1.0969
38432SOL    HW222537   3.422   1.210  12.589  0.1732 -0.4483 -0.3675
38433SOL     OW22538   0.049   2.052   1.117  0.4579 -0.4366 -0.1500
38433SOL    HW122539  -0.032   2.012   1.149 -0.0527  0.8310  0.1837
38433SOL    HW222540   0.116   1.984   1.132 -0.7103 -2.0022 -1.6381
38434SOL     OW22541   0.241   8.498  11.810 -0.4494 -0.1123  0.5680
38434SOL    HW122542   0.274   8.494  11.900  1.0645  1.0774  0.1241
38434SOL    HW222543   0.216   8.590  11.799 -1.2367 -0.3911 -0.0373
38435SOL     OW22544   4.006  10.933   9.296 -0.6603  0.0594 -0.3591
38435SOL    HW122545   4.089  10.943   9.343  0.0731  1.0026 -1.7911
38435SOL    HW222546   4.022  10.973   9.211 -2.8818  1.1130 -0.3330
38436SOL     OW22547   9.526   8.432   7.719  0.1262 -0.7111  0.2400
38436SOL    HW122548   9.524   8.509   7.776  1.5895 -1.4019  1.3157
38436SOL    HW222549   9.605   8.385   7.746  0.1440 -1.7628 -1.4945
38437SOL     OW22550   0.186   8.102   4.820  0.1445 -0.1990  0.7773
38437SOL    HW122551   0.194   8.130   4.911  1.5450  0.9564  0.3505
38437SOL    HW222552   0.241   8.024   4.813  0.1910 -0.1760  0.8836
38438SOL     OW22553   7.549   7.878   8.208 -0.0024 -0.0843  0.1182
38438SOL    HW122554   7.632   7.915   8.239 -0.9285  1.8609  0.4259
38438SOL    HW222555   7.548   7.897   8.114 -0.4826  0.7161  0.2773
38439SOL     OW22556   0.873   7.183   8.035  0.6393 -0.2200  0.2909
38439SOL    HW122557   0.807   7.251   8.045 -0.8721 -1.8390  2.0286
38439SOL    HW222558   0.956   7.229   8.048 -0.1942  1.6092 -0.5391
38440SOL     OW22559   5.063  11.798  11.988  0.4090  0.4048 -0.1602
38440SOL    HW122560   5.012  11.753  11.920  0.7142  0.3562 -0.3598
38440SOL    HW222561   5.105  11.871  11.942 -0.1948  0.9878  0.1900
38441SOL     OW22562   6.844   3.668  10.574  0.1236  0.1965 -0.1770
38441SOL    HW122563   6.886   3.622  10.502  1.7456  1.1476  0.1243
38441SOL    HW222564   6.863   3.761  10.559 -1.3728  0.6134  0.3103
38442SOL     OW22565   9.828   5.550   7.572 -0.4297 -0.0148  0.4796
38442SOL    HW122566   9.831   5.506   7.487 -2.3910 -1.0842  0.8975
38442SOL    HW222567   9.920   5.566   7.595  0.1753 -0.8211 -1.2593
38443SOL     OW22568   8.742   0.050  12.065  0.1371 -0.0981  0.2312
38443SOL    HW122569   8.704   0.084  12.146  0.6183 -0.7236  0.7253
38443SOL    HW222570   8.740   0.125  12.005 -0.3186  0.3411  0.7818
38444SOL     OW22571   3.494   3.734   4.677 -0.2160  0.3224  0.4455
38444SOL    HW122572   3.429   3.678   4.634  1.8641 -0.9408 -1.2979
38444SOL    HW222573   3.513   3.802   4.612  0.6628  0.2626  0.6262
38445SOL     OW22574   0.804   1.447   8.257  0.1505  0.2854 -0.4599
38445SOL    HW122575   0.748   1.424   8.183 -0.3078 -0.4360  0.0992
38445SOL    HW222576   0.754   1.514   8.305 -0.7854 -1.1720  0.6729
38446SOL     OW22577   1.207   5.018  11.700  0.3799  0.6305 -0.8437
38446SOL    HW122578   1.278   5.076  11.726  1.4601 -0.7271 -0.6548
38446SOL    HW222579   1.156   5.069  11.637  0.3637  2.3310  0.4537
38447SOL     OW22580   7.628   3.838  11.869  0.1086 -0.3739  0.9141
38447SOL    HW122581   7.640   3.748  11.839  1.8238  0.2782 -0.5060
38447SOL    HW222582   7.563   3.875  11.809 -2.3467 -1.2166  2.8664
38448SOL     OW22583   1.216   7.854   2.677 -0.4831 -0.2008 -0.3611
38448SOL    HW122584   1.276   7.928   2.690 -1.3611  0.3157  1.1237
38448SOL    HW222585   1.272   7.781   2.651  0.4313  0.9391 -1.7119
38449SOL     OW22586  11.793   4.385   5.632 -0.1238  0.3840 -0.5481
38449SOL    HW122587  11.738   4.454   5.594 -1.6087  0.2161  1.1592
38449SOL    HW222588  11.756   4.370   5.719  3.6868  1.5173  1.5086
38450SOL     OW22589  11.873   3.739   1.311 -0.0561 -0.5023  0.1257
38450SOL    HW122590  11.909   3.711   1.395  0.0613 -1.2172 -0.1482
38450SOL    HW222591  11.837   3.658   1.273  0.2355 -0.2659 -0.6757
38451SOL     OW22592   6.102   3.874  10.302  0.0336  0.2515  0.3481
38451SOL    HW122593   6.033   3.830  10.351  0.5404 -0.4908  0.4161
38451SOL    HW222594   6.175   3.881  10.364  0.6965 -0.7399 -0.2939
38452SOL     OW22595   4.438   9.571   6.064  0.1701 -0.5146 -0.1970
38452SOL    HW122596   4.481   9.518   6.131  1.3766  0.8453  0.1730
38452SOL    HW222597   4.408   9.649   6.111  1.8175  0.8758 -1.3407
38453SOL     OW22598   8.997   7.330   9.357 -0.3113 -0.2058  0.1761
38453SOL    HW122599   9.033   7.402   9.409 -0.9339  0.8054 -0.7451
38453SOL    HW222600   8.970   7.265   9.421  2.2332 -0.5909  0.9413
38454SOL     OW22601  10.882   8.128   3.381  0.1182  0.4483  0.1665
38454SOL    HW122602  10.810   8.103   3.323  0.2748 -0.1298  0.2230
38454SOL    HW222603  10.918   8.207   3.340  0.0762  0.1816 -0.3917
38455SOL     OW22604   2.607  11.184   9.112 -0.1090  0.4283 -0.2173
38455SOL    HW122605   2.699  11.208   9.096 -0.4457  1.7006 -0.3687
38455SOL    HW222606   2.564  11.197   9.027 -1.3243  4.3820  0.8074
38456SOL     OW22607  12.152   9.333  10.235 -0.2900  0.0365  0.2100
38456SOL    HW122608  12.119   9.409  10.282  1.2216  0.9676 -0.1589
38456SOL    HW222609  12.074   9.289  10.202 -1.1859  1.8562 -0.2298
38457SOL     OW22610   3.301   6.725   8.553  0.0630 -0.4156 -0.3206
38457SOL    HW122611   3.288   6.793   8.620 -0.0804 -1.5103  0.7912
38457SOL    HW222612   3.393   6.700   8.563 -0.3034 -1.5189  0.3852
38458SOL     OW22613   5.448   9.195   1.360 -0.3744 -0.0284 -0.1050
38458SOL    HW122614   5.432   9.289   1.355 -1.1007 -0.1211  0.2888
38458SOL    HW222615   5.367   9.159   1.396  0.5245 -0.5976  1.4247
38459SOL     OW22616  11.002   0.665   3.637 -0.1984  0.7811  0.3312
38459SOL    HW122617  11.051   0.667   3.719 -0.8816  0.7396  0.7482
38459SOL    HW222618  11.003   0.573   3.610  0.3181  0.8494  0.1119
38460SOL     OW22619   5.607  11.730   1.371 -0.0541 -0.1863 -0.5358
38460SOL    HW122620   5.658  11.737   1.451  0.6654 -1.3777 -0.8723
38460SOL    HW222621   5.565  11.644   1.376 -0.3003 -0.1163 -1.2637
38461SOL     OW22622   1.495   6.384   2.036 -0.1970 -0.7073  0.4702
38461SOL    HW122623   1.451   6.461   2.075  0.7034 -0.3147  0.7302
38461SOL    HW222624   1.546   6.347   2.108 -0.9798 -1.8445  0.4696
38462SOL     OW22625   3.691  12.543   4.346 -0.6257 -0.5135 -0.0665
38462SOL    HW122626   3.654  12.551   4.434  0.7216  0.6156  0.4228
38462SOL    HW222627   3.649  12.465   4.310 -0.7955 -1.3294  1.7819
38463SOL     OW22628   1.978   5.227  11.821 -0.6889 -0.6320 -0.6555
38463SOL    HW122629   1.967   5.185  11.735 -2.0768  1.8031 -1.7894
38463SOL    HW222630   2.051   5.287  11.809  1.1500 -2.4475  0.8835
38464SOL     OW22631   7.860   2.567   4.570 -0.6530  0.2538 -0.2201
38464SOL    HW122632   7.926   2.510   4.609  0.3314  2.1690  1.0835
38464SOL    HW222633   7.859   2.543   4.478  1.8684  0.1047 -0.2916
38465SOL     OW22634   8.471   3.859   4.845 -0.3055 -0.1953 -0.6708
38465SOL    HW122635   8.484   3.767   4.868  1.0481 -0.2133 -1.3639
38465SOL    HW222636   8.497   3.908   4.923 -0.5100 -0.3898 -0.4823
38466SOL     OW22637   2.256   0.840   0.222  0.3715  0.4826  0.6355
38466SOL    HW122638   2.162   0.852   0.215  0.4644  0.2703 -1.6407
38466SOL    HW222639   2.268   0.745   0.224  0.5848  0.4678 -0.6023
38467SOL     OW22640   9.062   7.849   7.015 -0.2751 -0.6598 -0.7544
38467SOL    HW122641   9.157   7.856   7.013 -0.3522  0.3807 -1.1585
38467SOL    HW222642   9.039   7.869   7.106 -0.1109 -0.9132 -0.6559
38468SOL     OW22643   5.616   0.204   3.348 -0.2180  0.0949 -0.2566
38468SOL    HW122644   5.594   0.260   3.274 -0.5548 -1.0153 -1.0316
38468SOL    HW222645   5.592   0.255   3.425 -0.3594  1.0629 -0.9235
38469SOL     OW22646   7.587   3.848   2.807  0.3112  0.3959  0.1140
38469SOL    HW122647   7.496   3.879   2.802 -0.0297 -0.5377  0.1812
38469SOL    HW222648   7.638   3.912   2.758 -0.4066  0.8701 -0.0235
38470SOL     OW22649  11.851   8.679   1.222  0.3670 -0.1888 -0.1086
38470SOL    HW122650  11.869   8.770   1.242 -0.3773 -0.1849  0.5663
38470SOL    HW222651  11.843   8.676   1.127  1.1950  0.2896 -0.2039
38471SOL     OW22652  11.329  11.534   4.616  0.3420 -0.2640  0.0221
38471SOL    HW122653  11.265  11.493   4.674 -1.4619 -0.5549 -2.0555
38471SOL    HW222654  11.351  11.466   4.552 -0.3509  1.0214 -1.6499
38472SOL     OW22655   7.270  11.138  11.451 -0.0238 -0.5735  0.5791
38472SOL    HW122656   7.179  11.142  11.424  0.7969 -0.0566 -2.3998
38472SOL    HW222657   7.278  11.054  11.496 -1.7474 -1.0133  0.1200
38473SOL     OW22658   2.516   5.697   5.722 -0.0747 -0.4112  0.3931
38473SOL    HW122659   2.529   5.695   5.817 -0.0016 -0.4951  0.3815
38473SOL    HW222660   2.507   5.790   5.700  2.5628 -0.1557  0.1038
38474SOL     OW22661   3.754   4.178   7.453  0.4734 -0.1361 -0.1985
38474SOL    HW122662   3.780   4.118   7.383 -0.0806 -1.0328  0.3539
38474SOL    HW222663   3.680   4.135   7.495  2.4413 -0.9468  2.6995
38475SOL     OW22664   4.188   6.165   5.346 -0.7460 -0.1054 -0.2107
38475SOL    HW122665   4.279   6.174   5.318 -0.4055 -0.6838  0.6679
38475SOL    HW222666   4.193   6.140   5.438 -1.8281  2.3071  0.5900
38476SOL     OW22667   0.659  11.401   5.002 -0.3164  0.2430 -0.3296
38476SOL    HW122668   0.577  11.447   5.021  0.0325  0.7105  0.0728
38476SOL    HW222669   0.710  11.464   4.950  0.8135  0.9679  1.5640
38477SOL     OW22670  10.521   8.261  10.796 -0.3943 -0.5494 -0.1436
38477SOL    HW122671  10.473   8.337  10.827  0.8220  0.3473 -0.3664
38477SOL    HW222672  10.455   8.193  10.785 -1.7031  0.8110 -1.0732
38478SOL     OW22673   0.801   1.322  10.116  0.2510 -0.2058 -0.1334
38478SOL    HW122674   0.867   1.253  10.119  0.1236 -0.3330 -0.2299
38478SOL    HW222675   0.768   1.321  10.026 -0.4113 -0.6509  0.1066
38479SOL     OW22676  10.709   7.410  12.206 -0.7070 -0.1679  0.4879
38479SOL    HW122677  10.730   7.340  12.268 -3.5758 -2.6440 -1.0613
38479SOL    HW222678  10.790   7.422  12.156  0.3988 -1.0934  1.9817
38480SOL     OW22679  12.600  10.544   4.296 -0.3845 -0.1870 -0.2478
38480SOL    HW122680  12.677  10.493   4.273  0.7702  1.8882 -1.2602
38480SOL    HW222681  12.619  10.633   4.266 -2.0476  1.0202  1.8998
38481SOL     OW22682   5.750   0.970   9.439  0.1445 -0.4639  0.0259
38481SOL    HW122683   5.786   0.890   9.401 -0.6257 -0.2287 -1.2385
38481SOL    HW222684   5.819   1.035   9.429  0.2959 -0.6434 -0.1035
38482SOL     OW22685   8.273   9.173   4.531 -0.5669 -0.7641  0.0984
38482SOL    HW122686   8.218   9.172   4.610 -0.5474 -0.7084  0.1134
38482SOL    HW222687   8.213   9.156   4.459 -0.3047 -2.6583  0.2820
38483SOL     OW22688   9.520  11.702   3.861 -0.3760  0.1438  0.2415
38483SOL    HW122689   9.553  11.692   3.771  1.7317  1.9699  0.7313
38483SOL    HW222690   9.426  11.711   3.851 -0.6756 -3.1575 -1.4454
38484SOL     OW22691   8.804  12.210   3.539  0.0886  0.1319 -0.2206
38484SOL    HW122692   8.788  12.268   3.465  1.6327  1.6787  0.6085
38484SOL    HW222693   8.760  12.252   3.613  0.1996 -0.3785  0.1440
38485SOL     OW22694   8.478   1.266   0.451 -0.0962  0.4299 -0.3230
38485SOL    HW122695   8.493   1.173   0.432 -2.0549 -0.1523  0.6780
38485SOL    HW222696   8.528   1.283   0.530  0.7183  0.3892 -0.8226
38486SOL     OW22697   5.794  10.958  10.086  0.2178 -0.3029 -0.0311
38486SOL    HW122698   5.873  10.964  10.031  1.4877 -0.9601  1.6372
38486SOL    HW222699   5.826  10.924  10.170 -2.0109 -1.5547  0.3817
38487SOL     OW22700   4.061   2.758   2.629  0.1307  0.7300 -0.5019
38487SOL    HW122701   3.969   2.750   2.654 -0.1971  0.8631 -1.6073
38487SOL    HW222702   4.109   2.747   2.711 -0.8619  0.5693  0.0779
38488SOL     OW22703  10.821   7.908   7.154  0.1883  0.2890  0.2167
38488SOL    HW122704  10.844   7.816   7.142  0.2241  0.1314  1.3431
38488SOL    HW222705  10.892   7.943   7.208  1.1567  1.4654 -1.7274
38489SOL     OW22706   3.217   0.060   9.343 -0.3676  0.0629 -0.2150
38489SOL    HW122707   3.222   0.103   9.428 -2.2402  0.4298 -0.2675
38489SOL    HW222708   3.260  -0.024   9.357 -1.0267 -0.0608  1.2113
38490SOL     OW22709   6.002   1.307   1.196 -0.0552 -0.6999  0.0091
38490SOL    HW122710   5.927   1.248   1.194 -2.2261  1.8055  1.1667
38490SOL    HW222711   6.049   1.284   1.276 -2.2161  0.5408  1.7373
38491SOL     OW22712   6.937   8.571   6.801 -0.1355  0.4439  0.1428
38491SOL    HW122713   6.996   8.646   6.803  0.0589  0.3307 -0.8106
38491SOL    HW222714   6.898   8.568   6.889 -0.4364  1.8831  0.0791
38492SOL     OW22715  12.613  10.116   9.341 -0.6674  0.3664  0.2487
38492SOL    HW122716  12.643  10.207   9.348 -0.5702  0.3221  0.4209
38492SOL    HW222717  12.542  10.109   9.405 -0.8183  0.3816  0.0802
38493SOL     OW22718   3.929   9.975   0.550  0.0165  0.0955 -0.1542
38493SOL    HW122719   3.965   9.892   0.518 -0.2998 -0.2066  0.2560
38493SOL    HW222720   3.974  10.042   0.499 -0.8888 -0.3910 -1.6654
38494SOL     OW22721   6.951   1.108   8.541  0.8457  0.0599  0.1963
38494SOL    HW122722   7.032   1.096   8.493  0.5721 -1.4302  0.0661
38494SOL    HW222723   6.977   1.110   8.633  1.0847  0.0869  0.1268
38495SOL     OW22724   1.514   2.563   1.216 -0.6217 -0.4205  0.3793
38495SOL    HW122725   1.477   2.642   1.253 -2.7508 -1.4509  0.5845
38495SOL    HW222726   1.601   2.589   1.185 -0.8552  1.7041  1.3739
38496SOL     OW22727  12.447   1.495  12.429 -0.7096  0.5369  0.2687
38496SOL    HW122728  12.483   1.418  12.472 -1.4133 -0.2824 -0.5560
38496SOL    HW222729  12.352   1.490  12.445 -0.8858  0.6513 -0.6654
38497SOL     OW22730   6.652  10.360   9.870  0.5889  0.1697 -0.2618
38497SOL    HW122731   6.660  10.455   9.866  0.2896  0.1803 -0.6476
38497SOL    HW222732   6.623  10.334   9.783  1.4218 -0.3526 -0.3954
38498SOL     OW22733   1.096   5.488   0.454 -0.3338  0.1799 -0.1067
38498SOL    HW122734   1.125   5.551   0.519 -2.0552 -0.3841  1.2708
38498SOL    HW222735   1.117   5.529   0.370  0.7695  1.4803  0.7608
38499SOL     OW22736   7.352   4.257   3.582 -0.4861  0.1445 -0.8482
38499SOL    HW122737   7.401   4.289   3.507 -0.5152 -0.4589 -1.1315
38499SOL    HW222738   7.374   4.318   3.653  2.1501 -1.1352 -0.4425
38500SOL     OW22739   9.910   9.563   8.814  0.4287 -0.6280 -0.5071
38500SOL    HW122740   9.871   9.539   8.898  0.6305 -0.7555 -0.4477
38500SOL    HW222741   9.871   9.503   8.750 -0.8750  0.4584 -0.7712
38501SOL     OW22742   5.959  10.007   0.794  0.4313  0.1280  0.2114
38501SOL    HW122743   6.045   9.975   0.819  0.4333  0.4296  0.5923
38501SOL    HW222744   5.953   9.988   0.700  0.7910 -0.1617  0.2450
38502SOL     OW22745   5.886   5.641   8.942  0.6612  0.1873  0.1346
38502SOL    HW122746   5.795   5.647   8.914  0.7666 -0.2915 -0.3404
38502SOL    HW222747   5.935   5.687   8.874  1.0376 -2.0132 -1.1760
38503SOL     OW22748   7.462   2.793   7.056  0.0877 -0.1055  0.0801
38503SOL    HW122749   7.462   2.840   6.973  1.1354  0.3290  0.3022
38503SOL    HW222750   7.441   2.860   7.122 -1.9084 -0.6801  0.0779
38504SOL     OW22751   0.441   3.525   4.699 -0.1081 -0.0766 -0.0447
38504SOL    HW122752   0.386   3.602   4.714  0.7161  0.6861 -0.8079
38504SOL    HW222753   0.385   3.465   4.649 -0.6937  0.1032  0.3855
38505SOL     OW22754  11.542  12.363   7.981  0.8841  0.0765 -0.1586
38505SOL    HW122755  11.534  12.268   7.967  2.4256 -0.1003 -0.0393
38505SOL    HW222756  11.498  12.378   8.065 -2.7947  0.1481 -1.8741
38506SOL     OW22757   0.513   2.772   5.949 -0.4569 -0.4867  0.0521
38506SOL    HW122758   0.426   2.798   5.979 -0.8955 -2.1965  0.3481
38506SOL    HW222759   0.535   2.696   6.002  0.3709 -1.3010 -1.4032
38507SOL     OW22760   8.489   8.447   1.422  0.3031 -0.5751 -0.2150
38507SOL    HW122761   8.497   8.424   1.515  0.6982  0.1204 -0.0657
38507SOL    HW222762   8.576   8.480   1.398 -0.0774  0.2131 -0.5518
38508SOL     OW22763   0.397   9.162   5.486  0.1455  0.2351 -0.6034
38508SOL    HW122764   0.410   9.171   5.580 -0.0771  0.0312 -0.5527
38508SOL    HW222765   0.332   9.093   5.477  0.4796 -0.0430 -0.9251
38509SOL     OW22766   0.312   2.675   0.833 -0.3184 -0.5248 -0.6056
38509SOL    HW122767   0.217   2.676   0.846 -0.3019  2.3492 -0.0776
38509SOL    HW222768   0.348   2.674   0.922  0.0716  0.6585 -0.7330
38510SOL     OW22769  11.602  12.395  11.976  0.7874  0.4691 -0.0942
38510SOL    HW122770  11.557  12.470  12.015  2.2829  0.9536  0.7557
38510SOL    HW222771  11.672  12.433  11.923 -0.2608 -0.2443 -2.1115
38511SOL     OW22772  12.345   9.717   5.454 -1.0132  0.2729  0.1927
38511SOL    HW122773  12.358   9.698   5.547  1.2319  0.4370 -0.0318
38511SOL    HW222774  12.417   9.775   5.431 -1.3535 -0.0041 -1.7257
38512SOL     OW22775   5.757   9.789   0.932  0.0367 -0.3176 -0.1889
38512SOL    HW122776   5.705   9.823   0.860 -1.2970  1.2229  1.3995
38512SOL    HW222777   5.838   9.841   0.930 -0.8166  1.0946  0.5383
38513SOL     OW22778  12.433   0.558  11.323  0.1266 -0.1798 -0.3535
38513SOL    HW122779  12.374   0.628  11.349 -0.4090 -0.6420 -0.3032
38513SOL    HW222780  12.481   0.593  11.248 -0.7144 -0.0532 -0.8340
38514SOL     OW22781   3.720   1.847   0.331  0.4545  0.3329  0.0803
38514SOL    HW122782   3.673   1.777   0.285  0.4681  0.5909 -0.3291
38514SOL    HW222783   3.653   1.911   0.352 -0.0855 -0.9879  2.8460
38515SOL     OW22784   4.170   9.939   2.554  0.2455 -0.5432  0.4377
38515SOL    HW122785   4.196  10.027   2.583  1.3486 -1.2386  1.6539
38515SOL    HW222786   4.100   9.914   2.614  1.3939 -1.3187  1.5081
38516SOL     OW22787   8.553   6.667   7.533 -0.1827 -0.0561  0.0057
38516SOL    HW122788   8.523   6.722   7.605 -0.0619 -0.1531  0.1299
38516SOL    HW222789   8.642   6.641   7.558 -0.3144 -0.4727  0.0403
38517SOL     OW22790   7.592  10.602   8.222 -0.0366  0.1553  0.4663
38517SOL    HW122791   7.669  10.572   8.271  2.2021  0.7512 -2.3811
38517SOL    HW222792   7.573  10.530   8.162 -1.7389  0.0498  1.0912
38518SOL     OW22793   3.245   8.635   5.487 -0.4096 -0.4058 -0.1210
38518SOL    HW122794   3.211   8.716   5.524 -1.4116 -0.6768 -0.3944
38518SOL    HW222795   3.215   8.636   5.396 -0.1399 -0.9143 -0.2215
38519SOL     OW22796   3.768   8.332  10.094  0.0756  0.4311 -0.0087
38519SOL    HW122797   3.861   8.317  10.110 -0.2829 -0.3382  1.5435
38519SOL    HW222798   3.742   8.263  10.034  0.1515 -0.4470  0.9382
38520SOL     OW22799   6.574  12.451   3.162  0.1886 -0.4298 -0.4371
38520SOL    HW122800   6.605  12.424   3.075 -1.3168  0.1908 -1.2215
38520SOL    HW222801   6.567  12.370   3.212  0.7625 -0.8432 -1.0100
38521SOL     OW22802   0.789  11.651   0.198 -0.1490 -0.5649 -0.4504
38521SOL    HW122803   0.816  11.616   0.283  1.2507  0.8856 -0.2584
38521SOL    HW222804   0.727  11.586   0.164  2.2992 -3.2266 -0.1211
38522SOL     OW22805   5.119   7.006   0.247  0.1629 -0.3428 -0.2663
38522SOL    HW122806   5.102   6.981   0.338 -1.4572 -0.8459 -0.6784
38522SOL    HW222807   5.207   6.973   0.229  0.3658 -0.5395  1.0020
38523SOL     OW22808   2.100   6.951   0.352 -0.0693 -0.2504 -0.5646
38523SOL    HW122809   2.029   6.943   0.416 -0.7851 -3.1806 -1.5612
38523SOL    HW222810   2.177   6.918   0.399  0.3999  1.6172  0.0657
38524SOL     OW22811   8.077   6.376   1.814  0.1566  0.0370 -0.7746
38524SOL    HW122812   7.988   6.395   1.843  0.3212 -0.0247 -0.2169
38524SOL    HW222813   8.132   6.436   1.865  0.6203 -1.4041  0.4930
38525SOL     OW22814   9.008   0.140   0.604  0.3156  0.5061  0.2626
38525SOL    HW122815   8.918   0.170   0.595 -0.0978 -0.8797 -0.4293
38525SOL    HW222816   9.011   0.096   0.689 -0.0310 -0.6286 -0.2971
38526SOL     OW22817   5.589   1.772  10.965 -0.4149 -0.2798  0.2273
38526SOL    HW122818   5.641   1.714  11.021 -0.7175  0.2539  1.0710
38526SOL    HW222819   5.503   1.731  10.961 -0.8990  0.5688  1.5754
38527SOL     OW22820   7.491   7.292   3.446  0.2943 -0.1751 -0.1258
38527SOL    HW122821   7.504   7.198   3.436  0.5103 -0.3302  1.2844
38527SOL    HW222822   7.579   7.329   3.448  0.2534 -0.0912  0.4063
38528SOL     OW22823  10.000  10.702   8.322 -0.1697 -0.5509  0.4337
38528SOL    HW122824  10.028  10.622   8.278  2.9794  0.8620 -0.4072
38528SOL    HW222825  10.081  10.741   8.356 -1.8470  1.1189  2.9422
38529SOL     OW22826   9.104   6.350   9.005 -0.6133 -0.2019  0.4153
38529SOL    HW122827   9.049   6.406   9.059  0.1368  1.7930 -0.7593
38529SOL    HW222828   9.190   6.352   9.047 -0.9883 -1.9836  1.3484
38530SOL     OW22829  12.267   4.637   0.707 -0.2619 -0.0243 -0.6474
38530SOL    HW122830  12.172   4.638   0.709 -0.2566  0.2474 -0.4962
38530SOL    HW222831  12.291   4.572   0.774 -0.3531 -0.7755 -1.3261
38531SOL     OW22832   3.110  10.168   4.117  0.1112 -0.1073  0.1702
38531SOL    HW122833   3.163  10.115   4.177 -1.0212 -0.2465  1.1113
38531SOL    HW222834   3.112  10.120   4.034  0.3911 -0.7948  0.5624
38532SOL     OW22835   9.304   3.908  11.016 -0.3759 -0.3641 -0.0216
38532SOL    HW122836   9.322   3.857  11.095 -0.7820  1.1996  1.1194
38532SOL    HW222837   9.328   3.849  10.944  0.7806 -1.5344  1.2597
38533SOL     OW22838   0.481   1.062  10.596 -0.5128 -0.0820 -0.9324
38533SOL    HW122839   0.565   1.040  10.638 -0.5414  0.1747 -0.7381
38533SOL    HW222840   0.494   1.038  10.504 -0.3850 -0.4771 -0.8178
38534SOL     OW22841   0.045  10.163  12.228 -0.5895 -0.7118  0.0121
38534SOL    HW122842   0.129  10.133  12.195 -0.9087 -1.9006  0.2546
38534SOL    HW222843   0.003  10.204  12.152 -0.1796 -0.9497 -0.3490
38535SOL     OW22844  11.699   5.023   5.090 -0.0144  0.2784  0.9724
38535SOL    HW122845  11.689   5.011   5.184 -0.4856 -0.2565  0.8627
38535SOL    HW222846  11.656   5.107   5.071  1.6283  1.2797  1.4769
38536SOL     OW22847   7.539   9.487   1.965 -0.6156  0.7007  0.6250
38536SOL    HW122848   7.607   9.441   1.914  2.3556 -1.0015  5.4836
38536SOL    HW222849   7.467   9.424   1.970 -1.8990  1.6641 -2.7252
38537SOL     OW22850   7.473   1.966   4.619 -0.2912 -0.1317  0.0155
38537SOL    HW122851   7.438   1.884   4.585 -0.9223  0.4867 -0.8605
38537SOL    HW222852   7.555   1.979   4.571  0.8607 -1.2425  1.5927
38538SOL     OW22853   0.632   3.322  10.273  0.1212 -0.2141 -0.3894
38538SOL    HW122854   0.709   3.339  10.218 -1.3231  2.8521 -1.7241
38538SOL    HW222855   0.574   3.271  10.218 -0.3166  0.7542 -0.8508
38539SOL     OW22856   3.665   0.619   4.569 -0.1351 -0.3778  0.0010
38539SOL    HW122857   3.688   0.540   4.618  0.1004  0.8237  1.9157
38539SOL    HW222858   3.580   0.599   4.530 -0.6546 -1.1360  1.4719
38540SOL     OW22859   1.420   5.398   3.713 -0.1495 -0.2263 -0.3810
38540SOL    HW122860   1.367   5.393   3.794  0.1272  0.0806 -0.1794
38540SOL    HW222861   1.409   5.488   3.684  1.5377  0.3162  0.5347
38541SOL     OW22862   8.429   5.935   6.796 -0.1589 -0.4989 -0.2286
38541SOL    HW122863   8.397   5.991   6.725  0.2962  0.4464  0.2889
38541SOL    HW222864   8.354   5.880   6.818  0.3258 -2.3838 -2.8816
38542SOL     OW22865   1.061   7.353   4.578 -0.4338  0.1566 -0.3127
38542SOL    HW122866   1.144   7.315   4.606 -1.3368 -0.9265  1.0149
38542SOL    HW222867   1.074   7.373   4.485  0.8963 -1.1915 -0.4565
38543SOL     OW22868   3.749   9.563  11.523 -0.3825  0.2718 -0.5135
38543SOL    HW122869   3.744   9.470  11.543  0.7997  0.7389  2.4640
38543SOL    HW222870   3.827   9.572  11.468 -0.5959 -0.4857 -0.9497
38544SOL     OW22871   0.687   0.074   7.489 -0.0436 -0.1728  0.2526
38544SOL    HW122872   0.638   0.153   7.512  0.7549  0.6659 -0.8052
38544SOL    HW222873   0.629   0.025   7.431  0.1981  0.6160 -0.6721
38545SOL     OW22874   3.274   7.190   4.982 -0.0219 -0.3372  0.0273
38545SOL    HW122875   3.223   7.156   4.909  1.1025 -0.2306 -0.8341
38545SOL    HW222876   3.365   7.180   4.955  0.4553  3.5899 -0.4610
38546SOL     OW22877  11.262   3.922   4.250 -0.2374 -0.4857  0.2555
38546SOL    HW122878  11.272   3.989   4.317 -0.3179 -0.6773  0.4632
38546SOL    HW222879  11.168   3.922   4.231 -0.2138 -0.4314  0.1434
38547SOL     OW22880   5.015   2.551   8.750  0.0402 -0.1949  0.5452
38547SOL    HW122881   4.983   2.563   8.840  1.3293  0.7719  0.8933
38547SOL    HW222882   5.013   2.639   8.712  2.4113 -0.0208  0.6597
38548SOL     OW22883   0.946   8.824   4.774  0.1182 -0.2450 -0.2234
38548SOL    HW122884   0.972   8.906   4.733 -0.9122  0.5711  0.6981
38548SOL    HW222885   0.873   8.847   4.831  1.5284 -1.2456  2.1987
38549SOL     OW22886   2.448   7.423   9.804 -0.2208  0.6158  0.2043
38549SOL    HW122887   2.532   7.386   9.832 -0.2272 -0.0626 -0.6242
38549SOL    HW222888   2.383   7.363   9.841 -0.2570  0.1110 -0.6595
38550SOL     OW22889   3.543   4.767   1.946  0.4432 -0.5213 -0.3161
38550SOL    HW122890   3.566   4.823   1.872  2.3652  0.4093  0.9229
38550SOL    HW222891   3.609   4.698   1.945  1.4603  0.3788  1.4277
38551SOL     OW22892   2.624   7.486   2.306  0.1791 -0.0522 -0.4852
38551SOL    HW122893   2.719   7.491   2.296 -0.0358  1.5949 -2.4068
38551SOL    HW222894   2.607   7.395   2.333  2.2215 -0.6609 -1.1042
38552SOL     OW22895   2.173   1.492   9.079 -0.4379 -0.1956 -0.1327
38552SOL    HW122896   2.257   1.446   9.090 -0.2197  0.2933  0.2532
38552SOL    HW222897   2.190   1.555   9.009 -0.5029 -0.1404 -0.0980
38553SOL     OW22898   8.359   4.087   7.556 -0.3911  0.3279  0.8953
38553SOL    HW122899   8.426   4.061   7.620 -0.6413  1.1233  1.4936
38553SOL    HW222900   8.329   4.173   7.586  1.6476  2.2389 -1.9370
38554SOL     OW22901   7.647   6.987   0.128 -0.2292  0.0844 -0.1872
38554SOL    HW122902   7.589   6.955   0.059 -0.7996  0.4951  0.0871
38554SOL    HW222903   7.696   6.910   0.156 -0.1966 -0.1392 -0.8572
38555SOL     OW22904   9.563   2.146  11.805  0.2235 -0.2180 -0.2001
38555SOL    HW122905   9.580   2.229  11.759  0.5097 -0.6502 -0.8862
38555SOL    HW222906   9.468   2.136  11.802 -0.1110  1.4058  2.2390
38556SOL     OW22907   1.491   3.143   8.953  0.1872  0.6391 -0.0889
38556SOL    HW122908   1.507   3.132   8.859 -0.0976  0.3726 -0.1094
38556SOL    HW222909   1.396   3.150   8.960  0.1193 -0.4011  0.2734
38557SOL     OW22910   5.671   0.924   5.425  0.1900 -0.1619 -0.5741
38557SOL    HW122911   5.722   0.931   5.344  2.6991 -1.2993  0.7795
38557SOL    HW222912   5.649   0.832   5.432 -1.4232  0.1921 -0.7177
38558SOL     OW22913   6.400   9.194   6.281  0.3193 -0.5275 -0.0653
38558SOL    HW122914   6.495   9.198   6.275  0.3118  0.0180  0.0903
38558SOL    HW222915   6.375   9.275   6.327 -0.3193  0.1630 -1.5438
38559SOL     OW22916  12.185   7.154   0.029 -0.0371 -0.1805 -0.0682
38559SOL    HW122917  12.135   7.084  -0.014  1.3173 -1.1310 -0.1498
38559SOL    HW222918  12.120   7.199   0.083 -1.3793 -0.1742 -1.5890
38560SOL     OW22919  10.167   4.525   4.649  0.6954 -0.0128  0.0901
38560SOL    HW122920  10.168   4.620   4.662  0.9693 -0.0095  0.0601
38560SOL    HW222921  10.090   4.508   4.596  0.7834  0.2216 -0.1135
38561SOL     OW22922   4.162   7.149   2.800  0.5580  0.4496  0.0096
38561SOL    HW122923   4.223   7.204   2.751 -1.2026  0.7615 -1.9347
38561SOL    HW222924   4.192   7.060   2.784 -0.2243  0.5091 -2.1134
38562SOL     OW22925  10.784   6.991   7.999 -0.0731 -0.2214 -0.6010
38562SOL    HW122926  10.850   7.039   8.049 -0.1368  0.3535 -1.0568
38562SOL    HW222927  10.725   6.956   8.066  1.8337 -2.5892 -0.0151
38563SOL     OW22928   9.890   7.849   5.992 -0.2286 -0.2529 -0.0232
38563SOL    HW122929   9.952   7.778   6.008 -0.0115 -0.0779 -0.0841
38563SOL    HW222930   9.895   7.904   6.070  2.0808  1.5305 -1.3227
38564SOL     OW22931   4.560   3.497   6.359 -0.2377  0.0641  0.7592
38564SOL    HW122932   4.584   3.405   6.360 -2.2673 -0.5653 -1.2992
38564SOL    HW222933   4.554   3.520   6.267 -0.8218  1.9899  1.2167
38565SOL     OW22934   1.913   9.660  11.490  0.3980 -0.5668 -0.5471
38565SOL    HW122935   1.970   9.617  11.426 -0.1691 -1.8658 -0.2186
38565SOL    HW222936   1.909   9.598  11.563  0.2070  0.4291  0.3071
38566SOL     OW22937   6.324   0.884  12.107 -0.1287 -0.0247  0.3743
38566SOL    HW122938   6.407   0.838  12.103 -0.4074 -0.8149  2.4214
38566SOL    HW222939   6.346   0.972  12.136  0.0685  0.0277  0.0641
38567SOL     OW22940   5.985   8.822   6.961  0.1786 -0.5704 -0.3675
38567SOL    HW122941   5.968   8.728   6.972  0.6361 -0.6729 -0.5102
38567SOL    HW222942   5.898   8.862   6.958 -0.0488 -0.6555  2.5439
38568SOL     OW22943   8.831   8.129   0.339  0.0874  0.0049 -0.0012
38568SOL    HW122944   8.861   8.038   0.345 -1.6975 -0.6551 -0.5633
38568SOL    HW222945   8.848   8.166   0.425  0.6774 -0.9076  0.2870
38569SOL     OW22946   0.693   9.339   9.582  0.3344 -0.7152  0.5008
38569SOL    HW122947   0.685   9.392   9.503 -0.8444  1.2794  1.8599
38569SOL    HW222948   0.765   9.278   9.564  1.2916  0.8919 -1.4215
38570SOL     OW22949   4.812   8.609  10.011 -0.1924 -0.0175  0.2330
38570SOL    HW122950   4.726   8.616   9.970  0.2278 -1.4864 -0.9478
38570SOL    HW222951   4.846   8.524   9.983  2.8434  1.6477 -1.7329
38571SOL     OW22952   8.506   5.274   1.843  0.2481  0.4433 -0.6179
38571SOL    HW122953   8.524   5.204   1.781 -0.8343  0.4649 -0.9745
38571SOL    HW222954   8.483   5.349   1.788 -0.0185  0.6625 -0.2122
38572SOL     OW22955   7.972   7.558  10.847 -0.1579 -0.5864  0.3917
38572SOL    HW122956   7.942   7.534  10.934  3.8383 -1.3523  1.7286
38572SOL    HW222957   8.027   7.635  10.861  0.2513 -0.4872 -1.5186
38573SOL     OW22958  11.054   1.718   5.046 -0.0212  0.5521  0.2723
38573SOL    HW122959  11.004   1.656   4.993  1.6089  1.0978 -2.0650
38573SOL    HW222960  11.050   1.800   4.997  1.9450  0.9661  0.7146
38574SOL     OW22961   1.749  10.651  10.153 -0.3558 -0.2096 -0.3100
38574SOL    HW122962   1.746  10.746  10.154 -3.2020 -0.1993 -1.3389
38574SOL    HW222963   1.667  10.623  10.193 -0.9477 -2.1376 -2.6266
38575SOL     OW22964  10.639   9.041   7.791 -0.0507  0.2247  0.1102
38575SOL    HW122965  10.601   9.090   7.864  1.8134  1.1894  0.5045
38575SOL    HW222966  10.666   8.958   7.829  1.5839  1.0054  0.7686
38576SOL     OW22967   4.427   5.142  10.350 -0.3182  0.4760 -0.5441
38576SOL    HW122968   4.340   5.180  10.338 -0.1948  1.1028  0.4199
38576SOL    HW222969   4.444   5.095  10.269 -0.9772  1.5190 -1.3153
38577SOL     OW22970  12.210   0.690   0.367  0.4763 -0.3474 -0.1914
38577SOL    HW122971  12.223   0.784   0.374  0.1136 -0.1438 -1.8729
38577SOL    HW222972  12.260   0.664   0.289  0.9247 -1.6229  0.4868
38578SOL     OW22973   6.458   4.098  10.127 -0.9995  0.1807 -0.4244
38578SOL    HW122974   6.397   4.146  10.184 -1.4818  0.2815 -1.0195
38578SOL    HW222975   6.443   4.006  10.150 -1.9664  0.1478 -1.1291
38579SOL     OW22976   8.378   8.828   0.579  0.1658 -0.1238  0.2527
38579SOL    HW122977   8.318   8.808   0.651 -1.6655 -0.5949 -1.3330
38579SOL    HW222978   8.358   8.763   0.512  0.9620  1.0229 -1.1610
38580SOL     OW22979   9.910  11.052   3.475 -0.4367 -0.5888 -0.0812
38580SOL    HW122980   9.888  10.983   3.412 -2.0694 -0.4901  0.3241
38580SOL    HW222981   9.967  11.111   3.427 -0.4126 -1.3161 -0.9826
38581SOL     OW22982   7.445   8.149   4.780  0.0751 -0.9203 -0.3434
38581SOL    HW122983   7.432   8.224   4.838  0.8491  0.5073 -1.9280
38581SOL    HW222984   7.383   8.083   4.812  0.0586  0.0020  1.6941
38582SOL     OW22985   1.843   0.036   8.413  0.2533  0.2284 -0.1347
38582SOL    HW122986   1.869   0.058   8.324  0.1221  0.5267 -0.1005
38582SOL    HW222987   1.911   0.076   8.468 -0.0791  0.7101 -0.0635
38583SOL     OW22988   7.078   7.553  10.780  0.3265  0.0125 -0.5392
38583SOL    HW122989   7.148   7.619  10.780  1.7616 -1.4408  0.1838
38583SOL    HW222990   7.088   7.508  10.864 -0.3686 -1.3725 -1.1654
38584SOL     OW22991   1.011   2.661   4.458 -0.0751  0.6658  0.2712
38584SOL    HW122992   0.935   2.618   4.418 -0.6583  1.2054  0.7881
38584SOL    HW222993   1.079   2.654   4.391 -0.5060 -0.0256 -0.1126
38585SOL     OW22994   1.343   7.846   7.745  0.0910 -0.0412  0.5539
38585SOL    HW122995   1.370   7.764   7.787 -0.3395 -0.4467  0.0542
38585SOL    HW222996   1.384   7.843   7.659  0.8614  0.7229  0.8849
38586SOL     OW22997   8.685   3.762   4.066 -0.0737 -0.3177 -0.0670
38586SOL    HW122998   8.767   3.735   4.026  0.1861  1.0020 -0.4695
38586SOL    HW222999   8.698   3.749   4.160  0.8465  0.4708 -0.0682
38587SOL     OW23000   8.839  12.079  12.476  0.7217 -0.1534  0.2615
38587SOL    HW123001   8.852  12.146  12.409 -0.4608  1.4885  1.6049
38587SOL    HW223002   8.841  12.126  12.559  1.0284 -1.9734  1.3463
38588SOL     OW23003  10.544   4.274  10.382 -0.9237 -0.2919 -0.1375
38588SOL    HW123004  10.560   4.209  10.314 -0.6479  0.4109 -0.7468
38588SOL    HW223005  10.457   4.308  10.364 -0.2569  0.9971 -1.0834
38589SOL     OW23006   5.296   6.397   6.414 -0.1964  0.1564 -0.0162
38589SOL    HW123007   5.379   6.369   6.452 -0.8215 -1.7754  0.0281
38589SOL    HW223008   5.318   6.420   6.324  0.5200  0.4328  0.2218
38590SOL     OW23009   4.204   9.640  10.894 -0.4547  0.2263  0.4218
38590SOL    HW123010   4.132   9.578  10.909 -1.1450  0.8811 -0.1303
38590SOL    HW223011   4.175   9.693  10.820  0.1085  1.2370  0.9072
38591SOL     OW23012   3.891   0.571  12.411  0.7573 -0.5488 -0.0085
38591SOL    HW123013   3.836   0.502  12.449 -0.0371  0.6672  1.1637
38591SOL    HW223014   3.914   0.626  12.486 -0.6202  1.7786 -1.1776
38592SOL     OW23015   5.832   4.142   4.564  0.5275  0.3643 -0.6038
38592SOL    HW123016   5.794   4.095   4.490  0.6791  1.8819 -1.6985
38592SOL    HW223017   5.873   4.219   4.524  1.3579  0.7749  0.9807
38593SOL     OW23018   8.082  12.296   2.107  0.4302  0.3822 -0.2942
38593SOL    HW123019   8.022  12.331   2.173  0.0265 -0.9354  0.0654
38593SOL    HW223020   8.052  12.334   2.024 -0.2000  0.6161  0.0364
38594SOL     OW23021  10.775   2.210   1.369  0.2289 -0.2864  0.4211
38594SOL    HW123022  10.850   2.268   1.388  0.9875 -1.0022 -0.2781
38594SOL    HW223023  10.805   2.157   1.295  0.0343 -2.4745  1.8432
38595SOL     OW23024   9.624  11.699   1.548  0.2087  0.2412  0.4719
38595SOL    HW123025   9.545  11.659   1.511  0.5424  0.0634 -0.0654
38595SOL    HW223026   9.681  11.712   1.472  0.2929  1.3146  0.7016
38596SOL     OW23027   6.790   4.874   0.614  0.3086  0.2623 -0.2478
38596SOL    HW123028   6.755   4.922   0.539 -0.1110 -0.2670 -0.4001
38596SOL    HW223029   6.780   4.782   0.590  3.8206 -0.0066 -1.2545
38597SOL     OW23030   1.182   8.380   8.486 -0.2000  0.0099  0.4132
38597SOL    HW123031   1.172   8.398   8.579 -1.1064  1.7409  0.0271
38597SOL    HW223032   1.160   8.463   8.443  2.5485  0.0075 -1.2538
38598SOL     OW23033   4.652   9.459  12.078 -0.5392  0.2533  0.2559
38598SOL    HW123034   4.638   9.490  11.988 -0.6557  1.1071  0.5609
38598SOL    HW223035   4.565   9.432  12.108 -0.3290 -1.0342 -0.2400
38599SOL     OW23036   0.872   1.470  10.339  0.1488  0.7648 -0.1860
38599SOL    HW123037   0.914   1.399  10.387 -0.7328  0.9929  0.9520
38599SOL    HW223038   0.852   1.432  10.253  0.5821 -0.0427  0.0622
38600SOL     OW23039   3.602  11.113   8.715  0.6963  0.2891  0.0353
38600SOL    HW123040   3.640  11.074   8.794  1.4815 -0.2135 -0.5754
38600SOL    HW223041   3.581  11.038   8.659  0.4352  0.6535 -0.3624
38601SOL     OW23042   8.084   5.151   3.640  0.1827 -0.0877 -0.4658
38601SOL    HW123043   8.017   5.125   3.703  0.6540 -0.3042 -0.0513
38601SOL    HW223044   8.069   5.094   3.565  1.2121 -1.6002  0.4334
38602SOL     OW23045  12.587  10.863   2.828 -0.3936 -0.0161  0.2005
38602SOL    HW123046  12.518  10.924   2.801  0.1382  0.9724  1.0105
38602SOL    HW223047  12.545  10.808   2.895 -1.4900 -1.9806 -1.9302
38603SOL     OW23048  10.486   2.673   1.759  0.2910  0.0153  0.7093
38603SOL    HW123049  10.435   2.657   1.838  0.5107 -0.9717  0.6617
38603SOL    HW223050  10.570   2.631   1.775 -0.5204 -2.4983 -1.0291
38604SOL     OW23051   3.107   5.686   3.133  0.4837  0.0411 -0.1956
38604SOL    HW123052   3.157   5.754   3.178  2.3497 -0.3089 -1.5926
38604SOL    HW223053   3.159   5.606   3.146  0.2074 -0.3809 -1.5294
38605SOL     OW23054  11.305   6.293   9.901  0.0349  0.2996 -0.0818
38605SOL    HW123055  11.382   6.278   9.846 -0.7152  1.2364 -1.4634
38605SOL    HW223056  11.294   6.212   9.951  0.7558 -0.6075 -1.3432
38606SOL     OW23057   1.218   5.170  11.320  0.8416  0.2706  0.4758
38606SOL    HW123058   1.135   5.130  11.292 -1.0402  3.1719  1.4958
38606SOL    HW223059   1.254   5.208  11.240  0.0302  0.9151  0.4107
38607SOL     OW23060   4.499   9.620   4.994  0.4458 -0.0072  0.1249
38607SOL    HW123061   4.504   9.716   4.987 -1.7769  0.2079  0.4327
38607SOL    HW223062   4.487   9.590   4.904 -1.3056  0.2777  0.2215
38608SOL     OW23063   8.965  10.468   7.796  0.6064 -0.1828  0.5050
38608SOL    HW123064   8.899  10.495   7.860 -1.5172 -0.6265 -1.3861
38608SOL    HW223065   8.973  10.373   7.809 -0.5874 -0.4470 -0.4905
38609SOL     OW23066   9.393  11.017  12.120  0.1116 -0.3135  0.4823
38609SOL    HW123067   9.375  11.106  12.149  1.4161  0.2164 -0.2092
38609SOL    HW223068   9.318  10.993  12.066  0.0329  0.6235  0.1564
38610SOL     OW23069   9.218   8.300   7.449 -0.8083  0.2771  0.0156
38610SOL    HW123070   9.306   8.333   7.429 -1.5677  1.9946 -0.7107
38610SOL    HW223071   9.192   8.349   7.527 -2.2921  2.1867 -1.5732
38611SOL     OW23072  11.915   4.646  10.893 -0.1455 -0.1084  0.0692
38611SOL    HW123073  11.908   4.572  10.954  0.5054 -1.5267 -1.5117
38611SOL    HW223074  11.855   4.624  10.822 -1.3848  1.8448  0.4424
38612SOL     OW23075  10.330  10.486  11.308  0.2529  0.0905 -0.1891
38612SOL    HW123076  10.378  10.567  11.290  0.1380  0.3005  0.4364
38612SOL    HW223077  10.391  10.432  11.358  0.2751 -0.1574 -0.4757
38613SOL     OW23078   3.920  12.013   8.617 -0.2960  0.4649 -0.0521
38613SOL    HW123079   3.830  11.983   8.603 -0.3092  0.2607  0.4337
38613SOL    HW223080   3.946  12.052   8.534  0.1557 -2.0110 -1.1429
38614SOL     OW23081   1.005   3.724   1.976  0.5156  0.2413  0.1488
38614SOL    HW123082   1.047   3.665   2.038 -0.3083 -0.4854  0.0307
38614SOL    HW223083   1.075   3.783   1.948  0.9438  0.4764  1.6194
38615SOL     OW23084  11.976  10.438  11.611 -0.0047 -0.2433 -0.5363
38615SOL    HW123085  12.053  10.414  11.560  0.1213  1.0149 -0.9603
38615SOL    HW223086  12.007  10.504  11.673 -0.4745 -0.6642  0.1662
38616SOL     OW23087   5.746   9.062   0.566  0.2081 -0.2772  0.0812
38616SOL    HW123088   5.746   9.055   0.662  0.9220 -1.4787  0.0161
38616SOL    HW223089   5.721   9.153   0.548 -1.6687 -0.4926  1.3613
38617SOL     OW23090   3.390  10.031   1.585 -0.3687 -0.0460 -0.4099
38617SOL    HW123091   3.462  10.088   1.557 -0.5994  0.8324  0.7217
38617SOL    HW223092   3.322  10.044   1.518 -0.5639  1.3196  0.0249
38618SOL     OW23093   5.398   0.272   0.836  0.3568 -0.5326 -0.3439
38618SOL    HW123094   5.493   0.270   0.825  0.4419 -1.2338  0.4215
38618SOL    HW223095   5.385   0.279   0.931 -0.3578 -0.2088 -0.4556
38619SOL     OW23096   2.278  10.393   2.509  0.0476 -0.1000  0.5783
38619SOL    HW123097   2.336  10.362   2.580 -0.0817  0.3538  0.8841
38619SOL    HW223098   2.249  10.479   2.538 -0.7868 -0.3263  0.4255
38620SOL     OW23099   2.192   1.768  11.017  0.2713  0.0234 -0.2009
38620SOL    HW123100   2.279   1.790  11.049  0.6997  0.0670 -1.3643
38620SOL    HW223101   2.143   1.742  11.096  1.3532 -0.0963  0.4454
38621SOL     OW23102   0.040  10.451   8.657  0.2642 -0.2211  0.0824
38621SOL    HW123103  -0.038  10.489   8.697  0.6098  0.6429 -0.0292
38621SOL    HW223104   0.105  10.521   8.661  1.3887 -1.2858  1.1906
38622SOL     OW23105   2.524  11.010   6.238 -0.0262 -0.0543  0.4249
38622SOL    HW123106   2.529  11.059   6.320  0.6284  1.2669 -0.3585
38622SOL    HW223107   2.471  11.065   6.180  1.0954 -0.0160 -0.6209
38623SOL     OW23108   9.228  11.155   0.073  0.3367 -0.1241 -0.2159
38623SOL    HW123109   9.142  11.173   0.111 -0.7052 -0.2468 -2.3522
38623SOL    HW223110   9.271  11.097   0.136 -1.4058 -0.5892  0.6036
38624SOL     OW23111   5.040   0.252   7.344 -0.0745  0.2564 -0.0832
38624SOL    HW123112   4.969   0.194   7.372  0.1514  0.6742  1.4598
38624SOL    HW223113   5.103   0.250   7.416  0.3438  1.7419 -0.3562
38625SOL     OW23114   3.635  10.621   9.279  0.2433  0.0022  0.0512
38625SOL    HW123115   3.726  10.645   9.261  0.4222  0.8996  1.8493
38625SOL    HW223116   3.605  10.578   9.200  2.3890 -0.7445 -0.4237
38626SOL     OW23117   8.757   6.540   7.629  0.0030 -0.4768 -0.1237
38626SOL    HW123118   8.701   6.489   7.688 -1.1962 -1.2693 -1.8729
38626SOL    HW223119   8.845   6.505   7.643 -0.4221 -1.3431  0.4705
38627SOL     OW23120   4.925   5.632  12.055 -0.0608  0.0527  0.3649
38627SOL    HW123121   4.888   5.596  12.136 -0.8961  0.8133  0.3369
38627SOL    HW223122   4.998   5.686  12.083  0.0762 -0.2248  0.5481
38628SOL     OW23123   1.439   0.484   1.984  0.8410  0.5750  0.6264
38628SOL    HW123124   1.487   0.565   1.966  1.1291  0.8239  2.2908
38628SOL    HW223125   1.366   0.512   2.040 -0.3433 -0.0277 -0.5715
38629SOL     OW23126   4.748   7.844   4.014 -0.7653 -0.0411  0.0724
38629SOL    HW123127   4.724   7.787   4.087 -0.8198 -0.5506 -0.3466
38629SOL    HW223128   4.665   7.864   3.971 -0.6141 -0.6237 -0.5015
38630SOL     OW23129  10.844   3.667   3.793 -0.3936  0.5625  0.4918
38630SOL    HW123130  10.819   3.712   3.712 -1.5344 -0.6242  0.1469
38630SOL    HW223131  10.764   3.663   3.844 -0.5959 -1.7757  0.1399
38631SOL     OW23132   4.191  12.555   0.694  0.2008  0.7065 -0.4969
38631SOL    HW123133   4.100  12.554   0.664  0.2804 -0.4059 -0.7321
38631SOL    HW223134   4.230  12.630   0.648 -0.7834  1.6969  0.2327
38632SOL     OW23135  11.978   3.909   7.367  0.2817  0.0933  0.1762
38632SOL    HW123136  11.885   3.925   7.385  0.0376 -0.3103 -0.6529
38632SOL    HW223137  12.023   3.985   7.404 -0.5939  1.3881 -1.2847
38633SOL     OW23138   6.281   6.639   6.278  0.2300  0.1623 -0.1874
38633SOL    HW123139   6.200   6.654   6.229 -0.2436 -2.0652 -0.2170
38633SOL    HW223140   6.251   6.610   6.365  1.0411  1.1845  0.4565
38634SOL     OW23141   2.070   0.717  12.406 -0.5411  0.1995 -0.4502
38634SOL    HW123142   2.153   0.762  12.394 -0.0347 -0.5492  0.1656
38634SOL    HW223143   2.003   0.785  12.395  0.0616  0.5161 -2.6012
38635SOL     OW23144  11.305  11.981   3.948 -0.4760  0.7418  0.0494
38635SOL    HW123145  11.318  11.941   3.862  0.1527 -1.7522  1.2195
38635SOL    HW223146  11.211  11.974   3.964 -0.6909  1.7813 -0.6506
38636SOL     OW23147   4.910  10.442   3.181  0.4640 -0.2372 -0.8033
38636SOL    HW123148   4.919  10.373   3.247  0.0106  1.1175  0.7368
38636SOL    HW223149   4.931  10.398   3.098  0.6038 -2.1080  0.1576
38637SOL     OW23150   0.039  11.823   2.410 -0.0239 -0.2217  0.6961
38637SOL    HW123151   0.112  11.868   2.366  1.0381 -1.8708  0.6718
38637SOL    HW223152   0.039  11.858   2.499  1.0929 -0.4992  0.8201
38638SOL     OW23153   4.056   1.121  11.429 -0.2016 -0.4247 -0.1821
38638SOL    HW123154   4.024   1.057  11.492  0.8080  0.5259  1.3618
38638SOL    HW223155   4.135   1.082  11.391 -0.9027 -1.0669 -1.0040
38639SOL     OW23156  12.422   6.022   2.557  0.0475 -0.0646 -0.4362
38639SOL    HW123157  12.337   6.067   2.560 -0.5825 -1.2705  1.2624
38639SOL    HW223158  12.403   5.933   2.587  2.0565 -0.1302  0.7643
38640SOL     OW23159   4.989   5.558   0.813  0.1984 -0.1576 -0.3821
38640SOL    HW123160   4.928   5.533   0.882  0.8633  1.8765  1.0319
38640SOL    HW223161   5.048   5.483   0.804 -0.5504 -0.8696  0.4826
38641SOL     OW23162   9.104  11.701   6.895 -0.9897  0.1745 -0.3955
38641SOL    HW123163   9.145  11.737   6.817 -0.9670 -0.0007 -0.4650
38641SOL    HW223164   9.089  11.609   6.874 -0.1043 -0.1068  0.1656
38642SOL     OW23165  12.539   7.594   9.496 -0.4397 -0.4654  0.8667
38642SOL    HW123166  12.486   7.646   9.436  0.8322  0.7731  0.7657
38642SOL    HW223167  12.480   7.525   9.527 -1.9242  0.5177  0.3224
38643SOL     OW23168   9.269   7.412   3.367  0.2807 -0.3307  0.0716
38643SOL    HW123169   9.235   7.433   3.454 -0.0627 -2.2511  0.4540
38643SOL    HW223170   9.199   7.437   3.307  0.2239  0.3351  0.4122
38644SOL     OW23171   0.744   4.181   9.224 -0.4257 -0.0351 -0.5010
38644SOL    HW123172   0.772   4.098   9.262 -2.3547  0.1088  1.4162
38644SOL    HW223173   0.657   4.163   9.188  0.1752  0.5766 -2.3586
38645SOL     OW23174   8.921   6.774   6.961 -0.2185 -0.2024  0.2520
38645SOL    HW123175   9.009   6.768   6.922  0.1483 -0.1455  1.0623
38645SOL    HW223176   8.923   6.715   7.036 -0.7124  0.1748  0.5724
38646SOL     OW23177   4.868   0.829   7.687 -0.4137 -0.4827 -0.2562
38646SOL    HW123178   4.823   0.897   7.737 -1.4691 -2.0763  1.0418
38646SOL    HW223179   4.914   0.776   7.753 -1.6153 -2.4714 -0.9298
38647SOL     OW23180   9.667   0.110   4.197 -0.0583  0.5702  0.3327
38647SOL    HW123181   9.726   0.184   4.211 -0.6834  1.6006 -1.9679
38647SOL    HW223182   9.596   0.124   4.259  0.7229  0.8815  1.1689
38648SOL     OW23183   2.235   0.454   8.908  0.4563 -0.5922  0.1999
38648SOL    HW123184   2.313   0.418   8.865  2.0109  2.8424 -0.1545
38648SOL    HW223185   2.250   0.439   9.002  0.0796 -2.4974 -0.0066
38649SOL     OW23186   1.126  11.899   4.508  0.1271  0.4560  0.1371
38649SOL    HW123187   1.104  11.806   4.497  0.7329  0.2445  0.6450
38649SOL    HW223188   1.057  11.946   4.462 -0.1784 -0.2510 -0.1357
38650SOL     OW23189  11.918   4.878   5.018 -0.5818 -0.2417  0.0525
38650SOL    HW123190  11.878   4.963   5.037 -0.1475 -0.1067  0.3832
38650SOL    HW223191  11.892   4.823   5.092 -1.0762 -0.4752 -0.2896
38651SOL     OW23192   1.058   8.449   3.722 -0.7035 -0.0252  0.0205
38651SOL    HW123193   1.103   8.365   3.714 -0.1000  0.1629  1.1574
38651SOL    HW223194   1.031   8.453   3.814  0.9388  1.8201  0.4812
38652SOL     OW23195   3.026   6.377   4.285 -0.7515  0.4604  0.1801
38652SOL    HW123196   3.087   6.306   4.265  3.6169  2.3379  4.7143
38652SOL    HW223197   3.063   6.454   4.242 -0.7296  1.3612  1.7295
38653SOL     OW23198   7.893   4.931   1.842  0.3394  0.4247  0.0028
38653SOL    HW123199   7.936   4.994   1.784 -0.1754  0.8297  0.0497
38653SOL    HW223200   7.856   4.865   1.783  1.0311  0.0603 -0.0358
38654SOL     OW23201   6.360   8.626   0.934 -0.3729  0.1754  0.4517
38654SOL    HW123202   6.399   8.685   0.999 -0.9954 -1.0764  2.0331
38654SOL    HW223203   6.416   8.635   0.857  1.3416  0.5758  1.6807
38655SOL     OW23204  12.014  10.082   3.154  0.2037 -0.1829 -0.3192
38655SOL    HW123205  11.962  10.003   3.165 -0.7070  0.2905 -1.0370
38655SOL    HW223206  12.105  10.053   3.163 -0.0772 -1.4184 -1.1981
38656SOL     OW23207   7.048   3.260   9.353  0.4176  0.2678 -0.5817
38656SOL    HW123208   7.071   3.168   9.343  1.1545  0.0284  2.3821
38656SOL    HW223209   6.954   3.260   9.369  0.6874 -0.2296  1.2416
38657SOL     OW23210   3.076   1.512   3.998 -0.2691 -0.6548  0.4750
38657SOL    HW123211   3.143   1.514   3.931 -0.2711 -0.7724  0.4693
38657SOL    HW223212   3.023   1.435   3.978  1.9458 -2.9745  2.7510
38658SOL     OW23213  10.472   2.047  12.559  0.0640  0.1327 -0.5050
38658SOL    HW123214  10.501   2.126  12.513 -0.8081  0.8857  0.2044
38658SOL    HW223215  10.514   2.054  12.645 -0.1463 -0.0963 -0.3858
38659SOL     OW23216   8.557   3.660  11.988  0.5224 -0.0583 -0.4298
38659SOL    HW123217   8.606   3.643  11.908  1.6581  0.4019  0.1578
38659SOL    HW223218   8.580   3.749  12.013  0.0026 -0.1109  0.2915
38660SOL     OW23219   2.030   1.789   5.010  0.1570 -0.2176 -0.4776
38660SOL    HW123220   1.949   1.744   4.985 -0.3746  0.1599  0.4846
38660SOL    HW223221   2.086   1.781   4.933 -0.7253 -0.6470 -1.1074
38661SOL     OW23222   6.876   8.741   3.862 -0.3072  0.1067  0.1060
38661SOL    HW123223   6.898   8.824   3.904 -0.9549  0.2852  0.1030
38661SOL    HW223224   6.791   8.757   3.820 -0.5792 -0.6385  0.3514
38662SOL     OW23225   7.131   8.727   6.385  0.1001 -0.1795  0.0350
38662SOL    HW123226   7.196   8.752   6.319 -0.1517  0.5414  0.0479
38662SOL    HW223227   7.159   8.774   6.464 -1.2958  1.4036 -0.3596
38663SOL     OW23228   6.437  11.615   6.677 -0.1449 -0.0255  0.3159
38663SOL    HW123229   6.349  11.651   6.663 -0.0138  0.2027  0.0694
38663SOL    HW223230   6.493  11.665   6.618  0.1243 -0.2869  0.3476
38664SOL     OW23231   5.633  11.892   0.515  0.1893 -0.6510  0.0552
38664SOL    HW123232   5.644  11.801   0.544 -1.4460 -0.4164  1.5391
38664SOL    HW223233   5.617  11.941   0.596 -2.1656  0.4286 -0.9803
38665SOL     OW23234   3.057  10.722   8.293  0.0280 -0.3870 -0.0512
38665SOL    HW123235   3.112  10.700   8.368  1.6802  2.1462 -0.4192
38665SOL    HW223236   3.013  10.802   8.318  1.5426  1.2088 -2.1379
38666SOL     OW23237   7.119   9.298   5.550 -0.0175  0.3221 -0.3838
38666SOL    HW123238   7.059   9.368   5.575  0.0835 -0.2861  1.7692
38666SOL    HW223239   7.077   9.256   5.475  0.1883  2.9707 -2.0956
38667SOL     OW23240  11.473  10.042   8.109 -0.3616  0.7538 -0.2342
38667SOL    HW123241  11.406   9.993   8.062 -0.3000 -1.1282  1.4713
38667SOL    HW223242  11.446  10.038   8.201  0.5509  2.5398  0.1514
38668SOL     OW23243   7.238   5.200   1.796 -0.7269 -0.5085  0.4897
38668SOL    HW123244   7.171   5.267   1.809  0.6464  1.0660 -0.1660
38668SOL    HW223245   7.199   5.137   1.735 -2.2803 -0.6970  1.6243
38669SOL     OW23246   0.531   4.820   2.708  0.4898  0.0165 -0.5412
38669SOL    HW123247   0.496   4.738   2.744 -1.6012  0.9492 -0.2680
38669SOL    HW223248   0.533   4.806   2.614  1.6317 -0.8717 -0.3963
38670SOL     OW23249   9.849   8.499  10.135 -0.5890  0.1821 -0.2340
38670SOL    HW123250   9.811   8.569  10.189 -0.0491  0.0194  0.3622
38670SOL    HW223251   9.938   8.488  10.168 -0.2472  0.0738 -1.1633
38671SOL     OW23252   9.472   1.814   5.100  0.0161  0.0534  0.1287
38671SOL    HW123253   9.402   1.805   5.035  0.6676  1.9544 -0.8911
38671SOL    HW223254   9.435   1.776   5.180 -1.5265 -0.5522 -0.8363
38672SOL     OW23255   3.696   4.081   5.387  0.3095 -0.2447  0.1240
38672SOL    HW123256   3.701   4.103   5.480  0.6798 -1.8171  0.5093
38672SOL    HW223257   3.603   4.065   5.371  0.1783  0.5168  0.0872
38673SOL     OW23258   3.587   0.468   8.947  0.4099  0.0781  0.4899
38673SOL    HW123259   3.493   0.455   8.936  0.6454 -0.4228 -1.2430
38673SOL    HW223260   3.607   0.429   9.032 -0.7344 -1.0362  0.2740
38674SOL     OW23261   7.916   2.210   9.356 -0.1718 -0.5485 -0.0994
38674SOL    HW123262   7.957   2.158   9.287 -3.1981 -0.1721 -2.3767
38674SOL    HW223263   7.874   2.146   9.413  0.1957 -0.7706 -0.0764
38675SOL     OW23264   1.713   5.420   4.315 -0.0568  0.3136 -0.0368
38675SOL    HW123265   1.705   5.430   4.220  2.0520 -3.0103 -0.7562
38675SOL    HW223266   1.651   5.350   4.337  1.0698 -0.5277  0.5712
38676SOL     OW23267   0.031   5.145   1.562  0.2946 -0.0847 -0.1220
38676SOL    HW123268   0.084   5.161   1.484  0.8177 -0.4966  0.1447
38676SOL    HW223269   0.074   5.196   1.631 -1.4791  2.1725 -0.5715
38677SOL     OW23270   8.442   4.338   1.451 -0.2199 -0.1047 -0.4086
38677SOL    HW123271   8.457   4.259   1.503 -0.2031 -1.1656 -1.9662
38677SOL    HW223272   8.412   4.403   1.514 -0.1225 -1.3189  0.9305
38678SOL     OW23273   7.799   9.114   6.057  0.1388  0.2530  0.0941
38678SOL    HW123274   7.756   9.029   6.054 -0.0975  0.3904 -0.4804
38678SOL    HW223275   7.808   9.140   5.965  1.1515  0.3723  0.2145
38679SOL     OW23276   6.902   4.674   4.292  0.4898 -0.1323  0.2299
38679SOL    HW123277   6.954   4.667   4.212  2.4726  1.3290  1.3132
38679SOL    HW223278   6.954   4.628   4.359 -0.3304  0.0865  1.0403
38680SOL     OW23279   1.973  11.622   4.316 -0.2129  0.4538 -0.2035
38680SOL    HW123280   1.936  11.576   4.241 -0.4668  1.9916 -1.0717
38680SOL    HW223281   2.067  11.628   4.297 -0.3368  1.2020 -0.6241
38681SOL     OW23282  11.397   4.041   0.653 -0.1301  0.1870 -0.3982
38681SOL    HW123283  11.411   3.975   0.721  0.3049 -0.0812 -0.7464
38681SOL    HW223284  11.355   3.994   0.581 -0.3317  0.4097 -0.4285
38682SOL     OW23285   3.103  12.354   7.905  0.4114  0.4687 -0.3709
38682SOL    HW123286   3.129  12.282   7.847  1.8486  1.2480 -0.7385
38682SOL    HW223287   3.165  12.351   7.978  1.9210  2.5952 -1.4506
38683SOL     OW23288  11.414   9.384   9.550  0.1100  0.5180  0.3982
38683SOL    HW123289  11.507   9.397   9.568  0.4210  3.4230 -2.5449
38683SOL    HW223290  11.370   9.454   9.598 -0.4618 -0.0163  0.6724
38684SOL     OW23291   9.170   1.910   7.236 -0.4126 -0.1322  0.3759
38684SOL    HW123292   9.098   1.888   7.295 -2.8016  1.5043 -1.7308
38684SOL    HW223293   9.183   1.831   7.184 -0.4571 -0.5394  0.9688
38685SOL     OW23294   8.753   0.536  10.173 -0.0622 -0.0325 -0.1694
38685SOL    HW123295   8.836   0.520  10.219 -0.6962 -1.3380  0.5608
38685SOL    HW223296   8.753   0.473  10.101 -0.5860 -0.2951  0.0583
38686SOL     OW23297  12.620   0.339   1.831 -0.7844  0.1007 -0.1121
38686SOL    HW123298  12.684   0.389   1.780  0.2486  0.5874  1.5470
38686SOL    HW223299  12.652   0.249   1.828 -1.1081  0.0081 -0.8612
38687SOL     OW23300   7.270  10.096  12.709 -0.6942 -0.4419  0.2246
38687SOL    HW123301   7.258  10.172  12.766  2.1874 -0.3569  0.8454
38687SOL    HW223302   7.336  10.042  12.752  0.9631 -0.8321 -2.5321
38688SOL     OW23303   1.416   3.076   0.105  0.1347  0.5366  0.2492
38688SOL    HW123304   1.336   3.024   0.110 -0.3661  0.9906 -1.9341
38688SOL    HW223305   1.386   3.167   0.103  0.3754  0.6863 -3.2310
38689SOL     OW23306   9.117   8.208   0.250  0.1073 -0.3764  0.4153
38689SOL    HW123307   9.181   8.263   0.294 -0.2421 -0.1677  0.6682
38689SOL    HW223308   9.047   8.268   0.224 -0.1527 -0.6539  0.4614
38690SOL     OW23309   3.352  11.512   4.393 -0.1875 -0.3743 -0.3703
38690SOL    HW123310   3.350  11.608   4.394 -3.8245 -0.3348  0.5573
38690SOL    HW223311   3.383  11.489   4.481 -2.2964  0.0483  0.5316
38691SOL     OW23312   0.320   0.626  12.056 -0.0041  0.2217  0.3925
38691SOL    HW123313   0.299   0.600  11.966 -0.7962  1.6468  0.1427
38691SOL    HW223314   0.259   0.577  12.110 -0.6581  0.6220  0.0215
38692SOL     OW23315   2.703   3.888  11.186  0.0359 -0.3867  0.4511
38692SOL    HW123316   2.688   3.982  11.194  1.7805 -0.0409  0.0685
38692SOL    HW223317   2.752   3.878  11.104 -1.6464 -1.8494 -0.4803
38693SOL     OW23318   1.800   0.394   2.930  0.2038 -0.0162 -0.9528
38693SOL    HW123319   1.728   0.445   2.892  0.0011 -1.1259 -2.1217
38693SOL    HW223320   1.796   0.310   2.885  0.5581 -1.0695  0.9058
38694SOL     OW23321   6.904   0.478   6.301 -0.3821 -0.6114  0.3115
38694SOL    HW123322   6.864   0.483   6.214  1.6915 -0.0184 -0.6694
38694SOL    HW223323   6.888   0.564   6.340 -1.1237 -0.8011  0.4287
38695SOL     OW23324   3.385   5.853   1.385  0.2500  0.1779  0.0513
38695SOL    HW123325   3.413   5.763   1.400  0.4862  0.2437  0.0139
38695SOL    HW223326   3.301   5.845   1.340  0.9880 -0.0276 -1.3106
38696SOL     OW23327   4.195   6.732   3.849 -0.2866  0.6067  0.7956
38696SOL    HW123328   4.213   6.807   3.793 -1.5953  1.2547  1.1839
38696SOL    HW223329   4.265   6.733   3.914  0.0213  1.1562  0.4635
38697SOL     OW23330   4.383   7.141   7.294 -0.4263 -0.3961  0.5442
38697SOL    HW123331   4.327   7.218   7.283 -0.3446 -0.6716 -2.6804
38697SOL    HW223332   4.329   7.068   7.263  1.1595 -0.8377 -1.3746
38698SOL     OW23333   2.045   1.156  12.409  0.1989 -0.7991 -0.1705
38698SOL    HW123334   2.136   1.129  12.399  0.6657  0.8765 -0.8041
38698SOL    HW223335   2.049   1.239  12.457 -0.9193 -0.3486 -0.8036
38699SOL     OW23336   2.702  11.470   7.334 -0.1964 -1.0979 -0.1142
38699SOL    HW123337   2.712  11.565   7.333  2.4928 -1.2441 -3.3779
38699SOL    HW223338   2.635  11.452   7.268 -2.2436 -1.5145  1.9342
38700SOL     OW23339   9.518  11.850   2.424 -0.4246 -0.3232 -0.3472
38700SOL    HW123340   9.527  11.916   2.492 -3.4584  0.2602 -0.3415
38700SOL    HW223341   9.510  11.767   2.472 -2.5005  0.0811  0.0969
38701SOL     OW23342   9.839   8.552   7.768 -0.0298 -0.1993 -0.2880
38701SOL    HW123343   9.829   8.549   7.673  1.4297 -1.1908 -0.4487
38701SOL    HW223344   9.811   8.466   7.798 -0.5912  0.1451  0.2126
38702SOL     OW23345   8.477   4.022   7.026 -0.0372  0.3112  0.2512
38702SOL    HW123346   8.572   4.033   7.037 -0.0760  0.0109  0.9227
38702SOL    HW223347   8.444   4.010   7.115 -0.5610 -0.7298 -0.0657
38703SOL     OW23348   1.353  10.888   4.614  0.2026 -0.5489  0.1857
38703SOL    HW123349   1.424  10.829   4.589 -0.1682 -0.7206 -0.4969
38703SOL    HW223350   1.322  10.925   4.531 -0.0939  0.0003  0.5313
38704SOL     OW23351  12.333   7.019  12.280 -0.5531  0.1894  0.1264
38704SOL    HW123352  12.248   7.023  12.323 -0.0448  1.9195  1.0456
38704SOL    HW223353  12.331   7.090  12.216 -1.3048 -2.3309 -2.9104
38705SOL     OW23354   2.181   9.530  10.701  0.0872  0.0162 -0.6057
38705SOL    HW123355   2.149   9.440  10.711 -2.4003  0.8617 -0.1489
38705SOL    HW223356   2.219   9.552  10.786 -2.1374  0.3424  0.3891
38706SOL     OW23357  12.117   9.934  10.182 -0.8531 -0.1848  0.1414
38706SOL    HW123358  12.056   9.861  10.191  0.7818 -1.7527 -0.7042
38706SOL    HW223359  12.178   9.925  10.255  0.0446 -0.3995 -0.6035
38707SOL     OW23360   4.494   0.408  12.494 -0.6299  0.1740  0.1570
38707SOL    HW123361   4.460   0.498  12.500 -1.5112 -0.1925  0.8651
38707SOL    HW223362   4.491   0.376  12.584  0.8850 -0.1443  0.1104
38708SOL     OW23363   9.076   9.663   6.018 -0.0306  0.2248  0.1542
38708SOL    HW123364   9.168   9.670   6.043 -0.2981  0.6576  1.0544
38708SOL    HW223365   9.079   9.640   5.925  1.0078 -2.4985  0.7800
38709SOL     OW23366   6.252   4.875   6.597  0.4808 -0.1058  0.2913
38709SOL    HW123367   6.278   4.828   6.676  0.2300 -0.8195 -0.0388
38709SOL    HW223368   6.186   4.937   6.626 -0.7954 -1.4706  0.4120
38710SOL     OW23369   4.791  10.319  10.449 -0.2429  0.2413  0.3907
38710SOL    HW123370   4.871  10.366  10.472 -0.2565  0.8771 -0.7879
38710SOL    HW223371   4.799  10.234  10.492  0.2926  0.9037  1.6537
38711SOL     OW23372   5.588   0.304  11.244  0.1142  0.3023  0.2876
38711SOL    HW123373   5.653   0.346  11.188  1.2623 -1.6324  0.0902
38711SOL    HW223374   5.510   0.296  11.188  0.2581  1.0826 -0.0379
38712SOL     OW23375   8.046  10.061  11.000 -0.5671  0.1417  0.2628
38712SOL    HW123376   8.042   9.986  10.941 -0.6291 -0.0850  0.5540
38712SOL    HW223377   8.130  10.103  10.980 -0.2538 -0.3547  0.5175
38713SOL     OW23378   1.216   6.521   4.713  0.2663  0.2362  0.5749
38713SOL    HW123379   1.241   6.553   4.800  0.4531 -0.2622  0.7081
38713SOL    HW223380   1.140   6.574   4.688 -0.2360 -0.1124  1.3475
38714SOL     OW23381   1.489  11.114   5.892  0.1538  0.1782 -0.3339
38714SOL    HW123382   1.489  11.023   5.922 -2.2511 -0.1614 -1.1126
38714SOL    HW223383   1.570  11.123   5.843  1.6054 -0.7916  1.7417
38715SOL     OW23384  10.873   2.024   0.224 -0.5394  0.7995  0.0845
38715SOL    HW123385  10.944   2.087   0.234 -1.3060  1.5673  0.8310
38715SOL    HW223386  10.917   1.941   0.206  0.5640  1.2197  0.7605
38716SOL     OW23387   9.060   7.772  12.357 -0.5563  0.4653 -0.0350
38716SOL    HW123388   9.049   7.687  12.316 -0.1021  0.9002 -1.0928
38716SOL    HW223389   8.972   7.795  12.389 -0.5095 -0.7840  1.1042
38717SOL     OW23390  12.129   7.508   9.064  0.1956 -0.4947 -0.0493
38717SOL    HW123391  12.035   7.489   9.066 -0.1450  0.9606 -0.4977
38717SOL    HW223392  12.153   7.516   9.156 -0.2742 -0.2253  0.0558
38718SOL     OW23393   6.624   7.594   7.834  0.0510 -0.0608  0.5425
38718SOL    HW123394   6.607   7.674   7.882  1.8414 -1.4885  3.8561
38718SOL    HW223395   6.613   7.618   7.742 -0.6613  3.6018  1.4547
38719SOL     OW23396   0.955   4.935  11.820  0.3302 -0.3858  0.4108
38719SOL    HW123397   1.016   5.004  11.793  0.3647  0.1239  1.7081
38719SOL    HW223398   1.006   4.880  11.880  0.0686 -1.0879 -0.0041
38720SOL     OW23399   6.958   4.731   7.083 -0.1005  0.1711  0.3777
38720SOL    HW123400   6.885   4.689   7.038  0.9990 -1.7733  0.3284
38720SOL    HW223401   7.020   4.753   7.013  0.2433  0.0049  0.6308
38721SOL     OW23402   7.555   6.652  12.288  0.1642  0.1285 -0.7446
38721SOL    HW123403   7.630   6.648  12.348 -0.6156 -1.1664  0.1926
38721SOL    HW223404   7.511   6.733  12.311  1.1244  0.7822 -1.1380
38722SOL     OW23405   7.256   8.499   7.593 -0.2208 -0.6106  0.2053
38722SOL    HW123406   7.267   8.506   7.688 -1.5516 -0.0405  0.3466
38722SOL    HW223407   7.342   8.518   7.557 -0.2932  1.9781  1.2212
38723SOL     OW23408   4.217   7.074   3.222  0.5262  0.0034 -0.2467
38723SOL    HW123409   4.196   7.126   3.300  0.2984  0.1058 -0.3745
38723SOL    HW223410   4.214   7.137   3.150  1.1538 -0.0065 -0.2864
38724SOL     OW23411   7.083   6.232   0.502  0.4782  0.1142 -0.3108
38724SOL    HW123412   6.994   6.266   0.488  0.0702 -0.5279  0.5908
38724SOL    HW223413   7.069   6.144   0.538  1.4917 -0.2666 -0.8212
38725SOL     OW23414  11.517   2.932  12.339  0.7367  0.0104  0.3148
38725SOL    HW123415  11.569   2.972  12.409  0.6885  1.1774 -0.2841
38725SOL    HW223416  11.565   2.852  12.316  0.3646 -0.7659  2.1423
38726SOL     OW23417   8.600   6.272   0.138  0.5809  0.2060 -0.3414
38726SOL    HW123418   8.606   6.357   0.183  1.3761  0.0682 -0.1877
38726SOL    HW223419   8.689   6.238   0.139  0.4256 -0.2399 -1.1793
38727SOL     OW23420   4.480   0.803   8.110 -0.4141 -0.5184 -0.0499
38727SOL    HW123421   4.460   0.896   8.122 -1.4336 -0.6843 -0.3773
38727SOL    HW223422   4.478   0.791   8.015  0.1211 -0.7972 -0.0287
38728SOL     OW23423   2.188  10.936  10.485 -0.1094  0.5256  0.2176
38728SOL    HW123424   2.112  10.983  10.452  0.5773  1.0330 -0.6701
38728SOL    HW223425   2.259  10.960  10.426  0.1294 -2.1649 -0.7289
38729SOL     OW23426   8.950   8.402  12.233 -0.0508 -0.4094 -0.4539
38729SOL    HW123427   8.950   8.307  12.230 -1.4218 -0.4599  0.3423
38729SOL    HW223428   8.978   8.423  12.322  1.2770 -0.0297 -0.9468
38730SOL     OW23429   4.550   4.871   6.958 -0.0808 -0.8270  0.8472
38730SOL    HW123430   4.477   4.921   6.921 -0.1333 -0.4209  1.4781
38730SOL    HW223431   4.554   4.791   6.905  1.3131  0.7142 -1.5506
38731SOL     OW23432   5.276   0.107   7.483 -0.3372  0.4461  0.1717
38731SOL    HW123433   5.358   0.074   7.520 -0.3380 -0.3381 -0.4825
38731SOL    HW223434   5.255   0.184   7.535  0.0035 -0.2376  1.3673
38732SOL     OW23435   0.280   3.828   8.494 -0.3624  0.1431 -0.0995
38732SOL    HW123436   0.292   3.753   8.552 -2.4255 -0.1162  0.0691
38732SOL    HW223437   0.278   3.790   8.406  0.3131  0.2344 -0.1608
38733SOL     OW23438  12.560   6.302   9.353  0.0289  0.1849 -0.2974
38733SOL    HW123439  12.528   6.320   9.265  0.1537  0.6868 -0.2439
38733SOL    HW223440  12.487   6.325   9.410  0.5738  1.6552 -0.1515
38734SOL     OW23441   6.866   1.016   2.724 -0.1013  0.0075 -0.0846
38734SOL    HW123442   6.835   1.029   2.634 -0.4818 -2.3400 -0.3547
38734SOL    HW223443   6.961   1.005   2.715 -0.0762  0.2467 -0.1291
38735SOL     OW23444  10.198   9.116   7.799 -0.3490 -0.6539  0.2960
38735SOL    HW123445  10.203   9.171   7.877 -0.3430  1.8079 -1.3344
38735SOL    HW223446  10.279   9.134   7.751 -0.5830 -1.7197 -0.5476
38736SOL     OW23447   8.259   8.373   6.647 -0.2309  0.9233  0.3265
38736SOL    HW123448   8.316   8.414   6.712 -0.2182 -0.8385  1.5200
38736SOL    HW223449   8.180   8.351   6.696  0.2383 -1.5260  0.1199
38737SOL     OW23450   4.521   3.411   6.689 -0.2121 -0.0520 -0.4206
38737SOL    HW123451   4.596   3.363   6.725  0.9321  1.9782  0.0963
38737SOL    HW223452   4.522   3.390   6.596  1.3187  0.3066 -0.5100
38738SOL     OW23453   9.583   6.350   1.691 -0.0074  0.4135  0.0579
38738SOL    HW123454   9.628   6.422   1.647  0.4153  1.0377  1.4620
38738SOL    HW223455   9.491   6.378   1.695 -0.1131  0.2018 -0.6915
38739SOL     OW23456  10.692   4.568   9.969 -0.6874 -0.5205  0.3000
38739SOL    HW123457  10.770   4.622   9.959  0.3882 -1.7532  1.5843
38739SOL    HW223458  10.658   4.557   9.881 -1.3046  2.6975  0.0326
38740SOL     OW23459   3.883   0.163   3.385  0.2990 -0.4792 -0.1322
38740SOL    HW123460   3.944   0.201   3.448 -0.7468 -0.9511  1.2352
38740SOL    HW223461   3.823   0.234   3.363  1.3976  0.0242 -1.5880
38741SOL     OW23462   1.385   3.438   8.887 -0.1449 -0.2671 -0.0046
38741SOL    HW123463   1.358   3.346   8.894 -0.7673 -0.0899 -0.0397
38741SOL    HW223464   1.315   3.487   8.929  0.1787  0.1973 -0.0009
38742SOL     OW23465  10.848  12.562   8.116  0.4581 -0.5560 -0.3063
38742SOL    HW123466  10.903  12.612   8.177  0.8684 -0.9781 -0.3198
38742SOL    HW223467  10.759  12.570   8.151  0.7768 -1.3716  0.7559
38743SOL     OW23468   0.422   9.482   4.622 -0.2596 -0.1536  0.4920
38743SOL    HW123469   0.383   9.559   4.580 -0.3557 -0.5817 -0.1969
38743SOL    HW223470   0.413   9.501   4.716  2.8078  2.2908  0.4512
38744SOL     OW23471   4.808   4.204   7.543  0.2601  0.4296  0.1771
38744SOL    HW123472   4.885   4.148   7.540  0.8649  1.2640 -1.7313
38744SOL    HW223473   4.737   4.147   7.573  0.5833 -1.7253 -2.7015
38745SOL     OW23474   8.040   1.590   1.460  0.2957  0.1719 -0.2784
38745SOL    HW123475   8.135   1.592   1.461  0.3394 -0.7059 -1.2504
38745SOL    HW223476   8.015   1.583   1.552  1.0841  2.4526  0.1736
38746SOL     OW23477   9.159   2.521   6.664 -0.1231 -0.6250  0.2599
38746SOL    HW123478   9.134   2.473   6.585  1.9628  1.2415 -1.7187
38746SOL    HW223479   9.117   2.607   6.654  0.8760 -0.0626  0.7124
38747SOL     OW23480   0.574   0.650  10.483  0.2620 -0.0421  0.1217
38747SOL    HW123481   0.647   0.711  10.490  0.2863 -0.2076  1.5307
38747SOL    HW223482   0.496   0.705  10.486  0.3036  0.0702 -0.6241
38748SOL     OW23483   8.007  11.331   4.374  0.1310 -0.1974  0.0188
38748SOL    HW123484   8.097  11.312   4.400  0.1492  0.7591  0.7291
38748SOL    HW223485   8.007  11.426   4.357 -0.5919 -0.2979 -0.6065
38749SOL     OW23486   9.731   2.926   3.478  0.5946 -0.1796  1.0759
38749SOL    HW123487   9.777   2.843   3.462  0.3673 -0.3055  1.0812
38749SOL    HW223488   9.652   2.920   3.425  0.9883  0.3881  0.4106
38750SOL     OW23489   5.638   4.821   0.260 -0.2021 -0.0207 -0.2029
38750SOL    HW123490   5.663   4.773   0.181 -0.9349  0.4099 -0.7191
38750SOL    HW223491   5.579   4.889   0.228  0.3015  0.8114  0.5949
38751SOL     OW23492   4.851   8.447   2.896  0.1983  0.3469 -0.2673
38751SOL    HW123493   4.898   8.365   2.881 -1.5386 -0.6860 -0.2464
38751SOL    HW223494   4.826   8.477   2.809  0.4460  0.6490 -0.2392
38752SOL     OW23495   3.651   7.024  10.126  0.5521  0.0516 -0.3857
38752SOL    HW123496   3.605   7.033  10.043  0.8324 -2.8361 -0.9723
38752SOL    HW223497   3.588   6.980  10.184  1.4573 -1.0682 -0.2040
38753SOL     OW23498   5.596   8.623   1.027  0.0732  0.2091 -0.3529
38753SOL    HW123499   5.578   8.689   1.093 -1.8480  1.0431 -1.6097
38753SOL    HW223500   5.620   8.673   0.949  0.9973 -0.7037 -0.6763
38754SOL     OW23501   0.386   7.417   6.059 -0.3929  0.6753  0.2160
38754SOL    HW123502   0.418   7.389   6.144  1.0763  1.5999 -0.0034
38754SOL    HW223503   0.402   7.511   6.056 -0.3301  0.6480 -1.1174
38755SOL     OW23504   5.472   6.542   0.685 -0.1795 -0.2326  0.2368
38755SOL    HW123505   5.425   6.467   0.649  1.4257 -0.5093 -1.4066
38755SOL    HW223506   5.499   6.513   0.773 -2.0009 -0.4816  0.7550
38756SOL     OW23507   3.989   6.615   2.383 -0.0858 -0.0401 -0.3675
38756SOL    HW123508   3.917   6.639   2.324 -1.2127  0.5237  1.1395
38756SOL    HW223509   4.038   6.696   2.394  0.2427 -0.1955 -0.6940
38757SOL     OW23510   2.074   8.675   3.642  0.0416  0.1543 -0.1019
38757SOL    HW123511   2.061   8.588   3.604 -2.4160  0.6855 -0.6996
38757SOL    HW223512   2.068   8.735   3.568  0.7796  0.8924  0.4192
38758SOL     OW23513   4.104   1.947   8.118 -0.4460  0.7307  0.2446
38758SOL    HW123514   4.108   1.851   8.117 -0.7597  0.6584  2.0569
38758SOL    HW223515   4.124   1.973   8.028 -1.8286 -1.0813 -0.6612
38759SOL     OW23516   4.179  11.949   9.020 -0.0881 -0.0689 -0.1545
38759SOL    HW123517   4.197  11.856   9.003  0.1434  0.0906 -0.8643
38759SOL    HW223518   4.266  11.988   9.030 -0.2009 -0.3865  3.0335
38760SOL     OW23519   4.977   5.885   5.809  0.1544  0.0046  0.7102
38760SOL    HW123520   5.020   5.959   5.767  1.3678 -1.6022 -1.0391
38760SOL    HW223521   4.902   5.923   5.854  0.0128  2.1284 -1.1619
38761SOL     OW23522  11.106   9.676   1.026 -0.4589  0.0361 -0.4848
38761SOL    HW123523  11.113   9.718   0.941 -0.2617  0.3538 -0.3107
38761SOL    HW223524  11.130   9.743   1.089  0.3793 -0.4768 -0.2383
38762SOL     OW23525   7.506   7.644   5.309  0.1854  0.3988  0.1034
38762SOL    HW123526   7.415   7.623   5.292  0.3284 -0.8398  0.7348
38762SOL    HW223527   7.552   7.560   5.300  1.4219  1.1754 -1.2242
38763SOL     OW23528  10.947  12.095   7.032  0.0605 -0.2648 -0.2717
38763SOL    HW123529  10.864  12.136   7.006  0.2393  0.2152 -0.0893
38763SOL    HW223530  10.930  12.063   7.121  0.2115  0.2427 -0.0555
38764SOL     OW23531  11.013   3.795   6.405  0.1716 -0.4513 -0.0534
38764SOL    HW123532  10.992   3.841   6.487 -0.5362  1.8896 -1.4475
38764SOL    HW223533  11.062   3.718   6.433 -1.3338 -0.5550  2.6728
38765SOL     OW23534   8.614   0.543   3.572  0.4502  0.4164  0.4564
38765SOL    HW123535   8.597   0.516   3.482  1.2230  1.2774  0.0481
38765SOL    HW223536   8.527   0.542   3.613 -0.4428  3.0030 -1.1120
38766SOL     OW23537   1.092   5.723   1.551 -0.0047 -0.0216  0.3571
38766SOL    HW123538   1.153   5.796   1.561 -0.0210  0.0450 -0.0125
38766SOL    HW223539   1.136   5.663   1.491  0.5500 -0.9101  1.5912
38767SOL     OW23540   5.333  10.538   3.959 -0.1487 -0.9259  0.0365
38767SOL    HW123541   5.359  10.545   4.051 -1.4918 -1.2044  0.4552
38767SOL    HW223542   5.245  10.575   3.956  0.1840 -0.1466 -1.3082
38768SOL     OW23543   2.759  11.386   0.477  0.2526  0.4361  1.0065
38768SOL    HW123544   2.749  11.474   0.441  1.5123  0.4481  0.6490
38768SOL    HW223545   2.851  11.379   0.500 -0.2668  0.0080  3.2042
38769SOL     OW23546  10.217  12.173   9.818  0.0140 -0.0967  0.2323
38769SOL    HW123547  10.287  12.227   9.854  0.0289  0.0643 -0.0360
38769SOL    HW223548  10.146  12.235   9.801 -0.0076 -0.1771  0.0236
38770SOL     OW23549   4.166  12.611  12.289  0.1867  0.6487  0.1581
38770SOL    HW123550   4.248  12.570  12.314 -0.7033 -1.8212 -0.6689
38770SOL    HW223551   4.134  12.652  12.369  1.0127 -0.5327  1.1206
38771SOL     OW23552  11.577   7.988  10.820  0.2420  0.3272  0.2148
38771SOL    HW123553  11.490   7.977  10.781 -0.3872  1.7865  1.1609
38771SOL    HW223554  11.635   7.937  10.763 -1.3270 -1.3490  0.0237
38772SOL     OW23555   4.916  12.127   9.157  0.6468 -0.4876  0.5616
38772SOL    HW123556   4.887  12.087   9.239  2.2953 -1.2164  0.8137
38772SOL    HW223557   4.980  12.193   9.184 -0.0269  0.4489 -0.0463
38773SOL     OW23558   3.880  11.909   3.676 -0.4005  0.1623  0.4708
38773SOL    HW123559   3.799  11.865   3.651 -1.0794  1.0724  0.9832
38773SOL    HW223560   3.907  11.864   3.756 -0.8075  0.3258  0.7067
38774SOL     OW23561   6.157   5.979   1.428 -0.1435  0.4357  0.2418
38774SOL    HW123562   6.219   5.907   1.431  0.3414  0.8427  0.1440
38774SOL    HW223563   6.188   6.040   1.495 -0.4097  0.6605  0.1621
38775SOL     OW23564   0.826   9.553   0.780 -0.1639 -0.0743  0.1565
38775SOL    HW123565   0.748   9.602   0.755  0.2998  0.5670 -0.0752
38775SOL    HW223566   0.898   9.603   0.743  0.4028 -0.2889  0.9353
38776SOL     OW23567   5.855  12.210   0.755  0.1046 -0.7211  0.1140
38776SOL    HW123568   5.881  12.263   0.829 -2.6813  1.4987 -0.2970
38776SOL    HW223569   5.768  12.178   0.778 -2.3614  2.6992 -3.1731
38777SOL     OW23570   9.512  10.888   3.280  0.1062  0.0415  0.2822
38777SOL    HW123571   9.552  10.826   3.341  0.8363 -0.5659 -0.7837
38777SOL    HW223572   9.425  10.853   3.263  0.3555 -0.4550  0.0243
38778SOL     OW23573   7.630  10.464   3.381 -0.2119  0.4582 -0.5070
38778SOL    HW123574   7.670  10.513   3.453 -0.6626  1.9626 -1.2407
38778SOL    HW223575   7.676  10.380   3.381  1.8560  1.5179 -0.3438
38779SOL     OW23576   1.298   5.130   4.844  0.5115  0.0952 -0.6740
38779SOL    HW123577   1.356   5.098   4.913  0.4045  2.0209  0.3949
38779SOL    HW223578   1.337   5.100   4.763  0.4132 -2.6225  0.2042
38780SOL     OW23579   0.179   8.765  11.702  0.4388 -0.6579 -0.0175
38780SOL    HW123580   0.180   8.860  11.713  2.7491 -0.8030  1.7467
38780SOL    HW223581   0.258   8.746  11.653 -1.0800 -1.5769 -2.2682
38781SOL     OW23582   9.782   2.979   4.347  0.3586 -0.7860  0.6300
38781SOL    HW123583   9.794   2.902   4.401 -3.5799 -0.9395  1.6085
38781SOL    HW223584   9.703   2.960   4.296  0.5341  1.7316 -0.7261
38782SOL     OW23585   9.186   8.450  10.091  0.1554  0.1823  0.2213
38782SOL    HW123586   9.142   8.375  10.050  0.4552  0.7830 -1.2729
38782SOL    HW223587   9.118   8.490  10.145 -0.9607  0.6406 -1.4380
38783SOL     OW23588  10.659   5.851   8.224  0.1676  0.6369 -0.0544
38783SOL    HW123589  10.643   5.912   8.151  0.4685 -0.0337 -0.6936
38783SOL    HW223590  10.742   5.810   8.203 -0.4030 -0.5669 -0.0454
38784SOL     OW23591   6.588   0.826   1.506  0.4130 -0.0701 -0.1783
38784SOL    HW123592   6.562   0.838   1.414 -0.9250 -1.6493 -0.0661
38784SOL    HW223593   6.608   0.914   1.537 -2.3773  0.9762 -1.0600
38785SOL     OW23594   6.228   3.249   2.999  0.1770 -0.3777 -0.0720
38785SOL    HW123595   6.140   3.281   3.014  0.5675  0.3198  0.8277
38785SOL    HW223596   6.221   3.192   2.922 -1.5060 -2.2825  1.3810
38786SOL     OW23597   6.247   8.422  11.522  0.2286 -0.4611 -0.5142
38786SOL    HW123598   6.282   8.377  11.444  0.3903  0.5802 -1.0687
38786SOL    HW223599   6.152   8.416  11.512  0.1900  1.5783 -2.0048
38787SOL     OW23600   0.077   3.917   4.183 -0.0479  0.4118 -0.0867
38787SOL    HW123601  -0.018   3.925   4.169 -0.1125 -0.8941 -0.5478
38787SOL    HW223602   0.086   3.908   4.278 -0.5482 -0.9735 -0.1408
38788SOL     OW23603   9.078   1.650   8.371  0.7004  0.4288 -0.6127
38788SOL    HW123604   9.082   1.735   8.328  0.9048  0.0241 -1.4255
38788SOL    HW223605   9.079   1.587   8.299 -1.7226 -0.2360 -0.1600
38789SOL     OW23606   6.039   0.700   0.819  0.4418 -0.6202  0.3548
38789SOL    HW123607   5.975   0.659   0.876 -0.6949  2.0130  1.1394
38789SOL    HW223608   5.995   0.778   0.786  2.3470 -0.1472 -1.2302
38790SOL     OW23609   6.872   4.009   9.958 -0.0710  0.2036 -0.5882
38790SOL    HW123610   6.947   4.051   9.917  0.7955 -0.6801  0.0373
38790SOL    HW223611   6.909   3.962  10.032 -0.9405 -1.8455 -1.3851
38791SOL     OW23612   5.013   2.926   3.905  0.3052  0.6711 -0.0559
38791SOL    HW123613   4.969   2.992   3.852  0.6132  0.9640  0.0481
38791SOL    HW223614   4.973   2.934   3.991  0.7480  1.1292  0.1136
38792SOL     OW23615   6.664   9.923   0.861  0.2959  0.1654  0.5504
38792SOL    HW123616   6.730   9.884   0.918  1.6333  1.1109 -0.2759
38792SOL    HW223617   6.709   9.935   0.777 -0.4965  2.0567  0.3345
38793SOL     OW23618   3.846   0.965  10.126 -0.6214 -0.0719 -0.0925
38793SOL    HW123619   3.820   1.016  10.050 -0.4871 -1.4288 -1.0830
38793SOL    HW223620   3.772   0.974  10.187 -2.0435 -1.2467 -1.5453
38794SOL     OW23621  11.653   5.842   1.639 -0.4037 -0.1970  0.9084
38794SOL    HW123622  11.578   5.862   1.584  0.0084  0.0477  0.4319
38794SOL    HW223623  11.665   5.920   1.694 -1.7517 -1.0161  2.4455
38795SOL     OW23624   0.532   7.638   9.391  0.2619 -0.4249  0.6058
38795SOL    HW123625   0.481   7.672   9.465  0.3300 -0.5749  0.7226
38795SOL    HW223626   0.620   7.628   9.426  0.4197  0.0366  0.3412
38796SOL     OW23627   0.495  10.439   2.624 -0.2024 -0.1515 -0.1886
38796SOL    HW123628   0.588  10.454   2.642 -0.2023  1.3539 -1.3023
38796SOL    HW223629   0.453  10.442   2.710  0.5807  0.7376  0.1784
38797SOL     OW23630   0.394   8.805   5.059 -0.2453 -0.2673  0.2833
38797SOL    HW123631   0.312   8.809   5.010  0.0198  1.4575 -0.0652
38797SOL    HW223632   0.439   8.727   5.025 -2.2030 -1.9153  1.3002
38798SOL     OW23633   8.884   7.057  11.244  0.1297 -0.1853  0.2482
38798SOL    HW123634   8.963   7.084  11.291 -0.8412  1.3559  1.0872
38798SOL    HW223635   8.869   7.127  11.180 -1.0270 -0.0033  0.6998
38799SOL     OW23636   0.459   2.793   4.828 -0.5531  0.5119  0.1155
38799SOL    HW123637   0.375   2.840   4.821 -1.5880 -1.3809 -0.9183
38799SOL    HW223638   0.445   2.712   4.779  0.9698 -1.1763  2.2991
38800SOL     OW23639   2.819   7.369   8.843 -0.1593  0.0841  0.0295
38800SOL    HW123640   2.782   7.458   8.836 -0.8217 -0.2342 -0.6270
38800SOL    HW223641   2.756   7.322   8.898 -0.2753 -0.2263 -0.3709
38801SOL     OW23642   3.275   9.377  10.821 -0.0015  0.6146  0.0459
38801SOL    HW123643   3.327   9.456  10.838  0.1594  0.4642  0.2473
38801SOL    HW223644   3.188   9.397  10.857  0.3563  0.2694  1.1108
38802SOL     OW23645  11.833  11.580   6.853 -0.0298 -0.2456  0.0079
38802SOL    HW123646  11.838  11.650   6.918 -0.9073  0.6565 -0.8527
38802SOL    HW223647  11.749  11.595   6.808  1.0507 -0.0923 -2.1060
38803SOL     OW23648   8.762  10.962   6.181 -0.0468  0.3012 -0.2693
38803SOL    HW123649   8.717  10.879   6.169 -0.1884  0.2772  0.3969
38803SOL    HW223650   8.816  10.949   6.259 -0.6122  1.0584  0.2643
38804SOL     OW23651  10.931   7.197   1.136  0.1866  0.2797  0.0105
38804SOL    HW123652  10.838   7.219   1.143  0.0461  0.0101 -0.8210
38804SOL    HW223653  10.976   7.260   1.192 -0.5086  0.3419  0.5068
38805SOL     OW23654   0.390   6.394   5.246  0.0535  0.0071  0.2264
38805SOL    HW123655   0.409   6.332   5.176 -1.5165 -0.6223  0.3272
38805SOL    HW223656   0.340   6.464   5.205  2.7053  1.8785 -0.1221
38806SOL     OW23657   3.908   0.838   0.986  0.2798  0.2385 -0.2610
38806SOL    HW123658   3.892   0.748   1.015  0.6371 -0.3097 -1.6665
38806SOL    HW223659   3.823   0.880   0.990 -0.3830 -0.8549 -1.7670
38807SOL     OW23660   0.668   0.873   5.215  0.3706  0.0930  0.4473
38807SOL    HW123661   0.637   0.960   5.190  1.7668  0.3152 -0.6658
38807SOL    HW223662   0.761   0.885   5.235  1.1824 -1.4531 -1.9010
38808SOL     OW23663   5.447  12.659   5.776 -0.1217  0.4361 -0.6791
38808SOL    HW123664   5.539  12.677   5.798  0.3106 -0.9536 -1.2536
38808SOL    HW223665   5.407  12.638   5.860  0.2038  0.5789 -0.4833
38809SOL     OW23666   3.589   7.992   0.020  0.8583 -0.5696  0.5037
38809SOL    HW123667   3.567   8.012   0.111 -0.7041  2.3790 -0.4080
38809SOL    HW223668   3.673   8.034   0.005 -0.5436  2.1564 -0.2950
38810SOL     OW23669  10.467   9.971  11.807 -0.1463 -0.3750 -0.6313
38810SOL    HW123670  10.494   9.923  11.886 -1.0289  0.8629  0.4670
38810SOL    HW223671  10.428   9.904  11.750 -0.9674 -1.0479  0.6718
38811SOL     OW23672   7.650   4.495  12.306  0.6728  0.3592  0.8206
38811SOL    HW123673   7.711   4.568  12.313 -0.7261  1.7578 -0.6608
38811SOL    HW223674   7.564   4.536  12.298 -0.0972 -1.4078 -0.8365
38812SOL     OW23675   9.013   7.109  12.263 -0.3406  0.2815  0.3175
38812SOL    HW123676   9.049   7.038  12.315 -0.9591  0.0369  0.4079
38812SOL    HW223677   8.996   7.179  12.326  0.9595  0.8117  0.1342
38813SOL     OW23678   2.966   9.592   6.491 -0.0045 -0.6003  0.2254
38813SOL    HW123679   2.976   9.687   6.492  1.8904 -0.7046 -1.5773
38813SOL    HW223680   2.924   9.571   6.574 -0.3996  1.7860  0.6960
38814SOL     OW23681  10.865   3.170   1.574  0.1826 -0.1863 -0.0774
38814SOL    HW123682  10.884   3.142   1.484 -0.2927  0.0983 -0.2706
38814SOL    HW223683  10.800   3.106   1.605 -0.1194  0.0796 -0.1562
38815SOL     OW23684  11.684   3.002  12.671 -0.1994  0.3348  0.1957
38815SOL    HW123685  11.652   2.985  12.760 -0.2293  1.0416  0.3264
38815SOL    HW223686  11.679   2.917  12.627 -2.2659  0.3876  0.2175
38816SOL     OW23687   7.659   7.964   9.032 -0.5929 -0.4831 -0.4121
38816SOL    HW123688   7.637   7.921   8.949  1.0452 -0.5537 -0.8336
38816SOL    HW223689   7.631   7.902   9.099 -1.5170 -0.6216 -0.8976
38817SOL     OW23690   3.955  11.316   5.555  0.4792 -0.0581  0.7247
38817SOL    HW123691   3.869  11.274   5.556 -0.7251  2.0171 -2.1680
38817SOL    HW223692   4.016  11.247   5.581 -1.7381 -2.4677 -0.0839
38818SOL     OW23693   0.856   6.246  10.713  0.0499 -0.1042 -0.0013
38818SOL    HW123694   0.900   6.288  10.787 -2.2091 -0.8477  1.8964
38818SOL    HW223695   0.919   6.180  10.682  2.0920  1.9444 -0.5671
38819SOL     OW23696   3.018   8.186   6.196  0.3215 -0.2778  0.2434
38819SOL    HW123697   3.096   8.137   6.167 -0.4630 -1.0294 -0.6752
38819SOL    HW223698   2.982   8.133   6.267  0.9891  0.4115  1.1270
38820SOL     OW23699   3.485   7.313  12.566  0.4729  0.1282 -0.5032
38820SOL    HW123700   3.433   7.265  12.502 -0.5698 -0.2509  0.5864
38820SOL    HW223701   3.479   7.261  12.646 -0.3394  1.8072  0.6050
38821SOL     OW23702   4.314   3.524  12.200 -0.0078  0.1308 -0.0948
38821SOL    HW123703   4.304   3.544  12.107 -3.2335 -0.4301  0.0203
38821SOL    HW223704   4.286   3.605  12.244  0.2812 -0.0335  0.3936
38822SOL     OW23705  10.113   4.782   8.741 -0.4252  0.2164 -0.0160
38822SOL    HW123706  10.116   4.861   8.795 -0.2842 -1.0421  1.9101
38822SOL    HW223707  10.042   4.730   8.778  0.5766 -1.3147 -0.1432
38823SOL     OW23708   7.755   6.652  12.485 -0.3512  0.2614 -0.2308
38823SOL    HW123709   7.825   6.700  12.530 -0.3959 -0.6485  0.8724
38823SOL    HW223710   7.782   6.560  12.490 -0.6658  0.0808 -1.5622
38824SOL     OW23711  10.737   8.574   1.174  0.0552 -0.9613 -0.2101
38824SOL    HW123712  10.728   8.503   1.110  1.6142  0.2936 -1.9394
38824SOL    HW223713  10.673   8.639   1.145 -1.0175 -1.3903  1.0767
38825SOL     OW23714   0.676   9.641   6.840 -0.2150 -0.2041 -0.4515
38825SOL    HW123715   0.686   9.588   6.919  0.3285 -0.5347 -0.7385
38825SOL    HW223716   0.713   9.726   6.863  1.8363 -0.8904 -0.9561
38826SOL     OW23717   6.899   9.127   1.604  0.1844 -0.2245  0.1899
38826SOL    HW123718   6.955   9.060   1.644 -0.4518  0.0452  1.5586
38826SOL    HW223719   6.831   9.144   1.669  0.0491  1.4040 -0.3447
38827SOL     OW23720   2.324   6.425   2.643 -0.0590  0.2547  0.0800
38827SOL    HW123721   2.403   6.394   2.687 -0.7126  2.2510  2.9719
38827SOL    HW223722   2.255   6.366   2.673  0.1428 -1.0478 -1.8731
38828SOL     OW23723  11.325   7.943  10.710 -0.2375 -0.3282  0.4234
38828SOL    HW123724  11.232   7.963  10.723 -0.2481 -0.6809  0.9219
38828SOL    HW223725  11.343   7.971  10.621 -0.8465 -0.3339  0.2934
38829SOL     OW23726   2.466   0.969   1.631 -0.4829  0.2619  0.9535
38829SOL    HW123727   2.390   1.019   1.661 -1.7858 -1.3801  0.6090
38829SOL    HW223728   2.442   0.878   1.649  0.5740 -0.4446 -0.9204
38830SOL     OW23729   5.334   1.182   9.964  0.7206  0.6067 -0.3893
38830SOL    HW123730   5.269   1.240   9.924 -0.7023 -0.2423  0.5882
38830SOL    HW223731   5.321   1.097   9.921 -1.0907 -0.4239  1.9675
38831SOL     OW23732   4.885   5.990   3.469 -0.1322 -0.6625  0.2964
38831SOL    HW123733   4.885   6.077   3.428 -0.3968 -1.2553 -1.0070
38831SOL    HW223734   4.945   5.938   3.415  0.5204 -1.1230  1.4502
38832SOL     OW23735   7.586   0.957   7.077  0.0832  0.3103  0.6249
38832SOL    HW123736   7.634   1.009   7.013 -0.4526 -2.2777 -2.0847
38832SOL    HW223737   7.494   0.970   7.055 -0.1771  0.1247  1.5521
38833SOL     OW23738   2.082   2.989   0.580  0.0303  0.3287  0.2385
38833SOL    HW123739   2.026   2.970   0.656  0.4575 -0.0446  0.4624
38833SOL    HW223740   2.044   3.069   0.542 -2.3033 -1.3183 -1.1916
38834SOL     OW23741  11.570  10.588  10.704 -0.0022  0.0874  0.5222
38834SOL    HW123742  11.663  10.597  10.681 -0.1954  1.5804  0.2348
38834SOL    HW223743  11.561  10.497  10.733  1.5390 -0.0939  0.5066
38835SOL     OW23744   2.469   5.157   7.224  0.0002 -0.1682  0.0618
38835SOL    HW123745   2.516   5.102   7.162  1.5940 -0.6915  1.6495
38835SOL    HW223746   2.418   5.096   7.277  2.5539 -0.4031  2.5043
38836SOL     OW23747   1.078   9.624   6.879 -0.2664 -0.3050  0.0517
38836SOL    HW123748   1.026   9.548   6.904 -1.6366  0.6782  0.2778
38836SOL    HW223749   1.158   9.586   6.841 -1.0969 -1.8456 -0.2577
38837SOL     OW23750   4.270   7.703   1.314 -0.2007  0.0453 -0.8367
38837SOL    HW123751   4.270   7.763   1.239  2.3856 -0.5753 -1.4151
38837SOL    HW223752   4.272   7.761   1.390  2.4061  0.7845 -1.3855
38838SOL     OW23753   3.904   6.933  11.587 -0.4177  0.0361  0.1522
38838SOL    HW123754   3.809   6.937  11.596 -0.3945 -0.6740  0.8708
38838SOL    HW223755   3.937   6.974  11.667 -0.1246 -0.0156  0.0582
38839SOL     OW23756   5.271   1.469   3.028  0.5826  0.3229  0.6281
38839SOL    HW123757   5.288   1.387   2.980  2.9849  0.0115  1.8811
38839SOL    HW223758   5.308   1.537   2.972  0.7978  0.2684  0.7012
38840SOL     OW23759   5.132  11.375   6.367 -0.4023  0.0095  0.1508
38840SOL    HW123760   5.088  11.386   6.451 -1.0819  1.9765 -0.4195
38840SOL    HW223761   5.154  11.282   6.364 -0.4472 -0.1383  2.4420
38841SOL     OW23762   3.583   6.821   3.073 -0.2361  0.6991  0.1356
38841SOL    HW123763   3.500   6.814   3.120 -0.5987  0.8218 -0.4736
38841SOL    HW223764   3.569   6.893   3.010  0.5041  1.0615  0.3812
38842SOL     OW23765   6.396  10.204  10.975 -0.0145  0.6424  0.3379
38842SOL    HW123766   6.419  10.164  10.891  0.2833  2.6989 -0.6194
38842SOL    HW223767   6.328  10.148  11.010  1.0531 -1.2519 -0.4403
38843SOL     OW23768  12.393  11.715   7.189 -0.6994 -0.2798  0.3366
38843SOL    HW123769  12.413  11.658   7.114  0.4583 -0.0143  0.4213
38843SOL    HW223770  12.463  11.780   7.188 -0.9183 -0.0183  1.3968
38844SOL     OW23771   9.172   2.773   9.179  0.0982 -0.0684  0.8714
38844SOL    HW123772   9.261   2.808   9.192  0.3010 -0.8481  1.6527
38844SOL    HW223773   9.124   2.800   9.256 -0.2293 -0.0172  0.6494
38845SOL     OW23774   5.440   3.316   4.326  0.1957  0.0248  0.5527
38845SOL    HW123775   5.510   3.300   4.262  0.6017 -1.0558  1.2463
38845SOL    HW223776   5.426   3.411   4.321  0.3448 -0.0009 -0.9902
38846SOL     OW23777   6.180   2.821   1.141 -0.1757  0.0429  0.2217
38846SOL    HW123778   6.103   2.872   1.165  0.1041  0.5017  0.1432
38846SOL    HW223779   6.239   2.884   1.099 -1.4228 -1.0034 -3.5320
38847SOL     OW23780   5.846   2.155   7.086 -0.2626 -0.6150  0.1268
38847SOL    HW123781   5.815   2.243   7.066  0.6004 -0.4207 -0.3888
38847SOL    HW223782   5.814   2.101   7.013  0.1402 -0.5152 -0.1276
38848SOL     OW23783   6.347   7.078   2.499  0.2154  0.2313 -0.3356
38848SOL    HW123784   6.374   7.044   2.414  1.4162  0.9574 -0.2657
38848SOL    HW223785   6.288   7.151   2.478 -0.7209 -0.5562 -0.5067
38849SOL     OW23786   5.984   6.489   7.616  0.0788 -0.4774 -0.5792
38849SOL    HW123787   6.042   6.416   7.594  0.5163 -0.7534  1.3813
38849SOL    HW223788   5.912   6.450   7.665 -0.3948  0.2310 -0.6896
38850SOL     OW23789  11.589   4.420   6.180  0.0297 -0.0062  0.1545
38850SOL    HW123790  11.554   4.341   6.221  0.4137 -0.0777  0.3562
38850SOL    HW223791  11.583   4.404   6.086  3.6712 -1.9696  0.0830
38851SOL     OW23792   2.349   0.602   7.266  0.7403 -0.2891  0.3363
38851SOL    HW123793   2.386   0.662   7.331  1.9924 -0.6196 -0.0455
38851SOL    HW223794   2.357   0.515   7.306  0.5709 -0.3820  0.1671
38852SOL     OW23795  11.016   7.823   6.700 -0.3097 -0.9854 -0.7483
38852SOL    HW123796  10.964   7.744   6.706  1.5623 -2.4531 -2.2899
38852SOL    HW223797  11.094   7.805   6.752 -0.1885  0.1581 -0.4967
38853SOL     OW23798  10.121   9.391   6.240  0.0839  0.0586  0.4764
38853SOL    HW123799  10.185   9.338   6.194 -1.2280 -0.8046 -0.4362
38853SOL    HW223800  10.120   9.356   6.329  1.0281  0.2510  0.5749
38854SOL     OW23801   4.041   5.203   5.965 -0.1428 -0.2073  0.2039
38854SOL    HW123802   4.010   5.135   6.024 -0.8129 -0.3054 -0.2502
38854SOL    HW223803   4.049   5.281   6.021 -0.4905 -0.3720  0.4892
38855SOL     OW23804   8.861   8.793   4.133 -0.1268 -0.3591 -0.3848
38855SOL    HW123805   8.836   8.796   4.041  0.2022  1.9280 -0.4664
38855SOL    HW223806   8.951   8.760   4.132 -0.5484 -1.5400 -0.7449
38856SOL     OW23807   6.684  12.608   0.126  0.2982  0.6744 -0.4616
38856SOL    HW123808   6.601  12.567   0.102  0.4176 -0.4140  0.8453
38856SOL    HW223809   6.749  12.567   0.068  0.0777  0.7112 -0.7350
38857SOL     OW23810   8.345   0.264   7.873 -0.2990 -0.0924 -0.0739
38857SOL    HW123811   8.326   0.235   7.962 -0.6686  0.0396 -0.1079
38857SOL    HW223812   8.267   0.241   7.823  0.0997 -0.6000 -0.4682
38858SOL     OW23813  11.856   6.173   6.221  0.5144 -0.4951  0.2245
38858SOL    HW123814  11.811   6.233   6.280  1.3892 -0.9047  1.3462
38858SOL    HW223815  11.850   6.215   6.135  0.0588  0.5975  0.7702
38859SOL     OW23816   5.826   0.883   4.121 -0.2522  0.1996  0.1323
38859SOL    HW123817   5.818   0.978   4.133 -0.2064  0.0117  1.9536
38859SOL    HW223818   5.857   0.851   4.206  0.0271 -1.4206 -0.5493
38860SOL     OW23819   4.327  10.183   7.195  0.2487 -0.4808  0.2566
38860SOL    HW123820   4.284  10.233   7.264 -0.1049 -0.7725  0.2506
38860SOL    HW223821   4.263  10.116   7.171  0.3268 -0.3080 -0.4362
38861SOL     OW23822   3.048   5.551  11.680 -0.4214 -0.1296 -0.0499
38861SOL    HW123823   3.053   5.638  11.721  0.4748 -0.2188  0.0562
38861SOL    HW223824   3.126   5.506  11.712 -0.6590 -0.8289 -0.4480
38862SOL     OW23825   0.332   2.872   0.496 -0.1792 -0.0443  0.2741
38862SOL    HW123826   0.338   2.918   0.412  1.7587  1.4196  1.1462
38862SOL    HW223827   0.274   2.927   0.549 -0.6169 -0.4577  0.2358
38863SOL     OW23828   3.930   9.220   5.475 -0.1876  0.0217  0.0213
38863SOL    HW123829   3.899   9.301   5.433  0.9319  0.8869  0.7723
38863SOL    HW223830   3.959   9.165   5.402  0.9743  1.1620 -0.4314
38864SOL     OW23831   7.696   1.268   3.967 -0.1434  0.1978  0.4370
38864SOL    HW123832   7.645   1.188   3.982 -1.0690  0.2722 -1.9405
38864SOL    HW223833   7.721   1.264   3.875  2.8261  0.9835  1.1090
38865SOL     OW23834   3.453   4.572   3.499 -0.3139  0.4498  0.2907
38865SOL    HW123835   3.511   4.531   3.563  0.9006  0.3393 -0.8503
38865SOL    HW223836   3.446   4.508   3.428 -0.1579  1.3189 -0.5210
38866SOL     OW23837  10.591   4.229   8.351 -0.3910 -0.5648 -0.5814
38866SOL    HW123838  10.637   4.201   8.430 -0.9324 -1.1538 -0.4716
38866SOL    HW223839  10.635   4.311   8.326 -0.4296 -0.1869  0.5172
38867SOL     OW23840   0.642  11.713   7.578 -0.5633  0.0343  0.2113
38867SOL    HW123841   0.712  11.682   7.520 -0.4265  1.7797 -0.6113
38867SOL    HW223842   0.673  11.691   7.666  0.0637 -1.0360 -0.2536
38868SOL     OW23843   3.408   7.626   2.650  0.7984  0.3611 -0.0393
38868SOL    HW123844   3.402   7.687   2.576 -1.1889 -1.9246 -1.9220
38868SOL    HW223845   3.475   7.563   2.623  1.8799  0.8712  1.3082
38869SOL     OW23846  10.347   1.582   3.149 -0.8828 -0.5327 -0.3822
38869SOL    HW123847  10.328   1.504   3.096  3.4454 -2.5798  0.6350
38869SOL    HW223848  10.424   1.620   3.109  1.6050 -1.2379  3.2386
38870SOL     OW23849   2.232   8.801   7.965  0.2010 -0.0924 -0.3059
38870SOL    HW123850   2.182   8.882   7.980 -1.5423 -1.0367 -0.6558
38870SOL    HW223851   2.195   8.738   8.027  1.6335 -0.6033  0.0612
38871SOL     OW23852  12.463   8.121   2.446 -0.4831  0.2847 -0.4984
38871SOL    HW123853  12.427   8.069   2.375 -1.7643 -0.0807  0.3901
38871SOL    HW223854  12.406   8.103   2.521  1.3901 -0.1362  0.9176
38872SOL     OW23855   2.601  11.603   1.528 -0.2672  0.1043  0.2662
38872SOL    HW123856   2.604  11.688   1.484 -1.2342  0.1470  0.2555
38872SOL    HW223857   2.688  11.566   1.514  0.0142  0.8844 -0.1429
38873SOL     OW23858   9.448   5.404   9.007  0.1811 -0.7528 -0.2491
38873SOL    HW123859   9.398   5.376   9.083 -0.1913  0.3812 -0.0647
38873SOL    HW223860   9.492   5.484   9.035  1.6728 -1.4065 -0.5880
38874SOL     OW23861   1.581   3.022   1.374  0.0808 -0.0846  0.1270
38874SOL    HW123862   1.645   3.068   1.321  0.5393 -0.5342  0.2802
38874SOL    HW223863   1.508   3.083   1.382  0.6168  0.5597  0.2161
38875SOL     OW23864   8.633   6.126  12.428 -0.3546 -0.7220  0.3338
38875SOL    HW123865   8.641   6.217  12.457 -0.0826 -0.0611 -1.6416
38875SOL    HW223866   8.699   6.078  12.478 -0.6920  0.1011  1.5997
38876SOL     OW23867   4.020   5.666   9.819 -0.3763  0.2128  0.0977
38876SOL    HW123868   3.979   5.582   9.799  0.0747  0.4659 -2.1284
38876SOL    HW223869   3.955   5.731   9.794  0.7986  0.5797 -2.1939
38877SOL     OW23870   3.090   9.096  10.120 -0.4651 -0.1259 -0.3168
38877SOL    HW123871   3.179   9.132  10.121 -1.1026  1.5295  0.9268
38877SOL    HW223872   3.095   9.022  10.060  1.0050  1.8654 -2.8560
38878SOL     OW23873   4.319   5.962  10.876  0.3329  0.3393 -0.0306
38878SOL    HW123874   4.356   5.911  10.948  0.7038  0.2248 -0.3002
38878SOL    HW223875   4.387   5.962  10.809 -0.1968  0.0146 -0.5852
38879SOL     OW23876   1.662   8.749   7.689  0.2257 -0.5807 -0.7036
38879SOL    HW123877   1.598   8.820   7.702 -1.0125 -1.7411 -0.1572
38879SOL    HW223878   1.711   8.746   7.772  0.0908 -0.5351 -0.6219
38880SOL     OW23879   6.518   5.503   3.435  0.1199 -0.2354 -0.2898
38880SOL    HW123880   6.546   5.488   3.345 -2.4547 -2.4815 -0.8354
38880SOL    HW223881   6.423   5.497   3.433 -0.1383  1.2392  2.3660
38881SOL     OW23882   9.078   7.201   4.358  0.0715 -0.3162 -0.1020
38881SOL    HW123883   9.149   7.175   4.417 -1.0008 -2.9214  0.1729
38881SOL    HW223884   9.121   7.218   4.274  1.1784 -0.1299  0.4798
38882SOL     OW23885  11.151   9.552  10.124  0.3278 -0.0436 -0.2409
38882SOL    HW123886  11.083   9.523  10.185 -0.1119  2.1397  0.4005
38882SOL    HW223887  11.102   9.589  10.050  0.8325  0.3908 -0.3627
38883SOL     OW23888   1.147  12.422   4.625 -0.5437 -0.2507 -0.3998
38883SOL    HW123889   1.074  12.413   4.563 -2.3521 -1.1497  1.7274
38883SOL    HW223890   1.180  12.510   4.611 -2.3247  0.3375 -1.1578
38884SOL     OW23891  12.579   8.666   9.745  0.2003 -0.2950  0.0125
38884SOL    HW123892  12.662   8.711   9.728 -0.3726  1.4397  1.4829
38884SOL    HW223893  12.546   8.642   9.658  1.8368 -0.2856 -0.6439
38885SOL     OW23894   9.544   8.690   0.783  0.1225  0.2258  0.1274
38885SOL    HW123895   9.528   8.769   0.731  1.5276 -0.2822 -1.1511
38885SOL    HW223896   9.633   8.664   0.760 -0.0132 -1.2723  1.1693
38886SOL     OW23897  12.316   8.694   7.730  0.2776 -0.0430  0.0949
38886SOL    HW123898  12.297   8.606   7.763 -0.9516  0.2501  0.2359
38886SOL    HW223899  12.235   8.721   7.687 -0.2152  1.9302  2.0867
38887SOL     OW23900   9.088  10.849  11.099  0.0469 -0.2395  0.2102
38887SOL    HW123901   9.156  10.902  11.140  2.0165 -1.2051 -1.6067
38887SOL    HW223902   9.106  10.760  11.130 -0.7513 -0.4355  0.1294
38888SOL     OW23903   6.369   7.606   8.443  0.2286  0.0432 -0.1728
38888SOL    HW123904   6.323   7.632   8.363  0.7007  0.3736 -0.3397
38888SOL    HW223905   6.415   7.526   8.419  1.0077  0.5713 -0.4676
38889SOL     OW23906   8.594   0.986   8.521  0.8336  0.3099  0.1187
38889SOL    HW123907   8.581   1.028   8.436 -1.0695  0.4830  0.4491
38889SOL    HW223908   8.687   0.998   8.540  0.5681  3.6987 -0.1688
38890SOL     OW23909   2.663   5.864   8.883  0.3438  0.3811 -0.2543
38890SOL    HW123910   2.601   5.862   8.810  1.6987  1.4249 -1.4779
38890SOL    HW223911   2.624   5.925   8.946  0.1430  1.0660 -1.0332
38891SOL     OW23912   1.750  11.788   2.822  0.2741 -0.4923 -0.2487
38891SOL    HW123913   1.828  11.754   2.866  1.5700  1.1939 -1.1394
38891SOL    HW223914   1.680  11.779   2.887  0.7026 -3.7918 -0.0703
38892SOL     OW23915   1.392   0.762   8.336  0.0973 -0.1003 -0.4178
38892SOL    HW123916   1.349   0.787   8.254  1.1047  0.7833 -0.6914
38892SOL    HW223917   1.466   0.708   8.309  0.4157  0.1695 -0.0806
38893SOL     OW23918   6.086   4.001   2.127 -0.4106 -0.1598  0.0495
38893SOL    HW123919   6.142   4.060   2.076  0.4870  0.0466  1.2261
38893SOL    HW223920   6.044   3.944   2.062 -0.7364  1.2873 -1.0555
38894SOL     OW23921   6.121  11.846   0.023  0.0338  0.1250 -0.3758
38894SOL    HW123922   6.077  11.929   0.040 -0.2669 -0.0040 -0.5172
38894SOL    HW223923   6.193  11.843   0.087  0.6362  0.9304 -0.9947
38895SOL     OW23924   0.286   0.968   4.962  0.4591  0.3417  0.0647
38895SOL    HW123925   0.301   0.997   5.052  0.8584  0.9678 -0.2009
38895SOL    HW223926   0.373   0.954   4.926  0.3022  0.1571 -0.2498
38896SOL     OW23927   5.449   6.709  12.495  0.3136 -0.0283 -0.2443
38896SOL    HW123928   5.367   6.660  12.503  0.7140 -0.8254 -0.8377
38896SOL    HW223929   5.516   6.641  12.486  1.0683  0.6059  0.4147
38897SOL     OW23930   3.832   0.489  11.287  0.8100 -0.1847  0.5493
38897SOL    HW123931   3.864   0.506  11.376 -0.7825  0.0329  1.1238
38897SOL    HW223932   3.860   0.564  11.236  1.4432 -0.1406  0.9582
38898SOL     OW23933   6.716   9.951   1.246  0.0369 -0.0114 -0.4315
38898SOL    HW123934   6.660  10.026   1.225 -2.1037 -1.6658 -1.0330
38898SOL    HW223935   6.719   9.949   1.341 -1.4804 -0.2218 -0.3612
38899SOL     OW23936   3.966   3.954   4.985 -0.9103 -0.0846 -0.4166
38899SOL    HW123937   4.061   3.957   4.977 -0.9256  1.2038 -0.2444
38899SOL    HW223938   3.950   3.945   5.080 -0.9752  1.1148 -0.3080
38900SOL     OW23939   1.918   0.505   4.299 -0.0824  0.2096 -0.1605
38900SOL    HW123940   1.939   0.597   4.313  2.3368  0.0137 -1.8452
38900SOL    HW223941   1.831   0.505   4.260 -0.1891  1.7789  0.0388
38901SOL     OW23942  12.468   3.835  12.526 -0.3918 -0.1733 -0.1433
38901SOL    HW123943  12.482   3.825  12.432  2.1649  0.5636  0.0846
38901SOL    HW223944  12.550   3.805  12.566 -0.3960  1.9499  1.6637
38902SOL     OW23945   3.571   0.245   8.150 -0.3265  0.2109 -0.0672
38902SOL    HW123946   3.557   0.182   8.080  1.1815 -0.3123  0.0815
38902SOL    HW223947   3.483   0.259   8.187 -0.7886 -1.2739 -0.5394
38903SOL     OW23948  11.788  11.522   3.775 -0.3531  0.1888  0.0498
38903SOL    HW123949  11.759  11.534   3.865  0.2118 -1.8109  0.5474
38903SOL    HW223950  11.876  11.484   3.783  0.5206  1.7534 -1.3795
38904SOL     OW23951   5.598  10.787  10.576 -0.7864  0.4737 -0.5214
38904SOL    HW123952   5.520  10.815  10.529 -1.5282 -0.9647 -0.2128
38904SOL    HW223953   5.571  10.708  10.623  0.9340 -0.2522 -0.6558
38905SOL     OW23954   7.656   2.887   9.943 -0.1857 -0.2756 -0.7080
38905SOL    HW123955   7.685   2.796   9.940 -0.9325 -0.4987 -1.4600
38905SOL    HW223956   7.666   2.913  10.035  1.0868 -0.7626 -0.6923
38906SOL     OW23957   0.531  10.350   3.914  0.4409  0.2139  0.3407
38906SOL    HW123958   0.445  10.365   3.875 -0.0162 -3.0118 -0.2105
38906SOL    HW223959   0.591  10.402   3.861 -0.8107  0.0611 -1.3294
38907SOL     OW23960   8.770  10.801   8.852  0.3651 -0.1274  0.0520
38907SOL    HW123961   8.796  10.893   8.842 -1.3201  0.4818  0.9032
38907SOL    HW223962   8.754  10.791   8.946  0.3242 -1.2437 -0.0629
38908SOL     OW23963   8.560   2.740   9.248  0.0137 -0.3294  0.0253
38908SOL    HW123964   8.528   2.683   9.178 -0.4805  0.4863 -0.4213
38908SOL    HW223965   8.482   2.757   9.302 -0.2082  1.1588 -0.7144
38909SOL     OW23966   1.042   8.603   0.711 -0.3168  0.3395 -0.1694
38909SOL    HW123967   1.080   8.671   0.655 -0.9565 -0.3633 -1.4981
38909SOL    HW223968   1.109   8.535   0.715  1.5954  2.1404  3.5532
38910SOL     OW23969   5.273   5.480  12.063  0.8739  0.3287  0.4351
38910SOL    HW123970   5.245   5.567  12.035  0.7545 -0.4682 -2.1434
38910SOL    HW223971   5.369   5.482  12.056  0.9160  0.3982  0.9436
38911SOL     OW23972   7.471   9.764  12.192 -0.3095  0.2332  0.0002
38911SOL    HW123973   7.448   9.718  12.112 -1.0420 -0.5614  0.6466
38911SOL    HW223974   7.535   9.830  12.165  0.0270 -0.5212 -1.1051
38912SOL     OW23975  11.494   6.110  11.843  0.2930 -0.2630  0.0958
38912SOL    HW123976  11.568   6.067  11.798 -1.6359 -2.3059 -1.3485
38912SOL    HW223977  11.471   6.048  11.913  1.2596  1.4216  2.0223
38913SOL     OW23978  12.160   6.688   9.623 -0.1353 -0.3460  0.1518
38913SOL    HW123979  12.137   6.757   9.686  1.2160 -0.0272  0.3148
38913SOL    HW223980  12.252   6.669   9.640 -0.5802 -2.5166  0.4044
38914SOL     OW23981   6.502   3.792   6.703 -0.1779  0.2936  0.1627
38914SOL    HW123982   6.575   3.805   6.644 -0.8321 -0.1309 -0.7615
38914SOL    HW223983   6.535   3.729   6.768  0.6120  0.9367  0.3970
38915SOL     OW23984   1.290   2.278   3.265 -0.2519 -0.1421  0.0560
38915SOL    HW123985   1.349   2.271   3.191  0.9560 -0.1348  0.9943
38915SOL    HW223986   1.227   2.346   3.240  1.6937  1.7403  0.0781
38916SOL     OW23987   7.540   1.626   6.501 -0.5844 -0.5663 -0.2431
38916SOL    HW123988   7.527   1.553   6.562 -0.8258 -0.9264 -0.7130
38916SOL    HW223989   7.455   1.636   6.458 -0.4914 -0.1447 -0.3339
38917SOL     OW23990  10.676   0.702   0.515 -0.1463 -0.1437 -0.3208
38917SOL    HW123991  10.710   0.624   0.472  1.5041 -0.6513  1.7394
38917SOL    HW223992  10.647   0.671   0.601 -1.3139  1.1898 -0.1961
38918SOL     OW23993   9.210   3.488  10.042  0.2408 -0.2222 -0.2673
38918SOL    HW123994   9.258   3.564  10.074  0.2584  0.8501 -2.6131
38918SOL    HW223995   9.142   3.472  10.107  2.2972 -0.3307  1.9579
38919SOL     OW23996   9.579   7.694  12.397  0.3550  0.0760 -0.2467
38919SOL    HW123997   9.650   7.630  12.407  0.2994  0.3170  2.1252
38919SOL    HW223998   9.518   7.652  12.335  2.1129 -0.4969 -1.6865
38920SOL     OW23999   1.549   9.761   1.652 -0.0310 -0.4169 -0.0898
38920SOL    HW124000   1.542   9.669   1.627  0.2217 -0.8156  1.2438
38920SOL    HW224001   1.535   9.762   1.747 -0.9466  1.0330 -0.2009
38921SOL     OW24002  10.792   8.728   7.548  0.0069 -0.1110  0.2408
38921SOL    HW124003  10.860   8.795   7.557 -0.0520 -0.1398  0.9128
38921SOL    HW224004  10.754   8.720   7.635 -2.4094  1.5306 -0.5555
38922SOL     OW24005   1.151   7.059   2.602  0.5893 -0.3163  0.0465
38922SOL    HW124006   1.155   7.009   2.521  1.6605 -0.5073  0.1991
38922SOL    HW224007   1.216   7.018   2.659  1.9955  1.6332 -0.0532
38923SOL     OW24008   0.134   2.963   7.980  0.4722 -0.2894  0.3577
38923SOL    HW124009   0.097   3.037   7.933 -0.1216 -0.4141  0.6277
38923SOL    HW224010   0.072   2.891   7.966  0.6209 -0.5073  0.7890
38924SOL     OW24011  12.235  10.662   7.596 -0.5074  0.1805 -0.0936
38924SOL    HW124012  12.243  10.624   7.508 -1.7241  0.7198 -0.4677
38924SOL    HW224013  12.143  10.651   7.618 -0.6526  1.8303  0.2766
38925SOL     OW24014   0.415   0.480   4.004  0.3733 -0.1002 -0.3482
38925SOL    HW124015   0.346   0.472   4.070  0.0545 -0.1061 -0.6766
38925SOL    HW224016   0.411   0.572   3.976  0.7657  0.0007 -0.0853
38926SOL     OW24017   9.735   1.545   2.487  0.0093 -0.3785  0.1250
38926SOL    HW124018   9.649   1.504   2.475 -0.0993 -0.0155 -0.3762
38926SOL    HW224019   9.793   1.498   2.427 -0.3456  0.8617 -1.2557
38927SOL     OW24020   4.849  10.901   1.943 -0.1585  0.0280 -0.1095
38927SOL    HW124021   4.887  10.929   2.026 -2.5450 -0.8344  1.3823
38927SOL    HW224022   4.897  10.950   1.876  1.7095  0.8952  1.7601
38928SOL     OW24023   0.493   0.453   3.053 -0.0221  0.4264 -0.1116
38928SOL    HW124024   0.458   0.370   3.085  1.2224 -0.1142 -0.0957
38928SOL    HW224025   0.545   0.429   2.976 -1.0280  1.4158 -1.1414
38929SOL     OW24026   2.116   1.995   3.796  0.4895 -0.0484  0.0002
38929SOL    HW124027   2.162   1.927   3.844 -0.0132 -0.5857 -0.2753
38929SOL    HW224028   2.036   2.011   3.847 -0.1968 -0.8385 -0.8072
38930SOL     OW24029   0.142   5.801   7.323 -0.1780  0.3576 -0.6039
38930SOL    HW124030   0.081   5.875   7.323  0.4243  0.8561 -0.8595
38930SOL    HW224031   0.217   5.831   7.272  0.8608  0.2077  0.7928
38931SOL     OW24032   0.389   5.001   9.051 -0.4797 -0.2933  0.0278
38931SOL    HW124033   0.454   4.931   9.057 -0.5902 -0.7067 -2.4926
38931SOL    HW224034   0.314   4.960   9.009 -1.5263  0.7537  0.8085
38932SOL     OW24035   1.422   6.878   5.121 -0.8459 -0.6150 -0.4530
38932SOL    HW124036   1.449   6.829   5.198 -1.1476  1.7302  1.2709
38932SOL    HW224037   1.332   6.907   5.140  0.0339  2.3776 -0.3058
38933SOL     OW24038   4.800   3.977   0.481  0.8259  0.2867  0.0195
38933SOL    HW124039   4.731   4.036   0.512  0.1239 -1.6277  2.4534
38933SOL    HW224040   4.851   4.030   0.420  0.6832  3.6153  2.4976
38934SOL     OW24041   6.185  11.937   2.620 -0.2691 -0.3677  0.0248
38934SOL    HW124042   6.241  11.904   2.550 -0.4625 -1.4371  0.3577
38934SOL    HW224043   6.107  11.970   2.575  1.4267  3.1373 -0.6615
38935SOL     OW24044   2.742  11.492   8.218 -0.3586 -0.3033  0.1899
38935SOL    HW124045   2.790  11.446   8.150  1.2409 -0.3741  1.3120
38935SOL    HW224046   2.656  11.509   8.180 -0.5000 -2.8675 -0.8337
38936SOL     OW24047  11.097   7.720   7.226  0.1462  0.1418  0.2163
38936SOL    HW124048  11.176   7.774   7.229  0.3687 -0.2162  1.6037
38936SOL    HW224049  11.054   7.736   7.310 -0.6323 -0.5949 -0.0268
38937SOL     OW24050  11.946   7.175   3.169  0.0611  0.2083  0.1937
38937SOL    HW124051  11.921   7.266   3.153 -0.4450 -0.2797 -2.0884
38937SOL    HW224052  11.925   7.129   3.088  1.6417 -1.6753  0.7597
38938SOL     OW24053   6.610   5.037   1.055  0.2780 -0.0314 -0.6812
38938SOL    HW124054   6.563   5.062   0.975  0.8928 -0.0473 -1.0514
38938SOL    HW224055   6.686   5.095   1.057 -1.0135  1.7264  1.2202
38939SOL     OW24056  10.934   8.640   5.174  0.2725  0.4243  0.0207
38939SOL    HW124057  10.941   8.645   5.079 -0.7570 -1.1409 -0.1746
38939SOL    HW224058  10.945   8.548   5.194 -0.4895  0.5886  1.3222
38940SOL     OW24059   7.944   5.823   4.679 -0.0402  0.1149  0.1040
38940SOL    HW124060   7.951   5.898   4.620  0.3832 -0.1073 -0.1316
38940SOL    HW224061   8.030   5.816   4.719  0.0152 -0.4285 -0.1008
38941SOL     OW24062   7.412   1.298   0.281  0.4689 -0.0908 -0.0913
38941SOL    HW124063   7.434   1.289   0.374  1.4266 -2.6782 -0.4921
38941SOL    HW224064   7.475   1.243   0.236 -0.4287  0.5469 -2.2486
38942SOL     OW24065   2.246  10.662   7.931  0.7060  0.3505  0.1054
38942SOL    HW124066   2.308  10.624   7.993 -0.6235 -2.2588 -0.0575
38942SOL    HW224067   2.172  10.690   7.985 -0.0735 -1.1276 -0.1372
38943SOL     OW24068   5.660   1.187   6.991 -0.1392 -0.0804  0.2600
38943SOL    HW124069   5.733   1.138   7.028  0.8113 -0.8210 -2.3767
38943SOL    HW224070   5.690   1.277   6.988 -0.1553 -0.0450  1.0643
38944SOL     OW24071   7.795   8.102   0.672 -0.4411 -0.0703 -0.0887
38944SOL    HW124072   7.724   8.101   0.736 -1.1326 -0.1817 -0.8488
38944SOL    HW224073   7.866   8.052   0.714 -1.7070 -2.1919 -0.3376
38945SOL     OW24074   7.774  12.155   0.615 -0.2355  0.2487 -0.3722
38945SOL    HW124075   7.692  12.121   0.650 -0.0878  0.5152  0.2417
38945SOL    HW224076   7.787  12.106   0.534 -1.0495  0.2741 -0.5298
38946SOL     OW24077   9.091   3.601   3.185  0.1054  0.3855 -0.6614
38946SOL    HW124078   9.027   3.531   3.176 -0.1774  0.3938  0.9672
38946SOL    HW224079   9.081   3.654   3.106 -1.5004  0.0643 -0.6935
38947SOL     OW24080   9.193   5.659   9.677 -0.1670  0.2722  0.5516
38947SOL    HW124081   9.105   5.622   9.681  0.2304 -0.7947 -0.1713
38947SOL    HW224082   9.194   5.710   9.596 -0.2601  0.6972  0.8111
38948SOL     OW24083   2.674   1.487   5.788 -0.0665  0.1432  0.1803
38948SOL    HW124084   2.592   1.447   5.758  0.7392 -0.8069 -0.8737
38948SOL    HW224085   2.687   1.451   5.876 -1.3531  1.2297  0.8463
38949SOL     OW24086   7.159   0.688   2.964  0.2416  0.4789 -0.7636
38949SOL    HW124087   7.206   0.770   2.981 -1.6377  1.3329  0.5918
38949SOL    HW224088   7.103   0.675   3.040 -0.9597 -1.0588 -1.8219
38950SOL     OW24089  10.904   8.390   7.019  0.5065  0.2384 -0.0114
38950SOL    HW124090  10.980   8.441   7.048  0.3939  0.0787  0.5769
38950SOL    HW224091  10.910   8.308   7.069  1.3891 -0.8731 -1.8231
38951SOL     OW24092   0.090   5.960   9.330 -0.7616 -0.1202 -0.2530
38951SOL    HW124093   0.134   6.037   9.365 -2.0248 -0.1670  1.5313
38951SOL    HW224094   0.159   5.914   9.282  1.1077  0.0069  2.0911
38952SOL     OW24095   2.288  10.285   5.741  0.0448 -0.2529 -0.5780
38952SOL    HW124096   2.199  10.275   5.710 -0.5006  0.2659  0.7449
38952SOL    HW224097   2.330  10.343   5.678 -0.6793 -0.1491 -0.9676
38953SOL     OW24098  11.913   8.755  11.765 -0.5384 -0.1468 -0.9181
38953SOL    HW124099  11.955   8.806  11.697 -1.0909  2.0806  0.3176
38953SOL    HW224100  11.965   8.771  11.844 -1.8624  0.1442 -0.0616
38954SOL     OW24101   5.580   3.888   9.399 -0.0979 -0.1242  0.0961
38954SOL    HW124102   5.548   3.956   9.340  1.3198  0.6866  0.2134
38954SOL    HW224103   5.506   3.829   9.410 -1.3407  1.3383 -0.1022
38955SOL     OW24104  10.165   7.367   1.868 -0.2432 -0.0252 -0.2589
38955SOL    HW124105  10.094   7.343   1.809 -1.3021  1.3969  0.3999
38955SOL    HW224106  10.171   7.295   1.930 -1.0786 -0.1671 -0.3425
38956SOL     OW24107  11.125  12.179   3.493  0.5414 -0.5275  0.2305
38956SOL    HW124108  11.048  12.184   3.436  0.5368  2.4121  0.3169
38956SOL    HW224109  11.088  12.166   3.580  0.4225 -2.7665 -0.0967
38957SOL     OW24110   3.043   2.701  12.274 -0.3281  0.5436  0.1620
38957SOL    HW124111   2.972   2.692  12.210  0.2135 -0.8420 -0.2860
38957SOL    HW224112   3.095   2.775  12.242 -1.1548  1.1089  0.0997
38958SOL     OW24113   0.545  11.783   8.248 -0.4346  0.3624  0.5395
38958SOL    HW124114   0.570  11.736   8.169  2.3671  0.2418  1.4067
38958SOL    HW224115   0.595  11.742   8.318 -1.6775  1.4530  2.1483
38959SOL     OW24116   3.469   4.561   2.622  0.0181  0.7479 -0.0722
38959SOL    HW124117   3.459   4.467   2.609 -0.8345  0.9254 -0.7948
38959SOL    HW224118   3.396   4.585   2.679  1.4688  0.6396  1.9628
38960SOL     OW24119   8.289   7.960  10.936 -0.3717  0.3840 -0.2153
38960SOL    HW124120   8.374   7.955  10.981 -0.2412  1.6370 -0.2805
38960SOL    HW224121   8.259   8.049  10.953 -2.2153 -0.3742  0.7436
38961SOL     OW24122   7.921   0.790   8.777  0.3041  0.2552  0.1689
38961SOL    HW124123   8.001   0.842   8.791  1.5255 -1.5687  0.3387
38961SOL    HW224124   7.875   0.796   8.861 -0.1811  1.9548 -0.1690
38962SOL     OW24125   6.797  12.279   4.661 -0.0748 -0.1215 -0.7143
38962SOL    HW124126   6.892  12.273   4.668 -0.0373  0.8335 -0.1480
38962SOL    HW224127   6.776  12.366   4.696 -1.1825 -0.4401 -0.5451
38963SOL     OW24128  12.532   2.490   4.700  0.2982 -0.0358  0.7841
38963SOL    HW124129  12.498   2.488   4.790 -0.7196  1.0809  0.4554
38963SOL    HW224130  12.578   2.406   4.690 -1.3199 -1.0848  1.6769
38964SOL     OW24131   8.489  10.913   6.590  0.2906  0.0898 -0.1696
38964SOL    HW124132   8.546  10.968   6.536  0.6946 -1.0744 -0.9724
38964SOL    HW224133   8.512  10.936   6.680  1.4479  0.2272 -0.4844
38965SOL     OW24134  10.162   5.855   6.781  0.1652  0.2226  0.0047
38965SOL    HW124135  10.217   5.909   6.836 -0.0272  0.0243  0.3941
38965SOL    HW224136  10.169   5.767   6.819 -1.3065  0.4027  0.7532
38966SOL     OW24137   8.254   8.865   9.120  1.0844  0.1348  0.4085
38966SOL    HW124138   8.241   8.951   9.159 -0.9063  0.3421 -0.5583
38966SOL    HW224139   8.181   8.856   9.059  0.8742 -2.5137  0.9461
38967SOL     OW24140  12.069   3.860   0.428 -0.3288  0.1929  0.0307
38967SOL    HW124141  12.069   3.944   0.381 -0.4018  1.2882  1.8977
38967SOL    HW224142  12.159   3.828   0.417  0.2048  1.3783  0.7193
38968SOL     OW24143   3.229   8.114  12.548 -0.0154  0.3103 -0.2438
38968SOL    HW124144   3.323   8.129  12.555 -0.0671  0.0895  1.1375
38968SOL    HW224145   3.205   8.069  12.629 -1.4334  1.0160 -0.2335
38969SOL     OW24146   0.460   8.738   6.294  0.2928 -0.6049 -0.0556
38969SOL    HW124147   0.420   8.741   6.207 -0.3718 -0.8310  0.2321
38969SOL    HW224148   0.389   8.708   6.352  0.0923  1.4925  0.8955
38970SOL     OW24149   2.827   7.480   1.102  0.3610 -0.4689 -0.0268
38970SOL    HW124150   2.848   7.522   1.019 -2.1550  0.0536 -0.4646
38970SOL    HW224151   2.840   7.549   1.168  0.0141 -0.1751 -0.2680
38971SOL     OW24152   5.097   5.783   6.621 -0.1739 -0.1333  0.2698
38971SOL    HW124153   5.016   5.771   6.671  0.7199  0.1384  1.8447
38971SOL    HW224154   5.152   5.709   6.647  0.6237  0.4708  0.3576
38972SOL     OW24155   7.379  10.760  12.327  0.2153  0.0847  0.4629
38972SOL    HW124156   7.394  10.841  12.375 -0.7547 -0.0703  1.0461
38972SOL    HW224157   7.383  10.692  12.394 -0.2716 -0.2212  0.1871
38973SOL     OW24158  10.271  11.963   6.536  0.1503  0.6206 -0.1655
38973SOL    HW124159  10.248  11.936   6.625 -0.9372 -1.1745 -0.9297
38973SOL    HW224160  10.191  11.949   6.485  1.5741 -1.4914 -2.0480
38974SOL     OW24161   3.071  11.600  11.622 -0.0815  0.0644 -0.2385
38974SOL    HW124162   3.003  11.667  11.629  0.4299  0.7527 -1.5740
38974SOL    HW224163   3.068  11.573  11.530  0.4529 -0.9641  0.0374
38975SOL     OW24164   8.770  10.218  11.053 -0.1937  0.1692  0.1789
38975SOL    HW124165   8.770  10.286  10.986  1.1497 -0.0713 -0.0847
38975SOL    HW224166   8.753  10.137  11.005  1.0040 -0.0338  0.0898
38976SOL     OW24167   2.917   5.229   0.407 -0.0882 -0.0026  0.4749
38976SOL    HW124168   2.895   5.316   0.375 -0.6003 -0.8688 -1.7012
38976SOL    HW224169   2.979   5.245   0.479 -0.6132  2.1388  0.5287
38977SOL     OW24170   9.315   8.117  10.069 -0.2938  0.8353  0.4741
38977SOL    HW124171   9.339   8.146  10.157  0.0670  0.0858  0.6389
38977SOL    HW224172   9.236   8.166  10.047  0.1011  1.6625  0.8669
38978SOL     OW24173   9.037   6.102   6.700  0.4792  1.0796 -0.1899
38978SOL    HW124174   9.021   6.071   6.611 -0.1078 -0.6035  0.4568
38978SOL    HW224175   9.132   6.093   6.712  0.5351  1.1350 -0.5736
38979SOL     OW24176   1.669  11.740   7.543  0.4386 -0.0563 -0.0687
38979SOL    HW124177   1.741  11.677   7.548 -0.6188 -1.2318  0.8205
38979SOL    HW224178   1.646  11.759   7.634  0.1473  0.9352 -0.3324
38980SOL     OW24179  11.700   1.727  10.701 -0.1396 -1.1431 -0.0166
38980SOL    HW124180  11.638   1.785  10.657 -0.8295 -1.3326  0.6839
38980SOL    HW224181  11.786   1.760  10.676 -0.5061 -1.4645 -1.7879
38981SOL     OW24182  11.764  10.014   7.959  0.4739 -0.4918  0.2324
38981SOL    HW124183  11.683   9.984   8.001 -0.7682  1.6115 -0.5289
38981SOL    HW224184  11.749  10.001   7.865  1.3583 -0.8269  0.1267
38982SOL     OW24185   2.313   9.564  10.260 -0.1421  0.2640 -0.5382
38982SOL    HW124186   2.264   9.621  10.320  0.8981  0.9200 -0.2855
38982SOL    HW224187   2.266   9.570  10.177  0.4356  2.2179 -0.7667
38983SOL     OW24188   1.306   4.635   8.282  0.0094 -0.5530  0.1847
38983SOL    HW124189   1.353   4.563   8.240  1.8785  0.8420 -0.2346
38983SOL    HW224190   1.370   4.705   8.289 -1.6909  1.0363  0.7332
38984SOL     OW24191   5.281  11.135   1.144  0.2228  0.1391  0.4099
38984SOL    HW124192   5.288  11.150   1.050 -1.3690 -0.5305  0.1559
38984SOL    HW224193   5.272  11.041   1.152  1.1630  0.1122  1.3157
38985SOL     OW24194   9.686   5.226   4.123 -0.1803  0.0646 -0.1422
38985SOL    HW124195   9.759   5.238   4.184 -0.3507 -0.0398  0.0819
38985SOL    HW224196   9.648   5.313   4.114  1.0326  0.4878 -1.6103
38986SOL     OW24197   3.135   5.611   7.701  0.0542  0.5761  0.7734
38986SOL    HW124198   3.089   5.567   7.773  0.4950 -1.1971  0.0253
38986SOL    HW224199   3.067   5.627   7.635  0.2517 -1.1167  0.0994
38987SOL     OW24200   7.172  10.907   6.684 -0.1132  0.3177  0.6200
38987SOL    HW124201   7.084  10.868   6.687 -0.3170  0.5925 -0.7502
38987SOL    HW224202   7.231  10.832   6.674 -0.6868  0.1308 -5.0574
38988SOL     OW24203   5.498   0.729   5.998  0.0209 -0.2577 -0.6481
38988SOL    HW124204   5.541   0.807   6.032  0.5792 -0.4921 -0.7866
38988SOL    HW224205   5.489   0.671   6.074 -1.2705  0.3174 -0.3543
38989SOL     OW24206   1.735   8.136   6.883  0.3444 -0.0724 -0.1496
38989SOL    HW124207   1.688   8.053   6.880 -0.4408  0.3760 -1.6936
38989SOL    HW224208   1.667   8.202   6.876  1.0041  0.6898  0.4332
38990SOL     OW24209   4.634   2.107   2.177  0.3487  0.0916  0.3304
38990SOL    HW124210   4.540   2.098   2.191 -0.2080  0.4028 -2.6495
38990SOL    HW224211   4.663   2.019   2.152  0.7293  0.1737  0.4671
38991SOL     OW24212   6.959   7.057   2.162 -0.2257  0.1101 -0.2478
38991SOL    HW124213   7.047   7.079   2.194  0.4863 -1.4706 -1.0057
38991SOL    HW224214   6.903   7.127   2.196  1.4677  1.6903 -0.5493
38992SOL     OW24215   9.590   5.592   9.132  0.2838  0.2036  0.1382
38992SOL    HW124216   9.674   5.613   9.174 -0.7472  0.5722  2.1641
38992SOL    HW224217   9.593   5.639   9.049  1.7352  0.9295  0.5494
38993SOL     OW24218  11.484   9.608   7.853  0.2716  0.4920 -0.3850
38993SOL    HW124219  11.397   9.578   7.878  0.5908 -0.0008  0.1533
38993SOL    HW224220  11.503   9.560   7.772  0.8473 -0.9445  0.5551
38994SOL     OW24221   1.311   7.873  12.096  0.0732 -0.0675  0.3959
38994SOL    HW124222   1.261   7.952  12.081 -1.3878 -1.2044 -1.1176
38994SOL    HW224223   1.372   7.895  12.166 -1.6930  1.7582  1.4344
38995SOL     OW24224  10.411  10.539   3.419 -0.0622 -0.2440 -0.6512
38995SOL    HW124225  10.346  10.483   3.460 -0.2363  0.0594 -0.5100
38995SOL    HW224226  10.362  10.589   3.354 -0.2933  1.1583  0.5618
38996SOL     OW24227  12.122   5.374   8.431  0.0867 -0.2487  0.0366
38996SOL    HW124228  12.103   5.456   8.385 -0.7475 -0.5155 -0.1195
38996SOL    HW224229  12.215   5.360   8.418 -0.0112  0.0168 -1.0222
38997SOL     OW24230   7.009   1.160   6.749  0.9023 -0.8961  0.1805
38997SOL    HW124231   6.915   1.169   6.731  1.3482  1.7538 -1.2262
38997SOL    HW224232   7.017   1.176   6.843  0.1035  0.7964 -0.0037
38998SOL     OW24233  10.121   9.465   1.888 -1.5043 -0.8381  0.1002
38998SOL    HW124234  10.151   9.437   1.974  1.9627 -1.9984 -1.2738
38998SOL    HW224235  10.083   9.386   1.849 -1.7290 -0.7039  0.0468
38999SOL     OW24236   7.728  10.203   3.356 -0.0435  0.6401  0.1944
38999SOL    HW124237   7.797  10.232   3.296  1.1132 -0.4170  0.9821
38999SOL    HW224238   7.724  10.109   3.345  1.4688  0.1314  3.0094
39000SOL     OW24239   1.536   8.667  11.469  0.6497  0.2686 -0.1999
39000SOL    HW124240   1.560   8.725  11.541  1.5549 -0.8756  0.4486
39000SOL    HW224241   1.557   8.579  11.501  0.3561 -0.3263 -1.5771
39001SOL     OW24242   5.079   0.568   3.845  0.2458 -0.1147 -0.5393
39001SOL    HW124243   5.025   0.532   3.775  1.4820  1.9411 -2.7199
39001SOL    HW224244   5.169   0.550   3.818  0.7637 -1.2134  1.7115
39002SOL     OW24245   6.173  10.511   1.696  0.1078 -0.4371  0.3926
39002SOL    HW124246   6.189  10.436   1.639 -0.7259 -1.0274  0.9100
39002SOL    HW224247   6.248  10.512   1.756 -0.8478 -2.1457  1.7143
39003SOL     OW24248   2.051   4.141   0.198 -0.7406  0.0785  0.2519
39003SOL    HW124249   2.098   4.131   0.281 -1.7345  2.0299  1.1144
39003SOL    HW224250   2.116   4.176   0.137  0.1383 -1.8683 -0.0133
39004SOL     OW24251  12.612  11.569   7.557  0.5353 -0.0340  0.1849
39004SOL    HW124252  12.607  11.658   7.592 -1.3017 -1.0102  2.7524
39004SOL    HW224253  12.661  11.520   7.624  1.3184 -1.0463 -1.0639
39005SOL     OW24254   1.053   0.041   6.748  0.1148 -0.3837 -0.1346
39005SOL    HW124255   1.035  -0.033   6.806 -1.4633  0.4568  0.5262
39005SOL    HW224256   1.072   0.001   6.663 -0.5816 -1.5653  0.2392
39006SOL     OW24257   9.711   7.700   1.074 -0.5999 -0.4816  0.5601
39006SOL    HW124258   9.638   7.761   1.084 -0.7473 -0.7255  1.0378
39006SOL    HW224259   9.670   7.617   1.052 -0.5984 -0.9530  2.1786
39007SOL     OW24260   9.970   6.990   4.866 -0.0216  0.3471  0.0866
39007SOL    HW124261   9.885   6.949   4.847  0.0818 -1.2091  2.5067
39007SOL    HW224262  10.025   6.967   4.791 -1.0476 -0.7958 -0.3471
39008SOL     OW24263   9.848   3.956   0.242 -0.5003  0.5187 -0.4208
39008SOL    HW124264   9.761   3.996   0.234  0.2687  2.0973 -1.4498
39008SOL    HW224265   9.869   3.927   0.154 -0.1014 -0.1230 -0.1160
39009SOL     OW24266   5.184  12.482  10.245  0.1814  0.0935  0.4465
39009SOL    HW124267   5.264  12.447  10.285  0.8059 -0.3476 -1.1127
39009SOL    HW224268   5.164  12.560  10.296  0.8846 -0.4906  1.6569
39010SOL     OW24269   5.445   3.848   2.093  0.2826 -0.0229 -0.6026
39010SOL    HW124270   5.442   3.791   2.171  1.4415  0.8111  0.0789
39010SOL    HW224271   5.504   3.803   2.033  0.3211 -0.0773 -0.5242
39011SOL     OW24272   8.216   7.612   6.537 -0.1791 -0.0629  0.1287
39011SOL    HW124273   8.233   7.547   6.605  0.4088 -1.8740 -1.6239
39011SOL    HW224274   8.281   7.681   6.552  2.1955 -2.0091 -0.4741
39012SOL     OW24275  12.553   9.568   2.043  0.4705  0.1647  0.0127
39012SOL    HW124276  12.558   9.506   2.116 -1.1959  0.1769  0.1795
39012SOL    HW224277  12.637   9.560   1.999 -0.1026 -3.1207 -0.6875
39013SOL     OW24278  10.761   6.400   0.164  0.1699  0.0477  0.0424
39013SOL    HW124279  10.721   6.420   0.079  0.1503  0.0052  0.0412
39013SOL    HW224280  10.812   6.477   0.186  0.2712  0.0114 -0.0662
39014SOL     OW24281   9.610  12.530   8.432 -0.0994  0.3470  0.1560
39014SOL    HW124282   9.697  12.559   8.405 -0.4526 -0.4449 -1.9700
39014SOL    HW224283   9.559  12.610   8.440  0.3436  0.6876 -0.3716
39015SOL     OW24284   4.778   1.003   4.991 -0.0825  0.1003  0.1525
39015SOL    HW124285   4.756   0.929   5.048 -1.5788 -0.0379 -0.5739
39015SOL    HW224286   4.775   1.079   5.049  0.7946 -0.3104  0.7570
39016SOL     OW24287  10.126   2.893   5.621 -0.8021  0.3598  0.0874
39016SOL    HW124288  10.045   2.860   5.583 -0.8350 -0.3176  0.7341
39016SOL    HW224289  10.133   2.849   5.706 -0.5356  1.5452  0.7086
39017SOL     OW24290  11.864   0.726   0.051 -0.6905  0.5652  0.3844
39017SOL    HW124291  11.885   0.686   0.135  2.0786  0.6627 -0.1578
39017SOL    HW224292  11.780   0.769   0.065 -2.2055 -2.5727  1.9663
39018SOL     OW24293   7.334   1.471   7.596  0.6436 -0.1495  0.2979
39018SOL    HW124294   7.294   1.504   7.676  0.3970 -1.1890  0.6122
39018SOL    HW224295   7.384   1.546   7.561 -1.3818  1.1290 -0.0067
39019SOL     OW24296   8.975   5.255   9.002 -0.1549 -0.4502 -0.2512
39019SOL    HW124297   9.001   5.334   8.953 -1.9569  0.4562  0.1665
39019SOL    HW224298   8.935   5.289   9.082 -1.0089 -1.7789 -0.0866
39020SOL     OW24299   3.609   7.042   2.167 -0.1153  0.6007  0.1790
39020SOL    HW124300   3.616   7.098   2.089  1.6505  0.6242  0.3055
39020SOL    HW224301   3.586   6.956   2.133 -1.1114  0.9933 -0.1821
39021SOL     OW24302   2.903   4.853   4.387  0.2673  0.5616  0.1120
39021SOL    HW124303   2.971   4.884   4.328 -0.5111 -1.6496 -2.1296
39021SOL    HW224304   2.924   4.760   4.401 -1.3521  0.2529  0.7462
39022SOL     OW24305  10.677   0.899  11.158 -0.1369  0.3633  0.2879
39022SOL    HW124306  10.654   0.821  11.210  2.3228  1.2124  2.9013
39022SOL    HW224307  10.761   0.876  11.117  0.2230  1.3412  0.4532
39023SOL     OW24308   2.365  10.308   8.421 -0.1612 -0.2074  0.0014
39023SOL    HW124309   2.347  10.238   8.358 -0.7593 -0.7352  0.7400
39023SOL    HW224310   2.415  10.266   8.490 -2.3915 -0.5168  1.5600
39024SOL     OW24311   2.425   2.918   7.554 -0.2758 -0.1322  0.1342
39024SOL    HW124312   2.356   2.886   7.612 -1.1293  1.0380 -0.2093
39024SOL    HW224313   2.492   2.848   7.556 -1.0731 -0.9007  1.1235
39025SOL     OW24314   9.849  12.050   5.960  0.0047 -0.0717  0.0460
39025SOL    HW124315   9.926  12.027   5.907  0.5202 -1.0258  1.1578
39025SOL    HW224316   9.792  11.973   5.953 -0.7801  0.5538 -0.6096
39026SOL     OW24317  12.440   2.760   7.506 -0.3923  0.0394  0.0603
39026SOL    HW124318  12.431   2.680   7.455 -0.7866  0.8677 -1.2348
39026SOL    HW224319  12.387   2.825   7.458 -0.2700  1.0086  1.1926
39027SOL     OW24320  11.650   8.906   4.242  0.0011 -0.1270 -0.2243
39027SOL    HW124321  11.638   8.812   4.248  1.0666 -0.1989  1.2958
39027SOL    HW224322  11.745   8.918   4.232  0.0171  0.8144  0.8352
39028SOL     OW24323   5.204   3.198   6.259 -0.0703  0.1806 -0.4083
39028SOL    HW124324   5.199   3.241   6.344 -0.7629  0.0285 -0.3601
39028SOL    HW224325   5.240   3.265   6.200  0.6248  0.2125  0.0443
39029SOL     OW24326   3.571   2.909  12.640  0.7653 -0.3631  0.4034
39029SOL    HW124327   3.488   2.869  12.617  0.0957  0.3609  1.4833
39029SOL    HW224328   3.632   2.878  12.573 -0.7903  0.6210 -1.5455
39030SOL     OW24329   1.210   0.225   2.047  0.4252  0.1409  0.0150
39030SOL    HW124330   1.183   0.257   2.133 -0.3265  0.9117 -0.4908
39030SOL    HW224331   1.303   0.247   2.042  0.2267  1.0721  0.2131
39031SOL     OW24332   3.956   2.168   9.113 -0.5993 -0.0115 -0.3485
39031SOL    HW124333   3.890   2.149   9.046  0.4516  0.6984 -1.6271
39031SOL    HW224334   4.038   2.171   9.066  0.5105 -1.6202  1.3256
39032SOL     OW24335   4.385   9.752  12.141  0.2699  0.6935  0.1370
39032SOL    HW124336   4.440   9.688  12.186  0.1589  0.5343  0.0442
39032SOL    HW224337   4.440   9.831  12.137  0.2868  0.7068  0.5365
39033SOL     OW24338   4.221  11.657   1.063 -0.0360  0.1222  0.1981
39033SOL    HW124339   4.191  11.593   1.127 -0.3036 -3.1712 -2.9065
39033SOL    HW224340   4.315  11.668   1.082  0.0019 -1.1661  0.8790
39034SOL     OW24341   9.020  11.584   1.826 -0.5202 -0.1115 -0.1864
39034SOL    HW124342   8.977  11.625   1.750 -0.7999  0.2815  0.1783
39034SOL    HW224343   8.957  11.595   1.897 -0.5760 -1.1319 -0.0655
39035SOL     OW24344   2.246   8.830  10.343  0.5060  0.2991  0.2682
39035SOL    HW124345   2.233   8.867  10.256  0.1358 -0.3807  0.0274
39035SOL    HW224346   2.175   8.767  10.354  0.9372 -0.1187  0.7863
39036SOL     OW24347   7.076   4.334  11.167 -0.4142  0.5044  0.0784
39036SOL    HW124348   7.113   4.418  11.140  2.1146 -0.4393  0.2692
39036SOL    HW224349   7.092   4.276  11.092 -1.0305 -0.1056  0.4100
39037SOL     OW24350   7.553   2.387   1.296  0.1103  0.2452 -0.0517
39037SOL    HW124351   7.648   2.399   1.300  0.1584  0.0029 -0.4338
39037SOL    HW224352   7.517   2.473   1.317  0.4364  0.8436 -1.7381
39038SOL     OW24353   2.822   6.685  11.808  0.0665 -1.0838 -0.0341
39038SOL    HW124354   2.822   6.671  11.714  0.9293 -0.6910 -0.1036
39038SOL    HW224355   2.817   6.597  11.846 -0.6303 -1.2221 -0.4410
39039SOL     OW24356   2.847   9.943   0.176 -0.1291  0.0380 -0.3958
39039SOL    HW124357   2.835   9.960   0.083  0.4595  1.2374 -0.2714
39039SOL    HW224358   2.901   9.864   0.179 -0.0843  0.0376 -1.0686
39040SOL     OW24359   9.120   2.945   1.031  0.5413 -0.1130  0.7000
39040SOL    HW124360   9.065   2.909   1.100 -1.2726  0.2070 -0.5146
39040SOL    HW224361   9.136   3.035   1.058 -1.8272  0.6481 -0.1528
39041SOL     OW24362  10.543   6.854  11.121  0.6364  0.9142 -0.4577
39041SOL    HW124363  10.612   6.790  11.137  2.5286  3.2059  1.2403
39041SOL    HW224364  10.480   6.839  11.192  0.1338 -0.1379 -1.0924
39042SOL     OW24365   1.524   2.557   2.005  0.5838 -0.7021  0.1502
39042SOL    HW124366   1.508   2.538   2.097 -0.4579  0.8199  0.3263
39042SOL    HW224367   1.594   2.623   2.005 -1.8736  2.1266  0.1733
39043SOL     OW24368   3.976   9.824  12.450 -0.2504  0.3579 -0.1082
39043SOL    HW124369   3.911   9.890  12.425 -1.9340 -1.1055  0.1713
39043SOL    HW224370   3.965   9.815  12.545  0.1461 -0.1350 -0.1068
39044SOL     OW24371   9.069   5.905  12.436  0.4547  0.3054 -0.5076
39044SOL    HW124372   9.141   5.900  12.373  1.7012 -2.2260  0.9337
39044SOL    HW224373   9.112   5.927  12.519 -0.6265  0.1319  0.1189
39045SOL     OW24374   7.647   5.009   1.989 -0.4063  0.4145  0.2281
39045SOL    HW124375   7.724   4.978   1.941 -0.6173 -0.6375  0.5326
39045SOL    HW224376   7.610   5.077   1.933  0.1874  0.2489 -0.3899
39046SOL     OW24377   1.966   7.948   9.701 -0.6698  0.0834  0.0738
39046SOL    HW124378   1.900   7.961   9.769  0.0102  0.8377  0.5995
39046SOL    HW224379   2.025   8.023   9.709  0.1379 -0.4645 -0.5349
39047SOL     OW24380   4.355   0.190   7.832 -0.1305  0.1663  0.1840
39047SOL    HW124381   4.362   0.250   7.758 -0.5199  0.1877  0.1657
39047SOL    HW224382   4.399   0.111   7.802 -2.5818 -0.8179 -1.1028
39048SOL     OW24383   0.690   1.392   7.606 -0.0781  0.4400  0.0149
39048SOL    HW124384   0.653   1.310   7.576  0.0237  0.3856  0.0365
39048SOL    HW224385   0.739   1.369   7.686  0.0884  0.4912 -0.0703
39049SOL     OW24386  10.130   3.276   5.181  0.2192 -0.1509  0.5775
39049SOL    HW124387  10.058   3.284   5.119  1.3945 -1.3896 -1.0051
39049SOL    HW224388  10.178   3.358   5.172 -0.1299  0.0586  0.5669
39050SOL     OW24389   2.997   5.494   9.680 -0.1185  0.1347  0.1157
39050SOL    HW124390   2.961   5.566   9.732 -0.7130  0.1347 -0.2854
39050SOL    HW224391   2.941   5.419   9.699  0.3156 -0.1442  0.2996
39051SOL     OW24392   7.369   5.095  12.232 -0.0825  0.0032  0.2491
39051SOL    HW124393   7.455   5.107  12.272 -1.1840  0.4901  2.6781
39051SOL    HW224394   7.366   5.160  12.161  1.5097 -0.0134  0.1361
39052SOL     OW24395   5.749   1.458   1.424  0.9224  0.0356 -0.4697
39052SOL    HW124396   5.801   1.431   1.348  1.3385  0.7304 -0.4401
39052SOL    HW224397   5.676   1.507   1.387  1.6179  1.1703 -0.3919
39053SOL     OW24398   1.134   1.359  10.974  0.3432  0.3030  0.1669
39053SOL    HW124399   1.074   1.415  11.023  1.4886  2.0645 -0.3565
39053SOL    HW224400   1.219   1.370  11.017  0.2406 -2.8679  1.4824
39054SOL     OW24401   6.111   6.261   7.536  0.3102 -1.0063  0.3097
39054SOL    HW124402   6.048   6.190   7.525  0.2714 -1.1207  1.1672
39054SOL    HW224403   6.129   6.292   7.447 -0.9552 -0.9656  0.0463
39055SOL     OW24404  11.171   5.773   2.339  0.1639  0.1082 -0.2202
39055SOL    HW124405  11.242   5.836   2.347 -0.6229  1.5973 -3.3004
39055SOL    HW224406  11.100   5.810   2.391  0.4275  0.6286 -0.2213
39056SOL     OW24407   2.142   2.702  12.574  0.0080  0.0519 -0.2788
39056SOL    HW124408   2.166   2.676  12.663 -0.6162  0.1066 -0.0887
39056SOL    HW224409   2.163   2.626  12.520 -0.4243 -0.3043  0.0468
39057SOL     OW24410   5.343  10.265   6.724  0.3998 -0.3430  0.8462
39057SOL    HW124411   5.330  10.292   6.815 -0.5840 -1.0396  0.9313
39057SOL    HW224412   5.401  10.188   6.730  1.0381  0.1311  0.8107
39058SOL     OW24413   9.952   0.860   5.527  0.3836 -0.7556 -0.2071
39058SOL    HW124414   9.909   0.829   5.607  0.3721 -0.8286 -0.2417
39058SOL    HW224415   9.886   0.848   5.458 -0.2912  1.0389  0.0657
39059SOL     OW24416   5.232   6.520   1.562  0.1317 -0.4643  0.7476
39059SOL    HW124417   5.189   6.579   1.500 -0.7769 -2.8233 -1.0273
39059SOL    HW224418   5.222   6.563   1.647 -1.8013  1.2118 -0.2315
39060SOL     OW24419   5.092   6.797   2.268  0.3871 -0.5031  0.2041
39060SOL    HW124420   5.076   6.850   2.346 -0.2098 -0.4388  0.0361
39060SOL    HW224421   5.064   6.851   2.195 -0.3941 -1.1032  0.0390
39061SOL     OW24422  12.646   6.019   1.683 -0.2602  0.0163  0.6696
39061SOL    HW124423  12.687   5.961   1.747 -1.3950 -1.7676 -0.1475
39061SOL    HW224424  12.711   6.025   1.612  0.2008  0.4506  1.1168
39062SOL     OW24425  10.273  10.595   6.114  0.5902  0.0956  0.4810
39062SOL    HW124426  10.241  10.654   6.181 -1.9267 -0.1872 -0.3672
39062SOL    HW224427  10.314  10.523   6.163 -0.6008  0.2079  1.6877
39063SOL     OW24428   7.231  11.166   0.781  0.1123  0.1549  0.2199
39063SOL    HW124429   7.182  11.242   0.751  0.5304  1.2514  2.1149
39063SOL    HW224430   7.302  11.202   0.834 -0.3757 -1.5593  2.1964
39064SOL     OW24431  12.557   0.669   1.533 -0.2431 -0.5297  0.2762
39064SOL    HW124432  12.480   0.651   1.586 -0.7406  0.6427 -0.0053
39064SOL    HW224433  12.615   0.594   1.547 -0.9574 -0.8965  1.3697
39065SOL     OW24434   4.230   5.225   7.693 -0.7163 -0.6707 -0.0784
39065SOL    HW124435   4.135   5.237   7.684 -0.5628  0.2947 -0.5992
39065SOL    HW224436   4.240   5.150   7.750 -1.8041 -1.0082 -0.3158
39066SOL     OW24437   1.296   0.805   5.764 -0.5018  0.0997 -0.0937
39066SOL    HW124438   1.321   0.879   5.820  1.2861  0.0569 -0.7576
39066SOL    HW224439   1.353   0.813   5.688 -0.4113 -1.8606 -0.2743
39067SOL     OW24440   4.626   9.120   4.149  0.2564  0.2741  0.1555
39067SOL    HW124441   4.552   9.121   4.209  0.0073  3.6700 -0.0452
39067SOL    HW224442   4.594   9.161   4.069  2.1574  1.2387 -0.1754
39068SOL     OW24443  10.156   0.506   3.512 -0.2910 -0.8137  0.2468
39068SOL    HW124444  10.129   0.414   3.505 -3.3806 -0.1699  1.9143
39068SOL    HW224445  10.187   0.516   3.602 -0.2500 -0.1476  0.1665
39069SOL     OW24446   2.928   1.735   6.794  0.4889  0.3495 -0.3035
39069SOL    HW124447   2.847   1.711   6.839  1.6657  0.4185  1.9900
39069SOL    HW224448   2.903   1.743   6.702 -1.7983 -1.0089  0.1275
39070SOL     OW24449  10.976   2.571   6.867 -0.3721  1.0216  0.7147
39070SOL    HW124450  10.996   2.572   6.961  1.2159 -1.9885  0.5442
39070SOL    HW224451  10.887   2.606   6.861 -0.3520  1.6837  3.2698
39071SOL     OW24452   1.621  11.400   9.460  0.5816  0.0626 -0.1633
39071SOL    HW124453   1.615  11.490   9.490  0.9753 -0.3762  1.3160
39071SOL    HW224454   1.531  11.368   9.462  0.4257  0.4355 -0.8022
39072SOL     OW24455   4.530   6.702   8.519 -0.2553 -0.2178  0.1097
39072SOL    HW124456   4.525   6.792   8.552 -0.5866 -0.4029  0.5577
39072SOL    HW224457   4.557   6.650   8.594 -0.2004 -0.5159 -0.1156
39073SOL     OW24458   1.313  11.012   8.987 -0.5405 -0.7294 -0.2675
39073SOL    HW124459   1.354  11.074   9.047  1.6003 -1.4471 -0.8879
39073SOL    HW224460   1.219  11.026   8.998 -0.1534  1.4159  0.8388
39074SOL     OW24461   5.772   9.444   2.696 -0.2144 -0.2533 -0.0738
39074SOL    HW124462   5.720   9.373   2.659 -0.7382  0.9098 -1.6899
39074SOL    HW224463   5.829   9.472   2.625  1.7092 -0.5955  1.2563
39075SOL     OW24464   0.515   5.211   6.854  0.3319  0.6612 -0.6139
39075SOL    HW124465   0.528   5.294   6.808  0.5899  0.3022 -1.1968
39075SOL    HW224466   0.539   5.229   6.944  0.1024  1.2984 -0.6760
39076SOL     OW24467   6.011   6.119   5.579 -0.2044  0.1138  0.0842
39076SOL    HW124468   6.011   6.108   5.674  0.2099 -1.6411 -0.0902
39076SOL    HW224469   6.103   6.120   5.554 -0.3169 -0.3171 -0.3777
39077SOL     OW24470   7.505   1.812   7.786  0.3037 -0.0779  0.4663
39077SOL    HW124471   7.587   1.856   7.810  0.6287  0.0556 -0.8043
39077SOL    HW224472   7.519   1.782   7.696 -1.6732  1.5426 -0.4763
39078SOL     OW24473   0.203  10.692   6.543  0.2061 -0.4023  0.3896
39078SOL    HW124474   0.280  10.663   6.494 -0.7532 -0.3335 -1.2297
39078SOL    HW224475   0.138  10.712   6.475 -0.5815  1.4398  1.6308
39079SOL     OW24476   1.079  10.873   3.510 -0.3501 -0.3013  0.5345
39079SOL    HW124477   1.102  10.863   3.602  0.1281  1.9741  0.7169
39079SOL    HW224478   1.161  10.859   3.462 -0.2032  0.2518  0.6126
39080SOL     OW24479  11.829  10.069   0.349  0.2270  0.6810 -0.2435
39080SOL    HW124480  11.856  10.028   0.267  0.7098  0.9160 -0.2021
39080SOL    HW224481  11.797  10.156   0.324  1.4327  1.1923 -0.0628
39081SOL     OW24482   8.926   3.788  10.673 -0.3223  0.1463 -0.3223
39081SOL    HW124483   9.004   3.843  10.665 -0.0564  0.3177  2.4824
39081SOL    HW224484   8.892   3.782  10.584  1.1659  2.5976 -1.1669
39082SOL     OW24485   2.474   3.145   5.603 -0.0742 -0.1080 -0.7609
39082SOL    HW124486   2.487   3.232   5.566 -2.2277 -0.0185 -1.4498
39082SOL    HW224487   2.538   3.139   5.674 -0.1682  2.1962 -0.4152
39083SOL     OW24488   5.728   9.260  12.395 -0.6274  0.9344 -0.1570
39083SOL    HW124489   5.661   9.203  12.433  1.6558 -1.4819  0.5141
39083SOL    HW224490   5.771   9.301  12.470 -0.3338  1.2722 -0.4996
39084SOL     OW24491  10.645  12.537   6.953 -0.7550 -0.4833 -0.5760
39084SOL    HW124492  10.688  12.616   6.987  1.5036 -1.8276 -0.0705
39084SOL    HW224493  10.631  12.555   6.860 -1.8567  1.1177 -0.1466
39085SOL     OW24494   3.977   6.392   1.588  0.1742  0.2114 -0.0691
39085SOL    HW124495   3.929   6.347   1.657 -4.0987  1.5266 -1.8646
39085SOL    HW224496   4.005   6.322   1.529 -0.7216 -0.5554  0.3841
39086SOL     OW24497   8.528   1.612   7.259  0.6839 -0.0993 -0.1253
39086SOL    HW124498   8.487   1.588   7.177 -2.4631 -1.4983  1.6917
39086SOL    HW224499   8.570   1.696   7.241  0.1626 -0.3695 -3.1155
39087SOL     OW24500   0.882   2.626   7.836 -0.6106  0.3209 -0.4501
39087SOL    HW124501   0.954   2.569   7.809  1.1356  2.4948 -0.6503
39087SOL    HW224502   0.894   2.636   7.931 -1.1161  0.0856 -0.3595
39088SOL     OW24503   3.585  12.319   9.884 -0.8987  0.1523 -0.1447
39088SOL    HW124504   3.495  12.334   9.913 -0.9366 -1.0701  0.4564
39088SOL    HW224505   3.623  12.406   9.877 -2.4943  0.7903 -1.6812
39089SOL     OW24506   0.898  10.256   8.486  0.2124 -0.1256  0.4095
39089SOL    HW124507   0.902  10.342   8.442  0.0419  0.6429  1.8431
39089SOL    HW224508   0.927  10.273   8.575  0.8202 -1.7141  0.5375
39090SOL     OW24509   5.769   7.024   1.128 -0.1609 -0.0109  0.1302
39090SOL    HW124510   5.780   6.963   1.201 -1.0270 -0.9999 -0.5363
39090SOL    HW224511   5.721   7.098   1.165  0.5272  0.0901  0.8493
39091SOL     OW24512   6.096   8.364   1.307 -0.2848  0.0629 -0.0710
39091SOL    HW124513   6.176   8.357   1.358 -0.3797 -0.9233 -0.0287
39091SOL    HW224514   6.119   8.416   1.231  0.0522  0.9089  0.5999
39092SOL     OW24515   5.440   9.567   0.811  0.4048  0.1567  0.2127
39092SOL    HW124516   5.503   9.561   0.883  0.5388 -0.8665  0.0329
39092SOL    HW224517   5.355   9.578   0.854  0.3265 -1.6432  0.6261
39093SOL     OW24518   0.680   7.715   2.265 -0.0232 -0.0326 -0.3191
39093SOL    HW124519   0.585   7.723   2.269 -0.3397 -2.7968  0.2605
39093SOL    HW224520   0.713   7.803   2.280 -2.4832  0.9088  0.0025
39094SOL     OW24521   0.248   6.718  10.565 -0.2827  0.4845  0.0028
39094SOL    HW124522   0.311   6.782  10.532  1.5610 -1.8317 -1.2906
39094SOL    HW224523   0.235   6.657  10.492 -0.3369 -1.7749  1.7916
39095SOL     OW24524  10.612  11.846   0.210 -0.1888  0.0727 -0.1072
39095SOL    HW124525  10.694  11.865   0.166  1.2932 -1.2040  1.8755
39095SOL    HW224526  10.594  11.923   0.263  0.4099 -0.0921  0.3513
39096SOL     OW24527  12.332   0.637   1.712  0.1991 -0.0862  0.2676
39096SOL    HW124528  12.299   0.669   1.796 -4.1915  0.3100 -1.2974
39096SOL    HW224529  12.313   0.543   1.714  1.9415 -0.4535  0.4137
39097SOL     OW24530   3.286  11.740   5.299 -0.2138  0.0498 -0.3607
39097SOL    HW124531   3.280  11.646   5.281 -0.1010  0.2716 -1.5966
39097SOL    HW224532   3.233  11.752   5.378 -0.7704 -0.9506 -0.5613
39098SOL     OW24533   5.941   9.741   5.982 -0.3490 -0.0166  0.2079
39098SOL    HW124534   5.932   9.781   6.068  1.6680 -0.4814  0.6688
39098SOL    HW224535   5.918   9.649   5.996  0.2662 -0.1553  0.3206
39099SOL     OW24536   6.891  10.512   7.801  0.0759  0.6951 -0.2844
39099SOL    HW124537   6.823  10.530   7.736 -2.1062 -1.6521  1.1204
39099SOL    HW224538   6.857  10.436   7.850  2.3151  1.3326  2.5292
39100SOL     OW24539   7.909   3.225   5.346 -0.1658 -0.2928  0.0756
39100SOL    HW124540   7.977   3.161   5.323 -1.8947 -1.3328 -2.6771
39100SOL    HW224541   7.884   3.265   5.263 -2.4115  0.5823  1.0748
39101SOL     OW24542  12.639   1.012  12.711 -0.0823  0.1613 -0.2578
39101SOL    HW124543  12.581   0.947  12.670  1.1837 -1.3848  0.3095
39101SOL    HW224544  12.718   1.009  12.658  0.2770  0.6968  0.2411
39102SOL     OW24545  11.468   9.330  11.300  0.0875  0.0282  0.3173
39102SOL    HW124546  11.528   9.331  11.225 -2.3150  0.7812 -1.7424
39102SOL    HW224547  11.512   9.276  11.365  2.1224 -1.0705 -1.8167
39103SOL     OW24548   8.698   8.449  10.617 -0.5964  0.0327  0.0116
39103SOL    HW124549   8.672   8.417  10.531 -0.1447 -0.4277  0.0434
39103SOL    HW224550   8.751   8.526  10.599 -2.3822  1.3073 -0.0403
39104SOL     OW24551   7.151   8.615   1.963 -0.5279 -0.2106 -0.1279
39104SOL    HW124552   7.121   8.524   1.974  0.6525 -0.4529  1.3621
39104SOL    HW224553   7.198   8.635   2.043  0.5387  1.2262 -1.0619
39105SOL     OW24554   9.988  10.545   4.820  0.3424 -0.6570 -0.1633
39105SOL    HW124555  10.056  10.598   4.778  0.2805 -0.0195  0.5160
39105SOL    HW224556   9.912  10.604   4.825  0.7207 -0.2812  1.9304
39106SOL     OW24557   0.049   4.378  11.038  0.5906  0.0201 -0.3661
39106SOL    HW124558   0.113   4.419  10.981 -0.7769  1.0366 -1.2371
39106SOL    HW224559   0.021   4.447  11.098 -1.7263  0.4545 -1.8362
39107SOL     OW24560  11.050   5.626   2.035 -0.1597  0.2630 -0.4314
39107SOL    HW124561  11.078   5.574   1.960 -2.0354  0.6630 -1.4661
39107SOL    HW224562  11.072   5.716   2.012  1.6565  0.1494  0.6820
39108SOL     OW24563   3.431  11.460   5.162  0.2392 -0.1326 -0.4165
39108SOL    HW124564   3.436  11.476   5.256  0.4705 -1.9991 -0.0874
39108SOL    HW224565   3.440  11.547   5.123 -0.2524  0.7231  1.2771
39109SOL     OW24566   1.758   3.238   3.862 -0.3893 -0.3816  0.6475
39109SOL    HW124567   1.723   3.152   3.840  0.7879 -1.1134  1.5128
39109SOL    HW224568   1.765   3.283   3.778  0.4147 -1.7099 -0.0318
39110SOL     OW24569   2.779   6.763   3.105  0.5464  0.1165 -0.2858
39110SOL    HW124570   2.743   6.841   3.148  1.0801  0.9763 -1.3472
39110SOL    HW224571   2.779   6.785   3.011  2.7737 -0.2724 -0.4324
39111SOL     OW24572   8.380   4.435   4.502 -0.0508  0.1130 -0.2790
39111SOL    HW124573   8.473   4.460   4.508 -0.4199  1.6127 -0.3828
39111SOL    HW224574   8.336   4.492   4.566 -0.8717 -0.7937 -0.0204
39112SOL     OW24575  11.831   5.066   2.507  0.2362 -0.6515  0.2645
39112SOL    HW124576  11.778   4.987   2.509 -0.4298 -0.2212 -0.0454
39112SOL    HW224577  11.833   5.097   2.597  0.1294 -0.7824  0.3109
39113SOL     OW24578   7.933   4.077  10.093 -0.5650 -0.2829 -0.3405
39113SOL    HW124579   7.874   4.059  10.019  0.6062 -1.6083 -1.0095
39113SOL    HW224580   8.020   4.076  10.054 -0.0549  2.2656  0.5018
39114SOL     OW24581   7.898  11.618   3.347 -0.0057 -0.2102 -0.1598
39114SOL    HW124582   7.836  11.622   3.419 -0.1716 -1.0972 -0.2451
39114SOL    HW224583   7.948  11.699   3.354 -0.9599  0.3709  0.0988
39115SOL     OW24584   8.799   0.197   2.093 -0.6344 -0.3966 -0.8530
39115SOL    HW124585   8.893   0.204   2.113 -0.6772 -0.2400 -0.7062
39115SOL    HW224586   8.790   0.235   2.006 -0.0896 -2.9986 -2.1679
39116SOL     OW24587   6.505   5.797   9.936  0.3265  0.0118  0.0606
39116SOL    HW124588   6.486   5.703   9.937  1.5572 -0.3092 -1.4020
39116SOL    HW224589   6.428   5.838   9.974 -0.7275 -1.5226 -0.3171
39117SOL     OW24590   9.699   4.004  11.705 -0.0632 -0.2667 -0.0361
39117SOL    HW124591   9.777   3.955  11.731 -0.2220 -0.7752 -0.5005
39117SOL    HW224592   9.626   3.943  11.719 -0.5480  0.6287  1.6315
39118SOL     OW24593   8.342  11.112   7.263 -0.1790 -0.0858 -0.7363
39118SOL    HW124594   8.254  11.094   7.296  0.3816  1.3281  1.8662
39118SOL    HW224595   8.345  11.070   7.178 -2.8975 -1.3599 -0.3173
39119SOL     OW24596   4.363   0.503   2.865  0.5443  0.4816  0.1087
39119SOL    HW124597   4.356   0.408   2.866  3.8737  0.1095  0.3688
39119SOL    HW224598   4.374   0.525   2.773  0.4698  0.5453  0.1148
39120SOL     OW24599   9.965   9.429  12.058  0.7613  0.0150  0.1266
39120SOL    HW124600   9.941   9.514  12.023  0.1989 -0.1907 -0.0006
39120SOL    HW224601  10.041   9.446  12.113 -0.7079  0.9690  1.9540
39121SOL     OW24602  11.265   3.907  11.663  0.6735 -0.3183 -0.3327
39121SOL    HW124603  11.317   3.987  11.652 -1.7263  1.5832  1.1619
39121SOL    HW224604  11.250   3.901  11.757 -1.2156 -1.1399 -0.6444
39122SOL     OW24605  10.807   2.793   0.067  0.6667 -0.1224  0.4250
39122SOL    HW124606  10.761   2.839  -0.003  0.9711  0.3057  0.5046
39122SOL    HW224607  10.789   2.845   0.146  0.0378 -0.7884  0.7407
39123SOL     OW24608   6.474   6.507   5.519  0.3296  0.4746  0.4493
39123SOL    HW124609   6.395   6.504   5.573  0.2032  1.6502  0.3495
39123SOL    HW224610   6.539   6.459   5.569 -0.6661 -1.3147  0.1329
39124SOL     OW24611   7.375   4.480  11.372 -0.4840 -0.0484 -0.4756
39124SOL    HW124612   7.360   4.514  11.460 -0.6326  1.6875 -1.1209
39124SOL    HW224613   7.328   4.541  11.314  0.2958 -0.6533 -1.8054
39125SOL     OW24614   3.767   0.439  11.950  0.4076 -0.2304 -0.1612
39125SOL    HW124615   3.786   0.512  12.009 -1.3224  0.4870 -0.4154
39125SOL    HW224616   3.704   0.475  11.887 -1.4599 -2.2453  0.4239
39126SOL     OW24617   6.065   1.319   2.139 -0.1956  0.4567  0.1933
39126SOL    HW124618   6.109   1.401   2.116 -2.5534  2.0037  0.7358
39126SOL    HW224619   6.033   1.285   2.055  0.3646  0.3617  0.0178
39127SOL     OW24620   6.376   9.992   9.765  0.5935 -0.2106 -0.0824
39127SOL    HW124621   6.324  10.031   9.835 -0.9229 -1.0960 -0.6712
39127SOL    HW224622   6.328   9.913   9.740  1.6094 -0.4351 -1.4526
39128SOL     OW24623   1.219   4.393  12.150  0.3737 -0.3055  0.0187
39128SOL    HW124624   1.263   4.399  12.235  0.1069 -1.4884  0.2600
39128SOL    HW224625   1.138   4.345  12.168  0.5808 -1.0770 -0.9955
39129SOL     OW24626   9.974   3.314   9.185  0.2034  0.4656  0.1342
39129SOL    HW124627   9.954   3.387   9.243 -0.3828  1.2497 -1.0008
39129SOL    HW224628   9.912   3.246   9.211 -0.0336  0.7935  0.4540
39130SOL     OW24629   6.377  10.875   0.510 -0.4960 -0.5710 -0.3310
39130SOL    HW124630   6.383  10.967   0.533 -2.4452 -0.6811  0.8197
39130SOL    HW224631   6.425  10.830   0.579 -1.2857 -0.5245  0.2609
39131SOL     OW24632  12.576   5.402   4.409 -0.1887  0.2232  0.0975
39131SOL    HW124633  12.573   5.314   4.445 -0.6059  0.2134  0.0529
39131SOL    HW224634  12.648   5.445   4.455  0.9515 -0.5730 -0.8864
39132SOL     OW24635   1.136  12.219  12.561 -0.0978  0.0545  0.0249
39132SOL    HW124636   1.046  12.245  12.538  0.3670  2.1212  0.3091
39132SOL    HW224637   1.185  12.227  12.479  0.6459  3.1339  0.6435
39133SOL     OW24638   4.751   4.291   9.628 -0.3632 -0.7889  0.2375
39133SOL    HW124639   4.845   4.283   9.616 -0.3079  0.2419 -0.0702
39133SOL    HW224640   4.741   4.354   9.700 -0.8193 -1.1077  0.4657
39134SOL     OW24641  10.198   0.007  11.441 -0.4956  0.0010  0.1107
39134SOL    HW124642  10.184  -0.059  11.374 -0.1382 -0.0091  0.0444
39134SOL    HW224643  10.175  -0.037  11.523 -0.4921 -0.1283  0.0419
39135SOL     OW24644   3.386   1.787   9.427 -0.3009  0.1345 -0.5444
39135SOL    HW124645   3.431   1.706   9.403  0.0831  0.5187 -1.1429
39135SOL    HW224646   3.298   1.777   9.391  0.1473  0.5360 -1.8022
39136SOL     OW24647   2.866   7.117  10.172  0.4045 -0.0977 -0.2976
39136SOL    HW124648   2.770   7.118  10.176  0.3825 -0.4318 -0.6885
39136SOL    HW224649   2.886   7.095  10.081  0.8611  1.2526 -0.5474
39137SOL     OW24650   7.448   8.043   2.041  0.0470 -0.4935  0.1445
39137SOL    HW124651   7.460   8.025   1.948  0.2834 -0.0876  0.0954
39137SOL    HW224652   7.435   7.957   2.081 -1.0978 -0.5953 -0.4095
39138SOL     OW24653   2.209   9.585   6.643 -0.1848 -0.5452  0.0787
39138SOL    HW124654   2.190   9.562   6.552  1.1171 -2.1339  0.1736
39138SOL    HW224655   2.288   9.536   6.664  1.0004  1.7763  1.3023
39139SOL     OW24656   6.539   9.903  10.894 -0.2640 -0.1418  0.5857
39139SOL    HW124657   6.557   9.853  10.974 -1.8594 -1.8529 -0.0747
39139SOL    HW224658   6.522   9.836  10.827 -2.3808  1.2461 -0.3628
39140SOL     OW24659  12.498   4.734  10.896 -0.7778  0.5585  0.2666
39140SOL    HW124660  12.505   4.695  10.983  0.4224 -0.2794 -0.1960
39140SOL    HW224661  12.540   4.672  10.837  0.9995  2.3802 -0.5281
39141SOL     OW24662   8.885  11.330   2.494 -0.0165  0.4428  0.4796
39141SOL    HW124663   8.797  11.303   2.519 -0.0495 -0.3548 -0.4343
39141SOL    HW224664   8.930  11.248   2.472  0.5246  0.9621 -0.4041
39142SOL     OW24665   4.235   2.486  12.375 -0.8111 -0.1045  0.1939
39142SOL    HW124666   4.255   2.564  12.426  2.0117 -1.6573  1.6838
39142SOL    HW224667   4.246   2.514  12.284  1.9719  0.8982  0.7341
39143SOL     OW24668   5.419   0.725   1.128  0.1828 -0.4023  0.1965
39143SOL    HW124669   5.349   0.770   1.080 -0.7214 -0.2950  1.5585
39143SOL    HW224670   5.401   0.632   1.115 -1.2036 -0.4140  1.8207
39144SOL     OW24671   0.919  10.884   0.778  0.5341 -0.4308  0.0050
39144SOL    HW124672   1.008  10.849   0.777 -0.0115 -1.9004 -1.4379
39144SOL    HW224673   0.905  10.912   0.868  1.7149 -2.1952  0.7848
39145SOL     OW24674   5.034   8.689   8.934 -0.0579 -0.3314 -0.1602
39145SOL    HW124675   5.023   8.595   8.923  0.2825 -0.4911  0.7982
39145SOL    HW224676   5.121   8.699   8.972  0.1180  0.4100 -0.7347
39146SOL     OW24677   6.324   8.382  11.245  0.2668 -0.7184 -0.6916
39146SOL    HW124678   6.336   8.414  11.156  1.1354 -1.8216 -0.9917
39146SOL    HW224679   6.312   8.287  11.236 -0.7108 -0.7135  0.2864
39147SOL     OW24680   2.245   4.717   0.733 -0.0168  0.1881  0.1225
39147SOL    HW124681   2.255   4.642   0.675  2.9462 -0.5624  1.4063
39147SOL    HW224682   2.180   4.689   0.797 -0.2904 -0.5632 -0.4714
39148SOL     OW24683   1.440   0.950   6.957 -0.4620 -0.0098 -0.0945
39148SOL    HW124684   1.516   0.910   6.915  0.4448  0.5613  0.9722
39148SOL    HW224685   1.392   0.992   6.885  1.1272  1.0632 -0.5771
39149SOL     OW24686   5.834   2.794  12.608  0.3959 -1.0072 -0.0924
39149SOL    HW124687   5.915   2.807  12.656 -0.6079 -0.4956  1.5539
39149SOL    HW224688   5.778   2.867  12.634 -0.5740 -1.2881 -1.2586
39150SOL     OW24689   7.791  11.070   6.321  0.4005  0.4986 -0.0400
39150SOL    HW124690   7.726  11.100   6.257  0.9997  2.5796  0.2437
39150SOL    HW224691   7.852  11.016   6.270 -1.1554 -0.9830 -0.4286
39151SOL     OW24692   9.773   8.595   9.404  0.1456  0.6435 -0.4840
39151SOL    HW124693   9.791   8.523   9.464 -0.2145  0.8829 -0.0778
39151SOL    HW224694   9.760   8.554   9.319 -2.5418 -0.0807  0.1673
39152SOL     OW24695  10.213   2.462  11.950 -0.1980  0.3205 -0.1616
39152SOL    HW124696  10.307   2.456  11.936 -0.2442 -1.4468  0.0365
39152SOL    HW224697  10.201   2.437  12.042 -0.7704  1.7020  0.1614
39153SOL     OW24698   1.603   5.057   2.480  0.0542 -0.5831 -0.1813
39153SOL    HW124699   1.524   5.058   2.534 -0.5766  0.9966 -1.0488
39153SOL    HW224700   1.575   5.019   2.397  0.1534  0.0976 -0.5363
39154SOL     OW24701   9.331   8.120   8.978 -0.3448  0.0676 -0.6506
39154SOL    HW124702   9.290   8.172   8.908 -2.5057 -0.9721 -0.2488
39154SOL    HW224703   9.257   8.084   9.026  1.0477 -2.8905 -0.5370
39155SOL     OW24704   8.770   7.440   2.714 -0.3570  0.0056 -0.1244
39155SOL    HW124705   8.688   7.401   2.682  0.0344  0.1126 -1.3234
39155SOL    HW224706   8.830   7.433   2.640  0.1832  1.5257  0.1335
39156SOL     OW24707  11.764   2.463  10.770 -0.4027 -0.3152 -0.0503
39156SOL    HW124708  11.678   2.497  10.746 -0.1917  0.5595  0.3899
39156SOL    HW224709  11.820   2.541  10.774  0.9111 -1.0152 -2.3334
39157SOL     OW24710   4.064   9.972  12.210  0.0506  0.7695 -0.1253
39157SOL    HW124711   4.071  10.032  12.284 -1.1501  1.0277 -0.2070
39157SOL    HW224712   4.014   9.898  12.244  2.1592 -0.5881  0.1931
39158SOL     OW24713   2.777  11.707   3.976  0.5224  0.3556 -0.3191
39158SOL    HW124714   2.768  11.640   4.044  1.4658 -0.4376 -0.9513
39158SOL    HW224715   2.797  11.658   3.896 -2.0439  1.1394 -1.5371
39159SOL     OW24716   9.124   8.734   8.499 -0.4525 -0.2662  0.3771
39159SOL    HW124717   9.195   8.669   8.504 -0.5636 -0.3732  0.5555
39159SOL    HW224718   9.134   8.773   8.412 -1.0090 -1.2419 -0.1493
39160SOL     OW24719  12.351   4.784   3.517  0.3593  0.2433  0.1133
39160SOL    HW124720  12.440   4.793   3.550 -0.4278  2.1745  1.9331
39160SOL    HW224721  12.340   4.856   3.456  0.1099 -0.1247 -0.2823
39161SOL     OW24722   4.096   0.256   3.525 -0.1264  0.1866  0.4262
39161SOL    HW124723   4.154   0.187   3.556 -0.1828 -0.3731 -0.6660
39161SOL    HW224724   4.107   0.327   3.588 -1.0411 -1.2842  2.3457
39162SOL     OW24725   9.130   7.046  10.807 -0.0771  0.0680 -0.6023
39162SOL    HW124726   9.084   7.126  10.831 -1.2851 -0.7701 -0.0024
39162SOL    HW224727   9.127   7.044  10.711  1.4445  1.5454 -0.7260
39163SOL     OW24728   0.622   8.276   8.508 -0.0533 -0.1691 -0.8795
39163SOL    HW124729   0.592   8.317   8.589  0.6388  0.3723 -0.8871
39163SOL    HW224730   0.571   8.318   8.439  1.0713  1.1503 -0.9472
39164SOL     OW24731   5.618   0.100   4.835 -0.4942  0.4055 -0.5841
39164SOL    HW124732   5.582   0.011   4.836 -1.4421  0.7753 -0.2416
39164SOL    HW224733   5.616   0.126   4.742  0.1610 -0.0676 -0.7360
39165SOL     OW24734   0.491   2.738   0.286  0.3154  0.3735  0.3871
39165SOL    HW124735   0.516   2.646   0.271  1.2239  0.5620  0.7177
39165SOL    HW224736   0.554   2.770   0.349 -0.1510  1.1706  0.4571
39166SOL     OW24737  11.885  12.616   2.803 -0.8272  0.2718 -0.0476
39166SOL    HW124738  11.971  12.635   2.766 -0.0460 -0.5706  1.2384
39166SOL    HW224739  11.825  12.627   2.730  0.5946 -1.0596 -1.5211
39167SOL     OW24740  10.960   8.900   7.654 -0.5652  0.2429  0.1303
39167SOL    HW124741  10.956   8.974   7.593  0.6304 -0.4561 -0.8348
39167SOL    HW224742  11.012   8.933   7.728 -0.3057  0.4739 -0.1529
39168SOL     OW24743   1.881   3.291   7.542  0.1748  0.0373  0.3704
39168SOL    HW124744   1.876   3.195   7.540 -1.8393  0.0951 -2.1679
39168SOL    HW224745   1.812   3.318   7.602 -0.2268 -0.0948 -0.0265
39169SOL     OW24746  12.075   2.402  11.638  0.5202  0.2201 -0.5302
39169SOL    HW124747  12.098   2.318  11.599 -0.6106 -0.1321 -0.4875
39169SOL    HW224748  12.158   2.448  11.649  1.8301 -2.5480  3.4336
39170SOL     OW24749   7.720  10.304  12.524  0.2939 -0.3853 -0.5054
39170SOL    HW124750   7.682  10.244  12.460  1.3926  0.3669 -1.9199
39170SOL    HW224751   7.707  10.391  12.487  2.4232 -0.0403 -0.5591
39171SOL     OW24752  11.506   8.125   7.407  1.0520  0.5052 -0.5988
39171SOL    HW124753  11.546   8.139   7.493  1.4600 -0.0915 -0.6831
39171SOL    HW224754  11.580   8.102   7.350  0.4568 -2.4063 -0.3647
39172SOL     OW24755   6.065   5.613   4.956  0.2667 -0.6920 -0.8776
39172SOL    HW124756   6.148   5.592   4.998 -0.2313 -2.1235 -0.5350
39172SOL    HW224757   6.001   5.613   5.028 -0.2731 -1.1915 -1.3434
39173SOL     OW24758   0.893   1.951   4.045  0.1409  0.1540  0.1027
39173SOL    HW124759   0.856   1.906   4.122  0.6876 -0.2410  0.1408
39173SOL    HW224760   0.823   2.008   4.015 -0.2698 -0.0915  0.5753
39174SOL     OW24761   5.433   0.184   7.945  0.1620 -0.2957 -0.4281
39174SOL    HW124762   5.404   0.230   8.024 -0.1600  1.3877 -1.4781
39174SOL    HW224763   5.358   0.190   7.886  0.1671 -2.1096 -0.6474
39175SOL     OW24764  12.032  10.101   7.291  0.0773 -0.0642 -0.0160
39175SOL    HW124765  11.965  10.165   7.267  1.5712  1.7055  0.2522
39175SOL    HW224766  12.076  10.141   7.366  1.0258 -1.4663  0.2055
39176SOL     OW24767   9.182   3.806   5.813  0.6291 -0.2635  0.3928
39176SOL    HW124768   9.107   3.864   5.803 -0.1825 -1.1703  1.0631
39176SOL    HW224769   9.253   3.849   5.764 -0.3043  0.6231 -0.2081
39177SOL     OW24770   1.483   1.041  12.603 -0.0227  0.1024 -0.2574
39177SOL    HW124771   1.428   1.048  12.525 -1.8356 -0.7258  0.8901
39177SOL    HW224772   1.448   1.107  12.663 -0.3849 -1.0488  0.8280
39178SOL     OW24773   6.280   2.803  10.601 -0.9223 -0.2552 -0.0383
39178SOL    HW124774   6.313   2.868  10.539  0.7172 -0.4421  0.5841
39178SOL    HW224775   6.202   2.844  10.639 -0.2982  1.0799 -0.1322
39179SOL     OW24776   5.771   0.951  11.320  0.4171  0.0323 -0.1864
39179SOL    HW124777   5.728   0.961  11.405 -0.2649 -0.5373 -0.4555
39179SOL    HW224778   5.862   0.927  11.342 -0.0802 -1.4469  0.3944
39180SOL     OW24779  11.223   7.391  11.998  0.0131 -0.8052 -0.3212
39180SOL    HW124780  11.275   7.400  11.918 -1.6231 -1.1806 -1.4833
39180SOL    HW224781  11.271   7.329  12.052  2.3156  1.1439  0.0317
39181SOL     OW24782   4.252  12.553   7.825 -0.0471 -0.0980  1.1758
39181SOL    HW124783   4.288  12.607   7.754  0.2524 -0.9291  0.6900
39181SOL    HW224784   4.165  12.528   7.793  0.1673 -0.6373  1.0114
39182SOL     OW24785   1.387   7.608  11.340 -0.2473  0.2837 -0.5907
39182SOL    HW124786   1.470   7.561  11.351 -2.5261 -3.8722  1.3304
39182SOL    HW224787   1.386   7.673  11.410  1.0919 -0.1413 -0.1521
39183SOL     OW24788  10.537   2.828   5.614  0.1722  0.1878 -0.7132
39183SOL    HW124789  10.467   2.813   5.678  0.7797  0.5802  0.0687
39183SOL    HW224790  10.500   2.800   5.530 -0.6285 -0.3887 -0.1812
39184SOL     OW24791   2.774   6.298  11.219 -0.1283 -0.0268 -0.0856
39184SOL    HW124792   2.729   6.259  11.144 -1.1526 -0.6699  0.8321
39184SOL    HW224793   2.866   6.275  11.206 -0.1255  0.7398 -1.6526
39185SOL     OW24794   7.334   3.068   9.693  0.1930  0.2251 -0.3698
39185SOL    HW124795   7.415   3.083   9.644  0.9758 -0.2646  0.7224
39185SOL    HW224796   7.280   3.145   9.674  1.6224  1.4377  0.2147
39186SOL     OW24797   8.549   9.214   3.666  0.2584 -0.0461  0.9529
39186SOL    HW124798   8.556   9.274   3.591 -0.2451 -0.4144  0.6098
39186SOL    HW224799   8.462   9.230   3.701 -0.0028 -0.8046  0.6632
39187SOL     OW24800   0.098   1.753   5.247 -0.3641  0.1245 -0.5318
39187SOL    HW124801   0.029   1.818   5.231 -0.2104  0.4539  0.0902
39187SOL    HW224802   0.052   1.674   5.274 -0.4993  0.3463 -0.1108
39188SOL     OW24803   0.058  10.707   4.541 -0.1640  0.5379 -0.0756
39188SOL    HW124804   0.050  10.616   4.512  3.3962 -0.5601  1.7175
39188SOL    HW224805  -0.029  10.730   4.572 -1.4145 -1.9308 -1.4642
39189SOL     OW24806   8.721  11.919   4.499 -0.5296 -0.1700  0.0888
39189SOL    HW124807   8.674  11.839   4.478 -0.3559  0.0844 -1.3722
39189SOL    HW224808   8.813  11.892   4.505 -0.2744  0.1407 -1.8966
39190SOL     OW24809   9.562   0.446   0.940 -0.6080  0.0585 -0.3813
39190SOL    HW124810   9.652   0.445   0.907  0.4168  1.3231  2.1240
39190SOL    HW224811   9.552   0.362   0.985 -0.8274 -0.2332 -0.9642
39191SOL     OW24812  12.571   9.374   8.045  0.6621 -0.3432  0.1003
39191SOL    HW124813  12.552   9.431   8.119 -2.2981  2.7444 -2.6924
39191SOL    HW224814  12.514   9.298   8.057 -0.9280  0.8386  0.2984
39192SOL     OW24815   2.741   1.166   0.799  0.1451  0.1109 -0.2302
39192SOL    HW124816   2.693   1.151   0.881  2.4161  0.8453  1.3301
39192SOL    HW224817   2.758   1.260   0.798  0.8930 -0.0184 -1.1034
39193SOL     OW24818   9.747   8.828   4.123  0.1754  0.4287  0.5674
39193SOL    HW124819   9.709   8.763   4.181  1.8932 -1.0884  0.0740
39193SOL    HW224820   9.679   8.845   4.058 -0.8707  0.3385  1.6074
39194SOL     OW24821   3.646  10.683   4.889  0.0664 -0.4240 -0.3190
39194SOL    HW124822   3.689  10.765   4.865  0.1489 -1.3767 -3.8948
39194SOL    HW224823   3.709  10.641   4.949 -0.3168  2.2903  2.2433
39195SOL     OW24824   9.101   1.460   8.930  0.5798  1.0238  0.5560
39195SOL    HW124825   9.067   1.481   8.843  0.3057  1.2814  0.7259
39195SOL    HW224826   9.193   1.437   8.914  0.2867  0.1425  0.0768
39196SOL     OW24827   3.086   0.931   1.595 -0.2935  0.2310  0.3370
39196SOL    HW124828   3.054   0.857   1.647 -1.6066 -0.6016 -1.5283
39196SOL    HW224829   3.025   0.935   1.521  1.3404  1.5040 -1.0018
39197SOL     OW24830   4.699   6.456  11.595  0.1280 -0.2979 -0.2043
39197SOL    HW124831   4.722   6.524  11.657 -2.1475  0.5980 -0.2640
39197SOL    HW224832   4.660   6.386  11.648  2.5461 -1.7324 -0.1250
39198SOL     OW24833   3.391   0.716   5.665  0.2430 -0.2260  0.2194
39198SOL    HW124834   3.409   0.763   5.584  1.5171 -1.3047 -0.1737
39198SOL    HW224835   3.477   0.687   5.695 -0.4739 -2.7279  0.1306
39199SOL     OW24836   7.991   8.310   6.788  0.0655  0.0670  0.2090
39199SOL    HW124837   7.932   8.281   6.719  0.6068 -3.0807  0.9159
39199SOL    HW224838   8.011   8.231   6.838  4.8551  0.8027  0.0162
39200SOL     OW24839   0.943   9.097   3.486 -0.2412  0.2555  0.0832
39200SOL    HW124840   0.972   9.161   3.551  1.3833 -0.6154  0.2735
39200SOL    HW224841   0.886   9.037   3.534 -1.5736  1.3932 -0.0413
39201SOL     OW24842   3.172   0.488  12.321  0.0472 -0.1301 -0.2439
39201SOL    HW124843   3.224   0.454  12.395 -1.5998 -0.2132  0.9387
39201SOL    HW224844   3.175   0.418  12.256 -0.3129 -1.0480  0.6832
39202SOL     OW24845  10.067  10.936   2.251  0.4236  0.2251 -0.0232
39202SOL    HW124846   9.999  11.004   2.242  0.7402  0.6782  0.8753
39202SOL    HW224847  10.018  10.854   2.249 -0.2701  0.5640  1.3062
39203SOL     OW24848  11.454   7.743   9.258  0.0247  0.5839  0.0405
39203SOL    HW124849  11.435   7.821   9.206  1.5066  0.9684  0.0200
39203SOL    HW224850  11.386   7.681   9.235 -2.6054  2.6209  1.7407
39204SOL     OW24851   8.335  12.582   5.141 -0.3803  0.2372  0.3402
39204SOL    HW124852   8.386  12.581   5.060 -1.4022 -0.0204 -0.3188
39204SOL    HW224853   8.379  12.647   5.196  0.3806  0.3529 -0.3844
39205SOL     OW24854   4.143  11.813   8.389 -0.5522  0.3191 -0.2224
39205SOL    HW124855   4.213  11.751   8.366 -0.8932 -0.1284 -0.0623
39205SOL    HW224856   4.092  11.768   8.455  0.1166  1.4063  1.0809
39206SOL     OW24857   8.756   6.280   5.274 -0.3801 -0.4524  1.0631
39206SOL    HW124858   8.819   6.307   5.208 -0.4444  0.9657  1.5567
39206SOL    HW224859   8.694   6.225   5.227  0.3992 -0.6738  0.2721
39207SOL     OW24860   0.577   6.920  10.707  0.1406 -0.6451  0.5162
39207SOL    HW124861   0.563   6.901  10.614  1.0924  1.5180 -0.1543
39207SOL    HW224862   0.666   6.889  10.725  0.7731  0.7912  0.0708
39208SOL     OW24863  12.375   7.794   1.945 -0.0856  0.1090 -1.0755
39208SOL    HW124864  12.300   7.743   1.974 -0.1932  0.4964 -0.6698
39208SOL    HW224865  12.425   7.733   1.891  1.1814 -1.2544  1.4779
39209SOL     OW24866   1.364   8.000   4.824  0.3453 -0.7493  0.2372
39209SOL    HW124867   1.445   8.027   4.868 -0.5032  0.5604  1.0672
39209SOL    HW224868   1.319   8.082   4.804  0.1926 -1.3678 -2.1708
39210SOL     OW24869   8.682   0.749   4.856  0.0275  0.5447  0.0205
39210SOL    HW124870   8.663   0.655   4.849  0.1344  0.3373  1.9633
39210SOL    HW224871   8.761   0.761   4.802 -0.5611 -0.2558 -1.0630
39211SOL     OW24872   8.390  12.093   2.694 -0.1952  0.3857  0.1670
39211SOL    HW124873   8.455  12.042   2.646 -0.9815  0.8641 -1.4641
39211SOL    HW224874   8.325  12.028   2.723 -0.0369  0.1745  0.0470
39212SOL     OW24875   8.601   8.213   2.834  0.0874 -0.1134 -0.3618
39212SOL    HW124876   8.627   8.188   2.922  0.0736  0.8442 -0.0801
39212SOL    HW224877   8.674   8.184   2.779  0.6815  0.4235  0.1285
39213SOL     OW24878  11.339   6.105   5.939 -0.4023 -0.8225  0.1865
39213SOL    HW124879  11.319   6.044   6.009 -1.8790 -0.0231  0.5066
39213SOL    HW224880  11.357   6.188   5.983  0.6994 -0.7885 -0.2849
39214SOL     OW24881   2.485   2.781   0.595  0.0025 -0.5960 -0.0586
39214SOL    HW124882   2.435   2.700   0.583 -1.3385  0.2501 -0.4976
39214SOL    HW224883   2.424   2.840   0.639  1.6891 -0.4989  2.3123
39215SOL     OW24884   7.563   1.885  10.637  0.0784 -0.1366 -0.0716
39215SOL    HW124885   7.637   1.938  10.666  0.2798  0.4591 -1.5873
39215SOL    HW224886   7.486   1.931  10.669  0.3274 -0.3476  0.8548
39216SOL     OW24887   5.344   4.324   1.990 -0.5761  0.0280 -0.2620
39216SOL    HW124888   5.277   4.293   1.929 -0.7461 -1.1611  0.4971
39216SOL    HW224889   5.424   4.281   1.961 -0.7132 -0.7729  0.4936
39217SOL     OW24890   0.751   9.993  11.946 -0.0395  0.1770 -0.1098
39217SOL    HW124891   0.791  10.080  11.952 -1.2764  0.8330 -0.7814
39217SOL    HW224892   0.728   9.983  11.853 -2.8018  0.5519  0.4444
39218SOL     OW24893  11.548   6.888   0.994  0.3436 -0.2017  0.4453
39218SOL    HW124894  11.574   6.881   0.902  1.2644  1.6256  0.5138
39218SOL    HW224895  11.628   6.871   1.043 -0.1928 -1.3976  0.9487
39219SOL     OW24896   1.680  11.836   4.842 -0.0318  0.2964  0.1382
39219SOL    HW124897   1.613  11.872   4.900  1.1113 -0.3048  1.9213
39219SOL    HW224898   1.763  11.857   4.884  0.7999 -1.2649 -0.6010
39220SOL     OW24899   2.846   8.034  11.575 -0.1132 -0.3558  0.0517
39220SOL    HW124900   2.860   8.003  11.485  0.1375 -2.1345  0.6688
39220SOL    HW224901   2.878   8.124  11.574  0.5863 -0.5870 -1.4591
39221SOL     OW24902   8.678   6.899   6.015 -0.0532 -0.6546  0.2244
39221SOL    HW124903   8.624   6.863   6.085 -1.6898 -0.2341 -0.7740
39221SOL    HW224904   8.632   6.874   5.935  1.1304 -0.0765 -0.6600
39222SOL     OW24905   4.454   9.196   5.221 -0.5314 -0.0026 -0.2786
39222SOL    HW124906   4.372   9.182   5.269 -1.0172 -0.3993 -1.2037
39222SOL    HW224907   4.432   9.175   5.130  0.9752 -1.6442 -0.3060
39223SOL     OW24908  12.107   8.189   0.597  0.2731 -0.0640 -0.2221
39223SOL    HW124909  12.048   8.263   0.606  0.8442  0.1475  2.5087
39223SOL    HW224910  12.189   8.226   0.564  0.1130  0.2831 -0.2243
39224SOL     OW24911   1.867   3.729   1.008 -0.0943  0.5834 -0.2575
39224SOL    HW124912   1.781   3.764   1.031 -0.2942  0.2961 -0.5541
39224SOL    HW224913   1.929   3.798   1.032 -0.3622  0.5849  0.4378
39225SOL     OW24914   7.544   6.095   6.807 -0.3233  0.1622 -0.4369
39225SOL    HW124915   7.637   6.118   6.810 -0.3598  0.2978 -0.3402
39225SOL    HW224916   7.506   6.156   6.744 -0.4451  0.4634 -0.0806
39226SOL     OW24917   9.611   2.607   4.069 -0.3074 -0.1200  0.8606
39226SOL    HW124918   9.578   2.668   4.003  0.5837  1.3398  1.6895
39226SOL    HW224919   9.704   2.629   4.077  0.7795 -3.4548 -0.7512
39227SOL     OW24920   6.611   6.915   3.682  0.4302 -0.4579 -0.6125
39227SOL    HW124921   6.622   6.985   3.618 -1.0202 -0.6493 -1.1035
39227SOL    HW224922   6.544   6.858   3.644 -0.7680 -0.3597  1.2221
39228SOL     OW24923   1.215   4.300   4.480  0.3086  0.8223  0.3825
39228SOL    HW124924   1.175   4.241   4.416 -0.6104 -0.0700  1.7246
39228SOL    HW224925   1.140   4.343   4.522  0.8583  1.0448  1.1616
39229SOL     OW24926   0.739   8.241  10.055 -0.0963 -0.4621 -0.0967
39229SOL    HW124927   0.805   8.278   9.996 -0.2293  0.0373  0.0626
39229SOL    HW224928   0.701   8.317  10.099 -0.4847 -0.7791  0.1222
39230SOL     OW24929   3.283   0.205   0.157 -0.3115  0.0578 -0.1174
39230SOL    HW124930   3.199   0.242   0.131  0.2595  0.2668 -1.7888
39230SOL    HW224931   3.264   0.114   0.178 -1.0408  0.2370  0.0223
39231SOL     OW24932  11.705   4.931  12.283  0.0439  0.1376  0.2061
39231SOL    HW124933  11.704   4.969  12.195 -1.7994  3.2741  1.4083
39231SOL    HW224934  11.735   4.841  12.270  1.0056  0.8123 -3.4360
39232SOL     OW24935   8.500   7.485   1.644  0.2391  0.1935  0.4979
39232SOL    HW124936   8.583   7.440   1.626 -0.3622 -0.3729 -1.0506
39232SOL    HW224937   8.473   7.454   1.730 -0.1907 -2.5281 -0.5301
39233SOL     OW24938   3.257   1.636   4.423 -0.8956  0.6480 -0.0716
39233SOL    HW124939   3.276   1.579   4.349  0.1075 -0.2980  0.8685
39233SOL    HW224940   3.206   1.708   4.386  1.0421  1.1220 -1.9987
39234SOL     OW24941  10.409   7.432   3.100  0.5903  0.4346 -0.9497
39234SOL    HW124942  10.406   7.501   3.034 -2.6900  0.9501 -0.4551
39234SOL    HW224943  10.319   7.397   3.101  1.4403 -1.9334  0.8032
39235SOL     OW24944   3.582   9.473   9.861 -0.5013  0.1876 -0.0752
39235SOL    HW124945   3.544   9.560   9.873  0.0132  0.5541 -1.0004
39235SOL    HW224946   3.670   9.490   9.827  0.0411 -0.6726  0.8442
39236SOL     OW24947   4.172   0.923   0.768  0.5584  0.2893  0.8438
39236SOL    HW124948   4.182   0.866   0.844  1.5541  0.0567  0.5517
39236SOL    HW224949   4.224   0.880   0.699 -1.9703 -0.6518 -0.6312
39237SOL     OW24950   8.873   9.978   8.622  0.1034 -0.4487  0.1774
39237SOL    HW124951   8.813  10.019   8.558  0.0117  1.0663  1.1838
39237SOL    HW224952   8.835  10.000   8.707  1.4679 -0.4599  0.8041
39238SOL     OW24953   4.139  10.746   9.114  0.2411 -0.8086  0.0235
39238SOL    HW124954   4.227  10.714   9.135  0.2044 -1.2891 -0.5480
39238SOL    HW224955   4.094  10.749   9.198  0.2508 -2.2532  0.1063
39239SOL     OW24956   9.840   1.961   5.570  0.0660 -0.3920 -0.2098
39239SOL    HW124957   9.828   2.049   5.535  0.0205 -0.0293  0.7083
39239SOL    HW224958   9.777   1.907   5.522 -2.4355  0.7100  1.6475
39240SOL     OW24959  10.571   7.175   8.943 -0.3311  0.5516  0.3697
39240SOL    HW124960  10.537   7.134   9.023 -0.1401 -1.0341 -0.3227
39240SOL    HW224961  10.629   7.109   8.905 -0.5257  1.2209 -1.1464
39241SOL     OW24962   0.485   8.173  10.975  0.6814  0.5086 -0.0694
39241SOL    HW124963   0.466   8.219  10.893  1.4797  0.6909 -0.1616
39241SOL    HW224964   0.411   8.194  11.032 -0.8184 -1.1067 -1.3157
39242SOL     OW24965  10.451   3.479   2.670  0.1493 -0.3704 -0.1625
39242SOL    HW124966  10.435   3.553   2.611  0.3738  0.3406  0.6458
39242SOL    HW224967  10.387   3.413   2.644 -0.3606  0.2865 -0.5986
39243SOL     OW24968  11.907   0.498   1.152  0.6234  0.3244 -0.1938
39243SOL    HW124969  11.962   0.575   1.168  1.1500 -0.2602  0.9861
39243SOL    HW224970  11.964   0.424   1.173 -0.4957 -0.3106  0.6985
39244SOL     OW24971   1.860   8.348   3.992 -0.4354  0.0019  0.1900
39244SOL    HW124972   1.947   8.367   3.957 -0.2332 -1.1822  0.0162
39244SOL    HW224973   1.856   8.396   4.075  0.1386  0.5698 -0.1041
39245SOL     OW24974  10.032  10.675   9.346  0.0716  0.1495 -0.1269
39245SOL    HW124975   9.964  10.627   9.298  0.6417 -2.5863  1.5558
39245SOL    HW224976  10.041  10.626   9.428  3.8068  0.6045 -0.1224
39246SOL     OW24977   0.019  12.584   6.020 -0.6403  0.5367 -0.1021
39246SOL    HW124978   0.091  12.622   6.070 -1.1929  1.0766  0.2950
39246SOL    HW224979   0.034  12.612   5.930  0.4348 -0.5470 -0.2818
39247SOL     OW24980   0.593   0.658  12.335  0.0500 -0.0658 -0.1621
39247SOL    HW124981   0.641   0.674  12.417 -0.1972  0.7472 -0.1637
39247SOL    HW224982   0.644   0.703  12.268  0.8829 -1.7049 -0.6665
39248SOL     OW24983  10.674   7.520   7.247  0.3324  0.0150  0.6305
39248SOL    HW124984  10.644   7.597   7.199  1.1458 -0.7705 -1.2351
39248SOL    HW224985  10.679   7.549   7.338 -1.8743  1.3825  0.3928
39249SOL     OW24986   7.350   0.672   2.607 -0.5538  0.1175 -0.1102
39249SOL    HW124987   7.443   0.659   2.626 -0.1684  2.8614  0.2358
39249SOL    HW224988   7.337   0.629   2.522  1.7706  2.0931 -1.5917
39250SOL     OW24989   7.830   1.003   0.297  0.5419 -0.2972  0.1095
39250SOL    HW124990   7.804   1.089   0.265  0.2904  0.1792  1.4844
39250SOL    HW224991   7.919   1.017   0.332  0.5698 -0.6313  0.1703
39251SOL     OW24992   0.727   9.220   1.520 -0.5595 -0.1010  0.3253
39251SOL    HW124993   0.692   9.136   1.491 -0.3955 -0.5272  1.3366
39251SOL    HW224994   0.803   9.235   1.463  0.8472 -1.8057  1.6584
39252SOL     OW24995  12.495   2.724   1.003  0.6157 -0.6356 -0.3721
39252SOL    HW124996  12.422   2.777   0.971  1.0247 -0.3308 -0.8124
39252SOL    HW224997  12.529   2.774   1.077  0.5437 -0.6504 -0.3283
39253SOL     OW24998   3.452   9.440   0.131  0.0390  0.1930  0.1338
39253SOL    HW124999   3.463   9.416   0.038  0.6342  0.6492  0.0830
39253SOL    HW225000   3.483   9.530   0.136  0.3484  0.0508  0.8475
39254SOL     OW25001   6.948   2.677   6.949 -0.2579 -0.1943  0.6807
39254SOL    HW125002   7.035   2.686   6.986 -0.1576  0.2448  0.3495
39254SOL    HW225003   6.949   2.732   6.870 -0.7880 -0.2927  0.5955
39255SOL     OW25004   9.973   6.449   8.601  0.0267  0.0716 -0.1969
39255SOL    HW125005  10.035   6.416   8.666 -0.5641 -0.3545  0.1644
39255SOL    HW225006   9.896   6.393   8.612 -0.1098  0.0392 -1.2165
39256SOL     OW25007  10.480   4.588  10.436  0.3081  0.4016 -0.2030
39256SOL    HW125008  10.535   4.512  10.415 -0.7303 -0.1185 -1.1222
39256SOL    HW225009  10.530   4.662  10.401  1.5331  0.2221  1.0709
39257SOL     OW25010   6.237   3.660   5.675  0.2825  0.5288 -0.1068
39257SOL    HW125011   6.292   3.601   5.624  0.6587  1.1820 -0.4640
39257SOL    HW225012   6.223   3.735   5.618 -0.1062  0.8351  0.3852
39258SOL     OW25013   2.569   8.214   8.525 -0.0253  0.4461 -0.0170
39258SOL    HW125014   2.646   8.243   8.476  1.1607  0.3091  1.6555
39258SOL    HW225015   2.531   8.294   8.560  1.0976  0.3542  1.5415
39259SOL     OW25016   7.547   3.084   9.125 -0.3852  0.8862 -0.0151
39259SOL    HW125017   7.503   3.168   9.107  1.0833  1.7426  0.2340
39259SOL    HW225018   7.619   3.080   9.062  0.6729  0.7079  1.1616
39260SOL     OW25019  12.245   7.802   9.774 -0.4584 -0.0772 -0.5372
39260SOL    HW125020  12.220   7.851   9.853  0.9338  0.4114 -0.3716
39260SOL    HW225021  12.296   7.865   9.722 -1.2697 -0.4269 -1.7954
39261SOL     OW25022   3.025   9.423   5.804  0.0167 -0.4091 -0.0611
39261SOL    HW125023   3.020   9.345   5.748  0.2344 -1.6565  1.5814
39261SOL    HW225024   2.981   9.491   5.754  1.1371 -1.1636 -2.2213
39262SOL     OW25025   2.315  12.307   4.918  0.2611 -0.2150  0.1131
39262SOL    HW125026   2.313  12.259   4.836  1.1513 -0.2462  0.0987
39262SOL    HW225027   2.382  12.263   4.970 -0.0772 -0.0048  0.7386
39263SOL     OW25028  10.301   8.949   8.669  0.2573 -0.1749  0.0436
39263SOL    HW125029  10.256   8.978   8.590  1.2809 -0.8473 -0.8292
39263SOL    HW225030  10.289   8.854   8.669 -1.1671 -0.0359  1.6386
39264SOL     OW25031   3.101   5.643   6.246  0.1979  0.4291  0.2245
39264SOL    HW125032   3.066   5.718   6.198  0.2937 -0.1387 -0.7633
39264SOL    HW225033   3.042   5.571   6.223 -0.0407  0.2523  1.3605
39265SOL     OW25034  11.970   1.636   7.351  0.2624  0.4911 -0.1113
39265SOL    HW125035  11.960   1.729   7.332  1.2647  0.4696 -0.8511
39265SOL    HW225036  11.983   1.633   7.446  2.8080  1.4205 -0.3283
39266SOL     OW25037   9.392  10.234   4.118  0.0143 -0.4195  0.3830
39266SOL    HW125038   9.446  10.210   4.192 -0.3469 -0.9933  0.4712
39266SOL    HW225039   9.302  10.222   4.148 -0.1312 -1.0027 -0.2523
39267SOL     OW25040   6.584   9.374   6.729 -0.5839  0.4165 -0.0540
39267SOL    HW125041   6.629   9.454   6.704  0.5709  0.3452  1.5864
39267SOL    HW225042   6.611   9.309   6.665 -0.2169  0.9541 -0.4455
39268SOL     OW25043   2.234   3.864   9.972  0.2111 -0.3967 -0.0336
39268SOL    HW125044   2.263   3.795  10.031 -1.2482  0.0222  1.2218
39268SOL    HW225045   2.151   3.895  10.008  0.2147  1.1946 -1.2325
39269SOL     OW25046   8.216   7.428  12.602 -0.5804  0.3911 -0.5869
39269SOL    HW125047   8.169   7.379  12.670  0.1731  0.0732 -0.2844
39269SOL    HW225048   8.150   7.487  12.565 -1.2057 -0.0201 -0.1495
39270SOL     OW25049  11.025   5.373   8.905 -0.3101  0.3830 -0.2056
39270SOL    HW125050  10.997   5.405   8.819  0.1083 -0.9320 -0.8498
39270SOL    HW225051  10.945   5.339   8.945 -0.2687 -0.2348 -0.6358
39271SOL     OW25052   1.071   0.616   0.342  0.4709 -0.1381  0.5742
39271SOL    HW125053   1.057   0.709   0.324  2.5836 -0.0585 -0.9973
39271SOL    HW225054   1.144   0.614   0.404  0.7314 -0.7798  0.2543
39272SOL     OW25055   4.695  12.597  11.597 -0.0284  0.1089  0.4995
39272SOL    HW125056   4.702  12.579  11.691  0.0626 -1.0284  0.2907
39272SOL    HW225057   4.778  12.637  11.574  0.2148 -0.2329  0.7764
39273SOL     OW25058   0.310   3.585  10.187  0.4854  0.1362  0.1112
39273SOL    HW125059   0.383   3.581  10.125  1.5677  1.8027  1.1669
39273SOL    HW225060   0.236   3.618  10.136  1.6515  2.5951 -0.1487
39274SOL     OW25061   3.517   5.427   9.912 -0.7487 -0.4643  0.5778
39274SOL    HW125062   3.534   5.500   9.853  0.2620 -0.5293  0.7609
39274SOL    HW225063   3.502   5.469   9.997  0.2193 -0.4797  0.7622
39275SOL     OW25064   6.110   8.499   4.870  0.4802 -0.3622 -0.1220
39275SOL    HW125065   6.111   8.434   4.940  2.3362 -0.3890 -0.1408
39275SOL    HW225066   6.191   8.548   4.881  0.6937 -0.1841 -2.0723
39276SOL     OW25067   0.067   6.385   8.042 -0.2748 -1.2181  0.0328
39276SOL    HW125068   0.064   6.289   8.036 -1.2298 -1.2390  0.5653
39276SOL    HW225069   0.046   6.403   8.134 -2.4326 -0.4343 -0.5629
39277SOL     OW25070   6.416  10.236  11.827 -0.0388 -0.1301 -0.3706
39277SOL    HW125071   6.461  10.321  11.833  0.0794 -0.1884 -0.4234
39277SOL    HW225072   6.397  10.212  11.918  1.4689 -0.8613 -0.2134
39278SOL     OW25073   5.675   7.337   5.803  0.0890  0.7220 -0.4535
39278SOL    HW125074   5.760   7.380   5.799  0.0303  0.8820 -0.0618
39278SOL    HW225075   5.668   7.289   5.721  1.9523 -1.9413  0.8054
39279SOL     OW25076   9.898   7.731   8.679  0.1998  0.2153  0.6658
39279SOL    HW125077   9.814   7.776   8.683 -0.2219 -0.5527  0.5039
39279SOL    HW225078   9.929   7.731   8.770  0.1741  0.7525  0.6835
39280SOL     OW25079   0.220  11.643   8.067 -0.0685  0.0215  0.1741
39280SOL    HW125080   0.222  11.607   7.979  1.4850 -1.6366  0.8267
39280SOL    HW225081   0.151  11.593   8.112 -1.0764  1.0803 -0.1588
39281SOL     OW25082   5.803   6.650  12.319  0.1072  0.2446 -0.2266
39281SOL    HW125083   5.847   6.625  12.238  1.0266 -0.9588  0.6042
39281SOL    HW225084   5.713   6.621  12.307 -0.0294  1.0276 -1.2142
39282SOL     OW25085  10.130   4.540   3.671 -0.1960  0.0093 -0.3972
39282SOL    HW125086  10.089   4.490   3.600  0.4969 -1.7653  0.4043
39282SOL    HW225087  10.070   4.529   3.745 -0.2845  0.8106 -0.3426
39283SOL     OW25088  11.625   0.359  10.755 -0.0116 -0.7003  0.2900
39283SOL    HW125089  11.687   0.399  10.694 -0.5102 -2.8018 -1.7566
39283SOL    HW225090  11.679   0.304  10.812  0.3917  0.7517  1.3425
39284SOL     OW25091   9.106   0.827   2.079  0.0231 -0.1172 -0.5158
39284SOL    HW125092   9.147   0.893   2.134 -0.7281 -0.8982  1.0526
39284SOL    HW225093   9.163   0.750   2.088  0.1782 -0.0917 -1.2580
39285SOL     OW25094   0.603   1.991   0.676 -0.6204 -0.3622  0.2115
39285SOL    HW125095   0.649   1.919   0.721  0.8313  1.7790  2.4183
39285SOL    HW225096   0.662   2.015   0.605 -0.4989 -0.5292  0.2541
39286SOL     OW25097   7.982   1.677  10.635  0.3023  0.3918  0.1280
39286SOL    HW125098   8.027   1.646  10.557 -0.3381  1.1359 -0.5402
39286SOL    HW225099   7.905   1.724  10.603  0.4744  1.4324  1.1719
39287SOL     OW25100   2.140   7.583   3.167  0.0617 -0.3559 -0.1538
39287SOL    HW125101   2.056   7.616   3.199 -0.5906 -3.6390  2.0863
39287SOL    HW225102   2.116   7.513   3.105  1.2273  0.2343 -1.3123
39288SOL     OW25103   5.691   8.590   6.900 -0.4370  0.2837 -0.6147
39288SOL    HW125104   5.649   8.557   6.979  0.0555 -0.9853 -0.8694
39288SOL    HW225105   5.669   8.683   6.898 -2.7664 -0.2144 -0.4601
39289SOL     OW25106   0.346  12.650   9.139  0.3764 -0.2282 -0.1320
39289SOL    HW125107   0.326  12.619   9.227 -2.1476  2.5609  0.3956
39289SOL    HW225108   0.442  12.659   9.139  0.3620  1.0587  2.8483
39290SOL     OW25109  12.150  10.176  10.086 -0.2168 -0.2435 -0.5587
39290SOL    HW125110  12.082  10.219  10.139  1.2630 -1.5862  2.6989
39290SOL    HW225111  12.150  10.085  10.117  1.6935 -0.7612 -1.9415
39291SOL     OW25112   5.659   6.047   8.019  0.2520 -0.3236 -0.0969
39291SOL    HW125113   5.718   6.115   8.052 -0.8434  0.4684  0.2862
39291SOL    HW225114   5.620   6.085   7.940  1.6055 -1.5681 -1.4444
39292SOL     OW25115   8.524   9.075  11.804 -0.3635 -0.0538  0.1614
39292SOL    HW125116   8.532   9.039  11.716 -1.8643 -1.5528  0.5900
39292SOL    HW225117   8.569   9.160  11.799  0.3108 -0.4639 -1.8012
39293SOL     OW25118   9.372   9.641   1.405  0.2117  0.1294  0.2035
39293SOL    HW125119   9.443   9.672   1.461  0.0359  1.0315 -0.0428
39293SOL    HW225120   9.395   9.552   1.382  1.5000  0.5550 -0.2238
39294SOL     OW25121   7.632  11.043   8.014 -0.3850  1.1966 -0.2502
39294SOL    HW125122   7.545  11.012   8.042 -0.0137  1.9460  1.9439
39294SOL    HW225123   7.626  11.049   7.919 -2.2279 -0.2769 -0.2869
39295SOL     OW25124   3.964   5.610  12.688  0.2075  0.5494 -0.0141
39295SOL    HW125125   3.957   5.532  12.633 -1.2340  0.8488 -0.2852
39295SOL    HW225126   4.042   5.656  12.655  1.1980 -0.8401  0.2813
39296SOL     OW25127   5.725   9.321   0.504 -0.8870 -0.5941  0.4538
39296SOL    HW125128   5.712   9.352   0.414 -0.7797 -1.7866  0.0127
39296SOL    HW225129   5.761   9.397   0.551 -0.7532 -0.0185 -0.5585
39297SOL     OW25130   6.457   4.319   1.659 -0.2446 -0.2462 -0.2348
39297SOL    HW125131   6.540   4.351   1.696 -1.1172  1.2709  0.5008
39297SOL    HW225132   6.481   4.285   1.573  0.9047  1.7227 -0.7566
39298SOL     OW25133   4.680  12.445   4.251  0.5265  0.6202  0.1675
39298SOL    HW125134   4.659  12.351   4.253  0.4457  0.4359 -3.4944
39298SOL    HW225135   4.775  12.448   4.265  0.4131  0.0808  1.1266
39299SOL     OW25136   6.951   4.536   5.772 -0.4243 -0.7461  0.4767
39299SOL    HW125137   7.016   4.589   5.819 -2.2804  0.0385  2.3721
39299SOL    HW225138   6.969   4.446   5.799 -0.4117 -0.4788  1.3957
39300SOL     OW25139  11.471  10.114   3.364  0.2892 -0.0699 -0.0102
39300SOL    HW125140  11.394  10.135   3.417  0.7440 -0.7159  0.9055
39300SOL    HW225141  11.478  10.019   3.367  0.6029 -0.0819 -0.8402
39301SOL     OW25142   2.319   5.233  10.683  0.1336 -0.2612 -0.2254
39301SOL    HW125143   2.358   5.319  10.698 -0.0117  0.0582 -1.5229
39301SOL    HW225144   2.313   5.226  10.587  0.3058 -1.7874 -0.1531
39302SOL     OW25145   1.568   7.321   9.965 -0.2294 -0.0385 -0.6440
39302SOL    HW125146   1.479   7.314   9.999  0.0030 -0.4288 -0.1028
39302SOL    HW225147   1.562   7.388   9.897 -0.4351  1.8578  1.1211
39303SOL     OW25148   3.112   3.312   1.696  0.4018  0.4962  0.1874
39303SOL    HW125149   3.027   3.276   1.719  1.0838  1.2182  4.7548
39303SOL    HW225150   3.175   3.247   1.728  1.5854  1.4361 -0.1506
39304SOL     OW25151   0.507   9.346   8.861 -0.2121  0.1764  0.0637
39304SOL    HW125152   0.544   9.273   8.911 -0.9197 -0.3208 -0.1231
39304SOL    HW225153   0.413   9.340   8.877 -0.3868  0.3597 -0.8704
39305SOL     OW25154   2.394  12.065   1.024 -0.3348 -0.6477 -0.3442
39305SOL    HW125155   2.384  12.110   0.940 -1.1904  1.3497  0.7770
39305SOL    HW225156   2.342  11.985   1.014 -0.3254 -0.5077 -1.7476
39306SOL     OW25157   1.015   2.402   8.745 -0.7212 -0.3765  0.1140
39306SOL    HW125158   1.048   2.350   8.672 -0.3568 -0.7229  0.5236
39306SOL    HW225159   0.969   2.475   8.703  1.3232  0.6368 -0.5066
39307SOL     OW25160   1.033  10.204   8.815 -0.3274 -0.0891 -0.5085
39307SOL    HW125161   1.093  10.129   8.812  0.1733  0.3356 -1.1894
39307SOL    HW225162   1.049  10.243   8.901  1.3274  0.7796 -1.1636
39308SOL     OW25163   7.386   8.843   0.190 -0.0774 -0.2545  0.3315
39308SOL    HW125164   7.312   8.837   0.129 -0.1737  1.6903  0.1822
39308SOL    HW225165   7.351   8.892   0.264  1.2097  1.4007 -0.0793
39309SOL     OW25166   2.770   0.313   7.335  0.0257  0.1674  0.2601
39309SOL    HW125167   2.737   0.231   7.370 -1.0389  0.1529 -0.7301
39309SOL    HW225168   2.861   0.294   7.310 -0.1759 -0.6607  0.1503
39310SOL     OW25169   8.657  12.670   1.395 -0.1120  0.5765  0.6512
39310SOL    HW125170   8.648  12.713   1.310  1.7506  1.7244  0.9762
39310SOL    HW225171   8.653  12.742   1.459  4.3370  0.6862  1.1554
39311SOL     OW25172   2.521   7.446  11.674  0.0319 -0.0029 -0.2182
39311SOL    HW125173   2.462   7.418  11.744  0.7075 -0.6879  0.0911
39311SOL    HW225174   2.539   7.538  11.692  0.3556 -0.2242  0.6278
39312SOL     OW25175   3.127  10.278   8.399  0.5499 -0.2618 -0.4520
39312SOL    HW125176   3.056  10.339   8.417  1.1709  0.1862  0.5913
39312SOL    HW225177   3.183  10.323   8.336  2.7118  1.7366  2.5806
39313SOL     OW25178   4.929   3.917   3.284  0.4309  0.1896  0.4322
39313SOL    HW125179   4.919   3.834   3.332 -1.2076  0.2626  0.2464
39313SOL    HW225180   4.956   3.890   3.196 -0.5088 -0.1939  0.2464
39314SOL     OW25181   7.161   0.581   9.538  0.3415 -0.2082 -0.3969
39314SOL    HW125182   7.175   0.489   9.561 -0.7469 -0.3319 -0.1812
39314SOL    HW225183   7.066   0.589   9.529  0.2055  1.4560  1.9016
39315SOL     OW25184   7.164   1.985   3.024 -0.2009 -0.2515 -0.3769
39315SOL    HW125185   7.246   1.944   3.052 -0.1565 -0.6378 -1.0469
39315SOL    HW225186   7.109   1.912   2.995 -0.8947 -0.0235  0.3169
39316SOL     OW25187  12.022   8.258   1.233 -0.1983  0.1525 -0.0866
39316SOL    HW125188  11.934   8.221   1.234  0.2936 -1.1742 -1.4568
39316SOL    HW225189  12.057   8.233   1.148  1.6365  0.3528  0.5685
39317SOL     OW25190   5.587   9.964   7.480  0.1594 -0.4021  0.2379
39317SOL    HW125191   5.519   9.980   7.414  0.9363 -0.5525 -0.6133
39317SOL    HW225192   5.579   9.871   7.500  2.3234 -1.2862 -2.4426
39318SOL     OW25193   7.448   3.532   6.493 -0.0318 -0.6038  0.3431
39318SOL    HW125194   7.412   3.619   6.475 -1.1941 -1.0277  0.5048
39318SOL    HW225195   7.415   3.477   6.422 -0.9306 -1.3090  1.2522
39319SOL     OW25196   4.074   0.722   5.897  0.2696  0.6634  0.3243
39319SOL    HW125197   4.113   0.639   5.922  0.0448 -0.0363 -1.4975
39319SOL    HW225198   3.980   0.704   5.890  0.2021  1.0947  0.0503
39320SOL     OW25199   2.648   1.994  10.631  0.0859 -0.2116  0.5415
39320SOL    HW125200   2.628   2.037  10.548  1.8025  1.3203  0.8441
39320SOL    HW225201   2.563   1.982  10.673 -0.5487  3.1470  0.5149
39321SOL     OW25202  12.144   7.807   4.273  0.4161 -0.4022 -0.3367
39321SOL    HW125203  12.176   7.754   4.201 -1.6944 -3.1120  0.5446
39321SOL    HW225204  12.169   7.758   4.352 -2.0726 -0.4484  0.4959
39322SOL     OW25205   9.392   3.819   0.065  0.1208 -0.3191 -0.1020
39322SOL    HW125206   9.341   3.738   0.065 -0.8724  0.2673 -1.5409
39322SOL    HW225207   9.327   3.888   0.055  0.8672  0.7599  1.8706
39323SOL     OW25208   0.531   5.858   3.863 -0.2250 -0.9049  0.0213
39323SOL    HW125209   0.533   5.812   3.947  2.1701 -0.1474  0.4524
39323SOL    HW225210   0.600   5.924   3.870  0.2106 -0.9520 -2.6262
39324SOL     OW25211   1.599   1.549  11.263 -0.6876  0.0314 -0.6505
39324SOL    HW125212   1.525   1.604  11.288 -0.7590 -0.1514 -0.4495
39324SOL    HW225213   1.564   1.490  11.197 -0.7202 -0.0464 -0.5649
39325SOL     OW25214   9.226   1.462   6.009 -0.0094  0.1840  0.4212
39325SOL    HW125215   9.147   1.517   6.012 -0.3522 -0.3397  1.6549
39325SOL    HW225216   9.298   1.522   6.028 -0.1577  0.5699 -0.2034
39326SOL     OW25217   7.719  11.324   5.838 -0.2745 -0.4250  0.0297
39326SOL    HW125218   7.686  11.412   5.823  0.1839 -0.1374  0.6556
39326SOL    HW225219   7.805  11.337   5.878 -0.1392 -1.1545 -0.0030
39327SOL     OW25220   8.069   2.074   3.955 -0.5819 -0.0032  0.0177
39327SOL    HW125221   8.067   2.170   3.962  1.8395  0.1505 -0.7644
39327SOL    HW225222   8.139   2.056   3.893  0.3029 -2.3424  1.5846
39328SOL     OW25223  12.628   3.693   7.367  0.5150 -0.4564  0.4536
39328SOL    HW125224  12.634   3.677   7.461  0.8904 -2.3143  0.1439
39328SOL    HW225225  12.534   3.707   7.351  0.5538  0.8315  1.2143
39329SOL     OW25226  11.266   8.538   3.904 -0.6637  0.1675  0.7840
39329SOL    HW125227  11.312   8.573   3.980 -0.6365 -0.6087  1.1296
39329SOL    HW225228  11.311   8.457   3.883  0.9703  1.5828 -1.6521
39330SOL     OW25229  12.531  12.644   4.138 -0.4288 -0.2386  0.0758
39330SOL    HW125230  12.565  12.561   4.171  0.2352  0.4350  1.1321
39330SOL    HW225231  12.581  12.711   4.185 -0.6045  0.7630 -1.1068
39331SOL     OW25232   2.321   9.687   9.744  0.2517  0.0677 -0.6427
39331SOL    HW125233   2.373   9.753   9.790 -1.8204  1.7580 -0.5450
39331SOL    HW225234   2.261   9.653   9.811  0.5516 -1.1517 -0.9645
39332SOL     OW25235   8.499   1.996   7.497  0.9376 -0.2194 -0.4498
39332SOL    HW125236   8.560   2.070   7.496  1.9830 -1.0693 -0.7263
39332SOL    HW225237   8.460   1.999   7.584  0.6465  0.9055 -0.6023
39333SOL     OW25238  10.905   9.667  10.021 -0.7715  0.2607 -0.0255
39333SOL    HW125239  10.852   9.700   9.949  0.6353  0.3471 -1.0593
39333SOL    HW225240  10.888   9.728  10.093 -1.8088  0.4709 -0.4319
39334SOL     OW25241   8.993   4.330   7.038 -0.5441  0.0029 -0.4238
39334SOL    HW125242   8.960   4.392   6.973  0.2096 -0.2399 -1.0425
39334SOL    HW225243   8.929   4.335   7.109 -1.9723 -0.5386 -1.6280
39335SOL     OW25244   8.322  10.917  11.418 -0.5479 -0.5015  0.4316
39335SOL    HW125245   8.276  10.852  11.470 -3.4717  1.3299  0.3198
39335SOL    HW225246   8.314  10.886  11.327 -0.6341 -0.7091  0.5114
39336SOL     OW25247  12.523   1.166   9.815  0.2513  0.5875  0.3289
39336SOL    HW125248  12.512   1.130   9.903  0.5990  1.1203  0.5991
39336SOL    HW225249  12.465   1.113   9.760 -2.0623  1.9285  1.3124
39337SOL     OW25250  12.009   6.764   0.167 -0.5665  0.0535  0.6542
39337SOL    HW125251  11.995   6.739   0.258 -1.3168 -0.3361  0.4376
39337SOL    HW225252  12.104   6.771   0.159 -0.4738 -0.2523  1.3742
39338SOL     OW25253   4.519   1.250  12.105  0.3522 -0.0604 -0.0990
39338SOL    HW125254   4.569   1.220  12.029  0.6632  0.6068 -0.1589
39338SOL    HW225255   4.579   1.238  12.179  0.9007  1.4330 -0.2661
39339SOL     OW25256  11.549  10.349   2.243  0.1528 -0.2382  0.3193
39339SOL    HW125257  11.492  10.370   2.170  0.3216  0.8367  0.4747
39339SOL    HW225258  11.541  10.255   2.254 -0.9767 -0.2106 -0.1625
39340SOL     OW25259   2.454   7.969   5.208 -0.1838 -0.1811 -0.2379
39340SOL    HW125260   2.401   8.049   5.211  2.3314  1.6053  0.1784
39340SOL    HW225261   2.513   7.983   5.134  0.0900 -1.8157 -0.3544
39341SOL     OW25262   4.594   9.907   7.566 -0.3315  0.6088 -0.3273
39341SOL    HW125263   4.640   9.825   7.551 -3.0319 -1.3777  1.4235
39341SOL    HW225264   4.622   9.964   7.493  1.2201 -2.0052 -1.9169
39342SOL     OW25265   3.792   2.789   2.668  0.8707 -0.2864 -0.2745
39342SOL    HW125266   3.742   2.756   2.743  0.0648  1.9025  0.2301
39342SOL    HW225267   3.751   2.747   2.592  0.0955 -0.6691  0.3359
39343SOL     OW25268  10.697   7.192  11.834  0.1827 -0.4098 -0.0689
39343SOL    HW125269  10.607   7.169  11.857  0.2708 -2.1436 -1.2057
39343SOL    HW225270  10.708   7.156  11.746  1.3702  1.5675 -0.7759
39344SOL     OW25271   4.267   3.336  11.326  0.9560 -0.9747 -1.0337
39344SOL    HW125272   4.342   3.286  11.358  2.3530  0.9539 -1.1141
39344SOL    HW225273   4.304   3.395  11.261 -0.6080  0.1388 -0.9647
39345SOL     OW25274   3.344  10.457   1.792  0.0611  0.4329  0.3423
39345SOL    HW125275   3.438  10.452   1.776  0.1075  0.6809  0.5301
39345SOL    HW225276   3.318  10.541   1.754 -0.3642 -0.3103 -1.0744
39346SOL     OW25277   3.522  12.533   1.767 -0.4699 -0.4081 -0.2074
39346SOL    HW125278   3.575  12.564   1.694  0.4591 -0.4494  0.4307
39346SOL    HW225279   3.447  12.490   1.725 -0.1256 -0.1483 -1.1249
39347SOL     OW25280   6.843   3.145   6.983 -0.2575 -0.1389 -0.0528
39347SOL    HW125281   6.904   3.143   6.909  1.9885 -1.7213  1.6891
39347SOL    HW225282   6.900   3.152   7.060 -2.4675  0.8946  1.5864
39348SOL     OW25283   3.953  11.400   7.278 -0.0292  0.6051  0.3061
39348SOL    HW125284   3.982  11.477   7.229  1.0907  0.6794  1.0654
39348SOL    HW225285   3.857  11.405   7.275  0.0271  1.7869 -0.0212
39349SOL     OW25286   6.179   9.091   8.602  0.4467  0.2118 -0.1213
39349SOL    HW125287   6.273   9.090   8.619  0.5436 -1.6554 -0.5378
39349SOL    HW225288   6.141   9.133   8.679  1.4277 -1.4824  1.3705
39350SOL     OW25289   1.933   0.986   8.948  0.0891  0.4080 -0.0714
39350SOL    HW125290   1.887   1.069   8.958 -1.4971 -0.5091  0.6534
39350SOL    HW225291   1.913   0.958   8.859  0.4934  0.7114 -0.2622
39351SOL     OW25292   8.902   5.224  12.305  0.0342  0.0837  0.3538
39351SOL    HW125293   8.975   5.241  12.365  0.5619 -0.5620 -0.0921
39351SOL    HW225294   8.827   5.268  12.346  0.1123 -1.2833  2.0979
39352SOL     OW25295  11.459   1.949   1.707 -0.6094  0.0562  0.2157
39352SOL    HW125296  11.451   1.929   1.614 -0.4033 -0.3839  0.2892
39352SOL    HW225297  11.554   1.952   1.723 -0.6440 -0.1268  0.4628
39353SOL     OW25298  10.644   3.739   3.951 -0.3159 -0.0706  0.2763
39353SOL    HW125299  10.606   3.670   4.005 -0.0402 -0.1490  0.3672
39353SOL    HW225300  10.569   3.795   3.928 -0.4372 -0.0526  0.7148
39354SOL     OW25301   8.348   8.107  11.393 -0.3668 -0.0234  0.0023
39354SOL    HW125302   8.282   8.045  11.361 -0.5816  0.0687  0.2683
39354SOL    HW225303   8.429   8.080  11.350 -0.8665  0.7793 -1.5049
39355SOL     OW25304   6.716   9.483   1.295 -0.2358  0.1527  0.4902
39355SOL    HW125305   6.696   9.455   1.206 -1.9108  2.3450  0.1022
39355SOL    HW225306   6.812   9.483   1.300 -0.1205 -1.6591 -0.6919
39356SOL     OW25307   1.642   8.667   6.823  0.4632  0.2400  0.3019
39356SOL    HW125308   1.662   8.749   6.868 -0.1693  0.9269 -0.6290
39356SOL    HW225309   1.548   8.653   6.837  0.8830 -1.3248  2.0081
39357SOL     OW25310   0.397   7.191   2.229  0.0489  0.6949  0.1642
39357SOL    HW125311   0.338   7.192   2.305 -1.3281 -0.6817 -0.8179
39357SOL    HW225312   0.470   7.134   2.257 -0.4869  0.1309  0.4305
39358SOL     OW25313   8.955   8.091  10.340 -0.1424  0.0972  0.2320
39358SOL    HW125314   9.024   8.032  10.309  1.1413  0.1292  2.7785
39358SOL    HW225315   8.886   8.034  10.373  0.4570 -0.0057  1.3481
39359SOL     OW25316   5.300   2.904   3.034  0.5394 -0.0955  0.4226
39359SOL    HW125317   5.349   2.847   2.974  2.2014 -0.3728  1.9403
39359SOL    HW225318   5.265   2.844   3.100  0.1493  0.3710  0.6403
39360SOL     OW25319   7.709   7.594  10.423 -0.0079  0.0359  0.1940
39360SOL    HW125320   7.797   7.565  10.447  0.1957  0.1394 -0.4305
39360SOL    HW225321   7.709   7.595  10.328 -0.5520  0.4564  0.1972
39361SOL     OW25322   3.943   7.036   8.530 -0.0783 -0.0131 -0.5690
39361SOL    HW125323   3.870   6.976   8.548  0.8713 -1.4747 -1.3727
39361SOL    HW225324   3.946   7.093   8.606 -1.6023 -0.3918 -0.1818
39362SOL     OW25325   5.606  11.492  10.439 -0.8595 -0.5275  0.8628
39362SOL    HW125326   5.651  11.451  10.514 -0.1625 -0.4035  0.5254
39362SOL    HW225327   5.532  11.435  10.421  0.6317 -2.2240 -0.2207
39363SOL     OW25328   7.109   1.031   1.586 -0.1513 -0.3598  0.1168
39363SOL    HW125329   7.190   1.035   1.636  0.2844  0.3751 -0.6384
39363SOL    HW225330   7.069   0.948   1.612  0.5946 -0.4934  0.8620
39364SOL     OW25331   3.528   7.450   5.988 -0.9060 -0.0629  0.0238
39364SOL    HW125332   3.573   7.432   6.070 -0.3713 -0.7729 -0.4144
39364SOL    HW225333   3.547   7.374   5.932 -1.6891  0.1629 -0.5765
39365SOL     OW25334   5.504   9.156   8.157 -0.1645 -0.7087  0.0737
39365SOL    HW125335   5.526   9.154   8.063 -0.8876 -1.5208 -0.0845
39365SOL    HW225336   5.414   9.124   8.162 -0.6291  0.6160  0.9256
39366SOL     OW25337   2.078   0.027   6.758  0.1190 -0.0192 -0.0036
39366SOL    HW125338   2.022  -0.015   6.694  0.3147  1.3600 -1.1181
39366SOL    HW225339   2.165   0.025   6.719  0.0595  1.7853 -0.3036
39367SOL     OW25340   7.838   7.608   1.471  0.2518  0.9597  0.3736
39367SOL    HW125341   7.898   7.582   1.541  0.5541  0.0641 -0.1954
39367SOL    HW225342   7.812   7.525   1.430  0.9373  1.5177 -1.2714
39368SOL     OW25343   8.885   7.751  12.677  0.3162 -0.4965  1.0373
39368SOL    HW125344   8.806   7.758  12.731 -2.2699 -2.3947 -2.0969
39368SOL    HW225345   8.878   7.823  12.615 -0.9612 -2.5856 -1.4209
39369SOL     OW25346   3.181   0.941   0.618 -0.7722 -0.0662 -0.6407
39369SOL    HW125347   3.110   0.992   0.656 -0.3372  0.5805 -0.6872
39369SOL    HW225348   3.171   0.955   0.523 -0.2020  0.5473 -0.6151
39370SOL     OW25349  12.597   1.154   6.892 -0.3051  0.1333  0.6353
39370SOL    HW125350  12.532   1.125   6.827 -0.4556 -0.0126  0.8486
39370SOL    HW225351  12.557   1.134   6.976  0.2610 -0.5080  0.7652
39371SOL     OW25352   2.301   1.523   4.514 -0.4902  0.0795 -0.5373
39371SOL    HW125353   2.232   1.486   4.458 -1.2595 -1.2376  1.1857
39371SOL    HW225354   2.381   1.513   4.463 -0.7980 -3.2207 -0.5865
39372SOL     OW25355   2.654   9.197   6.138  0.1740 -1.0767 -0.2871
39372SOL    HW125356   2.642   9.284   6.099 -0.3709 -1.0690 -0.1101
39372SOL    HW225357   2.729   9.160   6.091  1.1072 -0.0965  0.3680
39373SOL     OW25358   9.135   0.684  11.082  1.0109 -0.6401  0.5513
39373SOL    HW125359   9.112   0.764  11.130  1.1793 -0.1463 -0.1872
39373SOL    HW225360   9.160   0.714  10.995  3.5962 -1.2014  0.9906
39374SOL     OW25361   8.711   6.568   1.061  0.1233 -0.0821 -0.1032
39374SOL    HW125362   8.668   6.598   1.141 -0.2164 -0.1435 -0.2603
39374SOL    HW225363   8.665   6.614   0.991 -1.5950 -2.2330 -0.5065
39375SOL     OW25364  12.494   8.882   2.924 -0.3606  0.6059  0.3054
39375SOL    HW125365  12.555   8.830   2.872 -1.3033 -0.2853  0.0552
39375SOL    HW225366  12.532   8.969   2.926  0.6538  0.1856 -0.2758
39376SOL     OW25367  11.991   7.717   6.817 -0.1359 -0.0863 -0.4455
39376SOL    HW125368  11.915   7.737   6.871 -0.1018 -1.1119  0.0273
39376SOL    HW225369  11.989   7.621   6.808  1.4386 -0.2116  0.1290
39377SOL     OW25370   2.349   3.218   4.975  0.1709 -0.1215 -0.1028
39377SOL    HW125371   2.285   3.269   5.026  0.4412  0.5088 -0.3838
39377SOL    HW225372   2.375   3.147   5.034  1.5177  1.3664  1.1895
39378SOL     OW25373   9.718   4.661  11.363 -0.2731 -0.2885  0.2179
39378SOL    HW125374   9.784   4.612  11.412 -1.4967 -0.8416  1.3720
39378SOL    HW225375   9.748   4.752  11.367 -0.4389 -0.2818  2.2164
39379SOL     OW25376   2.539  12.601   3.582  0.3201 -0.2807 -0.6385
39379SOL    HW125377   2.575  12.532   3.637  0.5922 -0.3552 -0.9070
39379SOL    HW225378   2.612  12.661   3.569  0.2150 -0.1853 -0.7919
39380SOL     OW25379   0.114   4.322   2.463  0.1406  0.1536  0.9298
39380SOL    HW125380   0.159   4.299   2.544  0.7807 -0.6481  0.3658
39380SOL    HW225381   0.168   4.391   2.423  1.3582 -1.3247 -0.1161
39381SOL     OW25382   7.086   2.446   2.490 -0.5070 -0.1897  0.3121
39381SOL    HW125383   7.094   2.444   2.394  1.5823 -1.0005  0.4516
39381SOL    HW225384   7.149   2.512   2.518  0.1572 -1.1474  1.1821
39382SOL     OW25385   2.659  10.895   8.940  0.0429  0.5171  0.1212
39382SOL    HW125386   2.651  10.879   8.846  1.1551 -2.1720  0.4199
39382SOL    HW225387   2.580  10.856   8.978  0.9172 -0.8895  0.5302
39383SOL     OW25388   2.237   2.846  12.183  0.0443 -0.1318  0.6417
39383SOL    HW125389   2.145   2.833  12.161  0.2193 -0.9271  0.3693
39383SOL    HW225390   2.235   2.885  12.271 -0.5055 -2.4905  1.7631
39384SOL     OW25391   8.095   8.148   0.131  0.4364  0.2959  0.1922
39384SOL    HW125392   8.089   8.170   0.224 -0.4008  0.2197  0.1622
39384SOL    HW225393   8.132   8.060   0.130  1.1690  0.5943  0.4188
39385SOL     OW25394   9.627   2.265   8.516 -0.1976 -0.6503 -0.1060
39385SOL    HW125395   9.632   2.194   8.580 -0.0700 -0.4825  0.0747
39385SOL    HW225396   9.589   2.338   8.565  3.8344  0.9237  1.1583
39386SOL     OW25397   8.299   9.981  12.402 -0.1862  0.1494 -0.5720
39386SOL    HW125398   8.324  10.024  12.484 -1.3717 -0.1168 -0.0510
39386SOL    HW225399   8.207   9.959  12.413 -0.0542 -1.0035 -1.4954
39387SOL     OW25400   1.706   9.084  10.826  0.2683  0.3765  0.3365
39387SOL    HW125401   1.750   9.150  10.880 -1.0980  1.6198 -0.0113
39387SOL    HW225402   1.711   9.004  10.878  1.8722  0.7610  0.8188
39388SOL     OW25403  11.805   6.929   2.523 -0.0635  0.5158  0.3564
39388SOL    HW125404  11.813   6.867   2.595  1.2069 -1.0807 -1.0860
39388SOL    HW225405  11.717   6.966   2.533 -0.5825 -0.9631  1.6791
39389SOL     OW25406   5.215   7.331   6.478  0.2209 -0.0715  0.3354
39389SOL    HW125407   5.234   7.425   6.484  0.9704 -0.1501 -0.6339
39389SOL    HW225408   5.189   7.306   6.567  1.5911  0.7094  0.9801
39390SOL     OW25409   1.653   0.779   7.606  0.4307  0.2722  0.1595
39390SOL    HW125410   1.729   0.806   7.553  1.3776  0.9123  1.7620
39390SOL    HW225411   1.619   0.861   7.642 -0.5387 -0.0958  0.0977
39391SOL     OW25412  11.311   6.733   0.979  0.4422  0.1130  0.5796
39391SOL    HW125413  11.358   6.691   0.907 -0.8883  0.1997 -0.3725
39391SOL    HW225414  11.375   6.791   1.020  1.9390 -1.7927  1.0627
39392SOL     OW25415  11.539   8.978  10.291 -0.2124  0.7205  0.0833
39392SOL    HW125416  11.564   8.952  10.380 -0.2448 -2.6257 -0.7428
39392SOL    HW225417  11.578   9.065  10.279  2.3594  0.0086  2.3195
39393SOL     OW25418   7.516   4.737   5.368  0.6098 -0.0570 -0.1964
39393SOL    HW125419   7.524   4.795   5.293 -1.3526 -0.8960 -1.1212
39393SOL    HW225420   7.464   4.787   5.432  0.8915  0.0468 -0.0452
39394SOL     OW25421   0.993   7.877   7.917  0.6359  0.0822 -0.0815
39394SOL    HW125422   0.987   7.863   8.012 -0.3339  3.1213  0.4288
39394SOL    HW225423   0.905   7.860   7.884  1.0385 -1.2416 -0.5323
39395SOL     OW25424   3.403   0.670  10.328  0.6082 -0.2142  0.3119
39395SOL    HW125425   3.410   0.620  10.246 -0.2175  0.6438 -0.3013
39395SOL    HW225426   3.414   0.761  10.301  1.6063  0.0037  1.3477
39396SOL     OW25427   9.175   0.784  10.840  0.3671  0.2143  0.4026
39396SOL    HW125428   9.108   0.847  10.814  1.0857  0.5409 -0.7427
39396SOL    HW225429   9.189   0.730  10.762  1.3329  0.0700  0.6577
39397SOL     OW25430   3.935   4.288  12.212 -0.2803  0.5028 -0.4192
39397SOL    HW125431   4.007   4.328  12.162  0.1368  1.4930  0.9242
39397SOL    HW225432   3.975   4.265  12.296 -1.1625 -0.4011 -0.2386
39398SOL     OW25433   4.728   6.726  11.649 -0.3905 -0.5719 -0.0090
39398SOL    HW125434   4.801   6.785  11.669 -0.4679  0.5264 -2.5453
39398SOL    HW225435   4.666   6.780  11.599 -2.2332 -1.8828  0.7491
39399SOL     OW25436   1.123   4.644  12.447 -0.2284  0.1089  0.1956
39399SOL    HW125437   1.090   4.646  12.358  0.8316 -2.0408 -0.3129
39399SOL    HW225438   1.069   4.707  12.494 -1.7342  0.2775 -1.6443
39400SOL     OW25439   8.527   0.656   0.622  0.0497 -0.4249  0.2344
39400SOL    HW125440   8.458   0.716   0.595 -0.0897 -0.8483 -0.3684
39400SOL    HW225441   8.604   0.684   0.573 -0.4208 -1.7522 -1.3822
39401SOL     OW25442   6.551   9.094  11.061  0.4135  0.9530  0.1592
39401SOL    HW125443   6.467   9.086  11.108 -0.3671  0.4755 -1.2604
39401SOL    HW225444   6.587   9.178  11.090  0.2048  0.4711  1.9582
39402SOL     OW25445   8.820   0.819   5.648  0.1533 -0.1141 -0.0501
39402SOL    HW125446   8.724   0.825   5.641  0.0756 -1.9957 -2.0539
39402SOL    HW225447   8.835   0.779   5.733 -0.6131  2.7242  1.5275
39403SOL     OW25448   5.928  11.771   7.068 -0.7560 -0.7467  0.2393
39403SOL    HW125449   6.008  11.729   7.035 -0.5905 -0.5815  0.4336
39403SOL    HW225450   5.953  11.862   7.083 -0.7886 -0.8571  0.9755
39404SOL     OW25451  12.527   8.680   7.315 -0.1705  0.1377  0.0845
39404SOL    HW125452  12.440   8.657   7.282 -0.7791  0.9985  1.0202
39404SOL    HW225453  12.587   8.622   7.268 -1.1966 -0.1089 -0.9583
39405SOL     OW25454   9.760   8.620   0.582 -0.7982 -0.1641  0.2340
39405SOL    HW125455   9.796   8.602   0.669 -1.7232 -2.5418  0.2089
39405SOL    HW225456   9.836   8.638   0.527 -0.1448  0.5770  1.3529
39406SOL     OW25457   4.556   1.302   2.890  0.3330 -0.2513  0.1073
39406SOL    HW125458   4.598   1.311   2.804 -0.0957 -0.1384 -0.0902
39406SOL    HW225459   4.465   1.278   2.871  0.6217 -1.8617  0.5505
39407SOL     OW25460   4.686  10.172  11.212  0.7347 -0.2566 -0.1558
39407SOL    HW125461   4.590  10.169  11.207  0.7352 -0.0997 -0.2705
39407SOL    HW225462   4.703  10.205  11.301  0.6131  2.7529 -1.1313
39408SOL     OW25463  10.803   4.656  12.279 -0.1401  0.6224 -0.0230
39408SOL    HW125464  10.756   4.732  12.245 -0.4369  1.1332  1.4673
39408SOL    HW225465  10.857   4.691  12.350  0.6214 -0.3740 -0.0918
39409SOL     OW25466   8.380   9.431   4.324  0.6709 -0.7593  0.3996
39409SOL    HW125467   8.324   9.390   4.390 -0.1664  0.4958  0.4939
39409SOL    HW225468   8.323   9.492   4.277  1.7311 -0.1184 -0.1168
39410SOL     OW25469   0.774   7.558  12.542  0.3087  0.0835 -0.1142
39410SOL    HW125470   0.769   7.464  12.526  1.1125 -0.0317  0.2426
39410SOL    HW225471   0.774   7.597  12.454  1.3032 -0.3374 -0.3189
39411SOL     OW25472   8.284   3.351   8.370 -0.5155  0.0286  0.2925
39411SOL    HW125473   8.363   3.405   8.359  0.0868 -0.3992  2.2653
39411SOL    HW225474   8.231   3.371   8.292  0.0397  2.8325  0.5221
39412SOL     OW25475   6.653   6.453   9.151 -0.3259 -0.3082 -0.3190
39412SOL    HW125476   6.726   6.419   9.203 -0.1999 -0.4603 -0.5970
39412SOL    HW225477   6.599   6.500   9.215  0.0101 -0.2002 -0.1124
39413SOL     OW25478  10.460   0.198   5.774 -0.3381 -0.4311 -0.4059
39413SOL    HW125479  10.551   0.175   5.755  0.4901  2.2850 -0.0983
39413SOL    HW225480  10.448   0.175   5.866  1.2021  2.2822  0.5629
39414SOL     OW25481   9.871   1.506  12.505 -0.3873 -0.4377 -0.1652
39414SOL    HW125482   9.822   1.586  12.487 -0.7246 -0.5700  0.1609
39414SOL    HW225483   9.832   1.471  12.585 -0.2927 -0.9680 -0.3455
39415SOL     OW25484   5.263   3.181  10.131  0.1003  0.2457  0.2754
39415SOL    HW125485   5.343   3.128  10.129 -0.0286 -0.0035  1.1504
39415SOL    HW225486   5.246   3.194  10.224 -2.3632 -2.0053  0.2641
39416SOL     OW25487  11.735   0.200   9.473 -0.4931 -0.0416 -0.1339
39416SOL    HW125488  11.776   0.134   9.417  0.3286 -0.8523  1.3657
39416SOL    HW225489  11.660   0.154   9.513 -0.6356  0.3002 -0.0038
39417SOL     OW25490   2.588  11.633   6.789  0.1243 -0.6443  0.0596
39417SOL    HW125491   2.572  11.566   6.855 -0.5260 -0.1429  0.4212
39417SOL    HW225492   2.682  11.649   6.792  0.0540 -0.4030  1.0786
39418SOL     OW25493   1.306   0.449   2.335  0.4418 -0.2831  0.0523
39418SOL    HW125494   1.351   0.514   2.281  0.5272  0.6098  1.1673
39418SOL    HW225495   1.368   0.431   2.407 -0.1639 -0.5461  0.5156
39419SOL     OW25496   0.107   8.681   6.618 -0.0472 -0.0997 -0.3137
39419SOL    HW125497   0.041   8.647   6.557 -0.4696 -0.1333  0.1538
39419SOL    HW225498   0.190   8.674   6.571 -0.3431 -0.3188 -0.8040
39420SOL     OW25499   8.043   5.352   5.236  0.5551  0.2472 -0.1767
39420SOL    HW125500   8.035   5.322   5.145 -0.0551 -0.1380 -0.0075
39420SOL    HW225501   8.137   5.368   5.248  0.5357  1.1871 -1.1425
39421SOL     OW25502   5.945   2.476   1.585 -0.5124  0.1566  0.2066
39421SOL    HW125503   5.862   2.521   1.603 -1.5237 -2.0369  1.4244
39421SOL    HW225504   5.918   2.392   1.547  1.2412 -0.0345 -0.7026
39422SOL     OW25505   1.945  11.589  10.084 -0.1268  0.0007 -0.1454
39422SOL    HW125506   1.999  11.557  10.157  2.1029  0.3507 -1.5546
39422SOL    HW225507   1.908  11.672  10.116 -0.4452 -0.5920  1.1011
39423SOL     OW25508   9.140  10.281   6.958  0.1203  0.1932  0.0002
39423SOL    HW125509   9.222  10.253   6.998 -0.7596 -2.2393  0.2860
39423SOL    HW225510   9.073  10.225   6.998 -1.5318  1.3013 -1.0599
39424SOL     OW25511  10.452   0.136   0.566  0.2952 -0.0649 -0.1586
39424SOL    HW125512  10.461   0.200   0.495 -2.5741 -0.9636 -1.4587
39424SOL    HW225513  10.386   0.174   0.625 -0.0197 -0.9503  0.0803
39425SOL     OW25514   9.909   1.215  11.334 -0.3150 -0.1862  0.3624
39425SOL    HW125515   9.981   1.153  11.333  0.1734  0.3690  0.7168
39425SOL    HW225516   9.909   1.250  11.423 -0.8995 -0.0385  0.3091
39426SOL     OW25517  10.870   9.026   1.121 -0.1616  0.4738  0.3619
39426SOL    HW125518  10.930   8.953   1.136  1.8589  1.6982 -1.1853
39426SOL    HW225519  10.823   9.004   1.041 -0.0426  0.5674  0.2663
39427SOL     OW25520   2.589  12.181   2.844 -0.4160 -0.1161  0.2838
39427SOL    HW125521   2.613  12.274   2.851 -2.5699  0.5811 -0.5937
39427SOL    HW225522   2.671  12.136   2.828  1.1962  1.2131  3.7013
39428SOL     OW25523   5.688   3.450  12.069  0.2357  0.6724  0.7608
39428SOL    HW125524   5.641   3.497  12.000  2.9036  2.3883 -0.0217
39428SOL    HW225525   5.682   3.358  12.043 -2.7161  0.7699  0.8164
39429SOL     OW25526  11.707   6.717   3.533 -0.4236  0.3694  0.0332
39429SOL    HW125527  11.688   6.794   3.587 -1.0979 -0.5291  1.1289
39429SOL    HW225528  11.626   6.666   3.535  0.0193 -0.3896 -0.6348
39430SOL     OW25529  10.248   2.838   4.753  0.2928 -0.2621  0.7199
39430SOL    HW125530  10.161   2.804   4.735 -0.5111  2.1884 -0.4577
39430SOL    HW225531  10.236   2.893   4.831  0.9504 -0.4505  0.9627
39431SOL     OW25532   6.012   3.478   0.036 -0.5050 -0.3998  0.4643
39431SOL    HW125533   6.079   3.417   0.003 -1.2626 -0.2197 -1.6023
39431SOL    HW225534   5.996   3.450   0.126  3.4796  0.5782  1.6642
39432SOL     OW25535  11.083   1.439   9.468  0.1785  0.0953  0.6191
39432SOL    HW125536  11.097   1.533   9.455 -0.8313  0.0857 -0.8126
39432SOL    HW225537  11.164   1.408   9.509  1.2342  1.2862 -0.4821
39433SOL     OW25538   8.000   8.498   1.473  0.1842 -0.2745  0.8081
39433SOL    HW125539   7.996   8.431   1.404  1.0238  0.4909 -0.0288
39433SOL    HW225540   8.017   8.449   1.553  0.8521 -1.0784  0.2016
39434SOL     OW25541  12.394   3.134   7.358 -0.5644  0.0092  0.2288
39434SOL    HW125542  12.486   3.115   7.337 -0.9520 -1.2856 -0.4302
39434SOL    HW225543  12.398   3.186   7.438  0.7660  0.5699 -0.1723
39435SOL     OW25544   5.662   0.724   7.150  0.0602  0.1203  0.2739
39435SOL    HW125545   5.585   0.778   7.132  0.2327  0.3466  0.1961
39435SOL    HW225546   5.705   0.767   7.224 -0.4324 -0.5844  0.9868
39436SOL     OW25547   1.744   1.418   7.602 -0.4423  0.4215 -0.3270
39436SOL    HW125548   1.754   1.378   7.516 -0.7551 -1.7765  0.5889
39436SOL    HW225549   1.660   1.464   7.598 -0.0557  1.0631 -1.4289
39437SOL     OW25550   6.585   5.213   7.204 -0.3388 -0.1187  0.4852
39437SOL    HW125551   6.513   5.199   7.266  0.4531  1.1355  1.7533
39437SOL    HW225552   6.546   5.198   7.118 -1.4483 -2.0911  1.2465
39438SOL     OW25553   6.919  11.131   3.262  0.2118  0.3055 -0.4707
39438SOL    HW125554   6.968  11.158   3.340  1.0700 -0.7126 -0.6254
39438SOL    HW225555   6.829  11.118   3.293 -0.3022  3.3861 -0.4346
39439SOL     OW25556   6.776   2.421   6.696 -0.1688  0.6072 -0.0840
39439SOL    HW125557   6.869   2.442   6.704 -0.1787  0.4952  0.3482
39439SOL    HW225558   6.758   2.364   6.771 -0.5412  0.4770 -0.2729
39440SOL     OW25559   2.921  10.200   7.591  0.1042  0.2350 -0.4315
39440SOL    HW125560   3.016  10.208   7.597  0.0712 -0.1788  3.4722
39440SOL    HW225561   2.888  10.277   7.637 -1.3473 -0.7586  0.2687
39441SOL     OW25562   8.302   4.194   8.050  0.1111 -0.4166 -0.5292
39441SOL    HW125563   8.357   4.185   8.128 -0.6424 -0.5676 -0.0007
39441SOL    HW225564   8.330   4.277   8.011  1.2165 -0.8458 -0.6957
39442SOL     OW25565   8.598   2.423   8.417  0.3069  0.6412  0.1309
39442SOL    HW125566   8.637   2.338   8.436  2.9491  1.9957  1.2959
39442SOL    HW225567   8.672   2.478   8.392 -1.2311  2.7636 -0.0013
39443SOL     OW25568   5.060   8.255   2.580  0.4674  0.2488 -0.7740
39443SOL    HW125569   5.122   8.264   2.508  0.8067  1.0245 -0.3893
39443SOL    HW225570   5.014   8.339   2.583 -0.1876 -0.1047 -0.6699
39444SOL     OW25571   3.455   5.509   1.221 -0.0069  0.1064  0.9585
39444SOL    HW125572   3.484   5.552   1.302  0.4105  0.8253  0.4433
39444SOL    HW225573   3.518   5.438   1.207 -0.0626  0.0002  1.2492
39445SOL     OW25574   4.567  12.233   1.500  0.4593 -0.9767  0.5826
39445SOL    HW125575   4.638  12.286   1.463  2.1319 -1.9058  2.3049
39445SOL    HW225576   4.499  12.297   1.523  0.3383 -0.1390 -1.7658
39446SOL     OW25577  10.934  11.099   6.566  0.1572  0.0225  0.1275
39446SOL    HW125578  10.909  11.099   6.659  1.1881 -2.5274  0.4613
39446SOL    HW225579  11.029  11.109   6.567  0.2589 -0.8463 -0.6172
39447SOL     OW25580  10.778   8.295   6.777 -0.5345  0.8512 -0.0075
39447SOL    HW125581  10.716   8.306   6.849  0.2965 -0.4843  0.9433
39447SOL    HW225582  10.844   8.235   6.811 -0.9544 -1.1260 -2.4042
39448SOL     OW25583  10.557   2.477   2.470  0.4075  0.0788 -0.1576
39448SOL    HW125584  10.603   2.393   2.475 -0.5094 -0.4203  0.2117
39448SOL    HW225585  10.625   2.541   2.452  1.8542 -0.1388  3.6352
39449SOL     OW25586   2.196   8.411   2.324 -0.3660 -0.2163 -0.3305
39449SOL    HW125587   2.145   8.356   2.264 -2.3863  1.3781 -0.1574
39449SOL    HW225588   2.189   8.367   2.409  0.1222 -0.9631 -0.6584
39450SOL     OW25589  12.141  12.272  10.931 -0.2031  0.0652  0.2363
39450SOL    HW125590  12.220  12.291  10.983 -0.7742  1.3050  0.6990
39450SOL    HW225591  12.068  12.290  10.991 -0.8578 -1.5731 -0.0190
39451SOL     OW25592   0.051   8.929   9.956  0.3316 -0.4120  0.4897
39451SOL    HW125593   0.099   8.994  10.007 -0.7543  1.0685 -0.2797
39451SOL    HW225594   0.018   8.978   9.881 -0.4583 -1.8983 -0.1702
39452SOL     OW25595  11.472   0.963   9.261  0.5267 -0.3901  0.1447
39452SOL    HW125596  11.544   1.021   9.283 -0.7126  0.5207  2.1407
39452SOL    HW225597  11.398   1.022   9.244 -0.0361 -1.3172 -0.7092
39453SOL     OW25598  10.256  10.096   0.044 -0.2913 -0.6353  0.3813
39453SOL    HW125599  10.190  10.164   0.030 -0.5583 -0.7340  1.0741
39453SOL    HW225600  10.295  10.118   0.129 -2.7122 -3.1394  2.3605
39454SOL     OW25601   2.494   1.526   6.966  0.6313  0.4388  0.0094
39454SOL    HW125602   2.492   1.430   6.970 -1.0217  0.2929 -2.0742
39454SOL    HW225603   2.543   1.552   7.043  1.3696 -2.0913  0.5112
39455SOL     OW25604   9.886  10.726   3.532 -0.3512 -0.5487  0.5420
39455SOL    HW125605   9.919  10.777   3.606 -1.2657 -0.9163  1.2140
39455SOL    HW225606   9.937  10.645   3.533  0.4619 -0.0563  0.0328
39456SOL     OW25607   6.582  12.182  12.635  0.3429 -0.0475 -0.3733
39456SOL    HW125608   6.523  12.110  12.613  0.7257 -0.2277 -0.8448
39456SOL    HW225609   6.654  12.173  12.573  1.4988 -0.6096  0.9939
39457SOL     OW25610   6.698   1.212   8.456  0.3255  0.3463  0.0770
39457SOL    HW125611   6.693   1.205   8.361 -1.1168  2.4609 -0.0699
39457SOL    HW225612   6.787   1.183   8.477 -0.6318 -4.6324 -1.3090
39458SOL     OW25613   8.111  11.038   1.040 -0.3446 -0.0213 -0.1356
39458SOL    HW125614   8.022  11.014   1.066 -0.1932  0.9496  1.4493
39458SOL    HW225615   8.103  11.065   0.949 -1.0173 -3.0865 -1.0932
39459SOL     OW25616  12.311  11.687   2.264 -0.7388  0.2086  0.0404
39459SOL    HW125617  12.376  11.702   2.332 -0.3978 -0.0962 -0.2110
39459SOL    HW225618  12.229  11.674   2.311 -0.4859 -0.1223  0.4029
39460SOL     OW25619   9.731   7.878   4.705 -0.7857  0.0986  0.2313
39460SOL    HW125620   9.764   7.789   4.717 -2.1281 -0.4085  0.3874
39460SOL    HW225621   9.800   7.935   4.740  0.3225 -0.8457 -0.3719
39461SOL     OW25622  11.323   8.044   1.770 -0.1092 -0.3445  0.4072
39461SOL    HW125623  11.377   8.111   1.728 -1.0820  2.0099  2.6897
39461SOL    HW225624  11.251   8.030   1.708 -0.0452  0.9526 -0.0029
39462SOL     OW25625   9.026   7.829  10.647 -0.2561  0.3398 -0.4120
39462SOL    HW125626   9.056   7.762  10.709 -0.8541  0.5149  0.0723
39462SOL    HW225627   9.044   7.791  10.561 -1.3717 -0.8168 -0.1620
39463SOL     OW25628   8.836   9.146   9.614 -0.5554 -0.2438 -0.1503
39463SOL    HW125629   8.884   9.186   9.686  0.3558 -0.0902 -0.8096
39463SOL    HW225630   8.810   9.220   9.559  1.8863 -0.4986 -1.8291
39464SOL     OW25631   3.623   2.450   3.564 -0.5374  0.4840 -0.7496
39464SOL    HW125632   3.548   2.508   3.580 -1.1068 -0.2409 -0.7101
39464SOL    HW225633   3.700   2.506   3.573 -1.0369  1.0338  0.1535
39465SOL     OW25634   0.910   0.317   7.191  0.4701  0.3758 -0.2142
39465SOL    HW125635   0.986   0.349   7.142 -0.6672  0.5783 -1.9289
39465SOL    HW225636   0.837   0.328   7.131 -0.9556  0.3148  1.4499
39466SOL     OW25637   1.504   8.109   9.036  0.0063  0.4354  0.7320
39466SOL    HW125638   1.574   8.046   9.050 -0.8215 -1.4186 -2.4898
39466SOL    HW225639   1.439   8.088   9.102 -0.5420 -2.7313 -0.6178
39467SOL     OW25640  10.591   3.662   3.089 -0.0473  0.0305  0.2139
39467SOL    HW125641  10.589   3.607   3.011  3.1687 -2.3644  1.5973
39467SOL    HW225642  10.668   3.717   3.077  0.8202 -0.7576  1.8208
39468SOL     OW25643   2.720   3.419   8.187  0.1173  0.6479 -0.4466
39468SOL    HW125644   2.703   3.386   8.099  1.1951  1.6422 -1.0578
39468SOL    HW225645   2.801   3.375   8.213  0.0726  0.7332 -0.1624
39469SOL     OW25646   5.141   6.779   6.099 -0.1050 -0.5251 -0.4996
39469SOL    HW125647   5.070   6.805   6.158 -0.4513 -0.8428 -0.7717
39469SOL    HW225648   5.206   6.849   6.108  0.7723 -1.5303  1.7837
39470SOL     OW25649   5.677  11.326   6.021  0.0452 -0.3920  0.3497
39470SOL    HW125650   5.628  11.376   6.086 -0.0831  1.7171 -1.2588
39470SOL    HW225651   5.731  11.266   6.073  0.0082  1.2444  2.4111
39471SOL     OW25652   6.563   3.599   4.951 -0.4668 -0.5531  0.4633
39471SOL    HW125653   6.570   3.616   4.857  0.6296 -0.8122  0.4888
39471SOL    HW225654   6.473   3.570   4.963 -0.2140 -1.9092 -0.7389
39472SOL     OW25655   1.449  12.022   3.916  0.0031 -0.0795  0.2204
39472SOL    HW125656   1.484  12.107   3.942 -0.4132  0.6032 -1.3511
39472SOL    HW225657   1.364  12.041   3.878 -0.4768 -1.3087  0.6194
39473SOL     OW25658  11.416   0.012   5.920  0.1681  0.1433 -0.0676
39473SOL    HW125659  11.371  -0.069   5.945 -1.5150  0.9155 -0.4945
39473SOL    HW225660  11.487  -0.018   5.862 -0.6223 -1.0208 -0.4841
39474SOL     OW25661   0.534   9.477  10.938 -0.3415 -0.7160 -0.6993
39474SOL    HW125662   0.628   9.460  10.939 -0.0879  0.5686  0.1705
39474SOL    HW225663   0.525   9.566  10.971 -1.9566 -1.3252  0.7214
39475SOL     OW25664   1.364  12.294   1.990 -0.0811  0.1038  0.6687
39475SOL    HW125665   1.307  12.293   2.066 -2.4892  2.1665 -0.9244
39475SOL    HW225666   1.325  12.231   1.929  0.1761  0.4479  0.1307
39476SOL     OW25667   7.941   4.739   0.170 -0.3437  0.0928 -0.3646
39476SOL    HW125668   7.877   4.672   0.191  0.0844 -0.7182 -1.5450
39476SOL    HW225669   7.992   4.750   0.251 -0.7185 -0.6544 -0.0167
39477SOL     OW25670   7.422   1.075   3.271  0.4162  0.1188  0.5389
39477SOL    HW125671   7.426   1.123   3.354  1.2587  1.4734 -0.2633
39477SOL    HW225672   7.506   1.092   3.229  0.1807 -0.9224 -0.4135
39478SOL     OW25673   4.074   5.494   7.966  0.1082  0.2178  0.0501
39478SOL    HW125674   4.124   5.559   7.917  0.4487  1.4721  1.9181
39478SOL    HW225675   3.995   5.541   7.994 -0.0107 -0.4018  0.7977
39479SOL     OW25676   3.108   8.736   5.944 -0.3183 -0.3969 -0.8765
39479SOL    HW125677   3.117   8.644   5.972  1.0886 -0.0563 -0.1006
39479SOL    HW225678   3.128   8.735   5.851  0.0875 -0.8299 -0.7873
39480SOL     OW25679   0.427  10.912   3.924 -0.1892 -0.7854  0.2548
39480SOL    HW125680   0.474  10.972   3.983 -1.3607  0.4804 -0.0470
39480SOL    HW225681   0.347  10.959   3.901  0.5192 -0.9092 -2.9141
39481SOL     OW25682  10.069   0.956   7.412  0.2461  0.2556 -0.1747
39481SOL    HW125683  10.012   1.033   7.406 -0.2626 -0.0476  0.6136
39481SOL    HW225684  10.025   0.890   7.359  0.4956  0.3946 -0.5568
39482SOL     OW25685   8.220   2.561   7.801 -0.0351  0.3395  0.0433
39482SOL    HW125686   8.241   2.517   7.883 -3.8550 -1.5640  0.2451
39482SOL    HW225687   8.220   2.491   7.736  1.0136  1.4778 -1.2461
39483SOL     OW25688   5.334   9.790   4.361 -0.3953  0.1056  0.4653
39483SOL    HW125689   5.260   9.735   4.334  0.8400 -1.7718  0.7210
39483SOL    HW225690   5.356   9.758   4.448  0.7810  0.5789  0.3537
39484SOL     OW25691   5.978   9.447  12.134 -0.2410  0.0435 -0.5717
39484SOL    HW125692   6.017   9.476  12.052  2.4168  2.1348  1.2532
39484SOL    HW225693   6.033   9.374  12.162  0.3444  0.8375  0.4100
39485SOL     OW25694   3.987   2.703  11.691  0.2245  0.1957 -0.1229
39485SOL    HW125695   3.981   2.738  11.603  0.7191  0.5030 -0.0358
39485SOL    HW225696   3.896   2.701  11.722  0.0773  0.3274 -0.5435
39486SOL     OW25697   7.551   7.920  12.535 -1.1569  0.4743 -0.2797
39486SOL    HW125698   7.499   7.912  12.615 -0.7150  0.6264  0.0249
39486SOL    HW225699   7.529   8.006  12.499 -3.0185 -0.4509 -1.5085
39487SOL     OW25700  11.238   5.303   0.224  0.3856 -0.4303 -0.5235
39487SOL    HW125701  11.286   5.246   0.165  2.2748  2.0053 -1.4898
39487SOL    HW225702  11.292   5.306   0.304 -0.4628 -1.0831  0.1019
39488SOL     OW25703   8.748   4.581   1.423  0.6196 -0.0770 -0.0170
39488SOL    HW125704   8.704   4.516   1.367  1.6139 -0.5020 -0.3434
39488SOL    HW225705   8.685   4.652   1.432 -1.0267 -1.6420  1.4384
39489SOL     OW25706   7.991   0.958   5.428  0.5175  0.4521  0.0837
39489SOL    HW125707   8.059   0.917   5.375 -0.6654 -1.8402  0.2190
39489SOL    HW225708   7.968   0.893   5.494  0.1129  2.2288  1.8221
39490SOL     OW25709   4.043   0.311   9.636  0.3225 -0.2725  0.3743
39490SOL    HW125710   3.996   0.344   9.713  0.2969 -1.7117  1.0093
39490SOL    HW225711   4.127   0.358   9.637  0.0423  0.2341  0.8665
39491SOL     OW25712   7.588   9.865  10.384  0.3904 -0.1049 -0.0577
39491SOL    HW125713   7.618   9.875  10.475  0.2136  0.8014 -0.0891
39491SOL    HW225714   7.627   9.782  10.356  1.6859  0.3239  0.3728
39492SOL     OW25715  11.041   6.947   9.595 -0.1055  0.1959  0.4590
39492SOL    HW125716  10.983   7.008   9.640 -3.3871 -0.9912 -1.8011
39492SOL    HW225717  10.992   6.919   9.518  3.0138 -1.9582 -0.9609
39493SOL     OW25718   6.436   2.049   9.116  0.6189  0.1787 -0.3089
39493SOL    HW125719   6.512   1.993   9.098  0.1791 -0.7767  0.7100
39493SOL    HW225720   6.363   1.989   9.125 -0.2211  1.0716 -0.9809
39494SOL     OW25721   6.209   5.255   5.524 -0.0124  0.3955 -0.4060
39494SOL    HW125722   6.294   5.239   5.483 -0.7625  1.5807 -2.6228
39494SOL    HW225723   6.145   5.225   5.459 -1.3356 -0.4650  1.1984
39495SOL     OW25724   8.520   7.944   7.244 -0.0168  0.9372 -0.2076
39495SOL    HW125725   8.523   8.027   7.291 -0.5694  1.1462 -0.5337
39495SOL    HW225726   8.433   7.908   7.263 -0.5645  1.4048 -1.6773
39496SOL     OW25727   8.499  10.704   2.999 -0.4720  0.2915  0.0804
39496SOL    HW125728   8.470  10.743   3.082  0.4102  0.1204  0.4842
39496SOL    HW225729   8.508  10.778   2.939  0.8549  0.6994  0.7430
39497SOL     OW25730   8.860   8.716   9.235  0.2450  0.0938 -0.2765
39497SOL    HW125731   8.931   8.740   9.295 -0.5695 -0.8913  1.1319
39497SOL    HW225732   8.789   8.777   9.256  0.2982  0.4004 -0.9588
39498SOL     OW25733  10.609   3.980   1.133  0.0083  0.1169 -0.2098
39498SOL    HW125734  10.579   4.024   1.213 -1.2708  0.0626 -0.6322
39498SOL    HW225735  10.607   3.887   1.155 -0.1899  0.1105 -0.2530
39499SOL     OW25736   2.578  10.511  11.265 -0.1870 -0.3009  0.6448
39499SOL    HW125737   2.610  10.530  11.176  0.5674  0.7136  1.1144
39499SOL    HW225738   2.612  10.424  11.285  0.5933 -0.0695  0.3570
39500SOL     OW25739   1.142  12.204  10.688  0.0035  0.3952 -0.0416
39500SOL    HW125740   1.199  12.132  10.714 -1.8200 -0.0492  3.2098
39500SOL    HW225741   1.071  12.162  10.640 -0.1117  0.2896  0.2216
39501SOL     OW25742   1.722   6.877   5.644  0.0233  0.4090 -0.3205
39501SOL    HW125743   1.793   6.892   5.581 -0.0760 -0.0649 -0.5512
39501SOL    HW225744   1.643   6.909   5.600 -0.1930 -0.7647 -0.8250
39502SOL     OW25745   4.713   2.351   5.564  0.2189 -0.2517 -0.1673
39502SOL    HW125746   4.802   2.367   5.595  0.1711 -0.5414  0.1153
39502SOL    HW225747   4.725   2.314   5.476  0.3405  1.0478 -0.7282
39503SOL     OW25748  11.285  10.631   5.244 -0.5481  0.6538  1.2882
39503SOL    HW125749  11.328  10.551   5.216 -2.8756  0.0537 -0.9678
39503SOL    HW225750  11.234  10.605   5.321  1.1117  0.8072  2.4971
39504SOL     OW25751   5.128   3.353   7.867 -0.2474 -0.3765 -0.1860
39504SOL    HW125752   5.174   3.396   7.794 -0.0983  0.3154  0.3028
39504SOL    HW225753   5.116   3.423   7.932  1.2481 -1.3716  1.2346
39505SOL     OW25754   6.069   5.744   7.603  0.1720 -0.3643 -0.1639
39505SOL    HW125755   6.005   5.801   7.643  1.1684  0.6983 -0.0370
39505SOL    HW225756   6.112   5.700   7.677 -0.9468 -1.7282 -0.2751
39506SOL     OW25757  12.087  10.118   0.400  0.2856 -0.5325 -0.4816
39506SOL    HW125758  12.122  10.029   0.404  0.0619 -0.5850  0.9965
39506SOL    HW225759  11.992  10.107   0.409  0.3572 -0.1010  1.2016
39507SOL     OW25760   4.991   4.565   1.030 -0.1595  0.1530 -0.0024
39507SOL    HW125761   5.078   4.591   0.998  2.3880 -3.6067  2.9329
39507SOL    HW225762   4.939   4.555   0.950  1.4541  3.9880 -1.8098
39508SOL     OW25763  10.846   4.615   3.647 -0.4156 -0.0769 -0.5550
39508SOL    HW125764  10.808   4.658   3.570 -2.1624 -0.7913 -0.1406
39508SOL    HW225765  10.772   4.603   3.707  0.8419  0.1836  1.1309
39509SOL     OW25766  12.053   8.746  12.003  0.1129  0.1978 -0.2772
39509SOL    HW125767  12.081   8.661  11.968  0.5337  0.2750 -0.1401
39509SOL    HW225768  12.112   8.809  11.962 -0.3056  0.4417 -0.5038
39510SOL     OW25769   9.741   1.653   4.800  0.3025  0.1201 -0.3774
39510SOL    HW125770   9.812   1.659   4.736  0.7628  2.2828  0.2723
39510SOL    HW225771   9.772   1.590   4.865  1.0448  0.0766 -0.7639
39511SOL     OW25772   1.595   0.076   8.311 -0.2128 -0.3061  0.2358
39511SOL    HW125773   1.685   0.065   8.341  1.0167  3.1141 -1.5534
39511SOL    HW225774   1.554   0.132   8.377  0.5042  1.8635 -1.0291
39512SOL     OW25775   9.880   0.871   7.239 -0.1376  0.1378  0.1337
39512SOL    HW125776   9.795   0.842   7.207  0.4456 -0.9671 -0.4580
39512SOL    HW225777   9.943   0.836   7.177  0.8936 -0.6093  1.5378
39513SOL     OW25778   6.585   7.757  10.412 -0.3483 -0.1094  0.2291
39513SOL    HW125779   6.656   7.765  10.348  1.2076  0.6326  1.9793
39513SOL    HW225780   6.540   7.841  10.408 -0.8922 -0.4286 -0.5835
39514SOL     OW25781   7.287   8.469   0.166 -0.2510  0.3065 -0.0656
39514SOL    HW125782   7.204   8.431   0.195 -0.7979  0.9885 -0.7239
39514SOL    HW225783   7.353   8.427   0.222 -1.0607 -0.0155  0.6658
39515SOL     OW25784   7.989   8.804  11.839 -0.0235  0.2524  0.2771
39515SOL    HW125785   8.084   8.801  11.837 -0.0004  0.8974  0.4498
39515SOL    HW225786   7.962   8.712  11.835  0.5891  0.0986 -0.5448
39516SOL     OW25787  10.549   1.414   7.911 -0.2655 -0.0982  0.0415
39516SOL    HW125788  10.617   1.457   7.963 -0.5466  0.4056 -0.0070
39516SOL    HW225789  10.597   1.370   7.841 -0.0137  0.4783 -0.1472
39517SOL     OW25790   6.554   6.087   5.834  0.4178  0.0905  0.2365
39517SOL    HW125791   6.496   6.163   5.830 -1.0310 -0.9432  0.9610
39517SOL    HW225792   6.507   6.023   5.888  2.2026 -0.8206  0.7845
39518SOL     OW25793   8.594   8.827   3.367  0.3738 -0.0625  0.9725
39518SOL    HW125794   8.670   8.883   3.381 -0.0020  1.6210 -2.6402
39518SOL    HW225795   8.521   8.873   3.409  0.8654 -0.4588  2.3203
39519SOL     OW25796   5.783   8.599   6.049  0.5933 -0.7455  0.6675
39519SOL    HW125797   5.738   8.528   6.002  0.8385 -0.6213  0.2444
39519SOL    HW225798   5.714   8.640   6.101 -0.3283  0.8925 -1.6761
39520SOL     OW25799   6.657  10.024   4.946  0.1881 -0.1598 -0.1767
39520SOL    HW125800   6.640  10.060   4.859  0.0076 -0.7719 -0.3994
39520SOL    HW225801   6.585  10.057   5.001 -0.4357 -0.8305 -0.5689
39521SOL     OW25802   8.259  11.356   5.059  0.5166 -0.7847  0.4738
39521SOL    HW125803   8.318  11.285   5.032 -0.5710 -2.0446  1.2596
39521SOL    HW225804   8.196  11.363   4.987  1.6895  0.6834 -0.4473
39522SOL     OW25805   9.830  11.464  10.163  0.2260  0.1196 -0.7006
39522SOL    HW125806   9.812  11.371  10.146  1.6323 -0.3163  0.0570
39522SOL    HW225807   9.895  11.488  10.097 -0.8123  0.8573 -1.4983
39523SOL     OW25808   4.113   3.113   6.868  0.5415  0.0501 -0.5788
39523SOL    HW125809   4.135   3.044   6.805  0.8299 -0.9679  0.5972
39523SOL    HW225810   4.029   3.087   6.904  1.3506 -0.5481  0.9804
39524SOL     OW25811   1.637  10.530   5.439  0.2691  0.1816  0.3702
39524SOL    HW125812   1.563  10.485   5.400 -0.7659  1.9016  0.2275
39524SOL    HW225813   1.705  10.463   5.447 -1.0278 -1.2611 -0.1959
39525SOL     OW25814   7.060   1.578  11.108  0.4156  0.0014  0.0639
39525SOL    HW125815   7.084   1.554  11.019  0.3188  1.7377 -0.4623
39525SOL    HW225816   6.964   1.574  11.109  0.4078  0.1934  0.0332
39526SOL     OW25817   7.363   9.141  11.987  0.4019 -0.5097 -0.2378
39526SOL    HW125818   7.418   9.204  12.035 -2.6564  1.0923  1.4866
39526SOL    HW225819   7.276   9.180  11.989 -0.4854 -1.6041 -5.0885
39527SOL     OW25820   0.269   9.054   6.176 -0.2769 -0.3693  0.9167
39527SOL    HW125821   0.176   9.064   6.196 -0.9339 -1.0376 -1.4175
39527SOL    HW225822   0.289   9.126   6.116 -0.0133 -1.6250 -0.6015
39528SOL     OW25823  11.421   0.488   6.519  0.1364 -0.1075 -0.2698
39528SOL    HW125824  11.446   0.439   6.597  1.6051 -0.7329 -1.0851
39528SOL    HW225825  11.329   0.464   6.504 -0.1771  0.0784  1.2737
39529SOL     OW25826   9.949   4.728   4.889  0.1291 -0.4955 -0.3746
39529SOL    HW125827  10.044   4.731   4.896  0.1060 -0.3108 -0.1508
39529SOL    HW225828   9.931   4.648   4.839  0.4569  0.0803 -1.4468
39530SOL     OW25829   6.020   5.132   3.444 -0.0618 -0.2085  0.2813
39530SOL    HW125830   6.009   5.219   3.406  0.8309  0.4280  1.3997
39530SOL    HW225831   5.986   5.140   3.533  0.0111 -1.0133  0.3906
39531SOL     OW25832   8.098  10.440   5.235 -0.1089  0.0421 -0.2865
39531SOL    HW125833   8.107  10.485   5.319  1.6783  0.1489 -0.4986
39531SOL    HW225834   8.005  10.447   5.214 -0.3637  1.1255  1.0662
39532SOL     OW25835   6.152  12.131   0.434 -0.3987  0.3508 -0.0773
39532SOL    HW125836   6.125  12.197   0.498 -0.7263  0.4843 -0.3477
39532SOL    HW225837   6.079  12.068   0.433  1.0380 -1.5178  2.1590
39533SOL     OW25838   5.798   8.053   8.001  0.1498 -0.7840 -0.4960
39533SOL    HW125839   5.853   7.986   7.960  0.8688 -0.8075  0.4770
39533SOL    HW225840   5.840   8.136   7.978  0.1616 -0.7576 -0.3816
39534SOL     OW25841   3.558  10.372   6.310 -0.2164  0.0671 -0.1508
39534SOL    HW125842   3.650  10.355   6.333 -0.9045 -1.9797  1.4007
39534SOL    HW225843   3.539  10.308   6.241 -0.6935 -0.1305  0.1591
39535SOL     OW25844   0.853   2.935   3.270  0.2303  0.2619 -0.2617
39535SOL    HW125845   0.786   2.910   3.333 -1.7436  0.5948 -2.1195
39535SOL    HW225846   0.880   3.023   3.296 -0.4723  0.3421  0.1978
39536SOL     OW25847   4.288   6.820   7.508 -0.1567 -0.5432  0.4997
39536SOL    HW125848   4.380   6.843   7.513 -0.4757  1.7158 -1.8910
39536SOL    HW225849   4.272   6.803   7.415 -2.2979 -0.0706  0.7197
39537SOL     OW25850   7.341   1.945   1.443 -0.4246  0.3549  0.1088
39537SOL    HW125851   7.265   1.932   1.386 -0.3275  0.6070 -0.0769
39537SOL    HW225852   7.385   2.023   1.408  0.8685 -0.7427 -0.8464
39538SOL     OW25853   4.370   9.162   6.199  0.2315  0.2715 -0.1567
39538SOL    HW125854   4.456   9.193   6.229  0.4946  1.2359 -1.7520
39538SOL    HW225855   4.309   9.232   6.224  0.1041  0.1179 -0.0359
39539SOL     OW25856   2.109  10.901   8.222 -0.7133  0.6664  0.1306
39539SOL    HW125857   2.091  10.891   8.315  0.4530  0.3041  0.3333
39539SOL    HW225858   2.166  10.979   8.217 -1.6363  1.3252 -0.3970
39540SOL     OW25859   8.043   9.802   7.891 -0.8720  0.1631 -0.5657
39540SOL    HW125860   8.125   9.816   7.938  0.5786  0.4354 -3.0272
39540SOL    HW225861   8.032   9.707   7.891 -1.6149  0.2057  1.3786
39541SOL     OW25862   3.889   2.273   2.406  0.6042 -0.1429  0.2467
39541SOL    HW125863   3.940   2.345   2.443 -1.3292  1.2243  0.4438
39541SOL    HW225864   3.934   2.194   2.434  2.8490  0.9641 -0.0073
39542SOL     OW25865   6.837   6.124   5.911 -0.3612 -0.0129 -0.3859
39542SOL    HW125866   6.855   6.089   5.824 -0.6121 -3.5973  0.8247
39542SOL    HW225867   6.743   6.112   5.922 -0.2882  0.1581  0.4767
39543SOL     OW25868  11.015   2.602   1.316 -0.1961  0.5739 -0.4064
39543SOL    HW125869  10.920   2.604   1.306 -0.2201  0.0154 -0.3583
39543SOL    HW225870  11.039   2.513   1.289  0.2763  0.6171 -0.1314
39544SOL     OW25871  10.203   1.033   1.529  0.1083 -0.0012 -0.1286
39544SOL    HW125872  10.113   1.006   1.513 -0.1444  0.5557  0.2924
39544SOL    HW225873  10.224   0.996   1.614 -0.0462  0.6213  0.1918
39545SOL     OW25874   3.650   9.733   1.329  0.3871 -0.1868 -0.4591
39545SOL    HW125875   3.696   9.783   1.397 -0.2141 -1.2843  0.7979
39545SOL    HW225876   3.670   9.780   1.248  1.5241  0.8931  0.3937
39546SOL     OW25877   5.612   8.800  11.675 -0.5883 -0.1355  0.0228
39546SOL    HW125878   5.531   8.764  11.711 -1.4764  1.3217 -0.4195
39546SOL    HW225879   5.625   8.753  11.593  0.2695 -1.9438  1.1267
39547SOL     OW25880   9.478  12.663   2.691 -0.1044  0.2111 -0.5463
39547SOL    HW125881   9.550  12.726   2.700 -1.8154  2.1648  0.3240
39547SOL    HW225882   9.437  12.662   2.777 -1.0827 -0.9248 -1.0131
39548SOL     OW25883   9.035   0.568   7.327 -0.4784  0.1070 -0.2169
39548SOL    HW125884   8.998   0.501   7.270 -0.0270  0.9905 -1.6210
39548SOL    HW225885   8.962   0.628   7.344 -0.1732  0.9066 -1.5464
39549SOL     OW25886   6.595   0.822   0.008 -0.2406 -0.1698  0.5913
39549SOL    HW125887   6.671   0.764   0.015 -0.4602 -0.6521 -0.7262
39549SOL    HW225888   6.628   0.898  -0.039  0.3700  1.4333  3.4114
39550SOL     OW25889   4.518   5.783   1.272  0.1381 -0.3425 -0.4319
39550SOL    HW125890   4.550   5.772   1.362 -0.1373 -0.7917 -0.3870
39550SOL    HW225891   4.453   5.714   1.261 -0.8317  0.5548 -0.5226
39551SOL     OW25892   6.304   2.680   9.906 -0.5066  0.2272 -0.3219
39551SOL    HW125893   6.223   2.727   9.925 -0.8564 -0.5976  0.2570
39551SOL    HW225894   6.370   2.750   9.895 -1.4978  0.9582 -1.9240
39552SOL     OW25895   7.685   4.624  11.282 -0.6096  0.3526 -0.3510
39552SOL    HW125896   7.705   4.534  11.307 -1.4654  0.0844 -0.6014
39552SOL    HW225897   7.728   4.677  11.348  0.3989 -0.2166 -0.5308
39553SOL     OW25898   0.159   2.111  11.722 -0.3178 -0.2649  0.0003
39553SOL    HW125899   0.215   2.053  11.670 -0.4389  1.4486 -2.2335
39553SOL    HW225900   0.070   2.090  11.695 -0.4307  0.1927 -0.0019
39554SOL     OW25901  10.179   7.389   9.340 -0.0607 -0.3830  0.1901
39554SOL    HW125902  10.120   7.434   9.279  1.4847  3.1002  1.0109
39554SOL    HW225903  10.139   7.303   9.353 -3.8922  1.0657 -0.7426
39555SOL     OW25904   7.571   2.364   8.367  0.3252 -0.4457  0.1155
39555SOL    HW125905   7.565   2.400   8.455 -0.6651  1.0259 -0.5216
39555SOL    HW225906   7.481   2.354   8.338  0.6335  0.3920 -1.2223
39556SOL     OW25907   8.127   2.735   6.165 -0.6825  0.0030  0.0822
39556SOL    HW125908   8.204   2.791   6.178  0.1226 -0.4686 -2.1909
39556SOL    HW225909   8.163   2.648   6.149 -1.6851 -0.2779 -0.7902
39557SOL     OW25910   5.797   3.831  11.371  0.1180 -0.6626  0.0728
39557SOL    HW125911   5.737   3.757  11.385  0.4637 -1.4734 -2.2459
39557SOL    HW225912   5.836   3.847  11.457 -0.8362 -2.4161  0.8933
39558SOL     OW25913  10.991   8.232   8.718 -0.1951 -0.8724  0.0954
39558SOL    HW125914  11.080   8.264   8.731 -0.6541  0.2017  0.8175
39558SOL    HW225915  10.961   8.276   8.638 -0.8422  0.6659  1.1127
39559SOL     OW25916   5.490   5.131  12.358 -0.3104 -0.2549 -0.7075
39559SOL    HW125917   5.395   5.140  12.351 -0.3395 -0.5404 -0.7015
39559SOL    HW225918   5.514   5.072  12.286 -0.3652 -1.6564  0.3775
39560SOL     OW25919  10.858   3.257   2.164 -0.1571 -0.1562  0.0196
39560SOL    HW125920  10.836   3.283   2.075 -0.5255  0.6219  0.3319
39560SOL    HW225921  10.831   3.165   2.170 -2.8802  0.5721  0.2226
39561SOL     OW25922   6.029  10.455   8.498  0.5849 -0.5533  0.0020
39561SOL    HW125923   6.034  10.374   8.447  0.4772 -0.8127  0.3969
39561SOL    HW225924   6.118  10.469   8.530  0.9652  0.3391 -1.3447
39562SOL     OW25925   7.768  10.126  11.022  0.0173 -0.5800 -0.1191
39562SOL    HW125926   7.745  10.076  11.101  1.1261  1.4583  1.6059
39562SOL    HW225927   7.862  10.108  11.009 -0.2763 -1.3328 -1.3539
39563SOL     OW25928   5.653   8.797   0.122 -0.2913  0.6096 -0.2664
39563SOL    HW125929   5.748   8.807   0.132 -0.4158  2.1865 -0.3420
39563SOL    HW225930   5.617   8.827   0.206 -0.7203 -0.0687 -0.2052
39564SOL     OW25931   7.147   0.178   9.261 -0.3924 -0.4002 -0.1092
39564SOL    HW125932   7.179   0.261   9.226 -1.2992 -0.3839 -0.9591
39564SOL    HW225933   7.112   0.200   9.347 -0.6461  0.1058 -0.3400
39565SOL     OW25934  12.548   8.903  10.162  0.2112  0.1835  0.5810
39565SOL    HW125935  12.637   8.898  10.127  0.3637 -0.6747  1.0656
39565SOL    HW225936  12.492   8.879  10.089  0.4173  0.0986  0.4509
39566SOL     OW25937   5.966   6.618   1.827  0.5103 -0.0549 -0.5848
39566SOL    HW125938   5.987   6.586   1.739 -1.6294  0.4790 -1.3508
39566SOL    HW225939   5.960   6.539   1.881  3.0675 -0.3167 -0.5426
39567SOL     OW25940   5.241  12.385   5.346  0.2292  0.3936 -0.2905
39567SOL    HW125941   5.273  12.402   5.435  1.0344  2.1767 -0.8718
39567SOL    HW225942   5.147  12.375   5.356  0.3289  0.3357  0.7847
39568SOL     OW25943   8.083   5.345   5.669 -0.1193 -0.5321  0.1163
39568SOL    HW125944   8.170   5.308   5.687 -0.5914 -1.3991  0.7031
39568SOL    HW225945   8.061   5.393   5.748  0.2433  0.5396 -0.4216
39569SOL     OW25946   4.572   4.634   5.293 -0.0230 -0.3535 -0.4878
39569SOL    HW125947   4.560   4.677   5.208 -1.8802 -0.7490 -0.4619
39569SOL    HW225948   4.607   4.548   5.272  1.7644  0.3718 -0.6668
39570SOL     OW25949  10.618   1.672   7.091 -0.2293 -0.1887  0.5407
39570SOL    HW125950  10.561   1.713   7.026  0.0074 -0.1104  0.3820
39570SOL    HW225951  10.607   1.578   7.076 -0.5391 -0.1780  0.7031
39571SOL     OW25952   1.788   5.663  11.552  0.1464 -0.1265 -0.3596
39571SOL    HW125953   1.715   5.661  11.489  0.5953 -2.6829 -0.9023
39571SOL    HW225954   1.745   5.677  11.637 -0.8651 -0.5678 -0.7801
39572SOL     OW25955   2.611  12.593   8.690  0.5591  0.2162  0.0575
39572SOL    HW125956   2.545  12.532   8.725  0.3675  0.8205  0.7692
39572SOL    HW225957   2.564  12.643   8.623  1.0853 -1.3589 -1.5602
39573SOL     OW25958   5.844   5.179   1.217  0.1485 -0.1521 -0.7414
39573SOL    HW125959   5.857   5.226   1.299  0.3360 -0.9021 -0.3298
39573SOL    HW225960   5.755   5.144   1.224 -0.7471  1.7442 -1.8906
39574SOL     OW25961   2.475   9.569   4.093  0.3749 -0.5391 -0.1896
39574SOL    HW125962   2.420   9.647   4.097 -2.5587 -2.2999 -2.3500
39574SOL    HW225963   2.532   9.583   4.018  0.7302 -0.0175  0.1678
39575SOL     OW25964   2.691   0.802  10.284  0.1760 -0.3167 -0.3509
39575SOL    HW125965   2.739   0.825  10.205 -0.0592  0.9718 -0.1424
39575SOL    HW225966   2.758   0.787  10.351  0.3407 -0.4083 -0.5375
39576SOL     OW25967   2.933   7.567   3.625 -0.1316  0.9848 -0.9835
39576SOL    HW125968   2.918   7.473   3.616  0.0002  0.8663  0.0220
39576SOL    HW225969   3.001   7.575   3.692  0.9051  1.7438 -2.0895
39577SOL     OW25970  10.734   9.173   3.331  0.2609  0.4577 -0.5271
39577SOL    HW125971  10.660   9.204   3.383 -0.5241  0.2497 -1.4889
39577SOL    HW225972  10.735   9.230   3.254  0.1116 -0.5217 -1.2842
39578SOL     OW25973   3.244   4.507  11.117 -0.2022  0.8128 -0.0848
39578SOL    HW125974   3.226   4.600  11.129  0.4672  0.9644 -0.2186
39578SOL    HW225975   3.276   4.500  11.027  0.4729  0.5658  0.1689
39579SOL     OW25976  11.403   5.858   0.814 -0.2628  0.0250  0.3119
39579SOL    HW125977  11.494   5.830   0.802 -0.1274  0.9575 -1.0699
39579SOL    HW225978  11.351   5.781   0.792  0.1485  0.3048 -1.8939
39580SOL     OW25979   4.643   5.087   7.772 -0.3339  0.8385 -0.3080
39580SOL    HW125980   4.603   5.004   7.797 -0.2023 -0.1924 -3.1095
39580SOL    HW225981   4.726   5.090   7.819 -0.3285 -0.6724 -0.1986
39581SOL     OW25982   0.147   7.630   4.946 -0.1894  0.0031 -0.0196
39581SOL    HW125983   0.124   7.549   4.992  1.4822 -0.4291  0.1383
39581SOL    HW225984   0.227   7.660   4.989  0.5651  0.4231 -1.6076
39582SOL     OW25985   4.367   6.903   8.190  0.1798 -0.6368  0.6814
39582SOL    HW125986   4.383   6.957   8.267 -1.7683  0.0293  0.6551
39582SOL    HW225987   4.401   6.955   8.117  0.8025 -0.6849  0.9274
39583SOL     OW25988   3.689   6.454   6.022 -1.1253 -0.3841 -0.4121
39583SOL    HW125989   3.610   6.431   6.070 -0.0197  0.2704  1.8743
39583SOL    HW225990   3.692   6.549   6.024 -0.5901 -0.3832 -1.0072
39584SOL     OW25991   7.083   6.638  11.681  0.0417 -0.3282 -0.4914
39584SOL    HW125992   7.086   6.646  11.776  3.0722  3.8173 -0.6517
39584SOL    HW225993   7.010   6.695  11.654 -0.1358 -0.6441 -0.6841
39585SOL     OW25994   9.561   2.370   9.471 -0.7905 -0.0996 -0.1671
39585SOL    HW125995   9.467   2.383   9.478 -1.0153 -1.7889  0.4018
39585SOL    HW225996   9.599   2.431   9.535 -1.4734  0.7410 -0.5526
39586SOL     OW25997  10.037   1.312   6.171  0.5613  0.4235  0.2296
39586SOL    HW125998  10.011   1.252   6.241  1.2410 -0.0372  0.0940
39586SOL    HW225999  10.053   1.256   6.096  2.1071  0.6552  0.3552
39587SOL     OW26000   6.590   4.452   2.028  0.1150  0.3520 -0.0401
39587SOL    HW126001   6.578   4.399   2.107  0.5464 -2.0963 -1.5264
39587SOL    HW226002   6.510   4.437   1.977 -0.0369  1.6795 -0.2255
39588SOL     OW26003  11.612   6.488  10.948  0.4597 -0.7004 -0.4912
39588SOL    HW126004  11.592   6.431  11.022  0.0563 -0.6435 -0.5516
39588SOL    HW226005  11.622   6.428  10.874  0.0139 -0.6934 -0.5594
39589SOL     OW26006   1.820   4.544   6.061  0.3794 -0.8822  0.2791
39589SOL    HW126007   1.812   4.625   6.112  0.4676 -0.5243 -0.2636
39589SOL    HW226008   1.742   4.494   6.084 -0.0704 -0.3088  0.0501
39590SOL     OW26009   6.890   7.161   1.742  0.4433 -0.1314 -0.3307
39590SOL    HW126010   6.934   7.090   1.789 -0.1944 -0.6181 -0.4576
39590SOL    HW226011   6.918   7.151   1.651  0.4298 -0.1576 -0.3319
39591SOL     OW26012   3.868   3.052   9.119 -0.3531 -0.0376 -0.0944
39591SOL    HW126013   3.814   2.976   9.095  1.9050 -1.3684 -1.3193
39591SOL    HW226014   3.877   3.045   9.214  1.2585 -2.4485 -0.3320
39592SOL     OW26015   2.221  12.391   3.843 -0.3393  0.0752  0.1056
39592SOL    HW126016   2.153  12.328   3.820 -2.2317  1.5328  1.4543
39592SOL    HW226017   2.201  12.469   3.791 -0.5043  0.9600  1.4419
39593SOL     OW26018  10.483   9.705   7.903  0.3578  0.9400  0.0085
39593SOL    HW126019  10.399   9.722   7.862  0.2486  0.1831 -0.0904
39593SOL    HW226020  10.531   9.653   7.839 -0.0054 -0.6851  1.0120
39594SOL     OW26021   6.556   0.691   1.746  0.7824  0.0100 -0.5958
39594SOL    HW126022   6.559   0.745   1.667 -2.4983 -2.3781 -2.6360
39594SOL    HW226023   6.598   0.609   1.720  1.0418 -0.2614  0.6562
39595SOL     OW26024   4.439  11.511   0.909  0.6086  0.4597  0.1323
39595SOL    HW126025   4.421  11.578   0.843  1.6475 -0.9734 -1.7533
39595SOL    HW226026   4.531  11.525   0.932  0.7438 -0.1079 -0.0482
39596SOL     OW26027  10.833  10.422  10.698 -0.1384 -0.3011  0.4532
39596SOL    HW126028  10.872  10.357  10.756 -0.4268 -0.3713  0.5719
39596SOL    HW226029  10.742  10.431  10.729 -0.9170 -1.8200 -1.1978
39597SOL     OW26030   6.112   0.455   9.928  0.4450 -0.5253 -0.0232
39597SOL    HW126031   6.158   0.510   9.865  0.3104  1.1528  1.2863
39597SOL    HW226032   6.038   0.420   9.880  1.1021 -0.3894 -1.1654
39598SOL     OW26033   4.318   0.728  11.379  0.5154 -0.0094 -0.0264
39598SOL    HW126034   4.369   0.664  11.330  0.3610 -0.3370  0.2358
39598SOL    HW226035   4.279   0.677  11.450 -0.6931  0.1031 -0.5932
39599SOL     OW26036   4.360   4.007  12.195 -0.0139  0.5679  0.3339
39599SOL    HW126037   4.281   4.003  12.141 -0.7096  1.5174  1.2429
39599SOL    HW226038   4.347   4.083  12.251  2.1505  1.5794 -0.4148
39600SOL     OW26039  11.633   3.286   6.600 -0.3631  0.2814 -0.2584
39600SOL    HW126040  11.621   3.207   6.548  0.7177 -0.0421 -0.0552
39600SOL    HW226041  11.652   3.354   6.536 -1.2720  0.3764 -0.4321
39601SOL     OW26042   5.468  12.537  10.640  0.1483  0.2018 -0.0071
39601SOL    HW126043   5.523  12.459  10.646 -1.1243 -0.7177  0.0904
39601SOL    HW226044   5.380  12.505  10.657 -0.7240  1.2521 -2.2259
39602SOL     OW26045  10.106   0.999   7.981  0.8137 -0.2704  0.5227
39602SOL    HW126046  10.192   0.993   7.939  1.3275  0.3875  1.4227
39602SOL    HW226047  10.081   1.091   7.971 -0.0730 -0.5852 -0.2568
39603SOL     OW26048   5.910   0.187   3.740 -0.4975 -0.2055  0.3686
39603SOL    HW126049   5.845   0.159   3.675  0.5277 -0.2029 -0.7102
39603SOL    HW226050   5.860   0.235   3.805 -1.1794  3.6894 -2.6195
39604SOL     OW26051  12.675   3.323   0.903  0.2037  0.4829 -0.2207
39604SOL    HW126052  12.685   3.254   0.837 -0.7627 -0.8279  0.9324
39604SOL    HW226053  12.739   3.302   0.970 -0.8606 -0.0011  0.6820
39605SOL     OW26054  10.363  10.929   4.705  0.1493  0.7824  0.0629
39605SOL    HW126055  10.385  10.971   4.788  0.7812  1.2794 -0.3493
39605SOL    HW226056  10.290  10.980   4.670 -0.3552  0.3556  0.4762
39606SOL     OW26057  12.535  12.583   5.288  0.1773 -0.0493  0.1260
39606SOL    HW126058  12.510  12.511   5.346 -2.0914  0.3687 -0.2388
39606SOL    HW226059  12.494  12.562   5.204 -1.6127  2.1814  0.3227
39607SOL     OW26060   6.940   6.425   8.310  0.4208 -0.0706 -0.1510
39607SOL    HW126061   6.988   6.423   8.392 -0.0580 -1.2811  0.1166
39607SOL    HW226062   6.928   6.333   8.286  0.3653  0.2530 -1.4682
39608SOL     OW26063   5.360   9.350  10.025 -0.2249  0.0180 -0.5762
39608SOL    HW126064   5.307   9.346  10.104 -1.4898  0.1556 -1.3880
39608SOL    HW226065   5.299   9.330   9.954  1.0687 -1.0007 -1.4452
39609SOL     OW26066   2.795  11.562   9.301 -0.4818  0.8513  0.5700
39609SOL    HW126067   2.821  11.654   9.302 -0.1954  0.7685  0.8258
39609SOL    HW226068   2.727  11.557   9.234 -0.1582  1.1543  0.2178
39610SOL     OW26069  10.309   6.463  11.455 -0.1940 -0.2530  0.1961
39610SOL    HW126070  10.359   6.537  11.489 -0.5527  0.8953 -1.6149
39610SOL    HW226071  10.219   6.482  11.481 -0.4395  0.5272 -1.1098
39611SOL     OW26072   2.495  12.548   4.460  0.1506  0.4288  0.4630
39611SOL    HW126073   2.506  12.552   4.556 -0.7458  1.4429  0.5387
39611SOL    HW226074   2.416  12.599   4.443  1.5348  2.1980 -1.0362
39612SOL     OW26075  10.355   7.012   1.974  0.5729  0.3210 -0.1319
39612SOL    HW126076  10.371   6.957   1.897  1.9728  0.6482 -0.1013
39612SOL    HW226077  10.261   7.004   1.990  0.4121 -0.4666 -1.3317
39613SOL     OW26078  12.143   2.070   5.311  0.1247  0.0586 -0.1688
39613SOL    HW126079  12.118   1.978   5.303 -1.7767  0.6731 -2.4824
39613SOL    HW226080  12.087   2.103   5.382  0.0114 -0.3197 -0.0734
39614SOL     OW26081   7.965   0.241   3.936  0.4223  0.3068  0.3976
39614SOL    HW126082   7.934   0.291   3.861 -1.7240 -0.4825  0.6806
39614SOL    HW226083   7.967   0.150   3.906  2.9828  0.3384  0.2890
39615SOL     OW26084  11.206   1.854   3.912  0.0923 -0.1186 -0.5948
39615SOL    HW126085  11.190   1.866   3.818  1.8855  1.0301 -0.8074
39615SOL    HW226086  11.148   1.783   3.937  0.0508 -0.9191 -2.7332
39616SOL     OW26087   7.729   7.178   1.568  1.0743  0.2991  0.3561
39616SOL    HW126088   7.641   7.214   1.555  0.2742 -0.7940  2.3092
39616SOL    HW226089   7.782   7.254   1.593  0.3038  0.7438  0.6739
39617SOL     OW26090   3.516   3.046  11.187 -0.0720 -0.3580  0.3557
39617SOL    HW126091   3.458   3.017  11.258 -1.5166  1.0556 -0.1712
39617SOL    HW226092   3.528   2.969  11.132 -0.2020 -1.0639  1.2921
39618SOL     OW26093   4.655  12.083   6.373 -0.5056  0.0803  0.5230
39618SOL    HW126094   4.698  12.019   6.317  0.3319  2.4753 -1.7764
39618SOL    HW226095   4.566  12.050   6.384 -0.1808 -1.3181 -0.8311
39619SOL     OW26096   2.259   6.967   7.394 -0.6298  0.5855 -0.6055
39619SOL    HW126097   2.292   7.054   7.418 -0.8314  0.6739 -0.6469
39619SOL    HW226098   2.331   6.926   7.347 -0.0217  0.2018  0.6195
39620SOL     OW26099   9.117   8.919   2.305  0.2895  0.1237 -0.3317
39620SOL    HW126100   9.041   8.881   2.260  0.3680  0.2800 -0.5999
39620SOL    HW226101   9.080   8.969   2.377  0.2085 -0.8835  0.3472
39621SOL     OW26102   8.052   0.496   6.261 -0.3538  0.6833 -0.0603
39621SOL    HW126103   8.062   0.444   6.341  1.0950 -0.8563 -1.1839
39621SOL    HW226104   7.967   0.470   6.226  0.2314 -0.8006 -0.4628
39622SOL     OW26105   7.535   0.319  10.107 -0.3185  0.5742  0.2109
39622SOL    HW126106   7.534   0.227  10.135 -0.8108  0.7063  0.6538
39622SOL    HW226107   7.538   0.315  10.012  2.7999  0.1025  0.2298
39623SOL     OW26108   7.463   6.441   8.244 -0.3316 -0.2068  0.3167
39623SOL    HW126109   7.399   6.512   8.246  0.8441  0.8644  0.9525
39623SOL    HW226110   7.417   6.369   8.201 -1.1047  1.3534 -1.6022
39624SOL     OW26111   9.567  10.636   8.542 -0.0673  0.1537 -0.2153
39624SOL    HW126112   9.534  10.710   8.492 -1.1533 -0.0129  0.2346
39624SOL    HW226113   9.494  10.610   8.598  0.5202 -0.8281  0.1231
39625SOL     OW26114   5.509  10.788   3.242 -0.1511 -0.3298  0.8919
39625SOL    HW126115   5.450  10.851   3.283 -1.7596 -2.5137  2.0955
39625SOL    HW226116   5.587  10.788   3.298  0.2638  1.1971  0.3573
39626SOL     OW26117   4.731  12.543  11.850 -0.6154 -0.2615 -0.5823
39626SOL    HW126118   4.783  12.571  11.925 -1.3747 -2.1919  0.7601
39626SOL    HW226119   4.779  12.467  11.815 -1.0183 -0.2513 -1.1761
39627SOL     OW26120  12.442   2.145   8.921 -0.1592  0.1744 -0.3983
39627SOL    HW126121  12.359   2.192   8.932  0.7243  1.2820  2.8438
39627SOL    HW226122  12.509   2.211   8.939  1.2156 -1.5807  1.4031
39628SOL     OW26123  10.940   6.277   3.799  0.3613 -0.6598 -0.0707
39628SOL    HW126124  10.896   6.295   3.715  0.3917 -1.8625 -0.3552
39628SOL    HW226125  10.956   6.183   3.798  0.2792 -0.6997  1.3447
39629SOL     OW26126   5.928   1.030  11.862  0.1463 -0.3870 -0.0041
39629SOL    HW126127   5.904   0.992  11.947 -1.3934 -0.1406 -0.2911
39629SOL    HW226128   5.911   0.959  11.799  0.5987 -0.3406 -0.1790
39630SOL     OW26129   9.770  12.580   4.998 -0.0442 -0.2355 -0.1351
39630SOL    HW126130   9.774  12.654   5.058  1.0676  0.1934 -0.7097
39630SOL    HW226131   9.686  12.589   4.954  0.3731  1.1110 -0.7064
39631SOL     OW26132   6.860  12.470   4.043  0.3558 -0.4081 -0.2331
39631SOL    HW126133   6.804  12.519   4.103  1.2743  0.5313 -0.1064
39631SOL    HW226134   6.931  12.530   4.023  0.6392 -1.1096 -1.4087
39632SOL     OW26135   9.791   6.260  11.484  0.1447  0.4090 -0.2187
39632SOL    HW126136   9.760   6.170  11.472 -1.2801  0.9866 -1.1408
39632SOL    HW226137   9.880   6.259  11.450 -0.3996 -0.3217 -1.7387
39633SOL     OW26138   3.200   4.906   3.842 -0.2843 -0.0723 -0.0342
39633SOL    HW126139   3.222   4.831   3.787 -1.2630  1.0573 -2.0744
39633SOL    HW226140   3.105   4.903   3.850 -0.4554  1.4862 -1.0405
39634SOL     OW26141   9.661   7.152   8.826  0.9279  0.1844  0.1973
39634SOL    HW126142   9.671   7.244   8.850 -0.1390  0.6228 -0.9214
39634SOL    HW226143   9.745   7.127   8.787  1.2224  0.6708  0.5098
39635SOL     OW26144   9.820   6.990  12.008  0.5208  0.1500 -0.3821
39635SOL    HW126145   9.764   6.968  11.933 -1.0236 -0.0193  0.7704
39635SOL    HW226146   9.759   7.018  12.076  1.8354 -0.1928  0.9882
39636SOL     OW26147  12.706   1.895   9.150  0.4044  0.1014  0.2487
39636SOL    HW126148  12.754   1.815   9.131  0.6159 -0.1179  1.5845
39636SOL    HW226149  12.771   1.965   9.142  1.3411 -0.3006  3.1861
39637SOL     OW26150   4.779   6.945   4.054  0.2284 -0.0914  0.3276
39637SOL    HW126151   4.705   7.002   4.034  0.1701 -0.5421 -0.8691
39637SOL    HW226152   4.763   6.915   4.143 -1.8599 -1.3445 -0.3795
39638SOL     OW26153   5.037   5.893   4.289 -0.7804 -0.1893 -0.2102
39638SOL    HW126154   5.055   5.985   4.307  2.0555 -1.0818  2.2777
39638SOL    HW226155   4.996   5.860   4.369  0.8069 -1.6107  0.0899
39639SOL     OW26156  12.086   0.739  12.396 -0.1742  0.3990  0.1663
39639SOL    HW126157  12.154   0.758  12.331  1.4328 -0.3951  1.5485
39639SOL    HW226158  12.129   0.682  12.460 -1.8919  0.6190  1.5854
39640SOL     OW26159   1.293   4.966   8.200 -0.1657  0.4181 -0.0562
39640SOL    HW126160   1.248   4.888   8.167  0.3137 -0.3200  0.9753
39640SOL    HW226161   1.295   4.954   8.295  0.9806  1.1014  0.0258
39641SOL     OW26162   1.088   9.901   2.992  0.5436  0.7158  0.4085
39641SOL    HW126163   1.130   9.870   3.072  0.2913 -0.5165  0.0840
39641SOL    HW226164   0.994   9.903   3.014  0.4739  0.3661  0.1419
39642SOL     OW26165   1.769  10.611  11.757 -0.5404  0.0340  0.1254
39642SOL    HW126166   1.765  10.648  11.845 -2.0118  1.6997 -0.5834
39642SOL    HW226167   1.686  10.637  11.716 -0.2654 -1.4234 -1.4881
39643SOL     OW26168   4.588   3.129   0.102  0.2782  0.7824 -0.1827
39643SOL    HW126169   4.616   3.116   0.012 -2.2892  2.6157 -1.3906
39643SOL    HW226170   4.567   3.223   0.108 -1.0770  0.4286  1.8330
39644SOL     OW26171   9.377   8.784   3.579  0.3281 -0.5183  0.3425
39644SOL    HW126172   9.319   8.860   3.589  0.3754 -0.2339 -1.2888
39644SOL    HW226173   9.356   8.728   3.654 -0.7815  0.4088  0.7564
39645SOL     OW26174   4.334   2.287   5.605  0.9575  0.4283  0.1636
39645SOL    HW126175   4.240   2.302   5.591  1.3563  0.4454 -3.2685
39645SOL    HW226176   4.352   2.327   5.690 -1.6927  2.5635 -0.1373
39646SOL     OW26177   4.853   3.591   2.314 -0.4621  0.4508  0.4970
39646SOL    HW126178   4.792   3.654   2.276 -0.3347  0.3301  0.0957
39646SOL    HW226179   4.931   3.643   2.336 -0.8257  0.6704  1.3188
39647SOL     OW26180   1.429   9.464   8.133  0.3667  0.4030  0.3880
39647SOL    HW126181   1.376   9.444   8.211 -0.5950 -0.4865 -0.4511
39647SOL    HW226182   1.483   9.538   8.159  0.5636 -0.2959  2.1221
39648SOL     OW26183   5.752   2.749  12.338  0.0090  0.1189 -0.1852
39648SOL    HW126184   5.717   2.838  12.330 -0.1721  0.0147 -0.5943
39648SOL    HW226185   5.780   2.742  12.429  0.0176  0.5938 -0.1479
39649SOL     OW26186  11.665   8.664   7.374 -0.2515  0.6488 -0.0125
39649SOL    HW126187  11.620   8.746   7.394 -0.3842  0.7524 -0.7361
39649SOL    HW226188  11.674   8.663   7.279  1.1233  0.5409  0.1006
39650SOL     OW26189   8.675   2.686   1.766  0.2393 -0.1767 -0.0102
39650SOL    HW126190   8.633   2.768   1.740  0.7193  0.5630  1.4492
39650SOL    HW226191   8.768   2.701   1.749  0.0426 -1.7089 -2.9778
39651SOL     OW26192   9.805   6.529  10.936  0.1479 -0.5054  0.1838
39651SOL    HW126193   9.796   6.480  10.854 -0.7689 -0.8758  0.4921
39651SOL    HW226194   9.897   6.515  10.962  0.5955  0.0643 -1.0427
39652SOL     OW26195   0.095  11.520   9.393  0.1257  0.7294  0.1279
39652SOL    HW126196   0.099  11.473   9.309 -0.6492 -0.8770  0.9462
39652SOL    HW226197   0.004  11.548   9.399  0.1038  0.5645  0.5720
39653SOL     OW26198   2.616   1.708   2.824 -0.3797  0.5799  0.1429
39653SOL    HW126199   2.586   1.765   2.894 -0.0248  1.1852 -0.1842
39653SOL    HW226200   2.537   1.664   2.792 -0.7081  1.1371  0.1804
39654SOL     OW26201  12.237   6.638   6.886 -0.0426 -0.2255  0.3694
39654SOL    HW126202  12.194   6.554   6.866  3.0531 -2.1521  1.0910
39654SOL    HW226203  12.269   6.627   6.976 -0.5088  2.2310  0.9070
39655SOL     OW26204   5.567   8.158   5.779  0.0184  0.5097  0.2636
39655SOL    HW126205   5.515   8.176   5.701 -0.7472 -2.5353 -0.0752
39655SOL    HW226206   5.657   8.156   5.748  0.2941  3.8597  0.4739
39656SOL     OW26207   0.840   2.227  10.832  0.2432  0.0830  0.1398
39656SOL    HW126208   0.800   2.267  10.755  1.7759 -1.3500 -1.5236
39656SOL    HW226209   0.870   2.141  10.801  1.2305 -0.4051  2.2469
39657SOL     OW26210   1.587   6.567  10.738  0.3211 -0.2386 -0.1629
39657SOL    HW126211   1.523   6.524  10.794  2.2822 -0.9803  1.6766
39657SOL    HW226212   1.646   6.612  10.799  1.9199 -0.1569 -1.6754
39658SOL     OW26213   4.183  12.276   6.665 -0.6503 -0.1889 -0.2900
39658SOL    HW126214   4.257  12.263   6.606 -1.6323 -2.0510 -1.1818
39658SOL    HW226215   4.223  12.292   6.751  0.8059  2.3461 -1.3122
39659SOL     OW26216   9.075   7.057   6.119 -0.1950  0.2498 -0.2373
39659SOL    HW126217   8.988   7.072   6.082 -1.1942 -0.2686  1.7472
39659SOL    HW226218   9.134   7.106   6.062 -1.8988  1.4773 -1.0470
39660SOL     OW26219  10.800   6.145   9.724 -0.0168  0.0283  0.1535
39660SOL    HW126220  10.861   6.109   9.659  0.0756 -1.5589  1.0571
39660SOL    HW226221  10.713   6.126   9.688  0.0368  0.1436 -0.0342
39661SOL     OW26222   2.848   9.923   2.211 -0.3397  0.0346  0.0954
39661SOL    HW126223   2.939   9.899   2.227 -0.5005  0.6602  2.2913
39661SOL    HW226224   2.831   9.995   2.272 -1.7769  1.2353 -1.6050
39662SOL     OW26225   5.948  11.528  11.130 -0.0271 -0.0689 -0.2595
39662SOL    HW126226   5.944  11.488  11.217 -0.1283 -0.7748 -0.5818
39662SOL    HW226227   5.995  11.610  11.144  1.0537 -0.7463  0.2585
39663SOL     OW26228  12.203   9.564   9.978  0.1486  0.0401  0.4518
39663SOL    HW126229  12.276   9.625   9.962 -0.2347  0.2092 -0.7316
39663SOL    HW226230  12.240   9.499  10.038  1.5981 -0.4363 -0.8862
39664SOL     OW26231   0.554   8.516   4.667 -0.1533 -0.2583  0.3241
39664SOL    HW126232   0.560   8.421   4.664 -0.2754 -0.2445 -0.6490
39664SOL    HW226233   0.465   8.536   4.641  0.5968  0.2076 -2.1278
39665SOL     OW26234   0.038   6.104  12.088 -0.3349  0.0962  0.1318
39665SOL    HW126235  -0.046   6.132  12.122 -0.0239 -0.4155  1.3679
39665SOL    HW226236   0.030   6.112  11.993 -1.8436 -0.1503  0.2213
39666SOL     OW26237  10.527   9.290   2.939 -0.5790  0.4015  0.1140
39666SOL    HW126238  10.607   9.272   2.988 -1.1563 -0.2968  0.8308
39666SOL    HW226239  10.462   9.311   3.006 -2.2027 -3.5245  0.0613
39667SOL     OW26240   4.362   8.824   8.722 -0.0101 -0.0865  0.0381
39667SOL    HW126241   4.418   8.757   8.684 -1.6038  0.0590 -2.7879
39667SOL    HW226242   4.346   8.794   8.812  1.7311 -1.8674 -0.1920
39668SOL     OW26243  10.497   8.277   5.288  0.3868 -0.1864  0.3348
39668SOL    HW126244  10.576   8.329   5.273  0.6575 -0.7410 -0.1831
39668SOL    HW226245  10.473   8.296   5.379  0.0864  1.3657 -0.0374
39669SOL     OW26246   6.521   4.154  12.666 -0.1989  0.0685  0.6663
39669SOL    HW126247   6.433   4.168  12.631 -0.1553 -1.2973 -0.0792
39669SOL    HW226248   6.507   4.127  12.757 -0.5371  0.0858  0.6189
39670SOL     OW26249   0.180  12.457   5.192  0.2627 -0.4140  0.4987
39670SOL    HW126250   0.140  12.415   5.268 -0.9995 -0.0964  0.0290
39670SOL    HW226251   0.215  12.540   5.227 -0.0678 -0.3952  0.7898
39671SOL     OW26252   9.712   0.669   5.705 -0.6388  0.0576 -0.0790
39671SOL    HW126253   9.628   0.673   5.658 -2.1215  0.4257  2.4541
39671SOL    HW226254   9.722   0.755   5.744 -0.1024 -0.5929  1.2816
39672SOL     OW26255   2.914   8.914   7.023 -0.2663  0.7164 -0.6994
39672SOL    HW126256   2.819   8.931   7.024 -0.5303 -0.6140  0.3038
39672SOL    HW226257   2.948   8.964   7.096 -0.3165  0.6520 -0.6306
39673SOL     OW26258   9.637   3.017   2.835 -0.4715 -0.6175  0.4047
39673SOL    HW126259   9.553   2.977   2.813 -0.6392 -0.1843  0.2318
39673SOL    HW226260   9.635   3.102   2.791 -0.6969  0.1710  1.8739
39674SOL     OW26261   9.263   0.769  11.408 -0.2085 -0.0616  0.2920
39674SOL    HW126262   9.223   0.682  11.414  1.4693 -1.0112 -1.2375
39674SOL    HW226263   9.198   0.823  11.363 -0.5483 -1.0366 -0.4155
39675SOL     OW26264   1.749   0.012  10.632 -0.4284 -0.4044 -0.1671
39675SOL    HW126265   1.732   0.106  10.624  0.9459 -0.0943  0.1579
39675SOL    HW226266   1.666  -0.026  10.661 -1.0690  0.6730 -0.5432
39676SOL     OW26267  10.166   2.089  12.385  0.2146  0.1753 -0.5280
39676SOL    HW126268  10.261   2.096  12.373  0.3526 -0.7473 -0.0727
39676SOL    HW226269  10.150   2.128  12.471  0.0965  0.8713 -0.8611
39677SOL     OW26270  12.683   2.373  12.133  0.1472  0.2586  0.6012
39677SOL    HW126271  12.663   2.454  12.181  0.6913  0.5755  0.3012
39677SOL    HW226272  12.605   2.318  12.145 -0.2112  0.8109  0.8411
39678SOL     OW26273  10.000   0.232   9.125 -0.5576  0.2456  0.0425
39678SOL    HW126274  10.084   0.189   9.138 -0.1397  1.3216  1.1195
39678SOL    HW226275  10.022   0.310   9.074 -0.7806  0.8699  0.8787
39679SOL     OW26276   5.555   6.163   4.006  0.1455  0.9621 -0.4718
39679SOL    HW126277   5.571   6.088   4.062 -2.0151 -0.7087 -1.9226
39679SOL    HW226278   5.460   6.163   3.992  0.3200  2.7169 -2.1789
39680SOL     OW26279   5.028   8.844   7.662  0.1216 -0.2061  0.2201
39680SOL    HW126280   4.997   8.809   7.579 -0.7195 -0.7760  0.7568
39680SOL    HW226281   5.119   8.813   7.668  0.5787  0.8159 -1.0009
39681SOL     OW26282  12.321  12.008   1.840 -0.1341 -0.4403 -0.3727
39681SOL    HW126283  12.364  11.957   1.909  0.3275 -1.3035 -1.2767
39681SOL    HW226284  12.329  12.099   1.870 -0.0102 -0.7927  0.7406
39682SOL     OW26285   8.836   8.192   5.178  0.2087  0.0534  0.7370
39682SOL    HW126286   8.744   8.216   5.187 -0.6221 -3.0333  1.5549
39682SOL    HW226287   8.860   8.156   5.264  1.0410 -2.5537 -0.5053
39683SOL     OW26288   3.528   0.706  10.887  0.0257  0.1844 -0.5251
39683SOL    HW126289   3.530   0.619  10.847  1.0865 -0.3909  0.7061
39683SOL    HW226290   3.591   0.701  10.959 -0.8512  1.5685  0.3994
39684SOL     OW26291  12.012  10.873   6.034  0.2465 -0.1883 -0.6183
39684SOL    HW126292  12.006  10.917   5.949  1.0932 -0.6949 -0.9526
39684SOL    HW226293  12.042  10.785   6.013 -0.2564 -0.5611  0.1485
39685SOL     OW26294   7.042  10.821   0.389 -0.2287 -0.3247 -0.2597
39685SOL    HW126295   7.114  10.853   0.335 -2.0439  1.0771 -2.0158
39685SOL    HW226296   7.044  10.877   0.467 -0.9577  1.5512 -1.5147
39686SOL     OW26297   6.576   4.255  12.399  0.4831  0.3765  0.0921
39686SOL    HW126298   6.639   4.327  12.400  1.4268 -0.4286  0.6600
39686SOL    HW226299   6.588   4.211  12.483 -2.4778  1.5325  1.2701
39687SOL     OW26300   1.079   7.334   7.493 -0.5243  0.4971 -0.3970
39687SOL    HW126301   1.108   7.247   7.462 -0.4153 -0.3884  1.9753
39687SOL    HW226302   0.987   7.322   7.513  0.0984  0.0566  2.5541
39688SOL     OW26303  10.720   1.699  12.229 -0.2270  0.1464 -0.1702
39688SOL    HW126304  10.636   1.745  12.235  0.3448  1.1972 -0.0096
39688SOL    HW226305  10.750   1.693  12.320  0.4648  0.9255 -0.3367
39689SOL     OW26306  10.806   0.638   8.227  0.7521 -0.3652  0.2121
39689SOL    HW126307  10.854   0.559   8.249 -0.8291 -2.0230 -1.8747
39689SOL    HW226308  10.843   0.665   8.142  0.2336  0.2418  0.1744
39690SOL     OW26309  10.479   9.669   4.039 -0.2187  0.2775  0.1430
39690SOL    HW126310  10.574   9.657   4.046 -0.4886 -1.4719  1.6905
39690SOL    HW226311  10.446   9.651   4.127 -2.2597 -2.4238 -1.0401
39691SOL     OW26312   2.717  11.630  11.625  0.1453 -0.0237  0.2324
39691SOL    HW126313   2.776  11.556  11.636  1.4042  0.8612 -0.2631
39691SOL    HW226314   2.771  11.707  11.643  0.0736  1.0392 -3.3360
39692SOL     OW26315   0.091   9.911   2.162 -0.0953  0.2827 -0.3197
39692SOL    HW126316   0.151   9.954   2.102 -0.4802  3.6831  1.5185
39692SOL    HW226317   0.007   9.911   2.115  0.0033  1.2340 -0.5167
39693SOL     OW26318  12.499  10.807  10.811 -0.1330  0.0097 -0.2757
39693SOL    HW126319  12.463  10.864  10.743  0.6279  3.1493  1.6973
39693SOL    HW226320  12.426  10.794  10.872  0.5931  2.2119  1.1929
39694SOL     OW26321   8.600  10.624   4.129  0.4234  0.1900 -0.4087
39694SOL    HW126322   8.664  10.599   4.063 -0.3529  1.0575 -1.5211
39694SOL    HW226323   8.539  10.550   4.132  0.4653  0.1436 -0.6759
39695SOL     OW26324   1.712  11.500  12.137 -0.0629 -0.3752 -0.3889
39695SOL    HW126325   1.780  11.558  12.104  0.1046  0.0278  0.6276
39695SOL    HW226326   1.724  11.419  12.088  1.0948 -0.2906 -0.2739
39696SOL     OW26327   9.707  11.808   6.433 -0.6814  0.1614 -0.4587
39696SOL    HW126328   9.701  11.904   6.440 -2.0984  0.0448  0.1257
39696SOL    HW226329   9.661  11.776   6.511  0.9409 -1.0031  0.0781
39697SOL     OW26330   2.871   8.879   3.353  0.3464 -0.0899  0.3431
39697SOL    HW126331   2.905   8.861   3.265 -1.5333 -0.0899 -0.4356
39697SOL    HW226332   2.842   8.970   3.350  1.3855  0.2956  1.3738
39698SOL     OW26333  11.714   7.242   9.121  0.0274  0.2350 -0.1529
39698SOL    HW126334  11.696   7.148   9.129  3.2012 -0.6931 -1.8105
39698SOL    HW226335  11.654   7.272   9.053 -0.1449 -0.9560 -0.5579
39699SOL     OW26336  11.906   6.714   8.023  0.3402 -0.2354  0.3742
39699SOL    HW126337  11.834   6.676   7.972  0.8895 -0.5234 -0.2108
39699SOL    HW226338  11.869   6.731   8.109 -0.5023 -0.1123 -0.0066
39700SOL     OW26339  12.244   5.935   3.792 -0.3317  0.3399  0.3202
39700SOL    HW126340  12.221   6.027   3.803  0.5044  0.8091 -1.5673
39700SOL    HW226341  12.295   5.932   3.712 -1.3925 -1.9812 -0.3480
39701SOL     OW26342   8.992   1.895   2.225  0.4633 -0.0222  0.1605
39701SOL    HW126343   8.962   1.892   2.316  1.2594 -0.4677  0.4234
39701SOL    HW226344   8.920   1.935   2.177  0.0154  0.1843  0.9826
39702SOL     OW26345   2.422   3.623   1.266  0.4710 -0.4065  0.0064
39702SOL    HW126346   2.384   3.655   1.184 -0.2927 -1.0393  0.1001
39702SOL    HW226347   2.424   3.700   1.323 -0.3038 -0.2727 -0.1395
39703SOL     OW26348  11.093   5.034   4.096  0.1671 -0.1226 -0.8003
39703SOL    HW126349  11.023   5.011   4.157 -0.1856  0.3045 -1.0356
39703SOL    HW226350  11.083   4.973   4.023  1.9593 -2.1251  0.5192
39704SOL     OW26351   2.341  12.544  11.504 -0.0275 -0.4228 -0.2812
39704SOL    HW126352   2.330  12.632  11.470 -3.2777 -1.4657 -2.4411
39704SOL    HW226353   2.417  12.509  11.458 -0.0058  0.5813 -1.0356
39705SOL     OW26354   9.499   4.758   6.763 -0.6389  0.6776 -0.1007
39705SOL    HW126355   9.471   4.669   6.783 -0.3119  0.3482 -1.0787
39705SOL    HW226356   9.592   4.760   6.787 -0.5456  0.6316 -0.4503
39706SOL     OW26357   1.826   6.513   7.035  0.0061 -0.2422 -0.0042
39706SOL    HW126358   1.876   6.552   6.963  1.0275  1.5602  1.5714
39706SOL    HW226359   1.805   6.588   7.091 -1.2945 -1.5083  1.2604
39707SOL     OW26360   8.941   7.284  12.470  0.3186  0.3517  0.1804
39707SOL    HW126361   8.875   7.351  12.488  0.6948  0.8895 -0.3767
39707SOL    HW226362   8.968   7.253  12.556  0.2220  1.0093  0.4547
39708SOL     OW26363   9.368   5.389   2.403  0.2994 -0.8542  0.0933
39708SOL    HW126364   9.411   5.443   2.337 -0.0800  1.5977  1.7297
39708SOL    HW226365   9.438   5.364   2.464  0.9161 -4.2063 -1.7211
39709SOL     OW26366  12.561   2.282   2.098  0.1566 -0.4638 -0.2077
39709SOL    HW126367  12.547   2.201   2.051 -0.4973  0.5757 -1.8895
39709SOL    HW226368  12.649   2.310   2.073 -0.7473  0.8537 -2.1083
39710SOL     OW26369   5.022   4.346  11.989  0.3953 -0.6469  0.2709
39710SOL    HW126370   5.112   4.352  11.958  0.4912  0.1219  0.6756
39710SOL    HW226371   5.029   4.351  12.084 -0.0524 -0.8779  0.3197
39711SOL     OW26372   2.233  10.715   4.681 -0.1771  0.1352 -0.3237
39711SOL    HW126373   2.257  10.801   4.716  0.2463 -0.1392  0.0708
39711SOL    HW226374   2.283  10.707   4.600 -0.8299  0.5935 -0.7730
39712SOL     OW26375   4.341   9.057   0.436 -0.8552 -0.9199 -0.2479
39712SOL    HW126376   4.334   9.056   0.532  0.3475 -1.2389 -0.1439
39712SOL    HW226377   4.266   9.109   0.407 -1.0603 -0.5512  0.8880
39713SOL     OW26378   0.198   7.989  11.779  0.3074 -0.0471  0.0339
39713SOL    HW126379   0.282   7.995  11.825  0.3095  0.5229 -0.0273
39713SOL    HW226380   0.221   7.963  11.689  0.4979  0.8557 -0.1894
39714SOL     OW26381   6.484   9.744   9.328 -0.1373 -0.5134 -0.4207
39714SOL    HW126382   6.489   9.732   9.423 -1.8821 -1.3726 -0.3977
39714SOL    HW226383   6.553   9.807   9.308 -0.0134  0.0158  1.4748
39715SOL     OW26384   5.962  10.614   6.290 -0.2672  0.4694 -0.7930
39715SOL    HW126385   6.009  10.628   6.208 -0.3892 -2.6346 -1.5339
39715SOL    HW226386   6.029  10.622   6.358  0.4256  0.3583 -1.4524
39716SOL     OW26387   5.454   8.661   7.350  0.3943  0.4248 -0.0323
39716SOL    HW126388   5.395   8.730   7.318  0.3472  0.0905 -0.6686
39716SOL    HW226389   5.477   8.689   7.439  0.4511  1.3132 -0.3172
39717SOL     OW26390   2.911   0.930   6.848  0.8680 -0.5923 -0.0497
39717SOL    HW126391   2.915   0.925   6.752  0.7554  0.1011 -0.0956
39717SOL    HW226392   2.971   1.001   6.871 -0.0968  0.1351  0.2920
39718SOL     OW26393   7.578  10.983   1.776 -0.2245  0.3192  0.3553
39718SOL    HW126394   7.536  10.907   1.818 -2.6922  1.2309 -0.3161
39718SOL    HW226395   7.609  10.949   1.692 -0.4129 -0.1951  0.4863
39719SOL     OW26396   6.141   9.372   8.737 -0.7352  0.3455 -0.2340
39719SOL    HW126397   6.151   9.304   8.804  0.3060  0.8382  0.1440
39719SOL    HW226398   6.137   9.454   8.787 -0.6319  0.6644 -0.7450
39720SOL     OW26399   6.396   6.265   9.088 -0.5222  0.2693 -0.2616
39720SOL    HW126400   6.333   6.256   9.160  0.3654  0.5437  0.5569
39720SOL    HW226401   6.477   6.294   9.130  0.0318  0.3513 -1.3639
39721SOL     OW26402   2.413   8.403   6.166 -0.4011  0.0616 -0.4093
39721SOL    HW126403   2.406   8.491   6.129 -1.9062  0.9113  1.7082
39721SOL    HW226404   2.346   8.352   6.120 -0.8993  0.5722 -0.2625
39722SOL     OW26405   2.324   2.495   3.602 -0.0373  0.0791  0.3459
39722SOL    HW126406   2.305   2.589   3.603  0.7731  0.3072 -1.4771
39722SOL    HW226407   2.241   2.454   3.624 -0.6194  1.2005  0.3242
39723SOL     OW26408   7.284   7.792   2.798  0.2202  0.4523  0.4560
39723SOL    HW126409   7.193   7.793   2.827  0.6591 -0.1531  1.9319
39723SOL    HW226410   7.314   7.703   2.816  1.4643  0.9922  1.1695
39724SOL     OW26411   9.041   2.365   1.150  0.0054 -0.0220  0.0878
39724SOL    HW126412   9.116   2.314   1.120  0.1296 -0.1050  0.5346
39724SOL    HW226413   8.981   2.365   1.075  0.5865  0.3302 -0.3847
39725SOL     OW26414   1.465   9.037   9.990  0.1777  0.0036 -0.0532
39725SOL    HW126415   1.556   9.064   9.997  0.3817 -0.7450  0.2304
39725SOL    HW226416   1.428   9.095   9.923  0.5895  1.0040  0.5599
39726SOL     OW26417   0.465   6.108  11.862  0.0310 -0.0831  0.4030
39726SOL    HW126418   0.413   6.126  11.784 -0.1528 -3.5018 -0.4035
39726SOL    HW226419   0.555   6.129  11.836 -0.2463  0.5971 -0.0471
39727SOL     OW26420   3.469  12.215   2.657 -0.1380 -0.3057 -0.4210
39727SOL    HW126421   3.533  12.281   2.630 -1.1716  0.9993  0.2127
39727SOL    HW226422   3.397  12.265   2.695 -0.3737 -1.8789  1.3415
39728SOL     OW26423  12.565   3.571   6.588  0.0831  0.4834  0.4402
39728SOL    HW126424  12.531   3.654   6.556 -0.6936  0.2079  0.5402
39728SOL    HW226425  12.500   3.540   6.651 -0.2680 -0.7860 -0.4955
39729SOL     OW26426  10.744   6.544   6.398  0.0432 -0.2078  0.2299
39729SOL    HW126427  10.751   6.639   6.382 -0.9099 -0.3298 -1.0460
39729SOL    HW226428  10.671   6.535   6.458  0.6912 -0.0869  1.0550
39730SOL     OW26429   9.096   6.703   2.758 -0.3536 -0.2560 -1.1801
39730SOL    HW126430   9.145   6.635   2.711 -1.2512 -1.3536 -0.6026
39730SOL    HW226431   9.163   6.761   2.795  0.4914 -1.3674 -0.9129
39731SOL     OW26432  12.321   9.498   5.269  0.0221 -0.0515 -0.0072
39731SOL    HW126433  12.328   9.573   5.328 -0.0038  0.1642 -0.2752
39731SOL    HW226434  12.321   9.536   5.181  3.4677 -0.5357 -0.3469
39732SOL     OW26435   0.135   7.966   2.138 -0.2050 -0.0820  0.1298
39732SOL    HW126436   0.086   7.939   2.216 -0.3675  0.4129  0.1993
39732SOL    HW226437   0.173   8.050   2.161  0.2707 -0.2302 -0.1054
39733SOL     OW26438   7.769  11.949   2.226  0.0812 -0.2852 -0.2223
39733SOL    HW126439   7.844  11.974   2.279  1.0954 -0.6366 -1.4620
39733SOL    HW226440   7.693  11.976   2.278  1.0317 -0.4986  1.3451
39734SOL     OW26441   4.420   2.213  12.500 -0.2428  0.5091 -0.3628
39734SOL    HW126442   4.483   2.200  12.429 -0.9258 -0.0246 -0.8900
39734SOL    HW226443   4.406   2.308  12.503  0.8897  0.6689  0.0379
39735SOL     OW26444   9.420   5.101   6.527  0.2035  0.7479  0.4687
39735SOL    HW126445   9.410   5.154   6.605 -1.0190  0.7373  0.3366
39735SOL    HW226446   9.373   5.149   6.459 -0.8873 -0.4539  0.3410
39736SOL     OW26447   3.438   0.103   2.832 -0.1620  0.4345  0.5110
39736SOL    HW126448   3.441   0.192   2.797  1.0157 -0.2971 -1.4161
39736SOL    HW226449   3.355   0.068   2.799  0.2525  0.2353 -0.3595
39737SOL     OW26450   1.199   8.457   1.154  0.6011 -0.1474 -0.0629
39737SOL    HW126451   1.126   8.446   1.093  0.3456 -1.4609  0.4619
39737SOL    HW226452   1.184   8.393   1.223  2.7957 -1.2017 -0.4618
39738SOL     OW26453  11.170   5.471   7.009 -0.1377 -0.5493  0.5125
39738SOL    HW126454  11.236   5.509   6.951  0.5861 -1.4521  0.7199
39738SOL    HW226455  11.117   5.416   6.951 -0.0001 -0.7070  0.5336
39739SOL     OW26456   6.880   2.330   0.670 -0.0886 -0.1879 -0.1890
39739SOL    HW126457   6.895   2.354   0.579  0.6134 -0.7274 -0.2248
39739SOL    HW226458   6.968   2.318   0.707 -0.1568  3.0646  1.4217
39740SOL     OW26459   1.298   3.462   0.467 -0.5474 -0.2848  0.0087
39740SOL    HW126460   1.257   3.456   0.553 -1.3743 -0.6103 -0.4043
39740SOL    HW226461   1.239   3.517   0.416 -0.1587 -0.2510 -0.4074
39741SOL     OW26462   9.530   5.483   6.863 -0.3592  0.1180 -0.0199
39741SOL    HW126463   9.541   5.482   6.768  0.5838  1.0752  0.0557
39741SOL    HW226464   9.449   5.531   6.878 -0.1129  0.6436 -0.3291
39742SOL     OW26465   4.482   6.466   0.477  0.1069 -0.2673  0.3268
39742SOL    HW126466   4.550   6.518   0.435  0.9711 -0.7212  1.1126
39742SOL    HW226467   4.407   6.525   0.485  0.4212  0.2573 -0.5060
39743SOL     OW26468   3.576   4.167  11.896 -0.2344  0.6673  0.0278
39743SOL    HW126469   3.524   4.137  11.971 -0.1760 -0.0298 -0.2016
39743SOL    HW226470   3.667   4.149  11.921 -0.0943  1.7525  0.3687
39744SOL     OW26471  10.001   3.621   4.539  0.5388  0.1067  0.5826
39744SOL    HW126472  10.066   3.605   4.472  0.9282 -0.6199  1.1222
39744SOL    HW226473   9.974   3.712   4.526 -0.5476 -0.4562 -1.5416
39745SOL     OW26474   5.451   7.978   8.950  0.0082  0.3805  0.5175
39745SOL    HW126475   5.510   8.050   8.925  0.2666 -0.1065 -0.3242
39745SOL    HW226476   5.367   8.002   8.910  0.4085 -0.3726 -0.8460
39746SOL     OW26477   2.296   1.300  10.522  0.4905 -0.3324 -0.8068
39746SOL    HW126478   2.376   1.249  10.509  0.6837 -1.1320  2.5602
39746SOL    HW226479   2.267   1.278  10.610 -1.2854  2.9245 -0.3855
39747SOL     OW26480  10.703   3.459  11.553 -0.2248  0.2749 -0.5981
39747SOL    HW126481  10.783   3.499  11.587 -0.5304  1.8254 -1.6411
39747SOL    HW226482  10.733   3.384  11.503  0.4861  0.1667 -0.0269
39748SOL     OW26483   6.654   1.745   4.770 -0.5648 -0.2731  0.5374
39748SOL    HW126484   6.662   1.656   4.736 -0.4174 -0.5469  1.2570
39748SOL    HW226485   6.684   1.738   4.861  0.7095  0.7669  0.2223
39749SOL     OW26486   0.147   0.165   4.846 -0.2517  0.5557  0.2190
39749SOL    HW126487   0.230   0.194   4.808 -0.3035 -2.4592 -2.6559
39749SOL    HW226488   0.168   0.085   4.893 -1.1479  1.2698  1.9167
39750SOL     OW26489  10.983   2.761   0.554  0.3054 -0.3512 -0.0284
39750SOL    HW126490  10.965   2.811   0.475  0.1760 -0.4271 -0.0479
39750SOL    HW226491  11.047   2.813   0.603 -1.4399  0.9179  1.0100
39751SOL     OW26492   4.580   5.320   2.518  0.2431  0.4728  0.5153
39751SOL    HW126493   4.534   5.344   2.599 -0.2768 -0.3836  0.4852
39751SOL    HW226494   4.632   5.397   2.496 -0.4064  1.0917  1.1079
39752SOL     OW26495   9.001   1.962  11.525  0.4714  0.2230  0.6442
39752SOL    HW126496   8.956   1.882  11.555 -2.6775  1.6909  0.2667
39752SOL    HW226497   8.931   2.015  11.486  2.1746  3.6737  1.8675
39753SOL     OW26498   3.969   2.943   7.321  0.4871 -0.1458  0.3398
39753SOL    HW126499   4.050   2.952   7.270 -1.7072 -0.5278 -3.5749
39753SOL    HW226500   3.944   3.033   7.341  1.0808  0.0503  0.2372
39754SOL     OW26501  12.481   8.240   9.524  0.2986  0.5158  0.0223
39754SOL    HW126502  12.410   8.175   9.524 -0.0300  0.8596 -0.6330
39754SOL    HW226503  12.551   8.198   9.473  0.5237  0.2293  0.5583
39755SOL     OW26504   6.825   8.688   1.264 -0.2319 -0.2420  0.2959
39755SOL    HW126505   6.815   8.726   1.352  1.3539  0.9178  0.0155
39755SOL    HW226506   6.913   8.714   1.236 -0.0362 -2.0641 -0.9535
39756SOL     OW26507  11.383   2.085   8.661 -0.0466 -0.1815  0.1901
39756SOL    HW126508  11.293   2.117   8.661 -0.4864 -1.3413 -1.0385
39756SOL    HW226509  11.408   2.083   8.568  1.0890 -0.3299  0.4784
39757SOL     OW26510   1.206   7.090   8.755  0.1891 -0.3334  0.1682
39757SOL    HW126511   1.170   7.002   8.768 -0.0486 -0.0975  1.2187
39757SOL    HW226512   1.242   7.114   8.840 -0.0005  0.7047 -0.0265
39758SOL     OW26513  10.524   4.080   2.119  0.2634  0.1330  0.4209
39758SOL    HW126514  10.537   4.081   2.214  2.3061  1.8362  0.1984
39758SOL    HW226515  10.604   4.118   2.083 -0.9323  0.6210 -1.9475
39759SOL     OW26516   8.487  12.263  11.049 -0.0376 -0.0414 -0.5657
39759SOL    HW126517   8.545  12.337  11.029  0.6619 -0.1627  0.8672
39759SOL    HW226518   8.477  12.217  10.966 -0.2588  1.4909 -1.4255
39760SOL     OW26519   8.932   2.770  10.559  0.0749  0.3611  0.2720
39760SOL    HW126520   8.841   2.800  10.556  0.3913  1.3120 -0.4993
39760SOL    HW226521   8.978   2.840  10.606  0.8522  1.2311 -1.6526
39761SOL     OW26522  11.414   1.802  10.630  0.7233  0.0591 -0.6683
39761SOL    HW126523  11.356   1.848  10.692  0.3236 -2.1071  0.6788
39761SOL    HW226524  11.483   1.865  10.611  0.4606  1.0856  1.4641
39762SOL     OW26525   9.852   8.009   9.995  0.2259 -0.0759  0.2448
39762SOL    HW126526   9.771   8.006  10.046 -0.7004  0.9804 -1.1148
39762SOL    HW226527   9.887   7.920   9.999 -2.2779 -1.2076 -1.1544
39763SOL     OW26528   4.673  10.058   8.886 -0.9919 -0.8443 -0.2944
39763SOL    HW126529   4.673  10.153   8.884 -4.1526 -0.7517 -1.0045
39763SOL    HW226530   4.603  10.032   8.827  0.9463 -3.7296 -1.6136
39764SOL     OW26531   2.687   7.864  11.027 -0.4479 -0.7949  0.1459
39764SOL    HW126532   2.672   7.938  11.087 -0.7857 -1.9449  1.5353
39764SOL    HW226533   2.727   7.904  10.950  0.7020  0.6530  1.4305
39765SOL     OW26534   6.473  10.110   5.515 -0.1132 -0.2795 -1.1769
39765SOL    HW126535   6.542  10.048   5.538 -0.8448 -0.9633 -0.7568
39765SOL    HW226536   6.402  10.090   5.576  0.3081  2.2532  0.2663
39766SOL     OW26537   7.793   2.197  11.850  0.1673 -0.3438 -0.0536
39766SOL    HW126538   7.837   2.261  11.906  1.1238 -0.2742 -0.8504
39766SOL    HW226539   7.842   2.116  11.864 -1.3935 -1.1041  1.3962
39767SOL     OW26540  11.117  10.026   2.365 -0.3383  0.4951  0.1582
39767SOL    HW126541  11.102  10.119   2.383 -0.6320  0.4851 -0.0272
39767SOL    HW226542  11.206  10.023   2.332 -0.8417  0.9236 -1.3027
39768SOL     OW26543   6.239   2.270  11.081 -0.1693 -0.3950  0.1527
39768SOL    HW126544   6.205   2.324  11.153 -1.5818 -0.7346 -0.2274
39768SOL    HW226545   6.263   2.332  11.013 -1.4968 -0.1932 -0.1620
39769SOL     OW26546   9.270   9.168   6.069  0.1858 -0.2275  0.4709
39769SOL    HW126547   9.243   9.219   5.993 -0.9071  0.0275  1.0081
39769SOL    HW226548   9.193   9.168   6.127  0.9194 -0.5800  1.4816
39770SOL     OW26549   0.606   2.476   6.398  0.1728 -0.5020 -0.8490
39770SOL    HW126550   0.634   2.526   6.475 -0.7937 -0.9132 -0.2049
39770SOL    HW226551   0.676   2.413   6.384 -0.2120 -1.2686  0.4995
39771SOL     OW26552   4.539   5.067   1.461  0.7251 -0.4625  0.0611
39771SOL    HW126553   4.445   5.050   1.473  0.8412 -0.8237  0.4736
39771SOL    HW226554   4.582   4.998   1.511  1.2081  0.5492  1.0656
39772SOL     OW26555   2.023   0.768   2.354  0.2115 -0.0111  0.0305
39772SOL    HW126556   1.969   0.840   2.386 -0.4504  0.2453 -1.5405
39772SOL    HW226557   1.984   0.689   2.392 -0.9662  0.2185 -0.6689
39773SOL     OW26558   4.236   8.800   8.481 -0.3831  0.3644  0.1598
39773SOL    HW126559   4.302   8.768   8.420 -1.1313  2.7840 -2.1160
39773SOL    HW226560   4.276   8.789   8.567  3.1004  1.7529 -1.0695
39774SOL     OW26561   3.673   4.490   7.309  0.0026  0.0069 -0.6850
39774SOL    HW126562   3.617   4.425   7.351 -0.5884  1.8737  1.5712
39774SOL    HW226563   3.614   4.538   7.251 -1.1552  2.5622  2.3460
39775SOL     OW26564   8.996  10.818   1.739 -0.6133 -0.3996  0.1555
39775SOL    HW126565   8.935  10.880   1.778 -0.9831 -1.7477  1.8847
39775SOL    HW226566   8.968  10.810   1.647 -1.6621  0.6235  0.3723
39776SOL     OW26567  11.398   2.854   1.688 -0.1452 -0.7615 -0.1194
39776SOL    HW126568  11.426   2.946   1.683 -0.2379 -0.7834 -1.3043
39776SOL    HW226569  11.441   2.821   1.767  2.0729 -0.4110 -1.0833
39777SOL     OW26570  12.157   4.530  10.523  0.6466  0.2822 -0.2216
39777SOL    HW126571  12.183   4.611  10.567 -0.5277  0.0352  0.9970
39777SOL    HW226572  12.237   4.477  10.521  0.9705  0.7158  0.7126
39778SOL     OW26573  12.636   5.509   7.440 -0.5168  0.2463 -0.3369
39778SOL    HW126574  12.578   5.510   7.364 -1.2247 -2.6707  0.0608
39778SOL    HW226575  12.676   5.422   7.440  1.0254  0.8591  1.5261
39779SOL     OW26576   2.827  11.795   2.884  0.6696  0.3001  0.0687
39779SOL    HW126577   2.861  11.776   2.972 -1.3791 -0.8201  0.6843
39779SOL    HW226578   2.855  11.885   2.867  1.5916  0.3462  1.6344
39780SOL     OW26579   8.525  10.359  11.363 -0.5891  0.3702 -0.1432
39780SOL    HW126580   8.446  10.307  11.349  0.1955 -1.2179  1.0516
39780SOL    HW226581   8.508  10.404  11.447  0.1327 -0.7293  0.6122
39781SOL     OW26582  11.246  12.205   9.958 -0.7570  0.2668 -0.7806
39781SOL    HW126583  11.241  12.110   9.963 -0.2604  0.2844  0.8390
39781SOL    HW226584  11.156  12.233   9.944 -0.7964 -0.4486 -2.1492
39782SOL     OW26585  12.132   0.256   4.883  0.3755  0.0790 -0.0334
39782SOL    HW126586  12.164   0.166   4.879 -0.6964 -0.3827  1.1977
39782SOL    HW226587  12.046   0.249   4.924  0.2059  1.6522 -0.0730
39783SOL     OW26588   6.984   5.260  10.335 -0.0230  0.6957 -0.1316
39783SOL    HW126589   6.911   5.221  10.384 -1.1232  0.1830 -2.0656
39783SOL    HW226590   6.955   5.348  10.314 -0.3059  0.3488 -1.2738
39784SOL     OW26591   1.113   7.585   5.252  0.1490 -0.5420 -0.1149
39784SOL    HW126592   1.143   7.560   5.339 -0.6807  0.0972  0.3650
39784SOL    HW226593   1.022   7.613   5.264  0.8306  2.2024 -0.6675
39785SOL     OW26594  11.338   5.999   9.564 -0.1849 -0.1721 -0.2280
39785SOL    HW126595  11.322   5.966   9.652 -2.1079 -0.9565 -0.8134
39785SOL    HW226596  11.386   5.929   9.520  2.3499  0.9084  0.6177
39786SOL     OW26597   9.230  12.003   6.349  0.5069 -0.1346 -0.0176
39786SOL    HW126598   9.288  12.079   6.355  2.6358 -1.7219  0.8650
39786SOL    HW226599   9.261  11.943   6.417 -4.1845  0.0969  2.7952
39787SOL     OW26600   6.934   9.726   4.857  0.0231 -0.4776 -0.1356
39787SOL    HW126601   6.983   9.644   4.868 -0.2384 -1.2647 -3.5731
39787SOL    HW226602   6.842   9.699   4.856 -0.0806 -0.1416 -0.9113
39788SOL     OW26603  10.902   3.509   0.454  0.7068  0.0837  0.2662
39788SOL    HW126604  10.903   3.604   0.447 -1.3808  0.0629 -1.2998
39788SOL    HW226605  10.915   3.478   0.364  2.5174 -1.1812  0.9064
39789SOL     OW26606   5.326   5.750  11.670  0.4227 -0.4824 -0.3001
39789SOL    HW126607   5.232   5.768  11.677  0.3488 -0.4162 -1.3341
39789SOL    HW226608   5.334   5.657  11.689 -0.2108 -1.1042 -2.7642
39790SOL     OW26609  12.508   8.726   4.735  0.4372  0.3147 -0.2335
39790SOL    HW126610  12.512   8.630   4.731  0.8388  0.1288  2.5091
39790SOL    HW226611  12.414   8.746   4.738  0.3337  0.0879 -1.4204
39791SOL     OW26612   4.961  11.452   7.883 -0.4546 -0.0668  0.0641
39791SOL    HW126613   4.931  11.423   7.969  0.8790 -0.0950  0.5494
39791SOL    HW226614   5.044  11.407   7.870 -0.6665 -0.1228 -1.2893
39792SOL     OW26615  10.990   5.481   6.026 -0.5325  0.0841  0.2048
39792SOL    HW126616  11.063   5.421   6.041  0.8721  1.8497  0.8880
39792SOL    HW226617  10.942   5.444   5.952  0.4309 -1.6874  0.4154
39793SOL     OW26618   0.536   3.785   5.112  0.0587  0.7055 -0.2610
39793SOL    HW126619   0.575   3.784   5.199 -0.8689  0.3059  0.1635
39793SOL    HW226620   0.493   3.700   5.104 -0.3907  0.9814 -0.8651
39794SOL     OW26621   2.006  11.311   1.468 -0.2790 -0.4899  0.2782
39794SOL    HW126622   1.950  11.386   1.450 -0.5130 -0.8193 -0.3986
39794SOL    HW226623   1.970  11.241   1.414  0.5745 -0.8009  0.0945
39795SOL     OW26624   0.905  11.139   4.134  0.1816  0.6144  0.3488
39795SOL    HW126625   0.971  11.126   4.067  0.3141  1.0158  0.4008
39795SOL    HW226626   0.941  11.097   4.212  0.2037  0.4968  0.2748
39796SOL     OW26627   0.060   6.504  11.351  0.4177  0.2277 -0.1173
39796SOL    HW126628   0.063   6.409  11.350 -0.5603  0.1773  0.0671
39796SOL    HW226629   0.148   6.532  11.328  0.7896 -0.7187  0.1272
39797SOL     OW26630  11.429  11.727   9.504 -0.2735  0.0064  0.4096
39797SOL    HW126631  11.433  11.633   9.487  0.1577  0.0008  0.5276
39797SOL    HW226632  11.498  11.743   9.568  0.4208  0.5940 -0.4666
39798SOL     OW26633   1.132   3.535   2.760  0.2571  0.0604 -0.0670
39798SOL    HW126634   1.050   3.586   2.752  1.3864  2.1504  0.7803
39798SOL    HW226635   1.193   3.596   2.802  2.2534 -1.4671 -0.6398
39799SOL     OW26636   8.331   4.763   9.264  0.3457  0.5742  0.3800
39799SOL    HW126637   8.352   4.785   9.173  1.2028  1.3943  0.7518
39799SOL    HW226638   8.319   4.669   9.264 -0.3640  0.6465 -0.7175
39800SOL     OW26639   8.003   8.285   0.614 -0.2818 -0.3980 -0.1402
39800SOL    HW126640   8.033   8.328   0.694  0.2002 -0.8128 -0.0955
39800SOL    HW226641   7.942   8.218   0.645 -3.1512  1.9189 -0.3501
39801SOL     OW26642   4.544   3.955   1.937  0.2407 -0.1322  0.0006
39801SOL    HW126643   4.538   3.867   1.974  0.6628 -0.0430  0.2844
39801SOL    HW226644   4.494   3.950   1.856 -0.1057 -0.5188  0.2314
39802SOL     OW26645   1.170   9.785   8.115  0.4509 -0.4186 -0.3552
39802SOL    HW126646   1.192   9.699   8.078  1.8970  0.5938 -2.0476
39802SOL    HW226647   1.229   9.846   8.069 -0.3114  1.4382  1.0151
39803SOL     OW26648   8.988  12.473   8.876 -0.4077 -0.1358  0.1551
39803SOL    HW126649   8.922  12.535   8.907  1.2508  0.4446  2.8875
39803SOL    HW226650   9.042  12.525   8.816 -1.7937 -0.3676 -1.3744
39804SOL     OW26651   0.658   3.371   9.600  0.4955 -0.3853 -0.6854
39804SOL    HW126652   0.720   3.327   9.543  0.5700 -1.4004  0.1433
39804SOL    HW226653   0.618   3.439   9.546  2.8473  0.7976 -1.0370
39805SOL     OW26654   5.316   3.000   2.615 -0.9260 -0.2595  0.0895
39805SOL    HW126655   5.340   2.907   2.617  2.5132  0.5000 -0.5937
39805SOL    HW226656   5.297   3.018   2.523  2.1606  0.4136 -0.5329
39806SOL     OW26657   6.585   9.830   7.682 -0.3085  0.0232  0.6399
39806SOL    HW126658   6.496   9.842   7.716  0.6241  0.4586  3.1114
39806SOL    HW226659   6.593   9.896   7.613 -1.6575  0.4934  0.9006
39807SOL     OW26660   5.043  11.512  10.571 -0.2583 -0.4059 -0.0211
39807SOL    HW126661   5.119  11.467  10.535 -0.5237 -0.8235 -0.0747
39807SOL    HW226662   5.059  11.517  10.665  0.1687  0.1623 -0.1214
39808SOL     OW26663   1.622   3.415   4.489 -0.0269  0.1125  0.6803
39808SOL    HW126664   1.710   3.397   4.524 -0.3184 -1.1269  0.8292
39808SOL    HW226665   1.604   3.341   4.431 -0.3689  1.1306 -0.5584
39809SOL     OW26666   3.244  10.987   0.283 -0.4433  0.0406  0.3760
39809SOL    HW126667   3.238  10.921   0.352  0.6059 -1.5116 -0.9721
39809SOL    HW226668   3.177  10.962   0.219 -2.0566  2.0003  1.1684
39810SOL     OW26669   6.366   8.958   2.446 -0.2439  0.9328  0.1780
39810SOL    HW126670   6.284   8.915   2.423  0.2360  0.2337 -0.2613
39810SOL    HW226671   6.434   8.909   2.400  0.3858  1.7963  0.1411
39811SOL     OW26672   9.102   5.396   2.436  0.4183  0.1479 -0.4748
39811SOL    HW126673   9.065   5.310   2.418  0.1279  0.5873 -2.1892
39811SOL    HW226674   9.197   5.384   2.426  0.5727 -0.4004  1.3471
39812SOL     OW26675  11.425   2.808   6.888 -0.1725  0.0577 -0.7176
39812SOL    HW126676  11.396   2.816   6.979 -0.4865  1.4316 -0.9243
39812SOL    HW226677  11.490   2.877   6.877  0.7449 -0.8551 -1.2213
39813SOL     OW26678   1.323  12.541   2.530 -0.6361  0.1089 -0.3223
39813SOL    HW126679   1.277  12.467   2.492 -1.3001 -0.9150  2.3074
39813SOL    HW226680   1.415  12.515   2.529 -0.8164 -0.5397  0.1748
39814SOL     OW26681   8.070   3.188   4.871  0.3718 -0.2423 -0.3420
39814SOL    HW126682   8.088   3.242   4.947 -1.2518  1.6630 -1.2005
39814SOL    HW226683   7.975   3.177   4.872  0.6561 -3.5535  0.0202
39815SOL     OW26684   4.570   8.590   9.883  0.0037  0.0487 -0.4863
39815SOL    HW126685   4.567   8.655   9.812  1.5425  0.7213  0.0126
39815SOL    HW226686   4.506   8.524   9.858 -1.4315  1.6275 -1.1518
39816SOL     OW26687   7.032   7.714   2.960 -0.1810 -0.3968  0.0168
39816SOL    HW126688   6.993   7.788   2.914 -0.5769  0.1137  1.1446
39816SOL    HW226689   6.998   7.637   2.915 -2.8557  0.0101  1.1540
39817SOL     OW26690  10.416   9.431  11.629 -0.1970 -0.3376 -0.0612
39817SOL    HW126691  10.465   9.443  11.548  0.7366  0.7282  0.6233
39817SOL    HW226692  10.480   9.393  11.690 -1.5887 -3.7816 -0.5289
39818SOL     OW26693   8.269   1.406   9.329  0.3236 -0.3834 -0.8569
39818SOL    HW126694   8.355   1.388   9.365 -0.0761  0.7899  0.7663
39818SOL    HW226695   8.230   1.319   9.315  1.8687 -0.9367 -2.0067
39819SOL     OW26696  11.281   3.252   0.664  0.1357  0.7724  0.3020
39819SOL    HW126697  11.272   3.334   0.712 -3.0434 -0.0641  1.3600
39819SOL    HW226698  11.337   3.197   0.720 -0.1798  1.1970  1.0400
39820SOL     OW26699  10.042  12.356  11.486  0.3987 -0.1653  0.4645
39820SOL    HW126700   9.982  12.305  11.431  1.4465 -0.3711 -0.5137
39820SOL    HW226701  10.100  12.400  11.424  1.8479 -0.6839  1.4026
39821SOL     OW26702   4.499   9.837   1.847  0.4454  0.8128  0.3581
39821SOL    HW126703   4.548   9.907   1.891  0.0078 -0.5783  3.3009
39821SOL    HW226704   4.545   9.824   1.764  3.2664  1.5774  1.6767
39822SOL     OW26705  10.615   5.372   7.354  0.7012  0.6239 -0.1877
39822SOL    HW126706  10.537   5.324   7.382  1.2574  0.4685  1.1870
39822SOL    HW226707  10.586   5.462   7.345  0.9792  1.2298  3.5147
39823SOL     OW26708  11.788   7.827  11.930  0.0327  0.1490  0.2377
39823SOL    HW126709  11.762   7.764  11.862 -0.9421  1.3246 -0.5126
39823SOL    HW226710  11.705   7.858  11.966  0.5374 -0.1318  1.6968
39824SOL     OW26711   3.942   5.081  10.028  0.3591 -0.3888 -0.0542
39824SOL    HW126712   3.876   5.147  10.046 -1.7289 -2.1354 -0.8271
39824SOL    HW226713   3.912   5.003  10.076  0.7573 -1.7953 -1.9448
39825SOL     OW26714   3.290  10.083  10.154 -0.0782  0.1221 -0.4348
39825SOL    HW126715   3.380  10.075  10.185  0.3004  0.0750 -1.4812
39825SOL    HW226716   3.299  10.114  10.064 -1.0483 -1.0813 -0.9855
39826SOL     OW26717   3.128   6.984   2.687 -0.3201 -0.4900  0.1320
39826SOL    HW126718   3.131   7.079   2.682 -0.1865 -0.5722 -1.9907
39826SOL    HW226719   3.177   6.954   2.611 -0.3150 -2.2711  0.7914
39827SOL     OW26720   3.643   7.227  10.753 -0.1428  0.5751  0.2894
39827SOL    HW126721   3.614   7.182  10.832  0.7120 -0.7457 -0.1050
39827SOL    HW226722   3.576   7.293  10.736 -1.1399 -0.1611  1.2368
39828SOL     OW26723  12.144   2.332   8.876 -0.5180 -0.3667  1.2539
39828SOL    HW126724  12.185   2.302   8.794  0.7297  0.9510  1.3560
39828SOL    HW226725  12.057   2.361   8.849  0.4149  1.4996  0.0552
39829SOL     OW26726   1.916   3.153   6.451  0.2600  0.3195 -0.0910
39829SOL    HW126727   1.947   3.186   6.367 -1.8043 -1.5153 -1.6717
39829SOL    HW226728   1.994   3.118   6.494  1.5644  2.4129 -0.6260
39830SOL     OW26729   8.887   5.077  11.427 -0.2841 -0.3069 -0.7525
39830SOL    HW126730   8.871   5.128  11.348  1.2997  1.1982 -0.1604
39830SOL    HW226731   8.963   5.119  11.468 -0.2903 -1.8119  0.9238
39831SOL     OW26732   9.480   3.374   7.069  0.3223  0.2001  0.0183
39831SOL    HW126733   9.551   3.402   7.127 -0.5337  1.2344  0.6037
39831SOL    HW226734   9.501   3.414   6.984  1.1197 -0.6056 -0.1835
39832SOL     OW26735   3.902   1.695   1.609  0.2482  0.2104 -0.1796
39832SOL    HW126736   3.884   1.678   1.701 -0.7507  0.4765 -0.3131
39832SOL    HW226737   3.853   1.626   1.562  2.1554 -1.0148 -0.4708
39833SOL     OW26738   7.011  11.585   2.847 -0.2914 -0.1355 -0.3852
39833SOL    HW126739   7.025  11.540   2.930  0.5295  0.7178 -0.0321
39833SOL    HW226740   6.960  11.524   2.794  0.0262 -1.0940  0.3871
39834SOL     OW26741   9.644   8.920   2.496  0.6416  0.0118  0.2603
39834SOL    HW126742   9.684   9.006   2.483 -1.4513  1.0476  0.2549
39834SOL    HW226743   9.585   8.909   2.421  0.7523 -1.3821  0.3393
39835SOL     OW26744   8.690   1.697   9.923  0.1300  0.4137 -0.0615
39835SOL    HW126745   8.649   1.636   9.862 -0.5675  1.5394 -0.7441
39835SOL    HW226746   8.783   1.673   9.923 -0.3388 -1.6074  0.8480
39836SOL     OW26747   2.160   6.856   4.361  0.6197  0.4814  0.2118
39836SOL    HW126748   2.073   6.832   4.393  0.1580  3.7550  1.8794
39836SOL    HW226749   2.143   6.911   4.284  1.2416  0.5114  0.0903
39837SOL     OW26750   3.597   8.445  12.040  0.2422  0.4140 -0.5101
39837SOL    HW126751   3.533   8.491  11.985 -1.3387  1.0960  1.7709
39837SOL    HW226752   3.568   8.354  12.037 -0.2860  0.5660 -0.2428
39838SOL     OW26753   4.115   2.622   4.603 -0.0817 -0.5046  0.2168
39838SOL    HW126754   4.097   2.664   4.519  2.8319 -3.7316 -2.3074
39838SOL    HW226755   4.178   2.679   4.647  0.1084  0.1154 -0.8518
39839SOL     OW26756   3.352  11.141   9.254  1.1896 -0.2556  0.3737
39839SOL    HW126757   3.350  11.053   9.290 -0.7205 -1.1527 -1.7571
39839SOL    HW226758   3.346  11.130   9.159  1.8315  2.1358 -0.0277
39840SOL     OW26759   2.933   3.338   2.115 -0.0434  0.0520  0.3277
39840SOL    HW126760   2.938   3.245   2.138  1.4344  0.0411  0.0355
39840SOL    HW226761   2.847   3.366   2.148 -0.8452 -1.5886 -0.2926
39841SOL     OW26762   5.171   6.707   0.985 -0.5319  0.0964  0.3372
39841SOL    HW126763   5.246   6.746   1.029 -0.2191 -2.9268  2.7979
39841SOL    HW226764   5.105   6.697   1.053 -0.3880 -3.9274  0.1190
39842SOL     OW26765   3.003   8.996  10.808  0.2512 -0.3987 -0.5582
39842SOL    HW126766   2.909   8.988  10.789  0.1003 -0.5632  0.2349
39842SOL    HW226767   3.045   8.963  10.729 -0.3236  1.5415 -1.7413
39843SOL     OW26768  11.222   7.490   1.602  0.3682 -0.1831 -0.6192
39843SOL    HW126769  11.221   7.552   1.529 -0.0665 -0.9333 -1.2680
39843SOL    HW226770  11.130   7.472   1.620  0.4915 -0.7151 -0.5004
39844SOL     OW26771   3.464   7.410   1.755 -0.1417 -0.5126  0.2822
39844SOL    HW126772   3.520   7.465   1.700  0.8096 -1.0194  0.7229
39844SOL    HW226773   3.420   7.350   1.694  0.3130 -0.5569 -0.0002
39845SOL     OW26774   2.136   1.367   6.101  0.0386 -0.7903  0.6621
39845SOL    HW126775   2.110   1.451   6.139 -0.2347 -0.6155  0.1032
39845SOL    HW226776   2.140   1.384   6.007 -1.1541 -1.7044  0.4207
39846SOL     OW26777   7.024   5.084   7.644 -0.8760 -0.4794 -0.2916
39846SOL    HW126778   7.031   5.099   7.550 -0.6625 -2.3540 -0.6297
39846SOL    HW226779   7.098   5.025   7.664  0.0586  1.1585  1.3753
39847SOL     OW26780  12.057  10.434   0.263  0.2944  0.2188  0.0968
39847SOL    HW126781  12.137  10.416   0.214  0.0617  1.4165 -0.7732
39847SOL    HW226782  11.991  10.377   0.225  0.6505 -0.5407  0.6039
39848SOL     OW26783  11.939   0.406   0.340 -0.7948  0.2247  0.2235
39848SOL    HW126784  12.009   0.420   0.404 -0.9956  0.7585  0.3300
39848SOL    HW226785  11.921   0.493   0.304  0.0988 -0.2278 -1.3915
39849SOL     OW26786  11.695   3.473   3.980 -0.1242  0.0408 -0.1124
39849SOL    HW126787  11.653   3.553   3.947  1.2692  0.2498 -1.5252
39849SOL    HW226788  11.789   3.495   3.982  0.1062 -0.9619  1.2742
39850SOL     OW26789  11.170   9.777  10.798  0.4174 -0.3254  0.1549
39850SOL    HW126790  11.159   9.867  10.826  2.0231 -0.1667  0.3860
39850SOL    HW226791  11.083   9.738  10.806  0.2594  0.4170  2.8076
39851SOL     OW26792   4.987  12.264   6.179 -0.1232 -0.4551  0.1576
39851SOL    HW126793   4.988  12.176   6.216 -1.4206 -1.0728 -1.1654
39851SOL    HW226794   4.948  12.253   6.092 -1.8540  1.6576  0.5951
39852SOL     OW26795   3.348   7.150   8.223  0.2931  0.4607 -0.3057
39852SOL    HW126796   3.284   7.221   8.221 -1.9930 -1.4676 -0.2311
39852SOL    HW226797   3.336   7.110   8.309  0.2604 -1.0533 -0.9830
39853SOL     OW26798   5.957   8.026   9.042 -0.3393 -0.0250  0.3537
39853SOL    HW126799   5.896   8.099   9.036  0.5260  0.7129  0.2585
39853SOL    HW226800   5.957   8.002   9.134 -0.4205  0.2794  0.4328
39854SOL     OW26801   9.272   9.879  10.571 -0.5904 -0.0954  0.2667
39854SOL    HW126802   9.267   9.823  10.648 -1.8515  0.1205  0.3768
39854SOL    HW226803   9.218   9.955  10.593  0.3592  0.7492 -0.2192
39855SOL     OW26804  12.587  11.495   8.653  0.6532  0.3449 -0.0938
39855SOL    HW126805  12.519  11.556   8.682  1.8691  1.2334  0.9959
39855SOL    HW226806  12.609  11.445   8.731  1.7410  0.5510 -0.2547
39856SOL     OW26807   0.508   5.080   1.024  0.0606 -0.0944 -0.2956
39856SOL    HW126808   0.527   5.087   1.118 -0.3424 -1.0580 -0.1266
39856SOL    HW226809   0.457   5.158   1.004  1.4805  0.9248 -0.0670
39857SOL     OW26810   5.074   8.344   0.701  0.0671 -0.5301 -0.3630
39857SOL    HW126811   5.087   8.250   0.711  0.0037 -0.4731  0.2770
39857SOL    HW226812   5.098   8.381   0.786 -0.4082 -0.0166 -0.4475
39858SOL     OW26813   0.880  11.924   0.230  0.0284  0.2997  0.1161
39858SOL    HW126814   0.859  11.831   0.232  1.0627 -0.0235 -1.9046
39858SOL    HW226815   0.809  11.965   0.279 -2.0775 -1.2804 -1.4155
39859SOL     OW26816   7.103   8.290   3.533  0.0764  0.2148  0.8159
39859SOL    HW126817   7.144   8.347   3.598 -0.7051  1.8837 -0.0895
39859SOL    HW226818   7.009   8.301   3.548 -0.1143  0.4797 -0.4479
39860SOL     OW26819  12.689   6.037   2.432 -0.0830  0.1566  0.1485
39860SOL    HW126820  12.627   6.040   2.505 -0.2447 -1.8156  0.1611
39860SOL    HW226821  12.775   6.030   2.475 -0.2023 -1.3362  0.1897
39861SOL     OW26822   0.763   8.984   5.302 -0.0405  0.2589  0.0427
39861SOL    HW126823   0.717   8.982   5.386 -0.7793  1.1725 -0.3295
39861SOL    HW226824   0.766   8.892   5.274  0.5088 -0.0970  1.2124
39862SOL     OW26825  10.129   7.427  10.821 -0.1055  0.0232 -0.2727
39862SOL    HW126826  10.057   7.462  10.874  0.3715 -0.3236  0.6246
39862SOL    HW226827  10.089   7.409  10.736 -0.6961  1.3797 -0.3062
39863SOL     OW26828   6.863   2.549   4.138  0.1049  0.0195  0.7171
39863SOL    HW126829   6.873   2.545   4.233 -2.0579  0.2530  0.9980
39863SOL    HW226830   6.835   2.639   4.120  1.0727  0.1573 -0.2383
39864SOL     OW26831   1.568  10.655   5.684  0.6938  0.2197  0.0515
39864SOL    HW126832   1.649  10.697   5.712 -0.0558  0.2448  2.4157
39864SOL    HW226833   1.593  10.603   5.607  3.0666 -0.1937  1.0170
39865SOL     OW26834   9.694  11.058   9.951  0.0214  0.3728  0.6354
39865SOL    HW126835   9.733  11.009  10.023  1.0306  1.4660  0.8588
39865SOL    HW226836   9.625  11.111   9.992 -0.7568 -0.4773  0.4646
39866SOL     OW26837  10.053   0.927   2.639  0.0291 -0.0601  0.0987
39866SOL    HW126838  10.125   0.983   2.667 -0.1959  0.3609 -0.1558
39866SOL    HW226839  10.066   0.916   2.545 -0.0848 -0.2105  0.0996
39867SOL     OW26840   6.061   7.335   5.044 -0.1033  0.0039 -0.2288
39867SOL    HW126841   6.066   7.340   4.949 -2.1779  0.4569 -0.3603
39867SOL    HW226842   6.047   7.243   5.063 -1.7886  0.1806 -0.5255
39868SOL     OW26843   8.509   1.236   7.143  0.0259  0.3258  0.3447
39868SOL    HW126844   8.490   1.289   7.220 -0.7033  0.4088  0.1187
39868SOL    HW226845   8.491   1.146   7.171 -1.6142  0.4824 -0.1199
39869SOL     OW26846   7.454   1.391   3.109 -0.0010  0.1387 -0.1224
39869SOL    HW126847   7.506   1.311   3.099  1.9874  0.7101  3.7947
39869SOL    HW226848   7.466   1.438   3.027  1.7382 -1.9370 -1.1569
39870SOL     OW26849   0.712   2.731   1.204 -0.5091  0.0029  0.1909
39870SOL    HW126850   0.629   2.694   1.177 -0.0106 -0.4810 -0.7310
39870SOL    HW226851   0.694   2.824   1.218 -0.9636  0.1253 -1.1056
39871SOL     OW26852   9.493   4.848  12.580 -0.6943 -0.4669 -0.7898
39871SOL    HW126853   9.485   4.936  12.544  1.4720 -0.6165 -1.7965
39871SOL    HW226854   9.587   4.838  12.598 -1.0110 -2.2855  0.0431
39872SOL     OW26855   1.575   9.548   7.841 -0.6157  0.0023 -0.4211
39872SOL    HW126856   1.577   9.621   7.903 -0.1955  1.0838 -1.6672
39872SOL    HW226857   1.485   9.516   7.845 -0.7920  0.5433  0.1929
39873SOL     OW26858   5.533   7.014   9.089  0.0283 -0.1815 -0.2281
39873SOL    HW126859   5.508   6.929   9.053  0.9775 -0.2976 -0.6596
39873SOL    HW226860   5.621   7.000   9.124 -0.0347  0.4779  0.2126
39874SOL     OW26861  12.675   2.908   9.980 -0.1769  0.8053  0.6321
39874SOL    HW126862  12.652   2.816   9.996  0.8279  0.6210  1.1326
39874SOL    HW226863  12.751   2.903   9.922 -1.1143  1.3747 -0.6829
39875SOL     OW26864   3.608   4.464  11.819 -0.1023 -0.0367  0.1413
39875SOL    HW126865   3.598   4.369  11.814  0.8657 -0.1372 -0.1100
39875SOL    HW226866   3.536   4.498  11.766 -1.2458 -0.5771  1.2896
39876SOL     OW26867  10.015   6.158   3.580  0.1924  0.4332  0.5999
39876SOL    HW126868  10.041   6.195   3.496  0.8700  2.4572  1.6438
39876SOL    HW226869   9.981   6.232   3.630 -1.7844 -1.0338  1.5432
39877SOL     OW26870   5.144  12.467  10.930 -0.1901 -0.1634  0.2753
39877SOL    HW126871   5.220  12.477  10.872 -0.5958  0.6770 -0.1455
39877SOL    HW226872   5.081  12.416  10.878 -0.2146 -0.1752  0.3172
39878SOL     OW26873  10.662  11.683   7.896  0.1020 -0.0901  0.6225
39878SOL    HW126874  10.599  11.628   7.941 -1.8136 -0.5039 -2.2910
39878SOL    HW226875  10.692  11.630   7.822 -1.0057  2.2875 -1.6817
39879SOL     OW26876   4.128  11.886   7.603  0.4026 -0.0380  0.3468
39879SOL    HW126877   4.172  11.970   7.592 -0.7835  0.8436  1.8020
39879SOL    HW226878   4.053  11.906   7.660 -1.4150 -1.5976 -1.3640
39880SOL     OW26879   3.523   7.595   4.048  0.0125  0.2451  0.1003
39880SOL    HW126880   3.586   7.665   4.066  0.2326 -0.5507  2.7631
39880SOL    HW226881   3.556   7.552   3.969  1.0203  1.7994 -0.3645
39881SOL     OW26882   9.217   7.606   5.967  0.0576 -0.2012 -0.7609
39881SOL    HW126883   9.190   7.597   6.058 -0.2842 -0.1393 -0.8513
39881SOL    HW226884   9.298   7.556   5.960  0.7115  0.7559 -0.1539
39882SOL     OW26885  12.593   5.056   1.213 -0.4400 -0.1164 -0.2123
39882SOL    HW126886  12.662   5.121   1.201 -1.4558  1.2800  1.0264
39882SOL    HW226887  12.638   4.976   1.238  0.7954  0.3699 -0.8267
39883SOL     OW26888  11.212  11.515   8.803  0.4448  0.4082 -0.0177
39883SOL    HW126889  11.204  11.423   8.829  1.9456  0.9599  2.7830
39883SOL    HW226890  11.286  11.517   8.743 -0.3149 -0.3393 -0.9995
39884SOL     OW26891   4.728   1.783   7.740 -0.1267  0.1329  0.1184
39884SOL    HW126892   4.756   1.814   7.654 -0.6570  1.8143  0.5226
39884SOL    HW226893   4.808   1.779   7.792 -0.1165  1.5888  0.2595
39885SOL     OW26894   4.345   1.761  11.611 -0.0726  0.3114  0.0779
39885SOL    HW126895   4.433   1.733  11.587 -0.2162  0.9699 -1.3446
39885SOL    HW226896   4.348   1.857  11.603 -0.8828  0.3450  0.1057
39886SOL     OW26897   4.192   0.506   3.762 -0.2662  0.4495 -0.2794
39886SOL    HW126898   4.235   0.580   3.719 -0.0880  0.3241 -0.3178
39886SOL    HW226899   4.115   0.544   3.804 -0.4395  0.5752 -0.7074
39887SOL     OW26900   9.880   5.197  12.129 -0.6950  0.1029 -0.6330
39887SOL    HW126901   9.855   5.137  12.199  0.5219  1.3458  0.9461
39887SOL    HW226902   9.947   5.149  12.080  2.3159  0.9330  2.2394
39888SOL     OW26903  12.387   2.535   2.035  0.2676  0.1687  0.8088
39888SOL    HW126904  12.434   2.459   2.070  1.7079  1.0301  0.8163
39888SOL    HW226905  12.393   2.601   2.104 -0.4913  0.4983  0.5785
39889SOL     OW26906   5.753   4.762   7.105 -0.6776  0.2669  0.1254
39889SOL    HW126907   5.690   4.815   7.056  0.7686  0.6517 -1.4264
39889SOL    HW226908   5.830   4.818   7.113  0.1118 -0.8238  0.3896
39890SOL     OW26909   1.827   8.676   7.914  0.2032  0.5721 -0.1291
39890SOL    HW126910   1.873   8.687   7.998 -1.6660 -0.2262  1.0726
39890SOL    HW226911   1.737   8.655   7.939 -0.1747 -0.7505 -2.3442
39891SOL     OW26912  10.183   9.618  12.670  0.2705 -0.6215 -0.1768
39891SOL    HW126913  10.217   9.529  12.677 -0.3241 -0.8827 -0.4821
39891SOL    HW226914  10.255   9.674  12.699  0.9746 -1.1486 -0.8400
39892SOL     OW26915   6.943   3.591   9.138 -0.6246  0.2066  0.5586
39892SOL    HW126916   6.960   3.666   9.081 -1.5572 -0.5732 -0.8106
39892SOL    HW226917   6.855   3.607   9.172 -1.7909 -1.2294 -1.4873
39893SOL     OW26918  11.200   7.200   8.592 -0.3606 -0.1172 -0.2131
39893SOL    HW126919  11.234   7.276   8.640 -0.3288  0.7193 -1.5002
39893SOL    HW226920  11.105   7.205   8.602 -0.3825  0.3275 -0.6245
39894SOL     OW26921   0.887   9.398   0.256 -0.1159 -0.0268  0.4057
39894SOL    HW126922   0.880   9.314   0.211  0.1767  0.1065  0.1086
39894SOL    HW226923   0.827   9.455   0.208  0.6110  0.2661 -0.1749
39895SOL     OW26924   7.596   6.401   0.425 -0.6592 -0.0136  0.2729
39895SOL    HW126925   7.655   6.391   0.499  1.4292 -0.2947 -1.3304
39895SOL    HW226926   7.553   6.316   0.417  0.2419 -0.4816  0.2579
39896SOL     OW26927  11.860   4.625  10.099  0.0573 -0.7306 -0.2379
39896SOL    HW126928  11.803   4.688  10.057  1.8677  1.2273  0.0290
39896SOL    HW226929  11.884   4.563  10.030 -0.2378  0.0276 -1.0353
39897SOL     OW26930   7.654   0.741   5.129 -0.4144  0.0933  0.0974
39897SOL    HW126931   7.749   0.741   5.122 -0.5135  0.3700 -1.7453
39897SOL    HW226932   7.627   0.663   5.081 -1.1700  0.6573 -0.4063
39898SOL     OW26933   1.245   4.962   1.450 -0.1602 -0.1661  0.0680
39898SOL    HW126934   1.194   4.901   1.503  0.5564 -1.1408 -0.3285
39898SOL    HW226935   1.258   4.917   1.367 -1.1332  1.2661 -0.9146
39899SOL     OW26936  12.540   9.072  10.944  0.6108  0.5897  0.7347
39899SOL    HW126937  12.494   9.106  11.021 -1.4962 -0.1368 -0.1317
39899SOL    HW226938  12.498   9.115  10.870  0.5799 -0.9119 -0.1517
39900SOL     OW26939   2.186  12.116   2.631  0.3127  0.1338  0.1563
39900SOL    HW126940   2.126  12.045   2.654  0.5943 -0.4464 -0.8264
39900SOL    HW226941   2.130  12.184   2.595 -0.0371  0.7157  1.7125
39901SOL     OW26942   3.012   4.273   4.732 -0.2374 -0.1031  0.4254
39901SOL    HW126943   3.092   4.325   4.722 -1.4080  1.7845  0.3423
39901SOL    HW226944   2.977   4.300   4.817 -2.0173  0.9964 -0.5847
39902SOL     OW26945   3.763  10.408  12.144  0.4809 -0.5544  0.1314
39902SOL    HW126946   3.707  10.408  12.221 -0.3284 -0.6601 -0.4418
39902SOL    HW226947   3.723  10.472  12.085  2.1716  0.9468  0.5356
39903SOL     OW26948   0.350   1.270   7.856 -0.1750 -0.2728 -0.1007
39903SOL    HW126949   0.344   1.342   7.794 -0.3337  0.0475  0.2879
39903SOL    HW226950   0.407   1.206   7.812  0.0713  0.1406 -0.3867
39904SOL     OW26951   3.206  11.789   7.701 -0.2969 -0.3707 -0.7281
39904SOL    HW126952   3.263  11.729   7.653  0.1409 -1.7673  1.3807
39904SOL    HW226953   3.257  11.870   7.709  1.8572 -1.8186  1.7387
39905SOL     OW26954   6.023   9.635   1.862 -0.3601 -0.0118  0.2791
39905SOL    HW126955   6.031   9.544   1.892 -0.1692  0.1490  0.7223
39905SOL    HW226956   6.014   9.686   1.943  1.2793  0.5521  0.1430
39906SOL     OW26957   2.562   3.183   1.751 -0.3603 -0.6446  0.4184
39906SOL    HW126958   2.498   3.253   1.761  0.0588  0.1660 -1.8664
39906SOL    HW226959   2.513   3.113   1.707 -0.3785 -1.1949  1.2912
39907SOL     OW26960   9.179   1.813  11.381 -0.6363  0.2941 -0.4031
39907SOL    HW126961   9.105   1.842  11.434 -0.3126  0.7202 -0.1689
39907SOL    HW226962   9.250   1.802  11.444 -0.8877 -1.6173 -0.3840
39908SOL     OW26963   3.354  11.716   0.484  0.5671  0.0474  0.3074
39908SOL    HW126964   3.446  11.697   0.504  0.7367  1.0408  0.5162
39908SOL    HW226965   3.357  11.795   0.431 -0.1032 -0.5804 -0.7080
39909SOL     OW26966   4.101   9.125   3.241 -0.0022 -0.1097 -0.8118
39909SOL    HW126967   4.080   9.036   3.270  0.1069  0.0084 -0.3567
39909SOL    HW226968   4.131   9.114   3.151 -1.4782 -0.3490 -1.3138
39910SOL     OW26969  12.546   6.847   1.264 -0.2712 -0.1144  0.0932
39910SOL    HW126970  12.483   6.909   1.302  0.3580  0.7543 -0.2568
39910SOL    HW226971  12.516   6.835   1.174 -1.2506 -1.4914  0.5713
39911SOL     OW26972  12.689   7.151   1.932  0.0316 -0.3794  0.0996
39911SOL    HW126973  12.618   7.094   1.905 -0.1836 -0.3192  0.5303
39911SOL    HW226974  12.767   7.097   1.926 -0.1866 -0.7561  0.6207
39912SOL     OW26975   2.037   5.199   2.186 -0.3852  0.4950 -0.5585
39912SOL    HW126976   2.093   5.135   2.142 -0.4786 -0.3523  0.5168
39912SOL    HW226977   2.095   5.272   2.206  0.1354 -0.0051 -0.2317
39913SOL     OW26978   3.706  11.094   5.735  0.3392  0.0313  0.3047
39913SOL    HW126979   3.637  11.089   5.800  0.9961 -0.3513  0.9884
39913SOL    HW226980   3.787  11.097   5.786  0.8739 -0.3546 -0.4983
39914SOL     OW26981  11.572  10.079   6.474  0.3151 -0.8634 -0.7246
39914SOL    HW126982  11.630  10.146   6.437  0.9317  0.3531  2.1940
39914SOL    HW226983  11.484  10.117   6.469  0.4650 -0.4754 -0.4609
39915SOL     OW26984   8.806   6.320   6.400 -0.2534  0.2582 -0.6504
39915SOL    HW126985   8.860   6.243   6.420  1.3873  1.2894 -0.9597
39915SOL    HW226986   8.824   6.339   6.308  0.0861  1.5640 -0.3331
39916SOL     OW26987   3.926   9.126   6.403  0.3077 -0.7800  0.3754
39916SOL    HW126988   4.002   9.073   6.430  0.0041 -1.2594  0.2872
39916SOL    HW226989   3.951   9.161   6.318 -0.4730 -2.8032 -0.7464
39917SOL     OW26990   6.092   1.745   1.704 -0.2798  0.2348  0.4698
39917SOL    HW126991   6.065   1.658   1.677 -2.5549  1.5888 -2.0831
39917SOL    HW226992   6.044   1.761   1.786 -2.0569  0.0776 -0.5006
39918SOL     OW26993   9.697   4.760   4.247 -0.3400 -0.0704 -0.1478
39918SOL    HW126994   9.749   4.716   4.180 -0.7960  1.1897 -1.4030
39918SOL    HW226995   9.760   4.815   4.294 -0.2588  0.2558 -0.6247
39919SOL     OW26996   3.114   4.375   1.494  0.2284 -0.0279  0.6264
39919SOL    HW126997   3.061   4.397   1.571 -1.2445 -0.9680 -0.0733
39919SOL    HW226998   3.196   4.341   1.531 -1.3771 -2.7973  1.9279
39920SOL     OW26999  10.099   4.221   8.678 -0.1037  0.0331  0.0194
39920SOL    HW127000  10.049   4.222   8.760 -2.4971 -0.4726 -1.3352
39920SOL    HW227001  10.129   4.130   8.669 -0.1835 -0.0042  0.1358
39921SOL     OW27002   3.211  12.691   2.646  0.4678  0.6652  0.2244
39921SOL    HW127003   3.166  12.740   2.714  0.8127  1.4673 -0.1182
39921SOL    HW227004   3.200  12.743   2.567 -0.1046 -0.3637 -0.3898
39922SOL     OW27005   0.997   1.740   8.276  0.2591  0.0828  0.0102
39922SOL    HW127006   0.981   1.806   8.209 -1.4290  2.3460  2.4509
39922SOL    HW227007   0.916   1.688   8.278 -0.8674  1.7345  1.9347
39923SOL     OW27008   3.239   7.654   5.563 -0.5669 -0.8310 -0.4225
39923SOL    HW127009   3.232   7.695   5.477  0.7659  0.1270 -0.1117
39923SOL    HW227010   3.154   7.614   5.578 -2.2052  2.3251 -0.5112
39924SOL     OW27011   5.937   9.613   8.018  0.3485 -0.4509 -0.1946
39924SOL    HW127012   5.862   9.591   8.074 -0.0461  1.9371  0.3256
39924SOL    HW227013   5.898   9.640   7.935  0.4661  2.0228  0.4849
39925SOL     OW27014   7.282   1.175  12.316 -0.0519  0.3999  0.2045
39925SOL    HW127015   7.370   1.180  12.278  0.2076  0.4385  0.8024
39925SOL    HW227016   7.296   1.181  12.410 -0.7699  1.3695  0.2643
39926SOL     OW27017   3.736   6.638   0.134 -0.1058  0.1610  0.0571
39926SOL    HW127018   3.766   6.643   0.043 -0.1461  1.1663  0.0911
39926SOL    HW227019   3.810   6.668   0.186 -0.3826  0.4263  0.2993
39927SOL     OW27020   1.601   7.793   2.332  0.4606  0.0211  0.3810
39927SOL    HW127021   1.627   7.822   2.419 -0.0854 -0.2846  0.6525
39927SOL    HW227022   1.525   7.737   2.347  0.1248  0.2719 -0.3273
39928SOL     OW27023   8.300   9.950   0.844  0.1270  0.0563 -0.7090
39928SOL    HW127024   8.222   9.998   0.817  0.0406 -0.4191 -1.3337
39928SOL    HW227025   8.295   9.867   0.796  0.3358 -0.5295  0.2536
39929SOL     OW27026   8.496  11.026  12.689 -0.1859  0.6102  0.2394
39929SOL    HW127027   8.532  10.995  12.607 -0.0618  1.3833 -0.0034
39929SOL    HW227028   8.415  11.070  12.665 -0.9690 -0.5195  0.7063
39930SOL     OW27029   2.402   6.945  11.723  0.6302 -0.1315  0.4821
39930SOL    HW127030   2.375   7.007  11.655  0.9566 -0.6505 -0.1385
39930SOL    HW227031   2.428   7.000  11.797 -1.7666  0.3944  1.0038
39931SOL     OW27032   7.382  11.748  11.258 -0.3352 -0.2067 -0.7109
39931SOL    HW127033   7.461  11.731  11.309  0.2019 -0.6478 -1.6462
39931SOL    HW227034   7.318  11.781  11.321  0.6320  0.2593  0.0395
39932SOL     OW27035   5.029  12.706   5.078  0.4780 -0.1584 -0.0811
39932SOL    HW127036   5.028  12.674   5.169 -2.7868  0.0878  0.1029
39932SOL    HW227037   4.996  12.632   5.027 -1.2474  0.8474 -0.4912
39933SOL     OW27038   1.292   7.811  10.261  0.1046  0.6731 -0.3717
39933SOL    HW127039   1.303   7.733  10.206 -0.6619  1.8542 -2.3019
39933SOL    HW227040   1.274   7.881  10.199  4.8625  3.3706  0.7447
39934SOL     OW27041   1.481   9.096   6.892 -0.0423  0.0071 -0.4219
39934SOL    HW127042   1.567   9.055   6.898 -0.0718 -0.0303 -0.2068
39934SOL    HW227043   1.421   9.027   6.922 -0.2777 -0.3897 -1.7491
39935SOL     OW27044   3.562   1.953  10.102  0.4206 -0.0839  0.0550
39935SOL    HW127045   3.474   1.958  10.064  0.2243  0.7205  0.5845
39935SOL    HW227046   3.608   1.889  10.047 -0.0842  0.4660 -1.0480
39936SOL     OW27047  10.563   8.653   4.034 -0.0986  0.0128 -0.4799
39936SOL    HW127048  10.589   8.615   4.118 -0.5046  0.1776 -0.2725
39936SOL    HW227049  10.568   8.581   3.972  0.8527  0.0477 -0.4510
39937SOL     OW27050   0.038   4.981   0.297 -0.0504 -0.2101  0.0399
39937SOL    HW127051  -0.038   4.948   0.250 -1.0007 -0.1018  1.4384
39937SOL    HW227052   0.044   4.925   0.374  0.7934  0.3181  0.3706
39938SOL     OW27053  12.525  12.510  11.902 -0.6809 -0.4468 -0.7235
39938SOL    HW127054  12.527  12.429  11.952  0.5098 -0.7833 -1.2614
39938SOL    HW227055  12.436  12.516  11.868 -2.2734  0.9257  3.1311
39939SOL     OW27056   9.290   3.032  11.636  0.0545 -0.1868 -0.2055
39939SOL    HW127057   9.360   3.097  11.629 -1.1520  1.1750  0.0194
39939SOL    HW227058   9.276   3.003  11.546  0.4663 -0.0133 -0.3309
39940SOL     OW27059   7.829   4.103   6.206  0.1888  0.2711 -0.0066
39940SOL    HW127060   7.917   4.120   6.174  0.9721 -1.5034  1.0865
39940SOL    HW227061   7.787   4.053   6.135  0.7601 -0.6422  0.2808
39941SOL     OW27062  12.509   8.933   6.645 -0.1706 -0.4799  0.3016
39941SOL    HW127063  12.478   8.897   6.562 -0.2663 -0.1614  0.1961
39941SOL    HW227064  12.604   8.936   6.636 -0.2989  2.5539 -1.0910
39942SOL     OW27065   2.242   6.002   3.718 -0.0074  0.1236 -0.0368
39942SOL    HW127066   2.282   5.956   3.644  1.1736 -1.7347  1.6611
39942SOL    HW227067   2.150   5.973   3.716 -0.0716  0.3579 -0.9517
39943SOL     OW27068  11.851   6.330   0.507 -0.0226 -0.8706 -0.1510
39943SOL    HW127069  11.772   6.315   0.560  1.5258 -2.1404  1.9837
39943SOL    HW227070  11.923   6.305   0.565  1.9009 -0.9624 -2.4429
39944SOL     OW27071   1.909   7.971   6.579  0.1198  0.6014  0.3039
39944SOL    HW127072   1.897   7.983   6.484  0.1558  3.2031  0.5598
39944SOL    HW227073   1.980   7.908   6.586  0.0242  0.2494 -1.4058
39945SOL     OW27074   2.386   9.554   9.198 -0.2351 -0.2463  0.2317
39945SOL    HW127075   2.419   9.464   9.207  0.0997 -0.1194  0.2772
39945SOL    HW227076   2.424   9.586   9.116  0.4714  0.2062  0.7318
39946SOL     OW27077  12.600   5.777   0.401 -0.4796  0.1362  0.3144
39946SOL    HW127078  12.688   5.741   0.414 -0.6477 -0.0949  0.8441
39946SOL    HW227079  12.615   5.863   0.362 -0.0761 -0.6018 -1.2650
39947SOL     OW27080   9.640  11.596   8.442  0.1408  0.4045 -0.3831
39947SOL    HW127081   9.633  11.589   8.537 -1.8368  0.7456 -0.4670
39947SOL    HW227082   9.663  11.688   8.426  0.7650  0.2785 -0.2430
39948SOL     OW27083  12.334   2.286  11.049  0.3290 -0.1744  0.3747
39948SOL    HW127084  12.257   2.337  11.077  0.1453  1.1590 -2.2792
39948SOL    HW227085  12.308   2.195  11.061 -0.9533  0.2682  1.2233
39949SOL     OW27086   1.674   1.205   9.288 -0.1631 -0.1713 -0.3734
39949SOL    HW127087   1.635   1.291   9.278  0.7528  0.5125  1.3871
39949SOL    HW227088   1.613   1.157   9.345  0.7340  0.3797  1.1174
39950SOL     OW27089   8.625   5.527   4.054  0.0866  0.3879 -0.2769
39950SOL    HW127090   8.577   5.451   4.023  1.4735  0.0081 -1.6072
39950SOL    HW227091   8.557   5.592   4.074 -1.0769 -0.9168  0.1801
39951SOL     OW27092   4.778  11.337   2.922  0.2165 -0.0417 -0.5713
39951SOL    HW127093   4.822  11.254   2.906  0.2000 -0.3708  0.8996
39951SOL    HW227094   4.846  11.394   2.958 -0.4597 -0.5683  1.7606
39952SOL     OW27095   5.633   6.853  12.110 -0.1079 -0.7321 -0.0118
39952SOL    HW127096   5.673   6.772  12.080 -0.2455 -0.7672 -0.0998
39952SOL    HW227097   5.586   6.887  12.034  1.5370  0.4376 -0.5600
39953SOL     OW27098   7.773   2.698   9.338 -0.7677 -0.0453 -0.0523
39953SOL    HW127099   7.824   2.726   9.262  1.6304 -0.5944  1.2450
39953SOL    HW227100   7.713   2.631   9.303 -0.4236  0.4114 -1.6095
39954SOL     OW27101   6.988   4.761   0.784  0.0114 -0.0782 -0.9077
39954SOL    HW127102   6.949   4.821   0.720  1.3472  1.2627 -0.5143
39954SOL    HW227103   7.031   4.818   0.848  1.6233 -1.4383 -0.7060
39955SOL     OW27104   8.748   9.790   4.141 -0.0474  0.0072 -0.4503
39955SOL    HW127105   8.675   9.840   4.178 -0.5943 -0.1050 -1.3605
39955SOL    HW227106   8.768   9.833   4.058  1.1923  0.2717 -0.0480
39956SOL     OW27107   2.649  11.374   0.835 -0.3128 -0.3796  0.5676
39956SOL    HW127108   2.569  11.358   0.886 -1.4395  0.0316 -1.0145
39956SOL    HW227109   2.618  11.390   0.746  1.5716 -0.5388 -0.1534
39957SOL     OW27110  11.125   4.638   1.911  0.0335 -0.0017 -0.6373
39957SOL    HW127111  11.057   4.698   1.943 -0.2812 -0.4591 -0.4325
39957SOL    HW227112  11.171   4.688   1.843  1.2779  1.3010  1.0862
39958SOL     OW27113   1.567  10.221   7.568 -0.0250 -0.5817  0.1989
39958SOL    HW127114   1.480  10.229   7.606 -0.6196 -0.6949 -1.0926
39958SOL    HW227115   1.578  10.128   7.551  0.9857 -0.7742  1.7627
39959SOL     OW27116   9.364   1.040   5.781 -0.2667 -0.4689 -0.4167
39959SOL    HW127117   9.307   1.116   5.792 -2.1064 -1.7988 -0.2625
39959SOL    HW227118   9.411   1.033   5.864 -0.5550  0.1176 -0.1997
39960SOL     OW27119  12.285  10.072   9.831  0.3777  0.4510 -0.2534
39960SOL    HW127120  12.236  10.084   9.913 -0.9891 -1.1220 -0.7798
39960SOL    HW227121  12.335  10.153   9.821 -0.4460  1.2331  1.4472
39961SOL     OW27122   8.370  11.256   1.488  0.4975 -0.0449 -0.1408
39961SOL    HW127123   8.331  11.343   1.484  0.3108 -0.1648 -2.0870
39961SOL    HW227124   8.455  11.270   1.530 -0.8420  0.4780  2.6600
39962SOL     OW27125   7.955   1.220   2.883 -0.2220 -0.4743 -0.1537
39962SOL    HW127126   7.983   1.130   2.897 -0.0143 -0.2722  0.8340
39962SOL    HW227127   7.933   1.252   2.971  1.3668  0.9574 -0.2268
39963SOL     OW27128   7.562   2.639  11.781 -0.1015  0.2403  0.2597
39963SOL    HW127129   7.527   2.709  11.726 -0.2867  1.3651  1.7575
39963SOL    HW227130   7.499   2.567  11.770 -0.2736  0.5301 -0.7785
39964SOL     OW27131   2.513   1.956   9.397 -0.1432  0.6651  0.0702
39964SOL    HW127132   2.433   1.924   9.355  1.1316 -0.3955 -1.6908
39964SOL    HW227133   2.557   2.007   9.330  1.2214  0.2511  0.6040
39965SOL     OW27134   9.586   0.791   1.448  0.0320  0.4790 -0.4862
39965SOL    HW127135   9.636   0.857   1.496 -1.4804  0.9142  0.5677
39965SOL    HW227136   9.587   0.821   1.357  0.3360  1.3309 -0.2101
39966SOL     OW27137   8.333  12.169  11.871  0.5161  0.1090  0.1932
39966SOL    HW127138   8.428  12.167  11.868  0.5247  0.1185  0.4575
39966SOL    HW227139   8.306  12.169  11.779  0.7635 -0.2398  0.1192
39967SOL     OW27140   5.044   3.032   6.133 -0.5279  0.0024  0.1458
39967SOL    HW127141   5.101   3.095   6.177  0.5953 -1.4232  0.8080
39967SOL    HW227142   4.965   3.031   6.186  0.6243 -1.3441  1.9651
39968SOL     OW27143   2.907   4.918   2.253 -0.2196  0.0178  0.4786
39968SOL    HW127144   2.984   4.893   2.204 -0.3632 -1.6304  1.0029
39968SOL    HW227145   2.834   4.879   2.205 -0.9340  2.6390 -0.7414
39969SOL     OW27146   6.271  12.582   0.196  0.3175  0.2419 -0.4488
39969SOL    HW127147   6.349  12.530   0.177 -0.5729 -0.8829 -1.2153
39969SOL    HW227148   6.281  12.607   0.288  1.2791 -0.4053 -0.3542
39970SOL     OW27149   9.166   5.004  10.998 -0.2764  0.3306  0.8180
39970SOL    HW127150   9.139   5.072  11.060  0.7698  0.3357  1.2959
39970SOL    HW227151   9.198   4.933  11.054  2.0328  0.8965  0.3098
39971SOL     OW27152   6.180  11.327   9.806  0.4477 -0.1627  0.1560
39971SOL    HW127153   6.246  11.258   9.817  0.2880 -0.2666  0.4716
39971SOL    HW227154   6.135  11.305   9.724  0.7988 -0.0947 -0.0579
39972SOL     OW27155   0.218  11.582   6.742 -0.0330  0.0172 -0.0822
39972SOL    HW127156   0.298  11.544   6.707 -0.2881  0.0824 -0.7606
39972SOL    HW227157   0.163  11.507   6.764 -0.1389 -0.0183 -0.4661
39973SOL     OW27158   5.085   9.865  10.952 -0.4511 -0.8045  0.0387
39973SOL    HW127159   5.174   9.834  10.939 -0.5450 -0.4728 -1.5807
39973SOL    HW227160   5.071   9.861  11.047  2.6685  2.9131  0.9027
39974SOL     OW27161  12.177   6.481   5.210  0.2558 -0.3867 -0.0260
39974SOL    HW127162  12.181   6.437   5.125  2.7273 -0.5026  0.0759
39974SOL    HW227163  12.147   6.570   5.190  1.0893 -0.3285 -1.0782
39975SOL     OW27164   4.271   5.742   7.498 -0.4383 -0.5493  0.4023
39975SOL    HW127165   4.259   5.656   7.537 -0.7621  0.2836  2.2401
39975SOL    HW227166   4.182   5.775   7.484 -0.3172 -0.5124 -0.3301
39976SOL     OW27167   6.337   9.647   8.143  0.2540 -0.0461  0.2974
39976SOL    HW127168   6.332   9.556   8.172 -1.9331  0.0996  0.5578
39976SOL    HW227169   6.366   9.641   8.051 -0.6685 -1.0677  0.0509
39977SOL     OW27170  11.541   4.667  11.444 -0.1611 -0.7226  0.2867
39977SOL    HW127171  11.532   4.641  11.352 -0.5826  1.6410 -0.4018
39977SOL    HW227172  11.623   4.627  11.472  0.2656 -1.0256 -1.2978
39978SOL     OW27173   1.075   1.554   9.148 -0.4917  0.8406  0.3922
39978SOL    HW127174   1.123   1.587   9.072 -1.0255 -0.7471 -0.6637
39978SOL    HW227175   1.067   1.460   9.133 -0.7587  0.5094  2.3487
39979SOL     OW27176   8.439   7.747   3.346  0.2793 -0.2314 -0.1514
39979SOL    HW127177   8.481   7.761   3.261  0.0150 -1.5959 -0.5370
39979SOL    HW227178   8.381   7.672   3.331  0.9615 -1.1315  1.4826
39980SOL     OW27179   2.316  11.957   6.925  0.2330  0.0175 -0.1841
39980SOL    HW127180   2.337  11.907   6.846  0.2255  1.6492 -1.2892
39980SOL    HW227181   2.257  11.901   6.974  1.2484 -1.5787 -0.6924
39981SOL     OW27182   5.325   2.959   4.277 -0.0641  0.0389  0.4755
39981SOL    HW127183   5.229   2.958   4.287 -0.1043  0.0257  0.1117
39981SOL    HW227184   5.358   2.920   4.358 -0.3878 -0.3625  0.4166
39982SOL     OW27185   4.732  10.593   6.859  0.0444 -0.0853 -0.0270
39982SOL    HW127186   4.793  10.655   6.898  1.0957 -0.0076 -1.7141
39982SOL    HW227187   4.787  10.520   6.830 -0.8368 -0.6392 -0.3490
39983SOL     OW27188   3.076   5.874   3.660 -0.0277 -0.0261 -0.3008
39983SOL    HW127189   3.090   5.861   3.753  1.1343  1.1867 -0.2704
39983SOL    HW227190   3.074   5.786   3.623  0.7338 -0.4842  0.7033
39984SOL     OW27191  11.888   4.564   5.164 -0.3785  0.3637 -0.1723
39984SOL    HW127192  11.916   4.632   5.226  0.4652 -0.6734  0.6384
39984SOL    HW227193  11.906   4.482   5.210  0.6786 -0.4653 -1.9698
39985SOL     OW27194   1.980  11.937   2.622  0.2478 -0.3491  0.1984
39985SOL    HW127195   1.989  11.847   2.655  0.3218  0.0866  1.4254
39985SOL    HW227196   1.898  11.968   2.662  0.5429  0.3263  0.2888
39986SOL     OW27197   7.557   9.737   3.774 -0.0308  0.5013 -0.0390
39986SOL    HW127198   7.507   9.668   3.818  1.8977 -0.4959  0.7226
39986SOL    HW227199   7.493   9.785   3.723 -1.9008 -0.1321  1.5976
39987SOL     OW27200  11.975   9.829   8.075  0.4904  0.2859 -0.1877
39987SOL    HW127201  11.926   9.889   8.019 -2.5618  1.1464  3.0748
39987SOL    HW227202  12.042   9.884   8.116  1.1187  0.2039 -1.0714
39988SOL     OW27203  10.239   0.790   0.750  0.1862  0.4801  0.0628
39988SOL    HW127204  10.179   0.779   0.676 -1.8516  0.1210  1.6809
39988SOL    HW227205  10.289   0.869   0.729 -0.8849  0.8204 -1.3530
39989SOL     OW27206   4.562   0.491   5.769  0.1750 -0.0480 -0.1633
39989SOL    HW127207   4.617   0.413   5.775 -0.1524 -0.3145 -0.5666
39989SOL    HW227208   4.479   0.459   5.733 -0.4520  0.2510  0.9793
39990SOL     OW27209  11.903   2.598   9.499  0.8517  0.3625 -0.0979
39990SOL    HW127210  11.906   2.623   9.407  0.2837 -0.2133 -0.2825
39990SOL    HW227211  11.961   2.660   9.543 -1.8478  3.2589 -0.2496
39991SOL     OW27212   7.531   5.128   5.740  0.2195  0.1187 -0.1683
39991SOL    HW127213   7.457   5.069   5.758  0.9879 -0.8861 -0.2276
39991SOL    HW227214   7.595   5.074   5.694  0.5081  1.2927 -1.2085
39992SOL     OW27215   3.936   0.217   2.368 -0.2591  0.2567  0.3553
39992SOL    HW127216   3.858   0.260   2.334 -0.1638  1.0967  1.1632
39992SOL    HW227217   3.965   0.160   2.296 -0.1460  1.8403 -0.9193
39993SOL     OW27218   6.911   4.241   7.868  0.3395 -0.3328 -0.1583
39993SOL    HW127219   6.956   4.209   7.790  2.2763  0.1775  0.7051
39993SOL    HW227220   6.961   4.318   7.895  0.5228 -1.2456  2.3420
39994SOL     OW27221   2.823  11.580   9.785  0.0037  0.1558  0.3659
39994SOL    HW127222   2.876  11.549   9.712  1.3868  0.9179  0.9948
39994SOL    HW227223   2.877  11.563   9.862 -1.3164 -0.3869  1.1887
39995SOL     OW27224  10.289   8.213   0.347 -0.2953  0.2591  0.4925
39995SOL    HW127225  10.211   8.254   0.311  0.2004  1.2834  0.5515
39995SOL    HW227226  10.310   8.142   0.286 -1.3695 -0.1525  0.5827
39996SOL     OW27227   8.743   7.245   8.540 -0.3082  0.0226 -0.3398
39996SOL    HW127228   8.801   7.274   8.610 -1.4422  0.3623  0.4993
39996SOL    HW227229   8.801   7.208   8.474  0.7346 -1.3266  1.2617
39997SOL     OW27230   8.028   3.003   0.406  0.4881 -0.3051 -0.4896
39997SOL    HW127231   8.120   3.022   0.388  0.7638 -0.9678  0.1497
39997SOL    HW227232   7.982   3.027   0.326  1.3574 -0.9361 -1.1938
39998SOL     OW27233   4.633   7.601   9.971 -0.1600  0.0271 -0.3785
39998SOL    HW127234   4.671   7.614  10.057  0.5835 -1.9624 -0.3643
39998SOL    HW227235   4.538   7.605   9.986 -0.0509 -0.8273  0.6326
39999SOL     OW27236  10.883   0.556   8.733  0.1972  0.1546 -0.3437
39999SOL    HW127237  10.800   0.601   8.742 -0.0704 -0.6092  1.5120
39999SOL    HW227238  10.907   0.566   8.640 -1.5964  0.9616 -0.7502
40000SOL     OW27239  11.450   9.205   2.865 -0.1131 -0.8616 -0.3308
40000SOL    HW127240  11.379   9.268   2.851  1.1856  0.4788 -1.2347
40000SOL    HW227241  11.414   9.142   2.927 -1.6565  0.4976  0.2447
40001SOL     OW27242  11.075  10.338  10.191 -0.0110  0.0803 -0.0047
40001SOL    HW127243  11.167  10.314  10.184 -0.2416 -0.5506 -1.1687
40001SOL    HW227244  11.056  10.334  10.285  1.0527 -0.1149  0.2151
40002SOL     OW27245   3.968  11.666   9.904  0.1155  0.2624  0.2104
40002SOL    HW127246   3.974  11.654   9.809 -1.4925  1.9420 -0.1560
40002SOL    HW227247   3.886  11.714   9.917  1.0769  1.4867  2.3031
40003SOL     OW27248   0.271   0.512   5.738 -0.3813 -0.0302  0.1579
40003SOL    HW127249   0.199   0.509   5.675 -1.0732 -2.2694  0.9408
40003SOL    HW227250   0.343   0.555   5.691 -1.8130  1.1302 -1.0663
40004SOL     OW27251   9.864  10.925   6.553 -0.8115 -0.0357  0.4485
40004SOL    HW127252   9.801  10.966   6.494 -1.2966 -0.5452  0.6146
40004SOL    HW227253   9.949  10.958   6.523 -1.1729  0.9092  0.4260
40005SOL     OW27254   2.255   7.882   3.767  0.1229 -0.4322  0.9065
40005SOL    HW127255   2.202   7.959   3.787  1.8803  0.5496  2.0764
40005SOL    HW227256   2.299   7.861   3.849  3.0828  0.0761 -0.4110
40006SOL     OW27257  10.249   0.297  10.777  0.0834  0.3209  0.4328
40006SOL    HW127258  10.170   0.307  10.724  0.0537  1.3841  0.6514
40006SOL    HW227259  10.216   0.274  10.864  0.0838 -0.3853  0.2562
40007SOL     OW27260  11.024   1.904  10.082 -0.0775 -0.1207  0.1799
40007SOL    HW127261  11.016   1.957  10.162  2.6475  2.2853 -0.9604
40007SOL    HW227262  11.058   1.820  10.112  0.6642  0.6535  1.5990
40008SOL     OW27263   1.911   6.237   8.338 -0.5041 -0.0939 -0.3615
40008SOL    HW127264   1.880   6.235   8.428 -0.6845 -1.8790 -0.4296
40008SOL    HW227265   1.888   6.151   8.302  0.0570  0.3700 -1.9464
40009SOL     OW27266   3.247   1.289   7.893 -0.5794 -0.1007  0.1718
40009SOL    HW127267   3.159   1.301   7.930 -0.6302 -0.4233  0.1601
40009SOL    HW227268   3.306   1.325   7.959 -0.7871  1.3509 -0.4060
40010SOL     OW27269   1.924   4.999   8.552 -0.1672 -0.1396 -0.5201
40010SOL    HW127270   1.976   4.948   8.491  0.4835 -0.0391 -0.0519
40010SOL    HW227271   1.866   5.051   8.496  0.4626 -0.0080 -1.0564
40011SOL     OW27272  10.968   6.095   0.902  0.0123 -0.5120 -0.4549
40011SOL    HW127273  11.061   6.079   0.886  0.0309 -0.6371 -0.2236
40011SOL    HW227274  10.934   6.124   0.817  0.8292  2.3593  0.1208
40012SOL     OW27275   9.287   2.478   4.683 -0.2223  0.3245 -0.0415
40012SOL    HW127276   9.329   2.392   4.686  1.6125  1.1390 -0.8462
40012SOL    HW227277   9.196   2.461   4.708  0.2777 -1.7108  0.5952
40013SOL     OW27278   5.449   7.407  10.027  0.3327  0.2162 -0.2965
40013SOL    HW127279   5.420   7.317  10.041  1.6326 -0.1739 -0.0065
40013SOL    HW227280   5.496   7.430  10.107 -0.6513  1.4399 -0.0434
40014SOL     OW27281   4.722   0.063   2.198 -0.2547  0.4733  0.5427
40014SOL    HW127282   4.683   0.149   2.177  0.1797  0.1677 -1.7784
40014SOL    HW227283   4.753   0.030   2.114  2.3902 -0.6267  1.8603
40015SOL     OW27284   5.600   8.012  10.212  0.0461 -0.0769 -0.0011
40015SOL    HW127285   5.574   8.059  10.292 -0.1707  0.0500 -0.1454
40015SOL    HW227286   5.593   8.077  10.143  0.9611  0.0119 -0.0124
40016SOL     OW27287  11.877  10.072   1.194 -0.6009 -0.6344 -0.3346
40016SOL    HW127288  11.955  10.017   1.194 -1.0957 -1.4212  1.8041
40016SOL    HW227289  11.858  10.087   1.101  0.8405 -2.1822 -0.9225
40017SOL     OW27290   8.100   5.466   6.488 -0.6363 -0.3887 -0.3502
40017SOL    HW127291   8.145   5.547   6.510 -0.7878 -0.5363  0.5523
40017SOL    HW227292   8.083   5.472   6.394 -0.8651  0.7322 -0.2473
40018SOL     OW27293   2.799   6.407   9.629  0.0705  0.2268  0.0513
40018SOL    HW127294   2.734   6.352   9.584  1.3767  0.4822 -2.3188
40018SOL    HW227295   2.749   6.479   9.666 -1.5683 -1.9589  2.4093
40019SOL     OW27296   2.295   1.838   8.360 -0.4972 -0.2461  0.2045
40019SOL    HW127297   2.221   1.805   8.410 -0.0324 -0.3275  0.8579
40019SOL    HW227298   2.287   1.797   8.274 -1.4711  0.1286  0.1080
40020SOL     OW27299   1.741   6.817   0.734 -0.3595  0.0219  0.4401
40020SOL    HW127300   1.730   6.748   0.799 -1.7758 -0.8412 -0.6470
40020SOL    HW227301   1.689   6.890   0.767 -0.6140 -0.2133  0.5669
40021SOL     OW27302  10.196  10.750   7.540  0.6019 -0.3543 -0.4689
40021SOL    HW127303  10.220  10.658   7.533 -0.5018 -0.5902 -1.6075
40021SOL    HW227304  10.141  10.756   7.618  1.5170 -0.4496  0.1942
40022SOL     OW27305   5.670   9.940   7.763  0.4047 -0.3722 -0.7893
40022SOL    HW127306   5.728   9.910   7.692  0.6552  0.0895 -0.7821
40022SOL    HW227307   5.696  10.031   7.778  0.6101 -0.5756  0.1541
40023SOL     OW27308  10.038   7.870  11.200  0.2370 -0.2180 -0.1115
40023SOL    HW127309  10.103   7.922  11.247 -1.2966  1.7792 -0.0969
40023SOL    HW227310  10.090   7.819  11.137  1.7928  1.8896 -0.6576
40024SOL     OW27311   9.755   6.369   6.876 -0.1665  0.1254 -0.3626
40024SOL    HW127312   9.789   6.457   6.891  0.4599 -0.1716  0.0006
40024SOL    HW227313   9.777   6.349   6.786 -0.7712  0.5350 -0.6094
40025SOL     OW27314   5.750  10.193   7.789  0.3015  0.4760 -0.3563
40025SOL    HW127315   5.836  10.187   7.748  1.4926  1.3507  1.8113
40025SOL    HW227316   5.724  10.284   7.775  0.5680  0.6905  0.4629
40026SOL     OW27317   2.534  11.508   0.130  0.3083  0.6620  0.1005
40026SOL    HW127318   2.597  11.436   0.123 -1.0064 -0.6396  0.9581
40026SOL    HW227319   2.588  11.587   0.126  1.7919 -0.3325 -1.0844
40027SOL     OW27320   0.962   0.385   0.730 -0.5011 -0.0828  0.2391
40027SOL    HW127321   0.938   0.308   0.781  0.6669 -0.4726  0.2392
40027SOL    HW227322   1.017   0.436   0.789  2.0570 -1.2237 -1.0031
40028SOL     OW27323   7.893   5.110  12.442  0.4530  0.0797 -0.6849
40028SOL    HW127324   7.960   5.056  12.400  1.5089 -1.0202  2.1755
40028SOL    HW227325   7.940   5.190  12.467 -0.5664  1.4781 -2.8553
40029SOL     OW27326   9.617   4.256  11.648  0.1301  0.3279 -0.0286
40029SOL    HW127327   9.522   4.261  11.648  0.0624 -0.6831  0.0449
40029SOL    HW227328   9.636   4.162  11.642  1.1173  0.4553  0.7935
40030SOL     OW27329   1.089  12.400  10.862 -0.1185  0.5455  0.2729
40030SOL    HW127330   1.120  12.335  10.798 -0.8067 -1.0665  1.5133
40030SOL    HW227331   1.153  12.471  10.856  0.7477 -0.2909 -1.0425
40031SOL     OW27332  12.492   8.555   6.893 -0.7090  0.5313  0.1805
40031SOL    HW127333  12.582   8.585   6.911 -1.2460  0.8332  2.7585
40031SOL    HW227334  12.499   8.460   6.893 -0.2437  0.5574 -0.5819
40032SOL     OW27335  12.038   6.964   5.082  0.0124  0.2430  0.4258
40032SOL    HW127336  12.106   6.954   5.015 -1.0103 -1.6020 -0.4199
40032SOL    HW227337  11.956   6.966   5.033 -0.6598  0.4511  1.5341
40033SOL     OW27338   9.720   5.893   0.817  0.0468  0.0731 -0.3214
40033SOL    HW127339   9.686   5.912   0.905 -0.6451 -2.5175  0.0516
40033SOL    HW227340   9.799   5.946   0.810  0.0509  0.4483  1.8380
40034SOL     OW27341  12.529   0.510   0.292 -0.0015 -0.4022 -0.3953
40034SOL    HW127342  12.496   0.580   0.236  2.2916  1.2601  0.1642
40034SOL    HW227343  12.585   0.458   0.235  0.7037  0.0736 -0.1581
40035SOL     OW27344   3.151   7.233   2.280  0.0951 -0.3718  0.1611
40035SOL    HW127345   3.095   7.304   2.248 -1.4882 -1.8934 -0.5843
40035SOL    HW227346   3.178   7.186   2.201  2.6133  0.3802  0.4848
40036SOL     OW27347   6.856   6.683  10.663  0.2110  0.0620 -0.1096
40036SOL    HW127348   6.858   6.777  10.684  0.2523 -0.3043  1.7721
40036SOL    HW227349   6.938   6.666  10.618  1.4266  0.5107  1.7920
40037SOL     OW27350   2.653   2.366  11.860 -0.1292 -0.0824 -0.4801
40037SOL    HW127351   2.615   2.419  11.930 -2.0754 -0.5853 -1.0985
40037SOL    HW227352   2.669   2.428  11.788 -0.9347 -0.0519 -0.6407
40038SOL     OW27353  10.510   5.727   7.603  0.2195  0.4082  0.4889
40038SOL    HW127354  10.460   5.807   7.590 -0.4437 -0.0508  0.1497
40038SOL    HW227355  10.590   5.739   7.552  0.2659  0.9734  0.6890
40039SOL     OW27356  10.153   3.895   6.697 -0.9654 -0.7580 -0.6735
40039SOL    HW127357  10.133   3.802   6.711  0.6028 -1.0385 -0.1701
40039SOL    HW227358  10.187   3.925   6.781 -2.0002  0.4528 -0.6567
40040SOL     OW27359   2.437   6.909   4.236 -0.4273  0.0083  0.1160
40040SOL    HW127360   2.443   6.910   4.140  1.3623 -0.2389  0.1890
40040SOL    HW227361   2.348   6.880   4.254 -2.2296  3.8909 -1.4476
40041SOL     OW27362   0.574   3.813   0.226 -0.1080  0.7731 -0.0601
40041SOL    HW127363   0.648   3.799   0.166  0.8494  1.3840  0.9270
40041SOL    HW227364   0.502   3.841   0.169  0.6300  0.8623 -0.9804
40042SOL     OW27365   0.201   9.316   3.311 -0.6841  0.3863 -1.0034
40042SOL    HW127366   0.264   9.322   3.239  0.0576  1.1148 -0.3189
40042SOL    HW227367   0.174   9.407   3.327 -2.6079  0.0236 -1.8513
40043SOL     OW27368   8.016   9.610   9.549 -0.2688 -0.1697  0.3440
40043SOL    HW127369   7.923   9.616   9.530 -0.2467  0.2596  0.3732
40043SOL    HW227370   8.058   9.603   9.463 -0.1197  2.3564  0.1275
40044SOL     OW27371  12.690   8.724  11.484 -0.0137  0.2878 -0.1421
40044SOL    HW127372  12.719   8.722  11.576 -0.3802 -1.9025 -0.0260
40044SOL    HW227373  12.764   8.690  11.435 -0.0303  0.9201 -0.6152
40045SOL     OW27374   8.609   1.635  10.182 -0.2313  0.3910 -0.0074
40045SOL    HW127375   8.622   1.663  10.091 -0.1834 -0.6827 -0.3561
40045SOL    HW227376   8.537   1.688  10.214 -1.4792 -0.4447 -1.2726
40046SOL     OW27377   5.406  11.512   0.093 -0.0526  0.0373 -0.4484
40046SOL    HW127378   5.416  11.484   0.002  2.2477  0.6933 -0.4635
40046SOL    HW227379   5.438  11.438   0.145 -0.5352 -0.0028 -0.2045
40047SOL     OW27380   6.318   1.012   3.880 -0.9705 -0.0854  0.3839
40047SOL    HW127381   6.308   1.101   3.849 -0.5864 -0.8586 -2.1495
40047SOL    HW227382   6.371   1.020   3.959  0.2137  1.8111 -0.5335
40048SOL     OW27383  10.612   4.940   2.330 -0.4338 -0.2201  0.0163
40048SOL    HW127384  10.544   4.942   2.263 -1.0424 -1.1379  0.5780
40048SOL    HW227385  10.690   4.909   2.285 -1.0955 -1.8393 -0.0870
40049SOL     OW27386   3.510   0.612  11.303 -0.2157  0.1495 -0.4220
40049SOL    HW127387   3.466   0.694  11.279 -1.4573 -0.9331 -2.0480
40049SOL    HW227388   3.575   0.599  11.235 -0.7718 -0.7617 -0.7903
40050SOL     OW27389   7.354  11.852   7.766 -0.1500  0.2841 -0.3420
40050SOL    HW127390   7.359  11.921   7.700  0.8135  1.6479  1.0817
40050SOL    HW227391   7.334  11.898   7.848  1.8775 -0.8913  0.9198
40051SOL     OW27392   3.857   2.658   2.913  0.0798 -0.0072 -0.0145
40051SOL    HW127393   3.899   2.743   2.925 -0.5349  0.1686  1.0329
40051SOL    HW227394   3.876   2.610   2.993  0.4564 -0.8901 -0.6099
40052SOL     OW27395   0.327   9.945   5.648  0.0803  0.1526 -0.1949
40052SOL    HW127396   0.369  10.020   5.689 -0.2500 -0.1353  0.6848
40052SOL    HW227397   0.308   9.885   5.720 -2.3178  0.4867 -0.4797
40053SOL     OW27398   5.476   3.951   8.058 -1.0270 -1.0226  0.5323
40053SOL    HW127399   5.536   3.931   7.986 -0.5195  0.3430  0.5437
40053SOL    HW227400   5.523   3.924   8.137 -0.4917 -0.1215  0.5287
40054SOL     OW27401   2.598   7.138  10.157  0.2729  0.7118  0.2151
40054SOL    HW127402   2.509   7.149  10.189  0.4163 -1.1629  1.4096
40054SOL    HW227403   2.589   7.081  10.080  0.4668 -0.0464  0.7399
40055SOL     OW27404   6.834   1.692   6.415 -0.3804 -0.0262 -0.5701
40055SOL    HW127405   6.868   1.656   6.496  1.5269 -1.0208 -1.7272
40055SOL    HW227406   6.749   1.649   6.403  0.2523 -1.4488 -0.1251
40056SOL     OW27407   7.039   9.929   8.061 -0.4426 -0.8695 -1.0229
40056SOL    HW127408   6.987   9.920   7.981  1.9223  1.2114 -2.9607
40056SOL    HW227409   7.009  10.010   8.101  0.6153 -0.1630 -1.6338
40057SOL     OW27410  10.806   5.860   0.871  0.1709 -0.0820  0.4495
40057SOL    HW127411  10.817   5.832   0.780  0.9346 -0.1055  0.5457
40057SOL    HW227412  10.843   5.948   0.874 -1.2102  0.5319  0.4086
40058SOL     OW27413   9.585   3.391  12.520 -0.2187 -0.1494  0.0549
40058SOL    HW127414   9.560   3.408  12.611  1.3326  0.8968  0.3262
40058SOL    HW227415   9.513   3.428  12.468  0.2588  1.9867  0.8078
40059SOL     OW27416   5.165  11.262   0.542  0.5426  0.1820 -0.0598
40059SOL    HW127417   5.184  11.326   0.610  1.0563  0.4449 -0.4488
40059SOL    HW227418   5.223  11.285   0.469 -0.0578 -0.0426 -0.6238
40060SOL     OW27419   4.060   8.414   0.270  0.1766 -0.3243  0.2211
40060SOL    HW127420   4.113   8.425   0.350 -0.1437  2.0922  0.1778
40060SOL    HW227421   3.971   8.433   0.298 -0.3399 -1.9459 -0.2344
40061SOL     OW27422  11.490   6.691   5.928  0.5905 -0.2199  0.3153
40061SOL    HW127423  11.526   6.664   6.013  1.3629 -1.9282 -0.5095
40061SOL    HW227424  11.421   6.627   5.910  1.7953 -1.1598 -1.2431
40062SOL     OW27425  12.120   0.252   5.206  0.0560  0.0037  0.4189
40062SOL    HW127426  12.071   0.334   5.211  1.0395  0.7013 -0.7429
40062SOL    HW227427  12.091   0.210   5.126  1.4539  0.5378 -0.4127
40063SOL     OW27428   8.819   3.450   6.218  0.0106 -0.6376 -0.1685
40063SOL    HW127429   8.830   3.510   6.144 -0.4506 -1.9528 -1.3598
40063SOL    HW227430   8.907   3.419   6.237  0.8993  2.9316  2.8234
40064SOL     OW27431   2.289   5.364  11.618  0.0505  0.0946 -0.0371
40064SOL    HW127432   2.331   5.445  11.590 -0.4706  0.1608 -0.6804
40064SOL    HW227433   2.341   5.332  11.691  1.5127 -0.1020 -1.1319
40065SOL     OW27434   6.859   8.285   9.624 -0.2047 -0.0927 -0.0901
40065SOL    HW127435   6.849   8.191   9.611 -0.5005  0.0585 -1.0318
40065SOL    HW227436   6.953   8.298   9.637 -0.1735 -0.5195  0.1358
40066SOL     OW27437  10.803   9.498   7.949 -0.1913 -0.0939 -0.0317
40066SOL    HW127438  10.821   9.425   8.008  0.0702  0.1141  0.1500
40066SOL    HW227439  10.879   9.501   7.891  0.3125  0.6852  0.6357
40067SOL     OW27440   3.150   1.830   6.655  0.2724 -0.4945 -0.1358
40067SOL    HW127441   3.082   1.801   6.717 -1.0146 -1.1434 -1.7819
40067SOL    HW227442   3.180   1.750   6.613  1.6140 -0.1290  0.0887
40068SOL     OW27443  10.427   8.324   9.440  0.7329 -0.4298 -0.0990
40068SOL    HW127444  10.445   8.413   9.471 -0.1609  0.1021 -1.0524
40068SOL    HW227445  10.447   8.327   9.347  1.7926 -1.5543  0.0700
40069SOL     OW27446   7.060  10.040  10.726  0.1734  0.0461 -0.1212
40069SOL    HW127447   6.974  10.026  10.685 -0.0451  1.0245 -0.0236
40069SOL    HW227448   7.094   9.952  10.740 -1.5276 -0.4302  1.3527
40070SOL     OW27449   3.181   2.283   1.090  0.0656  0.2828 -0.4786
40070SOL    HW127450   3.269   2.244   1.086 -0.9343 -2.0647 -2.0679
40070SOL    HW227451   3.169   2.323   1.005 -1.2472 -1.6202 -1.2674
40071SOL     OW27452   0.127  12.270   2.467  0.1502 -0.6428  0.1844
40071SOL    HW127453   0.177  12.323   2.405  1.3027 -2.6182 -0.6791
40071SOL    HW227454   0.048  12.245   2.420  0.8471 -1.8232 -0.4241
40072SOL     OW27455   6.606  11.300   8.612  0.2238  0.0422 -0.2599
40072SOL    HW127456   6.532  11.359   8.597 -0.1595  0.0882  1.6023
40072SOL    HW227457   6.566  11.213   8.619  0.3471  0.0617  0.7138
40073SOL     OW27458   2.793   7.640   5.733 -0.5402 -0.3795  0.5449
40073SOL    HW127459   2.845   7.574   5.688 -0.5885  0.2708 -0.4917
40073SOL    HW227460   2.834   7.723   5.709 -0.9673  0.0228  1.1824
40074SOL     OW27461   2.325   6.942   2.910  0.2953 -0.1911 -0.3685
40074SOL    HW127462   2.269   6.922   2.985  1.6152 -0.6477  0.5144
40074SOL    HW227463   2.329   7.038   2.908 -0.1084 -0.1655 -0.1477
40075SOL     OW27464   3.099   7.300   0.426 -0.9477 -0.1856  0.0387
40075SOL    HW127465   3.038   7.302   0.499 -1.2632 -0.2203 -0.2228
40075SOL    HW227466   3.082   7.381   0.378 -0.9652 -0.3162 -0.1764
40076SOL     OW27467   3.024   2.470   9.526  0.2066 -0.0003  0.1665
40076SOL    HW127468   3.016   2.516   9.609  1.3928 -0.4573  0.5648
40076SOL    HW227469   3.116   2.479   9.502 -0.0113 -0.2928 -0.8550
40077SOL     OW27470   6.776   0.428   0.939  0.1860  0.4846 -0.7635
40077SOL    HW127471   6.680   0.431   0.947 -0.0145 -0.9285 -2.0635
40077SOL    HW227472   6.805   0.386   1.019 -0.5563 -1.4782 -1.4659
40078SOL     OW27473  11.864  11.485   7.914 -0.1515 -0.4612 -0.7992
40078SOL    HW127474  11.838  11.448   7.998 -1.9617 -0.3993 -1.2904
40078SOL    HW227475  11.892  11.575   7.935 -1.8858  0.0198 -0.4000
40079SOL     OW27476   5.007   2.971   7.276  0.3475  0.1645 -0.3248
40079SOL    HW127477   4.988   2.951   7.368  1.9642 -0.6303 -0.1289
40079SOL    HW227478   5.067   3.045   7.279 -1.3653  1.6370 -0.8691
40080SOL     OW27479  10.709   4.640   2.905 -0.5329 -0.3717  0.0957
40080SOL    HW127480  10.665   4.567   2.949  0.9269  0.2822  2.8890
40080SOL    HW227481  10.782   4.600   2.859 -1.7308 -1.0011 -1.3624
40081SOL     OW27482   8.114   7.887   4.963  0.2856 -0.2916 -0.1750
40081SOL    HW127483   8.198   7.865   5.003 -0.1862 -0.0049  0.9927
40081SOL    HW227484   8.073   7.802   4.945  1.1137 -0.4569 -1.4390
40082SOL     OW27485   7.026  10.000   9.777  0.1051  0.0560  0.6207
40082SOL    HW127486   7.058   9.916   9.811  0.1819 -1.0783 -2.0121
40082SOL    HW227487   6.979   9.977   9.697 -0.3207  2.4974  0.0959
40083SOL     OW27488   5.923  12.400   8.707  0.2668  0.2194  0.1421
40083SOL    HW127489   5.859  12.471   8.711 -0.2966 -0.3051  0.8229
40083SOL    HW227490   5.976  12.411   8.786  2.7206  2.1656 -1.6427
40084SOL     OW27491   2.045  11.725   0.950 -0.1285 -0.3316 -0.5787
40084SOL    HW127492   2.031  11.638   0.912  1.5767 -0.3283 -1.2956
40084SOL    HW227493   2.096  11.772   0.884  0.5141  0.6179  0.5594
40085SOL     OW27494   1.428   0.011   3.253 -0.4321 -0.9425 -0.5263
40085SOL    HW127495   1.470   0.001   3.338  1.6836 -1.3283 -1.5449
40085SOL    HW227496   1.395   0.101   3.252 -1.8326 -1.3878  1.2177
40086SOL     OW27497   7.424   2.017  10.222  0.4308 -0.1437  0.0830
40086SOL    HW127498   7.516   2.047  10.219  0.2507  0.5699  0.9864
40086SOL    HW227499   7.421   1.957  10.296  0.2964 -0.6500 -0.3311
40087SOL     OW27500   0.039   3.723   1.457  0.1053 -0.4795 -0.0201
40087SOL    HW127501   0.074   3.635   1.449 -0.4606 -0.5853 -1.8712
40087SOL    HW227502   0.112   3.776   1.490  0.8207 -1.3871 -0.1148
40088SOL     OW27503   4.178   9.973   4.374 -0.0474  0.3589 -0.0173
40088SOL    HW127504   4.222   9.913   4.435 -1.1365  0.2099  0.6460
40088SOL    HW227505   4.146  10.044   4.430  1.5075  1.7873 -0.8303
40089SOL     OW27506   6.425  10.397   5.790  0.4322  0.2293 -0.0526
40089SOL    HW127507   6.408  10.491   5.791 -0.0216  0.1594 -0.5762
40089SOL    HW227508   6.443  10.377   5.698 -1.4641 -0.5173 -0.2984
40090SOL     OW27509   3.920   6.984   2.204 -0.4556  0.2464  0.1162
40090SOL    HW127510   3.966   6.939   2.274  1.3580  0.0509 -1.1223
40090SOL    HW227511   3.829   6.955   2.212 -0.0987 -0.5044  1.7697
40091SOL     OW27512   4.485   9.655  10.459 -0.0090  0.1180  0.1287
40091SOL    HW127513   4.502   9.659  10.553  0.6172 -0.5259  0.0523
40091SOL    HW227514   4.439   9.737  10.439 -0.0872  0.2871  0.9808
40092SOL     OW27515   3.822   7.891   9.632  0.2463  0.6620 -0.0421
40092SOL    HW127516   3.821   7.809   9.682  0.1639  0.4670 -0.3661
40092SOL    HW227517   3.869   7.870   9.552  0.0306  0.8732 -0.2250
40093SOL     OW27518   8.695   7.309   7.607 -0.0250 -0.4054  0.1984
40093SOL    HW127519   8.720   7.233   7.555  1.2186 -0.3269  0.6554
40093SOL    HW227520   8.612   7.338   7.569  1.1041 -0.0056 -2.1183
40094SOL     OW27521   9.471   6.630   4.267  0.4671  0.6989  0.1958
40094SOL    HW127522   9.400   6.624   4.203  1.8495 -0.6704 -1.3121
40094SOL    HW227523   9.522   6.707   4.240  0.7423  0.4391 -0.0359
40095SOL     OW27524  10.583  10.700  12.438 -0.5022  0.6629 -0.0965
40095SOL    HW127525  10.667  10.658  12.419  0.5122  3.1433 -1.5590
40095SOL    HW227526  10.527  10.676  12.365 -0.1001  1.3659 -0.6453
40096SOL     OW27527   5.902  12.509   0.023  0.6428 -0.0143 -0.1715
40096SOL    HW127528   5.876  12.599   0.045  1.2266  0.4577 -1.2842
40096SOL    HW227529   5.835  12.454   0.062  0.0909  0.9332  0.2543
40097SOL     OW27530   5.926   0.074   8.014  0.2673 -0.2292 -0.4462
40097SOL    HW127531   5.992   0.113   8.072  0.1184 -0.2867 -0.2358
40097SOL    HW227532   5.884   0.007   8.068  0.0422 -0.1995 -0.5841
40098SOL     OW27533  10.996   3.635   4.264  0.3341 -0.8989 -0.1701
40098SOL    HW127534  11.082   3.635   4.222  1.1860  1.9132  1.3400
40098SOL    HW227535  10.978   3.542   4.281  4.5093 -1.5271  2.1837
40099SOL     OW27536  11.847   8.585  10.887  0.1111 -0.0921  0.0024
40099SOL    HW127537  11.837   8.494  10.915  0.1559 -0.1585 -0.2006
40099SOL    HW227538  11.758   8.620  10.888  0.0535 -0.2334 -0.2469
40100SOL     OW27539   7.261   8.702  10.012  0.3485  0.5123 -0.0292
40100SOL    HW127540   7.235   8.701   9.920 -0.1254  2.5002  0.0416
40100SOL    HW227541   7.195   8.757  10.055  0.4388 -0.5470  1.5612
40101SOL     OW27542   6.967   9.985   2.169 -0.3692 -0.7884 -1.3555
40101SOL    HW127543   7.042  10.002   2.226 -1.7242 -1.2674  0.6802
40101SOL    HW227544   6.930  10.072   2.152 -0.8634 -0.7393 -0.1428
40102SOL     OW27545   1.384   2.951   5.194 -0.2662  0.7645 -0.8354
40102SOL    HW127546   1.347   2.863   5.185  1.9618 -0.4580  0.8941
40102SOL    HW227547   1.327   3.006   5.140 -3.1384 -1.2944 -0.1749
40103SOL     OW27548  12.111   0.264  12.203  0.2062 -0.3433  0.1862
40103SOL    HW127549  12.104   0.208  12.280 -1.4935 -1.2155 -0.5365
40103SOL    HW227550  12.157   0.210  12.138  0.0253 -0.2943  0.0152
40104SOL     OW27551  10.810   2.993   5.076  0.5184 -0.5630  0.3961
40104SOL    HW127552  10.783   2.983   5.168  0.3506  1.9280  0.6950
40104SOL    HW227553  10.841   3.083   5.071 -1.4907  0.0744 -2.4982
40105SOL     OW27554   6.029   3.242   9.222  0.4867  0.0369  0.4412
40105SOL    HW127555   6.056   3.331   9.200  0.8012  0.1117  1.1210
40105SOL    HW227556   6.039   3.193   9.140  2.4140  0.1347  0.5742
40106SOL     OW27557   1.772   6.693  12.589  0.0573 -0.3938  0.0229
40106SOL    HW127558   1.825   6.643  12.528 -1.8967 -1.5390 -0.8265
40106SOL    HW227559   1.775   6.783  12.556  1.5666 -0.3833  0.1182
40107SOL     OW27560   2.766   1.666   4.995 -0.3784  0.0920 -0.1177
40107SOL    HW127561   2.721   1.692   5.075 -1.4779  1.6981 -1.2046
40107SOL    HW227562   2.842   1.724   4.991 -0.5745  0.3274 -0.4621
40108SOL     OW27563  12.140   2.602   7.265 -0.1541  0.0845 -0.0499
40108SOL    HW127564  12.194   2.676   7.238  0.8678 -0.8670 -0.6697
40108SOL    HW227565  12.173   2.527   7.215 -0.2851 -1.0805  1.5170
40109SOL     OW27566  11.471   6.541  12.254 -0.2846 -0.3832  0.0498
40109SOL    HW127567  11.522   6.487  12.193 -2.1151 -0.6221 -1.3309
40109SOL    HW227568  11.436   6.478  12.318  0.8213 -0.2604  0.8088
40110SOL     OW27569   4.974   2.052  11.701 -0.0797  0.1378  0.1246
40110SOL    HW127570   5.010   2.029  11.787 -0.7082 -1.6438 -0.0523
40110SOL    HW227571   5.039   2.020  11.639 -0.1274  0.4542 -0.0883
40111SOL     OW27572   4.150   8.779   7.996 -0.3037 -0.5431  0.5452
40111SOL    HW127573   4.115   8.867   8.003  1.0233 -0.0288  1.0752
40111SOL    HW227574   4.080   8.728   7.956 -0.3051  1.2475 -1.9552
40112SOL     OW27575   5.995  11.260   5.724  0.2548  0.0700 -0.0186
40112SOL    HW127576   6.019  11.333   5.781 -1.4991  1.0695 -0.4658
40112SOL    HW227577   5.965  11.192   5.784 -0.4256  0.6592  0.3357
40113SOL     OW27578   4.678   1.165   8.324  0.3184 -0.1098 -0.4654
40113SOL    HW127579   4.650   1.191   8.411 -1.7203 -1.5044 -0.6347
40113SOL    HW227580   4.648   1.075   8.315  0.8166 -0.1200 -2.4716
40114SOL     OW27581   2.947   6.302   2.075  0.5684 -0.3940 -0.2086
40114SOL    HW127582   2.950   6.362   2.150  1.5607  0.3019 -0.7903
40114SOL    HW227583   2.863   6.321   2.033  0.1828 -0.5087  0.4937
40115SOL     OW27584  12.175   7.471   0.294  0.4130 -0.1736 -0.1633
40115SOL    HW127585  12.113   7.410   0.255  0.4733  0.7597 -1.8093
40115SOL    HW227586  12.119   7.539   0.333  0.3578  0.4547 -1.2913
40116SOL     OW27587   7.275   8.800   5.288 -0.1021 -0.1203  0.3571
40116SOL    HW127588   7.219   8.805   5.210  1.3908  0.6324 -0.7155
40116SOL    HW227589   7.350   8.855   5.266  0.5556 -0.2564  2.1773
40117SOL     OW27590   7.386   4.305   8.919 -0.5017 -0.3806  0.2279
40117SOL    HW127591   7.371   4.309   9.014 -1.4197 -0.8447  0.1197
40117SOL    HW227592   7.332   4.231   8.890  1.2119 -1.4180 -0.4076
40118SOL     OW27593   0.314  11.565   9.192  0.0782  0.3616 -0.4127
40118SOL    HW127594   0.350  11.646   9.155  0.8163  0.1100 -0.2614
40118SOL    HW227595   0.358  11.556   9.276 -0.3657  0.0568 -0.2109
40119SOL     OW27596   6.450  11.308   9.125 -0.3610 -0.0376 -0.1996
40119SOL    HW127597   6.522  11.256   9.089 -0.7188 -0.2856 -0.5624
40119SOL    HW227598   6.392  11.324   9.051 -0.8735 -0.1648  0.1638
40120SOL     OW27599  12.593   6.391   3.077 -0.5495  0.1821  0.6165
40120SOL    HW127600  12.551   6.463   3.125  0.4737 -0.1307  2.0508
40120SOL    HW227601  12.538   6.315   3.097 -0.3069  0.1169  1.0570
40121SOL     OW27602  10.117   6.314   2.680  0.3168 -0.0816  0.4420
40121SOL    HW127603  10.143   6.226   2.708  1.0096 -0.4231 -1.2043
40121SOL    HW227604  10.042   6.301   2.623  1.1784  0.2714 -0.8000
40122SOL     OW27605   0.281   0.320   0.219  0.0739 -0.1639 -0.0439
40122SOL    HW127606   0.323   0.235   0.208  1.7121  0.4069  1.3928
40122SOL    HW227607   0.251   0.320   0.310 -2.5580 -0.2917 -0.8463
40123SOL     OW27608   7.842   1.240   0.172 -0.1971  0.6004  0.2845
40123SOL    HW127609   7.937   1.228   0.161 -0.2204  0.5233  0.1776
40123SOL    HW227610   7.834   1.328   0.210  0.1222 -0.5146  3.1872
40124SOL     OW27611  10.092   6.968  12.094  0.0538 -0.5681 -0.6151
40124SOL    HW127612  10.094   6.948  12.188 -0.1944 -1.7021 -0.8426
40124SOL    HW227613   9.999   6.980  12.074  0.0879 -0.5472 -0.7611
40125SOL     OW27614  10.712   7.696   8.344 -0.1435 -0.3798  0.2302
40125SOL    HW127615  10.772   7.622   8.334 -0.9518 -1.2366  1.3628
40125SOL    HW227616  10.755   7.755   8.405  0.2269 -0.2246 -0.1797
40126SOL     OW27617   0.968   1.666   2.757 -0.3848  0.2111  0.9290
40126SOL    HW127618   0.935   1.602   2.821 -2.1297 -0.6069 -0.6902
40126SOL    HW227619   0.904   1.664   2.686  0.6518  2.2496 -0.1457
40127SOL     OW27620   3.254   8.010   0.800 -0.1817  0.5019 -0.2587
40127SOL    HW127621   3.162   8.011   0.827  0.1109 -1.9033  1.0141
40127SOL    HW227622   3.302   8.042   0.876  0.1307  1.1600 -0.7122
40128SOL     OW27623   6.063   4.508   6.992 -0.4350  0.1132 -0.0661
40128SOL    HW127624   6.107   4.451   6.929  2.7508  0.2872  1.7755
40128SOL    HW227625   6.069   4.596   6.954 -1.8390 -0.2171 -1.1177
40129SOL     OW27626  11.193   9.625  11.247  0.4466  0.6242  0.3510
40129SOL    HW127627  11.212   9.673  11.328  0.2641  3.1986 -1.0317
40129SOL    HW227628  11.271   9.638  11.193 -0.7079  1.8657 -1.1303
40130SOL     OW27629   5.382   6.584   1.238 -0.1846 -0.0309 -0.0305
40130SOL    HW127630   5.290   6.567   1.256 -0.2285  0.5863  0.3791
40130SOL    HW227631   5.429   6.520   1.292 -0.3635  0.3103  0.5434
40131SOL     OW27632   1.422   1.834   4.475 -0.6536 -0.4387  0.2090
40131SOL    HW127633   1.378   1.763   4.523 -1.3404 -1.7094 -2.1241
40131SOL    HW227634   1.514   1.809   4.477 -0.6745 -0.4909  0.8193
40132SOL     OW27635   5.388   2.070   9.160 -0.2443 -0.1418  0.0015
40132SOL    HW127636   5.418   2.125   9.087  1.1964  0.0152  0.6702
40132SOL    HW227637   5.428   2.110   9.238 -0.9825 -0.8625  0.7676
40133SOL     OW27638  11.390   3.602   3.326  0.3403 -0.3922  0.4601
40133SOL    HW127639  11.414   3.576   3.415  1.6453 -0.3862  0.1160
40133SOL    HW227640  11.436   3.541   3.269 -2.5725 -2.1418 -0.2187
40134SOL     OW27641   9.755   0.340   3.071 -0.4589 -0.0465 -0.2721
40134SOL    HW127642   9.824   0.298   3.123 -2.0347  0.4366  2.3983
40134SOL    HW227643   9.782   0.432   3.066 -0.6058  0.0333  0.2945
40135SOL     OW27644   9.846   6.919   0.610  0.3620 -0.1904  0.1023
40135SOL    HW127645   9.921   6.859   0.601  1.7403  1.1497  1.9375
40135SOL    HW227646   9.791   6.878   0.678  0.2121 -0.3994 -0.1418
40136SOL     OW27647  10.001   4.938   9.741 -0.9264  0.0233 -0.5436
40136SOL    HW127648  10.049   4.856   9.750  0.1954  0.7348  0.1910
40136SOL    HW227649  10.057   4.992   9.685 -0.2884  1.2540  1.1885
40137SOL     OW27650   1.166   2.799   7.376  0.0201 -0.3396 -0.1565
40137SOL    HW127651   1.199   2.761   7.457  1.2841 -0.0250 -0.4972
40137SOL    HW227652   1.099   2.862   7.403 -0.1319 -0.8058  0.5787
40138SOL     OW27653  12.428   7.120   8.181 -0.4968 -0.2005 -0.1725
40138SOL    HW127654  12.418   7.025   8.184  0.1325 -0.2613  0.2638
40138SOL    HW227655  12.350   7.154   8.225 -0.2645 -0.5543  0.5330
40139SOL     OW27656  12.518  12.287   7.870  0.0129 -0.3830 -0.3114
40139SOL    HW127657  12.558  12.322   7.949 -1.9473 -1.0430  1.0602
40139SOL    HW227658  12.591  12.254   7.818  1.5701  2.0965  0.1223
40140SOL     OW27659  10.843   9.422   8.645  0.2121  0.3282 -0.1966
40140SOL    HW127660  10.859   9.400   8.736  1.3247  1.0143 -0.2091
40140SOL    HW227661  10.928   9.413   8.602 -0.3150 -0.0935 -1.1979
40141SOL     OW27662   1.893   9.038   5.071  0.4122 -0.1567  0.4253
40141SOL    HW127663   1.933   8.973   5.130 -0.4815 -0.8366  0.3045
40141SOL    HW227664   1.852   9.101   5.130 -0.8759 -1.0807  0.5859
40142SOL     OW27665   5.163   4.733   8.908 -0.6043  0.0523 -0.2063
40142SOL    HW127666   5.099   4.801   8.930  0.8352  1.6861 -0.8132
40142SOL    HW227667   5.241   4.782   8.883  1.4550 -1.8550  2.0441
40143SOL     OW27668  12.607   9.134  10.383 -0.5107 -0.5120 -0.3404
40143SOL    HW127669  12.511   9.131  10.387 -0.5433 -1.4678 -1.3163
40143SOL    HW227670  12.627   9.143  10.290  0.3543 -0.2044 -0.1363
40144SOL     OW27671  10.900   2.617   6.043 -0.2401  0.1390 -0.3766
40144SOL    HW127672  10.900   2.527   6.009 -0.1026  0.5762 -1.5826
40144SOL    HW227673  10.852   2.667   5.977  0.6559  1.1516 -0.2840
40145SOL     OW27674   9.459   9.813   4.500 -0.2121  0.2120  0.0287
40145SOL    HW127675   9.458   9.837   4.593 -2.7475 -0.1363  0.1729
40145SOL    HW227676   9.372   9.775   4.485  0.1536  0.2466 -2.4974
40146SOL     OW27677   6.894  11.881   3.466 -0.7189 -0.1642  0.6871
40146SOL    HW127678   6.829  11.841   3.524 -1.8287  2.2833  1.3020
40146SOL    HW227679   6.891  11.974   3.489  0.7880  0.4851 -1.4562
40147SOL     OW27680   5.295   8.126   7.025  0.0791 -0.3970  0.0924
40147SOL    HW127681   5.219   8.087   7.069  1.3017 -2.0762  0.8085
40147SOL    HW227682   5.276   8.118   6.932 -0.8742 -0.2171  0.2564
40148SOL     OW27683   9.542   9.053   8.065 -0.6062  0.3367 -0.2375
40148SOL    HW127684   9.449   9.066   8.081 -0.9267 -0.5512 -1.2185
40148SOL    HW227685   9.582   9.138   8.084 -1.5725  0.6561  0.4472
40149SOL     OW27686  11.613   6.340   6.920  0.2836  0.1997  0.7581
40149SOL    HW127687  11.660   6.366   6.841 -1.8672  0.2126 -0.5988
40149SOL    HW227688  11.650   6.394   6.989  1.5291  0.9195 -0.4274
40150SOL     OW27689   4.517   4.862   1.793 -0.0735  0.8406 -0.3759
40150SOL    HW127690   4.548   4.928   1.855  1.4452  0.7179 -0.9481
40150SOL    HW227691   4.558   4.886   1.710 -0.8346  0.1206 -0.9823
40151SOL     OW27692   1.845   1.242   4.457 -0.4420  0.2209  0.6812
40151SOL    HW127693   1.930   1.223   4.498 -0.3020 -1.9645 -0.4437
40151SOL    HW227694   1.780   1.222   4.525 -0.1180  0.3370  1.0303
40152SOL     OW27695   2.975  12.509   9.558  0.4147  0.2157 -0.1271
40152SOL    HW127696   2.989  12.555   9.641 -0.7751 -0.7477  0.6436
40152SOL    HW227697   2.973  12.579   9.492  2.8163  0.8791  0.4004
40153SOL     OW27698   5.879   3.135  11.372  0.5049  0.5172 -0.5063
40153SOL    HW127699   5.932   3.202  11.415  0.6760  0.4821 -0.6613
40153SOL    HW227700   5.884   3.155  11.279 -0.0233  0.7031 -0.4971
40154SOL     OW27701   8.835  11.537   2.884 -0.1602  0.8673 -0.0565
40154SOL    HW127702   8.860  11.615   2.933  0.5588  0.5730  0.0536
40154SOL    HW227703   8.766  11.567   2.825 -0.8388  1.2894  0.9286
40155SOL     OW27704   1.142   2.393  12.505  0.1209 -0.2640  0.2290
40155SOL    HW127705   1.134   2.348  12.589  0.9760  0.6578  0.8208
40155SOL    HW227706   1.185   2.329  12.448  0.8337 -0.4008  0.9042
40156SOL     OW27707  12.221   4.856   1.046  0.4042  0.1102 -0.7641
40156SOL    HW127708  12.137   4.901   1.043  0.7344  0.9135  1.0495
40156SOL    HW227709  12.218   4.795   0.973 -1.7461  0.1209 -0.7269
40157SOL     OW27710   3.932   0.181   8.557 -0.1742  0.3215 -0.6817
40157SOL    HW127711   3.923   0.155   8.466 -0.7738 -0.8437 -0.3077
40157SOL    HW227712   3.851   0.230   8.576 -1.0419 -1.2146 -0.2267
40158SOL     OW27713   0.545   1.137   4.377 -0.4474  0.0580 -0.1341
40158SOL    HW127714   0.600   1.192   4.432 -0.9941 -0.0749  0.5511
40158SOL    HW227715   0.585   1.143   4.290 -0.0162  0.8616  0.1093
40159SOL     OW27716   4.921   6.554   8.245 -0.7416  0.1300 -0.0144
40159SOL    HW127717   4.900   6.516   8.160  1.1266  0.4469 -0.6679
40159SOL    HW227718   5.004   6.514   8.269 -1.5159 -0.3981  1.9733
40160SOL     OW27719   5.077   1.973  11.943  0.0422 -0.3802 -0.4908
40160SOL    HW127720   5.165   2.006  11.959 -0.0557 -0.2050 -0.3110
40160SOL    HW227721   5.027   2.000  12.020 -0.7294  1.4863 -1.5775
40161SOL     OW27722  11.531   5.485   0.754 -0.2999 -0.0510  0.0015
40161SOL    HW127723  11.507   5.392   0.760 -0.0244 -0.4501 -3.1396
40161SOL    HW227724  11.449   5.529   0.731 -0.1875  0.2660  0.2147
40162SOL     OW27725  10.036   3.387   6.356 -0.2371 -0.0112  0.4363
40162SOL    HW127726   9.954   3.348   6.386  1.3897 -2.7064  1.7343
40162SOL    HW227727  10.103   3.350   6.413  1.8624  2.7392  0.0063
40163SOL     OW27728   2.818   9.373   5.258  0.5635  0.0618  0.0288
40163SOL    HW127729   2.878   9.415   5.195 -0.4529  0.6137 -0.5935
40163SOL    HW227730   2.854   9.285   5.269  1.0423  0.1135 -0.9496
40164SOL     OW27731   6.096   5.330   1.929 -0.3690 -0.8333 -0.3076
40164SOL    HW127732   6.029   5.389   1.895 -1.1141 -2.4946 -1.8924
40164SOL    HW227733   6.081   5.330   2.024 -1.2378  0.4390 -0.4134
40165SOL     OW27734  12.004   9.375   9.575 -0.1617 -0.3053 -0.1709
40165SOL    HW127735  12.001   9.337   9.487 -1.1801  1.4935 -0.9682
40165SOL    HW227736  12.072   9.442   9.569  0.7707 -1.1140  0.8649
40166SOL     OW27737   6.741   4.505   5.361 -0.1380  0.1078 -0.0518
40166SOL    HW127738   6.734   4.526   5.454  0.3403 -1.1385  0.2886
40166SOL    HW227739   6.808   4.436   5.357 -0.8988 -0.5983 -1.1921
40167SOL     OW27740   6.030   6.903   3.292  0.0792 -0.6843  0.2071
40167SOL    HW127741   6.036   6.852   3.373 -0.4227 -1.1318 -0.0292
40167SOL    HW227742   6.120   6.908   3.260  0.1301 -1.4626  0.2123
40168SOL     OW27743   8.529   2.750   9.668 -0.4990 -0.0874 -0.5655
40168SOL    HW127744   8.476   2.830   9.664  0.4764  0.5484 -1.3755
40168SOL    HW227745   8.538   2.731   9.761  0.3013  1.4962 -0.2764
40169SOL     OW27746   2.413   9.569   7.715 -0.1623  0.1189  0.1443
40169SOL    HW127747   2.385   9.501   7.777 -0.5818 -0.8997 -1.1093
40169SOL    HW227748   2.490   9.531   7.672 -1.7563 -0.6492 -2.2358
40170SOL     OW27749   4.366   1.115  11.605  0.0688 -0.6269  0.4432
40170SOL    HW127750   4.284   1.121  11.656  0.1027  3.3084  0.2789
40170SOL    HW227751   4.425   1.066  11.662 -1.6059 -1.3038  1.6920
40171SOL     OW27752  10.588   5.617   6.554  0.2537 -0.2742  0.2241
40171SOL    HW127753  10.667   5.650   6.597 -0.5093 -0.5106  1.8671
40171SOL    HW227754  10.542   5.695   6.524  1.4101 -0.1526 -1.4045
40172SOL     OW27755   5.903   2.555   9.778  0.1628  0.1328  0.2986
40172SOL    HW127756   5.827   2.541   9.834  0.7925 -0.3383  1.0500
40172SOL    HW227757   5.866   2.568   9.690 -0.7514 -0.6395  0.5535
40173SOL     OW27758   1.658   4.247   1.670 -0.2235 -0.2497  0.1691
40173SOL    HW127759   1.615   4.285   1.594  0.4856 -0.5926 -0.4109
40173SOL    HW227760   1.649   4.314   1.738  0.7620  0.8500 -0.7493
40174SOL     OW27761   2.652   6.372   5.951 -0.2663  0.4216  0.3952
40174SOL    HW127762   2.573   6.423   5.935  0.1526  0.9763  0.0394
40174SOL    HW227763   2.621   6.282   5.962 -0.9538  0.6554  0.3970
40175SOL     OW27764   0.588  10.895  10.337 -0.4803 -0.0096 -0.0442
40175SOL    HW127765   0.656  10.957  10.310 -0.3241 -1.1716 -2.5617
40175SOL    HW227766   0.629  10.843  10.406  0.5386  0.4744 -0.2639
40176SOL     OW27767   5.011  11.675   6.087  0.0355 -0.5225  0.6702
40176SOL    HW127768   5.050  11.692   6.172  0.9085 -1.5726  0.5025
40176SOL    HW227769   4.922  11.644   6.106 -0.0430 -0.0034  1.1543
40177SOL     OW27770   3.120   3.230   1.440  0.2027  0.0285 -0.2055
40177SOL    HW127771   3.123   3.246   1.534 -1.0562  0.9275 -0.2927
40177SOL    HW227772   3.079   3.308   1.403 -0.4896 -0.8429 -1.3559
40178SOL     OW27773   0.042   8.847   4.622  0.1735 -0.2108 -0.0180
40178SOL    HW127774   0.004   8.929   4.589 -0.6996 -0.6741 -0.1894
40178SOL    HW227775  -0.034   8.794   4.648  0.7265 -0.9954  0.0252
40179SOL     OW27776   0.443   7.758   3.311 -0.0569  0.3641  0.4637
40179SOL    HW127777   0.519   7.752   3.368 -1.0522 -0.9142  1.7237
40179SOL    HW227778   0.442   7.676   3.262  0.0479  0.8918 -0.4415
40180SOL     OW27779   4.534   1.640  12.268 -0.0326  0.0151 -0.4593
40180SOL    HW127780   4.463   1.621  12.330 -0.2491  0.9094 -0.4164
40180SOL    HW227781   4.611   1.651  12.323  0.3577 -1.8094 -0.5664
40181SOL     OW27782   7.393   7.284  10.472 -0.0388  0.3899  0.4803
40181SOL    HW127783   7.399   7.379  10.482  1.1572  0.3158  0.5782
40181SOL    HW227784   7.408   7.249  10.560  3.1861  0.0147 -0.0996
40182SOL     OW27785  10.979  11.476   4.076  0.6740  0.0939  0.0745
40182SOL    HW127786  10.959  11.399   4.022 -0.3261 -0.6268  1.4118
40182SOL    HW227787  10.940  11.456   4.161 -0.7372  2.6312  0.1190
40183SOL     OW27788  10.869   0.754   0.825 -0.2197  1.1046 -0.2523
40183SOL    HW127789  10.774   0.758   0.833 -0.3167 -0.1123 -0.6455
40183SOL    HW227790  10.892   0.666   0.855  0.8107  1.4646  0.0695
40184SOL     OW27791   5.114   2.228   7.541 -0.3619  0.1781 -0.3115
40184SOL    HW127792   5.195   2.179   7.529  0.7488  1.4787  1.4145
40184SOL    HW227793   5.142   2.310   7.582 -2.5502  0.6943  0.2412
40185SOL     OW27794   7.338   0.024  11.835 -0.6230  0.2477 -0.1806
40185SOL    HW127795   7.414   0.073  11.865  0.8342 -1.3217 -1.1353
40185SOL    HW227796   7.301  -0.014  11.915 -0.2818  0.8280  0.2615
40186SOL     OW27797   3.787  10.946   5.059 -0.4788 -0.0809  0.3909
40186SOL    HW127798   3.771  10.947   4.965 -2.7758 -1.0934  0.7106
40186SOL    HW227799   3.769  10.856   5.086  1.4102 -0.1577  1.6508
40187SOL     OW27800   5.162   2.117   3.638 -0.3253 -0.4158 -0.7860
40187SOL    HW127801   5.225   2.097   3.569  0.0424 -1.5408 -0.1462
40187SOL    HW227802   5.199   2.193   3.682  0.8996 -1.3910 -0.0682
40188SOL     OW27803   1.934   2.703   2.488 -0.3640 -0.4822  0.0675
40188SOL    HW127804   1.914   2.614   2.461 -0.9231 -0.5977  0.8200
40188SOL    HW227805   1.854   2.734   2.531  0.0067  0.1869  0.3025
40189SOL     OW27806   7.577   9.964   8.680 -0.3822  0.0108  0.0946
40189SOL    HW127807   7.598   9.958   8.774 -1.1622  1.2799  0.3681
40189SOL    HW227808   7.652   9.923   8.637  0.6739  0.6725  1.2261
40190SOL     OW27809   3.563   9.690   5.189  0.1837  0.2339 -0.1897
40190SOL    HW127810   3.551   9.637   5.268 -0.1520  2.5954  1.4333
40190SOL    HW227811   3.575   9.626   5.119  0.9391 -1.9606  1.8162
40191SOL     OW27812   3.966   3.621  12.325  0.3532 -0.1396 -0.1089
40191SOL    HW127813   4.056   3.651  12.312  0.4215 -0.5474 -0.5860
40191SOL    HW227814   3.967   3.579  12.411  0.6118 -0.1219 -0.1009
40192SOL     OW27815   9.243   4.508   7.675 -0.2897  0.5553  0.1430
40192SOL    HW127816   9.201   4.471   7.753 -0.5838  1.0158  0.2049
40192SOL    HW227817   9.192   4.474   7.602 -0.6399  0.9364  0.2070
40193SOL     OW27818   7.875   4.964   4.754  0.0133 -0.0310 -0.3943
40193SOL    HW127819   7.848   4.979   4.663 -0.0695 -0.0932 -0.3809
40193SOL    HW227820   7.911   4.875   4.753 -0.2541 -0.1430 -0.3083
40194SOL     OW27821   4.926   4.924   5.707 -0.6584 -0.6476  0.4380
40194SOL    HW127822   4.984   4.968   5.770 -1.9387  0.3478  0.9520
40194SOL    HW227823   4.968   4.839   5.691  0.4698 -0.3113  1.4805
40195SOL     OW27824   3.348   3.652   8.638 -0.4272  0.2336 -0.1740
40195SOL    HW127825   3.292   3.679   8.565 -0.5430  0.5930  0.0392
40195SOL    HW227826   3.423   3.609   8.597 -1.4139 -1.3203 -0.4213
40196SOL     OW27827  10.369   1.439   8.591 -0.4151 -0.1546  0.0611
40196SOL    HW127828  10.365   1.493   8.512  1.1765 -1.7340 -1.1955
40196SOL    HW227829  10.462   1.418   8.601 -0.7220 -0.8953  1.7368
40197SOL     OW27830  11.785   1.097   2.714  0.5525  0.2032  0.0023
40197SOL    HW127831  11.823   1.033   2.654  1.5925  1.4591 -0.7346
40197SOL    HW227832  11.737   1.158   2.657  0.0784  0.4241  0.6243
40198SOL     OW27833  11.346  10.606  10.378 -0.3625 -0.6430 -0.1583
40198SOL    HW127834  11.333  10.689  10.332  0.7370  0.5599  1.5710
40198SOL    HW227835  11.268  10.599  10.435 -0.2605 -0.5657 -0.0063
40199SOL     OW27836   6.824   6.859   3.859 -0.3227 -0.2734 -0.0942
40199SOL    HW127837   6.891   6.917   3.823 -0.1822 -0.4686 -0.1516
40199SOL    HW227838   6.749   6.869   3.801 -0.7030  0.6958  0.5321
40200SOL     OW27839   2.820   6.193   2.821  0.3112 -0.4943 -0.5916
40200SOL    HW127840   2.824   6.206   2.916  0.9574  0.0251 -0.6880
40200SOL    HW227841   2.900   6.233   2.788 -0.2954  0.0409 -1.4440
40201SOL     OW27842   6.908   2.796   8.285  0.1367 -0.2234 -0.0265
40201SOL    HW127843   6.881   2.883   8.314 -0.5487 -0.1071 -0.9802
40201SOL    HW227844   6.862   2.782   8.202  0.5547 -1.3276 -0.0967
40202SOL     OW27845   6.925   6.396  10.350 -0.1730 -0.5581 -0.0857
40202SOL    HW127846   6.844   6.438  10.379  0.7825  0.8239  0.7209
40202SOL    HW227847   6.994   6.441  10.398  1.3230  0.1171 -2.6397
40203SOL     OW27848   9.391   6.963   7.120  0.1975 -0.1735  0.1695
40203SOL    HW127849   9.298   6.986   7.130  0.2795  0.2782 -0.1090
40203SOL    HW227850   9.437   7.027   7.174  0.5595  1.4720 -1.9546
40204SOL     OW27851   7.588   8.822   8.842  0.3788  0.1588 -0.1756
40204SOL    HW127852   7.654   8.764   8.804  0.8977  0.3832  0.3680
40204SOL    HW227853   7.612   8.827   8.934  1.2429  2.4250 -0.4710
40205SOL     OW27854   2.864   5.153  12.045 -0.0285  0.2336 -0.5143
40205SOL    HW127855   2.933   5.181  11.985 -0.1928  1.0060 -0.3458
40205SOL    HW227856   2.806   5.099  11.992 -0.1646  0.8949 -1.0420
40206SOL     OW27857   7.530   8.024   7.472 -0.3222 -0.4683  0.6262
40206SOL    HW127858   7.449   8.029   7.522  0.4949  0.9046  1.8944
40206SOL    HW227859   7.600   8.023   7.538  0.7211 -0.4996 -0.4408
40207SOL     OW27860  11.529   1.467   6.192 -0.0199 -0.0376 -0.9184
40207SOL    HW127861  11.555   1.467   6.284 -0.0852 -0.2274 -0.8992
40207SOL    HW227862  11.564   1.549   6.157  2.9438 -1.4413 -1.5669
40208SOL     OW27863   4.705   3.487   5.114 -0.5989 -0.2234  0.0030
40208SOL    HW127864   4.741   3.548   5.178  1.3843 -0.9248 -0.3911
40208SOL    HW227865   4.711   3.532   5.030  2.5547 -1.4960 -0.5794
40209SOL     OW27866   0.288   9.464   2.364  0.2917 -0.3490 -0.6662
40209SOL    HW127867   0.327   9.466   2.452  1.7879 -1.5618 -1.2419
40209SOL    HW227868   0.268   9.555   2.344 -1.2735 -0.1713  1.4028
40210SOL     OW27869  11.166   5.843  12.153  0.4748  0.3967 -0.4221
40210SOL    HW127870  11.103   5.785  12.110 -1.1785  0.9312  1.1710
40210SOL    HW227871  11.160   5.821  12.246  1.1167  1.8983 -0.0018
40211SOL     OW27872   6.428   4.077   5.087  0.8060 -0.4210 -0.6362
40211SOL    HW127873   6.375   4.067   5.008  0.6081  0.6740 -0.6578
40211SOL    HW227874   6.440   3.987   5.120  0.1724 -0.8071 -1.4325
40212SOL     OW27875   3.643   1.180  11.917  0.9189  0.0474 -0.2760
40212SOL    HW127876   3.598   1.260  11.887  0.8629 -0.4370 -1.5564
40212SOL    HW227877   3.617   1.171  12.008 -0.2888  0.6792 -0.5343
40213SOL     OW27878   2.436   1.363   9.108  0.0034 -0.8189 -0.0437
40213SOL    HW127879   2.512   1.331   9.157  0.0675  0.7776  0.9466
40213SOL    HW227880   2.473   1.425   9.045 -0.4268 -0.5045  0.0154
40214SOL     OW27881   8.026   0.288   4.917 -0.0545  0.2805  0.2996
40214SOL    HW127882   8.093   0.278   4.985  1.2398  0.4412 -0.9157
40214SOL    HW227883   7.992   0.200   4.903 -1.1994  0.4106  1.9676
40215SOL     OW27884   4.203   4.587   4.084  0.7886 -0.0182  0.3847
40215SOL    HW127885   4.121   4.556   4.046  0.5215 -1.1272  1.7447
40215SOL    HW227886   4.207   4.679   4.060 -1.2241  0.2512  0.8522
40216SOL     OW27887   1.661   6.923   4.113 -0.1722 -0.0355  0.1486
40216SOL    HW127888   1.699   6.838   4.137 -0.8884  0.4201  3.4206
40216SOL    HW227889   1.733   6.971   4.072  0.6041 -1.7499 -0.5707
40217SOL     OW27890   4.488  12.289   8.597 -0.2622  0.1519 -0.3802
40217SOL    HW127891   4.426  12.222   8.625  0.1090 -0.6037 -1.3101
40217SOL    HW227892   4.442  12.372   8.611 -0.6156 -0.2596  1.0631
40218SOL     OW27893   2.748   9.258   9.705  0.2961  0.0411 -0.1619
40218SOL    HW127894   2.772   9.297   9.790  2.4934 -1.2757 -0.1012
40218SOL    HW227895   2.810   9.187   9.693 -1.2495 -1.0854 -1.9963
40219SOL     OW27896   3.621  12.525   4.593  0.1135 -0.2897 -0.6231
40219SOL    HW127897   3.535  12.485   4.597 -0.3911  0.7868  0.1624
40219SOL    HW227898   3.671  12.483   4.663 -0.6952  0.9911  0.7939
40220SOL     OW27899  10.920   3.718   4.546 -0.3947 -0.3540  0.8535
40220SOL    HW127900  11.014   3.715   4.563 -0.2523 -1.3936  0.0181
40220SOL    HW227901  10.908   3.663   4.468 -1.6495  0.0401  0.7409
40221SOL     OW27902   3.067  11.651   3.212 -0.0715  0.1861 -0.4808
40221SOL    HW127903   2.979  11.676   3.239 -0.4221  0.2438 -1.6040
40221SOL    HW227904   3.125  11.699   3.271 -0.7831  0.2109  0.2193
40222SOL     OW27905  10.627   3.633   9.361 -0.5629 -0.2328 -0.0795
40222SOL    HW127906  10.676   3.708   9.395 -1.8244  0.7693 -0.3860
40222SOL    HW227907  10.675   3.606   9.283  0.1112  0.0254  0.2433
40223SOL     OW27908   1.849   9.652   8.474 -0.0432  0.2874 -0.1104
40223SOL    HW127909   1.917   9.672   8.410  0.8922  0.0707  0.7819
40223SOL    HW227910   1.796   9.732   8.480  0.1358  0.4587 -0.8084
40224SOL     OW27911   1.114   7.201   1.819  0.2150 -0.0707 -0.3113
40224SOL    HW127912   1.060   7.143   1.873 -1.6290  1.3527 -0.4929
40224SOL    HW227913   1.052   7.267   1.787  2.0226  1.4240 -0.8958
40225SOL     OW27914  12.684   0.774   5.585 -0.4110 -0.1204 -0.0447
40225SOL    HW127915  12.703   0.694   5.537  0.9827  0.1503  0.0368
40225SOL    HW227916  12.610   0.813   5.538 -0.0390 -0.6240 -1.0713
40226SOL     OW27917  12.637   7.963   7.083  0.0637  0.0003  0.1311
40226SOL    HW127918  12.730   7.984   7.074 -0.4027  2.3448  0.1215
40226SOL    HW227919  12.616   7.986   7.173 -0.6316  0.0301 -0.0318
40227SOL     OW27920   5.335  11.795   9.054 -0.1530  0.0287  0.0198
40227SOL    HW127921   5.290  11.720   9.016 -0.0918  0.0707 -0.1409
40227SOL    HW227922   5.332  11.781   9.148 -0.0633 -0.2193 -0.0145
40228SOL     OW27923   9.420   0.319  11.361  0.0595  0.4047  0.3236
40228SOL    HW127924   9.404   0.256  11.431  1.0174  0.8882  1.0054
40228SOL    HW227925   9.338   0.368  11.352 -0.0870  0.3010  1.0766
40229SOL     OW27926   7.946   8.210   9.296  0.4761 -0.1515 -0.2946
40229SOL    HW127927   7.888   8.255   9.235  1.1018 -0.4885 -1.1595
40229SOL    HW227928   8.032   8.249   9.282  0.6185 -0.1806  0.4364
40230SOL     OW27929   9.505   5.240   9.430 -0.3111  0.3957  0.0765
40230SOL    HW127930   9.547   5.156   9.412 -3.5041 -1.3100 -0.1436
40230SOL    HW227931   9.488   5.238   9.524 -1.3943  0.2064 -0.1022
40231SOL     OW27932  12.038  11.261   2.590  0.5543 -0.2135 -0.6770
40231SOL    HW127933  12.036  11.182   2.535 -0.9726  1.4892 -3.2684
40231SOL    HW227934  12.113  11.310   2.558 -0.1930  0.6721 -1.1231
40232SOL     OW27935   4.042   6.634   5.165 -0.4362  1.0007  0.0727
40232SOL    HW127936   4.060   6.560   5.223 -0.3027  1.0076  0.0404
40232SOL    HW227937   3.982   6.599   5.099 -0.7359  1.0435  0.3256
40233SOL     OW27938  11.877  11.098   9.692 -0.0712 -0.1438 -0.2447
40233SOL    HW127939  11.809  11.111   9.625 -0.8169 -1.1324  0.3011
40233SOL    HW227940  11.868  11.007   9.718  0.5252  0.1002  0.8749
40234SOL     OW27941   8.912   6.131   6.036 -0.6257 -0.1670 -0.2002
40234SOL    HW127942   8.912   6.102   5.945 -2.9372 -0.6993 -0.0805
40234SOL    HW227943   8.981   6.198   6.040  0.9614 -1.6074 -1.8059
40235SOL     OW27944   7.397  10.348   3.870 -0.2816  0.1977  0.3241
40235SOL    HW127945   7.463  10.400   3.824  1.2351 -1.0741  0.9956
40235SOL    HW227946   7.437  10.325   3.953 -2.0227  0.3182  1.2501
40236SOL     OW27947   0.577   6.589   1.608  0.3270 -0.4921 -0.4546
40236SOL    HW127948   0.501   6.567   1.662  0.9956 -1.6747  0.0498
40236SOL    HW227949   0.550   6.665   1.558 -1.7843 -1.8283 -1.4898
40237SOL     OW27950   6.468   8.278  10.585  0.0676  0.5863  0.1379
40237SOL    HW127951   6.561   8.296  10.599  0.5268 -1.0182 -0.5547
40237SOL    HW227952   6.432   8.361  10.555  1.3518  1.1597  0.1091
40238SOL     OW27953   5.057   9.315   3.440 -0.3115 -1.0463  0.1370
40238SOL    HW127954   5.069   9.244   3.378  0.8266  0.4999 -1.5277
40238SOL    HW227955   5.084   9.394   3.392 -1.3046  0.4939  1.9482
40239SOL     OW27956   7.944   8.680   4.774  0.1907  0.6067  0.2465
40239SOL    HW127957   8.017   8.639   4.821 -0.6301 -0.2215  0.8448
40239SOL    HW227958   7.964   8.774   4.776  0.4316  0.5580  1.8635
40240SOL     OW27959  10.439   0.383   1.495 -0.4309  0.1022  0.0311
40240SOL    HW127960  10.372   0.448   1.514 -1.4783 -1.2212  1.0401
40240SOL    HW227961  10.514   0.410   1.548 -0.3610  1.2398 -0.6241
40241SOL     OW27962   9.722  11.480   5.463 -0.1603 -0.4581 -0.0416
40241SOL    HW127963   9.807  11.460   5.424 -0.2877 -0.5336 -0.2847
40241SOL    HW227964   9.722  11.435   5.547  0.7175  0.9284  0.7325
40242SOL     OW27965   3.199  10.395   9.691  1.0432 -0.0113  0.1654
40242SOL    HW127966   3.274  10.362   9.641  2.2549  1.1551  1.1281
40242SOL    HW227967   3.151  10.450   9.630  1.0393 -0.6460 -0.4202
40243SOL     OW27968   1.015   9.403   8.963 -0.1685  0.2447 -0.6477
40243SOL    HW127969   1.034   9.312   8.988 -0.2422  0.3456 -0.2339
40243SOL    HW227970   1.026   9.453   9.043 -0.1594  0.6012 -0.8719
40244SOL     OW27971   7.144   3.636  11.097  0.2820 -0.0855  0.0892
40244SOL    HW127972   7.133   3.590  11.180  0.5281 -0.9859 -0.3585
40244SOL    HW227973   7.129   3.728  11.118 -1.5258 -0.4924  0.7612
40245SOL     OW27974   4.687   3.672   4.865 -0.1112  0.5167 -0.0952
40245SOL    HW127975   4.637   3.655   4.786 -0.6249  1.3838  0.0277
40245SOL    HW227976   4.760   3.725   4.836  2.1068 -2.5658 -0.6632
40246SOL     OW27977   3.830  11.661   7.425  0.0517  0.3611 -0.1944
40246SOL    HW127978   3.774  11.721   7.474  1.2187  1.5005 -0.2209
40246SOL    HW227979   3.821  11.688   7.334  0.6498  0.5736 -0.1963
40247SOL     OW27980   1.636   5.504   9.079  0.3112  0.4617 -0.2255
40247SOL    HW127981   1.663   5.450   9.154 -0.4966  0.2583 -0.0788
40247SOL    HW227982   1.541   5.512   9.087  0.3185  1.1734 -0.7458
40248SOL     OW27983  10.616   9.287   7.109 -0.4427  0.5905  0.2009
40248SOL    HW127984  10.543   9.307   7.049  0.2401 -0.0075 -0.8631
40248SOL    HW227985  10.574   9.269   7.193 -1.7446 -1.9416 -0.9013
40249SOL     OW27986   3.763  10.210   3.618  0.7257 -0.7810 -0.6959
40249SOL    HW127987   3.719  10.294   3.626 -0.6188 -1.5075  0.0916
40249SOL    HW227988   3.797  10.208   3.528  0.9218  0.6440 -0.6684
40250SOL     OW27989  12.113   4.747   3.962  0.1158 -0.3238  0.2599
40250SOL    HW127990  12.165   4.740   3.883 -0.3822  0.9385 -0.2053
40250SOL    HW227991  12.092   4.840   3.969 -1.8235 -0.7286  0.5758
40251SOL     OW27992   0.484   1.922   3.443  0.5295  0.0393  0.0252
40251SOL    HW127993   0.512   1.901   3.532 -0.6059  2.1793  0.9744
40251SOL    HW227994   0.557   1.971   3.406  0.5502  0.1692  0.2334
40252SOL     OW27995   1.612   2.233   1.911  0.3024  0.3314  0.2673
40252SOL    HW127996   1.590   2.308   1.856 -1.1677  0.4024  0.9210
40252SOL    HW227997   1.603   2.158   1.852  0.4990  0.5536 -0.0503
40253SOL     OW27998   1.385   4.677  11.872 -0.2091 -0.0262  0.1299
40253SOL    HW127999   1.470   4.713  11.848 -0.3927  0.5505  0.3288
40253SOL    HW228000   1.400   4.634  11.957 -0.2496  0.5852  0.4471
40254SOL     OW28001   6.498   9.509   3.743  0.4586 -0.5602 -0.3631
40254SOL    HW128002   6.593   9.506   3.756  0.4563 -0.4159 -0.3133
40254SOL    HW228003   6.485   9.490   3.650  0.4958 -1.2584 -0.2334
40255SOL     OW28004  11.513  10.765   9.657 -0.3375  0.1763 -0.2838
40255SOL    HW128005  11.541  10.825   9.727 -0.7459  0.2742 -0.2017
40255SOL    HW228006  11.419  10.779   9.650 -0.3719 -0.1714 -0.5389
40256SOL     OW28007   4.759   0.442   0.219  0.4196  0.0919 -0.3607
40256SOL    HW128008   4.710   0.480   0.291  1.0628  0.7794 -0.2714
40256SOL    HW228009   4.711   0.362   0.196 -0.8143  0.8192 -0.3883
40257SOL     OW28010   1.324  12.490   8.685  0.7291  0.2993  0.1841
40257SOL    HW128011   1.349  12.400   8.665 -1.0592 -0.0349 -0.7796
40257SOL    HW228012   1.271  12.483   8.764  2.3076  0.8055  1.3334
40258SOL     OW28013   7.166   8.882   6.018  0.3840  0.6946  0.5260
40258SOL    HW128014   7.253   8.872   5.979  0.9843  1.8453  1.5022
40258SOL    HW228015   7.183   8.904   6.110 -0.9603 -0.4133  1.0829
40259SOL     OW28016   8.312  11.518   7.358 -0.1576  0.2296  0.2994
40259SOL    HW128017   8.303  11.468   7.277  0.2515 -0.7927  0.8692
40259SOL    HW228018   8.233  11.499   7.408 -0.1777  0.4644  0.3610
40260SOL     OW28019   9.728   1.452   0.278 -0.1083 -0.1816  0.5993
40260SOL    HW128020   9.773   1.510   0.341  1.4350  1.0101 -1.4682
40260SOL    HW228021   9.647   1.428   0.323  0.1832  1.8491  2.4486
40261SOL     OW28022  10.676   1.308  11.581  0.0124 -0.3598  0.4693
40261SOL    HW128023  10.627   1.386  11.606  0.7737  0.9215 -1.7923
40261SOL    HW228024  10.613   1.255  11.531  0.3351  0.3567 -0.7376
40262SOL     OW28025   2.378  11.430  11.934 -0.0093 -0.6047  0.7007
40262SOL    HW128026   2.376  11.414  11.839  0.8626  1.8476  0.1998
40262SOL    HW228027   2.391  11.343  11.972 -1.0212 -1.7453 -1.3671
40263SOL     OW28028   7.529   7.275   8.065  0.0862 -0.1512  0.4727
40263SOL    HW128029   7.582   7.345   8.104 -0.2080 -0.1930  0.9528
40263SOL    HW228030   7.465   7.321   8.011  1.2377 -0.1350 -0.9258
40264SOL     OW28031   7.913  10.633   9.844  0.1050 -0.1992  0.5339
40264SOL    HW128032   7.825  10.619   9.879  0.9990 -2.8727  1.9427
40264SOL    HW228033   7.962  10.672   9.916  0.5616 -0.5652  0.4281
40265SOL     OW28034   0.500   4.789   2.184 -0.1383  0.1274 -0.9814
40265SOL    HW128035   0.550   4.836   2.250 -0.6750 -1.9264  1.0260
40265SOL    HW228036   0.529   4.825   2.101  1.5329  1.9159  0.3080
40266SOL     OW28037   9.665   7.614   2.960 -0.1193 -0.1068  0.0216
40266SOL    HW128038   9.599   7.644   2.897  0.3176 -2.1156 -1.4925
40266SOL    HW228039   9.623   7.542   3.006  0.1770  0.2183  0.8124
40267SOL     OW28040   8.139   1.246   8.343 -0.0162  0.3932  0.3640
40267SOL    HW128041   8.206   1.312   8.326 -0.5004  0.8328  0.1096
40267SOL    HW228042   8.180   1.163   8.318  0.3918  0.6710  0.0957
40268SOL     OW28043   1.367   8.965   2.772 -0.6050  0.0518 -0.0468
40268SOL    HW128044   1.317   8.885   2.758 -1.3765  0.7303 -1.4335
40268SOL    HW228045   1.363   8.980   2.866 -2.0664 -0.5409  0.0089
40269SOL     OW28046   2.518   0.121  10.963 -0.1144  0.3325 -0.9288
40269SOL    HW128047   2.549   0.204  10.925  0.8777  0.2280 -0.3848
40269SOL    HW228048   2.550   0.054  10.903  1.4606  0.1664  0.0347
40270SOL     OW28049   6.371  10.168   4.138 -0.4146 -0.0517  0.2718
40270SOL    HW128050   6.413  10.178   4.223  1.8889 -2.7821 -0.4096
40270SOL    HW228051   6.406  10.240   4.085 -0.2603  0.4456  1.0413
40271SOL     OW28052   4.357  10.129   1.229  0.2264 -0.2821 -0.5600
40271SOL    HW128053   4.307  10.086   1.297  0.5890  0.4021  0.1558
40271SOL    HW228054   4.293  10.152   1.162 -0.2688 -0.2252 -0.0666
40272SOL     OW28055   3.611   2.232   8.717 -0.0174 -0.1951  0.5204
40272SOL    HW128056   3.521   2.245   8.746 -0.3240  0.1698 -0.5468
40272SOL    HW228057   3.648   2.320   8.711  0.2765 -0.3154  0.5510
40273SOL     OW28058   6.334  11.391   1.577  0.1430  0.5399  0.2053
40273SOL    HW128059   6.253  11.366   1.532  0.7942  1.6771 -1.6777
40273SOL    HW228060   6.382  11.309   1.587 -0.3877  0.1406 -0.4336
40274SOL     OW28061   3.688  12.068   9.939 -0.3011  0.2320 -0.2799
40274SOL    HW128062   3.746  12.053   9.864 -0.6385  0.2946 -0.5553
40274SOL    HW228063   3.637  12.146   9.914 -1.3098 -0.4933 -0.5334
40275SOL     OW28064   4.105   6.400  11.636 -0.1043  0.2526 -0.2804
40275SOL    HW128065   4.055   6.478  11.661 -0.3447  0.0465 -0.1274
40275SOL    HW228066   4.196   6.425  11.653 -0.1008  0.8215 -1.0686
40276SOL     OW28067   5.417   8.258   7.530 -0.1690 -0.2701 -0.1497
40276SOL    HW128068   5.402   8.352   7.519 -0.7372 -0.2842  0.4711
40276SOL    HW228069   5.331   8.222   7.550  0.3227 -0.6866  1.2891
40277SOL     OW28070   9.364   3.852  10.727 -0.2310  0.4686  0.0656
40277SOL    HW128071   9.436   3.897  10.771 -0.0563  0.6946 -0.4371
40277SOL    HW228072   9.389   3.760  10.728 -1.2562  0.1633  2.3517
40278SOL     OW28073   1.604   7.779   3.606 -0.2309 -0.0111  0.3228
40278SOL    HW128074   1.588   7.870   3.581 -0.0959 -0.3613 -1.1293
40278SOL    HW228075   1.686   7.782   3.656  0.6606  0.4878 -1.1050
40279SOL     OW28076   0.899   6.001   6.877 -0.4218 -0.4343 -0.5177
40279SOL    HW128077   0.897   6.007   6.972  0.3861  0.1090 -0.5201
40279SOL    HW228078   0.989   5.973   6.857 -0.6913 -0.8893 -1.0990
40280SOL     OW28079  12.621   7.908  10.201 -0.3219 -0.5310 -0.1884
40280SOL    HW128080  12.542   7.865  10.169  0.3612 -1.9052 -0.1409
40280SOL    HW228081  12.594   7.997  10.222 -1.8963 -1.0287  0.0283
40281SOL     OW28082  10.111  12.054  12.578  0.4003 -0.3014 -0.5621
40281SOL    HW128083  10.202  12.035  12.555  0.4158 -1.7933  0.5599
40281SOL    HW228084  10.083  11.977  12.628 -1.5365  0.0558 -1.0245
40282SOL     OW28085   1.220   8.003  11.661 -0.0459 -0.3574  0.5032
40282SOL    HW128086   1.149   8.025  11.601  0.8646  0.7478 -0.2030
40282SOL    HW228087   1.223   8.076  11.722  1.0631  0.0589 -0.0287
40283SOL     OW28088   7.312   7.085   9.872  0.0182  0.0053  0.3268
40283SOL    HW128089   7.351   6.997   9.873 -1.5993 -0.7967 -1.1184
40283SOL    HW228090   7.279   7.095   9.783 -0.9981  1.5628  0.8413
40284SOL     OW28091   2.658   0.829   3.566 -0.4025 -0.0794  0.4915
40284SOL    HW128092   2.648   0.794   3.654  0.8823 -0.3169  0.5540
40284SOL    HW228093   2.623   0.919   3.571  2.9508  1.2858  2.2231
40285SOL     OW28094   7.673   3.115   1.705 -0.0491 -0.0634 -0.1633
40285SOL    HW128095   7.618   3.141   1.779  2.3417  0.5675  1.5184
40285SOL    HW228096   7.667   3.189   1.644 -1.0573 -0.0206 -0.0277
40286SOL     OW28097  11.072  10.278   7.055 -0.3140 -0.1400  0.1760
40286SOL    HW128098  11.059  10.358   7.004  1.3085 -0.8552 -1.4560
40286SOL    HW228099  11.147  10.296   7.110 -0.5553 -0.2149  0.5350
40287SOL     OW28100   3.449   2.594   0.546 -0.1098 -0.4158 -0.3200
40287SOL    HW128101   3.377   2.649   0.518  1.7227  1.8652 -0.8838
40287SOL    HW228102   3.450   2.521   0.484 -2.5178 -1.0986  0.3638
40288SOL     OW28103  10.516  10.115   7.230  0.4994  0.2830  0.4564
40288SOL    HW128104  10.441  10.111   7.289 -0.0136 -0.2907 -0.2109
40288SOL    HW228105  10.554  10.027   7.233  0.0143  0.0102 -0.6111
40289SOL     OW28106   4.864   4.624   8.390  0.6183 -0.7389 -0.5974
40289SOL    HW128107   4.858   4.629   8.295 -0.6363 -0.7420 -0.5371
40289SOL    HW228108   4.904   4.539   8.408  2.8476  0.1315 -1.1474
40290SOL     OW28109  11.599   3.953  12.379 -0.5326 -0.4504 -0.5008
40290SOL    HW128110  11.694   3.969  12.374 -0.3836  0.4021  2.6404
40290SOL    HW228111  11.591   3.859  12.390  0.2184 -0.3255  1.6171
40291SOL     OW28112   1.646  10.935   7.572  0.1946 -0.2895 -0.3500
40291SOL    HW128113   1.673  10.937   7.480 -3.1533  0.1441 -1.4357
40291SOL    HW228114   1.632  10.842   7.590  0.0986 -0.3115 -0.5313
40292SOL     OW28115  11.502  10.848   4.034  0.8650 -0.7693  0.1064
40292SOL    HW128116  11.553  10.869   3.956  1.9109 -1.7566  0.5093
40292SOL    HW228117  11.551  10.889   4.106  0.3712 -0.5971  0.3470
40293SOL     OW28118  10.081   3.600  10.710  1.1662 -0.0193  0.0661
40293SOL    HW128119  10.062   3.572  10.799  2.7337  0.3666  0.5631
40293SOL    HW228120  10.135   3.530  10.674  2.4409  0.8469  0.2243
40294SOL     OW28121  12.703   3.712  11.511  0.0702 -0.0997 -0.6081
40294SOL    HW128122  12.680   3.779  11.447 -1.4826 -0.9347 -0.9867
40294SOL    HW228123  12.646   3.638  11.489  0.8892 -1.1105  0.5375
40295SOL     OW28124   5.195   5.188   4.547  0.3903  0.0047 -0.2393
40295SOL    HW128125   5.219   5.120   4.610  0.6638 -0.0148 -0.3628
40295SOL    HW228126   5.130   5.241   4.592  1.1245  0.4308  0.3236
40296SOL     OW28127   6.621   5.382   8.063  0.3799 -0.5316  0.1082
40296SOL    HW128128   6.677   5.454   8.093 -0.5957  0.9723 -1.4856
40296SOL    HW228129   6.675   5.337   7.998 -0.2229  1.0496 -1.5916
40297SOL     OW28130   6.374   4.097   0.172 -0.2720 -0.4629 -0.1717
40297SOL    HW128131   6.349   4.006   0.159  1.8225 -1.0943 -0.1024
40297SOL    HW228132   6.386   4.105   0.267  2.0602 -0.8812 -0.3785
40298SOL     OW28133   1.390   5.497   3.418  0.0585 -0.1419 -0.6629
40298SOL    HW128134   1.471   5.451   3.393 -0.1190 -0.3819 -0.8027
40298SOL    HW228135   1.342   5.432   3.471 -0.3667 -0.2493 -1.1764
40299SOL     OW28136   1.819   0.039  12.612  0.6755 -0.3906  0.3653
40299SOL    HW128137   1.879   0.044  12.687  0.5533  0.8838  0.3951
40299SOL    HW228138   1.877   0.027  12.537  0.9661  0.5210  0.4281
40300SOL     OW28139   5.122   2.805  11.984 -0.5815  0.3542 -0.2141
40300SOL    HW128140   5.038   2.764  12.007  0.2004 -1.6893 -0.7577
40300SOL    HW228141   5.185   2.733  11.987  0.7617  1.3759 -1.9924
40301SOL     OW28142   9.566   0.435   8.417 -0.3147  0.1359  0.7945
40301SOL    HW128143   9.550   0.526   8.389  1.0137 -0.0013 -0.5442
40301SOL    HW228144   9.658   0.433   8.441 -0.2348 -0.9328  0.4616
40302SOL     OW28145   7.115  11.938  10.651 -0.3197  0.7297  0.5303
40302SOL    HW128146   7.076  11.988  10.579  4.3269  2.2947 -1.2632
40302SOL    HW228147   7.150  12.005  10.710  1.4318 -0.4087  0.8497
40303SOL     OW28148   5.947   8.254   8.617 -0.3475  0.2510 -0.4130
40303SOL    HW128149   5.990   8.337   8.595  0.7652  0.2765  1.6314
40303SOL    HW228150   5.971   8.195   8.545  0.8360  1.0421 -0.6928
40304SOL     OW28151  11.547   6.708   0.531  0.2226  0.2198  0.3582
40304SOL    HW128152  11.559   6.649   0.457 -1.5936  0.6185 -0.3088
40304SOL    HW228153  11.504   6.785   0.493  0.2576  0.9010  1.6389
40305SOL     OW28154  12.025   3.045   7.485  0.3553  0.3061  0.0885
40305SOL    HW128155  11.963   3.101   7.532 -0.2936 -0.1001 -0.2701
40305SOL    HW228156  12.090   3.105   7.451  0.4473  0.6881  0.9055
40306SOL     OW28157   5.014   3.000   0.845 -0.5388  0.5994 -0.0081
40306SOL    HW128158   4.935   3.005   0.899  0.6224 -0.0571  1.8109
40306SOL    HW228159   4.989   3.043   0.763 -2.6871  0.6588  0.6161
40307SOL     OW28160  12.071   7.141   5.832  0.1604  0.3104 -0.5607
40307SOL    HW128161  12.071   7.190   5.749 -0.6485 -0.1083 -0.8182
40307SOL    HW228162  12.126   7.193   5.890  1.4686  0.1518 -1.6238
40308SOL     OW28163   7.616  10.645   5.474 -0.9846 -0.5163  0.0397
40308SOL    HW128164   7.646  10.690   5.395 -2.1673 -0.2200 -0.2630
40308SOL    HW228165   7.596  10.556   5.444 -1.1663 -0.4835  0.0649
40309SOL     OW28166   5.401   5.031   1.973 -0.7198  0.2576 -0.3381
40309SOL    HW128167   5.347   5.054   1.898  0.8246  2.6554 -0.8231
40309SOL    HW228168   5.415   5.114   2.020  1.2654 -0.5243  0.5924
40310SOL     OW28169  10.820   2.747   9.841 -0.1366 -0.0105  0.4287
40310SOL    HW128170  10.883   2.715   9.905  0.6607  1.2272  0.3179
40310SOL    HW228171  10.865   2.822   9.800 -2.5340  2.4768  1.9934
40311SOL     OW28172   8.807   0.487   5.454 -0.4251 -0.2577  0.0070
40311SOL    HW128173   8.764   0.435   5.387  1.3369 -3.0877  0.9126
40311SOL    HW228174   8.746   0.487   5.528 -2.2593  2.6612 -1.3179
40312SOL     OW28175   4.701   7.615   5.487 -0.3944 -0.0416  0.0979
40312SOL    HW128176   4.668   7.618   5.577 -0.1880  1.6880  0.1526
40312SOL    HW228177   4.786   7.570   5.494  0.3761  1.4860  1.0489
40313SOL     OW28178   2.711   7.283   5.536  0.0459  0.0588 -0.1660
40313SOL    HW128179   2.652   7.333   5.592  0.3761 -0.5629  0.7560
40313SOL    HW228180   2.799   7.312   5.561  0.1915 -0.1054 -0.4788
40314SOL     OW28181   7.713   3.544  10.870  0.2727 -0.1088 -0.0328
40314SOL    HW128182   7.737   3.455  10.847  2.3551 -0.0989  1.7943
40314SOL    HW228183   7.671   3.537  10.956  0.6481  0.6549  0.2279
40315SOL     OW28184  11.150   3.302   8.177  0.1161  0.5008 -0.1891
40315SOL    HW128185  11.086   3.234   8.199 -2.2640  1.6859 -2.8206
40315SOL    HW228186  11.209   3.260   8.115  0.7267 -0.0255  0.7167
40316SOL     OW28187   4.661   8.155  11.177  0.0282  0.0517 -0.1661
40316SOL    HW128188   4.601   8.164  11.103  0.6491  1.5339 -0.5285
40316SOL    HW228189   4.608   8.176  11.254 -0.2600 -0.0220 -0.3450
40317SOL     OW28190  11.490   8.405   5.934  0.0968 -0.0896  0.4010
40317SOL    HW128191  11.476   8.479   5.992 -0.4710 -0.9739  1.4288
40317SOL    HW228192  11.517   8.333   5.992 -0.7581 -1.0708 -0.3692
40318SOL     OW28193   3.740   0.434   0.903  0.4652 -0.2346  0.3131
40318SOL    HW128194   3.686   0.442   0.824 -1.7244 -0.3547  1.7117
40318SOL    HW228195   3.753   0.524   0.933 -0.0185 -0.2628  0.6252
40319SOL     OW28196   8.507  10.287   5.282 -0.1457 -0.2658  0.4235
40319SOL    HW128197   8.453  10.346   5.228 -1.1713 -0.7619  0.8892
40319SOL    HW228198   8.576  10.257   5.222 -0.9961 -0.4477 -0.4947
40320SOL     OW28199   5.228   6.181   7.434  0.2205  0.1114  0.1379
40320SOL    HW128200   5.315   6.162   7.398 -0.4333  0.4588 -1.6882
40320SOL    HW228201   5.243   6.191   7.528  1.8949 -1.4302  0.0947
40321SOL     OW28202   0.686   7.530   0.694 -0.4212  0.0855 -0.2342
40321SOL    HW128203   0.683   7.492   0.781 -2.3609 -2.8716 -1.4213
40321SOL    HW228204   0.772   7.504   0.660 -0.6380 -0.9464 -0.0347
40322SOL     OW28205   9.719   4.837   1.545  0.3315  0.2459 -0.8603
40322SOL    HW128206   9.674   4.761   1.581  1.6705 -0.3295 -0.3537
40322SOL    HW228207   9.764   4.803   1.467  0.6108  0.6104 -0.8586
40323SOL     OW28208  11.882  10.092   6.505 -0.2182 -0.4944  0.1416
40323SOL    HW128209  11.789  10.099   6.527  0.0129  1.3744  0.6618
40323SOL    HW228210  11.887  10.125   6.415  0.0885  0.4266  0.4954
40324SOL     OW28211   8.818  10.377   3.411 -0.0554  0.0719  0.3441
40324SOL    HW128212   8.802  10.408   3.322 -2.3854 -1.0605  0.2979
40324SOL    HW228213   8.876  10.443   3.449 -0.9758  1.8860 -1.2250
40325SOL     OW28214   4.136  11.455   1.235  0.3217 -1.3413 -0.0307
40325SOL    HW128215   4.177  11.483   1.317 -0.1022 -1.6658  0.2951
40325SOL    HW228216   4.067  11.395   1.262  0.3930 -1.7082 -0.6444
40326SOL     OW28217   3.551   0.011   2.204 -1.1240  1.0238  0.1041
40326SOL    HW128218   3.566  -0.077   2.168  0.9322  1.7021 -0.8062
40326SOL    HW228219   3.458   0.027   2.188 -1.7217 -1.1884  0.8351
40327SOL     OW28220   6.794   1.201  10.211  0.2147 -0.4440 -0.2326
40327SOL    HW128221   6.852   1.269  10.177 -0.7413 -0.0861 -1.2194
40327SOL    HW228222   6.824   1.120  10.169 -0.3286 -0.1697 -1.1692
40328SOL     OW28223   0.265   2.428   4.070 -0.2757 -0.2945  1.0309
40328SOL    HW128224   0.170   2.431   4.065 -0.2437  2.4509 -3.6100
40328SOL    HW228225   0.289   2.507   4.119 -0.4547  0.4293 -0.0090
40329SOL     OW28226   1.894  11.120   2.919 -0.4619  0.0922  0.4256
40329SOL    HW128227   1.891  11.044   2.861 -1.0228  0.7426 -0.4129
40329SOL    HW228228   1.804  11.127   2.952 -0.1919 -0.1594  1.2490
40330SOL     OW28229   5.558   0.334   3.589 -0.3514 -0.4222  0.1965
40330SOL    HW128230   5.488   0.380   3.635  0.8723  0.1542  1.5588
40330SOL    HW228231   5.572   0.254   3.640  0.2357 -0.3588  0.1363
40331SOL     OW28232   1.318  11.812   5.950 -0.0599 -0.1698  0.0911
40331SOL    HW128233   1.228  11.799   5.981  0.4805 -1.5272  1.2352
40331SOL    HW228234   1.362  11.854   6.024  0.4507 -0.3340 -0.1179
40332SOL     OW28235   8.702   3.833   0.997 -0.3058  0.3749 -0.0142
40332SOL    HW128236   8.683   3.872   1.083  1.8269 -0.1376  0.7320
40332SOL    HW228237   8.635   3.765   0.986 -1.7437  1.6606  0.3599
40333SOL     OW28238   4.186   3.328   4.992 -0.1799 -0.3334  0.3117
40333SOL    HW128239   4.169   3.265   4.922 -2.4118 -1.0519  1.4192
40333SOL    HW228240   4.143   3.409   4.963  1.6584  0.4066 -0.5518
40334SOL     OW28241   4.705   7.878   6.732  0.3353 -0.0543 -0.0086
40334SOL    HW128242   4.660   7.890   6.815  1.0218  2.2430  0.1154
40334SOL    HW228243   4.794   7.852   6.756  0.4271  0.2276 -0.0438
40335SOL     OW28244  10.454   6.246  11.473  0.5868  0.2728  0.2352
40335SOL    HW128245  10.418   6.172  11.424  0.5751 -0.6423  1.5528
40335SOL    HW228246  10.394   6.318  11.455  0.9023  0.1416 -1.5170
40336SOL     OW28247   8.703   1.200  11.437 -0.1630 -0.2871 -0.0172
40336SOL    HW128248   8.674   1.169  11.351  1.3416 -0.5152 -0.4712
40336SOL    HW228249   8.711   1.120  11.489 -1.3788 -0.1211  0.4602
40337SOL     OW28250   4.514   7.802  10.242  0.3582 -0.5048  0.2164
40337SOL    HW128251   4.498   7.765  10.330  0.7117  0.8857  0.8910
40337SOL    HW228252   4.553   7.887  10.259  0.7314 -0.3467 -1.3213
40338SOL     OW28253  11.568   3.193  12.532 -0.3371 -0.3180  0.4094
40338SOL    HW128254  11.617   3.131  12.586  2.0914  0.7887 -0.3853
40338SOL    HW228255  11.631   3.264  12.514 -2.1746  1.0606 -0.9168
40339SOL     OW28256   8.412   5.259  12.411  0.2365  0.2812  0.4376
40339SOL    HW128257   8.448   5.176  12.383 -0.9784 -0.3005  0.5216
40339SOL    HW228258   8.448   5.273  12.499  1.6598  0.6257 -0.1822
40340SOL     OW28259   7.459   9.692   0.651 -0.6671  0.4159  1.0388
40340SOL    HW128260   7.420   9.707   0.564 -0.4050 -0.0548  0.8413
40340SOL    HW228261   7.551   9.715   0.640 -0.0942 -1.9232  0.5505
40341SOL     OW28262  12.275   0.757  12.202  0.0692 -0.3420  0.3572
40341SOL    HW128263  12.236   0.835  12.163  1.9285  0.9624  0.9307
40341SOL    HW228264  12.346   0.733  12.142  1.1110 -0.0404  1.4145
40342SOL     OW28265  10.155   5.466   6.299 -0.5437  0.2537  0.3552
40342SOL    HW128266  10.245   5.485   6.324 -0.2383 -0.7874  0.0747
40342SOL    HW228267  10.122   5.408   6.368 -0.6393 -0.2487 -0.1010
40343SOL     OW28268   6.443   3.379  10.292 -0.0021 -0.2021  0.4280
40343SOL    HW128269   6.363   3.381  10.344  0.1118 -0.6014  0.6164
40343SOL    HW228270   6.492   3.457  10.320 -0.2593 -0.0338  0.4113
40344SOL     OW28271   4.363   1.845  10.851  0.3033  0.0509 -0.0929
40344SOL    HW128272   4.353   1.750  10.858 -0.4911 -0.0064 -1.5761
40344SOL    HW228273   4.275   1.880  10.868  0.1449  0.3765 -1.4769
40345SOL     OW28274   7.554   8.968  10.235 -0.2475  0.3664  0.1555
40345SOL    HW128275   7.462   8.961  10.209 -0.4512 -3.0338  1.2870
40345SOL    HW228276   7.558   8.923  10.319  2.3135  1.3936  0.6636
40346SOL     OW28277   1.897   7.458  10.391  0.0177 -0.2297  0.5624
40346SOL    HW128278   1.941   7.543  10.377 -2.0925  1.1987  1.9692
40346SOL    HW228279   1.831   7.454  10.322 -0.0734 -0.5903  0.6714
40347SOL     OW28280   7.893   9.550   7.888  0.3977  0.5329 -0.1307
40347SOL    HW128281   7.817   9.504   7.852 -1.3106  2.9266  0.1115
40347SOL    HW228282   7.953   9.481   7.914 -0.5061 -1.4245 -2.7814
40348SOL     OW28283   0.008  12.666   3.466  0.3089  0.2738  0.4021
40348SOL    HW128284   0.057  12.741   3.500  0.9568  0.0165  0.0590
40348SOL    HW228285   0.010  12.678   3.371  1.6399 -0.9099  0.2546
40349SOL     OW28286   4.542   2.711   4.855 -0.4570 -0.5589 -0.3794
40349SOL    HW128287   4.578   2.676   4.937 -0.5422 -1.0255 -0.5399
40349SOL    HW228288   4.603   2.680   4.788 -0.1335  0.2034 -0.4441
40350SOL     OW28289   1.218   2.007   7.304 -0.1956  0.5556 -0.2195
40350SOL    HW128290   1.200   2.068   7.232  0.5403  1.5018  0.3808
40350SOL    HW228291   1.297   1.960   7.276  0.1947  1.0497  0.0395
40351SOL     OW28292   8.537   7.312   2.622 -0.0227  0.8908 -1.0879
40351SOL    HW128293   8.520   7.223   2.590  0.4609  0.8854 -1.3389
40351SOL    HW228294   8.476   7.323   2.695 -2.4581  1.5554 -3.0740
40352SOL     OW28295   1.827   4.834   9.152  0.2028  0.2219 -0.4142
40352SOL    HW128296   1.921   4.838   9.135  0.3067 -0.7313 -0.1381
40352SOL    HW228297   1.787   4.886   9.082  0.9916  1.5591  0.0977
40353SOL     OW28298  11.585  10.766   5.742  0.7428 -0.3715 -0.0324
40353SOL    HW128299  11.595  10.826   5.816 -1.9273 -1.2849  1.2034
40353SOL    HW228300  11.634  10.688   5.769  0.9374 -0.1980  0.1276
40354SOL     OW28301   9.568   6.305  11.677 -0.3061  0.1520 -0.9510
40354SOL    HW128302   9.621   6.359  11.618 -1.8925  0.1727 -2.4092
40354SOL    HW228303   9.499   6.363  11.708 -0.2779 -0.2379 -0.1260
40355SOL     OW28304   2.780  11.985   5.698 -0.1006  0.7723 -0.0065
40355SOL    HW128305   2.798  11.896   5.668 -0.3282 -0.1895  2.4491
40355SOL    HW228306   2.819  12.041   5.632 -0.6583 -1.1162 -2.0691
40356SOL     OW28307   6.526  11.849  10.094 -0.6818 -1.1572 -0.1685
40356SOL    HW128308   6.614  11.868  10.125 -1.5842 -0.6735  2.3082
40356SOL    HW228309   6.516  11.754  10.106 -0.1804 -1.3860 -1.4314
40357SOL     OW28310   8.386   2.283  11.852 -0.2224  0.8371 -0.0276
40357SOL    HW128311   8.327   2.252  11.783 -1.0680  0.7906  0.7007
40357SOL    HW228312   8.474   2.268  11.816 -0.6335  1.3096 -1.3095
40358SOL     OW28313   6.057   5.074   6.618 -0.0300  0.1731  0.2661
40358SOL    HW128314   5.985   5.017   6.592  0.3459 -0.2551  0.1543
40358SOL    HW228315   6.027   5.114   6.700  0.2635 -1.2510  1.0904
40359SOL     OW28316  11.033   1.299   2.267  0.3519 -0.1551  0.0143
40359SOL    HW128317  11.100   1.367   2.268 -0.0954  0.2997 -0.2949
40359SOL    HW228318  10.997   1.302   2.178  0.9971 -1.4686 -0.3166
40360SOL     OW28319   1.116   5.874   3.496  0.1300 -0.6723 -0.2125
40360SOL    HW128320   1.040   5.930   3.511 -0.7017 -1.5110 -1.1581
40360SOL    HW228321   1.189   5.934   3.484 -0.4465  0.1542  0.3602
40361SOL     OW28322   4.241   9.021  10.041  0.2090  0.0226  0.2575
40361SOL    HW128323   4.275   9.013   9.952 -0.9275 -0.2467 -0.1561
40361SOL    HW228324   4.274   9.106  10.071 -1.8025  1.5150 -1.5031
40362SOL     OW28325   1.429   5.246  12.139  0.0610 -0.2367 -0.5535
40362SOL    HW128326   1.374   5.280  12.210  0.2163  1.6431 -1.2697
40362SOL    HW228327   1.367   5.205  12.078 -0.5708  1.4897 -1.1471
40363SOL     OW28328   6.840   6.031   0.342  0.3672  0.3851  0.5706
40363SOL    HW128329   6.918   6.028   0.397  0.1286  1.7250  1.0202
40363SOL    HW228330   6.862   5.977   0.266  1.3883  0.0216  1.1062
40364SOL     OW28331   4.635  12.011   2.476 -0.0292  0.0940  0.5092
40364SOL    HW128332   4.554  12.060   2.464  0.2282  0.0741 -1.8931
40364SOL    HW228333   4.639  11.952   2.400  0.0478 -3.2110  2.8632
40365SOL     OW28334   4.010   1.450   6.072 -0.4932 -0.5257  0.2087
40365SOL    HW128335   3.936   1.503   6.103  0.2142  0.0942  0.8938
40365SOL    HW228336   4.041   1.404   6.151 -0.1937 -0.8370 -0.0848
40366SOL     OW28337  11.448   5.771   3.271  0.4368 -1.0713 -0.4130
40366SOL    HW128338  11.406   5.773   3.185 -0.4134 -2.6566 -0.0812
40366SOL    HW228339  11.377   5.785   3.333  0.7481 -1.6967  0.0942
40367SOL     OW28340   1.811   1.159   9.651 -0.2751 -0.2089 -0.0130
40367SOL    HW128341   1.757   1.081   9.636  0.7094 -0.9206  0.0474
40367SOL    HW228342   1.873   1.160   9.579 -0.7635  0.9790 -0.4448
40368SOL     OW28343   3.256  10.876   7.300  0.3376 -0.3049  0.5178
40368SOL    HW128344   3.306  10.929   7.238 -0.5531  0.2141  0.2291
40368SOL    HW228345   3.237  10.795   7.253  1.3761 -0.7353  0.8259
40369SOL     OW28346   5.972   8.830   3.603 -0.3245  0.4124 -0.0860
40369SOL    HW128347   5.887   8.811   3.642  0.1461 -1.4077  0.1222
40369SOL    HW228348   5.977   8.926   3.603 -1.6884  0.5283  1.3645
40370SOL     OW28349   1.841   8.246   8.086 -0.4912  0.1375  0.1068
40370SOL    HW128350   1.829   8.280   7.997  0.6950 -1.2613 -0.6382
40370SOL    HW228351   1.754   8.221   8.115 -1.2344  2.6573  0.2434
40371SOL     OW28352   4.299   1.775   2.111  0.5850 -0.4156 -0.4276
40371SOL    HW128353   4.213   1.809   2.138  0.2454 -0.9632 -0.7896
40371SOL    HW228354   4.283   1.682   2.092  0.9152 -0.1792 -1.9702
40372SOL     OW28355   9.935  10.998   8.724 -0.0728  0.5541  0.1029
40372SOL    HW128356   9.948  10.904   8.714 -0.5369  0.1889  2.3274
40372SOL    HW228357   9.846  11.013   8.693 -0.0544  0.2308 -0.1129
40373SOL     OW28358   1.915   1.091   7.559 -0.1833  0.3158 -0.2795
40373SOL    HW128359   1.876   1.100   7.646  2.0182 -0.2138  0.8500
40373SOL    HW228360   1.977   1.163   7.553  2.3998 -1.7015  0.2206
40374SOL     OW28361   8.682   5.598   9.483 -0.3109  0.0838 -0.0968
40374SOL    HW128362   8.659   5.531   9.548 -0.9085 -0.4239 -0.8187
40374SOL    HW228363   8.701   5.549   9.404 -2.6030  0.8405 -1.1897
40375SOL     OW28364   4.409   2.072   9.858  0.7534 -0.5312 -0.2220
40375SOL    HW128365   4.431   2.096   9.949  0.0596 -0.4018 -0.0869
40375SOL    HW228366   4.398   2.156   9.814 -0.8428 -0.5833  0.0453
40376SOL     OW28367   9.880  11.964   8.629 -0.4507 -0.1804  0.7848
40376SOL    HW128368   9.838  11.970   8.715 -1.8703 -2.2527  0.3251
40376SOL    HW228369   9.962  11.916   8.646  0.0977  0.8783  1.1958
40377SOL     OW28370  11.807   3.526   3.600  0.3974  0.1664  0.8802
40377SOL    HW128371  11.712   3.520   3.589  0.6237  0.1089 -1.7314
40377SOL    HW228372  11.831   3.442   3.639 -0.6073  0.1353  1.4806
40378SOL     OW28373   9.852   3.232   3.119  0.2749 -0.2992 -0.0380
40378SOL    HW128374   9.858   3.137   3.118 -0.1585 -0.3445 -1.9713
40378SOL    HW228375   9.795   3.251   3.194 -0.7460 -1.6570 -0.4148
40379SOL     OW28376   2.969   2.548   9.796  0.1009 -0.4774 -0.1893
40379SOL    HW128377   2.908   2.483   9.831 -0.8439  0.6591  0.3598
40379SOL    HW228378   2.931   2.633   9.821  1.2171  0.2992 -1.0005
40380SOL     OW28379   5.395   7.287   7.723 -0.6601 -0.6494  0.5956
40380SOL    HW128380   5.482   7.325   7.727 -0.1788 -1.7695  1.0502
40380SOL    HW228381   5.396   7.217   7.788 -1.1230 -2.2690 -1.0736
40381SOL     OW28382   0.687   3.590   1.650  0.0755  0.2741  0.0058
40381SOL    HW128383   0.636   3.623   1.576 -0.1680 -0.0474  0.0285
40381SOL    HW228384   0.724   3.669   1.691  1.1092  0.3754 -1.0943
40382SOL     OW28385   8.491   0.917   9.224  0.3670 -0.1107  0.3682
40382SOL    HW128386   8.510   0.990   9.282 -2.7691  0.9369  0.2551
40382SOL    HW228387   8.505   0.952   9.136  1.2407 -0.4382  0.3724
40383SOL     OW28388  10.540   8.687   7.398  0.5728 -0.2244  0.0727
40383SOL    HW128389  10.622   8.711   7.439 -0.3992  1.0524  1.3415
40383SOL    HW228390  10.522   8.599   7.430  0.1776  0.4870  1.8783
40384SOL     OW28391   9.367   5.497   1.098 -0.5877  0.4166 -0.2329
40384SOL    HW128392   9.336   5.587   1.091 -1.0695  0.3232  0.6232
40384SOL    HW228393   9.439   5.500   1.160 -0.2955  0.2796 -0.5579
40385SOL     OW28394   0.179   2.147   4.350 -0.0101  0.3274 -0.0615
40385SOL    HW128395   0.243   2.218   4.355  1.5237 -1.0655  1.4144
40385SOL    HW228396   0.190   2.099   4.432 -1.3620 -1.3058 -0.7724
40386SOL     OW28397   1.352   1.422   0.692 -0.1955 -0.3986  0.4890
40386SOL    HW128398   1.367   1.473   0.612  2.0361  0.3402  1.3247
40386SOL    HW228399   1.315   1.484   0.754 -1.4550 -0.8547  0.2244
40387SOL     OW28400   4.288   9.061   0.693  0.0790  0.3416 -0.4759
40387SOL    HW128401   4.259   9.013   0.770 -0.2872 -0.1855 -0.9357
40387SOL    HW228402   4.338   9.135   0.728 -0.6936  0.5170  0.2885
40388SOL     OW28403  12.656   6.029   7.226 -0.5806 -0.0171  0.1993
40388SOL    HW128404  12.632   6.018   7.318  1.3306 -0.2951  0.6989
40388SOL    HW228405  12.680   6.121   7.219 -0.1368 -0.1355  0.1386
40389SOL     OW28406   2.041   5.380   1.041  0.1017 -0.4629 -0.4007
40389SOL    HW128407   2.086   5.453   0.999 -0.3321 -1.2962 -2.4443
40389SOL    HW228408   2.109   5.338   1.094  0.8791  0.2564 -0.8077
40390SOL     OW28409   6.180   1.599   2.096  0.4394  0.4750 -0.6733
40390SOL    HW128410   6.128   1.678   2.086  0.7112  0.5304 -1.7218
40390SOL    HW228411   6.221   1.586   2.011  1.7066  0.1250 -0.0387
40391SOL     OW28412  10.196   0.050  10.022  0.1777 -0.0441  0.5920
40391SOL    HW128413  10.118   0.022   9.974 -0.2131  0.6098  0.8443
40391SOL    HW228414  10.196   0.145  10.016  2.8779 -0.0535 -2.4989
40392SOL     OW28415   4.200   3.577   3.440  0.3240  0.5907 -0.1601
40392SOL    HW128416   4.157   3.594   3.356  0.0589  0.1735 -0.1154
40392SOL    HW228417   4.289   3.554   3.416 -0.1194 -0.9444 -0.4593
40393SOL     OW28418   5.941  10.823   7.979 -0.2863  0.1512 -0.0971
40393SOL    HW128419   5.964  10.731   7.968 -0.9010  0.1403 -1.4893
40393SOL    HW228420   5.855  10.832   7.937 -0.2573  1.3545  0.0552
40394SOL     OW28421   4.167  11.354  11.669  1.0609 -0.2166  0.1891
40394SOL    HW128422   4.156  11.446  11.693  0.7380 -0.9457  3.1975
40394SOL    HW228423   4.093  11.336  11.611  1.6834  1.6091 -1.2699
40395SOL     OW28424   6.707   0.276   2.127 -0.3189  0.5018 -0.0047
40395SOL    HW128425   6.642   0.215   2.162 -0.8763  1.0449 -0.0818
40395SOL    HW228426   6.746   0.316   2.204  0.3283 -0.2350  0.0575
40396SOL     OW28427  12.164   9.840   8.873  0.1161 -0.2406  0.4230
40396SOL    HW128428  12.152   9.917   8.929  2.2028 -0.5947  1.4491
40396SOL    HW228429  12.249   9.805   8.898  0.0400 -1.8354 -1.3234
40397SOL     OW28430   5.482   5.910   3.850  0.5386 -0.3842 -0.0989
40397SOL    HW128431   5.521   5.833   3.808 -2.5967  0.0304 -4.4245
40397SOL    HW228432   5.391   5.886   3.864 -0.2981  2.1601 -0.6369
40398SOL     OW28433   1.830   9.774   8.029  0.7469 -0.4644 -0.8534
40398SOL    HW128434   1.807   9.835   7.959  0.3780  1.2770  0.6854
40398SOL    HW228435   1.765   9.704   8.022 -1.7367  1.5554 -0.0383
40399SOL     OW28436   6.226   4.678  11.163  0.2122 -0.0641 -0.5125
40399SOL    HW128437   6.231   4.684  11.258  0.0024 -0.2117 -0.4928
40399SOL    HW228438   6.180   4.595  11.146 -1.7659  1.0252 -0.7172
40400SOL     OW28439   8.503   2.673   2.135  0.0178 -0.2619 -0.4809
40400SOL    HW128440   8.534   2.747   2.083  0.0093 -1.0662 -1.6811
40400SOL    HW228441   8.444   2.626   2.077  1.3219 -2.1612 -0.3875
40401SOL     OW28442   9.888   1.728   8.463 -0.2464  0.1744  0.1595
40401SOL    HW128443   9.826   1.712   8.392 -0.3083  1.9117 -0.2030
40401SOL    HW228444   9.919   1.817   8.449  1.0840 -0.0762  1.3059
40402SOL     OW28445   6.129   0.153  12.568 -0.1752  0.2274  0.6501
40402SOL    HW128446   6.154   0.167  12.660  1.5151  0.8865  0.1306
40402SOL    HW228447   6.164   0.229  12.522 -2.1585  0.5773 -0.3883
40403SOL     OW28448   5.598   5.509   1.579 -0.0289 -0.2290  0.0023
40403SOL    HW128449   5.624   5.437   1.636  2.7929  0.1368 -0.6747
40403SOL    HW228450   5.618   5.478   1.491 -0.9623  0.5380 -0.4934
40404SOL     OW28451   5.025   5.890  10.704  0.2137  0.1828  0.0877
40404SOL    HW128452   4.936   5.911  10.731 -0.4380 -0.1150 -1.7043
40404SOL    HW228453   5.026   5.794  10.699  0.2367  0.2337 -1.1151
40405SOL     OW28454   0.279   6.872  10.079  0.2051  0.4735 -0.3930
40405SOL    HW128455   0.198   6.842  10.037 -0.1865  0.0057  0.6696
40405SOL    HW228456   0.349   6.829  10.029 -0.1177  1.7008 -1.9812
40406SOL     OW28457   1.908   4.422   3.215 -0.2179  0.0115 -0.5969
40406SOL    HW128458   1.962   4.499   3.235 -1.9404  0.7135  1.8723
40406SOL    HW228459   1.829   4.435   3.267 -0.6663 -3.3671 -0.2435
40407SOL     OW28460   8.609   5.440   4.371  0.4484 -0.3372 -0.4559
40407SOL    HW128461   8.649   5.517   4.414 -0.2520 -0.8778  1.2459
40407SOL    HW228462   8.680   5.404   4.317  1.4503  0.2731  0.4020
40408SOL     OW28463   3.759   3.461   6.543  0.5914  0.0066  0.1701
40408SOL    HW128464   3.733   3.384   6.593 -0.5610  1.1296  1.3644
40408SOL    HW228465   3.854   3.452   6.535  0.5356 -1.3249  0.6396
40409SOL     OW28466   0.607   9.772  10.889  0.1151  0.5581 -0.1929
40409SOL    HW128467   0.511   9.782  10.887  0.0649  0.0255 -0.7194
40409SOL    HW228468   0.636   9.832  10.958 -0.7959 -1.0133  1.6698
40410SOL     OW28469   5.341   0.476   5.773  0.4198 -0.1596 -0.2780
40410SOL    HW128470   5.389   0.405   5.815  0.3747 -1.0978 -1.7237
40410SOL    HW228471   5.268   0.494   5.832  1.0863 -0.5110  0.6721
40411SOL     OW28472   1.082  11.506   8.698 -0.0684  0.1735  0.4194
40411SOL    HW128473   1.063  11.561   8.621  2.3222  0.2824 -0.1614
40411SOL    HW228474   1.049  11.558   8.772 -2.5061  0.0249 -0.4542
40412SOL     OW28475   0.936   9.952   6.155  0.3146 -0.2539  0.0475
40412SOL    HW128476   0.928   9.899   6.234  2.0197 -0.7852 -0.0861
40412SOL    HW228477   0.893  10.034   6.177 -0.7402 -1.0196  0.9129
40413SOL     OW28478   6.856   0.525   0.288  0.1361 -0.0970  0.4544
40413SOL    HW128479   6.873   0.440   0.329 -0.0293 -0.9517 -1.1462
40413SOL    HW228480   6.893   0.589   0.349  0.5697 -1.3323  1.5389
40414SOL     OW28481   2.167   0.936   1.718  0.1236 -0.2662 -0.5413
40414SOL    HW128482   2.091   0.895   1.676  0.5035 -1.4560 -0.1158
40414SOL    HW228483   2.186   0.880   1.793  1.7894 -0.3668 -0.9926
40415SOL     OW28484   2.479  12.620   6.772  0.8794 -0.5432 -0.4660
40415SOL    HW128485   2.415  12.685   6.744  1.2664  0.1802  0.2966
40415SOL    HW228486   2.427  12.547   6.805  0.4410  0.2157  0.5504
40416SOL     OW28487  10.118   0.735   8.042 -0.6626 -0.1075  0.2495
40416SOL    HW128488  10.108   0.822   8.003 -0.3282 -0.1461  0.0681
40416SOL    HW228489  10.202   0.703   8.008  0.4394  0.5028  2.2657
40417SOL     OW28490   4.997  12.294   2.081  0.1858 -0.7274 -0.2413
40417SOL    HW128491   4.933  12.244   2.133  0.3647  0.9185  1.6576
40417SOL    HW228492   4.989  12.384   2.113  2.4430 -0.2022 -1.0016
40418SOL     OW28493   3.517  10.609   2.229  0.0803  0.3829 -0.2114
40418SOL    HW128494   3.514  10.631   2.136  0.1720 -0.5457 -0.4448
40418SOL    HW228495   3.602  10.568   2.242 -0.5885 -1.0203 -0.0872
40419SOL     OW28496   9.336   5.873   5.650 -0.1132  0.6265  0.3745
40419SOL    HW128497   9.266   5.816   5.619  0.5201 -0.4570  0.8839
40419SOL    HW228498   9.324   5.879   5.745  1.7437 -1.4341  0.8291
40420SOL     OW28499   9.706  11.142   4.915 -0.0452 -0.1454  0.0733
40420SOL    HW128500   9.778  11.206   4.911 -0.7178  0.6434  0.3777
40420SOL    HW228501   9.641  11.175   4.854  0.3532 -1.5263 -1.1506
40421SOL     OW28502  11.488   4.385   5.658 -0.1308 -0.5623 -0.4078
40421SOL    HW128503  11.428   4.459   5.647 -0.7215 -0.9316  0.2726
40421SOL    HW228504  11.479   4.334   5.577 -0.8237 -0.6816 -0.2558
40422SOL     OW28505  11.171   0.898   6.060  0.0452 -0.0399  0.0394
40422SOL    HW128506  11.258   0.932   6.081  0.2985  0.2734 -1.4239
40422SOL    HW228507  11.171   0.890   5.965 -1.3142 -0.6434  0.0739
40423SOL     OW28508   3.763   8.832  11.545  0.5804  0.0181  0.0994
40423SOL    HW128509   3.830   8.785  11.595 -0.4118 -0.4396  1.0490
40423SOL    HW228510   3.719   8.764  11.494  1.2262  0.4066 -1.0155
40424SOL     OW28511   0.700   5.838   0.328 -0.8118 -0.4543 -0.0797
40424SOL    HW128512   0.714   5.892   0.405 -0.6270  0.2174 -0.5764
40424SOL    HW228513   0.683   5.900   0.257 -1.8643 -1.0779 -0.4069
40425SOL     OW28514   9.119   3.998   4.356  0.5789  0.0713 -0.6133
40425SOL    HW128515   9.103   3.985   4.263 -4.0297 -0.0834 -0.0138
40425SOL    HW228516   9.087   4.086   4.374  0.8807 -0.1014  0.9171
40426SOL     OW28517   8.685   9.945   9.021  0.1543  0.0459 -0.1002
40426SOL    HW128518   8.679   9.901   8.937 -1.7758  2.1639 -1.1896
40426SOL    HW228519   8.672   9.876   9.086 -0.3169 -1.3264 -1.6150
40427SOL     OW28520   9.088   6.925   2.163  0.3901  0.5682  0.1088
40427SOL    HW128521   9.179   6.912   2.192  0.1029 -0.7947  0.4669
40427SOL    HW228522   9.039   6.855   2.206 -0.6066  0.4667 -1.1356
40428SOL     OW28523   3.152   2.703   8.542  0.5114  0.5981  0.0648
40428SOL    HW128524   3.165   2.792   8.511  2.0448  1.0460  1.8137
40428SOL    HW228525   3.211   2.650   8.488 -0.7262  0.5055 -1.2788
40429SOL     OW28526   2.340  11.115   8.905  0.6346  0.0186  0.9758
40429SOL    HW128527   2.298  11.138   8.988  2.5915  0.3426  1.9476
40429SOL    HW228528   2.318  11.023   8.891 -1.1595  0.4161  0.9066
40430SOL     OW28529  11.712   6.872   8.547  0.0638  0.0297  0.0254
40430SOL    HW128530  11.643   6.935   8.526  0.4063 -0.1935 -1.9345
40430SOL    HW228531  11.728   6.885   8.641 -0.3285  2.3978 -0.1656
40431SOL     OW28532   4.888   6.449   1.685 -0.3542 -0.3531  0.1757
40431SOL    HW128533   4.872   6.472   1.776 -0.2184 -1.2970  0.4484
40431SOL    HW228534   4.933   6.525   1.649 -0.4326  0.0397  0.8810
40432SOL     OW28535   0.042   3.844  11.122 -0.4807 -0.1001 -0.1748
40432SOL    HW128536  -0.028   3.859  11.186  0.3514 -2.1332  1.3399
40432SOL    HW228537   0.095   3.923  11.126 -1.2671  0.4078  0.5717
40433SOL     OW28538   2.868   5.134   1.834 -0.4688  0.2790 -0.4598
40433SOL    HW128539   2.806   5.061   1.822 -1.1800  0.9691 -1.1078
40433SOL    HW228540   2.850   5.192   1.760 -0.8965  1.7984  0.7910
40434SOL     OW28541   0.278   1.439  12.394 -0.2192 -0.0642  0.2948
40434SOL    HW128542   0.341   1.440  12.466  0.1400 -0.6770  0.0053
40434SOL    HW228543   0.315   1.376  12.332  1.4248  3.0459 -2.1798
40435SOL     OW28544  10.760  12.457  11.598 -0.2605 -0.6910 -0.2858
40435SOL    HW128545  10.699  12.531  11.600  1.7321  1.0406  0.2641
40435SOL    HW228546  10.706  12.382  11.575 -2.2867  1.0273 -1.5139
40436SOL     OW28547   8.195   2.855   7.490 -0.3833 -0.1638 -0.4648
40436SOL    HW128548   8.128   2.818   7.547  0.1955 -1.5746 -0.6667
40436SOL    HW228549   8.256   2.783   7.474  0.2887  0.6296 -1.6429
40437SOL     OW28550   3.854  10.183   2.981 -0.5035  0.1796 -0.3547
40437SOL    HW128551   3.822  10.098   3.014 -1.0318  0.7267  0.5845
40437SOL    HW228552   3.811  10.248   3.037  0.9869  1.0165 -0.1438
40438SOL     OW28553   8.039   1.626   6.203  0.2684  0.0438  0.8085
40438SOL    HW128554   8.023   1.577   6.122 -0.5809 -1.1287  1.6610
40438SOL    HW228555   8.065   1.559   6.266 -0.4091  0.7645  1.8694
40439SOL     OW28556   2.879   4.310  12.115  0.2554  0.1121  0.2353
40439SOL    HW128557   2.835   4.226  12.122  1.5441 -0.7177 -1.0534
40439SOL    HW228558   2.810   4.372  12.094 -0.4349 -1.0530 -1.1428
40440SOL     OW28559   6.277  11.034   2.476  0.3804  0.1059 -0.5887
40440SOL    HW128560   6.202  11.092   2.463  0.7077  0.6487 -0.1074
40440SOL    HW228561   6.292  10.995   2.390  0.2667  0.8781 -0.9693
40441SOL     OW28562   5.270   8.734  11.144  0.0374 -0.6526  0.1301
40441SOL    HW128563   5.296   8.826  11.135 -2.9310  0.5094  1.9308
40441SOL    HW228564   5.302   8.709  11.231 -0.4961 -0.8256  0.2778
40442SOL     OW28565   0.039   2.769   1.516  0.0511 -0.9995  0.0219
40442SOL    HW128566   0.128   2.748   1.543 -0.4473 -2.0270  0.9514
40442SOL    HW228567  -0.006   2.793   1.597  1.0769  6.6059 -0.8719
40443SOL     OW28568   8.322   9.770   3.958  0.3653 -0.1189  0.2284
40443SOL    HW128569   8.264   9.803   3.890  0.8681  1.7092  0.6374
40443SOL    HW228570   8.295   9.816   4.038  1.4545 -0.3020  0.7260
40444SOL     OW28571   7.100   5.984   4.534 -0.1117 -0.6112  0.2520
40444SOL    HW128572   7.101   5.979   4.438 -1.8568  1.9884 -0.0097
40444SOL    HW228573   7.047   5.910   4.561 -1.4490 -0.1606 -0.9879
40445SOL     OW28574   4.369   8.436   2.151  0.0817 -0.2946 -0.0675
40445SOL    HW128575   4.363   8.341   2.160  1.3054 -0.2272  2.4209
40445SOL    HW228576   4.280   8.467   2.168 -0.1652 -0.9526 -0.1335
40446SOL     OW28577   2.178   0.066   4.068 -0.5408 -0.7143  0.4072
40446SOL    HW128578   2.260   0.085   4.022 -0.7631 -0.1053  0.2455
40446SOL    HW228579   2.148   0.152   4.099 -0.7335 -1.0333  1.1250
40447SOL     OW28580   2.294   0.712   8.139  0.4363 -0.0257 -0.6655
40447SOL    HW128581   2.213   0.661   8.135  0.5436 -0.2361 -0.2920
40447SOL    HW228582   2.271   0.789   8.191  0.7653 -0.6709  0.4790
40448SOL     OW28583   4.451  10.070   3.612  0.0757  0.2229 -0.1522
40448SOL    HW128584   4.469  10.002   3.547  0.4329 -0.9805  1.1371
40448SOL    HW228585   4.512  10.051   3.683 -1.5800  0.2937  1.3683
40449SOL     OW28586   7.491   6.879   6.202  0.1813 -0.0994 -0.5028
40449SOL    HW128587   7.551   6.826   6.150 -0.3018  0.5509 -1.7660
40449SOL    HW228588   7.529   6.966   6.203  0.1158 -0.0702  0.1388
40450SOL     OW28589  11.079   7.469  10.171 -0.2201 -0.0810 -0.0810
40450SOL    HW128590  11.049   7.478  10.262 -0.8063 -0.6283 -0.2098
40450SOL    HW228591  11.123   7.551  10.152 -0.4352  0.1942  0.5759
40451SOL     OW28592  10.015   0.397   9.493  0.3356 -0.0930  0.0152
40451SOL    HW128593   9.944   0.336   9.472  0.2460 -0.0633  0.2238
40451SOL    HW228594  10.082   0.380   9.427 -0.5184  0.9766 -1.1896
40452SOL     OW28595  11.780   3.807   3.078  0.5209  0.7607  0.1414
40452SOL    HW128596  11.704   3.853   3.114 -0.1904  0.7196 -1.2497
40452SOL    HW228597  11.790   3.730   3.133 -1.2548  0.0962 -0.4062
40453SOL     OW28598   8.256   3.971   2.131 -0.7221  0.4769  1.1670
40453SOL    HW128599   8.302   3.992   2.049 -1.4702 -0.2958  0.5369
40453SOL    HW228600   8.294   4.032   2.195  0.8968  0.1391  0.5910
40454SOL     OW28601   6.086   2.983   7.464 -0.1061 -0.0962 -0.6906
40454SOL    HW128602   6.005   3.021   7.498  1.2778  1.5526  1.0457
40454SOL    HW228603   6.127   3.053   7.414  1.4888  0.0811  0.7507
40455SOL     OW28604   8.348   2.962   2.674  0.0971 -0.2984  0.5202
40455SOL    HW128605   8.298   2.952   2.593  0.5591 -2.8806  0.4902
40455SOL    HW228606   8.416   3.026   2.652  1.0377 -1.9028 -1.6215
40456SOL     OW28607   1.214  11.931   5.198 -0.1546  0.0655  1.0583
40456SOL    HW128608   1.182  11.875   5.269 -0.6032 -0.0645  0.7569
40456SOL    HW228609   1.266  11.999   5.242  1.8012 -1.5003  1.3428
40457SOL     OW28610   8.357   9.226  12.107 -0.5797  0.0659  0.3712
40457SOL    HW128611   8.451   9.207  12.104 -0.8639 -2.2020  2.5617
40457SOL    HW228612   8.329   9.194  12.193 -3.7499 -1.4186 -1.0716
40458SOL     OW28613  12.263   1.897   2.103 -0.5353 -0.3367 -0.3815
40458SOL    HW128614  12.286   1.877   2.012  1.2216 -0.0682 -0.0139
40458SOL    HW228615  12.275   1.991   2.111  0.2790 -0.4993  0.3929
40459SOL     OW28616   4.816   7.261   1.757  0.0564 -0.8398  0.1928
40459SOL    HW128617   4.758   7.338   1.756  0.6788 -0.3505 -0.9993
40459SOL    HW228618   4.809   7.226   1.668  2.5163 -0.0238 -0.4134
40460SOL     OW28619  11.388   9.847  11.073 -0.2931 -0.2841 -0.1597
40460SOL    HW128620  11.439   9.908  11.019  0.7373 -0.8220  0.1867
40460SOL    HW228621  11.298   9.879  11.066  0.4606  2.6189  1.7502
40461SOL     OW28622   7.810   9.703  12.645 -0.5328 -0.1357 -0.4519
40461SOL    HW128623   7.883   9.699  12.583  1.8953  0.4044  2.1747
40461SOL    HW228624   7.747   9.762  12.604 -0.2097 -1.6568 -3.4200
40462SOL     OW28625  12.021   1.866  10.221 -0.1114  0.2898  0.2798
40462SOL    HW128626  12.107   1.844  10.256  0.5194  0.8448 -0.8862
40462SOL    HW228627  11.999   1.793  10.163  1.2821  1.8084 -2.3532
40463SOL     OW28628   1.221   4.030   8.653  0.4487 -0.1693  0.0807
40463SOL    HW128629   1.178   3.952   8.616 -1.8947  1.0384  0.0401
40463SOL    HW228630   1.150   4.093   8.664  1.9508  1.3400  1.8450
40464SOL     OW28631   2.903   5.889   7.633  0.2466  0.5983 -0.3359
40464SOL    HW128632   2.960   5.939   7.574  1.4492  0.4975  0.6913
40464SOL    HW228633   2.899   5.802   7.595 -0.3231  0.9516 -1.1214
40465SOL     OW28634   9.598   1.003   4.455  0.1172 -0.7683 -0.5310
40465SOL    HW128635   9.645   0.930   4.495  1.8932  0.9734  0.7188
40465SOL    HW228636   9.644   1.020   4.373  0.6545 -0.1567 -0.1185
40466SOL     OW28637  11.092  12.509  11.208  0.3366  0.4246 -0.1879
40466SOL    HW128638  11.115  12.416  11.210  0.3747  0.4422  1.3436
40466SOL    HW228639  11.070  12.531  11.298 -1.5445  1.4649 -0.8347
40467SOL     OW28640  11.840   3.633   5.345 -0.1271 -0.2186  0.2726
40467SOL    HW128641  11.913   3.579   5.375 -0.8219 -0.2585  1.9855
40467SOL    HW228642  11.882   3.709   5.305  0.8733 -0.4849  0.7800
40468SOL     OW28643   1.378   6.075  11.285  0.3533  0.0732  0.0855
40468SOL    HW128644   1.456   6.058  11.232  0.0943 -2.1923  0.3230
40468SOL    HW228645   1.378   6.006  11.351 -1.0204  0.9633  1.0763
40469SOL     OW28646   5.190   9.111  12.491  0.0430  0.2793 -0.3985
40469SOL    HW128647   5.194   9.198  12.530 -2.0381  0.6744 -0.9504
40469SOL    HW228648   5.216   9.052  12.562  1.3486  1.2974  0.0227
40470SOL     OW28649  10.538   3.754   9.890 -0.2780  0.2587 -0.4205
40470SOL    HW128650  10.595   3.724   9.819  0.6856 -0.7122  0.7111
40470SOL    HW228651  10.460   3.698   9.883  0.0212 -0.1630 -0.4304
40471SOL     OW28652   9.405   2.770   3.914 -0.2942 -0.5513  0.1585
40471SOL    HW128653   9.413   2.744   3.822 -0.2406  0.6274 -0.1923
40471SOL    HW228654   9.330   2.830   3.915 -1.8731 -2.4164  1.3328
40472SOL     OW28655   6.052   0.118   6.017 -0.4888 -0.5398  0.4173
40472SOL    HW128656   6.143   0.138   6.038 -0.6695 -0.6614  1.3470
40472SOL    HW228657   6.014   0.202   5.989 -0.3006 -0.3278  0.7973
40473SOL     OW28658   2.609   9.942  11.329 -0.8373 -0.2763  0.4239
40473SOL    HW128659   2.539   9.997  11.363  0.3619  0.4276  1.8304
40473SOL    HW228660   2.564   9.871  11.283 -2.4483  0.4375  0.8597
40474SOL     OW28661   5.530   5.788   5.265 -0.3295 -0.0179  0.3765
40474SOL    HW128662   5.496   5.739   5.340 -0.7637  0.7766  0.7106
40474SOL    HW228663   5.470   5.862   5.255 -0.8246 -0.6050 -1.3513
40475SOL     OW28664   3.595   7.539   3.776 -0.2629  0.3091 -0.5377
40475SOL    HW128665   3.673   7.490   3.749  1.0296  2.0234 -0.0863
40475SOL    HW228666   3.563   7.579   3.695 -0.1046  0.4039 -0.5524
40476SOL     OW28667   9.958   2.230   5.996 -0.3040  0.0786 -0.0734
40476SOL    HW128668   9.944   2.249   6.089 -0.7673 -0.1432 -0.0951
40476SOL    HW228669  10.029   2.166   5.995  0.0451  0.4533  0.0975
40477SOL     OW28670   2.180  10.336   4.526 -0.0308  0.5568  0.0437
40477SOL    HW128671   2.092  10.308   4.551  0.2857 -0.4337  0.0730
40477SOL    HW228672   2.180  10.332   4.430  0.3205 -0.5127  0.0827
40478SOL     OW28673   9.839   9.510   2.964 -0.0281 -0.4985 -0.2582
40478SOL    HW128674   9.745   9.522   2.968  0.0106  0.2811 -1.1788
40478SOL    HW228675   9.873   9.560   3.038 -0.4001 -1.8604  0.8673
40479SOL     OW28676   3.847   3.993  12.467  0.3771  0.1134  0.1215
40479SOL    HW128677   3.924   4.041  12.499  1.5682 -0.8647 -1.1246
40479SOL    HW228678   3.874   3.959  12.382 -0.7771 -1.8810  0.4852
40480SOL     OW28679   5.943   7.534  10.126  0.1392  0.2780  0.2763
40480SOL    HW128680   6.029   7.515  10.163  0.4252 -0.0137 -0.5324
40480SOL    HW228681   5.886   7.467  10.164 -0.0485  1.2940  1.9076
40481SOL     OW28682   5.490   6.480   8.459 -0.2667  0.1105  0.4250
40481SOL    HW128683   5.506   6.409   8.397 -0.9266  0.3921 -0.0685
40481SOL    HW228684   5.556   6.466   8.528  0.9696  0.2391 -0.7022
40482SOL     OW28685   7.349   3.897   7.992  0.1571 -0.3071  0.2672
40482SOL    HW128686   7.418   3.914   7.927  0.1642 -0.5689  0.2043
40482SOL    HW228687   7.279   3.958   7.970 -0.9551 -2.1102 -1.6299
40483SOL     OW28688  10.164  11.705   0.939 -0.1793 -0.1335  0.3736
40483SOL    HW128689  10.092  11.762   0.964  0.9171  0.8664  1.3525
40483SOL    HW228690  10.159  11.702   0.843 -0.7044  1.0271  0.3439
40484SOL     OW28691   4.760   7.213   7.929 -0.0405 -0.1544 -0.2058
40484SOL    HW128692   4.803   7.196   8.013  1.3552  0.4509 -0.7797
40484SOL    HW228693   4.728   7.303   7.936  0.4891  0.0604 -0.4826
40485SOL     OW28694   9.939   4.324   7.564 -0.8081  0.2269  0.2398
40485SOL    HW128695  10.009   4.322   7.498 -2.6081 -1.6596 -1.7845
40485SOL    HW228696   9.898   4.410   7.552  0.1798  0.7357  0.3859
40486SOL     OW28697   6.343   4.023   3.080 -0.1367  0.4224  0.8222
40486SOL    HW128698   6.401   4.098   3.091  2.7924 -1.3766 -0.9112
40486SOL    HW228699   6.382   3.955   3.135  0.8188 -1.4840 -2.0256
40487SOL     OW28700  12.533   6.708   2.843  0.1773 -0.1307  0.2759
40487SOL    HW128701  12.626   6.720   2.821  0.1577  1.1071  0.8420
40487SOL    HW228702  12.523   6.745   2.930 -0.6415 -1.2472  0.6872
40488SOL     OW28703   3.205   0.783   6.529  0.0517  0.4691  0.2646
40488SOL    HW128704   3.189   0.857   6.470  1.4746 -0.1509 -0.9398
40488SOL    HW228705   3.254   0.720   6.477 -0.8369 -1.2135  1.3700
40489SOL     OW28706  10.251   9.731   7.775 -0.0628  0.2374  0.1673
40489SOL    HW128707  10.170   9.763   7.814 -1.0188  0.2993 -1.7639
40489SOL    HW228708  10.230   9.643   7.744  0.7616  0.0674  0.0488
40490SOL     OW28709   4.296   4.051  10.047  0.3085 -0.1641 -0.1096
40490SOL    HW128710   4.278   4.130  10.098  2.0460 -0.0401  0.3553
40490SOL    HW228711   4.248   4.065   9.965  0.9781  1.6215 -0.2476
40491SOL     OW28712  12.234   0.155   2.951  0.3574  0.7711 -0.0716
40491SOL    HW128713  12.280   0.086   2.905  0.1365  0.9256 -0.5288
40491SOL    HW228714  12.282   0.165   3.034  0.5753  0.2931 -0.1372
40492SOL     OW28715   7.306   5.976  11.501  1.0031 -0.3788  0.3612
40492SOL    HW128716   7.399   5.954  11.507  0.6434 -1.8885  1.0762
40492SOL    HW228717   7.271   5.957  11.588 -0.0330 -0.0962  0.0312
40493SOL     OW28718  10.822  11.380   0.630 -0.1495 -0.1754 -0.2567
40493SOL    HW128719  10.776  11.461   0.653 -1.7133 -0.6562 -1.4563
40493SOL    HW228720  10.889  11.370   0.697  1.0384  2.8148 -0.8313
40494SOL     OW28721  11.727   1.435   5.047  0.2424 -0.2718 -0.0918
40494SOL    HW128722  11.711   1.371   4.978  1.3424 -0.1655 -0.4536
40494SOL    HW228723  11.693   1.518   5.013  0.8486 -0.2054 -0.5349
40495SOL     OW28724   3.139   7.230   4.457 -0.4196  0.1553  0.0638
40495SOL    HW128725   3.177   7.317   4.464  0.6797 -0.3116  0.2414
40495SOL    HW228726   3.045   7.243   4.468 -0.3072  1.3472 -0.2519
40496SOL     OW28727   0.001  11.178   2.127 -0.0978 -0.8771 -0.5213
40496SOL    HW128728   0.069  11.243   2.143 -0.2394 -0.4637 -1.5558
40496SOL    HW228729  -0.056  11.184   2.204  0.0863 -0.0277 -0.4393
40497SOL     OW28730  11.930  11.158   1.544  0.0782  0.2205 -0.4041
40497SOL    HW128731  11.868  11.223   1.512  1.2373  2.1735  1.0617
40497SOL    HW228732  11.896  11.131   1.630  0.6531  0.4716 -0.0856
40498SOL     OW28733   7.568   9.625   1.029  0.3420  0.4753  0.4959
40498SOL    HW128734   7.582   9.532   1.012  0.4059  0.5830 -0.0501
40498SOL    HW228735   7.653   9.658   1.056 -0.0222  0.0401  2.3372
40499SOL     OW28736   4.596   4.677   7.943  0.3201 -0.4673  0.0581
40499SOL    HW128737   4.631   4.679   7.854  0.5200 -2.7780  0.0306
40499SOL    HW228738   4.671   4.694   7.999  0.4713 -0.4077 -0.1621
40500SOL     OW28739   5.735   0.144   9.434 -0.0938 -0.6248 -0.4684
40500SOL    HW128740   5.702   0.233   9.448 -1.7881 -1.2630 -0.1112
40500SOL    HW228741   5.814   0.155   9.382 -0.6036  1.0602 -0.9354
40501SOL     OW28742   4.575   6.169   8.806  0.3107  0.1788 -0.3982
40501SOL    HW128743   4.654   6.128   8.771  1.1358 -0.3037  1.8577
40501SOL    HW228744   4.605   6.221   8.880 -1.5864 -1.3601  1.6256
40502SOL     OW28745   5.204   3.334  11.131 -0.2243 -0.0841 -0.5515
40502SOL    HW128746   5.155   3.398  11.182 -0.0035  1.9143 -2.6581
40502SOL    HW228747   5.137   3.279  11.091 -0.4419 -0.9124  0.9161
40503SOL     OW28748  10.990   8.623  11.784  0.1728 -0.2643  0.4327
40503SOL    HW128749  10.986   8.574  11.865  0.6936  0.3845  0.8628
40503SOL    HW228750  11.003   8.714  11.811  1.5508 -0.1799 -0.3806
40504SOL     OW28751   9.694   5.936   9.742  0.2090 -0.4016 -0.2864
40504SOL    HW128752   9.602   5.907   9.744  0.1050 -0.0423  0.7810
40504SOL    HW228753   9.696   6.005   9.676 -0.0839 -1.0654 -1.0008
40505SOL     OW28754   7.916   0.141  11.571 -0.0067 -0.2521  0.2336
40505SOL    HW128755   8.000   0.120  11.529 -0.7240  0.3999 -1.6355
40505SOL    HW228756   7.930   0.227  11.611  0.1133  0.0276 -0.4023
40506SOL     OW28757   4.979   2.796   8.642 -0.1366 -0.4008 -0.3483
40506SOL    HW128758   4.889   2.786   8.610 -1.4752 -2.3580  3.4730
40506SOL    HW228759   4.973   2.863   8.710  1.5978  0.2111 -0.7464
40507SOL     OW28760   1.292   0.592   7.586  0.6391  0.2750  0.6219
40507SOL    HW128761   1.289   0.621   7.677 -0.0691 -1.3121  1.1220
40507SOL    HW228762   1.355   0.520   7.586  0.1666 -0.1428 -0.0337
40508SOL     OW28763   4.128  11.348   3.951 -0.2046 -0.1246  0.1070
40508SOL    HW128764   4.128  11.423   3.892 -1.9352  0.8421  1.2290
40508SOL    HW228765   4.035  11.330   3.966  0.1887 -1.2061  1.4273
40509SOL     OW28766  11.371   2.053   9.730 -0.4409  0.2971 -0.0492
40509SOL    HW128767  11.324   1.990   9.675 -1.0955  0.5107  0.2542
40509SOL    HW228768  11.329   2.045   9.816  0.4458  0.1034  0.3729
40510SOL     OW28769   6.160  11.846   1.558  0.3030 -0.1606  0.3408
40510SOL    HW128770   6.221  11.916   1.536 -1.5621  1.1738 -0.9705
40510SOL    HW228771   6.188  11.771   1.505  0.9813  0.3387 -0.0150
40511SOL     OW28772  10.420   7.058   2.673 -0.2329  0.3974  0.7618
40511SOL    HW128773  10.487   7.021   2.730 -0.4901 -1.0656  0.1578
40511SOL    HW228774  10.468   7.090   2.597 -0.0558  0.8841  1.0744
40512SOL     OW28775   0.656  12.497   8.880  0.1849 -0.1255 -0.4549
40512SOL    HW128776   0.606  12.550   8.818 -0.5619  0.2942  0.4851
40512SOL    HW228777   0.631  12.406   8.860  0.5923 -0.0591 -1.3071
40513SOL     OW28778  11.890   0.477   6.546 -0.2386 -0.3978 -0.0034
40513SOL    HW128779  11.857   0.482   6.456 -0.1574 -0.8823 -0.0687
40513SOL    HW228780  11.935   0.560   6.560 -0.7240 -0.0976 -0.2193
40514SOL     OW28781   1.172   1.389   5.649 -0.4305 -0.4283  0.0307
40514SOL    HW128782   1.107   1.341   5.701  1.1958 -1.1493  1.5291
40514SOL    HW228783   1.242   1.408   5.712  0.5736  0.7491 -1.4053
40515SOL     OW28784   7.542   3.330   6.079 -0.2479 -0.4239  0.7206
40515SOL    HW128785   7.504   3.250   6.043 -1.8311 -0.2924  1.9975
40515SOL    HW228786   7.618   3.300   6.130  1.6626 -0.6636 -2.0681
40516SOL     OW28787   3.071   7.781   2.457  0.0983  0.1000 -0.1763
40516SOL    HW128788   3.144   7.759   2.399  1.7381 -0.7312  2.0723
40516SOL    HW228789   3.071   7.877   2.459  1.3921  0.1270  0.0146
40517SOL     OW28790  10.528  10.241   8.963 -0.0625  0.7357  0.4659
40517SOL    HW128791  10.560  10.262   8.875  0.8744  0.5689  0.7670
40517SOL    HW228792  10.581  10.167   8.992 -0.0872  1.0482  1.3410
40518SOL     OW28793   8.381  12.407   6.843  0.4905  0.0397  0.1577
40518SOL    HW128794   8.371  12.344   6.771 -0.8782 -2.6500  2.5062
40518SOL    HW228795   8.299  12.456   6.844  1.1385  1.2281 -1.0060
40519SOL     OW28796   0.763  12.134   3.739  0.1012 -0.6219 -0.1413
40519SOL    HW128797   0.816  12.128   3.659  0.4370  0.3696 -0.0148
40519SOL    HW228798   0.733  12.225   3.740  1.4326 -0.1462  1.6774
40520SOL     OW28799   8.362   0.263   5.527  0.0485 -0.4695  0.6485
40520SOL    HW128800   8.277   0.267   5.570 -0.1764  1.6976  0.0734
40520SOL    HW228801   8.349   0.203   5.453 -1.0082 -0.0327  0.4691
40521SOL     OW28802   1.249   5.221   6.837  0.0771  0.1984 -0.4271
40521SOL    HW128803   1.282   5.298   6.791 -0.0137  1.0037  0.7933
40521SOL    HW228804   1.197   5.257   6.909 -0.5207 -1.0168 -0.2319
40522SOL     OW28805   4.295   4.958   5.291  0.4955 -0.0255 -0.4346
40522SOL    HW128806   4.356   5.018   5.334  2.6933 -0.8130 -2.2455
40522SOL    HW228807   4.262   5.007   5.216  0.6230 -0.3632 -0.7131
40523SOL     OW28808  10.210   5.792   7.856 -0.0524  0.2188 -0.0852
40523SOL    HW128809  10.241   5.881   7.838 -0.1954  0.4969  1.0289
40523SOL    HW228810  10.243   5.772   7.943 -0.6571 -0.5424 -0.0229
40524SOL     OW28811   2.141   0.081  10.551  0.4198 -0.4289 -0.3557
40524SOL    HW128812   2.063   0.087  10.606 -0.9550 -1.8966 -2.0474
40524SOL    HW228813   2.134   0.156  10.491  0.3401 -0.5354 -0.4788
40525SOL     OW28814   5.755   1.274   3.567 -0.0316 -0.4919 -0.1101
40525SOL    HW128815   5.721   1.287   3.656 -0.9890 -2.9913 -0.0184
40525SOL    HW228816   5.677   1.272   3.512  0.4231 -0.5758 -0.7622
40526SOL     OW28817   2.169  11.037   2.161 -0.2264  0.3679  0.1655
40526SOL    HW128818   2.238  10.984   2.202  2.2544  3.3203  0.1405
40526SOL    HW228819   2.119  11.071   2.235 -0.0238  0.3073  0.3322
40527SOL     OW28820   6.093   9.306   3.171  0.1079 -0.2045  0.2695
40527SOL    HW128821   6.011   9.340   3.136  0.0244 -0.4002  0.2710
40527SOL    HW228822   6.104   9.221   3.128  1.6389  0.9255 -1.7317
40528SOL     OW28823  12.565   3.561  11.235 -0.1878 -0.1689  0.1131
40528SOL    HW128824  12.642   3.569  11.180  0.8639 -2.2323  1.1852
40528SOL    HW228825  12.492   3.551  11.173  0.6985 -0.4527 -0.9105
40529SOL     OW28826  10.485   2.675   0.011  0.5495  0.2703  0.5277
40529SOL    HW128827  10.390   2.682   0.014  0.2851 -1.3506 -1.5267
40529SOL    HW228828  10.505   2.658  -0.081  2.7137 -0.7708  1.1194
40530SOL     OW28829  12.413  12.251   1.986 -0.0654 -0.0519  0.0029
40530SOL    HW128830  12.476  12.254   1.914 -1.1586 -0.1662 -1.0066
40530SOL    HW228831  12.426  12.333   2.033 -0.1898  0.6346 -1.1166
40531SOL     OW28832  10.692  12.180   6.944 -0.3437  0.0695 -0.2155
40531SOL    HW128833  10.599  12.167   6.965 -0.4955  1.7426  0.2590
40531SOL    HW228834  10.698  12.272   6.917  1.2494  0.1076  0.1753
40532SOL     OW28835   0.828   2.413   4.550  0.1416 -0.1382 -0.3941
40532SOL    HW128836   0.843   2.465   4.629  1.1944  1.2738 -1.4666
40532SOL    HW228837   0.760   2.460   4.503 -0.9377 -1.3214 -0.0547
40533SOL     OW28838   3.598   7.620  10.195  0.0118 -0.0882  0.8246
40533SOL    HW128839   3.615   7.709  10.226  0.1914 -0.1871  1.0131
40533SOL    HW228840   3.575   7.571  10.274 -0.9001 -0.0203  0.6122
40534SOL     OW28841  10.362   2.223   4.065 -0.3947 -0.3647  0.3507
40534SOL    HW128842  10.386   2.146   4.118  0.1567 -0.9908 -0.7546
40534SOL    HW228843  10.290   2.264   4.113 -0.6224 -1.5047  1.0320
40535SOL     OW28844   2.009   8.301   9.587  0.6717  0.0711  1.1678
40535SOL    HW128845   2.075   8.324   9.522  2.8862 -0.9336  2.9563
40535SOL    HW228846   2.057   8.291   9.669 -1.5768 -1.4624  2.4249
40536SOL     OW28847  11.059  11.780   6.455 -0.5337  0.1671  0.2181
40536SOL    HW128848  11.145  11.744   6.475 -0.0769  1.9183  1.6565
40536SOL    HW228849  11.069  11.820   6.369 -0.4328 -1.0948 -0.3855
40537SOL     OW28850   2.610   9.230   4.511 -0.1747 -0.2250  0.4695
40537SOL    HW128851   2.536   9.239   4.571 -0.1387  0.3238  0.4394
40537SOL    HW228852   2.684   9.269   4.557 -0.5095  1.7534 -0.5610
40538SOL     OW28853   3.603  10.731   2.612  0.5028 -0.0042 -0.2177
40538SOL    HW128854   3.675  10.692   2.564  0.5237 -0.0890 -0.1186
40538SOL    HW228855   3.526  10.718   2.556  0.1491 -1.8758  0.6233
40539SOL     OW28856   2.871   4.573   7.417  0.1284 -0.0365 -0.3471
40539SOL    HW128857   2.799   4.537   7.365 -1.5355  0.2373  1.6341
40539SOL    HW228858   2.862   4.530   7.502  3.3937 -1.2758 -0.4736
40540SOL     OW28859   9.074   5.658   0.569  0.0519  0.0921 -0.0462
40540SOL    HW128860   9.006   5.608   0.614  0.8766 -0.9403  0.0851
40540SOL    HW228861   9.083   5.616   0.483 -0.4822  1.1324 -0.6302
40541SOL     OW28862   8.926   5.644   0.168  0.0448 -0.4846  0.4560
40541SOL    HW128863   8.962   5.731   0.150 -0.4288 -0.5366 -0.8424
40541SOL    HW228864   8.997   5.597   0.211  1.5114 -0.5209 -1.8545
40542SOL     OW28865   5.946   1.581   8.354  0.7126 -0.1025 -0.5444
40542SOL    HW128866   5.891   1.652   8.321  0.2152 -0.4246 -0.4149
40542SOL    HW228867   5.901   1.549   8.433  1.3336 -0.0502 -0.1593
40543SOL     OW28868  10.784   2.070   8.415 -0.1958 -0.2753 -0.2137
40543SOL    HW128869  10.745   1.995   8.461 -0.1227 -0.4455 -0.4279
40543SOL    HW228870  10.793   2.041   8.324 -2.0248  0.6927 -0.7520
40544SOL     OW28871  11.585   7.076   5.460 -0.0608  0.0697 -0.1242
40544SOL    HW128872  11.606   7.129   5.384 -1.0358  1.3228  0.4495
40544SOL    HW228873  11.637   6.996   5.449 -0.6711 -0.0558 -2.4032
40545SOL     OW28874   9.894  12.292  10.022  0.6903  0.5616  0.0862
40545SOL    HW128875   9.885  12.201   9.996 -1.8678  0.3927  1.2915
40545SOL    HW228876   9.972  12.323   9.976  1.2888 -2.0509 -0.7871
40546SOL     OW28877   0.989   4.282   7.884 -0.2761  0.5458  0.9702
40546SOL    HW128878   0.897   4.257   7.884  0.0309 -0.7004 -0.3380
40546SOL    HW228879   1.003   4.320   7.797  1.1730 -2.3231 -0.1708
40547SOL     OW28880  11.760   6.845   1.149  0.2696 -0.0314  0.0743
40547SOL    HW128881  11.735   6.871   1.238  0.6767 -0.2253  0.2490
40547SOL    HW228882  11.811   6.765   1.161 -1.3448 -1.1925 -0.4848
40548SOL     OW28883   0.641   2.450  11.250  0.1425 -0.3198  0.2004
40548SOL    HW128884   0.625   2.524  11.191 -1.1817 -0.5074  0.3043
40548SOL    HW228885   0.625   2.373  11.196  2.4963 -0.6203 -0.2011
40549SOL     OW28886   9.398  10.060  11.265 -0.7627  0.3917  0.0597
40549SOL    HW128887   9.338  10.019  11.327 -0.3141  1.2520  1.0853
40549SOL    HW228888   9.379  10.154  11.270  2.1940  1.0284  2.2114
40550SOL     OW28889  11.427   6.689  12.545  0.1014 -0.6978  0.6469
40550SOL    HW128890  11.467   6.745  12.479  1.4411 -2.2283  0.0789
40550SOL    HW228891  11.417   6.745  12.621  0.5594  0.5390 -0.1663
40551SOL     OW28892   6.937   1.042   2.138 -0.1382 -0.1959 -0.0365
40551SOL    HW128893   7.023   1.047   2.096 -0.7820 -0.1526 -1.4128
40551SOL    HW228894   6.952   1.074   2.227  0.4478  4.4101 -1.5452
40552SOL     OW28895  12.471   3.060   9.863  0.2335  0.0790  0.3862
40552SOL    HW128896  12.516   3.094   9.786  0.8947  0.8021  1.0605
40552SOL    HW228897  12.526   2.988   9.894 -1.5177 -2.1845 -1.4305
40553SOL     OW28898  10.063  12.259   0.065 -0.3618  0.2054  0.4710
40553SOL    HW128899  10.038  12.321  -0.003  1.5080  1.2797  0.6804
40553SOL    HW228900  10.072  12.175   0.019 -1.9508  0.2782 -0.0099
40554SOL     OW28901   0.055   9.909  11.302 -0.2172  0.5054 -0.0903
40554SOL    HW128902   0.092   9.974  11.362 -0.5251 -0.1736  0.8571
40554SOL    HW228903   0.129   9.855  11.276 -0.4076 -0.6237  1.5187
40555SOL     OW28904   2.975   4.449   1.797  0.3573  0.2118 -0.7258
40555SOL    HW128905   2.888   4.414   1.775 -0.1159  0.4863  0.5738
40555SOL    HW228906   2.967   4.543   1.784  0.7654  0.1476 -1.5066
40556SOL     OW28907  10.286   3.799  10.728 -0.0533  0.4453 -0.4585
40556SOL    HW128908  10.208   3.748  10.749  0.1153  0.2956 -0.1886
40556SOL    HW228909  10.255   3.890  10.725  0.0799  0.5900  1.3883
40557SOL     OW28910   4.731   0.693   3.418 -0.1528  0.2669  0.1125
40557SOL    HW128911   4.769   0.637   3.351  0.3353  1.5846 -0.7443
40557SOL    HW228912   4.706   0.633   3.488  0.1346 -1.0344 -0.8692
40558SOL     OW28913   9.811   2.973  11.689  0.3140 -0.0760 -0.3901
40558SOL    HW128914   9.905   2.958  11.675  0.0221 -0.6175 -1.9212
40558SOL    HW228915   9.786   2.909  11.756  0.9226 -0.2846 -0.3520
40559SOL     OW28916  10.810   3.938   5.964  0.8733  0.1228  0.3655
40559SOL    HW128917  10.731   3.906   5.921  1.1189  0.0512 -0.0408
40559SOL    HW228918  10.798   3.917   6.056 -0.5039  1.9506  0.6600
40560SOL     OW28919   3.751  10.797   0.281  0.0798 -0.0881  0.5993
40560SOL    HW128920   3.754  10.827   0.190  1.8893 -0.3262  0.5316
40560SOL    HW228921   3.668  10.830   0.314 -1.1193 -0.8687 -1.4135
40561SOL     OW28922   8.389   3.175   5.697  0.1312  0.0450 -0.0047
40561SOL    HW128923   8.380   3.233   5.621 -0.9361  2.2868  1.6864
40561SOL    HW228924   8.480   3.184   5.724  0.5318 -0.8145 -1.0204
40562SOL     OW28925   3.922   1.710  12.198 -0.2432 -0.6668 -0.1609
40562SOL    HW128926   3.975   1.775  12.243 -1.9408  1.1296 -0.6504
40562SOL    HW228927   3.887   1.654  12.268 -1.8293  1.3088  0.7216
40563SOL     OW28928   0.468  10.789  10.003  0.2015  0.3164 -0.0260
40563SOL    HW128929   0.434  10.799   9.914  0.4404 -1.7585 -0.4164
40563SOL    HW228930   0.420  10.853  10.055 -2.9866 -1.1484 -0.9071
40564SOL     OW28931   4.397   8.290   0.703 -0.4406  0.1436 -0.0885
40564SOL    HW128932   4.312   8.334   0.697 -0.5355  0.1352  0.9851
40564SOL    HW228933   4.380   8.200   0.676 -0.8390  0.0695  0.3936
40565SOL     OW28934   9.977   7.336   6.459 -0.0577  0.3610  0.4935
40565SOL    HW128935   9.948   7.246   6.443  1.2472 -0.4434  2.2099
40565SOL    HW228936   9.919   7.369   6.527 -1.3008  1.3090 -0.9597
40566SOL     OW28937   4.954   3.135   0.071 -0.5228  0.0288 -0.2044
40566SOL    HW128938   4.962   3.056   0.018  2.2667 -1.0821  1.6140
40566SOL    HW228939   4.933   3.204   0.009 -1.4500 -1.8472 -2.0892
40567SOL     OW28940   7.821  12.230   4.257  0.4594 -0.2029 -0.3336
40567SOL    HW128941   7.846  12.249   4.347  0.8040  0.4175 -0.5496
40567SOL    HW228942   7.729  12.254   4.251  0.1495 -1.2138  0.1131
40568SOL     OW28943  10.939  10.998   7.666  0.2006  0.1793  0.3300
40568SOL    HW128944  11.026  11.020   7.698  0.5152 -0.3483 -0.1394
40568SOL    HW228945  10.951  10.915   7.620 -0.8714 -0.8007  1.7269
40569SOL     OW28946   1.714   2.928  10.748  0.3778  0.0205  0.1973
40569SOL    HW128947   1.783   2.922  10.814  0.6069 -2.1782 -0.1642
40569SOL    HW228948   1.720   2.845  10.699 -3.0497 -0.6546  0.7008
40570SOL     OW28949   8.162   8.541   4.854  0.0628 -0.3346  0.2738
40570SOL    HW128950   8.230   8.590   4.900  0.7175  0.4720 -1.4642
40570SOL    HW228951   8.191   8.538   4.763 -0.7494 -2.6405  0.0219
40571SOL     OW28952   8.233   9.101   2.215  0.6704  0.0643 -0.0712
40571SOL    HW128953   8.264   9.084   2.126 -0.3272 -0.9955 -0.2421
40571SOL    HW228954   8.263   9.026   2.267  0.3931  0.1797  0.2631
40572SOL     OW28955   5.603   8.706   7.603 -0.1602  0.4283 -0.0015
40572SOL    HW128956   5.549   8.662   7.668 -1.9153  0.3766 -1.3944
40572SOL    HW228957   5.576   8.798   7.608  1.2097  0.8049  0.7515
40573SOL     OW28958  10.177   6.384   5.002  0.8755  0.3147 -0.1151
40573SOL    HW128959  10.096   6.374   5.051  1.9806  0.6727  1.8867
40573SOL    HW228960  10.153   6.366   4.911 -1.2269 -0.5103  0.5622
40574SOL     OW28961   5.475   9.381  12.340  0.4161  0.4117  0.4647
40574SOL    HW128962   5.546   9.343  12.289  1.7255  2.4588  0.6430
40574SOL    HW228963   5.396   9.366  12.288  1.1462 -0.8453 -0.3136
40575SOL     OW28964  11.994   3.800   1.072  0.1952  0.4658  0.4112
40575SOL    HW128965  11.955   3.787   1.159 -0.6168  0.2229  0.0235
40575SOL    HW228966  12.030   3.715   1.049 -1.8095 -0.1934 -0.5325
40576SOL     OW28967   8.665   1.581  11.433  0.4818  0.2745  0.4505
40576SOL    HW128968   8.645   1.512  11.497  1.5725  0.6683  1.2558
40576SOL    HW228969   8.584   1.632  11.426 -0.3220 -1.0377 -0.1132
40577SOL     OW28970   7.518   8.523   2.242 -0.2159  0.3059 -0.6927
40577SOL    HW128971   7.432   8.543   2.204  0.7213  2.8341 -1.6584
40577SOL    HW228972   7.527   8.584   2.315  0.5962 -0.2206 -0.3414
40578SOL     OW28973   1.472   5.001  11.927  0.1465 -0.0544  0.3001
40578SOL    HW128974   1.520   4.945  11.866  0.6403 -0.9039  1.4450
40578SOL    HW228975   1.387   4.957  11.938  0.2954 -0.2329  0.7154
40579SOL     OW28976   9.594   6.819   6.503 -0.4032  0.4440 -0.0319
40579SOL    HW128977   9.684   6.787   6.503 -1.2253 -2.1328  1.6147
40579SOL    HW228978   9.587   6.871   6.423  2.1164 -0.5322 -0.9805
40580SOL     OW28979   5.722   0.370  10.520 -0.2324 -0.6096 -0.8764
40580SOL    HW128980   5.630   0.349  10.539 -0.0697 -0.5198  0.0445
40580SOL    HW228981   5.763   0.284  10.507 -0.1201 -0.7550  0.3032
40581SOL     OW28982   2.407   6.925  10.556 -0.2176 -0.4570  0.4991
40581SOL    HW128983   2.338   6.990  10.556 -0.9556 -1.2291  0.1653
40581SOL    HW228984   2.429   6.913  10.648  0.4486  0.7939  0.5206
40582SOL     OW28985   3.773   3.826  10.370 -0.2840 -0.1444  0.4808
40582SOL    HW128986   3.814   3.739  10.375  0.3915  0.0854 -0.5148
40582SOL    HW228987   3.835   3.884  10.413  0.2480  0.1319 -0.6082
40583SOL     OW28988   4.742   2.061   9.898 -0.2456 -0.5707  0.1211
40583SOL    HW128989   4.725   1.976   9.939 -0.0482 -0.5508  0.2439
40583SOL    HW228990   4.825   2.089   9.936 -1.8477  1.2129  2.6262
40584SOL     OW28991  10.511   6.559  12.566  0.7576  0.1709  0.0693
40584SOL    HW128992  10.565   6.635  12.588  1.0014  0.3904 -1.2084
40584SOL    HW228993  10.545   6.488  12.621  0.1480  1.0938  1.7136
40585SOL     OW28994   6.589   7.546   6.093 -0.4812 -0.3171  0.3034
40585SOL    HW128995   6.531   7.488   6.142 -0.8152 -0.9057 -0.7552
40585SOL    HW228996   6.536   7.624   6.076 -0.1066  0.2169  1.5322
40586SOL     OW28997   5.747   2.296   8.302 -0.4082 -0.2044 -0.1591
40586SOL    HW128998   5.821   2.237   8.316 -0.2779 -0.2844 -1.1800
40586SOL    HW228999   5.740   2.343   8.385  0.7157 -0.2720 -0.0014
40587SOL     OW29000   3.687   1.030   3.021 -0.5705  0.1231  0.4856
40587SOL    HW129001   3.704   0.970   2.948 -2.8524 -0.7987  0.5969
40587SOL    HW229002   3.767   1.080   3.031  1.3536 -2.6238  0.1023
40588SOL     OW29003   9.260   1.198   8.061 -0.4531  0.4895 -0.0558
40588SOL    HW129004   9.307   1.271   8.020  0.6066 -0.8150 -1.2569
40588SOL    HW229005   9.283   1.203   8.153  1.3120  0.4553 -0.4658
40589SOL     OW29006  10.170   7.278   6.303 -0.6515  0.0871  0.1233
40589SOL    HW129007  10.217   7.278   6.386 -0.6457  1.4541  0.1416
40589SOL    HW229008  10.090   7.328   6.320 -0.0647  1.4823 -0.9800
40590SOL     OW29009   7.095   4.602   8.105 -0.2760  0.3075 -0.1726
40590SOL    HW129010   7.044   4.557   8.038  0.2502 -1.1206  0.3477
40590SOL    HW229011   7.181   4.560   8.102 -0.4972 -0.4285  1.9697
40591SOL     OW29012   7.189  12.604  11.246  0.3711  0.5939 -0.0918
40591SOL    HW129013   7.228  12.627  11.162  0.7024  0.2451 -0.0338
40591SOL    HW229014   7.252  12.544  11.286 -0.3145 -0.1309 -0.0841
40592SOL     OW29015   5.437   6.064   2.095  0.4849  0.6727  0.0918
40592SOL    HW129016   5.398   6.121   2.028 -0.3244  0.0442  0.0086
40592SOL    HW229017   5.364   6.009   2.124  1.0878  0.1827  0.6966
40593SOL     OW29018   8.382   3.097   2.091  0.1269  0.3989  0.2824
40593SOL    HW129019   8.331   3.069   2.015 -1.0095  1.1660  0.7256
40593SOL    HW229020   8.380   3.193   2.086 -0.2141  0.4614  1.4196
40594SOL     OW29021   8.293   7.976   4.516  0.2511  0.1175  0.2993
40594SOL    HW129022   8.329   7.889   4.536 -0.5678 -0.3052 -0.0293
40594SOL    HW229023   8.325   8.032   4.587 -2.2379 -1.2657  2.7184
40595SOL     OW29024   8.846  11.749   5.443  0.1881 -0.2599 -0.5652
40595SOL    HW129025   8.925  11.790   5.478 -0.8468  2.1195 -0.8151
40595SOL    HW229026   8.800  11.715   5.519  0.6348 -0.1132 -0.2281
40596SOL     OW29027   1.815  10.361   8.229 -0.4966 -0.2063  0.4366
40596SOL    HW129028   1.729  10.403   8.226 -0.6676 -0.2679  2.6123
40596SOL    HW229029   1.855  10.394   8.310  1.0131 -1.1451  0.1139
40597SOL     OW29030  10.446  12.383   1.078 -0.2671  0.2476 -0.1516
40597SOL    HW129031  10.498  12.333   1.015 -1.0295 -0.4650 -0.2297
40597SOL    HW229032  10.400  12.317   1.130 -1.3654  0.8441 -0.3174
40598SOL     OW29033   6.312   8.578   9.282  0.0809 -0.0329 -0.1535
40598SOL    HW129034   6.220   8.556   9.300  0.1876  0.0157  0.4921
40598SOL    HW229035   6.307   8.650   9.219 -0.2648 -1.8044 -2.2474
40599SOL     OW29036  12.393   1.100   6.736 -0.2728 -0.3156  0.5845
40599SOL    HW129037  12.308   1.126   6.703 -0.3023 -1.0163  0.0967
40599SOL    HW229038  12.411   1.015   6.695  0.7112 -0.1254  0.5771
40600SOL     OW29039   2.811   0.289   3.995  0.4133 -0.1070 -0.1848
40600SOL    HW129040   2.808   0.195   3.980  1.0883  0.1099 -1.8705
40600SOL    HW229041   2.831   0.327   3.910 -0.2809  1.6111  0.3669
40601SOL     OW29042   7.412   8.458   3.324 -0.0933 -0.1570 -0.0926
40601SOL    HW129043   7.470   8.451   3.248 -1.2472  0.3560 -1.0536
40601SOL    HW229044   7.365   8.374   3.327 -1.6372  0.6157 -1.3169
40602SOL     OW29045   7.239   4.324  10.821 -0.3739  0.4362 -0.3872
40602SOL    HW129046   7.288   4.243  10.835  1.2146  1.5471  0.7960
40602SOL    HW229047   7.197   4.312  10.735  0.0601 -1.4919 -0.3708
40603SOL     OW29048   6.719   1.470   4.264 -0.4204 -0.1422 -0.5164
40603SOL    HW129049   6.697   1.382   4.294  1.0128  0.1476  1.5726
40603SOL    HW229050   6.810   1.483   4.292 -0.5075  1.9054 -1.0113
40604SOL     OW29051   2.208  11.630   3.469  0.1213 -0.2898 -0.1292
40604SOL    HW129052   2.278  11.662   3.412  0.1600  0.0183  0.0864
40604SOL    HW229053   2.249  11.623   3.555  0.2780 -1.5017 -0.2837
40605SOL     OW29054   8.833   9.124   5.835 -0.0274  0.0580 -0.2749
40605SOL    HW129055   8.914   9.171   5.816  0.0677  0.2056  0.4618
40605SOL    HW229056   8.843   9.040   5.790  0.6837 -0.0539  0.0668
40606SOL     OW29057   0.922   4.105   6.683  0.3108 -0.5789 -0.0101
40606SOL    HW129058   0.829   4.126   6.693  0.4326 -0.0227 -0.0125
40606SOL    HW229059   0.929   4.014   6.712 -0.5991 -1.3643 -2.0428
40607SOL     OW29060   5.659   7.348   7.757  0.0616 -0.4540 -0.3216
40607SOL    HW129061   5.685   7.259   7.781 -0.4555 -0.7589 -0.8519
40607SOL    HW229062   5.733   7.383   7.708  0.1509 -0.6932 -0.3542
40608SOL     OW29063   4.016  10.364  12.253  0.2313 -0.3632 -0.0769
40608SOL    HW129064   3.996  10.453  12.283 -0.0087 -0.0284 -1.2123
40608SOL    HW229065   3.935  10.334  12.210 -0.9237 -2.4170  3.1241
40609SOL     OW29066   1.906   9.294   3.612 -0.4138 -0.4958  0.7818
40609SOL    HW129067   1.887   9.379   3.652  1.6237  0.6582 -0.5192
40609SOL    HW229068   1.825   9.270   3.567 -0.5646  1.5874 -0.2026
40610SOL     OW29069   4.796  10.683   0.758  0.5324 -0.6499 -0.1097
40610SOL    HW129070   4.819  10.775   0.769  0.8417 -0.9985  2.7763
40610SOL    HW229071   4.849  10.655   0.683  2.1721  0.9629  0.3556
40611SOL     OW29072   5.800   5.358   0.749 -0.9364 -0.4850 -0.1421
40611SOL    HW129073   5.816   5.426   0.814 -2.5475 -0.3102  0.1188
40611SOL    HW229074   5.820   5.400   0.665 -1.3753  0.1479  0.0600
40612SOL     OW29075   6.763   0.295  10.713  0.3058  0.8653  0.5560
40612SOL    HW129076   6.761   0.215  10.662 -0.2177  1.2945 -0.1139
40612SOL    HW229077   6.671   0.323  10.718  0.6722  2.6463 -1.2267
40613SOL     OW29078   3.942   9.045   5.224 -0.1162 -0.2127  0.6506
40613SOL    HW129079   3.957   8.974   5.161  0.8046  0.5449 -0.0189
40613SOL    HW229080   3.862   9.020   5.270 -0.7288 -0.8769 -0.7152
40614SOL     OW29081  11.937   0.258   6.172 -0.3973 -0.2517  0.7368
40614SOL    HW129082  12.008   0.299   6.222  1.3417 -0.5998 -1.2994
40614SOL    HW229083  11.949   0.164   6.185  0.0550 -0.3457 -0.2534
40615SOL     OW29084  11.769  11.553   6.390  0.2725 -0.1813 -0.1130
40615SOL    HW129085  11.819  11.478   6.422  2.6315  0.0091 -2.8776
40615SOL    HW229086  11.789  11.557   6.296 -2.5439  1.8740 -0.7888
40616SOL     OW29087   2.260   1.876   9.306  0.9708 -0.2418  0.3702
40616SOL    HW129088   2.286   1.790   9.340  2.1440 -0.1875 -0.3459
40616SOL    HW229089   2.165   1.870   9.299  0.9908 -1.3454  0.6945
40617SOL     OW29090   3.017   2.824  10.735  0.2134  0.3350 -0.0971
40617SOL    HW129091   3.067   2.875  10.671 -0.2802 -0.1372 -0.8633
40617SOL    HW229092   3.072   2.824  10.813  1.5521 -0.4114 -1.0015
40618SOL     OW29093   3.865  12.663   5.946 -0.4005  0.0543 -0.0358
40618SOL    HW129094   3.958  12.679   5.955 -0.6646  1.5284  0.2948
40618SOL    HW229095   3.854  12.633   5.856  0.4236 -0.4902  0.0379
40619SOL     OW29096  11.111   3.965   8.092 -0.4350  0.7766  0.1324
40619SOL    HW129097  11.136   3.893   8.033  0.6777 -1.6965  3.3653
40619SOL    HW229098  11.188   4.021   8.094  0.1653 -0.0339  0.4723
40620SOL     OW29099   5.087   9.630   5.331  0.0384  0.4275  0.1848
40620SOL    HW129100   4.999   9.609   5.300 -0.2001  1.5620  0.0236
40620SOL    HW229101   5.073   9.678   5.413  0.3828  2.2059 -0.7458
40621SOL     OW29102  10.256   4.821   1.947  0.1223 -0.4614 -0.4493
40621SOL    HW129103  10.249   4.805   1.853 -2.0236 -3.0075 -0.0001
40621SOL    HW229104  10.229   4.738   1.987 -1.2864  1.2087  2.4054
40622SOL     OW29105   9.864   6.720  10.508 -0.0003  0.4114  0.2965
40622SOL    HW129106   9.920   6.797  10.511 -0.7444  0.9627  0.2673
40622SOL    HW229107   9.920   6.648  10.539  0.3573  1.1574  1.4430
40623SOL     OW29108  12.581   3.109   2.225 -0.6892  0.2097  0.2808
40623SOL    HW129109  12.675   3.119   2.244 -0.5457  1.2289 -0.8505
40623SOL    HW229110  12.562   3.018   2.248  0.8109 -0.3132 -0.3772
40624SOL     OW29111   0.540   5.483  10.053  0.1132  0.0588 -0.4835
40624SOL    HW129112   0.598   5.494  10.128  0.3798  1.0633 -0.8290
40624SOL    HW229113   0.586   5.422   9.996  1.0090  1.1196 -0.9164
40625SOL     OW29114   9.784   0.332   4.883 -0.1005 -0.0393 -0.2580
40625SOL    HW129115   9.705   0.359   4.929  0.3825  1.7246 -0.3837
40625SOL    HW229116   9.760   0.335   4.791  0.6327  2.6572 -0.4530
40626SOL     OW29117   4.956   0.084   0.269 -0.1942  0.2287  0.5480
40626SOL    HW129118   5.009   0.133   0.332  0.9443  0.1881 -0.3387
40626SOL    HW229119   4.976  -0.007   0.287 -0.0601  0.2089  0.3128
40627SOL     OW29120   5.770   5.753   2.711 -0.1069 -0.2979  0.0832
40627SOL    HW129121   5.705   5.767   2.780 -1.1294 -0.2273 -0.8665
40627SOL    HW229122   5.773   5.658   2.700 -1.0326 -0.2444 -0.7613
40628SOL     OW29123   5.033   6.038   2.131 -0.4082 -0.0003  0.1771
40628SOL    HW129124   5.052   6.105   2.065  0.6155  0.3771  0.8390
40628SOL    HW229125   5.109   5.980   2.130 -0.7514 -0.4726  0.4571
40629SOL     OW29126   2.833  11.950   5.022 -0.6131 -0.3209  0.2004
40629SOL    HW129127   2.802  11.898   5.095 -3.3678  1.7656  0.6859
40629SOL    HW229128   2.864  12.032   5.062  1.6672 -0.6769 -0.6954
40630SOL     OW29129  10.401   3.258   6.944 -0.2617  0.2933 -0.3970
40630SOL    HW129130  10.307   3.263   6.932 -0.5603  0.9170  1.8591
40630SOL    HW229131  10.435   3.237   6.857 -2.4645 -0.0750 -1.2277
40631SOL     OW29132   5.958   3.060   6.150  0.0195 -0.2361  0.2836
40631SOL    HW129133   5.913   3.027   6.072 -0.9207 -0.0570  0.7410
40631SOL    HW229134   6.049   3.033   6.138 -0.2793 -0.9454 -0.4715
40632SOL     OW29135   4.411   6.118   9.582  0.4190  0.7623 -0.4383
40632SOL    HW129136   4.408   6.022   9.590 -3.2504  0.7851  0.0636
40632SOL    HW229137   4.391   6.135   9.490 -2.1697  0.9688  0.0789
40633SOL     OW29138  11.271   4.424   1.757  0.1344  0.3504  0.2969
40633SOL    HW129139  11.219   4.498   1.788  0.0111  0.4870 -0.2259
40633SOL    HW229140  11.222   4.347   1.785 -1.0941  0.4726 -1.3558
40634SOL     OW29141   3.995  10.234   3.943 -0.4859  0.4838 -0.2378
40634SOL    HW129142   4.072  10.257   3.993  0.4949  0.1696 -1.5456
40634SOL    HW229143   4.029  10.191   3.864 -1.9783  0.5341 -0.9523
40635SOL     OW29144   5.914   9.152   3.872  0.1356 -0.3483 -0.1879
40635SOL    HW129145   5.840   9.093   3.855  0.3844 -0.9476  0.7010
40635SOL    HW229146   5.973   9.138   3.799 -1.5460  1.7259 -2.0801
40636SOL     OW29147   8.397   5.286   6.148 -0.2665 -0.8545  1.0787
40636SOL    HW129148   8.303   5.303   6.154  0.1985  1.5006  3.1957
40636SOL    HW229149   8.422   5.322   6.062 -1.1077 -0.3989  1.0151
40637SOL     OW29150   6.366  12.366  11.356  0.2630 -0.5982 -0.2179
40637SOL    HW129151   6.407  12.452  11.346 -0.3601 -0.1744  0.7233
40637SOL    HW229152   6.439  12.304  11.350  1.0236  0.1185  1.1155
40638SOL     OW29153   9.498   9.592   3.749  0.2903  0.7817 -0.0180
40638SOL    HW129154   9.480   9.514   3.697  0.1341  1.3307 -0.7917
40638SOL    HW229155   9.479   9.565   3.839  1.5890 -0.4874 -0.0889
40639SOL     OW29156   2.388  10.397   7.531  0.4435  0.4692  0.2484
40639SOL    HW129157   2.385  10.482   7.487  0.0691 -0.1920 -1.0500
40639SOL    HW229158   2.476  10.363   7.514 -0.0090 -0.2074 -0.8493
40640SOL     OW29159   6.584   1.202  11.309 -0.2338  0.1215 -0.0082
40640SOL    HW129160   6.503   1.253  11.308 -0.0591  0.4281  0.9595
40640SOL    HW229161   6.592   1.169  11.219  0.2991  2.8165 -1.0419
40641SOL     OW29162   5.193   1.708   1.939  0.0335  0.3289 -0.1805
40641SOL    HW129163   5.237   1.676   1.861 -1.0813 -0.1266 -0.6515
40641SOL    HW229164   5.263   1.721   2.003  1.0300  1.1744 -1.3900
40642SOL     OW29165   1.366   2.083   2.785 -0.1069  0.6946 -0.2199
40642SOL    HW129166   1.414   2.090   2.702  0.2624  0.2415 -0.0508
40642SOL    HW229167   1.301   2.014   2.769 -0.1044  0.6799 -0.1638
40643SOL     OW29168   0.161   2.446  11.940  0.0750  0.0109 -0.0898
40643SOL    HW129169   0.089   2.405  11.987 -1.0181  0.8703 -0.9539
40643SOL    HW229170   0.160   2.405  11.854  2.3993 -1.9397  0.7002
40644SOL     OW29171   8.835   1.506   0.525 -0.1364  0.3574 -0.3791
40644SOL    HW129172   8.854   1.433   0.466  3.1873 -0.2918  1.2685
40644SOL    HW229173   8.900   1.572   0.502 -0.3920  1.0800  0.9351
40645SOL     OW29174   6.879   3.805   8.692 -0.2142  0.2783  1.0445
40645SOL    HW129175   6.791   3.840   8.704 -0.0305  0.8772  0.6869
40645SOL    HW229176   6.880   3.771   8.602 -0.4660 -0.8900  1.4637
40646SOL     OW29177   0.029   3.348   9.671  0.4756  0.3545 -0.3083
40646SOL    HW129178  -0.000   3.358   9.580  0.9723 -0.4090 -0.5676
40646SOL    HW229179   0.125   3.346   9.665  0.5123  0.3659  0.2382
40647SOL     OW29180   2.490   6.873   4.675  0.5328  0.2352 -0.3882
40647SOL    HW129181   2.398   6.897   4.667  0.3367  0.6685  2.3523
40647SOL    HW229182   2.534   6.953   4.703  1.6397 -0.1241 -1.0465
40648SOL     OW29183   0.726  11.987   1.528  0.4990  0.0464 -0.4451
40648SOL    HW129184   0.708  12.080   1.513 -0.1838 -0.3264 -2.2042
40648SOL    HW229185   0.821  11.982   1.534  0.5352  0.8795 -0.1360
40649SOL     OW29186   6.456   3.732  11.654 -0.2973 -0.0655 -0.2407
40649SOL    HW129187   6.420   3.818  11.677  1.2875  1.0847 -1.7350
40649SOL    HW229188   6.384   3.686  11.612 -1.0811  0.6792  0.2465
40650SOL     OW29189   9.662   8.454  10.762  0.2717  0.0949 -0.3547
40650SOL    HW129190   9.699   8.366  10.762 -0.4489 -0.2583  1.4783
40650SOL    HW229191   9.573   8.442  10.729 -0.3792 -0.1767  1.3983
40651SOL     OW29192  12.633   4.506   2.390 -0.1748 -0.0428  0.6957
40651SOL    HW129193  12.705   4.450   2.418  0.7599  0.1332 -1.2335
40651SOL    HW229194  12.668   4.556   2.317 -1.3736  2.1667  1.5327
40652SOL     OW29195   5.691   4.291   7.991  0.5039  0.0587  0.4982
40652SOL    HW129196   5.641   4.240   7.927  2.2455  0.7611 -1.5686
40652SOL    HW229197   5.625   4.340   8.040 -0.9389  1.8527 -2.8782
40653SOL     OW29198   4.831   4.797   2.367  0.0664 -0.3822 -0.0335
40653SOL    HW129199   4.867   4.886   2.364  0.9177 -0.6016  1.9163
40653SOL    HW229200   4.855   4.765   2.454 -3.5177 -1.1693  0.8141
40654SOL     OW29201   9.073   6.292   9.745 -0.1553  0.6481  0.1289
40654SOL    HW129202   9.051   6.282   9.652 -3.5759  0.0403  0.8740
40654SOL    HW229203   9.135   6.221   9.762 -0.6776 -0.2207 -1.3534
40655SOL     OW29204   8.507   9.478  11.376 -0.1310 -0.0898  0.1202
40655SOL    HW129205   8.565   9.476  11.300 -0.2825  0.5685 -0.0213
40655SOL    HW229206   8.511   9.569  11.406 -2.5182  0.4570 -1.0227
40656SOL     OW29207   6.641  11.241   4.173  0.7356 -0.0858  0.6614
40656SOL    HW129208   6.734  11.248   4.153  0.7855 -2.2299 -0.1042
40656SOL    HW229209   6.602  11.206   4.093 -0.7519  0.8522  0.9408
40657SOL     OW29210   4.698   2.919   6.906  0.6970 -0.1170 -0.1475
40657SOL    HW129211   4.646   2.979   6.852 -0.4944 -1.4639 -0.5706
40657SOL    HW229212   4.785   2.920   6.866  0.5201  0.8317 -0.5316
40658SOL     OW29213   8.104   7.489  11.601 -0.1132  0.1733  0.4628
40658SOL    HW129214   8.155   7.522  11.528 -2.6284  2.2735 -0.4926
40658SOL    HW229215   8.098   7.395  11.585  2.1247  0.0805 -0.1619
40659SOL     OW29216   6.464   3.795   7.521  0.3342 -0.4753 -0.4275
40659SOL    HW129217   6.406   3.853   7.570 -1.1727 -0.4991 -2.0663
40659SOL    HW229218   6.552   3.826   7.541 -0.2537  0.0999  1.4825
40660SOL     OW29219   3.871   1.433   4.383  0.6979  0.8873  0.0810
40660SOL    HW129220   3.857   1.348   4.339 -1.1225  0.5883  1.1637
40660SOL    HW229221   3.926   1.412   4.459 -2.6421 -0.0956  2.4432
40661SOL     OW29222   6.748   5.220   3.278 -0.1507 -0.1872  0.3318
40661SOL    HW129223   6.799   5.241   3.356  2.3412 -1.1278 -0.9246
40661SOL    HW229224   6.692   5.296   3.265  0.2433  0.5090  2.3390
40662SOL     OW29225  11.330   1.614   4.991  0.0102  0.4920  0.3229
40662SOL    HW129226  11.372   1.542   5.038 -0.5181 -0.3457 -0.4514
40662SOL    HW229227  11.239   1.613   5.023  0.1004  1.0816  0.6076
40663SOL     OW29228  10.946   1.228   0.713 -0.1234 -0.1687 -0.2806
40663SOL    HW129229  10.918   1.223   0.804  1.0131 -0.1786  0.0799
40663SOL    HW229230  10.935   1.138   0.680 -3.6709  0.4237 -1.1755
40664SOL     OW29231   0.094   4.235   7.972 -0.1678 -0.0765 -0.0953
40664SOL    HW129232   0.133   4.322   7.965  0.3212 -0.4107 -2.3182
40664SOL    HW229233   0.141   4.194   8.045  1.6935  0.5364 -0.8801
40665SOL     OW29234   2.367   8.286   9.890  0.0380  0.1823 -0.2725
40665SOL    HW129235   2.461   8.275   9.904 -0.4024 -2.6011  1.2392
40665SOL    HW229236   2.339   8.347   9.958  0.3624 -1.2050  1.1501
40666SOL     OW29237  12.704  10.927   5.373  0.1942  0.6540 -0.2820
40666SOL    HW129238  12.623  10.974   5.355  0.2060  1.0209  0.5909
40666SOL    HW229239  12.756  10.938   5.293 -0.9963 -0.4344 -1.2564
40667SOL     OW29240   1.096   2.670   0.234  0.1404 -0.3234  0.4637
40667SOL    HW129241   1.174   2.635   0.191  0.0912 -1.0606  0.9627
40667SOL    HW229242   1.131   2.721   0.308  0.1645 -0.2653  0.4126
40668SOL     OW29243   1.867   8.458  11.372  0.0191 -0.1181 -0.1150
40668SOL    HW129244   1.915   8.375  11.370  0.2613  0.0321 -1.2555
40668SOL    HW229245   1.775   8.432  11.374  0.0415 -0.4531 -1.8916
40669SOL     OW29246   9.355   1.337  11.102 -0.6546  0.4609 -0.5762
40669SOL    HW129247   9.424   1.288  11.059 -2.5279 -1.1219 -1.9663
40669SOL    HW229248   9.397   1.418  11.131  1.3984  0.2759 -2.7720
40670SOL     OW29249   6.727   2.406   1.745 -0.3312  0.2202 -0.1902
40670SOL    HW129250   6.771   2.442   1.668  0.2541  0.5445  0.2842
40670SOL    HW229251   6.649   2.460   1.756 -0.8758 -0.3687 -1.0509
40671SOL     OW29252   6.788  10.467   6.369 -0.3551 -0.1262  0.4286
40671SOL    HW129253   6.828  10.398   6.316 -0.1924  0.1358  0.2045
40671SOL    HW229254   6.756  10.422   6.447 -2.0665 -0.8167 -0.6125
40672SOL     OW29255   9.838   9.357   5.207  0.4027  0.2914 -0.1680
40672SOL    HW129256   9.820   9.378   5.299  0.4656  0.1799 -0.1302
40672SOL    HW229257   9.900   9.424   5.179 -0.0314  0.6462 -0.2862
40673SOL     OW29258   2.370   4.764   4.650 -0.0038  0.3255  0.1174
40673SOL    HW129259   2.310   4.771   4.575 -1.5614  1.8396  1.4096
40673SOL    HW229260   2.318   4.720   4.717  1.0736 -0.1865  0.6426
40674SOL     OW29261   0.899   2.793   0.876  0.3956 -0.2330  0.0993
40674SOL    HW129262   0.929   2.834   0.795  1.4021  0.0646  0.5972
40674SOL    HW229263   0.945   2.709   0.880  0.8193  0.0133  0.6368
40675SOL     OW29264   1.435  11.254   8.675 -0.3174  0.1135  0.3208
40675SOL    HW129265   1.465  11.322   8.615 -0.4379  0.2621  0.4283
40675SOL    HW229266   1.506  11.245   8.739 -0.6493  0.7145  0.7797
40676SOL     OW29267  10.603  10.752   3.424  0.3040  0.0078  0.2906
40676SOL    HW129268  10.512  10.728   3.413  0.0084  0.0584  2.2293
40676SOL    HW229269  10.650  10.699   3.360 -0.8647 -1.7830  0.8460
40677SOL     OW29270   4.714   7.220   0.374 -0.5609  0.0608 -0.6185
40677SOL    HW129271   4.707   7.186   0.464 -1.7382 -0.3448 -0.8515
40677SOL    HW229272   4.742   7.144   0.323  0.1011  0.2906 -0.6110
40678SOL     OW29273  12.015  11.943   6.768  0.1469  0.0009 -0.1140
40678SOL    HW129274  11.953  11.929   6.696 -0.7449 -1.5465  0.9020
40678SOL    HW229275  12.030  11.856   6.804  2.2825  0.4674  0.2184
40679SOL     OW29276   5.546   1.620   1.367 -0.4353 -0.0044 -0.3997
40679SOL    HW129277   5.457   1.652   1.355 -0.3104  0.9835  1.0758
40679SOL    HW229278   5.570   1.647   1.455  1.2326 -0.4965 -0.6613
40680SOL     OW29279   9.374   0.638   3.099 -0.0499 -0.4891 -0.4220
40680SOL    HW129280   9.436   0.652   3.027  1.8305  1.7534  1.4480
40680SOL    HW229281   9.382   0.545   3.119  3.0951 -0.2645 -0.0549
40681SOL     OW29282   1.076   4.196   4.222  0.0924 -0.4052  0.5389
40681SOL    HW129283   0.989   4.212   4.185 -0.2727 -0.7754  1.2183
40681SOL    HW229284   1.132   4.260   4.178 -0.9064  1.2983  1.5927
40682SOL     OW29285   5.552   5.054   4.148  0.7175 -0.1410 -0.2423
40682SOL    HW129286   5.525   5.007   4.069  0.8953  0.3951 -0.6318
40682SOL    HW229287   5.550   4.988   4.218 -0.0817 -0.4646 -0.5631
40683SOL     OW29288  12.192   3.760  12.191 -0.1162 -0.0641  0.0406
40683SOL    HW129289  12.166   3.827  12.128  1.4152 -0.5768 -1.2328
40683SOL    HW229290  12.249   3.806  12.253  1.6610 -0.2582 -1.3397
40684SOL     OW29291   6.957   0.510   1.671  0.3742 -0.5797 -0.0627
40684SOL    HW129292   6.962   0.438   1.608 -0.5926 -0.6712 -0.0418
40684SOL    HW229293   6.897   0.478   1.738  1.0197 -0.2948  0.6694
40685SOL     OW29294   3.892  11.370   1.964 -0.0837 -0.2082  0.5308
40685SOL    HW129295   3.810  11.321   1.973 -1.1783  1.6492  1.0206
40685SOL    HW229296   3.919  11.389   2.054  0.7574 -0.5649  0.3634
40686SOL     OW29297   9.980   7.296   1.705 -0.6935  0.0677 -0.3636
40686SOL    HW129298   9.960   7.211   1.745  0.9945  0.2540  0.9780
40686SOL    HW229299   9.946   7.288   1.615 -1.9257 -1.4513  0.1804
40687SOL     OW29300  11.970   8.633   7.899 -0.3589  0.0049 -0.2954
40687SOL    HW129301  11.999   8.557   7.848 -0.0245  0.1176 -0.2798
40687SOL    HW229302  12.051   8.682   7.916 -0.2446 -0.7315  1.5026
40688SOL     OW29303   8.338   3.914   5.648  0.2807 -0.2020  0.0555
40688SOL    HW129304   8.383   3.998   5.649 -0.1906  0.0501  0.3393
40688SOL    HW229305   8.246   3.935   5.664  0.0187 -0.6896 -0.7346
40689SOL     OW29306  12.455   6.313   8.807 -0.5804  0.4372 -0.9810
40689SOL    HW129307  12.440   6.347   8.718 -1.4299  1.4307 -0.4781
40689SOL    HW229308  12.381   6.255   8.823  0.0216 -0.4271 -1.2203
40690SOL     OW29309   7.078   0.816   5.907  0.1138 -0.3580 -0.5713
40690SOL    HW129310   7.102   0.892   5.854 -0.7006 -0.7829 -1.5961
40690SOL    HW229311   7.097   0.741   5.850 -0.9148 -0.8217 -0.3289
40691SOL     OW29312   2.754  11.207   4.119  0.3353  0.0756  0.1659
40691SOL    HW129313   2.806  11.127   4.118  0.8093  0.3709  0.7127
40691SOL    HW229314   2.720  11.214   4.208 -1.0547 -0.3627 -0.3076
40692SOL     OW29315   1.358   2.528   0.258  0.2538 -0.0135  0.3335
40692SOL    HW129316   1.389   2.544   0.347  0.7537  3.3168 -0.3115
40692SOL    HW229317   1.398   2.598   0.206  0.7262 -2.3646 -2.7373
40693SOL     OW29318   8.933   6.725   9.960  0.3845 -0.2689  0.0728
40693SOL    HW129319   8.951   6.796   9.898 -0.8057 -0.1186 -0.1301
40693SOL    HW229320   9.008   6.725  10.019  1.7431 -0.6873 -1.6035
40694SOL     OW29321  10.686  12.515   2.794 -0.0146  0.3262 -0.2091
40694SOL    HW129322  10.672  12.443   2.732  0.8054 -0.2321  0.2402
40694SOL    HW229323  10.720  12.587   2.741 -0.8469  0.3956 -0.6628
40695SOL     OW29324  12.647   1.519  10.012  0.3873 -0.3189  0.1460
40695SOL    HW129325  12.681   1.454  10.073 -0.4393 -0.6405  0.2694
40695SOL    HW229326  12.582   1.472   9.960 -1.1377  0.6898  1.0720
40696SOL     OW29327   6.520   7.129   2.244  0.0043 -0.3119  0.3786
40696SOL    HW129328   6.534   7.035   2.235  0.8035 -0.1395 -0.2249
40696SOL    HW229329   6.451   7.149   2.180  0.7360 -0.2766 -0.4102
40697SOL     OW29330  11.624   5.247  11.470  0.6691  0.3039 -0.2399
40697SOL    HW129331  11.530   5.257  11.487  0.8727  0.8310  0.5972
40697SOL    HW229332  11.650   5.330  11.432  0.9389  0.4211  0.1976
40698SOL     OW29333   4.073   2.176   1.759 -0.1615 -0.0554  0.2536
40698SOL    HW129334   4.135   2.239   1.796 -0.3059 -1.4894  3.1540
40698SOL    HW229335   4.022   2.145   1.833  0.8168 -4.6310 -0.7140
40699SOL     OW29336   3.656   3.853   6.737  0.1145 -0.5675 -0.1714
40699SOL    HW129337   3.658   3.937   6.783 -0.6475 -0.6572  0.0358
40699SOL    HW229338   3.727   3.860   6.672  0.1801  0.1597 -0.0327
40700SOL     OW29339   3.453   9.180   3.897 -0.7437 -0.0221  0.2384
40700SOL    HW129340   3.374   9.194   3.949 -2.0498  1.1804 -1.8973
40700SOL    HW229341   3.514   9.247   3.927 -1.0987  0.0203  0.8825
40701SOL     OW29342   8.460   3.393   0.638  0.3294  0.0581 -0.0326
40701SOL    HW129343   8.371   3.410   0.609  0.2910 -1.1892 -0.7406
40701SOL    HW229344   8.512   3.464   0.600 -0.5238  1.5604  1.4992
40702SOL     OW29345   1.133   0.996  11.902 -0.7928 -0.0787 -0.1151
40702SOL    HW129346   1.171   0.935  11.838 -3.1525  0.2879 -2.0037
40702SOL    HW229347   1.040   0.976  11.901 -1.0146  0.2911  2.9467
40703SOL     OW29348  10.997   3.278   7.473 -0.1600 -0.1903 -0.7367
40703SOL    HW129349  11.084   3.298   7.509 -0.2327 -0.5688 -0.3411
40703SOL    HW229350  10.963   3.362   7.443  1.2569 -0.3328 -2.9508
40704SOL     OW29351  11.169   7.666   1.395  0.0291  0.3029 -0.0940
40704SOL    HW129352  11.103   7.620   1.344  0.3116 -0.3195  0.0925
40704SOL    HW229353  11.190   7.744   1.343  0.9757 -0.7735 -1.3678
40705SOL     OW29354   3.727   8.485   4.812 -0.1193 -0.1561 -0.3382
40705SOL    HW129355   3.679   8.507   4.732 -1.3656  1.1260  0.7266
40705SOL    HW229356   3.668   8.427   4.860  0.7571 -1.1765 -0.4635
40706SOL     OW29357  11.917  10.763   0.922 -0.3989  0.1131 -0.0186
40706SOL    HW129358  11.955  10.725   0.843  0.3080 -0.1463  0.4339
40706SOL    HW229359  11.826  10.781   0.899 -0.2883 -0.2672 -0.7805
40707SOL     OW29360  12.066   0.267   2.760 -0.6478  0.0221  0.2905
40707SOL    HW129361  12.119   0.241   2.835 -0.7190 -1.8389 -0.2598
40707SOL    HW229362  12.124   0.324   2.708  0.2320 -0.6297  0.5425
40708SOL     OW29363   7.120   0.960   7.163  0.1257  0.2096  0.9819
40708SOL    HW129364   7.147   0.910   7.241  1.0476 -0.6054  0.1548
40708SOL    HW229365   7.089   0.893   7.102  2.6139  0.4757 -0.6632
40709SOL     OW29366   7.939  10.100   3.893  0.2367 -0.1224  0.3165
40709SOL    HW129367   7.956  10.102   3.987  0.6980 -1.7546  0.3017
40709SOL    HW229368   7.887  10.021   3.879 -2.7158  1.7941 -0.4108
40710SOL     OW29369  11.204   6.047   9.291 -0.2214 -1.0445 -0.5498
40710SOL    HW129370  11.231   5.957   9.272  0.7870 -0.6170 -1.1865
40710SOL    HW229371  11.273   6.082   9.347 -0.7263 -0.7295 -0.1124
40711SOL     OW29372   8.834   5.453   4.719 -0.0491 -0.0513 -0.4259
40711SOL    HW129373   8.788   5.514   4.661  0.9769 -1.1926 -2.5533
40711SOL    HW229374   8.783   5.372   4.715 -0.0916 -0.0711  0.4627
40712SOL     OW29375   6.756   4.706   9.451 -0.0500  0.1796 -0.2935
40712SOL    HW129376   6.838   4.749   9.473 -0.8189  1.3829  0.3218
40712SOL    HW229377   6.710   4.769   9.396 -1.1093  0.0883  0.4532
40713SOL     OW29378   8.506  11.691   6.070  0.4243  0.5421  0.0614
40713SOL    HW129379   8.595  11.699   6.035  1.0864 -2.6299  0.7082
40713SOL    HW229380   8.508  11.742   6.151  2.0560 -0.3136  0.6152
40714SOL     OW29381  11.142   4.758   2.780  0.1013  0.0142  0.3697
40714SOL    HW129382  11.205   4.686   2.779 -2.4791 -2.4049 -0.7568
40714SOL    HW229383  11.167   4.813   2.706  1.1656 -0.6047  0.2412
40715SOL     OW29384   3.921   4.609  10.265  0.3774  0.3365 -0.1499
40715SOL    HW129385   4.014   4.631  10.273  0.8653 -1.7226  0.3847
40715SOL    HW229386   3.889   4.606  10.355  0.3847 -1.1853 -0.1736
40716SOL     OW29387   3.601   0.024  11.116  0.1892 -0.0715 -0.2962
40716SOL    HW129388   3.690  -0.012  11.119  0.6935  1.1373 -0.3966
40716SOL    HW229389   3.607   0.109  11.159 -0.9309  0.0149 -0.2694
40717SOL     OW29390   1.623   7.947   0.457 -0.4090 -0.0693  0.2176
40717SOL    HW129391   1.661   8.034   0.467  1.4493 -0.6036 -1.5502
40717SOL    HW229392   1.625   7.930   0.363  2.5291 -3.3102  0.6457
40718SOL     OW29393   9.086   6.523   3.917  0.4780 -0.1656 -0.3334
40718SOL    HW129394   9.025   6.594   3.898  0.2265 -0.0580  0.8139
40718SOL    HW229395   9.107   6.486   3.831 -1.9462 -0.8243 -0.7265
40719SOL     OW29396   8.270   7.826   7.836 -0.2447  0.0252 -0.6504
40719SOL    HW129397   8.304   7.905   7.878 -0.4151  1.2285 -2.6414
40719SOL    HW229398   8.317   7.820   7.753 -1.1471 -1.2555 -1.1117
40720SOL     OW29399  12.502   0.805   4.859  0.3429 -0.2945 -0.6548
40720SOL    HW129400  12.512   0.759   4.776 -0.4918  1.1935 -1.6153
40720SOL    HW229401  12.580   0.861   4.865  0.0967  0.0582 -0.7405
40721SOL     OW29402  12.234   0.983   0.321 -0.3768  0.7187  0.6426
40721SOL    HW129403  12.286   1.052   0.280  0.2442 -0.4137 -0.5755
40721SOL    HW229404  12.218   1.014   0.410 -0.3810  2.5464  0.0447
40722SOL     OW29405   5.114   2.774   1.019  0.3606  0.7461 -0.6479
40722SOL    HW129406   5.141   2.853   0.971 -0.3392  1.6054  0.3308
40722SOL    HW229407   5.025   2.756   0.988 -0.6184  2.0794  1.1979
40723SOL     OW29408   4.378   6.633   8.824 -0.2047  0.0755  0.1228
40723SOL    HW129409   4.303   6.582   8.855 -0.8113 -0.1904 -1.6970
40723SOL    HW229410   4.447   6.613   8.887 -1.3086 -0.6062  1.1729
40724SOL     OW29411   4.426  11.176   4.321 -0.0728  0.0863 -0.1313
40724SOL    HW129412   4.399  11.114   4.388 -0.9977  1.0822  0.4569
40724SOL    HW229413   4.452  11.122   4.246 -0.2064 -1.0086  0.5983
40725SOL     OW29414  11.444   1.456   2.441  0.8660  0.2857  0.1227
40725SOL    HW129415  11.495   1.533   2.418  0.7601  0.1966 -0.4075
40725SOL    HW229416  11.373   1.454   2.378  0.6810 -0.0624  0.3386
40726SOL     OW29417  12.319   9.353  12.167  0.7701 -0.1262 -0.5333
40726SOL    HW129418  12.296   9.413  12.096  1.1030  0.3676 -0.2300
40726SOL    HW229419  12.364   9.408  12.231 -1.7461  0.0213  1.2555
40727SOL     OW29420  12.341   3.527   7.781 -0.8532 -0.5159  0.5331
40727SOL    HW129421  12.435   3.535   7.763 -0.8871 -0.5738  0.3280
40727SOL    HW229422  12.332   3.553   7.873 -0.7431  0.2820  0.3299
40728SOL     OW29423  12.552   3.853   4.352 -0.1320  0.2452  0.3915
40728SOL    HW129424  12.579   3.764   4.376  0.0995  0.8113  2.4066
40728SOL    HW229425  12.576   3.906   4.428  1.1776  2.3317 -1.3716
40729SOL     OW29426   4.728  12.360   9.564  0.0880 -0.2928  0.3129
40729SOL    HW129427   4.724  12.370   9.659 -0.8286 -1.7506  0.4567
40729SOL    HW229428   4.817  12.331   9.546 -0.1671 -1.5065  0.9099
40730SOL     OW29429   7.179   1.349   6.211 -0.1645 -0.1537 -0.4322
40730SOL    HW129430   7.146   1.385   6.293 -0.3148  2.4326 -1.5375
40730SOL    HW229431   7.102   1.344   6.155  0.2808  0.1443 -1.0785
40731SOL     OW29432   9.368   0.291   9.549  0.1446  0.5004 -0.3566
40731SOL    HW129433   9.427   0.366   9.560  0.8031  0.5829 -3.4338
40731SOL    HW229434   9.425   0.215   9.551  0.0249  0.3919 -0.9673
40732SOL     OW29435   9.256   6.901   3.701 -0.1004 -0.1953  0.3618
40732SOL    HW129436   9.195   6.894   3.775 -1.3347  0.9728 -0.4792
40732SOL    HW229437   9.322   6.964   3.731 -1.3161  1.3029  0.0772
40733SOL     OW29438  11.052   3.072   4.014 -0.8575  0.3983 -0.0910
40733SOL    HW129439  11.026   3.002   3.955  0.1684 -1.5470  1.6372
40733SOL    HW229440  11.075   3.145   3.956 -1.8194 -0.7024 -1.9579
40734SOL     OW29441   5.233  12.304   5.067 -0.2510  0.4120 -0.3969
40734SOL    HW129442   5.301  12.346   5.120 -0.1421  1.5153 -1.3759
40734SOL    HW229443   5.175  12.264   5.131  1.7297 -1.2885  0.4658
40735SOL     OW29444   0.794   8.518   4.226  0.0702 -0.1630 -0.0630
40735SOL    HW129445   0.842   8.445   4.188  0.2228 -0.7778  1.2516
40735SOL    HW229446   0.770   8.487   4.313 -0.9261  0.9073  0.0606
40736SOL     OW29447   2.448  10.479   2.292 -0.3481  0.3883  0.0917
40736SOL    HW129448   2.366  10.524   2.273  0.1311  1.5183  0.6011
40736SOL    HW229449   2.515  10.537   2.256  0.3372  0.5491  1.5494
40737SOL     OW29450   2.276   1.921   6.732  0.2044  0.0240 -0.0697
40737SOL    HW129451   2.287   1.993   6.795  2.0056 -2.4560  2.7313
40737SOL    HW229452   2.343   1.857   6.757 -0.8700 -2.3972 -2.8106
40738SOL     OW29453  11.274  11.332   4.426  0.0753 -0.3220  0.0395
40738SOL    HW129454  11.239  11.254   4.471  2.7981 -1.4229  0.4298
40738SOL    HW229455  11.284  11.304   4.335  0.2883 -0.1323  0.0071
40739SOL     OW29456   2.294  10.022  10.469  0.5212  0.2071  0.0303
40739SOL    HW129457   2.348   9.972  10.531  1.3703 -1.1262 -1.6940
40739SOL    HW229458   2.315  10.114  10.488  0.0207 -0.0941  2.3234
40740SOL     OW29459   0.125   8.230   8.074 -0.0130  0.5118  0.3735
40740SOL    HW129460   0.072   8.150   8.068  0.1543  0.4269 -0.0346
40740SOL    HW229461   0.082   8.291   8.013 -1.2965  1.4193  2.0842
40741SOL     OW29462   1.402   8.022   6.980 -0.0080 -0.4658 -0.3087
40741SOL    HW129463   1.325   8.023   6.925 -1.2345 -0.3538  1.3275
40741SOL    HW229464   1.413   8.113   7.008  0.2368 -0.6101  0.0824
40742SOL     OW29465   5.189   6.051   8.822 -0.0441 -0.6159 -0.8351
40742SOL    HW129466   5.212   5.959   8.811  0.9876 -0.2749 -1.7369
40742SOL    HW229467   5.190   6.087   8.733 -1.9494 -0.0487 -0.6895
40743SOL     OW29468   4.257  10.118  10.745 -0.2956 -0.3501 -0.0294
40743SOL    HW129469   4.197  10.183  10.784 -1.1510 -1.2105  0.1221
40743SOL    HW229470   4.287  10.159  10.664 -1.4937 -0.0888 -0.3707
40744SOL     OW29471   4.956   9.612   3.664 -0.2692 -0.6957 -0.3721
40744SOL    HW129472   5.020   9.614   3.736 -1.0803 -0.6931  0.3755
40744SOL    HW229473   4.984   9.681   3.605  0.1482 -0.3769  0.1874
40745SOL     OW29474   9.467  12.430   9.638  0.0590 -0.4525 -0.0555
40745SOL    HW129475   9.535  12.453   9.701 -1.1516 -0.8199  1.4394
40745SOL    HW229476   9.385  12.458   9.679 -0.8672 -1.6312 -1.0013
40746SOL     OW29477   3.692   1.934   2.020  0.3461  0.4647 -0.1610
40746SOL    HW129478   3.751   1.975   2.084 -0.1857  0.5188  0.2984
40746SOL    HW229479   3.648   2.008   1.977  0.2842  0.4103 -0.1909
40747SOL     OW29480   8.674   5.044   1.780 -0.1677 -0.2834 -0.2278
40747SOL    HW129481   8.661   4.976   1.715 -2.0299  0.1388 -0.3533
40747SOL    HW229482   8.705   4.998   1.858 -3.9785 -1.8402  0.6262
40748SOL     OW29483   0.474   8.226   8.966 -0.3231  1.0120 -0.5768
40748SOL    HW129484   0.458   8.217   9.060  0.7938  0.6791 -0.4127
40748SOL    HW229485   0.406   8.287   8.937 -1.8045 -0.2515  0.1011
40749SOL     OW29486   0.165   2.846  11.220 -0.4843 -0.5157  0.2452
40749SOL    HW129487   0.244   2.855  11.167  0.0852 -1.4252  0.9232
40749SOL    HW229488   0.093   2.853  11.157  0.1374 -0.1654 -0.4463
40750SOL     OW29489   1.288   6.006   8.993 -0.2038  0.4042  0.6020
40750SOL    HW129490   1.223   5.985   9.061  0.9501 -0.8423  1.3545
40750SOL    HW229491   1.348   6.067   9.036  1.4655 -1.6165  1.3172
40751SOL     OW29492   9.677   8.411   9.952 -0.4577  0.1557  0.5545
40751SOL    HW129493   9.726   8.429  10.032 -0.6691  2.9255  0.1614
40751SOL    HW229494   9.721   8.336   9.912 -0.3467 -1.2805  3.2093
40752SOL     OW29495   5.285   4.575   4.116 -0.1179 -0.2107 -0.0972
40752SOL    HW129496   5.372   4.557   4.150 -0.1022  0.6823  0.3518
40752SOL    HW229497   5.236   4.608   4.191 -0.2127  1.3357 -0.8087
40753SOL     OW29498  11.275   6.970  12.398  0.4181  0.2438  0.1523
40753SOL    HW129499  11.271   6.879  12.371  1.0399 -0.4660  2.2581
40753SOL    HW229500  11.367   6.994  12.390 -0.0066  1.3548 -2.2431
40754SOL     OW29501   3.198   7.529   1.744 -0.2248  0.0074 -0.1838
40754SOL    HW129502   3.291   7.516   1.763  0.1576  1.7774 -0.6485
40754SOL    HW229503   3.179   7.467   1.673  0.6934 -0.1447 -0.3113
40755SOL     OW29504   3.304  10.801   3.153  0.0258 -0.4658  0.2477
40755SOL    HW129505   3.263  10.724   3.191  0.4881 -1.5596 -1.3768
40755SOL    HW229506   3.340  10.848   3.229  0.0376 -2.0056  1.2502
40756SOL     OW29507  12.609  10.170   0.615  0.1215  0.4701  0.1788
40756SOL    HW129508  12.640  10.163   0.525 -0.5628 -3.7376  0.0516
40756SOL    HW229509  12.529  10.223   0.609  0.0061  0.1382 -1.7548
40757SOL     OW29510   8.789   1.608   9.401 -0.1571  0.4188 -0.2181
40757SOL    HW129511   8.838   1.575   9.476  0.2812  0.9124 -0.2761
40757SOL    HW229512   8.702   1.628   9.436  0.4222  1.8866  0.5000
40758SOL     OW29513   3.765  11.599   4.032  0.4480 -0.0189 -0.4813
40758SOL    HW129514   3.691  11.542   4.050  0.5950 -0.7139 -1.8916
40758SOL    HW229515   3.766  11.662   4.104 -0.2320 -1.2729  0.6622
40759SOL     OW29516   7.590   9.397  11.696 -0.5120  0.1503 -0.1640
40759SOL    HW129517   7.651   9.441  11.756 -0.1374 -0.0813 -0.3762
40759SOL    HW229518   7.644   9.337  11.645 -0.6479  1.1178 -1.4914
40760SOL     OW29519   8.625   4.274   1.877 -0.3921 -0.0805 -0.3375
40760SOL    HW129520   8.627   4.191   1.829 -0.5030  0.3312 -1.0712
40760SOL    HW229521   8.677   4.258   1.955 -0.2702 -0.7919 -0.5616
40761SOL     OW29522   3.486   2.942   7.462  0.0494 -0.6668  0.3621
40761SOL    HW129523   3.544   2.992   7.519 -0.4146 -0.3146  0.5229
40761SOL    HW229524   3.536   2.932   7.381  0.3282 -0.3480  0.4930
40762SOL     OW29525   3.079  11.491  11.377  0.5078  0.0955 -0.2083
40762SOL    HW129526   3.044  11.404  11.392 -1.6823  0.9117 -0.3204
40762SOL    HW229527   3.046  11.517  11.291  1.2081  0.9982 -0.2232
40763SOL     OW29528  11.601   1.610   3.040 -0.3498  0.3827  0.0817
40763SOL    HW129529  11.565   1.534   2.994  0.3914  1.0267 -1.6682
40763SOL    HW229530  11.604   1.679   2.973 -0.0534  1.6488  1.3516
40764SOL     OW29531  10.011   2.276   4.846  0.0900  0.0299 -0.6004
40764SOL    HW129532  10.084   2.223   4.815 -0.5993 -0.1921 -1.8877
40764SOL    HW229533   9.935   2.219   4.840 -0.2470  0.3486  0.4682
40765SOL     OW29534   7.284   9.546   5.096 -1.0925  1.1901 -0.4008
40765SOL    HW129535   7.341   9.597   5.154 -0.5911  0.3452 -0.1325
40765SOL    HW229536   7.259   9.470   5.148 -0.2458  0.1664 -1.4344
40766SOL     OW29537   7.113  12.654   3.955 -0.1005  0.6531 -0.4692
40766SOL    HW129538   7.181  12.588   3.945 -0.0777  0.7257 -0.7984
40766SOL    HW229539   7.065  12.653   3.872 -0.3517  0.7700 -0.3287
40767SOL     OW29540   7.516   5.139   8.084  0.4349  0.0843  0.0277
40767SOL    HW129541   7.506   5.166   7.993  0.0741 -1.1479 -0.3191
40767SOL    HW229542   7.479   5.051   8.087 -1.9273  1.0227  1.9107
40768SOL     OW29543   6.755   7.217   9.196  0.6818 -0.0448 -0.0609
40768SOL    HW129544   6.817   7.224   9.269 -0.1099  0.9150  0.5464
40768SOL    HW229545   6.669   7.221   9.237  0.2150  1.0908 -1.0684
40769SOL     OW29546  11.756  11.368   5.176 -0.2585 -0.7773 -0.4585
40769SOL    HW129547  11.743  11.456   5.141  1.4173 -0.3187 -0.0277
40769SOL    HW229548  11.802  11.321   5.106 -0.2189 -0.9866 -0.2938
40770SOL     OW29549   9.083   6.880   9.147 -0.1432  1.0304  0.0059
40770SOL    HW129550   9.119   6.814   9.206 -0.8610  0.4313 -0.2093
40770SOL    HW229551   9.125   6.961   9.173 -0.3927  0.7612  1.2936
40771SOL     OW29552  12.007   5.243  11.325  0.0236  0.0134 -0.0279
40771SOL    HW129553  12.056   5.263  11.405 -0.4967 -1.3132  0.6453
40771SOL    HW229554  11.975   5.154  11.338 -0.3188 -0.1182 -1.6026
40772SOL     OW29555  10.641   8.722  12.687  0.5031  0.0947 -0.2539
40772SOL    HW129556  10.666   8.635  12.718  0.7382  0.3699  0.3455
40772SOL    HW229557  10.591   8.705  12.607  2.2735 -0.4939 -1.3054
40773SOL     OW29558   6.212  10.886  10.246 -0.4368 -0.0677  0.1196
40773SOL    HW129559   6.261  10.955  10.289 -3.0979  1.6218  0.6746
40773SOL    HW229560   6.122  10.896  10.278 -1.3121 -2.6117 -1.2203
40774SOL     OW29561   1.528  12.051   9.918 -0.0169  0.0637 -0.0581
40774SOL    HW129562   1.488  11.995   9.985 -0.3859  0.9958  0.5108
40774SOL    HW229563   1.618  12.063   9.947 -0.2315  0.6289  0.3830
40775SOL     OW29564   2.022   0.032   8.196 -0.6523  0.1325  0.1414
40775SOL    HW129565   1.988  -0.036   8.139  0.3798  0.2212 -0.5953
40775SOL    HW229566   2.113   0.008   8.211 -1.1609 -0.5189  2.7110
40776SOL     OW29567   8.617   3.913   1.237 -0.5582  0.7800  0.2002
40776SOL    HW129568   8.560   3.836   1.240  1.0125 -0.4956 -0.8875
40776SOL    HW229569   8.658   3.916   1.323  0.6892 -0.6924 -0.3092
40777SOL     OW29570   3.721   7.487   0.508  0.0470 -0.2687 -0.3293
40777SOL    HW129571   3.696   7.570   0.467  0.2516 -0.3940 -0.7199
40777SOL    HW229572   3.793   7.455   0.453  2.6008  1.1277  1.9494
40778SOL     OW29573  12.155   0.652  11.814 -0.1865 -0.2890 -0.2810
40778SOL    HW129574  12.091   0.699  11.868  1.7043  1.7949  0.2817
40778SOL    HW229575  12.134   0.679  11.725  1.2860  2.3935  0.0659
40779SOL     OW29576  12.345  11.995   7.826  0.3117  0.3092 -0.4452
40779SOL    HW129577  12.377  12.006   7.737  1.1821 -1.4536 -0.3990
40779SOL    HW229578  12.391  12.062   7.877  0.7793  0.4972 -1.1092
40780SOL     OW29579  11.916   0.933   6.082 -0.2188 -0.0069  0.1894
40780SOL    HW129580  11.877   0.936   6.169 -4.0176 -3.0115 -1.1193
40780SOL    HW229581  11.994   0.878   6.093 -1.3690 -1.4635  1.5686
40781SOL     OW29582   0.628   8.033  10.530 -0.4612 -0.2422  0.2458
40781SOL    HW129583   0.654   7.967  10.594  0.5665  0.7812  0.9256
40781SOL    HW229584   0.709   8.053  10.483 -0.3203  1.8241  1.2799
40782SOL     OW29585   9.968   9.739   4.614 -0.2136 -0.0132 -0.0569
40782SOL    HW129586   9.981   9.650   4.647 -2.1796  0.2144  1.4943
40782SOL    HW229587  10.056   9.769   4.592  0.9512 -1.0967  2.7249
40783SOL     OW29588  11.711  11.458  10.961 -0.4965  0.2948 -0.1792
40783SOL    HW129589  11.619  11.432  10.966 -0.6542  0.5803 -1.2727
40783SOL    HW229590  11.757  11.380  10.930 -0.0463 -0.4464  2.1818
40784SOL     OW29591   7.021  11.204  11.402 -0.1690  0.4837 -0.1095
40784SOL    HW129592   6.971  11.125  11.381  1.4560 -0.7771  0.5902
40784SOL    HW229593   6.978  11.240  11.479  1.4906 -2.1110  2.1883
40785SOL     OW29594  10.682   4.361   0.608 -0.1171  0.1211 -0.1112
40785SOL    HW129595  10.678   4.414   0.527 -0.8800  0.4237  0.1177
40785SOL    HW229596  10.655   4.274   0.581 -1.4635  0.4807  0.0196
40786SOL     OW29597   5.031   7.430   7.363 -0.2750 -0.6030 -0.2082
40786SOL    HW129598   5.004   7.417   7.272 -0.6052  0.4271 -0.2697
40786SOL    HW229599   4.981   7.365   7.413  1.3882 -2.5517 -0.9629
40787SOL     OW29600   7.197   0.721   6.826  0.8589  0.1181  0.1753
40787SOL    HW129601   7.171   0.729   6.918  1.3032  0.6206  0.2666
40787SOL    HW229602   7.182   0.808   6.789 -1.5850 -0.6525 -0.8727
40788SOL     OW29603   0.670   7.715   3.460  0.0224 -0.3413  0.2906
40788SOL    HW129604   0.723   7.793   3.471  1.9829 -1.6889  1.0778
40788SOL    HW229605   0.734   7.645   3.444 -1.5993 -1.8698  0.1809
40789SOL     OW29606   9.744  11.884   1.294 -0.4365  0.1121  0.1712
40789SOL    HW129607   9.729  11.954   1.358  0.2070  1.2570 -0.8771
40789SOL    HW229608   9.705  11.916   1.213  1.2874  0.0345 -0.7540
40790SOL     OW29609  12.171   5.241   1.944  0.5878 -0.0808 -0.0707
40790SOL    HW129610  12.124   5.160   1.965  1.9538 -1.0254 -0.5423
40790SOL    HW229611  12.187   5.283   2.029  1.0541 -0.9895  0.2976
40791SOL     OW29612   8.627  10.431   7.257 -0.1111  0.2993  0.3038
40791SOL    HW129613   8.642  10.506   7.314  0.5965  2.8608 -2.9020
40791SOL    HW229614   8.700  10.372   7.274  0.1008  0.9768  1.9001
40792SOL     OW29615  12.318   8.542   7.971  0.0661  0.0752  0.4833
40792SOL    HW129616  12.394   8.597   7.954  1.4241 -0.8327  3.2176
40792SOL    HW229617  12.276   8.581   8.047 -0.7770 -0.8549  0.5170
40793SOL     OW29618   6.302   1.316  11.529  0.3699 -0.6881 -0.4847
40793SOL    HW129619   6.311   1.408  11.553  1.5968 -0.9111 -0.0457
40793SOL    HW229620   6.287   1.317  11.435  0.3303 -0.0417 -0.4760
40794SOL     OW29621   8.648   1.898  12.513 -0.0906 -0.2597  0.3640
40794SOL    HW129622   8.656   1.967  12.578 -0.1921 -0.2987  0.4179
40794SOL    HW229623   8.681   1.820  12.557  0.8648 -0.0713  0.0133
40795SOL     OW29624   4.448   6.762  11.210 -0.2403 -0.0827  0.0594
40795SOL    HW129625   4.474   6.850  11.181  0.5467 -0.3005  0.0764
40795SOL    HW229626   4.526   6.709  11.197 -1.1354 -1.1253 -1.3529
40796SOL     OW29627   2.503   5.892   1.754  0.1229  0.5829  0.4156
40796SOL    HW129628   2.443   5.914   1.683 -0.0902  1.9117  0.9807
40796SOL    HW229629   2.525   5.800   1.739 -0.7017  0.5570 -0.7831
40797SOL     OW29630   7.955  11.820   1.605 -0.1535 -0.2182  0.4561
40797SOL    HW129631   7.891  11.785   1.667 -0.0862 -0.1148  0.5863
40797SOL    HW229632   7.929  11.911   1.593  0.1306 -0.1003  0.7231
40798SOL     OW29633   7.443   3.249  11.636 -0.0606 -0.1136 -0.1491
40798SOL    HW129634   7.490   3.166  11.638 -0.6500 -0.4497  0.9047
40798SOL    HW229635   7.480   3.299  11.709 -0.3123  0.1954 -0.2291
40799SOL     OW29636   3.669   3.133   3.619 -0.4256 -0.2405  0.1375
40799SOL    HW129637   3.716   3.203   3.664 -1.8806  0.6594  0.3111
40799SOL    HW229638   3.674   3.058   3.678 -1.1964  0.5419  1.2409
40800SOL     OW29639  10.243   6.670   4.345 -0.3375  0.4794  0.5077
40800SOL    HW129640  10.245   6.765   4.357  0.4846  0.5029  0.2474
40800SOL    HW229641  10.159   6.644   4.381 -0.8789  1.3919 -0.0504
40801SOL     OW29642   0.673  10.840   8.307  0.7132  0.3690 -0.3682
40801SOL    HW129643   0.692  10.787   8.229 -1.4007  0.4075 -0.9746
40801SOL    HW229644   0.595  10.799   8.345  1.5737  0.5065  1.6197
40802SOL     OW29645   0.543   1.151  11.357 -0.0276 -0.6904  0.4451
40802SOL    HW129646   0.636   1.130  11.350  0.2716  0.9223 -1.0945
40802SOL    HW229647   0.519   1.125  11.446  1.6433 -1.9855  0.5690
40803SOL     OW29648   5.633  11.956   3.347 -0.2721  0.3639 -0.7655
40803SOL    HW129649   5.564  11.970   3.411  0.6212  1.0152  0.0907
40803SOL    HW229650   5.592  11.971   3.263 -0.8432  2.2522 -0.2036
40804SOL     OW29651   7.849  12.288  12.138  0.1643  0.3218  0.1842
40804SOL    HW129652   7.777  12.342  12.169  0.3145  1.6706 -1.6994
40804SOL    HW229653   7.887  12.251  12.218 -1.2174  1.3495  1.3659
40805SOL     OW29654   1.956  11.427   4.510 -0.8339  0.4861 -0.5299
40805SOL    HW129655   1.957  11.485   4.434  0.0693  0.2609 -0.7154
40805SOL    HW229656   1.868  11.391   4.512 -0.9990  0.8315 -1.2168
40806SOL     OW29657   2.930   8.518   8.245 -0.2587  0.2484  0.5282
40806SOL    HW129658   2.938   8.585   8.313  1.1775  1.0076 -0.3440
40806SOL    HW229659   2.955   8.562   8.164  1.3856 -1.4564  0.0215
40807SOL     OW29660   0.977   3.580   1.384  0.2709  0.0290 -0.7228
40807SOL    HW129661   0.916   3.653   1.386  1.5637  1.1486  0.9797
40807SOL    HW229662   0.938   3.517   1.324 -0.8352  2.1679 -2.4025
40808SOL     OW29663   1.749   3.928   9.498 -0.3227 -0.1035 -0.4290
40808SOL    HW129664   1.654   3.940   9.497 -0.3952  1.5512  3.5778
40808SOL    HW229665   1.762   3.841   9.537 -0.2782  0.2476  0.3710
40809SOL     OW29666  12.433   4.408  10.487 -0.1869  0.5895  0.1838
40809SOL    HW129667  12.453   4.366  10.403 -1.8056  1.3220 -0.6148
40809SOL    HW229668  12.518   4.437  10.520  0.4042  0.9774 -1.5893
40810SOL     OW29669   3.418   3.811   9.158  0.1978  0.5025  0.5096
40810SOL    HW129670   3.326   3.826   9.181 -0.1253 -0.2338 -0.2511
40810SOL    HW229671   3.417   3.790   9.065  0.7470 -2.5067  1.0540
40811SOL     OW29672   6.301   6.392  11.983 -0.3055  0.3417 -0.1198
40811SOL    HW129673   6.328   6.335  12.056 -0.6959  1.8703  1.2956
40811SOL    HW229674   6.220   6.353  11.951  1.4160 -2.0965 -1.8468
40812SOL     OW29675   4.835  11.794   0.179 -0.7962 -0.5685 -0.5782
40812SOL    HW129676   4.899  11.805   0.108 -2.3122  1.3749 -1.7230
40812SOL    HW229677   4.794  11.709   0.161  1.1659 -1.7087  0.0097
40813SOL     OW29678  12.021   3.558  12.701 -0.3836 -0.2840  0.6694
40813SOL    HW129679  12.024   3.478  12.648  0.9765 -0.3129  0.7625
40813SOL    HW229680  11.930   3.564  12.730 -0.8987 -0.8842 -0.7210
40814SOL     OW29681  10.184  12.490   5.170  0.0157 -0.4844  0.7493
40814SOL    HW129682  10.132  12.520   5.244  1.7739  0.3180  1.7147
40814SOL    HW229683  10.163  12.552   5.100 -0.0822  0.0358  1.2305
40815SOL     OW29684   0.570   0.748   5.000  0.1869 -0.1241  0.0093
40815SOL    HW129685   0.620   0.791   5.069 -0.2755  0.2923  0.0873
40815SOL    HW229686   0.579   0.804   4.924 -1.2589  0.6710  0.3922
40816SOL     OW29687   2.588   7.922   1.833 -1.0176 -0.1172  0.0335
40816SOL    HW129688   2.543   8.005   1.820  0.5664  0.8166  0.2988
40816SOL    HW229689   2.642   7.912   1.755  0.9129  0.5215  1.2268
40817SOL     OW29690   3.526   9.410   5.679  0.4020 -0.0685 -0.0844
40817SOL    HW129691   3.512   9.404   5.774  1.7462  1.3564  0.2384
40817SOL    HW229692   3.441   9.438   5.645  0.1507  0.2944  0.8112
40818SOL     OW29693   3.025  12.388  10.900 -0.1747  0.1105 -0.2035
40818SOL    HW129694   3.092  12.366  10.835  0.9935  2.5064  0.0749
40818SOL    HW229695   3.068  12.372  10.984  0.9333  3.5538  0.0256
40819SOL     OW29696  11.793   2.361   0.121 -0.4138  0.0416 -0.7531
40819SOL    HW129697  11.854   2.323   0.058  0.1981  0.4234 -0.3945
40819SOL    HW229698  11.794   2.299   0.194 -1.3860 -0.5826 -1.2441
40820SOL     OW29699   6.082   6.280   0.955 -0.1030  0.3308  0.3176
40820SOL    HW129700   6.069   6.185   0.960 -0.6926  0.3251 -0.8893
40820SOL    HW229701   6.172   6.291   0.924 -0.5725  0.0878 -1.2503
40821SOL     OW29702   8.640   6.631   1.311 -0.3894 -0.1484  0.2566
40821SOL    HW129703   8.574   6.574   1.352  0.6467 -0.2790  1.8110
40821SOL    HW229704   8.615   6.719   1.337 -0.0686 -0.1837  0.6980
40822SOL     OW29705   7.714   7.477  11.777  0.0147 -0.0867  0.2120
40822SOL    HW129706   7.623   7.454  11.759 -0.0373  0.9333 -0.9407
40822SOL    HW229707   7.716   7.497  11.871 -0.6975 -1.1459  0.4746
40823SOL     OW29708   1.238   0.433   0.093 -0.0264  0.1357 -0.1104
40823SOL    HW129709   1.178   0.475   0.031 -0.0187 -0.8288 -0.8060
40823SOL    HW229710   1.324   0.440   0.050  0.1007  0.1116  0.1411
40824SOL     OW29711   3.157   0.204   1.236 -0.0454 -0.1582  0.0044
40824SOL    HW129712   3.109   0.221   1.316 -0.5264 -0.5043 -0.2042
40824SOL    HW229713   3.213   0.129   1.256 -0.9905 -0.9614 -0.3081
40825SOL     OW29714   9.452   0.021   2.180  0.4244  0.0428  0.2330
40825SOL    HW129715   9.393  -0.051   2.203  1.9216 -0.9111  1.2754
40825SOL    HW229716   9.538  -0.021   2.170  1.0871  1.5029 -0.4651
40826SOL     OW29717   2.936   0.524  10.423  0.0470  0.2704  0.6913
40826SOL    HW129718   3.015   0.505  10.475 -0.1558  3.2918  2.3146
40826SOL    HW229719   2.873   0.558  10.487 -1.1505  1.6620 -1.1382
40827SOL     OW29720   4.805   9.349  10.407 -0.6305  0.6188 -0.1134
40827SOL    HW129721   4.798   9.445  10.411 -2.6287  0.4861  0.6117
40827SOL    HW229722   4.860   9.333  10.331  0.7985  2.3558  0.4694
40828SOL     OW29723   2.311   5.623   7.261 -0.3721 -0.0163  0.4837
40828SOL    HW129724   2.357   5.553   7.215  0.7306  0.9507  0.0978
40828SOL    HW229725   2.378   5.687   7.283 -1.4579  1.2687  0.2159
40829SOL     OW29726   7.380   9.276   2.653 -0.2966  0.2517 -0.0422
40829SOL    HW129727   7.432   9.212   2.604 -1.3652  0.0143 -0.8788
40829SOL    HW229728   7.443   9.345   2.675  0.4279 -0.1255 -0.8568
40830SOL     OW29729   4.221   2.399   7.205  0.2005  0.5135 -0.0767
40830SOL    HW129730   4.137   2.360   7.228 -0.3417  1.3897 -0.4910
40830SOL    HW229731   4.217   2.487   7.242  0.8900  0.6006 -0.2038
40831SOL     OW29732   5.594   0.440   4.305  0.0954 -0.4197 -0.5738
40831SOL    HW129733   5.611   0.444   4.399 -0.5135 -0.9209 -0.4337
40831SOL    HW229734   5.604   0.348   4.282  0.2600 -0.2999 -1.0094
40832SOL     OW29735   7.812   6.965   1.996  0.0817 -0.3657 -0.4638
40832SOL    HW129736   7.809   6.899   1.926 -0.8583 -1.4320  0.5247
40832SOL    HW229737   7.782   6.917   2.074 -1.2278  1.3982  0.1673
40833SOL     OW29738   6.930   6.087   7.681  0.3686 -0.1814 -0.0075
40833SOL    HW129739   6.916   6.075   7.775  1.3536  0.4769  0.2381
40833SOL    HW229740   7.000   6.152   7.675  0.8059 -0.7225 -1.1884
40834SOL     OW29741   4.579  11.875   7.494 -0.0714 -0.0790 -1.0104
40834SOL    HW129742   4.657  11.930   7.494 -0.1318  0.0135 -1.5005
40834SOL    HW229743   4.539  11.890   7.579 -1.0301  1.9836 -1.7669
40835SOL     OW29744   9.936   5.102   8.159 -0.1860  0.1608  0.3444
40835SOL    HW129745   9.887   5.181   8.138  0.3117  0.1554 -0.8965
40835SOL    HW229746   9.868   5.034   8.169 -0.5647  0.5876  0.7357
40836SOL     OW29747   6.754  11.645  12.710 -0.1488 -0.0275  0.1270
40836SOL    HW129748   6.714  11.719  12.756  0.9615  1.1092 -0.6855
40836SOL    HW229749   6.750  11.669  12.618  0.9091 -0.6465 -0.0948
40837SOL     OW29750   0.935   4.098   8.785  0.3280 -0.8828  0.3598
40837SOL    HW129751   0.887   4.180   8.776  1.0128 -0.5340 -0.1470
40837SOL    HW229752   0.866   4.031   8.794 -0.3356 -0.6385 -2.1638
40838SOL     OW29753   5.409   1.854   9.782  0.2175  0.1922 -0.1655
40838SOL    HW129754   5.374   1.885   9.865 -0.0547  0.3040 -0.3203
40838SOL    HW229755   5.501   1.837   9.800  0.1404  0.1263  0.1829
40839SOL     OW29756   9.005   6.560   4.236  0.1870 -0.2349 -0.0602
40839SOL    HW129757   9.029   6.515   4.156  1.0553 -1.0021  0.6142
40839SOL    HW229758   8.914   6.534   4.252  0.6776 -1.7901  0.3282
40840SOL     OW29759  12.595  11.276   0.218 -0.0007  0.1550 -0.2749
40840SOL    HW129760  12.591  11.313   0.306  1.4033 -1.0256  0.3195
40840SOL    HW229761  12.671  11.318   0.178 -1.6440  2.0741 -1.6683
40841SOL     OW29762   7.540   8.295  12.638  0.5365  0.3675  0.6754
40841SOL    HW129763   7.636   8.294  12.639  0.5451  0.3823  2.3887
40841SOL    HW229764   7.517   8.247  12.558  1.9671 -0.1418  0.5324
40842SOL     OW29765   3.163   8.852   9.994 -0.2580  0.5437  0.1967
40842SOL    HW129766   3.253   8.829  10.015  0.2039  1.0407 -1.1480
40842SOL    HW229767   3.147   8.814   9.908 -1.9373 -1.0416  1.1220
40843SOL     OW29768  11.747  10.788  11.215 -0.0673  0.5555 -0.0419
40843SOL    HW129769  11.734  10.703  11.172  0.6077  0.5671 -0.2842
40843SOL    HW229770  11.841  10.792  11.232 -0.3451  0.4376  1.7037
40844SOL     OW29771   7.359   7.170  11.392 -0.1364  0.1246  0.1500
40844SOL    HW129772   7.379   7.196  11.303 -1.2679 -0.0009 -0.1578
40844SOL    HW229773   7.394   7.240  11.447 -3.0385  2.3729 -0.6307
40845SOL     OW29774   6.901   4.213  12.651  0.2013  0.2320 -0.3762
40845SOL    HW129775   6.906   4.245  12.741  2.2553  0.7239 -0.6097
40845SOL    HW229776   6.932   4.122  12.657 -1.1760 -0.2487 -0.3752
40846SOL     OW29777   5.905   5.975  11.761  0.2246  0.1713 -0.0593
40846SOL    HW129778   5.917   5.970  11.666 -0.7163  3.0898 -0.4109
40846SOL    HW229779   5.993   5.960  11.797  0.4903 -1.5742 -1.2882
40847SOL     OW29780   7.453  10.973   4.284 -0.2034  0.1660  0.3388
40847SOL    HW129781   7.468  11.002   4.374 -1.9475 -1.5186  1.2367
40847SOL    HW229782   7.443  10.878   4.290  1.0127 -0.1871 -1.8629
40848SOL     OW29783  11.053   4.606   4.352 -0.0233 -0.1087  0.3788
40848SOL    HW129784  11.082   4.588   4.441  0.4896 -1.1167  0.0220
40848SOL    HW229785  11.034   4.519   4.315 -1.5782  0.3769 -0.0487
40849SOL     OW29786   3.945   5.753  12.272 -0.1331 -0.1779 -0.2845
40849SOL    HW129787   3.944   5.820  12.341 -0.1433 -1.3058  0.8472
40849SOL    HW229788   3.964   5.802  12.192  1.6256  0.9561  0.7586
40850SOL     OW29789   5.603  12.512   0.037  0.2372 -0.2550  0.2403
40850SOL    HW129790   5.625  12.460  -0.040  1.1432 -0.5640  0.6920
40850SOL    HW229791   5.542  12.458   0.086 -1.6671  0.6235 -1.0463
40851SOL     OW29792   9.062   0.954  11.967  0.5347 -0.3261 -0.2585
40851SOL    HW129793   9.108   1.030  11.933  0.6860  0.1526  0.9807
40851SOL    HW229794   8.978   0.988  11.997  0.5875 -0.6437  0.2668
40852SOL     OW29795   0.094  10.296  11.592 -0.0363 -0.1376  0.1432
40852SOL    HW129796   0.080  10.379  11.639 -0.1892  1.1937 -2.1177
40852SOL    HW229797   0.006  10.260  11.580 -0.1583  0.3542 -0.5086
40853SOL     OW29798  12.526   7.987   4.141 -0.0661 -0.4470 -0.3002
40853SOL    HW129799  12.532   8.080   4.119 -2.0341 -0.2939 -0.3154
40853SOL    HW229800  12.486   7.946   4.064 -0.7003 -1.0295  0.3206
40854SOL     OW29801  12.160   8.516  11.539 -0.4385  0.4158  0.1612
40854SOL    HW129802  12.131   8.475  11.621  1.0584  0.5220  0.7751
40854SOL    HW229803  12.250   8.486  11.529 -0.7345  0.0451 -1.7058
40855SOL     OW29804  11.487  11.072   2.154 -0.4069  0.4870 -0.5498
40855SOL    HW129805  11.484  10.982   2.121 -0.8891 -0.6288  2.2005
40855SOL    HW229806  11.427  11.120   2.098  0.3764 -0.7057 -2.5200
40856SOL     OW29807   4.084   9.037   4.823 -0.5632 -0.1126  0.0769
40856SOL    HW129808   4.037   9.115   4.792  2.3420  1.0798 -1.8434
40856SOL    HW229809   4.173   9.068   4.839  1.2455 -3.2657 -2.5192
40857SOL     OW29810  11.564  10.096  10.336 -0.0031 -0.5385 -0.1809
40857SOL    HW129811  11.559  10.054  10.250 -1.2085  0.2907 -0.5533
40857SOL    HW229812  11.513  10.177  10.326  1.7793  0.7574  0.6573
40858SOL     OW29813  10.849  12.542   5.041  0.0340  0.9021  0.3271
40858SOL    HW129814  10.781  12.523   5.105  0.4762  0.3135  0.6390
40858SOL    HW229815  10.929  12.506   5.081  0.4136  1.0433 -0.3004
40859SOL     OW29816   5.150   2.786   2.013 -0.6535  0.5326 -0.6436
40859SOL    HW129817   5.108   2.802   2.098  0.4448  2.5953 -0.4108
40859SOL    HW229818   5.126   2.861   1.960  1.4282  1.0309 -0.9928
40860SOL     OW29819  10.103   6.228   5.758  0.3358  0.2396 -0.0289
40860SOL    HW129820  10.195   6.224   5.782  0.4773 -0.5948 -0.6563
40860SOL    HW229821  10.084   6.141   5.723 -0.3151  0.8426 -1.2290
40861SOL     OW29822   4.329   1.565   6.540 -0.2650 -0.1257 -0.4856
40861SOL    HW129823   4.323   1.594   6.449 -0.1437  0.6413 -0.2609
40861SOL    HW229824   4.273   1.626   6.588  0.0639 -0.2109  0.0174
40862SOL     OW29825   0.635  11.175   1.713 -0.2384 -0.7184  0.2356
40862SOL    HW129826   0.561  11.208   1.661  2.8366  0.0076 -4.2574
40862SOL    HW229827   0.630  11.080   1.703 -0.2123 -0.6330 -0.6826
40863SOL     OW29828   6.261   0.928   0.931  0.4572 -0.7320 -0.3055
40863SOL    HW129829   6.324   0.856   0.939  0.2894 -0.6997  2.5601
40863SOL    HW229830   6.307   1.004   0.968 -0.5831 -0.2464  0.0191
40864SOL     OW29831   0.060   1.236   0.129 -0.0002 -0.4283  0.1768
40864SOL    HW129832   0.122   1.202   0.194  1.5731  0.0387 -1.0225
40864SOL    HW229833   0.032   1.159   0.079 -0.1512 -0.5932  0.5113
40865SOL     OW29834   8.570  12.126   5.704 -0.0226  0.0396 -0.0380
40865SOL    HW129835   8.508  12.113   5.632  0.0678  0.7676 -0.2568
40865SOL    HW229836   8.650  12.082   5.674 -0.1130 -0.0168 -0.1993
40866SOL     OW29837   8.263   0.341  10.217 -0.7589  0.0868  0.3451
40866SOL    HW129838   8.324   0.332  10.143 -2.1095 -0.3474 -0.7808
40866SOL    HW229839   8.265   0.434  10.239 -1.5194  0.5483 -1.3555
40867SOL     OW29840   0.745   5.251   6.649  0.3356  0.0373  0.0847
40867SOL    HW129841   0.748   5.247   6.553 -1.6123 -0.8125 -0.0103
40867SOL    HW229842   0.714   5.339   6.669 -1.7936 -0.5644 -0.2600
40868SOL     OW29843   5.641   4.499   0.118  0.8961  0.7386 -0.4935
40868SOL    HW129844   5.717   4.473   0.170 -0.4025  0.0348  1.1592
40868SOL    HW229845   5.670   4.494   0.027  2.9461  0.9694  0.1110
40869SOL     OW29846   9.167   8.974   8.019  0.2550 -0.1757  0.0023
40869SOL    HW129847   9.080   9.014   8.022 -0.3424 -1.3031 -1.0811
40869SOL    HW229848   9.219   9.024   8.082 -1.0809  0.7385  0.4261
40870SOL     OW29849   4.645   9.657  11.028  0.0494  0.2832 -0.2294
40870SOL    HW129850   4.648   9.612  11.113 -0.0025 -0.9645 -0.8532
40870SOL    HW229851   4.692   9.739  11.042  0.8816 -0.3435  0.7611
40871SOL     OW29852  11.389   0.042   3.902  0.1849  0.7364  0.0116
40871SOL    HW129853  11.449   0.082   3.839  1.1671 -0.5638  0.0719
40871SOL    HW229854  11.443   0.026   3.979 -1.3266  3.7010  1.8790
40872SOL     OW29855   3.932  11.388   8.072 -0.4358  0.7288  0.3786
40872SOL    HW129856   4.008  11.351   8.117 -0.5483 -0.7755 -0.6156
40872SOL    HW229857   3.857  11.346   8.112 -0.4892 -1.7082 -2.0172
40873SOL     OW29858   3.725   3.012  12.212  0.4027  0.3884 -0.1676
40873SOL    HW129859   3.764   2.968  12.135 -3.2989 -0.0075 -2.0247
40873SOL    HW229860   3.684   2.941  12.261  0.0912  1.0149  0.4854
40874SOL     OW29861   7.300  10.580   0.636 -0.0141 -0.2343 -0.0466
40874SOL    HW129862   7.285  10.627   0.718  2.0933  0.9544 -0.2770
40874SOL    HW229863   7.316  10.648   0.571  2.1395 -1.1613 -0.5951
40875SOL     OW29864  11.905   3.184  10.093  0.0021  0.5982 -0.6318
40875SOL    HW129865  11.952   3.257  10.134 -1.5685  2.9607 -2.7226
40875SOL    HW229866  11.971   3.115  10.083  2.3385  2.7695 -1.1007
40876SOL     OW29867   1.297   7.432   9.270 -0.1306  0.9681 -0.0017
40876SOL    HW129868   1.340   7.515   9.252  2.1071 -0.4103 -1.4680
40876SOL    HW229869   1.344   7.397   9.346 -1.6611  1.4034  1.1855
40877SOL     OW29870   0.509   2.970   2.001 -0.4268  0.6185 -0.6718
40877SOL    HW129871   0.444   2.992   2.068  0.6240  2.3376 -0.1384
40877SOL    HW229872   0.539   2.882   2.025 -1.0948  0.6348  0.2815
40878SOL     OW29873  11.613   2.459   7.243  0.4339  0.4696 -0.3862
40878SOL    HW129874  11.699   2.459   7.284  0.2988  1.0810 -0.0890
40878SOL    HW229875  11.552   2.440   7.315  0.3104  0.0769 -0.5865
40879SOL     OW29876  10.977   0.134   5.329  0.1361 -0.1368 -0.5147
40879SOL    HW129877  10.968   0.080   5.408  0.1597 -0.7582 -0.9280
40879SOL    HW229878  11.052   0.191   5.347  0.8382 -1.0384 -0.5148
40880SOL     OW29879  11.906   1.989   0.582  0.2733  0.4242 -0.1691
40880SOL    HW129880  11.969   1.960   0.516  0.5648  0.9447 -0.1246
40880SOL    HW229881  11.954   1.987   0.664  0.5696  1.8843 -0.2933
40881SOL     OW29882   1.058   4.469   7.313 -0.1147  0.2588 -0.1932
40881SOL    HW129883   1.087   4.560   7.315  0.3122  0.1180  0.5741
40881SOL    HW229884   1.073   4.437   7.402  1.3576 -1.0785 -0.8690
40882SOL     OW29885  12.235  10.484  11.150  0.2726  0.9833  0.1880
40882SOL    HW129886  12.319  10.465  11.107 -0.2994  1.7913 -1.3424
40882SOL    HW229887  12.241  10.438  11.234  1.6291 -0.2488 -0.5311
40883SOL     OW29888  10.877  12.218   3.407 -0.2116  0.2277 -0.1055
40883SOL    HW129889  10.792  12.264   3.410  0.0255  0.6795 -0.1718
40883SOL    HW229890  10.912  12.239   3.321  0.7702  1.5302  0.5758
40884SOL     OW29891   3.370   8.619   0.879 -0.3088 -0.3235 -0.0049
40884SOL    HW129892   3.309   8.665   0.823  0.1104 -1.7018 -1.6640
40884SOL    HW229893   3.450   8.671   0.875 -0.3189 -0.3487 -0.6097
40885SOL     OW29894  12.121  10.714   5.161 -0.2308 -0.5567  0.1186
40885SOL    HW129895  12.210  10.745   5.150 -0.0665 -1.1575 -0.2818
40885SOL    HW229896  12.118  10.629   5.116 -1.1943 -0.2054 -0.5165
40886SOL     OW29897   0.009   0.320   2.282 -0.2745  0.2756 -0.3467
40886SOL    HW129898  -0.028   0.291   2.366  1.3354 -2.2245 -0.3856
40886SOL    HW229899   0.102   0.335   2.301  0.1749 -0.5881 -1.6840
40887SOL     OW29900  10.222   2.565   3.238 -0.4880 -0.1689 -0.5126
40887SOL    HW129901  10.150   2.593   3.182 -0.3720  1.4708  0.1106
40887SOL    HW229902  10.181   2.512   3.307 -1.0198  0.2566 -0.5033
40888SOL     OW29903  10.409   7.955   3.118  0.2471  0.4811 -0.1164
40888SOL    HW129904  10.354   7.916   3.186 -0.6655  0.3824 -0.8817
40888SOL    HW229905  10.347   7.981   3.050  1.2033 -0.0983 -1.2395
40889SOL     OW29906   9.958  12.299   7.903 -0.2393  0.5272 -0.7797
40889SOL    HW129907   9.947  12.280   7.996 -0.0102 -0.4075 -0.9357
40889SOL    HW229908  10.046  12.270   7.882 -0.4862  0.1964 -1.4120
40890SOL     OW29909   2.490   6.868   2.130 -0.1560  0.6407 -0.2601
40890SOL    HW129910   2.554   6.940   2.133  0.6384 -0.0861  0.9952
40890SOL    HW229911   2.435   6.881   2.207  0.5307 -0.5434  0.4652
40891SOL     OW29912  10.176   1.384  11.367 -0.5600 -0.0206 -0.2288
40891SOL    HW129913  10.230   1.386  11.447  0.5436 -0.6223 -0.9397
40891SOL    HW229914  10.214   1.314  11.314 -1.6682 -0.0360 -1.0287
40892SOL     OW29915   2.295   1.726   7.296 -0.0206  0.0617 -0.2716
40892SOL    HW129916   2.299   1.680   7.212  0.9066 -1.0157  0.3253
40892SOL    HW229917   2.362   1.683   7.350  1.4367  2.5657  0.1157
40893SOL     OW29918   4.249   2.344   6.367  0.0145  0.4632  0.6081
40893SOL    HW129919   4.262   2.249   6.370 -0.2523  0.4408  1.4132
40893SOL    HW229920   4.280   2.370   6.281 -0.6060 -0.4630  0.0959
40894SOL     OW29921   5.408   1.394   5.770  0.3648  0.7313  0.4836
40894SOL    HW129922   5.349   1.344   5.713  1.7083  0.4544 -0.7371
40894SOL    HW229923   5.442   1.329   5.832 -0.8370  0.9600  1.4046
40895SOL     OW29924   1.034   2.019   2.283 -0.7955  0.5980  0.4865
40895SOL    HW129925   1.040   1.930   2.249 -0.8024  0.0592  1.8389
40895SOL    HW229926   1.102   2.067   2.236 -1.5621  0.1768 -1.0965
40896SOL     OW29927   0.391   5.577   4.004  0.0824  0.5095  0.4108
40896SOL    HW129928   0.457   5.507   4.005 -0.3203  0.1213  0.3491
40896SOL    HW229929   0.353   5.573   3.917  1.2535  1.9653 -0.2086
40897SOL     OW29930   1.659  12.682  11.704 -0.0069 -0.3903 -0.2088
40897SOL    HW129931   1.569  12.715  11.711 -0.1310 -0.8702  0.6319
40897SOL    HW229932   1.709  12.755  11.669 -0.2328  0.7820  1.7840
40898SOL     OW29933   9.199   2.352   6.079 -0.2455 -0.0343  0.3746
40898SOL    HW129934   9.219   2.399   6.160  2.4594 -1.7490  0.8157
40898SOL    HW229935   9.144   2.279   6.106 -0.0028 -0.1559  0.5401
40899SOL     OW29936  11.977   1.339   0.475 -0.6279  0.1874  0.3226
40899SOL    HW129937  12.071   1.330   0.492 -0.6323  0.5909  0.5613
40899SOL    HW229938  11.935   1.281   0.538 -0.5343 -0.0455  0.1704
40900SOL     OW29939  10.724   5.345  12.704 -0.2963  0.2025 -0.5129
40900SOL    HW129940  10.789   5.360  12.772 -0.0286  2.5204 -1.2143
40900SOL    HW229941  10.679   5.264  12.731  0.0936  0.7992  2.1428
40901SOL     OW29942   3.372   1.741  12.000  0.1160  0.2525  0.3257
40901SOL    HW129943   3.437   1.811  12.008 -1.0372  1.4042 -0.0732
40901SOL    HW229944   3.390   1.701  11.915 -0.5989  1.5582 -0.4841
40902SOL     OW29945   1.233  11.107   6.134  0.5181  0.1735  0.3097
40902SOL    HW129946   1.184  11.037   6.092  1.3518 -0.1697 -0.1106
40902SOL    HW229947   1.167  11.174   6.155 -0.2261 -0.5859  0.4165
40903SOL     OW29948   4.367   5.134   0.546 -0.0170 -0.2171 -0.1881
40903SOL    HW129949   4.433   5.166   0.484 -1.0607 -2.0768 -2.4448
40903SOL    HW229950   4.398   5.163   0.632  2.5837  0.7764 -1.3539
40904SOL     OW29951   4.201   8.893   3.832 -0.1357  0.9354  0.3893
40904SOL    HW129952   4.272   8.956   3.818  1.4236 -0.7163  0.3997
40904SOL    HW229953   4.172   8.909   3.921  1.6877  0.3287  1.1534
40905SOL     OW29954  12.442   9.982  10.721 -0.3885  0.5994  0.1110
40905SOL    HW129955  12.524   9.978  10.770 -0.5556  0.9690  0.4299
40905SOL    HW229956  12.435  10.074  10.693  0.5843  0.0561 -2.1581
40906SOL     OW29957   0.460   9.733  11.513 -0.3270 -0.0560 -0.2937
40906SOL    HW129958   0.538   9.726  11.568 -1.2648  0.1791  1.1177
40906SOL    HW229959   0.387   9.723  11.573 -1.4074 -1.7124 -1.7918
40907SOL     OW29960  12.039   0.732   1.160 -0.5110 -0.4749 -0.0535
40907SOL    HW129961  12.109   0.785   1.122 -2.0208  0.2737 -1.9565
40907SOL    HW229962  12.065   0.720   1.251  0.0721  3.3428  0.4304
40908SOL     OW29963   2.586   2.580  12.019 -0.3076 -0.3918  0.2324
40908SOL    HW129964   2.586   2.583  12.114  1.4788 -0.4861  0.2597
40908SOL    HW229965   2.565   2.670  11.992 -2.8466 -0.7747  0.6389
40909SOL     OW29966   2.050  11.223   3.407 -0.2718 -0.3317 -0.5288
40909SOL    HW129967   1.999  11.290   3.361 -0.9118  0.3397  1.0899
40909SOL    HW229968   1.985  11.169   3.451  0.3007 -1.3527 -0.9075
40910SOL     OW29969   0.435   6.699   9.468 -0.3241  0.6828  0.5150
40910SOL    HW129970   0.484   6.629   9.425 -0.0035  1.5818 -0.6393
40910SOL    HW229971   0.410   6.663   9.552  0.7054 -0.4633  0.3535
40911SOL     OW29972   8.130   3.381   2.201 -0.3569  0.0421  0.4390
40911SOL    HW129973   8.164   3.443   2.265  0.7264  3.2262 -2.8787
40911SOL    HW229974   8.208   3.350   2.154 -1.1191 -2.0300  0.4483
40912SOL     OW29975  11.015   3.612   5.741  0.4911 -0.5682  0.0573
40912SOL    HW129976  11.005   3.552   5.666  0.8156 -0.5456 -0.0058
40912SOL    HW229977  10.930   3.610   5.784  0.2618 -0.4902 -0.3815
40913SOL     OW29978   6.607   4.475   9.809 -0.1220  0.5320  0.3459
40913SOL    HW129979   6.519   4.437   9.807 -0.0324  0.1857 -2.6110
40913SOL    HW229980   6.592   4.569   9.815 -0.6848  0.4476  0.3599
40914SOL     OW29981   3.606   0.966   0.151  0.5940 -0.0823  0.1151
40914SOL    HW129982   3.671   1.033   0.172  0.0487  0.1331  1.2244
40914SOL    HW229983   3.534   0.982   0.213 -0.2294 -0.7243 -0.6377
40915SOL     OW29984   1.021  11.763  10.609  0.0513 -0.2370  0.1814
40915SOL    HW129985   1.057  11.708  10.539  0.8548 -3.3642  2.7725
40915SOL    HW229986   0.926  11.754  10.602  0.1062 -0.0746 -0.7986
40916SOL     OW29987   7.825   3.682   8.016  0.0338  0.3896 -0.4453
40916SOL    HW129988   7.821   3.713   7.925 -1.0743 -1.4903 -1.0876
40916SOL    HW229989   7.822   3.587   8.009  1.2207  0.1602  1.5321
40917SOL     OW29990   5.085   5.114   4.925 -0.6134 -0.1026 -0.0711
40917SOL    HW129991   5.015   5.051   4.908 -0.6732 -0.0829  0.0974
40917SOL    HW229992   5.113   5.095   5.014 -2.0731  1.4747  0.7790
40918SOL     OW29993   2.972   6.071   9.023 -0.2574  0.4283  0.1212
40918SOL    HW129994   2.925   6.096   8.944 -1.8275  2.2966  1.5329
40918SOL    HW229995   2.988   6.154   9.069  3.2249 -0.2736  0.4362
40919SOL     OW29996  10.862   2.808   6.612 -0.3307  0.0722  0.7973
40919SOL    HW129997  10.833   2.785   6.701 -1.0614  0.5671  0.6948
40919SOL    HW229998  10.873   2.723   6.569  2.8254 -0.3547  2.1637
40920SOL     OW29999  10.885   0.840   2.389 -0.1685  0.3294  0.4052
40920SOL    HW130000  10.939   0.920   2.388  0.9982 -0.4287  0.2386
40920SOL    HW230001  10.864   0.823   2.298  0.8495 -0.3519  0.2787
40921SOL     OW30002   8.252   6.983   8.784  0.3358  0.0682  0.0930
40921SOL    HW130003   8.282   7.074   8.778  2.7452 -0.7594 -2.4640
40921SOL    HW230004   8.159   6.987   8.760 -0.7834  2.2076  3.9382
40922SOL     OW30005   5.959   0.925   0.618 -0.0641  0.4859 -0.2828
40922SOL    HW130006   6.028   0.986   0.646  0.5848 -0.0632 -0.6600
40922SOL    HW230007   5.974   0.913   0.524 -1.5485  1.4570 -0.6911
40923SOL     OW30008   5.348   3.918  11.601 -0.1913  0.5983 -0.3517
40923SOL    HW130009   5.292   3.849  11.566 -0.5543  0.6831  0.0436
40923SOL    HW230010   5.373   3.971  11.526  0.9020 -0.5280 -0.8183
40924SOL     OW30011   9.123   2.581   5.102  0.0035 -0.0680 -0.1182
40924SOL    HW130012   9.125   2.617   5.013  1.2372 -0.4209 -0.2476
40924SOL    HW230013   9.098   2.656   5.156 -0.4127  0.2411 -0.7129
40925SOL     OW30014   9.617   1.482   1.857 -0.7945  0.6329 -0.2684
40925SOL    HW130015   9.591   1.399   1.818  0.8532  0.1970 -0.5138
40925SOL    HW230016   9.629   1.463   1.950  0.1831  0.4215 -0.4265
40926SOL     OW30017   7.130  10.369   5.280 -0.0242  0.2038 -0.7564
40926SOL    HW130018   7.163  10.441   5.334 -0.8452 -0.9056  1.3861
40926SOL    HW230019   7.052  10.404   5.237 -0.9702  0.3844  1.0055
40927SOL     OW30020   0.669  10.731   8.893  0.0424  0.0722 -0.1604
40927SOL    HW130021   0.692  10.820   8.921 -2.3857  1.5300 -2.4239
40927SOL    HW230022   0.574  10.727   8.901 -0.0364 -1.8179 -1.5037
40928SOL     OW30023   6.940  10.067   0.218  0.3397  0.0559 -0.5881
40928SOL    HW130024   7.020  10.019   0.196  1.3522  0.9259  0.9372
40928SOL    HW230025   6.889  10.006   0.271  0.1390 -0.3953 -1.2939
40929SOL     OW30026   5.288   0.973   4.315  0.4170 -0.0184  0.0072
40929SOL    HW130027   5.235   0.909   4.267 -0.7903  0.8406  0.1635
40929SOL    HW230028   5.321   1.032   4.247 -0.0679  0.3225  0.0628
40930SOL     OW30029   0.716   5.651   3.924 -0.1951  0.6593 -0.2522
40930SOL    HW130030   0.784   5.583   3.922 -0.0083  0.8344 -3.1353
40930SOL    HW230031   0.641   5.607   3.964  0.6949 -0.4335  0.2907
40931SOL     OW30032   5.908  11.726  11.989  0.1704 -0.1452  0.0763
40931SOL    HW130033   5.960  11.697  11.914 -0.4446  1.5219 -1.0242
40931SOL    HW230034   5.967  11.783  12.039  0.3914 -0.7928  0.5768
40932SOL     OW30035   1.763   4.287   7.548  0.3809  0.8193  0.0487
40932SOL    HW130036   1.756   4.207   7.600  0.1434  0.3079 -0.7511
40932SOL    HW230037   1.700   4.347   7.587 -0.9427 -0.0992 -0.5980
40933SOL     OW30038   4.518   1.054  10.202  0.7325 -0.2327 -0.7597
40933SOL    HW130039   4.589   1.090  10.148  1.0233 -0.3915 -0.4795
40933SOL    HW230040   4.500   1.122  10.266  0.6990 -0.2348 -0.7668
40934SOL     OW30041   6.313   5.595  10.753 -0.1295  0.3865  0.1217
40934SOL    HW130042   6.365   5.609  10.673  0.1377 -1.2362 -0.0139
40934SOL    HW230043   6.337   5.669  10.809  0.8953  0.7032 -0.6869
40935SOL     OW30044   6.859   6.502   4.748  0.2877  0.1078  0.0050
40935SOL    HW130045   6.785   6.504   4.687  0.2551 -0.9246 -0.0146
40935SOL    HW230046   6.924   6.447   4.706 -0.2687 -1.7559  1.4346
40936SOL     OW30047   2.799   6.861   2.850  0.4744 -0.0632 -0.1704
40936SOL    HW130048   2.806   6.861   2.755 -0.6473 -0.3325 -0.2700
40936SOL    HW230049   2.837   6.945   2.877  3.6213 -1.2254 -0.5723
40937SOL     OW30050   8.504  10.490  10.109  0.0666 -0.0023  0.5374
40937SOL    HW130051   8.566  10.444  10.052 -0.5111  0.9125 -0.8986
40937SOL    HW230052   8.419  10.475  10.068 -0.1874  1.9638  0.2537
40938SOL     OW30053   2.588   5.589  10.993 -0.3384  0.6258 -0.6295
40938SOL    HW130054   2.547   5.652  11.052 -3.0264 -0.8355 -0.7280
40938SOL    HW230055   2.658   5.550  11.045 -0.9099  1.2455  0.6665
40939SOL     OW30056   3.725   6.165   8.623  0.1110 -0.7279  0.1302
40939SOL    HW130057   3.757   6.220   8.695 -1.3060  0.9071 -0.3999
40939SOL    HW230058   3.711   6.079   8.662 -0.0519 -0.0362  1.6757
40940SOL     OW30059   7.402  12.341   7.309  0.3035  0.3053 -0.0036
40940SOL    HW130060   7.401  12.268   7.371  2.9456 -0.6520 -0.9038
40940SOL    HW230061   7.442  12.413   7.358 -1.0969  0.7868  0.4848
40941SOL     OW30062   3.654   8.945   3.353  0.2587  0.2684 -0.1276
40941SOL    HW130063   3.632   9.007   3.284 -1.5468 -0.1237  0.0432
40941SOL    HW230064   3.624   8.860   3.321 -1.9730  0.2801  1.6293
40942SOL     OW30065   1.040  12.426   1.303  0.0910  0.0508  0.3370
40942SOL    HW130066   0.990  12.478   1.365 -0.5078  1.3672 -1.1823
40942SOL    HW230067   1.088  12.490   1.251  1.2338 -1.0554 -0.0291
40943SOL     OW30068   4.244   3.521  10.653 -0.0278  0.1859  0.0258
40943SOL    HW130069   4.286   3.504  10.569  1.2319  0.8326  0.5024
40943SOL    HW230070   4.316   3.530  10.715 -0.9420 -0.6523  1.2656
40944SOL     OW30071   3.330   7.159   3.007 -0.5944 -0.4216  0.0699
40944SOL    HW130072   3.377   7.242   3.020 -0.1710 -0.8786  1.5860
40944SOL    HW230073   3.395   7.101   2.968 -0.7204 -0.2392 -0.4265
40945SOL     OW30074  10.164  11.841   9.466 -0.0887  0.6733 -0.3154
40945SOL    HW130075  10.190  11.894   9.542  2.4735  0.5391 -1.0026
40945SOL    HW230076  10.084  11.796   9.494 -0.3927  2.2356  1.5158
40946SOL     OW30077  12.643   9.473  10.279  0.1474 -0.4809 -0.1115
40946SOL    HW130078  12.727   9.490  10.323  0.3681 -2.0073  0.1007
40946SOL    HW230079  12.667   9.424  10.200 -0.6442 -2.3597  0.7715
40947SOL     OW30080   4.845   5.609  11.800  0.4038 -0.5159  0.0858
40947SOL    HW130081   4.833   5.516  11.783 -1.7385 -0.1856 -0.5790
40947SOL    HW230082   4.884   5.613  11.887  2.8676 -2.0452 -0.8399
40948SOL     OW30083   6.616   8.406  12.256  0.0398  0.0814 -0.2294
40948SOL    HW130084   6.539   8.359  12.222 -0.3686 -0.3062  1.1514
40948SOL    HW230085   6.677   8.336  12.281  0.6577  0.3771 -0.9102
40949SOL     OW30086   2.074   0.408   4.469  0.3541 -0.2352  0.3205
40949SOL    HW130087   2.029   0.457   4.400 -0.2948 -2.4124 -0.9019
40949SOL    HW230088   2.162   0.392   4.432  0.0755 -1.2197  0.0480
40950SOL     OW30089   4.665   5.649   6.359 -0.0443 -0.2408  0.0086
40950SOL    HW130090   4.697   5.559   6.359 -0.1535 -0.2796 -0.2599
40950SOL    HW230091   4.573   5.642   6.332 -0.3083 -0.1424  0.8452
40951SOL     OW30092   3.498   2.308  11.224 -0.2567 -0.1764  0.1228
40951SOL    HW130093   3.572   2.347  11.271  0.9519 -0.8411 -1.1797
40951SOL    HW230094   3.471   2.234  11.279  0.5085 -0.3597  0.2679
40952SOL     OW30095  12.258   3.045   3.777  0.8215 -0.1486 -0.5613
40952SOL    HW130096  12.167   3.043   3.750  1.0623 -0.0629 -1.4116
40952SOL    HW230097  12.255   3.062   3.871 -0.0523 -0.9305 -0.4318
40953SOL     OW30098  11.768   5.982   1.386 -0.1742  0.1024 -0.9281
40953SOL    HW130099  11.810   5.910   1.339  0.8170  0.0396  0.0154
40953SOL    HW230100  11.675   5.960   1.384  0.2035 -1.9926  0.5388
40954SOL     OW30101  12.252   6.429  11.458  0.7504  0.1191  0.0273
40954SOL    HW130102  12.281   6.363  11.395 -1.3738 -0.1388 -0.7532
40954SOL    HW230103  12.326   6.490  11.463  1.0564  0.0979 -2.6731
40955SOL     OW30104   0.711   0.934   8.107 -0.1184 -0.4461 -0.7666
40955SOL    HW130105   0.643   0.872   8.082 -0.2347 -0.3128 -0.7852
40955SOL    HW230106   0.687   0.963   8.195  1.7454 -2.9434  0.6990
40956SOL     OW30107   1.952   0.586   1.799 -0.1941 -0.0307  0.4886
40956SOL    HW130108   1.966   0.625   1.885 -0.7051 -0.4762  0.7775
40956SOL    HW230109   1.872   0.535   1.808  0.4711 -1.1791  0.1178
40957SOL     OW30110   9.303   6.314   7.255 -0.4366 -0.0875  0.4074
40957SOL    HW130111   9.388   6.272   7.251 -0.3646 -0.0381  1.1865
40957SOL    HW230112   9.308   6.387   7.193 -0.6197 -1.2956 -1.0904
40958SOL     OW30113  10.859   3.506   7.424  0.1919  0.3849 -0.1904
40958SOL    HW130114  10.814   3.565   7.485  0.0131  0.3281 -0.2692
40958SOL    HW230115  10.798   3.434   7.411 -0.5464  1.2536 -1.8269
40959SOL     OW30116   1.696   5.792   1.993  0.7723 -0.3079  0.2979
40959SOL    HW130117   1.787   5.767   2.008  0.4388 -0.4071  2.4643
40959SOL    HW230118   1.663   5.727   1.931  1.4360 -1.9701  1.6130
40960SOL     OW30119   9.290   5.201   5.915  0.0008 -0.3970 -0.0095
40960SOL    HW130120   9.235   5.124   5.928  0.0582 -0.4755 -0.2236
40960SOL    HW230121   9.359   5.192   5.982 -0.9030  0.3165  1.0383
40961SOL     OW30122   2.272   1.366   9.644  0.3199  0.4295 -0.6670
40961SOL    HW130123   2.322   1.343   9.723  1.2565 -0.6293 -1.5183
40961SOL    HW230124   2.321   1.325   9.573 -0.8218  0.8731 -1.7448
40962SOL     OW30125   6.360   3.360   7.850 -0.4150 -0.0049 -0.5883
40962SOL    HW130126   6.451   3.335   7.867  0.2834  2.5742 -0.0750
40962SOL    HW230127   6.318   3.359   7.936  0.0333  1.8930 -0.3062
40963SOL     OW30128  12.513   3.202   2.598  0.4169  0.1847  0.3473
40963SOL    HW130129  12.576   3.129   2.594  1.3516  1.0195 -1.7893
40963SOL    HW230130  12.565   3.277   2.625 -0.4011  0.2474  1.8444
40964SOL     OW30131   9.524  11.322   4.890  0.3297  0.1785 -0.1501
40964SOL    HW130132   9.523  11.339   4.984 -2.0970 -1.1547  0.1633
40964SOL    HW230133   9.467  11.389   4.853  0.2786 -0.0421 -0.4772
40965SOL     OW30134   2.303   2.444  12.004  0.4558  0.7232 -0.5928
40965SOL    HW130135   2.393   2.447  11.973  0.7406  0.3995  0.1710
40965SOL    HW230136   2.307   2.481  12.092 -0.2943  1.4204 -0.8384
40966SOL     OW30137   5.226   3.225   2.809  0.5770 -0.2386  0.1085
40966SOL    HW130138   5.309   3.239   2.854  0.4631 -0.5233  0.4101
40966SOL    HW230139   5.245   3.155   2.746  1.2949  1.5850 -1.7940
40967SOL     OW30140  12.102  12.084   0.046  0.0563 -0.0780 -0.4521
40967SOL    HW130141  12.176  12.144   0.043  0.9119 -1.0782  0.0933
40967SOL    HW230142  12.027  12.137   0.020  0.9250  1.0043 -0.8116
40968SOL     OW30143   5.064   7.385   8.321 -0.0309  0.0052  0.0209
40968SOL    HW130144   5.072   7.361   8.229  2.8367  0.4304  0.0714
40968SOL    HW230145   5.055   7.301   8.367 -1.4930 -0.2079 -0.6121
40969SOL     OW30146   8.409  12.622  11.481 -0.5995 -0.5652  1.5463
40969SOL    HW130147   8.394  12.679  11.557  0.5923  1.2615  0.4950
40969SOL    HW230148   8.357  12.661  11.411  1.3464  0.1234  0.4290
40970SOL     OW30149  12.458   2.827   1.401  0.1658 -0.1643  0.1108
40970SOL    HW130150  12.539   2.795   1.439 -0.0335 -0.3536  0.3754
40970SOL    HW230151  12.486   2.890   1.334  0.5149  0.2920  0.6755
40971SOL     OW30152   0.169   6.671   9.342 -0.2433 -0.0868  0.2514
40971SOL    HW130153   0.254   6.652   9.382  0.1152 -1.8149 -1.2039
40971SOL    HW230154   0.122   6.721   9.409  0.9310 -1.3920  2.1429
40972SOL     OW30155   1.962   4.153   1.287  0.4078 -0.4895 -0.2522
40972SOL    HW130156   1.881   4.110   1.263  0.2313 -0.4958  0.3338
40972SOL    HW230157   2.008   4.088   1.341  0.9210 -0.5855 -0.7983
40973SOL     OW30158  10.169  11.654   2.633 -0.2973  0.3855 -0.3559
40973SOL    HW130159  10.141  11.737   2.595  1.1729  0.3609 -1.6102
40973SOL    HW230160  10.205  11.677   2.719  1.2962  1.2976 -1.2121
40974SOL     OW30161   9.381   5.281   4.341 -0.2571  0.0063 -0.1376
40974SOL    HW130162   9.446   5.213   4.358  0.3101  0.7422  0.7316
40974SOL    HW230163   9.373   5.283   4.246 -0.0410 -1.0392 -0.1907
40975SOL     OW30164   0.813   4.402   1.759  0.1338  0.5975 -0.1887
40975SOL    HW130165   0.848   4.483   1.796  0.7836 -0.0564  0.6685
40975SOL    HW230166   0.809   4.341   1.833 -0.5063 -0.1109 -0.7807
40976SOL     OW30167   4.786   0.332   6.671 -0.5679 -0.4956 -0.1487
40976SOL    HW130168   4.819   0.420   6.692 -1.0554  0.0731 -1.6173
40976SOL    HW230169   4.837   0.306   6.594 -2.0098 -0.5175 -1.1257
40977SOL     OW30170   1.436  11.253   5.249 -0.3346 -0.0964  0.0393
40977SOL    HW130171   1.407  11.175   5.296 -2.4092  1.5462  1.6791
40977SOL    HW230172   1.506  11.290   5.304 -1.4194  0.7745  0.8670
40978SOL     OW30173  11.966  12.501   7.491 -0.3756  0.1997 -0.2234
40978SOL    HW130174  11.907  12.455   7.552 -1.0149  0.7717 -0.4017
40978SOL    HW230175  11.922  12.494   7.406 -0.4198  1.0284 -0.2765
40979SOL     OW30176   7.601   2.468   6.250 -0.1080 -0.4937 -0.3185
40979SOL    HW130177   7.685   2.510   6.269  0.4258 -2.6365  2.8283
40979SOL    HW230178   7.612   2.430   6.163  1.7668  0.2475 -0.4522
40980SOL     OW30179   2.183   8.391   9.408 -0.0060 -0.5243 -0.2320
40980SOL    HW130180   2.194   8.419   9.317  0.3195 -3.3748 -1.1873
40980SOL    HW230181   2.266   8.414   9.450 -0.8393  2.5182 -0.0575
40981SOL     OW30182   4.449   4.731   2.784 -0.0660 -0.1075  0.0939
40981SOL    HW130183   4.527   4.683   2.812 -0.1808 -1.0160 -1.0824
40981SOL    HW230184   4.389   4.663   2.752 -2.1699  0.3242  2.7380
40982SOL     OW30185   1.809   3.256   1.335  0.0383 -0.1687  0.5641
40982SOL    HW130186   1.826   3.334   1.282  0.5397 -0.5580  0.1326
40982SOL    HW230187   1.802   3.288   1.425  2.5723  0.1427  0.7329
40983SOL     OW30188   6.505   3.675   2.401 -0.1260 -0.5087  0.0749
40983SOL    HW130189   6.423   3.629   2.414 -1.0117  0.4042 -1.9110
40983SOL    HW230190   6.561   3.613   2.354 -1.0027  0.0745 -1.8074
40984SOL     OW30191   4.615   8.067  12.646 -0.0442 -0.0656 -0.4084
40984SOL    HW130192   4.570   8.140  12.604  0.1803  1.1688  1.4255
40984SOL    HW230193   4.686   8.044  12.585 -1.5823 -0.4105 -2.1494
40985SOL     OW30194   6.878   9.367   0.895  0.2851 -0.2113  0.4344
40985SOL    HW130195   6.912   9.448   0.933 -0.4494  0.0476  0.5677
40985SOL    HW230196   6.955   9.321   0.861  0.6100  0.9701 -0.4648
40986SOL     OW30197   4.566  11.797   3.982 -0.7744 -0.3173 -0.6981
40986SOL    HW130198   4.513  11.876   3.978  0.0726  0.3878  0.9353
40986SOL    HW230199   4.565  11.772   4.075 -0.3585 -1.7496 -1.0549
40987SOL     OW30200   6.996   7.310   9.700 -0.2823  0.0745 -0.1964
40987SOL    HW130201   6.968   7.250   9.768 -0.4636 -0.6090 -0.8654
40987SOL    HW230202   6.944   7.389   9.714 -2.2281 -0.9712 -1.0995
40988SOL     OW30203   5.834  11.879   5.772 -0.2046 -0.0721  0.0325
40988SOL    HW130204   5.806  11.796   5.810 -0.0454 -0.0937  0.1036
40988SOL    HW230205   5.922  11.862   5.739 -0.6520 -0.2898 -1.0954
40989SOL     OW30206   4.091   3.882   9.514  0.1939  0.1079  0.6108
40989SOL    HW130207   4.069   3.971   9.539 -2.3739 -0.3008  0.0846
40989SOL    HW230208   4.152   3.852   9.582 -1.6983  1.0859  2.8668
40990SOL     OW30209   5.719   2.633   1.633  0.2738 -0.7173  0.8117
40990SOL    HW130210   5.760   2.718   1.648 -1.5841  0.3527  0.1550
40990SOL    HW230211   5.671   2.615   1.714 -0.9907 -0.1179  0.2253
40991SOL     OW30212   0.768  11.419   6.325 -0.0799  0.4897  0.1823
40991SOL    HW130213   0.857  11.437   6.356  0.6324  0.8170 -1.8890
40991SOL    HW230214   0.730  11.365   6.393  2.3200 -1.1749  0.3513
40992SOL     OW30215   2.129   9.857   7.090  0.3613  0.0428  0.0350
40992SOL    HW130216   2.176   9.941   7.081 -0.5591  0.5549 -0.1055
40992SOL    HW230217   2.079   9.867   7.171 -1.0066  0.2717 -0.8100
40993SOL     OW30218   6.478   9.461   8.862  1.0926 -0.1519  0.4030
40993SOL    HW130219   6.487   9.494   8.952 -0.1059 -0.7786  0.7725
40993SOL    HW230220   6.525   9.525   8.809 -0.8267  1.9904  1.1411
40994SOL     OW30221  10.527   2.854   0.870 -0.1914  0.4550 -0.0954
40994SOL    HW130222  10.452   2.882   0.922  0.3796  0.3017  0.8310
40994SOL    HW230223  10.506   2.763   0.847 -0.5254  0.5774 -0.2869
40995SOL     OW30224  11.726   7.916   7.757  0.3169  0.1493 -0.2382
40995SOL    HW130225  11.744   7.874   7.673 -1.2231 -0.1675 -0.4478
40995SOL    HW230226  11.697   8.004   7.734  0.0004  0.0980 -0.0433
40996SOL     OW30227   1.577   2.017   0.917 -0.5659 -0.2764  0.2386
40996SOL    HW130228   1.560   1.938   0.866 -1.9405  0.3812 -0.3882
40996SOL    HW230229   1.630   1.987   0.991  0.1269 -1.5282 -0.7152
40997SOL     OW30230   2.803  11.573  10.455  0.2327  0.2395 -0.0931
40997SOL    HW130231   2.727  11.565  10.398  0.8047  2.4973 -1.2676
40997SOL    HW230232   2.768  11.610  10.537 -0.2764 -1.1229  0.3308
40998SOL     OW30233   1.186   6.801  11.619  0.0256 -0.0736 -0.1172
40998SOL    HW130234   1.153   6.776  11.706 -2.6974  1.3004 -0.6267
40998SOL    HW230235   1.166   6.725  11.563  1.4754 -0.8250  0.3378
40999SOL     OW30236   1.289   2.789   3.663  0.0354  0.8187 -0.3324
40999SOL    HW130237   1.342   2.777   3.584 -0.7072 -1.4798 -0.5338
40999SOL    HW230238   1.205   2.822   3.631  0.5188  2.2097 -0.2328
41000SOL     OW30239  10.774   2.934  11.250  0.5774 -0.0699  0.1248
41000SOL    HW130240  10.854   2.981  11.227 -0.7715  1.2328 -2.3058
41000SOL    HW230241  10.719   3.001  11.293  0.7158 -0.9487  1.7725
41001SOL     OW30242   7.322   9.170   6.170 -0.0433 -0.2150  0.1450
41001SOL    HW130243   7.370   9.200   6.246 -0.0055  0.2684 -0.0678
41001SOL    HW230244   7.387   9.171   6.099 -1.2069  4.5443 -1.1931
41002SOL     OW30245  12.358   7.963   1.401  0.3318 -0.1833  0.5860
41002SOL    HW130246  12.376   8.037   1.344 -1.7447 -0.2882 -0.2771
41002SOL    HW230247  12.297   7.908   1.352 -0.9416 -0.6626  2.5901
41003SOL     OW30248   5.665   9.447   1.136  0.4749 -0.0121 -0.3526
41003SOL    HW130249   5.689   9.535   1.109  0.9128  0.2117  0.7113
41003SOL    HW230250   5.610   9.460   1.214  2.0750 -0.7006  0.9495
41004SOL     OW30251   4.353   0.871   4.986  0.1789 -0.1982 -0.0171
41004SOL    HW130252   4.316   0.871   4.897  2.3837  0.5222 -1.0167
41004SOL    HW230253   4.382   0.962   4.999  0.7183 -0.5146  1.0640
41005SOL     OW30254   8.642  11.741   2.373 -0.0152  0.7780 -0.3214
41005SOL    HW130255   8.594  11.682   2.315 -0.6493  1.6556 -0.7287
41005SOL    HW230256   8.707  11.686   2.416 -1.7981 -0.6098  0.7274
41006SOL     OW30257   0.417  10.946   5.679  0.6387  0.6083  0.0696
41006SOL    HW130258   0.330  10.937   5.640  1.0640 -1.5648 -0.4875
41006SOL    HW230259   0.405  11.013   5.746 -1.4154  0.5205 -0.1216
41007SOL     OW30260   9.670   1.379   9.571 -0.2468  0.0058 -0.5366
41007SOL    HW130261   9.692   1.287   9.583 -0.5291 -0.1810 -1.3583
41007SOL    HW230262   9.733   1.427   9.624  1.2432 -0.5662 -1.7185
41008SOL     OW30263   1.309  12.544   1.892 -0.6610  0.1247  0.1664
41008SOL    HW130264   1.315  12.453   1.922 -0.7128 -0.4811 -1.5899
41008SOL    HW230265   1.231  12.578   1.936 -1.0693 -0.9102  0.2767
41009SOL     OW30266  10.442   1.028   4.328 -0.2481 -0.3009 -0.1577
41009SOL    HW130267  10.435   0.989   4.241  3.1181 -0.2381 -0.5845
41009SOL    HW230268  10.519   0.987   4.367  0.9954  2.8359  1.0083
41010SOL     OW30269   5.926   5.452   6.696 -0.3264  0.6350 -0.4458
41010SOL    HW130270   5.871   5.411   6.630 -2.2600  0.4777  1.1714
41010SOL    HW230271   5.955   5.534   6.656  0.7652 -0.6432 -2.4346
41011SOL     OW30272   3.903  10.208   0.239 -0.3066  0.6282  0.2320
41011SOL    HW130273   3.962  10.266   0.191 -0.4565  2.1885  1.8450
41011SOL    HW230274   3.960  10.136   0.268 -0.6295 -1.7109 -4.1147
41012SOL     OW30275   8.572   7.206   2.046 -0.1327  0.1440 -0.5335
41012SOL    HW130276   8.544   7.281   1.994  2.0105  0.1569 -1.8177
41012SOL    HW230277   8.646   7.169   1.997 -0.6713 -2.4137  0.4073
41013SOL     OW30278   9.897   5.000  10.715 -0.0159 -0.2348 -0.3270
41013SOL    HW130279   9.980   4.970  10.678 -0.5676 -1.6523 -0.4431
41013SOL    HW230280   9.836   4.927  10.703 -1.9233  1.5244 -2.2043
41014SOL     OW30281   9.974   8.280   6.514  0.2858  0.0242  0.4110
41014SOL    HW130282   9.981   8.326   6.598  2.2391  0.0046  0.3114
41014SOL    HW230283   9.981   8.348   6.448  1.8738 -0.2224  0.2765
41015SOL     OW30284   7.494   3.461   5.612  0.0767  0.0464  0.1163
41015SOL    HW130285   7.532   3.374   5.616 -0.0792 -0.3089 -3.2397
41015SOL    HW230286   7.569   3.520   5.600 -0.0312 -0.0311 -0.9962
41016SOL     OW30287  12.649   6.970   7.653  0.2462  0.2613  0.4908
41016SOL    HW130288  12.630   6.894   7.599  0.9738  1.4097 -1.5107
41016SOL    HW230289  12.593   7.039   7.618 -0.2377  0.7313  2.1160
41017SOL     OW30290  11.728   7.113   7.164  0.0701 -0.7726 -0.1349
41017SOL    HW130291  11.800   7.060   7.131  0.1283  0.2043 -1.7093
41017SOL    HW230292  11.768   7.169   7.230  0.8333 -0.0782 -1.1554
41018SOL     OW30293   3.241   0.239   7.949 -0.2542  0.0107 -0.2710
41018SOL    HW130294   3.157   0.217   7.908  0.8120 -0.5708 -2.2258
41018SOL    HW230295   3.246   0.334   7.942 -1.7483  0.3277  1.9688
41019SOL     OW30296   1.681   8.846  12.616 -0.2280 -0.7503  0.6165
41019SOL    HW130297   1.773   8.860  12.641  0.6076  1.6015 -2.9065
41019SOL    HW230298   1.635   8.922  12.650 -0.4607 -0.9504  0.7505
41020SOL     OW30299   9.839   2.272   4.090 -0.1848 -0.5027  0.2297
41020SOL    HW130300   9.765   2.324   4.122 -1.6247 -1.0130 -2.0465
41020SOL    HW230301   9.917   2.322   4.116 -1.4282  1.5282  0.2510
41021SOL     OW30302   7.204   8.734   7.024  0.0008  0.2115  0.2965
41021SOL    HW130303   7.170   8.793   6.957 -0.5545  0.4381  0.7658
41021SOL    HW230304   7.296   8.720   7.001  0.2728  1.6488  0.4580
41022SOL     OW30305   1.662  10.870  11.610  0.6252  0.0244  0.0187
41022SOL    HW130306   1.679  10.963  11.595  1.3758 -0.4885 -3.1538
41022SOL    HW230307   1.569  10.866  11.634  0.3331  1.5306 -0.7107
41023SOL     OW30308   1.234  10.962   5.036 -0.0067  0.6890 -0.0662
41023SOL    HW130309   1.143  10.955   5.005 -0.0434 -0.6814  0.3127
41023SOL    HW230310   1.287  10.938   4.960 -0.0402 -0.6428  0.3082
41024SOL     OW30311   4.247   3.655   3.070 -0.5047  0.2693  0.0037
41024SOL    HW130312   4.324   3.611   3.106 -0.3133  0.5171 -0.1020
41024SOL    HW230313   4.257   3.645   2.975 -1.7530 -1.6830  0.0100
41025SOL     OW30314   6.649   7.895   7.047 -0.3809  0.4137  0.2350
41025SOL    HW130315   6.667   7.988   7.058  0.1254  0.4984 -1.1165
41025SOL    HW230316   6.727   7.861   7.004  0.3788 -1.0946  2.5952
41026SOL     OW30317   7.581  11.691  12.522 -0.2576  0.1285 -0.5913
41026SOL    HW130318   7.655  11.702  12.462  1.0595  0.4981  1.0285
41026SOL    HW230319   7.579  11.598  12.541 -0.0590  0.1535 -0.4503
41027SOL     OW30320  10.378   3.157  11.731 -0.3585 -0.2300 -0.6805
41027SOL    HW130321  10.335   3.212  11.666 -1.7674  1.2478  1.3806
41027SOL    HW230322  10.470   3.182  11.727 -0.6923  1.0061 -1.0159
41028SOL     OW30323   6.705   2.839   3.442 -0.3226  0.2861  0.1332
41028SOL    HW130324   6.686   2.883   3.360 -0.2043 -1.5049 -0.9126
41028SOL    HW230325   6.655   2.888   3.508  1.1580  3.0136 -0.6123
41029SOL     OW30326   0.854   8.034  10.368  0.0651  0.0331 -0.4576
41029SOL    HW130327   0.927   8.020  10.428 -0.2420  2.9386  0.7518
41029SOL    HW230328   0.892   8.081  10.295 -0.2079 -0.4368 -0.9072
41030SOL     OW30329  10.171  11.514   3.333 -0.3733  0.7987 -0.2407
41030SOL    HW130330  10.254  11.513   3.380 -0.1909 -2.8097 -0.3506
41030SOL    HW230331  10.125  11.591   3.366  1.2093  0.4221  3.2082
41031SOL     OW30332   1.880   8.577   2.646  0.5097 -0.2972  0.3262
41031SOL    HW130333   1.792   8.612   2.658  0.1795 -0.4793 -1.3769
41031SOL    HW230334   1.937   8.640   2.691 -0.1658  1.8701 -1.6365
41032SOL     OW30335   8.834   5.337   4.251  0.3499  0.1735 -0.1211
41032SOL    HW130336   8.889   5.334   4.172  1.4843 -1.0271  0.6738
41032SOL    HW230337   8.894   5.357   4.322 -0.7296  1.6509  0.4177
41033SOL     OW30338  12.505   9.668   4.683 -0.3047 -0.1004  0.0238
41033SOL    HW130339  12.463   9.590   4.646  0.3376 -0.4366 -0.0101
41033SOL    HW230340  12.457   9.685   4.763 -2.5107  1.3450 -1.4853
41034SOL     OW30341   9.677  12.625   7.032  0.3960  0.1329  0.3409
41034SOL    HW130342   9.697  12.545   6.984  0.7800  0.3216  0.1853
41034SOL    HW230343   9.643  12.685   6.965  2.4588  0.9667 -0.0372
41035SOL     OW30344   6.470  10.389   5.510  0.0791 -0.4661 -0.3184
41035SOL    HW130345   6.423  10.408   5.429  3.2895 -0.5672 -2.3349
41035SOL    HW230346   6.471  10.293   5.515  0.4785 -0.4719 -0.5259
41036SOL     OW30347   4.705   8.389  11.486  0.0274 -0.5920  0.2220
41036SOL    HW130348   4.794   8.382  11.453  0.0802  0.9958 -0.0315
41036SOL    HW230349   4.684   8.482  11.482 -1.6265 -0.9133  0.3434
41037SOL     OW30350   2.290   0.597  10.073  0.0291 -0.0834  0.3540
41037SOL    HW130351   2.299   0.629   9.984 -0.7331  0.0552  0.3226
41037SOL    HW230352   2.375   0.613  10.113 -0.5646  2.9131  0.6393
41038SOL     OW30353   2.427   6.309  12.133  0.2057  0.8777 -0.2052
41038SOL    HW130354   2.363   6.372  12.101 -1.3724 -1.2078 -1.3998
41038SOL    HW230355   2.449   6.255  12.057  0.2000 -1.0578  1.0789
41039SOL     OW30356  10.898   2.200   3.232  0.4657  0.1475  0.4513
41039SOL    HW130357  10.931   2.145   3.302 -2.0607  0.4253  1.9682
41039SOL    HW230358  10.862   2.276   3.276  1.0348  1.5445 -1.3753
41040SOL     OW30359  11.331   3.357  11.701  0.6084  0.1369 -0.3288
41040SOL    HW130360  11.284   3.441  11.702 -1.7942 -1.1364 -0.0129
41040SOL    HW230361  11.350   3.339  11.793 -0.1102 -0.3186 -0.2693
41041SOL     OW30362   9.391   6.986   8.334  0.2853  0.2965  0.2395
41041SOL    HW130363   9.462   7.043   8.364  0.6694  0.1206 -0.3221
41041SOL    HW230364   9.430   6.899   8.331  0.0848  0.2201 -0.1991
41042SOL     OW30365   6.889   1.242   3.775 -0.0259  0.0286 -0.0699
41042SOL    HW130366   6.829   1.178   3.738 -1.0439  1.0640 -0.2559
41042SOL    HW230367   6.960   1.248   3.712 -0.4331 -0.1642 -0.5514
41043SOL     OW30368   7.890   1.537   0.216  0.0943 -0.4388  0.0031
41043SOL    HW130369   7.950   1.534   0.141  1.0260 -2.9986  0.7693
41043SOL    HW230370   7.939   1.585   0.283 -0.6796  1.7184 -0.8848
41044SOL     OW30371   0.406   2.468   0.240  0.0533 -0.0661 -0.2930
41044SOL    HW130372   0.331   2.415   0.213 -0.4503  0.6225 -0.3065
41044SOL    HW230373   0.366   2.547   0.279  0.6956 -1.1070  2.7736
41045SOL     OW30374   1.227  11.641   3.057 -0.1073 -0.3312  0.0788
41045SOL    HW130375   1.173  11.644   2.978 -0.1448 -0.2917  0.1055
41045SOL    HW230376   1.253  11.550   3.065 -0.8127 -0.4998  0.4976
41046SOL     OW30377   7.072  11.439   5.657 -0.2727 -0.2060 -0.3155
41046SOL    HW130378   6.979  11.442   5.633 -0.5683  0.3633  0.8170
41046SOL    HW230379   7.082  11.355   5.703 -0.2651 -0.1801 -0.2706
41047SOL     OW30380   7.133   8.288  11.201  0.1899 -0.3674 -0.2096
41047SOL    HW130381   7.221   8.288  11.238  0.3401 -0.2300 -0.5659
41047SOL    HW230382   7.082   8.345  11.258  0.8653  1.3437 -1.2600
41048SOL     OW30383   3.854   9.146   7.626  0.6491 -0.2979  0.1288
41048SOL    HW130384   3.812   9.078   7.574 -1.7955  1.7318 -0.7372
41048SOL    HW230385   3.803   9.150   7.707 -1.0749  2.2778 -0.9731
41049SOL     OW30386   8.723   8.517   6.223  0.0531 -0.6631 -0.0268
41049SOL    HW130387   8.726   8.467   6.305  0.5766 -1.5180 -0.5627
41049SOL    HW230388   8.631   8.543   6.215 -0.0173 -0.6040  0.8017
41050SOL     OW30389  10.488   9.849   1.398  0.5707  0.0618 -0.2862
41050SOL    HW130390  10.563   9.831   1.454  1.3644 -0.0966 -1.3690
41050SOL    HW230391  10.434   9.909   1.449  1.8415  0.8475  0.1979
41051SOL     OW30392   7.962   5.710   0.706  0.2461 -0.3357  0.4486
41051SOL    HW130393   7.976   5.656   0.784  0.9195 -0.1702  0.4493
41051SOL    HW230394   7.868   5.707   0.692  0.2244 -1.1772  0.6872
41052SOL     OW30395   4.392   2.843   7.547 -0.4267 -0.2580  0.2340
41052SOL    HW130396   4.360   2.927   7.515  0.3755 -0.1298 -0.2652
41052SOL    HW230397   4.321   2.781   7.530 -0.1214 -0.1432 -1.5661
41053SOL     OW30398   0.593  12.663  12.539 -0.0016 -0.0562  0.4155
41053SOL    HW130399   0.646  12.710  12.603  0.2711  0.1798  0.0126
41053SOL    HW230400   0.654  12.640  12.469 -0.7818  1.9297 -1.0112
41054SOL     OW30401   7.858   8.691   5.529 -0.5954 -0.2946  0.4291
41054SOL    HW130402   7.882   8.766   5.583  0.5004  0.1625 -0.6429
41054SOL    HW230403   7.929   8.629   5.540  0.0477  0.1228 -1.0296
41055SOL     OW30404   2.970   0.487   0.720 -0.3563 -0.3180  0.5673
41055SOL    HW130405   3.044   0.512   0.776 -1.9074  0.1604  2.5371
41055SOL    HW230406   2.947   0.399   0.749  1.9382 -2.2707 -2.9146
41056SOL     OW30407   1.559   4.656   2.129  0.3475  0.4450  0.0575
41056SOL    HW130408   1.505   4.580   2.148  0.5898  0.2700  0.0456
41056SOL    HW230409   1.649   4.622   2.123  0.7371  0.9911  1.9375
41057SOL     OW30410  10.783   9.781   5.669  0.0995 -0.1522 -0.2149
41057SOL    HW130411  10.803   9.729   5.747  0.0674 -2.6381 -1.7573
41057SOL    HW230412  10.718   9.729   5.621 -0.7502  1.8422 -1.3737
41058SOL     OW30413  10.745   3.785   1.861 -0.0782  0.2357 -0.0725
41058SOL    HW130414  10.750   3.734   1.941 -2.2317 -1.1474 -0.7301
41058SOL    HW230415  10.770   3.874   1.887 -0.5223 -0.2120  2.0536
41059SOL     OW30416  10.978  11.535  10.246 -0.3505 -0.4834 -0.0069
41059SOL    HW130417  10.887  11.546  10.272 -0.1056 -1.3842  1.3493
41059SOL    HW230418  11.011  11.467  10.304  0.7856 -1.2481 -1.4910
41060SOL     OW30419   8.830  10.611   0.040 -0.1130  0.0145 -0.6847
41060SOL    HW130420   8.876  10.679   0.089 -0.3050 -0.3745  0.0418
41060SOL    HW230421   8.761  10.581   0.099  1.0506 -2.0671 -0.2673
41061SOL     OW30422   6.977   2.577  12.492  0.2205 -0.5633  0.0495
41061SOL    HW130423   6.910   2.612  12.433  0.9112  1.0313  0.1807
41061SOL    HW230424   7.011   2.500  12.445  0.4162  0.3836 -1.4507
41062SOL     OW30425   3.933   9.078   6.773  0.2343 -0.4163  0.6016
41062SOL    HW130426   3.996   9.046   6.837  0.5723 -0.2484  0.3572
41062SOL    HW230427   3.887   9.000   6.743 -0.1118 -0.4589  1.2464
41063SOL     OW30428   8.518   5.138   6.724 -0.2751  0.7823 -0.3366
41063SOL    HW130429   8.559   5.098   6.647  1.7318  0.1999  0.9633
41063SOL    HW230430   8.475   5.217   6.690  2.2061  1.6081 -1.8134
41064SOL     OW30431   9.322   0.557   7.039 -0.0080  0.1601 -0.0475
41064SOL    HW130432   9.272   0.631   7.072 -0.1284 -1.2857  3.4760
41064SOL    HW230433   9.255   0.494   7.011  0.0362  0.4169 -0.7518
41065SOL     OW30434   9.689   6.267   9.196 -0.4530 -0.4038  0.7442
41065SOL    HW130435   9.634   6.325   9.248 -0.5299  1.7255 -1.4881
41065SOL    HW230436   9.730   6.325   9.131  0.3813 -2.6968 -0.9268
41066SOL     OW30437   0.360   5.557   3.092  0.0031  0.3322  0.2402
41066SOL    HW130438   0.448   5.577   3.123  0.4453 -1.3281  0.1685
41066SOL    HW230439   0.359   5.462   3.081 -1.9257  0.2563  0.6090
41067SOL     OW30440   8.382   5.303   6.984  0.2898  0.2140  0.0984
41067SOL    HW130441   8.394   5.397   6.977 -1.9722  0.5494 -0.0215
41067SOL    HW230442   8.302   5.285   6.934 -0.2859 -1.5001  1.5165
41068SOL     OW30443   6.590  11.072   3.758 -0.3735  0.1781  0.0560
41068SOL    HW130444   6.577  11.048   3.850  1.2560 -0.0959  0.2367
41068SOL    HW230445   6.502  11.072   3.721 -1.0853  0.4275  1.6446
41069SOL     OW30446  10.352   5.446   5.388  0.0724  0.1442 -0.2110
41069SOL    HW130447  10.376   5.439   5.296 -0.4026  1.3162 -0.4384
41069SOL    HW230448  10.436   5.448   5.434  0.4323  1.9604 -0.8338
41070SOL     OW30449   4.195   5.978   2.500 -0.1899  0.2388 -0.1193
41070SOL    HW130450   4.115   6.020   2.469  0.2894  2.0372  0.9525
41070SOL    HW230451   4.249   5.968   2.421 -0.0306  2.3561 -0.3337
41071SOL     OW30452   4.328   7.716   5.820  0.1242  0.1990 -0.7131
41071SOL    HW130453   4.244   7.749   5.788 -0.2916 -0.8693 -0.7620
41071SOL    HW230454   4.346   7.769   5.898 -1.2620 -0.4326  0.0808
41072SOL     OW30455  12.435  10.209   1.728  0.3188 -0.6091 -0.5233
41072SOL    HW130456  12.407  10.228   1.638  0.9141 -0.4939 -0.6908
41072SOL    HW230457  12.486  10.286   1.753 -0.0276 -0.5487 -0.0076
41073SOL     OW30458   6.113   0.488   6.087 -0.3778 -0.1107 -0.3299
41073SOL    HW130459   6.119   0.497   6.182  1.6526  0.3487 -0.4581
41073SOL    HW230460   6.203   0.493   6.056 -0.9170 -1.0790 -2.2356
41074SOL     OW30461   1.461   0.599   4.081  0.4404  0.2974  0.6984
41074SOL    HW130462   1.536   0.653   4.056 -0.5649  1.6743  0.5815
41074SOL    HW230463   1.421   0.575   3.998  0.8860 -0.6762  0.7482
41075SOL     OW30464   3.550   4.721   7.176  0.1067 -0.1518  0.2482
41075SOL    HW130465   3.494   4.786   7.220  0.5981 -0.4529  1.3735
41075SOL    HW230466   3.589   4.768   7.103 -0.3450  0.5256  0.4325
41076SOL     OW30467   3.462  12.347  11.990 -0.1233 -0.1129  0.1173
41076SOL    HW130468   3.502  12.394  12.064  0.5194 -1.4631  0.6755
41076SOL    HW230469   3.492  12.257  12.001  0.0480 -0.3311 -1.8626
41077SOL     OW30470   0.996   6.257   0.025  0.0671 -0.0842 -0.1399
41077SOL    HW130471   1.060   6.217  -0.033  0.6350 -1.3809  1.2883
41077SOL    HW230472   0.911   6.226  -0.007  0.2010  0.8553 -1.4615
41078SOL     OW30473   4.079   8.022   4.517  0.2900 -0.1938 -0.3525
41078SOL    HW130474   4.129   7.989   4.442  1.2971  2.0992 -0.7814
41078SOL    HW230475   4.028   8.094   4.482 -0.1064  0.1831  0.9456
41079SOL     OW30476   2.010   0.339  10.854  0.1535  0.1741  0.0064
41079SOL    HW130477   2.004   0.253  10.813 -0.5216 -0.1749  0.7981
41079SOL    HW230478   1.961   0.397  10.796 -0.5756 -0.2589  0.1808
41080SOL     OW30479   3.201   3.003   3.775 -0.0614  0.2632 -0.0374
41080SOL    HW130480   3.203   3.033   3.866  0.4534 -1.2080  0.4683
41080SOL    HW230481   3.270   3.052   3.732  1.1746 -0.5801  0.9118
41081SOL     OW30482   7.711   4.915   4.520 -0.8406 -0.0797  0.3725
41081SOL    HW130483   7.711   4.819   4.526  0.1084 -0.0852  0.3928
41081SOL    HW230484   7.795   4.937   4.480 -0.9419  0.7604  0.6006
41082SOL     OW30485   9.580   3.794   1.527 -0.1876 -0.1587 -0.0324
41082SOL    HW130486   9.596   3.888   1.533 -0.5149 -0.1674  1.1020
41082SOL    HW230487   9.524   3.774   1.601 -4.2475 -0.4019 -2.8626
41083SOL     OW30488   6.618   1.503   3.577  0.0012  0.2381 -0.3171
41083SOL    HW130489   6.713   1.515   3.582 -0.0873  1.5914 -1.2207
41083SOL    HW230490   6.605   1.409   3.582  1.3754  0.0511  0.0991
41084SOL     OW30491   6.504   6.460   0.705 -0.4491  0.5147 -0.4796
41084SOL    HW130492   6.499   6.523   0.632  0.3599  1.7939  0.5197
41084SOL    HW230493   6.413   6.434   0.720 -0.4846 -1.3331 -3.1947
41085SOL     OW30494   9.347  11.909  11.781 -0.1171  0.5280  0.0067
41085SOL    HW130495   9.351  11.997  11.820  1.3310  0.1659  0.7203
41085SOL    HW230496   9.434  11.894  11.745  0.2688 -1.3432  1.5526
41086SOL     OW30497   6.687   5.749  10.198 -0.0351 -0.0565 -0.4762
41086SOL    HW130498   6.692   5.825  10.257  0.5751  0.3676 -1.0556
41086SOL    HW230499   6.630   5.779  10.127  1.2640  0.3535 -1.3827
41087SOL     OW30500  10.838   4.326  10.469  0.4584 -0.2496  0.6072
41087SOL    HW130501  10.743   4.314  10.473  0.6053 -1.4658  0.7457
41087SOL    HW230502  10.850   4.420  10.457 -0.8328 -0.3526 -2.3117
41088SOL     OW30503   6.648   8.128   4.754 -0.1409 -0.2261  0.1469
41088SOL    HW130504   6.673   8.145   4.845 -0.8115  0.9847  0.1303
41088SOL    HW230505   6.724   8.156   4.702 -0.6350  1.3372  0.2202
41089SOL     OW30506   7.647  12.653   2.075 -0.1935 -0.3762 -0.5746
41089SOL    HW130507   7.627  12.579   2.017  0.8586 -0.4932 -0.8126
41089SOL    HW230508   7.743  12.661   2.071  0.3128 -2.2049  3.3450
41090SOL     OW30509   4.064   8.931   1.466 -0.2750 -0.4582  0.1306
41090SOL    HW130510   3.985   8.969   1.426  0.4662 -0.5777 -1.5301
41090SOL    HW230511   4.115   9.007   1.495 -0.2199 -0.3072 -0.3544
41091SOL     OW30512   1.276   3.076   2.734  0.0531  0.1531 -0.1999
41091SOL    HW130513   1.181   3.068   2.735 -0.1444  1.3453 -2.5269
41091SOL    HW230514   1.297   3.122   2.816 -1.0237 -2.4018  1.6444
41092SOL     OW30515   5.203   4.058   7.493 -0.2431 -0.1458  0.0164
41092SOL    HW130516   5.193   4.024   7.582  0.4413 -1.4462 -0.3826
41092SOL    HW230517   5.297   4.071   7.482 -0.4210  1.2414 -0.1034
41093SOL     OW30518   4.409   9.815   5.365 -0.2318  0.0332 -0.1301
41093SOL    HW130519   4.363   9.780   5.289  0.4380 -0.9212 -0.1058
41093SOL    HW230520   4.346   9.808   5.437  0.2723 -2.3351  0.1620
41094SOL     OW30521   7.251  10.173   6.172  0.2166 -0.1937  0.1066
41094SOL    HW130522   7.214  10.085   6.172 -0.7420  0.1752  1.5897
41094SOL    HW230523   7.341  10.161   6.203  0.5847 -0.7908 -1.1039
41095SOL     OW30524   5.885   0.510   8.638  0.2144 -0.4617  0.1077
41095SOL    HW130525   5.930   0.577   8.587 -0.0352 -0.3788 -0.0086
41095SOL    HW230526   5.892   0.431   8.585  0.3754 -0.4906  0.1721
41096SOL     OW30527   8.971  12.672  11.888  0.1774  0.2015  0.1553
41096SOL    HW130528   8.929  12.606  11.833 -0.6109  0.0402  0.9255
41096SOL    HW230529   8.908  12.744  11.891  0.0372  0.0475  1.1443
41097SOL     OW30530   4.706   5.500  12.707  0.1601  0.1016  0.6240
41097SOL    HW130531   4.779   5.547  12.748  0.8399 -0.4535  0.0781
41097SOL    HW230532   4.721   5.511  12.613 -0.9669  0.7295  0.5023
41098SOL     OW30533   1.118   9.904   1.034  0.3837 -0.1099  0.3996
41098SOL    HW130534   1.170   9.956   0.972 -1.1865 -0.8768 -1.6633
41098SOL    HW230535   1.030   9.904   0.998 -0.5630 -0.8400  2.5364
41099SOL     OW30536   9.825  12.189   8.473 -0.2114  0.0513  0.0408
41099SOL    HW130537   9.846  12.114   8.528 -0.0328 -0.2492 -0.4305
41099SOL    HW230538   9.730  12.197   8.479 -0.0628  0.9765  1.6124
41100SOL     OW30539   6.591   1.952  12.166  0.1781  0.3721 -0.2228
41100SOL    HW130540   6.523   1.902  12.211 -1.0913  1.3689 -0.9876
41100SOL    HW230541   6.547   1.993  12.092  1.6734  0.8470 -0.8944
41101SOL     OW30542   3.793   9.449   8.528 -0.3862 -0.0644  0.0386
41101SOL    HW130543   3.729   9.516   8.502  0.6471  0.4033 -1.4192
41101SOL    HW230544   3.823   9.411   8.446  3.5076  1.9196  0.3095
41102SOL     OW30545  10.582   0.977   9.776 -0.1800 -0.2848  0.0347
41102SOL    HW130546  10.558   0.892   9.741 -0.2846 -1.4293  2.6740
41102SOL    HW230547  10.499   1.018   9.800 -0.0935  0.3225 -0.6582
41103SOL     OW30548   4.219   4.122   5.823 -0.3125 -0.8767 -0.0112
41103SOL    HW130549   4.165   4.117   5.902 -1.8650  0.1011 -0.9510
41103SOL    HW230550   4.265   4.205   5.830 -0.6018 -0.6970 -0.2146
41104SOL     OW30551   4.587   2.086   3.123  0.5848  0.7597 -0.2479
41104SOL    HW130552   4.667   2.062   3.169  0.8801  0.2849 -0.9911
41104SOL    HW230553   4.558   2.166   3.167  0.7764  0.2470  0.8385
41105SOL     OW30554   8.872   4.631   0.451 -0.8031  0.1179 -0.1851
41105SOL    HW130555   8.809   4.701   0.471  0.0453  0.7177  0.4250
41105SOL    HW230556   8.825   4.550   0.475 -1.7540  0.4640 -0.8067
41106SOL     OW30557   0.930   9.915   2.082 -0.6525  0.4412  0.7698
41106SOL    HW130558   0.986   9.838   2.092 -0.0202  0.9874  1.5387
41106SOL    HW230559   0.895   9.908   1.993  1.0675  0.3723  0.0706
41107SOL     OW30560   3.240   3.442   1.005  0.3836  0.1524 -0.0530
41107SOL    HW130561   3.165   3.500   1.020  0.0023 -0.4264  0.3103
41107SOL    HW230562   3.211   3.357   1.036  1.5204  0.1165  0.9654
41108SOL     OW30563   0.304  10.780   9.622  0.1911 -0.3558  0.5004
41108SOL    HW130564   0.239  10.761   9.554  0.6874 -0.9485  0.1750
41108SOL    HW230565   0.352  10.698   9.632  2.1610  0.5994 -0.6572
41109SOL     OW30566   6.975   1.629   1.288  0.7833  0.0691  0.4419
41109SOL    HW130567   7.041   1.564   1.261  1.3461  0.7370  0.1678
41109SOL    HW230568   6.916   1.635   1.213  1.4857  0.8172 -0.0787
41110SOL     OW30569   4.454   7.386   7.641  0.6497  0.1126  0.2304
41110SOL    HW130570   4.428   7.471   7.678  0.1916 -0.5753  1.5316
41110SOL    HW230571   4.444   7.398   7.546  1.2318  1.7150  0.3279
41111SOL     OW30572   2.497   6.886   7.295  0.4800  0.2364 -0.2521
41111SOL    HW130573   2.537   6.892   7.382 -0.2382 -1.2959  0.2103
41111SOL    HW230574   2.569   6.860   7.238  0.7724  0.3914  0.0434
41112SOL     OW30575   5.582  10.659   9.657 -0.1161  0.4618  0.1443
41112SOL    HW130576   5.625  10.724   9.714  0.6727 -0.9277  1.2124
41112SOL    HW230577   5.584  10.578   9.708 -1.6405 -0.2750 -0.8972
41113SOL     OW30578   2.530   2.091  12.412 -0.3760 -0.4139 -0.1110
41113SOL    HW130579   2.563   2.001  12.405 -0.6191 -0.5450  0.4143
41113SOL    HW230580   2.573   2.137  12.340 -0.8877 -1.1405 -0.9068
41114SOL     OW30581  11.518   0.749  11.738 -0.0860  0.4833  0.4264
41114SOL    HW130582  11.548   0.738  11.828  1.2836 -0.0007 -0.0550
41114SOL    HW230583  11.424   0.733  11.741  0.2140 -1.2847  1.4835
41115SOL     OW30584   3.235   8.079  11.074  0.2697 -0.7949 -0.0056
41115SOL    HW130585   3.264   8.028  10.999  0.9792  1.1499 -1.1109
41115SOL    HW230586   3.316   8.109  11.115 -0.0925  1.3348 -0.7463
41116SOL     OW30587   7.088  10.551   8.435  0.0328  0.0388  0.4899
41116SOL    HW130588   7.093  10.575   8.343  0.5138  0.3254  0.5910
41116SOL    HW230589   7.099  10.456   8.435 -2.7848 -0.3789  0.0082
41117SOL     OW30590  10.305   5.083  11.887 -0.1875  0.0538 -0.6867
41117SOL    HW130591  10.311   5.027  11.810 -2.0559  0.7185 -1.3662
41117SOL    HW230592  10.382   5.140  11.881  0.2742 -0.6187 -1.4381
41118SOL     OW30593  10.790   9.396  10.003 -0.2660  0.2535  0.4665
41118SOL    HW130594  10.852   9.469  10.013 -0.0198  0.0811  0.2103
41118SOL    HW230595  10.710   9.438   9.970  0.0162  0.3510 -0.1027
41119SOL     OW30596   7.524   0.975  11.719  0.0939 -0.2445 -0.5018
41119SOL    HW130597   7.573   1.001  11.642 -1.1560  2.7993 -0.3907
41119SOL    HW230598   7.456   1.041  11.728  0.2098 -0.4267  3.2425
41120SOL     OW30599   6.511   2.698   7.816 -0.6806 -0.3788 -0.0814
41120SOL    HW130600   6.571   2.724   7.885 -0.8569  3.8765 -1.1894
41120SOL    HW230601   6.424   2.703   7.857 -0.6921  0.8532 -0.2002
41121SOL     OW30602  10.150   1.130   3.000 -0.3632 -0.0209  0.5756
41121SOL    HW130603  10.182   1.092   3.082 -0.7459 -0.5068  0.5050
41121SOL    HW230604  10.199   1.085   2.932 -2.1409 -1.7994  0.3863
41122SOL     OW30605   0.109   9.353   2.983  0.1449  0.3299 -0.3357
41122SOL    HW130606   0.039   9.399   2.935 -0.6746 -0.6975 -0.1719
41122SOL    HW230607   0.114   9.267   2.941  0.2946 -0.1292  0.5912
41123SOL     OW30608   1.512   3.944   2.444  0.0711 -0.1674 -0.2900
41123SOL    HW130609   1.523   4.011   2.376  0.8293 -0.8441 -0.8483
41123SOL    HW230610   1.550   3.865   2.406 -0.6981 -0.8867  0.4184
41124SOL     OW30611   5.319  11.305   5.758 -0.2290 -0.2218  0.7096
41124SOL    HW130612   5.281  11.279   5.842  1.2223  1.0576  1.8585
41124SOL    HW230613   5.348  11.224   5.718  1.4309 -0.7144  2.7302
41125SOL     OW30614   7.210  10.784   7.883 -0.0494  0.0580 -0.3693
41125SOL    HW130615   7.161  10.816   7.807 -1.2861 -2.8714 -0.9443
41125SOL    HW230616   7.144  10.777   7.953  0.0083 -1.5989 -0.4293
41126SOL     OW30617   5.757   8.724   9.436 -0.2077  0.3861 -0.4279
41126SOL    HW130618   5.778   8.669   9.360  0.4072  0.6116 -0.4297
41126SOL    HW230619   5.796   8.809   9.415 -0.6067  0.6411 -0.1477
41127SOL     OW30620   8.272   2.885   4.572 -0.1424  0.1087  0.1752
41127SOL    HW130621   8.193   2.925   4.607 -0.5367 -1.4054  1.1255
41127SOL    HW230622   8.299   2.822   4.640  0.3360 -1.3414 -1.2839
41128SOL     OW30623   0.450   6.726   8.683  0.2405  0.2386  0.1627
41128SOL    HW130624   0.381   6.779   8.643  0.2845 -0.0596 -0.3100
41128SOL    HW230625   0.459   6.650   8.625  1.3074  0.5196 -0.0530
41129SOL     OW30626   9.514   4.793  11.944  0.2544  0.2020 -0.7664
41129SOL    HW130627   9.566   4.740  12.004 -1.3515 -0.3632  0.1857
41129SOL    HW230628   9.578   4.845  11.896  1.7185 -0.8970 -0.0759
41130SOL     OW30629  10.575   5.753   0.059 -0.3216  0.2171  0.1374
41130SOL    HW130630  10.577   5.833   0.112  0.4340  1.8973 -2.2366
41130SOL    HW230631  10.482   5.736   0.046 -0.5128  0.0001  1.6115
41131SOL     OW30632   1.769  10.632   8.695  0.0997  0.3126  0.1454
41131SOL    HW130633   1.703  10.682   8.646  0.0717  0.2091  0.0780
41131SOL    HW230634   1.722  10.602   8.773  0.0323  0.1329  0.0366
41132SOL     OW30635   1.323  10.772   0.211 -0.2845  0.0612  0.1365
41132SOL    HW130636   1.418  10.761   0.217 -0.3311  0.3064  1.9553
41132SOL    HW230637   1.288  10.694   0.254 -0.8934  0.3090  0.0927
41133SOL     OW30638   8.639   9.521   6.111  0.7068 -0.2164  0.1619
41133SOL    HW130639   8.639   9.595   6.051  0.3781 -0.4539 -0.1393
41133SOL    HW230640   8.678   9.555   6.192  1.8108 -0.0804 -0.4088
41134SOL     OW30641   6.185   1.597   7.181 -0.2394 -0.5991 -0.2214
41134SOL    HW130642   6.123   1.559   7.243  0.0107  1.4893  1.4053
41134SOL    HW230643   6.271   1.569   7.213 -0.2001 -1.8699 -1.3419
41135SOL     OW30644   2.603   2.712   1.324  0.4085 -0.5601  0.5226
41135SOL    HW130645   2.559   2.630   1.300  0.4913 -0.4587 -0.0048
41135SOL    HW230646   2.596   2.717   1.419 -1.7322  0.0112  0.3918
41136SOL     OW30647   3.569   8.388   3.284  0.4063  0.7168  0.3423
41136SOL    HW130648   3.536   8.404   3.372  0.7661 -0.1770  0.6455
41136SOL    HW230649   3.546   8.297   3.265 -2.2355  1.6438 -1.6181
41137SOL     OW30650   1.472  10.945   0.525  0.3503  0.2262  0.6453
41137SOL    HW130651   1.453  10.853   0.540  0.3820 -0.1842 -1.4253
41137SOL    HW230652   1.387  10.984   0.503  0.6381  0.1463 -0.7379
41138SOL     OW30653   0.857   5.057   7.922  0.1109 -0.3023  0.2115
41138SOL    HW130654   0.800   4.991   7.882  1.7280 -0.1132 -2.7159
41138SOL    HW230655   0.944   5.018   7.920  1.0443  1.6914 -1.2844
41139SOL     OW30656   1.342   0.611   2.745  0.0420  0.7520 -0.0697
41139SOL    HW130657   1.264   0.584   2.697 -0.5493 -0.1827  1.3728
41139SOL    HW230658   1.398   0.651   2.678 -1.0880  0.2318 -1.3764
41140SOL     OW30659   3.263   4.987   4.952 -0.3807 -0.6200  0.3966
41140SOL    HW130660   3.309   4.951   5.027 -1.1910 -1.2055  0.6321
41140SOL    HW230661   3.174   5.002   4.983 -0.5506 -0.2280 -0.2498
41141SOL     OW30662   7.554   6.543   9.324  0.1867  0.3821 -0.1180
41141SOL    HW130663   7.638   6.513   9.289  0.5268  1.9087 -0.6870
41141SOL    HW230664   7.510   6.582   9.248 -0.9660 -0.2287  0.2179
41142SOL     OW30665  12.444   3.924  12.178 -0.4466 -0.1552  0.5013
41142SOL    HW130666  12.418   3.935  12.087  0.8373 -0.3323  0.0863
41142SOL    HW230667  12.511   3.855  12.175  0.3616  0.5595  1.4310
41143SOL     OW30668   1.735   1.895   5.401  0.3033  0.2033 -0.1379
41143SOL    HW130669   1.645   1.923   5.411  0.2601  0.2617 -0.6354
41143SOL    HW230670   1.738   1.806   5.436  0.3376  0.6560  1.0269
41144SOL     OW30671  12.025   4.354   8.979  0.3307 -0.2107  0.1854
41144SOL    HW130672  11.945   4.407   8.972  0.1003 -0.6753 -1.0414
41144SOL    HW230673  12.029   4.329   9.071 -1.6439 -1.1854  0.0858
41145SOL     OW30674   1.524   8.956   7.838  0.2330 -0.2502 -0.0092
41145SOL    HW130675   1.462   9.029   7.847 -1.0840 -1.2746 -0.4111
41145SOL    HW230676   1.525   8.914   7.924  0.8117  0.0847  0.1548
41146SOL     OW30677  10.163   7.223   7.386  0.5025 -0.2455 -0.1129
41146SOL    HW130678  10.220   7.240   7.311  0.3339  1.8496  0.1820
41146SOL    HW230679  10.087   7.178   7.347  1.1167 -0.6129 -0.9302
41147SOL     OW30680   4.645   5.914   1.502  0.3905 -0.2204 -0.7587
41147SOL    HW130681   4.662   5.993   1.451  0.2907  0.4211  0.1762
41147SOL    HW230682   4.579   5.940   1.566  0.6647 -0.9386 -0.1653
41148SOL     OW30683  11.740   4.365   1.857  0.1066 -0.2297 -0.1803
41148SOL    HW130684  11.813   4.336   1.912 -0.3557 -0.4855  0.3049
41148SOL    HW230685  11.668   4.380   1.919 -0.1436  0.3854 -0.6104
41149SOL     OW30686   5.584   8.234   0.338  0.3915 -0.1202  0.4674
41149SOL    HW130687   5.647   8.162   0.331  0.7498  0.2855 -0.8731
41149SOL    HW230688   5.637   8.313   0.324 -0.0899  0.3766  1.3716
41150SOL     OW30689   7.784   2.637  11.027  0.3226  0.1786 -0.4459
41150SOL    HW130690   7.843   2.704  11.063 -0.3159  0.6480 -0.2597
41150SOL    HW230691   7.781   2.569  11.095 -1.3753  1.3506  0.7303
41151SOL     OW30692   8.814   6.009  12.608  0.1097  0.0294 -0.1184
41151SOL    HW130693   8.909   5.996  12.602 -0.1940 -1.7756 -2.3645
41151SOL    HW230694   8.780   5.925  12.639 -0.8286  0.3587 -0.2174
41152SOL     OW30695   6.070   4.210   2.818 -0.3206 -0.2007  0.6839
41152SOL    HW130696   6.080   4.287   2.762 -1.6318 -1.0728 -0.8612
41152SOL    HW230697   6.143   4.153   2.792 -0.2920 -0.1469  0.6448
41153SOL     OW30698   4.393   7.618  10.089 -0.4308  0.3424  0.7188
41153SOL    HW130699   4.423   7.544  10.142 -0.9257  0.6023  1.3731
41153SOL    HW230700   4.433   7.694  10.130  1.8327  0.3045 -1.1976
41154SOL     OW30701   9.714   0.717  12.392  0.1096 -0.3266  0.4263
41154SOL    HW130702   9.672   0.767  12.321 -1.0307 -0.6626  0.8488
41154SOL    HW230703   9.752   0.784  12.448 -1.5118  0.1234  1.0531
41155SOL     OW30704   2.729  12.127  10.581  0.3763 -0.3264 -0.2644
41155SOL    HW130705   2.796  12.073  10.623  0.3531 -0.1614 -0.0141
41155SOL    HW230706   2.673  12.156  10.653 -0.4446 -1.1161 -0.5587
41156SOL     OW30707   9.873   7.701   8.233  0.1162 -0.0604  0.2444
41156SOL    HW130708   9.920   7.679   8.313  0.3628 -0.2030  0.0618
41156SOL    HW230709   9.856   7.795   8.240 -0.5549 -0.2152  0.8257
41157SOL     OW30710   3.220   8.142  11.502 -0.1238 -0.2613 -0.3063
41157SOL    HW130711   3.162   8.068  11.484 -0.2213  0.4853 -3.6144
41157SOL    HW230712   3.193   8.172  11.589 -4.7383 -0.0198 -1.5444
41158SOL     OW30713   4.878   0.636  10.596  0.3828  0.4250 -0.5463
41158SOL    HW130714   4.797   0.646  10.646  0.2027 -0.8001 -0.5643
41158SOL    HW230715   4.921   0.721  10.602  1.8058 -0.3356  4.1774
41159SOL     OW30716   6.580   6.439   8.480  0.0845 -0.7416 -0.2146
41159SOL    HW130717   6.588   6.520   8.530 -0.5560  0.1954 -1.5698
41159SOL    HW230718   6.487   6.419   8.482 -0.1703  0.0084 -2.0075
41160SOL     OW30719  12.079   6.876   3.066 -0.1832 -0.1245 -0.0375
41160SOL    HW130720  12.050   6.785   3.079  0.1312 -0.5211 -1.8163
41160SOL    HW230721  12.008   6.918   3.019 -0.2366  0.5062  0.5923
41161SOL     OW30722   5.612   8.769   8.260 -0.2693  0.1557 -0.1781
41161SOL    HW130723   5.537   8.726   8.301 -0.8586 -0.3589 -1.6946
41161SOL    HW230724   5.650   8.702   8.203  1.1410  0.5244  0.2952
41162SOL     OW30725   2.909   8.295  11.565 -0.3527  0.3408  0.8094
41162SOL    HW130726   2.828   8.345  11.559 -0.0433  0.7789  0.0893
41162SOL    HW230727   2.978   8.361  11.560  0.0499 -0.0160  1.5729
41163SOL     OW30728   5.714  10.706   3.943  0.3788 -0.5870 -0.0823
41163SOL    HW130729   5.753  10.644   3.882 -0.3556 -1.0080 -0.1316
41163SOL    HW230730   5.784  10.769   3.961  1.1422 -1.4446  0.0045
41164SOL     OW30731   6.232   4.871   1.433  0.0772  0.5793 -0.1643
41164SOL    HW130732   6.266   4.788   1.400 -1.4274 -0.0334 -0.2262
41164SOL    HW230733   6.297   4.899   1.499  0.5864 -0.6503 -0.1172
41165SOL     OW30734   3.008   1.268   8.734 -0.8908 -0.4707  0.4181
41165SOL    HW130735   2.987   1.175   8.731 -1.3973 -0.3347 -1.0327
41165SOL    HW230736   2.998   1.298   8.643  0.4454  0.7399  0.6336
41166SOL     OW30737   7.572   7.245   0.734  0.2163  0.2704  0.2808
41166SOL    HW130738   7.624   7.195   0.671 -0.0711  0.5103 -0.1432
41166SOL    HW230739   7.482   7.221   0.715  0.1208  0.4139  0.5474
41167SOL     OW30740   7.585  11.632   3.440 -0.3269  0.1024  0.3248
41167SOL    HW130741   7.523  11.705   3.436 -0.1368  0.2738  0.5805
41167SOL    HW230742   7.574  11.588   3.355  0.7278  1.3697 -0.5076
41168SOL     OW30743   1.588   3.006   4.970 -0.0427  0.2459 -0.0429
41168SOL    HW130744   1.578   2.959   5.053 -2.3606 -0.3542 -0.6120
41168SOL    HW230745   1.614   2.939   4.907  2.0212  0.7543  0.1947
41169SOL     OW30746  10.880   2.821  10.373  0.4840  0.4218  0.8143
41169SOL    HW130747  10.965   2.821  10.329 -0.3594 -0.7301 -0.9533
41169SOL    HW230748  10.874   2.735  10.413  0.1795  0.5289  1.0000
41170SOL     OW30749   4.186   0.155   8.685  0.0858 -0.1960  0.7241
41170SOL    HW130750   4.106   0.142   8.633  0.3715  0.4486  0.1009
41170SOL    HW230751   4.155   0.172   8.773 -0.4894  0.4242  0.4100
41171SOL     OW30752  12.072   7.736  12.103  0.5464 -0.5135  0.0101
41171SOL    HW130753  12.122   7.813  12.074 -0.1585 -1.0372 -2.8164
41171SOL    HW230754  12.016   7.714  12.029  0.6438 -3.7259  0.7681
41172SOL     OW30755   8.114  11.048  10.401  0.0192 -0.1650  0.3564
41172SOL    HW130756   8.019  11.036  10.410 -0.0339  0.4364  0.6941
41172SOL    HW230757   8.144  10.972  10.352 -0.3744 -1.2730  1.7911
41173SOL     OW30758   1.834   4.422   2.928  0.5322 -0.2307 -0.9961
41173SOL    HW130759   1.772   4.350   2.914 -0.4498  0.6600 -1.3013
41173SOL    HW230760   1.874   4.403   3.013 -1.5770  0.1840  0.1552
41174SOL     OW30761   9.610   2.146  11.187 -0.7649  0.3643 -0.3739
41174SOL    HW130762   9.633   2.167  11.096 -0.0027  1.6129  0.0870
41174SOL    HW230763   9.560   2.065  11.180 -1.8569  1.1103 -2.0386
41175SOL     OW30764   5.900  11.681   9.447  0.4900  0.1433 -0.6025
41175SOL    HW130765   5.970  11.734   9.410 -0.6214  1.7015 -0.5586
41175SOL    HW230766   5.883  11.719   9.533  0.0316 -0.6290 -0.3371
41176SOL     OW30767   2.523   7.554  12.444  0.1487 -0.1621 -0.0222
41176SOL    HW130768   2.436   7.573  12.408 -0.2256 -4.6480 -2.1634
41176SOL    HW230769   2.506   7.500  12.521  1.0350 -0.7280 -0.2095
41177SOL     OW30770  10.931   7.262  10.787  0.1824  0.2327  0.3294
41177SOL    HW130771  10.892   7.323  10.849  1.9542  1.6549  0.1191
41177SOL    HW230772  10.948   7.183  10.838  0.6811  1.0200  1.4109
41178SOL     OW30773   0.097   7.109   9.609 -0.2261 -0.1463 -0.0821
41178SOL    HW130774   0.044   7.138   9.535  0.6330  0.5134 -0.4609
41178SOL    HW230775   0.173   7.067   9.569  0.4845  0.6471  0.4032
41179SOL     OW30776  12.144   9.370   2.257  0.0774  0.9051 -0.3171
41179SOL    HW130777  12.100   9.344   2.176  0.2336  1.6107 -0.6344
41179SOL    HW230778  12.225   9.319   2.259  0.0501  0.8520 -0.5796
41180SOL     OW30779   6.501   4.914   5.779 -0.2213 -0.5602 -0.4952
41180SOL    HW130780   6.434   4.846   5.774 -0.6166 -0.2876  0.6844
41180SOL    HW230781   6.454   4.995   5.760 -0.7590 -0.0990  2.2551
41181SOL     OW30782   7.502   3.544   2.309 -0.2931  0.2309 -0.0532
41181SOL    HW130783   7.455   3.619   2.273 -0.7831  0.7772  1.6391
41181SOL    HW230784   7.594   3.572   2.311 -0.1222 -0.1390 -1.6280
41182SOL     OW30785   5.657   7.457  12.323 -0.1495  0.1221  0.1234
41182SOL    HW130786   5.626   7.545  12.303 -1.9159 -0.8157 -1.6566
41182SOL    HW230787   5.699   7.428  12.242 -1.4060 -1.3611 -0.0560
41183SOL     OW30788  10.792   3.881   6.244 -0.0788 -0.2294  0.3874
41183SOL    HW130789  10.746   3.931   6.311 -1.9033 -0.7613 -0.3940
41183SOL    HW230790  10.875   3.856   6.285  0.4383  2.4521  1.1722
41184SOL     OW30791  10.256   9.240   7.307 -0.2467 -0.2397 -0.0282
41184SOL    HW130792  10.232   9.332   7.303 -1.0582 -0.4308  0.2527
41184SOL    HW230793  10.173   9.193   7.301  0.1188 -0.9451  0.2770
41185SOL     OW30794   6.584   3.589  10.606 -0.1549 -0.0875  0.2003
41185SOL    HW130795   6.671   3.626  10.590 -0.3169  0.1959 -0.0362
41185SOL    HW230796   6.594   3.496  10.591  0.2318 -0.1284  0.6778
41186SOL     OW30797  12.659  11.735  11.166 -0.6496 -0.6374 -0.0177
41186SOL    HW130798  12.569  11.706  11.184 -0.9979  0.3773 -0.0584
41186SOL    HW230799  12.702  11.734  11.252 -1.4443  1.2958  0.4604
41187SOL     OW30800   6.422   4.806   9.018 -0.0267  0.4122  0.7838
41187SOL    HW130801   6.347   4.806   9.078  0.4402  1.8630  1.4040
41187SOL    HW230802   6.493   4.766   9.069  0.1214  0.7798  0.8649
41188SOL     OW30803  12.050   7.815   9.220  0.1378  0.2083  0.3298
41188SOL    HW130804  11.979   7.821   9.285 -1.7056  1.4671 -1.6541
41188SOL    HW230805  12.048   7.724   9.192  0.4565 -0.1704  1.4861
41189SOL     OW30806   5.252   1.296   1.868  0.2440  0.0418  0.0009
41189SOL    HW130807   5.242   1.370   1.808  0.2243  2.8975  3.2362
41189SOL    HW230808   5.169   1.291   1.915  0.4600 -1.7070  0.2604
41190SOL     OW30809   2.014   8.629   6.087 -0.3684 -0.1290  0.6761
41190SOL    HW130810   1.944   8.673   6.038 -0.8126 -0.3967  1.0643
41190SOL    HW230811   2.080   8.608   6.020 -0.4487  0.5250  0.3799
41191SOL     OW30812  10.259   9.821   9.312  0.5703  0.0349 -0.0151
41191SOL    HW130813  10.250   9.745   9.255 -1.9987 -0.6110  1.0913
41191SOL    HW230814  10.346   9.812   9.351  0.4182 -2.2446 -0.0655
41192SOL     OW30815  10.662   3.383   5.003  0.1137  0.0391  0.1005
41192SOL    HW130816  10.642   3.424   4.919  0.0372 -0.6048 -0.2071
41192SOL    HW230817  10.595   3.316   5.013 -0.8771  1.1752  1.4631
41193SOL     OW30818  10.927   2.627   9.086  0.4742 -0.4401 -0.0748
41193SOL    HW130819  10.915   2.664   8.998 -1.0481  0.1290  0.3377
41193SOL    HW230820  10.876   2.546   9.085  1.5676 -1.1443 -0.1195
41194SOL     OW30821   5.622  10.414   0.484  0.2904 -0.8872  0.5412
41194SOL    HW130822   5.533  10.397   0.515  0.2112  0.2628  1.0069
41194SOL    HW230823   5.622  10.508   0.462  1.7953 -0.4898  1.9913
41195SOL     OW30824   3.163   0.324  10.894  0.1257  0.5826 -0.2620
41195SOL    HW130825   3.223   0.307  10.966 -0.7904  0.0789  0.4044
41195SOL    HW230826   3.086   0.271  10.914 -0.6290  1.3779 -0.9748
41196SOL     OW30827   5.645   0.456   1.688 -0.4197 -0.1514  0.6544
41196SOL    HW130828   5.563   0.468   1.737 -0.6794  1.1000 -0.0436
41196SOL    HW230829   5.704   0.415   1.751 -1.2525 -0.1063  1.4995
41197SOL     OW30830   0.386  11.170   0.005 -0.2419 -0.3736  0.3990
41197SOL    HW130831   0.448  11.198  -0.063 -1.5591  3.4949  0.5521
41197SOL    HW230832   0.424  11.202   0.086 -1.5875  0.5949  0.6790
41198SOL     OW30833   5.335   9.011   3.083  0.1002  0.1177 -0.1495
41198SOL    HW130834   5.413   9.001   3.138 -0.0358 -0.3855 -0.0441
41198SOL    HW230835   5.358   9.081   3.022  0.8005 -0.3044 -0.3869
41199SOL     OW30836   5.606   8.524   0.049 -0.0672  0.5762 -0.4644
41199SOL    HW130837   5.511   8.519   0.058 -0.0413 -0.7486 -0.7908
41199SOL    HW230838   5.626   8.617   0.063 -1.4022  0.8796 -0.4104
41200SOL     OW30839   3.854   3.324   2.950 -0.4391 -0.0256 -0.0488
41200SOL    HW130840   3.854   3.414   2.917 -0.7112  0.3515  0.9395
41200SOL    HW230841   3.944   3.294   2.936  0.8636  1.8072  3.1780
41201SOL     OW30842   4.295   6.507  11.159  0.4430  0.2598  0.7531
41201SOL    HW130843   4.233   6.495  11.230  0.6848 -0.3819  0.8549
41201SOL    HW230844   4.365   6.560  11.197  1.4861 -1.6064  1.5462
41202SOL     OW30845   8.749   8.525   2.113  0.0995 -0.3886  0.2061
41202SOL    HW130846   8.734   8.524   2.208  2.7518  1.1243  0.7425
41202SOL    HW230847   8.816   8.457   2.099  0.4062  0.0305 -0.4078
41203SOL     OW30848   9.242  10.150   0.669  1.1692 -0.3900 -0.3802
41203SOL    HW130849   9.268  10.163   0.578  1.3699  1.1344 -0.1277
41203SOL    HW230850   9.321  10.170   0.720  0.9438 -0.8275  0.1581
41204SOL     OW30851   1.314  12.074   1.457  0.2152 -0.2660 -0.2567
41204SOL    HW130852   1.276  12.077   1.369 -0.2799 -0.5571 -0.0603
41204SOL    HW230853   1.289  12.158   1.496 -1.1350 -0.8640  0.2260
41205SOL     OW30854   6.731   7.402   8.831  0.2216  0.5627  0.5396
41205SOL    HW130855   6.679   7.458   8.774 -0.0632 -0.4202 -0.1777
41205SOL    HW230856   6.821   7.414   8.801  0.1559  0.5968  0.3548
41206SOL     OW30857   1.152   7.998   5.609 -0.4361  0.6669 -0.0309
41206SOL    HW130858   1.071   8.029   5.647 -1.4170 -0.8127 -0.8041
41206SOL    HW230859   1.155   8.037   5.522  1.9144  4.2303  1.3943
41207SOL     OW30860   2.130   0.247   0.574 -0.1908 -0.1080  0.0337
41207SOL    HW130861   2.062   0.314   0.562 -1.3273 -0.9185  1.5490
41207SOL    HW230862   2.153   0.221   0.485  1.1523  3.0418 -0.6979
41208SOL     OW30863  11.202   7.943   0.169  1.0743  0.3872 -0.2254
41208SOL    HW130864  11.147   8.010   0.128  0.5882 -0.0732 -0.3353
41208SOL    HW230865  11.274   7.930   0.107 -0.2215 -1.0866 -1.4959
41209SOL     OW30866   1.893   4.447   1.051 -0.0915 -0.2648  0.5954
41209SOL    HW130867   1.826   4.503   1.089 -0.7808 -1.1338  0.6979
41209SOL    HW230868   1.845   4.371   1.019  0.8094 -0.7541  0.3680
41210SOL     OW30869   0.297   8.979   8.918  0.2445  0.1296  0.0822
41210SOL    HW130870   0.369   9.009   8.974  0.4637 -1.2129  0.5540
41210SOL    HW230871   0.222   8.974   8.976 -0.3023  1.6927 -0.4475
41211SOL     OW30872   2.771  10.998   5.413 -0.0384 -0.0880 -0.4309
41211SOL    HW130873   2.804  10.930   5.354 -3.0998 -1.5517 -0.6366
41211SOL    HW230874   2.839  11.006   5.480  1.8015 -1.0975 -2.0536
41212SOL     OW30875   3.086  10.148   2.082 -0.4052  0.0651  0.4257
41212SOL    HW130876   3.121  10.124   2.168 -2.0415  0.9732  1.3933
41212SOL    HW230877   3.116  10.078   2.024  0.7168 -0.5874  1.7328
41213SOL     OW30878   5.619   4.503   2.372 -0.5246 -0.2412 -0.3587
41213SOL    HW130879   5.528   4.526   2.349 -0.5974 -1.1142 -1.0095
41213SOL    HW230880   5.660   4.484   2.287 -0.3349 -1.9520  0.0780
41214SOL     OW30881   0.295   8.090   1.141 -0.4882 -0.1769 -0.5493
41214SOL    HW130882   0.321   8.038   1.065 -1.5920 -0.2176 -0.9098
41214SOL    HW230883   0.211   8.054   1.168 -0.0704 -0.2295  0.7719
41215SOL     OW30884   2.192   9.597   7.175  0.3596 -0.2931 -0.2573
41215SOL    HW130885   2.165   9.680   7.134  0.6901 -0.1622 -0.2058
41215SOL    HW230886   2.162   9.604   7.265  1.5050  0.3072  0.0966
41216SOL     OW30887   4.305   6.365  12.005 -0.1539  0.7473  0.9824
41216SOL    HW130888   4.394   6.372  12.038  0.5734 -0.6013 -0.6061
41216SOL    HW230889   4.289   6.448  11.961  1.1744  0.1557 -0.6964
41217SOL     OW30890   3.179   7.857  11.413  0.5066 -0.0660 -0.2238
41217SOL    HW130891   3.187   7.773  11.458 -0.8176  0.9990  2.1351
41217SOL    HW230892   3.092   7.855  11.374  0.6856  0.0143 -0.6350
41218SOL     OW30893  12.058   5.814   0.263 -0.2102 -0.9571  0.3215
41218SOL    HW130894  12.093   5.848   0.181 -0.7873  1.0922  0.8643
41218SOL    HW230895  12.134   5.779   0.309  0.3076 -1.0037 -0.5528
41219SOL     OW30896   6.546  11.279  11.068  0.3826  0.6118  0.4958
41219SOL    HW130897   6.513  11.212  11.008  0.0863  1.1945 -0.0000
41219SOL    HW230898   6.520  11.249  11.155  0.4704 -0.0418  0.2981
41220SOL     OW30899   4.996   7.791   6.774 -0.0422 -0.8263 -0.1301
41220SOL    HW130900   5.045   7.766   6.852 -1.3042  0.4052  1.1201
41220SOL    HW230901   5.052   7.856   6.730  0.2892 -0.8537  0.2490
41221SOL     OW30902  10.634  11.864   4.055 -0.2120 -0.2063  0.2557
41221SOL    HW130903  10.618  11.812   4.134  0.1409 -1.7110 -0.6058
41221SOL    HW230904  10.548  11.872   4.014 -0.2643 -0.1343  0.3795
41222SOL     OW30905   9.675   2.802   0.627 -0.4319  0.3833  0.3061
41222SOL    HW130906   9.702   2.887   0.590  1.0040 -0.4469 -0.6577
41222SOL    HW230907   9.757   2.762   0.656 -0.6600 -1.8231 -1.7835
41223SOL     OW30908   6.921   9.020   4.015 -0.3151  0.2538 -0.1729
41223SOL    HW130909   6.881   9.099   3.979  0.3976  0.4240 -0.6229
41223SOL    HW230910   6.854   8.982   4.071 -0.8252  0.9399 -0.3043
41224SOL     OW30911   5.417  11.871   1.208 -0.2523  0.0951 -0.2262
41224SOL    HW130912   5.497  11.870   1.259 -0.6438 -1.1633  0.4058
41224SOL    HW230913   5.446  11.862   1.117  0.3176 -0.4681  0.0088
41225SOL     OW30914   3.830   0.678   9.172 -0.2818  0.1895 -0.1675
41225SOL    HW130915   3.812   0.764   9.210 -1.8942 -0.3823  0.4929
41225SOL    HW230916   3.781   0.617   9.228 -2.5207 -0.7503 -2.9162
41226SOL     OW30917  11.295  11.200   2.013 -0.3817 -0.5019 -0.3312
41226SOL    HW130918  11.248  11.158   1.940  0.3689 -0.5460 -0.8047
41226SOL    HW230919  11.230  11.255   2.055 -0.6512  0.1396 -1.5276
41227SOL     OW30920   1.970   2.283   4.779 -0.4753 -0.0158 -0.2630
41227SOL    HW130921   1.886   2.237   4.771 -0.8637  0.8605 -1.6266
41227SOL    HW230922   2.018   2.258   4.700  0.1985  0.1905  0.0774
41228SOL     OW30923   2.251  10.969   0.875  0.3946 -0.5049  0.3442
41228SOL    HW130924   2.313  10.938   0.810 -0.2602  0.0429 -0.5814
41228SOL    HW230925   2.289  10.945   0.959  1.6190 -0.5862 -0.2152
41229SOL     OW30926   9.251   3.417  11.832  0.3735  0.0473  0.1790
41229SOL    HW130927   9.306   3.445  11.758  0.3214  0.6206  0.3563
41229SOL    HW230928   9.181   3.366  11.791  0.0518  0.7915 -0.2290
41230SOL     OW30929   3.757   9.642   2.993  0.8657 -0.4941 -0.0049
41230SOL    HW130930   3.810   9.614   3.067 -0.4618  1.1984  1.6939
41230SOL    HW230931   3.668   9.612   3.013  0.4019  0.3588 -0.6672
41231SOL     OW30932   8.294   9.441   8.566  0.0248  0.0189 -0.1426
41231SOL    HW130933   8.206   9.458   8.601 -0.6380 -1.7244 -0.8857
41231SOL    HW230934   8.348   9.512   8.602 -1.2571  0.0238  1.9146
41232SOL     OW30935   2.131   2.225  10.709 -0.4763  0.0951  0.2668
41232SOL    HW130936   2.037   2.235  10.696 -0.5815 -0.2902  0.7134
41232SOL    HW230937   2.142   2.137  10.745  0.1980 -0.3964 -1.0815
41233SOL     OW30938   5.689   4.191   0.955  0.1047 -0.5623  0.2655
41233SOL    HW130939   5.696   4.169   0.862  0.3124 -0.1529  0.1815
41233SOL    HW230940   5.767   4.152   0.995  2.7067  3.2891 -0.5319
41234SOL     OW30941   2.292   1.532   5.827  0.5000  0.0428 -0.2625
41234SOL    HW130942   2.244   1.580   5.759  2.0186 -0.9384 -2.1103
41234SOL    HW230943   2.337   1.600   5.877 -1.6976  0.8868  0.7231
41235SOL     OW30944   2.634  10.769  10.187 -0.2078 -0.0820 -0.5036
41235SOL    HW130945   2.643  10.683  10.148  2.3358  0.5264 -1.4225
41235SOL    HW230946   2.664  10.758  10.277 -0.1797 -0.2045 -0.5284
41236SOL     OW30947   9.190   7.529   3.934 -0.0712 -0.7492 -0.0219
41236SOL    HW130948   9.252   7.456   3.937 -0.2343 -1.0808 -2.4923
41236SOL    HW230949   9.245   7.607   3.926  0.0613 -0.8792 -0.3861
41237SOL     OW30950   4.316  10.814  12.027  0.2586  0.4337 -0.2825
41237SOL    HW130951   4.310  10.719  12.022 -0.9478  0.4619  0.2849
41237SOL    HW230952   4.358  10.831  12.111 -0.3356  0.4139  0.0216
41238SOL     OW30953   6.417  10.624   0.036 -0.6307  0.3176 -0.6109
41238SOL    HW130954   6.504  10.620   0.076  0.0159  1.4563 -1.8272
41238SOL    HW230955   6.357  10.594   0.105  0.4920  1.5957  0.9745
41239SOL     OW30956   1.046   8.160   9.207  0.0603 -0.4041  0.7020
41239SOL    HW130957   1.128   8.121   9.237 -0.6805 -2.3406  0.3882
41239SOL    HW230958   1.000   8.184   9.287  0.3197 -0.7058  0.9438
41240SOL     OW30959   4.778   3.001   1.060  0.2923  0.0221  0.2142
41240SOL    HW130960   4.836   3.076   1.076  0.1899  0.0814  0.3108
41240SOL    HW230961   4.803   2.937   1.127 -2.3501  1.5257  2.8840
41241SOL     OW30962   5.294   4.913  11.048  0.4290  0.6367 -0.0353
41241SOL    HW130963   5.253   4.988  11.005 -0.2197 -0.5882 -1.6774
41241SOL    HW230964   5.225   4.874  11.100  0.2476  0.1483 -0.6303
41242SOL     OW30965   8.390   5.343   3.110  0.2455  0.0979 -0.2871
41242SOL    HW130966   8.475   5.376   3.140  0.1256  0.6725 -0.5694
41242SOL    HW230967   8.404   5.249   3.100  0.8021  0.1612 -0.1609
41243SOL     OW30968   4.863   8.172   6.261  0.5383 -0.1996  0.2047
41243SOL    HW130969   4.841   8.240   6.324  1.5172 -0.0968  0.4576
41243SOL    HW230970   4.779   8.135   6.235 -0.0877  1.7592 -0.6963
41244SOL     OW30971   9.176   2.886   1.567 -0.0118 -0.5224 -0.1920
41244SOL    HW130972   9.208   2.900   1.656  1.2683 -2.4530 -0.3094
41244SOL    HW230973   9.102   2.827   1.577 -0.3949 -0.0851 -0.3674
41245SOL     OW30974   4.470  11.583   9.486  0.1674  1.2566  0.0597
41245SOL    HW130975   4.536  11.530   9.530  0.5853  2.7701  1.3712
41245SOL    HW230976   4.412  11.520   9.444  2.6514 -0.1437 -1.5108
41246SOL     OW30977   4.558   9.092   5.873  1.5944  0.0096 -0.2870
41246SOL    HW130978   4.607   9.127   5.948  0.3765  0.0764  0.5101
41246SOL    HW230979   4.500   9.164   5.847 -1.1493 -1.3596  1.5401
41247SOL     OW30980   5.760   1.248   1.618 -0.0494 -0.1200 -0.1452
41247SOL    HW130981   5.703   1.266   1.692 -0.1231 -1.6045  0.1941
41247SOL    HW230982   5.761   1.330   1.568  0.9746  1.3238  2.0923
41248SOL     OW30983   5.730   6.713   4.110 -0.1026 -0.2300 -0.3846
41248SOL    HW130984   5.676   6.730   4.033  0.3809  1.2393 -0.4346
41248SOL    HW230985   5.811   6.676   4.075  0.2852  0.8319 -0.6415
41249SOL     OW30986   1.828   8.754   1.417  0.0990 -0.2682 -0.3105
41249SOL    HW130987   1.841   8.661   1.436 -2.1710 -0.9679 -1.7780
41249SOL    HW230988   1.835   8.760   1.321  4.2221  1.8728 -0.0891
41250SOL     OW30989   9.911  10.142   9.638 -0.2833  0.4559  0.4244
41250SOL    HW130990   9.895  10.198   9.562 -1.5606  0.5114  0.7114
41250SOL    HW230991   9.940  10.202   9.707  2.5144  0.2126 -0.4336
41251SOL     OW30992   4.245   0.766   8.785  0.8991  0.1076  0.1960
41251SOL    HW130993   4.210   0.678   8.769 -0.3773  0.8482 -1.4433
41251SOL    HW230994   4.322   0.773   8.728  0.5721  0.2807 -0.2332
41252SOL     OW30995   1.021   8.678   6.182  0.3330 -0.1501 -0.0117
41252SOL    HW130996   0.970   8.658   6.103  0.5058 -1.3186  0.1472
41252SOL    HW230997   0.957   8.713   6.243  0.0160 -0.1059 -0.3605
41253SOL     OW30998   5.379  10.081  12.183  0.2617  0.2279 -1.1376
41253SOL    HW130999   5.302  10.098  12.128 -0.2263 -1.0322 -0.8802
41253SOL    HW231000   5.443  10.147  12.156 -0.6324  0.8095 -1.9001
41254SOL     OW31001   6.965   8.653   1.733  0.4668  0.0971  0.1656
41254SOL    HW131002   6.983   8.561   1.713  0.9284 -0.1797  1.7272
41254SOL    HW231003   7.022   8.673   1.807 -0.1378  1.4488  0.2922
41255SOL     OW31004  11.856  11.662   7.617  0.4144 -0.2233  0.4734
41255SOL    HW131005  11.809  11.743   7.595  2.1847  0.4429 -1.0627
41255SOL    HW231006  11.795  11.615   7.674 -1.0661  1.7371  0.6368
41256SOL     OW31007   6.328   8.637  11.696 -0.8972 -0.1159  0.8746
41256SOL    HW131008   6.315   8.558  11.644 -2.3109 -0.5313  1.7758
41256SOL    HW231009   6.364   8.701  11.635 -0.5943 -1.1813 -0.0939
41257SOL     OW31010   3.100  11.196   3.002  0.2002  0.3786  0.1335
41257SOL    HW131011   3.075  11.284   2.974  1.9340  0.6891 -0.5769
41257SOL    HW231012   3.192  11.188   2.977  0.5077 -1.0871  1.5671
41258SOL     OW31013   0.903  10.034   5.528  0.1588  0.6258  0.8022
41258SOL    HW131014   0.868  10.121   5.547  0.3281  0.8903 -0.0973
41258SOL    HW231015   0.960  10.014   5.602  0.3986  1.4250  0.8336
41259SOL     OW31016   7.755   2.408   5.004  0.0955  0.1938  0.0748
41259SOL    HW131017   7.770   2.314   5.011 -0.5325  0.0833 -0.0085
41259SOL    HW231018   7.837   2.448   5.033  0.1706 -0.3738  0.6703
41260SOL     OW31019   4.779   1.264   8.099 -0.3659  0.4902 -0.0120
41260SOL    HW131020   4.747   1.219   8.177 -0.8852 -0.5653 -0.8191
41260SOL    HW231021   4.747   1.212   8.026  1.1942  0.7427 -0.9104
41261SOL     OW31022   3.263  10.330  10.864 -0.1872  0.4553  0.0103
41261SOL    HW131023   3.309  10.410  10.840  1.1517 -0.7693 -1.7782
41261SOL    HW231024   3.213  10.307  10.786  0.3203 -1.0152  0.0881
41262SOL     OW31025   8.953   1.797   8.710 -0.0381  0.5668  0.2493
41262SOL    HW131026   9.046   1.785   8.728 -0.5765  0.2594  3.2276
41262SOL    HW231027   8.914   1.711   8.724 -0.6311  0.1637 -2.9272
41263SOL     OW31028   4.075   4.808  12.023 -0.0029  0.1319  0.4022
41263SOL    HW131029   4.053   4.792  11.931  2.4234  1.3365 -0.4929
41263SOL    HW231030   3.991   4.831  12.064 -1.0206  0.5214 -1.7353
41264SOL     OW31031   5.831   6.824   6.221  0.0138 -0.4001 -0.2651
41264SOL    HW131032   5.881   6.743   6.207  1.8349  0.3933  1.1280
41264SOL    HW231033   5.802   6.819   6.312 -0.6879  0.0968 -0.4503
41265SOL     OW31034   9.965   0.425   1.996 -0.0020 -0.2564  0.4831
41265SOL    HW131035   9.930   0.453   1.911 -2.1324 -0.6329  1.1759
41265SOL    HW231036   9.945   0.332   2.000  0.3446 -0.3006  1.2809
41266SOL     OW31037   8.984  11.511   5.755  0.0489 -0.5221 -0.2742
41266SOL    HW131038   8.967  11.518   5.849 -0.2620  1.5829 -0.4342
41266SOL    HW231039   9.042  11.436   5.746  0.3551 -0.5617  1.6378
41267SOL     OW31040   2.292  12.092   1.912 -0.1367  0.8612  0.0422
41267SOL    HW131041   2.236  12.052   1.846  0.9070  0.3046 -0.5427
41267SOL    HW231042   2.233  12.115   1.984 -0.8410 -1.4534  0.2812
41268SOL     OW31043   6.170   9.674   5.081 -0.0407 -0.4354  0.2453
41268SOL    HW131044   6.235   9.685   5.150 -1.4872  0.5212  1.5518
41268SOL    HW231045   6.152   9.764   5.051  0.6373 -0.8376 -1.5028
41269SOL     OW31046   5.284   7.875   8.629 -0.1575 -0.5560  0.1354
41269SOL    HW131047   5.250   7.897   8.716  1.7660  2.0350  0.3500
41269SOL    HW231048   5.371   7.839   8.646  0.7153  1.0502 -0.6916
41270SOL     OW31049   5.626   9.432   2.973  0.1708 -0.3940 -0.4504
41270SOL    HW131050   5.600   9.342   2.953  0.5858 -0.7177  0.4318
41270SOL    HW231051   5.679   9.459   2.898 -0.3733 -0.6973 -0.9557
41271SOL     OW31052   4.456   5.156   4.707 -0.5502 -0.1698 -0.1383
41271SOL    HW131053   4.521   5.136   4.640  0.9266  1.0124  0.8962
41271SOL    HW231054   4.496   5.128   4.789 -1.3053  0.6660  0.5331
41272SOL     OW31055   0.625   2.290   9.233 -0.3095 -0.0722  0.2026
41272SOL    HW131056   0.573   2.350   9.180  0.3795  1.3822  1.0960
41272SOL    HW231057   0.683   2.347   9.284  0.6207 -1.5232  0.8494
41273SOL     OW31058   2.182  11.393   3.068  0.0622 -0.2998  0.4026
41273SOL    HW131059   2.239  11.344   3.127 -1.6938 -0.4811  2.0442
41273SOL    HW231060   2.225  11.478   3.059  0.7221 -0.5084  1.4261
41274SOL     OW31061   2.167   5.454   4.733  0.0865 -0.4792 -0.3445
41274SOL    HW131062   2.211   5.369   4.721  2.1446  0.1597  1.8745
41274SOL    HW231063   2.233   5.519   4.709 -0.7978  0.5228 -0.1478
41275SOL     OW31064   8.567   1.449   8.633 -0.1859  0.5795 -0.0631
41275SOL    HW131065   8.634   1.382   8.645 -0.1155  0.8571  1.3343
41275SOL    HW231066   8.604   1.510   8.570  1.3636  1.2887  1.4605
41276SOL     OW31067  12.054  11.370   2.869  0.1257  0.1776 -0.6077
41276SOL    HW131068  12.035  11.348   2.777  0.7111  3.0623 -1.5281
41276SOL    HW231069  12.075  11.464   2.867 -1.3279  0.7017  2.7167
41277SOL     OW31070   4.427  10.148   3.996 -0.2244  0.3834 -0.4288
41277SOL    HW131071   4.486  10.173   4.067 -0.0189  2.2418 -1.1987
41277SOL    HW231072   4.485  10.117   3.926 -0.1867  1.4442 -0.8862
41278SOL     OW31073   2.059   8.633   1.801 -0.2476 -0.1342  0.2718
41278SOL    HW131074   2.056   8.724   1.829 -1.5423 -0.2110  0.4767
41278SOL    HW231075   2.015   8.633   1.715  0.9709 -0.3673 -0.3826
41279SOL     OW31076  11.285   5.117  12.547  0.0616  0.4961 -0.1319
41279SOL    HW131077  11.305   5.108  12.640  1.2337 -1.3427 -0.5071
41279SOL    HW231078  11.289   5.028  12.513 -2.7596  0.7828 -1.5283
41280SOL     OW31079   7.371   7.865   4.977  0.3319  0.0669 -0.6044
41280SOL    HW131080   7.417   7.877   5.060 -0.9324  0.4936  0.0539
41280SOL    HW231081   7.302   7.931   4.978 -0.8254 -1.0893 -1.1877
41281SOL     OW31082  12.245   7.846   2.800  0.1314 -0.4981  0.2212
41281SOL    HW131083  12.168   7.844   2.857  0.8797  0.9297  1.3595
41281SOL    HW231084  12.233   7.772   2.740 -3.6379  1.3298 -1.6553
41282SOL     OW31085   1.381   0.202   6.610  0.0189  0.2719  0.3501
41282SOL    HW131086   1.383   0.263   6.536 -0.3228  1.8409  1.5865
41282SOL    HW231087   1.295   0.214   6.650 -0.4531 -1.7623  0.0816
41283SOL     OW31088   8.011   4.634  10.530  0.0003  0.4570 -1.0501
41283SOL    HW131089   7.996   4.691  10.606  1.4178 -0.7347  0.1997
41283SOL    HW231090   7.937   4.573  10.532 -0.4309  0.9739 -1.1523
41284SOL     OW31091   8.013   5.708   2.598  0.1524 -0.3915 -0.2858
41284SOL    HW131092   8.088   5.693   2.540  0.1731  1.5645 -0.8337
41284SOL    HW231093   7.941   5.661   2.557  0.7435 -1.0950 -0.5342
41285SOL     OW31094   9.043  10.479   7.318  0.6391  0.0855  0.1579
41285SOL    HW131095   9.122  10.457   7.367  0.3705  1.2278  1.1436
41285SOL    HW231096   8.983  10.516   7.383  0.0543  1.1016 -0.9147
41286SOL     OW31097   3.418   2.598  10.963  0.0344  0.3808 -0.4351
41286SOL    HW131098   3.333   2.557  10.947 -0.2806  0.4732  0.8668
41286SOL    HW231099   3.474   2.527  10.991 -0.1529  0.5975  0.5452
41287SOL     OW31100   5.117   6.253   1.470  0.2883 -0.7998  0.6512
41287SOL    HW131101   5.147   6.327   1.522  0.4109 -0.9270  0.7615
41287SOL    HW231102   5.069   6.198   1.532 -0.9151 -0.1808  0.3111
41288SOL     OW31103   1.604   4.114   7.932 -0.6188 -0.0772  0.6283
41288SOL    HW131104   1.651   4.196   7.950 -1.1167  0.1359  0.9718
41288SOL    HW231105   1.620   4.098   7.839 -1.3256  0.9299  0.3170
41289SOL     OW31106   5.252   2.598   7.592  0.3908 -0.0795 -0.0458
41289SOL    HW131107   5.220   2.688   7.586 -0.1299 -0.2526  0.0348
41289SOL    HW231108   5.272   2.574   7.501  2.7206  0.8661  0.1495
41290SOL     OW31109  11.229  10.613   6.599 -0.0921 -0.2824  0.0566
41290SOL    HW131110  11.313  10.605   6.644  0.0101 -2.3006 -0.3930
41290SOL    HW231111  11.201  10.703   6.616  2.1196  0.4282  0.2584
41291SOL     OW31112   5.309   6.151   1.300  0.4448 -0.4182  0.7912
41291SOL    HW131113   5.376   6.214   1.322 -1.0647  1.6485 -0.1735
41291SOL    HW231114   5.239   6.166   1.363 -0.7048  0.2274 -0.5778
41292SOL     OW31115   0.156   0.305   9.192 -0.4126  0.2244  0.1064
41292SOL    HW131116   0.190   0.234   9.247 -0.2646  2.0267  2.5065
41292SOL    HW231117   0.223   0.373   9.198 -0.5655  0.6374 -2.1047
41293SOL     OW31118   0.721   9.369   1.742  0.2787 -0.3261  0.0392
41293SOL    HW131119   0.722   9.333   1.654 -0.4631 -0.5883  0.1307
41293SOL    HW231120   0.707   9.293   1.799 -1.9173  0.1112  0.1911
41294SOL     OW31121   6.375   1.815   1.971  0.1461  0.1949 -0.3344
41294SOL    HW131122   6.363   1.839   1.879 -0.6784 -0.7308 -0.4829
41294SOL    HW231123   6.292   1.836   2.012  0.5347  0.6631  0.2272
41295SOL     OW31124   2.716  11.052   3.557 -0.2449 -0.4079  0.1790
41295SOL    HW131125   2.765  10.992   3.502 -0.3729 -1.0309  0.7283
41295SOL    HW231126   2.759  11.047   3.642 -0.2604  0.2802  0.2357
41296SOL     OW31127   5.850   8.091   2.896  0.3736  0.4189  0.5889
41296SOL    HW131128   5.944   8.110   2.909  0.9947 -1.6513 -0.5166
41296SOL    HW231129   5.825   8.044   2.975  0.3338  0.7011  0.7472
41297SOL     OW31130   7.725   7.211   2.825  0.3923 -0.4180 -0.1899
41297SOL    HW131131   7.672   7.280   2.784 -0.3872 -0.5449  0.5710
41297SOL    HW231132   7.732   7.144   2.758 -1.6783 -1.0445  0.1536
41298SOL     OW31133   0.841  12.566  10.200  0.3023 -0.0945  0.0533
41298SOL    HW131134   0.902  12.605  10.263  2.0981 -1.2403 -0.9048
41298SOL    HW231135   0.865  12.604  10.116 -0.0369 -0.8586 -0.4012
41299SOL     OW31136  11.899  11.723  12.411  0.0122  0.0525  0.5879
41299SOL    HW131137  11.888  11.772  12.492 -1.5219  0.9486 -0.1226
41299SOL    HW231138  11.972  11.766  12.366 -0.4258  0.8208  0.6033
41300SOL     OW31139  10.830   9.786   5.134 -0.4412 -0.3122  0.6442
41300SOL    HW131140  10.770   9.787   5.209  0.3287 -0.4525  1.2718
41300SOL    HW231141  10.916   9.770   5.172 -0.2608 -2.2446 -0.4200
41301SOL     OW31142  11.218   2.524   4.805 -0.0235  0.0953 -0.2556
41301SOL    HW131143  11.307   2.558   4.810  0.5987 -1.1730 -1.9510
41301SOL    HW231144  11.180   2.565   4.728 -0.3304 -0.6005 -0.4902
41302SOL     OW31145   8.912   6.958   9.379  0.1023  0.1953 -0.8993
41302SOL    HW131146   8.846   7.004   9.326 -1.0761 -1.0138 -0.5549
41302SOL    HW231147   8.970   6.917   9.315 -1.7983 -1.9660 -1.3934
41303SOL     OW31148   8.196  12.067   3.228  0.2602  0.2997  0.0880
41303SOL    HW131149   8.125  12.114   3.271  2.3726  2.6282  1.2607
41303SOL    HW231150   8.158  12.036   3.145 -2.2158  0.9755  0.8955
41304SOL     OW31151  10.982   2.603   7.124 -0.2043  0.1059  0.3680
41304SOL    HW131152  11.076   2.596   7.142 -0.4575 -1.4606  1.2720
41304SOL    HW231153  10.952   2.676   7.177  0.5197  0.7239 -0.0505
41305SOL     OW31154   1.848   6.460   5.813 -0.4297  0.0471  0.3824
41305SOL    HW131155   1.859   6.548   5.778 -2.0322 -0.0479 -0.4925
41305SOL    HW231156   1.759   6.435   5.787 -0.0204 -1.8275  0.5921
41306SOL     OW31157   1.477   0.513  12.682 -0.2943  0.0888 -0.8365
41306SOL    HW131158   1.470   0.555  12.596  0.8748  0.8579 -0.5808
41306SOL    HW231159   1.562   0.469  12.680  0.5312  1.5333  0.5050
41307SOL     OW31160   7.439   2.552   2.829 -0.5022 -0.1718  0.1812
41307SOL    HW131161   7.485   2.584   2.751 -3.0166  0.4288 -1.1702
41307SOL    HW231162   7.432   2.628   2.886 -1.5936  0.3220 -0.5635
41308SOL     OW31163   2.485   2.534   5.636  0.0307 -0.7264  0.0987
41308SOL    HW131164   2.535   2.465   5.591  0.5799 -0.1888 -0.1263
41308SOL    HW231165   2.398   2.496   5.648 -0.3068 -0.6696 -1.9358
41309SOL     OW31166   1.897   4.106   3.311 -0.2058 -0.3427 -0.3340
41309SOL    HW131167   1.826   4.158   3.350  1.0291  2.0936 -1.1559
41309SOL    HW231168   1.893   4.127   3.218  0.9199 -1.0128 -0.5395
41310SOL     OW31169   8.657   4.377  11.404  0.0784 -0.7330 -0.3728
41310SOL    HW131170   8.606   4.309  11.361  1.1657 -0.9180 -1.4084
41310SOL    HW231171   8.674   4.342  11.492  0.2147 -1.5876 -0.7334
41311SOL     OW31172   7.732   9.758   6.608 -0.4600  0.1863 -1.0071
41311SOL    HW131173   7.789   9.728   6.679 -0.6116 -0.2746 -1.0797
41311SOL    HW231174   7.673   9.821   6.649 -0.5455 -0.0783 -0.7273
41312SOL     OW31175   7.066   0.956   5.638 -0.1420  0.4889  0.2987
41312SOL    HW131176   7.052   0.916   5.552 -1.4748  0.5042  0.4887
41312SOL    HW231177   7.008   1.031   5.639  0.3900  0.9011  0.9639
41313SOL     OW31178   1.390  10.845   8.412  0.3410  0.9244  0.0243
41313SOL    HW131179   1.294  10.847   8.408  0.3027  1.2245  0.8338
41313SOL    HW231180   1.418  10.895   8.335 -0.1015 -0.8753 -1.3584
41314SOL     OW31181   4.959   7.806  10.945  0.3130  0.0731 -0.1144
41314SOL    HW131182   5.051   7.831  10.940  0.8051 -1.5410  0.4090
41314SOL    HW231183   4.923   7.861  11.015  1.5227 -1.0995  1.4884
41315SOL     OW31184  11.170   6.730   8.190  0.4594 -0.4719 -0.4940
41315SOL    HW131185  11.124   6.652   8.221 -0.2857  0.0801 -0.1837
41315SOL    HW231186  11.123   6.756   8.111  0.3931 -0.0471 -0.3172
41316SOL     OW31187   9.101   1.379   7.243 -0.3776 -0.5810 -0.4244
41316SOL    HW131188   9.067   1.445   7.303 -2.4321  0.1174 -2.2184
41316SOL    HW231189   9.180   1.418   7.205  1.5665 -1.4479  2.4335
41317SOL     OW31190   9.518   6.130  10.968  0.4768 -0.0407  0.1209
41317SOL    HW131191   9.429   6.115  10.998 -0.0008 -1.8291 -1.9301
41317SOL    HW231192   9.554   6.195  11.029 -1.9483  0.1653  1.4359
41318SOL     OW31193   8.440   6.091   7.469 -0.1851  0.3129  0.2770
41318SOL    HW131194   8.530   6.123   7.480  0.0486  0.2266 -1.2523
41318SOL    HW231195   8.395   6.161   7.422 -0.0768 -0.8913 -1.7316
41319SOL     OW31196   8.022   3.933   1.774 -0.3369  0.3200  0.8551
41319SOL    HW131197   8.030   3.957   1.682 -0.2378 -0.6104  0.6064
41319SOL    HW231198   8.035   4.014   1.822 -1.6919  1.0793  0.0113
41320SOL     OW31199   3.031   1.573  12.345 -0.1731  0.2503  0.0170
41320SOL    HW131200   3.007   1.481  12.329  0.6958 -0.2752  1.5150
41320SOL    HW231201   3.009   1.588  12.437  0.5363  1.2752  0.0358
41321SOL     OW31202   3.178   4.515   9.095 -0.4224  0.6092  0.0764
41321SOL    HW131203   3.188   4.493   9.188  0.0765 -2.3093 -0.5743
41321SOL    HW231204   3.116   4.450   9.061 -0.4044  1.4608 -1.7172
41322SOL     OW31205  12.056   4.486   1.405  0.3764  0.5680  0.1885
41322SOL    HW131206  12.112   4.559   1.429 -1.3707  1.1627  3.0173
41322SOL    HW231207  11.973   4.527   1.380 -0.8838 -0.3516  2.5600
41323SOL     OW31208   3.844  11.660   0.710  0.0195 -0.2974  0.3977
41323SOL    HW131209   3.906  11.726   0.677  1.1919 -0.8389  1.4224
41323SOL    HW231210   3.888  11.623   0.787 -0.1596 -2.9150 -0.6481
41324SOL     OW31211   6.895   1.090   5.366 -0.3842  0.3946 -0.1777
41324SOL    HW131212   6.894   1.007   5.319 -0.2566  0.2043  0.1551
41324SOL    HW231213   6.819   1.086   5.423  0.5116 -0.1703  1.0035
41325SOL     OW31214   7.257  12.708   3.411  0.0066  0.4658 -0.2693
41325SOL    HW131215   7.254  12.643   3.482 -0.8611  0.2263 -0.5179
41325SOL    HW231216   7.171  12.704   3.371 -0.3521  2.3697  0.2396
41326SOL     OW31217  10.095   1.123   3.583  0.4763  0.4054  0.1111
41326SOL    HW131218  10.190   1.121   3.569  0.1755 -0.2536 -2.3324
41326SOL    HW231219  10.072   1.033   3.605  0.3103  0.3121 -0.4160
41327SOL     OW31220   9.859   1.873  10.662 -0.3638 -0.6592 -0.5206
41327SOL    HW131221   9.833   1.803  10.722  0.2829 -0.3110  0.1764
41327SOL    HW231222   9.777   1.902  10.622 -1.1314  0.6694  1.8824
41328SOL     OW31223  10.023   6.145   7.076  0.8485  0.1889 -0.2608
41328SOL    HW131224  10.049   6.220   7.023  1.3020  1.0206  1.0771
41328SOL    HW231225   9.974   6.089   7.016  2.7342  0.2617 -1.9775
41329SOL     OW31226   4.748   0.171  11.126 -0.4520 -0.4299 -0.6193
41329SOL    HW131227   4.809   0.241  11.104 -0.8960  0.4069  0.6975
41329SOL    HW231228   4.792   0.091  11.097  0.8796  0.2245 -0.4806
41330SOL     OW31229   1.039   1.876   3.040  0.4565 -0.3979 -0.5725
41330SOL    HW131230   0.949   1.875   3.009  0.5458  0.0769 -0.8476
41330SOL    HW231231   1.032   1.888   3.135  0.2798  1.2892 -0.7819
41331SOL     OW31232   1.933   4.678  11.001 -0.5004  0.0506  0.3059
41331SOL    HW131233   1.891   4.719  11.077 -0.4795  3.3502 -1.2778
41331SOL    HW231234   1.896   4.723  10.925  1.9548 -0.6543 -1.4602
41332SOL     OW31235   3.759   2.042   8.540 -0.2353 -0.2416 -0.0457
41332SOL    HW131236   3.753   1.960   8.589  1.1995  0.3182  1.1212
41332SOL    HW231237   3.720   2.107   8.598  1.4999  0.4364  0.4094
41333SOL     OW31238   2.455   5.533   1.181 -0.3707  0.3535  0.0877
41333SOL    HW131239   2.538   5.551   1.138  0.1300 -1.8415  0.0372
41333SOL    HW231240   2.475   5.535   1.275 -0.7466  1.8683  0.1600
41334SOL     OW31241   6.422  12.567   7.192  0.5155 -0.6549  0.4222
41334SOL    HW131242   6.504  12.544   7.235  0.3553 -0.1950  0.9800
41334SOL    HW231243   6.448  12.589   7.102  1.1201  0.2578  0.8014
41335SOL     OW31244   7.772   1.520   3.028  0.4277 -0.5417 -0.0090
41335SOL    HW131245   7.821   1.601   3.040  1.4503 -1.3308  1.3257
41335SOL    HW231246   7.730   1.530   2.942 -2.2386  2.8400  1.4315
41336SOL     OW31247   3.586  10.371   1.074  0.7880 -0.0783 -0.3225
41336SOL    HW131248   3.569  10.277   1.074 -0.8370  0.1723  0.1052
41336SOL    HW231249   3.528  10.406   1.006  1.1771  0.6451 -0.2973
41337SOL     OW31250   8.973   3.496   1.697  0.6487  0.3458 -0.0594
41337SOL    HW131251   8.887   3.492   1.738  0.4908 -1.1174 -0.4958
41337SOL    HW231252   8.992   3.406   1.670  1.7167  0.8755 -1.2025
41338SOL     OW31253  11.750   2.836  10.963  0.5192 -0.2619  0.4314
41338SOL    HW131254  11.791   2.766  10.911 -0.4316 -1.4461  1.2287
41338SOL    HW231255  11.775   2.916  10.917  1.0758 -1.1537 -0.9182
41339SOL     OW31256   0.317   5.400   4.955  0.0578 -0.1584 -0.5467
41339SOL    HW131257   0.399   5.447   4.941 -0.0873  1.7500  3.6197
41339SOL    HW231258   0.253   5.447   4.903  0.4431  2.8896  1.4698
41340SOL     OW31259   4.141   5.383   6.154  0.2077 -0.1059  0.6769
41340SOL    HW131260   4.114   5.397   6.244 -1.7355  0.6973  0.0323
41340SOL    HW231261   4.206   5.450   6.137  0.2676  0.0079  1.3589
41341SOL     OW31262   8.758   8.643   1.827  0.4368  0.1740 -0.4833
41341SOL    HW131263   8.742   8.593   1.907  1.9012 -2.1065 -1.5345
41341SOL    HW231264   8.682   8.702   1.821  0.5485  0.8816  2.8400
41342SOL     OW31265   3.855   2.011   4.970 -0.5113 -0.4408 -0.1780
41342SOL    HW131266   3.941   1.979   4.943 -1.2912  0.4725 -4.4449
41342SOL    HW231267   3.794   1.943   4.940 -1.4445  0.1023  0.4473
41343SOL     OW31268  10.227   5.697   2.486 -0.2082 -0.4619  0.1691
41343SOL    HW131269  10.274   5.778   2.505 -0.5366  0.2205 -1.6491
41343SOL    HW231270  10.207   5.659   2.571  0.0533  1.3264  1.0596
41344SOL     OW31271   0.662   2.184   4.636  0.1485 -0.2869 -0.8171
41344SOL    HW131272   0.737   2.131   4.608 -0.0733 -0.8311 -0.3911
41344SOL    HW231273   0.696   2.274   4.637  1.6909 -0.7601  2.0748
41345SOL     OW31274   3.647   5.703   9.414 -0.2535 -0.3982 -0.2165
41345SOL    HW131275   3.708   5.702   9.340  0.2221 -0.7695  0.1704
41345SOL    HW231276   3.590   5.778   9.398 -0.6902 -0.9470 -1.3821
41346SOL     OW31277   9.402   3.468   5.641  0.6427  0.1893  0.5574
41346SOL    HW131278   9.460   3.439   5.571 -0.5628  0.7050 -0.6979
41346SOL    HW231279   9.385   3.389   5.691  0.2095 -0.5620 -0.7283
41347SOL     OW31280  10.646   5.887   3.158 -0.0328  0.3951 -0.2970
41347SOL    HW131281  10.600   5.916   3.236  0.3871  0.0564  0.0791
41347SOL    HW231282  10.637   5.792   3.159  0.2977  0.3625 -0.4616
41348SOL     OW31283   9.641   8.818  11.185  0.2610 -0.0183 -0.5364
41348SOL    HW131284   9.585   8.885  11.222 -1.0390 -0.9394 -0.7681
41348SOL    HW231285   9.582   8.759  11.138  1.2884 -1.5476 -0.0332
41349SOL     OW31286   7.016   9.578  12.409  0.1826 -0.8278  0.0059
41349SOL    HW131287   7.083   9.643  12.428 -0.4112 -0.3850  0.6617
41349SOL    HW231288   7.029   9.510  12.475 -0.0736 -0.6912  0.1984
41350SOL     OW31289   6.899  10.950  11.371  0.6196  0.5381 -0.0224
41350SOL    HW131290   6.833  10.890  11.336  0.2207  1.2913 -0.6001
41350SOL    HW231291   6.882  10.951  11.465 -1.1581  1.8028 -0.3011
41351SOL     OW31292   4.601   8.491   9.457 -0.2973  0.0122 -0.5894
41351SOL    HW131293   4.531   8.551   9.434  0.0466  0.8859  0.5711
41351SOL    HW231294   4.556   8.411   9.485 -0.7924  0.2139 -0.8024
41352SOL     OW31295   7.752   9.576   8.659  0.1374 -0.3104  0.2611
41352SOL    HW131296   7.674   9.520   8.653 -0.6653  0.7858  0.0592
41352SOL    HW231297   7.806   9.550   8.584 -0.2662 -0.7537  0.1161
41353SOL     OW31298   5.297   2.811  11.629 -0.4230  0.1283 -0.7620
41353SOL    HW131299   5.208   2.793  11.600 -0.0849 -0.6111 -1.3754
41353SOL    HW231300   5.325   2.731  11.673 -0.3893  0.6994  0.2690
41354SOL     OW31301   8.860  10.031  11.887 -0.4249 -0.8127  0.0058
41354SOL    HW131302   8.886  10.014  11.796  0.0432  0.7289 -0.1742
41354SOL    HW231303   8.943  10.043  11.934 -0.6621 -1.6892  0.6757
41355SOL     OW31304   3.693   8.882   1.442 -0.5391 -0.4064 -0.8706
41355SOL    HW131305   3.657   8.872   1.354 -0.1034 -0.7115 -1.0195
41355SOL    HW231306   3.772   8.935   1.430 -2.1593  2.3040 -0.2395
41356SOL     OW31307   3.912  11.192   8.371 -0.2802 -0.5604 -0.0973
41356SOL    HW131308   3.968  11.264   8.341 -0.2956 -0.5336 -0.0607
41356SOL    HW231309   3.950  11.164   8.454  0.9126 -1.8895 -1.0331
41357SOL     OW31310   8.243  12.621   1.128  0.3767 -0.5365 -0.3625
41357SOL    HW131311   8.295  12.685   1.176  1.1461 -2.3708  1.4323
41357SOL    HW231312   8.267  12.537   1.168 -1.2648 -1.8472 -1.9703
41358SOL     OW31313   8.388   0.495   2.547  0.6729  0.2430  0.1650
41358SOL    HW131314   8.446   0.571   2.536  1.1936 -0.2028 -0.1666
41358SOL    HW231315   8.447   0.421   2.560  0.1777 -0.2226 -0.2204
41359SOL     OW31316   5.400  10.002   0.322 -0.4098 -0.6620 -0.1138
41359SOL    HW131317   5.395   9.950   0.242  0.4359 -0.3546 -0.3820
41359SOL    HW231318   5.355   9.950   0.389 -0.7871 -1.0900 -0.6979
41360SOL     OW31319   1.734   9.217   5.228 -0.2792 -0.3646 -0.2264
41360SOL    HW131320   1.702   9.307   5.225  1.6315  0.4795  1.5922
41360SOL    HW231321   1.687   9.178   5.302 -1.3744 -1.0394 -1.2342
41361SOL     OW31322  10.784   8.103  11.360  0.6509  0.0430 -0.0626
41361SOL    HW131323  10.726   8.133  11.430  1.3576  0.2028  0.4589
41361SOL    HW231324  10.792   8.178  11.301 -1.4008 -0.6311 -1.3401
41362SOL     OW31325   4.959   5.503   8.196  0.1892 -0.4904  0.4330
41362SOL    HW131326   4.907   5.424   8.178 -2.8162  1.0815  1.5814
41362SOL    HW231327   4.905   5.575   8.164  2.7245  1.2106 -0.3331
41363SOL     OW31328   4.480   6.420   1.639 -0.3332 -1.0485 -0.6404
41363SOL    HW131329   4.469   6.458   1.552  0.2622 -0.6422 -0.5444
41363SOL    HW231330   4.535   6.343   1.626 -0.2907 -1.0191 -0.6353
41364SOL     OW31331   9.181  11.975   2.803 -0.0334 -0.0623 -0.2868
41364SOL    HW131332   9.097  11.947   2.841 -0.2992 -1.3271 -1.7155
41364SOL    HW231333   9.217  12.036   2.867 -0.5723 -1.8899  1.9113
41365SOL     OW31334   8.267  11.698   3.531 -0.3847  0.6702 -0.3023
41365SOL    HW131335   8.299  11.705   3.441  0.0409  1.1444 -0.1201
41365SOL    HW231336   8.267  11.788   3.563  0.2304  0.4227  0.4279
41366SOL     OW31337   6.993   1.286   4.176 -0.6440 -0.2858 -1.1242
41366SOL    HW131338   7.052   1.224   4.133  0.3829  0.3141 -0.6263
41366SOL    HW231339   6.916   1.235   4.198 -0.5192 -0.9807 -2.2269
41367SOL     OW31340   2.485   0.919   6.141  0.3192  0.4200  0.1776
41367SOL    HW131341   2.468   1.001   6.095 -0.2006 -0.4648 -1.2798
41367SOL    HW231342   2.401   0.895   6.179 -0.1186 -0.5218 -1.2855
41368SOL     OW31343  10.197  11.072   6.194 -0.7424  0.1097 -0.0302
41368SOL    HW131344  10.284  11.103   6.167 -0.9497  1.6970  1.0034
41368SOL    HW231345  10.144  11.078   6.114 -0.4754  1.3726 -0.1267
41369SOL     OW31346   7.705   3.582   0.150 -0.1161  0.2555  0.3301
41369SOL    HW131347   7.762   3.528   0.206  2.2730  1.7630 -0.4857
41369SOL    HW231348   7.674   3.652   0.207 -1.0603 -0.4692  0.7324
41370SOL     OW31349   2.713   8.212   6.715  0.8192 -0.3174 -0.6132
41370SOL    HW131350   2.759   8.214   6.631  2.5616  1.8576  0.2935
41370SOL    HW231351   2.783   8.204   6.781 -0.4219 -0.9343  0.6858
41371SOL     OW31352   5.162   3.186   9.886  0.2282  0.0271 -0.7194
41371SOL    HW131353   5.217   3.189   9.964  0.6272 -0.2233 -0.9856
41371SOL    HW231354   5.073   3.191   9.920  0.3306 -1.5362 -0.1320
41372SOL     OW31355   4.123   1.587   0.203 -0.5344 -0.1894  0.9641
41372SOL    HW131356   4.140   1.526   0.131  0.0551  1.3728 -0.2740
41372SOL    HW231357   4.058   1.648   0.168  1.4325  1.9751  0.8806
41373SOL     OW31358   2.121   2.632   6.044 -0.0743 -0.2079  0.3868
41373SOL    HW131359   2.170   2.713   6.032 -0.8494  0.2782  0.4671
41373SOL    HW231360   2.065   2.648   6.120  0.9071 -1.3822  1.4137
41374SOL     OW31361   3.208   0.605  10.075 -0.0803 -0.0729 -0.0878
41374SOL    HW131362   3.241   0.668  10.011 -0.0686 -1.2941 -1.3426
41374SOL    HW231363   3.153   0.657  10.133  0.6582  1.2478 -0.5166
41375SOL     OW31364   3.832  11.831   2.317 -0.5548  0.0984  0.3408
41375SOL    HW131365   3.879  11.907   2.352 -1.2179  0.1453  1.1665
41375SOL    HW231366   3.798  11.786   2.395 -0.6182 -0.7511 -0.1692
41376SOL     OW31367   0.280  10.462   0.899  0.1517 -0.1662  0.6020
41376SOL    HW131368   0.244  10.543   0.863 -0.0201 -0.0837  0.9575
41376SOL    HW231369   0.335  10.491   0.972  2.6040 -0.1092 -1.1661
41377SOL     OW31370   2.814   3.211  10.582  0.4894  0.1654 -0.0092
41377SOL    HW131371   2.778   3.288  10.538 -0.6208 -0.5709 -0.4270
41377SOL    HW231372   2.757   3.198  10.658  0.0238 -0.8412 -0.5115
41378SOL     OW31373   1.307   0.176  10.826  0.1315  0.6550  0.3111
41378SOL    HW131374   1.393   0.208  10.853 -0.4085  0.2105  2.8067
41378SOL    HW231375   1.257   0.255  10.807 -0.5248  1.3978  4.2932
41379SOL     OW31376   6.047   8.266  10.880 -0.0680 -0.0578 -0.0763
41379SOL    HW131377   6.052   8.262  10.785  2.6953  0.6922 -0.0626
41379SOL    HW231378   5.967   8.315  10.898 -0.1678  0.5873 -2.0337
41380SOL     OW31379   3.572   0.174   9.237 -0.1519 -0.3959  0.0147
41380SOL    HW131380   3.507   0.155   9.170 -0.1148  1.3429 -0.5612
41380SOL    HW231381   3.640   0.109   9.224  0.5862  0.8021 -2.6654
41381SOL     OW31382   3.611   3.384   1.951 -0.5949 -0.4268 -0.1537
41381SOL    HW131383   3.645   3.451   1.892  0.3018 -0.4301  0.3460
41381SOL    HW231384   3.517   3.403   1.956 -0.5926 -0.0823 -1.1234
41382SOL     OW31385   1.075  11.614   2.842  0.0989 -0.1925  0.1690
41382SOL    HW131386   1.001  11.558   2.864 -1.2387  1.1119 -0.7823
41382SOL    HW231387   1.076  11.617   2.746  0.5632  0.8309  0.1907
41383SOL     OW31388   3.542  11.728   3.182 -0.1423 -0.5742  0.6318
41383SOL    HW131389   3.508  11.774   3.105  1.0824 -0.4349  0.1569
41383SOL    HW231390   3.484  11.756   3.254 -1.1158 -0.4786 -0.1673
41384SOL     OW31391   7.023   4.222   8.675  0.4630  0.4235  0.0427
41384SOL    HW131392   7.083   4.150   8.660  0.5669  0.0734  1.8954
41384SOL    HW231393   7.074   4.301   8.657  0.8880  0.0854 -0.2406
41385SOL     OW31394  11.883   6.401   7.894  1.1943 -0.0669 -0.3735
41385SOL    HW131395  11.847   6.457   7.963 -1.1493  0.0820 -1.6009
41385SOL    HW231396  11.928   6.331   7.941 -1.3231 -0.6423  1.4237
41386SOL     OW31397   7.617  10.153   7.805  0.3918 -0.1234 -0.1460
41386SOL    HW131398   7.545  10.183   7.860  2.0513  0.4220  1.8674
41386SOL    HW231399   7.626  10.220   7.737 -1.0029 -0.2371 -0.4650
41387SOL     OW31400  12.249  10.348  11.860 -0.0735 -0.4120 -0.3648
41387SOL    HW131401  12.185  10.415  11.885  0.4056 -0.1003  0.0604
41387SOL    HW231402  12.197  10.269  11.849 -0.4746 -0.2948  0.5251
41388SOL     OW31403   9.231   7.386   7.305  0.3882  0.7344  0.4007
41388SOL    HW131404   9.236   7.307   7.359  2.3933 -0.4980 -1.4122
41388SOL    HW231405   9.138   7.409   7.303 -0.3057 -1.7825  0.7465
41389SOL     OW31406   8.247   8.491   4.610  0.1874 -0.0005 -0.1440
41389SOL    HW131407   8.248   8.532   4.524  0.1778 -3.6145 -2.0536
41389SOL    HW231408   8.332   8.447   4.616 -0.8622 -2.0776  0.4053
41390SOL     OW31409   2.080   1.643   7.928 -0.6132 -0.4290 -0.0152
41390SOL    HW131410   2.012   1.669   7.989 -0.6546  0.5322 -0.4551
41390SOL    HW231411   2.033   1.615   7.850 -0.6338 -3.0361  0.8278
41391SOL     OW31412   3.536   2.694   3.559 -0.0045  0.0878 -0.2128
41391SOL    HW131413   3.572   2.706   3.647 -0.0436 -2.7329  0.2831
41391SOL    HW231414   3.447   2.727   3.565 -0.0541 -0.1933  0.8600
41392SOL     OW31415   2.686   4.422   4.341  0.0162 -0.2919  0.0234
41392SOL    HW131416   2.603   4.468   4.348 -0.7525 -1.7548  0.9044
41392SOL    HW231417   2.718   4.444   4.253 -2.1873 -1.1065 -1.0652
41393SOL     OW31418   8.653   1.010  11.606  0.3358 -0.3885 -0.7363
41393SOL    HW131419   8.661   1.033  11.698 -1.0582 -1.7483 -0.2281
41393SOL    HW231420   8.652   0.915  11.605  0.9809 -0.4072 -2.2379
41394SOL     OW31421   7.669   6.154   0.075 -0.1592  0.2050 -0.6517
41394SOL    HW131422   7.703   6.095   0.142  0.1736 -1.6535 -2.3624
41394SOL    HW231423   7.586   6.185   0.110  0.7269  0.5525  1.2649
41395SOL     OW31424  11.310   6.886   6.387  0.4181  0.3922  0.3029
41395SOL    HW131425  11.385   6.894   6.328  0.4645 -2.4692 -0.1289
41395SOL    HW231426  11.286   6.794   6.385 -2.2296  0.9326  1.5728
41396SOL     OW31427   3.096   3.434  10.346 -0.4769 -0.4272  0.3425
41396SOL    HW131428   3.033   3.405  10.280  0.1818 -0.5340 -0.2498
41396SOL    HW231429   3.162   3.365  10.349  0.4869  0.4291 -0.2449
41397SOL     OW31430  12.439  12.708  10.409 -0.1405 -0.0755 -0.0559
41397SOL    HW131431  12.491  12.745  10.337 -1.3248  1.2349 -0.2866
41397SOL    HW231432  12.468  12.757  10.487 -0.8582  0.5326 -0.1551
41398SOL     OW31433   0.307   1.301   3.789  0.0508  0.5214  0.0566
41398SOL    HW131434   0.399   1.299   3.814 -0.5591  0.0583  2.5603
41398SOL    HW231435   0.266   1.362   3.851 -1.4850 -0.0090 -0.3686
41399SOL     OW31436   3.924   8.950  12.619  0.0714  0.5675  0.0796
41399SOL    HW131437   3.941   8.983  12.707 -0.9962  0.9647  0.1449
41399SOL    HW231438   4.010   8.948  12.577  0.5914  0.3642  1.1291
41400SOL     OW31439   9.915   7.011   4.406  0.0313 -0.2027 -0.1317
41400SOL    HW131440   9.823   6.988   4.422  0.1795 -2.4641 -1.9708
41400SOL    HW231441   9.913   7.059   4.323  0.3119  2.1290  1.1244
41401SOL     OW31442   4.066   4.641   0.459  0.3720 -0.1535 -0.2521
41401SOL    HW131443   4.096   4.731   0.472 -0.3553  0.3206 -1.6097
41401SOL    HW231444   4.114   4.590   0.524  0.6110  1.2484  0.7162
41402SOL     OW31445   0.893   4.568   1.304  0.2617 -0.0773 -0.1946
41402SOL    HW131446   0.873   4.648   1.255  1.7273  0.4268 -0.0108
41402SOL    HW231447   0.988   4.570   1.316  0.1333 -1.0051  1.2694
41403SOL     OW31448   2.376   1.691   2.203 -0.2561 -0.0924  0.6062
41403SOL    HW131449   2.290   1.659   2.177  0.6074 -1.3178 -0.9059
41403SOL    HW231450   2.426   1.696   2.122  1.0976  0.6760  1.4356
41404SOL     OW31451  11.392   9.954  12.121  0.2214  0.4435  0.0933
41404SOL    HW131452  11.353   9.981  12.204  2.9141  2.6280  0.8287
41404SOL    HW231453  11.332   9.986  12.054  0.0226  2.5000  1.1739
41405SOL     OW31454  11.175   1.092   5.209  0.0854 -0.2152  0.3872
41405SOL    HW131455  11.255   1.072   5.258  0.9892 -1.4110 -1.4600
41405SOL    HW231456  11.104   1.075   5.271  1.2194 -0.0199  1.7888
41406SOL     OW31457  11.235   1.645  10.437  0.4262 -0.4516 -0.4616
41406SOL    HW131458  11.280   1.562  10.423 -0.4688 -1.5571  2.3785
41406SOL    HW231459  11.297   1.697  10.489  0.3369 -0.0047 -0.7987
41407SOL     OW31460   9.061   5.851   2.513  0.3344 -0.0105 -0.2652
41407SOL    HW131461   9.045   5.852   2.607  1.8973 -0.0584  0.0386
41407SOL    HW231462   9.110   5.770   2.498  1.3437  0.6815 -0.8625
41408SOL     OW31463   4.742   7.796  10.760 -0.1276 -0.1028 -0.3490
41408SOL    HW131464   4.816   7.827  10.812 -0.7595  0.2129  0.3804
41408SOL    HW231465   4.673   7.860  10.776 -0.7208 -0.6601 -0.6322
41409SOL     OW31466   1.183   1.177   5.859  0.1135  0.6787 -0.2201
41409SOL    HW131467   1.126   1.102   5.839  1.3496 -1.0311  2.1022
41409SOL    HW231468   1.271   1.140   5.858  0.7229  1.9988  1.4684
41410SOL     OW31469   4.726   5.743   4.248 -0.1560 -0.5029  0.6342
41410SOL    HW131470   4.804   5.752   4.303  0.6219 -0.3183 -0.4736
41410SOL    HW231471   4.759   5.721   4.161 -1.1714  1.7356 -0.4100
41411SOL     OW31472   6.110   5.586   9.345  0.0617 -0.5398 -0.0671
41411SOL    HW131473   6.104   5.660   9.284  2.4731 -2.1193 -2.4842
41411SOL    HW231474   6.030   5.536   9.332  0.0942 -0.3015 -1.2309
41412SOL     OW31475  11.440   1.244   6.555 -0.0144  0.4193  0.7876
41412SOL    HW131476  11.448   1.178   6.624  2.1047 -1.9622 -1.4886
41412SOL    HW231477  11.367   1.214   6.501  1.6396 -0.8448 -0.8727
41413SOL     OW31478   3.656   7.617   2.860  0.2717 -0.0527 -0.4500
41413SOL    HW131479   3.715   7.680   2.819 -1.1934  1.9884  0.3477
41413SOL    HW231480   3.698   7.532   2.849  3.2166  1.2554 -0.0800
41414SOL     OW31481   7.448   5.207   4.142  0.3629 -0.9002 -0.2069
41414SOL    HW131482   7.354   5.192   4.149  0.4853 -1.1556  1.0468
41414SOL    HW231483   7.463   5.290   4.186  0.6505 -0.5346 -0.9722
41415SOL     OW31484   0.172   1.778   5.883 -0.3736  0.0476  0.2657
41415SOL    HW131485   0.238   1.834   5.842 -0.2648 -0.8011 -0.7337
41415SOL    HW231486   0.184   1.793   5.977 -0.1661  1.4910  0.0388
41416SOL     OW31487   1.441  12.649   1.681 -0.4797 -0.2920 -0.0058
41416SOL    HW131488   1.527  12.624   1.716  0.0347  0.6741 -0.5294
41416SOL    HW231489   1.378  12.609   1.741  0.2556 -2.9345 -0.8709
41417SOL     OW31490   8.428   1.997   3.267  0.7515 -0.2290 -0.1515
41417SOL    HW131491   8.487   1.923   3.250 -0.6494 -1.3344 -0.3124
41417SOL    HW231492   8.340   1.963   3.253  0.0949  1.8394 -1.5645
41418SOL     OW31493   7.056  11.037  12.448  0.2011  0.2770  0.0756
41418SOL    HW131494   7.062  11.127  12.414  0.7998 -0.2858 -1.4027
41418SOL    HW231495   7.027  11.048  12.539  1.1708  2.0087  0.2270
41419SOL     OW31496  10.042   3.454   0.699 -0.1435 -0.1658 -0.2754
41419SOL    HW131497  10.092   3.534   0.687 -0.4450 -0.0773 -0.9972
41419SOL    HW231498  10.060   3.402   0.621 -0.3084 -0.6054 -0.0266
41420SOL     OW31499   0.846   5.243  12.236 -0.2391  0.1777  0.2931
41420SOL    HW131500   0.866   5.152  12.258  0.8199  0.4175  0.3752
41420SOL    HW231501   0.930   5.289  12.245 -1.0796  1.5120  2.0207
41421SOL     OW31502  11.908   6.074   1.992  0.1577  0.4385  0.2712
41421SOL    HW131503  11.961   5.996   1.975  1.4122  0.8423  1.9508
41421SOL    HW231504  11.845   6.046   2.059 -2.1489 -0.1398 -1.9754
41422SOL     OW31505   2.349   4.581  11.557 -0.3233  0.1372 -0.2917
41422SOL    HW131506   2.367   4.652  11.495 -0.7695  1.3911  0.9786
41422SOL    HW231507   2.264   4.602  11.595  0.0825 -0.4223  0.9881
41423SOL     OW31508   8.260   4.116  10.672  0.0563 -0.4878  0.0669
41423SOL    HW131509   8.191   4.178  10.696  1.6802  0.7861  1.7971
41423SOL    HW231510   8.284   4.140  10.583 -0.6893  0.0537  0.0053
41424SOL     OW31511   6.742   2.546   0.752 -0.3090 -0.1635  0.0750
41424SOL    HW131512   6.653   2.533   0.787  0.4422 -0.3714  2.0642
41424SOL    HW231513   6.777   2.457   0.743  0.5995 -0.0518  1.9516
41425SOL     OW31514   2.533   4.478   0.247 -0.2525 -0.1985  0.4339
41425SOL    HW131515   2.513   4.523   0.165  0.6033 -1.3744 -0.4485
41425SOL    HW231516   2.447   4.455   0.283 -0.6489  0.6992  0.1055
41426SOL     OW31517   6.850   7.613   6.248 -0.2132  0.3151 -0.2957
41426SOL    HW131518   6.845   7.695   6.199  1.3544 -0.7809 -2.5060
41426SOL    HW231519   6.770   7.566   6.226 -1.8389  1.7157  2.1332
41427SOL     OW31520   7.689   4.253   3.801  0.0966  0.5968  0.1200
41427SOL    HW131521   7.717   4.231   3.712 -1.3326 -2.0355  0.2136
41427SOL    HW231522   7.600   4.287   3.790 -0.3750 -0.4474  0.5610
41428SOL     OW31523  10.129  10.308  12.636  0.0618 -0.5419  0.0301
41428SOL    HW131524  10.076  10.249  12.581 -0.4233 -0.1861  0.1094
41428SOL    HW231525  10.122  10.393  12.593  2.4371 -0.9047 -1.2597
41429SOL     OW31526   4.805   8.470   0.127  0.3819  0.2650  0.5999
41429SOL    HW131527   4.882   8.495   0.177  0.2657  0.9681  0.4347
41429SOL    HW231528   4.828   8.489   0.036 -0.6616  2.3333  0.7154
41430SOL     OW31529   2.752   8.905  10.697 -0.2524 -0.1485 -0.0762
41430SOL    HW131530   2.693   8.880  10.768 -0.4883  0.6308  0.0079
41430SOL    HW231531   2.697   8.905  10.618 -0.2999  0.2761 -0.0462
41431SOL     OW31532   1.499   4.949  12.447 -0.0442  0.2811 -0.0373
41431SOL    HW131533   1.475   4.892  12.520  3.6783  0.4215  1.5136
41431SOL    HW231534   1.565   5.007  12.483  0.0547  2.1471 -2.9318
41432SOL     OW31535   0.833   2.186   2.326  0.0357  0.1995 -0.2196
41432SOL    HW131536   0.761   2.127   2.303  0.7859 -0.5096 -0.7959
41432SOL    HW231537   0.911   2.130   2.325  0.8415  1.2890 -1.2727
41433SOL     OW31538   0.120   0.955   9.896 -0.7678  0.0231  0.0779
41433SOL    HW131539   0.132   1.048   9.914  1.2608 -0.3636  1.0251
41433SOL    HW231540   0.143   0.912   9.979 -1.4608 -1.3435 -0.4085
41434SOL     OW31541   7.288   4.478   2.918 -0.3094  1.0560  0.2800
41434SOL    HW131542   7.328   4.393   2.899  1.2114  1.6774  0.5999
41434SOL    HW231543   7.260   4.510   2.832 -1.8966 -0.2118  0.2741
41435SOL     OW31544  11.564  10.538   8.277 -0.2086 -0.0325  0.7000
41435SOL    HW131545  11.651  10.503   8.256 -0.9528  0.1268 -3.3358
41435SOL    HW231546  11.575  10.633   8.272 -0.6948 -0.0231 -0.4740
41436SOL     OW31547   3.690   5.370   7.867  0.0057 -0.1703  0.2982
41436SOL    HW131548   3.736   5.451   7.843 -0.2002  0.2815  1.3784
41436SOL    HW231549   3.600   5.384   7.834 -0.0081  0.0074  0.4088
41437SOL     OW31550   6.704  10.730  10.391 -0.3036  0.5552  0.4828
41437SOL    HW131551   6.675  10.644  10.420 -0.9075  0.9796  1.1642
41437SOL    HW231552   6.632  10.789  10.413  0.3352  1.3290  0.5476
41438SOL     OW31553  10.947  12.186   9.432  0.2075  0.0513 -0.2019
41438SOL    HW131554  11.016  12.212   9.371  0.6632 -1.6316 -0.4763
41438SOL    HW231555  10.994  12.142   9.503 -0.5268 -0.6822 -0.1515
41439SOL     OW31556   4.392   3.192   1.534 -0.1058 -0.1020  0.0431
41439SOL    HW131557   4.343   3.272   1.553 -0.5340 -0.4524  0.4242
41439SOL    HW231558   4.484   3.218   1.542 -0.2515  0.2152  0.7156
41440SOL     OW31559   6.616   4.921  11.771  0.0470 -0.4298 -0.0848
41440SOL    HW131560   6.674   4.850  11.745 -1.0955 -1.5525  0.3738
41440SOL    HW231561   6.670   5.000  11.762  1.3413 -1.3382 -0.5687
41441SOL     OW31562  11.227   2.816   5.375 -0.1615 -0.4703 -0.2351
41441SOL    HW131563  11.189   2.902   5.356 -0.0411 -0.4421 -0.3488
41441SOL    HW231564  11.248   2.779   5.289  2.3930  0.5571 -0.1194
41442SOL     OW31565   1.822   9.137   5.934 -0.1201  0.3559  0.4656
41442SOL    HW131566   1.831   9.179   6.019 -0.4304  2.4017 -0.4624
41442SOL    HW231567   1.902   9.159   5.886  0.4918 -1.5743  0.5113
41443SOL     OW31568  11.776  10.587   6.594  0.5618 -0.3369  0.1668
41443SOL    HW131569  11.831  10.605   6.518  1.1349  0.7522  0.8308
41443SOL    HW231570  11.809  10.504   6.628  0.5989 -0.6016 -0.4876
41444SOL     OW31571  12.162   9.561   6.136 -0.0949 -0.4925 -0.1159
41444SOL    HW131572  12.141   9.623   6.206 -0.4876 -0.7408 -0.0097
41444SOL    HW231573  12.240   9.597   6.094  0.3187 -0.4898  0.6416
41445SOL     OW31574   8.085   3.471   2.561 -0.3489 -0.0741 -0.6395
41445SOL    HW131575   8.106   3.533   2.491  0.0822 -0.2497 -0.6696
41445SOL    HW231576   8.170   3.445   2.597 -0.5528 -0.2064 -0.2421
41446SOL     OW31577   2.862   5.118   3.755 -0.0171  0.5379  0.0303
41446SOL    HW131578   2.882   5.135   3.663  0.9678  1.0099  0.3106
41446SOL    HW231579   2.767   5.108   3.758  0.0701 -1.0273 -1.2669
41447SOL     OW31580   6.093   7.974   8.153 -0.0844  0.4099 -0.0773
41447SOL    HW131581   6.183   7.956   8.128 -0.0484  0.9780 -0.3840
41447SOL    HW231582   6.040   7.941   8.080 -0.2129 -0.9953  0.6308
41448SOL     OW31583   3.833   0.645   2.564  0.1846 -0.2427  0.2824
41448SOL    HW131584   3.907   0.653   2.623 -0.6212 -0.7173  1.3869
41448SOL    HW231585   3.758   0.675   2.615 -0.2765  1.1133 -1.1101
41449SOL     OW31586   0.634   8.641   8.397  0.0793 -0.4148 -0.1960
41449SOL    HW131587   0.692   8.599   8.461 -1.5337  1.6736  2.8886
41449SOL    HW231588   0.673   8.726   8.381  0.2401 -0.7621 -1.7588
41450SOL     OW31589   7.984   9.858   1.745  0.0139  0.6770  0.0467
41450SOL    HW131590   7.976   9.914   1.668 -1.2694 -0.4316 -0.6589
41450SOL    HW231591   7.894   9.839   1.771  0.4269 -0.1728  0.9261
41451SOL     OW31592   4.631   1.533   3.550  0.2492  0.6571  0.2217
41451SOL    HW131593   4.540   1.500   3.548  0.1665  0.6582  2.1512
41451SOL    HW231594   4.681   1.466   3.504 -0.5780  0.0872  0.1196
41452SOL     OW31595   0.760  11.855   0.616 -0.3352  0.0217  0.1272
41452SOL    HW131596   0.667  11.877   0.618 -0.6992 -1.3477 -0.8543
41452SOL    HW231597   0.777  11.816   0.702 -0.5693  0.5715  0.4322
41453SOL     OW31598   8.275   6.316  12.242  0.2150  0.2620  0.2876
41453SOL    HW131599   8.271   6.243  12.180 -2.2222  0.8402 -0.3762
41453SOL    HW231600   8.258   6.276  12.327  0.6516 -0.1636  0.1808
41454SOL     OW31601   7.440   1.654  10.729 -0.5056 -0.4762 -0.1356
41454SOL    HW131602   7.486   1.737  10.714 -1.7171  0.7537  2.2671
41454SOL    HW231603   7.488   1.590  10.677  2.6709  1.0779  0.6339
41455SOL     OW31604   4.176   7.507  11.265 -0.5923 -0.6651 -0.3617
41455SOL    HW131605   4.261   7.469  11.284 -0.1519  0.1531 -0.6529
41455SOL    HW231606   4.185   7.600  11.285 -1.7575 -0.7376  0.6770
41456SOL     OW31607   7.517   3.866   5.734  0.0758  0.6381  0.4016
41456SOL    HW131608   7.520   3.887   5.640 -0.0238  0.1700  0.2894
41456SOL    HW231609   7.594   3.810   5.748  1.0724  2.1073  0.9639
41457SOL     OW31610   8.963   6.992  12.019  0.2693  0.0187  0.0151
41457SOL    HW131611   9.024   6.946  11.961 -0.4590  0.2303 -0.9415
41457SOL    HW231612   9.019   7.034  12.084  1.1273 -0.0720 -0.6498
41458SOL     OW31613  11.562  11.280  12.406  0.1070 -0.1704 -0.1562
41458SOL    HW131614  11.626  11.351  12.395 -0.1425  0.3360  1.3765
41458SOL    HW231615  11.615  11.201  12.408  0.7530  0.2597  1.2667
41459SOL     OW31616   4.328   8.995  11.767  0.2759  0.2248 -0.1437
41459SOL    HW131617   4.241   9.034  11.752  1.1070  2.1206 -0.3546
41459SOL    HW231618   4.314   8.901  11.759 -1.9107  0.4272  0.5646
41460SOL     OW31619   2.410   5.416   7.120 -1.0818  0.2784  0.2001
41460SOL    HW131620   2.438   5.334   7.159 -2.8556  1.0686  3.4632
41460SOL    HW231621   2.363   5.390   7.041 -0.6183 -1.7533  0.5392
41461SOL     OW31622   9.335   8.734   4.212 -0.2589  0.4613  0.4950
41461SOL    HW131623   9.424   8.706   4.190  0.1567  1.4782  0.8302
41461SOL    HW231624   9.343   8.776   4.297 -1.1884 -0.0330  0.8392
41462SOL     OW31625  11.031   7.041   7.753  0.7608  0.2179  0.0379
41462SOL    HW131626  11.064   6.981   7.685  0.3220 -1.9249  1.6062
41462SOL    HW231627  10.936   7.037   7.743  0.7368  0.9061 -0.0206
41463SOL     OW31628  11.521   1.223  11.873 -0.4491  0.2661 -0.3820
41463SOL    HW131629  11.435   1.228  11.830 -1.1685  1.1220  1.0995
41463SOL    HW231630  11.562   1.145  11.835 -1.0794  0.8871 -2.5123
41464SOL     OW31631   7.568   5.860  11.172  0.0935 -0.2672 -0.7685
41464SOL    HW131632   7.544   5.939  11.123 -0.5052  0.7311  1.0431
41464SOL    HW231633   7.484   5.821  11.197  0.3732 -0.4495 -0.0948
41465SOL     OW31634   1.022   9.078   4.424 -0.7192 -0.0538  0.6096
41465SOL    HW131635   0.929   9.083   4.445 -1.3323 -0.5550 -1.7487
41465SOL    HW231636   1.042   8.984   4.424 -0.2971  0.0321  0.6691
41466SOL     OW31637   7.303   8.815   4.998  0.3735 -0.2212  0.2492
41466SOL    HW131638   7.395   8.840   5.008  0.7337 -1.5789  0.6089
41466SOL    HW231639   7.300   8.771   4.913 -0.1509  0.6280 -0.1807
41467SOL     OW31640   1.572  10.318   2.090 -0.1520  0.3342  0.2996
41467SOL    HW131641   1.554  10.281   2.003  1.3193  0.7044 -0.1933
41467SOL    HW231642   1.571  10.413   2.077  0.4308  0.3879  0.5968
41468SOL     OW31643   0.951   4.857   8.322 -0.3159  0.0226 -0.7739
41468SOL    HW131644   0.900   4.784   8.356  0.2507 -0.3559 -0.7210
41468SOL    HW231645   1.009   4.882   8.394 -0.5370  0.5638 -0.7742
41469SOL     OW31646  11.843   2.519  12.055  0.7035  0.1943 -0.2458
41469SOL    HW131647  11.812   2.544  12.142 -0.1637  0.7967 -0.7139
41469SOL    HW231648  11.936   2.501  12.067  0.5654  0.1031  0.8357
41470SOL     OW31649   5.929   0.751   8.510  0.5407 -0.0913 -0.7352
41470SOL    HW131650   5.972   0.824   8.553 -0.4627 -0.4964  1.0772
41470SOL    HW231651   5.920   0.778   8.419  0.4658  1.9103 -0.1690
41471SOL     OW31652  10.456  10.216   1.775  0.0172 -0.3367  0.0149
41471SOL    HW131653  10.509  10.290   1.746 -1.6833  0.3836 -1.4181
41471SOL    HW231654  10.507  10.139   1.750  0.3798  0.3304 -1.3798
41472SOL     OW31655  11.816   4.676   1.469  0.0463  0.6560  0.7469
41472SOL    HW131656  11.864   4.659   1.550  1.1703 -0.8843 -0.1986
41472SOL    HW231657  11.738   4.621   1.475  0.5514 -0.1172  0.4468
41473SOL     OW31658  10.122   7.979   5.581 -0.1799  0.2538  0.0857
41473SOL    HW131659  10.103   7.886   5.576  0.5320  0.0217  1.3946
41473SOL    HW231660  10.161   7.992   5.667 -3.6924  2.3953  1.5837
41474SOL     OW31661   0.611   7.380   7.819  0.4438 -0.9380  0.6279
41474SOL    HW131662   0.688   7.405   7.869 -0.4290  1.6808  0.8647
41474SOL    HW231663   0.608   7.443   7.747 -0.6158 -1.9739 -0.2804
41475SOL     OW31664   6.889  11.097   6.813  0.2276 -0.1218 -0.4101
41475SOL    HW131665   6.888  11.190   6.837  0.9592 -0.6381  1.9254
41475SOL    HW231666   6.884  11.096   6.718 -1.7972  2.2459 -0.4277
41476SOL     OW31667   7.919   7.212  10.679 -0.1210  0.7417  0.3199
41476SOL    HW131668   7.968   7.144  10.725 -2.8419  1.3409  4.6523
41476SOL    HW231669   7.983   7.282  10.665  1.7293 -0.9948 -0.4805
41477SOL     OW31670   9.974  10.708   6.781 -0.3194  0.1315  0.0244
41477SOL    HW131671   9.938  10.795   6.766  0.6024  0.6318  0.5997
41477SOL    HW231672   9.901  10.658   6.817 -0.3898  1.2062  1.4806
41478SOL     OW31673  10.522  11.416   1.581  0.5668 -0.3553 -0.3114
41478SOL    HW131674  10.501  11.323   1.581 -1.3968  0.0467 -0.2401
41478SOL    HW231675  10.580  11.428   1.656 -1.1460 -1.1517  1.2298
41479SOL     OW31676   7.775   7.525   9.199  0.9438 -0.1594 -0.2060
41479SOL    HW131677   7.839   7.533   9.269  1.3063 -1.1139 -0.4093
41479SOL    HW231678   7.826   7.500   9.122  0.4894  0.3940 -0.6930
41480SOL     OW31679   1.732   9.423   9.356 -0.2999  0.4230  0.4354
41480SOL    HW131680   1.801   9.363   9.386 -1.4347 -0.4826  1.3445
41480SOL    HW231681   1.729   9.492   9.422  1.4437  1.9317 -0.9382
41481SOL     OW31682   0.884   9.527   5.358  0.2745  0.8207 -0.1169
41481SOL    HW131683   0.892   9.593   5.289  0.9516 -0.1859 -1.0314
41481SOL    HW231684   0.973   9.516   5.391  0.6562 -1.3417 -1.6472
41482SOL     OW31685   5.617   3.262   9.450 -0.3506  0.6736  0.0950
41482SOL    HW131686   5.672   3.318   9.395  1.3117  0.8735  1.8673
41482SOL    HW231687   5.552   3.226   9.390  0.7473  1.6707 -1.7820
41483SOL     OW31688   5.290  11.192   5.396  0.2867 -0.3736  0.1717
41483SOL    HW131689   5.268  11.281   5.369 -0.7449 -0.8496 -0.6367
41483SOL    HW231690   5.334  11.153   5.321  1.3490 -0.3447  0.7650
41484SOL     OW31691   0.108   7.073   4.645  0.0899 -0.3947  0.0089
41484SOL    HW131692   0.091   7.114   4.561  1.1465 -0.9184 -0.4770
41484SOL    HW231693   0.113   6.979   4.626  1.5070 -0.4273  0.4354
41485SOL     OW31694   7.647   6.765   5.803 -0.4611 -0.6679  0.7703
41485SOL    HW131695   7.668   6.735   5.715  2.0332 -0.2140  1.1447
41485SOL    HW231696   7.557   6.798   5.796  0.3004  1.2145 -2.1185
41486SOL     OW31697   3.835  10.145   6.619 -0.5363  0.0021 -0.1252
41486SOL    HW131698   3.804  10.129   6.530 -0.2970  0.8961 -0.3814
41486SOL    HW231699   3.767  10.200   6.658 -0.2548  0.2728 -0.0151
41487SOL     OW31700   2.376   6.426  12.708  0.2083  0.1268  0.3041
41487SOL    HW131701   2.448   6.367  12.727 -0.6958 -2.0223 -2.2313
41487SOL    HW231702   2.352   6.405  12.617 -1.5526  2.9757  0.0037
41488SOL     OW31703   9.009   8.637   2.465 -0.0888  0.7065  0.5818
41488SOL    HW131704   9.020   8.728   2.436 -0.8310  0.7368  0.3896
41488SOL    HW231705   9.086   8.621   2.521  0.2404  1.3292  0.3205
41489SOL     OW31706  11.244   5.555   7.869 -0.4416  0.5980  0.4574
41489SOL    HW131707  11.291   5.492   7.923  0.2766  1.0050  0.3185
41489SOL    HW231708  11.224   5.507   7.789  0.6550  0.7117  0.0945
41490SOL     OW31709   9.104   8.590   5.335 -0.5678 -0.1762 -0.2540
41490SOL    HW131710   9.087   8.498   5.318 -0.1118 -0.7120  1.9020
41490SOL    HW231711   9.147   8.591   5.420 -2.7231  2.1804  0.9579
41491SOL     OW31712  12.321   6.483   6.432  0.1310  0.4661  0.4088
41491SOL    HW131713  12.235   6.446   6.450  0.1641  0.5824  0.8130
41491SOL    HW231714  12.305   6.548   6.363 -0.0655  0.3315  0.3256
41492SOL     OW31715   7.733   9.197   6.365 -0.1345 -0.4308  0.4859
41492SOL    HW131716   7.743   9.138   6.440  0.2233  0.5427  1.2190
41492SOL    HW231717   7.647   9.237   6.376 -0.3695 -0.7799 -0.0040
41493SOL     OW31718   6.222  12.392   9.919  0.5724 -0.2618 -0.0550
41493SOL    HW131719   6.132  12.393   9.887  0.4988 -1.9382  0.0010
41493SOL    HW231720   6.262  12.316   9.877  1.4219 -0.6117  1.3041
41494SOL     OW31721  10.054   2.588   6.581 -0.6959  0.2532 -0.4654
41494SOL    HW131722  10.056   2.610   6.488 -0.1293  0.6199 -0.3705
41494SOL    HW231723  10.146   2.586   6.607 -0.8947  1.7464  0.4566
41495SOL     OW31724   9.349  10.257   1.057  0.1145  0.7795  0.2160
41495SOL    HW131725   9.406  10.229   0.986  0.1028  0.2622  0.4048
41495SOL    HW231726   9.374  10.348   1.075  0.2648  0.8400 -0.2986
41496SOL     OW31727   2.652  10.746   0.956 -0.0619  0.0227 -0.3163
41496SOL    HW131728   2.591  10.815   0.981 -1.3910 -1.3950  0.5145
41496SOL    HW231729   2.605  10.664   0.974  1.2985 -1.1135 -1.6341
41497SOL     OW31730  10.632  10.024   8.396  0.1277  0.2702  0.4446
41497SOL    HW131731  10.713  10.074   8.402 -0.5956  1.4856  0.3550
41497SOL    HW231732  10.616  10.017   8.302 -0.0930  0.4154  0.4700
41498SOL     OW31733   9.999   1.602   7.518  0.1135 -0.0182 -0.6361
41498SOL    HW131734   9.952   1.663   7.460  0.3724  0.3913 -0.4183
41498SOL    HW231735  10.050   1.547   7.458  1.9923  1.7300 -0.7537
41499SOL     OW31736   5.238   2.232   1.836  0.0870  0.2075 -0.2745
41499SOL    HW131737   5.330   2.228   1.861 -0.1768 -0.7553  0.6628
41499SOL    HW231738   5.207   2.315   1.873  0.0124 -0.6106  1.6182
41500SOL     OW31739   3.217   6.954  12.561  0.2972 -0.2591 -0.2268
41500SOL    HW131740   3.143   6.897  12.585 -0.5642  0.1198 -1.8688
41500SOL    HW231741   3.213   7.025  12.625  0.1180 -0.9633  0.5713
41501SOL     OW31742   0.208   0.870  10.141 -0.2413 -0.5829 -0.3684
41501SOL    HW131743   0.154   0.810  10.192  1.1107 -0.6773  1.0013
41501SOL    HW231744   0.291   0.825  10.129 -0.4350 -0.4932 -2.5656
41502SOL     OW31745   1.106  11.895   8.306  0.4928 -0.0632 -0.8666
41502SOL    HW131746   1.029  11.949   8.291 -0.5055 -0.2412  2.7705
41502SOL    HW231747   1.113  11.840   8.228 -2.7451  0.3351 -1.5556
41503SOL     OW31748   4.577  10.417   0.109  0.0485  0.1834  0.3230
41503SOL    HW131749   4.582  10.339   0.054 -2.3581  0.9856 -1.1464
41503SOL    HW231750   4.518  10.392   0.180  1.7038 -0.2466  1.6300
41504SOL     OW31751   9.984  11.138   7.312 -0.0307 -0.0327  0.0902
41504SOL    HW131752  10.008  11.165   7.224 -1.4475  1.1747  0.0438
41504SOL    HW231753  10.064  11.097   7.347  0.8460  0.3480 -1.3789
41505SOL     OW31754   9.820   4.226   8.120  0.0441 -0.0879 -0.4296
41505SOL    HW131755   9.841   4.137   8.091  1.4353 -0.3128  1.0792
41505SOL    HW231756   9.733   4.218   8.158 -0.9390 -0.2052 -2.5749
41506SOL     OW31757   4.739   1.442   1.705 -0.4316  0.2211  0.9815
41506SOL    HW131758   4.680   1.373   1.734  0.2225 -1.1044 -0.6266
41506SOL    HW231759   4.827   1.405   1.718 -0.0878  0.5171 -0.3601
41507SOL     OW31760   6.182   0.481   8.884  0.4176  0.3399 -0.0929
41507SOL    HW131761   6.240   0.554   8.907  2.1943 -1.0455  0.0284
41507SOL    HW231762   6.218   0.447   8.802  0.9134 -1.6636  0.8987
41508SOL     OW31763   4.086   9.476  12.456 -0.4313 -0.0233 -0.4445
41508SOL    HW131764   4.103   9.447  12.367  1.6133 -0.7998  0.1579
41508SOL    HW231765   4.005   9.432  12.481 -0.4094 -0.6934 -1.5153
41509SOL     OW31766   4.695  12.248   0.715 -0.1570 -0.1776  0.8078
41509SOL    HW131767   4.743  12.199   0.782  0.1455 -1.9410 -0.5921
41509SOL    HW231768   4.656  12.180   0.660 -2.6905  1.1986  0.7526
41510SOL     OW31769   6.763   4.725   8.348 -0.2746  0.1045  0.3562
41510SOL    HW131770   6.722   4.785   8.286  0.5590  2.0213  1.5867
41510SOL    HW231771   6.853   4.757   8.357  0.7451 -2.3635 -0.1947
41511SOL     OW31772   8.091   3.563  11.330  0.0110  0.0656 -0.6138
41511SOL    HW131773   8.069   3.501  11.260 -0.5649 -0.5285  0.0730
41511SOL    HW231774   8.068   3.517  11.410  0.8623  0.6616 -0.0205
41512SOL     OW31775   7.757   3.008   5.049  0.2391 -0.4767  0.3593
41512SOL    HW131776   7.781   3.049   4.966 -0.6620  0.5827  0.5973
41512SOL    HW231777   7.686   3.062   5.083  0.1913 -1.2394  1.5431
41513SOL     OW31778   5.903  11.189   9.710 -0.6108 -0.0699 -0.9072
41513SOL    HW131779   5.957  11.214   9.636 -1.3349 -0.0531 -1.4451
41513SOL    HW231780   5.814  11.184   9.674 -0.7911 -1.3492 -0.3488
41514SOL     OW31781  12.160   2.324  12.481 -0.5327 -0.0745  0.4874
41514SOL    HW131782  12.191   2.402  12.526  1.5460 -1.4831  1.6616
41514SOL    HW231783  12.240   2.276  12.459 -1.7553 -2.3708  0.7677
41515SOL     OW31784   2.696   6.414   0.957  0.3282 -0.5603 -0.2463
41515SOL    HW131785   2.640   6.336   0.956  0.3642 -0.5885 -0.9434
41515SOL    HW231786   2.664   6.466   1.031  0.3827 -1.2895  0.3020
41516SOL     OW31787   9.742  10.103   9.886 -0.1371  0.0373  0.1217
41516SOL    HW131788   9.743  10.134   9.976 -0.5308  0.7575 -0.1093
41516SOL    HW231789   9.824  10.135   9.849 -1.0502  1.9297 -0.4496
41517SOL     OW31790   0.555   5.356  10.538  0.0788 -0.0260  0.0533
41517SOL    HW131791   0.474   5.405  10.525 -2.6417 -3.9210  0.5127
41517SOL    HW231792   0.548   5.323  10.627  0.4766 -3.0468 -0.9237
41518SOL     OW31793   2.241  10.124   8.244 -0.0223 -0.3001 -0.5530
41518SOL    HW131794   2.189  10.151   8.320  0.4624  0.4599 -0.4842
41518SOL    HW231795   2.187  10.146   8.169 -0.7540 -1.5811 -0.4346
41519SOL     OW31796  10.793   4.270   8.908 -0.6237 -0.8126  0.0872
41519SOL    HW131797  10.791   4.290   9.001 -1.8961 -2.0096  0.3518
41519SOL    HW231798  10.740   4.190   8.899 -0.1074 -1.0109 -1.5847
41520SOL     OW31799   8.414   5.366   6.498 -0.3983  0.3613 -0.2426
41520SOL    HW131800   8.441   5.304   6.430 -2.0913  1.3513 -1.9011
41520SOL    HW231801   8.319   5.357   6.501 -0.4033  0.7336  1.6624
41521SOL     OW31802  11.032   8.331  10.076  0.3909  0.4176 -0.3212
41521SOL    HW131803  11.108   8.348  10.021  0.1092  0.0317 -0.8389
41521SOL    HW231804  11.042   8.240  10.104 -0.3663  0.0415 -1.1986
41522SOL     OW31805   3.605   2.214   6.074  0.2095  0.0420 -0.3465
41522SOL    HW131806   3.696   2.229   6.049  0.1788 -1.2036 -1.2966
41522SOL    HW231807   3.557   2.286   6.034  0.8086  0.8728  0.4110
41523SOL     OW31808   4.821  10.931  10.667 -0.3270  0.1901 -0.0984
41523SOL    HW131809   4.776  10.859  10.624 -0.9892 -0.9856  2.3939
41523SOL    HW231810   4.756  11.001  10.672 -0.1126  0.5006 -1.2872
41524SOL     OW31811   8.755   7.737   9.316 -0.3301 -0.3668  0.0252
41524SOL    HW131812   8.760   7.642   9.329 -0.5918 -0.3350  0.3544
41524SOL    HW231813   8.737   7.773   9.403 -0.9495 -0.0687 -0.2158
41525SOL     OW31814   4.986   2.288  12.640 -0.3503 -0.5791  0.8104
41525SOL    HW131815   4.957   2.347  12.709  0.0962 -1.3144  1.6571
41525SOL    HW231816   5.003   2.344  12.565  0.1521  0.3687  1.6201
41526SOL     OW31817   2.734   2.948   2.404 -0.1866  0.1712 -0.5983
41526SOL    HW131818   2.688   2.867   2.426  0.5214 -0.0168  0.2623
41526SOL    HW231819   2.688   3.016   2.453  0.5814 -0.0575  0.4909
41527SOL     OW31820   8.639   7.078  12.265  0.1839 -0.4157  0.0933
41527SOL    HW131821   8.723   7.084  12.220 -0.5166  2.3041 -1.0643
41527SOL    HW231822   8.573   7.083  12.195 -0.9351 -0.3068  1.1191
41528SOL     OW31823   5.909   4.520   8.883  0.5127 -0.8312  0.2071
41528SOL    HW131824   5.819   4.548   8.903  0.7096 -0.4990  0.6512
41528SOL    HW231825   5.911   4.428   8.910  0.4070 -0.7391  0.5408
41529SOL     OW31826   0.038   4.673   0.415  0.1178  0.6006 -0.4260
41529SOL    HW131827   0.089   4.606   0.370 -0.0381  0.7825 -0.8887
41529SOL    HW231828  -0.003   4.628   0.488  0.7268  0.3938 -0.2018
41530SOL     OW31829   7.463  11.170   8.460  0.5763 -0.1807 -0.3341
41530SOL    HW131830   7.467  11.198   8.552  0.6703 -0.6109 -0.2098
41530SOL    HW231831   7.382  11.119   8.454 -0.0819  0.8514 -0.7704
41531SOL     OW31832   7.442  11.636   5.366 -0.1967 -0.4167  0.3998
41531SOL    HW131833   7.487  11.699   5.309 -0.3009  0.2752  1.0644
41531SOL    HW231834   7.502  11.624   5.440 -0.3958 -0.7173  0.5128
41532SOL     OW31835   6.307   9.896   6.044  0.8130  0.3600  0.4717
41532SOL    HW131836   6.257   9.975   6.024  1.3238  0.7510  0.6913
41532SOL    HW231837   6.287   9.878   6.136 -0.4269 -0.6135  0.0402
41533SOL     OW31838  12.655   7.060   7.916  0.4888 -0.3655 -0.2789
41533SOL    HW131839  12.666   6.970   7.948  1.4134 -0.0276  0.3969
41533SOL    HW231840  12.657   7.051   7.820  1.8814 -0.9436 -0.2256
41534SOL     OW31841   8.834   8.276   0.120 -0.5264  0.2260  0.0304
41534SOL    HW131842   8.799   8.227   0.046 -1.9726 -0.1522  0.9255
41534SOL    HW231843   8.837   8.212   0.192 -2.3733  1.3593  1.1991
41535SOL     OW31844  12.586   7.604  12.706  0.2779  0.2582  0.0380
41535SOL    HW131845  12.534   7.565  12.775 -0.6823  0.4143 -0.5797
41535SOL    HW231846  12.592   7.697  12.729 -1.8137  0.7516 -1.0943
41536SOL     OW31847  12.014   4.189  10.074  0.0207 -0.6442  0.2406
41536SOL    HW131848  12.006   4.278  10.111 -0.7065 -0.3984 -0.4872
41536SOL    HW231849  11.925   4.168  10.045  0.2597 -1.4925  0.1220
41537SOL     OW31850   9.853   2.946   8.177 -0.2259 -0.5472  0.1456
41537SOL    HW131851   9.899   2.893   8.111 -0.6395 -0.9071  0.1378
41537SOL    HW231852   9.846   3.033   8.138 -1.7233 -1.1034 -0.9166
41538SOL     OW31853   3.613   1.087   7.615  0.7119 -0.5324 -0.1992
41538SOL    HW131854   3.532   1.059   7.573 -0.6021  1.2158  0.9612
41538SOL    HW231855   3.677   1.092   7.544 -1.3093  2.0214 -2.0567
41539SOL     OW31856   1.992   3.498   9.050 -0.2762 -0.2659 -0.1211
41539SOL    HW131857   1.907   3.456   9.056  0.1066 -0.9088  1.2416
41539SOL    HW231858   1.977   3.575   8.994 -1.9661  0.1701  0.8488
41540SOL     OW31859  10.274   1.851  12.487  0.4180  0.2940 -0.1106
41540SOL    HW131860  10.235   1.927  12.444  1.7492  0.2868 -1.4139
41540SOL    HW231861  10.323   1.887  12.561 -1.4707  0.3578  1.1847
41541SOL     OW31862   4.263   5.569   9.904  0.3156 -0.2548 -0.0663
41541SOL    HW131863   4.179   5.614   9.896  0.6901  0.3126 -0.9891
41541SOL    HW231864   4.248   5.501   9.969 -0.9824 -0.4363 -0.5342
41542SOL     OW31865  12.200   9.000   8.866  0.5872  0.0341  0.1172
41542SOL    HW131866  12.120   8.956   8.896  0.7169  0.9931  2.0347
41542SOL    HW231867  12.170   9.060   8.798 -0.3556  0.3887  0.8201
41543SOL     OW31868   4.542  12.234  10.142  0.2130  0.0641 -0.0746
41543SOL    HW131869   4.452  12.208  10.121 -0.1434  0.5733  0.8032
41543SOL    HW231870   4.533  12.315  10.191  1.1825  0.3433 -0.3432
41544SOL     OW31871   9.929   7.122   2.334 -0.2626  0.1494  0.0864
41544SOL    HW131872   9.950   7.122   2.428 -1.4263  0.2262  0.3664
41544SOL    HW231873   9.905   7.032   2.315 -0.2586  0.1823 -0.0757
41545SOL     OW31874   9.298   3.096  12.308  0.6029 -0.1331  0.2246
41545SOL    HW131875   9.224   3.111  12.366  0.8395 -0.0313  0.5045
41545SOL    HW231876   9.356   3.171  12.324 -0.1656  0.8924 -1.4792
41546SOL     OW31877   3.351  12.451   6.510  0.0308  0.0824  0.2518
41546SOL    HW131878   3.446  12.446   6.504  0.0209 -0.2350  0.3650
41546SOL    HW231879   3.322  12.464   6.420  0.1815  0.2139  0.2213
41547SOL     OW31880  12.272   3.986  11.239 -0.6782  0.5743 -0.3409
41547SOL    HW131881  12.207   4.023  11.180 -1.1931 -0.8330 -0.6764
41547SOL    HW231882  12.233   3.996  11.326 -0.4151  1.6078 -0.3255
41548SOL     OW31883  10.662   7.476   5.912  0.3348  0.0273 -0.5339
41548SOL    HW131884  10.675   7.458   5.819 -1.8804 -0.6861 -0.7487
41548SOL    HW231885  10.654   7.571   5.917 -1.4570 -0.0448 -1.3868
41549SOL     OW31886   7.625  12.311   5.612 -0.3589 -0.2387  0.7212
41549SOL    HW131887   7.708  12.326   5.657 -0.3728  0.8339  0.4337
41549SOL    HW231888   7.630  12.368   5.535  0.1062 -2.7796 -1.2546
41550SOL     OW31889   0.595   2.726  12.040 -0.2903 -0.7626 -0.0415
41550SOL    HW131890   0.652   2.791  12.000 -0.5695 -0.2855  0.3301
41550SOL    HW231891   0.655   2.662  12.078 -0.0145 -0.6690 -0.3182
41551SOL     OW31892  11.508   0.727   9.115  0.2845  0.1905  0.4091
41551SOL    HW131893  11.579   0.753   9.056 -0.5199  1.1959 -0.1626
41551SOL    HW231894  11.473   0.810   9.148 -0.2444 -0.3098  1.1318
41552SOL     OW31895  10.066   2.621  12.652  0.2181  0.0726  0.2633
41552SOL    HW131896  10.137   2.589  12.595  1.7315  1.9412  0.9963
41552SOL    HW231897   9.997   2.647  12.591  1.1407  0.5096 -0.6316
41553SOL     OW31898  11.870   0.087   7.661 -0.4921 -0.4599  0.1577
41553SOL    HW131899  11.904   0.168   7.698 -0.8673 -0.7378  1.1592
41553SOL    HW231900  11.945   0.028   7.657 -0.3577 -0.2826  0.0626
41554SOL     OW31901   3.675   4.873   8.484  0.0454 -0.1221  0.0246
41554SOL    HW131902   3.759   4.830   8.501  0.3014 -0.7388 -2.4116
41554SOL    HW231903   3.611   4.823   8.535  0.8509 -1.0415  0.1573
41555SOL     OW31904   7.321   9.536   8.437 -0.1686 -0.2271  0.0627
41555SOL    HW131905   7.228   9.525   8.459 -0.4708 -0.8485 -1.4449
41555SOL    HW231906   7.340   9.628   8.459 -1.0100 -0.2121  0.7882
41556SOL     OW31907   0.484   4.084  10.100  0.0550 -0.0866 -0.1781
41556SOL    HW131908   0.471   4.132  10.018  1.7218 -0.9703 -1.0184
41556SOL    HW231909   0.435   4.003  10.088  0.9279 -0.5609 -0.6576
41557SOL     OW31910   7.572  11.369   7.733  0.1404 -0.3499 -0.0180
41557SOL    HW131911   7.601  11.282   7.762 -0.3872 -0.9486 -1.1822
41557SOL    HW231912   7.488  11.352   7.689  0.4368  0.6197 -0.9868
41558SOL     OW31913  12.394   1.912   2.625 -0.6374  0.2451  0.3082
41558SOL    HW131914  12.300   1.910   2.644 -1.4616 -0.7504 -3.1194
41558SOL    HW231915  12.407   1.995   2.580 -0.7186 -1.0449 -2.2924
41559SOL     OW31916   1.509   9.558   3.300 -0.3026 -0.6599  0.3196
41559SOL    HW131917   1.562   9.506   3.240  0.7792  0.0019  0.6756
41559SOL    HW231918   1.428   9.575   3.252 -0.1360 -1.5287 -0.3059
41560SOL     OW31919   1.753   6.853   3.048  0.2035  0.4407  0.2413
41560SOL    HW131920   1.821   6.920   3.059 -1.2021  1.8678  0.7820
41560SOL    HW231921   1.736   6.821   3.137  0.7209 -0.4848  0.0081
41561SOL     OW31922   8.944   0.307  12.430  0.2829  0.5338 -0.1536
41561SOL    HW131923   8.962   0.377  12.492 -0.1619  2.1170 -1.7139
41561SOL    HW231924   8.855   0.323  12.399 -1.6842 -3.3720  2.6391
41562SOL     OW31925  10.754   1.881   3.534  0.0133  0.4366  0.8167
41562SOL    HW131926  10.679   1.940   3.547  0.3280  0.7127  1.4289
41562SOL    HW231927  10.719   1.794   3.553 -0.5961  0.3442 -0.6350
41563SOL     OW31928   5.141   6.848   5.765  0.0844 -0.1427  0.0104
41563SOL    HW131929   5.053   6.887   5.757 -0.1996 -0.7734  0.0192
41563SOL    HW231930   5.141   6.810   5.853 -0.4250 -2.0632 -0.7847
41564SOL     OW31931  10.614   5.166   5.465  0.6261  0.0379 -0.4689
41564SOL    HW131932  10.672   5.239   5.488  1.1625  0.3893 -2.6743
41564SOL    HW231933  10.672   5.091   5.455  0.4340 -0.0810 -0.7128
41565SOL     OW31934   0.689  12.702  10.612  0.6101 -0.0666 -0.5950
41565SOL    HW131935   0.621  12.713  10.546  0.4790 -1.7966 -0.7773
41565SOL    HW231936   0.645  12.661  10.686  0.8812  1.3324  0.4014
41566SOL     OW31937   4.535  11.819   0.032 -0.7286 -0.4917 -0.2499
41566SOL    HW131938   4.473  11.785   0.096 -0.2676 -2.0393 -0.5983
41566SOL    HW231939   4.607  11.854   0.085 -0.6361 -1.1951  0.0968
41567SOL     OW31940  10.802   0.789   2.113  0.2481 -0.0039 -0.1194
41567SOL    HW131941  10.736   0.839   2.065 -0.3393  0.9808  1.5857
41567SOL    HW231942  10.882   0.801   2.063 -0.7291 -0.8278 -1.9801
41568SOL     OW31943  10.030  10.035  11.329  0.2131 -0.4991 -0.5570
41568SOL    HW131944  10.054  10.025  11.237  2.4071  2.6442 -0.4776
41568SOL    HW231945   9.956  10.096  11.329  1.0316  0.5287 -0.2474
41569SOL     OW31946  12.457   7.545   4.945  0.0389 -0.4725  0.4669
41569SOL    HW131947  12.521   7.593   4.998 -0.3531 -1.5456  1.9621
41569SOL    HW231948  12.416   7.484   5.006 -1.3049 -0.9075 -0.8229
41570SOL     OW31949   7.930   8.309   8.260  0.3327  0.4000 -0.3427
41570SOL    HW131950   8.013   8.261   8.255  0.4281  0.6298 -1.0878
41570SOL    HW231951   7.937   8.375   8.191  0.5456  2.0402  1.1726
41571SOL     OW31952  10.592   9.198   5.872 -0.6445  0.1842 -0.3465
41571SOL    HW131953  10.561   9.148   5.796 -2.3679  1.1469 -0.3434
41571SOL    HW231954  10.686   9.184   5.873 -0.8332 -1.4584 -1.4844
41572SOL     OW31955   1.754   9.272   8.541 -0.0324 -0.0233 -0.3675
41572SOL    HW131956   1.711   9.216   8.606 -0.2071  1.3452  0.7374
41572SOL    HW231957   1.746   9.360   8.576  1.3847  0.5715 -1.4310
41573SOL     OW31958  11.324   9.772   4.138  0.1113 -0.2123 -0.0556
41573SOL    HW131959  11.308   9.827   4.215  0.4504 -0.4927  0.2188
41573SOL    HW231960  11.247   9.716   4.133 -0.4409  0.5647 -0.5886
41574SOL     OW31961  11.975   0.215   0.619  0.4138  0.6880 -0.2379
41574SOL    HW131962  11.960   0.156   0.545  1.8889 -0.2905  0.1933
41574SOL    HW231963  12.032   0.283   0.584  0.7609  0.4593 -0.1295
41575SOL     OW31964  10.108   6.864   7.461  0.6156  0.0293  0.0547
41575SOL    HW131965  10.135   6.899   7.376  0.2399 -0.7757 -0.4122
41575SOL    HW231966  10.012   6.867   7.458  0.6096  1.2291  0.9904
41576SOL     OW31967   1.198   9.190   4.231  0.0847  0.2065 -0.2592
41576SOL    HW131968   1.195   9.122   4.163  0.1733  0.0706 -0.1260
41576SOL    HW231969   1.148   9.154   4.304  0.3993  0.1547 -0.0695
41577SOL     OW31970   6.276  11.537   6.425  0.1262  0.2879 -0.8455
41577SOL    HW131971   6.350  11.596   6.407 -0.1279  1.4416  1.4554
41577SOL    HW231972   6.199  11.584   6.391  0.0433  0.8572  0.0949
41578SOL     OW31973  11.665  12.439   7.741  0.4196  0.4318  0.0917
41578SOL    HW131974  11.740  12.485   7.779  1.9569 -1.2239 -0.7866
41578SOL    HW231975  11.622  12.397   7.816  0.9923  0.5407  0.4840
41579SOL     OW31976   5.226   0.566  11.135 -0.4317  0.5272 -0.6941
41579SOL    HW131977   5.302   0.607  11.177  0.8551 -1.7397 -0.6607
41579SOL    HW231978   5.158   0.565  11.202  0.7702 -0.7587  0.5740
41580SOL     OW31979   5.857   8.181   0.971 -0.4472 -0.3043  0.0398
41580SOL    HW131980   5.891   8.095   0.946  0.5435  0.0422  0.1599
41580SOL    HW231981   5.770   8.163   1.005  0.0870 -1.3708  0.8965
41581SOL     OW31982  12.220   6.711   9.186  0.2984 -0.4532  0.0865
41581SOL    HW131983  12.246   6.778   9.250 -0.0463 -1.2738  1.1091
41581SOL    HW231984  12.269   6.734   9.107  0.5820  0.7022  0.5742
41582SOL     OW31985  11.209   4.818   3.200  0.3698 -0.4941 -0.0726
41582SOL    HW131986  11.212   4.852   3.110  2.6661  1.1228  0.5414
41582SOL    HW231987  11.125   4.849   3.234 -0.1473 -0.3818 -1.3727
41583SOL     OW31988   1.564   9.552   2.030 -0.5795  0.0968  0.3291
41583SOL    HW131989   1.570   9.484   1.963  0.8184  0.6537 -0.1484
41583SOL    HW231990   1.484   9.599   2.009 -1.1951 -0.9651  0.2474
41584SOL     OW31991   4.796   2.337   7.504 -0.6488  0.1229  0.6596
41584SOL    HW131992   4.773   2.248   7.530 -0.3889 -0.0879  0.1730
41584SOL    HW231993   4.844   2.327   7.423  1.1323  0.5629  1.6044
41585SOL     OW31994   3.401  10.200   8.904 -0.1044  0.4067 -0.8670
41585SOL    HW131995   3.477  10.146   8.887 -0.6229 -1.5816  2.3485
41585SOL    HW231996   3.437  10.285   8.930  1.0664 -0.4236  0.3749
41586SOL     OW31997   4.941   4.964   1.373  0.1523 -0.1514 -0.1489
41586SOL    HW131998   4.977   4.955   1.462 -0.5027 -0.5132  0.0837
41586SOL    HW231999   4.957   4.879   1.332 -0.6778 -0.4138  0.0513
41587SOL     OW32000  10.015   6.871  10.158 -0.3780  0.3578  0.2325
41587SOL    HW132001   9.942   6.916  10.115  0.5192  1.4472 -0.1869
41587SOL    HW232002   9.996   6.881  10.252 -1.3342 -0.3412  0.1277
41588SOL     OW32003   8.092  10.337   3.008  0.3944 -0.0835  0.1279
41588SOL    HW132004   8.139  10.274   2.954  0.3386 -0.7632  0.8629
41588SOL    HW232005   8.063  10.405   2.947 -0.8647 -1.5249 -0.9356
41589SOL     OW32006   0.725   9.105  12.345 -0.4230  0.4237 -0.0062
41589SOL    HW132007   0.764   9.021  12.323  0.0509  1.2009 -2.4687
41589SOL    HW232008   0.797   9.155  12.384 -0.5881 -0.1281  1.0381
41590SOL     OW32009   3.952   7.980   1.888  0.1120  0.2911  0.2029
41590SOL    HW132010   3.924   7.960   1.799  0.9796 -0.4746  0.0933
41590SOL    HW232011   3.954   7.896   1.933 -0.6815  0.7109  1.0699
41591SOL     OW32012   1.015  10.477  11.159 -0.0483 -0.1743  0.2664
41591SOL    HW132013   1.010  10.411  11.228 -1.9528 -1.5514 -1.0605
41591SOL    HW232014   0.935  10.464  11.108  0.5665  1.7628 -1.3306
41592SOL     OW32015  11.223   1.504   2.287  0.1369 -0.0501  0.4247
41592SOL    HW132016  11.266   1.560   2.222 -0.1419  0.3461  0.5814
41592SOL    HW232017  11.137   1.543   2.300 -0.5611 -1.2672 -0.4279
41593SOL     OW32018   2.321   6.396   1.247 -0.0325 -0.0585 -0.6027
41593SOL    HW132019   2.271   6.418   1.325  1.4588 -1.5673  0.8729
41593SOL    HW232020   2.283   6.314   1.216  0.1252 -0.0636 -0.7838
41594SOL     OW32021   6.598   0.341   0.453  0.5568 -0.1678  0.0320
41594SOL    HW132022   6.535   0.363   0.521  1.1691 -0.0260  0.5677
41594SOL    HW232023   6.576   0.398   0.379 -1.4283 -1.7391 -0.7063
41595SOL     OW32024   4.044   2.448  10.294  0.7107  0.1115  0.0903
41595SOL    HW132025   3.994   2.508  10.239  1.4585  0.9262  0.2688
41595SOL    HW232026   4.009   2.460  10.382  1.2185  0.6889  0.2170
41596SOL     OW32027  11.507   6.104   8.241 -0.3674  0.4457  0.1879
41596SOL    HW132028  11.473   6.015   8.256 -0.8028  0.6022  0.1352
41596SOL    HW232029  11.548   6.100   8.155  0.5767  0.0106  0.6325
41597SOL     OW32030   6.281  10.339   6.768 -0.3557 -0.0895 -0.0666
41597SOL    HW132031   6.201  10.322   6.718 -1.3863  0.8220  1.2007
41597SOL    HW232032   6.330  10.257   6.762 -0.2170  0.1135 -2.8673
41598SOL     OW32033   9.136   9.900   1.734  0.2452  0.0141  0.2398
41598SOL    HW132034   9.194   9.932   1.665 -0.8553  0.8464 -0.3285
41598SOL    HW232035   9.073   9.970   1.746 -0.4339 -0.7250  1.1003
41599SOL     OW32036  10.665   3.553   2.829  0.0460 -0.0760  0.2402
41599SOL    HW132037  10.588   3.532   2.777 -1.3760  0.7462  1.9244
41599SOL    HW232038  10.727   3.590   2.767 -1.0083 -0.4987 -1.0997
41600SOL     OW32039  10.009   6.201  12.150 -0.1747 -0.3319 -0.4557
41600SOL    HW132040  10.072   6.180  12.219 -0.3606 -2.0637 -0.7761
41600SOL    HW232041  10.063   6.208  12.071  0.1345  2.3167 -0.1078
41601SOL     OW32042  11.156   3.683   7.046 -0.3720 -0.0656 -0.0760
41601SOL    HW132043  11.127   3.592   7.041 -0.8673 -0.0522  1.6839
41601SOL    HW232044  11.110   3.719   7.122  1.0209  1.1989  0.2371
41602SOL     OW32045   1.862   3.700   0.178  0.2670  0.2932  0.5721
41602SOL    HW132046   1.892   3.697   0.269  0.5983  1.0194  0.4971
41602SOL    HW232047   1.880   3.790   0.150 -2.4738  0.9873  0.6985
41603SOL     OW32048   4.601  10.790   9.007 -0.3759  0.3361 -0.2375
41603SOL    HW132049   4.547  10.858   9.047 -0.0417  1.9712 -2.3629
41603SOL    HW232050   4.646  10.835   8.935  2.0197 -1.5133 -0.0006
41604SOL     OW32051   9.993   1.127   7.084  0.3792  0.7202  0.2798
41604SOL    HW132052   9.967   1.144   7.175 -1.3723 -0.5398  0.0723
41604SOL    HW232053  10.030   1.039   7.087 -0.7927  0.1809 -0.3881
41605SOL     OW32054  10.450   7.971   1.173 -0.3342 -0.6928 -0.0825
41605SOL    HW132055  10.470   7.911   1.244 -2.2732 -2.0971 -0.6362
41605SOL    HW232056  10.422   8.052   1.216 -0.3288 -1.1119  0.7216
41606SOL     OW32057   1.387  11.589   5.373  0.1171  0.7380 -0.5003
41606SOL    HW132058   1.324  11.536   5.421 -0.7659 -0.6078 -2.9572
41606SOL    HW232059   1.370  11.679   5.401 -1.8133  0.2414  0.0651
41607SOL     OW32060   1.275   5.002   4.270 -0.3142  0.1399 -0.3630
41607SOL    HW132061   1.348   5.036   4.219 -0.1755  0.8086  0.2657
41607SOL    HW232062   1.301   5.015   4.361 -0.9997 -0.0810 -0.1295
41608SOL     OW32063   4.698   0.065   1.445 -0.6672 -0.3941 -1.0393
41608SOL    HW132064   4.694   0.090   1.353  0.3355  0.0734 -0.9713
41608SOL    HW232065   4.791   0.050   1.461 -0.2467  3.0540  0.7786
41609SOL     OW32066   7.805   0.330   1.449  0.0371  0.5038  0.2701
41609SOL    HW132067   7.741   0.401   1.445  1.4836  1.8443 -0.2012
41609SOL    HW232068   7.752   0.250   1.448 -1.6659  1.5510  1.0741
41610SOL     OW32069   2.663   1.167  10.675  0.0930 -0.3122 -0.0682
41610SOL    HW132070   2.606   1.107  10.626  0.9405 -0.3112 -1.0953
41610SOL    HW232071   2.684   1.120  10.755 -1.2981 -0.3315  0.3176
41611SOL     OW32072   5.722  11.119   4.833 -0.2357  0.0726 -0.1074
41611SOL    HW132073   5.771  11.098   4.913 -1.5473 -1.2784  0.3774
41611SOL    HW232074   5.782  11.097   4.762  0.2421 -0.5573  0.4721
41612SOL     OW32075   4.007   6.084   7.159 -0.3338 -0.1148 -0.2314
41612SOL    HW132076   3.999   6.042   7.074  0.1814  1.7615 -1.2481
41612SOL    HW232077   3.924   6.130   7.171 -0.7933 -1.1475  0.7560
41613SOL     OW32078  11.769   3.080   2.316  0.2570  0.1880 -0.0138
41613SOL    HW132079  11.829   3.136   2.266  0.8335 -0.0244  0.4351
41613SOL    HW232080  11.822   3.043   2.386 -0.4067  0.0192  0.4160
41614SOL     OW32081   2.651   0.596  11.715 -0.4030 -0.3375  0.1165
41614SOL    HW132082   2.604   0.541  11.778 -1.8778 -1.2784 -1.6977
41614SOL    HW232083   2.722   0.540  11.683 -1.2963 -0.9073 -0.9829
41615SOL     OW32084  10.740   2.020   3.877  0.8659  0.3506 -0.2291
41615SOL    HW132085  10.749   1.925   3.884 -0.3390  0.0726 -1.8336
41615SOL    HW232086  10.646   2.036   3.889  0.5609  0.9812 -2.8040
41616SOL     OW32087   3.285  11.811   8.176  0.2703  0.8393  0.1735
41616SOL    HW132088   3.257  11.852   8.257 -3.2387  1.0373 -0.9763
41616SOL    HW232089   3.278  11.717   8.193 -0.1227  0.8738  0.2001
41617SOL     OW32090  12.552   3.615   5.543 -0.5132  0.1941  0.1232
41617SOL    HW132091  12.583   3.525   5.529  0.6273  0.2197  2.0313
41617SOL    HW232092  12.482   3.605   5.607 -0.1637  0.6744  0.5848
41618SOL     OW32093   7.364   3.307   7.364  0.0136  0.2177 -0.0171
41618SOL    HW132094   7.351   3.232   7.422  1.5593 -1.2709 -1.4690
41618SOL    HW232095   7.393   3.378   7.421 -1.5059 -0.2453  1.3992
41619SOL     OW32096   3.773   0.017  10.412 -0.5000  0.4941 -0.3404
41619SOL    HW132097   3.730  -0.039  10.477  0.9433  0.0784  0.2961
41619SOL    HW232098   3.838  -0.040  10.372 -0.5104  1.1191 -1.2648
41620SOL     OW32099   4.673   6.446   4.000  0.1150 -0.0103 -0.1181
41620SOL    HW132100   4.708   6.532   3.976  3.2089 -1.2653 -0.4986
41620SOL    HW232101   4.692   6.390   3.926 -0.4788 -1.3798  0.7250
41621SOL     OW32102   0.742   0.110   5.837 -0.1613  0.0795 -0.0188
41621SOL    HW132103   0.673   0.048   5.813 -0.2098 -0.4148  1.3499
41621SOL    HW232104   0.824   0.062   5.821 -0.1281  0.3736 -0.8270
41622SOL     OW32105   5.588  11.246   2.597  0.3012  0.0484 -0.1020
41622SOL    HW132106   5.534  11.323   2.578 -0.2091 -0.6111 -1.4625
41622SOL    HW232107   5.531  11.190   2.650  0.5578  0.4259  0.6014
41623SOL     OW32108  12.650   1.059   6.297 -0.2210  0.3279 -0.1763
41623SOL    HW132109  12.628   1.098   6.212 -0.1836  0.8165  0.0351
41623SOL    HW232110  12.742   1.034   6.288 -0.4927 -0.5667 -0.6271
41624SOL     OW32111   1.188   5.419  11.819  0.3791 -0.0639  0.5688
41624SOL    HW132112   1.271   5.373  11.802  1.0209  0.4920  2.0055
41624SOL    HW232113   1.157   5.444  11.733  0.7883 -1.8416 -0.1416
41625SOL     OW32114  12.151   4.523  12.285  0.5682 -0.1661  0.2791
41625SOL    HW132115  12.152   4.441  12.335 -1.7024 -1.3969 -1.5168
41625SOL    HW232116  12.189   4.500  12.200 -0.1585  0.6053 -0.2702
41626SOL     OW32117   3.284   1.731   7.148 -0.3459  0.4341  0.3241
41626SOL    HW132118   3.209   1.777   7.111  0.1983  1.1225  0.0521
41626SOL    HW232119   3.351   1.734   7.079 -0.1546 -0.4056  0.4611
41627SOL     OW32120  11.590   0.188   2.274  0.1766  0.3706  0.5106
41627SOL    HW132121  11.587   0.273   2.230  0.9590  0.2401  0.1746
41627SOL    HW232122  11.648   0.203   2.349 -0.3449  0.3385  0.9200
41628SOL     OW32123   6.028   5.060   1.455  0.2538  0.6157 -0.2991
41628SOL    HW132124   6.104   5.003   1.457 -0.4121 -0.3364 -1.2152
41628SOL    HW232125   6.064   5.148   1.440  1.2371  0.3727  0.5439
41629SOL     OW32126   8.875   3.847   2.465 -0.0447 -0.4657 -0.3115
41629SOL    HW132127   8.924   3.913   2.416  0.8642 -0.9059 -0.0080
41629SOL    HW232128   8.819   3.899   2.523  1.0429  0.0517  0.3032
41630SOL     OW32129  12.050   5.168   2.739 -0.4603  0.1656 -0.5809
41630SOL    HW132130  11.991   5.113   2.791  0.4121 -0.5023 -0.2638
41630SOL    HW232131  12.096   5.222   2.803 -0.3445  0.3051 -0.7803
41631SOL     OW32132   4.389   7.537   1.463  0.2045  0.1933 -0.4098
41631SOL    HW132133   4.340   7.601   1.411 -0.2422 -0.1920 -0.4701
41631SOL    HW232134   4.460   7.508   1.405 -0.1917 -0.1088 -0.7534
41632SOL     OW32135   5.079  10.126   0.428  0.1701 -0.6148  0.1507
41632SOL    HW132136   5.143  10.059   0.452 -0.7971 -1.3864  0.6298
41632SOL    HW232137   5.071  10.181   0.506  0.6234 -0.1973 -0.0881
41633SOL     OW32138   0.918   0.139  10.582  0.3582 -0.0448  0.3911
41633SOL    HW132139   0.985   0.080  10.548 -0.5300 -1.0052  0.2954
41633SOL    HW232140   0.837   0.088  10.582 -0.0313  0.4789  2.2665
41634SOL     OW32141   0.674  11.501   9.803 -0.0146 -0.0818  0.0155
41634SOL    HW132142   0.646  11.445   9.876 -1.9041  0.0153 -0.5709
41634SOL    HW232143   0.647  11.454   9.725  0.5034  0.5739 -0.5691
41635SOL     OW32144   9.231   2.435   7.265 -0.3295  0.7859 -1.0846
41635SOL    HW132145   9.219   2.346   7.297  1.3695  0.7720 -0.4214
41635SOL    HW232146   9.161   2.447   7.200 -1.3612 -0.5634 -0.2548
41636SOL     OW32147   1.708   2.615   1.636  0.2196  0.5523  0.7116
41636SOL    HW132148   1.702   2.597   1.542 -0.4598  0.1176  0.8325
41636SOL    HW232149   1.659   2.697   1.648 -0.6930  0.0063  0.8449
41637SOL     OW32150   9.172  12.416   5.381  0.5700  0.2569 -0.9627
41637SOL    HW132151   9.192  12.400   5.474  1.0771 -0.7087 -1.2269
41637SOL    HW232152   9.109  12.488   5.383  0.2765  0.0005  0.1572
41638SOL     OW32153   2.364  11.135   5.795  0.1011  0.2569 -0.1612
41638SOL    HW132154   2.394  11.046   5.814 -1.8783 -0.4024  0.1099
41638SOL    HW232155   2.370  11.181   5.878  2.0410  0.7111 -0.5024
41639SOL     OW32156   1.591  11.098   2.991 -0.3176 -0.3844 -0.1601
41639SOL    HW132157   1.508  11.066   3.026  0.0542 -0.8698  0.3136
41639SOL    HW232158   1.617  11.168   3.051 -1.1430  0.8770 -1.2115
41640SOL     OW32159   6.450   4.850  10.142 -0.2222 -0.2009 -0.3439
41640SOL    HW132160   6.464   4.890  10.228  1.2044  0.7744 -1.0038
41640SOL    HW232161   6.360   4.875  10.118  0.0287  1.1055  0.0373
41641SOL     OW32162   5.574   9.817   3.148  0.8071 -0.4372  0.5530
41641SOL    HW132163   5.538   9.729   3.132 -0.6397  0.0998  0.6883
41641SOL    HW232164   5.611   9.842   3.064 -0.0998 -0.6102  0.0806
41642SOL     OW32165   3.809  11.824   1.631  0.4700  0.0858 -0.2544
41642SOL    HW132166   3.766  11.881   1.567  0.8878 -0.3957 -0.9742
41642SOL    HW232167   3.807  11.875   1.712 -2.0417 -0.1616 -0.0745
41643SOL     OW32168   3.804   0.899   0.678  0.6081  0.1782 -0.1272
41643SOL    HW132169   3.812   0.828   0.741 -0.6864  0.4180  0.3428
41643SOL    HW232170   3.871   0.881   0.612  0.5535 -1.2630  0.1864
41644SOL     OW32171  11.974   4.965  11.313 -0.0340  1.2350  0.0418
41644SOL    HW132172  12.027   4.894  11.277  0.8135  1.9584 -0.1637
41644SOL    HW232173  11.884   4.933  11.307  0.2653  0.5170 -0.8054
41645SOL     OW32174  10.887   3.441   1.338  0.3348 -0.1901  0.1745
41645SOL    HW132175  10.958   3.382   1.361 -0.0354 -0.4822  0.5724
41645SOL    HW232176  10.876   3.497   1.414 -1.2138 -1.4757  0.9541
41646SOL     OW32177  11.999   8.446   9.669 -0.0244  0.0984 -0.0294
41646SOL    HW132178  12.092   8.421   9.676  0.0766  0.6014  0.5250
41646SOL    HW232179  11.964   8.431   9.756  0.1081  2.1018  0.4260
41647SOL     OW32180   3.457   4.808   4.126 -0.1649 -0.1662 -0.8490
41647SOL    HW132181   3.520   4.742   4.097  0.7347  0.7626 -1.1164
41647SOL    HW232182   3.383   4.759   4.160  0.8034 -1.3110 -0.3188
41648SOL     OW32183   4.652   9.068   2.939 -0.1670 -0.3225 -0.4356
41648SOL    HW132184   4.636   9.149   2.987 -0.2271  0.7761 -2.2130
41648SOL    HW232185   4.662   9.001   3.006  0.2919  1.2296  1.0996
41649SOL     OW32186   3.099   2.504   5.227 -0.2161  0.1220  0.1580
41649SOL    HW132187   3.068   2.428   5.176 -0.9858  0.8040 -0.4210
41649SOL    HW232188   3.138   2.562   5.162 -0.7757  0.7881  0.4079
41650SOL     OW32189   0.505   1.250   0.098  0.0491 -0.3022  0.0828
41650SOL    HW132190   0.446   1.320   0.126 -2.0811 -1.5479 -1.0469
41650SOL    HW232191   0.464   1.170   0.130  2.1217 -1.1427  0.8294
41651SOL     OW32192   2.677   0.635   0.183 -0.5109  0.4110  0.3018
41651SOL    HW132193   2.703   0.574   0.114  0.2405 -0.3754  1.2451
41651SOL    HW232194   2.638   0.579   0.250 -2.2441  1.2789  0.0805
41652SOL     OW32195   5.935   4.257   8.946 -0.2338 -0.1156 -0.2524
41652SOL    HW132196   6.017   4.241   8.992 -0.2360 -1.0272 -0.5588
41652SOL    HW232197   5.923   4.180   8.890 -0.7411  0.5089 -1.0270
41653SOL     OW32198  12.354   7.031   6.133  0.3892  0.2322 -0.3056
41653SOL    HW132199  12.400   7.076   6.062  0.0780 -0.9242 -1.2754
41653SOL    HW232200  12.382   7.076   6.212  2.1676  0.4292 -0.9975
41654SOL     OW32201   8.346   2.959   9.627 -0.3699 -0.3892  0.7166
41654SOL    HW132202   8.293   3.038   9.635  0.1684 -0.0069  0.5347
41654SOL    HW232203   8.308   2.913   9.551  0.8252  0.8985 -0.7333
41655SOL     OW32204  10.661   7.715   0.283 -0.2133  0.4509 -0.3605
41655SOL    HW132205  10.620   7.651   0.341 -0.8687 -0.0077 -1.2963
41655SOL    HW232206  10.698   7.663   0.212  0.8202  0.9776 -0.2244
41656SOL     OW32207   6.825   7.894  10.287 -0.1267  0.1464 -0.1467
41656SOL    HW132208   6.858   7.915  10.200  0.0639  0.7773  0.0722
41656SOL    HW232209   6.758   7.960  10.304 -1.7488 -1.2896 -0.7015
41657SOL     OW32210   0.520   0.506   4.805 -0.1157  0.1246 -0.2300
41657SOL    HW132211   0.542   0.526   4.714 -0.0417 -0.8176 -0.4263
41657SOL    HW232212   0.498   0.591   4.843  2.2744  0.9227 -0.4543
41658SOL     OW32213   6.835   1.611   8.892 -0.0282 -0.0299  0.4955
41658SOL    HW132214   6.831   1.636   8.984  0.6741  0.7524  0.3220
41658SOL    HW232215   6.890   1.677   8.851  0.0176 -0.6086 -0.4119
41659SOL     OW32216  10.261  11.907   7.517 -0.5787 -0.7272 -0.2512
41659SOL    HW132217  10.317  11.861   7.455 -1.8989 -2.1620 -0.4441
41659SOL    HW232218  10.263  11.853   7.596  0.8484  0.9252  0.9269
41660SOL     OW32219   3.207   9.532  11.958 -0.4480 -0.0751 -0.4640
41660SOL    HW132220   3.141   9.483  12.008 -0.3106  0.8466  0.6898
41660SOL    HW232221   3.156   9.590  11.901 -0.8178  2.4193  2.1559
41661SOL     OW32222   4.940   7.185   9.323 -0.2180 -0.5249  0.1565
41661SOL    HW132223   4.855   7.153   9.292 -0.6846  1.1989 -0.4501
41661SOL    HW232224   4.919   7.238   9.400  0.2107  0.3948 -0.3361
41662SOL     OW32225   1.378  10.669   1.713 -0.0118 -0.0031  0.4859
41662SOL    HW132226   1.461  10.691   1.754  0.0482 -0.5198  0.6525
41662SOL    HW232227   1.359  10.580   1.744 -0.2190 -0.2016 -0.1975
41663SOL     OW32228   5.207   2.684   3.229  0.0217  0.5299  0.3466
41663SOL    HW132229   5.169   2.683   3.141 -1.7864 -2.2802  1.0319
41663SOL    HW232230   5.136   2.655   3.286  2.0942 -1.1509  2.2682
41664SOL     OW32231   3.119  11.885  12.259 -0.2445  0.0327  0.2744
41664SOL    HW132232   3.067  11.828  12.315 -0.7677 -0.2912 -0.5310
41664SOL    HW232233   3.209  11.852  12.268 -0.6847 -1.6488 -1.0189
41665SOL     OW32234   2.085   1.941  10.833 -0.1089  0.2749 -0.1484
41665SOL    HW132235   2.129   1.897  10.906 -2.0553 -3.0597 -0.7937
41665SOL    HW232236   2.101   1.885  10.757 -1.4488  1.5249 -1.4202
41666SOL     OW32237   2.028   7.460  11.464  0.0127 -0.5003 -0.5805
41666SOL    HW132238   1.937   7.488  11.472 -0.5128 -2.2849  0.4053
41666SOL    HW232239   2.077   7.518  11.522 -0.3874  0.8289 -1.5362
41667SOL     OW32240   4.181   4.393   2.166 -0.3374 -0.1018  0.5458
41667SOL    HW132241   4.128   4.315   2.185 -0.3294 -0.1469  0.3907
41667SOL    HW232242   4.269   4.358   2.151 -0.0010  0.0999  2.0021
41668SOL     OW32243   3.888   2.442  12.039 -0.1875 -0.0746  0.6229
41668SOL    HW132244   3.948   2.438  12.113  0.2983  1.3662  0.3434
41668SOL    HW232245   3.833   2.519  12.056 -2.1078 -1.4293  0.9532
41669SOL     OW32246   4.084   5.678   2.375  0.0390  0.2360  0.3920
41669SOL    HW132247   4.126   5.650   2.457 -0.2404  0.3580  0.5802
41669SOL    HW232248   4.024   5.747   2.402  0.3017  0.6146  0.0103
41670SOL     OW32249   2.101   5.134   6.083  0.8237  0.0360 -0.2116
41670SOL    HW132250   2.139   5.110   5.999 -0.0734  1.4199 -1.0585
41670SOL    HW232251   2.176   5.148   6.141  1.4509 -0.9003 -0.7708
41671SOL     OW32252  10.646  10.862   2.055  0.3374 -0.0056 -0.5246
41671SOL    HW132253  10.560  10.839   2.021 -0.2787 -0.5239  1.2771
41671SOL    HW232254  10.629  10.899   2.141  2.0547 -2.7738  1.1440
41672SOL     OW32255   0.753   7.617  10.986  0.2563 -0.1252 -0.3205
41672SOL    HW132256   0.684   7.682  11.001  0.9358  0.4661  0.3553
41672SOL    HW232257   0.729   7.543  11.042  1.2990  0.9582  1.6529
41673SOL     OW32258   2.406   5.876   2.279  0.3960  0.1932  0.3418
41673SOL    HW132259   2.416   5.917   2.194  0.1004  1.6333  0.9712
41673SOL    HW232260   2.312   5.878   2.296  0.4730  0.1045  0.7888
41674SOL     OW32261   3.762   3.763  10.084 -0.5221  0.2237 -0.1969
41674SOL    HW132262   3.839   3.805  10.045 -0.5070 -0.3350 -0.7891
41674SOL    HW232263   3.773   3.775  10.178  1.3423 -1.6089 -0.1125
41675SOL     OW32264   4.606   1.456   0.792 -0.4580  0.1513  0.4846
41675SOL    HW132265   4.675   1.431   0.854 -0.4831  0.7236  0.7461
41675SOL    HW232266   4.640   1.427   0.707  0.6108  1.3915  0.4591
41676SOL     OW32267  11.688   6.922   8.805 -0.1611 -0.3343  0.3914
41676SOL    HW132268  11.599   6.888   8.809 -0.2024 -0.2875 -0.0883
41676SOL    HW232269  11.737   6.868   8.867 -0.5759 -0.1920  0.8411
41677SOL     OW32270   6.739   3.027   7.949 -0.1662 -0.3597  0.1224
41677SOL    HW132271   6.822   3.075   7.942  0.3707 -1.4366 -1.2411
41677SOL    HW232272   6.765   2.937   7.967 -1.0415 -0.7260 -0.3917
41678SOL     OW32273   8.771   5.324   9.552 -0.6986 -0.2128  0.5524
41678SOL    HW132274   8.777   5.323   9.456 -0.1497  0.7410  0.5719
41678SOL    HW232275   8.679   5.304   9.570 -0.5226 -1.8163 -0.1183
41679SOL     OW32276   9.908   4.274   1.739 -0.2481  0.4057 -0.4779
41679SOL    HW132277   9.984   4.318   1.775 -0.0772 -0.4783  0.2935
41679SOL    HW232278   9.874   4.334   1.673  1.3435  0.6392 -1.1254
41680SOL     OW32279   7.696   5.683  11.930  0.9144  0.0725 -0.1962
41680SOL    HW132280   7.666   5.670  11.840  1.2980 -0.8974 -0.1981
41680SOL    HW232281   7.682   5.776  11.947 -0.4263  0.0003 -0.7929
41681SOL     OW32282   0.935  11.389  11.116  0.0239  0.1722 -0.1218
41681SOL    HW132283   0.999  11.429  11.057 -0.3496  0.7443 -0.1497
41681SOL    HW232284   0.972  11.403  11.204  0.2896 -0.1457 -0.1824
41682SOL     OW32285   4.062   0.528   5.463 -0.2179 -0.1462  0.6343
41682SOL    HW132286   4.156   0.522   5.444 -0.3789 -0.5550 -0.1053
41682SOL    HW232287   4.041   0.620   5.450 -0.1623 -0.2707 -0.5121
41683SOL     OW32288   6.569  11.622  11.600  0.5981 -0.5168  0.1750
41683SOL    HW132289   6.538  11.707  11.634 -0.4124 -1.2145  1.0819
41683SOL    HW232290   6.661  11.618  11.626  0.1717 -0.4841  1.7966
41684SOL     OW32291  11.845   1.919  12.699 -0.2018 -0.1714 -0.2432
41684SOL    HW132292  11.878   1.948  12.613 -2.8428 -0.4129 -1.4401
41684SOL    HW232293  11.811   1.831  12.682 -1.3240  0.0224  0.8938
41685SOL     OW32294   0.914   3.260   9.848  0.4068 -0.6261  0.0946
41685SOL    HW132295   0.856   3.198   9.803  0.3866 -2.2535  2.1799
41685SOL    HW232296   0.994   3.210   9.865  0.8001  0.2546  0.9313
41686SOL     OW32297  12.233   3.317   0.094 -0.0572 -0.2907  0.0283
41686SOL    HW132298  12.147   3.301   0.055 -0.1677  1.4207 -0.5211
41686SOL    HW232299  12.218   3.316   0.188 -0.9973  1.3911 -0.0682
41687SOL     OW32300  10.313   2.559   3.716 -0.4697 -0.3285 -0.3322
41687SOL    HW132301  10.408   2.549   3.703 -0.5500 -1.3655 -0.2130
41687SOL    HW232302  10.301   2.653   3.729  0.4758 -0.1048 -0.8893
41688SOL     OW32303   7.883   0.644   0.914 -0.4317 -0.0221  0.5577
41688SOL    HW132304   7.833   0.710   0.865  0.9555  0.6992  0.0591
41688SOL    HW232305   7.832   0.630   0.994 -0.9461  1.4118  0.5085
41689SOL     OW32306  12.503   2.574   5.344  0.1574  0.1533  0.3675
41689SOL    HW132307  12.477   2.514   5.414 -1.3522 -1.9605 -1.8356
41689SOL    HW232308  12.457   2.655   5.364  0.8525  0.0804  2.5107
41690SOL     OW32309   5.319   8.459   6.389  0.0554  0.1325  0.0950
41690SOL    HW132310   5.263   8.501   6.454  0.1050  1.1338 -0.5031
41690SOL    HW232311   5.398   8.434   6.437 -0.2227  0.1880  0.5804
41691SOL     OW32312  10.932  10.704  12.183 -0.0643 -0.1336 -0.8418
41691SOL    HW132313  10.986  10.626  12.166 -0.7731 -0.8239 -0.0057
41691SOL    HW232314  10.946  10.723  12.276  1.2360  1.6415 -1.3564
41692SOL     OW32315   6.160  12.080   1.848 -0.3506  0.5743  0.3119
41692SOL    HW132316   6.161  12.166   1.808 -1.3120  0.3461 -0.2248
41692SOL    HW232317   6.075  12.043   1.824  0.2572 -0.7285  0.0736
41693SOL     OW32318   2.508   5.574   2.114  0.3742 -0.1658  0.2504
41693SOL    HW132319   2.460   5.642   2.066  1.4368  0.4630  0.0361
41693SOL    HW232320   2.512   5.500   2.054  0.6099  0.1701 -0.1554
41694SOL     OW32321   3.767   1.326   4.666  0.2460 -0.3205 -0.2228
41694SOL    HW132322   3.806   1.257   4.721  2.8116  0.3647 -1.0313
41694SOL    HW232323   3.738   1.281   4.587 -1.6527 -1.0038  0.8032
41695SOL     OW32324  10.248   5.291   6.675  0.8136  0.0165 -0.7084
41695SOL    HW132325  10.220   5.250   6.593 -0.8361 -1.3016  0.4340
41695SOL    HW232326  10.231   5.384   6.663  0.3363 -0.1960 -1.7749
41696SOL     OW32327   2.690   3.382   2.232  0.4452  0.0790  0.2870
41696SOL    HW132328   2.631   3.457   2.231  1.2351  0.7477  1.2651
41696SOL    HW232329   2.642   3.312   2.188 -1.6956  0.1361  2.3476
41697SOL     OW32330   3.671   7.612   5.133  0.3268  0.3555 -0.0383
41697SOL    HW132331   3.663   7.662   5.052 -1.6346  1.2246  0.6194
41697SOL    HW232332   3.741   7.550   5.116  0.3563  0.8934 -2.1911
41698SOL     OW32333   7.010   4.586   3.811 -0.4650 -0.7958 -0.0756
41698SOL    HW132334   6.921   4.569   3.780 -0.1251  0.1648 -1.6923
41698SOL    HW232335   7.066   4.534   3.753  0.3286  2.6079 -2.6877
41699SOL     OW32336   5.732   7.690   3.839 -0.1195  0.0409 -0.1978
41699SOL    HW132337   5.767   7.692   3.750 -0.0293 -0.6777 -0.1797
41699SOL    HW232338   5.637   7.685   3.827 -0.0917 -0.3765 -0.2582
41700SOL     OW32339   7.229   0.737   4.527 -0.1577  0.3082  0.0283
41700SOL    HW132340   7.293   0.666   4.516 -1.0310 -0.3424 -1.1740
41700SOL    HW232341   7.173   0.708   4.599  1.4758  1.3833  1.8426
41701SOL     OW32342   9.016   3.557   5.771  1.1273 -0.0858 -0.0154
41701SOL    HW132343   9.013   3.635   5.825 -0.4538  0.0583 -0.2656
41701SOL    HW232344   9.002   3.485   5.832 -2.0967  0.1658 -0.3288
41702SOL     OW32345   9.609   8.125  10.739  0.0867 -0.4203  0.3995
41702SOL    HW132346   9.640   8.069  10.811  0.1794 -1.1315 -0.1782
41702SOL    HW232347   9.566   8.064  10.678 -1.5579  0.3948  0.6759
41703SOL     OW32348  10.988   2.139   5.046 -0.6279  0.0469  0.3707
41703SOL    HW132349  10.909   2.153   4.994 -0.6363  3.2596  1.0304
41703SOL    HW232350  11.046   2.211   5.022  1.2940 -1.0764  1.3968
41704SOL     OW32351   3.786   9.250   4.114 -0.0040  0.1059 -0.1129
41704SOL    HW132352   3.717   9.274   4.052 -0.7935 -0.2638  0.6031
41704SOL    HW232353   3.820   9.333   4.146 -0.5315  0.2918 -0.0298
41705SOL     OW32354   5.855   1.630   8.006 -0.2796 -0.0544 -0.1547
41705SOL    HW132355   5.859   1.660   8.097  0.3773  0.7593 -0.4341
41705SOL    HW232356   5.945   1.604   7.986 -0.3541  0.0873 -0.6724
41706SOL     OW32357   3.145   0.116   2.888 -0.2876 -0.0998  0.3614
41706SOL    HW132358   3.173   0.203   2.861 -0.4741 -0.2547 -0.3701
41706SOL    HW232359   3.143   0.119   2.983 -0.2803  0.6894  0.3419
41707SOL     OW32360   5.537   2.386   1.359  0.0412 -0.1568 -0.3008
41707SOL    HW132361   5.569   2.476   1.348  1.9591 -0.3138  2.8579
41707SOL    HW232362   5.481   2.390   1.437  0.0580 -1.6990 -0.1875
41708SOL     OW32363   7.158   0.589   0.319  0.5281 -0.0502 -0.2440
41708SOL    HW132364   7.179   0.649   0.390  1.7024 -1.2366  0.4652
41708SOL    HW232365   7.203   0.623   0.243  2.5867 -0.8651  0.5367
41709SOL     OW32366   8.543   3.373   7.494  0.0514 -0.2689 -0.1575
41709SOL    HW132367   8.620   3.408   7.449 -1.1387  0.5736 -1.6249
41709SOL    HW232368   8.555   3.399   7.585  1.3228  0.1775 -0.4314
41710SOL     OW32369   9.895   3.639  12.164 -0.1709 -0.4391  0.6227
41710SOL    HW132370   9.973   3.614  12.114  0.1677  0.8631  0.4530
41710SOL    HW232371   9.924   3.715  12.216 -1.2818 -0.0244  0.6612
41711SOL     OW32372  12.003   9.187   4.377 -0.8040 -0.4836  0.0556
41711SOL    HW132373  12.026   9.167   4.468 -2.1866 -0.0290  0.5347
41711SOL    HW232374  11.933   9.252   4.383 -1.3719 -0.9174 -1.3211
41712SOL     OW32375   9.494   6.068   6.050 -0.1864  0.0077  0.2897
41712SOL    HW132376   9.512   6.031   6.137  0.9587  1.4429  0.7015
41712SOL    HW232377   9.541   6.151   6.049  0.2093 -0.1824 -1.8985
41713SOL     OW32378   4.183   6.773   2.720 -0.2034  0.6107  0.0535
41713SOL    HW132379   4.110   6.810   2.672 -0.9271 -0.2881  0.4293
41713SOL    HW232380   4.257   6.831   2.700 -0.3964  0.1461 -2.3591
41714SOL     OW32381   1.113  12.590   5.448  0.0589 -0.3154  0.7652
41714SOL    HW132382   1.135  12.656   5.382  0.1728  2.2256  3.1736
41714SOL    HW232383   1.020  12.571   5.435  0.1218  0.0140 -0.1921
41715SOL     OW32384   0.451  10.613   3.187 -0.2199 -0.0103 -0.4358
41715SOL    HW132385   0.511  10.650   3.122 -2.1157  0.8840 -1.7724
41715SOL    HW232386   0.364  10.632   3.152 -1.3129  0.0042  2.1190
41716SOL     OW32387   2.274   8.369   1.715  0.4777 -0.6509  0.7078
41716SOL    HW132388   2.286   8.417   1.797 -0.5433  0.3579  0.2966
41716SOL    HW232389   2.183   8.339   1.717  0.0073  0.5839 -0.6410
41717SOL     OW32390   4.993   4.522   7.285 -0.0951 -0.2324 -0.2420
41717SOL    HW132391   5.068   4.504   7.228 -0.2213  0.4244 -0.6257
41717SOL    HW232392   5.004   4.614   7.311 -0.3472 -0.3635  0.3315
41718SOL     OW32393   4.153   6.473   3.759 -0.1726 -0.0363  0.0837
41718SOL    HW132394   4.223   6.445   3.818 -0.8135 -0.5562  0.6178
41718SOL    HW232395   4.142   6.566   3.778 -1.6290 -0.5547  2.1979
41719SOL     OW32396   0.666   2.163   3.825 -0.8144  0.1207  0.1353
41719SOL    HW132397   0.577   2.170   3.859 -0.7046  2.9078  0.0054
41719SOL    HW232398   0.722   2.164   3.903 -0.8242 -0.6792  0.1652
41720SOL     OW32399  10.697   9.322   4.073 -0.1308  0.4521 -0.1672
41720SOL    HW132400  10.626   9.318   4.009  1.1033  1.5214 -1.6804
41720SOL    HW232401  10.762   9.258   4.042  1.6733  2.8177 -1.6047
41721SOL     OW32402   3.300   2.145  10.940 -0.4201  0.3477 -0.5474
41721SOL    HW132403   3.255   2.097  10.870  1.1040 -0.2516 -1.1554
41721SOL    HW232404   3.393   2.136  10.919  0.1702 -0.6890  2.0823
41722SOL     OW32405   7.534   4.166   7.169 -0.1407  0.2593  0.3526
41722SOL    HW132406   7.589   4.243   7.156  0.3733 -0.2059 -0.3101
41722SOL    HW232407   7.477   4.165   7.092  0.9046 -0.8713 -0.4395
41723SOL     OW32408   7.952   3.379   3.508  0.2383 -0.3194 -0.0970
41723SOL    HW132409   7.960   3.411   3.598 -1.7996  0.3972 -0.1277
41723SOL    HW232410   7.884   3.311   3.513 -0.3456  0.1718 -1.1933
41724SOL     OW32411   3.425   7.899   2.116 -0.2945 -0.2521  0.3922
41724SOL    HW132412   3.353   7.955   2.088 -0.4432 -0.9386 -0.6293
41724SOL    HW232413   3.495   7.960   2.138 -0.3995  0.3422 -0.8550
41725SOL     OW32414   0.054   6.508  10.629  0.1704 -0.1038  0.0522
41725SOL    HW132415   0.041   6.554  10.712  0.4193  0.0367  0.0162
41725SOL    HW232416   0.104   6.570  10.575  0.7727 -0.5271  0.1078
41726SOL     OW32417  12.566   7.897   7.679  0.1156 -0.5055 -0.3293
41726SOL    HW132418  12.524   7.935   7.756 -0.3994 -0.7730 -0.4732
41726SOL    HW232419  12.644   7.951   7.665  0.6149 -0.8961  0.8056
41727SOL     OW32420   3.536   0.937   1.323 -0.0364  0.2192  0.1591
41727SOL    HW132421   3.601   0.974   1.383  0.4617  0.4247 -0.4930
41727SOL    HW232422   3.587   0.880   1.264 -0.4443  0.3758 -0.3542
41728SOL     OW32423   1.500  12.318  10.043 -0.1754 -0.0233 -0.1559
41728SOL    HW132424   1.526  12.294   9.954  2.2413  0.4204  0.3745
41728SOL    HW232425   1.577  12.359  10.081 -1.4409  0.6438  1.8693
41729SOL     OW32426   7.657   9.469   0.034 -0.2957  0.1446 -0.1663
41729SOL    HW132427   7.687   9.559   0.026 -2.0674  0.7783 -0.3060
41729SOL    HW232428   7.686   9.426  -0.046  0.3018  0.6783 -0.2421
41730SOL     OW32429   0.794   1.103   8.996  0.5802  0.3655 -0.4007
41730SOL    HW132430   0.874   1.114   8.945  0.2598  0.1953 -0.9386
41730SOL    HW232431   0.795   1.012   9.023  0.4686  0.3136 -0.5717
41731SOL     OW32432   9.627   0.073   1.833  0.4494  0.3916 -0.0225
41731SOL    HW132433   9.596   0.022   1.909 -1.3823 -0.0969 -1.0381
41731SOL    HW232434   9.711   0.032   1.810  0.2376 -0.5115  0.7349
41732SOL     OW32435   6.654   9.814   3.851  0.4133 -0.1132 -0.1093
41732SOL    HW132436   6.623   9.783   3.766 -0.0197 -1.0403  0.3732
41732SOL    HW232437   6.586   9.875   3.880  0.4708  0.0624 -0.3352
41733SOL     OW32438   4.136  12.362   3.608  0.1248 -0.3297 -0.0359
41733SOL    HW132439   4.226  12.336   3.628  0.3339  0.5654  0.2133
41733SOL    HW232440   4.084  12.324   3.678  0.2396 -1.2490 -0.4342
41734SOL     OW32441   4.746  12.046   3.097 -0.3857 -0.1365  0.3694
41734SOL    HW132442   4.768  12.017   3.009 -2.0172  1.6086 -0.7000
41734SOL    HW232443   4.829  12.042   3.145  0.6807 -0.5279 -1.4091
41735SOL     OW32444   8.683  10.158   9.177  0.2115  0.0285  0.4455
41735SOL    HW132445   8.705  10.162   9.271 -0.4012  0.1170  0.5895
41735SOL    HW232446   8.705  10.069   9.151  0.0829 -0.0980  0.7554
41736SOL     OW32447   1.717   8.711   4.880 -0.2846  0.4083  0.2089
41736SOL    HW132448   1.662   8.670   4.947 -1.3982 -0.2225 -1.0347
41736SOL    HW232449   1.804   8.674   4.893 -0.5602  0.0457  1.0817
41737SOL     OW32450   8.449   5.331   4.586  0.2854  0.1214  0.8147
41737SOL    HW132451   8.496   5.261   4.631 -0.1410 -1.5701 -1.2480
41737SOL    HW232452   8.507   5.359   4.516 -0.1885  0.7411  0.6576
41738SOL     OW32453   4.421  10.542  10.757 -0.0282 -0.6048 -0.7745
41738SOL    HW132454   4.426  10.497  10.673  1.5957 -0.9314 -0.5348
41738SOL    HW232455   4.492  10.505  10.809  1.9341  2.7043 -0.8029
41739SOL     OW32456   3.309   0.339   1.494 -0.4308 -0.1085  0.1041
41739SOL    HW132457   3.289   0.328   1.401 -0.5292  1.6060 -0.1002
41739SOL    HW232458   3.237   0.392   1.528 -1.5600 -2.4569  1.6862
41740SOL     OW32459   9.812  12.254  11.363 -0.2591  0.2500  0.0680
41740SOL    HW132460   9.745  12.260  11.431  0.0698  0.8093  0.3517
41740SOL    HW232461   9.789  12.175  11.314 -0.4214 -0.2439  0.9122
41741SOL     OW32462   7.627   0.093   4.902 -0.0519  0.7003  0.7100
41741SOL    HW132463   7.716   0.097   4.865 -0.5352  1.5071 -0.4252
41741SOL    HW232464   7.635   0.136   4.987  0.5002  1.4746  0.2796
41742SOL     OW32465   5.835   9.160   7.117 -0.3110  0.3461 -0.0626
41742SOL    HW132466   5.820   9.243   7.070  1.2531 -0.0836 -1.4192
41742SOL    HW232467   5.788   9.095   7.065 -1.9315  0.4060  1.2644
41743SOL     OW32468   0.246   2.538  10.783  0.5294  0.1872 -0.0282
41743SOL    HW132469   0.169   2.490  10.753 -0.9956  1.0101  2.3718
41743SOL    HW232470   0.253   2.612  10.723 -0.4205 -0.0029 -0.3859
41744SOL     OW32471   6.261   1.662  10.655  0.1594  0.6056 -0.0417
41744SOL    HW132472   6.215   1.635  10.734  1.3642 -1.6778 -0.0220
41744SOL    HW232473   6.333   1.717  10.687  0.0215  0.5637  0.3452
41745SOL     OW32474  11.243   8.482  11.767  0.9251  0.1547 -0.5586
41745SOL    HW132475  11.273   8.521  11.849 -0.0315  2.3531 -1.1771
41745SOL    HW232476  11.167   8.534  11.741 -0.6415 -2.3291 -1.3733
41746SOL     OW32477   8.018   3.619   4.711 -0.4798 -0.6358 -0.3750
41746SOL    HW132478   8.014   3.714   4.718 -0.1519 -0.7273  2.9856
41746SOL    HW232479   7.927   3.592   4.702 -1.0026 -0.0394  2.2104
41747SOL     OW32480   7.977  12.017   7.726  0.0251 -0.4613 -0.3572
41747SOL    HW132481   7.895  12.056   7.696  0.0189  0.5240  0.8868
41747SOL    HW232482   7.980  11.932   7.682 -1.7967 -0.6429 -0.2074
41748SOL     OW32483   4.745   2.689   3.290 -0.0576 -0.6047  0.4739
41748SOL    HW132484   4.678   2.749   3.323  0.5937  1.3185 -1.4185
41748SOL    HW232485   4.828   2.733   3.307  0.4805 -1.1722 -0.5610
41749SOL     OW32486   3.598   1.698   4.508 -0.3175  0.0169 -0.0924
41749SOL    HW132487   3.503   1.700   4.518 -0.3220  0.0605 -0.1426
41749SOL    HW232488   3.631   1.753   4.579 -0.3026 -0.4443  0.2599
41750SOL     OW32489   5.636   8.400   7.849  0.5535  0.0297  0.5425
41750SOL    HW132490   5.612   8.457   7.775  3.2730  0.2719 -0.2751
41750SOL    HW232491   5.700   8.451   7.898 -0.7949 -0.3593  2.8237
41751SOL     OW32492   2.694   1.890   9.786 -0.5028 -0.1875 -0.0490
41751SOL    HW132493   2.713   1.811   9.837 -2.6193 -0.1120  0.9621
41751SOL    HW232494   2.638   1.859   9.715  0.1795  0.1425 -0.7412
41752SOL     OW32495  12.031   8.217   4.533  0.0933  0.0773 -0.5363
41752SOL    HW132496  12.007   8.296   4.485  0.0753 -1.2898 -2.8893
41752SOL    HW232497  11.951   8.193   4.581 -0.0599  1.1535 -0.2288
41753SOL     OW32498   7.076   9.848   3.219  0.1225  0.8022 -0.3970
41753SOL    HW132499   7.103   9.854   3.311 -0.5413  1.7574 -0.2503
41753SOL    HW232500   7.016   9.921   3.207  1.4392  1.6682 -2.0469
41754SOL     OW32501  10.245   4.950   6.519 -0.7957  0.1422  0.2390
41754SOL    HW132502  10.161   4.905   6.514 -2.0522  2.2091  1.1502
41754SOL    HW232503  10.272   4.940   6.610 -0.6688  0.5058  0.2431
41755SOL     OW32504   4.387  11.437  10.025 -0.7682  0.6899  0.0231
41755SOL    HW132505   4.293  11.437  10.041 -1.0383 -0.1593 -1.4099
41755SOL    HW232506   4.409  11.344  10.015 -0.5457  1.0130 -3.6440
41756SOL     OW32507  12.410   7.805  11.406 -0.3610  0.3697  0.3070
41756SOL    HW132508  12.359   7.885  11.393 -0.8455 -0.0474 -0.3846
41756SOL    HW232509  12.495   7.824  11.365 -0.1937  0.7950  0.8221
41757SOL     OW32510  11.139   1.436   6.442  0.4875 -0.2406  0.4948
41757SOL    HW132511  11.108   1.438   6.352  0.1711 -1.6664  0.5513
41757SOL    HW232512  11.207   1.503   6.446 -1.8987  2.3758  0.1103
41758SOL     OW32513   9.318   5.734   8.919 -0.0919 -0.2763  0.3644
41758SOL    HW132514   9.384   5.775   8.975 -0.1103 -0.6147  0.6394
41758SOL    HW232515   9.264   5.807   8.889  0.9979  0.1366 -0.6853
41759SOL     OW32516   6.439   7.028   5.548 -0.0067 -0.2340  0.5320
41759SOL    HW132517   6.429   6.945   5.594 -1.5966 -0.7464 -0.6660
41759SOL    HW232518   6.460   7.091   5.617  1.4879 -1.6505  1.4187
41760SOL     OW32519   3.831   4.295  10.833  0.2456  0.1219  0.6320
41760SOL    HW132520   3.757   4.350  10.808  0.7615  0.2058 -0.7453
41760SOL    HW232521   3.882   4.350  10.893  0.2787  0.8106 -0.0246
41761SOL     OW32522   0.656   2.374   6.001  0.1976 -0.4237 -0.2472
41761SOL    HW132523   0.666   2.450   6.058 -0.4382 -0.1011 -0.5589
41761SOL    HW232524   0.728   2.315   6.027  0.1585 -0.1129  0.6075
41762SOL     OW32525  12.159   5.496   8.038  0.2998  0.3170 -0.0501
41762SOL    HW132526  12.226   5.534   8.095 -0.0526  1.5626 -0.4203
41762SOL    HW232527  12.081   5.491   8.092 -0.5036  3.0765 -0.7990
41763SOL     OW32528   5.765   4.321  11.790  0.0546 -0.2856 -0.0179
41763SOL    HW132529   5.688   4.361  11.831  0.9414  1.1517  0.3437
41763SOL    HW232530   5.790   4.250  11.850  0.2836  0.6595  1.0626
41764SOL     OW32531  11.750   1.144  10.389 -0.3704  0.5488 -0.2972
41764SOL    HW132532  11.682   1.209  10.410 -0.1997  0.7489 -0.3628
41764SOL    HW232533  11.832   1.188  10.409 -0.2767  0.1125  0.3064
41765SOL     OW32534  12.177   7.277   7.718  0.6824  0.4365 -0.7545
41765SOL    HW132535  12.133   7.338   7.659  0.6089  0.5895 -0.5447
41765SOL    HW232536  12.147   7.303   7.805 -0.5361 -0.8571 -0.7640
41766SOL     OW32537   2.035   8.086   5.005 -0.1509 -0.1831  0.3073
41766SOL    HW132538   2.043   7.991   4.998 -1.0745 -0.2568  0.0816
41766SOL    HW232539   2.012   8.101   5.097 -0.0264 -0.1813  0.3380
41767SOL     OW32540  10.688   5.714  11.054 -0.2680  0.4942 -0.2648
41767SOL    HW132541  10.701   5.726  11.148  1.6368 -0.7783 -0.3081
41767SOL    HW232542  10.607   5.665  11.046  0.4198 -0.8651  0.8369
41768SOL     OW32543   9.100   4.282  12.357 -0.4595 -0.3278 -0.2159
41768SOL    HW132544   9.064   4.193  12.353 -1.4613 -0.0019  0.9322
41768SOL    HW232545   9.026   4.337  12.380 -0.0669  0.9782 -1.8933
41769SOL     OW32546  11.091   7.738   5.159 -0.3740  0.4089  0.1219
41769SOL    HW132547  11.120   7.757   5.070 -1.9458 -0.5352 -0.6227
41769SOL    HW232548  11.141   7.661   5.184 -0.2674  0.3993 -0.1182
41770SOL     OW32549   2.985   3.492   6.244 -0.2585 -0.1188  0.2025
41770SOL    HW132550   2.896   3.526   6.256 -0.1064 -0.1276  1.4562
41770SOL    HW232551   2.988   3.468   6.152 -1.4029  0.3239  0.0220
41771SOL     OW32552  10.307   7.397   9.805  0.2447  0.1723 -0.1107
41771SOL    HW132553  10.321   7.355   9.720  2.4702  1.4740 -0.4682
41771SOL    HW232554  10.360   7.346   9.866 -0.3361  0.0100  0.2668
41772SOL     OW32555   7.207   9.320   8.818  0.5888 -0.4869  0.2644
41772SOL    HW132556   7.223   9.259   8.746  1.5836  0.7441 -0.6035
41772SOL    HW232557   7.126   9.365   8.794 -0.5480 -1.9238  1.2633
41773SOL     OW32558   1.731  10.886   8.911  0.0261  0.2492  0.0791
41773SOL    HW132559   1.642  10.861   8.886  0.0967 -1.2756  1.1765
41773SOL    HW232560   1.727  10.895   9.006  1.3177 -1.2481  0.3182
41774SOL     OW32561   8.198  10.738  12.544 -0.0088  0.2608 -0.1228
41774SOL    HW132562   8.166  10.702  12.461  1.8665  1.2891 -1.3469
41774SOL    HW232563   8.130  10.800  12.570 -0.1437  0.7146 -1.4578
41775SOL     OW32564  11.702   7.577   7.510  0.2420 -0.0765  0.3981
41775SOL    HW132565  11.682   7.569   7.604  0.0376 -0.1840  0.3461
41775SOL    HW232566  11.629   7.534   7.466 -0.5371  1.4803  0.1242
41776SOL     OW32567   3.785   1.378   9.187  0.1492  0.0374 -0.7507
41776SOL    HW132568   3.835   1.377   9.268 -0.2288 -0.9104 -0.5137
41776SOL    HW232569   3.800   1.465   9.150 -0.7259  0.9671  0.9848
41777SOL     OW32570   0.425   4.470  11.101  0.1876  0.3020  0.6836
41777SOL    HW132571   0.368   4.506  11.033  0.9777 -0.7973 -0.6395
41777SOL    HW232572   0.461   4.546  11.146  0.5681  1.1346 -0.9566
41778SOL     OW32573   5.884   1.667   2.432 -0.0547 -0.1552 -0.2057
41778SOL    HW132574   5.915   1.611   2.503 -1.4249 -0.8649 -0.1395
41778SOL    HW232575   5.821   1.613   2.384 -0.1159  0.7511 -1.1889
41779SOL     OW32576   0.881   0.336   2.795  0.2593 -0.1519 -0.4302
41779SOL    HW132577   0.895   0.423   2.758 -1.6920 -0.3443 -1.7783
41779SOL    HW232578   0.787   0.333   2.816  0.6629 -1.2272  1.5695
41780SOL     OW32579   5.110  12.323   9.208  0.7094  0.3130 -0.1598
41780SOL    HW132580   5.061  12.392   9.252  1.0978  0.5362 -0.0735
41780SOL    HW232581   5.196  12.324   9.250  0.4436 -0.8250  0.4660
41781SOL     OW32582   2.155   8.462   1.289  0.7655  0.7447  0.0693
41781SOL    HW132583   2.199   8.543   1.263  2.2407  0.2959  1.0455
41781SOL    HW232584   2.185   8.397   1.224  1.7461  0.4002  0.8327
41782SOL     OW32585   5.799   3.921  10.869  0.0323 -0.3156 -0.3164
41782SOL    HW132586   5.817   3.857  10.937  3.3499 -2.8316 -3.1816
41782SOL    HW232587   5.874   3.981  10.872 -1.2021  1.2910 -0.0401
41783SOL     OW32588   8.983   4.389   3.722 -0.7520  0.6614 -0.4337
41783SOL    HW132589   9.038   4.447   3.669 -1.1032  2.4377  1.0562
41783SOL    HW232590   9.001   4.301   3.687  0.1003  1.5949 -2.4950
41784SOL     OW32591  12.012  12.446  10.056  0.1465  0.6525  0.0249
41784SOL    HW132592  12.082  12.430  10.120 -0.0059  1.4203  0.3964
41784SOL    HW232593  12.002  12.541  10.055  0.2142  0.6548 -1.2341
41785SOL     OW32594   8.354   1.958   3.894  0.2948 -0.4085 -0.2063
41785SOL    HW132595   8.351   1.868   3.861 -0.4019 -1.2733  1.9895
41785SOL    HW232596   8.431   1.996   3.854 -0.7935 -1.1073 -3.2022
41786SOL     OW32597  11.521   0.615   1.948 -0.3262  0.1375  0.3167
41786SOL    HW132598  11.578   0.690   1.960  0.0330 -0.1812  0.6090
41786SOL    HW232599  11.434   0.647   1.973  0.2263 -0.2396  2.9915
41787SOL     OW32600   1.628  12.092   4.248  0.1507  0.1574  0.6856
41787SOL    HW132601   1.573  12.034   4.300  2.5178 -0.2963  2.8931
41787SOL    HW232602   1.664  12.036   4.180 -0.1497 -0.1314  0.7602
41788SOL     OW32603   1.435   0.631   0.213 -0.2492  0.0036 -0.3015
41788SOL    HW132604   1.473   0.599   0.131 -1.2489  1.5359 -1.4245
41788SOL    HW232605   1.462   0.567   0.279  1.3982 -0.7493 -1.6411
41789SOL     OW32606  12.711   8.071   8.348 -0.1353 -0.1868  0.0062
41789SOL    HW132607  12.788   8.123   8.371 -0.0237  0.2137 -1.1944
41789SOL    HW232608  12.642   8.135   8.331 -0.0330 -0.3891 -1.3512
41790SOL     OW32609   5.615   6.116  11.557  0.0284  0.3789  0.0466
41790SOL    HW132610   5.632   6.132  11.650  0.7140  1.2078 -0.2126
41790SOL    HW232611   5.665   6.183  11.511 -1.5018  0.9464 -0.8706
41791SOL     OW32612   3.708   7.624   1.370 -0.2155 -0.0503 -0.3273
41791SOL    HW132613   3.680   7.680   1.298  1.2000 -0.0268 -0.9058
41791SOL    HW232614   3.668   7.662   1.448 -3.8366 -1.4792 -1.2904
41792SOL     OW32615   5.772   1.157   4.404 -0.1943  0.7235  0.7083
41792SOL    HW132616   5.827   1.182   4.330 -0.9290  1.3963  0.3877
41792SOL    HW232617   5.753   1.065   4.389  1.6814  0.1708  1.3631
41793SOL     OW32618   3.223   1.986  11.909  0.4116  0.1315 -0.1211
41793SOL    HW132619   3.174   2.000  11.990  0.1976  0.1422 -0.2500
41793SOL    HW232620   3.219   1.891  11.895  0.8215  0.0807  0.1105
41794SOL     OW32621   3.886  11.112  11.181 -0.0226  0.1224 -0.0806
41794SOL    HW132622   3.864  11.023  11.153 -3.2620  0.5690  0.6724
41794SOL    HW232623   3.882  11.108  11.277  1.8147  0.6947  0.0602
41795SOL     OW32624   6.310   5.819   2.394 -0.0922  0.1824 -0.3356
41795SOL    HW132625   6.280   5.790   2.308  2.6520 -0.1870 -1.2745
41795SOL    HW232626   6.303   5.741   2.450 -1.4592  0.3049 -0.2965
41796SOL     OW32627  11.451   1.130   9.919  0.2376  0.2018 -0.1394
41796SOL    HW132628  11.473   1.119   9.827 -1.3766  3.0534 -0.9964
41796SOL    HW232629  11.356   1.123   9.922  0.2705  0.0840  1.3410
41797SOL     OW32630   2.668   8.365  12.705  0.6141  0.6613 -0.7125
41797SOL    HW132631   2.709   8.290  12.661 -1.7647 -1.1375 -0.0636
41797SOL    HW232632   2.688   8.352  12.798 -0.8375  0.0728 -0.4540
41798SOL     OW32633  10.799   2.608   4.904  0.5086  0.0173  0.2996
41798SOL    HW132634  10.777   2.529   4.955  0.6085 -1.3523 -1.6618
41798SOL    HW232635  10.715   2.654   4.895  0.2453 -0.3913  0.6071
41799SOL     OW32636  10.106   1.441   9.791 -0.5144 -0.7911 -0.2179
41799SOL    HW132637  10.128   1.487   9.710  0.7298 -1.1760 -0.1233
41799SOL    HW232638  10.111   1.349   9.769 -2.9291 -0.9346 -0.3826
41800SOL     OW32639   0.934   2.253  11.509 -0.3177 -0.1567 -0.7701
41800SOL    HW132640   0.935   2.296  11.423 -0.2485 -0.6403 -1.0180
41800SOL    HW232641   1.025   2.256  11.539 -0.6216  1.6319  0.1307
41801SOL     OW32642   4.395  10.857   0.827 -0.2501 -0.0159  0.1129
41801SOL    HW132643   4.452  10.933   0.839 -0.0005  0.5856 -3.6078
41801SOL    HW232644   4.306  10.892   0.835 -0.1525  0.9281 -2.2076
41802SOL     OW32645  12.529   7.810   6.862 -0.2748  0.0622 -0.0108
41802SOL    HW132646  12.515   7.879   6.797 -0.9108  0.0127  0.0713
41802SOL    HW232647  12.555   7.857   6.941 -1.5625  0.2909  0.2995
41803SOL     OW32648   8.944   8.123   3.726  0.2279 -0.3513 -0.2549
41803SOL    HW132649   9.009   8.093   3.663  0.2544 -3.4976  1.0855
41803SOL    HW232650   8.993   8.131   3.808 -0.7210 -1.1085  0.4021
41804SOL     OW32651   9.961   8.907   3.680  0.2862 -0.2424  0.2586
41804SOL    HW132652   9.993   8.819   3.696 -1.4534 -0.7463  1.2551
41804SOL    HW232653   9.993   8.929   3.592  0.5149 -1.9741 -0.1299
41805SOL     OW32654   9.650   0.656   1.906  0.2593 -0.8119 -0.2107
41805SOL    HW132655   9.602   0.735   1.883  1.1395 -0.7677 -2.0933
41805SOL    HW232656   9.726   0.687   1.955  0.5206 -0.4861 -0.8107
41806SOL     OW32657  11.243   4.822   4.353 -0.6028 -0.2619  0.2280
41806SOL    HW132658  11.175   4.759   4.328  1.0615 -2.3573  0.7112
41806SOL    HW232659  11.290   4.839   4.271 -1.0657  0.4489  0.0922
41807SOL     OW32660   8.797   6.333   3.244 -0.1375  0.0625  0.1514
41807SOL    HW132661   8.741   6.398   3.286  1.0853  0.8142  0.6597
41807SOL    HW232662   8.771   6.336   3.151  0.2249  1.6479  0.0690
41808SOL     OW32663   8.443   3.524   9.286 -0.5113 -0.1214  0.0192
41808SOL    HW132664   8.508   3.527   9.356 -1.3714 -0.2880  0.8402
41808SOL    HW232665   8.488   3.561   9.210  0.7827 -0.8978  0.3647
41809SOL     OW32666   9.765   5.569  11.257  0.1011  0.0337 -0.5915
41809SOL    HW132667   9.699   5.555  11.189  1.3566  1.9405 -2.3125
41809SOL    HW232668   9.803   5.482  11.271 -1.1718 -0.6645 -1.2369
41810SOL     OW32669  10.075   9.105  10.929 -1.0153  0.1538  0.1383
41810SOL    HW132670  10.146   9.043  10.911 -1.4710 -0.2707 -0.2469
41810SOL    HW232671  10.062   9.152  10.847  0.9076  2.4718  1.0547
41811SOL     OW32672   0.286   5.113   9.754 -0.4768 -0.5388 -0.3076
41811SOL    HW132673   0.300   5.061   9.834  0.4605  1.3447  0.8202
41811SOL    HW232674   0.357   5.087   9.696  1.5134  1.1756  1.2144
41812SOL     OW32675   1.063  12.695  10.270 -0.0121  0.3590 -0.1604
41812SOL    HW132676   1.129  12.657  10.212 -0.4761  0.7359 -0.9439
41812SOL    HW232677   1.101  12.779  10.298  1.0131 -0.6227  1.5728
41813SOL     OW32678  10.830   2.393   7.201  0.5852 -0.2639 -0.4526
41813SOL    HW132679  10.762   2.365   7.141 -2.2494  1.0834  1.8579
41813SOL    HW232680  10.853   2.481   7.172  0.3453 -0.2117 -0.4874
41814SOL     OW32681   9.486  10.903   2.634 -0.0293 -0.0333 -0.5351
41814SOL    HW132682   9.500  10.936   2.723 -0.2493  1.4923 -1.0196
41814SOL    HW232683   9.423  10.832   2.643  2.4595 -2.1949  0.8740
41815SOL     OW32684   8.657   7.075   5.611  0.2443  0.6049 -0.7967
41815SOL    HW132685   8.712   7.149   5.636  1.1221 -0.2280 -0.1846
41815SOL    HW232686   8.637   7.090   5.519  0.8355  1.3419 -0.8153
41816SOL     OW32687   4.543   5.875   6.138 -0.0487 -0.1437  0.4522
41816SOL    HW132688   4.465   5.848   6.089 -0.5890  0.0313  1.1789
41816SOL    HW232689   4.539   5.823   6.219  0.5896 -0.1294  0.4925
41817SOL     OW32690   2.431   3.800   6.474  0.0454  0.1867 -0.2541
41817SOL    HW132691   2.380   3.722   6.455  0.7063 -0.0656 -1.0820
41817SOL    HW232692   2.522   3.771   6.468  0.2982  0.7994  0.4209
41818SOL     OW32693   0.248   8.806   4.456  0.1710 -0.3687  0.5682
41818SOL    HW132694   0.225   8.784   4.366  1.0774 -2.1604  0.7200
41818SOL    HW232695   0.166   8.831   4.497 -0.3403 -0.0669 -0.6075
41819SOL     OW32696   0.262   6.298   4.853 -0.7374 -0.3963 -0.2209
41819SOL    HW132697   0.307   6.383   4.847 -1.0473  0.1476  3.0100
41819SOL    HW232698   0.172   6.316   4.826 -0.9990  0.5766  1.1494
41820SOL     OW32699   8.388   1.536   7.692  0.2314 -0.0919  0.2145
41820SOL    HW132700   8.342   1.500   7.768 -1.2387 -0.8839 -0.9853
41820SOL    HW232701   8.479   1.544   7.721 -0.7764  2.7754  3.1142
41821SOL     OW32702   2.726  11.557   4.240  0.3572 -0.0762  0.2962
41821SOL    HW132703   2.710  11.473   4.284  0.3540  0.2106  0.8423
41821SOL    HW232704   2.811  11.586   4.273  0.9596 -0.4711 -0.8517
41822SOL     OW32705   3.921   0.034   6.400 -0.1269 -0.4371 -0.0774
41822SOL    HW132706   3.914   0.127   6.379  0.2574 -0.1087  1.1676
41822SOL    HW232707   3.929  -0.010   6.315  0.5100  0.7333 -0.6419
41823SOL     OW32708   7.784   6.774   4.009 -0.2992  0.4291 -0.1762
41823SOL    HW132709   7.872   6.754   3.977 -0.8165 -0.3643 -1.1855
41823SOL    HW232710   7.738   6.809   3.932 -0.6151  1.6666  0.5607
41824SOL     OW32711   8.607   3.526   8.462 -0.2288  0.2376 -0.2396
41824SOL    HW132712   8.687   3.508   8.412  1.0474  2.4829  0.8523
41824SOL    HW232713   8.544   3.558   8.397 -0.1436 -1.1571 -1.0477
41825SOL     OW32714   9.022   8.510   4.499 -0.5260 -0.6981  0.1334
41825SOL    HW132715   8.993   8.438   4.554  1.2666 -1.1571  0.5459
41825SOL    HW232716   9.081   8.561   4.555 -1.7510  1.1267 -0.1491
41826SOL     OW32717   9.875   2.299  12.700 -0.1352  0.2198 -0.3646
41826SOL    HW132718   9.932   2.274  12.627 -0.0643 -0.2515 -0.1547
41826SOL    HW232719   9.935   2.320  12.772 -0.2110 -1.7870  0.3477
41827SOL     OW32720  12.469   0.267   1.057 -0.2704 -0.0641  0.0424
41827SOL    HW132721  12.445   0.321   0.982 -1.2138  1.3327  1.2607
41827SOL    HW232722  12.443   0.179   1.033 -1.5093  0.5189 -0.8853
41828SOL     OW32723  11.239   4.242   5.765  0.7936 -0.2962  0.2332
41828SOL    HW132724  11.314   4.298   5.746  1.3549 -0.4665  1.7744
41828SOL    HW232725  11.277   4.158   5.790  0.1018 -0.3767  1.0645
41829SOL     OW32726   1.402   4.800  10.223  0.0335  0.0925 -0.1574
41829SOL    HW132727   1.405   4.881  10.274 -0.3344  0.3415 -0.5206
41829SOL    HW232728   1.314   4.799  10.185  0.2510 -0.1548 -0.6736
41830SOL     OW32729   0.840   6.176   8.214 -1.1665 -0.2547 -0.1158
41830SOL    HW132730   0.780   6.180   8.288 -0.7320 -0.9123  0.2791
41830SOL    HW232731   0.787   6.204   8.139 -1.7832 -0.1964  0.3326
41831SOL     OW32732   2.116   4.780   8.995  0.6881  0.4111 -0.6574
41831SOL    HW132733   2.158   4.837   9.060  0.4513  0.2550 -0.3644
41831SOL    HW232734   2.093   4.839   8.923 -0.4678  0.9031  0.0733
41832SOL     OW32735   7.908   9.695   5.742 -0.3776 -0.2949 -0.0279
41832SOL    HW132736   8.001   9.679   5.725  0.0561  2.2831 -0.5251
41832SOL    HW232737   7.868   9.701   5.656 -1.0838 -1.6381  0.1891
41833SOL     OW32738   0.523  11.934   4.414 -0.5683  0.2782 -0.0807
41833SOL    HW132739   0.572  11.853   4.406 -1.4279 -0.1484 -1.4611
41833SOL    HW232740   0.450  11.913   4.472  0.1503  0.5788  0.9748
41834SOL     OW32741  12.067   4.556   0.045  0.2703  0.2538 -0.8167
41834SOL    HW132742  11.985   4.564  -0.004 -0.2606 -0.6794 -0.1098
41834SOL    HW232743  12.099   4.646   0.051 -1.5762  0.9174  0.3023
41835SOL     OW32744  10.099   7.898  12.640 -0.0950  0.0835  0.6101
41835SOL    HW132745  10.112   7.971  12.701  0.0010  0.3061  0.3247
41835SOL    HW232746  10.162   7.914  12.570 -1.0294  0.4884 -0.1506
41836SOL     OW32747   4.641  10.202   9.509 -0.3727 -0.4993 -0.0482
41836SOL    HW132748   4.678  10.114   9.509 -0.5432 -0.5933 -1.3253
41836SOL    HW232749   4.676  10.243   9.588 -0.8245 -1.9205  0.9399
41837SOL     OW32750   6.755   9.208   2.298 -0.3709  0.3871 -0.0799
41837SOL    HW132751   6.784   9.275   2.359  3.3179 -2.4612  1.7196
41837SOL    HW232752   6.809   9.221   2.220  0.9140 -0.7958  0.5661
41838SOL     OW32753   1.806   2.702  10.966  0.2693  0.6276 -0.0489
41838SOL    HW132754   1.879   2.663  11.014 -0.6442 -0.9500  0.1076
41838SOL    HW232755   1.791   2.786  11.010  2.2352  1.2014 -0.3546
41839SOL     OW32756  12.195   3.984   6.018  0.2739  0.0401 -0.2270
41839SOL    HW132757  12.250   4.018   5.948  1.0735  1.9960  1.2499
41839SOL    HW232758  12.106   4.004   5.991  0.6375  1.8827 -0.1912
41840SOL     OW32759  11.778   7.213   5.942 -0.0570 -0.3277 -0.3751
41840SOL    HW132760  11.863   7.253   5.964 -0.4892  0.0177  0.7666
41840SOL    HW232761  11.793   7.119   5.950  0.0272 -0.2418  0.6532
41841SOL     OW32762   8.701   7.707  12.245 -0.0547 -0.3610 -0.0900
41841SOL    HW132763   8.665   7.738  12.163  1.2374  2.0486  0.1635
41841SOL    HW232764   8.625   7.692  12.301 -0.8911 -1.1674 -1.3861
41842SOL     OW32765   4.802  12.605   6.737 -0.2228  0.0369 -0.2183
41842SOL    HW132766   4.811  12.600   6.832 -0.7666  0.1584 -0.1577
41842SOL    HW232767   4.885  12.571   6.703 -0.4040 -0.9446  0.2827
41843SOL     OW32768   0.573   3.984   8.206  0.1288 -0.3979 -0.5670
41843SOL    HW132769   0.655   4.026   8.181  0.8619 -1.4316  0.0023
41843SOL    HW232770   0.599   3.920   8.273 -1.5763  1.6531  2.2689
41844SOL     OW32771   2.568   1.225   3.311  0.4444 -0.1128 -0.6747
41844SOL    HW132772   2.646   1.255   3.264  0.8806  0.8879  0.6148
41844SOL    HW232773   2.516   1.305   3.324  0.2670 -0.3835  0.3889
41845SOL     OW32774   6.226   1.718   3.733  0.0484 -0.3942 -0.7467
41845SOL    HW132775   6.151   1.730   3.675  0.9589 -2.0248 -2.3792
41845SOL    HW232776   6.301   1.745   3.681  0.7544 -0.3720  0.2565
41846SOL     OW32777   3.924   5.251   6.399  0.6965  0.2100 -0.3862
41846SOL    HW132778   3.957   5.197   6.469  1.1755 -0.2130 -0.9311
41846SOL    HW232779   3.946   5.341   6.425  0.9229  0.0523 -0.0311
41847SOL     OW32780   0.622   5.630   6.598  0.3858  0.7333 -0.5996
41847SOL    HW132781   0.558   5.691   6.562  0.3574  0.9077 -0.2469
41847SOL    HW232782   0.706   5.662   6.567  0.3027  0.4476 -1.1477
41848SOL     OW32783   3.702  12.041   1.478  0.1023  0.1968  0.7501
41848SOL    HW132784   3.669  12.016   1.392  0.1992 -3.8000  1.6881
41848SOL    HW232785   3.753  12.120   1.463  0.1648 -0.3988 -2.8649
41849SOL     OW32786   9.825   0.612   3.319  0.1165  0.3018  0.3177
41849SOL    HW132787   9.741   0.624   3.363 -0.9167  0.2773 -1.5633
41849SOL    HW232788   9.856   0.526   3.348 -0.7683  0.0678  0.5914
41850SOL     OW32789   0.131   3.958   7.873  0.1682 -0.1140 -0.3590
41850SOL    HW132790   0.088   3.938   7.790 -0.4308 -0.7781  0.1060
41850SOL    HW232791   0.089   4.039   7.902  0.7310  0.4021 -0.9326
41851SOL     OW32792   6.857   9.592  10.232  0.2521  0.0478 -0.0114
41851SOL    HW132793   6.782   9.613  10.175 -0.1266 -1.2857 -0.0359
41851SOL    HW232794   6.820   9.535  10.299  0.7124  1.5231  1.5575
41852SOL     OW32795   2.371  10.363   3.403 -0.0457  0.2312  0.2890
41852SOL    HW132796   2.392  10.308   3.478  1.4592 -0.1293 -0.3553
41852SOL    HW232797   2.451  10.413   3.387 -0.9148  1.5548 -0.0297
41853SOL     OW32798  12.287   5.558   0.801 -0.2733  0.1555  0.0157
41853SOL    HW132799  12.383   5.559   0.797 -0.2436 -0.8718  0.0986
41853SOL    HW232800  12.259   5.567   0.710 -0.0298 -1.7048 -0.2957
41854SOL     OW32801   2.893   6.515   2.274 -0.1038  0.1826 -0.5825
41854SOL    HW132802   2.810   6.557   2.254  0.0527  1.1591  0.6999
41854SOL    HW232803   2.881   6.477   2.361  0.3842 -0.7932 -0.9223
41855SOL     OW32804   2.105   5.165   8.785  0.0427 -0.3875 -0.6295
41855SOL    HW132805   2.055   5.188   8.863  0.3852 -3.7040  0.7418
41855SOL    HW232806   2.043   5.173   8.713 -1.1431 -0.0054  0.4036
41856SOL     OW32807   8.313   6.594  12.021 -0.4682  0.1309 -0.5555
41856SOL    HW132808   8.275   6.678  12.049 -1.3546 -0.3579 -0.2533
41856SOL    HW232809   8.300   6.536  12.096  1.4345  0.0902 -0.2087
41857SOL     OW32810   5.182   9.480   3.038 -0.6356  0.2591  0.8322
41857SOL    HW132811   5.144   9.533   2.968  0.4754  0.1679  0.1293
41857SOL    HW232812   5.184   9.391   3.003 -0.5130  0.1285  1.1683
41858SOL     OW32813   1.862   8.700   9.809  0.0073  0.1077  0.4084
41858SOL    HW132814   1.841   8.606   9.809  0.7790 -0.0749 -0.5503
41858SOL    HW232815   1.786   8.741   9.767 -0.1752 -0.1237  0.5069
41859SOL     OW32816   3.510   5.795   6.505 -0.0036 -0.2045  0.0392
41859SOL    HW132817   3.501   5.857   6.577  0.5123 -2.4164  2.1398
41859SOL    HW232818   3.424   5.753   6.500  0.6362 -1.7432  1.0912
41860SOL     OW32819   9.834   6.916   3.322  0.4593 -0.2065  0.2856
41860SOL    HW132820   9.847   7.011   3.320  1.1780 -0.3154 -0.3368
41860SOL    HW232821   9.886   6.887   3.397  0.5661 -0.1585  0.2302
41861SOL     OW32822   8.759   0.879   8.853  0.0935  0.2779  0.1954
41861SOL    HW132823   8.793   0.931   8.780 -1.5178  1.4416  0.2160
41861SOL    HW232824   8.724   0.944   8.915 -2.7738 -0.7514 -0.1594
41862SOL     OW32825  12.245  10.122   3.331 -0.5758  0.5081  0.5641
41862SOL    HW132826  12.193  10.089   3.404  1.4362  0.0563  1.8816
41862SOL    HW232827  12.296  10.047   3.302 -0.9654  0.8155 -1.0152
41863SOL     OW32828   9.401  11.722   4.819 -0.4429  0.3497 -0.0437
41863SOL    HW132829   9.393  11.782   4.744 -1.2411  0.7091  0.3168
41863SOL    HW232830   9.331  11.658   4.806  0.3140 -0.4276 -0.3467
41864SOL     OW32831   0.888   7.132  12.689  0.5052  0.3656 -0.4587
41864SOL    HW132832   0.883   7.064  12.756 -2.1080 -0.4615 -1.3560
41864SOL    HW232833   0.965   7.109  12.637  0.1653 -1.4443 -0.2252
41865SOL     OW32834   7.769   2.426   7.063  0.6363 -0.2235 -0.0122
41865SOL    HW132835   7.821   2.351   7.092  0.5730 -0.2169  0.1161
41865SOL    HW232836   7.826   2.472   7.001  1.1983  0.3812  0.9332
41866SOL     OW32837   1.091   0.575   5.516 -0.5124  0.5660  1.0326
41866SOL    HW132838   1.058   0.497   5.472 -0.9955  1.2729  0.1040
41866SOL    HW232839   1.024   0.642   5.499  0.2120  1.3577  1.2423
41867SOL     OW32840   0.906   1.239  10.464 -0.0827 -0.5682  0.3960
41867SOL    HW132841   0.938   1.236  10.554 -1.3248 -1.7663  0.8371
41867SOL    HW232842   0.853   1.160  10.456 -2.7960  1.2175 -0.3266
41868SOL     OW32843   3.864   5.751  10.887  0.4326 -0.3932  0.4335
41868SOL    HW132844   3.918   5.801  10.827 -0.5051 -0.6730 -0.6736
41868SOL    HW232845   3.837   5.814  10.954  0.9853  0.0710  0.2209
41869SOL     OW32846   9.913   8.714   4.457 -0.2578 -0.9092  0.1245
41869SOL    HW132847   9.952   8.720   4.370  0.6256  2.8736  0.6296
41869SOL    HW232848   9.824   8.683   4.442  0.8733 -3.7711 -1.6613
41870SOL     OW32849  12.707  10.409   8.243  0.1348 -0.7684  0.1885
41870SOL    HW132850  12.740  10.495   8.219  0.4851 -0.6449  1.0692
41870SOL    HW232851  12.639  10.390   8.179 -1.1084  0.8839  0.9360
41871SOL     OW32852   9.336   1.024   5.180  0.0139  0.0541  0.6029
41871SOL    HW132853   9.329   1.055   5.271 -0.0172 -1.3794  1.1179
41871SOL    HW232854   9.260   1.061   5.136  1.3927  3.0044  0.4090
41872SOL     OW32855   5.144   9.230   1.071  0.2621  0.0480  0.2489
41872SOL    HW132856   5.216   9.249   1.011  1.4151  1.5247  2.0001
41872SOL    HW232857   5.168   9.147   1.113 -0.1957 -0.6152 -0.7574
41873SOL     OW32858  12.360  11.795   4.251  0.4202 -0.2181 -0.0202
41873SOL    HW132859  12.276  11.751   4.238  0.8900 -1.2069  0.1817
41873SOL    HW232860  12.381  11.831   4.165 -0.1717 -0.0190 -0.0893
41874SOL     OW32861   6.076   9.866   6.788 -0.1397 -0.4347  0.1059
41874SOL    HW132862   6.075   9.933   6.719 -0.2292 -0.3384  0.2023
41874SOL    HW232863   6.169   9.851   6.805 -0.0976 -1.0437 -0.6083
41875SOL     OW32864   4.224   6.960   3.613 -0.6419 -0.1859  0.5734
41875SOL    HW132865   4.250   6.999   3.530 -0.2015  1.6142  1.5147
41875SOL    HW232866   4.212   7.034   3.672 -1.5969 -1.3821  1.9497
41876SOL     OW32867   1.040  10.391   6.660  0.3738  0.5758 -0.1537
41876SOL    HW132868   1.066  10.302   6.634  0.2461  0.2472  0.7787
41876SOL    HW232869   1.065  10.446   6.586  1.4840 -0.0784 -0.3014
41877SOL     OW32870   9.637   2.186   7.325 -0.0157 -0.8086 -0.2474
41877SOL    HW132871   9.630   2.272   7.284  0.2192 -1.2335 -1.2211
41877SOL    HW232872   9.581   2.130   7.271 -0.6335 -1.1601  0.7213
41878SOL     OW32873  10.663  12.515   7.895  0.0345 -0.0324  0.0207
41878SOL    HW132874  10.668  12.573   7.971  1.4034 -0.1576  0.0397
41878SOL    HW232875  10.604  12.444   7.923 -0.5914  0.6476  0.4564
41879SOL     OW32876   0.494   8.252   6.787 -0.2817 -0.2014 -0.6916
41879SOL    HW132877   0.437   8.307   6.840 -1.0173  0.6665 -2.2887
41879SOL    HW232878   0.508   8.303   6.707  1.0400 -1.3071 -1.2081
41880SOL     OW32879   8.237   5.712   2.395  0.4519  0.6940 -0.8707
41880SOL    HW132880   8.315   5.669   2.361 -0.0062 -0.4304 -0.5452
41880SOL    HW232881   8.175   5.711   2.322  0.8659  1.9715 -1.2664
41881SOL     OW32882   9.374  11.892  12.536  0.0457  0.0587 -0.6108
41881SOL    HW132883   9.426  11.968  12.565  0.5365 -0.1563 -0.9134
41881SOL    HW232884   9.285  11.926  12.528  0.3464  0.7373 -1.2254
41882SOL     OW32885   7.052  10.862   7.671  0.3620  0.1344 -0.4884
41882SOL    HW132886   7.057  10.839   7.578 -1.8050  1.9925 -1.1678
41882SOL    HW232887   6.996  10.940   7.673 -0.1080 -0.1811  2.4405
41883SOL     OW32888   5.986  12.392   7.196 -0.3602  0.5364  0.3722
41883SOL    HW132889   6.049  12.339   7.148  1.5742  1.6175  1.6106
41883SOL    HW232890   6.031  12.475   7.212 -2.2421  1.5145  0.9799
41884SOL     OW32891  11.882   5.209   0.575  0.3232  0.4596  0.3474
41884SOL    HW132892  11.941   5.140   0.543  0.2434 -0.1825  1.5370
41884SOL    HW232893  11.918   5.233   0.660  0.4855  2.0816 -0.1428
41885SOL     OW32894   8.267  10.589   4.347  0.1400  0.1515 -0.5416
41885SOL    HW132895   8.286  10.517   4.409  1.9898  1.0509  0.0201
41885SOL    HW232896   8.175  10.579   4.326  0.4759 -2.8244 -1.0396
41886SOL     OW32897   8.094   6.018   7.800  0.1945  0.3514 -0.3976
41886SOL    HW132898   8.067   5.940   7.752  0.2443 -0.4068  0.7688
41886SOL    HW232899   8.180   6.040   7.765  1.2939 -1.5966  0.9160
41887SOL     OW32900   1.072   7.570   0.198 -0.4374  0.0822  0.4634
41887SOL    HW132901   0.990   7.588   0.150 -1.2168  1.4270  2.1922
41887SOL    HW232902   1.053   7.597   0.288  1.3561 -1.2782  1.3030
41888SOL     OW32903   2.427   9.099   8.960  0.3726 -0.1078 -0.6111
41888SOL    HW132904   2.368   9.169   8.935  0.7341  0.1421 -0.7712
41888SOL    HW232905   2.452   9.119   9.050  0.3445 -0.1199 -0.6005
41889SOL     OW32906   8.830  10.222   5.640 -0.3644  0.5039 -0.1082
41889SOL    HW132907   8.765  10.209   5.571  0.4640 -0.7929 -0.6886
41889SOL    HW232908   8.905  10.260   5.596 -0.2427  0.7450  0.3017
41890SOL     OW32909   4.966   5.354   1.916 -0.5758 -0.5998 -0.0351
41890SOL    HW132910   4.922   5.296   1.854  0.7166 -1.2858 -0.3406
41890SOL    HW232911   4.895   5.405   1.955 -1.3761  0.2146 -2.4211
41891SOL     OW32912   7.145  12.494   1.099  0.5543 -0.2057  0.2010
41891SOL    HW132913   7.221  12.524   1.051 -0.0367  0.2929 -0.4454
41891SOL    HW232914   7.096  12.573   1.120 -0.1737 -0.5790 -0.0570
41892SOL     OW32915   7.030  12.496   7.236  0.0136 -0.3859 -0.2613
41892SOL    HW132916   7.026  12.590   7.256 -0.0904 -0.0410 -1.7339
41892SOL    HW232917   7.100  12.489   7.171  0.7549 -1.5068  0.6100
41893SOL     OW32918  12.173   0.020   8.488 -0.5415 -0.5864 -0.0793
41893SOL    HW132919  12.136   0.075   8.557 -0.8157  0.8985 -1.3539
41893SOL    HW232920  12.224  -0.046   8.535 -1.0958  0.0861  1.5465
41894SOL     OW32921   7.176   9.118  10.031 -0.2006 -0.0578  0.3392
41894SOL    HW132922   7.202   9.080   9.947 -0.1214  0.2623  0.2181
41894SOL    HW232923   7.232   9.195  10.041 -0.4124  0.0687  0.5477
41895SOL     OW32924  10.402  10.056   0.309 -0.1954  0.2857  0.7077
41895SOL    HW132925  10.452   9.977   0.288  0.3168  0.9689 -0.7881
41895SOL    HW232926  10.316  10.024   0.336 -0.0816 -0.7714 -0.1277
41896SOL     OW32927   0.242  10.012   3.218  0.0775 -0.4487  0.2241
41896SOL    HW132928   0.207  10.100   3.231 -0.7112 -1.0361  2.6748
41896SOL    HW232929   0.228   9.994   3.126 -0.6165  1.6263 -0.1341
41897SOL     OW32930   6.371   5.121   2.356 -0.5442 -0.1509 -0.5495
41897SOL    HW132931   6.402   5.056   2.293 -0.2422  0.0011 -0.5624
41897SOL    HW232932   6.325   5.070   2.423 -0.4188 -0.3632 -0.6235
41898SOL     OW32933   2.664  11.096   8.469 -0.4010  0.0782 -0.8997
41898SOL    HW132934   2.759  11.081   8.460  0.1100  3.1146 -1.5749
41898SOL    HW232935   2.631  11.015   8.508  2.6470 -0.6100  0.5552
41899SOL     OW32936   8.645   6.105   8.862 -0.1285 -0.4525 -0.0953
41899SOL    HW132937   8.561   6.122   8.818 -0.3958 -1.6865 -0.1000
41899SOL    HW232938   8.670   6.189   8.898 -0.3675  0.4015 -1.8204
41900SOL     OW32939   5.689   0.546   3.448 -0.1335  0.0812 -0.2272
41900SOL    HW132940   5.674   0.498   3.530 -0.6162  0.5145 -0.0613
41900SOL    HW232941   5.704   0.636   3.475  1.6477 -0.0928 -0.4698
41901SOL     OW32942  10.539   9.931   4.226  0.3647  0.0857 -0.2471
41901SOL    HW132943  10.471   9.867   4.248  1.3224 -0.3708  1.6245
41901SOL    HW232944  10.529   9.946   4.132 -2.4405  0.2179  0.0091
41902SOL     OW32945   5.029   1.996   1.488  0.2154  0.0808 -0.4027
41902SOL    HW132946   5.060   1.954   1.407  1.0804 -3.0834  1.3989
41902SOL    HW232947   5.105   1.996   1.545 -0.3045  2.5541  0.3925
41903SOL     OW32948   3.781  10.401   3.168  0.4711 -0.4722 -0.1515
41903SOL    HW132949   3.700  10.448   3.148  0.8951  0.6689  0.7243
41903SOL    HW232950   3.848  10.446   3.116  1.0222  0.4534  1.3083
41904SOL     OW32951   3.441   1.898   5.575  1.1088 -0.2878  1.0621
41904SOL    HW132952   3.351   1.878   5.599  0.1856  2.9825  0.7727
41904SOL    HW232953   3.452   1.857   5.489 -0.5063  0.1748  0.5955
41905SOL     OW32954  11.596   2.012   5.557  0.0515 -0.5697 -0.4530
41905SOL    HW132955  11.588   2.100   5.594 -0.3758 -0.1406 -1.5366
41905SOL    HW232956  11.661   2.020   5.488 -0.2859 -1.0144 -0.8290
41906SOL     OW32957   4.875   4.767   1.819 -0.3409 -0.3143  0.2730
41906SOL    HW132958   4.931   4.690   1.807 -0.5633 -0.3693 -0.4350
41906SOL    HW232959   4.855   4.767   1.913  0.6655 -0.4087  0.5022
41907SOL     OW32960   5.213   1.616   6.078 -0.2769  0.7509 -0.1157
41907SOL    HW132961   5.182   1.533   6.114  1.4905 -0.5581 -1.3633
41907SOL    HW232962   5.242   1.666   6.154 -2.4596  0.7615  0.7684
41908SOL     OW32963  10.520   7.766   4.928 -0.5177  0.1400 -0.4485
41908SOL    HW132964  10.446   7.713   4.956 -0.4018 -0.4418 -1.1883
41908SOL    HW232965  10.502   7.854   4.961 -1.9855  0.2190 -1.3756
41909SOL     OW32966   9.716  11.945  12.207 -0.1097  0.4779  0.2725
41909SOL    HW132967   9.627  11.965  12.177 -0.2092 -0.5159 -0.1340
41909SOL    HW232968   9.752  12.029  12.234 -0.4969  1.2371 -1.4150
41910SOL     OW32969   8.522  10.404   8.502  0.4398 -0.5708  0.2096
41910SOL    HW132970   8.473  10.405   8.420 -0.9204 -0.2969  0.9926
41910SOL    HW232971   8.471  10.460   8.561  0.5800 -1.9109  1.6718
41911SOL     OW32972   1.081   4.238   7.172 -0.2882 -0.1078  0.3118
41911SOL    HW132973   1.066   4.310   7.233  0.1910  1.0974 -0.9280
41911SOL    HW232974   1.148   4.184   7.214 -0.1501  0.5494  0.9576
41912SOL     OW32975   5.475   2.059   2.055 -0.5694 -0.2556  0.1648
41912SOL    HW132976   5.487   2.129   1.991 -0.8314 -0.2298  0.1442
41912SOL    HW232977   5.508   1.980   2.011  0.2308 -0.0569  0.3848
41913SOL     OW32978   2.069   3.290   0.899 -0.5596 -0.0814 -0.0794
41913SOL    HW132979   1.993   3.346   0.883  0.0770  0.4537 -1.3671
41913SOL    HW232980   2.144   3.349   0.899  0.2139 -0.9420 -2.2420
41914SOL     OW32981   2.406   7.766  12.191  0.2670  0.3372  0.2007
41914SOL    HW132982   2.347   7.695  12.216  0.5665 -0.3780 -1.0677
41914SOL    HW232983   2.357   7.846  12.213 -1.4427 -0.2252 -1.3586
41915SOL     OW32984   5.385   6.734   4.183 -0.5457 -0.4370 -0.2620
41915SOL    HW132985   5.453   6.799   4.200  0.0099 -1.2035  0.5093
41915SOL    HW232986   5.343   6.722   4.268 -3.6018  2.1133 -1.1910
41916SOL     OW32987   5.950   7.557   9.091  0.1730 -0.5273 -0.0339
41916SOL    HW132988   6.019   7.595   9.146  0.5571 -0.4784 -0.5461
41916SOL    HW232989   5.902   7.498   9.150  0.2196 -0.0458  0.5018
41917SOL     OW32990   2.595   5.233   5.620  0.0602  0.0117 -0.3241
41917SOL    HW132991   2.688   5.223   5.642 -0.1336 -0.0515  0.4932
41917SOL    HW232992   2.595   5.290   5.543  0.7604  0.2872 -0.1292
41918SOL     OW32993   6.780   7.786   1.336 -0.6567  0.1393 -0.1609
41918SOL    HW132994   6.851   7.747   1.285 -0.3063  0.0001  0.4295
41918SOL    HW232995   6.785   7.880   1.317 -0.3546  0.1225 -0.1678
41919SOL     OW32996   6.210   1.473   1.435  0.4563 -0.1999  0.4599
41919SOL    HW132997   6.228   1.386   1.400  4.8751 -0.0071  1.7109
41919SOL    HW232998   6.253   1.475   1.521  1.5062  3.4925  0.0470
41920SOL     OW32999  11.355   1.141   2.769 -0.0064  0.3035 -0.0798
41920SOL    HW133000  11.351   1.089   2.688  0.6724 -0.5198  0.4022
41920SOL    HW233001  11.448   1.142   2.793 -0.3897 -1.1258  1.7237
41921SOL     OW33002   9.735   4.558   8.334 -0.2858 -0.5168 -0.2267
41921SOL    HW133003   9.667   4.516   8.281  0.0681 -0.7357 -0.5154
41921SOL    HW233004   9.814   4.549   8.281 -0.2074  0.5371 -0.3017
41922SOL     OW33005   3.401   9.244   5.380  0.8646  0.0130  0.4309
41922SOL    HW133006   3.481   9.225   5.430  0.0843 -2.5948  0.8123
41922SOL    HW233007   3.356   9.311   5.432  2.4003  0.9767  0.5919
41923SOL     OW33008   7.985   0.431  11.679  0.0051  0.4177  0.5059
41923SOL    HW133009   8.076   0.419  11.706 -0.3982  0.7636  2.1202
41923SOL    HW233010   7.973   0.526  11.675 -0.7688  0.4407  2.2260
41924SOL     OW33011  10.905   5.814   2.532 -0.1575  0.0839  0.3080
41924SOL    HW133012  10.816   5.834   2.561  0.0097 -0.4870  1.2471
41924SOL    HW233013  10.898   5.802   2.438 -0.9046  0.9821  0.2398
41925SOL     OW33014   8.561   7.394   9.656 -0.1830 -0.0872  0.2906
41925SOL    HW133015   8.591   7.460   9.718  2.0219  0.1699 -0.9614
41925SOL    HW233016   8.525   7.443   9.582 -0.6699 -0.3533  0.3408
41926SOL     OW33017   5.613   0.143  11.800  0.3017 -0.0970 -0.1538
41926SOL    HW133018   5.597   0.071  11.739  1.8273 -0.7868  0.2177
41926SOL    HW233019   5.530   0.152  11.849  0.0044 -1.4351 -0.3737
41927SOL     OW33020   5.883  10.830   3.631  0.3906  0.0633  0.3023
41927SOL    HW133021   5.911  10.752   3.677  2.3014  0.4472 -0.1270
41927SOL    HW233022   5.930  10.902   3.673  1.0524  0.5924 -1.2630
41928SOL     OW33023  11.633   8.884   5.289 -0.1540 -0.0185  0.7282
41928SOL    HW133024  11.660   8.943   5.360  0.0439  0.7560  0.0228
41928SOL    HW233025  11.541   8.905   5.274  0.3163  1.2689 -0.5919
41929SOL     OW33026  11.662   2.744  12.218 -0.0953  0.0674  0.6994
41929SOL    HW133027  11.716   2.684  12.269 -0.3392  0.4229  1.3840
41929SOL    HW233028  11.725   2.800  12.171  0.1497 -1.3108 -0.6909
41930SOL     OW33029  10.351   4.135   2.519 -0.2658  0.5263  0.2625
41930SOL    HW133030  10.289   4.138   2.445 -0.8693  1.8301  0.7740
41930SOL    HW233031  10.359   4.227   2.545  1.9999  0.4005  0.1496
41931SOL     OW33032   0.060   1.755   8.693 -0.1764  0.4634  0.2900
41931SOL    HW133033   0.086   1.733   8.603  0.1327  3.7528 -0.5593
41931SOL    HW233034  -0.026   1.716   8.704  0.7900 -2.0609 -0.5079
41932SOL     OW33035   4.505   7.736   6.614  0.1928  0.9627 -0.6846
41932SOL    HW133036   4.573   7.679   6.579  0.6265  1.0596 -0.0313
41932SOL    HW233037   4.551   7.791   6.678 -0.8162 -0.2161  1.1635
41933SOL     OW33038  11.519   4.548   9.389  0.0166 -0.1373  0.0603
41933SOL    HW133039  11.612   4.524   9.395  0.4698  1.4296 -0.2867
41933SOL    HW233040  11.473   4.464   9.385  1.5378 -0.9436 -1.5333
41934SOL     OW33041   3.453  12.016   1.678  0.2316  0.1489  0.5105
41934SOL    HW133042   3.460  11.933   1.631  0.2667  1.1472 -1.3811
41934SOL    HW233043   3.359  12.029   1.690  0.1960  0.1025  0.2881
41935SOL     OW33044   7.552   9.833   4.962  0.1503 -0.0887 -0.1269
41935SOL    HW133045   7.629   9.842   5.018 -0.6324 -2.3387  1.4337
41935SOL    HW233046   7.509   9.918   4.966  0.7621  0.1765  1.7383
41936SOL     OW33047   0.797   9.098   4.196 -0.0917 -0.2809  0.0711
41936SOL    HW133048   0.782   9.070   4.286  0.0512 -1.0476 -0.1366
41936SOL    HW233049   0.861   9.169   4.203 -1.7497  1.2104  0.7432
41937SOL     OW33050   7.776  10.448  11.586  0.2395 -0.8584 -0.0178
41937SOL    HW133051   7.798  10.457  11.679 -0.6807 -0.9193  0.2240
41937SOL    HW233052   7.740  10.533  11.562  3.2805  0.2118 -1.1709
41938SOL     OW33053   6.320   0.942  11.511  1.0711 -0.0624 -0.1497
41938SOL    HW133054   6.312   1.036  11.499  0.5558 -0.0806 -0.0004
41938SOL    HW233055   6.289   0.926  11.600  0.5078 -0.4419 -0.4027
41939SOL     OW33056   7.102   7.211   1.148 -0.1346  0.4162  0.9284
41939SOL    HW133057   7.107   7.115   1.153 -1.5649  0.2932  0.2969
41939SOL    HW233058   7.107   7.231   1.055 -0.1066  0.9566  1.0422
41940SOL     OW33059   5.957   4.887  10.853 -0.1162 -0.2331 -0.4739
41940SOL    HW133060   6.008   4.857  10.929  0.9731 -1.5300 -1.6512
41940SOL    HW233061   6.000   4.968  10.826  0.5301 -0.6254 -0.6580
41941SOL     OW33062  10.248   7.201   2.832  0.8290  0.0923  0.8467
41941SOL    HW133063  10.274   7.197   2.924  1.6025 -0.3844  0.6209
41941SOL    HW233064  10.318   7.156   2.785  0.1092 -0.2660  0.0876
41942SOL     OW33065   4.822   8.639  11.250 -0.1944  0.3450  0.3383
41942SOL    HW133066   4.802   8.712  11.191 -1.1555 -0.3348 -0.2175
41942SOL    HW233067   4.877   8.581  11.197  0.1120  0.4072  0.5900
41943SOL     OW33068   6.820   6.350   9.332  0.2370  0.0831 -0.0704
41943SOL    HW133069   6.782   6.266   9.356  0.0214  0.3743  0.6577
41943SOL    HW233070   6.910   6.346   9.365  0.4195 -0.0930 -0.5832
41944SOL     OW33071   5.351   3.949  11.163 -0.1963  0.0125  0.4124
41944SOL    HW133072   5.432   3.975  11.118 -1.3160 -0.1100 -1.8101
41944SOL    HW233073   5.355   3.994  11.247  1.9361  0.4224  0.1590
41945SOL     OW33074   0.997   4.012   1.805  0.3666 -0.3131  0.2325
41945SOL    HW133075   1.023   4.071   1.735  3.2538 -1.4989  0.1882
41945SOL    HW233076   1.043   4.044   1.883 -0.4289 -0.7673  0.9183
41946SOL     OW33077   7.713  10.760  10.838  0.2535 -0.1913  0.0678
41946SOL    HW133078   7.737  10.851  10.852 -2.3052  0.7417 -0.8736
41946SOL    HW233079   7.617  10.761  10.840  0.1356 -3.1582  1.6193
41947SOL     OW33080   6.933   1.010   6.464 -0.1217  0.1715 -0.3826
41947SOL    HW133081   6.841   1.032   6.478 -0.0560  0.2244 -0.0281
41947SOL    HW233082   6.980   1.059   6.532  0.0707 -0.7125  0.1303
41948SOL     OW33083   9.478   3.886  10.321 -0.0736 -0.0006  0.5350
41948SOL    HW133084   9.544   3.817  10.332 -0.3982 -0.2830  0.7663
41948SOL    HW233085   9.399   3.839  10.293  0.2894  0.5300 -1.5535
41949SOL     OW33086  10.019   0.512   4.918  0.3042  0.1307 -0.2396
41949SOL    HW133087   9.934   0.469   4.910 -0.5009  1.4774  0.6696
41949SOL    HW233088   9.998   0.604   4.936  1.9451  0.3963  0.5089
41950SOL     OW33089   0.035   7.113   4.316  0.3908 -0.0714  0.1464
41950SOL    HW133090   0.048   7.135   4.223 -0.1209 -0.1944  0.0370
41950SOL    HW233091   0.053   7.195   4.363 -1.2439  0.5626 -0.2345
41951SOL     OW33092  10.593   1.880   4.746  0.4716  0.0970 -0.1972
41951SOL    HW133093  10.675   1.830   4.735 -0.8855 -2.0250 -1.5077
41951SOL    HW233094  10.573   1.873   4.839  1.6352  0.4438  0.0983
41952SOL     OW33095   7.542   0.380  12.310  0.4065  0.1362  0.4138
41952SOL    HW133096   7.535   0.346  12.399 -0.7361  0.7714  0.5743
41952SOL    HW233097   7.467   0.439  12.300 -0.1667 -0.8275 -1.3702
41953SOL     OW33098   1.870   2.332  10.311  0.1518 -0.5142  0.3147
41953SOL    HW133099   1.816   2.281  10.251 -2.0388  0.9206  0.9614
41953SOL    HW233100   1.901   2.268  10.375  1.8999 -1.9284 -1.8043
41954SOL     OW33101   0.187   4.905   8.900  0.3290  0.2222 -0.1093
41954SOL    HW133102   0.104   4.942   8.870  0.5630  0.8705  0.0238
41954SOL    HW233103   0.163   4.846   8.971 -0.1659 -0.8143 -1.1108
41955SOL     OW33104  10.607   4.274   4.970  0.3435  0.0589  0.5697
41955SOL    HW133105  10.598   4.198   4.913  1.1212  1.0285 -0.9351
41955SOL    HW233106  10.650   4.241   5.049  2.7072 -0.7610 -0.9355
41956SOL     OW33107   8.898   8.963   0.724  0.3430  0.0662 -0.1519
41956SOL    HW133108   8.954   9.024   0.772  0.0825  0.5978 -0.5060
41956SOL    HW233109   8.929   8.876   0.750  2.9271  0.2766 -2.1555
41957SOL     OW33110  11.110  12.095   7.952  0.4195  0.0157  0.4234
41957SOL    HW133111  11.104  12.172   7.896  1.0414 -0.9966 -1.1157
41957SOL    HW233112  11.021  12.083   7.986  0.1763  1.0324  0.1644
41958SOL     OW33113   6.001  11.933   8.952 -0.9019 -0.1027  0.1965
41958SOL    HW133114   6.086  11.904   8.985 -0.7253  1.2491  1.0057
41958SOL    HW233115   6.012  11.932   8.857  0.4626  1.1825  0.2880
41959SOL     OW33116  11.657   4.527   4.075 -0.0214 -0.0022  0.1782
41959SOL    HW133117  11.708   4.449   4.096 -0.2505 -0.2455 -0.1645
41959SOL    HW233118  11.621   4.510   3.988  1.2444  1.1487 -0.6183
41960SOL     OW33119   1.406  11.100   1.583  0.0706 -0.1964 -0.6068
41960SOL    HW133120   1.416  11.017   1.538  0.7674 -0.0983 -0.6468
41960SOL    HW233121   1.452  11.088   1.666  2.5730  0.9723 -1.7006
41961SOL     OW33122   9.058   7.517  11.646  0.1072 -0.0064 -0.4701
41961SOL    HW133123   9.026   7.553  11.729 -1.4715 -2.7130  0.2334
41961SOL    HW233124   9.152   7.505  11.659  0.2776  1.6381  0.0569
41962SOL     OW33125  11.467   7.050   7.021  0.2040  0.4244  0.2675
41962SOL    HW133126  11.551   7.090   7.047  1.4522 -1.0250 -1.2871
41962SOL    HW233127  11.478   6.957   7.041 -0.7209  0.0895 -0.7072
41963SOL     OW33128  12.661   9.392   4.688  0.2599  0.0287  0.1566
41963SOL    HW133129  12.708   9.419   4.608 -0.0727  1.5202  0.4289
41963SOL    HW233130  12.729   9.383   4.754  0.3155  0.8749  0.2206
41964SOL     OW33131   0.647   5.751   0.632  0.4932 -0.2585 -0.2217
41964SOL    HW133132   0.653   5.847   0.635 -1.0328 -0.1735  0.7809
41964SOL    HW233133   0.581   5.733   0.565 -1.2539 -0.4618  1.4655
41965SOL     OW33134   5.763   6.487   4.417  0.1964 -0.4189  0.2685
41965SOL    HW133135   5.702   6.534   4.475  0.6596 -1.4354  1.6208
41965SOL    HW233136   5.711   6.468   4.339 -0.8101 -0.0634  0.8298
41966SOL     OW33137   1.303  12.286   4.275  0.1012 -0.3560  0.2781
41966SOL    HW133138   1.209  12.308   4.275 -0.2448 -1.7406  0.0166
41966SOL    HW233139   1.306  12.197   4.307  1.2036 -0.8331 -1.0521
41967SOL     OW33140   5.802  12.378   3.141 -0.5904  0.2572 -0.0319
41967SOL    HW133141   5.868  12.360   3.073  0.3965  0.9755  0.7086
41967SOL    HW233142   5.816  12.470   3.164 -0.7544 -0.0320  1.3063
41968SOL     OW33143   3.754  10.668   5.142 -0.1070  0.2690  0.0252
41968SOL    HW133144   3.841  10.639   5.171  0.0175 -0.8354 -1.3334
41968SOL    HW233145   3.694  10.601   5.175 -0.1817 -0.0122 -0.6452
41969SOL     OW33146   2.910   5.613   1.626  0.1950 -0.4569  0.3027
41969SOL    HW133147   3.004   5.617   1.607  0.1700 -0.7288  0.1036
41969SOL    HW233148   2.873   5.689   1.582  0.5796  0.7641  2.0093
41970SOL     OW33149   7.167  10.987   1.591  0.4175  0.7238 -0.0225
41970SOL    HW133150   7.075  11.011   1.584 -0.2098 -1.7160 -1.4437
41970SOL    HW233151   7.180  10.966   1.683 -0.9792 -0.6701 -0.1115
41971SOL     OW33152   6.299  12.392   5.338  0.3435  0.1279 -0.2955
41971SOL    HW133153   6.269  12.308   5.302 -2.7103  1.0029 -0.0469
41971SOL    HW233154   6.292  12.453   5.264 -2.9652  1.2697  0.8038
41972SOL     OW33155   8.452  10.059  10.639 -0.3405 -0.4402 -0.0827
41972SOL    HW133156   8.530  10.014  10.671 -0.6926 -0.1370  1.2451
41972SOL    HW233157   8.380  10.024  10.691 -0.7378  1.0514  0.4292
41973SOL     OW33158   4.167   5.116   8.611 -0.7306 -0.3797 -0.3949
41973SOL    HW133159   4.215   5.098   8.692  0.1846  2.5611 -0.1543
41973SOL    HW233160   4.212   5.065   8.544 -0.5516 -1.6626  0.6559
41974SOL     OW33161   2.171   3.029   6.763 -1.1158 -0.0458  0.1898
41974SOL    HW133162   2.112   2.981   6.704 -0.7248 -1.0152  0.5617
41974SOL    HW233163   2.157   3.121   6.742 -1.3493 -0.3517 -1.0777
41975SOL     OW33164   4.917   5.530   9.174  0.4120 -0.2233  0.3809
41975SOL    HW133165   4.830   5.532   9.135  0.8844 -1.7005 -0.8646
41975SOL    HW233166   4.907   5.473   9.251 -0.0287  0.8776  1.1679
41976SOL     OW33167   9.217  10.285   9.859  0.3068 -0.0996  0.5580
41976SOL    HW133168   9.301  10.330   9.859  0.8478 -0.7738 -3.3899
41976SOL    HW233169   9.232  10.207   9.912  2.0475 -0.0325  0.2205
41977SOL     OW33170   5.709   6.461   1.179  0.5622  0.1049 -0.5760
41977SOL    HW133171   5.650   6.396   1.217  0.1650  1.2970  0.9817
41977SOL    HW233172   5.790   6.453   1.229  1.5456 -1.0416 -2.2408
41978SOL     OW33173   0.153  10.501   9.684  0.4767  0.9153 -0.9113
41978SOL    HW133174   0.240  10.472   9.658  0.7730 -0.1077  1.0040
41978SOL    HW233175   0.131  10.572   9.624  1.7012 -0.2511 -2.8144
41979SOL     OW33176  11.246   3.487   0.795 -0.2475 -0.1990 -0.0832
41979SOL    HW133177  11.289   3.534   0.867 -0.3864  0.5630 -0.4880
41979SOL    HW233178  11.160   3.528   0.788 -1.0861 -1.7104  0.7219
41980SOL     OW33179   7.939  12.508   7.371 -0.0687 -0.1779 -0.3886
41980SOL    HW133180   7.952  12.601   7.354  1.0783 -0.5505 -1.6415
41980SOL    HW233181   8.026  12.474   7.389 -0.2576 -1.2855 -1.4350
41981SOL     OW33182   2.262  11.464   9.978  0.0964 -0.4247 -0.3972
41981SOL    HW133183   2.191  11.518   9.944  0.8316 -0.8191 -2.7790
41981SOL    HW233184   2.219  11.384  10.008 -0.5271 -0.5300 -1.5190
41982SOL     OW33185   6.818   6.806  11.628  0.1491 -0.2744 -0.7669
41982SOL    HW133186   6.748   6.812  11.563 -0.9295 -0.5251  0.3509
41982SOL    HW233187   6.778   6.762  11.703  0.4371  2.7085  1.3138
41983SOL     OW33188   8.578   1.003  10.290  0.0099  0.1826 -0.9693
41983SOL    HW133189   8.592   0.919  10.247 -0.1015 -0.3108 -0.0758
41983SOL    HW233190   8.494   1.033  10.257 -0.1526 -0.2692 -0.9779
41984SOL     OW33191   9.449   9.324  12.288 -0.3252  0.0288 -0.5502
41984SOL    HW133192   9.421   9.301  12.200  1.7375 -1.4640 -0.8966
41984SOL    HW233193   9.508   9.399  12.276 -2.3333  1.7735 -0.0592
41985SOL     OW33194   9.714   1.411   2.104  0.3719 -0.4910 -0.4380
41985SOL    HW133195   9.795   1.363   2.090 -0.0469 -1.4876  0.4299
41985SOL    HW233196   9.653   1.346   2.139 -0.4053  0.5380  0.1864
41986SOL     OW33197  10.172   0.536   7.440  0.1723  0.0928  0.4231
41986SOL    HW133198  10.127   0.469   7.491  0.6830  0.2275  1.0632
41986SOL    HW233199  10.158   0.617   7.488 -0.4232  0.4561 -0.3364
41987SOL     OW33200   8.003   4.244  12.153 -0.0195  0.4957  0.2181
41987SOL    HW133201   8.055   4.182  12.101  0.3158 -0.2221  1.3677
41987SOL    HW233202   7.954   4.189  12.214 -0.3186  1.3245  0.7440
41988SOL     OW33203   8.712   9.718   4.537  0.3789 -0.1925  0.2776
41988SOL    HW133204   8.792   9.698   4.587  0.1921 -1.1101  0.2299
41988SOL    HW233205   8.701   9.642   4.479  1.0207  1.1686 -1.7254
41989SOL     OW33206   8.252  11.728   7.980  0.3857  0.0224 -0.4530
41989SOL    HW133207   8.217  11.676   8.052  0.3772 -0.4735 -0.8109
41989SOL    HW233208   8.245  11.671   7.903  0.9414  0.3257 -0.7378
41990SOL     OW33209   5.546   9.018   8.393  0.4007 -0.2854 -0.5931
41990SOL    HW133210   5.548   8.929   8.360  2.1707 -0.3048 -0.4849
41990SOL    HW233211   5.536   9.073   8.315 -2.2020 -0.5771 -0.5606
41991SOL     OW33212   2.225   8.128   3.076 -0.4408 -0.4382 -0.1392
41991SOL    HW133213   2.146   8.085   3.109 -0.8369  0.2289 -0.2007
41991SOL    HW233214   2.193   8.208   3.035  0.3307  0.2051  0.4719
41992SOL     OW33215   5.000   8.406  10.181 -0.0657 -0.9013  0.7566
41992SOL    HW133216   5.091   8.376  10.185  0.7240  1.2165  0.1025
41992SOL    HW233217   4.971   8.380  10.094  0.3970 -0.3349  0.4279
41993SOL     OW33218  11.558   8.865   6.714  0.4818 -0.8539 -0.3279
41993SOL    HW133219  11.480   8.810   6.708 -0.9621  1.0162  0.2679
41993SOL    HW233220  11.552   8.925   6.640  0.5803  0.2339  0.5170
41994SOL     OW33221  11.534   3.108   8.797  0.0714 -0.2895 -0.1527
41994SOL    HW133222  11.487   3.190   8.783 -1.0249 -0.6010  1.4090
41994SOL    HW233223  11.616   3.119   8.749 -0.6897  1.1101 -1.2133
41995SOL     OW33224  10.762  11.783  12.631  0.2034  0.0937 -0.4000
41995SOL    HW133225  10.836  11.725  12.613  0.0588 -0.4410  0.6026
41995SOL    HW233226  10.788  11.868  12.596 -0.8410 -1.1723 -4.8503
41996SOL     OW33227   8.665   8.800   2.363 -0.0850  0.1496  0.4856
41996SOL    HW133228   8.621   8.879   2.331  0.9432  0.5983  0.1328
41996SOL    HW233229   8.599   8.755   2.414 -0.3691  1.8339  1.6936
41997SOL     OW33230   7.398  12.387  10.451 -0.5069  0.0427  0.2370
41997SOL    HW133231   7.371  12.479  10.444  0.0891  0.2722  0.8277
41997SOL    HW233232   7.416  12.361  10.361 -0.8852  0.4353  0.0389
41998SOL     OW33233  12.466   4.793  12.560  0.4750  0.1590 -0.0355
41998SOL    HW133234  12.423   4.732  12.620  0.7345 -0.5685 -0.5635
41998SOL    HW233235  12.434   4.879  12.585 -0.2774 -0.2425  0.4149
41999SOL     OW33236   3.488   8.062   0.267 -0.2460  0.0351 -0.3881
41999SOL    HW133237   3.518   8.152   0.260 -2.1054  0.9343  1.8467
41999SOL    HW233238   3.533   8.027   0.344  0.4271 -0.9718 -1.2067
42000SOL     OW33239   5.750  10.059   8.665  0.3683 -0.0118  0.0574
42000SOL    HW133240   5.821  10.000   8.638 -0.2666 -1.4464  1.3723
42000SOL    HW233241   5.760  10.068   8.759 -1.0819 -0.0982  0.2436
42001SOL     OW33242   0.926   2.668   8.656  0.0812  0.3291  0.0821
42001SOL    HW133243   0.864   2.698   8.722 -0.6128  0.1284 -0.4717
42001SOL    HW233244   0.985   2.743   8.643  1.2446 -0.1708  2.0786
42002SOL     OW33245   0.364  11.426  11.866 -0.2870  0.4071  0.8321
42002SOL    HW133246   0.323  11.433  11.952 -3.1631  0.5264 -0.4553
42002SOL    HW233247   0.383  11.332  11.857 -1.5574  0.1191  0.9497
42003SOL     OW33248   7.792  11.727   1.798  0.1900 -0.1853 -0.1594
42003SOL    HW133249   7.767  11.635   1.791 -1.6452  0.3516 -1.5069
42003SOL    HW233250   7.812  11.740   1.890  0.2588 -1.8619  0.0936
42004SOL     OW33251  10.761  10.112   7.859  0.1078  0.6231  0.3831
42004SOL    HW133252  10.679  10.154   7.832  1.2138  1.7549 -1.5096
42004SOL    HW233253  10.829  10.158   7.809  1.8441 -0.7504  1.3359
42005SOL     OW33254   0.039  12.109   9.740 -0.0344  0.2691 -0.6447
42005SOL    HW133255   0.106  12.107   9.809 -0.9165  0.5497  0.2534
42005SOL    HW233256   0.041  12.021   9.702  0.1534 -0.0429  0.0672
42006SOL     OW33257  11.598  11.857   0.236 -0.4030 -0.1733 -0.2382
42006SOL    HW133258  11.539  11.879   0.163 -1.5781 -1.5417  0.2450
42006SOL    HW233259  11.595  11.762   0.241  1.2076 -0.2170  0.3708
42007SOL     OW33260   2.147   8.167   9.824 -0.3411 -0.5158  0.5599
42007SOL    HW133261   2.119   8.163   9.915  0.6475 -0.8524  0.8686
42007SOL    HW233262   2.237   8.201   9.829 -0.8632  1.1468 -0.4267
42008SOL     OW33263   3.400   0.219   2.391 -0.6960  0.0259 -0.3850
42008SOL    HW133264   3.450   0.248   2.315 -0.1968  0.8981  0.2563
42008SOL    HW233265   3.310   0.244   2.372 -0.4239  1.1199 -0.2726
42009SOL     OW33266   6.032   8.762  11.520 -0.0436 -0.1702 -0.1706
42009SOL    HW133267   6.049   8.813  11.599 -0.6493  1.4144 -1.0209
42009SOL    HW233268   6.082   8.681  11.533  1.4678  0.8709  0.9583
42010SOL     OW33269   5.578   8.632   6.475  0.1454 -0.3682 -0.0039
42010SOL    HW133270   5.556   8.560   6.534  0.6351  1.3891  2.4924
42010SOL    HW233271   5.515   8.701   6.497  0.9319  0.6821 -0.9203
42011SOL     OW33272   5.732   1.351   9.517  0.5974  0.4670 -0.8068
42011SOL    HW133273   5.744   1.369   9.424  1.2571  0.8512 -0.6510
42011SOL    HW233274   5.637   1.362   9.531  0.7722  2.7385 -0.9701
42012SOL     OW33275   6.522   3.148   4.289  0.3407 -0.3398 -0.2038
42012SOL    HW133276   6.553   3.221   4.342 -0.6617  0.4813 -0.7173
42012SOL    HW233277   6.602   3.109   4.254  1.0516 -1.0194  1.9912
42013SOL     OW33278  12.655   5.252   5.044 -0.0407 -0.1183 -0.0412
42013SOL    HW133279  12.681   5.283   4.957  1.9337 -1.4001  0.0262
42013SOL    HW233280  12.662   5.329   5.101  1.1513  0.1821 -0.5605
42014SOL     OW33281   0.081   7.894   4.028 -0.7175 -0.7811 -0.3241
42014SOL    HW133282   0.004   7.875   4.082 -0.9529 -1.6183 -0.9260
42014SOL    HW233283   0.111   7.809   3.998  0.2840 -0.4338 -0.3286
42015SOL     OW33284   1.828   4.651   4.684 -0.9100 -0.0711 -0.6062
42015SOL    HW133285   1.774   4.642   4.762  1.8622 -0.9459  1.3800
42015SOL    HW233286   1.873   4.735   4.695  1.6185 -1.4438  0.3183
42016SOL     OW33287  12.602   5.654   4.218  0.2786 -0.0616  0.1632
42016SOL    HW133288  12.648   5.691   4.293  0.5533  1.5841 -0.7670
42016SOL    HW233289  12.620   5.560   4.223  1.9632  0.2731  1.0251
42017SOL     OW33290   7.769   1.418  10.089  0.2739 -0.3301 -0.1508
42017SOL    HW133291   7.755   1.326  10.067  0.7162 -0.4392  0.0139
42017SOL    HW233292   7.682   1.457  10.084  0.4364 -0.1169 -3.0701
42018SOL     OW33293   8.662  10.688   8.617  0.4041  0.5065 -0.3386
42018SOL    HW133294   8.619  10.605   8.637 -0.6501  0.9367 -0.7070
42018SOL    HW233295   8.689  10.722   8.702 -0.3156  0.3786 -0.0454
42019SOL     OW33296   0.962  11.172   5.311  0.3172 -0.6691  0.8368
42019SOL    HW133297   1.020  11.097   5.297  4.4169  1.9977  1.4907
42019SOL    HW233298   0.956  11.179   5.406  0.7413  0.2520  0.8086
42020SOL     OW33299   0.913   8.407   0.566 -0.1706 -0.4848 -0.5626
42020SOL    HW133300   0.822   8.431   0.546 -0.8467 -0.2356  2.3349
42020SOL    HW233301   0.957   8.490   0.581  0.1334 -0.6594 -0.4786
42021SOL     OW33302  10.828  12.382   7.714  0.1589 -0.9010  0.2189
42021SOL    HW133303  10.822  12.291   7.743 -0.7068 -0.8107  0.3505
42021SOL    HW233304  10.763  12.428   7.767  0.2789 -0.2827 -0.1598
42022SOL     OW33305   8.642   4.370   7.587  0.2879 -0.2371  0.1741
42022SOL    HW133306   8.671   4.328   7.668 -0.5729  0.4611  0.8607
42022SOL    HW233307   8.664   4.307   7.518  0.0137 -1.3349  1.0653
42023SOL     OW33308  11.984  10.340   0.824 -0.4673 -0.7364  0.0528
42023SOL    HW133309  11.999  10.416   0.880  0.9134 -1.0441  0.1518
42023SOL    HW233310  11.986  10.374   0.735  1.0574 -0.7438  0.0519
42024SOL     OW33311  11.855   7.338   3.908  0.4283 -0.8494 -0.2908
42024SOL    HW133312  11.930   7.398   3.917 -0.9310  0.5965  3.7646
42024SOL    HW233313  11.880   7.262   3.961 -0.5357 -0.8173  0.2211
42025SOL     OW33314   1.601  10.597   3.601  0.1515  0.2742  0.0122
42025SOL    HW133315   1.544  10.526   3.573 -1.0058  1.2067 -0.0903
42025SOL    HW233316   1.593  10.663   3.532  1.4841  0.3768 -0.0751
42026SOL     OW33317   6.020   0.764   6.694  0.9121  0.0344  0.1004
42026SOL    HW133318   6.054   0.674   6.693  1.6748  0.3129 -1.0759
42026SOL    HW233319   6.097   0.818   6.712  0.4383  0.4570  0.9082
42027SOL     OW33320   9.798   8.143   7.587 -0.1173  0.0786  0.0601
42027SOL    HW133321   9.709   8.123   7.615 -0.8840 -0.5134 -2.4684
42027SOL    HW233322   9.835   8.058   7.562  1.6220  0.1558  2.1497
42028SOL     OW33323   2.806   6.131   7.284  0.2728  0.2875  0.5470
42028SOL    HW133324   2.782   6.112   7.375  0.3739 -1.7976  0.1949
42028SOL    HW233325   2.778   6.221   7.270 -1.1514  0.1545  2.1865
42029SOL     OW33326   1.812  12.598   8.019 -0.3413 -0.0340  0.5720
42029SOL    HW133327   1.777  12.567   8.102 -2.7617  0.6655 -0.1040
42029SOL    HW233328   1.743  12.581   7.955  1.7620 -1.3453 -1.5326
42030SOL     OW33329   4.802   0.529   3.182 -0.2896  0.3842 -0.0996
42030SOL    HW133330   4.752   0.452   3.210 -1.4518  1.0139 -0.3820
42030SOL    HW233331   4.741   0.579   3.129  0.8352  0.9055 -0.9375
42031SOL     OW33332   4.418   0.154   7.031 -0.3690 -0.0309  0.1547
42031SOL    HW133333   4.374   0.219   7.087  0.2637 -0.2805  0.9693
42031SOL    HW233334   4.348   0.093   7.007 -1.0372  1.1005 -0.8795
42032SOL     OW33335   2.855   7.276   0.561  0.1010  0.4386 -0.2396
42032SOL    HW133336   2.800   7.335   0.612 -0.6056  0.2781 -0.7958
42032SOL    HW233337   2.793   7.227   0.507  0.6608 -0.9099  0.3017
42033SOL     OW33338   4.126   2.821   3.271 -0.0709 -0.5586 -0.4120
42033SOL    HW133339   4.176   2.797   3.349 -1.6190  1.6055  1.3675
42033SOL    HW233340   4.193   2.834   3.204  1.5155 -0.5279  1.0863
42034SOL     OW33341   3.293  10.891  11.976 -0.6065 -0.0517 -0.2107
42034SOL    HW133342   3.314  10.854  11.890 -0.6415  1.1351 -0.7498
42034SOL    HW233343   3.206  10.930  11.965 -0.4974  0.3445  0.2789
42035SOL     OW33344   5.798   1.934   6.511  0.1783 -1.1012 -0.1634
42035SOL    HW133345   5.881   1.887   6.520 -0.3613 -2.1692 -0.6791
42035SOL    HW233346   5.767   1.945   6.601  0.5713 -1.2588 -0.0071
42036SOL     OW33347  11.496   0.526   9.429  0.0298 -0.0476  0.4809
42036SOL    HW133348  11.413   0.481   9.414  0.5040 -0.3874 -1.3823
42036SOL    HW233349  11.471   0.614   9.457 -0.9103 -0.9115  2.5945
42037SOL     OW33350   8.394   9.352   2.254 -0.1337  0.0877 -0.5677
42037SOL    HW133351   8.333   9.279   2.253  0.6202 -0.5738 -0.1112
42037SOL    HW233352   8.478   9.313   2.279  0.0668  1.2767  0.7671
42038SOL     OW33353  11.730   9.669   2.949  0.1642  0.1571  0.3905
42038SOL    HW133354  11.799   9.608   2.921 -0.3975 -0.0721 -0.5294
42038SOL    HW233355  11.714   9.646   3.041  0.7666 -0.3070  0.3864
42039SOL     OW33356   2.909   7.641  12.099  0.6604 -0.0736 -0.2567
42039SOL    HW133357   2.876   7.566  12.048  0.6993 -2.0172  2.3554
42039SOL    HW233358   2.978   7.604  12.153  0.6656  1.8724  1.1527
42040SOL     OW33359   0.773   9.563  11.936 -0.0990 -0.4771 -0.3150
42040SOL    HW133360   0.785   9.647  11.979 -1.5862  0.1965 -1.1378
42040SOL    HW233361   0.801   9.498  12.001 -0.0440  0.5993  0.7590
42041SOL     OW33362   9.654   6.173   7.772  0.0116  0.5435 -0.3533
42041SOL    HW133363   9.738   6.150   7.813 -0.7558 -1.5358  0.2024
42041SOL    HW233364   9.607   6.221   7.841  0.0896  0.1725 -0.0344
42042SOL     OW33365   5.104   0.843   5.055  0.8870 -0.6996  0.7230
42042SOL    HW133366   5.152   0.905   5.110  2.0860 -1.5453  0.6757
42042SOL    HW233367   5.127   0.757   5.089 -0.5595 -1.1406  0.6318
42043SOL     OW33368   2.295   4.872   1.938  0.4183 -0.1443  0.8898
42043SOL    HW133369   2.349   4.874   1.859  0.2142  0.4007  0.7628
42043SOL    HW233370   2.213   4.834   1.910  0.2096  0.3968  0.7476
42044SOL     OW33371   6.521   1.313   0.221  0.0923 -0.4070 -0.7214
42044SOL    HW133372   6.470   1.389   0.194 -0.9322 -0.7419  0.2125
42044SOL    HW233373   6.611   1.345   0.227  0.0631  0.1389 -2.5927
42045SOL     OW33374  11.383   1.310   5.994  0.2955  0.3642 -0.2465
42045SOL    HW133375  11.456   1.251   5.978  1.2294  1.3795  0.1622
42045SOL    HW233376  11.415   1.371   6.060 -1.3401  0.0980  0.8660
42046SOL     OW33377   9.623  12.525   8.064  0.4221 -0.0714  0.0862
42046SOL    HW133378   9.694  12.477   8.021  0.6228 -0.1240  0.4781
42046SOL    HW233379   9.559  12.458   8.087  0.7809 -0.1796  0.7898
42047SOL     OW33380   1.560   8.594   1.998 -0.0297 -0.3392 -0.6597
42047SOL    HW133381   1.632   8.637   2.043 -1.4531  0.0833  1.3701
42047SOL    HW233382   1.493   8.662   1.990 -1.1726 -1.3687 -0.1183
42048SOL     OW33383   3.634   3.278   0.441 -0.0515  0.2826  0.4240
42048SOL    HW133384   3.583   3.319   0.370  1.1160  0.0680 -0.5686
42048SOL    HW233385   3.686   3.349   0.477 -0.5271  0.3570  0.9825
42049SOL     OW33386  10.549   1.555   5.679  0.2013 -0.0231  0.4509
42049SOL    HW133387  10.619   1.537   5.743  0.0186 -0.0776  0.6374
42049SOL    HW233388  10.535   1.649   5.686  1.5572  0.3205 -0.9396
42050SOL     OW33389  12.682   3.419   5.983 -0.1877 -0.2201  0.1817
42050SOL    HW133390  12.766   3.457   5.958 -0.3580 -0.2404 -0.4359
42050SOL    HW233391  12.622   3.494   5.989 -0.0527 -0.1600  0.9808
42051SOL     OW33392   8.228  11.913   2.011  0.0523 -0.1182  0.3036
42051SOL    HW133393   8.216  11.854   2.085  1.4933 -0.8665 -0.0136
42051SOL    HW233394   8.309  11.883   1.970  0.0045  1.1387 -0.7707
42052SOL     OW33395   4.998   1.993   4.361  0.0869 -0.3558 -0.1044
42052SOL    HW133396   5.018   1.938   4.286 -0.2512 -1.3003  0.4670
42052SOL    HW233397   4.921   1.951   4.401  0.6916 -0.3090  1.1651
42053SOL     OW33398   3.774   4.065   2.799 -0.2609  0.7817 -0.0404
42053SOL    HW133399   3.811   4.126   2.862 -0.3350  0.9397 -0.1476
42053SOL    HW233400   3.839   3.996   2.790  0.3699  1.4635 -0.8274
42054SOL     OW33401   3.629   5.982   7.405  0.0019 -0.1807  0.2151
42054SOL    HW133402   3.558   5.970   7.468 -0.6179  1.1142 -0.2049
42054SOL    HW233403   3.665   6.068   7.426  0.7530 -0.3689 -0.2657
42055SOL     OW33404   9.081   9.094  11.458  0.1329 -0.4050 -0.7328
42055SOL    HW133405   9.019   9.093  11.385 -0.3677  1.7344 -0.4272
42055SOL    HW233406   9.027   9.075  11.535  0.1642 -0.1528 -0.6473
42056SOL     OW33407   2.035   0.001  10.079  0.6307  0.3875 -0.2819
42056SOL    HW133408   1.958   0.045  10.115  1.3964  1.2650  0.3385
42056SOL    HW233409   2.037   0.029   9.987 -1.0374 -1.4442 -0.9405
42057SOL     OW33410   6.707  12.405   2.929  0.2118  0.4315 -0.2527
42057SOL    HW133411   6.639  12.372   2.871 -0.2517 -1.7847  1.4030
42057SOL    HW233412   6.783  12.350   2.911  0.5374  0.7280  0.1754
42058SOL     OW33413   9.593   6.785   1.932  0.1298  0.3331 -0.1266
42058SOL    HW133414   9.603   6.869   1.977  2.0489 -0.2341  0.6009
42058SOL    HW233415   9.582   6.809   1.840  0.9996  1.3823  0.0182
42059SOL     OW33416  10.278   4.115   5.250  0.3033 -0.0380  0.2899
42059SOL    HW133417  10.189   4.122   5.214  0.2388  0.4809  0.5454
42059SOL    HW233418  10.299   4.022   5.243 -0.1214 -0.1085 -0.1045
42060SOL     OW33419   2.964   9.831   7.834 -0.0232 -0.3763  0.7845
42060SOL    HW133420   2.899   9.877   7.782  0.4433  1.0342  1.4077
42060SOL    HW233421   2.913   9.768   7.886 -0.9864  1.0378  1.6271
42061SOL     OW33422   5.032   6.367  10.309 -0.3807  0.5166 -0.0614
42061SOL    HW133423   4.967   6.357  10.379 -0.8500 -0.8209 -0.6636
42061SOL    HW233424   5.069   6.454  10.324  0.2791 -0.1158  2.4689
42062SOL     OW33425  10.193   4.424   1.309 -0.2339 -0.4577  0.1054
42062SOL    HW133426  10.131   4.362   1.271 -1.6845  0.8968  0.1188
42062SOL    HW233427  10.231   4.469   1.233  0.4203 -0.9842  0.1140
42063SOL     OW33428   3.278  10.031   5.637  0.1772  0.0448  0.5326
42063SOL    HW133429   3.210   9.967   5.657  0.9746 -1.0740 -0.1755
42063SOL    HW233430   3.232  10.115   5.633 -2.2372 -1.1229 -4.5162
42064SOL     OW33431   7.141   4.288   0.245  0.2278  0.1629 -0.1492
42064SOL    HW133432   7.182   4.351   0.185 -1.4081  1.2626 -0.1729
42064SOL    HW233433   7.201   4.285   0.320  1.4160  0.0839 -1.0610
42065SOL     OW33434   4.449  10.757   4.292  0.3151 -0.4288 -0.4271
42065SOL    HW133435   4.451  10.669   4.328  0.3147 -0.7944 -1.2941
42065SOL    HW233436   4.472  10.814   4.366  3.1472 -1.3506 -0.4796
42066SOL     OW33437   9.959   1.717   8.873 -0.5885 -0.5823 -0.1661
42066SOL    HW133438  10.054   1.725   8.863 -0.7875  0.7235 -1.5525
42066SOL    HW233439   9.945   1.691   8.964  1.1871 -3.3400 -0.5921
42067SOL     OW33440  11.835   3.748   7.692  0.6747 -0.2425 -0.1273
42067SOL    HW133441  11.824   3.773   7.784  1.4648 -1.0920  0.2139
42067SOL    HW233442  11.899   3.811   7.658  0.0444  0.3529 -0.2248
42068SOL     OW33443   6.588   0.570   3.780 -0.4104 -0.0704 -0.2500
42068SOL    HW133444   6.624   0.481   3.772 -0.7869 -0.3285  0.8288
42068SOL    HW233445   6.654   0.619   3.828 -0.4796  0.0718 -0.2986
42069SOL     OW33446  12.468  11.770   0.527  0.0547 -0.4911 -0.1429
42069SOL    HW133447  12.478  11.860   0.558 -1.6303  0.0579 -1.0286
42069SOL    HW233448  12.550  11.750   0.482  0.2696  0.7863 -0.3579
42070SOL     OW33449   7.673   0.504   4.438  0.1854  0.0977 -0.2424
42070SOL    HW133450   7.705   0.495   4.348  0.5427 -0.2599 -0.0816
42070SOL    HW233451   7.750   0.532   4.488  0.2302 -0.6853  0.1340
42071SOL     OW33452   3.723   6.828  10.528  0.7162 -0.3469  0.0523
42071SOL    HW133453   3.650   6.847  10.469  1.4877  1.4065 -0.4091
42071SOL    HW233454   3.687   6.839  10.616  0.0629 -0.9810 -0.1307
42072SOL     OW33455   7.596   8.692   2.981  0.2379 -0.3246 -0.2118
42072SOL    HW133456   7.513   8.738   2.993 -0.5755 -1.3209 -1.6584
42072SOL    HW233457   7.660   8.761   2.969 -0.5701  0.4569 -0.1698
42073SOL     OW33458   3.046   2.986   3.500 -0.0002 -0.0438  0.8771
42073SOL    HW133459   3.058   3.079   3.483 -1.1888  0.2940  1.8312
42073SOL    HW233460   3.127   2.959   3.543 -0.3608  0.9542  2.2087
42074SOL     OW33461   0.484   0.504   5.195 -0.3854 -0.8428  0.1294
42074SOL    HW133462   0.535   0.585   5.202 -1.2523 -0.0742 -1.8257
42074SOL    HW233463   0.413   0.515   5.257 -0.7971  0.1670 -0.4880
42075SOL     OW33464   3.429   5.382   4.516 -0.3409  0.0974 -0.4222
42075SOL    HW133465   3.471   5.457   4.473  0.1782 -0.2965 -0.6055
42075SOL    HW233466   3.335   5.396   4.502 -0.4986  2.2290  1.9803
42076SOL     OW33467   1.250   3.617   9.927  0.2638 -0.2053 -0.4499
42076SOL    HW133468   1.341   3.589   9.919  0.5358  0.0068  1.3878
42076SOL    HW233469   1.254   3.697   9.980 -0.9700 -0.1324 -0.4337
42077SOL     OW33470   0.843   0.386  11.975  0.2425 -0.3507  0.1345
42077SOL    HW133471   0.747   0.388  11.981  0.1687 -0.7171 -0.8163
42077SOL    HW233472   0.870   0.475  11.997 -0.3626 -0.0403 -0.3478
42078SOL     OW33473   1.381   6.495   0.599  0.0011  0.6936  0.3112
42078SOL    HW133474   1.353   6.415   0.643  0.4491 -0.1329 -0.8552
42078SOL    HW233475   1.375   6.563   0.666  1.6354 -0.6854  1.9570
42079SOL     OW33476  11.785   6.065   7.257  0.3684 -0.1682  0.3343
42079SOL    HW133477  11.773   6.076   7.162  0.0626  0.5281  0.4520
42079SOL    HW233478  11.853   6.128   7.280  0.0052  0.0984  0.6847
42080SOL     OW33479   7.671   2.889   3.042 -0.3157  0.0479  0.3484
42080SOL    HW133480   7.627   2.809   3.013  3.2175 -2.2622  0.5935
42080SOL    HW233481   7.717   2.921   2.965  0.8901 -0.1291  0.9602
42081SOL     OW33482  10.376  11.745   6.057  0.2540  0.5539  0.0386
42081SOL    HW133483  10.423  11.662   6.064 -0.0447  0.4417  0.8224
42081SOL    HW233484  10.438  11.803   6.012  1.8904  0.9041  2.5111
42082SOL     OW33485   0.607   2.460   8.098  0.5693 -0.1003 -0.0518
42082SOL    HW133486   0.652   2.380   8.071  1.2926  0.5063 -0.6704
42082SOL    HW233487   0.677   2.521   8.122 -0.0013 -0.4749  2.9619
42083SOL     OW33488   7.166   2.868   0.379  0.1401  0.0143 -0.0040
42083SOL    HW133489   7.114   2.789   0.386 -0.5628  0.5021  0.4413
42083SOL    HW233490   7.121   2.921   0.313  0.5819  0.0642 -0.2707
42084SOL     OW33491   4.120   5.802   9.396 -0.4363 -0.1867 -0.4305
42084SOL    HW133492   4.185   5.739   9.428  0.6109  0.8849 -0.3901
42084SOL    HW233493   4.118   5.870   9.463  0.4347  1.1627 -1.7182
42085SOL     OW33494   4.999   5.067   2.945 -0.2276  0.0956 -0.3251
42085SOL    HW133495   5.093   5.051   2.945 -0.1325  0.6177  0.0265
42085SOL    HW233496   4.960   4.979   2.944  0.2766 -0.3541  3.5278
42086SOL     OW33497  12.611  10.807   8.511  0.4060 -0.2219 -0.3403
42086SOL    HW133498  12.641  10.773   8.595 -0.3729  1.1279  0.5267
42086SOL    HW233499  12.566  10.733   8.470 -1.3504 -0.3120  1.5314
42087SOL     OW33500   7.920   4.280   4.585  0.0460  0.1171  0.2680
42087SOL    HW133501   7.964   4.214   4.532  0.5450 -0.3707  1.2549
42087SOL    HW233502   7.828   4.253   4.586  0.0725  0.0040 -0.1428
42088SOL     OW33503  10.073   4.197  12.201  0.3889 -0.1355  0.3212
42088SOL    HW133504  10.026   4.176  12.120  2.2727 -0.6913 -0.6775
42088SOL    HW233505  10.020   4.158  12.270  0.0693 -1.9439 -0.8856
42089SOL     OW33506   5.785  10.973   2.674 -0.1427 -0.2765 -0.1914
42089SOL    HW133507   5.690  10.975   2.671 -0.1644  2.1360  0.0452
42089SOL    HW233508   5.806  10.907   2.741 -1.6865 -0.0927  0.5135
42090SOL     OW33509   4.955   3.584   4.520  0.8498  0.2357 -0.4202
42090SOL    HW133510   4.980   3.536   4.599 -0.3117 -0.9058 -0.7206
42090SOL    HW233511   4.934   3.672   4.552 -0.7385 -0.5090  0.7822
42091SOL     OW33512   4.688  10.281   1.816  0.2459 -0.0402  0.6709
42091SOL    HW133513   4.765  10.240   1.778  0.0220 -0.2071  0.3929
42091SOL    HW233514   4.660  10.345   1.751  0.4527  0.3839  0.9980
42092SOL     OW33515   1.164   4.611  11.368 -0.0338 -0.0878 -0.5535
42092SOL    HW133516   1.226   4.605  11.440 -2.1210 -0.7898  1.3070
42092SOL    HW233517   1.170   4.702  11.339  0.2763  0.4460  1.0784
42093SOL     OW33518   5.834   3.428   0.816 -0.4696 -0.2294 -0.7744
42093SOL    HW133519   5.844   3.338   0.847  0.4182  0.6325  1.6194
42093SOL    HW233520   5.759   3.462   0.865  0.4856  0.9477 -0.0845
42094SOL     OW33521  10.453  10.179  12.203 -0.3787 -0.2955 -0.2167
42094SOL    HW133522  10.368  10.171  12.160  0.0524 -1.1548 -0.9453
42094SOL    HW233523  10.433  10.188  12.296 -1.3213  1.3755 -0.5500
42095SOL     OW33524   9.462   8.028   9.849 -0.3781 -0.1225  0.0875
42095SOL    HW133525   9.422   8.053   9.933 -1.5346 -0.1820 -0.4283
42095SOL    HW233526   9.490   8.111   9.811  0.4209 -0.1218  0.6565
42096SOL     OW33527   8.798   9.007   6.834 -0.3962  0.2872  0.2372
42096SOL    HW133528   8.707   8.997   6.807 -1.0459 -0.4709  2.4521
42096SOL    HW233529   8.814   9.101   6.833 -1.6274  0.5224  1.0195
42097SOL     OW33530   1.196   0.688   3.605 -0.2148  0.5310  0.1494
42097SOL    HW133531   1.186   0.614   3.545  0.2170  1.1055 -0.6494
42097SOL    HW233532   1.190   0.765   3.549  1.6769  1.0517  0.5938
42098SOL     OW33533   3.619   1.410   8.859 -0.0984 -0.1862  0.0887
42098SOL    HW133534   3.597   1.442   8.772 -0.5111  1.6848  0.8220
42098SOL    HW233535   3.572   1.469   8.919  4.6461  2.4731  1.7278
42099SOL     OW33536   5.296   5.116   0.428 -0.5111  0.1961 -0.8413
42099SOL    HW133537   5.205   5.124   0.458 -0.5727  0.8131 -1.1836
42099SOL    HW233538   5.341   5.192   0.465  0.0611 -0.5149 -0.0229
42100SOL     OW33539   8.551  10.865   5.775 -0.2737  0.6365  0.1282
42100SOL    HW133540   8.547  10.935   5.841 -0.7643 -0.4006  1.2578
42100SOL    HW233541   8.588  10.791   5.823 -0.6211 -0.1361 -0.7825
42101SOL     OW33542  11.770  12.080   9.372 -0.5320  0.0142  0.2212
42101SOL    HW133543  11.701  12.112   9.314  1.0169 -1.1221 -2.4375
42101SOL    HW233544  11.841  12.144   9.362 -0.0288 -0.5061  0.4061
42102SOL     OW33545   0.898   3.560  11.194 -0.1148  0.2869 -0.5695
42102SOL    HW133546   0.987   3.592  11.181 -0.0015  1.1959  1.9865
42102SOL    HW233547   0.906   3.492  11.260 -1.2761  0.0866 -0.6080
42103SOL     OW33548   8.057  11.338   2.868  0.0124 -0.4020  0.1615
42103SOL    HW133549   8.029  11.308   2.955  0.9977  1.3173  1.1332
42103SOL    HW233550   8.072  11.431   2.879 -0.6824  0.0353 -2.1250
42104SOL     OW33551   1.699  10.859  10.853 -0.2118 -0.3329 -0.1540
42104SOL    HW133552   1.642  10.904  10.916  1.2965  0.1377  0.9091
42104SOL    HW233553   1.672  10.767  10.859 -1.0497 -0.0814  0.1114
42105SOL     OW33554   3.249   5.138   6.642 -0.2044  0.8354 -0.5687
42105SOL    HW133555   3.247   5.186   6.560  1.1999  1.4857 -0.2569
42105SOL    HW233556   3.309   5.188   6.698  0.3482 -0.6115  0.1857
42106SOL     OW33557   7.094   9.883   8.453 -0.1378 -0.3576 -0.1964
42106SOL    HW133558   7.115   9.956   8.511  0.9716 -1.6143  1.0673
42106SOL    HW233559   7.008   9.904   8.417 -0.3623  0.9848  1.0392
42107SOL     OW33560   2.036  11.505   9.366 -0.3170  0.3072  0.2621
42107SOL    HW133561   2.117  11.543   9.401 -1.7687  2.9792  1.0871
42107SOL    HW233562   1.997  11.461   9.441  0.4107 -1.1340 -0.1808
42108SOL     OW33563   0.247  11.911   1.105  0.2753  0.0614  0.3213
42108SOL    HW133564   0.212  11.824   1.090 -0.7695  0.6803 -0.9746
42108SOL    HW233565   0.221  11.932   1.194 -0.3180 -0.5617  0.3041
42109SOL     OW33566   5.758   6.963  11.480  0.0312 -0.0057  0.4112
42109SOL    HW133567   5.819   6.895  11.451 -0.4114 -0.1931 -0.0879
42109SOL    HW233568   5.744   6.944  11.573  0.7543  0.0592  0.5395
42110SOL     OW33569   2.186   7.183   9.882  0.2766 -0.5371  0.2382
42110SOL    HW133570   2.255   7.133   9.838 -0.9304 -2.0872 -0.0054
42110SOL    HW233571   2.123   7.116   9.911  0.4712  0.4933  3.3815
42111SOL     OW33572   2.975  12.687   1.122 -0.6334 -0.6021 -0.8731
42111SOL    HW133573   2.977  12.775   1.085  0.2199 -0.7918 -1.3201
42111SOL    HW233574   2.891  12.651   1.095 -0.9992  0.0821 -0.6662
42112SOL     OW33575   6.075  10.186   6.669 -0.4380  0.7058  0.1195
42112SOL    HW133576   6.111  10.116   6.615 -0.8890 -0.3793  1.1591
42112SOL    HW233577   6.007  10.226   6.615  0.4531  0.9619 -0.8291
42113SOL     OW33578   0.553   7.070   9.555  0.3570  0.3420 -0.5165
42113SOL    HW133579   0.522   7.137   9.615  0.8625  1.6659 -1.6950
42113SOL    HW233580   0.479   7.053   9.497  0.6085  0.7835 -0.9780
42114SOL     OW33581   7.834   4.231   7.895 -0.0713  0.1154  0.0995
42114SOL    HW133582   7.763   4.189   7.846  0.7554 -0.1388 -0.9226
42114SOL    HW233583   7.874   4.160   7.945  0.8507 -0.2148 -1.0510
42115SOL     OW33584   8.562   4.353  12.661  0.1707 -0.5855  0.0074
42115SOL    HW133585   8.550   4.298  12.738 -0.2765  0.8538  1.0139
42115SOL    HW233586   8.513   4.433  12.681  2.3774  1.0056 -0.5334
42116SOL     OW33587   3.775   2.975   2.454 -0.2806 -0.2391 -0.1380
42116SOL    HW133588   3.708   2.906   2.454  0.5093 -1.0282  0.7106
42116SOL    HW233589   3.728   3.054   2.426 -1.5377 -0.7961  0.3336
42117SOL     OW33590   5.152   6.804   7.985  0.5628 -0.3286  0.4683
42117SOL    HW133591   5.164   6.832   8.076  1.9524 -0.7641  0.4344
42117SOL    HW233592   5.175   6.711   7.985 -4.0390 -1.7267  0.6052
42118SOL     OW33593  10.049   0.168   5.886  0.2168  0.5450 -0.1846
42118SOL    HW133594   9.975   0.189   5.830 -0.1204 -1.5838 -0.5987
42118SOL    HW233595  10.014   0.110   5.953  1.2987  0.3495  0.2434
42119SOL     OW33596  10.378   9.616   1.011  0.1971 -0.6204 -0.2494
42119SOL    HW133597  10.309   9.674   0.979 -0.1186 -0.5177  0.5844
42119SOL    HW233598  10.435   9.602   0.935 -0.8024 -0.8089 -0.9794
42120SOL     OW33599   7.081   3.851   6.433 -0.0747 -0.5422 -0.0426
42120SOL    HW133600   7.101   3.762   6.405  0.0332 -0.6897  0.5012
42120SOL    HW233601   6.997   3.843   6.477  0.9730 -0.7818  2.0076
42121SOL     OW33602  11.701  11.534  12.436  0.0287 -0.1819  0.5110
42121SOL    HW133603  11.794  11.524  12.415 -0.4708 -0.6779 -1.7923
42121SOL    HW233604  11.685  11.628  12.434  0.6704 -0.0289  1.9572
42122SOL     OW33605   7.213   5.385  12.033 -0.2151 -0.1870  0.1029
42122SOL    HW133606   7.205   5.322  11.962 -0.0758 -1.3435  1.0737
42122SOL    HW233607   7.152   5.456  12.010 -0.6909 -0.8725 -0.8053
42123SOL     OW33608   8.793   0.344   1.554  0.1091  0.0801 -0.2130
42123SOL    HW133609   8.707   0.303   1.561 -0.6849  1.4919 -1.1606
42123SOL    HW233610   8.848   0.295   1.615 -1.6270 -0.1425  1.2699
42124SOL     OW33611  11.165  11.444   4.812 -0.1067 -0.0204  0.1741
42124SOL    HW133612  11.115  11.512   4.856  0.3280 -0.9017  2.1825
42124SOL    HW233613  11.145  11.364   4.862 -0.2251 -1.2828 -1.7922
42125SOL     OW33614   6.042   6.158  11.215 -0.3937  0.6991  0.4817
42125SOL    HW133615   6.054   6.210  11.135  1.3189  0.2086  0.3914
42125SOL    HW233616   5.997   6.218  11.275 -0.6420  1.4652 -0.4336
42126SOL     OW33617   0.859   7.518   3.382 -0.3291 -0.0031  0.3279
42126SOL    HW133618   0.940   7.498   3.429 -0.8717 -1.8252  0.5580
42126SOL    HW233619   0.834   7.435   3.340 -0.2667  1.3339 -2.6148
42127SOL     OW33620  12.365   2.436   2.972 -0.5719  0.2788 -0.1876
42127SOL    HW133621  12.280   2.395   2.983 -0.9218  1.3785  1.6007
42127SOL    HW233622  12.427   2.363   2.967 -1.4004 -0.4940  0.6193
42128SOL     OW33623   6.944   3.908   8.034 -0.2942 -0.0333  0.2390
42128SOL    HW133624   6.867   3.962   8.015  0.0022 -0.0105 -0.9887
42128SOL    HW233625   6.914   3.845   8.100 -1.0474  0.6844  0.5961
42129SOL     OW33626   5.036  10.963   8.132  0.2734  0.3196  0.3097
42129SOL    HW133627   5.066  10.974   8.222  1.6766 -0.3254 -0.0624
42129SOL    HW233628   5.056  10.872   8.111  1.8626  0.9874 -1.3267
42130SOL     OW33629   2.539  11.600  10.870 -0.3222  0.1597  0.1803
42130SOL    HW133630   2.513  11.587  10.961  1.1985 -1.5729  0.4365
42130SOL    HW233631   2.627  11.636  10.875  1.2504 -3.1810 -0.4494
42131SOL     OW33632   3.513   9.288   7.402  0.7206  0.5778  0.6027
42131SOL    HW133633   3.557   9.262   7.321 -2.0423  0.4955 -0.9905
42131SOL    HW233634   3.478   9.206   7.437 -2.4235  1.1049 -0.9491
42132SOL     OW33635   5.598   0.664   5.398 -0.4217  0.0157 -0.0583
42132SOL    HW133636   5.577   0.612   5.320  0.1575  0.1885 -0.3332
42132SOL    HW233637   5.665   0.613   5.443  0.0061  0.4287 -0.2265
42133SOL     OW33638  10.665  11.808  10.488  0.0226 -0.1697 -0.8078
42133SOL    HW133639  10.686  11.716  10.470 -1.6063 -0.7492  0.0609
42133SOL    HW233640  10.650  11.811  10.583 -2.5415  0.4030 -1.1725
42134SOL     OW33641  10.816   0.739  12.429  0.2252  0.6142  0.6958
42134SOL    HW133642  10.893   0.787  12.402  1.1936 -1.5930 -0.8025
42134SOL    HW233643  10.825   0.730  12.524  2.5108 -0.6180  0.4285
42135SOL     OW33644   1.012   4.995   9.672 -0.6685 -0.0058  0.2423
42135SOL    HW133645   0.991   4.992   9.765 -1.6702 -2.3470 -0.0066
42135SOL    HW233646   0.992   4.907   9.639  0.9210  0.3583 -1.9281
42136SOL     OW33647   3.439  11.176  10.980 -0.0427 -0.3012  0.0454
42136SOL    HW133648   3.484  11.180  11.065  0.1559  2.0495 -0.0956
42136SOL    HW233649   3.493  11.230  10.922 -1.4093  0.0477 -0.9485
42137SOL     OW33650  11.368   4.918   0.569 -0.4981  0.0292 -0.3680
42137SOL    HW133651  11.344   4.974   0.496 -1.5824 -0.3345 -0.3063
42137SOL    HW233652  11.285   4.885   0.602  0.0804 -1.1263 -0.0202
42138SOL     OW33653   8.269   7.978  12.666  0.2857  0.1430  0.1030
42138SOL    HW133654   8.198   8.011  12.612  0.6730 -1.0987 -1.2296
42138SOL    HW233655   8.343   7.968  12.606  0.6283 -1.5882  0.7399
42139SOL     OW33656   3.680   1.012   0.960 -0.4698  0.0395 -0.2546
42139SOL    HW133657   3.664   1.094   1.006 -1.6805 -1.3475  1.9743
42139SOL    HW233658   3.749   1.033   0.896  1.8518  1.9811  2.6192
42140SOL     OW33659   1.117   4.185   1.607  0.7201 -0.4162  0.1151
42140SOL    HW133660   1.192   4.136   1.641  0.2397 -1.3127 -0.0874
42140SOL    HW233661   1.135   4.276   1.631  2.0046 -0.5676 -0.1641
42141SOL     OW33662   7.007  10.592   4.103  0.2518 -0.1632  0.2505
42141SOL    HW133663   7.062  10.514   4.096  0.9449 -0.1357  3.5592
42141SOL    HW233664   7.068  10.665   4.091  0.2044 -0.1300  0.2107
42142SOL     OW33665   9.648   9.813   8.937  0.3906  0.0013 -0.3883
42142SOL    HW133666   9.724   9.813   8.995  0.7755  0.3343 -0.8803
42142SOL    HW233667   9.576   9.847   8.990  0.7582  0.3845 -0.1373
42143SOL     OW33668   3.408   8.233   9.666 -0.1671  0.1803  0.4558
42143SOL    HW133669   3.470   8.284   9.719 -0.5915  1.5806 -0.3314
42143SOL    HW233670   3.463   8.173   9.616  0.4128  0.2930  0.9420
42144SOL     OW33671   0.925   5.728   7.390  0.7637  0.4024  0.0916
42144SOL    HW133672   0.852   5.749   7.332  0.3355  1.1169  0.8496
42144SOL    HW233673   0.945   5.811   7.434  1.8134  0.1368  0.1438
42145SOL     OW33674   4.042   0.259  12.386 -0.2523 -0.2198  0.5846
42145SOL    HW133675   4.039   0.249  12.291  1.8527 -2.7137  0.6592
42145SOL    HW233676   4.135   0.260  12.407 -0.6768  0.4214  2.6281
42146SOL     OW33677   7.624  11.511   0.255 -0.2925 -0.1105  0.1099
42146SOL    HW133678   7.710  11.523   0.215 -1.0394  1.0418 -1.2675
42146SOL    HW233679   7.633  11.433   0.310  1.6433  0.0503  0.0847
42147SOL     OW33680   8.024   3.160   7.076  0.6103  0.1706 -0.4021
42147SOL    HW133681   7.966   3.085   7.064  1.4069 -0.6116  0.5178
42147SOL    HW233682   8.110   3.129   7.048  0.8851  0.8626 -0.3618
42148SOL     OW33683   2.577   8.625   0.021  0.2297 -0.1037 -0.4708
42148SOL    HW133684   2.632   8.548   0.006 -1.2038 -1.2078 -0.3385
42148SOL    HW233685   2.516   8.625  -0.053 -1.3409 -0.5488  0.7549
42149SOL     OW33686   5.390  11.491   7.996  0.2994  0.3018  0.3444
42149SOL    HW133687   5.321  11.557   7.993  0.4356  0.4174 -1.1110
42149SOL    HW233688   5.362  11.429   8.064 -1.9428 -0.3789 -1.0826
42150SOL     OW33689   8.974   3.106   1.607 -0.0754  0.0716  0.2048
42150SOL    HW133690   8.890   3.141   1.637  0.7248  1.3807  1.0670
42150SOL    HW233691   8.953   3.024   1.564 -1.9961  1.2323 -1.2144
42151SOL     OW33692   3.014  12.339   6.141  0.4642 -0.0752 -0.1579
42151SOL    HW133693   2.968  12.317   6.223  1.7965  1.9136  1.2034
42151SOL    HW233694   2.962  12.410   6.103 -1.0012 -1.9595 -1.9295
42152SOL     OW33695   5.619   0.603   3.857 -0.4648 -0.2916  0.4933
42152SOL    HW133696   5.616   0.681   3.912 -1.0036 -0.0645  0.1546
42152SOL    HW233697   5.686   0.548   3.897  0.3046  0.5772  0.4132
42153SOL     OW33698   8.761  11.445   1.349 -0.4960  0.1381 -0.3075
42153SOL    HW133699   8.680  11.490   1.329 -0.1179  0.5545 -0.9685
42153SOL    HW233700   8.817  11.462   1.272 -0.7282 -2.3729 -1.1195
42154SOL     OW33701   9.379   4.335   8.564  0.0760  0.3472 -0.1176
42154SOL    HW133702   9.333   4.402   8.513 -0.2372  0.5522  0.4234
42154SOL    HW233703   9.414   4.275   8.499 -0.4248  0.5382 -0.5684
42155SOL     OW33704   1.310  11.218   0.294 -0.3164 -0.3260  0.1396
42155SOL    HW133705   1.229  11.214   0.244  0.4420  0.2342 -1.2105
42155SOL    HW233706   1.338  11.127   0.302 -0.9693 -0.5048  0.4379
42156SOL     OW33707   3.924  11.472   0.508 -0.2355 -0.6006  0.0849
42156SOL    HW133708   3.888  11.509   0.589  0.6950 -0.6787  0.5410
42156SOL    HW233709   3.912  11.540   0.443  0.5556  0.1282  0.6850
42157SOL     OW33710   9.726   2.612   8.245  0.5450  0.2525 -0.0182
42157SOL    HW133711   9.665   2.604   8.319  0.2939  1.4483 -0.0746
42157SOL    HW233712   9.709   2.699   8.210  1.2754  0.0291 -0.9560
42158SOL     OW33713   7.611   9.061   1.306  0.3243 -0.0232  0.4714
42158SOL    HW133714   7.588   9.132   1.365 -0.1508 -0.5110  0.8840
42158SOL    HW233715   7.705   9.069   1.294  0.1480  1.2635 -0.2582
42159SOL     OW33716   8.878  12.406   1.703 -0.0676  0.0490 -0.7846
42159SOL    HW133717   8.927  12.355   1.768  0.3033  0.2273 -0.9272
42159SOL    HW233718   8.787  12.398   1.732  0.2819  1.9685  1.0570
42160SOL     OW33719   7.931   0.976   9.000 -0.5398 -0.3330  0.2058
42160SOL    HW133720   8.018   0.937   8.992 -0.3583  0.0072  0.4888
42160SOL    HW233721   7.943   1.051   9.058 -0.9820 -0.1550  0.0759
42161SOL     OW33722   7.369   2.462   3.902  0.1503  0.3531  0.4242
42161SOL    HW133723   7.290   2.512   3.925  0.5550  1.2941 -0.1333
42161SOL    HW233724   7.365   2.454   3.806  1.2619  1.3978  0.2585
42162SOL     OW33725  12.425  11.280   3.374 -0.1034  0.0450  0.0819
42162SOL    HW133726  12.461  11.339   3.441 -0.7207  1.3178 -0.6633
42162SOL    HW233727  12.376  11.214   3.424  0.7097  0.0754  0.9482
42163SOL     OW33728   1.182   7.690  11.777  0.4280  0.1508 -0.1157
42163SOL    HW133729   1.237   7.617  11.751  0.2689 -0.2650  0.6770
42163SOL    HW233730   1.136   7.716  11.697  0.3309 -0.7473 -0.3627
42164SOL     OW33731   5.513  10.640   6.571  0.2226  0.1603  0.1011
42164SOL    HW133732   5.572  10.677   6.506 -0.0606  0.5920  0.0847
42164SOL    HW233733   5.497  10.712   6.632 -0.4168  0.0960  0.0152
42165SOL     OW33734   1.905  11.325   0.597  0.5533 -0.2189  0.2764
42165SOL    HW133735   1.952  11.269   0.535  0.7852 -0.1563  0.3967
42165SOL    HW233736   1.973  11.368   0.647  0.3639 -0.3117  0.6142
42166SOL     OW33737   1.038  10.309   4.918 -0.2513  0.0155 -0.2162
42166SOL    HW133738   0.980  10.233   4.923 -0.1582 -0.0422  0.0301
42166SOL    HW233739   0.995  10.376   4.970 -0.5063  0.2520 -0.7259
42167SOL     OW33740   1.499   1.784   0.765  0.2212 -0.2229  0.2680
42167SOL    HW133741   1.424   1.781   0.824 -0.0332  0.4190 -0.0172
42167SOL    HW233742   1.467   1.831   0.688  1.6209  2.3155  1.1453
42168SOL     OW33743  10.258   1.857   5.122  0.2444 -0.1969  0.4911
42168SOL    HW133744  10.203   1.898   5.056  0.6040  0.1171  0.3833
42168SOL    HW233745  10.273   1.769   5.089  0.9775  0.1664 -0.1896
42169SOL     OW33746   0.167   9.755   1.453  0.2413  0.2216 -0.5512
42169SOL    HW133747   0.257   9.745   1.422  1.3540  0.7455  2.2246
42169SOL    HW233748   0.144   9.846   1.430  0.6420  0.2812 -0.7307
42170SOL     OW33749   1.863   6.777   4.666 -0.0631  0.1301  0.2392
42170SOL    HW133750   1.954   6.787   4.695  0.6235 -0.9438 -1.3625
42170SOL    HW233751   1.817   6.850   4.707  2.0502  2.2838 -0.9012
42171SOL     OW33752   5.597   4.036  11.092 -0.0757  0.4250  0.2468
42171SOL    HW133753   5.651   4.063  11.166 -0.1948  0.5371  0.2923
42171SOL    HW233754   5.658   3.993  11.033 -0.0155  0.1581  0.5008
42172SOL     OW33755   9.159   1.638   1.139  0.0020 -0.7057 -0.2663
42172SOL    HW133756   9.096   1.643   1.211  1.1071  1.3497  0.6471
42172SOL    HW233757   9.243   1.660   1.180  0.5540  1.2718 -2.3014
42173SOL     OW33758   1.604   3.645   3.363 -0.3072  0.2804  0.3962
42173SOL    HW133759   1.649   3.682   3.440  1.1620  0.1647 -0.3747
42173SOL    HW233760   1.513   3.673   3.373 -0.4060 -0.6195  2.7332
42174SOL     OW33761   2.808  12.066  11.500  0.1417  0.1890 -0.3582
42174SOL    HW133762   2.799  12.039  11.409  2.9113 -0.9529 -0.3998
42174SOL    HW233763   2.720  12.062  11.536 -1.1626  1.4188 -3.1508
42175SOL     OW33764   6.682   6.462   7.079  0.5856 -0.0779  0.2204
42175SOL    HW133765   6.698   6.556   7.071  1.5826 -0.3579 -2.0184
42175SOL    HW233766   6.716   6.439   7.165  0.8494  1.5182  0.5730
42176SOL     OW33767   1.670   4.218   2.839 -0.3576  0.2264  0.4056
42176SOL    HW133768   1.638   4.174   2.918 -0.7254 -0.8377 -0.3184
42176SOL    HW233769   1.633   4.168   2.766  0.9923  0.4217 -0.4508
42177SOL     OW33770   3.052  11.885   4.832  0.3821 -0.1026 -0.1760
42177SOL    HW133771   3.125  11.918   4.885 -0.7433  1.1817  0.6346
42177SOL    HW233772   2.974  11.920   4.874 -0.6773 -0.8599 -1.4416
42178SOL     OW33773  10.501   7.795   3.540 -0.5927  0.3618 -0.2348
42178SOL    HW133774  10.435   7.818   3.475 -1.2551  0.0415  0.3022
42178SOL    HW233775  10.575   7.762   3.490 -0.6043  1.2940 -0.8797
42179SOL     OW33776   8.625   7.043   4.522 -0.1354  0.3175  0.4959
42179SOL    HW133777   8.543   7.031   4.473  0.3782 -1.6735  0.0656
42179SOL    HW233778   8.678   6.966   4.500  1.0533  0.5469  2.3695
42180SOL     OW33779   1.277   0.066   8.406  0.3527 -0.1513 -0.6327
42180SOL    HW133780   1.296  -0.026   8.427  0.6292 -0.4193 -1.9469
42180SOL    HW233781   1.320   0.116   8.475 -1.4479 -1.0480  1.2532
42181SOL     OW33782   2.683   5.842   8.276 -0.5091  0.2135 -0.0992
42181SOL    HW133783   2.726   5.927   8.269  0.9548 -0.4679  0.2315
42181SOL    HW233784   2.701   5.813   8.366 -0.4022 -0.7407 -0.4145
42182SOL     OW33785   0.784   8.369  11.026 -0.6571  0.3079  0.0722
42182SOL    HW133786   0.858   8.429  11.024 -0.6021  0.2225 -0.9727
42182SOL    HW233787   0.741   8.380  10.941 -1.8175  0.3232  0.6384
42183SOL     OW33788   5.503   6.209   8.902 -0.6560 -0.1182 -0.5700
42183SOL    HW133789   5.543   6.124   8.886 -0.1360  0.1765 -0.8289
42183SOL    HW233790   5.419   6.205   8.857  0.1106  0.1315 -2.0640
42184SOL     OW33791   9.718   5.770   3.375  0.3216 -0.7070  0.3937
42184SOL    HW133792   9.778   5.717   3.321  1.3192  0.1537  0.6177
42184SOL    HW233793   9.776   5.822   3.430 -0.6185  0.6919  0.1121
42185SOL     OW33794   0.022  10.981   4.703 -0.4787  0.3125  0.5958
42185SOL    HW133795  -0.008  10.901   4.659  1.1192  1.0177 -2.0114
42185SOL    HW233796   0.088  10.951   4.766  1.5935 -0.3994 -1.7525
42186SOL     OW33797   5.248   1.761   0.797 -0.4678  0.6492  0.1648
42186SOL    HW133798   5.326   1.807   0.765 -0.3601 -0.7689 -1.7708
42186SOL    HW233799   5.178   1.826   0.791  0.2076  1.3951  0.1803
42187SOL     OW33800  10.315  10.656   7.848  0.3642  0.6212  0.2529
42187SOL    HW133801  10.355  10.570   7.839 -1.5014 -0.2494 -0.1885
42187SOL    HW233802  10.368  10.713   7.792  1.4872 -0.2698  0.3768
42188SOL     OW33803   9.786   6.757   3.034  0.5143  0.4077 -0.4699
42188SOL    HW133804   9.770   6.664   3.020  0.4926  0.5291 -1.3246
42188SOL    HW233805   9.874   6.761   3.072  0.4071  0.0272 -0.1758
42189SOL     OW33806   3.624   3.162   4.555 -0.3718  0.4795 -0.1742
42189SOL    HW133807   3.702   3.127   4.600  0.5198 -0.3976 -2.2663
42189SOL    HW233808   3.551   3.136   4.612  0.7288  0.0298  1.1099
42190SOL     OW33809   1.798   1.060   4.244 -0.2451  0.3334 -0.5719
42190SOL    HW133810   1.866   1.036   4.181 -1.7304 -0.8645 -1.7671
42190SOL    HW233811   1.845   1.111   4.311  1.9742 -1.1475 -0.9053
42191SOL     OW33812   2.118  10.732  12.530 -0.0742 -0.4998 -0.4413
42191SOL    HW133813   2.123  10.730  12.625 -0.7892  0.5411 -0.3681
42191SOL    HW233814   2.129  10.824  12.507 -1.5390 -0.4986 -1.2423
42192SOL     OW33815   8.447   4.851  11.469 -0.0242  0.5192 -0.0113
42192SOL    HW133816   8.489   4.767  11.452 -0.8760 -0.3365  1.8013
42192SOL    HW233817   8.518   4.915  11.468  0.8697 -0.4516  0.0470
42193SOL     OW33818   4.190   0.767  10.375 -0.0647 -0.2578  0.3995
42193SOL    HW133819   4.096   0.755  10.390 -0.3127 -0.0292 -0.8757
42193SOL    HW233820   4.223   0.679  10.359 -0.5258 -0.1014 -1.5778
42194SOL     OW33821   1.688   1.969   8.120 -0.7061  0.3446 -0.7090
42194SOL    HW133822   1.685   2.064   8.132  0.9289  0.2320  1.1879
42194SOL    HW233823   1.654   1.934   8.202 -2.6246 -0.7738 -1.9171
42195SOL     OW33824   1.474   7.166   2.911 -0.2829  0.4028  0.2593
42195SOL    HW133825   1.482   7.119   2.994 -0.2013  0.5539  0.3383
42195SOL    HW233826   1.393   7.134   2.872  0.3169 -0.6069 -0.1970
42196SOL     OW33827   0.398  12.068   2.944 -0.8259  0.3855 -0.1611
42196SOL    HW133828   0.364  12.153   2.971  0.5900  0.9870 -0.1912
42196SOL    HW233829   0.468  12.049   3.007  1.3020  0.9426 -2.2199
42197SOL     OW33830   0.273   5.936   2.155 -0.2774 -0.5060 -0.1081
42197SOL    HW133831   0.343   5.977   2.207  0.5855  0.4655 -1.9160
42197SOL    HW233832   0.317   5.866   2.107 -0.2261  0.8013 -2.0894
42198SOL     OW33833   6.791   2.996  12.409  0.5814 -0.1979 -0.3028
42198SOL    HW133834   6.861   2.946  12.452 -0.5207 -1.4630  0.0861
42198SOL    HW233835   6.785   3.077  12.460  1.8458  0.0036 -0.4382
42199SOL     OW33836  12.689   7.926   2.985 -0.6144  0.4199  0.1064
42199SOL    HW133837  12.780   7.930   3.014 -0.5378 -1.0039  0.1320
42199SOL    HW233838  12.694   7.927   2.889 -0.7052  2.2325  0.0876
42200SOL     OW33839   6.964  10.669   7.426 -0.0051 -0.1592 -0.1089
42200SOL    HW133840   7.014  10.593   7.453  0.4930 -0.2179 -1.1247
42200SOL    HW233841   7.029  10.726   7.384 -0.8050 -0.3612 -1.7046
42201SOL     OW33842   0.930  10.913   3.905 -0.1527 -0.1815 -0.0459
42201SOL    HW133843   0.873  10.861   3.849  0.9987 -2.4022  0.7634
42201SOL    HW233844   1.019  10.893   3.875  0.5230 -1.6189  2.6167
42202SOL     OW33845   1.329   5.437   7.282  0.7277  0.4333  0.2100
42202SOL    HW133846   1.328   5.355   7.331 -0.9379  0.8078  0.8598
42202SOL    HW233847   1.240   5.471   7.290  1.2516  2.0582 -0.4630
42203SOL     OW33848   4.979   9.543  10.671  0.3402  0.3596 -0.1427
42203SOL    HW133849   4.978   9.448  10.656  1.9099  0.1230  0.9627
42203SOL    HW233850   5.065   9.560  10.709 -0.5389  1.9761  1.2843
42204SOL     OW33851   5.460   2.708   4.196  0.2324 -0.3304 -0.7014
42204SOL    HW133852   5.390   2.769   4.219 -0.3858 -1.2841  0.0313
42204SOL    HW233853   5.530   2.764   4.161  0.6808  1.0782  2.1857
42205SOL     OW33854  10.112  10.153   3.587  0.6048 -0.0444  0.2072
42205SOL    HW133855  10.121  10.144   3.682 -2.0466  2.6669  0.8750
42205SOL    HW233856  10.032  10.106   3.565  1.5370 -1.1960 -0.8560
42206SOL     OW33857  11.856   8.235   8.008  0.3412  0.2924 -0.0021
42206SOL    HW133858  11.785   8.263   7.951  1.0697 -0.3170 -1.2597
42206SOL    HW233859  11.847   8.139   8.011  0.5242  0.2931  0.6210
42207SOL     OW33860  11.639   9.132   2.681 -0.5839  0.2452 -0.0289
42207SOL    HW133861  11.574   9.125   2.751  0.8491 -0.3566  1.3008
42207SOL    HW233862  11.722   9.147   2.727  0.2173  1.1110 -1.6749
42208SOL     OW33863   8.673   1.940   8.281 -0.6429 -0.5206 -0.7927
42208SOL    HW133864   8.580   1.927   8.301 -0.8741 -0.1526 -1.5922
42208SOL    HW233865   8.692   1.878   8.211 -1.2069  1.7308 -3.0886
42209SOL     OW33866   7.891   2.615   0.354 -0.0247 -0.0062 -0.2019
42209SOL    HW133867   7.907   2.699   0.398  0.7807 -0.7378  0.9759
42209SOL    HW233868   7.970   2.601   0.301  0.2838 -0.4528  0.3585
42210SOL     OW33869   5.332   2.622   1.168  0.1475  0.0058 -0.0878
42210SOL    HW133870   5.259   2.667   1.125 -0.6091  0.6270  1.7272
42210SOL    HW233871   5.335   2.536   1.127 -0.6829  0.4667 -1.1710
42211SOL     OW33872   2.204   1.789   4.751 -0.2371  0.3073  0.3481
42211SOL    HW133873   2.257   1.838   4.688  1.8701 -1.7651  0.3927
42211SOL    HW233874   2.135   1.749   4.697 -0.4919  1.2579 -0.0609
42212SOL     OW33875   4.802   0.077   0.855 -0.1211  0.2467  0.1598
42212SOL    HW133876   4.861   0.127   0.912  1.1309 -0.5322 -0.4067
42212SOL    HW233877   4.860   0.039   0.789 -1.5361  1.2687 -1.7688
42213SOL     OW33878   0.731   7.924  11.973  0.4528 -0.2491 -0.3532
42213SOL    HW133879   0.826   7.924  11.967  0.5834 -2.0938  0.8413
42213SOL    HW233880   0.709   8.009  12.011  1.7183 -0.1859  0.2907
42214SOL     OW33881   7.071   9.375   7.650  0.2343 -0.0112  0.2743
42214SOL    HW133882   7.090   9.339   7.563 -0.5372  0.9811 -0.3269
42214SOL    HW233883   7.059   9.298   7.705 -1.1724 -0.7154 -0.9336
42215SOL     OW33884   6.777   3.316   4.892 -0.3913 -0.5827 -0.0874
42215SOL    HW133885   6.774   3.409   4.867 -1.5113 -0.5720  0.0168
42215SOL    HW233886   6.783   3.269   4.809 -0.5695 -0.4345 -0.1864
42216SOL     OW33887   4.189  11.980   3.796 -0.6161  0.0008 -0.2415
42216SOL    HW133888   4.272  12.019   3.824 -1.1815  1.3190 -0.3172
42216SOL    HW233889   4.197  11.888   3.818 -0.1403  0.5515  2.2422
42217SOL     OW33890   9.219   7.923   6.468  0.3058  0.0491 -0.3612
42217SOL    HW133891   9.167   7.862   6.520 -0.2012  0.5624 -0.2540
42217SOL    HW233892   9.271   7.868   6.410  0.2868 -0.4999  0.1447
42218SOL     OW33893   8.690  11.031   8.641 -0.1323  0.3016 -0.3408
42218SOL    HW133894   8.724  10.996   8.559 -2.0665  0.5072 -1.2902
42218SOL    HW233895   8.650  10.956   8.685 -1.3814  0.6538 -0.8353
42219SOL     OW33896   6.052   1.972   9.658  0.2636  0.8123 -0.8049
42219SOL    HW133897   6.138   1.999   9.690  0.1131  1.9353 -1.3179
42219SOL    HW233898   5.992   2.041   9.686 -0.2237  0.7667 -1.6920
42220SOL     OW33899   4.666   3.287   1.521  0.0575 -0.0154 -0.3621
42220SOL    HW133900   4.679   3.361   1.462  0.3847 -1.1187 -1.7365
42220SOL    HW233901   4.750   3.241   1.521 -0.5079 -1.0923 -0.5691
42221SOL     OW33902   6.487   2.311   9.858  0.6622 -0.3846 -0.3734
42221SOL    HW133903   6.560   2.340   9.803  1.1628 -0.0371  0.4604
42221SOL    HW233904   6.466   2.386   9.912 -0.5345 -0.3810 -0.8073
42222SOL     OW33905  11.917   4.587   4.249  0.2364 -0.3402 -0.6500
42222SOL    HW133906  11.945   4.564   4.161 -1.9847 -1.4912 -1.1092
42222SOL    HW233907  11.914   4.504   4.296 -2.9305 -0.4509 -0.8498
42223SOL     OW33908  11.975   8.475   1.001 -0.0209  0.3805 -0.5941
42223SOL    HW133909  12.040   8.489   0.932 -0.3248  1.8815 -0.6135
42223SOL    HW233910  12.024   8.487   1.082 -0.0893  0.6542 -0.5924
42224SOL     OW33911  11.256   2.926   9.441  0.1131  0.0871  0.5252
42224SOL    HW133912  11.200   2.928   9.519  0.0853 -0.9441  0.5474
42224SOL    HW233913  11.227   2.848   9.394  1.3937 -0.3583  0.4332
42225SOL     OW33914  12.099   6.439  11.696  0.2158 -0.1264  0.3128
42225SOL    HW133915  12.068   6.383  11.767  0.9013 -0.3132  0.4677
42225SOL    HW233916  12.178   6.395  11.664  0.7071  0.6965  0.3754
42226SOL     OW33917   0.913   8.053   9.828 -0.0026  0.1119  0.3656
42226SOL    HW133918   0.917   8.147   9.842  1.4651 -0.0043  0.9227
42226SOL    HW233919   1.003   8.028   9.805 -0.9367 -0.7002 -2.8868
42227SOL     OW33920   0.486   2.972  12.462 -0.2578  0.0305  0.2056
42227SOL    HW133921   0.551   3.003  12.524 -1.6212  2.9551  0.3210
42227SOL    HW233922   0.489   2.877  12.470  1.2254  0.2059  3.0411
42228SOL     OW33923   7.794   1.111   8.800 -0.0963  0.0956 -0.5064
42228SOL    HW133924   7.868   1.087   8.857  0.0288  2.2047  0.3095
42228SOL    HW233925   7.835   1.134   8.717 -0.0469 -0.6125 -0.6879
42229SOL     OW33926  11.010   7.877  11.331  0.7102 -0.0860 -0.4705
42229SOL    HW133927  10.924   7.905  11.364 -0.7522 -1.7360 -2.6548
42229SOL    HW233928  10.998   7.866  11.237  3.3072 -0.5393 -0.8285
42230SOL     OW33929   1.122   9.576   1.483  0.2615  0.3355  0.2181
42230SOL    HW133930   1.177   9.654   1.476  0.1812  0.4019  0.3136
42230SOL    HW233931   1.132   9.532   1.399  0.9120  0.0457  0.4410
42231SOL     OW33932   1.230   6.134   5.721  0.2845 -0.0106  0.2177
42231SOL    HW133933   1.191   6.215   5.688 -0.0873 -0.0422  0.5721
42231SOL    HW233934   1.303   6.163   5.776 -0.6265  0.1495  1.3849
42232SOL     OW33935   4.713   3.521   7.312  0.3997  0.3412 -0.1661
42232SOL    HW133936   4.782   3.562   7.260 -1.1379  0.3875 -2.2960
42232SOL    HW233937   4.750   3.437   7.339  1.9185  1.1350  0.2952
42233SOL     OW33938   1.237   8.978   8.960  0.6575  0.0062  0.1843
42233SOL    HW133939   1.269   8.916   8.894  2.0188  1.7880 -0.9181
42233SOL    HW233940   1.301   8.974   9.031  1.5486  1.1123 -0.5181
42234SOL     OW33941   6.250   6.546   5.694  0.2555  0.1909  0.7168
42234SOL    HW133942   6.164   6.585   5.711 -0.0425 -0.3976  0.5881
42234SOL    HW233943   6.258   6.475   5.758  0.5681  0.1197  0.6031
42235SOL     OW33944  11.627   9.830  11.225  0.2904 -0.0383 -0.9103
42235SOL    HW133945  11.570   9.845  11.150  0.2964 -0.2132 -0.9497
42235SOL    HW233946  11.572   9.853  11.301  0.6019  1.0964 -1.0115
42236SOL     OW33947  12.104  11.433   9.995 -0.9074 -0.2441  0.1371
42236SOL    HW133948  12.033  11.482  10.036 -0.1430  0.4170  0.7172
42236SOL    HW233949  12.149  11.391  10.068  1.0049  1.6507  0.1747
42237SOL     OW33950   6.972   0.433  10.840 -0.9640  0.1142 -0.0315
42237SOL    HW133951   6.887   0.399  10.814 -1.2381  0.5398  0.2907
42237SOL    HW233952   6.954   0.483  10.919 -0.4007  0.1467  0.0771
42238SOL     OW33953   7.656   5.197   1.276 -0.1526  0.0399  0.0168
42238SOL    HW133954   7.632   5.106   1.291 -0.3125  0.2464  1.1253
42238SOL    HW233955   7.627   5.242   1.356  2.7180  0.5289  0.8705
42239SOL     OW33956   8.536  12.225   9.993 -0.2750  0.0466 -0.1232
42239SOL    HW133957   8.547  12.312  10.030 -0.9854  0.3933 -0.6904
42239SOL    HW233958   8.446  12.225   9.958 -0.5533 -1.1546  0.5204
42240SOL     OW33959   4.444  10.279   0.571 -0.1872  0.5818 -0.2622
42240SOL    HW133960   4.399  10.195   0.577 -0.8756  1.0092  0.9496
42240SOL    HW233961   4.494  10.285   0.652  1.1090  0.6657 -1.0444
42241SOL     OW33962  10.653   8.541   4.884 -0.3413  0.0050 -0.1592
42241SOL    HW133963  10.680   8.608   4.822 -0.8180 -0.7118 -1.1855
42241SOL    HW233964  10.625   8.468   4.829 -0.0315 -0.9568  0.9216
42242SOL     OW33965   5.185   6.156   7.719  0.0763 -0.0865 -0.2171
42242SOL    HW133966   5.155   6.219   7.785 -1.7484 -1.0752 -0.0426
42242SOL    HW233967   5.161   6.071   7.755  0.3293 -0.7321 -1.5291
42243SOL     OW33968   3.864   0.267  10.375  0.0157 -0.8000 -0.1008
42243SOL    HW133969   3.881   0.310  10.459  2.5539  0.2363 -1.0529
42243SOL    HW233970   3.863   0.173  10.397  2.1692 -0.6496  0.9444
42244SOL     OW33971   9.407   5.323   0.350 -0.2049  0.0429  0.4938
42244SOL    HW133972   9.359   5.254   0.305 -1.0334 -0.7163  2.4791
42244SOL    HW233973   9.491   5.283   0.374  1.2541  1.1454 -2.3074
42245SOL     OW33974   8.573   3.963   2.764  0.2184 -0.5275  0.3668
42245SOL    HW133975   8.582   3.978   2.858 -1.2250 -2.2917  0.8342
42245SOL    HW233976   8.484   3.991   2.743 -0.1113 -1.8615 -0.0821
42246SOL     OW33977   9.514   4.205   6.290 -0.2974  0.2756 -0.6969
42246SOL    HW133978   9.462   4.240   6.218  0.4369 -0.4077 -1.5895
42246SOL    HW233979   9.560   4.281   6.326 -2.7894  1.1131  0.9270
42247SOL     OW33980   0.964   0.777  11.761 -0.4808 -0.5387  0.4664
42247SOL    HW133981   0.968   0.747  11.670  0.4939  0.2843  0.2248
42247SOL    HW233982   0.871   0.780  11.781 -0.7606  0.1852 -0.8222
42248SOL     OW33983   0.972  12.704  10.891 -0.9528 -0.2086  0.2485
42248SOL    HW133984   0.951  12.732  10.802  0.5302  0.7684  0.1707
42248SOL    HW233985   1.059  12.666  10.884 -1.0700 -0.6625  1.1884
42249SOL     OW33986   7.592   8.048   3.951 -0.0194  0.4330  0.5840
42249SOL    HW133987   7.684   8.034   3.974 -0.0477  0.0811  0.4839
42249SOL    HW233988   7.595   8.084   3.862  0.0416  0.8348  0.7475
42250SOL     OW33989  10.218   0.406   5.867 -0.7722 -0.0900  0.4712
42250SOL    HW133990  10.168   0.328   5.891 -1.1055 -0.0008  0.0816
42250SOL    HW233991  10.162   0.451   5.804 -0.5826  0.4677  0.6973
42251SOL     OW33992   3.693   1.320   6.671  0.4135 -0.0697  0.1621
42251SOL    HW133993   3.682   1.383   6.600 -0.7087 -1.1119 -0.6270
42251SOL    HW233994   3.764   1.356   6.724 -0.4553  2.0616 -0.0113
42252SOL     OW33995  12.272   5.471  11.365  0.7444 -0.0411  0.1099
42252SOL    HW133996  12.228   5.393  11.397 -0.9972  1.0348  0.4724
42252SOL    HW233997  12.295   5.520  11.444 -0.5156  1.0188 -0.1528
42253SOL     OW33998   8.035   7.099   1.949 -0.0504  0.2059  0.0830
42253SOL    HW133999   8.097   7.045   1.999  0.4541 -1.0777 -1.8093
42253SOL    HW234000   7.949   7.064   1.972  0.3109 -2.5431 -2.1401
42254SOL     OW34001  11.112   2.901   1.959  0.1628 -0.0374 -0.1113
42254SOL    HW134002  11.208   2.904   1.958  0.2766 -2.1959  0.0707
42254SOL    HW234003  11.088   2.931   2.047  0.7191 -0.2721  0.1244
42255SOL     OW34004  12.334   2.195  10.789  0.0996 -0.0629  0.6090
42255SOL    HW134005  12.256   2.240  10.757 -0.3795 -0.0648  1.7072
42255SOL    HW234006  12.344   2.225  10.879  0.5338 -1.1537  0.9492
42256SOL     OW34007   6.068   4.804   8.400 -1.1101 -0.1661  0.5915
42256SOL    HW134008   6.157   4.770   8.403 -0.3020  1.8714  2.9392
42256SOL    HW234009   6.040   4.805   8.492 -2.8363  1.0045  0.0985
42257SOL     OW34010  11.608   7.115   9.454 -0.6064 -0.0793 -0.0866
42257SOL    HW134011  11.515   7.119   9.479 -0.6231 -0.3439 -0.1038
42257SOL    HW234012  11.648   7.058   9.519 -0.5521 -0.3651 -0.3676
42258SOL     OW34013   8.932   1.238   3.054 -0.3034  0.0305 -0.4338
42258SOL    HW134014   8.936   1.324   3.012 -0.6889  1.2664  1.8918
42258SOL    HW234015   9.023   1.217   3.076 -0.2681  0.0614 -0.5485
42259SOL     OW34016   9.507   7.474  11.438 -0.2118  0.6701 -0.6825
42259SOL    HW134017   9.523   7.568  11.432  3.1258  0.2274 -0.5669
42259SOL    HW234018   9.576   7.434  11.385 -0.4605 -1.7734  0.6579
42260SOL     OW34019   8.208   4.541   2.303  0.0086 -0.3648  0.5944
42260SOL    HW134020   8.129   4.586   2.332  0.4537  0.6728  0.2336
42260SOL    HW234021   8.273   4.610   2.294  1.0867 -1.2546  1.2859
42261SOL     OW34022   5.010  11.341   6.125  0.5025 -0.2265  0.0087
42261SOL    HW134023   5.070  11.348   6.200  1.1150  1.5307 -0.5796
42261SOL    HW234024   4.960  11.422   6.128  0.5757 -0.1063 -1.4941
42262SOL     OW34025   5.154   5.218   6.613  0.3522 -0.4547 -0.0882
42262SOL    HW134026   5.071   5.265   6.614 -0.5095 -1.9296 -0.2902
42262SOL    HW234027   5.189   5.229   6.702 -0.8376 -1.1523  0.4880
42263SOL     OW34028   9.270   6.865   2.903  0.3870 -0.0201 -0.2569
42263SOL    HW134029   9.259   6.947   2.952  0.8538  0.9087 -1.6135
42263SOL    HW234030   9.346   6.823   2.944 -0.4795 -0.3045  1.1113
42264SOL     OW34031  11.716   1.219   6.233 -0.3811 -0.4029 -1.0240
42264SOL    HW134032  11.736   1.138   6.279  1.2101  0.4218 -0.1791
42264SOL    HW234033  11.660   1.267   6.293 -1.0394 -0.7132 -1.3792
42265SOL     OW34034  11.449   1.916   1.426  0.2427 -0.2750  0.0873
42265SOL    HW134035  11.403   1.997   1.447 -1.8019 -0.5201 -2.7891
42265SOL    HW234036  11.519   1.943   1.366  0.2850 -0.5177  0.0276
42266SOL     OW34037   4.387   4.793   3.202 -0.5423  0.2105 -0.1099
42266SOL    HW134038   4.480   4.793   3.182 -0.3429 -0.4050  0.7537
42266SOL    HW234039   4.367   4.884   3.223  0.1931  0.1165  1.0969
42267SOL     OW34040   6.002   2.961   9.627 -0.0123  0.0370  0.1727
42267SOL    HW134041   5.915   2.971   9.587 -0.2101  1.4764  0.9071
42267SOL    HW234042   6.057   3.025   9.582  0.4995 -0.3494  0.2344
42268SOL     OW34043   0.830   2.595  12.099  0.2083 -0.0671 -0.0780
42268SOL    HW134044   0.846   2.506  12.068  0.9615  0.7078 -2.0342
42268SOL    HW234045   0.888   2.605  12.174  2.4536 -0.2693 -1.6825
42269SOL     OW34046   3.458   3.159   3.997  0.2511 -0.1712  0.1722
42269SOL    HW134047   3.507   3.225   4.046  0.3317  0.4695 -0.7535
42269SOL    HW234048   3.388   3.207   3.953 -1.2009 -1.0736  1.4243
42270SOL     OW34049   5.708   8.310   1.600 -0.4281  0.2754 -0.1875
42270SOL    HW134050   5.650   8.331   1.674 -1.2463  1.1184 -1.0526
42270SOL    HW234051   5.649   8.302   1.525  0.2578 -1.6712 -0.5785
42271SOL     OW34052   6.621   5.877  11.510  0.0215  0.6064  0.3527
42271SOL    HW134053   6.544   5.832  11.544 -0.4730  0.7411 -0.5534
42271SOL    HW234054   6.586   5.943  11.450  0.8756 -0.6982 -1.6931
42272SOL     OW34055  10.981   7.793  12.681  0.3436 -0.1082  0.0689
42272SOL    HW134056  11.040   7.719  12.699 -0.2537 -0.3133  1.2790
42272SOL    HW234057  11.039   7.864  12.655  1.2743  0.0624  2.4213
42273SOL     OW34058   1.997   9.616   9.503 -0.1267 -0.7913  0.0436
42273SOL    HW134059   2.034   9.607   9.415  2.2375 -2.7378  1.1124
42273SOL    HW234060   1.902   9.612   9.491  0.0444  0.7486 -2.5244
42274SOL     OW34061   0.476   3.057   5.785 -0.2212  0.3887  0.2068
42274SOL    HW134062   0.413   2.995   5.750 -0.8883  1.1509  0.0201
42274SOL    HW234063   0.516   3.012   5.859 -0.1669 -0.5220 -0.3615
42275SOL     OW34064   4.672   4.315   1.523 -0.0131  0.1329 -0.4151
42275SOL    HW134065   4.679   4.334   1.429 -3.4124 -1.0723 -1.0775
42275SOL    HW234066   4.589   4.268   1.531  0.7392 -0.8806  3.0829
42276SOL     OW34067  10.086   0.459   3.202  0.7142 -0.1835  0.1743
42276SOL    HW134068  10.087   0.540   3.151  2.5258 -0.4548 -0.2928
42276SOL    HW234069  10.091   0.489   3.293 -0.4908  0.2498  0.1139
42277SOL     OW34070   2.904   4.698  11.957  0.3189  0.3143 -0.0917
42277SOL    HW134071   2.904   4.606  11.930  2.4158 -0.2895  1.6919
42277SOL    HW234072   2.995   4.726  11.949  0.7651  0.6681  4.0763
42278SOL     OW34073   5.621   8.123   9.157  0.0558  0.2195 -0.0244
42278SOL    HW134074   5.569   8.069   9.097  0.0124  0.0265  0.1860
42278SOL    HW234075   5.681   8.170   9.099 -0.9493  1.1339 -0.3622
42279SOL     OW34076   5.966   4.438   1.267 -0.2118 -0.2060  0.5252
42279SOL    HW134077   6.016   4.485   1.201  0.8357  0.3077  1.6361
42279SOL    HW234078   5.876   4.438   1.234  0.3099 -0.1287 -0.9593
42280SOL     OW34079  11.758   4.110  10.143  1.2060 -0.1976  0.6958
42280SOL    HW134080  11.674   4.076  10.110  0.9391  0.7729  0.3530
42280SOL    HW234081  11.733   4.178  10.206  1.6598  2.2837 -1.6138
42281SOL     OW34082   4.499   5.171  11.580 -0.6489  0.2381  0.6781
42281SOL    HW134083   4.422   5.228  11.584 -1.0367 -0.2551  0.4907
42281SOL    HW234084   4.462   5.083  11.566  0.0290  0.2040 -1.0968
42282SOL     OW34085  10.370   9.745   4.303  0.1476 -0.0339 -0.1737
42282SOL    HW134086  10.359   9.656   4.337  0.2902 -0.8460 -2.0831
42282SOL    HW234087  10.282   9.782   4.304  0.0885 -0.1803  0.6601
42283SOL     OW34088   2.333   4.714   3.929 -0.0636 -0.0206 -0.3657
42283SOL    HW134089   2.356   4.670   3.848  1.2563 -0.3230  0.1467
42283SOL    HW234090   2.413   4.757   3.957 -0.7300  0.8049  0.3364
42284SOL     OW34091   2.136   6.897   9.170  0.4749  0.1939  0.3380
42284SOL    HW134092   2.181   6.980   9.190  0.2910  0.1702  0.8494
42284SOL    HW234093   2.188   6.859   9.099  0.2601  0.9958 -0.2637
42285SOL     OW34094   5.650   5.247   9.942 -0.6167 -0.1542 -0.3184
42285SOL    HW134095   5.745   5.261   9.938 -0.7308  0.5636 -0.5558
42285SOL    HW234096   5.630   5.201   9.861 -0.7206  1.2198 -1.0881
42286SOL     OW34097  11.490  10.085   9.600  0.1626 -0.0461  0.5767
42286SOL    HW134098  11.397  10.094   9.620 -0.1710  1.6461 -1.2991
42286SOL    HW234099  11.523  10.175   9.599  1.7096 -0.5791  0.7369
42287SOL     OW34100   9.652   2.457  12.629 -0.2588 -0.1516 -0.6289
42287SOL    HW134101   9.736   2.415  12.647  0.1592  0.3618 -1.3393
42287SOL    HW234102   9.635   2.438  12.536  0.3706  1.9498 -1.2336
42288SOL     OW34103   8.484   3.091   1.449 -0.0546 -0.3286 -0.8422
42288SOL    HW134104   8.482   3.016   1.390  1.0303 -1.8459  0.9466
42288SOL    HW234105   8.560   3.076   1.505 -0.9207  1.1231  0.8312
42289SOL     OW34106   0.844   8.480   6.871 -0.0428  0.3389  0.0501
42289SOL    HW134107   0.885   8.508   6.952  2.2687  0.2672 -1.0407
42289SOL    HW234108   0.829   8.560   6.822  0.2064  0.2307 -0.2011
42290SOL     OW34109  10.234   3.062   5.268  0.0417 -0.0945 -0.1268
42290SOL    HW134110  10.216   3.151   5.236 -2.6035 -1.6075 -3.4793
42290SOL    HW234111  10.180   3.053   5.346 -2.4692  0.2304 -1.7299
42291SOL     OW34112   8.235   3.664   9.853  0.0500 -0.0012 -0.3776
42291SOL    HW134113   8.311   3.636   9.905 -1.5516  1.0602  2.7985
42291SOL    HW234114   8.215   3.589   9.797  1.2282 -1.7369  1.4102
42292SOL     OW34115   2.463   6.144  11.253  0.1873  0.3148 -0.0501
42292SOL    HW134116   2.511   6.107  11.327  1.5755  0.2033 -0.9804
42292SOL    HW234117   2.371   6.136  11.279  0.6179  2.7396  2.8490
42293SOL     OW34118  12.186   9.120   5.507 -0.7343  0.0133  0.2268
42293SOL    HW134119  12.260   9.180   5.520  0.4251 -1.5223  1.0449
42293SOL    HW234120  12.157   9.136   5.417 -0.0258  1.3128  0.2100
42294SOL     OW34121   8.574   4.604   3.900  0.0940  0.2060 -0.1397
42294SOL    HW134122   8.543   4.604   3.990  2.4378  0.9736  0.7366
42294SOL    HW234123   8.603   4.514   3.885 -0.2325  0.0953 -0.1247
42295SOL     OW34124   0.358   1.296  10.194  0.2671 -0.4606  0.1576
42295SOL    HW134125   0.450   1.290  10.220 -0.2166  0.7773  2.3637
42295SOL    HW234126   0.335   1.388  10.206 -0.6296 -0.1847 -2.8656
42296SOL     OW34127   5.980   1.399   3.692 -0.7421  0.1521  0.0737
42296SOL    HW134128   6.017   1.452   3.622  0.2557  0.6871  0.9801
42296SOL    HW234129   5.933   1.329   3.647 -0.5639  0.7718 -1.1214
42297SOL     OW34130   6.217   4.562   8.144 -0.0026  0.0036  0.1636
42297SOL    HW134131   6.128   4.594   8.154 -0.8418 -2.5045  1.4580
42297SOL    HW234132   6.259   4.581   8.228  0.8696  1.5843 -0.5966
42298SOL     OW34133   5.259   3.714   2.609  0.6833 -0.2085  0.2933
42298SOL    HW134134   5.241   3.630   2.651  1.9751 -0.1925  0.9041
42298SOL    HW234135   5.284   3.772   2.680  1.1629  0.3158 -0.2898
42299SOL     OW34136   4.059   2.223   8.684 -0.1022  0.4059  0.3870
42299SOL    HW134137   3.992   2.268   8.735 -0.4511  1.8837 -1.2743
42299SOL    HW234138   4.040   2.246   8.593  3.3159  1.8964 -0.1187
42300SOL     OW34139   9.224   1.255   6.199 -0.4957 -0.2539  0.3375
42300SOL    HW134140   9.316   1.232   6.212 -0.6965 -1.0182  0.4850
42300SOL    HW234141   9.226   1.335   6.147  0.2618  0.2840  1.1860
42301SOL     OW34142   7.364  11.536  10.922  0.1797  0.0923  0.2068
42301SOL    HW134143   7.336  11.520  10.832 -1.6143  2.3252  0.2774
42301SOL    HW234144   7.443  11.589  10.914  0.1015  0.1690 -0.0423
42302SOL     OW34145   4.434   6.115   8.263  0.0211 -0.1854 -0.0900
42302SOL    HW134146   4.519   6.105   8.220 -0.2203  0.7972 -0.8269
42302SOL    HW234147   4.453   6.107   8.356  0.5124 -2.7561 -0.3368
42303SOL     OW34148   1.967  11.340   9.827 -0.3932 -0.5483 -0.2029
42303SOL    HW134149   2.027  11.266   9.819 -0.6880 -0.9195  0.8261
42303SOL    HW234150   1.969  11.362   9.920 -0.8349  0.3027 -0.3871
42304SOL     OW34151   2.944  11.596   8.991 -0.4442 -0.0421 -0.2797
42304SOL    HW134152   2.965  11.685   9.017 -0.0705  0.0498 -0.8705
42304SOL    HW234153   2.976  11.589   8.901 -0.3985 -0.7931 -0.2132
42305SOL     OW34154   5.097   6.959  10.615  0.4146 -0.4684 -0.1565
42305SOL    HW134155   5.077   6.966  10.709 -2.5999 -0.8405 -0.6767
42305SOL    HW234156   5.111   7.050  10.588  2.1259 -0.4204  0.7627
42306SOL     OW34157   9.252   0.607  10.338  0.3783 -0.5175  0.1633
42306SOL    HW134158   9.252   0.688  10.288 -2.0505 -0.3087  0.3771
42306SOL    HW234159   9.324   0.555  10.302  0.4592  0.7577 -1.5869
42307SOL     OW34160   8.141   8.017   9.705  0.3385  0.0835 -0.5450
42307SOL    HW134161   8.090   8.082   9.754  0.6009 -0.1516  0.0606
42307SOL    HW234162   8.226   8.058   9.692  0.9974 -0.6303  1.0865
42308SOL     OW34163   8.616   4.533  11.133 -0.3317  0.0005 -0.8741
42308SOL    HW134164   8.627   4.472  11.060 -0.5315  1.7583 -2.4314
42308SOL    HW234165   8.559   4.486  11.194 -0.1994 -1.5071 -1.8466
42309SOL     OW34166   6.240   2.670   4.705 -0.0673  0.0706  0.3507
42309SOL    HW134167   6.170   2.613   4.673  0.4390 -0.8100  0.7442
42309SOL    HW234168   6.294   2.687   4.628 -0.2343  0.0289  0.2256
42310SOL     OW34169   3.846   7.313   1.177  0.4540 -0.4648  0.0489
42310SOL    HW134170   3.847   7.393   1.125 -1.2455 -1.0781 -0.9913
42310SOL    HW234171   3.762   7.314   1.223  0.6097 -1.4194  0.3890
42311SOL     OW34172   0.093  11.687  11.398 -0.4094  0.2534  0.0691
42311SOL    HW134173   0.102  11.771  11.444 -1.3551  1.1110 -1.2243
42311SOL    HW234174   0.045  11.631  11.460  0.3569  0.6039  1.0069
42312SOL     OW34175   8.847   6.577   9.292 -0.2421  0.0558  0.9205
42312SOL    HW134176   8.765   6.530   9.275  1.3019 -2.4722 -0.1726
42312SOL    HW234177   8.868   6.557   9.383 -0.4494 -0.0052  0.9545
42313SOL     OW34178   1.133   1.423   2.215  0.5123  0.1441 -0.1116
42313SOL    HW134179   1.197   1.459   2.153  1.9496  1.4952  2.0389
42313SOL    HW234180   1.183   1.364   2.270 -0.6523 -0.7063  0.0674
42314SOL     OW34181   0.144   5.384  10.206 -0.3835 -0.3581 -0.4558
42314SOL    HW134182   0.129   5.477  10.217 -1.1083 -0.5158 -0.0990
42314SOL    HW234183   0.120   5.366  10.116  0.0775 -0.1446 -0.6261
42315SOL     OW34184  11.895   0.438   5.460 -0.2611 -0.0332  0.0269
42315SOL    HW134185  11.844   0.475   5.388 -0.6380  1.7830  1.1590
42315SOL    HW234186  11.867   0.487   5.537  0.3320 -1.7136  1.3917
42316SOL     OW34187   7.092   5.381   7.731 -0.7388 -0.2485 -0.4337
42316SOL    HW134188   7.016   5.346   7.684  0.3983 -0.0808 -2.4836
42316SOL    HW234189   7.149   5.305   7.743 -0.6307 -0.1138 -0.0870
42317SOL     OW34190   7.445   9.870   1.356  0.3874 -0.5945  0.1969
42317SOL    HW134191   7.426   9.781   1.386  0.6585 -0.3964  0.9894
42317SOL    HW234192   7.366   9.919   1.377  0.0625 -0.7403 -0.6600
42318SOL     OW34193  11.688  12.282   4.457  0.0523  0.6464  0.2520
42318SOL    HW134194  11.722  12.371   4.447 -1.1819  0.9707 -1.7797
42318SOL    HW234195  11.603  12.294   4.500  0.4128  0.3221  1.0609
42319SOL     OW34196   9.181   9.562   1.754 -0.8110  0.6731 -0.3271
42319SOL    HW134197   9.200   9.656   1.762 -1.3439  0.7954 -0.4684
42319SOL    HW234198   9.174   9.532   1.844  0.7017  0.4799 -0.2435
42320SOL     OW34199  10.019   7.349   5.951 -0.0594  0.3252 -0.3315
42320SOL    HW134200  10.092   7.332   6.011 -0.5434 -1.8852 -0.3096
42320SOL    HW234201  10.061   7.375   5.869  0.6173  2.8477  0.7022
42321SOL     OW34202   1.103   2.221   0.711 -0.1511  0.2760 -0.0510
42321SOL    HW134203   1.043   2.243   0.783 -1.6443 -1.7504 -0.5954
42321SOL    HW234204   1.160   2.153   0.746 -0.2221 -0.0092 -0.4775
42322SOL     OW34205   4.464   9.454   8.330  0.3068  0.4553  0.0921
42322SOL    HW134206   4.551   9.432   8.362  0.2340  2.1438  1.6095
42322SOL    HW234207   4.479   9.492   8.243  1.0955  0.9167  0.4248
42323SOL     OW34208   6.987  10.604   5.948 -0.5155  0.1228 -0.2707
42323SOL    HW134209   7.019  10.550   6.021  0.0652  1.2150  0.3164
42323SOL    HW234210   7.041  10.683   5.952 -0.9358  0.4869 -1.4865
42324SOL     OW34211   7.584   5.785   0.687  0.5194  0.1669  0.2138
42324SOL    HW134212   7.636   5.705   0.698  2.2329  0.9966 -1.2779
42324SOL    HW234213   7.564   5.813   0.776  1.4812 -0.9180  0.8024
42325SOL     OW34214   3.438   8.349  10.007 -0.4949 -0.1698 -0.3854
42325SOL    HW134215   3.508   8.324   9.947 -0.6644  0.2170 -0.7479
42325SOL    HW234216   3.464   8.312  10.091 -0.1860 -0.5973 -0.6643
42326SOL     OW34217   8.903  12.618  10.951 -0.3922 -0.6547  0.6966
42326SOL    HW134218   8.941  12.572  10.877  1.6169 -0.6033  1.6452
42326SOL    HW234219   8.932  12.570  11.028  2.0164  2.1654  1.7606
42327SOL     OW34220   7.024  12.637  10.667  0.2873  0.1373  0.4269
42327SOL    HW134221   7.016  12.673  10.755 -3.8664 -0.4416  0.5165
42327SOL    HW234222   6.984  12.704  10.611  1.5389 -0.1459 -0.8546
42328SOL     OW34223   2.044  12.318   2.512  0.0163 -0.5752 -0.2468
42328SOL    HW134224   1.961  12.289   2.474  0.4979 -0.1764 -1.6881
42328SOL    HW234225   2.072  12.390   2.456  0.1987  0.8702  1.6205
42329SOL     OW34226   3.187   6.495   5.470 -0.7208  0.0581 -0.0789
42329SOL    HW134227   3.107   6.446   5.449 -0.4565  0.3293 -1.8102
42329SOL    HW234228   3.258   6.436   5.446 -0.3880  0.3735  0.1273
42330SOL     OW34229   1.263   9.517   7.581 -0.3953  0.3882 -0.4004
42330SOL    HW134230   1.273   9.471   7.664 -0.0894  0.7174 -0.2482
42330SOL    HW234231   1.306   9.460   7.516 -0.5398  0.1819 -0.3150
42331SOL     OW34232   8.069   8.866   0.010 -0.4205  0.3046 -0.0413
42331SOL    HW134233   8.103   8.837  -0.075 -1.3880  0.4244 -0.4773
42331SOL    HW234234   8.031   8.787   0.049  1.3141 -0.1050  0.9620
42332SOL     OW34235   5.037  10.485   0.818 -0.3939 -0.1653  0.2846
42332SOL    HW134236   4.982  10.449   0.888  0.9673  0.3940  1.6811
42332SOL    HW234237   5.059  10.573   0.847 -0.7000  0.5060 -1.3996
42333SOL     OW34238   6.671  10.294  10.655 -0.3073  0.3338 -1.0481
42333SOL    HW134239   6.663  10.276  10.561 -0.6068 -0.5922 -0.8556
42333SOL    HW234240   6.621  10.374  10.668  0.6989  1.1232 -1.8686
42334SOL     OW34241   0.476   7.221  12.223  0.1217  0.3861  0.3617
42334SOL    HW134242   0.461   7.308  12.259  0.4461  0.4497  0.3401
42334SOL    HW234243   0.570   7.206  12.233  0.2109  0.3965 -0.4481
42335SOL     OW34244  12.142   7.731   1.586 -0.4242  0.0949 -0.3720
42335SOL    HW134245  12.177   7.766   1.504 -1.2608  0.5061 -0.5643
42335SOL    HW234246  12.056   7.698   1.563 -0.0424 -1.2528  0.0158
42336SOL     OW34247   3.358  10.926   2.914 -0.2137 -0.7349  0.0346
42336SOL    HW134248   3.314  11.010   2.927  1.1404  0.0191 -0.0546
42336SOL    HW234249   3.347  10.880   2.997 -1.6300 -0.8008 -0.1788
42337SOL     OW34250   7.581   0.235  11.837  0.6747  0.4622  0.2560
42337SOL    HW134251   7.568   0.277  11.922 -0.1275 -1.1803  0.9994
42337SOL    HW234252   7.517   0.276  11.780 -1.0590 -0.6145  1.3204
42338SOL     OW34253   7.025  10.629  11.297  0.1718  0.1819  0.2930
42338SOL    HW134254   7.026  10.719  11.331 -0.9505  0.0085  0.8455
42338SOL    HW234255   7.097  10.585  11.341  0.0605  0.5349  0.8365
42339SOL     OW34256   3.386   5.406  11.085  0.9456  0.0268 -0.0114
42339SOL    HW134257   3.437   5.429  11.163  0.5037 -0.4307  0.4159
42339SOL    HW234258   3.311   5.466  11.087  1.3004  0.5003 -0.4819
42340SOL     OW34259   9.028  11.379   8.976  0.1938 -0.1307 -0.6125
42340SOL    HW134260   9.100  11.389   8.913  0.5418  2.8038  0.1160
42340SOL    HW234261   8.957  11.430   8.939  0.2341  1.2323  1.0804
42341SOL     OW34262   0.596   2.617  11.465  0.5385 -0.0247 -0.3126
42341SOL    HW134263   0.510   2.647  11.440  0.5505  0.2995  0.0253
42341SOL    HW234264   0.627   2.566  11.390  0.2386  0.2249 -0.6053
42342SOL     OW34265   7.639   0.093   0.740  0.1687 -0.1600 -0.4869
42342SOL    HW134266   7.717   0.050   0.706  0.1270 -0.4511 -0.2190
42342SOL    HW234267   7.595   0.128   0.663  1.3510  1.3583 -0.5097
42343SOL     OW34268  10.053   2.475   1.550 -0.8282  1.1784 -0.0660
42343SOL    HW134269  10.072   2.563   1.520 -0.4392  1.1973  0.2365
42343SOL    HW234270   9.957   2.471   1.555 -0.8465  1.5526 -0.1496
42344SOL     OW34271   5.079   0.255   0.431 -0.2419 -0.1391 -0.1839
42344SOL    HW134272   5.142   0.274   0.500 -0.5576 -2.1573  0.7437
42344SOL    HW234273   5.089   0.327   0.369  3.8276 -0.9554 -0.7420
42345SOL     OW34274   6.327  11.927  10.352  0.7435  0.1957 -0.4757
42345SOL    HW134275   6.415  11.944  10.386  0.2934  0.8946  0.3713
42345SOL    HW234276   6.300  12.010  10.313 -0.8495  1.0616  2.2710
42346SOL     OW34277   1.468  12.267   7.195 -0.6487 -0.1717  0.2160
42346SOL    HW134278   1.428  12.333   7.251  0.0597 -0.0870  0.6287
42346SOL    HW234279   1.542  12.234   7.245 -0.5045 -0.6983 -0.3252
42347SOL     OW34280  10.915   8.242   5.854 -0.1667 -0.1954  0.0800
42347SOL    HW134281  10.866   8.279   5.927  0.5288 -2.8743  2.0853
42347SOL    HW234282  10.849   8.203   5.797 -0.9367  3.8461 -2.1853
42348SOL     OW34283   8.967  10.028   3.658  0.4105 -0.0223 -0.2866
42348SOL    HW134284   9.023   9.951   3.660  0.6985  0.1510 -1.1642
42348SOL    HW234285   9.014  10.094   3.708  0.8790  0.0439 -0.8094
42349SOL     OW34286   2.060  12.430   4.917  0.4000 -0.0185  0.1839
42349SOL    HW134287   2.138  12.384   4.885  0.1425 -0.2291 -0.1534
42349SOL    HW234288   1.989  12.369   4.900  0.0084  0.6203 -0.5328
42350SOL     OW34289   5.441  11.797  10.752 -0.5057 -1.0664 -0.2410
42350SOL    HW134290   5.437  11.794  10.657  0.9135  0.8518 -0.4124
42350SOL    HW234291   5.362  11.843  10.779 -0.8146 -1.4491 -0.4811
42351SOL     OW34292  12.197  10.213   1.487  0.1963  0.3842  0.6905
42351SOL    HW134293  12.209  10.288   1.428  1.8210  1.4710  2.2646
42351SOL    HW234294  12.133  10.243   1.551 -0.3824 -0.2056  0.3964
42352SOL     OW34295   6.804   4.779   5.996  0.0626 -0.1621 -0.4751
42352SOL    HW134296   6.861   4.800   5.922 -0.2895  0.8806 -0.4719
42352SOL    HW234297   6.757   4.861   6.013 -0.9299 -0.8127 -0.0358
42353SOL     OW34298   3.420   2.603   7.820  0.2230  0.2275 -0.9033
42353SOL    HW134299   3.438   2.695   7.798 -0.2670  0.9747  1.5042
42353SOL    HW234300   3.497   2.575   7.870 -1.4589  0.8573  2.3159
42354SOL     OW34301   0.671   0.814   6.826  0.8619 -1.2791 -0.1956
42354SOL    HW134302   0.652   0.907   6.811 -1.2262 -2.0164 -3.0419
42354SOL    HW234303   0.726   0.813   6.904  1.2847  2.3584 -0.2659
42355SOL     OW34304  12.616   5.013   8.946  0.1979 -0.2257 -0.1278
42355SOL    HW134305  12.581   4.995   9.033  1.9202 -3.2082  0.0983
42355SOL    HW234306  12.545   4.993   8.886 -0.4005 -0.0328  0.5065
42356SOL     OW34307   1.371   2.511   8.169  0.3441  0.5636  0.5310
42356SOL    HW134308   1.335   2.439   8.220 -0.1574 -1.3143 -2.2258
42356SOL    HW234309   1.423   2.561   8.231 -0.8532 -1.0636  2.9951
42357SOL     OW34310   3.493   5.993   1.990 -0.4099  0.2251 -0.2459
42357SOL    HW134311   3.493   6.043   1.908  2.6102  1.0239  0.1417
42357SOL    HW234312   3.551   5.919   1.973 -0.2527  0.0608  0.9839
42358SOL     OW34313   1.114   8.951   6.238 -0.3642  0.7123 -0.0477
42358SOL    HW134314   1.159   9.011   6.298  0.4730 -0.3728  0.4378
42358SOL    HW234315   1.049   8.907   6.293 -0.6503  0.8284 -0.2924
42359SOL     OW34316  11.245   2.943   2.860 -0.2362 -0.5468  0.1791
42359SOL    HW134317  11.195   2.940   2.942  1.1074 -0.3251  1.0484
42359SOL    HW234318  11.325   2.894   2.880 -0.7147 -2.1608 -1.6215
42360SOL     OW34319   1.727   6.860  12.188  0.1777  0.0347 -0.5593
42360SOL    HW134320   1.688   6.881  12.273  2.7030  2.0163  0.2307
42360SOL    HW234321   1.820   6.848  12.207  0.4763 -1.6494 -2.7615
42361SOL     OW34322   4.715   7.159   8.492  0.0483  0.6351  0.0877
42361SOL    HW134323   4.798   7.156   8.444  0.0607  0.8852  0.0931
42361SOL    HW234324   4.658   7.212   8.437  0.4745  2.0786  0.9817
42362SOL     OW34325   5.784  12.346   0.527 -0.6388  0.0277  0.0585
42362SOL    HW134326   5.809  12.294   0.603 -1.1658  1.3803  1.1929
42362SOL    HW234327   5.846  12.320   0.459  0.4095 -0.5712  1.2050
42363SOL     OW34328   9.987   2.169  12.182  0.1170 -0.4521  0.7719
42363SOL    HW134329  10.071   2.170  12.227 -0.3684  1.7759  1.8014
42363SOL    HW234330   9.922   2.164  12.252 -0.6267  0.4414  0.1760
42364SOL     OW34331   1.907  10.106   5.884 -0.5853  0.0625  0.4308
42364SOL    HW134332   1.882  10.016   5.865 -0.8331  0.0528  0.7795
42364SOL    HW234333   1.925  10.107   5.978 -0.2414  0.2985  0.3667
42365SOL     OW34334   2.723   6.710   1.376 -0.8088 -0.1931 -0.3224
42365SOL    HW134335   2.779   6.646   1.332  0.6854 -0.0938  1.3193
42365SOL    HW234336   2.753   6.795   1.343  0.3649 -0.1139  0.8849
42366SOL     OW34337   1.058  11.576   5.327  0.1925 -0.0026  0.2947
42366SOL    HW134338   1.065  11.578   5.422 -0.8546  1.5203  0.3794
42366SOL    HW234339   0.971  11.539   5.310  1.2166 -2.3582 -0.1768
42367SOL     OW34340   3.951   9.682   8.395  0.2297  0.7850 -0.6363
42367SOL    HW134341   4.016   9.667   8.327 -0.2054 -0.0049 -0.8862
42367SOL    HW234342   3.868   9.689   8.348 -0.0882  0.1293 -0.1892
42368SOL     OW34343  12.583   8.880   4.965 -0.1397 -0.1607  0.9334
42368SOL    HW134344  12.546   8.958   4.923 -0.3129 -0.6984  0.0574
42368SOL    HW234345  12.568   8.810   4.901  0.4328 -0.8150  1.5131
42369SOL     OW34346   9.446   3.714   4.407 -0.4956  0.2193 -0.4371
42369SOL    HW134347   9.428   3.807   4.395 -3.2754 -0.3121 -1.1943
42369SOL    HW234348   9.409   3.694   4.493  0.1044 -0.1771 -0.2686
42370SOL     OW34349  11.037   9.042   3.346  0.3251 -0.2680 -0.5299
42370SOL    HW134350  11.012   9.130   3.373 -1.0036 -1.1805  1.5037
42370SOL    HW234351  11.132   9.040   3.353  0.4635  1.2694 -1.5947
42371SOL     OW34352   5.324  11.573  11.048  0.1702  0.7266 -0.2985
42371SOL    HW134353   5.379  11.650  11.039  0.6336  0.4429  0.0528
42371SOL    HW234354   5.322  11.556  11.142  0.6304 -0.0866 -0.4246
42372SOL     OW34355   5.999   7.901   7.902 -0.0588 -0.0404 -0.1371
42372SOL    HW134356   6.034   7.833   7.843  1.3244 -1.2455  1.9370
42372SOL    HW234357   6.052   7.978   7.882 -0.6068  0.0287 -1.4588
42373SOL     OW34358   5.142   2.814  10.850  0.3913  0.0853 -0.5535
42373SOL    HW134359   5.143   2.873  10.774 -1.0061 -1.3868 -1.7846
42373SOL    HW234360   5.232   2.815  10.882  0.5339  2.4518 -0.8306
42374SOL     OW34361  11.516   3.990   9.692 -0.1788 -0.0389  0.4960
42374SOL    HW134362  11.478   4.075   9.672  0.4148  0.7483  2.5031
42374SOL    HW234363  11.450   3.946   9.745 -0.5422 -0.9185 -0.6464
42375SOL     OW34364   3.046   1.115   0.003  0.1602 -0.0969 -0.1935
42375SOL    HW134365   3.008   1.029  -0.016 -0.1325  0.2416 -1.2088
42375SOL    HW234366   3.135   1.110  -0.031  0.3293 -0.1816  0.2566
42376SOL     OW34367   7.905   1.882  11.267 -0.6916  0.7893 -0.4384
42376SOL    HW134368   7.845   1.825  11.219 -0.9797  1.1135 -0.4668
42376SOL    HW234369   7.990   1.838  11.262 -1.4813 -1.4055  2.3470
42377SOL     OW34370   4.603   3.065  12.537  0.0725  0.3477 -0.0917
42377SOL    HW134371   4.601   3.057  12.442  0.1048  0.2672 -0.0849
42377SOL    HW234372   4.516   3.097  12.560 -0.0456  0.0506 -0.1194
42378SOL     OW34373   0.369   8.342  10.765  0.2377  0.3159 -0.5116
42378SOL    HW134374   0.306   8.410  10.789 -1.7913 -1.5751 -0.2080
42378SOL    HW234375   0.386   8.357  10.672  0.3095  1.5707 -0.3119
42379SOL     OW34376   5.564  10.402   4.100 -0.2172 -0.1757 -0.0811
42379SOL    HW134377   5.605  10.434   4.019 -0.9548  0.5173 -0.1949
42379SOL    HW234378   5.517  10.323   4.073 -1.1815  0.5222 -0.5448
42380SOL     OW34379   1.342   0.767   0.831 -0.1205  0.2193  0.0983
42380SOL    HW134380   1.406   0.819   0.782 -0.6785 -0.0470 -0.9565
42380SOL    HW234381   1.325   0.691   0.774 -0.6153 -0.2234  0.8236
42381SOL     OW34382   2.653   0.543   2.242  0.7112  0.2484  0.0061
42381SOL    HW134383   2.678   0.620   2.294  0.9735  1.0733 -1.3084
42381SOL    HW234384   2.604   0.488   2.303  2.5700  0.3092  1.6618
42382SOL     OW34385   3.348   6.565  11.309 -0.1848  0.8699 -0.5062
42382SOL    HW134386   3.364   6.644  11.258 -0.3813  0.7943 -0.6889
42382SOL    HW234387   3.419   6.563  11.374 -0.7320  1.7258  0.1465
42383SOL     OW34388   8.300   7.717   8.742  0.2136  1.1772 -0.3254
42383SOL    HW134389   8.243   7.792   8.725  0.8064  2.1880  1.7710
42383SOL    HW234390   8.388   7.749   8.724  0.4222  0.7804 -0.0331
42384SOL     OW34391   5.877   2.299  11.111  0.0946 -0.3279 -0.1767
42384SOL    HW134392   5.909   2.283  11.199 -1.5085 -3.1505 -0.0052
42384SOL    HW234393   5.791   2.341  11.124  1.0247  1.8324 -0.5287
42385SOL     OW34394   5.750   8.372   8.768 -0.1230  0.3448 -0.1738
42385SOL    HW134395   5.736   8.456   8.725 -0.2257 -0.0671 -0.9619
42385SOL    HW234396   5.803   8.322   8.706 -1.2591 -0.6835 -0.3586
42386SOL     OW34397   1.680   3.211   4.298 -0.1009  0.1903 -0.3929
42386SOL    HW134398   1.750   3.260   4.256 -0.6425  0.6890 -0.7320
42386SOL    HW234399   1.714   3.189   4.385  0.3538  0.6993 -0.4377
42387SOL     OW34400   4.874   8.754   7.439  0.7843 -0.2026  0.0718
42387SOL    HW134401   4.821   8.750   7.360  0.2031 -0.3835  0.4695
42387SOL    HW234402   4.813   8.740   7.511  1.1688  0.7566  0.6115
42388SOL     OW34403   6.712   9.883   0.275  0.2826 -0.3991  0.1692
42388SOL    HW134404   6.720   9.811   0.338 -1.8344 -0.1510  0.8183
42388SOL    HW234405   6.699   9.839   0.190 -1.5232 -0.8660  0.6345
42389SOL     OW34406   9.538   6.986   9.415  0.6872  0.3401 -0.1203
42389SOL    HW134407   9.530   7.013   9.507 -2.7922  1.6095 -0.6771
42389SOL    HW234408   9.587   7.057   9.374  1.9958 -0.0844  0.6388
42390SOL     OW34409   7.275  11.207   7.949 -0.1231  0.2790 -0.1737
42390SOL    HW134410   7.234  11.262   7.882  0.1224  0.3024 -0.3030
42390SOL    HW234411   7.328  11.268   8.001 -1.5052  0.5447  0.9988
42391SOL     OW34412   4.687   8.954  12.101 -0.2175 -0.7700  0.7517
42391SOL    HW134413   4.770   8.955  12.053 -1.1294 -1.7152 -0.9324
42391SOL    HW234414   4.636   9.024  12.062 -0.8032 -1.2498  0.6445
42392SOL     OW34415   1.413   7.644   7.954  0.7148  0.3629 -0.3947
42392SOL    HW134416   1.496   7.607   7.983  0.2752 -0.7876 -0.5367
42392SOL    HW234417   1.347   7.604   8.011 -0.0606 -1.1888 -2.2516
42393SOL     OW34418  10.275   3.540   7.477  0.3398 -0.3161 -0.0010
42393SOL    HW134419  10.305   3.574   7.561  0.7735 -0.2540 -0.1764
42393SOL    HW234420  10.347   3.560   7.417  0.0938 -0.4902 -0.3538
42394SOL     OW34421  10.169   2.827   7.706  0.0033 -0.0905  0.4192
42394SOL    HW134422  10.149   2.788   7.622  0.3525  0.6390 -0.0134
42394SOL    HW234423  10.157   2.756   7.769  0.4139 -0.8251 -0.3132
42395SOL     OW34424   2.806   4.719   3.497  0.6438  0.4987  0.0269
42395SOL    HW134425   2.832   4.663   3.570 -1.6633 -0.9686 -0.1538
42395SOL    HW234426   2.734   4.772   3.532 -0.1566  0.1335 -1.0012
42396SOL     OW34427   1.612   0.661   8.214 -0.1948 -0.6216 -0.0171
42396SOL    HW134428   1.665   0.726   8.261 -0.0711 -1.6681  1.3429
42396SOL    HW234429   1.630   0.679   8.122 -2.2435  3.0533  0.0666
42397SOL     OW34430  11.888   3.341   3.355  0.4143  0.0112  1.1865
42397SOL    HW134431  11.878   3.312   3.445 -1.2775  0.9002  1.3244
42397SOL    HW234432  11.970   3.391   3.355  1.0315 -0.9764  1.9407
42398SOL     OW34433   2.379  11.817   7.410  0.6411 -0.3038  0.0602
42398SOL    HW134434   2.339  11.769   7.483 -0.7745  0.3301 -0.2816
42398SOL    HW234435   2.462  11.849   7.446 -0.2064  0.3413  1.5471
42399SOL     OW34436  12.542  11.873   5.130  0.0277 -0.2437  0.0718
42399SOL    HW134437  12.549  11.902   5.221  0.7003  0.5370 -0.2247
42399SOL    HW234438  12.533  11.778   5.137 -2.2349 -0.0355  1.0496
42400SOL     OW34439   7.752  12.195   9.887 -0.5037  0.7466 -0.5170
42400SOL    HW134440   7.795  12.130   9.832  2.3895  0.1962  2.1379
42400SOL    HW234441   7.749  12.274   9.833 -0.1419 -0.3855 -2.2944
42401SOL     OW34442  12.652   9.259   3.511  0.0499  0.0942  0.7754
42401SOL    HW134443  12.602   9.316   3.569  1.8108  0.0192  2.4876
42401SOL    HW234444  12.738   9.302   3.503  0.3509 -0.6703 -0.5797
42402SOL     OW34445  10.727   7.633   5.119 -0.2843 -0.2205 -0.2059
42402SOL    HW134446  10.720   7.729   5.123 -0.6463 -0.2460 -0.2421
42402SOL    HW234447  10.672   7.608   5.045  2.1815 -0.1943 -2.2050
42403SOL     OW34448  11.735  11.053   7.783  0.0948 -0.0402 -0.1606
42403SOL    HW134449  11.677  11.015   7.717 -1.3330  1.4784  0.1614
42403SOL    HW234450  11.690  11.040   7.866  1.1682 -0.5764  0.3673
42404SOL     OW34451  10.240   3.769   4.081  0.9233  0.5001 -0.4128
42404SOL    HW134452  10.200   3.683   4.088  0.2030  0.8592 -0.0588
42404SOL    HW234453  10.175   3.829   4.116  0.3591  1.4894 -2.9639
42405SOL     OW34454   3.296  10.625   4.782  0.5084 -0.5996  0.0901
42405SOL    HW134455   3.267  10.564   4.714  0.2725 -1.0026  0.5498
42405SOL    HW234456   3.298  10.710   4.738  1.6209 -1.0486 -0.7759
42406SOL     OW34457   4.890   4.993  11.027 -0.0335  0.2317  0.0136
42406SOL    HW134458   4.869   4.934  10.954 -0.4547  0.2350  0.1288
42406SOL    HW234459   4.812   4.989  11.083 -0.3940  1.5152 -0.3754
42407SOL     OW34460   4.666  12.137   9.789 -0.0252  0.5345  0.1796
42407SOL    HW134461   4.674  12.212   9.849  0.7178  0.2677  0.4366
42407SOL    HW234462   4.574  12.135   9.765 -0.6182 -0.0497  2.2520
42408SOL     OW34463   0.768   5.690   9.012  0.4722  0.3781  0.1388
42408SOL    HW134464   0.838   5.732   8.962  1.8599 -0.1830  1.5228
42408SOL    HW234465   0.810   5.615   9.055 -1.4076 -1.1026 -0.4377
42409SOL     OW34466   7.467  12.230   8.887 -0.3700 -0.0128  0.1554
42409SOL    HW134467   7.452  12.138   8.907 -2.0208  0.4474  1.2509
42409SOL    HW234468   7.484  12.270   8.973  1.3121  0.5767 -0.3979
42410SOL     OW34469   7.164   7.063   7.579  0.3010 -0.0216  0.4064
42410SOL    HW134470   7.093   7.101   7.630 -1.6816 -2.8560 -0.0237
42410SOL    HW234471   7.175   7.123   7.505 -0.9378  1.0144  1.0184
42411SOL     OW34472  11.170   5.555  10.515  0.3487 -0.0757  0.4839
42411SOL    HW134473  11.188   5.487  10.450  0.4037  0.2616  0.1447
42411SOL    HW234474  11.240   5.545  10.579  1.8999  1.3250 -0.9018
42412SOL     OW34475   0.781   3.241   4.546 -0.2146  0.3724  0.3248
42412SOL    HW134476   0.796   3.197   4.462  1.5908 -0.9041  1.2357
42412SOL    HW234477   0.865   3.233   4.592 -0.3941  3.2063  1.3106
42413SOL     OW34478   7.422   5.394   6.006 -0.4123 -0.0838 -0.3605
42413SOL    HW134479   7.414   5.302   6.032 -0.8341  0.4246  1.4958
42413SOL    HW234480   7.336   5.416   5.970 -1.3401  0.2780  1.8570
42414SOL     OW34481   3.125  12.534   5.182  0.0438  0.0956  0.3295
42414SOL    HW134482   3.220  12.544   5.188  0.2181 -0.9684 -0.3951
42414SOL    HW234483   3.094  12.620   5.155  1.0441 -0.1182 -1.6742
42415SOL     OW34484   8.596   6.485   6.544 -0.0284 -0.2493  0.5458
42415SOL    HW134485   8.635   6.412   6.496 -1.3430 -0.6783  0.0766
42415SOL    HW234486   8.659   6.556   6.537  0.9396 -1.1104  0.3726
42416SOL     OW34487   6.635   8.384   1.101 -0.5469 -0.2923 -0.0211
42416SOL    HW134488   6.702   8.453   1.103 -1.5131  0.7642 -1.5443
42416SOL    HW234489   6.682   8.304   1.125  0.2736  1.0736  3.4248
42417SOL     OW34490   2.210   6.598   0.432 -0.0419 -0.1066 -0.1671
42417SOL    HW134491   2.237   6.688   0.412 -1.1688  0.2665 -0.0339
42417SOL    HW234492   2.216   6.591   0.527 -1.0455  0.1959 -0.0714
42418SOL     OW34493   3.503  11.830  10.827 -0.3526 -0.0260 -0.1587
42418SOL    HW134494   3.528  11.899  10.766 -0.7895  1.6904  1.5207
42418SOL    HW234495   3.460  11.875  10.899 -1.1220 -2.1172  0.7860
42419SOL     OW34496   2.147   2.724   7.074 -0.0738 -0.3844 -0.3003
42419SOL    HW134497   2.069   2.669   7.061 -0.7579  0.0822  1.5390
42419SOL    HW234498   2.202   2.673   7.134 -0.4729  0.6451  0.9957
42420SOL     OW34499   9.293   4.203   2.791 -1.1158  0.0651  0.2893
42420SOL    HW134500   9.244   4.155   2.724  1.8142 -0.8311 -1.3597
42420SOL    HW234501   9.353   4.139   2.828  0.8281  1.7365  0.1850
42421SOL     OW34502   9.966   8.729   7.064  0.0774 -0.2547  0.4941
42421SOL    HW134503   9.994   8.796   7.127  0.6032  1.5230 -1.5288
42421SOL    HW234504   9.873   8.747   7.049  0.0979 -0.2912  0.3175
42422SOL     OW34505   3.968   8.901  11.827 -0.0494  0.2444 -0.0438
42422SOL    HW134506   3.982   8.843  11.752  1.6733  0.7971 -0.2032
42422SOL    HW234507   3.984   8.989  11.792  0.0126  0.5821  0.8053
42423SOL     OW34508   9.849   1.402   1.475  0.7402  0.4471 -0.5629
42423SOL    HW134509   9.768   1.397   1.526  2.0027 -0.4379  1.5011
42423SOL    HW234510   9.833   1.348   1.398 -0.3419 -0.4742  0.2737
42424SOL     OW34511   9.637   8.262   4.003  0.1470 -0.7903  0.0923
42424SOL    HW134512   9.599   8.212   4.076 -0.1823 -1.1403 -0.3132
42424SOL    HW234513   9.731   8.252   4.013  0.1073 -0.7264  0.5478
42425SOL     OW34514  12.663   6.410   0.504 -0.1642 -0.2555  0.0492
42425SOL    HW134515  12.709   6.338   0.547 -2.2825 -1.2477  0.7996
42425SOL    HW234516  12.609   6.367   0.437 -0.5731  0.7771 -0.3077
42426SOL     OW34517   2.349   9.285  12.180  0.0566  0.1099 -0.4034
42426SOL    HW134518   2.284   9.285  12.111 -0.4059  1.3299 -0.0061
42426SOL    HW234519   2.304   9.324  12.256  0.3862 -1.6547  0.7593
42427SOL     OW34520   8.993   5.839   3.413 -0.2530 -0.3374 -0.2166
42427SOL    HW134521   8.980   5.746   3.391  0.9431 -0.1620 -1.8977
42427SOL    HW234522   8.943   5.886   3.346  0.9852  0.2209 -0.7744
42428SOL     OW34523  12.058   5.126  11.009  0.1200 -0.5450  0.2171
42428SOL    HW134524  12.097   5.195  11.063  0.9493  1.3028 -2.5438
42428SOL    HW234525  12.130   5.064  10.993 -0.1613 -1.1633  1.2724
42429SOL     OW34526  12.639   1.029   0.533  1.0425 -0.1808 -0.1427
42429SOL    HW134527  12.597   0.949   0.564  2.3493 -0.1009  2.0967
42429SOL    HW234528  12.583   1.099   0.565  0.9360 -0.1554 -0.3850
42430SOL     OW34529   4.011   8.366   4.185 -0.0285  0.3619 -0.2192
42430SOL    HW134530   3.988   8.335   4.273 -0.3419  0.2936 -0.3264
42430SOL    HW234531   3.936   8.419   4.158  0.4009  1.0265 -0.1336
42431SOL     OW34532   5.727  11.381  11.067  0.4806 -0.6325  0.7361
42431SOL    HW134533   5.787  11.456  11.059 -0.1027 -0.2651 -0.5392
42431SOL    HW234534   5.669  11.405  11.139  2.2059 -1.2702  2.4092
42432SOL     OW34535   5.843   9.234   7.392 -0.2864 -0.4882 -0.1904
42432SOL    HW134536   5.932   9.248   7.424 -0.2911  0.3383 -0.5032
42432SOL    HW234537   5.854   9.199   7.304 -0.2520  0.1950 -0.4702
42433SOL     OW34538  11.525  11.321   7.788  0.0848  0.0942  0.3702
42433SOL    HW134539  11.452  11.304   7.729  0.0229  0.5290  0.3229
42433SOL    HW234540  11.578  11.241   7.784 -0.7233 -0.4875  0.9016
42434SOL     OW34541   5.278  11.258  11.005 -0.1880 -0.1246  0.2666
42434SOL    HW134542   5.312  11.347  10.998  0.1692 -0.0731  2.1535
42434SOL    HW234543   5.256  11.234  10.915  0.2160  1.6555 -0.3550
42435SOL     OW34544   4.093   5.431   5.821  0.3378 -0.0694  0.7735
42435SOL    HW134545   4.107   5.365   5.889  0.5510 -0.9515 -0.1018
42435SOL    HW234546   4.121   5.513   5.861 -0.3088 -0.4331  2.0229
42436SOL     OW34547   3.787   2.081   7.443  0.0917  0.7296 -0.0571
42436SOL    HW134548   3.759   2.119   7.526 -3.0734  0.1193 -0.7405
42436SOL    HW234549   3.746   2.136   7.377  0.4450 -0.3081 -1.1635
42437SOL     OW34550   6.593   2.723   8.605  0.3671  0.0833  0.2010
42437SOL    HW134551   6.574   2.817   8.599 -1.4142 -0.1874  0.9128
42437SOL    HW234552   6.683   2.719   8.637  0.8150  1.5360 -0.7758
42438SOL     OW34553   3.415   1.348   8.438  0.5198 -0.4495 -0.2583
42438SOL    HW134554   3.368   1.391   8.510  1.5664  2.2008 -1.0296
42438SOL    HW234555   3.420   1.256   8.465 -1.4654 -0.0810  1.7503
42439SOL     OW34556   4.902   6.586   1.026 -0.5402  0.0196 -0.1110
42439SOL    HW134557   4.896   6.656   1.090 -1.4841  0.3170 -0.4993
42439SOL    HW234558   4.927   6.509   1.076  0.1905  0.5615  0.3700
42440SOL     OW34559   3.398  10.407   7.857 -0.3814  0.5794  0.0548
42440SOL    HW134560   3.474  10.464   7.845  0.6692 -0.6498  0.4685
42440SOL    HW234561   3.363  10.432   7.942  1.3173 -0.6835  1.2019
42441SOL     OW34562   7.230   7.452   9.306  0.1763  0.6172  0.7209
42441SOL    HW134563   7.134   7.452   9.307  0.0684 -2.5685  0.2376
42441SOL    HW234564   7.253   7.460   9.213  0.5185  2.7211  0.9190
42442SOL     OW34565   4.925   8.629   7.892 -0.0496  0.7856  0.2416
42442SOL    HW134566   4.949   8.719   7.915 -0.7538  0.8562  0.7548
42442SOL    HW234567   4.937   8.579   7.973  0.7395  0.3289 -0.1527
42443SOL     OW34568   4.836   1.931   8.403 -0.2358  0.3735  0.5182
42443SOL    HW134569   4.928   1.905   8.406 -0.3835 -0.8787 -2.0887
42443SOL    HW234570   4.834   2.008   8.346 -0.7736  0.5843  0.8078
42444SOL     OW34571   9.579   5.502  11.077 -0.3371 -0.4649 -0.3708
42444SOL    HW134572   9.489   5.500  11.109 -1.0244  2.0401 -1.8376
42444SOL    HW234573   9.577   5.450  10.996 -0.4211 -0.5571 -0.3093
42445SOL     OW34574   5.771   5.051   6.892  0.3881 -0.1738 -0.2197
42445SOL    HW134575   5.767   5.142   6.863 -0.4438 -0.0974  0.1009
42445SOL    HW234576   5.798   5.056   6.984 -0.2397 -0.1965 -0.0228
42446SOL     OW34577  11.650   4.477  11.027 -0.2515 -0.0370 -0.1603
42446SOL    HW134578  11.668   4.424  10.950  0.0115 -0.9893  0.5364
42446SOL    HW234579  11.728   4.466  11.082 -0.6503  0.2268  0.4676
42447SOL     OW34580   0.693   7.117   2.919 -0.3867 -0.1405  0.3444
42447SOL    HW134581   0.608   7.148   2.886 -0.0453  1.3593  0.7853
42447SOL    HW234582   0.734   7.074   2.844 -1.0251  0.2412 -0.2338
42448SOL     OW34583   9.715  12.558   8.687 -0.4017  0.4365 -0.1788
42448SOL    HW134584   9.691  12.525   8.774  0.7736 -0.1392 -0.0482
42448SOL    HW234585   9.652  12.518   8.628 -2.1334  1.9738  0.5443
42449SOL     OW34586   5.491   0.129   7.668  0.3135  0.0783  0.0062
42449SOL    HW134587   5.525   0.136   7.757 -1.0052 -0.3479  0.5632
42449SOL    HW234588   5.542   0.192   7.618  2.2488 -0.8680  0.6863
42450SOL     OW34589   9.829   0.244   9.809 -0.0339  0.5201 -0.7864
42450SOL    HW134590   9.736   0.262   9.797 -0.0274  0.8968 -0.3385
42450SOL    HW234591   9.865   0.327   9.843  0.4209  0.3142 -0.7540
42451SOL     OW34592   0.433   9.151   6.359 -0.7998 -0.3757  0.0805
42451SOL    HW134593   0.359   9.105   6.319 -2.8052  1.4716  1.4241
42451SOL    HW234594   0.448   9.227   6.302 -1.5046  0.4991  1.0349
42452SOL     OW34595   4.076   1.011   1.645 -0.4113 -0.5148  0.1706
42452SOL    HW134596   4.141   0.995   1.713 -0.2030 -1.0193 -0.1440
42452SOL    HW234597   4.119   0.985   1.564 -0.2250  1.2044 -0.3254
42453SOL     OW34598   4.317   4.200  12.383 -0.5877 -0.2915 -0.0239
42453SOL    HW134599   4.297   4.293  12.376  0.4930  0.1289  1.8797
42453SOL    HW234600   4.395   4.196  12.438 -1.2135 -2.3690  0.8037
42454SOL     OW34601  12.415   5.935   8.124 -0.7310 -0.3093  0.6160
42454SOL    HW134602  12.501   5.893   8.113 -0.2098  0.9586 -0.4915
42454SOL    HW234603  12.417   5.971   8.212 -0.2069 -0.4806  0.6783
42455SOL     OW34604   1.379   8.635   6.857  0.2952  0.1250  0.3383
42455SOL    HW134605   1.321   8.582   6.912  0.0365  0.4625  0.3989
42455SOL    HW234606   1.387   8.585   6.776 -1.8744  1.0726 -0.5448
42456SOL     OW34607   0.605   0.254   1.911  0.4423  0.1632 -0.2738
42456SOL    HW134608   0.534   0.300   1.955  0.4628  0.2503 -0.3322
42456SOL    HW234609   0.601   0.285   1.820 -0.0191 -0.4998 -0.4916
42457SOL     OW34610   4.502  10.433   2.327  0.3178 -0.5115  0.3547
42457SOL    HW134611   4.537  10.428   2.238  0.3884 -2.6805  0.4424
42457SOL    HW234612   4.478  10.525   2.338  3.0131  0.4651 -0.8359
42458SOL     OW34613   8.325   4.950   6.812 -0.6009 -0.2003  0.2977
42458SOL    HW134614   8.405   4.999   6.793  0.8180 -1.6478  2.1521
42458SOL    HW234615   8.256   5.017   6.814  0.7015  1.2242 -0.4001
42459SOL     OW34616  11.200   9.956   6.493 -0.2351 -0.1272  0.2007
42459SOL    HW134617  11.250   9.920   6.566 -1.6444 -0.5297  0.9990
42459SOL    HW234618  11.156  10.033   6.528  0.8494  1.0431 -0.8668
42460SOL     OW34619  10.520   0.171   2.448  0.6607  0.0514  0.6373
42460SOL    HW134620  10.505   0.084   2.411  2.3981 -0.4743  1.0368
42460SOL    HW234621  10.568   0.218   2.380  1.3813  0.0381  1.1231
42461SOL     OW34622  12.530   8.714  11.782 -0.1506  0.0544  0.2969
42461SOL    HW134623  12.471   8.781  11.748  0.5973 -0.5150 -2.3722
42461SOL    HW234624  12.604   8.763  11.816 -0.7656  0.6626  0.7808
42462SOL     OW34625   5.878  11.666   0.431 -0.1256 -0.2014  0.1390
42462SOL    HW134626   5.953  11.608   0.434  0.6875  0.8539  2.1228
42462SOL    HW234627   5.861  11.679   0.337  2.1916 -0.4347 -0.3717
42463SOL     OW34628   7.818  12.462   2.650  0.1786 -0.1291  0.1283
42463SOL    HW134629   7.744  12.433   2.597  0.3812  0.8834 -0.7389
42463SOL    HW234630   7.840  12.549   2.616  1.0142  0.0862  1.1563
42464SOL     OW34631   0.177   4.300   7.567 -0.5276 -0.2128  0.1944
42464SOL    HW134632   0.227   4.219   7.558 -1.5255 -0.8835  0.4702
42464SOL    HW234633   0.103   4.276   7.623 -0.3467  1.1266  1.0246
42465SOL     OW34634   2.387  10.515  10.669 -0.0486  0.1806  0.5799
42465SOL    HW134635   2.306  10.539  10.715 -0.2520  0.3233  0.1573
42465SOL    HW234636   2.445  10.590  10.683  0.2408 -0.1962  1.4166
42466SOL     OW34637   8.329   2.419   2.889  0.1258 -0.5140 -0.0246
42466SOL    HW134638   8.336   2.514   2.878  0.2638 -0.6940 -1.8445
42466SOL    HW234639   8.384   2.383   2.819  1.4064 -1.9511  1.6347
42467SOL     OW34640   7.600   4.573  10.458 -0.0575  0.6719 -0.0144
42467SOL    HW134641   7.656   4.548  10.385  0.4123 -1.4826  0.9982
42467SOL    HW234642   7.571   4.661  10.437 -1.5989 -0.5451 -3.8164
42468SOL     OW34643   7.722   5.321   2.728  0.7605 -0.2546  0.1424
42468SOL    HW134644   7.760   5.240   2.763  1.2171  0.0553  0.3684
42468SOL    HW234645   7.708   5.302   2.635  1.6017 -0.3346  0.0194
42469SOL     OW34646   9.297   5.944   7.610 -0.1710  0.3720  0.3049
42469SOL    HW134647   9.260   5.865   7.648 -0.3545  0.8383  1.1212
42469SOL    HW234648   9.392   5.935   7.622 -0.1916  0.2867  0.4002
42470SOL     OW34649   5.699   7.761   5.771  0.2668 -0.2282  0.6907
42470SOL    HW134650   5.791   7.747   5.748  1.3202  2.8937  2.5229
42470SOL    HW234651   5.657   7.783   5.687  1.9069  1.4216  0.2439
42471SOL     OW34652   7.800   5.656  12.221  0.2284  0.0620  0.1383
42471SOL    HW134653   7.843   5.677  12.138  0.9236 -1.1265  0.1750
42471SOL    HW234654   7.712   5.694  12.213 -0.5649 -1.9648 -2.1065
42472SOL     OW34655   3.924   2.063  11.104 -0.4859 -0.0056 -0.3003
42472SOL    HW134656   3.887   2.147  11.077 -0.7286 -0.4968 -1.5669
42472SOL    HW234657   3.970   2.082  11.186  0.5216  1.6441 -1.1873
42473SOL     OW34658   4.995  10.467   6.520 -0.2321 -0.1143 -0.8250
42473SOL    HW134659   4.989  10.447   6.614  0.8220 -0.0383 -0.7277
42473SOL    HW234660   5.038  10.553   6.517  0.8529 -0.6600 -1.4004
42474SOL     OW34661  10.748   2.495   9.764  0.0523 -0.6074  0.2658
42474SOL    HW134662  10.840   2.467   9.766 -0.4649 -2.4312  0.3972
42474SOL    HW234663  10.750   2.586   9.795  1.7332 -0.8225  0.9054
42475SOL     OW34664   5.527   4.072   4.697 -0.2687  0.4751 -0.2958
42475SOL    HW134665   5.507   4.039   4.609 -1.4884  1.3369 -0.3580
42475SOL    HW234666   5.598   4.015   4.727 -1.0422 -1.0051 -1.1248
42476SOL     OW34667   6.879   3.710   0.222  0.1901  0.0186  0.1024
42476SOL    HW134668   6.899   3.630   0.174 -0.2775 -0.8306  1.2748
42476SOL    HW234669   6.789   3.698   0.252  0.1476  0.9427  0.3858
42477SOL     OW34670   1.288   4.411   1.744 -0.5583  0.4926 -0.0415
42477SOL    HW134671   1.344   4.484   1.720 -0.9189  0.5178 -0.8433
42477SOL    HW234672   1.347   4.346   1.782 -0.4009  1.6956  1.9165
42478SOL     OW34673   0.206   8.508   2.893  0.1364  0.4688 -0.5865
42478SOL    HW134674   0.184   8.498   2.801  1.4719  1.3160 -1.0321
42478SOL    HW234675   0.203   8.419   2.928  0.6674 -0.0125 -1.7148
42479SOL     OW34676   3.106   0.254   5.537 -0.3302  0.2970 -0.0017
42479SOL    HW134677   3.137   0.218   5.620  0.2186 -0.2057 -0.4127
42479SOL    HW234678   3.138   0.344   5.536  1.5180 -0.3097 -0.5716
42480SOL     OW34679   4.261   4.867   0.529  0.2192  0.1610 -0.3351
42480SOL    HW134680   4.300   4.952   0.548 -0.3376  0.5269 -0.7963
42480SOL    HW234681   4.247   4.867   0.435  2.0684 -1.2603 -0.6538
42481SOL     OW34682  11.970   3.228   1.412 -0.0819  0.1993  0.1164
42481SOL    HW134683  12.038   3.214   1.479  1.1954  3.2215 -0.4198
42481SOL    HW234684  11.888   3.231   1.462  0.5011 -0.5088  1.1571
42482SOL     OW34685  11.219   8.525   8.851 -0.3448  0.2191  0.4891
42482SOL    HW134686  11.228   8.438   8.813  0.3016 -0.3607  1.9171
42482SOL    HW234687  11.238   8.585   8.779  0.8520 -0.8436 -0.1119
42483SOL     OW34688   7.543   3.268   7.728 -0.3061  0.4585 -0.7515
42483SOL    HW134689   7.475   3.257   7.662 -0.1140  0.0476 -0.8830
42483SOL    HW234690   7.558   3.362   7.732 -1.7132  0.6761  0.1174
42484SOL     OW34691   0.474  10.067   5.824  0.4229  0.5917  0.0303
42484SOL    HW134692   0.432  10.153   5.828  0.6233  0.6951 -0.0999
42484SOL    HW234693   0.565  10.086   5.801  0.7436  0.4275  1.1061
42485SOL     OW34694   9.110   3.855   7.376  1.0506 -0.0019  0.4210
42485SOL    HW134695   9.140   3.913   7.446  0.0625 -0.9317  1.6700
42485SOL    HW234696   9.077   3.914   7.308 -1.3265  0.9570  2.2758
42486SOL     OW34697   1.894   8.974   4.027 -0.1035  0.2374 -0.2731
42486SOL    HW134698   1.930   9.055   4.062 -0.2904  0.3901 -0.4342
42486SOL    HW234699   1.948   8.954   3.951 -0.4909  0.5861 -0.6465
42487SOL     OW34700   9.280   8.204  10.344 -0.1619  0.1864  0.5294
42487SOL    HW134701   9.226   8.126  10.340 -2.4108  1.6720 -0.1548
42487SOL    HW234702   9.227   8.268  10.392  1.3335  1.5071  0.5275
42488SOL     OW34703   8.621  12.385   3.693 -0.3957  0.0861  0.2456
42488SOL    HW134704   8.583  12.328   3.759 -0.7095 -0.4512 -0.3943
42488SOL    HW234705   8.652  12.461   3.742  1.2670 -1.2118  1.3244
42489SOL     OW34706   0.653   1.013   3.082  0.1996 -0.2888 -0.3072
42489SOL    HW134707   0.562   0.985   3.082 -0.0060  0.3394 -0.9187
42489SOL    HW234708   0.652   1.098   3.127  0.5402 -0.4459  0.0025
42490SOL     OW34709   0.182  10.972   2.946 -0.2563  0.0529 -0.2148
42490SOL    HW134710   0.160  10.906   2.880 -1.7662  0.4828 -0.1821
42490SOL    HW234711   0.195  10.921   3.027  2.4837 -0.5764 -0.9327
42491SOL     OW34712   7.684   5.341   2.057  0.2079  0.3701  0.4387
42491SOL    HW134713   7.613   5.327   1.995 -0.3612  1.1411  0.8972
42491SOL    HW234714   7.644   5.330   2.143  0.4783  1.4594  0.7249
42492SOL     OW34715   7.772   9.137   5.239  0.5550 -0.0668  0.0324
42492SOL    HW134716   7.835   9.202   5.268  0.9221 -0.1617 -0.5314
42492SOL    HW234717   7.825   9.064   5.208  0.1436 -0.7175  0.8365
42493SOL     OW34718   8.319   6.829   1.145  0.3285 -0.0436  0.1188
42493SOL    HW134719   8.227   6.843   1.169  0.0137  0.6434 -1.3831
42493SOL    HW234720   8.367   6.844   1.227 -0.8878 -0.5068  0.9557
42494SOL     OW34721   6.366   5.155   5.721 -0.0928  0.0820  0.0741
42494SOL    HW134722   6.322   5.106   5.791  1.1619 -0.2861  0.6406
42494SOL    HW234723   6.296   5.180   5.661 -0.9548 -1.2202  0.4997
42495SOL     OW34724   8.274  12.454   3.132 -0.6357 -0.2024 -0.1398
42495SOL    HW134725   8.367  12.442   3.152 -0.0626  1.3387 -1.5981
42495SOL    HW234726   8.255  12.389   3.065 -0.4451 -0.1423 -0.2542
42496SOL     OW34727  12.304   5.855  10.747 -0.0047  0.4205 -0.1814
42496SOL    HW134728  12.386   5.888  10.712  1.3739 -0.3629  2.0710
42496SOL    HW234729  12.281   5.918  10.816 -1.1804  0.4952 -0.6229
42497SOL     OW34730   0.412   7.384   9.337  0.6103 -0.2864  0.0160
42497SOL    HW134731   0.479   7.437   9.294  0.9220 -0.0356  0.7896
42497SOL    HW234732   0.452   7.360   9.421  0.5123 -1.8007 -0.3378
42498SOL     OW34733   3.024   8.582   6.663 -0.7626  0.7264 -0.0845
42498SOL    HW134734   2.938   8.552   6.634 -0.5837  1.2892 -1.2641
42498SOL    HW234735   3.035   8.668   6.622  0.0953  0.9581  0.5802
42499SOL     OW34736   8.681   0.830   1.713 -0.0924 -0.4869 -0.4612
42499SOL    HW134737   8.735   0.795   1.784  0.1469  1.2156  0.2322
42499SOL    HW234738   8.724   0.912   1.689 -1.5640  0.1832 -0.8710
42500SOL     OW34739   3.244   6.566   2.750  0.2898  0.1165  0.0423
42500SOL    HW134740   3.160   6.610   2.765  0.0027 -0.4081 -0.0100
42500SOL    HW234741   3.245   6.493   2.812 -1.5420 -2.9468 -3.1712
42501SOL     OW34742   6.949   9.050   6.392  0.0321  0.3210 -0.1238
42501SOL    HW134743   6.903   9.038   6.309 -0.5172  0.3205  0.1721
42501SOL    HW234744   6.931   8.970   6.441  2.3087 -0.7394 -0.8840
42502SOL     OW34745   2.961   4.641   6.258  0.2995  0.5202 -0.1980
42502SOL    HW134746   3.044   4.687   6.245  1.9370 -1.3665  2.4954
42502SOL    HW234747   2.930   4.671   6.343 -0.7557 -0.2406 -0.3003
42503SOL     OW34748   5.043   5.064   0.825 -0.1596  0.2015  0.9253
42503SOL    HW134749   5.050   5.111   0.908 -0.2300  1.5266  0.1930
42503SOL    HW234750   5.000   4.981   0.848  1.9835 -0.5349  2.6163
42504SOL     OW34751   3.398  11.975   7.111  0.1937  0.0583 -0.1189
42504SOL    HW134752   3.486  11.948   7.139  0.9000  0.7474 -1.5842
42504SOL    HW234753   3.382  12.057   7.158 -0.1190 -0.5781  0.9295
42505SOL     OW34754   1.803   5.884   1.087 -0.1894  0.1367 -0.3860
42505SOL    HW134755   1.868   5.842   1.031  1.3716 -0.8084  1.9725
42505SOL    HW234756   1.793   5.972   1.052  2.0586  0.1636 -1.1148
42506SOL     OW34757   0.491   0.637   5.618 -0.2672 -0.1694 -0.5245
42506SOL    HW134758   0.529   0.625   5.531  1.3329 -1.4402  0.2893
42506SOL    HW234759   0.562   0.616   5.679 -1.5377 -0.0024  1.1065
42507SOL     OW34760   2.084   8.314   9.089  1.2087  0.1385 -0.1388
42507SOL    HW134761   2.035   8.390   9.057  0.5243 -0.1786  0.1343
42507SOL    HW234762   2.161   8.351   9.132  0.4295  0.7329  0.7740
42508SOL     OW34763   8.371  11.104  10.216 -0.3428 -0.5041  0.2699
42508SOL    HW134764   8.358  11.178  10.275  0.4224  0.8276 -1.1608
42508SOL    HW234765   8.333  11.132  10.133 -2.0001 -2.5925  0.2427
42509SOL     OW34766  11.820   7.591   5.245  0.4029 -0.1645 -0.3043
42509SOL    HW134767  11.896   7.613   5.191  0.4507 -0.0069 -0.1751
42509SOL    HW234768  11.850   7.605   5.335  0.4466 -0.8092 -0.2208
42510SOL     OW34769   0.634  11.835   2.369  0.1395  0.0855 -0.2772
42510SOL    HW134770   0.660  11.911   2.317  1.5423 -0.3263 -0.2365
42510SOL    HW234771   0.691  11.839   2.446  0.1979 -0.9774 -0.2555
42511SOL     OW34772   1.643   6.718  11.981  0.0442 -0.2354  0.2504
42511SOL    HW134773   1.672   6.637  12.022  2.4098  0.4803  0.1515
42511SOL    HW234774   1.645   6.783  12.051 -2.2688 -0.2869  0.4393
42512SOL     OW34775   3.080  11.515   4.037 -0.8319  0.4662 -0.3245
42512SOL    HW134776   3.075  11.463   4.118  0.0867 -0.9319 -1.1291
42512SOL    HW234777   3.132  11.592   4.062 -0.9345  0.2818  0.5151
42513SOL     OW34778  11.510   6.623   6.199  0.1001  0.7617 -0.5023
42513SOL    HW134779  11.580   6.565   6.229  0.8635  2.1572  0.5118
42513SOL    HW234780  11.434   6.598   6.251 -0.5677 -1.5390 -2.3992
42514SOL     OW34781   0.347   2.994   3.936 -0.2090  0.1917 -0.0448
42514SOL    HW134782   0.283   3.060   3.908  0.1431  0.6363  0.1786
42514SOL    HW234783   0.298   2.912   3.935 -0.3531  0.2797 -1.4114
42515SOL     OW34784   0.479   3.105   1.786  0.3046  0.9715  0.3850
42515SOL    HW134785   0.491   3.059   1.869 -0.5189  0.8182  0.4240
42515SOL    HW234786   0.554   3.165   1.781  0.9423  0.2157  0.7177
42516SOL     OW34787   1.699  10.876   2.831  0.0181  0.9378 -0.0057
42516SOL    HW134788   1.654  10.879   2.747 -0.3895  0.2732  0.1893
42516SOL    HW234789   1.661  10.948   2.881 -0.2622  0.8704 -0.1231
42517SOL     OW34790   6.254   1.275   9.977 -0.6547  0.0094  0.1638
42517SOL    HW134791   6.188   1.340  10.002  0.7511  1.7091 -0.3127
42517SOL    HW234792   6.292   1.247  10.060 -1.3733 -0.3095  0.3857
42518SOL     OW34793   6.640   1.908   4.211  0.1236  0.8374 -0.1910
42518SOL    HW134794   6.616   1.911   4.119 -1.2575  1.6180  0.1596
42518SOL    HW234795   6.643   2.000   4.238 -1.0411  0.5911  0.8868
42519SOL     OW34796   0.091   9.628   1.928 -0.4252 -0.3642 -0.3209
42519SOL    HW134797   0.137   9.641   1.844  1.3933 -2.0615  0.3310
42519SOL    HW234798   0.154   9.655   1.994 -1.5686  0.2485  0.5489
42520SOL     OW34799   3.438   4.060   4.572  0.1909  0.3653 -0.4401
42520SOL    HW134800   3.487   4.035   4.650  1.5300  0.6094 -1.1729
42520SOL    HW234801   3.348   4.073   4.603  0.4985 -0.4733  0.8662
42521SOL     OW34802   8.048   9.319   7.102  0.0904 -0.0793 -0.6452
42521SOL    HW134803   7.996   9.256   7.052 -0.6662  0.5727 -0.7046
42521SOL    HW234804   8.084   9.269   7.175 -0.5187 -0.5821 -0.6805
42522SOL     OW34805   7.693   8.800  12.043  0.0408  0.2592 -0.3123
42522SOL    HW134806   7.780   8.826  12.013  1.3143 -2.8989  0.2427
42522SOL    HW234807   7.692   8.822  12.136  1.1236 -1.5432  0.1702
42523SOL     OW34808   4.530   7.365  12.371  0.1125  0.4244 -0.5838
42523SOL    HW134809   4.509   7.451  12.334 -0.1412  0.1424 -1.1022
42523SOL    HW234810   4.464   7.352  12.439  0.9065  1.1817  0.3639
42524SOL     OW34811   3.668   2.747  10.238  0.3504 -0.0152 -0.4535
42524SOL    HW134812   3.623   2.706  10.312  0.1366  1.3023  0.1656
42524SOL    HW234813   3.760   2.726  10.252  0.2490 -0.2648 -0.1491
42525SOL     OW34814   4.401   5.958   2.308  0.6023 -0.2314 -0.0208
42525SOL    HW134815   4.489   5.993   2.298  0.0430  2.0897  2.0653
42525SOL    HW234816   4.412   5.882   2.366  1.1580  0.7827  1.2619
42526SOL     OW34817   0.644   5.122   9.949 -0.2394  0.3973  0.3150
42526SOL    HW134818   0.648   5.207   9.907  0.7992  0.8557  1.2901
42526SOL    HW234819   0.730   5.083   9.934 -0.7916 -0.6163 -0.3648
42527SOL     OW34820   0.770   4.809   6.385 -0.5915  0.2108  0.0613
42527SOL    HW134821   0.728   4.891   6.415 -1.7424 -0.9368  1.8226
42527SOL    HW234822   0.698   4.746   6.381  0.7373 -1.5701  2.1248
42528SOL     OW34823   2.651  10.394   7.516  0.0546  0.2215  0.1787
42528SOL    HW134824   2.713  10.401   7.442  0.6786  0.9022  0.7534
42528SOL    HW234825   2.707  10.391   7.593 -0.6336  0.4139  0.6892
42529SOL     OW34826  11.252   0.617  11.772  0.0028  0.2269 -0.3959
42529SOL    HW134827  11.258   0.637  11.865  0.8074  1.5073 -0.6922
42529SOL    HW234828  11.300   0.534  11.762  1.9675  1.2459  0.0207
42530SOL     OW34829   8.210   3.527   7.692 -0.1293  0.4568  0.2166
42530SOL    HW134830   8.190   3.445   7.647  1.3007 -0.2873  0.8830
42530SOL    HW234831   8.240   3.585   7.622 -1.3106  0.5019 -0.2826
42531SOL     OW34832   3.400  10.008   0.469  0.2583  0.9836 -0.0599
42531SOL    HW134833   3.450   9.934   0.504 -0.5323  0.0307 -0.9089
42531SOL    HW234834   3.338  10.029   0.539  0.3666  0.7459  0.1101
42532SOL     OW34835   5.713   3.468  11.260 -0.7245  0.2591 -0.0974
42532SOL    HW134836   5.792   3.480  11.207  0.4207 -1.0453  1.2253
42532SOL    HW234837   5.650   3.425  11.200  0.3982 -0.8389 -0.5384
42533SOL     OW34838   9.431  12.651   4.190  0.0247 -0.0217  0.8924
42533SOL    HW134839   9.505  12.593   4.208 -0.4929 -0.6511  1.0603
42533SOL    HW234840   9.397  12.674   4.277  0.4545  0.8438  0.8371
42534SOL     OW34841   8.714   1.989   4.127  0.3313  0.7761 -0.3365
42534SOL    HW134842   8.629   1.958   4.158 -0.7488  1.2543 -2.6110
42534SOL    HW234843   8.735   1.932   4.054  1.1301  1.7542 -0.8910
42535SOL     OW34844   8.288   1.805   2.577 -0.2110  0.5502 -1.0188
42535SOL    HW134845   8.198   1.799   2.545 -0.8173  2.1022  0.2511
42535SOL    HW234846   8.279   1.803   2.672  1.2059 -0.2400 -0.8851
42536SOL     OW34847   3.094   8.031  10.273  0.1659  0.2499  0.1540
42536SOL    HW134848   3.001   8.025  10.253  0.0985  0.0719  0.5063
42536SOL    HW234849   3.137   7.976  10.207  0.1362  1.3315 -0.7836
42537SOL     OW34850   3.807   4.797   8.215  0.5292 -0.1807 -0.2713
42537SOL    HW134851   3.836   4.775   8.303 -2.8020 -0.6436  0.8455
42537SOL    HW234852   3.842   4.884   8.199  0.2874  0.3837  1.9959
42538SOL     OW34853  11.840   7.596   0.624  0.0718  1.1967  0.4092
42538SOL    HW134854  11.873   7.635   0.543  1.6981  2.2966  1.5280
42538SOL    HW234855  11.843   7.667   0.688 -2.4860  0.7396  1.1711
42539SOL     OW34856   8.985   8.883  10.124 -0.0012 -0.1361  0.3866
42539SOL    HW134857   8.914   8.892  10.061  1.6970  2.3652 -1.3448
42539SOL    HW234858   8.964   8.944  10.194 -0.7609 -1.2694  1.1846
42540SOL     OW34859   5.465   3.518   6.428 -0.2675 -0.6274  0.0364
42540SOL    HW134860   5.505   3.440   6.466 -0.4619  0.0313  1.7007
42540SOL    HW234861   5.405   3.550   6.496 -0.0730  1.0544 -0.5207
42541SOL     OW34862   2.520   5.144   1.751  0.0490 -0.0637 -0.5854
42541SOL    HW134863   2.444   5.103   1.711 -0.4299 -0.3349  0.5694
42541SOL    HW234864   2.573   5.071   1.782  0.5572  0.1359 -0.9656
42542SOL     OW34865   4.547   8.292   8.362  0.0600 -0.4631 -0.3037
42542SOL    HW134866   4.631   8.255   8.337  0.1416 -0.2563 -0.3443
42542SOL    HW234867   4.482   8.231   8.327  0.1995 -0.8197  0.0572
42543SOL     OW34868   0.272  11.061   7.810 -0.5737  0.2822 -0.3235
42543SOL    HW134869   0.249  11.136   7.865 -0.1466  1.1046 -1.2502
42543SOL    HW234870   0.204  10.996   7.828 -0.9901  0.9117  0.4317
42544SOL     OW34871   1.248  12.296   7.428 -0.7333  1.1029 -0.0490
42544SOL    HW134872   1.209  12.268   7.511 -1.5040  1.9926 -0.0975
42544SOL    HW234873   1.256  12.215   7.377  0.6569  0.3809  1.2270
42545SOL     OW34874   1.036   0.229   5.967  0.2158  0.8164 -0.0658
42545SOL    HW134875   1.118   0.210   6.012  1.1720 -0.1292 -2.0510
42545SOL    HW234876   1.049   0.194   5.879 -2.9845 -0.9463  0.0234
42546SOL     OW34877   0.265   7.092   4.935  0.5533  0.0209 -0.0802
42546SOL    HW134878   0.261   6.998   4.954  0.8987 -0.1595 -0.8525
42546SOL    HW234879   0.279   7.097   4.840 -0.0234  0.8635 -0.1345
42547SOL     OW34880   9.450  10.003  12.599 -0.7537 -0.0916 -0.2013
42547SOL    HW134881   9.473  10.092  12.572  0.3278 -0.5642 -0.9009
42547SOL    HW234882   9.513   9.982  12.668  0.5908 -1.1476 -1.6622
42548SOL     OW34883   9.745   0.536   2.697  0.0614  0.0553 -0.4105
42548SOL    HW134884   9.787   0.462   2.652  0.0464  0.4880 -1.1451
42548SOL    HW234885   9.818   0.593   2.721  0.0807 -0.2282  0.2377
42549SOL     OW34886   9.723   5.998  11.380 -0.4042 -0.3882  0.2773
42549SOL    HW134887   9.668   5.934  11.335  0.6274 -1.4167  0.4575
42549SOL    HW234888   9.785   5.946  11.431  0.8485  0.7331 -0.0425
42550SOL     OW34889   3.773   1.444   2.466  0.5938 -0.1491 -0.2285
42550SOL    HW134890   3.818   1.484   2.541 -0.9767 -0.7920  1.1135
42550SOL    HW234891   3.756   1.354   2.493 -3.2382  0.5324  0.2513
42551SOL     OW34892   2.200   8.453   5.551 -0.3474  0.0676  0.7314
42551SOL    HW134893   2.127   8.516   5.555 -0.2432  0.2588 -0.1941
42551SOL    HW234894   2.276   8.506   5.526 -0.5307 -0.6128 -1.4655
42552SOL     OW34895  12.077  11.874   1.394  0.2732 -0.2950 -0.6103
42552SOL    HW134896  11.982  11.888   1.397  0.1157 -1.3319 -0.0218
42552SOL    HW234897  12.087  11.779   1.398  1.3893 -0.1397  1.0959
42553SOL     OW34898   3.814   6.879  11.350 -0.1947 -0.4312  0.7424
42553SOL    HW134899   3.721   6.901  11.353 -1.0571 -3.4742  0.2855
42553SOL    HW234900   3.844   6.888  11.441 -1.1596 -0.1814  1.0450
42554SOL     OW34901   9.124   7.191   9.083 -0.3719  0.7539  0.2225
42554SOL    HW134902   9.128   7.266   9.142 -1.5364  0.8773  0.1516
42554SOL    HW234903   9.210   7.149   9.093 -0.9980 -0.0751  3.0942
42555SOL     OW34904   2.939   1.931   3.801 -0.4904 -0.4100  0.3358
42555SOL    HW134905   2.944   1.869   3.874  2.8374 -0.2701  0.4189
42555SOL    HW234906   3.011   1.905   3.743 -0.7068  1.7391 -1.0159
42556SOL     OW34907  11.232   9.197   0.052  0.2800 -0.6445  0.0788
42556SOL    HW134908  11.246   9.105   0.029  1.4829 -0.2995 -0.6641
42556SOL    HW234909  11.292   9.214   0.124 -1.6144 -1.0184  1.8447
42557SOL     OW34910   6.636   8.760  11.769  0.3890  0.5798 -0.5258
42557SOL    HW134911   6.596   8.777  11.684 -1.3500 -0.7483 -0.0276
42557SOL    HW234912   6.562   8.742  11.828  1.6639 -1.7925  0.5045
42558SOL     OW34913   9.285  12.632   6.879  0.5878 -0.0241 -0.3107
42558SOL    HW134914   9.271  12.704   6.940  1.0333  1.1288 -1.5350
42558SOL    HW234915   9.342  12.571   6.926 -0.6762 -0.1548  1.1468
42559SOL     OW34916   5.665   5.400   2.562  0.2717 -0.2772 -0.1874
42559SOL    HW134917   5.596   5.338   2.538  0.3618 -1.2621  1.8653
42559SOL    HW234918   5.664   5.401   2.658  0.5797  2.5815 -0.1195
42560SOL     OW34919   0.904  11.127   1.095 -0.2910  0.0093  0.9249
42560SOL    HW134920   0.821  11.153   1.134 -0.1069 -1.4179  2.3437
42560SOL    HW234921   0.955  11.092   1.167  1.1356 -0.1660 -0.1217
42561SOL     OW34922  12.114   2.370  10.721  0.1030 -0.3160  0.5486
42561SOL    HW134923  12.146   2.426  10.650  0.9931 -0.0872  1.1107
42561SOL    HW234924  12.044   2.319  10.681  0.6408 -0.2591 -0.5248
42562SOL     OW34925   1.500  11.231   7.828  0.1674  0.4209 -0.6445
42562SOL    HW134926   1.589  11.264   7.844  0.2294 -0.0046 -0.0807
42562SOL    HW234927   1.449  11.263   7.902 -0.1094  0.4937 -0.8642
42563SOL     OW34928  10.232   2.751   8.347  0.3451 -0.6956 -0.3346
42563SOL    HW134929  10.159   2.694   8.326 -0.2603 -0.5048  1.1612
42563SOL    HW234930  10.303   2.721   8.290 -0.7187 -1.2482 -1.3934
42564SOL     OW34931  12.289   7.556   4.202  0.3921  0.5019  0.3479
42564SOL    HW134932  12.353   7.607   4.152  0.3968  0.9749  0.8434
42564SOL    HW234933  12.333   7.536   4.285 -0.1020  0.8206  0.6871
42565SOL     OW34934   8.758  10.949   8.400  0.2824 -0.5401 -0.7450
42565SOL    HW134935   8.758  10.854   8.387 -2.0229 -0.8734  1.1883
42565SOL    HW234936   8.761  10.985   8.311 -0.1336 -2.4148 -1.5687
42566SOL     OW34937  10.479   8.062   7.691 -0.2174  0.4852 -0.1733
42566SOL    HW134938  10.559   8.018   7.664 -1.4402 -1.9425 -0.0824
42566SOL    HW234939  10.504   8.115   7.767  1.3089 -0.0639 -0.2677
42567SOL     OW34940   1.558   7.535   4.985  0.0175  0.3776 -0.1356
42567SOL    HW134941   1.579   7.459   5.039 -0.2241  0.1706 -0.3293
42567SOL    HW234942   1.466   7.553   5.005 -0.1102  0.2185 -0.5747
42568SOL     OW34943   7.190   4.096   8.945  0.1100 -0.0819  0.2453
42568SOL    HW134944   7.153   4.071   8.860 -0.7663  0.0058  0.5945
42568SOL    HW234945   7.212   4.013   8.987  0.1979 -0.1380  0.0914
42569SOL     OW34946   9.899   8.927   3.132 -0.2400 -0.1248 -0.1051
42569SOL    HW134947   9.920   8.959   3.220  1.1232 -0.1564 -0.3946
42569SOL    HW234948   9.804   8.911   3.134 -0.3497  0.5669  1.1243
42570SOL     OW34949   8.209   3.791   1.188  0.3419  0.0627  0.2824
42570SOL    HW134950   8.158   3.871   1.203  1.4535  0.7767  0.3522
42570SOL    HW234951   8.188   3.736   1.264 -3.5543 -1.4848 -1.6532
42571SOL     OW34952   7.904  10.616   7.035 -0.4503  0.2331 -0.3189
42571SOL    HW134953   7.896  10.590   6.943 -0.2971 -0.3081 -0.1858
42571SOL    HW234954   7.998  10.611   7.053 -0.7188 -3.4109  0.8801
42572SOL     OW34955   0.681   9.546   0.466  0.0156  0.5591 -0.2523
42572SOL    HW134956   0.738   9.553   0.389 -1.1434  3.1466 -0.9551
42572SOL    HW234957   0.734   9.498   0.530  2.2047  1.0815 -1.5778
42573SOL     OW34958  10.322   9.396  12.161 -0.0807 -0.1240 -0.3016
42573SOL    HW134959  10.263   9.467  12.185  0.8357  0.0160  1.7193
42573SOL    HW234960  10.274   9.347  12.093 -1.5864  1.1962 -0.2506
42574SOL     OW34961   2.362  11.135  10.344 -0.0556  0.0574 -0.1903
42574SOL    HW134962   2.372  11.119  10.250  0.7495  0.2446 -0.1391
42574SOL    HW234963   2.362  11.230  10.352  1.0842  0.0430  0.1152
42575SOL     OW34964  11.146   1.025  10.952  0.2403  0.2043  0.0300
42575SOL    HW134965  11.217   1.089  10.966 -0.3513  0.8211  0.2813
42575SOL    HW234966  11.076   1.076  10.911  0.8147 -0.9130 -2.5246
42576SOL     OW34967   5.505   7.327   8.410  0.0568  0.2231 -0.1293
42576SOL    HW134968   5.496   7.391   8.339  1.5973  1.3817  0.6828
42576SOL    HW234969   5.442   7.258   8.387  2.5869 -1.0918 -4.3594
42577SOL     OW34970   1.287   3.402  12.313  0.5105  0.4359 -0.5138
42577SOL    HW134971   1.201   3.359  12.312  0.3048  0.8403 -0.9094
42577SOL    HW234972   1.297   3.436  12.224  0.5645  1.3877 -0.1609
42578SOL     OW34973   3.381   1.291   2.338  0.8159 -0.1266  0.4141
42578SOL    HW134974   3.440   1.296   2.263  1.4380  2.2923  0.9836
42578SOL    HW234975   3.324   1.368   2.330 -0.9844 -1.3138  0.9639
42579SOL     OW34976   1.172   9.580   3.655 -0.3764 -0.8174 -0.3697
42579SOL    HW134977   1.149   9.591   3.563 -1.7871 -1.8537 -0.1669
42579SOL    HW234978   1.246   9.640   3.668 -0.5460 -0.1925 -2.0094
42580SOL     OW34979   8.368  11.550   5.720 -0.4575  0.5142  0.0486
42580SOL    HW134980   8.336  11.558   5.810 -1.3793  0.3329 -0.2548
42580SOL    HW234981   8.454  11.507   5.729 -0.6691  0.2333  0.8228
42581SOL     OW34982   7.381   1.915   9.258  0.3835 -0.0183 -0.3845
42581SOL    HW134983   7.452   1.948   9.202  0.2725 -2.1099 -1.8886
42581SOL    HW234984   7.422   1.904   9.344  1.8587 -0.8417 -1.1334
42582SOL     OW34985   2.291   2.972   5.499  0.2090  0.2170  0.1556
42582SOL    HW134986   2.355   3.035   5.532 -0.1043  0.0206  1.1966
42582SOL    HW234987   2.302   2.896   5.556 -1.0969  0.2689  0.5064
42583SOL     OW34988   1.710   1.826  10.767  0.8225  1.1598 -0.5128
42583SOL    HW134989   1.618   1.811  10.790  1.8436 -1.7772  2.5614
42583SOL    HW234990   1.729   1.912  10.803  0.0341  0.3181  2.2584
42584SOL     OW34991   7.249   5.105   9.834 -0.3495  0.4003  0.4976
42584SOL    HW134992   7.284   5.147   9.912 -1.8102  0.0750  1.3567
42584SOL    HW234993   7.156   5.096   9.851 -0.2416 -2.5786  0.1002
42585SOL     OW34994   3.298   7.986   2.632  0.0092  0.1180  0.7266
42585SOL    HW134995   3.216   7.940   2.651  1.4420 -2.4179  1.3557
42585SOL    HW234996   3.332   8.012   2.718 -0.1773  1.2625  0.4627
42586SOL     OW34997  11.567   9.220  12.619 -0.2757  0.2651  0.4841
42586SOL    HW134998  11.566   9.173  12.702 -0.7610  0.3155  0.5100
42586SOL    HW234999  11.642   9.278  12.625 -1.5606  1.9047  1.8238
42587SOL     OW35000   1.085  10.712   9.772  0.1470  0.3354 -0.8198
42587SOL    HW135001   0.996  10.739   9.795 -0.8161 -1.3428 -2.2996
42587SOL    HW235002   1.138  10.791   9.786 -1.7438  1.6915 -0.8414
42588SOL     OW35003   7.838   6.738  11.054  0.0935  0.0284  0.1524
42588SOL    HW135004   7.814   6.813  11.109  0.0271  1.4621 -1.7292
42588SOL    HW235005   7.932   6.726  11.069  0.5635  1.8533 -1.0043
42589SOL     OW35006   1.605   8.780   5.701 -0.4922 -0.5035 -0.4756
42589SOL    HW135007   1.581   8.731   5.780 -1.2917 -1.0444 -1.0453
42589SOL    HW235008   1.553   8.740   5.631  0.4422 -0.2375 -1.3395
42590SOL     OW35009   1.418   5.412   0.110 -0.1441 -0.5497  0.2020
42590SOL    HW135010   1.478   5.460   0.053 -2.2434 -0.1761 -1.8648
42590SOL    HW235011   1.368   5.479   0.155 -1.0737 -0.8040 -0.4321
42591SOL     OW35012   6.916   8.838   8.204 -0.6418 -0.6018 -0.0754
42591SOL    HW135013   6.949   8.758   8.163 -1.7599 -0.5886 -1.0592
42591SOL    HW235014   6.991   8.898   8.203 -0.4425 -0.8324 -1.5157
42592SOL     OW35015   4.135   5.436   5.301 -0.1878  0.5351  0.1178
42592SOL    HW135016   4.079   5.514   5.309 -2.3489 -0.8403 -0.5691
42592SOL    HW235017   4.152   5.410   5.391  1.0475  2.0709  0.3724
42593SOL     OW35018   2.193  10.148   2.973  0.1599  0.6086 -0.6798
42593SOL    HW135019   2.284  10.162   3.001  0.0084 -0.0425  0.1689
42593SOL    HW235020   2.148  10.120   3.052 -0.5753 -0.0202 -1.3110
42594SOL     OW35021   3.402   5.298   8.001 -0.4323 -0.8973 -0.4891
42594SOL    HW135022   3.432   5.259   8.083 -0.3147  0.1807 -0.0016
42594SOL    HW235023   3.407   5.393   8.017 -0.7257 -0.6835 -1.6266
42595SOL     OW35024   4.930   1.085  11.311  0.4646 -0.1689  0.0930
42595SOL    HW135025   4.956   1.176  11.299  0.4382 -0.1207  0.4129
42595SOL    HW235026   4.919   1.052  11.221 -1.5798  0.7365 -0.0500
42596SOL     OW35027   6.571   6.042   3.987  0.5227  0.2613 -0.1759
42596SOL    HW135028   6.650   6.028   4.039  0.1903 -0.1480  0.2360
42596SOL    HW235029   6.506   6.070   4.052  0.5009  1.2636 -0.6098
42597SOL     OW35030   9.170   0.444   8.036  0.4783  0.2896 -0.7106
42597SOL    HW135031   9.174   0.483   8.123  1.4228 -2.2340  0.4963
42597SOL    HW235032   9.235   0.493   7.985 -0.3787  2.0696 -0.1724
42598SOL     OW35033   3.859   4.861  12.160  0.0001 -0.1154 -0.2513
42598SOL    HW135034   3.864   4.932  12.224  1.2095  0.0177 -0.4738
42598SOL    HW235035   3.841   4.783  12.212  1.0807 -0.0248  0.2783
42599SOL     OW35036  11.228   2.328   0.737 -0.0444  0.2160  0.2854
42599SOL    HW135037  11.233   2.383   0.816  1.8615 -1.4183  1.4223
42599SOL    HW235038  11.316   2.334   0.698 -1.2179  1.7577 -2.3624
42600SOL     OW35039   7.347   9.636   9.352 -0.0992 -0.0044  0.1020
42600SOL    HW135040   7.354   9.650   9.446  0.7636 -1.0308  0.2128
42600SOL    HW235041   7.435   9.649   9.319 -0.0151 -1.3642 -0.2929
42601SOL     OW35042  12.442   1.315   3.383  0.0205 -0.6684  0.6097
42601SOL    HW135043  12.469   1.336   3.472  0.4322 -0.9220  0.5477
42601SOL    HW235044  12.358   1.359   3.372 -0.5132 -1.4582  1.4613
42602SOL     OW35045  11.418   6.642  11.766 -0.0522  0.3949 -0.0721
42602SOL    HW135046  11.498   6.605  11.727 -0.7690 -0.5763 -0.6674
42602SOL    HW235047  11.409   6.596  11.849  1.5478  2.5575  1.4000
42603SOL     OW35048   5.909   1.642   0.751  0.1134 -0.0993  0.0038
42603SOL    HW135049   5.923   1.596   0.834  0.0971  1.8875  1.1577
42603SOL    HW235050   5.988   1.695   0.739 -1.1011  1.8459  0.2772
42604SOL     OW35051   0.229   4.748  10.367 -0.0391 -0.2304 -0.0476
42604SOL    HW135052   0.218   4.664  10.411 -0.9624 -1.0162 -1.6631
42604SOL    HW235053   0.323   4.757  10.355  0.3122  0.2965  2.4841
42605SOL     OW35054   6.836   2.089  10.341  0.0363  0.1214  0.0415
42605SOL    HW135055   6.784   2.038  10.403  0.2308  0.0700  0.1649
42605SOL    HW235056   6.788   2.171  10.331 -0.8080 -0.4637 -0.9254
42606SOL     OW35057  10.682   2.972   1.634  0.4858  0.0966 -0.0872
42606SOL    HW135058  10.608   2.995   1.578  1.2843  0.6750 -0.9132
42606SOL    HW235059  10.744   2.927   1.577  1.3729  0.8136  0.2879
42607SOL     OW35060   9.561   3.607   8.115 -0.4991 -0.0725  0.4600
42607SOL    HW135061   9.562   3.684   8.172 -0.7607  1.5991 -1.6989
42607SOL    HW235062   9.645   3.609   8.070 -0.5074 -1.0740  0.3758
42608SOL     OW35063  10.727   8.109  10.499 -0.0705  0.0513  0.3843
42608SOL    HW135064  10.732   8.139  10.590  0.6040 -0.9647  0.6966
42608SOL    HW235065  10.649   8.053  10.497  0.2803 -0.4397  0.4918
42609SOL     OW35066  12.695   1.952   3.366  0.2208  0.3891 -0.2573
42609SOL    HW135067  12.718   2.003   3.289 -0.4299 -1.2045 -1.5854
42609SOL    HW235068  12.774   1.903   3.387 -0.2122 -0.8246 -1.3174
42610SOL     OW35069  10.663   1.027  12.677  0.0344  0.1340  0.2261
42610SOL    HW135070  10.755   1.010  12.655  0.7589  0.4197  2.6648
42610SOL    HW235071  10.652   1.121  12.663 -0.3399 -0.1263 -1.4109
42611SOL     OW35072   8.615   1.143   5.552  0.4231 -0.3097  0.2602
42611SOL    HW135073   8.659   1.204   5.612  1.3302  0.8291 -1.4601
42611SOL    HW235074   8.611   1.191   5.468 -1.7875 -1.3974 -0.3315
42612SOL     OW35075  12.566   4.493   2.659  0.2848  0.1758 -0.1331
42612SOL    HW135076  12.542   4.402   2.674 -1.9742  0.7728  0.3174
42612SOL    HW235077  12.590   4.497   2.566  1.9369 -1.1193  0.1818
42613SOL     OW35078   8.517  10.932   6.870 -0.3291 -0.3515 -0.0470
42613SOL    HW135079   8.561  10.850   6.894  1.3905 -0.2583 -2.5403
42613SOL    HW235080   8.585  10.998   6.874 -0.7129  0.2130 -1.8699
42614SOL     OW35081  10.641   9.253   3.760 -0.1872 -0.7295 -0.0003
42614SOL    HW135082  10.703   9.181   3.755  1.6392  0.8022 -0.9502
42614SOL    HW235083  10.681   9.323   3.708 -1.4926  1.2522  1.4908
42615SOL     OW35084   0.129   5.467   9.618 -0.2944  0.5646 -0.0562
42615SOL    HW135085   0.066   5.533   9.588  0.0389 -0.1180 -2.4540
42615SOL    HW235086   0.150   5.417   9.539  0.6503 -1.4205  1.3848
42616SOL     OW35087   9.792   1.067   4.238 -0.1896  0.0997 -0.0956
42616SOL    HW135088   9.853   1.130   4.198 -0.2953 -1.1804 -2.4888
42616SOL    HW235089   9.845   1.023   4.304  0.3316  1.5914  0.5419
42617SOL     OW35090  10.668   5.474   7.909 -0.3981 -0.2893 -0.1036
42617SOL    HW135091  10.625   5.405   7.859  0.6145 -1.2538  0.2948
42617SOL    HW235092  10.633   5.555   7.874 -0.3676 -0.9635 -1.7607
42618SOL     OW35093   5.200   9.835   3.635 -0.8144 -0.0023  0.3936
42618SOL    HW135094   5.144   9.806   3.564  1.1389  1.4992 -1.9035
42618SOL    HW235095   5.157   9.802   3.714 -4.0756 -0.1607 -1.2861
42619SOL     OW35096   5.738   6.947   0.586 -0.4098  0.0190  0.5269
42619SOL    HW135097   5.760   6.855   0.601 -0.9953 -0.1287  0.5048
42619SOL    HW235098   5.683   6.945   0.508  0.5252  0.5108 -0.1620
42620SOL     OW35099   2.104  12.101   2.154 -0.2941 -0.3599 -0.0181
42620SOL    HW135100   2.173  12.123   2.217 -0.3976  0.1372 -0.0697
42620SOL    HW235101   2.046  12.042   2.202 -1.0419  0.9775  0.7857
42621SOL     OW35102   8.856   6.112   1.579  0.2471  0.2908 -0.2265
42621SOL    HW135103   8.776   6.066   1.603  0.6514 -0.4661 -0.3133
42621SOL    HW235104   8.859   6.187   1.638 -1.0350  0.8911 -0.8791
42622SOL     OW35105   0.691  10.706   4.052  0.0331  0.0798 -0.4964
42622SOL    HW135106   0.603  10.692   4.086  0.3896  0.5207  0.6493
42622SOL    HW235107   0.678  10.753   3.970 -0.8184 -0.4307 -0.6642
42623SOL     OW35108   5.639   1.301   2.395 -0.4774  0.4414 -0.1742
42623SOL    HW135109   5.695   1.308   2.473 -3.1004 -0.6630  1.9864
42623SOL    HW235110   5.657   1.213   2.361  0.8360  1.0076 -0.9896
42624SOL     OW35111   3.462   9.964   7.000  0.0819  0.0400  0.2623
42624SOL    HW135112   3.447   9.894   7.064  1.9665 -1.0113 -0.3548
42624SOL    HW235113   3.374   9.994   6.977 -0.7039 -0.6959  2.0807
42625SOL     OW35114   8.292  10.367  12.598 -0.1314  0.4546 -0.4028
42625SOL    HW135115   8.261  10.410  12.678  1.0174  1.2209 -0.3366
42625SOL    HW235116   8.292  10.274  12.619 -1.4664  0.4965 -0.1133
42626SOL     OW35117  10.528   5.512   1.473 -0.0910  0.3235 -0.3107
42626SOL    HW135118  10.564   5.601   1.468 -0.3104  0.4172 -0.2310
42626SOL    HW235119  10.596   5.462   1.519  0.4555  0.2228 -1.2063
42627SOL     OW35120   2.984  10.200   9.600  0.3088 -0.5691 -0.1594
42627SOL    HW135121   2.952  10.191   9.511  0.5966  0.1000 -0.3404
42627SOL    HW235122   3.025  10.287   9.602 -0.3354 -0.2662  0.8125
42628SOL     OW35123   2.208   5.806   3.231  0.0030 -0.2795  0.0782
42628SOL    HW135124   2.239   5.888   3.270  2.4306 -1.0199 -0.1521
42628SOL    HW235125   2.175   5.755   3.306 -3.0792  1.4251  0.0485
42629SOL     OW35126  11.632   1.182   3.348 -0.7603 -0.0644  0.3220
42629SOL    HW135127  11.562   1.247   3.347 -0.1587  0.6600  1.7421
42629SOL    HW235128  11.691   1.212   3.417  2.5456  1.0216 -2.6580
42630SOL     OW35129   1.302  12.403   5.293 -1.0170 -0.4717 -0.2273
42630SOL    HW135130   1.282  12.484   5.339  0.6270 -0.3792  0.3590
42630SOL    HW235131   1.234  12.398   5.225 -2.1176  0.5388  0.7412
42631SOL     OW35132   9.767   1.742   5.161 -0.0940 -0.1582  0.4616
42631SOL    HW135133   9.676   1.770   5.149 -0.6352 -0.1728  3.5541
42631SOL    HW235134   9.815   1.822   5.182  0.3017 -0.3291  0.2207
42632SOL     OW35135   8.025  11.593   4.272 -0.0507  0.1034  0.2216
42632SOL    HW135136   8.027  11.588   4.177 -0.8186  1.5817  0.1050
42632SOL    HW235137   8.109  11.633   4.296  0.7574 -1.5549  0.2965
42633SOL     OW35138   0.651   8.852   0.617 -0.0116  0.3919  0.3729
42633SOL    HW135139   0.651   8.792   0.691  0.4223  0.6315  0.5706
42633SOL    HW235140   0.724   8.912   0.635 -0.7363  1.2759  0.4272
42634SOL     OW35141  12.670   7.254   6.575 -0.1539  0.9677  0.0122
42634SOL    HW135142  12.763   7.267   6.557  0.2655  0.0400  1.3727
42634SOL    HW235143  12.658   7.159   6.575 -1.1177  1.0764 -0.2148
42635SOL     OW35144  10.452   8.838   6.327 -0.2861  0.0702  0.4126
42635SOL    HW135145  10.412   8.769   6.380  0.4629 -1.3419 -0.7916
42635SOL    HW235146  10.406   8.834   6.244  1.7614 -1.0924 -0.7472
42636SOL     OW35147  12.519  10.039   9.104  0.4914  0.4026 -0.1388
42636SOL    HW135148  12.610  10.010   9.093  0.1684 -1.4072  1.4904
42636SOL    HW235149  12.515  10.070   9.194 -1.0019 -1.5924  0.5209
42637SOL     OW35150   2.259   8.101   9.038 -0.1406  0.1860 -0.0129
42637SOL    HW135151   2.274   8.125   8.947  0.2914 -0.1080 -0.0240
42637SOL    HW235152   2.183   8.153   9.065 -0.8058 -0.3556 -0.7956
42638SOL     OW35153  12.560  10.322   6.372  0.3717 -0.1614 -0.2929
42638SOL    HW135154  12.565  10.227   6.360 -1.1465 -0.0765 -2.0290
42638SOL    HW235155  12.471  10.337   6.404  0.1995  0.7559 -1.1720
42639SOL     OW35156   8.636   4.119   1.626 -0.2121  0.0868 -0.5807
42639SOL    HW135157   8.541   4.117   1.627 -0.3648  1.9728 -2.5486
42639SOL    HW235158   8.662   4.031   1.600 -1.5038 -0.0625 -1.4523
42640SOL     OW35159   2.418   0.685   6.816  0.1881 -0.1225 -0.5366
42640SOL    HW135160   2.372   0.601   6.819  0.7098 -0.3750  1.1917
42640SOL    HW235161   2.467   0.688   6.898  0.8559  1.4972 -0.9731
42641SOL     OW35162  10.815  11.856   3.875  0.0102 -0.0856  0.5145
42641SOL    HW135163  10.776  11.774   3.844 -0.1058  0.2744 -0.3030
42641SOL    HW235164  10.753  11.887   3.942  0.1420 -0.7422  0.9571
42642SOL     OW35165  10.419   3.768   6.045 -0.1822 -1.0364  0.2460
42642SOL    HW135166  10.324   3.779   6.054  0.0120 -0.3549  1.7699
42642SOL    HW235167  10.450   3.757   6.135  1.2864 -0.3884 -0.1568
42643SOL     OW35168   4.507   4.317   5.642  0.3258  0.0267 -0.0494
42643SOL    HW135169   4.586   4.367   5.622  0.4026  0.3474  0.9592
42643SOL    HW235170   4.538   4.227   5.656  0.3734 -0.0422 -0.5806
42644SOL     OW35171   2.087   0.172   3.405  0.7781 -0.6288 -0.0314
42644SOL    HW135172   2.071   0.215   3.320  1.5060 -1.0857 -0.4060
42644SOL    HW235173   2.000   0.143   3.433  0.4197  0.1835 -0.2543
42645SOL     OW35174  10.143   3.531  12.009  0.2496  0.2087  0.1817
42645SOL    HW135175  10.214   3.468  12.017  1.1069  0.6758 -2.5306
42645SOL    HW235176  10.101   3.509  11.926 -1.6170  1.1154  0.8271
42646SOL     OW35177   7.926  12.468   8.527 -0.0613  0.5569  0.2520
42646SOL    HW135178   8.021  12.457   8.516 -0.0646  0.6809  0.0937
42646SOL    HW235179   7.918  12.525   8.603 -0.0016  0.7230  0.1355
42647SOL     OW35180   8.623   4.774   9.140 -0.6380 -0.7607 -0.3118
42647SOL    HW135181   8.627   4.797   9.047 -0.4035 -2.1362 -0.6670
42647SOL    HW235182   8.707   4.732   9.158 -1.0297 -1.2990  0.2930
42648SOL     OW35183   3.821   6.663  12.598  0.2901 -0.2112 -0.4223
42648SOL    HW135184   3.853   6.735  12.545 -0.3394  0.1512 -0.3159
42648SOL    HW235185   3.743   6.632  12.553 -0.9269  0.8521  0.8626
42649SOL     OW35186   8.586   9.242   9.992 -0.2336 -0.0327 -0.0689
42649SOL    HW135187   8.537   9.303   9.937 -1.5068 -2.5415 -1.9087
42649SOL    HW235188   8.537   9.160   9.987  1.4167 -1.2846  2.2365
42650SOL     OW35189   3.511   5.763  11.415  0.3130 -0.3912  0.7870
42650SOL    HW135190   3.494   5.696  11.481 -1.0580  0.2081  1.0597
42650SOL    HW235191   3.570   5.825  11.457 -1.8824  0.9174  2.1275
42651SOL     OW35192   3.983   2.192   9.710 -0.7851  0.2767  0.4528
42651SOL    HW135193   3.964   2.139   9.787 -0.3996  0.6081  0.7875
42651SOL    HW235194   4.005   2.129   9.642 -0.2309  0.0103  0.8727
42652SOL     OW35195   8.953   3.266   9.081 -0.1996  0.7320  0.0094
42652SOL    HW135196   8.986   3.197   9.024  0.5712  0.7664  0.4010
42652SOL    HW235197   8.957   3.229   9.169 -2.6426  0.1844 -0.0444
42653SOL     OW35198   9.036   7.713   9.213  0.3836 -0.7577  0.4164
42653SOL    HW135199   8.963   7.766   9.242  1.2015  0.9444 -0.4862
42653SOL    HW235200   8.996   7.643   9.161 -0.5770  0.5520 -0.6620
42654SOL     OW35201   8.215   4.362  11.775 -0.0823  0.0437  0.0910
42654SOL    HW135202   8.273   4.396  11.707  1.0529  0.7081  1.3370
42654SOL    HW235203   8.257   4.281  11.805 -0.1403  0.1840  0.5607
42655SOL     OW35204   5.321  11.061   6.654 -0.0627  0.2085 -0.2189
42655SOL    HW135205   5.289  11.024   6.737 -0.9230  0.0448 -0.6055
42655SOL    HW235206   5.396  11.007   6.632 -0.2276 -0.1748  0.1282
42656SOL     OW35207  12.002  12.706  11.577 -0.6675 -0.5207 -0.1321
42656SOL    HW135208  11.956  12.771  11.524  0.2861 -0.8134 -1.3539
42656SOL    HW235209  12.057  12.758  11.636 -0.4077 -0.2106 -0.6428
42657SOL     OW35210   3.597  11.769   3.625 -0.4568  0.2265  0.1475
42657SOL    HW135211   3.619  11.679   3.647  1.3250  1.0674  2.1385
42657SOL    HW235212   3.551  11.803   3.702  1.8025  1.8996  0.8838
42658SOL     OW35213   4.195  12.134   6.079  0.1288  0.6238 -0.0797
42658SOL    HW135214   4.157  12.166   6.160  0.3844  1.6395 -0.3484
42658SOL    HW235215   4.151  12.185   6.010 -1.9333 -1.9103 -0.8247
42659SOL     OW35216  11.078   6.235  12.013 -0.7220  0.2192  0.0748
42659SOL    HW135217  11.034   6.159  11.974  0.9663 -2.1292  2.3857
42659SOL    HW235218  11.007   6.285  12.054 -1.7027 -1.2109  0.1893
42660SOL     OW35219  11.130   8.129   9.661 -0.0552 -0.2595 -0.7951
42660SOL    HW135220  11.144   8.045   9.618  0.4841 -0.4800 -0.2094
42660SOL    HW235221  11.125   8.108   9.754  1.2914  0.4694 -0.5306
42661SOL     OW35222   5.215  12.421   4.589  0.2482  0.5956  0.1738
42661SOL    HW135223   5.228  12.423   4.494  1.6530  0.8217  0.3490
42661SOL    HW235224   5.200  12.512   4.612 -0.4377  0.4963  0.1319
42662SOL     OW35225  11.356   1.145   4.156 -0.0352 -0.1334  0.4180
42662SOL    HW135226  11.283   1.095   4.118  0.7096  0.4736 -2.0121
42662SOL    HW235227  11.357   1.120   4.248 -0.5715 -3.5706 -0.3676
42663SOL     OW35228   7.237   2.804   1.345 -0.6594 -0.2919  0.0560
42663SOL    HW135229   7.254   2.864   1.272  0.7822  0.7742  1.2228
42663SOL    HW235230   7.179   2.853   1.403  0.2991 -0.1008  0.8811
42664SOL     OW35231   5.805  10.480   3.335 -0.1115 -0.3086 -0.5418
42664SOL    HW135232   5.814  10.398   3.383 -2.9990 -0.4819 -0.1010
42664SOL    HW235233   5.830  10.457   3.245  0.3603 -1.3371 -0.1655
42665SOL     OW35234   0.930  11.381   7.085 -0.0437 -0.0021  0.4231
42665SOL    HW135235   0.936  11.335   7.001  0.2514  0.9875 -0.1049
42665SOL    HW235236   0.947  11.472   7.064 -2.1405  0.6174  1.2034
42666SOL     OW35237  11.941  10.497   2.831  0.1530  0.1793  0.0990
42666SOL    HW135238  11.977  10.446   2.759 -3.0673 -0.4226 -1.2421
42666SOL    HW235239  11.991  10.468   2.908  0.6895 -2.5316 -1.1585
42667SOL     OW35240  10.320   2.046  11.809 -0.5382  0.0210  0.2363
42667SOL    HW135241  10.309   2.114  11.743 -0.4556  0.7326  0.9296
42667SOL    HW235242  10.356   2.093  11.885  0.0615 -0.9013  0.5381
42668SOL     OW35243   2.572   7.528   2.608 -0.2834  0.1081 -0.1579
42668SOL    HW135244   2.589   7.494   2.521  0.1641 -2.8750  0.9754
42668SOL    HW235245   2.481   7.502   2.626 -0.0470 -0.2070  0.6184
42669SOL     OW35246   8.444   6.947   0.039 -0.1336  0.3003  0.3569
42669SOL    HW135247   8.462   6.853   0.044  0.0582  0.3935  1.8503
42669SOL    HW235248   8.496   6.977  -0.036 -0.1389 -0.7699 -0.0937
42670SOL     OW35249   2.405   5.062   5.423  0.7542 -0.1663 -0.2252
42670SOL    HW135250   2.486   5.111   5.439  0.9777 -0.4685 -0.4352
42670SOL    HW235251   2.396   5.005   5.500  0.1580  0.6448  0.3327
42671SOL     OW35252   4.433  11.698   1.733  0.0326 -0.0669  0.0001
42671SOL    HW135253   4.342  11.673   1.753 -0.0992  0.1139 -0.3817
42671SOL    HW235254   4.485  11.650   1.798 -0.3106 -0.4196  0.0159
42672SOL     OW35255   6.856  11.950   3.078 -0.2100  0.1694  0.2902
42672SOL    HW135256   6.908  12.012   3.130 -1.0058  0.9639  0.1712
42672SOL    HW235257   6.877  11.864   3.115  0.1895  0.5984  1.0976
42673SOL     OW35258   8.079  12.350  11.315 -0.1240 -0.4651 -0.5674
42673SOL    HW135259   8.148  12.322  11.375  0.4274  3.4444  0.8997
42673SOL    HW235260   8.126  12.386  11.239 -0.6617 -0.7860 -1.0599
42674SOL     OW35261   2.746   5.157   8.680 -1.0609  0.2276 -0.2456
42674SOL    HW135262   2.824   5.185   8.633  0.2645 -0.1300  1.6408
42674SOL    HW235263   2.755   5.197   8.767 -2.4522 -0.6823  0.3441
42675SOL     OW35264   8.179   7.715  10.926  0.3070 -0.0103  0.6531
42675SOL    HW135265   8.262   7.668  10.931  0.8142  0.9817  2.4416
42675SOL    HW235266   8.204   7.807  10.922 -0.6852  0.3577  2.1215
42676SOL     OW35267  12.672   6.263   2.147 -0.4899 -0.4946 -0.0545
42676SOL    HW135268  12.698   6.186   2.097  1.1669  1.0571 -1.7257
42676SOL    HW235269  12.664   6.333   2.082  0.0159  1.2018  1.6091
42677SOL     OW35270   7.917   2.903   3.496  0.2059  0.2554  0.0437
42677SOL    HW135271   7.967   2.968   3.446  1.7139 -1.6971 -1.1523
42677SOL    HW235272   7.836   2.892   3.445 -0.0543  1.1405  0.2437
42678SOL     OW35273   0.696   9.065   6.160 -0.0691 -0.2925 -0.1220
42678SOL    HW135274   0.676   9.018   6.241  1.4451  0.5738  0.7693
42678SOL    HW235275   0.738   9.146   6.187  2.8271 -1.0869 -1.7898
42679SOL     OW35276   5.420   5.298   4.440  0.3854  0.7231  0.3743
42679SOL    HW135277   5.436   5.293   4.346 -0.5132 -0.8617  0.2639
42679SOL    HW235278   5.326   5.284   4.449  0.6452 -0.4511  1.5679
42680SOL     OW35279   1.648   5.420   3.444  0.6387 -0.0618 -0.2454
42680SOL    HW135280   1.694   5.505   3.441 -1.9507  1.4920  0.9073
42680SOL    HW235281   1.620   5.412   3.535  1.2647 -2.4879 -0.2082
42681SOL     OW35282  10.563   7.745   7.085  0.3307  0.4550 -0.4244
42681SOL    HW135283  10.527   7.833   7.083  0.0050  0.3191 -2.1497
42681SOL    HW235284  10.636   7.747   7.024  0.7124 -0.3141 -0.0120
42682SOL     OW35285   6.872   3.480   2.648 -0.5350 -0.0981  0.5382
42682SOL    HW135286   6.852   3.469   2.741 -3.5589  0.1651  0.0111
42682SOL    HW235287   6.847   3.570   2.628 -0.4105 -0.3020 -0.6389
42683SOL     OW35288   3.613   7.415  12.148 -0.5432  0.3514 -0.0292
42683SOL    HW135289   3.593   7.329  12.111 -0.3115 -0.6092  1.9439
42683SOL    HW235290   3.557   7.420  12.225 -0.7977  2.1412 -0.3002
42684SOL     OW35291   4.998   3.494   6.576  0.8499 -0.3897  0.2795
42684SOL    HW135292   4.951   3.461   6.499  0.3525 -1.6404  1.0775
42684SOL    HW235293   5.081   3.528   6.541  0.6457 -0.9591 -0.8074
42685SOL     OW35294   7.573  10.092  12.370 -0.3498  0.1430  0.0924
42685SOL    HW135295   7.485  10.127  12.357 -0.6072 -0.4115  0.3033
42685SOL    HW235296   7.618  10.109  12.287 -0.9096 -0.2980 -0.3077
42686SOL     OW35297   3.400  12.188   9.611 -0.3271 -0.1576 -0.2524
42686SOL    HW135298   3.437  12.276   9.601  0.4561 -0.6624 -2.4189
42686SOL    HW235299   3.337  12.180   9.539 -2.9225 -0.2418  1.8703
42687SOL     OW35300   1.118   9.464   2.241  0.1413  0.4378 -0.3703
42687SOL    HW135301   1.195   9.412   2.261  0.1011  0.7102  0.5758
42687SOL    HW235302   1.052   9.401   2.212 -0.1250 -0.1596  1.4147
42688SOL     OW35303   1.162  11.683  10.393  0.4135 -0.2449  0.0885
42688SOL    HW135304   1.170  11.660  10.301  1.7899  0.5637 -0.0173
42688SOL    HW235305   1.172  11.778  10.395  0.6143 -0.2722  1.0975
42689SOL     OW35306   7.509   9.078   7.317 -0.4023 -0.4011  0.1087
42689SOL    HW135307   7.422   9.085   7.279 -1.2852 -1.1985  1.8777
42689SOL    HW235308   7.502   9.119   7.403  1.0779 -0.1632  0.1558
42690SOL     OW35309   9.035  12.225   3.241 -0.4926  0.1404 -0.4099
42690SOL    HW135310   8.979  12.148   3.251  1.7896 -1.6350 -0.2633
42690SOL    HW235311   9.097  12.219   3.314  2.0429 -0.0362 -2.4171
42691SOL     OW35312   5.770   7.671  12.656 -1.2647  0.5142  0.0849
42691SOL    HW135313   5.842   7.644  12.599 -1.4073 -0.5254  0.3755
42691SOL    HW235314   5.738   7.752  12.618 -0.8444  0.2462 -0.8615
42692SOL     OW35315   6.841   7.830   5.748 -0.3829  0.3085  0.0261
42692SOL    HW135316   6.820   7.751   5.799 -0.8769  1.5311  1.7768
42692SOL    HW235317   6.756   7.871   5.733 -0.1413  0.4460 -1.0213
42693SOL     OW35318   6.648   3.368   7.014 -0.2554  0.1541  0.3005
42693SOL    HW135319   6.706   3.294   6.996 -1.2609 -0.6502  0.2481
42693SOL    HW235320   6.613   3.350   7.101 -0.8117  0.3585  0.1224
42694SOL     OW35321  10.876   7.476   8.616  0.8975 -0.7455 -0.2514
42694SOL    HW135322  10.793   7.430   8.609  0.1065  0.4887  0.6418
42694SOL    HW235323  10.926   7.425   8.680 -0.1820 -0.0943  1.1458
42695SOL     OW35324  12.112   5.905   7.095  0.3280  0.1550 -0.0988
42695SOL    HW135325  12.083   5.980   7.043 -1.3172 -1.0849 -1.0733
42695SOL    HW235326  12.160   5.850   7.033 -0.1875 -0.5274  0.0956
42696SOL     OW35327   4.191   1.782   6.685  0.2667 -0.6553  0.0780
42696SOL    HW135328   4.100   1.800   6.707  0.5206 -0.2950  0.8604
42696SOL    HW235329   4.216   1.855   6.628  0.4165 -0.0884  0.8502
42697SOL     OW35330   6.257   9.651   5.951 -0.1628  1.0995  0.1187
42697SOL    HW135331   6.176   9.660   5.900 -0.4335  0.6767  0.4681
42697SOL    HW235332   6.284   9.741   5.968  0.4811  1.2747 -1.6198
42698SOL     OW35333   3.898   1.625  11.134  0.1485  0.2594  0.5016
42698SOL    HW135334   3.892   1.718  11.111 -0.1037  0.0768 -0.1967
42698SOL    HW235335   3.814   1.606  11.175 -0.0535  0.1892  0.0629
42699SOL     OW35336  12.300   7.644   0.035 -0.6326 -0.0807  0.0608
42699SOL    HW135337  12.307   7.559  -0.010  0.1824  0.8310 -1.6499
42699SOL    HW235338  12.205   7.658   0.045 -0.7717 -1.3436  0.7206
42700SOL     OW35339   5.878   2.245   5.274  0.0463 -0.3137  0.1862
42700SOL    HW135340   5.842   2.179   5.215 -0.1434 -0.1601  0.1282
42700SOL    HW235341   5.802   2.292   5.308  0.1260 -0.6945  0.9072
42701SOL     OW35342   8.048   4.005   1.506  0.3481  0.2490  0.4268
42701SOL    HW135343   8.113   3.969   1.445 -0.6425 -0.2244 -0.3720
42701SOL    HW235344   7.984   4.048   1.450 -0.2974  0.2943  1.1828
42702SOL     OW35345   7.456   6.735   3.715  0.5211 -0.1511  0.3635
42702SOL    HW135346   7.436   6.802   3.782 -0.4105  0.8906 -0.8949
42702SOL    HW235347   7.370   6.699   3.692  0.7245  0.1418 -0.8935
42703SOL     OW35348   1.819   1.409  12.496 -0.0668  0.4048 -0.3367
42703SOL    HW135349   1.891   1.398  12.558 -1.5490  0.2733  1.4340
42703SOL    HW235350   1.822   1.502  12.473  0.3212  0.5235  0.1590
42704SOL     OW35351   6.907   6.511   0.626 -0.3469 -0.1763  0.0627
42704SOL    HW135352   6.937   6.488   0.538  1.5459 -0.5714  0.7633
42704SOL    HW235353   6.864   6.432   0.659 -0.2750 -0.3154 -0.1797
42705SOL     OW35354   0.571   0.737   6.576 -0.0924  1.1979 -0.5904
42705SOL    HW135355   0.479   0.760   6.560 -1.4718 -2.7520  0.3642
42705SOL    HW235356   0.593   0.781   6.658 -1.1122  2.2920 -0.8815
42706SOL     OW35357   2.553   1.083   7.624 -0.4254 -0.2830  0.0790
42706SOL    HW135358   2.572   1.065   7.716 -1.1074 -1.3882  0.0184
42706SOL    HW235359   2.622   1.036   7.577 -1.6514 -2.0641 -0.0443
42707SOL     OW35360   3.753  10.579   1.651 -0.3203 -0.0222  0.1472
42707SOL    HW135361   3.700  10.659   1.653 -1.9825 -0.9873  3.7046
42707SOL    HW235362   3.803  10.581   1.733  1.4278 -1.5305 -0.7984
42708SOL     OW35363   7.161  12.673   1.748  0.3411  0.3494  0.1926
42708SOL    HW135364   7.133  12.760   1.775  0.3884  0.4112  0.0385
42708SOL    HW235365   7.159  12.675   1.653  0.3576  0.1867  0.1880
42709SOL     OW35366   6.931  10.065   3.779  0.5404  0.3894  0.7560
42709SOL    HW135367   6.918   9.983   3.732  0.5823  0.9881 -0.3136
42709SOL    HW235368   6.845  10.106   3.779  1.0444  1.5018 -0.9280
42710SOL     OW35369  12.655   3.152   4.670  0.0799  0.1709  0.2416
42710SOL    HW135370  12.738   3.162   4.717  0.3925  1.8081 -0.5820
42710SOL    HW235371  12.678   3.159   4.577 -0.9764  0.7700  0.0007
42711SOL     OW35372   8.313   4.253   4.777 -0.5527  0.5476  0.1255
42711SOL    HW135373   8.276   4.300   4.702 -1.0743 -1.7567 -1.1442
42711SOL    HW235374   8.404   4.284   4.782 -0.5722  0.9415 -1.3227
42712SOL     OW35375  12.189  11.924   2.314  0.3129 -0.1637 -0.1743
42712SOL    HW135376  12.168  11.876   2.234 -0.7634  0.3342 -0.2070
42712SOL    HW235377  12.273  11.965   2.296 -0.9275  1.7478 -1.9237
42713SOL     OW35378  12.119   9.660   6.624  0.2575 -0.1643 -0.4551
42713SOL    HW135379  12.098   9.635   6.714  1.3830  0.0327 -0.1246
42713SOL    HW235380  12.084   9.749   6.615  0.8282  0.1216  0.0526
42714SOL     OW35381   0.067   4.608   0.955  0.1803 -0.4781 -0.2502
42714SOL    HW135382   0.127   4.593   1.028 -1.4093 -1.3215  0.9288
42714SOL    HW235383   0.068   4.526   0.906 -0.8238 -0.9248  0.4293
42715SOL     OW35384   0.490   1.234   0.465 -0.9613 -0.3117  0.5478
42715SOL    HW135385   0.523   1.260   0.380 -1.0242  1.0456  0.9159
42715SOL    HW235386   0.542   1.157   0.489  0.7185  0.6952  0.3202
42716SOL     OW35387   6.113   5.183   1.108 -0.1811  0.1294  0.0389
42716SOL    HW135388   6.023   5.200   1.136 -0.3608 -0.7881  0.0361
42716SOL    HW235389   6.104   5.137   1.024  0.2259 -1.6122  0.9074
42717SOL     OW35390   6.567   0.324   3.040 -0.0300  0.4008  0.0384
42717SOL    HW135391   6.653   0.366   3.029  0.2567  0.0326  0.8165
42717SOL    HW235392   6.513   0.389   3.085 -0.4966  1.0317 -1.3779
42718SOL     OW35393   1.100  10.352   3.317  0.1646  0.1674 -0.4088
42718SOL    HW135394   1.036  10.358   3.388 -1.3059  0.6281 -1.7172
42718SOL    HW235395   1.153  10.432   3.326  1.6176 -0.9209  1.5754
42719SOL     OW35396   9.565   4.108   9.295 -0.1099  0.2529  0.4428
42719SOL    HW135397   9.476   4.135   9.274  0.2959  0.1561 -1.5602
42719SOL    HW235398   9.618   4.141   9.223  1.1174 -1.7179  0.3801
42720SOL     OW35399   4.532  11.848  10.705 -0.2255  0.3314 -0.3564
42720SOL    HW135400   4.540  11.855  10.800 -1.0469  1.9106 -0.3671
42720SOL    HW235401   4.452  11.798  10.691  0.2730 -0.5198 -0.2362
42721SOL     OW35402   4.634  11.953   1.474 -0.2945 -0.1022 -0.2092
42721SOL    HW135403   4.730  11.958   1.476 -0.3261  1.2980 -1.0172
42721SOL    HW235404   4.605  12.044   1.476 -1.5087 -0.3470 -2.7287
42722SOL     OW35405  12.135   2.608   1.638 -0.6883 -0.2583  0.1402
42722SOL    HW135406  12.182   2.626   1.557 -0.1586 -0.3560  0.4152
42722SOL    HW235407  12.193   2.549   1.686  0.5135  2.2148  1.9518
42723SOL     OW35408   5.544   2.540   8.890  0.0611 -0.0487  0.4238
42723SOL    HW135409   5.452   2.558   8.874  0.3962  0.0616 -1.6505
42723SOL    HW235410   5.574   2.611   8.947 -0.8525  0.5734  0.1322
42724SOL     OW35411   6.922   7.404   4.565  0.1726 -0.2428  0.0950
42724SOL    HW135412   6.931   7.309   4.574 -1.2851 -0.3736  0.3526
42724SOL    HW235413   7.012   7.437   4.575  0.3692 -1.3341  3.2583
42725SOL     OW35414   6.256  11.976   6.855  0.5111 -0.6892 -0.3313
42725SOL    HW135415   6.257  11.881   6.870  1.4140 -0.5769  0.4486
42725SOL    HW235416   6.346  12.003   6.872 -0.0384  0.5042  0.8512
42726SOL     OW35417  11.314   6.475   9.540  0.0097 -0.3452 -0.3619
42726SOL    HW135418  11.394   6.467   9.489 -0.7275  0.4486 -1.7096
42726SOL    HW235419  11.303   6.570   9.552  0.2754 -0.5046  1.5155
42727SOL     OW35420   7.445   6.176   7.502 -0.1412  0.8516  1.1846
42727SOL    HW135421   7.361   6.197   7.544 -0.6283  0.4853  0.4159
42727SOL    HW235422   7.444   6.229   7.422 -0.7543 -0.9590 -0.0753
42728SOL     OW35423   7.820   4.300   2.329  0.2219  0.5650 -0.0151
42728SOL    HW135424   7.831   4.205   2.320  0.6064  0.7943 -2.6649
42728SOL    HW235425   7.903   4.329   2.368  0.7820 -0.0173 -0.7315
42729SOL     OW35426   1.965   4.650   0.543  0.3570  0.4216  0.1257
42729SOL    HW135427   1.951   4.601   0.624  0.3116  1.0629  0.5151
42729SOL    HW235428   2.058   4.639   0.524  0.0660 -1.0242 -0.6029
42730SOL     OW35429   6.823   2.396   2.621 -0.3723  0.2720 -0.0327
42730SOL    HW135430   6.916   2.376   2.609 -0.3764 -1.3505  2.1092
42730SOL    HW235431   6.791   2.414   2.533  1.8263  0.2515 -0.8969
42731SOL     OW35432   9.501  10.257   5.851  0.1754  0.1379  0.2020
42731SOL    HW135433   9.552  10.202   5.910 -0.8781 -0.8736  0.1996
42731SOL    HW235434   9.567  10.303   5.798  1.1599  1.2244  2.2629
42732SOL     OW35435  10.068  11.526   8.601  0.1659  0.0280  0.6635
42732SOL    HW135436   9.995  11.507   8.660 -1.1071  0.9005 -0.5761
42732SOL    HW235437  10.123  11.447   8.605 -1.6468 -1.2953  0.4658
42733SOL     OW35438   2.231  10.656   3.153  0.8488 -0.1915  0.0630
42733SOL    HW135439   2.179  10.575   3.154  1.8324 -0.8334  1.0856
42733SOL    HW235440   2.210  10.697   3.069  0.6233 -1.7002 -0.6459
42734SOL     OW35441   1.578   9.276   2.284  0.8797  0.3480  0.2707
42734SOL    HW135442   1.656   9.272   2.229  0.7496  0.0416  0.1026
42734SOL    HW235443   1.557   9.369   2.290  2.0547  0.5667  1.4584
42735SOL     OW35444   7.856   9.681  11.013  0.0680  0.3368 -0.2118
42735SOL    HW135445   7.940   9.704  10.973  0.1482  0.0012 -0.2423
42735SOL    HW235446   7.842   9.589  10.989 -0.0644  0.2420  0.2106
42736SOL     OW35447   4.607  10.503  11.777  0.0146  0.1596 -0.2290
42736SOL    HW135448   4.693  10.521  11.814  0.0821 -0.3709 -0.1222
42736SOL    HW235449   4.581  10.419  11.815  0.8888 -1.3775 -2.7855
42737SOL     OW35450   6.979  11.083   9.150  0.1666 -0.2743  0.3186
42737SOL    HW135451   6.946  11.168   9.176 -1.4774 -0.6753 -0.3477
42737SOL    HW235452   7.069  11.100   9.121  0.2324  1.0192  1.2147
42738SOL     OW35453   3.197   9.900  10.994  0.3066  0.0970  0.5280
42738SOL    HW135454   3.138   9.969  11.024  1.7992  2.1791 -1.0691
42738SOL    HW235455   3.275   9.910  11.049  0.2136 -0.9368  0.8759
42739SOL     OW35456  10.637   3.217  12.429 -0.3904 -0.3818 -0.1300
42739SOL    HW135457  10.609   3.256  12.512  0.5844 -0.1764  0.1232
42739SOL    HW235458  10.664   3.292  12.375 -3.3619 -0.2611 -1.6293
42740SOL     OW35459   2.246   7.550   7.952 -0.0554  0.1417 -0.4253
42740SOL    HW135460   2.182   7.596   8.007  0.9407 -1.4957  2.3054
42740SOL    HW235461   2.288   7.619   7.901 -1.9580  1.6032 -0.1496
42741SOL     OW35462   3.468   5.385   5.688  0.0203  0.1833  0.2581
42741SOL    HW135463   3.561   5.363   5.699  0.3534  1.1523 -0.4951
42741SOL    HW235464   3.442   5.341   5.607 -1.0564 -2.6504  1.9548
42742SOL     OW35465   9.101  12.534   6.244 -0.0019 -0.3880 -0.3844
42742SOL    HW135466   9.076  12.587   6.321 -0.3124 -1.8824  0.5814
42742SOL    HW235467   9.162  12.590   6.196  0.5620  0.4149  1.1898
42743SOL     OW35468   6.939   9.537   6.560 -0.1071  0.9438 -0.1586
42743SOL    HW135469   7.014   9.542   6.619 -0.0577  0.0802 -0.1395
42743SOL    HW235470   6.978   9.533   6.472 -0.1331  0.5782 -0.1536
42744SOL     OW35471   9.993   6.469  10.125  0.0746 -0.4483  0.6693
42744SOL    HW135472  10.079   6.435  10.098  0.4512 -0.5970  2.0088
42744SOL    HW235473   9.945   6.480  10.042  1.4122 -0.2496 -0.1085
42745SOL     OW35474   6.897   5.606   1.685 -0.3013  0.1893 -0.1204
42745SOL    HW135475   6.957   5.679   1.701 -0.2983  0.1306  0.1251
42745SOL    HW235476   6.835   5.609   1.758  0.6934 -1.0963  0.8194
42746SOL     OW35477   9.691  10.404  11.675  0.2839  0.1132 -0.3234
42746SOL    HW135478   9.766  10.355  11.710  1.1485  0.6125 -1.4059
42746SOL    HW235479   9.721  10.494  11.671 -1.3741  0.8289  1.8352
42747SOL     OW35480  10.911   4.915   1.754  0.1717  0.3324  0.2689
42747SOL    HW135481  10.932   4.953   1.668  0.2397 -0.4428 -0.0625
42747SOL    HW235482  10.860   4.837   1.734  1.1697 -0.5000  0.8828
42748SOL     OW35483   4.000  10.163   2.004 -0.1253  0.4624  0.7987
42748SOL    HW135484   3.932  10.121   1.952  0.8848  0.8629 -0.9421
42748SOL    HW235485   3.954  10.203   2.078 -1.3005 -2.3249  1.6880
42749SOL     OW35486  12.243   1.885  10.417  0.1222 -0.0425  0.2322
42749SOL    HW135487  12.204   1.798  10.425  0.6669 -0.1769  1.9460
42749SOL    HW235488  12.199   1.937  10.485 -0.7755  1.2826 -1.2803
42750SOL     OW35489   8.386   3.835   1.484 -0.1318 -0.7536  0.7398
42750SOL    HW135490   8.455   3.789   1.532 -0.2479 -0.9483  0.7243
42750SOL    HW235491   8.319   3.768   1.469  0.2623 -0.9135 -0.4091
42751SOL     OW35492   2.518  10.029   0.904 -0.0181 -0.3908 -0.0148
42751SOL    HW135493   2.494  10.104   0.849 -0.0211  0.4667  1.1029
42751SOL    HW235494   2.614  10.033   0.910 -0.0479 -0.1944  0.4041
42752SOL     OW35495   1.581   7.975   0.173 -0.4098  0.2299 -0.6350
42752SOL    HW135496   1.644   8.038   0.209 -1.2440  0.2598  0.8642
42752SOL    HW235497   1.587   7.987   0.079  1.8734  0.1624 -0.5540
42753SOL     OW35498  12.463  10.985  12.619 -0.3162  0.8792 -0.3358
42753SOL    HW135499  12.437  10.893  12.628  0.6850  0.6074 -0.0588
42753SOL    HW235500  12.485  10.995  12.526  1.7178  0.2124  0.0230
42754SOL     OW35501  11.963   2.807   7.625 -0.1003  0.4049  0.5189
42754SOL    HW135502  11.999   2.885   7.583  0.0148  1.1258  1.8888
42754SOL    HW235503  12.039   2.752   7.643 -0.1344  0.1613 -0.0494
42755SOL     OW35504   3.835   7.577   1.021  0.6269  0.1066 -0.2455
42755SOL    HW135505   3.919   7.593   0.978  0.3102 -0.4552 -1.0870
42755SOL    HW235506   3.777   7.546   0.951 -0.9496  2.5996 -0.1723
42756SOL     OW35507   9.680  10.960   4.703  0.1572 -0.3227 -0.2212
42756SOL    HW135508   9.587  10.978   4.693  0.8772  3.1878 -2.2448
42756SOL    HW235509   9.703  11.000   4.788  0.0597  0.2397 -0.4517
42757SOL     OW35510  10.620   9.251   0.887 -0.0136  0.0888  0.0969
42757SOL    HW135511  10.629   9.159   0.913  0.8064 -0.2319 -1.2264
42757SOL    HW235512  10.650   9.300   0.963  0.6522 -0.7713  0.4124
42758SOL     OW35513   1.098   0.899   6.721  0.3037 -0.0231 -0.0898
42758SOL    HW135514   1.039   0.909   6.646  0.3973 -1.7392 -0.4182
42758SOL    HW235515   1.059   0.831   6.775  0.3336  1.0663  1.3728
42759SOL     OW35516   1.202  11.575  12.072  0.3420 -0.0713  0.2404
42759SOL    HW135517   1.261  11.503  12.092 -0.8992 -1.4523 -0.9307
42759SOL    HW235518   1.179  11.611  12.158  3.0578  0.7294  0.7251
42760SOL     OW35519   8.060   4.499   4.820  0.2532 -0.3466 -0.2595
42760SOL    HW135520   8.089   4.469   4.907 -1.6107 -0.0997  0.4989
42760SOL    HW235521   8.047   4.418   4.771  1.1966 -0.4935 -0.2969
42761SOL     OW35522  10.536   5.622   7.282  0.3627  0.0936 -0.4525
42761SOL    HW135523  10.507   5.692   7.341 -0.1799  0.9584 -1.7099
42761SOL    HW235524  10.621   5.651   7.249  0.7062 -0.4298 -0.0539
42762SOL     OW35525   2.950   6.444   0.375 -0.0167 -0.0128  0.0500
42762SOL    HW135526   2.877   6.505   0.384 -0.6885 -0.8372  0.2887
42762SOL    HW235527   2.960   6.432   0.280 -1.5724 -1.4831  0.0162
42763SOL     OW35528   1.711   4.014   9.783  0.3514 -0.3704 -0.2892
42763SOL    HW135529   1.623   3.978   9.789  0.3428 -0.5626 -1.3716
42763SOL    HW235530   1.759   3.953   9.727  0.1726  1.4894 -2.6796
42764SOL     OW35531   4.920   6.390   0.800 -0.1726 -0.3946  0.2551
42764SOL    HW135532   4.925   6.445   0.878  0.2609  0.1339 -0.1344
42764SOL    HW235533   4.829   6.396   0.772  0.1152  1.1807 -0.5035
42765SOL     OW35534   8.356  11.482  11.239 -0.0958  0.7463  0.1253
42765SOL    HW135535   8.364  11.393  11.206 -1.3757  0.9661 -0.8760
42765SOL    HW235536   8.268  11.484  11.278  0.7021  1.0023  2.0487
42766SOL     OW35537   8.690   3.031  12.569 -0.0057 -0.0164  0.0488
42766SOL    HW135538   8.757   2.975  12.528 -1.3756 -0.4514 -1.7655
42766SOL    HW235539   8.701   3.116  12.528 -0.4739 -0.0682 -0.2032
42767SOL     OW35540   4.485   8.147   3.476 -0.6661 -0.1177  0.2188
42767SOL    HW135541   4.489   8.199   3.556  0.8586  0.6544 -0.3097
42767SOL    HW235542   4.557   8.180   3.422 -1.9733 -0.2044 -1.7182
42768SOL     OW35543   3.182   1.719  11.081  0.6127  0.4077  0.1057
42768SOL    HW135544   3.172   1.663  11.158  1.8318  0.0332  0.0235
42768SOL    HW235545   3.166   1.661  11.007 -3.8982  1.4566 -0.0100
42769SOL     OW35546   0.490   2.975   3.287  0.3122 -0.1846  0.1187
42769SOL    HW135547   0.444   3.059   3.280 -0.1997 -0.2209  2.4239
42769SOL    HW235548   0.447   2.919   3.223 -0.5106  0.8044 -0.2187
42770SOL     OW35549   0.410   7.829   2.350  0.6629  0.6695  0.3565
42770SOL    HW135550   0.336   7.878   2.388 -0.2608 -0.1300 -0.3782
42770SOL    HW235551   0.449   7.890   2.287 -0.6303  0.4090 -0.7339
42771SOL     OW35552   4.683   8.011   1.463  0.0709  0.1150  0.6831
42771SOL    HW135553   4.652   8.095   1.496 -0.0460 -0.6451  2.6414
42771SOL    HW235554   4.773   8.028   1.433 -0.0420  0.9816  0.8225
42772SOL     OW35555   3.548   7.844  11.526 -0.3887  0.3456 -0.1524
42772SOL    HW135556   3.503   7.882  11.451 -0.4337 -0.0653 -0.3413
42772SOL    HW235557   3.639   7.831  11.496 -0.7624 -1.3110 -0.7206
42773SOL     OW35558   0.689   5.814   5.768 -0.0302  0.2226 -0.0045
42773SOL    HW135559   0.655   5.729   5.797  0.5191  0.2623  0.7854
42773SOL    HW235560   0.653   5.877   5.831  1.1403  0.3187  0.5954
42774SOL     OW35561   8.876   2.146   5.608 -0.2092  0.2681  0.9342
42774SOL    HW135562   8.923   2.220   5.646  1.9005  0.2126 -1.3179
42774SOL    HW235563   8.923   2.069   5.641 -0.0969  0.1121  0.4231
42775SOL     OW35564   4.954   0.349   7.077 -0.3134 -0.0259 -0.5215
42775SOL    HW135565   4.931   0.259   7.097  0.1694 -0.4951 -1.9808
42775SOL    HW235566   4.998   0.380   7.157  1.1997 -1.6949 -0.6260
42776SOL     OW35567  11.504   7.427   7.394 -0.2900 -0.8531 -0.0475
42776SOL    HW135568  11.529   7.401   7.305  2.5928 -0.1555  0.4557
42776SOL    HW235569  11.443   7.499   7.381  1.4030  0.4219 -1.5596
42777SOL     OW35570   3.890   3.882  12.198  0.2806 -1.1195 -0.5109
42777SOL    HW135571   3.832   3.887  12.121 -2.3025 -0.1236  1.3724
42777SOL    HW235572   3.905   3.788  12.211  0.8188 -1.3094 -2.1966
42778SOL     OW35573  11.637   0.242   0.553 -0.6122 -0.5394 -0.3796
42778SOL    HW135574  11.697   0.249   0.479 -0.6251 -0.9459 -0.4274
42778SOL    HW235575  11.613   0.333   0.573  1.7573 -0.1278  1.0469
42779SOL     OW35576   6.809   5.562   6.743  0.7383  0.3037 -0.3289
42779SOL    HW135577   6.870   5.560   6.669  1.5721 -1.3720  0.3495
42779SOL    HW235578   6.808   5.472   6.776 -0.6032  0.7342  0.9063
42780SOL     OW35579  11.307   3.207   9.520 -0.4275  0.0898 -0.3644
42780SOL    HW135580  11.323   3.113   9.519 -0.7802  0.0274 -0.3407
42780SOL    HW235581  11.272   3.227   9.433  1.1375  0.4724 -0.9271
42781SOL     OW35582   0.731   9.655   2.478  0.0106 -0.2822 -0.3742
42781SOL    HW135583   0.717   9.620   2.566  0.8424  1.6582  0.6012
42781SOL    HW235584   0.788   9.592   2.435 -2.9033 -2.8923 -0.7085
42782SOL     OW35585   8.869   6.894   5.039  0.3259  0.1326  0.1707
42782SOL    HW135586   8.774   6.894   5.026 -0.2287  1.2468  3.2835
42782SOL    HW235587   8.892   6.987   5.046  1.7428 -0.1057 -0.8070
42783SOL     OW35588   8.886   9.326   0.887  0.6283  0.1708  0.0785
42783SOL    HW135589   8.810   9.285   0.928  1.5846 -0.8752  0.8309
42783SOL    HW235590   8.856   9.416   0.868 -0.1775  0.4012  2.1452
42784SOL     OW35591  11.207   3.833  11.938 -0.0647 -0.1709  0.1006
42784SOL    HW135592  11.268   3.820  12.010 -1.7209  0.7248  1.7596
42784SOL    HW235593  11.162   3.915  11.959 -1.3616 -0.4411 -1.3911
42785SOL     OW35594   2.912  12.120   3.648  0.0701 -0.0222  0.2300
42785SOL    HW135595   2.891  12.110   3.555 -1.0198 -0.3330  0.4879
42785SOL    HW235596   2.826  12.128   3.691  0.5589  0.1908  1.1988
42786SOL     OW35597   8.580   4.223  10.683 -0.3388  0.1050  0.2397
42786SOL    HW135598   8.488   4.218  10.660 -0.2463  0.1800 -0.1696
42786SOL    HW235599   8.622   4.158  10.627  0.1001  1.3428 -0.9381
42787SOL     OW35600   2.568  10.812   7.644 -0.0888  0.0992  0.0830
42787SOL    HW135601   2.567  10.756   7.567  1.2065 -0.5115  0.4817
42787SOL    HW235602   2.538  10.897   7.612  1.4800  0.1617 -1.3606
42788SOL     OW35603   8.899   0.919   8.275 -0.2865  1.0860 -0.5487
42788SOL    HW135604   8.977   0.926   8.222  0.4014 -2.3256 -0.2092
42788SOL    HW235605   8.832   0.883   8.217  0.6085 -3.1702  0.6999
42789SOL     OW35606   4.557   6.843  10.919  0.4249 -0.0066 -0.4470
42789SOL    HW135607   4.521   6.905  10.983 -1.2493 -1.8735  0.5445
42789SOL    HW235608   4.609   6.897  10.860  0.2415  2.1177  1.1948
42790SOL     OW35609  11.351   1.693   1.737  0.2742 -0.1765 -0.2270
42790SOL    HW135610  11.270   1.719   1.692  0.7729 -1.3288 -1.8902
42790SOL    HW235611  11.407   1.770   1.731 -0.9801  0.9681  1.7747
42791SOL     OW35612   8.561   6.065   1.282 -0.4664 -0.5596 -0.2101
42791SOL    HW135613   8.552   6.037   1.191  0.2709 -3.2360  0.4481
42791SOL    HW235614   8.489   6.021   1.328  0.9915 -1.7736  0.9750
42792SOL     OW35615   7.907   3.567   3.733  0.2064 -0.1058  0.1618
42792SOL    HW135616   7.935   3.591   3.645 -0.2587 -0.5560 -0.1137
42792SOL    HW235617   7.986   3.576   3.787  1.2194 -2.5313 -0.8080
42793SOL     OW35618   7.217   0.395   4.244 -0.0109  0.3788  0.2586
42793SOL    HW135619   7.257   0.410   4.330  0.0843  1.7041  0.0011
42793SOL    HW235620   7.152   0.326   4.260  2.2500 -1.8023  0.6966
42794SOL     OW35621   5.300   3.447   9.580 -0.1884 -0.2274 -0.0359
42794SOL    HW135622   5.334   3.416   9.664 -0.8653 -0.8299  0.0196
42794SOL    HW235623   5.336   3.387   9.515  2.4830  1.7231 -0.5539
42795SOL     OW35624  10.163   7.554   8.768 -0.2219 -0.2718 -0.4818
42795SOL    HW135625  10.165   7.484   8.703  2.6665 -0.7629  0.0044
42795SOL    HW235626  10.125   7.513   8.846 -1.0239 -0.4978 -0.9769
42796SOL     OW35627   9.794  11.988   6.945  0.0628  0.0367  0.5676
42796SOL    HW135628   9.840  11.911   6.977 -1.8805 -1.0136  0.9830
42796SOL    HW235629   9.817  11.992   6.852 -1.4806 -2.3782 -0.0035
42797SOL     OW35630   8.018   3.063   8.954 -0.1997  0.7732 -0.2703
42797SOL    HW135631   8.098   3.088   9.002  1.5022 -1.0869 -1.9490
42797SOL    HW235632   8.046   3.057   8.863 -2.7554  1.8208 -1.1967
42798SOL     OW35633   5.667  11.746  12.123  0.6254  0.3804  0.3226
42798SOL    HW135634   5.748  11.736  12.073  0.8057 -0.6014  0.7916
42798SOL    HW235635   5.622  11.820  12.081  0.9331 -0.1864 -1.0761
42799SOL     OW35636   7.275   5.850   2.804  0.5796  0.1276  0.0486
42799SOL    HW135637   7.361   5.809   2.810  0.1582 -0.5595  2.3148
42799SOL    HW235638   7.286   5.935   2.846  0.5627  0.8428 -1.3354
42800SOL     OW35639  10.218  10.180  11.816  0.6641  0.4944 -0.1849
42800SOL    HW135640  10.285  10.249  11.817  1.5743 -0.3572  1.8332
42800SOL    HW235641  10.236  10.132  11.735  0.1745  2.4034 -1.5084
42801SOL     OW35642   2.061   7.692  10.366  0.2736  0.3722 -0.4255
42801SOL    HW135643   2.120   7.705  10.440  1.0746  1.2158 -1.1849
42801SOL    HW235644   1.992   7.757  10.377 -0.7622 -0.8621  0.6673
42802SOL     OW35645   4.658   8.617  11.915 -0.1652 -0.1040 -0.3223
42802SOL    HW135646   4.672   8.660  11.999 -0.3302 -0.2450 -0.2207
42802SOL    HW235647   4.745   8.585  11.890 -0.3888 -1.5579  0.6296
42803SOL     OW35648   3.063   2.336   4.989 -0.2914 -0.3481  0.4116
42803SOL    HW135649   3.154   2.337   4.961 -0.2742  0.1959  0.4799
42803SOL    HW235650   3.013   2.338   4.908 -0.2471  1.9227  0.3744
42804SOL     OW35651   2.981   8.481   1.348  0.0878  0.0275 -0.4369
42804SOL    HW135652   3.007   8.551   1.289  0.1152  1.3073  1.0131
42804SOL    HW235653   2.904   8.441   1.307  0.1741  0.8032 -1.3686
42805SOL     OW35654   7.288   8.028   5.673 -0.1973  0.3465  0.0695
42805SOL    HW135655   7.282   8.005   5.581 -2.7841 -1.7614  0.6262
42805SOL    HW235656   7.238   8.110   5.681  1.6470  1.6043 -0.6018
42806SOL     OW35657   7.378   4.864   0.748  0.4608  0.0073 -0.7557
42806SOL    HW135658   7.382   4.778   0.791 -1.2723  0.3233  0.1243
42806SOL    HW235659   7.365   4.844   0.655 -0.3739 -0.6860 -0.4991
42807SOL     OW35660   4.141  11.703   8.885 -0.4246 -0.2239  0.0505
42807SOL    HW135661   4.234  11.681   8.891 -0.1387  1.1967  3.1371
42807SOL    HW235662   4.098  11.640   8.943 -1.2820 -0.2859 -0.6360
42808SOL     OW35663   1.532   3.234   6.900  0.2065 -0.0800  0.2284
42808SOL    HW135664   1.478   3.210   6.825  1.4760  2.2752 -1.5806
42808SOL    HW235665   1.608   3.177   6.895 -1.2304 -2.2939  1.8445
42809SOL     OW35666   1.525   9.284   0.206 -0.2194  0.2814 -0.7060
42809SOL    HW135667   1.437   9.321   0.208  0.4749  1.9833  0.0994
42809SOL    HW235668   1.511   9.190   0.192 -2.1552  0.4869 -0.3980
42810SOL     OW35669   8.186   2.819  11.229  0.2091  0.1444 -0.2945
42810SOL    HW135670   8.103   2.791  11.268 -0.2100 -0.6105 -1.6411
42810SOL    HW235671   8.162   2.888  11.168  0.6785  0.4516 -0.1352
42811SOL     OW35672   5.808   8.233   9.872 -0.2459 -0.1744  0.0015
42811SOL    HW135673   5.831   8.145   9.901 -1.5954 -0.2221  1.0072
42811SOL    HW235674   5.772   8.276   9.949  0.8830  1.4725 -0.3127
42812SOL     OW35675   6.668  10.633   5.645  0.1460  0.6237 -0.1934
42812SOL    HW135676   6.695  10.601   5.559  1.1774  0.0618  0.3096
42812SOL    HW235677   6.696  10.564   5.705 -2.5812 -0.0646  0.3965
42813SOL     OW35678   3.478   2.142   3.933 -0.3730  0.5114  0.2577
42813SOL    HW135679   3.479   2.048   3.950 -0.7594  0.6183  0.8815
42813SOL    HW235680   3.570   2.163   3.913 -0.1446  0.1339  0.8693
42814SOL     OW35681   2.280   2.387   5.389  0.0795  0.1539 -0.4513
42814SOL    HW135682   2.347   2.324   5.362 -0.1340 -0.3770  0.2014
42814SOL    HW235683   2.197   2.342   5.371 -0.0668 -0.1445  0.8570
42815SOL     OW35684   1.179   9.648  10.127 -0.1755 -0.1340 -0.5383
42815SOL    HW135685   1.178   9.669  10.220  0.0702 -0.6216 -0.4250
42815SOL    HW235686   1.153   9.556  10.122 -0.2607 -0.0890 -0.9544
42816SOL     OW35687   7.209  11.772   6.265 -0.1673  0.2378  0.2469
42816SOL    HW135688   7.259  11.804   6.340  0.0187 -0.2406  0.3269
42816SOL    HW235689   7.274  11.733   6.207 -0.3619  0.2322  0.0298
42817SOL     OW35690   5.470   6.155   7.341 -0.2569 -0.3704  0.5250
42817SOL    HW135691   5.559   6.174   7.370  1.5451 -2.3166 -2.9068
42817SOL    HW235692   5.444   6.232   7.291  0.7678 -0.8048 -0.7668
42818SOL     OW35693   4.381   0.882   9.608  0.4907 -0.9993  0.0346
42818SOL    HW135694   4.287   0.895   9.618  0.5254 -0.4287 -0.3324
42818SOL    HW235695   4.401   0.808   9.665  0.0572 -0.2348  1.2215
42819SOL     OW35696   3.450   7.682   7.689 -0.6857 -0.0699  0.4182
42819SOL    HW135697   3.504   7.605   7.709 -0.3400 -0.2763 -1.2038
42819SOL    HW235698   3.435   7.723   7.774  0.7993 -0.8229  1.0814
42820SOL     OW35699  11.922   3.546   6.755  0.1021 -0.1422 -0.6361
42820SOL    HW135700  11.951   3.561   6.845  0.2218  1.3418 -0.8881
42820SOL    HW235701  11.829   3.526   6.762  0.5890 -2.4875 -0.0183
42821SOL     OW35702   6.954  11.122   3.988  0.2995  0.0441  0.2340
42821SOL    HW135703   7.007  11.182   3.937  0.2619 -0.3706 -0.3056
42821SOL    HW235704   6.939  11.167   4.072 -0.1654  1.0062 -0.3475
42822SOL     OW35705   9.008  11.729   8.149 -0.6195 -0.1706  0.4088
42822SOL    HW135706   9.056  11.735   8.231 -0.6771  0.3673  0.4087
42822SOL    HW235707   8.917  11.744   8.174 -0.8230 -1.3717  0.4354
42823SOL     OW35708   6.898   6.788   2.872 -0.2533  0.1561 -0.2309
42823SOL    HW135709   6.903   6.745   2.787 -3.3033 -1.6309  0.3421
42823SOL    HW235710   6.814   6.835   2.870 -0.5234 -0.1551  1.8494
42824SOL     OW35711   2.391   1.098  11.449 -0.6971 -0.1070 -0.2207
42824SOL    HW135712   2.366   1.080  11.358  0.3375 -2.5430 -0.0988
42824SOL    HW235713   2.309   1.089  11.498 -0.9195 -0.7949 -0.6955
42825SOL     OW35714   9.952  11.177   7.909 -0.5471 -0.4819  0.2726
42825SOL    HW135715   9.925  11.225   7.831 -1.0698 -1.1733  0.0177
42825SOL    HW235716   9.877  11.121   7.930  0.2894 -1.6823  0.1514
42826SOL     OW35717   6.735  10.644   1.744  0.0118 -0.0388 -0.0836
42826SOL    HW135718   6.686  10.602   1.673  0.4026  0.4782 -0.6719
42826SOL    HW235719   6.812  10.681   1.701  0.6043 -0.3127  0.7328
42827SOL     OW35720   9.982   3.138   4.707  0.3061 -0.2422 -0.5484
42827SOL    HW135721   9.957   3.200   4.637  0.8085  0.3439 -0.2150
42827SOL    HW235722   9.919   3.066   4.698 -2.0395  1.4929  0.7092
42828SOL     OW35723   6.892   2.527   4.745 -0.4869  0.0575  0.2899
42828SOL    HW135724   6.838   2.605   4.729  0.3745  0.0350 -3.6967
42828SOL    HW235725   6.911   2.492   4.658  1.9528 -2.7532  1.7510
42829SOL     OW35726   5.534   4.370  12.459  0.3497  0.1894 -0.1037
42829SOL    HW135727   5.620   4.410  12.472  1.1858 -0.0759 -3.7324
42829SOL    HW235728   5.553   4.286  12.417 -1.6069 -1.8693  2.7671
42830SOL     OW35729  11.483   4.980  10.001 -0.2865 -0.0266 -0.3280
42830SOL    HW135730  11.473   4.908  10.064 -2.4194 -0.0665 -0.6367
42830SOL    HW235731  11.573   5.009  10.013  0.3698 -2.1529  0.4477
42831SOL     OW35732   3.125   6.855   7.027  0.2242  0.3188  0.7696
42831SOL    HW135733   3.059   6.876   6.961 -0.7740 -0.8196  1.3588
42831SOL    HW235734   3.205   6.838   6.977 -0.4603 -0.3158 -0.1396
42832SOL     OW35735  11.275   1.396   3.284 -0.5036  0.0027  0.0338
42832SOL    HW135736  11.355   1.448   3.274 -0.3427 -0.2829 -0.1680
42832SOL    HW235737  11.221   1.420   3.209 -0.1798 -0.5598 -0.3895
42833SOL     OW35738   0.862   6.251   1.392  0.2866 -0.2170 -0.2205
42833SOL    HW135739   0.816   6.208   1.320  0.7182  0.9240 -1.2088
42833SOL    HW235740   0.826   6.210   1.471 -1.1468 -0.5901 -1.0215
42834SOL     OW35741   2.903   5.655   8.767 -0.5413 -0.5979  0.4412
42834SOL    HW135742   2.886   5.649   8.861  0.9635 -0.1015  0.7800
42834SOL    HW235743   2.987   5.701   8.761 -0.4578 -0.8985 -1.1310
42835SOL     OW35744   1.671  12.435   2.024 -0.0558  0.0475 -0.2963
42835SOL    HW135745   1.734  12.364   2.042 -0.6080 -0.5609 -0.7274
42835SOL    HW235746   1.586  12.398   2.045 -0.1982  1.3496  1.7413
42836SOL     OW35747   9.639   9.322   4.389  0.5982  0.4352 -0.1798
42836SOL    HW135748   9.627   9.289   4.478  0.9239 -1.1035 -0.6646
42836SOL    HW235749   9.617   9.247   4.333  0.7227  1.2664 -1.3804
42837SOL     OW35750  10.322   2.322  10.776 -0.1060  0.0718 -0.4386
42837SOL    HW135751  10.364   2.273  10.846 -1.3763 -1.1022 -0.4501
42837SOL    HW235752  10.315   2.260  10.703 -1.7859  0.2178 -0.4484
42838SOL     OW35753   6.198   8.417  10.064  0.0433  0.4046 -0.7877
42838SOL    HW135754   6.153   8.356  10.005 -0.2469 -0.3919  0.2177
42838SOL    HW235755   6.278   8.442  10.017 -0.0722 -0.3910 -1.4229
42839SOL     OW35756   2.403  11.506   1.702  0.3400 -0.2435 -0.0257
42839SOL    HW135757   2.336  11.519   1.635  0.0181  0.4184  0.4173
42839SOL    HW235758   2.485  11.531   1.659  0.0124  1.1710  0.1150
42840SOL     OW35759   6.850   8.845   2.068 -0.4245 -0.1773 -0.4840
42840SOL    HW135760   6.910   8.824   2.139 -1.0379  1.8957  0.7167
42840SOL    HW235761   6.896   8.913   2.018 -1.8638  1.7854  0.7311
42841SOL     OW35762   3.518  10.539  10.058 -0.2645 -0.0995 -0.4876
42841SOL    HW135763   3.468  10.484   9.997 -2.9609  0.8524  0.7073
42841SOL    HW235764   3.529  10.622  10.012 -0.5149 -0.0552 -0.4731
42842SOL     OW35765   6.395   2.184   5.310 -0.1724  0.5217  0.3809
42842SOL    HW135766   6.418   2.093   5.333 -0.4890  0.8443  2.0973
42842SOL    HW235767   6.390   2.183   5.214  0.3276 -1.1510  0.3242
42843SOL     OW35768   2.507  10.702   5.475 -0.4105 -0.1110  0.2603
42843SOL    HW135769   2.536  10.697   5.384 -0.3960 -0.7245  0.2978
42843SOL    HW235770   2.588  10.700   5.526 -0.4549 -0.4934  0.3149
42844SOL     OW35771   0.782   5.106   9.542  0.0543 -0.1129  0.3212
42844SOL    HW135772   0.857   5.091   9.600  0.2442 -0.7638 -0.0809
42844SOL    HW235773   0.815   5.170   9.478 -0.5902  1.6915  1.7223
42845SOL     OW35774   6.790   1.632  11.086 -0.2470  0.5765 -0.2342
42845SOL    HW135775   6.774   1.649  10.993 -0.3358  0.6202 -0.2112
42845SOL    HW235776   6.724   1.567  11.110  1.7637 -1.9154 -0.9851
42846SOL     OW35777   2.678   4.184   9.171 -0.1758 -0.2270 -0.7070
42846SOL    HW135778   2.737   4.108   9.165 -0.4890 -0.5144 -0.1913
42846SOL    HW235779   2.716   4.238   9.240 -1.3296 -1.1571  0.7196
42847SOL     OW35780   7.017   6.290   9.668 -0.0668  0.6620 -0.4553
42847SOL    HW135781   6.997   6.377   9.704 -0.6410  0.4600 -0.2901
42847SOL    HW235782   7.030   6.306   9.574  0.5040  1.0346 -0.3222
42848SOL     OW35783   0.690   2.679   2.270  0.0973 -0.1260  0.4198
42848SOL    HW135784   0.600   2.682   2.238 -0.2010 -0.0407  1.2360
42848SOL    HW235785   0.700   2.589   2.302  0.0574  0.0667  0.9904
42849SOL     OW35786  12.329  10.355   3.164  0.2523 -0.4433 -0.5045
42849SOL    HW135787  12.377  10.427   3.205 -1.8887  0.6642  0.2214
42849SOL    HW235788  12.314  10.292   3.235  1.8803 -1.5560 -1.0775
42850SOL     OW35789   5.918  11.944   8.442 -0.2313  0.5433 -0.6714
42850SOL    HW135790   5.903  12.014   8.506 -1.5971 -1.0046  0.7685
42850SOL    HW235791   5.995  11.897   8.475 -0.7757 -0.0935 -0.2952
42851SOL     OW35792   2.506   3.020   8.382 -0.0322  0.1846 -0.5274
42851SOL    HW135793   2.584   2.984   8.339 -0.2176  1.9146 -2.4693
42851SOL    HW235794   2.439   3.019   8.315 -1.1392  0.5516  0.5383
42852SOL     OW35795   9.929   4.902   0.731 -0.0594 -0.1102  0.0973
42852SOL    HW135796   9.865   4.953   0.781 -0.2811 -0.3546  0.0683
42852SOL    HW235797   9.877   4.857   0.664  0.0283 -0.9391  0.5786
42853SOL     OW35798   8.673   7.613   3.412  0.2470 -0.4364 -0.9778
42853SOL    HW135799   8.706   7.647   3.495  0.2003 -2.1014 -0.2372
42853SOL    HW235800   8.591   7.660   3.398 -0.6263 -1.3008  0.8222
42854SOL     OW35801   8.315   3.356   9.945 -0.2986 -0.3500  0.5896
42854SOL    HW135802   8.381   3.366  10.012 -0.6923 -2.4021  1.3509
42854SOL    HW235803   8.232   3.357   9.993 -0.6273 -0.9231  0.0562
42855SOL     OW35804   2.681  10.307   8.053  0.0246  0.1481 -0.1753
42855SOL    HW135805   2.661  10.395   8.019  0.2705  0.0466 -0.5822
42855SOL    HW235806   2.680  10.318   8.148 -5.1316 -0.4329  0.1373
42856SOL     OW35807   4.968  11.965   9.866  0.0488 -0.5078 -0.0712
42856SOL    HW135808   4.933  11.933   9.950  1.7912 -0.3758  0.7533
42856SOL    HW235809   4.916  12.042   9.846 -0.3048 -0.4593  0.9793
42857SOL     OW35810   8.480   0.645   1.660 -0.8317 -0.1923  0.0115
42857SOL    HW135811   8.553   0.706   1.671 -1.5142  0.9578 -1.4200
42857SOL    HW235812   8.498   0.575   1.722  3.0303 -1.4972 -2.2436
42858SOL     OW35813   3.907   6.383   0.812 -0.1346 -0.0864 -0.6487
42858SOL    HW135814   3.884   6.323   0.884 -0.3791  0.0718 -0.5922
42858SOL    HW235815   3.826   6.430   0.794  0.2880  0.9186 -0.0379
42859SOL     OW35816  11.381   8.065   9.939 -0.3937 -0.3756 -0.0654
42859SOL    HW135817  11.303   8.011   9.924 -1.5035  0.9287  0.8444
42859SOL    HW235818  11.420   8.075   9.852 -1.9585  0.0190 -0.7526
42860SOL     OW35819   7.257   2.661   4.705  0.5517 -0.1121  0.4148
42860SOL    HW135820   7.305   2.743   4.705 -1.7806  1.3598 -0.8146
42860SOL    HW235821   7.258   2.632   4.613  0.9419 -1.2363  0.7501
42861SOL     OW35822  11.726   2.467   3.257 -0.0260  0.0637  0.1135
42861SOL    HW135823  11.645   2.464   3.307 -0.5552  1.3039 -0.6174
42861SOL    HW235824  11.783   2.525   3.306  0.4740 -0.8595  0.6613
42862SOL     OW35825   7.963   2.041   5.983 -0.3401  0.4655 -0.0558
42862SOL    HW135826   7.954   2.024   5.889  0.7843 -2.9171  0.3006
42862SOL    HW235827   8.058   2.042   5.999 -0.5104  1.0349  1.0454
42863SOL     OW35828   8.623  11.644   6.703 -0.8730 -0.3060 -0.1482
42863SOL    HW135829   8.646  11.606   6.787 -0.3815 -0.4151 -0.3240
42863SOL    HW235830   8.544  11.598   6.676 -0.5915 -0.8286 -0.1070
42864SOL     OW35831   5.507  12.031   9.448  0.1786  0.1849  0.5122
42864SOL    HW135832   5.420  12.057   9.418  0.4572  1.1785  0.5239
42864SOL    HW235833   5.508  11.936   9.438  0.3955  0.4138 -3.1443
42865SOL     OW35834   7.052   1.756   2.911  0.9079  0.0950  0.0781
42865SOL    HW135835   7.037   1.688   2.977  1.7808  0.0481  0.2433
42865SOL    HW235836   6.982   1.744   2.847  0.4782 -0.3256  0.6225
42866SOL     OW35837  10.630   0.970   1.963  0.5093  0.4947 -0.8291
42866SOL    HW135838  10.615   1.004   1.874 -1.3888  2.3351  0.0844
42866SOL    HW235839  10.636   1.049   2.017 -0.2144 -0.5872  0.9092
42867SOL     OW35840  12.572   9.701  10.883  0.3882  0.2074 -0.1153
42867SOL    HW135841  12.514   9.715  10.808 -0.0908  1.2122  0.4174
42867SOL    HW235842  12.524   9.640  10.940  1.2804 -1.5494 -1.1554
42868SOL     OW35843   5.055   0.857   3.947  0.1843  0.0600 -0.0189
42868SOL    HW135844   5.066   0.819   4.034 -0.3785 -0.5599 -0.2091
42868SOL    HW235845   5.104   0.798   3.889  0.4133  0.3717 -0.1448
42869SOL     OW35846   2.421   4.126  12.611 -0.0715  0.3631  0.1123
42869SOL    HW135847   2.390   4.088  12.530 -0.8358 -1.0390  1.0263
42869SOL    HW235848   2.507   4.163  12.590 -0.9158  1.4324 -1.6807
42870SOL     OW35849   4.690   0.441   9.952 -0.3374  0.6547  0.2286
42870SOL    HW135850   4.763   0.456  10.012 -0.7536  1.6241  0.5139
42870SOL    HW235851   4.696   0.512   9.888 -0.8017  0.5134  0.0254
42871SOL     OW35852   0.582   4.786   8.236 -0.2747 -0.3454  0.0082
42871SOL    HW135853   0.658   4.737   8.268  0.0218  0.6327  0.8970
42871SOL    HW235854   0.520   4.785   8.309 -0.4855  0.1278 -0.1572
42872SOL     OW35855   8.217  10.457   9.378 -0.1141  0.0303  0.3237
42872SOL    HW135856   8.298  10.408   9.368 -0.2728  0.1768 -2.5526
42872SOL    HW235857   8.236  10.522   9.446  2.4633  0.5370 -0.7739
42873SOL     OW35858   8.986  10.187   0.369  0.2793 -0.2966 -0.1052
42873SOL    HW135859   9.071  10.217   0.403  0.4938  0.8970 -1.5745
42873SOL    HW235860   9.001  10.175   0.275 -0.7302 -1.8167 -0.1006
42874SOL     OW35861   0.258  11.261   6.942  0.3742  0.2424  0.5534
42874SOL    HW135862   0.219  11.346   6.963 -1.7156 -1.4736  4.8705
42874SOL    HW235863   0.324  11.247   7.010 -0.2577 -2.0743  0.7732
42875SOL     OW35864   6.939   0.686   0.499  0.1336 -0.5513  0.3577
42875SOL    HW135865   6.908   0.650   0.582 -0.6852 -1.8285 -0.4673
42875SOL    HW235866   7.012   0.743   0.523  0.8855 -2.0497  1.8296
42876SOL     OW35867   6.150   0.895   1.755  0.1987  0.5285 -0.0430
42876SOL    HW135868   6.070   0.945   1.770  0.8171  1.5376 -0.0686
42876SOL    HW235869   6.170   0.907   1.662  0.8003  0.9150  0.1299
42877SOL     OW35870   1.053  11.630   4.481  0.2172 -0.1105  0.4114
42877SOL    HW135871   0.969  11.590   4.457 -0.4884  2.0869 -1.1802
42877SOL    HW235872   1.093  11.568   4.542 -1.9199 -1.9019  0.1297
42878SOL     OW35873  12.580   7.416  10.481  0.5312  0.3904  0.7752
42878SOL    HW135874  12.566   7.379  10.394 -0.2419  1.8293  0.2512
42878SOL    HW235875  12.671   7.446  10.480  0.6360  0.0616  0.5867
42879SOL     OW35876   7.009   2.145   7.636  0.6463  0.2524  0.7689
42879SOL    HW135877   7.097   2.183   7.636  0.9137 -0.3443  1.1661
42879SOL    HW235878   6.962   2.193   7.568  0.9163  1.3790  1.3639
42880SOL     OW35879   0.664  12.585   6.051 -0.0589 -0.0528  0.3464
42880SOL    HW135880   0.633  12.515   6.108  0.2972 -1.0053 -0.5862
42880SOL    HW235881   0.741  12.548   6.008  0.4578  1.1162  0.2414
42881SOL     OW35882  12.016   6.625   9.917 -0.1899  0.3555  0.1254
42881SOL    HW135883  12.063   6.664   9.991  0.3389  1.6529 -0.8726
42881SOL    HW235884  12.072   6.641   9.842 -0.6723 -1.0501 -0.5622
42882SOL     OW35885   7.556   8.500   7.125  0.2718 -0.1324  0.8103
42882SOL    HW135886   7.647   8.495   7.154  0.4772  0.8471  0.3491
42882SOL    HW235887   7.547   8.428   7.063  1.0099  0.3764  0.1010
42883SOL     OW35888   6.065   8.548   5.664  0.4095 -0.3629  0.1936
42883SOL    HW135889   6.041   8.577   5.576  0.2096 -0.0149  0.3589
42883SOL    HW235890   5.994   8.580   5.720 -0.2277 -1.8807  0.2771
42884SOL     OW35891  10.418  10.504   0.828  0.6429 -0.3808  0.4091
42884SOL    HW135892  10.326  10.491   0.849  0.5816  0.2302  0.5513
42884SOL    HW235893  10.440  10.432   0.769  0.3135 -1.0425  1.0770
42885SOL     OW35894  12.228   1.628   9.940  0.0698  0.0081 -0.2654
42885SOL    HW135895  12.218   1.627   9.845  0.7336 -0.4708 -0.3420
42885SOL    HW235896  12.144   1.658   9.973 -0.3701 -0.4057 -0.9790
42886SOL     OW35897  11.339   1.992   3.063  0.2354 -0.5998  0.2676
42886SOL    HW135898  11.360   2.082   3.042  0.0424 -0.6680 -0.2210
42886SOL    HW235899  11.250   1.996   3.101 -0.0097 -0.6545 -0.2975
42887SOL     OW35900   1.944   9.005   7.048  0.6066  0.5673  0.0965
42887SOL    HW135901   2.028   8.959   7.052  1.1355  1.4815 -0.1897
42887SOL    HW235902   1.961   9.090   7.088  0.0307  1.0638 -0.6816
42888SOL     OW35903   5.850   6.305   0.599 -0.1740  0.4002  0.3341
42888SOL    HW135904   5.783   6.283   0.664 -0.8397  2.9756  0.6316
42888SOL    HW235905   5.903   6.372   0.641  1.1389  0.1141 -0.7958
42889SOL     OW35906  10.406   9.375  10.503  0.3990  0.4855 -0.0522
42889SOL    HW135907  10.366   9.312  10.442 -0.5109  1.1130 -0.1236
42889SOL    HW235908  10.374   9.349  10.589  0.7336  0.3192  0.0233
42890SOL     OW35909   9.863   0.332  11.307 -0.2766  0.4972  0.2362
42890SOL    HW135910   9.871   0.299  11.397  2.2809  0.5103  0.0903
42890SOL    HW235911   9.822   0.418  11.318 -0.1227  0.4524  1.3802
42891SOL     OW35912   3.674   8.736   3.784 -0.9836 -0.1781  0.2611
42891SOL    HW135913   3.726   8.656   3.773 -0.3716  0.1625  0.5705
42891SOL    HW235914   3.628   8.747   3.701 -0.9985 -0.8033  0.1860
42892SOL     OW35915   0.770  10.711   9.664  0.0927  0.0506  0.4986
42892SOL    HW135916   0.831  10.784   9.678  0.1062 -0.4164  3.5652
42892SOL    HW235917   0.683  10.751   9.666  0.1524  0.1746  0.6516
42893SOL     OW35918   7.508   1.481  12.383 -0.1277  0.2886  0.2634
42893SOL    HW135919   7.592   1.488  12.337 -0.0332  2.8079  0.7122
42893SOL    HW235920   7.442   1.484  12.313  0.0918  1.6062  0.0912
42894SOL     OW35921   9.748  11.982   7.406 -0.6814  0.2199 -0.5619
42894SOL    HW135922   9.713  11.973   7.495 -1.7687  0.1617 -0.9812
42894SOL    HW235923   9.810  12.055   7.411 -0.5213  0.0326  0.3021
42895SOL     OW35924   1.933   9.534   1.137 -0.0416  0.2923  0.1203
42895SOL    HW135925   1.956   9.627   1.132 -0.5304  0.5770  2.3028
42895SOL    HW235926   1.937   9.513   1.230  1.0312 -2.1549 -0.4049
42896SOL     OW35927   6.227   4.325   3.702  0.2635 -0.2083 -0.0833
42896SOL    HW135928   6.154   4.307   3.642  0.4714 -1.1951 -0.0534
42896SOL    HW235929   6.256   4.413   3.678  0.5353 -0.6922 -1.6474
42897SOL     OW35930   3.770   9.935   3.086  0.0091 -0.5509 -0.0807
42897SOL    HW135931   3.796   9.848   3.057 -1.8873 -0.6010 -1.8632
42897SOL    HW235932   3.674   9.931   3.091 -0.1173  1.3990 -0.1316
42898SOL     OW35933   5.273   8.532   3.016 -0.1222  0.2588 -0.1896
42898SOL    HW135934   5.366   8.547   3.033 -0.5734  1.3276  1.5169
42898SOL    HW235935   5.241   8.614   2.980  0.1359 -1.0043 -3.6443
42899SOL     OW35936   5.237  12.437   1.892 -0.1742  0.0013  0.2574
42899SOL    HW135937   5.314  12.396   1.851  1.4479  3.8452 -1.0213
42899SOL    HW235938   5.178  12.455   1.818 -0.7651  0.0831  0.7437
42900SOL     OW35939   5.568  10.720   5.437 -0.7440  0.1527 -0.3319
42900SOL    HW135940   5.604  10.632   5.451 -2.1479 -0.5125 -0.8077
42900SOL    HW235941   5.615  10.754   5.361 -0.0172 -0.0779  0.0067
42901SOL     OW35942  10.514  10.999  11.217  0.4932 -0.7213  0.2940
42901SOL    HW135943  10.540  10.992  11.125  1.2070 -0.4084  0.4691
42901SOL    HW235944  10.595  10.988  11.266  0.1525 -0.6482  0.8883
42902SOL     OW35945   5.497   1.712  10.088 -0.0912 -0.6283 -0.2485
42902SOL    HW135946   5.545   1.644  10.136 -0.9709 -1.0964 -0.0177
42902SOL    HW235947   5.506   1.790  10.143 -0.0981 -0.8653  0.0928
42903SOL     OW35948  12.230   2.420   3.314 -0.2100 -0.5502  0.4102
42903SOL    HW135949  12.234   2.450   3.405  2.8289 -1.1577  0.5876
42903SOL    HW235950  12.189   2.333   3.320 -0.5571 -0.3489  1.1023
42904SOL     OW35951   5.304   5.866   5.887 -0.4026 -0.1610  1.0929
42904SOL    HW135952   5.227   5.812   5.906 -1.6740  1.2605  0.1821
42904SOL    HW235953   5.295   5.941   5.946  0.3177 -0.0125  1.0179
42905SOL     OW35954  11.355   5.822   9.797  0.4528 -0.3721  0.6083
42905SOL    HW135955  11.406   5.863   9.867  1.2526  0.2943 -0.3400
42905SOL    HW235956  11.411   5.751   9.765 -0.2634 -1.2215  1.1759
42906SOL     OW35957   0.277  12.265   8.596  0.1769 -0.2080  0.3166
42906SOL    HW135958   0.366  12.249   8.629 -0.4416 -2.5418  1.0956
42906SOL    HW235959   0.225  12.280   8.675 -0.3358 -0.1454 -0.0283
42907SOL     OW35960  10.538   3.107   9.724 -0.4807  0.1315  0.2315
42907SOL    HW135961  10.502   3.165   9.657 -2.6097  0.5816  1.6621
42907SOL    HW235962  10.462   3.081   9.776  0.6969 -2.3994  0.8372
42908SOL     OW35963   5.013   1.994  11.430  0.0279  0.2331 -0.5812
42908SOL    HW135964   5.068   1.925  11.393  0.2442 -2.0618  3.4034
42908SOL    HW235965   4.924   1.971  11.404  0.3280 -0.2166 -1.2271
42909SOL     OW35966  10.196   6.756  11.291 -0.2836 -0.9237  0.9618
42909SOL    HW135967  10.142   6.816  11.238  1.9389  1.0866  0.7994
42909SOL    HW235968  10.255   6.715  11.228  1.3563  0.3383  1.5901
42910SOL     OW35969   7.526   7.883   3.296  0.3276 -0.2234  0.5424
42910SOL    HW135970   7.604   7.828   3.305 -0.2709 -1.1731  0.0521
42910SOL    HW235971   7.457   7.822   3.269 -0.3265  0.7940 -0.1132
42911SOL     OW35972  10.957   1.331   3.481 -0.2805 -0.7431 -0.1868
42911SOL    HW135973  10.928   1.290   3.563  0.8405 -0.0494  0.5851
42911SOL    HW235974  11.029   1.275   3.451  1.3069  0.6221  0.9097
42912SOL     OW35975   7.690  11.829   9.136  0.1271 -0.1147  0.1514
42912SOL    HW135976   7.769  11.840   9.189 -0.5766 -3.9503  2.4019
42912SOL    HW235977   7.710  11.755   9.078 -0.4236  1.6608 -2.5357
42913SOL     OW35978   1.824   7.288   9.163 -0.3556 -0.2663  0.5739
42913SOL    HW135979   1.848   7.200   9.192  0.5918 -0.4355 -0.6484
42913SOL    HW235980   1.729   7.289   9.165 -0.4094 -1.6021 -0.1565
42914SOL     OW35981   4.121   1.637   7.804  0.0261 -0.6074 -0.5517
42914SOL    HW135982   4.048   1.637   7.743 -0.6535 -1.1450  0.2405
42914SOL    HW235983   4.146   1.729   7.811 -0.2139 -0.4830 -1.2387
42915SOL     OW35984   9.559   4.556   9.348  0.9183  0.3026  0.2191
42915SOL    HW135985   9.597   4.622   9.291 -0.6929  1.0966  0.0021
42915SOL    HW235986   9.610   4.560   9.429 -0.4301  3.3662  1.0535
42916SOL     OW35987   9.039   9.998   3.989 -0.5802  0.2953 -0.9982
42916SOL    HW135988   8.963   9.955   3.950  0.2686 -2.1239 -0.1706
42916SOL    HW235989   9.093   9.926   4.021  0.8736  2.0296  0.6558
42917SOL     OW35990   5.375   7.043  11.157 -0.1846  0.3185 -0.0433
42917SOL    HW135991   5.298   7.100  11.165  0.8349  1.5384  1.8843
42917SOL    HW235992   5.346   6.959  11.194  0.0361  1.5215  3.2005
42918SOL     OW35993   1.147   7.367   0.475  0.0779  0.3554 -0.0839
42918SOL    HW135994   1.103   7.290   0.439 -0.7833  0.9011 -0.2304
42918SOL    HW235995   1.181   7.413   0.399  1.9097 -0.6083  0.0767
42919SOL     OW35996  10.582   7.065  12.583  0.9178  0.6321 -0.4387
42919SOL    HW135997  10.512   7.104  12.530  0.1824  1.8070  1.3042
42919SOL    HW235998  10.568   7.101  12.671 -0.8951 -4.7201  1.8726
42920SOL     OW35999   7.283   4.745   1.053  0.8648 -0.1130  0.7472
42920SOL    HW136000   7.235   4.807   0.997  1.0845  0.3630  1.0775
42920SOL    HW236001   7.302   4.795   1.132  2.5638 -0.0582  0.3308
42921SOL     OW36002   9.842   9.680   9.087  0.1766  0.2598 -0.0790
42921SOL    HW136003   9.901   9.610   9.116  0.0679  0.8582  1.6709
42921SOL    HW236004   9.784   9.695   9.161 -0.4370  1.5540 -0.7880
42922SOL     OW36005   0.995   4.333   2.171  0.2006  0.0478 -0.7397
42922SOL    HW136006   1.071   4.372   2.215  0.9754 -0.9259 -1.1936
42922SOL    HW236007   0.976   4.254   2.222  0.0700 -0.2039 -1.1734
42923SOL     OW36008   8.950   1.030  10.557  0.1964 -0.2277  0.4158
42923SOL    HW136009   8.916   0.990  10.476  0.2551  1.7764 -0.6529
42923SOL    HW236010   9.045   1.031  10.544  0.1844  0.3710  0.3619
42924SOL     OW36011   6.502   1.117   8.121  0.4124 -0.3100  0.2258
42924SOL    HW136012   6.588   1.093   8.087  2.1415  2.7284  1.9613
42924SOL    HW236013   6.493   1.068   8.203  0.0044 -1.3796 -0.4468
42925SOL     OW36014   4.546   9.296   6.882 -0.1672 -0.0606  0.1625
42925SOL    HW136015   4.510   9.217   6.842 -0.3032 -0.1222  0.4041
42925SOL    HW236016   4.639   9.293   6.862 -0.2585 -0.0084 -0.2878
42926SOL     OW36017  11.523   2.144   0.246  0.0669  0.0215 -0.0927
42926SOL    HW136018  11.510   2.170   0.155 -0.3283  0.7843  0.1717
42926SOL    HW236019  11.516   2.226   0.296  0.3367 -0.3743  0.6200
42927SOL     OW36020   0.227   6.412   0.045 -0.0570  0.4369  0.1492
42927SOL    HW136021   0.186   6.498   0.045  0.5555  0.7565 -1.2893
42927SOL    HW236022   0.280   6.410  -0.035  1.6979 -0.4537  1.2625
42928SOL     OW36023   3.528   6.339  10.517  0.0897  0.0585  0.1326
42928SOL    HW136024   3.580   6.401  10.466  2.1339 -0.6939  1.2049
42928SOL    HW236025   3.532   6.257  10.467 -0.2011  0.0448  0.1333
42929SOL     OW36026  10.469   4.796   1.249  0.2544  0.4203 -0.0930
42929SOL    HW136027  10.557   4.826   1.271  0.4906 -0.1917 -0.1752
42929SOL    HW236028  10.473   4.701   1.260 -1.2419  0.6048  2.8313
42930SOL     OW36029   4.093  11.495   9.124  0.0841 -0.4574 -0.4503
42930SOL    HW136030   4.179  11.491   9.167 -0.0488 -0.6946 -0.2087
42930SOL    HW236031   4.033  11.521   9.193 -0.1406 -0.8987 -0.4779
42931SOL     OW36032   1.273   0.087  11.342  0.0996 -0.4369 -0.2577
42931SOL    HW136033   1.358   0.070  11.382 -0.8297 -0.2008  1.9281
42931SOL    HW236034   1.229   0.002  11.343  0.1685 -0.4982 -1.1288
42932SOL     OW36035  10.053  11.878  10.696  0.0441  0.4142  0.2708
42932SOL    HW136036  10.081  11.894  10.606 -1.3343  0.6998 -0.1294
42932SOL    HW236037   9.972  11.928  10.705 -1.2002 -1.6043  0.8834
42933SOL     OW36038   2.630   4.570  11.628  0.4266 -0.1658 -0.0262
42933SOL    HW136039   2.540   4.547  11.610 -0.1672  0.4746  1.8575
42933SOL    HW236040   2.664   4.603  11.545 -0.9715 -0.7080 -0.8336
42934SOL     OW36041   5.444   2.016  12.021 -0.0086 -0.2158  0.4781
42934SOL    HW136042   5.425   1.949  12.086 -0.9384 -0.3493  0.0836
42934SOL    HW236043   5.464   2.094  12.072 -0.3025 -0.4331  0.9301
42935SOL     OW36044  12.106   2.364   9.927  0.3818  0.2661  0.1171
42935SOL    HW136045  12.159   2.286   9.944 -1.0288 -0.4034  1.6782
42935SOL    HW236046  12.054   2.340   9.850  0.5840 -0.0004  0.0582
42936SOL     OW36047   6.569   5.428   8.477  0.4489  0.2166 -0.1924
42936SOL    HW136048   6.478   5.401   8.487  0.4307  0.1856 -0.4349
42936SOL    HW236049   6.567   5.523   8.485  0.3250  0.2566 -0.7126
42937SOL     OW36050   1.407   3.658   1.555 -0.1361 -0.0760 -0.3080
42937SOL    HW136051   1.378   3.725   1.492 -0.6971 -0.1389 -0.1226
42937SOL    HW236052   1.354   3.675   1.633  1.5592  0.9253  0.6821
42938SOL     OW36053   2.351   4.537  10.118 -0.9413 -0.6680  0.0127
42938SOL    HW136054   2.446   4.546  10.111 -1.1282  0.8523 -1.1786
42938SOL    HW236055   2.336   4.503  10.206  0.6287  0.7324  0.8917
42939SOL     OW36056   1.309   2.881   0.286 -0.0588  0.2325 -0.2422
42939SOL    HW136057   1.295   2.846   0.374 -1.5073  0.4885 -0.3493
42939SOL    HW236058   1.304   2.976   0.297 -0.6023  0.2530 -0.6608
42940SOL     OW36059   9.495   2.132   5.892  0.2019  0.3979 -0.3942
42940SOL    HW136060   9.587   2.128   5.865  0.0686  0.5911 -0.8938
42940SOL    HW236061   9.448   2.087   5.822 -0.2383  1.6081 -0.9121
42941SOL     OW36062  11.754   8.279   2.435 -0.6968  0.4900 -0.3248
42941SOL    HW136063  11.717   8.298   2.348  1.5166 -0.2662 -1.4932
42941SOL    HW236064  11.834   8.231   2.417  0.2406  1.0049  2.1470
42942SOL     OW36065   3.564   5.159   3.885  0.4534 -0.3920 -0.4775
42942SOL    HW136066   3.485   5.139   3.935  1.1376 -0.3361  0.6507
42942SOL    HW236067   3.534   5.218   3.816 -0.3592  0.2073  0.3727
42943SOL     OW36068   3.529   7.826   2.477 -0.2043 -1.0491  0.4442
42943SOL    HW136069   3.463   7.878   2.521  0.4283  0.6230 -0.5144
42943SOL    HW236070   3.598   7.813   2.543  0.1993  0.4271  0.3415
42944SOL     OW36071   8.186   1.539  12.418  0.5845  0.1547  0.5049
42944SOL    HW136072   8.200   1.632  12.397 -1.0613  0.3335  0.0240
42944SOL    HW236073   8.091   1.532  12.431  0.8361 -1.2243  1.8152
42945SOL     OW36074   1.038   3.231   0.227  0.0223 -0.5095 -0.1380
42945SOL    HW136075   1.084   3.235   0.143  0.9914 -0.2732  0.3822
42945SOL    HW236076   1.005   3.142   0.232  1.2530 -0.9952 -0.1354
42946SOL     OW36077   9.189  10.620  10.839 -0.3688 -0.1468  0.2324
42946SOL    HW136078   9.120  10.613  10.773  0.8747  2.4974 -1.5343
42946SOL    HW236079   9.163  10.695  10.892  0.7421  0.4409 -0.0196
42947SOL     OW36080   9.541   8.095   4.867  0.5312 -0.1627  0.2440
42947SOL    HW136081   9.579   8.041   4.797 -0.8271 -0.3798 -0.3724
42947SOL    HW236082   9.570   8.184   4.848 -2.0545  0.2738 -2.3332
42948SOL     OW36083   2.476   5.008  12.196 -0.1629 -0.5468  0.0605
42948SOL    HW136084   2.389   5.044  12.183  0.5306  1.1023 -0.3554
42948SOL    HW236085   2.467   4.948  12.270 -1.3110  0.9466  1.1989
42949SOL     OW36086   2.764   8.200   3.006 -0.7616 -0.5203  0.2939
42949SOL    HW136087   2.776   8.118   3.054  0.7523  0.4694  1.6816
42949SOL    HW236088   2.837   8.255   3.032 -1.0978  0.8916 -1.4987
42950SOL     OW36089   2.757  10.975   4.443 -0.3759 -0.5808  0.7866
42950SOL    HW136090   2.813  10.898   4.439  0.3840  0.0137 -1.9747
42950SOL    HW236091   2.817  11.049   4.428 -1.2360  0.4912  2.3606
42951SOL     OW36092   7.440   9.937   4.452 -0.0968  0.5881 -0.2450
42951SOL    HW136093   7.527   9.972   4.438  0.1714 -0.0583 -0.2216
42951SOL    HW236094   7.441   9.902   4.541  0.3854 -1.5442 -1.0238
42952SOL     OW36095   0.325   6.783   4.649 -0.1983  0.3714 -0.0593
42952SOL    HW136096   0.331   6.791   4.745  0.0429 -0.3341 -0.0140
42952SOL    HW236097   0.415   6.796   4.618 -0.3140  0.8266 -0.2110
42953SOL     OW36098   0.494  12.444   5.416 -0.1366  0.3707  0.5443
42953SOL    HW136099   0.561  12.437   5.348 -0.6459  0.6188  0.0119
42953SOL    HW236100   0.456  12.531   5.403 -0.8707  0.0535  0.5470
42954SOL     OW36101  10.615   2.609   9.478  0.0883 -0.1625 -0.2133
42954SOL    HW136102  10.646   2.646   9.561  2.0019 -1.8311 -0.0924
42954SOL    HW236103  10.552   2.542   9.503 -0.2514  0.1722 -0.1774
42955SOL     OW36104  11.440   5.915  10.053  0.6576 -0.0211  0.2571
42955SOL    HW136105  11.530   5.935  10.080 -0.3299  3.1752  1.6631
42955SOL    HW236106  11.387   5.936  10.129 -1.4282 -0.3135 -1.0521
42956SOL     OW36107   2.813   3.130  10.955  0.4674  0.4351  0.2593
42956SOL    HW136108   2.748   3.184  10.910 -0.8161 -0.1920  1.3162
42956SOL    HW236109   2.778   3.117  11.043  0.4082 -2.5846 -0.0966
42957SOL     OW36110  11.593   2.154  10.907  0.3852  0.7435 -0.0493
42957SOL    HW136111  11.681   2.191  10.895  0.5298  0.5738  0.4960
42957SOL    HW236112  11.546   2.182  10.828  0.7848  1.2432 -0.1209
42958SOL     OW36113   7.955   6.523  10.872  0.1532 -0.2763 -0.4745
42958SOL    HW136114   7.908   6.606  10.867  2.6626  1.1278 -3.2133
42958SOL    HW236115   7.999   6.525  10.957 -0.6578  0.6481 -0.0602
42959SOL     OW36116  12.212   5.445   8.957  0.1281  0.2364  0.1187
42959SOL    HW136117  12.153   5.489   8.896  0.8887 -1.0862 -1.6417
42959SOL    HW236118  12.155   5.390   9.011 -0.3224 -0.7965 -1.3604
42960SOL     OW36119   3.984   6.629  11.049 -0.0438 -0.0876  0.4957
42960SOL    HW136120   3.984   6.694  11.119  0.6332  1.2687 -0.7306
42960SOL    HW236121   4.028   6.553  11.088  1.0489  0.9203  1.3108
42961SOL     OW36122   5.721  11.172   6.250  0.2526 -0.6671  0.5096
42961SOL    HW136123   5.763  11.089   6.272 -1.8527 -1.9227  0.0873
42961SOL    HW236124   5.652  11.182   6.316 -1.7158 -1.0278 -1.3859
42962SOL     OW36125   3.635   6.134  12.482  0.1938  0.3214  0.0986
42962SOL    HW136126   3.683   6.132  12.400 -0.7725 -0.6020 -0.4729
42962SOL    HW236127   3.561   6.193  12.466 -1.1222 -1.3892 -0.3882
42963SOL     OW36128   3.908   8.904   1.157 -0.6612  0.0170  0.0548
42963SOL    HW136129   3.945   8.819   1.185 -1.2184 -0.9018 -1.8258
42963SOL    HW236130   3.917   8.903   1.062 -0.0905  2.3918  0.0327
42964SOL     OW36131   3.111   3.816   5.909 -0.3617  0.4362  0.3294
42964SOL    HW136132   3.167   3.876   5.860 -0.6980  1.3909  1.0761
42964SOL    HW236133   3.039   3.796   5.849 -0.1780  0.6749  0.0256
42965SOL     OW36134   1.639  12.251   7.703  0.1893 -0.0035  0.2822
42965SOL    HW136135   1.569  12.307   7.737 -1.1234 -0.9188 -0.8105
42965SOL    HW236136   1.703  12.312   7.666 -0.3903  0.8214  0.6115
42966SOL     OW36137  11.368   6.669   8.494  0.2781 -0.1266  0.4972
42966SOL    HW136138  11.317   6.588   8.503  1.0328 -0.4957  1.7460
42966SOL    HW236139  11.308   6.738   8.522 -1.0478  0.0521 -2.4671
42967SOL     OW36140   0.571  10.770  12.249  0.5308 -0.0456  0.5343
42967SOL    HW136141   0.604  10.776  12.338  0.0936 -0.4297  0.7238
42967SOL    HW236142   0.648  10.785  12.194  0.5945  1.3889  0.9647
42968SOL     OW36143   6.333   5.830   9.066 -0.3044 -0.0181  0.3578
42968SOL    HW136144   6.280   5.761   9.027 -3.0972  1.4205  1.3350
42968SOL    HW236145   6.303   5.911   9.023  1.8768  0.7979  0.2284
42969SOL     OW36146   1.787   8.689   2.131  0.3848  0.0619 -0.2724
42969SOL    HW136147   1.788   8.693   2.227 -0.6689 -0.9672 -0.1935
42969SOL    HW236148   1.866   8.641   2.108 -1.2863 -3.3037  0.3735
42970SOL     OW36149   6.098   8.386   9.244 -0.4105 -0.0624  0.0607
42970SOL    HW136150   6.129   8.310   9.293  1.2363  0.3400 -0.2736
42970SOL    HW236151   6.006   8.369   9.227 -0.8028 -0.6775  2.4178
42971SOL     OW36152   7.888  11.983   9.762  0.0099  0.1196  0.1767
42971SOL    HW136153   7.875  11.889   9.776 -0.7996 -0.1092 -1.7415
42971SOL    HW236154   7.832  12.004   9.687  0.7332  1.9897  0.0998
42972SOL     OW36155   5.530   6.419   7.891  0.5638  0.5730  0.3778
42972SOL    HW136156   5.509   6.426   7.984 -1.8367 -2.5358  0.2296
42972SOL    HW236157   5.527   6.509   7.859  0.8194  1.6551  3.1574
42973SOL     OW36158   3.621  12.319   0.946 -0.1612 -0.9641 -0.4613
42973SOL    HW136159   3.530  12.293   0.962 -0.4819  0.6478  0.5661
42973SOL    HW236160   3.670  12.237   0.945 -1.2885 -1.7208  1.4551
42974SOL     OW36161  10.596   9.881   3.719  0.2078 -0.2198 -0.1180
42974SOL    HW136162  10.673   9.831   3.745 -0.1650 -0.9387 -0.3576
42974SOL    HW236163  10.523   9.820   3.730 -0.3050  0.3801 -0.0990
42975SOL     OW36164  12.345   1.945   0.982 -0.1828  0.0556  0.4006
42975SOL    HW136165  12.329   2.033   1.017 -2.3139 -0.4092  0.7658
42975SOL    HW236166  12.383   1.897   1.056 -2.2454 -0.2123  1.3673
42976SOL     OW36167  12.360  12.175   1.334  0.1458  0.2416 -0.1738
42976SOL    HW136168  12.370  12.111   1.404 -0.6838  1.9003  1.5585
42976SOL    HW236169  12.303  12.133   1.270 -0.7317 -0.6014  1.1246
42977SOL     OW36170   0.046   1.019   8.886  0.0093 -0.6225 -0.1549
42977SOL    HW136171  -0.010   0.955   8.843 -1.0019  0.0081  0.1887
42977SOL    HW236172   0.109   1.045   8.819 -0.0804 -1.3646 -0.5379
42978SOL     OW36173   0.274   1.493   5.498 -0.6020 -0.4206  0.1433
42978SOL    HW136174   0.245   1.585   5.497 -1.0658 -0.5561 -0.7412
42978SOL    HW236175   0.193   1.443   5.502 -0.4588 -0.8007 -1.1710
42979SOL     OW36176   2.409   7.947   3.171 -0.0603  0.4884  0.5953
42979SOL    HW136177   2.397   7.866   3.121  0.0837 -0.7173  2.4083
42979SOL    HW236178   2.339   8.004   3.139 -0.0597 -0.2566 -0.8588
42980SOL     OW36179   2.102   0.170   5.760 -0.3129  0.2079 -1.0320
42980SOL    HW136180   2.007   0.158   5.766 -0.2563  0.2957  0.3324
42980SOL    HW236181   2.122   0.236   5.826  0.9858 -1.5345  0.4045
42981SOL     OW36182   0.544  12.073   9.235  0.5323  0.4369 -0.6643
42981SOL    HW136183   0.585  12.095   9.151 -0.1935 -0.4804 -1.2779
42981SOL    HW236184   0.461  12.120   9.234  0.8901  1.1127 -0.0602
42982SOL     OW36185   7.096   8.708   0.424 -0.3503  0.4995 -0.1456
42982SOL    HW136186   7.187   8.689   0.405 -0.4331  0.4100 -0.4618
42982SOL    HW236187   7.048   8.674   0.348 -0.4851  2.1455 -0.8545
42983SOL     OW36188   4.450   5.866   3.491  0.2250 -0.5013  0.2422
42983SOL    HW136189   4.443   5.870   3.586  2.8620  1.6357  0.4901
42983SOL    HW236190   4.486   5.779   3.474 -0.6605 -1.0661  1.1297
42984SOL     OW36191  12.246   5.778  12.457  0.2751  0.1660  0.1334
42984SOL    HW136192  12.241   5.841  12.528 -0.1566 -1.0525  1.2288
42984SOL    HW236193  12.300   5.821  12.391 -0.2145  1.7689  0.7146
42985SOL     OW36194   1.229   0.018   0.596  0.3795  0.5331 -0.3861
42985SOL    HW136195   1.291   0.085   0.625 -0.1395  1.5720 -1.5870
42985SOL    HW236196   1.265  -0.014   0.513  0.8949 -1.0831  0.4207
42986SOL     OW36197  10.556  12.088   0.308  0.4016 -0.5083 -0.0798
42986SOL    HW136198  10.495  12.161   0.304  0.3515 -0.5377  0.1910
42986SOL    HW236199  10.578  12.079   0.400  4.2632  2.3723 -0.4544
42987SOL     OW36200   3.144  12.232   2.448  0.1519 -0.7957  0.4172
42987SOL    HW136201   3.203  12.301   2.477 -1.1439  0.5421  0.0383
42987SOL    HW236202   3.201  12.163   2.416  1.6556  1.7624 -3.1296
42988SOL     OW36203   3.041  11.312  12.453 -0.4764 -0.6398 -0.4199
42988SOL    HW136204   3.084  11.384  12.406 -0.3685 -1.2428 -1.2532
42988SOL    HW236205   2.983  11.272  12.389 -1.5169 -0.4995  0.4049
42989SOL     OW36206   5.387  11.643  10.151  0.3714 -0.0659 -0.1247
42989SOL    HW136207   5.325  11.703  10.111 -0.3441  0.0538  1.1299
42989SOL    HW236208   5.371  11.650  10.245 -0.0205 -2.4954  0.0582
42990SOL     OW36209  12.054  10.229  10.552  0.4167  0.2321  0.8441
42990SOL    HW136210  12.092  10.279  10.480  0.5428 -0.5558  0.3508
42990SOL    HW236211  11.987  10.175  10.510 -1.6383  1.9225  1.7380
42991SOL     OW36212   7.468  10.848   8.107  0.0695  0.4427 -0.5311
42991SOL    HW136213   7.376  10.821   8.103 -0.1509  0.7275  1.4596
42991SOL    HW236214   7.509  10.784   8.165  0.8589  0.9831 -0.4741
42992SOL     OW36215   5.545   2.729  10.037 -0.2657  0.5690  0.3856
42992SOL    HW136216   5.528   2.811  10.083  0.5302  1.4432 -0.8184
42992SOL    HW236217   5.614   2.751   9.974 -1.3013 -0.5724 -1.2191
42993SOL     OW36218   1.351   3.762   7.865  0.3001 -0.2275  0.0632
42993SOL    HW136219   1.259   3.776   7.887  0.7900  1.8835  0.9593
42993SOL    HW236220   1.358   3.791   7.774  0.1640 -0.0100  0.1207
42994SOL     OW36221   0.773   3.425   3.076  0.0063  0.1442 -0.4028
42994SOL    HW136222   0.787   3.339   3.036 -2.0124  0.2957 -1.5570
42994SOL    HW236223   0.726   3.406   3.157  0.2013  0.1259 -0.2926
42995SOL     OW36224  12.141   6.938  11.211  0.2028  0.1480 -0.2828
42995SOL    HW136225  12.050   6.968  11.214  0.0028 -0.4964  0.4090
42995SOL    HW236226  12.168   6.932  11.303  0.4825 -1.0115 -0.4209
42996SOL     OW36227   0.829   1.785   3.363  0.3949  0.5534 -0.6876
42996SOL    HW136228   0.794   1.699   3.385 -2.0541  1.1652 -1.8627
42996SOL    HW236229   0.797   1.843   3.432  0.1016  0.9013 -1.1073
42997SOL     OW36230  11.892   6.125  10.290 -0.8485 -0.2731  0.1214
42997SOL    HW136231  11.925   6.080  10.368  0.8495 -0.8375 -0.8814
42997SOL    HW236232  11.856   6.207  10.323  2.4805  0.8943  1.2620
42998SOL     OW36233   9.779   9.964   9.379  0.5075  0.9547  0.4540
42998SOL    HW136234   9.748   9.960   9.470  1.7471 -0.0508  0.8625
42998SOL    HW236235   9.843   9.893   9.373 -0.1777  0.4425 -1.4591
42999SOL     OW36236   7.853   6.159   7.809 -0.2745 -0.3029 -0.5895
42999SOL    HW136237   7.793   6.085   7.805 -1.1492  0.4059 -3.5281
42999SOL    HW236238   7.939   6.123   7.786 -0.3168 -0.7075 -0.1078
43000SOL     OW36239  10.522   3.446   1.242 -0.3236  0.4256  0.3269
43000SOL    HW136240  10.465   3.458   1.319  0.6279  1.5710  0.8793
43000SOL    HW236241  10.584   3.378   1.270 -0.4823  0.2517  0.2624
43001SOL     OW36242   2.109   9.390   9.982 -0.6509  0.3458 -0.0838
43001SOL    HW136243   2.081   9.480   9.997 -1.8589 -0.1372  0.7053
43001SOL    HW236244   2.205   9.395   9.978 -0.6096  1.4422  1.5561
43002SOL     OW36245   7.094   1.889  10.357  0.4040 -0.1739 -0.1665
43002SOL    HW136246   7.184   1.858  10.355  0.4137 -0.5836  2.3508
43002SOL    HW236247   7.100   1.982  10.336  1.3497 -0.2929 -0.4769
43003SOL     OW36248   5.681  12.425   2.468 -0.2278 -0.7923 -0.0797
43003SOL    HW136249   5.593  12.451   2.440  0.0412 -1.0751 -1.2465
43003SOL    HW236250   5.678  12.330   2.470  0.0476 -0.8005 -0.1171
43004SOL     OW36251   0.896  10.890   9.920  0.2044  0.3716 -0.3728
43004SOL    HW136252   0.868  10.845   9.999 -0.4267  1.5427  0.1050
43004SOL    HW236253   0.964  10.951   9.950  0.4428  0.3485 -0.8509
43005SOL     OW36254   6.321   5.680   1.892  0.0346  0.1288  0.0557
43005SOL    HW136255   6.395   5.737   1.873  0.9271 -1.1811 -0.5392
43005SOL    HW236256   6.296   5.644   1.807 -2.4002  1.7882 -0.0442
43006SOL     OW36257   5.058  10.291   1.645  0.2311 -0.5070  0.3440
43006SOL    HW136258   5.041  10.211   1.597  1.8735 -1.5825  1.4648
43006SOL    HW236259   5.148  10.282   1.677  0.2913  1.5609  0.9210
43007SOL     OW36260  11.910   3.171   4.195  0.8771  0.7799 -0.4243
43007SOL    HW136261  11.974   3.135   4.256 -0.4257  1.0888  1.1769
43007SOL    HW236262  11.833   3.115   4.204  0.3705  1.3358 -1.1708
43008SOL     OW36263  11.960   9.407   5.985 -0.0240  0.1365  0.7458
43008SOL    HW136264  11.987   9.369   5.902  0.5661  1.2192  0.4160
43008SOL    HW236265  12.031   9.467   6.009 -0.5182  0.3906  1.6641
43009SOL     OW36266   9.268   6.789  11.576 -0.1892 -0.5557  0.4606
43009SOL    HW136267   9.360   6.782  11.550  0.1764  0.6233  1.3526
43009SOL    HW236268   9.259   6.732  11.652 -0.6301 -1.9676 -0.6022
43010SOL     OW36269  12.447   4.803  11.301  0.1855  0.3264 -0.3011
43010SOL    HW136270  12.393   4.880  11.320  1.0649  1.0047 -0.5085
43010SOL    HW236271  12.403   4.732  11.348 -0.5104  0.9893  0.0886
43011SOL     OW36272   9.289  11.613   8.765 -0.6269  0.0658  0.0717
43011SOL    HW136273   9.249  11.693   8.801  1.8663  1.4037  0.0771
43011SOL    HW236274   9.324  11.641   8.680 -1.4753 -1.5953 -0.8703
43012SOL     OW36275   1.703   0.138  11.064  0.3085 -0.0275  0.2911
43012SOL    HW136276   1.727   0.091  11.143 -0.5657 -0.8545  0.0844
43012SOL    HW236277   1.686   0.069  10.999 -1.3409  0.5337  0.0777
43013SOL     OW36278   1.674  12.212  10.298  0.6681  0.3102 -0.1550
43013SOL    HW136279   1.714  12.144  10.352 -1.5197  0.5243  1.9453
43013SOL    HW236280   1.700  12.294  10.341  0.2786  0.5929 -0.4518
43014SOL     OW36281  11.915   3.342   2.359  0.1824  0.1393  0.1263
43014SOL    HW136282  11.987   3.335   2.421 -1.6216  3.6558  2.9889
43014SOL    HW236283  11.846   3.285   2.394 -0.7717  1.9895  1.4463
43015SOL     OW36284  10.230   5.638  12.457  0.1587 -0.1260 -0.1727
43015SOL    HW136285  10.250   5.722  12.417 -0.7376  0.0832 -0.1886
43015SOL    HW236286  10.239   5.653  12.551  0.4666 -0.1422 -0.1979
43016SOL     OW36287   3.657   8.207   1.176 -0.6820 -0.0632 -0.8238
43016SOL    HW136288   3.694   8.240   1.093  2.1277 -1.6603 -0.3619
43016SOL    HW236289   3.583   8.264   1.194  0.3902  2.2016 -2.9506
43017SOL     OW36290   9.116   6.811   8.620  0.5241 -0.0454  0.3245
43017SOL    HW136291   9.094   6.904   8.617 -1.4311 -0.4234  1.2330
43017SOL    HW236292   9.162   6.794   8.538 -0.8199  1.3349 -0.7659
43018SOL     OW36293   0.779   6.364   2.001  0.1874 -0.1409  0.1900
43018SOL    HW136294   0.729   6.445   1.993  3.0926  1.9431  1.0842
43018SOL    HW236295   0.846   6.370   1.933  0.8937 -1.4480  0.7117
43019SOL     OW36296   0.288   8.394   0.465  0.2350 -0.1457 -0.3364
43019SOL    HW136297   0.369   8.432   0.431 -0.3016 -0.2929 -1.8515
43019SOL    HW236298   0.253   8.461   0.524  1.5683 -0.1865  0.5492
43020SOL     OW36299  10.800   8.304   5.400  0.4812 -0.0544 -0.4051
43020SOL    HW136300  10.797   8.341   5.312  0.4105  0.4251 -0.2037
43020SOL    HW236301  10.773   8.213   5.389 -0.8145  0.3472 -0.6936
43021SOL     OW36302   1.882   1.666  12.387 -0.0989  0.4740  0.2627
43021SOL    HW136303   1.971   1.696  12.371  0.6048 -0.8243  1.5022
43021SOL    HW236304   1.830   1.746  12.388  1.4185  1.5143  1.7850
43022SOL     OW36305  11.390  12.504  10.590 -0.1686 -0.5091 -0.1588
43022SOL    HW136306  11.404  12.599  10.585 -0.7690 -0.4745 -2.2968
43022SOL    HW236307  11.433  12.470  10.511 -0.5729 -1.9442  0.2207
43023SOL     OW36308   7.986   8.529  10.037 -0.1632  0.1874 -0.6305
43023SOL    HW136309   8.041   8.541  10.114  0.2673 -0.9228 -0.7486
43023SOL    HW236310   7.911   8.587  10.051  0.6736  1.1909 -0.1338
43024SOL     OW36311   7.917   7.702   1.923 -0.1846 -0.3160  0.1407
43024SOL    HW136312   8.012   7.693   1.927 -0.2360 -1.7616 -0.7933
43024SOL    HW236313   7.888   7.698   2.014  0.6217 -0.2504  0.4053
43025SOL     OW36314   3.889   0.308  10.646 -0.0002  0.1776  0.3867
43025SOL    HW136315   3.879   0.300  10.741 -4.8779  1.3667  0.2225
43025SOL    HW236316   3.918   0.399  10.633 -2.7300  1.2083  0.8147
43026SOL     OW36317  12.011   9.922   7.482 -0.2124  0.0911 -0.0094
43026SOL    HW136318  12.080   9.856   7.489 -0.6609 -0.3916 -0.0817
43026SOL    HW236319  12.020   9.956   7.393 -0.5010 -0.4668 -0.2604
43027SOL     OW36320   4.548   8.023   6.914 -0.0808 -0.2774  0.2072
43027SOL    HW136321   4.557   8.119   6.917 -0.4020 -0.2179 -0.4728
43027SOL    HW236322   4.454   8.008   6.918 -0.0242 -0.5751  0.4254
43028SOL     OW36323   3.567   8.499   1.413  0.0859  0.1509  0.2922
43028SOL    HW136324   3.486   8.545   1.391 -0.0536 -0.4504 -0.4970
43028SOL    HW236325   3.626   8.516   1.339 -0.4813 -2.1296 -0.7615
43029SOL     OW36326   1.752   4.843   0.515  0.2732  0.0057  0.3456
43029SOL    HW136327   1.825   4.782   0.517  0.6880  0.3666 -1.6326
43029SOL    HW236328   1.792   4.929   0.525 -0.0786  0.0948  1.0156
43030SOL     OW36329   8.311   9.859  11.458  0.1620 -0.2190  0.5977
43030SOL    HW136330   8.286   9.905  11.538  0.0150  0.9653 -0.0933
43030SOL    HW236331   8.237   9.801  11.440 -0.7009  0.9225  0.3021
43031SOL     OW36332   8.148   6.073   1.875 -0.1448  0.4323 -0.2874
43031SOL    HW136333   8.234   6.059   1.916  0.0321  0.9828 -0.4658
43031SOL    HW236334   8.157   6.156   1.829 -1.1544  1.1128  0.6973
43032SOL     OW36335  11.012   9.705   5.309 -0.3606  0.0787  0.1006
43032SOL    HW136336  11.009   9.630   5.369  0.2091  0.5506  0.7320
43032SOL    HW236337  11.105   9.728   5.306 -0.4613  0.4010 -0.5463
43033SOL     OW36338   1.432   9.071   3.404  0.0535 -0.1992  0.0948
43033SOL    HW136339   1.343   9.051   3.375  0.0077 -0.8229  0.6364
43033SOL    HW236340   1.450   9.006   3.472  1.3799 -0.8895 -0.8572
43034SOL     OW36341  10.104   9.850   7.467 -0.0089 -0.5377  0.3388
43034SOL    HW136342  10.104   9.790   7.393  0.1821  1.2172 -1.1548
43034SOL    HW236343  10.129   9.796   7.542 -0.3828 -2.4041 -0.8148
43035SOL     OW36344   2.884   9.519   1.980 -0.1268  0.0128  0.3130
43035SOL    HW136345   2.830   9.594   2.008  0.3102  0.1167  0.8815
43035SOL    HW236346   2.839   9.486   1.902 -0.0368  1.1925 -0.2621
43036SOL     OW36347   5.757   1.593   7.197  0.1992  0.5142 -0.1934
43036SOL    HW136348   5.844   1.598   7.239  1.1667 -0.2637 -1.9979
43036SOL    HW236349   5.749   1.676   7.150 -0.0821  0.6264  0.0521
43037SOL     OW36350   8.333  10.561   1.699 -0.3968  0.1731  0.2790
43037SOL    HW136351   8.345  10.645   1.743  1.2649 -0.0322  0.2861
43037SOL    HW236352   8.239  10.544   1.703 -0.7259  1.9346  0.4420
43038SOL     OW36353   4.647  12.607  10.545  0.6770 -0.2269  0.3868
43038SOL    HW136354   4.626  12.634  10.456  1.4967 -0.8981 -0.0275
43038SOL    HW236355   4.616  12.517  10.551 -0.7482  0.2956  1.2931
43039SOL     OW36356   5.523   6.868  10.713 -0.5544 -0.2272  0.5393
43039SOL    HW136357   5.438   6.836  10.682 -1.0553  0.8431  0.7564
43039SOL    HW236358   5.501   6.929  10.784  0.4588 -0.8080  1.3758
43040SOL     OW36359   2.050  11.653   4.691 -0.1440 -0.2122 -0.1012
43040SOL    HW136360   1.959  11.679   4.677 -0.3078  0.0061  1.2603
43040SOL    HW236361   2.062  11.577   4.634 -1.6303 -1.1485  0.7574
43041SOL     OW36362  12.596  12.047   1.567  0.2425 -0.3570 -0.2071
43041SOL    HW136363  12.510  12.035   1.526 -0.2354  0.1174  0.6403
43041SOL    HW236364  12.640  12.112   1.512 -1.7780  3.1244  1.9548
43042SOL     OW36365  11.099   0.848   9.210 -0.7494 -0.3136  0.6277
43042SOL    HW136366  11.147   0.930   9.217 -1.6399  0.3025 -0.1744
43042SOL    HW236367  11.117   0.818   9.120 -3.0117  0.7139 -0.2433
43043SOL     OW36368  11.685   5.621   7.393 -0.2115 -0.2901  0.2249
43043SOL    HW136369  11.762   5.662   7.353 -0.0664  1.2272  1.9284
43043SOL    HW236370  11.612   5.678   7.368 -0.5094 -0.7185  0.1090
43044SOL     OW36371   2.438   1.135   0.799  0.4688  0.4913 -0.5190
43044SOL    HW136372   2.484   1.138   0.716 -0.4431  1.1943 -1.0216
43044SOL    HW236373   2.464   1.216   0.844  1.0155  0.0783 -0.0856
43045SOL     OW36374   3.829   4.724   5.741 -0.3958 -0.1751  0.1698
43045SOL    HW136375   3.785   4.707   5.658  1.5145  0.7896 -1.0818
43045SOL    HW236376   3.808   4.647   5.795 -0.8934 -1.2626 -1.5184
43046SOL     OW36377   2.764  12.662   9.118  0.4295 -0.9449 -0.5798
43046SOL    HW136378   2.813  12.670   9.036  1.0924 -2.7414 -0.3856
43046SOL    HW236379   2.680  12.623   9.092 -0.9626  1.9424 -0.8831
43047SOL     OW36380   6.913   1.641   3.615  0.3277 -0.5932  0.1802
43047SOL    HW136381   6.891   1.597   3.697  0.5152 -0.1507  0.4737
43047SOL    HW236382   6.950   1.572   3.560 -2.1089 -1.4579 -0.4929
43048SOL     OW36383   6.969   2.218   1.084  0.1714 -0.4074 -0.7739
43048SOL    HW136384   7.031   2.266   1.138  0.9468 -0.0334 -1.9426
43048SOL    HW236385   6.887   2.267   1.092  0.6653  0.4898 -1.0808
43049SOL     OW36386   6.561  11.209   1.944  0.7163 -0.1764  0.1115
43049SOL    HW136387   6.603  11.292   1.923  1.4200 -0.6426 -0.3734
43049SOL    HW236388   6.616  11.143   1.901  0.7659 -0.9687  1.3362
43050SOL     OW36389   3.724   4.073  10.983 -0.8756 -0.4508 -0.1221
43050SOL    HW136390   3.637   4.074  10.945  0.6796 -1.5085 -4.2980
43050SOL    HW236391   3.771   4.144  10.938  1.3644 -2.3403 -0.9856
43051SOL     OW36392   4.790  11.070  11.113  0.5095 -0.3130  0.2264
43051SOL    HW136393   4.836  11.082  11.030  0.1607  0.2036  0.1014
43051SOL    HW236394   4.833  11.131  11.173 -0.2785  0.4973 -0.0055
43052SOL     OW36395   0.995   3.734  11.654 -0.0909 -0.1819  0.2470
43052SOL    HW136396   1.009   3.752  11.747  0.2036  2.9288 -0.2955
43052SOL    HW236397   0.901   3.746  11.641  0.1320  1.2624 -0.1581
43053SOL     OW36398   5.694  12.113  11.688 -0.3016 -1.0952 -0.2389
43053SOL    HW136399   5.785  12.107  11.657 -0.2702 -1.4597 -0.0813
43053SOL    HW236400   5.702  12.126  11.782 -0.4115 -0.9739 -0.2463
43054SOL     OW36401  10.945   5.206  10.197  0.1730  0.0179  1.1158
43054SOL    HW136402  10.914   5.195  10.107 -0.1229 -1.4723  1.3805
43054SOL    HW236403  10.873   5.251  10.241 -1.1837 -2.2744  1.4057
43055SOL     OW36404   7.757   3.597   2.348  0.6851 -0.3482  0.1080
43055SOL    HW136405   7.830   3.643   2.307  1.1263  0.1285  1.3856
43055SOL    HW236406   7.790   3.508   2.363  0.8613 -0.2484  0.3100
43056SOL     OW36407   1.911   4.026  10.971 -0.3795  0.3209 -0.7038
43056SOL    HW136408   1.819   4.021  10.943 -0.2295  0.3919 -1.2256
43056SOL    HW236409   1.949   4.093  10.914 -0.2625  1.0715  0.2423
43057SOL     OW36410  11.019   9.584   4.768  0.4736  0.4798 -0.4433
43057SOL    HW136411  10.996   9.504   4.720  0.6124  0.1638  0.0162
43057SOL    HW236412  10.934   9.622   4.792  0.2959 -1.4070  2.4689
43058SOL     OW36413  12.008   0.900   3.536  0.0886 -0.0028 -0.3076
43058SOL    HW136414  12.053   0.883   3.619 -2.2822  0.3701  1.1367
43058SOL    HW236415  11.964   0.984   3.549  1.3893  1.1750 -2.7913
43059SOL     OW36416   1.688   5.520   1.897 -0.4076  0.2228 -0.2064
43059SOL    HW136417   1.625   5.535   1.826 -0.0775  0.0098 -0.5412
43059SOL    HW236418   1.761   5.475   1.856  0.3102  1.1373  0.0210
43060SOL     OW36419   6.908  12.046   5.800  0.7861  0.3806  0.1383
43060SOL    HW136420   6.894  12.141   5.799 -2.6754  0.0312  1.7006
43060SOL    HW236421   6.908  12.021   5.708  0.3367  1.7418 -0.2603
43061SOL     OW36422   3.563  11.567   7.616 -0.1639 -0.2363  0.0296
43061SOL    HW136423   3.478  11.556   7.659  0.1717 -0.6040  0.6194
43061SOL    HW236424   3.596  11.651   7.648 -0.2737 -0.1312 -0.1365
43062SOL     OW36425  11.427   0.435  10.587 -0.3418 -0.7544  0.0680
43062SOL    HW136426  11.490   0.399  10.650 -0.9621 -0.1578  1.0406
43062SOL    HW236427  11.442   0.383  10.507  3.2113  1.0346 -0.6529
43063SOL     OW36428   9.278   6.850   3.296  0.5044  0.0213  0.2534
43063SOL    HW136429   9.333   6.783   3.256  0.4467 -0.8152  1.5311
43063SOL    HW236430   9.296   6.929   3.245  3.5335  0.0205  1.1328
43064SOL     OW36431   6.912   6.361  12.132 -0.1934 -0.0450  0.6445
43064SOL    HW136432   6.918   6.421  12.206 -0.9579  0.2084  0.5028
43064SOL    HW236433   6.891   6.276  12.172  0.2684 -0.0942  0.7896
43065SOL     OW36434   6.073   6.845   8.422 -0.0768 -0.3528 -0.3464
43065SOL    HW136435   6.059   6.922   8.477  0.0577 -0.3726 -0.2860
43065SOL    HW236436   6.163   6.819   8.439  0.2154  0.0981 -1.1533
43066SOL     OW36437   0.811   6.947   4.255  0.0537 -0.3384  0.0930
43066SOL    HW136438   0.869   7.023   4.262  0.5465 -0.8089  1.4655
43066SOL    HW236439   0.730   6.982   4.218  1.8077 -0.0284 -4.0683
43067SOL     OW36440  12.303   6.729   0.340  0.4095 -0.8180 -0.7313
43067SOL    HW136441  12.307   6.822   0.361 -0.2605 -0.8062 -0.6144
43067SOL    HW236442  12.394   6.700   0.337  0.5626 -0.7275  1.7015
43068SOL     OW36443   9.579   3.359  11.305  0.1086 -0.3714 -0.0083
43068SOL    HW136444   9.619   3.350  11.219  0.4956  0.1686  0.1116
43068SOL    HW236445   9.635   3.421  11.352 -0.5979  0.0251  0.3255
43069SOL     OW36446   8.177   9.555   7.017 -0.1220  0.2708 -0.4184
43069SOL    HW136447   8.114   9.482   7.014  0.3969 -0.1591 -0.9337
43069SOL    HW236448   8.152   9.603   7.096  0.5933 -1.4453  0.9420
43070SOL     OW36449   0.119   2.671   4.462 -0.9394  0.1278  0.2652
43070SOL    HW136450   0.096   2.683   4.555 -1.4797  1.8063 -0.0433
43070SOL    HW236451   0.035   2.665   4.417 -0.6829 -0.2758 -0.1630
43071SOL     OW36452   1.213   3.174   1.689 -0.2376 -0.2967 -0.0748
43071SOL    HW136453   1.132   3.164   1.639  0.0182 -2.0437 -0.1834
43071SOL    HW236454   1.191   3.147   1.778 -0.2532  1.1778  0.4063
43072SOL     OW36455  12.057   2.294   6.009  0.0398 -0.4486  0.4367
43072SOL    HW136456  11.992   2.237   5.969  0.4157  0.0679 -0.9398
43072SOL    HW236457  12.135   2.284   5.955  0.0130  1.6282 -0.0560
43073SOL     OW36458   3.985  10.805  11.787 -0.1007  0.1785  0.2202
43073SOL    HW136459   3.927  10.857  11.842  0.2082  0.0759  0.6487
43073SOL    HW236460   4.051  10.770  11.847  0.3054  0.1541 -0.2296
43074SOL     OW36461   2.900   4.530   4.500  0.2746 -0.3629 -0.5106
43074SOL    HW136462   2.839   4.511   4.429 -1.2037 -1.3684  0.9560
43074SOL    HW236463   2.933   4.445   4.527 -0.7252 -0.2358  1.2735
43075SOL     OW36464   0.838   7.411   9.292  0.2459  0.5315  0.3055
43075SOL    HW136465   0.780   7.471   9.246  0.9637  0.9281 -0.0996
43075SOL    HW236466   0.896   7.468   9.342  0.4303  0.1478  0.5349
43076SOL     OW36467   7.647   1.300   2.474 -0.0336  0.0095 -0.2199
43076SOL    HW136468   7.558   1.333   2.481 -0.2894 -0.8811  0.9527
43076SOL    HW236469   7.638   1.209   2.449  0.6768  0.7201 -3.5872
43077SOL     OW36470  11.629   3.093   4.271 -0.0642  0.1028 -0.0381
43077SOL    HW136471  11.587   3.036   4.207 -1.6108  0.9080  0.2213
43077SOL    HW236472  11.629   3.041   4.352 -0.1312 -0.0774 -0.1524
43078SOL     OW36473  11.699   8.568   3.947  0.7554 -0.4428 -0.1999
43078SOL    HW136474  11.762   8.576   4.018  1.4453  0.0283 -0.8463
43078SOL    HW236475  11.753   8.561   3.868  0.0032 -0.5506 -0.7144
43079SOL     OW36476  11.069   5.166  10.889  0.1572  0.2524 -0.2179
43079SOL    HW136477  11.030   5.079  10.875  1.0052  0.2257 -3.2760
43079SOL    HW236478  11.018   5.225  10.834  1.3231  1.1239 -0.4227
43080SOL     OW36479   7.203   1.531   9.736  0.0449 -0.1988 -0.0898
43080SOL    HW136480   7.133   1.468   9.756  1.2079 -2.0318 -1.4730
43080SOL    HW236481   7.275   1.506   9.793  0.1245  0.6979  0.2198
43081SOL     OW36482   0.288  11.504   8.873 -0.1106 -0.3832 -0.3395
43081SOL    HW136483   0.336  11.464   8.800  0.1189 -0.2398 -0.2680
43081SOL    HW236484   0.350  11.566   8.911 -0.7358  0.6545 -0.9636
43082SOL     OW36485  10.464   2.027  11.232 -0.3938  0.4010  0.4812
43082SOL    HW136486  10.415   2.102  11.199 -1.2058 -1.1416 -2.1408
43082SOL    HW236487  10.555   2.044  11.206 -0.2937  1.1341  1.2609
43083SOL     OW36488   9.511  10.371   7.349  0.0543 -0.2146 -0.2068
43083SOL    HW136489   9.596  10.398   7.384  0.6282  0.8286 -2.2201
43083SOL    HW236490   9.526  10.360   7.255 -1.6483 -1.7483 -0.3690
43084SOL     OW36491   4.309   6.888   1.743  0.0577  0.0753  0.2032
43084SOL    HW136492   4.276   6.856   1.658 -1.1788 -1.1581  1.0914
43084SOL    HW236493   4.328   6.980   1.728 -1.0081  0.1056 -1.1979
43085SOL     OW36494   1.994   0.477   7.133  0.2225 -0.2083  0.2891
43085SOL    HW136495   1.925   0.411   7.133  0.2224 -0.2080  0.0160
43085SOL    HW236496   2.071   0.431   7.168  0.2950 -0.4303 -0.1503
43086SOL     OW36497   0.029   9.612  10.621  0.7138  0.4144  0.4798
43086SOL    HW136498  -0.035   9.620  10.692 -0.5079  0.7123 -0.6071
43086SOL    HW236499   0.106   9.659  10.653 -1.0783  3.9091  0.2195
43087SOL     OW36500   8.284  11.247   5.992 -1.2991 -0.2777 -0.4902
43087SOL    HW136501   8.270  11.340   5.973 -1.9372 -0.1691  0.4456
43087SOL    HW236502   8.264  11.239   6.085 -0.8446 -1.2793 -0.4738
43088SOL     OW36503   1.698   0.672  12.493  0.6678  0.2824 -0.3248
43088SOL    HW136504   1.728   0.666  12.403 -0.3282 -0.9018 -0.6147
43088SOL    HW236505   1.603   0.678  12.486  0.5736  0.1535  0.6335
43089SOL     OW36506   5.334  11.165   3.261  0.1703  0.5022 -0.2847
43089SOL    HW136507   5.253  11.155   3.210  1.4388  0.2572 -2.3522
43089SOL    HW236508   5.344  11.260   3.273 -0.5411  0.5227  0.2513
43090SOL     OW36509   4.786  11.808   1.035 -0.1346 -0.2706 -0.1625
43090SOL    HW136510   4.696  11.798   1.065  0.1517  0.0240  0.8475
43090SOL    HW236511   4.838  11.800   1.115  0.8107 -1.4469 -0.8562
43091SOL     OW36512   0.715   3.326   6.178 -0.7775  0.2287 -0.3721
43091SOL    HW136513   0.656   3.257   6.148 -3.8541  1.6547  1.8210
43091SOL    HW236514   0.767   3.285   6.247 -2.2966 -0.1275  0.6342
43092SOL     OW36515   2.349   8.671   0.641 -0.7532 -0.2464  0.0947
43092SOL    HW136516   2.328   8.644   0.731 -1.0192 -1.1293 -0.2144
43092SOL    HW236517   2.356   8.766   0.645 -0.7734 -0.2739  1.0477
43093SOL     OW36518  12.205   8.693   6.146  0.2912 -0.3348  0.2686
43093SOL    HW136519  12.114   8.699   6.114  0.9342 -1.4801 -1.9669
43093SOL    HW236520  12.203   8.623   6.211 -0.5095  0.0368  0.6626
43094SOL     OW36521   1.313  10.183   8.598 -0.5607  0.3515 -0.0331
43094SOL    HW136522   1.246  10.189   8.529 -0.6516  3.9713  0.1861
43094SOL    HW236523   1.270  10.133   8.668 -0.9067 -2.3158 -1.9818
43095SOL     OW36524   5.363   8.521   3.480 -0.0782 -0.0541  0.6524
43095SOL    HW136525   5.352   8.574   3.560  0.5829  1.1859 -0.0493
43095SOL    HW236526   5.384   8.585   3.412 -0.8143 -1.0704 -0.5681
43096SOL     OW36527   7.713   5.548   2.914 -0.1097  0.6915  0.3391
43096SOL    HW136528   7.701   5.480   2.848 -0.9540  1.4136 -0.2731
43096SOL    HW236529   7.800   5.531   2.950  0.3505  0.2629 -0.9242
43097SOL     OW36530   6.325   4.804   2.785 -1.0451  0.0872 -0.3423
43097SOL    HW136531   6.347   4.865   2.855  2.4982  1.5748 -2.4775
43097SOL    HW236532   6.284   4.859   2.718  1.2721  0.0438 -1.8853
43098SOL     OW36533  10.631   6.479  12.319  0.1495  0.1294  0.2363
43098SOL    HW136534  10.561   6.447  12.262  0.9340  3.4257 -2.9857
43098SOL    HW236535  10.587   6.499  12.402 -1.5911 -2.5421  0.0784
43099SOL     OW36536   1.345   4.321   6.409  0.1482  0.3153  0.0252
43099SOL    HW136537   1.338   4.407   6.368  1.0879  0.5579  0.3466
43099SOL    HW236538   1.430   4.322   6.453  0.0610 -0.6859  0.2476
43100SOL     OW36539   0.508   9.843   0.269 -0.5206  0.0109 -0.0609
43100SOL    HW136540   0.471   9.759   0.298 -0.5668  0.2316  0.5176
43100SOL    HW236541   0.452   9.869   0.196 -0.0794 -0.8062 -0.7121
43101SOL     OW36542  11.779   7.199   0.054  0.3784  0.0201 -0.0643
43101SOL    HW136543  11.785   7.105   0.037  0.4391  0.2424 -1.3435
43101SOL    HW236544  11.685   7.217   0.058  0.3644 -0.0343 -0.1445
43102SOL     OW36545   8.503   3.022   2.417  0.2545 -0.0204 -0.0033
43102SOL    HW136546   8.433   2.957   2.429  0.8024 -0.2177  2.9290
43102SOL    HW236547   8.569   2.976   2.366  0.7205 -1.9941  2.1719
43103SOL     OW36548   8.196   1.601   1.717 -0.0284  0.2798  0.0385
43103SOL    HW136549   8.206   1.686   1.675 -1.0098 -0.3202 -1.5066
43103SOL    HW236550   8.282   1.559   1.709  0.0224  0.5085 -0.6367
43104SOL     OW36551   5.088   7.672   8.819 -0.2132 -0.1961 -0.6836
43104SOL    HW136552   5.027   7.631   8.757 -0.3809 -2.7094  0.9675
43104SOL    HW236553   5.034   7.692   8.895  0.8080 -1.9793  0.6019
43105SOL     OW36554   8.678   6.662   7.923 -0.1043  0.7243  0.2047
43105SOL    HW136555   8.771   6.640   7.928 -0.3711 -0.4112  0.3466
43105SOL    HW236556   8.640   6.595   7.867 -0.8177  1.2710  0.0234
43106SOL     OW36557   7.639   1.127   3.119  0.6052  0.1750  0.0637
43106SOL    HW136558   7.724   1.169   3.110  0.5583 -0.0992 -1.9392
43106SOL    HW236559   7.643   1.051   3.061 -0.9519  0.0685  0.0495
43107SOL     OW36560   6.728  10.651  12.181  0.6763 -0.0311 -0.0798
43107SOL    HW136561   6.751  10.637  12.088 -2.4690 -1.5460 -0.7519
43107SOL    HW236562   6.650  10.705  12.178 -0.6473 -1.7362  1.5294
43108SOL     OW36563   9.435   5.681   3.716  0.0033  0.1705  0.4779
43108SOL    HW136564   9.459   5.684   3.809 -1.1061 -0.2774  0.8121
43108SOL    HW236565   9.340   5.692   3.717 -0.0647 -0.2646 -0.5745
43109SOL     OW36566  11.075  12.280  11.565 -0.4591  0.1303 -0.1375
43109SOL    HW136567  11.050  12.357  11.514 -1.3520  0.7756  1.1854
43109SOL    HW236568  11.032  12.294  11.650  0.0277 -1.4426  0.3955
43110SOL     OW36569   9.164  11.408   2.001 -0.4695  0.1563 -0.1501
43110SOL    HW136570   9.110  11.470   1.952 -1.0477  0.6260  1.0347
43110SOL    HW236571   9.195  11.459   2.077 -0.2868 -0.7835  0.4174
43111SOL     OW36572   1.886   7.072   9.302 -1.1060 -0.2751 -0.0090
43111SOL    HW136573   1.842   6.999   9.346 -1.7697 -1.3933 -2.4008
43111SOL    HW236574   1.979   7.053   9.312 -1.1905 -0.0657  1.5389
43112SOL     OW36575   8.074   2.602  10.813  0.0405  0.4210 -0.2063
43112SOL    HW136576   8.063   2.554  10.895 -0.6900  2.8901  1.2320
43112SOL    HW236577   8.057   2.537  10.745 -2.9008 -0.9457  1.6332
43113SOL     OW36578   1.726   7.642   7.341  0.3263  0.8004  0.2595
43113SOL    HW136579   1.728   7.558   7.386  1.4985  0.3686 -0.5480
43113SOL    HW236580   1.642   7.681   7.366 -2.4145 -2.4685 -2.7468
43114SOL     OW36581  11.639   7.746   6.740  0.2099  0.2927  0.0357
43114SOL    HW136582  11.589   7.698   6.675  0.8453  0.2079 -0.4055
43114SOL    HW236583  11.654   7.832   6.699 -1.7416  1.2572  1.1997
43115SOL     OW36584   3.875  11.913   3.316  0.4308  0.0528  0.2004
43115SOL    HW136585   3.934  11.929   3.389  0.4528  1.3893 -0.0821
43115SOL    HW236586   3.795  11.961   3.338  0.1443 -0.1937 -0.2787
43116SOL     OW36587   9.966   2.877   6.644 -0.3742 -0.3486 -0.0825
43116SOL    HW136588   9.971   2.800   6.587 -1.1709 -1.0502  0.7689
43116SOL    HW236589  10.002   2.948   6.591  0.6813 -1.3645 -0.7690
43117SOL     OW36590  12.070   6.344  11.194 -0.1262 -0.0674  0.2781
43117SOL    HW136591  12.042   6.355  11.285 -0.2729 -0.7156  0.3113
43117SOL    HW236592  12.023   6.413  11.146  0.5520  0.7897  0.8039
43118SOL     OW36593  11.041   7.700   1.977 -0.0981  0.0231  0.5569
43118SOL    HW136594  10.947   7.717   1.966 -0.1350  0.2638  1.2325
43118SOL    HW236595  11.049   7.605   1.968 -0.7093 -0.2493  2.5584
43119SOL     OW36596   7.080   2.623   1.190  0.6857  0.4040 -0.0558
43119SOL    HW136597   7.144   2.686   1.222  2.0250 -0.4066 -1.0458
43119SOL    HW236598   7.100   2.541   1.235  1.0425 -0.1188 -1.1088
43120SOL     OW36599   5.756  12.202   5.283 -0.0409  0.3972 -0.0986
43120SOL    HW136600   5.728  12.291   5.306 -1.2614  0.0452 -0.1718
43120SOL    HW236601   5.740  12.150   5.362 -0.1200  0.0722 -0.3268
43121SOL     OW36602   1.797   7.242   0.680  0.2678 -0.9289  0.0146
43121SOL    HW136603   1.765   7.329   0.703  0.3521 -0.9855  0.3611
43121SOL    HW236604   1.835   7.209   0.762  1.0454 -0.9387 -0.3525
43122SOL     OW36605   6.751   1.163   2.529 -0.8802 -0.3301 -0.1549
43122SOL    HW136606   6.706   1.098   2.475  1.1265 -2.2688  0.3952
43122SOL    HW236607   6.781   1.229   2.466 -1.7759 -0.6078 -0.8948
43123SOL     OW36608   4.357   6.977  11.073  0.6289 -0.1681  0.1513
43123SOL    HW136609   4.328   7.024  10.994  1.7151  1.4677  0.6725
43123SOL    HW236610   4.314   7.024  11.145 -0.5875 -1.8296  0.5694
43124SOL     OW36611   3.443  11.733   2.911 -0.3926  0.2319  0.1437
43124SOL    HW136612   3.349  11.718   2.897 -0.4204  1.4074 -1.2067
43124SOL    HW236613   3.471  11.781   2.833  1.0569  1.0915  1.1448
43125SOL     OW36614   4.918   7.733  12.708 -0.7017 -0.0461  0.1185
43125SOL    HW136615   4.887   7.643  12.711 -1.4961  0.2542  1.6116
43125SOL    HW236616   5.013   7.725  12.699 -0.8742 -1.0025 -1.0761
43126SOL     OW36617   9.750   7.223   5.037  0.4585 -0.1386  0.3110
43126SOL    HW136618   9.720   7.310   5.065  3.1760  0.6126  1.2426
43126SOL    HW236619   9.679   7.164   5.062 -0.2164  1.4416  2.4599
43127SOL     OW36620   6.993   2.688   9.862  0.2815 -0.0944  0.0043
43127SOL    HW136621   6.931   2.618   9.841  1.1347 -0.5005 -1.2234
43127SOL    HW236622   7.001   2.684   9.958 -0.8366 -0.6627  0.0987
43128SOL     OW36623   6.176  12.363   3.315 -0.7447 -0.0541  0.2356
43128SOL    HW136624   6.251  12.397   3.266 -1.1578  0.7771  0.1598
43128SOL    HW236625   6.113  12.435   3.316 -2.5226 -1.4244 -1.7093
43129SOL     OW36626   1.957  10.067  11.046  0.1371  0.4232  0.4327
43129SOL    HW136627   2.031  10.119  11.076  0.5183 -0.3400  0.8356
43129SOL    HW236628   1.980   9.977  11.069 -1.2917  0.2630  1.3545
43130SOL     OW36629   4.622   1.519   7.677 -0.2253  0.1960  0.2544
43130SOL    HW136630   4.577   1.480   7.751  1.9797 -2.0262  0.5430
43130SOL    HW236631   4.645   1.607   7.707 -1.8979  0.3955  1.0702
43131SOL     OW36632   9.594  10.077   7.607  0.3819 -0.2668  0.1573
43131SOL    HW136633   9.675  10.026   7.613  0.7001  0.3288  1.3746
43131SOL    HW236634   9.619  10.165   7.636 -0.3096  0.4201 -1.2236
43132SOL     OW36635   1.000   1.763  11.585  0.3694 -0.4180 -0.3099
43132SOL    HW136636   0.907   1.775  11.603  0.1833 -0.2515 -1.3480
43132SOL    HW236637   1.044   1.829  11.638 -0.2368  0.7711 -1.2600
43133SOL     OW36638  12.177   9.106   0.654 -0.3593 -0.1125 -0.1035
43133SOL    HW136639  12.224   9.185   0.625  1.1683 -0.7289  0.6256
43133SOL    HW236640  12.187   9.106   0.749  0.7526 -1.8340 -0.1871
43134SOL     OW36641  11.388  10.699  12.400  0.5892  0.6730 -0.3387
43134SOL    HW136642  11.481  10.680  12.411  0.3880  0.5170  1.3841
43134SOL    HW236643  11.381  10.793  12.418  0.3215  0.5357  0.3027
43135SOL     OW36644  11.777   7.615   4.321  0.0683 -0.1828  0.4984
43135SOL    HW136645  11.862   7.571   4.319 -0.0608 -0.4125 -1.0960
43135SOL    HW236646  11.718   7.558   4.271 -0.5435  0.8933 -0.0551
43136SOL     OW36647   9.679  12.580  10.573  0.6648  0.2031 -0.5507
43136SOL    HW136648   9.720  12.493  10.572  1.1453  0.4340 -0.6908
43136SOL    HW236649   9.609  12.571  10.638  0.8338 -0.2358 -0.4197
43137SOL     OW36650   1.750   7.322  11.709 -0.2438  0.0208 -0.3464
43137SOL    HW136651   1.833   7.347  11.749 -0.2651  0.0237 -0.3035
43137SOL    HW236652   1.689   7.391  11.735  0.0704  0.7837 -1.5671
43138SOL     OW36653   8.477   3.876   6.347 -0.0722 -0.0776 -0.4436
43138SOL    HW136654   8.505   3.957   6.306  0.2243  0.0214 -0.0434
43138SOL    HW236655   8.523   3.807   6.299  0.0116  0.0171 -0.4978
43139SOL     OW36656  11.971  11.360   0.522  0.1167 -0.5137  0.2208
43139SOL    HW136657  11.947  11.453   0.518 -2.4850 -1.0398  1.2830
43139SOL    HW236658  11.974  11.341   0.616  1.9016 -1.2570  0.0477
43140SOL     OW36659   6.100   0.503   3.200  0.4039 -0.1620  0.3695
43140SOL    HW136660   6.101   0.594   3.230 -1.5902  0.2434 -0.6142
43140SOL    HW236661   6.023   0.465   3.242 -0.3048 -0.6180 -1.2513
43141SOL     OW36662   7.820   9.506   2.199  0.1529 -0.4746 -0.1798
43141SOL    HW136663   7.774   9.580   2.158 -0.1181 -0.4586  0.1383
43141SOL    HW236664   7.765   9.430   2.179  1.1801 -0.8491 -1.7444
43142SOL     OW36665   2.476  11.925   5.747 -0.0773 -0.2889  0.5735
43142SOL    HW136666   2.401  11.890   5.794  0.5194  0.0534  1.8242
43142SOL    HW236667   2.458  11.906   5.654 -0.5910 -2.3118  1.0388
43143SOL     OW36668   0.329   2.268   3.369 -0.2948  0.2935  0.3289
43143SOL    HW136669   0.351   2.361   3.381 -2.5337  0.5954  3.3577
43143SOL    HW236670   0.341   2.230   3.457 -1.8382 -1.7107 -0.2702
43144SOL     OW36671   0.913   8.260   7.982 -0.1788  0.1654  0.3789
43144SOL    HW136672   0.943   8.351   7.983  0.6865 -0.0871  2.1876
43144SOL    HW236673   0.970   8.217   7.919  1.3187  0.3435  1.5405
43145SOL     OW36674   1.642   0.100   7.775  0.4215 -0.0600  0.7500
43145SOL    HW136675   1.609   0.013   7.756  2.1261 -0.5538 -0.1381
43145SOL    HW236676   1.614   0.117   7.865 -1.4357 -0.7582  0.3622
43146SOL     OW36677   7.159   7.527   9.956 -0.1352  0.7229  0.1902
43146SOL    HW136678   7.220   7.552  10.026  0.4783 -0.6077  0.1451
43146SOL    HW236679   7.080   7.499  10.002  0.3764 -0.4466  0.3927
43147SOL     OW36680   3.651   3.520   5.234  0.1886  0.1847 -0.8556
43147SOL    HW136681   3.707   3.591   5.203  0.5005  0.3001 -0.0475
43147SOL    HW236682   3.607   3.556   5.310  0.8602 -0.7090 -0.0253
43148SOL     OW36683   6.462   0.807   4.967  0.7214  0.7921 -0.2965
43148SOL    HW136684   6.425   0.734   4.917  0.0137 -0.5814  2.0592
43148SOL    HW236685   6.386   0.858   4.994  0.9242  0.5651  0.7402
43149SOL     OW36686   0.799   2.635   9.586  0.5193  0.2510  0.1256
43149SOL    HW136687   0.720   2.628   9.639  0.2591 -1.3709 -0.4294
43149SOL    HW236688   0.871   2.622   9.648  0.3128  0.5831  0.4369
43150SOL     OW36689   7.467   9.263  12.305  0.5401  0.3954 -0.2880
43150SOL    HW136690   7.474   9.168  12.289  0.4123  0.5149 -1.1124
43150SOL    HW236691   7.379   9.286  12.275  0.4303  0.7166  0.2678
43151SOL     OW36692   3.149  10.566   6.255 -0.4298  0.2359  0.1264
43151SOL    HW136693   3.179  10.476   6.245 -3.2236 -0.7021 -0.7356
43151SOL    HW236694   3.168  10.588   6.346  1.2062 -0.8319  0.0762
43152SOL     OW36695   1.372  11.143  12.620  0.0241  0.6245  0.1757
43152SOL    HW136696   1.438  11.085  12.659 -0.8379 -0.4061  0.1537
43152SOL    HW236697   1.373  11.221  12.674  0.2951  0.0531  1.0067
43153SOL     OW36698  10.248   0.690  11.044  0.0543  0.4272  0.0813
43153SOL    HW136699  10.342   0.688  11.060  0.2082 -2.8163 -0.5514
43153SOL    HW236700  10.212   0.624  11.103 -1.2783 -0.9778 -2.1422
43154SOL     OW36701   5.654   6.379   8.713  0.4428  0.0831  0.0634
43154SOL    HW136702   5.719   6.344   8.653  1.2665 -1.0971  1.5952
43154SOL    HW236703   5.631   6.306   8.770  0.5251  1.4180  1.9020
43155SOL     OW36704   6.321   3.678   8.421  0.0328 -0.3700  0.4418
43155SOL    HW136705   6.232   3.707   8.443  0.0110 -1.2155  1.5798
43155SOL    HW236706   6.308   3.596   8.374  0.2189 -0.8077  1.1423
43156SOL     OW36707  11.687   8.584   0.740 -0.1177 -0.0313 -0.1094
43156SOL    HW136708  11.592   8.579   0.750  0.0563  0.1853  2.2020
43156SOL    HW236709  11.700   8.627   0.655 -2.0954  0.8565 -0.0252
43157SOL     OW36710   3.106   2.260   7.652 -0.0708  0.4247  0.1963
43157SOL    HW136711   3.189   2.301   7.675 -0.6420  1.0623  1.1873
43157SOL    HW236712   3.084   2.297   7.566  1.0909 -0.4407 -0.5056
43158SOL     OW36713  12.656  12.032   5.826  0.1745  0.1306  0.5731
43158SOL    HW136714  12.586  11.978   5.862 -0.4014 -0.9416 -1.9443
43158SOL    HW236715  12.732  12.013   5.882 -0.0014 -3.3726 -0.1331
43159SOL     OW36716  12.224  10.580  10.057 -0.0478 -0.0569  0.2466
43159SOL    HW136717  12.240  10.514   9.990  0.1731 -2.3548  2.4116
43159SOL    HW236718  12.306  10.585  10.106 -0.7151  0.3306  1.3511
43160SOL     OW36719   2.967   0.716   0.531  0.2609  0.5859  0.2911
43160SOL    HW136720   2.980   0.638   0.586  1.5285  0.5535 -0.0253
43160SOL    HW236721   2.945   0.785   0.594  1.8899  0.5956  0.8989
43161SOL     OW36722   5.936   1.945   1.323  0.3385 -0.2883 -0.3650
43161SOL    HW136723   5.986   2.002   1.381  0.0291  0.6479 -0.9938
43161SOL    HW236724   5.987   1.865   1.317  1.2687  0.2824 -0.2200
43162SOL     OW36725  10.782   4.876   9.229  0.1469 -0.3222  0.3410
43162SOL    HW136726  10.829   4.941   9.177  1.6053 -0.6375  1.2328
43162SOL    HW236727  10.829   4.872   9.312  0.9993 -3.5008 -0.1458
43163SOL     OW36728   1.680  10.082  11.291  0.3073  0.5200 -0.2253
43163SOL    HW136729   1.752  10.020  11.302 -0.4022 -0.8207 -2.5250
43163SOL    HW236730   1.723  10.165  11.269  1.1979 -0.2840 -1.6938
43164SOL     OW36731   2.667   9.091   7.362 -0.3917  0.2432 -0.0956
43164SOL    HW136732   2.663   9.187   7.353 -1.0686  0.1907 -0.3783
43164SOL    HW236733   2.597   9.070   7.424 -0.1485 -0.0571  0.0772
43165SOL     OW36734   7.701   4.807  12.441  0.1867 -0.4106 -1.0736
43165SOL    HW136735   7.725   4.842  12.527 -0.0420  1.3717 -1.7180
43165SOL    HW236736   7.763   4.735  12.428  0.0717 -0.8850  0.6658
43166SOL     OW36737   3.650   7.596   9.584  0.2013  0.1467 -0.3360
43166SOL    HW136738   3.569   7.627   9.544 -1.1258 -1.5536  0.8413
43166SOL    HW236739   3.633   7.602   9.678  1.9300  0.8626 -0.0394
43167SOL     OW36740   0.283  10.865   6.738 -0.2439  0.4019 -0.4605
43167SOL    HW136741   0.213  10.929   6.742 -1.9652 -1.3310 -1.3214
43167SOL    HW236742   0.251  10.798   6.679  1.6488 -1.0691  0.0736
43168SOL     OW36743   7.097  10.433   2.074 -0.1536 -0.3943  0.3142
43168SOL    HW136744   7.021  10.489   2.059  0.1540  0.5976  2.1868
43168SOL    HW236745   7.170  10.482   2.036  0.3363  1.2484  3.1223
43169SOL     OW36746   9.691   8.754   7.031  0.4213  0.5940  0.3483
43169SOL    HW136747   9.620   8.817   7.043  0.8642  1.3661 -0.8776
43169SOL    HW236748   9.651   8.681   6.984  0.5905  1.4676 -1.2605
43170SOL     OW36749   6.400   3.275   1.161  0.0551 -0.0915 -0.1542
43170SOL    HW136750   6.324   3.281   1.219  0.3054  0.7527  0.0980
43170SOL    HW236751   6.374   3.325   1.083 -0.1353 -0.9025 -0.6296
43171SOL     OW36752   9.939  12.267   1.889  0.2053 -0.0497  0.2999
43171SOL    HW136753   9.846  12.286   1.876  0.2093 -0.9919 -1.4752
43171SOL    HW236754   9.944  12.171   1.893  0.8707  0.0149  2.7868
43172SOL     OW36755   3.484   4.817   8.161  0.4406 -0.1847 -0.4017
43172SOL    HW136756   3.434   4.747   8.203 -0.4002  0.8148  0.3394
43172SOL    HW236757   3.566   4.820   8.210  0.1057 -0.0592  0.1628
43173SOL     OW36758  12.314  12.459   9.857  0.0658  0.1494  1.0014
43173SOL    HW136759  12.339  12.475   9.766 -1.2093  0.2630  0.6445
43173SOL    HW236760  12.237  12.402   9.851 -0.7020  1.0393  1.9559
43174SOL     OW36761   3.822   7.981   1.240  0.2031 -0.2471 -0.4713
43174SOL    HW136762   3.752   7.915   1.236 -0.4499  0.2970  1.1290
43174SOL    HW236763   3.776   8.064   1.227  1.0003 -0.0537 -2.3205
43175SOL     OW36764   6.024   8.588   1.120  0.0875  0.5045  0.7558
43175SOL    HW136765   6.001   8.517   1.059  1.2107  0.2406  0.6256
43175SOL    HW236766   6.035   8.665   1.063  0.9270  0.3053  0.6330
43176SOL     OW36767   7.292   0.473   2.917  0.2374 -0.2947 -0.3054
43176SOL    HW136768   7.229   0.407   2.888 -0.4762 -0.0572  0.6517
43176SOL    HW236769   7.242   0.555   2.920  0.9051  0.1422 -0.6997
43177SOL     OW36770   9.215  11.605   7.319 -0.3835 -0.1736 -0.0285
43177SOL    HW136771   9.238  11.691   7.283  1.6117 -0.3180  0.7725
43177SOL    HW236772   9.262  11.543   7.263 -2.5567 -0.8475 -1.1812
43178SOL     OW36773   5.245   1.900   2.480  0.8207  0.4348  0.2653
43178SOL    HW136774   5.266   1.972   2.421  1.7978  0.7644  0.9857
43178SOL    HW236775   5.194   1.940   2.550 -0.4353  0.0241 -0.3913
43179SOL     OW36776   8.286   9.261  11.358  0.1151  0.0241 -0.4747
43179SOL    HW136777   8.227   9.236  11.429  0.1257 -0.1376 -0.5209
43179SOL    HW236778   8.341   9.330  11.395  1.7709 -1.7130  0.4816
43180SOL     OW36779   8.323  10.600   8.652 -0.0860 -0.1141  0.2058
43180SOL    HW136780   8.229  10.583   8.663  0.2449 -2.3882 -0.0115
43180SOL    HW236781   8.351  10.633   8.737 -0.9883  0.1403  0.4196
43181SOL     OW36782  12.225   0.231   4.578  0.0381 -0.4762  0.6447
43181SOL    HW136783  12.298   0.211   4.521  1.7203  1.4218  1.9869
43181SOL    HW236784  12.263   0.239   4.665 -1.8029  0.2849  1.4451
43182SOL     OW36785  10.513   0.831  10.243  0.7167 -0.1594  1.0243
43182SOL    HW136786  10.599   0.867  10.220 -0.1423  2.0706  1.0777
43182SOL    HW236787  10.503   0.850  10.336  1.0398 -2.4283  1.5882
43183SOL     OW36788  12.682   1.111   9.593  0.0362  0.4081  0.1476
43183SOL    HW136789  12.729   1.036   9.630 -0.8832  0.2408  1.0176
43183SOL    HW236790  12.617   1.134   9.659 -0.6934  1.0275 -0.7481
43184SOL     OW36791   0.640   1.565   5.330  0.7155  0.0300 -0.2429
43184SOL    HW136792   0.554   1.607   5.334 -0.0975 -1.6403  1.8968
43184SOL    HW236793   0.699   1.634   5.300 -1.2474  1.4198 -1.1152
43185SOL     OW36794   6.741  11.087  12.459  0.0280  0.7285  0.2680
43185SOL    HW136795   6.830  11.053  12.463 -0.2602 -0.0307  0.2789
43185SOL    HW236796   6.751  11.182  12.472  0.9316  0.8024 -0.8475
43186SOL     OW36797   5.029   2.010   2.628  0.2443 -0.2540 -0.0398
43186SOL    HW136798   5.023   1.918   2.654 -1.2122  0.0225  0.7286
43186SOL    HW236799   5.040   2.057   2.711 -0.6364  0.3695 -0.2593
43187SOL     OW36800  10.754   8.807   7.928  0.2788 -0.0607 -0.1280
43187SOL    HW136801  10.706   8.779   7.850  0.5028  1.1469 -0.7087
43187SOL    HW236802  10.831   8.749   7.931  1.7745  1.6526 -2.4261
43188SOL     OW36803   4.622  11.449  12.354  0.0396  0.1231  0.0120
43188SOL    HW136804   4.684  11.481  12.289 -1.0604  1.1517 -0.5705
43188SOL    HW236805   4.592  11.528  12.400  1.1043 -0.6041  2.0871
43189SOL     OW36806   9.000  12.032  11.794 -0.4217 -0.6466 -0.1739
43189SOL    HW136807   9.021  11.939  11.787  0.8925 -0.3320 -0.7022
43189SOL    HW236808   9.035  12.058  11.879 -0.3335 -0.5258 -0.2471
43190SOL     OW36809   9.139   8.309   5.912  0.6612  0.3295  0.1490
43190SOL    HW136810   9.080   8.238   5.937 -0.9362  1.5698  0.0489
43190SOL    HW236811   9.136   8.311   5.816 -1.3918  2.1272  0.1689
43191SOL     OW36812   5.958  11.087   9.312  0.2186  0.0390  0.5643
43191SOL    HW136813   5.876  11.136   9.316  0.5926  0.5854  2.0737
43191SOL    HW236814   5.937  11.003   9.352  0.9788  1.1045  3.3762
43192SOL     OW36815   7.065   7.202  11.336 -0.0844 -0.7616  0.2052
43192SOL    HW136816   7.066   7.191  11.431 -1.6558 -2.0093  0.1007
43192SOL    HW236817   7.150   7.243  11.316  0.8110 -1.6404  1.9957
43193SOL     OW36818   4.932   0.610   0.604 -0.1665 -0.1786 -0.4535
43193SOL    HW136819   4.952   0.643   0.516  5.6610 -0.3978  0.3398
43193SOL    HW236820   4.892   0.684   0.649 -1.6755  0.5030 -2.7161
43194SOL     OW36821   8.143   0.255   6.004  0.5590 -0.2156 -0.3493
43194SOL    HW136822   8.224   0.276   6.051  0.4522  1.3564 -0.8070
43194SOL    HW236823   8.167   0.254   5.912  0.0716  0.2694 -0.4904
43195SOL     OW36824  11.597   6.377   1.094  0.5421  0.0990  0.0245
43195SOL    HW136825  11.515   6.378   1.045 -0.1648 -1.2992  1.1075
43195SOL    HW236826  11.601   6.465   1.133 -0.2713  0.3015 -0.3138
43196SOL     OW36827   7.910   0.243   2.637  0.5156 -0.4857  0.0476
43196SOL    HW136828   7.913   0.264   2.730  1.1385  0.4045 -0.1669
43196SOL    HW236829   7.995   0.270   2.603  0.3117 -0.8457 -0.7741
43197SOL     OW36830  11.309   8.811  11.838 -0.4068 -0.1950  0.0734
43197SOL    HW136831  11.272   8.899  11.845 -1.6854 -0.8202  2.1515
43197SOL    HW236832  11.303   8.776  11.927  0.9933 -2.0404 -0.5016
43198SOL     OW36833   7.151   0.956   0.841 -0.3941 -0.0450 -0.0803
43198SOL    HW136834   7.245   0.944   0.849  0.0804  3.3533  0.9561
43198SOL    HW236835   7.124   0.995   0.925 -2.8945 -1.5462 -0.0716
43199SOL     OW36836   7.653   4.794   1.023 -0.5023 -0.3843  0.0879
43199SOL    HW136837   7.658   4.730   1.094  0.4880 -0.3704  0.0366
43199SOL    HW236838   7.580   4.851   1.048  0.2470  0.0291  1.4418
43200SOL     OW36839   8.364   9.977   2.469  0.0436 -0.8157  0.6046
43200SOL    HW136840   8.377  10.034   2.545  0.6982 -0.4426  0.2296
43200SOL    HW236841   8.303  10.025   2.413  1.2403 -0.0459 -0.1065
43201SOL     OW36842   3.723   2.533  10.982  0.0865 -0.0404  0.0667
43201SOL    HW136843   3.779   2.611  10.987  1.2981 -0.8530 -0.3710
43201SOL    HW236844   3.784   2.460  10.974 -1.0193 -1.0710  0.6724
43202SOL     OW36845  10.918   6.904   8.464 -0.1762  0.5907 -0.0626
43202SOL    HW136846  10.916   6.829   8.405  4.0027  0.6965 -0.6548
43202SOL    HW236847  10.874   6.875   8.543 -1.2134 -1.4143 -1.3023
43203SOL     OW36848  10.569   3.362   3.019  0.1188  0.5159 -0.7676
43203SOL    HW136849  10.595   3.438   2.967 -1.4275  2.5084  1.1427
43203SOL    HW236850  10.478   3.381   3.044  0.6274 -0.4782  2.2319
43204SOL     OW36851   8.616   7.288   4.668 -0.6276  0.0562 -0.4540
43204SOL    HW136852   8.619   7.216   4.605 -0.0267 -2.1392  1.9350
43204SOL    HW236853   8.648   7.364   4.619  0.2053 -1.6141 -2.6542
43205SOL     OW36854   4.485  11.525   6.429  0.1674  0.0963 -0.0040
43205SOL    HW136855   4.452  11.612   6.406  0.6854  0.2865 -0.0513
43205SOL    HW236856   4.422  11.464   6.391 -0.9196  0.4617  1.1310
43206SOL     OW36857   5.066   5.810   1.208  0.0782  0.1533 -0.0690
43206SOL    HW136858   4.973   5.792   1.195  0.0351 -1.1753  1.6963
43206SOL    HW236859   5.094   5.853   1.127 -2.2066  1.2041 -0.3741
43207SOL     OW36860   2.356   8.685   9.334 -0.1132  0.0341  0.1625
43207SOL    HW136861   2.371   8.631   9.412 -0.1719 -1.9455 -1.1097
43207SOL    HW236862   2.420   8.755   9.340 -1.8776  1.6335  3.3521
43208SOL     OW36863   3.627   1.838   3.322  0.5488  0.4639 -0.6799
43208SOL    HW136864   3.594   1.928   3.315  0.3920  0.5725  1.0258
43208SOL    HW236865   3.570   1.786   3.266 -0.2743  1.2095 -0.5477
43209SOL     OW36866  11.809   4.214   4.962 -0.2616  0.1260 -0.0690
43209SOL    HW136867  11.849   4.210   5.049 -1.0556 -2.1882  0.2857
43209SOL    HW236868  11.776   4.303   4.954  0.2169  0.5158  1.8227
43210SOL     OW36869   8.425   7.200   5.692 -0.1633  0.6387 -0.0610
43210SOL    HW136870   8.512   7.167   5.668 -0.3126 -0.3382  0.7023
43210SOL    HW236871   8.442   7.282   5.738  0.2858  0.9704 -0.7897
43211SOL     OW36872  12.159   6.445   6.127  0.7828 -0.8002 -0.3274
43211SOL    HW136873  12.222   6.407   6.065  2.1792 -0.0601  0.5958
43211SOL    HW236874  12.189   6.534   6.140 -0.4587 -0.4326  0.1841
43212SOL     OW36875   3.221   8.052   6.086  0.6578 -0.0013  0.2667
43212SOL    HW136876   3.237   8.001   6.166  1.1467 -0.4407 -0.1107
43212SOL    HW236877   3.270   8.007   6.018  1.1513  1.0026 -0.0633
43213SOL     OW36878  12.264   1.515   8.052  0.1705 -0.1152  0.2965
43213SOL    HW136879  12.195   1.580   8.038 -1.1470 -1.5906 -0.2249
43213SOL    HW236880  12.241   1.473   8.135  0.2789 -0.8233 -0.0316
43214SOL     OW36881   3.889   5.672   6.902  0.6011 -0.6797 -0.4259
43214SOL    HW136882   3.982   5.653   6.914  0.4393 -0.8667  0.6436
43214SOL    HW236883   3.883   5.767   6.897  0.7464 -0.6136  0.5465
43215SOL     OW36884   7.876  10.029   0.046 -0.0206  0.0431 -0.3213
43215SOL    HW136885   7.844  10.119   0.056  0.6542  0.1864  0.7510
43215SOL    HW236886   7.797   9.975   0.047 -0.3966  0.5821 -0.4418
43216SOL     OW36887   8.450   6.003  11.553 -0.5078  0.4847 -0.2175
43216SOL    HW136888   8.448   6.014  11.458  0.2252  1.0619 -0.1718
43216SOL    HW236889   8.525   6.055  11.582 -0.3625 -0.1629  0.6130
43217SOL     OW36890   2.893  12.377   6.749  0.4018  0.3792 -0.1329
43217SOL    HW136891   2.864  12.297   6.704  0.3427 -1.0941  2.3078
43217SOL    HW236892   2.971  12.350   6.797  0.5448  1.8838  0.5150
43218SOL     OW36893   1.587   1.490   6.764 -0.4451  0.3547  0.5646
43218SOL    HW136894   1.532   1.563   6.790 -0.5495 -0.2752  2.2388
43218SOL    HW236895   1.658   1.529   6.714 -1.6347  1.3360 -0.4280
43219SOL     OW36896  10.439  12.628  10.028  0.0051 -0.4749 -0.0301
43219SOL    HW136897  10.354  12.673  10.025  0.5941  0.6424 -1.1079
43219SOL    HW236898  10.474  12.647  10.114  0.1928  1.1009 -0.4300
43220SOL     OW36899   8.106   9.539   5.477  0.3055  0.3793 -0.1033
43220SOL    HW136900   8.195   9.574   5.472  0.0412  1.3983  1.6706
43220SOL    HW236901   8.095   9.512   5.568 -1.0951 -0.0276 -0.3654
43221SOL     OW36902   7.906   0.080  12.402 -0.2658 -0.7070 -0.0170
43221SOL    HW136903   7.858   0.157  12.432 -0.6418 -1.0140  0.1713
43221SOL    HW236904   7.919   0.028  12.481  0.0466 -0.8096 -0.1327
43222SOL     OW36905  11.386  11.502   5.028 -0.0781 -0.7469 -0.0124
43222SOL    HW136906  11.332  11.443   5.081 -1.3092 -0.2596 -0.6676
43222SOL    HW236907  11.327  11.530   4.958  0.9364  0.1090 -0.5390
43223SOL     OW36908   1.894  11.861  10.624 -0.0977  0.2258  0.1057
43223SOL    HW136909   1.931  11.845  10.711 -2.4842  0.3568  1.2169
43223SOL    HW236910   1.918  11.783  10.574 -2.5711 -2.1872  2.3134
43224SOL     OW36911   6.608   1.249   2.745  0.4986 -0.7067 -0.3018
43224SOL    HW136912   6.654   1.216   2.667  1.4970  1.4495 -0.7283
43224SOL    HW236913   6.545   1.311   2.710 -1.1366 -1.8761  0.4662
43225SOL     OW36914   0.201  12.017  12.506 -0.4660  0.1373 -0.9248
43225SOL    HW136915   0.277  11.978  12.463  0.5992  0.2034  0.8060
43225SOL    HW236916   0.140  11.944  12.518  0.5687 -0.5834  0.2582
43226SOL     OW36917  11.945   4.807   9.505 -0.1111  0.5939  0.3062
43226SOL    HW136918  11.906   4.843   9.584 -1.0100  0.1790  0.0643
43226SOL    HW236919  11.950   4.712   9.523 -1.3815  0.3487 -0.5689
43227SOL     OW36920   1.722   2.822   0.171 -0.3086 -0.2435  0.1631
43227SOL    HW136921   1.735   2.844   0.263 -0.3272 -0.3295  0.1861
43227SOL    HW236922   1.769   2.740   0.159  0.0164 -0.0357  0.0038
43228SOL     OW36923   4.791  12.519   8.324  0.0382  0.2443  0.6042
43228SOL    HW136924   4.774  12.477   8.240  0.2028  3.2557 -1.0944
43228SOL    HW236925   4.707  12.520   8.369 -0.8229  1.2470 -0.9225
43229SOL     OW36926  10.955   5.721   4.057 -0.3312 -0.3021  0.6593
43229SOL    HW136927  11.000   5.798   4.092  0.1805 -0.6334  0.7371
43229SOL    HW236928  10.882   5.757   4.005  0.6248  0.2719 -0.3209
43230SOL     OW36929   6.751   8.010  11.498 -0.3243 -0.1986 -0.0236
43230SOL    HW136930   6.723   8.068  11.569 -0.2962  0.0043 -0.1746
43230SOL    HW236931   6.830   7.968  11.531  0.7475  1.2574 -0.5963
43231SOL     OW36932   3.272  11.584   4.868  0.0822  0.3764  0.8223
43231SOL    HW136933   3.264  11.495   4.901  0.7917 -0.6634 -1.6032
43231SOL    HW236934   3.349  11.619   4.913  1.7622 -1.4146 -0.4573
43232SOL     OW36935   4.956   9.581  11.537 -0.1836  0.9499 -0.1589
43232SOL    HW136936   5.048   9.557  11.551  0.3786  2.3145 -1.2509
43232SOL    HW236937   4.915   9.569  11.622  0.3682 -2.1741 -0.2280
43233SOL     OW36938   1.663   9.001   9.353 -0.0767  0.0605  0.0241
43233SOL    HW136939   1.627   9.087   9.373  0.5198 -0.1260  2.0669
43233SOL    HW236940   1.722   9.017   9.278 -0.6821  1.2356 -0.2231
43234SOL     OW36941   9.745   2.047   5.842 -0.6281  0.0455  0.2860
43234SOL    HW136942   9.772   2.066   5.753 -1.0322 -0.3288  0.0799
43234SOL    HW236943   9.796   2.107   5.896 -0.2890  0.1846 -0.1850
43235SOL     OW36944   3.668   3.522   1.710  0.1580 -0.4757 -0.4041
43235SOL    HW136945   3.687   3.616   1.698  0.4641 -0.4355  0.3722
43235SOL    HW236946   3.686   3.484   1.624  1.5020 -0.0450 -0.3500
43236SOL     OW36947  12.532  12.693   0.995 -0.5759 -0.2184 -0.0285
43236SOL    HW136948  12.523  12.629   0.924  0.9479 -0.2836 -0.2070
43236SOL    HW236949  12.626  12.709   1.000 -0.7725  0.6606  1.2222
43237SOL     OW36950   0.795  12.094   2.744  0.0065 -0.4492  0.2951
43237SOL    HW136951   0.783  12.089   2.839  1.1674 -0.9209  0.4247
43237SOL    HW236952   0.857  12.165   2.731  1.3421 -1.6310  0.0313
43238SOL     OW36953  12.192   7.518   1.293  0.0587  0.5665  0.1538
43238SOL    HW136954  12.274   7.489   1.252  0.4267 -0.9979  1.8597
43238SOL    HW236955  12.164   7.443   1.346 -0.1882  2.5307  3.0423
43239SOL     OW36956   8.105   9.838  10.474  0.0200  0.2401  0.0895
43239SOL    HW136957   8.151   9.822  10.556 -1.0220  0.5047  0.7465
43239SOL    HW236958   8.135   9.769  10.415 -0.0288 -0.6074  1.0381
43240SOL     OW36959   8.612   5.766   6.955 -0.3756 -0.3725  0.2207
43240SOL    HW136960   8.699   5.727   6.944  0.6450  1.7346  0.3580
43240SOL    HW236961   8.586   5.791   6.866 -0.4105 -0.1147  0.3038
43241SOL     OW36962   6.266  12.005  10.088 -0.1807 -0.2999 -0.0808
43241SOL    HW136963   6.192  11.951  10.059  0.6347 -0.9655 -0.9431
43241SOL    HW236964   6.343  11.951  10.073  0.5345  0.5731  0.3679
43242SOL     OW36965  11.448   6.993   3.468  0.3048  0.5665 -0.2568
43242SOL    HW136966  11.423   7.078   3.431  0.6058  0.5353 -0.5310
43242SOL    HW236967  11.541   6.984   3.449 -0.2418 -1.0243 -2.6957
43243SOL     OW36968  12.139   3.657   0.211  0.2916 -0.4483 -0.1466
43243SOL    HW136969  12.084   3.730   0.240 -0.2312 -1.9551  3.0882
43243SOL    HW236970  12.119   3.647   0.118 -1.0713  2.2176 -0.2497
43244SOL     OW36971   4.197  12.102  10.535  0.1937 -0.1841 -0.6703
43244SOL    HW136972   4.188  12.130  10.444 -0.0397 -1.6468 -1.1287
43244SOL    HW236973   4.148  12.020  10.540 -0.0406  0.0196  0.8578
43245SOL     OW36974   5.122   7.732   8.036  0.5026 -0.5243 -0.0261
43245SOL    HW136975   5.087   7.696   8.117 -1.5137 -0.2941 -0.7374
43245SOL    HW236976   5.105   7.826   8.043  1.7945 -0.2742 -0.0426
43246SOL     OW36977  11.793   5.013   3.688 -0.4899  0.6616 -0.3527
43246SOL    HW136978  11.879   4.982   3.660 -0.1749  0.1931  1.0322
43246SOL    HW236979  11.737   4.936   3.681 -0.3256  0.4428  0.5806
43247SOL     OW36980   7.466   0.043   8.652 -0.1614  0.8453 -0.0777
43247SOL    HW136981   7.509  -0.042   8.663 -2.8948 -0.4956  1.4212
43247SOL    HW236982   7.483   0.067   8.561  1.3954 -0.8833 -0.3049
43248SOL     OW36983   4.810  12.419  12.356  0.4202 -0.2045 -0.0533
43248SOL    HW136984   4.721  12.388  12.339  0.0301  1.4370 -1.2294
43248SOL    HW236985   4.864  12.378  12.288  1.0205 -2.8036  1.8257
43249SOL     OW36986   2.343   7.354   6.021  0.1046  0.0598  0.3809
43249SOL    HW136987   2.249   7.372   6.024  0.1353  0.1847  3.4494
43249SOL    HW236988   2.349   7.268   5.979 -1.4976 -0.4896  1.1638
43250SOL     OW36989  10.845   2.667   4.184 -0.5812 -0.5427 -0.5649
43250SOL    HW136990  10.880   2.756   4.195  1.2557 -1.2929  0.0435
43250SOL    HW236991  10.783   2.675   4.111  0.5010  0.9869 -1.3882
43251SOL     OW36992   1.157   9.392   9.492 -0.2937  0.6120  0.0475
43251SOL    HW136993   1.108   9.422   9.415 -1.8524  0.6157  0.9922
43251SOL    HW236994   1.212   9.321   9.459 -0.2342  1.2203 -1.2422
43252SOL     OW36995   9.004  11.918   4.651  0.7697 -0.2495  0.2392
43252SOL    HW136996   8.954  11.892   4.728 -1.1638  0.9339 -0.5193
43252SOL    HW236997   9.064  11.985   4.682  0.0183  0.2046  0.7365
43253SOL     OW36998   5.102   2.356   0.814 -0.1877  0.0609 -0.2586
43253SOL    HW136999   5.133   2.307   0.737  0.8587 -0.3281  0.3899
43253SOL    HW237000   5.150   2.439   0.810  0.2273 -0.1552  0.2360
43254SOL     OW37001   7.910   4.668  12.036  0.4023 -0.5891 -0.0270
43254SOL    HW137002   7.825   4.690  12.074  0.1530  0.4025 -1.1130
43254SOL    HW237003   7.945   4.599  12.093  0.5855  1.6201  2.7617
43255SOL     OW37004   0.020   1.008   4.222  0.1559 -0.2404 -0.2434
43255SOL    HW137005  -0.048   1.059   4.266  0.8454  0.6183 -0.1389
43255SOL    HW237006   0.052   1.066   4.153 -0.1634 -1.1623 -1.1945
43256SOL     OW37007   7.384   6.350  11.374 -0.4311 -0.3101  0.4264
43256SOL    HW137008   7.480   6.342  11.378 -0.4830 -0.8264  0.6962
43256SOL    HW237009   7.368   6.444  11.378  0.0194 -0.2711  1.5602
43257SOL     OW37010  11.621   6.936   5.887 -0.1331  0.8601  0.4832
43257SOL    HW137011  11.553   6.983   5.838  0.4654  1.8128  0.5370
43257SOL    HW237012  11.581   6.852   5.909 -1.4062  1.5216  0.7849
43258SOL     OW37013   0.341   8.731   5.392 -0.3252  0.2172  0.6957
43258SOL    HW137014   0.349   8.638   5.415 -0.0047 -0.1548 -0.8340
43258SOL    HW237015   0.384   8.738   5.307 -2.7530  1.2277 -0.5193
43259SOL     OW37016   6.690   3.780   7.761 -0.5025 -0.5303  0.2673
43259SOL    HW137017   6.780   3.788   7.791  0.1394  2.4195 -2.0114
43259SOL    HW237018   6.695   3.789   7.666 -3.0709 -2.2859 -0.1524
43260SOL     OW37019   2.458   1.070  10.498  0.5551  0.8866 -0.4180
43260SOL    HW137020   2.442   0.980  10.523  0.8438  1.1449  0.7354
43260SOL    HW237021   2.448   1.071  10.402 -2.9339  0.3495 -0.1929
43261SOL     OW37022   8.224  10.105   2.271 -0.4660 -0.5652 -0.4553
43261SOL    HW137023   8.142  10.063   2.248 -1.0249  0.8688 -1.2483
43261SOL    HW237024   8.261  10.133   2.187  0.7609 -1.0748 -0.0919
43262SOL     OW37025   8.738   9.165   7.493 -0.2785 -0.0530 -0.0063
43262SOL    HW137026   8.787   9.231   7.541  0.5623 -1.5156  1.2440
43262SOL    HW237027   8.785   9.157   7.409  0.2023  0.2372  0.2280
43263SOL     OW37028   0.631   8.858  11.112 -0.1748 -0.0667  0.2300
43263SOL    HW137029   0.611   8.815  11.029  0.2543  0.9510 -0.4256
43263SOL    HW237030   0.628   8.951  11.092  2.2074  0.2074  0.7885
43264SOL     OW37031   0.893  11.684   3.612 -0.7547  0.0898 -0.0618
43264SOL    HW137032   0.862  11.706   3.525 -0.6367 -0.0894 -0.1491
43264SOL    HW237033   0.894  11.589   3.614  0.2435  0.0877 -0.2231
43265SOL     OW37034   1.005   0.115   3.250 -0.2399 -0.0387 -0.4198
43265SOL    HW137035   0.982   0.160   3.169  1.7933  0.7699 -0.6036
43265SOL    HW237036   0.943   0.150   3.315 -0.6834  0.7187 -1.2289
43266SOL     OW37037   6.374  11.280   4.606  0.3047 -0.4104  0.2174
43266SOL    HW137038   6.427  11.338   4.660  1.6628 -0.6928 -0.7448
43266SOL    HW237039   6.285  11.290   4.639  1.2155 -1.5361  3.3063
43267SOL     OW37040   8.016   2.873   2.927  0.1897  0.7774 -0.0782
43267SOL    HW137041   8.052   2.926   2.856 -1.2109  1.3937 -0.3683
43267SOL    HW237042   7.922   2.893   2.926 -0.3280 -1.4147  0.0549
43268SOL     OW37043  10.943   6.590  10.136 -0.2068  0.1413  0.0826
43268SOL    HW137044  10.962   6.673  10.092 -1.1840  0.7803  0.8121
43268SOL    HW237045  10.915   6.531  10.066 -1.9293  1.1954 -0.1583
43269SOL     OW37046   7.721   9.280   7.535 -0.1173 -1.1665 -0.1438
43269SOL    HW137047   7.723   9.185   7.522  1.2128 -1.1844  0.1167
43269SOL    HW237048   7.628   9.300   7.547 -0.2713 -2.7076  1.8222
43270SOL     OW37049   8.272   0.932   3.658  0.1551  0.6497 -0.4450
43270SOL    HW137050   8.346   0.992   3.644 -0.7485  2.1309  0.8399
43270SOL    HW237051   8.204   0.964   3.600  0.4010 -0.5446 -1.4178
43271SOL     OW37052   5.043   7.482  10.541  0.0503  0.2093 -0.0491
43271SOL    HW137053   4.998   7.550  10.490  0.6040  0.0805 -0.7113
43271SOL    HW237054   5.035   7.512  10.632 -0.8219  0.5085 -0.2142
43272SOL     OW37055   9.242  12.598   2.547 -0.7401 -0.4398  0.8351
43272SOL    HW137056   9.237  12.669   2.483 -1.9099  0.0570  1.4568
43272SOL    HW237057   9.331  12.605   2.582 -0.7199  0.5086  0.6353
43273SOL     OW37058   7.050   1.794   8.213  0.5796 -0.0707  0.2762
43273SOL    HW137059   7.119   1.854   8.242 -2.7118  3.1624  2.3538
43273SOL    HW237060   7.042   1.809   8.119  1.8351  0.4448  0.2359
43274SOL     OW37061   9.108  10.737  12.678  0.1337 -0.3157  0.1520
43274SOL    HW137062   9.041  10.684  12.635 -1.0757  1.1202  0.1586
43274SOL    HW237063   9.065  10.770  12.758  0.6999  0.9182 -0.0240
43275SOL     OW37064   8.574   7.767   2.137  0.1514  0.1126 -0.2395
43275SOL    HW137065   8.489   7.809   2.125 -0.4112 -1.1599 -0.9913
43275SOL    HW237066   8.603   7.745   2.048  0.0786 -1.6857  0.1414
43276SOL     OW37067   2.681   4.741  10.222 -0.0414  0.3038  0.0912
43276SOL    HW137068   2.627   4.775  10.151  0.8407  1.2633 -0.1344
43276SOL    HW237069   2.654   4.790  10.300  0.1724  0.4426  0.0782
43277SOL     OW37070  12.316   0.473  12.135 -0.7089 -0.4104  0.3723
43277SOL    HW137071  12.243   0.535  12.131 -0.0677  0.3149 -0.3119
43277SOL    HW237072  12.279   0.396  12.178 -1.4605  0.5159  1.4555
43278SOL     OW37073   2.839   5.654   9.422 -0.6527 -0.4154 -0.4915
43278SOL    HW137074   2.934   5.653   9.420 -0.6216  0.5125  0.2299
43278SOL    HW237075   2.813   5.574   9.376  0.4586 -0.3149 -1.3230
43279SOL     OW37076  11.256  11.481   7.762  0.8702 -0.0974 -0.1264
43279SOL    HW137077  11.272  11.509   7.852  0.5301 -0.5559  0.0773
43279SOL    HW237078  11.301  11.546   7.709  0.4996  0.5663  0.3562
43280SOL     OW37079   1.855  10.112   4.812 -0.7907 -0.0394 -0.0308
43280SOL    HW137080   1.885  10.040   4.756  1.2227  1.7646 -1.3913
43280SOL    HW237081   1.909  10.105   4.891 -0.1905  0.3036 -0.4069
43281SOL     OW37082   7.200  11.621   3.984  0.0078 -0.0897  0.4687
43281SOL    HW137083   7.235  11.539   4.018  0.3032  0.0928  0.6083
43281SOL    HW237084   7.141  11.652   4.054 -0.1659 -0.2208  0.3817
43282SOL     OW37085   4.866   1.025   9.051  0.1384  0.5582  0.1981
43282SOL    HW137086   4.903   1.028   8.963 -0.5895 -2.5052 -0.3501
43282SOL    HW237087   4.935   0.985   9.105  0.7586  2.8384  1.2098
43283SOL     OW37088   8.647   5.692   0.529 -0.3389 -0.4285  0.3937
43283SOL    HW137089   8.694   5.684   0.445 -3.9535 -0.4469 -1.8455
43283SOL    HW237090   8.656   5.785   0.552 -2.1331  0.4494 -2.0117
43284SOL     OW37091   4.609  10.637   0.365  0.8435  0.4294 -0.2912
43284SOL    HW137092   4.667  10.710   0.344  0.2154  0.7760 -0.8714
43284SOL    HW237093   4.568  10.661   0.448  0.3551  0.9229 -0.6665
43285SOL     OW37094   1.701   1.716   4.508 -0.0969 -0.5481 -0.4832
43285SOL    HW137095   1.769   1.777   4.483 -1.7084  0.7830 -1.9088
43285SOL    HW237096   1.672   1.677   4.425 -1.0883 -1.0341  0.0667
43286SOL     OW37097   8.582   9.881   6.609 -0.4888  0.5503 -0.1797
43286SOL    HW137098   8.555   9.845   6.693  1.2996 -0.6278 -0.0565
43286SOL    HW237099   8.562   9.974   6.614  0.5010  0.6857  1.9411
43287SOL     OW37100  11.588   4.895   2.493 -0.1895  0.0181  0.2758
43287SOL    HW137101  11.650   4.866   2.426  0.1578 -0.4188  0.7790
43287SOL    HW237102  11.588   4.824   2.558 -0.8317  0.2479  0.5355
43288SOL     OW37103   1.344   8.754   0.735 -0.5459 -0.4492 -0.7460
43288SOL    HW137104   1.406   8.751   0.808  0.2622  0.7387 -1.3456
43288SOL    HW237105   1.375   8.688   0.673 -0.3146 -0.3649 -0.7181
43289SOL     OW37106   7.558   5.240   0.840 -0.0292 -0.0948  0.4405
43289SOL    HW137107   7.608   5.163   0.815  0.4696  0.0288  1.0324
43289SOL    HW237108   7.476   5.232   0.792 -0.1983 -1.2601  0.8887
43290SOL     OW37109   9.863   1.547   2.888 -0.3092  0.0020 -0.2143
43290SOL    HW137110   9.897   1.507   2.968  1.1158 -0.4026 -0.9942
43290SOL    HW237111   9.907   1.632   2.884 -1.6210  0.7341  0.2556
43291SOL     OW37112   1.391   9.951   7.045 -0.4184 -0.5563 -0.3660
43291SOL    HW137113   1.313  10.006   7.043  0.8641  1.7186  3.0372
43291SOL    HW237114   1.375   9.888   7.115  0.2861 -0.8875 -0.4874
43292SOL     OW37115   0.808   6.747   5.239  0.1530 -0.5849  0.1231
43292SOL    HW137116   0.714   6.745   5.259 -0.5764 -0.0953 -2.7753
43292SOL    HW237117   0.834   6.655   5.237 -1.1473 -0.9745 -2.3440
43293SOL     OW37118   8.728   9.329  11.671 -0.6043  0.1486 -0.0725
43293SOL    HW137119   8.784   9.405  11.653 -3.2340  1.9265 -1.6615
43293SOL    HW237120   8.662   9.363  11.731 -1.3156 -1.1653 -0.0829
43294SOL     OW37121   9.026  10.332  11.767  0.5312  0.4785  0.4359
43294SOL    HW137122   8.936  10.313  11.793  0.5240  0.7503  0.6118
43294SOL    HW237123   9.050  10.410  11.817  0.2873  1.4046 -0.8500
43295SOL     OW37124   8.548   4.131   6.391 -0.2486 -0.2429 -0.1857
43295SOL    HW137125   8.568   4.145   6.483 -1.2357  3.9443 -0.4230
43295SOL    HW237126   8.620   4.173   6.343 -1.4377  0.7083 -1.2153
43296SOL     OW37127  12.363   4.894   2.260  0.3341 -0.2067 -0.2104
43296SOL    HW137128  12.432   4.904   2.195  0.4963 -1.1813 -0.2022
43296SOL    HW237129  12.407   4.859   2.338  0.0420  0.3726  0.2284
43297SOL     OW37130   1.296  11.250   0.855 -0.1608  0.4064  0.0222
43297SOL    HW137131   1.219  11.273   0.906  0.3146  1.3586  0.3248
43297SOL    HW237132   1.265  11.251   0.764  0.1051  3.8006 -0.1745
43298SOL     OW37133   3.931   0.566   6.555  0.2832 -0.3252  0.0519
43298SOL    HW137134   3.902   0.501   6.619  1.9209 -1.6674 -0.4949
43298SOL    HW237135   3.947   0.645   6.606  0.0751 -0.9100  1.0454
43299SOL     OW37136  10.147   9.193   6.755 -0.2604 -0.2889  0.4068
43299SOL    HW137137  10.084   9.129   6.789 -2.0211  1.0906 -0.1187
43299SOL    HW237138  10.145   9.264   6.819  1.4731 -0.5971  0.8443
43300SOL     OW37139   7.198   9.388   9.938  0.3200 -0.0071 -0.2191
43300SOL    HW137140   7.243   9.465   9.973 -1.6208  1.4200 -0.7024
43300SOL    HW237141   7.221   9.388   9.845  2.1831 -1.4308  0.1761
43301SOL     OW37142   4.023   4.388   8.752  0.3807  0.3825  1.0176
43301SOL    HW137143   3.968   4.340   8.814 -0.6799  1.0627  0.6345
43301SOL    HW237144   4.024   4.333   8.673 -1.4844  1.2862  0.2980
43302SOL     OW37145   5.555  10.609   7.787 -0.0054 -0.5646 -0.1480
43302SOL    HW137146   5.641  10.597   7.828 -0.7458  0.5519  1.8618
43302SOL    HW237147   5.545  10.704   7.781  0.4703 -0.5786 -4.0457
43303SOL     OW37148   0.680   4.026   7.206 -0.3094 -0.5256  0.0904
43303SOL    HW137149   0.636   3.994   7.127  0.7968 -1.3385 -0.2210
43303SOL    HW237150   0.631   3.986   7.278 -0.4189 -0.9941 -0.2358
43304SOL     OW37151   5.193   1.483   1.665 -0.1954  0.6608 -0.1005
43304SOL    HW137152   5.227   1.573   1.670 -1.6200  1.2606 -0.6893
43304SOL    HW237153   5.171   1.471   1.572  3.6046 -1.7414 -0.8931
43305SOL     OW37154   4.735  11.510   1.288  0.1274  0.3167 -0.0410
43305SOL    HW137155   4.812  11.533   1.236  0.4809  0.5850  0.5914
43305SOL    HW237156   4.750  11.419   1.314 -0.2514  0.0418 -0.7450
43306SOL     OW37157  11.674   9.533  12.012  0.0289  0.0354 -0.1184
43306SOL    HW137158  11.611   9.588  12.058 -0.1111 -1.8358  2.0686
43306SOL    HW237159  11.758   9.552  12.054  0.8985  1.8301 -2.4048
43307SOL     OW37160  12.110  10.361   3.671  0.2473  0.1019  0.1222
43307SOL    HW137161  12.020  10.380   3.645  0.0285 -1.1954 -0.1419
43307SOL    HW237162  12.108  10.270   3.700  1.3216  0.2951  0.8663
43308SOL     OW37163  11.706  10.055   2.859 -0.4595  0.2277 -0.6896
43308SOL    HW137164  11.660   9.972   2.871  2.7171 -1.8029 -1.3235
43308SOL    HW237165  11.699  10.099   2.943 -0.8835 -1.4296  0.1774
43309SOL     OW37166   1.495   4.013   6.279 -0.3015  0.2842  0.3201
43309SOL    HW137167   1.538   4.070   6.216  0.2780 -0.1944  0.2806
43309SOL    HW237168   1.407   4.051   6.288 -0.3702  0.4143 -0.7031
43310SOL     OW37169   9.956   1.312   6.882 -0.1390 -0.2379 -0.2168
43310SOL    HW137170   9.965   1.265   6.965 -0.8870  0.8832  0.5225
43310SOL    HW237171  10.043   1.307   6.843  0.0973 -1.2197  0.3970
43311SOL     OW37172   3.675  11.121   6.802  0.5712  0.3391  0.1312
43311SOL    HW137173   3.667  11.074   6.719  1.7572 -0.8653  0.6573
43311SOL    HW237174   3.697  11.211   6.778  1.9535 -0.2455 -0.8403
43312SOL     OW37175   1.831   7.601  11.590 -0.2443  0.0477 -0.2237
43312SOL    HW137176   1.784   7.602  11.673 -0.6915  1.3237 -0.4637
43312SOL    HW237177   1.764   7.619  11.524  0.4869  1.7129 -0.5867
43313SOL     OW37178   7.199   8.370   6.523  0.5854 -0.3060 -0.2989
43313SOL    HW137179   7.149   8.422   6.459 -1.9937  0.1122  1.8861
43313SOL    HW237180   7.285   8.412   6.526  0.1043  0.9087 -1.9870
43314SOL     OW37181   7.284   2.716   6.184  0.1739 -0.2052  0.0343
43314SOL    HW137182   7.312   2.772   6.256  0.3001 -0.3082  0.0653
43314SOL    HW237183   7.263   2.632   6.226  0.5979 -0.3803 -0.0956
43315SOL     OW37184   4.076   3.822   0.978 -0.3762 -0.3370  0.6775
43315SOL    HW137185   4.055   3.913   0.958 -1.4397 -0.4627  1.1301
43315SOL    HW237186   4.146   3.827   1.043 -0.3089  0.1518  0.5721
43316SOL     OW37187  10.491  12.544   7.385  0.1626  0.1615  0.1848
43316SOL    HW137188  10.541  12.626   7.389 -0.9853  0.8579  0.8307
43316SOL    HW237189  10.509  12.500   7.467  0.6650 -0.1763 -0.1008
43317SOL     OW37190   1.702   8.562   1.752 -0.5607  0.4687  0.2922
43317SOL    HW137191   1.651   8.568   1.833  0.8548  0.7196  1.1994
43317SOL    HW237192   1.736   8.650   1.738 -1.2138  0.5569 -0.8905
43318SOL     OW37193  12.357  10.101   2.300  0.2732  0.2347 -0.1335
43318SOL    HW137194  12.445  10.108   2.337  0.6659 -0.1793 -0.9685
43318SOL    HW237195  12.343  10.185   2.255  0.4723  0.0731 -0.4965
43319SOL     OW37196   3.310   7.729   0.900 -0.3722  0.3144  0.1313
43319SOL    HW137197   3.343   7.819   0.892  1.7713 -0.5376 -1.8056
43319SOL    HW237198   3.360   7.691   0.972 -0.6409  0.4042  0.3677
43320SOL     OW37199   7.529   8.467   7.461 -0.3230  0.0699  0.9183
43320SOL    HW137200   7.594   8.536   7.461  1.1709 -1.2681  2.2614
43320SOL    HW237201   7.564   8.401   7.401 -1.3454  0.1143  0.2471
43321SOL     OW37202  11.922  10.820   9.482 -0.3023  0.3422 -0.0601
43321SOL    HW137203  11.835  10.815   9.441 -0.0129 -1.6220 -0.5368
43321SOL    HW237204  11.907  10.794   9.573 -0.0718 -1.2645 -0.4474
43322SOL     OW37205   8.468   0.623  10.915 -0.4545 -0.8073 -0.3016
43322SOL    HW137206   8.447   0.671  10.835 -0.2234 -2.3128 -1.3257
43322SOL    HW237207   8.403   0.553  10.918 -1.5562  0.2387  1.8153
43323SOL     OW37208   9.670  11.217   1.884  0.4003 -0.5411 -0.1640
43323SOL    HW137209   9.669  11.139   1.828 -0.9881 -0.3423 -0.4517
43323SOL    HW237210   9.592  11.208   1.938  0.2097  0.6741 -0.2240
43324SOL     OW37211   8.698   8.875   5.249 -0.0727 -0.6398 -0.4729
43324SOL    HW137212   8.751   8.810   5.295 -0.9033 -0.0462  1.4447
43324SOL    HW237213   8.611   8.865   5.287 -0.2635  1.4139 -0.2809
43325SOL     OW37214   7.811   9.047   2.772 -0.0578  0.8268 -0.7330
43325SOL    HW137215   7.899   9.019   2.798 -0.1194 -0.3676 -1.7240
43325SOL    HW237216   7.826   9.111   2.703  0.0890  3.5990  1.6486
43326SOL     OW37217  12.335  11.189   8.377  0.1097 -0.3523 -0.2611
43326SOL    HW137218  12.345  11.244   8.299  0.2387  0.8949  0.6031
43326SOL    HW237219  12.276  11.119   8.349 -0.0375  0.2004 -1.4127
43327SOL     OW37220   5.915   5.843   7.814  0.1892 -0.4612 -0.1864
43327SOL    HW137221   5.961   5.849   7.898  1.9735  0.0853 -1.1308
43327SOL    HW237222   5.876   5.929   7.801 -1.0628 -0.8964  0.5779
43328SOL     OW37223   0.528   6.683   2.927  0.0490  0.5840  0.2106
43328SOL    HW137224   0.601   6.714   2.874  0.1104 -0.5333 -0.3906
43328SOL    HW237225   0.460   6.662   2.863  0.0058 -0.4662  0.5841
43329SOL     OW37226   6.877   3.665   1.327  0.0203 -0.3416 -0.1930
43329SOL    HW137227   6.864   3.757   1.350 -1.3961 -0.8126  1.0106
43329SOL    HW237228   6.955   3.639   1.376  1.0333  0.4533 -1.3270
43330SOL     OW37229   9.993   1.090   9.265 -0.1619  0.0017  0.0149
43330SOL    HW137230   9.921   1.032   9.238 -0.6023 -0.0653  1.2942
43330SOL    HW237231  10.060   1.030   9.299  1.4170 -0.1396 -2.9379
43331SOL     OW37232   1.071  10.216   0.502 -0.0170  0.3470 -0.0930
43331SOL    HW137233   1.115  10.268   0.569  0.6838 -0.8382  0.4057
43331SOL    HW237234   1.143  10.172   0.456 -0.5884 -0.1600 -0.5096
43332SOL     OW37235   2.443   9.907   9.940 -0.5798  0.1777  0.0600
43332SOL    HW137236   2.351   9.899   9.917 -0.2522  1.4046 -1.9349
43332SOL    HW237237   2.450   9.992   9.984 -0.4871 -0.2391  0.8848
43333SOL     OW37238   6.364   6.507  11.157 -0.1860  0.6904 -0.0598
43333SOL    HW137239   6.274   6.524  11.186 -0.4673  1.0180 -1.0629
43333SOL    HW237240   6.407   6.467  11.232 -1.1901  0.4915  0.4217
43334SOL     OW37241  10.018   7.295   4.494 -0.3818  0.0910  0.3809
43334SOL    HW137242  10.001   7.202   4.480 -2.2207  0.6159 -1.3292
43334SOL    HW237243  10.004   7.308   4.588  3.8276 -1.9952  1.5342
43335SOL     OW37244  10.864   9.947   0.317  0.1668 -0.2083  0.2937
43335SOL    HW137245  10.825   9.948   0.405 -0.1952 -1.5819  0.1639
43335SOL    HW237246  10.830  10.026   0.275 -1.5029 -0.7432  0.5953
43336SOL     OW37247   4.780  10.646   0.076  0.0130 -0.3328  0.1890
43336SOL    HW137248   4.824  10.635   0.160 -0.4858  0.4278  0.5582
43336SOL    HW237249   4.737  10.562   0.061 -0.2401 -0.3348  0.8961
43337SOL     OW37250  11.307   7.388  10.432 -0.2635 -0.2107  0.5125
43337SOL    HW137251  11.354   7.461  10.471 -0.5805  2.0474 -2.9164
43337SOL    HW237252  11.233   7.373  10.489 -0.1062  2.0822  1.4120
43338SOL     OW37253   8.810   7.048  10.627 -0.4258  0.2070  0.6507
43338SOL    HW137254   8.877   7.081  10.688 -0.1070  0.5142  0.1424
43338SOL    HW237255   8.748   7.120  10.618  0.5745  0.9364 -0.9075
43339SOL     OW37256   2.882  10.656   9.891  0.8289 -0.0139 -0.0471
43339SOL    HW137257   2.883  10.597   9.815  0.5194 -1.0100  0.7061
43339SOL    HW237258   2.861  10.742   9.854 -0.8706 -0.7561 -0.9151
43340SOL     OW37259   4.613   4.363  11.491  0.0648 -0.1548  0.4833
43340SOL    HW137260   4.640   4.294  11.430  1.0664 -0.8652  1.6719
43340SOL    HW237261   4.674   4.435  11.474  0.9897 -0.7169  1.2605
43341SOL     OW37262   7.139   7.634   6.927  0.2669 -1.1374 -0.5206
43341SOL    HW137263   7.173   7.592   7.006 -1.9782 -0.2246  1.0275
43341SOL    HW237264   7.174   7.723   6.930 -2.7702  0.1751  1.6820
43342SOL     OW37265   7.975   8.679   6.142  0.2203 -0.6498 -0.7520
43342SOL    HW137266   7.966   8.620   6.067 -2.4580 -0.4327 -0.7160
43342SOL    HW237267   8.021   8.755   6.107  1.3454 -1.6258 -1.4663
43343SOL     OW37268   5.102  12.365   5.866 -0.1621 -0.3016  0.1901
43343SOL    HW137269   5.141  12.356   5.953 -0.2084 -0.9804  0.1430
43343SOL    HW237270   5.136  12.291   5.817  0.3746  0.4259 -0.5730
43344SOL     OW37271   4.260  10.858   6.361  0.2048 -0.1221  1.4301
43344SOL    HW137272   4.330  10.904   6.315 -0.6971  0.5846  0.7216
43344SOL    HW237273   4.212  10.927   6.406 -1.4084 -0.2729  0.0310
43345SOL     OW37274   3.166  11.337   1.428  0.4367  0.2936 -0.1410
43345SOL    HW137275   3.116  11.350   1.348  0.3517  2.6235  0.2151
43345SOL    HW237276   3.107  11.286   1.485 -0.3765  0.4978 -0.7755
43346SOL     OW37277   0.997   5.520   1.189  0.2958 -0.2812  0.2222
43346SOL    HW137278   0.926   5.572   1.225  0.2641  0.2168 -0.5367
43346SOL    HW237279   0.956   5.467   1.120  0.7400  0.4202 -0.6044
43347SOL     OW37280   5.806  10.951   6.703  0.0811 -0.3245  0.0541
43347SOL    HW137281   5.818  10.892   6.777 -0.3630 -0.2000  0.2333
43347SOL    HW237282   5.894  10.977   6.677  0.3176 -1.5217 -0.3991
43348SOL     OW37283   4.774   5.227   0.895  0.1216 -0.5716  0.2299
43348SOL    HW137284   4.724   5.161   0.943 -0.7104 -0.4810 -0.4739
43348SOL    HW237285   4.827   5.177   0.833 -1.1209 -0.5846 -0.8750
43349SOL     OW37286   4.747   8.106   5.920  0.0870 -0.5207 -0.2042
43349SOL    HW137287   4.757   8.196   5.889 -0.3250 -1.2496 -2.7022
43349SOL    HW237288   4.717   8.114   6.010  2.1551  1.8065  0.3921
43350SOL     OW37289   3.942  12.258   2.116 -0.7237 -0.0733  0.1127
43350SOL    HW137290   3.883  12.320   2.074  1.0971  1.3142 -0.5637
43350SOL    HW237291   3.906  12.245   2.203 -2.4648  0.0502 -0.5580
43351SOL     OW37292  12.555   6.536   6.914 -0.5559 -0.3208 -0.6754
43351SOL    HW137293  12.559   6.630   6.928  1.2392 -0.7914  3.5041
43351SOL    HW237294  12.461   6.516   6.914 -0.9985  1.2059  2.0613
43352SOL     OW37295   3.788   3.059   4.287 -0.9207 -0.1266 -0.2619
43352SOL    HW137296   3.802   3.017   4.372  0.5355  1.0545  0.1325
43352SOL    HW237297   3.790   3.153   4.307 -2.3991  0.1704 -1.3462
43353SOL     OW37298   0.645   5.262   7.113  0.1809 -0.2271  0.1982
43353SOL    HW137299   0.619   5.187   7.166  2.4751 -1.3903 -0.1903
43353SOL    HW237300   0.598   5.336   7.151 -0.5458 -1.4973  1.9096
43354SOL     OW37301   3.854  11.890   2.661  0.1687 -0.3938 -0.2904
43354SOL    HW137302   3.906  11.855   2.734  0.7258  1.4739  0.2900
43354SOL    HW237303   3.888  11.979   2.649 -3.1557  1.1333  0.4033
43355SOL     OW37304   4.144   8.338   1.752 -0.1283  0.7502  0.1131
43355SOL    HW137305   4.137   8.305   1.663 -3.5697 -0.1469  0.6074
43355SOL    HW237306   4.097   8.421   1.751 -0.9540  0.3203  1.2556
43356SOL     OW37307   1.482   9.938   0.031 -0.4531 -0.4292  0.2965
43356SOL    HW137308   1.429  10.012   0.002 -1.4589 -0.8365  1.0039
43356SOL    HW237309   1.565   9.977   0.057 -0.4392  0.2528 -0.7222
43357SOL     OW37310   8.482   7.036   1.806  0.5078 -0.4232  0.1895
43357SOL    HW137311   8.446   7.112   1.851  1.4950  1.1352 -1.4778
43357SOL    HW237312   8.576   7.053   1.802  0.5103 -0.6758 -2.0130
43358SOL     OW37313   5.328  12.437   9.359 -0.4262 -0.9019  0.4962
43358SOL    HW137314   5.286  12.451   9.444  0.7684  0.8912  0.8363
43358SOL    HW237315   5.421  12.428   9.378  0.2847  2.3921 -0.7443
43359SOL     OW37316   4.591   5.507   5.394 -0.3287 -0.0932 -0.4496
43359SOL    HW137317   4.531   5.573   5.429 -0.6655 -0.3681 -0.4930
43359SOL    HW237318   4.593   5.439   5.461 -0.1897 -0.1567 -0.5184
43360SOL     OW37319   3.566  10.104   1.024  0.0385 -0.8175 -0.2388
43360SOL    HW137320   3.590  10.138   0.938  0.3693 -1.1532 -0.2827
43360SOL    HW237321   3.485  10.055   1.009 -0.2422 -0.3580 -0.2422
43361SOL     OW37322   3.810   0.808   4.448  0.2437 -0.1039  0.7459
43361SOL    HW137323   3.814   0.860   4.528  1.7185 -0.0300  0.6560
43361SOL    HW237324   3.767   0.727   4.473  0.8880 -0.1696  1.6725
43362SOL     OW37325  11.296   6.875   2.482 -0.2511 -0.4904  0.1833
43362SOL    HW137326  11.293   6.956   2.430 -0.4441 -0.8789 -0.4207
43362SOL    HW237327  11.205   6.860   2.508 -0.0601  0.0669  1.2224
43363SOL     OW37328  12.599   5.909  12.497 -0.2718 -0.9620  0.2105
43363SOL    HW137329  12.686   5.944  12.514 -0.4197 -0.0795 -0.7430
43363SOL    HW237330  12.541   5.985  12.502 -0.4230 -0.6737 -3.3897
43364SOL     OW37331   6.042   4.383   0.587 -0.4241 -0.0220  0.0746
43364SOL    HW137332   6.057   4.364   0.494 -0.6269 -0.2618  0.0921
43364SOL    HW237333   6.120   4.433   0.613 -0.8716  1.0132 -0.4991
43365SOL     OW37334   3.381  12.580   5.145 -0.1980  0.2704 -0.0820
43365SOL    HW137335   3.383  12.578   5.049 -1.7087  0.9815 -0.1569
43365SOL    HW237336   3.425  12.662   5.168 -0.3022  0.3528 -0.1792
43366SOL     OW37337   0.014   1.331   9.282  0.0608 -0.2268 -0.0782
43366SOL    HW137338   0.044   1.244   9.256 -0.0866 -0.2036 -0.3295
43366SOL    HW237339  -0.079   1.319   9.302  0.3002 -0.3685  1.0199
43367SOL     OW37340   3.723   6.168   7.710  0.4363  0.1251  0.2268
43367SOL    HW137341   3.743   6.128   7.794  0.5150  1.9008  1.0904
43367SOL    HW237342   3.642   6.216   7.725 -0.3758 -0.7394 -1.1415
43368SOL     OW37343  11.971  12.345   7.750 -0.2512 -0.2231  0.3822
43368SOL    HW137344  12.043  12.324   7.691 -1.1194 -0.6285 -0.5485
43368SOL    HW237345  11.983  12.287   7.825  1.0375  0.5135  0.7758
43369SOL     OW37346   5.143  10.501  10.999  0.0128 -0.0583  0.6685
43369SOL    HW137347   5.062  10.489  10.949  0.7481 -0.2977 -0.4998
43369SOL    HW237348   5.212  10.470  10.941  1.1291  1.6999  0.9621
43370SOL     OW37349  12.638   8.430   0.382  0.3326 -0.3354  0.1579
43370SOL    HW137350  12.629   8.463   0.472  2.0353  1.3547 -0.2230
43370SOL    HW237351  12.552   8.443   0.343 -0.4968 -1.2875  1.5776
43371SOL     OW37352   5.518   4.406   9.300  0.5129  0.2806  0.0961
43371SOL    HW137353   5.505   4.337   9.234 -3.7285  1.3114 -0.3965
43371SOL    HW237354   5.582   4.465   9.260 -0.9878  0.2266 -2.6539
43372SOL     OW37355   2.203   4.859   3.595 -0.3687 -0.3032  0.5425
43372SOL    HW137356   2.206   4.887   3.503  1.7756 -0.0970  0.6220
43372SOL    HW237357   2.253   4.777   3.597 -0.0005 -0.0687  1.5760
43373SOL     OW37358   6.195   4.229   1.693 -0.3635  0.6053  0.5647
43373SOL    HW137359   6.158   4.266   1.613 -0.5192 -0.2427  0.2300
43373SOL    HW237360   6.289   4.245   1.686 -0.0803 -1.2826 -0.8317
43374SOL     OW37361   5.116   6.076   2.999  0.5691 -0.5251  0.1640
43374SOL    HW137362   5.177   6.147   2.978  0.8111 -0.7857 -0.0097
43374SOL    HW237363   5.126   6.013   2.928 -0.3213 -0.3034 -0.1763
43375SOL     OW37364   7.635   7.486   8.241  0.6088 -0.0243 -0.4405
43375SOL    HW137365   7.698   7.547   8.204 -1.3229  1.1480 -2.0241
43375SOL    HW237366   7.592   7.535   8.311  0.4057 -0.2662 -0.3933
43376SOL     OW37367   7.810   4.513   6.754 -0.8547 -0.8339  0.1565
43376SOL    HW137368   7.742   4.511   6.821 -1.1217  2.4680  0.1601
43376SOL    HW237369   7.762   4.507   6.671 -0.9510 -0.6035  0.1950
43377SOL     OW37370  11.632   3.702   0.458  0.2151 -0.5909 -0.2192
43377SOL    HW137371  11.564   3.672   0.518  0.1858 -1.5351 -0.6994
43377SOL    HW237372  11.591   3.775   0.410  0.8189  1.3919  2.0681
43378SOL     OW37373   6.912   7.541   2.783  0.2765  0.0140  0.3869
43378SOL    HW137374   6.844   7.517   2.719 -0.7423  0.4114  1.2833
43378SOL    HW237375   6.965   7.462   2.792 -0.3141 -0.4407 -0.0303
43379SOL     OW37376   8.488   9.675  10.281  0.8107  0.0209  0.0166
43379SOL    HW137377   8.501   9.699  10.372 -3.4266  0.7958  0.6341
43379SOL    HW237378   8.461   9.756  10.238  0.2930 -0.8323 -1.3519
43380SOL     OW37379   5.386   6.999   9.305  0.1799 -0.4663 -0.4707
43380SOL    HW137380   5.399   6.913   9.344  0.4904 -0.9888 -1.6918
43380SOL    HW237381   5.444   7.001   9.229 -1.2624  0.0480 -1.6179
43381SOL     OW37382  11.006  10.018  11.159  0.7646 -0.0074  0.1002
43381SOL    HW137383  11.017   9.974  11.243  0.6669  0.9701  0.6366
43381SOL    HW237384  10.984   9.947  11.098 -0.5265 -0.5787  1.1609
43382SOL     OW37385   4.753   5.499   6.790 -0.4572 -0.7985 -0.6173
43382SOL    HW137386   4.793   5.467   6.871 -0.8341 -0.5605 -0.3345
43382SOL    HW237387   4.668   5.455   6.785  0.0178 -1.6659 -1.4583
43383SOL     OW37388  11.450   5.514   2.530 -0.6137 -0.0334  0.4199
43383SOL    HW137389  11.428   5.455   2.459 -0.7520  1.4568 -0.8391
43383SOL    HW237390  11.488   5.458   2.597  1.2992 -1.3052 -1.5785
43384SOL     OW37391  10.665  11.428  11.587  0.4030 -0.4987  0.6544
43384SOL    HW137392  10.616  11.458  11.664  0.4100 -0.5178  0.6663
43384SOL    HW237393  10.637  11.337  11.575 -0.3240 -0.2051  0.0622
43385SOL     OW37394  10.091   6.139   0.161  0.7656  0.0760 -0.1989
43385SOL    HW137395  10.111   6.210   0.101  0.5947  0.6684  0.4317
43385SOL    HW237396  10.047   6.181   0.235  0.3314 -0.7326  0.0180
43386SOL     OW37397   0.993   8.006   6.026 -0.2426 -0.7117  0.0642
43386SOL    HW137398   0.935   7.948   6.075 -0.1070 -0.2004  0.8491
43386SOL    HW237399   1.081   7.976   6.049 -0.1657  0.0072  0.7424
43387SOL     OW37400   5.839   3.667   8.828 -0.2738  0.3706 -0.4215
43387SOL    HW137401   5.749   3.655   8.858 -0.4168 -0.3565 -1.1046
43387SOL    HW237402   5.846   3.613   8.749  0.9381 -0.0675 -0.0483
43388SOL     OW37403   6.422   9.824  10.358 -0.3928 -0.3611 -0.4821
43388SOL    HW137404   6.328   9.835  10.367 -0.4456  0.9243 -2.1518
43388SOL    HW237405   6.442   9.854  10.269  1.5230 -1.0638 -0.3386
43389SOL     OW37406  10.300   8.677   4.415 -0.3952  0.4768 -0.0983
43389SOL    HW137407  10.256   8.592   4.420 -3.1316  1.4545 -3.2823
43389SOL    HW237408  10.242   8.737   4.462  0.2238  0.9951  0.0187
43390SOL     OW37409   1.949  10.446   4.924  0.3480  0.0902  0.0129
43390SOL    HW137410   1.887  10.411   4.861 -1.2803  0.4727  1.3245
43390SOL    HW237411   1.982  10.368   4.970 -2.7507 -0.0104  2.4522
43391SOL     OW37412   2.638   2.718   2.756  0.3492 -0.0574 -0.3626
43391SOL    HW137413   2.559   2.711   2.701  0.1286  1.0850 -0.2262
43391SOL    HW237414   2.614   2.675   2.838 -0.8544  1.8877  0.3972
43392SOL     OW37415   7.334   1.756   1.662 -0.0158  0.1633 -0.2530
43392SOL    HW137416   7.329   1.774   1.568 -0.1856  1.6025  0.0055
43392SOL    HW237417   7.398   1.819   1.696 -0.5384  0.2106  0.7065
43393SOL     OW37418   9.942   0.934   4.747 -0.3817 -0.2835 -0.7528
43393SOL    HW137419   9.894   0.879   4.686 -3.3718  2.3487 -1.0312
43393SOL    HW237420   9.936   0.889   4.831  0.4343 -2.0462 -1.5790
43394SOL     OW37421   4.498   8.686   2.282 -0.0212 -0.0841 -0.2693
43394SOL    HW137422   4.459   8.609   2.240 -0.3617 -0.1283  0.1226
43394SOL    HW237423   4.460   8.761   2.235  0.1071 -0.1500 -0.4768
43395SOL     OW37424   6.095   6.761   0.501  0.1659 -0.4811  0.3832
43395SOL    HW137425   6.019   6.708   0.475  0.3106 -0.4242 -0.1688
43395SOL    HW237426   6.061   6.817   0.571 -0.7707  0.7481 -1.0059
43396SOL     OW37427   2.323   5.943  12.269  0.1431 -0.2338 -0.2160
43396SOL    HW137428   2.296   5.946  12.178 -1.1668 -2.1218  0.0317
43396SOL    HW237429   2.359   5.855  12.280 -0.8715 -0.5035  1.3334
43397SOL     OW37430   7.899   7.100   0.227  0.1968 -0.2870 -0.0053
43397SOL    HW137431   7.939   7.016   0.250 -0.6525 -0.5339  0.6169
43397SOL    HW237432   7.808   7.079   0.209  0.2678  0.3068 -1.1626
43398SOL     OW37433   2.522   3.233   2.922  0.2179 -0.1106  0.7740
43398SOL    HW137434   2.610   3.226   2.886  0.0507  0.6993  0.1535
43398SOL    HW237435   2.466   3.198   2.853  0.1058 -1.5308  1.5528
43399SOL     OW37436   6.560   0.394   6.733  0.0058  0.2985 -0.6274
43399SOL    HW137437   6.550   0.378   6.640 -0.5653  1.9521 -0.8915
43399SOL    HW237438   6.655   0.397   6.747  0.0989 -0.6096 -1.0114
43400SOL     OW37439   3.027   6.167  11.171  0.2279  0.2190  0.2582
43400SOL    HW137440   3.111   6.205  11.199  0.2849  0.8362 -0.6911
43400SOL    HW237441   3.010   6.097  11.234  0.7168  1.0522  1.3495
43401SOL     OW37442   4.967  10.341   4.574 -0.1358  0.0802  0.1728
43401SOL    HW137443   5.013  10.293   4.643 -1.7619 -1.6693  0.1308
43401SOL    HW237444   4.921  10.274   4.525 -3.6106  1.7006  0.8791
43402SOL     OW37445   3.960  10.181  11.784 -0.2829 -0.3518  0.6264
43402SOL    HW137446   4.005  10.107  11.824 -0.1313 -0.7528 -0.2486
43402SOL    HW237447   3.934  10.237  11.857  0.4176 -0.8082  1.2320
43403SOL     OW37448  11.978   8.852   2.165  0.1828 -0.5337  0.4050
43403SOL    HW137449  12.055   8.813   2.207  0.3160 -0.0783  0.5818
43403SOL    HW237450  11.990   8.946   2.176 -0.4828 -0.4677  0.5820
43404SOL     OW37451  11.494   2.568  11.235 -0.6987 -0.1706  0.1449
43404SOL    HW137452  11.447   2.630  11.179 -0.5504 -0.4838 -0.3368
43404SOL    HW237453  11.445   2.567  11.317 -1.0052  0.1888 -0.0315
43405SOL     OW37454  10.705   8.863   1.343 -0.2387 -0.1933 -0.0567
43405SOL    HW137455  10.698   8.957   1.328  2.0385 -0.0016 -0.1895
43405SOL    HW237456  10.663   8.823   1.266 -3.3771  0.5831  1.0766
43406SOL     OW37457   8.763   9.164   9.303 -0.4655  0.0819 -0.1850
43406SOL    HW137458   8.718   9.248   9.292 -0.1243 -0.0129 -2.9742
43406SOL    HW237459   8.855   9.187   9.307 -0.4014 -0.1317 -0.4546
43407SOL     OW37460   2.107   3.585   6.221  0.1512  0.2344  0.1739
43407SOL    HW137461   2.168   3.574   6.295 -0.4927 -0.5929  0.5895
43407SOL    HW237462   2.074   3.497   6.204 -1.3026  0.7437  0.2678
43408SOL     OW37463   8.386   2.442   4.613  0.3294 -0.0771  0.0269
43408SOL    HW137464   8.300   2.428   4.573  0.1514  0.9532  0.0223
43408SOL    HW237465   8.375   2.521   4.666  0.8328 -0.8558  1.3305
43409SOL     OW37466  10.439  10.792   5.734 -0.0861  0.2406  0.3422
43409SOL    HW137467  10.452  10.767   5.642 -0.3731  0.1625  0.3229
43409SOL    HW237468  10.514  10.849   5.753  1.4257 -1.7991  0.8246
43410SOL     OW37469   6.700  11.074  10.135  0.7403 -0.1752  0.5580
43410SOL    HW137470   6.711  11.154  10.186  3.0065 -1.2275  1.8715
43410SOL    HW237471   6.633  11.096  10.070  0.8463  2.5653  1.2519
43411SOL     OW37472   9.533   5.187  11.928  0.1217  0.4257 -0.6830
43411SOL    HW137473   9.537   5.226  12.015  1.1429 -0.4903 -0.3049
43411SOL    HW237474   9.623   5.187  11.897 -0.1023 -0.0695 -1.3646
43412SOL     OW37475   9.039  12.400   4.809 -0.0594  0.8510 -0.5618
43412SOL    HW137476   9.082  12.387   4.894  1.6169  2.7988 -1.0236
43412SOL    HW237477   9.086  12.344   4.749 -1.3643 -0.6692 -0.2431
43413SOL     OW37478  10.970  11.027   8.753 -0.1619 -0.2192 -0.2849
43413SOL    HW137479  10.887  10.991   8.721 -0.7165 -1.4959  2.3271
43413SOL    HW237480  11.000  10.963   8.818  0.8816  2.1254  1.6689
43414SOL     OW37481  12.337   4.203   4.672  0.7625 -0.0215 -0.0590
43414SOL    HW137482  12.333   4.107   4.675  0.3453 -0.0442 -1.1866
43414SOL    HW237483  12.290   4.231   4.751 -1.7935 -0.6998 -1.2616
43415SOL     OW37484   3.337  10.307   7.082 -0.4139 -0.5019  0.2297
43415SOL    HW137485   3.390  10.386   7.092 -0.5654 -0.4601  0.7151
43415SOL    HW237486   3.379  10.243   7.141 -0.7160 -0.5663  0.3738
43416SOL     OW37487   6.498   1.848  12.627  0.1534 -0.0083 -0.4897
43416SOL    HW137488   6.497   1.762  12.585 -1.3761 -0.3265  0.1362
43416SOL    HW237489   6.518   1.830  12.719 -1.7547  0.0802 -0.0084
43417SOL     OW37490  11.799   7.931   2.418  0.0755  0.7579 -0.8530
43417SOL    HW137491  11.836   8.013   2.451 -2.8320  1.1908  1.7557
43417SOL    HW237492  11.707   7.952   2.399 -0.2411 -1.4374 -2.0866
43418SOL     OW37493   5.438   0.245   6.539  0.0963 -0.1635 -0.3833
43418SOL    HW137494   5.395   0.259   6.624 -0.4011  0.3889 -0.7178
43418SOL    HW237495   5.455   0.333   6.507 -0.2828 -0.3650 -1.1443
43419SOL     OW37496   8.510   8.954   9.025  0.4895 -0.0545 -0.3444
43419SOL    HW137497   8.457   8.930   9.100  0.3238  0.9432 -0.1239
43419SOL    HW237498   8.505   9.050   9.021  1.8626  0.0362 -0.6199
43420SOL     OW37499   5.419   1.716   4.943  0.3594  0.1607 -0.0318
43420SOL    HW137500   5.466   1.791   4.979  3.1252 -1.3477 -0.2098
43420SOL    HW237501   5.400   1.660   5.018 -0.4341  0.3524 -0.0766
43421SOL     OW37502   7.887   7.030   1.386  0.3287 -0.2723  0.2667
43421SOL    HW137503   7.963   7.074   1.349  0.3430 -0.9839 -0.5623
43421SOL    HW237504   7.836   7.101   1.426  0.2947  0.5255 -1.1312
43422SOL     OW37505   5.488   6.229   4.448  0.2492  0.8784 -0.0840
43422SOL    HW137506   5.497   6.300   4.384  2.0732 -0.3725 -1.3127
43422SOL    HW237507   5.577   6.214   4.480  0.2057 -1.7428 -0.9289
43423SOL     OW37508   4.087   4.662   8.661  0.5468 -0.4881 -0.1788
43423SOL    HW137509   4.063   4.581   8.707  0.9361 -0.4878  0.0326
43423SOL    HW237510   4.125   4.718   8.729 -0.3856  0.1640 -0.1818
43424SOL     OW37511   6.718   9.555   7.196  0.1308  0.4015 -0.1963
43424SOL    HW137512   6.672   9.535   7.114  0.6585  0.8559 -0.6146
43424SOL    HW237513   6.805   9.517   7.185  0.0303 -0.0019  0.3761
43425SOL     OW37514   1.090   0.262   9.138 -0.2031 -0.3105 -0.2796
43425SOL    HW137515   1.105   0.169   9.155 -0.2219 -0.3837 -0.6483
43425SOL    HW237516   1.050   0.264   9.051 -1.0127 -0.0159  0.0924
43426SOL     OW37517   9.563  11.301   2.413 -0.0741  0.3924  0.3081
43426SOL    HW137518   9.658  11.312   2.415 -0.1141  0.6513  1.1330
43426SOL    HW237519   9.536  11.339   2.329  0.4398  1.3013  0.5428
43427SOL     OW37520   1.167   8.296   0.093  0.2266  0.0765  0.5356
43427SOL    HW137521   1.125   8.353   0.157 -0.1420 -1.4988  1.7317
43427SOL    HW237522   1.235   8.251   0.142  1.0639  0.0610 -0.5907
43428SOL     OW37523   6.236   4.630   2.073 -0.5071  0.0626 -0.2825
43428SOL    HW137524   6.164   4.692   2.082 -0.7559 -0.3777  1.0457
43428SOL    HW237525   6.300   4.676   2.018 -1.0165  1.1889  0.0331
43429SOL     OW37526   3.732   0.329  11.629  0.1816  0.0044 -0.3216
43429SOL    HW137527   3.694   0.417  11.623 -1.6710 -0.6448  0.8018
43429SOL    HW237528   3.812   0.341  11.679  0.4535  1.1780 -0.9965
43430SOL     OW37529   2.697   8.585  12.053  0.3338 -0.6953  0.0682
43430SOL    HW137530   2.609   8.619  12.037  0.4957 -1.1248 -1.8973
43430SOL    HW237531   2.741   8.655  12.103 -0.3181  0.6344 -1.1565
43431SOL     OW37532   0.910   0.406   1.611 -0.0816  0.4891 -0.7421
43431SOL    HW137533   0.925   0.332   1.552  0.0084  1.9196 -2.6064
43431SOL    HW237534   0.939   0.483   1.561  0.7123  1.7174  1.4689
43432SOL     OW37535   2.642  10.194   3.319  0.2909  0.3402 -0.0904
43432SOL    HW137536   2.564  10.192   3.374  0.2254 -0.4795 -0.1988
43432SOL    HW237537   2.663  10.287   3.311 -1.1010  0.6479 -0.6589
43433SOL     OW37538   0.098   0.953   1.953 -0.2211 -0.6437  0.0170
43433SOL    HW137539   0.102   0.864   1.917  0.2576 -1.1313  1.2339
43433SOL    HW237540   0.006   0.978   1.944 -0.5714 -1.6604  0.6006
43434SOL     OW37541  11.045   1.213  10.484  0.5925 -0.3554  0.4569
43434SOL    HW137542  11.111   1.143  10.476  2.0994  0.9936  0.5774
43434SOL    HW237543  10.999   1.212  10.400  0.3488 -1.6885  0.5764
43435SOL     OW37544   6.667  10.527   8.167 -0.1536 -0.3924  0.7724
43435SOL    HW137545   6.655  10.519   8.262 -1.7305  0.8991  0.7421
43435SOL    HW237546   6.710  10.612   8.156  0.4933 -0.7677  0.3371
43436SOL     OW37547   2.868   9.780  11.252 -0.3122 -0.6146 -0.4621
43436SOL    HW137548   2.830   9.856  11.297 -0.6995 -1.0954  0.0418
43436SOL    HW237549   2.838   9.705  11.303  0.7938 -1.0526 -0.4283
43437SOL     OW37550   7.035   1.999   3.818  0.2221  0.3552 -0.0050
43437SOL    HW137551   7.049   1.965   3.730 -0.9791  2.0332 -0.9033
43437SOL    HW237552   6.941   2.010   3.826  0.1327 -1.2234  2.1225
43438SOL     OW37553  11.497   2.276  11.168 -0.2718 -0.0873  0.2303
43438SOL    HW137554  11.531   2.362  11.193  0.4869 -0.5210  0.7257
43438SOL    HW237555  11.529   2.263  11.078  1.8123 -0.9220  1.0286
43439SOL     OW37556   5.210   0.757   0.546 -0.1621  0.2753  0.1299
43439SOL    HW137557   5.239   0.669   0.569 -0.8522  0.5031  2.1030
43439SOL    HW237558   5.128   0.743   0.498  0.5441 -0.1819 -0.9807
43440SOL     OW37559  12.097   9.014  12.711 -0.3095 -0.0068  0.0748
43440SOL    HW137560  12.122   8.970  12.630  0.5309  1.5051 -0.5225
43440SOL    HW237561  12.001   9.008  12.713 -0.2155 -3.2793  0.8897
43441SOL     OW37562  10.965   1.036   6.919  0.4289  0.1392  0.1235
43441SOL    HW137563  10.969   1.042   6.823 -0.7138  1.2188  0.1196
43441SOL    HW237564  10.915   0.956   6.936  0.7934 -0.1569 -0.1576
43442SOL     OW37565   8.368  12.165   7.130 -0.6310  0.0852  0.0998
43442SOL    HW137566   8.415  12.136   7.052  0.7276  1.1046  0.5126
43442SOL    HW237567   8.426  12.229   7.171 -1.4467 -0.2212  1.7995
43443SOL     OW37568   9.601   1.289   5.414  0.1532  0.2578  0.0715
43443SOL    HW137569   9.546   1.363   5.439 -0.3867  0.0340 -0.4511
43443SOL    HW237570   9.573   1.217   5.471 -0.2472  0.0832 -0.3446
43444SOL     OW37571   9.448   7.471   8.762  0.1620  0.3598  0.1565
43444SOL    HW137572   9.400   7.400   8.805  0.8498 -0.1777  0.0612
43444SOL    HW237573   9.507   7.427   8.702 -1.4128  1.1239 -2.0783
43445SOL     OW37574  11.093   3.471   3.604 -0.4394 -0.3083  0.0878
43445SOL    HW137575  11.042   3.529   3.661 -1.7863 -0.3224 -1.0325
43445SOL    HW237576  11.140   3.531   3.546 -0.4866 -0.3122  0.0454
43446SOL     OW37577   2.734   3.102   8.884 -0.1869 -0.3268  0.4512
43446SOL    HW137578   2.785   3.034   8.839 -1.0315 -0.4339 -0.3614
43446SOL    HW237579   2.800   3.167   8.910  0.2190  0.3311 -1.9846
43447SOL     OW37580   4.792  11.909  12.083  0.2931  0.4177  0.2639
43447SOL    HW137581   4.751  11.994  12.069  2.3766  1.4304 -0.1386
43447SOL    HW237582   4.869  11.909  12.026  2.2447 -0.3256  2.6616
43448SOL     OW37583   6.317   1.294   8.667 -0.1491  0.1301 -0.3098
43448SOL    HW137584   6.271   1.289   8.583 -0.2989 -0.9131 -0.1732
43448SOL    HW237585   6.392   1.351   8.650  0.2758 -0.7179 -1.3671
43449SOL     OW37586  10.173   7.542   5.736 -0.5223 -0.2605 -0.3986
43449SOL    HW137587  10.251   7.506   5.778 -1.6802  0.7345  2.9324
43449SOL    HW237588  10.153   7.480   5.666  2.0098 -1.6949  0.0096
43450SOL     OW37589   2.754   8.146   0.872 -0.4610 -0.0893  0.6448
43450SOL    HW137590   2.762   8.220   0.932  0.2570  0.4864 -0.1346
43450SOL    HW237591   2.713   8.183   0.794  1.8723  0.0261 -0.5966
43451SOL     OW37592   0.785   0.266   3.460 -0.0806 -0.8434  0.7213
43451SOL    HW137593   0.720   0.195   3.467 -1.0763 -0.4613 -2.8352
43451SOL    HW237594   0.734   0.343   3.436  1.3451  0.3313  1.3404
43452SOL     OW37595   3.916   5.225  11.142 -0.1330  0.3361 -0.1860
43452SOL    HW137596   3.931   5.319  11.137 -0.0934  0.3186 -0.4555
43452SOL    HW237597   3.830   5.213  11.100  0.0994  0.1964 -0.6298
43453SOL     OW37598   2.280   8.716   1.530 -0.2142  0.1703 -0.4389
43453SOL    HW137599   2.216   8.650   1.558  2.1702 -1.4400  1.6608
43453SOL    HW237600   2.354   8.665   1.498  0.8103  1.9070 -0.9587
43454SOL     OW37601   4.463   5.258   0.773  0.2206 -0.8164 -0.7193
43454SOL    HW137602   4.438   5.254   0.865 -0.7319 -1.3571 -0.9851
43454SOL    HW237603   4.523   5.332   0.768 -2.2727  1.4182 -0.2108
43455SOL     OW37604   8.129   3.650   5.797  0.1207 -0.1121  0.3718
43455SOL    HW137605   8.187   3.577   5.820  0.2190 -0.0229  0.4071
43455SOL    HW237606   8.089   3.623   5.714 -0.0658 -0.3356  0.5324
43456SOL     OW37607  11.816   6.840   4.686 -0.0247 -0.4336  0.1647
43456SOL    HW137608  11.723   6.852   4.702  0.3412  1.1837  1.2827
43456SOL    HW237609  11.821   6.803   4.598 -1.6192  2.3613 -1.2151
43457SOL     OW37610   8.684   4.432   4.558 -0.5132 -0.1219 -0.0612
43457SOL    HW137611   8.732   4.499   4.606 -1.6158  1.2085 -0.7456
43457SOL    HW237612   8.698   4.454   4.466 -1.3792 -0.4661 -0.2872
43458SOL     OW37613   5.488  10.028   8.774  0.0687  0.2147  0.0734
43458SOL    HW137614   5.569  10.026   8.824  0.6711  0.4618 -0.8722
43458SOL    HW237615   5.470  10.121   8.760  0.7475  0.1414 -1.4698
43459SOL     OW37616   8.828  12.332   5.107  0.3163  0.6206 -0.5333
43459SOL    HW137617   8.904  12.298   5.153 -1.4099 -3.0636 -0.0408
43459SOL    HW237618   8.855  12.336   5.015  1.0898 -0.7000 -0.3803
43460SOL     OW37619   7.818   3.298   6.285 -0.4345  0.2337  0.5815
43460SOL    HW137620   7.865   3.381   6.274  0.0066  0.0144  0.7574
43460SOL    HW237621   7.875   3.233   6.243 -1.2593  0.1582 -0.4406
43461SOL     OW37622   8.061   9.943   6.035  0.1209 -0.1509  0.0835
43461SOL    HW137623   8.136   9.932   6.094  0.2747  0.1306 -0.0567
43461SOL    HW237624   8.009  10.012   6.074 -0.7021 -1.1479  0.8187
43462SOL     OW37625   9.041   4.715   9.630 -0.2510 -0.2614 -0.0801
43462SOL    HW137626   8.946   4.713   9.639 -0.2368 -2.4895  0.1256
43462SOL    HW237627   9.057   4.696   9.537 -0.0036  1.1007 -0.3304
43463SOL     OW37628   3.099   2.413   7.112  0.2097 -0.0775 -0.2461
43463SOL    HW137629   3.060   2.399   7.198  0.5373  0.4079 -0.0151
43463SOL    HW237630   3.024   2.436   7.056  0.0086 -0.3042 -0.0737
43464SOL     OW37631   4.199   8.175   7.019 -0.7781  0.6124  0.3037
43464SOL    HW137632   4.257   8.128   7.079 -0.5239 -0.2298 -0.5720
43464SOL    HW237633   4.173   8.253   7.067 -0.1089  0.2555  1.2804
43465SOL     OW37634   8.556   4.212   8.227  0.1071  0.2229  0.0134
43465SOL    HW137635   8.530   4.236   8.316  1.2627  3.8551 -0.4381
43465SOL    HW237636   8.640   4.256   8.215  0.2843 -0.6946 -2.6612
43466SOL     OW37637   8.207   0.108   5.328  0.6519 -0.4486  0.3012
43466SOL    HW137638   8.187   0.067   5.244 -0.1814  0.2809  0.1228
43466SOL    HW237639   8.124   0.148   5.355  1.0488 -0.2148  1.2091
43467SOL     OW37640   8.928   3.042  10.923  0.9354  0.0935 -0.3593
43467SOL    HW137641   8.860   2.974  10.920 -0.6066  1.5796 -2.0468
43467SOL    HW237642   8.892   3.109  10.982  0.6778  1.0815 -1.5820
43468SOL     OW37643   1.425  11.140   6.546 -0.2121 -0.4142 -0.4336
43468SOL    HW137644   1.466  11.053   6.549  1.5352  0.3975  1.2338
43468SOL    HW237645   1.381  11.148   6.631 -2.1141 -0.4103 -1.3661
43469SOL     OW37646   7.135  12.651   1.463 -0.2129 -0.3677  0.0961
43469SOL    HW137647   7.044  12.673   1.444 -0.3888  0.9808  2.2258
43469SOL    HW237648   7.186  12.714   1.412 -0.4144 -1.0594 -1.0173
43470SOL     OW37649   7.900  12.444   6.938 -0.1857 -0.2622 -0.5282
43470SOL    HW137650   7.993  12.466   6.932  0.4917 -2.2462  1.2103
43470SOL    HW237651   7.858  12.523   6.971  1.1295  0.2562 -0.0366
43471SOL     OW37652   4.440   1.605   1.326 -0.7873 -0.2821  0.1055
43471SOL    HW137653   4.491   1.659   1.265  1.0141 -0.6535  1.1833
43471SOL    HW237654   4.405   1.668   1.389  0.1842 -0.1995  0.5883
43472SOL     OW37655   1.904   7.118   1.344 -0.0258  0.4613 -0.9985
43472SOL    HW137656   1.949   7.161   1.417  2.5482  0.4428 -2.4513
43472SOL    HW237657   1.862   7.041   1.383 -1.7151  2.2470  1.0101
43473SOL     OW37658   7.501   5.132   7.816  0.3721  0.0620  0.1333
43473SOL    HW137659   7.480   5.042   7.792  0.7037 -0.1221  0.5275
43473SOL    HW237660   7.468   5.184   7.743 -0.7775 -0.2831  0.3803
43474SOL     OW37661  12.288   8.149   7.630  0.4354  0.4572 -0.2242
43474SOL    HW137662  12.209   8.186   7.590 -0.9723 -0.2432  1.7277
43474SOL    HW237663  12.335   8.224   7.666  1.1290  0.9659 -2.0740
43475SOL     OW37664   1.524  10.121   5.597  0.0647  0.2401 -0.0314
43475SOL    HW137665   1.431  10.096   5.597  0.2955 -0.6554 -0.4571
43475SOL    HW237666   1.533  10.178   5.673 -0.6555 -0.3392  0.5029
43476SOL     OW37667   6.600   9.127  10.796  0.3383 -0.6745  0.4554
43476SOL    HW137668   6.510   9.153  10.779  0.5595 -0.6093 -0.6964
43476SOL    HW237669   6.596   9.079  10.879 -1.0085 -1.9839 -0.3161
43477SOL     OW37670   9.967   8.914  11.294  0.1203 -0.2918  0.0618
43477SOL    HW137671   9.907   8.988  11.301 -0.8625 -0.8805 -1.4393
43477SOL    HW237672   9.990   8.892  11.384 -0.9155  0.7588  0.6083
43478SOL     OW37673   8.152   4.712   5.267  0.2139 -0.2623  0.0131
43478SOL    HW137674   8.186   4.759   5.190 -0.1358 -0.7845 -0.4663
43478SOL    HW237675   8.131   4.625   5.234  2.6162 -1.4361  1.2645
43479SOL     OW37676   6.615   5.259   6.079  0.5728  0.2180  0.1383
43479SOL    HW137677   6.602   5.257   6.174  2.1650  0.6237  0.3994
43479SOL    HW237678   6.625   5.352   6.059 -0.8009  0.2199 -0.6023
43480SOL     OW37679   5.251  12.282   7.108  0.6643 -0.6605  0.0026
43480SOL    HW137680   5.170  12.233   7.123 -0.0347  0.4011 -0.1477
43480SOL    HW237681   5.303  12.267   7.186  0.7420 -2.1307 -0.3071
43481SOL     OW37682   4.432  11.331   8.457 -0.3668  0.6136 -0.3319
43481SOL    HW137683   4.482  11.310   8.379 -1.9694  1.5234 -1.6809
43481SOL    HW237684   4.374  11.256   8.469  0.4791  0.0772  0.5439
43482SOL     OW37685  10.923   2.023  10.329 -0.0782 -0.4492  0.3718
43482SOL    HW137686  10.897   1.954  10.390  0.1499  0.9241  2.0990
43482SOL    HW237687  10.865   2.096  10.351  2.1911  1.1741  1.2531
43483SOL     OW37688   0.508   2.954   0.824 -0.1974  0.1260 -0.0837
43483SOL    HW137689   0.553   2.901   0.758 -1.2258 -0.4947 -0.3191
43483SOL    HW237690   0.435   2.899   0.852  0.1858  0.4076  1.5522
43484SOL     OW37691   7.923   7.380   5.617  0.0258  0.1029 -0.2282
43484SOL    HW137692   7.902   7.288   5.602  0.8387 -0.2063  0.4443
43484SOL    HW237693   8.017   7.380   5.636  0.0534  1.0866 -0.3338
43485SOL     OW37694  11.251   4.944   5.180 -0.1627  0.1336 -0.0912
43485SOL    HW137695  11.203   4.970   5.101 -1.5935 -0.1775  0.6347
43485SOL    HW237696  11.315   5.014   5.193 -0.5929  0.7145 -0.9632
43486SOL     OW37697   5.666   0.108   8.493  0.1330 -0.0783  0.3062
43486SOL    HW137698   5.666   0.160   8.413 -0.5139 -2.2731 -1.2173
43486SOL    HW237699   5.592   0.142   8.544  0.4647  1.2443 -0.0529
43487SOL     OW37700   3.088   0.634   5.002 -0.1772  0.1460  0.0845
43487SOL    HW137701   3.039   0.563   4.959  0.2108 -1.1198  1.5999
43487SOL    HW237702   3.101   0.700   4.934 -2.6783 -0.1358 -0.7636
43488SOL     OW37703   3.121   2.600   2.785 -0.1650  0.4740 -0.1553
43488SOL    HW137704   3.029   2.585   2.760  0.3024  0.3215 -1.8994
43488SOL    HW237705   3.159   2.646   2.710  1.6958 -1.2871 -0.3753
43489SOL     OW37706   5.812  10.618   0.144  0.4066  0.0883 -0.3392
43489SOL    HW137707   5.861  10.542   0.175  1.0057  0.8447  0.6537
43489SOL    HW237708   5.818  10.681   0.216 -1.1682  0.6000 -0.6136
43490SOL     OW37709   0.482  12.632   3.683  0.0095  0.3625 -0.0184
43490SOL    HW137710   0.449  12.543   3.666  0.0649  0.2391  0.4841
43490SOL    HW237711   0.450  12.652   3.771  1.6981  0.0217  0.7271
43491SOL     OW37712   1.988   6.381   5.325  0.3785  0.3741 -0.5400
43491SOL    HW137713   1.932   6.315   5.284 -1.0706  1.2748 -0.0794
43491SOL    HW237714   2.062   6.331   5.360 -0.0912 -0.8404 -1.2189
43492SOL     OW37715  10.486   2.982   8.124 -0.2956 -0.5163  0.2701
43492SOL    HW137716  10.499   3.054   8.062  1.2002 -0.3475  0.7339
43492SOL    HW237717  10.399   2.998   8.162  0.2276  1.3804  0.7754
43493SOL     OW37718   8.206   0.860   6.202 -0.0120 -0.5034  0.1339
43493SOL    HW137719   8.175   0.916   6.130 -1.0371 -0.6213  0.4668
43493SOL    HW237720   8.167   0.899   6.281 -0.2705 -1.3503  0.4323
43494SOL     OW37721   0.796  11.910  12.399 -0.5743 -0.1085  0.0589
43494SOL    HW137722   0.877  11.955  12.423 -0.0927  0.3742 -2.2183
43494SOL    HW237723   0.819  11.817  12.400  0.6288  0.0799 -2.2950
43495SOL     OW37724   7.965   5.496   7.200  0.1040  0.5798 -0.3497
43495SOL    HW137725   7.910   5.425   7.232  0.4070  0.5828  0.2021
43495SOL    HW237726   7.910   5.574   7.205  0.6105  0.8722  1.7148
43496SOL     OW37727   2.740   3.596   0.419 -0.4334  0.1916 -0.2922
43496SOL    HW137728   2.825   3.552   0.425 -0.1622  0.7114 -0.1852
43496SOL    HW237729   2.716   3.590   0.327  0.3512  1.1674 -0.5791
43497SOL     OW37730  12.454   8.531   2.663 -0.2697  0.8127 -0.2755
43497SOL    HW137731  12.534   8.515   2.613  0.5108  1.4968  0.6971
43497SOL    HW237732  12.475   8.500   2.751 -2.3568 -2.4267 -0.7727
43498SOL     OW37733  11.966   1.603   1.796 -0.1738 -0.8368 -0.4079
43498SOL    HW137734  11.944   1.541   1.864  0.7007 -2.4227 -1.5105
43498SOL    HW237735  12.037   1.656   1.833 -0.2581 -1.1329  0.1838
43499SOL     OW37736   5.310   6.746   7.065 -0.3373 -0.0813  0.4987
43499SOL    HW137737   5.229   6.784   7.031  0.4503  1.4492  0.2539
43499SOL    HW237738   5.369   6.821   7.075  1.1340 -1.1974  0.4390
43500SOL     OW37739   8.890   4.308   1.015  0.0542  0.0305 -0.1446
43500SOL    HW137740   8.902   4.269   0.928 -1.2511 -0.1542 -0.2624
43500SOL    HW237741   8.848   4.238   1.066 -1.5062  0.9505 -0.1012
43501SOL     OW37742  10.793  12.277  11.209  0.6724 -0.4097 -0.2902
43501SOL    HW137743  10.873  12.267  11.158  0.4035  0.5016 -0.9220
43501SOL    HW237744  10.777  12.371  11.211  0.6254 -0.4170  1.4266
43502SOL     OW37745   4.635  12.707  12.615  0.1219  0.1715  0.1388
43502SOL    HW137746   4.712  12.719  12.671  0.3197 -0.3495 -0.0148
43502SOL    HW237747   4.668  12.718  12.526  0.3974 -1.8055 -0.0381
43503SOL     OW37748   9.199   3.437  11.139 -0.1227 -0.0327  0.7008
43503SOL    HW137749   9.110   3.403  11.128 -0.5524  0.9664  0.9920
43503SOL    HW237750   9.196   3.484  11.223  0.5029  0.5652  0.3896
43504SOL     OW37751  12.596   3.520   2.229 -0.3418  0.0763  0.1119
43504SOL    HW137752  12.547   3.586   2.180 -0.7524 -0.1519  0.2170
43504SOL    HW237753  12.644   3.471   2.162  0.1579  0.6330  0.0518
43505SOL     OW37754  12.002   3.379  11.434 -0.3554  0.1780 -0.0193
43505SOL    HW137755  12.043   3.428  11.363  0.4104  1.0572  1.0082
43505SOL    HW237756  11.910   3.407  11.433  0.0825  1.7210  0.6041
43506SOL     OW37757  11.248   4.441   2.800  0.9003  0.2282 -0.4982
43506SOL    HW137758  11.291   4.437   2.885  2.0041 -0.7423 -1.0680
43506SOL    HW237759  11.308   4.489   2.744  0.7695 -0.2298 -1.0433
43507SOL     OW37760   4.441   8.925   1.865 -0.1903 -1.1266 -0.0084
43507SOL    HW137761   4.398   9.003   1.829  0.0065 -1.1355 -0.2688
43507SOL    HW237762   4.533   8.937   1.844 -0.0076 -0.9457  0.8430
43508SOL     OW37763   4.505   6.499   6.861  0.2434 -0.4246  0.1646
43508SOL    HW137764   4.418   6.531   6.886  0.9438  2.7459 -1.0662
43508SOL    HW237765   4.492   6.459   6.775  0.3621  2.6242 -1.3778
43509SOL     OW37766   1.888   4.255   8.234  0.5925  0.1561  0.2219
43509SOL    HW137767   1.897   4.303   8.152  0.2542  1.8262  1.1169
43509SOL    HW237768   1.944   4.303   8.296 -1.1341  0.4802  1.5998
43510SOL     OW37769   9.784   1.973  12.646  0.3939 -0.6109  0.0140
43510SOL    HW137770   9.714   1.913  12.672 -0.3826  0.0722 -0.4371
43510SOL    HW237771   9.825   1.999  12.728 -1.2920  0.6466  0.5192
43511SOL     OW37772  11.417   9.392   8.249 -0.5855  0.1054 -0.1435
43511SOL    HW137773  11.336   9.441   8.263 -1.2572 -0.7346 -1.0322
43511SOL    HW237774  11.438   9.355   8.335 -1.5886 -0.3411 -0.0818
43512SOL     OW37775  10.367   4.714   8.744  0.4504  0.7100  0.2712
43512SOL    HW137776  10.371   4.693   8.838 -0.2159  0.4623  0.2539
43512SOL    HW237777  10.277   4.746   8.731  0.9779  2.1537 -0.0001
43513SOL     OW37778   6.638   0.547   5.124  0.2293 -0.2019 -0.0322
43513SOL    HW137779   6.592   0.475   5.167  0.9427  0.2152  1.4769
43513SOL    HW237780   6.658   0.513   5.037 -0.8068 -1.2533  0.1095
43514SOL     OW37781   6.729   8.114   5.019  0.5455  0.2545 -0.4460
43514SOL    HW137782   6.662   8.120   5.086  0.5230  1.9938 -0.5719
43514SOL    HW237783   6.804   8.163   5.055  0.6974  0.8075 -1.4663
43515SOL     OW37784  10.190  10.851   5.189  0.0065 -0.3002  0.6085
43515SOL    HW137785  10.139  10.854   5.108 -0.3296  0.3911  0.8404
43515SOL    HW237786  10.204  10.758   5.205 -0.5955 -0.4676  0.1755
43516SOL     OW37787   1.808   4.243   5.856 -0.4115 -0.0239 -0.2874
43516SOL    HW137788   1.715   4.222   5.857 -0.4038 -0.0716  0.6959
43516SOL    HW237789   1.851   4.162   5.831 -0.5966 -0.1561 -0.1767
43517SOL     OW37790  11.676   1.293  12.290 -0.3389 -0.6289 -0.0347
43517SOL    HW137791  11.682   1.357  12.219  2.1366 -1.2456 -0.4915
43517SOL    HW237792  11.646   1.343  12.365  0.3059  0.8137 -0.6907
43518SOL     OW37793   2.507   3.689  11.135 -0.4536 -0.5486  0.0134
43518SOL    HW137794   2.437   3.754  11.137  0.0067  0.2159 -3.2960
43518SOL    HW237795   2.571   3.721  11.198 -0.5410  1.9518 -1.0482
43519SOL     OW37796   4.655   4.661  10.590 -0.3702 -0.2217  0.0821
43519SOL    HW137797   4.710   4.714  10.532 -1.1177 -0.8090 -1.2011
43519SOL    HW237798   4.647   4.577  10.544  0.1926 -1.2100  1.7194
43520SOL     OW37799   5.646  10.346  10.627  0.6312  0.2548 -0.1048
43520SOL    HW137800   5.618  10.321  10.715 -1.3197  0.4059 -0.6467
43520SOL    HW237801   5.684  10.433  10.637 -1.3989  1.1430  0.3194
43521SOL     OW37802   4.619   2.925  10.815  0.1328 -0.0087  0.4978
43521SOL    HW137803   4.630   2.889  10.727  3.0106  0.5807  0.5080
43521SOL    HW237804   4.704   2.911  10.857 -0.0796  2.6761  2.0256
43522SOL     OW37805   8.879   9.478   3.622  0.3414  0.8576  0.7213
43522SOL    HW137806   8.816   9.429   3.569  1.0116 -2.2943  2.5792
43522SOL    HW237807   8.827   9.514   3.693  0.2845  0.1644  1.0370
43523SOL     OW37808   5.058  11.809   0.035  0.5219 -0.0216  0.0732
43523SOL    HW137809   5.134  11.787   0.089 -1.2820 -3.0056  1.6296
43523SOL    HW237810   5.035  11.727  -0.008 -1.3056  1.0408 -1.0701
43524SOL     OW37811   5.280   8.523   4.701  0.2291  0.2281 -0.2322
43524SOL    HW137812   5.252   8.515   4.792  1.9257  0.3950  0.3499
43524SOL    HW237813   5.371   8.493   4.701  0.9639  2.1818 -1.4489
43525SOL     OW37814   3.281  10.898   7.746 -0.4831 -0.0640  0.2599
43525SOL    HW137815   3.319  10.937   7.825  0.1280 -0.6753  0.2805
43525SOL    HW237816   3.245  10.815   7.776 -0.5258 -0.1553 -0.0457
43526SOL     OW37817  12.508   8.367  12.647 -0.0699  0.0337  0.1948
43526SOL    HW137818  12.517   8.370  12.551  2.2481  1.9761  0.3636
43526SOL    HW237819  12.513   8.459  12.674  2.0591 -0.6238  2.3415
43527SOL     OW37820   6.769   8.564  11.270  0.0021 -0.1271 -0.5107
43527SOL    HW137821   6.732   8.644  11.308  0.6980  0.4374 -0.9741
43527SOL    HW237822   6.761   8.577  11.175  0.1212 -0.6114 -0.5881
43528SOL     OW37823   2.051   9.088   2.670  0.1869 -0.0618  0.9535
43528SOL    HW137824   2.015   9.089   2.759  1.6534 -2.0578  1.6527
43528SOL    HW237825   1.975   9.086   2.613 -0.7950 -0.1484  2.2247
43529SOL     OW37826   3.663  11.864   2.064 -0.6510 -0.2630  0.1408
43529SOL    HW137827   3.584  11.817   2.090 -1.3450 -0.2514 -1.8039
43529SOL    HW237828   3.703  11.891   2.147 -2.4170 -0.6965  1.1862
43530SOL     OW37829   2.124   2.444  10.942 -0.2482  0.2856  0.5217
43530SOL    HW137830   2.090   2.391  10.870 -1.3537  1.8132 -0.1447
43530SOL    HW237831   2.198   2.394  10.976  0.7858 -0.1489 -2.1562
43531SOL     OW37832  11.431   0.261   4.670 -0.7907 -0.0974 -0.0071
43531SOL    HW137833  11.352   0.236   4.719 -1.6081 -1.6053 -1.9417
43531SOL    HW237834  11.401   0.327   4.608 -0.3461 -0.0682 -0.1910
43532SOL     OW37835   5.027  11.511   8.412 -0.2991  0.1485  0.3085
43532SOL    HW137836   5.093  11.576   8.438  0.5566 -0.8110  0.6103
43532SOL    HW237837   5.009  11.531   8.320  0.8344  0.0888  0.0565
43533SOL     OW37838  10.306   1.071   0.943  0.5617  0.5043  0.1207
43533SOL    HW137839  10.324   1.030   0.859 -0.6283  0.9150 -0.3534
43533SOL    HW237840  10.351   1.016   1.007  0.4308 -0.5331 -0.6632
43534SOL     OW37841   5.202   1.641   7.919 -0.2821 -0.7004  0.2408
43534SOL    HW137842   5.226   1.650   7.827  2.2933 -0.4690  0.8618
43534SOL    HW237843   5.118   1.688   7.927 -0.1606 -0.0463 -1.7967
43535SOL     OW37844   6.549   7.992   7.356  0.4216 -0.1883  0.3756
43535SOL    HW137845   6.499   8.061   7.313 -0.0448 -0.3048  0.7289
43535SOL    HW237846   6.485   7.944   7.408  0.4378 -1.8653 -1.0573
43536SOL     OW37847   7.380   1.028  11.022  0.4204 -0.0791  0.2999
43536SOL    HW137848   7.347   0.987  10.942 -1.0080 -1.8897  1.7118
43536SOL    HW237849   7.309   1.087  11.049  1.7756  2.1944 -0.8219
43537SOL     OW37850   1.721   6.307   5.459  0.7597 -0.7738 -0.5643
43537SOL    HW137851   1.741   6.378   5.520  0.6115 -1.0186 -0.2283
43537SOL    HW237852   1.630   6.324   5.431 -0.3214 -2.3519  1.6697
43538SOL     OW37853   5.409   4.782   3.188 -0.0587  0.3228  0.2996
43538SOL    HW137854   5.426   4.690   3.208  2.2781  0.4856 -0.6450
43538SOL    HW237855   5.348   4.779   3.114 -1.2175 -0.3963  1.2403
43539SOL     OW37856  10.064   3.400   3.100  0.2738 -0.4123  0.0455
43539SOL    HW137857  10.044   3.425   3.190  1.9993  1.7244 -0.0903
43539SOL    HW237858  10.002   3.330   3.080 -2.5930  1.4759  1.6682
43540SOL     OW37859   2.103   9.187   8.801 -0.4233  0.4791  0.4204
43540SOL    HW137860   2.168   9.139   8.749 -1.6395  0.7804 -1.4786
43540SOL    HW237861   2.135   9.277   8.804 -0.0981  0.3573  0.6330
43541SOL     OW37862   9.898   9.299   4.154 -0.3830  0.7096 -0.0597
43541SOL    HW137863   9.990   9.279   4.135 -0.2679 -0.2462  1.3384
43541SOL    HW237864   9.901   9.349   4.236 -1.0819  1.1206 -0.2812
43542SOL     OW37865   8.863   7.084   5.970  0.4747 -0.0264  0.4000
43542SOL    HW137866   8.818   7.001   5.985  0.2826 -0.1079 -0.5570
43542SOL    HW237867   8.897   7.077   5.881 -0.2595  1.2441  0.0009
43543SOL     OW37868   9.993   6.564   3.831  0.5919 -0.0196 -0.3992
43543SOL    HW137869   9.921   6.619   3.800  0.2469  0.2528  0.8215
43543SOL    HW237870  10.029   6.612   3.906  1.9401 -0.2421 -0.8833
43544SOL     OW37871   6.233   9.941   3.029  0.5795 -0.6116  0.3851
43544SOL    HW137872   6.286   9.975   3.100  0.4984 -0.0672  0.1858
43544SOL    HW237873   6.282   9.961   2.950 -0.4631  0.9868  0.0975
43545SOL     OW37874  10.240   5.322  12.174 -0.2640 -0.0370  0.1932
43545SOL    HW137875  10.320   5.348  12.127  1.0131 -1.3503  1.5078
43545SOL    HW237876  10.171   5.375  12.135  1.3821  1.8121 -0.4245
43546SOL     OW37877   5.638   0.559   5.151  0.4288  0.3442  0.4607
43546SOL    HW137878   5.568   0.546   5.087  0.3445  2.2326  0.1214
43546SOL    HW237879   5.719   0.552   5.100  0.4167  0.2466  0.4546
43547SOL     OW37880   8.333   8.280   0.694 -0.3840 -0.2392 -0.1938
43547SOL    HW137881   8.340   8.373   0.673  1.0897 -0.2251  0.2066
43547SOL    HW237882   8.268   8.276   0.764 -0.7296  0.4420 -0.4687
43548SOL     OW37883   1.964   6.857   5.991 -0.1420 -0.4776 -0.4094
43548SOL    HW137884   1.891   6.915   5.972 -0.9239 -1.0627  0.7114
43548SOL    HW237885   1.979   6.810   5.909  0.9883  1.7574 -1.5735
43549SOL     OW37886   0.941   7.795   8.177  0.4285  0.5583  0.1017
43549SOL    HW137887   0.974   7.706   8.178 -2.2241 -0.5162  0.4506
43549SOL    HW237888   0.940   7.822   8.268 -2.2801 -0.5736  0.5035
43550SOL     OW37889   7.481   7.673   4.801 -0.4074  0.2503  0.3891
43550SOL    HW137890   7.447   7.744   4.856 -0.1371  0.1488  0.6949
43550SOL    HW237891   7.538   7.623   4.860  0.9572  0.9192 -0.3170
43551SOL     OW37892   7.708   7.974   5.659 -0.3780  0.1668 -0.3889
43551SOL    HW137893   7.694   7.927   5.576 -0.2811  1.3350 -1.0959
43551SOL    HW237894   7.685   8.065   5.639  0.0295  0.5463  0.7691
43552SOL     OW37895   6.574   4.968   6.061  0.5848  0.3652 -0.4619
43552SOL    HW137896   6.564   5.061   6.081 -0.1489  0.4846 -1.3222
43552SOL    HW237897   6.537   4.958   5.974 -1.3990 -1.0967  0.4510
43553SOL     OW37898   6.001   8.013  12.592  0.2121 -0.0116 -0.2236
43553SOL    HW137899   6.001   8.105  12.618  1.2090 -0.1337  0.2135
43553SOL    HW237900   5.908   7.993  12.576 -0.0685  0.9125  0.2026
43554SOL     OW37901   8.627  11.650  10.560  0.9088 -0.4981  0.4108
43554SOL    HW137902   8.715  11.686  10.547  1.1242 -0.8746  0.8138
43554SOL    HW237903   8.632  11.561  10.526  0.1841  0.0450 -1.2230
43555SOL     OW37904   2.462  10.777   9.726  0.3420 -0.3610  0.2941
43555SOL    HW137905   2.519  10.846   9.759 -0.7965  0.7538  0.0144
43555SOL    HW237906   2.473  10.780   9.631 -0.4421  0.1341  0.2035
43556SOL     OW37907   9.371  10.759   5.473  0.1609  0.0612  0.1416
43556SOL    HW137908   9.329  10.839   5.440 -0.0521 -0.1013  0.0200
43556SOL    HW237909   9.397  10.711   5.395 -0.1111 -0.2026  0.2135
43557SOL     OW37910   0.045  10.709   3.860 -0.1344 -0.0204  0.5359
43557SOL    HW137911   0.030  10.730   3.952 -0.7643 -0.5812  0.5639
43557SOL    HW237912   0.140  10.713   3.850  0.2722 -3.2032  2.0297
43558SOL     OW37913  11.639   4.911  12.556 -0.1066 -0.1657 -0.4534
43558SOL    HW137914  11.678   4.955  12.480 -0.3826  0.9727  0.0416
43558SOL    HW237915  11.562   4.866  12.521 -0.6316  0.9191 -0.7514
43559SOL     OW37916   5.629   0.758   8.854 -0.1728  0.1757 -0.0617
43559SOL    HW137917   5.641   0.733   8.946  0.4574 -0.9770 -0.4249
43559SOL    HW237918   5.641   0.676   8.806 -0.6485  0.7319 -1.1675
43560SOL     OW37919  12.193   5.697   1.425 -0.0431 -0.1370  0.2957
43560SOL    HW137920  12.159   5.786   1.433 -0.7780 -0.4061  0.2682
43560SOL    HW237921  12.139   5.657   1.356  0.1555 -0.6575  0.4372
43561SOL     OW37922  10.485   2.139   7.153 -0.0371  0.2496  0.0973
43561SOL    HW137923  10.522   2.057   7.183  0.1255  0.8941  1.7514
43561SOL    HW237924  10.396   2.141   7.188 -0.0799  0.7234 -0.0201
43562SOL     OW37925  11.394  10.083   6.862 -0.1174  0.1885  0.4872
43562SOL    HW137926  11.410  10.098   6.955 -0.7554  0.7787  0.5094
43562SOL    HW237927  11.299  10.073   6.855 -0.2682  1.8806 -0.3237
43563SOL     OW37928  10.104   8.502   2.220  0.0833  0.0918  0.6559
43563SOL    HW137929  10.187   8.466   2.251  1.0629 -0.5365 -2.4071
43563SOL    HW237930  10.055   8.427   2.189 -0.6986  0.6986  0.3887
43564SOL     OW37931   9.504   9.352   3.606 -0.2051  0.0612 -0.0299
43564SOL    HW137932   9.559   9.365   3.529  1.0336  1.0252  0.9794
43564SOL    HW237933   9.551   9.288   3.658 -0.3241  0.4574  0.5689
43565SOL     OW37934   3.677  11.049  10.756  0.6629  0.0410 -0.1181
43565SOL    HW137935   3.629  11.130  10.774  1.3747  1.2197 -3.0086
43565SOL    HW237936   3.757  11.078  10.713  1.6598 -2.1697  0.0927
43566SOL     OW37937  10.099   8.353   8.515  0.4203 -0.3542 -0.0307
43566SOL    HW137938  10.082   8.261   8.537 -3.5040 -0.0351 -1.0356
43566SOL    HW237939  10.103   8.398   8.600 -2.6982 -0.8355  0.5010
43567SOL     OW37940   8.719   4.854   7.879  0.2564  0.3514  0.0057
43567SOL    HW137941   8.685   4.791   7.942 -0.6842  0.2560 -0.5700
43567SOL    HW237942   8.737   4.933   7.930  0.1698  0.0438  0.5088
43568SOL     OW37943   3.108   6.513   9.313 -0.2466 -0.2205 -0.3210
43568SOL    HW137944   3.041   6.455   9.349 -0.0606 -0.1828  0.0961
43568SOL    HW237945   3.059   6.583   9.270 -0.4738 -0.3662 -0.3014
43569SOL     OW37946   2.062   6.306  11.569 -0.1051  0.4532  0.6135
43569SOL    HW137947   2.026   6.256  11.642  1.6644 -1.1029  0.4859
43569SOL    HW237948   2.004   6.285  11.495  1.4863 -2.8900  0.1353
43570SOL     OW37949   7.272   9.321   3.118  0.6056  0.5073  0.2786
43570SOL    HW137950   7.342   9.374   3.080  0.4323  1.1267  0.8061
43570SOL    HW237951   7.197   9.337   3.061  0.7227  0.3371  0.0758
43571SOL     OW37952   0.994   2.965   0.274  0.0024 -0.3768  0.0318
43571SOL    HW137953   1.075   2.938   0.231  0.3578  1.0090 -0.2000
43571SOL    HW237954   0.989   2.910   0.352  0.5318 -1.3086 -0.5718
43572SOL     OW37955  12.704   3.911   2.194  0.4547  0.1736  0.0772
43572SOL    HW137956  12.660   3.982   2.239  0.7645  0.1735  0.3877
43572SOL    HW237957  12.636   3.869   2.141  0.2762  0.7042 -0.1168
43573SOL     OW37958   3.616   2.325   7.272  0.4325 -0.4574 -0.1125
43573SOL    HW137959   3.636   2.393   7.337  0.5589 -2.3946  1.9981
43573SOL    HW237960   3.668   2.349   7.195 -1.3097  3.0745 -0.3585
43574SOL     OW37961  10.834   3.053   8.757 -0.6175 -0.6309 -0.2313
43574SOL    HW137962  10.903   2.987   8.744 -0.3251 -0.4444  0.3129
43574SOL    HW237963  10.873   3.134   8.726 -0.9490 -0.6969 -0.8296
43575SOL     OW37964   1.911  12.599  11.930  0.3219  0.0589 -0.0807
43575SOL    HW137965   1.930  12.676  11.876  2.6221 -0.8188 -0.6587
43575SOL    HW237966   1.906  12.527  11.867  0.0803 -0.5458  0.6220
43576SOL     OW37967   3.921   2.962   4.528  0.2162  0.0953  0.6836
43576SOL    HW137968   3.878   2.955   4.614  0.7066 -1.2212  0.8438
43576SOL    HW237969   3.896   2.881   4.483  0.0009  0.7606 -0.4076
43577SOL     OW37970   1.314   9.744  11.769  0.2386 -0.2323  0.2411
43577SOL    HW137971   1.273   9.665  11.733 -0.3851 -0.1871  0.8241
43577SOL    HW237972   1.248   9.779  11.829  0.5820  0.6333  0.1258
43578SOL     OW37973   7.290   7.876   1.068  0.0399  0.1018  0.5908
43578SOL    HW137974   7.304   7.948   1.006  0.4349  2.0763  2.8341
43578SOL    HW237975   7.199   7.850   1.053  0.5698 -0.6203 -1.8719
43579SOL     OW37976  12.204   9.717   9.165  0.2905  0.3114 -0.7252
43579SOL    HW137977  12.209   9.810   9.142  1.1483  0.5756  0.4677
43579SOL    HW237978  12.281   9.701   9.219 -1.7226 -0.2152  2.1921
43580SOL     OW37979   0.844  10.155   6.904 -0.4043 -0.3879  0.3908
43580SOL    HW137980   0.804  10.228   6.856 -0.0611  0.0465  0.7554
43580SOL    HW237981   0.883  10.196   6.981 -0.2901 -0.9749  0.6503
43581SOL     OW37982  10.240   9.972   6.117 -0.0755  0.0296 -0.0005
43581SOL    HW137983  10.318  10.023   6.095 -0.7583  1.2128  0.2572
43581SOL    HW237984  10.210   9.938   6.033  1.6212 -1.8322  0.0759
43582SOL     OW37985  12.664  11.330   8.838 -0.4519 -0.1437  0.6845
43582SOL    HW137986  12.720  11.271   8.786 -0.7865 -0.1677  0.3457
43582SOL    HW237987  12.653  11.285   8.922 -1.2035 -0.8704  0.2178
43583SOL     OW37988   8.238  12.405   8.520 -0.4915 -0.2321 -0.1410
43583SOL    HW137989   8.322  12.394   8.565  0.7162  1.7404 -1.7544
43583SOL    HW237990   8.238  12.338   8.452  0.1025  0.2153 -0.5842
43584SOL     OW37991  10.977  10.377   7.473  0.0299  0.6120 -0.1180
43584SOL    HW137992  10.966  10.320   7.549  3.8656 -0.6855 -0.2954
43584SOL    HW237993  10.911  10.346   7.410 -1.7053  0.2194  1.7828
43585SOL     OW37994   4.751   5.091   0.274 -0.1018 -0.0338  0.2571
43585SOL    HW137995   4.845   5.100   0.289 -0.7427  2.6013  3.9063
43585SOL    HW237996   4.735   5.142   0.194  1.4327  0.0743 -0.0229
43586SOL     OW37997   3.040   0.353   9.284 -0.2577  1.1048  0.2810
43586SOL    HW137998   3.038   0.322   9.375 -1.7646 -1.1070 -0.4210
43586SOL    HW237999   2.961   0.316   9.244 -0.3004  3.0671 -1.6393
43587SOL     OW38000   4.486   8.638   6.839 -0.0573  0.1615 -0.0256
43587SOL    HW138001   4.466   8.621   6.931  0.6523 -0.3549  0.0393
43587SOL    HW238002   4.539   8.718   6.840  0.9520 -0.4940  0.1296
43588SOL     OW38003   2.901   7.142   3.171  0.3406 -0.2932 -0.1407
43588SOL    HW138004   2.981   7.089   3.178  0.2117 -0.4603  0.0657
43588SOL    HW238005   2.833   7.088   3.211  0.7075  1.0834  2.6059
43589SOL     OW38006   1.603   5.863   1.325  0.5396 -0.2049 -0.4148
43589SOL    HW138007   1.509   5.879   1.316  0.4045 -0.9398 -0.3545
43589SOL    HW238008   1.638   5.876   1.237  0.3087 -0.4180 -0.5377
43590SOL     OW38009   2.330   3.775   7.572  0.6056  0.0395 -0.7336
43590SOL    HW138010   2.273   3.848   7.547  0.1574  0.7220  1.9992
43590SOL    HW238011   2.270   3.704   7.595  0.9279 -0.1079 -0.3336
43591SOL     OW38012   7.111   0.295  11.748  0.0626 -0.1609  0.3696
43591SOL    HW138013   7.106   0.200  11.760  0.9983 -0.2294  0.3177
43591SOL    HW238014   7.176   0.324  11.813  1.4142  0.1412 -1.0646
43592SOL     OW38015   0.522  11.926   5.090  0.7332  0.6601 -0.5703
43592SOL    HW138016   0.504  11.919   5.184 -0.1980 -2.7747 -0.8769
43592SOL    HW238017   0.458  11.990   5.059 -0.8034 -0.1099  0.7886
43593SOL     OW38018  10.843   9.876   9.177 -0.2217 -1.0392  0.4716
43593SOL    HW138019  10.845   9.804   9.239  1.1805 -1.6154 -0.1924
43593SOL    HW238020  10.913   9.934   9.205 -1.2948  0.0692  0.9624
43594SOL     OW38021  12.024   3.280  12.547  0.0820  0.2816  0.1167
43594SOL    HW138022  11.990   3.232  12.622  2.1102 -1.7995 -0.2058
43594SOL    HW238023  11.946   3.312  12.501 -1.3134 -1.6663  1.0276
43595SOL     OW38024   1.253   9.247   2.238 -0.2849 -0.0716 -0.1262
43595SOL    HW138025   1.348   9.234   2.238 -0.0971  0.6657  2.5358
43595SOL    HW238026   1.217   9.159   2.223  0.8128 -0.5583 -0.0309
43596SOL     OW38027   0.074   4.329   0.967  0.0859 -0.5979 -0.3432
43596SOL    HW138028   0.162   4.322   1.004 -0.1188 -0.4760  0.1640
43596SOL    HW238029   0.051   4.239   0.943  0.2381 -0.6670 -0.2309
43597SOL     OW38030   8.755   7.654   8.412  0.4694 -0.3738  0.7970
43597SOL    HW138031   8.810   7.732   8.403  2.4382 -1.8865 -1.7950
43597SOL    HW238032   8.807   7.584   8.373 -2.4863 -2.3922  0.1581
43598SOL     OW38033   4.161   4.844   1.348 -0.0353 -0.2645 -0.5192
43598SOL    HW138034   4.153   4.845   1.253  1.5427 -0.9421 -0.6776
43598SOL    HW238035   4.167   4.751   1.371 -0.9705 -0.1375  0.3112
43599SOL     OW38036   2.604   3.548   2.445 -0.3321  0.1672 -0.3326
43599SOL    HW138037   2.606   3.642   2.427 -1.2084  0.0690 -1.0354
43599SOL    HW238038   2.528   3.516   2.396 -0.2086 -0.8630  0.1185
43600SOL     OW38039  11.045   0.551   0.601 -0.0649  0.7315  0.5400
43600SOL    HW138040  11.136   0.535   0.626  0.2499  2.1406  0.3736
43600SOL    HW238041  10.996   0.480   0.641  1.1798 -0.3831  0.1515
43601SOL     OW38042   0.066   0.151  10.983  0.0605 -0.1463 -0.1299
43601SOL    HW138043   0.124   0.080  11.012  1.0677  0.8276  0.3064
43601SOL    HW238044   0.113   0.194  10.912 -0.0099  0.7794  0.3576
43602SOL     OW38045   9.932   3.549  12.496  0.0179 -0.1371  0.2605
43602SOL    HW138046   9.865   3.596  12.446  1.0270  0.8353 -0.2179
43602SOL    HW238047  10.013   3.596  12.477  1.1187 -2.1483 -0.3459
43603SOL     OW38048   3.256   7.701  12.645 -0.7456  0.2997  0.0364
43603SOL    HW138049   3.346   7.672  12.656 -1.1592 -1.4842 -0.8577
43603SOL    HW238050   3.237   7.753  12.723  1.0537  0.7465  0.2060
43604SOL     OW38051   8.315  11.603  12.289  0.4926 -0.1367 -0.8867
43604SOL    HW138052   8.299  11.537  12.356  0.3562  0.0740 -0.7094
43604SOL    HW238053   8.311  11.556  12.206 -0.3542 -0.2181 -0.8102
43605SOL     OW38054   5.872   9.112   1.776  0.7180 -0.2726 -0.1041
43605SOL    HW138055   5.904   9.194   1.739 -1.4474  0.6956  0.0201
43605SOL    HW238056   5.831   9.066   1.703  1.2538 -0.9069 -0.0147
43606SOL     OW38057  11.412   1.537  11.101  0.2152 -0.1343  0.0231
43606SOL    HW138058  11.469   1.516  11.174  0.5242 -0.6724 -0.3675
43606SOL    HW238059  11.470   1.539  11.024 -0.1974 -0.1488 -0.2951
43607SOL     OW38060   6.641   0.045   9.507  0.2233  0.2587  0.1553
43607SOL    HW138061   6.707  -0.018   9.536 -0.1329 -0.2760 -0.1866
43607SOL    HW238062   6.574  -0.008   9.463  1.0597  1.0665 -2.2540
43608SOL     OW38063   9.325   6.182   5.745  0.6206 -0.3735  0.2987
43608SOL    HW138064   9.329   6.200   5.651 -0.7681  0.7160  0.4109
43608SOL    HW238065   9.362   6.095   5.755 -0.1021 -0.9148 -1.4033
43609SOL     OW38066   2.596  11.612  11.935 -0.1077 -0.0307  0.3697
43609SOL    HW138067   2.609  11.628  12.029 -1.0100  2.4615  0.1342
43609SOL    HW238068   2.519  11.554  11.931  0.5435 -0.9967  1.1540
43610SOL     OW38069  10.875   5.719  10.687 -0.1272 -0.0082  0.0418
43610SOL    HW138070  10.943   5.748  10.748 -1.5386  0.9500  1.2210
43610SOL    HW238071  10.900   5.758  10.604  1.7298 -1.1773 -0.0161
43611SOL     OW38072   0.623   0.397   8.058  0.5812 -0.0289 -0.1421
43611SOL    HW138073   0.661   0.325   8.110  0.6622  0.4291  0.4400
43611SOL    HW238074   0.549   0.427   8.110 -2.0491 -2.3363 -2.2310
43612SOL     OW38075   0.272   0.384   7.448 -1.0850 -0.4622  0.7786
43612SOL    HW138076   0.294   0.452   7.512 -0.1141  0.8060 -0.8407
43612SOL    HW238077   0.345   0.384   7.387 -2.3833 -1.0307 -0.8395
43613SOL     OW38078   7.988   1.866   3.662  0.4899  0.1765 -0.6652
43613SOL    HW138079   7.919   1.802   3.677  2.6611 -1.8680  1.2952
43613SOL    HW238080   7.957   1.945   3.707 -1.1655 -0.2187 -1.0422
43614SOL     OW38081   7.064   9.732   9.891  0.4412  0.0044 -0.5317
43614SOL    HW138082   7.149   9.709   9.926  0.5326  0.0355 -0.7318
43614SOL    HW238083   7.006   9.735   9.967  0.6161 -0.0249 -0.3986
43615SOL     OW38084   9.509  11.760   5.838 -0.8917  1.0568 -0.5284
43615SOL    HW138085   9.457  11.724   5.766 -2.1345  1.8434 -0.0551
43615SOL    HW238086   9.457  11.743   5.917  0.1575  0.7661  0.1201
43616SOL     OW38087   9.862   8.070  11.182 -0.1715  0.1483 -0.5099
43616SOL    HW138088   9.944   8.021  11.191 -1.3145 -1.7977 -0.0279
43616SOL    HW238089   9.888   8.155  11.147  2.0406 -0.4085 -0.3543
43617SOL     OW38090   3.974   4.327   8.488  0.3088 -0.0910 -0.1700
43617SOL    HW138091   3.880   4.330   8.466  0.2669  1.2211  0.0621
43617SOL    HW238092   4.016   4.371   8.414  0.8335 -1.2889 -0.6065
43618SOL     OW38093   6.214  11.801   7.168  0.1555  0.1741  0.4054
43618SOL    HW138094   6.195  11.788   7.261 -2.5598 -1.8495 -0.2907
43618SOL    HW238095   6.277  11.732   7.147  1.1223  0.9132  0.7715
43619SOL     OW38096   8.382   2.789   1.464  0.2335  0.6105  0.4551
43619SOL    HW138097   8.384   2.699   1.433  2.3317  1.1979 -1.3498
43619SOL    HW238098   8.374   2.782   1.559  0.3133 -1.4579  0.3456
43620SOL     OW38099   7.292  11.399   6.331 -0.4215  0.8172 -0.3829
43620SOL    HW138100   7.263  11.466   6.270 -0.8362  1.8174  0.8639
43620SOL    HW238101   7.369  11.436   6.373 -0.0551  0.0867 -0.3968
43621SOL     OW38102   7.540   6.423  12.154 -0.5249 -0.0637 -0.4671
43621SOL    HW138103   7.538   6.490  12.222  1.6414 -0.1533 -0.2495
43621SOL    HW238104   7.520   6.469  12.073  1.2579  0.9858 -0.3707
43622SOL     OW38105   9.443   3.947   6.378 -0.8429 -0.1945  0.7992
43622SOL    HW138106   9.452   3.916   6.288  0.5540 -0.1214  0.9001
43622SOL    HW238107   9.444   4.043   6.371  0.4132 -0.1864  0.9863
43623SOL     OW38108   6.891   4.034  11.649  0.3907 -0.3007  0.2731
43623SOL    HW138109   6.813   3.993  11.612 -0.3560  1.5066 -0.2661
43623SOL    HW238110   6.874   4.037  11.743 -0.4468  0.5505  0.1079
43624SOL     OW38111  12.582   2.711   4.362  0.1595 -0.1698 -0.0893
43624SOL    HW138112  12.586   2.793   4.411  1.8193  0.1491 -0.7065
43624SOL    HW238113  12.589   2.738   4.270  1.8969 -1.0377 -0.2550
43625SOL     OW38114   2.482   1.412   1.155 -0.3179  0.1779  0.7404
43625SOL    HW138115   2.485   1.468   1.233 -2.1661 -0.0988  1.0640
43625SOL    HW238116   2.527   1.332   1.180  1.4912  1.1079  0.5964
43626SOL     OW38117   2.408   9.408  12.685 -0.2965 -0.0327 -0.0871
43626SOL    HW138118   2.452   9.337  12.638  1.6076 -0.3922  2.0827
43626SOL    HW238119   2.386   9.471  12.616 -0.4816 -1.8958 -1.8497
43627SOL     OW38120   2.199   5.493   6.199 -0.4830  0.2270 -0.4627
43627SOL    HW138121   2.266   5.429   6.223 -0.6145  0.0592 -0.5341
43627SOL    HW238122   2.205   5.499   6.104  2.0781  3.1239 -0.2749
43628SOL     OW38123  10.824  12.102   8.076 -0.4423 -1.0362 -0.2658
43628SOL    HW138124  10.759  12.043   8.039  1.1061 -3.3438  0.4577
43628SOL    HW238125  10.855  12.056   8.155  2.9843 -0.7323 -1.2930
43629SOL     OW38126   9.853   4.586   5.124  0.4300 -0.1817 -0.3940
43629SOL    HW138127   9.867   4.643   5.048  1.4007  0.9342  0.5813
43629SOL    HW238128   9.859   4.497   5.089  2.0214  0.2963 -1.4534
43630SOL     OW38129   9.714   7.423   0.084  0.1514  0.5194 -0.4498
43630SOL    HW138130   9.804   7.408   0.111 -0.4337 -1.3137  0.6859
43630SOL    HW238131   9.680   7.487   0.147  0.3472  0.3387 -0.1564
43631SOL     OW38132   4.963   3.240   7.014 -0.0589 -0.0269 -0.3285
43631SOL    HW138133   5.026   3.243   7.086  0.7938 -1.0443 -0.9931
43631SOL    HW238134   4.878   3.255   7.055  0.6106  1.3863  0.5812
43632SOL     OW38135  11.458  11.384  11.031  0.0081  0.0192  0.3948
43632SOL    HW138136  11.476  11.291  11.019  0.7886 -0.0943  2.2085
43632SOL    HW238137  11.461  11.397  11.126  0.3576  1.9817  0.1494
43633SOL     OW38138   2.403   9.730   8.983 -0.5256  0.1667 -0.1772
43633SOL    HW138139   2.488   9.737   8.940 -0.4489  0.5229  0.0297
43633SOL    HW238140   2.407   9.793   9.055 -0.2604 -1.1580  1.0170
43634SOL     OW38141   8.778   5.203   5.618  0.4347  0.3664  0.3539
43634SOL    HW138142   8.854   5.256   5.640  0.2795  1.1012 -0.7981
43634SOL    HW238143   8.750   5.235   5.532  1.8510 -3.2194 -1.6715
43635SOL     OW38144   6.639   5.752   3.795  0.0848 -0.9355  0.3454
43635SOL    HW138145   6.577   5.814   3.755  0.1858 -1.7641 -1.1543
43635SOL    HW238146   6.599   5.666   3.781 -0.2015 -1.2461  2.6707
43636SOL     OW38147   5.099   3.504   4.984  0.2527 -0.8197 -0.4723
43636SOL    HW138148   5.109   3.599   4.988 -0.2868 -0.7682 -0.3739
43636SOL    HW238149   5.111   3.475   5.075 -1.6889 -0.6380 -0.1344
43637SOL     OW38150   0.723  11.261   3.772  0.2134 -0.3842  0.0666
43637SOL    HW138151   0.753  11.238   3.860 -0.9915  0.1456  0.6300
43637SOL    HW238152   0.670  11.187   3.744  3.3273 -2.1599 -1.6603
43638SOL     OW38153   6.806   4.646   1.764 -0.0247 -0.6145  0.0772
43638SOL    HW138154   6.803   4.630   1.670 -0.2632 -1.2457  0.1835
43638SOL    HW238155   6.843   4.733   1.773  1.0267 -0.9759 -0.5684
43639SOL     OW38156   9.348   5.765   6.127 -0.1127  0.1026 -1.4365
43639SOL    HW138157   9.419   5.701   6.118  0.7680  1.0230 -1.3623
43639SOL    HW238158   9.281   5.721   6.179  2.5595  0.8080  3.2003
43640SOL     OW38159  10.331  10.772  10.895 -0.3004 -0.2636  0.2718
43640SOL    HW138160  10.333  10.678  10.911  2.5509 -0.3633 -0.0611
43640SOL    HW238161  10.318  10.780  10.800 -0.8361 -0.3021  0.3409
43641SOL     OW38162   4.640  11.173  12.253 -0.0050 -0.3045  0.0636
43641SOL    HW138163   4.707  11.117  12.291  0.7071  0.0485 -0.6421
43641SOL    HW238164   4.671  11.262  12.266 -1.1764 -0.0265  1.2585
43642SOL     OW38165   5.476   3.977   4.134 -0.1254 -0.2507 -0.0629
43642SOL    HW138166   5.430   4.060   4.134  0.2825 -0.0141 -0.7852
43642SOL    HW238167   5.470   3.945   4.225 -1.2757 -0.0023 -0.0471
43643SOL     OW38168   8.325   0.101   2.776  0.1207 -0.0162  0.2765
43643SOL    HW138169   8.271   0.026   2.751 -1.3092  0.1156  2.7436
43643SOL    HW238170   8.406   0.089   2.726 -1.4545 -1.1768 -2.1921
43644SOL     OW38171  11.912   5.709   4.008  0.4756 -0.2411 -0.1016
43644SOL    HW138172  11.994   5.698   4.057  1.1789 -1.2076 -1.4452
43644SOL    HW238173  11.857   5.636   4.035  0.3776 -0.0624  0.1822
43645SOL     OW38174   4.732   4.954   9.965 -0.0557  0.3865 -0.1060
43645SOL    HW138175   4.689   4.946   9.880  1.3471  0.0591 -0.8268
43645SOL    HW238176   4.662   4.948  10.029 -1.2477  1.4392 -1.2512
43646SOL     OW38177  10.903   9.678  12.416  0.3474  0.0037  0.4860
43646SOL    HW138178  10.927   9.641  12.501  0.0597  3.2195  2.1368
43646SOL    HW238179  10.977   9.734  12.392 -0.6282  1.0858 -0.1112
43647SOL     OW38180  12.197  11.087   3.355  0.4964  0.3358 -0.1184
43647SOL    HW138181  12.128  11.022   3.349 -0.2147  1.1128 -0.6797
43647SOL    HW238182  12.230  11.095   3.265 -1.6173  3.0013 -0.8046
43648SOL     OW38183   1.365   6.093   9.460  0.0677  0.2858  0.0752
43648SOL    HW138184   1.332   6.003   9.458  1.7579 -0.3543 -0.5992
43648SOL    HW238185   1.313   6.135   9.528 -1.4868 -0.8908 -0.2996
43649SOL     OW38186   4.035   4.664   3.397 -0.6567 -0.3896 -0.6255
43649SOL    HW138187   4.078   4.579   3.411 -1.7332 -1.0798 -1.2937
43649SOL    HW238188   4.056   4.715   3.475  1.7543 -0.4882 -1.1152
43650SOL     OW38189   8.621  12.677   3.030 -0.2995  0.0374 -0.0161
43650SOL    HW138190   8.576  12.608   3.079  0.5877 -1.0406 -0.6541
43650SOL    HW238191   8.563  12.752   3.036 -1.3764 -0.8017  0.5868
43651SOL     OW38192   2.292   2.884   5.247  0.0535 -0.2000  0.3295
43651SOL    HW138193   2.272   2.790   5.250  2.5804 -0.8084 -0.1036
43651SOL    HW238194   2.274   2.914   5.336 -0.7295 -1.0944  0.4992
43652SOL     OW38195   0.672   1.870   4.762 -0.0327 -0.0739  0.0690
43652SOL    HW138196   0.743   1.843   4.820 -0.0627  0.3997  0.3352
43652SOL    HW238197   0.602   1.807   4.778 -0.1678  0.2552  0.8080
43653SOL     OW38198   9.228  12.206   3.449  0.0369 -0.2730  0.0008
43653SOL    HW138199   9.309  12.239   3.410 -0.2163  0.1438 -0.1846
43653SOL    HW238200   9.245  12.113   3.465  0.0586 -0.5281 -1.3583
43654SOL     OW38201  12.393  12.673   5.776 -0.0717 -0.0085  0.3265
43654SOL    HW138202  12.316  12.622   5.803 -0.4192  0.5177  0.3286
43654SOL    HW238203  12.357  12.746   5.725  0.5201 -0.5687 -0.9378
43655SOL     OW38204   9.081   2.956   7.200 -0.0299  0.3427 -0.7466
43655SOL    HW138205   9.112   2.879   7.152  0.4497  1.5570 -2.4933
43655SOL    HW238206   8.993   2.972   7.166 -1.1285 -0.7873  1.3616
43656SOL     OW38207  11.505   2.392   8.201  0.1565  0.3131 -0.5054
43656SOL    HW138208  11.548   2.316   8.237 -0.9418  0.1284  0.4838
43656SOL    HW238209  11.493   2.451   8.276 -1.0424  0.4587 -0.7904
43657SOL     OW38210   0.521   1.494   0.918 -0.2896  0.3757 -0.4725
43657SOL    HW138211   0.544   1.576   0.962  0.6339  0.1820 -0.5690
43657SOL    HW238212   0.449   1.518   0.860  0.3215  1.2525 -0.9061
43658SOL     OW38213   6.928   2.108  11.693 -0.1695 -0.1041 -0.1658
43658SOL    HW138214   6.898   2.092  11.603 -0.1170 -1.2123 -0.0015
43658SOL    HW238215   6.887   2.191  11.717 -2.6919 -1.2495 -0.1554
43659SOL     OW38216   0.119   7.158   4.049 -0.1145  0.0678 -0.2665
43659SOL    HW138217   0.157   7.073   4.029  0.4956  0.6632 -1.8642
43659SOL    HW238218   0.096   7.194   3.963 -0.7528  1.3383  0.4077
43660SOL     OW38219   7.104   7.762   9.299  0.4263  0.2726 -0.2082
43660SOL    HW138220   7.198   7.773   9.283  0.3081  0.3960 -0.8608
43660SOL    HW238221   7.062   7.791   9.217 -0.1615 -0.0698 -0.0359
43661SOL     OW38222   3.740   4.640   9.865 -0.0381  0.1110  0.5518
43661SOL    HW138223   3.654   4.608   9.893 -0.4333 -1.4540 -2.1004
43661SOL    HW238224   3.724   4.678   9.779  2.1896 -1.9641 -0.8889
43662SOL     OW38225   7.789   5.567   1.087 -0.2478  0.5296  0.3386
43662SOL    HW138226   7.786   5.471   1.081  0.7697  0.4527  0.9339
43662SOL    HW238227   7.882   5.588   1.085 -0.4776  1.6956 -2.1264
43663SOL     OW38228  11.075   7.430   3.743  0.6952  0.0101 -0.2083
43663SOL    HW138229  11.033   7.363   3.796 -1.8682  3.2763  2.3490
43663SOL    HW238230  11.110   7.383   3.668 -0.9004 -4.0937  1.3281
43664SOL     OW38231   0.307   4.624   3.418  0.8821 -0.4232  0.1229
43664SOL    HW138232   0.303   4.633   3.513 -0.4445 -0.6701  0.1192
43664SOL    HW238233   0.366   4.551   3.403  1.2294 -0.2775  0.7465
43665SOL     OW38234   6.764   1.773   6.730  0.2184  0.6160  0.1081
43665SOL    HW138235   6.776   1.865   6.708  0.4437  0.2734 -1.3757
43665SOL    HW238236   6.812   1.760   6.812 -1.9483  2.3463  1.7440
43666SOL     OW38237   0.859  11.230   5.599  0.0970  0.6273  0.5787
43666SOL    HW138238   0.782  11.287   5.596 -0.6350 -0.3512  0.2580
43666SOL    HW238239   0.930  11.286   5.630 -0.7071  1.5907  0.6984
43667SOL     OW38240   9.952   5.342   0.086  0.0857  0.5766 -0.2834
43667SOL    HW138241  10.042   5.344   0.053  0.5301  2.3432  0.9241
43667SOL    HW238242   9.960   5.311   0.176 -0.4346  1.3533  0.0392
43668SOL     OW38243   4.712   9.134   1.011  0.4547 -0.0979  0.3702
43668SOL    HW138244   4.704   9.220   0.970  0.1758  0.0285  0.6858
43668SOL    HW238245   4.641   9.131   1.075 -0.5177 -1.1790 -0.7167
43669SOL     OW38246   3.828  11.220   9.501 -0.2124  0.1037 -0.2716
43669SOL    HW138247   3.815  11.226   9.406 -0.3726 -0.3581 -0.2819
43669SOL    HW238248   3.815  11.127   9.521  1.3505 -0.0817 -0.0277
43670SOL     OW38249   3.751   8.338   7.066 -0.0699  0.0250  0.0231
43670SOL    HW138250   3.807   8.316   6.992  0.6697  1.3213  0.1690
43670SOL    HW238251   3.713   8.423   7.043  0.2359  0.4864  1.1482
43671SOL     OW38252   1.913  10.611   2.960  0.4166 -0.1775  0.2023
43671SOL    HW138253   1.871  10.612   3.045 -0.8292 -0.9072 -0.3774
43671SOL    HW238254   1.912  10.519   2.933 -0.1806  0.1665 -1.0480
43672SOL     OW38255   1.774   2.330   9.725 -0.5815  0.0560 -0.0654
43672SOL    HW138256   1.823   2.268   9.779 -0.8752  0.2084  0.3793
43672SOL    HW238257   1.841   2.374   9.673 -0.1637  0.7753  1.0645
43673SOL     OW38258   7.634   4.702   6.041 -0.4485  0.4731  0.1873
43673SOL    HW138259   7.639   4.796   6.024 -2.0834  0.3483 -1.2589
43673SOL    HW238260   7.551   4.690   6.086 -0.5562 -0.3450 -0.2161
43674SOL     OW38261  11.246   2.565  11.042  0.0083  0.3585  0.0199
43674SOL    HW138262  11.180   2.499  11.064 -0.6288  1.2541  0.8314
43674SOL    HW238263  11.257   2.616  11.122  1.4304  0.4556 -0.2072
43675SOL     OW38264   8.126   8.674   3.626  0.0003  0.0850 -0.4840
43675SOL    HW138265   8.218   8.665   3.601 -0.4957 -2.0931 -1.7523
43675SOL    HW238266   8.089   8.732   3.560  0.2622  0.2357 -0.5011
43676SOL     OW38267   2.204  10.093  12.646 -0.2291 -0.3599 -0.2283
43676SOL    HW138268   2.147  10.061  12.576 -0.7142  0.8044 -0.3767
43676SOL    HW238269   2.145  10.113  12.718  0.1635 -0.5672  0.1579
43677SOL     OW38270   8.490   1.285   9.712  0.5599 -0.4411  0.1903
43677SOL    HW138271   8.504   1.375   9.681  0.2131 -1.0350 -1.8251
43677SOL    HW238272   8.395   1.272   9.703  0.8141 -1.5406 -1.1805
43678SOL     OW38273   2.799   2.899   3.546  0.2683 -0.1357  0.3711
43678SOL    HW138274   2.756   2.983   3.561 -0.4430 -0.5348  0.5986
43678SOL    HW238275   2.887   2.922   3.517 -0.0947  0.6886 -0.0866
43679SOL     OW38276   4.326   6.215   6.866  0.0706  0.3362  0.2788
43679SOL    HW138277   4.331   6.198   6.960 -0.2098  0.0794  0.2482
43679SOL    HW238278   4.237   6.189   6.841  0.8983 -1.9791 -0.5103
43680SOL     OW38279   9.537   1.506   8.588  0.3239 -0.0643 -0.2883
43680SOL    HW138280   9.622   1.549   8.597  0.8617 -0.7262 -1.8163
43680SOL    HW238281   9.475   1.578   8.580  0.5293  0.4499  2.1374
43681SOL     OW38282  10.909   6.928  11.770 -0.7405  0.5031 -1.0370
43681SOL    HW138283  10.915   7.018  11.802  3.7315 -0.2587  1.1218
43681SOL    HW238284  10.940   6.933  11.679  0.0554  1.1401 -0.7420
43682SOL     OW38285   0.326   9.078   8.008 -0.0930  0.4248 -0.8347
43682SOL    HW138286   0.301   9.017   7.938 -0.1753  0.3723 -0.7594
43682SOL    HW238287   0.422   9.081   8.004 -0.1744  2.1958 -2.4513
43683SOL     OW38288   0.207   3.482  10.444 -0.3214  0.6267  0.0038
43683SOL    HW138289   0.135   3.427  10.414  0.3366 -0.5588  0.5460
43683SOL    HW238290   0.248   3.514  10.364  0.3335 -1.0820 -0.3911
43684SOL     OW38291   3.211   6.549   7.226 -0.2306 -0.0551  0.5246
43684SOL    HW138292   3.124   6.531   7.261 -0.8797  0.6230 -0.6495
43684SOL    HW238293   3.197   6.558   7.131  1.1919 -0.3698  0.2638
43685SOL     OW38294   3.911   3.474   5.882 -0.6487 -0.1190 -0.0651
43685SOL    HW138295   3.944   3.388   5.909  0.6267  0.9386  2.0335
43685SOL    HW238296   3.817   3.463   5.877 -0.6938 -1.2581  1.9982
43686SOL     OW38297   5.534  11.224   6.463 -0.0292  0.5742  0.2203
43686SOL    HW138298   5.556  11.283   6.535 -0.6115  1.6004 -0.4226
43686SOL    HW238299   5.488  11.152   6.506 -1.9140  1.9946  0.7244
43687SOL     OW38300  11.271   2.019   6.124  0.2678  0.0741  0.0460
43687SOL    HW138301  11.223   1.937   6.134 -0.1817 -0.2156 -3.1594
43687SOL    HW238302  11.222   2.082   6.176  0.1577 -1.4796  1.9344
43688SOL     OW38303  10.533  11.404   3.380 -0.2200 -0.1686  0.1226
43688SOL    HW138304  10.497  11.318   3.402 -0.8082 -0.0054 -0.1706
43688SOL    HW238305  10.623  11.386   3.353 -1.1903 -1.1318 -2.8438
43689SOL     OW38306   3.082   2.077  12.146 -0.2859  0.4228  0.1040
43689SOL    HW138307   3.031   2.148  12.106 -2.2282  0.3296  2.2112
43689SOL    HW238308   3.020   2.032  12.203  1.4319 -1.6858  0.4314
43690SOL     OW38309   4.111   0.436   7.991 -0.2983 -0.0259  0.4164
43690SOL    HW138310   4.127   0.356   8.040 -1.6593 -1.1561 -0.8725
43690SOL    HW238311   4.032   0.473   8.031 -0.3382  0.0608  0.2567
43691SOL     OW38312   5.572   1.292   9.845 -0.3062  0.1636 -0.9000
43691SOL    HW138313   5.480   1.280   9.868 -0.2255  2.3512  0.9433
43691SOL    HW238314   5.572   1.305   9.750 -2.2254  2.2411 -0.7027
43692SOL     OW38315   7.873   8.980   7.314 -0.0845  0.4937  0.1514
43692SOL    HW138316   7.814   8.991   7.389 -1.4178 -0.9408 -0.6152
43692SOL    HW238317   7.950   8.936   7.350  0.5178  2.2686  1.1466
43693SOL     OW38318  11.603  10.450   9.041  0.3251  0.4208 -0.5726
43693SOL    HW138319  11.592  10.405   8.957  1.5889  0.1903 -0.6375
43693SOL    HW238320  11.687  10.497   9.032  0.4355  0.4629  0.5239
43694SOL     OW38321   2.901   0.295   2.701  0.3059 -0.0592  0.2527
43694SOL    HW138322   2.988   0.327   2.677 -0.0335  0.4455 -0.3458
43694SOL    HW238323   2.886   0.330   2.789  1.4175 -1.6256  1.1243
43695SOL     OW38324   8.274   5.109   1.399  0.0098 -0.4350  0.2796
43695SOL    HW138325   8.316   5.181   1.446  1.1090 -1.1716  0.4620
43695SOL    HW238326   8.321   5.104   1.316  0.4373 -1.3898  0.5658
43696SOL     OW38327   9.981  12.583   4.567  0.0597  0.1925  0.3500
43696SOL    HW138328   9.920  12.651   4.539  0.3890  0.0565 -0.7585
43696SOL    HW238329  10.015  12.547   4.485  1.7624  0.3956  0.9264
43697SOL     OW38330   4.041   5.359   5.058 -0.0221 -0.3043 -0.3533
43697SOL    HW138331   3.970   5.303   5.088 -0.2790 -0.0168 -0.4235
43697SOL    HW238332   4.076   5.398   5.139 -0.0973 -0.2641 -0.3397
43698SOL     OW38333   6.883   9.818   3.680  0.1212  0.2241  0.3692
43698SOL    HW138334   6.849   9.777   3.601  0.9743 -1.8828  1.0185
43698SOL    HW238335   6.804   9.841   3.730 -0.4535 -2.1420  0.6675
43699SOL     OW38336   5.450   8.857   6.768 -0.6408 -0.4017 -0.6490
43699SOL    HW138337   5.388   8.924   6.795 -0.5553  0.0862 -1.6057
43699SOL    HW238338   5.531   8.878   6.815 -0.8279 -0.2735 -0.3835
43700SOL     OW38339  12.355   1.895  11.719  0.1495  0.1603  0.4790
43700SOL    HW138340  12.348   1.853  11.804 -1.3781 -0.2780  0.1576
43700SOL    HW238341  12.292   1.967  11.723 -1.8784 -1.4170 -1.1360
43701SOL     OW38342  11.558  10.114   5.527  0.1387  0.4479 -0.3533
43701SOL    HW138343  11.521  10.101   5.614 -2.4318 -0.4187 -1.4947
43701SOL    HW238344  11.574  10.026   5.494  1.0314  0.7658 -0.8305
43702SOL     OW38345   9.777   3.446   0.763  0.4909 -0.4652  0.9844
43702SOL    HW138346   9.738   3.502   0.697  0.7672  0.6259  1.7135
43702SOL    HW238347   9.870   3.443   0.741  0.3362 -1.4315  0.4032
43703SOL     OW38348   3.729   8.514   6.680 -0.2216 -1.0172  0.1162
43703SOL    HW138349   3.768   8.600   6.695 -0.3883 -0.9497  0.1700
43703SOL    HW238350   3.780   8.454   6.734  0.6932 -1.1551 -0.8636
43704SOL     OW38351   2.114   1.919  10.316 -0.3485 -0.3795  0.0454
43704SOL    HW138352   2.042   1.856  10.323  0.4001 -1.4168 -1.1630
43704SOL    HW238353   2.090   1.973  10.240 -0.9764  0.8308  1.0587
43705SOL     OW38354   9.927   4.904   6.556 -0.2470  0.1930 -0.1983
43705SOL    HW138355   9.934   4.914   6.461  0.9194  0.0087 -0.1397
43705SOL    HW238356   9.896   4.814   6.569  3.8901 -1.4731 -0.3436
43706SOL     OW38357  12.409   1.416   4.443  0.9700  0.2866 -0.0299
43706SOL    HW138358  12.433   1.405   4.350  1.4081  2.0601 -0.1663
43706SOL    HW238359  12.320   1.383   4.449  1.6534 -1.8280 -0.5996
43707SOL     OW38360   3.975  10.900   2.561  0.2334  0.0240  0.7453
43707SOL    HW138361   3.967  10.960   2.486  1.7163 -1.4760 -0.6850
43707SOL    HW238362   3.917  10.827   2.539 -0.2368  0.1071  1.6591
43708SOL     OW38363   9.661   0.459   8.793 -0.4894  0.4343 -0.3759
43708SOL    HW138364   9.682   0.381   8.843 -0.4215 -0.0290 -1.1130
43708SOL    HW238365   9.568   0.449   8.771 -0.7296  1.0313  0.3473
43709SOL     OW38366   9.012   0.386  10.880  0.5334  0.1578 -0.4227
43709SOL    HW138367   8.947   0.410  10.814  2.7209 -0.9212 -3.1795
43709SOL    HW238368   9.008   0.291  10.884  1.3450  0.1302 -0.0041
43710SOL     OW38369   7.797   3.290   4.178  0.8627 -0.6119  0.2373
43710SOL    HW138370   7.829   3.341   4.104 -0.6960 -0.2348 -0.2051
43710SOL    HW238371   7.801   3.199   4.149  1.4707 -0.5781  0.1889
43711SOL     OW38372   8.858   8.415   7.982 -0.5407  0.0399 -0.4623
43711SOL    HW138373   8.925   8.472   8.020  0.1133 -1.0813  0.1406
43711SOL    HW238374   8.886   8.402   7.891 -0.5084  0.4132 -0.5048
43712SOL     OW38375   9.329   2.333   2.731 -0.1109 -0.1397 -0.1247
43712SOL    HW138376   9.414   2.292   2.718  0.0504 -0.2557  1.1655
43712SOL    HW238377   9.267   2.261   2.730 -0.4470  0.0965 -2.7818
43713SOL     OW38378   8.105   5.428  10.051  0.0223  0.0732  0.5435
43713SOL    HW138379   8.084   5.340  10.082 -0.4258 -0.5512 -1.4275
43713SOL    HW238380   8.023   5.475  10.055 -0.4601 -0.5432 -1.3097
43714SOL     OW38381   8.433   0.633   8.749 -0.1084  0.1330 -0.4970
43714SOL    HW138382   8.524   0.615   8.724  0.0122  0.6556 -0.4473
43714SOL    HW238383   8.423   0.727   8.736 -0.4755  0.1708  0.0449
43715SOL     OW38384  12.407   2.416   3.849  0.2225  0.6714  0.1521
43715SOL    HW138385  12.468   2.347   3.823 -1.4751 -0.6386 -0.6384
43715SOL    HW238386  12.345   2.371   3.908 -1.7033  1.1096 -1.4089
43716SOL     OW38387   0.008   0.970   7.276  0.0030 -1.0503  0.0833
43716SOL    HW138388  -0.075   0.992   7.234  0.7872  0.6408 -0.6622
43716SOL    HW238389   0.055   0.918   7.211  1.7379  2.6180 -1.8288
43717SOL     OW38390   7.153   5.471   8.612 -0.3582  0.1991 -0.2971
43717SOL    HW138391   7.060   5.490   8.626 -1.0305 -2.7987 -0.0313
43717SOL    HW238392   7.164   5.380   8.642  2.6489  0.4046 -0.4462
43718SOL     OW38393  11.783   0.227   2.462  0.1626  0.0576 -0.3966
43718SOL    HW138394  11.824   0.310   2.487 -0.0183  0.1613 -0.4435
43718SOL    HW238395  11.781   0.176   2.543 -0.8769  0.5783 -0.0748
43719SOL     OW38396  10.367  11.780   0.062 -0.6838  0.3135  0.4292
43719SOL    HW138397  10.413  11.767  -0.021 -1.1165 -1.3697  0.4202
43719SOL    HW238398  10.433  11.819   0.119 -0.5179  1.9590 -0.8116
43720SOL     OW38399   8.358   2.013  12.230  0.0018 -0.6299  0.1512
43720SOL    HW138400   8.337   1.936  12.176 -2.0273 -0.8891  1.2127
43720SOL    HW238401   8.306   2.084  12.191  0.9475 -0.0608 -0.0968
43721SOL     OW38402   4.668   9.522   0.623 -0.2767  0.2549 -0.3897
43721SOL    HW138403   4.662   9.601   0.677  0.9193  0.1688 -0.1072
43721SOL    HW238404   4.578   9.493   0.612 -0.5520  0.2348  1.6371
43722SOL     OW38405   3.534  10.859  12.570  0.2147  0.3527  0.0805
43722SOL    HW138406   3.462  10.805  12.603 -0.6941  0.9472 -0.8605
43722SOL    HW238407   3.532  10.937  12.625 -0.5507  0.8218 -0.5710
43723SOL     OW38408  11.736  12.527   6.945 -0.0697 -0.5926 -0.0163
43723SOL    HW138409  11.720  12.620   6.930 -0.5180 -0.8434 -1.1816
43723SOL    HW238410  11.650  12.491   6.969  0.3116 -0.5190  1.5475
43724SOL     OW38411   3.653   3.532  10.024 -0.1986 -0.0680  0.0317
43724SOL    HW138412   3.705   3.506   9.949 -1.6917  0.6420 -1.3035
43724SOL    HW238413   3.682   3.621  10.044 -1.5730  0.7292 -1.3807
43725SOL     OW38414   3.673   3.767   6.437  0.1334 -0.3339  0.0989
43725SOL    HW138415   3.763   3.777   6.404  0.8380  0.3992  2.0985
43725SOL    HW238416   3.680   3.696   6.502 -0.8283 -0.5595 -0.0389
43726SOL     OW38417   4.699   8.526  10.735 -0.2291 -0.0434 -0.0191
43726SOL    HW138418   4.672   8.586  10.666  3.9868  1.4446 -0.6726
43726SOL    HW238419   4.664   8.563  10.815 -0.0551  1.7833 -0.7418
43727SOL     OW38420   5.829   9.351   3.147  0.3468  0.5039 -0.0042
43727SOL    HW138421   5.777   9.425   3.115 -0.1303  0.1760  0.0064
43727SOL    HW238422   5.816   9.353   3.242 -0.1880  0.0149 -0.0672
43728SOL     OW38423   3.901   2.784   8.444  0.2618  0.5553 -0.3577
43728SOL    HW138424   3.920   2.765   8.536 -0.2313  1.1024 -0.1411
43728SOL    HW238425   3.910   2.699   8.400 -0.5390  0.0803  0.3720
43729SOL     OW38426   1.122  11.705   8.526  0.1988  0.3055 -0.5188
43729SOL    HW138427   1.120  11.778   8.464  0.3323  0.1859 -0.6659
43729SOL    HW238428   1.213  11.699   8.553  0.8484 -1.6780 -2.7648
43730SOL     OW38429   7.163  11.296   3.866 -0.0829  0.4408 -0.0322
43730SOL    HW138430   7.137  11.363   3.802 -0.4076  1.8111  1.4675
43730SOL    HW238431   7.226  11.340   3.922  0.2918 -0.7751  0.5231
43731SOL     OW38432   6.108   8.474   2.985  0.5354  0.0358  0.4415
43731SOL    HW138433   6.153   8.500   3.066 -1.5711  0.1670  1.6303
43731SOL    HW238434   6.129   8.381   2.975 -2.0101 -1.0156  3.2448
43732SOL     OW38435   2.721   4.221   5.274 -0.2743  0.1074  0.0115
43732SOL    HW138436   2.679   4.284   5.215  1.5128 -0.0358 -1.5021
43732SOL    HW238437   2.809   4.256   5.288 -0.1159 -0.7256  1.3033
43733SOL     OW38438   4.678   5.676   1.646 -0.1432  0.1613 -0.6257
43733SOL    HW138439   4.666   5.708   1.735 -0.6402 -0.4868 -0.4585
43733SOL    HW238440   4.674   5.755   1.592  0.0620  0.5449 -0.0906
43734SOL     OW38441   8.662   6.009   1.000 -0.3737  0.0361 -0.1772
43734SOL    HW138442   8.749   5.976   1.021 -0.1219  0.3326 -0.7290
43734SOL    HW238443   8.678   6.080   0.938 -0.9991  0.2046 -0.1518
43735SOL     OW38444   3.539  11.323   2.227 -0.6305  0.3483  0.1942
43735SOL    HW138445   3.563  11.234   2.203  0.1828  0.2710  1.2492
43735SOL    HW238446   3.448  11.316   2.256 -0.4426 -0.2311  0.6756
43736SOL     OW38447  12.575   2.195   7.748 -0.3865 -0.4743  0.5393
43736SOL    HW138448  12.504   2.185   7.812 -1.2437  0.4110 -0.2351
43736SOL    HW238449  12.655   2.194   7.801 -1.1183  1.5759  1.8167
43737SOL     OW38450  10.972   1.821   7.922 -0.4246  0.6947 -0.5222
43737SOL    HW138451  11.003   1.736   7.889  0.2329  0.7816 -0.1345
43737SOL    HW238452  11.044   1.881   7.904 -0.8019  1.1330 -0.5907
43738SOL     OW38453   0.733   8.524   1.320  0.0733  0.0671 -0.2553
43738SOL    HW138454   0.807   8.473   1.353 -0.7281 -1.2370 -0.4072
43738SOL    HW238455   0.740   8.518   1.225  0.2486  0.6388 -0.2763
43739SOL     OW38456  11.982   3.397  10.736  0.2295 -0.3662  0.3657
43739SOL    HW138457  12.023   3.319  10.775 -1.7640 -0.8283  1.7201
43739SOL    HW238458  11.891   3.371  10.723 -0.2062  1.3846 -0.2648
43740SOL     OW38459   2.672   2.443   2.519 -0.7009  0.4176  0.4021
43740SOL    HW138460   2.653   2.362   2.566  0.4837  1.0099  1.9989
43740SOL    HW238461   2.765   2.459   2.536 -0.6273  1.5079 -0.8612
43741SOL     OW38462  12.711  10.112   3.535 -0.0966 -0.1842 -0.0219
43741SOL    HW138463  12.618  10.113   3.557  0.0063  1.6716  0.4913
43741SOL    HW238464  12.714  10.088   3.443 -1.3314  2.4014 -0.8201
43742SOL     OW38465   6.912   0.332   5.349 -0.4836 -0.2303  0.0645
43742SOL    HW138466   7.005   0.308   5.356 -0.4561 -0.7089 -1.4573
43742SOL    HW238467   6.881   0.284   5.272 -2.0491 -0.2114  0.6484
43743SOL     OW38468  11.260   0.600  10.772  0.1867  0.1472  0.3123
43743SOL    HW138469  11.306   0.524  10.736 -0.9249 -0.4518  0.1018
43743SOL    HW238470  11.167   0.580  10.758 -0.1920  0.8163  1.7009
43744SOL     OW38471   9.693  12.216   7.847  0.4811 -0.0718  0.2988
43744SOL    HW138472   9.710  12.162   7.925  1.4106 -0.0372  0.1291
43744SOL    HW238473   9.775  12.263   7.832  1.5158 -2.4751 -2.5915
43745SOL     OW38474   3.292   7.469  11.374  0.2630  0.0002 -0.1342
43745SOL    HW138475   3.230   7.406  11.412  0.3732  0.0752  0.1722
43745SOL    HW238476   3.287   7.546  11.431 -1.0220  0.8881 -1.3810
43746SOL     OW38477   5.218   8.515   7.926  0.4037  0.3474 -0.6018
43746SOL    HW138478   5.214   8.427   7.889  0.5123 -0.6517  1.5544
43746SOL    HW238479   5.128   8.545   7.927  0.2693 -0.0445 -0.6976
43747SOL     OW38480   2.398   9.574   8.330 -0.1058  0.0551  0.3364
43747SOL    HW138481   2.398   9.659   8.286 -2.2470  0.8131  1.6182
43747SOL    HW238482   2.490   9.549   8.335  0.4281  1.1781 -2.0933
43748SOL     OW38483   0.612   7.706   3.736  0.1759  0.1549  0.5409
43748SOL    HW138484   0.569   7.791   3.733 -0.4011 -0.0725  1.8012
43748SOL    HW238485   0.644   7.692   3.647 -2.6937  0.1691 -0.5782
43749SOL     OW38486   4.989   9.373   7.894 -0.0265 -0.0005 -0.0847
43749SOL    HW138487   4.970   9.377   7.987 -0.7839 -0.1488 -0.2303
43749SOL    HW238488   5.010   9.463   7.870  1.4578 -0.1587  0.4785
43750SOL     OW38489   2.228  11.381   5.547  0.4240 -0.0247 -0.1939
43750SOL    HW138490   2.215  11.294   5.584 -1.3426  0.1516 -0.3321
43750SOL    HW238491   2.318  11.379   5.513  1.0081 -1.2128  1.2869
43751SOL     OW38492   1.622   3.746  11.655 -0.0760 -0.2821  0.4625
43751SOL    HW138493   1.610   3.678  11.588 -1.0985  0.2794  0.0536
43751SOL    HW238494   1.624   3.698  11.738 -0.0808 -0.8729  0.1267
43752SOL     OW38495   3.023   3.245   7.669  0.0904  0.3400  0.1273
43752SOL    HW138496   3.101   3.287   7.706  1.6881  0.0558 -2.6202
43752SOL    HW238497   2.983   3.313   7.615 -1.8176  0.5583  1.6972
43753SOL     OW38498  11.539  12.442   7.277  0.0012  0.6324  0.1370
43753SOL    HW138499  11.540  12.536   7.260 -0.0937  0.7383  0.6752
43753SOL    HW238500  11.460  12.410   7.235 -1.0438  1.1375  1.6247
43754SOL     OW38501  11.178   1.391   3.029 -0.3755  0.6655 -0.1357
43754SOL    HW138502  11.168   1.481   2.999  2.9943  0.9908 -0.6980
43754SOL    HW238503  11.094   1.350   3.012 -1.7460  3.4631 -0.6465
43755SOL     OW38504   8.884   8.029   0.622  0.2517 -0.0228  0.2366
43755SOL    HW138505   8.830   7.956   0.651  2.3589 -0.9133  2.1791
43755SOL    HW238506   8.827   8.106   0.632 -1.9031 -1.2688 -1.5786
43756SOL     OW38507  11.185   7.750   2.338  0.0263  0.0241  0.6833
43756SOL    HW138508  11.201   7.748   2.243 -1.2443 -1.3961  0.4721
43756SOL    HW238509  11.131   7.674   2.355 -0.9944  1.0582  2.3429
43757SOL     OW38510   9.621  11.974   6.130 -0.2844  0.2474  0.4899
43757SOL    HW138511   9.653  11.885   6.116  2.7751  1.4903 -1.4090
43757SOL    HW238512   9.549  11.984   6.067  0.2645 -0.4719 -0.2717
43758SOL     OW38513   1.038   8.852   0.256  0.2526  0.1188  0.2358
43758SOL    HW138514   1.117   8.869   0.205 -0.3985  0.9934 -0.5213
43758SOL    HW238515   1.070   8.815   0.339  1.4272  0.2173 -0.1557
43759SOL     OW38516   9.299   8.690   9.001  0.1826 -0.1158  0.3392
43759SOL    HW138517   9.216   8.646   9.021  0.6735 -1.3692 -0.2773
43759SOL    HW238518   9.344   8.694   9.085  1.3788 -3.5423  0.0372
43760SOL     OW38519   1.657   6.070  12.611  0.1952  0.4225 -0.2696
43760SOL    HW138520   1.677   6.059  12.518  0.2761  0.2332 -0.2298
43760SOL    HW238521   1.708   6.146  12.638  2.6782 -1.3232  0.3622
43761SOL     OW38522   8.258   7.545   4.449 -0.4717  0.2391 -0.0160
43761SOL    HW138523   8.218   7.525   4.533 -1.0487 -0.6422 -0.4847
43761SOL    HW238524   8.185   7.543   4.387  0.1952 -0.7432 -0.7866
43762SOL     OW38525  10.182   8.253   6.882 -0.2626  0.2260 -0.6254
43762SOL    HW138526  10.223   8.283   6.963  0.5336  0.4682 -1.1043
43762SOL    HW238527  10.088   8.255   6.900 -0.1334  1.1197  0.0112
43763SOL     OW38528   2.741  11.452   1.085 -0.3356 -0.5870 -0.5588
43763SOL    HW138529   2.655  11.456   1.128 -0.9845  0.0462 -1.8577
43763SOL    HW238530   2.724  11.408   1.001  0.3273  0.8036 -1.4488
43764SOL     OW38531   9.617   7.376   1.080 -0.1462 -0.4614 -0.1249
43764SOL    HW138532   9.604   7.376   0.986 -1.1079 -0.2342 -0.0021
43764SOL    HW238533   9.648   7.288   1.100 -2.0433 -1.2354 -0.3957
43765SOL     OW38534  11.024   9.721   0.226 -0.3608 -0.1602 -0.0111
43765SOL    HW138535  11.106   9.761   0.256 -0.7197  0.5365  0.0621
43765SOL    HW238536  10.959   9.790   0.235 -1.2002 -1.0422  1.0246
43766SOL     OW38537   6.641   8.465  11.799  0.1410 -0.0109  0.2597
43766SOL    HW138538   6.594   8.450  11.881  0.7250  1.3028  0.8633
43766SOL    HW238539   6.646   8.560  11.792  1.3223 -0.1190 -0.5921
43767SOL     OW38540   5.394   9.958   9.229  0.1645 -0.5760 -0.4274
43767SOL    HW138541   5.440   9.942   9.311 -0.5054 -0.6415 -0.0631
43767SOL    HW238542   5.428  10.043   9.199  1.0621 -0.9621 -0.5462
43768SOL     OW38543   9.462   6.716  10.196 -0.3278 -0.2293 -0.0516
43768SOL    HW138544   9.505   6.786  10.146  3.2170 -0.8505  1.7910
43768SOL    HW238545   9.497   6.635  10.159 -0.6504 -0.8402  0.9449
43769SOL     OW38546   8.396   7.952   5.026 -0.1234  0.3078  0.0876
43769SOL    HW138547   8.448   8.032   5.023  0.8999 -0.2398  1.7993
43769SOL    HW238548   8.337   7.965   5.100 -1.5906  0.3909 -1.0520
43770SOL     OW38549   8.081   5.825   5.820 -0.1504  0.4930 -0.5584
43770SOL    HW138550   8.044   5.789   5.739 -2.1855  0.5274  0.2807
43770SOL    HW238551   8.125   5.751   5.861 -2.7863 -0.7512  0.2950
43771SOL     OW38552  10.370   9.809   0.038 -0.3489 -0.0343 -0.3048
43771SOL    HW138553  10.304   9.879   0.033 -0.0824  0.4038  1.4246
43771SOL    HW238554  10.439   9.846   0.094 -0.3476 -1.7796  0.9181
43772SOL     OW38555   2.996   4.524   0.403 -0.2390  0.9905  0.0996
43772SOL    HW138556   3.002   4.616   0.378  1.1056  0.0240 -3.9813
43772SOL    HW238557   2.902   4.505   0.404 -0.6189  2.5603  2.2562
43773SOL     OW38558  12.200   6.168  12.109  0.6458  0.2175 -0.2077
43773SOL    HW138559  12.107   6.186  12.122  0.7582  1.8836 -1.5318
43773SOL    HW238560  12.205   6.072  12.104 -1.1439  0.1380 -1.1335
43774SOL     OW38561   1.255  10.434   0.175  0.1891 -0.0274 -0.0752
43774SOL    HW138562   1.341  10.464   0.203 -1.1118  2.3579  1.7336
43774SOL    HW238563   1.244  10.469   0.086  0.7449  0.3344  0.0012
43775SOL     OW38564   2.942   5.330   8.284 -0.5180  0.0782 -0.6349
43775SOL    HW138565   3.010   5.302   8.222  1.1073  1.0302  0.6506
43775SOL    HW238566   2.899   5.404   8.241  0.5890  0.7252 -0.6594
43776SOL     OW38567   1.808  10.064  12.125 -0.0839 -0.3200 -0.6407
43776SOL    HW138568   1.718  10.082  12.098 -0.2884 -1.2709 -0.6422
43776SOL    HW238569   1.830  10.134  12.186 -1.0658 -0.4531 -0.1168
43777SOL     OW38570   9.250   9.376  12.072 -0.6653  0.6522 -0.5266
43777SOL    HW138571   9.205   9.343  12.150  0.4076 -0.7098 -0.4445
43777SOL    HW238572   9.217   9.322  12.000 -0.3240  0.6991 -0.7207
43778SOL     OW38573   2.673   2.446   5.845  0.1539 -0.5651 -0.3884
43778SOL    HW138574   2.606   2.477   5.784 -1.6875  0.1218  1.8308
43778SOL    HW238575   2.649   2.355   5.862  0.4213 -0.6335 -0.3786
43779SOL     OW38576   8.587   4.613  12.277  0.6682  0.7403 -0.4080
43779SOL    HW138577   8.537   4.687  12.310 -0.7007 -0.1908 -0.2690
43779SOL    HW238578   8.627   4.574  12.354  0.5751  0.7769 -0.3408
43780SOL     OW38579   2.666   0.673   5.570  0.5424  0.1311 -0.5423
43780SOL    HW138580   2.652   0.579   5.577  1.7778 -0.1140 -1.1993
43780SOL    HW238581   2.616   0.700   5.493  0.7337 -0.1134 -0.7539
43781SOL     OW38582  10.206   5.309   3.808 -0.0224  0.3857  0.2318
43781SOL    HW138583  10.208   5.402   3.827  0.3717  0.5936 -0.7647
43781SOL    HW238584  10.123   5.278   3.845 -0.1808  1.1313  0.5136
43782SOL     OW38585  10.667  11.478  10.243  0.5091 -0.2868  0.1500
43782SOL    HW138586  10.685  11.406  10.303  1.4143  0.1063  0.3591
43782SOL    HW238587  10.571  11.486  10.243  0.3664 -1.7039 -0.1352
43783SOL     OW38588  11.192   4.501   2.172  0.0199  0.2492 -0.6075
43783SOL    HW138589  11.191   4.534   2.083  1.5647 -1.0187 -1.1557
43783SOL    HW238590  11.171   4.577   2.227 -1.3546  0.9467 -2.0493
43784SOL     OW38591   4.278   5.342   8.073  0.8597 -0.2845  0.5196
43784SOL    HW138592   4.324   5.271   8.028  2.3676  0.8445  0.2196
43784SOL    HW238593   4.221   5.380   8.006  2.0884  0.5120 -0.1148
43785SOL     OW38594   0.560  12.363   9.575  0.3941  0.4464 -0.2508
43785SOL    HW138595   0.602  12.278   9.588  2.8566  1.1024 -2.6524
43785SOL    HW238596   0.602  12.421   9.639 -1.3841 -0.0748  1.4812
43786SOL     OW38597   3.646   3.017   3.860  0.6773  0.4006  0.7489
43786SOL    HW138598   3.717   3.005   3.923 -0.0386  1.5231  1.8061
43786SOL    HW238599   3.583   3.074   3.905  0.5763  2.0227 -1.2929
43787SOL     OW38600   0.095  12.124  11.860  0.4140 -0.1206 -0.2014
43787SOL    HW138601   0.038  12.171  11.921  0.2793  0.3812 -0.7057
43787SOL    HW238602   0.068  12.155  11.773  1.2738 -0.0757 -0.4605
43788SOL     OW38603   5.125  12.622   3.853 -0.2322  0.0579 -0.2390
43788SOL    HW138604   5.049  12.652   3.803 -1.1963 -1.4023  0.2968
43788SOL    HW238605   5.163  12.552   3.800  0.1027  0.0461  0.0099
43789SOL     OW38606   1.466  10.340  10.295 -0.0341  0.0834  0.4382
43789SOL    HW138607   1.457  10.420  10.242  1.3675 -0.4371 -0.6596
43789SOL    HW238608   1.559  10.318  10.289 -0.4073 -1.6867  0.6475
43790SOL     OW38609   1.487   5.164   3.329  0.6357  0.2700 -0.1633
43790SOL    HW138610   1.467   5.179   3.421 -1.3213 -0.6898 -0.3938
43790SOL    HW238611   1.530   5.078   3.328 -1.7227 -0.9958 -0.3399
43791SOL     OW38612  11.508   9.239  10.626  0.2197  0.0679  0.0793
43791SOL    HW138613  11.568   9.228  10.551 -0.2048 -0.8359 -0.1449
43791SOL    HW238614  11.421   9.232  10.588 -0.0166  0.5365  0.5305
43792SOL     OW38615  11.368   4.978   6.679  0.0561  0.2781  0.2095
43792SOL    HW138616  11.392   5.040   6.611 -3.0891  0.7383 -0.6062
43792SOL    HW238617  11.419   5.005   6.755  0.5623  2.3341 -0.7957
43793SOL     OW38618   4.850   1.472  11.719  0.3404 -0.3694 -0.1990
43793SOL    HW138619   4.899   1.461  11.800  0.0316  0.4516  0.1106
43793SOL    HW238620   4.769   1.423  11.734 -0.8587  1.8068  1.0253
43794SOL     OW38621  11.005   0.941   0.673  0.2548  0.0259 -0.2013
43794SOL    HW138622  10.984   0.854   0.705  0.5592 -0.1285 -0.4210
43794SOL    HW238623  11.044   0.927   0.587  2.0651  0.2387  0.5405
43795SOL     OW38624   9.437   5.773   7.977  0.3893  0.2612  0.1340
43795SOL    HW138625   9.452   5.790   8.070  0.2567 -0.7514  0.3463
43795SOL    HW238626   9.513   5.812   7.933  0.8753  0.0028  0.7337
43796SOL     OW38627  11.591   6.373  12.076  0.3064  0.1594  0.0991
43796SOL    HW138628  11.623   6.348  11.989  0.6561 -1.0443  0.5569
43796SOL    HW238629  11.548   6.294  12.109 -0.7898  0.9501  0.5829
43797SOL     OW38630  11.086  12.526   9.062 -0.2666  0.3192  0.1134
43797SOL    HW138631  11.149  12.576   9.115  1.7175 -1.2898 -0.6098
43797SOL    HW238632  11.085  12.439   9.101  0.5583 -0.6447 -1.8794
43798SOL     OW38633  10.794   9.587   4.055  0.3945  0.1037 -0.3430
43798SOL    HW138634  10.871   9.598   4.111  1.0368 -1.3709 -0.8972
43798SOL    HW238635  10.789   9.493   4.039 -0.8143  0.3114 -1.3227
43799SOL     OW38636   3.216  10.218   3.300 -0.0696 -0.5950 -0.0019
43799SOL    HW138637   3.301  10.179   3.320 -0.6217 -0.9304  1.8976
43799SOL    HW238638   3.153  10.166   3.350 -1.1028  1.1874  0.6384
43800SOL     OW38639   5.901   0.269  12.379  0.5069  0.2620 -0.3282
43800SOL    HW138640   5.870   0.192  12.426 -0.8349  1.0853  0.1838
43800SOL    HW238641   5.904   0.338  12.445  1.3347  0.7569 -0.8584
43801SOL     OW38642   2.114   2.667   4.019 -0.0297 -0.0569 -0.1788
43801SOL    HW138643   2.097   2.591   4.075 -1.2818 -0.2350 -0.7703
43801SOL    HW238644   2.200   2.649   3.981  0.5070 -0.2953  1.0719
43802SOL     OW38645   4.273   9.011   0.969 -0.1411 -0.4975 -0.5562
43802SOL    HW138646   4.212   9.027   1.041  1.6344  0.5097  0.8013
43802SOL    HW238647   4.295   8.918   0.977 -2.0124 -1.0735 -1.5413
43803SOL     OW38648   1.071   1.593  12.294 -0.0864 -0.5012  0.1187
43803SOL    HW138649   1.113   1.560  12.214 -0.2195  2.4660 -1.3202
43803SOL    HW238650   1.050   1.515  12.344  0.1088 -2.5260 -2.7155
43804SOL     OW38651  12.660   7.072   2.770  0.1118 -0.7932  0.1638
43804SOL    HW138652  12.717   7.085   2.846  0.6666  0.8853 -0.5065
43804SOL    HW238653  12.571   7.073   2.806  0.3632  0.1801  0.7806
43805SOL     OW38654   0.584   4.250   1.507 -0.6255  0.5910  0.3515
43805SOL    HW138655   0.557   4.305   1.581  0.7703 -0.1029  1.4360
43805SOL    HW238656   0.673   4.279   1.486  0.4397 -1.6231  1.4234
43806SOL     OW38657   2.150   1.617   5.394 -0.5112  0.2127  0.4836
43806SOL    HW138658   2.135   1.699   5.346 -1.4012  0.0542  0.4761
43806SOL    HW238659   2.161   1.644   5.486  0.9421  0.4908  0.2598
43807SOL     OW38660  10.062   7.612  10.467 -0.0061 -0.7342  0.0350
43807SOL    HW138661  10.128   7.661  10.515 -0.3377 -0.0630 -0.1757
43807SOL    HW238662  10.049   7.661  10.386 -0.3225 -1.1884 -0.1971
43808SOL     OW38663   7.092   9.907   3.935 -0.2521  0.2235  0.1797
43808SOL    HW138664   7.035   9.959   3.879 -1.3407 -2.6589 -1.6499
43808SOL    HW238665   7.032   9.860   3.992  0.2980 -1.7965 -0.8085
43809SOL     OW38666   4.364   2.246   7.014  0.1517 -0.6746  0.2499
43809SOL    HW138667   4.303   2.285   7.077 -1.3010 -2.7648  0.2497
43809SOL    HW238668   4.449   2.285   7.035 -1.2689  3.4348 -0.6246
43810SOL     OW38669  11.849   1.630   6.515 -0.2052  0.2354  0.5484
43810SOL    HW138670  11.824   1.691   6.445  0.3585 -0.5081 -0.3227
43810SOL    HW238671  11.782   1.642   6.582 -0.9980  0.6601 -0.3006
43811SOL     OW38672   7.083   5.202   7.276 -0.5636 -0.2117  0.1704
43811SOL    HW138673   7.129   5.142   7.218  0.7216  0.9340 -0.0451
43811SOL    HW238674   7.152   5.242   7.329 -1.5819 -0.3390  1.6814
43812SOL     OW38675  11.064   1.580  12.308 -0.1858  0.0201 -0.2404
43812SOL    HW138676  10.979   1.594  12.348  0.4300 -0.3149  1.2581
43812SOL    HW238677  11.052   1.503  12.252 -0.3194 -1.6157  1.8833
43813SOL     OW38678  10.856   7.232   9.329 -0.0620 -0.5132 -0.5149
43813SOL    HW138679  10.813   7.169   9.387  1.0439 -1.5402 -0.7799
43813SOL    HW238680  10.912   7.284   9.387 -1.3220  0.5872 -0.2245
43814SOL     OW38681   7.331   5.931   8.812  0.0553 -0.2637  1.0922
43814SOL    HW138682   7.425   5.925   8.797 -0.2040 -1.3521 -0.4428
43814SOL    HW238683   7.297   5.977   8.735 -1.0258 -3.1751 -0.3212
43815SOL     OW38684  12.403  10.469   1.962  0.6514 -0.0854  0.0763
43815SOL    HW138685  12.337  10.465   1.892  0.7051  0.7279 -0.0342
43815SOL    HW238686  12.486  10.456   1.916  0.5523 -1.6886  0.2924
43816SOL     OW38687   9.288   9.478   5.259 -0.2156  0.0357 -0.3865
43816SOL    HW138688   9.318   9.395   5.222  0.5719  0.4710 -0.7531
43816SOL    HW238689   9.194   9.465   5.275  0.0248 -1.1568  0.2059
43817SOL     OW38690  12.040   9.359   0.877  0.4746  0.4830  0.0903
43817SOL    HW138691  12.045   9.270   0.912 -0.3957  0.3802 -0.0326
43817SOL    HW238692  12.008   9.412   0.950  0.0092  0.5145 -0.1355
43818SOL     OW38693   8.362   2.008   0.108 -0.1732 -0.3038 -0.0840
43818SOL    HW138694   8.342   2.011   0.202 -0.8276 -2.0002 -0.1328
43818SOL    HW238695   8.318   2.085   0.072 -1.1501 -0.4287  0.7990
43819SOL     OW38696  11.555   7.814  11.523 -0.3298  0.1068  0.5455
43819SOL    HW138697  11.591   7.902  11.524  0.9411 -0.3175 -1.2547
43819SOL    HW238698  11.461   7.826  11.507 -0.1090  1.1386 -0.0577
43820SOL     OW38699   3.099  12.191  11.346  0.4203  0.3144  0.3388
43820SOL    HW138700   3.128  12.224  11.431  0.9920 -0.8314  0.6127
43820SOL    HW238701   3.126  12.099  11.346 -2.6706 -0.7030  0.3663
43821SOL     OW38702   1.832   5.681   7.904  0.4425  0.0222  0.3765
43821SOL    HW138703   1.798   5.628   7.833 -2.0060  0.3436  1.2125
43821SOL    HW238704   1.851   5.766   7.865  1.3491 -0.4806 -0.3165
43822SOL     OW38705   0.199   6.197   0.744 -0.5555 -0.4510 -1.0098
43822SOL    HW138706   0.143   6.120   0.748  0.2702 -0.9979  0.5620
43822SOL    HW238707   0.143   6.269   0.773 -1.0634 -0.5869 -1.6191
43823SOL     OW38708   9.569   5.166   1.397  0.6930 -0.0551 -0.2157
43823SOL    HW138709   9.531   5.125   1.319  0.0053 -0.4574  0.3249
43823SOL    HW238710   9.664   5.160   1.383  0.5989  1.6143 -1.9105
43824SOL     OW38711   7.741  10.362  10.906 -0.2001 -0.2497  0.0283
43824SOL    HW138712   7.789  10.292  10.950  1.9156  0.5889 -0.8180
43824SOL    HW238713   7.702  10.413  10.977 -0.3402 -1.3038  0.7256
43825SOL     OW38714   4.428   3.128   7.447 -0.3966  0.1404 -0.4377
43825SOL    HW138715   4.466   3.154   7.531 -0.2981 -1.4743  0.0581
43825SOL    HW238716   4.334   3.140   7.459 -0.5558 -1.7639  0.5829
43826SOL     OW38717   6.507   2.772  11.550  0.0821  0.5058 -0.4611
43826SOL    HW138718   6.503   2.863  11.580  3.0064  1.0778 -1.4888
43826SOL    HW238719   6.467   2.774  11.463 -1.3983  0.4045  0.1835
43827SOL     OW38720   9.306   1.184   5.389 -0.3230 -0.1930 -0.4787
43827SOL    HW138721   9.380   1.241   5.409 -1.3012  0.9489 -0.0568
43827SOL    HW238722   9.229   1.239   5.398 -1.1716 -0.9989 -2.2399
43828SOL     OW38723   3.058   8.763   4.695  0.6030 -0.0912 -0.8393
43828SOL    HW138724   3.048   8.757   4.600 -0.3881 -0.9539 -0.6975
43828SOL    HW238725   3.020   8.682   4.729  2.5952 -0.6555  0.2098
43829SOL     OW38726   0.397   5.069   9.333 -0.0885  0.0693 -0.2590
43829SOL    HW138727   0.401   5.055   9.238 -0.3556  0.1765 -0.2884
43829SOL    HW238728   0.424   5.160   9.345  0.6196 -0.1497 -0.1651
43830SOL     OW38729   4.541   5.491   4.297 -0.3523  0.1176  0.4521
43830SOL    HW138730   4.508   5.464   4.211  0.9046 -0.2813  0.0811
43830SOL    HW238731   4.606   5.558   4.277  1.0888 -1.0753  0.9768
43831SOL     OW38732   6.023   9.788  11.347  0.3468 -0.0279 -0.0324
43831SOL    HW138733   6.061   9.719  11.292 -1.3688  0.0538 -1.4033
43831SOL    HW238734   6.066   9.868  11.317 -0.7258  0.0480 -1.4790
43832SOL     OW38735  11.126   9.172  10.115  0.0744 -0.3623  0.4963
43832SOL    HW138736  11.117   9.174  10.019  0.0747  0.0433  0.5027
43832SOL    HW238737  11.217   9.197  10.130 -0.7140  2.8015  0.7214
43833SOL     OW38738  10.356  12.008  12.501 -0.2064  0.0233  0.0666
43833SOL    HW138739  10.356  12.015  12.405  0.4861  3.5953  0.2108
43833SOL    HW238740  10.428  11.948  12.520 -0.8465 -1.3865 -1.6182
43834SOL     OW38741   3.901  11.626   7.924 -0.6032  0.2424  0.2989
43834SOL    HW138742   3.909  11.624   7.829  0.4359  0.0440  0.3788
43834SOL    HW238743   3.961  11.558   7.955  0.1427  1.2521  1.1472
43835SOL     OW38744   9.495   8.734   6.769  0.5987 -0.1522 -0.0931
43835SOL    HW138745   9.412   8.749   6.815  0.5057 -2.8250  0.7611
43835SOL    HW238746   9.469   8.718   6.678  0.0896 -1.5137  0.2761
43836SOL     OW38747  10.459   2.183  11.972 -0.0618 -0.5260 -0.1264
43836SOL    HW138748  10.460   2.279  11.973 -0.0631 -0.5175 -0.8081
43836SOL    HW238749  10.541   2.158  11.930  0.6134 -0.8595  1.3371
43837SOL     OW38750   3.495   9.823   2.307 -0.5239  0.6371 -0.3306
43837SOL    HW138751   3.405   9.821   2.339 -0.9363  1.7333 -1.3682
43837SOL    HW238752   3.545   9.859   2.381 -1.1832  1.4851 -0.2768
43838SOL     OW38753   9.761   0.005  12.534 -0.6494  0.1606 -0.4352
43838SOL    HW138754   9.852  -0.008  12.506 -0.9753  0.8788 -1.9470
43838SOL    HW238755   9.745   0.098  12.521 -1.1041  0.3888  1.4782
43839SOL     OW38756   3.630   1.569   5.594  0.0657 -0.0500  0.2352
43839SOL    HW138757   3.619   1.628   5.520  0.1990 -0.9729 -0.5331
43839SOL    HW238758   3.569   1.497   5.577 -0.0167 -0.2038  1.1045
43840SOL     OW38759   1.505   3.901   9.296 -0.0141 -0.0920 -0.1454
43840SOL    HW138760   1.482   3.829   9.354  1.9226 -0.1375  0.6342
43840SOL    HW238761   1.422   3.924   9.253 -1.0045 -1.6627  0.8069
43841SOL     OW38762   0.832  11.231   3.157 -0.4208  0.1457 -0.0619
43841SOL    HW138763   0.847  11.166   3.088 -0.9596 -0.6237  0.5318
43841SOL    HW238764   0.898  11.299   3.140  0.8570 -1.0530 -0.0802
43842SOL     OW38765   9.787  11.051   0.695  0.0238 -0.1104 -0.2959
43842SOL    HW138766   9.766  10.977   0.752  0.1908  0.6846  0.8280
43842SOL    HW238767   9.708  11.105   0.696 -0.3440 -0.5818 -1.6512
43843SOL     OW38768  10.179   7.887  11.856 -0.2919  0.2814  0.0102
43843SOL    HW138769  10.216   7.974  11.838 -0.3345  0.0571 -1.2927
43843SOL    HW238770  10.241   7.826  11.818 -0.8411 -0.1954 -0.1391
43844SOL     OW38771   2.832   4.570   9.249  0.1148 -0.3646  0.1608
43844SOL    HW138772   2.815   4.555   9.156  2.6571 -1.1917 -0.2358
43844SOL    HW238773   2.780   4.648   9.270  0.7363  0.8399 -2.3720
43845SOL     OW38774   9.423   8.260   8.282  0.2104  0.6413 -0.2801
43845SOL    HW138775   9.477   8.266   8.360  0.9644  0.7314 -0.7982
43845SOL    HW238776   9.337   8.232   8.314  1.2043 -2.0554  0.2989
43846SOL     OW38777  11.264  12.689   7.230 -0.5166 -0.1853 -0.0740
43846SOL    HW138778  11.331  12.712   7.295  1.1322 -0.3026 -1.6678
43846SOL    HW238779  11.251  12.595   7.241 -0.3693 -0.1746  0.1909
43847SOL     OW38780   6.838   1.849  11.215  0.7026 -0.2328 -0.3947
43847SOL    HW138781   6.913   1.891  11.175  3.2036 -1.3746  2.6703
43847SOL    HW238782   6.834   1.762  11.176  1.4909 -0.4364 -0.0319
43848SOL     OW38783   4.981   0.935   4.849 -0.0800 -0.1713 -0.0922
43848SOL    HW138784   4.911   0.961   4.908 -0.0308 -0.7571  0.2253
43848SOL    HW238785   5.048   0.898   4.905 -0.6852 -2.1877 -0.6312
43849SOL     OW38786   9.326   8.716   9.298 -0.5159 -0.2780 -0.1866
43849SOL    HW138787   9.375   8.797   9.307 -2.0221  0.4884  1.9538
43849SOL    HW238788   9.364   8.657   9.363 -0.5914 -0.6904 -0.5075
43850SOL     OW38789  10.433   8.405   7.514  0.6076 -0.6432  0.0585
43850SOL    HW138790  10.357   8.351   7.492  0.7451 -0.9495  0.3447
43850SOL    HW238791  10.425   8.421   7.608  1.1397 -1.0432  0.1723
43851SOL     OW38792   9.500   7.439   6.488 -0.2126 -0.0104  0.1960
43851SOL    HW138793   9.493   7.532   6.509 -0.9217  0.1416 -0.6434
43851SOL    HW238794   9.594   7.419   6.497  0.0165  0.9025 -0.0808
43852SOL     OW38795  10.090   9.601   1.361  0.3045  0.2354 -0.5115
43852SOL    HW138796  10.106   9.520   1.409 -0.9109 -0.1787 -0.7583
43852SOL    HW238797  10.177   9.636   1.341  0.8521 -1.3207 -0.9274
43853SOL     OW38798   8.583   8.534   7.351 -0.3855  0.6502 -0.2158
43853SOL    HW138799   8.631   8.467   7.401  1.9435  2.4671  0.1973
43853SOL    HW238800   8.527   8.576   7.416 -0.3614  0.3926 -0.0269
43854SOL     OW38801  10.220   5.517   8.155  0.2190 -0.0405 -0.3049
43854SOL    HW138802  10.197   5.440   8.104  0.7773 -0.8500  0.6287
43854SOL    HW238803  10.306   5.543   8.121 -0.3930  0.7659 -1.2753
43855SOL     OW38804   3.564  11.041   1.041 -0.2580 -0.0509 -0.3111
43855SOL    HW138805   3.556  11.075   1.130  2.3304 -1.7890  0.7003
43855SOL    HW238806   3.478  11.005   1.021 -2.5789  4.8874 -0.6871
43856SOL     OW38807   8.939   5.821   9.976  0.3449  0.2870 -0.0057
43856SOL    HW138808   8.917   5.800   9.885 -0.4373 -0.7155  0.3971
43856SOL    HW238809   8.993   5.747  10.005  1.5611  1.1490  0.0173
43857SOL     OW38810   8.136   4.285   0.901  0.5707  0.1733  0.0796
43857SOL    HW138811   8.190   4.253   0.829 -0.2252 -0.0588 -0.4286
43857SOL    HW238812   8.199   4.323   0.963  1.2901  0.1223 -0.5978
43858SOL     OW38813   7.930   4.526  11.113  0.2359  0.3303  0.4959
43858SOL    HW138814   7.925   4.619  11.136 -0.3327  0.0610  1.5099
43858SOL    HW238815   7.940   4.481  11.197  0.9587 -0.5029 -0.0192
43859SOL     OW38816   9.279   6.656   4.081  0.6282  0.3022  0.0327
43859SOL    HW138817   9.208   6.592   4.075  0.0080  0.9905 -0.0242
43859SOL    HW238818   9.309   6.667   3.991  0.8377 -0.0140  0.0613
43860SOL     OW38819   3.379   1.499   0.867  0.0036  0.0366  0.1877
43860SOL    HW138820   3.444   1.497   0.937 -1.7226  0.0935  1.8881
43860SOL    HW238821   3.368   1.408   0.841 -0.2080 -0.1404  0.8736
43861SOL     OW38822  11.249   4.249   5.434 -0.0841  0.2542  1.2466
43861SOL    HW138823  11.179   4.307   5.404  0.5476  0.2420 -0.3554
43861SOL    HW238824  11.208   4.196   5.503 -1.2226  1.2493  1.3759
43862SOL     OW38825   5.284   4.435   7.027  0.5863  0.2190  0.1878
43862SOL    HW138826   5.293   4.505   7.092 -0.6751 -0.8211  1.5380
43862SOL    HW238827   5.203   4.456   6.981  0.5031 -0.0423  0.2151
43863SOL     OW38828   4.596   2.704  10.290  0.2528 -0.3049  0.1416
43863SOL    HW138829   4.510   2.661  10.293 -1.1958  2.3861 -0.2824
43863SOL    HW238830   4.658   2.632  10.305 -1.9490 -2.6122 -0.9561
43864SOL     OW38831   2.678   2.606  12.297  0.3631  1.0466 -0.2871
43864SOL    HW138832   2.692   2.667  12.369  1.7885  0.0566  0.3119
43864SOL    HW238833   2.737   2.533  12.315 -2.4062 -1.3314 -0.1023
43865SOL     OW38834   3.057   5.462   2.463 -0.2061  0.3638 -0.0138
43865SOL    HW138835   2.976   5.430   2.502 -0.4423 -0.3451 -1.0532
43865SOL    HW238836   3.030   5.499   2.379  0.5296  0.1972 -0.3308
43866SOL     OW38837   1.494  10.202   1.859  0.1616  0.6887 -0.1652
43866SOL    HW138838   1.542  10.145   1.799 -0.3147  2.1826 -2.0607
43866SOL    HW238839   1.430  10.144   1.902 -1.1318 -0.0780 -2.9014
43867SOL     OW38840   9.825  11.820   4.912  0.1681  0.1547 -0.2757
43867SOL    HW138841   9.761  11.768   4.864 -0.7712  0.0338  1.0558
43867SOL    HW238842   9.773  11.886   4.958  1.0286  0.2903  0.5370
43868SOL     OW38843   0.035  10.825   0.585 -0.1904  0.1602  0.1530
43868SOL    HW138844   0.011  10.777   0.506  0.4073 -2.0185  1.2158
43868SOL    HW238845   0.128  10.803   0.598  0.3734  2.3664  0.2125
43869SOL     OW38846   7.198   5.010  10.584  0.0443  0.2634 -0.2140
43869SOL    HW138847   7.292   5.028  10.584  0.0091  0.4530  0.6698
43869SOL    HW238848   7.173   5.012  10.491  1.1463 -1.0084 -0.5586
43870SOL     OW38849  10.904  12.126   2.695  0.0360 -0.1692  0.1481
43870SOL    HW138850  10.990  12.085   2.691  0.5789  0.8797  0.6099
43870SOL    HW238851  10.877  12.134   2.603  0.1856 -0.9709  0.0247
43871SOL     OW38852   4.667   1.424   4.465  0.8782 -0.8439  0.1803
43871SOL    HW138853   4.597   1.487   4.481 -0.7897 -2.6111  0.2887
43871SOL    HW238854   4.740   1.453   4.520  0.6730  1.6628 -0.7557
43872SOL     OW38855  10.546   1.606   5.286  0.4117  0.1663 -0.5901
43872SOL    HW138856  10.587   1.576   5.204 -0.0087  1.3403 -1.2571
43872SOL    HW238857  10.456   1.574   5.280  0.9800 -1.8414  0.5717
43873SOL     OW38858   8.090   9.792   1.093 -0.2042  0.1913 -0.1639
43873SOL    HW138859   8.159   9.848   1.057 -0.6044  1.8623  1.4983
43873SOL    HW238860   8.107   9.791   1.187 -1.2989 -1.0156  0.0414
43874SOL     OW38861  11.845   7.909  12.660 -0.5487  0.0508 -0.0495
43874SOL    HW138862  11.781   7.851  12.621 -0.2220 -0.3817  0.0529
43874SOL    HW238863  11.913   7.851  12.695 -0.6997  0.4377  0.9176
43875SOL     OW38864  11.008   0.682   9.674 -0.2218  0.0002 -0.5383
43875SOL    HW138865  10.965   0.597   9.672  3.0449 -1.8911  0.8294
43875SOL    HW238866  10.978   0.723   9.755  0.4563 -1.2796  0.3976
43876SOL     OW38867   3.831   3.110   3.386 -0.1778  0.1043  0.4255
43876SOL    HW138868   3.838   3.015   3.393 -1.6256 -0.0564  0.0225
43876SOL    HW238869   3.774   3.135   3.459 -1.0330  0.4676 -0.3477
43877SOL     OW38870   7.877  10.680   1.130 -0.4291 -0.4629  0.1891
43877SOL    HW138871   7.847  10.646   1.214  2.0473 -0.4481  1.1896
43877SOL    HW238872   7.925  10.607   1.091  0.9229  0.3822  0.1867
43878SOL     OW38873   0.120   5.912   6.271  0.9015  0.3851  0.1766
43878SOL    HW138874   0.196   5.923   6.215  0.6151 -3.4627 -1.2730
43878SOL    HW238875   0.131   5.825   6.310 -0.9249  1.2547  2.9559
43879SOL     OW38876   0.360   0.257  10.464 -0.0282  0.2943 -0.2129
43879SOL    HW138877   0.402   0.268  10.550  0.0580  2.4563 -0.4803
43879SOL    HW238878   0.429   0.277  10.401 -0.5244  0.3962 -0.7335
43880SOL     OW38879   1.420   5.591  10.090  0.3600 -0.5811 -0.7538
43880SOL    HW138880   1.419   5.497  10.070  0.1365 -0.5405 -0.9349
43880SOL    HW238881   1.510   5.608  10.118  0.6602 -0.6510 -1.6477
43881SOL     OW38882   0.808   7.519   0.110 -0.0376  0.0280  0.0251
43881SOL    HW138883   0.775   7.538   0.022 -0.9093 -2.8827 -0.3943
43881SOL    HW238884   0.731   7.530   0.167  0.2047  0.6288  0.2470
43882SOL     OW38885   9.047  11.471   9.927 -0.1806  0.0707 -0.1295
43882SOL    HW138886   9.036  11.534   9.999  0.1202 -0.5873  0.5016
43882SOL    HW238887   9.050  11.386   9.970  0.7414 -0.2776 -0.8493
43883SOL     OW38888   9.344   0.801   1.833 -0.3324  0.7455 -0.6929
43883SOL    HW138889   9.260   0.846   1.844 -1.3520 -1.6389  3.4817
43883SOL    HW238890   9.402   0.841   1.898  0.6122 -0.0102 -1.0487
43884SOL     OW38891  10.411   8.422   2.621 -0.1409 -0.0788  0.1788
43884SOL    HW138892  10.474   8.484   2.656  3.5260 -2.9976 -0.6981
43884SOL    HW238893  10.400   8.448   2.529  1.2546 -0.5762 -0.1440
43885SOL     OW38894   7.438  12.214  10.654 -0.5869  0.2379  0.0845
43885SOL    HW138895   7.412  12.273  10.725 -0.3145  1.9835 -1.2162
43885SOL    HW238896   7.425  12.264  10.574  2.2744 -0.4369 -0.9427
43886SOL     OW38897   9.160   0.360   9.726  0.0422 -0.3349 -0.1782
43886SOL    HW138898   9.149   0.294   9.795 -0.0198 -1.0159 -0.8261
43886SOL    HW238899   9.243   0.338   9.685 -0.7656 -1.0693 -1.4955
43887SOL     OW38900  10.290   2.477  12.536 -0.0480 -0.7331 -0.2666
43887SOL    HW138901  10.370   2.512  12.497 -0.1747  0.7904  0.7297
43887SOL    HW238902  10.233   2.457  12.462  0.8686 -0.8715 -0.9415
43888SOL     OW38903   0.335  10.455   9.289  0.1151 -0.6730 -0.1765
43888SOL    HW138904   0.392  10.506   9.232  2.7255 -1.5740  1.4057
43888SOL    HW238905   0.280  10.519   9.333 -1.0025  0.1401 -2.5890
43889SOL     OW38906   4.655   3.550   6.945  0.1080  0.3250  0.0121
43889SOL    HW138907   4.596   3.620   6.915 -2.4679 -1.7283 -0.0999
43889SOL    HW238908   4.660   3.490   6.870  3.2277  0.8485 -0.3237
43890SOL     OW38909   8.622   1.475   8.080 -0.5583  0.1125 -0.4129
43890SOL    HW138910   8.631   1.492   7.986 -0.3862 -1.8424 -0.7911
43890SOL    HW238911   8.529   1.454   8.092 -0.0677 -2.5622 -0.7376
43891SOL     OW38912   8.340   9.118   1.972 -0.5691 -0.0052 -0.6855
43891SOL    HW138913   8.434   9.126   1.957 -0.6623  0.2030 -1.1713
43891SOL    HW238914   8.302   9.115   1.885 -0.9173 -1.2580 -0.5237
43892SOL     OW38915   9.667   5.576   9.566  0.2375 -0.4492  0.0233
43892SOL    HW138916   9.707   5.491   9.551  0.1069 -0.7709  1.3744
43892SOL    HW238917   9.739   5.639   9.555  0.2568 -0.6913 -1.3242
43893SOL     OW38918  10.929   4.086   4.722  0.3195  0.3641 -0.5313
43893SOL    HW138919  10.979   4.086   4.804 -1.3371  2.4698  0.5903
43893SOL    HW238920  10.979   4.144   4.663  0.5887  0.3000 -0.3673
43894SOL     OW38921   8.103   8.593  10.925 -0.1292  0.8668 -0.4438
43894SOL    HW138922   8.101   8.667  10.864  0.4323 -0.2267 -1.8592
43894SOL    HW238923   8.195   8.588  10.952  0.5850 -1.1741 -2.8546
43895SOL     OW38924  11.144   2.557   2.353 -0.3302  0.5194  0.3634
43895SOL    HW138925  11.190   2.554   2.438  0.8036 -1.8282 -0.2423
43895SOL    HW238926  11.210   2.588   2.292 -0.2109 -0.5985 -0.1093
43896SOL     OW38927   8.927  12.572   7.078  0.2014 -0.9236  0.1134
43896SOL    HW138928   8.851  12.529   7.117 -0.1340 -1.4293 -1.0605
43896SOL    HW238929   8.971  12.503   7.029  0.7276 -0.3598 -0.2269
43897SOL     OW38930   3.239   9.887  11.361 -0.0824 -0.3944  0.1896
43897SOL    HW138931   3.236   9.862  11.454 -2.2647 -2.9152 -0.4452
43897SOL    HW238932   3.321   9.850  11.329  0.2141 -0.3440  0.8581
43898SOL     OW38933  10.231   3.578   0.381  0.1592  0.0733  0.6489
43898SOL    HW138934  10.218   3.571   0.475  0.4538 -0.6752  0.6430
43898SOL    HW238935  10.163   3.522   0.343  1.4453 -1.4793  0.5153
43899SOL     OW38936  11.389   4.672   5.294 -0.4533 -0.1154  0.3271
43899SOL    HW138937  11.423   4.584   5.307  0.6350  0.1846 -0.3732
43899SOL    HW238938  11.294   4.662   5.300 -0.4190 -1.5559 -0.9625
43900SOL     OW38939   6.994  10.744  10.413 -0.0889  0.2328 -0.1710
43900SOL    HW138940   6.976  10.654  10.440  0.3941  0.2574  0.2404
43900SOL    HW238941   6.908  10.787  10.416 -0.5722 -0.5397 -1.6897
43901SOL     OW38942   6.877   6.725  12.188  0.2928 -0.9316 -0.2885
43901SOL    HW138943   6.857   6.735  12.281 -0.9067 -0.9636 -0.5330
43901SOL    HW238944   6.865   6.813  12.151  1.6755 -0.7051 -0.2718
43902SOL     OW38945   9.014   8.651   4.908  0.4213  0.1889  0.1052
43902SOL    HW138946   9.076   8.603   4.963  0.0923 -1.9207 -1.2282
43902SOL    HW238947   9.065   8.720   4.867  1.2922  0.0468  0.9206
43903SOL     OW38948   7.013  10.976   0.600  0.0879 -0.2921  0.4524
43903SOL    HW138949   7.084  11.006   0.656 -1.5398  0.6830  2.0917
43903SOL    HW238950   6.982  11.055   0.555 -1.7628 -0.0918  1.9400
43904SOL     OW38951   7.932   0.586   2.684  0.0253  0.5413 -0.0310
43904SOL    HW138952   8.024   0.592   2.711  0.2153 -2.3652  0.2381
43904SOL    HW238953   7.934   0.533   2.605 -1.3755  1.1436 -0.4961
43905SOL     OW38954   1.918   7.319  12.572 -0.4430  0.3569 -0.4728
43905SOL    HW138955   1.976   7.395  12.568 -0.4188  0.3271 -0.7210
43905SOL    HW238956   1.842   7.349  12.622 -0.3686  0.5007 -0.4473
43906SOL     OW38957  10.540   0.616  11.105 -0.1255  0.5990 -0.1812
43906SOL    HW138958  10.523   0.593  11.196  0.4631  2.2699  0.3933
43906SOL    HW238959  10.598   0.547  11.073  0.6196  0.6162  1.0718
43907SOL     OW38960   6.573   4.764   6.256 -0.3234 -0.4574  0.0440
43907SOL    HW138961   6.591   4.828   6.187  0.5941 -1.7188 -0.9378
43907SOL    HW238962   6.478   4.764   6.264 -0.4130  0.0785 -0.8663
43908SOL     OW38963   7.774   1.580   3.545 -1.0014  0.2112  0.6351
43908SOL    HW138964   7.693   1.616   3.509 -1.4399 -0.7668  0.6192
43908SOL    HW238965   7.765   1.485   3.535  0.4019  0.1173  0.1057
43909SOL     OW38966  11.397   5.775  10.635 -0.5336  0.1288  0.9766
43909SOL    HW138967  11.454   5.852  10.639  0.5404 -0.4505 -1.3517
43909SOL    HW238968  11.435   5.715  10.700  1.1490  0.0255 -0.0372
43910SOL     OW38969   6.424   7.050   1.389  0.2429  0.2668  0.0905
43910SOL    HW138970   6.385   7.126   1.346 -0.8672 -0.5121 -0.3086
43910SOL    HW238971   6.495   7.087   1.441  0.2825  1.4740 -0.7726
43911SOL     OW38972   7.101   4.816   2.036  0.1192  0.0627 -0.0611
43911SOL    HW138973   7.074   4.836   1.947  0.7729  0.4473 -0.1739
43911SOL    HW238974   7.184   4.861   2.048  0.5809 -0.8612  0.3832
43912SOL     OW38975  10.471   9.986   9.920  0.0333  0.4100  0.2674
43912SOL    HW138976  10.448  10.021   9.834  2.0790 -1.4840 -1.1676
43912SOL    HW238977  10.409   9.914   9.934 -0.7420  1.1611  0.7059
43913SOL     OW38978   1.559  10.767   1.215 -0.7322  0.2320  0.0976
43913SOL    HW138979   1.585  10.858   1.200 -1.4228  0.1407 -2.1918
43913SOL    HW238980   1.463  10.769   1.210 -0.7321 -0.6816 -0.6442
43914SOL     OW38981   9.223   2.570   6.255 -0.0114  0.2342  0.1842
43914SOL    HW138982   9.306   2.613   6.236 -0.8727  1.8540 -0.0819
43914SOL    HW238983   9.226   2.554   6.350  0.8307 -0.2723  0.0865
43915SOL     OW38984   3.013   5.071  12.711  0.4661  0.2100 -0.3439
43915SOL    HW138985   3.034   5.144  12.653  0.7445  0.0186 -0.4865
43915SOL    HW238986   2.995   4.998  12.652  2.5763 -0.4875 -0.1785
43916SOL     OW38987  10.884   4.362   3.900  0.0020 -0.6778  0.7850
43916SOL    HW138988  10.944   4.380   3.827  0.6325 -1.9040  0.9661
43916SOL    HW238989  10.798   4.384   3.866  0.1942 -1.9449 -0.6076
43917SOL     OW38990   3.016  10.475  11.561 -0.4289 -0.3360  0.0229
43917SOL    HW138991   2.951  10.461  11.492  0.4668  0.7010 -1.0688
43917SOL    HW238992   3.097  10.496  11.514  0.0205  1.1533  1.3859
43918SOL     OW38993   4.515   3.413  11.543 -0.0915 -0.3965 -0.1760
43918SOL    HW138994   4.597   3.420  11.592  0.0367 -0.3687 -0.3904
43918SOL    HW238995   4.517   3.487  11.482 -0.1733 -0.5216 -0.3329
43919SOL     OW38996   1.371   1.736   8.268 -0.0225  0.3164 -0.1189
43919SOL    HW138997   1.324   1.664   8.309  2.7168 -1.1198  0.7034
43919SOL    HW238998   1.384   1.800   8.338  0.8030 -0.1236  0.1394
43920SOL     OW38999   1.390  10.578   8.422  0.4974  0.0060 -0.2070
43920SOL    HW139000   1.354  10.559   8.509 -0.7767  1.6849 -0.3213
43920SOL    HW239001   1.395  10.673   8.419  1.9298 -0.0790 -1.4490
43921SOL     OW39002   2.240  11.152   1.619  0.6220  0.0030  0.3395
43921SOL    HW139003   2.198  11.221   1.567  0.2438 -0.1415  0.4477
43921SOL    HW239004   2.195  11.155   1.703 -0.2684 -1.1969 -0.0715
43922SOL     OW39005   3.524   5.268   2.619 -0.0014 -0.0082  0.0927
43922SOL    HW139006   3.598   5.234   2.670 -0.9261 -1.8862  0.2637
43922SOL    HW239007   3.462   5.300   2.684  1.3199  3.2768 -0.0775
43923SOL     OW39008   4.213   1.909   7.838  0.4260  0.3862 -0.0101
43923SOL    HW139009   4.306   1.890   7.826  0.5709  0.5597  0.7551
43923SOL    HW239010   4.211   2.000   7.869 -0.0804  0.7703 -1.1218
43924SOL     OW39011  12.023   5.397   9.378  0.6169 -0.3516  0.0959
43924SOL    HW139012  12.095   5.384   9.440  1.5233  1.4847 -0.5155
43924SOL    HW239013  12.064   5.393   9.292 -0.0621  0.4320 -0.2763
43925SOL     OW39014  11.787   5.603  12.227  0.1396  0.2740  0.0482
43925SOL    HW139015  11.699   5.586  12.262 -0.9274  0.3809 -2.4031
43925SOL    HW239016  11.845   5.547  12.279 -1.1108  1.2923  2.7257
43926SOL     OW39017   7.470   8.324   0.332 -0.1050 -0.0542  1.0988
43926SOL    HW139018   7.443   8.359   0.416  1.1414 -0.2146  1.5942
43926SOL    HW239019   7.514   8.242   0.353 -1.6990 -1.2140  0.0846
43927SOL     OW39020   5.677  11.004   0.195  0.4314  0.7063 -0.8466
43927SOL    HW139021   5.703  11.010   0.287 -0.4134 -1.0105 -0.4545
43927SOL    HW239022   5.752  11.040   0.147  0.8967  1.6198  0.4922
43928SOL     OW39023   0.147  11.108  12.109  0.4635 -0.3528  0.1904
43928SOL    HW139024   0.145  11.201  12.088  0.3642  0.0941  2.0132
43928SOL    HW239025   0.214  11.101  12.177  0.2879 -1.5895  0.2497
43929SOL     OW39026   0.024   1.815   4.285  0.1241  0.5354 -0.1875
43929SOL    HW139027   0.065   1.895   4.319  0.7310  0.3950 -0.5920
43929SOL    HW239028   0.040   1.817   4.191  0.5693 -0.3151 -0.1378
43930SOL     OW39029   4.614   4.055   8.845  0.1363  0.6273 -0.6208
43930SOL    HW139030   4.552   4.127   8.849 -1.4211 -0.7041  0.3460
43930SOL    HW239031   4.674   4.071   8.918  0.1135  1.1909 -0.7221
43931SOL     OW39032   6.944  11.836   7.494  0.4738 -0.2718  0.0385
43931SOL    HW139033   7.032  11.854   7.526  0.2429 -0.7578  1.0142
43931SOL    HW239034   6.919  11.754   7.538 -1.2380  0.9173  1.4414
43932SOL     OW39035   8.002   5.308   6.956 -0.0059 -0.1130  0.1044
43932SOL    HW139036   7.992   5.384   7.013 -1.6619  0.1250 -0.4701
43932SOL    HW239037   7.927   5.253   6.976 -1.7952  0.8769 -3.1535
43933SOL     OW39038  10.579   8.673  10.309 -0.1745  0.5701 -0.0941
43933SOL    HW139039  10.582   8.686  10.214 -0.1124 -0.9024 -0.3199
43933SOL    HW239040  10.656   8.717  10.343  0.5352 -0.0296 -0.8956
43934SOL     OW39041   4.143   9.130   2.133 -0.7502 -0.6105 -0.3472
43934SOL    HW139042   4.132   9.177   2.051 -2.2798 -1.9230 -0.9441
43934SOL    HW239043   4.057   9.137   2.176  0.2091  0.6507  1.4981
43935SOL     OW39044   7.241  10.680   8.648  0.0857 -0.6448 -0.1905
43935SOL    HW139045   7.248  10.648   8.558 -0.5946 -1.7598  0.1294
43935SOL    HW239046   7.149  10.664   8.671 -0.6779  2.6964 -0.4020
43936SOL     OW39047   1.242   0.731   7.821 -0.0626  0.8415  0.5208
43936SOL    HW139048   1.229   0.821   7.792 -0.1166  0.4820 -0.6240
43936SOL    HW239049   1.163   0.710   7.871  0.7130  1.9834  2.3253
43937SOL     OW39050   3.985   2.700  12.147  0.0812 -0.1512 -0.2723
43937SOL    HW139051   3.975   2.762  12.075  0.3719 -0.7635 -0.8479
43937SOL    HW239052   3.991   2.755  12.225 -1.5069  0.4879 -0.5502
43938SOL     OW39053   5.330  10.208   0.853  0.5858 -0.1130 -0.5345
43938SOL    HW139054   5.370  10.174   0.933  0.2041 -1.0090 -0.7094
43938SOL    HW239055   5.404  10.236   0.799  0.9702 -1.3791 -0.6869
43939SOL     OW39056   0.143  10.078   9.586 -0.1401 -0.7780  0.2753
43939SOL    HW139057   0.052  10.049   9.585 -0.2904 -0.3214 -0.3101
43939SOL    HW239058   0.192  10.004   9.620 -0.5382 -1.6271 -0.9276
43940SOL     OW39059   2.928   4.214  12.388 -0.4319 -0.5575 -0.3474
43940SOL    HW139060   3.014   4.254  12.398 -0.4570 -0.4606 -0.5126
43940SOL    HW239061   2.895   4.249  12.305 -0.6927 -0.4704 -0.2093
43941SOL     OW39062  10.213   6.654   8.485 -0.5919 -0.4818 -0.4333
43941SOL    HW139063  10.175   6.719   8.426  0.6867  0.1341 -0.6003
43941SOL    HW239064  10.221   6.701   8.569 -2.1523 -1.2690  0.2113
43942SOL     OW39065  10.781   6.979   9.129  0.0419 -0.0705 -0.0180
43942SOL    HW139066  10.806   7.070   9.148  0.0822  0.6652 -2.9434
43942SOL    HW239067  10.705   6.963   9.184  0.0699  1.7271  0.6241
43943SOL     OW39068  10.433   3.630  11.764 -0.1044  0.2773  0.0175
43943SOL    HW139069  10.472   3.602  11.681 -0.7512  2.7555 -1.1932
43943SOL    HW239070  10.389   3.551  11.797  0.1079 -0.7565 -2.0079
43944SOL     OW39071   6.709   6.620   5.376 -0.1447 -0.4662 -0.1884
43944SOL    HW139072   6.754   6.672   5.442  0.0874 -1.3773  0.3862
43944SOL    HW239073   6.636   6.579   5.423 -0.1175 -0.9429 -0.5511
43945SOL     OW39074   7.825  12.204  11.890  0.1328  0.2756  0.1286
43945SOL    HW139075   7.852  12.238  11.975 -0.4223  1.2570 -0.0636
43945SOL    HW239076   7.752  12.261  11.864  1.0287  0.7412 -1.5056
43946SOL     OW39077   8.114   4.826   3.733 -0.6956  0.0686 -0.2640
43946SOL    HW139078   8.064   4.873   3.666  0.2238  3.1810  1.0445
43946SOL    HW239079   8.062   4.836   3.813 -0.3997 -1.0843  0.0896
43947SOL     OW39080   4.535   1.355   1.301 -0.2035  0.2444  0.4099
43947SOL    HW139081   4.510   1.448   1.303  0.9341  0.6580 -1.6396
43947SOL    HW239082   4.461   1.311   1.262 -0.3657  0.4265  0.5087
43948SOL     OW39083  12.355  12.589   8.666 -0.0385  1.0766 -0.4527
43948SOL    HW139084  12.392  12.670   8.703 -0.4877  1.3043 -0.4916
43948SOL    HW239085  12.312  12.546   8.740  1.2856  0.2273 -0.1466
43949SOL     OW39086  12.508   6.238   1.718  0.4381  0.0380  0.1437
43949SOL    HW139087  12.568   6.164   1.706 -1.3584 -1.6985  1.2987
43949SOL    HW239088  12.539   6.282   1.797  0.4332 -0.5923  0.4991
43950SOL     OW39089   9.472   9.232   0.075 -0.1369 -0.1437 -0.3797
43950SOL    HW139090   9.422   9.152   0.060 -0.3841  0.0641 -0.7106
43950SOL    HW239091   9.462   9.281  -0.007 -1.0908  0.8086  0.2743
43951SOL     OW39092   9.872   8.097   4.814 -0.3884 -0.7290  0.0641
43951SOL    HW139093   9.943   8.093   4.750 -0.8933 -1.4630 -0.4546
43951SOL    HW239094   9.865   8.190   4.837  0.0865 -0.5252 -0.6103
43952SOL     OW39095   8.059   5.745  12.045 -0.1866  0.0839 -0.4047
43952SOL    HW139096   8.059   5.653  12.019 -0.7354  0.3290 -1.3054
43952SOL    HW239097   8.148   5.762  12.075  0.0215 -0.6361 -0.5998
43953SOL     OW39098   9.482   9.228   9.534  0.1472 -0.0252 -0.7850
43953SOL    HW139099   9.469   9.248   9.442  0.1099 -1.5248 -1.1298
43953SOL    HW239100   9.477   9.132   9.539  0.2368  0.0212  0.7543
43954SOL     OW39101  10.282  11.899   9.794  0.0391 -0.2386 -0.8590
43954SOL    HW139102  10.274  11.994   9.783 -1.4772  0.1084  2.2169
43954SOL    HW239103  10.369  11.887   9.833 -0.7796  0.2768  1.2738
43955SOL     OW39104   5.398   6.278   0.585 -0.0299  0.7593  0.2389
43955SOL    HW139105   5.463   6.243   0.647  0.0642 -0.8953 -0.7371
43955SOL    HW239106   5.451   6.315   0.514 -0.1535  0.4999  0.0129
43956SOL     OW39107   9.558   2.460   2.881 -0.9162  0.0725  0.1916
43956SOL    HW139108   9.511   2.498   2.807  0.3566 -0.9726 -1.2137
43956SOL    HW239109   9.619   2.398   2.842  1.6316  1.3302  1.9120
43957SOL     OW39110   6.253   1.579   9.040 -0.4564 -0.2153  0.5140
43957SOL    HW139111   6.226   1.515   9.106 -0.0127  1.1914  2.1250
43957SOL    HW239112   6.335   1.615   9.072 -1.6152  2.5146  0.6867
43958SOL     OW39113   1.412   8.305  10.331 -0.7185  0.1415  0.0928
43958SOL    HW139114   1.377   8.381  10.285  1.4697  1.0396 -0.1976
43958SOL    HW239115   1.457   8.342  10.407 -3.1103 -1.2182  2.3378
43959SOL     OW39116   3.865   9.213   3.106  0.1142 -0.5277 -0.2362
43959SOL    HW139117   3.946   9.188   3.149 -0.8518 -1.6484  1.0025
43959SOL    HW239118   3.827   9.280   3.163 -0.0832 -0.3693 -0.5472
43960SOL     OW39119  10.083  10.739   4.215 -0.3247 -0.5417 -0.2988
43960SOL    HW139120  10.139  10.795   4.269  0.1309 -0.6456 -0.6569
43960SOL    HW239121  10.142  10.701   4.151 -1.1224  0.9463 -2.0114
43961SOL     OW39122   0.219  10.223  10.872  0.4279  0.4037  0.3053
43961SOL    HW139123   0.293  10.189  10.821 -0.3885  0.5892 -1.0340
43961SOL    HW239124   0.259  10.260  10.950  1.6249 -0.8115  0.3110
43962SOL     OW39125   9.426   3.209   9.526  0.2179  0.2343 -0.2006
43962SOL    HW139126   9.379   3.157   9.461 -1.3842  1.3353 -0.0135
43962SOL    HW239127   9.360   3.272   9.556  1.1826  0.3171  1.8413
43963SOL     OW39128   6.311  11.574   3.154  0.3484  0.2089  0.3698
43963SOL    HW139129   6.348  11.508   3.095 -0.5463 -0.7318  0.8101
43963SOL    HW239130   6.384  11.599   3.211  0.9585  0.3706 -0.4553
43964SOL     OW39131   9.818   4.519   0.028 -1.1876  0.2771 -0.0345
43964SOL    HW139132   9.867   4.500  -0.052  0.2290  0.2550  0.7958
43964SOL    HW239133   9.730   4.542  -0.002 -1.1528 -1.2980 -1.4861
43965SOL     OW39134   4.810   8.940   4.787 -0.2475 -0.3076 -0.0192
43965SOL    HW139135   4.870   8.942   4.862  0.2251 -0.5423 -0.3890
43965SOL    HW239136   4.758   9.020   4.796  0.6291  0.2846 -0.1067
43966SOL     OW39137   6.998   2.627  10.138  0.1834 -0.1973  0.5621
43966SOL    HW139138   6.986   2.535  10.115  0.4662  0.1371 -1.1113
43966SOL    HW239139   7.083   2.631  10.181 -0.2059 -0.8251  1.4077
43967SOL     OW39140  12.098   4.542   2.887 -0.8932 -0.2170  0.8428
43967SOL    HW139141  12.138   4.492   2.959 -2.1028  0.0968  1.7755
43967SOL    HW239142  12.086   4.477   2.817 -0.1920 -0.6568  1.1176
43968SOL     OW39143   1.177  11.752   9.557  0.1527  0.0148  0.0423
43968SOL    HW139144   1.141  11.794   9.479  0.6970  0.4502  0.0248
43968SOL    HW239145   1.217  11.823   9.607 -0.3507 -0.2296  0.8106
43969SOL     OW39146   0.482   9.923   1.689 -0.6377 -0.3446  0.1777
43969SOL    HW139147   0.570   9.931   1.726 -0.8311 -0.9636  0.7871
43969SOL    HW239148   0.496   9.919   1.594 -0.0456 -0.0050  0.2464
43970SOL     OW39149   2.631   8.807   6.082 -0.3481  0.1659  0.1980
43970SOL    HW139150   2.548   8.835   6.043  0.0928  2.3788  0.7076
43970SOL    HW239151   2.696   8.825   6.015 -0.2450 -1.9113 -0.3436
43971SOL     OW39152   1.424   8.236  12.680  0.1275  0.4780 -0.6187
43971SOL    HW139153   1.371   8.222  12.758 -0.1105 -0.4644 -0.9400
43971SOL    HW239154   1.493   8.296  12.709  0.8333 -0.8954  0.6738
43972SOL     OW39155   7.823   3.195   1.274  0.0330 -0.1563 -0.4410
43972SOL    HW139156   7.911   3.218   1.244 -0.3731  1.9562 -0.1260
43972SOL    HW239157   7.837   3.146   1.355  0.9261 -0.4702 -0.7744
43973SOL     OW39158  10.877   6.513   7.101  0.5699  0.1444 -0.2550
43973SOL    HW139159  10.931   6.575   7.052 -2.1632  1.6821 -1.6199
43973SOL    HW239160  10.864   6.554   7.186  0.8340  0.1919 -0.2379
43974SOL     OW39161   9.347   3.975   5.665  0.0691 -0.6409  0.5752
43974SOL    HW139162   9.437   3.948   5.648  0.9218  2.7223 -1.0107
43974SOL    HW239163   9.317   4.010   5.581 -2.4755 -0.9447  1.2866
43975SOL     OW39164  10.754   9.662   3.365 -0.0068 -0.0581  0.0653
43975SOL    HW139165  10.699   9.655   3.287 -0.8711  0.0061  0.6519
43975SOL    HW239166  10.802   9.744   3.353 -2.6972  1.8329  1.1527
43976SOL     OW39167   6.293   6.443   1.583 -0.5975  0.2281 -0.3595
43976SOL    HW139168   6.220   6.491   1.622  0.9137  1.6080  0.9262
43976SOL    HW239169   6.367   6.504   1.588  1.2633 -1.9653  0.7591
43977SOL     OW39170   5.543   0.962   5.136 -0.2547 -0.2333  0.2590
43977SOL    HW139171   5.589   0.879   5.127 -0.2260 -0.3785  1.5141
43977SOL    HW239172   5.460   0.949   5.091 -0.2560 -0.9433  0.4618
43978SOL     OW39173  11.202   1.380   4.003 -0.2369  0.2536  0.4015
43978SOL    HW139174  11.288   1.381   3.960 -0.5342  1.8051 -0.2175
43978SOL    HW239175  11.222   1.361   4.095  0.4246 -2.8955 -0.2763
43979SOL     OW39176   0.193   6.273   2.312  0.0632  0.2341  0.6254
43979SOL    HW139177   0.229   6.311   2.232 -1.4359  1.5955  0.5291
43979SOL    HW239178   0.105   6.245   2.288 -0.5537  0.9971  1.8425
43980SOL     OW39179   8.745   2.283   1.519  0.3934 -0.4877  0.3352
43980SOL    HW139180   8.702   2.354   1.566 -0.3275 -0.8093  0.1705
43980SOL    HW239181   8.837   2.308   1.517  0.2360  0.1491  0.7993
43981SOL     OW39182   4.064   6.574   1.425 -0.1799  0.0900 -0.6277
43981SOL    HW139183   4.017   6.557   1.343 -3.1098  1.3051  0.6558
43981SOL    HW239184   4.027   6.511   1.487  0.0883  0.8746  0.3574
43982SOL     OW39185  10.351   9.341   5.516  0.6721  0.7172  0.5278
43982SOL    HW139186  10.275   9.380   5.561  0.9278  1.5224  0.2731
43982SOL    HW239187  10.377   9.268   5.573  0.3430  1.0746  1.1477
43983SOL     OW39188   4.316   7.343  11.002  0.2380 -0.2459 -0.4864
43983SOL    HW139189   4.321   7.306  11.090  1.1012  2.2179  0.5953
43983SOL    HW239190   4.405   7.376  10.985 -0.7557  2.6473 -0.6521
43984SOL     OW39191  10.633   0.371  11.767 -0.4882  0.2240  0.1240
43984SOL    HW139192  10.704   0.435  11.768 -1.2300  1.0522  0.4848
43984SOL    HW239193  10.655   0.309  11.836  0.8189 -0.5909 -0.9686
43985SOL     OW39194  10.880   3.220   7.956 -0.4680  0.1247  0.5357
43985SOL    HW139195  10.849   3.259   7.874  0.2539 -0.3987  0.0043
43985SOL    HW239196  10.918   3.137   7.930  1.8428  0.9552  1.0696
43986SOL     OW39197  11.789   1.471   4.661  0.0893 -0.3794  0.7954
43986SOL    HW139198  11.746   1.477   4.576 -0.5195 -0.1868  1.1088
43986SOL    HW239199  11.758   1.548   4.709  2.1866  0.7545  0.4131
43987SOL     OW39200   0.955   1.304  12.014  0.3169  0.5483 -0.5627
43987SOL    HW139201   0.910   1.389  12.020 -1.1957 -0.3005  1.3979
43987SOL    HW239202   0.919   1.253  12.087  4.6000 -0.2060  1.3105
43988SOL     OW39203   6.093   4.040   3.048  0.3176 -0.2194  0.2723
43988SOL    HW139204   6.189   4.049   3.050  0.1655  1.8862  1.1596
43988SOL    HW239205   6.066   4.096   2.976 -0.2424 -1.0649 -0.1830
43989SOL     OW39206   4.341   1.287   0.492  0.1264 -0.0047 -0.4162
43989SOL    HW139207   4.281   1.231   0.540  0.4554  0.8202  1.0115
43989SOL    HW239208   4.428   1.257   0.518  0.3588 -0.7194 -1.9083
43990SOL     OW39209   6.730   7.252  10.939 -0.1087  0.0753 -0.0373
43990SOL    HW139210   6.640   7.223  10.923  0.1251 -0.4578 -0.4291
43990SOL    HW239211   6.777   7.171  10.959  0.4995  0.2141 -0.8637
43991SOL     OW39212   0.117   0.182   2.960 -0.0762 -0.8181 -0.3365
43991SOL    HW139213   0.187   0.117   2.972  0.9316 -0.0606 -1.7574
43991SOL    HW239214   0.051   0.137   2.907  0.4787 -0.8067 -1.0544
43992SOL     OW39215   9.251   9.422   2.573 -0.1851 -0.4547 -0.3396
43992SOL    HW139216   9.185   9.449   2.637 -2.0480 -2.2674 -1.3665
43992SOL    HW239217   9.311   9.366   2.623 -1.0520 -1.0573  0.0577
43993SOL     OW39218   3.429   0.151   7.738  0.1932 -0.0668  0.2227
43993SOL    HW139219   3.368   0.165   7.811 -1.0512  1.7117 -1.0928
43993SOL    HW239220   3.435   0.236   7.694  2.8507 -0.4468 -0.3342
43994SOL     OW39221   3.597   2.856   1.765 -0.5118  0.0042  0.2900
43994SOL    HW139222   3.618   2.841   1.673  0.0756 -0.7756  0.5370
43994SOL    HW239223   3.678   2.892   1.802  0.2532 -2.3884  1.1097
43995SOL     OW39224   5.084   4.663   5.127  0.1955  0.8262 -0.7280
43995SOL    HW139225   5.063   4.682   5.035 -2.2078 -1.2936 -0.7217
43995SOL    HW239226   5.021   4.715   5.177  1.4243  1.8859 -0.2215
43996SOL     OW39227   1.910   1.538   8.628  0.6982 -0.8095 -0.1151
43996SOL    HW139228   1.922   1.453   8.586  1.3875 -1.8364  2.0361
43996SOL    HW239229   1.957   1.531   8.711 -0.6483  1.1067  0.8795
43997SOL     OW39230   7.780   3.056   6.094  0.3204 -0.6215 -0.0665
43997SOL    HW139231   7.739   2.981   6.137  0.5198 -1.6904 -1.6252
43997SOL    HW239232   7.727   3.070   6.015 -0.1248  1.3572  0.5246
43998SOL     OW39233  11.973   6.297  12.572  0.4457  0.1252 -0.7324
43998SOL    HW139234  11.914   6.222  12.580  0.1549  0.2275 -1.7982
43998SOL    HW239235  11.915   6.373  12.575  0.6256  0.2654 -0.8075
43999SOL     OW39236   9.366   3.963   0.637 -0.1072  0.3849  0.4840
43999SOL    HW139237   9.296   4.024   0.611 -0.3202  0.0021  0.1492
43999SOL    HW239238   9.339   3.879   0.602  1.6480  0.6471 -1.7049
44000SOL     OW39239   6.235   7.898  12.645  0.2592  0.1569 -0.4161
44000SOL    HW139240   6.224   7.812  12.685  0.1161  0.0168 -0.7546
44000SOL    HW239241   6.147   7.937  12.649 -0.3276 -0.7878 -2.7248
44001SOL     OW39242  12.453   0.807   5.396  0.3179 -0.0410  0.5476
44001SOL    HW139243  12.466   0.754   5.318  0.1703 -1.4491  1.4437
44001SOL    HW239244  12.359   0.806   5.411  0.5156 -1.7497  2.0165
44002SOL     OW39245   9.272  10.726   2.675 -0.3647 -0.7545 -0.2010
44002SOL    HW139246   9.261  10.725   2.770  1.0180  2.4566  0.1216
44002SOL    HW239247   9.199  10.780   2.643  1.6487  2.0222 -0.3845
44003SOL     OW39248   2.224   4.945   9.188 -0.2069  0.0127  0.2069
44003SOL    HW139249   2.169   4.997   9.247 -0.6323  0.6809 -0.7483
44003SOL    HW239250   2.299   5.002   9.171 -1.4462  1.0692 -2.1427
44004SOL     OW39251   7.430   3.650   7.159 -0.6765 -0.1000 -0.2660
44004SOL    HW139252   7.411   3.570   7.110 -0.9661  0.0359 -0.3798
44004SOL    HW239253   7.377   3.643   7.239 -0.0586 -0.4093  0.1177
44005SOL     OW39254  10.099  11.703  10.214  0.0886  0.2933 -0.3191
44005SOL    HW139255  10.085  11.637  10.146  3.0610 -1.4031  0.5776
44005SOL    HW239256  10.012  11.715  10.253 -0.7736 -2.2758 -1.2240
44006SOL     OW39257   1.336   5.766   7.892  0.2784 -0.5987 -0.0815
44006SOL    HW139258   1.396   5.696   7.866  0.2073 -0.0061 -1.9746
44006SOL    HW239259   1.390   5.845   7.896 -0.1548 -0.2630 -0.7176
44007SOL     OW39260   7.597   8.634   6.731 -0.1850  0.3592  0.5003
44007SOL    HW139261   7.667   8.577   6.698 -0.4501  1.0244 -1.2904
44007SOL    HW239262   7.583   8.698   6.662 -1.2408  1.4343  1.6602
44008SOL     OW39263   1.447   5.780   7.094  0.8416 -0.4599  0.2554
44008SOL    HW139264   1.373   5.798   7.036  1.6687 -1.9888 -1.3758
44008SOL    HW239265   1.499   5.860   7.093  1.0365 -0.5583 -1.5056
44009SOL     OW39266   7.084   7.791   1.646  0.0488 -0.0405  0.2325
44009SOL    HW139267   7.080   7.695   1.648 -0.4804 -0.0188  0.6341
44009SOL    HW239268   6.994   7.817   1.625  0.0051  0.3751  0.9042
44010SOL     OW39269   6.593   8.541   1.826 -0.4805 -0.6813  0.2039
44010SOL    HW139270   6.619   8.570   1.913 -0.5775 -0.9845  0.3356
44010SOL    HW239271   6.499   8.524   1.834 -0.6124 -0.1188 -0.1225
44011SOL     OW39272   4.069  11.365  11.282 -0.1660 -0.4221  0.3198
44011SOL    HW139273   4.030  11.302  11.343 -0.3709 -1.2330 -0.6173
44011SOL    HW239274   4.130  11.314  11.230  1.6817  0.7034  1.2862
44012SOL     OW39275  10.900   7.868  12.212  0.3475 -0.3492 -0.3324
44012SOL    HW139276  10.822   7.889  12.262 -1.0400 -1.6694 -1.8044
44012SOL    HW239277  10.942   7.797  12.262 -1.2456 -1.9463 -1.1340
44013SOL     OW39278   1.890   1.078   5.943 -0.2401 -0.2565 -0.1416
44013SOL    HW139279   1.863   0.999   5.990  0.2814 -0.8028 -0.7622
44013SOL    HW239280   1.809   1.110   5.903 -0.6659  0.1402  1.0033
44014SOL     OW39281   1.091   3.945   3.190 -0.1912 -0.1242 -0.5304
44014SOL    HW139282   1.095   3.852   3.170 -0.9796 -0.6905  1.6981
44014SOL    HW239283   1.183   3.969   3.207 -0.1105 -0.7901  0.0322
44015SOL     OW39284   6.717   1.078   9.649 -0.2310  0.0035  0.4668
44015SOL    HW139285   6.712   0.992   9.690  0.6580 -0.6340 -0.7020
44015SOL    HW239286   6.754   1.061   9.562 -0.0322  1.5611  0.2192
44016SOL     OW39287   3.307   2.020   3.116 -0.1232 -0.0632  0.4551
44016SOL    HW139288   3.295   2.101   3.165 -0.8708  1.5634 -2.1780
44016SOL    HW239289   3.250   2.030   3.039  1.5560 -2.0623 -1.1736
44017SOL     OW39290   0.225  10.194  11.211 -0.1688  0.3321  0.2171
44017SOL    HW139291   0.215  10.160  11.300 -2.3916  3.1863  1.2079
44017SOL    HW239292   0.136  10.199  11.178  0.4762  1.0415 -1.4930
44018SOL     OW39293  10.246   5.601  10.087 -1.1407 -0.6494  0.0169
44018SOL    HW139294  10.339   5.578  10.077 -0.9462  0.3510 -0.7102
44018SOL    HW239295  10.215   5.546  10.159 -0.3604 -2.0840 -0.6838
44019SOL     OW39296   9.979  10.061  10.392  0.1958  0.2972 -0.1999
44019SOL    HW139297   9.977   9.972  10.430  0.5949  1.0706  1.7595
44019SOL    HW239298  10.072  10.084  10.389  0.0178  1.3683  1.2216
44020SOL     OW39299   9.096   1.842  12.069  0.1935  0.1439 -0.0042
44020SOL    HW139300   9.013   1.799  12.088 -0.7544  1.9624  0.1876
44020SOL    HW239301   9.082   1.886  11.985  1.3629 -0.4444 -0.5385
44021SOL     OW39302  10.916   2.547  10.452  0.6231  0.4158 -0.7480
44021SOL    HW139303  10.952   2.463  10.480  2.8154  0.9580 -1.7813
44021SOL    HW239304  10.859   2.525  10.378  0.9466 -0.1773 -0.8208
44022SOL     OW39305   4.643  11.239   1.145  0.3374  0.4351 -0.8485
44022SOL    HW139306   4.567  11.291   1.172  1.2388  1.3459  0.0014
44022SOL    HW239307   4.609  11.182   1.075 -0.4903  2.8175 -2.5322
44023SOL     OW39308  10.377   6.122   3.140 -0.0089 -0.5291  0.5030
44023SOL    HW139309  10.404   6.163   3.058 -2.0296  0.6528  0.3537
44023SOL    HW239310  10.427   6.169   3.207 -0.3933  0.4523  0.1327
44024SOL     OW39311   7.676   4.340   4.874 -0.6949  1.0236 -0.6712
44024SOL    HW139312   7.714   4.290   4.803 -1.5293  1.4953 -1.4659
44024SOL    HW239313   7.699   4.291   4.953 -0.9402 -0.2501 -1.3641
44025SOL     OW39314  12.452   0.453  10.127 -0.1408 -0.4372  0.1895
44025SOL    HW139315  12.358   0.473  10.125 -0.3739 -1.4360  0.4095
44025SOL    HW239316  12.481   0.487  10.212 -0.0382  0.9136 -0.3624
44026SOL     OW39317   7.325   1.043   5.692  0.1032  0.0339 -0.3609
44026SOL    HW139318   7.376   0.973   5.651 -1.6923 -2.1337  0.8977
44026SOL    HW239319   7.234   1.021   5.673 -0.5436  1.7193  0.5887
44027SOL     OW39320  10.715   7.491  10.580  0.3106  0.0942 -0.3088
44027SOL    HW139321  10.721   7.395  10.581  1.4001  0.1516  0.0568
44027SOL    HW239322  10.739   7.518  10.668  1.8412  0.7784 -0.8997
44028SOL     OW39323   1.115   5.965   2.166 -0.1596 -0.4557  0.4307
44028SOL    HW139324   1.025   5.947   2.138  0.1464 -1.2020 -0.1313
44028SOL    HW239325   1.119   6.060   2.176  0.0997  0.1368 -3.5888
44029SOL     OW39326   3.309   9.283   3.281 -0.1608  0.5664 -0.0061
44029SOL    HW139327   3.305   9.197   3.324 -0.2334 -0.7508 -2.4506
44029SOL    HW239328   3.257   9.273   3.202 -0.4171  3.0070 -0.2246
44030SOL     OW39329   4.978   0.513   7.666 -0.3164  0.4243  0.1293
44030SOL    HW139330   4.888   0.480   7.659  0.8405 -2.8336 -0.9299
44030SOL    HW239331   4.995   0.514   7.760 -1.3414  0.7628  0.3270
44031SOL     OW39332   3.934   9.648   7.251 -0.0566 -0.0824  0.5567
44031SOL    HW139333   3.958   9.738   7.273 -0.4079  0.1385  0.0549
44031SOL    HW239334   3.984   9.594   7.312 -0.0433  0.4630  1.0348
44032SOL     OW39335  10.461   3.745   0.331  0.1515 -0.5684  0.4086
44032SOL    HW139336  10.393   3.678   0.335  1.0568 -1.4987  0.5228
44032SOL    HW239337  10.415   3.824   0.304 -1.3529 -0.6623  2.4184
44033SOL     OW39338  12.376  10.060   7.372 -0.0953  0.0594  0.7835
44033SOL    HW139339  12.301  10.023   7.326 -0.2188  0.3330  0.7672
44033SOL    HW239340  12.435  10.088   7.302  0.6149 -1.3457  0.7863
44034SOL     OW39341   9.342   9.825  11.097  0.4817  0.1984 -0.0082
44034SOL    HW139342   9.287   9.858  11.026 -0.4267  0.8818  0.9920
44034SOL    HW239343   9.380   9.903  11.137  1.1682 -0.1964  0.1310
44035SOL     OW39344   3.277   8.802   6.325  0.4330 -0.4655  0.0297
44035SOL    HW139345   3.293   8.768   6.413 -0.2619  1.1131  0.8068
44035SOL    HW239346   3.291   8.727   6.267 -2.4703 -2.4906  1.7308
44036SOL     OW39347   2.331   0.849   4.308  0.1201  0.1811  0.0355
44036SOL    HW139348   2.354   0.761   4.337 -0.4828 -0.3525 -1.0602
44036SOL    HW239349   2.385   0.863   4.230 -1.8384 -0.3815 -1.4968
44037SOL     OW39350   9.157   4.099  10.057  0.1792  0.7599 -0.7506
44037SOL    HW139351   9.205   4.078  10.138  0.1588  1.3066 -0.5914
44037SOL    HW239352   9.180   4.190  10.039 -1.4890  1.3272 -0.1711
44038SOL     OW39353   0.333   6.335   2.034  0.0712  0.7077  0.0620
44038SOL    HW139354   0.291   6.395   1.973 -0.1152  1.2422  0.7109
44038SOL    HW239355   0.293   6.250   2.016 -0.2990  0.9478 -0.2525
44039SOL     OW39356  10.839   5.455   7.156 -0.3096 -0.1253  0.5046
44039SOL    HW139357  10.777   5.426   7.223  0.3590 -0.5766  0.9478
44039SOL    HW239358  10.802   5.536   7.122 -0.6221  0.1574  1.4814
44040SOL     OW39359   1.925   4.377  11.529 -0.2793  0.1512  0.1759
44040SOL    HW139360   1.973   4.341  11.603  0.5081  1.1688  0.1876
44040SOL    HW239361   1.858   4.433  11.570  0.8783  1.6165  0.1436
44041SOL     OW39362   1.081   6.524  12.095 -0.6436  0.2723 -0.5517
44041SOL    HW139363   1.139   6.448  12.101 -1.2264 -0.0887  1.7443
44041SOL    HW239364   0.997   6.488  12.067 -0.9652 -0.0258  0.6964
44042SOL     OW39365   6.197  12.254   9.362 -0.1221  0.0070 -0.1007
44042SOL    HW139366   6.157  12.189   9.304  0.2745 -2.0381  1.8118
44042SOL    HW239367   6.218  12.206   9.442  1.5934  2.1608  0.8476
44043SOL     OW39368   1.147   7.204  10.609  0.7941 -0.0344 -0.1931
44043SOL    HW139369   1.066   7.218  10.560  1.1920 -1.1156 -1.2067
44043SOL    HW239370   1.128   7.235  10.697 -1.2327 -1.6151  0.0007
44044SOL     OW39371   1.480   6.467   6.037 -0.4975 -0.5354  0.1419
44044SOL    HW139372   1.449   6.522   5.965  1.8871 -0.6414 -1.0372
44044SOL    HW239373   1.445   6.509   6.115 -1.3098  0.8628 -0.9131
44045SOL     OW39374   3.817   0.778   2.917  0.8592  0.4521 -0.3323
44045SOL    HW139375   3.835   0.724   2.994  0.5786 -0.3957 -0.8473
44045SOL    HW239376   3.766   0.721   2.859  0.4087  1.3249 -0.8224
44046SOL     OW39377   5.889   0.329   8.449  0.0628  0.5570  0.5506
44046SOL    HW139378   5.953   0.319   8.378 -1.5233 -1.5825 -0.7198
44046SOL    HW239379   5.878   0.240   8.484 -1.6171  1.0003  1.2650
44047SOL     OW39380   1.531   8.964   2.169  0.2057  0.3302  0.0574
44047SOL    HW139381   1.594   8.972   2.097 -0.9750 -0.2539 -1.0945
44047SOL    HW239382   1.559   9.028   2.234  1.7490  0.3486 -0.5963
44048SOL     OW39383   4.194  11.338   8.827  0.0386  0.1267  0.2191
44048SOL    HW139384   4.113  11.379   8.857  0.4729  0.7494  0.5521
44048SOL    HW239385   4.230  11.398   8.763  0.3739 -0.0175  0.2702
44049SOL     OW39386   9.120   7.151  11.356 -0.1469  0.0989 -0.0606
44049SOL    HW139387   9.052   7.218  11.366 -0.6604 -0.3674 -0.3519
44049SOL    HW239388   9.158   7.141  11.443  0.9463  1.8155 -0.3105
44050SOL     OW39389   9.832   3.237  12.104 -0.4648 -0.2875 -0.6894
44050SOL    HW139390   9.852   3.144  12.090 -1.0177 -0.3762 -0.9001
44050SOL    HW239391   9.902   3.268  12.163 -1.0916 -1.1945  0.5890
44051SOL     OW39392   6.216   2.679   7.665 -0.0276  0.1150 -0.3274
44051SOL    HW139393   6.308   2.703   7.672 -0.2046  0.6788  0.0955
44051SOL    HW239394   6.168   2.754   7.701 -0.6251 -0.4541  0.0856
44052SOL     OW39395   8.864   1.929   1.726 -0.0604  0.2544 -0.4649
44052SOL    HW139396   8.901   1.875   1.795 -0.2515  1.6363  0.7706
44052SOL    HW239397   8.784   1.965   1.763 -1.1844 -0.4320 -2.0915
44053SOL     OW39398   3.616   8.305  11.404 -0.1134  0.3648  0.3300
44053SOL    HW139399   3.675   8.232  11.423 -3.6792 -2.7062  0.8264
44053SOL    HW239400   3.614   8.310  11.309 -0.8194 -1.2383  0.2200
44054SOL     OW39401   1.264   0.137   6.083  0.2649 -0.5992 -0.4001
44054SOL    HW139402   1.247   0.114   6.174 -2.0131 -1.4306 -0.9501
44054SOL    HW239403   1.246   0.056   6.034 -1.7173  0.6131 -1.8340
44055SOL     OW39404   4.547   2.928   8.687 -0.3542  0.5396 -0.7088
44055SOL    HW139405   4.461   2.952   8.652  0.7965  3.1383 -1.9966
44055SOL    HW239406   4.541   2.948   8.781 -1.6039 -0.8663 -0.4447
44056SOL     OW39407   9.432   7.774   0.216  0.1451  0.0080 -0.1512
44056SOL    HW139408   9.438   7.744   0.125 -1.9761 -1.1217  0.0254
44056SOL    HW239409   9.393   7.861   0.210  0.3818  0.1025 -0.3362
44057SOL     OW39410   6.880   8.286   5.169  0.5716 -0.3060  0.5227
44057SOL    HW139411   6.891   8.262   5.261 -0.9013 -1.8903  0.3419
44057SOL    HW239412   6.799   8.337   5.167  1.5837  1.3625  0.3243
44058SOL     OW39413   1.286   9.820   4.084 -0.4190  0.0298 -0.1020
44058SOL    HW139414   1.239   9.877   4.145  0.1900  1.4603 -0.9197
44058SOL    HW239415   1.236   9.738   4.085 -2.3193  1.1195 -0.1408
44059SOL     OW39416   8.780   9.436   2.067 -0.2019 -0.3124 -0.1746
44059SOL    HW139417   8.841   9.424   1.994 -0.7626 -1.0355 -0.5365
44059SOL    HW239418   8.764   9.530   2.069 -0.2074 -0.2823 -1.0127
44060SOL     OW39419   3.856  10.190   2.231 -0.0744  0.0226  0.0916
44060SOL    HW139420   3.850  10.103   2.270  0.4250  0.6512  1.6210
44060SOL    HW239421   3.928  10.232   2.276  0.7635  0.6948 -1.7688
44061SOL     OW39422   6.468  11.578   2.013  0.3479 -0.4379 -0.9430
44061SOL    HW139423   6.412  11.560   1.938  0.8772  0.1765 -1.4943
44061SOL    HW239424   6.408  11.578   2.088 -0.1503 -1.2474 -1.3288
44062SOL     OW39425   2.590   2.990  12.225  0.1042  0.3462  0.0212
44062SOL    HW139426   2.645   2.940  12.285  0.9498  1.9857  0.6819
44062SOL    HW239427   2.520   3.025  12.280 -0.0804  0.4745 -0.2899
44063SOL     OW39428   3.444   9.512  11.472  0.2771 -0.6064  0.0532
44063SOL    HW139429   3.537   9.535  11.477 -0.2195  1.4642  1.3348
44063SOL    HW239430   3.439   9.440  11.409  2.7016 -0.5829 -0.2319
44064SOL     OW39431   2.990   8.585   9.554  0.0199  0.4175 -0.4318
44064SOL    HW139432   2.991   8.510   9.613  0.8071  1.4013  0.8465
44064SOL    HW239433   3.043   8.556   9.479 -2.4446 -1.4871 -1.5846
44065SOL     OW39434   8.694   2.255  10.727  0.3972  0.3319 -0.4336
44065SOL    HW139435   8.728   2.196  10.794  1.0128  1.0993 -0.0402
44065SOL    HW239436   8.766   2.266  10.665  0.1550  0.3568 -0.7145
44066SOL     OW39437   0.506  11.439   3.672 -0.4764  0.2773 -0.3848
44066SOL    HW139438   0.576  11.387   3.712 -0.8383 -0.7355 -1.0183
44066SOL    HW239439   0.545  11.525   3.659  0.9794 -0.5108 -1.5663
44067SOL     OW39440   8.284   6.256  12.542 -0.1757  0.0757  0.2240
44067SOL    HW139441   8.316   6.201  12.614  0.4792 -1.5502 -1.2550
44067SOL    HW239442   8.350   6.325  12.533  0.9361 -1.0406 -0.2972
44068SOL     OW39443   7.720  12.116   3.718 -0.2738  0.8337  0.1453
44068SOL    HW139444   7.754  12.146   3.802 -0.2173  0.6439  0.1914
44068SOL    HW239445   7.656  12.048   3.741 -1.3533  1.8068  0.1083
44069SOL     OW39446  10.914   2.005  12.641  0.7321 -0.1221  0.2317
44069SOL    HW139447  10.956   2.031  12.559  0.7100  0.9753  0.5614
44069SOL    HW239448  10.942   1.914  12.654  0.5053 -0.4156 -1.1336
44070SOL     OW39449   7.973  12.003   4.295 -0.3088  0.7135  0.6367
44070SOL    HW139450   8.065  12.010   4.268 -0.1719  1.8186  1.2937
44070SOL    HW239451   7.936  12.089   4.273 -1.6005 -0.2145 -1.0075
44071SOL     OW39452   7.500   4.075   6.292 -0.0780  0.1914  0.1056
44071SOL    HW139453   7.431   4.112   6.347 -0.4981 -2.4909  1.5476
44071SOL    HW239454   7.462   3.995   6.256  1.6882 -0.4204 -0.5034
44072SOL     OW39455   9.278   7.524   2.589 -0.4122  0.1943  0.4966
44072SOL    HW139456   9.350   7.536   2.651 -1.9611  2.5093  2.0052
44072SOL    HW239457   9.232   7.446   2.619  1.2334 -1.1474 -0.3214
44073SOL     OW39458  10.278   7.524   2.443  0.3809  0.0814  0.0420
44073SOL    HW139459  10.259   7.488   2.530  0.2477 -0.2648 -0.1269
44073SOL    HW239460  10.224   7.472   2.383  2.6994 -1.7846 -0.6062
44074SOL     OW39461  11.037  12.078   9.696 -0.0990  0.2793 -0.0212
44074SOL    HW139462  11.101  12.027   9.746  0.8954  0.9698 -0.5698
44074SOL    HW239463  11.002  12.141   9.758  0.0656  0.1776  0.1748
44075SOL     OW39464  10.961  12.390   8.407  0.1009  0.2672  0.1013
44075SOL    HW139465  11.039  12.437   8.434 -0.3095  0.5190  0.8814
44075SOL    HW239466  10.981  12.357   8.319  1.2542 -0.0971  0.4920
44076SOL     OW39467   4.632  11.988   0.576 -0.1226 -0.3691 -0.1626
44076SOL    HW139468   4.638  11.991   0.481  0.1959 -0.6974 -0.1581
44076SOL    HW239469   4.692  11.917   0.601  1.1393  0.8535  0.3958
44077SOL     OW39470   6.826   7.466   8.182 -0.4412  0.1601  0.3078
44077SOL    HW139471   6.763   7.422   8.239 -1.5825  2.5005  0.9784
44077SOL    HW239472   6.773   7.507   8.114  0.2924  2.2137  0.8989
44078SOL     OW39473   6.281   9.817  10.716  0.3145 -0.0666 -0.3430
44078SOL    HW139474   6.215   9.867  10.764  0.0346 -1.3560  0.6778
44078SOL    HW239475   6.239   9.797  10.632 -0.7987 -1.2120  0.4402
44079SOL     OW39476   9.564  10.368   9.830  0.1228 -0.6679 -0.2733
44079SOL    HW139477   9.635  10.429   9.851 -1.5674  0.8568  1.3501
44079SOL    HW239478   9.527  10.344   9.915 -1.8655 -0.6987 -1.0884
44080SOL     OW39479   8.611   3.186   2.754 -0.1662  0.3869 -0.0192
44080SOL    HW139480   8.592   3.240   2.677  0.7020 -1.6409 -1.7462
44080SOL    HW239481   8.665   3.115   2.721  1.2162  0.0306  2.7197
44081SOL     OW39482   8.470   6.221   5.170  0.0178  0.2404 -0.0570
44081SOL    HW139483   8.477   6.192   5.079  1.2511  2.3657 -0.7072
44081SOL    HW239484   8.376   6.218   5.189 -0.4199  1.0555 -1.8776
44082SOL     OW39485   7.430   5.616  12.386  0.6291 -0.1799  0.1971
44082SOL    HW139486   7.432   5.613  12.481  0.5573  1.1858  0.2568
44082SOL    HW239487   7.338   5.603  12.363  0.5552  0.1170  0.3327
44083SOL     OW39488  12.211  10.253   4.035 -0.2844 -0.5885 -0.1759
44083SOL    HW139489  12.247  10.271   4.122  1.2231  0.3792 -0.9476
44083SOL    HW239490  12.158  10.329   4.015 -0.5273 -0.7528 -0.1575
44084SOL     OW39491   3.989   4.698  11.754  0.1752  0.1634 -0.0291
44084SOL    HW139492   4.024   4.629  11.698  1.5044  0.5105  0.3345
44084SOL    HW239493   3.935   4.652  11.819  1.8873 -0.6805  0.8627
44085SOL     OW39494   4.643   7.088   2.494 -0.0171 -0.2326  0.3123
44085SOL    HW139495   4.667   6.995   2.501  0.9979  0.0412  0.5105
44085SOL    HW239496   4.723   7.132   2.467 -1.3502  0.0708 -4.1182
44086SOL     OW39497   5.431  11.254   7.659  0.3125  0.0510 -0.6238
44086SOL    HW139498   5.504  11.311   7.683  0.4207 -0.0904 -0.6120
44086SOL    HW239499   5.423  11.263   7.564 -0.0609  0.5493 -0.5498
44087SOL     OW39500   9.239   8.511   6.799 -0.2592  0.3199 -0.1177
44087SOL    HW139501   9.155   8.477   6.767 -0.6296 -0.1680  1.3241
44087SOL    HW239502   9.219   8.598   6.832 -0.6158 -0.5131  1.9580
44088SOL     OW39503  12.400   0.857   7.209  0.3146  0.0483  0.3783
44088SOL    HW139504  12.450   0.782   7.240  1.1998  0.5694  0.2681
44088SOL    HW239505  12.310   0.839   7.233  0.8697  0.1853  2.7575
44089SOL     OW39506   0.278   3.092   9.283  0.1152 -0.0828  0.3878
44089SOL    HW139507   0.315   3.181   9.289 -0.2985  0.1730 -0.6006
44089SOL    HW239508   0.341   3.044   9.230 -0.2785 -0.0250 -0.1396
44090SOL     OW39509   9.101   6.913  11.805 -0.2592  0.2191 -0.3566
44090SOL    HW139510   9.184   6.956  11.825  1.1311 -1.8882 -1.2010
44090SOL    HW239511   9.080   6.943  11.716  0.0521  0.1014 -0.4723
44091SOL     OW39512  10.223   0.657   8.726  0.2348  0.4693  0.0343
44091SOL    HW139513  10.271   0.672   8.807 -0.2704  3.3990 -0.1097
44091SOL    HW239514  10.262   0.718   8.663 -2.3839  1.6935 -0.5686
44092SOL     OW39515   8.491   6.382   1.194  0.1499 -0.3978 -0.2610
44092SOL    HW139516   8.402   6.362   1.223  0.7217 -2.8191  0.0200
44092SOL    HW239517   8.547   6.356   1.267  1.1703 -0.0054 -0.8740
44093SOL     OW39518   8.720   2.936   2.262  0.0015  0.0650 -0.3818
44093SOL    HW139519   8.775   3.012   2.242 -1.5035  1.2652 -0.1380
44093SOL    HW239520   8.782   2.866   2.281  1.4407  1.3211 -0.2554
44094SOL     OW39521   4.930   3.739  11.754 -0.2837  0.0344 -0.0942
44094SOL    HW139522   4.995   3.711  11.819 -0.8255  0.7176  0.7636
44094SOL    HW239523   4.847   3.740  11.803 -0.9931 -1.0479 -1.2256
44095SOL     OW39524   9.022   4.036   9.467 -0.1240 -0.2125  0.2423
44095SOL    HW139525   9.064   4.114   9.432 -0.2338  0.0726  0.7323
44095SOL    HW239526   9.016   4.052   9.562 -0.2790 -0.7490  0.3268
44096SOL     OW39527   8.073  12.454   7.935  0.5072 -0.0348  0.1149
44096SOL    HW139528   8.057  12.480   7.844  0.9766 -0.4756 -0.1028
44096SOL    HW239529   8.135  12.382   7.928 -0.0547 -0.6011  0.7398
44097SOL     OW39530   2.620   8.161   1.990 -0.2552  0.3271 -0.2543
44097SOL    HW139531   2.697   8.199   1.946 -1.0166  0.3157 -1.6574
44097SOL    HW239532   2.653   8.080   2.029  1.0190  1.5773  1.4217
44098SOL     OW39533  12.494   4.932   7.342 -0.4640  0.0056  0.3672
44098SOL    HW139534  12.460   4.862   7.397  0.1439 -0.6009 -0.0223
44098SOL    HW239535  12.430   5.003   7.351 -0.5221 -0.1835  1.6200
44099SOL     OW39536   9.106   1.107   1.348  0.0920 -0.2937 -0.3778
44099SOL    HW139537   9.061   1.132   1.267 -0.3987  0.1488  0.0230
44099SOL    HW239538   9.036   1.099   1.413  0.6168  0.7838  0.3506
44100SOL     OW39539   4.426   7.116   0.367 -0.2405 -0.3333 -0.1309
44100SOL    HW139540   4.350   7.149   0.415  1.3328 -0.2204  2.4489
44100SOL    HW239541   4.447   7.186   0.305 -1.1154  0.4676  0.4589
44101SOL     OW39542  12.514  10.120   1.330 -0.1237  0.1564  0.6855
44101SOL    HW139543  12.506  10.215   1.343 -0.3146  0.0338  1.4942
44101SOL    HW239544  12.424  10.090   1.318 -0.0770  0.0549  0.5946
44102SOL     OW39545   5.524  12.579   8.106  1.0597 -0.0960  0.4380
44102SOL    HW139546   5.459  12.515   8.077  0.5859  0.6036 -0.0944
44102SOL    HW239547   5.590  12.528   8.152  0.4629 -0.9041  0.4105
44103SOL     OW39548   7.878   8.934  10.679 -0.4039  0.1810  0.6967
44103SOL    HW139549   7.835   8.848  10.674  0.0829 -0.0776  0.8993
44103SOL    HW239550   7.822   8.986  10.736 -0.0578 -0.3926  1.5751
44104SOL     OW39551   1.839   5.086   6.501  0.0414  0.4867 -0.5584
44104SOL    HW139552   1.816   5.167   6.546 -2.0557 -0.8405  0.9517
44104SOL    HW239553   1.875   5.030   6.570  1.8528  0.2111 -1.6587
44105SOL     OW39554   7.345   5.596   6.432 -0.6706  0.1921 -0.2972
44105SOL    HW139555   7.359   5.624   6.342 -1.0120 -1.3513 -0.8669
44105SOL    HW239556   7.268   5.539   6.428 -0.7930  0.2267  0.9937
44106SOL     OW39557   7.878   5.854   3.053 -0.2451  0.4012 -0.4391
44106SOL    HW139558   7.817   5.872   2.981  1.3299  1.2174 -1.6366
44106SOL    HW239559   7.958   5.826   3.009  0.8434  1.1808  0.9908
44107SOL     OW39560   9.568   2.080   9.511 -0.1618  0.1123 -0.2999
44107SOL    HW139561   9.577   2.175   9.502  2.0970 -0.2046 -2.6988
44107SOL    HW239562   9.648   2.053   9.556 -0.3543 -0.7335 -0.4599
44108SOL     OW39563   6.533   1.487   7.511  0.2050 -0.1921 -0.3333
44108SOL    HW139564   6.516   1.457   7.600  0.8220  0.1481 -0.0989
44108SOL    HW239565   6.570   1.411   7.467 -0.5862 -0.5211 -0.4581
44109SOL     OW39566   5.935   6.480   8.812 -0.6298 -0.2602 -0.4583
44109SOL    HW139567   5.986   6.448   8.738 -1.6136 -1.1043 -0.7980
44109SOL    HW239568   5.895   6.561   8.779  2.8121  2.1547  0.7893
44110SOL     OW39569  11.963   5.875   4.940 -0.3737 -0.2827 -0.2486
44110SOL    HW139570  11.936   5.966   4.931 -1.1695 -0.6285 -1.8824
44110SOL    HW239571  11.905   5.827   4.879  0.6875 -1.7269 -0.1729
44111SOL     OW39572   7.002   8.440  10.652  0.4524  0.2119  0.1561
44111SOL    HW139573   6.947   8.501  10.700 -0.3515 -0.9547  0.7608
44111SOL    HW239574   7.052   8.395  10.720 -0.1995 -0.9800 -0.1326
44112SOL     OW39575   2.738   6.135  11.851 -0.1582  0.7325 -0.1978
44112SOL    HW139576   2.830   6.158  11.864 -0.0491  0.7898 -1.0177
44112SOL    HW239577   2.734   6.100  11.762 -0.7301 -0.3604  0.2402
44113SOL     OW39578  12.580   8.272   6.002  0.4149  0.0099 -0.1793
44113SOL    HW139579  12.651   8.231   5.953 -1.5606 -1.0785 -2.2876
44113SOL    HW239580  12.538   8.331   5.940 -0.9360  0.1405  0.8113
44114SOL     OW39581   5.056   5.463  12.263 -0.0594 -0.4036 -0.2237
44114SOL    HW139582   5.108   5.461  12.182  0.9150 -0.9377  0.4043
44114SOL    HW239583   5.010   5.379  12.265 -1.6268  0.3676 -1.1741
44115SOL     OW39584   9.331  10.370   2.949 -0.1660 -0.3742  0.2376
44115SOL    HW139585   9.362  10.298   3.004  0.5853  0.1001  0.4498
44115SOL    HW239586   9.351  10.343   2.860 -2.2631 -1.5823  0.0675
44116SOL     OW39587   6.629   8.374   9.462 -0.2381  0.1933 -0.0661
44116SOL    HW139588   6.608   8.457   9.503 -1.8643 -0.3149  0.2122
44116SOL    HW239589   6.704   8.341   9.511 -0.6535  0.7045  0.9319
44117SOL     OW39590  10.108   6.626  10.804  0.6160  0.2847 -0.0834
44117SOL    HW139591  10.200   6.653  10.811  0.5182  0.8286 -0.8631
44117SOL    HW239592  10.108   6.535  10.833  1.4942  0.1115 -0.5963
44118SOL     OW39593   0.662   5.844   5.443  0.3825 -0.3194 -0.2355
44118SOL    HW139594   0.583   5.897   5.432  0.4873 -0.1642 -0.2520
44118SOL    HW239595   0.692   5.826   5.354  0.2831 -0.5047 -0.2319
44119SOL     OW39596   4.575   8.235  10.492 -0.6365 -0.6631  0.2325
44119SOL    HW139597   4.549   8.306  10.434  0.0911 -0.0324  0.6572
44119SOL    HW239598   4.582   8.158  10.434 -2.6059 -0.7002 -0.0211
44120SOL     OW39599   3.977   6.379   6.098  0.1906 -0.1022  0.5145
44120SOL    HW139600   3.892   6.394   6.140 -0.5544 -1.5821 -0.4073
44120SOL    HW239601   4.034   6.446   6.137 -1.3940  0.9822  1.0954
44121SOL     OW39602   4.229   3.917   4.951  0.0811 -0.0564  0.3184
44121SOL    HW139603   4.303   3.874   4.994  0.3540 -0.3834 -0.4683
44121SOL    HW239604   4.246   4.010   4.962  0.2467 -0.1316  0.7460
44122SOL     OW39605   3.486  11.437   3.668  0.0196 -0.1122 -0.2436
44122SOL    HW139606   3.393  11.446   3.647  0.1412 -0.4278 -0.9104
44122SOL    HW239607   3.488  11.439   3.764 -0.6579  0.0391 -0.2244
44123SOL     OW39608   1.774   6.311  12.669  0.5384 -0.0490 -0.1817
44123SOL    HW139609   1.868   6.326  12.680  0.4150 -0.6512  2.0957
44123SOL    HW239610   1.733   6.362  12.739 -0.6777 -1.4077  0.1422
44124SOL     OW39611   0.002  10.718   9.047 -0.3681 -0.2469  0.2681
44124SOL    HW139612  -0.075  10.760   9.085 -0.3399  0.8297 -0.8037
44124SOL    HW239613   0.075  10.770   9.080 -0.2677  0.0477 -0.4037
44125SOL     OW39614   2.292   5.630   1.566 -0.2691  0.0387  0.2052
44125SOL    HW139615   2.254   5.594   1.646  0.9427  0.0342  0.7851
44125SOL    HW239616   2.218   5.632   1.504 -0.8116 -1.6435  0.7383
44126SOL     OW39617   7.435   7.136  11.956 -0.5484  0.1577  0.9207
44126SOL    HW139618   7.462   7.051  11.921 -0.1544  0.1692  1.1938
44126SOL    HW239619   7.390   7.114  12.038 -1.4420  0.1334  0.4449
44127SOL     OW39620   3.726  12.295   4.080 -0.0022  0.1404 -0.1687
44127SOL    HW139621   3.641  12.282   4.124  1.1667 -0.8008  1.9472
44127SOL    HW239622   3.748  12.209   4.046  0.7585  0.0201  0.5888
44128SOL     OW39623   7.459   4.544   0.909 -0.5938 -0.3465 -0.2977
44128SOL    HW139624   7.462   4.589   0.994  1.9757  3.3160 -2.0476
44128SOL    HW239625   7.536   4.488   0.909 -0.7085 -0.5047 -0.1387
44129SOL     OW39626  10.397   8.478   7.019  0.2479 -0.2071  0.5800
44129SOL    HW139627  10.465   8.527   6.973 -0.5477 -0.0744 -0.4731
44129SOL    HW239628  10.315   8.515   6.988 -0.3341 -0.8930  1.2598
44130SOL     OW39629   5.685  10.002  11.335  0.0199 -0.1427 -0.8547
44130SOL    HW139630   5.730  10.021  11.253  1.9182 -0.1534  0.1341
44130SOL    HW239631   5.730  10.055  11.400 -1.7065  0.1842  0.1576
44131SOL     OW39632   9.893   7.745   9.952 -0.0045 -0.3913 -0.3985
44131SOL    HW139633   9.983   7.747   9.922  0.5018 -2.3657  0.8078
44131SOL    HW239634   9.856   7.667   9.910 -1.2837  0.6016 -1.1804
44132SOL     OW39635  12.592  12.388   2.891  0.1100  0.1973  0.2957
44132SOL    HW139636  12.614  12.415   2.980 -0.0052 -0.6615  0.5890
44132SOL    HW239637  12.671  12.346   2.858  0.0899  0.3445  0.0588
44133SOL     OW39638   2.860   5.845   1.472 -0.2948 -0.0794  0.2229
44133SOL    HW139639   2.796   5.869   1.405  0.0553  0.4024  0.0592
44133SOL    HW239640   2.895   5.929   1.503  0.1309 -0.3336  0.4325
44134SOL     OW39641   3.755  11.716  11.238  0.4695 -0.2981  0.5284
44134SOL    HW139642   3.690  11.783  11.216  1.9162  1.0174  0.0775
44134SOL    HW239643   3.722  11.675  11.317 -0.0997  1.4893  1.2620
44135SOL     OW39644   1.801   6.086   6.580 -0.3796 -0.1801  0.0622
44135SOL    HW139645   1.862   6.082   6.654  0.4443  0.4943 -0.5660
44135SOL    HW239646   1.714   6.079   6.621  0.0074  1.1507  1.2186
44136SOL     OW39647   6.751   0.619  10.689  0.4357 -0.5443  0.2006
44136SOL    HW139648   6.765   0.568  10.610  0.6918 -0.4308  0.1704
44136SOL    HW239649   6.837   0.656  10.710  0.1275  0.4430 -0.1762
44137SOL     OW39650  12.263   0.783  11.137  0.3879 -0.3451 -0.0109
44137SOL    HW139651  12.328   0.741  11.081 -0.7854 -1.8876 -0.2867
44137SOL    HW239652  12.293   0.873  11.145  1.7664 -0.6461 -1.3135
44138SOL     OW39653   7.692  10.869   7.319 -0.0804 -0.2928  0.0595
44138SOL    HW139654   7.692  10.877   7.414 -0.6797  0.2926  0.0170
44138SOL    HW239655   7.683  10.959   7.287  1.2349 -0.3610 -0.5707
44139SOL     OW39656  12.335   0.308   5.960  0.7651 -0.0478  0.0780
44139SOL    HW139657  12.406   0.310   5.895 -0.5749 -1.3634 -1.5309
44139SOL    HW239658  12.255   0.305   5.907 -0.3749 -1.6740  1.7916
44140SOL     OW39659  10.690   7.023  12.148 -0.5618 -0.5183 -0.1398
44140SOL    HW139660  10.709   7.113  12.175 -2.0713 -0.9454  2.6653
44140SOL    HW239661  10.631   7.033  12.073 -1.4326  0.8555  0.6866
44141SOL     OW39662   5.589  11.537   4.361 -0.2287 -0.5499 -0.0829
44141SOL    HW139663   5.587  11.505   4.271  0.2621  3.3191 -1.6463
44141SOL    HW239664   5.676  11.577   4.371 -1.0784  1.0719  1.3233
44142SOL     OW39665   2.247   7.958  11.859  0.2309 -0.0886 -0.5086
44142SOL    HW139666   2.212   7.978  11.772  0.7227 -0.7179 -0.8662
44142SOL    HW239667   2.284   8.040  11.890  1.6276 -0.2494 -1.6560
44143SOL     OW39668  10.382   0.067   6.565  0.1487  0.0615  0.1530
44143SOL    HW139669  10.292   0.099   6.574 -0.0861 -0.8431  1.1618
44143SOL    HW239670  10.429   0.103   6.640  0.5091  0.1040 -0.0879
44144SOL     OW39671   2.154   7.031   4.147 -0.7226 -0.6984 -0.0125
44144SOL    HW139672   2.209   6.988   4.081 -0.6313  1.0472 -1.1601
44144SOL    HW239673   2.071   7.047   4.102  0.5145  3.9354 -1.2725
44145SOL     OW39674  11.152   9.779  12.440 -0.3064 -0.2236 -0.5624
44145SOL    HW139675  11.182   9.869  12.428 -1.0648  0.0716 -0.2919
44145SOL    HW239676  11.174   9.758  12.531  1.8207 -1.0772 -1.2217
44146SOL     OW39677   0.189   3.188   0.996 -0.3519  0.3977 -0.2913
44146SOL    HW139678   0.284   3.174   0.984 -0.0810  0.5066  1.5104
44146SOL    HW239679   0.157   3.103   1.026 -0.3261  1.0455  1.6947
44147SOL     OW39680  11.926   4.213   5.485  0.4608 -0.2454  0.1118
44147SOL    HW139681  11.908   4.124   5.515 -0.5544 -0.3051 -0.6208
44147SOL    HW239682  11.885   4.270   5.550  0.0914 -0.3348 -0.0421
44148SOL     OW39683   0.763   8.438  10.347 -0.2262 -0.2664 -0.2921
44148SOL    HW139684   0.686   8.441  10.290  0.4375 -0.8012 -1.2451
44148SOL    HW239685   0.731   8.400  10.428 -0.6789 -1.9178 -1.1962
44149SOL     OW39686   1.843   2.543   3.676 -0.3769  0.0101 -0.6400
44149SOL    HW139687   1.920   2.488   3.661 -0.0116 -0.1653  1.5459
44149SOL    HW239688   1.777   2.482   3.710  0.3591  0.8868  2.8316
44150SOL     OW39689  11.376   2.544  11.494  0.0127  0.5618 -0.1452
44150SOL    HW139690  11.442   2.598  11.538  1.1987 -0.7972 -0.1850
44150SOL    HW239691  11.419   2.459  11.482 -1.2991  0.0372 -1.3607
44151SOL     OW39692   9.028   8.921   3.071 -0.5049 -0.2058  0.1029
44151SOL    HW139693   9.101   8.914   3.132 -0.9213 -1.6403  0.4802
44151SOL    HW239694   9.041   8.849   3.010 -0.6569  0.5917 -0.8994
44152SOL     OW39695   9.258   0.695   9.115  0.4672  0.3989 -0.0227
44152SOL    HW139696   9.220   0.780   9.093  1.1887  0.0793 -2.8679
44152SOL    HW239697   9.301   0.709   9.199 -2.1569  1.9151  1.1969
44153SOL     OW39698  12.484   3.849   2.666  0.1117 -0.1023 -0.2158
44153SOL    HW139699  12.528   3.859   2.581 -0.2540 -0.6441 -0.4749
44153SOL    HW239700  12.401   3.806   2.644 -0.4766  0.7702  0.2858
44154SOL     OW39701   7.135   4.426   8.502  0.0325  0.3549  0.4508
44154SOL    HW139702   7.230   4.422   8.517  0.4467  2.5441 -1.0916
44154SOL    HW239703   7.118   4.359   8.436  0.6173  0.3386  0.3110
44155SOL     OW39704   7.590   2.982   0.381 -0.0395 -0.3270 -0.4765
44155SOL    HW139705   7.611   2.914   0.445 -1.3983 -1.9442 -1.6626
44155SOL    HW239706   7.614   3.064   0.424  0.0318 -1.4233  1.6856
44156SOL     OW39707   7.647   7.264  10.324 -0.7524 -0.1797  0.6295
44156SOL    HW139708   7.577   7.288  10.384  0.0322 -1.7619  2.2744
44156SOL    HW239709   7.702   7.204  10.374  0.9589 -0.1549 -1.1003
44157SOL     OW39710   7.943   2.325   6.170  0.6247 -0.1105 -0.1794
44157SOL    HW139711   8.025   2.370   6.148  0.3699 -0.0616 -1.0710
44157SOL    HW239712   7.970   2.235   6.188  0.4720 -1.5639 -5.4538
44158SOL     OW39713  11.485  11.162   7.518 -0.5969  0.0201 -0.0295
44158SOL    HW139714  11.565  11.112   7.504 -0.5202  0.0748  0.2073
44158SOL    HW239715  11.481  11.222   7.444  0.5061  1.2217  0.8338
44159SOL     OW39716  11.303   9.860   7.950  0.1837  0.0054 -0.3082
44159SOL    HW139717  11.211   9.845   7.973  0.7929 -2.0678  1.0947
44159SOL    HW239718  11.302   9.872   7.855 -1.6449  1.2754 -0.1829
44160SOL     OW39719   9.662  11.214   8.889 -0.3628  0.0324  0.3210
44160SOL    HW139720   9.740  11.182   8.934  0.1820 -0.4363 -0.9178
44160SOL    HW239721   9.596  11.222   8.959  1.3192  2.4412  1.7939
44161SOL     OW39722   8.941   9.253   4.272  0.1920  0.4527 -0.1931
44161SOL    HW139723   8.881   9.209   4.212 -0.9947  2.0545 -0.2446
44161SOL    HW239724   8.927   9.346   4.255  1.0555  0.9032  1.4050
44162SOL     OW39725   1.332   3.629   0.183  0.4446  0.2807  0.4820
44162SOL    HW139726   1.427   3.624   0.193  0.5147  0.1090 -0.1781
44162SOL    HW239727   1.305   3.700   0.241  0.5972 -1.5637  2.9817
44163SOL     OW39728  12.202   1.539   1.277 -0.3051  0.1482  0.3355
44163SOL    HW139729  12.111   1.554   1.300 -0.0185  3.0621 -0.0721
44163SOL    HW239730  12.200   1.511   1.186 -0.8597 -2.2317  1.0059
44164SOL     OW39731   4.500   3.820   5.785 -0.2969 -0.7121  0.3477
44164SOL    HW139732   4.416   3.836   5.742  0.9027 -0.4358 -2.0442
44164SOL    HW239733   4.506   3.889   5.851 -1.6803 -0.3866  0.1758
44165SOL     OW39734  10.390  10.297   4.308  0.1271  0.1050 -0.1344
44165SOL    HW139735  10.435  10.233   4.364 -0.7628  1.4356  2.2196
44165SOL    HW239736  10.298  10.270   4.310  0.0723  0.2069 -0.9457
44166SOL     OW39737   0.883   8.618  11.899  0.2524 -0.0579  0.2522
44166SOL    HW139738   0.834   8.682  11.951  1.4246  1.2440 -0.1861
44166SOL    HW239739   0.840   8.619  11.814  1.1447  1.2396 -0.1982
44167SOL     OW39740   8.880  11.001   1.284 -0.3896 -0.4547 -0.2121
44167SOL    HW139741   8.788  11.027   1.277 -0.2373  0.1773  0.0322
44167SOL    HW239742   8.903  10.967   1.198 -0.5984  0.2452 -0.5493
44168SOL     OW39743  11.979   4.770   7.039  0.0017  0.1582  0.3351
44168SOL    HW139744  11.943   4.781   7.127 -0.9235  2.8613 -0.2792
44168SOL    HW239745  11.909   4.800   6.981  1.6254  1.2533 -1.1474
44169SOL     OW39746   8.971  12.606  10.460 -0.3637  0.1890 -0.3427
44169SOL    HW139747   8.880  12.580  10.446 -0.8208  1.7440 -0.4771
44169SOL    HW239748   8.968  12.702  10.461  1.4677  0.2875 -1.5544
44170SOL     OW39749   1.001   4.676   9.584 -0.4471  0.0087 -0.0348
44170SOL    HW139750   0.942   4.660   9.511 -3.2054  3.2857  1.2634
44170SOL    HW239751   0.976   4.610   9.649  1.5408 -2.4484 -1.5277
44171SOL     OW39752   9.198  10.442   8.167 -0.1454 -0.2233 -0.7903
44171SOL    HW139753   9.179  10.379   8.237 -0.1143 -0.9865 -1.4436
44171SOL    HW239754   9.158  10.523   8.196  0.3256 -0.3767  0.3594
44172SOL     OW39755   0.350   9.693   6.301 -0.3231  0.2010 -0.0403
44172SOL    HW139756   0.390   9.622   6.351  0.9270  1.2551  0.5078
44172SOL    HW239757   0.259   9.695   6.331 -0.1846 -0.6934  0.4690
44173SOL     OW39758   8.991  12.331   9.910  0.3053  0.0067  0.4595
44173SOL    HW139759   8.987  12.236   9.923  0.9460 -0.2002 -0.7770
44173SOL    HW239760   9.038  12.363   9.987  0.4360 -0.7225  0.6939
44174SOL     OW39761   5.844   4.727   5.672 -0.3363 -0.5204  0.1027
44174SOL    HW139762   5.755   4.698   5.651  0.0953 -1.6222 -0.2728
44174SOL    HW239763   5.882   4.655   5.722  1.1313 -1.1526 -1.7854
44175SOL     OW39764   7.955  11.109   1.784 -0.1893 -0.5651 -0.3465
44175SOL    HW139765   7.915  11.061   1.712  0.4439 -0.9065 -0.4770
44175SOL    HW239766   7.964  11.198   1.751 -0.5390 -0.5596 -0.4324
44176SOL     OW39767   1.551   9.997   2.324  0.7646 -0.3159 -0.0125
44176SOL    HW139768   1.579   9.955   2.405 -0.3707 -1.3995 -0.1576
44176SOL    HW239769   1.529   9.925   2.266  1.7466  0.4424 -1.3876
44177SOL     OW39770   3.129   3.060   9.053 -0.1898  0.6894 -0.3648
44177SOL    HW139771   3.143   3.030   8.964  0.2394  0.0023 -0.0793
44177SOL    HW239772   3.181   3.000   9.107 -2.9741 -1.0791  0.6394
44178SOL     OW39773   5.360  10.631   4.201 -0.3351  0.4797 -0.3512
44178SOL    HW139774   5.428  10.690   4.233 -1.3744  2.7052 -1.9564
44178SOL    HW239775   5.282  10.685   4.195 -1.8431 -1.5613 -0.2137
44179SOL     OW39776   4.572   4.693   1.349  0.0801  0.2584  0.1541
44179SOL    HW139777   4.656   4.672   1.390 -0.6322 -1.3927  0.8747
44179SOL    HW239778   4.519   4.728   1.420  0.0178  0.9183 -0.2115
44180SOL     OW39779   8.351   2.028   9.200 -0.7916  0.3093  0.0530
44180SOL    HW139780   8.359   2.091   9.271 -1.2988  1.5870 -0.9764
44180SOL    HW239781   8.437   2.029   9.157 -0.5844 -0.2268  0.4406
44181SOL     OW39782  11.407  11.369   9.976  0.0634 -0.2882  0.5974
44181SOL    HW139783  11.343  11.415   9.922  0.2036  1.5036  1.8925
44181SOL    HW239784  11.366  11.362  10.062  0.3469 -1.9996  0.6338
44182SOL     OW39785   8.167   7.420   3.313  0.4499  0.3434  0.1587
44182SOL    HW139786   8.107   7.359   3.356 -0.5657 -0.1087 -1.8266
44182SOL    HW239787   8.253   7.396   3.348 -0.2437 -0.3906  1.4634
44183SOL     OW39788   7.167  10.126  11.676 -0.1524 -0.2141 -0.5982
44183SOL    HW139789   7.162  10.031  11.682 -0.8287 -0.1298  0.4244
44183SOL    HW239790   7.083  10.157  11.708  0.0350  0.7333 -0.9741
44184SOL     OW39791   7.980   3.800   2.289 -0.7206  0.3049  0.0470
44184SOL    HW139792   7.944   3.831   2.206  0.8925 -1.4165 -1.3967
44184SOL    HW239793   8.075   3.799   2.276 -0.4877 -1.2500  1.4286
44185SOL     OW39794  11.125   0.566  12.140 -0.0336 -0.5522  0.9016
44185SOL    HW139795  11.069   0.492  12.118 -0.0481 -0.6389  1.2225
44185SOL    HW239796  11.091   0.638  12.088  1.3271 -1.2739 -1.0930
44186SOL     OW39797   3.613   2.980   5.789 -0.1109  0.2057 -0.4373
44186SOL    HW139798   3.601   3.035   5.711 -2.3381 -0.8712 -0.9269
44186SOL    HW239799   3.595   3.039   5.863  2.1173  1.2589 -0.6498
44187SOL     OW39800   1.929   5.099  10.073  0.0286 -0.1576 -0.1040
44187SOL    HW139801   1.902   5.091  10.164  0.1154 -0.8053 -0.1253
44187SOL    HW239802   1.964   5.012  10.051 -2.3905 -0.8785 -1.5359
44188SOL     OW39803   8.935   9.383   8.057  0.4733  0.0524 -0.2233
44188SOL    HW139804   8.955   9.290   8.066  1.1485  0.2757  0.7695
44188SOL    HW239805   8.854   9.386   8.005 -0.1121 -1.1255  0.5870
44189SOL     OW39806   9.535   7.221   3.553 -0.7177  0.1255 -0.2666
44189SOL    HW139807   9.578   7.303   3.578  0.2223 -0.1893 -0.8175
44189SOL    HW239808   9.450   7.224   3.597 -1.7067  2.4811 -2.1142
44190SOL     OW39809   5.267   5.081   1.714  0.8984  0.0622 -0.2971
44190SOL    HW139810   5.225   5.140   1.653 -1.3501 -1.4677 -0.3676
44190SOL    HW239811   5.214   5.001   1.710  2.1776 -0.9816  1.7631
44191SOL     OW39812   9.297   7.932   3.246 -0.1037  0.1567  0.2503
44191SOL    HW139813   9.348   7.899   3.172  0.6323  0.3755  0.6499
44191SOL    HW239814   9.348   7.906   3.323  0.6880  2.4517  0.5853
44192SOL     OW39815   7.550   1.101  12.245 -0.2138  0.0283 -0.0320
44192SOL    HW139816   7.632   1.109  12.294  0.0209 -0.6644 -0.2969
44192SOL    HW239817   7.578   1.083  12.155 -0.6525  0.2980 -0.2229
44193SOL     OW39818   1.259   3.117  11.056 -0.0736 -0.3627 -0.3398
44193SOL    HW139819   1.195   3.100  10.986  0.7829 -0.7902 -1.0474
44193SOL    HW239820   1.319   3.043  11.051  1.4559  0.8562 -0.8214
44194SOL     OW39821   0.154  11.394   1.908 -0.0592  0.3929  0.0785
44194SOL    HW139822   0.211  11.422   1.837 -0.7361  0.5966 -0.3942
44194SOL    HW239823   0.066  11.404   1.874 -0.3769 -0.3072  0.6526
44195SOL     OW39824   8.004   3.452  11.592 -0.1825 -0.0202 -0.0172
44195SOL    HW139825   8.037   3.464  11.681  0.4216 -1.8106  0.0459
44195SOL    HW239826   7.934   3.517  11.583  1.1915  1.6807  0.9855
44196SOL     OW39827   7.342   7.546  10.866  0.4312  0.4905 -0.2300
44196SOL    HW139828   7.361   7.572  10.776  1.0135 -1.6957 -0.8181
44196SOL    HW239829   7.426   7.553  10.911  0.0127  2.1789  0.3527
44197SOL     OW39830   1.322  10.180   7.315  0.4316  0.3485 -0.0182
44197SOL    HW139831   1.306  10.220   7.229 -1.0102 -2.0379 -0.9714
44197SOL    HW239832   1.334  10.254   7.374  0.4632  2.0931 -2.0876
44198SOL     OW39833  12.293   0.847   2.742 -0.5045  0.3639  0.4628
44198SOL    HW139834  12.294   0.752   2.737  2.8833  0.3119 -0.3792
44198SOL    HW239835  12.277   0.867   2.834 -1.3552 -0.9856  0.6252
44199SOL     OW39836   2.210  10.912   9.645 -0.7051  0.0272  0.2704
44199SOL    HW139837   2.157  10.834   9.629 -0.4527 -0.1025  0.0523
44199SOL    HW239838   2.290  10.878   9.687  0.3280 -0.1031 -1.6717
44200SOL     OW39839   1.629   9.325   7.506 -0.3555  0.5656  0.2261
44200SOL    HW139840   1.640   9.230   7.502  0.2614  0.6675 -1.0794
44200SOL    HW239841   1.606   9.343   7.597 -3.1155 -1.1056 -0.0271
44201SOL     OW39842   5.104   4.294  11.367  0.3804  0.2027 -0.0794
44201SOL    HW139843   5.076   4.333  11.449 -0.9916 -0.1626 -0.3537
44201SOL    HW239844   5.199   4.302  11.368  0.4644 -0.4804  1.8977
44202SOL     OW39845   4.583   9.945  12.242  0.1633 -0.4097  0.0324
44202SOL    HW139846   4.616   9.872  12.294 -0.3740 -0.1795  0.7061
44202SOL    HW239847   4.656  10.007  12.239  0.4336 -0.7315 -0.0855
44203SOL     OW39848   0.307  12.284  11.189  0.2452 -0.0922 -0.1357
44203SOL    HW139849   0.318  12.306  11.096 -1.4885  3.3785  0.2930
44203SOL    HW239850   0.219  12.245  11.193 -0.4842  1.4744  0.1642
44204SOL     OW39851   0.874   9.396   6.667 -0.3202 -0.3938  0.2960
44204SOL    HW139852   0.909   9.403   6.756  1.0292  0.5694 -0.2753
44204SOL    HW239853   0.796   9.340   6.676 -0.1249 -0.4422  2.0411
44205SOL     OW39854   2.988   9.341  11.954 -0.0370 -0.1129 -0.5751
44205SOL    HW139855   2.930   9.330  11.879 -1.1785 -0.8137  0.3753
44205SOL    HW239856   2.935   9.388  12.018  1.0820  0.9114 -0.3733
44206SOL     OW39857  12.583   1.171   2.465  0.2411  0.2465 -0.2492
44206SOL    HW139858  12.546   1.110   2.530  1.2907  0.8479  0.9656
44206SOL    HW239859  12.548   1.141   2.381 -0.4433 -1.1217  0.4881
44207SOL     OW39860  11.292   5.023  10.733 -0.0375 -0.1650 -0.3631
44207SOL    HW139861  11.380   5.032  10.771  0.1844 -0.4383 -0.7965
44207SOL    HW239862  11.232   5.045  10.805  0.3667 -0.9417  0.2257
44208SOL     OW39863  10.237  11.716   9.237 -0.2651  0.4771 -0.2316
44208SOL    HW139864  10.257  11.779   9.168  0.2165  0.0535 -0.4875
44208SOL    HW239865  10.229  11.769   9.316  0.1461  0.8594 -0.4435
44209SOL     OW39866   9.047   4.197   5.843  0.6326 -0.6967 -0.3625
44209SOL    HW139867   9.026   4.113   5.802  2.7743 -0.4485 -2.1096
44209SOL    HW239868   9.138   4.214   5.818  0.6942  1.4873  1.1259
44210SOL     OW39869   1.794   7.840  11.232  0.6159 -0.4662  0.5611
44210SOL    HW139870   1.792   7.834  11.137  1.3034  0.8337  0.4388
44210SOL    HW239871   1.773   7.932  11.250 -1.3746 -1.0903  1.7626
44211SOL     OW39872  11.242  11.673   2.708  0.0886  0.0899  0.0720
44211SOL    HW139873  11.204  11.626   2.634 -0.0396  0.0079  0.1909
44211SOL    HW239874  11.172  11.678   2.773  0.0629  0.5598  0.0071
44212SOL     OW39875   3.267  10.255   5.369  0.5119 -0.1169 -0.0209
44212SOL    HW139876   3.338  10.263   5.305  1.0684  2.0450  0.7942
44212SOL    HW239877   3.249  10.345   5.397 -0.9103 -0.8412  1.5809
44213SOL     OW39878  11.815   8.490   1.710 -0.5220 -0.2438 -0.1826
44213SOL    HW139879  11.777   8.442   1.636  0.6846  0.4079 -1.2576
44213SOL    HW239880  11.877   8.550   1.670  1.6592 -1.2421  1.5123
44214SOL     OW39881   0.480  11.748   9.047 -0.0584 -0.1161  0.3105
44214SOL    HW139882   0.533  11.785   9.118  0.1422  0.8270 -0.3156
44214SOL    HW239883   0.482  11.814   8.978 -2.4879  0.1935  0.4448
44215SOL     OW39884   7.227   0.559   6.569 -0.0417 -0.1309 -0.1705
44215SOL    HW139885   7.191   0.624   6.629 -0.1526  1.3698 -1.8165
44215SOL    HW239886   7.211   0.593   6.482  0.5991 -2.0053 -1.0887
44216SOL     OW39887   6.108   9.383   7.072 -0.0649 -0.1372  0.0341
44216SOL    HW139888   6.057   9.448   7.119 -0.1381 -1.1745  1.4473
44216SOL    HW239889   6.152   9.432   7.003  0.1883  1.4622  1.2907
44217SOL     OW39890   2.922  10.797   0.978 -0.3456 -0.5658  0.2502
44217SOL    HW139891   2.936  10.725   1.039 -1.9283 -1.3360 -0.2533
44217SOL    HW239892   2.832  10.787   0.948 -0.7059  1.7820  0.3596
44218SOL     OW39893   1.355   3.539   3.639 -0.4621 -0.2097 -0.1537
44218SOL    HW139894   1.321   3.470   3.696  0.5429 -1.8185 -1.4227
44218SOL    HW239895   1.361   3.498   3.552  1.1147  1.1684 -0.7471
44219SOL     OW39896  11.340   4.977   2.659  0.4692  0.1278 -0.2629
44219SOL    HW139897  11.281   5.037   2.614  0.2110  0.7081  0.8183
44219SOL    HW239898  11.425   4.994   2.619  0.4090  1.2455  0.0442
44220SOL     OW39899   5.117   2.905   0.235  0.9439 -0.0683 -0.0007
44220SOL    HW139900   5.149   2.988   0.200  1.2293 -0.4976 -0.7774
44220SOL    HW239901   5.161   2.838   0.183  0.2659 -0.6984  0.2164
44221SOL     OW39902   8.569   3.189   0.807  0.5177 -0.4526 -0.2893
44221SOL    HW139903   8.567   3.227   0.719  1.9968 -0.1282 -0.2078
44221SOL    HW239904   8.521   3.251   0.862 -0.9200 -0.9465 -0.9576
44222SOL     OW39905   1.862   9.963   0.923  0.2789  0.3009  0.2262
44222SOL    HW139906   1.945   9.945   0.968  0.7813  0.7649 -0.4867
44222SOL    HW239907   1.795   9.930   0.983  1.0227 -1.3796  0.2154
44223SOL     OW39908  11.678   0.835   1.999 -0.4742 -0.0148  0.3999
44223SOL    HW139909  11.766   0.804   1.978 -1.0216 -1.0052 -0.5633
44223SOL    HW239910  11.656   0.893   1.926 -0.9333 -0.4525  0.1832
44224SOL     OW39911   3.199   6.843   1.762  0.0048 -0.0099  0.4469
44224SOL    HW139912   3.152   6.826   1.680  0.8502  0.8487 -0.2350
44224SOL    HW239913   3.135   6.885   1.818 -0.8866 -1.5294  0.6208
44225SOL     OW39914  11.061  12.259   7.287 -0.1756 -0.1600  1.0103
44225SOL    HW139915  11.078  12.184   7.344 -2.3511 -1.8899 -0.4237
44225SOL    HW239916  10.968  12.279   7.300 -0.2994  0.5013 -0.6520
44226SOL     OW39917   0.107   7.584   2.657 -0.0244 -0.1565 -0.0786
44226SOL    HW139918   0.085   7.558   2.746 -0.6525  1.5327  0.2874
44226SOL    HW239919   0.120   7.501   2.610 -0.4874 -1.0727  1.3641
44227SOL     OW39920   0.237   7.927   8.651 -0.6522 -0.0988 -0.2164
44227SOL    HW139921   0.272   7.919   8.740 -1.2236 -0.0729  0.0118
44227SOL    HW239922   0.303   7.978   8.604  0.0211 -0.7644 -0.0120
44228SOL     OW39923   0.249   8.757   3.095 -0.1557 -0.4266  0.6701
44228SOL    HW139924   0.219   8.680   3.045  0.5683 -0.1060 -0.2857
44228SOL    HW239925   0.344   8.756   3.087  0.1290 -1.1169  3.2093
44229SOL     OW39926   9.856   0.498   7.473  0.6595 -0.8840  0.7733
44229SOL    HW139927   9.940   0.503   7.426 -0.8972  0.2061 -2.1670
44229SOL    HW239928   9.827   0.407   7.461  0.9297 -0.9807  0.8540
44230SOL     OW39929   7.217   8.246   7.493  0.8129 -0.3113  0.1878
44230SOL    HW139930   7.192   8.320   7.549  0.6452 -0.8180  0.8034
44230SOL    HW239931   7.181   8.267   7.407 -3.3856 -1.7537  1.3390
44231SOL     OW39932   4.057   0.341   2.853  0.2927 -0.1327 -0.1312
44231SOL    HW139933   4.078   0.395   2.928  0.3201  1.3951 -1.1983
44231SOL    HW239934   4.081   0.252   2.880 -3.0425 -0.2871  2.9802
44232SOL     OW39935   9.866   3.428   9.572  0.3646  0.3481  0.3316
44232SOL    HW139936   9.819   3.364   9.625 -0.1863  1.4967  1.2891
44232SOL    HW239937   9.951   3.437   9.615  0.9627 -0.6950 -0.5842
44233SOL     OW39938   3.268   6.936  11.426 -0.2906  0.1187 -0.0396
44233SOL    HW139939   3.181   6.939  11.464  0.6161 -0.8211  2.2658
44233SOL    HW239940   3.325   6.906  11.497  1.7254 -0.5100 -1.8121
44234SOL     OW39941   0.570   7.875   4.986  0.0637  0.2600  0.0134
44234SOL    HW139942   0.504   7.899   5.051  0.3389  1.1621 -0.0348
44234SOL    HW239943   0.628   7.951   4.980  0.3237  0.0050 -0.9340
44235SOL     OW39944   5.949  12.379   4.138 -0.3558 -0.7648 -0.2169
44235SOL    HW139945   5.928  12.312   4.073 -0.3531 -0.8848 -0.0922
44235SOL    HW239946   6.042  12.366   4.157 -0.1608 -0.2450 -0.7556
44236SOL     OW39947   6.366   1.282  11.793 -0.2249 -0.1662  0.0411
44236SOL    HW139948   6.348   1.299  11.700  1.5111  0.7254 -0.1621
44236SOL    HW239949   6.289   1.234  11.823 -1.8164  1.3744 -1.3196
44237SOL     OW39950   3.070   3.046   8.147 -0.3948  0.2981 -0.2703
44237SOL    HW139951   3.021   2.975   8.106  0.1060 -0.1788 -0.0623
44237SOL    HW239952   3.026   3.126   8.119 -0.3539 -0.0388 -1.3308
44238SOL     OW39953   8.803   7.490  10.601 -0.0293 -0.2949 -0.3791
44238SOL    HW139954   8.799   7.575  10.556 -0.5288  0.1695  0.5188
44238SOL    HW239955   8.753   7.431  10.544 -1.7358  0.5729  0.1432
44239SOL     OW39956   4.532   0.557   2.517 -0.4422  0.3599  0.1653
44239SOL    HW139957   4.591   0.485   2.538 -0.6874  0.0258 -0.2753
44239SOL    HW239958   4.477   0.524   2.446 -0.2451  1.1497 -0.3682
44240SOL     OW39959  10.577   1.593   0.127  0.3286  0.3079  0.1120
44240SOL    HW139960  10.491   1.632   0.145 -0.3541 -1.6758  1.5442
44240SOL    HW239961  10.564   1.544   0.045  0.6107  1.3855 -0.5935
44241SOL     OW39962   8.745   0.494   4.400 -0.3792  0.0226  0.1097
44241SOL    HW139963   8.668   0.538   4.437 -1.4453 -1.1561 -0.6171
44241SOL    HW239964   8.776   0.437   4.469 -0.6539 -0.0927  0.1389
44242SOL     OW39965   4.820   3.993   4.933 -0.4576 -0.3651 -0.7273
44242SOL    HW139966   4.832   3.949   4.849 -1.4386 -1.5670 -0.2586
44242SOL    HW239967   4.908   4.024   4.956 -0.3846  1.1979 -2.8113
44243SOL     OW39968   4.285   1.122   5.175  0.7356  0.7345  0.3092
44243SOL    HW139969   4.278   1.215   5.194 -0.3333  1.0091 -1.2940
44243SOL    HW239970   4.346   1.117   5.102 -0.3740  0.3429 -0.6220
44244SOL     OW39971   4.725  12.645   3.258 -0.3197 -0.4905  0.1120
44244SOL    HW139972   4.788  12.673   3.191 -0.6072  0.3341  0.1809
44244SOL    HW239973   4.726  12.550   3.253 -0.5473 -0.4392 -1.2738
44245SOL     OW39974  10.695  10.049   3.521  0.3218  0.0930  0.2203
44245SOL    HW139975  10.630  10.119   3.516  0.1551 -0.0569  0.2734
44245SOL    HW239976  10.663   9.991   3.590 -1.5443 -2.0449 -2.2365
44246SOL     OW39977  11.757  10.519   8.793  0.2278 -0.8864 -0.1184
44246SOL    HW139978  11.844  10.483   8.813  2.0141  1.7312 -2.3810
44246SOL    HW239979  11.741  10.494   8.702 -0.2658  0.6109 -0.4726
44247SOL     OW39980   4.957   9.122   9.741 -0.0514  0.2211  0.3804
44247SOL    HW139981   4.867   9.138   9.712  0.1070  0.0177 -0.2401
44247SOL    HW239982   4.950   9.046   9.799 -0.2704  0.1642  0.2817
44248SOL     OW39983   0.022   5.437   3.449  0.0123 -0.2220 -0.6596
44248SOL    HW139984  -0.067   5.411   3.470 -0.6492  1.5677 -1.0689
44248SOL    HW239985   0.032   5.524   3.489  2.9688 -1.9311  2.9158
44249SOL     OW39986  11.929  12.239   3.018 -0.1015 -0.5282  0.1281
44249SOL    HW139987  12.001  12.245   2.955  0.0311  2.7568  0.4121
44249SOL    HW239988  11.966  12.193   3.093  1.6951  0.8830  0.1677
44250SOL     OW39989   8.913   1.275   3.453  0.2034  0.6490  0.1431
44250SOL    HW139990   8.888   1.348   3.509  2.5830  2.5001 -1.0094
44250SOL    HW239991   9.008   1.286   3.440  0.0193 -0.4026 -3.1523
44251SOL     OW39992   4.115   2.310   2.097  0.0316 -0.4884 -0.6243
44251SOL    HW139993   4.198   2.341   2.062  0.9843 -1.3831  0.7045
44251SOL    HW239994   4.061   2.389   2.107  1.1566  0.2737 -0.4421
44252SOL     OW39995   2.771   7.038   8.933 -0.2028  0.3178 -0.3424
44252SOL    HW139996   2.863   7.013   8.918 -0.3429 -0.0764 -0.5633
44252SOL    HW239997   2.752   7.100   8.863 -0.2081  0.1256 -0.5138
44253SOL     OW39998   2.615   7.151   2.985  0.4497  0.0817 -0.2903
44253SOL    HW139999   2.555   7.152   2.910  0.0578  1.6946  0.0085
44253SOL    HW240000   2.702   7.155   2.946  0.2701  0.2995 -0.6774
44254SOL     OW40001  12.137   4.402  11.535 -0.4776 -0.6229  0.2867
44254SOL    HW140002  12.059   4.405  11.592 -0.3465  2.1194  0.4541
44254SOL    HW240003  12.139   4.487  11.493  0.8473 -1.6896 -2.0027
44255SOL     OW40004   9.088  11.045   8.153 -0.4273 -0.1820  0.0599
44255SOL    HW140005   9.079  10.985   8.080 -0.0899 -1.7290  1.2316
44255SOL    HW240006   9.115  11.128   8.113 -3.0585 -0.1284 -1.8164
44256SOL     OW40007   1.254   1.896   4.030  0.1754 -0.3493 -0.1109
44256SOL    HW140008   1.209   1.962   4.083  1.2956  0.2349  0.1483
44256SOL    HW240009   1.290   1.946   3.957  0.0230 -0.8815 -0.5523
44257SOL     OW40010  10.682  12.405   4.114 -0.6239 -0.4739 -0.2940
44257SOL    HW140011  10.722  12.327   4.074  0.3320  0.2885 -0.8673
44257SOL    HW240012  10.590  12.382   4.124 -0.1582 -2.0867  0.5677
44258SOL     OW40013   4.954  12.410   7.869 -0.2067  0.0577  0.6387
44258SOL    HW140014   5.023  12.440   7.928  0.9603 -0.4044 -0.4432
44258SOL    HW240015   5.000  12.374   7.794 -1.5860  2.3343 -1.4978
44259SOL     OW40016  10.071   5.052   1.679  0.5834 -0.4719  0.1204
44259SOL    HW140017  10.160   5.053   1.643  1.0057 -0.0755  1.1337
44259SOL    HW240018  10.049   4.959   1.685  1.5408 -0.6494  1.2719
44260SOL     OW40019   1.993   1.391   3.061 -0.8614 -0.3699 -0.1478
44260SOL    HW140020   1.972   1.309   3.106 -0.9585 -0.7339 -0.8495
44260SOL    HW240021   1.962   1.378   2.972 -1.0347  0.5023 -0.2211
44261SOL     OW40022   8.846   7.468   3.633  0.1022 -0.5490  0.5069
44261SOL    HW140023   8.811   7.557   3.638  0.5552 -0.2045 -1.4804
44261SOL    HW240024   8.857   7.452   3.539  0.7100 -2.4427  0.8584
44262SOL     OW40025   3.113   8.321  10.907 -0.1840 -0.0307 -0.1164
44262SOL    HW140026   3.150   8.406  10.929  0.7926 -0.4113 -0.2635
44262SOL    HW240027   3.134   8.265  10.981  0.8182 -0.6277 -0.8397
44263SOL     OW40028   3.986   8.268   0.638 -0.5246 -0.2637 -0.0429
44263SOL    HW140029   3.897   8.297   0.617 -0.5079 -1.9589 -2.9775
44263SOL    HW240030   4.043   8.331   0.594 -0.1541  0.9745  2.0489
44264SOL     OW40031   4.631  11.702   3.725  0.2930  0.0675  0.0020
44264SOL    HW140032   4.602  11.703   3.817  0.0840 -2.3820  0.0394
44264SOL    HW240033   4.726  11.712   3.730  0.2324  0.4385  0.4589
44265SOL     OW40034   3.371  11.564  10.690 -0.0084 -0.0953  0.2231
44265SOL    HW140035   3.420  11.635  10.733 -2.2562  0.6717  1.7274
44265SOL    HW240036   3.359  11.595  10.600  1.0824  0.3266  0.2108
44266SOL     OW40037   2.243   0.730   6.541  0.4576  0.0562  0.4062
44266SOL    HW140038   2.172   0.748   6.602  0.8274 -2.3578  1.6636
44266SOL    HW240039   2.314   0.697   6.595  1.4761 -0.3956 -1.1343
44267SOL     OW40040   1.173   8.743   0.465  0.3097  0.2451  0.2124
44267SOL    HW140041   1.186   8.666   0.410  1.5910 -0.1417  1.0180
44267SOL    HW240042   1.257   8.789   0.464 -0.7555  2.3704 -1.2605
44268SOL     OW40043   1.356   6.163  10.441  0.3860 -0.0786  0.2825
44268SOL    HW140044   1.272   6.161  10.397 -0.1807  1.5116  1.2086
44268SOL    HW240045   1.393   6.076  10.426 -2.0589 -1.3469  1.0935
44269SOL     OW40046   8.760   7.451  12.212  0.1971  0.4866  0.2489
44269SOL    HW140047   8.763   7.403  12.295  2.5577  0.1619  0.0542
44269SOL    HW240048   8.738   7.540  12.237 -0.9220  0.0175  1.0037
44270SOL     OW40049   3.936   6.463   1.212  0.1256 -0.5496  0.2779
44270SOL    HW140050   3.885   6.466   1.131  0.7520  0.9472 -0.1056
44270SOL    HW240051   4.016   6.416   1.188  0.3471 -0.0333 -0.0043
44271SOL     OW40052   9.410  10.530   2.164 -0.6817 -0.4067 -0.6695
44271SOL    HW140053   9.482  10.486   2.208 -0.9106 -1.1300 -1.0083
44271SOL    HW240054   9.376  10.465   2.102  0.2988  0.9074 -2.6988
44272SOL     OW40055   0.342   0.813   9.740 -0.0700  0.1675  0.1985
44272SOL    HW140056   0.312   0.747   9.678  0.7179  0.6330 -0.7040
44272SOL    HW240057   0.262   0.847   9.780 -0.7897  1.3700 -2.1031
44273SOL     OW40058   0.702   1.771  11.722  0.0469 -0.5635  0.0331
44273SOL    HW140059   0.717   1.819  11.641 -1.7535 -0.8694 -0.5331
44273SOL    HW240060   0.676   1.839  11.785  0.9224 -0.3909  0.2142
44274SOL     OW40061   4.101   8.110  12.495  0.4459  0.4380  0.3548
44274SOL    HW140062   4.100   8.181  12.431 -0.2027 -0.0581 -0.2061
44274SOL    HW240063   4.186   8.068  12.484  0.2836  0.2688 -0.2956
44275SOL     OW40064   6.690   7.316   6.675 -0.3658 -0.3139 -0.1049
44275SOL    HW140065   6.659   7.339   6.587 -0.2405 -0.9760 -0.3348
44275SOL    HW240066   6.615   7.333   6.732 -0.9854 -1.3339 -0.5735
44276SOL     OW40067   8.655  10.589   9.878  0.4345 -0.5255  0.0351
44276SOL    HW140068   8.633  10.509   9.831  1.5111 -0.4886 -0.5577
44276SOL    HW240069   8.663  10.656   9.810  0.2253 -0.0624  0.4575
44277SOL     OW40070   2.747   1.570   2.459  0.3962 -0.2161  0.0707
44277SOL    HW140071   2.799   1.649   2.450  0.6965 -0.0030  2.8068
44277SOL    HW240072   2.778   1.530   2.541 -1.9634 -1.4204  0.4761
44278SOL     OW40073   6.175   9.279   0.042  0.7206 -0.1912  0.7368
44278SOL    HW140074   6.164   9.240   0.129 -1.1063 -1.1624  0.0968
44278SOL    HW240075   6.134   9.365   0.049 -2.8063 -1.6457 -0.0728
44279SOL     OW40076   0.545   4.607   2.401  0.4447 -0.0023 -0.0702
44279SOL    HW140077   0.542   4.702   2.412 -1.9841  0.3673 -2.7285
44279SOL    HW240078   0.638   4.585   2.402  1.2442  2.8170 -1.9545
44280SOL     OW40079   6.743   2.188   6.862  0.4604  0.0432  0.8738
44280SOL    HW140080   6.650   2.178   6.882  0.0825 -0.9935 -1.1779
44280SOL    HW240081   6.786   2.190   6.948 -1.3392 -0.5732  1.8358
44281SOL     OW40082   2.943  11.123   8.660 -0.2505 -0.1022 -0.6724
44281SOL    HW140083   2.942  11.099   8.753  0.6076  0.3494 -0.5380
44281SOL    HW240084   2.898  11.208   8.657 -0.4511 -0.2080 -0.7023
44282SOL     OW40085   9.353   7.103  10.069  0.6479 -0.3098 -0.4520
44282SOL    HW140086   9.447   7.092  10.081  0.8284 -0.7032 -1.9587
44282SOL    HW240087   9.326   7.024  10.021 -0.0562  0.7083 -1.8038
44283SOL     OW40088  11.156   2.760  12.338 -0.0997 -0.1738 -0.2627
44283SOL    HW140089  11.093   2.688  12.337  0.8315 -1.0528  1.1238
44283SOL    HW240090  11.197   2.755  12.424  1.2935  0.8721 -0.8271
44284SOL     OW40091   0.167   8.306   8.421  0.8118  0.2572 -0.1693
44284SOL    HW140092   0.169   8.258   8.503 -1.7063  0.1013 -0.1130
44284SOL    HW240093   0.230   8.261   8.365  3.0791  0.7582  1.7922
44285SOL     OW40094   9.321   0.883   4.324  0.1358 -0.2754  0.4496
44285SOL    HW140095   9.247   0.918   4.374 -0.4231 -0.2317 -0.4005
44285SOL    HW240096   9.397   0.899   4.380  0.1022  3.2090 -0.2720
44286SOL     OW40097   8.761   0.176   0.891  0.2691  0.0153  0.4812
44286SOL    HW140098   8.742   0.091   0.930 -0.5169  0.4237  1.0257
44286SOL    HW240099   8.757   0.238   0.965  2.4817  0.3241  0.4000
44287SOL     OW40100   0.133   8.930   2.752 -0.3749 -0.4566  0.3402
44287SOL    HW140101   0.077   8.869   2.801  0.4673  0.9292  3.2611
44287SOL    HW240102   0.167   8.878   2.680 -1.7094 -2.6835  1.2068
44288SOL     OW40103   6.815   5.829   8.991  0.2937 -0.2878  0.7798
44288SOL    HW140104   6.791   5.840   8.899  0.9765  0.0105  0.6277
44288SOL    HW240105   6.911   5.837   8.991  0.2471  0.3449  1.5993
44289SOL     OW40106   3.564  11.612   0.098  0.2945  0.0523  0.2135
44289SOL    HW140107   3.621  11.615   0.175 -0.0298 -0.6758  0.4899
44289SOL    HW240108   3.500  11.681   0.113 -0.3969 -0.7503  1.1094
44290SOL     OW40109   8.299   4.181   2.304  0.1003  0.2833 -0.6073
44290SOL    HW140110   8.212   4.163   2.340  0.0958 -0.7247 -1.1034
44290SOL    HW240111   8.340   4.240   2.368  0.7747 -2.7813  2.0281
44291SOL     OW40112   1.692  11.654   3.169 -0.4973  0.2811  0.1979
44291SOL    HW140113   1.651  11.731   3.209  0.4397  1.5128 -1.0955
44291SOL    HW240114   1.781  11.682   3.149 -0.1256 -1.1676 -0.3096
44292SOL     OW40115  10.966   7.345   9.926  0.2204 -0.3949  0.4691
44292SOL    HW140116  10.893   7.344   9.987  0.1819  0.9301  0.4709
44292SOL    HW240117  11.035   7.393   9.972 -0.1972  1.6741 -0.9149
44293SOL     OW40118   2.114   9.088   0.559 -0.5532  0.0198 -0.3452
44293SOL    HW140119   2.053   9.153   0.595 -1.3693  0.3431 -2.1892
44293SOL    HW240120   2.061   9.037   0.498  1.2719  1.3278 -3.2559
44294SOL     OW40121  12.425   4.608   0.066 -0.0895 -0.2168 -0.0871
44294SOL    HW140122  12.396   4.577   0.151 -0.0795 -0.4432 -0.1657
44294SOL    HW240123  12.511   4.568   0.053 -1.0090 -1.9663 -1.1524
44295SOL     OW40124  10.106   3.695  10.157  0.4340 -0.5982  0.4237
44295SOL    HW140125  10.045   3.701  10.230 -0.0940 -1.2864  0.0418
44295SOL    HW240126  10.174   3.635  10.187  2.5574  2.2719  1.9719
44296SOL     OW40127  10.721  12.450  10.773  0.7377 -0.4509  0.0685
44296SOL    HW140128  10.640  12.430  10.820  1.2829 -2.9501  0.1177
44296SOL    HW240129  10.699  12.436  10.681  1.0384 -0.9831  0.0697
44297SOL     OW40130   5.671   6.431   7.614 -0.2356 -0.6351 -0.6733
44297SOL    HW140131   5.714   6.359   7.568  0.1330 -0.6182 -0.3610
44297SOL    HW240132   5.609   6.389   7.673  0.5800 -0.7434  0.1260
44298SOL     OW40133   5.854   0.874  12.052  0.4275 -0.1995  0.1457
44298SOL    HW140134   5.800   0.795  12.045 -0.7084  0.6386 -1.1513
44298SOL    HW240135   5.874   0.882  12.145  0.2616 -1.8023  0.3475
44299SOL     OW40136  12.445   4.571   7.945 -0.5822  0.0489 -0.4419
44299SOL    HW140137  12.363   4.618   7.958 -0.0654  0.9425 -0.3939
44299SOL    HW240138  12.447   4.507   8.017 -0.9032  0.4771 -0.0473
44300SOL     OW40139   3.630   1.375   3.847  0.3649 -0.0519 -0.0592
44300SOL    HW140140   3.715   1.406   3.879  0.0722  0.5224  0.1947
44300SOL    HW240141   3.616   1.424   3.766  0.0030  0.3142  0.2212
44301SOL     OW40142  11.972   6.872   0.952 -0.4150  0.2724  0.1374
44301SOL    HW140143  11.896   6.873   1.009 -0.4651  0.1770  0.0723
44301SOL    HW240144  12.001   6.963   0.948 -0.7411  0.3637 -0.1266
44302SOL     OW40145  10.820   7.242   2.474 -0.0332  0.0803 -0.2096
44302SOL    HW140146  10.739   7.191   2.480 -0.0718  0.2382  0.6270
44302SOL    HW240147  10.821   7.274   2.383 -0.3883 -0.7663 -0.5250
44303SOL     OW40148   9.339   6.299   5.290  0.0529  0.9335  0.3033
44303SOL    HW140149   9.366   6.296   5.381  1.1135 -3.5871  0.0504
44303SOL    HW240150   9.419   6.315   5.241  0.2775 -0.7331  0.0678
44304SOL     OW40151   0.807   0.281   4.646  0.0014 -0.8141  0.4059
44304SOL    HW140152   0.749   0.350   4.616  0.0818 -0.7786  0.3318
44304SOL    HW240153   0.861   0.260   4.570  0.3870 -0.5380  0.5961
44305SOL     OW40154   6.046  10.159   7.303 -0.0436  0.3312 -0.5069
44305SOL    HW140155   5.959  10.146   7.340  0.6427 -0.6372  0.8467
44305SOL    HW240156   6.032  10.219   7.229 -1.6394  1.3465  0.5586
44306SOL     OW40157  11.989   7.823   7.301 -0.4699  0.0985  0.1300
44306SOL    HW140158  12.080   7.822   7.273 -0.5631  0.8527 -0.2174
44306SOL    HW240159  11.954   7.738   7.274 -0.0604  0.0820 -0.3533
44307SOL     OW40160   9.890  12.667   1.840  0.4880  0.1687  0.0169
44307SOL    HW140161   9.879  12.614   1.762  1.6458  0.7882 -0.5894
44307SOL    HW240162   9.884  12.605   1.913 -0.6159 -0.4059 -0.5479
44308SOL     OW40163  11.663   5.796  12.612 -0.3882 -0.2604 -0.6207
44308SOL    HW140164  11.738   5.737  12.608  0.3978  0.5309  1.3078
44308SOL    HW240165  11.695   5.872  12.660 -1.8212  1.0846 -1.6993
44309SOL     OW40166  10.669  12.105   4.965  0.7788  0.1914  0.2816
44309SOL    HW140167  10.706  12.189   4.938 -0.3289  0.3435 -0.8611
44309SOL    HW240168  10.574  12.117   4.957  0.5896 -1.0575  0.4697
44310SOL     OW40169   4.015   6.290   3.993  0.3395  0.3115 -0.0092
44310SOL    HW140170   4.074   6.365   3.985 -0.4129  0.8787 -0.3565
44310SOL    HW240171   3.995   6.266   3.902 -1.0797  1.0344  0.0876
44311SOL     OW40172   6.716   4.925   7.510  0.0103  0.1695 -0.0712
44311SOL    HW140173   6.755   4.996   7.460 -0.5071  0.3560 -0.2180
44311SOL    HW240174   6.742   4.942   7.601  0.3556  0.2277 -0.1801
44312SOL     OW40175  12.537   0.345   8.721  0.5571  0.3620 -0.4493
44312SOL    HW140176  12.522   0.419   8.780  0.0261  1.1858 -1.5722
44312SOL    HW240177  12.629   0.322   8.735  0.4851  0.6477  0.5672
44313SOL     OW40178   1.405  12.662   7.233  0.2560 -0.2102 -0.6401
44313SOL    HW140179   1.319  12.622   7.241 -0.2914  0.9576 -0.3404
44313SOL    HW240180   1.389  12.746   7.189  1.0002  0.6760  0.6739
44314SOL     OW40181   9.533   0.601   5.302 -0.3236  0.5422  0.0004
44314SOL    HW140182   9.454   0.551   5.282  0.4378 -0.7201  0.0699
44314SOL    HW240183   9.533   0.672   5.238  0.1377 -1.2702 -2.1161
44315SOL     OW40184   7.420   9.716  11.206 -0.1632 -0.6934 -0.2175
44315SOL    HW140185   7.367   9.789  11.173  0.4407  0.2947  0.9295
44315SOL    HW240186   7.432   9.736  11.298 -1.3296 -3.0782  0.5321
44316SOL     OW40187   1.374  10.863   5.586  0.1486 -0.1429 -0.4021
44316SOL    HW140188   1.374  10.786   5.643  0.4463 -1.7689 -2.4849
44316SOL    HW240189   1.464  10.895   5.588 -0.5035  1.9199  2.5792
44317SOL     OW40190  11.498  10.072   0.101 -0.6964 -0.3808  0.1727
44317SOL    HW140191  11.484  10.143   0.038 -0.3833 -0.7174 -0.2792
44317SOL    HW240192  11.505   9.993   0.047  0.7398 -0.5265  0.5280
44318SOL     OW40193   8.699   0.426  11.594 -0.3276 -0.2720  0.3543
44318SOL    HW140194   8.795   0.427  11.593 -0.3186 -0.2221  0.9389
44318SOL    HW240195   8.675   0.430  11.502  0.2246  2.0550  0.2484
44319SOL     OW40196   0.739   2.195   4.073 -0.7483 -0.6801  0.1282
44319SOL    HW140197   0.786   2.276   4.094  2.4591 -2.1734 -0.8411
44319SOL    HW240198   0.706   2.165   4.158  1.4349 -0.3445  1.1745
44320SOL     OW40199   0.414  11.972   6.512  0.1150  0.1086  0.1363
44320SOL    HW140200   0.332  11.923   6.503  1.6161 -2.7745  0.8007
44320SOL    HW240201   0.435  12.001   6.424 -0.7334 -0.6990 -0.3496
44321SOL     OW40202   2.478   3.229   7.256 -0.6912 -0.5010 -0.5522
44321SOL    HW140203   2.406   3.185   7.300  1.2928 -1.6283  1.8031
44321SOL    HW240204   2.500   3.303   7.313  1.1992 -1.3009 -0.1826
44322SOL     OW40205   8.687   3.666   5.722 -0.3293  1.0235  0.1137
44322SOL    HW140206   8.710   3.756   5.700 -2.1420  1.8537  1.3140
44322SOL    HW240207   8.603   3.674   5.768 -1.2053 -1.4083 -0.9104
44323SOL     OW40208   7.856   9.200   2.532 -0.0576  0.2772 -0.2902
44323SOL    HW140209   7.898   9.154   2.459  2.2487  1.0136  0.4683
44323SOL    HW240210   7.893   9.289   2.527 -2.5273  1.3863 -0.2679
44324SOL     OW40211   7.493   2.852  10.512 -0.0151 -0.4780 -0.0529
44324SOL    HW140212   7.515   2.885  10.598  0.2119 -1.5585  0.3243
44324SOL    HW240213   7.557   2.892  10.453  1.0484 -1.2252  0.5753
44325SOL     OW40214   1.048   8.060   0.279 -0.1443  0.2612 -0.0153
44325SOL    HW140215   1.135   8.082   0.244 -0.2577  0.2771 -0.2937
44325SOL    HW240216   1.066   8.006   0.356  0.1232  0.7123  0.2443
44326SOL     OW40217   0.398   0.452   3.534 -0.1484  0.1114 -0.6952
44326SOL    HW140218   0.464   0.426   3.598 -0.2362 -0.1080 -0.6935
44326SOL    HW240219   0.447   0.459   3.452 -0.1386 -0.1406 -0.7121
44327SOL     OW40220   6.878   9.738  12.222 -0.0798 -0.8722 -0.2891
44327SOL    HW140221   6.947   9.683  12.260  1.2638  0.4972 -0.6550
44327SOL    HW240222   6.847   9.791  12.296  0.8230  0.0595 -0.5560
44328SOL     OW40223   2.297   1.920   2.766  0.0310  0.0516 -0.0457
44328SOL    HW140224   2.217   1.937   2.716 -1.7590 -0.7777  2.3668
44328SOL    HW240225   2.281   1.838   2.812  2.1663 -0.0047  0.7309
44329SOL     OW40226   7.348  12.060   4.617  0.2731 -0.3669  0.1731
44329SOL    HW140227   7.253  12.076   4.620  0.1102 -0.6858 -1.7807
44329SOL    HW240228   7.379  12.114   4.545  1.5915 -0.2732  0.7924
44330SOL     OW40229   4.943  10.840   9.235  0.9471  0.1068 -0.2591
44330SOL    HW140230   5.015  10.846   9.172  0.4134 -0.1486 -0.9049
44330SOL    HW240231   4.985  10.848   9.320  1.7601 -0.1717 -0.6252
44331SOL     OW40232   4.542  12.488   9.198  0.4570  0.4519  0.1266
44331SOL    HW140233   4.627  12.468   9.157  0.3521 -3.0186  1.3105
44331SOL    HW240234   4.478  12.456   9.135  0.0498  1.4493  0.0200
44332SOL     OW40235   9.490   2.418   4.401  0.0319  0.0008 -0.2287
44332SOL    HW140236   9.404   2.396   4.366 -0.1505  1.2429 -0.6161
44332SOL    HW240237   9.477   2.504   4.441  0.7356 -0.4724  1.0791
44333SOL     OW40238   0.355   9.270   6.925 -0.2649  0.2005  0.4029
44333SOL    HW140239   0.431   9.261   6.867  0.0569 -0.0827  0.8682
44333SOL    HW240240   0.294   9.324   6.875 -0.0388 -0.1364 -0.2545
44334SOL     OW40241   9.316   2.886   7.923  0.3413  0.1850 -0.2987
44334SOL    HW140242   9.245   2.932   7.879 -1.1308 -1.3718  0.3065
44334SOL    HW240243   9.307   2.911   8.015 -1.2200 -2.0443  0.2441
44335SOL     OW40244  10.369  11.552   5.274 -0.1362 -0.0453  0.2129
44335SOL    HW140245  10.411  11.605   5.341  1.7271 -0.9145 -0.1881
44335SOL    HW240246  10.417  11.573   5.193 -0.2986 -1.2498 -0.2203
44336SOL     OW40247   4.897   2.083  10.579 -0.7111 -0.1586 -0.2086
44336SOL    HW140248   4.886   1.994  10.546 -0.7533  0.3192 -1.5813
44336SOL    HW240249   4.827   2.133  10.537  1.0733  1.0955 -1.8722
44337SOL     OW40250   5.931   3.975  12.041  0.4798 -0.2259 -0.0053
44337SOL    HW140251   5.969   3.966  12.128  1.0117 -0.5078 -0.2612
44337SOL    HW240252   5.920   3.886  12.009  0.3054 -0.1239 -0.2362
44338SOL     OW40253   2.447  12.694   3.991 -0.4057 -0.0896 -0.5092
44338SOL    HW140254   2.470  12.606   3.964  0.3923  0.2794 -1.0428
44338SOL    HW240255   2.510  12.751   3.947  2.6378  0.4355  3.9026
44339SOL     OW40256   2.520  10.848   2.757 -0.4767  0.3227 -0.7958
44339SOL    HW140257   2.591  10.789   2.783 -1.4628 -0.5817 -0.0384
44339SOL    HW240258   2.552  10.935   2.777  0.6414 -0.0172 -1.0158
44340SOL     OW40259   2.017   9.434   5.203  0.1432 -0.2314  0.4504
44340SOL    HW140260   1.922   9.440   5.189 -0.0304  0.0284  1.6281
44340SOL    HW240261   2.055   9.450   5.117 -0.8249  1.6937  0.3311
44341SOL     OW40262   4.779   7.323  11.366  0.2652  0.5160  0.4316
44341SOL    HW140263   4.736   7.238  11.355  0.6675 -0.2079  3.3817
44341SOL    HW240264   4.806   7.349  11.278 -0.1561 -2.2581 -0.6093
44342SOL     OW40265   6.246   3.327  12.683  0.8080  0.0281  0.2634
44342SOL    HW140266   6.242   3.278  12.601 -0.3382  1.4199 -0.5826
44342SOL    HW240267   6.256   3.261  12.751  0.8766 -1.2366 -0.9349
44343SOL     OW40268   1.124   8.224  10.225 -0.5087  0.1989  0.0127
44343SOL    HW140269   1.083   8.295  10.275  0.3960  1.1012 -0.5059
44343SOL    HW240270   1.213   8.218  10.260 -0.1443  0.2434 -0.8795
44344SOL     OW40271   2.832  10.202   3.114 -0.3318 -0.5386  0.4939
44344SOL    HW140272   2.814  10.146   3.189  0.8019 -0.6622  0.6978
44344SOL    HW240273   2.800  10.151   3.039  0.7159 -1.5138  0.6730
44345SOL     OW40274   4.268   0.718   4.449 -0.0171 -0.4422  0.5327
44345SOL    HW140275   4.238   0.691   4.536  0.0577  0.0363  0.7099
44345SOL    HW240276   4.335   0.654   4.425  1.4795  0.5984  1.7257
44346SOL     OW40277  12.103   6.319   4.105 -0.1099 -0.0497 -0.0248
44346SOL    HW140278  12.027   6.309   4.162 -0.2221 -4.1325 -0.6067
44346SOL    HW240279  12.070   6.368   4.029 -1.3827  0.6340  0.9384
44347SOL     OW40280  10.599  11.177  11.544 -0.4624 -0.1504 -0.5472
44347SOL    HW140281  10.514  11.146  11.514 -0.4772  0.7656 -1.5064
44347SOL    HW240282  10.626  11.112  11.609 -2.8322  0.6135  1.3801
44348SOL     OW40283   4.777   8.082   4.499 -0.3956  0.2930 -0.0154
44348SOL    HW140284   4.738   8.065   4.413  2.7209 -1.1572 -1.2950
44348SOL    HW240285   4.708   8.057   4.561 -2.0138 -0.7343 -2.0723
44349SOL     OW40286  11.291   8.484   4.888  1.0392  0.1486  0.3246
44349SOL    HW140287  11.366   8.455   4.940  0.7186 -1.0824  0.1506
44349SOL    HW240288  11.315   8.464   4.797  0.7267  0.2596  0.2153
44350SOL     OW40289   6.011   7.822   3.112  0.0419  0.0196  0.8323
44350SOL    HW140290   5.935   7.880   3.123 -0.4331 -0.7241  1.6452
44350SOL    HW240291   6.002   7.759   3.184 -1.0634 -2.8581 -1.6326
44351SOL     OW40292   5.702   7.185   4.633  0.4022 -0.1482  0.0722
44351SOL    HW140293   5.727   7.212   4.544  0.9999 -0.0100  0.2760
44351SOL    HW240294   5.626   7.129   4.621 -1.6681  2.5324 -0.3293
44352SOL     OW40295   2.615   7.229   4.021  0.3627  0.4677  0.8057
44352SOL    HW140296   2.547   7.206   3.958  1.6922  0.8352 -0.8296
44352SOL    HW240297   2.568   7.271   4.093 -1.0841  1.2057 -0.5229
44353SOL     OW40298   3.750  12.065   4.507  0.0420  0.2920 -0.1368
44353SOL    HW140299   3.676  12.048   4.450 -0.5611  0.6016  0.5420
44353SOL    HW240300   3.729  12.021   4.589 -0.4261  2.1465  0.8105
44354SOL     OW40301   0.078   2.915  11.866 -0.0031 -0.0784  0.4268
44354SOL    HW140302   0.051   2.891  11.778  2.4052 -1.5502  0.0070
44354SOL    HW240303   0.141   2.987  11.853 -0.5889  0.5678  1.0630
44355SOL     OW40304  12.381   0.165  12.097 -0.6620  0.1676 -0.0207
44355SOL    HW140305  12.431   0.241  12.065  0.1831 -0.7527 -0.9612
44355SOL    HW240306  12.393   0.098  12.030  0.0115 -1.3824  1.5562
44356SOL     OW40307  12.045   7.396  11.031 -0.1842 -0.7424 -0.8445
44356SOL    HW140308  12.083   7.335  10.969  1.1903  0.2536 -1.0386
44356SOL    HW240309  12.112   7.464  11.042 -0.6679 -0.5165  1.1814
44357SOL     OW40310  11.707  10.965   2.836 -0.3834  0.1586 -0.0931
44357SOL    HW140311  11.750  11.040   2.877 -0.7217 -0.5893  1.6791
44357SOL    HW240312  11.615  10.989   2.833 -0.3768  0.1603 -0.3583
44358SOL     OW40313  12.208   3.015  12.222  0.0695 -0.1604  0.3985
44358SOL    HW140314  12.121   3.054  12.208  0.0376 -0.1693  0.5639
44358SOL    HW240315  12.269   3.075  12.179  0.1485  0.7662  1.7403
44359SOL     OW40316  11.944   7.918  10.581 -0.1340  0.0656 -0.2158
44359SOL    HW140317  12.000   7.965  10.519  1.7166 -1.3427  0.2854
44359SOL    HW240318  11.971   7.951  10.667 -2.3066  1.6150 -0.0493
44360SOL     OW40319   5.733   0.656   6.300 -0.3948 -0.1772  0.5415
44360SOL    HW140320   5.640   0.676   6.313 -0.2436  1.5366 -0.6345
44360SOL    HW240321   5.735   0.609   6.217 -0.1962  0.0951  0.3900
44361SOL     OW40322   7.354   6.524  11.737 -0.3508  0.6336  0.0204
44361SOL    HW140323   7.274   6.568  11.707 -0.0597  1.2905  0.1888
44361SOL    HW240324   7.334   6.497  11.827 -0.6818  0.0208 -0.2268
44362SOL     OW40325   2.442   8.030   1.078 -0.4007  0.2279  0.1257
44362SOL    HW140326   2.472   8.026   1.169  1.8373 -1.5046 -0.6067
44362SOL    HW240327   2.411   7.942   1.059 -1.1528  0.6623 -0.7076
44363SOL     OW40328   2.263  11.424   4.933 -0.2135 -0.1059  0.4552
44363SOL    HW140329   2.173  11.392   4.930 -0.4129  0.4375  0.5813
44363SOL    HW240330   2.275  11.454   5.023 -0.3319  1.0083  0.1148
44364SOL     OW40331   4.630   1.995   7.313 -0.2218 -0.8430  0.3602
44364SOL    HW140332   4.576   2.013   7.237 -0.0445  0.5072  0.5364
44364SOL    HW240333   4.709   1.955   7.277 -0.9157 -1.9572  0.0237
44365SOL     OW40334  12.683  11.095  11.378  0.7531  0.3599 -0.0840
44365SOL    HW140335  12.696  11.099  11.283 -1.3042 -1.6515 -0.5453
44365SOL    HW240336  12.750  11.034  11.408  0.0698 -0.6957 -0.6189
44366SOL     OW40337   6.481   1.994   6.871  0.2936 -0.5888  0.3365
44366SOL    HW140338   6.441   2.074   6.837  0.0134 -0.9089 -0.1055
44366SOL    HW240339   6.495   2.012   6.964 -1.8247 -0.8015  0.7563
44367SOL     OW40340   5.546  11.400   2.297  0.0505  0.3430 -0.1496
44367SOL    HW140341   5.454  11.395   2.322  0.4390  0.8558  1.4600
44367SOL    HW240342   5.581  11.473   2.347  0.6704  2.1434 -2.9990
44368SOL     OW40343   9.013   8.980   8.568 -0.2847 -0.5429  0.4622
44368SOL    HW140344   8.971   8.966   8.653  2.4737 -0.1722  2.0281
44368SOL    HW240345   9.056   8.897   8.548 -0.2051 -0.3608 -0.1536
44369SOL     OW40346   8.130   1.735   9.137 -0.5200  0.3571 -0.1010
44369SOL    HW140347   8.065   1.670   9.110 -1.5191  1.3208 -0.0618
44369SOL    HW240348   8.204   1.683   9.167 -0.9897 -0.7647 -0.8007
44370SOL     OW40349   4.490   3.778   9.028  0.3612  0.0408  0.8724
44370SOL    HW140350   4.525   3.833   9.098  2.0940  2.4630 -1.6653
44370SOL    HW240351   4.566   3.760   8.972 -1.3272  0.2806 -1.6309
44371SOL     OW40352   8.756   6.100   4.647 -0.2060 -0.4034  0.1461
44371SOL    HW140353   8.715   6.155   4.714  0.2143 -0.3210  0.3400
44371SOL    HW240354   8.784   6.161   4.579  0.2111 -0.3795  0.3357
44372SOL     OW40355   8.359   2.910   1.847  0.1719 -0.1134  0.2296
44372SOL    HW140356   8.290   2.963   1.808  0.1125 -0.6691 -0.4524
44372SOL    HW240357   8.356   2.828   1.798  0.9435 -0.3559  0.5737
44373SOL     OW40358  10.224   5.636   3.224 -0.6570 -0.4721 -0.0569
44373SOL    HW140359  10.190   5.626   3.135  0.1386 -0.0952 -0.4192
44373SOL    HW240360  10.226   5.547   3.260 -0.8024 -0.6525 -0.4893
44374SOL     OW40361   6.537  12.586   3.557 -0.4774 -0.1252  0.1137
44374SOL    HW140362   6.562  12.495   3.543 -0.7038 -0.1314 -0.2819
44374SOL    HW240363   6.517  12.619   3.469  0.1478  0.4701  0.1845
44375SOL     OW40364   1.663  10.501   4.421 -0.1468  0.0575  0.4619
44375SOL    HW140365   1.612  10.484   4.341 -0.2529 -1.3292  0.8011
44375SOL    HW240366   1.731  10.562   4.393 -1.8318  1.7765 -0.0598
44376SOL     OW40367   5.816   3.273   4.510  0.3872  0.7542  0.6076
44376SOL    HW140368   5.755   3.235   4.573 -0.0154  1.2703  0.5345
44376SOL    HW240369   5.886   3.309   4.564  1.7970 -1.7494  0.6216
44377SOL     OW40370   4.565  11.849   6.653 -0.3608 -0.0181  0.0014
44377SOL    HW140371   4.652  11.847   6.612 -0.7133 -0.5843 -0.7387
44377SOL    HW240372   4.573  11.915   6.721  0.6009  0.0737 -0.1788
44378SOL     OW40373  10.920  11.103   9.646 -0.1283 -0.5081 -0.6134
44378SOL    HW140374  10.864  11.180   9.650 -1.2384 -1.3021 -0.5145
44378SOL    HW240375  10.887  11.052   9.572 -2.0941 -2.8588  1.6548
44379SOL     OW40376   9.373   9.632   7.114 -0.1447  0.4709 -0.3432
44379SOL    HW140377   9.277   9.633   7.114 -0.2149 -1.7251 -0.2423
44379SOL    HW240378   9.398   9.721   7.141 -2.1693  0.4488  1.9367
44380SOL     OW40379   2.030   9.947   4.644 -0.3963 -0.5355  0.7718
44380SOL    HW140380   2.062   9.952   4.734  1.4074 -1.6487  0.2425
44380SOL    HW240381   2.109   9.949   4.591 -1.4715  1.0766 -0.8650
44381SOL     OW40382   4.808   5.936  11.919  0.9324 -0.7210  0.0234
44381SOL    HW140383   4.713   5.947  11.921  1.0811  0.6767  0.3280
44381SOL    HW240384   4.823   5.857  11.971 -0.0503 -0.8968  0.0746
44382SOL     OW40385   3.062  11.038  10.046  0.7996 -0.7299  0.3451
44382SOL    HW140386   3.013  11.019   9.966 -0.2064 -0.0301  0.7814
44382SOL    HW240387   3.000  11.084  10.102  2.1302  0.7347  0.6771
44383SOL     OW40388   1.353  10.446   1.890  0.4801  0.1436 -0.2123
44383SOL    HW140389   1.292  10.380   1.921 -0.7906  1.8838  1.1824
44383SOL    HW240390   1.428  10.396   1.857 -0.7687 -1.9788  0.0057
44384SOL     OW40391   8.120   3.147   9.349 -0.0963 -0.3184  0.6391
44384SOL    HW140392   8.193   3.196   9.386 -0.1009  1.3133 -1.3740
44384SOL    HW240393   8.049   3.211   9.342 -0.8499 -1.1928  0.0385
44385SOL     OW40394   0.264   3.269   6.771  0.0215 -0.0195  0.6010
44385SOL    HW140395   0.297   3.189   6.813  0.9566 -0.1976 -0.4305
44385SOL    HW240396   0.225   3.319   6.843 -1.3814 -1.7825  1.1233
44386SOL     OW40397  11.381  12.124  12.486 -0.4904  0.4403 -0.4722
44386SOL    HW140398  11.410  12.048  12.435 -1.9747 -0.4160 -0.1180
44386SOL    HW240399  11.374  12.195  12.422  1.0673  0.3394 -0.7814
44387SOL     OW40400  12.525   7.614  11.579  0.1920 -0.0496  0.0346
44387SOL    HW140401  12.488   7.643  11.496 -3.0031  1.0755  1.6791
44387SOL    HW240402  12.502   7.522  11.585 -0.1128  0.0182 -0.0796
44388SOL     OW40403   5.490   3.226   2.904  0.3663  0.4300 -0.4789
44388SOL    HW140404   5.536   3.297   2.861 -2.1509  3.8930  1.9733
44388SOL    HW240405   5.535   3.215   2.988 -0.7331  0.9993  0.2146
44389SOL     OW40406   6.246   1.317   1.032 -0.4689  0.2864  0.0274
44389SOL    HW140407   6.192   1.320   1.111 -1.6260 -1.8081 -0.6160
44389SOL    HW240408   6.294   1.234   1.039 -1.0889 -0.2597 -1.7314
44390SOL     OW40409   0.705   5.979   7.089 -0.4049  0.0567  0.2622
44390SOL    HW140410   0.689   6.065   7.128  1.3563  0.0404  1.1074
44390SOL    HW240411   0.658   5.982   7.005 -1.4822  1.3271  0.8692
44391SOL     OW40412   1.390   1.328   1.526 -1.0434  0.0007  0.1585
44391SOL    HW140413   1.307   1.304   1.567 -1.0106  0.0500  0.2561
44391SOL    HW240414   1.415   1.252   1.474 -0.4737 -0.5607  1.1996
44392SOL     OW40415   8.684   6.731   0.804 -0.3199  0.3921  0.9248
44392SOL    HW140416   8.600   6.758   0.767 -0.5388  0.3798  1.4081
44392SOL    HW240417   8.708   6.653   0.753 -1.1485 -0.2714  1.5009
44393SOL     OW40418   5.125   3.409   1.691  0.2363  0.1626 -0.1051
44393SOL    HW140419   5.124   3.424   1.785  1.1894  0.3314 -0.1087
44393SOL    HW240420   5.217   3.390   1.671  0.2803  1.4353 -1.2095
44394SOL     OW40421   2.754   3.190  11.231 -0.3654 -0.8333 -0.0028
44394SOL    HW140422   2.832   3.209  11.283  0.2848 -1.6313 -0.6578
44394SOL    HW240423   2.717   3.112  11.272  0.1024 -1.4164 -0.6657
44395SOL     OW40424  11.336   8.613  11.139 -0.2952 -0.1452 -0.5002
44395SOL    HW140425  11.282   8.536  11.122 -0.1060 -0.5759  0.7135
44395SOL    HW240426  11.423   8.577  11.159 -0.5682  0.2540  1.6060
44396SOL     OW40427   7.011   1.791   0.293  0.0116 -0.1798 -0.4856
44396SOL    HW140428   6.939   1.749   0.341 -0.2736 -1.2154 -1.7530
44396SOL    HW240429   7.086   1.783   0.352 -1.1172  2.0374  1.4127
44397SOL     OW40430  12.184  11.417   1.877 -0.2297  0.5389  0.1347
44397SOL    HW140431  12.120  11.473   1.831  0.8101  1.6104 -0.0449
44397SOL    HW240432  12.268  11.439   1.838  0.1612 -1.6475 -0.3877
44398SOL     OW40433   5.672   0.744  12.360 -0.1804  0.3002  0.4913
44398SOL    HW140434   5.621   0.816  12.323 -2.5321  0.0108  2.8011
44398SOL    HW240435   5.619   0.666  12.344  0.4508 -0.3292  1.3426
44399SOL     OW40436  10.370   3.802   2.851 -0.6408 -0.4835  0.3835
44399SOL    HW140437  10.354   3.806   2.945  0.5283 -2.3800  0.7260
44399SOL    HW240438  10.456   3.844   2.840 -0.3371 -1.1125  0.3171
44400SOL     OW40439   4.891   7.592   1.219  0.2126  0.0982 -0.8245
44400SOL    HW140440   4.866   7.572   1.129 -0.2199  0.3452 -0.7628
44400SOL    HW240441   4.869   7.513   1.268  1.9890 -0.6810 -1.1959
44401SOL     OW40442   4.841   3.265   7.351 -0.8952 -0.0415  0.0390
44401SOL    HW140443   4.935   3.255   7.336 -0.7182  0.1130  0.9984
44401SOL    HW240444   4.807   3.176   7.346 -0.7411 -0.0678 -0.5783
44402SOL     OW40445   7.557   8.818   4.156 -0.2424  0.5508 -0.6140
44402SOL    HW140446   7.470   8.857   4.153 -1.1007 -1.2410 -0.3046
44402SOL    HW240447   7.586   8.817   4.065 -2.0424 -1.9015 -1.2858
44403SOL     OW40448   1.429   9.014   9.153  0.3436 -0.1767  0.1682
44403SOL    HW140449   1.511   9.006   9.201  0.6755 -1.0740 -0.5029
44403SOL    HW240450   1.424   9.106   9.129  0.7743  0.0357  0.8653
44404SOL     OW40451   6.821   4.414   7.115 -0.6985  0.1587  0.4443
44404SOL    HW140452   6.837   4.452   7.201 -0.0711  2.1467 -0.4788
44404SOL    HW240453   6.728   4.429   7.099 -1.0795 -1.2398  1.2032
44405SOL     OW40454   5.492   9.974   2.829  0.1038 -0.0838 -0.3458
44405SOL    HW140455   5.493  10.064   2.798  1.6981  0.1450  0.2728
44405SOL    HW240456   5.583   9.945   2.822 -0.4327 -1.7680 -0.8646
44406SOL     OW40457   0.316   4.907  12.414 -0.7150 -0.6608  0.6502
44406SOL    HW140458   0.248   4.955  12.367 -0.6642 -0.0541  1.1934
44406SOL    HW240459   0.269   4.855  12.479 -0.5604  1.6067  2.7103
44407SOL     OW40460   7.147   1.142   3.964 -0.2650 -0.3441 -0.4497
44407SOL    HW140461   7.185   1.230   3.967  0.2964 -0.4657 -2.2906
44407SOL    HW240462   7.193   1.099   3.891 -1.8428 -1.5321 -0.7973
44408SOL     OW40463   4.617   3.698   0.993  0.1415 -0.2313  0.4069
44408SOL    HW140464   4.625   3.627   0.930 -2.4324 -0.7309  0.5376
44408SOL    HW240465   4.553   3.667   1.057  0.2116  1.5578  1.4279
44409SOL     OW40466  12.465   9.324   0.116 -0.7523  0.2850  0.0212
44409SOL    HW140467  12.372   9.304   0.116 -0.8506  0.7492  0.2480
44409SOL    HW240468  12.505   9.249   0.071 -0.9133 -1.3922  2.5255
44410SOL     OW40469   2.185   9.305  11.222 -0.2276 -0.0208  0.0751
44410SOL    HW140470   2.167   9.330  11.132 -0.0374 -0.1496  0.0009
44410SOL    HW240471   2.258   9.244  11.216  0.5369  0.8354  0.4023
44411SOL     OW40472  12.292   1.140  11.596 -0.2580  0.4925 -0.1213
44411SOL    HW140473  12.357   1.173  11.534 -2.2593 -0.1237 -2.7308
44411SOL    HW240474  12.239   1.217  11.619  1.1443  0.9481  1.8232
44412SOL     OW40475  10.278   2.874   6.382 -0.4474  0.0033  0.0269
44412SOL    HW140476  10.358   2.822   6.377 -0.7280 -0.3938 -0.5108
44412SOL    HW240477  10.208   2.812   6.359 -0.8928  0.3742  0.3745
44413SOL     OW40478   4.870   0.960   1.920 -0.2757  0.1587 -0.6270
44413SOL    HW140479   4.776   0.980   1.918 -0.6440 -1.1406  1.2288
44413SOL    HW240480   4.893   0.965   2.013  1.5890  0.7216 -1.0784
44414SOL     OW40481   2.844  11.810   5.332  0.5141  0.2358 -0.0203
44414SOL    HW140482   2.814  11.760   5.256  0.7671 -0.9652  0.6501
44414SOL    HW240483   2.785  11.886   5.335  0.1506  0.0128 -1.0833
44415SOL     OW40484   5.577   1.891   7.392 -0.3807  0.3273 -0.0979
44415SOL    HW140485   5.506   1.950   7.417 -0.9207 -0.1492 -0.4888
44415SOL    HW240486   5.543   1.804   7.412  0.7970  0.1737  1.4666
44416SOL     OW40487   7.799   7.662   2.171 -0.3662 -0.0513  0.5573
44416SOL    HW140488   7.798   7.677   2.266 -0.9854  0.1877  0.5175
44416SOL    HW240489   7.730   7.598   2.156  1.5171 -2.1792  0.5793
44417SOL     OW40490   0.023   0.963   4.844  0.4558  0.1537 -0.4727
44417SOL    HW140491   0.059   1.036   4.793 -0.2316  2.6556  2.3158
44417SOL    HW240492   0.097   0.929   4.894  0.9515 -1.7482 -2.3447
44418SOL     OW40493   2.047   9.564  12.155  0.2042  0.2729 -0.0661
44418SOL    HW140494   2.072   9.489  12.101  0.7529 -2.1389  3.2285
44418SOL    HW240495   1.954   9.576  12.138  0.5609  0.3485 -2.2752
44419SOL     OW40496   5.351   1.637   2.475 -0.1688  0.2778 -0.1621
44419SOL    HW140497   5.430   1.659   2.525 -0.1497  1.3164 -0.6302
44419SOL    HW240498   5.289   1.707   2.497 -1.1004 -0.7204  0.4853
44420SOL     OW40499   7.476   4.697   4.854  0.0037 -0.5960  0.2418
44420SOL    HW140500   7.483   4.762   4.784 -0.0998 -1.1092 -0.2533
44420SOL    HW240501   7.560   4.650   4.851  1.0545  1.0326  2.1450
44421SOL     OW40502   9.823   9.650  11.246  0.0367  0.3030  0.0844
44421SOL    HW140503   9.902   9.598  11.229 -1.9471 -2.5366 -1.2560
44421SOL    HW240504   9.815   9.707  11.170  0.9359  0.8887  0.4062
44422SOL     OW40505   3.243   8.424   5.172 -0.1760  0.6673  0.5189
44422SOL    HW140506   3.231   8.337   5.134 -0.0651  1.0898 -0.5256
44422SOL    HW240507   3.166   8.436   5.227 -0.8978  0.4416 -0.4054
44423SOL     OW40508   1.306   2.505   5.330 -0.2642  0.7461 -0.3708
44423SOL    HW140509   1.312   2.523   5.236  0.7917 -2.2890 -0.9894
44423SOL    HW240510   1.214   2.487   5.346 -0.2560 -0.0183 -1.1286
44424SOL     OW40511   6.557   9.107  11.577 -0.1866  0.0695  0.2557
44424SOL    HW140512   6.469   9.070  11.589  0.0741 -1.5851 -2.0825
44424SOL    HW240513   6.615   9.045  11.621  0.0380 -1.0553 -1.4870
44425SOL     OW40514   1.262  11.149  10.142  0.2519 -0.1960  0.2760
44425SOL    HW140515   1.346  11.128  10.103 -0.0648 -1.2842  0.1599
44425SOL    HW240516   1.278  11.149  10.237  0.4031 -0.3195  0.2491
44426SOL     OW40517   0.210   8.977   5.345  0.1720  0.4885  0.0736
44426SOL    HW140518   0.277   8.989   5.277 -0.1574 -0.1606 -0.3797
44426SOL    HW240519   0.232   8.894   5.386  0.1528  0.7024  0.5273
44427SOL     OW40520   9.892   3.946  10.485 -0.0273  0.1053 -0.1196
44427SOL    HW140521   9.813   3.911  10.445 -0.1174  1.6667 -1.4146
44427SOL    HW240522   9.907   4.029  10.440  3.0722 -0.7034 -0.8519
44428SOL     OW40523  10.301  12.688   0.209 -0.4295 -0.1553  0.4742
44428SOL    HW140524  10.377  12.634   0.229  0.3142  0.6631 -0.0941
44428SOL    HW240525  10.227  12.627   0.216  0.5488 -1.9043 -2.4849
44429SOL     OW40526   7.708  10.650   8.722  0.3708 -0.0956 -0.3771
44429SOL    HW140527   7.648  10.578   8.741 -0.4191  0.7573  0.4857
44429SOL    HW240528   7.696  10.711   8.795  0.8994  0.9889 -1.1663
44430SOL     OW40529   8.749   2.529   8.748  0.1908 -0.1524  0.0793
44430SOL    HW140530   8.680   2.462   8.751 -0.9694  1.0088  0.0188
44430SOL    HW240531   8.719   2.597   8.807  1.9008 -0.1478  1.0011
44431SOL     OW40532   8.630   8.234   8.677  0.5310 -0.6766  0.1201
44431SOL    HW140533   8.637   8.301   8.610  0.4923 -0.8211 -0.0285
44431SOL    HW240534   8.613   8.153   8.629 -0.7791 -0.5729  0.3763
44432SOL     OW40535   0.402   9.620   4.891  0.0658 -0.0338 -0.0807
44432SOL    HW140536   0.419   9.675   4.814  1.3842 -0.8675 -0.4287
44432SOL    HW240537   0.401   9.680   4.965 -0.1046  0.6439 -0.6314
44433SOL     OW40538   8.157   8.981   4.988 -0.0051  0.2537  0.0067
44433SOL    HW140539   8.250   8.963   4.977  0.3518  2.8781 -2.2348
44433SOL    HW240540   8.117   8.953   4.906 -0.8515  0.9539  0.1623
44434SOL     OW40541   6.930  10.187   8.041 -0.1206 -0.3473 -0.2423
44434SOL    HW140542   6.845  10.231   8.047 -0.4542 -0.8402 -1.1674
44434SOL    HW240543   6.991  10.248   8.082 -0.4680  1.2725 -1.9824
44435SOL     OW40544  11.075  10.082   6.806  0.7588  0.2360  0.0741
44435SOL    HW140545  11.074  10.159   6.863  4.2397 -0.3555  1.2026
44435SOL    HW240546  11.012  10.022   6.846 -0.4322  1.6366  0.4080
44436SOL     OW40547   2.481   6.166  11.895 -0.0466 -0.3182 -0.2985
44436SOL    HW140548   2.573   6.178  11.873  0.0344 -0.6680 -0.1577
44436SOL    HW240549   2.442   6.129  11.816 -0.2393  0.5884 -0.6389
44437SOL     OW40550   7.828  12.057   5.121 -0.2906  0.5801  0.5008
44437SOL    HW140551   7.778  11.984   5.158 -0.1287  0.1878 -0.0498
44437SOL    HW240552   7.786  12.135   5.156  0.5170  0.2171  2.4186
44438SOL     OW40553   0.001   7.497   0.325 -0.1314  0.4259  0.0853
44438SOL    HW140554  -0.006   7.405   0.298 -0.8523  0.5036  0.0062
44438SOL    HW240555  -0.084   7.535   0.304  0.4767  1.3591 -0.7590
44439SOL     OW40556   4.408   1.636   4.809  0.7358 -0.0254 -0.0624
44439SOL    HW140557   4.465   1.710   4.830  0.8575  0.1809 -1.0811
44439SOL    HW240558   4.416   1.578   4.884  0.0173  1.3555  1.1275
44440SOL     OW40559   2.483  11.259   3.097 -0.2058  0.2483  0.0165
44440SOL    HW140560   2.458  11.352   3.094 -2.6260 -0.2540  2.0034
44440SOL    HW240561   2.566  11.259   3.146  0.0574  1.3673 -0.3834
44441SOL     OW40562   5.212   3.305   5.873 -0.3527  0.4745 -0.4497
44441SOL    HW140563   5.227   3.350   5.789  0.4889 -0.2310 -0.6873
44441SOL    HW240564   5.284   3.335   5.929 -0.5864  0.4930 -0.1586
44442SOL     OW40565   0.581   1.350   9.893 -0.3409  0.1394  0.4932
44442SOL    HW140566   0.529   1.429   9.879 -1.7412 -0.6253  1.0566
44442SOL    HW240567   0.520   1.278   9.874  0.8347 -0.8025  0.1759
44443SOL     OW40568  10.488   9.309   4.253 -0.4348 -0.5165 -0.1041
44443SOL    HW140569  10.495   9.227   4.205 -0.1611 -0.1049 -0.7814
44443SOL    HW240570  10.559   9.363   4.218  0.4544 -0.5784  1.5010
44444SOL     OW40571   2.323  11.247   6.728  0.7432 -0.1045 -0.2030
44444SOL    HW140572   2.270  11.218   6.654 -1.0189  1.7949  0.2016
44444SOL    HW240573   2.318  11.175   6.791  0.0165 -0.6457 -0.8580
44445SOL     OW40574   8.121   1.816   7.016  0.0281 -0.6415 -0.1967
44445SOL    HW140575   8.127   1.785   7.106  1.8856 -1.3998 -0.5276
44445SOL    HW240576   8.037   1.783   6.984 -0.8613  0.0191  1.3671
44446SOL     OW40577  11.833   8.079   2.686 -0.6933 -0.5183  0.0219
44446SOL    HW140578  11.757   8.124   2.723  1.3662  1.6227  1.9844
44446SOL    HW240579  11.837   7.996   2.734 -0.4785  0.3980  1.6483
44447SOL     OW40580   3.760   9.829  11.612 -0.1473  0.0008  0.0170
44447SOL    HW140581   3.818   9.869  11.546 -0.4169  0.1248 -0.1451
44447SOL    HW240582   3.745   9.740  11.580 -1.6765  0.5924 -1.0024
44448SOL     OW40583   3.627  12.623  10.615 -0.1478 -0.1060 -0.4542
44448SOL    HW140584   3.560  12.666  10.669 -2.1779 -1.1421 -1.9912
44448SOL    HW240585   3.697  12.602  10.677 -1.2242  0.9928  1.2601
44449SOL     OW40586   1.573  10.872   0.936  0.0169  0.0631 -0.1194
44449SOL    HW140587   1.498  10.835   0.982 -0.2283  1.3208  0.5537
44449SOL    HW240588   1.536  10.943   0.883  0.8232  1.2894  0.9123
44450SOL     OW40589  10.984   7.519  12.094 -0.2885 -0.1989 -0.1503
44450SOL    HW140590  11.032   7.596  12.126 -1.3894  0.3680  0.1708
44450SOL    HW240591  11.053   7.462  12.058  0.7133  0.2573  0.9530
44451SOL     OW40592   5.032   5.319   2.570 -0.3885 -0.3592  0.1749
44451SOL    HW140593   5.048   5.367   2.489  0.4051  0.8258  1.0122
44451SOL    HW240594   5.057   5.379   2.640  2.1375 -2.4805  1.2646
44452SOL     OW40595   0.754   5.950   9.817 -0.0259  0.4626 -0.5279
44452SOL    HW140596   0.715   5.906   9.893  0.1787  0.3690 -0.4758
44452SOL    HW240597   0.682   6.001   9.779 -0.1827  0.3394 -0.3975
44453SOL     OW40598   7.838   0.886   5.966 -0.0883 -0.1009 -0.0831
44453SOL    HW140599   7.816   0.794   5.953  0.6109 -0.2660 -0.1332
44453SOL    HW240600   7.799   0.908   6.051 -1.4680 -0.0411 -0.7073
44454SOL     OW40601   1.191   8.807   7.308  0.2698  0.0993  0.9734
44454SOL    HW140602   1.265   8.801   7.369 -0.1081  0.9459  1.5252
44454SOL    HW240603   1.209   8.738   7.243  1.5712  0.3158  1.0627
44455SOL     OW40604  10.066   0.963  11.366  0.1394  0.5269  0.4591
44455SOL    HW140605  10.050   0.903  11.439  0.0459  1.4058  1.1833
44455SOL    HW240606  10.162   0.973  11.364  0.2173 -0.2153 -0.1529
44456SOL     OW40607   9.916   6.754   6.074  0.1193  0.0696 -0.1046
44456SOL    HW140608   9.890   6.736   6.165  0.0777 -0.1918 -0.1678
44456SOL    HW240609   9.887   6.843   6.058 -0.6703 -0.1907 -0.1500
44457SOL     OW40610   7.752   2.851   7.221 -0.2029  0.4410  0.0438
44457SOL    HW140611   7.761   2.759   7.244 -1.0107  0.3267 -0.0646
44457SOL    HW240612   7.708   2.891   7.296  0.4080  0.8079  0.2192
44458SOL     OW40613   7.302  10.321   4.476  0.1073  0.3418  0.0951
44458SOL    HW140614   7.222  10.271   4.491  0.7278 -0.6394  0.2892
44458SOL    HW240615   7.328  10.351   4.564  0.1373  0.3533  0.0820
44459SOL     OW40616   7.509   0.253   7.138 -0.2244  0.4528 -0.3939
44459SOL    HW140617   7.526   0.340   7.101  1.2575  0.1306 -0.5291
44459SOL    HW240618   7.509   0.195   7.062 -1.7113  0.3780 -0.3610
44460SOL     OW40619   0.876  12.312   2.268  0.1907 -0.4820  0.5659
44460SOL    HW140620   0.951  12.370   2.275 -0.5737  0.7689 -0.9099
44460SOL    HW240621   0.825  12.327   2.347 -0.0837  1.0212  0.1236
44461SOL     OW40622  10.288   1.053   1.270  0.1002  0.1170  0.4660
44461SOL    HW140623  10.284   1.033   1.364 -1.5647 -3.8622 -0.2215
44461SOL    HW240624  10.196   1.051   1.242  0.6293  0.1812 -1.3858
44462SOL     OW40625   9.677   3.233   9.616 -0.1552 -0.5139  0.2594
44462SOL    HW140626   9.592   3.238   9.571  0.2113 -0.4645 -0.4441
44462SOL    HW240627   9.655   3.218   9.708 -0.9949  1.2761  0.3992
44463SOL     OW40628   9.735   0.961   1.844  0.5060 -0.3048 -0.4661
44463SOL    HW140629   9.724   0.967   1.749  1.0546  0.9700 -0.4727
44463SOL    HW240630   9.829   0.950   1.856  1.1225  3.8478 -0.0083
44464SOL     OW40631   0.937   0.566  10.116 -0.6316  0.5603 -0.4368
44464SOL    HW140632   0.930   0.552  10.021  0.1481  0.2236 -0.4516
44464SOL    HW240633   0.897   0.488  10.154 -1.7995  1.1131 -0.4614
44465SOL     OW40634  10.819   9.301   8.904 -0.2076 -0.5443 -0.0705
44465SOL    HW140635  10.879   9.231   8.931  1.0665  0.0149 -1.3129
44465SOL    HW240636  10.860   9.381   8.937  0.3299 -0.0571 -1.8105
44466SOL     OW40637   8.460  11.939   0.188 -0.2541  0.3921 -0.4750
44466SOL    HW140638   8.494  11.948   0.277 -1.8663  1.7523  0.0592
44466SOL    HW240639   8.538  11.929   0.133  0.7668 -0.8079  1.0908
44467SOL     OW40640   6.852   3.038   1.131  0.1997 -0.5907 -0.2926
44467SOL    HW140641   6.937   3.064   1.167  0.8135 -1.0538 -1.3505
44467SOL    HW240642   6.789   3.058   1.201  1.1286  0.0706  0.3819
44468SOL     OW40643   4.628  11.111  10.702  0.0678 -0.3159 -0.2889
44468SOL    HW140644   4.665  11.180  10.648 -2.1739  0.4037 -1.0259
44468SOL    HW240645   4.603  11.155  10.784  0.0239 -0.5883 -0.1525
44469SOL     OW40646   1.911  12.544  10.504 -0.2861  0.0496  0.1452
44469SOL    HW140647   1.867  12.480  10.560  2.2984 -1.6812  0.3955
44469SOL    HW240648   1.913  12.624  10.555 -2.2447 -0.0588  0.4671
44470SOL     OW40649   7.532   7.487  10.596  0.1771 -0.4826 -0.0359
44470SOL    HW140650   7.596   7.532  10.541  1.5231 -1.5774  0.5845
44470SOL    HW240651   7.581   7.460  10.674 -1.2295 -0.6725  0.8277
44471SOL     OW40652   6.761   3.532   1.099  0.1628 -0.5480  0.0877
44471SOL    HW140653   6.829   3.467   1.080  0.3604  0.0268 -1.3129
44471SOL    HW240654   6.800   3.590   1.163  1.4701  0.4367 -1.5197
44472SOL     OW40655   0.544   3.747   8.684 -0.0261 -0.5831 -0.3971
44472SOL    HW140656   0.499   3.698   8.614  0.3237  0.8383 -1.6638
44472SOL    HW240657   0.474   3.797   8.727  0.1592  1.0074 -1.8474
44473SOL     OW40658   9.482   3.553   7.789  0.4405  0.3498  0.0428
44473SOL    HW140659   9.545   3.590   7.850  0.6489 -0.1323  0.1221
44473SOL    HW240660   9.410   3.616   7.787  0.4423  0.3823  0.7707
44474SOL     OW40661  12.376   1.157  12.710 -0.3835 -0.0419 -0.1406
44474SOL    HW140662  12.308   1.093  12.693 -1.0683  0.6103  0.0668
44474SOL    HW240663  12.456   1.106  12.719 -0.2458 -0.6027 -3.5065
44475SOL     OW40664   6.783   9.297  11.097  0.0119  0.3119  0.0956
44475SOL    HW140665   6.786   9.386  11.132  1.3670 -0.0647  1.0217
44475SOL    HW240666   6.827   9.243  11.163 -0.5959 -1.0181 -0.5408
44476SOL     OW40667   1.562   9.706   0.383  0.2130  0.3484  0.0038
44476SOL    HW140668   1.484   9.729   0.333  0.7420  0.1889 -0.9283
44476SOL    HW240669   1.538   9.626   0.429 -0.8891  1.4881  1.4836
44477SOL     OW40670   8.450   0.156   5.985  0.3161 -0.8469 -0.5242
44477SOL    HW140671   8.414   0.105   5.913 -1.9895 -1.0542  0.6712
44477SOL    HW240672   8.517   0.100   6.024  0.6672 -1.2521 -1.6851
44478SOL     OW40673   8.382   4.310   2.540 -0.0854 -0.1616  0.1959
44478SOL    HW140674   8.317   4.381   2.543 -2.0290 -1.8647  0.6940
44478SOL    HW240675   8.456   4.343   2.591 -0.8057  1.6199  0.1456
44479SOL     OW40676  12.465   5.610   6.477  0.2825  0.4842  0.0944
44479SOL    HW140677  12.415   5.606   6.559  1.4245  1.2534  0.8590
44479SOL    HW240678  12.529   5.539   6.485  2.1883  2.2176  1.1439
44480SOL     OW40679   5.935   2.103   4.221 -0.3436  0.1556  0.4079
44480SOL    HW140680   6.006   2.109   4.157  0.2770  1.3591  1.1572
44480SOL    HW240681   5.855   2.101   4.168  0.0828  2.3157 -0.4191
44481SOL     OW40682   1.067   1.873   5.450  0.4332  0.6651 -0.2150
44481SOL    HW140683   1.134   1.823   5.496 -0.3801 -3.7434 -3.2429
44481SOL    HW240684   1.116   1.926   5.387  1.2064  0.2560  0.0291
44482SOL     OW40685   6.281   1.859  10.158 -0.2473 -0.3815 -0.1244
44482SOL    HW140686   6.321   1.946  10.166 -0.8066 -0.1602  0.4474
44482SOL    HW240687   6.321   1.808  10.229  0.5073 -0.7694 -0.8218
44483SOL     OW40688   8.382   6.786   1.996  0.3750 -0.6439 -0.1844
44483SOL    HW140689   8.325   6.805   1.921  0.0377 -1.4223 -0.1359
44483SOL    HW240690   8.326   6.738   2.057  1.2391 -1.9410 -0.3897
44484SOL     OW40691   9.965   4.833   6.276 -0.3385 -0.2258  0.0719
44484SOL    HW140692  10.018   4.892   6.222  1.6973 -3.4154 -1.7590
44484SOL    HW240693   9.883   4.823   6.227 -0.3661  0.4317 -0.0266
44485SOL     OW40694   4.323  11.052  11.898 -0.2075  0.6045 -0.0096
44485SOL    HW140695   4.355  11.088  11.980  1.1384  1.1929 -0.7655
44485SOL    HW240696   4.294  10.963  11.921  2.5357 -0.2227  0.6724
44486SOL     OW40697   9.890   0.283   4.245  0.2640  1.0997 -0.5929
44486SOL    HW140698   9.943   0.274   4.325  1.1091 -0.6932 -1.2893
44486SOL    HW240699   9.942   0.240   4.178 -1.5413  0.3665 -1.5796
44487SOL     OW40700   7.755   6.106   1.495  0.2224  0.0781 -0.3819
44487SOL    HW140701   7.711   6.023   1.479  0.1164 -0.0983  0.7628
44487SOL    HW240702   7.806   6.091   1.574  0.8727  0.8503 -0.6464
44488SOL     OW40703   9.374  12.696   4.447  0.2844  0.3153  0.5808
44488SOL    HW140704   9.330  12.631   4.502  0.0597  0.7903  0.9700
44488SOL    HW240705   9.402  12.764   4.508 -0.8465  1.3357 -0.0058
44489SOL     OW40706   2.336   1.905   4.535  0.6392  0.4272 -0.0498
44489SOL    HW140707   2.366   1.860   4.457 -1.7464  0.9294 -1.3323
44489SOL    HW240708   2.380   1.990   4.532 -0.0596  0.7711 -1.3436
44490SOL     OW40709   5.401   9.014  10.178 -0.2845 -0.4211  0.1527
44490SOL    HW140710   5.490   9.008  10.213  0.3414 -3.8405 -1.5829
44490SOL    HW240711   5.346   9.026  10.255  1.5574  0.7921  1.3710
44491SOL     OW40712   8.465   4.625  12.695 -0.3876 -0.7731  0.1171
44491SOL    HW140713   8.519   4.692  12.737  1.6111 -2.5717  0.6050
44491SOL    HW240714   8.470   4.646  12.602 -0.7950  0.4132  0.3381
44492SOL     OW40715   5.833   9.657   7.775 -0.0443  0.3274  0.3868
44492SOL    HW140716   5.737   9.653   7.778 -0.0621  0.2056 -0.3204
44492SOL    HW240717   5.856   9.621   7.690  0.6390  0.2755  0.5914
44493SOL     OW40718   3.413  11.890   9.602 -0.1055  0.4144 -0.5235
44493SOL    HW140719   3.441  11.890   9.510  0.6358  0.9113 -0.3138
44493SOL    HW240720   3.411  11.983   9.626 -0.1849  0.2824 -0.0065
44494SOL     OW40721  10.647   0.243   9.522  0.1260  0.4449 -0.0919
44494SOL    HW140722  10.592   0.183   9.471  0.7565 -0.0135 -0.2424
44494SOL    HW240723  10.730   0.197   9.532 -0.1280  0.3260  1.7738
44495SOL     OW40724   2.543   2.835  11.974 -0.1917 -0.1534 -0.3644
44495SOL    HW140725   2.544   2.897  12.046 -1.4203 -1.9376  1.2977
44495SOL    HW240726   2.509   2.885  11.900  0.7098  1.6303  0.3707
44496SOL     OW40727  10.309   5.923   9.237  0.0520  0.0915  0.1373
44496SOL    HW140728  10.328   5.939   9.144  0.3011  2.1588  0.4888
44496SOL    HW240729  10.395   5.905   9.275  0.4212  2.2356  0.4466
44497SOL     OW40730   6.050  11.177   6.389 -0.8537  0.0226 -0.4592
44497SOL    HW140731   6.030  11.092   6.350 -1.6154 -0.5361  1.0801
44497SOL    HW240732   6.039  11.164   6.483  0.5009  1.4306 -0.0474
44498SOL     OW40733   5.243   4.913  12.701 -0.2258  0.0651  0.5357
44498SOL    HW140734   5.252   4.928  12.795 -0.2900  1.6578  0.3132
44498SOL    HW240735   5.259   4.998  12.661  2.7188 -1.1060 -1.1229
44499SOL     OW40736   5.826   0.058   0.030  0.4708  0.2368 -0.0069
44499SOL    HW140737   5.886   0.082   0.101  1.6475  0.0844 -0.9280
44499SOL    HW240738   5.742   0.096   0.057  0.6508 -0.6069  1.9011
44500SOL     OW40739  10.700  11.094   4.582 -0.1753 -0.5543 -0.1787
44500SOL    HW140740  10.636  11.156   4.616 -1.8701 -2.6643  0.7383
44500SOL    HW240741  10.679  11.086   4.489 -0.6059 -0.4885 -0.0887
44501SOL     OW40742   7.521   9.347   5.907  0.3599  0.9127  0.1689
44501SOL    HW140743   7.605   9.390   5.893 -0.1489  1.5568 -0.9410
44501SOL    HW240744   7.472   9.406   5.965  1.9144 -1.0781  3.9039
44502SOL     OW40745   2.029  11.304   7.850 -0.1647 -0.2288  0.1055
44502SOL    HW140746   2.079  11.223   7.860 -0.3554 -0.3379  0.1724
44502SOL    HW240747   2.074  11.366   7.907 -0.1418 -0.3447  0.2137
44503SOL     OW40748   0.009   5.947   2.157 -0.2710 -0.0706  0.4793
44503SOL    HW140749  -0.028   5.975   2.240 -0.5428  0.5020  0.1666
44503SOL    HW240750   0.103   5.951   2.170 -0.2662 -2.0415  1.4583
44504SOL     OW40751   9.171   7.337   0.195  0.3515 -0.0887  0.4580
44504SOL    HW140752   9.094   7.321   0.141  1.6630 -2.5537 -0.8700
44504SOL    HW240753   9.156   7.286   0.274  0.6784 -0.6717  0.1431
44505SOL     OW40754  10.763   3.276   0.764 -0.0441 -0.2173 -0.2140
44505SOL    HW140755  10.857   3.258   0.758 -0.1835 -0.8983 -0.3984
44505SOL    HW240756  10.751   3.356   0.712  0.4377 -0.1110 -0.1682
44506SOL     OW40757   9.861   3.955   4.620 -0.2522 -0.4629  0.3283
44506SOL    HW140758   9.915   3.925   4.693 -0.2531 -0.2474  0.4200
44506SOL    HW240759   9.801   3.882   4.603 -0.6676 -0.2788  0.9563
44507SOL     OW40760   8.243   5.333   8.551  0.3615 -0.0566 -0.7975
44507SOL    HW140761   8.249   5.257   8.608 -3.5904  0.6425  0.8892
44507SOL    HW240762   8.177   5.309   8.486 -0.5723  1.6678 -0.5440
44508SOL     OW40763  10.308   2.829   0.363  0.1436 -0.7915  0.2878
44508SOL    HW140764  10.257   2.867   0.292  1.2634 -0.2742 -0.2672
44508SOL    HW240765  10.247   2.771   0.408 -1.3854  1.0047  0.6520
44509SOL     OW40766   5.411  11.185  12.226  0.1318  0.1697  0.2656
44509SOL    HW140767   5.484  11.131  12.259  0.2367 -0.0588 -0.3287
44509SOL    HW240768   5.434  11.204  12.135 -1.9278 -2.4032 -0.9279
44510SOL     OW40769   8.879   6.532   6.102  0.3827  0.5064  0.0662
44510SOL    HW140770   8.791   6.528   6.139  0.8783 -2.1130  1.2072
44510SOL    HW240771   8.868   6.501   6.012  0.2973 -1.3133  0.6694
44511SOL     OW40772  12.287   6.439   8.284  0.5662 -0.1326 -0.3577
44511SOL    HW140773  12.197   6.469   8.283 -0.0849 -1.8314  1.3283
44511SOL    HW240774  12.296   6.386   8.205  0.4365  0.8986 -1.0789
44512SOL     OW40775  10.437  11.543   8.514  0.3694 -0.2842  0.1438
44512SOL    HW140776  10.356  11.523   8.560 -0.3953  0.7032 -0.7092
44512SOL    HW240777  10.442  11.639   8.515  0.7492 -0.2713 -1.0579
44513SOL     OW40778   1.294  10.822   6.660 -0.0939 -0.2305 -0.1730
44513SOL    HW140779   1.242  10.896   6.692  0.4577  0.1286 -0.0752
44513SOL    HW240780   1.378  10.862   6.634 -0.6150 -0.4358 -2.3864
44514SOL     OW40781   5.871   8.790   7.633 -0.0217  0.3245  0.1863
44514SOL    HW140782   5.782   8.772   7.602 -0.3491 -1.0498  1.7803
44514SOL    HW240783   5.865   8.875   7.676 -1.0789 -0.5587  1.9219
44515SOL     OW40784   6.798   7.643  11.209 -0.3484  0.5854 -0.2519
44515SOL    HW140785   6.884   7.680  11.232  0.9317 -1.0632 -2.0066
44515SOL    HW240786   6.814   7.549  11.203 -3.0085 -0.1707  2.1410
44516SOL     OW40787   1.641   6.021   9.994  0.6037  0.2398  0.1873
44516SOL    HW140788   1.574   6.058   9.937 -0.3540 -0.0440  1.0891
44516SOL    HW240789   1.718   6.010   9.938 -0.4904 -0.6249 -1.2028
44517SOL     OW40790   0.799  11.606   3.074  0.3627  0.0520 -0.0919
44517SOL    HW140791   0.818  11.526   3.025 -0.8190  0.9198 -2.0595
44517SOL    HW240792   0.831  11.587   3.162  0.4124 -2.4811 -0.5599
44518SOL     OW40793   9.606  12.073   0.284  0.4816 -0.3843 -0.6054
44518SOL    HW140794   9.552  12.052   0.208 -1.0582 -0.0836  0.3569
44518SOL    HW240795   9.633  11.989   0.320 -0.4608 -0.5781 -0.3414
44519SOL     OW40796   6.027  11.521  10.770  0.2732  0.1236 -0.0663
44519SOL    HW140797   6.091  11.514  10.699 -0.8771  1.8648 -1.3576
44519SOL    HW240798   6.048  11.448  10.829  2.8565  0.1202 -0.8800
44520SOL     OW40799   8.250   8.976  11.777  0.0054  0.5381  0.2093
44520SOL    HW140800   8.345   8.979  11.771 -0.0682  3.2684 -1.2126
44520SOL    HW240801   8.228   9.042  11.844 -0.9337  2.7711 -2.1447
44521SOL     OW40802   0.805   3.782   1.783 -0.8856 -0.5865  0.3830
44521SOL    HW140803   0.882   3.771   1.839 -0.2528 -0.1279 -0.3666
44521SOL    HW240804   0.808   3.874   1.756 -1.1167 -0.8184 -0.4659
44522SOL     OW40805  11.410   3.628   0.996 -0.3413  0.2683  0.3925
44522SOL    HW140806  11.474   3.575   0.949  1.2396  1.5277  1.0186
44522SOL    HW240807  11.403   3.587   1.082 -2.8265 -1.7171 -0.6534
44523SOL     OW40808   1.952   8.423  10.117  0.0070  0.0035 -0.0403
44523SOL    HW140809   2.004   8.500  10.096 -0.5667  0.4679  0.2123
44523SOL    HW240810   1.891   8.452  10.185  0.1839 -0.8307  0.5019
44524SOL     OW40811   2.652   6.246   0.667  0.0666 -0.3309 -0.1349
44524SOL    HW140812   2.676   6.204   0.750 -0.6070 -0.0603  0.2096
44524SOL    HW240813   2.716   6.316   0.656 -2.5975  2.9356  2.7476
44525SOL     OW40814   1.576   8.476   8.178  0.2360  0.3211  0.4467
44525SOL    HW140815   1.619   8.557   8.153 -1.2357  1.2783  0.8961
44525SOL    HW240816   1.483   8.497   8.179 -0.2879 -1.6439 -0.4166
44526SOL     OW40817   4.555   8.631   3.532 -0.2353  0.4704  0.4331
44526SOL    HW140818   4.611   8.557   3.509  0.4100  0.9999  0.2456
44526SOL    HW240819   4.594   8.666   3.612 -0.5520  0.5895  0.5358
44527SOL     OW40820  11.627   3.794  10.266  0.2506 -0.2811 -0.2415
44527SOL    HW140821  11.614   3.821  10.175 -1.2451 -2.0007 -0.5947
44527SOL    HW240822  11.546   3.819  10.311  0.3539 -0.8032  0.2512
44528SOL     OW40823   9.427   1.716  12.473  0.7625  0.4369  0.0280
44528SOL    HW140824   9.473   1.662  12.409 -0.0783 -0.3536  0.0734
44528SOL    HW240825   9.496   1.756  12.526  1.4798  1.2060 -1.4294
44529SOL     OW40826   9.363   2.526   0.618  0.1974 -0.5862  0.4982
44529SOL    HW140827   9.437   2.467   0.604  1.0421  0.4610  0.4426
44529SOL    HW240828   9.298   2.499   0.553  1.6515  0.2545 -1.3996
44530SOL     OW40829   4.891   5.812   4.512  0.1406 -0.2019 -0.2411
44530SOL    HW140830   4.800   5.836   4.497  0.4782  1.1607 -0.2530
44530SOL    HW240831   4.916   5.859   4.592  1.1975  0.5519 -0.9695
44531SOL     OW40832   4.913   2.353   3.873 -0.2740  0.0123 -0.0996
44531SOL    HW140833   4.930   2.282   3.933  0.2091 -0.8386 -1.2061
44531SOL    HW240834   4.968   2.425   3.904  0.3691 -0.5834  0.1677
44532SOL     OW40835   9.450   7.933   8.782 -0.6155  0.0628  0.3130
44532SOL    HW140836   9.406   7.850   8.762  1.6197 -0.7672 -1.6181
44532SOL    HW240837   9.384   7.984   8.830 -1.8911 -2.9839  2.0787
44533SOL     OW40838   6.238   5.635   9.609 -0.1691  0.2872  0.5292
44533SOL    HW140839   6.272   5.717   9.643 -1.4499  0.1577  2.2988
44533SOL    HW240840   6.174   5.660   9.542  1.1642  0.6103 -0.6651
44534SOL     OW40841   2.468   9.454  11.090  0.5329 -0.3003 -0.1463
44534SOL    HW140842   2.508   9.526  11.041 -1.0654 -0.1078 -1.2316
44534SOL    HW240843   2.515   9.376  11.060  1.1711  0.0873 -0.1782
44535SOL     OW40844   3.135   8.138   9.714  0.1191  0.2741  0.3508
44535SOL    HW140845   3.228   8.150   9.692  0.0738 -1.0248 -0.6906
44535SOL    HW240846   3.128   8.167   9.805  1.5046  0.5853  0.3898
44536SOL     OW40847   1.181   0.584  12.534  0.2091 -0.1885  0.7685
44536SOL    HW140848   1.255   0.637  12.505  0.3457 -0.5295  0.4846
44536SOL    HW240849   1.149   0.542  12.454  1.0632 -1.7319  1.1956
44537SOL     OW40850   7.047   5.984   0.585 -0.2656 -0.0413  0.4972
44537SOL    HW140851   7.125   5.928   0.574  1.4135  2.4074 -1.1317
44537SOL    HW240852   7.038   5.995   0.679  2.3627  0.8173  0.7285
44538SOL     OW40853   0.249   2.282   3.112 -0.2433  0.3500 -0.4817
44538SOL    HW140854   0.273   2.283   3.204 -2.0319 -0.9150  0.0575
44538SOL    HW240855   0.332   2.291   3.065  0.7967  0.1234  1.2270
44539SOL     OW40856  10.896   7.598   4.033  0.1775 -0.0452 -0.8976
44539SOL    HW140857  10.834   7.671   4.029  0.5101  0.2728 -0.4152
44539SOL    HW240858  10.965   7.621   3.970 -0.0718 -0.2819 -1.2575
44540SOL     OW40859   7.426   6.736   0.665 -0.2469 -0.2278  0.1606
44540SOL    HW140860   7.469   6.778   0.740  3.1416 -1.3404 -0.9613
44540SOL    HW240861   7.462   6.782   0.589 -0.5907 -1.6483 -0.8974
44541SOL     OW40862   4.285   3.677   0.087 -0.4337 -0.7350  0.5039
44541SOL    HW140863   4.313   3.590   0.059  1.1436 -0.4835  1.1588
44541SOL    HW240864   4.190   3.670   0.098 -0.2643 -2.5807  1.2267
44542SOL     OW40865   8.322   0.118   9.523  0.4877 -0.4975 -0.1223
44542SOL    HW140866   8.407   0.162   9.527  0.6895 -0.9616  2.1499
44542SOL    HW240867   8.319   0.079   9.436  1.1878  2.2045 -1.4564
44543SOL     OW40868  12.404   6.212  10.128  0.5036  0.6493 -0.1902
44543SOL    HW140869  12.424   6.287  10.070 -0.8941  1.7234  0.6500
44543SOL    HW240870  12.478   6.152  10.115 -0.1334  0.3685 -3.7951
44544SOL     OW40871   3.276   1.537   2.601  0.2741 -0.3700 -0.1965
44544SOL    HW140872   3.325   1.606   2.646  1.2449 -1.1533 -0.0301
44544SOL    HW240873   3.238   1.485   2.672 -0.4551 -0.0347 -0.3241
44545SOL     OW40874   0.478   7.415   6.331 -0.5804 -0.2477  0.2374
44545SOL    HW140875   0.456   7.342   6.390 -2.3479 -0.5797 -0.7609
44545SOL    HW240876   0.505   7.486   6.390  0.5126 -1.4584  1.2639
44546SOL     OW40877  10.833   7.554   8.972  0.5576  0.4511 -0.3668
44546SOL    HW140878  10.741   7.530   8.982 -0.1049  2.6365 -0.5335
44546SOL    HW240879  10.871   7.484   8.920 -0.5384 -1.4321  1.2159
44547SOL     OW40880  11.094   4.051  12.574  0.0752  0.1993  0.0203
44547SOL    HW140881  11.177   4.047  12.527  1.4322 -0.5164  2.2699
44547SOL    HW240882  11.120   4.060  12.666 -2.3762  0.6470  0.7285
44548SOL     OW40883  12.056  11.350   3.822 -0.2237 -0.0728  0.4732
44548SOL    HW140884  12.098  11.267   3.801 -0.0250 -0.5860  2.7207
44548SOL    HW240885  12.110  11.388   3.891 -1.6980  0.7281  1.2370
44549SOL     OW40886   2.263   8.816   0.308  0.7562 -0.3036  0.4470
44549SOL    HW140887   2.268   8.897   0.256  0.3386 -1.7585 -2.0160
44549SOL    HW240888   2.354   8.795   0.328  0.9634  0.0705 -0.0860
44550SOL     OW40889   1.447   0.625  11.209 -0.3988  0.3261 -0.5350
44550SOL    HW140890   1.471   0.600  11.120  0.1585 -0.4502 -0.1780
44550SOL    HW240891   1.352   0.637  11.206 -0.4534 -0.2279 -1.1005
44551SOL     OW40892   4.653   8.512   5.143  0.3088 -0.9919  0.3168
44551SOL    HW140893   4.662   8.603   5.115  0.3669 -0.8841  0.6777
44551SOL    HW240894   4.587   8.475   5.085 -1.3348 -0.1194  1.5728
44552SOL     OW40895   4.238  11.011  10.265  0.2432 -0.0918 -0.0785
44552SOL    HW140896   4.327  11.043  10.247  0.7313 -1.3480 -0.0289
44552SOL    HW240897   4.202  11.073  10.328 -0.0418  2.1482 -2.2858
44553SOL     OW40898  10.121  11.727   2.209 -0.2347 -0.2741  0.0269
44553SOL    HW140899  10.182  11.667   2.252  0.0882 -0.9888 -1.3854
44553SOL    HW240900  10.063  11.757   2.280 -0.1836 -1.9729  0.8369
44554SOL     OW40901   7.916   9.773   9.047 -0.0259 -0.0343  0.0678
44554SOL    HW140902   7.976   9.839   9.014  0.5970  0.6946  2.4504
44554SOL    HW240903   7.895   9.801   9.136 -1.5093 -1.8859  0.3834
44555SOL     OW40904  11.419   6.868   8.834  0.7075 -0.3520 -0.1567
44555SOL    HW140905  11.380   6.791   8.874  0.0767  0.3732  0.6430
44555SOL    HW240906  11.372   6.879   8.751  0.0260 -0.1765  0.2513
44556SOL     OW40907   2.118   2.254   3.288  0.6174 -0.7292 -0.2094
44556SOL    HW140908   2.207   2.266   3.319  0.8811 -2.6005 -0.1318
44556SOL    HW240909   2.127   2.225   3.198 -0.0264  1.0599 -0.9064
44557SOL     OW40910   8.780   3.607   2.489  0.2887 -0.1478  0.0917
44557SOL    HW140911   8.709   3.648   2.538  0.9536  2.9220 -1.2883
44557SOL    HW240912   8.822   3.679   2.441  2.4938 -2.2701 -1.4531
44558SOL     OW40913   0.171   7.761   3.348 -0.0641  0.0167  0.3171
44558SOL    HW140914   0.160   7.830   3.414  1.3177  1.8211 -1.2029
44558SOL    HW240915   0.264   7.764   3.326  0.0059 -2.2968  0.0853
44559SOL     OW40916   5.303   8.809   5.002  0.2922 -0.7391 -0.2255
44559SOL    HW140917   5.366   8.879   4.985 -0.4932  0.5046  1.6541
44559SOL    HW240918   5.350   8.747   5.057  0.3244 -0.5384 -0.0239
44560SOL     OW40919  12.403   4.286   1.700  0.0812  0.2954 -0.6029
44560SOL    HW140920  12.330   4.344   1.679  0.2537  0.8447  0.2968
44560SOL    HW240921  12.438   4.260   1.614 -0.0175  1.4910 -1.0214
44561SOL     OW40922   2.612   6.212   1.710 -0.6461 -0.1841  0.0031
44561SOL    HW140923   2.520   6.232   1.692 -0.3258  0.5254 -0.9268
44561SOL    HW240924   2.611   6.122   1.741 -1.6968 -0.0600  0.3841
44562SOL     OW40925   5.336  10.831   0.652  0.1786 -0.0095  0.2382
44562SOL    HW140926   5.260  10.798   0.604 -0.1750 -1.4760  1.7041
44562SOL    HW240927   5.299  10.866   0.733  0.9761  0.1891  0.5181
44563SOL     OW40928   4.087  10.031   0.311  0.1288 -0.1718 -0.3361
44563SOL    HW140929   4.084   9.951   0.259  1.6124 -0.4951  0.0419
44563SOL    HW240930   4.168  10.025   0.361 -0.0412  1.2814  0.1760
44564SOL     OW40931  11.894   4.444   6.461  0.1997  0.2498  0.6119
44564SOL    HW140932  11.916   4.483   6.376 -3.6713  1.7136  0.0630
44564SOL    HW240933  11.836   4.371   6.439  2.9369 -2.5843  1.9356
44565SOL     OW40934   3.040  11.974   9.445 -0.3944 -0.0469 -0.2814
44565SOL    HW140935   3.009  12.020   9.523 -1.0397  0.9591 -1.1082
44565SOL    HW240936   3.077  12.043   9.390  1.1174 -0.8989 -0.3809
44566SOL     OW40937  10.503   0.175   6.049 -0.2994  0.1580 -0.2703
44566SOL    HW140938  10.545   0.251   6.089  1.4516 -1.0963  0.3863
44566SOL    HW240939  10.493   0.112   6.120 -2.1232 -0.1211 -0.7107
44567SOL     OW40940   0.133   0.109   0.752 -0.3485 -0.1251  0.0914
44567SOL    HW140941   0.051   0.154   0.732 -0.4528 -0.4721 -0.2794
44567SOL    HW240942   0.196   0.179   0.767 -0.1365  0.1968 -1.9436
44568SOL     OW40943   1.973   2.783   6.236 -0.2925  0.5434  0.7955
44568SOL    HW140944   1.880   2.804   6.226 -0.5065 -0.6042  0.1132
44568SOL    HW240945   2.018   2.867   6.236 -1.3116  1.0976  0.8634
44569SOL     OW40946   6.242  11.825   0.579 -0.0500 -0.4224 -0.2981
44569SOL    HW140947   6.274  11.785   0.660  1.3639  0.9053 -0.1566
44569SOL    HW240948   6.215  11.913   0.605 -2.0740 -0.8442 -0.8096
44570SOL     OW40949  12.126   2.826  11.033 -0.2100 -0.3064  0.1939
44570SOL    HW140950  12.147   2.917  11.010 -1.7953 -0.1457 -0.8376
44570SOL    HW240951  12.153   2.775  10.957 -0.2921 -0.5521  0.3292
44571SOL     OW40952   5.447   6.548   5.265 -1.0130  0.0422 -0.5275
44571SOL    HW140953   5.399   6.614   5.216 -2.9027 -1.1116 -0.3257
44571SOL    HW240954   5.418   6.464   5.228  0.1686 -0.7507  0.2301
44572SOL     OW40955   6.624  10.213  12.635 -0.0077 -0.0868 -0.2538
44572SOL    HW140956   6.624  10.138  12.576 -1.3485  0.8857 -1.5638
44572SOL    HW240957   6.603  10.177  12.721 -2.6187 -1.0232 -1.1939
44573SOL     OW40958   8.844   9.109  11.316  0.2555 -0.1555  0.1593
44573SOL    HW140959   8.769   9.161  11.344 -1.0579 -1.2935 -1.1322
44573SOL    HW240960   8.824   9.081  11.227  2.2263 -0.4948 -0.2433
44574SOL     OW40961   7.718   2.397   9.284  0.3979  0.5381 -0.2180
44574SOL    HW140962   7.796   2.345   9.306 -0.1673 -1.1137 -1.8585
44574SOL    HW240963   7.644   2.339   9.304 -0.2319  0.4137 -2.5776
44575SOL     OW40964   8.535  10.424   2.251  0.5834  0.4572  0.0710
44575SOL    HW140965   8.485  10.505   2.247 -0.3994 -0.1694 -1.0543
44575SOL    HW240966   8.594  10.428   2.175 -0.3924 -0.4350 -0.7577
44576SOL     OW40967   9.653   3.163   7.632 -0.3883 -0.4414 -0.1903
44576SOL    HW140968   9.736   3.197   7.665 -0.5411 -0.4492  0.2087
44576SOL    HW240969   9.676   3.081   7.589  0.1715  0.7253 -2.2694
44577SOL     OW40970   5.283   2.994   5.865 -0.1414  0.2627 -0.2919
44577SOL    HW140971   5.253   3.084   5.880 -1.3515 -0.1823 -0.0099
44577SOL    HW240972   5.286   2.986   5.769  1.2571  1.0007 -0.3450
44578SOL     OW40973   5.491   0.202   9.109  0.4851  0.3027 -0.0740
44578SOL    HW140974   5.415   0.157   9.145 -0.3876  1.1248 -0.8398
44578SOL    HW240975   5.512   0.270   9.173 -0.1310  0.7953 -0.3872
44579SOL     OW40976   6.347   4.909  12.659 -0.0137 -0.5187 -0.1987
44579SOL    HW140977   6.367   4.948  12.574  1.0100  0.6614  0.5476
44579SOL    HW240978   6.252   4.913  12.666  0.0526  2.5750  0.1216
44580SOL     OW40979   1.078  12.577   6.536 -0.1470 -0.4518 -0.6888
44580SOL    HW140980   1.090  12.488   6.568  0.8010  0.3244  1.2450
44580SOL    HW240981   1.009  12.569   6.469  0.6879 -2.7652 -1.3718
44581SOL     OW40982   9.570   3.992  12.310  0.5098 -0.4787  0.5106
44581SOL    HW140983   9.595   4.028  12.225 -0.6645  0.7675  0.6518
44581SOL    HW240984   9.494   4.044  12.336 -0.6376 -2.4048  1.2300
44582SOL     OW40985   4.310  11.878   5.136 -0.4415  0.3550 -0.4670
44582SOL    HW140986   4.367  11.901   5.210 -0.4951 -0.8246 -0.0309
44582SOL    HW240987   4.280  11.790   5.156 -2.9558  1.1508 -0.3598
44583SOL     OW40988  12.279  11.358   4.326 -0.1854  0.3452 -0.1693
44583SOL    HW140989  12.333  11.418   4.378  2.3347 -0.8542 -1.2176
44583SOL    HW240990  12.330  11.277   4.323 -1.7553 -0.6424 -1.8187
44584SOL     OW40991   5.517   2.366   3.918  0.1408 -0.4275  0.0787
44584SOL    HW140992   5.609   2.362   3.944  0.1672 -1.5009 -0.1504
44584SOL    HW240993   5.510   2.308   3.842 -0.9479 -1.2641  0.7789
44585SOL     OW40994   4.735   4.875   1.604  0.0701  0.0075 -0.6521
44585SOL    HW140995   4.761   4.812   1.537  1.6086  0.5726 -0.6169
44585SOL    HW240996   4.781   4.847   1.683  0.8033  1.1870 -0.6472
44586SOL     OW40997  10.025   3.918  10.754  0.0916 -0.0228  0.2656
44586SOL    HW140998   9.963   3.904  10.682  1.6658 -1.8184 -0.8367
44586SOL    HW240999  10.053   4.009  10.744  1.1090 -0.5252 -2.1435
44587SOL     OW41000   5.225   4.626   0.924 -0.3234  0.0370 -0.0395
44587SOL    HW141001   5.271   4.600   1.004  1.1916 -0.8631 -1.1410
44587SOL    HW241002   5.266   4.708   0.897  1.1631 -1.0517 -1.3317
44588SOL     OW41003  12.474  10.367   6.863  0.5419  0.0592  0.6707
44588SOL    HW141004  12.397  10.423   6.873  0.9023  0.8061 -0.5571
44588SOL    HW241005  12.538  10.402   6.926  0.4520  0.4670  0.5358
44589SOL     OW41006   5.686  10.333   6.908  0.1642 -0.0868 -0.0060
44589SOL    HW141007   5.628  10.409   6.899  0.4225  0.2887  1.3521
44589SOL    HW241008   5.682  10.310   7.001  1.2025 -0.8479 -0.1301
44590SOL     OW41009   4.157  12.354   0.287 -0.3916 -0.6044  0.4459
44590SOL    HW141010   4.067  12.378   0.312  1.0236  1.9190  3.9287
44590SOL    HW241011   4.191  12.307   0.363  1.4989 -0.8051 -0.4677
44591SOL     OW41012   0.831   3.252   1.878 -0.1606  0.0557 -0.2813
44591SOL    HW141013   0.812   3.178   1.936  0.0824  0.3650  0.1983
44591SOL    HW241014   0.825   3.329   1.935 -0.3161  0.3954 -0.7558
44592SOL     OW41015   3.998   1.245   2.647 -0.3667 -0.3383  0.1176
44592SOL    HW141016   4.072   1.199   2.607 -0.4048 -0.0560 -0.2879
44592SOL    HW241017   3.937   1.175   2.672 -0.1012 -0.5522  0.1656
44593SOL     OW41018  10.978   9.676   6.695  0.4296  0.0652  0.3013
44593SOL    HW141019  10.922   9.741   6.652 -1.1268 -0.1674  1.8731
44593SOL    HW241020  10.963   9.595   6.646 -2.2722 -0.5031  1.8386
44594SOL     OW41021   8.217   2.398   8.041 -0.0574 -0.0309  0.2553
44594SOL    HW141022   8.269   2.380   8.120  0.3711 -0.0789 -0.0322
44594SOL    HW241023   8.184   2.312   8.015 -1.5898  0.1952  1.3178
44595SOL     OW41024   8.479  12.356   8.676  0.5951 -0.2325 -0.1755
44595SOL    HW141025   8.495  12.446   8.706 -0.0846 -0.1638  0.0076
44595SOL    HW241026   8.512  12.301   8.747 -0.4386 -0.0829  0.4477
44596SOL     OW41027   7.823   3.179   2.001 -0.0470 -0.7837 -0.1101
44596SOL    HW141028   7.778   3.264   2.006  0.5504 -0.4749  0.1781
44596SOL    HW241029   7.755   3.117   1.976 -0.4359 -0.1713 -0.6055
44597SOL     OW41030   8.085   6.532  11.433 -0.2555 -0.4768 -0.4175
44597SOL    HW141031   8.028   6.608  11.425 -0.2723 -0.4004  0.3975
44597SOL    HW241032   8.025   6.458  11.448 -0.3138 -0.8277 -2.1111
44598SOL     OW41033   1.767   0.705   7.139  0.2776  0.2905  0.1852
44598SOL    HW141034   1.845   0.706   7.195  0.7042 -1.5558 -0.3161
44598SOL    HW241035   1.737   0.614   7.142 -0.0795  0.2944 -2.0476
44599SOL     OW41036  11.732   3.010   9.082 -0.2241  0.1207 -0.3867
44599SOL    HW141037  11.813   2.987   9.127 -0.7562  1.0194  1.1416
44599SOL    HW241038  11.681   2.929   9.081  0.6579 -0.4458 -1.3432
44600SOL     OW41039   2.588  11.884   7.574  0.9387 -0.5205  0.1361
44600SOL    HW141040   2.582  11.888   7.669  0.1197  0.1680  0.0657
44600SOL    HW241041   2.648  11.954   7.550  0.2995  0.0208  0.0839
44601SOL     OW41042   6.584   9.001   5.776 -0.0447 -0.1332 -0.3828
44601SOL    HW141043   6.579   9.050   5.858 -0.4750  0.6900 -0.8818
44601SOL    HW241044   6.592   8.910   5.803 -1.3926 -0.0001  0.5771
44602SOL     OW41045   9.691   3.533  10.094 -0.2460 -0.3557 -0.4217
44602SOL    HW141046   9.666   3.529  10.002  0.5684  1.4439 -0.7578
44602SOL    HW241047   9.778   3.492  10.097 -0.7043 -1.3500 -0.2490
44603SOL     OW41048  11.517   3.922   5.107  0.3290  0.6245 -0.0578
44603SOL    HW141049  11.584   3.884   5.051 -0.1590 -1.0366  0.4049
44603SOL    HW241050  11.435   3.885   5.073  0.1081 -1.3232  2.3511
44604SOL     OW41051   3.434   4.481   0.490 -0.1848  0.1252 -0.2309
44604SOL    HW141052   3.362   4.444   0.439  0.4708 -1.5661 -0.0010
44604SOL    HW241053   3.431   4.434   0.574  1.6524 -0.6086 -0.5108
44605SOL     OW41054   4.573   6.665   4.691 -0.2716  0.7487 -0.0191
44605SOL    HW141055   4.627   6.611   4.634 -0.0173  1.0685 -0.0840
44605SOL    HW241056   4.532   6.729   4.633 -1.4440 -0.0585 -0.1067
44606SOL     OW41057   2.563   8.115   3.333 -0.6028 -0.0188  0.0207
44606SOL    HW141058   2.513   8.101   3.414 -3.2297  1.1444 -1.2789
44606SOL    HW241059   2.513   8.068   3.267  0.1753  1.0075 -1.3376
44607SOL     OW41060   8.503   7.359   5.437  0.0390 -0.0984 -0.0861
44607SOL    HW141061   8.520   7.448   5.406  0.3479  0.2092  0.9216
44607SOL    HW241062   8.409   7.346   5.424  0.2620 -0.2698 -1.8098
44608SOL     OW41063   1.466  11.905  10.149 -0.2384 -0.1186 -0.0033
44608SOL    HW141064   1.528  11.854  10.201  0.9086  0.3689 -0.8395
44608SOL    HW241065   1.443  11.979  10.205  0.9988  0.4168 -0.1699
44609SOL     OW41066   3.164   5.676   8.557  0.0948 -0.2217  0.6576
44609SOL    HW141067   3.243   5.633   8.526  0.3579  0.8488 -0.2119
44609SOL    HW241068   3.099   5.660   8.487  0.2200  0.8345  0.2877
44610SOL     OW41069   0.034   7.014  11.312 -0.1944  0.2749  0.0994
44610SOL    HW141070   0.012   6.985  11.224  0.5659  0.8388 -0.2941
44610SOL    HW241071  -0.050   7.036  11.352 -0.5843 -0.4003 -0.3302
44611SOL     OW41072   2.356   6.736  12.532  0.1243  0.1803 -0.1504
44611SOL    HW141073   2.359   6.681  12.454 -0.1556 -2.3212  1.4622
44611SOL    HW241074   2.271   6.780  12.528 -0.6536 -1.2919 -0.4222
44612SOL     OW41075   9.163   0.252   9.368  0.2709 -0.6405 -1.0595
44612SOL    HW141076   9.208   0.246   9.283  1.8611  0.4785 -0.3504
44612SOL    HW241077   9.234   0.247   9.432 -0.4519  2.1648  0.0887
44613SOL     OW41078  10.619   9.453   0.038 -0.3596 -0.2758 -0.4661
44613SOL    HW141079  10.532   9.468   0.075  0.9385  1.9727  2.0038
44613SOL    HW241080  10.617   9.502  -0.045 -0.5898  2.4797  1.0342
44614SOL     OW41081   9.621  10.770   3.496 -0.6133 -0.0571  0.0681
44614SOL    HW141082   9.707  10.732   3.514  0.0063  1.5692  0.7447
44614SOL    HW241083   9.575  10.764   3.580  0.1990  2.3488  0.7569
44615SOL     OW41084   2.732   6.377   7.345 -0.4347 -0.1925 -0.3081
44615SOL    HW141085   2.644   6.371   7.308 -1.2508  2.3284  1.0463
44615SOL    HW241086   2.721   6.359   7.438  0.6710 -0.8457 -0.2809
44616SOL     OW41087   3.001   9.849   1.601  0.0245  0.0775 -0.8378
44616SOL    HW141088   2.956   9.810   1.525  0.9375 -0.6561 -1.0262
44616SOL    HW241089   3.019   9.939   1.574 -0.8284  0.2192 -0.9707
44617SOL     OW41090  11.963   5.547   5.094  0.2398  0.1172 -0.2807
44617SOL    HW141091  11.890   5.551   5.156  0.4724  0.8393 -0.0396
44617SOL    HW241092  11.953   5.462   5.051  0.7071 -0.9237  1.5395
44618SOL     OW41093   6.472   8.827  11.548  0.1503  0.2992  0.3428
44618SOL    HW141094   6.554   8.813  11.502 -1.0302 -0.6132 -1.5973
44618SOL    HW241095   6.424   8.889  11.494 -1.3610 -0.9419  0.1929
44619SOL     OW41096   2.766   1.076   5.905  0.0190  0.1964  0.6843
44619SOL    HW141097   2.856   1.107   5.907  0.2963 -0.1598 -2.2247
44619SOL    HW241098   2.773   0.981   5.914  0.2697 -0.1453 -2.2772
44620SOL     OW41099   6.062  10.378   7.140  0.4082 -0.3025 -0.0824
44620SOL    HW141100   6.060  10.470   7.114 -0.0689 -0.3872 -0.3476
44620SOL    HW241101   6.151  10.349   7.119 -0.0649 -0.4922 -2.0539
44621SOL     OW41102   5.344   5.531   0.614  0.1929  0.9703 -0.0569
44621SOL    HW141103   5.323   5.527   0.521  1.1515 -0.5565 -0.2468
44621SOL    HW241104   5.374   5.443   0.635 -1.1722  0.9384  2.0029
44622SOL     OW41105   4.224   1.025   8.197 -0.7373 -0.2605 -0.6204
44622SOL    HW141106   4.182   1.111   8.199 -1.0594 -0.4199 -0.5571
44622SOL    HW241107   4.303   1.039   8.144 -0.8089  0.0636 -0.6459
44623SOL     OW41108   9.000   8.409   2.012 -0.1796  0.1235  0.0885
44623SOL    HW141109   9.067   8.394   2.079  0.3023 -1.2857 -0.6572
44623SOL    HW241110   9.031   8.484   1.963  0.8943 -0.5312 -0.2653
44624SOL     OW41111   4.762  10.544  11.415  0.4142 -0.0112 -0.2143
44624SOL    HW141112   4.841  10.495  11.396  0.9676 -0.2270  2.2445
44624SOL    HW241113   4.704  10.481  11.458 -0.4322  0.5393 -0.5270
44625SOL     OW41114   8.106   7.495   9.366 -0.1770 -0.3711  0.4211
44625SOL    HW141115   8.163   7.543   9.305 -0.1009 -0.1880  0.6339
44625SOL    HW241116   8.094   7.410   9.325  0.6682 -0.5997  0.6220
44626SOL     OW41117  11.683   5.055   6.098  0.0894  0.3923  0.1582
44626SOL    HW141118  11.765   5.101   6.114 -0.1072  0.7518  0.1397
44626SOL    HW241119  11.628   5.078   6.172 -0.5054  1.3355 -0.5530
44627SOL     OW41120  11.214   9.606   5.684 -0.7044 -0.2352 -0.0149
44627SOL    HW141121  11.198   9.684   5.737 -1.1233 -0.5288  0.2934
44627SOL    HW241122  11.309   9.597   5.682 -0.6560  0.2639 -0.0232
44628SOL     OW41123  12.247   3.074   7.680 -0.3751  0.1189  0.0194
44628SOL    HW141124  12.181   3.100   7.744  0.3064 -2.2048  1.7755
44628SOL    HW241125  12.200   3.020   7.617 -0.0587 -2.8928  2.1456
44629SOL     OW41126  10.407   6.595   1.169  0.5056 -0.5793 -0.3191
44629SOL    HW141127  10.411   6.659   1.241 -1.0150 -0.7754 -0.0423
44629SOL    HW241128  10.447   6.641   1.095 -0.2243  0.5830 -0.0306
44630SOL     OW41129  11.909   5.684   6.814  0.0850 -0.1327  0.3873
44630SOL    HW141130  12.001   5.713   6.815  0.4561 -1.2096 -0.3413
44630SOL    HW241131  11.912   5.595   6.849 -0.9205  0.3699  1.8490
44631SOL     OW41132  10.457  10.107  11.062 -0.4594  0.5340  0.2150
44631SOL    HW141133  10.387  10.145  11.116 -1.1374  0.3747 -0.5352
44631SOL    HW241134  10.425  10.114  10.972 -0.9334 -2.3826  0.0580
44632SOL     OW41135   3.301   3.422   0.422  0.1259 -0.6604  1.1137
44632SOL    HW141136   3.273   3.331   0.428 -0.9238 -0.2785  2.6418
44632SOL    HW241137   3.335   3.431   0.333 -2.8279 -1.7360 -0.2713
44633SOL     OW41138   2.135  11.157  11.291  0.1406  0.1849  0.2587
44633SOL    HW141139   2.042  11.159  11.268 -0.4592 -1.9101  2.0903
44633SOL    HW241140   2.162  11.249  11.294 -1.6745  0.8077 -0.9278
44634SOL     OW41141   4.344  11.940   4.148 -0.5199 -0.1451 -0.6218
44634SOL    HW141142   4.307  11.873   4.206 -0.2694  0.1143 -0.1632
44634SOL    HW241143   4.320  12.023   4.188  0.0677  0.0309 -0.6281
44635SOL     OW41144   7.203   8.063   4.525 -0.2513  0.3336 -0.0266
44635SOL    HW141145   7.155   8.142   4.550 -1.5345 -0.9601  1.8406
44635SOL    HW241146   7.289   8.074   4.567 -0.1918  1.0148 -0.3092
44636SOL     OW41147   2.793  11.043   3.818  0.2165 -0.1164  0.1190
44636SOL    HW141148   2.887  11.032   3.833  0.0696  0.7820  1.9838
44636SOL    HW241149   2.752  11.017   3.901 -0.9640  1.9208  0.2460
44637SOL     OW41150  11.744   0.242   1.058  0.0453  0.6786  0.0484
44637SOL    HW141151  11.747   0.222   0.965  0.4659 -0.5681  0.3130
44637SOL    HW241152  11.783   0.329   1.065 -0.1420  0.8559 -0.9501
44638SOL     OW41153   3.337   6.746  10.798 -0.1541 -0.4060 -0.1572
44638SOL    HW141154   3.373   6.669  10.754  0.3452 -0.1019 -0.2880
44638SOL    HW241155   3.406   6.811  10.792 -0.7873  0.2400 -0.5554
44639SOL     OW41156   6.067  10.162  10.391  0.2098 -0.5333 -0.2094
44639SOL    HW141157   5.975  10.183  10.376  0.0874  0.0002  1.1289
44639SOL    HW241158   6.111  10.247  10.395  0.5625 -0.7309  0.2672
44640SOL     OW41159   1.653   8.907   2.515  0.2899  0.0469 -1.1746
44640SOL    HW141160   1.629   8.832   2.569 -0.0902  0.2624 -1.0428
44640SOL    HW241161   1.570   8.948   2.492  0.5437  1.2476 -0.0770
44641SOL     OW41162   5.397  11.069  10.622 -0.0224 -0.2638 -0.0031
44641SOL    HW141163   5.492  11.063  10.615 -0.0154 -0.4865  0.2641
44641SOL    HW241164   5.365  11.018  10.547  0.0671 -0.0084 -0.2174
44642SOL     OW41165   1.104  11.690   7.265  0.2129  0.4857 -0.0539
44642SOL    HW141166   1.193  11.718   7.287 -0.0474  0.8387  0.5618
44642SOL    HW241167   1.048  11.758   7.302 -0.2828  0.6474 -1.0867
44643SOL     OW41168   4.298   8.822   1.445  0.2871  0.0585  0.0543
44643SOL    HW141169   4.343   8.862   1.371  0.5570  0.8532  0.6391
44643SOL    HW241170   4.207   8.853   1.437  0.1962 -0.2854 -0.2436
44644SOL     OW41171   7.296   5.653  11.316 -0.3566  0.1493  0.5459
44644SOL    HW141172   7.244   5.649  11.396 -2.6036  1.5762 -0.6969
44644SOL    HW241173   7.249   5.597  11.254  0.0231  0.8369 -0.3927
44645SOL     OW41174   0.732   4.621   6.997  0.4346  0.3294  0.2213
44645SOL    HW141175   0.662   4.570   6.956 -0.8154  0.5182  2.0042
44645SOL    HW241176   0.693   4.707   7.014 -0.0133 -0.3958  3.8161
44646SOL     OW41177   9.726   8.282   6.877 -0.0808  0.2801 -0.1755
44646SOL    HW141178   9.790   8.311   6.942  0.0197  1.1135 -0.6196
44646SOL    HW241179   9.665   8.356   6.870 -0.5141 -0.1040 -0.4738
44647SOL     OW41180   7.283   2.025   9.840 -0.2421  0.6055 -0.3335
44647SOL    HW141181   7.294   1.932   9.819  0.6997  0.5339  0.4136
44647SOL    HW241182   7.223   2.058   9.773  0.1073 -0.3416 -1.1267
44648SOL     OW41183   2.493   0.641   5.090 -0.3879 -0.4354 -0.4897
44648SOL    HW141184   2.446   0.718   5.058  0.4058  1.2986  2.1865
44648SOL    HW241185   2.443   0.567   5.056 -1.4622  1.2153 -2.7827
44649SOL     OW41186   5.361  11.613  12.534 -0.1780  0.5651 -0.3514
44649SOL    HW141187   5.288  11.617  12.596  0.3376  2.5021  0.1971
44649SOL    HW241188   5.332  11.553  12.466 -0.9549 -1.2909  1.5145
44650SOL     OW41189   6.701  10.929  11.003 -0.0746  0.1477  0.2434
44650SOL    HW141190   6.609  10.956  10.998 -1.2523 -3.1659  1.3249
44650SOL    HW241191   6.730  10.925  10.912 -1.2948  0.3233 -0.1675
44651SOL     OW41192   9.490   4.219   1.471  0.0869  0.4945  0.1086
44651SOL    HW141193   9.440   4.186   1.396  1.5877 -0.8778 -0.3518
44651SOL    HW241194   9.554   4.279   1.433  0.8760 -0.2318  0.2405
44652SOL     OW41195   5.822  10.722   0.395 -0.0552  0.2567 -0.0980
44652SOL    HW141196   5.860  10.673   0.468  0.1496  0.7571  0.1366
44652SOL    HW241197   5.793  10.805   0.434  1.7452  1.3185 -0.9103
44653SOL     OW41198   2.210   7.635  11.625  0.0993  0.4345  0.2615
44653SOL    HW141199   2.155   7.714  11.624 -0.7916 -0.1827 -0.0247
44653SOL    HW241200   2.254   7.638  11.710 -1.7425  0.0278  1.2676
44654SOL     OW41201   9.118   0.721   2.435  0.1721 -0.1544 -0.5342
44654SOL    HW141202   9.143   0.644   2.486 -2.2105 -0.1142  0.8565
44654SOL    HW241203   9.198   0.773   2.430  0.8023 -0.6522  2.3820
44655SOL     OW41204  12.462  11.593   9.099 -0.1024 -0.0071  0.2467
44655SOL    HW141205  12.418  11.555   9.023  0.2792 -0.4134  0.2192
44655SOL    HW241206  12.553  11.603   9.070 -0.3558  1.7807 -0.0582
44656SOL     OW41207   3.521   9.466   4.658  0.2990  0.8972  0.5610
44656SOL    HW141208   3.542   9.459   4.565  1.9440 -0.1049  0.9550
44656SOL    HW241209   3.494   9.378   4.683  0.6023  0.9747  1.1830
44657SOL     OW41210  11.391   5.180   6.481  0.1242  0.2107  0.1819
44657SOL    HW141211  11.417   5.246   6.417 -0.2163  0.0557 -0.1223
44657SOL    HW241212  11.313   5.217   6.523  0.2110  0.2108  0.3414
44658SOL     OW41213  10.835   6.303   2.789  0.0605  0.0167  0.0928
44658SOL    HW141214  10.780   6.229   2.814  0.4337 -0.6603 -1.0614
44658SOL    HW241215  10.849   6.350   2.872 -1.6112 -0.2069  0.5470
44659SOL     OW41216   0.701   8.325  11.295 -0.3630 -0.0178  0.2608
44659SOL    HW141217   0.693   8.356  11.204 -1.7392  1.2360  0.7653
44659SOL    HW241218   0.660   8.238  11.294  0.4864 -0.4305 -0.4898
44660SOL     OW41219  11.805   1.376  10.933  0.8383 -0.6367  0.1053
44660SOL    HW141220  11.783   1.293  10.890  0.5866 -1.2213  1.3207
44660SOL    HW241221  11.727   1.430  10.921  0.0527 -1.4476  1.3663
44661SOL     OW41222  11.210   4.292   7.111  0.7360 -0.5733 -0.2537
44661SOL    HW141223  11.158   4.225   7.067  1.1558 -0.3330 -1.1338
44661SOL    HW241224  11.265   4.243   7.172 -0.4137 -0.8410  0.6086
44662SOL     OW41225   8.857   5.624   9.110 -0.3908 -0.0768  0.3032
44662SOL    HW141226   8.951   5.608   9.096 -0.5070 -0.5123 -0.0077
44662SOL    HW241227   8.821   5.538   9.130 -1.0020 -0.1947 -1.2115
44663SOL     OW41228   2.986   6.391   2.960  0.4037  1.0801  0.2268
44663SOL    HW141229   3.079   6.405   2.979  0.3235  2.0265 -0.0113
44663SOL    HW241230   2.964   6.310   3.006  1.4425  0.6169 -0.0578
44664SOL     OW41231  12.567  11.986   6.815  0.0600 -0.4273  0.3936
44664SOL    HW141232  12.636  11.998   6.750  1.1301 -0.8791  1.4039
44664SOL    HW241233  12.487  12.015   6.772  0.7644 -0.5974 -1.0617
44665SOL     OW41234   2.210  11.605  10.933 -0.7248 -0.1122  0.2450
44665SOL    HW141235   2.281  11.548  10.961  0.4652  0.9064 -0.6301
44665SOL    HW241236   2.195  11.663  11.008  0.2966  0.5513 -0.0537
44666SOL     OW41237   7.157  12.166   3.714  0.4984 -0.2041 -0.0031
44666SOL    HW141238   7.182  12.120   3.795 -0.4678 -1.2600 -0.2824
44666SOL    HW241239   7.240  12.188   3.673  0.9991 -1.1236  0.4726
44667SOL     OW41240   3.729  11.232  12.390 -0.1035  0.1768 -0.4590
44667SOL    HW141241   3.711  11.274  12.306  2.3827  1.3624 -0.4899
44667SOL    HW241242   3.644  11.229  12.434 -1.3491  0.0981 -2.7289
44668SOL     OW41243  10.613  12.405   6.077  0.0047 -0.0922 -0.2888
44668SOL    HW141244  10.547  12.383   6.011  0.4452 -0.9123 -0.4763
44668SOL    HW241245  10.592  12.348   6.151  0.3656 -0.1905 -0.2627
44669SOL     OW41246   7.899  10.605   6.761 -0.2554  0.7372 -0.1980
44669SOL    HW141247   7.899  10.698   6.784 -1.0911  0.7585 -0.2668
44669SOL    HW241248   7.909  10.604   6.666 -2.7993  0.8694 -0.5233
44670SOL     OW41249  11.340   9.494   0.286  0.5347 -0.2616 -0.4972
44670SOL    HW141250  11.378   9.561   0.343  0.9479  0.2359 -1.3419
44670SOL    HW241251  11.374   9.514   0.199 -1.6538  0.2138 -1.3121
44671SOL     OW41252   2.167   7.769  10.630 -0.1345  0.0429 -0.4391
44671SOL    HW141253   2.168   7.698  10.694 -1.7359  0.7973  0.4827
44671SOL    HW241254   2.217   7.839  10.672  0.6633 -0.2022 -0.9597
44672SOL     OW41255   9.121   2.168   7.315  0.3160  0.7904  0.2258
44672SOL    HW141256   9.155   2.149   7.402  1.3402  1.8142  0.0866
44672SOL    HW241257   9.140   2.090   7.263  0.4479  0.4962  0.7200
44673SOL     OW41258  12.051   6.654  12.409 -0.3916  0.0385  0.6232
44673SOL    HW141259  11.998   6.669  12.488 -0.0132  2.6279  0.4686
44673SOL    HW241260  12.139   6.682  12.434  0.1304 -0.8452 -0.1916
44674SOL     OW41261   1.328   0.936   8.944 -0.1276 -0.0174 -0.4000
44674SOL    HW141262   1.346   0.960   9.035  2.7354 -0.7713 -0.6689
44674SOL    HW241263   1.385   0.993   8.892 -0.9256 -0.3279 -1.6489
44675SOL     OW41264   4.775   2.973  12.037 -0.8463  0.0926  0.5713
44675SOL    HW141265   4.780   3.028  11.959  2.0322 -0.7872  0.0023
44675SOL    HW241266   4.852   2.997  12.089 -2.1562 -0.0443  2.7093
44676SOL     OW41267   8.288   5.040  11.171  0.4078 -0.8330 -0.0081
44676SOL    HW141268   8.270   5.046  11.264  1.8706 -0.5424  0.2872
44676SOL    HW241269   8.223   5.097  11.130  0.2963 -0.2744  0.9191
44677SOL     OW41270   3.563   0.670   3.101 -0.0814  0.0642 -0.5724
44677SOL    HW141271   3.649   0.711   3.104 -1.1706  2.4188  0.7278
44677SOL    HW241272   3.530   0.675   3.190 -1.9899  0.2023 -1.2346
44678SOL     OW41273   1.259   1.680   3.004  0.3230  0.1272 -0.0799
44678SOL    HW141274   1.173   1.714   2.981  0.3481  0.4149  0.2533
44678SOL    HW241275   1.310   1.686   2.923  0.3938  1.0931  0.0226
44679SOL     OW41276   5.445  11.751   6.519  0.6159 -0.5753 -0.0938
44679SOL    HW141277   5.413  11.666   6.489 -3.0441  1.2057 -1.8117
44679SOL    HW241278   5.489  11.788   6.443  1.7129 -0.6477  0.4844
44680SOL     OW41279   7.818   6.962   1.694  0.8701 -0.2425  0.3041
44680SOL    HW141280   7.880   7.010   1.749 -0.1100  0.1612  1.0871
44680SOL    HW241281   7.770   7.030   1.647  0.4223 -0.5109  0.3662
44681SOL     OW41282   0.592   9.710   0.661 -0.2509 -0.2353 -0.0292
44681SOL    HW141283   0.512   9.761   0.647  1.6379  2.2394 -2.9293
44681SOL    HW241284   0.617   9.679   0.574  3.3293  1.4330  0.2444
44682SOL     OW41285   7.621   7.919  10.313 -0.3400  0.0344 -0.3351
44682SOL    HW141286   7.664   7.956  10.236 -1.1724 -2.0833 -1.8906
44682SOL    HW241287   7.628   7.824  10.302 -1.0294 -0.3404  1.9129
44683SOL     OW41288   6.053   7.174   1.100 -0.4595  0.4450 -0.0954
44683SOL    HW141289   6.000   7.208   1.027  0.5865  1.0833 -0.5827
44683SOL    HW241290   6.032   7.231   1.173 -0.7261  0.4643 -0.1864
44684SOL     OW41291   7.790   2.602   2.821  0.6782 -0.2586  0.0828
44684SOL    HW141292   7.762   2.526   2.769 -0.5039 -0.0931  0.4331
44684SOL    HW241293   7.882   2.585   2.841  0.0003 -2.5818  1.7329
44685SOL     OW41294   3.564   7.048   9.828  0.5020  0.1160  0.0578
44685SOL    HW141295   3.589   7.137   9.804  1.8105 -0.1878  0.2079
44685SOL    HW241296   3.474   7.056   9.859  0.3687  1.2672 -0.5592
44686SOL     OW41297   1.982   1.586  11.778 -0.4843 -0.7426  0.2518
44686SOL    HW141298   2.046   1.597  11.708 -2.0310  2.0768 -0.9109
44686SOL    HW241299   2.025   1.620  11.856 -0.5230  1.2535 -0.5406
44687SOL     OW41300   1.805   9.642   1.881 -0.1450  0.3673 -0.0726
44687SOL    HW141301   1.860   9.564   1.870  0.0694  0.7961 -2.7329
44687SOL    HW241302   1.737   9.615   1.942  0.0850 -1.8259 -0.6981
44688SOL     OW41303   4.758   7.225   0.883 -0.0101  0.5152 -0.2507
44688SOL    HW141304   4.764   7.144   0.833 -0.3089  0.9173 -0.9571
44688SOL    HW241305   4.742   7.293   0.817 -1.8792  0.8701  0.5163
44689SOL     OW41306  11.702   3.725   8.361  0.2117 -0.2197  0.4330
44689SOL    HW141307  11.750   3.790   8.310 -0.3984 -0.6669 -0.7709
44689SOL    HW241308  11.700   3.648   8.305  0.0098 -0.9337  1.3964
44690SOL     OW41309   1.068   4.597   7.849  0.2912  0.1102  0.3435
44690SOL    HW141310   0.986   4.627   7.809  1.0664  0.6674 -0.9169
44690SOL    HW241311   1.098   4.527   7.791 -0.0749 -1.2208  1.6976
44691SOL     OW41312   9.473  11.558   2.723  0.2270  0.1001 -0.4558
44691SOL    HW141313   9.521  11.572   2.804  0.6076  2.0705 -0.9800
44691SOL    HW241314   9.394  11.611   2.732 -0.7646 -1.2814 -0.5676
44692SOL     OW41315   3.651  12.577   8.847  0.4007  0.0427  0.8650
44692SOL    HW141316   3.620  12.536   8.766  1.3009 -0.4338  0.7426
44692SOL    HW241317   3.718  12.639   8.818  1.8800 -1.2679  1.3293
44693SOL     OW41318   6.754  12.056   7.582 -0.1907  0.6522  0.2066
44693SOL    HW141319   6.834  12.012   7.611  1.2339  2.0002 -1.4175
44693SOL    HW241320   6.723  12.103   7.659  1.1390  0.8401  0.6585
44694SOL     OW41321  11.166   2.068   8.285  0.5845 -0.0860  0.0840
44694SOL    HW141322  11.132   2.154   8.312  1.7933  0.9639 -1.5640
44694SOL    HW241323  11.092   2.025   8.242  0.2537  0.5651 -0.0137
44695SOL     OW41324   7.664   5.054   4.941  0.1394  0.5066  0.9237
44695SOL    HW141325   7.735   5.022   4.885  0.5876  0.0666  1.7248
44695SOL    HW241326   7.586   5.052   4.885  0.1010 -2.1389  0.9344
44696SOL     OW41327  11.915  11.148   6.715 -0.3394 -0.1911 -0.1403
44696SOL    HW141328  11.894  11.076   6.773 -0.4206 -1.4132 -1.6117
44696SOL    HW241329  12.011  11.149   6.711 -0.2663 -2.6303 -2.8075
44697SOL     OW41330   5.918   7.451   5.775  0.0002  0.4096 -0.5539
44697SOL    HW141331   5.935   7.532   5.727  0.9118  1.1890  1.0102
44697SOL    HW241332   5.986   7.448   5.843 -1.3690 -0.4956  0.8536
44698SOL     OW41333   1.590   6.962   8.368 -0.2205 -0.3469 -0.3197
44698SOL    HW141334   1.574   6.878   8.410  0.6887 -0.0352  0.6865
44698SOL    HW241335   1.539   7.025   8.419  2.3965  0.3344  1.6358
44699SOL     OW41336   4.024   6.497  12.637  0.1898  0.0960 -0.2601
44699SOL    HW141337   3.943   6.546  12.637  0.5173  0.6622  1.1434
44699SOL    HW241338   4.077   6.538  12.568 -1.1517 -1.1066 -2.1067
44700SOL     OW41339   5.158   2.922   0.519  0.8447  0.0469 -0.1822
44700SOL    HW141340   5.084   2.870   0.550  1.3859 -0.5055  0.2274
44700SOL    HW241341   5.162   2.905   0.424 -0.4015  1.2072 -0.4740
44701SOL     OW41342  12.043   1.939   7.780 -0.4531 -0.2113  0.4872
44701SOL    HW141343  11.990   1.996   7.725 -0.3254 -0.5996 -0.0520
44701SOL    HW241344  12.006   1.852   7.766  0.5344 -0.5381 -0.1678
44702SOL     OW41345   7.809  12.205   3.972  0.8680  0.1539 -0.1619
44702SOL    HW141346   7.811  12.266   4.045  0.3991 -1.2892  1.1210
44702SOL    HW241347   7.894  12.162   3.974  0.2873 -1.0292  0.6084
44703SOL     OW41348   8.220   7.342  11.949  0.1055 -0.0691  0.4035
44703SOL    HW141349   8.168   7.380  12.019  1.2594  1.2511  0.5904
44703SOL    HW241350   8.203   7.248  11.954 -0.2083  0.0562  2.1301
44704SOL     OW41351   5.132   5.917   0.873  0.7157  0.2979  0.3430
44704SOL    HW141352   5.133   5.862   0.794 -1.5033 -0.4399  0.7431
44704SOL    HW241353   5.094   6.000   0.843  1.9178  0.8130  0.2110
44705SOL     OW41354   0.212   8.054   3.116 -0.1757 -0.4710  0.4515
44705SOL    HW141355   0.171   8.017   3.195  0.1610 -2.2052 -0.1397
44705SOL    HW241356   0.270   8.122   3.149  1.0860 -2.1479  1.8952
44706SOL     OW41357  10.332  11.176   0.193  0.0898  0.3450  0.3136
44706SOL    HW141358  10.392  11.238   0.234  0.8216 -0.7500  0.9409
44706SOL    HW241359  10.257  11.172   0.253  0.8424 -0.7173  1.2086
44707SOL     OW41360   4.301   2.608   8.104 -0.5655 -0.6193  0.7313
44707SOL    HW141361   4.293   2.625   8.011 -0.6916 -2.6587  0.3293
44707SOL    HW241362   4.307   2.695   8.144 -1.1854  0.3023 -1.0922
44708SOL     OW41363   0.788   3.671   0.099  0.2403 -0.4881 -0.2963
44708SOL    HW141364   0.786   3.594   0.154  1.6855  0.1372  0.6998
44708SOL    HW241365   0.848   3.731   0.143 -1.2245  1.4368 -0.7462
44709SOL     OW41366   2.743   2.098  11.899 -0.4773 -0.3942  0.2449
44709SOL    HW141367   2.720   2.182  11.860  0.2030 -0.7548 -0.9955
44709SOL    HW241368   2.731   2.034  11.828  1.1279 -1.0323  0.4937
44710SOL     OW41369   3.412  12.569  11.024  0.4900  0.2117 -0.3001
44710SOL    HW141370   3.480  12.636  11.020 -0.3665  1.0740 -0.8549
44710SOL    HW241371   3.460  12.487  11.018  1.6023  0.7377  0.7898
44711SOL     OW41372   9.487   4.077   7.071  0.2124  0.4554  0.0549
44711SOL    HW141373   9.548   4.085   6.997  1.5659 -1.0419  0.9404
44711SOL    HW241374   9.540   4.041   7.142 -1.2810  0.9488  1.4781
44712SOL     OW41375   8.379   2.972   9.105 -0.2883  0.3874  0.6657
44712SOL    HW141376   8.465   2.995   9.142 -0.4551  1.6269  0.3055
44712SOL    HW241377   8.341   3.055   9.079 -1.0134 -0.2822 -0.4948
44713SOL     OW41378   2.633   1.468   6.287 -0.1759  0.0465  0.1815
44713SOL    HW141379   2.605   1.520   6.363  1.9835  0.4241  0.7811
44713SOL    HW241380   2.624   1.377   6.316 -0.9227  0.1347  0.2667
44714SOL     OW41381   8.386   2.998  10.927 -0.1059  0.1650  0.0230
44714SOL    HW141382   8.304   3.034  10.963  0.0858 -1.2641  2.0602
44714SOL    HW241383   8.372   2.903  10.927  0.9483 -0.0080 -1.2329
44715SOL     OW41384   5.920   8.799  10.258 -0.4706 -0.1556 -0.7192
44715SOL    HW141385   6.001   8.845  10.236  1.5567 -1.8638  2.4168
44715SOL    HW241386   5.905   8.820  10.350 -4.2468  0.8305 -1.3900
44716SOL     OW41387   7.407   3.478  11.422  0.0453  0.3394 -0.4941
44716SOL    HW141388   7.385   3.419  11.350 -0.3231  1.1969 -1.1057
44716SOL    HW241389   7.415   3.421  11.498  1.1350 -0.6832 -1.3327
44717SOL     OW41390   6.677   3.981  12.529  0.6894  0.5001  0.0153
44717SOL    HW141391   6.626   4.038  12.587  0.5006 -0.6540  1.0131
44717SOL    HW241392   6.761   3.969  12.573  0.3984 -0.7178  0.2855
44718SOL     OW41393  11.933   5.486  12.421 -0.2569 -0.3074 -0.2780
44718SOL    HW141394  11.942   5.393  12.442  0.7419 -0.4619 -1.2889
44718SOL    HW241395  11.920   5.529  12.505  1.8767 -1.0896  0.5198
44719SOL     OW41396   4.896   2.713   9.908 -0.2507 -0.3533 -0.8044
44719SOL    HW141397   4.819   2.693   9.855 -1.4091 -0.1262  0.7367
44719SOL    HW241398   4.882   2.802   9.939  0.7479 -0.2230 -0.6681
44720SOL     OW41399   4.531   6.898  11.541  0.1258 -0.2080 -0.6156
44720SOL    HW141400   4.482   6.981  11.544  1.0031  0.3279 -0.5800
44720SOL    HW241401   4.464   6.831  11.525 -0.5215  0.5894 -1.4097
44721SOL     OW41402   6.724   8.669  10.529  0.5531  0.2585 -0.1678
44721SOL    HW141403   6.790   8.738  10.531  0.9174 -0.0919  1.0889
44721SOL    HW241404   6.760   8.604  10.468  1.7072 -0.2120  0.9556
44722SOL     OW41405   1.708   8.319  11.983  0.2512 -0.1972  0.3475
44722SOL    HW141406   1.694   8.348  12.073  0.2546 -0.5542  0.4625
44722SOL    HW241407   1.637   8.257  11.966 -1.1250  1.5277 -0.6542
44723SOL     OW41408   6.401   7.113   2.789  0.0990  0.8062 -0.8631
44723SOL    HW141409   6.308   7.117   2.807  0.1365  0.8709 -0.6869
44723SOL    HW241410   6.407   7.075   2.701 -0.0306 -1.3307 -0.0270
44724SOL     OW41411   3.751   0.180   6.061  0.0116 -0.2418  0.4413
44724SOL    HW141412   3.784   0.092   6.044  0.9270  0.1913 -0.1478
44724SOL    HW241413   3.670   0.185   6.010  0.5344 -0.3844 -0.4301
44725SOL     OW41414   9.051   0.109  10.859 -0.3754 -0.1219 -0.1489
44725SOL    HW141415   9.104   0.104  10.938 -1.1730  0.9675  0.4781
44725SOL    HW241416   8.975   0.055  10.878 -1.1634  1.1203  0.3316
44726SOL     OW41417   8.354   9.255   4.926  0.0690  0.8774  0.5311
44726SOL    HW141418   8.381   9.260   4.834 -0.0926  2.0091  0.5293
44726SOL    HW241419   8.272   9.303   4.929  0.8301  2.1622  1.5450
44727SOL     OW41420  10.492   1.875   8.843  0.0334 -0.5655 -0.4202
44727SOL    HW141421  10.584   1.893   8.824 -0.2158 -0.1789 -1.3498
44727SOL    HW241422  10.494   1.810   8.913  1.0089 -0.4064 -0.2882
44728SOL     OW41423  12.367   8.975   1.695 -0.0709 -0.0756  0.2629
44728SOL    HW141424  12.295   9.031   1.667 -1.7362 -1.4423  1.5851
44728SOL    HW241425  12.351   8.960   1.788  0.3446 -2.5936  0.0039
44729SOL     OW41426  11.841   5.923   2.675 -0.6635 -0.1446 -0.2069
44729SOL    HW141427  11.937   5.922   2.673 -0.6029  1.8824 -0.4949
44729SOL    HW241428  11.816   5.972   2.596 -1.7416  2.7798  1.7672
44730SOL     OW41429   9.668   8.840   9.215  0.1279 -0.1409 -1.1980
44730SOL    HW141430   9.670   8.935   9.205 -2.6508 -0.0252 -1.3765
44730SOL    HW241431   9.699   8.824   9.304 -0.5685  1.0489 -0.7279
44731SOL     OW41432   6.606   1.574   6.806 -0.1940 -0.4110 -0.3414
44731SOL    HW141433   6.655   1.643   6.762 -0.4455  0.5760  0.8790
44731SOL    HW241434   6.661   1.550   6.881  1.2338 -3.5191 -2.1680
44732SOL     OW41435   7.353   8.166   0.095  0.2713 -0.4715  0.5027
44732SOL    HW141436   7.404   8.232   0.048 -1.9208  0.4861 -0.6710
44732SOL    HW241437   7.323   8.211   0.174 -1.4272  0.0947 -0.4156
44733SOL     OW41438  12.509   4.222   5.889 -0.1866 -0.0169 -0.0081
44733SOL    HW141439  12.446   4.204   5.819 -0.4173 -0.0165  0.1988
44733SOL    HW241440  12.585   4.258   5.844 -0.5109  0.4216 -0.2088
44734SOL     OW41441   3.107   8.995   3.963 -0.3192  0.0476  0.5177
44734SOL    HW141442   3.121   8.966   3.873 -1.1330  0.4021  0.2698
44734SOL    HW241443   3.141   8.922   4.017 -2.2541 -1.3784 -0.0876
44735SOL     OW41444   3.722  10.805  10.350 -0.4611  0.5878 -0.3241
44735SOL    HW141445   3.683  10.730  10.304 -1.5079  0.8271  0.1271
44735SOL    HW241446   3.716  10.877  10.287 -0.2440  0.4886 -0.4563
44736SOL     OW41447   9.984   5.911   8.045  0.3114  0.0515  0.8280
44736SOL    HW141448  10.075   5.942   8.044  0.6004 -0.7909  0.6656
44736SOL    HW241449   9.987   5.831   8.096 -0.4015  0.1755  1.0703
44737SOL     OW41450   1.067   8.136   4.971  0.1853 -0.2596  0.0411
44737SOL    HW141451   1.078   8.042   4.987  1.1651 -0.0640  0.6226
44737SOL    HW241452   1.131   8.156   4.902 -1.1352 -0.2977 -1.2579
44738SOL     OW41453   3.303  10.231  12.320 -0.4058 -0.3551 -0.4592
44738SOL    HW141454   3.316  10.303  12.258 -0.3105  1.2523  1.3448
44738SOL    HW241455   3.234  10.261  12.379  0.3440 -1.3052  0.9641
44739SOL     OW41456   5.550   7.360   4.791 -0.5722 -0.6257  0.2776
44739SOL    HW141457   5.607   7.334   4.719 -0.1356 -1.0658  0.7746
44739SOL    HW241458   5.512   7.278   4.823 -2.2620 -0.2743 -0.6561
44740SOL     OW41459   5.529  10.894   8.747 -0.7408 -0.1498  0.1546
44740SOL    HW141460   5.571  10.839   8.814 -0.2860 -0.7371 -0.5921
44740SOL    HW241461   5.563  10.860   8.664 -1.6582  0.2574 -0.3995
44741SOL     OW41462   1.108   4.610  12.002 -0.4510  0.2012  0.4957
44741SOL    HW141463   1.027   4.574  12.038 -0.6824  0.3451  0.1255
44741SOL    HW241464   1.166   4.534  11.993  0.4301  0.4484  3.2346
44742SOL     OW41465   8.573   7.997   5.381 -0.1949  0.2082  0.1469
44742SOL    HW141466   8.502   8.005   5.445  0.7700 -0.1698  1.2945
44742SOL    HW241467   8.538   7.939   5.313 -1.8169  1.8715 -0.5413
44743SOL     OW41468   9.182  10.358  11.458 -0.0352  0.2867  0.4830
44743SOL    HW141469   9.198  10.268  11.485  0.5891  0.3600  0.3515
44743SOL    HW241470   9.205  10.361  11.365 -1.3713  0.2466  0.1221
44744SOL     OW41471   9.915   2.402  12.024 -0.3675 -0.3348  0.2076
44744SOL    HW141472   9.910   2.370  11.934 -0.4018  1.0506 -0.3052
44744SOL    HW241473   9.931   2.323  12.077 -0.0608 -1.1266 -1.0287
44745SOL     OW41474   1.976   8.234   2.994 -0.4219  0.2879 -0.3220
44745SOL    HW141475   1.881   8.243   2.983 -0.5951 -1.2358 -0.3290
44745SOL    HW241476   2.009   8.324   2.997 -1.8425  0.8371 -0.4994
44746SOL     OW41477   8.165   0.292   8.651  0.6815 -0.5194 -0.6882
44746SOL    HW141478   8.224   0.330   8.586  0.6479  0.4705 -0.1654
44746SOL    HW241479   8.105   0.237   8.600 -0.2854  1.3930 -1.7015
44747SOL     OW41480   1.403   2.604  12.017 -0.2235  0.1474 -0.3150
44747SOL    HW141481   1.368   2.622  12.104 -1.1892  0.4337 -0.7518
44747SOL    HW241482   1.481   2.659  12.010  0.7738 -1.0290  0.9434
44748SOL     OW41483   9.862  11.819  11.826  0.0469 -0.0305  0.5793
44748SOL    HW141484   9.940  11.874  11.823  0.3112 -0.4247  0.1292
44748SOL    HW241485   9.871  11.760  11.752 -0.0323 -0.9566  1.2905
44749SOL     OW41486   0.705   5.844   5.171 -0.2442  0.4195  0.0668
44749SOL    HW141487   0.707   5.939   5.154  1.3955  0.4653  0.3242
44749SOL    HW241488   0.700   5.805   5.084  0.1828  0.7406 -0.1072
44750SOL     OW41489   9.985   6.823   2.590  0.2332  0.1352 -0.2196
44750SOL    HW141490  10.059   6.800   2.646 -0.5393 -0.1078  0.7294
44750SOL    HW241491  10.002   6.777   2.508  1.3131  0.3739 -0.1419
44751SOL     OW41492   7.488   9.787  10.837 -0.6304 -0.1850 -0.0559
44751SOL    HW141493   7.545   9.814  10.765 -0.8062 -0.9680 -0.4852
44751SOL    HW241494   7.497   9.858  10.901  0.2974  0.0385 -0.4114
44752SOL     OW41495   1.326   3.656   3.306 -0.0025  0.2251 -0.4935
44752SOL    HW141496   1.358   3.670   3.217 -0.7027  0.7268 -0.6741
44752SOL    HW241497   1.321   3.561   3.315  0.3423  0.1675 -0.8936
44753SOL     OW41498   3.164   5.544   0.401  0.4241  0.0539 -0.1035
44753SOL    HW141499   3.199   5.574   0.317 -0.0323  0.2880 -0.2149
44753SOL    HW241500   3.071   5.529   0.384  0.7916 -2.4770 -0.3483
44754SOL     OW41501   9.832  10.191  11.213  0.2417  0.5501  0.2387
44754SOL    HW141502   9.767  10.173  11.145 -1.8954  0.4889  2.1315
44754SOL    HW241503   9.788  10.253  11.271  1.8399  0.3798  1.7137
44755SOL     OW41504   6.409   7.069  10.941  0.0993  0.4167 -0.2528
44755SOL    HW141505   6.421   6.992  10.996  1.6050  1.5875  1.1557
44755SOL    HW241506   6.456   7.049  10.861  2.4274  0.6449  0.9579
44756SOL     OW41507   3.483  10.863   6.214  0.2803 -0.4419  0.3232
44756SOL    HW141508   3.449  10.817   6.291 -1.9464  0.8233  0.1767
44756SOL    HW241509   3.576  10.840   6.212  0.0540 -1.8498  2.4081
44757SOL     OW41510   8.519   7.125  11.707  0.1600 -0.8864  0.0200
44757SOL    HW141511   8.538   7.216  11.687  0.8673 -1.2035 -0.7834
44757SOL    HW241512   8.581   7.102  11.776 -0.5675 -0.5403  0.8170
44758SOL     OW41513   0.426   8.461   8.475 -0.1572  0.1398  0.4511
44758SOL    HW141514   0.416   8.556   8.470  0.1414  0.1481 -0.0403
44758SOL    HW241515   0.357   8.427   8.419 -0.6273  0.0473  1.0833
44759SOL     OW41516   8.689  12.679  10.357 -0.4217 -0.6219  0.0916
44759SOL    HW141517   8.599  12.675  10.323 -0.6091  0.3709  0.4466
44759SOL    HW241518   8.744  12.659  10.281 -0.9396 -1.7797 -0.0126
44760SOL     OW41519   1.579   3.407   0.511  0.2418  0.6574 -0.2194
44760SOL    HW141520   1.624   3.464   0.574 -0.1015  1.4563 -0.6855
44760SOL    HW241521   1.487   3.436   0.514 -0.0954 -0.3870  0.0941
44761SOL     OW41522   9.660   2.139   3.016 -0.1050 -0.0854 -0.3115
44761SOL    HW141523   9.619   2.182   2.941 -0.6641 -1.6623 -0.9477
44761SOL    HW241524   9.749   2.119   2.987  0.3105  1.0062  0.1498
44762SOL     OW41525   6.101   3.551   2.823  0.4182 -0.0503 -0.6560
44762SOL    HW141526   6.088   3.565   2.916  0.3936 -0.2169 -0.6338
44762SOL    HW241527   6.012   3.549   2.786  0.3423 -1.5406 -0.4527
44763SOL     OW41528   5.694  10.875   7.895  0.0683  0.0593  0.2484
44763SOL    HW141529   5.713  10.968   7.882 -2.2042  0.4551 -0.8347
44763SOL    HW241530   5.629  10.873   7.966  1.3886 -0.8930  1.4949
44764SOL     OW41531   6.593   1.048  10.805  0.5298  0.2943 -0.3488
44764SOL    HW141532   6.541   0.968  10.815  3.6345 -1.8133  0.2344
44764SOL    HW241533   6.633   1.040  10.719  2.4699  0.1317  0.5246
44765SOL     OW41534   5.057   3.078   1.383  0.0957  0.3630 -0.1739
44765SOL    HW141535   5.144   3.043   1.401  0.0563 -1.1035 -2.4004
44765SOL    HW241536   5.002   3.047   1.455  0.4752 -2.6782 -1.0829
44766SOL     OW41537  12.531   4.400   5.120  0.1870  0.0629 -0.0095
44766SOL    HW141538  12.515   4.484   5.078 -0.2576  0.7609  1.4820
44766SOL    HW241539  12.459   4.344   5.090  0.0440  0.4505 -0.4035
44767SOL     OW41540  12.557   4.780   0.931  0.3579 -0.0061 -0.0561
44767SOL    HW141541  12.651   4.770   0.948  0.3832 -0.1423 -0.2702
44767SOL    HW241542  12.515   4.720   0.993  0.4011  0.2136  0.1855
44768SOL     OW41543   7.499   2.877   3.497  0.3058 -0.2581  0.0191
44768SOL    HW141544   7.408   2.904   3.483  0.1670 -0.3179  0.7459
44768SOL    HW241545   7.493   2.800   3.553  0.7840 -0.6320 -0.4341
44769SOL     OW41546   6.456  10.366   1.589 -0.6164 -0.0575 -0.3720
44769SOL    HW141547   6.518  10.368   1.662 -1.5720 -0.3177  0.4878
44769SOL    HW241548   6.497  10.311   1.523 -0.2754 -0.8940  0.5145
44770SOL     OW41549   7.514   0.055  10.153  0.3286 -0.2937 -0.4260
44770SOL    HW141550   7.565   0.054  10.234 -1.6733 -0.1678  0.8910
44770SOL    HW241551   7.550  -0.017  10.102  1.4009 -0.5992  0.6979
44771SOL     OW41552   1.288   3.170   5.512  0.1691 -0.4123 -0.6555
44771SOL    HW141553   1.265   3.245   5.456 -0.6959 -0.1598  0.0150
44771SOL    HW241554   1.377   3.189   5.542  0.0095  0.2960 -0.6071
44772SOL     OW41555   1.160   2.881   7.832  0.3385 -0.1605  0.1939
44772SOL    HW141556   1.233   2.898   7.772 -0.2132  0.6708 -0.2616
44772SOL    HW241557   1.192   2.812   7.889  1.3789 -0.0172 -0.1890
44773SOL     OW41558  11.359   4.136   1.346 -0.3731  0.0875  0.0908
44773SOL    HW141559  11.384   4.047   1.321  0.2806 -0.1773  1.5405
44773SOL    HW241560  11.276   4.125   1.392 -0.4512  0.2712 -0.0092
44774SOL     OW41561   8.511   0.511   5.629 -0.7374 -0.2915  0.0646
44774SOL    HW141562   8.435   0.537   5.681 -0.4266  0.5991  0.0861
44774SOL    HW241563   8.478   0.444   5.570 -0.9604 -1.8287  1.8330
44775SOL     OW41564   7.136   3.527   2.493  0.3514  0.3091  0.2289
44775SOL    HW141565   7.063   3.502   2.550  0.7830  0.0336  0.6727
44775SOL    HW241566   7.094   3.569   2.418 -0.1614  1.7878  1.3087
44776SOL     OW41567   4.455   5.776   5.300  0.3604  0.0823 -0.1655
44776SOL    HW141568   4.481   5.804   5.212 -0.1972 -1.8423 -0.9976
44776SOL    HW241569   4.525   5.810   5.357  1.4449  0.2304 -1.5091
44777SOL     OW41570   3.417   3.430   7.106 -0.5475 -0.0616 -0.5696
44777SOL    HW141571   3.419   3.517   7.146 -0.2009 -0.9429  1.5097
44777SOL    HW241572   3.465   3.439   7.024 -0.5461  1.7024 -0.4051
44778SOL     OW41573   6.463   8.322   6.896  0.0488 -0.1888  0.4655
44778SOL    HW141574   6.409   8.401   6.903  3.3641  2.3357  0.2590
44778SOL    HW241575   6.463   8.302   6.802 -1.3491 -0.8879  0.6023
44779SOL     OW41576   2.695   3.736  10.114 -0.3156  0.2283 -0.1679
44779SOL    HW141577   2.728   3.673  10.050 -0.5114  0.4711 -0.5139
44779SOL    HW241578   2.699   3.690  10.198 -0.4147 -0.2308 -0.4109
44780SOL     OW41579   2.185   3.687   4.983  0.0929  0.3224 -0.0149
44780SOL    HW141580   2.275   3.699   5.014  0.2632  0.3804 -0.5112
44780SOL    HW241581   2.142   3.771   4.999 -0.1668 -0.0216  1.1483
44781SOL     OW41582   7.729  11.300   3.610 -0.3287 -0.2664  0.1516
44781SOL    HW141583   7.760  11.391   3.605 -0.6339 -0.1702 -0.0028
44781SOL    HW241584   7.664  11.301   3.681  0.5753 -0.6298  1.0183
44782SOL     OW41585   2.650  11.116  10.709 -0.3134 -0.1172 -0.0279
44782SOL    HW141586   2.567  11.068  10.712  0.0930 -0.8277  0.1347
44782SOL    HW241587   2.688  11.092  10.625 -0.7339  1.0168 -0.5605
44783SOL     OW41588   7.247   1.921   5.284 -0.2149  0.3300  0.7171
44783SOL    HW141589   7.157   1.905   5.257 -0.5113  2.2055  0.4612
44783SOL    HW241590   7.290   1.836   5.276 -1.5964 -0.2939 -0.5290
44784SOL     OW41591   7.896   8.831   1.129 -0.4888 -0.1541  0.1740
44784SOL    HW141592   7.990   8.817   1.136 -0.1309  0.1617 -2.7527
44784SOL    HW241593   7.861   8.807   1.215  2.3341  0.6439  1.6673
44785SOL     OW41594   3.101   6.484  10.542 -0.3927  0.3153 -0.4720
44785SOL    HW141595   3.067   6.425  10.610 -0.5406  0.9252 -0.0091
44785SOL    HW241596   3.195   6.468  10.542 -0.6067 -1.2512 -1.6328
44786SOL     OW41597   6.743  10.471   3.543  0.3900  0.2327 -0.3026
44786SOL    HW141598   6.834  10.497   3.532  1.2562 -1.3375  2.2604
44786SOL    HW241599   6.747  10.376   3.557 -1.3960  0.3616  1.5700
44787SOL     OW41600   6.090   4.962   9.048 -0.0104 -0.0908  0.2873
44787SOL    HW141601   6.018   4.960   8.986  0.3234  0.0103 -0.1101
44787SOL    HW241602   6.100   5.054   9.071 -0.0608 -0.1138  0.3967
44788SOL     OW41603  10.937   6.011   1.187 -0.0819  0.5611  0.5699
44788SOL    HW141604  10.983   6.081   1.233  1.3833 -1.0446  1.6596
44788SOL    HW241605  10.929   6.043   1.097  2.7457  1.1554  0.4311
44789SOL     OW41606   1.728  12.083   2.739 -0.1501  0.3807 -0.1540
44789SOL    HW141607   1.713  12.135   2.818  3.0946 -0.8298  1.4627
44789SOL    HW241608   1.700  11.995   2.763  0.6313  0.0542 -0.3929
44790SOL     OW41609   2.397  11.264   4.222 -0.0845  0.5126  0.6940
44790SOL    HW141610   2.403  11.359   4.218  2.1011  0.4884  2.0216
44790SOL    HW241611   2.401  11.243   4.315 -0.6512 -0.8960  0.4317
44791SOL     OW41612  11.444   8.710   8.392 -0.0360  0.3497 -0.4775
44791SOL    HW141613  11.430   8.805   8.391  0.2610  0.4665  1.8222
44791SOL    HW241614  11.488   8.692   8.309  0.8763  2.4088 -0.5085
44792SOL     OW41615   8.168   0.196   4.141  0.0604  0.4003 -0.5296
44792SOL    HW141616   8.074   0.179   4.133  0.7784 -4.5336 -2.3218
44792SOL    HW241617   8.189   0.175   4.232 -0.6040  2.8223  0.2615
44793SOL     OW41618  10.092   2.738  10.829  0.6364  0.0052 -0.0849
44793SOL    HW141619  10.105   2.733  10.735  2.0879 -2.4035  0.1618
44793SOL    HW241620  10.172   2.701  10.867 -0.3753 -0.1810  2.0564
44794SOL     OW41621   0.331   4.902  11.570 -0.1473  0.2219  0.4649
44794SOL    HW141622   0.375   4.967  11.626  1.7616 -0.3612 -0.2775
44794SOL    HW241623   0.367   4.918  11.483  1.1543 -2.4393  0.4330
44795SOL     OW41624   4.440   7.127   1.545 -0.0471  0.4110  0.4854
44795SOL    HW141625   4.495   7.069   1.491  0.1709  2.9851 -2.3044
44795SOL    HW241626   4.376   7.164   1.484 -1.9420  1.0728  2.7163
44796SOL     OW41627   1.371   1.248  10.019 -0.2320  0.4722 -0.2764
44796SOL    HW141628   1.304   1.245   9.951 -0.3616  1.2025 -0.1886
44796SOL    HW241629   1.454   1.242   9.971 -0.3449 -0.1427 -0.4059
44797SOL     OW41630   9.819   8.947   9.773 -0.6457 -0.1587  0.5260
44797SOL    HW141631   9.753   9.005   9.811 -0.5630 -0.8755  1.8411
44797SOL    HW241632   9.859   8.903   9.849  2.4649  1.4065 -0.0403
44798SOL     OW41633   7.953   0.444   2.443 -0.3202  1.0454  0.2121
44798SOL    HW141634   7.884   0.405   2.389 -0.6935  2.6352 -0.5320
44798SOL    HW241635   8.023   0.380   2.443 -1.2297  0.0199 -0.2433
44799SOL     OW41636   9.415   8.631   6.506  0.1196 -0.3117 -0.2613
44799SOL    HW141637   9.457   8.546   6.517  0.5805 -0.1749 -0.9019
44799SOL    HW241638   9.322   8.611   6.498  0.2955 -0.8368 -1.1775
44800SOL     OW41639   5.714   5.782  11.394 -0.1563 -0.2364 -0.1126
44800SOL    HW141640   5.767   5.804  11.317  0.8423  2.2996  1.1887
44800SOL    HW241641   5.779   5.758  11.460 -0.9062 -0.7601  0.4458
44801SOL     OW41642   8.727   7.488   1.822 -0.1676 -0.2706  0.2031
44801SOL    HW141643   8.660   7.556   1.830  0.2504  0.3588 -1.1596
44801SOL    HW241644   8.741   7.456   1.911 -1.6912  0.1423  0.6204
44802SOL     OW41645   4.419   0.687   2.183 -0.1705 -0.0956  0.1448
44802SOL    HW141646   4.510   0.679   2.153 -0.2897 -0.5879 -0.0962
44802SOL    HW241647   4.411   0.778   2.211  0.0356  0.2800 -0.9931
44803SOL     OW41648   4.440   5.047  10.662 -0.4271 -0.4747  0.1191
44803SOL    HW141649   4.370   5.111  10.664 -0.3239 -0.3385 -0.4943
44803SOL    HW241650   4.474   5.050  10.573  3.0554  2.3632  1.3158
44804SOL     OW41651  10.029  10.122   6.262  0.0851 -0.1432  0.1656
44804SOL    HW141652  10.014  10.074   6.343 -1.0234  0.2915  0.2362
44804SOL    HW241653  10.084  10.064   6.209  0.1342 -0.7779  0.9054
44805SOL     OW41654  10.165   9.536  11.493 -0.2775 -0.2370 -0.9754
44805SOL    HW141655  10.119   9.556  11.574 -0.5407 -2.0115 -0.6427
44805SOL    HW241656  10.258   9.536  11.518 -0.1807  1.3842 -1.2063
44806SOL     OW41657   3.561   5.875   8.570  0.0771  0.2053  0.0907
44806SOL    HW141658   3.603   5.871   8.655 -1.5286 -1.3516  0.8889
44806SOL    HW241659   3.483   5.929   8.583  0.4261  0.9328 -0.7088
44807SOL     OW41660  12.686   6.695  11.828 -0.0447 -0.1043 -0.2064
44807SOL    HW141661  12.740   6.624  11.864 -0.5809  0.2675  1.4010
44807SOL    HW241662  12.600   6.654  11.813  0.0825 -0.1730 -0.7664
44808SOL     OW41663   7.086   7.563   3.896  0.5326 -0.9724 -0.3472
44808SOL    HW141664   7.100   7.592   3.806  0.2432  0.0309 -0.0771
44808SOL    HW241665   7.173   7.569   3.937  0.0229  2.3101  0.4816
44809SOL     OW41666   1.200   9.687  10.403 -0.4756  0.3774  0.1675
44809SOL    HW141667   1.165   9.599  10.414 -0.5199  0.3212 -0.4146
44809SOL    HW241668   1.295   9.676  10.405 -0.4508  0.5773  2.1185
44810SOL     OW41669   9.352   8.529   3.786 -0.2149 -0.1625  0.1686
44810SOL    HW141670   9.257   8.544   3.788 -0.4334 -1.5223  0.4698
44810SOL    HW241671   9.373   8.502   3.875 -0.0130 -2.5743 -0.5656
44811SOL     OW41672   4.174   8.044   8.499  0.4418  0.1842  0.2453
44811SOL    HW141673   4.214   7.978   8.556 -0.2579 -0.6757 -0.2333
44811SOL    HW241674   4.081   8.041   8.521 -0.1949 -1.5885 -2.2632
44812SOL     OW41675   4.422   4.176   9.695  0.1730  0.5297  0.7960
44812SOL    HW141676   4.499   4.162   9.750  1.2330 -0.1185 -0.7894
44812SOL    HW241677   4.448   4.245   9.635  0.4610 -1.3309 -1.3483
44813SOL     OW41678   0.864  12.584   1.481 -0.2285  0.3906  0.1588
44813SOL    HW141679   0.838  12.499   1.517  0.1084 -0.1245 -0.7913
44813SOL    HW241680   0.893  12.634   1.558  1.0501 -0.8888  0.5532
44814SOL     OW41681   2.613   8.862  11.757 -0.2400 -0.2027  0.2661
44814SOL    HW141682   2.693   8.890  11.799 -0.2572 -0.6173  0.5802
44814SOL    HW241683   2.544   8.876  11.822 -0.1380 -1.7087  0.7361
44815SOL     OW41684   2.513  12.383   2.430  0.3498 -0.1492  0.1956
44815SOL    HW141685   2.482  12.337   2.508  0.1430  0.8066  0.6934
44815SOL    HW241686   2.531  12.472   2.461  0.3992  0.1991 -0.8198
44816SOL     OW41687   9.428   0.542  10.087  0.0695  0.0551  0.6031
44816SOL    HW141688   9.474   0.605  10.142 -0.7737 -1.3952  3.1564
44816SOL    HW241689   9.362   0.594  10.041 -0.9011  1.0314  2.9679
44817SOL     OW41690   0.630   6.927   0.581  0.6036  0.0255  0.1462
44817SOL    HW141691   0.662   7.016   0.597 -1.9984  1.3097 -1.1102
44817SOL    HW241692   0.542   6.925   0.619 -1.1619 -0.4794 -3.4551
44818SOL     OW41693   3.947  10.622   3.538  0.3547  0.3817  0.6392
44818SOL    HW141694   3.911  10.671   3.612  1.3639 -0.2139  1.5511
44818SOL    HW241695   4.007  10.559   3.578  1.4968  0.5424 -0.7483
44819SOL     OW41696   4.268   5.020  12.199 -0.4178  0.1949  0.3155
44819SOL    HW141697   4.221   5.102  12.184  0.0822  0.2179 -1.3272
44819SOL    HW241698   4.212   4.953  12.161  0.8369  0.2368 -1.7772
44820SOL     OW41699   7.032   7.798   8.395  0.1945  0.0491  0.3065
44820SOL    HW141700   7.028   7.735   8.324  0.1588  0.9196 -0.4888
44820SOL    HW241701   7.041   7.883   8.351  0.0070  0.6189  1.3343
44821SOL     OW41702   4.611   9.791   3.215  0.0507  0.8945 -0.9382
44821SOL    HW141703   4.582   9.870   3.168 -0.9847  0.0407 -1.7898
44821SOL    HW241704   4.647   9.734   3.147  1.4949  0.9216 -0.2203
44822SOL     OW41705   9.843   5.491   1.719  0.1483  0.2840  0.0832
44822SOL    HW141706   9.872   5.409   1.759 -0.0012  0.6543  0.9911
44822SOL    HW241707   9.794   5.464   1.642 -1.4046 -0.5943  1.3029
44823SOL     OW41708   1.126   8.099   8.227 -0.4400  0.0639 -0.1343
44823SOL    HW141709   1.206   8.137   8.263  1.0543 -2.4754 -0.5019
44823SOL    HW241710   1.125   8.125   8.135  0.7157 -0.9017 -0.4518
44824SOL     OW41711   3.621   2.792   4.571 -0.4868 -0.2847 -0.4298
44824SOL    HW141712   3.649   2.870   4.619  1.6198 -0.8916 -0.5809
44824SOL    HW241713   3.690   2.778   4.506 -1.2742 -1.7698 -1.0007
44825SOL     OW41714   0.173   5.182   6.195 -0.0203 -0.1363 -0.3952
44825SOL    HW141715   0.172   5.218   6.283  0.9851  0.4124 -0.5830
44825SOL    HW241716   0.081   5.179   6.168 -0.2620  0.5280  0.3380
44826SOL     OW41717  10.819  10.014  10.476  0.1971  0.0844  0.3658
44826SOL    HW141718  10.867  10.060  10.545 -0.8265 -0.8230  1.7356
44826SOL    HW241719  10.836   9.921  10.493  0.9680 -0.1522 -1.4149
44827SOL     OW41720   8.613   2.321   2.471 -0.5420  0.2468 -0.5744
44827SOL    HW141721   8.682   2.264   2.437 -1.8834 -0.5686 -2.0283
44827SOL    HW241722   8.620   2.401   2.418 -0.7698  0.1404 -0.7615
44828SOL     OW41723   6.552   4.155  12.149 -0.0824  0.3806 -0.1841
44828SOL    HW141724   6.517   4.189  12.231 -0.5223 -1.1392  0.2827
44828SOL    HW241725   6.475   4.123  12.101  0.4228 -1.0649 -0.0670
44829SOL     OW41726   2.713  11.534   7.942 -0.3505 -0.4057 -0.4306
44829SOL    HW141727   2.760  11.605   7.898 -1.0603  0.0688 -0.4388
44829SOL    HW241728   2.756  11.454   7.910  1.5947  0.0314  0.8750
44830SOL     OW41729   9.996   8.045  12.321 -0.0187 -0.6242  0.2739
44830SOL    HW141730  10.059   7.973  12.327  1.9946  1.1704  2.4118
44830SOL    HW241731   9.915   8.008  12.358  0.5026 -2.2043 -0.0625
44831SOL     OW41732   6.701   9.378   4.790 -0.2298 -0.1005 -0.4703
44831SOL    HW141733   6.757   9.387   4.714  0.2120  0.9502 -0.0327
44831SOL    HW241734   6.622   9.428   4.768 -0.5978 -0.7526 -0.6841
44832SOL     OW41735   2.324   9.134   8.035 -0.6589  0.0509  0.1389
44832SOL    HW141736   2.403   9.087   8.010 -0.7738  0.0228 -0.1808
44832SOL    HW241737   2.351   9.226   8.038 -0.4032 -0.0410  0.8898
44833SOL     OW41738   5.574  10.516   8.447 -0.4308 -0.2481 -0.1694
44833SOL    HW141739   5.654  10.500   8.496  0.3073  1.9445 -0.5598
44833SOL    HW241740   5.524  10.434   8.455  1.7143 -1.5848  0.2637
44834SOL     OW41741   2.444   0.778  10.526 -0.4205 -0.5609 -0.2243
44834SOL    HW141742   2.460   0.710  10.592 -1.8517 -1.5290 -0.8221
44834SOL    HW241743   2.530   0.794  10.487  0.2819 -0.6267  1.2414
44835SOL     OW41744  11.047  10.727   3.127  0.1102  0.1243 -0.4055
44835SOL    HW141745  11.007  10.674   3.195 -0.4322 -1.8249 -2.1371
44835SOL    HW241746  10.985  10.797   3.111  0.6886  1.1927  1.6976
44836SOL     OW41747   9.049   7.298   9.786  0.2708  0.1747 -0.1794
44836SOL    HW141748   8.985   7.227   9.795 -1.8827  1.9728 -0.3652
44836SOL    HW241749   9.064   7.304   9.691  1.7320 -1.0157 -0.0678
44837SOL     OW41750   2.615   5.496   4.009  0.1337 -0.3584  0.1535
44837SOL    HW141751   2.647   5.502   3.919 -0.9625  0.0861 -0.2249
44837SOL    HW241752   2.616   5.402   4.028 -0.5468 -0.5553 -0.6903
44838SOL     OW41753   1.641   0.194   6.246 -0.4789  0.9746 -0.0244
44838SOL    HW141754   1.684   0.272   6.279 -1.9768  1.6122  0.5330
44838SOL    HW241755   1.548   0.209   6.263 -0.7150 -1.5411  1.4790
44839SOL     OW41756  10.406  10.910   0.448 -0.2695  0.3647 -0.1414
44839SOL    HW141757  10.496  10.945   0.443 -0.5357  1.7038  2.5505
44839SOL    HW241758  10.358  10.959   0.381  0.3305  2.1324  0.6491
44840SOL     OW41759  10.178  12.375   4.899  0.3300 -0.0323 -0.6016
44840SOL    HW141760  10.209  12.420   4.977 -1.9076 -0.3085  0.5266
44840SOL    HW241761  10.104  12.427   4.869  0.9251 -0.1353 -2.3622
44841SOL     OW41762  12.141   7.657   4.848 -0.4058  0.3279  0.6435
44841SOL    HW141763  12.109   7.645   4.938 -1.1057  0.9753  0.4942
44841SOL    HW241764  12.125   7.749   4.830  0.6365  0.4252  0.1885
44842SOL     OW41765   2.839   1.163   2.900 -0.2319  0.4009  0.4679
44842SOL    HW141766   2.874   1.218   2.829 -1.5625 -0.5176 -0.9676
44842SOL    HW241767   2.807   1.226   2.965  2.0867  1.2674  0.8724
44843SOL     OW41768  12.631   1.239  11.194 -0.1103  0.4469 -0.0045
44843SOL    HW141769  12.662   1.212  11.107  1.1785  0.5609  0.4006
44843SOL    HW241770  12.619   1.334  11.186 -0.5558  0.3758 -0.2166
44844SOL     OW41771  10.207  10.671   4.705  0.3917 -0.1248  0.1028
44844SOL    HW141772  10.248  10.628   4.630  0.3966 -1.1580  0.6801
44844SOL    HW241773  10.244  10.759   4.705  1.1296 -0.4234 -0.5329
44845SOL     OW41774   4.432  10.537   9.931 -0.4980 -0.1538  0.5204
44845SOL    HW141775   4.372  10.609   9.910 -1.1353 -0.8073  0.0288
44845SOL    HW241776   4.490  10.531   9.854 -2.6556 -2.3674 -1.1041
44846SOL     OW41777  11.152   4.962   8.256  0.0329 -0.2842 -0.2292
44846SOL    HW141778  11.211   4.979   8.330 -1.0624  2.2057  0.1736
44846SOL    HW241779  11.071   4.932   8.297 -1.1474  2.6988 -0.1759
44847SOL     OW41780   0.761   0.985   1.837  0.3168 -0.1048 -0.0295
44847SOL    HW141781   0.766   0.889   1.835  0.7663 -0.0885  0.2661
44847SOL    HW241782   0.787   1.009   1.926  2.4047  0.4104 -0.7211
44848SOL     OW41783  11.890   4.232   6.959 -0.2999  0.4922 -0.3145
44848SOL    HW141784  11.810   4.221   6.907 -0.9825 -0.0871  0.8017
44848SOL    HW241785  11.938   4.302   6.916 -1.5474  1.0380 -0.8600
44849SOL     OW41786   7.497   6.477   2.457 -0.3441  0.1114  0.3667
44849SOL    HW141787   7.587   6.451   2.439  0.5244  0.9776  2.9288
44849SOL    HW241788   7.445   6.432   2.391  2.0850  1.0181 -2.3737
44850SOL     OW41789  10.764   8.351   6.061 -0.2887  0.0191 -0.6150
44850SOL    HW141790  10.688   8.409   6.062 -0.8670 -0.7120  0.6247
44850SOL    HW241791  10.838   8.407   6.083 -0.7899  0.3616  0.2569
44851SOL     OW41792  11.256   8.561  10.811 -0.3481 -0.1223  0.1520
44851SOL    HW141793  11.314   8.507  10.757 -0.6716  0.7684 -1.1356
44851SOL    HW241794  11.272   8.650  10.781 -1.7237  0.2260  0.3962
44852SOL     OW41795   7.917   4.646  12.402 -0.2361  0.0117  0.6305
44852SOL    HW141796   7.972   4.584  12.354 -1.5812 -0.7343 -0.0115
44852SOL    HW241797   7.934   4.627  12.494  0.5180 -0.2402  0.4492
44853SOL     OW41798   0.898  10.954   5.019  0.2327  0.7461 -0.1561
44853SOL    HW141799   0.852  10.942   5.102 -1.3134  1.6876 -0.8400
44853SOL    HW241800   0.848  10.903   4.956  0.1940  1.6403 -0.8780
44854SOL     OW41801  11.522   0.565   0.476  0.2992  0.1040 -0.1400
44854SOL    HW141802  11.603   0.539   0.522 -0.3163 -0.7850  0.4757
44854SOL    HW241803  11.520   0.660   0.485  1.1967  0.1269 -0.0147
44855SOL     OW41804   2.716   1.532   8.543  0.4009 -0.0421 -0.3238
44855SOL    HW141805   2.635   1.481   8.539  1.1175 -1.1610 -2.2903
44855SOL    HW241806   2.770   1.487   8.608 -0.4938  0.6581  0.9288
44856SOL     OW41807   3.396   1.090   8.550 -0.1485 -0.4584 -0.4155
44856SOL    HW141808   3.318   1.034   8.553  1.9686 -3.7063  2.1406
44856SOL    HW241809   3.420   1.101   8.642  2.2530  0.5917 -1.0871
44857SOL     OW41810   3.583  12.220  10.232 -0.2660 -0.0967  0.5392
44857SOL    HW141811   3.519  12.237  10.163  1.3847  1.0211 -0.8225
44857SOL    HW241812   3.532  12.214  10.312 -2.2721 -1.4036 -0.7471
44858SOL     OW41813   0.079   2.816   6.648  0.2437 -0.0073 -0.2400
44858SOL    HW141814   0.092   2.864   6.566  1.7162  0.5301  0.2768
44858SOL    HW241815   0.159   2.765   6.658 -0.4234 -0.9746  0.2917
44859SOL     OW41816   1.392   2.029   0.063 -0.2577 -0.4398  0.0061
44859SOL    HW141817   1.458   1.997   0.123  1.7401 -1.8927 -2.7374
44859SOL    HW241818   1.411   2.122   0.054  0.5454 -0.5741  0.2671
44860SOL     OW41819   6.719   8.779   6.801  0.3979 -0.6212 -0.4601
44860SOL    HW141820   6.690   8.820   6.720 -0.5188  2.6048  1.2989
44860SOL    HW241821   6.811   8.804   6.809  0.5885 -1.2487 -0.6676
44861SOL     OW41822   4.018   0.797   4.280  0.4206  0.0651 -0.0545
44861SOL    HW141823   4.094   0.765   4.329  0.0589 -1.2078 -0.2795
44861SOL    HW241824   3.955   0.823   4.348  0.5590 -0.1190  0.1457
44862SOL     OW41825   3.390  10.024   8.658  0.2657 -0.2526 -0.0292
44862SOL    HW141826   3.300  10.005   8.632 -0.4013  0.2104  1.7518
44862SOL    HW241827   3.418   9.945   8.705  1.5109 -1.1599 -2.1693
44863SOL     OW41828   0.116   3.721   0.890 -0.3753  0.7907 -0.3438
44863SOL    HW141829   0.201   3.691   0.856 -1.5605 -1.8811 -1.2026
44863SOL    HW241830   0.133   3.740   0.983  1.3094  0.9728 -0.6575
44864SOL     OW41831  10.717   5.266   3.315 -0.5093  0.0435 -0.5222
44864SOL    HW141832  10.795   5.213   3.296  0.2038  0.6177  0.6920
44864SOL    HW241833  10.750   5.355   3.328 -1.1797  0.0733  1.2440
44865SOL     OW41834   9.449   2.526   6.478 -0.1703 -0.2479  0.2443
44865SOL    HW141835   9.408   2.442   6.496  1.9513 -1.2404  0.8148
44865SOL    HW241836   9.536   2.503   6.446 -0.6728  1.6635 -2.9474
44866SOL     OW41837   9.588   0.928   1.188 -0.2375 -0.8445 -0.1896
44866SOL    HW141838   9.640   0.882   1.122  0.1089 -0.6804 -0.0334
44866SOL    HW241839   9.631   1.013   1.198 -1.0886 -0.3243 -0.7497
44867SOL     OW41840   5.271   1.696   1.406  0.0930 -1.0440  0.2898
44867SOL    HW141841   5.220   1.751   1.346  1.0542  0.2293  0.5984
44867SOL    HW241842   5.227   1.611   1.404  0.7104 -1.4124 -3.0523
44868SOL     OW41843   9.326   8.891   5.554 -0.1091  0.3807  0.0157
44868SOL    HW141844   9.281   8.929   5.478 -0.0423  0.0004 -0.2136
44868SOL    HW241845   9.348   8.966   5.609  0.0888  0.6782 -0.4732
44869SOL     OW41846   0.237   1.728   3.778 -0.0110 -0.4480  1.0871
44869SOL    HW141847   0.181   1.804   3.761 -0.4196 -1.2044 -1.2422
44869SOL    HW241848   0.314   1.765   3.822 -0.7330  1.1288  1.0901
44870SOL     OW41849   4.462   6.644   8.271 -0.2491 -0.3367 -0.0274
44870SOL    HW141850   4.497   6.650   8.360  0.2311 -0.4051 -0.2101
44870SOL    HW241851   4.427   6.731   8.253  0.9331  0.1010 -0.2979
44871SOL     OW41852   5.430   4.219   4.384  0.6940  0.0618 -0.1213
44871SOL    HW141853   5.440   4.128   4.411  1.1795  0.2938  0.5382
44871SOL    HW241854   5.517   4.243   4.350  0.1036 -0.2122 -1.9309
44872SOL     OW41855   2.976  12.129   2.266 -0.3352 -0.0324  0.4169
44872SOL    HW141856   2.903  12.105   2.323  0.7541 -2.1023  1.0390
44872SOL    HW241857   3.044  12.162   2.325 -0.2865  0.6896 -0.0248
44873SOL     OW41858   7.861   8.214   2.297  0.5561  0.2972 -0.0565
44873SOL    HW141859   7.898   8.296   2.330  0.6347  0.2906 -0.1282
44873SOL    HW241860   7.890   8.147   2.359 -0.2121  0.4450  0.4786
44874SOL     OW41861  10.152   9.108   5.610 -0.0402  0.2864  0.6292
44874SOL    HW141862  10.094   9.031   5.614  0.9879 -0.6271 -1.0310
44874SOL    HW241863  10.143   9.140   5.520 -0.3642  2.0947  1.2549
44875SOL     OW41864   5.413   1.421   7.996 -0.3406 -0.3408  0.6358
44875SOL    HW141865   5.339   1.478   7.974  0.4489  0.3331 -0.3287
44875SOL    HW241866   5.485   1.452   7.941  0.4435 -1.5068  0.9674
44876SOL     OW41867   3.599   2.156   0.762 -0.1465  0.3983  0.5895
44876SOL    HW141868   3.556   2.171   0.846  0.1917 -0.3160  0.9067
44876SOL    HW241869   3.622   2.243   0.730 -0.9146  0.7227  0.8938
44877SOL     OW41870   7.526   3.635  11.226  0.1196  0.2693  0.1347
44877SOL    HW141871   7.564   3.554  11.191 -0.5634 -0.0065  0.0255
44877SOL    HW241872   7.482   3.608  11.306  1.8961  0.9423  1.4058
44878SOL     OW41873   7.960  10.568   1.368 -0.0314  0.1572 -0.2415
44878SOL    HW141874   7.994  10.657   1.375 -2.2109  1.3854 -3.2049
44878SOL    HW241875   8.023  10.522   1.312 -0.2797  0.7053 -0.9899
44879SOL     OW41876   9.339   9.194  11.446  0.1729 -0.4896  0.4533
44879SOL    HW141877   9.309   9.284  11.458  0.3221 -0.6548  2.4003
44879SOL    HW241878   9.259   9.141  11.456  0.1772 -0.6087 -0.1275
44880SOL     OW41879   2.911   2.502   4.096  0.1353 -0.3245 -0.1083
44880SOL    HW141880   2.917   2.461   4.010  0.5590  0.1062 -0.2898
44880SOL    HW241881   2.846   2.450   4.143  1.1130 -1.6096 -0.1099
44881SOL     OW41882   4.792  10.595   7.404  0.1799 -0.1737 -0.2830
44881SOL    HW141883   4.725  10.640   7.352  1.1843  0.8553 -0.7231
44881SOL    HW241884   4.771  10.617   7.495  0.6294  1.1981 -0.4862
44882SOL     OW41885   7.588   5.873   3.901  0.1256 -0.3806 -0.3776
44882SOL    HW141886   7.679   5.842   3.891  1.3498  2.7412 -0.0546
44882SOL    HW241887   7.595   5.950   3.957 -2.7807 -0.0291 -0.3561
44883SOL     OW41888  11.401  12.457   3.380 -0.2499  0.2172 -0.7644
44883SOL    HW141889  11.422  12.401   3.455 -1.1834 -0.6564 -1.1409
44883SOL    HW241890  11.399  12.398   3.305  0.0462  0.9782 -1.3778
44884SOL     OW41891   1.253   3.841   9.624  0.2735 -0.4464  0.7632
44884SOL    HW141892   1.225   3.842   9.533  0.7141  0.4634  0.6227
44884SOL    HW241893   1.175   3.865   9.674 -0.4799 -2.7566  0.8147
44885SOL     OW41894   2.626  11.523   5.762  0.3576 -0.5313  0.2441
44885SOL    HW141895   2.669  11.477   5.834 -0.9556 -1.4871  0.4630
44885SOL    HW241896   2.696  11.543   5.700  1.1266 -1.9664  0.6154
44886SOL     OW41897  11.629   9.442   0.726  0.6240  0.5633 -0.2151
44886SOL    HW141898  11.655   9.353   0.748  0.6033  0.3760 -0.9155
44886SOL    HW241899  11.541   9.434   0.691  1.0665  0.6890 -1.3968
44887SOL     OW41900   5.629   7.070   5.343 -0.2768 -0.0551 -0.5187
44887SOL    HW141901   5.565   7.028   5.286 -0.9903 -0.3837  0.4828
44887SOL    HW241902   5.706   7.085   5.287  0.2397 -3.1690 -0.8357
44888SOL     OW41903   7.451   7.515   1.537  0.5561  0.1124 -0.2079
44888SOL    HW141904   7.508   7.588   1.561  0.7559  0.1598 -0.8253
44888SOL    HW241905   7.431   7.529   1.445 -0.3001 -0.0098 -0.0527
44889SOL     OW41906   8.766   3.248  11.018 -0.8295 -0.1660 -0.4080
44889SOL    HW141907   8.805   3.329  10.986 -3.9164  1.7270  0.1792
44889SOL    HW241908   8.742   3.268  11.108 -2.3445 -1.4429 -0.5007
44890SOL     OW41909  10.824   2.204  10.752 -0.2895  0.0400 -0.2868
44890SOL    HW141910  10.760   2.244  10.810 -0.5562 -0.8936  0.0754
44890SOL    HW241911  10.773   2.144  10.696  0.3993 -1.8126  0.9731
44891SOL     OW41912   9.002  10.654   9.200 -0.7433  0.0413  0.3575
44891SOL    HW141913   8.985  10.587   9.133 -1.2350 -0.6410  1.1486
44891SOL    HW241914   9.077  10.703   9.166 -0.4630 -0.8212 -0.3091
44892SOL     OW41915   9.687   5.662  12.375  0.0075  0.3159  0.2721
44892SOL    HW141916   9.744   5.597  12.416  1.4425  1.8686  0.8373
44892SOL    HW241917   9.600   5.645  12.413  0.0590 -1.9910 -0.4843
44893SOL     OW41918   4.661  10.918   2.600  0.4450  0.3901 -0.5810
44893SOL    HW141919   4.727  10.911   2.531 -2.1502  0.6228 -3.3082
44893SOL    HW241920   4.602  10.988   2.570 -0.4704  0.9816  2.2707
44894SOL     OW41921  10.783   9.040   4.017 -0.2167 -0.3352  0.2769
44894SOL    HW141922  10.715   9.006   3.959  0.5357 -0.2402 -0.6978
44894SOL    HW241923  10.808   8.965   4.071 -0.4780 -0.6007  0.0324
44895SOL     OW41924  10.067  11.475  11.819  0.0736 -0.5606 -0.0252
44895SOL    HW141925  10.080  11.514  11.906 -1.3642 -1.5301  0.6675
44895SOL    HW241926   9.990  11.419  11.830  0.4435 -1.4391 -1.6927
44896SOL     OW41927  10.893   0.307   2.376 -0.0367 -0.3331 -0.4332
44896SOL    HW141928  10.857   0.314   2.288  0.3234 -1.5201 -0.6896
44896SOL    HW241929  10.847   0.374   2.426  0.1136  0.6968 -1.6318
44897SOL     OW41930  11.954  10.760  10.385  0.8508  0.2313  0.0193
44897SOL    HW141931  11.972  10.848  10.353  0.2201  0.9259  1.5373
44897SOL    HW241932  11.859  10.755  10.390  0.9107 -0.1421  0.9859
44898SOL     OW41933  10.712   3.334   3.665  0.2753 -0.0571 -0.3372
44898SOL    HW141934  10.642   3.382   3.709 -0.9915 -0.4351 -1.8393
44898SOL    HW241935  10.739   3.267   3.728  0.3716  1.0507  0.8367
44899SOL     OW41936   4.737   1.829  10.078  0.2236  0.0872 -0.8997
44899SOL    HW141937   4.657   1.863  10.119  0.5482  0.2337 -0.3730
44899SOL    HW241938   4.751   1.744  10.120  0.5786  0.2551 -0.6705
44900SOL     OW41939  11.390   7.520  12.652 -0.5734  0.1840  0.0755
44900SOL    HW141940  11.409   7.431  12.682 -0.4804  0.3719  0.5900
44900SOL    HW241941  11.408   7.518  12.558  1.7890  0.2761  0.4553
44901SOL     OW41942  10.281   7.749   1.471  0.5216  0.2539 -0.6828
44901SOL    HW141943  10.275   7.715   1.560  0.0541  0.5293 -0.6003
44901SOL    HW241944  10.256   7.675   1.415  1.0843  0.0023 -0.6020
44902SOL     OW41945  12.195   9.401   3.487 -0.2807 -0.0469 -0.4182
44902SOL    HW141946  12.144   9.379   3.409  1.0030 -0.2605 -1.2214
44902SOL    HW241947  12.232   9.317   3.516  0.2755  0.2179 -0.3431
44903SOL     OW41948   3.643   6.261   2.896 -0.1770 -0.5153  0.0307
44903SOL    HW141949   3.592   6.341   2.895 -1.3161 -1.2234 -1.3451
44903SOL    HW241950   3.728   6.286   2.858 -0.7315 -0.0814 -0.9468
44904SOL     OW41951   5.548  12.549   4.313  0.1295 -0.1536  0.4284
44904SOL    HW141952   5.540  12.480   4.247  1.2287 -0.0272  0.1292
44904SOL    HW241953   5.634  12.588   4.296 -0.6343  1.5712  0.3380
44905SOL     OW41954   9.684   3.455   6.129 -0.1321 -0.2332  0.3320
44905SOL    HW141955   9.661   3.526   6.069  1.6552  1.1291  1.1693
44905SOL    HW241956   9.654   3.376   6.084  0.9672  0.7367 -2.3213
44906SOL     OW41957   1.820   9.914   6.309  0.3233  0.0961 -0.4881
44906SOL    HW141958   1.727   9.893   6.305  0.3797 -0.3700  0.4671
44906SOL    HW241959   1.863   9.830   6.327  0.7422  0.6400  1.1796
44907SOL     OW41960  10.328   1.057   7.409  0.2756  0.3983  0.2808
44907SOL    HW141961  10.330   1.054   7.314 -0.7033 -0.1867  0.2722
44907SOL    HW241962  10.236   1.046   7.432  0.8467 -3.6633  1.4041
44908SOL     OW41963   5.584   6.742   3.878 -0.2085  0.1352 -0.5165
44908SOL    HW141964   5.633   6.682   3.822  0.5552  0.4358 -0.1891
44908SOL    HW241965   5.595   6.828   3.836  1.0662  0.5092  0.5019
44909SOL     OW41966   9.088   6.811   3.504  0.1861  0.0841  0.5685
44909SOL    HW141967   9.149   6.825   3.576  0.1473  1.6447  0.3219
44909SOL    HW241968   9.144   6.791   3.429  0.1955 -2.8685  1.2102
44910SOL     OW41969   7.075   8.742   7.683  0.4559 -0.6644  0.0687
44910SOL    HW141970   7.120   8.783   7.758 -0.4152  0.5768 -0.0499
44910SOL    HW241971   7.146   8.722   7.621  0.8309  3.7873 -1.3570
44911SOL     OW41972  12.212  10.704   2.683 -0.1903  0.2932  0.2037
44911SOL    HW141973  12.211  10.640   2.754 -0.4624 -1.3799 -1.2350
44911SOL    HW241974  12.130  10.689   2.636  0.6864  0.2478 -1.3829
44912SOL     OW41975   4.211   8.023   6.802 -0.1809  0.4206  0.0279
44912SOL    HW141976   4.245   8.087   6.739 -0.9317  0.8123  0.0041
44912SOL    HW241977   4.188   8.075   6.879  2.2122 -0.2486  1.2922
44913SOL     OW41978   9.469   2.030  10.324  0.3554 -1.2339 -0.0234
44913SOL    HW141979   9.408   1.965  10.289 -0.2510 -0.2369 -0.9044
44913SOL    HW241980   9.488   2.087  10.249 -0.6451  0.7308  1.1361
44914SOL     OW41981  12.279  11.984   7.102 -0.2584 -0.1292 -0.1086
44914SOL    HW141982  12.199  11.950   7.062  0.0148 -1.8223  0.6961
44914SOL    HW241983  12.266  12.079   7.106 -2.0526 -0.3354 -0.3551
44915SOL     OW41984   5.752  12.609  10.562 -0.7782 -0.0205 -0.0646
44915SOL    HW141985   5.777  12.620  10.654  1.9154  1.9304 -0.9179
44915SOL    HW241986   5.657  12.619  10.563 -0.7905  0.5016  2.4584
44916SOL     OW41987   2.715   5.653   9.660  0.0260  0.1886 -0.1697
44916SOL    HW141988   2.789   5.645   9.600  0.0062  0.9570 -0.3020
44916SOL    HW241989   2.658   5.579   9.636  1.4677 -1.3943  1.0028
44917SOL     OW41990   1.327   2.114   7.995 -0.1892 -0.2602  0.1421
44917SOL    HW141991   1.305   2.021   7.997  1.4769 -0.6918  0.7709
44917SOL    HW241992   1.392   2.122   7.925 -0.2258  0.3965  0.1765
44918SOL     OW41993  11.984   6.575   2.319 -0.2135 -0.3821 -0.3727
44918SOL    HW141994  12.020   6.559   2.406  1.0938  0.0510 -0.8195
44918SOL    HW241995  11.890   6.583   2.334  0.1390  1.3099  1.2446
44919SOL     OW41996   5.881   0.148  10.530  0.5043  0.2159  0.3216
44919SOL    HW141997   5.864   0.084  10.461 -0.3672  1.5127 -0.7068
44919SOL    HW241998   5.974   0.139  10.549  0.4543 -1.1449 -0.0086
44920SOL     OW41999  12.581   5.450  11.228 -0.1450  0.7207  0.0614
44920SOL    HW142000  12.676   5.458  11.233  0.1822  0.9286 -3.7308
44920SOL    HW242001  12.553   5.524  11.175 -2.5577  0.9048  1.4090
44921SOL     OW42002  10.671   1.274  12.549 -0.3295  0.3647  0.2519
44921SOL    HW142003  10.764   1.294  12.544 -0.1522 -0.5039 -0.1347
44921SOL    HW242004  10.644   1.262  12.458 -0.3411 -1.3959  0.4401
44922SOL     OW42005   7.769   0.220   1.814  0.2895  0.1152 -0.9670
44922SOL    HW142006   7.720   0.203   1.894  0.8418 -1.2327 -0.8823
44922SOL    HW242007   7.796   0.312   1.821  0.8503 -0.1419  0.6926
44923SOL     OW42008   8.009   4.584   8.244 -0.2263  0.1392  0.4420
44923SOL    HW142009   7.993   4.674   8.218  0.8291  0.4030  0.6393
44923SOL    HW242010   8.006   4.534   8.163  1.3921  0.7048 -0.0172
44924SOL     OW42011   4.189   4.561   7.502  0.1188  0.0595 -1.0645
44924SOL    HW142012   4.200   4.642   7.451  2.3263 -0.0587 -0.8555
44924SOL    HW242013   4.253   4.568   7.572  0.2532 -1.8242 -0.9549
44925SOL     OW42014   7.730  10.696   5.744  0.2140  0.4983 -0.0021
44925SOL    HW142015   7.703  10.648   5.665  1.5417  0.9668 -0.7917
44925SOL    HW242016   7.655  10.692   5.802 -0.2115 -1.3330 -0.6067
44926SOL     OW42017  12.591   6.628  10.009  0.4436  0.2012  0.0483
44926SOL    HW142018  12.574   6.722  10.004  0.1812  0.1708  0.3909
44926SOL    HW242019  12.508   6.589  10.034  0.4918 -0.1478 -0.3301
44927SOL     OW42020   0.917   3.852   6.806  0.8160  0.1213  0.0245
44927SOL    HW142021   0.981   3.860   6.876 -0.5680 -0.5835  1.4216
44927SOL    HW242022   0.920   3.760   6.781  2.2000  0.6054 -1.7732
44928SOL     OW42023   4.031   1.814   9.218 -0.0565 -0.3803  0.6203
44928SOL    HW142024   4.016   1.735   9.270 -0.0228  0.4147  1.8749
44928SOL    HW242025   4.016   1.886   9.279  3.5254  0.5830  0.5732
44929SOL     OW42026  11.960   1.299  10.042 -0.5230 -0.2804 -0.4957
44929SOL    HW142027  11.995   1.212  10.021 -0.7204 -0.3530 -0.5205
44929SOL    HW242028  12.027   1.339  10.098 -0.7286 -0.6955  0.0573
44930SOL     OW42029   8.351   9.909  10.920 -0.0260  0.4107  0.3176
44930SOL    HW142030   8.356   9.860  11.002 -0.3818  0.6394  0.4782
44930SOL    HW242031   8.343  10.001  10.947 -2.6181  0.3152  0.0935
44931SOL     OW42032   2.772   8.263   3.398 -0.9585 -0.4818  0.6412
44931SOL    HW142033   2.856   8.225   3.372 -1.3826  0.5747 -2.6586
44931SOL    HW242034   2.707   8.201   3.366 -1.5088 -0.0769  0.9643
44932SOL     OW42035  11.013  10.030   9.610  0.2179  0.1548 -0.2316
44932SOL    HW142036  11.080  10.084   9.653  0.8387  0.3212 -1.3811
44932SOL    HW242037  11.052   9.943   9.607 -0.5669 -0.2804  1.1394
44933SOL     OW42038   2.040   9.999  12.013 -0.2336  0.2579 -0.5671
44933SOL    HW142039   2.094   9.938  12.063  1.0559  2.4251  0.8665
44933SOL    HW242040   1.956  10.000  12.058  0.8265  1.9838  1.5617
44934SOL     OW42041   5.776   2.576   4.321 -0.4748  0.1690 -0.0835
44934SOL    HW142042   5.858   2.530   4.301 -1.6752 -2.3578  0.3994
44934SOL    HW242043   5.755   2.623   4.241  1.5231  1.0615 -0.1467
44935SOL     OW42044  10.263  10.593   5.267 -0.2434  0.0253 -0.2741
44935SOL    HW142045  10.268  10.524   5.332  0.8918  0.6301  0.2996
44935SOL    HW242046  10.208  10.556   5.197 -1.1357 -0.7790  0.8149
44936SOL     OW42047   9.078  10.403   0.679  0.6023  0.2535  0.2177
44936SOL    HW142048   9.120  10.330   0.634  1.6741 -0.2254  1.9016
44936SOL    HW242049   9.088  10.383   0.772 -2.3817  0.7040  0.7461
44937SOL     OW42050   0.431   6.417   3.412  0.2820 -0.6716 -0.2863
44937SOL    HW142051   0.460   6.508   3.422  0.3854 -0.5378 -1.6597
44937SOL    HW242052   0.345   6.415   3.454  1.3667 -0.6259  2.1600
44938SOL     OW42053   4.202  10.160   9.265 -0.1142 -0.3654  0.1495
44938SOL    HW142054   4.294  10.159   9.292  0.2746  0.2969 -1.0772
44938SOL    HW242055   4.174  10.250   9.282 -1.2873 -1.1164  2.7655
44939SOL     OW42056   5.394   2.177   2.788 -0.6569  0.0254  0.1614
44939SOL    HW142057   5.470   2.131   2.752 -0.8071 -1.2278  1.3776
44939SOL    HW242058   5.350   2.213   2.711  0.5153 -0.2384 -0.6635
44940SOL     OW42059   3.535   6.842   7.144 -0.5865 -0.5124  0.1925
44940SOL    HW142060   3.604   6.778   7.127  0.5662  0.7105  0.0972
44940SOL    HW242061   3.478   6.836   7.067  0.1826 -0.5915 -0.3900
44941SOL     OW42062   9.740  11.112   6.378 -0.0622 -0.2537  0.4816
44941SOL    HW142063   9.759  11.098   6.285 -0.1159 -1.4597  0.6281
44941SOL    HW242064   9.668  11.174   6.379 -1.1025 -1.4014 -0.3485
44942SOL     OW42065  10.740   8.065   2.304 -0.0374  0.1763 -0.7270
44942SOL    HW142066  10.787   7.981   2.301 -0.5792 -0.1720  0.1665
44942SOL    HW242067  10.650   8.041   2.328 -0.0597  1.0673  0.1184
44943SOL     OW42068   3.325   2.802   1.196 -0.2224  0.4334  0.4713
44943SOL    HW142069   3.318   2.884   1.246 -0.4730 -0.2115  1.5405
44943SOL    HW242070   3.396   2.755   1.238  0.0404  0.1750 -0.2559
44944SOL     OW42071  12.333   8.922   2.430 -0.0097  0.3387  0.0603
44944SOL    HW142072  12.352   8.868   2.507  0.3536 -0.1618 -0.3701
44944SOL    HW242073  12.298   8.860   2.366 -1.2728  0.9190  0.1637
44945SOL     OW42074   3.536  10.329   9.879  0.3984  0.0331  0.2028
44945SOL    HW142075   3.466  10.273   9.843 -0.7909  0.2931  1.9846
44945SOL    HW242076   3.569  10.280   9.955 -0.8316  1.7673  1.9569
44946SOL     OW42077   4.431   8.854  11.142  0.2234  0.2143  0.1367
44946SOL    HW142078   4.397   8.901  11.218 -0.3001 -1.1934  0.8158
44946SOL    HW242079   4.522   8.882  11.135  0.1067  0.8225  0.9094
44947SOL     OW42080   6.249   3.369   6.146  0.2810 -0.0237  0.0586
44947SOL    HW142081   6.338   3.364   6.110  0.0441  1.2853 -0.7900
44947SOL    HW242082   6.194   3.333   6.077  0.2047 -1.9122  1.0317
44948SOL     OW42083   3.863   7.529   1.849 -0.5256 -0.3769  0.1120
44948SOL    HW142084   3.903   7.464   1.791 -1.2819 -2.3146  1.6353
44948SOL    HW242085   3.910   7.518   1.932 -3.5422 -2.2368  1.7543
44949SOL     OW42086  10.824  12.149   0.300  0.2971 -0.3396 -0.4494
44949SOL    HW142087  10.841  12.162   0.207  1.0824  1.2500 -0.1081
44949SOL    HW242088  10.728  12.147   0.307  0.2336 -1.3264 -1.3675
44950SOL     OW42089   0.397  10.364   0.479  0.1969  0.0908 -0.1574
44950SOL    HW142090   0.352  10.335   0.558  0.3314  0.2548 -0.0187
44950SOL    HW242091   0.453  10.291   0.454 -0.7173 -0.4128 -0.7722
44951SOL     OW42092   5.524   6.117   1.753  0.3821 -0.6702 -0.4659
44951SOL    HW142093   5.503   6.055   1.683 -0.4241 -0.6006 -0.2902
44951SOL    HW242094   5.610   6.089   1.784  0.4150 -1.1605 -0.9783
44952SOL     OW42095   1.577   8.365   6.914  0.4513 -0.1916 -0.1389
44952SOL    HW142096   1.629   8.420   6.972  1.4525 -1.5167  0.2873
44952SOL    HW242097   1.513   8.322   6.972 -0.1686  0.3269 -0.4271
44953SOL     OW42098   6.873   0.961   3.073 -0.0109  0.3462 -0.4672
44953SOL    HW142099   6.836   0.996   2.992 -0.0138  1.0191 -0.1867
44953SOL    HW242100   6.798   0.954   3.132 -0.2220 -1.2910 -0.8918
44954SOL     OW42101   2.752   8.193  11.902 -0.0309 -0.4964  0.6000
44954SOL    HW142102   2.813   8.231  11.838 -1.3969 -0.9925 -1.0585
44954SOL    HW242103   2.793   8.110  11.927  0.7430 -0.0864  0.7324
44955SOL     OW42104   0.636   6.172   1.878 -0.0955  0.0567  0.3567
44955SOL    HW142105   0.709   6.126   1.837  0.5377  0.7226  0.7208
44955SOL    HW242106   0.677   6.234   1.938 -0.9757 -0.6244  1.7431
44956SOL     OW42107   3.867   0.590   3.118 -0.3562 -0.3583 -0.0031
44956SOL    HW142108   3.949   0.553   3.085 -0.2736  0.2410 -0.4832
44956SOL    HW242109   3.889   0.619   3.207 -0.8052 -2.7313  0.9366
44957SOL     OW42110   5.115   0.288   8.765  0.3059 -0.3818  0.0886
44957SOL    HW142111   5.156   0.215   8.811  0.7058  0.1933  0.6645
44957SOL    HW242112   5.184   0.354   8.757 -0.1191  0.0410 -0.1752
44958SOL     OW42113   8.124   1.521   2.197 -0.3866  0.1879  0.1697
44958SOL    HW142114   8.050   1.495   2.251 -0.0357 -1.4276 -0.0690
44958SOL    HW242115   8.185   1.447   2.202 -0.2234  0.0548 -2.2042
44959SOL     OW42116   8.801   5.311   0.845  0.4054  0.2138  0.7465
44959SOL    HW142117   8.732   5.375   0.860 -0.0416 -0.4223  1.5163
44959SOL    HW242118   8.820   5.276   0.932  0.5576 -0.7823  0.3256
44960SOL     OW42119   6.586   5.055   0.129 -0.4407  0.4710  0.5362
44960SOL    HW142120   6.609   5.099   0.047  0.3280  1.0556  1.0629
44960SOL    HW242121   6.508   5.101   0.160  0.7019  1.9124  1.3980
44961SOL     OW42122   5.036  12.309   5.510 -0.0631  0.2955 -0.5744
44961SOL    HW142123   5.078  12.236   5.557 -0.6845 -0.2889 -0.9091
44961SOL    HW242124   4.948  12.314   5.547  0.5709  2.1317  0.7844
44962SOL     OW42125  10.574   6.721   0.480  0.0309 -0.2547  0.2838
44962SOL    HW142126  10.612   6.645   0.436  0.5848  1.0286 -1.6050
44962SOL    HW242127  10.600   6.712   0.572 -1.1255 -3.0362  0.4400
44963SOL     OW42128   5.540   8.382   4.649  0.8251  0.5982  0.0383
44963SOL    HW142129   5.633   8.399   4.638  0.6898  1.3824  0.0634
44963SOL    HW242130   5.520   8.314   4.585  1.1956  1.1875 -0.7138
44964SOL     OW42131   8.629   7.401   6.082 -0.1163  0.1759 -0.5630
44964SOL    HW142132   8.719   7.419   6.054 -0.2189  0.6752 -0.5727
44964SOL    HW242133   8.580   7.389   6.000 -0.2039  0.6110 -0.5746
44965SOL     OW42134   9.866   1.714   5.709 -0.5249 -0.0353 -0.1894
44965SOL    HW142135   9.784   1.716   5.660 -0.7314 -1.1168  0.0897
44965SOL    HW242136   9.923   1.776   5.663 -1.0109 -0.3584 -1.2687
44966SOL     OW42137  12.670   2.358   9.846 -0.3790  0.2940 -0.2079
44966SOL    HW142138  12.652   2.301   9.921  1.2716  3.0245  2.5032
44966SOL    HW242139  12.584   2.379   9.811 -1.1631 -1.6892  0.3742
44967SOL     OW42140   3.683   2.438   5.524 -0.0957 -0.1104  0.2536
44967SOL    HW142141   3.640   2.396   5.449 -0.2268 -0.0651  0.3038
44967SOL    HW242142   3.742   2.503   5.484 -2.4081  2.1262  0.2249
44968SOL     OW42143   7.196   0.292   1.347  0.3836 -0.3143 -0.2865
44968SOL    HW142144   7.179   0.340   1.266 -0.3795  0.4844  0.3161
44968SOL    HW242145   7.263   0.344   1.391  1.1847 -1.0337 -0.6279
44969SOL     OW42146   4.790   4.178   2.749 -0.1723 -0.2346 -0.1501
44969SOL    HW142147   4.743   4.108   2.704 -1.4994  1.7320 -2.0501
44969SOL    HW242148   4.752   4.180   2.837  2.0392 -3.7537  1.0948
44970SOL     OW42149  10.611   4.079  11.668  0.2092  0.4118  0.1969
44970SOL    HW142150  10.629   3.987  11.652 -2.2932 -0.1712  0.2989
44970SOL    HW242151  10.540   4.079  11.732 -1.1004  2.3417 -1.1578
44971SOL     OW42152  11.883   6.010  11.529 -0.0414 -0.4962 -0.1907
44971SOL    HW142153  11.836   6.089  11.556 -1.0998 -1.2961  0.3530
44971SOL    HW242154  11.933   6.037  11.452 -1.0269  0.4872 -0.5070
44972SOL     OW42155  10.893   1.350   0.295 -0.7669  0.1390  0.2943
44972SOL    HW142156  10.958   1.304   0.243  0.0885 -0.0907  1.5161
44972SOL    HW242157  10.809   1.327   0.255 -0.0848  1.7162 -2.3311
44973SOL     OW42158   6.380   0.477   3.178  0.1716 -0.1439  0.1816
44973SOL    HW142159   6.288   0.478   3.154 -0.4112 -1.0266  2.1382
44973SOL    HW242160   6.383   0.518   3.265  1.7867  0.8129 -0.2844
44974SOL     OW42161   6.683   7.950   0.107  0.0613  0.6559 -0.1279
44974SOL    HW142162   6.674   7.927   0.015 -0.3244 -0.7946  0.2466
44974SOL    HW242163   6.718   8.039   0.106  3.8348 -0.6322 -1.7346
44975SOL     OW42164  10.823   8.612   0.484  0.2238 -0.2354  0.2542
44975SOL    HW142165  10.814   8.631   0.390  1.5190  1.1183  0.3558
44975SOL    HW242166  10.898   8.552   0.489  0.8064  0.4983  0.4821
44976SOL     OW42167  11.069   0.720   1.226  0.0617 -0.1952  0.3387
44976SOL    HW142168  11.027   0.806   1.216  0.7704 -0.0134 -1.6144
44976SOL    HW242169  11.137   0.719   1.158 -0.4888 -2.6162 -0.2779
44977SOL     OW42170   3.029   5.891  11.339  0.2627  0.3730 -0.0527
44977SOL    HW142171   3.107   5.840  11.360 -1.1720 -0.6258  3.8004
44977SOL    HW242172   2.980   5.837  11.278  1.7793  0.2936 -1.2666
44978SOL     OW42173   1.983   0.227   5.345  0.1904 -0.2897 -0.3234
44978SOL    HW142174   1.943   0.144   5.319  0.9264 -0.4292 -1.0799
44978SOL    HW242175   2.077   0.209   5.346  0.3096  0.3226  0.3165
44979SOL     OW42176   3.706  10.377  10.484  0.5469 -0.4887  0.2037
44979SOL    HW142177   3.795  10.389  10.519  0.5023  0.0252  0.1470
44979SOL    HW242178   3.711  10.409  10.394  0.3835 -0.7623  0.0993
44980SOL     OW42179  10.835   3.861  12.650 -0.5511  0.2730 -0.1548
44980SOL    HW142180  10.755   3.885  12.697 -0.2088  0.9335  0.1139
44980SOL    HW242181  10.902   3.858  12.718 -0.6943 -2.2580 -0.0328
44981SOL     OW42182  11.364   0.024  10.193  0.3882 -0.1507  0.3018
44981SOL    HW142183  11.435   0.083  10.219  0.7576 -1.2712  2.0720
44981SOL    HW242184  11.313   0.011  10.273 -0.7926 -0.7427 -0.5107
44982SOL     OW42185  11.111   6.110   1.724  0.1230  0.5457 -0.1229
44982SOL    HW142186  11.199   6.120   1.688  0.4277  1.3829  0.8139
44982SOL    HW242187  11.061   6.070   1.653  1.1700  0.3628 -0.7867
44983SOL     OW42188   9.144   2.463   2.560 -0.4508  0.0618  0.1993
44983SOL    HW142189   9.175   2.461   2.469 -0.5814  1.5800  0.0835
44983SOL    HW242190   9.199   2.400   2.606  0.9922  0.7352 -0.5505
44984SOL     OW42191  11.351   6.182   8.470  0.3534  0.3583  0.6544
44984SOL    HW142192  11.320   6.212   8.385 -0.9710  0.7756  1.2701
44984SOL    HW242193  11.360   6.262   8.522  0.9783  0.0897  0.9748
44985SOL     OW42194   9.354   6.955   4.109 -0.3676 -0.2387 -0.0005
44985SOL    HW142195   9.372   6.877   4.161 -0.1040  0.2685  0.6768
44985SOL    HW242196   9.281   6.929   4.052 -1.5015 -0.4383  1.4786
44986SOL     OW42197   4.017   3.834  10.020 -0.5872 -0.4354  0.5022
44986SOL    HW142198   3.982   3.896   9.955 -1.6737 -1.3415  0.1805
44986SOL    HW242199   4.098   3.874  10.050 -0.8427  0.7491 -0.2956
44987SOL     OW42200  10.727   1.680   7.919 -0.3801 -0.3655 -0.4589
44987SOL    HW142201  10.806   1.734   7.924  0.1983 -1.3067  1.3043
44987SOL    HW242202  10.655   1.743   7.917  0.2994  0.4949  1.0676
44988SOL     OW42203   6.074   1.468   2.537 -0.6039 -0.2966 -0.1219
44988SOL    HW142204   6.124   1.520   2.474 -1.3893  1.7061  0.7912
44988SOL    HW242205   6.089   1.377   2.512  0.5591  0.3736 -2.0472
44989SOL     OW42206   2.594   2.164   3.084  0.1820  0.0848 -0.2710
44989SOL    HW142207   2.579   2.186   3.176 -1.1103  1.3204 -0.7396
44989SOL    HW242208   2.686   2.186   3.069  0.2795  0.3381  0.6054
44990SOL     OW42209  11.393  11.690   2.251 -0.0462 -0.3458  0.3027
44990SOL    HW142210  11.316  11.720   2.299 -1.0097 -3.1527  0.7049
44990SOL    HW242211  11.358  11.627   2.188  1.7702 -0.5347 -0.5580
44991SOL     OW42212   9.378   5.412  10.437 -0.3011 -0.4755 -0.0260
44991SOL    HW142213   9.370   5.385  10.346  0.7339 -2.5509  0.4500
44991SOL    HW242214   9.429   5.343  10.478  1.5418  1.6699  1.5629
44992SOL     OW42215   4.316   5.962  12.413  0.3737 -0.0795 -0.5973
44992SOL    HW142216   4.311   6.051  12.377 -0.2348 -0.3947 -1.3109
44992SOL    HW242217   4.303   5.905  12.338 -0.4374 -0.7626  0.0438
44993SOL     OW42218   7.223   1.245  11.121  0.0823  0.1885  0.2945
44993SOL    HW142219   7.147   1.202  11.162 -0.2884 -0.4342 -0.9853
44993SOL    HW242220   7.186   1.297  11.050  0.6789  1.5174  0.9341
44994SOL     OW42221   0.319   5.260   3.473  0.4394  0.2641  0.3596
44994SOL    HW142222   0.337   5.166   3.478  2.6042  0.5614 -0.6175
44994SOL    HW242223   0.266   5.270   3.394  2.8792  0.0969 -1.4452
44995SOL     OW42224   8.016   4.635  10.873 -0.2884 -0.1617 -0.0622
44995SOL    HW142225   8.011   4.570  10.944  2.3031 -3.4108 -2.4999
44995SOL    HW242226   8.101   4.677  10.885 -0.6067  0.5518 -0.2664
44996SOL     OW42227   3.920   2.577  11.349 -0.2901 -0.1249 -0.1146
44996SOL    HW142228   3.975   2.633  11.293 -2.8972  1.7552 -0.9689
44996SOL    HW242229   3.909   2.626  11.430  0.1618 -1.0166  0.5134
44997SOL     OW42230   3.195   2.020   6.073 -0.1830 -0.1827 -0.4453
44997SOL    HW142231   3.216   2.090   6.012 -0.7101 -0.3454 -0.8202
44997SOL    HW242232   3.134   1.964   6.026  1.2706 -1.6630 -0.6768
44998SOL     OW42233   1.004   6.655   4.366 -0.2663 -0.3557 -0.3793
44998SOL    HW142234   1.021   6.743   4.331 -2.0251  0.9780  1.8389
44998SOL    HW242235   0.909   6.651   4.375 -0.0547 -1.4605  2.0300
44999SOL     OW42236   3.373   9.632   8.963  0.6570  0.0869 -0.3920
44999SOL    HW142237   3.313   9.703   8.943  0.3074 -0.6347 -2.1177
44999SOL    HW242238   3.407   9.604   8.878  0.7536 -1.8202  0.2067
45000SOL     OW42239   3.849  11.766   1.279 -0.4792  0.0932  0.2184
45000SOL    HW142240   3.853  11.722   1.194 -1.6412 -0.2602  0.3357
45000SOL    HW242241   3.907  11.842   1.269  2.4122 -1.9427  0.3590
45001SOL     OW42242   6.747   1.925   5.312 -0.4745 -0.1708 -0.5267
45001SOL    HW142243   6.652   1.931   5.321 -0.5439 -0.5003 -0.9694
45001SOL    HW242244   6.781   1.971   5.388 -0.9863  0.1267 -0.4682
45002SOL     OW42245   1.465  10.041  12.304 -0.0362  0.0875 -0.6460
45002SOL    HW142246   1.549  10.015  12.267  1.9632  0.8898  2.8320
45002SOL    HW242247   1.441   9.970  12.363 -1.2837  0.3665 -0.7849
45003SOL     OW42248  10.327   6.646   7.619 -0.3607 -0.5854  0.3093
45003SOL    HW142249  10.271   6.603   7.684  1.4348 -1.4945  1.3440
45003SOL    HW242250  10.321   6.739   7.640 -0.7074 -0.7618  1.0482
45004SOL     OW42251   3.357  11.255  11.348  0.5150 -0.2904  0.1062
45004SOL    HW142252   3.421  11.190  11.376  0.7741  0.0774  0.3830
45004SOL    HW242253   3.283  11.204  11.315 -0.2634 -0.7878  2.4308
45005SOL     OW42254   2.108  10.344   4.265 -0.4637 -0.2025  0.2041
45005SOL    HW142255   2.147  10.353   4.178 -0.5600 -0.6649  0.1068
45005SOL    HW242256   2.016  10.321   4.248 -0.6581  0.3874  0.4315
45006SOL     OW42257   6.428   2.834   0.058  0.2043  0.0058  0.1089
45006SOL    HW142258   6.387   2.913   0.092  1.1133  1.0022 -1.0470
45006SOL    HW242259   6.396   2.827  -0.032  1.2531 -0.1370 -0.2635
45007SOL     OW42260   1.102   4.912   7.882  0.2779 -0.1413 -0.4161
45007SOL    HW142261   1.052   4.851   7.828 -0.4852 -0.8357  1.0146
45007SOL    HW242262   1.127   4.861   7.959 -1.1976  1.5467  1.2853
45008SOL     OW42263   5.938   4.619  12.322 -0.9241  0.8489 -0.1565
45008SOL    HW142264   5.954   4.705  12.362  1.1033 -0.0799  1.2337
45008SOL    HW242265   5.901   4.567  12.393 -0.1026  0.0029 -0.3245
45009SOL     OW42266  11.370   5.550   4.245 -0.5451 -0.2999 -0.0437
45009SOL    HW142267  11.421   5.631   4.243  1.3909 -1.4308  0.2985
45009SOL    HW242268  11.306   5.559   4.174  0.8151  0.8008 -1.1840
45010SOL     OW42269  11.524   3.576   7.054 -0.3817 -0.2586 -0.2610
45010SOL    HW142270  11.462   3.649   7.055  1.0310  0.9980 -0.2141
45010SOL    HW242271  11.559   3.575   6.965  0.4204 -0.1392  0.0438
45011SOL     OW42272  10.162   3.264   0.534 -0.5675 -0.5674 -0.0340
45011SOL    HW142273  10.244   3.309   0.556  0.6993 -2.7224 -0.1499
45011SOL    HW242274  10.170   3.177   0.573 -2.3442 -1.2263 -0.9950
45012SOL     OW42275   3.203   5.591  11.094  0.6858  0.1830  0.2774
45012SOL    HW142276   3.119   5.611  11.137 -0.1241  0.3873 -1.3130
45012SOL    HW242277   3.219   5.667  11.038  0.2453 -1.2502 -1.9078
45013SOL     OW42278   0.130   9.100  10.147 -0.5448 -0.0298 -0.1137
45013SOL    HW142279   0.192   9.172  10.134 -2.2597  1.3888 -0.8743
45013SOL    HW242280   0.048   9.133  10.110 -1.4853 -2.2511 -0.1267
45014SOL     OW42281  12.399  11.924   1.018  0.6086  0.0369  0.2689
45014SOL    HW142282  12.343  11.993   1.052  0.5541 -0.5739  1.4503
45014SOL    HW242283  12.355  11.894   0.938 -0.7979 -0.4849  1.2151
45015SOL     OW42284   6.341  10.148  12.119  0.1275 -0.2589 -0.0505
45015SOL    HW142285   6.313  10.224  12.169 -0.4478 -0.2814 -0.3338
45015SOL    HW242286   6.394  10.097  12.181 -0.6645 -0.3358  0.5701
45016SOL     OW42287   0.216   9.534  11.121 -0.3989  0.1687  0.1317
45016SOL    HW142288   0.250   9.607  11.172  1.7424  0.2563 -1.2763
45016SOL    HW242289   0.230   9.457  11.176 -0.7433  0.5589  0.7806
45017SOL     OW42290   9.431   1.124   7.485  0.7915 -0.0839  0.4294
45017SOL    HW142291   9.467   1.049   7.533 -0.2240  0.0503  1.4496
45017SOL    HW242292   9.506   1.179   7.466  1.3553 -0.6369  0.9979
45018SOL     OW42293   4.716   7.580   0.403  0.1486  0.1379  0.3197
45018SOL    HW142294   4.708   7.675   0.403 -2.1510  0.0014  0.7501
45018SOL    HW242295   4.641   7.549   0.454  1.7804 -1.8761  1.7117
45019SOL     OW42296   0.515   8.574   3.432 -0.4076  0.3563  0.2408
45019SOL    HW142297   0.478   8.539   3.514  0.3719  1.8733  1.2921
45019SOL    HW242298   0.499   8.668   3.437  1.4137  0.7420 -0.4061
45020SOL     OW42299   1.020   5.677  11.776  0.7184 -0.4342 -0.2737
45020SOL    HW142300   0.967   5.613  11.823  0.7319 -0.7568 -0.7010
45020SOL    HW242301   0.985   5.762  11.805  0.9467 -0.6222  0.5693
45021SOL     OW42302   9.519   2.995   5.664 -0.2080  0.3529 -0.3870
45021SOL    HW142303   9.487   3.062   5.604 -0.3455  1.3202  0.7433
45021SOL    HW242304   9.447   2.932   5.670 -0.5830  0.7695 -0.4547
45022SOL     OW42305   0.268   2.849   1.687 -0.4775  0.6589 -0.0935
45022SOL    HW142306   0.253   2.938   1.656  1.7706  0.6537 -1.3891
45022SOL    HW242307   0.336   2.858   1.754 -0.4564 -0.0501 -0.0165
45023SOL     OW42308   7.699   1.035   9.334 -0.1509 -0.2757 -0.1505
45023SOL    HW142309   7.753   0.962   9.302 -0.1023 -0.4194  0.2568
45023SOL    HW242310   7.736   1.056   9.420  0.6575  1.0696 -0.7839
45024SOL     OW42311   3.779   9.443   4.919 -0.3228 -0.1050  0.3647
45024SOL    HW142312   3.775   9.350   4.940 -0.0084 -1.0700 -3.0745
45024SOL    HW242313   3.690   9.466   4.894  0.0448 -0.2549 -1.2248
45025SOL     OW42314  12.350   4.412   2.392 -0.1048 -0.2774 -0.1103
45025SOL    HW142315  12.339   4.367   2.309  0.4710  0.8812 -0.8419
45025SOL    HW242316  12.431   4.463   2.381 -1.1987  1.6708  0.3134
45026SOL     OW42317   6.143   2.837   6.800 -0.1174 -0.8229 -0.4510
45026SOL    HW142318   6.144   2.849   6.705 -1.5282  0.3785 -0.3503
45026SOL    HW242319   6.228   2.799   6.820  2.1875  3.1738 -1.6562
45027SOL     OW42320   3.932   2.163   4.431  0.0493 -0.2275  0.0536
45027SOL    HW142321   3.989   2.231   4.465  2.2586 -1.1378 -1.5456
45027SOL    HW242322   3.876   2.207   4.368  2.2086  0.0505 -1.7936
45028SOL     OW42323   9.302   0.173   0.543 -0.3661 -0.0893  1.1694
45028SOL    HW142324   9.206   0.172   0.536 -0.5099  1.2859  2.4768
45028SOL    HW242325   9.322   0.261   0.575  1.4579  0.1453 -0.4636
45029SOL     OW42326   2.185  10.940   3.316 -0.4941 -0.6735 -0.2706
45029SOL    HW142327   2.246  10.965   3.247  1.0710 -1.5553  0.7444
45029SOL    HW242328   2.131  11.017   3.330  0.8095  0.3523 -0.7672
45030SOL     OW42329   3.128   6.745   0.728  0.4339  0.2143 -0.8794
45030SOL    HW142330   3.143   6.653   0.708  0.2167  0.0231 -0.1952
45030SOL    HW242331   3.203   6.791   0.691  0.6638 -0.2629 -1.0108
45031SOL     OW42332   0.273   0.218   6.849 -0.1914 -0.1693  0.5698
45031SOL    HW142333   0.273   0.163   6.770 -1.1943 -0.2801  0.6330
45031SOL    HW242334   0.252   0.157   6.919  1.3342 -0.1955  1.0329
45032SOL     OW42335   2.620   3.052   1.427  0.4693  0.0143 -0.0880
45032SOL    HW142336   2.559   3.024   1.495 -1.0742 -0.4721 -1.5895
45032SOL    HW242337   2.705   3.016   1.453  0.2031  0.8288  2.1454
45033SOL     OW42338  10.240  12.314  10.362  0.2001 -0.0554 -0.3283
45033SOL    HW142339  10.205  12.397  10.394 -0.8822 -0.3576 -0.6951
45033SOL    HW242340  10.163  12.259  10.349  0.7014 -0.3391 -2.3345
45034SOL     OW42341  10.312   7.237   0.191  0.1547 -0.3224  0.2544
45034SOL    HW142342  10.274   7.325   0.200 -0.8037 -0.9179  4.1211
45034SOL    HW242343  10.259   7.194   0.124 -0.7820  1.3979 -0.1567
45035SOL     OW42344  10.207   1.208   4.344  0.0358  0.6500 -0.1954
45035SOL    HW142345  10.286   1.157   4.328 -0.4698 -0.5349  0.8827
45035SOL    HW242346  10.144   1.177   4.280 -0.8118 -1.4052  1.5108
45036SOL     OW42347  12.329   2.061   6.668  0.2800  0.0742 -0.0962
45036SOL    HW142348  12.285   2.083   6.586  0.4020 -0.6808 -0.3766
45036SOL    HW242349  12.285   2.114   6.734 -1.2787 -0.8530 -0.3275
45037SOL     OW42350   6.361   1.633   0.317  0.1084 -1.1460 -0.3942
45037SOL    HW142351   6.430   1.583   0.361  0.5626 -0.8036 -0.7148
45037SOL    HW242352   6.285   1.575   0.319  0.3529 -1.4542  0.1227
45038SOL     OW42353   1.936   6.108  11.393  0.1418  0.0722  0.8512
45038SOL    HW142354   1.890   6.057  11.460 -0.1587 -0.6529  0.1015
45038SOL    HW242355   1.998   6.047  11.353 -1.3033 -0.1981 -1.1282
45039SOL     OW42356   2.153   1.361   4.336  0.2399 -0.0429 -0.0883
45039SOL    HW142357   2.156   1.269   4.361 -0.7862 -0.1447 -0.2892
45039SOL    HW242358   2.100   1.363   4.257  1.7162  0.5229 -1.1038
45040SOL     OW42359   6.145   7.536   6.627 -0.3939  0.3520 -0.0540
45040SOL    HW142360   6.137   7.534   6.532 -0.7686  1.0204 -0.0462
45040SOL    HW242361   6.059   7.565   6.657 -0.6400 -0.9276  0.5577
45041SOL     OW42362   1.798   7.347  10.162  0.2589  0.6846 -0.4437
45041SOL    HW142363   1.874   7.380  10.113  0.0059  2.9322  0.5828
45041SOL    HW242364   1.733   7.329  10.095  1.6288 -1.2617 -1.3500
45042SOL     OW42365   2.237   2.204   8.504  0.1030 -0.3279  0.0939
45042SOL    HW142366   2.243   2.167   8.592  0.5111  1.4771  0.8497
45042SOL    HW242367   2.177   2.145   8.458 -1.5776 -0.2895  2.1159
45043SOL     OW42368   0.746   5.732  10.424 -0.3443 -0.0253 -0.2372
45043SOL    HW142369   0.821   5.756  10.371 -0.0451 -2.0722 -0.7918
45043SOL    HW242370   0.673   5.780  10.384  0.4877  1.3191 -0.2059
45044SOL     OW42371   7.199   0.296   9.516 -0.2533  0.5167 -0.1111
45044SOL    HW142372   7.286   0.257   9.523 -0.1094  0.6744 -0.9718
45044SOL    HW242373   7.163   0.289   9.605  0.2450 -0.4608  0.0299
45045SOL     OW42374   7.797   1.847   9.037  0.1136  0.1594  0.0024
45045SOL    HW142375   7.802   1.826   9.130  2.7718  1.7315  0.3181
45045SOL    HW242376   7.782   1.763   8.994  0.3522 -0.8264  1.7438
45046SOL     OW42377   9.441  10.910   6.509  0.5241 -0.2471  0.6679
45046SOL    HW142378   9.355  10.877   6.535  0.6521  0.2253  1.7670
45046SOL    HW242379   9.466  10.855   6.435 -1.5349  0.8486 -0.9409
45047SOL     OW42380   5.085   4.433   3.993  0.1990  0.0948 -0.3995
45047SOL    HW142381   5.010   4.470   4.041 -0.2690 -1.4435  0.1201
45047SOL    HW242382   5.158   4.490   4.015 -0.8112  1.6568 -0.9339
45048SOL     OW42383   6.039   0.824   9.960  0.4160  0.1176 -0.3821
45048SOL    HW142384   6.026   0.755  10.025  0.7922  0.4765  0.0734
45048SOL    HW242385   6.063   0.901  10.011 -1.8737  1.1269 -0.6811
45049SOL     OW42386   7.601  12.167  11.351 -0.4006  0.4424  0.1711
45049SOL    HW142387   7.650  12.169  11.433 -0.9763 -0.3052  0.5446
45049SOL    HW242388   7.633  12.088  11.307 -0.4852  0.5472 -0.0779
45050SOL     OW42389  12.016   0.872   7.435  0.4014 -0.6722  0.6912
45050SOL    HW142390  11.946   0.935   7.451  1.3224  0.2833  1.1088
45050SOL    HW242391  12.039   0.884   7.342  0.2638 -0.7316  0.6489
45051SOL     OW42392   6.996   6.982   0.066 -0.1000  0.0782 -0.2742
45051SOL    HW142393   7.022   7.011  -0.021  1.5781  1.4654  0.6323
45051SOL    HW242394   6.972   6.890   0.054  1.3341 -0.1324 -1.9691
45052SOL     OW42395   7.898   4.557   3.835  0.6458 -0.0972  0.3301
45052SOL    HW142396   7.816   4.516   3.862 -0.4584 -0.8198 -3.4257
45052SOL    HW242397   7.873   4.643   3.803  1.6016  0.2335  0.4299
45053SOL     OW42398   9.801   4.419   9.240  0.0689  0.0981  0.2801
45053SOL    HW142399   9.726   4.394   9.295 -0.5101 -1.0391 -0.9563
45053SOL    HW242400   9.874   4.427   9.301 -0.6562 -0.6548  1.2873
45054SOL     OW42401   6.082  10.506   5.716  0.8798 -0.1648  0.4154
45054SOL    HW142402   6.171  10.537   5.736  1.7268 -1.8882 -0.4315
45054SOL    HW242403   6.054  10.560   5.642  0.9052  0.8905  1.1581
45055SOL     OW42404   7.830   7.308   8.341  0.3368  0.1932  0.1702
45055SOL    HW142405   7.893   7.365   8.385 -0.3219  1.1670 -0.1129
45055SOL    HW242406   7.768   7.368   8.300 -1.1854 -0.7480  1.0278
45056SOL     OW42407   8.446   1.518   9.509 -0.2674 -0.2476  0.1489
45056SOL    HW142408   8.502   1.588   9.544 -0.9166  0.1094  0.4875
45056SOL    HW242409   8.407   1.557   9.430  0.1096 -0.5673 -0.2002
45057SOL     OW42410   4.646   8.340   6.431 -0.4785 -0.6364  0.4670
45057SOL    HW142411   4.618   8.258   6.471  0.3775 -0.8939  0.5561
45057SOL    HW242412   4.628   8.406   6.498  0.0065 -0.9260  0.8851
45058SOL     OW42413   6.176   1.049   8.372 -0.1755 -0.2759 -0.1629
45058SOL    HW142414   6.181   1.139   8.405 -0.7302 -0.2999  0.0105
45058SOL    HW242415   6.158   1.058   8.279  1.7998 -0.2037 -0.5767
45059SOL     OW42416   3.132   1.064   3.008  0.3253 -0.0976 -0.2031
45059SOL    HW142417   3.220   1.050   2.973  0.1412  0.1952 -0.7969
45059SOL    HW242418   3.077   1.079   2.931 -0.2685 -0.3854  0.1493
45060SOL     OW42419   7.466   4.127   1.528 -0.0981  0.2290 -0.2955
45060SOL    HW142420   7.403   4.163   1.590 -1.8336 -0.7613 -1.3845
45060SOL    HW242421   7.481   4.198   1.465 -0.7972  0.2071 -0.4954
45061SOL     OW42422  10.661   8.059   3.206 -0.3122 -0.3540  0.0722
45061SOL    HW142423  10.592   8.007   3.164 -2.6202  0.9471  2.0216
45061SOL    HW242424  10.677   8.131   3.145 -1.1620 -0.3318 -0.1428
45062SOL     OW42425   6.573   8.404  11.370  0.3603 -0.0249  0.1312
45062SOL    HW142426   6.616   8.475  11.323  0.1486 -1.0123 -1.6353
45062SOL    HW242427   6.482   8.406  11.339 -0.1199  0.0863  1.4813
45063SOL     OW42428   6.725   2.443   8.138  0.2419  0.1072  0.3914
45063SOL    HW142429   6.818   2.456   8.155  0.6503 -2.1973  0.2420
45063SOL    HW242430   6.698   2.521   8.090  2.6071 -0.0705 -1.3873
45064SOL     OW42431  11.309   6.294   0.652 -0.0416 -0.2835  0.2543
45064SOL    HW142432  11.262   6.348   0.589 -1.0593 -1.8310 -0.3934
45064SOL    HW242433  11.248   6.223   0.672  0.8453 -0.6338  1.8543
45065SOL     OW42434   7.735   0.722   0.119 -1.0843  0.5460  0.4246
45065SOL    HW142435   7.698   0.741   0.032  1.3011  0.5780 -0.6700
45065SOL    HW242436   7.796   0.794   0.135  0.2209 -0.6480  1.0395
45066SOL     OW42437   7.828   6.136   6.840 -0.0624 -0.4664  0.1023
45066SOL    HW142438   7.836   6.223   6.880 -0.2478 -0.4508  0.1030
45066SOL    HW242439   7.901   6.132   6.778 -1.0541  0.3443 -1.1455
45067SOL     OW42440   3.784   8.703  11.131  0.0675  0.8047  0.3519
45067SOL    HW142441   3.702   8.743  11.103 -0.0015  0.8100  0.5609
45067SOL    HW242442   3.824   8.767  11.189  0.6478  1.1827 -0.4388
45068SOL     OW42443   4.052   0.039   5.582 -0.5141  0.6255 -0.3005
45068SOL    HW142444   3.968   0.045   5.537  0.0976  2.2622 -1.2907
45068SOL    HW242445   4.115   0.013   5.515  0.2272  2.0791 -0.2127
45069SOL     OW42446   0.332   4.782   6.196  0.2920  0.3467  0.1135
45069SOL    HW142447   0.254   4.766   6.143  0.3524  1.1266 -0.2229
45069SOL    HW242448   0.309   4.858   6.250 -0.4709 -1.5330  2.6151
45070SOL     OW42449  12.706   7.870   0.764  0.7715  0.2566  0.2798
45070SOL    HW142450  12.779   7.912   0.720  0.6585 -0.9588 -1.1467
45070SOL    HW242451  12.746   7.801   0.817  0.6927 -0.3270 -0.4036
45071SOL     OW42452   1.677   8.615   0.177 -0.1565  0.1803  0.6108
45071SOL    HW142453   1.750   8.672   0.151 -1.0730  1.6539  1.1095
45071SOL    HW242454   1.697   8.591   0.268  0.5152 -0.7956  0.2201
45072SOL     OW42455   8.859  12.432   3.381 -0.6017 -0.3867  0.2787
45072SOL    HW142456   8.915  12.373   3.331 -0.5080 -0.5702  0.5915
45072SOL    HW242457   8.851  12.510   3.327  0.3802 -0.1505  0.4537
45073SOL     OW42458  11.186   8.570   1.827  0.2117  0.0650  0.0670
45073SOL    HW142459  11.093   8.582   1.811 -0.1408 -1.3009  0.9601
45073SOL    HW242460  11.214   8.507   1.761  0.0801 -0.9404  0.9482
45074SOL     OW42461   4.929   9.386   8.163 -0.6077 -0.0064  0.4077
45074SOL    HW142462   4.969   9.356   8.245 -1.9011 -0.9849  0.7107
45074SOL    HW242463   4.890   9.470   8.184 -1.6778 -0.6405  1.0629
45075SOL     OW42464   8.102  11.422   6.862 -0.5369 -0.2920 -0.0616
45075SOL    HW142465   8.043  11.371   6.806  0.2451  0.3020 -1.4870
45075SOL    HW242466   8.145  11.357   6.918 -0.1680 -1.1227 -1.2703
45076SOL     OW42467   5.504   2.237   1.858  0.4601  0.1391 -0.3753
45076SOL    HW142468   5.543   2.324   1.861 -0.8055  0.7408 -0.5601
45076SOL    HW242469   5.493   2.218   1.765  0.6145 -0.1621 -0.3330
45077SOL     OW42470   6.134  11.770   9.337  0.3339 -0.4544  0.5937
45077SOL    HW142471   6.120  11.681   9.304  0.1663  0.1721 -1.1653
45077SOL    HW242472   6.229  11.784   9.331  0.7079 -1.3600  3.3233
45078SOL     OW42473   3.307   7.596   4.186 -0.4180 -0.2982 -0.3084
45078SOL    HW142474   3.384   7.590   4.130  1.1288 -2.0380  1.8156
45078SOL    HW242475   3.248   7.528   4.153 -0.3395 -0.0506 -0.9547
45079SOL     OW42476   6.959   7.453   3.617 -0.2344  0.4157  0.5868
45079SOL    HW142477   7.021   7.409   3.558 -0.6607 -1.7032  1.6188
45079SOL    HW242478   6.923   7.525   3.565 -1.0122 -1.6831 -1.9850
45080SOL     OW42479   8.114   0.979   0.058 -0.4100  0.5921 -0.3585
45080SOL    HW142480   8.025   0.959   0.031 -0.9387 -1.3760  2.4115
45080SOL    HW242481   8.160   1.001  -0.023 -3.3206  1.5330 -1.8865
45081SOL     OW42482   5.568   3.186   9.159 -0.3396 -0.3432 -0.2645
45081SOL    HW142483   5.622   3.264   9.154  0.1708 -0.7680 -2.3381
45081SOL    HW242484   5.489   3.208   9.109 -0.0582 -1.2169 -1.1334
45082SOL     OW42485   1.345   9.363   7.358  0.4758  0.2944  0.5024
45082SOL    HW142486   1.325   9.274   7.330  0.6723  0.6473 -0.8196
45082SOL    HW242487   1.440   9.368   7.355  0.4154  1.3552 -2.2003
45083SOL     OW42488   1.839   6.493  12.367 -0.5892  0.3899  0.2127
45083SOL    HW142489   1.799   6.422  12.417 -1.0917 -0.1687 -0.9529
45083SOL    HW242490   1.912   6.452  12.320 -1.7457  0.2848 -1.5781
45084SOL     OW42491   8.753   2.118  10.954  0.2923 -0.2104 -0.1723
45084SOL    HW142492   8.695   2.129  11.030 -0.0669  0.0119 -0.4707
45084SOL    HW242493   8.840   2.142  10.986 -0.0241  0.8871 -0.0846
45085SOL     OW42494   7.813   1.180  11.065 -0.2750  0.1228  0.4563
45085SOL    HW142495   7.882   1.218  11.011 -0.5572  1.1443  0.8082
45085SOL    HW242496   7.732   1.201  11.018 -0.4215 -0.2236  0.5511
45086SOL     OW42497   6.987   9.082   0.551 -0.3912 -0.0238 -0.2783
45086SOL    HW142498   7.040   9.108   0.475 -0.6081 -0.2824 -0.5214
45086SOL    HW242499   7.024   9.131   0.624  1.1372 -1.2719 -0.1547
45087SOL     OW42500   1.122   4.417   0.847 -0.0437 -0.1147  0.0583
45087SOL    HW142501   1.104   4.511   0.849 -2.7648 -0.5290  1.8753
45087SOL    HW242502   1.128   4.395   0.754 -0.9047  1.6224 -0.4504
45088SOL     OW42503   8.266   7.875   9.479  0.1823 -0.3363  0.2434
45088SOL    HW142504   8.203   7.815   9.518  1.4916 -0.8697  1.6551
45088SOL    HW242505   8.221   7.959   9.476 -0.4678 -0.6145  1.5902
45089SOL     OW42506   2.611   1.371   7.927  0.1523 -0.0553 -0.0788
45089SOL    HW142507   2.634   1.293   7.979 -1.2595  0.4157  1.3353
45089SOL    HW242508   2.568   1.429   7.989 -3.0222 -0.0672 -2.0095
45090SOL     OW42509   4.276   2.121   1.923  0.1048 -0.4474  0.1703
45090SOL    HW142510   4.312   2.065   1.854  1.4031 -0.3309  0.7378
45090SOL    HW242511   4.324   2.203   1.914  0.4991 -0.5328  1.4036
45091SOL     OW42512  10.419   4.493   6.088  0.0140 -0.3980  0.4626
45091SOL    HW142513  10.387   4.531   6.170 -0.6052 -0.1942  0.1360
45091SOL    HW242514  10.513   4.479   6.102  0.2747  1.3059  0.5768
45092SOL     OW42515   7.952   4.616   6.134  0.2254  0.1234  0.0188
45092SOL    HW142516   8.016   4.557   6.094 -0.8206 -0.6175 -0.6209
45092SOL    HW242517   8.004   4.688   6.170  1.3671 -0.2127 -0.9104
45093SOL     OW42518   9.042   6.537   8.812  0.1648  0.6390  0.6931
45093SOL    HW142519   8.983   6.594   8.861  0.1892  1.5869 -0.3347
45093SOL    HW242520   9.061   6.464   8.872 -1.0965  0.9160  1.4670
45094SOL     OW42521   7.683  11.113   6.870  0.0914  0.0619  0.0884
45094SOL    HW142522   7.654  11.036   6.821 -0.4799 -1.1053  2.1637
45094SOL    HW242523   7.771  11.091   6.900  0.0958  0.4017  0.3361
45095SOL     OW42524   4.960   7.662  11.595 -0.5113 -0.0937 -0.2420
45095SOL    HW142525   4.917   7.730  11.543 -3.3022 -1.8003 -0.3641
45095SOL    HW242526   5.047   7.654  11.556 -0.9594  1.6946 -1.7733
45096SOL     OW42527   8.478   6.705   9.447 -0.1767 -0.3769  0.2214
45096SOL    HW142528   8.486   6.749   9.531  0.1480 -0.3220  0.1622
45096SOL    HW242529   8.465   6.612   9.469  1.9272 -0.6807  0.3154
45097SOL     OW42530   1.966   9.839   0.260  0.1723 -0.8672  0.2468
45097SOL    HW142531   2.018   9.786   0.199  0.5501 -1.1836  0.8368
45097SOL    HW242532   1.998   9.929   0.247  2.7401 -1.3654  2.4112
45098SOL     OW42533   4.874   6.699  10.922  0.0286  0.0378 -0.0265
45098SOL    HW142534   4.915   6.785  10.927 -0.4230  0.4506 -2.3627
45098SOL    HW242535   4.809   6.699  10.993  0.9262  1.0962  0.8261
45099SOL     OW42536   7.833   5.175   3.407  0.2526 -0.3983  0.6264
45099SOL    HW142537   7.826   5.257   3.456  1.7425 -0.2220  0.5784
45099SOL    HW242538   7.786   5.111   3.461  0.9145  0.0313  1.7329
45100SOL     OW42539   9.129   6.789   1.635 -0.0472 -0.0174 -0.0030
45100SOL    HW142540   9.078   6.784   1.554 -0.5556  0.1235  0.3026
45100SOL    HW242541   9.068   6.763   1.704  0.7800 -1.5853  0.1931
45101SOL     OW42542   4.318   0.666   2.621  0.7333 -0.8290  0.6293
45101SOL    HW142543   4.412   0.668   2.601  0.9316  0.2759  1.5496
45101SOL    HW242544   4.277   0.637   2.540  1.8661 -1.2373  0.1802
45102SOL     OW42545   1.928  11.066   5.554  0.1270  0.0018  0.2085
45102SOL    HW142546   1.892  10.995   5.606 -1.5741  0.6073 -0.0860
45102SOL    HW242547   2.019  11.073   5.582 -0.1862 -1.0649  1.5661
45103SOL     OW42548   0.364  11.807   0.886  0.0059  0.6303  0.3877
45103SOL    HW142549   0.349  11.713   0.877  1.9265  0.0003  2.7315
45103SOL    HW242550   0.295  11.837   0.946 -1.1081  0.9542 -0.9909
45104SOL     OW42551   4.352   5.788  11.921  0.3182 -0.1178  0.0203
45104SOL    HW142552   4.268   5.803  11.963  1.0879  1.4631  1.0979
45104SOL    HW242553   4.400   5.733  11.982  1.2306  1.7226  1.0617
45105SOL     OW42554  12.633   3.306  11.754  0.6506 -0.5916 -0.3851
45105SOL    HW142555  12.564   3.307  11.687  1.0777  2.4653 -0.8981
45105SOL    HW242556  12.690   3.379  11.731  2.4530 -1.2262  1.7174
45106SOL     OW42557   0.675   2.410   2.364 -0.1791 -0.5918  0.1609
45106SOL    HW142558   0.696   2.431   2.455  0.9290  1.9979 -0.6051
45106SOL    HW242559   0.739   2.344   2.338  1.6578  1.0146  0.3773
45107SOL     OW42560   9.932  10.549   0.084 -1.0727  0.1901  0.2261
45107SOL    HW142561   9.989  10.531   0.159 -1.9908  2.0555  1.4518
45107SOL    HW242562   9.982  10.611   0.030 -1.0363  0.0751  0.1288
45108SOL     OW42563   4.309   2.717   3.910 -0.4137  0.5640 -0.0528
45108SOL    HW142564   4.401   2.739   3.923 -0.3175  0.0732  0.0993
45108SOL    HW242565   4.306   2.673   3.825 -0.0943 -1.7630  1.0750
45109SOL     OW42566   0.486  10.913   0.173  0.2372 -0.0839  0.2107
45109SOL    HW142567   0.476  10.834   0.120  3.1873  0.6829 -1.7151
45109SOL    HW242568   0.415  10.907   0.238 -0.7553 -3.3547 -0.9549
45110SOL     OW42569   2.459  12.437   7.321  0.1013  0.6041  0.4734
45110SOL    HW142570   2.382  12.454   7.267 -0.7309 -2.6099  0.4417
45110SOL    HW242571   2.529  12.420   7.257 -0.0326  0.1191  0.4561
45111SOL     OW42572   6.403   9.812   1.507 -0.0670  0.2290  0.0587
45111SOL    HW142573   6.389   9.789   1.598 -0.1841  1.8256  0.4768
45111SOL    HW242574   6.430   9.730   1.465  0.9803 -0.3331  1.7261
45112SOL     OW42575   1.342   5.430  12.324  0.5313 -0.2150  0.1252
45112SOL    HW142576   1.421   5.471  12.358 -0.9675  2.0216  1.1438
45112SOL    HW242577   1.288   5.414  12.402 -0.5270 -0.5321 -0.6500
45113SOL     OW42578   8.878   8.713   4.624 -0.6744  0.0301  0.7762
45113SOL    HW142579   8.856   8.788   4.569  0.2231  0.4970  1.0215
45113SOL    HW242580   8.897   8.643   4.562  2.0073  1.0102  0.3331
45114SOL     OW42581   2.012   3.479   7.857 -0.3175 -0.0516 -0.3675
45114SOL    HW142582   1.948   3.410   7.873 -0.1989  0.1921  1.4495
45114SOL    HW242583   2.090   3.451   7.904  0.9077 -0.2664 -2.4185
45115SOL     OW42584  11.236   7.526   3.380  0.2082 -0.4448  0.6021
45115SOL    HW142585  11.331   7.520   3.371  0.0607 -1.5872 -0.3924
45115SOL    HW242586  11.207   7.575   3.304  0.0337  0.3609  1.1747
45116SOL     OW42587   0.849   4.366   8.811 -0.0007  0.5604 -0.3019
45116SOL    HW142588   0.755   4.369   8.832 -0.1601  1.0737 -1.0480
45116SOL    HW242589   0.857   4.417   8.730  0.6709 -0.9344 -1.2186
45117SOL     OW42590   3.519   7.124  10.988  0.0380  0.0348 -0.2244
45117SOL    HW142591   3.462   7.118  11.065  0.7661  0.0497  0.3198
45117SOL    HW242592   3.598   7.169  11.019  0.7338 -0.7928 -0.7445
45118SOL     OW42593  10.770   7.428   5.270 -0.0320  0.2613  0.4733
45118SOL    HW142594  10.865   7.417   5.276 -0.2244 -1.3214  1.0526
45118SOL    HW242595  10.758   7.509   5.221  1.6219  0.1022 -0.2415
45119SOL     OW42596   6.811   2.663   8.979  0.3082  0.3276 -0.0427
45119SOL    HW142597   6.881   2.610   8.940 -0.0319 -0.5735  0.5478
45119SOL    HW242598   6.817   2.646   9.073  0.0029  1.1169  0.1250
45120SOL     OW42599   6.915  10.344  10.734 -0.4588 -0.4995 -0.1772
45120SOL    HW142600   6.830  10.315  10.700 -1.1004 -1.5521  2.1027
45120SOL    HW242601   6.955  10.264  10.769  0.7181  0.2819  0.3070
45121SOL     OW42602  11.108  10.691   4.831  0.3453  0.2967  0.2843
45121SOL    HW142603  11.044  10.690   4.760  0.7674 -1.0852 -0.1110
45121SOL    HW242604  11.093  10.608   4.878  2.9929 -1.0014 -0.9347
45122SOL     OW42605   0.826   0.222   9.952  0.1901  0.5874  0.0778
45122SOL    HW142606   0.738   0.213   9.989 -0.5511 -0.0036 -1.7329
45122SOL    HW242607   0.836   0.316   9.940  0.7601  0.8950  2.3541
45123SOL     OW42608   1.494   9.691  10.427 -0.0126 -0.1664 -0.2500
45123SOL    HW142609   1.563   9.734  10.477 -1.3975  1.5020  0.3299
45123SOL    HW242610   1.498   9.732  10.341  0.5147 -0.9811 -0.6249
45124SOL     OW42611   4.219   7.685  11.865  0.3077 -0.2376 -0.0964
45124SOL    HW142612   4.240   7.641  11.948  0.2246 -1.5609 -0.7502
45124SOL    HW242613   4.204   7.776  11.890  0.8302 -0.4895  1.2628
45125SOL     OW42614   8.940   4.398   9.142  0.3023 -0.7716  0.1486
45125SOL    HW142615   8.944   4.308   9.174  0.8246 -0.3291  1.4465
45125SOL    HW242616   8.956   4.451   9.221 -2.6183  0.5595 -0.0272
45126SOL     OW42617   1.373   6.739   0.176 -0.4157 -0.1411  0.3463
45126SOL    HW142618   1.391   6.728   0.082  0.6491 -0.4093  0.5678
45126SOL    HW242619   1.342   6.653   0.205 -0.1117 -0.2455  0.3683
45127SOL     OW42620   7.929  12.660   2.023 -0.7801  0.4381  0.5763
45127SOL    HW142621   7.983  12.734   1.997 -0.5970 -0.0145 -0.3798
45127SOL    HW242622   7.955  12.589   1.964 -0.6685 -0.5090  1.7309
45128SOL     OW42623   3.571   5.241   7.055  0.0398  0.4476 -1.1560
45128SOL    HW142624   3.636   5.188   7.101 -0.3369  0.5696 -0.4730
45128SOL    HW242625   3.614   5.325   7.040  0.3055  0.2717 -1.3916
45129SOL     OW42626   6.927   6.186   3.142  0.0385  0.5973  0.0309
45129SOL    HW142627   6.973   6.154   3.063  1.9240 -0.7359  1.5664
45129SOL    HW242628   6.904   6.277   3.121  2.9270  1.1811 -1.1200
45130SOL     OW42629   3.636   6.260   9.349 -0.0640  0.2575  0.4879
45130SOL    HW142630   3.570   6.273   9.417 -0.5854  0.9153 -0.1296
45130SOL    HW242631   3.608   6.180   9.304 -1.2926  1.3173 -0.7035
45131SOL     OW42632   5.873   6.647   6.639  0.3854  0.2133 -0.2371
45131SOL    HW142633   5.828   6.692   6.567  1.6176  0.8456 -0.6280
45131SOL    HW242634   5.888   6.715   6.705  0.1407 -0.1528  0.2062
45132SOL     OW42635   1.692  10.100  11.633  0.1418  0.4875 -0.1433
45132SOL    HW142636   1.700  10.031  11.567 -1.0155  0.3551 -0.1611
45132SOL    HW242637   1.641  10.059  11.703  1.9811  0.3685  1.2054
45133SOL     OW42638   8.269   4.941   4.666  0.1607  0.5715 -0.0634
45133SOL    HW142639   8.336   4.985   4.613  0.2745 -0.1850 -0.5620
45133SOL    HW242640   8.211   4.900   4.602  0.7857 -1.0961  0.3817
45134SOL     OW42641   1.423   3.033   0.536  0.0682  0.4864 -0.1819
45134SOL    HW142642   1.342   3.061   0.579  0.9003  1.8076  0.5971
45134SOL    HW242643   1.426   3.084   0.455  1.2999  2.3394  0.9641
45135SOL     OW42644   8.560  11.536   1.747  0.0875 -0.0705 -0.1645
45135SOL    HW142645   8.555  11.460   1.689 -1.1470 -0.7095  0.7317
45135SOL    HW242646   8.573  11.610   1.688  2.2710 -1.0429 -0.9961
45136SOL     OW42647   2.912   3.948   6.134 -0.7312  0.2899  0.3601
45136SOL    HW142648   2.875   3.951   6.046 -0.1213  0.1768  0.0907
45136SOL    HW242649   2.981   4.015   6.133 -1.1851  0.7749  0.9731
45137SOL     OW42650  12.536  11.923  12.647  0.0212 -0.4464 -0.4690
45137SOL    HW142651  12.569  12.013  12.650  0.9251 -0.7867 -0.0200
45137SOL    HW242652  12.448  11.932  12.610  0.6216  0.4750 -1.7729
45138SOL     OW42653   4.121  12.692   1.258  0.4355 -0.3462 -0.0760
45138SOL    HW142654   4.056  12.720   1.193  2.1081  2.1767 -0.7841
45138SOL    HW242655   4.112  12.754   1.330  0.1348 -1.7705  1.1777
45139SOL     OW42656   0.790   3.473   4.102 -0.1355 -0.4669  0.3816
45139SOL    HW142657   0.789   3.508   4.192 -1.2924  0.7454 -0.0583
45139SOL    HW242658   0.718   3.409   4.101  1.0633 -1.8738  0.7910
45140SOL     OW42659   7.472   6.060   2.680  0.6718  0.0866  0.1810
45140SOL    HW142660   7.512   6.038   2.764  0.9458  1.0515  0.3098
45140SOL    HW242661   7.545   6.086   2.624  0.4479 -0.1618 -0.2344
45141SOL     OW42662   3.177   7.047   7.395  0.9010  0.0467 -0.0399
45141SOL    HW142663   3.231   7.109   7.346 -0.4094  1.5121  0.2756
45141SOL    HW242664   3.187   6.965   7.348  1.0969  0.9798 -1.7320
45142SOL     OW42665  12.629  11.413   4.704  0.4368  0.3908 -0.1557
45142SOL    HW142666  12.652  11.472   4.777 -1.4766  3.2735 -1.7180
45142SOL    HW242667  12.711  11.403   4.656  0.8443  1.8133  0.1743
45143SOL     OW42668  12.428   1.928   3.284  0.1611 -0.3130 -0.0054
45143SOL    HW142669  12.396   1.997   3.343  0.2040 -0.2563 -0.0479
45143SOL    HW242670  12.517   1.911   3.315  0.2393 -0.1699 -0.1566
45144SOL     OW42671   8.692   3.879   5.282 -0.6467 -0.3514  0.3172
45144SOL    HW142672   8.681   3.784   5.284  1.8912 -0.7156  0.4817
45144SOL    HW242673   8.603   3.914   5.282 -1.6996 -2.7355 -1.6552
45145SOL     OW42674   4.042   3.366   0.698  0.1836 -0.0458 -0.2107
45145SOL    HW142675   4.123   3.326   0.729  1.3654  2.2382 -0.1557
45145SOL    HW242676   4.036   3.449   0.746 -2.4992 -0.3692  0.1788
45146SOL     OW42677   9.310   0.360   3.011 -0.1297 -0.3294  0.6664
45146SOL    HW142678   9.379   0.368   3.076  0.0276  0.0903  0.4471
45146SOL    HW242679   9.336   0.284   2.958 -0.4259 -0.8747  1.2828
45147SOL     OW42680   7.563   9.889   5.438  0.8898 -0.4174 -0.2981
45147SOL    HW142681   7.499   9.959   5.456  1.6308  0.4069 -0.7786
45147SOL    HW242682   7.636   9.934   5.395  1.9217 -1.2958  0.4945
45148SOL     OW42683   3.160   7.444   0.988  0.2803 -0.3798 -0.0062
45148SOL    HW142684   3.109   7.385   0.932 -0.2554  1.2384 -1.3203
45148SOL    HW242685   3.097   7.509   1.019  1.1085  0.3413  0.2152
45149SOL     OW42686   7.005   5.886   9.747 -0.0335 -0.1151  0.1508
45149SOL    HW142687   7.080   5.894   9.805  0.5980 -0.9320 -0.5253
45149SOL    HW242688   7.002   5.793   9.724  1.0919  0.4719 -2.8347
45150SOL     OW42689   7.513   4.807   0.220 -0.4412  0.6182 -0.2805
45150SOL    HW142690   7.507   4.790   0.314 -0.4349  3.1631  0.2729
45150SOL    HW242691   7.583   4.873   0.213 -0.3222  0.3418 -2.1045
45151SOL     OW42692  10.019  10.801   7.746  0.3098  0.1745 -0.0222
45151SOL    HW142693  10.081  10.861   7.787  0.2780  0.4258 -0.3313
45151SOL    HW242694   9.942  10.856   7.728  1.4224  0.8722 -3.1871
45152SOL     OW42695  12.282   4.126   0.336 -0.5343 -0.0954  0.3013
45152SOL    HW142696  12.212   4.190   0.329  1.0544  1.7261  0.4058
45152SOL    HW242697  12.279   4.097   0.428  0.2962  1.7549  0.9551
45153SOL     OW42698   2.686   9.972   4.039  0.4443 -0.1396 -0.4730
45153SOL    HW142699   2.739   9.892   4.034  0.5599 -0.1341  0.5773
45153SOL    HW242700   2.744  10.036   4.080  0.5042  0.6279 -1.7086
45154SOL     OW42701   2.726   1.388   9.519  0.5979  0.1782 -0.0336
45154SOL    HW142702   2.631   1.396   9.507  0.6848  1.0267 -0.2542
45154SOL    HW242703   2.738   1.302   9.558 -0.2578  0.0222 -0.0859
45155SOL     OW42704  12.122   9.628  11.377  0.2715  0.7347 -0.3928
45155SOL    HW142705  12.209   9.597  11.349  0.0744 -0.3406  0.1363
45155SOL    HW242706  12.115   9.716  11.339  1.9106  1.1517  0.1855
45156SOL     OW42707   1.962  10.402   6.862  0.2876  0.6855  0.0546
45156SOL    HW142708   1.958  10.421   6.768 -1.0860  0.4579  0.0477
45156SOL    HW242709   1.928  10.482   6.904  0.7939  0.7461  0.3543
45157SOL     OW42710  11.121   3.845   5.620  0.4437  0.1415 -0.0228
45157SOL    HW142711  11.072   3.776   5.666  1.5272 -0.3209  0.4780
45157SOL    HW242712  11.188   3.798   5.571  2.1753  0.8755  1.5083
45158SOL     OW42713  10.926   4.522   9.260 -0.2517 -0.4709 -0.1637
45158SOL    HW142714  10.919   4.430   9.237 -1.3193 -0.8678  1.6370
45158SOL    HW242715  10.996   4.555   9.203  1.6841 -2.8806  0.6737
45159SOL     OW42716  12.120   3.334   7.980 -0.0450  0.0618  0.4851
45159SOL    HW142717  12.093   3.334   7.888  2.4694 -2.2896 -0.4279
45159SOL    HW242718  12.214   3.353   7.977 -0.2743  1.9923  2.8241
45160SOL     OW42719   8.721   9.144   4.156 -0.4196  0.5613 -0.7666
45160SOL    HW142720   8.672   9.225   4.147  1.8799  1.8922 -2.2557
45160SOL    HW242721   8.708   9.100   4.072  1.3476  1.2274 -1.4245
45161SOL     OW42722   1.886   0.571  10.758  0.2136 -0.2364 -0.2891
45161SOL    HW142723   1.921   0.606  10.840  1.9083  0.2082 -1.1554
45161SOL    HW242724   1.866   0.648  10.706  4.5715 -0.2646 -2.4682
45162SOL     OW42725   0.521  10.389   8.466 -0.4815 -0.1918  0.1563
45162SOL    HW142726   0.460  10.409   8.536 -0.7230  2.9371 -0.7988
45162SOL    HW242727   0.468  10.387   8.387  0.3008  0.2074 -0.3981
45163SOL     OW42728   1.366  11.788  10.611  0.3535 -0.0915 -0.4917
45163SOL    HW142729   1.457  11.772  10.635 -0.3807 -1.3239  1.6965
45163SOL    HW242730   1.351  11.733  10.535  1.1794 -0.5834 -0.3064
45164SOL     OW42731   6.972  10.733   8.978 -0.1025 -0.1281 -0.0834
45164SOL    HW142732   6.931  10.682   9.047 -1.6245  1.2671  0.1158
45164SOL    HW242733   7.034  10.790   9.024 -0.1183 -0.1516 -0.0331
45165SOL     OW42734  11.133  11.131  12.524  0.0010 -0.0829  0.2457
45165SOL    HW142735  11.186  11.055  12.548  1.6601  1.2795  1.1792
45165SOL    HW242736  11.154  11.147  12.432  0.4286 -0.1785  0.3244
45166SOL     OW42737   6.313  11.127   2.045  0.2845 -0.7756 -0.3303
45166SOL    HW142738   6.327  11.039   2.011  0.6313 -0.9452  0.2498
45166SOL    HW242739   6.386  11.178   2.011  0.9848 -1.0920  0.6615
45167SOL     OW42740  11.146   5.303   4.150  0.1979 -0.0768  0.2953
45167SOL    HW142741  11.179   5.317   4.062  0.0162 -0.2275  0.2041
45167SOL    HW242742  11.110   5.215   4.150 -1.7726  0.6694 -0.1175
45168SOL     OW42743   1.293   5.662   6.765 -0.5787  0.0191 -0.2565
45168SOL    HW142744   1.302   5.618   6.849  1.5151  0.2337 -0.3319
45168SOL    HW242745   1.277   5.754   6.787 -0.7639 -0.0460 -0.1132
45169SOL     OW42746   1.488   1.404   9.237 -0.0041  0.3312 -0.2009
45169SOL    HW142747   1.443   1.358   9.166 -0.0843 -0.5367  0.3978
45169SOL    HW242748   1.422   1.464   9.272 -0.3270 -0.0755 -0.1074
45170SOL     OW42749  10.531   0.513  12.332 -0.4166  0.2261 -0.4569
45170SOL    HW142750  10.454   0.460  12.354  0.0897 -0.2298  0.2872
45170SOL    HW242751  10.513   0.598  12.373  1.2588 -1.0903  3.6148
45171SOL     OW42752  10.978   8.009  10.128 -0.3496  0.1293 -0.2497
45171SOL    HW142753  10.976   8.001  10.224 -0.3626  0.0885 -0.2538
45171SOL    HW242754  10.896   8.053  10.106  0.6829  2.2777 -0.0472
45172SOL     OW42755  11.019   2.639   3.873  0.2705 -0.1443  0.0640
45172SOL    HW142756  11.101   2.605   3.836  0.9907  2.1464 -0.6456
45172SOL    HW242757  11.040   2.659   3.964  0.4408  0.2151 -0.0520
45173SOL     OW42758   0.509   2.131   8.982  0.0762 -0.3653 -0.1128
45173SOL    HW142759   0.546   2.210   9.023  0.4989 -0.8619  0.4987
45173SOL    HW242760   0.577   2.065   8.995  0.7124 -0.3013 -2.6059
45174SOL     OW42761   4.857   6.230  11.963 -0.1067 -0.7655  0.1137
45174SOL    HW142762   4.872   6.247  12.056 -0.4097 -2.6959  0.5445
45174SOL    HW242763   4.836   6.137  11.958  1.8381 -1.1770 -2.1242
45175SOL     OW42764   4.921   5.566   5.021 -0.4610  0.3141 -0.4504
45175SOL    HW142765   4.868   5.488   5.039 -2.3724  2.0138  2.1126
45175SOL    HW242766   4.999   5.555   5.075 -1.5411  0.8615  1.3120
45176SOL     OW42767   1.800   5.176   8.374  0.4479  0.2986  0.3989
45176SOL    HW142768   1.708   5.182   8.399  0.0745  2.1288 -1.1783
45176SOL    HW242769   1.829   5.267   8.366  2.2139 -0.2380  0.2033
45177SOL     OW42770   0.606   2.029  11.825  0.1230  0.2496  0.2357
45177SOL    HW142771   0.554   2.099  11.864 -1.4783 -0.1523 -1.0490
45177SOL    HW242772   0.644   2.067  11.747 -0.3943 -0.1574 -0.2280
45178SOL     OW42773   4.981   2.438   1.406 -0.6026 -0.0714  0.6879
45178SOL    HW142774   5.018   2.526   1.409 -0.9498  0.0709  2.4349
45178SOL    HW242775   4.932   2.434   1.324 -0.3423  1.2629  0.4555
45179SOL     OW42776   1.012   5.961   5.584  0.0872 -0.0877  0.3990
45179SOL    HW142777   0.931   5.998   5.618  0.8201 -0.2243  2.4256
45179SOL    HW242778   1.064   6.037   5.556 -1.7793 -0.0745 -3.7859
45180SOL     OW42779   7.278   1.734   0.768 -0.2180  0.2620 -0.2421
45180SOL    HW142780   7.334   1.809   0.787  0.1577 -0.5487  2.1746
45180SOL    HW242781   7.328   1.658   0.798 -0.7164 -0.9918 -2.3238
45181SOL     OW42782  11.636   2.391   7.826  0.1917 -0.3158  0.2371
45181SOL    HW142783  11.607   2.445   7.899  0.2919 -1.7576  1.3847
45181SOL    HW242784  11.656   2.306   7.865  2.6479 -0.4173 -1.0452
45182SOL     OW42785  11.934   6.296   9.001  0.6489  0.1397 -0.0128
45182SOL    HW142786  11.904   6.267   9.087  1.0533  1.5473  0.6390
45182SOL    HW242787  11.959   6.388   9.014  1.3956  0.1759 -1.4645
45183SOL     OW42788   1.287   5.361  12.613 -0.1659 -0.4816 -0.1025
45183SOL    HW142789   1.321   5.373  12.702  1.1723  0.7856 -0.7364
45183SOL    HW242790   1.205   5.409  12.612  0.7005  1.0608 -0.0271
45184SOL     OW42791   0.342   7.004  12.416 -0.0027  0.0262  0.0254
45184SOL    HW142792   0.386   6.968  12.493  0.2158  0.9477  0.3329
45184SOL    HW242793   0.264   7.047  12.450  0.8629  1.7420 -0.0868
45185SOL     OW42794   4.130   7.704   1.790 -0.1170  0.1852 -0.1675
45185SOL    HW142795   4.165   7.775   1.843 -1.1974  0.3699  0.3322
45185SOL    HW242796   4.065   7.661   1.846  1.7721 -2.4108  0.2408
45186SOL     OW42797   8.476   1.372   3.330 -0.9891 -0.4690 -0.3840
45186SOL    HW142798   8.448   1.456   3.293 -1.2599 -0.4857 -0.2191
45186SOL    HW242799   8.561   1.354   3.288  0.8143  1.5664  2.0907
45187SOL     OW42800   2.752   9.543  12.459 -0.2516 -0.4097  0.1529
45187SOL    HW142801   2.733   9.611  12.524  1.2887 -0.0055  0.2288
45187SOL    HW242802   2.848   9.537  12.458 -0.3084 -1.6035 -0.8686
45188SOL     OW42803   5.303   2.510  11.945  0.3689 -0.1823  0.0884
45188SOL    HW142804   5.258   2.427  11.926  0.5775 -0.1989 -0.3378
45188SOL    HW242805   5.255   2.546  12.020 -0.6680  0.0324 -0.6461
45189SOL     OW42806   8.643   2.195   2.114  0.3243 -0.7137  0.3874
45189SOL    HW142807   8.567   2.147   2.082  1.0888  0.0878 -2.9615
45189SOL    HW242808   8.605   2.266   2.167 -1.0748 -1.7616  0.8555
45190SOL     OW42809  10.536   7.462   3.327  0.3802 -0.3478  0.4155
45190SOL    HW142810  10.552   7.556   3.334  2.5694 -0.4332 -1.9987
45190SOL    HW242811  10.493   7.451   3.242 -0.0794 -1.5379  0.7711
45191SOL     OW42812   7.238  11.375   4.566 -0.3435 -0.3245 -0.7786
45191SOL    HW142813   7.172  11.420   4.620  2.4527 -0.8482  3.5828
45191SOL    HW242814   7.251  11.434   4.491 -2.3104  2.1983  0.6698
45192SOL     OW42815   9.709  10.223   0.085 -0.3230  0.1120  0.3249
45192SOL    HW142816   9.618  10.244   0.107 -0.5881  0.6986 -1.2282
45192SOL    HW242817   9.739  10.297   0.032  0.6862 -0.6133 -0.1619
45193SOL     OW42818   6.367   6.756  10.302  0.3610 -0.2798 -0.0773
45193SOL    HW142819   6.276   6.732  10.322  0.5238 -0.4143  0.5088
45193SOL    HW242820   6.390   6.702  10.227 -0.1370 -0.0417 -0.4071
45194SOL     OW42821   5.084   1.622   4.896  0.4386  0.1877 -0.3837
45194SOL    HW142822   5.004   1.666   4.925  0.7707  0.9193 -0.5468
45194SOL    HW242823   5.138   1.616   4.975  0.4160  0.1352 -0.3730
45195SOL     OW42824   2.457  12.539   4.980 -0.1317  0.3050 -0.1100
45195SOL    HW142825   2.407  12.461   4.955 -1.3705  0.5543  1.4595
45195SOL    HW242826   2.398  12.588   5.037  1.7190  0.8844  1.3760
45196SOL     OW42827  10.370   7.747  11.703  0.1495 -0.7083  0.0632
45196SOL    HW142828  10.354   7.687  11.630  0.1840 -0.7644  0.1013
45196SOL    HW242829  10.435   7.701  11.757  1.1075 -0.1074 -0.5428
45197SOL     OW42830  11.156   2.971   0.270 -0.3686  0.8713 -0.0660
45197SOL    HW142831  11.234   3.018   0.239  0.2536  0.9366  1.4921
45197SOL    HW242832  11.187   2.924   0.348 -1.5012 -0.4202 -0.3714
45198SOL     OW42833   3.248   5.398  12.576  0.0500  0.0902 -1.2728
45198SOL    HW142834   3.187   5.470  12.561 -1.8794 -1.8725 -3.7199
45198SOL    HW242835   3.253   5.391  12.672 -2.6164  1.1452 -0.9481
45199SOL     OW42836   1.083   9.975   4.578 -0.4026 -0.3661 -0.0397
45199SOL    HW142837   1.165   9.974   4.530  0.7371  0.5740  1.7640
45199SOL    HW242838   1.040  10.056   4.551  0.8881  0.8859  1.4585
45200SOL     OW42839  12.288   0.824   2.261 -0.0144  0.7967 -0.1431
45200SOL    HW142840  12.208   0.842   2.211  0.2184 -0.3431 -0.9514
45200SOL    HW242841  12.256   0.801   2.348 -0.6619 -0.6560 -0.7381
45201SOL     OW42842  12.439   8.053  11.033  0.6647  0.2866  0.1778
45201SOL    HW142843  12.417   7.974  10.983  0.0712  0.3669  0.3049
45201SOL    HW242844  12.382   8.121  10.998  2.4332  1.1505 -1.1933
45202SOL     OW42845   2.828  10.422  10.093  0.3584  0.0797  0.3583
45202SOL    HW142846   2.878  10.425  10.175 -0.8747 -1.8617  1.2513
45202SOL    HW242847   2.857  10.500  10.045  3.5616 -0.4265  1.1860
45203SOL     OW42848  12.111   2.240   7.621 -1.0769 -0.2119  0.2570
45203SOL    HW142849  12.045   2.185   7.663 -0.6455  1.0707  2.8466
45203SOL    HW242850  12.065   2.321   7.600 -0.9397 -0.3194 -0.4845
45204SOL     OW42851   8.063   5.243   7.494  0.3223  0.0886  0.3643
45204SOL    HW142852   8.125   5.197   7.438 -0.5356  1.2297 -1.6303
45204SOL    HW242853   8.032   5.176   7.556  1.0510 -1.3203 -0.7326
45205SOL     OW42854   5.767   2.643   3.833  0.0062  0.0947 -0.0209
45205SOL    HW142855   5.678   2.675   3.822 -0.0727 -0.1368 -0.0706
45205SOL    HW242856   5.796   2.622   3.745  0.0366 -0.0193  0.0162
45206SOL     OW42857   2.311   7.384   5.007 -0.2582 -0.2000  0.3089
45206SOL    HW142858   2.377   7.438   4.965 -0.6493 -1.1696 -1.6472
45206SOL    HW242859   2.231   7.437   5.006 -0.4199 -0.4419 -0.7886
45207SOL     OW42860   6.477   8.265   1.971 -0.5175  0.2676 -0.6070
45207SOL    HW142861   6.405   8.203   1.974  0.2467 -0.7768 -2.4504
45207SOL    HW242862   6.520   8.257   2.057 -1.6727 -0.1827 -0.0590
45208SOL     OW42863   2.688   7.700   1.972  0.3438 -0.4025  0.7132
45208SOL    HW142864   2.736   7.666   1.897  1.0725 -1.3022  1.5519
45208SOL    HW242865   2.659   7.787   1.945 -0.9759 -1.3648 -1.2642
45209SOL     OW42866   3.239   0.019   3.177  0.3726 -0.7837  0.1277
45209SOL    HW142867   3.267  -0.017   3.261  0.2203 -1.4532 -0.0937
45209SOL    HW242868   3.316   0.061   3.141  0.1397  0.5554  1.1235
45210SOL     OW42869   3.191  10.793   0.848  0.3143 -0.1150  0.1682
45210SOL    HW142870   3.159  10.748   0.770  0.4968  3.1802 -2.0061
45210SOL    HW242871   3.117  10.846   0.878  0.8736  0.2483  0.9703
45211SOL     OW42872   0.250   6.203   3.742 -0.4990 -0.6842  0.3355
45211SOL    HW142873   0.206   6.222   3.659 -0.0357 -0.1422  0.2062
45211SOL    HW242874   0.252   6.108   3.747  2.5524 -0.8969 -1.9969
45212SOL     OW42875   7.940   1.458   4.506  0.0191 -0.0926  0.3991
45212SOL    HW142876   7.912   1.548   4.522  1.2723  0.2570  0.7798
45212SOL    HW242877   7.877   1.424   4.443 -0.1536  1.2457 -0.1945
45213SOL     OW42878   1.148   3.647   0.805  0.1726  0.0073  0.2495
45213SOL    HW142879   1.083   3.621   0.870 -1.0489  0.5628 -0.7154
45213SOL    HW242880   1.178   3.564   0.767 -2.0882 -0.2104 -1.2640
45214SOL     OW42881   1.315   6.894   2.745 -0.0921  0.5881 -0.1533
45214SOL    HW142882   1.332   6.808   2.708 -0.5047 -0.0208  1.0261
45214SOL    HW242883   1.237   6.882   2.801 -1.2664  2.1264 -1.3603
45215SOL     OW42884   8.697   0.621   2.047 -0.5653 -0.0986 -0.5560
45215SOL    HW142885   8.752   0.694   2.019 -3.5395  2.7815  0.4722
45215SOL    HW242886   8.700   0.623   2.142 -2.6356  0.4191 -0.4506
45216SOL     OW42887   5.387   5.408   8.659 -0.2073  0.1279 -0.5092
45216SOL    HW142888   5.365   5.467   8.587 -0.0502  0.2165 -0.4850
45216SOL    HW242889   5.385   5.321   8.620  1.6552  0.2884 -1.0812
45217SOL     OW42890   6.517   2.533   4.157  0.4198  0.0618 -0.1746
45217SOL    HW142891   6.546   2.557   4.069  2.2016  0.8029  0.5580
45217SOL    HW242892   6.571   2.458   4.181  1.2117  0.9358  0.9077
45218SOL     OW42893  12.325   9.946   5.027 -0.0546  0.3013 -0.2393
45218SOL    HW142894  12.246   9.918   5.073  1.4131 -1.1452  1.5875
45218SOL    HW242895  12.362  10.014   5.083  0.3316  0.4875 -0.7152
45219SOL     OW42896   2.807  10.371   7.211 -0.2983 -0.2358 -0.1261
45219SOL    HW142897   2.766  10.452   7.178 -0.7479 -0.3163  0.2239
45219SOL    HW242898   2.788  10.306   7.144 -0.1879 -0.1209 -0.2706
45220SOL     OW42899   9.213   7.420   6.589 -0.2752 -0.4199  0.6506
45220SOL    HW142900   9.301   7.453   6.600 -0.9872  1.7490  0.2236
45220SOL    HW242901   9.157   7.481   6.637 -1.8720  0.3232 -1.9528
45221SOL     OW42902   0.131   2.387   8.822  0.0025  0.0873 -0.2517
45221SOL    HW142903   0.206   2.438   8.854 -1.8531  2.1453  1.0440
45221SOL    HW242904   0.165   2.344   8.743  2.4519  1.1960  0.0773
45222SOL     OW42905   4.504   8.280   9.598  0.2636 -0.2946  0.3844
45222SOL    HW142906   4.505   8.190   9.566  2.0890 -0.1614 -0.0489
45222SOL    HW242907   4.541   8.274   9.686 -1.3164 -0.1805  1.0795
45223SOL     OW42908  11.149   0.285   2.527  0.2297  0.7400 -0.0378
45223SOL    HW142909  11.061   0.292   2.489  0.2013  1.7247  0.1869
45223SOL    HW242910  11.150   0.199   2.568 -0.5253  0.5870 -0.3129
45224SOL     OW42911   7.223   8.005  12.363 -0.0848  0.3306 -0.0642
45224SOL    HW142912   7.141   8.053  12.355  0.5362  1.5180  0.3810
45224SOL    HW242913   7.197   7.918  12.395 -1.0509  1.2202  1.7192
45225SOL     OW42914  11.915   6.574   5.621 -0.0272  0.0056 -0.1834
45225SOL    HW142915  11.954   6.611   5.700  0.2279  0.3106 -0.4514
45225SOL    HW242916  11.820   6.581   5.637 -0.0904  3.3110 -1.3326
45226SOL     OW42917  12.312   7.110   0.911 -0.1256  0.5468  0.2287
45226SOL    HW142918  12.321   7.163   0.832 -0.6174  1.7569  0.9631
45226SOL    HW242919  12.372   7.149   0.974  2.7110 -2.3306 -0.4448
45227SOL     OW42920   2.585  10.755   5.200  0.3712 -0.1628  0.2903
45227SOL    HW142921   2.680  10.743   5.192  0.3870  0.4482 -0.7351
45227SOL    HW242922   2.557  10.777   5.111  0.0765  5.0331  1.3566
45228SOL     OW42923  11.619   1.152   7.412  0.0431 -0.1107 -0.1998
45228SOL    HW142924  11.573   1.109   7.484  0.3399 -0.9962 -0.5332
45228SOL    HW242925  11.668   1.082   7.369  0.8592  0.6331 -0.5053
45229SOL     OW42926   6.869   1.857   2.239  0.0824 -0.5965  0.6886
45229SOL    HW142927   6.782   1.869   2.201  0.2352  1.1835  0.8559
45229SOL    HW242928   6.925   1.838   2.164 -0.0090  0.7510  0.2581
45230SOL     OW42929   4.287   4.993   0.042 -0.7100 -0.0882  0.2242
45230SOL    HW142930   4.341   4.977  -0.035 -1.0031  1.2976 -0.3093
45230SOL    HW242931   4.287   4.910   0.090 -1.2073 -1.2490 -1.6870
45231SOL     OW42932   5.403  11.320   0.387  0.0158  0.3309 -0.1019
45231SOL    HW142933   5.477  11.294   0.442  0.3436 -1.6510 -1.4221
45231SOL    HW242934   5.412  11.268   0.308 -2.6486  0.2420 -0.4141
45232SOL     OW42935   2.162   4.739  10.839  0.5471  0.0709  0.0571
45232SOL    HW142936   2.172   4.658  10.790 -0.8329 -0.1941  0.1665
45232SOL    HW242937   2.083   4.726  10.891  0.3880  1.4156  0.1971
45233SOL     OW42938   9.079   2.681   7.116  0.3925 -0.4994  0.5421
45233SOL    HW142939   9.170   2.704   7.133  0.1118  0.7978  0.3393
45233SOL    HW242940   9.083   2.611   7.051  1.2165  0.5255 -0.5414
45234SOL     OW42941   3.261   9.620   7.825 -0.4089  0.3038  0.2176
45234SOL    HW142942   3.283   9.647   7.736 -0.8585 -0.5607 -0.1686
45234SOL    HW242943   3.266   9.701   7.877 -1.7934  1.1539 -0.9005
45235SOL     OW42944   6.056   2.320   0.716  0.5550 -0.3037 -0.6626
45235SOL    HW142945   6.028   2.236   0.752  1.7285  0.0526  1.2584
45235SOL    HW242946   5.978   2.375   0.720  0.4724 -0.4827  0.8135
45236SOL     OW42947  12.025   4.143   2.265  0.4769 -0.5589  0.1978
45236SOL    HW142948  11.974   4.122   2.186  1.8199  0.9111 -1.1417
45236SOL    HW242949  12.085   4.069   2.276  0.9426 -0.3325 -0.7546
45237SOL     OW42950   2.898   3.551   2.449 -0.1942  0.2545  0.3442
45237SOL    HW142951   2.805   3.564   2.429  0.1582 -0.9242 -2.5213
45237SOL    HW242952   2.940   3.541   2.363  2.3710 -0.6338  1.5967
45238SOL     OW42953   6.555   1.551  11.734  0.0704  0.1357  0.1160
45238SOL    HW142954   6.467   1.572  11.702 -0.2985  0.0261  1.0043
45238SOL    HW242955   6.540   1.521  11.824  1.0011 -0.0734  0.2068
45239SOL     OW42956  11.276   7.296   8.347  0.3265  0.0869  0.1501
45239SOL    HW142957  11.232   7.278   8.430  0.3456  1.7621  0.5523
45239SOL    HW242958  11.312   7.211   8.320  0.7753 -0.3830  2.1048
45240SOL     OW42959  11.381  12.407   4.127 -0.0689  0.0230 -0.0907
45240SOL    HW142960  11.426  12.353   4.062 -1.7628  0.8773 -2.1463
45240SOL    HW242961  11.442  12.414   4.200  2.1373 -0.6987 -1.7484
45241SOL     OW42962   0.602   1.380   3.119  0.5101  0.4023  0.9375
45241SOL    HW142963   0.624   1.362   3.028  0.5558  1.1375  0.7934
45241SOL    HW242964   0.687   1.384   3.164  0.4089 -2.2750  1.4994
45242SOL     OW42965   7.858   1.303   7.227  0.0755  0.2999  0.2387
45242SOL    HW142966   7.841   1.366   7.298  0.0741  0.7386 -0.1502
45242SOL    HW242967   7.948   1.321   7.200  1.0255 -1.5636  1.8365
45243SOL     OW42968   8.208   5.914   7.273  0.0639  0.7481 -0.1409
45243SOL    HW142969   8.123   5.875   7.252  0.7204 -0.6703 -0.2494
45243SOL    HW242970   8.187   5.987   7.331 -1.0030 -2.4284  3.8863
45244SOL     OW42971   7.108   5.760   3.655  0.5243 -0.6384 -0.5951
45244SOL    HW142972   7.024   5.803   3.666  0.1889 -1.0505 -1.4302
45244SOL    HW242973   7.125   5.718   3.740 -0.8890 -1.8783 -0.8855
45245SOL     OW42974   3.310   1.173  10.794  0.8116 -0.0781 -0.2807
45245SOL    HW142975   3.298   1.206  10.883  1.1781  0.3778 -0.3944
45245SOL    HW242976   3.368   1.097  10.805  1.0891  0.1478 -0.1555
45246SOL     OW42977   0.996   3.615   9.561  0.2434 -0.0392 -0.8290
45246SOL    HW142978   0.938   3.588   9.490 -0.8526  0.1868 -0.0560
45246SOL    HW242979   0.946   3.680   9.610  1.6442  1.0894 -0.8410
45247SOL     OW42980   0.649   6.252   8.036  0.1000 -0.2113 -0.2430
45247SOL    HW142981   0.677   6.287   7.952 -0.3130  0.4170 -0.1262
45247SOL    HW242982   0.579   6.311   8.065 -0.8646 -1.3352 -0.2051
45248SOL     OW42983   8.487   3.282   7.913 -0.0526  0.6887  0.1342
45248SOL    HW142984   8.576   3.254   7.934 -0.6143 -1.6758 -0.2869
45248SOL    HW242985   8.487   3.292   7.817 -1.0780 -3.3449 -0.5056
45249SOL     OW42986   6.587   7.746  10.054  0.3188 -0.0433 -0.0909
45249SOL    HW142987   6.585   7.652  10.074 -0.5341  0.2319  1.2440
45249SOL    HW242988   6.542   7.753   9.970 -1.6680 -0.6195  0.8650
45250SOL     OW42989  11.157   1.552   3.772 -0.5091 -0.1084  0.1851
45250SOL    HW142990  11.167   1.517   3.861  0.3165  1.7292  0.8659
45250SOL    HW242991  11.081   1.609   3.777  0.4377  1.1908  0.1368
45251SOL     OW42992   3.713   8.293   0.899 -0.4289  0.3296 -0.7138
45251SOL    HW142993   3.739   8.385   0.910 -0.9019  0.3835 -0.0464
45251SOL    HW242994   3.704   8.283   0.804  1.1518  0.5408 -0.9180
45252SOL     OW42995   5.282  10.369   6.220 -0.0087  0.3048 -0.2360
45252SOL    HW142996   5.327  10.403   6.298 -1.7352 -0.5094  1.2006
45252SOL    HW242997   5.285  10.441   6.157  1.6773  0.8909  0.4614
45253SOL     OW42998   0.426  12.178   6.941  0.3355 -0.1869  0.2669
45253SOL    HW142999   0.363  12.235   6.986  1.1558  0.6807  0.3466
45253SOL    HW243000   0.411  12.092   6.979  0.1000  0.2661  1.2476
45254SOL     OW43001   3.037   8.064   2.456  0.1127  0.1878  0.2186
45254SOL    HW143002   3.054   8.101   2.543 -0.6250  0.4606  0.2582
45254SOL    HW243003   3.075   8.127   2.395  0.8341 -0.1196  0.3504
45255SOL     OW43004  11.435   4.641   4.507 -0.4887  0.2255  0.2614
45255SOL    HW143005  11.445   4.665   4.600  0.3466 -0.8190  0.4566
45255SOL    HW243006  11.362   4.694   4.477 -0.8594  0.4912  1.5584
45256SOL     OW43007   4.512   3.371   2.502 -0.4279 -0.1826 -1.0087
45256SOL    HW143008   4.602   3.403   2.504 -0.4003 -0.2670  1.2425
45256SOL    HW243009   4.458   3.449   2.487 -0.0734  0.1746 -0.4509
45257SOL     OW43010   4.742   3.371   1.244  0.2312 -0.6538  0.0718
45257SOL    HW143011   4.754   3.456   1.202  2.8002 -0.7710  0.4245
45257SOL    HW243012   4.815   3.363   1.305 -0.9564 -2.3703  1.3773
45258SOL     OW43013  11.988   0.338   2.213  0.0036 -0.5905 -0.1882
45258SOL    HW143014  11.906   0.385   2.231 -0.0093 -0.4023 -0.7383
45258SOL    HW243015  12.056   0.394   2.250 -0.1063 -0.7351  0.2490
45259SOL     OW43016   8.086   0.708  12.596 -0.3278  0.1067  0.3630
45259SOL    HW143017   8.032   0.668  12.664  1.5557 -2.4698  0.5071
45259SOL    HW243018   8.076   0.650  12.520  1.7290 -0.1684  0.2361
45260SOL     OW43019   1.916   3.722   6.987 -0.0649  0.1743 -0.1002
45260SOL    HW143020   1.985   3.656   6.974  0.0080  0.3219 -0.4690
45260SOL    HW243021   1.925   3.780   6.912  1.5771  2.1470  1.5006
45261SOL     OW43022  10.818   8.797  10.778 -0.4512  0.0735 -0.4956
45261SOL    HW143023  10.878   8.734  10.737  0.8911  0.1791  1.2048
45261SOL    HW243024  10.869   8.878  10.784  0.0918 -0.3638  2.7966
45262SOL     OW43025  11.641   2.479  11.885 -0.3722 -0.5233  0.0067
45262SOL    HW143026  11.704   2.508  11.952  0.2424  1.3062 -1.2887
45262SOL    HW243027  11.691   2.420  11.829 -0.1547 -0.0697 -0.2835
45263SOL     OW43028  12.442   7.299   3.102  0.0394 -0.0524 -0.1468
45263SOL    HW143029  12.434   7.357   3.027  0.0482  0.5285  0.2987
45263SOL    HW243030  12.450   7.211   3.064 -0.1801  0.2150 -0.8118
45264SOL     OW43031   1.749   0.621   8.581  0.0075 -0.6069 -0.7432
45264SOL    HW143032   1.707   0.617   8.495 -0.6724 -1.8636 -0.3737
45264SOL    HW243033   1.695   0.683   8.631  0.7211  0.5594 -1.3540
45265SOL     OW43034   2.438   8.438   4.668  0.2011 -0.1989  0.2863
45265SOL    HW143035   2.431   8.511   4.730 -0.6421  0.9499 -1.1024
45265SOL    HW243036   2.526   8.446   4.632  1.3376 -1.8716  2.4394
45266SOL     OW43037   9.722   4.306   2.531  0.1347 -0.1978 -0.9493
45266SOL    HW143038   9.687   4.218   2.545 -0.9552  0.0952 -1.6939
45266SOL    HW243039   9.817   4.295   2.529  0.0549 -1.1981 -0.0380
45267SOL     OW43040  10.052   4.228   3.967  0.0353 -0.0838  0.1248
45267SOL    HW143041  10.126   4.287   3.971 -1.3150  1.6122  1.9720
45267SOL    HW243042  10.046   4.202   3.875  2.2658  0.5148 -0.2263
45268SOL     OW43043   4.852  10.063   1.716 -0.3052  0.2812  0.0067
45268SOL    HW143044   4.875  10.092   1.804 -1.0991  0.3388  0.2054
45268SOL    HW243045   4.936  10.052   1.671  0.1984 -1.2598  1.2329
45269SOL     OW43046   2.133   9.196   7.398  0.5757 -0.4520 -0.5022
45269SOL    HW143047   2.209   9.223   7.347  0.1250 -0.2462 -1.0708
45269SOL    HW243048   2.065   9.260   7.376  0.1600 -0.7812 -0.1916
45270SOL     OW43049   0.978  12.009   5.051  0.0240 -0.0095 -0.1699
45270SOL    HW143050   1.060  12.000   5.098 -0.2554  0.0412  0.3397
45270SOL    HW243051   1.003  12.028   4.961  0.5874 -1.5726 -0.3695
45271SOL     OW43052  10.768   5.730   7.110 -0.1280 -0.0530 -0.4375
45271SOL    HW143053  10.857   5.744   7.079 -0.3899  0.6034 -0.9235
45271SOL    HW243054  10.755   5.796   7.178 -0.3858  0.1390 -0.6708
45272SOL     OW43055   1.852   9.003   9.877 -0.3963  0.0536 -0.1546
45272SOL    HW143056   1.787   8.944   9.841 -0.4606  0.2477 -0.3641
45272SOL    HW243057   1.887   9.049   9.800 -0.5264  0.4629  0.0259
45273SOL     OW43058   9.656   4.686  12.167 -0.1665 -0.2075  0.7677
45273SOL    HW143059   9.704   4.730  12.237  1.1413 -0.6757  0.1833
45273SOL    HW243060   9.701   4.602  12.155 -0.4417 -0.1950 -0.5530
45274SOL     OW43061  10.506   1.166   6.884 -0.3503 -0.2590 -0.2906
45274SOL    HW143062  10.578   1.158   6.946 -0.2053 -1.0523 -0.5405
45274SOL    HW243063  10.508   1.084   6.835 -2.4427 -1.0489  0.8034
45275SOL     OW43064   1.684  12.103   8.996  0.4268 -0.2684  0.3118
45275SOL    HW143065   1.771  12.130   8.966  0.2501 -0.4914 -0.4429
45275SOL    HW243066   1.700  12.032   9.058  0.8197  0.3859  0.9679
45276SOL     OW43067  12.555   6.061   9.224  0.3791  0.3918  0.1501
45276SOL    HW143068  12.550   6.132   9.287 -2.0559 -0.9672  1.6576
45276SOL    HW243069  12.644   6.027   9.233  0.6364  1.3500  1.6006
45277SOL     OW43070   6.420  11.338  10.363  0.8145 -0.4569 -0.0975
45277SOL    HW143071   6.512  11.330  10.341  1.0698  3.0757 -0.9570
45277SOL    HW243072   6.419  11.370  10.453  0.3101 -2.1880  0.5400
45278SOL     OW43073   9.392   7.435   0.083 -0.6270 -0.3019 -0.1354
45278SOL    HW143074   9.309   7.397   0.112  0.1939 -1.5795  0.6323
45278SOL    HW243075   9.442   7.448   0.163  0.1151 -0.0178 -0.6339
45279SOL     OW43076   4.586  11.034   6.688  0.2854  0.4173  0.2488
45279SOL    HW143077   4.596  11.070   6.776 -2.2079 -2.3606  1.8676
45279SOL    HW243078   4.500  11.064   6.660  1.0223  1.2029 -1.2644
45280SOL     OW43079   7.241   4.602   7.394  0.4225 -0.1900 -0.0454
45280SOL    HW143080   7.333   4.576   7.397  0.0947 -2.0423 -2.5053
45280SOL    HW243081   7.207   4.580   7.481  1.5131 -2.9667 -0.2174
45281SOL     OW43082   2.648   3.870   7.963  0.0857  0.0506 -0.5537
45281SOL    HW143083   2.607   3.917   7.890 -2.1487  0.1293  0.6606
45281SOL    HW243084   2.598   3.789   7.970 -1.3636  1.0412  2.2728
45282SOL     OW43085   1.263   0.864   8.107  0.6027 -1.2195 -0.5431
45282SOL    HW143086   1.168   0.857   8.103  0.1313  1.3112  2.4084
45282SOL    HW243087   1.288   0.904   8.024 -1.1725 -0.1220 -0.5979
45283SOL     OW43088   2.568   7.681  12.687  0.3520  0.5672  0.0618
45283SOL    HW143089   2.577   7.772  12.716 -0.7446  0.3756  1.0824
45283SOL    HW243090   2.485   7.680  12.640 -0.1661 -0.1109  0.9583
45284SOL     OW43091   8.299   8.061   4.768  0.3968 -0.5618 -0.0545
45284SOL    HW143092   8.325   7.980   4.812  1.0109 -1.0670 -1.3090
45284SOL    HW243093   8.217   8.086   4.811 -0.8710 -2.9134 -0.9153
45285SOL     OW43094  11.976   0.072   1.106  0.0950 -0.4782 -0.1750
45285SOL    HW143095  12.052   0.019   1.084  0.3017 -0.4587  0.4563
45285SOL    HW243096  11.942   0.101   1.022  2.0329  1.2681 -0.4468
45286SOL     OW43097   0.584   1.956   2.766  0.0181 -0.3225 -0.1449
45286SOL    HW143098   0.658   1.947   2.826  0.9715  0.2999 -1.2032
45286SOL    HW243099   0.524   1.886   2.792  1.4303 -1.4974  0.0784
45287SOL     OW43100  10.597  12.602   8.169 -0.0924  0.0968 -0.2746
45287SOL    HW143101  10.610  12.583   8.262  1.4304 -0.3084 -0.5566
45287SOL    HW243102  10.515  12.558   8.147  0.4470 -1.3113  0.4521
45288SOL     OW43103   7.485   5.162   8.725  0.1091  0.6285 -0.6063
45288SOL    HW143104   7.412   5.135   8.670 -1.1517 -0.7377  1.5875
45288SOL    HW243105   7.530   5.080   8.747 -0.9721  0.7284  2.3868
45289SOL     OW43106  10.007   2.760   4.547 -0.0618 -0.5525 -0.5872
45289SOL    HW143107   9.953   2.703   4.491 -0.2420 -0.5529 -0.4137
45289SOL    HW243108  10.078   2.788   4.490 -0.4146 -0.3022 -0.9079
45290SOL     OW43109   4.742   9.323   5.733  0.5436 -0.1350  0.3862
45290SOL    HW143110   4.780   9.363   5.812 -0.6257 -0.4926  1.1537
45290SOL    HW243111   4.648   9.324   5.749  0.4403 -3.7862  0.7889
45291SOL     OW43112   0.383   1.718  10.964 -0.0145 -0.4896  0.3055
45291SOL    HW143113   0.413   1.797  11.010 -0.9489  0.2275 -0.2816
45291SOL    HW243114   0.437   1.648  11.001  3.0857  0.8130 -1.3570
45292SOL     OW43115  10.866   4.085   7.794 -0.3740 -0.2513 -0.4607
45292SOL    HW143116  10.859   4.174   7.761  1.7343  0.0130 -0.3353
45292SOL    HW243117  10.912   4.037   7.725  1.9257 -0.2702  0.9798
45293SOL     OW43118   7.234  10.226   3.348 -0.3769  0.0033  0.1903
45293SOL    HW143119   7.219  10.198   3.438 -1.0519  2.1795  0.7974
45293SOL    HW243120   7.290  10.303   3.355  1.5393 -1.1606 -1.4305
45294SOL     OW43121   1.401  11.403  12.130  0.6385 -0.3766 -0.2449
45294SOL    HW143122   1.405  11.409  12.225 -1.1782  0.5892 -0.1739
45294SOL    HW243123   1.411  11.310  12.111 -1.4764 -0.9621  1.1211
45295SOL     OW43124   0.026   4.598  11.849  0.2918 -0.1800  0.0497
45295SOL    HW143125   0.016   4.561  11.761  0.5201 -0.0634 -0.0275
45295SOL    HW243126   0.040   4.691  11.833  1.1497 -0.2858  0.1671
45296SOL     OW43127   4.549   9.123  12.360  0.0683  0.2431 -0.7948
45296SOL    HW143128   4.463   9.154  12.388  0.7797  0.8570  0.7952
45296SOL    HW243129   4.537   9.029  12.345 -0.6683  0.1406  0.3345
45297SOL     OW43130   6.378  10.487  10.997 -0.2942 -0.1386 -0.0763
45297SOL    HW143131   6.448  10.523  10.943  0.4627 -1.1507  0.2005
45297SOL    HW243132   6.382  10.393  10.982 -0.5414 -0.3643  1.1792
45298SOL     OW43133   4.603   8.959   0.483  0.5123 -0.3581  0.2758
45298SOL    HW143134   4.663   8.995   0.419 -0.7116  2.0731  0.4011
45298SOL    HW243135   4.516   8.977   0.448 -0.2261 -3.0112  0.5166
45299SOL     OW43136  10.543  11.594   5.053  0.0614  0.0039  0.0870
45299SOL    HW143137  10.637  11.585   5.066  0.2877  0.7987 -0.8301
45299SOL    HW243138  10.520  11.520   4.996  0.3986  0.5565 -0.7926
45300SOL     OW43139  12.267   5.078   7.357  0.3637 -0.6363  0.9670
45300SOL    HW143140  12.272   5.139   7.430  2.0722 -0.9635  1.1552
45300SOL    HW243141  12.173   5.065   7.343 -0.0111  1.0815  1.6864
45301SOL     OW43142   2.003   0.373   4.735  0.3906  0.0596  0.2659
45301SOL    HW143143   2.017   0.376   4.641 -2.7064  0.6894 -0.2542
45301SOL    HW243144   1.949   0.450   4.755 -0.7993 -1.1816  2.1905
45302SOL     OW43145   3.594   6.469   1.668 -0.2145  0.7582  0.3686
45302SOL    HW143146   3.649   6.504   1.739 -0.0112 -1.2508  1.2850
45302SOL    HW243147   3.504   6.480   1.699 -0.1634  0.6975  0.5398
45303SOL     OW43148   9.747   0.041   4.521 -0.4043  0.0316  0.2663
45303SOL    HW143149   9.711   0.116   4.474 -1.0903  0.8948  2.0829
45303SOL    HW243150   9.675   0.012   4.577  0.0460 -1.6386  0.0253
45304SOL     OW43151   4.690   6.771   1.622  0.0002  0.3327  0.4619
45304SOL    HW143152   4.616   6.806   1.573 -0.0899 -0.3482  0.1060
45304SOL    HW243153   4.747   6.733   1.555 -0.1804 -0.7066  0.8947
45305SOL     OW43154   2.301  12.191   1.283  0.0658 -0.1984 -0.3943
45305SOL    HW143155   2.245  12.252   1.235  0.1278  0.7094  0.6153
45305SOL    HW243156   2.336  12.132   1.217  2.7092  2.9215 -2.0689
45306SOL     OW43157   3.649   7.141   6.359  0.3297 -0.2216 -0.0718
45306SOL    HW143158   3.636   7.136   6.454  2.0260 -1.0028  0.1497
45306SOL    HW243159   3.744   7.145   6.348  0.1518  2.6899 -1.6284
45307SOL     OW43160   1.656   6.490   0.117 -0.8096 -0.0145  0.4821
45307SOL    HW143161   1.685   6.577   0.091  0.5116 -0.0151  1.7757
45307SOL    HW243162   1.608   6.505   0.199 -0.3935 -0.5029  0.8229
45308SOL     OW43163   3.141   0.648   7.375 -0.5080 -0.1511 -0.2927
45308SOL    HW143164   3.073   0.691   7.324  0.2296 -0.5175 -1.6206
45308SOL    HW243165   3.213   0.633   7.313  0.3540 -0.7642  0.8045
45309SOL     OW43166   6.080   0.321   0.884 -0.5493  0.5074  0.2124
45309SOL    HW143167   6.113   0.376   0.813 -1.9444  0.8430 -0.2092
45309SOL    HW243168   6.092   0.232   0.854  3.0559  0.4106  1.4839
45310SOL     OW43169   5.498  10.916   2.986 -0.7155 -0.0051 -0.0296
45310SOL    HW143170   5.476  10.845   3.046 -1.8594 -0.1580 -0.5987
45310SOL    HW243171   5.560  10.970   3.034  0.4436 -1.5641  0.2888
45311SOL     OW43172   5.576  11.904   8.347  0.6849  0.4579 -0.0059
45311SOL    HW143173   5.670  11.891   8.340  0.5307 -0.3555 -0.7023
45311SOL    HW243174   5.540  11.816   8.357 -0.1520  0.5681 -1.7299
45312SOL     OW43175   2.832   5.295   2.953 -0.3582  0.0073  0.0218
45312SOL    HW143176   2.760   5.257   3.003 -2.0982  1.0469 -1.5366
45312SOL    HW243177   2.843   5.383   2.989 -1.3087  0.5933 -1.0495
45313SOL     OW43178   0.712   4.194  12.297  0.4923 -0.1177  0.2304
45313SOL    HW143179   0.687   4.137  12.369 -2.6935  1.1360  0.2605
45313SOL    HW243180   0.662   4.162  12.222  1.1082  0.7171 -0.5715
45314SOL     OW43181   9.050   3.688   8.006  0.2254  0.3395  0.2766
45314SOL    HW143182   9.130   3.718   8.049 -0.3189 -0.2312  1.7477
45314SOL    HW243183   9.061   3.593   8.000  0.4972  0.4502 -1.3286
45315SOL     OW43184   4.084   8.735   2.852 -0.0754 -0.4483  0.0331
45315SOL    HW143185   4.022   8.669   2.819  2.8074 -2.3205 -2.1643
45315SOL    HW243186   4.085   8.803   2.785  0.3126 -0.4607  0.0274
45316SOL     OW43187   7.704   3.230   3.763  0.2159  0.7151  0.0155
45316SOL    HW143188   7.667   3.202   3.847  1.4872  0.6697  0.5811
45316SOL    HW243189   7.677   3.322   3.755 -0.7318  0.4481 -0.0084
45317SOL     OW43190   3.509  10.052  10.376 -0.2289  0.1306 -0.4824
45317SOL    HW143191   3.546  10.050  10.464 -1.2567  0.7687 -0.0100
45317SOL    HW243192   3.464   9.968  10.367  0.9405 -0.4732 -0.9057
45318SOL     OW43193   1.722   5.568   9.406  0.4065 -0.2541  0.2731
45318SOL    HW143194   1.629   5.570   9.384  0.6609 -0.3897 -0.8591
45318SOL    HW243195   1.752   5.482   9.376  1.0757  0.1075 -0.1269
45319SOL     OW43196   9.787   4.861  12.637  0.0751  0.9595  0.3433
45319SOL    HW143197   9.801   4.810  12.717  1.4966  1.0024  0.1394
45319SOL    HW243198   9.861   4.921  12.633 -0.0629  1.0790 -0.9152
45320SOL     OW43199   7.851  11.166   4.045  0.3973 -0.0828  0.1129
45320SOL    HW143200   7.921  11.107   4.073  0.8264  1.2864  2.0703
45320SOL    HW243201   7.880  11.199   3.960  1.8365 -0.0416  0.5937
45321SOL     OW43202   6.398   2.717   0.663 -0.4915  0.2939  0.2626
45321SOL    HW143203   6.425   2.708   0.755 -0.1723 -0.1742  0.1288
45321SOL    HW243204   6.326   2.655   0.654  0.2377 -0.5212 -0.0929
45322SOL     OW43205   4.339   1.843  12.121  0.7236  0.7849 -0.4447
45322SOL    HW143206   4.274   1.871  12.185  0.4337  2.2404 -1.3332
45322SOL    HW243207   4.407   1.800  12.173 -0.3184  0.3829  0.6339
45323SOL     OW43208   7.387   6.530   3.924  0.6745 -0.0677  0.2489
45323SOL    HW143209   7.396   6.435   3.931 -1.1925 -0.3775 -0.8207
45323SOL    HW243210   7.377   6.546   3.830 -1.9069  0.8284  0.6006
45324SOL     OW43211   9.861   8.547   3.801  0.3728 -0.0917 -0.6318
45324SOL    HW143212   9.814   8.464   3.813  2.4897 -1.5988 -1.9324
45324SOL    HW243213   9.897   8.566   3.888  0.4851 -0.9724 -0.4692
45325SOL     OW43214   7.666   5.729  10.557  0.1026  0.1492  0.4017
45325SOL    HW143215   7.752   5.712  10.598 -0.7591 -0.1475  2.1922
45325SOL    HW243216   7.683   5.724  10.463  1.7577 -1.5127  0.7224
45326SOL     OW43217  11.624  10.327   7.724 -0.5957  0.2436  0.3028
45326SOL    HW143218  11.618  10.231   7.716 -1.0836  0.2634  0.3942
45326SOL    HW243219  11.716  10.344   7.746 -0.4812 -0.1959  0.1748
45327SOL     OW43220   3.668   6.783   0.836  0.0997 -0.1222 -0.1956
45327SOL    HW143221   3.681   6.690   0.815 -0.7459  0.1471 -2.1160
45327SOL    HW243222   3.579   6.787   0.872  0.5066 -0.1604  0.8788
45328SOL     OW43223   7.521   7.403   3.158  0.4472  0.8656 -0.3426
45328SOL    HW143224   7.437   7.402   3.113 -0.3253  2.1971  0.9613
45328SOL    HW243225   7.507   7.350   3.237  0.6359  1.5285  0.1496
45329SOL     OW43226   9.610   0.699   8.918  0.3212  0.7398 -0.0401
45329SOL    HW143227   9.649   0.622   8.876 -0.8129  0.5810 -0.8330
45329SOL    HW243228   9.607   0.676   9.011  0.0779 -0.1377 -0.2541
45330SOL     OW43229  12.632   8.030   5.069 -0.2238  0.6921 -0.3428
45330SOL    HW143230  12.703   8.082   5.105  0.9285  0.8067 -2.6117
45330SOL    HW243231  12.655   8.017   4.977 -2.0071 -1.2301 -0.6088
45331SOL     OW43232  12.542   8.691   7.987 -0.3031 -0.3585  0.0069
45331SOL    HW143233  12.578   8.679   7.899  0.1196  0.6795  0.0210
45331SOL    HW243234  12.605   8.647   8.044  0.2849  0.3262 -0.0868
45332SOL     OW43235   7.855  11.102   5.566 -0.1527  0.2230  0.1474
45332SOL    HW143236   7.843  11.045   5.642  0.8925 -0.7828 -0.4050
45332SOL    HW243237   7.908  11.175   5.599 -1.2130  0.7222  0.7831
45333SOL     OW43238  10.634   2.003   0.046  0.5510  0.4276 -0.3355
45333SOL    HW143239  10.673   2.035   0.128  0.5574  3.0011 -1.2420
45333SOL    HW243240  10.707   1.971  -0.005  0.6338 -0.5274  0.3455
45334SOL     OW43241   6.552   8.050   6.329  0.9202  0.5072  0.4951
45334SOL    HW143242   6.475   7.996   6.312  0.2621  0.9594  1.8935
45334SOL    HW243243   6.539   8.129   6.277  0.7631  0.3112  0.2342
45335SOL     OW43244  11.272   1.825   8.393  0.7610 -0.0464 -0.0119
45335SOL    HW143245  11.293   1.792   8.306 -1.3969  1.0433 -1.0074
45335SOL    HW243246  11.233   1.911   8.378 -1.0893 -0.4594  1.9010
45336SOL     OW43247   7.140   6.743   5.530 -0.1803  0.0639 -0.0598
45336SOL    HW143248   7.079   6.813   5.506  0.2696  0.3951 -0.2555
45336SOL    HW243249   7.225   6.775   5.502  0.0117 -0.6383 -0.2954
45337SOL     OW43250  12.412  10.408   7.194  0.0300 -0.3717 -0.2588
45337SOL    HW143251  12.464  10.335   7.159  0.7212  1.4555 -3.3733
45337SOL    HW243252  12.477  10.471   7.224 -0.4624  0.4432 -0.8922
45338SOL     OW43253   6.001   6.409   2.230  0.0887  0.2247 -0.2934
45338SOL    HW143254   5.923   6.464   2.238  0.8997  1.6209 -1.4598
45338SOL    HW243255   6.048   6.421   2.313 -0.8633 -0.5406  0.3712
45339SOL     OW43256  11.637   5.820   2.453  0.8207 -0.6943 -0.0301
45339SOL    HW143257  11.624   5.799   2.361  1.7614 -2.0964  0.1313
45339SOL    HW243258  11.552   5.806   2.494  0.4326 -0.1945 -0.6418
45340SOL     OW43259  11.883  12.310   6.902  0.4587  0.2144 -0.2730
45340SOL    HW143260  11.933  12.326   6.982  1.3714 -0.7770 -0.6147
45340SOL    HW243261  11.821  12.383   6.898  0.3990  0.3029  1.3151
45341SOL     OW43262  10.583  10.962   8.072 -0.2972  0.4729  0.2328
45341SOL    HW143263  10.656  11.013   8.035  0.9124 -1.2870  0.0657
45341SOL    HW243264  10.542  10.920   7.997 -1.9233  1.8972  0.2588
45342SOL     OW43265   6.076   4.039   3.759  0.3141  0.4414 -0.1973
45342SOL    HW143266   6.032   4.108   3.710 -1.0617 -0.1780  0.1285
45342SOL    HW243267   6.046   3.957   3.719  0.5634 -0.0228  0.5329
45343SOL     OW43268   7.500   1.136  10.495 -0.0305  0.2750  0.2256
45343SOL    HW143269   7.462   1.048  10.498 -0.2572  0.3820  0.6449
45343SOL    HW243270   7.592   1.124  10.517  0.1352  0.0350 -0.6023
45344SOL     OW43271   4.286   2.211  11.694  0.0227 -0.2990  0.3614
45344SOL    HW143272   4.322   2.146  11.754 -0.2298  1.4670  2.5691
45344SOL    HW243273   4.195   2.186  11.681  0.4490 -1.4937 -0.5093
45345SOL     OW43274   6.183   0.523   2.495  0.1263  0.3799  0.4121
45345SOL    HW143275   6.141   0.456   2.549 -0.6958 -0.7998 -1.6131
45345SOL    HW243276   6.269   0.488   2.475  0.7484  1.1771  1.5388
45346SOL     OW43277   5.526   7.816   1.428  0.2671 -0.3785  0.1018
45346SOL    HW143278   5.583   7.832   1.352 -1.0260  1.3776 -0.5700
45346SOL    HW243279   5.474   7.740   1.403  1.1428 -0.9750  0.0385
45347SOL     OW43280  11.142   0.437   5.079 -0.5142 -0.2600  0.4617
45347SOL    HW143281  11.150   0.373   5.148 -1.8040  0.1053  0.9927
45347SOL    HW243282  11.101   0.513   5.121 -2.9733 -0.6567 -1.0031
45348SOL     OW43283   5.636   8.983   3.209 -0.2046  0.6805  0.1465
45348SOL    HW143284   5.604   9.071   3.188  0.8887  1.1171  0.2314
45348SOL    HW243285   5.687   8.957   3.132 -0.2614  0.2570  0.2515
45349SOL     OW43286   7.510   2.898   2.470  0.0866 -0.0870 -0.1260
45349SOL    HW143287   7.579   2.850   2.516  1.5312  0.4859 -1.5916
45349SOL    HW243288   7.488   2.843   2.395 -0.8867 -0.1420  0.1908
45350SOL     OW43289   5.563   1.886   0.201  0.2322 -0.6443 -0.6866
45350SOL    HW143290   5.651   1.863   0.231 -0.0683 -1.9693 -0.7668
45350SOL    HW243291   5.505   1.831   0.254 -0.5237 -0.0807 -0.9271
45351SOL     OW43292   4.144  11.279   4.667  0.0195  0.2106  0.6831
45351SOL    HW143293   4.061  11.322   4.687 -1.9542 -2.6756 -0.4599
45351SOL    HW243294   4.177  11.250   4.752 -0.0944  1.4569  1.1657
45352SOL     OW43295   6.962   6.471   1.477  0.2499  0.9115  0.1538
45352SOL    HW143296   7.042   6.420   1.489  0.6904  1.4964 -0.2466
45352SOL    HW243297   6.990   6.548   1.428 -0.5607  1.1305  0.0278
45353SOL     OW43298  12.600   0.480   9.681 -0.5836  0.2168 -0.0701
45353SOL    HW143299  12.642   0.400   9.712  1.2880  1.1490 -0.0770
45353SOL    HW243300  12.604   0.475   9.586 -0.4142  0.3471 -0.0699
45354SOL     OW43301   1.474   1.544   1.724 -0.2595 -0.0391  0.2272
45354SOL    HW143302   1.440   1.475   1.667  0.8298 -0.3599 -0.0630
45354SOL    HW243303   1.493   1.617   1.665 -0.9789  0.3443  0.4675
45355SOL     OW43304   2.994   9.585   5.578  0.0378 -0.2677 -0.2114
45355SOL    HW143305   3.088   9.580   5.563 -0.0603 -2.5123 -0.5304
45355SOL    HW243306   2.956   9.604   5.492  0.1703 -0.0739 -0.2252
45356SOL     OW43307   0.099   6.092  12.594 -0.3048 -0.8969  0.5710
45356SOL    HW143308   0.036   6.098  12.667  0.5061  1.1301  1.1957
45356SOL    HW243309   0.094   6.178  12.553  1.6362 -0.8954  0.2864
45357SOL     OW43310  10.141   8.848  12.209  0.5028 -0.0067 -0.2135
45357SOL    HW143311  10.067   8.908  12.203  0.9544  0.4731 -1.2849
45357SOL    HW243312  10.115   8.773  12.155  0.5456 -0.1194 -0.0788
45358SOL     OW43313  11.400  10.136   1.328 -0.3935  0.4406  0.5448
45358SOL    HW143314  11.441  10.221   1.308 -0.8347  1.2000  2.5755
45358SOL    HW243315  11.337  10.156   1.397  0.3154 -1.7232  1.9188
45359SOL     OW43316   5.790   2.963  10.699  0.1268  0.2155  0.2154
45359SOL    HW143317   5.804   2.935  10.789  0.4740  1.3005  0.5193
45359SOL    HW243318   5.695   2.973  10.690 -0.0467 -1.4179 -0.0373
45360SOL     OW43319  10.506   6.472   0.723 -0.4877  0.5231 -0.1149
45360SOL    HW143320  10.521   6.382   0.693 -0.5209 -0.1175  1.6594
45360SOL    HW243321  10.575   6.487   0.788 -0.7459  1.6345 -0.0767
45361SOL     OW43322   6.826   3.460   2.928 -0.6747 -0.0861  0.0446
45361SOL    HW143323   6.812   3.365   2.923 -2.5866  0.2258 -2.8675
45361SOL    HW243324   6.777   3.488   3.005 -1.3525 -1.2982  0.0748
45362SOL     OW43325   0.527   7.623   7.070  0.0036  0.2766  0.1636
45362SOL    HW143326   0.523   7.534   7.104  1.3806  0.0921 -0.1083
45362SOL    HW243327   0.563   7.675   7.142 -2.8702  1.1012  1.1480
45363SOL     OW43328   7.362   5.732   5.917 -0.1046  0.4317  0.0158
45363SOL    HW143329   7.315   5.689   5.845  0.8011 -1.7328  0.6446
45363SOL    HW243330   7.428   5.785   5.873  1.0877 -1.6113 -0.8418
45364SOL     OW43331   8.572   8.722   4.154  0.2256 -0.2039 -0.3325
45364SOL    HW143332   8.657   8.719   4.110  0.4058 -2.3776  0.0341
45364SOL    HW243333   8.517   8.663   4.103 -0.4643 -0.3778  0.5920
45365SOL     OW43334   4.250   6.525   6.532  0.4463  0.4123 -0.2532
45365SOL    HW143335   4.276   6.598   6.476  0.2522  1.5620  1.1132
45365SOL    HW243336   4.320   6.518   6.597 -0.4460  0.6031  0.7427
45366SOL     OW43337  11.915   6.751   1.523  0.1925 -0.7972  0.4377
45366SOL    HW143338  11.830   6.776   1.487  0.7088 -0.8406 -0.8776
45366SOL    HW243339  11.931   6.664   1.488  0.2683 -1.2679  1.6176
45367SOL     OW43340   9.581   5.778  11.285 -0.0482  0.5820  0.5772
45367SOL    HW143341   9.645   5.706  11.283  0.6959  1.2022  1.4059
45367SOL    HW243342   9.500   5.737  11.315 -0.5208 -0.5440 -1.9524
45368SOL     OW43343  12.116   0.593   7.258 -0.7471 -0.0879 -0.1778
45368SOL    HW143344  12.082   0.600   7.348 -1.3997 -1.6675 -0.2559
45368SOL    HW243345  12.113   0.682   7.224  1.3140  0.9267  1.9646
45369SOL     OW43346   1.540   9.474   4.830  0.0940  0.0382 -0.1852
45369SOL    HW143347   1.541   9.459   4.736  2.5383  0.7331 -0.3339
45369SOL    HW243348   1.568   9.391   4.868  0.7539  0.2433 -0.2029
45370SOL     OW43349   4.875   4.511   4.147  0.1750  0.0188 -0.0056
45370SOL    HW143350   4.836   4.559   4.220 -0.5844  2.4920 -1.9050
45370SOL    HW243351   4.824   4.430   4.142 -0.1560  0.0762  1.8050
45371SOL     OW43352   3.801   1.257   8.947 -0.4753 -0.5275 -0.5034
45371SOL    HW143353   3.802   1.315   9.023 -0.0186 -1.9338  0.6117
45371SOL    HW243354   3.720   1.278   8.901 -0.4627  0.7675  0.0286
45372SOL     OW43355   9.139   6.419   1.424 -0.2281 -0.0371 -0.5371
45372SOL    HW143356   9.058   6.463   1.398 -0.1268  1.6239  1.6179
45372SOL    HW243357   9.199   6.435   1.352 -1.4254 -0.1687 -1.6000
45373SOL     OW43358   4.443   7.220   5.765  0.0768  0.1822 -0.2060
45373SOL    HW143359   4.359   7.173   5.764 -0.8179  1.7173 -0.4153
45373SOL    HW243360   4.421   7.306   5.800  1.6918  0.4431  0.2362
45374SOL     OW43361  11.731   2.794   5.929  0.2858  0.0911 -0.0448
45374SOL    HW143362  11.649   2.753   5.901  1.3328 -2.1517 -0.1147
45374SOL    HW243363  11.728   2.882   5.893 -2.9494  0.7963  1.6209
45375SOL     OW43364   2.114   1.192   8.312  0.1579 -0.5198 -0.1879
45375SOL    HW143365   2.065   1.259   8.263  0.0655 -0.3211  0.1691
45375SOL    HW243366   2.154   1.241   8.384 -1.7964 -1.1974  1.4582
45376SOL     OW43367   7.303   1.743   0.065  0.2969 -0.0792  0.2756
45376SOL    HW143368   7.324   1.705  -0.020  1.8094  1.1229  0.0663
45376SOL    HW243369   7.293   1.667   0.123 -0.1780 -0.8930 -0.8258
45377SOL     OW43370   9.392   3.461  10.938 -0.3270  0.2873 -0.0124
45377SOL    HW143371   9.456   3.399  10.971 -0.9719 -0.0036  0.7355
45377SOL    HW243372   9.311   3.440  10.985 -0.7653  1.1681 -0.3354
45378SOL     OW43373  12.009   9.131   2.198 -0.2973 -0.2365  0.1161
45378SOL    HW143374  12.101   9.139   2.224  0.0942 -0.2885 -1.2294
45378SOL    HW243375  11.963   9.192   2.257  0.5591 -0.3656  0.9392
45379SOL     OW43376  11.096   8.379   2.915 -0.3341 -0.1727 -0.7632
45379SOL    HW143377  11.032   8.446   2.891  0.6494  0.6795 -1.0755
45379SOL    HW243378  11.135   8.411   2.996  0.1072 -0.3901 -0.8884
45380SOL     OW43379  11.230   7.673   7.986  0.3325 -0.4688  0.3698
45380SOL    HW143380  11.305   7.686   7.929 -0.6453 -0.1153 -0.8946
45380SOL    HW243381  11.248   7.728   8.062  0.4215  1.2650 -0.8516
45381SOL     OW43382  10.696   3.357   8.317 -0.1187 -0.4520 -0.3053
45381SOL    HW143383  10.727   3.267   8.309  0.0591 -0.5825  1.4200
45381SOL    HW243384  10.601   3.348   8.324 -0.0327 -0.6414  0.9698
45382SOL     OW43385   4.459   3.380   8.644  0.0764 -0.0601  0.3651
45382SOL    HW143386   4.537   3.408   8.691  2.0124 -0.2382 -2.5075
45382SOL    HW243387   4.418   3.316   8.703  0.7429  1.7293  2.9430
45383SOL     OW43388   2.920   7.885   8.068  0.2114 -0.2472  0.0219
45383SOL    HW143389   2.926   7.850   7.979 -0.0981 -0.2234 -0.0074
45383SOL    HW243390   2.944   7.811   8.124  1.1506 -0.0580 -0.1082
45384SOL     OW43391  11.398  10.654   1.304  0.4228 -0.0312 -0.2988
45384SOL    HW143392  11.334  10.639   1.373  0.8834 -1.1236 -0.0890
45384SOL    HW243393  11.364  10.605   1.229  0.6862 -0.0916 -0.3804
45385SOL     OW43394   0.279  10.046  12.109  0.1090  0.3704  0.2896
45385SOL    HW143395   0.299   9.956  12.085 -0.6192  0.0850  0.7278
45385SOL    HW243396   0.264  10.091  12.026  0.6171  0.1259  0.0616
45386SOL     OW43397   8.874   6.759   2.952 -0.0661 -0.9370  0.6648
45386SOL    HW143398   8.916   6.804   3.026 -0.7493 -1.4223  1.3603
45386SOL    HW243399   8.942   6.757   2.884  0.0788  0.8664  0.7090
45387SOL     OW43400   0.949  11.612   9.928 -0.3435  0.1248 -0.2192
45387SOL    HW143401   0.948  11.553  10.003  0.6156 -0.8460 -0.9271
45387SOL    HW243402   0.898  11.688   9.956  2.6459  1.3383  2.6637
45388SOL     OW43403  11.065   0.758  11.972  0.1272 -0.0470  0.1941
45388SOL    HW143404  11.101   0.830  11.919  0.8080 -0.2488  0.3729
45388SOL    HW243405  10.987   0.796  12.013  1.1794  1.0274  1.3171
45389SOL     OW43406   3.782   3.228   0.802  0.0488  0.3151 -0.4157
45389SOL    HW143407   3.764   3.135   0.811  0.8843  0.2937  1.4574
45389SOL    HW243408   3.876   3.233   0.787 -0.4037  0.7411 -3.9466
45390SOL     OW43409  12.089  11.815   7.217  0.0082 -0.3789 -0.5664
45390SOL    HW143410  12.058  11.783   7.302  0.1490  0.2128 -0.2873
45390SOL    HW243411  12.184  11.805   7.222  0.1954  1.4054  0.0951
45391SOL     OW43412   3.815   5.806   9.662 -0.1309 -0.0920  0.5807
45391SOL    HW143413   3.795   5.882   9.607 -0.5731 -0.2491  0.5187
45391SOL    HW243414   3.796   5.730   9.607  2.7464 -0.3083 -0.2678
45392SOL     OW43415  12.113  11.782   9.099 -0.2075 -0.3760  0.0635
45392SOL    HW143416  12.105  11.776   9.194 -0.5125  1.3538  0.1752
45392SOL    HW243417  12.157  11.866   9.084 -1.4648  0.0721 -1.3581
45393SOL     OW43418   1.400   5.879  11.444 -0.4301 -0.1141 -0.3615
45393SOL    HW143419   1.352   5.849  11.522 -0.3613 -1.2428 -0.7343
45393SOL    HW243420   1.476   5.821  11.439  1.2405  1.8888  0.4328
45394SOL     OW43421  11.941   8.881   8.867  0.1470 -0.3227 -0.1391
45394SOL    HW143422  11.887   8.899   8.790 -0.7112 -0.2897  0.4564
45394SOL    HW243423  11.926   8.789   8.886  0.2983 -0.3143  0.0263
45395SOL     OW43424   7.944   4.766   5.875 -0.0164  0.2228  0.5101
45395SOL    HW143425   7.892   4.763   5.954 -1.4727  2.5025 -0.2700
45395SOL    HW243426   8.029   4.800   5.903 -0.4822  0.9005  1.1280
45396SOL     OW43427   0.362   2.291  10.471 -0.1121  0.1103 -0.3776
45396SOL    HW143428   0.280   2.340  10.468  0.1559  0.7153  1.1971
45396SOL    HW243429   0.430   2.357  10.457  0.1360 -0.2757 -1.0077
45397SOL     OW43430   8.651   2.159   3.176 -0.1387  0.3765 -0.4410
45397SOL    HW143431   8.589   2.095   3.212 -0.3215  0.0616 -1.3047
45397SOL    HW243432   8.596   2.234   3.151 -0.1826  0.0864 -1.2329
45398SOL     OW43433  11.508  12.580   1.775  0.4522 -0.6121  0.3354
45398SOL    HW143434  11.513  12.667   1.814  0.1327 -0.0106 -0.9081
45398SOL    HW243435  11.415  12.555   1.784  0.4712 -0.6684  0.3764
45399SOL     OW43436   9.190   2.609  11.913  0.1087  0.1867  0.9438
45399SOL    HW143437   9.284   2.596  11.923  0.1324 -1.1011 -0.4491
45399SOL    HW243438   9.159   2.528  11.871 -1.6910  0.4153  1.7143
45400SOL     OW43439   8.346   1.012   9.567  0.0201 -0.1109  0.0442
45400SOL    HW143440   8.397   1.049   9.495 -0.8540 -0.5775 -0.8404
45400SOL    HW243441   8.406   1.012   9.641  1.0356  0.1209 -0.7574
45401SOL     OW43442   7.334  12.130  11.263  0.1368 -0.0428  0.1535
45401SOL    HW143443   7.421  12.165  11.283  1.8367 -3.5446 -0.1416
45401SOL    HW243444   7.347  12.080  11.182 -1.9773 -1.2188  0.4704
45402SOL     OW43445   4.169   5.384  11.357 -0.0905 -0.3098 -0.4419
45402SOL    HW143446   4.148   5.448  11.288 -0.1522  1.2582  0.9579
45402SOL    HW243447   4.088   5.377  11.408  0.5937  0.3109  0.7791
45403SOL     OW43448  12.072  11.910   5.911  0.3215 -0.2684  1.1495
45403SOL    HW143449  12.118  11.866   5.840  0.3942 -0.9256  1.5893
45403SOL    HW243450  12.092  11.857   5.989 -0.2423  0.0942  1.5501
45404SOL     OW43451   9.323   6.451   1.208 -0.0402 -0.1446  0.5545
45404SOL    HW143452   9.418   6.448   1.219  0.0769  1.2095  0.1250
45404SOL    HW243453   9.306   6.410   1.123  0.1823 -0.1990  0.5378
45405SOL     OW43454  10.985   5.356   2.724 -0.1670  0.1046 -0.0935
45405SOL    HW143455  10.919   5.380   2.660 -0.0637  1.5567  0.3154
45405SOL    HW243456  11.003   5.437   2.772  2.8269  0.0893 -1.0082
45406SOL     OW43457  10.120  10.759  12.703 -0.1472  0.2030 -0.2842
45406SOL    HW143458  10.202  10.713  12.685 -1.2495 -1.8582 -0.3386
45406SOL    HW243459  10.114  10.824  12.633  0.1931 -1.3874 -1.8642
45407SOL     OW43460   4.986   1.850  10.998  0.3200  0.1152 -0.6597
45407SOL    HW143461   4.966   1.885  11.085 -0.0536 -0.1602 -0.6342
45407SOL    HW243462   4.904   1.859  10.949  0.4965  0.1636 -0.9511
45408SOL     OW43463   5.648   3.308   3.134  0.2841  0.5194 -0.4281
45408SOL    HW143464   5.678   3.352   3.213 -0.6059  0.1109  0.1483
45408SOL    HW243465   5.629   3.218   3.161 -1.0113  0.6380 -0.8607
45409SOL     OW43466   8.026   8.205   8.606  0.1993 -0.0104  0.0085
45409SOL    HW143467   8.057   8.233   8.692  0.9045  1.4363 -0.6822
45409SOL    HW243468   7.987   8.118   8.621  1.1591 -0.1987  1.5975
45410SOL     OW43469   3.243   2.765   0.480  0.3967 -0.3979  0.0065
45410SOL    HW143470   3.160   2.717   0.481  0.0167  0.2374 -0.5918
45410SOL    HW243471   3.244   2.814   0.562  0.1176 -0.3014 -0.0472
45411SOL     OW43472   0.746   1.918   1.803 -0.0215 -0.2444  0.8989
45411SOL    HW143473   0.756   1.843   1.745  0.7671 -1.7194  2.8404
45411SOL    HW243474   0.695   1.981   1.752  0.3577 -1.5779 -1.2369
45412SOL     OW43475   1.516   4.729   5.379  0.1277  0.6740  0.1706
45412SOL    HW143476   1.422   4.714   5.390  0.1782 -1.2814 -1.4390
45412SOL    HW243477   1.556   4.644   5.397  1.3770  0.9876 -0.9502
45413SOL     OW43478   7.163   9.801   9.072 -0.1153 -0.1938  0.4721
45413SOL    HW143479   7.114   9.862   9.127  0.6662  0.5952  0.2979
45413SOL    HW243480   7.167   9.721   9.125 -1.4705 -0.2467  0.5418
45414SOL     OW43481   3.975   3.476  10.328  0.1569  0.1611 -0.8115
45414SOL    HW143482   3.880   3.468  10.323 -0.0437  0.4938  1.4668
45414SOL    HW243483   4.008   3.386  10.330 -0.2332  0.0281 -0.1833
45415SOL     OW43484   7.367  11.007   7.797 -0.1085 -0.4780 -0.3160
45415SOL    HW143485   7.338  10.922   7.832 -0.6710 -0.3535 -0.4837
45415SOL    HW243486   7.336  11.071   7.860  1.2801 -0.4631  0.4056
45416SOL     OW43487   0.141  12.685   6.275  0.1140 -0.1682  0.1957
45416SOL    HW143488   0.194  12.680   6.354 -0.1844  0.5372  0.4398
45416SOL    HW243489   0.088  12.763   6.286 -2.0022 -1.5939  0.5867
45417SOL     OW43490   6.693   4.999   2.552 -0.4195  0.6571 -0.4267
45417SOL    HW143491   6.645   4.921   2.580  0.3543  0.1596 -0.4436
45417SOL    HW243492   6.640   5.072   2.582 -1.3007  0.1276 -0.6441
45418SOL     OW43493   1.234   4.034   7.317 -0.0551 -0.2528  0.4184
45418SOL    HW143494   1.290   3.967   7.279 -0.2260 -1.7377  2.6115
45418SOL    HW243495   1.161   3.986   7.356 -1.2556  1.3788  0.3074
45419SOL     OW43496  10.219   0.532   7.176  0.1615 -0.2915 -0.4131
45419SOL    HW143497  10.161   0.462   7.146 -0.3800  0.5807 -1.4457
45419SOL    HW243498  10.195   0.545   7.268 -2.1106  0.7855 -1.0815
45420SOL     OW43499  11.420   4.705   7.989 -0.6331  0.2846  0.1942
45420SOL    HW143500  11.382   4.638   8.046 -1.2373  1.1908  0.8707
45420SOL    HW243501  11.412   4.786   8.038  2.0560  0.5594  0.3337
45421SOL     OW43502  10.283   8.668   2.139 -0.5280  0.3482  0.7840
45421SOL    HW143503  10.214   8.603   2.148 -1.2564  1.2081  1.6061
45421SOL    HW243504  10.250   8.744   2.185 -0.9766  2.3847 -2.5827
45422SOL     OW43505   7.089   4.555   6.772 -0.4826 -0.0237 -0.3482
45422SOL    HW143506   7.144   4.627   6.804 -2.3651  0.8208  1.2340
45422SOL    HW243507   7.032   4.595   6.708 -1.7383  0.0115  0.7519
45423SOL     OW43508   9.812  11.552   3.569 -0.5102 -0.2962 -0.0953
45423SOL    HW143509   9.806  11.471   3.519 -0.4321  1.5247 -3.3120
45423SOL    HW243510   9.855  11.526   3.651  1.3793 -3.1549 -1.8164
45424SOL     OW43511   1.644   7.045   5.058 -0.6247  0.2674  0.6692
45424SOL    HW143512   1.601   6.980   5.114 -0.2220  1.3598  2.3096
45424SOL    HW243513   1.734   7.014   5.049 -0.7623 -0.0552  0.3832
45425SOL     OW43514   7.040   6.318   4.128 -0.0106  0.4120 -0.0291
45425SOL    HW143515   6.992   6.385   4.178  2.2165  0.8796  1.6580
45425SOL    HW243516   7.126   6.357   4.113  0.0963 -0.6215 -2.4320
45426SOL     OW43517   2.723   3.032   7.326  0.7214  0.2508 -0.1857
45426SOL    HW143518   2.700   3.011   7.416  2.0614  1.0254  0.3605
45426SOL    HW243519   2.650   3.087   7.295  0.1126 -0.2551  0.3117
45427SOL     OW43520   8.746  12.049   4.030 -0.2890 -0.5706 -0.5608
45427SOL    HW143521   8.806  12.066   4.103 -1.5276 -1.1397  0.6420
45427SOL    HW243522   8.800  12.003   3.965  0.5039 -1.4276  0.6491
45428SOL     OW43523  10.058   4.425   3.409  0.5465  0.0507  0.2606
45428SOL    HW143524  10.023   4.369   3.339  1.3352 -0.4169  0.2309
45428SOL    HW243525  10.153   4.422   3.397  0.6834  0.1046  1.2506
45429SOL     OW43526   1.834   0.080  10.271  0.4607  0.2832 -0.2761
45429SOL    HW143527   1.802   0.005  10.321  0.5866  0.5991  0.2824
45429SOL    HW243528   1.775   0.151  10.295  1.7521  0.9695  1.0446
45430SOL     OW43529   6.708  10.896   6.853  0.3581 -0.5349  0.0388
45430SOL    HW143530   6.641  10.956   6.819 -0.3030 -1.0269  0.4563
45430SOL    HW243531   6.789  10.948   6.852 -0.5805  1.1685  2.5118
45431SOL     OW43532   3.692   8.653   1.195  0.2266 -0.1959 -0.8337
45431SOL    HW143533   3.720   8.626   1.107 -0.1889 -0.5864 -0.8484
45431SOL    HW243534   3.667   8.745   1.184 -1.3868 -0.6848 -1.5108
45432SOL     OW43535   7.646   1.216   9.144 -0.0627 -0.1746  0.5823
45432SOL    HW143536   7.656   1.146   9.208  0.0283 -0.9056 -0.2025
45432SOL    HW243537   7.641   1.296   9.196  0.6154 -0.6842  1.4691
45433SOL     OW43538   3.297   9.602   5.846  0.3187 -0.2685 -0.2284
45433SOL    HW143539   3.346   9.535   5.894 -0.1265 -0.1349  0.4253
45433SOL    HW243540   3.225   9.554   5.805  0.9348 -0.4529 -1.1335
45434SOL     OW43541   3.351   7.531   1.497  0.1582  0.2691 -0.0753
45434SOL    HW143542   3.258   7.556   1.498 -0.4348 -1.7487  0.8757
45434SOL    HW243543   3.352   7.447   1.450  1.8147  1.1657 -1.7856
45435SOL     OW43544  11.819   9.989   5.743 -0.3332 -0.2824  0.2921
45435SOL    HW143545  11.731   9.957   5.726 -0.7505  1.2462 -0.6469
45435SOL    HW243546  11.874   9.947   5.677 -0.2536 -1.5758  1.1539
45436SOL     OW43547  12.085   1.630   6.628 -0.2537 -0.0561 -0.0156
45436SOL    HW143548  12.014   1.628   6.564  1.6434 -2.2703 -2.2734
45436SOL    HW243549  12.079   1.546   6.674  0.9994 -0.4121 -0.4485
45437SOL     OW43550   3.360   3.136   0.107 -0.0151 -0.3519  0.3912
45437SOL    HW143551   3.370   3.133   0.202  1.0473 -1.1576  0.2730
45437SOL    HW243552   3.445   3.168   0.074  0.4199 -2.1337 -0.3741
45438SOL     OW43553   9.185   0.226  12.269  0.3450  0.1940 -0.1220
45438SOL    HW143554   9.122   0.266  12.330 -0.7522  0.4277 -1.3779
45438SOL    HW243555   9.149   0.139  12.251 -0.0289  0.5931 -1.3988
45439SOL     OW43556   6.770   9.219   0.387 -0.5244  0.4306  0.2398
45439SOL    HW143557   6.735   9.234   0.474 -1.5336  1.3137 -0.2979
45439SOL    HW243558   6.827   9.295   0.371 -1.1719  0.8238 -0.2639
45440SOL     OW43559  12.333   9.193  11.175 -0.0418  0.1846 -0.6843
45440SOL    HW143560  12.363   9.274  11.215  0.1371 -0.4274  0.4805
45440SOL    HW243561  12.238   9.195  11.185 -0.0430  0.2862 -0.7158
45441SOL     OW43562   0.997   9.002   7.213  0.2045 -0.6805  0.6750
45441SOL    HW143563   0.962   8.956   7.137  0.5225  1.2711 -0.7549
45441SOL    HW243564   1.069   8.947   7.245  0.2174 -1.4295 -0.6039
45442SOL     OW43565   1.255   2.395   6.285 -0.2720  0.1142  0.0041
45442SOL    HW143566   1.311   2.471   6.267  1.3884 -0.6746  1.5247
45442SOL    HW243567   1.235   2.402   6.379  1.9433 -2.5299  0.8055
45443SOL     OW43568   1.563  12.541   7.858  0.0313 -0.1235  0.0068
45443SOL    HW143569   1.499  12.556   7.788  0.1271 -1.3918 -0.3726
45443SOL    HW243570   1.512  12.499   7.928  0.1878  0.0604  0.2341
45444SOL     OW43571   2.069   4.872   9.998 -0.2498 -0.1368  0.4299
45444SOL    HW143572   2.080   4.777   9.986  1.7763  0.2429 -1.3515
45444SOL    HW243573   2.094   4.888  10.088 -0.9145 -1.3160  0.8468
45445SOL     OW43574   5.601  12.468  11.491 -0.1438 -0.7666 -0.1015
45445SOL    HW143575   5.608  12.536  11.559  1.2175 -1.6436  0.6874
45445SOL    HW243576   5.628  12.513  11.411  0.2554 -0.2271  0.3187
45446SOL     OW43577   5.847   6.392  11.687 -0.3259  0.0877 -0.2927
45446SOL    HW143578   5.818   6.471  11.733 -0.1153 -0.1368  0.2404
45446SOL    HW243579   5.845   6.415  11.594  2.8771  1.8528 -0.0704
45447SOL     OW43580   9.559  12.472  11.256 -0.1640  0.2960 -0.3034
45447SOL    HW143581   9.521  12.437  11.336  0.7155 -0.5084 -0.2323
45447SOL    HW243582   9.501  12.442  11.186 -0.2545 -0.0224 -0.0896
45448SOL     OW43583   0.831   6.773  10.370  0.0281  0.4253 -0.0896
45448SOL    HW143584   0.763   6.744  10.430  0.1040  0.3750 -0.0282
45448SOL    HW243585   0.844   6.699  10.311  0.5298  0.1701  0.3359
45449SOL     OW43586  10.017   3.626   8.078  0.1026 -0.1553  0.1611
45449SOL    HW143587  10.103   3.668   8.080 -0.9968  2.2114  0.9655
45449SOL    HW243588   9.956   3.694   8.108 -1.9822 -1.9480  0.2350
45450SOL     OW43589   5.139   1.778   2.267  0.6004  0.0984  0.5507
45450SOL    HW143590   5.196   1.818   2.333  1.4442 -0.4611  0.1756
45450SOL    HW243591   5.093   1.852   2.227  0.9952  0.5482  0.9194
45451SOL     OW43592   9.586   5.314   2.561 -0.0662 -0.1234  0.0825
45451SOL    HW143593   9.677   5.336   2.541 -0.4183  0.7337 -0.6610
45451SOL    HW243594   9.591   5.264   2.642  1.4471 -3.6327 -1.9265
45452SOL     OW43595   9.434   5.022   2.047 -0.1372  0.1230  0.2444
45452SOL    HW143596   9.515   5.064   2.015 -0.8755  0.1775 -1.7218
45452SOL    HW243597   9.368   5.091   2.039 -0.8916 -0.6891 -0.7563
45453SOL     OW43598  12.201   3.379  10.543 -0.1055 -0.3531 -0.2006
45453SOL    HW143599  12.110   3.357  10.565  0.0736 -1.2817 -0.3571
45453SOL    HW243600  12.215   3.464  10.584 -0.4617 -1.0494  1.4429
45454SOL     OW43601   9.479   0.010   8.229  0.3691  0.4979  0.5366
45454SOL    HW143602   9.554  -0.041   8.201  1.5331  1.9166  0.9473
45454SOL    HW243603   9.404  -0.031   8.185  1.4668 -0.4464 -0.5214
45455SOL     OW43604  10.903   4.560   2.753  0.3508  0.2766 -0.1173
45455SOL    HW143605  10.941   4.475   2.730  0.0824 -0.6693  2.5454
45455SOL    HW243606  10.977   4.610   2.788 -0.1676 -0.4108  2.1072
45456SOL     OW43607   9.158   2.853   5.851 -0.3300  0.3513 -0.1303
45456SOL    HW143608   9.230   2.807   5.806  0.7100  1.6246  0.1866
45456SOL    HW243609   9.159   2.818   5.940 -3.3038 -3.2444 -1.2358
45457SOL     OW43610   5.267  10.361  10.766 -1.0201  0.0617  0.5960
45457SOL    HW143611   5.218  10.381  10.686 -3.8923 -0.3574  2.1030
45457SOL    HW243612   5.263  10.266  10.773 -1.3856  0.1384  1.5474
45458SOL     OW43613   1.223  11.721  12.342 -0.3033 -0.0159  0.4923
45458SOL    HW143614   1.277  11.671  12.403  0.1146 -1.2820 -0.8541
45458SOL    HW243615   1.264  11.808  12.339  0.6441 -0.4437  0.7799
45459SOL     OW43616  10.988   5.921   7.477 -0.4600 -0.0114  0.0100
45459SOL    HW143617  10.995   5.983   7.550  0.6600  1.8838 -1.6264
45459SOL    HW243618  11.061   5.860   7.491 -1.0118 -0.4497  1.1234
45460SOL     OW43619   5.640   2.338   9.665  0.5498  0.5024 -0.3700
45460SOL    HW143620   5.647   2.341   9.760 -1.3772 -0.2028 -0.1538
45460SOL    HW243621   5.593   2.418   9.641  0.3246  0.2999 -0.6233
45461SOL     OW43622   5.550  12.633   2.127 -0.6478  0.2784  0.4087
45461SOL    HW143623   5.498  12.712   2.117 -1.6855 -0.2367  1.4861
45461SOL    HW243624   5.619  12.657   2.189 -0.7835  0.4184  0.5057
45462SOL     OW43625   5.388   6.102   6.991  0.5255  0.4005  0.0740
45462SOL    HW143626   5.319   6.146   6.940  1.1858  0.4305 -0.8194
45462SOL    HW243627   5.376   6.009   6.972 -0.7344  0.1646  1.7931
45463SOL     OW43628   5.015   5.158   6.284  0.7678 -0.2062  0.4667
45463SOL    HW143629   5.074   5.159   6.359  0.1268  0.1621  0.9725
45463SOL    HW243630   4.931   5.131   6.319  0.1492  1.1936  0.1299
45464SOL     OW43631   7.922   5.694   3.636  0.4323 -0.5282 -0.0658
45464SOL    HW143632   7.998   5.670   3.582  1.5106 -3.7025  2.4857
45464SOL    HW243633   7.953   5.765   3.691  0.3143  0.6411 -1.4605
45465SOL     OW43634   1.498   6.901  10.108  0.2916  0.3391 -0.3138
45465SOL    HW143635   1.575   6.861  10.147  0.8576  1.4240 -0.2833
45465SOL    HW243636   1.478   6.976  10.163 -0.8619  0.0286 -0.2627
45466SOL     OW43637   8.880  11.352   3.831  0.6817 -0.2315 -0.1669
45466SOL    HW143638   8.793  11.389   3.816  0.2966 -1.0490 -0.0149
45466SOL    HW243639   8.938  11.403   3.774  0.1156  0.3334 -0.2533
45467SOL     OW43640   4.638  11.338   7.038  0.4693 -0.3323 -0.3901
45467SOL    HW143641   4.702  11.384   7.092  0.4268 -1.9906  1.1631
45467SOL    HW243642   4.573  11.405   7.016  1.4345  0.8067  0.0708
45468SOL     OW43643   0.762   1.030   5.426 -0.5491 -0.7289  0.7065
45468SOL    HW143644   0.676   1.045   5.465  0.0272  0.5432  1.5666
45468SOL    HW243645   0.797   1.118   5.410  0.6805 -1.2137  0.5881
45469SOL     OW43646   3.205  12.553   1.145 -0.2363  0.0122 -0.4797
45469SOL    HW143647   3.258  12.627   1.176  0.7909 -1.6212  2.0182
45469SOL    HW243648   3.119  12.591   1.129  0.4968  1.9256 -0.1843
45470SOL     OW43649   3.555   4.712   3.067  0.5014  0.2522  0.0866
45470SOL    HW143650   3.468   4.672   3.068  0.1990  0.7575  3.0389
45470SOL    HW243651   3.614   4.642   3.096  0.5407  0.7788  1.3598
45471SOL     OW43652   5.714   7.573   1.470 -0.2838 -0.1954 -0.5828
45471SOL    HW143653   5.729   7.528   1.388 -0.7992  1.3008 -1.5442
45471SOL    HW243654   5.651   7.642   1.449  1.0912  1.5226  0.5871
45472SOL     OW43655   5.021   4.987   8.868  0.3343  0.2739  0.1694
45472SOL    HW143656   5.104   5.025   8.839 -1.2961  2.6055 -1.8773
45472SOL    HW243657   4.964   4.995   8.792 -1.7318 -1.5519  1.4099
45473SOL     OW43658   3.023   9.458  10.367 -0.4182 -0.4122 -0.2738
45473SOL    HW143659   3.098   9.518  10.374 -0.3008 -0.6823  1.2493
45473SOL    HW243660   3.060   9.379  10.329 -0.1952 -0.1241 -0.6666
45474SOL     OW43661   9.753   2.239   0.433 -0.2777 -0.2373  0.0104
45474SOL    HW143662   9.675   2.204   0.478 -0.8531 -0.2342 -0.9593
45474SOL    HW243663   9.739   2.218   0.341 -1.4234  3.7415 -0.9403
45475SOL     OW43664   7.952   5.989   2.065 -0.0824  0.0649  0.2651
45475SOL    HW143665   7.963   6.053   2.135 -0.6454  2.1230 -1.4087
45475SOL    HW243666   8.024   6.007   2.005  0.8123 -2.1320  0.5928
45476SOL     OW43667   4.401   3.933   9.546  0.1090 -0.3358  0.1935
45476SOL    HW143668   4.374   3.861   9.603 -0.0013  1.2548  2.2499
45476SOL    HW243669   4.427   4.003   9.606 -1.3479  1.9415 -1.6800
45477SOL     OW43670  11.294   3.492   5.809  0.5021  0.2457 -0.0832
45477SOL    HW143671  11.204   3.524   5.799  0.2369 -0.5383 -0.2824
45477SOL    HW243672  11.307   3.487   5.904  0.4226  0.5961 -0.0528
45478SOL     OW43673  12.168   0.357   1.974  0.4332  1.0171  0.2468
45478SOL    HW143674  12.250   0.360   2.024  0.7324  0.9509 -0.2407
45478SOL    HW243675  12.134   0.269   1.991  0.8500  0.7681 -0.1540
45479SOL     OW43676   4.193   2.119   1.378  0.1114 -0.5092 -0.3209
45479SOL    HW143677   4.213   2.064   1.454 -1.1328 -0.1109  0.3201
45479SOL    HW243678   4.252   2.194   1.386  0.5922 -0.8928 -0.2349
45480SOL     OW43679   0.280  10.337  12.010 -0.2995  0.0891 -0.7771
45480SOL    HW143680   0.286  10.422  11.966  3.8278  0.9461  0.9673
45480SOL    HW243681   0.269  10.359  12.103  1.9100 -1.1386 -0.1605
45481SOL     OW43682  10.578   5.010   9.003  0.3986  0.0686  0.5911
45481SOL    HW143683  10.586   4.915   8.998 -0.2148  0.0817 -1.2048
45481SOL    HW243684  10.654   5.038   9.053 -0.9216 -1.5639  3.8160
45482SOL     OW43685   7.163   0.540  12.696  0.1905  0.5271 -0.0719
45482SOL    HW143686   7.177   0.571  12.607 -0.1334  1.7357  0.2860
45482SOL    HW243687   7.097   0.598  12.732 -3.9765 -3.2211 -0.7802
45483SOL     OW43688   9.965   8.092   2.359 -0.3731  0.1532  0.4821
45483SOL    HW143689   9.880   8.056   2.335 -1.4177  3.9027 -2.4078
45483SOL    HW243690   9.993   8.142   2.282  3.7300  0.4528  1.9101
45484SOL     OW43691   7.678   9.113   2.010 -0.1356 -0.3589 -0.1705
45484SOL    HW143692   7.633   9.073   2.084  0.4579 -2.1433 -0.7308
45484SOL    HW243693   7.764   9.070   2.008  0.4039  0.6988 -1.0331
45485SOL     OW43694  10.159  10.198   0.661  0.2966 -0.1349  0.2455
45485SOL    HW143695  10.123  10.281   0.628  0.0918 -1.0854 -2.0697
45485SOL    HW243696  10.107  10.180   0.740 -2.0218  0.2767 -1.0910
45486SOL     OW43697   4.010  12.215   3.808 -0.1393  0.3016 -0.0966
45486SOL    HW143698   4.032  12.122   3.801 -0.0571  0.3700 -0.8517
45486SOL    HW243699   3.914  12.216   3.801 -0.2620  0.1563  1.3926
45487SOL     OW43700   5.671   4.828  12.283 -0.3062 -0.6421 -0.3924
45487SOL    HW143701   5.655   4.875  12.201 -0.9803 -2.6749 -1.4973
45487SOL    HW243702   5.758   4.858  12.311 -0.7815  1.3880 -0.8763
45488SOL     OW43703   3.646   9.324   0.298  0.6836  0.0942  0.3406
45488SOL    HW143704   3.680   9.236   0.285  2.6162  0.9079 -0.4300
45488SOL    HW243705   3.596   9.343   0.219  1.1286  0.0709  0.0534
45489SOL     OW43706  11.365   3.443   8.252 -0.3006  0.5412 -0.1263
45489SOL    HW143707  11.442   3.401   8.291 -0.5576  0.1061 -0.0739
45489SOL    HW243708  11.296   3.378   8.263 -0.9979  1.4265  0.9954
45490SOL     OW43709   6.249   2.680  11.907 -0.1401 -0.2724  0.2748
45490SOL    HW143710   6.177   2.619  11.925 -0.1184 -0.5176 -0.4537
45490SOL    HW243711   6.288   2.697  11.993 -1.7599  0.7482  0.8601
45491SOL     OW43712   8.792   3.410   1.150  0.1804 -0.0877  0.2144
45491SOL    HW143713   8.840   3.330   1.132 -2.7893 -1.7713 -0.8848
45491SOL    HW243714   8.788   3.456   1.066  0.5653  0.4599  0.4899
45492SOL     OW43715   4.557   7.627   2.940  0.1082 -0.2467 -0.4647
45492SOL    HW143716   4.611   7.676   3.002 -0.0041  0.8841 -1.2213
45492SOL    HW243717   4.519   7.695   2.884 -1.4227 -1.0771 -0.4773
45493SOL     OW43718   4.905  10.489   0.271 -0.0836 -0.5074 -0.1489
45493SOL    HW143719   4.993  10.451   0.282  0.2103  0.0670 -0.4809
45493SOL    HW243720   4.846  10.415   0.285  0.4831 -1.1675 -1.0902
45494SOL     OW43721   5.246  12.378  10.663 -0.1384  0.2335 -0.0096
45494SOL    HW143722   5.299  12.338  10.594  0.9045 -0.1467  0.9795
45494SOL    HW243723   5.211  12.304  10.713 -0.4217  0.5146  0.2127
45495SOL     OW43724   4.990   3.525   5.872 -0.2458  0.3845 -0.0575
45495SOL    HW143725   4.955   3.438   5.854 -1.4936  1.2556 -2.2068
45495SOL    HW243726   4.923   3.586   5.840  0.8888  2.1521  0.7368
45496SOL     OW43727  11.108  11.071   1.093  0.0005 -0.1118 -0.1279
45496SOL    HW143728  11.077  11.057   1.182  1.7669  0.0498  0.5617
45496SOL    HW243729  11.032  11.102   1.045 -1.3395 -1.5944  0.9642
45497SOL     OW43730   4.504   5.223   9.010 -0.1628  0.1769 -0.6553
45497SOL    HW143731   4.585   5.171   9.017 -0.9502 -0.9571  0.5687
45497SOL    HW243732   4.448   5.171   8.952 -1.2733 -0.8413  1.2482
45498SOL     OW43733   7.361   1.810  10.431  0.4647  0.2344 -0.1200
45498SOL    HW143734   7.428   1.812  10.500 -0.4759 -0.0353  0.8174
45498SOL    HW243735   7.326   1.721  10.434 -0.6531  0.6656  0.1150
45499SOL     OW43736  10.258   6.181   9.813 -0.2173  0.8229 -0.1987
45499SOL    HW143737  10.168   6.155   9.835  0.1044  0.4588  0.7468
45499SOL    HW243738  10.251   6.272   9.784 -0.5922  1.5839  2.1375
45500SOL     OW43739   2.930   0.492   6.344  0.1265  0.0100  0.5737
45500SOL    HW143740   3.017   0.451   6.345 -0.8555 -2.3219 -0.5485
45500SOL    HW243741   2.925   0.537   6.260 -0.6626 -2.2496 -0.6834
45501SOL     OW43742   6.370   2.099  10.677 -0.3031  0.3178 -0.2739
45501SOL    HW143743   6.385   2.193  10.690 -0.0696  0.1855  0.4586
45501SOL    HW243744   6.413   2.079  10.594  1.0956  0.5238  0.3890
45502SOL     OW43745   5.527  12.190  11.489 -0.0771  0.1335 -0.8068
45502SOL    HW143746   5.547  12.281  11.469 -1.1988  0.6346  0.2561
45502SOL    HW243747   5.587  12.166  11.559 -0.0124  0.1557 -0.8546
45503SOL     OW43748   8.294  12.305   3.882  0.1103 -0.0693  0.0739
45503SOL    HW143749   8.346  12.383   3.903  2.4902 -1.1009 -1.5433
45503SOL    HW243750   8.349  12.255   3.822 -2.7035 -1.4029 -1.6075
45504SOL     OW43751   9.607   2.741   7.379 -0.5654  0.2727  0.0809
45504SOL    HW143752   9.547   2.669   7.394 -0.1212  0.1928  1.7580
45504SOL    HW243753   9.558   2.819   7.403  0.0956  0.1615  2.0214
45505SOL     OW43754  11.344   6.498   5.819  0.6308  0.4859 -0.2711
45505SOL    HW143755  11.393   6.445   5.757 -1.8546 -0.0858 -1.9095
45505SOL    HW243756  11.257   6.506   5.780 -0.8376  0.8055  2.7635
45506SOL     OW43757  10.594   9.365   2.011 -0.2495  0.4569  0.4842
45506SOL    HW143758  10.508   9.372   1.970 -0.6254  1.0038  1.3335
45506SOL    HW243759  10.652   9.333   1.942 -0.9677  0.8679 -0.3202
45507SOL     OW43760   4.089   5.889   8.300  0.4118 -0.0184 -0.4893
45507SOL    HW143761   4.149   5.815   8.311  0.6852  0.1350 -0.9105
45507SOL    HW243762   4.054   5.905   8.387  0.5815 -0.4521 -0.3408
45508SOL     OW43763   4.733   0.845   8.590  0.0537  0.4775 -0.1381
45508SOL    HW143764   4.739   0.755   8.623  1.5607  0.2828 -0.8909
45508SOL    HW243765   4.718   0.836   8.496  1.2251  0.9858 -0.3935
45509SOL     OW43766  11.482   2.605   2.632  0.2275 -0.2335  0.7515
45509SOL    HW143767  11.563   2.559   2.608 -0.0936 -0.5035  0.1415
45509SOL    HW243768  11.429   2.602   2.552  0.2225  1.2770  0.6666
45510SOL     OW43769   7.897   8.094   1.884  0.2058 -0.6170  0.6801
45510SOL    HW143770   7.975   8.145   1.906 -0.6737  0.4363  1.4852
45510SOL    HW243771   7.873   8.050   1.965 -0.6041 -0.1292  0.7157
45511SOL     OW43772   0.827   0.837   9.084 -0.3990  0.4593  0.0252
45511SOL    HW143773   0.737   0.835   9.117 -0.0155  0.4687  1.1335
45511SOL    HW243774   0.879   0.799   9.155  0.3906 -0.1860 -0.8857
45512SOL     OW43775   3.964  10.423   4.966  0.5783  0.2634  0.2075
45512SOL    HW143776   4.001  10.505   4.998 -0.3842  1.3753 -1.3526
45512SOL    HW243777   3.998  10.415   4.877 -0.8188 -0.0430 -0.3161
45513SOL     OW43778   2.670  12.350  11.153 -0.0780 -0.2312  0.1861
45513SOL    HW143779   2.754  12.372  11.192 -0.2752 -2.4183  2.0693
45513SOL    HW243780   2.692  12.314  11.067  0.4655  3.4549 -1.3906
45514SOL     OW43781   4.278   7.733  12.509 -0.7594  0.2669 -0.8427
45514SOL    HW143782   4.229   7.663  12.468 -0.0624 -0.8643  0.1807
45514SOL    HW243783   4.230   7.753  12.589 -0.5758  0.4583 -0.7778
45515SOL     OW43784   7.250   4.466   3.183  0.0028  0.7118 -0.3767
45515SOL    HW143785   7.319   4.411   3.220  0.0288  1.3633  0.5780
45515SOL    HW243786   7.265   4.462   3.089 -1.4533 -2.8395 -0.6135
45516SOL     OW43787  12.535   7.685   3.721 -0.3244 -0.0638  0.4455
45516SOL    HW143788  12.573   7.673   3.634  0.9876  0.0103  0.9907
45516SOL    HW243789  12.483   7.606   3.736 -0.0403 -0.3647 -0.1401
45517SOL     OW43790   4.607  10.470  12.139 -0.3106  1.2066 -0.5450
45517SOL    HW143791   4.701  10.452  12.151 -0.7881 -0.3944  1.2962
45517SOL    HW243792   4.582  10.518  12.217 -0.9027  2.3818 -1.4238
45518SOL     OW43793  12.640   0.579  12.627  0.4399 -0.0880  0.3012
45518SOL    HW143794  12.649   0.514  12.696  0.7978  0.5018  0.8212
45518SOL    HW243795  12.668   0.533  12.548  0.1239 -0.7386  0.5557
45519SOL     OW43796   2.681   8.790   5.660 -0.1696  0.0312 -0.5372
45519SOL    HW143797   2.593   8.803   5.624 -0.0390  0.2485 -0.7775
45519SOL    HW243798   2.667   8.736   5.738 -0.5546  0.3824 -0.3585
45520SOL     OW43799   4.160  10.556   7.443 -0.7213 -0.1880 -0.4085
45520SOL    HW143800   4.157  10.538   7.350 -0.1958  2.4708 -1.0272
45520SOL    HW243801   4.240  10.514   7.474 -0.1071  0.1732 -1.4792
45521SOL     OW43802  11.059   6.163   5.395  0.5673 -0.3526  0.2851
45521SOL    HW143803  10.987   6.197   5.342  0.5774  0.5264  0.8188
45521SOL    HW243804  11.137   6.202   5.356  0.4891  1.2303  1.5966
45522SOL     OW43805   8.321   6.755   4.154 -0.6074 -0.1217 -0.1617
45522SOL    HW143806   8.332   6.845   4.124 -0.0933  0.2880  1.1897
45522SOL    HW243807   8.410   6.719   4.158 -0.7894 -0.6180 -0.4842
45523SOL     OW43808   0.327   7.980   7.896 -0.4589  0.2976 -0.2360
45523SOL    HW143809   0.338   7.927   7.975  2.0635  0.8104 -0.1647
45523SOL    HW243810   0.416   7.994   7.863 -1.3326  1.3078 -2.3782
45524SOL     OW43811   3.971   5.130   8.888 -0.1987 -0.1005  0.2162
45524SOL    HW143812   4.023   5.203   8.852  0.4082 -0.5804  0.1037
45524SOL    HW243813   4.000   5.124   8.979 -0.4101 -0.0564  0.2854
45525SOL     OW43814   2.958   1.514   7.126 -0.5655 -0.0748  0.1203
45525SOL    HW143815   3.035   1.513   7.183  0.1653  3.3412 -0.6102
45525SOL    HW243816   2.992   1.534   7.039 -2.1477 -0.2238 -0.5674
45526SOL     OW43817   8.321   9.938   3.516 -0.3916 -0.9262 -0.5223
45526SOL    HW143818   8.398   9.961   3.568 -1.0677 -0.4348  0.2914
45526SOL    HW243819   8.317  10.006   3.448  0.0679 -1.1373 -0.7654
45527SOL     OW43820   7.070   1.443   3.460 -0.8696 -0.1780  0.6402
45527SOL    HW143821   7.010   1.391   3.407  0.8493 -1.0463 -0.5365
45527SOL    HW243822   7.114   1.501   3.398  1.0880 -1.1179  1.0408
45528SOL     OW43823   7.325   1.043   7.007  1.0020  0.0359 -1.0268
45528SOL    HW143824   7.259   1.006   7.066  0.2885 -0.5762 -2.1910
45528SOL    HW243825   7.348   1.127   7.047 -0.1802  0.0829 -0.3948
45529SOL     OW43826   0.293   5.719   7.832  0.5000  0.4274  0.7374
45529SOL    HW143827   0.359   5.650   7.839  0.5978  0.5583  1.1743
45529SOL    HW243828   0.313   5.763   7.750  0.2643 -0.2329  0.3161
45530SOL     OW43829  12.061   0.515   5.907 -0.0517 -0.2768 -0.4061
45530SOL    HW143830  12.062   0.592   5.851 -0.9346  0.9469  1.1884
45530SOL    HW243831  12.087   0.546   5.993 -0.8299 -1.6542  0.3813
45531SOL     OW43832   9.706   8.197   8.895  0.2327  0.5039  0.0300
45531SOL    HW143833   9.664   8.113   8.915  2.1628 -1.0116 -1.8108
45531SOL    HW243834   9.642   8.263   8.922 -1.9621 -1.5696  0.2190
45532SOL     OW43835  10.590   0.622   8.777 -0.7046 -0.5710 -0.3312
45532SOL    HW143836  10.511   0.633   8.831 -1.1948 -2.8158 -0.4795
45532SOL    HW243837  10.556   0.595   8.692  0.1994 -1.6726 -0.3643
45533SOL     OW43838   8.014   3.562  10.225 -0.0990 -0.5556 -0.0414
45533SOL    HW143839   8.003   3.467  10.226  1.0055 -0.7006  0.4892
45533SOL    HW243840   8.107   3.575  10.246 -0.7438  0.7201  2.4067
45534SOL     OW43841   8.830   5.501   6.973  0.0574 -0.2373  0.0422
45534SOL    HW143842   8.810   5.408   6.976  0.8519 -0.4108  0.3454
45534SOL    HW243843   8.874   5.514   6.889  0.8763 -0.3422  0.4469
45535SOL     OW43844   5.856  11.583   1.358  0.3333  0.0640 -0.1670
45535SOL    HW143845   5.802  11.542   1.426  2.4654 -0.0268  1.5768
45535SOL    HW243846   5.861  11.675   1.385 -0.1784  0.4112 -1.1935
45536SOL     OW43847   7.820  12.121   0.064  0.0176 -0.0888  0.4986
45536SOL    HW143848   7.865  12.198   0.029  0.2193 -0.3121  0.2674
45536SOL    HW243849   7.887  12.054   0.072 -0.3534 -0.5859 -0.3402
45537SOL     OW43850  11.146   7.341  10.670  0.0524  0.5666  0.4244
45537SOL    HW143851  11.205   7.355  10.744 -1.0732 -1.1038  1.6789
45537SOL    HW243852  11.059   7.331  10.709 -0.7016  0.4907 -1.1938
45538SOL     OW43853   2.096   2.427  12.294  0.2694  0.7160  0.1331
45538SOL    HW143854   2.139   2.345  12.320 -0.7315  0.2736  0.4373
45538SOL    HW243855   2.165   2.477  12.249  0.1240 -1.6154 -2.9805
45539SOL     OW43856   9.850   3.358   2.757  0.2229  0.7236 -0.8659
45539SOL    HW143857   9.771   3.413   2.754 -0.3813 -0.0449  0.1180
45539SOL    HW243858   9.875   3.357   2.850  0.2947 -0.5335 -0.8752
45540SOL     OW43859   7.514   2.969   6.820  0.4109  0.5630  0.3746
45540SOL    HW143860   7.491   3.001   6.733 -2.3592 -0.9910  0.4335
45540SOL    HW243861   7.593   2.917   6.806 -0.7332 -0.7740 -1.5189
45541SOL     OW43862   9.575   6.032   3.744  0.8676 -0.2221 -0.0467
45541SOL    HW143863   9.631   6.109   3.728  1.8204 -0.8961 -0.0773
45541SOL    HW243864   9.549   6.003   3.656  1.7356 -0.7967 -0.1282
45542SOL     OW43865   1.350   0.688   4.443 -0.0580 -0.2500  0.3309
45542SOL    HW143866   1.282   0.657   4.384 -0.0315  0.6434 -0.1897
45542SOL    HW243867   1.339   0.783   4.444 -0.7746 -0.2971  2.6312
45543SOL     OW43868   9.487  12.283   3.366  0.4623 -0.4712 -0.6008
45543SOL    HW143869   9.493  12.357   3.425 -0.8904 -0.2329 -0.7328
45543SOL    HW243870   9.576  12.272   3.332  0.8201  0.6552 -0.0734
45544SOL     OW43871  12.120   4.968   1.716 -0.7147 -0.4841 -0.0214
45544SOL    HW143872  12.059   4.951   1.788 -1.0448 -3.3868 -0.8377
45544SOL    HW243873  12.198   4.918   1.740  0.0679  0.4383 -0.5990
45545SOL     OW43874   5.491   3.208   0.161  0.0844  0.5567  0.0302
45545SOL    HW143875   5.405   3.190   0.200  0.5529 -0.9258  0.4358
45545SOL    HW243876   5.493   3.304   0.152 -0.6412  0.8479  2.2607
45546SOL     OW43877   5.719   9.481  12.186 -0.4105  0.3952  0.4418
45546SOL    HW143878   5.729   9.450  12.276  3.0534  2.0441  0.7949
45546SOL    HW243879   5.801   9.454  12.143 -1.9189 -0.2336 -2.2339
45547SOL     OW43880   8.171   1.324   5.435  0.1160 -0.4484  0.4583
45547SOL    HW143881   8.233   1.317   5.363  0.8303  1.3935  0.8456
45547SOL    HW243882   8.167   1.235   5.471 -0.2726 -1.4128 -1.8032
45548SOL     OW43883   7.248   0.148  10.127 -0.1907  0.0067  0.0850
45548SOL    HW143884   7.326   0.092  10.136 -1.6071 -1.8403  1.6986
45548SOL    HW243885   7.182   0.091  10.088 -1.3050  0.9449  0.5461
45549SOL     OW43886   4.282  10.668   8.167  0.1807 -0.1319 -0.5294
45549SOL    HW143887   4.354  10.612   8.192  0.2684  0.0162 -0.4511
45549SOL    HW243888   4.289  10.675   8.071  0.6018  0.3312 -0.4690
45550SOL     OW43889   2.699   3.143   3.645  0.0226  0.0715 -0.5694
45550SOL    HW143890   2.740   3.159   3.560  2.9470 -1.9155  0.3249
45550SOL    HW243891   2.691   3.230   3.684  1.3300  0.7563 -1.7245
45551SOL     OW43892   2.115  11.941   4.515 -0.4612 -0.2803  0.4360
45551SOL    HW143893   2.202  11.982   4.514  0.4938 -2.1877 -0.2113
45551SOL    HW243894   2.094  11.928   4.423 -1.3544  0.0021  0.5989
45552SOL     OW43895  11.236   5.044   0.376 -0.5511  0.1152 -0.1734
45552SOL    HW143896  11.218   5.129   0.336  0.4325 -0.4502 -1.9322
45552SOL    HW243897  11.162   4.990   0.351 -0.3446 -0.0027 -0.5444
45553SOL     OW43898   4.478   2.590   9.456 -0.0563  0.3786  0.0546
45553SOL    HW143899   4.413   2.546   9.511  0.7185 -0.6657  0.1493
45553SOL    HW243900   4.553   2.605   9.514  1.1952 -1.6880 -0.9173
45554SOL     OW43901   6.634   5.098  10.270  0.4051  0.5372  0.6573
45554SOL    HW143902   6.541   5.108  10.287  0.5072 -0.4879  2.0005
45554SOL    HW243903   6.676   5.160  10.329  0.6286 -0.4796  1.6043
45555SOL     OW43904   1.079  10.506   4.690 -0.2026 -0.5113 -0.2893
45555SOL    HW143905   1.109  10.419   4.716  1.8928  0.3178  0.3233
45555SOL    HW243906   1.070  10.553   4.773  0.3053  0.3085 -0.6849
45556SOL     OW43907   9.760   4.892   9.376 -0.8401 -0.3839  0.6253
45556SOL    HW143908   9.726   4.976   9.343  0.0674 -0.0387  0.5398
45556SOL    HW243909   9.682   4.839   9.390 -1.3667  0.1275 -0.2713
45557SOL     OW43910   3.297   7.717   8.762 -0.4584  0.0936  0.4420
45557SOL    HW143911   3.318   7.635   8.718  0.3841 -0.0017  1.0126
45557SOL    HW243912   3.290   7.694   8.854  1.0557  0.8856  0.7760
45558SOL     OW43913   5.522   9.118   2.897  0.4020 -0.3997 -0.3951
45558SOL    HW143914   5.566   9.040   2.862  1.6324 -0.0350  0.2707
45558SOL    HW243915   5.467   9.148   2.825 -0.8726 -2.4283 -0.3392
45559SOL     OW43916   2.631   7.667  12.062  0.1075 -0.5239  0.4326
45559SOL    HW143917   2.713   7.658  12.110  0.1244  1.1718  0.7746
45559SOL    HW243918   2.565   7.682  12.130  0.1722  2.1541 -0.0074
45560SOL     OW43919   4.409  10.746   2.955 -0.0820 -0.2013 -0.0394
45560SOL    HW143920   4.476  10.693   2.997 -0.2733  0.3258  0.9428
45560SOL    HW243921   4.335  10.686   2.944  0.6046 -0.8560 -1.3598
45561SOL     OW43922   3.996  11.631  10.749  0.5386  0.6017  0.3089
45561SOL    HW143923   3.906  11.628  10.783 -0.4795 -0.9362 -2.2320
45561SOL    HW243924   4.051  11.617  10.826 -1.5603 -2.7556  1.3990
45562SOL     OW43925   4.119   7.423  11.521 -0.4343  0.1056 -0.1327
45562SOL    HW143926   4.160   7.448  11.438 -0.4793 -2.5355 -1.0385
45562SOL    HW243927   4.035   7.385  11.495 -0.4540 -0.7460  1.1300
45563SOL     OW43928   2.252   7.466   0.025  0.4284  0.4554 -0.3319
45563SOL    HW143929   2.342   7.437   0.009  0.6445  0.3927  0.8667
45563SOL    HW243930   2.228   7.424   0.108 -0.6451  0.6174 -0.5462
45564SOL     OW43931   6.730   0.904   8.919  0.2521 -0.2873 -0.3164
45564SOL    HW143932   6.772   0.911   9.005 -1.6038  0.2655  0.6115
45564SOL    HW243933   6.671   0.980   8.915 -0.6991 -1.0451 -1.4890
45565SOL     OW43934  10.538   7.530   9.777  0.0274  0.6119 -0.1210
45565SOL    HW143935  10.453   7.487   9.784  0.3173  0.1448  0.7643
45565SOL    HW243936  10.522   7.620   9.802 -0.9539  1.6188 -3.7531
45566SOL     OW43937   0.498   6.892   9.793 -0.2792  0.1036 -0.2054
45566SOL    HW143938   0.437   6.829   9.754 -1.8828  1.3749  0.1646
45566SOL    HW243939   0.558   6.914   9.721  0.2033 -1.6322 -0.4004
45567SOL     OW43940   7.195   3.275   5.965  0.5181  0.1559 -0.2320
45567SOL    HW143941   7.262   3.216   5.997 -0.3096 -0.1733  0.9365
45567SOL    HW243942   7.243   3.352   5.934  1.3777  0.3577  1.5132
45568SOL     OW43943   1.094   2.445   7.789 -0.0470  0.2003  0.1897
45568SOL    HW143944   1.086   2.361   7.745  0.2319  0.9685 -1.3951
45568SOL    HW243945   1.183   2.475   7.769 -0.4811  1.3246 -0.1385
45569SOL     OW43946   2.467   7.189  10.785  0.3939  0.2899 -0.7097
45569SOL    HW143947   2.449   7.196  10.691  1.7499  1.7399 -0.8985
45569SOL    HW243948   2.467   7.279  10.816  2.0728 -0.0027  0.2465
45570SOL     OW43949   8.900   7.729   7.934  0.9523  0.1162 -0.3002
45570SOL    HW143950   8.815   7.771   7.945  0.6640 -0.8636  1.7287
45570SOL    HW243951   8.938   7.770   7.856 -0.2091  2.5566  0.3297
45571SOL     OW43952  11.729   8.117   5.973 -0.4230 -0.2406 -0.5338
45571SOL    HW143953  11.764   8.143   6.059 -0.4714  2.2327 -1.1997
45571SOL    HW243954  11.784   8.164   5.910 -1.6170 -0.4681 -1.7832
45572SOL     OW43955  11.621   8.504   1.448  0.1008  0.3430  0.0511
45572SOL    HW143956  11.540   8.455   1.437  0.7740 -0.4063 -2.0077
45572SOL    HW243957  11.634   8.548   1.364  0.9314  1.9047  0.9416
45573SOL     OW43958  10.893   9.581  11.582 -0.1508 -0.2784 -0.1749
45573SOL    HW143959  10.854   9.610  11.499 -1.2848 -0.1214  0.3940
45573SOL    HW243960  10.872   9.487  11.586 -0.9971 -0.0736  0.4037
45574SOL     OW43961  10.118   6.831   8.314  0.5185 -0.0693 -0.3040
45574SOL    HW143962  10.023   6.822   8.318  0.6273 -1.9963 -0.7969
45574SOL    HW243963  10.134   6.925   8.322 -1.4762  0.4159 -1.4159
45575SOL     OW43964   8.731   6.355   0.434  0.1759  0.0226  0.4613
45575SOL    HW143965   8.750   6.316   0.519 -1.3515  0.4976  1.0631
45575SOL    HW243966   8.649   6.313   0.406 -0.1339  0.9460 -0.0700
45576SOL     OW43967   3.173   7.515  10.671  0.0918  0.2006 -0.2569
45576SOL    HW143968   3.205   7.558  10.591  2.4558 -0.4871  0.2466
45576SOL    HW243969   3.156   7.425  10.644  1.9384 -0.3282  0.1648
45577SOL     OW43970   2.749   1.544   1.826  0.0311 -0.1886 -0.1172
45577SOL    HW143971   2.687   1.471   1.822 -0.9066  0.6211 -0.7726
45577SOL    HW243972   2.726   1.598   1.750  1.1786  0.4206 -0.0444
45578SOL     OW43973   9.068   6.501  12.638 -0.0363 -0.0257  0.3288
45578SOL    HW143974   9.042   6.487  12.729  2.5195 -0.8847  1.0253
45578SOL    HW243975   9.083   6.413  12.603  0.6224  0.3532 -0.3794
45579SOL     OW43976  10.511   9.512   5.036  0.2827 -0.2559 -0.0454
45579SOL    HW143977  10.491   9.574   4.965  1.4798 -1.3744 -1.4218
45579SOL    HW243978  10.439   9.523   5.098 -2.9505 -1.7825 -3.1643
45580SOL     OW43979   8.106   5.855   4.023  0.7936  0.2535  0.2493
45580SOL    HW143980   8.183   5.830   3.972  0.1713 -0.2162 -0.4654
45580SOL    HW243981   8.114   5.950   4.032  0.5398  0.4538 -1.3686
45581SOL     OW43982  11.843   3.589   2.487  0.2751 -0.3951 -0.7388
45581SOL    HW143983  11.917   3.645   2.464 -0.0746  0.6752  0.5621
45581SOL    HW243984  11.858   3.508   2.439  2.2647 -0.1936 -0.5398
45582SOL     OW43985   4.689   0.229   9.717 -0.2489 -0.0344  0.6237
45582SOL    HW143986   4.746   0.278   9.657 -1.0033  0.4097  0.2485
45582SOL    HW243987   4.684   0.284   9.795  0.2823 -0.3403  0.8719
45583SOL     OW43988   6.566   7.287   8.110 -0.3635  0.1868  0.7006
45583SOL    HW143989   6.629   7.230   8.065 -0.7336  0.1984  0.1533
45583SOL    HW243990   6.505   7.227   8.152 -1.0221  0.1533 -0.2558
45584SOL     OW43991   2.394   5.933  10.892  0.0949 -0.4409 -0.2107
45584SOL    HW143992   2.369   6.021  10.920  2.5390  0.5045 -0.8013
45584SOL    HW243993   2.324   5.907  10.832 -0.7076  1.0508  0.0198
45585SOL     OW43994   1.325   2.992   5.809  0.1310  0.5750 -0.6461
45585SOL    HW143995   1.289   2.984   5.721 -1.6341  0.0629  0.0652
45585SOL    HW243996   1.392   2.924   5.814  0.2968  0.6532 -1.6158
45586SOL     OW43997  10.545   4.297   4.099 -0.5208  0.0655  0.1676
45586SOL    HW143998  10.594   4.355   4.041  0.3331  0.1437  0.9346
45586SOL    HW243999  10.528   4.349   4.177 -1.6815 -0.0307 -0.0014
45587SOL     OW44000   1.178  10.608   6.520  0.1289 -0.1858  0.3765
45587SOL    HW144001   1.239  10.599   6.447 -0.6168  1.5617 -0.5304
45587SOL    HW244002   1.219  10.673   6.578 -0.2925  0.0949  0.3690
45588SOL     OW44003   3.735  11.853   9.692  0.9851  0.3133  0.0740
45588SOL    HW144004   3.707  11.780   9.635 -0.4922  0.1839  0.9000
45588SOL    HW244005   3.719  11.931   9.639  2.3531  0.0744 -0.7323
45589SOL     OW44006   6.959   7.986   6.929 -0.8152  0.3223  0.1530
45589SOL    HW144007   7.047   7.949   6.918  0.1365  2.4564  0.0554
45589SOL    HW244008   6.955   8.010   7.022 -1.8190 -0.9379  0.4563
45590SOL     OW44009   3.358   8.739   4.431  0.3730 -0.5508 -0.6016
45590SOL    HW144010   3.320   8.793   4.362  1.0873 -2.8154 -2.9171
45590SOL    HW244011   3.356   8.650   4.396  2.5259 -1.5482  1.5298
45591SOL     OW44012   2.223   7.048  11.089 -0.1640 -0.1904 -0.5854
45591SOL    HW144013   2.255   7.098  11.164  0.1112  0.6643 -1.2538
45591SOL    HW244014   2.203   6.962  11.125  1.6314 -0.3594  0.1417
45592SOL     OW44015   9.516  11.424  10.630  0.0314 -0.2607 -0.6139
45592SOL    HW144016   9.486  11.492  10.569 -0.7590 -0.3913 -0.3795
45592SOL    HW244017   9.611  11.427  10.624  0.0240  0.9965 -0.4851
45593SOL     OW44018   3.044   5.353   9.078 -0.0277  0.1519 -0.1034
45593SOL    HW144019   3.067   5.445   9.077 -0.3405  0.2308 -0.0716
45593SOL    HW244020   3.092   5.316   9.152 -1.7478  0.7709  1.3796
45594SOL     OW44021  11.904   1.892   7.318 -0.2544  0.7371 -0.6170
45594SOL    HW144022  11.987   1.915   7.360  0.6428 -0.2758 -1.7469
45594SOL    HW244023  11.889   1.961   7.254 -0.5686  1.1932 -0.0631
45595SOL     OW44024   4.527   7.574   3.819  0.1254 -0.3053  0.8863
45595SOL    HW144025   4.431   7.568   3.820  0.1199 -0.1367  2.0837
45595SOL    HW244026   4.546   7.628   3.743 -0.8708  1.6341  1.9568
45596SOL     OW44027   8.983   7.546   1.171 -0.1965  0.3885  0.6610
45596SOL    HW144028   8.943   7.523   1.255 -1.3464  2.0974  0.6350
45596SOL    HW244029   9.012   7.637   1.182  2.4844 -0.3332  0.1945
45597SOL     OW44030   0.159   8.468   9.993 -0.5439 -0.2226 -0.1056
45597SOL    HW144031   0.153   8.393  10.053 -0.3803 -0.5324 -0.4655
45597SOL    HW244032   0.206   8.535  10.042  0.2176 -0.7263 -0.1216
45598SOL     OW44033   1.174   1.681   1.848 -0.1722  0.0374  0.6447
45598SOL    HW144034   1.225   1.667   1.928  1.0028  1.6547  0.2118
45598SOL    HW244035   1.155   1.592   1.817  2.3526 -0.6621  0.8569
45599SOL     OW44036   3.882   7.759   5.758  0.1787  0.2755  1.0864
45599SOL    HW144037   3.855   7.668   5.750 -0.0363  0.1850  2.5177
45599SOL    HW244038   3.835   7.805   5.689  0.8918 -0.8050 -0.1610
45600SOL     OW44039   7.940   2.424   7.696  0.3612 -0.1377  0.0057
45600SOL    HW144040   7.870   2.455   7.638  0.4252  1.5374  0.7802
45600SOL    HW244041   8.010   2.398   7.636  1.1464  3.2187 -0.7570
45601SOL     OW44042   3.342   5.740   9.112  0.4315 -0.3187 -0.2478
45601SOL    HW144043   3.383   5.770   9.194 -0.8930  0.4201  0.1671
45601SOL    HW244044   3.312   5.821   9.070  0.1970 -0.7793 -0.9741
45602SOL     OW44045  11.382   5.206   8.370 -0.5787  0.0177  0.1413
45602SOL    HW144046  11.461   5.235   8.325 -1.9034 -0.5389 -2.8311
45602SOL    HW244047  11.404   5.120   8.404  0.1965 -0.0128 -0.4051
45603SOL     OW44048   2.997   0.114   7.876  0.1242  0.1491 -0.1632
45603SOL    HW144049   2.946   0.173   7.820 -0.3682 -0.5795 -0.5065
45603SOL    HW244050   3.024   0.044   7.817  0.3325 -0.1920  0.3324
45604SOL     OW44051   2.969   8.657   6.943 -0.2340 -0.6735  0.6515
45604SOL    HW144052   2.989   8.638   6.851 -1.8940  0.1116  0.0819
45604SOL    HW244053   2.957   8.751   6.946 -2.3599 -0.9024  1.1732
45605SOL     OW44054   3.598   2.771   9.573 -0.6354  0.6638  0.4268
45605SOL    HW144055   3.562   2.713   9.639  3.2276 -0.1683  2.0847
45605SOL    HW244056   3.632   2.846   9.622 -0.8805  1.8236 -1.0757
45606SOL     OW44057   8.157   6.190   3.071  0.2295 -0.2399 -0.2839
45606SOL    HW144058   8.139   6.284   3.068  0.1123 -0.1616  1.7219
45606SOL    HW244059   8.202   6.177   3.154  0.3022 -1.9585 -0.5597
45607SOL     OW44060  12.330  10.770   4.374 -0.2236 -0.0630 -0.0029
45607SOL    HW144061  12.272  10.697   4.396 -0.5649 -0.2877 -1.4914
45607SOL    HW244062  12.271  10.844   4.360  0.1774  0.7247  2.2126
45608SOL     OW44063   9.439   7.656  10.594 -0.9559 -0.8452 -0.2788
45608SOL    HW144064   9.435   7.562  10.577 -0.2941 -0.8354 -0.5198
45608SOL    HW244065   9.422   7.664  10.687  0.6985 -1.3556  0.0891
45609SOL     OW44066   6.581  12.306  12.266 -0.0988  0.1966  0.0489
45609SOL    HW144067   6.608  12.320  12.175 -2.9507 -1.5721 -1.2042
45609SOL    HW244068   6.567  12.394  12.300  2.8797  1.0071 -0.4813
45610SOL     OW44069  10.995   5.208   0.820  0.2302 -0.1457 -0.2761
45610SOL    HW144070  10.910   5.188   0.858  0.1560 -1.0379 -0.8885
45610SOL    HW244071  11.058   5.171   0.882  0.2569  1.8375  0.9650
45611SOL     OW44072   1.738   2.170   4.755  0.2430  0.0192  0.6657
45611SOL    HW144073   1.737   2.074   4.760  1.4558  0.0172  1.0933
45611SOL    HW244074   1.670   2.198   4.817 -1.4933 -0.5736 -0.8677
45612SOL     OW44075   5.132   3.831   1.453 -0.2952 -0.8241 -1.3830
45612SOL    HW144076   5.225   3.834   1.473 -0.3660 -0.8256 -1.0489
45612SOL    HW244077   5.095   3.769   1.516 -0.7963  0.4541 -0.3744
45613SOL     OW44078   6.708   8.816  11.460  0.1640 -0.3525 -0.3083
45613SOL    HW144079   6.742   8.853  11.379  0.5582 -0.4455 -0.1888
45613SOL    HW244080   6.786   8.802  11.515 -0.1355  0.0882  0.2448
45614SOL     OW44081   4.552   1.304   9.732 -0.2653  0.1092 -0.0912
45614SOL    HW144082   4.469   1.288   9.687 -0.1859  1.5319 -0.8077
45614SOL    HW244083   4.528   1.344   9.815 -0.3153 -0.4131  0.1549
45615SOL     OW44084   9.870   3.628   6.234 -0.0890 -0.0565 -0.3645
45615SOL    HW144085   9.820   3.551   6.206  0.4237 -0.4842 -0.1286
45615SOL    HW244086   9.880   3.617   6.329 -1.3994  1.1340 -0.0578
45616SOL     OW44087  11.686  10.554   4.514  0.1641 -0.5455  0.9791
45616SOL    HW144088  11.772  10.537   4.476  0.3057  0.5330  0.7888
45616SOL    HW244089  11.625  10.508   4.457  0.4570  0.2713 -0.0175
45617SOL     OW44090   2.662   1.634  10.245  0.1022 -0.2675 -0.1081
45617SOL    HW144091   2.612   1.629  10.163 -0.1570  1.3341 -0.0758
45617SOL    HW244092   2.596   1.622  10.314  0.1032 -0.2742 -0.1085
45618SOL     OW44093   3.609   2.013  11.741 -0.5769 -0.6552  0.1152
45618SOL    HW144094   3.613   1.957  11.663 -2.6865 -0.6715 -0.0226
45618SOL    HW244095   3.640   2.099  11.710  0.1935 -1.0674 -0.3015
45619SOL     OW44096   9.593   7.406   0.429 -0.0195 -0.2365 -0.2610
45619SOL    HW144097   9.646   7.473   0.473 -0.5897 -0.1538  0.3267
45619SOL    HW244098   9.509   7.450   0.412 -0.2014 -0.6282 -0.3893
45620SOL     OW44099   4.215  10.426  11.736  0.5449  0.0978  0.1842
45620SOL    HW144100   4.262  10.352  11.775  1.9105  0.0174 -1.5053
45620SOL    HW244101   4.155  10.386  11.674  0.3487  0.3578  0.2033
45621SOL     OW44102   5.680   3.130   1.397 -0.3197 -0.3073 -0.1612
45621SOL    HW144103   5.682   3.045   1.353  0.3243 -0.2199 -0.3129
45621SOL    HW244104   5.657   3.192   1.328 -0.0381 -0.2631 -0.2158
45622SOL     OW44105   3.384   0.221   5.542 -0.0425 -0.1332 -0.8363
45622SOL    HW144106   3.430   0.202   5.460  0.9810  1.4480 -0.6649
45622SOL    HW244107   3.338   0.304   5.526 -1.0214 -0.5365 -0.2613
45623SOL     OW44108   5.189  11.898   6.984  0.4005 -0.3847  0.0457
45623SOL    HW144109   5.230  11.960   7.044 -0.1484 -1.1330  1.2153
45623SOL    HW244110   5.096  11.901   7.006  0.2973 -1.2369 -0.2308
45624SOL     OW44111   5.984   6.472   0.796  0.2083 -0.1881  0.4977
45624SOL    HW144112   5.923   6.531   0.839 -2.3831 -1.6187 -0.9323
45624SOL    HW244113   5.986   6.394   0.852  2.8149  0.7150  1.8433
45625SOL     OW44114   3.560  11.998   1.227  0.1261 -0.4159  0.0452
45625SOL    HW144115   3.576  11.999   1.133 -0.6430 -0.9186 -0.0947
45625SOL    HW244116   3.565  11.906   1.251  0.7024 -0.2586  0.5737
45626SOL     OW44117   4.474   2.864   7.161 -0.5961 -0.7808 -0.3216
45626SOL    HW144118   4.483   2.799   7.091 -0.9609 -0.5208 -0.6157
45626SOL    HW244119   4.545   2.926   7.144 -1.3506 -0.1232 -1.1172
45627SOL     OW44120  12.216   2.682   0.045  0.2002 -0.6218 -0.6076
45627SOL    HW144121  12.164   2.612   0.085 -0.8661  0.7572  0.5607
45627SOL    HW244122  12.152   2.752   0.028  1.1201 -0.1263 -2.2772
45628SOL     OW44123   0.199  11.019   7.284 -0.0229 -0.3398  0.4566
45628SOL    HW144124   0.290  11.016   7.254  0.7060 -3.0804  2.5778
45628SOL    HW244125   0.186  11.110   7.310  1.8586  0.2712 -0.5503
45629SOL     OW44126   8.478   4.897   9.460  0.2105 -0.5319  0.0670
45629SOL    HW144127   8.571   4.902   9.438  0.5868 -0.1430  1.6256
45629SOL    HW244128   8.439   4.845   9.390  1.9805 -2.5822  0.5294
45630SOL     OW44129   5.713   4.494  10.478 -0.3188 -0.1570  0.2423
45630SOL    HW144130   5.671   4.426  10.531 -0.0714  0.4297  1.1984
45630SOL    HW244131   5.791   4.519  10.527 -1.2465  1.9648  0.7338
45631SOL     OW44132  11.263   9.532   3.740  0.6779  0.4801  0.0990
45631SOL    HW144133  11.308   9.455   3.708  0.6995  0.8632 -0.8110
45631SOL    HW244134  11.284   9.535   3.834  1.5383 -0.0181 -0.0710
45632SOL     OW44135   8.975   7.365   0.674 -0.3390  0.3288  0.2065
45632SOL    HW144136   8.927   7.403   0.747 -1.8094 -0.8277 -0.0963
45632SOL    HW244137   9.038   7.432   0.649  0.7447  0.4708  2.9795
45633SOL     OW44138   2.087   3.152   2.599  0.4821 -0.4802  0.6183
45633SOL    HW144139   2.026   3.098   2.549 -1.4272  2.0043  0.0593
45633SOL    HW244140   2.149   3.090   2.637 -1.3644 -2.9811 -0.2168
45634SOL     OW44141   6.694   8.404   3.329  0.1193 -0.4008 -0.1482
45634SOL    HW144142   6.660   8.483   3.371 -2.6902 -2.1111  1.1376
45634SOL    HW244143   6.655   8.404   3.242  0.1210 -0.3356 -0.1488
45635SOL     OW44144  11.289   2.185   1.032 -0.2762  0.0264 -0.3783
45635SOL    HW144145  11.367   2.226   1.069 -1.3479  1.3993  0.4584
45635SOL    HW244146  11.322   2.109   0.984  1.4789  0.1049  0.6303
45636SOL     OW44147   9.764   2.002   7.582 -0.6623 -0.2618 -0.6073
45636SOL    HW144148   9.854   2.022   7.557 -0.8004  0.8406 -0.2875
45636SOL    HW244149   9.717   2.085   7.570 -1.7677 -0.9751 -1.3485
45637SOL     OW44150   9.766  11.618   2.223 -0.2596  0.1698  0.5861
45637SOL    HW144151   9.727  11.631   2.309  3.3489  0.6894  2.3197
45637SOL    HW244152   9.785  11.706   2.191  2.4152 -0.0028  1.4106
45638SOL     OW44153   0.581   5.068   7.286 -0.0663 -0.0360 -0.0140
45638SOL    HW144154   0.643   5.017   7.233 -0.9332 -0.4689 -0.6423
45638SOL    HW244155   0.523   5.002   7.324 -0.9855  0.4479 -0.5475
45639SOL     OW44156  11.731   0.896   2.301 -0.2514  0.3286  0.1653
45639SOL    HW144157  11.667   0.858   2.361 -2.3816  2.3622 -0.6376
45639SOL    HW244158  11.720   0.846   2.220  1.1357 -1.0531  0.7925
45640SOL     OW44159   8.979  11.337   9.234  0.4582  0.1719 -0.1333
45640SOL    HW144160   8.980  11.424   9.274 -0.6207 -0.5722  1.6095
45640SOL    HW244161   9.012  11.352   9.145  0.2151  2.3691  0.0809
45641SOL     OW44162  10.241   0.467   9.128  0.2469  0.3320  0.7509
45641SOL    HW144163  10.264   0.438   9.216  1.0959  0.6288  0.6393
45641SOL    HW244164  10.271   0.397   9.070  0.0651  0.3241  0.6642
45642SOL     OW44165   4.087   0.028  12.512 -0.2796  0.2599 -0.9539
45642SOL    HW144166   4.058   0.120  12.515 -2.2313 -0.3141 -0.3845
45642SOL    HW244167   4.167   0.026  12.563 -1.1385  1.3737  0.5238
45643SOL     OW44168   3.841   9.100   2.857 -0.3075 -0.0705  0.0377
45643SOL    HW144169   3.910   9.138   2.803 -1.1495 -1.1394 -1.9308
45643SOL    HW244170   3.844   9.148   2.939  0.1739  2.6156 -1.4443
45644SOL     OW44171   9.405   4.270   4.440 -0.5977  0.5931 -0.7073
45644SOL    HW144172   9.389   4.348   4.492 -2.3859  0.1507 -0.5086
45644SOL    HW244173   9.482   4.229   4.479 -0.1966  1.7644 -0.2482
45645SOL     OW44174   8.782   7.700  10.427  0.0062  0.1269  0.5279
45645SOL    HW144175   8.739   7.726  10.346  1.1542 -0.4302 -0.2909
45645SOL    HW244176   8.781   7.778  10.482 -0.4451  0.6199 -0.1744
45646SOL     OW44177   3.974   5.246   0.156  0.2207 -0.1747 -0.1957
45646SOL    HW144178   4.036   5.299   0.206  0.7228 -0.7487 -0.1965
45646SOL    HW244179   4.024   5.212   0.082 -0.3128  0.0278 -0.6606
45647SOL     OW44180   3.725   3.961   9.237 -0.0658  0.4332  0.0625
45647SOL    HW144181   3.634   3.974   9.265 -0.2249  0.9931 -0.6773
45647SOL    HW244182   3.743   3.869   9.256 -0.6143  0.4513  0.6964
45648SOL     OW44183   5.273  10.121   4.962  0.0815 -0.2242 -0.4009
45648SOL    HW144184   5.226  10.044   4.996  0.1739 -0.2134 -0.2485
45648SOL    HW244185   5.359  10.087   4.938  0.1061 -0.1774 -0.3786
45649SOL     OW44186   7.188   1.198   3.250 -0.2519 -0.4640  0.6113
45649SOL    HW144187   7.125   1.150   3.302  0.2131 -0.4266  1.2172
45649SOL    HW244188   7.268   1.145   3.254 -0.6960 -1.4133 -1.5583
45650SOL     OW44189   4.203   2.559   1.540  0.2739  0.4509  0.1736
45650SOL    HW144190   4.233   2.515   1.460 -0.0743  1.4262 -0.5123
45650SOL    HW244191   4.110   2.576   1.523  0.3814  1.3436  0.4723
45651SOL     OW44192   4.625   5.765  11.717  0.1913 -0.2474 -0.4762
45651SOL    HW144193   4.713   5.737  11.742  0.3514  1.7892  1.4743
45651SOL    HW244194   4.567   5.696  11.749  0.9000 -0.4071  0.4921
45652SOL     OW44195   6.010  10.106   1.661  0.1351 -0.2874  0.2152
45652SOL    HW144196   5.979  10.016   1.651 -2.3932  0.5060  0.0539
45652SOL    HW244197   6.018  10.139   1.572 -0.4948  0.0768  0.2808
45653SOL     OW44198   0.849   3.285   2.256 -0.2275  0.3093 -0.0287
45653SOL    HW144199   0.840   3.353   2.189  0.9361 -0.3642 -0.9088
45653SOL    HW244200   0.852   3.203   2.207 -0.6342 -0.3106  0.9538
45654SOL     OW44201  12.694   9.731  11.726 -0.2033  0.6652 -0.0853
45654SOL    HW144202  12.630   9.786  11.771  0.5952 -0.1182  2.1420
45654SOL    HW244203  12.661   9.725  11.636 -4.3368 -1.2093  1.3159
45655SOL     OW44204   6.825   9.782  10.418 -0.1293  0.2830 -0.2207
45655SOL    HW144205   6.833   9.871  10.383  2.9284  1.0059  1.8981
45655SOL    HW244206   6.853   9.725  10.346  1.5346  1.3527 -0.4752
45656SOL     OW44207   9.704   4.988   1.800  0.4577  0.2888  0.7822
45656SOL    HW144208   9.694   4.915   1.860 -1.8423 -0.0368  0.0938
45656SOL    HW244209   9.680   4.953   1.714  1.4004  1.3379  0.0520
45657SOL     OW44210   7.788   0.311  10.234 -0.2267 -0.4403 -0.4967
45657SOL    HW144211   7.845   0.294  10.159 -0.7718 -0.1539 -0.9908
45657SOL    HW244212   7.703   0.274  10.209 -0.5576  0.1374 -0.2517
45658SOL     OW44213   0.130  10.263   3.233 -0.2980  0.0866  0.0697
45658SOL    HW144214   0.054  10.286   3.179 -1.4446 -1.2604  1.0293
45658SOL    HW244215   0.108  10.298   3.319  0.6879  0.6177  0.1127
45659SOL     OW44216  12.125   6.849   7.948 -0.0991  0.4701  0.1230
45659SOL    HW144217  12.143   6.836   7.855  1.8136 -1.1715  0.6478
45659SOL    HW244218  12.042   6.802   7.962  0.9698 -1.7004 -0.2916
45660SOL     OW44219   1.716  12.064   8.543  0.1228 -0.5769  0.3321
45660SOL    HW144220   1.804  12.054   8.508 -0.3781 -0.8052 -0.9100
45660SOL    HW244221   1.723  12.137   8.605  1.3357 -1.1070  0.8439
45661SOL     OW44222   6.353  10.116   8.641 -0.4738  0.2458 -0.3338
45661SOL    HW144223   6.359  10.212   8.641 -4.0297  0.5922 -0.5673
45661SOL    HW244224   6.359  10.091   8.549 -0.7979  0.3860 -0.3947
45662SOL     OW44225   5.679   2.292   1.050  0.6767  0.1540  0.0228
45662SOL    HW144226   5.655   2.307   0.959 -0.7625  0.7691  0.4716
45662SOL    HW244227   5.690   2.380   1.087  0.2742 -0.0507  0.6600
45663SOL     OW44228  10.714   0.992   6.334 -0.5814 -0.3761  0.5024
45663SOL    HW144229  10.653   0.918   6.343  0.5517 -1.2690  1.1410
45663SOL    HW244230  10.793   0.952   6.298 -0.0070  0.5704  0.6991
45664SOL     OW44231  10.144   5.208   2.031  0.0007 -0.2527 -0.3138
45664SOL    HW144232  10.123   5.296   1.999 -2.3408 -0.4128  0.5667
45664SOL    HW244233  10.163   5.220   2.124 -1.5366 -0.7760  0.0969
45665SOL     OW44234   3.997   6.322   2.053 -0.6239 -0.0609  0.3724
45665SOL    HW144235   4.059   6.329   1.981 -0.7611 -0.4121  0.2172
45665SOL    HW244236   3.956   6.237   2.041 -0.3793 -0.2842  1.0860
45666SOL     OW44237   7.936   5.436  12.669  0.1566 -0.2834 -0.0239
45666SOL    HW144238   7.906   5.419  12.580 -0.5216  0.0748  0.1305
45666SOL    HW244239   7.868   5.399  12.725 -0.6051  1.5207  0.3306
45667SOL     OW44240   5.967   7.596   6.091 -0.0893  0.2419 -0.5261
45667SOL    HW144241   5.977   7.637   6.177  0.8330 -1.4221  0.2077
45667SOL    HW244242   5.988   7.665   6.028  1.0810  0.9859  0.6396
45668SOL     OW44243   6.601   9.699   5.676  0.1566 -0.1042  0.0828
45668SOL    HW144244   6.649   9.619   5.653  0.9174  0.7071 -1.3153
45668SOL    HW244245   6.512   9.684   5.643  0.7330  0.2513 -1.7951
45669SOL     OW44246   8.604   6.931  10.890  0.2518 -0.1088 -0.3119
45669SOL    HW144247   8.543   6.927  10.816 -0.1476 -1.1138  0.0412
45669SOL    HW244248   8.681   6.884  10.859  0.5620  0.5277 -0.5054
45670SOL     OW44249  10.842   1.445   0.549  0.1495 -0.0334 -0.1376
45670SOL    HW144250  10.859   1.419   0.458  1.8573  0.2841  0.0531
45670SOL    HW244251  10.877   1.374   0.602  1.0758  0.7119  0.2917
45671SOL     OW44252   4.799   0.907  12.145  0.9445  0.0743 -0.2028
45671SOL    HW144253   4.732   0.859  12.096  0.3974  0.7206 -0.1109
45671SOL    HW244254   4.847   0.956  12.078  0.9409  0.0713 -0.2072
45672SOL     OW44255   0.254  11.778   9.442  0.2261 -0.1126 -0.4004
45672SOL    HW144256   0.178  11.757   9.387 -0.7798  0.7481  0.6039
45672SOL    HW244257   0.310  11.701   9.435 -1.3860 -1.3825 -0.1088
45673SOL     OW44258   4.224   6.204   6.396  0.3077  0.1074 -0.2147
45673SOL    HW144259   4.223   6.290   6.438 -1.7780 -0.3099  0.7412
45673SOL    HW244260   4.206   6.223   6.303  0.4892  0.7439 -0.1235
45674SOL     OW44261   2.341   3.346  12.337  0.0370 -0.0424 -0.0261
45674SOL    HW144262   2.396   3.269  12.320  0.3386  0.1134  0.2307
45674SOL    HW244263   2.354   3.401  12.260  3.0291  1.6130  1.4970
45675SOL     OW44264   6.400   7.970  10.116 -0.0249 -0.3820  0.0362
45675SOL    HW144265   6.415   8.007  10.203 -1.0976 -2.1956  1.0798
45675SOL    HW244266   6.469   7.905  10.105 -0.2605 -0.5965 -0.1900
45676SOL     OW44267   2.853   1.838  10.701  0.1195 -0.1078  0.4201
45676SOL    HW144268   2.774   1.881  10.668  0.6692 -1.0903 -2.3936
45676SOL    HW244269   2.855   1.754  10.656  2.2137 -0.5690  1.2759
45677SOL     OW44270   1.551   9.375  10.532 -0.0790 -0.1106 -0.0669
45677SOL    HW144271   1.520   9.453  10.487 -0.7476 -1.3474 -1.8418
45677SOL    HW244272   1.625   9.405  10.585  0.5569  1.4698 -1.7736
45678SOL     OW44273   8.054   1.192   2.591 -0.0234 -0.2191  0.4364
45678SOL    HW144274   8.011   1.107   2.576  0.1974 -0.1796 -0.4695
45678SOL    HW244275   8.012   1.226   2.670 -2.0527  0.0379 -0.6749
45679SOL     OW44276   5.951   2.229  11.381  0.4586 -0.1204  0.0251
45679SOL    HW144277   6.010   2.277  11.441  0.3579  1.4534 -1.0618
45679SOL    HW244278   5.894   2.179  11.439  1.0094  0.5773  1.2240
45680SOL     OW44279   2.437  11.649  10.075  0.1345 -0.0890 -0.0536
45680SOL    HW144280   2.376  11.575  10.067  1.4017 -1.0475 -1.5616
45680SOL    HW244281   2.387  11.718  10.117 -0.8636 -2.0886  2.2465
45681SOL     OW44282   0.763   5.981   4.277  0.0781  0.0837 -0.0373
45681SOL    HW144283   0.804   5.914   4.224 -0.2767  1.1622 -1.7820
45681SOL    HW244284   0.675   5.989   4.241 -0.7675 -0.2755  1.8284
45682SOL     OW44285   8.215   2.271   5.346 -0.2010 -0.0625 -0.3121
45682SOL    HW144286   8.174   2.192   5.380  0.9256 -0.2901  0.5573
45682SOL    HW244287   8.241   2.248   5.257  2.2180 -1.4958  0.6851
45683SOL     OW44288  11.369   7.445   2.106 -0.6564 -0.2275  0.2617
45683SOL    HW144289  11.286   7.401   2.086 -0.4642 -0.0396 -0.9735
45683SOL    HW244290  11.436   7.380   2.086 -0.4295  0.2104 -0.4285
45684SOL     OW44291   2.770   1.841   2.430 -0.4497 -0.0715 -0.0814
45684SOL    HW144292   2.693   1.854   2.375 -0.6720 -1.9148 -0.2928
45684SOL    HW244293   2.746   1.879   2.515 -1.1474  0.3995 -0.4853
45685SOL     OW44294   9.518   6.775   8.771  0.2761  0.0322 -0.2484
45685SOL    HW144295   9.441   6.751   8.821  0.1241  0.4169 -0.2908
45685SOL    HW244296   9.591   6.768   8.833  0.3377 -1.1808 -0.4375
45686SOL     OW44297   7.144   1.135   9.315  0.3561 -0.1939 -0.1537
45686SOL    HW144298   7.099   1.183   9.246  0.0332  1.3054  1.0708
45686SOL    HW244299   7.229   1.113   9.277  0.3364  0.9513 -0.8965
45687SOL     OW44300  11.971   0.985  10.863  0.5152  0.2099  0.3444
45687SOL    HW144301  12.051   0.960  10.817 -0.5448 -1.9420 -0.4843
45687SOL    HW244302  11.920   1.034  10.799 -0.0079 -0.8620 -0.0783
45688SOL     OW44303   7.124   6.531   3.350  0.0223 -0.3620 -0.6873
45688SOL    HW144304   7.123   6.558   3.258  1.7138 -0.5403 -0.7825
45688SOL    HW244305   7.180   6.596   3.393 -0.6754 -0.3357  0.2205
45689SOL     OW44306  11.008   8.386   9.651  0.1236  0.3396 -0.9940
45689SOL    HW144307  11.015   8.296   9.619  2.2258  0.9546 -2.4906
45689SOL    HW244308  11.062   8.388   9.730 -0.5157  0.1420 -0.5440
45690SOL     OW44309   2.087  10.389   6.022  0.2415  0.0096  0.0015
45690SOL    HW144310   2.035  10.384   6.102 -1.2903 -2.8841 -1.0076
45690SOL    HW244311   2.117  10.480   6.018 -1.9293  0.9602  2.4025
45691SOL     OW44312  11.174   4.448   4.039 -0.6382  0.4317  0.4127
45691SOL    HW144313  11.260   4.439   4.079  0.3701  0.7286 -1.5928
45691SOL    HW244314  11.126   4.371   4.070  0.9983 -0.8087  0.0244
45692SOL     OW44315   1.070   2.984   4.470  0.1974 -0.1856  0.0299
45692SOL    HW144316   1.124   2.969   4.393  1.1079 -1.8019  0.9350
45692SOL    HW244317   1.094   2.914   4.530  2.3026  3.0496  3.3706
45693SOL     OW44318  12.342   7.508   2.051  0.0061 -0.1657  0.4633
45693SOL    HW144319  12.344   7.414   2.032 -0.5614  0.0862 -0.9770
45693SOL    HW244320  12.431   7.528   2.081 -0.0603 -1.2858  1.4679
45694SOL     OW44321   7.769  10.618  12.566  0.2774  0.4791  0.0254
45694SOL    HW144322   7.698  10.673  12.598 -0.3551 -0.1416 -0.2745
45694SOL    HW244323   7.820  10.596  12.644  0.1787  0.9769  0.2331
45695SOL     OW44324   1.378   4.458   3.130 -0.3341 -0.0463  0.4844
45695SOL    HW144325   1.402   4.416   3.048 -0.3627 -0.6470  0.7732
45695SOL    HW244326   1.282   4.460   3.129 -0.3573 -0.7721  0.8479
45696SOL     OW44327   8.452   7.707  11.747  0.0117  0.7651 -0.0734
45696SOL    HW144328   8.513   7.744  11.683 -0.5194  0.1649 -0.9581
45696SOL    HW244329   8.367   7.747  11.725 -0.8140 -1.6047 -1.7408
45697SOL     OW44330   7.767   4.867   3.207  0.4057 -0.0345  0.3436
45697SOL    HW144331   7.803   4.934   3.149 -0.7775 -0.8750 -1.4652
45697SOL    HW244332   7.843   4.816   3.235  0.8422 -0.9358 -2.2548
45698SOL     OW44333   0.968  12.464   0.427  0.1456  1.0356  0.3928
45698SOL    HW144334   0.983  12.392   0.488 -0.3743  0.2585 -0.3709
45698SOL    HW244335   0.933  12.535   0.481  0.5250  0.6691  1.1341
45699SOL     OW44336   4.235   5.614  10.348  0.0314  0.5086 -0.1298
45699SOL    HW144337   4.188   5.695  10.328 -0.7573  0.3843  1.1200
45699SOL    HW244338   4.168   5.546  10.347  0.3930  0.1296  0.4267
45700SOL     OW44339   3.715   1.010  12.309  0.5135  0.3442  0.1415
45700SOL    HW144340   3.672   1.085  12.268  0.8306 -1.0658 -2.9784
45700SOL    HW244341   3.720   1.034  12.402 -2.8525  2.5252 -0.0467
45701SOL     OW44342   7.213   7.037   0.229 -0.6778 -0.2425 -0.1918
45701SOL    HW144343   7.151   6.970   0.201 -1.5298  1.7999 -3.7365
45701SOL    HW244344   7.159   7.104   0.271  0.0020 -1.0026  2.0574
45702SOL     OW44345   8.192   1.806  11.267 -0.0506  0.1239  0.3763
45702SOL    HW144346   8.276   1.760  11.274 -0.1812  0.1214  2.8553
45702SOL    HW244347   8.198   1.878  11.329 -2.6513 -1.2322  2.3922
45703SOL     OW44348   6.924   7.149   4.589 -0.7003  0.0088  0.1670
45703SOL    HW144349   7.010   7.113   4.572 -0.6111  0.1027  0.4069
45703SOL    HW244350   6.872   7.076   4.621 -0.5703  0.0537  0.4836
45704SOL     OW44351   4.390   2.917   0.707  0.1177 -0.5647 -0.3681
45704SOL    HW144352   4.338   2.864   0.646 -1.3384  1.1157 -0.6753
45704SOL    HW244353   4.472   2.934   0.660 -1.0468  0.8506 -2.0158
45705SOL     OW44354  11.984   5.951   3.238  0.1047  0.3131 -0.0266
45705SOL    HW144355  12.004   5.909   3.322 -0.7301  1.9370  1.0397
45705SOL    HW244356  12.031   5.899   3.174 -0.7465 -2.1132  1.2081
45706SOL     OW44357  11.528  11.509   9.120 -0.2338 -0.9587 -0.2572
45706SOL    HW144358  11.443  11.539   9.152  0.6748  1.8055 -0.2015
45706SOL    HW244359  11.585  11.512   9.196  0.6211  0.2497 -0.9197
45707SOL     OW44360   0.754   3.476   7.400  0.1445  0.2609  0.1774
45707SOL    HW144361   0.743   3.501   7.492 -0.1211 -0.9267  0.4885
45707SOL    HW244362   0.680   3.418   7.381  0.1520  0.5491 -0.8162
45708SOL     OW44363   4.596  11.908   2.826 -0.7801 -0.0541  0.5802
45708SOL    HW144364   4.538  11.833   2.817  0.0399 -0.6080 -0.2615
45708SOL    HW244365   4.550  11.979   2.782 -1.2805 -0.2193  0.8275
45709SOL     OW44366   9.238   7.421  11.290  0.2712  0.2582  0.3348
45709SOL    HW144367   9.217   7.328  11.300  1.1416  0.0685  0.4925
45709SOL    HW244368   9.301   7.438  11.360  1.0826  0.6512 -0.4775
45710SOL     OW44369   2.051  10.573   5.235 -0.5124  0.1654  0.4585
45710SOL    HW144370   2.134  10.621   5.230 -0.8808  0.8201  0.5028
45710SOL    HW244371   2.022  10.584   5.326 -0.0656 -1.0689  0.7616
45711SOL     OW44372   2.448  10.816   6.871 -0.2712  0.1662 -0.3877
45711SOL    HW144373   2.457  10.721   6.868 -1.3477  0.0604 -0.7652
45711SOL    HW244374   2.411  10.835   6.957  0.7486  0.3288  0.0235
45712SOL     OW44375  10.098   2.267   9.113  0.1584 -0.3575 -0.2829
45712SOL    HW144376  10.165   2.221   9.163  0.1348 -2.1943 -1.8409
45712SOL    HW244377  10.136   2.278   9.026 -1.1750 -0.5560 -0.9154
45713SOL     OW44378   1.732   1.699  11.627 -0.5833 -0.3706  0.0230
45713SOL    HW144379   1.691   1.785  11.618 -0.9846 -0.6993 -1.5570
45713SOL    HW244380   1.761   1.696  11.718 -0.5742  1.4233  0.1153
45714SOL     OW44381   8.305   8.596   4.359  0.4232  0.4733 -0.0447
45714SOL    HW144382   8.390   8.580   4.317 -0.5738 -1.1388 -1.6151
45714SOL    HW244383   8.241   8.567   4.294 -1.2782 -0.2839  1.8761
45715SOL     OW44384   8.922   2.275  11.100 -0.3973  0.2238 -0.4399
45715SOL    HW144385   9.013   2.296  11.076  0.1682  0.6451  1.8060
45715SOL    HW244386   8.896   2.347  11.158 -1.4663 -0.9136  0.5452
45716SOL     OW44387   6.486  11.655   6.976  0.0357 -0.3432 -0.3993
45716SOL    HW144388   6.489  11.647   6.880 -0.0865 -1.0701 -0.3484
45716SOL    HW244389   6.503  11.567   7.007 -0.5643 -0.2331  0.2492
45717SOL     OW44390   4.522   2.737  11.235  0.2303  0.0419 -0.1329
45717SOL    HW144391   4.511   2.756  11.328 -0.3905  0.5577 -0.3067
45717SOL    HW244392   4.590   2.798  11.206  0.3983 -0.0943 -0.0305
45718SOL     OW44393   5.821   3.820   9.441  0.5118 -0.4922  0.8865
45718SOL    HW144394   5.830   3.738   9.489 -1.6126 -0.4358  1.4885
45718SOL    HW244395   5.726   3.834   9.436  0.7706  1.0002 -0.8019
45719SOL     OW44396   1.900   3.593   2.048 -0.1300  0.6937  0.1662
45719SOL    HW144397   1.831   3.583   2.113 -1.7193 -0.7449 -1.6444
45719SOL    HW244398   1.869   3.664   1.991  0.8545  1.3806  0.4568
45720SOL     OW44399  11.781   3.878   4.073  0.9196 -0.8144 -0.0893
45720SOL    HW144400  11.723   3.818   4.119 -0.3416  0.2318 -0.2442
45720SOL    HW244401  11.783   3.956   4.128 -1.5954  0.9502 -2.2125
45721SOL     OW44402   0.312   7.317   3.467  0.1043  0.1039  0.7192
45721SOL    HW144403   0.386   7.361   3.508 -1.0017  1.7783  1.0365
45721SOL    HW244404   0.295   7.241   3.523 -0.7498  1.7994  2.9104
45722SOL     OW44405   3.890   6.906   8.275  0.0885  0.3725  0.2073
45722SOL    HW144406   3.943   6.833   8.241  1.4421  1.4791 -0.1351
45722SOL    HW244407   3.938   6.936   8.352 -2.8995 -2.0556  3.3189
45723SOL     OW44408   8.286   4.856   1.937 -0.3011  0.4754 -0.4426
45723SOL    HW144409   8.333   4.842   1.855 -0.1585  0.6962 -0.4016
45723SOL    HW244410   8.291   4.951   1.951 -0.1722  0.4179 -0.0908
45724SOL     OW44411   8.905   4.968  10.316  0.0770 -0.7355 -0.3953
45724SOL    HW144412   8.968   5.005  10.378 -0.6692  0.2309 -0.1894
45724SOL    HW244413   8.839   4.927  10.371 -1.1726  1.0799 -0.4610
45725SOL     OW44414   4.502  11.695   7.988  0.2655 -0.4278 -0.1888
45725SOL    HW144415   4.422  11.643   7.996  0.4506 -0.5209  1.1707
45725SOL    HW244416   4.477  11.782   8.018 -0.2251  0.5497 -3.0851
45726SOL     OW44417  11.535   6.231   1.957  0.0753 -0.3896 -0.1516
45726SOL    HW144418  11.579   6.255   2.037  0.0814  0.0181 -0.2771
45726SOL    HW244419  11.474   6.162   1.983 -0.8592  0.6288  0.4580
45727SOL     OW44420   7.080   8.304   4.986  0.0803  0.1001  0.1397
45727SOL    HW144421   7.063   8.383   4.935 -0.4333 -0.8410 -1.2005
45727SOL    HW244422   7.013   8.304   5.054 -0.5938  0.2931 -0.5100
45728SOL     OW44423   9.543   9.238   4.659 -0.0895 -0.9770 -0.0783
45728SOL    HW144424   9.495   9.156   4.646 -0.9578 -0.7240  1.3262
45728SOL    HW244425   9.487   9.290   4.717  1.0873  0.0460  0.1869
45729SOL     OW44426   7.485   6.875  11.873 -0.2205 -0.3510  0.1475
45729SOL    HW144427   7.527   6.795  11.907 -0.0840 -0.9747 -1.4226
45729SOL    HW244428   7.525   6.888  11.787 -0.1637  1.4939  0.4151
45730SOL     OW44429   9.518   1.790   8.076 -0.4952 -0.6624  0.4219
45730SOL    HW144430   9.569   1.852   8.023 -0.0758  0.4052  1.9990
45730SOL    HW244431   9.448   1.843   8.114  0.4809 -0.8349  2.6337
45731SOL     OW44432  12.455   1.236   6.346 -0.2217  0.1810  0.5160
45731SOL    HW144433  12.385   1.184   6.306  1.3668 -1.7160  0.0458
45731SOL    HW244434  12.505   1.174   6.399  1.6768  1.2261  0.0721
45732SOL     OW44435   9.054   3.984  11.409 -0.5443  0.1918  0.5116
45732SOL    HW144436   9.078   4.041  11.336  0.3120  0.1777  0.7761
45732SOL    HW244437   9.009   3.910  11.367  1.6256 -0.7858 -0.2558
45733SOL     OW44438   4.075   5.546   6.384 -0.1773 -0.2193  0.0753
45733SOL    HW144439   4.164   5.577   6.369  0.0224 -0.6218  0.4237
45733SOL    HW244440   4.034   5.617   6.435 -0.0748 -0.0102 -0.1320
45734SOL     OW44441   6.288   4.615  11.936 -0.2017 -0.5450  0.0966
45734SOL    HW144442   6.358   4.660  11.984  0.9298  0.3652 -2.2493
45734SOL    HW244443   6.214   4.615  11.997  1.0144  0.8914  1.6832
45735SOL     OW44444   4.917   2.381  10.933 -0.2832  0.0114 -0.7301
45735SOL    HW144445   4.923   2.409  11.024 -2.0777  0.3825 -0.6891
45735SOL    HW244446   4.979   2.437  10.887 -0.5919  1.0092  0.0310
45736SOL     OW44447  12.336  11.961   1.486 -0.3419 -0.0728  0.5203
45736SOL    HW144448  12.334  11.956   1.581  2.0850  0.9038  0.7103
45736SOL    HW244449  12.245  11.952   1.458 -1.2957  1.1711  3.0028
45737SOL     OW44450   7.708   5.063   2.450 -0.0117 -0.1144 -0.0716
45737SOL    HW144451   7.649   5.133   2.423 -1.4704 -0.9525  0.8072
45737SOL    HW244452   7.687   4.990   2.392 -0.4941 -0.7009  0.8170
45738SOL     OW44453   6.549   0.783  10.262 -0.4585  0.1282 -0.5945
45738SOL    HW144454   6.609   0.743  10.199  0.4536 -0.5059  0.6293
45738SOL    HW244455   6.572   0.876  10.261  0.7089 -0.1339  0.0005
45739SOL     OW44456   7.138   4.340   3.785  0.3271 -0.2869  0.7702
45739SOL    HW144457   7.230   4.367   3.783  0.5876 -1.0617  1.5288
45739SOL    HW244458   7.132   4.268   3.723  0.3590 -0.6058  1.1352
45740SOL     OW44459   1.799   0.531   5.826  0.5478  0.1736 -0.0861
45740SOL    HW144460   1.869   0.528   5.761  1.4166 -0.1225  0.8363
45740SOL    HW244461   1.733   0.589   5.788  1.1267  0.1686 -1.1313
45741SOL     OW44462   9.319   3.679   6.528 -0.2437 -0.1348  0.2322
45741SOL    HW144463   9.414   3.685   6.537  0.5207 -1.7996 -4.1421
45741SOL    HW244464   9.295   3.596   6.570  0.6843 -0.8546 -0.6121
45742SOL     OW44465   5.706   4.783  12.688 -0.4195 -0.1936  0.3578
45742SOL    HW144466   5.758   4.704  12.675  1.4502  1.3099 -2.4484
45742SOL    HW244467   5.618   4.758  12.660  0.4890 -0.9586 -2.1274
45743SOL     OW44468   9.168  12.298   8.555 -0.6730  0.2840 -0.1640
45743SOL    HW144469   9.176  12.221   8.499 -2.7821 -2.1836  2.5775
45743SOL    HW244470   9.238  12.287   8.620 -0.4738  1.1783 -0.2171
45744SOL     OW44471   9.887  12.698  11.799 -0.2577 -0.3394 -0.0193
45744SOL    HW144472   9.895  12.778  11.850 -0.6517  0.3532 -1.0164
45744SOL    HW244473   9.854  12.633  11.861 -0.3847  0.3917  0.6844
45745SOL     OW44474  12.299   8.094   3.507 -0.1387 -0.7231 -0.2497
45745SOL    HW144475  12.306   8.167   3.568  1.2421  0.0610 -1.2835
45745SOL    HW244476  12.261   8.023   3.559 -1.1045  0.5716  0.8907
45746SOL     OW44477  11.331   6.228  12.094 -0.5128 -0.6507 -0.6917
45746SOL    HW144478  11.358   6.139  12.072  0.2624 -0.2352 -1.4617
45746SOL    HW244479  11.245   6.237  12.053 -1.9045 -1.9476  1.6965
45747SOL     OW44480   4.471   2.298   1.440  0.0623  0.2724  0.6969
45747SOL    HW144481   4.432   2.313   1.525  3.0014  0.1096  2.2204
45747SOL    HW244482   4.565   2.315   1.453  0.5820  0.7712 -2.6405
45748SOL     OW44483   9.212   6.621   1.968  0.1044  0.9082 -0.2245
45748SOL    HW144484   9.116   6.616   1.965  0.1485  0.1719 -0.6535
45748SOL    HW244485   9.231   6.660   2.053 -0.5192 -1.3937  1.0604
45749SOL     OW44486   6.583  12.090  11.616  0.2430 -0.2955 -0.1855
45749SOL    HW144487   6.559  12.179  11.641  1.9665 -0.2921  1.7129
45749SOL    HW244488   6.646  12.101  11.544  1.8706  0.1946  1.2316
45750SOL     OW44489  10.972   1.508   7.460  0.3756 -0.0472 -0.0009
45750SOL    HW144490  10.966   1.467   7.374 -0.1220 -1.3130  0.6222
45750SOL    HW244491  11.064   1.534   7.468  0.1749  1.2358 -1.4140
45751SOL     OW44492  12.459   4.625  11.848 -0.1950  0.4178  0.2721
45751SOL    HW144493  12.546   4.614  11.812 -0.6326  0.9620 -1.0195
45751SOL    HW244494  12.449   4.554  11.912  1.2567  0.5009  0.6179
45752SOL     OW44495   9.105   1.208  11.064  0.5901 -0.4573 -0.0937
45752SOL    HW144496   9.076   1.175  11.149  0.2670  0.8066  0.3090
45752SOL    HW244497   9.187   1.254  11.083  0.0113  0.6796 -0.2828
45753SOL     OW44498   8.766   7.151   9.176  0.0155 -0.3194 -0.4546
45753SOL    HW144499   8.825   7.220   9.145  1.0301 -0.3319  1.3437
45753SOL    HW244500   8.683   7.196   9.193  0.6345  0.4689  0.6052
45754SOL     OW44501  11.444   6.138  10.548  0.4942 -0.0453  0.1637
45754SOL    HW144502  11.395   6.220  10.546  0.1929 -0.2291  0.0123
45754SOL    HW244503  11.443   6.108  10.457  1.5879  0.3656 -0.0079
45755SOL     OW44504   7.250   4.051   9.636  0.2548 -0.2598  0.2263
45755SOL    HW144505   7.343   4.072   9.651  0.0910  0.7595 -0.0866
45755SOL    HW244506   7.246   4.029   9.543  0.7321 -3.5712  0.8648
45756SOL     OW44507   0.683   8.741   1.849  0.3426 -0.0681 -0.4188
45756SOL    HW144508   0.695   8.661   1.799 -1.9116 -0.0374 -1.0937
45756SOL    HW244509   0.709   8.811   1.789  0.8227 -0.1905 -0.3613
45757SOL     OW44510   9.286   8.924   0.878  0.1111 -0.1940 -0.2287
45757SOL    HW144511   9.316   9.000   0.928 -1.5956  0.4546 -0.1466
45757SOL    HW244512   9.233   8.874   0.939  1.5368 -1.6999 -0.1687
45758SOL     OW44513   0.184   1.876  11.941  0.1967  0.3357  0.7497
45758SOL    HW144514   0.173   1.904  11.850  2.1282 -0.3160  0.2664
45758SOL    HW244515   0.190   1.957  11.991 -0.0011  0.7074  0.1729
45759SOL     OW44516  10.856   7.018  10.005  0.8728  0.3197 -0.8966
45759SOL    HW144517  10.903   7.067  10.073  0.6453  0.4156 -0.8066
45759SOL    HW244518  10.787   7.077   9.976 -1.5628 -1.0544  1.5286
45760SOL     OW44519   1.034   2.093   6.563  0.5046  0.3381 -0.0867
45760SOL    HW144520   1.005   2.080   6.654 -0.1309  0.5124 -0.2604
45760SOL    HW244521   1.129   2.097   6.569  0.6278 -1.9111  0.3109
45761SOL     OW44522   5.821  12.446   4.826 -0.4709 -0.1534 -0.3806
45761SOL    HW144523   5.910  12.455   4.860 -0.6156 -0.2176  0.0170
45761SOL    HW244524   5.774  12.397   4.893 -0.7326 -0.3713 -0.7219
45762SOL     OW44525   2.351   5.856   1.306 -0.2730 -0.0842  0.0643
45762SOL    HW144526   2.257   5.861   1.286 -0.2211  1.0890  0.0213
45762SOL    HW244527   2.355   5.869   1.401 -0.1327  0.2633  0.0117
45763SOL     OW44528   0.230   1.433   5.180  0.2805 -0.7322  0.0036
45763SOL    HW144529   0.152   1.489   5.180 -1.3647 -2.7862  2.2526
45763SOL    HW244530   0.303   1.493   5.189 -0.8975  1.3409 -2.7820
45764SOL     OW44531   1.814   4.085   7.174 -0.1985 -0.1018  0.2591
45764SOL    HW144532   1.809   3.999   7.131  2.7019  0.3542 -1.2255
45764SOL    HW244533   1.743   4.135   7.134 -2.0058 -1.7553  1.2156
45765SOL     OW44534   0.142   9.307   2.013 -0.1442 -0.4079  0.8085
45765SOL    HW144535   0.099   9.302   1.927 -1.0360 -1.4209  1.2865
45765SOL    HW244536   0.149   9.401   2.031 -1.9319 -0.1869  0.5802
45766SOL     OW44537   8.931  11.857   7.643 -0.2989  0.4374 -0.3071
45766SOL    HW144538   8.893  11.810   7.568 -0.6626 -0.1084  0.2127
45766SOL    HW244539   8.928  11.794   7.715  0.2668  0.8819  0.1126
45767SOL     OW44540  12.595   1.455   0.705  0.1734  0.3092 -0.0721
45767SOL    HW144541  12.685   1.482   0.685  0.9602 -1.4977  0.7733
45767SOL    HW244542  12.540   1.516   0.656  1.8758  0.2466 -2.2246
45768SOL     OW44543   4.885  12.528  11.039 -0.8482 -0.4247 -0.3325
45768SOL    HW144544   4.894  12.520  11.134 -1.6898  0.1378 -0.2014
45768SOL    HW244545   4.975  12.538  11.008 -0.6607  1.0292  0.5658
45769SOL     OW44546   6.596   8.239   8.060  0.4271 -0.1568  0.2909
45769SOL    HW144547   6.671   8.282   8.099 -0.4557  0.0277  1.8337
45769SOL    HW244548   6.623   8.147   8.051  1.2575  0.1364 -0.3169
45770SOL     OW44549   2.658   0.650   7.134  0.4959  0.2523 -0.6844
45770SOL    HW144550   2.739   0.653   7.083  0.6430  1.0508 -0.4114
45770SOL    HW244551   2.681   0.691   7.218  1.3444 -4.2088  1.6023
45771SOL     OW44552   8.045  12.140   8.692  0.2983  0.0582 -0.5297
45771SOL    HW144553   8.039  12.045   8.704  1.0180  0.1696  0.8984
45771SOL    HW244554   7.974  12.160   8.631 -0.1552 -1.3382 -0.5138
45772SOL     OW44555   1.351   2.373   7.927 -0.1950 -0.5078 -0.1582
45772SOL    HW144556   1.356   2.430   8.004 -1.5729  0.0925 -0.4828
45772SOL    HW244557   1.322   2.288   7.961 -0.9719 -0.1961 -0.0184
45773SOL     OW44558   8.327   3.204   8.767 -0.0250 -0.1962  0.3800
45773SOL    HW144559   8.265   3.154   8.714 -0.7076  2.0999 -1.1332
45773SOL    HW244560   8.409   3.202   8.717  0.4703 -1.2373  1.2004
45774SOL     OW44561   9.083   2.427   9.107 -0.3201 -0.2959  0.1036
45774SOL    HW144562   9.008   2.434   9.049  0.0817  2.9087 -0.1697
45774SOL    HW244563   9.047   2.439   9.195 -0.6712 -3.4437  0.5345
45775SOL     OW44564   5.597   5.323   5.586 -0.1527 -0.5299  0.4030
45775SOL    HW144565   5.661   5.387   5.553  1.3629 -1.3456  1.6362
45775SOL    HW244566   5.512   5.364   5.570  0.7459  1.6085  0.7806
45776SOL     OW44567  12.211  11.177  12.479 -0.3763  0.3446  0.4645
45776SOL    HW144568  12.163  11.150  12.400  0.7831  0.3910 -0.2775
45776SOL    HW244569  12.165  11.134  12.551 -1.2561  0.0288 -0.2621
45777SOL     OW44570  12.642   4.135   2.364  0.6112 -0.2583 -0.2005
45777SOL    HW144571  12.553   4.151   2.395  0.7215  0.2555 -0.1440
45777SOL    HW244572  12.691   4.213   2.390  0.7703  0.0554 -1.4019
45778SOL     OW44573   8.539   8.887   7.641 -0.2412 -0.3647  0.6002
45778SOL    HW144574   8.505   8.976   7.646  0.2788 -0.1738  0.9060
45778SOL    HW244575   8.631   8.896   7.667  0.2750 -0.7312 -1.0015
45779SOL     OW44576   8.355   7.671  12.649  0.4023  0.2303 -0.0764
45779SOL    HW144577   8.291   7.722  12.699  1.5989  0.2007  1.5578
45779SOL    HW244578   8.323   7.581  12.654  0.0624  0.3458 -0.1150
45780SOL     OW44579   8.332   3.800  11.876  0.4250 -0.1446  0.3280
45780SOL    HW144580   8.352   3.892  11.859 -0.1287 -0.2510 -1.0951
45780SOL    HW244581   8.398   3.771  11.938  0.3053  1.3408  1.1987
45781SOL     OW44582   5.835   2.256   1.494 -0.0138 -0.1127 -0.3846
45781SOL    HW144583   5.832   2.193   1.566 -0.7969  0.1222 -0.1979
45781SOL    HW244584   5.793   2.210   1.421  0.9903 -0.4363 -0.7655
45782SOL     OW44585   9.635   4.078   3.649 -0.4665 -0.2750 -0.2076
45782SOL    HW144586   9.575   4.032   3.707 -0.1064 -1.1408 -0.5016
45782SOL    HW244587   9.660   4.157   3.698 -0.5743 -0.7248  0.5898
45783SOL     OW44588  10.438   8.971  10.488  0.4203  0.6554  0.5688
45783SOL    HW144589  10.441   9.039  10.421  0.5418 -0.2082 -0.3162
45783SOL    HW244590  10.522   8.979  10.533  1.6288 -0.6755 -1.3354
45784SOL     OW44591   4.445   2.641   6.989  0.0788 -0.0451 -1.1090
45784SOL    HW144592   4.352   2.620   6.994  0.4561 -1.7657 -0.5855
45784SOL    HW244593   4.456   2.683   6.904 -1.1690  0.2041 -1.1625
45785SOL     OW44594   5.926   0.233   2.674  0.3766  0.0970 -0.3826
45785SOL    HW144595   5.910   0.324   2.699  1.5444  0.1549  0.2241
45785SOL    HW244596   6.019   0.230   2.651 -0.0202 -0.5784 -2.0761
45786SOL     OW44597   5.340   3.299  12.254 -0.2639  0.4065  0.7676
45786SOL    HW144598   5.282   3.373  12.235  1.2051  1.7250  1.1576
45786SOL    HW244599   5.416   3.339  12.298  1.5853 -1.0260 -0.9227
45787SOL     OW44600   8.582  10.117   2.976 -0.5688  0.2097  0.2076
45787SOL    HW144601   8.670  10.080   2.974 -0.6510 -0.0164 -1.8026
45787SOL    HW244602   8.554  10.110   3.067  1.1428 -0.5372  0.7016
45788SOL     OW44603  11.213   9.779   7.003  0.2646  0.1882  0.9674
45788SOL    HW144604  11.266   9.820   7.072  0.6644 -0.5364  1.1020
45788SOL    HW244605  11.251   9.691   6.993  2.3397  1.2540 -2.3442
45789SOL     OW44606   3.999   8.711  11.582 -0.0572 -0.2725  0.7096
45789SOL    HW144607   4.046   8.701  11.499  1.1210  0.0366  1.3125
45789SOL    HW244608   4.026   8.636  11.634 -0.4586 -0.2397  0.9675
45790SOL     OW44609   4.617  10.270   7.586  0.0343  0.2818  0.5242
45790SOL    HW144610   4.614  10.232   7.498 -1.5655  0.1937  0.5912
45790SOL    HW244611   4.679  10.215   7.634  0.7558  0.1938 -0.4688
45791SOL     OW44612   3.131   8.557  11.808 -0.0026 -0.0456  0.5871
45791SOL    HW144613   3.100   8.637  11.852  0.8412  0.4798  0.2540
45791SOL    HW244614   3.052   8.508  11.789 -0.6669  1.2929 -0.3055
45792SOL     OW44615   1.500  12.693  12.000 -0.1440 -0.8840  0.3110
45792SOL    HW144616   1.502  12.757  12.071 -0.7616 -0.7889  0.2477
45792SOL    HW244617   1.591  12.687  11.971  0.0593 -0.6795  0.8881
45793SOL     OW44618   8.924   5.347   1.146  0.2240  0.2051 -0.1505
45793SOL    HW144619   8.872   5.378   1.220 -1.5868  1.1083 -1.7125
45793SOL    HW244620   8.886   5.263   1.122  0.7904 -0.0790 -0.0784
45794SOL     OW44621  11.276   8.505  12.054 -0.2747 -0.2705 -0.3036
45794SOL    HW144622  11.307   8.477  12.140 -0.9904 -0.7182 -0.1862
45794SOL    HW244623  11.294   8.599  12.051  1.2375 -0.5368 -0.3119
45795SOL     OW44624   5.635  10.124   5.071 -0.2943 -0.4655 -0.1821
45795SOL    HW144625   5.663  10.095   5.159  0.9762 -1.4681 -0.8768
45795SOL    HW244626   5.615  10.043   5.025  0.3387 -0.0488 -1.2186
45796SOL     OW44627   4.242  12.516   8.664  0.6782 -0.2473 -0.0653
45796SOL    HW144628   4.241  12.561   8.579  1.4373  0.7432  0.4388
45796SOL    HW244629   4.150  12.493   8.679  0.0292  2.1850  0.1732
45797SOL     OW44630   1.059   6.233   8.880 -0.0404  0.3500  0.1221
45797SOL    HW144631   1.045   6.226   8.785 -0.0191 -0.6413  0.1738
45797SOL    HW244632   1.152   6.253   8.889  0.3067 -1.0229 -0.0624
45798SOL     OW44633   5.755   5.312   6.527 -0.2297  0.6464  0.4028
45798SOL    HW144634   5.765   5.219   6.547 -1.6503  0.1461 -1.0380
45798SOL    HW244635   5.792   5.322   6.439  1.0786  1.7296  1.0389
45799SOL     OW44636   7.370  10.698   6.716 -0.2653 -0.8175 -0.0420
45799SOL    HW144637   7.334  10.676   6.802 -1.0713  0.4942 -0.0146
45799SOL    HW244638   7.352  10.621   6.663 -3.3603 -0.2483 -0.0578
45800SOL     OW44639   4.573   2.775   3.903  0.1791  0.0848  0.6538
45800SOL    HW144640   4.532   2.861   3.893  1.2780  0.7149  1.3480
45800SOL    HW244641   4.660   2.785   3.864  0.0184 -0.9808 -0.0311
45801SOL     OW44642  11.503   1.952  10.280 -0.0290 -0.1633  0.7786
45801SOL    HW144643  11.569   1.979  10.216 -0.3458  0.1647  0.5891
45801SOL    HW244644  11.507   2.019  10.349 -0.7868  0.3542  0.3280
45802SOL     OW44645   6.569   9.742   1.137  0.2232 -0.2105  0.7480
45802SOL    HW144646   6.613   9.673   1.187  1.9838  0.1594 -0.2188
45802SOL    HW244647   6.622   9.820   1.153 -0.2186  0.3059 -0.2555
45803SOL     OW44648   1.021   2.217   7.940  0.0048  0.2562 -0.1694
45803SOL    HW144649   1.100   2.198   7.890  0.2364 -1.6577  0.7939
45803SOL    HW244650   0.950   2.211   7.876  0.5376  1.0249 -0.8515
45804SOL     OW44651  10.194  11.459   6.829 -0.0681  0.3232  0.5503
45804SOL    HW144652  10.147  11.387   6.870  0.6298 -1.7146 -1.9870
45804SOL    HW244653  10.132  11.495   6.765  1.2064 -1.5614 -1.9157
45805SOL     OW44654   7.590   8.208   7.950 -0.1451  0.0906 -0.3548
45805SOL    HW144655   7.680   8.240   7.959  0.4762 -1.3428 -1.1928
45805SOL    HW244656   7.566   8.231   7.860 -1.1498  1.6797  0.2669
45806SOL     OW44657   6.050   7.828  11.638  0.2631  0.0149 -0.0285
45806SOL    HW144658   6.026   7.917  11.666  0.4754 -0.3664  1.4639
45806SOL    HW244659   6.045   7.831  11.543  0.3810  1.6636 -0.0203
45807SOL     OW44660   8.762  10.111   7.538 -0.1825 -0.0717 -0.2110
45807SOL    HW144661   8.687  10.163   7.511 -0.3168 -0.4540 -0.5894
45807SOL    HW244662   8.807  10.089   7.456 -0.7196 -1.4303 -0.1563
45808SOL     OW44663   3.275   1.503   5.555 -0.1550  0.3891  0.8537
45808SOL    HW144664   3.350   1.518   5.612  0.4221  1.5445 -0.1471
45808SOL    HW244665   3.234   1.423   5.588  1.9807 -0.7243  0.9379
45809SOL     OW44666   1.844   5.134   4.311  0.0958  0.6070  0.0750
45809SOL    HW144667   1.780   5.132   4.382  0.4985  1.3175  0.4748
45809SOL    HW244668   1.929   5.133   4.355  0.3594 -0.0183 -0.4356
45810SOL     OW44669   9.400   8.263   4.515  0.0836  0.4939  0.1314
45810SOL    HW144670   9.384   8.259   4.421 -0.2048 -0.6582  0.2118
45810SOL    HW244671   9.456   8.187   4.533  0.5985  1.0168  0.8111
45811SOL     OW44672  10.304   4.917   5.240  0.3893 -0.1084 -0.5616
45811SOL    HW144673  10.315   4.914   5.145  2.3050 -0.5514 -0.3674
45811SOL    HW244674  10.292   5.009   5.261  0.1857  0.0141 -1.2056
45812SOL     OW44675   4.082   5.717   5.867 -0.3145 -0.5854  0.3368
45812SOL    HW144676   3.988   5.699   5.862 -0.2385 -0.9410  0.1509
45812SOL    HW244677   4.112   5.709   5.776 -0.3645  1.0031  0.1503
45813SOL     OW44678   5.953   8.554   3.275  0.3295  0.1545 -0.2019
45813SOL    HW144679   6.002   8.593   3.348  0.7481 -0.6559 -0.0244
45813SOL    HW244680   5.997   8.469   3.261 -1.1626 -0.7020  0.1154
45814SOL     OW44681   0.445  10.687   0.038  0.0432  0.1611  0.5198
45814SOL    HW144682   0.465  10.639  -0.042 -0.2121  0.5978  0.1884
45814SOL    HW244683   0.380  10.752   0.011  1.5409  1.7735  0.6032
45815SOL     OW44684   6.597  12.171   4.999 -0.1967 -0.2279 -0.2513
45815SOL    HW144685   6.638  12.153   4.914  2.3197  0.7933  0.6529
45815SOL    HW244686   6.640  12.250   5.030 -1.4720 -0.2459  1.7616
45816SOL     OW44687   5.123   8.129   8.308 -0.7003 -0.0835 -0.1345
45816SOL    HW144688   5.048   8.186   8.327 -0.5808 -0.5153  1.7876
45816SOL    HW244689   5.200   8.182   8.331 -0.6296 -1.7882  4.4846
45817SOL     OW44690   4.757  11.525   0.009  0.3380 -0.3317 -0.1039
45817SOL    HW144691   4.842  11.481   0.016  1.1359  1.0578 -0.6114
45817SOL    HW244692   4.718  11.491  -0.071  0.8432 -0.3024 -0.3641
45818SOL     OW44693  10.795   6.176   6.733 -0.2642  0.3965  0.3805
45818SOL    HW144694  10.707   6.212   6.729 -0.9886 -1.1776  1.4168
45818SOL    HW244695  10.792   6.110   6.802  0.8641 -1.9830 -1.6533
45819SOL     OW44696  10.082   9.262  10.717  0.0626 -0.3642  0.3887
45819SOL    HW144697  10.055   9.190  10.660 -1.5686 -1.7742  2.7943
45819SOL    HW244698  10.030   9.337  10.688  0.5285 -0.5591 -1.0297
45820SOL     OW44699  11.411  12.404  10.864 -0.0762 -0.2319  0.2750
45820SOL    HW144700  11.392  12.426  10.772  0.8097  0.2308  0.1934
45820SOL    HW244701  11.417  12.489  10.908 -1.1512 -0.4654  0.9160
45821SOL     OW44702  10.646   2.528   8.081 -0.6174 -0.0996  0.2002
45821SOL    HW144703  10.645   2.450   8.026  0.3896 -1.5007  2.0316
45821SOL    HW244704  10.579   2.512   8.147 -1.6665  1.4569 -0.4355
45822SOL     OW44705  12.310   6.239   4.503  0.0526  0.2552  0.3647
45822SOL    HW144706  12.226   6.194   4.497  1.6480 -2.8669 -1.2780
45822SOL    HW244707  12.310   6.301   4.431 -0.6283 -0.1807 -0.0231
45823SOL     OW44708  11.979   3.396   9.350  0.3271 -0.5205  0.3370
45823SOL    HW144709  12.045   3.458   9.381  0.3422  0.9169 -2.3301
45823SOL    HW244710  11.903   3.450   9.329 -0.1365 -1.5656 -0.8127
45824SOL     OW44711   9.984   0.098   3.695  0.1146 -0.1116  0.0378
45824SOL    HW144712  10.052   0.038   3.665  1.5019  0.9264  0.9989
45824SOL    HW244713   9.987   0.093   3.791  0.3464  1.5187  0.1577
45825SOL     OW44714   3.454   7.886  11.074  0.3067 -0.4118 -0.5321
45825SOL    HW144715   3.394   7.811  11.070  0.4330 -0.5215 -0.3862
45825SOL    HW244716   3.461   7.905  11.167  1.4975 -1.2089 -0.4308
45826SOL     OW44717  12.248  12.671   0.971 -0.2229 -0.1676  0.3566
45826SOL    HW144718  12.344  12.676   0.978 -0.0931 -0.5629 -0.8760
45826SOL    HW244719  12.226  12.587   1.012 -0.0174 -0.1511  0.5030
45827SOL     OW44720   8.851   4.663   3.943 -0.5411 -0.2861 -0.4897
45827SOL    HW144721   8.775   4.641   3.888 -0.2877 -1.9539 -0.2369
45827SOL    HW244722   8.814   4.716   4.014 -1.3948 -0.6559 -0.6384
45828SOL     OW44723   4.957   8.611  11.815  0.1633  0.0091  0.4624
45828SOL    HW144724   5.028   8.564  11.770 -0.3681  0.3437 -0.7693
45828SOL    HW244725   4.913   8.660  11.746 -0.0456  1.3915  1.5311
45829SOL     OW44726   8.731   7.048   0.564 -0.3811 -0.3710  0.1640
45829SOL    HW144727   8.663   6.982   0.580  0.3963 -1.3790 -0.5941
45829SOL    HW244728   8.739   7.052   0.469  0.4967 -0.1182  0.2445
45830SOL     OW44729   2.334   8.371   4.312  0.4375  0.0916  0.0593
45830SOL    HW144730   2.322   8.440   4.377  2.9826  0.3156  0.3950
45830SOL    HW244731   2.266   8.387   4.247 -0.3377  1.6286  1.1920
45831SOL     OW44732   4.085   8.501  10.452 -0.2423  0.3822  0.0177
45831SOL    HW144733   4.018   8.563  10.481 -0.8722  1.0162 -2.5079
45831SOL    HW244734   4.038   8.419  10.441  0.1988 -0.1153  1.5725
45832SOL     OW44735   3.069   0.047   6.230  0.4581  0.2378  0.2434
45832SOL    HW144736   3.091   0.129   6.275  0.0606  0.2421  0.4319
45832SOL    HW244737   2.991   0.015   6.275 -0.2761  0.5165 -0.7694
45833SOL     OW44738  12.336   8.614   0.300  0.5596  0.0753 -0.0690
45833SOL    HW144739  12.353   8.528   0.263  1.0382  0.6656 -1.2941
45833SOL    HW244740  12.325   8.671   0.224 -2.5914  0.6038  0.6370
45834SOL     OW44741   8.071   2.025   9.185 -0.2065 -0.4901  0.2918
45834SOL    HW144742   8.042   1.940   9.217 -1.1319 -0.6972 -1.0031
45834SOL    HW244743   8.166   2.018   9.180 -0.3772 -2.4985 -2.4369
45835SOL     OW44744  12.185   2.126   6.436  0.1591  0.1257  0.0710
45835SOL    HW144745  12.123   2.194   6.410 -0.7538 -0.3841  0.9004
45835SOL    HW244746  12.179   2.060   6.367  0.1017  0.2726 -0.0650
45836SOL     OW44747  10.612   9.753   5.303 -0.0627 -0.2842  0.6478
45836SOL    HW144748  10.564   9.691   5.248  0.2796 -0.6325  0.7401
45836SOL    HW244749  10.578   9.738   5.392 -0.8493  0.5017  0.4978
45837SOL     OW44750   1.412   2.860  11.128 -0.2941  0.0692 -0.2967
45837SOL    HW144751   1.495   2.859  11.176 -0.1707 -2.2853 -0.4262
45837SOL    HW244752   1.345   2.869  11.195  0.0019 -0.2708  0.0536
45838SOL     OW44753   5.480  12.399   9.686 -0.0384 -1.0101  0.3560
45838SOL    HW144754   5.523  12.332   9.738  0.3987  0.0572  1.4140
45838SOL    HW244755   5.536  12.411   9.610  0.5086 -1.0015  0.7602
45839SOL     OW44756  10.845   1.967  11.179  0.3307 -0.0141  0.2677
45839SOL    HW144757  10.845   2.060  11.201  0.9859 -0.4204  2.1105
45839SOL    HW244758  10.919   1.956  11.120  0.3346  0.6012  0.1613
45840SOL     OW44759  11.135   9.321   9.501 -0.2438 -0.4048  0.4552
45840SOL    HW144760  11.230   9.317   9.510 -0.1946 -0.1202  0.0935
45840SOL    HW244761  11.117   9.290   9.412 -0.5720 -1.4161  0.8692
45841SOL     OW44762   3.131   2.182   2.563 -0.0869  0.5504 -0.1924
45841SOL    HW144763   3.211   2.225   2.594  0.5171 -0.7100  0.0310
45841SOL    HW244764   3.160   2.125   2.492 -1.0450  1.2539 -1.1890
45842SOL     OW44765   8.238   2.800   7.177 -0.5631 -0.3714  0.5884
45842SOL    HW144766   8.288   2.772   7.101 -1.2681  0.4388 -0.2069
45842SOL    HW244767   8.304   2.819   7.244  0.1015 -0.6311  0.0163
45843SOL     OW44768   6.648   5.870   9.703 -0.0117 -0.1097 -0.2161
45843SOL    HW144769   6.617   5.855   9.792 -1.9991  0.4743 -0.7644
45843SOL    HW244770   6.724   5.926   9.713 -0.4123  0.2246  1.1016
45844SOL     OW44771   4.603  11.246   0.033 -0.2453  0.8906 -0.0846
45844SOL    HW144772   4.536  11.281  -0.025  0.6964  1.7908 -0.6381
45844SOL    HW244773   4.676  11.222  -0.024 -0.1712 -0.3415  0.4795
45845SOL     OW44774   6.337   9.655   5.653  0.3940 -0.5597 -0.4455
45845SOL    HW144775   6.241   9.660   5.660  0.4051 -1.6795  1.4384
45845SOL    HW244776   6.354   9.564   5.628  0.9614 -0.0186 -2.1436
45846SOL     OW44777   8.493   6.052   2.616  0.0329  0.1724 -0.4593
45846SOL    HW144778   8.438   6.100   2.678 -0.1098 -0.6507  0.0667
45846SOL    HW244779   8.447   5.969   2.603  0.5668 -0.0602 -0.9089
45847SOL     OW44780   2.843   9.116  10.281 -0.2423 -0.3228  0.2245
45847SOL    HW144781   2.931   9.112  10.245 -0.1843  1.3492  0.1298
45847SOL    HW244782   2.788   9.073  10.216  0.5544 -1.9733  0.5805
45848SOL     OW44783   4.201  10.240  11.277  0.1745 -0.0515 -0.5028
45848SOL    HW144784   4.125  10.281  11.317 -0.2443  0.3009 -1.6072
45848SOL    HW244785   4.176  10.228  11.185  0.8148 -1.5034 -0.5198
45849SOL     OW44786   0.900  12.257  11.525 -0.3300 -0.2033 -0.7628
45849SOL    HW144787   0.823  12.235  11.578 -0.5045  2.3088  0.1660
45849SOL    HW244788   0.864  12.309  11.452  0.3460 -0.0745 -1.0083
45850SOL     OW44789   5.073   2.833   4.453  0.3977 -0.2770 -0.2247
45850SOL    HW144790   5.162   2.830   4.489 -0.0794  2.6251  1.4730
45850SOL    HW244791   5.056   2.743   4.426  3.7423 -0.9914 -0.4200
45851SOL     OW44792   8.246   0.393   1.145  0.4745  0.5903  0.2040
45851SOL    HW144793   8.166   0.381   1.197 -0.0418 -0.0988 -0.7030
45851SOL    HW244794   8.247   0.486   1.123  0.8810  0.9677  1.6912
45852SOL     OW44795   9.921   2.267   6.275 -0.0375 -0.4944  0.5336
45852SOL    HW144796   9.842   2.244   6.324  0.2618 -2.6816  0.1031
45852SOL    HW244797   9.989   2.275   6.341  0.0205 -1.8256  0.6662
45853SOL     OW44798   2.809  11.005  11.946 -1.5654 -0.5477 -0.5522
45853SOL    HW144799   2.857  10.942  12.001 -0.8609 -0.3698 -0.9515
45853SOL    HW244800   2.717  10.978  11.954 -1.5825 -0.0542  1.3230
45854SOL     OW44801   4.897   2.548   5.024 -0.4360 -0.2284  0.5235
45854SOL    HW144802   4.896   2.459   5.061  1.3608 -0.5379 -0.0291
45854SOL    HW244803   4.944   2.538   4.941 -0.0449  1.2673  0.5416
45855SOL     OW44804   2.693  11.333   4.409  0.0387  0.1097 -0.0527
45855SOL    HW144805   2.610  11.305   4.448 -0.0649 -0.1698 -0.4718
45855SOL    HW244806   2.722  11.406   4.465 -0.7097  0.5136 -0.1783
45856SOL     OW44807   5.960  12.709   1.973  0.5212 -0.2485 -0.0181
45856SOL    HW144808   5.931  12.759   2.050  0.9219 -3.2695  2.2829
45856SOL    HW244809   5.885  12.653   1.952  1.7129 -2.2177  0.7311
45857SOL     OW44810   2.290   9.459   0.212 -0.0225  0.0602 -0.2701
45857SOL    HW144811   2.332   9.392   0.266  0.0349 -1.0625 -1.6386
45857SOL    HW244812   2.342   9.461   0.132 -0.2241  1.5349 -0.3900
45858SOL     OW44813  12.518   5.832   2.026 -0.0619 -0.0924  0.3889
45858SOL    HW144814  12.526   5.750   2.074 -0.9455 -0.6471 -0.4000
45858SOL    HW244815  12.580   5.891   2.070  0.5472 -1.1496  0.9885
45859SOL     OW44816   5.745   2.400   6.992  0.2594  0.5811 -0.3661
45859SOL    HW144817   5.809   2.471   6.995 -0.2864  1.0691  1.6682
45859SOL    HW244818   5.689   2.419   6.917  0.9286  1.5670 -0.6207
45860SOL     OW44819   8.631   9.868  11.967 -0.5766 -0.1653  0.3262
45860SOL    HW144820   8.637   9.810  11.891  1.2481  0.8463 -0.3813
45860SOL    HW244821   8.588   9.947  11.934 -0.1492  0.1174  0.4331
45861SOL     OW44822   0.663  10.498  11.213  0.4491  0.7720 -0.6401
45861SOL    HW144823   0.687  10.482  11.122  1.5342 -1.5727 -0.0273
45861SOL    HW244824   0.715  10.435  11.263  0.9891  2.9468  1.7713
45862SOL     OW44825   5.458   1.717   2.082 -0.2599 -0.0318  0.2740
45862SOL    HW144826   5.463   1.703   2.176 -0.2636  0.1649  0.3052
45862SOL    HW244827   5.524   1.659   2.045 -1.4376 -1.4042  0.2465
45863SOL     OW44828   9.285  11.254   4.451 -0.0742 -0.3594 -0.3472
45863SOL    HW144829   9.238  11.334   4.475  0.4175 -0.2417  0.2321
45863SOL    HW244830   9.224  11.208   4.392 -0.1531  0.6670 -1.0887
45864SOL     OW44831   7.550  11.309   5.309  0.4260 -0.4889  0.5508
45864SOL    HW144832   7.579  11.224   5.276  1.9502 -0.4309  1.6120
45864SOL    HW244833   7.621  11.338   5.366 -0.0384  1.5205  0.2027
45865SOL     OW44834   9.949   3.334   4.027  0.0457  0.2772  0.5755
45865SOL    HW144835   9.949   3.239   4.014  0.9157  0.5638 -2.1695
45865SOL    HW244836   9.870   3.352   4.078  0.0462 -1.9345  1.4492
45866SOL     OW44837   9.444   7.769   5.862  0.0909 -0.4222  0.3101
45866SOL    HW144838   9.485   7.693   5.822  0.2095  0.2005 -0.8077
45866SOL    HW244839   9.462   7.761   5.955  1.8553 -0.6994 -0.0341
45867SOL     OW44840   2.339   8.181  10.297 -0.0133  0.5871 -0.1601
45867SOL    HW144841   2.264   8.124  10.316 -0.0682  0.4019 -0.9048
45867SOL    HW244842   2.415   8.123  10.298  0.1857  0.8379  0.9670
45868SOL     OW44843   1.932   9.323  11.379 -0.4103  0.1270 -0.0559
45868SOL    HW144844   1.973   9.261  11.439  0.7036 -0.8141 -1.7164
45868SOL    HW244845   1.983   9.317  11.299 -2.9983 -0.1432 -1.8048
45869SOL     OW44846   2.816   9.993   1.948 -0.1607 -0.3366 -0.2023
45869SOL    HW144847   2.755   9.937   1.899  0.4438 -1.5651  0.4255
45869SOL    HW244848   2.798   9.974   2.040  1.4044 -1.0095  0.0005
45870SOL     OW44849   6.686   7.623  12.062  0.1244 -0.3201 -0.4040
45870SOL    HW144850   6.630   7.695  12.090 -0.4626 -1.3762  1.3352
45870SOL    HW244851   6.627   7.561  12.019 -0.2751 -1.6831  1.9007
45871SOL     OW44852   7.726   7.572   9.579 -0.2502 -0.2558 -0.2260
45871SOL    HW144853   7.768   7.654   9.605 -0.1085 -0.8047  1.3392
45871SOL    HW244854   7.643   7.600   9.540  0.4850  0.7014 -1.1788
45872SOL     OW44855   1.082  12.458   6.202  0.5811 -0.1919 -0.2482
45872SOL    HW144856   1.029  12.410   6.138 -1.0128  1.4893 -0.2657
45872SOL    HW244857   1.093  12.396   6.275 -0.3034 -1.0296 -0.7969
45873SOL     OW44858   1.866   3.766   9.164  0.2473  0.0676 -0.1256
45873SOL    HW144859   1.770   3.763   9.156  0.2687  0.5544 -0.5960
45873SOL    HW244860   1.898   3.766   9.074  0.6947 -0.0379  0.0298
45874SOL     OW44861   9.383   0.947  12.397 -0.2910  0.1849  0.2281
45874SOL    HW144862   9.352   1.020  12.451 -1.5179  0.4239 -0.7658
45874SOL    HW244863   9.304   0.909  12.360  0.3896 -1.1940  0.1182
45875SOL     OW44864  10.171   7.331  10.526  0.2563  0.1807  0.2266
45875SOL    HW144865  10.126   7.255  10.490  1.7121 -0.2308 -0.8143
45875SOL    HW244866  10.135   7.405  10.479 -0.2003  0.0018  0.2861
45876SOL     OW44867   6.805   1.701   5.006 -0.1398 -0.4394 -0.3907
45876SOL    HW144868   6.820   1.762   5.078 -0.4215 -0.8383  0.0151
45876SOL    HW244869   6.863   1.627   5.024  0.2851 -0.2464 -0.9410
45877SOL     OW44870   7.807  11.365   7.133  0.3488 -0.1820 -0.0963
45877SOL    HW144871   7.804  11.386   7.040  0.5238  0.2203 -0.0135
45877SOL    HW244872   7.891  11.322   7.146  0.4199 -0.0391 -0.0834
45878SOL     OW44873   8.051   9.032   9.694 -0.0902 -0.0626  0.0683
45878SOL    HW144874   8.103   9.082   9.631 -0.1932 -0.9799 -0.7642
45878SOL    HW244875   8.080   8.941   9.683 -3.1128 -0.9401 -1.7708
45879SOL     OW44876   0.870   5.150   0.295  0.0702 -0.3463  0.3186
45879SOL    HW144877   0.947   5.127   0.347 -1.1710  0.5627  2.7486
45879SOL    HW244878   0.844   5.236   0.328 -1.1025  0.0657 -1.5364
45880SOL     OW44879  10.212   4.643   7.332 -0.0543  0.0599  0.1141
45880SOL    HW144880  10.251   4.611   7.413 -2.0104 -0.2908  0.9556
45880SOL    HW244881  10.227   4.738   7.335  0.8996 -0.0839  0.2970
45881SOL     OW44882   4.594  12.152   3.357  0.1416 -0.2522 -0.2136
45881SOL    HW144883   4.560  12.139   3.445 -0.8364 -0.8139 -0.6653
45881SOL    HW244884   4.637  12.069   3.335  1.1993  0.1954  0.0663
45882SOL     OW44885   7.710   4.586   5.505 -0.0742 -0.4389 -0.1920
45882SOL    HW144886   7.800   4.606   5.481 -0.9485 -0.0654 -3.7010
45882SOL    HW244887   7.657   4.640   5.446 -2.5506 -3.7666 -1.3576
45883SOL     OW44888   6.471   6.458   4.816  0.5426 -0.2187 -0.8795
45883SOL    HW144889   6.421   6.450   4.735 -0.8375  1.1943 -0.2355
45883SOL    HW244890   6.416   6.512   4.873  2.6533  1.1383  0.0240
45884SOL     OW44891  10.318   0.169   3.616  0.0233  0.2051 -0.5781
45884SOL    HW144892  10.238   0.117   3.608 -2.2094  3.2866  0.0955
45884SOL    HW244893  10.315   0.230   3.542  0.6216  1.7553  0.6121
45885SOL     OW44894   2.375   7.510   8.489 -0.7585 -0.4151 -0.3698
45885SOL    HW144895   2.386   7.494   8.395 -0.6104  0.5973 -0.5447
45885SOL    HW244896   2.431   7.446   8.532 -0.3250 -0.4655 -1.0010
45886SOL     OW44897   5.212   0.637   9.454  0.2804  0.5959  0.0912
45886SOL    HW144898   5.179   0.695   9.522  0.6541  1.5392 -0.5105
45886SOL    HW244899   5.295   0.677   9.427  0.8606 -0.5611  0.0943
45887SOL     OW44900   0.729   7.457   2.636 -0.3560 -0.1181  0.2270
45887SOL    HW144901   0.634   7.445   2.630 -0.7126  2.0738  0.6335
45887SOL    HW244902   0.756   7.478   2.547 -0.1619 -1.0976  0.0395
45888SOL     OW44903   9.570   9.094   4.105  0.4104 -0.7951  0.3223
45888SOL    HW144904   9.650   9.119   4.059 -1.1889  3.1728 -0.6376
45888SOL    HW244905   9.535   9.021   4.054  1.8832 -0.6660 -0.9607
45889SOL     OW44906   5.342   6.928   4.407  0.2503  0.2997 -0.0341
45889SOL    HW144907   5.282   6.858   4.432  0.8401  0.2879  1.4810
45889SOL    HW244908   5.286   6.999   4.377 -0.3502 -0.8959 -1.9009
45890SOL     OW44909   9.844   6.823  11.447  0.1127  0.1190  0.4269
45890SOL    HW144910   9.831   6.871  11.366 -0.6598 -2.0919 -0.8382
45890SOL    HW244911   9.759   6.784  11.466  0.8323 -1.2283  1.0396
45891SOL     OW44912  10.586  11.736   4.348  0.2839 -0.1049 -0.5735
45891SOL    HW144913  10.643  11.677   4.397 -0.0178 -0.4456 -0.6294
45891SOL    HW244914  10.528  11.774   4.414 -0.3053 -0.7730 -0.6937
45892SOL     OW44915   3.850   8.988   7.296 -0.1332  0.1063  0.0991
45892SOL    HW144916   3.816   9.053   7.235 -0.5497  1.1566  1.4178
45892SOL    HW244917   3.774   8.960   7.346  0.4226  0.2439  1.0423
45893SOL     OW44918  12.074   8.546   8.755 -0.7136  0.0829 -0.4360
45893SOL    HW144919  11.994   8.572   8.801 -0.6473 -0.3735 -0.0655
45893SOL    HW244920  12.043   8.516   8.670 -0.9419 -0.1469 -0.2737
45894SOL     OW44921   5.543   7.063   3.097  0.1231 -0.0610 -0.1589
45894SOL    HW144922   5.564   7.074   3.190  2.3770 -2.3369 -0.3039
45894SOL    HW244923   5.470   7.002   3.096  1.3260 -1.5632  0.1390
45895SOL     OW44924   3.990   8.870   4.997 -0.0089 -0.3578 -0.2451
45895SOL    HW144925   3.917   8.840   4.943 -0.3003 -1.6927  0.8309
45895SOL    HW244926   4.037   8.931   4.941 -1.2642 -0.3810 -1.3906
45896SOL     OW44927   7.803   8.628   4.501  0.2281  0.0228  0.5758
45896SOL    HW144928   7.861   8.616   4.576  0.3532 -0.5400  0.3996
45896SOL    HW244929   7.861   8.621   4.425  0.3270  1.8920  0.4328
45897SOL     OW44930   5.222   9.616  10.336  0.0675 -0.3530  0.5270
45897SOL    HW144931   5.208   9.584  10.247  1.7188 -2.3174  0.8860
45897SOL    HW244932   5.241   9.537  10.387  2.9280  1.0172  1.8249
45898SOL     OW44933   0.873   7.969   1.556  0.0412  0.3637 -0.3573
45898SOL    HW144934   0.953   7.924   1.530  0.1213  0.2457  0.0858
45898SOL    HW244935   0.820   7.971   1.477 -0.3164 -1.2599 -0.1951
45899SOL     OW44936   7.652  10.733   0.510 -0.2230  0.3394  0.7097
45899SOL    HW144937   7.626  10.642   0.495 -1.7938  1.0483 -1.5445
45899SOL    HW244938   7.631  10.749   0.602 -0.6294 -1.3462  0.9535
45900SOL     OW44939   8.890   8.509   3.394  0.3527 -0.1528 -0.5568
45900SOL    HW144940   8.907   8.422   3.430 -0.2822 -0.7062 -1.5802
45900SOL    HW244941   8.929   8.507   3.307 -1.2119 -0.0321 -1.2916
45901SOL     OW44942  12.101   2.859   6.486 -0.6019  0.5253 -0.6179
45901SOL    HW144943  12.139   2.855   6.574 -0.6421  1.1419 -0.5737
45901SOL    HW244944  12.025   2.916   6.495  0.1980  1.7589 -1.3492
45902SOL     OW44945   7.528   6.030   9.987 -0.0112 -0.4690 -0.2603
45902SOL    HW144946   7.499   6.018  10.077 -4.8459 -0.5215 -1.5103
45902SOL    HW244947   7.536   5.941   9.952 -2.5937 -0.5589 -0.8665
45903SOL     OW44948   4.530  11.290   9.256 -0.1869  0.0673 -0.1595
45903SOL    HW144949   4.619  11.301   9.288  0.6966  2.2172 -2.9211
45903SOL    HW244950   4.526  11.198   9.228  1.1698 -0.0517 -0.0291
45904SOL     OW44951  12.498   9.742   7.962 -0.7666  0.5583  0.4947
45904SOL    HW144952  12.523   9.662   7.916 -0.7951  1.4313 -1.1045
45904SOL    HW244953  12.548   9.812   7.919  0.2785  1.2802  2.7081
45905SOL     OW44954   8.877   9.456   4.040 -0.0357  0.3067  0.3702
45905SOL    HW144955   8.785   9.455   4.016  0.2669  1.4237 -0.9398
45905SOL    HW244956   8.912   9.374   4.006 -0.0706  0.9187 -1.2123
45906SOL     OW44957   5.511   6.518   1.571  0.2059  0.2573  0.3062
45906SOL    HW144958   5.519   6.605   1.530  4.0329  0.4600  1.1832
45906SOL    HW244959   5.416   6.506   1.580 -0.5515  3.6353 -1.2633
45907SOL     OW44960   9.135   7.681   1.728  0.0813  0.4150  0.2822
45907SOL    HW144961   9.057   7.676   1.783  0.6166 -1.1385  0.9517
45907SOL    HW244962   9.179   7.762   1.755 -0.1829  0.1842  1.4393
45908SOL     OW44963   4.199   9.658  11.182 -0.3160  0.3979  0.3629
45908SOL    HW144964   4.178   9.657  11.089  0.8842  2.5695 -0.0040
45908SOL    HW244965   4.233   9.747  11.198 -0.7687  0.1807  2.9333
45909SOL     OW44966   1.916  12.113   9.229 -0.0664 -0.1547 -0.1988
45909SOL    HW144967   1.835  12.126   9.278 -0.1919 -1.7458  0.0812
45909SOL    HW244968   1.938  12.199   9.194 -0.7496  0.7255  1.4639
45910SOL     OW44969   9.578  11.925  10.868 -0.3008 -0.1191 -0.3775
45910SOL    HW144970   9.607  11.872  10.794 -0.6086  0.3466 -0.8366
45910SOL    HW244971   9.538  11.862  10.928  0.7976 -0.6317 -0.1625
45911SOL     OW44972   0.886   4.224  10.939  0.5426 -0.0536 -0.8465
45911SOL    HW144973   0.822   4.281  10.981  1.4490  1.4025 -1.3615
45911SOL    HW244974   0.930   4.180  11.011  0.9654  1.1674 -0.3354
45912SOL     OW44975   3.851   3.665   4.257 -0.1394 -0.2562  0.2094
45912SOL    HW144976   3.832   3.603   4.187  0.2498 -0.2611  0.1091
45912SOL    HW244977   3.843   3.614   4.337 -0.6882 -0.2267  0.1812
45913SOL     OW44978   6.683   5.630   2.627  0.2046  0.7711  0.1637
45913SOL    HW144979   6.696   5.682   2.548  0.0373  1.8921  0.8487
45913SOL    HW244980   6.655   5.693   2.693 -0.7464 -0.3109  0.8363
45914SOL     OW44981  12.124  11.091  11.125 -0.2201  0.4209  0.2344
45914SOL    HW144982  12.067  11.017  11.146 -0.0195  0.3588  0.5615
45914SOL    HW244983  12.165  11.114  11.208  0.1457  0.5397  0.0227
45915SOL     OW44984   5.891   1.016   2.675 -0.4244  0.0477  0.1189
45915SOL    HW144985   5.967   1.068   2.701 -1.5339  1.8671 -0.1340
45915SOL    HW244986   5.918   0.972   2.595  1.1931 -1.3887  1.3655
45916SOL     OW44987   8.801   7.593   6.339  0.2618  0.3821  0.4354
45916SOL    HW144988   8.886   7.556   6.362  0.6464  0.7660 -0.3045
45916SOL    HW244989   8.805   7.606   6.244 -0.5342  0.6297  0.4222
45917SOL     OW44990   3.690   3.645   6.156 -0.1989 -0.1245  0.0154
45917SOL    HW144991   3.602   3.650   6.118 -0.5491 -2.2683  0.4022
45917SOL    HW244992   3.679   3.676   6.246 -0.3428  0.5223 -0.2179
45918SOL     OW44993   9.326   0.531   7.779  0.3232  0.1998 -0.0229
45918SOL    HW144994   9.278   0.517   7.698  0.6731  1.2618 -0.4283
45918SOL    HW244995   9.400   0.470   7.773  1.2405  1.3722 -1.2705
45919SOL     OW44996   8.201  11.896   2.707  0.1827  0.0569  0.1580
45919SOL    HW144997   8.151  11.897   2.626 -0.8053  0.1806  0.7545
45919SOL    HW244998   8.147  11.848   2.769  0.8839  0.0331  0.7753
45920SOL     OW44999   4.584   4.532   3.008 -0.4098 -0.2744  0.3766
45920SOL    HW145000   4.618   4.469   2.945 -0.3174  0.3626 -0.2163
45920SOL    HW245001   4.511   4.486   3.050 -0.4600 -0.7146 -0.1790
45921SOL     OW45002   0.684   1.227   2.485  0.1512 -0.1673  0.1098
45921SOL    HW145003   0.595   1.261   2.486  0.5629  0.9349  0.6681
45921SOL    HW245004   0.673   1.131   2.488 -1.0045 -0.0414  0.2667
45922SOL     OW45005   9.049   9.525  11.328 -0.2640  0.1502 -0.3311
45922SOL    HW145006   9.020   9.616  11.332  1.1563  0.6218 -0.3681
45922SOL    HW245007   9.096   9.511  11.409 -0.5034 -0.5757 -0.3117
45923SOL     OW45008   2.895  11.618  10.736 -0.0784  0.1988 -0.4004
45923SOL    HW145009   2.843  11.677  10.789  1.0617 -0.5251  1.6271
45923SOL    HW245010   2.985  11.649  10.747  0.2790 -0.5000 -1.2213
45924SOL     OW45011   6.688   8.332  10.112 -0.2497  0.4079 -0.1300
45924SOL    HW145012   6.779   8.357  10.100 -0.1011 -0.3238 -0.6010
45924SOL    HW245013   6.658   8.309  10.024  0.4983 -3.9676  0.5337
45925SOL     OW45014   8.319  12.439   2.352  0.6590 -0.6059  0.1256
45925SOL    HW145015   8.332  12.368   2.414  1.5366 -0.6271 -0.0679
45925SOL    HW245016   8.258  12.499   2.395  0.7654 -0.9346  0.7337
45926SOL     OW45017   4.543  11.663  10.012  0.0008  0.8736 -0.2481
45926SOL    HW145018   4.504  11.689   9.929  0.5885  0.4397 -0.6714
45926SOL    HW245019   4.493  11.586  10.039 -0.8438  1.6060  0.3132
45927SOL     OW45020   9.810  10.772   4.330 -0.1714  0.3111 -0.3977
45927SOL    HW145021   9.894  10.757   4.286  0.0184  0.4669 -0.0945
45927SOL    HW245022   9.821  10.856   4.374 -0.3181  0.1037  0.0364
45928SOL     OW45023   0.603   7.999  12.524 -0.2836 -0.2721  0.3409
45928SOL    HW145024   0.521   7.952  12.516  0.5624 -1.7122 -0.3962
45928SOL    HW245025   0.640   7.998  12.435  0.5825  0.2428  0.6743
45929SOL     OW45026   6.404  12.089   3.563  0.1389  0.1396  0.2123
45929SOL    HW145027   6.464  12.093   3.638 -0.0853  0.1842  0.3876
45929SOL    HW245028   6.353  12.010   3.578  2.2996 -1.7529 -1.5477
45930SOL     OW45029   7.348   1.898   4.272  0.6669  0.2471  0.1673
45930SOL    HW145030   7.283   1.843   4.316 -0.1107 -0.2995 -1.5806
45930SOL    HW245031   7.401   1.837   4.221  2.5755  0.6890  1.4975
45931SOL     OW45032   3.168   8.961   6.128  0.2085 -0.1675  0.0720
45931SOL    HW145033   3.198   8.932   6.215 -0.7864  0.6505  0.7068
45931SOL    HW245034   3.156   8.880   6.079 -1.6987 -0.8565  1.5419
45932SOL     OW45035   8.280   8.452   8.723 -0.6567 -0.6072  0.1746
45932SOL    HW145036   8.333   8.390   8.774  1.3229  0.7078 -0.2126
45932SOL    HW245037   8.242   8.511   8.789  1.7674  0.9913  0.2465
45933SOL     OW45038   8.671   2.961   0.978  0.1301 -0.1358 -0.1757
45933SOL    HW145039   8.671   2.944   0.884  0.0019  2.1584 -0.6470
45933SOL    HW245040   8.738   3.028   0.990 -0.4929  0.2646  1.2498
45934SOL     OW45041   5.190   9.464  12.204  0.0067  0.2922 -0.3181
45934SOL    HW145042   5.104   9.421  12.200  0.1173  0.1710 -1.6173
45934SOL    HW245043   5.226   9.454  12.116  1.1883  0.7026  0.1069
45935SOL     OW45044   2.475   5.927   6.097 -0.0883  0.0901 -0.0074
45935SOL    HW145045   2.536   6.000   6.085  0.6851 -0.8280 -2.1937
45935SOL    HW245046   2.405   5.943   6.034  0.6022 -1.5147 -1.2486
45936SOL     OW45047   2.205   8.665   7.285 -0.4957 -1.0771 -0.4027
45936SOL    HW145048   2.132   8.619   7.243 -0.6181 -1.8528  0.6260
45936SOL    HW245049   2.170   8.753   7.301 -0.6205 -0.9303 -1.4313
45937SOL     OW45050  11.014   6.361   2.381  0.1251 -0.1461  0.1324
45937SOL    HW145051  11.047   6.301   2.313 -0.4656  1.1080 -1.3125
45937SOL    HW245052  10.919   6.348   2.380 -0.1728  1.6883 -1.1485
45938SOL     OW45053   4.273  11.716   3.261 -0.3457 -0.1538 -0.3004
45938SOL    HW145054   4.270  11.746   3.352 -0.3998 -0.2218 -0.2789
45938SOL    HW245055   4.325  11.782   3.215  1.6103 -1.2542  0.2117
45939SOL     OW45056   2.205   1.091   2.987  0.1392 -0.0892 -0.6392
45939SOL    HW145057   2.189   0.997   2.988  1.4075 -0.3329 -0.0024
45939SOL    HW245058   2.218   1.113   2.895  0.2853 -0.6306 -0.7497
45940SOL     OW45059   0.162  11.176   5.535  0.2266 -0.6229  0.0031
45940SOL    HW145060   0.214  11.096   5.524  0.8403 -0.0351 -1.7989
45940SOL    HW245061   0.226  11.245   5.551 -0.2091 -0.2913  0.3669
45941SOL     OW45062   0.438   1.657   6.022 -0.2661  0.1370 -0.9778
45941SOL    HW145063   0.425   1.660   5.928 -0.3716 -1.0726 -1.0227
45941SOL    HW245064   0.532   1.644   6.034 -0.0245  1.7511 -0.8501
45942SOL     OW45065  12.574   3.960   0.534 -0.7433 -0.2150  0.3259
45942SOL    HW145066  12.575   3.912   0.617  0.7406 -0.9686 -0.1013
45942SOL    HW245067  12.588   4.051   0.560  0.5756 -0.5482  0.8691
45943SOL     OW45068   9.134  10.098   5.927  0.0630  0.7384  0.0806
45943SOL    HW145069   9.106  10.155   5.999  0.1575 -0.7517  1.3263
45943SOL    HW245070   9.065  10.033   5.920  1.2563 -0.6199  0.5357
45944SOL     OW45071   6.123  11.749   5.391 -0.4068 -1.0055 -0.0173
45944SOL    HW145072   6.095  11.684   5.455  1.1853 -0.1805  1.6214
45944SOL    HW245073   6.084  11.720   5.308 -2.6004 -2.0883  1.2901
45945SOL     OW45074   9.184   5.395   9.535 -1.3186 -0.4290  0.6784
45945SOL    HW145075   9.109   5.353   9.577 -1.2299 -0.5716  0.6940
45945SOL    HW245076   9.147   5.443   9.461 -1.3376 -1.0622  0.2761
45946SOL     OW45077   1.477   3.722   8.239 -0.2373  0.4395  0.4292
45946SOL    HW145078   1.436   3.709   8.325 -0.3852 -0.3409  0.2519
45946SOL    HW245079   1.406   3.749   8.182 -0.6347 -1.3660  0.0130
45947SOL     OW45080  10.158  10.359  10.126 -0.3720  0.2794 -0.7101
45947SOL    HW145081  10.216  10.364  10.202 -0.7785  0.6229 -0.4174
45947SOL    HW245082  10.212  10.322  10.056  0.5189  1.6060 -0.7543
45948SOL     OW45083   8.752   9.706   7.835  0.0345 -0.6234 -0.0001
45948SOL    HW145084   8.823   9.714   7.898  0.9535  0.5639 -1.1319
45948SOL    HW245085   8.681   9.757   7.872  0.9649  1.0527 -0.4093
45949SOL     OW45086   0.340   4.296   0.523  0.4017 -0.1467  0.1672
45949SOL    HW145087   0.426   4.318   0.487 -0.0357  1.7108  0.1713
45949SOL    HW245088   0.339   4.337   0.609 -0.6046  0.1497  0.0272
45950SOL     OW45089  11.994   2.044  10.838 -0.2975  0.6061 -0.0702
45950SOL    HW145090  11.929   2.108  10.867 -0.1829 -0.1913  2.0800
45950SOL    HW245091  11.947   1.961  10.836 -0.1577  0.5134 -1.8009
45951SOL     OW45092   5.964  11.565   9.090  0.2287 -0.5711  0.1210
45951SOL    HW145093   5.916  11.638   9.131  0.2839 -0.0783 -0.6757
45951SOL    HW245094   5.988  11.598   9.004  3.1791 -0.2986  0.9446
45952SOL     OW45095   1.267  11.283   4.314 -0.1308 -0.3499 -0.5014
45952SOL    HW145096   1.241  11.372   4.289 -2.0369 -0.4196  0.9347
45952SOL    HW245097   1.253  11.280   4.409  1.4655 -1.7140 -0.2592
45953SOL     OW45098   7.447  11.049   0.549 -0.2250 -0.7025  0.3181
45953SOL    HW145099   7.530  11.035   0.503  0.3822 -0.0065  1.1751
45953SOL    HW245100   7.383  11.063   0.479  0.6590  0.2384 -0.3280
45954SOL     OW45101   6.667   7.400   9.565  0.7028 -0.3780  0.0517
45954SOL    HW145102   6.724   7.459   9.613  1.7488 -0.3808 -1.1190
45954SOL    HW245103   6.695   7.312   9.592  1.3344 -0.3813 -0.5633
45955SOL     OW45104   7.320  10.307   5.089  0.1619  0.4371  0.2221
45955SOL    HW145105   7.283  10.347   5.167 -0.6992 -0.3455  0.2354
45955SOL    HW245106   7.401  10.264   5.119  0.1822  0.6993  0.5410
45956SOL     OW45107   9.986  10.062   4.191 -0.3666 -0.5034 -0.3247
45956SOL    HW145108   9.953  10.055   4.102 -1.8986 -0.5579  0.2103
45956SOL    HW245109   9.908  10.061   4.246  0.5734 -1.6613  1.0983
45957SOL     OW45110   5.470   9.891   6.492 -0.4277  0.0281 -0.5286
45957SOL    HW145111   5.507   9.866   6.577 -1.5913  0.1033  0.0251
45957SOL    HW245112   5.537   9.867   6.429  1.0785  1.2616  0.5122
45958SOL     OW45113   1.613   9.317  11.132  0.0498 -0.9762  0.2259
45958SOL    HW145114   1.609   9.318  11.228 -1.4813  1.9481  0.2094
45958SOL    HW245115   1.706   9.306  11.113  0.4763 -0.8706  2.0502
45959SOL     OW45116   8.570   2.500   1.585  0.1359  0.1536  0.1614
45959SOL    HW145117   8.581   2.570   1.649  0.5011  1.4130 -1.2072
45959SOL    HW245118   8.499   2.531   1.528  0.5896 -0.3819 -0.7205
45960SOL     OW45119   4.432   6.813   9.221  1.1426 -0.0777  0.3970
45960SOL    HW145120   4.507   6.872   9.223  0.5211  0.9578 -2.1922
45960SOL    HW245121   4.367   6.858   9.166 -0.7403 -1.6719  1.1671
45961SOL     OW45122  12.225   8.260   3.710 -0.1117 -0.5361 -0.2566
45961SOL    HW145123  12.129   8.265   3.714 -0.1060  0.9065 -1.1364
45961SOL    HW245124  12.251   8.247   3.801 -1.1057  0.6906  0.2492
45962SOL     OW45125   3.437  11.296   5.437 -0.5337 -0.0605  0.2005
45962SOL    HW145126   3.424  11.207   5.469 -0.5049  0.6981  2.4630
45962SOL    HW245127   3.489  11.339   5.504  0.8074  1.2616 -1.5900
45963SOL     OW45128   0.316   0.071   5.724  0.3984 -0.1248  0.0610
45963SOL    HW145129   0.345   0.129   5.794  1.0771  2.1945 -2.0101
45963SOL    HW245130   0.225   0.094   5.709  0.3380 -0.4122 -0.0358
45964SOL     OW45131  10.306   3.500  10.207 -0.4370  0.1162  0.1476
45964SOL    HW145132  10.364   3.505  10.283 -1.1612 -0.8881  0.7974
45964SOL    HW245133  10.330   3.417  10.165 -2.3967 -1.1041  1.3063
45965SOL     OW45134   8.483   8.649   2.073 -0.1080  0.0478  0.0342
45965SOL    HW145135   8.502   8.718   2.009 -2.2475 -0.0694 -0.8113
45965SOL    HW245136   8.564   8.600   2.081  1.1905  2.0443 -0.0824
45966SOL     OW45137   4.660   7.536   1.787 -0.6332 -0.2397 -0.0740
45966SOL    HW145138   4.680   7.599   1.857  0.3421 -0.0128 -0.5377
45966SOL    HW245139   4.568   7.552   1.766 -1.5310 -1.5543  2.4040
45967SOL     OW45140   8.455  10.697   5.221 -0.5192 -0.6498 -0.2301
45967SOL    HW145141   8.430  10.606   5.204 -1.0813 -0.4990 -0.2301
45967SOL    HW245142   8.483  10.731   5.136 -0.2671 -0.8333 -0.2212
45968SOL     OW45143   8.322   6.040   9.277 -0.6401  0.1003 -0.0567
45968SOL    HW145144   8.300   5.956   9.237  2.8138 -1.1601  0.2977
45968SOL    HW245145   8.406   6.064   9.236  0.5187  1.2633  2.7563
45969SOL     OW45146  12.024   3.275   4.534  0.3496 -0.2998  0.1230
45969SOL    HW145147  12.092   3.258   4.468  2.3128  0.1783  1.9347
45969SOL    HW245148  11.943   3.285   4.482  1.8686  0.5846 -2.2547
45970SOL     OW45149   8.798   3.448   1.419  0.4983  0.4497  0.7736
45970SOL    HW145150   8.795   3.453   1.323  1.0937 -0.2250  0.7093
45970SOL    HW245151   8.745   3.522   1.449 -1.1462 -0.3449 -0.0784
45971SOL     OW45152   8.170  11.917   8.903  0.5423 -0.0300 -0.6048
45971SOL    HW145153   8.161  11.822   8.894  2.3512 -0.2510 -0.4282
45971SOL    HW245154   8.083  11.947   8.929 -0.6411 -1.3459 -2.8230
45972SOL     OW45155   6.105   0.119   0.343  0.5965  0.1599 -0.3188
45972SOL    HW145156   6.073   0.038   0.383 -1.2374  0.2968 -1.4428
45972SOL    HW245157   6.157   0.160   0.413  1.2408 -1.7522  0.4025
45973SOL     OW45158   4.244   5.506   7.624  0.6438  0.1996  0.3410
45973SOL    HW145159   4.328   5.473   7.655 -0.0896 -1.7154  0.4652
45973SOL    HW245160   4.182   5.434   7.641 -0.8620  1.2463 -0.4397
45974SOL     OW45161   4.864   1.436   4.172  0.3212 -0.4171 -0.3661
45974SOL    HW145162   4.930   1.367   4.165  0.5139 -0.3665  0.7807
45974SOL    HW245163   4.780   1.390   4.168  0.4453 -0.6638 -0.1470
45975SOL     OW45164   5.557   5.258   7.412  0.1211 -0.7324 -0.2508
45975SOL    HW145165   5.466   5.230   7.425 -0.3718 -1.2429 -3.8427
45975SOL    HW245166   5.609   5.179   7.426 -0.0752 -0.7434  0.4942
45976SOL     OW45167  10.811   0.396  10.290 -1.2743 -0.0786  0.1759
45976SOL    HW145168  10.860   0.434  10.363 -1.7967 -0.2738  0.6384
45976SOL    HW245169  10.742   0.460  10.272  0.1299  1.0477 -1.6240
45977SOL     OW45170   9.534   3.255   4.738  0.5353  0.6811 -0.2296
45977SOL    HW145171   9.543   3.167   4.700  0.9298 -0.9348  3.2107
45977SOL    HW245172   9.443   3.257   4.770  1.0944  0.6533  1.4706
45978SOL     OW45173  10.498   7.719  10.561 -0.1377  0.0658 -0.3995
45978SOL    HW145174  10.507   7.781  10.633 -1.9057  1.2014 -1.0818
45978SOL    HW245175  10.577   7.666  10.565  0.5996  1.2017  1.3161
45979SOL     OW45176   5.264   6.093   3.709  0.3375  0.2801  0.4905
45979SOL    HW145177   5.346   6.139   3.724  1.1525 -1.5132  1.7840
45979SOL    HW245178   5.290   6.012   3.665 -0.6162 -0.7274  1.7307
45980SOL     OW45179   6.781  11.659   7.615  0.1546  0.3512  0.1086
45980SOL    HW145180   6.696  11.697   7.594  0.3075  0.6354 -0.0025
45980SOL    HW245181   6.771  11.566   7.594 -0.0984  0.4005  0.0060
45981SOL     OW45182   7.175   1.447   1.240 -0.2769 -0.1572 -0.3576
45981SOL    HW145183   7.203   1.364   1.202  1.0854 -0.2750  0.7843
45981SOL    HW245184   7.142   1.423   1.327  1.1032  0.5821  0.3977
45982SOL     OW45185   0.795   5.288   3.260  0.2776 -0.4747 -0.2949
45982SOL    HW145186   0.722   5.348   3.275 -1.7774 -2.9274  0.3132
45982SOL    HW245187   0.800   5.278   3.165 -0.2274 -0.3358 -0.3354
45983SOL     OW45188   0.131   0.739   4.234  0.1599  0.0808 -0.2113
45983SOL    HW145189   0.071   0.814   4.237 -0.3215 -0.2995  2.3478
45983SOL    HW245190   0.216   0.777   4.211 -0.2726  1.2602  0.0712
45984SOL     OW45191   7.682   0.144  10.845  0.0671 -0.4654  0.5584
45984SOL    HW145192   7.628   0.154  10.766 -0.0566 -0.5480  0.6342
45984SOL    HW245193   7.657   0.218  10.900  0.6156 -0.0389  0.2480
45985SOL     OW45194   3.953   1.594   9.713 -0.0093 -0.0927 -0.0962
45985SOL    HW145195   3.887   1.631   9.655 -0.9431 -0.6258  0.5811
45985SOL    HW245196   3.902   1.552   9.783  1.0480  1.5915  1.8141
45986SOL     OW45197   9.643  11.668   1.829 -0.5183 -0.4615  0.0377
45986SOL    HW145198   9.659  11.760   1.847 -1.1745 -0.2347 -0.4994
45986SOL    HW245199   9.646  11.662   1.733 -0.4206 -1.0102  0.0723
45987SOL     OW45200   2.681  10.972   1.244  0.0038  0.1284 -0.0196
45987SOL    HW145201   2.611  10.966   1.309  0.3724 -1.7207  0.2476
45987SOL    HW245202   2.644  10.932   1.165  1.1770 -2.3416  0.5621
45988SOL     OW45203   4.488   4.318   2.144 -0.0003 -0.0931  0.6722
45988SOL    HW145204   4.559   4.343   2.085  0.0251 -0.6349  0.4699
45988SOL    HW245205   4.532   4.278   2.219 -0.1067 -0.7663  0.3793
45989SOL     OW45206   2.990  11.384  10.649  0.7988  0.1370 -0.4450
45989SOL    HW145207   3.084  11.388  10.629  1.3815 -0.9304  1.7851
45989SOL    HW245208   2.965  11.475  10.664  1.3457  0.4786 -1.5026
45990SOL     OW45209   8.013   8.820   3.946  0.3035 -0.3201  0.0499
45990SOL    HW145210   8.103   8.790   3.961  1.2399  0.8424 -2.5586
45990SOL    HW245211   8.004   8.820   3.851 -2.6564 -0.7922  0.2474
45991SOL     OW45212   7.037   1.648   6.263  0.0322 -0.5645  0.2171
45991SOL    HW145213   7.018   1.599   6.183  0.5335  0.1153 -0.3336
45991SOL    HW245214   6.953   1.656   6.308 -1.2941  2.9585 -2.4664
45992SOL     OW45215  11.904   0.740  11.368 -0.4622  0.0849  0.4053
45992SOL    HW145216  11.822   0.786  11.386 -0.6846  0.2605 -0.9151
45992SOL    HW245217  11.884   0.687  11.290  1.1406  1.4452 -0.9986
45993SOL     OW45218   0.674   5.379  11.602 -0.0994  0.1494 -0.0389
45993SOL    HW145219   0.641   5.293  11.627  0.3328 -0.1124 -0.3553
45993SOL    HW245220   0.693   5.423  11.685 -0.0798 -0.1581  0.1195
45994SOL     OW45221  11.829   1.643   2.424  0.4265  0.3597  0.0899
45994SOL    HW145222  11.839   1.653   2.329 -0.8061  0.4807 -0.0376
45994SOL    HW245223  11.891   1.574   2.447  1.2651  0.8282 -0.6808
45995SOL     OW45224   9.752   5.871  10.560 -0.2905  0.3432 -0.4647
45995SOL    HW145225   9.690   5.884  10.489  0.2555 -0.7385 -1.1594
45995SOL    HW245226   9.720   5.794  10.606 -0.5352  0.9233  0.3674
45996SOL     OW45227   7.091   4.978   0.945  0.3973  0.3144  0.6309
45996SOL    HW145228   7.110   5.064   0.982 -1.0760  0.0852  1.9783
45996SOL    HW245229   7.049   4.929   1.015  1.1327 -1.5184 -0.1181
45997SOL     OW45230  12.107   1.083   7.874 -0.1193 -0.2418  0.3881
45997SOL    HW145231  12.196   1.116   7.890  0.5986 -1.1213 -1.4561
45997SOL    HW245232  12.105   0.998   7.918 -0.9649  0.8403  2.5946
45998SOL     OW45233  12.254   3.717   2.600 -0.5407  0.7048 -0.4105
45998SOL    HW145234  12.238   3.626   2.576  0.4965 -0.0112  1.4312
45998SOL    HW245235  12.182   3.766   2.559 -1.7278 -1.0801 -0.5381
45999SOL     OW45236   1.420   1.727   6.723 -0.1952 -0.4547  0.0972
45999SOL    HW145237   1.510   1.760   6.718 -0.5144  0.2401 -1.5433
45999SOL    HW245238   1.381   1.749   6.638 -2.0539 -0.3813  0.9230
46000SOL     OW45239   3.550   6.961   4.479  0.1673 -0.1379 -0.3650
46000SOL    HW145240   3.576   6.920   4.397  0.1551  1.8364 -1.3961
46000SOL    HW245241   3.585   7.050   4.475 -1.2375  0.5382  1.0387
46001SOL     OW45242   7.850   1.050   7.739  0.0495 -0.2680 -0.0898
46001SOL    HW145243   7.834   1.099   7.659 -0.6809 -0.7844 -0.2697
46001SOL    HW245244   7.827   1.112   7.809  1.0583  0.3124 -0.2532
46002SOL     OW45245   8.943   9.633   4.672  0.2490 -0.0457 -0.4728
46002SOL    HW145246   8.954   9.603   4.582  1.4656 -0.6174 -0.1560
46002SOL    HW245247   8.948   9.554   4.725  0.4293  0.3833  0.1657
46003SOL     OW45248   9.641   9.298  11.128  0.2695 -0.3111  0.2193
46003SOL    HW145249   9.597   9.213  11.132  0.0782 -0.3391 -1.6938
46003SOL    HW245250   9.657   9.312  11.035  0.5095  1.6487  0.5232
46004SOL     OW45251  11.049  10.448   1.011 -0.4338 -0.3233 -0.5024
46004SOL    HW145252  11.090  10.492   1.085 -3.5894  2.5106 -0.1945
46004SOL    HW245253  11.059  10.355   1.029 -0.4841  0.2455  3.1262
46005SOL     OW45254   1.534   1.071   6.177 -0.4094 -0.0217 -0.1913
46005SOL    HW145255   1.606   1.067   6.240  0.4753 -2.3136 -1.2079
46005SOL    HW245256   1.460   1.029   6.222 -0.7037  1.0507  0.3494
46006SOL     OW45257   7.100   5.366   1.291  0.1394  0.0424  0.0145
46006SOL    HW145258   7.149   5.442   1.258 -0.2823 -0.0689 -0.9153
46006SOL    HW245259   7.038   5.403   1.353 -0.1997  0.5028 -0.5796
46007SOL     OW45260   6.604   1.140   8.971  0.6308 -0.0982 -0.1559
46007SOL    HW145261   6.569   1.226   8.947 -0.6886 -0.7868 -0.8374
46007SOL    HW245262   6.548   1.110   9.042  1.5200 -0.1113  0.5480
46008SOL     OW45263   8.222   1.136   4.672  0.0849 -0.3655 -0.1281
46008SOL    HW145264   8.174   1.218   4.683  1.9969  0.5443  2.4035
46008SOL    HW245265   8.300   1.160   4.623  0.8431 -0.5180  0.9522
46009SOL     OW45266   6.034  12.481   3.838 -0.0207  0.6606 -0.0148
46009SOL    HW145267   6.049  12.523   3.923  0.2959 -1.8685  1.2827
46009SOL    HW245268   6.121  12.478   3.798  0.2831 -0.2395  0.6654
46010SOL     OW45269   3.168  10.549   9.910  0.3778 -0.0148  0.1330
46010SOL    HW145270   3.174  10.496   9.830 -0.4031  1.2940 -0.8348
46010SOL    HW245271   3.075  10.556   9.927  0.4928  0.7095  0.4789
46011SOL     OW45272   2.366  11.039   8.206  0.3974 -0.1941 -0.3160
46011SOL    HW145273   2.375  11.028   8.111  0.2772  0.4099 -0.4066
46011SOL    HW245274   2.382  10.953   8.242  0.4034 -0.4406 -0.8938
46012SOL     OW45275   3.033   2.070   8.374 -0.2744 -0.3232  0.3722
46012SOL    HW145276   2.977   2.089   8.299  0.1030 -1.7551 -0.2928
46012SOL    HW245277   3.119   2.106   8.350 -0.4399  0.2570  0.6274
46013SOL     OW45278   5.568   3.504   3.631 -0.0264 -0.2079  0.2703
46013SOL    HW145279   5.582   3.466   3.545 -4.0959 -2.4632  0.3501
46013SOL    HW245280   5.594   3.436   3.693  1.5740  0.8782  0.8526
46014SOL     OW45281   4.573  10.496   8.488 -0.1776  0.5990  1.1067
46014SOL    HW145282   4.523  10.438   8.546  2.3151 -2.7395  0.2293
46014SOL    HW245283   4.658  10.505   8.532  1.1218 -0.4940 -0.9789
46015SOL     OW45284  11.363   4.026   5.817 -0.1596  0.0629 -0.6347
46015SOL    HW145285  11.435   3.982   5.772 -0.0594 -0.4446  0.0015
46015SOL    HW245286  11.318   3.956   5.864  0.0785  0.6390  0.5010
46016SOL     OW45287   2.067   5.394   7.523 -0.4874 -0.2580 -0.0878
46016SOL    HW145288   2.029   5.335   7.587  3.3556 -1.4646  1.3885
46016SOL    HW245289   2.081   5.340   7.446 -0.6788 -0.1329 -0.2118
46017SOL     OW45290   1.591  11.245   4.051  0.1793  0.0845  0.1787
46017SOL    HW145291   1.682  11.213   4.052  0.2094  0.1655  1.3636
46017SOL    HW245292   1.541  11.174   4.091  0.0336  0.8928  1.4736
46018SOL     OW45293   0.362   5.730   5.811  0.6842 -0.4290  0.4304
46018SOL    HW145294   0.348   5.695   5.899 -1.8333 -1.7470 -0.4060
46018SOL    HW245295   0.419   5.666   5.768  0.8954 -0.4337  0.7183
46019SOL     OW45296   0.141   3.443   0.149 -0.0035  0.7178  0.1382
46019SOL    HW145297   0.148   3.416   0.057  1.4131  1.2807  0.0583
46019SOL    HW245298   0.118   3.536   0.145  0.5913  0.8762  0.3355
46020SOL     OW45299   4.638   1.164  11.331 -0.4188 -0.5399  0.4002
46020SOL    HW145300   4.710   1.106  11.358 -1.4618 -1.9952  0.1479
46020SOL    HW245301   4.560   1.109  11.333 -1.1727  0.3414 -1.7218
46021SOL     OW45302  11.805   7.834   7.516  0.1426 -0.1902 -0.4690
46021SOL    HW145303  11.863   7.855   7.444  0.2690  0.2750 -0.2379
46021SOL    HW245304  11.794   7.739   7.512 -1.0705 -0.0187 -2.0268
46022SOL     OW45305   2.488   3.290   9.139  0.1636  0.4973 -0.0337
46022SOL    HW145306   2.560   3.328   9.189  0.1986  0.3377  0.0369
46022SOL    HW245307   2.463   3.359   9.078  1.0240  0.2116 -0.7291
46023SOL     OW45308   8.622  11.334   1.563  0.2192 -0.2850 -0.6548
46023SOL    HW145309   8.695  11.298   1.614 -0.3951  1.1955  1.3990
46023SOL    HW245310   8.664  11.378   1.489  1.2763 -0.9453 -0.4691
46024SOL     OW45311   9.333   9.538   4.428 -0.3655  0.6578  0.2323
46024SOL    HW145312   9.370   9.581   4.352 -2.2830  2.6905  0.3576
46024SOL    HW245313   9.408   9.501   4.474  1.1516  2.0454 -1.0382
46025SOL     OW45314   5.066  12.054  12.624 -0.5579 -0.1411 -0.1812
46025SOL    HW145315   5.069  11.959  12.622 -0.7666 -0.1462 -0.2432
46025SOL    HW245316   5.084  12.080  12.533  0.5649 -0.0894  0.0337
46026SOL     OW45317   2.392   2.502   4.795  0.2092 -0.0033  0.0846
46026SOL    HW145318   2.421   2.420   4.755  0.8998  0.5593 -0.5964
46026SOL    HW245319   2.346   2.475   4.874 -0.1309 -1.0764 -0.4659
46027SOL     OW45320   6.679   9.392   4.232 -0.2303 -0.2290  0.2569
46027SOL    HW145321   6.706   9.442   4.155 -2.6072 -0.0076 -0.5037
46027SOL    HW245322   6.696   9.451   4.306  1.3594 -0.1550 -0.1158
46028SOL     OW45323  10.236   7.779  10.637  0.1811 -0.4953  0.3043
46028SOL    HW145324  10.328   7.754  10.626  0.4769  0.9459 -0.7881
46028SOL    HW245325  10.221   7.846  10.571 -1.3878  0.0324  1.1384
46029SOL     OW45326   4.385   4.849   8.508  0.0756 -0.1101  0.1087
46029SOL    HW145327   4.328   4.797   8.451 -0.2081  0.9109 -0.5787
46029SOL    HW245328   4.474   4.824   8.484 -0.0494  0.1397 -0.6255
46030SOL     OW45329  11.456   2.837   5.784  0.4040  0.0160  0.4603
46030SOL    HW145330  11.414   2.882   5.857  1.4323  0.6809  0.6621
46030SOL    HW245331  11.442   2.744   5.803 -0.6820  0.2060  0.6780
46031SOL     OW45332   7.958   1.790   1.885 -0.3829 -0.2263 -0.1347
46031SOL    HW145333   7.891   1.724   1.866  0.2945 -3.1572  5.6524
46031SOL    HW245334   7.926   1.835   1.963  1.7382  2.7167 -0.7867
46032SOL     OW45335   3.997  11.967   1.219  0.1198 -0.2157 -0.3286
46032SOL    HW145336   4.010  12.032   1.150  0.3877  1.1152  0.9250
46032SOL    HW245337   4.075  11.975   1.275  0.8645 -2.6307 -0.8938
46033SOL     OW45338   2.277   5.081   3.031  0.0462  0.0325 -0.2666
46033SOL    HW145339   2.373   5.075   3.026 -0.0801 -3.8465 -0.8643
46033SOL    HW245340   2.252   5.129   2.953  1.4552  0.8553 -0.2586
46034SOL     OW45341  12.572   7.347   3.355  0.2512  0.1210 -0.0162
46034SOL    HW145342  12.662   7.327   3.330 -0.3882 -1.8784 -0.8934
46034SOL    HW245343  12.519   7.311   3.284 -1.3657 -0.8238  1.6070
46035SOL     OW45344   6.777   7.828   7.330 -0.0239 -0.3810 -0.4738
46035SOL    HW145345   6.688   7.857   7.350  0.6072  0.1062  1.9648
46035SOL    HW245346   6.768   7.777   7.250 -2.5753 -0.7480 -0.0513
46036SOL     OW45347   8.047   1.979   5.082  0.0968 -0.6704 -0.9157
46036SOL    HW145348   8.122   2.021   5.125 -1.2261 -0.9200  1.8769
46036SOL    HW245349   8.075   1.889   5.067  0.4297 -0.7260 -0.0240
46037SOL     OW45350  12.396   5.530   8.516 -0.4939  0.2718 -0.1518
46037SOL    HW145351  12.393   5.461   8.583 -0.9512  1.6253  1.2898
46037SOL    HW245352  12.467   5.588   8.545  1.2621 -0.5777 -2.4184
46038SOL     OW45353   1.414   7.183  10.635 -0.2082  0.4901  0.1793
46038SOL    HW145354   1.433   7.241  10.708 -1.5598  0.8412  0.2764
46038SOL    HW245355   1.319   7.189  10.624 -0.5763 -2.4747  0.8767
46039SOL     OW45356   9.012   7.913   7.271 -0.2715 -0.0702 -0.0166
46039SOL    HW145357   9.030   7.855   7.345  1.6214  1.1229  0.5114
46039SOL    HW245358   8.977   7.993   7.311 -1.5040 -0.2640 -0.6349
46040SOL     OW45359   1.301  11.310   8.048  0.0057  0.8157  0.2661
46040SOL    HW145360   1.324  11.357   8.128 -0.0738  2.0422 -0.4066
46040SOL    HW245361   1.247  11.236   8.078  2.0516 -0.2498  1.5630
46041SOL     OW45362   0.456  11.546   9.420  0.1762 -0.6381  0.4392
46041SOL    HW145363   0.521  11.609   9.452  1.7741 -0.5357 -2.6246
46041SOL    HW245364   0.493  11.460   9.443  1.0027 -0.5541 -0.4983
46042SOL     OW45365   3.010  10.823   5.410 -0.8571  0.2174  0.1234
46042SOL    HW145366   3.095  10.795   5.377 -0.6355 -0.0678  0.9158
46042SOL    HW245367   3.003  10.782   5.496 -1.9153  0.0098 -0.0422
46043SOL     OW45368   1.953   9.097   8.252 -0.6524  0.2110  0.1737
46043SOL    HW145369   1.961   9.166   8.186  0.4087 -0.7732 -0.7682
46043SOL    HW245370   1.982   9.138   8.333 -0.0763  0.8962 -0.3655
46044SOL     OW45371   1.626   5.273  12.360  1.2101 -0.0647 -0.5004
46044SOL    HW145372   1.584   5.223  12.291 -0.2513 -0.7732  0.8316
46044SOL    HW245373   1.609   5.223  12.440  1.1176  1.7118  0.6631
46045SOL     OW45374   7.733   8.860   9.080 -0.1750 -0.5074 -0.2469
46045SOL    HW145375   7.736   8.782   9.135 -0.9456 -0.8386 -0.6629
46045SOL    HW245376   7.823   8.893   9.081  0.1199 -1.2969  0.0816
46046SOL     OW45377   8.122   0.602   1.476  0.4652 -0.2942  0.1096
46046SOL    HW145378   8.212   0.588   1.447 -0.1493  0.6625 -2.5178
46046SOL    HW245379   8.116   0.695   1.496 -0.0958 -0.2212 -0.3610
46047SOL     OW45380   2.203   6.623   3.926  0.6514 -0.4720 -0.0709
46047SOL    HW145381   2.125   6.607   3.979  0.7286 -2.1689 -0.4355
46047SOL    HW245382   2.275   6.622   3.988  0.5216 -0.1196  0.0928
46048SOL     OW45383  10.676   6.014   2.780  0.4430 -0.5658 -0.3356
46048SOL    HW145384  10.659   5.939   2.837  1.4026 -0.3527  0.2422
46048SOL    HW245385  10.686   5.975   2.692  0.4493 -1.0597 -0.1200
46049SOL     OW45386   1.698  11.717   1.567 -0.1735  0.0956  0.2455
46049SOL    HW145387   1.621  11.718   1.623  0.6414  0.6842  1.3920
46049SOL    HW245388   1.725  11.809   1.561  1.2858 -0.2337  1.1098
46050SOL     OW45389   0.621  11.984   5.834  0.3281  0.4285 -0.2193
46050SOL    HW145390   0.596  11.893   5.820 -1.2119  0.6518  0.8212
46050SOL    HW245391   0.681  11.982   5.909  2.2416  0.0641 -1.6863
46051SOL     OW45392  11.394   0.508   3.288  0.2311  0.1320 -0.0757
46051SOL    HW145393  11.312   0.523   3.335  0.7308 -2.4673  1.8320
46051SOL    HW245394  11.368   0.504   3.196 -1.7634 -0.3879  0.4599
46052SOL     OW45395   1.433  11.304   7.524 -0.2176  0.3623  0.0338
46052SOL    HW145396   1.432  11.245   7.599 -0.5920  0.7925  0.3731
46052SOL    HW245397   1.517  11.350   7.530 -1.3954  2.4487  1.8364
46053SOL     OW45398  11.633   7.421   4.171  0.0785 -0.2442 -0.4955
46053SOL    HW145399  11.611   7.382   4.086  0.8840 -2.2875  0.1613
46053SOL    HW245400  11.635   7.346   4.231  1.8978  0.8151  0.8382
46054SOL     OW45401   5.813   6.902   7.488 -0.1114  0.0987 -0.4887
46054SOL    HW145402   5.902   6.874   7.509  0.0199  0.6466 -0.3023
46054SOL    HW245403   5.767   6.821   7.467  0.3361 -0.2260 -0.2387
46055SOL     OW45404  10.787   6.038   6.975 -0.0446 -0.0609  0.7667
46055SOL    HW145405  10.880   6.051   6.995  0.2823  1.4880 -1.2977
46055SOL    HW245406  10.741   6.091   7.040  0.6691  1.0026  0.4346
46056SOL     OW45407  10.629   3.574   0.965  0.0660 -0.1943  0.4240
46056SOL    HW145408  10.676   3.537   0.891  0.2709 -0.8031  0.8489
46056SOL    HW245409  10.590   3.655   0.931 -1.3698 -1.3586 -0.8555
46057SOL     OW45410   1.897   5.032   8.176  0.0119  0.4179 -0.5157
46057SOL    HW145411   1.889   5.063   8.266  0.1325  1.6840 -0.9184
46057SOL    HW245412   1.811   5.049   8.137 -0.0830 -0.2494 -0.6103
46058SOL     OW45413   0.451   8.847   9.941  0.1737  0.6640 -0.4192
46058SOL    HW145414   0.429   8.870   9.850 -1.1782  0.3967 -0.1774
46058SOL    HW245415   0.495   8.925   9.975  1.3006  0.5262 -1.4886
46059SOL     OW45416   0.214  12.281   4.581  0.3272 -0.0105  0.0193
46059SOL    HW145417   0.197  12.374   4.591  0.0595 -0.1465  0.8576
46059SOL    HW245418   0.161  12.239   4.648 -1.0851 -0.9355 -1.5885
46060SOL     OW45419   5.257   5.717   1.799  0.6542  0.3163 -0.6069
46060SOL    HW145420   5.260   5.631   1.841  2.9413  0.1961 -0.9128
46060SOL    HW245421   5.176   5.715   1.748 -0.2504 -0.9583  0.7706
46061SOL     OW45422  10.400   2.381   3.191  0.2326  0.0328 -0.3887
46061SOL    HW145423  10.355   2.322   3.131  0.6713  1.4039 -2.1497
46061SOL    HW245424  10.340   2.455   3.203  0.6501  0.3375 -0.1289
46062SOL     OW45425   6.132   6.543   7.955 -0.2946 -0.0681 -0.1265
46062SOL    HW145426   6.134   6.451   7.927  0.4388  0.4683 -1.9798
46062SOL    HW245427   6.094   6.590   7.881 -0.3249  1.1930  0.6554
46063SOL     OW45428   0.807  11.289   6.590 -0.3910  0.1182 -0.1030
46063SOL    HW145429   0.888  11.244   6.616  0.3318  0.9170 -0.8983
46063SOL    HW245430   0.750  11.220   6.558  0.1638 -0.3991  0.0106
46064SOL     OW45431   5.101  12.518   5.656  0.2595  0.2085 -0.2847
46064SOL    HW145432   5.097  12.483   5.745  1.2426 -0.2631 -0.4143
46064SOL    HW245433   5.085  12.442   5.600 -2.2714  0.8223 -0.5214
46065SOL     OW45434   6.540   4.480   2.875 -0.6337  0.6665  0.0381
46065SOL    HW145435   6.447   4.460   2.885 -0.2356 -1.0495  0.6052
46065SOL    HW245436   6.557   4.471   2.781 -0.8692  0.1723  0.0427
46066SOL     OW45437   0.277   9.690  10.689 -0.2443  0.1366  0.0122
46066SOL    HW145438   0.275   9.599  10.718 -2.8234  0.0871 -0.1616
46066SOL    HW245439   0.299   9.740  10.768 -0.0399 -0.5274  0.3840
46067SOL     OW45440  12.393   9.414   7.098  0.4573 -0.0304 -0.1769
46067SOL    HW145441  12.368   9.460   7.179 -0.6230  0.0057 -0.5177
46067SOL    HW245442  12.472   9.458   7.069 -0.5242  1.6010 -0.4678
46068SOL     OW45443  10.329   7.841   0.211 -0.0324 -0.4165  0.0315
46068SOL    HW145444  10.323   7.919   0.155  0.2482  0.6148  1.3711
46068SOL    HW245445  10.365   7.773   0.154 -1.2485  0.1377 -1.4482
46069SOL     OW45446   8.271   5.725   0.882  0.2949  0.0712  0.0041
46069SOL    HW145447   8.367   5.724   0.891  0.1634  0.3998  1.8666
46069SOL    HW245448   8.256   5.734   0.788  2.0841 -0.5927 -0.3847
46070SOL     OW45449   0.689   2.887  12.667 -0.0494  0.7092  0.1406
46070SOL    HW145450   0.730   2.885  12.754 -0.0460  0.3621  0.1341
46070SOL    HW245451   0.596   2.896  12.685  0.0173  1.4229  0.1582
46071SOL     OW45452   3.101   4.308  10.747  0.2747 -0.3666  0.2107
46071SOL    HW145453   3.184   4.301  10.794 -0.6113 -0.4160  1.8454
46071SOL    HW245454   3.125   4.340  10.660  2.0400 -0.8337  0.4896
46072SOL     OW45455   0.591   9.209   3.735  0.1968  0.0794 -0.3137
46072SOL    HW145456   0.570   9.302   3.745  0.7610  0.3581 -1.4966
46072SOL    HW245457   0.585   9.173   3.824 -0.7834  1.0739  0.0459
46073SOL     OW45458   7.895   0.596   1.601  0.8932 -0.2456  0.0139
46073SOL    HW145459   7.852   0.517   1.569  0.0329  0.2365 -0.0321
46073SOL    HW245460   7.978   0.599   1.552 -0.1407  0.1795 -1.7937
46074SOL     OW45461   7.020   1.062   2.384 -0.4175 -0.0565 -0.4442
46074SOL    HW145462   7.048   1.021   2.466  0.1729 -1.6743 -1.4111
46074SOL    HW245463   6.978   1.143   2.411 -0.1370 -0.4979  1.4527
46075SOL     OW45464   2.722   9.119   7.763 -0.2053  0.2193 -0.0301
46075SOL    HW145465   2.787   9.190   7.758  0.1866 -0.1693 -0.6086
46075SOL    HW245466   2.773   9.039   7.750 -0.8973 -0.0455 -1.2946
46076SOL     OW45467   6.862  12.681   1.412 -0.1305 -0.2814  0.3954
46076SOL    HW145468   6.826  12.601   1.451 -1.4515 -0.5619 -1.3091
46076SOL    HW245469   6.785  12.734   1.389  0.6035  0.1395 -1.2225
46077SOL     OW45470   1.967  11.906   1.422 -0.7365  0.4270 -0.4602
46077SOL    HW145471   1.917  11.831   1.391  0.2973 -0.4197 -0.1380
46077SOL    HW245472   2.009  11.942   1.344  3.2319 -2.7015 -0.1313
46078SOL     OW45473   0.232   9.920   8.124  0.3926 -0.1665  0.1223
46078SOL    HW145474   0.319   9.957   8.110  0.8197 -0.9661  0.5877
46078SOL    HW245475   0.241   9.866   8.202  0.0308 -1.9779 -1.0266
46079SOL     OW45476   8.827   4.501   2.545  0.2741  0.0460  0.1417
46079SOL    HW145477   8.826   4.581   2.597  1.6185 -1.0108  1.8987
46079SOL    HW245478   8.749   4.453   2.575  0.0275  0.2466 -0.1750
46080SOL     OW45479   9.663   4.089   3.215  0.1993 -0.1232 -0.1323
46080SOL    HW145480   9.607   4.124   3.285 -0.3200 -0.2389 -0.4834
46080SOL    HW245481   9.713   4.164   3.184  1.3616 -0.3121  1.2080
46081SOL     OW45482  11.888   0.229   4.980 -0.1904 -0.4939 -0.0407
46081SOL    HW145483  11.830   0.220   4.905 -0.8552  0.5821  0.3231
46081SOL    HW245484  11.836   0.277   5.045  0.8762 -0.0964  0.5411
46082SOL     OW45485   6.027  12.388   5.992 -0.4976  0.8920 -0.0324
46082SOL    HW145486   6.024  12.466   5.938 -0.6685  1.6106  0.9783
46082SOL    HW245487   6.090  12.330   5.949 -0.7828  1.3579 -1.0872
46083SOL     OW45488   0.649  12.480  11.582 -0.1386 -0.1545 -0.0856
46083SOL    HW145489   0.729  12.502  11.629  0.5981 -2.7481  0.0169
46083SOL    HW245490   0.675  12.475  11.490 -0.1614 -0.9976 -0.0542
46084SOL     OW45491  12.376  12.686  11.527 -0.6654 -0.0325 -0.0171
46084SOL    HW145492  12.308  12.661  11.465 -2.0101  0.1402  1.3610
46084SOL    HW245493  12.389  12.609  11.582  0.6963 -0.2685 -0.6218
46085SOL     OW45494   1.297   9.486   1.002  0.1058  0.0338  0.1563
46085SOL    HW145495   1.290   9.431   0.924  1.1153  0.9700 -0.6208
46085SOL    HW245496   1.366   9.445   1.054  1.5557  1.0573 -0.8856
46086SOL     OW45497   5.941   6.263   3.202  0.3833 -0.0447  0.5743
46086SOL    HW145498   5.984   6.348   3.192 -0.9415  0.6731  0.6884
46086SOL    HW245499   5.878   6.260   3.130 -1.9525  0.6059  2.4636
46087SOL     OW45500  11.711  10.472   5.506 -0.3037  0.3724  0.1632
46087SOL    HW145501  11.786  10.439   5.458  0.3014  0.7298  0.8479
46087SOL    HW245502  11.637  10.420   5.474  0.5557 -1.3601  0.9260
46088SOL     OW45503  10.435   8.432   7.781  0.5231 -0.3327 -0.8147
46088SOL    HW145504  10.344   8.446   7.804  0.5087  0.5371 -1.3662
46088SOL    HW245505  10.453   8.342   7.808 -0.2435 -0.2338  0.0837
46089SOL     OW45506   5.319   9.261   6.119  0.5440 -0.2986 -0.2604
46089SOL    HW145507   5.346   9.290   6.206  0.3291  2.0996 -0.9015
46089SOL    HW245508   5.234   9.303   6.106  0.2472 -1.2086 -1.3463
46090SOL     OW45509   5.290   9.466   7.105 -0.0025  0.4293  0.9062
46090SOL    HW145510   5.206   9.430   7.135 -0.4443 -0.4867 -1.2263
46090SOL    HW245511   5.267   9.553   7.071 -0.3794 -0.2886 -0.7880
46091SOL     OW45512  10.569  10.836   7.394  0.0203  0.1565  0.6326
46091SOL    HW145513  10.501  10.894   7.428 -0.0225  1.1021 -0.9653
46091SOL    HW245514  10.628  10.894   7.346 -0.1667 -1.1325 -1.2505
46092SOL     OW45515   3.603   6.895   4.804 -0.1448 -0.1618  0.1032
46092SOL    HW145516   3.579   6.924   4.716  1.2778 -0.4071 -0.3776
46092SOL    HW245517   3.556   6.812   4.816 -0.8719  0.2078 -0.1496
46093SOL     OW45518  12.458   0.160   3.549 -0.2476  0.2372 -0.4167
46093SOL    HW145519  12.460   0.201   3.463 -2.8795 -0.5883 -0.9538
46093SOL    HW245520  12.465   0.066   3.531 -1.1999  0.0303  0.1963
46094SOL     OW45521   0.610   0.530  12.606  0.3960 -0.0161 -0.1275
46094SOL    HW145522   0.703   0.537  12.585 -0.2781  0.6749 -3.4989
46094SOL    HW245523   0.594   0.437  12.615  1.2568 -0.2073 -0.4988
46095SOL     OW45524   9.641   2.098   5.214 -0.5613 -0.5187  0.5290
46095SOL    HW145525   9.590   2.047   5.150 -0.0676  0.7577 -0.9391
46095SOL    HW245526   9.731   2.071   5.199 -0.4428 -0.2383  0.7360
46096SOL     OW45527   6.675  10.222   0.659  0.8427 -0.3297  0.2002
46096SOL    HW145528   6.615  10.291   0.687  2.2675  1.4157 -0.7926
46096SOL    HW245529   6.723  10.261   0.585  0.9760 -2.7840 -1.1098
46097SOL     OW45530   7.413   9.732   9.653 -0.2145  0.2609  0.4251
46097SOL    HW145531   7.414   9.827   9.642  0.7054  0.1857 -0.3143
46097SOL    HW245532   7.503   9.710   9.679 -0.0897 -0.5155 -0.5811
46098SOL     OW45533   3.484   9.682   3.899 -0.0317  0.0990 -0.2421
46098SOL    HW145534   3.546   9.676   3.827 -0.3802  1.9583 -0.7363
46098SOL    HW245535   3.532   9.726   3.969 -0.2006 -0.2420  0.0961
46099SOL     OW45536   6.292   3.779  12.158  0.3354 -0.4539  0.7197
46099SOL    HW145537   6.263   3.689  12.174 -2.7199  0.2717 -0.1080
46099SOL    HW245538   6.236   3.833  12.214 -0.2303  1.0888 -1.2071
46100SOL     OW45539   0.959   0.379   4.863 -0.3223  0.3154 -0.1238
46100SOL    HW145540   0.920   0.322   4.797  0.8756  1.7386 -2.1817
46100SOL    HW245541   0.901   0.455   4.867  0.7200  1.2062 -1.1909
46101SOL     OW45542   8.241  10.517  12.051  0.0353 -0.0165 -0.3516
46101SOL    HW145543   8.279  10.481  12.130 -1.4118 -1.2772 -0.1873
46101SOL    HW245544   8.265  10.455  11.982 -0.2350  0.1208 -0.5713
46102SOL     OW45545  12.207  11.548   0.415  0.1344  0.3611 -0.1722
46102SOL    HW145546  12.248  11.550   0.502 -1.4452 -1.5749  0.6920
46102SOL    HW245547  12.269  11.498   0.361 -0.8125 -2.4295  1.0940
46103SOL     OW45548   6.671   3.301   9.896  0.5103  0.5230 -0.5817
46103SOL    HW145549   6.712   3.256   9.969  0.0745 -0.3778 -0.8806
46103SOL    HW245550   6.635   3.231   9.841  0.9272  1.1601 -1.7169
46104SOL     OW45551   0.449   3.233   2.557 -0.4117 -0.4428 -0.2108
46104SOL    HW145552   0.511   3.292   2.513  1.4961 -2.1104  0.0992
46104SOL    HW245553   0.447   3.263   2.647  2.0999 -1.9343  0.4267
46105SOL     OW45554   3.789   8.949  12.374  0.5755  0.0837  0.5881
46105SOL    HW145555   3.822   8.918  12.289  1.0027  2.1727 -0.0537
46105SOL    HW245556   3.865   8.943  12.432  0.9300  0.8243  0.2150
46106SOL     OW45557   0.659  10.309   8.899 -0.1297  0.3660  0.4025
46106SOL    HW145558   0.600  10.234   8.902 -0.7430  0.6654 -2.0150
46106SOL    HW245559   0.603  10.385   8.908  0.3523  0.5998  1.6472
46107SOL     OW45560  11.662   2.492  12.629 -0.0334 -0.0054  0.4480
46107SOL    HW145561  11.625   2.443  12.554  2.1679 -1.5099  0.2530
46107SOL    HW245562  11.683   2.424  12.693  0.5503  0.9997  1.3386
46108SOL     OW45563   1.668  10.528   9.146 -0.2618  0.5365 -0.3451
46108SOL    HW145564   1.649  10.594   9.212 -0.2500  0.3609 -0.1654
46108SOL    HW245565   1.674  10.446   9.195  1.3707  0.6308 -0.3274
46109SOL     OW45566   1.296   5.876   3.973  0.8426  0.2916  1.1389
46109SOL    HW145567   1.345   5.922   3.905 -1.8046  1.6428 -0.0327
46109SOL    HW245568   1.223   5.835   3.926  0.5557 -1.2725  2.8109
46110SOL     OW45569   5.079   4.020   2.034 -0.1191  0.3197 -0.3249
46110SOL    HW145570   4.994   4.013   1.992 -0.6425  2.9360  0.1441
46110SOL    HW245571   5.142   4.006   1.963 -0.9390 -0.0671 -0.9920
46111SOL     OW45572   5.901   3.987   6.919  0.0664  0.5855 -0.4252
46111SOL    HW145573   5.957   3.917   6.953  0.7085  0.3567 -1.8716
46111SOL    HW245574   5.904   3.976   6.824 -1.1408  1.5851 -0.6032
46112SOL     OW45575  12.612  10.911   7.981  1.1013 -0.0695 -0.5123
46112SOL    HW145576  12.647  10.966   7.911  0.2346  1.8575  0.4737
46112SOL    HW245577  12.518  10.906   7.963  0.9356  0.0930  0.2634
46113SOL     OW45578   1.699  10.988  11.915  0.7429 -0.2944  0.2523
46113SOL    HW145579   1.728  10.990  11.823 -2.1146  0.3307 -0.7120
46113SOL    HW245580   1.683  10.895  11.932  0.3541 -0.3107 -0.1905
46114SOL     OW45581   3.079  10.532   9.255  0.4510 -0.0771  0.0349
46114SOL    HW145582   3.043  10.600   9.198  0.4530 -0.3054 -0.2409
46114SOL    HW245583   3.097  10.577   9.337  2.3150  0.7332 -0.7552
46115SOL     OW45584   9.638   0.086   3.479 -0.2801  0.3460  0.1414
46115SOL    HW145585   9.677   0.169   3.450  0.3858  0.2288  0.6751
46115SOL    HW245586   9.674   0.072   3.566  0.1825 -0.8725 -0.2208
46116SOL     OW45587  10.270  10.732   0.224  0.1303 -0.0755 -0.5970
46116SOL    HW145588  10.336  10.801   0.220 -0.5716  0.6403  0.0355
46116SOL    HW245589  10.193  10.769   0.180 -0.6073 -0.0257  0.6715
46117SOL     OW45590   0.826   4.758   9.970  0.4722  0.2099  0.0136
46117SOL    HW145591   0.857   4.848   9.977 -0.2465  0.5889 -1.3692
46117SOL    HW245592   0.787   4.752   9.882 -0.6471 -1.0802  0.5526
46118SOL     OW45593   3.546   9.870   4.238  0.0496 -0.2234  0.3766
46118SOL    HW145594   3.621   9.863   4.296  1.1798  0.1224 -0.9898
46118SOL    HW245595   3.558   9.953   4.191 -0.2258 -0.9842 -1.1234
46119SOL     OW45596  10.561  12.435   3.050  0.5426 -0.3793 -0.2388
46119SOL    HW145597  10.562  12.447   2.955 -0.4065 -0.6299 -0.2883
46119SOL    HW245598  10.474  12.465   3.077  0.7692 -0.3976  0.5448
46120SOL     OW45599   9.019  12.656   0.808  0.0214 -0.2352 -0.5528
46120SOL    HW145600   9.113  12.642   0.813  0.1082  0.5999  0.4494
46120SOL    HW245601   8.997  12.701   0.889 -1.2893 -0.6542 -0.6484
46121SOL     OW45602  10.110  11.021   0.920 -0.1903  0.6589 -0.5882
46121SOL    HW145603  10.187  11.077   0.910  0.1070  0.4064  0.2468
46121SOL    HW245604  10.115  10.960   0.847  1.1568 -0.2300  0.2159
46122SOL     OW45605   7.506   6.978   4.898  0.1002  0.1704 -0.7164
46122SOL    HW145606   7.590   6.977   4.944  0.6146  0.0017 -1.6436
46122SOL    HW245607   7.529   6.988   4.806 -0.9639  1.6095 -0.8626
46123SOL     OW45608   3.874   0.866   2.336  0.5385 -0.1814  0.0978
46123SOL    HW145609   3.810   0.817   2.388 -2.0962  1.8837 -0.9715
46123SOL    HW245610   3.951   0.810   2.335 -0.3116 -1.7159  3.5698
46124SOL     OW45611  11.383   1.896   5.409 -0.1989  0.7175 -0.2718
46124SOL    HW145612  11.428   1.961   5.462  0.6011  0.9449 -1.2182
46124SOL    HW245613  11.447   1.868   5.345  1.4171 -4.8428  3.0872
46125SOL     OW45614   5.218   0.739   4.169  0.6862 -0.2620  0.1925
46125SOL    HW145615   5.178   0.658   4.198  1.1196 -1.3270 -2.0125
46125SOL    HW245616   5.303   0.713   4.132  0.5441  1.0724 -1.1962
46126SOL     OW45617   5.548   7.869  10.848  0.0199 -0.4549 -0.2912
46126SOL    HW145618   5.520   7.788  10.892 -0.3523  0.3800  1.0390
46126SOL    HW245619   5.515   7.859  10.758  2.2001 -2.9274 -0.9605
46127SOL     OW45620   8.004  11.261  10.071  0.3825 -0.4874 -0.3313
46127SOL    HW145621   8.093  11.230  10.084  0.6382  0.2124 -0.3374
46127SOL    HW245622   7.990  11.324  10.142 -0.5705 -1.5474  0.4415
46128SOL     OW45623  12.209   1.969   0.729  0.1614 -0.0282  0.0044
46128SOL    HW145624  12.269   1.968   0.803  1.4852 -2.9418 -0.9381
46128SOL    HW245625  12.122   1.957   0.767  0.9257 -2.6330  1.1285
46129SOL     OW45626  12.685   2.664   8.238 -0.3279 -0.2465  0.1302
46129SOL    HW145627  12.781   2.656   8.230 -0.1557  1.3525  0.3763
46129SOL    HW245628  12.671   2.694   8.327 -1.0111  0.2088 -0.1260
46130SOL     OW45629   6.382   3.138  10.741  0.0639 -0.0430  0.0392
46130SOL    HW145630   6.355   3.189  10.817  4.2789  0.3937  1.5001
46130SOL    HW245631   6.384   3.047  10.772 -0.7102 -0.2199 -0.4029
46131SOL     OW45632   3.213   9.156  11.538 -0.2998  0.6099 -0.2137
46131SOL    HW145633   3.237   9.078  11.589  2.1517  0.1389 -1.8958
46131SOL    HW245634   3.126   9.179  11.569  0.0682 -1.0706  2.4147
46132SOL     OW45635   6.512   8.000   7.665 -0.2957 -0.1263 -0.0299
46132SOL    HW145636   6.493   7.934   7.598  0.4091  1.3838 -1.8285
46132SOL    HW245637   6.547   7.951   7.739 -3.6182 -2.1666  0.3677
46133SOL     OW45638   2.195   4.691   9.314 -0.3285 -0.2653 -0.1568
46133SOL    HW145639   2.215   4.751   9.242 -1.2311  0.6775  0.3423
46133SOL    HW245640   2.223   4.738   9.393 -0.3003 -0.8467  0.1837
46134SOL     OW45641   8.062   0.087   1.221  0.2857 -0.4317  0.2825
46134SOL    HW145642   8.073   0.164   1.276 -1.9708  0.5917 -0.5603
46134SOL    HW245643   8.008   0.028   1.274 -2.7807  0.9776 -1.0039
46135SOL     OW45644  12.218   3.467  11.889 -0.6195  0.4477 -0.1822
46135SOL    HW145645  12.203   3.519  11.810 -1.4035  0.6557  0.0980
46135SOL    HW245646  12.248   3.382  11.856 -2.3533  0.0333 -0.7915
46136SOL     OW45647   3.785   2.736   7.320 -0.3281  0.1888 -0.4211
46136SOL    HW145648   3.846   2.808   7.336 -1.7127  0.7637  3.2922
46136SOL    HW245649   3.711   2.778   7.276 -0.6604  0.8829  0.7448
46137SOL     OW45650   2.680   6.824   0.236 -0.1269  0.4339 -0.0943
46137SOL    HW145651   2.663   6.846   0.145 -0.5426 -0.6247 -0.2833
46137SOL    HW245652   2.650   6.734   0.245 -0.5799  0.6984  1.2271
46138SOL     OW45653   0.696  10.866   4.340 -0.5976 -0.1208 -0.1813
46138SOL    HW145654   0.752  10.902   4.409 -1.2087 -1.8260  1.3075
46138SOL    HW245655   0.748  10.794   4.303 -1.7348 -1.8209  1.3211
46139SOL     OW45656  11.064   1.879   3.689  0.5349  0.0018  0.2453
46139SOL    HW145657  10.981   1.879   3.643  1.9917 -1.2974 -2.6509
46139SOL    HW245658  11.130   1.870   3.620  3.0065 -0.5760  2.4994
46140SOL     OW45659  11.198   2.486   6.743 -0.2907  0.3880  0.1796
46140SOL    HW145660  11.273   2.481   6.803  0.5752 -0.9846 -0.9368
46140SOL    HW245661  11.124   2.508   6.799  0.6085 -0.1637  1.6546
46141SOL     OW45662   6.561   6.862  10.470 -0.2915 -0.3345  0.4627
46141SOL    HW145663   6.502   6.817  10.409 -0.1536  2.2718 -1.8422
46141SOL    HW245664   6.634   6.890  10.415  0.2782  1.4329  2.0258
46142SOL     OW45665   3.476   9.613   4.173 -0.3760  0.2579  0.1550
46142SOL    HW145666   3.384   9.597   4.195  0.0999 -2.3804  0.6076
46142SOL    HW245667   3.500   9.692   4.222 -1.8962 -0.1277  1.6117
46143SOL     OW45668  10.312   8.210   0.727 -0.2399  0.0486 -0.4401
46143SOL    HW145669  10.297   8.164   0.810  2.6237 -0.1698  0.0677
46143SOL    HW245670  10.272   8.155   0.661  0.4198 -1.6070  0.4756
46144SOL     OW45671   9.504  12.088  12.088  0.8778 -0.1423 -0.3389
46144SOL    HW145672   9.488  12.151  12.158  0.0306  0.6582 -1.2195
46144SOL    HW245673   9.532  12.141  12.013  1.0169 -0.9032 -0.8441
46145SOL     OW45674   6.823   8.302   0.394  0.2387  0.5602 -0.1992
46145SOL    HW145675   6.737   8.264   0.376  0.5434  0.1946 -0.9222
46145SOL    HW245676   6.815   8.339   0.482  0.1783 -1.9147  0.9376
46146SOL     OW45677   2.544   0.310  10.298 -0.1821  0.0963 -0.6445
46146SOL    HW145678   2.631   0.279  10.323 -0.0091  0.3773 -0.8937
46146SOL    HW245679   2.539   0.295  10.203 -1.0446 -1.4903 -0.3880
46147SOL     OW45680   1.033   9.744  11.941 -0.2511  0.1623 -0.0785
46147SOL    HW145681   0.958   9.794  11.973 -0.4736  0.3026 -0.8071
46147SOL    HW245682   1.101   9.759  12.007 -0.9955 -0.3470  0.8315
46148SOL     OW45683   7.425   0.669  10.756 -0.1425 -0.3104 -0.7013
46148SOL    HW145684   7.463   0.654  10.843  1.1034  1.5040 -0.8794
46148SOL    HW245685   7.367   0.594  10.742 -1.1940 -0.1191  2.1120
46149SOL     OW45686   7.866  11.689   3.085 -0.1804 -0.3599  0.1391
46149SOL    HW145687   7.897  11.657   3.170 -0.4616 -0.5120  0.1854
46149SOL    HW245688   7.799  11.626   3.058  1.4705 -1.5760 -1.2685
46150SOL     OW45689  12.253   7.720   0.678 -0.3547  0.2059  0.1909
46150SOL    HW145690  12.342   7.748   0.655  0.0269 -2.2446 -1.7410
46150SOL    HW245691  12.196   7.788   0.643  0.6847  1.5128  0.9323
46151SOL     OW45692  11.846   3.519   1.131 -0.0595  0.5739  0.0356
46151SOL    HW145693  11.821   3.428   1.114  0.8616  0.4257 -0.6437
46151SOL    HW245694  11.942   3.516   1.140  0.2766  1.7810 -2.2855
46152SOL     OW45695   9.958  10.531   2.099  0.0569 -0.2128 -0.6023
46152SOL    HW145696   9.918  10.459   2.051 -0.3048 -1.1591  1.0290
46152SOL    HW245697  10.034  10.557   2.046  0.7385 -2.4296 -0.7843
46153SOL     OW45698   6.632   5.465  10.212 -0.5113 -0.7931  0.1271
46153SOL    HW145699   6.653   5.553  10.242  0.1984 -0.5083 -1.1064
46153SOL    HW245700   6.571   5.431  10.277 -0.9163  0.6565  0.5398
46154SOL     OW45701  10.537   3.084   9.199  0.2292 -0.5345  0.6167
46154SOL    HW145702  10.587   3.143   9.142 -1.2324  0.4578  0.3010
46154SOL    HW245703  10.507   3.139   9.271 -1.2572 -0.8173  0.2652
46155SOL     OW45704   7.759   5.950   0.287  0.5706  0.4782  0.0628
46155SOL    HW145705   7.831   5.900   0.326  0.9632 -0.5514 -1.8236
46155SOL    HW245706   7.765   6.036   0.328  1.9845 -0.0185  0.9959
46156SOL     OW45707   1.674   3.439   3.186  0.2044 -0.3484 -0.0199
46156SOL    HW145708   1.740   3.380   3.149 -0.4198 -0.7578 -0.4904
46156SOL    HW245709   1.674   3.417   3.280  0.7621 -0.3177 -0.0084
46157SOL     OW45710   2.624   5.699  11.310 -0.0921 -0.4107 -0.4792
46157SOL    HW145711   2.709   5.658  11.326  0.2120  0.9126  1.7264
46157SOL    HW245712   2.636   5.752  11.232  0.5081 -1.7270 -1.3157
46158SOL     OW45713   1.475   7.960   1.777 -0.5821 -0.0439 -0.1228
46158SOL    HW145714   1.387   7.935   1.804 -0.5147  0.0699  0.2057
46158SOL    HW245715   1.534   7.905   1.829 -0.4619 -1.5727 -1.7600
46159SOL     OW45716   1.210   3.181   8.154 -0.0955  0.2153 -0.0947
46159SOL    HW145717   1.232   3.165   8.246  1.5053 -1.5478 -0.7167
46159SOL    HW245718   1.231   3.273   8.140 -1.0068  0.6893  1.4546
46160SOL     OW45719   4.967   8.927  12.010  0.6873 -0.3672 -0.0274
46160SOL    HW145720   4.989   8.993  12.076  0.1563  1.5633 -1.6515
46160SOL    HW245721   5.033   8.858  12.022  1.5789  0.6690  1.4411
46161SOL     OW45722   5.523  11.092   8.443 -0.2990 -0.4452 -0.1043
46161SOL    HW145723   5.615  11.111   8.465 -0.4856 -1.2496  1.4670
46161SOL    HW245724   5.507  11.005   8.478 -1.7027 -0.2704 -0.2563
46162SOL     OW45725   0.679  11.014  11.363 -0.3896 -0.0135  0.4853
46162SOL    HW145726   0.660  10.945  11.300  0.0718 -0.2408  0.5897
46162SOL    HW245727   0.760  11.054  11.332 -0.0413 -0.2688  1.0390
46163SOL     OW45728   7.602   7.711   8.416 -0.8887 -0.6431  0.2899
46163SOL    HW145729   7.676   7.763   8.448 -0.7970 -0.2729 -0.5168
46163SOL    HW245730   7.548   7.774   8.368 -0.8188 -1.2715 -0.6274
46164SOL     OW45731  11.658   6.040   9.297  0.1640 -0.4493  0.1770
46164SOL    HW145732  11.620   6.066   9.213  0.2559  0.9118  0.5297
46164SOL    HW245733  11.674   5.946   9.288 -0.2720 -0.4224 -1.1448
46165SOL     OW45734   5.655   6.411  10.967  0.1142  0.1704 -0.1443
46165SOL    HW145735   5.595   6.467  10.918  1.1468  0.5459 -1.0250
46165SOL    HW245736   5.691   6.468  11.035  0.4560  0.3060 -0.4408
46166SOL     OW45737  10.912   7.484   0.807  0.2545  0.3395 -0.1740
46166SOL    HW145738  10.942   7.515   0.892 -1.0139  0.0753  0.3925
46166SOL    HW245739  10.956   7.400   0.795 -1.6567 -1.0127  1.5530
46167SOL     OW45740  12.707   6.004   0.678 -0.3369 -0.1009 -0.4716
46167SOL    HW145741  12.717   6.000   0.583  1.3877  0.7749 -0.3509
46167SOL    HW245742  12.624   6.050   0.691 -0.2542  0.3829 -1.5516
46168SOL     OW45743   1.431   6.939  10.747  0.7105  0.2352  0.1984
46168SOL    HW145744   1.412   7.015  10.691  0.8618  0.2569  0.1769
46168SOL    HW245745   1.506   6.897  10.706  0.0060 -0.5053 -0.3597
46169SOL     OW45746  12.327   8.514   1.450 -0.2951  0.6986 -0.7084
46169SOL    HW145747  12.356   8.457   1.521  1.1430 -0.8189 -2.4082
46169SOL    HW245748  12.352   8.602   1.478 -2.2453  0.5674  1.8172
46170SOL     OW45749   4.742  10.814  10.982 -0.3530  0.0087 -0.7209
46170SOL    HW145750   4.768  10.892  10.933  1.2865 -1.0546 -1.6140
46170SOL    HW245751   4.650  10.801  10.959 -0.1359  0.6092 -2.0229
46171SOL     OW45752   6.777   6.930   4.660 -0.4346 -0.8429  0.0098
46171SOL    HW145753   6.814   6.852   4.700  0.2132 -0.0097  1.0611
46171SOL    HW245754   6.729   6.974   4.730  0.4786  0.4870 -0.1436
46172SOL     OW45755   4.251  10.487   2.551 -0.1356 -0.0055 -0.1451
46172SOL    HW145756   4.284  10.437   2.476  1.6116  1.0135 -0.1224
46172SOL    HW245757   4.268  10.578   2.528 -0.7833  0.3995  0.9354
46173SOL     OW45758   0.239   2.727   3.931  0.3259  0.0315 -0.1036
46173SOL    HW145759   0.145   2.711   3.917  0.1116  1.3661 -0.4106
46173SOL    HW245760   0.261   2.677   4.009 -0.6094 -0.4220 -0.1151
46174SOL     OW45761   0.004   7.696   9.707  0.1611 -0.2306 -0.1632
46174SOL    HW145762  -0.081   7.671   9.741 -0.3223  0.9012 -0.4866
46174SOL    HW245763  -0.002   7.682   9.613  0.2410  0.0901 -0.2187
46175SOL     OW45764   4.726  11.902  11.759 -0.0648 -0.1740 -0.8401
46175SOL    HW145765   4.766  11.815  11.762 -1.4594 -0.8303 -0.6773
46175SOL    HW245766   4.800  11.962  11.767  0.7944 -1.3424  0.4786
46176SOL     OW45767  11.810   4.594  12.635 -0.4772  0.0202  0.0709
46176SOL    HW145768  11.730   4.554  12.601  0.3305 -1.3032 -0.3627
46176SOL    HW245769  11.869   4.596  12.560  0.1770  0.2294  0.5810
46177SOL     OW45770   4.876  10.572   6.068  0.4793 -0.0084 -0.2679
46177SOL    HW145771   4.813  10.639   6.094  3.1222  2.2044  0.8372
46177SOL    HW245772   4.884  10.515   6.144  2.1054  1.6231  0.8600
46178SOL     OW45773   8.696  11.004   1.645 -0.2464  0.6013 -0.6019
46178SOL    HW145774   8.791  10.993   1.657 -0.1224 -0.8910 -2.4212
46178SOL    HW245775   8.672  10.935   1.583 -2.6379  0.6173  0.2129
46179SOL     OW45776   6.089   6.269  10.968  0.2608  0.0735  0.6361
46179SOL    HW145777   6.142   6.294  10.893 -0.8198 -1.4520 -0.7364
46179SOL    HW245778   6.005   6.314  10.954 -0.3413 -1.1169  0.2530
46180SOL     OW45779   7.437   7.642   4.246 -0.5412  0.1701 -0.2269
46180SOL    HW145780   7.485   7.691   4.313  2.2027 -0.3700 -1.6648
46180SOL    HW245781   7.432   7.553   4.282 -2.0520  0.5761  0.6588
46181SOL     OW45782  10.619   5.767   1.466 -0.1508 -1.0224  0.3045
46181SOL    HW145783  10.709   5.758   1.496  0.1358 -0.4472 -0.3349
46181SOL    HW245784  10.626   5.822   1.387 -0.9620 -1.7340 -0.2763
46182SOL     OW45785  10.225   7.923   4.991  0.0170  0.1757  0.1290
46182SOL    HW145786  10.223   8.019   4.986 -2.3326  0.1930  0.4111
46182SOL    HW245787  10.200   7.894   4.904  0.9712 -0.2088 -0.0273
46183SOL     OW45788   7.240   6.622   2.468  0.1042  0.5175 -0.1315
46183SOL    HW145789   7.305   6.589   2.530  0.8228 -4.4978 -3.0279
46183SOL    HW245790   7.158   6.619   2.517  0.8019 -2.1361  1.0715
46184SOL     OW45791   4.881  11.276   1.256 -0.2072 -0.1528 -0.4012
46184SOL    HW145792   4.799  11.245   1.218 -0.4270 -0.4770  0.3207
46184SOL    HW245793   4.928  11.316   1.183 -0.1596 -1.6953 -1.2452
46185SOL     OW45794   8.692   1.590  12.285 -0.0047  0.3390  0.8873
46185SOL    HW145795   8.774   1.566  12.328  0.6531  2.7917  1.1474
46185SOL    HW245796   8.624   1.561  12.345  0.7908  0.8401  2.0646
46186SOL     OW45797  12.573   8.420   9.157 -0.2854 -0.2011  0.1381
46186SOL    HW145798  12.600   8.506   9.126 -2.4202  0.2995 -0.5469
46186SOL    HW245799  12.477   8.425   9.160 -0.4027 -2.0735  1.5349
46187SOL     OW45800   6.108   2.521   1.808  0.4268  0.5405  0.2194
46187SOL    HW145801   6.030   2.542   1.756 -0.2378 -0.4642  0.7664
46187SOL    HW245802   6.166   2.596   1.797 -0.9802  1.6997  0.4770
46188SOL     OW45803   8.887   4.900   9.277 -0.3531  0.0996 -0.6499
46188SOL    HW145804   8.943   4.830   9.311  0.4048  1.3784  0.8216
46188SOL    HW245805   8.926   4.925   9.194  0.1767 -0.2814 -0.5163
46189SOL     OW45806   2.724  11.676   3.504 -0.0445  0.0700  0.2476
46189SOL    HW145807   2.716  11.745   3.569 -0.7017  1.3444 -1.1170
46189SOL    HW245808   2.790  11.616   3.539  0.4415  1.3205  1.5350
46190SOL     OW45809   2.595  10.887   3.197  0.3148 -0.1717 -0.8035
46190SOL    HW145810   2.507  10.902   3.231  0.1086 -0.9540 -0.9684
46190SOL    HW245811   2.632  10.974   3.188 -0.3631  0.1564 -0.5205
46191SOL     OW45812   7.197   6.460   0.759  0.0189  0.0134  1.0987
46191SOL    HW145813   7.255   6.474   0.685  0.5919 -0.5359  1.4394
46191SOL    HW245814   7.120   6.513   0.739  0.4934  0.4857  0.4867
46192SOL     OW45815   2.274   9.797  11.796  0.3348  0.6768 -0.1797
46192SOL    HW145816   2.350   9.791  11.738  0.9624  0.0313  0.6805
46192SOL    HW245817   2.294   9.737  11.868 -1.0127  0.4622  0.0421
46193SOL     OW45818  11.331  10.463  11.149  0.1573 -0.0593 -0.0301
46193SOL    HW145819  11.407  10.414  11.116 -0.1710  0.6957 -1.9938
46193SOL    HW245820  11.283  10.399  11.202  1.3202 -0.9920 -0.0528
46194SOL     OW45821  10.887   9.413   5.103  0.4625 -0.6008  0.6564
46194SOL    HW145822  10.960   9.475   5.095 -1.3299  1.5952  0.2197
46194SOL    HW245823  10.927   9.327   5.088  3.0336  0.4392  0.9908
46195SOL     OW45824   7.107   5.973   8.045 -0.3303  0.0899  0.7164
46195SOL    HW145825   7.081   5.928   8.126 -2.6388  0.3225  0.1758
46195SOL    HW245826   7.027   6.016   8.015  0.9927  1.7994 -0.5744
46196SOL     OW45827   1.430  11.028   6.284  0.4147  0.1140 -0.1321
46196SOL    HW145828   1.361  11.064   6.228  0.7174 -0.6753 -1.0363
46196SOL    HW245829   1.420  11.074   6.367 -1.0278  0.2192 -0.3412
46197SOL     OW45830  11.581   9.724   4.204 -0.8243  0.0864 -0.8642
46197SOL    HW145831  11.552   9.635   4.226 -1.4969  0.3076 -0.8177
46197SOL    HW245832  11.507   9.762   4.157 -1.9063  1.7189  1.9455
46198SOL     OW45833  12.555   0.060   9.833 -0.1255 -0.4384  0.0037
46198SOL    HW145834  12.626  -0.004   9.843 -1.9659 -2.4897  0.6066
46198SOL    HW245835  12.597   0.145   9.849  2.0961 -1.5931  0.7398
46199SOL     OW45836   7.107   4.888   1.415 -0.2796  0.0378 -0.7376
46199SOL    HW145837   7.181   4.926   1.368  2.1345 -0.5120  2.2533
46199SOL    HW245838   7.106   4.796   1.388  1.5536 -0.4493  0.6193
46200SOL     OW45839   8.864   9.994   2.968 -0.8362  0.1685 -0.5542
46200SOL    HW145840   8.892   9.904   2.951 -0.2700  0.3021 -0.3583
46200SOL    HW245841   8.917  10.022   3.043 -1.1599  0.5945 -0.4787
46201SOL     OW45842  11.273  11.629   6.517  0.1667 -0.1215  0.6141
46201SOL    HW145843  11.346  11.678   6.556 -0.1073  1.8359 -1.0896
46201SOL    HW245844  11.315  11.568   6.456  0.4522  0.4755  0.1944
46202SOL     OW45845  10.741   1.482   3.368  0.1787  0.2828 -0.4876
46202SOL    HW145846  10.717   1.543   3.438  0.1051  0.9306 -1.0655
46202SOL    HW245847  10.808   1.426   3.407  1.0090  1.4031 -0.2526
46203SOL     OW45848   7.431  12.706  12.303  0.0125  0.2781  0.1019
46203SOL    HW145849   7.444  12.743  12.391 -0.7237  2.5619 -0.6827
46203SOL    HW245850   7.495  12.752  12.249  0.4967 -1.1557 -0.5951
46204SOL     OW45851   2.535   4.621   3.277 -0.0858  0.9408  0.2697
46204SOL    HW145852   2.531   4.679   3.353  0.1918  0.4790  0.6419
46204SOL    HW245853   2.460   4.563   3.287 -0.3342  1.1971 -0.0761
46205SOL     OW45854   8.224   6.839   9.036 -0.0491  0.4660  0.1223
46205SOL    HW145855   8.208   6.861   8.944 -0.6962  0.3398  0.2012
46205SOL    HW245856   8.199   6.747   9.043 -2.2632  1.0664  0.9347
46206SOL     OW45857   0.253   6.706   6.389  0.4615 -0.0191 -0.2544
46206SOL    HW145858   0.176   6.732   6.338  1.6222  0.8839 -1.6394
46206SOL    HW245859   0.235   6.740   6.477  0.0329  1.7691 -0.9800
46207SOL     OW45860  10.794  11.706   5.414  0.2497  0.0662  0.0932
46207SOL    HW145861  10.783  11.797   5.440  1.6250  0.1928  0.3461
46207SOL    HW245862  10.755  11.656   5.486  1.1214  0.4559  0.8647
46208SOL     OW45863   6.289   7.081   8.678 -0.3147 -0.1120  1.0256
46208SOL    HW145864   6.203   7.081   8.636  0.4788 -1.5502 -0.7197
46208SOL    HW245865   6.323   6.993   8.665  0.4881 -0.3120  3.7872
46209SOL     OW45866   2.215   1.498   6.718 -0.2372 -0.9034  0.7755
46209SOL    HW145867   2.221   1.403   6.723  0.8489 -0.8357  1.1269
46209SOL    HW245868   2.277   1.523   6.650  0.1456 -0.4035  1.2868
46210SOL     OW45869   6.080   5.538  10.908  0.1032  0.5195  0.0210
46210SOL    HW145870   6.003   5.574  10.864 -0.5737  0.0576  0.7981
46210SOL    HW245871   6.149   5.541  10.842 -0.4464  1.4079 -0.5314
46211SOL     OW45872  11.480   5.675  10.930  0.3639  0.5265 -0.4649
46211SOL    HW145873  11.524   5.686  11.015  0.5758  0.0232 -0.5078
46211SOL    HW245874  11.477   5.580  10.917  0.0083  0.5919 -0.8542
46212SOL     OW45875   7.151  10.511   0.336  0.4219 -0.2359 -0.0799
46212SOL    HW145876   7.076  10.509   0.395  1.3842 -2.3016  1.2046
46212SOL    HW245877   7.205  10.584   0.368 -0.4410  0.5025 -0.2734
46213SOL     OW45878  12.561   3.575  10.283  0.0072 -0.2582 -0.4276
46213SOL    HW145879  12.535   3.601  10.194  0.6098 -1.0980 -0.8733
46213SOL    HW245880  12.558   3.479  10.281 -2.4444 -0.3070  1.2305
46214SOL     OW45881  11.328   0.781   5.189 -0.1837 -0.2409 -0.0411
46214SOL    HW145882  11.241   0.769   5.226  0.9958 -2.9787  2.1559
46214SOL    HW245883  11.325   0.736   5.105 -0.3901 -2.1023  0.9305
46215SOL     OW45884   6.185   4.747  11.712  0.5483 -0.1448 -0.5165
46215SOL    HW145885   6.189   4.725  11.805 -0.7056 -1.5410 -0.7394
46215SOL    HW245886   6.139   4.830  11.708  1.7357  0.5642  0.1594
46216SOL     OW45887   6.530   5.972   9.353  0.1673  0.1580  0.1235
46216SOL    HW145888   6.568   5.989   9.267 -1.2785 -0.6766 -0.7087
46216SOL    HW245889   6.583   6.025   9.413 -0.1325  2.4940 -1.5165
46217SOL     OW45890   9.998   1.792   2.880  0.0668  0.2832 -0.5165
46217SOL    HW145891   9.948   1.807   2.800 -1.0367  1.1666  0.3021
46217SOL    HW245892  10.013   1.880   2.915  2.3970  0.0688 -0.8168
46218SOL     OW45893   6.420   2.780   8.960  0.3232 -0.0842 -0.3592
46218SOL    HW145894   6.420   2.699   9.010  0.4330 -0.2410 -0.6104
46218SOL    HW245895   6.513   2.803   8.953  0.2014  1.6893  2.3124
46219SOL     OW45896  12.607   7.272   0.202  0.0520  0.0331  0.5614
46219SOL    HW145897  12.556   7.349   0.176 -0.1782 -0.9591 -2.2268
46219SOL    HW245898  12.580   7.204   0.141  0.5693 -2.1941  2.6786
46220SOL     OW45899   9.379   2.788   7.181 -0.0798  0.0244 -0.0573
46220SOL    HW145900   9.466   2.826   7.172  1.4449 -2.8559  1.2013
46220SOL    HW245901   9.356   2.802   7.273 -0.6908  0.1989 -0.2285
46221SOL     OW45902  10.767   2.634   2.371  0.3142  0.0193  0.1024
46221SOL    HW145903  10.768   2.723   2.405 -1.6797 -0.4321  1.5298
46221SOL    HW245904  10.819   2.584   2.433  1.9373  0.2334 -1.0218
46222SOL     OW45905   5.214  11.770   3.927 -0.0600 -0.0670 -0.9029
46222SOL    HW145906   5.141  11.731   3.976 -0.9946  1.0872 -1.3399
46222SOL    HW245907   5.275  11.697   3.914 -0.6329 -0.8195  0.3765
46223SOL     OW45908   2.893  11.514   8.434  0.2302 -0.2107  0.1043
46223SOL    HW145909   2.835  11.564   8.492  1.0565  1.5786 -0.5584
46223SOL    HW245910   2.843  11.501   8.354 -0.1673 -0.9103  0.4570
46224SOL     OW45911   0.016  11.568   3.981 -0.2475 -0.3592  0.5335
46224SOL    HW145912   0.107  11.541   3.981  0.0838  0.5482  2.6168
46224SOL    HW245913   0.014  11.647   3.926  0.2899 -0.2033  0.7317
46225SOL     OW45914  10.338   6.752   5.529  0.1965 -0.3553 -0.0109
46225SOL    HW145915  10.247   6.736   5.501 -0.1226  0.1044  0.7279
46225SOL    HW245916  10.329   6.808   5.606  1.1356  0.0805 -0.2138
46226SOL     OW45917   3.219  10.372   0.004  0.0967 -0.0418 -0.1702
46226SOL    HW145918   3.169  10.431   0.061  2.8910  1.5021  0.8784
46226SOL    HW245919   3.162  10.356  -0.071 -1.3643  2.8800  0.1881
46227SOL     OW45920   0.954   0.838   8.817 -0.2816  0.5053 -0.0061
46227SOL    HW145921   0.923   0.816   8.905  0.0567 -0.1439 -0.0408
46227SOL    HW245922   0.881   0.885   8.777 -0.8507 -0.1209  0.2689
46228SOL     OW45923   3.546   4.035   3.801  0.7672  0.2963 -0.2642
46228SOL    HW145924   3.570   4.034   3.709  0.6584  1.3244 -0.3064
46228SOL    HW245925   3.473   4.097   3.807  0.6038  0.0486  0.4705
46229SOL     OW45926  10.367   3.889  11.819 -0.2848  0.7571  0.4054
46229SOL    HW145927  10.396   3.803  11.790 -0.6143  0.6492  0.3845
46229SOL    HW245928  10.283   3.872  11.863 -1.8522  1.3801 -2.1088
46230SOL     OW45929   5.832   3.792   0.865  0.1263 -0.1807 -0.1013
46230SOL    HW145930   5.817   3.813   0.957  0.6107 -1.0290  0.1837
46230SOL    HW245931   5.745   3.776   0.829 -0.0340 -0.2301  0.3085
46231SOL     OW45932   0.411  10.838  12.490  0.0124 -0.2507 -0.2397
46231SOL    HW145933   0.337  10.798  12.444 -0.7427  2.4359 -1.5747
46231SOL    HW245934   0.373  10.869  12.573 -0.3181  0.7285 -0.7320
46232SOL     OW45935   8.853   2.442   5.125 -0.4541  0.0374 -0.5648
46232SOL    HW145936   8.781   2.502   5.142 -0.5771 -0.4006  0.5728
46232SOL    HW245937   8.914   2.491   5.070 -0.7085  1.0797  0.0735
46233SOL     OW45938   1.812  11.068  12.699 -0.2085  0.3666 -0.5556
46233SOL    HW145939   1.902  11.037  12.690 -0.1888  0.1964  0.1609
46233SOL    HW245940   1.814  11.157  12.665  0.2367  0.3708 -0.5249
46234SOL     OW45941   9.136  11.651  10.892  0.0838 -0.7932  0.1478
46234SOL    HW145942   9.118  11.698  10.973 -0.8493 -0.8344 -0.0137
46234SOL    HW245943   9.182  11.572  10.919  3.1337  0.8956  0.2927
46235SOL     OW45944  11.767   0.790   1.496 -0.3161 -0.1009  0.2867
46235SOL    HW145945  11.809   0.708   1.470 -0.0087  0.2043 -0.1984
46235SOL    HW245946  11.727   0.770   1.580  0.0992 -0.6353  0.3672
46236SOL     OW45947  12.690  10.380   9.382  0.3828 -0.0673  0.1845
46236SOL    HW145948  12.743  10.454   9.352 -0.1327  0.7218  1.1691
46236SOL    HW245949  12.730  10.354   9.465 -2.4452  2.4962  2.5559
46237SOL     OW45950   0.699   6.194   6.517 -0.4023 -0.6017  0.5363
46237SOL    HW145951   0.620   6.210   6.467  0.7312  0.5807 -0.9480
46237SOL    HW245952   0.699   6.261   6.586  0.5095  1.0768 -1.0071
46238SOL     OW45953   3.136   0.331  10.130  0.1178  0.2456  0.2616
46238SOL    HW145954   3.124   0.326  10.225  2.4441 -1.6000  0.5702
46238SOL    HW245955   3.156   0.423  10.113 -0.3343  0.6032  1.5676
46239SOL     OW45956   3.659  10.284  11.882  0.0476  0.1754  0.1994
46239SOL    HW145957   3.699  10.227  11.948 -0.5890  1.1116  1.4366
46239SOL    HW245958   3.685  10.372  11.908  1.0653  0.4796 -1.7168
46240SOL     OW45959   3.514   1.866   1.149  0.1245 -0.1424 -0.0246
46240SOL    HW145960   3.498   1.949   1.104 -3.2781 -0.7006 -0.0482
46240SOL    HW245961   3.531   1.891   1.240 -0.3539  0.6158 -0.1362
46241SOL     OW45962   7.920   5.775   1.703 -0.0217  0.3987 -0.2972
46241SOL    HW145963   7.865   5.734   1.770  0.3133  0.1851 -0.1547
46241SOL    HW245964   7.891   5.866   1.701 -0.3582  0.2962 -0.1964
46242SOL     OW45965  11.595   9.246   5.737 -0.6759 -0.0031  0.1372
46242SOL    HW145966  11.558   9.170   5.781  0.4840 -1.7944 -1.8256
46242SOL    HW245967  11.542   9.256   5.658 -1.1704  1.6420  0.6265
46243SOL     OW45968   2.665   1.715   7.706  0.3118  0.3157 -0.3890
46243SOL    HW145969   2.704   1.628   7.696 -0.9162 -0.4987  1.3885
46243SOL    HW245970   2.729   1.763   7.758  1.2149  0.6701 -1.7786
46244SOL     OW45971  10.801  10.587   9.881  1.0669 -0.1363 -0.0348
46244SOL    HW145972  10.752  10.508   9.857  1.2570 -0.5196  0.8028
46244SOL    HW245973  10.765  10.655   9.823  0.6784 -0.7583 -0.5495
46245SOL     OW45974   2.203   4.161   2.041  0.1627 -0.3610 -0.6992
46245SOL    HW145975   2.279   4.126   2.086 -0.8080 -0.3704  1.0107
46245SOL    HW245976   2.131   4.103   2.067 -0.4969 -0.1652 -2.0233
46246SOL     OW45977  11.028  11.982   5.528  0.0258  0.0773 -0.2709
46246SOL    HW145978  11.004  11.955   5.616  0.2467  1.1715  0.1411
46246SOL    HW245979  10.943  11.998   5.485 -0.2204 -3.0807 -1.1842
46247SOL     OW45980   6.962   5.954   6.136  0.4170  0.9168  0.3701
46247SOL    HW145981   7.028   5.933   6.069 -0.9760 -0.6122 -0.6120
46247SOL    HW245982   6.925   6.037   6.108  2.1217  2.0039  1.1462
46248SOL     OW45983   9.820  10.225   7.893  0.1764  0.2762  0.6202
46248SOL    HW145984   9.903  10.239   7.939  0.4437 -1.4946  0.7654
46248SOL    HW245985   9.785  10.145   7.933  0.3596 -1.2928 -2.1268
46249SOL     OW45986   1.093   6.304   6.800 -0.1756 -0.2291 -0.1109
46249SOL    HW145987   1.149   6.233   6.768 -0.8213  0.0248 -1.9222
46249SOL    HW245988   1.005   6.280   6.772 -0.5829  0.6539  0.3841
46250SOL     OW45989   1.002   3.140   4.696 -0.0468  0.0106 -0.4808
46250SOL    HW145990   1.091   3.127   4.728  0.2458 -0.6134 -1.5307
46250SOL    HW245991   0.997   3.089   4.616 -1.0660  0.7862 -0.9379
46251SOL     OW45992   1.093   1.973  12.296  0.2361 -0.2959  0.5500
46251SOL    HW145993   1.036   1.950  12.370 -2.1451 -0.0188 -1.0642
46251SOL    HW245994   1.125   1.889  12.263  0.1736 -0.5140  1.0318
46252SOL     OW45995   0.384  10.228   1.971  0.0175 -0.0898  0.2759
46252SOL    HW145996   0.387  10.207   2.065 -0.9750 -1.0962  0.1003
46252SOL    HW245997   0.383  10.143   1.928 -0.2213  0.3689 -0.6372
46253SOL     OW45998  10.165   6.362  11.178  0.2970  0.0557  0.3949
46253SOL    HW145999  10.170   6.268  11.161  0.5010  0.3673 -1.5279
46253SOL    HW246000  10.249   6.383  11.218  1.1022 -0.2805 -1.0357
46254SOL     OW46001   6.491   0.794   7.047  0.2319 -0.1771 -0.0575
46254SOL    HW146002   6.473   0.863   6.984  0.4406 -0.5900 -0.5742
46254SOL    HW246003   6.570   0.824   7.094  0.6885 -0.3465 -0.7025
46255SOL     OW46004   6.755   9.223  10.005  0.4232  0.3065  0.0753
46255SOL    HW146005   6.810   9.300   9.993 -0.4713  0.8795 -0.5064
46255SOL    HW246006   6.740   9.218  10.100  1.0845  0.4069  0.1890
46256SOL     OW46007  11.805  10.558  12.623  0.7156  0.2534 -0.0553
46256SOL    HW146008  11.758  10.494  12.677 -2.2181  1.0833 -1.4165
46256SOL    HW246009  11.739  10.624  12.602  2.9078  2.2571 -1.0340
46257SOL     OW46010  12.134  10.512   8.635  0.5688 -0.9122 -0.5922
46257SOL    HW146011  12.081  10.573   8.584  1.3965 -1.0145 -1.5981
46257SOL    HW246012  12.224  10.539   8.618  0.8787 -1.3458  0.3247
46258SOL     OW46013   8.551   9.990   4.157  0.2892  1.0028  0.5729
46258SOL    HW146014   8.487  10.050   4.117 -0.5560  0.3804  0.9513
46258SOL    HW246015   8.501   9.910   4.173  1.7710 -0.3860 -1.3227
46259SOL     OW46016   8.574   3.730   1.714 -0.3577  0.3681  0.2893
46259SOL    HW146017   8.505   3.688   1.766 -0.3902  0.2247  0.1314
46259SOL    HW246018   8.594   3.667   1.645  0.1038  0.3102  0.4766
46260SOL     OW46019   8.879   1.181   4.223 -0.0547  0.4219 -0.1035
46260SOL    HW146020   8.905   1.272   4.214 -0.4350  0.5788  0.3258
46260SOL    HW246021   8.823   1.163   4.147 -1.0472  0.9356  0.4865
46261SOL     OW46022   9.733   3.753   9.277 -0.3847  0.4970  0.4052
46261SOL    HW146023   9.781   3.836   9.274  1.0157 -0.3317 -0.6501
46261SOL    HW246024   9.788   3.695   9.329  0.1314 -0.6564 -1.3471
46262SOL     OW46025   6.463   2.057  11.363  0.4280  0.3653 -0.6312
46262SOL    HW146026   6.532   1.994  11.381 -0.8910 -0.5395  1.7693
46262SOL    HW246027   6.433   2.035  11.274  2.4604  0.1257 -1.3081
46263SOL     OW46028   4.577   9.932   1.159 -0.1797  0.0652  0.0917
46263SOL    HW146029   4.548   9.907   1.247 -2.4549 -0.7913 -0.8305
46263SOL    HW246030   4.542  10.020   1.147 -3.4138 -1.2576 -1.3149
46264SOL     OW46031   4.076   7.932   1.385  0.1503  0.5920 -0.5966
46264SOL    HW146032   4.099   8.019   1.419  0.6370 -0.1119  0.9686
46264SOL    HW246033   3.985   7.941   1.357  0.3220  1.7104 -0.8889
46265SOL     OW46034   7.404  12.483  11.393  0.3184  0.4193  0.0869
46265SOL    HW146035   7.408  12.515  11.483  0.9262  0.3991  0.0662
46265SOL    HW246036   7.398  12.388  11.401 -0.0525  0.4420  0.1120
46266SOL     OW46037   4.691  11.078   6.963 -0.1382  0.9512 -0.2073
46266SOL    HW146038   4.761  11.035   7.013  0.6603  0.7148 -1.4850
46266SOL    HW246039   4.686  11.167   6.999  1.8738  1.4622 -1.0944
46267SOL     OW46040   0.035   1.541   8.102 -0.0555 -0.2409 -0.0165
46267SOL    HW146041   0.004   1.543   8.012  0.3910 -2.5736 -0.2843
46267SOL    HW246042  -0.039   1.575   8.153 -1.7138 -2.1746 -0.9814
46268SOL     OW46043   2.194   6.548   7.591  0.2146  0.3697  0.5546
46268SOL    HW146044   2.157   6.618   7.538 -0.5500  0.6858  1.4697
46268SOL    HW246045   2.199   6.473   7.533  0.2433  0.9514 -0.2029
46269SOL     OW46046   9.350   3.716   3.639 -0.4307  0.4605  0.3835
46269SOL    HW146047   9.343   3.631   3.682 -0.1340  1.2673  2.1191
46269SOL    HW246048   9.402   3.699   3.560 -1.9781 -1.2827 -0.3370
46270SOL     OW46049  12.349   7.982   4.937 -0.3277  0.1835 -0.3991
46270SOL    HW146050  12.428   8.005   4.986 -1.2704  0.6765  0.9369
46270SOL    HW246051  12.373   7.996   4.846  1.4578 -0.7002 -0.1119
46271SOL     OW46052   9.775   5.989   2.393  0.0228 -0.0275 -0.8691
46271SOL    HW146053   9.801   5.944   2.313 -2.2276 -0.4104 -1.4523
46271SOL    HW246054   9.743   5.920   2.451  0.7786  0.3569  0.0475
46272SOL     OW46055   6.968  10.616   8.034 -0.2512  0.0940  0.5071
46272SOL    HW146056   6.918  10.690   8.069 -0.5904  0.3577 -0.5098
46272SOL    HW246057   6.930  10.599   7.948  1.0187 -0.0690 -0.0548
46273SOL     OW46058   0.382   0.397   4.499  0.4608 -0.1809  0.1399
46273SOL    HW146059   0.430   0.369   4.577 -0.1286 -0.8209  0.2777
46273SOL    HW246060   0.299   0.430   4.532 -0.2205 -1.4272 -0.2895
46274SOL     OW46061   2.749  10.374   8.328 -0.1140  0.0141  0.1403
46274SOL    HW146062   2.756  10.448   8.268 -1.0197  1.1149  1.3570
46274SOL    HW246063   2.706  10.409   8.405  1.2829 -1.2877  1.5882
46275SOL     OW46064   2.942   1.862   3.492  0.2539  0.4878 -0.6444
46275SOL    HW146065   3.015   1.814   3.531  1.3799  3.0671  0.6023
46275SOL    HW246066   2.982   1.934   3.444 -1.4300  1.4361 -0.7175
46276SOL     OW46067   1.305   1.372   1.989  0.1675  0.6280 -0.2112
46276SOL    HW146068   1.246   1.297   1.978 -0.4802  0.9731  0.7550
46276SOL    HW246069   1.379   1.352   1.933  0.8127 -1.5488  1.2566
46277SOL     OW46070   6.905   2.676   8.551  0.3693  0.2644 -0.0813
46277SOL    HW146071   6.832   2.617   8.532  0.8172  0.2837 -2.1090
46277SOL    HW246072   6.928   2.714   8.466  2.3314  0.7403  0.6037
46278SOL     OW46073   0.861   6.183   0.747 -0.1070 -0.2261  0.0045
46278SOL    HW146074   0.910   6.149   0.672 -0.4626  1.1626 -0.8985
46278SOL    HW246075   0.876   6.278   0.744 -1.8567  0.0920  0.4238
46279SOL     OW46076   4.156   9.319   6.730  0.0771  0.6003  0.2913
46279SOL    HW146077   4.152   9.372   6.810  0.4043  1.3588 -0.1812
46279SOL    HW246078   4.106   9.240   6.751  2.2224 -0.3970  2.1342
46280SOL     OW46079   5.613  12.675   4.039  0.6029 -0.5029 -0.0197
46280SOL    HW146080   5.659  12.693   3.956 -2.9352  3.6275 -1.4909
46280SOL    HW246081   5.561  12.597   4.020  1.4253 -0.8594 -0.9316
46281SOL     OW46082   1.587  12.186   3.558  0.0832  0.3182 -0.0145
46281SOL    HW146083   1.520  12.125   3.525  1.2194 -0.1734 -1.5040
46281SOL    HW246084   1.667  12.133   3.562  1.0302  1.6216 -1.0489
46282SOL     OW46085   0.568  12.008  10.904 -0.1039 -0.0500 -0.2010
46282SOL    HW146086   0.534  12.062  10.975  0.6298  0.6089 -0.3485
46282SOL    HW246087   0.567  12.065  10.827  0.0651 -0.4481 -0.5046
46283SOL     OW46088   6.982   8.926  11.346  0.2618 -0.3866  0.0346
46283SOL    HW146089   6.942   8.964  11.424  1.2162  0.6404  0.0572
46283SOL    HW246090   6.911   8.923  11.282 -1.0761 -3.1215  1.4715
46284SOL     OW46091   2.847   8.098   4.382 -0.1203  0.0723  0.4175
46284SOL    HW146092   2.783   8.165   4.405  0.1314  0.2005  0.7665
46284SOL    HW246093   2.927   8.146   4.360 -0.0528 -0.0941  0.2922
46285SOL     OW46094  12.668   4.401   6.857 -0.3824  0.3940 -0.0294
46285SOL    HW146095  12.667   4.340   6.930  0.5129 -1.2102 -1.2816
46285SOL    HW246096  12.576   4.427   6.846 -0.7052 -0.3435  0.8348
46286SOL     OW46097   6.164  11.795  12.115 -0.1402  0.7148  0.8084
46286SOL    HW146098   6.178  11.889  12.125 -0.5894  0.8289  0.3897
46286SOL    HW246099   6.248  11.762  12.082 -0.2017  1.0726  0.2974
46287SOL     OW46100   4.047  12.673   4.928  0.3967 -0.4554 -0.0846
46287SOL    HW146101   4.133  12.631   4.925  0.2791 -0.6381 -1.7455
46287SOL    HW246102   3.993  12.612   4.978  0.5322 -1.7885 -1.4713
46288SOL     OW46103   2.140   2.327   0.648 -0.5878  0.1694 -0.3619
46288SOL    HW146104   2.140   2.360   0.558 -1.0560  0.4612 -0.2569
46288SOL    HW246105   2.049   2.302   0.664 -1.1575  2.7373  0.9732
46289SOL     OW46106   5.169   1.443   8.782 -0.0946 -0.3876  0.1746
46289SOL    HW146107   5.252   1.491   8.782  0.4434 -1.2550 -1.3676
46289SOL    HW246108   5.102   1.512   8.780  0.6551  0.3713 -2.4757
46290SOL     OW46109   8.013   5.028   4.490 -0.1053 -0.4955 -0.3142
46290SOL    HW146110   8.080   5.011   4.425 -0.0549 -0.7663 -0.1910
46290SOL    HW246111   8.019   5.122   4.506 -1.3832 -0.0439 -2.1018
46291SOL     OW46112   8.595  11.272   0.397  0.2591 -0.0813 -0.0599
46291SOL    HW146113   8.679  11.264   0.441  0.1359 -0.7252  0.0782
46291SOL    HW246114   8.611  11.332   0.325  0.4875  0.8995  0.7956
46292SOL     OW46115   5.504   1.291   6.548 -0.0232 -0.1999  0.2329
46292SOL    HW146116   5.539   1.364   6.600  1.5884  0.0855 -1.1868
46292SOL    HW246117   5.557   1.216   6.573 -1.8105 -1.0119  1.8363
46293SOL     OW46118   3.197   7.276   9.714 -0.1759  0.0542  0.4061
46293SOL    HW146119   3.216   7.317   9.798 -1.4649  1.0690  0.2360
46293SOL    HW246120   3.237   7.189   9.720  1.9480  1.0192  1.0791
46294SOL     OW46121  11.996   1.848   0.812  0.3713 -0.5633 -0.2026
46294SOL    HW146122  12.052   1.776   0.782  1.2344  0.9006 -2.3714
46294SOL    HW246123  11.912   1.832   0.768  0.1886 -0.8412  0.2364
46295SOL     OW46124  10.459  12.258  10.847  0.6205 -0.3190  0.2455
46295SOL    HW146125  10.436  12.222  10.762  2.1737 -2.0179  0.4791
46295SOL    HW246126  10.389  12.320  10.867 -0.3464 -0.6920 -1.7554
46296SOL     OW46127   2.695   4.477   1.979 -0.0013  0.0663 -0.3040
46296SOL    HW146128   2.672   4.517   1.895 -0.6209  0.8942  0.2503
46296SOL    HW246129   2.755   4.539   2.020 -1.3336  0.7021  0.7629
46297SOL     OW46130   1.654  12.286   1.334  0.1678 -0.7387 -0.1085
46297SOL    HW146131   1.626  12.288   1.242 -0.5500  0.6899  0.1179
46297SOL    HW246132   1.688  12.198   1.347 -0.7115 -1.2966 -1.4538
46298SOL     OW46133   5.747   2.789   9.854 -0.1293  0.9047  0.0897
46298SOL    HW146134   5.809   2.860   9.872 -1.1689  1.6345  0.8922
46298SOL    HW246135   5.698   2.819   9.778  1.0117 -0.0419 -1.0717
46299SOL     OW46136   6.933   0.311   8.787  0.6483 -0.1991 -0.1977
46299SOL    HW146137   6.911   0.356   8.706 -2.4684  1.8510  1.5948
46299SOL    HW246138   7.012   0.356   8.819  0.8167  0.2076 -1.1465
46300SOL     OW46139   4.357   6.085  10.474  0.3201  0.8331  0.2772
46300SOL    HW146140   4.402   6.095  10.558  1.7445 -2.8831  0.1097
46300SOL    HW246141   4.274   6.043  10.496  0.1806  0.9037 -0.1088
46301SOL     OW46142  12.242  12.591   9.181 -0.0787  0.2038  0.0864
46301SOL    HW146143  12.252  12.539   9.261 -3.2926 -0.6308  0.0993
46301SOL    HW246144  12.264  12.530   9.111  1.2499  0.4713  0.2498
46302SOL     OW46145   4.047   0.480   1.220  0.1047  0.2858 -0.7517
46302SOL    HW146146   4.086   0.411   1.273 -0.6108 -1.3206 -2.2374
46302SOL    HW246147   4.058   0.560   1.272 -0.8173 -1.2378  1.9227
46303SOL     OW46148   3.046  12.695   5.956 -0.0849 -0.2102  0.1851
46303SOL    HW146149   3.073  12.744   6.033 -0.1417 -0.1102  0.1404
46303SOL    HW246150   2.960  12.660   5.979  0.3620 -1.0887  0.5867
46304SOL     OW46151   0.379  12.635  10.791  0.3757  0.0380  1.2290
46304SOL    HW146152   0.304  12.660  10.737  0.5794 -0.5168  0.6831
46304SOL    HW246153   0.373  12.540  10.798  2.0253 -0.2248 -0.3361
46305SOL     OW46154   0.395  11.301   5.682  0.1926 -0.6418  0.7726
46305SOL    HW146155   0.362  11.228   5.733 -3.9273 -0.1152 -0.7058
46305SOL    HW246156   0.438  11.261   5.607 -0.3470 -1.5194  0.9187
46306SOL     OW46157  12.042   0.255   5.921  0.3700 -0.1907  0.3642
46306SOL    HW146158  12.017   0.342   5.890 -1.4487 -0.7994 -0.0059
46306SOL    HW246159  11.999   0.247   6.006  1.6036 -0.2536  0.9980
46307SOL     OW46160   4.730   9.855   4.214 -0.3587 -0.6146  0.6332
46307SOL    HW146161   4.691   9.869   4.300  0.5288 -1.1335  1.1466
46307SOL    HW246162   4.660   9.818   4.161 -1.2182  0.7257  0.7983
46308SOL     OW46163   0.770   6.767   4.937 -0.4659  0.1015  0.0826
46308SOL    HW146164   0.786   6.771   5.031  0.9998  0.5346 -0.1613
46308SOL    HW246165   0.823   6.694   4.906 -1.0665 -0.1441 -0.4034
46309SOL     OW46166   0.582   3.132   6.492 -0.1892 -0.4701  0.4352
46309SOL    HW146167   0.503   3.159   6.538  0.3002 -0.0941  1.0659
46309SOL    HW246168   0.573   3.037   6.482 -0.6538 -0.4464  0.6319
46310SOL     OW46169   7.217   4.754   6.904 -0.2744 -0.4219 -0.5077
46310SOL    HW146170   7.253   4.765   6.991 -0.8000  0.5691 -0.3954
46310SOL    HW246171   7.280   4.797   6.846 -0.9717  0.8636 -0.3636
46311SOL     OW46172   9.390   7.727   3.892  0.1780 -0.2286  0.0231
46311SOL    HW146173   9.471   7.681   3.872  0.9843  1.4232 -0.7525
46311SOL    HW246174   9.417   7.801   3.946 -1.2113 -1.1677  2.1373
46312SOL     OW46175   6.863   8.957   5.967 -0.8777 -0.1077 -0.2707
46312SOL    HW146176   6.905   8.872   5.962 -0.7789 -0.1458  1.0030
46312SOL    HW246177   6.871   8.993   5.879  0.0451 -0.9513 -0.5430
46313SOL     OW46178   3.495   9.023   7.464  0.6678 -0.8527  0.4149
46313SOL    HW146179   3.518   9.000   7.374 -0.7099  0.4294 -0.3065
46313SOL    HW246180   3.431   8.957   7.490 -1.4060  0.5890 -0.7647
46314SOL     OW46181   9.614   9.776   4.885 -0.0799  0.0614  0.8148
46314SOL    HW146182   9.642   9.861   4.919 -0.3785  0.2519  0.5986
46314SOL    HW246183   9.695   9.728   4.869  0.0616 -0.3715  2.6122
46315SOL     OW46184   7.319   4.934   6.528 -0.2077 -0.2342  0.5142
46315SOL    HW146185   7.248   4.880   6.492 -1.1972 -1.1237  3.4580
46315SOL    HW246186   7.395   4.912   6.476 -1.8414  0.0716 -2.2004
46316SOL     OW46187   1.846  10.564   0.611  0.0318  0.1520  0.0807
46316SOL    HW146188   1.798  10.481   0.613 -1.4450  0.9497 -0.3756
46316SOL    HW246189   1.815  10.611   0.688  0.2360  0.6167 -0.1218
46317SOL     OW46190   6.265   2.521   3.309  0.0267 -0.3022 -0.1430
46317SOL    HW146191   6.346   2.511   3.358 -0.4125 -1.8772  0.2992
46317SOL    HW246192   6.267   2.451   3.244 -0.2127  0.6846 -1.2620
46318SOL     OW46193   0.751   4.545   7.268 -0.0025 -0.5695 -0.5944
46318SOL    HW146194   0.760   4.546   7.173  0.0652  1.8807 -0.6374
46318SOL    HW246195   0.831   4.503   7.300  0.4421 -0.5057 -1.6053
46319SOL     OW46196   8.604  12.241   7.639  0.0634 -0.4545  0.3628
46319SOL    HW146197   8.549  12.186   7.694 -1.4512 -0.9202 -1.5232
46319SOL    HW246198   8.547  12.313   7.612  0.2306 -1.0510 -1.7979
46320SOL     OW46199  12.242  12.621   5.343 -0.4253 -0.6627 -0.3073
46320SOL    HW146200  12.298  12.683   5.388  0.4465 -1.9192  0.3762
46320SOL    HW246201  12.164  12.672   5.320  0.1009  0.5787  0.5592
46321SOL     OW46202   9.885   3.123   0.997  0.2887 -0.1148  0.5548
46321SOL    HW146203   9.959   3.166   0.956  0.8553  0.5373  2.1698
46321SOL    HW246204   9.817   3.191   1.002  0.1240 -0.2704  0.4386
46322SOL     OW46205   3.079   9.426   6.808  0.8364  0.0358  0.6201
46322SOL    HW146206   3.055   9.344   6.852 -1.8293  0.3602 -0.0167
46322SOL    HW246207   3.096   9.401   6.717 -1.5124  0.2709  0.0407
46323SOL     OW46208  11.526   6.138   4.254  0.2147  0.2342 -0.9691
46323SOL    HW146209  11.452   6.186   4.216 -0.3560 -0.6155 -0.9397
46323SOL    HW246210  11.574   6.204   4.304 -0.6565  0.7419 -0.7882
46324SOL     OW46211  10.091   4.052   1.287  0.0467  0.6968  0.2177
46324SOL    HW146212   9.997   4.049   1.299 -0.3570 -0.8699 -2.4153
46324SOL    HW246213  10.107   4.136   1.243 -0.1579  0.8321  0.4030
46325SOL     OW46214   1.981   1.804   6.054 -0.1305 -0.0017 -0.5453
46325SOL    HW146215   2.052   1.846   6.004  1.4773 -1.0731  0.7317
46325SOL    HW246216   1.907   1.864   6.043  1.5288  2.2655 -0.2971
46326SOL     OW46217   0.921  12.119   3.022 -0.4406  0.0040  0.1250
46326SOL    HW146218   0.964  12.204   3.035  1.5348 -1.1181  1.4858
46326SOL    HW246219   0.975  12.076   2.955 -0.9522 -0.4770  0.0205
46327SOL     OW46220   8.912   1.690   2.797  0.2242  0.0050  0.1245
46327SOL    HW146221   8.918   1.669   2.704 -0.1260 -1.5402  0.4312
46327SOL    HW246222   8.988   1.747   2.813 -0.1394  0.9195 -1.2445
46328SOL     OW46223   2.107   8.014   6.805 -0.3766  0.8388 -0.1577
46328SOL    HW146224   2.044   7.942   6.807 -0.7717  1.1872 -0.0783
46328SOL    HW246225   2.067   8.080   6.748  0.3512  0.6599 -0.8934
46329SOL     OW46226   8.018   4.436   8.011  0.2737 -0.1036  0.0485
46329SOL    HW146227   8.036   4.447   7.917 -2.0126 -0.8326 -0.5387
46329SOL    HW246228   8.053   4.350   8.032 -1.2032 -0.9395 -0.7408
46330SOL     OW46229  12.503  11.726   2.447 -0.2117 -0.5037  0.2537
46330SOL    HW146230  12.596  11.751   2.441 -0.6069  0.8804 -0.4378
46330SOL    HW246231  12.464  11.793   2.502 -0.9144 -0.8052  0.1300
46331SOL     OW46232   6.264   0.919   9.717 -0.2123 -0.0866  0.0015
46331SOL    HW146233   6.267   0.833   9.759 -1.4634 -0.0123  0.2858
46331SOL    HW246234   6.176   0.924   9.679 -0.2079  1.1195  0.1122
46332SOL     OW46235   5.624   5.388   1.328 -0.0541 -0.1181  0.3501
46332SOL    HW146236   5.579   5.307   1.307 -1.9428  0.7678  0.8090
46332SOL    HW246237   5.604   5.446   1.254 -0.4772  0.5846  0.9989
46333SOL     OW46238  10.650   3.383   6.803 -0.2454  0.0863 -0.1537
46333SOL    HW146239  10.717   3.451   6.811  0.0060 -0.0152 -1.2224
46333SOL    HW246240  10.629   3.360   6.893 -1.5756  2.7372  0.3035
46334SOL     OW46241  11.619   1.419   1.626 -0.5524  0.1344 -0.3573
46334SOL    HW146242  11.668   1.501   1.617 -1.2748  0.6941  0.5820
46334SOL    HW246243  11.527   1.446   1.620 -0.8410 -1.1219 -4.1071
46335SOL     OW46244  11.799  12.341   1.192  0.4203  0.1826  0.2544
46335SOL    HW146245  11.890  12.313   1.181  0.7185  1.2052  0.0185
46335SOL    HW246246  11.772  12.303   1.276  0.8813 -0.5841  0.0668
46336SOL     OW46247   5.299  10.601   6.075  0.3007 -0.0214  0.8340
46336SOL    HW146248   5.234  10.645   6.129  0.4232 -1.1018  1.9047
46336SOL    HW246249   5.251  10.573   5.997  0.0359  1.2225  0.5340
46337SOL     OW46250   5.902   5.355   7.180 -0.7062 -0.0658 -0.3283
46337SOL    HW146251   5.961   5.417   7.136  0.3984 -0.2859  0.7858
46337SOL    HW246252   5.818   5.400   7.182 -0.1030  1.1170 -0.1756
46338SOL     OW46253   8.535   1.737  11.945  0.3999 -0.5032  0.2824
46338SOL    HW146254   8.518   1.698  11.859 -0.5426 -0.7200  0.5575
46338SOL    HW246255   8.608   1.797  11.930 -0.3915  0.1993 -0.8926
46339SOL     OW46256   0.535   8.896   3.140 -0.3474  0.3885 -0.2228
46339SOL    HW146257   0.617   8.941   3.160 -0.4375 -0.2246  1.6689
46339SOL    HW246258   0.499   8.944   3.066  0.7532  1.9038  0.1850
46340SOL     OW46259   0.055   7.638   1.134 -0.1079 -0.1728  0.3221
46340SOL    HW146260  -0.038   7.650   1.115 -0.0624 -0.4809 -0.1200
46340SOL    HW246261   0.067   7.678   1.220 -0.2173  1.6867 -0.4906
46341SOL     OW46262   3.417  10.785   5.052 -0.1198 -0.0074 -0.1697
46341SOL    HW146263   3.492  10.746   5.005 -0.0620  0.8243 -0.8035
46341SOL    HW246264   3.352  10.715   5.054  1.2965 -1.3885  2.0105
46342SOL     OW46265   0.395   9.440   9.659 -0.1213  0.1655 -0.4326
46342SOL    HW146266   0.474   9.461   9.609  0.8521 -2.6216 -0.2636
46342SOL    HW246267   0.388   9.511   9.723  1.6294  1.0619 -1.1586
46343SOL     OW46268  10.416  10.785   5.453  0.1691 -0.8258  0.3256
46343SOL    HW146269  10.359  10.728   5.401 -1.3104 -0.2674  1.2938
46343SOL    HW246270  10.409  10.870   5.411  0.1107 -0.7060  0.5769
46344SOL     OW46271  11.137   5.799  12.464  0.7029 -0.1936  0.4951
46344SOL    HW146272  11.229   5.795  12.490  0.7988 -1.0076  0.0368
46344SOL    HW246273  11.090   5.752  12.533  0.6866 -0.2115  0.4718
46345SOL     OW46274   1.486   5.127   6.671  0.2388  0.0634  0.3322
46345SOL    HW146275   1.511   5.039   6.697 -1.3766 -0.5427 -0.0105
46345SOL    HW246276   1.409   5.147   6.724  0.2380  1.0309 -0.0125
46346SOL     OW46277   8.109   3.698   3.897  0.3098  0.0540  0.0647
46346SOL    HW146278   8.120   3.779   3.947 -0.4462 -0.9854  2.0000
46346SOL    HW246279   8.195   3.683   3.858  0.6995  1.3254  0.3779
46347SOL     OW46280  11.104  10.190   6.569  0.0284 -0.4500  0.3449
46347SOL    HW146281  11.095  10.150   6.656  0.2929 -0.8063  0.2117
46347SOL    HW246282  11.049  10.268   6.573  1.2455  0.3990  1.3629
46348SOL     OW46283   4.755   7.025   6.503 -0.4352  0.2701  0.1012
46348SOL    HW146284   4.672   7.042   6.459 -0.8682 -1.2729  0.2965
46348SOL    HW246285   4.745   6.939   6.544  0.7006  0.7325  1.4635
46349SOL     OW46286   7.246  10.328   3.623 -0.1431 -0.2916  0.1917
46349SOL    HW146287   7.313  10.264   3.648  2.7643  1.8198 -1.5925
46349SOL    HW246288   7.255  10.398   3.687 -3.2302 -1.4038  2.0625
46350SOL     OW46289   4.870   0.632   9.320 -0.3361  0.3066 -0.0090
46350SOL    HW146290   4.803   0.697   9.299  2.0409  2.7099 -0.7067
46350SOL    HW246291   4.914   0.616   9.237  1.2194  0.3704  0.7671
46351SOL     OW46292   8.916   9.065  11.654  0.6647  0.0319 -0.1885
46351SOL    HW146293   8.867   9.148  11.658  0.1048 -0.0886 -2.7986
46351SOL    HW246294   8.916   9.033  11.744 -1.8635  1.3067  0.3506
46352SOL     OW46295   8.731   5.344   5.371 -0.6834  0.3814  0.1443
46352SOL    HW146296   8.646   5.305   5.391 -1.2581  1.2529 -0.5314
46352SOL    HW246297   8.739   5.338   5.276 -0.4067  1.1246  0.1104
46353SOL     OW46298  12.059   8.711   1.886 -0.3720  0.3161  0.4923
46353SOL    HW146299  12.054   8.683   1.795  1.4179 -1.0284  0.7390
46353SOL    HW246300  12.062   8.807   1.882 -0.8332  0.2893 -0.8176
46354SOL     OW46301  10.611   3.789   1.549 -0.3262  0.3269 -0.5038
46354SOL    HW146302  10.544   3.752   1.607 -0.3547 -0.8140 -1.2182
46354SOL    HW246303  10.694   3.765   1.590 -0.3453  0.6989 -0.2414
46355SOL     OW46304  10.202  11.639   1.188 -0.0595 -0.4036 -0.0863
46355SOL    HW146305  10.114  11.652   1.224  0.5254 -0.2577  1.3584
46355SOL    HW246306  10.193  11.659   1.095 -1.1809  1.3851  0.3509
46356SOL     OW46307   7.837   6.482   8.574  0.0849  0.2720  0.6596
46356SOL    HW146308   7.773   6.536   8.527  0.2367 -0.8867 -0.9631
46356SOL    HW246309   7.850   6.406   8.517  2.4689  0.1953  1.2239
46357SOL     OW46310   7.371   4.235   7.891 -0.1042 -0.1161  0.6140
46357SOL    HW146311   7.325   4.152   7.880 -0.6754  0.0447  1.6575
46357SOL    HW246312   7.443   4.231   7.829  0.2551 -1.6618  1.0926
46358SOL     OW46313   9.260  10.582   0.586 -0.0111  0.3981 -0.2668
46358SOL    HW146314   9.188  10.538   0.631  0.6527  0.2845  0.7140
46358SOL    HW246315   9.221  10.661   0.548 -0.8288 -0.1134 -0.5040
46359SOL     OW46316   2.791   9.724   2.848  0.3846 -0.3145 -0.0224
46359SOL    HW146317   2.786   9.820   2.846  1.1240 -0.2660  0.1364
46359SOL    HW246318   2.763   9.701   2.937 -0.5974 -0.3081 -0.3189
46360SOL     OW46319   5.142   5.520   0.351 -0.2400  0.4215 -0.1920
46360SOL    HW146320   5.104   5.603   0.378  0.3256  0.0339  2.0294
46360SOL    HW246321   5.082   5.454   0.385  1.2827 -0.1351  1.5501
46361SOL     OW46322   9.227   4.428   6.051  0.1402 -0.3848 -0.0163
46361SOL    HW146323   9.240   4.407   5.958 -0.6400 -0.6521 -0.0706
46361SOL    HW246324   9.304   4.481   6.074  0.2119 -0.0919 -0.8797
46362SOL     OW46325  12.122   8.142   8.503  0.3279  0.0135  0.8668
46362SOL    HW146326  12.166   8.087   8.437 -1.5033 -1.2503  0.6272
46362SOL    HW246327  12.031   8.111   8.504  0.2081  0.1039  3.8408
46363SOL     OW46328   6.255   5.685   7.997  0.5024 -0.0230 -0.3725
46363SOL    HW146329   6.290   5.774   7.996  0.3183  0.0694  0.4581
46363SOL    HW246330   6.167   5.694   8.034  0.0574 -0.4103 -1.3139
46364SOL     OW46331   5.204   0.955  11.190 -0.9404 -0.3990 -0.8278
46364SOL    HW146332   5.246   0.955  11.104  0.5279  1.3993 -0.1868
46364SOL    HW246333   5.116   0.990  11.174 -1.2735 -1.6362 -1.8094
46365SOL     OW46334  11.992   4.205   6.633 -0.1093  0.1284 -0.2939
46365SOL    HW146335  11.908   4.221   6.675 -0.0978 -0.4010 -0.0553
46365SOL    HW246336  12.007   4.281   6.578 -0.1609  0.8009  0.6028
46366SOL     OW46337   3.537   8.376  12.377 -0.1191 -0.5456 -0.1379
46366SOL    HW146338   3.551   8.326  12.296 -1.1731  1.0955 -1.3960
46366SOL    HW246339   3.623   8.378  12.419  0.3398 -1.8494 -0.9575
46367SOL     OW46340  10.579   1.667  10.513  0.1403 -0.1271  0.4256
46367SOL    HW146341  10.504   1.684  10.570 -0.3697 -0.1586 -0.2190
46367SOL    HW246342  10.573   1.574  10.494  0.3558 -0.1328  0.3904
46368SOL     OW46343   2.777  12.423  10.730  0.0620  0.2685  0.1024
46368SOL    HW146344   2.863  12.391  10.756 -0.3736 -0.7370  0.3714
46368SOL    HW246345   2.717  12.382  10.792 -0.7379 -0.1025 -0.8930
46369SOL     OW46346   3.624   5.757   3.823  0.2407  0.6386 -0.4824
46369SOL    HW146347   3.619   5.830   3.885 -0.6744  2.8119 -2.9206
46369SOL    HW246348   3.533   5.741   3.798  0.6036 -0.1189 -1.3536
46370SOL     OW46349   0.773   4.794   1.173 -0.4903 -0.2707  0.4769
46370SOL    HW146350   0.787   4.880   1.213  1.7079  0.4781 -1.6184
46370SOL    HW246351   0.762   4.813   1.080 -0.8896 -2.2202  0.0838
46371SOL     OW46352   1.022  10.275   2.299  0.0900 -0.1217  0.0883
46371SOL    HW146353   0.951  10.337   2.282  0.9160  0.7421 -0.2094
46371SOL    HW246354   1.039  10.283   2.393  0.6142  0.5669 -0.0580
46372SOL     OW46355  11.768   7.338   9.415  0.2831  0.7850  0.0400
46372SOL    HW146356  11.704   7.275   9.381 -1.0975  1.8193  0.5917
46372SOL    HW246357  11.755   7.417   9.361  0.0791  1.4827  1.0785
46373SOL     OW46358   8.183   6.433   0.783 -0.0730  0.5292 -0.0066
46373SOL    HW146359   8.261   6.423   0.839 -0.2289  3.3996  0.9317
46373SOL    HW246360   8.118   6.376   0.823  1.2617 -1.2951 -0.3058
46374SOL     OW46361   9.038   1.164   5.658  0.4225 -0.2337 -0.3815
46374SOL    HW146362   9.122   1.205   5.679 -0.2644  0.8094  0.4664
46374SOL    HW246363   8.996   1.151   5.743 -0.7695  0.3973 -0.8541
46375SOL     OW46364   5.952   2.947   1.220 -0.2202  0.2143  0.2146
46375SOL    HW146365   5.974   3.037   1.196 -0.1119  0.0285 -0.3913
46375SOL    HW246366   5.861   2.935   1.192 -0.4437  0.3336  0.8729
46376SOL     OW46367  11.768   6.120   6.998  0.4544 -0.2458  0.3985
46376SOL    HW146368  11.696   6.171   6.963  0.9305  0.2518  0.1270
46376SOL    HW246369  11.772   6.042   6.942  2.6412  1.5711 -2.2311
46377SOL     OW46370   2.321   8.936   6.290  0.0299  0.2794 -0.1230
46377SOL    HW146371   2.259   8.951   6.362 -0.0489 -0.0981 -0.1130
46377SOL    HW246372   2.365   9.021   6.279 -0.4786  0.5459 -0.1223
46378SOL     OW46373   3.436   8.951  10.650  0.3859  0.0208  0.0208
46378SOL    HW146374   3.505   9.007  10.615  2.7035 -1.9317  1.1636
46378SOL    HW246375   3.402   8.998  10.726  0.1992  1.1542 -0.7421
46379SOL     OW46376   0.624   5.998   3.350  0.4977  0.4192 -0.0341
46379SOL    HW146377   0.562   6.035   3.287 -0.9811 -0.8508  0.6173
46379SOL    HW246378   0.701   6.055   3.344 -0.0559  1.0267 -2.1132
46380SOL     OW46379   8.499   3.498   2.297 -0.1865  0.2908 -0.3935
46380SOL    HW146380   8.555   3.472   2.371 -1.4061  2.2085  1.3157
46380SOL    HW246381   8.540   3.578   2.263 -1.0527  0.8828 -0.0725
46381SOL     OW46382   5.117  12.610   8.215  0.0316  0.4727  0.4789
46381SOL    HW146383   5.115  12.702   8.241 -1.8668  0.5335  0.2959
46381SOL    HW246384   5.167  12.566   8.284 -0.7712  1.3528  1.6548
46382SOL     OW46385   6.476  12.128   5.439 -0.2460  0.3387 -0.0808
46382SOL    HW146386   6.418  12.072   5.491  2.6114 -2.2306  0.5963
46382SOL    HW246387   6.450  12.110   5.348  0.9687 -2.7664  0.0622
46383SOL     OW46388   7.608   1.710   2.825 -0.1227  0.3538 -0.4102
46383SOL    HW146389   7.578   1.657   2.899  0.1159 -0.1562 -0.6735
46383SOL    HW246390   7.642   1.646   2.762  0.6885  0.8634 -0.4958
46384SOL     OW46391   2.111   4.337   4.379 -0.2796  0.1518 -0.4253
46384SOL    HW146392   2.105   4.365   4.470 -1.8945 -2.1879  0.2802
46384SOL    HW246393   2.050   4.393   4.332 -1.6687 -0.5206  0.5118
46385SOL     OW46394  11.435  12.591   6.887  0.0840  0.6576 -0.0185
46385SOL    HW146395  11.491  12.613   6.813 -1.2730  0.8227 -1.0376
46385SOL    HW246396  11.443  12.497   6.898 -1.7822  0.1726 -2.1967
46386SOL     OW46397   0.500  11.747   5.791 -0.0369  0.3154 -0.1006
46386SOL    HW146398   0.536  11.710   5.711 -1.3769  1.3852 -1.2433
46386SOL    HW246399   0.419  11.697   5.806 -0.8860  1.4697 -0.6283
46387SOL     OW46400  10.343   8.914   6.989  0.0571  0.5366 -0.1057
46387SOL    HW146401  10.371   8.963   6.912 -0.4256  1.5075  0.3222
46387SOL    HW246402  10.419   8.862   7.013  0.3114  0.4483 -1.0522
46388SOL     OW46403   9.297   0.886   0.034  0.0405  0.5746 -0.1320
46388SOL    HW146404   9.392   0.897   0.033  0.1164  0.6090  2.2073
46388SOL    HW246405   9.277   0.864   0.125 -2.0043 -1.2577 -0.9477
46389SOL     OW46406   9.400   6.272   0.502 -0.9156 -0.5368  0.0741
46389SOL    HW146407   9.466   6.209   0.475 -2.0672 -1.8454  0.2027
46389SOL    HW246408   9.438   6.357   0.481  0.9404 -1.2180  0.4657
46390SOL     OW46409   4.494   5.724  10.807 -0.2129  0.1025 -0.7768
46390SOL    HW146410   4.453   5.668  10.874  1.3392  2.1019  2.0586
46390SOL    HW246411   4.424   5.739  10.743 -1.5859 -2.4944 -0.0421
46391SOL     OW46412  11.844  10.496   3.367 -0.3448 -0.3662  0.3267
46391SOL    HW146413  11.905  10.470   3.299  1.5885  1.5184  1.2213
46391SOL    HW246414  11.810  10.581   3.337  3.0755  2.2166  3.0239
46392SOL     OW46415   9.603   4.630   0.703  0.1738  0.4010  0.3841
46392SOL    HW146416   9.622   4.546   0.745  0.6015 -0.6158 -1.7408
46392SOL    HW246417   9.544   4.609   0.631  1.2477  1.7128 -0.9519
46393SOL     OW46418  11.918   1.991   2.238  0.0217  0.4176 -0.5118
46393SOL    HW146419  11.894   2.078   2.205  0.5741  0.3281 -1.1686
46393SOL    HW246420  11.892   1.993   2.331  0.8805  1.6162 -0.2686
46394SOL     OW46421   8.784   5.598   5.479  0.1162  0.3941 -0.2173
46394SOL    HW146422   8.841   5.633   5.411  0.1084 -1.8309 -1.4632
46394SOL    HW246423   8.738   5.525   5.437 -1.9342  0.6396  1.4144
46395SOL     OW46424   0.691   2.203   5.221 -0.0961 -0.3069 -0.3178
46395SOL    HW146425   0.624   2.138   5.242 -0.6715 -0.2910 -2.0156
46395SOL    HW246426   0.748   2.160   5.158 -0.5507  0.8511 -1.5515
46396SOL     OW46427  10.854   0.173   7.589 -0.0658  0.6029 -0.2998
46396SOL    HW146428  10.942   0.174   7.553  0.8955 -1.9189  1.6303
46396SOL    HW246429  10.866   0.152   7.682 -2.7010 -0.3664 -0.0766
46397SOL     OW46430   6.618  12.586   0.768 -0.5232 -0.7735  0.5614
46397SOL    HW146431   6.682  12.598   0.698  0.0072 -1.0511  0.9885
46397SOL    HW246432   6.667  12.546   0.840 -0.7629  0.6428  1.5693
46398SOL     OW46433   9.384   0.920   6.327 -0.4026  0.9511  0.5589
46398SOL    HW146434   9.409   0.993   6.270 -2.8603 -0.2001 -2.2681
46398SOL    HW246435   9.294   0.940   6.352 -0.3911 -0.1180  1.5252
46399SOL     OW46436   2.765   0.974  10.846 -0.1162 -0.2078 -0.1586
46399SOL    HW146437   2.705   0.904  10.871  0.0521  0.1420  1.3189
46399SOL    HW246438   2.850   0.947  10.883  0.2140  0.1912 -0.6140
46400SOL     OW46439  11.467   4.932   7.597 -0.0358 -0.1925 -0.0829
46400SOL    HW146440  11.497   4.843   7.574  0.2166 -0.1975  0.2678
46400SOL    HW246441  11.455   4.975   7.512  1.9942  0.1578 -0.2421
46401SOL     OW46442   3.192   0.840   4.833  0.6808 -0.0757 -0.0526
46401SOL    HW146443   3.181   0.882   4.747  1.6830  1.3225  0.4704
46401SOL    HW246444   3.188   0.913   4.896 -1.1244 -1.1841  1.2103
46402SOL     OW46445   4.008   5.702   2.974 -0.3709  0.1689 -0.2892
46402SOL    HW146446   3.922   5.661   2.983 -0.3407 -0.2804 -1.7976
46402SOL    HW246447   4.001   5.756   2.895  1.3316 -1.5479 -1.6939
46403SOL     OW46448   8.275   1.201   0.886  0.2226 -0.0018 -0.2986
46403SOL    HW146449   8.280   1.136   0.816  1.1672 -2.3330  1.7942
46403SOL    HW246450   8.333   1.272   0.858  2.1545 -1.7820 -1.0459
46404SOL     OW46451  12.521   0.091  10.685 -0.2332  0.1117 -0.5118
46404SOL    HW146452  12.599   0.145  10.677 -0.6932  0.7203 -0.9904
46404SOL    HW246453  12.517   0.068  10.778 -0.0249  0.8937 -0.3060
46405SOL     OW46454   8.502  12.222  12.400 -0.2048  0.2378 -0.5813
46405SOL    HW146455   8.446  12.171  12.459  1.1526 -1.1501 -0.4375
46405SOL    HW246456   8.480  12.313  12.419 -1.7086 -0.2541  0.1458
46406SOL     OW46457   0.350  10.229   0.027  0.1598  0.5127 -0.2920
46406SOL    HW146458   0.389  10.141   0.025  0.0514  0.4661 -0.3362
46406SOL    HW246459   0.345  10.254  -0.065 -1.3115 -0.0899 -0.4019
46407SOL     OW46460  11.073   7.730   5.586 -0.5110  0.0934  0.1009
46407SOL    HW146461  11.128   7.763   5.515  1.0415  2.6395  2.2932
46407SOL    HW246462  10.996   7.787   5.584 -0.3297  0.3669  0.5794
46408SOL     OW46463   8.639   1.218   1.601  0.5040  0.1242 -0.1901
46408SOL    HW146464   8.573   1.220   1.670 -0.0800  1.5477 -0.7445
46408SOL    HW246465   8.689   1.298   1.614  0.8967  0.0072 -0.9285
46409SOL     OW46466  10.448   4.295   3.567 -0.1469  0.1002  0.3033
46409SOL    HW146467  10.386   4.232   3.602 -1.5749  2.1698  1.7313
46409SOL    HW246468  10.496   4.327   3.644  0.4850  0.8213 -0.3666
46410SOL     OW46469  12.227   3.737   8.184  0.2020  0.3541  0.6230
46410SOL    HW146470  12.236   3.810   8.123  1.3661  1.0322  1.5468
46410SOL    HW246471  12.137   3.741   8.215  0.0221  0.8808  0.0444
46411SOL     OW46472   4.086   2.975   5.663  0.0167  0.2059 -0.1731
46411SOL    HW146473   4.049   3.064   5.666 -0.4591  0.0212 -0.4760
46411SOL    HW246474   4.013   2.920   5.636 -0.3643 -0.6249  2.2735
46412SOL     OW46475   2.797   8.329   1.106  0.2462  0.6233  0.3060
46412SOL    HW146476   2.719   8.369   1.146  0.2564  1.5530 -0.5517
46412SOL    HW246477   2.833   8.399   1.051  0.7224 -0.3325 -0.6278
46413SOL     OW46478  10.389   9.635  11.155  0.2547  0.5522  0.4057
46413SOL    HW146479  10.346   9.715  11.186  0.2794  0.7351 -0.0218
46413SOL    HW246480  10.447   9.665  11.084 -0.3295  0.0448 -0.3021
46414SOL     OW46481   2.720   5.300   5.984 -0.0978 -0.3175 -0.2711
46414SOL    HW146482   2.744   5.285   6.075 -0.3399  0.0742 -0.1396
46414SOL    HW246483   2.628   5.327   5.987 -0.2373 -0.7411 -0.6727
46415SOL     OW46484  10.783   5.165   3.018 -0.1453 -0.3825 -0.1056
46415SOL    HW146485  10.718   5.118   3.070 -0.8120 -0.7782 -1.2676
46415SOL    HW246486  10.851   5.189   3.081 -2.3750  1.9370  1.6213
46416SOL     OW46487   1.809   0.298   7.085  0.1765 -0.0646  0.3912
46416SOL    HW146488   1.747   0.356   7.130 -2.0958 -1.5874 -0.5982
46416SOL    HW246489   1.801   0.214   7.130 -0.1380 -0.8754 -1.0953
46417SOL     OW46490   9.153   6.832   1.349 -0.2936  0.0356 -0.6596
46417SOL    HW146491   9.205   6.912   1.360 -0.5946 -0.1111  2.6453
46417SOL    HW246492   9.216   6.766   1.320  0.9731  0.3931  1.1137
46418SOL     OW46493  12.427  12.068   6.236 -0.1918  0.3437  0.2451
46418SOL    HW146494  12.435  12.151   6.190  0.2908  0.4550  0.5250
46418SOL    HW246495  12.446  12.089   6.327 -1.3476  0.1709  0.5492
46419SOL     OW46496   3.959   8.831   0.893 -0.1276 -0.1597  0.2487
46419SOL    HW146497   4.037   8.775   0.892  0.9230  1.2642 -1.0846
46419SOL    HW246498   3.917   8.813   0.809  0.1457  0.9150 -0.1311
46420SOL     OW46499  10.517   2.383   9.608  0.3179  0.2794  0.5187
46420SOL    HW146500  10.594   2.377   9.665  1.4696 -2.8982 -1.1304
46420SOL    HW246501  10.445   2.352   9.663  0.8664  0.0157  1.1036
46421SOL     OW46502   8.724   3.107   5.019  0.3099 -0.6811 -0.0535
46421SOL    HW146503   8.678   3.046   5.078 -0.8764 -0.5050 -0.7733
46421SOL    HW246504   8.817   3.092   5.038 -0.0145 -0.0920  2.4224
46422SOL     OW46505  10.201   6.344   6.937  0.5292  0.3732  0.6061
46422SOL    HW146506  10.236   6.403   6.870  0.4235  0.3254  0.5075
46422SOL    HW246507  10.181   6.401   7.011  1.3708  0.3167  0.8860
46423SOL     OW46508   2.887   3.719   0.823  0.0502 -0.3765  0.0880
46423SOL    HW146509   2.832   3.793   0.795 -1.5791 -1.2597  0.8258
46423SOL    HW246510   2.838   3.641   0.796  2.2004 -1.2744 -1.6072
46424SOL     OW46511   8.634   7.705  11.172 -0.3205 -0.5592 -0.5797
46424SOL    HW146512   8.682   7.643  11.117  0.8399 -1.6158  1.5028
46424SOL    HW246513   8.550   7.662  11.189  0.2545 -1.3358  0.3825
46425SOL     OW46514   3.014   0.037   5.058 -0.3149  0.1010  0.7226
46425SOL    HW146515   3.046   0.102   4.995 -1.4327  0.2465  0.2800
46425SOL    HW246516   2.931   0.074   5.089 -2.7595 -2.5754 -2.0201
46426SOL     OW46517   3.766  11.970   0.181  0.1808 -0.1143 -0.4990
46426SOL    HW146518   3.704  12.018   0.126  0.3533 -1.2556 -1.7439
46426SOL    HW246519   3.804  11.904   0.123  0.2680 -1.4821  1.0214
46427SOL     OW46520   9.836   9.703   1.349  0.3014  0.3234 -0.1230
46427SOL    HW146521   9.921   9.664   1.329  0.3319  0.4115 -0.1649
46427SOL    HW246522   9.831   9.780   1.293  0.0318  0.1081 -0.3980
46428SOL     OW46523   1.867   3.171  12.388  0.0194 -0.1282  0.2973
46428SOL    HW146524   1.904   3.115  12.456 -0.7628 -1.3819 -0.2731
46428SOL    HW246525   1.890   3.127  12.306 -0.3013  0.5871 -0.1843
46429SOL     OW46526  10.166  12.029   6.066 -0.3646 -0.2825  0.5183
46429SOL    HW146527  10.119  11.960   6.113  0.8727 -1.3677  0.2227
46429SOL    HW246528  10.246  12.043   6.116 -0.2097  0.3377  0.1104
46430SOL     OW46529  10.762   7.025   4.959 -0.2482 -0.1489  0.3877
46430SOL    HW146530  10.689   7.072   5.001 -1.4738 -1.5537 -0.0617
46430SOL    HW246531  10.720   6.967   4.896  1.4589  0.8008 -1.7648
46431SOL     OW46532   8.410  11.880   4.550  0.2489  0.1938 -0.4153
46431SOL    HW146533   8.439  11.972   4.558  1.0050  0.0074 -0.9044
46431SOL    HW246534   8.465  11.844   4.481  1.0027 -1.0290  0.7609
46432SOL     OW46535  10.631   0.250  10.078  0.0538 -0.2581 -0.5584
46432SOL    HW146536  10.700   0.294  10.127  0.4276 -0.4089 -0.9387
46432SOL    HW246537  10.549   0.283  10.115  0.3311 -0.2531  0.0538
46433SOL     OW46538   3.976  10.582   7.164 -0.0373 -0.5642 -0.8596
46433SOL    HW146539   3.992  10.567   7.257 -1.3721 -1.7796 -0.8027
46433SOL    HW246540   3.947  10.673   7.160 -0.3364 -0.6167 -0.0458
46434SOL     OW46541   0.968   3.604   8.189  0.6366 -0.0147 -0.4497
46434SOL    HW146542   1.031   3.543   8.151  0.1184 -0.7844 -0.1050
46434SOL    HW246543   0.939   3.562   8.270 -0.3537  0.2883 -0.6238
46435SOL     OW46544   2.445   7.531   0.639 -0.1527 -0.0748 -0.0696
46435SOL    HW146545   2.353   7.508   0.641 -0.6104  1.6409  1.0906
46435SOL    HW246546   2.465   7.547   0.547 -2.1958  3.6732 -0.0681
46436SOL     OW46547   5.173  11.779   6.307  0.3703  0.1054  0.6313
46436SOL    HW146548   5.228  11.765   6.384  0.8418 -2.3483 -0.0593
46436SOL    HW246549   5.233  11.774   6.233 -0.0105  2.8414  0.0350
46437SOL     OW46550   4.480   8.003   0.589  0.1750  0.0019 -0.3634
46437SOL    HW146551   4.530   7.923   0.602 -0.1079 -0.2685 -0.9069
46437SOL    HW246552   4.393   7.983   0.622 -0.1164 -0.1824 -1.2162
46438SOL     OW46553   9.380   6.326   2.208 -0.0854  0.3451 -0.2397
46438SOL    HW146554   9.364   6.236   2.179 -2.9595  0.9569 -0.8836
46438SOL    HW246555   9.423   6.369   2.134  0.5661 -0.2774 -0.2274
46439SOL     OW46556   9.290   6.444   5.839  0.3907  0.7689  0.6388
46439SOL    HW146557   9.324   6.378   5.779 -1.8925  1.0324 -1.1105
46439SOL    HW246558   9.243   6.394   5.906 -0.3735  0.5362 -0.0469
46440SOL     OW46559   0.937   1.565   7.529 -0.1196  0.7476  0.0832
46440SOL    HW146560   0.856   1.598   7.568 -0.4359  0.9315 -0.7231
46440SOL    HW246561   0.911   1.484   7.485  0.2542  0.4932  0.3267
46441SOL     OW46562   0.292   2.338  12.586  0.0604 -0.1111  0.8786
46441SOL    HW146563   0.258   2.252  12.561  1.0307 -0.5948  1.1696
46441SOL    HW246564   0.233   2.368  12.655 -0.7130 -0.2059  0.2821
46442SOL     OW46565   5.361  10.291   8.018  0.5544  0.3402 -0.1893
46442SOL    HW146566   5.286  10.304   8.075  2.2304  0.4055  2.1411
46442SOL    HW246567   5.370  10.196   8.011  0.0538  0.3316 -0.7895
46443SOL     OW46568   3.826  12.571  11.108  0.2102  0.0350 -0.2669
46443SOL    HW146569   3.894  12.638  11.103  1.2143 -0.8727  0.7234
46443SOL    HW246570   3.853  12.504  11.044 -0.1598  0.0169 -0.4084
46444SOL     OW46571   2.099  10.428   5.513  0.3893  0.6961  0.4646
46444SOL    HW146572   2.022  10.376   5.491  1.3981 -0.3223 -0.8533
46444SOL    HW246573   2.074  10.478   5.591 -2.0535  1.4132 -0.6811
46445SOL     OW46574  12.703   6.849  10.407  0.0316 -0.1315 -0.6460
46445SOL    HW146575  12.667   6.766  10.375  2.1758 -1.0348 -0.9292
46445SOL    HW246576  12.723   6.833  10.499  0.2039  0.1713 -0.6290
46446SOL     OW46577   4.200  12.636   0.341 -0.0713  0.2368  0.0425
46446SOL    HW146578   4.198  12.541   0.334  1.0218  0.2000  0.0728
46446SOL    HW246579   4.279  12.655   0.392 -1.4136  1.0646  1.8918
46447SOL     OW46580  12.073   1.950   6.246  0.1027  0.3099  0.7551
46447SOL    HW146581  12.148   1.890   6.244 -1.6909 -2.0272 -1.2504
46447SOL    HW246582  12.057   1.973   6.155 -0.5721  2.2751  1.3010
46448SOL     OW46583   6.889   0.489   8.562 -0.1622  0.1353 -0.0530
46448SOL    HW146584   6.869   0.505   8.470 -1.7479 -0.1838  0.1980
46448SOL    HW246585   6.859   0.568   8.608 -0.8896 -0.3602  0.3498
46449SOL     OW46586   0.661   7.970   5.771 -0.0337 -0.4992  0.4707
46449SOL    HW146587   0.741   7.922   5.793  1.0404  0.4524 -1.1317
46449SOL    HW246588   0.601   7.903   5.739 -0.4333 -1.4190  2.9357
46450SOL     OW46589   2.211   6.023   9.998  0.3582  0.1318  0.3764
46450SOL    HW146590   2.201   5.943   9.946  0.6180  0.5029 -0.2622
46450SOL    HW246591   2.303   6.025  10.020  0.8536  1.3945 -1.5467
46451SOL     OW46592   6.096   8.070   3.833  0.2281  0.5272  0.5624
46451SOL    HW146593   6.117   7.989   3.787  0.9750  1.1960 -0.3277
46451SOL    HW246594   6.118   8.052   3.925  1.3651  0.0376  0.2105
46452SOL     OW46595   2.113   4.171  12.214  0.0819 -0.2992  0.4574
46452SOL    HW146596   2.147   4.248  12.261  1.3403 -0.8173  0.4332
46452SOL    HW246597   2.019   4.186  12.209  0.3831  1.6788 -0.3051
46453SOL     OW46598   5.329   0.322   6.906  0.3554 -0.0518 -0.2589
46453SOL    HW146599   5.243   0.295   6.937  0.0733 -0.0313 -0.9936
46453SOL    HW246600   5.391   0.267   6.955 -0.0735 -0.1059  0.2269
46454SOL     OW46601   0.779   4.102   8.060  0.2743  0.0191  0.5724
46454SOL    HW146602   0.810   4.045   7.988 -0.6285  1.4715 -1.0414
46454SOL    HW246603   0.704   4.148   8.023  0.2265  1.3680  2.2390
46455SOL     OW46604  10.034   8.212  10.043  0.0738  0.0907 -0.4071
46455SOL    HW146605   9.999   8.218  10.131 -1.4236  1.5524 -1.0673
46455SOL    HW246606   9.975   8.152   9.997 -1.7896  2.6621 -1.5606
46456SOL     OW46607   9.446  10.317  10.059  0.3386  0.2473 -0.0137
46456SOL    HW146608   9.425  10.294  10.149  0.2882 -1.5365 -0.4457
46456SOL    HW246609   9.379  10.381  10.034 -0.0011  0.3001  1.0030
46457SOL     OW46610   0.337  11.027  11.061  0.0499 -0.0114  0.3846
46457SOL    HW146611   0.362  11.118  11.041 -2.5479  0.5201 -0.8438
46457SOL    HW246612   0.242  11.030  11.070 -0.1193 -2.6560  0.1792
46458SOL     OW46613   5.416   5.201   0.841  0.0190 -0.2774  0.0152
46458SOL    HW146614   5.408   5.110   0.869 -0.4712  0.1244  1.2386
46458SOL    HW246615   5.498   5.231   0.879 -1.3428  0.7018  2.4379
46459SOL     OW46616   8.121   3.835   0.084 -0.4183 -0.2251 -0.7828
46459SOL    HW146617   8.188   3.767   0.080 -0.2995 -0.0822 -1.4082
46459SOL    HW246618   8.168   3.916   0.061 -0.4419  0.1565  0.4737
46460SOL     OW46619  10.735   7.516   0.052  0.5865 -0.1287 -0.0758
46460SOL    HW146620  10.730   7.423   0.071  3.8044 -0.1451  1.2029
46460SOL    HW246621  10.810   7.526  -0.007 -1.4377  1.4270 -2.6372
46461SOL     OW46622   0.873   2.275   2.062  0.0460  0.1617 -0.1026
46461SOL    HW146623   0.881   2.253   2.155  1.2384 -1.7831 -0.6177
46461SOL    HW246624   0.799   2.223   2.031 -0.4602  0.9366 -0.2259
46462SOL     OW46625  10.554   8.046   6.715 -0.3164  0.5147  0.1363
46462SOL    HW146626  10.499   8.124   6.707 -0.1900  0.7410  1.2874
46462SOL    HW246627  10.639   8.072   6.680 -1.3623 -0.4112 -3.5397
46463SOL     OW46628   4.947  10.398   6.781  0.0251 -0.2995  0.1617
46463SOL    HW146629   4.967  10.454   6.856  0.3096 -0.2465  0.0448
46463SOL    HW246630   4.906  10.321   6.819 -0.0907 -0.1476  0.3486
46464SOL     OW46631  10.450   2.893  12.532  0.0954  0.5936  0.4362
46464SOL    HW146632  10.426   2.983  12.551  0.8364  0.7497  0.6674
46464SOL    HW246633  10.373   2.856  12.488 -0.9998  0.7339  2.1592
46465SOL     OW46634   4.294   1.261   9.603  0.3491 -0.5225  0.0446
46465SOL    HW146635   4.356   1.249   9.532  1.7773 -0.4230  1.2357
46465SOL    HW246636   4.236   1.185   9.598 -0.1292 -0.0924 -1.7139
46466SOL     OW46637   0.562  11.086   8.207 -0.2016  0.2509  0.3456
46466SOL    HW146638   0.603  11.019   8.261  0.6646  0.4576 -0.0378
46466SOL    HW246639   0.477  11.102   8.248 -0.5926 -1.3590  0.2149
46467SOL     OW46640   8.396  12.482  12.443  0.5691  0.1342  0.0618
46467SOL    HW146641   8.464  12.490  12.509 -0.0978 -1.0014  0.9255
46467SOL    HW246642   8.383  12.571  12.411  2.5945  0.3385 -0.2932
46468SOL     OW46643   9.824   4.446  12.131  0.3478  0.1600  0.4078
46468SOL    HW146644   9.838   4.355  12.104  1.0289  0.6092 -0.8756
46468SOL    HW246645   9.822   4.443  12.226 -0.4383 -1.3037  0.3828
46469SOL     OW46646   2.544   4.992   9.468  0.0623 -0.5293  0.0976
46469SOL    HW146647   2.453   5.020   9.474 -0.0799 -1.0328  0.4162
46469SOL    HW246648   2.577   5.033   9.388 -0.3611 -0.1199  0.1287
46470SOL     OW46649   4.209   6.167   9.380  0.3458  0.1374  0.2460
46470SOL    HW146650   4.154   6.116   9.439  0.9761 -2.0187 -0.9222
46470SOL    HW246651   4.252   6.102   9.325  4.3451  1.6465  1.2434
46471SOL     OW46652   6.247   5.003   6.337  0.0460 -0.6029 -0.1419
46471SOL    HW146653   6.307   5.076   6.354  0.1013 -0.2253 -1.8003
46471SOL    HW246654   6.252   4.949   6.416 -0.4398  1.4680  1.3768
46472SOL     OW46655   8.926   5.832   1.615  0.3744 -0.4347  0.0790
46472SOL    HW146656   8.928   5.925   1.592 -3.2594 -0.3903 -0.6271
46472SOL    HW246657   8.902   5.831   1.707 -0.1134 -0.6499 -0.0477
46473SOL     OW46658   7.339   8.536   4.480 -0.0434 -0.1407  0.2435
46473SOL    HW146659   7.419   8.542   4.428 -0.5783  1.6676 -0.4614
46473SOL    HW246660   7.369   8.540   4.570  0.6968  0.5541 -0.0132
46474SOL     OW46661   7.697   9.267  11.937  0.4732  0.3948 -0.5899
46474SOL    HW146662   7.622   9.248  11.880  0.2237 -0.4827  0.0045
46474SOL    HW246663   7.673   9.349  11.981  0.2598  0.5895 -1.0611
46475SOL     OW46664   7.438   9.402   1.250 -0.7813 -0.2063  0.4776
46475SOL    HW146665   7.462   9.333   1.312 -0.5775 -0.0256  0.6021
46475SOL    HW246666   7.522   9.441   1.223 -0.8528 -0.4438 -0.1009
46476SOL     OW46667   5.454  11.258   9.305  0.2593 -0.1280  0.3417
46476SOL    HW146668   5.409  11.241   9.222  1.7825 -2.2196 -0.1291
46476SOL    HW246669   5.390  11.233   9.372  0.1057 -1.5402 -0.2874
46477SOL     OW46670   7.848   0.861  11.750 -0.0586  0.3702  0.0012
46477SOL    HW146671   7.928   0.849  11.801 -0.5761 -2.7617  0.3171
46477SOL    HW246672   7.790   0.791  11.780 -1.4795  0.1643 -2.8638
46478SOL     OW46673   2.987   4.589   4.040 -0.1704  0.0742  0.3328
46478SOL    HW146674   2.993   4.677   4.076 -1.2513 -0.1301  1.0733
46478SOL    HW246675   2.954   4.600   3.951 -2.1227  0.3442  1.0446
46479SOL     OW46676   1.106   1.977   9.072 -0.1086  0.0064  0.1885
46479SOL    HW146677   1.159   1.965   8.993 -0.0701  3.7248 -0.5351
46479SOL    HW246678   1.169   1.998   9.140 -0.3688  0.6479  0.2406
46480SOL     OW46679   9.144   3.147   2.906 -0.6372 -0.0416  0.0770
46480SOL    HW146680   9.202   3.135   2.981  1.7170  1.7635 -1.3110
46480SOL    HW246681   9.128   3.241   2.903 -0.3363 -0.0137 -1.8845
46481SOL     OW46682   6.248   3.993   6.070  0.1175  0.1272  0.6295
46481SOL    HW146683   6.249   4.063   6.005  1.7838  0.4964  1.0141
46481SOL    HW246684   6.207   3.919   6.024  1.7608  0.1893 -1.0647
46482SOL     OW46685  11.652   1.225   0.043 -0.1860 -0.7350  0.3048
46482SOL    HW146686  11.740   1.194   0.023  0.0801 -0.3111  0.8079
46482SOL    HW246687  11.629   1.281  -0.032  0.5118  0.2357  0.7909
46483SOL     OW46688   8.116   3.955   7.546 -0.2609  0.6431 -0.3721
46483SOL    HW146689   8.075   4.007   7.477 -1.3222 -0.0767 -0.2981
46483SOL    HW246690   8.205   3.991   7.553 -0.7634  2.0135 -0.7553
46484SOL     OW46691   5.101  12.667   1.253 -0.2679 -0.5008  0.4546
46484SOL    HW146692   5.088  12.575   1.274 -1.6162  0.0571  2.3816
46484SOL    HW246693   5.195  12.676   1.241  0.0442 -1.8828  1.5825
46485SOL     OW46694   6.919  12.000   5.498  0.3314  0.3789 -0.3133
46485SOL    HW146695   6.849  12.057   5.466  0.1471 -0.6991 -1.9556
46485SOL    HW246696   7.000  12.043   5.469  0.2926  0.9232  0.3812
46486SOL     OW46697  10.118   9.481   5.628  0.3218 -0.3468  0.7696
46486SOL    HW146698  10.043   9.440   5.586 -1.1043  0.8375  2.0198
46486SOL    HW246699  10.089   9.499   5.718  1.3887  1.8573  0.7606
46487SOL     OW46700   0.028   6.228   3.563  0.1078  0.0903  0.1796
46487SOL    HW146701   0.027   6.133   3.547 -1.0557  0.2260 -0.6377
46487SOL    HW246702  -0.061   6.248   3.590  0.1072  1.1150 -0.5760
46488SOL     OW46703   4.663   6.267  11.237  0.1108 -0.1860 -0.2538
46488SOL    HW146704   4.611   6.204  11.289  0.6531 -0.6967 -0.3228
46488SOL    HW246705   4.639   6.249  11.146 -0.9363  0.7953 -0.1953
46489SOL     OW46706   9.361   1.002   3.848 -0.1786  0.8506  0.0715
46489SOL    HW146707   9.281   0.950   3.857  0.6806 -0.3536  1.0269
46489SOL    HW246708   9.420   0.969   3.916  1.3554  1.3117 -0.9733
46490SOL     OW46709   3.575  11.282   9.331 -0.2441  0.0243  0.0170
46490SOL    HW146710   3.562  11.289   9.425 -1.1568 -2.2781  0.1357
46490SOL    HW246711   3.500  11.231   9.300  0.4349  0.0695 -1.8437
46491SOL     OW46712   3.183   4.923   8.593  0.2835  0.1687  0.4035
46491SOL    HW146713   3.096   4.950   8.622  0.1473  0.0335  0.1182
46491SOL    HW246714   3.220   4.876   8.668 -0.3840 -0.8970  0.0806
46492SOL     OW46715   9.083   8.892  12.538 -0.3125  0.2219  0.5354
46492SOL    HW146716   9.027   8.888  12.460  0.3478  1.8157 -0.0527
46492SOL    HW246717   9.067   8.979  12.575 -0.4714 -0.4343  2.0987
46493SOL     OW46718   8.673   7.366   8.805 -0.1275 -0.0609  0.7005
46493SOL    HW146719   8.614   7.321   8.744  0.6411 -0.4794  0.2488
46493SOL    HW246720   8.625   7.444   8.832 -0.5341  0.0746 -0.3516
46494SOL     OW46721  10.453   9.367  10.208 -0.5393  0.0285  0.2715
46494SOL    HW146722  10.479   9.281  10.176 -0.4415  0.6879 -1.5809
46494SOL    HW246723  10.500   9.377  10.291  1.7242 -0.5803 -0.8567
46495SOL     OW46724  10.386   5.245   7.433 -0.7144  0.1999  0.5493
46495SOL    HW146725  10.350   5.180   7.494 -1.2096  0.2180  0.2780
46495SOL    HW246726  10.328   5.321   7.443 -0.5210  0.3664  0.3897
46496SOL     OW46727  10.809   1.586   8.431 -0.3015  0.1238  0.0655
46496SOL    HW146728  10.775   1.572   8.519  0.6514  1.3289  0.6766
46496SOL    HW246729  10.896   1.625   8.446  0.7586 -1.5529 -1.4008
46497SOL     OW46730   0.086  10.415   7.853 -0.2319 -0.0088  0.5832
46497SOL    HW146731   0.141  10.492   7.868  0.5043 -0.4578  0.2291
46497SOL    HW246732   0.036  10.438   7.774  0.1470  0.0292  0.3472
46498SOL     OW46733  10.199   3.709   2.370 -0.1737  0.4378  0.5175
46498SOL    HW146734  10.255   3.631   2.361  0.2198  0.8650 -0.9222
46498SOL    HW246735  10.168   3.705   2.461  0.8530 -0.7127  0.8504
46499SOL     OW46736   1.047   3.110  12.509 -0.0864 -0.5473 -0.5849
46499SOL    HW146737   1.025   3.031  12.459  0.2456  0.0268 -1.6765
46499SOL    HW246738   1.055   3.179  12.443  0.9201  0.1297  0.1999
46500SOL     OW46739   5.360   7.389   3.380  0.2539 -0.0765 -0.0121
46500SOL    HW146740   5.330   7.318   3.437 -0.2972  2.0238  2.4922
46500SOL    HW246741   5.284   7.411   3.327  0.4611 -1.3676 -0.8892
46501SOL     OW46742  10.418   0.709   9.920 -0.4733 -0.1859  0.2410
46501SOL    HW146743  10.438   0.712   9.827  2.9753  0.6355  0.8870
46501SOL    HW246744  10.379   0.794   9.939 -1.4670 -0.4627 -0.4320
46502SOL     OW46745   6.451   7.782  12.054 -0.0131 -0.1604 -0.3135
46502SOL    HW146746   6.430   7.829  12.134 -1.1815 -0.5659 -0.3627
46502SOL    HW246747   6.446   7.848  11.985 -0.8220 -0.1635 -0.2736
46503SOL     OW46748  11.950   4.946   4.717 -0.2316 -0.8965  1.0986
46503SOL    HW146749  11.856   4.938   4.735 -0.3930  0.5768  1.0237
46503SOL    HW246750  11.955   4.971   4.625  0.1148  0.8911  1.5637
46504SOL     OW46751   2.065   9.119  11.501  1.0527  0.7429  0.3556
46504SOL    HW146752   2.123   9.123  11.576 -0.1281 -0.7258  1.4131
46504SOL    HW246753   2.000   9.052  11.524  0.6012  0.2829 -1.9312
46505SOL     OW46754   6.728   2.952  10.965 -0.4569  0.4383  0.3428
46505SOL    HW146755   6.814   2.916  10.943 -0.8967 -0.1775 -0.4241
46505SOL    HW246756   6.741   2.996  11.048 -0.0342 -2.1582  1.7751
46506SOL     OW46757   8.038  11.123   4.607 -0.0451 -0.8585  0.2137
46506SOL    HW146758   7.978  11.094   4.538  0.5814 -0.5887 -0.4604
46506SOL    HW246759   7.981  11.155   4.677 -0.6877 -0.3316 -0.5305
46507SOL     OW46760   9.138   3.569   7.329  0.5582 -0.4025  0.2664
46507SOL    HW146761   9.154   3.565   7.235  2.1220  0.3943  0.4565
46507SOL    HW246762   9.134   3.663   7.348 -1.7167 -0.5468  0.7238
46508SOL     OW46763   3.281   2.437   9.468  0.1264  0.3973 -0.2399
46508SOL    HW146764   3.302   2.362   9.523  0.1732  1.1180  0.7638
46508SOL    HW246765   3.350   2.439   9.402  0.9295  0.3629  0.5760
46509SOL     OW46766   4.103   6.808   0.047  0.4407 -0.0122  0.1852
46509SOL    HW146767   4.011   6.830   0.034  0.0496  0.1355  2.7829
46509SOL    HW246768   4.123   6.839   0.135  3.3041  0.9450 -0.6935
46510SOL     OW46769  12.403   4.776   1.818 -0.7296 -0.4461  0.0545
46510SOL    HW146770  12.411   4.844   1.751 -1.4737 -2.0978 -1.7968
46510SOL    HW246771  12.479   4.720   1.805 -0.1556 -0.0591  1.5222
46511SOL     OW46772   3.959   2.523   8.339 -0.7071  0.2555 -0.0653
46511SOL    HW146773   4.036   2.467   8.336 -0.1346  1.0544 -1.4527
46511SOL    HW246774   3.932   2.531   8.248 -1.7929  0.8443  0.2920
46512SOL     OW46775   5.854  11.703  10.914 -0.0620 -0.0483  0.6325
46512SOL    HW146776   5.894  11.637  10.857  0.2495 -0.0234  0.8219
46512SOL    HW246777   5.860  11.665  11.002 -1.5849 -0.6047  0.5228
46513SOL     OW46778   1.789   0.042   5.516 -0.0315  0.0540  1.0241
46513SOL    HW146779   1.837  -0.018   5.459 -0.1674 -0.1541  1.1253
46513SOL    HW246780   1.755   0.109   5.457  2.4980  1.6638  1.2484
46514SOL     OW46781  12.530   0.671   0.523  0.9025  0.0137  0.5839
46514SOL    HW146782  12.620   0.696   0.501  1.1188 -2.2075 -1.3900
46514SOL    HW246783  12.505   0.608   0.456 -1.1956 -1.4936  2.6188
46515SOL     OW46784   4.981   1.116  12.639  0.5621 -0.5402 -0.3770
46515SOL    HW146785   4.942   1.184  12.695  1.6977  0.9247 -1.2700
46515SOL    HW246786   4.986   1.039  12.694 -1.0843 -0.0033  0.5911
46516SOL     OW46787   1.883   9.598   4.696 -0.1718  0.5464 -0.1990
46516SOL    HW146788   1.888   9.643   4.611  3.1705  1.2314  0.2178
46516SOL    HW246789   1.816   9.645   4.745 -0.1687  1.9484 -1.4898
46517SOL     OW46790   0.797   8.518   1.771  0.1602  0.3804  0.3626
46517SOL    HW146791   0.798   8.429   1.735 -0.6043  0.9608 -1.1785
46517SOL    HW246792   0.884   8.553   1.750  0.4295  0.0366  0.8901
46518SOL     OW46793   6.489   6.458  10.923 -0.2154 -0.5060  0.0097
46518SOL    HW146794   6.493   6.366  10.948 -0.1219 -0.5853 -0.2952
46518SOL    HW246795   6.426   6.496  10.983  1.2354 -0.3350  1.4911
46519SOL     OW46796   9.910   1.989   5.158 -0.5027  0.3834  0.3278
46519SOL    HW146797   9.992   1.988   5.207  0.1684 -0.8177 -0.7512
46519SOL    HW246798   9.937   1.983   5.066 -1.7428  2.0982 -0.1977
46520SOL     OW46799   8.265   5.630   6.167  0.0140  0.1266  0.1412
46520SOL    HW146800   8.330   5.641   6.237 -0.6541  1.0251  0.6403
46520SOL    HW246801   8.286   5.698   6.104 -0.9164  0.9432  0.6902
46521SOL     OW46802   2.627   8.276   6.269  0.3509 -0.7072 -0.2962
46521SOL    HW146803   2.539   8.312   6.253  0.1236 -0.3595  1.5660
46521SOL    HW246804   2.668   8.277   6.182 -0.5064  1.7366 -0.7681
46522SOL     OW46805   5.956   3.432   4.697 -0.2627  0.0649 -0.7502
46522SOL    HW146806   6.002   3.511   4.726 -1.3880  0.3310  0.4123
46522SOL    HW246807   5.863   3.454   4.707 -0.6225 -0.9837 -1.5962
46523SOL     OW46808   2.892   2.160  10.836 -0.3706  0.1104 -0.5361
46523SOL    HW146809   2.973   2.110  10.825  0.1104 -0.2068  3.1146
46523SOL    HW246810   2.822   2.096  10.823  0.0114 -0.1502 -1.3869
46524SOL     OW46811   5.009   0.595   1.889  0.0576  0.5055  0.6513
46524SOL    HW146812   5.058   0.609   1.808 -2.1451 -0.9905 -1.0710
46524SOL    HW246813   5.076   0.586   1.957  2.0510  0.5896 -1.1937
46525SOL     OW46814   9.213   8.727   1.654  0.0658  0.0329  0.2455
46525SOL    HW146815   9.302   8.696   1.635  0.2618  0.6368  0.1514
46525SOL    HW246816   9.225   8.818   1.681 -0.2148 -0.6641  3.0038
46526SOL     OW46817   5.761  10.315   6.653 -0.0014  0.4665 -0.0985
46526SOL    HW146818   5.732  10.327   6.743  0.1181  1.4469 -0.1751
46526SOL    HW246819   5.816  10.392   6.635  0.8984 -0.2846 -0.6394
46527SOL     OW46820   3.946   0.657  11.011  0.4346  0.7322 -1.2624
46527SOL    HW146821   4.022   0.628  11.060  0.6599 -0.2925 -2.1794
46527SOL    HW246822   3.980   0.681  10.925 -0.2239  0.5695 -1.5765
46528SOL     OW46823  12.277   7.878   1.006  0.1869 -0.1375  0.0608
46528SOL    HW146824  12.204   7.817   1.002  1.0940 -1.2052 -2.2436
46528SOL    HW246825  12.237   7.964   1.022 -1.6060 -0.6653 -1.2941
46529SOL     OW46826   9.908   8.220  10.810  0.9355  0.2733 -0.3472
46529SOL    HW146827   9.963   8.144  10.828 -0.6738 -0.9316 -0.2863
46529SOL    HW246828   9.833   8.185  10.762 -1.1681  1.3139  1.9502
46530SOL     OW46829   4.709   3.123   4.061 -0.3749 -0.2428 -0.3238
46530SOL    HW146830   4.751   3.041   4.089 -1.4400 -0.7205 -0.0647
46530SOL    HW246831   4.782   3.183   4.047  0.3229 -0.1077  2.9365
46531SOL     OW46832   2.429  12.088  12.244  0.1638 -0.3318  0.3013
46531SOL    HW146833   2.506  12.032  12.255  0.7580  0.3617 -0.1617
46531SOL    HW246834   2.369  12.036  12.192  0.1446 -1.0418  1.0218
46532SOL     OW46835   4.388  12.114   2.406  0.3221 -0.0614  1.1764
46532SOL    HW146836   4.351  12.109   2.318  1.2396 -1.6271  0.8257
46532SOL    HW246837   4.325  12.165   2.457 -1.2340 -0.8484  0.1062
46533SOL     OW46838  11.053  12.499   5.321  0.0788  0.0949  0.1225
46533SOL    HW146839  11.104  12.474   5.245 -1.4743  0.3074 -1.0534
46533SOL    HW246840  11.068  12.430   5.385  0.9624 -0.3904 -0.5937
46534SOL     OW46841   8.897  10.614   6.009 -0.2649 -0.2734 -0.4008
46534SOL    HW146842   8.879  10.675   5.937  1.6136 -1.2342 -1.7798
46534SOL    HW246843   8.846  10.647   6.082  0.3109  2.6999 -1.2184
46535SOL     OW46844   9.221   6.265  10.597 -0.3390  0.1583 -0.6519
46535SOL    HW146845   9.265   6.181  10.586  2.1548  1.3695 -0.6024
46535SOL    HW246846   9.283   6.330  10.563 -2.1758  2.0039 -0.6949
46536SOL     OW46847  12.506   9.167   7.734  0.0453 -0.3958 -0.2550
46536SOL    HW146848  12.580   9.130   7.685  0.8177  0.6355  0.1120
46536SOL    HW246849  12.467   9.091   7.778  0.6880 -1.0039 -0.7096
46537SOL     OW46850   5.242   7.040   0.720  0.4827 -0.1423  0.0813
46537SOL    HW146851   5.299   6.997   0.785  2.0219  1.7207  0.0548
46537SOL    HW246852   5.269   7.132   0.721  0.1421  0.0824 -2.7690
46538SOL     OW46853   0.415   1.320   2.525 -0.2960 -0.6722 -0.1864
46538SOL    HW146854   0.397   1.308   2.618 -0.4882  0.0369 -0.1248
46538SOL    HW246855   0.363   1.253   2.481 -1.2219 -0.1750  0.1384
46539SOL     OW46856   2.953   2.168   3.616  0.6982 -0.0984  0.1419
46539SOL    HW146857   2.971   2.108   3.689  3.2994 -0.0472 -0.3658
46539SOL    HW246858   2.861   2.190   3.626  0.0656 -2.8143  1.3694
46540SOL     OW46859   4.607   4.378   5.189 -0.3262 -0.6118  0.5335
46540SOL    HW146860   4.589   4.400   5.098  1.8886  1.5458  0.5131
46540SOL    HW246861   4.636   4.287   5.186  1.8241  0.0400 -1.3283
46541SOL     OW46862   7.248   8.653   0.665 -0.1176  0.0100  0.2159
46541SOL    HW146863   7.293   8.690   0.741 -0.5637 -0.6005  0.7867
46541SOL    HW246864   7.164   8.698   0.662  0.7565  1.6498 -1.2589
46542SOL     OW46865  12.578  11.652   9.468  0.1553  0.5171  0.0014
46542SOL    HW146866  12.544  11.705   9.540  0.8384  0.8184  0.1106
46542SOL    HW246867  12.535  11.689   9.390 -3.6788 -2.2914  0.5145
46543SOL     OW46868   9.136  10.800   7.608 -0.1445 -0.5949  0.1849
46543SOL    HW146869   9.122  10.875   7.551  0.4038 -2.3235 -2.4161
46543SOL    HW246870   9.217  10.819   7.654  0.0905  0.3295 -0.5703
46544SOL     OW46871  10.799   6.855   4.046 -0.2818 -0.3836  0.1101
46544SOL    HW146872  10.780   6.919   4.114  1.0208  0.4625 -0.2814
46544SOL    HW246873  10.721   6.800   4.042 -2.4460  2.4751 -1.0001
46545SOL     OW46874   4.160  12.000   2.877 -0.4001  0.1698  0.2632
46545SOL    HW146875   4.107  11.924   2.853  0.3542 -0.4415  0.5151
46545SOL    HW246876   4.177  11.988   2.971 -0.4397  0.7587  0.3503
46546SOL     OW46877  11.248   7.263   3.995  0.4391 -0.4597 -0.3021
46546SOL    HW146878  11.161   7.282   3.959  1.0696  0.3972 -1.4557
46546SOL    HW246879  11.263   7.333   4.058  0.7285  0.0507 -0.9210
46547SOL     OW46880   4.712   3.119  10.997 -0.2819 -0.1025  0.1235
46547SOL    HW146881   4.722   3.214  10.990  0.5193 -0.2512 -1.0062
46547SOL    HW246882   4.668   3.093  10.916 -1.8340 -0.5382  1.0782
46548SOL     OW46883  11.415   2.286   2.944  0.0479  0.0052  0.3369
46548SOL    HW146884  11.411   2.247   2.857  3.4462 -0.1506  0.1214
46548SOL    HW246885  11.326   2.319   2.959 -1.1024 -1.4494 -2.4356
46549SOL     OW46886  10.580   9.028   8.743  0.0439 -0.2144 -0.0417
46549SOL    HW146887  10.488   9.009   8.761  0.3507 -0.5953  1.3292
46549SOL    HW246888  10.582   9.120   8.717 -0.6681 -0.0347  0.5059
46550SOL     OW46889   0.532   0.556   4.302 -0.0632 -0.6658  0.2090
46550SOL    HW146890   0.484   0.634   4.273  1.1073 -0.1601 -0.4620
46550SOL    HW246891   0.466   0.500   4.341 -0.8507  0.9550  1.3307
46551SOL     OW46892  12.663   3.148   6.983 -0.0210  0.0943  0.2199
46551SOL    HW146893  12.692   3.061   6.954  1.4422  0.7449 -0.3635
46551SOL    HW246894  12.713   3.164   7.063 -0.7927  0.1316  0.7030
46552SOL     OW46895   8.827  12.295   6.012 -0.6895  0.0266  0.2525
46552SOL    HW146896   8.747  12.302   5.961 -1.0993 -2.2285  0.4713
46552SOL    HW246897   8.799  12.301   6.103 -0.6779 -0.9750  0.3378
46553SOL     OW46898   6.046   4.892   9.623 -0.2862 -1.0811  0.5762
46553SOL    HW146899   6.135   4.857   9.630  0.2679 -0.0421 -0.7793
46553SOL    HW246900   6.009   4.849   9.546 -0.6743 -0.9091  0.6625
46554SOL     OW46901  12.526  11.397   4.417 -0.0594 -0.2880  0.2777
46554SOL    HW146902  12.558  11.483   4.389  1.5476 -1.0001 -0.2289
46554SOL    HW246903  12.565  11.385   4.504 -0.3348 -0.4828  0.3739
46555SOL     OW46904   5.476   7.263  11.940 -0.0690  0.2800 -0.6872
46555SOL    HW146905   5.453   7.327  12.008 -1.9641 -1.0312 -0.0150
46555SOL    HW246906   5.445   7.303  11.859 -0.6874  0.4795 -0.3564
46556SOL     OW46907   8.669  12.005  12.079  0.3759  0.1171  0.4385
46556SOL    HW146908   8.686  12.066  12.151  1.4593 -0.6908  0.8915
46556SOL    HW246909   8.581  11.971  12.098  0.6604 -0.1233  1.4309
46557SOL     OW46910   1.352   8.488  11.368  0.9420  0.1357  0.5308
46557SOL    HW146911   1.283   8.475  11.433  0.6828 -0.8521  0.0901
46557SOL    HW246912   1.398   8.567  11.396 -0.8223  1.2424  0.4336
46558SOL     OW46913   1.121   3.107   9.912 -0.0537 -0.2093  0.0715
46558SOL    HW146914   1.215   3.092   9.901  0.1517  0.3822  0.9046
46558SOL    HW246915   1.096   3.050   9.985 -0.3643 -0.4234 -0.1991
46559SOL     OW46916   1.994   0.043   7.882 -0.2926  0.1739 -0.4313
46559SOL    HW146917   1.951   0.085   7.808 -0.8525 -3.0349 -2.1115
46559SOL    HW246918   1.923   0.001   7.931  0.3699 -0.5733 -0.0780
46560SOL     OW46919   7.203   2.120   9.388  0.8563 -0.4238 -0.5847
46560SOL    HW146920   7.137   2.150   9.326 -0.7227 -0.3442  1.0620
46560SOL    HW246921   7.220   2.029   9.363 -0.1243 -0.5499 -0.8525
46561SOL     OW46922   1.325   1.292   7.899 -0.0982  0.1608  0.6394
46561SOL    HW146923   1.343   1.323   7.810 -0.5683 -1.0768  0.0848
46561SOL    HW246924   1.356   1.362   7.956 -1.1361  1.6240 -0.5341
46562SOL     OW46925   6.513   7.419   6.882  0.2873 -0.5105  0.7902
46562SOL    HW146926   6.447   7.385   6.943 -0.0832 -0.7445  0.2700
46562SOL    HW246927   6.532   7.507   6.914  0.2338 -0.7011  1.3516
46563SOL     OW46928   1.707   2.415   7.515  0.3668  0.3604  0.2425
46563SOL    HW146929   1.684   2.490   7.569 -1.0146 -1.1468  1.8854
46563SOL    HW246930   1.733   2.347   7.578  1.9921 -0.4377 -1.1954
46564SOL     OW46931   9.282   1.902   0.519 -0.1407 -0.2583  0.2940
46564SOL    HW146932   9.351   1.849   0.558  0.0023 -0.5417 -0.3289
46564SOL    HW246933   9.212   1.903   0.585  0.3357 -0.2150  0.8047
46565SOL     OW46934  11.989  12.376   2.372  0.0083 -0.1882 -0.3127
46565SOL    HW146935  12.074  12.363   2.330  0.2915  1.7129 -0.4057
46565SOL    HW246936  12.009  12.384   2.465 -0.2654 -1.1768 -0.1508
46566SOL     OW46937   5.230   4.895   4.265  0.0736 -0.3748  0.5193
46566SOL    HW146938   5.315   4.881   4.307  0.1200 -4.5623 -0.6152
46566SOL    HW246939   5.170   4.837   4.311 -1.9019  1.3349  0.2714
46567SOL     OW46940  12.089   7.033   5.408 -0.1307  0.5680 -0.1452
46567SOL    HW146941  12.113   7.108   5.353 -0.2297  1.6530  1.2355
46567SOL    HW246942  12.173   6.995   5.435 -0.0505  1.0124  0.2398
46568SOL     OW46943   2.483   2.475   1.273 -0.1198  0.4785  0.2811
46568SOL    HW146944   2.539   2.397   1.272  0.1153  0.6512  0.0754
46568SOL    HW246945   2.419   2.459   1.205 -0.7112 -0.0010  0.9289
46569SOL     OW46946   3.099  11.431  11.845 -0.0082 -0.3204  0.7138
46569SOL    HW146947   3.097  11.502  11.782 -2.0388  0.3986  1.5044
46569SOL    HW246948   3.155  11.364  11.805  1.5770  1.4903 -0.2370
46570SOL     OW46949  10.321   8.303   6.019 -0.1175 -0.0853 -0.3479
46570SOL    HW146950  10.362   8.321   5.934 -0.0216  0.0861 -0.2657
46570SOL    HW246951  10.286   8.387   6.047 -1.2440 -0.3906 -0.7926
46571SOL     OW46952  12.631   7.961  11.654 -0.4592  0.4564 -0.0672
46571SOL    HW146953  12.700   7.932  11.595 -3.1981 -0.1437 -3.3084
46571SOL    HW246954  12.598   7.881  11.694 -1.0870  0.3382 -0.7840
46572SOL     OW46955   8.721  11.083   0.699  0.3179  0.3906  0.5017
46572SOL    HW146956   8.683  11.170   0.691 -1.4676 -0.5147 -4.1915
46572SOL    HW246957   8.797  11.085   0.640 -0.3617 -1.3942 -0.5079
46573SOL     OW46958   8.516  10.633   1.271 -0.2212 -0.4455  0.0091
46573SOL    HW146959   8.503  10.673   1.185  0.0678  0.2266  0.2715
46573SOL    HW246960   8.470  10.550   1.266 -2.1613  0.5848 -0.0365
46574SOL     OW46961   1.452  11.446   2.042 -0.3166  0.3112 -0.0927
46574SOL    HW146962   1.366  11.481   2.022 -0.2388 -0.0391 -1.0712
46574SOL    HW246963   1.474  11.484   2.128 -1.3846  0.4813  0.1149
46575SOL     OW46964   2.526   6.459   5.566  0.6195  0.0449  0.6241
46575SOL    HW146965   2.483   6.403   5.631  1.9844 -0.2121  1.3449
46575SOL    HW246966   2.470   6.536   5.560 -0.5717 -0.7896  0.6320
46576SOL     OW46967  10.665   3.353   0.443  0.7932  0.3845  0.3812
46576SOL    HW146968  10.716   3.400   0.377  0.3222 -0.1214 -0.3644
46576SOL    HW246969  10.684   3.398   0.525  0.9394  1.4050 -0.1902
46577SOL     OW46970   2.127  11.494   8.206  0.0752 -0.0425 -0.8380
46577SOL    HW146971   2.076  11.413   8.199 -1.1439  0.6221 -0.0059
46577SOL    HW246972   2.162  11.493   8.294  0.8155 -0.0836 -1.1279
46578SOL     OW46973   2.880  10.823   9.439 -0.4828 -0.5321  0.2619
46578SOL    HW146974   2.863  10.903   9.390  1.6380 -0.8886 -1.1921
46578SOL    HW246975   2.803  10.769   9.423 -0.9860  0.3891 -0.5519
46579SOL     OW46976   4.205   0.973  12.577 -0.3988 -0.9813  0.0728
46579SOL    HW146977   4.185   0.892  12.624  1.8302 -1.5312  0.1843
46579SOL    HW246978   4.193   0.951  12.485 -0.8757 -1.1080  0.1650
46580SOL     OW46979  12.513   6.219  11.099  0.1655  0.0194  0.3108
46580SOL    HW146980  12.595   6.171  11.110  0.1640 -0.0292  0.1192
46580SOL    HW246981  12.474   6.181  11.020 -0.6395 -0.8197  1.0809
46581SOL     OW46982  10.427   1.253   9.781  0.0771 -0.5434  0.3500
46581SOL    HW146983  10.341   1.226   9.748  0.1026 -0.6851  0.4037
46581SOL    HW246984  10.456   1.319   9.718  0.1547 -0.8639  0.0485
46582SOL     OW46985   8.827   2.485   4.245  0.6814  0.1300 -0.0859
46582SOL    HW146986   8.755   2.469   4.305  0.2491  1.6370 -0.1564
46582SOL    HW246987   8.902   2.503   4.302  0.3234  1.3442  0.0165
46583SOL     OW46988   3.296  11.089   1.151  0.6974  0.6316 -0.2179
46583SOL    HW146989   3.222  11.045   1.193 -0.7195  2.5683 -0.5613
46583SOL    HW246990   3.272  11.094   1.059  0.4136  2.7539 -0.0781
46584SOL     OW46991   7.529   7.441   0.908  0.1544 -0.5060  0.1668
46584SOL    HW146992   7.547   7.398   0.825  2.2067  1.0905 -0.2813
46584SOL    HW246993   7.598   7.410   0.967  0.1067  0.1365  0.5789
46585SOL     OW46994  10.637   4.937  10.981  0.1629 -0.1673 -0.3312
46585SOL    HW146995  10.596   4.853  10.962 -0.1939  0.0830 -0.7066
46585SOL    HW246996  10.622   4.951  11.074  0.5353 -0.6819 -0.1898
46586SOL     OW46997   5.647  11.691  11.173 -0.0636  0.0848 -0.1808
46586SOL    HW146998   5.696  11.758  11.221  1.4946 -0.0130 -1.5393
46586SOL    HW246999   5.576  11.740  11.131  0.0893  0.5928  0.1289
46587SOL     OW47000   3.980   7.034   1.927 -0.3480  0.4693  0.3902
46587SOL    HW147001   4.027   6.968   1.877 -1.0004  0.3293 -0.0498
46587SOL    HW247002   3.988   7.004   2.018  0.9168  0.7768  0.4028
46588SOL     OW47003   4.430   7.806  11.735  1.2285  0.2306  0.0577
46588SOL    HW147004   4.359   7.758  11.778 -1.5740  1.7230 -2.5209
46588SOL    HW247005   4.499   7.740  11.722 -0.2420 -1.6719  1.4239
46589SOL     OW47006   8.050   2.236   4.508 -0.6329  0.2988 -0.2692
46589SOL    HW147007   8.044   2.275   4.595  0.7277  0.2182 -0.1075
46589SOL    HW247008   8.012   2.148   4.518 -2.1368  0.9302 -0.2231
46590SOL     OW47009   5.733   5.364   3.593  0.6167  0.0935  0.3033
46590SOL    HW147010   5.732   5.363   3.497  2.1227  0.6012  0.2654
46590SOL    HW247011   5.692   5.448   3.616  2.2403  1.0084  0.0160
46591SOL     OW47012   0.320   9.822  11.959  0.1877  0.0889  0.1264
46591SOL    HW147013   0.376   9.749  11.988 -0.2495 -0.3924 -0.2197
46591SOL    HW247014   0.232   9.784  11.953  0.0297  0.5370 -0.4682
46592SOL     OW47015   5.694   5.778   6.599 -0.3660 -0.4540 -0.0469
46592SOL    HW147016   5.778   5.744   6.569 -0.1012 -0.5722  0.8085
46592SOL    HW247017   5.680   5.857   6.547  0.4031 -0.2831 -0.0028
46593SOL     OW47018  12.369   6.912   6.412 -0.2826  0.1522  0.2115
46593SOL    HW147019  12.446   6.960   6.384 -0.8541  0.3245 -1.1565
46593SOL    HW247020  12.352   6.944   6.500  0.2709  1.3097 -0.0766
46594SOL     OW47021  12.198   1.209  12.251 -0.2366  0.0377  0.0626
46594SOL    HW147022  12.271   1.271  12.250 -0.4585  0.2941 -1.2573
46594SOL    HW247023  12.221   1.144  12.185 -1.5956  0.6006 -1.0115
46595SOL     OW47024   6.183   6.346  10.026 -0.0527  0.0372 -0.0405
46595SOL    HW147025   6.277   6.330  10.020 -0.2843 -0.9251 -1.6079
46595SOL    HW247026   6.170   6.431   9.985  0.1248  0.1900  0.2132
46596SOL     OW47027  12.196  10.227   8.899 -0.3669 -0.1150  0.5287
46596SOL    HW147028  12.263  10.288   8.869 -0.8925  0.2621  0.1005
46596SOL    HW247029  12.232  10.188   8.978  0.1951  0.3627  0.5116
46597SOL     OW47030   6.138   2.548   3.533  0.6056  0.3655  0.2776
46597SOL    HW147031   6.160   2.460   3.564 -0.6503  0.0893  0.4237
46597SOL    HW247032   6.181   2.555   3.448  0.7797 -0.3590  0.2992
46598SOL     OW47033   9.676   7.168   9.271  0.1636  0.2896 -0.3532
46598SOL    HW147034   9.691   7.198   9.181  0.1758 -0.6082 -0.6666
46598SOL    HW247035   9.746   7.208   9.322  0.5888  0.2232 -0.8758
46599SOL     OW47036   5.777   2.404   0.645  0.4700 -0.2634 -0.5753
46599SOL    HW147037   5.784   2.490   0.604 -0.6656  0.7978  1.2711
46599SOL    HW247038   5.711   2.358   0.594  0.9436  0.0296 -1.4657
46600SOL     OW47039   5.128   4.365   1.359 -0.5746  0.7031  0.7199
46600SOL    HW147040   5.049   4.376   1.306 -1.6899 -0.2550  2.0933
46600SOL    HW247041   5.197   4.348   1.295 -1.7474  0.1967 -0.4706
46601SOL     OW47042  12.482  11.440   7.805 -0.8768  0.1895  1.0387
46601SOL    HW147043  12.505  11.515   7.750 -0.8019  1.5038  2.7788
46601SOL    HW247044  12.386  11.437   7.803 -0.8431 -1.2726 -1.0267
46602SOL     OW47045  11.208   4.412   1.031  0.1436  0.6223  0.3493
46602SOL    HW147046  11.140   4.462   1.075 -0.0629 -0.5239  1.3785
46602SOL    HW247047  11.287   4.466   1.039 -0.1909  1.0278  0.9535
46603SOL     OW47048   6.381  11.772   8.138 -0.0503 -0.7527 -0.0318
46603SOL    HW147049   6.332  11.853   8.127 -0.1085 -0.5627  1.4191
46603SOL    HW247050   6.437  11.766   8.060 -0.7065  0.1961 -0.5910
46604SOL     OW47051   8.610   9.562  12.503 -0.2847 -0.0287  0.4886
46604SOL    HW147052   8.575   9.478  12.472 -0.9663 -0.2044  1.6713
46604SOL    HW247053   8.542   9.596  12.562  1.1584  0.0197  2.2131
46605SOL     OW47054   3.197   0.385   6.185  0.3454  0.3019  0.0483
46605SOL    HW147055   3.257   0.453   6.155  0.5083 -0.4431 -1.3747
46605SOL    HW247056   3.253   0.323   6.232  0.5617  0.0543 -0.5266
46606SOL     OW47057   1.424   0.210   0.028 -0.7164 -0.3769 -0.4171
46606SOL    HW147058   1.372   0.252   0.097 -0.9208 -2.8490  1.0312
46606SOL    HW247059   1.360   0.181  -0.037 -0.8997 -1.1642  0.1090
46607SOL     OW47060  11.128   9.356   8.636 -0.4535  0.1963 -0.0862
46607SOL    HW147061  11.149   9.385   8.547 -1.7621  2.4263  0.2574
46607SOL    HW247062  11.179   9.414   8.693  0.1019 -0.9829  0.6679
46608SOL     OW47063   3.437   8.821   5.202  0.1392 -0.1400  0.0800
46608SOL    HW147064   3.370   8.806   5.269 -0.3183  1.6125  0.0585
46608SOL    HW247065   3.388   8.820   5.120  0.0841  1.3037  0.0762
46609SOL     OW47066  12.140   8.087   9.130 -0.4840  0.2442  0.0799
46609SOL    HW147067  12.167   8.095   9.039 -1.1394 -1.2312 -0.2791
46609SOL    HW247068  12.142   7.993   9.147 -0.4314  0.4929  1.5736
46610SOL     OW47069   2.495   9.155   9.813 -0.1945 -0.6063  0.6582
46610SOL    HW147070   2.577   9.178   9.770 -0.2398 -0.9070  0.4050
46610SOL    HW247071   2.427   9.186   9.753 -0.2933 -3.9691 -1.2110
46611SOL     OW47072   0.222  10.277   0.264  0.0325  0.5378 -0.0931
46611SOL    HW147073   0.281  10.250   0.194  0.4709  0.7234  0.2001
46611SOL    HW247074   0.278  10.322   0.327 -0.0797 -0.9747  1.1275
46612SOL     OW47075   4.930   9.303  10.156 -0.1255 -0.3302  0.0813
46612SOL    HW147076   4.998   9.262  10.103 -0.1680  1.6809 -1.6733
46612SOL    HW247077   4.873   9.347  10.092 -0.0033  2.4949  1.7635
46613SOL     OW47078   9.805   1.713   9.443 -0.1251  0.2863 -0.1824
46613SOL    HW147079   9.718   1.752   9.437 -0.7364 -1.1041 -0.8131
46613SOL    HW247080   9.796   1.628   9.401  1.3304 -0.2641  0.5561
46614SOL     OW47081   2.535   3.832   9.882 -0.1489  0.2359 -0.0497
46614SOL    HW147082   2.445   3.844   9.911 -0.0383  1.0326  0.0049
46614SOL    HW247083   2.584   3.810   9.962 -0.4883 -1.4338 -0.2727
46615SOL     OW47084   9.071   2.737   6.084  0.3777 -0.1271  0.2950
46615SOL    HW147085   8.990   2.768   6.124  0.2747  0.0751 -0.0598
46615SOL    HW247086   9.119   2.695   6.155  1.9849  3.5372  1.6343
46616SOL     OW47087  10.370  11.134   6.516 -0.5867  0.5991 -0.2645
46616SOL    HW147088  10.394  11.144   6.608  0.3849  3.2718 -0.7222
46616SOL    HW247089  10.451  11.111   6.472 -0.5847  1.4152 -0.7113
46617SOL     OW47090   0.915   8.650   8.727  0.0194 -0.3431  0.4339
46617SOL    HW147091   0.930   8.627   8.819  3.4796 -0.0826  0.0571
46617SOL    HW247092   0.906   8.745   8.727 -0.1329 -0.3574  0.5088
46618SOL     OW47093   0.768   5.211   4.151 -0.1996 -0.0271  0.3472
46618SOL    HW147094   0.774   5.225   4.246 -0.0540  0.6982  0.2380
46618SOL    HW247095   0.857   5.229   4.119 -0.1914 -0.5006  0.1020
46619SOL     OW47096   3.475   0.408   1.126  0.0304  0.1300  0.6424
46619SOL    HW147097   3.517   0.383   1.043 -2.1801 -0.3337 -0.4327
46619SOL    HW247098   3.512   0.348   1.191  1.7179  0.4133 -0.0214
46620SOL     OW47099  12.377   9.634   4.416 -0.3643  0.4109  0.0431
46620SOL    HW147100  12.391   9.547   4.453  0.7038  0.5524 -0.0102
46620SOL    HW247101  12.346   9.618   4.327  4.0728 -0.0366 -1.6651
46621SOL     OW47102   5.703   1.417   3.810  0.2385  0.7825  0.2022
46621SOL    HW147103   5.763   1.490   3.798  0.7529  0.1742 -1.0637
46621SOL    HW247104   5.694   1.408   3.905 -0.8982  3.3367  0.4054
46622SOL     OW47105   2.246   8.914  11.589  0.0321  0.8410 -0.0595
46622SOL    HW147106   2.337   8.943  11.594 -0.4458  3.0952 -2.3061
46622SOL    HW247107   2.196   8.983  11.634 -0.6978  0.4850 -0.3101
46623SOL     OW47108   4.289   6.428   8.589  0.0582  0.0399  0.5024
46623SOL    HW147109   4.348   6.496   8.623  1.4276 -0.8983  0.0997
46623SOL    HW247110   4.229   6.475   8.532 -0.6140  1.2684  2.1145
46624SOL     OW47111   2.928   5.219  12.480 -0.0682  0.1310  0.4768
46624SOL    HW147112   2.866   5.147  12.485 -0.0597  0.2127  2.0551
46624SOL    HW247113   2.986   5.195  12.407 -0.9606 -0.7225  0.0300
46625SOL     OW47114  10.722   4.936   0.191 -0.1700 -0.0475  0.2011
46625SOL    HW147115  10.658   4.940   0.263  0.3149  0.5124  0.6088
46625SOL    HW247116  10.684   4.873   0.129  0.4707 -2.3142  1.9766
46626SOL     OW47117   1.662   8.698   4.389  0.6240  0.0874  0.0356
46626SOL    HW147118   1.668   8.632   4.458 -0.5684 -0.2690 -0.1668
46626SOL    HW247119   1.628   8.775   4.433  1.2445  0.3207  0.1150
46627SOL     OW47120   8.590  10.164   6.613  0.3733  0.2759 -0.3673
46627SOL    HW147121   8.541  10.238   6.650 -0.1155  0.5661 -1.5598
46627SOL    HW247122   8.682  10.191   6.619  0.3644  0.0347  1.2156
46628SOL     OW47123   6.921   9.443   4.555  0.1435  0.1921  0.7189
46628SOL    HW147124   7.008   9.483   4.557 -0.5553  1.8861 -0.5062
46628SOL    HW247125   6.937   9.354   4.523  1.5039  0.2226  1.2526
46629SOL     OW47126   3.120   8.756  10.275 -0.0255  0.3052 -0.3915
46629SOL    HW147127   3.203   8.796  10.302  0.6347 -0.1193 -1.6922
46629SOL    HW247128   3.115   8.773  10.181 -1.1835 -0.1089 -0.4174
46630SOL     OW47129   1.323   6.608   4.966  0.2659  0.1031 -0.2964
46630SOL    HW147130   1.381   6.561   5.026 -0.0854 -0.2252 -0.2075
46630SOL    HW247131   1.368   6.690   4.948 -0.4100  1.0243  1.8396
46631SOL     OW47132   7.280   0.700  12.497  0.3401  0.0354  0.1296
46631SOL    HW147133   7.216   0.769  12.478  0.2763 -0.0777 -0.0642
46631SOL    HW247134   7.347   0.711  12.430  1.1849  0.9705  1.0786
46632SOL     OW47135  10.970   2.346   9.154  0.1575 -0.5817 -0.3359
46632SOL    HW147136  10.942   2.391   9.234 -0.4095  0.2951 -1.0129
46632SOL    HW247137  10.947   2.255   9.169  0.0945 -0.4414  0.5179
46633SOL     OW47138   6.154   8.504  12.026  0.2917  0.0584 -0.5017
46633SOL    HW147139   6.237   8.528  12.066  1.3002 -1.7298 -1.4358
46633SOL    HW247140   6.125   8.584  11.981  2.3491  0.2407 -1.5803
46634SOL     OW47141   9.239   6.419   9.393 -0.3792  0.7622  0.6150
46634SOL    HW147142   9.189   6.372   9.326 -2.4513  0.5178  2.2217
46634SOL    HW247143   9.173   6.460   9.448  1.1365 -0.0302  3.2115
46635SOL     OW47144   1.235   0.878   7.485  0.1911 -0.3234  0.3896
46635SOL    HW147145   1.259   0.786   7.499  0.0176 -0.6490 -1.2187
46635SOL    HW247146   1.250   0.893   7.391 -0.9113  0.9427  0.3753
46636SOL     OW47147   0.450  11.021   7.253 -0.4037 -0.0789  0.0147
46636SOL    HW147148   0.457  11.013   7.348  0.3542  0.9405  0.0624
46636SOL    HW247149   0.492  10.941   7.220 -1.0416 -0.6355  0.5352
46637SOL     OW47150   0.732   1.974   3.023  0.8071 -0.4940  0.2443
46637SOL    HW147151   0.788   2.046   3.052  1.1060 -0.3961 -0.5590
46637SOL    HW247152   0.663   1.970   3.089 -0.5768  2.0880 -0.9028
46638SOL     OW47153   4.827   3.920   5.934 -0.1610  0.2849  0.6109
46638SOL    HW147154   4.825   4.011   5.962  0.8931  0.4696  0.1347
46638SOL    HW247155   4.887   3.877   5.995  0.3889  0.2133  0.0384
46639SOL     OW47156   7.681   8.122  12.239 -0.8706  0.0702 -0.2103
46639SOL    HW147157   7.714   8.032  12.229 -0.2003 -0.0520  2.3550
46639SOL    HW247158   7.601   8.112  12.292 -1.4706  0.9227 -0.9249
46640SOL     OW47159   9.205  12.075   8.379 -0.5891  0.0738  0.0128
46640SOL    HW147160   9.296  12.048   8.389 -0.5096 -0.1892 -1.2133
46640SOL    HW247161   9.200  12.110   8.290 -1.2206  2.0289  0.7725
46641SOL     OW47162   0.035   5.055   0.875 -0.8711  0.0147  0.1110
46641SOL    HW147163   0.072   4.973   0.844 -1.3842 -0.5677  0.9570
46641SOL    HW247164   0.064   5.121   0.813  2.1776 -0.2454  1.0829
46642SOL     OW47165   6.898   5.988   7.128  0.4599 -0.3409 -0.0949
46642SOL    HW147166   6.992   5.975   7.143  0.3399  0.0606  1.0675
46642SOL    HW247167   6.867   5.903   7.097  0.8071 -1.1226  1.6173
46643SOL     OW47168   4.916   6.949  11.655  0.4047  0.1632 -0.6830
46643SOL    HW147169   4.980   6.952  11.727 -2.6108  2.3637  2.1994
46643SOL    HW247170   4.952   7.008  11.589  1.5117  1.1275  0.7207
46644SOL     OW47171   0.130   7.596  12.626  0.0578  0.2681 -0.2605
46644SOL    HW147172   0.036   7.597  12.643 -0.0207 -2.3907 -0.1413
46644SOL    HW247173   0.170   7.580  12.712  0.4487 -0.7817 -0.6188
46645SOL     OW47174   4.706   3.547   0.785  0.5039 -0.1995  0.3537
46645SOL    HW147175   4.636   3.541   0.721  1.1009  1.3852 -0.5051
46645SOL    HW247176   4.730   3.456   0.804 -0.2318 -0.7166 -1.0606
46646SOL     OW47177  12.286   2.301   5.435 -0.2328  0.1003  0.0531
46646SOL    HW147178  12.203   2.301   5.481 -0.1219 -1.4558  0.3313
46646SOL    HW247179  12.280   2.225   5.376  0.7278  0.3555 -0.3890
46647SOL     OW47180   5.754   0.403   0.137 -0.0464 -0.2320 -0.0716
46647SOL    HW147181   5.848   0.405   0.152  0.0324  1.1373 -0.6323
46647SOL    HW247182   5.744   0.396   0.042 -0.5235 -0.7808  0.0090
46648SOL     OW47183   4.645   3.637   4.576  1.0891 -0.5875  0.3906
46648SOL    HW147184   4.615   3.661   4.488  0.0162  0.1397  0.9310
46648SOL    HW247185   4.721   3.694   4.592  0.6768 -0.0077  0.3133
46649SOL     OW47186   9.299   9.241   5.133 -0.1694 -0.2505  0.6669
46649SOL    HW147187   9.364   9.172   5.125  1.2046  0.6445  2.9966
46649SOL    HW247188   9.235   9.222   5.065  0.7810 -3.0865  0.4274
46650SOL     OW47189   1.048   0.520  12.269  0.5721  0.4346  0.2471
46650SOL    HW147190   1.050   0.557  12.181 -0.1415 -1.6063 -0.6929
46650SOL    HW247191   1.061   0.426  12.256  1.2917  0.1762  2.4048
46651SOL     OW47192   1.195   3.044   0.728 -0.4113  0.3450  0.0703
46651SOL    HW147193   1.153   2.961   0.751 -1.3761  0.9725  0.6347
46651SOL    HW247194   1.214   3.086   0.812 -1.7887  1.5861 -0.1950
46652SOL     OW47195   5.095   5.139   4.305  0.0547  0.1387 -0.3043
46652SOL    HW147196   5.147   5.153   4.384 -0.9614  0.0643  0.4052
46652SOL    HW247197   5.119   5.051   4.275  1.7030  0.8094 -1.0843
46653SOL     OW47198   2.893  10.929   5.714  0.1895 -0.2857 -0.0385
46653SOL    HW147199   2.988  10.941   5.706 -0.2006  2.5883 -2.4001
46653SOL    HW247200   2.871  10.972   5.797  0.7811  1.1051 -0.5532
46654SOL     OW47201  11.799  11.879   6.133  0.4553  0.1533 -0.2362
46654SOL    HW147202  11.894  11.865   6.137  0.4631  0.3894  0.5607
46654SOL    HW247203  11.776  11.859   6.043  0.7611 -2.9334  0.2887
46655SOL     OW47204   4.879   8.304   4.386 -0.5965  0.9810 -0.0557
46655SOL    HW147205   4.815   8.304   4.314 -1.3357  0.8057  0.5837
46655SOL    HW247206   4.833   8.262   4.458 -0.4672  2.6206  1.0410
46656SOL     OW47207   2.945  11.566   2.472  0.9633  0.1799  0.1652
46656SOL    HW147208   2.964  11.660   2.465 -0.2307  0.2908 -2.9826
46656SOL    HW247209   2.942  11.535   2.381 -1.0395 -2.4080  0.9885
46657SOL     OW47210   9.862   7.109   7.349  0.6092 -0.2611 -0.0505
46657SOL    HW147211   9.860   7.043   7.418  2.1834  0.6521  0.9130
46657SOL    HW247212   9.883   7.059   7.270  0.2166 -1.1089  0.3595
46658SOL     OW47213   5.453   8.659  11.381 -0.3951  0.0783 -0.3778
46658SOL    HW147214   5.525   8.629  11.325 -0.0700 -0.1937  0.1812
46658SOL    HW247215   5.397   8.582  11.392  1.7007 -1.1711  3.0664
46659SOL     OW47216  10.090   5.857   6.417  0.5448  0.1067 -0.2437
46659SOL    HW147217  10.100   5.825   6.328  0.7467  0.3165 -0.2963
46659SOL    HW247218  10.029   5.931   6.409 -0.8938 -0.9931  0.0363
46660SOL     OW47219  10.927   3.172   9.280 -0.5660  0.6913 -0.0610
46660SOL    HW147220  10.904   3.191   9.189  0.2300  1.7591 -0.0595
46660SOL    HW247221  11.023   3.168   9.280 -0.5763 -2.1360  0.2136
46661SOL     OW47222   5.633   3.219   4.703  0.3422 -0.2506 -0.0977
46661SOL    HW147223   5.660   3.307   4.729 -0.4202  0.0352 -0.2454
46661SOL    HW247224   5.549   3.232   4.659  0.7706 -0.9230 -1.1511
46662SOL     OW47225   7.864   1.050   6.513 -0.3829 -0.0831 -0.0687
46662SOL    HW147226   7.819   1.127   6.480  0.9271  0.9046  0.3653
46662SOL    HW247227   7.795   0.986   6.528 -1.6442  1.4013  0.6586
46663SOL     OW47228   0.774   9.509   6.147 -0.0003 -0.4207 -0.1090
46663SOL    HW147229   0.728   9.556   6.077 -0.2645  0.2600  0.5120
46663SOL    HW247230   0.867   9.519   6.125 -0.0531  0.3469 -0.0262
46664SOL     OW47231   3.796  12.580   0.100 -0.6701 -0.0024 -0.2355
46664SOL    HW147232   3.700  12.578   0.109 -0.5629  1.5422  3.3988
46664SOL    HW247233   3.828  12.571   0.190  2.5336  1.3189 -1.0980
46665SOL     OW47234   3.488   3.574   0.624  0.4029  0.4550 -0.1098
46665SOL    HW147235   3.460   3.505   0.563 -0.8001  0.2705  0.6162
46665SOL    HW247236   3.582   3.558   0.636  0.3454 -0.4569 -0.7164
46666SOL     OW47237  10.731  11.113   1.218  0.3974  0.1289  0.2690
46666SOL    HW147238  10.750  11.058   1.142 -0.4362  0.8556 -0.4973
46666SOL    HW247239  10.725  11.202   1.182 -2.6253  0.1840  0.6956
46667SOL     OW47240   4.587   9.202  10.292 -0.4349  0.2745  0.6092
46667SOL    HW147241   4.534   9.273  10.327 -0.5616 -0.6692  2.4321
46667SOL    HW247242   4.677   9.226  10.313 -0.3725  0.4404  0.1734
46668SOL     OW47243   0.627   1.924   6.738  0.5740  0.6482  0.7025
46668SOL    HW147244   0.601   1.928   6.830  0.9483 -0.1345  0.8525
46668SOL    HW247245   0.719   1.949   6.738  0.6548  0.3523  0.5811
46669SOL     OW47246   2.336   3.396   9.391  0.3531  0.0927 -0.3867
46669SOL    HW147247   2.384   3.354   9.320  1.0120  0.7174 -0.3240
46669SOL    HW247248   2.276   3.456   9.346  1.1573  0.8945 -0.4152
46670SOL     OW47249   0.042  11.859   9.642 -0.0686 -0.2261 -0.3818
46670SOL    HW147250   0.056  11.799   9.716  0.8515  1.5017  0.9226
46670SOL    HW247251   0.126  11.860   9.597 -0.2858 -0.3971 -0.7943
46671SOL     OW47252  12.657  10.211  11.152 -0.0756 -0.1385  0.4259
46671SOL    HW147253  12.561  10.213  11.156 -0.1557 -0.5969 -0.7825
46671SOL    HW247254  12.677  10.227  11.060  1.0087 -0.4390  0.5953
46672SOL     OW47255   6.084   5.436   5.684 -0.2822  0.3170  0.4441
46672SOL    HW147256   6.009   5.447   5.625 -1.0177 -0.3199  1.2394
46672SOL    HW247257   6.146   5.382   5.635 -1.2675 -0.9557  0.5713
46673SOL     OW47258   0.619   6.724  11.556  0.6781 -0.1948 -0.0690
46673SOL    HW147259   0.685   6.736  11.488  0.8422 -1.6907 -0.2076
46673SOL    HW247260   0.654   6.652  11.610 -1.2350 -1.6699 -0.6896
46674SOL     OW47261   3.260   1.597   1.141 -0.0129  0.0687 -0.2107
46674SOL    HW147262   3.343   1.552   1.125  0.2687  0.8068 -0.8823
46674SOL    HW247263   3.198   1.557   1.081  0.8495  2.2817 -2.7576
46675SOL     OW47264   2.011   8.989  12.475  0.2159  0.7285 -0.1850
46675SOL    HW147265   2.006   9.084  12.460  1.2805  0.6697 -1.0844
46675SOL    HW247266   1.920   8.961  12.485 -0.0667  1.9782  1.0823
46676SOL     OW47267   4.172   6.594   9.601 -0.3815 -0.3290 -0.0802
46676SOL    HW147268   4.237   6.653   9.563 -0.5128 -0.1908 -0.0931
46676SOL    HW247269   4.089   6.622   9.562 -0.2588 -1.5073 -1.2953
46677SOL     OW47270   7.834   5.249   1.652  0.3950  0.0177  0.2106
46677SOL    HW147271   7.851   5.298   1.572  0.9382  0.7224  0.7449
46677SOL    HW247272   7.760   5.193   1.631 -0.7830  1.6661 -0.1617
46678SOL     OW47273   4.618   4.834   0.294  0.5246 -0.9983  0.0518
46678SOL    HW147274   4.674   4.767   0.256 -0.0528 -0.7494 -1.2796
46678SOL    HW247275   4.672   4.912   0.297  0.2304 -0.7045 -1.4199
46679SOL     OW47276   4.328   1.091   2.501 -0.2845  0.5522 -0.7627
46679SOL    HW147277   4.253   1.060   2.450 -0.7317  1.8262 -0.9097
46679SOL    HW247278   4.298   1.086   2.592 -0.4860  0.8893 -0.8093
46680SOL     OW47279   3.120  11.752   3.813 -0.1758  0.7006  0.6815
46680SOL    HW147280   3.093  11.786   3.898  0.0952 -1.3766  1.6694
46680SOL    HW247281   3.171  11.674   3.833  0.0303  0.2309 -1.3889
46681SOL     OW47282  10.315   1.625   4.227  0.4520 -0.1914 -0.0381
46681SOL    HW147283  10.251   1.683   4.187  1.9417  1.7131  0.1557
46681SOL    HW247284  10.270   1.542   4.238 -2.3229  1.3404  1.0829
46682SOL     OW47285  11.833   3.809   6.659 -0.4124  0.7828  0.3255
46682SOL    HW147286  11.774   3.801   6.734 -1.5242  1.2129 -0.4810
46682SOL    HW247287  11.896   3.737   6.671 -1.9166 -0.5601  0.4774
46683SOL     OW47288   0.037   7.993   6.309 -0.2513  0.0442 -0.3687
46683SOL    HW147289   0.085   7.980   6.227  0.1245  3.0373 -0.7334
46683SOL    HW247290  -0.052   8.018   6.282 -0.5750 -0.4772  0.1832
46684SOL     OW47291   8.534   1.527   5.828 -0.2735  0.3106  0.4067
46684SOL    HW147292   8.504   1.522   5.918  0.5378  4.1364  1.0657
46684SOL    HW247293   8.460   1.493   5.776 -2.4768  1.8433  2.3431
46685SOL     OW47294   7.571   6.247  10.322 -0.4781 -0.2479 -0.0527
46685SOL    HW147295   7.508   6.226  10.253 -0.5331 -1.4892  0.3625
46685SOL    HW247296   7.550   6.337  10.346  0.7987  0.9829 -2.9879
46686SOL     OW47297   2.819   9.037   0.824  0.1690  0.6446 -0.5768
46686SOL    HW147298   2.798   8.953   0.783  0.6065  0.6261 -0.7749
46686SOL    HW247299   2.899   9.065   0.779 -0.9439  2.0308 -1.7682
46687SOL     OW47300   9.327   5.591   8.702 -0.6666 -0.1079 -0.0684
46687SOL    HW147301   9.323   5.496   8.717  2.7704 -0.4656 -0.4428
46687SOL    HW247302   9.295   5.630   8.783 -0.9616 -1.6148  0.5745
46688SOL     OW47303   1.008   9.333   6.441 -0.2662 -0.0754 -0.1452
46688SOL    HW147304   1.045   9.418   6.420  2.7415 -1.0476  0.7242
46688SOL    HW247305   0.968   9.345   6.528 -1.4269  0.8167 -0.7757
46689SOL     OW47306   4.220   6.787   0.310 -0.3429  0.2794 -0.0465
46689SOL    HW147307   4.227   6.728   0.385 -1.8474  0.3302  0.1460
46689SOL    HW247308   4.190   6.870   0.347 -1.7854  0.1046 -0.7697
46690SOL     OW47309  11.004   3.886  11.124 -0.2128 -0.3777 -0.1940
46690SOL    HW147310  10.965   3.801  11.106 -0.2565 -0.1882 -1.0460
46690SOL    HW247311  11.098   3.871  11.122 -0.1984 -0.2370 -1.3082
46691SOL     OW47312   1.923   4.031   5.778  0.1993  0.6270 -0.1493
46691SOL    HW147313   1.907   4.005   5.687  0.8377  0.5936 -0.2541
46691SOL    HW247314   1.990   3.971   5.809  0.4367  1.0386  0.1505
46692SOL     OW47315  11.358   5.977   1.121 -0.0871  0.3838  0.1434
46692SOL    HW147316  11.306   5.904   1.153  0.1431  0.5182  0.8447
46692SOL    HW247317  11.439   5.938   1.090 -1.7438 -0.3009 -4.0992
46693SOL     OW47318   1.889   9.712   3.177  0.4006 -0.1081 -0.3846
46693SOL    HW147319   1.954   9.651   3.143 -0.7195 -0.7833 -1.3963
46693SOL    HW247320   1.862   9.674   3.260 -0.4170 -1.1367 -1.0880
46694SOL     OW47321   3.698   7.503  11.892 -0.4722  0.3283  0.2395
46694SOL    HW147322   3.689   7.596  11.914 -0.7061  0.4880 -0.4903
46694SOL    HW247323   3.690   7.458  11.976  1.6891  1.0707  0.9292
46695SOL     OW47324   4.399   5.841   8.858 -0.3007  0.3397 -0.2477
46695SOL    HW147325   4.346   5.794   8.922 -0.5714  0.3023 -0.4978
46695SOL    HW247326   4.477   5.868   8.906 -1.3878  2.0872  0.6558
46696SOL     OW47327   7.715   9.315   0.494  0.8946  0.0136 -1.0869
46696SOL    HW147328   7.797   9.289   0.537 -0.0659  0.1944  0.9756
46696SOL    HW247329   7.734   9.401   0.457  0.7338  1.7614  2.4607
46697SOL     OW47330  12.012  12.683   2.463 -0.3371 -0.4616 -0.7801
46697SOL    HW147331  11.949  12.730   2.407 -0.5494 -0.4715 -0.5486
46697SOL    HW247332  12.097  12.710   2.429 -0.3754  2.0750  0.9166
46698SOL     OW47333  10.735  10.639  10.327  0.5773 -0.4824  0.3216
46698SOL    HW147334  10.676  10.576  10.368  1.5770 -1.1479  0.7781
46698SOL    HW247335  10.772  10.591  10.252  0.0462  0.1539 -0.3616
46699SOL     OW47336   4.483   2.712   2.133 -0.0146  0.7956  0.5169
46699SOL    HW147337   4.450   2.646   2.193 -0.5606  0.0651 -0.5580
46699SOL    HW247338   4.426   2.788   2.147 -1.9008 -0.2693 -0.9324
46700SOL     OW47339   3.173   8.445  12.574  0.2867  0.4215  0.1491
46700SOL    HW147340   3.103   8.432  12.511  0.9576 -0.0618 -0.5065
46700SOL    HW247341   3.228   8.367  12.567  0.9821  0.8594  0.5338
46701SOL     OW47342   9.098   5.369   3.078 -0.3498 -0.1154 -0.4855
46701SOL    HW147343   9.174   5.338   3.127 -0.6825 -0.2427 -0.0346
46701SOL    HW247344   9.049   5.290   3.057  0.2987 -0.1573 -1.9225
46702SOL     OW47345   7.410   8.769   1.597 -0.0340  0.5466 -0.0178
46702SOL    HW147346   7.323   8.770   1.555 -0.4392 -1.9678  0.6061
46702SOL    HW247347   7.391   8.761   1.690  0.8681  0.7623  0.1859
46703SOL     OW47348   4.510   6.320   3.000  0.6827 -0.4438 -0.2212
46703SOL    HW147349   4.457   6.245   3.027 -0.8162  0.9720  0.9510
46703SOL    HW247350   4.514   6.313   2.904  1.7863 -2.7531 -0.0748
46704SOL     OW47351   8.508  11.871   1.707 -0.1426  0.1299 -0.1218
46704SOL    HW147352   8.572  11.840   1.642  0.0549 -0.7474  0.4628
46704SOL    HW247353   8.428  11.822   1.687 -0.6410  1.2023 -0.8309
46705SOL     OW47354   5.179   9.586   0.206  0.3609 -0.0722 -0.2682
46705SOL    HW147355   5.141   9.501   0.228  0.6187 -0.2680 -0.5827
46705SOL    HW247356   5.123   9.619   0.135  0.6209 -0.2432 -0.5512
46706SOL     OW47357   0.234   9.344   0.473  0.1755  0.0656  0.4098
46706SOL    HW147358   0.176   9.300   0.535 -0.5733  0.3260 -0.0849
46706SOL    HW247359   0.256   9.277   0.408  0.4805 -0.0509  0.6333
46707SOL     OW47360   0.408   5.603   5.506 -0.2753  0.6732  0.9952
46707SOL    HW147361   0.417   5.679   5.564 -0.8355  0.1487  1.7794
46707SOL    HW247362   0.497   5.588   5.473  0.3698  0.1356  2.8222
46708SOL     OW47363  12.049   9.255   8.420 -0.1814 -0.0840 -0.2072
46708SOL    HW147364  12.022   9.234   8.331  0.4165 -0.6303 -0.2622
46708SOL    HW247365  12.142   9.236   8.423 -0.2131 -0.1776  0.5673
46709SOL     OW47366   9.906   9.529   3.913 -0.0404 -0.2241 -0.1237
46709SOL    HW147367   9.851   9.537   3.991 -0.3123 -2.6123  0.0159
46709SOL    HW247368   9.994   9.513   3.948  0.4780  1.8653 -0.3534
46710SOL     OW47369   7.651  10.466   3.769  0.2321 -0.0674 -0.3580
46710SOL    HW147370   7.737  10.481   3.729  0.0398  0.5222 -0.5536
46710SOL    HW247371   7.651  10.373   3.791  0.9778 -0.0441 -0.2329
46711SOL     OW47372   1.646   3.025   3.770 -0.3813 -0.4851  0.2079
46711SOL    HW147373   1.593   3.034   3.690 -0.7195 -1.2299  0.3446
46711SOL    HW247374   1.699   2.947   3.754  1.9732  1.1614 -0.6541
46712SOL     OW47375  10.685   1.389   3.127  0.5092  0.0870  0.2002
46712SOL    HW147376  10.666   1.468   3.076 -3.0178 -0.4076  0.5050
46712SOL    HW247377  10.697   1.422   3.216  1.1494  0.4640 -0.0211
46713SOL     OW47378  12.675   6.603   1.127 -0.2680  0.8421 -0.2374
46713SOL    HW147379  12.623   6.600   1.046  1.6678 -2.1241 -1.5486
46713SOL    HW247380  12.746   6.664   1.108  0.6463 -0.4587 -1.1847
46714SOL     OW47381   9.134   7.446   3.623 -0.5783 -0.8199 -0.3763
46714SOL    HW147382   9.145   7.540   3.635 -1.5833 -0.9080  1.6504
46714SOL    HW247383   9.039   7.434   3.611 -0.6062 -1.6702  0.5984
46715SOL     OW47384   0.510  10.593   4.360  0.5220 -0.6197 -0.1859
46715SOL    HW147385   0.457  10.514   4.344 -1.0223  0.3017  0.1398
46715SOL    HW247386   0.446  10.659   4.385  1.6896  1.0088 -1.3605
46716SOL     OW47387   1.474   2.850   8.843  0.5915 -0.0903  0.0271
46716SOL    HW147388   1.402   2.791   8.862 -1.2999  2.2365  0.4649
46716SOL    HW247389   1.433   2.929   8.808  3.0581  0.7217 -1.3185
46717SOL     OW47390   7.122   3.717  11.829  0.2998  0.2528  0.6254
46717SOL    HW147391   7.165   3.802  11.821 -1.3974  1.1633  0.7018
46717SOL    HW247392   7.188   3.660  11.868  2.0499  1.0559 -1.0233
46718SOL     OW47393   9.734   8.392  12.248  0.1981  0.3484  0.0243
46718SOL    HW147394   9.713   8.340  12.326  0.8715  0.2603  0.1498
46718SOL    HW247395   9.783   8.332  12.192 -0.0497  0.4938 -0.3509
46719SOL     OW47396   5.746  12.230   4.585  0.4621 -0.0989 -0.5911
46719SOL    HW147397   5.786  12.214   4.671 -0.6808 -0.3060 -0.0708
46719SOL    HW247398   5.774  12.319   4.562 -1.6316  1.2550  1.4730
46720SOL     OW47399   2.249   4.133   6.168 -0.2118 -0.2498  0.1821
46720SOL    HW147400   2.226   4.042   6.150  1.4282 -1.3123  2.7929
46720SOL    HW247401   2.203   4.153   6.250 -2.1811  2.0604 -1.3362
46721SOL     OW47402   2.356  10.162   4.057  0.0625 -0.1304  0.0523
46721SOL    HW147403   2.281  10.103   4.049  0.7094 -1.0518  0.5912
46721SOL    HW247404   2.354  10.215   3.977 -1.8808  0.7347  0.6092
46722SOL     OW47405   6.434   1.234   2.300  0.4394  0.2070  0.5354
46722SOL    HW147406   6.386   1.160   2.263 -0.0416  0.3266  0.9178
46722SOL    HW247407   6.400   1.243   2.389  0.3994  0.9743  0.4460
46723SOL     OW47408   5.662  11.007   3.602 -0.2980 -0.5567 -0.8312
46723SOL    HW147409   5.701  11.077   3.549 -1.4271 -0.0806 -1.0677
46723SOL    HW247410   5.719  10.932   3.587  1.6769  0.6036  0.4194
46724SOL     OW47411  10.021  12.200   2.479  0.2372  0.0662  0.5563
46724SOL    HW147412  10.052  12.228   2.393  0.7744  3.8151  1.7779
46724SOL    HW247413   9.936  12.160   2.463 -0.0207  1.3598 -1.6540
46725SOL     OW47414   3.555   3.842   2.092 -0.0913 -0.0074 -0.4052
46725SOL    HW147415   3.490   3.881   2.034  0.7903 -0.9772 -2.1179
46725SOL    HW247416   3.534   3.877   2.179 -0.4612  2.7719 -1.5292
46726SOL     OW47417   3.902  10.841  11.057 -0.5781  0.5392  0.0696
46726SOL    HW147418   3.893  10.841  10.961 -0.4115  1.2352  0.0489
46726SOL    HW247419   3.986  10.799  11.073 -0.4104  0.7911 -0.1189
46727SOL     OW47420   9.021  10.600   0.948 -0.4999  0.2502  0.2388
46727SOL    HW147421   8.932  10.635   0.959 -0.9251 -0.8060  0.2711
46727SOL    HW247422   9.053  10.642   0.868 -0.6874  1.3154  0.7085
46728SOL     OW47423  10.476   3.078  10.339  0.3110  0.7378 -0.2961
46728SOL    HW147424  10.392   3.069  10.294  0.4091 -1.9723 -0.0694
46728SOL    HW247425  10.538   3.100  10.270 -0.1719  0.2827 -0.8868
46729SOL     OW47426  12.457   5.843  11.623 -0.0573  0.0049 -0.2440
46729SOL    HW147427  12.402   5.861  11.699 -0.5691 -1.0170 -0.3582
46729SOL    HW247428  12.418   5.894  11.552 -2.0183 -2.0761 -0.7801
46730SOL     OW47429  10.070   6.606  11.463  0.2515  0.1589  0.1315
46730SOL    HW147430  10.124   6.666  11.411 -0.3410  0.9935  0.4536
46730SOL    HW247431   9.980   6.634  11.446 -0.0105 -0.3532  0.6391
46731SOL     OW47432   2.266   5.018  11.610  0.2064  0.1304  0.1916
46731SOL    HW147433   2.361   5.008  11.620  0.2217  0.6978  0.6354
46731SOL    HW247434   2.256   5.070  11.530  0.3274  1.2355  0.8784
46732SOL     OW47435  12.082  10.729   9.857 -0.1468  0.3060 -0.6947
46732SOL    HW147436  12.148  10.782   9.812 -1.0759  1.4253 -0.7907
46732SOL    HW247437  12.132  10.673   9.916  1.0403 -0.6091 -2.5011
46733SOL     OW47438   5.260   2.813   9.693  1.0498 -0.4577  0.5491
46733SOL    HW147439   5.240   2.802   9.786  0.5473 -1.0110  0.3765
46733SOL    HW247440   5.306   2.733   9.669  1.5817 -0.1207  0.4247
46734SOL     OW47441   1.043   9.314   4.521 -0.2341 -0.1275 -0.2592
46734SOL    HW147442   1.033   9.375   4.448 -2.0220  0.1989  0.2256
46734SOL    HW247443   1.066   9.230   4.479  0.3605  0.4154 -1.0507
46735SOL     OW47444   8.065   5.582   8.199 -0.3555 -0.2251  0.1546
46735SOL    HW147445   8.141   5.618   8.244 -1.4926  0.4257  1.6294
46735SOL    HW247446   8.080   5.487   8.198  0.9794 -0.0281 -0.5922
46736SOL     OW47447   8.476   7.320   8.440  0.0491 -0.6460  0.6341
46736SOL    HW147448   8.472   7.414   8.456 -1.3556 -0.3424 -1.0658
46736SOL    HW247449   8.563   7.294   8.470  0.5249  1.2181  1.0282
46737SOL     OW47450   3.630   6.615   0.536  0.0307  0.0935 -0.1264
46737SOL    HW147451   3.641   6.526   0.501  1.4193  0.4058 -0.5346
46737SOL    HW247452   3.598   6.666   0.462 -1.5092 -0.2076  0.3080
46738SOL     OW47453   4.247  11.139   8.460  0.1610  0.5056 -0.1076
46738SOL    HW147454   4.208  11.111   8.543  0.5387  1.8774  0.5557
46738SOL    HW247455   4.248  11.059   8.407  0.6969 -0.6193  1.4926
46739SOL     OW47456   0.351   4.477   7.684  0.2764 -0.0328  0.5456
46739SOL    HW147457   0.429   4.422   7.692  0.2570 -0.4104 -1.3732
46739SOL    HW247458   0.290   4.424   7.633  0.2011  1.6939 -1.2531
46740SOL     OW47459   9.096   7.165   5.227 -0.3289 -0.2470 -0.4386
46740SOL    HW147460   9.030   7.191   5.163 -0.0220  0.9506 -0.3071
46740SOL    HW247461   9.174   7.214   5.202  0.5124 -1.6042 -0.5538
46741SOL     OW47462   9.512   8.073   6.113  0.0018  0.0182  0.2561
46741SOL    HW147463   9.424   8.110   6.124 -0.1710  0.4266 -2.0618
46741SOL    HW247464   9.571   8.144   6.137 -0.3315  0.8027 -1.1581
46742SOL     OW47465  12.155   3.369   3.436  0.0816 -0.2741 -0.6840
46742SOL    HW147466  12.237   3.340   3.476  0.5655  2.2462  0.3700
46742SOL    HW247467  12.086   3.330   3.489  0.6635 -0.0350  0.2674
46743SOL     OW47468   9.314   7.473   0.439  0.3211 -0.2261 -0.2162
46743SOL    HW147469   9.284   7.474   0.348 -0.1246  0.7169 -0.0717
46743SOL    HW247470   9.263   7.542   0.482  0.7637 -0.4369  0.6734
46744SOL     OW47471   4.909   4.694   4.735 -0.1201  0.1872  0.1633
46744SOL    HW147472   5.001   4.715   4.718 -0.4875  2.4848  0.6383
46744SOL    HW247473   4.870   4.684   4.648  0.1603  1.4034 -0.1277
46745SOL     OW47474  10.157  10.637   5.659 -0.0686 -0.7934 -0.3235
46745SOL    HW147475  10.073  10.682   5.648 -0.7770 -2.4943 -2.7775
46745SOL    HW247476  10.223  10.705   5.652 -1.1548  0.6626  2.0640
46746SOL     OW47477   8.272   0.268  12.623  0.2874 -0.6824 -0.1718
46746SOL    HW147478   8.296   0.356  12.651  1.2959 -1.4686  1.5485
46746SOL    HW247479   8.288   0.268  12.528 -1.9431  1.6360 -0.6711
46747SOL     OW47480  10.705   6.398   9.651 -0.5649  0.5046  0.2944
46747SOL    HW147481  10.713   6.308   9.620 -1.1232  0.4607  0.2561
46747SOL    HW247482  10.612   6.418   9.640 -0.6093  0.7891  1.1300
46748SOL     OW47483   2.977  12.671  12.402  0.0303 -0.2630  0.2901
46748SOL    HW147484   3.010  12.598  12.349  1.9685  0.2626  0.6988
46748SOL    HW247485   2.908  12.710  12.348  2.5513  0.8634 -2.4476
46749SOL     OW47486   7.440   1.479  11.633 -0.0033  0.7026 -0.5452
46749SOL    HW147487   7.408   1.511  11.718  1.5836 -1.8800  1.1689
46749SOL    HW247488   7.373   1.417  11.604  0.1698  0.4385 -0.3881
46750SOL     OW47489  10.219   1.990   2.436  0.1650  0.1411  0.4268
46750SOL    HW147490  10.171   2.019   2.358 -0.8812 -1.0537  0.5958
46750SOL    HW247491  10.154   1.943   2.488  1.4049 -1.1618  0.8745
46751SOL     OW47492   4.904   0.894  11.128  0.2036  0.2462 -0.3030
46751SOL    HW147493   4.882   0.903  11.035 -0.6868  1.9332  0.0239
46751SOL    HW247494   4.886   0.802  11.149 -0.5007  0.0825 -1.5671
46752SOL     OW47495   5.692   8.855  12.283 -0.2098 -0.1862 -0.0012
46752SOL    HW147496   5.743   8.787  12.239 -0.3986 -0.0150 -0.4803
46752SOL    HW247497   5.728   8.937  12.249 -0.8353 -0.0659 -0.3683
46753SOL     OW47498   0.715   3.902  11.377 -0.0457  0.5198 -0.3079
46753SOL    HW147499   0.697   3.831  11.315 -1.1143  0.2093  0.3203
46753SOL    HW247500   0.701   3.862  11.463 -0.8049  1.5122  0.0517
46754SOL     OW47501   6.489  12.518   1.433 -0.0921  0.2794 -0.6260
46754SOL    HW147502   6.522  12.537   1.345 -0.4518  0.4735 -0.7245
46754SOL    HW247503   6.396  12.541   1.429 -0.2640 -0.3490 -0.3869
46755SOL     OW47504   0.103   2.678   9.305  0.0073  0.0175 -0.4349
46755SOL    HW147505   0.165   2.613   9.272 -1.0636 -0.6913 -1.0726
46755SOL    HW247506   0.116   2.677   9.400  0.0937 -1.0205 -0.4514
46756SOL     OW47507  10.650   5.955   0.493  0.4143  0.3918  0.0522
46756SOL    HW147508  10.570   5.956   0.546  1.3570 -2.2126  1.7042
46756SOL    HW247509  10.720   5.971   0.556  1.4704 -1.4180 -0.5966
46757SOL     OW47510  12.429  10.774   2.313  0.1085  0.4516 -0.0154
46757SOL    HW147511  12.376  10.853   2.319 -1.0468 -0.2341 -0.8083
46757SOL    HW247512  12.450  10.765   2.220  0.7233  0.1356  0.1438
46758SOL     OW47513   6.682   3.800  11.805 -0.0080  0.5011  0.2128
46758SOL    HW147514   6.644   3.807  11.893  1.1082  1.0837  0.6717
46758SOL    HW247515   6.609   3.777  11.749 -0.8340  0.5827  1.2302
46759SOL     OW47516   6.000   9.596   9.894  0.3842 -0.4185  0.2369
46759SOL    HW147517   5.969   9.512   9.860 -0.1600 -0.1192 -0.0158
46759SOL    HW247518   5.944   9.661   9.851  2.3671  0.2613 -1.5221
46760SOL     OW47519   9.255  10.849   1.368  0.3292  1.3064  0.0864
46760SOL    HW147520   9.256  10.942   1.389 -0.4401  1.5723 -0.9519
46760SOL    HW247521   9.211  10.844   1.282  0.3543 -0.0021  0.1253
46761SOL     OW47522   9.676   5.452   9.824  0.3352  0.6393  0.2967
46761SOL    HW147523   9.685   5.503   9.743  1.1120 -0.4994 -0.3700
46761SOL    HW247524   9.758   5.469   9.871 -0.1538  1.3694  0.8994
46762SOL     OW47525   1.332   3.766  11.921 -0.2037 -0.4647  0.2821
46762SOL    HW147526   1.390   3.704  11.875 -2.5109 -2.9661  0.5384
46762SOL    HW247527   1.344   3.746  12.014 -0.8931 -0.4776  0.3733
46763SOL     OW47528   8.573   7.302   0.583 -0.2532  0.2557 -0.0776
46763SOL    HW147529   8.503   7.313   0.519 -1.0842 -0.8333  0.6163
46763SOL    HW247530   8.609   7.215   0.565  3.1714  1.9535 -2.5321
46764SOL     OW47531   5.162  12.422   8.041 -0.1430 -0.7328  0.2167
46764SOL    HW147532   5.147  12.496   8.101  2.0008 -0.3580  0.3683
46764SOL    HW247533   5.225  12.367   8.086 -1.4902 -2.5883 -0.0255
46765SOL     OW47534   4.720   6.832   4.282 -0.4442  0.3265 -0.2167
46765SOL    HW147535   4.806   6.802   4.311 -0.7472 -1.2220 -0.8055
46765SOL    HW247536   4.659   6.788   4.341 -0.8917  0.2632 -0.7238
46766SOL     OW47537   6.283   9.722  12.280  0.2969 -0.1040 -0.3758
46766SOL    HW147538   6.247   9.715  12.191 -1.3805  0.9284  0.1843
46766SOL    HW247539   6.214   9.688  12.336  1.0483 -0.0524  0.6014
46767SOL     OW47540   1.158   7.724   6.126  0.5710 -0.1673  0.0704
46767SOL    HW147541   1.145   7.784   6.200  0.2935 -0.1737  0.0251
46767SOL    HW247542   1.115   7.643   6.154  1.6664 -0.6297  0.4923
46768SOL     OW47543   0.172   2.999   4.332  0.3756 -0.0613  0.1469
46768SOL    HW147544   0.266   3.012   4.342  0.3057 -0.4525  1.3796
46768SOL    HW247545   0.156   2.910   4.362 -0.5157  0.3055  0.7940
46769SOL     OW47546   1.756  11.101   8.594  0.0309 -0.8244  0.2546
46769SOL    HW147547   1.689  11.069   8.655 -0.8274  1.7471  0.7572
46769SOL    HW247548   1.823  11.140   8.651  0.5638 -0.8275 -0.3613
46770SOL     OW47549   7.374  11.867   6.445 -0.4625 -0.4107  0.3882
46770SOL    HW147550   7.439  11.917   6.397  0.2009 -0.8213  0.8337
46770SOL    HW247551   7.375  11.904   6.533 -0.7478 -0.4971  0.4300
46771SOL     OW47552   2.070   0.104  12.242  0.1120  0.6155  0.2029
46771SOL    HW147553   2.082   0.182  12.296  3.9499  0.6002 -0.3368
46771SOL    HW247554   2.044   0.036  12.304  0.7154  1.4358  1.4080
46772SOL     OW47555   1.474   5.838  11.990 -0.1190 -0.7304 -0.6796
46772SOL    HW147556   1.417   5.764  11.969 -1.6339  0.3930 -0.7784
46772SOL    HW247557   1.417   5.915  11.981  1.5292  0.5017 -1.1225
46773SOL     OW47558   7.445   4.790  11.864 -0.3451 -0.3896 -0.4449
46773SOL    HW147559   7.398   4.734  11.802 -2.9364 -0.7753  1.7008
46773SOL    HW247560   7.394   4.786  11.945  1.8274  1.5807  1.1876
46774SOL     OW47561   8.233   6.563   6.208 -0.7831  0.2709 -0.6659
46774SOL    HW147562   8.289   6.542   6.133  1.1220  3.0726 -0.1838
46774SOL    HW247563   8.266   6.507   6.278  0.5932  0.9082 -0.7607
46775SOL     OW47564   1.564   0.170   1.376 -0.1390  0.2070  0.5208
46775SOL    HW147565   1.497   0.183   1.443  0.0102  0.4384  0.6236
46775SOL    HW247566   1.597   0.082   1.393 -2.1403 -0.9494 -1.0553
46776SOL     OW47567   2.124  11.048   0.029  0.1506 -0.4591  0.1203
46776SOL    HW147568   2.154  10.964   0.064 -0.6261 -0.1844  1.5357
46776SOL    HW247569   2.170  11.113   0.081 -1.0422 -0.0382  0.7019
46777SOL     OW47570  12.316   1.839  12.302 -0.1682 -0.7314  0.3004
46777SOL    HW147571  12.285   1.749  12.299 -0.5602 -0.6129 -2.3226
46777SOL    HW247572  12.259   1.886  12.240  1.3868  0.8168 -0.0589
46778SOL     OW47573   1.793   9.602   3.409  0.0060  0.4909  0.2890
46778SOL    HW147574   1.865   9.594   3.472  0.9307 -0.5336 -0.8328
46778SOL    HW247575   1.726   9.654   3.455  0.4983 -0.4712  2.2104
46779SOL     OW47576  12.419   6.833   5.751 -0.6182  0.2856 -0.0041
46779SOL    HW147577  12.338   6.872   5.718 -0.4401  1.2382  0.6414
46779SOL    HW247578  12.489   6.882   5.708 -0.3882 -0.0204  0.0185
46780SOL     OW47579  11.642   3.849   1.102 -0.0492 -0.4006  0.5313
46780SOL    HW147580  11.634   3.768   1.152  1.3431 -1.1104 -0.3307
46780SOL    HW247581  11.688   3.824   1.022 -1.1614  0.9260 -0.5739
46781SOL     OW47582   1.491   8.711   0.963  0.6914  0.4021  0.0647
46781SOL    HW147583   1.493   8.728   1.058 -0.0627  0.1180  0.1403
46781SOL    HW247584   1.488   8.616   0.956 -0.3502  0.4407 -0.2044
46782SOL     OW47585   8.477   6.425   3.199 -0.2130 -0.1921 -0.4971
46782SOL    HW147586   8.552   6.474   3.233 -0.2864  0.1987 -0.8925
46782SOL    HW247587   8.506   6.394   3.113 -0.2877 -0.5653 -0.3910
46783SOL     OW47588   1.735   7.568   3.460  0.2550  0.1523 -0.5327
46783SOL    HW147589   1.676   7.634   3.496 -0.2166 -0.3722 -0.3329
46783SOL    HW247590   1.746   7.505   3.531  0.7495  0.0429 -0.7029
46784SOL     OW47591   4.089   4.367  10.095  0.1885 -0.0419 -0.4613
46784SOL    HW147592   4.146   4.399  10.025  0.4199 -0.3361 -0.4123
46784SOL    HW247593   4.146   4.365  10.172  0.2939 -0.9374 -0.5511
46785SOL     OW47594  10.603   9.484   7.719 -0.1589  0.7108 -0.2606
46785SOL    HW147595  10.687   9.476   7.764 -0.3492  0.6978  0.0944
46785SOL    HW247596  10.624   9.473   7.626  0.2260  0.6769 -0.1692
46786SOL     OW47597   6.929   8.979   9.224 -0.4378 -0.2438 -0.0768
46786SOL    HW147598   6.856   8.919   9.211  1.2737 -3.1485  2.3163
46786SOL    HW247599   6.927   8.999   9.318 -0.8733  3.5969 -0.7344
46787SOL     OW47600   6.765   4.983   1.931 -0.3448 -0.0838 -0.3098
46787SOL    HW147601   6.734   5.009   1.844 -1.2811 -0.7498 -0.1918
46787SOL    HW247602   6.849   4.941   1.915  0.1052  0.9677 -0.7466
46788SOL     OW47603   8.171   0.675   3.642  0.1446  0.2914 -0.1094
46788SOL    HW147604   8.212   0.762   3.641  0.1065  0.3090 -0.2487
46788SOL    HW247605   8.244   0.614   3.651  0.0274  0.4095  2.2511
46789SOL     OW47606  10.529   9.633   5.532  0.4507 -0.3766 -0.3372
46789SOL    HW147607  10.542   9.538   5.531 -1.1872 -0.6355 -0.0717
46789SOL    HW247608  10.488   9.651   5.617  0.0338  0.4468 -0.6924
46790SOL     OW47609   2.019   8.663   8.695  0.5730 -0.0127 -0.3399
46790SOL    HW147610   2.095   8.684   8.640  1.4966 -0.3313  0.7668
46790SOL    HW247611   1.988   8.748   8.726  0.4672  0.1175 -0.7910
46791SOL     OW47612   2.401   9.087   1.184 -0.0835 -0.1032 -0.0636
46791SOL    HW147613   2.440   9.143   1.117  2.4262 -0.6551  0.8291
46791SOL    HW247614   2.450   9.107   1.264 -0.6150 -1.9830  0.7821
46792SOL     OW47615  11.071   0.398   7.765 -0.2012 -0.0227  0.5250
46792SOL    HW147616  11.057   0.355   7.681  1.0858 -0.3040  0.4308
46792SOL    HW247617  11.067   0.491   7.746 -0.0418 -0.0867  0.1647
46793SOL     OW47618  12.135   0.915   3.271  0.0905 -0.3737  0.3327
46793SOL    HW147619  12.126   1.003   3.234  0.3689 -0.9490 -1.1868
46793SOL    HW247620  12.083   0.918   3.351  0.5673  1.3422  0.6253
46794SOL     OW47621   7.352   2.117   3.244  0.4094  0.0119  0.0394
46794SOL    HW147622   7.445   2.137   3.235  0.2902  0.8716  0.6288
46794SOL    HW247623   7.343   2.029   3.208  1.5747 -0.3638  0.6280
46795SOL     OW47624   4.084  12.067  10.278  0.0627 -0.7421 -0.0870
46795SOL    HW147625   3.994  12.091  10.255  0.0644  0.7495  1.2877
46795SOL    HW247626   4.082  11.971  10.282 -1.4242 -0.7497 -0.2052
46796SOL     OW47627   9.001   4.193   6.622 -0.1719 -0.5378  0.6244
46796SOL    HW147628   9.081   4.145   6.601 -0.9918 -1.4163 -0.6085
46796SOL    HW247629   8.945   4.129   6.666 -0.5831 -0.2158  0.5786
46797SOL     OW47630   8.932   4.937   3.931 -0.2362 -0.4714 -0.4546
46797SOL    HW147631   8.855   4.939   3.987 -1.3794 -0.8706 -1.9528
46797SOL    HW247632   8.927   4.852   3.886  2.3117 -1.5412  1.0287
46798SOL     OW47633   9.743  11.220   7.409 -0.2534 -0.3052 -0.1168
46798SOL    HW147634   9.812  11.179   7.357  2.7639  2.5414  1.2876
46798SOL    HW247635   9.714  11.295   7.357  0.9527  1.0539  1.0708
46799SOL     OW47636   0.460  11.869   6.957 -0.0950 -0.1416  0.3093
46799SOL    HW147637   0.513  11.790   6.966 -1.6451 -1.4384 -1.0837
46799SOL    HW247638   0.370  11.836   6.945 -0.9465  1.8755  0.7430
46800SOL     OW47639   1.381   0.446   4.587  0.0865  0.5513 -0.3631
46800SOL    HW147640   1.386   0.531   4.541 -0.3222  0.4471 -0.6058
46800SOL    HW247641   1.300   0.451   4.637  1.0278  1.0538  1.1602
46801SOL     OW47642   0.119   3.417   6.952  0.2624  0.2435 -0.2585
46801SOL    HW147643   0.025   3.405   6.935  0.6274 -2.9937 -0.5892
46801SOL    HW247644   0.132   3.385   7.041  0.9034  2.0410  0.3501
46802SOL     OW47645   1.979   2.539   4.720  0.3258 -0.3355 -0.5077
46802SOL    HW147646   1.902   2.570   4.767  1.2690  0.6438  0.4781
46802SOL    HW247647   1.985   2.447   4.743 -0.9804 -0.6196 -1.2377
46803SOL     OW47648  10.777   5.291   2.129  0.7611 -0.3701  0.1328
46803SOL    HW147649  10.739   5.206   2.106  0.9136 -0.7462  1.2034
46803SOL    HW247650  10.791   5.286   2.224  0.2532  1.0564  0.3063
46804SOL     OW47651   2.415   8.615   5.474 -0.4482  0.2470  0.0511
46804SOL    HW147652   2.401   8.635   5.381 -0.3277 -0.6629 -0.1730
46804SOL    HW247653   2.504   8.578   5.477  0.7223  2.8776  0.9565
46805SOL     OW47654   1.303  10.237   7.057 -0.3601  0.6128 -0.1119
46805SOL    HW147655   1.325  10.232   6.964  0.2617  0.1894  0.0536
46805SOL    HW247656   1.308  10.331   7.078  1.2194  0.5625 -0.1127
46806SOL     OW47657   0.117   4.814   8.533 -0.1171  0.2778  0.0888
46806SOL    HW147658   0.028   4.836   8.507 -0.1409 -0.4251 -0.4683
46806SOL    HW247659   0.108   4.735   8.587  0.2360 -0.3707 -0.7751
46807SOL     OW47660   3.327   4.508   6.735  0.2587 -0.0000 -1.2030
46807SOL    HW147661   3.392   4.439   6.744  1.7951  1.4210 -0.9629
46807SOL    HW247662   3.320   4.546   6.823 -1.9087 -0.9466 -0.8924
46808SOL     OW47663   8.649   5.493   0.964  0.3194  0.0984 -0.4224
46808SOL    HW147664   8.633   5.473   1.056  1.6937 -1.1377 -0.4048
46808SOL    HW247665   8.625   5.585   0.955 -0.7193 -0.0102  0.9407
46809SOL     OW47666   0.579   7.595   4.517 -0.0807  0.5724 -0.2081
46809SOL    HW147667   0.649   7.617   4.456  0.1296  1.0376  0.2016
46809SOL    HW247668   0.620   7.536   4.580 -0.5111 -0.6042 -0.9990
46810SOL     OW47669   7.790  12.435  12.481 -0.0972 -0.3329 -0.7848
46810SOL    HW147670   7.793  12.339  12.475  0.1854 -0.4075  0.3438
46810SOL    HW247671   7.882  12.462  12.478 -0.1988 -0.0441 -1.6382
46811SOL     OW47672  11.029   8.688  10.621  0.1638  0.0410  0.1675
46811SOL    HW147673  10.987   8.708  10.538 -0.1183  0.6281  0.4439
46811SOL    HW247674  11.122   8.696  10.604  0.0731  2.5962  0.4704
46812SOL     OW47675   5.973   9.971   5.626  0.3775 -0.2427 -0.6279
46812SOL    HW147676   5.999  10.062   5.635  0.0733 -0.2707  0.8870
46812SOL    HW247677   5.882   9.974   5.595 -0.5828  0.1089  1.9184
46813SOL     OW47678   8.619  10.632  12.236  0.4541  0.3612 -0.4020
46813SOL    HW147679   8.690  10.661  12.179  0.9803  2.3632  1.1298
46813SOL    HW247680   8.557  10.705  12.236 -0.5058 -0.4346  0.0338
46814SOL     OW47681   1.575   6.003   6.711 -0.3007 -0.7179  0.1124
46814SOL    HW147682   1.580   5.936   6.643  0.9547 -0.7472  0.2131
46814SOL    HW247683   1.512   5.968   6.774 -0.8441 -1.0717 -0.6151
46815SOL     OW47684   9.566   5.764  10.107 -0.3687  0.0045 -0.1267
46815SOL    HW147685   9.540   5.703  10.037 -1.9219  0.4741  0.0022
46815SOL    HW247686   9.634   5.818  10.067  0.5230 -1.3085 -0.4773
46816SOL     OW47687   3.996  11.881   8.054  0.0408  0.4427 -0.3115
46816SOL    HW147688   4.026  11.813   7.993  2.8907 -0.8322  2.2518
46816SOL    HW247689   3.953  11.833   8.124 -1.0097  1.6606 -0.0838
46817SOL     OW47690   7.101  10.396   8.148  0.0367 -0.0077  0.7292
46817SOL    HW147691   7.191  10.395   8.181  0.7868  1.6817 -1.0935
46817SOL    HW247692   7.089  10.484   8.113 -2.1596 -0.3749  0.4131
46818SOL     OW47693   3.211   6.136  10.451  0.1633  0.4080 -0.0979
46818SOL    HW147694   3.143   6.106  10.511 -1.1639  1.0531 -1.2115
46818SOL    HW247695   3.245   6.056  10.412  0.5347  0.0338  0.9585
46819SOL     OW47696   2.112  12.473   8.162 -0.2886 -0.5869  0.4655
46819SOL    HW147697   2.094  12.459   8.069  0.0565  0.7545  0.1697
46819SOL    HW247698   2.032  12.446   8.207 -1.7740  1.8183 -0.5173
46820SOL     OW47699   9.436   6.582   3.355 -0.2406  0.7383 -0.2267
46820SOL    HW147700   9.465   6.522   3.285  0.3761  1.6948 -0.8074
46820SOL    HW247701   9.346   6.555   3.373  0.1297 -0.5795 -0.2388
46821SOL     OW47702   9.352   8.275  11.320  0.1448  0.2381 -0.3135
46821SOL    HW147703   9.314   8.360  11.340 -0.2447  0.1099 -0.4930
46821SOL    HW247704   9.369   8.235  11.405  1.6473  1.0530 -0.1930
46822SOL     OW47705   6.964  11.485   4.996 -0.4117 -0.1964 -0.3155
46822SOL    HW147706   7.044  11.536   5.009 -1.1425  0.7863  0.5080
46822SOL    HW247707   6.977  11.407   5.049  1.0693 -1.3243 -2.2356
46823SOL     OW47708   1.490   6.060   7.047 -0.0621 -0.3387  0.8347
46823SOL    HW147709   1.526   6.136   7.001 -0.4823 -0.9408 -0.5526
46823SOL    HW247710   1.402   6.049   7.011  0.3986 -2.1639  0.1075
46824SOL     OW47711   9.472   1.395   3.658  0.2039 -0.6510 -0.0373
46824SOL    HW147712   9.559   1.365   3.633  0.5944  0.3623  0.0576
46824SOL    HW247713   9.431   1.421   3.576  0.5818  0.3530  0.0748
46825SOL     OW47714   9.892   6.936   7.823  0.0791  0.4984 -0.0527
46825SOL    HW147715   9.960   6.869   7.829  0.4758  0.8844 -0.2061
46825SOL    HW247716   9.917   7.002   7.889  0.2388  0.9803 -0.5838
46826SOL     OW47717   6.737   7.843   0.633 -0.1408  0.0399 -0.6347
46826SOL    HW147718   6.678   7.784   0.681  0.1288 -0.3232 -0.7491
46826SOL    HW247719   6.716   7.828   0.541  0.2999 -0.2666 -0.6854
46827SOL     OW47720   1.942  11.177   9.335 -0.0514 -0.0343 -0.0034
46827SOL    HW147721   1.977  11.194   9.423 -0.7065 -1.4284  0.5600
46827SOL    HW247722   1.879  11.105   9.348 -2.1498  1.4707 -1.1781
46828SOL     OW47723   2.054   6.977  11.558  0.5406 -0.0412  0.8189
46828SOL    HW147724   2.076   7.069  11.542  2.2132 -0.3502  1.0937
46828SOL    HW247725   1.992   6.979  11.630  0.3267  0.8894  0.6217
46829SOL     OW47726   6.996   5.516   4.981  0.7760  0.3303  0.4610
46829SOL    HW147727   6.907   5.517   4.945  1.2106 -0.2471 -0.7061
46829SOL    HW247728   7.048   5.563   4.916  1.6661 -1.1161  0.0762
46830SOL     OW47729   9.927   8.782   9.986 -0.0486 -0.0526 -0.0721
46830SOL    HW147730   9.994   8.830  10.035 -0.5762  0.2341  0.3835
46830SOL    HW247731   9.957   8.692   9.986  1.0167  0.2818 -1.0333
46831SOL     OW47732   4.194   8.593  10.021  0.3073  0.0987 -0.2698
46831SOL    HW147733   4.241   8.538  10.083  1.5563 -0.1534 -1.3980
46831SOL    HW247734   4.129   8.640  10.074  2.0021  0.6727  1.3813
46832SOL     OW47735   2.087   3.961   1.086 -0.3246  0.2088 -0.4437
46832SOL    HW147736   2.053   4.005   1.163  0.6500  0.7783 -0.3305
46832SOL    HW247737   2.085   4.028   1.017 -2.3554 -0.6177 -1.2851
46833SOL     OW47738   1.225  11.673   3.333  0.0726 -0.1871  0.4250
46833SOL    HW147739   1.233  11.654   3.240 -0.0741 -0.2065  0.4166
46833SOL    HW247740   1.256  11.594   3.377  0.9389  0.1246  0.4004
46834SOL     OW47741   8.121  11.392  10.624 -0.2756 -0.2115  0.0509
46834SOL    HW147742   8.201  11.406  10.674  1.1458 -0.4426 -2.0278
46834SOL    HW247743   8.064  11.343  10.683  1.0028  0.1967  1.6892
46835SOL     OW47744  11.887   3.606  11.744 -0.2774  0.1524  0.1026
46835SOL    HW147745  11.862   3.521  11.780 -0.5970 -0.4183 -1.3935
46835SOL    HW247746  11.976   3.592  11.710  0.2194  0.8210  1.0570
46836SOL     OW47747  11.893   2.989   3.029 -0.7678  0.2567 -0.1397
46836SOL    HW147748  11.877   2.975   3.122 -0.2212 -1.4964 -0.2702
46836SOL    HW247749  11.811   2.964   2.987 -0.4737 -0.5969 -0.2273
46837SOL     OW47750   1.868   5.993   8.152 -0.2930  0.1073  0.2378
46837SOL    HW147751   1.829   5.906   8.157  1.1236 -0.6284 -0.8221
46837SOL    HW247752   1.840   6.027   8.067  1.1622 -0.3670 -0.4680
46838SOL     OW47753   7.137  12.548  12.604  0.3813  0.1604  0.2265
46838SOL    HW147754   7.165  12.572  12.693  0.6508 -0.2716  0.2617
46838SOL    HW247755   7.065  12.608  12.585  0.7305  0.6863  0.4929
46839SOL     OW47756   1.605   1.067   6.753  0.3937 -0.0156 -0.1245
46839SOL    HW147757   1.512   1.057   6.731  0.0261 -1.8319  1.8966
46839SOL    HW247758   1.605   1.107   6.840  1.6010  1.4913 -0.7647
46840SOL     OW47759   7.758   7.214   3.872  0.3873  0.1223  0.2030
46840SOL    HW147760   7.806   7.276   3.819 -0.0167  1.3261  1.2000
46840SOL    HW247761   7.782   7.128   3.836  2.3579  0.7312 -0.0421
46841SOL     OW47762   4.528   7.558   6.933 -0.5278 -0.1457  0.0698
46841SOL    HW147763   4.616   7.583   6.906 -0.6443  0.2238  0.0303
46841SOL    HW247764   4.538   7.530   7.024 -0.2469 -0.7852 -0.1514
46842SOL     OW47765  11.419   2.215   3.812 -0.0178  0.4293  0.4127
46842SOL    HW147766  11.425   2.278   3.883  0.8712 -0.2133  0.9299
46842SOL    HW247767  11.347   2.158   3.837 -0.9521  1.3304 -0.1523
46843SOL     OW47768   9.741   3.486   7.888 -0.4090 -0.1159  0.0874
46843SOL    HW147769   9.745   3.391   7.877  1.5982 -0.1925  1.1339
46843SOL    HW247770   9.813   3.520   7.836 -3.2291  1.2512 -3.2900
46844SOL     OW47771   7.870   5.635  11.145 -0.0817  0.1925  0.4423
46844SOL    HW147772   7.813   5.633  11.068  0.8949 -0.2835 -0.2786
46844SOL    HW247773   7.835   5.706  11.198 -0.6167  0.6952 -0.5546
46845SOL     OW47774   3.701   0.437   8.306 -0.4222  0.0105  0.0109
46845SOL    HW147775   3.638   0.381   8.260 -0.7172 -0.2226  0.6833
46845SOL    HW247776   3.661   0.524   8.304 -0.9164 -0.1899  0.6804
46846SOL     OW47777   6.976   5.859   5.168 -0.1380  0.6137 -0.3580
46846SOL    HW147778   6.901   5.856   5.109  1.0209  0.8336 -1.8937
46846SOL    HW247779   7.019   5.942   5.149 -0.9587  1.7895  2.4348
46847SOL     OW47780  10.587  11.113   9.847 -0.5630 -0.4549 -0.7690
46847SOL    HW147781  10.492  11.112   9.837 -0.4390  0.3121 -2.5501
46847SOL    HW247782  10.604  11.181   9.912 -1.2052  0.0608 -1.1241
46848SOL     OW47783  12.247  10.407   9.591 -0.5924 -0.2411  0.4554
46848SOL    HW147784  12.208  10.420   9.678 -0.5725  0.8035  0.3246
46848SOL    HW247785  12.297  10.487   9.575  0.7499 -1.1055  0.1626
46849SOL     OW47786   0.692   7.063   9.966  0.6886  0.5601  0.1558
46849SOL    HW147787   0.710   7.157   9.956  0.7486  0.6668  1.1528
46849SOL    HW247788   0.597   7.057   9.969  0.7026  0.7573  1.4439
46850SOL     OW47789   8.340  12.492   4.345 -0.3234 -0.0216  0.3279
46850SOL    HW147790   8.288  12.416   4.372  1.5661 -1.2516  0.7306
46850SOL    HW247791   8.284  12.539   4.284 -2.0248 -1.0732  1.0072
46851SOL     OW47792   9.559  11.052   7.466  0.2735  0.0563 -0.0692
46851SOL    HW147793   9.623  11.123   7.462 -1.4656  1.6292 -1.5592
46851SOL    HW247794   9.565  11.019   7.556  1.0890  2.1309  0.6856
46852SOL     OW47795  11.601  10.872  11.562 -0.0128 -0.5842 -0.7238
46852SOL    HW147796  11.670  10.840  11.620 -0.4345 -0.1917  0.0104
46852SOL    HW247797  11.646  10.890  11.479  0.7576 -0.3935 -0.2761
46853SOL     OW47798   0.481   7.058   7.535 -0.2792  0.5579  0.0237
46853SOL    HW147799   0.435   6.991   7.484 -0.9666 -0.4561  1.8571
46853SOL    HW247800   0.445   7.141   7.503 -0.1950  0.0292 -1.5575
46854SOL     OW47801  10.178   8.313   1.466  0.4450  0.1485 -0.2769
46854SOL    HW147802  10.091   8.345   1.446 -0.4375 -1.2441  1.1300
46854SOL    HW247803  10.223   8.386   1.508  0.4419  1.2944 -2.1731
46855SOL     OW47804   8.858  10.650   4.378 -0.3525 -0.0217 -0.2379
46855SOL    HW147805   8.781  10.631   4.432 -0.9267 -0.7223 -1.2755
46855SOL    HW247806   8.858  10.582   4.311  0.8877  0.2725 -0.5596
46856SOL     OW47807   6.592   5.388   4.394 -0.1283  0.2722 -0.1733
46856SOL    HW147808   6.663   5.376   4.330  0.3648 -0.4907  0.5019
46856SOL    HW247809   6.624   5.457   4.453  0.5917 -0.9039  0.8477
46857SOL     OW47810  12.608   2.019   8.300 -0.2535 -0.1905  0.3027
46857SOL    HW147811  12.527   2.039   8.346 -0.0657 -2.4568  1.7521
46857SOL    HW247812  12.656   1.961   8.359  2.5305  1.1802 -0.4451
46858SOL     OW47813   6.761   5.571   8.166  0.2229 -0.5933  0.7509
46858SOL    HW147814   6.794   5.559   8.255  1.8329  0.4515  0.3472
46858SOL    HW247815   6.719   5.657   8.168 -0.2841 -0.8381  0.6496
46859SOL     OW47816  12.048   2.907   3.404  0.2669 -0.2611 -1.0526
46859SOL    HW147817  12.123   2.966   3.402 -0.1727  0.4499  0.7138
46859SOL    HW247818  11.978   2.957   3.360 -0.2430  0.8475  0.8664
46860SOL     OW47819   7.417   0.915   0.806 -0.3148  0.0245 -0.6995
46860SOL    HW147820   7.477   0.985   0.831 -1.2084  1.4411 -2.3182
46860SOL    HW247821   7.467   0.861   0.745 -1.0408  2.0748 -3.2647
46861SOL     OW47822   7.356   0.887   8.296  0.7136 -0.3080 -0.1732
46861SOL    HW147823   7.376   0.829   8.222  1.3760 -1.0566  0.5660
46861SOL    HW247824   7.402   0.847   8.370 -2.0091 -1.0426  1.2454
46862SOL     OW47825   4.706  11.522   4.181 -0.0183 -0.2075 -0.9022
46862SOL    HW147826   4.613  11.506   4.161 -0.7172 -0.0234  1.7514
46862SOL    HW247827   4.704  11.599   4.238  1.5711 -1.3003  0.7038
46863SOL     OW47828   9.892   3.546   9.336 -0.5532 -0.4387  0.2410
46863SOL    HW147829   9.910   3.509   9.423 -1.5647 -1.2267  0.1324
46863SOL    HW247830   9.800   3.525   9.320 -0.3399 -0.4102 -1.0810
46864SOL     OW47831   7.212   4.908   6.253 -0.4107 -0.1723 -0.3705
46864SOL    HW147832   7.164   4.991   6.261 -0.2785 -0.1002 -0.3213
46864SOL    HW247833   7.147   4.846   6.219 -0.3199  0.1357 -1.1343
46865SOL     OW47834   7.887   7.489   5.139  0.0189 -0.4275  0.2552
46865SOL    HW147835   7.865   7.397   5.152  0.4797 -1.1667 -3.1723
46865SOL    HW247836   7.949   7.510   5.209 -0.7662 -2.4416  1.6198
46866SOL     OW47837   0.470   9.988   6.646  0.0638  0.1230  0.0769
46866SOL    HW147838   0.558   9.967   6.678 -0.3978  1.2949  2.3687
46866SOL    HW247839   0.417   9.911   6.668  0.2443 -0.0732 -0.1617
46867SOL     OW47840   9.643   1.139   8.970  0.2356  0.2161  0.2371
46867SOL    HW147841   9.649   1.231   8.945  1.6599  0.4116  1.2031
46867SOL    HW247842   9.720   1.098   8.932  0.4140 -0.2567  1.0868
46868SOL     OW47843   4.432   3.283   8.115  0.1408  0.4767 -0.7900
46868SOL    HW147844   4.523   3.310   8.126 -0.1045  0.7306  0.7594
46868SOL    HW247845   4.384   3.336   8.178 -0.7145 -1.6634  0.4373
46869SOL     OW47846   6.917   9.601   6.294 -0.2873 -0.3288  0.7733
46869SOL    HW147847   6.908   9.657   6.217 -0.0494 -0.5219  0.6041
46869SOL    HW247848   6.897   9.658   6.367  0.3903  0.1018  0.6352
46870SOL     OW47849   4.768  10.700  10.541 -0.0117  0.1466 -0.2530
46870SOL    HW147850   4.693  10.672  10.489 -0.0242  1.5536 -1.0517
46870SOL    HW247851   4.840  10.706  10.478  0.2883  0.6514  0.1288
46871SOL     OW47852   8.979   2.687   8.993 -0.1644 -0.0371 -0.6266
46871SOL    HW147853   9.048   2.681   9.059  0.4033 -0.3870 -1.2296
46871SOL    HW247854   8.919   2.615   9.013 -0.3094  0.2174 -0.1480
46872SOL     OW47855   8.330   2.384   6.412 -0.4191  0.4300 -0.1999
46872SOL    HW147856   8.315   2.292   6.432  0.0276  0.6807  1.4870
46872SOL    HW247857   8.415   2.403   6.452 -1.0297  1.8377  0.4956
46873SOL     OW47858   7.244  11.842   4.962 -0.2095  0.0893 -0.2708
46873SOL    HW147859   7.262  11.930   4.995  0.3646 -0.2625  0.3923
46873SOL    HW247860   7.150  11.842   4.944 -0.1454  0.9478 -0.6307
46874SOL     OW47861   1.663   0.776   4.657 -0.2690 -0.0909  0.3169
46874SOL    HW147862   1.655   0.751   4.565  0.5683 -3.8642  1.0964
46874SOL    HW247863   1.574   0.773   4.691 -0.2640 -1.7526  0.2481
46875SOL     OW47864   3.260   2.464  10.685  0.1426 -0.0182 -0.0451
46875SOL    HW147865   3.346   2.423  10.683  0.5441  0.7885 -2.1233
46875SOL    HW247866   3.198   2.391  10.695  0.9012 -1.0501 -2.3389
46876SOL     OW47867   7.098   9.290   9.310 -0.1933  0.0990  0.6155
46876SOL    HW147868   7.087   9.221   9.244  2.7482 -1.5819  1.7288
46876SOL    HW247869   7.112   9.370   9.258 -1.8215 -0.3935 -0.6957
46877SOL     OW47870   8.505   6.222   1.676 -0.5937 -0.0194 -0.1363
46877SOL    HW147871   8.418   6.205   1.640 -1.2163  2.2008  0.2108
46877SOL    HW247872   8.492   6.291   1.741  1.6651  1.6975 -1.3646
46878SOL     OW47873   6.074  11.363   6.187 -0.0334 -0.0783 -0.6340
46878SOL    HW147874   6.043  11.302   6.121 -1.5929 -0.1171  0.0879
46878SOL    HW247875   6.090  11.309   6.264  1.0969  0.0678 -0.7513
46879SOL     OW47876  12.471   8.165  11.631  0.0058 -0.1367 -0.5849
46879SOL    HW147877  12.549   8.109  11.628  1.4082  1.6386  0.2531
46879SOL    HW247878  12.398   8.106  11.612  1.4273 -2.1184 -0.2448
46880SOL     OW47879   5.955   8.187   8.284 -0.5172 -0.4155 -0.1493
46880SOL    HW147880   5.994   8.253   8.226  0.9271 -0.8169  0.3155
46880SOL    HW247881   5.983   8.104   8.246  1.7012 -0.6802  1.8685
46881SOL     OW47882   6.190   7.530   2.663  0.1274 -0.6774 -0.0649
46881SOL    HW147883   6.164   7.602   2.606  0.0573  0.0479  0.8425
46881SOL    HW247884   6.199   7.571   2.750 -0.0188 -1.7867  0.4912
46882SOL     OW47885  12.334   8.160   3.971 -0.3672  0.2037 -0.6580
46882SOL    HW147886  12.318   8.065   3.964  1.8882 -0.2582 -0.4174
46882SOL    HW247887  12.296   8.185   4.055  1.5489 -1.1580  0.7138
46883SOL     OW47888   8.902   2.535   6.385 -0.3438 -0.2908  0.0075
46883SOL    HW147889   8.928   2.623   6.413 -1.6790 -0.3480  1.5265
46883SOL    HW247890   8.980   2.481   6.401  0.1359  0.3971  0.0550
46884SOL     OW47891   4.806   0.765   9.560 -0.3095  0.1881  0.0314
46884SOL    HW147892   4.834   0.719   9.480 -2.4937  0.6420 -1.0682
46884SOL    HW247893   4.785   0.853   9.531  0.7916  0.9844  1.5386
46885SOL     OW47894   0.907   5.220  11.665  0.2087  0.0455  0.1352
46885SOL    HW147895   0.822   5.180  11.649  0.2718  0.4973 -1.4561
46885SOL    HW247896   0.889   5.291  11.727 -0.7603  0.7899 -0.9786
46886SOL     OW47897   2.843   3.177   7.121  0.3913  0.1684 -0.3835
46886SOL    HW147898   2.772   3.222   7.166  1.2836  0.6217  0.6085
46886SOL    HW247899   2.860   3.100   7.175 -0.0770 -0.5394 -1.2231
46887SOL     OW47900   5.663   2.284   6.194  0.4005  0.1310 -0.1640
46887SOL    HW147901   5.625   2.300   6.108 -0.3667 -0.6537  0.0176
46887SOL    HW247902   5.740   2.229   6.176 -0.3852 -0.9667 -0.2720
46888SOL     OW47903   1.435   0.909   9.204 -0.2135  0.2762  0.8929
46888SOL    HW147904   1.369   0.840   9.195 -0.2223  0.3391  0.4854
46888SOL    HW247905   1.493   0.897   9.129  1.9727 -1.6244  2.7126
46889SOL     OW47906  12.258  10.726  10.932 -0.1109  0.1674  0.8157
46889SOL    HW147907  12.166  10.699  10.937 -1.0187  3.0679  1.8511
46889SOL    HW247908  12.270  10.786  11.006  2.0360  1.4281 -0.4316
46890SOL     OW47909  11.776  11.532   2.956  0.0004  0.4451  0.0318
46890SOL    HW147910  11.695  11.516   3.006 -0.0293  2.5848  0.7856
46890SOL    HW247911  11.842  11.547   3.023  0.8593 -0.4694 -0.5943
46891SOL     OW47912  10.681   4.482  12.685  0.2366  0.0500  0.1114
46891SOL    HW147913  10.691   4.454  12.594 -1.1335 -0.3480  0.0712
46891SOL    HW247914  10.643   4.407  12.730  0.5235  0.3853  0.9276
46892SOL     OW47915   6.434  11.118  12.510 -0.3341 -0.1684 -0.3080
46892SOL    HW147916   6.388  11.165  12.580  1.0749  0.2925  0.3517
46892SOL    HW247917   6.451  11.184  12.444  0.7412  0.0346  0.1571
46893SOL     OW47918   8.293   0.395   4.468  0.3542 -0.2287  0.2774
46893SOL    HW147919   8.260   0.472   4.420  1.6259  1.2837  1.7167
46893SOL    HW247920   8.222   0.371   4.527  0.9508  1.7276  1.8984
46894SOL     OW47921   7.136   2.398   2.776  0.6616 -0.4378 -0.0393
46894SOL    HW147922   7.101   2.319   2.736  0.6363 -0.8306  0.7229
46894SOL    HW247923   7.181   2.444   2.706 -0.5771 -0.3927 -0.8291
46895SOL     OW47924   4.553   2.853  11.509  0.0451 -0.6019  0.2634
46895SOL    HW147925   4.559   2.949  11.510  1.8503 -0.6656  0.4216
46895SOL    HW247926   4.532   2.829  11.599 -0.2059 -0.3667  0.2683
46896SOL     OW47927   1.477   2.581   9.227 -0.0628  0.0025 -1.5303
46896SOL    HW147928   1.479   2.645   9.299 -0.0014 -2.5105  0.8556
46896SOL    HW247929   1.534   2.510   9.257 -3.1965 -3.0214 -2.1781
46897SOL     OW47930   7.326   5.138   8.960 -0.7984  0.2914 -0.2232
46897SOL    HW147931   7.371   5.184   8.889 -1.8271  1.5084 -0.1160
46897SOL    HW247932   7.298   5.056   8.921 -1.0801  0.8114 -1.1372
46898SOL     OW47933   7.010   1.421   2.792 -0.1333 -0.2172  0.0844
46898SOL    HW147934   6.946   1.372   2.844  1.3266 -1.9862  0.2899
46898SOL    HW247935   7.077   1.357   2.770  1.6868  1.6265  0.0186
46899SOL     OW47936   8.901  11.241  11.955 -0.3612  0.5103  0.3586
46899SOL    HW147937   8.972  11.227  11.892 -0.4364  0.5036  0.2749
46899SOL    HW247938   8.945  11.240  12.040 -0.2127  0.8559  0.2876
46900SOL     OW47939   8.356  10.395   1.309  0.5145  0.1674  0.1698
46900SOL    HW147940   8.382  10.305   1.289  0.1487 -0.5679  2.5951
46900SOL    HW247941   8.264  10.399   1.282  1.1963  0.6920 -2.3159
46901SOL     OW47942   7.814   7.966   8.305  0.3989  0.1016 -0.1485
46901SOL    HW147943   7.883   7.923   8.253 -1.4437 -1.7373 -1.2386
46901SOL    HW247944   7.848   7.966   8.394  2.0052 -0.3002 -0.7188
46902SOL     OW47945   4.107   4.738   3.642 -0.2568  0.0323 -0.1654
46902SOL    HW147946   4.179   4.767   3.698 -0.7207  1.1809 -0.1339
46902SOL    HW247947   4.048   4.692   3.701 -0.2342  0.3324  0.0949
46903SOL     OW47948   6.356   6.749  11.336  0.0110  0.0249  0.3744
46903SOL    HW147949   6.305   6.709  11.406 -0.6527  0.0805 -0.0643
46903SOL    HW247950   6.444   6.713  11.347  0.3390  1.2561  2.2009
46904SOL     OW47951   1.160   9.397   5.294  0.6765  0.0382 -0.1420
46904SOL    HW147952   1.151   9.305   5.318  3.0041 -0.0906  0.4503
46904SOL    HW247953   1.123   9.403   5.206  1.5671 -1.7209 -0.6767
46905SOL     OW47954   9.581   9.837   1.809 -0.0153  0.3475  0.0378
46905SOL    HW147955   9.518   9.883   1.864  0.5637  0.7822  0.3584
46905SOL    HW247956   9.539   9.755   1.787 -0.7180  0.6609  0.1897
46906SOL     OW47957   3.373   3.696   5.359  0.3007  0.0950 -0.0161
46906SOL    HW147958   3.365   3.791   5.349 -0.8260  0.2544  1.9484
46906SOL    HW247959   3.442   3.685   5.425 -0.2565 -0.4029  0.4864
46907SOL     OW47960   2.742   6.357   6.683 -0.5581 -0.0470 -0.0964
46907SOL    HW147961   2.669   6.386   6.737 -2.8641 -0.1106 -2.9318
46907SOL    HW247962   2.749   6.263   6.701 -0.9198  0.0294  0.4835
46908SOL     OW47963  11.684  12.560   0.328 -0.1335  0.1266  0.7311
46908SOL    HW147964  11.662  12.540   0.237 -2.5144  0.6582  1.1438
46908SOL    HW247965  11.776  12.533   0.337 -0.3988 -1.6783 -1.3063
46909SOL     OW47966   9.601  11.396  11.993  0.0091 -0.3159  0.5808
46909SOL    HW147967   9.514  11.369  11.961 -0.8240  2.2060  0.4917
46909SOL    HW247968   9.585  11.423  12.083  0.5939  0.6119  0.4123
46910SOL     OW47969  11.854   5.354  10.244  0.2577  0.2577 -0.1309
46910SOL    HW147970  11.814   5.311  10.319 -0.0385  1.2036  0.2769
46910SOL    HW247971  11.948   5.343  10.257  0.1767 -0.6468 -0.2780
46911SOL     OW47972   6.301   9.633  10.076  0.2605  0.5195 -0.2363
46911SOL    HW147973   6.395   9.617  10.084  0.2828  1.2629  1.3359
46911SOL    HW247974   6.294   9.727  10.059 -0.1866  0.3465 -1.0618
46912SOL     OW47975   8.312  11.948  12.609 -0.1928  0.0143  0.4190
46912SOL    HW147976   8.375  11.889  12.652  1.3598  1.6910  0.5522
46912SOL    HW247977   8.321  11.930  12.516 -0.0289 -0.2457  0.4849
46913SOL     OW47978  12.122  11.032   8.332 -0.4320 -0.0257 -0.2335
46913SOL    HW147979  12.135  10.942   8.301  1.8874  0.4446 -0.7636
46913SOL    HW247980  12.105  11.083   8.253 -0.3424  0.2301 -0.0884
46914SOL     OW47981   4.419   3.817   5.099 -0.1715 -0.1124 -0.1512
46914SOL    HW147982   4.485   3.840   5.035  0.5647  0.5189  0.8002
46914SOL    HW247983   4.461   3.832   5.184 -1.6918  0.8045  0.4842
46915SOL     OW47984   9.102   4.132   5.029  0.4484 -0.2013 -0.3335
46915SOL    HW147985   9.009   4.139   5.050  0.1943  0.2714 -1.5755
46915SOL    HW247986   9.109   4.049   4.982  0.4740  0.2505 -1.1360
46916SOL     OW47987  11.883   9.232   9.867 -0.2126 -0.4951 -0.1541
46916SOL    HW147988  11.896   9.198   9.779 -2.1154  0.7317 -0.9741
46916SOL    HW247989  11.915   9.323   9.862 -0.7936 -0.2624  0.2755
46917SOL     OW47990   1.483   7.602   5.523  0.3532 -0.0545 -0.1526
46917SOL    HW147991   1.434   7.676   5.485 -1.9388 -0.3417  1.9700
46917SOL    HW247992   1.575   7.624   5.507 -0.1540  3.7241  1.0543
46918SOL     OW47993   1.072   5.327   2.863 -0.3242  0.2846  0.3550
46918SOL    HW147994   1.155   5.373   2.874  0.5110 -1.0402 -0.0966
46918SOL    HW247995   1.049   5.338   2.771 -0.8083  0.8938  0.5448
46919SOL     OW47996  12.322   9.041   6.144  0.4966 -0.0251 -0.1782
46919SOL    HW147997  12.326   9.136   6.154 -0.7293  0.0128  0.1676
46919SOL    HW247998  12.385   9.021   6.076 -1.2063  1.3741 -2.2931
46920SOL     OW47999  11.648   7.564   3.827 -0.5049  0.2494 -0.8862
46920SOL    HW148000  11.598   7.485   3.848 -0.5041  0.2948 -0.7156
46920SOL    HW248001  11.737   7.545   3.856 -0.1927 -0.2037 -2.0496
46921SOL     OW48002   3.825   0.563   0.561 -0.0651  0.0584 -0.1349
46921SOL    HW148003   3.877   0.594   0.635 -0.1075 -2.0770  0.8886
46921SOL    HW248004   3.887   0.557   0.488 -0.0544  2.3263 -0.3664
46922SOL     OW48005   6.656   2.915   8.907 -0.1181  0.3700  0.3129
46922SOL    HW148006   6.726   2.851   8.920 -1.4988 -1.7363 -1.5968
46922SOL    HW248007   6.689   2.974   8.839 -0.0782 -0.5002 -0.4492
46923SOL     OW48008   8.551   8.838  11.013 -0.6272 -0.5543 -0.0861
46923SOL    HW148009   8.475   8.813  11.065 -0.6849  1.0236  0.6155
46923SOL    HW248010   8.515   8.887  10.939 -0.5770 -3.0011 -1.8863
46924SOL     OW48011  10.550   2.874   0.238  0.6175 -0.0152 -0.1468
46924SOL    HW148012  10.465   2.864   0.279  0.5587  1.3692  0.1272
46924SOL    HW248013  10.548   2.816   0.162 -0.3399 -0.4340  0.1888
46925SOL     OW48014   4.886   6.938   5.771 -0.3422  0.1459  0.0059
46925SOL    HW148015   4.840   6.904   5.849 -1.3186 -0.3818 -0.7794
46925SOL    HW248016   4.824   6.998   5.731  0.2801  0.6586 -0.1967
46926SOL     OW48017   0.522   0.709  10.180 -0.3137  0.0927 -0.1470
46926SOL    HW148018   0.607   0.700  10.222 -0.4505 -1.0211 -0.0720
46926SOL    HW248019   0.525   0.649  10.106 -1.3826 -0.7984  0.4754
46927SOL     OW48020   2.562   1.373   7.244  0.0243 -0.0650  0.2812
46927SOL    HW148021   2.576   1.364   7.339  2.1796  2.1667  0.2526
46927SOL    HW248022   2.639   1.333   7.205 -0.2136  0.2115 -0.4800
46928SOL     OW48023   2.160   3.836  11.536 -0.4077  0.3431  0.0413
46928SOL    HW148024   2.180   3.916  11.487  0.9813  0.5827  0.9543
46928SOL    HW248025   2.169   3.861  11.628 -0.2529 -0.7945  0.3488
46929SOL     OW48026   6.323   7.973   4.501  0.1207  0.0263  0.1670
46929SOL    HW148027   6.364   8.010   4.579 -0.7406 -2.0311  1.6856
46929SOL    HW248028   6.243   7.931   4.534 -0.2559 -0.9280 -1.8180
46930SOL     OW48029   3.907   7.893  10.316 -0.4794  0.5298  0.2539
46930SOL    HW148030   3.910   7.912  10.409 -0.5675 -0.3905  0.4555
46930SOL    HW248031   3.868   7.971  10.277  0.1081  1.1647  0.9054
46931SOL     OW48032  12.371  11.582  10.138 -0.1658 -0.1361  0.0622
46931SOL    HW148033  12.419  11.644  10.082 -0.3107  0.1353  0.2342
46931SOL    HW248034  12.279  11.608  10.127 -0.4390 -1.4912 -1.3263
46932SOL     OW48035   8.298   4.048  12.258 -0.4242  0.7270  0.0663
46932SOL    HW148036   8.230   4.046  12.191 -1.9172  0.6986  1.5259
46932SOL    HW248037   8.291   3.963  12.301 -0.0090  1.0385  0.7553
46933SOL     OW48038   5.804   6.446   7.278  0.1300  0.5494 -0.1392
46933SOL    HW148039   5.774   6.461   7.188 -0.0228 -0.1980 -0.2242
46933SOL    HW248040   5.788   6.353   7.293  0.3889  0.6132  0.5796
46934SOL     OW48041   1.869  10.089   1.932 -0.1670  0.2010  0.2473
46934SOL    HW148042   1.873  10.123   2.022  1.4311  0.1202  0.2204
46934SOL    HW248043   1.889  10.165   1.877  2.6443 -0.5231  0.1510
46935SOL     OW48044   3.297  11.095   9.804  0.3846  0.2379  0.3890
46935SOL    HW148045   3.227  11.157   9.785 -0.3575 -0.6593  0.0943
46935SOL    HW248046   3.352  11.139   9.868 -1.1578  0.4864  1.6074
46936SOL     OW48047   3.126   4.822   2.901 -0.2141 -0.5097  0.2157
46936SOL    HW148048   3.109   4.824   2.995 -1.2887  2.0725  0.0600
46936SOL    HW248049   3.126   4.914   2.875  0.5822 -1.1312 -2.2418
46937SOL     OW48050  10.068   1.988  10.270 -0.6038 -0.3346  0.2784
46937SOL    HW148051  10.038   1.923  10.333 -0.2474 -0.0827  0.7103
46937SOL    HW248052  10.064   2.071  10.317  3.5646 -0.5774  1.4184
46938SOL     OW48053   9.142   1.640   7.084  0.3811  0.1417  0.2300
46938SOL    HW148054   9.074   1.608   7.024  0.9576  1.0557 -0.9589
46938SOL    HW248055   9.213   1.576   7.077  0.6834  0.5439 -0.5413
46939SOL     OW48056   5.001   9.199   8.364 -0.3912  0.3274 -0.1095
46939SOL    HW148057   4.973   9.122   8.414  1.0474  0.2085  0.5853
46939SOL    HW248058   4.990   9.272   8.425 -0.3672  0.4489 -0.2510
46940SOL     OW48059   1.268   8.676   1.303  0.2659  0.2754 -0.0574
46940SOL    HW148060   1.255   8.605   1.240 -0.5761  0.7426 -0.4387
46940SOL    HW248061   1.189   8.674   1.358  1.2517 -0.5015  1.3860
46941SOL     OW48062   5.192  11.307  12.591 -0.1856 -0.4683  0.6627
46941SOL    HW148063   5.278  11.298  12.550 -0.8487  0.2760 -0.9710
46941SOL    HW248064   5.135  11.248  12.542 -0.7291 -0.6273  1.4507
46942SOL     OW48065   5.077   4.107   2.639  0.0925 -0.9151 -0.1672
46942SOL    HW148066   5.027   4.184   2.666  0.5002 -0.3644 -0.9184
46942SOL    HW248067   5.112   4.131   2.553  0.5074 -1.8137 -0.2600
46943SOL     OW48068  10.466   3.067   2.025 -0.1679  0.2740  0.4636
46943SOL    HW148069  10.410   3.075   1.948  1.0699 -0.0683 -0.4893
46943SOL    HW248070  10.412   3.021   2.089 -0.9975 -0.0098 -0.4155
46944SOL     OW48071   1.381   7.364   9.501  0.1281 -0.5413  0.1872
46944SOL    HW148072   1.379   7.452   9.537  0.5556  0.9211 -3.0295
46944SOL    HW248073   1.459   7.324   9.540 -0.2800  0.3332  1.9766
46945SOL     OW48074   0.185   2.169   5.688 -0.5092  0.0321 -0.1059
46945SOL    HW148075   0.169   2.237   5.753  2.6181 -0.7100  1.6599
46945SOL    HW248076   0.194   2.217   5.605 -3.8474  1.0643 -0.0182
46946SOL     OW48077   0.952  10.769  11.477  0.0372 -0.0175  0.0651
46946SOL    HW148078   1.028  10.720  11.509 -0.6964 -0.6965  0.8044
46946SOL    HW248079   0.880  10.706  11.479 -0.3324  0.2842 -1.7052
46947SOL     OW48080   1.300   1.589   0.164 -0.0706  0.9019  0.5452
46947SOL    HW148081   1.264   1.515   0.213  0.7999  0.0526 -0.0447
46947SOL    HW248082   1.289   1.563   0.072  0.1672  1.5573  0.3296
46948SOL     OW48083   1.097  10.057   7.396  0.2172  0.0537 -0.0206
46948SOL    HW148084   1.020  10.114   7.396 -0.1485 -0.4274 -0.8780
46948SOL    HW248085   1.169  10.114   7.369  0.0982  0.4123  0.4014
46949SOL     OW48086   3.491   0.369  11.433 -0.2484 -0.4960  0.2462
46949SOL    HW148087   3.489   0.459  11.400 -0.6860 -0.9929 -1.1851
46949SOL    HW248088   3.483   0.378  11.528 -0.1210  0.9765  0.1463
46950SOL     OW48089  10.450   9.268   6.721 -0.4495  0.5292 -0.3379
46950SOL    HW148090  10.396   9.189   6.718 -1.2084  1.0528 -0.7996
46950SOL    HW248091  10.501   9.264   6.640  0.5114 -0.1529  0.2689
46951SOL     OW48092   4.898   1.085   4.504  0.4352  0.2473  0.1159
46951SOL    HW148093   4.887   1.013   4.442  1.2319  0.1958  0.0161
46951SOL    HW248094   4.809   1.108   4.530  0.0669  0.3251 -1.1157
46952SOL     OW48095   2.696   8.346   9.801 -0.0076 -0.0789 -0.3285
46952SOL    HW148096   2.642   8.420   9.773  1.1371  0.1398 -2.1452
46952SOL    HW248097   2.759   8.335   9.730  0.8082 -1.8457  0.6150
46953SOL     OW48098   7.003   7.738   9.811  0.3382 -0.3518  0.9068
46953SOL    HW148099   7.067   7.688   9.862  0.8073  1.0328  1.7311
46953SOL    HW248100   7.056   7.798   9.758 -0.2262  1.7246  2.5469
46954SOL     OW48101  12.710   2.376   5.328  0.4787  0.4355  0.0564
46954SOL    HW148102  12.681   2.468   5.331  0.1058  0.3027  2.2611
46954SOL    HW248103  12.713   2.355   5.235 -2.8574  1.6555 -0.4752
46955SOL     OW48104   6.599   7.660   1.492  0.4370 -0.1780 -0.1913
46955SOL    HW148105   6.647   7.705   1.423  2.1756  1.2814  1.8240
46955SOL    HW248106   6.535   7.725   1.522  0.2647 -0.4833  0.1004
46956SOL     OW48107  10.509   5.953   4.560 -0.0658  0.9590 -0.2928
46956SOL    HW148108  10.431   5.935   4.611  0.5619  1.1786  0.7743
46956SOL    HW248109  10.533   5.869   4.521 -1.0542  0.9754 -0.9733
46957SOL     OW48110   6.517   3.707   1.666 -0.8734  0.1526  0.4991
46957SOL    HW148111   6.591   3.701   1.726 -0.1147  1.8268 -0.2216
46957SOL    HW248112   6.541   3.649   1.593 -1.7723 -1.8409  1.6883
46958SOL     OW48113   9.405   8.325   3.163  0.0976 -0.2085 -0.2606
46958SOL    HW148114   9.367   8.413   3.160  0.1291 -0.2044 -0.5402
46958SOL    HW248115   9.423   8.303   3.072  0.7038 -0.2366 -0.1393
46959SOL     OW48116   8.220   0.643   2.720  0.4837  0.4360  0.2567
46959SOL    HW148117   8.246   0.575   2.658 -0.2726  1.0949 -0.8325
46959SOL    HW248118   8.303   0.679   2.753  0.9178  0.4192 -0.7746
46960SOL     OW48119  11.104   9.720   2.891  0.1458  0.3494 -0.1896
46960SOL    HW148120  11.033   9.689   2.835  0.8779  0.6986 -1.3629
46960SOL    HW248121  11.075   9.702   2.980 -2.5424  2.7217 -0.4470
46961SOL     OW48122   5.943   4.050   3.280  0.5308  0.0218 -0.1559
46961SOL    HW148123   5.998   4.044   3.203  0.9055  1.4225 -0.0279
46961SOL    HW248124   5.944   3.962   3.318  2.0870 -0.1601 -0.5542
46962SOL     OW48125   4.997  10.594   7.765 -0.1193  0.1578  0.0403
46962SOL    HW148126   4.907  10.586   7.798  0.0469  0.8700  0.6679
46962SOL    HW248127   5.041  10.516   7.798  0.0455  0.8469  1.5442
46963SOL     OW48128   6.534   2.287   1.009 -0.0838  0.0111  0.4954
46963SOL    HW148129   6.444   2.274   1.040  0.3443 -0.7161  1.4895
46963SOL    HW248130   6.526   2.286   0.914 -1.0667 -0.5567  0.5638
46964SOL     OW48131   8.304   7.881   1.364  0.1333 -0.6816  0.5738
46964SOL    HW148132   8.299   7.967   1.405 -0.0033 -0.1809 -0.4571
46964SOL    HW248133   8.395   7.854   1.376  0.8857  0.7709 -1.3129
46965SOL     OW48134   5.318   9.707  12.632  0.2402 -0.6501  0.2826
46965SOL    HW148135   5.336   9.613  12.624  1.2754 -0.3868 -0.7595
46965SOL    HW248136   5.233   9.718  12.589  0.8847 -0.8881 -1.1173
46966SOL     OW48137   1.406  11.065   7.637  0.0591 -0.4819 -0.4454
46966SOL    HW148138   1.478  11.022   7.591  0.2647  0.2659 -0.8415
46966SOL    HW248139   1.447  11.105   7.714  0.5014  1.6460 -1.6851
46967SOL     OW48140   2.584   6.488   9.107  0.2585  0.1455  0.1617
46967SOL    HW148141   2.674   6.485   9.141  0.3231  0.5556  0.0415
46967SOL    HW248142   2.589   6.552   9.035  0.1884 -0.8854 -0.7915
46968SOL     OW48143   4.305   6.900   1.023  0.2553  0.8017  0.3919
46968SOL    HW148144   4.351   6.868   1.100  0.1762  1.2084  0.6165
46968SOL    HW248145   4.216   6.868   1.033  0.3183  0.6032  0.3169
46969SOL     OW48146  12.427   1.785   0.302  0.0571 -0.0600 -0.1814
46969SOL    HW148147  12.507   1.821   0.265  0.1601 -0.3493 -0.2421
46969SOL    HW248148  12.358   1.816   0.244  0.0196  0.8689  0.3250
46970SOL     OW48149   1.172   8.725  10.520  0.4882  0.0337  0.4088
46970SOL    HW148150   1.134   8.653  10.571  1.4866 -0.4561  0.4879
46970SOL    HW248151   1.262   8.697  10.503  0.8129  1.1572  0.2169
46971SOL     OW48152   8.896   4.249  10.644 -0.2437 -0.3416  0.0819
46971SOL    HW148153   8.953   4.243  10.720 -0.4583 -2.4293  0.1444
46971SOL    HW248154   8.808   4.259  10.680 -0.0934  1.6648  0.0051
46972SOL     OW48155   5.559   3.547   8.323 -0.1946 -0.5570  0.8437
46972SOL    HW148156   5.630   3.567   8.384  0.9149  1.0841 -0.8849
46972SOL    HW248157   5.600   3.492   8.256 -0.3552  0.8124 -0.4364
46973SOL     OW48158   6.401   5.079   8.945  0.2965 -0.2827 -0.0773
46973SOL    HW148159   6.384   5.082   9.039  0.1758  0.4774 -0.1129
46973SOL    HW248160   6.396   4.987   8.922 -1.6882 -0.3110  0.3059
46974SOL     OW48161  12.464  12.300   0.592 -0.3451 -0.2155  0.1233
46974SOL    HW148162  12.405  12.231   0.622 -0.6927 -0.4270 -0.9934
46974SOL    HW248163  12.541  12.254   0.560 -0.2458 -0.0356  0.1009
46975SOL     OW48164  11.788   6.364   6.707 -0.3961 -0.4337  0.5723
46975SOL    HW148165  11.776   6.375   6.612 -0.5155  0.0577  0.6398
46975SOL    HW248166  11.844   6.287   6.715 -0.8236 -0.8000  0.1223
46976SOL     OW48167   5.005  11.709   2.463 -0.6418 -0.2079 -0.1127
46976SOL    HW148168   5.061  11.783   2.439 -1.5807 -0.0884 -2.1016
46976SOL    HW248169   4.925  11.750   2.495 -0.7593 -0.3719 -0.1983
46977SOL     OW48170  10.175   5.224   0.849 -0.2018 -0.6069 -0.2788
46977SOL    HW148171  10.139   5.267   0.927 -1.4582 -1.6142 -0.2512
46977SOL    HW248172  10.257   5.269   0.832 -0.7093  0.7407  0.6429
46978SOL     OW48173   1.196   7.366  12.150 -0.0056 -0.0509 -0.0941
46978SOL    HW148174   1.210   7.453  12.188  1.0405  0.3743 -1.3568
46978SOL    HW248175   1.134   7.323  12.209  0.1591  1.2197  1.0501
46979SOL     OW48176  12.423   0.394  12.470 -0.2666 -0.1198  0.0403
46979SOL    HW148177  12.414   0.310  12.425  1.3336 -0.0470 -0.4587
46979SOL    HW248178  12.516   0.415  12.465 -0.2612  0.6234  2.1047
46980SOL     OW48179  12.460   4.881   2.511  0.5948  0.4673  0.2538
46980SOL    HW148180  12.516   4.838   2.575  1.2090 -0.1714 -0.6916
46980SOL    HW248181  12.390   4.921   2.563  2.1237  1.6259  1.4913
46981SOL     OW48182  10.840   1.585   6.056 -0.9798 -0.3457  0.4160
46981SOL    HW148183  10.784   1.663   6.050 -1.7810 -0.8027  1.6079
46981SOL    HW248184  10.779   1.512   6.044 -0.2091 -0.8032 -0.8433
46982SOL     OW48185  10.658  10.009   1.793  0.3165 -0.4619 -0.1481
46982SOL    HW148186  10.659   9.916   1.814  0.8150 -0.6016 -0.7593
46982SOL    HW248187  10.673  10.053   1.877 -0.6250 -0.9018  0.2558
46983SOL     OW48188   6.025  12.013   1.324  0.5528 -0.3308 -0.1021
46983SOL    HW148189   5.936  11.985   1.301  0.7790 -0.3866 -0.9565
46983SOL    HW248190   6.059  11.942   1.378 -0.0932 -0.0803  0.6566
46984SOL     OW48191   8.781  12.562   1.112  0.6847 -0.9348 -0.6284
46984SOL    HW148192   8.723  12.634   1.089  0.8779  0.6753  3.2151
46984SOL    HW248193   8.727  12.505   1.167  2.3522  0.3511  2.6339
46985SOL     OW48194   3.101   4.498   3.439 -0.2197  0.4853  0.1128
46985SOL    HW148195   3.131   4.531   3.355  0.5655  2.0619  0.9485
46985SOL    HW248196   3.157   4.543   3.503 -1.1003 -0.3114  1.4885
46986SOL     OW48197   4.519   4.281   3.141 -0.3017  0.0782 -0.6794
46986SOL    HW148198   4.436   4.310   3.104 -1.3789 -1.7872  0.0912
46986SOL    HW248199   4.569   4.249   3.066 -0.6642  0.3648 -1.0454
46987SOL     OW48200   8.355   0.567   4.998 -0.2045 -0.3465 -0.6452
46987SOL    HW148201   8.357   0.488   5.053 -0.5310 -0.2019 -0.4277
46987SOL    HW248202   8.412   0.629   5.044 -0.6001 -0.1715 -0.3838
46988SOL     OW48203  11.032  10.951   4.984  0.9109  0.3720  0.4632
46988SOL    HW148204  10.962  10.970   4.922  0.5667  0.1693  0.7849
46988SOL    HW248205  11.081  10.879   4.945 -0.0758 -0.6283  1.0135
46989SOL     OW48206   8.736   0.797   8.101  0.0886  0.3547 -0.2455
46989SOL    HW148207   8.790   0.728   8.062 -1.5416 -0.8688 -0.4667
46989SOL    HW248208   8.661   0.750   8.138  0.1567  1.7689  1.8559
46990SOL     OW48209   7.920   8.855   5.911  0.2257 -0.0870 -0.3400
46990SOL    HW148210   8.011   8.851   5.880  0.8942  1.3708  1.2240
46990SOL    HW248211   7.880   8.922   5.856  1.4700  2.6633  1.8393
46991SOL     OW48212   8.728   8.080   9.384  0.4963 -0.2836 -0.1864
46991SOL    HW148213   8.650   8.027   9.370  0.2189 -0.1220  0.7071
46991SOL    HW248214   8.738   8.130   9.304 -0.8670  0.3920  0.0507
46992SOL     OW48215   1.302   4.789   2.653  0.0072  0.1304  0.3773
46992SOL    HW148216   1.236   4.739   2.700  0.1007 -2.2149 -1.7689
46992SOL    HW248217   1.384   4.771   2.699 -0.5536  1.9871  2.2511
46993SOL     OW48218   9.766   9.285   6.989  0.3035 -0.3757 -0.2845
46993SOL    HW148219   9.791   9.211   6.933  0.0371 -1.3323  0.8227
46993SOL    HW248220   9.682   9.313   6.954  0.8709  0.0676 -1.3342
46994SOL     OW48221   4.716   1.243   2.690 -0.0342  0.8384  0.0667
46994SOL    HW148222   4.709   1.165   2.636 -1.4038  1.3692 -0.5563
46994SOL    HW248223   4.715   1.316   2.628  0.3253  1.3906  0.6914
46995SOL     OW48224   5.697   8.428  11.569  0.4962  0.2166 -0.0201
46995SOL    HW148225   5.617   8.459  11.612 -0.6113 -0.5113 -1.4500
46995SOL    HW248226   5.671   8.346  11.526  1.5051  0.8586 -1.9812
46996SOL     OW48227   8.866  12.646   2.009  1.0587  0.8297 -0.1603
46996SOL    HW148228   8.835  12.677   1.924  0.1635  1.0667  0.2321
46996SOL    HW248229   8.812  12.693   2.072 -1.9650 -3.0131  0.4965
46997SOL     OW48230   0.145   7.017   0.571 -0.1739 -0.0453 -0.6324
46997SOL    HW148231   0.169   6.938   0.619 -1.1245  1.0486  1.8337
46997SOL    HW248232   0.089   7.066   0.631  0.4035  2.5298 -2.0191
46998SOL     OW48233   2.662   1.245   0.075 -0.6590  0.0065  0.5403
46998SOL    HW148234   2.724   1.211   0.010  0.0429  0.5347  0.9317
46998SOL    HW248235   2.598   1.174   0.085  1.0154 -1.4276  1.6604
46999SOL     OW48236   1.471  10.817   8.827 -0.2712  0.2356  0.0312
46999SOL    HW148237   1.398  10.759   8.845 -0.7958  0.8206 -0.1829
46999SOL    HW248238   1.447  10.900   8.867  0.7763  0.1337  0.9334
47000SOL     OW48239   6.988  10.320   3.726  0.0996  0.6893 -0.0586
47000SOL    HW148240   6.982  10.224   3.735 -0.6699  0.7651  0.3456
47000SOL    HW248241   7.068  10.334   3.675 -0.0950 -0.1940 -0.6363
47001SOL     OW48242   6.711   7.811   2.392 -0.6345 -0.4327  0.1903
47001SOL    HW148243   6.697   7.905   2.395 -0.8345 -0.4018 -1.1915
47001SOL    HW248244   6.685   7.780   2.479 -2.5165  0.5235  0.0277
47002SOL     OW48245  11.551   1.832   9.922 -0.1856 -0.1774  0.9536
47002SOL    HW148246  11.615   1.799   9.859 -0.1090 -0.6261  1.2667
47002SOL    HW248247  11.569   1.926   9.927  0.1450 -0.2246  0.6904
47003SOL     OW48248   9.365   3.397   8.076 -0.0770  0.0050 -0.0581
47003SOL    HW148249   9.402   3.366   7.993 -0.8264  0.2011 -0.4710
47003SOL    HW248250   9.419   3.473   8.099 -0.8843  0.9601 -1.2202
47004SOL     OW48251   0.138   5.922   8.258 -0.7257 -0.7484  0.5247
47004SOL    HW148252   0.192   5.893   8.185  0.8297 -1.5001  1.9268
47004SOL    HW248253   0.199   5.966   8.318 -1.7206 -1.2345  1.9536
47005SOL     OW48254   8.570   5.485  12.649  0.1895  0.2570  0.2705
47005SOL    HW148255   8.603   5.551  12.709  1.2908  0.9297 -1.0373
47005SOL    HW248256   8.543   5.413  12.707  0.2054  1.2900  1.6289
47006SOL     OW48257   8.012   9.905   4.465 -0.5308 -0.4172 -0.3609
47006SOL    HW148258   7.973   9.944   4.387  0.9354  0.4202 -0.7152
47006SOL    HW248259   7.985   9.813   4.461 -1.0104 -0.2501 -1.5035
47007SOL     OW48260   2.130   6.455   1.725  0.0376  0.0468  0.1176
47007SOL    HW148261   2.061   6.405   1.770  1.6837 -1.4792  1.0615
47007SOL    HW248262   2.211   6.427   1.767  1.3358  1.2004 -1.4957
47008SOL     OW48263   5.164   4.735  10.356 -0.1412 -0.2459  0.1601
47008SOL    HW148264   5.078   4.777  10.350  0.9821  2.4363  1.2705
47008SOL    HW248265   5.175   4.716  10.449  0.2578 -1.1442 -0.0562
47009SOL     OW48266   3.435  10.250   8.524 -0.0946  0.1784 -0.3583
47009SOL    HW148267   3.368  10.237   8.457  1.3680  0.5421 -1.9424
47009SOL    HW248268   3.434  10.169   8.575 -1.6982  0.1699 -0.3731
47010SOL     OW48269   2.936   4.855   3.872 -0.2592 -0.2376  0.0519
47010SOL    HW148270   2.908   4.919   3.806 -0.6843  0.4999  0.9221
47010SOL    HW248271   2.910   4.771   3.835  0.2479  0.0847 -1.0917
47011SOL     OW48272   2.934   0.410   9.748  0.1561  0.6015  0.6281
47011SOL    HW148273   2.889   0.331   9.778 -0.3311  0.4574 -0.4303
47011SOL    HW248274   2.880   0.482   9.779 -0.7125  0.4342 -0.4627
47012SOL     OW48275   2.320   8.560   3.858 -0.4634  0.0965  0.4900
47012SOL    HW148276   2.327   8.621   3.785 -2.6312  0.6238  0.6456
47012SOL    HW248277   2.395   8.579   3.913  0.0356  1.1722 -0.5231
47013SOL     OW48278   2.709  12.584  10.305 -0.5508 -0.6064 -0.2832
47013SOL    HW148279   2.705  12.507  10.360  0.3540 -1.2701 -1.1069
47013SOL    HW248280   2.771  12.642  10.349 -0.3943 -0.8200 -0.2208
47014SOL     OW48281   2.305   8.701  12.259 -0.5322 -0.6190  0.6788
47014SOL    HW148282   2.349   8.783  12.284 -2.8515  1.8646 -2.5548
47014SOL    HW248283   2.264   8.671  12.340  1.2884  0.7249  2.2107
47015SOL     OW48284   6.261   8.974  11.439  0.0598  0.2384  0.1229
47015SOL    HW148285   6.177   9.016  11.458  0.9709  1.9477  0.5912
47015SOL    HW248286   6.239   8.882  11.422 -1.7231  0.3147  1.6844
47016SOL     OW48287  11.029   4.367   7.570  0.2970 -0.5801 -0.3089
47016SOL    HW148288  11.117   4.348   7.538  1.5402  3.9131 -0.1926
47016SOL    HW248289  10.984   4.404   7.494  0.4409  2.1864  0.8342
47017SOL     OW48290  10.123  11.395   3.080  0.0184  0.4364  0.0029
47017SOL    HW148291  10.179  11.443   3.020  2.4311 -1.3759  0.6357
47017SOL    HW248292  10.126  11.445   3.162 -1.3116  1.6103 -0.6219
47018SOL     OW48293   2.366  12.462  10.768 -0.4834 -0.1095 -0.4266
47018SOL    HW148294   2.385  12.547  10.728 -1.1612  0.8778  1.2024
47018SOL    HW248295   2.383  12.476  10.862 -1.3394 -1.5401 -0.0258
47019SOL     OW48296   2.949   6.452   8.559 -0.5711 -0.0532 -0.1421
47019SOL    HW148297   2.920   6.509   8.630 -2.1950 -1.6021  0.5052
47019SOL    HW248298   3.003   6.386   8.602  1.0010  0.7259 -0.8344
47020SOL     OW48299   0.362   1.706   5.249 -0.2621  0.4638 -0.0315
47020SOL    HW148300   0.382   1.765   5.321  1.3734  0.3982 -0.3846
47020SOL    HW248301   0.266   1.705   5.244 -0.3558  1.8598  0.9639
47021SOL     OW48302   2.878   7.019  12.164 -0.5261 -0.3117  0.1901
47021SOL    HW148303   2.858   6.948  12.225 -0.2722  0.6129  1.3947
47021SOL    HW248304   2.973   7.029  12.170 -0.6184  0.4695  0.4515
47022SOL     OW48305  10.055   6.866   1.273  0.2433 -0.2058 -0.0664
47022SOL    HW148306   9.976   6.897   1.229 -0.3726 -1.7594 -0.1204
47022SOL    HW248307  10.095   6.806   1.210  1.6282  0.7663 -0.1441
47023SOL     OW48308   2.146   4.605   1.073 -0.6739  0.0539  0.1582
47023SOL    HW148309   2.056   4.573   1.081 -0.9468  0.8896  0.6454
47023SOL    HW248310   2.200   4.527   1.076 -1.3924 -0.4646 -0.1886
47024SOL     OW48311   1.339   5.667   1.376 -0.4550 -0.0686  0.2207
47024SOL    HW148312   1.288   5.588   1.355 -0.3685  0.0139 -0.3178
47024SOL    HW248313   1.426   5.633   1.399 -0.5194 -0.1537  0.3406
47025SOL     OW48314   9.535   2.170   3.433 -0.2625  0.0095  0.4994
47025SOL    HW148315   9.528   2.145   3.525  0.6262 -0.3026  0.4986
47025SOL    HW248316   9.548   2.265   3.434 -2.2219  0.3100  0.5783
47026SOL     OW48317  10.439   7.360   5.192  0.4270  0.1996  0.4548
47026SOL    HW148318  10.523   7.387   5.230  1.0722  0.7573 -1.2558
47026SOL    HW248319  10.459   7.277   5.147 -0.7174 -1.3618  2.6817
47027SOL     OW48320   3.438   7.471   4.949  0.7632 -0.3813 -0.1787
47027SOL    HW148321   3.448   7.502   5.039  0.5678  1.7494 -0.8395
47027SOL    HW248322   3.344   7.466   4.936  0.7838 -0.2206 -0.3996
47028SOL     OW48323  12.438   2.182   2.514  0.4932 -0.1489  0.2138
47028SOL    HW148324  12.386   2.254   2.477  0.3219  0.1563  1.0417
47028SOL    HW248325  12.489   2.149   2.439  0.7228  0.9538 -0.1375
47029SOL     OW48326   3.769   5.279   8.090  0.0220 -0.3244  0.3117
47029SOL    HW148327   3.692   5.224   8.102  0.2247 -0.4311  1.1805
47029SOL    HW248328   3.754   5.323   8.006 -0.3362 -1.3708 -0.1935
47030SOL     OW48329   8.487   8.344  10.434 -0.2426  0.0687 -0.3990
47030SOL    HW148330   8.462   8.423  10.482 -1.2661  0.7375 -1.9564
47030SOL    HW248331   8.498   8.373  10.344  1.0091 -1.2693 -0.7134
47031SOL     OW48332   6.136   4.544   3.106 -0.2397 -0.0311 -0.5443
47031SOL    HW148333   6.203   4.526   3.173 -0.0618 -0.0740 -0.7340
47031SOL    HW248334   6.182   4.533   3.023 -0.8026 -1.3578 -0.6998
47032SOL     OW48335   6.291   9.029  10.626 -0.5617  0.8689  0.4742
47032SOL    HW148336   6.327   9.101  10.678  0.0718  1.0511 -0.2097
47032SOL    HW248337   6.340   8.952  10.656  0.6393  1.1606 -0.6553
47033SOL     OW48338   9.462   1.495   5.521 -0.2410  0.0419  0.1798
47033SOL    HW148339   9.429   1.567   5.468  1.3699  0.1718 -0.7136
47033SOL    HW248340   9.472   1.531   5.608  2.8059  1.7062 -0.7272
47034SOL     OW48341   1.225  11.266   0.585  0.4895 -0.1067  0.3462
47034SOL    HW148342   1.152  11.327   0.593 -1.4177 -2.2606  0.1816
47034SOL    HW248343   1.243  11.262   0.491  0.1802 -0.2942  0.2951
47035SOL     OW48344   2.863  11.139   7.245  0.0696  0.5358 -0.2575
47035SOL    HW148345   2.859  11.074   7.316 -0.0021  0.0391 -0.7067
47035SOL    HW248346   2.785  11.122   7.193  1.5542 -1.0650 -2.1125
47036SOL     OW48347   2.060   5.930  12.287 -0.0422  0.1450 -0.0771
47036SOL    HW148348   2.150   5.951  12.312 -0.6632 -0.1493  2.8060
47036SOL    HW248349   2.024   6.012  12.256  0.6694  0.7463  0.6407
47037SOL     OW48350  11.971   0.197   6.900  0.3011 -0.1683  0.1259
47037SOL    HW148351  12.033   0.270   6.905 -0.8429  1.0836 -2.3871
47037SOL    HW248352  11.891   0.236   6.864 -0.2300 -2.7066 -1.7050
47038SOL     OW48353   5.804   6.866   1.338 -0.5403 -0.5364 -0.4631
47038SOL    HW148354   5.751   6.833   1.410  1.1862 -0.6189  0.8327
47038SOL    HW248355   5.885   6.815   1.343  0.7063  1.3312 -0.7394
47039SOL     OW48356   5.624   6.838   9.860  0.7329 -0.5716  0.3773
47039SOL    HW148357   5.548   6.887   9.829  2.3652  1.0759 -1.3840
47039SOL    HW248358   5.616   6.752   9.819 -0.3607 -0.5615  0.5446
47040SOL     OW48359   2.678   2.099   9.202 -0.4545 -0.0246  0.0493
47040SOL    HW148360   2.767   2.129   9.220 -0.0251 -0.2951 -1.5025
47040SOL    HW248361   2.622   2.169   9.236  0.3081 -0.0391  1.4102
47041SOL     OW48362   6.643  10.235   7.502 -0.0503  0.0315 -0.4293
47041SOL    HW148363   6.698  10.274   7.434 -0.9495 -0.6803 -1.6043
47041SOL    HW248364   6.684  10.151   7.521  0.4717  0.4393  0.2657
47042SOL     OW48365   6.252   4.111  12.169  0.1361 -0.7915 -0.3315
47042SOL    HW148366   6.256   4.182  12.233  1.0183  0.9608 -2.2146
47042SOL    HW248367   6.209   4.039  12.215  0.4872  0.4671  2.1051
47043SOL     OW48368   7.248  10.972   8.500 -0.3326 -0.5358 -0.1317
47043SOL    HW148369   7.271  10.888   8.461  0.6337 -0.1028 -0.5187
47043SOL    HW248370   7.174  10.952   8.557  1.5524 -2.1927  1.9302
47044SOL     OW48371   8.698   0.458   0.111 -0.5311  0.7631 -0.0697
47044SOL    HW148372   8.751   0.381   0.090 -1.0571  0.3516  0.1023
47044SOL    HW248373   8.660   0.485   0.027 -0.7863  0.5058 -0.0365
47045SOL     OW48374   7.187   7.240   4.967 -0.0530 -0.1653  0.2422
47045SOL    HW148375   7.144   7.296   4.902  1.1183  3.4908  2.3666
47045SOL    HW248376   7.118   7.219   5.030 -0.6967 -2.0184 -0.9821
47046SOL     OW48377   5.800   2.669  12.080 -0.0583  0.2395  0.2607
47046SOL    HW148378   5.806   2.698  12.171  1.6477  0.3478  0.1522
47046SOL    HW248379   5.727   2.718  12.043  0.6636  1.9274  0.9773
47047SOL     OW48380   2.174   5.495   5.905 -0.0057  0.1019  0.4237
47047SOL    HW148381   2.183   5.574   5.852 -0.3223 -0.5354 -0.6270
47047SOL    HW248382   2.236   5.433   5.866  1.8452  0.4661  2.5797
47048SOL     OW48383   4.276   6.221   3.690 -0.3367 -0.1460 -0.1790
47048SOL    HW148384   4.361   6.204   3.730 -0.4629 -1.6188 -0.4842
47048SOL    HW248385   4.228   6.270   3.757  0.4960  0.0420  0.2911
47049SOL     OW48386   6.577   2.079  11.652 -0.5552  0.4074  0.0691
47049SOL    HW148387   6.628   2.003  11.679 -1.3784 -0.4456 -0.7339
47049SOL    HW248388   6.567   2.069  11.557  0.5094  2.2542 -0.2898
47050SOL     OW48389  11.663  12.099   2.437  0.2547 -0.5077  0.0517
47050SOL    HW148390  11.676  12.167   2.503 -0.7330 -0.9187  0.7018
47050SOL    HW248391  11.666  12.017   2.486 -1.8696 -0.7585 -0.1246
47051SOL     OW48392  12.135   0.057   8.995 -0.1435  0.5144  0.1210
47051SOL    HW148393  12.175  -0.015   9.044 -1.1973 -0.4902 -0.4309
47051SOL    HW248394  12.184   0.135   9.021 -0.3219 -0.0596  2.3183
47052SOL     OW48395   7.381   8.668   9.280 -0.0836 -0.1937  0.5377
47052SOL    HW148396   7.286   8.683   9.278 -0.1988 -0.9791 -0.8739
47052SOL    HW248397   7.398   8.608   9.207  1.3836 -0.7815  1.3117
47053SOL     OW48398   7.303   8.934   0.762 -0.3317  0.3837  0.1955
47053SOL    HW148399   7.348   8.867   0.814 -0.9689 -0.4555 -0.3042
47053SOL    HW248400   7.257   8.988   0.827 -0.7389 -0.3632  0.5437
47054SOL     OW48401  10.146  11.940   1.269  0.2157 -0.5669 -0.4996
47054SOL    HW148402  10.222  11.904   1.315 -0.8959 -0.9451  1.1118
47054SOL    HW248403  10.084  11.961   1.338 -2.1583 -2.6045 -1.8616
47055SOL     OW48404   0.035   3.005   0.336  0.1368 -0.4395 -0.1996
47055SOL    HW148405   0.099   3.076   0.324 -1.9358  1.4657 -0.5482
47055SOL    HW248406   0.044   2.980   0.428  0.9189  0.2332 -0.0739
47056SOL     OW48407   9.075   0.903   6.340  0.7330  0.2481  0.4053
47056SOL    HW148408   8.986   0.893   6.308  0.3215  2.4605  0.6987
47056SOL    HW248409   9.068   0.961   6.415  2.3859  0.1767  0.6690
47057SOL     OW48410  12.045   3.998   8.981 -0.3735  0.0021 -0.0053
47057SOL    HW148411  11.986   4.052   9.035 -1.6741 -2.3026  1.0240
47057SOL    HW248412  12.091   3.943   9.044  1.2905  0.1877 -0.9906
47058SOL     OW48413   8.567   8.732   1.119  0.1433 -0.0351 -0.5618
47058SOL    HW148414   8.568   8.776   1.034  1.1752 -0.6427 -0.8743
47058SOL    HW248415   8.605   8.646   1.102  1.3090  0.2017  0.7035
47059SOL     OW48416   2.490   9.052  11.539  0.3776 -0.6610 -0.1520
47059SOL    HW148417   2.500   8.995  11.463 -0.1772 -0.1576 -0.6120
47059SOL    HW248418   2.544   9.012  11.606 -1.9882 -3.1859  0.3967
47060SOL     OW48419   3.023   8.601  12.187  0.3253 -0.0481 -0.1067
47060SOL    HW148420   2.980   8.563  12.263  0.1302 -2.3241 -1.2610
47060SOL    HW248421   3.117   8.593  12.205  0.2841 -1.0224 -0.2697
47061SOL     OW48422   3.976   1.338  11.835 -0.2892  0.1728  0.2625
47061SOL    HW148423   3.926   1.297  11.905 -0.7388  0.5785  0.1902
47061SOL    HW248424   3.910   1.382  11.782 -0.0348 -0.6905 -0.8087
47062SOL     OW48425   7.718   4.701   2.586  0.3629  0.1063  0.6664
47062SOL    HW148426   7.746   4.789   2.612  0.2310 -0.0447  1.3193
47062SOL    HW248427   7.720   4.650   2.667 -1.0931 -0.0897  0.6029
47063SOL     OW48428  12.183   3.275   4.316 -0.4570  0.0230  0.1285
47063SOL    HW148429  12.185   3.184   4.286 -1.0174  0.1424 -0.2918
47063SOL    HW248430  12.239   3.322   4.254 -0.6426  0.0624 -0.0113
47064SOL     OW48431   9.184  11.409   5.429 -0.3758 -0.1461 -0.4509
47064SOL    HW148432   9.246  11.382   5.361  0.1784  1.0228 -0.4468
47064SOL    HW248433   9.140  11.485   5.391 -0.7743 -0.0920  0.1130
47065SOL     OW48434   8.306   7.854   9.878  0.8161 -0.2073 -0.1831
47065SOL    HW148435   8.232   7.868   9.820 -1.4435  1.0446  2.7445
47065SOL    HW248436   8.379   7.900   9.836  0.2516 -2.0408 -3.4868
47066SOL     OW48437   4.202   2.229   4.291  0.0629 -0.3708  0.5331
47066SOL    HW148438   4.128   2.189   4.338 -0.4555 -0.0183  0.0310
47066SOL    HW248439   4.186   2.208   4.199 -0.2987  1.0760  0.2328
47067SOL     OW48440   6.675   0.234   2.553  0.1582 -0.0295  0.0404
47067SOL    HW148441   6.733   0.158   2.546  3.2020  1.8871  1.9578
47067SOL    HW248442   6.599   0.202   2.601  0.4189 -2.2575 -0.9048
47068SOL     OW48443   1.073   5.871   1.191 -0.4411 -0.3794 -0.0557
47068SOL    HW148444   1.091   5.779   1.172 -0.7359 -0.5534  0.4959
47068SOL    HW248445   0.977   5.877   1.195 -0.5298  0.3749 -2.1514
47069SOL     OW48446  10.645   6.015   1.302 -0.0529 -0.5762 -0.2512
47069SOL    HW148447  10.731   6.018   1.259 -0.1314  1.7878 -0.3851
47069SOL    HW248448  10.651   6.081   1.372 -1.3506 -1.2846  0.5544
47070SOL     OW48449  10.663  11.864   3.211  0.4309  0.1688  0.0441
47070SOL    HW148450  10.728  11.895   3.273 -1.5090 -0.4456  2.5623
47070SOL    HW248451  10.614  11.942   3.186  0.0241  0.1739  0.8228
47071SOL     OW48452   2.556   6.373   8.729  0.0992 -0.0527  0.1757
47071SOL    HW148453   2.468   6.363   8.692  0.5307  0.2857 -0.9662
47071SOL    HW248454   2.615   6.343   8.660  0.9077  0.1364  0.7701
47072SOL     OW48455   3.120   9.881   2.212 -0.7344 -0.6930 -0.7742
47072SOL    HW148456   3.157   9.850   2.129  0.1213 -1.8229  0.0016
47072SOL    HW248457   3.175   9.842   2.279 -1.1565  0.5501  0.3354
47073SOL     OW48458   7.526   2.798   6.435  0.0571  0.3473  0.1109
47073SOL    HW148459   7.509   2.879   6.483 -0.7673 -0.6359  1.5672
47073SOL    HW248460   7.582   2.747   6.494 -0.2878 -0.5608 -0.3267
47074SOL     OW48461   5.966   9.813   0.459 -0.7455  0.3690 -0.3036
47074SOL    HW148462   6.030   9.820   0.387 -0.3065  0.5119  0.0949
47074SOL    HW248463   5.953   9.903   0.489 -0.8707  0.3021 -0.1569
47075SOL     OW48464   8.522   9.341   5.838  0.6346  0.1488 -0.3827
47075SOL    HW148465   8.599   9.389   5.807  0.7268  1.9676  2.3701
47075SOL    HW248466   8.452   9.407   5.840 -0.6071 -1.0861 -1.2348
47076SOL     OW48467   4.593   2.320   6.377 -0.7202  0.4825 -0.2854
47076SOL    HW148468   4.547   2.253   6.428 -0.4865  0.7879  0.3329
47076SOL    HW248469   4.565   2.402   6.417  0.4980  0.6679  0.2176
47077SOL     OW48470   9.650   1.341   3.144 -0.2738 -0.2162  0.0577
47077SOL    HW148471   9.576   1.328   3.204 -0.4732 -2.9322 -0.6418
47077SOL    HW248472   9.616   1.402   3.078 -2.1904 -1.8855 -0.6035
47078SOL     OW48473   3.126  10.703   8.575  0.0955 -0.0013 -0.0843
47078SOL    HW148474   3.118  10.608   8.591  0.3021  0.0437  0.3098
47078SOL    HW248475   3.060  10.742   8.632  0.7839  0.1586  0.6153
47079SOL     OW48476   1.634   6.531   5.654 -0.2312  0.2493 -0.4848
47079SOL    HW148477   1.676   6.554   5.572  0.4730 -0.4815 -0.3443
47079SOL    HW248478   1.556   6.482   5.627  1.2902 -2.2011 -0.7513
47080SOL     OW48479  10.445   2.081   9.639  0.6413 -0.1089 -0.3063
47080SOL    HW148480  10.357   2.114   9.623  0.9579  0.7837 -0.2730
47080SOL    HW248481  10.467   2.113   9.727 -0.0464 -2.6733  0.8812
47081SOL     OW48482   7.956   6.052   3.219  0.0786 -0.1074  0.1590
47081SOL    HW148483   8.030   6.080   3.166  0.8722 -0.1634  1.2122
47081SOL    HW248484   7.912   5.985   3.166  0.8960 -0.2093 -0.3955
47082SOL     OW48485   9.384   3.861   4.063 -0.6283 -0.1770  0.5010
47082SOL    HW148486   9.345   3.776   4.042  1.8025 -1.4087  0.5914
47082SOL    HW248487   9.418   3.850   4.152  1.0066  0.3345 -0.0269
47083SOL     OW48488   4.051   2.488   0.344 -0.1005  0.4140 -0.0189
47083SOL    HW148489   4.006   2.496   0.428  1.5113  0.6554  0.8519
47083SOL    HW248490   3.991   2.437   0.290 -0.7605 -0.5846  1.5834
47084SOL     OW48491  12.029   7.373  10.260 -0.4824  0.4167  0.1668
47084SOL    HW148492  12.100   7.412  10.311  0.3988  0.0969 -0.7943
47084SOL    HW248493  12.027   7.282  10.289 -1.4510  0.7377  1.2055
47085SOL     OW48494   8.798   3.487   9.031  0.4287  0.0258 -0.7045
47085SOL    HW148495   8.866   3.419   9.035  0.1077 -0.2472  1.5444
47085SOL    HW248496   8.716   3.438   9.023  0.2579  0.1559  0.1187
47086SOL     OW48497   5.626   9.672   7.437  0.1891  0.4399  0.1234
47086SOL    HW148498   5.715   9.661   7.469  0.3372  0.2366 -0.3571
47086SOL    HW248499   5.573   9.615   7.493  0.6851 -1.3054 -1.1220
47087SOL     OW48500   7.376   2.196   7.494 -0.8637 -0.2082  0.5612
47087SOL    HW148501   7.429   2.190   7.574  2.3197 -2.6126 -1.4875
47087SOL    HW248502   7.343   2.107   7.481  0.9174 -0.6100 -2.0400
47088SOL     OW48503   2.301   0.713   1.253 -0.0720  0.0714 -0.3583
47088SOL    HW148504   2.271   0.695   1.343  2.3477  2.1172  0.9808
47088SOL    HW248505   2.384   0.667   1.246 -0.3985 -0.3419 -1.7171
47089SOL     OW48506   2.922   3.104   6.874 -0.2282 -0.3536  0.2973
47089SOL    HW148507   2.893   3.132   6.961 -1.1903  0.5146 -0.2790
47089SOL    HW248508   2.849   3.052   6.840 -0.8466  1.1789 -0.8522
47090SOL     OW48509   3.806   0.962   6.086 -0.0119 -0.6770  0.2947
47090SOL    HW148510   3.827   0.870   6.072  3.8891  0.2647 -1.3627
47090SOL    HW248511   3.851   0.985   6.168  1.9390  0.4206 -1.0121
47091SOL     OW48512   7.350  11.479   3.572 -0.2257  0.4455  0.4258
47091SOL    HW148513   7.386  11.405   3.620 -2.0535 -0.7406  0.0692
47091SOL    HW248514   7.404  11.553   3.599  1.7906 -1.0132  0.6469
47092SOL     OW48515   0.947   1.015   0.112 -0.6177 -0.2994  0.3002
47092SOL    HW148516   0.894   0.940   0.083  0.3767 -0.8875 -0.0406
47092SOL    HW248517   0.890   1.091   0.099 -0.8766 -0.7501 -1.4683
47093SOL     OW48518  11.301   5.910   4.707  0.1633  0.5841  0.0925
47093SOL    HW148519  11.216   5.904   4.752  0.1154  0.4054 -0.0232
47093SOL    HW248520  11.300   5.838   4.644  0.8877 -0.1734  0.9251
47094SOL     OW48521   3.227   8.569   4.250  0.1546 -0.2444 -0.0652
47094SOL    HW148522   3.153   8.548   4.306 -0.7191  0.6491 -0.8343
47094SOL    HW248523   3.265   8.484   4.227 -1.6664 -0.8618 -1.0000
47095SOL     OW48524   3.470   3.283  10.630  0.6009  0.3840  0.0660
47095SOL    HW148525   3.457   3.246  10.717  0.4294  1.7702  0.6572
47095SOL    HW248526   3.416   3.230  10.572  0.6418 -0.4872  0.8139
47096SOL     OW48527   7.727   9.934   2.214  0.1036  0.3407 -0.5436
47096SOL    HW148528   7.680   9.864   2.260  1.5842 -0.7509 -0.6229
47096SOL    HW248529   7.673  10.012   2.228 -0.1402 -0.1878  2.0561
47097SOL     OW48530   5.325   5.870   8.199 -0.3285  0.0605  0.3237
47097SOL    HW148531   5.275   5.788   8.201 -0.3178  0.0740  1.4372
47097SOL    HW248532   5.397   5.852   8.138 -0.2121 -0.8271  0.7167
47098SOL     OW48533  10.610   2.203   4.353  0.1251 -0.4654  0.0942
47098SOL    HW148534  10.603   2.295   4.329 -0.7044 -0.8714 -1.2781
47098SOL    HW248535  10.704   2.190   4.369  0.2343  0.6323  0.4818
47099SOL     OW48536  12.280   4.529   4.668 -0.3500 -0.1812 -0.2334
47099SOL    HW148537  12.354   4.530   4.607 -0.1560  1.3268  0.0027
47099SOL    HW248538  12.207   4.496   4.616  0.3161 -1.0541 -0.6492
47100SOL     OW48539  10.153   4.323  10.930 -0.3571 -0.2323  0.1817
47100SOL    HW148540  10.245   4.302  10.948 -0.4331 -0.0378  0.8019
47100SOL    HW248541  10.152   4.418  10.918 -0.7389 -0.0016  1.8307
47101SOL     OW48542   7.036   3.591   1.781  0.5275 -0.4190  0.8440
47101SOL    HW148543   7.098   3.554   1.718 -0.1454 -1.7948  0.9501
47101SOL    HW248544   6.950   3.562   1.751  0.1828 -1.0836  2.3486
47102SOL     OW48545   4.021   8.720   3.687 -0.1397  0.0359  0.4386
47102SOL    HW148546   4.082   8.730   3.760 -1.8766  0.5387  1.8780
47102SOL    HW248547   4.068   8.755   3.612  1.0663  1.1564  1.6550
47103SOL     OW48548   0.398   2.659   4.176  0.0806 -0.1671  0.1903
47103SOL    HW148549   0.474   2.622   4.221 -0.0395 -2.4888 -1.3535
47103SOL    HW248550   0.372   2.733   4.230  1.9658 -0.7757  2.0686
47104SOL     OW48551   0.880  10.684   8.679 -0.0594  0.5849  0.1449
47104SOL    HW148552   0.815  10.686   8.748  1.7444 -0.8008  2.0004
47104SOL    HW248553   0.897  10.591   8.664 -0.0748  0.8533 -1.9074
47105SOL     OW48554   7.963   2.852   6.375 -0.3269 -0.1905  0.6518
47105SOL    HW148555   7.976   2.801   6.455  2.3629  0.0761  0.4712
47105SOL    HW248556   8.018   2.809   6.310  0.0469  1.4673 -0.1713
47106SOL     OW48557  10.512   7.562   1.343  0.1569 -0.3640 -0.0926
47106SOL    HW148558  10.543   7.643   1.383 -0.5751 -0.2075  0.1564
47106SOL    HW248559  10.499   7.502   1.416 -0.2908 -0.3771 -0.1816
47107SOL     OW48560   6.561  10.958   7.456 -0.2410 -1.0447 -0.0792
47107SOL    HW148561   6.619  10.894   7.498 -0.3758 -2.0770 -1.3866
47107SOL    HW248562   6.570  10.940   7.362  0.1555  1.2617 -0.5421
47108SOL     OW48563   8.201   2.365   6.969 -0.1942 -0.4291 -0.7808
47108SOL    HW148564   8.296   2.358   6.955 -0.2040 -0.8620 -0.6740
47108SOL    HW248565   8.173   2.274   6.979 -0.4328 -0.2335  0.4425
47109SOL     OW48566   3.391   6.075   8.657  0.1932  0.4167  0.1936
47109SOL    HW148567   3.307   6.028   8.653  0.5484 -0.1498 -2.5914
47109SOL    HW248568   3.373   6.160   8.617  0.4913  1.1579  1.5765
47110SOL     OW48569   1.730   1.543  10.728  0.0633  0.4472  0.2650
47110SOL    HW148570   1.820   1.510  10.722 -0.5942 -1.2259 -1.1827
47110SOL    HW248571   1.738   1.637  10.708  1.4531  0.2794 -0.1048
47111SOL     OW48572  10.143   6.636   7.843 -0.0642  0.2824  0.1009
47111SOL    HW148573  10.160   6.727   7.822  1.7516 -0.1734 -0.5425
47111SOL    HW248574  10.133   6.635   7.938  0.2576  1.0896  0.1506
47112SOL     OW48575   2.218   4.726   7.179  0.1095  0.0465  0.3613
47112SOL    HW148576   2.169   4.758   7.255 -1.1571 -2.3476  0.6380
47112SOL    HW248577   2.154   4.726   7.107  0.6431  0.0551 -0.1252
47113SOL     OW48578   3.304   8.291   6.355 -0.4397 -0.0388 -0.4881
47113SOL    HW148579   3.219   8.333   6.353 -0.0329  0.8342 -0.1607
47113SOL    HW248580   3.360   8.353   6.402  0.4771 -0.3966 -1.0748
47114SOL     OW48581   5.586   0.824   0.497  0.7747 -0.3261 -0.2904
47114SOL    HW148582   5.663   0.831   0.440  0.0740  0.9111 -1.1465
47114SOL    HW248583   5.621   0.832   0.586  1.5582  1.5168 -0.7016
47115SOL     OW48584   5.991   2.026  11.920 -0.0109  0.5180  0.2163
47115SOL    HW148585   5.976   2.099  11.981  0.8494 -0.2416  1.3721
47115SOL    HW248586   5.914   1.971  11.930 -0.1264  0.6723  0.1907
47116SOL     OW48587   0.955   5.854   2.482  0.2616 -0.0308 -0.5207
47116SOL    HW148588   0.990   5.830   2.567 -1.7557 -1.0937  0.0868
47116SOL    HW248589   0.904   5.934   2.499 -1.1920 -0.9460 -0.4160
47117SOL     OW48590   3.998   4.687   1.599  0.7710 -0.1844 -0.1529
47117SOL    HW148591   4.003   4.782   1.590  0.1408 -0.3061 -2.2998
47117SOL    HW248592   3.952   4.673   1.682 -0.3941  1.4201 -0.4809
47118SOL     OW48593   4.003  11.492   6.225  0.0769 -0.4792 -0.2410
47118SOL    HW148594   4.048  11.571   6.253 -0.5731 -1.1430  3.1033
47118SOL    HW248595   4.070  11.423   6.232 -0.0436 -0.6285 -0.5510
47119SOL     OW48596   8.351   1.195  10.925 -0.2752 -0.4093 -0.1190
47119SOL    HW148597   8.415   1.232  10.864  0.7168  0.0598  1.1539
47119SOL    HW248598   8.402   1.133  10.978 -0.8956 -0.1135  0.8515
47120SOL     OW48599   3.266  11.783  11.666 -0.0854  0.2370  0.1886
47120SOL    HW148600   3.271  11.743  11.753  1.3065  1.9414  0.9359
47120SOL    HW248601   3.212  11.722  11.616  0.0074 -1.3682  1.9125
47121SOL     OW48602   3.161  11.693   4.583  0.0762  0.5590  0.5604
47121SOL    HW148603   3.187  11.656   4.667  2.0794  2.4174  0.8306
47121SOL    HW248604   3.129  11.781   4.605 -1.2763  0.3436 -0.4304
47122SOL     OW48605   7.718   6.943   7.164 -0.3968 -0.2088 -0.2894
47122SOL    HW148606   7.760   6.904   7.088  2.8029  2.0561  0.1095
47122SOL    HW248607   7.774   6.919   7.238 -0.4177  1.9640  0.4993
47123SOL     OW48608   8.547   1.486   0.265  0.4344 -0.3708 -0.9710
47123SOL    HW148609   8.582   1.459   0.349  1.9906  0.1814 -1.4109
47123SOL    HW248610   8.452   1.478   0.275  0.3111  2.6199  1.8856
47124SOL     OW48611  11.502  12.427  11.547 -0.7787  0.1500 -0.4945
47124SOL    HW148612  11.501  12.386  11.460 -1.3386  1.0510 -0.9223
47124SOL    HW248613  11.588  12.467  11.554 -0.1607 -1.1961 -0.0077
47125SOL     OW48614   5.855   1.204   5.402 -0.4424  0.5736 -0.3706
47125SOL    HW148615   5.859   1.125   5.348 -0.5372  0.8104 -0.7296
47125SOL    HW248616   5.796   1.181   5.474  1.1477 -0.3796  0.6888
47126SOL     OW48617   3.226   0.419   6.868  0.1790  0.3558  0.4790
47126SOL    HW148618   3.184   0.474   6.802 -1.3486 -0.4872  0.6896
47126SOL    HW248619   3.269   0.350   6.817  0.5075  0.6968  0.2938
47127SOL     OW48620   3.395  11.155   6.892  0.3284  0.2306 -0.1389
47127SOL    HW148621   3.486  11.178   6.911  0.7595 -0.0216 -1.7948
47127SOL    HW248622   3.380  11.188   6.803 -0.8232 -0.7859 -0.3392
47128SOL     OW48623   7.266   6.513   4.734  0.1059  0.1412 -0.0017
47128SOL    HW148624   7.339   6.455   4.712 -0.2442 -0.3374  0.0871
47128SOL    HW248625   7.290   6.597   4.697  0.1055 -0.3342 -1.1097
47129SOL     OW48626  12.138   6.805  12.113 -0.0350  0.3428  0.2502
47129SOL    HW148627  12.113   6.815  12.205 -0.0917 -1.8653  0.5153
47129SOL    HW248628  12.233   6.796  12.115  0.0357  0.9780  0.0081
47130SOL     OW48629   0.392   4.221  10.688 -0.2030 -0.6721 -0.0183
47130SOL    HW148630   0.440   4.262  10.760 -0.7382 -0.4853  0.2370
47130SOL    HW248631   0.457   4.166  10.644  0.7213  1.0474 -0.8588
47131SOL     OW48632   1.818   9.578   0.715  0.0940 -0.4093  0.1057
47131SOL    HW148633   1.844   9.603   0.626  0.6853 -1.2911  0.0159
47131SOL    HW248634   1.753   9.643   0.740  0.0517 -0.0401 -0.9077
47132SOL     OW48635   6.196   1.404   0.200  0.4447 -0.0687 -0.1728
47132SOL    HW148636   6.216   1.321   0.156  2.1046  0.9122 -1.3359
47132SOL    HW248637   6.139   1.450   0.138  0.8548  0.3340 -0.2506
47133SOL     OW48638  11.018   1.335   1.496 -0.2369 -0.3882 -0.3964
47133SOL    HW148639  11.100   1.338   1.446  0.2933  0.6579  0.5014
47133SOL    HW248640  11.001   1.426   1.520 -0.8706 -0.7719  0.6825
47134SOL     OW48641   4.437  10.681   0.603  0.3983 -0.1920  0.1332
47134SOL    HW148642   4.353  10.646   0.573 -0.0854  0.8116  0.2796
47134SOL    HW248643   4.416  10.731   0.681  1.0744  0.3950 -0.0509
47135SOL     OW48644   0.541   5.296  10.811 -0.0657 -0.1215  0.2163
47135SOL    HW148645   0.491   5.303  10.893 -0.3479  1.1621 -0.0548
47135SOL    HW248646   0.552   5.202  10.799 -0.9400 -0.3754  1.1826
47136SOL     OW48647   6.483   0.608   4.340 -0.6598  0.3453  0.5602
47136SOL    HW148648   6.539   0.604   4.417 -0.9270  1.4862  0.8374
47136SOL    HW248649   6.483   0.519   4.305  3.6036  0.7754 -1.1189
47137SOL     OW48650   0.182   7.138   5.895  0.6576 -0.2837 -0.2399
47137SOL    HW148651   0.153   7.224   5.924  0.2637 -0.0581 -1.2599
47137SOL    HW248652   0.106   7.081   5.907  0.6710 -0.3161 -0.3088
47138SOL     OW48653   5.548  12.278   2.795  0.0404 -0.1589 -0.4140
47138SOL    HW148654   5.536  12.214   2.725 -0.9715 -0.6877  0.2208
47138SOL    HW248655   5.480  12.257   2.860  0.4843  0.7710  0.3919
47139SOL     OW48656   4.961  11.243   2.612 -0.0978 -0.5539 -0.3141
47139SOL    HW148657   5.023  11.248   2.539  1.3198  1.3315  0.9309
47139SOL    HW248658   4.881  11.206   2.573  0.7673 -0.0992 -2.6823
47140SOL     OW48659   8.687   8.750   1.357 -0.7666 -0.3209  0.5867
47140SOL    HW148660   8.706   8.666   1.399 -1.9438 -1.1715 -0.5111
47140SOL    HW248661   8.646   8.727   1.274 -0.0340  1.3349 -0.2979
47141SOL     OW48662   5.995   8.878   7.940  0.1025  0.2455 -0.0379
47141SOL    HW148663   6.008   8.901   8.032 -3.2447 -1.1576  0.9437
47141SOL    HW248664   5.996   8.962   7.894  3.2671  0.8740  0.9380
47142SOL     OW48665  10.188   6.819   6.289  0.1832  0.4829  0.5056
47142SOL    HW148666  10.203   6.824   6.383  1.2524  1.5797  0.2945
47142SOL    HW248667  10.152   6.904   6.265  0.5064  0.4351 -0.1850
47143SOL     OW48668   3.617   5.823   0.830  0.3632 -0.1485  0.1984
47143SOL    HW148669   3.685   5.888   0.811  0.8722 -1.0064 -1.1304
47143SOL    HW248670   3.538   5.858   0.790  0.6967 -0.4334 -0.7499
47144SOL     OW48671   7.549   9.339   8.355  0.8252 -0.0939 -0.2176
47144SOL    HW148672   7.464   9.382   8.361  0.5975 -0.6728  0.8863
47144SOL    HW248673   7.587   9.373   8.274 -0.6043 -0.1005 -0.9187
47145SOL     OW48674  11.184  11.382   7.137 -0.2965 -0.2129 -0.2808
47145SOL    HW148675  11.201  11.392   7.044  1.2149 -0.8056 -0.1053
47145SOL    HW248676  11.166  11.289   7.149  0.0333 -0.2348  0.0871
47146SOL     OW48677  10.043  11.281  12.402 -0.5493  0.1209  0.6874
47146SOL    HW148678  10.075  11.370  12.391 -1.2235  0.2309 -0.5940
47146SOL    HW248679  10.064  11.237  12.320  0.8432 -1.2797  1.7177
47147SOL     OW48680   0.874   0.633  10.743  0.4777  0.1003 -0.2902
47147SOL    HW148681   0.826   0.705  10.702 -1.7138  0.4666  2.6429
47147SOL    HW248682   0.856   0.558  10.687 -1.3674  0.8127 -0.7165
47148SOL     OW48683  10.842   7.863   8.012  0.2529  0.1659  0.0104
47148SOL    HW148684  10.761   7.817   7.988 -0.8650  0.6427  2.4713
47148SOL    HW248685  10.901   7.794   8.041  0.5292 -0.1333 -1.2281
47149SOL     OW48686   0.496   8.501   4.351 -0.0163  0.4121 -0.2394
47149SOL    HW148687   0.505   8.441   4.277 -0.6755  0.5769 -0.4589
47149SOL    HW248688   0.586   8.529   4.370  0.2664 -0.4056 -0.3266
47150SOL     OW48689  11.213   1.412   9.722  0.5779  0.0874  0.3797
47150SOL    HW148690  11.255   1.496   9.740  1.3876 -0.6999  2.4150
47150SOL    HW248691  11.200   1.372   9.808 -1.8549 -0.9284 -0.3704
47151SOL     OW48692   8.174   0.676   1.990  0.4769 -0.3626  0.3102
47151SOL    HW148693   8.233   0.697   2.062  0.6879 -0.4286  0.1586
47151SOL    HW248694   8.213   0.599   1.949 -0.2882 -1.0716  0.8710
47152SOL     OW48695   7.851   1.031   1.055 -0.1106 -0.3516 -0.5927
47152SOL    HW148696   7.792   0.982   1.112 -0.0611  0.1487 -0.1063
47152SOL    HW248697   7.938   1.020   1.094 -0.2208  0.8426  0.0342
47153SOL     OW48698  12.026   4.208   1.480  0.4092 -0.2448  0.0467
47153SOL    HW148699  12.018   4.302   1.462  0.3386  0.2413  2.3501
47153SOL    HW248700  11.945   4.185   1.526  0.3968 -1.4759 -0.5348
47154SOL     OW48701   6.179   1.147   6.332  0.3903 -0.1367  0.3176
47154SOL    HW148702   6.165   1.235   6.367  0.1165 -0.0095 -0.0962
47154SOL    HW248703   6.113   1.094   6.375  0.9690 -0.2797  1.0514
47155SOL     OW48704   1.569   2.607   7.799 -0.2205 -0.0032  0.5467
47155SOL    HW148705   1.629   2.618   7.725  0.5807  0.8442  1.2910
47155SOL    HW248706   1.494   2.560   7.763 -1.2142  2.9217 -1.5288
47156SOL     OW48707  12.497   4.231  11.620 -0.3928  0.3388 -0.5451
47156SOL    HW148708  12.526   4.250  11.531  0.0669  2.5283  0.0115
47156SOL    HW248709  12.578   4.219  11.670 -0.6432 -0.6707 -0.3612
47157SOL     OW48710   7.456   7.083   1.801  0.1968 -0.7395 -0.2986
47157SOL    HW148711   7.440   7.134   1.721 -1.5092 -0.2488  0.3278
47157SOL    HW248712   7.538   7.118   1.835 -1.0664  1.8834  0.2914
47158SOL     OW48713   9.769   5.164   3.261  0.2815 -1.3212 -0.0971
47158SOL    HW148714   9.755   5.221   3.336 -0.0018  1.0062 -1.8138
47158SOL    HW248715   9.740   5.078   3.291 -2.6049  0.0838  1.5550
47159SOL     OW48716   0.931   8.236  10.707 -0.0402  0.1298  0.0452
47159SOL    HW148717   0.992   8.304  10.734 -1.2215  0.4257  2.1624
47159SOL    HW248718   0.976   8.154  10.728 -0.1406  0.3360  1.0903
47160SOL     OW48719   7.447   5.445   0.674 -0.0497  0.2798  0.3019
47160SOL    HW148720   7.503   5.367   0.678  0.4797  0.6935  1.3971
47160SOL    HW248721   7.476   5.492   0.596 -0.4529 -0.6604 -0.4381
47161SOL     OW48722  12.445   9.398   9.792 -0.1790 -0.3547  0.3463
47161SOL    HW148723  12.533   9.403   9.829 -0.1300 -1.7275  0.4513
47161SOL    HW248724  12.393   9.356   9.859 -1.0181  0.7560  0.4168
47162SOL     OW48725   9.660   2.452   3.693 -0.3061  0.1014  0.1513
47162SOL    HW148726   9.645   2.418   3.605  1.2423 -0.3733  0.0521
47162SOL    HW248727   9.625   2.542   3.690 -3.4130 -0.9865  0.1086
47163SOL     OW48728   6.027   3.883   6.289  0.3804  0.1878  0.2199
47163SOL    HW148729   5.988   3.806   6.248  0.4128  0.8371 -1.0916
47163SOL    HW248730   6.037   3.859   6.381  2.4464 -2.1879 -0.5369
47164SOL     OW48731   1.547   7.658   6.254 -0.7704 -0.2336 -0.0761
47164SOL    HW148732   1.567   7.581   6.201  2.3813 -0.4596  1.2598
47164SOL    HW248733   1.540   7.729   6.190  0.5064 -0.9290 -1.0352
47165SOL     OW48734   9.672   5.897   5.292 -0.1940  0.1939 -0.3477
47165SOL    HW148735   9.608   5.942   5.237 -0.7607 -2.0977 -1.6783
47165SOL    HW248736   9.668   5.943   5.376  0.3009  3.4639 -1.9396
47166SOL     OW48737   5.169   8.518   9.848 -0.3663  0.6056  0.2190
47166SOL    HW148738   5.205   8.547   9.932  2.7924  0.6427 -1.0004
47166SOL    HW248739   5.113   8.444   9.870  1.0430  0.0623  2.2949
47167SOL     OW48740  10.582   1.974   6.107 -0.0468 -0.6152  0.3851
47167SOL    HW148741  10.597   1.918   6.030 -0.1754  2.7110 -2.3432
47167SOL    HW248742  10.488   1.970   6.122 -0.3275  0.1269 -0.9648
47168SOL     OW48743   6.325   8.986   5.406  0.0386  0.0282 -0.2678
47168SOL    HW148744   6.352   8.966   5.317  0.2325  0.0666 -0.2167
47168SOL    HW248745   6.242   8.938   5.417  1.1886 -1.9690  0.3177
47169SOL     OW48746   3.460   5.381   7.722  0.1435 -0.6059  0.0494
47169SOL    HW148747   3.414   5.353   7.802  1.7971 -3.3392  0.1541
47169SOL    HW248748   3.392   5.380   7.655 -1.0445  0.6691  1.1724
47170SOL     OW48749   5.200   5.791   5.155 -0.2400 -0.2801 -0.7683
47170SOL    HW148750   5.256   5.863   5.184 -0.5860 -0.4106  0.2638
47170SOL    HW248751   5.154   5.763   5.234 -1.8401 -0.1089 -1.6003
47171SOL     OW48752  11.665  11.594  11.402  0.0598  0.2653 -0.3017
47171SOL    HW148753  11.739  11.543  11.436 -0.8062 -1.1456 -0.4791
47171SOL    HW248754  11.606  11.529  11.364 -0.6467  1.4909 -1.3813
47172SOL     OW48755   8.935   2.166   5.183  0.0024 -0.1056  0.4506
47172SOL    HW148756   8.992   2.090   5.192 -0.8939 -0.8114  0.2819
47172SOL    HW248757   8.992   2.235   5.150  0.6309 -0.9665 -0.3125
47173SOL     OW48758   8.284   5.786   3.650  0.0746  0.2242 -0.0176
47173SOL    HW148759   8.332   5.783   3.733  0.8181 -1.2735 -0.4675
47173SOL    HW248760   8.201   5.826   3.672  1.8063  3.8840  0.6175
47174SOL     OW48761   4.941   9.098   8.946 -0.2362 -0.2913 -0.7018
47174SOL    HW148762   4.911   9.033   8.882 -1.1467 -0.8118  0.2278
47174SOL    HW248763   4.999   9.049   9.004  2.2246  0.6258 -2.2620
47175SOL     OW48764   5.292  10.544   8.265  0.1455  0.5192 -0.0747
47175SOL    HW148765   5.349  10.594   8.206 -1.5682  0.2874 -2.0288
47175SOL    HW248766   5.339  10.461   8.276  1.3585  1.2349  0.3940
47176SOL     OW48767   0.550  11.540   0.415  0.4122 -0.5871  0.4122
47176SOL    HW148768   0.532  11.564   0.324 -0.5561  0.0646  0.7485
47176SOL    HW248769   0.644  11.556   0.426  0.6623 -1.2517 -0.6258
47177SOL     OW48770  11.517   5.424   1.109 -0.0083 -0.1669 -0.1120
47177SOL    HW148771  11.594   5.424   1.053  0.4018 -1.2541  0.4218
47177SOL    HW248772  11.550   5.444   1.196 -0.4086 -0.0650  0.0172
47178SOL     OW48773   5.108   6.582   3.197  0.0892  0.0878  0.0882
47178SOL    HW148774   5.082   6.491   3.178  1.3780 -0.2830  0.0319
47178SOL    HW248775   5.200   6.576   3.222  0.8303  1.6204 -1.9851
47179SOL     OW48776   8.008   6.625   0.096 -0.0059 -0.5762  0.1052
47179SOL    HW148777   8.010   6.658   0.006  0.4469  0.2882  0.4216
47179SOL    HW248778   7.959   6.543   0.091 -1.1097  0.1209 -0.7041
47180SOL     OW48779   2.501   2.038   0.985 -0.3053  0.1175 -0.3574
47180SOL    HW148780   2.421   2.041   1.037  0.8645  1.0900  1.5175
47180SOL    HW248781   2.571   2.029   1.049  1.0922 -1.4391 -1.9810
47181SOL     OW48782   0.511   5.955   4.207  0.1002 -0.6572 -0.2685
47181SOL    HW148783   0.439   5.897   4.182 -1.2398  0.6403  0.4272
47181SOL    HW248784   0.475   6.011   4.275  1.9005 -0.1960  0.3818
47182SOL     OW48785  11.613  11.696   7.205  0.1454  0.1816  0.8483
47182SOL    HW148786  11.567  11.643   7.141 -0.8022  1.6771  0.2353
47182SOL    HW248787  11.676  11.747   7.153  0.8069 -0.0768  1.3782
47183SOL     OW48788  11.835   6.887   9.398  0.3748  0.3616 -0.0392
47183SOL    HW148789  11.827   6.926   9.485  1.5775 -0.4281  0.4552
47183SOL    HW248790  11.902   6.940   9.354 -0.4949  0.9860 -0.6263
47184SOL     OW48791   3.649   0.778   7.684  0.3198  0.1828 -0.5958
47184SOL    HW148792   3.625   0.768   7.592  0.3848  2.4114 -0.8932
47184SOL    HW248793   3.566   0.768   7.731  0.1472 -0.0800 -0.9478
47185SOL     OW48794   5.787  11.348   4.518 -0.1475 -0.3224  0.0814
47185SOL    HW148795   5.828  11.375   4.600 -0.1686 -1.8276  0.6207
47185SOL    HW248796   5.859  11.345   4.455 -0.2575  1.5754 -0.1749
47186SOL     OW48797   0.203   7.929   1.708  0.1209 -0.5228  0.0352
47186SOL    HW148798   0.254   7.957   1.632 -0.0264  1.9406  0.7590
47186SOL    HW248799   0.113   7.955   1.687 -0.0029 -0.2935  0.8367
47187SOL     OW48800  11.775   0.186  10.923 -0.0745  0.1293 -0.0384
47187SOL    HW148801  11.838   0.118  10.900  1.1245  0.8138  1.0948
47187SOL    HW248802  11.730   0.153  11.000  0.0129  0.3220  0.0957
47188SOL     OW48803   0.138   9.317   9.628  0.5014  0.3089 -0.4059
47188SOL    HW148804   0.218   9.298   9.676  0.9938 -0.0603 -1.3385
47188SOL    HW248805   0.168   9.351   9.544 -0.3217  0.2421 -0.7407
47189SOL     OW48806  12.353   5.560   4.024 -0.3477  0.0785  0.4121
47189SOL    HW148807  12.394   5.645   4.039 -0.7642  0.6820 -1.5998
47189SOL    HW248808  12.425   5.497   4.025  0.1737  0.6709  0.3062
47190SOL     OW48809  11.144   1.955   4.907  0.1530  0.1873 -0.2798
47190SOL    HW148810  11.232   1.952   4.943 -0.1269  1.5471  0.5783
47190SOL    HW248811  11.098   2.021   4.959 -0.8008  0.9260 -1.9550
47191SOL     OW48812  11.319   2.175   1.454 -0.3684 -0.6346  0.7558
47191SOL    HW148813  11.252   2.189   1.520 -0.3321  2.2016  0.3375
47191SOL    HW248814  11.270   2.158   1.373 -0.6841  1.6023  0.4142
47192SOL     OW48815   8.649   2.401   6.487  0.0638  0.4942  0.0123
47192SOL    HW148816   8.725   2.452   6.460  0.0250  0.9144  0.6685
47192SOL    HW248817   8.636   2.425   6.579  0.1750 -0.8515  0.4060
47193SOL     OW48818   5.719   5.898   8.294 -0.1827 -0.0880 -0.0250
47193SOL    HW148819   5.714   5.890   8.199 -1.6154  3.7239 -0.4609
47193SOL    HW248820   5.631   5.875   8.325 -0.3158  0.5957  0.1239
47194SOL     OW48821   0.672   4.138   9.643  0.3397  0.4798  0.9338
47194SOL    HW148822   0.712   4.183   9.718  1.8277  0.8002 -0.0108
47194SOL    HW248823   0.682   4.200   9.570  0.1783 -0.3896  0.1620
47195SOL     OW48824   7.310   0.473   8.260 -0.0143 -0.2980 -0.2274
47195SOL    HW148825   7.257   0.528   8.317  0.8857 -0.0941  0.4181
47195SOL    HW248826   7.249   0.404   8.232 -1.1433  0.9636 -1.0252
47196SOL     OW48827   3.481   3.287   5.557  0.8903 -0.1263  0.1789
47196SOL    HW148828   3.428   3.360   5.589 -1.6536 -1.9992  0.5684
47196SOL    HW248829   3.550   3.276   5.623 -0.2106  0.3673  1.4437
47197SOL     OW48830   2.595   2.042   2.023 -0.6425  0.2411  0.5015
47197SOL    HW148831   2.558   1.977   2.084 -0.3639  0.2918  0.7283
47197SOL    HW248832   2.594   2.124   2.072 -1.2837  0.4782  0.1043
47198SOL     OW48833   9.195   4.187   0.509  0.4065  0.1687  0.0460
47198SOL    HW148834   9.169   4.275   0.479 -0.3154 -0.4441 -1.2353
47198SOL    HW248835   9.132   4.165   0.577 -1.5937 -0.6671 -1.9534
47199SOL     OW48836   3.024   2.046   5.829  0.6085  0.0666  0.4209
47199SOL    HW148837   2.968   2.075   5.901  3.6204 -0.1586  3.0845
47199SOL    HW248838   2.970   1.984   5.780 -2.3695  2.0018  1.0129
47200SOL     OW48839   5.313   7.111   1.985 -0.0664 -0.5529  0.0152
47200SOL    HW148840   5.229   7.124   2.029  0.3038  2.5020  0.0742
47200SOL    HW248841   5.376   7.158   2.040  0.8858  0.9961 -2.2479
47201SOL     OW48842   4.894   0.406  11.070 -0.0543  0.3274 -0.1401
47201SOL    HW148843   4.961   0.451  11.121  0.0785 -0.6800  0.5875
47201SOL    HW248844   4.943   0.354  11.006 -0.1675  0.1941 -0.1196
47202SOL     OW48845   8.226  12.062   4.227 -0.1961 -0.1931  0.2320
47202SOL    HW148846   8.321  12.063   4.221 -0.2555 -1.1185 -1.4456
47202SOL    HW248847   8.204  12.145   4.269  1.3188  0.3086  0.0876
47203SOL     OW48848  11.077   3.142   6.089 -0.1343  0.6968  0.1551
47203SOL    HW148849  11.147   3.159   6.151 -1.7033  1.4165  1.8176
47203SOL    HW248850  10.997   3.141   6.142 -1.7596  2.8996 -2.0106
47204SOL     OW48851   3.092   9.916   1.867  0.2021  0.0142  0.0031
47204SOL    HW148852   3.020   9.929   1.929 -0.1324  0.9962 -0.5663
47204SOL    HW248853   3.049   9.914   1.781  0.7146 -0.8073 -0.2441
47205SOL     OW48854   3.189  12.558   4.692 -0.0567 -0.2782 -0.2827
47205SOL    HW148855   3.194  12.606   4.610 -1.1545  0.9523  0.3194
47205SOL    HW248856   3.110  12.592   4.735  0.3543 -1.0497  1.1768
47206SOL     OW48857   5.769   6.647   9.287 -0.0170 -0.5575  0.0323
47206SOL    HW148858   5.839   6.701   9.323 -0.4918 -0.4930  0.8814
47206SOL    HW248859   5.807   6.607   9.209  0.8040 -0.1440  0.2119
47207SOL     OW48860  12.654   2.868   1.750 -0.3867  0.4865 -0.0405
47207SOL    HW148861  12.644   2.963   1.743 -0.4125  0.4329 -0.9173
47207SOL    HW248862  12.727   2.855   1.809  0.6313  1.1030 -1.1214
47208SOL     OW48863   8.631   3.557  12.295 -0.4101  0.7668 -0.2047
47208SOL    HW148864   8.715   3.559  12.249  0.1101  2.6532  0.7346
47208SOL    HW248865   8.599   3.647  12.291 -1.0502  0.6736  1.8457
47209SOL     OW48866   6.980  11.179   9.548 -0.5393 -0.2314 -0.3605
47209SOL    HW148867   7.031  11.253   9.582  1.3632 -1.9651  0.8080
47209SOL    HW248868   6.899  11.218   9.517  0.4156  2.3451  0.1448
47210SOL     OW48869   8.606  11.349  10.062 -0.0516  0.0397 -0.0128
47210SOL    HW148870   8.632  11.434  10.026  1.3098 -0.1821  0.4166
47210SOL    HW248871   8.530  11.369  10.117  0.6786  1.1061  0.6469
47211SOL     OW48872   8.154   3.024  12.523 -0.2116  0.2254 -0.1825
47211SOL    HW148873   8.135   3.038  12.616 -2.8178 -0.8993 -0.4742
47211SOL    HW248874   8.224   3.087  12.504  0.5621  0.3282  2.5595
47212SOL     OW48875  10.676   2.661   6.170 -0.1686 -0.2391 -0.3421
47212SOL    HW148876  10.665   2.740   6.117 -0.3419 -0.3957 -0.5386
47212SOL    HW248877  10.747   2.613   6.128 -1.0766 -0.9334 -1.1298
47213SOL     OW48878  11.744   7.665   1.279 -0.0624  0.1855  0.3075
47213SOL    HW148879  11.741   7.625   1.191  0.0590  0.6895  0.0736
47213SOL    HW248880  11.672   7.727   1.280  0.5630  0.9287  0.1990
47214SOL     OW48881   3.131   2.272  12.675  0.1939  1.3050 -0.6905
47214SOL    HW148882   3.116   2.328  12.751  1.5977 -1.1841  1.6004
47214SOL    HW248883   3.224   2.283  12.656  0.2716  0.4774 -0.8007
47215SOL     OW48884   2.337   9.737  12.582  0.0649  0.0497 -0.6215
47215SOL    HW148885   2.252   9.717  12.542 -1.2828  4.1868 -0.3345
47215SOL    HW248886   2.317   9.757  12.673  1.8168 -1.2905  0.1084
47216SOL     OW48887   1.028   8.996   6.877 -0.1389 -0.0480 -0.0627
47216SOL    HW148888   1.043   9.061   6.809 -0.7179 -1.5224 -1.7070
47216SOL    HW248889   1.115   8.962   6.898 -0.0825 -0.7416 -1.3283
47217SOL     OW48890  12.086   3.994   0.099 -0.1165 -0.3219  0.2455
47217SOL    HW148891  12.068   4.037   0.015  1.0006  0.1081  0.2107
47217SOL    HW248892  12.179   3.976   0.097  0.1114  0.5161  1.7728
47218SOL     OW48893   1.824  11.761  11.977  0.6069 -0.1182 -0.0929
47218SOL    HW148894   1.873  11.814  12.040  1.3082  1.8060 -2.1182
47218SOL    HW248895   1.770  11.824  11.929  0.9308 -1.3052 -2.1479
47219SOL     OW48896   6.016   4.747   7.223  0.3705  0.1774  0.0629
47219SOL    HW148897   5.996   4.836   7.194  0.8100  0.6339  1.0940
47219SOL    HW248898   5.931   4.707   7.240  0.1230  0.0450 -1.3493
47220SOL     OW48899   8.637   3.980   1.880 -0.4614  0.1266  0.4337
47220SOL    HW148900   8.613   3.924   1.806 -0.4927 -0.0024  0.5398
47220SOL    HW248901   8.690   3.923   1.937  0.8300  0.6407 -0.2040
47221SOL     OW48902   3.554   9.189   5.140  0.3387  0.2451 -0.1068
47221SOL    HW148903   3.486   9.162   5.078  0.2912  0.5016 -0.1693
47221SOL    HW248904   3.511   9.189   5.225 -0.1505  1.8003 -0.3231
47222SOL     OW48905  10.097   6.939  12.385 -0.5467 -0.4147 -0.7236
47222SOL    HW148906  10.085   7.032  12.402 -1.6948 -0.7656  0.5389
47222SOL    HW248907  10.178   6.916  12.431 -0.3087 -0.0704 -0.9677
47223SOL     OW48908   1.799   0.191   2.451  0.2141 -0.2276 -0.0604
47223SOL    HW148909   1.711   0.157   2.430  0.6331 -0.8023 -0.9363
47223SOL    HW248910   1.809   0.268   2.395 -0.5161  1.0969  1.5298
47224SOL     OW48911   4.588   8.900  11.810  1.0882 -0.0871  0.2408
47224SOL    HW148912   4.582   8.811  11.845  0.5495 -0.1740 -0.0570
47224SOL    HW248913   4.520   8.949  11.856  1.0639  0.0546  0.0558
47225SOL     OW48914  12.527  11.234  11.763 -0.6328 -0.1168 -0.5594
47225SOL    HW148915  12.499  11.296  11.829  0.7295  0.5858 -0.5961
47225SOL    HW248916  12.452  11.175  11.751 -1.1436  0.1390  1.1063
47226SOL     OW48917   7.527   9.614  12.388 -0.0402 -0.1616 -0.0618
47226SOL    HW148918   7.496   9.696  12.348 -1.4737 -0.4972  0.3209
47226SOL    HW248919   7.564   9.565  12.315 -0.9593  0.0160 -0.6646
47227SOL     OW48920   2.730   5.642   9.959 -0.3265  0.2130  0.3657
47227SOL    HW148921   2.754   5.645   9.866 -0.4395 -0.4244  0.3115
47227SOL    HW248922   2.694   5.554   9.971  1.2220 -0.3117  1.3831
47228SOL     OW48923   0.242  11.948   7.234  0.6829  0.0414  0.4466
47228SOL    HW148924   0.247  11.854   7.250 -2.1503 -0.1371  0.9368
47228SOL    HW248925   0.234  11.956   7.139  2.0969 -0.0809  0.2961
47229SOL     OW48926  11.039  11.318   5.453 -0.1658  0.1266  0.1494
47229SOL    HW148927  11.118  11.289   5.406 -0.5701  0.7224 -0.9349
47229SOL    HW248928  11.010  11.240   5.500  0.9199 -0.1752  0.3553
47230SOL     OW48929   3.762   3.550  10.944  0.0464  0.0359  0.0405
47230SOL    HW148930   3.843   3.510  10.913 -0.0836  1.1468 -1.8500
47230SOL    HW248931   3.778   3.644  10.941 -0.4280  0.2605  2.2581
47231SOL     OW48932   9.560   6.804   2.390  0.1732 -0.1467 -0.4249
47231SOL    HW148933   9.503   6.796   2.466 -0.1289  1.1562 -0.4862
47231SOL    HW248934   9.582   6.714   2.366 -0.9149 -0.6177  0.2999
47232SOL     OW48935   8.877  10.443  10.602 -0.8213 -0.3747 -0.5388
47232SOL    HW148936   8.851  10.489  10.522 -0.1651  0.9390 -0.0246
47232SOL    HW248937   8.942  10.500  10.643 -0.9012 -1.1776  0.7780
47233SOL     OW48938   5.251   1.804   3.581  0.7311 -0.2047 -0.1614
47233SOL    HW148939   5.272   1.733   3.520 -0.7680 -0.3272 -0.5854
47233SOL    HW248940   5.183   1.766   3.638 -0.4454  1.0092 -0.6948
47234SOL     OW48941   5.694   0.423   5.578 -0.0754  0.1140 -1.0006
47234SOL    HW148942   5.694   0.381   5.664  1.3693  0.3612 -0.8464
47234SOL    HW248943   5.609   0.401   5.540 -0.5490 -0.3795  0.3048
47235SOL     OW48944   9.712   3.811   3.252 -0.0227 -0.0261 -0.1575
47235SOL    HW148945   9.662   3.893   3.249  0.3611  0.2364  0.4063
47235SOL    HW248946   9.786   3.830   3.309 -0.5270 -1.0818  0.9155
47236SOL     OW48947   5.900  10.810   4.347  0.6178  1.3138 -0.5049
47236SOL    HW148948   5.967  10.873   4.373  1.2852  0.5186 -0.2623
47236SOL    HW248949   5.849  10.794   4.426  0.3282  1.6743 -0.6122
47237SOL     OW48950   4.018   7.978   0.619  0.0170 -0.4362  0.4021
47237SOL    HW148951   4.034   8.068   0.647 -2.0220  0.5387 -1.2216
47237SOL    HW248952   3.947   7.948   0.675  1.3695 -1.4682  1.6332
47238SOL     OW48953  10.377   2.499   5.101 -0.2716 -0.0112 -0.0959
47238SOL    HW148954  10.293   2.484   5.144  0.1095 -1.5337  0.1503
47238SOL    HW248955  10.359   2.484   5.008 -0.1325 -1.0546  0.0337
47239SOL     OW48956   3.901   4.414   1.641  0.2621 -0.4413  0.2933
47239SOL    HW148957   3.807   4.411   1.656  0.3979  1.0855  1.7430
47239SOL    HW248958   3.921   4.507   1.628  1.3151 -0.9318 -1.9793
47240SOL     OW48959   9.196   2.777  11.184 -0.0223  0.5126  0.3116
47240SOL    HW148960   9.272   2.735  11.224  0.8680  1.2492 -0.5481
47240SOL    HW248961   9.209   2.767  11.090 -0.5362  1.3899  0.1288
47241SOL     OW48962   2.731  12.395   7.010 -0.3133  0.2554  0.1863
47241SOL    HW148963   2.692  12.310   7.031 -1.5536  0.9916  0.9206
47241SOL    HW248964   2.747  12.391   6.915  0.1110 -0.9691  0.2945
47242SOL     OW48965   0.584   4.780  12.356  0.6230  0.1470  0.5712
47242SOL    HW148966   0.642   4.851  12.383 -0.6224  1.7072 -0.6368
47242SOL    HW248967   0.498   4.805  12.389 -0.3476  0.5703 -2.0068
47243SOL     OW48968   1.890   2.248  11.642  0.3248  0.1898 -0.6128
47243SOL    HW148969   1.857   2.158  11.645  1.3133 -0.2472 -1.9634
47243SOL    HW248970   1.882   2.279  11.732 -1.0677 -0.8578 -0.3345
47244SOL     OW48971   3.566   6.545   9.323  0.6328  0.2582 -0.4122
47244SOL    HW148972   3.646   6.528   9.274 -0.5599 -0.2608 -2.2609
47244SOL    HW248973   3.503   6.480   9.291 -0.5027  0.5281  1.1114
47245SOL     OW48974   6.528  12.308   6.775 -0.2418 -0.3201 -0.0750
47245SOL    HW148975   6.522  12.230   6.830 -1.3534  0.3835  0.8324
47245SOL    HW248976   6.438  12.325   6.747  0.2766 -0.6226 -2.0996
47246SOL     OW48977   2.262   7.131   8.049  0.0726 -0.5764 -0.4504
47246SOL    HW148978   2.327   7.068   8.017  2.0165  0.2150  1.6173
47246SOL    HW248979   2.300   7.217   8.030 -0.0311 -0.1001  1.2858
47247SOL     OW48980   4.459   7.048  10.535  0.2792  0.2079 -0.1480
47247SOL    HW148981   4.528   7.028  10.598  0.7925 -0.6489 -0.9442
47247SOL    HW248982   4.444   7.142  10.543  0.7941  0.2151  0.7774
47248SOL     OW48983   0.218   9.635   3.792 -0.0117 -0.6023 -0.4775
47248SOL    HW148984   0.293   9.688   3.764  0.5139 -0.7218  0.6406
47248SOL    HW248985   0.172   9.689   3.855  0.8508 -1.6388  1.1166
47249SOL     OW48986   6.170  10.135   4.719  0.1820 -0.7986 -0.5301
47249SOL    HW148987   6.233  10.179   4.776 -0.8958  1.1438 -0.7617
47249SOL    HW248988   6.084  10.163   4.752 -0.6277 -3.3093 -0.2781
47250SOL     OW48989   6.495   8.698   3.188  0.4194  0.4045 -0.3124
47250SOL    HW148990   6.400   8.699   3.176  0.1694 -0.7079  1.2076
47250SOL    HW248991   6.526   8.630   3.128 -0.1612 -1.3932  1.3243
47251SOL     OW48992   8.813   4.689   6.508 -0.2191  0.0186  0.2423
47251SOL    HW148993   8.841   4.601   6.534  0.5548  0.4147  0.8035
47251SOL    HW248994   8.782   4.679   6.418  0.4165 -0.7124  0.0906
47252SOL     OW48995  12.363   0.851   0.644  0.3167 -0.1234 -0.3436
47252SOL    HW148996  12.394   0.836   0.733  0.1599  0.3954 -0.2002
47252SOL    HW248997  12.407   0.784   0.592  0.0644 -0.7176  0.1929
47253SOL     OW48998  12.164   4.302  11.123 -0.2838 -0.3901  0.2175
47253SOL    HW148999  12.088   4.360  11.116 -0.6708 -1.0135 -1.0485
47253SOL    HW249000  12.129   4.214  11.108  0.9367 -0.5076 -2.8580
47254SOL     OW49001   8.203   1.200   2.101  0.3602 -0.3606 -0.3796
47254SOL    HW149002   8.213   1.219   2.194 -1.2028  0.4198 -0.3549
47254SOL    HW249003   8.137   1.130   2.097 -0.7202  0.6570 -0.9546
47255SOL     OW49004   5.625   2.494   9.196 -0.0388 -0.1999  0.3668
47255SOL    HW149005   5.529   2.504   9.201 -0.3131  0.0667 -3.1427
47255SOL    HW249006   5.658   2.574   9.237 -1.3471  0.0527  1.0014
47256SOL     OW49007   4.154  11.790   0.329 -0.1011  0.4160  0.2884
47256SOL    HW149008   4.122  11.875   0.301 -0.3102  0.8897  1.8912
47256SOL    HW249009   4.250  11.796   0.321 -0.1796  0.2719 -0.9827
47257SOL     OW49010   6.400   5.841   1.089  0.8297  0.2895 -0.0628
47257SOL    HW149011   6.464   5.810   1.154  0.4080  1.2520  0.8488
47257SOL    HW249012   6.419   5.934   1.079 -1.0684  0.8512  1.0455
47258SOL     OW49013  11.191   7.878   7.714 -0.5657  0.4119 -0.3215
47258SOL    HW149014  11.151   7.850   7.632 -1.2021 -0.0834  0.1511
47258SOL    HW249015  11.273   7.828   7.720  0.4960  1.8790 -1.5924
47259SOL     OW49016   5.236  10.654   2.135  0.4382  0.6475  0.2020
47259SOL    HW149017   5.297  10.661   2.209 -0.1626 -0.0357  0.7794
47259SOL    HW249018   5.274  10.587   2.079 -0.6133 -1.0536  1.4262
47260SOL     OW49019  11.731   8.365   0.953 -0.8075  0.3371  0.5380
47260SOL    HW149020  11.692   8.445   0.917 -1.0222 -0.3146 -0.7188
47260SOL    HW249021  11.821   8.389   0.975 -1.2028  1.2229  1.2685
47261SOL     OW49022   1.234  10.139   7.837  0.0081 -0.1274  1.4205
47261SOL    HW149023   1.173  10.191   7.890 -0.9629 -0.2932  0.4908
47261SOL    HW249024   1.292  10.204   7.798 -0.2041  0.1216  1.5137
47262SOL     OW49025   9.368   7.119   2.039 -0.1264 -0.1769 -0.3253
47262SOL    HW149026   9.351   7.033   2.076  2.2688  0.2563  2.1518
47262SOL    HW249027   9.379   7.176   2.116  1.4068  1.6601 -1.7985
47263SOL     OW49028  10.239  12.700   6.195  0.0241  0.4320  0.0865
47263SOL    HW149029  10.333  12.705   6.211  0.3611  1.0375 -1.8153
47263SOL    HW249030  10.231  12.650   6.114 -1.1915  1.5872 -0.5537
47264SOL     OW49031  10.772   7.719  12.500 -0.3110  0.8761  0.1642
47264SOL    HW149032  10.697   7.778  12.507 -1.2548 -0.3607  0.8622
47264SOL    HW249033  10.836   7.752  12.563 -0.2601  1.9263 -0.4201
47265SOL     OW49034   9.713   5.846   8.724 -0.1766 -0.3914  0.3636
47265SOL    HW149035   9.721   5.935   8.758  1.4004 -0.0938 -0.6714
47265SOL    HW249036   9.767   5.846   8.644  0.1841 -2.3733  0.5561
47266SOL     OW49037  12.417   3.330   2.314  0.0533 -0.0627  0.2557
47266SOL    HW149038  12.473   3.408   2.318  1.5095 -1.0685  0.1973
47266SOL    HW249039  12.478   3.257   2.303 -1.3424 -1.1226 -0.8771
47267SOL     OW49040   6.428   5.471   9.379 -0.3154 -0.0860 -0.7968
47267SOL    HW149041   6.455   5.559   9.352  1.5548 -1.0976 -2.6006
47267SOL    HW249042   6.418   5.423   9.296 -1.6772 -1.4711  0.1221
47268SOL     OW49043  12.391   5.111   5.730 -0.0185  0.2534  0.1088
47268SOL    HW149044  12.320   5.118   5.667 -2.4417  2.4783  2.8346
47268SOL    HW249045  12.458   5.172   5.698 -0.6022  0.3479 -0.9724
47269SOL     OW49046   5.308   0.605   4.541 -0.0146  0.8482  0.0096
47269SOL    HW149047   5.325   0.572   4.453  0.9904  0.9318  0.1631
47269SOL    HW249048   5.268   0.531   4.587  1.2718  0.1422  0.0528
47270SOL     OW49049   0.117   7.390   5.963 -0.3540 -0.2252  0.1586
47270SOL    HW149050   0.206   7.411   5.991  0.5690 -1.9051 -1.2914
47270SOL    HW249051   0.084   7.472   5.925  0.5071  0.4499  0.8176
47271SOL     OW49052   3.033   6.640   2.055  0.5059 -0.2171 -0.1288
47271SOL    HW149053   3.010   6.560   2.102 -0.4952  0.0227 -0.1942
47271SOL    HW249054   2.953   6.664   2.008  0.4145  1.4324  0.7769
47272SOL     OW49055   9.328   9.580   9.515  0.8346  0.4881 -0.0111
47272SOL    HW149056   9.322   9.668   9.478 -0.7013  0.2139 -0.4662
47272SOL    HW249057   9.357   9.525   9.442  1.1308  0.4869  0.1026
47273SOL     OW49058   8.190   2.013   2.220  0.2750  0.3175  0.1587
47273SOL    HW149059   8.168   1.921   2.205  0.5551  0.4645 -1.3071
47273SOL    HW249060   8.134   2.040   2.292  0.6076 -1.1562  0.9926
47274SOL     OW49061   6.198   8.688   9.839  0.0349 -0.2105 -0.0358
47274SOL    HW149062   6.112   8.731   9.847 -0.0941 -0.4310 -0.2367
47274SOL    HW249063   6.183   8.615   9.778  0.0654 -1.0343  0.9217
47275SOL     OW49064   5.118   2.469  12.453  0.2532  0.0701 -0.2302
47275SOL    HW149065   5.083   2.535  12.394 -1.1233  0.6176  1.1439
47275SOL    HW249066   5.170   2.518  12.516 -1.8697  0.1015  1.6135
47276SOL     OW49067   1.721   2.749   3.787  0.0646 -0.3265 -0.1889
47276SOL    HW149068   1.689   2.692   3.857  0.8874  0.3107  0.7453
47276SOL    HW249069   1.764   2.690   3.726  1.9588 -0.6548  1.3578
47277SOL     OW49070   4.510   2.847   1.686  0.3049  0.5083  0.6062
47277SOL    HW149071   4.585   2.880   1.736  1.2094  1.3445 -1.2174
47277SOL    HW249072   4.549   2.799   1.613 -0.9163  0.8664 -0.3220
47278SOL     OW49073   2.582   4.104   1.679 -0.2821  0.4497 -0.7136
47278SOL    HW149074   2.558   4.161   1.752 -1.2174 -0.2697 -0.4360
47278SOL    HW249075   2.638   4.158   1.623 -0.9906  1.5669 -0.3681
47279SOL     OW49076   9.992   9.379   7.153 -0.0395  0.8533  0.0170
47279SOL    HW149077   9.903   9.369   7.119 -0.5562  2.5782  0.7952
47279SOL    HW249078  10.002   9.307   7.215  0.2967 -1.2854 -2.3071
47280SOL     OW49079  10.642   7.113   5.617 -0.3623  0.1080 -0.4392
47280SOL    HW149080  10.702   7.089   5.687 -0.0252 -1.4074 -1.2057
47280SOL    HW249081  10.653   7.044   5.551 -1.0467  1.2084 -1.7497
47281SOL     OW49082   1.218   3.612  11.530 -0.2939 -0.0598  0.4702
47281SOL    HW149083   1.184   3.522  11.529  0.3266 -0.3618  2.4577
47281SOL    HW249084   1.143   3.665  11.556 -0.4112 -0.1285  0.2755
47282SOL     OW49085   2.646  10.860   0.084 -0.4383  0.4822 -0.5682
47282SOL    HW149086   2.551  10.852   0.092 -0.4466  1.2613  0.2875
47282SOL    HW249087   2.681  10.795   0.144 -0.4629  1.6347  0.7429
47283SOL     OW49088   8.045  12.551   9.555 -0.0461 -0.0164  0.1930
47283SOL    HW149089   8.075  12.610   9.624 -2.8606  0.3733  1.2034
47283SOL    HW249090   8.031  12.607   9.479 -1.4848  0.4308  0.7685
47284SOL     OW49091   1.682   0.282   4.418  0.2775  0.0944 -0.3883
47284SOL    HW149092   1.746   0.327   4.473  1.8643 -0.2586 -1.8561
47284SOL    HW249093   1.666   0.342   4.346 -0.2253 -0.2791 -0.5937
47285SOL     OW49094  10.054   9.284  11.731 -0.2271 -0.2928  0.0593
47285SOL    HW149095   9.981   9.240  11.688 -0.2834  0.8153 -1.0497
47285SOL    HW249096  10.035   9.377  11.721  0.6819  0.0029  0.9302
47286SOL     OW49097   2.924  11.097  10.303 -0.2305 -0.0308  0.1704
47286SOL    HW149098   3.016  11.121  10.315 -0.2411 -0.2413  0.6799
47286SOL    HW249099   2.877  11.156  10.361 -0.3516 -0.4911  0.5426
47287SOL     OW49100  11.241   7.717  10.778  0.0028 -0.3526 -0.2991
47287SOL    HW149101  11.267   7.807  10.758 -0.2114 -0.3336 -0.4892
47287SOL    HW249102  11.251   7.670  10.695 -0.8303 -0.2852 -0.4445
47288SOL     OW49103   6.927   0.342  12.008  0.2280 -0.2131  0.6030
47288SOL    HW149104   6.984   0.333  11.932  1.9546  0.4063  1.7449
47288SOL    HW249105   6.881   0.425  11.994  0.0639 -0.4155 -0.0574
47289SOL     OW49106   8.568   9.429  10.218  0.2738  0.5204  0.1645
47289SOL    HW149107   8.597   9.461  10.133 -0.0599 -1.3303 -0.6827
47289SOL    HW249108   8.536   9.508  10.263  0.7085  1.5730 -1.2871
47290SOL     OW49109   5.680   5.214   8.666 -0.1386  0.0505 -0.2346
47290SOL    HW149110   5.740   5.148   8.698  0.2028  0.2185 -0.5239
47290SOL    HW249111   5.593   5.174   8.674 -0.1837  0.4279  1.7854
47291SOL     OW49112  10.151   2.301   6.448 -0.2325  0.2051  0.1835
47291SOL    HW149113  10.229   2.295   6.504 -0.7408 -1.6568  0.7770
47291SOL    HW249114  10.156   2.224   6.391 -1.0022  0.7320 -0.6155
47292SOL     OW49115   4.382   7.761   7.115 -0.1240 -0.1207  0.1520
47292SOL    HW149116   4.435   7.683   7.126  2.5204  1.2508 -1.8355
47292SOL    HW249117   4.315   7.737   7.052 -0.9112 -1.3992  1.4127
47293SOL     OW49118   9.891  10.469   7.042 -0.2289 -0.1160  0.5241
47293SOL    HW149119   9.804  10.472   7.004 -0.6377  1.0466  1.5012
47293SOL    HW249120   9.911  10.560   7.066  0.4723 -0.6181  2.0122
47294SOL     OW49121   4.297   9.090   9.789 -0.1128  0.1157  0.0204
47294SOL    HW149122   4.318   9.179   9.815  0.0538 -0.1220  0.7362
47294SOL    HW249123   4.265   9.097   9.699 -0.1366  0.8946  0.0895
47295SOL     OW49124   9.358   8.813   1.315  0.6075  0.1139 -0.5223
47295SOL    HW149125   9.267   8.827   1.290  0.1888 -1.0068  0.2823
47295SOL    HW249126   9.396   8.767   1.240  0.0355 -0.9609 -0.1745
47296SOL     OW49127   3.272   8.103   1.802  0.2256  0.6107 -0.1585
47296SOL    HW149128   3.321   8.181   1.829  1.5860  0.0817 -1.0081
47296SOL    HW249129   3.256   8.055   1.883 -0.9644  1.9109  0.4357
47297SOL     OW49130   2.418   7.702   3.459 -0.1405 -0.4117 -0.3150
47297SOL    HW149131   2.500   7.660   3.433 -0.4216 -1.5819  0.6005
47297SOL    HW249132   2.440   7.795   3.466  1.9830 -1.0036  2.9402
47298SOL     OW49133   2.296   0.450   9.162 -0.1797  0.7494 -0.1267
47298SOL    HW149134   2.255   0.524   9.207 -2.1543  0.1002 -0.7639
47298SOL    HW249135   2.274   0.374   9.216  0.5730  0.4231 -0.2656
47299SOL     OW49136  12.226  11.307   8.601 -0.5224 -0.0491  0.0221
47299SOL    HW149137  12.262  11.257   8.528 -1.1659  0.8849 -0.9686
47299SOL    HW249138  12.278  11.281   8.677  0.2974 -0.8819 -0.8109
47300SOL     OW49139   2.424   1.097   9.025  0.3240  0.1310 -0.1469
47300SOL    HW149140   2.378   1.179   9.041  1.6474  0.6593  1.2716
47300SOL    HW249141   2.393   1.038   9.094  0.4476 -0.0952 -0.2831
47301SOL     OW49142   4.021   1.165   9.082 -0.1677 -0.1831 -0.2943
47301SOL    HW149143   4.081   1.113   9.028  1.5016  1.4346 -0.1021
47301SOL    HW249144   3.946   1.181   9.026  0.7084 -0.1228 -1.4962
47302SOL     OW49145   2.499   5.855  11.485 -0.2548 -0.0942  0.3720
47302SOL    HW149146   2.525   5.803  11.409  1.8110 -0.3358  1.1541
47302SOL    HW249147   2.439   5.798  11.533 -0.8205 -0.3142 -0.5740
47303SOL     OW49148   7.446  10.356   8.533  0.3072 -0.3970 -0.0558
47303SOL    HW149149   7.418  10.446   8.512  0.5447 -0.6626 -1.5500
47303SOL    HW249150   7.535  10.366   8.568  0.3939 -0.0728 -0.3703
47304SOL     OW49151  11.940   5.790   8.067 -0.2806 -0.5959  0.6642
47304SOL    HW149152  11.894   5.730   8.009 -2.0359  1.8443 -0.6441
47304SOL    HW249153  12.022   5.809   8.021 -0.5736 -0.5388  0.1598
47305SOL     OW49154   4.547  12.187  12.564  0.5247  0.6755  0.3776
47305SOL    HW149155   4.525  12.263  12.618  0.8810  0.2745  1.1012
47305SOL    HW249156   4.631  12.158  12.598  0.9016  0.5894 -0.5959
47306SOL     OW49157  11.262   8.187   7.239  0.2145  0.0113  0.2422
47306SOL    HW149158  11.345   8.182   7.287 -0.8734 -0.2061  2.1939
47306SOL    HW249159  11.212   8.255   7.285 -0.4411  0.6314 -1.3339
47307SOL     OW49160   6.373   3.361   0.274  0.2652  0.6820 -0.3356
47307SOL    HW149161   6.365   3.268   0.254  1.4791  0.4750  0.0568
47307SOL    HW249162   6.376   3.404   0.188  2.1711  0.1083 -0.6094
47308SOL     OW49163   3.631   9.162   1.143 -0.3946 -0.1343 -0.1647
47308SOL    HW149164   3.548   9.190   1.106  0.2445  0.7230 -1.0054
47308SOL    HW249165   3.690   9.237   1.130  0.1030 -0.1039  1.8227
47309SOL     OW49166   3.524  11.744   5.489 -0.2764  0.5123  0.0837
47309SOL    HW149167   3.454  11.755   5.425 -0.3020 -1.0621 -0.2138
47309SOL    HW249168   3.505  11.808   5.557 -1.2034  1.0716 -0.6821
47310SOL     OW49169   3.220  12.142   8.865 -0.9975  0.2612  0.0376
47310SOL    HW149170   3.270  12.134   8.946 -0.1567 -0.4223 -0.5199
47310SOL    HW249171   3.184  12.231   8.867 -0.3073  0.5362  0.7728
47311SOL     OW49172   3.312   5.302   4.043 -0.7991  0.3603 -0.2625
47311SOL    HW149173   3.283   5.211   4.048 -0.4486  0.1217 -1.9276
47311SOL    HW249174   3.350   5.310   3.956  2.4209  1.1726  1.0870
47312SOL     OW49175   0.750   9.887   6.947  0.1182  0.7245 -0.1730
47312SOL    HW149176   0.750   9.977   6.914 -0.1410  0.2735 -1.4969
47312SOL    HW249177   0.835   9.877   6.990 -0.1625  1.8274  0.7016
47313SOL     OW49178  11.796   7.935  11.273 -1.1325 -0.1116 -0.3254
47313SOL    HW149179  11.876   7.983  11.294 -0.3398 -1.3550 -0.4104
47313SOL    HW249180  11.807   7.850  11.316 -2.4186 -0.2965 -0.3325
47314SOL     OW49181   4.633   2.312   9.958 -0.4626  0.1267  0.0246
47314SOL    HW149182   4.663   2.228   9.924 -0.6830 -0.4118  1.1008
47314SOL    HW249183   4.630   2.370   9.882 -0.7584 -0.9672 -0.8124
47315SOL     OW49184   4.971  12.017   7.625 -0.1591 -0.1795 -0.4008
47315SOL    HW149185   4.898  12.068   7.589 -0.9314  0.2260  1.6039
47315SOL    HW249186   4.929  11.954   7.684  1.1391  0.9480  1.8462
47316SOL     OW49187   7.525   0.894   5.550 -0.3124 -0.0656  0.2255
47316SOL    HW149188   7.568   0.910   5.634 -0.4214 -0.2775  0.3240
47316SOL    HW249189   7.579   0.828   5.507  0.9956  1.6145 -0.8375
47317SOL     OW49190  11.645   2.165  12.606 -0.4723 -0.1482  0.2498
47317SOL    HW149191  11.550   2.174  12.615 -0.8400 -1.5985 -1.6229
47317SOL    HW249192  11.668   2.096  12.668 -0.5535  0.4548  0.9723
47318SOL     OW49193   8.565   6.588   2.404 -0.1248 -0.8185  0.3134
47318SOL    HW149194   8.648   6.555   2.441  1.4797  1.8828 -0.5394
47318SOL    HW249195   8.560   6.550   2.317 -0.4859 -1.9983  0.8302
47319SOL     OW49196   6.126   8.190   2.928  0.0591 -0.0506 -0.1348
47319SOL    HW149197   6.152   8.116   2.983  0.1384 -0.3757 -0.6045
47319SOL    HW249198   6.188   8.188   2.855  0.6822  1.0623  0.3300
47320SOL     OW49199  11.280   7.094  10.956  0.4398 -0.5506  0.3195
47320SOL    HW149200  11.324   7.113  11.039  0.6393  2.0201 -0.2731
47320SOL    HW249201  11.315   7.160  10.895 -0.5168 -1.6573 -1.5237
47321SOL     OW49202  12.318   1.979   9.755  0.0665  0.5445 -0.2208
47321SOL    HW149203  12.248   1.962   9.693 -1.9216 -1.9947  2.4451
47321SOL    HW249204  12.386   1.916   9.733 -0.7253 -0.5038  0.2789
47322SOL     OW49205   0.354  12.446  11.796 -0.0831  0.0362  0.2629
47322SOL    HW149206   0.268  12.470  11.831 -0.0933 -0.9773  0.9864
47322SOL    HW249207   0.368  12.357  11.828  0.5972 -0.3549 -1.0754
47323SOL     OW49208   9.483   8.947   9.557  0.4693  0.4777 -0.2933
47323SOL    HW149209   9.453   8.882   9.620 -1.6432  1.9102  0.2959
47323SOL    HW249210   9.574   8.923   9.539 -0.3345 -2.8909 -0.5064
47324SOL     OW49211   4.052   6.069   3.153 -0.5739  0.4288  0.3978
47324SOL    HW149212   4.103   6.008   3.207 -0.2683  0.9296  0.6781
47324SOL    HW249213   3.975   6.089   3.207 -0.6614  0.3118  0.3167
47325SOL     OW49214   2.621   3.407   3.620  0.5631  0.1370 -0.0047
47325SOL    HW149215   2.556   3.350   3.580  1.5209 -1.2945  0.3587
47325SOL    HW249216   2.627   3.482   3.562  1.0551 -1.3064 -1.9244
47326SOL     OW49217  10.741   3.423  12.246  0.3980 -0.8646  0.4418
47326SOL    HW149218  10.802   3.496  12.260 -0.3079  0.3747 -2.2952
47326SOL    HW249219  10.794   3.354  12.207  0.5741 -0.8903  0.7210
47327SOL     OW49220   7.227   9.599   6.337 -0.1011  0.7456 -0.4108
47327SOL    HW149221   7.145   9.639   6.309  0.0153  1.0863 -0.2619
47327SOL    HW249222   7.211   9.505   6.329 -0.7688  0.7839  0.3420
47328SOL     OW49223   7.413   9.890   3.597  0.1305 -0.4280 -0.3960
47328SOL    HW149224   7.377   9.964   3.645  1.6570 -0.4117  0.8194
47328SOL    HW249225   7.391   9.907   3.505 -2.7132 -0.3548  0.1998
47329SOL     OW49226  11.021   7.597   0.425 -0.3758  0.1576  0.4634
47329SOL    HW149227  11.110   7.566   0.441 -0.6242 -0.9365 -0.1775
47329SOL    HW249228  11.032   7.686   0.391  0.6296 -0.8408 -1.9816
47330SOL     OW49229  11.050   0.760   3.051  0.1999 -0.0051 -0.0937
47330SOL    HW149230  11.063   0.831   2.987  1.0615 -0.7464 -0.7712
47330SOL    HW249231  11.119   0.773   3.116 -0.5330  0.6115  0.5771
47331SOL     OW49232   8.060  12.120   4.616  0.1057 -0.9740  0.2316
47331SOL    HW149233   7.989  12.163   4.664  1.7658 -1.5732  3.5038
47331SOL    HW249234   8.026  12.032   4.597 -0.4345 -0.8806  0.7348
47332SOL     OW49235   3.708  12.538   0.795  0.3426  0.8109 -0.1449
47332SOL    HW149236   3.699  12.615   0.851  2.2101  0.3821  0.8277
47332SOL    HW249237   3.671  12.466   0.846  1.5329  0.5205  0.3476
47333SOL     OW49238  10.648   3.722   1.293 -0.4328 -0.2937  0.4963
47333SOL    HW149239  10.613   3.718   1.382 -1.8221  0.3848  0.0163
47333SOL    HW249240  10.621   3.640   1.252  0.2592 -0.6323  0.7124
47334SOL     OW49241  11.431   4.980   2.949 -0.0766  0.3028 -0.1212
47334SOL    HW149242  11.406   5.056   3.002  1.5433  0.7018  0.1294
47334SOL    HW249243  11.388   4.995   2.865 -0.8067  0.8396  0.3309
47335SOL     OW49244   9.161   5.310   1.887 -0.0799 -0.2105  0.4836
47335SOL    HW149245   9.224   5.382   1.882  0.3578 -0.6602 -2.6792
47335SOL    HW249246   9.169   5.277   1.977  3.2240  0.6067  0.6203
47336SOL     OW49247   1.205   7.306   0.761 -0.8776  0.1953  0.2555
47336SOL    HW149248   1.169   7.220   0.779 -1.1654 -0.1153 -1.6032
47336SOL    HW249249   1.194   7.318   0.666  1.1131  1.3626  0.1006
47337SOL     OW49250   6.823  11.207   3.746  0.3294 -0.5169  0.1928
47337SOL    HW149251   6.770  11.129   3.762  0.1841 -0.7373 -1.2642
47337SOL    HW249252   6.880  11.183   3.673  0.1883  0.7732 -0.3693
47338SOL     OW49253  10.332   8.872   7.448  0.0276 -0.5460 -0.0978
47338SOL    HW149254  10.409   8.827   7.413  0.5765  0.7595 -0.6356
47338SOL    HW249255  10.290   8.807   7.504 -1.6441 -3.2250 -4.0663
47339SOL     OW49256   1.238   3.810   6.339  0.2249  0.5390 -0.5980
47339SOL    HW149257   1.246   3.800   6.244  1.7233 -0.7035 -0.3870
47339SOL    HW249258   1.272   3.898   6.356 -1.4042  1.3558 -1.3112
47340SOL     OW49259   9.728   4.145   1.877  0.0809  0.1033  0.7763
47340SOL    HW149260   9.763   4.062   1.909  1.4262  0.3548  0.0358
47340SOL    HW249261   9.795   4.177   1.817 -0.7880  1.3403  0.4397
47341SOL     OW49262   3.406   4.305   6.425  0.1404 -0.0652  0.3275
47341SOL    HW149263   3.389   4.399   6.435  0.1067  0.0218 -0.4684
47341SOL    HW249264   3.428   4.295   6.333 -0.9099 -1.0142  0.1681
47342SOL     OW49265   0.442   6.324  11.376 -0.4639  0.2740 -0.4156
47342SOL    HW149266   0.537   6.331  11.369 -0.1398 -2.0604  0.7071
47342SOL    HW249267   0.408   6.395  11.321  1.9071  1.3226 -0.6203
47343SOL     OW49268   0.023   1.474  12.216 -0.3395  0.1150 -0.1887
47343SOL    HW149269   0.112   1.511  12.213 -0.6817  0.8689 -2.2495
47343SOL    HW249270   0.001   1.457  12.125 -3.1527  2.0078  0.0332
47344SOL     OW49271  10.014   7.775  10.235 -0.2045  0.5511 -0.2474
47344SOL    HW149272   9.943   7.802  10.293  0.0874  2.5030 -0.7081
47344SOL    HW249273   9.969   7.737  10.159 -0.6047 -1.3634  0.8887
47345SOL     OW49274   0.784   7.873   6.168  0.0716  0.5422 -0.1571
47345SOL    HW149275   0.788   7.782   6.196  1.0044  0.7282  0.3576
47345SOL    HW249276   0.708   7.909   6.213  1.0182  0.6014  1.4848
47346SOL     OW49277  11.557   9.812   4.558  0.1123 -0.0332 -0.4499
47346SOL    HW149278  11.594   9.750   4.620  0.5335  0.8166  0.1739
47346SOL    HW249279  11.507   9.873   4.613 -0.5906 -0.0214 -1.0825
47347SOL     OW49280   7.392   4.736   1.488  0.5122  0.1006 -0.0394
47347SOL    HW149281   7.430   4.715   1.402  2.7495  0.1869  0.8687
47347SOL    HW249282   7.403   4.656   1.539 -1.3700 -0.1556  0.0501
47348SOL     OW49283   9.786   3.480  11.469 -0.0367  0.1809 -0.1778
47348SOL    HW149284   9.748   3.552  11.519  1.2693 -0.4052  1.7980
47348SOL    HW249285   9.856   3.521  11.418 -0.9617  0.6929 -1.0517
47349SOL     OW49286   5.944   5.857  11.259  0.4418 -0.6816 -0.6305
47349SOL    HW149287   5.989   5.776  11.233 -0.2761 -1.1458 -0.4437
47349SOL    HW249288   5.945   5.911  11.179  0.8937 -0.8836 -0.7666
47350SOL     OW49289   7.494   2.769   0.979 -0.5573  0.0226 -0.2504
47350SOL    HW149290   7.536   2.843   0.935  0.6862 -0.4039  0.1789
47350SOL    HW249291   7.408   2.762   0.937 -0.0371  0.6406 -1.4733
47351SOL     OW49292  10.631   0.606  10.395  0.4566 -0.1422  0.1192
47351SOL    HW149293  10.667   0.642  10.477 -1.6873 -1.0998  1.5445
47351SOL    HW249294  10.557   0.663  10.374 -0.3098 -1.1476  0.0244
47352SOL     OW49295   3.531  12.371   5.284  0.2204  0.3450  0.1501
47352SOL    HW149296   3.597  12.342   5.222 -0.2409  1.0831 -0.7097
47352SOL    HW249297   3.475  12.431   5.234 -0.5742  0.4202  1.0884
47353SOL     OW49298   8.147   7.639   3.145 -0.5101 -0.0797  0.2717
47353SOL    HW149299   8.236   7.603   3.134  0.0243  1.3992 -0.4804
47353SOL    HW249300   8.104   7.578   3.205  0.6547 -1.4463 -0.2253
47354SOL     OW49301   0.928   3.645  12.528 -0.6575 -0.1194 -0.1832
47354SOL    HW149302   0.890   3.669  12.612 -2.0074 -1.3282 -0.4086
47354SOL    HW249303   0.867   3.580  12.492  0.1827 -0.0396 -1.8365
47355SOL     OW49304   5.346  11.993   4.113 -0.1905  0.7813  0.0287
47355SOL    HW149305   5.300  12.032   4.187  0.1427  0.7546  0.2524
47355SOL    HW249306   5.334  11.899   4.124  1.1893  0.6770  0.9497
47356SOL     OW49307  10.122   5.767   7.462  0.1587  0.1607  0.1641
47356SOL    HW149308  10.110   5.809   7.377 -0.5898 -0.1181  0.1307
47356SOL    HW249309  10.204   5.805   7.495  0.2657  0.5460 -0.5109
47357SOL     OW49310  11.986   0.712   4.466 -0.1284 -0.4104  0.2175
47357SOL    HW149311  11.973   0.767   4.388 -1.8287 -0.4069  0.4607
47357SOL    HW249312  11.945   0.629   4.443  1.1630 -1.1198  0.3849
47358SOL     OW49313   9.124   5.096   6.676  0.0788 -0.4156 -0.1618
47358SOL    HW149314   9.116   5.184   6.639  2.8401 -0.3045 -0.6926
47358SOL    HW249315   9.086   5.038   6.609  0.9262  0.1501 -1.1452
47359SOL     OW49316   0.682   9.692   7.153  0.3730 -0.3587  0.6801
47359SOL    HW149317   0.688   9.759   7.085  0.2846 -0.2605  0.7675
47359SOL    HW249318   0.667   9.741   7.234  0.7251 -0.4600  0.8077
47360SOL     OW49319  10.330   4.750   1.664 -0.0810 -0.1511 -0.2243
47360SOL    HW149320  10.248   4.723   1.620  0.2653 -3.2590  0.7768
47360SOL    HW249321  10.382   4.670   1.666  2.6995  1.5628 -0.0800
47361SOL     OW49322   3.996   4.762   9.096 -0.2881 -0.1845 -0.7558
47361SOL    HW149323   3.965   4.756   9.186 -1.7021  0.0606 -1.2007
47361SOL    HW249324   4.041   4.679   9.080 -0.6225 -0.5107 -0.0443
47362SOL     OW49325   8.252   2.884   5.544 -0.0152 -0.3031  0.1480
47362SOL    HW149326   8.229   2.820   5.611 -0.7843  0.4031  0.5876
47362SOL    HW249327   8.176   2.943   5.541  0.5306  0.3870 -0.4687
47363SOL     OW49328   6.106   8.271   0.843  0.8150  0.3305 -0.5282
47363SOL    HW149329   6.018   8.296   0.872 -0.2202 -3.5058  0.1443
47363SOL    HW249330   6.092   8.199   0.782  3.5013 -0.6892 -0.0789
47364SOL     OW49331  10.547  11.077  10.731 -0.2957 -0.2153  0.7366
47364SOL    HW149332  10.543  11.058  10.637 -0.4827 -1.6056  1.0060
47364SOL    HW249333  10.460  11.112  10.752 -0.4404 -0.4253  0.4951
47365SOL     OW49334   4.160   6.488   4.731 -0.0678 -0.3271  0.1707
47365SOL    HW149335   4.120   6.401   4.737  1.3528 -1.0031  0.3749
47365SOL    HW249336   4.088   6.547   4.712 -1.2883 -1.3624  1.3971
47366SOL     OW49337  12.534   8.690   1.572 -0.2451  0.1469 -0.1601
47366SOL    HW149338  12.565   8.618   1.627 -3.2706 -0.1356  1.3718
47366SOL    HW249339  12.525   8.764   1.633 -1.4939  0.4938 -0.7506
47367SOL     OW49340  10.351   3.117   8.834 -0.1412  0.5755 -0.7218
47367SOL    HW149341  10.358   3.090   8.926 -2.7453  0.8694 -0.3609
47367SOL    HW249342  10.421   3.069   8.790  1.5335  0.8542  1.4690
47368SOL     OW49343   0.472   3.115   3.738  0.4024  0.4592  0.2846
47368SOL    HW149344   0.449   3.053   3.808 -2.1552  0.6123 -0.3455
47368SOL    HW249345   0.486   3.198   3.783 -3.6812  1.1865  0.5871
47369SOL     OW49346   7.362   3.802   0.557 -0.6429 -0.0412 -0.3347
47369SOL    HW149347   7.413   3.798   0.638  0.3437  0.5156 -0.9230
47369SOL    HW249348   7.411   3.860   0.500 -2.7070  1.7682 -0.3847
47370SOL     OW49349   1.479   3.278   4.042  0.1800 -0.1096  0.1938
47370SOL    HW149350   1.569   3.249   4.028 -0.4527 -3.8198  2.5663
47370SOL    HW249351   1.486   3.342   4.113  0.9564 -0.1217  0.1429
47371SOL     OW49352   3.699   0.399   9.475 -0.5477  0.5017  0.3184
47371SOL    HW149353   3.672   0.479   9.430 -2.4058  0.8992  1.9923
47371SOL    HW249354   3.621   0.370   9.522  0.9772 -0.4242  2.4399
47372SOL     OW49355   4.442   9.365   0.621 -0.4822  0.4118  0.5820
47372SOL    HW149356   4.363   9.413   0.596 -1.0191 -1.6544 -2.1324
47372SOL    HW249357   4.425   9.335   0.710 -2.6269  0.3443  0.2051
47373SOL     OW49358   3.391   4.071   7.844  0.4811  0.6528 -0.2073
47373SOL    HW149359   3.301   4.049   7.866 -0.6095  2.1545 -2.7083
47373SOL    HW249360   3.418   4.134   7.911  0.7243 -1.7587  2.1180
47374SOL     OW49361   2.607  10.508   9.591 -0.5903 -0.0944  0.3363
47374SOL    HW149362   2.565  10.594   9.592  0.6135  0.5341 -0.5313
47374SOL    HW249363   2.534  10.446   9.586 -1.4437  0.9310 -0.4520
47375SOL     OW49364   4.482   9.470  10.258  0.2646 -0.3969  0.0109
47375SOL    HW149365   4.468   9.542  10.319  1.6909 -1.7488  2.0665
47375SOL    HW249366   4.570   9.486  10.222  0.7415 -1.2515  0.7550
47376SOL     OW49367  12.601   0.455  11.524  0.0009  0.4730  0.9308
47376SOL    HW149368  12.558   0.370  11.531  0.2914  0.3536  1.2510
47376SOL    HW249369  12.546   0.504  11.462  0.4325 -0.3187 -0.1151
47377SOL     OW49370   6.127   6.327   3.721  0.0034 -0.1089 -0.1306
47377SOL    HW149371   6.142   6.407   3.670  0.9565 -0.4283 -0.3602
47377SOL    HW249372   6.041   6.341   3.761 -0.6932  0.2208 -1.6677
47378SOL     OW49373   9.657   7.394   8.598 -0.3346 -0.4112 -0.0143
47378SOL    HW149374   9.624   7.333   8.532 -0.6916  0.2716 -0.4855
47378SOL    HW249375   9.751   7.398   8.582 -0.4774  0.1161 -0.8268
47379SOL     OW49376   2.057  12.519  10.882  0.3032 -0.9543 -0.0751
47379SOL    HW149377   2.097  12.561  10.958  0.7526  0.4209 -1.0201
47379SOL    HW249378   2.116  12.446  10.861  1.4964  0.0911 -0.4988
47380SOL     OW49379   8.087   9.810   5.071 -0.1085  0.1684  0.8011
47380SOL    HW149380   8.059   9.720   5.084  0.5646 -0.1939 -0.1215
47380SOL    HW249381   8.173   9.802   5.029  0.5468  1.2343  1.8624
47381SOL     OW49382  10.692  12.054   9.521  0.5057  0.2932  0.2567
47381SOL    HW149383  10.613  12.038   9.470  0.2458  1.0540  0.4074
47381SOL    HW249384  10.749  12.105   9.463  0.6796  0.1775  0.3255
47382SOL     OW49385   9.203   9.126   9.610  0.3332 -0.2864  0.0753
47382SOL    HW149386   9.279   9.070   9.620 -1.3530 -2.6865  0.3150
47382SOL    HW249387   9.156   9.120   9.693  0.4688  2.2069  0.4267
47383SOL     OW49388  11.148   2.401  10.208  0.4401 -0.4370 -0.1799
47383SOL    HW149389  11.211   2.436  10.145  1.6806  0.6798  1.5895
47383SOL    HW249390  11.073   2.460  10.202  1.3114  0.8022  0.6603
47384SOL     OW49391  11.243   0.712   7.893 -0.1903 -0.3538 -0.0604
47384SOL    HW149392  11.249   0.795   7.844  0.7269 -0.8589 -0.8467
47384SOL    HW249393  11.247   0.644   7.826  2.4595 -1.1132  0.7207
47385SOL     OW49394   1.773   3.022   3.157 -0.2441  0.0781  0.8752
47385SOL    HW149395   1.791   2.951   3.218  1.1938 -1.6921 -1.4336
47385SOL    HW249396   1.711   2.985   3.094  0.1472  1.0289 -0.1051
47386SOL     OW49397   6.604   2.811   3.941  0.1164  0.3391 -0.4748
47386SOL    HW149398   6.627   2.721   3.917 -0.3903 -0.6330  2.2482
47386SOL    HW249399   6.672   2.837   4.003 -0.6317  1.2009  0.0051
47387SOL     OW49400   4.598   8.909   5.659  0.4948 -0.0312 -0.4750
47387SOL    HW149401   4.635   8.838   5.713  0.1887 -0.7024 -1.1324
47387SOL    HW249402   4.589   8.982   5.720  1.7884 -0.2171 -0.0090
47388SOL     OW49403   1.071  10.291  11.769  0.0144  0.1235  0.4745
47388SOL    HW149404   1.097  10.199  11.757 -0.5595  0.1767 -1.4740
47388SOL    HW249405   1.042  10.296  11.860  0.9079 -1.4072  0.8804
47389SOL     OW49406   7.692   7.677   3.765  0.3697  0.1145  0.1587
47389SOL    HW149407   7.724   7.720   3.844  1.6776  1.2570 -0.9419
47389SOL    HW249408   7.659   7.749   3.710 -2.7302 -0.8349  0.5471
47390SOL     OW49409   1.441   5.786   1.862  0.5644  0.6722 -0.0959
47390SOL    HW149410   1.373   5.791   1.929 -0.2012  1.6085 -0.9037
47390SOL    HW249411   1.517   5.827   1.903  0.5942 -0.1868  0.7412
47391SOL     OW49412   2.629   2.207  11.210 -0.1976 -0.3719  0.2658
47391SOL    HW149413   2.682   2.255  11.146 -0.0433  1.8269  1.9269
47391SOL    HW249414   2.635   2.115  11.183  0.0179  0.4167 -2.7147
47392SOL     OW49415  12.240   0.824   1.866 -0.3595 -0.1988 -0.6467
47392SOL    HW149416  12.219   0.917   1.853  0.0611  0.1398  0.8768
47392SOL    HW249417  12.262   0.818   1.959 -1.5225 -2.0530 -0.4484
47393SOL     OW49418   0.453   2.300   2.909  0.5995 -0.2109 -0.4591
47393SOL    HW149419   0.475   2.335   2.822  2.1736  1.2826  0.4735
47393SOL    HW249420   0.537   2.297   2.955 -0.3881  0.2858  1.4387
47394SOL     OW49421   1.649  12.240   4.698  0.4231  0.2449 -0.5687
47394SOL    HW149422   1.725  12.194   4.661  0.7959  1.0519 -0.8280
47394SOL    HW249423   1.674  12.258   4.788  0.0570 -0.5330 -0.3071
47395SOL     OW49424   1.299   0.659   2.141 -0.2220 -0.0769 -0.3418
47395SOL    HW149425   1.218   0.614   2.166  0.5663 -1.1342  0.3794
47395SOL    HW249426   1.295   0.742   2.187  0.4237 -1.3037  2.0844
47396SOL     OW49427  11.288  11.768  12.545  0.4934  0.4568  0.0415
47396SOL    HW149428  11.341  11.690  12.530 -0.2436 -0.0386 -0.0563
47396SOL    HW249429  11.318  11.830  12.479  0.7297  0.0664 -0.2242
47397SOL     OW49430   3.604   5.669   8.395  0.7961  0.2033  0.0883
47397SOL    HW149431   3.585   5.732   8.465  0.9769 -1.8902  2.1552
47397SOL    HW249432   3.700   5.665   8.393  0.7887  0.2421 -0.2692
47398SOL     OW49433   1.977   3.959   3.527  0.3913  0.3151  0.9086
47398SOL    HW149434   1.891   3.918   3.525  1.5774 -2.3261  0.3333
47398SOL    HW249435   1.972   4.029   3.462 -1.9085  1.6628  2.3915
47399SOL     OW49436  12.421   9.129   5.745 -0.2172 -0.1238 -0.9203
47399SOL    HW149437  12.463   9.100   5.664  2.2331  1.3215 -0.2597
47399SOL    HW249438  12.398   9.220   5.729  1.5749  0.6119  0.4300
47400SOL     OW49439  11.042   9.868   5.570  0.1506 -0.5166 -0.0935
47400SOL    HW149440  11.089   9.788   5.552  1.3365 -0.2671  1.6550
47400SOL    HW249441  10.952   9.840   5.587  0.4870 -1.4393  0.2083
47401SOL     OW49442   0.590   0.670   0.284  0.1218 -0.7273  0.1805
47401SOL    HW149443   0.637   0.689   0.365 -0.3878 -1.1785  0.5848
47401SOL    HW249444   0.621   0.584   0.257 -2.7425 -2.5689  2.1791
47402SOL     OW49445   2.199  10.621   3.660  0.3601 -0.0322 -0.0706
47402SOL    HW149446   2.161  10.641   3.575 -1.8523  0.1588  0.8907
47402SOL    HW249447   2.293  10.611   3.643  0.0014  0.1506 -2.4711
47403SOL     OW49448   5.839   9.307  12.649 -0.3337  0.1909  0.9775
47403SOL    HW149449   5.846   9.228  12.702 -1.0054  0.0925  0.9264
47403SOL    HW249450   5.895   9.370  12.693  0.8583 -0.5467  0.5711
47404SOL     OW49451   4.547  10.124   6.223 -0.0913 -0.1424 -0.2504
47404SOL    HW149452   4.568  10.214   6.201  1.2950 -0.2022  0.7373
47404SOL    HW249453   4.515  10.127   6.313 -1.0449 -0.5197 -0.5594
47405SOL     OW49454  11.767   9.666   9.485 -0.0052 -0.4646  0.5335
47405SOL    HW149455  11.701   9.599   9.467  0.2666 -0.8526  0.9763
47405SOL    HW249456  11.717   9.740   9.520 -0.4473  0.0079 -1.0217
47406SOL     OW49457   2.290   5.372   5.493  0.0288 -0.3181  0.0852
47406SOL    HW149458   2.359   5.346   5.432 -0.3745 -0.3534 -0.3593
47406SOL    HW249459   2.337   5.403   5.570  0.6123  1.8191 -1.0424
47407SOL     OW49460   5.992  11.883   0.913  0.3887 -0.2874 -0.0259
47407SOL    HW149461   5.896  11.880   0.911  0.3999 -0.7761  0.0768
47407SOL    HW249462   6.015  11.941   0.841  0.0308 -0.6131 -0.4137
47408SOL     OW49463   6.057   0.472   3.930 -0.4538 -0.0697 -0.0511
47408SOL    HW149464   5.972   0.435   3.950 -0.6448 -0.3131 -1.2617
47408SOL    HW249465   6.057   0.558   3.974 -1.5138  0.1498 -0.4640
47409SOL     OW49466   5.715   1.012   8.726  0.3801 -0.0301  0.7396
47409SOL    HW149467   5.796   1.041   8.767 -0.2693  0.1356  1.9278
47409SOL    HW249468   5.685   0.938   8.779  0.0913 -0.5217 -0.0825
47410SOL     OW49469   7.320   0.004   9.124  0.2115 -0.0772 -0.2796
47410SOL    HW149470   7.339   0.046   9.040 -1.0225  0.1666 -0.4567
47410SOL    HW249471   7.276   0.073   9.175  1.1328 -0.1594  0.6478
47411SOL     OW49472   4.132  12.117   0.849  0.3837  0.1368  0.1226
47411SOL    HW149473   4.102  12.043   0.902  0.6183  0.8932  1.3536
47411SOL    HW249474   4.153  12.185   0.913 -1.6875  1.9851 -1.0116
47412SOL     OW49475   8.923   1.698  11.537  0.3545 -0.1847 -0.3940
47412SOL    HW149476   8.993   1.635  11.557  0.4399 -0.1523 -0.5883
47412SOL    HW249477   8.852   1.644  11.503 -0.5943 -0.5020  1.9077
47413SOL     OW49478   4.229  12.112   0.022 -0.0739  0.0384  0.1487
47413SOL    HW149479   4.172  12.092   0.097 -0.9135 -1.7471 -0.9306
47413SOL    HW249480   4.314  12.077   0.047 -0.4316 -0.8525  0.1647
47414SOL     OW49481   3.968   5.239   1.394  0.1456 -0.0835  0.0595
47414SOL    HW149482   3.907   5.312   1.398 -0.3987 -0.5829  1.2314
47414SOL    HW249483   4.040   5.265   1.451  0.0740 -0.3555  0.2731
47415SOL     OW49484  11.432   7.220   4.498  0.9825  0.0525 -0.6969
47415SOL    HW149485  11.442   7.131   4.532  2.3225  0.2516 -0.5046
47415SOL    HW249486  11.490   7.223   4.422  1.8808  1.0985  0.0084
47416SOL     OW49487   1.850   9.053   4.810 -0.0955  0.5265  0.7737
47416SOL    HW149488   1.841   9.037   4.904  1.9713 -1.4710  0.7303
47416SOL    HW249489   1.813   8.974   4.769 -0.2000  0.9941 -0.0509
47417SOL     OW49490  10.625   5.286   4.048  1.1180  0.2140  0.3613
47417SOL    HW149491  10.533   5.276   4.027  1.0097  2.1137 -0.3202
47417SOL    HW249492  10.672   5.255   3.970  0.9559  1.1241 -0.1131
47418SOL     OW49493  12.641   4.966   8.410  0.1976  0.3777 -0.0681
47418SOL    HW149494  12.695   5.029   8.361  2.7444 -1.1013  0.6314
47418SOL    HW249495  12.594   5.020   8.473  2.2379  1.6719  0.4636
47419SOL     OW49496   6.125   2.911   7.747 -0.3272 -0.1863  0.1806
47419SOL    HW149497   6.160   2.971   7.814  1.0796  0.8367 -1.3913
47419SOL    HW249498   6.146   2.953   7.664 -1.5915 -1.6650 -0.9479
47420SOL     OW49499  11.381   3.562  10.364  0.0858 -0.2369 -0.3343
47420SOL    HW149500  11.342   3.629  10.419 -0.4496 -0.5099 -0.3760
47420SOL    HW249501  11.348   3.580  10.276 -1.1966 -1.3787 -0.1174
47421SOL     OW49502   1.795   5.938   1.522  0.1611  0.1957 -0.6651
47421SOL    HW149503   1.758   5.936   1.434  1.1688 -2.2695 -1.1174
47421SOL    HW249504   1.742   5.876   1.572  1.2805 -0.5031 -0.3043
47422SOL     OW49505   4.248   2.351   2.960  0.0362 -0.2840 -0.3900
47422SOL    HW149506   4.317   2.416   2.943  0.5122 -0.5933  0.3302
47422SOL    HW249507   4.213   2.375   3.046 -1.8178  0.7880 -1.3614
47423SOL     OW49508   9.260   0.257   6.218 -0.0613 -0.3580  0.0532
47423SOL    HW149509   9.194   0.320   6.188 -0.0590  0.8664  2.3998
47423SOL    HW249510   9.334   0.311   6.244  0.2852 -1.3832  1.2935
47424SOL     OW49511   8.480   4.511   1.913 -0.4347  0.0633 -0.0610
47424SOL    HW149512   8.430   4.484   1.990 -1.4102 -0.7674 -0.9482
47424SOL    HW249513   8.536   4.435   1.893 -1.6077 -0.5174 -1.2924
47425SOL     OW49514   3.976   6.638  10.649 -0.2747  0.2435  0.2457
47425SOL    HW149515   3.938   6.702  10.589 -2.3209 -0.6242  0.5398
47425SOL    HW249516   3.905   6.616  10.710  0.2890 -2.3619  0.0988
47426SOL     OW49517   4.286   2.389   9.921  0.2171  0.3873  0.3207
47426SOL    HW149518   4.332   2.337   9.988  1.5165 -0.7679 -1.3865
47426SOL    HW249519   4.321   2.357   9.838 -2.9816  0.1788 -1.0749
47427SOL     OW49520  11.830   8.822   0.590 -0.0709  0.4169  0.0493
47427SOL    HW149521  11.902   8.885   0.582 -0.1681  0.3707 -1.4372
47427SOL    HW249522  11.782   8.850   0.668  0.1466  1.9332 -0.3310
47428SOL     OW49523   2.792   2.364   7.699 -0.1277  0.7026 -0.8188
47428SOL    HW149524   2.849   2.402   7.631  0.4619  0.6552 -0.3656
47428SOL    HW249525   2.828   2.398   7.781 -1.2283  1.2848 -0.5538
47429SOL     OW49526   0.959   0.646  12.020  0.1432  0.8738  0.3183
47429SOL    HW149527   0.935   0.713  12.084 -1.1786  0.3228  0.4222
47429SOL    HW249528   0.942   0.687  11.935  1.6454  1.5099  0.2966
47430SOL     OW49529   0.337  11.597   6.998 -0.2022  0.6662 -0.1553
47430SOL    HW149530   0.278  11.615   6.925 -1.7193  0.0075  0.8682
47430SOL    HW249531   0.425  11.603   6.960 -0.9115  1.5948 -1.7348
47431SOL     OW49532   1.073   6.844   1.903 -0.4580 -0.1515 -0.5151
47431SOL    HW149533   1.161   6.812   1.881  0.0155  0.2948  0.6770
47431SOL    HW249534   1.017   6.767   1.895  0.5212 -1.1260  1.4538
47432SOL     OW49535   6.861   7.275   0.145 -0.2387 -0.2575 -0.1024
47432SOL    HW149536   6.906   7.215   0.085 -0.7166 -0.0857 -0.6526
47432SOL    HW249537   6.811   7.333   0.087  0.1280  0.6045  0.4276
47433SOL     OW49538   8.552   1.770   0.297  0.0553 -0.2671  0.5024
47433SOL    HW149539   8.529   1.678   0.283 -1.5987  0.1714  0.0985
47433SOL    HW249540   8.500   1.797   0.372 -1.7885  1.0747 -1.1448
47434SOL     OW49541  10.966   7.022   6.985  0.4651 -0.2861  0.1301
47434SOL    HW149542  11.031   6.953   6.970 -0.5520 -1.6799  1.8421
47434SOL    HW249543  11.012   7.103   6.962  1.4248 -1.5153 -2.7802
47435SOL     OW49544   3.757   3.031   6.453  0.9337 -0.7850  0.1918
47435SOL    HW149545   3.690   3.094   6.479  1.7793  0.4417 -0.4581
47435SOL    HW249546   3.840   3.074   6.476  1.5256 -1.8326  0.0671
47436SOL     OW49547   2.314   8.442   9.149  0.5437 -0.6035 -0.2135
47436SOL    HW149548   2.345   8.522   9.191 -1.7036  1.3839 -2.0312
47436SOL    HW249549   2.390   8.409   9.102  1.2272  1.2623 -0.5244
47437SOL     OW49550   8.365   2.527   9.618 -0.3248  0.4702 -0.3566
47437SOL    HW149551   8.331   2.498   9.703 -0.0839  0.6982 -0.1822
47437SOL    HW249552   8.407   2.611   9.636 -1.7044  1.3419 -1.0001
47438SOL     OW49553   1.735  10.973   9.699  0.2122 -0.6206 -0.1945
47438SOL    HW149554   1.673  11.023   9.753  0.7911  0.6062 -0.6192
47438SOL    HW249555   1.788  10.925   9.763  1.4786  1.5018  0.4674
47439SOL     OW49556  10.722   7.773   6.544 -0.3824 -0.0981 -0.0569
47439SOL    HW149557  10.742   7.735   6.629 -0.4072 -1.9695 -0.8407
47439SOL    HW249558  10.728   7.867   6.557 -0.2929 -0.3590  1.9781
47440SOL     OW49559   5.706   5.299   5.284  0.0870  0.3763 -0.1406
47440SOL    HW149560   5.740   5.333   5.366  0.4511  1.0159 -0.5452
47440SOL    HW249561   5.768   5.329   5.218 -0.5075  0.3669 -0.7199
47441SOL     OW49562   4.687   0.663   9.793  0.3358  0.1348 -0.2111
47441SOL    HW149563   4.710   0.703   9.709 -1.9122  0.7807 -0.6028
47441SOL    HW249564   4.708   0.730   9.858 -0.7199  0.8665 -0.5898
47442SOL     OW49565   7.315   5.921   6.308  0.6042  0.2770  0.2122
47442SOL    HW149566   7.380   5.977   6.265  1.8282 -1.1364  0.1195
47442SOL    HW249567   7.237   5.975   6.314  1.8439  2.1303  0.5195
47443SOL     OW49568   0.446   5.974   1.790 -0.5851 -0.0396 -0.2467
47443SOL    HW149569   0.485   5.912   1.729  2.0621  4.0545 -3.3045
47443SOL    HW249570   0.514   5.990   1.856 -1.4533 -0.6863  0.8462
47444SOL     OW49571   8.147   0.314   6.785  0.5024  0.2039  0.1374
47444SOL    HW149572   8.090   0.391   6.791  3.4824  2.7306 -0.5798
47444SOL    HW249573   8.201   0.318   6.864  1.7125 -0.2209 -0.6398
47445SOL     OW49574   8.314   4.874   8.198  0.0186  0.2269 -0.0824
47445SOL    HW149575   8.239   4.899   8.143  0.5811  0.8558 -0.5678
47445SOL    HW249576   8.318   4.941   8.266 -0.1373 -0.0693  0.2254
47446SOL     OW49577   0.954   2.489   7.014  0.1821  0.0821  1.0683
47446SOL    HW149578   0.979   2.464   6.925  0.5257 -0.5025  1.3172
47446SOL    HW249579   0.892   2.421   7.041 -0.0103  0.3218  1.2299
47447SOL     OW49580  10.892  11.874   3.047 -0.2251 -0.4741  0.1209
47447SOL    HW149581  10.910  11.782   3.030 -0.6615 -0.2859 -1.5161
47447SOL    HW249582  10.820  11.874   3.109 -0.7684 -1.2526 -0.4933
47448SOL     OW49583   9.347   9.885   8.384 -0.1951  0.3494 -0.0073
47448SOL    HW149584   9.391   9.894   8.468 -2.6008 -1.1659  1.5479
47448SOL    HW249585   9.272   9.945   8.390 -0.6646 -0.1308 -0.8619
47449SOL     OW49586  10.681   8.384   0.721  0.1837  0.0722  0.0648
47449SOL    HW149587  10.608   8.363   0.664 -0.5500 -0.6711  1.2385
47449SOL    HW249588  10.753   8.329   0.690 -0.5775 -1.2737  0.6369
47450SOL     OW49589   9.964   5.998  10.652  0.0351 -0.9286 -0.2813
47450SOL    HW149590   9.904   5.941  10.602  1.8531 -1.2191 -2.2697
47450SOL    HW249591  10.013   6.045  10.585  1.2345  0.1697  1.3129
47451SOL     OW49592   6.272   0.284   8.167 -0.7273 -0.5251 -0.5306
47451SOL    HW149593   6.198   0.315   8.113 -1.2112 -0.7549 -0.0096
47451SOL    HW249594   6.231   0.244   8.243 -0.0689  2.4396  1.5428
47452SOL     OW49595   8.293   7.605   9.196  0.2701  0.6610  0.1012
47452SOL    HW149596   8.234   7.655   9.140 -2.5115 -2.1154  0.2402
47452SOL    HW249597   8.339   7.546   9.136 -0.1296  0.0677  0.3665
47453SOL     OW49598   0.986   5.614   3.405 -1.0034 -0.0939  0.0501
47453SOL    HW149599   1.042   5.664   3.464 -0.5165 -0.8393  0.2336
47453SOL    HW249600   0.913   5.673   3.385 -0.4480  0.6758  0.2633
47454SOL     OW49601   5.658   5.712   8.751 -0.3608  0.4941 -0.6915
47454SOL    HW149602   5.575   5.710   8.704  0.3326 -0.3497 -1.9596
47454SOL    HW249603   5.693   5.623   8.740  1.3875  1.2441 -1.4984
47455SOL     OW49604   7.870  11.892   3.592  0.3240  0.4303  0.4107
47455SOL    HW149605   7.791  11.947   3.598  1.1483  1.6156  0.7562
47455SOL    HW249606   7.922  11.918   3.668  1.2338 -0.0532 -0.0395
47456SOL     OW49607  12.276   8.092   2.670  0.0731  0.0430 -0.4249
47456SOL    HW149608  12.278   8.002   2.703 -2.1146 -0.3607 -1.2511
47456SOL    HW249609  12.189   8.125   2.695  0.1219  1.2792 -1.7697
47457SOL     OW49610   1.385   8.510   9.555  0.4626  0.4447 -0.6031
47457SOL    HW149611   1.331   8.588   9.571 -1.2208 -0.9524  1.1116
47457SOL    HW249612   1.325   8.448   9.514  0.9110 -0.9207  0.7061
47458SOL     OW49613   5.201   0.738  10.919 -0.2640 -0.0053 -0.3012
47458SOL    HW149614   5.273   0.677  10.906  1.9188  2.3527 -0.1308
47458SOL    HW249615   5.167   0.718  11.006 -0.3566 -1.6448 -0.6900
47459SOL     OW49616   5.180   8.603   6.563  0.9219 -0.0139 -0.0045
47459SOL    HW149617   5.220   8.595   6.650  0.5119 -0.0557  0.1809
47459SOL    HW249618   5.086   8.600   6.579  0.7983  1.3729 -0.3007
47460SOL     OW49619   4.783   1.415   0.579 -0.4501 -0.0776  0.2943
47460SOL    HW149620   4.827   1.498   0.562 -0.6569  0.0026  0.1560
47460SOL    HW249621   4.853   1.358   0.612 -0.3109  0.1532  0.4041
47461SOL     OW49622   6.860  10.931   0.196  0.0494  0.1290  0.2661
47461SOL    HW149623   6.776  10.931   0.243  0.5647  0.2600  1.2005
47461SOL    HW249624   6.923  10.897   0.259  0.4242 -1.5979 -0.9625
47462SOL     OW49625  10.976   2.488   0.487  0.0080 -0.2858  0.0211
47462SOL    HW149626  10.891   2.469   0.447  0.0193 -0.5488  0.1255
47462SOL    HW249627  10.966   2.577   0.521 -0.3703 -0.4759  0.4212
47463SOL     OW49628   5.340   7.663   3.448 -0.0724  0.0357 -0.1778
47463SOL    HW149629   5.382   7.631   3.368 -0.6880  0.6671 -0.7589
47463SOL    HW249630   5.394   7.627   3.519  0.0223 -1.1905 -0.8450
47464SOL     OW49631   7.684   6.214   6.015  0.0472  0.0553  0.2174
47464SOL    HW149632   7.776   6.221   6.040  0.0045  2.2850 -0.0249
47464SOL    HW249633   7.670   6.288   5.956 -1.3766 -1.5144 -1.5396
47465SOL     OW49634   0.182  12.695   4.381  0.2271 -0.4852  0.0954
47465SOL    HW149635   0.184  12.639   4.303  1.3477 -0.1089 -0.1737
47465SOL    HW249636   0.217  12.779   4.350  0.1399 -0.1556  0.8753
47466SOL     OW49637   4.850   9.647   0.425  0.2404  0.3458 -0.0149
47466SOL    HW149638   4.890   9.722   0.470 -0.4279  0.1686  0.9178
47466SOL    HW249639   4.804   9.599   0.495  2.5382 -2.2396 -0.1174
47467SOL     OW49640   6.039  11.330   3.024  0.2593 -0.1512 -0.3766
47467SOL    HW149641   6.123  11.301   3.060  1.0455  1.1115 -1.1266
47467SOL    HW249642   6.041  11.426   3.032 -2.0485 -0.1658  1.5997
47468SOL     OW49643   1.473   4.524   0.415  0.2369 -0.1579  0.4032
47468SOL    HW149644   1.518   4.604   0.387  1.7956 -1.0092  0.3802
47468SOL    HW249645   1.440   4.544   0.502 -0.0897  0.7716  0.0795
47469SOL     OW49646   8.318   9.083   5.433  0.3395 -0.0257 -0.0485
47469SOL    HW149647   8.267   9.138   5.493 -1.3232 -1.6996  0.1577
47469SOL    HW249648   8.294   9.114   5.345 -0.6255 -0.4390  0.0647
47470SOL     OW49649   1.468   8.966   8.311  0.6597  0.1799  0.6278
47470SOL    HW149650   1.545   9.022   8.325  0.6347 -0.1126  2.1345
47470SOL    HW249651   1.405   8.994   8.378 -0.4142  0.1552 -0.3426
47471SOL     OW49652   3.562   2.818   5.488  0.1917  0.1653  0.1524
47471SOL    HW149653   3.538   2.774   5.570 -0.2498 -1.9966 -1.0650
47471SOL    HW249654   3.516   2.901   5.491  1.4956  0.8993  2.8184
47472SOL     OW49655   5.816   8.640  11.869 -0.2851 -0.0473  0.5225
47472SOL    HW149656   5.816   8.688  11.787  1.3561  0.7295  0.9307
47472SOL    HW249657   5.876   8.567  11.854  3.1377  2.1704  2.0482
47473SOL     OW49658  11.375   3.940   1.913  0.1321 -0.6835  0.4258
47473SOL    HW149659  11.385   4.008   1.980  0.8548 -0.3112 -0.0585
47473SOL    HW249660  11.284   3.912   1.923 -0.2343  0.4584  0.5396
47474SOL     OW49661   1.868   9.224  10.988  0.2083 -0.0117 -0.3030
47474SOL    HW149662   1.902   9.160  11.051  1.9085 -0.0990 -1.2473
47474SOL    HW249663   1.904   9.308  11.017  1.6574 -0.1639 -1.5435
47475SOL     OW49664  10.210   1.244   5.700 -0.1194 -0.1434 -0.2818
47475SOL    HW149665  10.182   1.327   5.663 -0.2834  0.9008  2.0253
47475SOL    HW249666  10.303   1.257   5.722  0.1989 -1.0213 -1.0075
47476SOL     OW49667   2.549   5.768   7.367 -0.9721 -0.1751 -0.0169
47476SOL    HW149668   2.565   5.784   7.460  0.2267 -0.1578 -0.2049
47476SOL    HW249669   2.540   5.856   7.329 -0.7528 -0.1569 -0.0282
47477SOL     OW49670   9.987   7.008   8.958 -0.0053 -0.3944 -0.1896
47477SOL    HW149671   9.945   7.071   9.016 -0.3064 -0.2006 -0.6179
47477SOL    HW249672   9.986   7.049   8.872  0.8884 -0.4648 -0.2489
47478SOL     OW49673   8.919   1.202   0.652 -0.0851 -0.2904 -0.2650
47478SOL    HW149674   8.992   1.239   0.602 -0.8740 -0.4129 -1.5582
47478SOL    HW249675   8.948   1.205   0.743  1.0727  0.7153 -0.6421
47479SOL     OW49676   6.263  11.183   5.252 -0.2547 -0.0540 -0.2266
47479SOL    HW149677   6.178  11.194   5.294 -1.4644  0.0452 -2.5547
47479SOL    HW249678   6.284  11.090   5.263 -1.1017 -0.2701 -0.3817
47480SOL     OW49679   1.515   8.888   3.600 -0.8187 -0.2934  0.0897
47480SOL    HW149680   1.564   8.806   3.592 -0.1654 -0.0298  1.3249
47480SOL    HW249681   1.472   8.883   3.685 -1.4121  0.3175 -0.1599
47481SOL     OW49682  11.599   8.075  11.469  0.5114  0.1780 -0.0403
47481SOL    HW149683  11.516   8.110  11.436 -0.7850 -0.9215  1.8505
47481SOL    HW249684  11.622   8.008  11.405  0.7265  1.4481 -1.3428
47482SOL     OW49685  12.054   9.919   6.644 -0.0579  0.2987 -0.2187
47482SOL    HW149686  12.098   9.969   6.713  0.5898 -0.0357 -0.3822
47482SOL    HW249687  12.001   9.984   6.598 -0.6100  0.5040  0.6731
47483SOL     OW49688  11.761   7.413  10.828  0.3592  0.0995  0.2537
47483SOL    HW149689  11.802   7.335  10.866  1.2216  0.4876  0.1469
47483SOL    HW249690  11.724   7.460  10.903 -2.8617 -1.8688  0.0692
47484SOL     OW49691   1.381   7.960   5.766  0.2209  0.3427 -0.2967
47484SOL    HW149692   1.306   7.922   5.811 -0.7727  1.3712 -1.0254
47484SOL    HW249693   1.343   8.019   5.701  1.6700  2.5470  0.7295
47485SOL     OW49694   5.003   3.071   9.254  0.5234 -0.3972  0.1357
47485SOL    HW149695   4.975   2.983   9.277  0.7192 -0.1901  1.2621
47485SOL    HW249696   5.055   3.060   9.175 -2.5164 -0.7966 -1.9690
47486SOL     OW49697   2.056  12.099   5.987  0.1635 -0.2101 -0.2208
47486SOL    HW149698   2.048  12.192   5.966 -0.2638 -0.0659  0.5487
47486SOL    HW249699   2.001  12.087   6.065 -0.1286 -1.1917 -0.5566
47487SOL     OW49700   6.345  11.360  10.630 -0.0110 -0.1787 -0.3994
47487SOL    HW149701   6.353  11.269  10.659  0.5605 -0.7242 -2.1416
47487SOL    HW249702   6.362  11.412  10.708  0.0515 -1.5646  0.5420
47488SOL     OW49703  10.059   0.144   0.297 -0.3361  0.4849  0.3671
47488SOL    HW149704   9.996   0.179   0.360  0.1741 -0.1444  1.2594
47488SOL    HW249705  10.105   0.075   0.345 -0.3117 -0.4085 -0.8719
47489SOL     OW49706   4.580   2.985   2.155  0.1907  0.0420  0.2089
47489SOL    HW149707   4.563   3.046   2.226  0.5059 -0.1225  0.4300
47489SOL    HW249708   4.579   2.899   2.197  0.9384 -0.0161  0.1222
47490SOL     OW49709   5.247   4.005   7.756  0.1015  0.0940 -0.2677
47490SOL    HW149710   5.325   3.949   7.761 -0.4250 -0.5694  1.6449
47490SOL    HW249711   5.272   4.084   7.804 -0.4377 -0.2207  0.5620
47491SOL     OW49712  11.209   4.729   8.452  0.0239  0.0293 -0.5926
47491SOL    HW149713  11.169   4.796   8.507  0.3367  0.7443 -1.2141
47491SOL    HW249714  11.139   4.665   8.437 -0.5343  0.6414 -0.6630
47492SOL     OW49715   8.286  11.319   8.635  0.0064  0.2763 -0.0104
47492SOL    HW149716   8.233  11.356   8.565 -1.0419  0.3038  0.7725
47492SOL    HW249717   8.324  11.395   8.680 -0.3408  0.3156  0.2199
47493SOL     OW49718  10.878   3.078  10.922  0.0827  0.3888 -0.4673
47493SOL    HW149719  10.818   3.004  10.912 -0.0206  0.4543 -0.3401
47493SOL    HW249720  10.930   3.078  10.842  0.7212 -0.3887 -0.0602
47494SOL     OW49721   0.962  10.829  10.321  0.1012 -0.5818  0.1048
47494SOL    HW149722   0.899  10.829  10.249  0.6007 -1.3379 -0.3461
47494SOL    HW249723   0.933  10.756  10.377 -0.5781  0.3043  0.9526
47495SOL     OW49724   9.971   3.394   3.752  0.3018 -0.2758 -0.2095
47495SOL    HW149725   9.894   3.438   3.714  0.3030 -0.0295  0.0685
47495SOL    HW249726   9.941   3.362   3.837  0.6236  0.2004  0.0907
47496SOL     OW49727   3.525   4.570   1.412  0.0424 -0.2057 -0.3672
47496SOL    HW149728   3.490   4.587   1.324 -0.4557  0.4132 -0.0582
47496SOL    HW249729   3.526   4.656   1.454 -1.9452 -0.8066  1.0338
47497SOL     OW49730  11.376   8.231  10.856  0.4260  0.4641 -0.0952
47497SOL    HW149731  11.436   8.161  10.830  1.2671  0.8127  0.8337
47497SOL    HW249732  11.379   8.294  10.784  1.6296  0.7480  0.1832
47498SOL     OW49733   8.503   6.525  10.787  0.0297 -0.0022 -0.0872
47498SOL    HW149734   8.411   6.501  10.797 -0.2679  0.7517 -0.9918
47498SOL    HW249735   8.505   6.586  10.714  1.0983  0.9006  0.6622
47499SOL     OW49736   1.027  11.925   1.411  1.1277 -0.2004 -0.0826
47499SOL    HW149737   1.005  12.008   1.370  0.6562  0.3375  1.2173
47499SOL    HW249738   0.992  11.859   1.351  1.0264  0.5379 -0.8560
47500SOL     OW49739   0.095   3.646   2.957 -0.5242  0.4197  0.0845
47500SOL    HW149740   0.161   3.589   2.917 -2.4857 -2.8717  1.0996
47500SOL    HW249741   0.048   3.685   2.883 -0.1551 -0.6076 -0.7161
47501SOL     OW49742   3.577   5.983   0.005  0.1983 -0.5419  0.4624
47501SOL    HW149743   3.601   6.042  -0.067  0.6111 -0.1720  0.8920
47501SOL    HW249744   3.661   5.954   0.040 -0.0047 -0.9693  0.5968
47502SOL     OW49745   2.661   0.403   4.178 -0.6010 -0.2688 -0.4279
47502SOL    HW149746   2.628   0.317   4.204 -2.0408  0.4483  0.2629
47502SOL    HW249747   2.724   0.385   4.109 -0.8499 -1.8769 -0.2766
47503SOL     OW49748  11.548   2.140   4.257  0.6002  0.0075 -0.4173
47503SOL    HW149749  11.557   2.077   4.329  3.6604 -0.5220 -1.1474
47503SOL    HW249750  11.482   2.102   4.200 -0.6617 -0.3909  1.2096
47504SOL     OW49751   2.310   8.498  10.079  0.0764  0.4638 -0.5568
47504SOL    HW149752   2.230   8.551  10.079 -0.8386 -0.7342  2.3779
47504SOL    HW249753   2.375   8.553  10.122 -0.8119 -0.5290  2.2791
47505SOL     OW49754  12.455  10.442  11.512 -0.3692 -0.3422  0.0615
47505SOL    HW149755  12.361  10.428  11.504 -0.3750 -0.0317 -0.5063
47505SOL    HW249756  12.474  10.513  11.450  0.2322 -0.3840  0.1883
47506SOL     OW49757   1.455   0.888   3.269 -0.1738  0.8092  0.4667
47506SOL    HW149758   1.549   0.873   3.278  0.2019  1.2531 -1.9324
47506SOL    HW249759   1.433   0.846   3.185 -2.2522  0.2081  1.2469
47507SOL     OW49760   0.746   9.659   0.191 -0.5044 -0.1521  0.2824
47507SOL    HW149761   0.675   9.707   0.233 -0.6834 -0.6531  0.5677
47507SOL    HW249762   0.799   9.726   0.148 -1.1668  0.2206  0.0428
47508SOL     OW49763   4.109   7.622   4.470  0.3408  0.6643  0.0902
47508SOL    HW149764   4.181   7.658   4.418  1.0829  0.1519  0.7432
47508SOL    HW249765   4.060   7.698   4.500  0.0865  0.9854 -1.0786
47509SOL     OW49766   7.120   9.523   4.880  0.3332 -0.6959 -0.7865
47509SOL    HW149767   7.165   9.542   4.797  0.5370 -1.5004 -0.8740
47509SOL    HW249768   7.188   9.531   4.947  0.2375 -0.3353 -0.7346
47510SOL     OW49769  10.213   4.026   0.244 -0.0984  0.3300 -0.4204
47510SOL    HW149770  10.223   3.931   0.247 -3.9761 -0.2131 -0.2559
47510SOL    HW249771  10.154   4.043   0.171 -0.1134  2.5468  0.0087
47511SOL     OW49772   0.292  11.069   8.737 -0.1427 -0.4753  0.4280
47511SOL    HW149773   0.230  11.094   8.668  1.3263 -1.4833 -1.3347
47511SOL    HW249774   0.245  11.086   8.819 -1.9373  0.7920 -0.8041
47512SOL     OW49775   4.937   8.056   8.804  0.9336  0.4416  0.6923
47512SOL    HW149776   4.895   8.008   8.875  1.6480 -1.3869 -0.0735
47512SOL    HW249777   4.870   8.063   8.736  1.3640 -1.2922  0.0167
47513SOL     OW49778   6.217   2.315  12.153 -0.1958  0.2438  0.1439
47513SOL    HW149779   6.129   2.287  12.129 -0.9730  1.5877  1.2873
47513SOL    HW249780   6.213   2.330  12.247  1.0286  1.1362  0.0839
47514SOL     OW49781   4.756   3.986  12.090  0.6420 -0.1378  0.2743
47514SOL    HW149782   4.851   3.980  12.083  0.7222  1.0526  0.2002
47514SOL    HW249783   4.732   4.060  12.033 -0.4920 -1.4009 -0.9906
47515SOL     OW49784   1.347   3.179   2.215  0.6534 -0.4957 -0.1000
47515SOL    HW149785   1.328   3.085   2.216  0.3401 -0.4279  0.7731
47515SOL    HW249786   1.347   3.205   2.307 -1.3451  0.7842 -0.4118
47516SOL     OW49787   3.031   6.259  10.248 -0.5859  0.1530  0.4618
47516SOL    HW149788   2.986   6.339  10.276 -1.3149  0.1946 -0.7442
47516SOL    HW249789   3.110   6.256  10.301  0.7711  3.0227 -1.1829
47517SOL     OW49790   3.795   2.450   7.078 -0.1512 -0.4283  0.0846
47517SOL    HW149791   3.845   2.453   6.996  0.3567 -0.1131  0.4015
47517SOL    HW249792   3.716   2.501   7.059 -0.1678 -0.5858 -0.2928
47518SOL     OW49793   7.138   8.234   9.630  0.3597  0.2377  0.7184
47518SOL    HW149794   7.227   8.215   9.601  0.0640 -1.5296  0.8526
47518SOL    HW249795   7.132   8.193   9.716 -0.8056 -0.3351  0.3855
47519SOL     OW49796   1.391   7.698   9.188  0.3277  0.2127  0.3041
47519SOL    HW149797   1.372   7.791   9.177 -1.0525 -0.1474 -0.5756
47519SOL    HW249798   1.439   7.675   9.108  0.6262  0.1580  0.4993
47520SOL     OW49799  10.703   7.160   2.993  0.3108 -0.0489  0.0452
47520SOL    HW149800  10.787   7.148   2.949 -0.6942  0.9746 -2.3144
47520SOL    HW249801  10.721   7.224   3.062  1.2240  1.3463 -1.4117
47521SOL     OW49802   8.553   1.136  12.606  0.4051 -0.6874  0.4363
47521SOL    HW149803   8.507   1.163  12.686 -0.6402 -1.8984  0.2783
47521SOL    HW249804   8.646   1.147  12.628  0.1042  0.4792  1.2568
47522SOL     OW49805   2.396  12.281  11.674 -0.8689 -0.0050  0.2172
47522SOL    HW149806   2.385  12.274  11.769  2.0273 -0.7649  0.6071
47522SOL    HW249807   2.381  12.374  11.655  0.2234  0.5223  1.7288
47523SOL     OW49808   8.799   8.131  10.083 -0.0021  0.4934 -0.0112
47523SOL    HW149809   8.725   8.151  10.026  0.1289  0.1356 -0.3117
47523SOL    HW249810   8.765   8.066  10.145  0.2755 -0.2791 -0.6559
47524SOL     OW49811  12.440   5.728  11.049  0.1710  0.0519  0.1821
47524SOL    HW149812  12.399   5.646  11.022 -2.1125  1.3606 -0.6989
47524SOL    HW249813  12.487   5.758  10.971 -0.1006  0.2059  0.0765
47525SOL     OW49814   1.321   3.637   7.468  0.3235 -0.2908  0.2492
47525SOL    HW149815   1.417   3.637   7.464  0.2988  0.4060 -0.7993
47525SOL    HW249816   1.300   3.704   7.532  0.5284  1.0027 -0.9893
47526SOL     OW49817   3.381   1.739   7.702 -0.4189  0.1718 -0.6365
47526SOL    HW149818   3.302   1.718   7.751 -0.1187 -1.5374 -0.8348
47526SOL    HW249819   3.441   1.774   7.768 -1.4410  1.9286 -0.5576
47527SOL     OW49820   7.541  11.267   9.205  0.8401  0.2793 -0.3984
47527SOL    HW149821   7.627  11.288   9.242 -0.3544  0.7109  2.4034
47527SOL    HW249822   7.537  11.172   9.205  1.5101  0.2341 -1.1587
47528SOL     OW49823   6.992   9.377   1.586  0.3426 -0.0499 -0.4431
47528SOL    HW149824   7.050   9.372   1.510  2.1177 -0.6215  0.8752
47528SOL    HW249825   6.966   9.286   1.603 -2.9283  0.3585 -2.3582
47529SOL     OW49826   1.828  11.161  10.909 -0.0963 -0.7734  0.1679
47529SOL    HW149827   1.747  11.151  10.959  0.2621  0.6179  1.0839
47529SOL    HW249828   1.858  11.250  10.929  1.0735 -0.8590 -1.0437
47530SOL     OW49829  10.981   3.954   7.588  0.3800  0.3951  0.1127
47530SOL    HW149830  10.986   3.995   7.501 -1.4924 -0.8406 -0.6281
47530SOL    HW249831  10.999   3.862   7.572 -2.1370 -0.2497  0.6253
47531SOL     OW49832   5.961  11.166   3.606  0.2146 -0.2418  0.7265
47531SOL    HW149833   5.996  11.180   3.519  0.8870 -0.9553  0.8697
47531SOL    HW249834   5.890  11.230   3.614  0.2161 -0.0948 -0.2919
47532SOL     OW49835   6.628  11.283   0.801  0.5660 -0.3835  0.3444
47532SOL    HW149836   6.607  11.212   0.861 -2.0087  0.8261  1.0304
47532SOL    HW249837   6.625  11.362   0.855  1.8691  0.4280 -0.6866
47533SOL     OW49838   3.216  12.703   1.574 -0.0071 -0.3127 -0.3788
47533SOL    HW149839   3.144  12.669   1.521 -1.2145  0.6398  0.6009
47533SOL    HW249840   3.248  12.626   1.621 -1.1050 -0.5774 -0.0240
47534SOL     OW49841   1.708   0.270  12.562  0.7690 -0.6437 -0.1093
47534SOL    HW149842   1.766   0.273  12.485  2.3108 -0.3192  1.0250
47534SOL    HW249843   1.730   0.187  12.605  1.5670  0.2244  1.1971
47535SOL     OW49844   0.288   2.406   9.789  0.9094  0.3570  0.6078
47535SOL    HW149845   0.239   2.339   9.836  0.7338  0.8178  1.0967
47535SOL    HW249846   0.354   2.435   9.852  0.0697  1.6589  0.9261
47536SOL     OW49847   9.680   6.235   2.799  0.2307  0.3159  0.1650
47536SOL    HW149848   9.740   6.291   2.846 -0.5842 -1.3086  3.4686
47536SOL    HW249849   9.634   6.186   2.867 -1.1838 -2.2165 -2.3617
47537SOL     OW49850   8.144   9.706   7.269  0.3142 -0.0302 -0.7397
47537SOL    HW149851   8.104   9.789   7.294 -0.6937 -0.7029 -0.0202
47537SOL    HW249852   8.140   9.653   7.349 -0.2635 -1.2075 -1.5184
47538SOL     OW49853   5.055   7.944  12.385  0.2339  0.5545 -0.2318
47538SOL    HW149854   5.069   7.978  12.474 -0.9960 -0.5696  0.4255
47538SOL    HW249855   4.961   7.956  12.370  0.0879 -0.9774 -0.6275
47539SOL     OW49856   8.214  10.469   0.133 -0.2799  0.2941  0.2302
47539SOL    HW149857   8.279  10.408   0.169 -1.4784 -0.4784  1.1436
47539SOL    HW249858   8.198  10.530   0.205 -0.3315  0.6788 -0.1064
47540SOL     OW49859  11.823   0.141   4.105  1.0990  0.5936 -0.1695
47540SOL    HW149860  11.849   0.163   4.195  0.0132 -2.6897  1.1224
47540SOL    HW249861  11.874   0.063   4.084 -0.7656 -0.4169 -1.2313
47541SOL     OW49862   3.751   2.086   5.231  0.5566 -0.1480 -0.3269
47541SOL    HW149863   3.789   2.074   5.144  0.1879  0.6231 -0.6039
47541SOL    HW249864   3.819   2.130   5.281  0.4235  0.2783 -0.5136
47542SOL     OW49865   0.638   5.902   2.182  0.2692  0.5523 -0.0169
47542SOL    HW149866   0.603   5.838   2.245  2.7092 -0.8273  0.0903
47542SOL    HW249867   0.578   5.976   2.188 -0.6985 -0.2944  2.5164
47543SOL     OW49868  10.057   8.768  10.318 -0.8417  0.0846  0.2467
47543SOL    HW149869  10.106   8.785  10.398 -2.3184  1.0235  0.9743
47543SOL    HW249870  10.091   8.833  10.256  0.5697 -0.8846 -0.0606
47544SOL     OW49871   8.590  11.796   5.651 -0.3214 -0.0112  0.2449
47544SOL    HW149872   8.663  11.836   5.698  0.9864  0.1007 -1.7551
47544SOL    HW249873   8.614  11.704   5.644  0.2613  0.2341 -1.4342
47545SOL     OW49874   0.154   6.632   3.804  0.2145 -0.0608 -0.0773
47545SOL    HW149875   0.236   6.653   3.760  1.5317  2.1282  2.9840
47545SOL    HW249876   0.096   6.706   3.783  0.1926  0.0384  0.3223
47546SOL     OW49877   3.529   1.284   9.837 -0.0866 -0.2702 -0.1993
47546SOL    HW149878   3.499   1.197   9.811  0.0573  0.0664 -1.6267
47546SOL    HW249879   3.472   1.310   9.909 -1.2666 -0.8575 -0.8971
47547SOL     OW49880  10.976   0.978   1.944  0.1605  0.4057  0.2768
47547SOL    HW149881  10.967   1.073   1.934 -0.4660  0.4089  0.8069
47547SOL    HW249882  11.070   0.962   1.933  0.2462  1.0629 -0.0014
47548SOL     OW49883   3.113   4.400   9.930  0.8132 -0.0418  0.3795
47548SOL    HW149884   3.155   4.447  10.002  1.3598  0.9439 -0.5564
47548SOL    HW249885   3.038   4.355   9.971  1.0376  0.5962  1.5299
47549SOL     OW49886  11.995   5.139  11.881 -0.0790 -0.1858 -0.7055
47549SOL    HW149887  11.930   5.104  11.820 -0.9677  0.5866 -0.2170
47549SOL    HW249888  12.017   5.065  11.937  1.2314 -1.0961 -2.3136
47550SOL     OW49889   6.620   5.542   2.203 -0.2436 -0.4014 -0.4702
47550SOL    HW149890   6.626   5.612   2.268  2.6020 -1.9632  1.1408
47550SOL    HW249891   6.690   5.561   2.140  0.5478 -1.7183 -0.0256
47551SOL     OW49892   7.006   0.734   7.050 -0.3419  0.1307 -0.3354
47551SOL    HW149893   6.913   0.733   7.024 -0.6101 -2.1098  0.5388
47551SOL    HW249894   7.010   0.678   7.127  2.1410 -1.8505 -1.7797
47552SOL     OW49895  12.556   4.407   4.610 -0.4463 -0.8485  0.5912
47552SOL    HW149896  12.491   4.348   4.647 -1.6621  0.0286 -0.0989
47552SOL    HW249897  12.610   4.351   4.554 -1.8973 -1.2367 -0.4710
47553SOL     OW49898   4.415   2.498  10.608  0.4048 -0.6011  0.1113
47553SOL    HW149899   4.337   2.445  10.622 -0.9968  1.7850  2.1267
47553SOL    HW249900   4.467   2.485  10.687  1.4598 -1.1269 -0.6369
47554SOL     OW49901   7.210  11.779  11.610 -0.5883  0.6326 -0.5518
47554SOL    HW149902   7.243  11.846  11.550  1.0992  0.6031  0.2789
47554SOL    HW249903   7.192  11.704  11.554  1.2479  0.5051 -1.0453
47555SOL     OW49904   0.045   5.009   7.417  0.2041  0.3784  0.6097
47555SOL    HW149905  -0.044   4.976   7.409  0.9001 -1.4049 -0.5340
47555SOL    HW249906   0.036   5.093   7.460 -1.9826  0.0229  0.9631
47556SOL     OW49907   6.444  12.629  11.349 -0.3048  0.4112  0.3006
47556SOL    HW149908   6.424  12.665  11.435  0.8094  0.1693  0.6784
47556SOL    HW249909   6.538  12.639  11.340 -0.3029 -0.2498 -0.5732
47557SOL     OW49910   9.450  12.693  12.312 -0.3143 -0.4350  0.2252
47557SOL    HW149911   9.479  12.778  12.344 -0.0301 -0.4347 -0.0298
47557SOL    HW249912   9.494  12.682  12.228 -0.1985 -0.9155  0.3427
47558SOL     OW49913   3.511   7.725   8.231 -0.2999 -0.5626 -0.4592
47558SOL    HW149914   3.476   7.702   8.145  0.4795 -0.9888 -0.6732
47558SOL    HW249915   3.456   7.797   8.261  0.2380  0.4776 -1.8778
47559SOL     OW49916   9.676   3.720   5.291 -0.5736 -0.0864 -0.0794
47559SOL    HW149917   9.654   3.808   5.262 -0.2127  0.5577  1.5098
47559SOL    HW249918   9.658   3.665   5.215 -0.3612  1.4030 -1.2608
47560SOL     OW49919   4.671   4.077   4.517  0.6207 -0.1839 -0.0869
47560SOL    HW149920   4.725   4.115   4.448  0.3570 -1.4108 -1.0159
47560SOL    HW249921   4.726   4.008   4.555  0.0282 -0.9230 -0.5215
47561SOL     OW49922  12.421   3.300   9.985  0.0977 -0.0390  0.5119
47561SOL    HW149923  12.439   3.216   9.943  1.8554  0.1279  0.8442
47561SOL    HW249924  12.449   3.365   9.921 -0.3595  0.2665  0.6249
47562SOL     OW49925   7.581   3.315   0.081  0.2245 -0.7176  0.0216
47562SOL    HW149926   7.494   3.284   0.108  0.7045 -0.5928  1.8041
47562SOL    HW249927   7.599   3.389   0.139  2.0291 -1.5084  0.5319
47563SOL     OW49928   2.416   5.339   6.858 -0.2349 -0.1060  0.1709
47563SOL    HW149929   2.425   5.392   6.779  0.3038  0.9065  0.8850
47563SOL    HW249930   2.504   5.301   6.871 -0.4001 -0.5119  0.1258
47564SOL     OW49931   4.674  12.697   2.783  0.3785 -0.0420 -0.2497
47564SOL    HW149932   4.614  12.665   2.850  0.4356 -0.9535 -0.6238
47564SOL    HW249933   4.663  12.637   2.709  1.2057  0.2203 -0.6011
47565SOL     OW49934   7.778   4.437  10.258  0.6214 -0.2894  0.0868
47565SOL    HW149935   7.716   4.368  10.232  0.0985 -0.2970  1.2687
47565SOL    HW249936   7.775   4.500  10.187  0.7572 -1.2572 -0.8038
47566SOL     OW49937  10.287   7.697  10.038  0.3151 -0.5532  0.0054
47566SOL    HW149938  10.252   7.785  10.022 -1.0914 -0.8498  1.1864
47566SOL    HW249939  10.225   7.658  10.100  3.5106 -0.5930  3.5220
47567SOL     OW49940  11.326   2.526  10.770 -0.2387  0.4620 -0.0504
47567SOL    HW149941  11.250   2.540  10.714  0.6595  1.8127 -0.9723
47567SOL    HW249942  11.294   2.542  10.859 -1.3563 -0.4216 -0.2713
47568SOL     OW49943   8.508   1.084   1.874 -0.1454 -0.4642  0.0802
47568SOL    HW149944   8.506   1.026   1.950 -0.7061  0.1506  0.5431
47568SOL    HW249945   8.440   1.050   1.816  1.6588 -2.2168 -1.1435
47569SOL     OW49946   7.288   2.610  12.250 -0.5690  0.2216 -0.3275
47569SOL    HW149947   7.274   2.689  12.303  0.6490 -1.1995  2.2943
47569SOL    HW249948   7.269   2.538  12.310  0.0121 -1.4947 -2.1380
47570SOL     OW49949  12.676   6.198   3.294 -0.0825  0.1767  0.1341
47570SOL    HW149950  12.736   6.232   3.360  1.6260 -1.7914 -0.2650
47570SOL    HW249951  12.724   6.208   3.211 -0.2999 -1.2959 -0.2138
47571SOL     OW49952   4.671   1.491   3.059 -0.2803  0.3673 -0.0472
47571SOL    HW149953   4.652   1.482   2.965  0.6703  0.3694 -0.2469
47571SOL    HW249954   4.596   1.448   3.102  0.3664 -1.7034 -0.8482
47572SOL     OW49955  11.844   7.501   1.902  0.3873  0.4418 -0.1404
47572SOL    HW149956  11.820   7.417   1.941  0.1303  0.6326  0.1190
47572SOL    HW249957  11.939   7.495   1.891  0.4559  0.3424  0.4330
47573SOL     OW49958   8.235   2.024   9.913 -0.2983 -0.4337 -0.2021
47573SOL    HW149959   8.255   1.960   9.982  0.7408  0.1356  0.0362
47573SOL    HW249960   8.316   2.072   9.901 -0.9974  0.6739 -0.5749
47574SOL     OW49961   0.742   5.029   2.214 -0.5697 -0.4200 -0.1742
47574SOL    HW149962   0.758   4.999   2.303 -0.3686  0.1009 -0.0315
47574SOL    HW249963   0.724   5.123   2.223 -1.8495 -0.6096 -0.5308
47575SOL     OW49964   0.067   6.675   0.445 -0.4490 -0.0751  0.6276
47575SOL    HW149965   0.089   6.611   0.513 -0.1517 -0.2459  0.3694
47575SOL    HW249966   0.151   6.711   0.416 -0.4702 -0.9165 -0.5373
47576SOL     OW49967   1.404   7.517   4.668  0.2659 -0.1967 -0.2115
47576SOL    HW149968   1.431   7.454   4.601 -0.8255 -0.3755 -0.5025
47576SOL    HW249969   1.425   7.602   4.630 -1.6445 -0.2103 -1.4585
47577SOL     OW49970   9.896   4.725   4.547  0.5099 -0.0799 -0.4083
47577SOL    HW149971   9.981   4.766   4.561 -0.1132  0.9375  0.6156
47577SOL    HW249972   9.838   4.769   4.609 -0.2304 -2.5730  0.7978
47578SOL     OW49973   9.765   3.434   4.194 -0.2327  0.1751  0.4383
47578SOL    HW149974   9.707   3.509   4.185  0.4873  0.7128  0.2596
47578SOL    HW249975   9.735   3.391   4.275 -0.5010  0.7763  0.6646
47579SOL     OW49976   3.360   7.923   5.913  0.0018 -0.4762  0.1439
47579SOL    HW149977   3.388   7.968   5.834 -1.3400 -0.6417 -0.4556
47579SOL    HW249978   3.351   7.831   5.887 -2.2736 -0.2407 -0.0698
47580SOL     OW49979  12.086   8.169   8.176 -0.6755 -0.6622  0.5218
47580SOL    HW149980  12.109   8.076   8.175 -0.1875 -0.5387  0.2218
47580SOL    HW249981  12.032   8.181   8.098 -0.1121 -0.5364  0.1495
47581SOL     OW49982   9.839   4.552   2.173 -0.4666 -0.2919 -0.3384
47581SOL    HW149983   9.747   4.538   2.148 -0.2916  3.1436 -3.9702
47581SOL    HW249984   9.841   4.536   2.267 -5.0251  0.4208  0.1085
47582SOL     OW49985   6.739   1.769  12.011 -0.1016  0.2991 -0.2261
47582SOL    HW149986   6.661   1.812  12.047 -0.1647  1.4804 -1.6770
47582SOL    HW249987   6.746   1.803  11.922  1.4433 -0.6458 -0.4984
47583SOL     OW49988   7.780   6.081   7.156 -0.0204  0.0303  0.2856
47583SOL    HW149989   7.711   6.034   7.202  0.2089 -0.4689  0.1319
47583SOL    HW249990   7.775   6.049   7.066  2.3334 -2.3711  0.8558
47584SOL     OW49991  10.457   3.887   6.542 -0.1872  0.3089 -0.3434
47584SOL    HW149992  10.412   3.966   6.574 -0.9285 -0.3593  0.3045
47584SOL    HW249993  10.501   3.851   6.619  0.2131  0.1211 -0.6538
47585SOL     OW49994  10.276   6.971   4.952 -0.2096  0.4202 -0.0448
47585SOL    HW149995  10.259   6.941   5.041 -1.2564 -0.6482 -0.5698
47585SOL    HW249996  10.352   6.919   4.923 -1.5106 -1.2319 -0.6639
47586SOL     OW49997   4.372  12.543   4.575  0.3766 -0.4800 -0.0524
47586SOL    HW149998   4.389  12.454   4.608  1.0954 -0.0509  0.7916
47586SOL    HW249999   4.287  12.566   4.611  0.0647 -0.9299 -0.4983
47587SOL     OW50000  11.573  11.808   4.570 -0.2400  0.0715  1.4354
47587SOL    HW150001  11.523  11.753   4.509  0.9699 -0.5367  0.9714
47587SOL    HW250002  11.642  11.751   4.603  2.2023  1.7072 -0.4237
47588SOL     OW50003   0.956   7.666  11.232 -0.2278 -0.4003 -0.1815
47588SOL    HW150004   0.912   7.665  11.317  1.5527 -1.6816  0.7734
47588SOL    HW250005   0.921   7.744  11.188 -1.5034  0.0407  1.5259
47589SOL     OW50006   1.732   3.396   3.647 -0.0542  0.0062 -0.4139
47589SOL    HW150007   1.695   3.374   3.562 -0.9154 -1.7042  0.3501
47589SOL    HW250008   1.787   3.473   3.631 -1.0802  0.4052 -2.2802
47590SOL     OW50009  11.077   6.080   7.088  0.0067 -0.3717  0.4102
47590SOL    HW150010  11.086   5.988   7.115  0.0193 -1.0024 -1.5713
47590SOL    HW250011  11.157   6.098   7.039 -0.2518  0.5379  0.3104
47591SOL     OW50012  11.314   4.594   0.238  0.4412 -0.1419  0.3428
47591SOL    HW150013  11.249   4.531   0.268 -0.7640  1.4750  1.2652
47591SOL    HW250014  11.360   4.621   0.318  0.3605  0.7777  0.0879
47592SOL     OW50015   5.821   9.427   8.907 -0.1159 -0.2695 -0.1972
47592SOL    HW150016   5.816   9.400   8.999  1.1807 -1.8304 -0.5396
47592SOL    HW250017   5.737   9.400   8.869  0.0114 -1.1959  0.1527
47593SOL     OW50018  10.565  12.648   8.898 -0.2546 -0.2468 -0.4223
47593SOL    HW150019  10.593  12.603   8.979 -0.3765 -0.1980 -0.3525
47593SOL    HW250020  10.638  12.635   8.837  0.4446  0.8651  0.1303
47594SOL     OW50021  11.993   1.556   5.512  0.6193 -0.3209  0.0031
47594SOL    HW150022  11.962   1.466   5.506 -0.2175 -0.1120  0.9445
47594SOL    HW250023  11.960   1.598   5.432 -1.9240 -0.0168  1.1070
47595SOL     OW50024   7.169   8.384   6.153 -0.6466  0.3050  0.4152
47595SOL    HW150025   7.262   8.367   6.166 -0.6151  1.4252  1.8775
47595SOL    HW250026   7.159   8.393   6.058  0.4976 -0.9840  0.1419
47596SOL     OW50027   8.949   0.443   3.942 -0.1549 -0.0405 -0.5462
47596SOL    HW150028   8.936   0.380   3.871 -1.0016  0.7344 -1.0983
47596SOL    HW250029   8.907   0.402   4.018  1.0336 -1.0177 -0.3731
47597SOL     OW50030  12.554  11.309   4.115  0.3270  0.5501 -0.7001
47597SOL    HW150031  12.562  11.328   4.208  0.9789 -1.7282 -0.2280
47597SOL    HW250032  12.595  11.383   4.071  1.7280  0.7805  0.9100
47598SOL     OW50033   2.134   2.363   6.911 -0.6078  0.5958 -0.1872
47598SOL    HW150034   2.229   2.362   6.917 -0.5377 -0.8299 -1.1200
47598SOL    HW250035   2.106   2.408   6.991  0.8517  1.9468 -0.3869
47599SOL     OW50036   7.212   8.500   3.686 -0.2454 -0.2167 -0.1451
47599SOL    HW150037   7.298   8.469   3.715 -0.7587 -0.9210  0.6658
47599SOL    HW250038   7.177   8.548   3.761 -0.6812 -0.1858 -0.3643
47600SOL     OW50039   2.295  10.744   3.925 -0.0138  0.5303  0.0424
47600SOL    HW150040   2.285  10.706   3.838 -0.2908  0.3065  0.1701
47600SOL    HW250041   2.347  10.823   3.911 -0.5508  0.8087 -0.4018
47601SOL     OW50042   0.082   1.791   4.613  0.4027  0.0272  0.4853
47601SOL    HW150043   0.074   1.699   4.636  1.0271 -0.0073  0.5878
47601SOL    HW250044  -0.006   1.827   4.625 -0.1911 -0.8587 -0.9255
47602SOL     OW50045   7.892   7.274   0.475 -0.3660  0.3211  0.2093
47602SOL    HW150046   7.857   7.332   0.408  0.3708  0.9754  0.3724
47602SOL    HW250047   7.934   7.203   0.426 -1.4213 -0.1880  0.0107
47603SOL     OW50048   1.398   3.507   4.795 -0.6307  0.2313 -0.1128
47603SOL    HW150049   1.416   3.413   4.794  0.7994  0.4529  0.9387
47603SOL    HW250050   1.405   3.534   4.703  2.1920 -0.1776 -0.1078
47604SOL     OW50051   6.005   6.529   6.910 -0.3523  0.0476 -0.1539
47604SOL    HW150052   5.956   6.610   6.924 -2.1000 -1.1139  0.9174
47604SOL    HW250053   5.942   6.460   6.927  1.3376 -1.5579 -0.0673
47605SOL     OW50054   6.316   4.591   3.653  0.0615  0.4594 -0.1484
47605SOL    HW150055   6.406   4.606   3.684 -0.2216  1.3383  0.2969
47605SOL    HW250056   6.275   4.678   3.656 -1.0462 -0.0601  0.4297
47606SOL     OW50057   5.527   2.016   5.877 -0.4196  0.0393 -0.3059
47606SOL    HW150058   5.572   1.932   5.890  1.8923  1.1781 -0.4756
47606SOL    HW250059   5.573   2.077   5.934 -2.2837  1.1689  0.0852
47607SOL     OW50060   3.792   7.119  11.907  0.1935 -0.4505  0.1736
47607SOL    HW150061   3.804   7.138  12.000  0.4106  0.2232  0.0153
47607SOL    HW250062   3.737   7.040  11.905  1.2073 -1.1953  0.8776
47608SOL     OW50063   0.764   5.538   9.675 -0.5322  0.1973  0.3470
47608SOL    HW150064   0.766   5.482   9.597  1.6045  2.9371 -1.7615
47608SOL    HW250065   0.686   5.592   9.664 -0.2528  0.5562  0.1076
47609SOL     OW50066   7.533   0.343   1.648  0.2077  0.2826  0.1435
47609SOL    HW150067   7.607   0.349   1.707 -0.6995  2.1888  1.1740
47609SOL    HW250068   7.457   0.332   1.705 -0.3738 -1.3354 -0.8686
47610SOL     OW50069   4.857   3.406  11.067  0.1806 -0.4653 -0.4953
47610SOL    HW150070   4.882   3.334  11.125 -2.2403 -1.3280 -0.4357
47610SOL    HW250071   4.776   3.441  11.104  1.7244  3.0352  0.0610
47611SOL     OW50072   0.927   5.524   2.993 -0.0015  0.3583 -0.3281
47611SOL    HW150073   0.978   5.600   3.020  0.6316 -0.8530  2.2075
47611SOL    HW250074   0.992   5.461   2.961 -0.2215 -0.0562  0.0237
47612SOL     OW50075  10.259   8.277   7.133 -0.0666 -0.6144  0.2126
47612SOL    HW150076  10.233   8.261   7.224 -3.1853 -0.2224 -0.4878
47612SOL    HW250077  10.311   8.358   7.137 -1.2212  0.1167  1.5515
47613SOL     OW50078   9.847  11.886  11.026 -0.7371 -0.3988 -0.1055
47613SOL    HW150079   9.815  11.857  11.111 -0.5256  1.6685  0.7514
47613SOL    HW250080   9.834  11.981  11.027  3.0019  0.2815 -0.7049
47614SOL     OW50081   4.929  12.346   8.733  0.2813 -0.1773  0.3080
47614SOL    HW150082   4.905  12.402   8.659  0.7628 -0.2517  0.0922
47614SOL    HW250083   4.964  12.406   8.799 -3.2743  0.3711  1.9022
47615SOL     OW50084   9.600   6.167  10.418  0.1937 -0.7030  0.0513
47615SOL    HW150085   9.547   6.088  10.404 -0.2486 -0.1774 -1.4427
47615SOL    HW250086   9.629   6.160  10.509 -0.0584 -2.4434  0.0429
47616SOL     OW50087   1.950   5.331   9.643 -0.7593 -0.2203  0.3665
47616SOL    HW150088   1.856   5.328   9.623 -1.2682 -2.7802  2.5879
47616SOL    HW250089   1.975   5.239   9.653  1.6058  0.4800  1.4787
47617SOL     OW50090   3.596  12.674   8.307  0.3185 -0.4206 -0.7651
47617SOL    HW150091   3.579  12.716   8.223 -1.8167 -0.5742 -0.4568
47617SOL    HW250092   3.601  12.581   8.287 -0.5227 -0.4872 -0.6936
47618SOL     OW50093   3.426   8.730  11.295  0.2399 -0.3878 -0.2846
47618SOL    HW150094   3.331   8.715  11.299  0.5048 -2.0786  0.4433
47618SOL    HW250095   3.443   8.753  11.204 -0.8368 -0.3828 -0.4943
47619SOL     OW50096  11.746   3.257   2.574 -0.5726 -0.2515  0.0496
47619SOL    HW150097  11.748   3.312   2.652  1.4369 -1.0262  0.6280
47619SOL    HW250098  11.676   3.193   2.592 -2.0008  1.2256 -0.0432
47620SOL     OW50099   9.100   1.478   4.568 -0.4988  0.5183  1.1231
47620SOL    HW150100   9.172   1.501   4.627  0.8354 -0.8050  0.1077
47620SOL    HW250101   9.130   1.506   4.482 -1.6238  0.7758  0.8038
47621SOL     OW50102   7.341   1.329   8.945  0.2836  0.0800 -0.1075
47621SOL    HW150103   7.436   1.334   8.931  0.1608  0.1937 -0.9468
47621SOL    HW250104   7.319   1.237   8.928  0.2294  0.0719  0.0073
47622SOL     OW50105   5.500   5.204   5.157  0.0176  0.1120 -0.1287
47622SOL    HW150106   5.523   5.111   5.156 -0.7706 -0.0907  0.0118
47622SOL    HW250107   5.565   5.244   5.214  0.2121 -0.3949  0.0098
47623SOL     OW50108   6.056   6.502   3.214  0.4727  0.4486  0.2968
47623SOL    HW150109   6.073   6.572   3.151  0.4586 -0.4090 -0.6858
47623SOL    HW250110   5.969   6.521   3.248 -0.1033  0.1734 -0.9685
47624SOL     OW50111   5.845  12.307   9.270  0.0705 -0.3515 -0.1645
47624SOL    HW150112   5.803  12.393   9.277  0.8762  0.1060 -0.8123
47624SOL    HW250113   5.877  12.303   9.180  0.2004 -1.2627 -0.0865
47625SOL     OW50114   6.714  11.313   2.201  0.4889  0.5320 -0.0252
47625SOL    HW150115   6.635  11.272   2.167  0.4821 -0.5877  1.2346
47625SOL    HW250116   6.722  11.396   2.153 -1.1659  0.4312 -0.5161
47626SOL     OW50117   0.365   7.242  11.260 -0.0549 -0.3511  0.1522
47626SOL    HW150118   0.447   7.195  11.271  0.1094 -0.0711  0.1276
47626SOL    HW250119   0.314   7.189  11.199 -0.7479 -1.6476  1.7708
47627SOL     OW50120  10.233   9.612   9.118  0.1826  0.6902 -0.3128
47627SOL    HW150121  10.167   9.543   9.109  0.0772  1.0610 -4.1326
47627SOL    HW250122  10.315   9.565   9.135  0.3298 -0.6930 -3.9727
47628SOL     OW50123  12.170   2.518  10.458  0.3919  0.3918  0.4065
47628SOL    HW150124  12.104   2.579  10.424  1.9438  1.1766 -1.3435
47628SOL    HW250125  12.174   2.448  10.392  0.2415 -0.4622  1.2778
47629SOL     OW50126   8.694   1.615   2.552  0.0157 -0.1013 -0.0667
47629SOL    HW150127   8.601   1.619   2.530  0.0603  1.1259 -0.0953
47629SOL    HW250128   8.707   1.526   2.586 -0.9082 -0.6773 -1.1528
47630SOL     OW50129   7.615   4.915   8.807 -0.5791  0.2648 -0.2466
47630SOL    HW150130   7.692   4.894   8.859 -0.7133  0.6120  0.0892
47630SOL    HW250131   7.618   4.852   8.734  0.6230  0.9908 -0.8507
47631SOL     OW50132  10.701   8.362   5.643  0.2114 -0.1362 -0.4528
47631SOL    HW150133  10.733   8.449   5.668  0.4544 -0.7626  1.5940
47631SOL    HW250134  10.733   8.349   5.554  3.3109  0.4197  0.4829
47632SOL     OW50135   6.567   0.891   0.277  0.6792 -0.2301 -0.2914
47632SOL    HW150136   6.559   0.864   0.185  1.1861  0.3870 -0.5247
47632SOL    HW250137   6.660   0.908   0.289  0.5372  0.2435  0.1835
47633SOL     OW50138   2.661   8.443  11.667  0.0013  0.8857 -0.2664
47633SOL    HW150139   2.589   8.460  11.728  1.1726  0.5949  1.2607
47633SOL    HW250140   2.618   8.426  11.583 -1.7235  0.3996  0.6665
47634SOL     OW50141   3.358   8.341   4.198 -1.0953  0.0776 -0.7149
47634SOL    HW150142   3.445   8.306   4.177 -0.8915  0.4512 -0.5157
47634SOL    HW250143   3.299   8.267   4.188 -0.4403 -0.7923  1.3556
47635SOL     OW50144   0.660   0.702  11.092 -0.1238  0.6683  0.1406
47635SOL    HW150145   0.667   0.702  11.188 -0.9389 -0.1909  0.2199
47635SOL    HW250146   0.572   0.735  11.074 -0.3382 -0.0807 -0.2559
47636SOL     OW50147   4.666   7.882   1.820 -0.5202  0.1124 -0.4554
47636SOL    HW150148   4.758   7.886   1.849 -0.7598  0.9440  0.2560
47636SOL    HW250149   4.670   7.882   1.725  0.1971  1.1989 -0.4354
47637SOL     OW50150  10.987  11.713   4.688  0.0973 -0.4008  0.0145
47637SOL    HW150151  10.989  11.645   4.621  0.9475  1.0621 -1.5386
47637SOL    HW250152  11.073  11.708   4.730  0.5821  0.3573 -0.8386
47638SOL     OW50153   0.100   6.035   4.212  0.0265  0.4361  0.5264
47638SOL    HW150154   0.130   5.945   4.227 -0.2591  0.2422 -0.0457
47638SOL    HW250155   0.005   6.030   4.215  0.0192  0.8370  1.1214
47639SOL     OW50156  11.746   1.051   6.613 -0.0209  0.6648  0.2870
47639SOL    HW150157  11.654   1.058   6.639 -0.0347  1.6078  0.0168
47639SOL    HW250158  11.743   1.010   6.526 -0.1493  0.2751  0.4702
47640SOL     OW50159   3.694   2.748   3.800  0.6611  0.5147 -0.2912
47640SOL    HW150160   3.680   2.840   3.824  0.8372  0.6734 -0.7982
47640SOL    HW250161   3.688   2.701   3.883  0.7565  1.0062 -0.0016
47641SOL     OW50162   5.123   5.671   6.376 -0.6203  0.5028 -0.4237
47641SOL    HW150163   5.029   5.654   6.364 -1.3703  2.0826  2.3311
47641SOL    HW250164   5.127   5.725   6.455  2.5822  1.1638 -0.9366
47642SOL     OW50165   9.823   8.579   4.867  0.2505 -0.4564 -0.0699
47642SOL    HW150166   9.877   8.629   4.928 -0.6274 -0.4023  0.6808
47642SOL    HW250167   9.744   8.631   4.855 -0.3169 -1.2601  0.0678
47643SOL     OW50168   2.566   9.335  11.335  0.5454 -0.3292  0.0305
47643SOL    HW150169   2.533   9.355  11.423  1.8942 -0.9931  0.7160
47643SOL    HW250170   2.508   9.385  11.276 -0.0053  0.6178  1.3156
47644SOL     OW50171   4.951   5.680   1.973 -0.3479  0.1263 -0.1418
47644SOL    HW150172   4.950   5.754   2.033  0.8243  0.3650 -0.3874
47644SOL    HW250173   5.039   5.644   1.981 -0.0646  0.3272 -1.8980
47645SOL     OW50174   4.387   6.868   3.175  0.3634  0.2477 -0.3178
47645SOL    HW150175   4.349   6.950   3.207 -1.0920 -0.0630 -1.1371
47645SOL    HW250176   4.464   6.854   3.229  0.0999  1.6709  0.4672
47646SOL     OW50177   1.822   2.920  12.503 -0.1194  0.3105  0.0865
47646SOL    HW150178   1.762   2.949  12.571  0.1217 -0.5093  0.6602
47646SOL    HW250179   1.765   2.888  12.433 -0.3991 -1.5367  1.0840
47647SOL     OW50180   2.394  11.846   8.119  0.0792 -0.0506  0.2459
47647SOL    HW150181   2.488  11.833   8.128  0.1959  0.0800 -0.7134
47647SOL    HW250182   2.372  11.912   8.185  0.6789  0.0377  0.3600
47648SOL     OW50183   9.663   2.252   2.727  0.3988  0.4702 -0.3762
47648SOL    HW150184   9.749   2.264   2.685  1.1704 -0.3230  0.9180
47648SOL    HW250185   9.614   2.197   2.665  1.7508 -1.2445  0.0112
47649SOL     OW50186   8.706   7.831   2.871  0.2846 -0.3314  0.5688
47649SOL    HW150187   8.765   7.905   2.857  0.8259 -0.7968  0.3351
47649SOL    HW250188   8.764   7.759   2.896 -0.0932 -1.0189 -0.4585
47650SOL     OW50189   5.658   1.363  11.978  0.2819 -0.7287 -0.5089
47650SOL    HW150190   5.708   1.389  12.056 -0.3809  0.8116 -0.5481
47650SOL    HW250191   5.695   1.279  11.952  1.7734 -0.3808  0.3778
47651SOL     OW50192   2.328   3.123   6.475  0.1986  0.1144  0.4215
47651SOL    HW150193   2.298   3.034   6.458  0.5171 -0.0729  0.8255
47651SOL    HW250194   2.284   3.149   6.556 -0.7813  0.7517 -0.2845
47652SOL     OW50195   8.958   2.857   2.586  0.3516 -0.2666 -0.0634
47652SOL    HW150196   8.917   2.775   2.557  0.6887 -0.5523  0.2696
47652SOL    HW250197   9.000   2.892   2.507 -0.8122  0.2070 -0.4963
47653SOL     OW50198   2.980  10.264   5.251 -0.5298 -0.3735  0.3065
47653SOL    HW150199   3.020  10.314   5.180 -0.9502 -0.6730 -0.1450
47653SOL    HW250200   3.054  10.225   5.297 -0.0080  2.2722  1.9298
47654SOL     OW50201   6.093   8.881   8.746  0.1847  0.4789  0.4162
47654SOL    HW150202   6.123   8.940   8.677  1.9967 -2.6045 -1.6572
47654SOL    HW250203   6.008   8.849   8.716  0.1013  0.5494  0.5726
47655SOL     OW50204   6.338  12.063   5.213 -0.0879 -0.0523 -0.4022
47655SOL    HW150205   6.360  11.977   5.250  1.6572  0.4361 -0.2257
47655SOL    HW250206   6.367  12.058   5.122  2.4275  1.1482  0.2596
47656SOL     OW50207   4.162   4.695   8.069  0.6846 -0.1152  0.2482
47656SOL    HW150208   4.220   4.758   8.112  0.6791  0.5445 -0.6887
47656SOL    HW250209   4.142   4.631   8.138 -0.5048  1.6717  1.6538
47657SOL     OW50210   4.277   4.344   3.054 -0.4758  0.1704  0.4922
47657SOL    HW150211   4.206   4.304   3.104 -0.5778  0.5459  0.6501
47657SOL    HW250212   4.251   4.436   3.045 -0.6671  0.0251 -0.6089
47658SOL     OW50213   6.653   1.284   9.831 -0.1430  0.3878 -0.0133
47658SOL    HW150214   6.601   1.249   9.904 -1.6391  3.0241  0.3183
47658SOL    HW250215   6.701   1.209   9.797 -1.0333 -1.3556  2.3356
47659SOL     OW50216  10.364   8.526  10.136 -0.0198 -0.3288 -1.0700
47659SOL    HW150217  10.396   8.615  10.123  0.2600 -0.5001 -1.5629
47659SOL    HW250218  10.426   8.471  10.089 -0.8165 -0.6990 -1.7089
47660SOL     OW50219  11.467  11.359  10.608  0.1344 -0.1593  0.3691
47660SOL    HW150220  11.453  11.325  10.519  0.2104  1.6211 -0.3548
47660SOL    HW250221  11.560  11.382  10.610 -0.2732  1.6097  0.2251
47661SOL     OW50222   4.788  11.761   0.755 -0.4370  0.6158  0.5450
47661SOL    HW150223   4.764  11.762   0.847  0.0871  0.4087  0.6903
47661SOL    HW250224   4.878  11.728   0.754 -0.6511  0.0129 -0.0862
47662SOL     OW50225   5.505   2.713   1.864 -0.6851  0.3797  0.3249
47662SOL    HW150226   5.479   2.689   1.953 -0.6462  1.3736  0.6120
47662SOL    HW250227   5.554   2.794   1.874  0.3335 -0.1107 -0.4878
47663SOL     OW50228   0.570   6.402   2.198  0.2116  0.5673 -0.2553
47663SOL    HW150229   0.647   6.383   2.145  0.5139 -1.2706  0.7549
47663SOL    HW250230   0.501   6.420   2.135  0.8532 -0.3203 -1.2445
47664SOL     OW50231   5.699   2.515   2.920  0.2781 -0.3551  0.4543
47664SOL    HW150232   5.732   2.546   3.004 -0.8931  0.4773  0.6287
47664SOL    HW250233   5.766   2.542   2.857  0.0033  1.2165  0.7986
47665SOL     OW50234   2.133   3.568   7.615  0.2702 -0.0232 -0.1701
47665SOL    HW150235   2.080   3.507   7.563 -0.9031  0.7697  0.0558
47665SOL    HW250236   2.122   3.538   7.705 -0.2030  0.4282 -0.0724
47666SOL     OW50237   1.967  12.676   9.003 -0.0269 -0.0536  0.1904
47666SOL    HW150238   2.040  12.729   8.971  0.3586 -1.6530 -1.7864
47666SOL    HW250239   1.892  12.705   8.952 -0.1003 -0.4783  0.0550
47667SOL     OW50240   6.254   1.606   2.364 -0.2451  0.3042  0.1654
47667SOL    HW150241   6.242   1.595   2.269  2.0956  1.1231 -0.3124
47667SOL    HW250242   6.243   1.700   2.378  1.0635  0.4537  0.3629
47668SOL     OW50243  12.459   0.078  11.847 -0.4783 -0.0001 -0.4608
47668SOL    HW150244  12.512  -0.001  11.854 -0.1868  0.2407  0.0661
47668SOL    HW250245  12.504   0.132  11.781  0.4884  0.6227  0.6696
47669SOL     OW50246   7.586   7.309   9.269  0.3823  0.6757 -0.3580
47669SOL    HW150247   7.543   7.306   9.355  0.1078 -0.5769 -0.5180
47669SOL    HW250248   7.642   7.386   9.273 -0.9405  1.6389  0.3101
47670SOL     OW50249   9.100   6.402   0.191  0.0721  0.1098  0.4571
47670SOL    HW150250   9.180   6.454   0.202  0.6075 -0.2587 -1.4431
47670SOL    HW250251   9.132   6.312   0.180 -0.6811 -0.2078  0.7997
47671SOL     OW50252   3.141   8.745   0.536  0.2413  0.5106  0.0015
47671SOL    HW150253   3.142   8.654   0.504  2.4033  0.5143 -0.0605
47671SOL    HW250254   3.233   8.770   0.540  0.0438  1.2415  4.1846
47672SOL     OW50255   0.809   2.906   7.218  0.3049  0.2685  0.2537
47672SOL    HW150256   0.788   2.816   7.244  1.1367  0.3206  1.1824
47672SOL    HW250257   0.846   2.897   7.130 -1.5706 -0.0369 -0.5449
47673SOL     OW50258   0.698   7.394   5.352 -0.2181  0.6491 -0.4878
47673SOL    HW150259   0.625   7.455   5.340  0.2686  2.1367  2.8996
47673SOL    HW250260   0.657   7.315   5.386 -0.3914  1.2880  0.8755
47674SOL     OW50261  11.567  11.071   5.197 -0.0643  0.3252  0.1199
47674SOL    HW150262  11.543  10.993   5.246  2.6116 -1.0356 -0.5081
47674SOL    HW250263  11.612  11.126   5.261 -1.7095  1.2832  0.4968
47675SOL     OW50264   1.828   2.591   6.880  0.6297  0.2296  0.3432
47675SOL    HW150265   1.885   2.554   6.812  0.9969  0.3534  0.5821
47675SOL    HW250266   1.862   2.555   6.962  0.9544  1.0459  0.5751
47676SOL     OW50267   8.697  12.698  12.524 -0.5440  0.0352 -0.3891
47676SOL    HW150268   8.661  12.751  12.453  1.2155  2.4280  0.3690
47676SOL    HW250269   8.765  12.645  12.483  0.5150  1.4622 -0.5523
47677SOL     OW50270  10.452   0.212   0.275  0.4193  0.0150  0.6712
47677SOL    HW150271  10.406   0.133   0.247  2.3307 -0.9846  0.2517
47677SOL    HW250272  10.402   0.284   0.235 -0.8318 -1.0096  0.3366
47678SOL     OW50273   7.069   3.349   4.228 -0.1569  0.4843 -0.0096
47678SOL    HW150274   6.998   3.412   4.218  0.4237  1.5294  2.0058
47678SOL    HW250275   7.149   3.400   4.216  0.3178 -0.5139 -1.4048
47679SOL     OW50276   7.950  11.273   9.728 -0.0935 -0.6520 -0.0352
47679SOL    HW150277   7.977  11.186   9.701  1.4887 -0.4160  0.7090
47679SOL    HW250278   8.030  11.317   9.755 -0.5260  1.7044 -2.1349
47680SOL     OW50279   3.492   1.266   5.516  0.2037  0.6667  0.6618
47680SOL    HW150280   3.567   1.244   5.460  0.4415  0.8483  0.9047
47680SOL    HW250281   3.525   1.253   5.605 -0.3011 -0.0302  0.7519
47681SOL     OW50282   7.815   5.434   5.396  0.2045  0.0802  0.0306
47681SOL    HW150283   7.797   5.527   5.390 -0.0474 -0.0242 -1.0054
47681SOL    HW250284   7.900   5.423   5.353  0.5541 -0.0902  0.7327
47682SOL     OW50285   7.079   8.314   0.268  0.2608  0.0814 -0.1460
47682SOL    HW150286   7.087   8.219   0.264  1.4706  0.1687 -0.3088
47682SOL    HW250287   7.017   8.331   0.339  3.3005 -0.7600  2.9739
47683SOL     OW50288   6.830  11.696   5.459 -0.5462 -0.1902 -0.0860
47683SOL    HW150289   6.859  11.774   5.507 -1.1732  0.3728 -0.5961
47683SOL    HW250290   6.870  11.705   5.372 -0.2073 -0.7042  0.0114
47684SOL     OW50291   3.336   6.258   6.750 -0.3532 -0.1385  0.1441
47684SOL    HW150292   3.336   6.327   6.683  2.3562 -1.1183 -1.0071
47684SOL    HW250293   3.390   6.294   6.821  0.8324 -0.9038 -0.3387
47685SOL     OW50294   3.441   0.140   5.920 -0.0923 -0.4773 -0.1992
47685SOL    HW150295   3.366   0.097   5.879 -1.2369  0.1787  1.1053
47685SOL    HW250296   3.460   0.086   5.997  0.1917 -0.1422 -0.0306
47686SOL     OW50297   9.140   9.717  10.744 -0.1075  0.0177 -0.3811
47686SOL    HW150298   9.057   9.715  10.698  0.3243  3.5477 -1.6567
47686SOL    HW250299   9.131   9.787  10.809  0.3877 -2.6996  2.9320
47687SOL     OW50300  10.852   5.593   8.085 -0.5317 -0.5532 -0.1653
47687SOL    HW150301  10.787   5.565   8.021 -0.2728 -0.6808 -0.3769
47687SOL    HW250302  10.855   5.522   8.149  0.0782 -0.9898 -0.6684
47688SOL     OW50303   1.145  10.308   3.029 -0.0708 -0.4592  0.0805
47688SOL    HW150304   1.146  10.323   3.124  0.5980  1.5659 -0.1988
47688SOL    HW250305   1.235  10.325   3.001 -0.4762 -0.0935 -1.0459
47689SOL     OW50306   2.294  11.378   2.428 -0.5832  0.2555  0.6068
47689SOL    HW150307   2.368  11.437   2.438 -0.3740 -0.1856  1.9295
47689SOL    HW250308   2.296  11.324   2.507  0.0772 -2.4831 -1.1257
47690SOL     OW50309   0.730   5.392   2.323 -0.0705  0.2868  0.2311
47690SOL    HW150310   0.668   5.357   2.386  1.3106 -0.7894  1.0615
47690SOL    HW250311   0.770   5.467   2.367  0.9767 -0.5335  0.7377
47691SOL     OW50312   4.352   1.575  10.850 -0.1922 -0.2384  0.4309
47691SOL    HW150313   4.424   1.518  10.877 -0.6115 -1.3477 -0.6632
47691SOL    HW250314   4.275   1.542  10.897 -0.8150 -1.8362 -1.5497
47692SOL     OW50315   0.023  12.168   7.758 -0.1161  0.1990  0.1268
47692SOL    HW150316   0.118  12.182   7.756  0.0114 -0.3411  1.3454
47692SOL    HW250317   0.012  12.088   7.811 -1.3686  1.7645  2.3925
47693SOL     OW50318   6.049   0.766   2.657 -0.4714 -0.0918  0.2850
47693SOL    HW150319   6.134   0.739   2.623  0.3250  1.5037  0.9323
47693SOL    HW250320   5.990   0.758   2.582  0.7084  0.8691 -0.7868
47694SOL     OW50321  10.650   9.530   2.726 -0.3537  0.5107 -0.3597
47694SOL    HW150322  10.739   9.500   2.742 -0.0431  0.4722 -1.9936
47694SOL    HW250323  10.639   9.606   2.784  0.7524  0.5340 -0.1623
47695SOL     OW50324   1.709   5.521  10.210  0.3334  0.0678  0.3075
47695SOL    HW150325   1.661   5.469  10.275 -1.1008 -0.5783 -1.1640
47695SOL    HW250326   1.769   5.458  10.169  0.1142  0.0744 -0.0325
47696SOL     OW50327   5.828   7.100  11.030 -0.6620 -0.3022  0.0693
47696SOL    HW150328   5.780   7.134  10.955 -0.2932  0.6286  0.2327
47696SOL    HW250329   5.918   7.127  11.015 -0.6843  0.4618  1.1346
47697SOL     OW50330   3.921   6.245   4.489  0.9169  0.3283 -0.1886
47697SOL    HW150331   3.937   6.152   4.505 -1.1321 -0.1411 -0.5477
47697SOL    HW250332   3.838   6.263   4.533  0.7655  1.7372 -0.9790
47698SOL     OW50333   3.696   3.040   7.677 -0.9130 -0.1022 -0.6558
47698SOL    HW150334   3.774   2.994   7.710 -1.3388  0.2511  0.9399
47698SOL    HW250335   3.731   3.111   7.623 -0.1423 -0.3054 -0.4356
47699SOL     OW50336   1.942   4.918   6.691  0.0720 -0.3110 -0.0391
47699SOL    HW150337   1.989   4.871   6.760  0.9616 -3.3797 -2.5069
47699SOL    HW250338   1.855   4.880   6.690  0.8715 -2.3097 -2.2190
47700SOL     OW50339  10.561   7.594  10.936 -0.6192  0.5644 -0.8584
47700SOL    HW150340  10.571   7.566  11.027  2.4404  0.6815 -1.0353
47700SOL    HW250341  10.497   7.534  10.899  1.0926 -2.2477  0.3700
47701SOL     OW50342   5.262  11.446   0.800  0.3047  0.0457 -1.1223
47701SOL    HW150343   5.306  11.520   0.758 -0.7768  2.2124  1.3154
47701SOL    HW250344   5.279  11.458   0.893 -0.3364 -2.5522 -0.6005
47702SOL     OW50345   4.310   7.544  12.064 -0.1065  0.0849 -0.3018
47702SOL    HW150346   4.319   7.461  12.017  0.5410 -0.3359  0.5541
47702SOL    HW250347   4.395   7.559  12.103 -0.2227  1.1576 -0.4387
47703SOL     OW50348   7.188   6.238   8.334 -0.3003  0.2452  0.0075
47703SOL    HW150349   7.238   6.242   8.253 -1.9469  0.6981 -1.0358
47703SOL    HW250350   7.105   6.197   8.309 -0.8548  0.4218  1.4561
47704SOL     OW50351   7.379  12.416   7.027 -0.1975  0.0352 -0.3047
47704SOL    HW150352   7.383  12.383   7.117 -1.1230 -1.2937 -0.7240
47704SOL    HW250353   7.362  12.510   7.037  1.4233  0.2569  0.9061
47705SOL     OW50354   2.772   4.815  12.135  0.3067 -0.3762 -0.9849
47705SOL    HW150355   2.786   4.766  12.054  0.5236  1.0134 -1.8144
47705SOL    HW250356   2.739   4.900  12.107  3.0329  1.2006  0.1666
47706SOL     OW50357   6.664  10.910   6.226  0.1960  0.3029  0.3592
47706SOL    HW150358   6.748  10.949   6.248 -0.2759  0.7074  1.4991
47706SOL    HW250359   6.682  10.816   6.219  0.8714  0.4621 -0.1011
47707SOL     OW50360   9.849   6.917   8.340  0.6268  0.1789 -0.1791
47707SOL    HW150361   9.791   6.914   8.415  2.3876  0.5221  1.2594
47707SOL    HW250362   9.837   7.005   8.304  1.1753  0.7109  0.8986
47708SOL     OW50363   9.765   2.898   5.765 -0.0548  0.3103  0.1771
47708SOL    HW150364   9.813   2.903   5.682 -0.3788 -0.0886 -0.0362
47708SOL    HW250365   9.683   2.946   5.749  0.0222  0.5101  0.3691
47709SOL     OW50366  11.203   3.176   4.809 -0.5411  0.0659  0.2358
47709SOL    HW150367  11.214   3.082   4.790  0.8566  0.0350  1.0331
47709SOL    HW250368  11.271   3.195   4.874  1.0626  2.2192 -1.8628
47710SOL     OW50369   8.127   9.599   7.514  0.4713 -0.5216  0.4360
47710SOL    HW150370   8.182   9.531   7.554  0.8831 -0.7103 -0.4258
47710SOL    HW250371   8.042   9.558   7.504  0.2558 -0.3495  1.4423
47711SOL     OW50372   1.263   7.349   1.178 -0.7246  0.1196  0.2395
47711SOL    HW150373   1.321   7.417   1.213 -0.0611 -0.2237 -0.1833
47711SOL    HW250374   1.225   7.388   1.099 -0.0516 -0.1415 -0.2123
47712SOL     OW50375   8.378   9.576   5.904  0.4910 -0.3299 -0.5665
47712SOL    HW150376   8.402   9.659   5.862  0.8224 -0.3324 -0.3819
47712SOL    HW250377   8.377   9.595   5.998 -1.8963  0.1134 -0.6284
47713SOL     OW50378   4.265   7.287   9.550  0.7185 -0.9345  0.4909
47713SOL    HW150379   4.313   7.366   9.576 -0.0935 -0.1773 -0.2356
47713SOL    HW250380   4.272   7.228   9.625  1.0059 -0.0072  1.2054
47714SOL     OW50381   3.394   0.992   0.323 -0.4183 -0.6288 -0.1282
47714SOL    HW150382   3.301   0.972   0.310 -0.4894 -0.7133  0.4681
47714SOL    HW250383   3.420   0.936   0.396  0.0839 -0.5503 -0.2467
47715SOL     OW50384   1.183  12.078   0.105  0.0618  0.0429 -0.0937
47715SOL    HW150385   1.115  12.114   0.048 -0.6416  0.1145  0.7783
47715SOL    HW250386   1.263  12.084   0.053 -0.7304 -0.9168 -1.5132
47716SOL     OW50387   7.963   0.818   5.658  0.0903  0.7203  0.0813
47716SOL    HW150388   7.918   0.750   5.709 -0.1026 -0.3003 -1.3703
47716SOL    HW250389   8.051   0.821   5.695  0.0212 -0.1548  0.3580
47717SOL     OW50390   6.746  10.828   6.488 -0.3086 -0.2060  0.2285
47717SOL    HW150391   6.695  10.869   6.558  0.3806  0.0501  0.5867
47717SOL    HW250392   6.680  10.795   6.427 -0.9062  0.0127  0.7444
47718SOL     OW50393   2.219   4.970   3.300  0.3104  0.2391 -0.1629
47718SOL    HW150394   2.193   5.041   3.241 -0.8958  0.0064  0.0620
47718SOL    HW250395   2.175   4.892   3.265  3.1479 -0.8852 -1.5658
47719SOL     OW50396   0.305   0.656   0.316 -0.6657  0.4799  1.0091
47719SOL    HW150397   0.397   0.671   0.294 -0.6412  0.6879  1.2391
47719SOL    HW250398   0.263   0.638   0.232 -0.4798  0.7361  0.8572
47720SOL     OW50399   8.766   4.523  10.749 -0.2650 -0.2695  0.4950
47720SOL    HW150400   8.856   4.551  10.769 -0.7997  1.1717  1.0387
47720SOL    HW250401   8.772   4.485  10.661  0.6648  1.0036 -0.0299
47721SOL     OW50402   8.300   0.797   0.543 -0.1672  0.2301 -0.3375
47721SOL    HW150403   8.215   0.757   0.561  0.6349 -1.6572 -0.5216
47721SOL    HW250404   8.311   0.790   0.448  0.5390 -0.3245 -0.2272
47722SOL     OW50405  10.599  12.447   1.657  0.1639  0.5156 -0.6770
47722SOL    HW150406  10.667  12.514   1.657  0.3042  0.3882 -1.5012
47722SOL    HW250407  10.648  12.364   1.651 -0.0568  0.4174 -1.1734
47723SOL     OW50408   6.722   4.590   1.495 -0.3962 -0.3213  0.6701
47723SOL    HW150409   6.629   4.590   1.516 -0.9138 -1.6560 -1.3343
47723SOL    HW250410   6.737   4.508   1.448  2.1853 -0.9749  2.3656
47724SOL     OW50411  11.496   0.156  12.439  0.0450 -0.2195 -0.2342
47724SOL    HW150412  11.499   0.248  12.465 -0.9701 -0.5971  1.3407
47724SOL    HW250413  11.412   0.124  12.472  0.8352 -1.9681  0.2172
47725SOL     OW50414  11.845  11.470   6.142  0.7439 -0.1099 -0.4437
47725SOL    HW150415  11.908  11.427   6.084  1.1329 -0.3150  0.1213
47725SOL    HW250416  11.761  11.456   6.100  0.8461 -1.5318 -0.2244
47726SOL     OW50417   2.730  12.187   9.984 -0.5659  0.4535  0.4855
47726SOL    HW150418   2.806  12.216   9.933 -1.3647  0.7861 -0.5520
47726SOL    HW250419   2.709  12.261  10.040 -1.1630  1.0299 -0.4727
47727SOL     OW50420  11.556   7.943  12.464  0.0477 -0.2055 -0.0860
47727SOL    HW150421  11.616   7.870  12.451 -0.9056 -1.0859  0.2889
47727SOL    HW250422  11.611   8.021  12.457  1.2530 -0.9805  0.3922
47728SOL     OW50423   8.662   7.005   2.558  0.4209  0.7194 -0.0601
47728SOL    HW150424   8.598   6.961   2.502  0.0219 -0.3021  1.1415
47728SOL    HW250425   8.728   7.038   2.498  1.2395 -2.3266 -1.0009
47729SOL     OW50426   6.630   5.751   0.239 -0.5216  0.1919 -0.3505
47729SOL    HW150427   6.692   5.695   0.286 -1.1830 -0.5739 -0.3683
47729SOL    HW250428   6.665   5.757   0.150 -1.0409 -1.1608 -0.6674
47730SOL     OW50429   5.973   3.674   0.584 -0.2504  0.0666 -0.4053
47730SOL    HW150430   5.888   3.635   0.603 -0.6648  0.8297 -0.6330
47730SOL    HW250431   5.975   3.755   0.635 -0.3960  0.9285 -1.6937
47731SOL     OW50432   8.666  12.404   9.169  0.4763  0.0111 -0.3496
47731SOL    HW150433   8.648  12.401   9.075 -0.0772 -0.6039 -0.2314
47731SOL    HW250434   8.760  12.387   9.176  0.4776 -0.1693 -0.7837
47732SOL     OW50435   1.281   2.717   5.118  0.0699  0.0571  0.5573
47732SOL    HW150436   1.223   2.759   5.054  0.1921  0.4332  0.6919
47732SOL    HW250437   1.350   2.676   5.065 -0.7468 -1.0977  0.3326
47733SOL     OW50438   5.628   6.933   5.731  0.2592 -0.1919  0.2024
47733SOL    HW150439   5.710   6.909   5.774 -0.2257 -1.0112  0.6825
47733SOL    HW250440   5.600   6.853   5.687 -0.1161  0.1811 -0.2461
47734SOL     OW50441   8.615   7.240   2.317  0.4377 -0.8518 -0.0981
47734SOL    HW150442   8.685   7.175   2.320  0.6383 -0.5997  1.0472
47734SOL    HW250443   8.584   7.238   2.226  1.9409 -0.9510 -0.6331
47735SOL     OW50444   1.988   1.914   0.910  0.0849 -0.3944 -0.0034
47735SOL    HW150445   1.901   1.875   0.902  0.2652 -0.5936 -1.0831
47735SOL    HW250446   1.972   2.008   0.919 -0.2644 -0.5086  0.6607
47736SOL     OW50447   9.470   5.066   1.627 -0.3189  0.2622  0.4117
47736SOL    HW150448   9.456   5.144   1.681  1.3081 -0.2177  1.6097
47736SOL    HW250449   9.523   5.098   1.553 -1.2486  0.6267 -0.1109
47737SOL     OW50450  10.426  12.200   7.029 -0.0595 -0.1773  0.1133
47737SOL    HW150451  10.460  12.260   7.095  1.9623 -0.7203 -0.3634
47737SOL    HW250452  10.434  12.113   7.070  1.6547 -0.5660 -0.9578
47738SOL     OW50453   9.781   7.767   5.287 -0.1049  0.1787 -0.0621
47738SOL    HW150454   9.796   7.835   5.222  1.1244  1.1441  1.1689
47738SOL    HW250455   9.868   7.732   5.306 -0.6014 -1.0190  0.0909
47739SOL     OW50456   6.434  10.901   0.033  0.1394  0.0394 -0.5011
47739SOL    HW150457   6.356  10.949   0.004 -0.5761 -0.2037  0.9662
47739SOL    HW250458   6.401  10.828   0.085  1.3399 -0.1098  0.1028
47740SOL     OW50459   6.361  10.660  10.170  0.0391  0.2573  0.5104
47740SOL    HW150460   6.300  10.728  10.199 -0.1966  0.0831  0.4242
47740SOL    HW250461   6.385  10.685  10.081 -0.2864  0.0630  0.3665
47741SOL     OW50462   3.455  12.186   5.029  0.0469  0.7285 -0.1470
47741SOL    HW150463   3.511  12.264   5.027  0.2476  0.5711 -0.8220
47741SOL    HW250464   3.444  12.168   5.123  2.9136 -0.4856  0.0733
47742SOL     OW50465   7.160   6.042   5.127 -0.2170  0.0079  0.2634
47742SOL    HW150466   7.187   6.126   5.164  1.0271  0.5611 -1.7175
47742SOL    HW250467   7.230   6.020   5.065 -1.9742 -1.0209 -1.4489
47743SOL     OW50468  11.730   2.153   8.314  0.6360  0.2424 -0.0908
47743SOL    HW150469  11.800   2.094   8.288 -0.5545 -0.7381 -1.2619
47743SOL    HW250470  11.760   2.240   8.289  1.5307 -0.1329 -0.3312
47744SOL     OW50471   9.585   5.270   7.806 -0.2920  0.4552 -0.2673
47744SOL    HW150472   9.500   5.249   7.845  0.1044  0.3804  0.5675
47744SOL    HW250473   9.590   5.366   7.807 -1.8342  0.6980 -3.5085
47745SOL     OW50474   4.025  10.911   1.238  0.0032  0.6779  0.3452
47745SOL    HW150475   3.948  10.961   1.212 -0.0872  1.9427  2.7584
47745SOL    HW250476   3.993  10.847   1.302  0.1603 -2.4675 -2.4696
47746SOL     OW50477   7.448   5.333   6.954  0.4567 -0.3488 -0.7972
47746SOL    HW150478   7.445   5.281   7.034 -0.1595 -0.5262 -0.9350
47746SOL    HW250479   7.451   5.424   6.985 -1.1188 -0.3442 -0.5604
47747SOL     OW50480  10.426   1.266   8.278 -0.4494  0.1501  0.1972
47747SOL    HW150481  10.496   1.216   8.235  0.7010  2.1032 -0.3249
47747SOL    HW250482  10.453   1.272   8.369 -1.7179 -1.9897  0.7880
47748SOL     OW50483   9.799   2.961   4.653  0.4921  0.4829  0.2482
47748SOL    HW150484   9.720   2.951   4.601  1.0815  0.9393 -0.7677
47748SOL    HW250485   9.859   2.895   4.618  0.4959 -0.0462  1.1914
47749SOL     OW50486   6.038   7.294  11.447  0.7078  0.1927  0.5195
47749SOL    HW150487   6.110   7.357  11.453  0.7190  0.1505  0.8342
47749SOL    HW250488   6.075   7.213  11.482  0.3217  0.3272  1.2435
47750SOL     OW50489   7.965  11.345   0.425 -0.2919 -0.1378 -0.0344
47750SOL    HW150490   7.970  11.370   0.517  1.4472 -0.0782 -0.1293
47750SOL    HW250491   8.004  11.419   0.378 -0.6188 -0.4304 -0.7826
47751SOL     OW50492   6.816   0.585  11.025 -0.2739 -0.3512  0.3014
47751SOL    HW150493   6.729   0.585  10.986 -0.5829  0.5473  0.9483
47751SOL    HW250494   6.812   0.518  11.094 -0.7537  0.3114  0.9365
47752SOL     OW50495   4.384   0.278   2.547  0.3263  0.2340  0.0103
47752SOL    HW150496   4.294   0.293   2.577  0.3716  2.0098 -0.6272
47752SOL    HW250497   4.391   0.328   2.466  1.8870  0.0944  0.0255
47753SOL     OW50498  12.482   8.030   6.224 -0.0999  0.0669 -0.1152
47753SOL    HW150499  12.405   8.064   6.269  1.3313  3.1955  0.2317
47753SOL    HW250500  12.451   8.012   6.135 -1.0538  2.4415 -0.3438
47754SOL     OW50501   4.633   7.203   2.777 -0.4456  0.3381 -0.3313
47754SOL    HW150502   4.582   7.159   2.844  0.3422  0.1540  0.1695
47754SOL    HW250503   4.677   7.132   2.730  2.3025  0.5488  1.6600
47755SOL     OW50504  11.123  11.797   2.040 -0.3957 -0.1156 -0.5478
47755SOL    HW150505  11.149  11.790   2.132 -2.0128  0.5140 -0.0003
47755SOL    HW250506  11.177  11.732   1.994  1.7747  0.8338  0.5242
47756SOL     OW50507  10.900   3.390   9.636 -0.5885  0.3359 -0.0170
47756SOL    HW150508  10.978   3.431   9.600 -0.6707  2.1356  1.6761
47756SOL    HW250509  10.845   3.372   9.560  0.3566  1.4656 -1.0184
47757SOL     OW50510   0.453   7.878   1.265 -0.4307 -0.6331 -0.1477
47757SOL    HW150511   0.390   7.807   1.256 -0.7928 -0.2526 -0.6452
47757SOL    HW250512   0.405   7.957   1.242 -0.7217  0.1299  2.6707
47758SOL     OW50513   4.067  11.358  12.201  0.2095 -0.0988  0.2776
47758SOL    HW150514   4.038  11.296  12.268  0.9815 -0.0514  0.6756
47758SOL    HW250515   4.142  11.403  12.241  0.0415  0.6655 -0.2324
47759SOL     OW50516   8.037   0.966  12.159  0.4131  0.1151 -0.2762
47759SOL    HW150517   8.075   0.962  12.247  1.4757  0.4470 -0.7068
47759SOL    HW250518   8.095   0.913  12.105 -0.5874 -0.5980 -0.6678
47760SOL     OW50519  11.966   1.144   6.945  0.0849 -0.2300 -0.2626
47760SOL    HW150520  12.049   1.140   6.991 -0.0442 -1.0912 -0.0732
47760SOL    HW250521  11.899   1.137   7.013 -0.1159 -0.9487 -0.5194
47761SOL     OW50522   5.211  11.634  12.145  0.1867 -0.3617 -0.0722
47761SOL    HW150523   5.137  11.684  12.110 -0.9083 -1.0351  1.1643
47761SOL    HW250524   5.266  11.615  12.069 -1.5719 -0.9402 -1.2781
47762SOL     OW50525  11.257   7.167   0.292 -0.1874  0.0919  0.5057
47762SOL    HW150526  11.298   7.081   0.289  1.3948  0.7990  0.6017
47762SOL    HW250527  11.293   7.213   0.216  0.0484  1.1005  1.1982
47763SOL     OW50528   0.209  12.471   2.082  0.2164 -0.1089  0.2057
47763SOL    HW150529   0.139  12.490   2.021 -0.4383 -0.4241  0.8383
47763SOL    HW250530   0.272  12.419   2.032 -0.3251 -0.3875 -0.1875
47764SOL     OW50531  12.320  12.185   2.510 -0.1004  0.0357  0.3338
47764SOL    HW150532  12.245  12.190   2.568 -0.4793 -0.3382 -0.1139
47764SOL    HW250533  12.285  12.212   2.424  0.6989  1.7228  0.4915
47765SOL     OW50534   0.645  10.419   3.358  0.5883 -0.2976 -0.7575
47765SOL    HW150535   0.587  10.362   3.408  1.3564 -0.2847  0.1826
47765SOL    HW250536   0.587  10.476   3.308 -0.2104 -0.0528  0.4298
47766SOL     OW50537   3.005  11.465   3.766  0.1822 -0.8984  0.4792
47766SOL    HW150538   2.910  11.465   3.757  0.0315  0.4257  1.6935
47766SOL    HW250539   3.020  11.489   3.858  1.6822  0.2053 -0.0158
47767SOL     OW50540   1.427  10.671   6.262  0.2076 -0.2519  0.1741
47767SOL    HW150541   1.440  10.588   6.217 -0.8061 -0.4061  0.1478
47767SOL    HW250542   1.513  10.715   6.257  0.1678 -0.3019 -1.7984
47768SOL     OW50543   4.666  12.481   1.011  0.5759  0.0999  0.0121
47768SOL    HW150544   4.589  12.459   1.064  0.8985 -1.8538 -0.2384
47768SOL    HW250545   4.630  12.522   0.932 -0.1383  0.1852  0.3734
47769SOL     OW50546   2.313   9.845   6.623 -0.0561 -0.1069 -0.0493
47769SOL    HW150547   2.269   9.841   6.539  1.7185 -0.3653 -1.0143
47769SOL    HW250548   2.301   9.757   6.661 -1.1363  0.1126  0.1394
47770SOL     OW50549   3.969  10.384   0.468 -0.2295 -0.2873 -0.0286
47770SOL    HW150550   3.936  10.407   0.555 -0.7783 -0.1742 -0.2606
47770SOL    HW250551   3.907  10.319   0.436 -0.1321 -0.1966 -0.4031
47771SOL     OW50552   6.715   5.168  11.745 -0.2891 -0.2005  0.1495
47771SOL    HW150553   6.684   5.226  11.814  0.0627  0.8198 -0.5247
47771SOL    HW250554   6.690   5.212  11.663  1.4598 -0.1450 -0.3988
47772SOL     OW50555   8.734  11.375  12.304  0.3977  0.2238 -0.2141
47772SOL    HW150556   8.776  11.289  12.310  0.0290 -0.0663 -1.4791
47772SOL    HW250557   8.800  11.436  12.336  0.4999 -0.5609  1.1335
47773SOL     OW50558   9.581  10.682   8.873  0.4192  0.1675 -1.2386
47773SOL    HW150559   9.539  10.767   8.865  1.8510  0.8533 -2.0263
47773SOL    HW250560   9.515  10.619   8.843 -1.0020  0.8691  0.3007
47774SOL     OW50561   4.487   4.718   0.525  0.2309  0.0931  0.3247
47774SOL    HW150562   4.406   4.767   0.534  0.2921  0.0973  0.8827
47774SOL    HW250563   4.525   4.749   0.443 -0.5360 -0.2177 -0.1585
47775SOL     OW50564   9.817   9.621  11.515 -0.2092  0.0082 -0.4210
47775SOL    HW150565   9.827   9.633  11.421 -0.5160  0.8559 -0.3565
47775SOL    HW250566   9.782   9.705  11.546  0.0400 -0.2062  0.4668
47776SOL     OW50567  10.804  10.561   2.317 -0.8197  0.0302 -0.0600
47776SOL    HW150568  10.741  10.506   2.365  1.0049 -0.8767  1.4298
47776SOL    HW250569  10.837  10.622   2.383  1.8239 -1.3084  0.0159
47777SOL     OW50570   8.372   9.578   3.638 -0.5284 -0.4130 -0.1537
47777SOL    HW150571   8.407   9.627   3.713  0.6501 -0.1860 -0.8367
47777SOL    HW250572   8.338   9.497   3.677  3.7213 -2.2096  0.2791
47778SOL     OW50573   2.207   8.930   8.995 -0.2861  0.5152 -0.0745
47778SOL    HW150574   2.152   8.993   9.041  0.7226  0.5161  1.1875
47778SOL    HW250575   2.290   8.977   8.980  0.1072 -0.1562 -0.0605
47779SOL     OW50576   3.020   5.589   2.198 -0.1662 -0.1226  0.3273
47779SOL    HW150577   3.036   5.540   2.117  1.3957 -1.4416  1.3659
47779SOL    HW250578   3.076   5.666   2.191  0.9092 -0.8606  0.6582
47780SOL     OW50579   2.357   2.834   6.526 -0.4122  0.2569 -0.3955
47780SOL    HW150580   2.440   2.854   6.484 -0.4823  0.9035 -0.2486
47780SOL    HW250581   2.381   2.798   6.611 -0.2600  1.9318  0.3155
47781SOL     OW50582   0.153   2.366   7.380 -0.5383 -0.3439 -0.5398
47781SOL    HW150583   0.143   2.445   7.433  0.0474  0.0689 -1.0197
47781SOL    HW250584   0.133   2.294   7.439 -3.4166  0.2298 -0.6863
47782SOL     OW50585   6.433   1.482  10.013  0.1969  0.3184  0.3623
47782SOL    HW150586   6.417   1.564   9.966  1.1622  0.7016  0.6670
47782SOL    HW250587   6.363   1.424   9.984  0.5235  0.6653 -1.2473
47783SOL     OW50588   5.412   0.788  10.451 -0.2766  0.1059  0.0635
47783SOL    HW150589   5.361   0.715  10.414 -0.7214 -1.1762  2.9476
47783SOL    HW250590   5.503   0.764  10.436 -0.4372 -0.5431  0.0877
47784SOL     OW50591  11.653   6.251   0.665  0.6646 -0.2923 -0.3600
47784SOL    HW150592  11.558   6.240   0.659  0.6874 -0.2259 -0.9418
47784SOL    HW250593  11.666   6.308   0.741  0.1487  0.7621 -1.0330
47785SOL     OW50594   4.945   2.467   3.608 -0.1151  0.8203 -0.3548
47785SOL    HW150595   4.986   2.512   3.683  1.5211 -1.0254 -0.0557
47785SOL    HW250596   4.929   2.378   3.640  0.7591 -0.0517 -2.2201
47786SOL     OW50597   4.404   1.673  10.598  0.6718 -0.7691 -0.1383
47786SOL    HW150598   4.339   1.649  10.531  0.3845 -0.8972  0.1850
47786SOL    HW250599   4.369   1.636  10.679  0.0602  1.0085  0.4356
47787SOL     OW50600  11.659   8.335   0.099 -0.3672 -0.2726 -0.2114
47787SOL    HW150601  11.720   8.264   0.078 -0.7021 -0.9777  1.1202
47787SOL    HW250602  11.646   8.381   0.015 -0.7166 -2.2296 -1.2986
47788SOL     OW50603   6.867   5.630   0.351 -0.1312 -0.2883  0.3814
47788SOL    HW150604   6.958   5.638   0.321  0.2800 -0.5438  1.5053
47788SOL    HW250605   6.873   5.638   0.447 -1.4187  0.7471  0.4002
47789SOL     OW50606   9.117   2.729   8.265 -0.2511 -0.4675  0.1106
47789SOL    HW150607   9.082   2.682   8.189  1.7357  0.9650 -1.8112
47789SOL    HW250608   9.186   2.671   8.298  0.6889  0.0426 -0.8827
47790SOL     OW50609  11.354  10.804   4.790  0.3439  0.2357  0.2577
47790SOL    HW150610  11.268  10.764   4.777  0.5425 -0.7288  1.7264
47790SOL    HW250611  11.357  10.824   4.883  2.1918 -0.9118  0.4843
47791SOL     OW50612   0.228  12.320   4.321  0.3477 -0.0658 -0.3490
47791SOL    HW150613   0.222  12.301   4.415  2.0870 -0.4444 -0.2836
47791SOL    HW250614   0.315  12.290   4.296  0.5020  1.4268 -1.7777
47792SOL     OW50615   3.786   0.407  10.971 -0.0510  0.2913 -0.7612
47792SOL    HW150616   3.815   0.486  11.015  2.0330  0.4123 -2.2151
47792SOL    HW250617   3.691   0.415  10.967 -0.0723  1.5933  1.1195
47793SOL     OW50618   5.775   0.747   7.407  0.6816  0.3643 -0.0197
47793SOL    HW150619   5.809   0.731   7.495  2.2920 -0.9441 -0.8207
47793SOL    HW250620   5.853   0.747   7.351 -0.3743  0.3911 -1.5361
47794SOL     OW50621   4.423   0.640   9.723  0.0440 -0.1580  0.8060
47794SOL    HW150622   4.506   0.663   9.765 -1.1763  4.6017  1.1173
47794SOL    HW250623   4.449   0.592   9.644  2.9851  0.1815  1.4457
47795SOL     OW50624   2.487  11.036   7.932 -0.2126  0.4131 -0.5067
47795SOL    HW150625   2.451  11.058   7.846 -2.7767 -0.8621  0.1344
47795SOL    HW250626   2.556  10.973   7.914 -0.9919 -0.1452 -1.6560
47796SOL     OW50627   9.755   1.621   5.999  0.2748 -0.4555 -0.4817
47796SOL    HW150628   9.706   1.559   6.052  0.5735 -0.1558  0.1574
47796SOL    HW250629   9.693   1.691   5.979 -0.0388 -0.9153 -1.1350
47797SOL     OW50630   6.429   3.017   2.228 -0.9143 -0.0704  0.4404
47797SOL    HW150631   6.411   3.109   2.209 -1.5488 -0.5517 -1.5535
47797SOL    HW250632   6.523   3.014   2.246 -0.9430  0.9968  0.8204
47798SOL     OW50633   2.830   6.872  10.342  0.2620 -0.0790 -0.1249
47798SOL    HW150634   2.831   6.966  10.361 -0.5790  0.3499 -1.9947
47798SOL    HW250635   2.918   6.842  10.367  0.8722  1.4014 -0.3610
47799SOL     OW50636   4.388   5.933  11.148  0.0160  0.1634  0.1274
47799SOL    HW150637   4.322   5.959  11.212 -0.1623 -0.2682  0.1282
47799SOL    HW250638   4.388   5.837  11.152 -0.8229  0.0676 -1.3210
47800SOL     OW50639   9.482   5.104  10.216  0.6480 -0.0504 -0.1239
47800SOL    HW150640   9.542   5.172  10.185  2.1479 -1.2048  0.1418
47800SOL    HW250641   9.509   5.025  10.170 -0.4205 -0.6977  0.3254
47801SOL     OW50642   6.109   5.420   1.516 -0.1642 -0.3776 -0.0659
47801SOL    HW150643   6.044   5.368   1.468 -0.2304 -0.9825  0.6713
47801SOL    HW250644   6.060   5.495   1.549 -0.3438 -0.4874 -0.0804
47802SOL     OW50645   5.716  12.453  10.852 -0.1280 -0.2094 -0.2492
47802SOL    HW150646   5.741  12.366  10.883  1.4655 -0.0234 -0.9169
47802SOL    HW250647   5.642  12.477  10.906  0.8231 -1.0449  1.5003
47803SOL     OW50648   1.455   1.802   0.266 -0.5705 -0.6259 -0.4519
47803SOL    HW150649   1.385   1.856   0.304 -1.1807 -2.2188  0.7619
47803SOL    HW250650   1.410   1.727   0.229  0.3069 -0.4890 -1.8663
47804SOL     OW50651   1.702   1.638   5.514  0.0078 -0.6822 -0.0213
47804SOL    HW150652   1.632   1.589   5.471 -0.1731  0.5831 -1.2104
47804SOL    HW250653   1.668   1.657   5.602 -0.8304 -0.7360 -0.3310
47805SOL     OW50654   3.956  12.036   9.783 -0.3229 -0.2146  0.1273
47805SOL    HW150655   3.904  11.971   9.736  0.1860 -1.5086  1.2868
47805SOL    HW250656   4.026  12.059   9.722  0.7486 -2.4043  0.4673
47806SOL     OW50657   2.449   2.306   9.136  0.1750  0.0577  0.0842
47806SOL    HW150658   2.423   2.313   9.228 -0.9864 -0.0960 -0.2059
47806SOL    HW250659   2.369   2.328   9.087  0.5050 -0.7726 -0.8733
47807SOL     OW50660   0.635   9.383  11.773  0.5119  0.4815  0.0859
47807SOL    HW150661   0.707   9.409  11.831  0.1736  1.2649  0.1752
47807SOL    HW250662   0.670   9.397  11.685  0.6631  0.3246  0.1215
47808SOL     OW50663   3.999   7.970   9.976  0.0825  0.0191  0.7156
47808SOL    HW150664   4.030   8.046  10.025  1.4001 -0.1531  0.1757
47808SOL    HW250665   4.044   7.895  10.015  2.8555  0.0720 -1.9654
47809SOL     OW50666   1.463   7.601  12.237  0.4412  0.3825  0.0198
47809SOL    HW150667   1.464   7.587  12.332  0.5526 -0.3026 -0.0758
47809SOL    HW250668   1.370   7.608  12.215  0.3641 -0.4112  0.0554
47810SOL     OW50669   6.452   8.234   3.484 -0.2200 -0.3429 -0.2300
47810SOL    HW150670   6.467   8.233   3.579 -0.2189  1.1508 -0.1752
47810SOL    HW250671   6.401   8.314   3.469  2.2647  1.0872 -1.7942
47811SOL     OW50672   4.388   7.613   1.744  0.5186  0.0530  0.3127
47811SOL    HW150673   4.380   7.574   1.657  1.2312 -0.8396  0.6358
47811SOL    HW250674   4.298   7.632   1.770  0.2217 -0.6718 -0.1713
47812SOL     OW50675   9.846   9.765   3.625  0.1622 -0.2050  0.1957
47812SOL    HW150676   9.898   9.701   3.674 -0.2589 -0.0776  0.8098
47812SOL    HW250677   9.776   9.791   3.684  0.5549  1.1325  0.1180
47813SOL     OW50678  10.306   2.064   9.207 -0.4298 -0.6900  0.8209
47813SOL    HW150679  10.365   2.129   9.245  2.1213 -0.1926 -3.3632
47813SOL    HW250680  10.347   1.979   9.228  0.2138 -0.5061  0.3390
47814SOL     OW50681   6.810   5.075   8.495 -0.4109 -0.1482 -0.3642
47814SOL    HW150682   6.732   5.043   8.541 -1.0917  0.7191 -0.8782
47814SOL    HW250683   6.788   5.165   8.472  0.6283  0.0017 -0.8015
47815SOL     OW50684  12.562   8.322   5.576 -0.0159 -0.0305 -0.9584
47815SOL    HW150685  12.642   8.353   5.533 -0.5501  2.3476 -0.3905
47815SOL    HW250686  12.565   8.360   5.664 -2.6761  1.9255 -1.5735
47816SOL     OW50687   1.829  10.297   5.473  0.1545 -0.4590  0.0541
47816SOL    HW150688   1.843  10.208   5.503 -0.0527 -1.0877 -1.6025
47816SOL    HW250689   1.858  10.296   5.381  1.0683  1.4239  0.2747
47817SOL     OW50690  12.276   9.622   4.142 -0.1896 -1.1073 -0.1891
47817SOL    HW150691  12.336   9.555   4.110 -0.2418 -0.9480 -0.6246
47817SOL    HW250692  12.212   9.632   4.072  0.5880  0.3784 -0.7203
47818SOL     OW50693   1.744   5.760   8.205  0.4792  0.3809  0.9169
47818SOL    HW150694   1.707   5.703   8.272  0.2099 -1.0220 -0.3574
47818SOL    HW250695   1.725   5.715   8.122  0.6611  2.1092 -0.1233
47819SOL     OW50696  12.515   1.713   0.992 -0.0720 -0.1784  0.3764
47819SOL    HW150697  12.487   1.688   1.080  0.5447  0.4210  0.7467
47819SOL    HW250698  12.604   1.679   0.985 -0.3064 -0.6995 -0.2267
47820SOL     OW50699   0.041   4.632   9.359  0.3451 -0.2770  0.0364
47820SOL    HW150700  -0.048   4.621   9.392 -0.5576 -1.3380 -2.5179
47820SOL    HW250701   0.090   4.560   9.399  0.5516  1.2205  2.7132
47821SOL     OW50702   2.550   2.022   1.494  0.1037 -0.2800 -0.3538
47821SOL    HW150703   2.632   2.026   1.543 -0.0973 -2.0023  0.1987
47821SOL    HW250704   2.574   1.985   1.409  0.1769  1.0838 -0.9572
47822SOL     OW50705   5.980   5.003   7.975  0.8872  0.4301  0.2986
47822SOL    HW150706   6.009   4.998   8.066  0.8892  0.1123  0.2809
47822SOL    HW250707   6.058   5.032   7.927  0.2804  3.0163  0.7092
47823SOL     OW50708   6.175   5.523   0.051  0.0402  0.3878 -0.2741
47823SOL    HW150709   6.267   5.516   0.025 -0.0759 -2.0700 -0.2450
47823SOL    HW250710   6.136   5.579  -0.016  1.2543  0.2379 -1.1400
47824SOL     OW50711   1.670  11.482   2.931  0.3323 -0.9290  0.3276
47824SOL    HW150712   1.752  11.435   2.947  1.4304  0.8963  0.3601
47824SOL    HW250713   1.675  11.558   2.989 -0.5936  0.1140 -0.9117
47825SOL     OW50714   4.985   2.259   9.890 -0.1701  0.1716 -0.6566
47825SOL    HW150715   5.070   2.247   9.932 -1.5851  0.8400  2.6686
47825SOL    HW250716   4.979   2.353   9.874  0.0553  0.0120 -1.7541
47826SOL     OW50717   0.297  11.446   7.744  0.0133  0.3321 -0.0627
47826SOL    HW150718   0.231  11.384   7.712 -0.4666  0.4909  0.5965
47826SOL    HW250719   0.372  11.390   7.767  0.3657  0.2123 -1.3971
47827SOL     OW50720   4.537   0.349   0.791 -0.0031  0.5960 -0.4572
47827SOL    HW150721   4.507   0.269   0.749 -0.1030  1.0357 -1.2517
47827SOL    HW250722   4.621   0.368   0.749  1.3236 -0.4617  1.5285
47828SOL     OW50723   6.952  12.521   6.626 -0.0419  0.3386 -0.2255
47828SOL    HW150724   6.886  12.456   6.603  0.4952 -0.5445  0.6751
47828SOL    HW250725   6.938  12.538   6.719  0.8028  0.3571 -0.0937
47829SOL     OW50726   9.949  10.548   1.255  0.2920 -0.5917 -0.1509
47829SOL    HW150727   9.940  10.640   1.229  0.7022 -0.3952  0.3620
47829SOL    HW250728  10.023  10.548   1.317  0.4325 -1.3010 -0.3045
47830SOL     OW50729   1.743   7.597   5.523  0.0045  0.1863  0.1865
47830SOL    HW150730   1.799   7.525   5.494  0.2708  0.1236  0.8533
47830SOL    HW250731   1.800   7.673   5.523  0.5810 -0.1614  2.4457
47831SOL     OW50732  12.058   3.497   5.470  0.3992  0.4075 -0.5553
47831SOL    HW150733  12.033   3.464   5.557 -1.0201  0.4211 -0.9462
47831SOL    HW250734  12.092   3.420   5.425  0.1448  0.1676 -0.3459
47832SOL     OW50735   5.868   3.120   0.657 -0.6695  0.6006 -0.2147
47832SOL    HW150736   5.875   3.143   0.750  0.9512  1.0293 -0.3967
47832SOL    HW250737   5.895   3.200   0.611  2.0903 -0.6163 -0.9388
47833SOL     OW50738   2.628  10.585  11.974 -0.1875  0.3736 -0.0883
47833SOL    HW150739   2.598  10.673  11.997 -0.5270  0.1272  0.4366
47833SOL    HW250740   2.666  10.595  11.887 -1.3911  0.7967 -0.5901
47834SOL     OW50741   6.091   9.840   4.586 -0.7219 -0.2690  0.3997
47834SOL    HW150742   6.006   9.823   4.547 -0.6296 -0.2444  0.1856
47834SOL    HW250743   6.119   9.924   4.549  0.0527 -0.9777 -0.6922
47835SOL     OW50744   9.424  10.571   7.548 -0.4341  0.0373 -0.0044
47835SOL    HW150745   9.504  10.565   7.601 -0.0515  2.3979 -0.2063
47835SOL    HW250746   9.434  10.502   7.482  0.4064 -1.0996  1.2531
47836SOL     OW50747   8.059   9.169   0.889 -0.0047 -0.1760  0.5615
47836SOL    HW150748   8.011   9.105   0.942 -0.3617 -0.4678 -0.1004
47836SOL    HW250749   8.116   9.214   0.952 -1.4550  0.4943  1.4519
47837SOL     OW50750   3.013  10.042  10.774 -0.1733  1.2577  0.3933
47837SOL    HW150751   3.085   9.982  10.796 -0.3315  1.1085  0.5034
47837SOL    HW250752   3.048  10.096  10.702  0.0554  1.1993  0.4584
47838SOL     OW50753   6.425   8.670  11.933 -0.6086 -0.1941  0.1557
47838SOL    HW150754   6.384   8.662  11.847 -1.3138  0.5551  0.4131
47838SOL    HW250755   6.429   8.580  11.965 -1.4445 -0.3565 -0.1610
47839SOL     OW50756   6.357   9.030   7.110 -0.0812 -0.0357  0.1778
47839SOL    HW150757   6.325   9.034   7.201 -1.6511  2.3942 -0.3775
47839SOL    HW250758   6.443   9.072   7.114 -0.0477 -0.1302  0.5769
47840SOL     OW50759   1.442   6.919   0.665 -0.1377 -0.0710  0.6418
47840SOL    HW150760   1.468   7.011   0.663 -0.1352 -0.0743 -0.7841
47840SOL    HW250761   1.501   6.877   0.601  0.6774 -1.2961  2.1265
47841SOL     OW50762   9.186   6.273   6.932  0.0978  0.1499 -0.0510
47841SOL    HW150763   9.248   6.200   6.932  0.7690  0.7154 -0.5516
47841SOL    HW250764   9.114   6.242   6.988  0.0216 -1.1907 -0.8237
47842SOL     OW50765  10.925  10.488   3.994  0.1493 -0.4383 -0.0740
47842SOL    HW150766  10.988  10.554   4.024 -0.4948 -0.3764  1.1929
47842SOL    HW250767  10.840  10.523   4.019 -0.1074 -2.5824  2.4277
47843SOL     OW50768   1.883   8.857  11.418  0.3168  0.0948 -0.1531
47843SOL    HW150769   1.864   8.880  11.509 -2.1919 -0.7135 -0.3970
47843SOL    HW250770   1.805   8.885  11.370  1.0125 -0.7378 -1.8528
47844SOL     OW50771   9.433   7.637   8.295 -0.4309 -0.0985  0.0072
47844SOL    HW150772   9.485   7.672   8.368  1.5990  2.2049 -2.3693
47844SOL    HW250773   9.444   7.542   8.302  1.1751  0.1582  1.6715
47845SOL     OW50774   8.737   9.572   9.751 -0.7193 -0.2002 -0.4061
47845SOL    HW150775   8.724   9.509   9.681  1.1161 -1.8911  0.6739
47845SOL    HW250776   8.756   9.654   9.706 -0.6043 -0.9960 -1.8659
47846SOL     OW50777   3.481   0.073   3.092  0.3460  0.3970 -0.0804
47846SOL    HW150778   3.542   0.000   3.103 -0.3694 -0.0682  0.8639
47846SOL    HW250779   3.463   0.075   2.998  1.4021  0.2186 -0.3061
47847SOL     OW50780   5.209   3.755   4.103 -0.2421  0.1197 -0.0510
47847SOL    HW150781   5.181   3.685   4.161  1.4957  0.0226  0.7481
47847SOL    HW250782   5.227   3.829   4.161 -1.5279  1.0886 -0.8236
47848SOL     OW50783   0.940  12.284  11.047  0.6927  0.5291 -0.3768
47848SOL    HW150784   0.973  12.303  10.960  0.1278 -0.8802 -0.9326
47848SOL    HW250785   0.869  12.222  11.033 -1.1765  2.2761  0.8999
47849SOL     OW50786   1.297  10.735   5.819  0.0733 -0.4610  0.2935
47849SOL    HW150787   1.313  10.764   5.909 -3.5646  0.8144  0.6961
47849SOL    HW250788   1.257  10.648   5.830 -0.0781 -0.4436 -0.1314
47850SOL     OW50789   0.878   1.600   2.429  0.3000 -0.0006 -0.1214
47850SOL    HW150790   0.907   1.517   2.467  1.1012  1.3177  2.4003
47850SOL    HW250791   0.792   1.580   2.391 -0.7963 -1.4787  2.7806
47851SOL     OW50792   6.250   2.607  10.396  0.3655  0.1634 -0.3419
47851SOL    HW150793   6.160   2.591  10.423  0.1741 -0.2164 -1.1764
47851SOL    HW250794   6.288   2.658  10.468 -0.2749 -0.3683  0.3950
47852SOL     OW50795   6.083   6.976   2.918 -0.3005  0.6123 -0.1529
47852SOL    HW150796   6.041   7.060   2.933 -0.6826  0.6341 -1.2741
47852SOL    HW250797   6.102   6.975   2.824  0.7112 -0.0863  0.0404
47853SOL     OW50798   4.077  10.463   3.739  1.2122  0.4236 -0.2512
47853SOL    HW150799   4.166  10.437   3.760  1.2870  1.7407  1.2392
47853SOL    HW250800   4.024  10.429   3.811 -0.0395 -2.7848 -2.4370
47854SOL     OW50801   6.387   7.254   3.568  0.1795  0.0686  0.4146
47854SOL    HW150802   6.384   7.280   3.661  0.0179  1.0528  0.1529
47854SOL    HW250803   6.311   7.298   3.529  0.7998  0.4634 -0.3758
47855SOL     OW50804   8.725   0.171   2.784 -0.5881  0.0481 -0.6878
47855SOL    HW150805   8.683   0.106   2.728  0.8625 -0.9803 -0.6461
47855SOL    HW250806   8.764   0.119   2.855  2.7305  0.6138 -1.9656
47856SOL     OW50807  10.817  11.582   5.172  0.5519 -0.4225 -0.0343
47856SOL    HW150808  10.818  11.495   5.212 -2.1812 -0.8589 -0.7001
47856SOL    HW250809  10.800  11.642   5.245 -2.1530 -0.9882 -0.1118
47857SOL     OW50810   8.793  12.190   6.849 -0.0874  0.1327  0.3466
47857SOL    HW150811   8.752  12.275   6.868 -0.5446  0.2953 -1.1932
47857SOL    HW250812   8.790  12.143   6.932 -2.0368  0.7361  0.6846
47858SOL     OW50813   3.749   3.083   2.732  0.0762 -0.7656 -0.0350
47858SOL    HW150814   3.821   3.094   2.794  0.5080  0.1213 -0.6773
47858SOL    HW250815   3.763   2.996   2.695 -0.2678 -1.3715  1.1852
47859SOL     OW50816   4.824   6.826   1.152  0.0660 -0.2568  0.4229
47859SOL    HW150817   4.773   6.903   1.126 -0.0352  0.2619  2.0920
47859SOL    HW250818   4.838   6.837   1.246 -0.2283 -2.4494  0.7565
47860SOL     OW50819   0.905   2.848  11.652 -0.0300  0.5095 -0.5770
47860SOL    HW150820   0.810   2.864  11.653 -0.9634 -3.7794 -0.4962
47860SOL    HW250821   0.924   2.812  11.738  1.7727  1.4338 -0.5517
47861SOL     OW50822  11.571   5.882   8.736 -0.2897 -0.0705  0.0803
47861SOL    HW150823  11.486   5.907   8.772 -0.1690 -0.8861  0.9731
47861SOL    HW250824  11.601   5.811   8.793  0.6641 -0.2754 -0.6568
47862SOL     OW50825  11.468   9.383   8.786 -0.0893  0.4233  0.3107
47862SOL    HW150826  11.563   9.379   8.790 -0.1354 -0.2347  1.0726
47862SOL    HW250827  11.441   9.402   8.876 -0.6801  0.2856  0.1686
47863SOL     OW50828   3.841  10.613   2.807 -0.2542 -0.4129  0.0968
47863SOL    HW150829   3.796  10.599   2.724  0.1054 -1.0850  0.0153
47863SOL    HW250830   3.930  10.580   2.793  0.2366  0.7552  0.3105
47864SOL     OW50831   0.466   7.678   1.002 -0.0563  0.0743 -0.1572
47864SOL    HW150832   0.467   7.678   1.098 -0.2100  0.7505 -0.1511
47864SOL    HW250833   0.544   7.628   0.977  1.0527  1.5030  0.3223
47865SOL     OW50834   7.333  12.181   6.589 -0.3636 -0.3619 -0.3054
47865SOL    HW150835   7.306  12.266   6.623 -0.7425 -0.8419  0.6345
47865SOL    HW250836   7.330  12.191   6.494  0.2009  0.8549 -0.2229
47866SOL     OW50837   7.109   1.769   4.166 -0.0758 -0.0046  0.4184
47866SOL    HW150838   7.016   1.758   4.145  0.0067 -0.5940  0.3222
47866SOL    HW250839   7.150   1.786   4.081  0.2062 -2.0165  0.0918
47867SOL     OW50840   1.068  12.068  11.418 -0.0079 -0.0358  0.3002
47867SOL    HW150841   1.014  11.988  11.416 -0.1263 -0.1210  2.8812
47867SOL    HW250842   1.020  12.127  11.477  0.8328  1.3841 -0.3898
47868SOL     OW50843   2.841   1.460   8.774 -0.1057 -0.3763  0.3893
47868SOL    HW150844   2.902   1.525   8.738 -0.6303  0.4770  0.9827
47868SOL    HW250845   2.895   1.385   8.796  0.5716 -0.0150 -0.0155
47869SOL     OW50846   6.731  11.913   4.227  0.5438 -0.4593 -0.2427
47869SOL    HW150847   6.722  11.971   4.302  1.1912  0.8066 -1.1143
47869SOL    HW250848   6.699  11.828   4.259 -0.4579  0.3572  1.0361
47870SOL     OW50849  10.400   1.659   9.913  0.3902 -0.7866 -0.0333
47870SOL    HW150850  10.329   1.603   9.880 -0.8034 -0.0546  1.1816
47870SOL    HW250851  10.405   1.731   9.850  0.1845 -0.9476 -0.2359
47871SOL     OW50852   2.465  11.385   9.303 -0.3821 -0.1743  0.3122
47871SOL    HW150853   2.527  11.345   9.242 -1.7297 -0.2144 -1.0905
47871SOL    HW250854   2.483  11.479   9.296  0.0892 -0.2433  0.5598
47872SOL     OW50855   9.584   3.699   5.737 -0.3151 -0.5558 -0.1984
47872SOL    HW150856   9.546   3.622   5.694 -0.2069 -1.2016  0.8281
47872SOL    HW250857   9.617   3.753   5.665 -0.6771 -1.3187 -0.9523
47873SOL     OW50858   7.520   8.205   9.808  0.0195  0.0825 -0.1469
47873SOL    HW150859   7.501   8.223   9.900  1.3418 -1.4685  0.4552
47873SOL    HW250860   7.614   8.191   9.805  0.5528  3.1828 -2.3058
47874SOL     OW50861   0.466   8.552   7.538  0.3736 -0.1893  0.0043
47874SOL    HW150862   0.542   8.608   7.522  0.2186 -0.1700 -0.7091
47874SOL    HW250863   0.416   8.556   7.457  0.1198 -0.9987  0.1099
47875SOL     OW50864   2.904   1.402  11.150 -0.1958 -0.4447 -0.3395
47875SOL    HW150865   2.976   1.374  11.207 -1.9577 -0.8224  1.8333
47875SOL    HW250866   2.888   1.493  11.173  0.1634 -0.0706 -1.4938
47876SOL     OW50867   2.131   9.942   4.894 -0.0130  0.6897  0.6237
47876SOL    HW150868   2.197   9.892   4.943 -0.4940  0.4080  0.9951
47876SOL    HW250869   2.048   9.921   4.937 -0.7029 -0.8275 -1.2326
47877SOL     OW50870   0.032  12.483   2.659  0.5541  0.1408 -0.1552
47877SOL    HW150871   0.085  12.417   2.614  0.9731  1.6434 -1.9671
47877SOL    HW250872  -0.052  12.481   2.614  0.2508  0.2101  0.3980
47878SOL     OW50873   1.733   1.451   6.037 -0.2874 -0.2374 -0.6250
47878SOL    HW150874   1.772   1.367   6.063  0.9657  0.5020 -0.0328
47878SOL    HW250875   1.679   1.477   6.111  1.4489  0.7427  0.3626
47879SOL     OW50876   4.133   9.853  11.518 -0.6225  0.2617  0.0056
47879SOL    HW150877   4.103   9.822  11.603  0.1474 -0.2616  0.1014
47879SOL    HW250878   4.199   9.919  11.538  0.0619 -0.3515 -0.1605
47880SOL     OW50879   2.784  10.278   2.697  0.5137  0.6681  0.4606
47880SOL    HW150880   2.860  10.332   2.675  0.7896  0.6238  1.2725
47880SOL    HW250881   2.786  10.208   2.632  0.6926  1.1160 -0.0273
47881SOL     OW50882   7.424   4.744   8.485  0.7769 -0.3322  0.2517
47881SOL    HW150883   7.515   4.735   8.515  1.4181 -2.8970 -2.0434
47881SOL    HW250884   7.432   4.777   8.396 -0.4501 -1.8483 -0.4488
47882SOL     OW50885   4.020  12.366  11.504  0.2333  0.5008 -0.3554
47882SOL    HW150886   3.972  12.309  11.564 -1.8027 -0.3235 -2.6148
47882SOL    HW250887   3.962  12.442  11.492  1.6443  1.7561  0.4115
47883SOL     OW50888   9.584   3.769   6.523  0.3630 -0.5062  0.4053
47883SOL    HW150889   9.567   3.824   6.447  3.2017 -0.5421 -0.3526
47883SOL    HW250890   9.591   3.830   6.596 -0.5539 -0.2966  0.3275
47884SOL     OW50891  10.543   6.942   5.906  0.0261  0.6428  0.2680
47884SOL    HW150892  10.621   6.998   5.904  0.7932 -0.3668 -2.8510
47884SOL    HW250893  10.571   6.864   5.953  1.4970 -0.3727 -2.1292
47885SOL     OW50894   5.442   6.245   0.982  0.4570  0.7793  0.9307
47885SOL    HW150895   5.413   6.154   0.990 -0.5267  0.8940 -0.7969
47885SOL    HW250896   5.361   6.295   0.978  0.9336  1.4917 -0.3165
47886SOL     OW50897   9.054  11.903  10.753 -0.5572  0.2679  0.4555
47886SOL    HW150898   9.071  11.967  10.821 -1.6786  0.7190  0.3342
47886SOL    HW250899   9.115  11.832  10.771 -0.9110  0.3240  2.0035
47887SOL     OW50900   8.014   3.411  11.024  0.4096  0.1228 -0.1043
47887SOL    HW150901   7.936   3.370  10.987  0.6050 -0.2930 -0.0659
47887SOL    HW250902   8.052   3.343  11.080  1.0174  0.1781 -0.4434
47888SOL     OW50903   0.925  11.856  11.553 -0.3887  0.0016 -0.0351
47888SOL    HW150904   0.884  11.908  11.623 -1.6244 -1.0417  0.0374
47888SOL    HW250905   0.993  11.805  11.598 -0.4659  0.1210  0.2192
47889SOL     OW50906   7.982   7.549   5.390  0.0273 -0.3822 -0.4067
47889SOL    HW150907   7.911   7.510   5.442 -1.3287  2.0844 -0.2852
47889SOL    HW250908   8.032   7.601   5.453 -0.0891  0.5852 -1.0939
47890SOL     OW50909   6.175   9.162   8.913 -0.1958 -0.9173 -0.0369
47890SOL    HW150910   6.269   9.179   8.911 -0.1823 -0.9925 -0.0063
47890SOL    HW250911   6.161   9.108   8.990 -0.6093  1.2662  1.5284
47891SOL     OW50912   7.120   3.077   0.926 -0.0768 -0.0082  0.0654
47891SOL    HW150913   7.177   3.107   0.855 -0.0409 -1.2686 -0.4617
47891SOL    HW250914   7.054   3.023   0.883  0.3989 -1.4528  1.0486
47892SOL     OW50915   0.680   9.203   6.750  0.4272 -0.0097  0.1404
47892SOL    HW150916   0.675   9.212   6.845  0.0202  0.9654  0.0390
47892SOL    HW250917   0.589   9.201   6.721  0.5486 -0.3304 -0.2270
47893SOL     OW50918   2.210   8.887  10.068 -0.1286  0.4779 -0.7989
47893SOL    HW150919   2.294   8.932  10.056  0.0486  0.1206 -0.9291
47893SOL    HW250920   2.144   8.953  10.045  0.1729 -0.4060 -5.1186
47894SOL     OW50921  10.980   0.268   5.822 -0.2866 -0.3759 -0.0832
47894SOL    HW150922  11.065   0.276   5.778  0.1111 -0.5330  0.6383
47894SOL    HW250923  10.945   0.357   5.822 -0.2073 -0.3429 -0.5522
47895SOL     OW50924   2.370  10.717   4.190  0.2333  0.3386  0.3391
47895SOL    HW150925   2.341  10.727   4.100  0.7307 -1.7546 -0.0951
47895SOL    HW250926   2.340  10.630   4.216  0.3031  0.8013  2.1323
47896SOL     OW50927   9.910   8.103   7.221  0.0717  0.0476  0.0382
47896SOL    HW150928   9.828   8.056   7.233  0.5249 -0.5522  0.8868
47896SOL    HW250929   9.977   8.034   7.220  0.4432  0.3098 -2.6288
47897SOL     OW50930   0.745  12.186   5.165  0.1943  0.3504  0.7544
47897SOL    HW150931   0.720  12.161   5.254  0.5309 -1.9863  0.2629
47897SOL    HW250932   0.841  12.181   5.165  0.1525 -0.7736 -0.0034
47898SOL     OW50933   9.423   7.434   5.942 -0.2969 -0.1310  0.5546
47898SOL    HW150934   9.491   7.422   6.009  0.0178 -2.3302 -0.0807
47898SOL    HW250935   9.471   7.445   5.861 -0.6940  1.1998  0.4895
47899SOL     OW50936   0.034   2.171   1.496 -0.2735 -0.3306 -0.0717
47899SOL    HW150937   0.126   2.159   1.471 -0.5763  0.4528 -1.7593
47899SOL    HW250938   0.028   2.136   1.585  1.2118 -2.2448 -0.6433
47900SOL     OW50939   6.826   0.788   5.523  0.5443 -0.3049  0.1393
47900SOL    HW150940   6.920   0.784   5.541  0.1066 -2.5317  2.6334
47900SOL    HW250941   6.809   0.711   5.469  0.1304  0.0205 -0.1968
47901SOL     OW50942   3.417   9.669  12.035  0.3716 -0.1794  0.1711
47901SOL    HW150943   3.357   9.599  12.007 -0.8608  0.6713  0.6157
47901SOL    HW250944   3.472   9.685  11.958 -0.0154 -0.9186 -0.2753
47902SOL     OW50945   9.774   5.127  10.160  0.4655  0.1455 -0.7607
47902SOL    HW150946   9.817   5.092  10.082 -0.5437  2.6441 -2.5803
47902SOL    HW250947   9.743   5.214  10.133 -2.9916 -0.2426  1.3706
47903SOL     OW50948   4.524  10.431   7.987 -0.2401 -0.1408  0.9822
47903SOL    HW150949   4.519  10.438   8.082  0.2248  2.6272  0.8870
47903SOL    HW250950   4.595  10.368   7.972  1.0446  0.8561  2.5180
47904SOL     OW50951  10.659   6.848   1.492  0.4244  0.2727  0.3653
47904SOL    HW150952  10.751   6.861   1.515  0.8008  2.4989 -1.9622
47904SOL    HW250953  10.619   6.934   1.503 -0.6300  0.0868 -1.6087
47905SOL     OW50954   3.853   3.454   0.518  0.3042 -0.0208 -0.1028
47905SOL    HW150955   3.906   3.511   0.461  1.4943 -1.4382 -0.4666
47905SOL    HW250956   3.917   3.407   0.571 -0.6915 -0.4735  0.7236
47906SOL     OW50957  11.799   4.119   2.793 -0.2395  0.2971  0.5768
47906SOL    HW150958  11.708   4.097   2.815 -0.0877  0.1186  1.0546
47906SOL    HW250959  11.801   4.119   2.698 -0.4101 -1.1635  0.5420
47907SOL     OW50960  12.032   7.054   4.341  0.1054 -0.1038 -0.0584
47907SOL    HW150961  12.009   6.966   4.311 -2.1881  0.5834 -0.5268
47907SOL    HW250962  12.062   7.099   4.263  3.7015 -1.0853  0.6061
47908SOL     OW50963   8.396   3.719   7.581 -0.5686 -0.3094  0.1641
47908SOL    HW150964   8.407   3.731   7.486 -0.2680 -1.4071  0.0512
47908SOL    HW250965   8.441   3.794   7.620  0.8004 -0.7522 -0.5178
47909SOL     OW50966  10.832  10.668   3.569 -0.1918  0.2149  0.2597
47909SOL    HW150967  10.907  10.726   3.584 -0.6584  1.0749 -0.6052
47909SOL    HW250968  10.763  10.726   3.537 -0.1508 -1.0211 -2.3042
47910SOL     OW50969   7.601   7.031   3.320 -0.0226  0.0454 -0.1302
47910SOL    HW150970   7.651   7.084   3.259 -0.2854 -0.1217 -0.4961
47910SOL    HW250971   7.659   6.957   3.341  0.6691  0.8821  1.0229
47911SOL     OW50972   5.338   9.626   8.606  0.2099  0.7044  0.1564
47911SOL    HW150973   5.381   9.629   8.520  1.6836  0.5004  0.8557
47911SOL    HW250974   5.367   9.544   8.644 -0.1728  0.9453  0.9847
47912SOL     OW50975   5.407   8.862   8.850 -0.6434  0.0122  0.4006
47912SOL    HW150976   5.478   8.922   8.870 -0.1205 -0.3373 -0.3656
47912SOL    HW250977   5.380   8.886   8.761 -0.2430 -1.0537 -0.0211
47913SOL     OW50978   1.979   4.265   9.573 -0.3016  0.3196  0.6871
47913SOL    HW150979   1.966   4.248   9.666  0.2818  1.3081  0.9591
47913SOL    HW250980   2.003   4.180   9.536  0.1623  0.0644  1.5645
47914SOL     OW50981  10.237   5.800  12.061 -0.4605  0.2744 -0.1074
47914SOL    HW150982  10.275   5.769  11.978 -2.0687  1.9983 -1.5720
47914SOL    HW250983  10.143   5.804  12.045 -0.6997  1.9184  1.3460
47915SOL     OW50984  11.136   9.945  11.672  0.6594 -0.2291  0.5172
47915SOL    HW150985  11.072   9.883  11.706  1.8660 -2.0428 -0.3415
47915SOL    HW250986  11.084  10.013  11.629 -0.7068 -1.7302 -0.3027
47916SOL     OW50987  12.489  10.595  10.152  0.3149  0.0807  0.3781
47916SOL    HW150988  12.530  10.509  10.140 -0.6750 -0.2727 -0.7012
47916SOL    HW250989  12.465  10.597  10.245 -0.1830 -1.0779  0.2971
47917SOL     OW50990  10.209   4.757   6.872 -0.5473  0.1634 -0.1618
47917SOL    HW150991  10.249   4.829   6.823  2.5728 -1.8460 -0.7850
47917SOL    HW250992  10.164   4.705   6.805 -0.4589  0.0528 -0.1355
47918SOL     OW50993   8.813   6.800   1.761 -0.2731 -0.2820  0.8466
47918SOL    HW150994   8.854   6.821   1.846 -0.5465  0.3638  0.8291
47918SOL    HW250995   8.751   6.731   1.781 -0.8579  0.3659  1.3215
47919SOL     OW50996   2.712   5.162   3.233 -0.4608  0.5477  0.0469
47919SOL    HW150997   2.768   5.159   3.311 -0.1882 -1.1520 -0.1665
47919SOL    HW250998   2.642   5.223   3.256 -0.2199  0.3138  1.5128
47920SOL     OW50999  11.222   4.533   9.185  0.6300  0.2610  0.4172
47920SOL    HW151000  11.235   4.476   9.110 -0.1987  1.6720 -0.8366
47920SOL    HW251001  11.234   4.475   9.261 -1.9959 -2.0654 -0.7525
47921SOL     OW51002   6.697  11.642   9.278 -0.3556  0.0036 -0.0403
47921SOL    HW151003   6.639  11.621   9.352  1.3275  0.4362  1.4727
47921SOL    HW251004   6.758  11.706   9.313  1.0814 -0.4640 -1.5651
47922SOL     OW51005   5.307   1.681   2.896 -0.4440  0.5941 -0.6904
47922SOL    HW151006   5.389   1.697   2.850 -0.9122  0.9768 -1.4123
47922SOL    HW251007   5.290   1.761   2.945 -0.3215  0.4621 -0.4277
47923SOL     OW51008   3.611   7.150   6.659  0.6223 -0.2672  0.5595
47923SOL    HW151009   3.529   7.158   6.706  0.2303 -0.5806 -0.0543
47923SOL    HW251010   3.632   7.056   6.663 -0.4498 -0.6533 -1.5591
47924SOL     OW51011  10.505   7.562   6.773 -0.1492  0.5679  0.1867
47924SOL    HW151012  10.600   7.572   6.786  0.1908  0.4465 -1.8352
47924SOL    HW251013  10.496   7.479   6.726 -0.9835  1.6790 -1.7748
47925SOL     OW51014   7.803  11.796   4.241 -0.6810  0.2477 -0.0148
47925SOL    HW151015   7.846  11.726   4.290  0.5799  1.3467  0.5275
47925SOL    HW251016   7.861  11.872   4.251 -0.8493  0.7935 -2.4274
47926SOL     OW51017   9.928   4.585   7.465 -0.1388 -0.3407  0.0953
47926SOL    HW151018   9.914   4.679   7.476  0.4115 -0.4611  2.2763
47926SOL    HW251019  10.015   4.578   7.426 -0.6882  0.0450 -1.2795
47927SOL     OW51020   0.914   0.372   2.106 -0.2305 -0.0192  0.2523
47927SOL    HW151021   0.842   0.436   2.110  2.1181  3.0232 -1.4457
47927SOL    HW251022   0.921   0.339   2.195 -2.6934  0.7085  0.8130
47928SOL     OW51023   1.671   5.313   4.681  0.1052  0.6380  0.1613
47928SOL    HW151024   1.733   5.377   4.716 -0.9444  1.3864  0.7497
47928SOL    HW251025   1.724   5.238   4.655  1.4090  1.8606 -0.8346
47929SOL     OW51026   9.988   5.425   0.496 -0.1632  0.2799  0.0703
47929SOL    HW151027   9.917   5.373   0.534  0.1436  0.2796  0.6510
47929SOL    HW251028  10.039   5.362   0.445 -0.2206  0.1561  0.1655
47930SOL     OW51029   7.151  10.810   8.266 -0.1339  0.0811  0.3710
47930SOL    HW151030   7.159  10.884   8.205  0.4261  0.0223  0.3743
47930SOL    HW251031   7.062  10.818   8.300 -1.0194 -0.7778 -1.5915
47931SOL     OW51032   6.544   9.205   4.553  0.1941  0.5783 -0.1281
47931SOL    HW151033   6.459   9.188   4.593  0.4237  0.7092  0.4197
47931SOL    HW251034   6.548   9.301   4.546 -0.0081  0.5442 -0.8333
47932SOL     OW51035   0.193  11.771  12.298  0.5275 -0.1113 -0.4238
47932SOL    HW151036   0.172  11.738  12.211  0.4269 -0.5871 -0.2231
47932SOL    HW251037   0.109  11.777  12.343  0.6465 -0.5322 -0.1343
47933SOL     OW51038   6.018  12.255   2.526 -0.5787  0.1833 -0.1702
47933SOL    HW151039   5.987  12.243   2.436 -0.6010  2.9800 -0.6389
47933SOL    HW251040   5.943  12.233   2.581 -0.2556 -2.5938 -0.6717
47934SOL     OW51041   1.495  11.761  11.682 -1.0891  0.0510 -0.2225
47934SOL    HW151042   1.428  11.722  11.625 -1.6853  0.2476  0.3309
47934SOL    HW251043   1.507  11.696  11.752  0.5191 -0.7511 -1.1752
47935SOL     OW51044   9.967   4.498   8.210 -0.4903  0.5095 -0.3719
47935SOL    HW151045  10.042   4.545   8.247 -0.3857  1.0157 -1.2222
47935SOL    HW251046   9.979   4.408   8.241  1.1248  0.3087 -1.4521
47936SOL     OW51047   1.609   4.500   7.267  0.1073 -0.6195 -0.5145
47936SOL    HW151048   1.576   4.497   7.178  0.5773 -1.5949 -0.6712
47936SOL    HW251049   1.539   4.460   7.320  0.3771 -1.2636 -0.6356
47937SOL     OW51050   4.163   4.434   3.720  0.1128  0.3963  0.6479
47937SOL    HW151051   4.087   4.465   3.769 -1.4294 -3.1759  0.8319
47937SOL    HW251052   4.223   4.402   3.787  0.9393  1.4109  0.4112
47938SOL     OW51053   7.741  10.547   7.557 -0.1151 -0.0741 -0.3252
47938SOL    HW151054   7.688  10.468   7.568 -0.9868  0.4260 -0.7565
47938SOL    HW251055   7.763  10.574   7.646  2.0374 -1.9608 -0.2004
47939SOL     OW51056  10.514   7.985   6.319 -0.3106  0.4857 -0.1786
47939SOL    HW151057  10.558   7.902   6.332 -1.5892 -0.2165 -0.1684
47939SOL    HW251058  10.581   8.051   6.338  0.3919 -0.5243  1.0202
47940SOL     OW51059   1.671   1.570   0.784 -0.2906  0.6997 -0.1338
47940SOL    HW151060   1.745   1.620   0.748 -0.1211 -0.2867 -1.1824
47940SOL    HW251061   1.597   1.632   0.781  0.2899  1.4272  0.1595
47941SOL     OW51062   0.518  10.827   7.057  0.2467  0.1232 -0.1453
47941SOL    HW151063   0.594  10.771   7.042 -0.0216 -0.3515  0.2385
47941SOL    HW251064   0.515  10.884   6.981  1.1026  0.2806 -0.0725
47942SOL     OW51065  12.657   0.537  10.669  0.9675  0.2561  0.2496
47942SOL    HW151066  12.659   0.624  10.707  1.5311 -0.3571  1.6960
47942SOL    HW251067  12.602   0.486  10.729  1.6320 -0.6698  0.0939
47943SOL     OW51068   6.505  12.161  10.852  0.1339  0.2624 -0.3797
47943SOL    HW151069   6.564  12.228  10.819  0.7997 -0.4156 -0.5824
47943SOL    HW251070   6.555  12.117  10.921 -0.1545 -0.2745 -0.5075
47944SOL     OW51071   3.887   7.304   8.966  0.3549 -0.0235  0.2942
47944SOL    HW151072   3.795   7.327   8.955 -0.1581 -2.5572 -1.6501
47944SOL    HW251073   3.896   7.285   9.060 -0.8140  1.2064  0.6831
47945SOL     OW51074   7.942   5.127   7.218 -0.2676 -0.6081  0.0546
47945SOL    HW151075   7.899   5.193   7.271  0.0387  0.2964 -0.8012
47945SOL    HW251076   8.034   5.131   7.244 -0.3814 -1.3011  0.6052
47946SOL     OW51077   7.126  10.132   5.005 -0.0629  0.0633  0.7537
47946SOL    HW151078   7.159  10.221   5.020 -0.3856  0.4660 -0.7365
47946SOL    HW251079   7.199  10.075   5.031  1.0690  0.8663 -0.5105
47947SOL     OW51080  10.808   4.730   4.455  0.3359  0.1204 -0.2372
47947SOL    HW151081  10.778   4.652   4.501  1.5062  0.6573  1.5419
47947SOL    HW251082  10.885   4.701   4.405 -0.1391 -0.1819 -0.7951
47948SOL     OW51083  10.878   3.806  12.383  0.6338 -0.0382  0.1382
47948SOL    HW151084  10.872   3.827  12.476  0.6260 -0.7711  0.3055
47948SOL    HW251085  10.803   3.851  12.344 -0.1796 -0.8759  0.6982
47949SOL     OW51086   5.397  12.447   5.621 -0.4694 -0.0367 -0.2646
47949SOL    HW151087   5.420  12.526   5.669  0.4949  0.2658 -1.1846
47949SOL    HW251088   5.345  12.395   5.682  0.5731  0.4069  1.0362
47950SOL     OW51089   5.542   3.851   3.094  0.4389  0.0067  0.5025
47950SOL    HW151090   5.496   3.916   3.042 -0.9007 -0.2900  1.2609
47950SOL    HW251091   5.544   3.773   3.038 -1.6687 -0.5467  1.1081
47951SOL     OW51092   7.447   3.453   9.261  0.1388 -0.1681 -0.1448
47951SOL    HW151093   7.363   3.496   9.273 -0.1989 -1.0372  0.6720
47951SOL    HW251094   7.428   3.379   9.203 -0.0185 -1.3728  1.3882
47952SOL     OW51095  11.772  11.685  10.805 -0.1075  0.3559  0.0330
47952SOL    HW151096  11.835  11.740  10.851  0.8146 -1.2495  0.7378
47952SOL    HW251097  11.741  11.623  10.871 -2.2012  0.8760 -0.3769
47953SOL     OW51098  11.521   8.670   9.245  0.5921 -0.3053  0.6888
47953SOL    HW151099  11.607   8.705   9.268 -0.0122  1.4321  0.5166
47953SOL    HW251100  11.533   8.630   9.159  1.3828 -0.7528  1.0043
47954SOL     OW51101   9.614  11.629   0.026  0.2123 -0.2021  0.3608
47954SOL    HW151102   9.626  11.703  -0.034  1.6613  0.4435  1.3950
47954SOL    HW251103   9.616  11.552  -0.030  0.3091  0.4567 -0.5578
47955SOL     OW51104   1.659   2.427  11.895 -0.3205  0.2749 -0.1583
47955SOL    HW151105   1.642   2.502  11.952  0.8324 -1.5226  2.7573
47955SOL    HW251106   1.752   2.407  11.909 -0.5499 -1.5699 -0.9686
47956SOL     OW51107   2.788   2.849   5.164  0.4855 -0.4102 -0.6962
47956SOL    HW151108   2.782   2.754   5.150  1.0923 -0.6666  0.6211
47956SOL    HW251109   2.866   2.875   5.115  1.8216 -1.0581  1.0124
47957SOL     OW51110   8.381   2.304   0.294  0.0433 -0.1967 -0.2235
47957SOL    HW151111   8.414   2.266   0.213 -0.7845  0.4197 -0.8631
47957SOL    HW251112   8.457   2.350   0.332 -0.0775  1.3529 -1.7545
47958SOL     OW51113   4.118   7.226   6.951  0.0596  0.4916  0.2484
47958SOL    HW151114   4.185   7.292   6.935 -0.2419  0.8025  0.2802
47958SOL    HW251115   4.063   7.227   6.873 -1.0469  1.5846  1.0093
47959SOL     OW51116  11.017  12.153   3.739  0.3452 -0.2333  0.4174
47959SOL    HW151117  11.035  12.213   3.811 -1.3942  0.9642 -0.0979
47959SOL    HW251118  10.922  12.148   3.735  0.4020 -0.2157 -1.8591
47960SOL     OW51119   5.736   9.012   0.863  0.1653 -0.5145 -0.5967
47960SOL    HW151120   5.754   8.918   0.865 -0.8192 -0.7350  2.8255
47960SOL    HW251121   5.804   9.050   0.918 -1.8814  0.1878  1.5806
47961SOL     OW51122  10.882   2.014   9.155  0.4376  0.0760 -0.7395
47961SOL    HW151123  10.870   2.014   9.060  0.2268  0.2827 -0.7162
47961SOL    HW251124  10.930   1.934   9.173 -1.7133 -1.3035 -0.7578
47962SOL     OW51125   5.942   4.963   2.374  0.0156 -0.3008  0.2467
47962SOL    HW151126   5.910   4.873   2.366 -1.6311  0.0541  2.1423
47962SOL    HW251127   6.016   4.958   2.435  0.1064 -0.3999  0.1282
47963SOL     OW51128  12.656   7.396   0.867  0.3666  0.2757 -0.2536
47963SOL    HW151129  12.615   7.476   0.834 -1.5282 -0.3558  0.4643
47963SOL    HW251130  12.750   7.409   0.850  0.1002  2.5553 -0.3198
47964SOL     OW51131   2.218   7.461   6.302  0.0460 -0.2781  0.2117
47964SOL    HW151132   2.125   7.461   6.328  0.6268  0.6794  2.5971
47964SOL    HW251133   2.222   7.522   6.229 -1.4849 -1.9840 -1.4419
47965SOL     OW51134   0.607   7.276   3.624  0.0913  0.3080  0.6013
47965SOL    HW151135   0.604   7.223   3.544  0.0253  1.1426  0.0302
47965SOL    HW251136   0.563   7.358   3.599  0.5410  0.7795  1.3395
47966SOL     OW51137  11.717  11.898   4.152  0.4907  0.0023  0.3142
47966SOL    HW151138  11.719  11.939   4.239  0.6669 -0.4064  0.5057
47966SOL    HW251139  11.692  11.807   4.170  1.5213 -0.3487  0.0361
47967SOL     OW51140   3.656   4.820   1.487  0.4407 -0.7851 -0.2295
47967SOL    HW151141   3.731   4.879   1.491  0.1965 -0.4763 -0.2458
47967SOL    HW251142   3.595   4.852   1.554  0.1882 -0.8493 -0.4258
47968SOL     OW51143  11.317   7.781   1.033  0.4588  0.6899 -0.2648
47968SOL    HW151144  11.311   7.861   0.981 -0.9709  1.2248  0.6700
47968SOL    HW251145  11.336   7.811   1.122  0.7053 -0.0610 -0.0585
47969SOL     OW51146   5.372   0.680   5.569  0.3481 -0.1583  0.0816
47969SOL    HW151147   5.367   0.591   5.604 -0.9826  0.4113  1.4484
47969SOL    HW251148   5.441   0.676   5.503  0.8801 -2.0027  0.6956
47970SOL     OW51149   6.275  10.941   5.671  0.2223 -0.2717 -0.4712
47970SOL    HW151150   6.363  10.912   5.697  0.3409 -0.1496 -0.7321
47970SOL    HW251151   6.270  11.031   5.701  0.2029 -0.2636 -0.4981
47971SOL     OW51152   7.637   2.847   6.181 -0.1811  0.0805 -0.0345
47971SOL    HW151153   7.620   2.824   6.272  1.2962 -0.9757 -0.0038
47971SOL    HW251154   7.646   2.764   6.136 -0.3412  0.5970 -1.0550
47972SOL     OW51155   4.011  11.759   8.627  0.6964 -0.1116 -0.1394
47972SOL    HW151156   4.013  11.854   8.637  0.8975 -0.1306 -0.0147
47972SOL    HW251157   4.042  11.724   8.710 -0.3130 -0.3043  0.1795
47973SOL     OW51158  10.772   9.360   6.885  0.1784  0.0165  0.2288
47973SOL    HW151159  10.712   9.338   6.957 -0.7988  3.3306  0.5966
47973SOL    HW251160  10.732   9.320   6.808 -1.6743  0.7769  0.7381
47974SOL     OW51161   2.445   4.654   7.813  0.3707 -0.5847 -0.2060
47974SOL    HW151162   2.526   4.699   7.839 -0.6837  0.5078  1.3852
47974SOL    HW251163   2.396   4.643   7.895 -2.3381  1.3484 -1.3985
47975SOL     OW51164   1.239   8.230  12.475 -0.5626 -0.0335 -0.0001
47975SOL    HW151165   1.158   8.231  12.526  0.0444  0.3157  1.0049
47975SOL    HW251166   1.308   8.227  12.541  0.2794  1.0498 -0.7866
47976SOL     OW51167   6.890   7.026   3.602 -0.0365 -0.1362 -0.3482
47976SOL    HW151168   6.814   7.084   3.594 -1.0530 -1.4683 -0.5374
47976SOL    HW251169   6.906   6.995   3.513 -1.0561 -2.0480  0.0891
47977SOL     OW51170   9.695   4.388   1.316 -0.0797 -0.3002 -0.0440
47977SOL    HW151171   9.754   4.439   1.261  0.3654 -0.6210  0.1305
47977SOL    HW251172   9.607   4.416   1.289  0.1570  0.7239  0.2100
47978SOL     OW51173  11.697   8.192  12.418  0.0121  0.4072  0.4782
47978SOL    HW151174  11.758   8.241  12.363 -0.7007  0.3020 -0.4205
47978SOL    HW251175  11.619   8.247  12.422  0.0044  0.3504  1.2806
47979SOL     OW51176  12.274   4.491  12.604 -0.2970  0.0007  0.1868
47979SOL    HW151177  12.335   4.547  12.652 -0.0894 -0.8359  0.9351
47979SOL    HW251178  12.189   4.506  12.645  0.0962 -1.6559  1.7356
47980SOL     OW51179  10.638   3.200  11.740 -0.1749 -0.2346 -0.3188
47980SOL    HW151180  10.681   3.115  11.742 -1.1411 -0.7488 -0.9490
47980SOL    HW251181  10.683   3.248  11.669 -0.2069 -0.5363 -0.5453
47981SOL     OW51182   6.845   1.341   6.238  0.4255  0.6871  0.4567
47981SOL    HW151183   6.778   1.401   6.204  0.3883  0.4181  0.0527
47981SOL    HW251184   6.817   1.324   6.329 -0.6510 -0.2475 -0.0188
47982SOL     OW51185  11.928   1.289   7.934 -0.5461  0.0012  0.1730
47982SOL    HW151186  11.986   1.341   7.990 -1.0562  2.2027 -1.2327
47982SOL    HW251187  11.985   1.221   7.898  0.4879  0.4090  0.9840
47983SOL     OW51188   1.465   4.003   6.937 -0.0638  0.9488  0.3213
47983SOL    HW151189   1.374   4.028   6.924  0.1722  1.1804 -1.0642
47983SOL    HW251190   1.501   4.073   6.992 -0.6697  0.9805  0.6739
47984SOL     OW51191   2.864   1.198   1.550  0.5349  0.2304 -0.3371
47984SOL    HW151192   2.950   1.234   1.572  0.8579  0.1767 -1.4393
47984SOL    HW251193   2.883   1.126   1.490 -0.2735  0.1399 -0.4970
47985SOL     OW51194  12.103   7.579   1.854  0.0893  0.0508  0.1699
47985SOL    HW151195  12.171   7.515   1.832  1.1211  0.7436  1.2274
47985SOL    HW251196  12.124   7.655   1.801 -0.9257 -0.3310 -0.8162
47986SOL     OW51197   7.036  12.003  11.619  0.7377  0.1795  0.1331
47986SOL    HW151198   7.008  12.076  11.674 -1.6040  0.2045 -0.9884
47986SOL    HW251199   7.074  11.940  11.681  0.8171  1.4071  1.3834
47987SOL     OW51200   2.897   9.788   6.976 -0.3263  0.0307 -0.5116
47987SOL    HW151201   2.969   9.772   7.037 -1.3144  1.1008  1.0109
47987SOL    HW251202   2.819   9.755   7.022 -0.8077 -1.5993 -2.3337
47988SOL     OW51203   2.065   5.330   2.580  0.1873 -0.3086 -0.1467
47988SOL    HW151204   1.976   5.306   2.555 -1.1019  2.4242  1.3653
47988SOL    HW251205   2.097   5.383   2.507 -0.5401  1.0215  0.4649
47989SOL     OW51206   4.406   9.695   9.632  0.8511 -0.6489 -0.6261
47989SOL    HW151207   4.417   9.682   9.726  1.1935 -0.0932 -0.5810
47989SOL    HW251208   4.355   9.776   9.626  2.1690  0.1878 -0.9299
47990SOL     OW51209   4.998   4.111  11.182 -0.6479  0.1100  0.2255
47990SOL    HW151210   4.972   4.046  11.247 -1.0094  0.8035  0.7946
47990SOL    HW251211   5.011   4.192  11.232 -1.3660  0.7701 -0.6029
47991SOL     OW51212   9.814   7.862   7.579 -0.0738  0.1895 -0.4169
47991SOL    HW151213   9.894   7.822   7.545  0.2366  1.6351 -1.5126
47991SOL    HW251214   9.804   7.826   7.667  1.8911  0.0998 -0.1922
47992SOL     OW51215   3.984   7.412  12.098  0.1934 -0.4744 -0.1612
47992SOL    HW151216   4.039   7.422  12.020  1.0436 -0.1681  0.4641
47992SOL    HW251217   3.966   7.318  12.102  1.3749 -0.7146  0.0724
47993SOL     OW51218  12.476   9.293   9.436 -0.0567 -0.1256  0.0439
47993SOL    HW151219  12.442   9.318   9.350  2.0534  0.9106 -0.5356
47993SOL    HW251220  12.475   9.373   9.488 -2.2054 -0.9135  1.4058
47994SOL     OW51221   1.708   9.625  12.033  0.6747  0.4432 -0.4361
47994SOL    HW151222   1.733   9.534  12.017 -1.0643  0.0297 -1.0357
47994SOL    HW251223   1.732   9.670  11.952  4.1759  1.2093  0.8538
47995SOL     OW51224  10.791   4.193   7.197 -0.1805  0.0184  0.9574
47995SOL    HW151225  10.854   4.182   7.126 -0.7922 -0.9112  0.5364
47995SOL    HW251226  10.788   4.108   7.241  0.8627  0.8312  2.6970
47996SOL     OW51227   7.601   1.512  11.937 -0.1474  0.0764  0.5200
47996SOL    HW151228   7.658   1.437  11.953 -0.7115 -0.1171  1.7284
47996SOL    HW251229   7.659   1.588  11.940  0.5642 -0.3187 -1.4636
47997SOL     OW51230   5.362   3.121  12.473  0.5134 -0.0198  0.3162
47997SOL    HW151231   5.341   3.199  12.422  0.6296 -0.0817  0.1719
47997SOL    HW251232   5.449   3.139  12.510  0.8879 -0.3963 -0.3526
47998SOL     OW51233  12.041   0.672   2.913 -0.4571  0.4929  0.2522
47998SOL    HW151234  12.085   0.660   2.829 -1.8167  1.5528 -0.6665
47998SOL    HW251235  12.074   0.601   2.968  1.1856  0.3393 -0.8523
47999SOL     OW51236   7.393   4.451   7.668  0.2600  0.1115  0.0101
47999SOL    HW151237   7.448   4.378   7.695  0.4253 -0.3160 -1.3720
47999SOL    HW251238   7.437   4.486   7.590 -1.0983  0.1211 -0.7861
48000SOL     OW51239   5.523   1.090   7.311  0.2099 -0.0132 -0.0970
48000SOL    HW151240   5.478   1.069   7.229  1.4498 -4.0482  0.0048
48000SOL    HW251241   5.479   1.168   7.343 -2.6934 -0.2898 -2.8643
48001SOL     OW51242   7.641   2.013   4.862  0.0174 -0.2368  0.0158
48001SOL    HW151243   7.696   2.001   4.784 -0.6964  0.7009 -0.6446
48001SOL    HW251244   7.593   1.930   4.870  1.5212 -1.0945  0.6289
48002SOL     OW51245   0.529  10.508  12.222  0.4881 -0.7434  1.2250
48002SOL    HW151246   0.596  10.466  12.276 -0.5945  1.1644  4.3028
48002SOL    HW251247   0.548  10.602  12.229 -0.2509 -0.3751 -1.0571
48003SOL     OW51248  12.336   1.748   4.484  0.0026 -0.0807 -0.2309
48003SOL    HW151249  12.286   1.667   4.495 -0.0515  0.0623  0.6456
48003SOL    HW251250  12.370   1.743   4.395 -0.3284 -0.8835 -0.3225
48004SOL     OW51251  10.500  11.257   8.711  0.1659 -0.0362  0.2281
48004SOL    HW151252  10.554  11.218   8.780 -0.2385  0.6447  0.9446
48004SOL    HW251253  10.535  11.220   8.630 -0.2566 -1.9624  0.8575
48005SOL     OW51254   2.548  10.874  12.032 -0.0232  0.1374 -0.1051
48005SOL    HW151255   2.558  10.933  12.107  0.4168  1.4993 -1.1740
48005SOL    HW251256   2.461  10.895  11.997  0.3953  0.6699 -0.8767
48006SOL     OW51257  12.131   9.267   1.130  0.2435  0.0326  0.1576
48006SOL    HW151258  12.070   9.296   1.198  0.3212  3.6021 -1.1346
48006SOL    HW251259  12.207   9.234   1.178 -1.3606 -1.6427  1.7442
48007SOL     OW51260   4.362   8.473   6.237 -0.4716 -0.5878  0.1341
48007SOL    HW151261   4.412   8.550   6.264 -0.1012 -1.0773  0.8827
48007SOL    HW251262   4.363   8.416   6.314 -1.4395 -0.9879 -0.1369
48008SOL     OW51263   1.054  12.313   6.798 -0.1035  0.2671 -0.0797
48008SOL    HW151264   1.023  12.403   6.810 -0.8267 -0.1341  1.2315
48008SOL    HW251265   0.987  12.259   6.840  0.5002 -0.8677 -0.5399
48009SOL     OW51266   6.716   2.504   1.453  0.1002  0.2674 -0.4359
48009SOL    HW151267   6.625   2.474   1.462 -0.6349  2.5935  0.5536
48009SOL    HW251268   6.737   2.488   1.361 -1.9041  1.1344 -1.1146
48010SOL     OW51269   6.514   1.469   0.996  0.0786  0.0206  0.3261
48010SOL    HW151270   6.424   1.440   1.004 -0.1641  0.9239  1.0662
48010SOL    HW251271   6.551   1.414   0.927 -0.7612 -0.9879  0.6557
48011SOL     OW51272   1.883   4.481   9.441 -0.5718 -0.2696  0.3642
48011SOL    HW151273   1.916   4.415   9.502 -3.8450 -0.8156  1.7749
48011SOL    HW251274   1.802   4.512   9.481 -0.9975  2.0513 -2.0076
48012SOL     OW51275  11.667   1.215   4.912 -0.3754  0.0445  0.4399
48012SOL    HW151276  11.716   1.155   4.969  1.1237  1.2607  0.5069
48012SOL    HW251277  11.581   1.175   4.903 -0.3347 -0.7087  2.7396
48013SOL     OW51278   4.986   0.471  12.621 -0.1865  0.3155 -0.2908
48013SOL    HW151279   4.912   0.438  12.571 -0.6653  1.5553 -0.4108
48013SOL    HW251280   5.000   0.560  12.589  3.5668 -0.9210 -2.8216
48014SOL     OW51281   6.818   9.504   9.759  0.2472 -0.0123  0.6348
48014SOL    HW151282   6.843   9.440   9.691  2.1347 -0.9425  2.0872
48014SOL    HW251283   6.852   9.466   9.840 -0.5101  1.8377  1.8726
48015SOL     OW51284   5.943   2.207   1.159  0.5790 -0.4725  0.4391
48015SOL    HW151285   5.954   2.115   1.185 -0.8837 -0.4348  1.3376
48015SOL    HW251286   5.859   2.208   1.113  0.8452  0.3391 -0.0533
48016SOL     OW51287   9.717   0.264   7.129 -0.0066 -0.2680  0.0899
48016SOL    HW151288   9.679   0.335   7.078 -1.0728 -0.3577  0.7277
48016SOL    HW251289   9.803   0.249   7.090  0.3896  1.6117  0.1590
48017SOL     OW51290  11.128  11.807   7.836 -0.2480 -0.4205  1.2436
48017SOL    HW151291  11.047  11.765   7.810 -0.6517  2.1081 -2.3502
48017SOL    HW251292  11.101  11.893   7.870  0.7743  1.5074 -2.3239
48018SOL     OW51293   1.642  12.541   9.374 -0.3015 -0.7785  0.5818
48018SOL    HW151294   1.703  12.572   9.441 -0.2341  0.0465  0.1513
48018SOL    HW251295   1.594  12.469   9.416 -0.8044  0.2210  1.7841
48019SOL     OW51296   4.576   9.979   5.246 -0.4847 -0.5693  0.1388
48019SOL    HW151297   4.556  10.050   5.307 -0.0128 -0.0314 -0.3178
48019SOL    HW251298   4.522   9.906   5.276 -1.2534  0.0863  0.4074
48020SOL     OW51299  11.656  10.861   9.425  0.7465 -0.1960  0.1328
48020SOL    HW151300  11.598  10.815   9.365  1.3174 -0.8892  0.0907
48020SOL    HW251301  11.608  10.864   9.507 -0.2700  1.2575 -0.4868
48021SOL     OW51302   7.548   0.403   3.917  0.5837 -0.2034 -0.6234
48021SOL    HW151303   7.495   0.369   3.989 -0.3139  1.0159 -0.6720
48021SOL    HW251304   7.621   0.447   3.960 -0.3874  1.2417 -0.3899
48022SOL     OW51305   4.458  11.662   2.863 -0.0669  0.3243 -0.3882
48022SOL    HW151306   4.502  11.668   2.948  0.7058 -0.2841 -0.7301
48022SOL    HW251307   4.379  11.612   2.880  0.3210 -0.1986 -0.1049
48023SOL     OW51308  12.490   3.517  10.590 -0.6998  0.2845  0.1543
48023SOL    HW151309  12.411   3.570  10.580 -1.2561 -0.7781 -1.5522
48023SOL    HW251310  12.562   3.579  10.580 -1.3301  0.8913 -0.8038
48024SOL     OW51311   5.328   2.295   3.013  0.1131 -0.3563 -0.6659
48024SOL    HW151312   5.367   2.253   2.937  1.2715 -1.4803  0.4915
48024SOL    HW251313   5.290   2.376   2.979  1.2807 -0.4464 -2.3098
48025SOL     OW51314   3.197   1.633  11.338 -0.5969  0.4304  0.5661
48025SOL    HW151315   3.285   1.665  11.317 -1.0951  0.9867 -0.7763
48025SOL    HW251316   3.209   1.583  11.419  1.3704 -1.4285 -0.7377
48026SOL     OW51317   6.145   3.269   0.538  0.1398  0.4816 -0.0702
48026SOL    HW151318   6.234   3.235   0.546  0.2501  0.5021 -1.0547
48026SOL    HW251319   6.136   3.329   0.612  0.1361 -1.2049  1.3599
48027SOL     OW51320  12.408   0.889   1.519 -0.6279  0.1889  0.1373
48027SOL    HW151321  12.334   0.839   1.484 -0.9974  0.5000  0.4530
48027SOL    HW251322  12.483   0.831   1.511 -1.1117 -0.5573  0.8342
48028SOL     OW51323   5.521   5.698   4.721  0.2699 -0.3303 -0.1792
48028SOL    HW151324   5.495   5.610   4.695  0.0058 -0.6285  1.0699
48028SOL    HW251325   5.610   5.688   4.755 -0.1200 -0.2971  0.8839
48029SOL     OW51326  11.940   1.815  12.061  0.3857 -0.2318  0.3811
48029SOL    HW151327  12.006   1.775  12.004  0.6342  0.1059  0.4299
48029SOL    HW251328  11.991   1.865  12.125  0.0724  0.7967 -0.1466
48030SOL     OW51329   3.813   8.045   3.752  0.5568 -0.0225  0.3880
48030SOL    HW151330   3.855   8.053   3.838 -1.6785  0.3955  1.5313
48030SOL    HW251331   3.745   7.980   3.766  0.3362 -0.1417 -1.1670
48031SOL     OW51332  11.942   0.668   0.307 -0.0736 -0.4464 -0.9768
48031SOL    HW151333  12.035   0.670   0.328 -0.1387  0.5558 -0.6942
48031SOL    HW251334  11.903   0.731   0.368 -0.6823  0.4745 -2.2755
48032SOL     OW51335   5.812   7.307   2.581  0.5482  0.4643 -0.3413
48032SOL    HW151336   5.788   7.229   2.530 -0.9703 -0.6141  1.8554
48032SOL    HW251337   5.887   7.344   2.534  2.8061 -3.5664 -0.3577
48033SOL     OW51338   5.048  10.930   9.862 -0.2524  0.4831  0.1095
48033SOL    HW151339   4.997  10.866   9.811  0.6708 -0.9090  0.8683
48033SOL    HW251340   5.108  10.876   9.914  1.6227  2.0327 -0.3487
48034SOL     OW51341   2.187   2.156   0.055 -0.2681 -0.3075 -0.0160
48034SOL    HW151342   2.108   2.179   0.005 -0.6207  0.7294  0.9560
48034SOL    HW251343   2.245   2.115  -0.009  0.1421  2.7983 -1.8442
48035SOL     OW51344  12.187   4.813   5.319 -0.6245 -0.4471 -0.2041
48035SOL    HW151345  12.181   4.827   5.413 -0.3884 -0.2471 -0.2196
48035SOL    HW251346  12.253   4.744   5.309  1.4995  1.4798 -0.3747
48036SOL     OW51347  11.859  10.501   3.633  0.5041 -0.4631 -0.0605
48036SOL    HW151348  11.849  10.509   3.538  1.5002 -0.8264 -0.2104
48036SOL    HW251349  11.770  10.514   3.668  0.1195 -0.3764 -1.0386
48037SOL     OW51350   0.289  12.699   3.074  0.5384 -0.0925 -0.3080
48037SOL    HW151351   0.352  12.681   3.144  0.9874  2.8639  0.2074
48037SOL    HW251352   0.310  12.636   3.006  2.1339 -1.0825  1.0165
48038SOL     OW51353   9.238   1.158  10.563 -0.8617 -0.1486 -0.6967
48038SOL    HW151354   9.332   1.144  10.567 -0.8859 -0.5905 -1.4146
48038SOL    HW251355   9.223   1.199  10.478 -1.2746  0.3288 -0.4049
48039SOL     OW51356   8.915   7.246  10.813 -0.2058 -0.4365 -0.3480
48039SOL    HW151357   8.867   7.246  10.897 -0.0775  2.1485 -0.1918
48039SOL    HW251358   8.865   7.306  10.758  1.6536  0.6692 -0.8977
48040SOL     OW51359   7.721   1.116   6.888 -0.5376  0.1737 -0.0350
48040SOL    HW151360   7.661   1.166   6.832 -0.2331  1.1409  0.4735
48040SOL    HW251361   7.799   1.103   6.833 -0.0390  1.5637  0.3040
48041SOL     OW51362   3.747  12.375   9.458 -0.3158 -0.3306  0.0297
48041SOL    HW151363   3.739  12.366   9.364 -0.6168 -1.9342  0.1827
48041SOL    HW251364   3.665  12.415   9.486 -0.7421 -0.9770 -0.2679
48042SOL     OW51365   3.254  12.302   5.508 -0.0163 -0.0158  0.3793
48042SOL    HW151366   3.261  12.396   5.495 -1.8618  0.1551  0.4515
48042SOL    HW251367   3.196  12.292   5.583 -0.1288 -1.2235  0.1466
48043SOL     OW51368   1.576   9.975   4.575 -0.2163 -0.6384  0.5482
48043SOL    HW151369   1.653   9.917   4.576  0.0476 -0.2833  0.7125
48043SOL    HW251370   1.604  10.051   4.524  0.3206  0.5605  2.5286
48044SOL     OW51371   3.899   6.167  11.876 -0.3358 -0.2344 -0.3676
48044SOL    HW151372   3.920   6.249  11.921 -0.1467 -0.1132 -0.6749
48044SOL    HW251373   3.940   6.099  11.929 -0.7049 -0.1572  0.0284
48045SOL     OW51374   4.199  11.849   2.562  0.0787  0.1751  0.2260
48045SOL    HW151375   4.150  11.767   2.559  1.6094 -0.7614 -0.8273
48045SOL    HW251376   4.234  11.860   2.473  1.4479  0.9685  0.8163
48046SOL     OW51377   7.501   7.783   0.263  0.3933 -0.0582 -0.1377
48046SOL    HW151378   7.520   7.850   0.198 -0.0014 -0.4677 -0.6761
48046SOL    HW251379   7.548   7.706   0.233 -0.6909 -0.5735 -0.5481
48047SOL     OW51380   5.724   8.609   4.683 -0.1972 -0.2933  0.0582
48047SOL    HW151381   5.741   8.563   4.765  1.1095 -0.2595 -0.1610
48047SOL    HW251382   5.720   8.701   4.707 -1.0355 -0.3769  0.2492
48048SOL     OW51383  11.243  10.478   6.378  0.2335  0.2562  0.0915
48048SOL    HW151384  11.254  10.545   6.445 -1.1557 -0.7300  1.3840
48048SOL    HW251385  11.150  10.479   6.357  0.8234  1.5314 -2.9865
48049SOL     OW51386   6.437   9.800   6.605 -0.0941 -0.3410 -0.3882
48049SOL    HW151387   6.514   9.775   6.657 -0.8395  0.7908  1.3280
48049SOL    HW251388   6.365   9.748   6.641 -0.9085  1.5033  0.7431
48050SOL     OW51389  10.101   6.042   2.484  0.8119  0.2583 -0.2638
48050SOL    HW151390  10.193   6.056   2.509  1.2670 -2.2268 -0.2869
48050SOL    HW251391  10.106   5.999   2.399 -0.4187  0.6326 -0.5453
48051SOL     OW51392   8.738   6.323  12.140  0.0614  0.0571 -0.1486
48051SOL    HW151393   8.809   6.341  12.078  0.9781  2.2474  1.4032
48051SOL    HW251394   8.695   6.245  12.106  0.3391  1.2651 -3.6732
48052SOL     OW51395   8.889   9.311   7.712  0.2763 -0.5330  0.1850
48052SOL    HW151396   8.835   9.365   7.769 -0.7722 -0.5787 -0.7120
48052SOL    HW251397   8.879   9.222   7.746 -0.1456 -0.5249  0.0876
48053SOL     OW51398   5.508   3.495   0.098  0.5569 -0.5563  0.7195
48053SOL    HW151399   5.501   3.590   0.093 -0.2125 -0.6126  0.5376
48053SOL    HW251400   5.575   3.478   0.164 -0.2211  0.0962  1.6941
48054SOL     OW51401   3.384  10.175   7.646 -0.0929  0.0539 -0.0474
48054SOL    HW151402   3.342  10.098   7.684  0.6375  0.0127  0.7101
48054SOL    HW251403   3.383  10.240   7.716 -0.7541  0.7729 -0.6966
48055SOL     OW51404   9.152   0.769   8.096  0.8446  0.0604  0.2020
48055SOL    HW151405   9.146   0.688   8.147 -0.0869  0.3573  0.5700
48055SOL    HW251406   9.243   0.797   8.107  1.2163 -1.0010 -0.0340
48056SOL     OW51407   0.318   2.679  11.802  0.0063 -0.3138  0.2334
48056SOL    HW151408   0.242   2.654  11.749 -1.8107  0.8347  2.1238
48056SOL    HW251409   0.290   2.664  11.893  1.5643  1.3176  1.0566
48057SOL     OW51410   4.522   0.467  10.159  0.0048  0.5846 -0.2740
48057SOL    HW151411   4.597   0.434  10.209  0.2201  1.4569 -0.0042
48057SOL    HW251412   4.541   0.442  10.069 -0.0411 -0.3793 -0.0287
48058SOL     OW51413  10.872   8.606   9.696  0.3220 -0.5372 -0.0734
48058SOL    HW151414  10.906   8.522   9.665 -0.0255 -0.2697 -1.2451
48058SOL    HW251415  10.810   8.583   9.765 -1.2097 -1.4234 -1.6439
48059SOL     OW51416   1.449   2.866  12.192  0.4833  0.2231  0.4515
48059SOL    HW151417   1.370   2.918  12.202  1.6353  1.7699  2.3542
48059SOL    HW251418   1.510   2.924  12.145  1.1994 -0.0699  0.9996
48060SOL     OW51419   5.672   9.689   4.441  0.0263  0.0272 -0.2309
48060SOL    HW151420   5.761   9.692   4.407 -0.0439  0.4667 -0.3853
48060SOL    HW251421   5.625   9.757   4.392 -0.5108 -0.5166 -0.4810
48061SOL     OW51422   1.442   5.123   3.626  0.2377  0.5107  0.0969
48061SOL    HW151423   1.358   5.076   3.628  0.4749  0.1101  1.6655
48061SOL    HW251424   1.419   5.213   3.648  0.2000  0.4145  0.4610
48062SOL     OW51425  10.061   1.235  10.393 -0.1819  0.5409  0.2102
48062SOL    HW151426  10.046   1.215  10.301 -0.3723 -1.2621  0.5932
48062SOL    HW251427  10.135   1.180  10.418 -0.0016  1.1622  1.0798
48063SOL     OW51428  12.689   8.648   5.863 -0.2555 -0.6407 -0.6387
48063SOL    HW151429  12.732   8.706   5.801  1.9390  0.3625  1.6390
48063SOL    HW251430  12.686   8.698   5.945  1.1548 -3.4040  1.2843
48064SOL     OW51431  11.020   0.080  10.138 -0.1159 -0.1720  0.1755
48064SOL    HW151432  10.969   0.039  10.068  1.0885 -1.5325  0.0457
48064SOL    HW251433  11.061   0.006  10.184 -0.9951  0.6660  2.4431
48065SOL     OW51434   7.609  10.157   3.843 -0.1836  0.1637 -0.0678
48065SOL    HW151435   7.523  10.144   3.804 -0.4994 -0.6379  0.8521
48065SOL    HW251436   7.666  10.095   3.797 -0.2506  0.2069 -0.2079
48066SOL     OW51437   3.808   5.406   0.592 -0.1916 -0.2197  0.2744
48066SOL    HW151438   3.787   5.499   0.604 -1.0899 -0.2008 -1.1996
48066SOL    HW251439   3.731   5.360   0.625 -0.5308 -0.3633 -0.7188
48067SOL     OW51440   9.226   8.560  12.211 -0.0992 -0.3201  0.0731
48067SOL    HW151441   9.214   8.494  12.280  1.5423 -1.1190 -0.3455
48067SOL    HW251442   9.283   8.626  12.251  0.9598 -0.8486 -0.5080
48068SOL     OW51443   5.824   6.775  10.266  0.5274  0.6846 -0.0776
48068SOL    HW151444   5.765   6.739  10.201  1.2895 -0.2998 -0.2538
48068SOL    HW251445   5.777   6.767  10.349  0.0035  0.8925 -0.3508
48069SOL     OW51446  11.661   0.919   7.197  0.2317  0.2199 -0.4454
48069SOL    HW151447  11.722   0.899   7.126 -0.2143 -1.1293 -0.4769
48069SOL    HW251448  11.576   0.923   7.154 -0.1036 -1.0536  0.0597
48070SOL     OW51449   2.598   4.472   3.810  0.3754 -0.3932  0.3863
48070SOL    HW151450   2.685   4.487   3.774  0.2040  0.9089  0.4486
48070SOL    HW251451   2.538   4.509   3.746 -0.0164  0.4652  1.2140
48071SOL     OW51452  11.151  11.978   0.985  0.1271  0.3059  0.1390
48071SOL    HW151453  11.182  12.068   0.978  1.2056 -0.1774 -2.0819
48071SOL    HW251454  11.223  11.925   0.952 -0.7928 -1.3399  0.6446
48072SOL     OW51455   6.972  12.641   5.281 -0.8799  0.0258  0.5783
48072SOL    HW151456   6.915  12.664   5.354 -2.2433 -2.4739  0.4229
48072SOL    HW251457   6.939  12.693   5.208 -1.2101  0.6056  1.1276
48073SOL     OW51458   8.948   3.455   5.522 -0.6087 -0.3346  0.5382
48073SOL    HW151459   8.962   3.494   5.609 -0.7314 -2.3348  1.5309
48073SOL    HW251460   9.027   3.404   5.506 -1.8740 -2.6311  1.0453
48074SOL     OW51461  11.198   7.892   3.981 -0.4838  0.3244  0.3000
48074SOL    HW151462  11.282   7.916   3.942 -1.5472  2.5482 -0.7990
48074SOL    HW251463  11.156   7.836   3.915 -0.8734  1.2775 -0.2774
48075SOL     OW51464   7.343   5.861   9.155  0.1048  0.2975  0.0084
48075SOL    HW151465   7.383   5.937   9.112  0.1517  0.3057  0.0646
48075SOL    HW251466   7.335   5.796   9.086 -0.6469  0.6194 -0.2195
48076SOL     OW51467   7.034   0.000  10.049 -0.0812  0.1467  0.0159
48076SOL    HW151468   7.000  -0.066  10.108 -1.8696  0.9783  0.0061
48076SOL    HW251469   6.994  -0.021   9.964  0.2900  0.5273 -0.2594
48077SOL     OW51470   2.579   3.543   5.822 -0.3963 -0.1423  0.2065
48077SOL    HW151471   2.491   3.574   5.844 -0.0110  1.0516  0.1667
48077SOL    HW251472   2.574   3.518   5.730 -0.6186  0.2451  0.1087
48078SOL     OW51473   8.977   4.631   8.216  0.0724 -0.1608  0.3629
48078SOL    HW151474   8.995   4.652   8.124 -0.9834  1.4361  0.4933
48078SOL    HW251475   8.960   4.715   8.258 -0.2650 -0.9320  1.8669
48079SOL     OW51476   3.863   5.079  12.325  0.4220  0.0285  0.5440
48079SOL    HW151477   3.805   5.154  12.315 -2.0728 -1.7631  0.4489
48079SOL    HW251478   3.845   5.047  12.414  2.0593 -0.0203  0.8896
48080SOL     OW51479   1.048   8.732   5.160  0.6023 -0.4188 -0.7823
48080SOL    HW151480   0.964   8.696   5.188  0.9761 -0.9413 -0.3034
48080SOL    HW251481   1.025   8.810   5.110 -0.1186  0.6099  1.0457
48081SOL     OW51482   0.795   7.871  11.344  0.2156  0.1461 -0.0091
48081SOL    HW151483   0.744   7.800  11.382  1.9506 -0.4681  1.3214
48081SOL    HW251484   0.839   7.911  11.419  3.0352 -0.4898 -1.1935
48082SOL     OW51485   6.721  10.769   7.570  0.2691  0.3161  0.1285
48082SOL    HW151486   6.816  10.759   7.568  0.3512  1.0139  0.3238
48082SOL    HW251487   6.689  10.687   7.607  0.7688 -0.0676 -0.2802
48083SOL     OW51488   2.235   4.813   5.475  0.0995 -0.1625 -0.2503
48083SOL    HW151489   2.186   4.774   5.547 -1.6245 -0.4485 -1.5171
48083SOL    HW251490   2.273   4.739   5.428 -1.7863 -0.3190 -1.6763
48084SOL     OW51491   6.363  11.588   5.940  0.6166 -0.0693 -0.1449
48084SOL    HW151492   6.369  11.534   5.861 -0.0361  0.0570 -0.2898
48084SOL    HW251493   6.378  11.527   6.012 -0.8690 -0.6280 -0.2628
48085SOL     OW51494   7.954   0.406  10.691  0.5670  0.0030 -0.3232
48085SOL    HW151495   7.899   0.475  10.728  1.5246  0.8835 -0.5082
48085SOL    HW251496   7.895   0.360  10.630 -0.2985  0.1486  0.3814
48086SOL     OW51497   3.474   7.615   3.561  0.2347  0.3345  0.4525
48086SOL    HW151498   3.529   7.618   3.483 -0.5189  0.9148 -0.0775
48086SOL    HW251499   3.440   7.704   3.570 -0.3900  0.0569  0.9366
48087SOL     OW51500   7.767   8.207   1.371  0.5613 -0.3334 -0.6607
48087SOL    HW151501   7.747   8.236   1.460  1.9393  2.0700 -1.0395
48087SOL    HW251502   7.685   8.216   1.323  0.6117  1.8054 -0.4206
48088SOL     OW51503   3.462   0.619   3.671  0.3288 -0.1641  0.0670
48088SOL    HW151504   3.400   0.691   3.686  0.6149  0.3739 -1.1884
48088SOL    HW251505   3.476   0.581   3.757 -0.8421  0.4555  0.5543
48089SOL     OW51506   0.085  10.011   1.724 -0.1687  0.2699  0.3030
48089SOL    HW151507   0.050  10.038   1.639 -2.0989  2.4074  1.6848
48089SOL    HW251508   0.029   9.938   1.751  2.0645 -2.2220 -1.2852
48090SOL     OW51509  12.676   7.287   8.191  0.4579 -0.0186 -0.0815
48090SOL    HW151510  12.603   7.244   8.145  1.1701  0.1791 -1.4414
48090SOL    HW251511  12.677   7.246   8.277 -2.3901  1.2166  0.6474
48091SOL     OW51512  12.572   0.282   7.158  0.1909  0.6373  0.0109
48091SOL    HW151513  12.579   0.195   7.198  0.7466  0.3200 -0.7501
48091SOL    HW251514  12.478   0.301   7.158  0.0818  0.1285  0.3711
48092SOL     OW51515   8.809   6.405   9.619  0.3389  0.6691 -0.1255
48092SOL    HW151516   8.772   6.322   9.588 -0.9348  1.1588  0.0301
48092SOL    HW251517   8.869   6.380   9.690 -0.6343 -0.0773  0.4621
48093SOL     OW51518  12.109   5.339   7.207 -0.2102  0.2221  0.3138
48093SOL    HW151519  12.122   5.316   7.299  0.3585 -1.5020 -0.1644
48093SOL    HW251520  12.198   5.348   7.172 -0.4223  0.4005 -0.1912
48094SOL     OW51521  12.274   1.976   4.143  0.1925  0.3597 -0.7591
48094SOL    HW151522  12.191   2.020   4.122 -0.5692  0.9606  2.8695
48094SOL    HW251523  12.268   1.891   4.099 -1.7916  0.8564 -1.5692
48095SOL     OW51524   3.704   8.562   0.752  1.3051 -0.3996  0.1415
48095SOL    HW151525   3.659   8.645   0.765  1.0666 -0.7071  1.4328
48095SOL    HW251526   3.664   8.525   0.673  0.2201 -0.0497  0.5112
48096SOL     OW51527  10.784   9.195   8.056  0.5234 -0.1717  0.6112
48096SOL    HW151528  10.694   9.216   8.081  0.5191 -1.2153  1.5638
48096SOL    HW251529  10.804   9.114   8.103  1.5846 -0.5703 -0.4682
48097SOL     OW51530   9.497   2.409   1.461 -0.2387 -0.3959  0.3459
48097SOL    HW151531   9.520   2.479   1.400  1.8209 -0.5840  0.8379
48097SOL    HW251532   9.432   2.357   1.415  0.3082  0.2235 -1.1701
48098SOL     OW51533   9.757   7.574   6.954  0.1481 -0.9291 -0.7188
48098SOL    HW151534   9.848   7.603   6.953 -0.4845  1.2175 -0.7191
48098SOL    HW251535   9.761   7.483   6.985  2.1855 -0.5532  0.2730
48099SOL     OW51536   4.439  12.164   5.971  0.3118 -0.6228 -0.6991
48099SOL    HW151537   4.362  12.170   6.027  0.9182 -0.3365  0.1194
48099SOL    HW251538   4.513  12.163   6.031  0.9793 -0.4254 -1.4927
48100SOL     OW51539  11.483  10.090   2.192 -0.2706  0.0825  0.6931
48100SOL    HW151540  11.420  10.038   2.241 -0.6498 -0.9520 -0.7957
48100SOL    HW251541  11.436  10.116   2.113  1.1866 -0.8985 -0.5660
48101SOL     OW51542   2.355   5.791  12.624 -0.2391  0.7095 -0.1574
48101SOL    HW151543   2.349   5.764  12.532 -0.4993  0.7685 -0.1589
48101SOL    HW251544   2.438   5.755  12.654 -0.0545  0.8577 -0.4722
48102SOL     OW51545   2.771   2.969   2.862 -0.0763  0.1934 -0.3319
48102SOL    HW151546   2.784   3.046   2.805  0.5266 -0.3789 -0.9832
48102SOL    HW251547   2.733   2.903   2.804 -0.1242 -0.1716  0.1144
48103SOL     OW51548  10.303   0.899  10.775 -0.2412 -0.2454  0.0247
48103SOL    HW151549  10.296   0.991  10.803  1.1150  0.1610 -0.8491
48103SOL    HW251550  10.315   0.850  10.856  2.8068  0.8096  0.3481
48104SOL     OW51551   5.972   6.700  12.549  0.2261  0.4840  0.4853
48104SOL    HW151552   5.920   6.681  12.471  0.1826 -0.5843  0.7469
48104SOL    HW251553   5.946   6.788  12.575 -0.1136  0.6614 -0.4334
48105SOL     OW51554   6.178   4.534   1.087  0.0778  0.3519 -0.2055
48105SOL    HW151555   6.265   4.512   1.121  0.1209 -0.3580 -0.7587
48105SOL    HW251556   6.194   4.576   1.003  0.0170  2.9424  0.9698
48106SOL     OW51557   6.756   0.043   6.077 -0.0947  0.2885 -0.4558
48106SOL    HW151558   6.842   0.075   6.105 -0.3252  0.3912  0.1292
48106SOL    HW251559   6.693   0.104   6.115 -0.4101  0.4510 -1.2221
48107SOL     OW51560   6.602   7.983   5.683 -0.0625  0.1827  0.4964
48107SOL    HW151561   6.620   8.076   5.669  1.1306 -0.0676  0.2151
48107SOL    HW251562   6.510   7.980   5.707 -0.8070  1.2160 -1.8641
48108SOL     OW51563   8.709   4.508  12.506  0.3099 -0.6108  0.1384
48108SOL    HW151564   8.676   4.440  12.565  0.8153  0.6177  1.8932
48108SOL    HW251565   8.739   4.578  12.564 -0.7475  1.3971 -1.6134
48109SOL     OW51566   2.543   7.810   8.768  0.3207  0.1912  0.0038
48109SOL    HW151567   2.562   7.887   8.821 -1.1184  0.0398  0.7953
48109SOL    HW251568   2.569   7.835   8.679  2.7141  0.4730  0.7042
48110SOL     OW51569   4.784   2.510  11.443 -0.2355 -0.3838 -0.0206
48110SOL    HW151570   4.718   2.486  11.507 -0.1203 -1.6747 -0.3529
48110SOL    HW251571   4.757   2.465  11.362  1.4224 -1.6050  0.0444
48111SOL     OW51572   4.421   0.369   3.530  0.0540 -0.0562  0.5599
48111SOL    HW151573   4.330   0.396   3.545  0.0618 -0.3475  1.1943
48111SOL    HW251574   4.434   0.297   3.593 -0.1798 -2.0052 -1.5025
48112SOL     OW51575  12.150  12.304  11.381 -0.2523  0.3510 -0.6042
48112SOL    HW151576  12.134  12.211  11.397  1.6488  0.1044  0.0967
48112SOL    HW251577  12.087  12.350  11.437 -0.1918 -0.5193  0.1861
48113SOL     OW51578  12.568   4.610   3.111  0.4111  0.0775  0.1382
48113SOL    HW151579  12.532   4.697   3.095  0.3751  1.0360  4.3834
48113SOL    HW251580  12.663   4.621   3.101  0.2707 -0.0312 -1.5608
48114SOL     OW51581   1.022   1.068   7.560  0.2173  0.1715 -0.5561
48114SOL    HW151582   1.022   1.076   7.464 -0.3965  0.5884 -0.5254
48114SOL    HW251583   1.113   1.047   7.582  0.1395 -1.1311 -1.3203
48115SOL     OW51584   7.263  12.088   5.105 -0.2334  0.0881 -0.7110
48115SOL    HW151585   7.229  12.177   5.109  1.8829  0.9311  0.2733
48115SOL    HW251586   7.358  12.099   5.098 -0.0180 -2.1050 -2.0193
48116SOL     OW51587   1.163   0.194   2.369 -0.7741  0.2049 -0.2366
48116SOL    HW151588   1.223   0.268   2.377 -0.6715  0.2097 -0.9779
48116SOL    HW251589   1.172   0.146   2.451  0.4806  0.0383 -0.4537
48117SOL     OW51590   6.588   4.716   1.902 -0.2072  0.1087 -0.1573
48117SOL    HW151591   6.581   4.661   1.980  1.7708  1.7081  1.2417
48117SOL    HW251592   6.661   4.679   1.853 -1.2207 -0.6773 -1.1142
48118SOL     OW51593  10.946   2.034   1.115 -0.2726 -0.4246 -0.0227
48118SOL    HW151594  10.874   1.997   1.166 -0.8146  1.3002  0.5143
48118SOL    HW251595  10.994   1.958   1.083 -1.8937 -1.6026  0.2345
48119SOL     OW51596   1.275   3.809   2.531  0.4496 -0.4217 -0.0169
48119SOL    HW151597   1.279   3.800   2.626  0.9354 -1.3846 -0.1171
48119SOL    HW251598   1.354   3.857   2.508 -0.4896  1.3254  0.1990
48120SOL     OW51599   4.206   5.308   1.911 -0.2936  0.0322 -0.0306
48120SOL    HW151600   4.201   5.288   1.817  0.7096  2.7698 -0.7744
48120SOL    HW251601   4.177   5.228   1.954 -2.9254 -0.6309 -2.6832
48121SOL     OW51602   3.578   8.677   0.189  0.7623 -0.4925 -0.3274
48121SOL    HW151603   3.530   8.727   0.123  0.4284 -0.5940 -0.1665
48121SOL    HW251604   3.542   8.708   0.272  0.8128 -0.7342 -0.2154
48122SOL     OW51605   5.422   4.927   5.443  0.3784  0.4066  0.2236
48122SOL    HW151606   5.327   4.923   5.430  0.1645 -0.9591  1.9446
48122SOL    HW251607   5.444   4.847   5.490  2.1074  1.5705  1.5251
48123SOL     OW51608   1.604  12.469   2.878 -0.4965 -0.0846 -0.5722
48123SOL    HW151609   1.666  12.490   2.948  0.9214 -1.4597 -1.3767
48123SOL    HW251610   1.520  12.462   2.923 -0.5239  3.6474  0.2746
48124SOL     OW51611  10.967   7.253   3.931 -0.1096  0.0028  0.6120
48124SOL    HW151612  10.900   7.289   3.989  0.2862  1.3872  0.2441
48124SOL    HW251613  10.951   7.159   3.932 -0.7708  0.0922  2.1360
48125SOL     OW51614   7.214   5.208  10.156  0.0115 -0.8371 -0.2107
48125SOL    HW151615   7.206   5.223  10.251  1.9719 -1.6910  0.1529
48125SOL    HW251616   7.137   5.157  10.133 -0.3156 -0.9334  1.0106
48126SOL     OW51617   1.739   4.819   2.859  0.8249  0.1835 -0.0071
48126SOL    HW151618   1.712   4.772   2.937  1.6376 -1.0751 -0.4611
48126SOL    HW251619   1.693   4.903   2.864 -2.2325 -1.3556 -0.1537
48127SOL     OW51620   9.735   6.346   0.615  0.4604 -0.3028 -0.0747
48127SOL    HW151621   9.764   6.267   0.569  0.6219  1.3040 -2.9326
48127SOL    HW251622   9.666   6.382   0.560 -0.3079  1.0509  1.6917
48128SOL     OW51623   0.662   7.189   5.042  0.4573 -0.1924 -1.2801
48128SOL    HW151624   0.666   7.098   5.012  1.4201 -0.1488 -1.3244
48128SOL    HW251625   0.754   7.215   5.051  0.1902  0.5126 -0.4649
48129SOL     OW51626   1.757   0.347   0.288 -0.5564  0.4619  0.5093
48129SOL    HW151627   1.719   0.281   0.231  0.1796  0.2223  0.2874
48129SOL    HW251628   1.813   0.399   0.231 -1.0483  1.2284  0.6984
48130SOL     OW51629   1.488  12.216   4.969 -0.2291  0.1205 -0.6380
48130SOL    HW151630   1.534  12.242   5.049 -0.9844 -0.0954 -0.1206
48130SOL    HW251631   1.450  12.297   4.936  1.9232  0.6353 -2.0328
48131SOL     OW51632   2.833   6.529   6.437  0.3208 -0.6794  0.1814
48131SOL    HW151633   2.783   6.479   6.502 -0.5705 -1.3486 -0.9681
48131SOL    HW251634   2.852   6.612   6.480 -2.2923 -0.1438  0.5269
48132SOL     OW51635   5.469   9.629   3.424  0.2890 -0.3078  0.2986
48132SOL    HW151636   5.509   9.715   3.437  2.7388 -1.3086  0.0079
48132SOL    HW251637   5.447   9.626   3.331  0.6288 -0.1594  0.2120
48133SOL     OW51638   3.196   6.391  10.909  0.2685  0.1674  0.6141
48133SOL    HW151639   3.270   6.372  10.850 -3.0005  1.5724 -4.5915
48133SOL    HW251640   3.221   6.472  10.953  2.7601 -0.7255  1.0100
48134SOL     OW51641   0.642   2.855  11.228 -0.0210 -0.4412  0.3471
48134SOL    HW151642   0.689   2.817  11.302 -1.5359 -3.7246 -0.1757
48134SOL    HW251643   0.570   2.794  11.212 -0.4729  0.7632 -3.0579
48135SOL     OW51644   7.240  12.437   6.634 -0.6684 -0.3712  0.5036
48135SOL    HW151645   7.320  12.456   6.584  0.3761 -1.4146  1.6733
48135SOL    HW251646   7.171  12.486   6.589  0.4568 -0.1451 -1.0904
48136SOL     OW51647   7.405   5.854   1.807 -0.4084 -0.2061  0.2483
48136SOL    HW151648   7.314   5.852   1.777 -0.3620 -0.3573  0.1182
48136SOL    HW251649   7.442   5.931   1.764 -0.6037  0.1308  0.6788
48137SOL     OW51650   8.868   4.563   7.837  0.0147 -0.5603  0.2496
48137SOL    HW151651   8.822   4.582   7.755  1.7371 -1.1111 -0.8962
48137SOL    HW251652   8.909   4.646   7.861  0.2542 -0.6234  0.0593
48138SOL     OW51653   8.409   8.202  10.026  0.1103  0.2207  0.3037
48138SOL    HW151654   8.322   8.175  10.057  1.0133 -1.8006  1.2355
48138SOL    HW251655   8.437   8.269  10.087  0.2052 -0.8983  1.5311
48139SOL     OW51656  10.355   8.919   0.973 -0.1346 -0.1514  0.3728
48139SOL    HW151657  10.341   8.845   0.915 -0.9033  0.0783  0.2532
48139SOL    HW251658  10.268   8.955   0.988  0.1943  0.5562  0.6591
48140SOL     OW51659   2.813   0.930   5.202  0.2605  0.4418 -0.1944
48140SOL    HW151660   2.829   1.004   5.144  0.1926  0.6732  0.0781
48140SOL    HW251661   2.899   0.891   5.214  0.7640  1.9203  1.5782
48141SOL     OW51662   1.670  11.856   9.189 -0.0281  0.1097 -0.9210
48141SOL    HW151663   1.613  11.882   9.261 -1.4238  0.4584 -2.0848
48141SOL    HW251664   1.732  11.794   9.227  0.4995  1.7098  0.9616
48142SOL     OW51665  12.010  11.266   9.068  0.0202  0.2714 -0.3617
48142SOL    HW151666  11.952  11.260   9.144  1.9810 -0.2291  1.1952
48142SOL    HW251667  12.027  11.359   9.058  0.7013  0.2657  0.6185
48143SOL     OW51668   9.648   0.914   0.821 -0.4133 -0.1886  0.2759
48143SOL    HW151669   9.608   0.851   0.881 -2.4910 -1.5973 -2.3811
48143SOL    HW251670   9.730   0.871   0.794 -0.2553 -0.2680  0.8547
48144SOL     OW51671   4.962  11.362   2.078  0.0644  0.2005 -0.7742
48144SOL    HW151672   4.876  11.350   2.038 -1.1000 -0.4954  1.7056
48144SOL    HW251673   4.942  11.397   2.165  2.3822  0.9962 -0.5069
48145SOL     OW51674   4.915   0.156   2.398 -0.3047  0.1368 -0.4671
48145SOL    HW151675   4.846   0.117   2.344 -1.6128  2.4774 -0.6077
48145SOL    HW251676   4.876   0.163   2.485  0.0578  0.6946 -0.3456
48146SOL     OW51677   8.761   8.898  12.062  0.5205  0.4257  0.1872
48146SOL    HW151678   8.695   8.841  12.102  0.4687  0.8299  0.6925
48146SOL    HW251679   8.799   8.846  11.992  1.0702 -0.5447  1.1720
48147SOL     OW51680   8.391   2.784   5.096 -0.3059  0.3974 -0.0126
48147SOL    HW151681   8.402   2.740   5.011  1.1511 -1.3271  0.9904
48147SOL    HW251682   8.463   2.847   5.099  1.5618 -1.6323  1.0801
48148SOL     OW51683   3.183   5.232   5.463  0.1175  0.5874 -0.0372
48148SOL    HW151684   3.278   5.223   5.451  0.1870  1.1200  0.0703
48148SOL    HW251685   3.165   5.323   5.439  0.0336  1.3045  2.4557
48149SOL     OW51686   2.551   5.831  10.676  0.1807  0.2655 -0.2900
48149SOL    HW151687   2.610   5.760  10.699  0.1369  0.0080 -0.9528
48149SOL    HW251688   2.518   5.863  10.759  1.4025  0.5406  0.1125
48150SOL     OW51689   9.958   0.505   8.124  0.2451 -0.5066 -0.1306
48150SOL    HW151690  10.045   0.464   8.127  1.1447  1.3351  0.4543
48150SOL    HW251691   9.920   0.474   8.042  1.2238 -1.7510 -0.1537
48151SOL     OW51692   9.214   8.271  10.864  0.2829  0.6467  0.4828
48151SOL    HW151693   9.157   8.236  10.933 -1.1652 -0.9855 -1.4416
48151SOL    HW251694   9.222   8.200  10.800  1.1316  2.2711 -1.3221
48152SOL     OW51695   7.552  11.666   7.664 -0.8248 -0.4152 -0.3297
48152SOL    HW151696   7.499  11.733   7.706  0.2660 -0.8682  1.9057
48152SOL    HW251697   7.573  11.604   7.734 -0.6956 -2.4038 -2.0392
48153SOL     OW51698   2.888  11.139   1.303 -0.0177  0.6861 -0.6344
48153SOL    HW151699   2.963  11.124   1.245 -0.8127  2.1510 -2.1015
48153SOL    HW251700   2.825  11.072   1.278  1.8252 -2.6879  2.7532
48154SOL     OW51701  12.069  12.275   1.622 -0.1591 -0.1305  0.5456
48154SOL    HW151702  12.057  12.185   1.590  2.1419 -0.0745 -0.7269
48154SOL    HW251703  12.016  12.279   1.702 -0.2340 -2.6651  0.7174
48155SOL     OW51704   3.672   1.931  12.253  0.0731  0.0985  0.2045
48155SOL    HW151705   3.644   1.949  12.163  0.8518 -1.2109 -0.3324
48155SOL    HW251706   3.767   1.938  12.250  0.1267 -0.2764  0.8543
48156SOL     OW51707   1.110   0.716   3.991  0.7039  0.6219  0.1617
48156SOL    HW151708   1.168   0.792   3.989 -0.0631  1.2626  1.1186
48156SOL    HW251709   1.133   0.670   4.071 -0.5336  1.2606  0.9171
48157SOL     OW51710  10.262   6.449   3.132 -0.5053  0.5215  0.2929
48157SOL    HW151711  10.197   6.388   3.095 -2.2354  2.2849  0.2670
48157SOL    HW251712  10.316   6.474   3.057 -0.3688 -0.2561  0.1208
48158SOL     OW51713   8.314   7.435  10.225  0.7998 -0.3998  0.1102
48158SOL    HW151714   8.268   7.507  10.182  0.9561 -0.0248  0.5613
48158SOL    HW251715   8.349   7.382  10.153  0.8134  0.0579 -0.2220
48159SOL     OW51716   6.890   0.445   2.354 -0.1572  0.2959 -0.4371
48159SOL    HW151717   6.800   0.472   2.341  0.3055  1.4636 -1.3998
48159SOL    HW251718   6.910   0.468   2.445 -1.2234 -1.2946  0.2635
48160SOL     OW51719   7.123   3.426   2.969 -0.1387  0.3501  0.4616
48160SOL    HW151720   7.123   3.363   2.897  0.6627 -0.0830  0.8293
48160SOL    HW251721   7.031   3.452   2.977 -0.2004  0.6225 -0.8965
48161SOL     OW51722   9.480   3.423   0.041 -0.8212 -0.1552  0.5333
48161SOL    HW151723   9.385   3.408   0.035 -1.0328  1.1792  0.1502
48161SOL    HW251724   9.501   3.408   0.133 -1.0007 -2.5268  0.2297
48162SOL     OW51725   7.186  10.926   8.940 -0.8440 -0.5631  0.5984
48162SOL    HW151726   7.253  10.864   8.910 -1.3464 -0.1758 -1.5358
48162SOL    HW251727   7.236  10.997   8.981  0.1833 -0.0629 -1.3470
48163SOL     OW51728   3.363   2.132   5.060 -0.2141  0.3598  0.2830
48163SOL    HW151729   3.421   2.065   5.095 -0.1266  0.4313  0.2766
48163SOL    HW251730   3.390   2.141   4.968 -0.1936  0.4374  0.2968
48164SOL     OW51731   6.542  11.438   4.361 -0.2222 -0.0796  0.6708
48164SOL    HW151732   6.570  11.365   4.307  0.5052  0.3895  0.4018
48164SOL    HW251733   6.501  11.398   4.437 -2.5895 -0.7786 -0.8552
48165SOL     OW51734  12.330   4.307  10.188 -0.3799  0.6707 -0.2490
48165SOL    HW151735  12.309   4.314  10.095  0.7576  0.2062 -0.5515
48165SOL    HW251736  12.354   4.396  10.214 -1.5431  0.9793 -0.1739
48166SOL     OW51737   3.930  11.547  12.082  0.1879 -0.3086  0.0897
48166SOL    HW151738   3.980  11.475  12.119 -0.9739 -0.5694  1.2522
48166SOL    HW251739   3.995  11.616  12.067  1.2588 -1.4664 -0.7594
48167SOL     OW51740   7.653   7.067   7.905 -0.1630 -0.4197  0.1567
48167SOL    HW151741   7.625   7.147   7.950 -0.1900 -0.4389  0.1745
48167SOL    HW251742   7.607   7.069   7.821  1.2146  0.4830 -0.5971
48168SOL     OW51743   2.775   8.285  10.926 -0.6379  0.5175 -0.6500
48168SOL    HW151744   2.698   8.333  10.956  0.9991  1.9653  1.6863
48168SOL    HW251745   2.826   8.350  10.877  0.7072  0.7262  0.9138
48169SOL     OW51746   2.563   7.710   1.203  0.0106  0.0020  0.2529
48169SOL    HW151747   2.499   7.690   1.135 -0.8218  0.3535  0.9162
48169SOL    HW251748   2.631   7.759   1.158 -0.7684  0.6572 -0.2358
48170SOL     OW51749   8.639   2.117   6.840 -0.0475  0.1424  0.0470
48170SOL    HW151750   8.726   2.152   6.853  0.2953 -0.4553 -0.5635
48170SOL    HW251751   8.624   2.061   6.916  0.3064 -0.1429 -0.0909
48171SOL     OW51752  10.280   1.104   2.062 -0.2073  0.2996  0.2000
48171SOL    HW151753  10.190   1.095   2.095 -0.9314  0.3926 -1.6521
48171SOL    HW251754  10.303   1.195   2.079 -1.6157  1.1330 -1.9356
48172SOL     OW51755   5.615   2.800  11.763  0.1622  1.0767 -0.4148
48172SOL    HW151756   5.711   2.795  11.762  0.0944 -0.8337 -0.6420
48172SOL    HW251757   5.592   2.828  11.675  0.4490 -1.2392 -1.2803
48173SOL     OW51758   5.210  12.111   9.994 -0.1902 -0.0897  0.2109
48173SOL    HW151759   5.228  12.206   9.992  0.2536 -0.1108  1.7634
48173SOL    HW251760   5.116  12.105  10.010 -0.8047  0.0332 -2.7800
48174SOL     OW51761   7.358   2.695   8.985 -0.4799 -0.1465  0.1218
48174SOL    HW151762   7.308   2.718   8.906  0.2692 -0.3442 -0.4191
48174SOL    HW251763   7.292   2.667   9.048 -0.9779 -1.4145 -0.9261
48175SOL     OW51764   1.280   9.340   3.650 -0.2474  0.3174  0.8110
48175SOL    HW151765   1.202   9.289   3.628 -1.1887 -0.0138  4.3129
48175SOL    HW251766   1.247   9.428   3.666  0.0916  0.2272  2.0974
48176SOL     OW51767   1.423   2.400   6.661 -0.3797  0.1213 -0.6238
48176SOL    HW151768   1.491   2.349   6.705 -0.1145  0.4286 -0.6703
48176SOL    HW251769   1.341   2.376   6.704 -0.0196  1.1154  0.6693
48177SOL     OW51770   0.757   6.519   6.488 -0.2044  0.4042  0.2839
48177SOL    HW151771   0.717   6.596   6.445 -0.0221 -0.1330 -0.8916
48177SOL    HW251772   0.806   6.476   6.418 -0.0533 -0.6223  1.0084
48178SOL     OW51773  12.496   6.209  12.192  0.0690  0.2661  0.3666
48178SOL    HW151774  12.504   6.292  12.238  1.4964  1.1582 -1.3966
48178SOL    HW251775  12.407   6.179  12.211  0.8002  0.0993  4.3730
48179SOL     OW51776   6.542   8.113   4.057 -0.4349  0.0262  0.0640
48179SOL    HW151777   6.523   8.200   4.092  3.5642  0.7679  0.9336
48179SOL    HW251778   6.541   8.056   4.134  1.6497  0.3492  0.4061
48180SOL     OW51779  10.140   8.144  11.054 -0.6791 -0.6988  0.1628
48180SOL    HW151780  10.101   8.229  11.077 -0.6956 -0.5846 -0.2701
48180SOL    HW251781  10.234   8.159  11.061 -0.6111 -0.1414 -1.5530
48181SOL     OW51782   2.602   0.973   6.964 -0.7460 -0.4950  0.3920
48181SOL    HW151783   2.673   0.908   6.963  0.3837  0.6364  2.1031
48181SOL    HW251784   2.644   1.054   6.935 -2.0872 -0.4176 -1.4791
48182SOL     OW51785   8.507  11.002   2.609 -0.0166 -0.2240  0.1241
48182SOL    HW151786   8.560  10.942   2.660 -0.9828  0.3463  1.8970
48182SOL    HW251787   8.425  11.010   2.659 -1.8053 -1.0457 -2.4627
48183SOL     OW51788   3.629   4.763   5.305 -0.4962 -0.4846 -0.0365
48183SOL    HW151789   3.652   4.707   5.379 -0.4593 -2.7168 -1.6556
48183SOL    HW251790   3.704   4.821   5.293  1.1360 -2.6208 -0.5925
48184SOL     OW51791   5.466   9.235   3.327 -0.7751  0.1084 -0.1673
48184SOL    HW151792   5.425   9.313   3.364  0.2122  0.0358  1.1532
48184SOL    HW251793   5.554   9.235   3.363 -0.3238 -0.9122 -1.2103
48185SOL     OW51794   7.987   3.046   7.874 -0.7412 -0.1369  0.0853
48185SOL    HW151795   7.959   3.018   7.962  2.4779 -0.3777  1.1671
48185SOL    HW251796   8.012   2.965   7.830 -0.8682  0.1291 -0.4753
48186SOL     OW51797  11.137   7.966   1.576  0.0746  0.3152  0.7264
48186SOL    HW151798  11.055   8.011   1.555 -0.2802 -0.1116  1.1614
48186SOL    HW251799  11.157   7.914   1.498  0.7004  1.5124  0.0629
48187SOL     OW51800   1.924  11.479   4.112 -0.0597  0.3859  1.0644
48187SOL    HW151801   1.848  11.527   4.078 -0.1438 -1.0776 -1.0409
48187SOL    HW251802   1.993  11.497   4.048  0.7260 -0.0581  1.7735
48188SOL     OW51803  10.837  11.379   9.654 -0.1927 -0.1642  0.2040
48188SOL    HW151804  10.743  11.380   9.636 -0.3261  1.3940  0.8098
48188SOL    HW251805  10.878  11.363   9.569 -0.9931 -2.4581  0.1599
48189SOL     OW51806   5.737   9.427   0.256  0.5946  0.1642  1.0835
48189SOL    HW151807   5.699   9.406   0.171  1.8181  0.0056  0.5594
48189SOL    HW251808   5.730   9.522   0.262  1.8802  0.3502  0.1051
48190SOL     OW51809   5.185   0.451   6.017 -0.5885 -0.1833  0.0881
48190SOL    HW151810   5.193   0.518   6.085  0.5744  0.5384 -0.7299
48190SOL    HW251811   5.246   0.382   6.044 -0.3157 -0.0126 -0.0914
48191SOL     OW51812   6.327   4.329   8.667  0.7344 -0.2667 -0.3773
48191SOL    HW151813   6.359   4.259   8.724  0.5060 -0.3511 -0.3489
48191SOL    HW251814   6.291   4.283   8.591 -0.1859 -0.2403  0.0185
48192SOL     OW51815   5.239   5.880   2.176 -0.1475  0.8990 -0.0747
48192SOL    HW151816   5.227   5.786   2.158 -1.0705  1.0790 -0.4336
48192SOL    HW251817   5.205   5.891   2.265  1.1084  0.6786  0.4572
48193SOL     OW51818   2.366   9.566   3.109  0.3125  0.3501 -0.4411
48193SOL    HW151819   2.383   9.496   3.172  0.5894  1.1603  0.3942
48193SOL    HW251820   2.376   9.647   3.159  1.3744  1.0469 -1.7232
48194SOL     OW51821   7.351   5.824   6.575  0.3053 -0.1278 -0.3889
48194SOL    HW151822   7.336   5.738   6.537 -2.0424 -0.1086  0.3281
48194SOL    HW251823   7.322   5.886   6.508  0.4922  0.0433 -0.3132
48195SOL     OW51824   5.293   6.406  11.547 -0.1832 -0.6453  0.2582
48195SOL    HW151825   5.315   6.495  11.520  0.5908 -1.5075 -2.2547
48195SOL    HW251826   5.283   6.411  11.642 -3.3675  2.7328 -0.0542
48196SOL     OW51827   2.479   9.714   2.873 -0.6175  0.2454  0.3436
48196SOL    HW151828   2.513   9.746   2.789 -0.1979 -1.0379 -0.0026
48196SOL    HW251829   2.437   9.790   2.913 -0.9334  0.8581 -1.0919
48197SOL     OW51830   4.739   7.100  11.785  0.2908  0.3787 -0.6082
48197SOL    HW151831   4.803   7.048  11.736 -0.2071  0.4301 -1.3328
48197SOL    HW251832   4.671   7.038  11.809  0.3821  0.4173 -0.2505
48198SOL     OW51833  11.546  11.098  11.246 -0.1816  0.1155  0.4794
48198SOL    HW151834  11.487  11.024  11.258  0.1981 -0.0063  1.7630
48198SOL    HW251835  11.574  11.093  11.155  0.8540 -2.0902  0.8636
48199SOL     OW51836   5.544   6.755   8.997  0.1893  0.3998  0.0116
48199SOL    HW151837   5.638   6.761   8.984  0.0064  2.0244 -0.8892
48199SOL    HW251838   5.519   6.673   8.954  1.0815  0.3822 -0.5014
48200SOL     OW51839   6.735   5.385  12.256  0.2139 -0.4908 -0.2180
48200SOL    HW151840   6.676   5.311  12.240 -0.1174 -0.4096  0.5566
48200SOL    HW251841   6.812   5.367  12.202 -0.5381 -0.5716 -1.2912
48201SOL     OW51842   9.664   7.203   7.585  0.5166  0.0868 -0.3445
48201SOL    HW151843   9.747   7.227   7.627  0.8060 -0.6985 -0.4631
48201SOL    HW251844   9.608   7.279   7.600  1.0033  0.3093  0.4164
48202SOL     OW51845  10.572   4.736  11.495 -0.1402  0.0130  0.0888
48202SOL    HW151846  10.518   4.662  11.467 -2.0084  2.4020 -3.3533
48202SOL    HW251847  10.509   4.802  11.524  1.3335  1.1145  0.9577
48203SOL     OW51848   1.868  11.394   7.644 -0.2280  0.3433 -0.1904
48203SOL    HW151849   1.833  11.467   7.696  0.1123 -0.0343  0.5908
48203SOL    HW251850   1.938  11.358   7.699 -0.1909 -0.3770 -0.7035
48204SOL     OW51851   0.393   5.808   4.620  0.8343  0.6236 -0.0395
48204SOL    HW151852   0.348   5.740   4.571 -1.1002  2.6492 -1.2708
48204SOL    HW251853   0.330   5.880   4.625  2.3144  1.8924  2.2585
48205SOL     OW51854   2.951   0.826   5.959  0.1570  0.7258 -0.0313
48205SOL    HW151855   2.873   0.828   5.904  0.3268  2.9253 -0.2773
48205SOL    HW251856   3.025   0.829   5.898  0.4723 -0.6879  0.2262
48206SOL     OW51857   1.826   1.709  11.322  0.0459 -0.1185  0.4175
48206SOL    HW151858   1.798   1.731  11.410 -0.2127 -0.4207  0.4140
48206SOL    HW251859   1.757   1.650  11.289 -0.3795  0.7731 -0.3453
48207SOL     OW51860   3.929   4.244   5.361 -0.1504 -0.7151 -0.1066
48207SOL    HW151861   3.856   4.196   5.401 -0.1638  0.1356  0.9404
48207SOL    HW251862   4.001   4.235   5.423  0.7101 -1.6542 -1.1923
48208SOL     OW51863   2.657   1.295   4.788 -0.3020 -0.1891 -0.3866
48208SOL    HW151864   2.637   1.389   4.790  0.5581 -0.0160  0.2451
48208SOL    HW251865   2.580   1.254   4.827 -0.7266  0.2421 -0.7565
48209SOL     OW51866   3.928   3.735   9.156 -0.4825 -0.3415 -0.3723
48209SOL    HW151867   3.867   3.665   9.135 -0.8005 -0.8711  2.0090
48209SOL    HW251868   3.903   3.807   9.099 -2.2970 -1.0933 -0.5761
48210SOL     OW51869   0.581   8.674   2.448 -0.1874  0.0407 -0.0681
48210SOL    HW151870   0.494   8.671   2.408 -1.4395  1.7369  2.2543
48210SOL    HW251871   0.637   8.714   2.382 -1.3153 -0.4671 -1.3722
48211SOL     OW51872  10.440  10.193  12.538 -0.0423  0.1741 -0.0493
48211SOL    HW151873  10.371  10.163  12.597  0.0635 -0.8262 -0.4195
48211SOL    HW251874  10.514  10.213  12.596  0.3393 -1.5840  0.1265
48212SOL     OW51875   8.806   6.487   0.178 -0.2972  0.2545  0.3223
48212SOL    HW151876   8.895   6.452   0.169 -1.1208 -1.8808 -0.1694
48212SOL    HW251877   8.781   6.464   0.268 -0.6562  0.0203  0.1669
48213SOL     OW51878  11.176   7.058  10.628  0.3363  0.0949 -0.8146
48213SOL    HW151879  11.213   7.060  10.540  1.4611 -0.2848 -0.3808
48213SOL    HW251880  11.165   7.151  10.651  1.6234  0.2532 -0.7451
48214SOL     OW51881   0.601   0.606   1.907 -0.0913 -0.2720 -0.0606
48214SOL    HW151882   0.560   0.691   1.890  0.0440 -0.0837  0.5305
48214SOL    HW251883   0.531   0.542   1.896  0.1292 -0.2522 -2.0238
48215SOL     OW51884   9.221   1.118  12.617 -0.3104 -0.0850 -0.0246
48215SOL    HW151885   9.241   1.046  12.676  1.9537 -0.1512 -0.7847
48215SOL    HW251886   9.285   1.185  12.638 -0.5263  0.5444 -1.2803
48216SOL     OW51887   5.816   9.664  11.503 -0.1544 -0.1309 -0.5820
48216SOL    HW151888   5.781   9.733  11.559 -1.4126 -0.1706 -1.2802
48216SOL    HW251889   5.895   9.701  11.464  1.9075 -0.7410  2.6045
48217SOL     OW51890  11.872   8.605   8.939 -0.0388 -0.4338  0.2009
48217SOL    HW151891  11.875   8.635   9.030 -1.9456 -1.2089  0.5681
48217SOL    HW251892  11.809   8.533   8.940 -0.9760  0.3050 -1.9596
48218SOL     OW51893   8.668   5.722   3.399 -0.1538  0.2427 -0.2467
48218SOL    HW151894   8.637   5.735   3.309 -0.5725 -0.0219 -0.1480
48218SOL    HW251895   8.751   5.676   3.390 -0.1412  0.3141 -0.5023
48219SOL     OW51896   1.609   4.808  11.806 -0.1715 -0.3127  0.6140
48219SOL    HW151897   1.687   4.850  11.843 -0.2567 -0.7151  1.2874
48219SOL    HW251898   1.641   4.725  11.771 -0.2227 -0.2863  0.5055
48220SOL     OW51899   9.104   5.506  10.460  0.0821 -0.0462 -0.2234
48220SOL    HW151900   9.185   5.460  10.439 -0.5433 -1.4856  0.3557
48220SOL    HW251901   9.056   5.508  10.378 -0.3792 -1.5370 -0.0291
48221SOL     OW51902   0.377   5.128   2.465 -0.0173 -0.1412 -0.4123
48221SOL    HW151903   0.437   5.199   2.489  0.6462 -0.9759  0.4702
48221SOL    HW251904   0.381   5.124   2.370  0.9136  0.1776 -0.3970
48222SOL     OW51905   3.517   9.927  11.370 -0.0093 -0.5069 -0.1944
48222SOL    HW151906   3.593   9.982  11.350 -1.2768  0.7728 -1.8060
48222SOL    HW251907   3.537   9.889  11.455  2.1809  0.2293 -0.3198
48223SOL     OW51908  11.610  10.605   2.352  0.2330  0.4363  0.1090
48223SOL    HW151909  11.538  10.667   2.360 -0.2930 -0.2665  1.2949
48223SOL    HW251910  11.566  10.520   2.343  0.8499 -0.1039  1.7173
48224SOL     OW51911   6.626   1.293   2.083 -0.0921  0.0557 -0.4179
48224SOL    HW151912   6.549   1.243   2.110  0.4073 -1.2695 -1.3436
48224SOL    HW251913   6.670   1.316   2.165 -0.9958  0.0537  0.0734
48225SOL     OW51914   0.910   5.029   9.953  0.3626  0.0149  0.1462
48225SOL    HW151915   0.945   5.112   9.921 -3.1359  2.3471  1.7357
48225SOL    HW251916   0.927   5.031  10.047 -0.7202 -0.5305  0.3641
48226SOL     OW51917   7.893   1.233   9.682 -0.1519  0.6014  0.1027
48226SOL    HW151918   7.862   1.149   9.646 -2.0494  1.5663 -0.6507
48226SOL    HW251919   7.988   1.227   9.679 -0.2453 -1.4622 -0.0782
48227SOL     OW51920   0.635   3.754   8.321 -0.6783 -0.3221  0.1319
48227SOL    HW151921   0.714   3.706   8.344 -1.1399 -1.4943 -0.6487
48227SOL    HW251922   0.564   3.703   8.359 -1.3276 -1.3881 -2.3530
48228SOL     OW51923   3.118   2.606   3.607  0.3820 -0.2321 -0.2595
48228SOL    HW151924   3.115   2.517   3.573 -0.8828  0.1596 -1.2310
48228SOL    HW251925   3.060   2.604   3.684  1.8175 -0.6692  0.8644
48229SOL     OW51926   7.917   0.374   5.554  0.0706  0.3996  0.0692
48229SOL    HW151927   7.924   0.341   5.464  1.8725  0.6047  0.0992
48229SOL    HW251928   7.824   0.364   5.576  0.3026 -4.3274 -0.0679
48230SOL     OW51929   2.050   9.376   3.330  0.1718 -0.4994  0.2569
48230SOL    HW151930   1.955   9.366   3.329  0.1199 -0.0722 -0.6038
48230SOL    HW251931   2.083   9.287   3.342 -0.3325 -0.6439  0.6177
48231SOL     OW51932   2.780   3.635   1.642  0.0496 -0.3887 -0.2694
48231SOL    HW151933   2.809   3.603   1.727 -0.1792 -1.6114 -0.6193
48231SOL    HW251934   2.710   3.697   1.661  1.3082  0.8281  0.4878
48232SOL     OW51935   0.291   6.033  11.035 -0.0501  0.4814 -0.1765
48232SOL    HW151936   0.362   6.073  11.086 -0.0841  2.2240 -1.3942
48232SOL    HW251937   0.277   6.094  10.963 -2.1568 -0.3006 -0.4951
48233SOL     OW51938   7.841  10.287   0.534  0.0204  0.0327 -0.1299
48233SOL    HW151939   7.766  10.344   0.514  0.8695  1.3185  0.2441
48233SOL    HW251940   7.828  10.210   0.479 -0.8907  0.8145 -1.0374
48234SOL     OW51941   7.250   7.656  12.108 -0.6117  0.0015 -0.5989
48234SOL    HW151942   7.295   7.676  12.190  0.6859 -1.6624 -0.8519
48234SOL    HW251943   7.157   7.656  12.131 -0.3274  0.5595  0.6253
48235SOL     OW51944   1.826   4.047  10.265  0.5708  0.0431  0.0318
48235SOL    HW151945   1.811   4.110  10.336 -0.0504 -0.4794  0.3751
48235SOL    HW251946   1.810   3.962  10.305  1.6118 -0.3515 -0.3754
48236SOL     OW51947   4.616   8.588   0.565  0.4655 -0.3674 -0.1034
48236SOL    HW151948   4.686   8.522   0.566 -0.9453 -1.9334  0.3471
48236SOL    HW251949   4.538   8.540   0.537 -0.5836  1.1783  0.0329
48237SOL     OW51950   1.321   4.811  12.277  0.7587 -0.6488  0.3799
48237SOL    HW151951   1.291   4.776  12.361  0.0215 -0.1238  0.3394
48237SOL    HW251952   1.398   4.864  12.299 -0.4299  0.9044  0.9817
48238SOL     OW51953   2.457   5.285   2.557 -0.5972  0.0353  0.0455
48238SOL    HW151954   2.393   5.213   2.551 -1.2786  0.6740 -0.4209
48238SOL    HW251955   2.429   5.335   2.634 -0.3369  0.0112  0.1561
48239SOL     OW51956  11.600   3.637   6.571 -0.4013  0.2915  0.2151
48239SOL    HW151957  11.630   3.669   6.486 -0.4112  0.9047  0.4393
48239SOL    HW251958  11.569   3.715   6.617  1.1107  0.2420  1.4229
48240SOL     OW51959   2.401   5.152   9.168 -0.8395  0.2768  0.0207
48240SOL    HW151960   2.496   5.159   9.172 -0.5628 -2.3429 -0.3090
48240SOL    HW251961   2.370   5.206   9.241  0.9111  0.6341  0.5510
48241SOL     OW51962  10.304   6.704   7.089  0.2650 -0.4905 -0.0130
48241SOL    HW151963  10.373   6.650   7.051  0.6363  0.0510 -0.1152
48241SOL    HW251964  10.272   6.653   7.164  2.1990  0.1625  1.3191
48242SOL     OW51965   7.271   3.997  10.515  0.3742 -0.3631 -0.0857
48242SOL    HW151966   7.323   4.006  10.435 -0.1385 -0.7886 -0.4714
48242SOL    HW251967   7.215   3.921  10.499 -0.5189  0.2160  0.2518
48243SOL     OW51968   5.887   8.754  12.087  0.3595 -0.3866 -0.0611
48243SOL    HW151969   5.968   8.803  12.072 -0.4631  0.7562 -0.9251
48243SOL    HW251970   5.872   8.707  12.005 -0.9963  1.1589 -0.7498
48244SOL     OW51971   8.327  11.343   7.843  0.4171  0.2250  0.0781
48244SOL    HW151972   8.346  11.415   7.783  0.0155 -0.9907 -1.5767
48244SOL    HW251973   8.392  11.276   7.822 -1.5985 -1.4566 -1.2733
48245SOL     OW51974   6.903   6.386   6.930  0.3389  0.1313 -0.5231
48245SOL    HW151975   6.878   6.315   6.872 -2.0347 -0.0431  0.6015
48245SOL    HW251976   6.829   6.395   6.990  0.4403  3.6987 -0.7358
48246SOL     OW51977  11.295   7.431   8.721  0.3524 -0.0355  0.0047
48246SOL    HW151978  11.281   7.521   8.691  0.8940 -0.0837 -0.4055
48246SOL    HW251979  11.351   7.441   8.798 -1.3336  0.1149  1.2805
48247SOL     OW51980  11.577   2.692   7.085  0.1334 -0.2801 -0.0952
48247SOL    HW151981  11.563   2.638   7.163 -1.0045 -0.0106 -0.1041
48247SOL    HW251982  11.603   2.777   7.119 -2.2831  0.4306  0.0960
48248SOL     OW51983   7.513  11.870   1.438  0.2122 -0.4308 -0.1607
48248SOL    HW151984   7.579  11.887   1.506  0.3823  1.3204 -0.7094
48248SOL    HW251985   7.429  11.890   1.481  0.4571  3.6460 -1.1297
48249SOL     OW51986   0.835   8.958   1.732 -0.0519 -0.5790  0.0173
48249SOL    HW151987   0.820   8.971   1.638 -0.6820 -3.0366 -0.2961
48249SOL    HW251988   0.928   8.938   1.739 -0.2223 -1.5632 -0.2895
48250SOL     OW51989   5.913   9.460   5.591 -0.4820 -0.0117  0.3602
48250SOL    HW151990   5.948   9.544   5.619  1.3834 -0.4056 -0.6905
48250SOL    HW251991   5.979   9.396   5.618  0.0885 -0.6980 -2.4266
48251SOL     OW51992   3.602   0.705   2.114  0.4274  0.2150 -0.2594
48251SOL    HW151993   3.547   0.670   2.044  0.2179  1.9992 -1.0439
48251SOL    HW251994   3.541   0.716   2.188  0.1792  0.2845 -0.4727
48252SOL     OW51995  10.662   0.763   2.523 -0.2593 -0.1488  0.1310
48252SOL    HW151996  10.741   0.801   2.485  0.4148 -1.8926 -0.3123
48252SOL    HW251997  10.590   0.809   2.481  0.5098  0.7516 -0.2349
48253SOL     OW51998   9.540   5.378   7.319  0.1101 -0.3837 -0.3501
48253SOL    HW151999   9.594   5.384   7.240  0.0465  0.0740 -0.3645
48253SOL    HW252000   9.585   5.314   7.374  2.2011  1.8195  0.7548
48254SOL     OW52001   0.159   3.694   7.929  0.0781  0.2668  0.1821
48254SOL    HW152002   0.175   3.646   7.848 -0.5555  0.2876  0.0404
48254SOL    HW252003   0.124   3.779   7.901 -4.0946 -1.1275  0.4661
48255SOL     OW52004  10.015   6.297   6.664 -0.6956  0.6213 -0.6468
48255SOL    HW152005  10.056   6.268   6.745 -0.7791  0.4424 -0.6686
48255SOL    HW252006   9.934   6.246   6.658 -0.7735  0.7547 -0.7574
48256SOL     OW52007   9.603   9.142   3.747  0.1219  0.2247 -0.4825
48256SOL    HW152008   9.661   9.137   3.823 -1.5795 -0.2280  0.8701
48256SOL    HW252009   9.520   9.105   3.779 -1.8124  3.3597 -1.3963
48257SOL     OW52010   6.222   8.173   1.058 -0.4299 -0.3123  0.2887
48257SOL    HW152011   6.270   8.247   1.094 -0.1058  0.6817 -1.9956
48257SOL    HW252012   6.174   8.210   0.984 -0.7877 -2.2678 -0.5095
48258SOL     OW52013   5.469   9.230   2.385 -0.2712  0.4667 -0.3243
48258SOL    HW152014   5.481   9.322   2.408 -0.4235  0.8980 -1.8841
48258SOL    HW252015   5.519   9.219   2.304  0.4216 -1.0390  0.2753
48259SOL     OW52016  10.344   4.504   1.031 -0.3415 -0.4007  0.1631
48259SOL    HW152017  10.299   4.589   1.024 -0.1891 -0.1343  2.0510
48259SOL    HW252018  10.420   4.512   0.973 -0.7049  0.4922 -0.2047
48260SOL     OW52019  12.236   0.239   9.682 -0.3788 -0.1563  0.8021
48260SOL    HW152020  12.277   0.167   9.730 -0.5882  0.4112  1.8893
48260SOL    HW252021  12.263   0.227   9.591  0.5637 -0.9160  1.1686
48261SOL     OW52022   3.442   9.058   9.536  0.4441 -0.2132  0.0869
48261SOL    HW152023   3.407   8.990   9.594  1.6989  1.2264  2.7314
48261SOL    HW252024   3.514   9.096   9.585  1.6217  1.1383 -2.5183
48262SOL     OW52025   5.973   8.275   7.965  0.4271 -0.1263  0.2037
48262SOL    HW152026   5.974   8.335   7.890 -0.1034  1.5115  1.4601
48262SOL    HW252027   6.025   8.319   8.032 -2.8127  0.7046  2.4225
48263SOL     OW52028  12.086  11.723   3.083 -0.0165 -0.3270  0.2303
48263SOL    HW152029  12.061  11.765   3.001 -1.2045  1.7843  1.5786
48263SOL    HW252030  12.006  11.720   3.135  0.6246 -1.9429  1.2289
48264SOL     OW52031   2.567  11.154  11.317 -0.3443 -0.4345 -0.4605
48264SOL    HW152032   2.614  11.182  11.396 -0.7767 -1.1748  0.0709
48264SOL    HW252033   2.610  11.201  11.246 -0.6628  1.1227  0.3345
48265SOL     OW52034  10.132  10.481  11.137 -0.3404  0.1925 -0.3119
48265SOL    HW152035  10.209  10.505  11.189 -1.2777 -0.1267  1.2848
48265SOL    HW252036  10.137  10.385  11.131 -1.0666  0.0833  0.5813
48266SOL     OW52037  11.144   9.026   0.637 -0.5385 -0.2500  0.3733
48266SOL    HW152038  11.181   9.058   0.554 -1.5278 -1.2522 -0.4882
48266SOL    HW252039  11.071   9.085   0.655 -1.1111 -0.7869 -0.1517
48267SOL     OW52040  11.400  11.820   6.701 -0.1845 -0.2808  0.1499
48267SOL    HW152041  11.473  11.770   6.737 -0.0245 -0.7729 -0.8331
48267SOL    HW252042  11.434  11.910   6.693  0.2210 -0.4481 -0.0326
48268SOL     OW52043  10.877   1.801   3.197  0.4890  0.0250 -0.0575
48268SOL    HW152044  10.785   1.814   3.218 -0.0797 -0.4227 -2.0750
48268SOL    HW252045  10.885   1.707   3.183  1.1911  0.1076 -0.2393
48269SOL     OW52046   9.291   6.576   7.126 -0.1505 -0.1180 -0.4161
48269SOL    HW152047   9.207   6.570   7.079  0.0244  1.3978 -0.9648
48269SOL    HW252048   9.352   6.612   7.062  0.3855  0.8962  0.6346
48270SOL     OW52049   0.885  10.514  12.255  0.1729 -0.3260  0.1012
48270SOL    HW152050   0.891  10.450  12.326  0.4645 -0.9102 -0.4461
48270SOL    HW252051   0.971  10.512  12.213  0.0463  0.1183 -0.1873
48271SOL     OW52052   8.744   7.727   9.794  0.1679  0.5769  0.1566
48271SOL    HW152053   8.804   7.800   9.779 -1.1586  1.7216  0.1857
48271SOL    HW252054   8.709   7.707   9.707  0.3385  0.1440  0.1867
48272SOL     OW52055   1.706   8.354   1.614 -0.2341 -0.1456  0.5627
48272SOL    HW152056   1.721   8.432   1.667  3.5951 -0.8708  0.8666
48272SOL    HW252057   1.684   8.285   1.677  0.5576 -0.1873  0.8023
48273SOL     OW52058  10.581  11.793  10.759 -0.1683 -0.3580 -0.0279
48273SOL    HW152059  10.531  11.719  10.794 -1.6088 -0.2740 -1.7491
48273SOL    HW252060  10.516  11.863  10.749  0.7256  0.4407 -0.4104
48274SOL     OW52061   9.311   2.883   8.903 -0.1980 -0.0701 -0.1613
48274SOL    HW152062   9.315   2.804   8.957 -2.1456 -0.1522 -0.0801
48274SOL    HW252063   9.398   2.889   8.862  0.0282 -2.1623 -0.0608
48275SOL     OW52064   3.861   8.900  11.279 -0.2751  0.0553  0.1987
48275SOL    HW152065   3.955   8.886  11.271 -0.6491 -1.3184 -2.8003
48275SOL    HW252066   3.844   8.894  11.373  2.5341 -0.0861  0.7725
48276SOL     OW52067  12.450   3.392   1.286 -0.0030  0.0743 -0.0894
48276SOL    HW152068  12.467   3.338   1.362  0.4329 -1.3233 -1.1381
48276SOL    HW252069  12.379   3.451   1.313  0.7225  0.2111  1.6364
48277SOL     OW52070   3.546  11.143  11.938  0.7555  0.4620  0.7569
48277SOL    HW152071   3.516  11.059  11.903 -0.2834  0.0707  2.4331
48277SOL    HW252072   3.630  11.158  11.895  1.3082 -1.7925  0.8985
48278SOL     OW52073  10.636   2.903   4.234  0.8962  0.4984  0.3538
48278SOL    HW152074  10.728   2.929   4.228  1.3859 -0.8443  1.5891
48278SOL    HW252075  10.619   2.858   4.151  1.9396 -0.9297  0.8751
48279SOL     OW52076  11.563   5.955   6.106  0.2536 -0.2829  0.2028
48279SOL    HW152077  11.476   5.926   6.079  0.2662  1.2981 -1.8367
48279SOL    HW252078  11.551   6.047   6.128  1.1614 -0.4154  1.2876
48280SOL     OW52079   8.678   4.410   9.031 -0.2713 -0.1712  0.5531
48280SOL    HW152080   8.626   4.337   9.066 -0.3307 -0.8224 -0.8198
48280SOL    HW252081   8.765   4.398   9.069 -0.4709 -0.5354  0.9026
48281SOL     OW52082   8.441   4.605   3.106  0.0113  0.3001  0.1647
48281SOL    HW152083   8.469   4.671   3.042 -0.5106  0.2798 -0.0866
48281SOL    HW252084   8.414   4.655   3.182  0.1703  0.3457  0.1929
48282SOL     OW52085   9.781  10.730   4.853  0.4368 -0.0779 -0.4579
48282SOL    HW152086   9.722  10.777   4.795  0.4043  1.7748  0.9766
48282SOL    HW252087   9.724  10.696   4.923  0.8406  0.3353  0.0821
48283SOL     OW52088   4.793  11.264  12.533  0.2085  0.3932 -0.2719
48283SOL    HW152089   4.859  11.217  12.482 -0.9577 -0.2958 -1.2060
48283SOL    HW252090   4.773  11.342  12.481 -0.4706  0.0491 -0.5431
48284SOL     OW52091  11.977   4.998   0.996 -0.1498 -0.9097  0.3073
48284SOL    HW152092  11.898   4.951   1.024 -1.3028  1.1981  0.8175
48284SOL    HW252093  11.961   5.017   0.904  0.5850 -1.9717 -0.0577
48285SOL     OW52094   9.886  10.032   8.717  0.3089  0.6770  0.1832
48285SOL    HW152095   9.865   9.944   8.687  2.8100 -0.3562  1.1183
48285SOL    HW252096   9.888  10.025   8.812  0.5936  1.7353  0.2673
48286SOL     OW52097   4.780   8.525   6.021  0.2205  0.4404 -0.5098
48286SOL    HW152098   4.736   8.552   6.102 -0.1879  0.5730 -0.7715
48286SOL    HW252099   4.873   8.543   6.037  0.1668  0.2686  0.0050
48287SOL     OW52100   7.160   8.687   7.423  0.1907  0.0926 -0.0497
48287SOL    HW152101   7.093   8.673   7.356  0.4158 -1.1737 -0.0289
48287SOL    HW252102   7.163   8.605   7.471  0.1528  0.9300  1.4288
48288SOL     OW52103   1.480   9.140   3.145 -0.4153  0.3428  0.3983
48288SOL    HW152104   1.404   9.097   3.105 -0.0361 -0.1693  0.2239
48288SOL    HW252105   1.472   9.122   3.238 -0.6746  0.5549  0.4189
48289SOL     OW52106   4.833   5.468   1.006 -0.8303  0.0634 -0.1024
48289SOL    HW152107   4.866   5.481   1.095  1.9263  1.0139 -1.1619
48289SOL    HW252108   4.813   5.374   1.002 -0.0557 -0.1882  1.2305
48290SOL     OW52109   9.021   6.137   1.111 -0.0755 -0.1738 -0.1723
48290SOL    HW152110   8.979   6.067   1.060 -1.1385 -0.9814  1.7200
48290SOL    HW252111   8.948   6.192   1.140  0.6909  1.3814 -1.0668
48291SOL     OW52112   6.939  10.322   0.107 -0.3491 -0.5632  0.3315
48291SOL    HW152113   6.870  10.373   0.151 -1.0352  0.0406 -1.3507
48291SOL    HW252114   6.931  10.234   0.144  0.4718  0.3307  2.8724
48292SOL     OW52115   3.762   6.724   2.292  0.0990 -0.0186 -0.2273
48292SOL    HW152116   3.702   6.708   2.365 -0.4807 -0.9469 -0.8895
48292SOL    HW252117   3.705   6.733   2.216  0.6393  1.7536 -0.4765
48293SOL     OW52118   2.160   2.267   9.798 -0.1054 -0.7427  0.1904
48293SOL    HW152119   2.196   2.352   9.772 -2.9383 -0.1422 -2.3363
48293SOL    HW252120   2.219   2.204   9.758 -1.2792  0.1990 -3.4995
48294SOL     OW52121   6.536   6.488   1.708  0.5869  0.5472  0.2296
48294SOL    HW152122   6.570   6.544   1.639  1.2406  0.9750  0.8886
48294SOL    HW252123   6.608   6.429   1.729 -0.0180 -0.4089 -0.3013
48295SOL     OW52124   5.175   4.440  10.789 -0.2292 -0.0652  0.2999
48295SOL    HW152125   5.101   4.475  10.838  0.4772  1.6017  0.2371
48295SOL    HW252126   5.223   4.388  10.853 -0.7504 -0.0858  0.6825
48296SOL     OW52127   8.105  12.707   3.785  0.4659 -0.5302 -0.2708
48296SOL    HW152128   8.175  12.704   3.720 -0.3932 -3.5236 -1.2350
48296SOL    HW252129   8.111  12.622   3.830 -1.1934  0.0319  1.1390
48297SOL     OW52130   4.212   0.347   3.291 -0.2722 -0.2126  0.5442
48297SOL    HW152131   4.154   0.300   3.351  0.7194  1.7916  3.2778
48297SOL    HW252132   4.286   0.373   3.346  1.7594 -0.0532 -2.1102
48298SOL     OW52133   3.191   3.118  11.914 -0.3760  0.4962 -0.3026
48298SOL    HW152134   3.179   3.035  11.960  0.0539 -0.0661 -1.1662
48298SOL    HW252135   3.109   3.131  11.867 -0.3440  0.4150 -0.3822
48299SOL     OW52136   0.784   9.173   4.954 -0.8152  0.1379  0.4061
48299SOL    HW152137   0.854   9.151   4.893 -1.2220  1.1058 -0.4555
48299SOL    HW252138   0.704   9.162   4.904 -1.1528  1.0661  0.7083
48300SOL     OW52139   9.371   2.853  12.423 -0.1086 -0.2126  0.0268
48300SOL    HW152140   9.327   2.923  12.375  0.0308  1.1663  1.8195
48300SOL    HW252141   9.329   2.773  12.392 -0.7185  0.6936 -1.6132
48301SOL     OW52142   1.358   7.047   9.027  0.0285  0.0109  0.6059
48301SOL    HW152143   1.385   7.131   9.066 -0.3896 -0.3374  1.6678
48301SOL    HW252144   1.279   7.023   9.074 -2.2510  0.9692 -2.3922
48302SOL     OW52145  11.699   6.552   8.563  0.5399 -0.1509 -0.5119
48302SOL    HW152146  11.711   6.647   8.568 -0.0056 -0.1021  0.0387
48302SOL    HW252147  11.639   6.532   8.635 -0.1204 -0.7889 -1.2216
48303SOL     OW52148   6.464  11.403   7.180 -0.2967 -0.2471  0.3635
48303SOL    HW152149   6.491  11.335   7.243  0.6364  0.1664  0.4189
48303SOL    HW252150   6.374  11.380   7.158 -0.6725 -0.3646  1.9039
48304SOL     OW52151   5.826   7.996  11.803 -0.3733  0.0149  0.6831
48304SOL    HW152152   5.886   8.045  11.746  0.6826 -0.5661  1.2716
48304SOL    HW252153   5.883   7.955  11.868 -1.3295 -1.2070  0.7823
48305SOL     OW52154   3.994   8.190  10.644 -0.1335  0.3206 -0.4208
48305SOL    HW152155   3.981   8.144  10.562 -2.4405  1.2866 -0.6879
48305SOL    HW252156   4.045   8.268  10.621 -0.8106  0.6094 -0.9732
48306SOL     OW52157  11.767   3.779   4.504  0.0633  0.1998 -0.0848
48306SOL    HW152158  11.782   3.856   4.559  0.5016 -0.2213  0.3935
48306SOL    HW252159  11.855   3.748   4.483 -0.1136 -0.7756  0.5800
48307SOL     OW52160   7.240   4.879   8.876  0.4680 -0.1292  0.4982
48307SOL    HW152161   7.301   4.840   8.813  0.5565  0.5898  0.1348
48307SOL    HW252162   7.155   4.874   8.833  0.5416  0.4398  0.2779
48308SOL     OW52163   6.321   1.946   0.643  0.2284 -0.6549 -0.1257
48308SOL    HW152164   6.286   1.882   0.706 -0.1825 -0.0130  0.3237
48308SOL    HW252165   6.374   1.895   0.583 -1.2469 -1.6465 -0.6447
48309SOL     OW52166   3.949   2.893   5.343 -0.5762 -0.0122  0.4174
48309SOL    HW152167   3.911   2.874   5.429 -0.0395  0.3796  0.7443
48309SOL    HW252168   3.938   2.987   5.331 -0.6914 -0.0706  0.0316
48310SOL     OW52169   8.128  10.502   2.083 -0.2298  0.0662  0.1317
48310SOL    HW152170   8.070  10.442   2.131  0.6625 -1.0684 -0.1571
48310SOL    HW252171   8.207  10.450   2.066  1.2226  1.7888  1.2039
48311SOL     OW52172   2.665  10.284   4.653  0.2366 -0.5789  0.1133
48311SOL    HW152173   2.618  10.244   4.726 -1.8515 -0.7454 -1.2335
48311SOL    HW252174   2.596  10.306   4.590  1.8052  0.9182 -1.1725
48312SOL     OW52175   0.520   0.094   3.943  0.3679 -0.4578 -0.1201
48312SOL    HW152176   0.547   0.126   4.029 -1.9199  0.9054  0.1494
48312SOL    HW252177   0.493   0.003   3.959 -1.5347  0.2533  0.9826
48313SOL     OW52178   7.085  10.490   4.699  0.6874 -0.4320 -0.0728
48313SOL    HW152179   7.108  10.571   4.653  4.1843 -1.5773 -0.6362
48313SOL    HW252180   7.082  10.424   4.630  1.6204 -1.4083  0.7913
48314SOL     OW52181   2.452   0.979  10.240 -0.1145 -0.0010 -0.4240
48314SOL    HW152182   2.374   0.925  10.249 -0.9861  1.1349 -0.9076
48314SOL    HW252183   2.523   0.924  10.273 -1.3564 -0.4238  1.7777
48315SOL     OW52184   2.047   5.423   2.036 -0.2893 -0.0705 -0.1160
48315SOL    HW152185   1.989   5.366   2.086 -1.5056  1.1198 -0.0978
48315SOL    HW252186   2.129   5.425   2.086 -0.7031 -0.6965  0.6001
48316SOL     OW52187   5.675   9.816   2.652 -0.2385 -0.0944 -0.7245
48316SOL    HW152188   5.745   9.859   2.603 -0.6283  1.4131 -0.0287
48316SOL    HW252189   5.595   9.841   2.606 -0.5884  1.1423  0.4721
48317SOL     OW52190   9.716   1.726  11.727  0.3880  0.1376 -0.0968
48317SOL    HW152191   9.705   1.821  11.727 -0.6858  0.0327 -0.4035
48317SOL    HW252192   9.707   1.701  11.635 -1.0526 -0.4234  0.1731
48318SOL     OW52193   3.056   0.820   5.502  0.4297  0.6062 -0.2419
48318SOL    HW152194   2.984   0.882   5.502 -0.0715  0.0323 -0.0964
48318SOL    HW252195   3.049   0.774   5.418 -0.3544 -0.5525  0.4299
48319SOL     OW52196  12.148   0.255   3.267 -0.5803 -0.0069 -0.1870
48319SOL    HW152197  12.067   0.211   3.292 -1.5418  1.3891 -0.6962
48319SOL    HW252198  12.155   0.329   3.327 -0.0614  0.2903 -0.6000
48320SOL     OW52199   0.240   6.577  10.336  0.6129  1.0380  0.0083
48320SOL    HW152200   0.217   6.487  10.358 -2.0432  1.9286  1.2510
48320SOL    HW252201   0.198   6.593  10.252  0.7072  1.2526 -0.0005
48321SOL     OW52202   1.076   1.156   5.193 -0.2849 -0.0742  0.6105
48321SOL    HW152203   1.154   1.187   5.240 -0.3347 -0.8333  1.2119
48321SOL    HW252204   1.010   1.222   5.210  0.2607  0.6337  0.0064
48322SOL     OW52205   9.687   5.379   7.100 -0.0707  0.0402 -0.3332
48322SOL    HW152206   9.742   5.317   7.053 -1.0307 -1.3726  0.3395
48322SOL    HW252207   9.613   5.395   7.042  0.3931  0.9562 -0.7013
48323SOL     OW52208   1.813   9.849   4.511 -0.4225  0.3197 -0.3139
48323SOL    HW152209   1.845   9.822   4.425 -1.2788  0.4048 -0.6765
48323SOL    HW252210   1.883   9.904   4.547  0.7729 -1.2736 -0.1200
48324SOL     OW52211  11.443   5.829   5.435 -0.3417 -0.4190 -0.4019
48324SOL    HW152212  11.450   5.825   5.340  1.1878 -0.6376 -0.3036
48324SOL    HW252213  11.523   5.787   5.467  0.0741  1.2857  0.9631
48325SOL     OW52214   3.982   5.387  12.547  0.1963  0.2560  0.2201
48325SOL    HW152215   3.920   5.348  12.485 -0.6574  1.7286  0.1081
48325SOL    HW252216   4.039   5.314  12.573  0.3600 -0.4850 -2.0017
48326SOL     OW52217   0.901  11.663   9.467 -0.0491  0.2774 -0.0222
48326SOL    HW152218   0.953  11.618   9.534 -0.0700  1.1591  0.6118
48326SOL    HW252219   0.958  11.667   9.390  0.5066  0.4850  0.3932
48327SOL     OW52220   6.019  11.594   6.785 -0.2704  0.1144 -0.6271
48327SOL    HW152221   6.080  11.586   6.858 -1.9342 -1.2800  0.6797
48327SOL    HW252222   5.997  11.504   6.761 -1.4225  0.5718 -1.4105
48328SOL     OW52223  12.132   3.370   6.983 -0.2842  0.4281 -0.4209
48328SOL    HW152224  12.089   3.358   7.067  2.3399 -0.7592  0.8704
48328SOL    HW252225  12.146   3.464   6.976  2.2654  0.3884  2.1253
48329SOL     OW52226   7.622   7.757   1.569 -0.8131 -0.5171  0.2469
48329SOL    HW152227   7.688   7.698   1.533 -1.8903 -2.4822  1.3162
48329SOL    HW252228   7.626   7.743   1.664 -1.7351  0.4465  0.4513
48330SOL     OW52229   4.160   2.996   8.003 -0.7449 -0.0995  0.0109
48330SOL    HW152230   4.137   2.978   8.094 -1.1248 -0.5757 -0.1746
48330SOL    HW252231   4.166   2.909   7.963 -0.2918  0.0967 -0.3482
48331SOL     OW52232  11.782   2.356   9.508 -0.1223 -0.0671 -0.2112
48331SOL    HW152233  11.836   2.316   9.576  0.4083  0.4727 -0.3112
48331SOL    HW252234  11.826   2.438   9.486 -0.0563 -0.4202 -1.4950
48332SOL     OW52235   2.244   3.414   1.324  0.1293 -0.1530 -0.1875
48332SOL    HW152236   2.290   3.498   1.314 -0.5995  0.1707 -0.9941
48332SOL    HW252237   2.272   3.362   1.248 -2.5487  0.9118 -2.0792
48333SOL     OW52238   0.135   3.718   1.168 -0.4819  0.0629 -0.3703
48333SOL    HW152239   0.212   3.663   1.186 -0.9255 -0.1980  0.8187
48333SOL    HW252240   0.085   3.716   1.249 -1.4757  0.6849 -0.9531
48334SOL     OW52241   0.302   6.724   2.310  0.5167 -0.0593 -0.3835
48334SOL    HW152242   0.324   6.801   2.362 -1.7617  0.2724  0.2044
48334SOL    HW252243   0.316   6.650   2.370 -0.6993  0.2152  0.2785
48335SOL     OW52244  10.505  11.734  12.537 -0.1899 -0.1278  0.2373
48335SOL    HW152245  10.592  11.752  12.570  0.1663 -0.2390 -0.6080
48335SOL    HW252246  10.516  11.661  12.476 -0.6764  0.5390 -0.6882
48336SOL     OW52247   9.082   9.686   0.598  0.6651 -0.5462  0.4182
48336SOL    HW152248   9.126   9.632   0.664  0.1748 -1.2206  0.1967
48336SOL    HW252249   8.999   9.641   0.581 -0.6536  1.2986  1.6405
48337SOL     OW52250   5.773   4.543   6.026 -0.3084  0.6705  0.4599
48337SOL    HW152251   5.690   4.500   6.008  0.6224 -0.7440 -0.6210
48337SOL    HW252252   5.829   4.521   5.952  0.9334  1.9059  0.9673
48338SOL     OW52253   4.358   9.087  11.291 -0.8870  0.4630  0.1928
48338SOL    HW152254   4.438   9.103  11.341  0.1460  0.5777 -1.4374
48338SOL    HW252255   4.344   9.168  11.241  0.9434 -1.2515 -3.4577
48339SOL     OW52256   5.288   3.792   6.351  0.2242 -0.0139 -0.3668
48339SOL    HW152257   5.383   3.805   6.348  0.0783  1.1954 -0.2222
48339SOL    HW252258   5.264   3.768   6.262  0.5421  0.7292 -0.6647
48340SOL     OW52259   3.072  10.215   4.741  0.4794 -0.0799  0.6095
48340SOL    HW152260   3.081  10.134   4.690  0.0677 -0.2560  0.8065
48340SOL    HW252261   3.041  10.185   4.827  0.9966  0.2277  0.9081
48341SOL     OW52262   2.000   9.400  10.405  0.1799  0.3321 -0.4069
48341SOL    HW152263   2.067   9.386  10.338  0.6640  1.8155 -0.2770
48341SOL    HW252264   2.049   9.429  10.482 -0.2182 -2.5566  1.0669
48342SOL     OW52265   9.859   5.228   1.865  0.1160  0.1623  0.4264
48342SOL    HW152266   9.948   5.211   1.835 -0.0210 -0.3336  0.3022
48342SOL    HW252267   9.815   5.143   1.861 -0.4046  0.4297  0.3538
48343SOL     OW52268   1.986   1.900   2.935  0.0906 -0.5194 -0.4651
48343SOL    HW152269   1.982   1.979   2.989  0.1259 -0.6205 -0.3108
48343SOL    HW252270   1.902   1.857   2.950  1.0112 -1.7988  1.4652
48344SOL     OW52271   2.220   8.835   2.043 -0.0796 -0.1895  0.0192
48344SOL    HW152272   2.287   8.777   2.006  1.4923  1.2637  0.4540
48344SOL    HW252273   2.197   8.795   2.127  1.2797 -0.0078  0.5026
48345SOL     OW52274   5.230  11.475   8.673 -0.3123 -0.3929 -0.2566
48345SOL    HW152275   5.152  11.420   8.675  0.3133 -1.3893 -1.5517
48345SOL    HW252276   5.231  11.513   8.585 -0.4014  1.2542  0.4173
48346SOL     OW52277   6.080   0.041   1.101  0.2072 -0.5499  0.2276
48346SOL    HW152278   6.012  -0.019   1.132 -1.0688  0.0262 -1.3248
48346SOL    HW252279   6.080   0.030   1.006 -2.2679  3.9683 -0.5870
48347SOL     OW52280  10.552  10.757   4.206  0.1214 -0.2688  0.3988
48347SOL    HW152281  10.541  10.797   4.292  0.0828 -0.3264  0.4207
48347SOL    HW252282  10.465  10.758   4.167  0.3835  0.9910 -0.1908
48348SOL     OW52283  12.167   5.561   9.690  0.2226  0.1940  0.1453
48348SOL    HW152284  12.257   5.588   9.669 -0.2427 -0.0426 -2.4216
48348SOL    HW252285  12.139   5.622   9.758  1.9232  0.9935  0.1839
48349SOL     OW52286   4.383   4.705   1.150 -0.5093 -0.1611 -0.7494
48349SOL    HW152287   4.450   4.690   1.216 -0.9668 -0.4933 -0.3512
48349SOL    HW252288   4.432   4.714   1.068  0.0074 -0.7271 -0.5170
48350SOL     OW52289   7.701   0.716   5.413  0.0863 -0.4326  0.1894
48350SOL    HW152290   7.702   0.712   5.318  3.0525 -2.1430  0.1691
48350SOL    HW252291   7.678   0.627   5.441 -0.2950 -0.0702  1.0685
48351SOL     OW52292   7.545   9.935   0.979  0.4241 -0.0613  0.6102
48351SOL    HW152293   7.543   9.907   1.071  0.0641  2.5362  1.4871
48351SOL    HW252294   7.462   9.980   0.966 -0.5115 -2.2280 -1.7219
48352SOL     OW52295   2.657   1.466   2.205 -0.6348  0.4462 -0.0959
48352SOL    HW152296   2.681   1.477   2.297  0.7136  1.3070 -0.5213
48352SOL    HW252297   2.731   1.502   2.157 -0.3525 -1.9126 -1.5603
48353SOL     OW52298   6.984   4.860   9.584 -0.4919  0.0779  0.1054
48353SOL    HW152299   6.987   4.787   9.646  3.8421 -0.4414 -0.4061
48353SOL    HW252300   6.974   4.938   9.638 -4.0032 -0.6367  0.7422
48354SOL     OW52301   1.670   6.373   0.673 -0.4307  0.5453 -0.3787
48354SOL    HW152302   1.588   6.419   0.653 -0.2014  1.0778 -0.0947
48354SOL    HW252303   1.672   6.369   0.769 -0.4235 -0.0200 -0.3957
48355SOL     OW52304   0.360   2.634   1.106  0.0008 -0.2475 -0.4156
48355SOL    HW152305   0.338   2.541   1.097 -1.1006 -0.0758  0.3344
48355SOL    HW252306   0.316   2.662   1.186  2.4328  0.3242  0.7949
48356SOL     OW52307   4.355   2.010   4.961  0.2200 -0.0063 -0.1598
48356SOL    HW152308   4.399   2.027   5.044 -0.0122  3.0681 -0.5468
48356SOL    HW252309   4.422   1.970   4.906  1.0510  0.0510  0.7714
48357SOL     OW52310   6.623  10.953   9.294 -0.1138  0.4681 -0.5955
48357SOL    HW152311   6.705  11.001   9.290  0.6224 -0.7685 -0.9944
48357SOL    HW252312   6.579  10.973   9.212  1.1639 -1.1731 -1.7293
48358SOL     OW52313   0.107   2.656   3.421 -0.0046 -0.1819 -0.2650
48358SOL    HW152314   0.072   2.730   3.470 -2.2443 -0.3990 -1.4011
48358SOL    HW252315   0.100   2.682   3.330  0.3218 -1.3309 -0.6343
48359SOL     OW52316   8.306   8.377  11.445 -0.2000 -0.2809 -0.7825
48359SOL    HW152317   8.337   8.306  11.388  1.7586 -0.3868  0.3197
48359SOL    HW252318   8.255   8.332  11.512  0.0217 -0.5063 -0.7619
48360SOL     OW52319   4.703  11.030   2.279  0.5908 -0.1527 -0.4207
48360SOL    HW152320   4.709  11.097   2.347  0.6204 -0.2582 -0.3179
48360SOL    HW252321   4.777  10.971   2.297  0.4098 -0.3595 -0.3483
48361SOL     OW52322   1.093   0.964   9.533 -0.1358 -0.3460  0.0738
48361SOL    HW152323   1.033   0.995   9.600 -0.2324  0.2115 -0.2592
48361SOL    HW252324   1.161   0.916   9.580 -1.1739 -1.5506  0.4036
48362SOL     OW52325   3.078   5.636   3.514  0.0703  0.4161 -0.4401
48362SOL    HW152326   3.037   5.575   3.452 -0.1601 -0.3095  0.4072
48362SOL    HW252327   3.172   5.624   3.500  0.0190  0.3762 -0.7650
48363SOL     OW52328   3.541   1.982  12.017  0.0909  0.3289 -0.4811
48363SOL    HW152329   3.538   2.006  11.924 -1.2728 -0.3602 -0.6492
48363SOL    HW252330   3.481   2.044  12.059 -1.0992 -0.8130 -0.4490
48364SOL     OW52331   2.180   0.882  10.465  0.2584  0.4906 -0.1937
48364SOL    HW152332   2.266   0.858  10.499  0.5817  0.3816 -1.0437
48364SOL    HW252333   2.180   0.849  10.375 -0.4431  1.0245 -0.4024
48365SOL     OW52334  10.250   0.775  10.131 -0.0706  0.0246 -0.2546
48365SOL    HW152335  10.329   0.809  10.172 -0.5370  0.5739  0.2229
48365SOL    HW252336  10.279   0.736  10.049  0.4783  1.8472 -0.9740
48366SOL     OW52337   9.629  10.361   8.635  0.2114 -0.6629  1.0153
48366SOL    HW152338   9.712  10.344   8.591 -1.8121 -1.5033 -2.8660
48366SOL    HW252339   9.615  10.455   8.625  0.5099 -0.5844  1.3294
48367SOL     OW52340   7.826  10.960   5.782 -0.3234 -0.0578 -0.5947
48367SOL    HW152341   7.897  10.939   5.843 -0.3668 -0.2781 -0.6215
48367SOL    HW252342   7.777  10.879   5.773  0.8327 -0.6202 -2.4478
48368SOL     OW52343   0.219   7.111   1.652  0.0356  0.2776  0.4264
48368SOL    HW152344   0.261   7.118   1.737 -2.1750  0.8849  1.5557
48368SOL    HW252345   0.219   7.200   1.617 -0.2342  0.2687  0.4006
48369SOL     OW52346   2.059   0.838   5.895  0.1954  0.4440  0.4301
48369SOL    HW152347   2.021   0.891   5.824 -0.2004  0.5051  0.6814
48369SOL    HW252348   2.153   0.843   5.881  0.0913 -1.4941 -1.5272
48370SOL     OW52349  10.481   5.021   6.408 -0.0040  0.5463  0.0222
48370SOL    HW152350  10.389   4.996   6.420 -0.1835  1.4237  0.5547
48370SOL    HW252351  10.488   5.039   6.314 -0.4421  0.7129  0.0161
48371SOL     OW52352  10.783   5.738   8.724  0.0100 -0.7032 -0.0041
48371SOL    HW152353  10.766   5.765   8.815  3.8303  0.1511  0.6760
48371SOL    HW252354  10.823   5.815   8.684 -0.4364 -1.4843 -2.0596
48372SOL     OW52355   9.732   7.625   1.346  0.4677 -0.3643 -0.2886
48372SOL    HW152356   9.711   7.608   1.254  0.1129 -0.9904 -0.1019
48372SOL    HW252357   9.647   7.645   1.386  0.5735 -0.4415 -0.0283
48373SOL     OW52358   6.234   2.269   5.704 -0.1704 -0.2527 -0.2018
48373SOL    HW152359   6.222   2.303   5.793 -2.5967 -0.4140 -0.3948
48373SOL    HW252360   6.324   2.289   5.682 -0.1328  1.7132  1.5018
48374SOL     OW52361   5.278   7.918  10.038  0.4160 -0.4759  0.1327
48374SOL    HW152362   5.247   7.991   9.985 -0.6981  0.4674  1.9778
48374SOL    HW252363   5.372   7.912  10.019 -0.1300 -1.0634 -2.8769
48375SOL     OW52364   0.564   0.404  12.262  0.8449 -0.3533 -0.2410
48375SOL    HW152365   0.591   0.356  12.340  3.3009 -0.7509 -1.2594
48375SOL    HW252366   0.547   0.493  12.293  0.2805 -0.8564  0.9672
48376SOL     OW52367   5.832   0.470   5.327 -0.2383  0.0289  0.8210
48376SOL    HW152368   5.806   0.414   5.400 -0.4349 -0.1069  0.6484
48376SOL    HW252369   5.768   0.451   5.258  1.7263 -2.1449 -0.5263
48377SOL     OW52370   3.064   8.750   1.244 -0.2894 -0.1111 -0.5974
48377SOL    HW152371   3.042   8.813   1.174  0.8657  0.0624 -0.8375
48377SOL    HW252372   3.148   8.713   1.216 -1.9437 -3.4362 -1.5912
48378SOL     OW52373   0.328   5.600   7.044 -0.4076  0.5141 -0.4368
48378SOL    HW152374   0.254   5.596   7.105 -1.5588  2.1480 -1.6316
48378SOL    HW252375   0.304   5.669   6.983  1.7355  0.4598 -1.4080
48379SOL     OW52376   6.187   2.455   9.786 -0.5815  0.6430  0.3598
48379SOL    HW152377   6.102   2.482   9.820 -0.6751 -1.7935  2.4080
48379SOL    HW252378   6.250   2.501   9.841 -0.6986 -0.8355  1.8028
48380SOL     OW52379   7.195   0.866   4.817 -0.3983  0.5255  0.2053
48380SOL    HW152380   7.180   0.912   4.735 -1.5949  1.5434  0.9645
48380SOL    HW252381   7.164   0.777   4.801  0.2412  0.4600 -0.7195
48381SOL     OW52382   2.491   4.918   3.359  0.3525 -0.4018 -0.1696
48381SOL    HW152383   2.399   4.926   3.332 -0.3113 -4.4557  0.2200
48381SOL    HW252384   2.537   4.892   3.279  0.2490 -2.5996  0.4126
48382SOL     OW52385   2.613   6.746  10.491  0.3230  0.1962  0.2236
48382SOL    HW152386   2.683   6.772  10.431 -1.6188  0.0392 -2.2813
48382SOL    HW252387   2.565   6.827  10.507 -0.5030 -0.1769 -0.3191
48383SOL     OW52388   2.451   6.994   6.826 -0.0800  0.5026 -0.2337
48383SOL    HW152389   2.358   6.999   6.846  0.4505  0.0951  2.9361
48383SOL    HW252390   2.488   7.071   6.870  1.2965 -0.5129  0.4541
48384SOL     OW52391   9.721   2.503   2.033  0.2131 -0.3088  0.4046
48384SOL    HW152392   9.658   2.507   1.961 -1.2396  0.9875  1.6546
48384SOL    HW252393   9.750   2.594   2.044 -0.4007 -0.2737  2.0763
48385SOL     OW52394   9.799   0.912   0.410 -0.0820 -0.3982 -0.4221
48385SOL    HW152395   9.770   0.980   0.471 -0.1759 -0.3960 -0.4695
48385SOL    HW252396   9.787   0.830   0.458  3.1214 -0.2306  0.9422
48386SOL     OW52397   5.174   1.181   2.620  0.3733 -0.0020  0.1638
48386SOL    HW152398   5.162   1.166   2.527  0.3226 -0.1177  0.1890
48386SOL    HW252399   5.128   1.109   2.662 -0.2915  0.4887  0.2916
48387SOL     OW52400   2.852  12.117   9.734  0.8582 -0.1055  0.4492
48387SOL    HW152401   2.935  12.073   9.754  0.3027 -0.5050  1.9401
48387SOL    HW252402   2.784  12.055   9.760  0.0768  0.8782  0.8322
48388SOL     OW52403   8.545  12.616   4.985 -0.3501  0.1568 -0.0826
48388SOL    HW152404   8.596  12.665   4.921  0.0217 -0.0411  0.0593
48388SOL    HW252405   8.584  12.528   4.985 -0.8769 -0.0841 -0.1852
48389SOL     OW52406   7.453   5.281  10.409  0.3729  0.5286 -0.2569
48389SOL    HW152407   7.452   5.344  10.337 -0.8383  0.7162 -0.1027
48389SOL    HW252408   7.532   5.303  10.459  2.3826 -0.8774 -2.5760
48390SOL     OW52409  11.798   7.987   9.185  0.0965  0.0424 -0.1335
48390SOL    HW152410  11.849   7.936   9.122 -0.3592  0.1504 -0.5970
48390SOL    HW252411  11.792   7.931   9.262  1.5693  0.3261  0.2357
48391SOL     OW52412   1.436   7.589   5.802 -0.0117 -0.1225  0.0361
48391SOL    HW152413   1.441   7.601   5.707  0.8435  0.1993  0.1176
48391SOL    HW252414   1.357   7.637   5.827 -0.4621 -0.5328 -0.5550
48392SOL     OW52415   5.263   3.709   6.086  0.3420  0.3878  0.4667
48392SOL    HW152416   5.230   3.620   6.096  0.0798  0.5832  1.4240
48392SOL    HW252417   5.353   3.699   6.055 -0.0839 -0.1783 -0.6370
48393SOL     OW52418   6.356   8.692   6.791 -0.4328  0.2077 -0.5432
48393SOL    HW152419   6.329   8.784   6.796 -0.5400  0.1075  2.3373
48393SOL    HW252420   6.288   8.645   6.840  1.2174 -0.9647  0.7302
48394SOL     OW52421   6.056  10.709   8.769 -0.2242 -0.3579  0.0449
48394SOL    HW152422   6.117  10.646   8.731 -1.1808 -0.9821 -0.4942
48394SOL    HW252423   6.108  10.757   8.834  0.4193 -1.9891  0.7826
48395SOL     OW52424   6.244   5.545  10.467 -0.1917 -0.1069  0.7679
48395SOL    HW152425   6.174   5.497  10.511  0.3441 -1.2968  0.3724
48395SOL    HW252426   6.314   5.481  10.457  0.2772  0.5606 -0.4388
48396SOL     OW52427   3.528   2.837   8.414  0.0546 -0.2477  0.1965
48396SOL    HW152428   3.435   2.818   8.411  0.0245 -0.0008 -2.1644
48396SOL    HW252429   3.566   2.769   8.470 -1.3194 -1.2452 -0.0652
48397SOL     OW52430   5.769  12.587   6.033  0.2375  0.3114 -0.0410
48397SOL    HW152431   5.857  12.571   6.068 -0.5739 -0.0959  1.9258
48397SOL    HW252432   5.716  12.610   6.109 -1.4569  0.2036 -1.1305
48398SOL     OW52433   5.755   7.987  11.285 -0.3050  0.3494 -0.2707
48398SOL    HW152434   5.828   8.031  11.327 -0.8468  1.2125 -0.2142
48398SOL    HW252435   5.704   8.057  11.244 -0.3531 -0.3652 -1.4836
48399SOL     OW52436   0.808   5.478   4.608 -0.2809 -0.0541 -0.2731
48399SOL    HW152437   0.713   5.487   4.605 -0.3056  0.0187  0.4958
48399SOL    HW252438   0.823   5.390   4.644 -0.0459 -0.6957 -1.8633
48400SOL     OW52439   2.076   7.582   8.931 -0.1773  0.2942 -0.1644
48400SOL    HW152440   2.103   7.665   8.972 -0.6467 -0.0423  0.8719
48400SOL    HW252441   2.098   7.593   8.839  0.9395  1.0804  0.1697
48401SOL     OW52442   9.480   6.380  10.268  0.1778  0.4136 -0.3970
48401SOL    HW152443   9.539   6.401  10.195 -0.0859  0.3009 -0.6453
48401SOL    HW252444   9.526   6.314  10.318  1.0015  1.5325  0.3655
48402SOL     OW52445   3.614   0.233   3.695 -0.1998  0.2312  0.1414
48402SOL    HW152446   3.608   0.140   3.677  3.1109 -0.2603  0.9953
48402SOL    HW252447   3.683   0.241   3.760  4.1882  3.5851 -4.1503
48403SOL     OW52448  11.458  11.737   3.915 -0.7284 -0.5079 -0.2955
48403SOL    HW152449  11.461  11.831   3.935 -1.2251 -0.6618  0.5241
48403SOL    HW252450  11.502  11.730   3.830  1.5703  0.1502  0.7727
48404SOL     OW52451   1.311   7.449   1.534 -0.0675 -0.0183  0.4630
48404SOL    HW152452   1.241   7.384   1.545 -1.0966  0.8811 -0.4622
48404SOL    HW252453   1.370   7.410   1.469  1.0989 -1.3866  2.2571
48405SOL     OW52454  12.566   6.663   0.277  0.2841 -0.2754 -0.0106
48405SOL    HW152455  12.599   6.721   0.209 -0.1035 -0.4201 -0.3248
48405SOL    HW252456  12.641   6.651   0.337  0.6761 -0.2727 -0.4916
48406SOL     OW52457   4.294   3.549  10.316  0.0653  0.8207 -0.1978
48406SOL    HW152458   4.321   3.556  10.225  0.2977 -0.1146 -0.2158
48406SOL    HW252459   4.200   3.534  10.312  0.3314 -1.0545 -0.3988
48407SOL     OW52460   5.205   2.452   8.221  0.3469  0.0079  0.8001
48407SOL    HW152461   5.163   2.455   8.307 -0.0595  0.9492  0.5824
48407SOL    HW252462   5.298   2.438   8.241  0.1918 -0.2651  1.3674
48408SOL     OW52463   9.594   7.856   9.700 -0.5994  0.3764  0.3271
48408SOL    HW152464   9.555   7.867   9.614 -2.2442 -0.1083  0.9697
48408SOL    HW252465   9.538   7.907   9.759 -1.2929 -1.6196  1.5284
48409SOL     OW52466  12.427   6.897  10.021 -0.0768  0.0986  0.0565
48409SOL    HW152467  12.468   6.961  10.078 -1.2621  0.7992  0.1659
48409SOL    HW252468  12.484   6.891   9.945  0.4419  0.7117  0.3937
48410SOL     OW52469  10.501   5.178   3.171  0.3234  0.4657 -0.0514
48410SOL    HW152470  10.589   5.181   3.208  0.0629  0.1697  0.6042
48410SOL    HW252471  10.465   5.095   3.203 -1.5733  2.2766  2.8987
48411SOL     OW52472   8.251  11.414   1.765  0.4353 -0.0271 -0.4249
48411SOL    HW152473   8.180  11.368   1.811  2.1582 -1.2773  1.1174
48411SOL    HW252474   8.281  11.479   1.827 -0.6423  1.9321 -1.8576
48412SOL     OW52475  12.229  11.030   2.286 -0.8573 -0.0474 -0.1931
48412SOL    HW152476  12.165  11.019   2.356 -1.3852  1.1807 -0.4449
48412SOL    HW252477  12.196  11.105   2.236  0.8468  0.7061 -0.2512
48413SOL     OW52478  10.841   1.696   0.338 -0.0326 -0.5001  0.1683
48413SOL    HW152479  10.809   1.627   0.396 -0.6535 -1.5613 -1.3793
48413SOL    HW252480  10.762   1.732   0.298  0.4139 -0.2399 -0.4986
48414SOL     OW52481   0.144   0.264  11.969  0.3237 -0.1091  0.5709
48414SOL    HW152482   0.165   0.258  11.876 -0.3146  1.7490  0.2738
48414SOL    HW252483   0.080   0.194  11.984  0.8108 -0.7546 -0.2356
48415SOL     OW52484   4.044   3.259   8.534  0.0690  0.2638  0.2035
48415SOL    HW152485   4.117   3.222   8.585 -0.7603  1.0112  2.0035
48415SOL    HW252486   3.992   3.183   8.509  2.1040 -0.4537 -2.3039
48416SOL     OW52487   2.606   0.032  11.967 -0.3519  0.3310 -0.1069
48416SOL    HW152488   2.649   0.089  11.904 -0.6703  0.2578 -0.3992
48416SOL    HW252489   2.555  -0.029  11.912  0.8618 -0.9567  0.1444
48417SOL     OW52490   7.729   1.648   8.841 -0.5577 -0.2269 -0.8463
48417SOL    HW152491   7.648   1.606   8.810  0.8076 -1.3917 -3.0793
48417SOL    HW252492   7.792   1.632   8.771  1.4551  1.2114  0.5519
48418SOL     OW52493   7.409   8.360   2.806  0.2927  0.6176 -0.0337
48418SOL    HW152494   7.384   8.268   2.809  0.1507  0.6575  0.0654
48418SOL    HW252495   7.424   8.379   2.714  2.2696 -0.0138  0.1081
48419SOL     OW52496   2.136   7.270   1.755  0.5511  0.8618 -0.4327
48419SOL    HW152497   2.186   7.217   1.693  0.7712 -1.3278  1.4724
48419SOL    HW252498   2.054   7.290   1.709  0.9231 -0.2392 -1.6155
48420SOL     OW52499   6.577  11.562   1.570  0.7934 -0.1366  0.6773
48420SOL    HW152500   6.497  11.509   1.571  0.4402  0.3900  0.6260
48420SOL    HW252501   6.646  11.501   1.542  0.2303 -0.3443 -0.3106
48421SOL     OW52502   5.226   3.621   1.903 -0.7559 -0.2470 -0.1955
48421SOL    HW152503   5.277   3.549   1.939 -0.6661  0.0848  0.3485
48421SOL    HW252504   5.214   3.681   1.976 -1.5539 -0.1083 -0.4316
48422SOL     OW52505   6.525   6.644  12.409 -0.5191  0.4061 -0.4224
48422SOL    HW152506   6.514   6.548  12.406 -1.1947  0.4255  0.8475
48422SOL    HW252507   6.438   6.677  12.432 -0.3451  1.3550 -1.0924
48423SOL     OW52508   1.127   8.465   4.020  0.1717  0.1192 -0.1203
48423SOL    HW152509   1.072   8.533   4.058 -1.6154 -0.7095 -1.0715
48423SOL    HW252510   1.097   8.384   4.061  0.9175 -0.3100 -0.4079
48424SOL     OW52511   9.162   9.250   4.808  0.2208 -0.3742  0.0418
48424SOL    HW152512   9.151   9.326   4.751  3.4670 -0.2484 -0.6109
48424SOL    HW252513   9.097   9.262   4.877 -0.0059  2.5118 -0.5478
48425SOL     OW52514   5.033   2.447   2.183 -0.0499 -0.1356  0.4006
48425SOL    HW152515   5.058   2.449   2.091 -0.3325 -2.4639  0.2138
48425SOL    HW252516   4.942   2.477   2.184 -0.1527 -0.4218 -0.1327
48426SOL     OW52517  10.735   5.491  11.955  0.3378 -0.2928  0.3510
48426SOL    HW152518  10.816   5.527  11.920  0.8228 -0.6249  1.1036
48426SOL    HW252519  10.721   5.411  11.904  0.3586 -0.1166  0.0676
48427SOL     OW52520   8.004   9.628  12.153 -0.6064  0.4559 -0.3281
48427SOL    HW152521   8.064   9.667  12.216 -0.8058 -0.0355  0.1741
48427SOL    HW252522   7.941   9.579  12.206 -0.3721 -0.5360 -0.9442
48428SOL     OW52523   9.050   4.637  10.816  0.2450  0.2872  0.4672
48428SOL    HW152524   9.098   4.644  10.734  0.4012 -0.9134  0.4273
48428SOL    HW252525   9.092   4.563  10.861  0.1394  0.9105  1.6088
48429SOL     OW52526   5.192  10.281   0.037  0.5339 -0.4474  0.2322
48429SOL    HW152527   5.187  10.306   0.129  2.6174  0.2978  0.2082
48429SOL    HW252528   5.237  10.354  -0.005 -0.9864 -0.4557 -1.5398
48430SOL     OW52529   4.247   1.347  10.580 -0.1701 -0.1696 -0.0378
48430SOL    HW152530   4.242   1.285  10.653 -1.9741 -0.8511 -0.6986
48430SOL    HW252531   4.190   1.419  10.606  1.1332  0.7932  0.2780
48431SOL     OW52532   0.612   4.708   1.718  0.7452  0.1218  0.2017
48431SOL    HW152533   0.548   4.666   1.660 -0.5295  0.1402  1.5277
48431SOL    HW252534   0.693   4.711   1.667 -0.0253 -0.8903 -1.1418
48432SOL     OW52535   4.306   1.010  11.361  0.3004  0.3083 -0.0947
48432SOL    HW152536   4.308   0.914  11.362 -2.2391  0.1438 -1.2430
48432SOL    HW252537   4.317   1.036  11.452 -0.9967 -1.2174  0.5426
48433SOL     OW52538   8.756  11.823   0.916 -0.1731  0.2594  0.0185
48433SOL    HW152539   8.783  11.904   0.872 -0.0059 -0.0664 -0.4937
48433SOL    HW252540   8.666  11.809   0.887 -0.0884  0.0854 -0.1654
48434SOL     OW52541   1.217   8.676   5.386 -0.5175  0.1046  0.0665
48434SOL    HW152542   1.179   8.743   5.328 -2.0132 -0.1921  0.6587
48434SOL    HW252543   1.232   8.601   5.328  2.0089  1.1581 -0.8010
48435SOL     OW52544  12.391   7.959   9.604  0.3319  0.2768 -0.0911
48435SOL    HW152545  12.354   7.903   9.536 -0.2791 -0.0935  0.5280
48435SOL    HW252546  12.483   7.969   9.579 -0.0470  0.7554 -1.3511
48436SOL     OW52547   9.254   5.136  10.677  0.6882 -0.7343  0.2106
48436SOL    HW152548   9.172   5.089  10.669  0.3936  0.0137 -1.8815
48436SOL    HW252549   9.300   5.119  10.594  2.0695 -0.1310  0.8185
48437SOL     OW52550   0.825   3.471   2.063  0.0787  0.1710  0.3176
48437SOL    HW152551   0.768   3.539   2.028  0.7715 -0.2501 -1.8074
48437SOL    HW252552   0.900   3.519   2.099 -0.5547  0.6274  1.0288
48438SOL     OW52553   3.836   3.801  12.653 -0.6358  0.3200 -0.2794
48438SOL    HW152554   3.858   3.856  12.578  1.8811  1.2529  1.0100
48438SOL    HW252555   3.897   3.829  12.722 -1.7202 -1.6173  1.6012
48439SOL     OW52556   7.355   3.032   5.324  0.3134  0.2534 -0.0053
48439SOL    HW152557   7.321   2.943   5.328  0.0851  0.3735  2.2815
48439SOL    HW252558   7.311   3.078   5.396  0.2657  2.2927 -1.2454
48440SOL     OW52559   1.404   0.584  12.021  0.4292  0.3685  0.3304
48440SOL    HW152560   1.429   0.571  11.930  0.5601  1.9459  0.1200
48440SOL    HW252561   1.369   0.499  12.048  1.4875 -0.4674 -0.8117
48441SOL     OW52562   0.513   5.117   7.936  0.0506 -0.0274  0.3724
48441SOL    HW152563   0.594   5.168   7.925 -0.2990  0.5491  0.4573
48441SOL    HW252564   0.532   5.058   8.009 -0.0281  0.9718  1.2177
48442SOL     OW52565   9.502   7.858  11.980  0.2979  0.1626  0.0960
48442SOL    HW152566   9.455   7.893  11.904  2.2187  0.3288 -1.1020
48442SOL    HW252567   9.490   7.924  12.048 -1.9232 -0.2450  0.1511
48443SOL     OW52568   8.824   4.020   4.256  0.1481 -0.3549  0.9935
48443SOL    HW152569   8.791   3.934   4.230  0.7704 -0.8333  1.7500
48443SOL    HW252570   8.797   4.029   4.347 -1.4576  1.0349  0.4469
48444SOL     OW52571   8.444   1.701   0.919 -0.6989  0.0155 -0.2644
48444SOL    HW152572   8.391   1.732   0.992 -0.9781 -2.7443  0.7877
48444SOL    HW252573   8.529   1.745   0.931 -0.8082 -0.2019  1.6053
48445SOL     OW52574   0.962   9.263  11.235 -0.0107 -0.0721  0.1862
48445SOL    HW152575   1.027   9.331  11.250  1.2645 -1.4112  1.0067
48445SOL    HW252576   1.011   9.181  11.242 -1.5009 -1.0943 -0.6978
48446SOL     OW52577   5.826   3.502   6.209 -0.2335 -0.2453 -0.2858
48446SOL    HW152578   5.831   3.533   6.118  0.4917  0.5003 -0.0035
48446SOL    HW252579   5.903   3.446   6.219 -1.2427 -1.7580 -0.6294
48447SOL     OW52580   2.257  10.255   7.347 -0.1005 -0.5426  0.1373
48447SOL    HW152581   2.204  10.202   7.405  0.5104 -1.0308  0.2626
48447SOL    HW252582   2.294  10.323   7.403  0.0374 -0.6777  0.2113
48448SOL     OW52583   7.464   3.840   4.760 -0.7818 -0.0989 -0.0789
48448SOL    HW152584   7.507   3.850   4.674 -1.1707 -0.6627 -0.3438
48448SOL    HW252585   7.525   3.879   4.822 -0.3330 -0.0089 -0.5719
48449SOL     OW52586   9.459   9.518   4.751  0.2649  0.5793  0.0913
48449SOL    HW152587   9.467   9.530   4.845 -0.6432 -1.5636  0.4969
48449SOL    HW252588   9.369   9.544   4.730  0.0974 -0.0412  0.0222
48450SOL     OW52589   7.837   2.762  10.738  0.6347 -0.9042 -0.3229
48450SOL    HW152590   7.837   2.738  10.830 -1.7595  1.4128  0.4169
48450SOL    HW252591   7.915   2.816  10.727  1.0117 -1.3148  0.3208
48451SOL     OW52592   2.841  10.172  11.092  0.1085  0.0897  0.6357
48451SOL    HW152593   2.922  10.133  11.123 -0.1975 -0.4293  0.7907
48451SOL    HW252594   2.790  10.098  11.059 -0.0368  0.4922 -0.0591
48452SOL     OW52595   3.167  12.271   4.232  0.1292  0.2188  0.0590
48452SOL    HW152596   3.174  12.304   4.321  1.5424  0.0979  0.0031
48452SOL    HW252597   3.074  12.280   4.210 -0.0262  1.3083  1.1268
48453SOL     OW52598   7.895   1.235   5.349  0.3263  0.5031 -0.1361
48453SOL    HW152599   7.912   1.143   5.367 -0.6838  0.3203 -0.0303
48453SOL    HW252600   7.948   1.283   5.413 -0.3525 -0.0508  0.8606
48454SOL     OW52601   3.155   4.644  10.108  0.3402  0.4014  0.3169
48454SOL    HW152602   3.072   4.677  10.074 -0.3960 -1.9405 -0.3834
48454SOL    HW252603   3.221   4.680  10.048 -0.1442  2.1229  0.7596
48455SOL     OW52604   0.174   2.052   4.606  0.4547  1.1352  0.6830
48455SOL    HW152605   0.269   2.050   4.609  0.4913  2.6770  1.4318
48455SOL    HW252606   0.149   1.965   4.574  2.1079  0.8354  0.1232
48456SOL     OW52607  10.657   0.716  10.669  0.8184  0.3495 -0.0655
48456SOL    HW152608  10.595   0.650  10.699  1.3693 -0.4002 -0.5447
48456SOL    HW252609  10.727   0.716  10.734  0.7460  0.5769  0.0148
48457SOL     OW52610   7.144  10.688  12.649 -0.2763  0.0846 -0.6334
48457SOL    HW152611   7.192  10.755  12.698 -0.3901  0.3285 -0.8545
48457SOL    HW252612   7.212  10.631  12.613 -0.1967 -0.1990 -0.0492
48458SOL     OW52613   6.349   5.261  10.029  0.2273 -0.4881 -0.0452
48458SOL    HW152614   6.356   5.257  10.124  0.8947  2.9107  0.1732
48458SOL    HW252615   6.428   5.217   9.997  0.7369 -0.3764  1.0122
48459SOL     OW52616   0.793  11.877  11.316 -0.7327 -0.1119 -0.3233
48459SOL    HW152617   0.848  11.870  11.394 -1.3072  1.7520  0.2935
48459SOL    HW252618   0.718  11.821  11.334 -0.0472 -1.0490 -0.2986
48460SOL     OW52619  11.964   4.847   9.252 -0.2253 -0.3678 -0.2219
48460SOL    HW152620  11.948   4.846   9.347  2.5665  0.5076  0.3706
48460SOL    HW252621  11.887   4.889   9.215 -0.5554  1.1110  1.9118
48461SOL     OW52622   5.839   1.127   5.716  0.0535  0.3411 -0.1741
48461SOL    HW152623   5.863   1.073   5.792  0.1626  0.6978  0.0484
48461SOL    HW252624   5.748   1.104   5.698  0.1423 -0.0234 -0.1749
48462SOL     OW52625   1.631   9.296   8.039  0.3164  0.2051  0.3272
48462SOL    HW152626   1.561   9.358   8.061 -0.8119 -0.3900 -1.3989
48462SOL    HW252627   1.586   9.212   8.029  1.2320 -0.1568 -0.9792
48463SOL     OW52628  11.343   6.151   6.980  0.0654 -0.0396 -0.1712
48463SOL    HW152629  11.304   6.155   6.892 -1.3661  1.4807  0.4816
48463SOL    HW252630  11.387   6.235   6.991  0.8162 -0.4821  0.3352
48464SOL     OW52631   4.864   1.573   6.245  0.0624 -0.1516  0.7245
48464SOL    HW152632   4.888   1.652   6.196 -0.0603 -0.8575 -0.5201
48464SOL    HW252633   4.900   1.587   6.333  3.2083 -0.2529 -0.4351
48465SOL     OW52634   9.721  11.897   2.243 -0.4210  0.3306 -0.1683
48465SOL    HW152635   9.649  11.857   2.293 -0.9616 -1.0050 -1.9208
48465SOL    HW252636   9.680  11.971   2.197 -0.2247  0.7372  0.3020
48466SOL     OW52637   6.865   5.922  11.630 -0.0737  0.5161  0.1655
48466SOL    HW152638   6.771   5.915  11.613 -0.1932 -0.8219  1.2170
48466SOL    HW252639   6.904   5.934  11.544 -1.1571  0.5724 -0.3360
48467SOL     OW52640   8.973   9.956   5.106  0.0637  0.0476  0.7620
48467SOL    HW152641   9.063   9.985   5.123  0.0883 -0.0070  0.7261
48467SOL    HW252642   8.984   9.880   5.048 -0.0533  0.7033 -0.1346
48468SOL     OW52643   8.276   1.200   6.407  0.1514 -0.4357 -0.4826
48468SOL    HW152644   8.350   1.239   6.455  0.4262 -3.0115  1.3337
48468SOL    HW252645   8.317   1.155   6.333  0.2922 -0.9413 -0.0984
48469SOL     OW52646   8.604  11.591   5.357  0.2318 -0.7207 -0.0946
48469SOL    HW152647   8.573  11.513   5.403  1.3375  0.5072  3.0463
48469SOL    HW252648   8.690  11.608   5.395  0.6534  1.2232 -1.7403
48470SOL     OW52649   2.845   8.410  10.146  0.0140  0.0066  0.0253
48470SOL    HW152650   2.807   8.325  10.124  1.1729 -0.3248 -0.7952
48470SOL    HW252651   2.935   8.391  10.171 -0.1646  0.8264  1.4661
48471SOL     OW52652   8.415   1.427   7.416  0.2220  0.2274 -0.1484
48471SOL    HW152653   8.400   1.460   7.504 -2.9521  1.2602 -0.9406
48471SOL    HW252654   8.454   1.501   7.369  1.4096 -0.1485  0.2145
48472SOL     OW52655   4.173   9.033   6.500 -0.0247 -0.3306 -0.0928
48472SOL    HW152656   4.112   9.041   6.573  0.0038  0.4537 -0.1458
48472SOL    HW252657   4.259   9.045   6.540 -0.0061  0.0480 -0.2520
48473SOL     OW52658   4.716   5.765  12.210  0.4999 -0.3060  0.2543
48473SOL    HW152659   4.642   5.725  12.254  1.7515 -1.2631  1.6018
48473SOL    HW252660   4.729   5.711  12.132 -1.7785  1.4526 -1.4858
48474SOL     OW52661   3.416   9.182   6.405  0.0893 -0.2653 -0.4479
48474SOL    HW152662   3.398   9.241   6.332  0.7830 -0.6300 -0.9328
48474SOL    HW252663   3.491   9.130   6.376 -0.0561 -0.8936  0.2512
48475SOL     OW52664   7.430   2.536   7.665  0.3359  0.6725  0.3887
48475SOL    HW152665   7.424   2.566   7.755 -1.3630 -0.3599  0.6777
48475SOL    HW252666   7.361   2.584   7.619 -0.2145 -0.3314  0.1334
48476SOL     OW52667   4.211   5.803   7.169  0.1794  0.2864  0.2848
48476SOL    HW152668   4.165   5.832   7.247 -0.0400  1.5496 -0.2708
48476SOL    HW252669   4.270   5.734   7.199 -1.2969 -0.6313  1.1981
48477SOL     OW52670   5.557   2.150   3.711  0.3100  0.3658  0.8235
48477SOL    HW152671   5.520   2.062   3.703  0.5035  0.3657 -0.1816
48477SOL    HW252672   5.606   2.164   3.630 -2.3430  2.6153 -0.5784
48478SOL     OW52673  10.328  11.956   2.321  0.2300 -0.2051  0.4207
48478SOL    HW152674  10.325  12.052   2.319 -1.4458 -0.1970  1.5007
48478SOL    HW252675  10.374  11.935   2.402  0.7075 -0.3279  0.1217
48479SOL     OW52676   0.602   4.128   1.866  0.4444 -0.0856  0.2156
48479SOL    HW152677   0.560   4.058   1.917 -1.7224  0.7126 -0.3706
48479SOL    HW252678   0.657   4.174   1.929  3.0478 -3.0634  0.3528
48480SOL     OW52679   8.083   8.165   3.321  0.5618 -0.0715 -0.1796
48480SOL    HW152680   8.118   8.076   3.329  1.6336  0.3836  0.4163
48480SOL    HW252681   8.065   8.192   3.411 -0.4455  0.0684 -0.4078
48481SOL     OW52682   9.667   8.988   6.844 -0.3042  0.4360 -0.0431
48481SOL    HW152683   9.639   8.903   6.812 -0.7596  0.3331  0.6244
48481SOL    HW252684   9.617   9.051   6.792  0.0151  0.3011 -0.5190
48482SOL     OW52685  11.781   5.185   2.118 -0.0247  0.2213  0.1066
48482SOL    HW152686  11.731   5.133   2.055 -1.7138  0.3566  1.2576
48482SOL    HW252687  11.716   5.211   2.184  1.4650  0.9591  1.3415
48483SOL     OW52688  10.464   5.745   5.261  0.9070 -0.0807  0.0655
48483SOL    HW152689  10.471   5.673   5.197 -1.0121 -1.4822  1.2962
48483SOL    HW252690  10.553   5.757   5.294  1.7104 -0.1847 -1.9118
48484SOL     OW52691  10.515   8.155   8.363 -0.3447  0.1704  0.1275
48484SOL    HW152692  10.589   8.102   8.334 -0.2805  0.2440  0.1569
48484SOL    HW252693  10.546   8.245   8.358 -1.2067  0.4108 -2.1483
48485SOL     OW52694   6.740  12.025   4.516  0.1034 -0.5284 -0.4987
48485SOL    HW152695   6.715  12.093   4.579  2.4151 -0.9156  0.9875
48485SOL    HW252696   6.718  11.943   4.559 -1.1125 -0.7882 -1.5614
48486SOL     OW52697  12.285   2.728   5.649  0.4127  0.1831 -0.0054
48486SOL    HW152698  12.202   2.775   5.639  0.1547 -0.2532  0.0787
48486SOL    HW252699  12.261   2.636   5.647  0.7647  0.0512  1.1633
48487SOL     OW52700  10.375   2.544   7.317 -0.0042 -0.1250  0.2119
48487SOL    HW152701  10.453   2.578   7.274 -0.0429 -0.5768 -0.2223
48487SOL    HW252702  10.335   2.485   7.253  0.2756 -1.2875  1.0653
48488SOL     OW52703  10.659   9.987   6.772  0.5619 -0.0965  0.2977
48488SOL    HW152704  10.611   9.941   6.841 -0.4752 -0.8015 -0.8571
48488SOL    HW252705  10.748   9.953   6.778  0.4451 -0.2805  1.1574
48489SOL     OW52706   8.321   0.614   6.218  0.7439 -0.2425  0.2512
48489SOL    HW152707   8.262   0.689   6.217 -1.4270 -1.8350 -1.6356
48489SOL    HW252708   8.282   0.553   6.281  0.6060 -1.1001 -0.6362
48490SOL     OW52709   2.567   3.684   8.459 -0.1059 -0.2587  0.3987
48490SOL    HW152710   2.611   3.710   8.540 -0.2478 -1.0991  0.7538
48490SOL    HW252711   2.526   3.764   8.427 -0.3871 -0.0068  1.3708
48491SOL     OW52712  10.037  12.458   4.339  0.4467 -0.1247 -0.5074
48491SOL    HW152713  10.031  12.373   4.295 -1.0742 -0.0530 -0.4845
48491SOL    HW252714   9.985  12.517   4.284 -0.8104  0.1547  0.8955
48492SOL     OW52715   5.497   6.271   2.256  0.2071  0.3929 -0.1402
48492SOL    HW152716   5.518   6.337   2.190  2.4687 -1.4862 -1.4458
48492SOL    HW252717   5.474   6.193   2.206 -2.0230 -0.0183  1.3690
48493SOL     OW52718   6.620   6.697  11.291 -0.1796 -0.0764 -0.5458
48493SOL    HW152719   6.599   6.681  11.199 -1.7043 -0.6475 -0.1313
48493SOL    HW252720   6.657   6.614  11.322  0.3292  0.1145 -0.6308
48494SOL     OW52721  11.369   5.962  12.048 -0.1960  0.2189 -0.0772
48494SOL    HW152722  11.435   5.896  12.068 -1.2880 -1.4613 -1.6419
48494SOL    HW252723  11.290   5.931  12.094  0.1322  2.5063  2.2703
48495SOL     OW52724   2.654  10.075  12.093  0.4484  0.0177  0.1352
48495SOL    HW152725   2.714  10.024  12.148  1.0666  2.7883  2.2730
48495SOL    HW252726   2.571  10.075  12.141 -0.7649 -1.9846 -1.7461
48496SOL     OW52727  10.348   5.919   7.565  0.0336 -0.0798  0.4887
48496SOL    HW152728  10.330   5.965   7.647 -1.3625 -0.9103  0.6763
48496SOL    HW252729  10.326   5.982   7.496  0.7426  0.4465  0.7261
48497SOL     OW52730   5.083   1.717   8.953 -0.5788 -0.0428  0.3520
48497SOL    HW152731   5.100   1.714   8.859 -0.4269  0.7008  0.3489
48497SOL    HW252732   5.006   1.663   8.965  0.3345 -1.4696  0.0289
48498SOL     OW52733   6.340  11.354   3.451 -0.3214  0.4775  0.4465
48498SOL    HW152734   6.294  11.431   3.417  0.6363  1.5238  1.4295
48498SOL    HW252735   6.401  11.330   3.381 -0.1329  1.0429  0.4142
48499SOL     OW52736  11.184   2.398   8.127 -0.3897 -0.5268 -0.5491
48499SOL    HW152737  11.235   2.477   8.145 -1.6850 -0.0047  1.0730
48499SOL    HW252738  11.249   2.332   8.103  0.6990  1.1659 -2.6988
48500SOL     OW52739  11.333   8.448   5.294 -0.3158  0.0404  0.4654
48500SOL    HW152740  11.314   8.398   5.373  1.8151 -0.9570  0.4082
48500SOL    HW252741  11.381   8.525   5.324 -0.4238  0.1990  0.2377
48501SOL     OW52742   4.720  11.386  11.641  0.0126  0.4371 -0.1899
48501SOL    HW152743   4.691  11.398  11.731  0.8366  1.5183 -0.0441
48501SOL    HW252744   4.706  11.293  11.623 -0.7392  0.3355  0.8388
48502SOL     OW52745   2.000   8.506   7.101 -0.4177 -0.1179  0.0316
48502SOL    HW152746   2.062   8.436   7.121 -0.2048 -0.2997 -1.1620
48502SOL    HW252747   1.930   8.495   7.165  1.0347  0.4518  1.7781
48503SOL     OW52748   4.190  11.655   1.941 -0.4331  0.1325 -0.0534
48503SOL    HW152749   4.225  11.578   1.986 -1.2326  0.3979  1.0665
48503SOL    HW252750   4.132  11.695   2.004  0.7275  2.2515 -0.2395
48504SOL     OW52751   1.785   8.541  10.305  0.0013  0.0875  0.1786
48504SOL    HW152752   1.689   8.541  10.299  0.0715 -0.2442 -1.4815
48504SOL    HW252753   1.803   8.511  10.394 -1.4214  4.5086  2.2197
48505SOL     OW52754   8.056   7.476   8.833  0.3743  0.2919  0.0557
48505SOL    HW152755   8.131   7.474   8.774  0.4717  0.1452  0.1821
48505SOL    HW252756   8.027   7.567   8.832 -0.9942 -0.1204 -1.9127
48506SOL     OW52757  10.200   2.732  12.316  0.3269 -0.1299 -0.2159
48506SOL    HW152758  10.137   2.664  12.338 -0.0266  0.5121  0.8604
48506SOL    HW252759  10.153   2.814  12.333  1.4424  0.3622  0.6501
48507SOL     OW52760   2.625   8.540   8.373  0.5015 -0.2512 -0.0854
48507SOL    HW152761   2.713   8.535   8.412  0.7923 -2.5600 -0.8709
48507SOL    HW252762   2.580   8.607   8.424  3.0387  1.7924 -0.3498
48508SOL     OW52763   7.929   5.196   0.761  0.1093 -0.3066 -0.0481
48508SOL    HW152764   7.944   5.160   0.848 -1.7143 -1.4220 -0.1574
48508SOL    HW252765   8.013   5.236   0.737  1.0679 -1.2145  1.6283
48509SOL     OW52766   0.197   0.576  10.015  0.0229 -0.4588  0.0348
48509SOL    HW152767   0.198   0.515  10.089 -2.0579 -1.0590 -0.3636
48509SOL    HW252768   0.127   0.638  10.036  1.1651  0.9895 -0.2334
48510SOL     OW52769   1.972   9.964   9.053 -0.2332 -0.5848  0.5087
48510SOL    HW152770   2.029  10.014   9.112  1.6690 -0.3859 -1.3714
48510SOL    HW252771   1.927  10.031   9.001  1.0426 -0.7171 -0.8521
48511SOL     OW52772   2.273  12.472   0.599 -0.8368  0.2331 -0.1963
48511SOL    HW152773   2.255  12.435   0.685 -1.1132  0.3979 -0.1815
48511SOL    HW252774   2.199  12.530   0.582 -0.1239  1.2237  0.0257
48512SOL     OW52775  12.272   6.828   5.427 -0.5127  0.2595 -0.5011
48512SOL    HW152776  12.352   6.777   5.425 -0.2432  0.6647 -0.2128
48512SOL    HW252777  12.292   6.903   5.483 -0.9889  0.5342 -0.6872
48513SOL     OW52778   1.385   1.144  12.009  0.0704  0.5651 -0.5393
48513SOL    HW152779   1.336   1.225  11.993 -1.3530 -0.6822 -3.1691
48513SOL    HW252780   1.319   1.075  12.007  1.6382 -1.0034 -2.2317
48514SOL     OW52781   3.865   9.640   7.937 -0.1486 -0.4328  0.2842
48514SOL    HW152782   3.824   9.643   8.024 -2.5003  1.9907 -0.7662
48514SOL    HW252783   3.799   9.599   7.881  0.0929  0.7508 -0.8929
48515SOL     OW52784   3.004   3.179  12.456 -0.4459 -0.3129 -0.3585
48515SOL    HW152785   3.010   3.187  12.361 -0.8002 -0.0602 -0.3640
48515SOL    HW252786   3.037   3.262  12.489  0.9235 -0.8889 -0.2025
48516SOL     OW52787   4.753   6.735  11.987 -0.3382  0.0737  0.2521
48516SOL    HW152788   4.823   6.777  12.036  0.9633 -1.4136 -0.2707
48516SOL    HW252789   4.797   6.688  11.917 -1.8904 -0.6121 -0.3080
48517SOL     OW52790   8.347   8.034   6.919  0.7964 -0.6287  0.2923
48517SOL    HW152791   8.392   8.077   6.992 -0.0596  0.9404 -0.0669
48517SOL    HW252792   8.417   7.988   6.872  1.5547 -0.6239  1.3746
48518SOL     OW52793   2.294   3.815   2.236  0.0643 -0.0420 -0.0636
48518SOL    HW152794   2.340   3.736   2.209  1.1353  0.5562 -0.0105
48518SOL    HW252795   2.202   3.788   2.244  0.4018 -1.2412 -0.1639
48519SOL     OW52796   4.611  11.338   7.936  0.1244 -0.1214 -0.2927
48519SOL    HW152797   4.527  11.350   7.891 -1.0403  0.8202  1.9727
48519SOL    HW252798   4.661  11.280   7.879 -2.0847 -0.7482 -1.6936
48520SOL     OW52799   0.679   4.124   6.439  0.1876 -0.3536  0.2635
48520SOL    HW152800   0.615   4.065   6.401 -0.7501  0.5761  0.3645
48520SOL    HW252801   0.627   4.192   6.483  1.1988  1.1910 -0.8202
48521SOL     OW52802   3.356   3.571   2.407 -0.1737  0.0402  0.0711
48521SOL    HW152803   3.346   3.651   2.458  2.2280  0.9903 -0.7870
48521SOL    HW252804   3.335   3.597   2.317  1.3511 -0.0499 -0.3399
48522SOL     OW52805   6.846  10.827   2.130  0.4922  0.1951  0.1152
48522SOL    HW152806   6.903  10.903   2.120  0.9967 -0.3248 -1.3027
48522SOL    HW252807   6.851  10.805   2.223  2.2730  0.4431  0.1284
48523SOL     OW52808   0.560   3.057  11.853 -0.3851  0.0624 -0.0200
48523SOL    HW152809   0.547   2.985  11.792  0.3288  0.3491 -0.5313
48523SOL    HW252810   0.474   3.073  11.891 -0.5061 -1.1723  0.2339
48524SOL     OW52811   3.430   3.353   1.715  0.2074  0.7255  0.0628
48524SOL    HW152812   3.513   3.376   1.674  0.7200 -0.2802  0.4899
48524SOL    HW252813   3.408   3.267   1.678  1.0312 -0.5480  2.3125
48525SOL     OW52814   0.710  11.065   8.644  0.1847  0.2782 -0.3815
48525SOL    HW152815   0.726  11.158   8.624  0.3555  0.2568 -0.3412
48525SOL    HW252816   0.764  11.017   8.581  0.4486  0.2078 -0.1027
48526SOL     OW52817   7.936   7.323   1.685 -0.0902 -0.5778  0.5754
48526SOL    HW152818   7.979   7.407   1.673  0.0372 -0.8748 -1.2218
48526SOL    HW252819   8.002   7.268   1.728 -0.4544  0.4300  2.5366
48527SOL     OW52820  10.893   7.303   8.831  0.2337 -0.3768  0.3506
48527SOL    HW152821  10.969   7.246   8.841  1.0016  0.6071  0.2351
48527SOL    HW252822  10.828   7.249   8.787  1.3107 -0.8396 -0.7142
48528SOL     OW52823   5.351   8.915  11.454 -0.0447 -0.0751  0.5927
48528SOL    HW152824   5.433   8.963  11.457 -1.3339  2.3564 -0.0223
48528SOL    HW252825   5.376   8.824  11.441  2.5124  0.7688 -1.1119
48529SOL     OW52826  11.109   5.063   4.563  0.2588 -0.4828 -0.3061
48529SOL    HW152827  11.162   5.138   4.536  1.0377 -0.5972  0.8365
48529SOL    HW252828  11.053   5.044   4.487  0.8353  0.5486 -1.0078
48530SOL     OW52829   3.134   2.604   4.229  0.2764  0.2223 -0.3962
48530SOL    HW152830   3.192   2.547   4.178  0.5957  0.6199 -0.4822
48530SOL    HW252831   3.049   2.596   4.186  0.0489 -1.0053  0.2195
48531SOL     OW52832  11.924   6.191   9.277 -0.0313  0.2545  0.0402
48531SOL    HW152833  11.885   6.143   9.351  1.1585  1.4932  1.5260
48531SOL    HW252834  12.015   6.160   9.273  0.0143  0.4563 -0.6908
48532SOL     OW52835  11.359  11.828   0.847 -0.2699  0.2307  0.4629
48532SOL    HW152836  11.330  11.737   0.841 -0.9324  0.3807  1.1939
48532SOL    HW252837  11.355  11.860   0.757  1.0541 -0.7703  0.0226
48533SOL     OW52838   9.465   2.643   3.609  0.1729  0.2514  0.3303
48533SOL    HW152839   9.466   2.704   3.535 -1.5038  1.2057  1.0427
48533SOL    HW252840   9.417   2.567   3.577 -1.4979  1.1056  0.7227
48534SOL     OW52841   2.248  11.805   0.355 -0.1162  0.1959  0.0338
48534SOL    HW152842   2.163  11.763   0.342  0.2331 -0.2614 -0.8627
48534SOL    HW252843   2.297  11.786   0.274  1.2986 -0.6555  1.0461
48535SOL     OW52844   1.268   9.399  12.119  0.3293  0.5896 -1.0485
48535SOL    HW152845   1.300   9.488  12.106 -0.0093  1.6174  3.3863
48535SOL    HW252846   1.345   9.350  12.148 -0.0645  0.3153 -0.4391
48536SOL     OW52847  11.391   9.218   0.285 -0.4915 -0.5224 -0.0219
48536SOL    HW152848  11.487   9.209   0.284 -0.4917 -0.5069 -0.2523
48536SOL    HW252849  11.376   9.313   0.290 -0.4956 -0.5106 -0.2689
48537SOL     OW52850   9.532  12.434   6.384 -0.4571  0.0230  0.2453
48537SOL    HW152851   9.457  12.471   6.337 -0.1661 -0.7520 -0.8515
48537SOL    HW252852   9.529  12.341   6.366  1.4905  0.1211 -0.9100
48538SOL     OW52853   9.597   9.426   3.983  0.1133 -0.1621  0.1213
48538SOL    HW152854   9.638   9.341   3.972 -1.0082 -0.5320 -1.6584
48538SOL    HW252855   9.658   9.476   4.037  3.1530 -0.5079 -2.6806
48539SOL     OW52856  11.628   9.513   9.884 -0.0653 -0.4246 -0.0181
48539SOL    HW152857  11.673   9.498   9.967  0.0746 -1.1547 -0.2256
48539SOL    HW252858  11.561   9.578   9.906  1.3807  1.0879  0.1909
48540SOL     OW52859  11.410   5.720   1.250  0.3114  0.2208  0.4702
48540SOL    HW152860  11.421   5.775   1.328  0.8342 -1.0585  1.3339
48540SOL    HW252861  11.496   5.723   1.208  0.7437 -0.9044  1.2110
48541SOL     OW52862   0.010   5.713   9.481 -0.2959 -0.1376 -0.6267
48541SOL    HW152863   0.002   5.808   9.478  0.5056 -0.0797 -1.9602
48541SOL    HW252864  -0.009   5.684   9.392  0.0849 -1.1608 -0.3954
48542SOL     OW52865   5.588   3.152   3.465 -0.1492  0.7376 -0.2849
48542SOL    HW152866   5.562   3.060   3.467  0.5646  0.5358  0.1120
48542SOL    HW252867   5.619   3.170   3.554 -2.1121  1.9166  0.2312
48543SOL     OW52868   3.450   1.569   3.393  0.8460 -0.3617 -0.6559
48543SOL    HW152869   3.488   1.549   3.308 -0.5363  0.8184 -1.5789
48543SOL    HW252870   3.357   1.579   3.377  0.4636 -0.6879  1.1164
48544SOL     OW52871   7.157   6.622   7.849  0.2045 -0.3675 -0.5042
48544SOL    HW152872   7.205   6.549   7.810 -1.0124 -0.7600 -1.3375
48544SOL    HW252873   7.106   6.583   7.920  0.1184 -0.1963 -0.4694
48545SOL     OW52874   3.349   5.867  12.570 -0.2567 -0.9012 -0.7656
48545SOL    HW152875   3.328   5.938  12.510  2.0723 -0.6533 -1.3779
48545SOL    HW252876   3.426   5.897  12.618 -0.9732 -1.8424  1.1156
48546SOL     OW52877  10.737   7.635  10.341 -0.1033  0.3179  0.0420
48546SOL    HW152878  10.705   7.570  10.403 -1.4900  0.5219 -0.4280
48546SOL    HW252879  10.659   7.663  10.293  0.4605  2.2434  0.1656
48547SOL     OW52880   0.240   1.605   9.224  0.6852 -0.4641 -0.1498
48547SOL    HW152881   0.244   1.603   9.129  0.9023  2.9938 -0.3461
48547SOL    HW252882   0.210   1.518   9.249 -0.7396 -1.0583 -3.4427
48548SOL     OW52883   6.411   3.849   7.195 -0.0308  0.5325  0.5364
48548SOL    HW152884   6.341   3.902   7.157 -0.0792  0.4178  0.4636
48548SOL    HW252885   6.464   3.910   7.246  1.5267  1.1739 -1.7344
48549SOL     OW52886   4.551  12.535   2.068  0.3316 -0.6962  0.1110
48549SOL    HW152887   4.643  12.563   2.075  0.4381  0.0276 -2.8882
48549SOL    HW252888   4.502  12.617   2.060 -0.1761 -1.1344 -1.5512
48550SOL     OW52889   5.321   9.091   2.072 -0.7702 -0.0393  0.2534
48550SOL    HW152890   5.260   9.073   2.143  0.4478 -0.5149  1.2193
48550SOL    HW252891   5.408   9.079   2.111 -0.0222  1.5830 -0.8130
48551SOL     OW52892  11.175  11.689   4.182 -0.5304  0.2274  0.1409
48551SOL    HW152893  11.122  11.614   4.157 -1.9425  0.8291  1.2179
48551SOL    HW252894  11.140  11.763   4.132 -0.3647  0.5294  0.4578
48552SOL     OW52895  11.239   1.193  12.054 -0.3487  0.6841  0.0945
48552SOL    HW152896  11.316   1.179  12.109  0.3173  0.5309 -0.8638
48552SOL    HW252897  11.184   1.252  12.105 -0.0010  0.1161  1.1647
48553SOL     OW52898   8.201   6.915   9.323 -0.2436 -0.4924  0.3521
48553SOL    HW152899   8.191   6.883   9.233  1.9839 -0.8557  0.1804
48553SOL    HW252900   8.292   6.896   9.345 -0.3113  1.0125  2.1407
48554SOL     OW52901   8.385   9.648   5.091 -0.3582 -0.5013  0.1847
48554SOL    HW152902   8.430   9.718   5.138  1.1581 -0.4280 -1.2952
48554SOL    HW252903   8.444   9.625   5.019 -2.2178 -1.1627 -1.2066
48555SOL     OW52904   3.707   1.918   9.678  0.0424  0.9804 -0.1077
48555SOL    HW152905   3.779   1.968   9.640  0.3104 -0.0930 -1.1035
48555SOL    HW252906   3.719   1.829   9.643 -0.4909  0.2510  1.4640
48556SOL     OW52907   9.380   4.499   6.903 -0.3243 -0.2011 -0.5792
48556SOL    HW152908   9.433   4.462   6.974  1.0106 -0.1863 -1.5192
48556SOL    HW252909   9.308   4.437   6.891  1.6492 -2.4189 -1.8768
48557SOL     OW52910   5.338   0.467   8.803  0.3683 -0.1625  0.2175
48557SOL    HW152911   5.422   0.454   8.846  0.6809  0.1030 -0.3067
48557SOL    HW252912   5.319   0.560   8.814  0.3775 -0.1227 -0.0783
48558SOL     OW52913   9.875  12.485   2.070  0.2951  0.3188  0.0108
48558SOL    HW152914   9.890  12.487   2.165  3.1444  0.0687 -0.3424
48558SOL    HW252915   9.921  12.406   2.040 -1.4658 -0.2019 -1.4912
48559SOL     OW52916   2.809   5.299   9.764 -0.5780 -0.3337 -0.2132
48559SOL    HW152917   2.716   5.295   9.744 -0.5733  1.1102 -0.6363
48559SOL    HW252918   2.849   5.234   9.706 -1.1272  0.3520 -1.3986
48560SOL     OW52919   6.911  11.909   3.789 -0.3253 -0.6137  0.3927
48560SOL    HW152920   6.962  11.847   3.842 -0.8917 -1.2450  0.1975
48560SOL    HW252921   6.919  11.992   3.837  1.8836 -0.3926 -0.2463
48561SOL     OW52922  10.315   6.542   6.776  0.7631  0.2054  0.2947
48561SOL    HW152923  10.402   6.574   6.752  1.0036 -0.5655  0.0911
48561SOL    HW252924  10.263   6.553   6.696  0.2293  2.0976  0.8602
48562SOL     OW52925  10.725   5.301   8.114  0.2050  0.4434  0.5440
48562SOL    HW152926  10.728   5.374   8.052 -1.0341  0.1911  0.1553
48562SOL    HW252927  10.782   5.234   8.076  0.9630  1.0123  0.6609
48563SOL     OW52928   2.369   2.748   4.277  0.1857 -0.2856  0.7825
48563SOL    HW152929   2.375   2.694   4.199  0.5552  0.2968  0.4019
48563SOL    HW252930   2.400   2.691   4.348  0.9521 -0.4468  0.3297
48564SOL     OW52931   7.390   7.976   6.694 -0.2298 -0.1834  0.7325
48564SOL    HW152932   7.327   8.045   6.675 -0.4922 -0.7771 -0.7002
48564SOL    HW252933   7.456   7.983   6.625 -0.5664 -1.6970  0.2032
48565SOL     OW52934   4.064   6.460  11.359 -0.1673  0.4796 -0.2552
48565SOL    HW152935   4.039   6.441  11.449  0.1034  0.2456 -0.2270
48565SOL    HW252936   4.095   6.551  11.362  0.9295  0.1126  0.1284
48566SOL     OW52937   0.443  12.443   4.677  0.2977 -1.0375 -0.0315
48566SOL    HW152938   0.450  12.353   4.644 -2.2643 -1.8193  1.2869
48566SOL    HW252939   0.349  12.459   4.681  0.6959  1.4675  0.4520
48567SOL     OW52940   7.703   1.640   5.271  0.3568  0.3325  0.1987
48567SOL    HW152941   7.687   1.684   5.188 -0.1551  1.1828  0.7232
48567SOL    HW252942   7.684   1.548   5.254 -1.6739  0.7567 -0.1660
48568SOL     OW52943  10.006   4.948   1.992 -0.5648 -0.2927  0.0192
48568SOL    HW152944  10.022   5.031   2.036 -1.0040 -0.3210  0.2298
48568SOL    HW252945  10.092   4.922   1.960 -0.7407  1.3261 -1.9903
48569SOL     OW52946  12.275   1.218  10.366 -0.3917  1.0282  0.1137
48569SOL    HW152947  12.340   1.279  10.402  0.7836 -0.9157  1.5015
48569SOL    HW252948  12.326   1.140  10.344 -1.9993  0.1249 -0.5438
48570SOL     OW52949  11.203   3.313   5.186 -0.0454  0.1067  0.2945
48570SOL    HW152950  11.197   3.332   5.279 -0.8145 -1.1996  0.5355
48570SOL    HW252951  11.147   3.379   5.144 -1.3054 -0.5201  0.9498
48571SOL     OW52952   7.336  12.697   2.732 -0.2608 -0.1837  0.0613
48571SOL    HW152953   7.394  12.722   2.661  0.4305 -0.7852  0.4006
48571SOL    HW252954   7.370  12.613   2.763 -0.3168  0.2289  1.3309
48572SOL     OW52955   9.692   9.687   7.787 -0.0655 -0.6143 -0.5859
48572SOL    HW152956   9.672   9.610   7.840 -0.5067 -0.0497  0.1068
48572SOL    HW252957   9.606   9.723   7.764  0.1145 -0.9721 -1.9049
48573SOL     OW52958   1.368  10.380   1.125  0.2037  0.5687  0.1027
48573SOL    HW152959   1.390  10.414   1.212  0.0028  0.7032  0.1004
48573SOL    HW252960   1.434  10.418   1.067 -0.7870  1.9920 -0.1155
48574SOL     OW52961   0.069  12.365  11.621  0.0956 -0.1388 -0.4350
48574SOL    HW152962   0.075  12.392  11.712 -0.6693  0.3234 -0.5078
48574SOL    HW252963   0.083  12.446  11.571  0.3182 -0.3540 -0.7234
48575SOL     OW52964  11.155   0.345   1.747  0.2372 -0.6349 -0.2766
48575SOL    HW152965  11.179   0.436   1.730  1.1697 -0.6055  0.9913
48575SOL    HW252966  11.167   0.335   1.841 -2.7198 -1.2789  0.1105
48576SOL     OW52967  10.666  11.922   1.049  0.0541  0.2374 -0.5963
48576SOL    HW152968  10.585  11.923   0.998 -0.0549  1.6971 -0.4473
48576SOL    HW252969  10.734  11.896   0.987 -0.4359 -0.4452 -0.8573
48577SOL     OW52970   6.558   1.856   3.938 -0.1852 -0.0055 -0.1136
48577SOL    HW152971   6.575   1.769   3.903  0.5472  0.1877 -0.2598
48577SOL    HW252972   6.463   1.860   3.949 -0.1603 -1.1548  0.7697
48578SOL     OW52973   9.272   5.845   9.925  0.4421 -0.1282 -0.6764
48578SOL    HW152974   9.256   5.763   9.877 -0.6935 -0.4188  0.1609
48578SOL    HW252975   9.303   5.817  10.011 -1.1868  0.2381  0.0775
48579SOL     OW52976   6.909   8.594   7.297  0.4753  0.5415  0.7730
48579SOL    HW152977   6.962   8.554   7.229  1.6535  3.3936 -0.1386
48579SOL    HW252978   6.820   8.593   7.262  1.0619  1.9299 -0.8818
48580SOL     OW52979   8.596   2.939   2.025 -0.1811 -0.5341 -0.0305
48580SOL    HW152980   8.521   2.995   2.008  1.1457  1.2639 -0.3597
48580SOL    HW252981   8.615   2.951   2.118  2.5149  2.9828 -0.8071
48581SOL     OW52982   7.775   1.925   5.599  0.1594 -0.0521  0.1151
48581SOL    HW152983   7.829   1.968   5.665  1.0653 -0.2593 -0.4735
48581SOL    HW252984   7.837   1.876   5.545 -0.3770  1.1571 -1.7047
48582SOL     OW52985   0.944   3.570   6.704 -0.4942 -0.2613 -0.6883
48582SOL    HW152986   0.993   3.492   6.732  0.9583  0.7451 -0.3607
48582SOL    HW252987   0.993   3.603   6.629 -0.4336  0.9882 -0.1137
48583SOL     OW52988   1.451   4.242   1.925  0.2758 -0.6114  0.2836
48583SOL    HW152989   1.472   4.150   1.907  2.4646 -0.2723  0.7348
48583SOL    HW252990   1.535   4.287   1.918 -1.0586  1.7701 -2.1008
48584SOL     OW52991  11.803   3.480  10.021 -0.2182 -0.0686  0.1464
48584SOL    HW152992  11.881   3.489  10.075  0.0200  1.2984 -0.3912
48584SOL    HW252993  11.826   3.413   9.956  0.3635  0.0302  0.2463
48585SOL     OW52994   0.233   1.116   2.409 -0.1770 -0.2640  0.1507
48585SOL    HW152995   0.254   1.030   2.444  1.0460 -0.0110  0.0681
48585SOL    HW252996   0.233   1.104   2.314 -0.9906 -0.3848  0.1593
48586SOL     OW52997   5.021   3.130   2.226 -0.2604  0.1297 -0.8227
48586SOL    HW152998   4.964   3.204   2.248 -0.8083 -0.6795  0.6967
48586SOL    HW252999   5.051   3.098   2.311  0.6993 -0.8230 -1.5031
48587SOL     OW53000   9.126   8.053  11.662 -0.5033 -0.3941 -0.2598
48587SOL    HW153001   9.112   8.081  11.571 -0.9004 -0.0677 -0.0993
48587SOL    HW253002   9.067   8.107  11.713  0.8724  0.5510  0.3771
48588SOL     OW53003   8.022   8.228  10.424 -0.1155 -0.3932 -0.3599
48588SOL    HW153004   7.948   8.168  10.417  0.3030 -0.7552 -2.4502
48588SOL    HW253005   8.097   8.171  10.443 -0.1779 -0.1744  0.5523
48589SOL     OW53006   9.056   9.497   4.465 -0.1197 -0.0330  0.1984
48589SOL    HW153007   9.149   9.476   4.459 -0.5074 -1.9365  0.1042
48589SOL    HW253008   9.032   9.526   4.377  0.3969  0.6062  0.2603
48590SOL     OW53009  10.264  11.879   3.565  0.8111 -0.4262 -0.2627
48590SOL    HW153010  10.191  11.880   3.628  0.1630 -1.0637 -0.9847
48590SOL    HW253011  10.342  11.884   3.619  0.2554 -0.7125  0.5849
48591SOL     OW53012  11.340   2.132   4.631 -0.6791 -0.1756  0.1900
48591SOL    HW153013  11.306   2.057   4.679 -0.3014 -0.2055  0.4118
48591SOL    HW253014  11.415   2.098   4.582 -1.2841 -0.2342 -0.7208
48592SOL     OW53015   8.858   7.095  10.343 -0.1616 -0.3175 -0.1879
48592SOL    HW153016   8.934   7.149  10.363  0.0783 -0.7035 -0.0436
48592SOL    HW253017   8.851   7.034  10.417 -0.7259 -0.1643 -0.1066
48593SOL     OW53018   7.185   2.705   2.813 -0.4207  0.0826 -0.4088
48593SOL    HW153019   7.204   2.639   2.746 -1.9464 -1.1819  0.3588
48593SOL    HW253020   7.206   2.663   2.896  1.6532  1.7065 -0.0053
48594SOL     OW53021  10.620   9.621   4.608  0.3596  0.2195  0.0231
48594SOL    HW153022  10.625   9.698   4.665  0.3589 -0.7304  1.3527
48594SOL    HW253023  10.707   9.616   4.568  0.5065  0.6477  0.2791
48595SOL     OW53024   6.845  10.394   6.973  0.2343  0.0826  0.1527
48595SOL    HW153025   6.778  10.341   7.016 -0.4042  1.2455  0.6404
48595SOL    HW253026   6.811  10.484   6.977  1.5470  0.6169 -0.1192
48596SOL     OW53027   0.277  10.774   1.216 -0.1162 -0.7709 -0.2021
48596SOL    HW153028   0.249  10.719   1.289  0.8649 -0.4500  0.4340
48596SOL    HW253029   0.343  10.721   1.170 -1.1439 -1.2111 -1.2320
48597SOL     OW53030   3.237   3.955  12.580  0.4399  0.2106  0.1353
48597SOL    HW153031   3.178   3.942  12.506 -0.5279 -2.7055  1.2705
48597SOL    HW253032   3.218   4.044  12.611 -1.2060  0.4120 -1.3433
48598SOL     OW53033   1.868   1.983   0.167  0.1472  0.1234  0.0663
48598SOL    HW153034   1.860   1.911   0.104  1.1076  0.1077 -0.0585
48598SOL    HW253035   1.854   2.062   0.116 -0.3657  0.0536  0.0951
48599SOL     OW53036   5.774  11.926   0.019  0.1275 -0.0861  0.4843
48599SOL    HW153037   5.767  12.014  -0.017 -1.1751 -0.2748  0.2463
48599SOL    HW253038   5.708  11.875  -0.028  0.4356 -1.0480  1.0565
48600SOL     OW53039   5.299   6.348   5.107 -0.1701 -0.4688  0.9015
48600SOL    HW153040   5.234   6.380   5.044  0.0232  0.4014  1.1367
48600SOL    HW253041   5.361   6.299   5.054 -1.6663 -2.4027  0.8196
48601SOL     OW53042  11.683   9.183   0.202  0.1368 -0.5450 -0.3624
48601SOL    HW153043  11.757   9.244   0.198 -0.3993  0.2734  1.1621
48601SOL    HW253044  11.712   9.106   0.155  2.4047 -0.6932  1.1245
48602SOL     OW53045   7.688   3.565   0.990 -0.4989 -0.2214 -0.0723
48602SOL    HW153046   7.723   3.504   1.054  1.7380  0.3443 -0.6756
48602SOL    HW253047   7.694   3.651   1.032 -1.8732 -0.1584  0.0616
48603SOL     OW53048   5.652   8.388   5.943 -0.0978  0.4730 -0.8012
48603SOL    HW153049   5.712   8.339   5.999  0.6388  2.4052  0.1762
48603SOL    HW253050   5.596   8.321   5.904  1.7595 -1.2556 -0.6373
48604SOL     OW53051   8.262   4.256   7.025  0.6066 -0.6055 -0.3756
48604SOL    HW153052   8.296   4.339   6.993  0.8572 -0.3927  0.4206
48604SOL    HW253053   8.260   4.199   6.948  1.1849 -0.1064 -0.7640
48605SOL     OW53054   6.877   1.472  12.550  0.2015  0.5299 -0.3210
48605SOL    HW153055   6.931   1.546  12.576 -1.3980  2.8721 -3.1424
48605SOL    HW253056   6.792   1.509  12.528 -0.7690 -2.1580 -1.6558
48606SOL     OW53057   1.063   8.216   7.134 -0.1108 -0.4092  0.4181
48606SOL    HW153058   1.062   8.138   7.189 -0.1608 -0.1347  0.8121
48606SOL    HW253059   1.048   8.183   7.045 -1.8314 -0.7068  0.7660
48607SOL     OW53060   7.714  11.914   4.765 -0.2441 -0.3379  0.0716
48607SOL    HW153061   7.717  11.938   4.672  0.7925 -1.0117 -0.0923
48607SOL    HW253062   7.801  11.938   4.799 -0.4731 -0.4641  0.7692
48608SOL     OW53063   0.715   2.773   8.777 -0.9020  0.1088 -0.2158
48608SOL    HW153064   0.665   2.691   8.777  1.9491 -1.7475  0.8322
48608SOL    HW253065   0.743   2.784   8.868  2.1244 -0.0115 -1.0313
48609SOL     OW53066   1.290   7.140   4.568  0.3261 -0.1394 -0.3376
48609SOL    HW153067   1.236   7.062   4.563 -0.6360  0.3221  1.8145
48609SOL    HW253068   1.376   7.109   4.595 -0.3708 -0.4109  1.7516
48610SOL     OW53069   4.384   7.489   2.537 -0.2148 -0.1626 -0.3782
48610SOL    HW153070   4.364   7.473   2.445 -1.8425 -0.3876 -0.0321
48610SOL    HW253071   4.455   7.553   2.536 -0.7550  0.4627 -1.7983
48611SOL     OW53072  10.559   4.878  10.650 -0.0772  0.1478  0.2189
48611SOL    HW153073  10.568   4.878  10.745 -2.4242 -0.3626  0.5167
48611SOL    HW253074  10.619   4.946  10.620 -0.3540  1.3511  2.1988
48612SOL     OW53075   1.894   1.253  11.366 -0.6137 -0.5639  0.1173
48612SOL    HW153076   1.857   1.247  11.454 -1.7072 -0.6577 -0.3450
48612SOL    HW253077   1.839   1.197  11.312  0.4392 -1.0162 -0.5168
48613SOL     OW53078   8.386   0.990   5.658  0.0344  0.0284 -0.1858
48613SOL    HW153079   8.423   0.904   5.674  0.8798  0.2791 -0.7505
48613SOL    HW253080   8.455   1.039   5.614 -0.6206  0.8221 -0.3711
48614SOL     OW53081   4.858   6.443  12.439 -0.1187 -0.2185 -0.1990
48614SOL    HW153082   4.856   6.412  12.529 -0.1507 -0.4525 -0.2794
48614SOL    HW253083   4.766   6.455  12.415 -0.0768  1.1054  0.2245
48615SOL     OW53084   4.195   5.262   6.549 -0.3275 -0.5993  0.2396
48615SOL    HW153085   4.264   5.237   6.609  1.5765 -0.7367 -1.8755
48615SOL    HW253086   4.129   5.193   6.557  0.4017 -1.1906  1.3343
48616SOL     OW53087  11.704   7.494   5.000 -0.5876  0.0204  0.3474
48616SOL    HW153088  11.749   7.482   5.084 -1.2920  0.2330  0.7607
48616SOL    HW253089  11.699   7.589   4.989  1.0134  0.0150 -0.7721
48617SOL     OW53090   9.235   1.411   0.871 -0.4843 -0.0709  0.0401
48617SOL    HW153091   9.220   1.412   0.776  0.9165  2.9089 -0.2637
48617SOL    HW253092   9.329   1.419   0.881 -0.6409  0.0688  1.7063
48618SOL     OW53093   5.124   4.689   8.523  0.2021  0.1979 -0.3028
48618SOL    HW153094   5.072   4.752   8.473 -0.4710 -0.8053 -0.9203
48618SOL    HW253095   5.135   4.615   8.463  2.3759  0.3685 -0.1984
48619SOL     OW53096   2.778   8.972   2.126  0.6740  0.2837  0.0343
48619SOL    HW153097   2.753   9.061   2.153  0.8735 -0.1768  1.8676
48619SOL    HW253098   2.841   8.985   2.055  1.0190  1.6279  0.5539
48620SOL     OW53099   5.392   5.729   8.687 -0.3625  0.4191  0.4449
48620SOL    HW153100   5.328   5.668   8.651 -0.9154  0.5989  1.1000
48620SOL    HW253101   5.347   5.772   8.760  1.1564 -0.9632  2.3174
48621SOL     OW53102   2.709  12.381   3.622  0.4327 -0.0258  0.3578
48621SOL    HW153103   2.738  12.320   3.554  0.6833  0.8214 -0.3238
48621SOL    HW253104   2.683  12.326   3.695 -0.4919 -0.9877 -0.6744
48622SOL     OW53105  10.719   3.041   2.083  0.2524  1.1634  0.4692
48622SOL    HW153106  10.768   2.990   2.019  0.6165  2.9679 -0.7792
48622SOL    HW253107  10.627   3.022   2.063  0.3412 -1.0541  1.8302
48623SOL     OW53108   1.990   6.094   3.972 -0.5612 -0.3171 -0.2727
48623SOL    HW153109   1.980   6.186   3.947 -0.6823 -0.8742 -2.4774
48623SOL    HW253110   1.995   6.047   3.888 -1.8621 -2.4820  0.7933
48624SOL     OW53111  11.704   7.044  12.274  0.1325  0.6426 -0.1241
48624SOL    HW153112  11.787   7.088  12.259 -0.3425  2.4793  2.0902
48624SOL    HW253113  11.642   7.116  12.291 -1.2492 -0.7683  1.0959
48625SOL     OW53114  11.750   3.841   9.677  0.6492 -0.8996  0.3510
48625SOL    HW153115  11.667   3.887   9.685  0.9118 -0.7237  2.5807
48625SOL    HW253116  11.733   3.754   9.712  1.4616 -0.7680  1.1030
48626SOL     OW53117  10.107   4.931   3.877  0.3608 -0.4232 -0.3984
48626SOL    HW153118  10.035   4.873   3.853  0.2875 -0.3214 -0.4245
48626SOL    HW253119  10.068   5.019   3.876 -0.1448 -0.5569  1.9390
48627SOL     OW53120   0.182   6.015  10.452 -0.6976 -0.0735  0.5586
48627SOL    HW153121   0.231   5.976  10.523 -0.4722 -0.7303  0.0532
48627SOL    HW253122   0.138   5.941  10.409  0.8343 -0.0121 -1.2566
48628SOL     OW53123  11.228   5.441   3.486  0.3248  0.5047 -0.1775
48628SOL    HW153124  11.277   5.490   3.552  2.7414 -1.9435  0.0092
48628SOL    HW253125  11.176   5.378   3.536  2.2000 -1.3913 -0.4965
48629SOL     OW53126  10.988   2.554  12.339 -0.4320 -0.2093  0.2329
48629SOL    HW153127  10.927   2.543  12.412 -0.0776 -1.8446  0.3129
48629SOL    HW253128  11.052   2.484  12.351  2.4434  2.3534  1.0648
48630SOL     OW53129  12.494   7.649   7.227 -0.0452 -0.0475  0.2170
48630SOL    HW153130  12.587   7.643   7.204 -0.6619 -2.0526 -2.1017
48630SOL    HW253131  12.494   7.664   7.322  2.6149  0.7846  0.1774
48631SOL     OW53132   0.596   4.574   4.002 -0.2112  0.0991 -0.4177
48631SOL    HW153133   0.665   4.510   4.013 -0.8874 -0.6720 -0.5998
48631SOL    HW253134   0.621   4.647   4.060 -0.7333 -1.4022  1.8479
48632SOL     OW53135   9.223  10.267   7.932 -0.5092 -0.6946  0.1581
48632SOL    HW153136   9.228  10.336   7.866 -1.7177 -1.3028 -0.5885
48632SOL    HW253137   9.191  10.312   8.011 -1.2102 -0.3845 -0.2974
48633SOL     OW53138   0.008   6.723   6.246  0.1041 -0.2987  0.8185
48633SOL    HW153139  -0.033   6.742   6.330  0.4499 -0.3380  0.9979
48633SOL    HW253140  -0.005   6.629   6.232 -0.3818 -0.1997  0.5941
48634SOL     OW53141   7.070   5.070   1.611 -0.1353  0.2570  0.7162
48634SOL    HW153142   7.053   5.010   1.539  0.0099  1.0122  0.0472
48634SOL    HW253143   7.046   5.156   1.578 -1.1384  0.4850  1.9414
48635SOL     OW53144   9.021   6.198   9.479 -0.9320 -0.6386  0.0549
48635SOL    HW153145   8.995   6.197   9.387 -1.0744 -0.6362  0.0944
48635SOL    HW253146   9.033   6.106   9.502 -1.3697 -0.6708  0.1661
48636SOL     OW53147   7.093  11.475   3.671 -0.0480 -0.6769 -0.4341
48636SOL    HW153148   7.178  11.493   3.630 -0.6246 -0.2192 -1.4901
48636SOL    HW253149   7.034  11.538   3.630 -1.4300 -2.6116 -1.6157
48637SOL     OW53150   2.039  10.651  11.681 -0.1157 -0.5930  0.1244
48637SOL    HW153151   2.060  10.645  11.587 -1.0902  1.9942 -0.3280
48637SOL    HW253152   1.944  10.657  11.684 -0.1956 -1.9144  1.4260
48638SOL     OW53153   4.121  11.376   8.434  0.0762 -0.0576  0.0903
48638SOL    HW153154   4.195  11.316   8.434  0.0700 -0.0943  1.4886
48638SOL    HW253155   4.136  11.434   8.509  0.2794  1.9703 -1.4390
48639SOL     OW53156   0.003  10.377   0.064 -0.5754 -0.7154  0.1374
48639SOL    HW153157   0.057  10.316   0.114  0.2509 -0.3721 -0.3029
48639SOL    HW253158   0.016  10.462   0.108  0.6035 -0.3008 -0.9634
48640SOL     OW53159   2.793   2.766   6.104 -0.1652  0.1754  0.2606
48640SOL    HW153160   2.828   2.732   6.022 -1.6059 -0.3893 -0.1510
48640SOL    HW253161   2.868   2.806   6.148  0.3325  2.0475 -2.0844
48641SOL     OW53162   8.497   6.788   0.548 -0.5611 -0.3873  0.3977
48641SOL    HW153163   8.556   6.713   0.538  0.1663  0.0968  0.9249
48641SOL    HW253164   8.420   6.765   0.495  0.3704 -0.7502 -0.8650
48642SOL     OW53165   8.571   0.029   1.097  0.4093 -0.4301 -0.1882
48642SOL    HW153166   8.523   0.105   1.131  1.6042  1.2767 -2.0586
48642SOL    HW253167   8.512  -0.010   1.033  0.0964 -0.6107  0.2076
48643SOL     OW53168   2.817   9.378   3.988 -0.0472 -0.1371 -0.6092
48643SOL    HW153169   2.852   9.292   4.010  1.8227  0.7059 -0.0789
48643SOL    HW253170   2.745   9.391   4.050  1.5262 -0.1378  1.3246
48644SOL     OW53171   5.367   9.496   0.551 -0.3220  0.0633 -0.4042
48644SOL    HW153172   5.366   9.410   0.592 -0.5846 -0.2789 -1.1130
48644SOL    HW253173   5.406   9.554   0.617  0.5520 -0.7379 -0.1947
48645SOL     OW53174   6.650   6.026   0.584  0.3841  0.2401  0.1311
48645SOL    HW153175   6.737   5.992   0.565  0.3458  1.4110 -2.6070
48645SOL    HW253176   6.591   5.974   0.529 -0.1503  1.8619 -0.9036
48646SOL     OW53177   5.073   6.637  10.433 -0.2795  0.1678 -0.4318
48646SOL    HW153178   5.012   6.668  10.366 -0.1632  2.2358  0.3451
48646SOL    HW253179   5.022   6.636  10.514  0.5473  1.4253  0.1326
48647SOL     OW53180  10.591   9.746   1.856 -0.0407  0.1026 -0.5047
48647SOL    HW153181  10.546   9.752   1.940 -3.8771  1.6975 -2.4555
48647SOL    HW253182  10.566   9.660   1.822  1.6609 -0.6222 -0.0285
48648SOL     OW53183   1.761   7.601   4.093 -0.0611  0.3650  0.4288
48648SOL    HW153184   1.678   7.643   4.071  0.5081  1.1789 -0.2341
48648SOL    HW253185   1.738   7.510   4.111 -0.5903 -0.8579 -4.7622
48649SOL     OW53186   9.313   3.488  11.576  0.6235 -0.7262  0.4560
48649SOL    HW153187   9.312   3.526  11.488 -2.2510 -1.1969  0.1734
48649SOL    HW253188   9.364   3.550  11.628 -1.1651  1.8969 -0.6891
48650SOL     OW53189   6.605  12.561  10.851  0.4302 -0.1621  0.2331
48650SOL    HW153190   6.632  12.644  10.890  0.4793  0.2442 -0.6614
48650SOL    HW253191   6.513  12.574  10.827  0.6315 -0.1326 -0.5322
48651SOL     OW53192   7.119  11.905   0.637 -0.1872 -0.1411 -0.6524
48651SOL    HW153193   7.104  11.812   0.654 -1.9579  0.3472  0.6675
48651SOL    HW253194   7.157  11.907   0.549 -0.3143 -2.0901 -0.7924
48652SOL     OW53195   3.374   4.178   5.050 -0.1552  0.4857  0.5068
48652SOL    HW153196   3.377   4.129   5.133  1.4240 -0.8018 -0.2692
48652SOL    HW253197   3.340   4.116   4.986  1.6761  0.4030 -0.4549
48653SOL     OW53198   2.023   8.911   1.851 -0.3433 -0.2288  0.3463
48653SOL    HW153199   2.088   8.905   1.921 -0.4232 -0.5387  0.3958
48653SOL    HW253200   2.049   8.988   1.801  1.0035 -1.2608 -0.5985
48654SOL     OW53201   8.950   3.816  10.947 -0.3645  0.1682  0.3099
48654SOL    HW153202   9.035   3.773  10.948  1.2450  2.9810 -1.2996
48654SOL    HW253203   8.921   3.808  10.856 -0.8343  0.9610  0.3884
48655SOL     OW53204   5.918   0.491  12.591 -0.2033  0.2778  0.1939
48655SOL    HW153205   6.003   0.514  12.628  0.2430 -0.8639 -0.0977
48655SOL    HW253206   5.865   0.571  12.602  1.4331  1.6439 -1.2541
48656SOL     OW53207   2.393   7.475   2.985  0.0743  0.0378  0.4504
48656SOL    HW153208   2.484   7.502   2.996 -0.0359  0.9043 -0.5750
48656SOL    HW253209   2.342   7.555   3.002 -0.2997  0.4269 -2.0448
48657SOL     OW53210   2.827  10.463  11.382  0.0948 -0.0107 -0.0964
48657SOL    HW153211   2.792  10.379  11.351  1.3390 -0.4151 -0.4913
48657SOL    HW253212   2.751  10.511  11.414 -0.9910 -0.3496 -2.0029
48658SOL     OW53213   7.059   5.420   4.073 -0.3258 -0.3802 -0.1631
48658SOL    HW153214   7.019   5.339   4.042 -2.0482  0.1418  0.6053
48658SOL    HW253215   7.147   5.419   4.035 -0.7145 -2.0307 -1.1146
48659SOL     OW53216   9.704   9.691   7.520 -0.0248 -0.3966 -0.0735
48659SOL    HW153217   9.787   9.715   7.478 -0.3465  1.9337  0.4813
48659SOL    HW253218   9.715   9.717   7.612 -1.3521 -0.0647  0.0106
48660SOL     OW53219  11.819   9.633   1.954 -0.3254 -0.1896 -0.0879
48660SOL    HW153220  11.762   9.561   1.980  0.2940 -0.4699  0.5578
48660SOL    HW253221  11.876   9.646   2.030 -0.8652  1.4294  0.0587
48661SOL     OW53222   3.067   0.992  10.397 -0.1731 -0.4835  0.2678
48661SOL    HW153223   3.145   0.994  10.341 -0.9516 -0.6929 -0.8747
48661SOL    HW253224   3.097   0.956  10.480  0.7318 -1.6139 -0.5146
48662SOL     OW53225   2.552  11.373  10.531 -0.1163 -0.0764 -0.2031
48662SOL    HW153226   2.482  11.333  10.479  1.2507 -1.0719 -1.3544
48662SOL    HW253227   2.514  11.455  10.563 -1.5968 -0.2899 -1.2860
48663SOL     OW53228  10.124   2.174  12.635 -0.4870  0.0354  0.1936
48663SOL    HW153229  10.104   2.172  12.729 -0.2742  1.6033  0.2933
48663SOL    HW253230  10.205   2.224  12.629 -0.9112  0.6107 -0.8859
48664SOL     OW53231   5.690   9.336   9.137 -1.2083  0.3349 -0.0177
48664SOL    HW153232   5.715   9.368   9.224 -0.9090 -0.0670  0.0483
48664SOL    HW253233   5.598   9.310   9.146 -0.3664 -2.7530  1.1114
48665SOL     OW53234   2.375   9.643   5.716  0.2672  0.5726  0.3163
48665SOL    HW153235   2.307   9.709   5.728  0.0995  0.8694 -1.8918
48665SOL    HW253236   2.437   9.660   5.787 -1.4513  0.8913  1.8143
48666SOL     OW53237   6.348   0.325  12.437  0.0089  0.2048  0.4803
48666SOL    HW153238   6.377   0.413  12.412  0.9630  0.5898  2.7541
48666SOL    HW253239   6.424   0.270  12.419  0.3806  0.3349  1.5728
48667SOL     OW53240   6.819   7.645   3.804  0.7940  0.0527  0.7663
48667SOL    HW153241   6.870   7.666   3.726  2.2364 -1.7156  1.1580
48667SOL    HW253242   6.881   7.600   3.861 -1.0706 -1.7665  1.4832
48668SOL     OW53243   5.952   0.729  12.300 -0.5843 -0.2135 -0.6079
48668SOL    HW153244   5.860   0.712  12.321 -0.1415 -1.5864  0.3420
48668SOL    HW253245   5.982   0.649  12.259  0.2204  0.1905 -0.8185
48669SOL     OW53246   4.730   5.680   3.700  0.0628  0.7940  0.1403
48669SOL    HW153247   4.778   5.601   3.727  0.4873  1.0945  0.2796
48669SOL    HW253248   4.746   5.687   3.606 -3.2451 -1.5121 -0.7524
48670SOL     OW53249   5.246   6.999   7.518 -0.1285  0.1735 -0.2228
48670SOL    HW153250   5.214   6.984   7.607 -0.8081  0.9366 -0.3260
48670SOL    HW253251   5.332   7.039   7.529  0.6004 -1.4133  0.0668
48671SOL     OW53252   4.126   2.174  10.857 -0.6772 -0.4231  0.2364
48671SOL    HW153253   4.083   2.110  10.801 -2.4515  0.7794  0.1584
48671SOL    HW253254   4.219   2.149  10.855 -1.2014 -2.4755 -0.4205
48672SOL     OW53255   4.536   5.618   3.459  0.0999 -0.0922 -0.2266
48672SOL    HW153256   4.517   5.593   3.368  1.1385  1.0065 -0.7873
48672SOL    HW253257   4.631   5.622   3.463  0.0587  0.1151  0.8501
48673SOL     OW53258   9.427  10.462   4.514 -0.0223 -0.0260  0.4827
48673SOL    HW153259   9.488  10.530   4.542  2.7720 -2.1942  0.0982
48673SOL    HW253260   9.433  10.462   4.419  0.9979 -1.5442  0.5062
48674SOL     OW53261   3.626   0.448  10.427  0.2958 -0.9085  0.3397
48674SOL    HW153262   3.649   0.356  10.438  0.5114 -1.1828 -1.9322
48674SOL    HW253263   3.553   0.447  10.365  0.6547  0.4692 -0.1311
48675SOL     OW53264   4.848   3.169   3.100 -0.1235  0.6307  0.0577
48675SOL    HW153265   4.805   3.237   3.153  0.5610  1.2150 -0.1113
48675SOL    HW253266   4.804   3.088   3.125 -0.4936  1.0376  0.7815
48676SOL     OW53267   7.425   4.130   8.615 -0.0870  0.0168 -0.8299
48676SOL    HW153268   7.479   4.081   8.677 -0.5823 -0.4681 -0.7804
48676SOL    HW253269   7.341   4.085   8.615 -0.6280  1.0033 -0.6141
48677SOL     OW53270   4.445  11.792   0.307  0.7001  0.8377  0.1256
48677SOL    HW153271   4.473  11.703   0.287 -0.2396  0.5181  0.1755
48677SOL    HW253272   4.525  11.844   0.303  1.0018  0.2981 -1.5734
48678SOL     OW53273   6.319   9.888   2.365 -0.6948  0.3428 -0.0552
48678SOL    HW153274   6.262   9.930   2.430  0.1788  1.5018 -0.0019
48678SOL    HW253275   6.374   9.828   2.417  0.0841  1.3547  0.3254
48679SOL     OW53276   4.548   2.869   8.238 -0.5376  0.4773  0.0550
48679SOL    HW153277   4.512   2.958   8.232 -2.5499 -0.2377  0.6898
48679SOL    HW253278   4.521   2.838   8.324 -1.2929 -1.3101 -0.7721
48680SOL     OW53279   9.662   5.532   5.796 -0.5875  0.5479  0.0772
48680SOL    HW153280   9.697   5.499   5.714 -0.0507 -0.7741  0.7908
48680SOL    HW253281   9.610   5.459   5.831 -1.0907  1.2037  0.7427
48681SOL     OW53282   3.193   4.050   4.664  0.1033  0.7835 -0.0213
48681SOL    HW153283   3.219   4.030   4.754 -2.1984 -0.2931  0.4885
48681SOL    HW253284   3.158   4.139   4.668 -0.2482  0.6362  0.2219
48682SOL     OW53285   8.136   2.739  11.543 -0.2625  0.3018  0.5641
48682SOL    HW153286   8.204   2.804  11.561  1.4345 -1.3417  0.3169
48682SOL    HW253287   8.068   2.758  11.608  0.5828  1.7354  1.0932
48683SOL     OW53288   7.797   2.028   4.629 -0.4176 -0.5656 -0.4959
48683SOL    HW153289   7.869   2.039   4.691 -1.1424  0.1704  0.2301
48683SOL    HW253290   7.840   2.002   4.547  0.9817  2.6444 -0.9077
48684SOL     OW53291   4.225  12.209   7.748  0.2097 -0.6985 -0.5280
48684SOL    HW153292   4.135  12.176   7.750  0.6958 -2.0576 -0.5390
48684SOL    HW253293   4.222  12.284   7.688 -0.6484 -1.5399 -1.5584
48685SOL     OW53294  12.465  10.427   8.409 -0.4200 -0.1595 -0.2943
48685SOL    HW153295  12.526  10.482   8.360 -1.7397  0.5833 -1.1642
48685SOL    HW253296  12.450  10.475   8.491  0.4886 -0.5692  0.1231
48686SOL     OW53297   7.528   2.407   3.167  1.0127 -0.1810 -0.4182
48686SOL    HW153298   7.494   2.351   3.098  0.1991  2.9601 -2.7853
48686SOL    HW253299   7.617   2.429   3.139  2.0938 -1.6918  1.5019
48687SOL     OW53300  11.705   6.307  11.834  0.5199  0.4381 -0.4140
48687SOL    HW153301  11.633   6.251  11.805  0.4587  0.7040 -0.7724
48687SOL    HW253302  11.718   6.369  11.763  1.6553 -0.1220 -0.7283
48688SOL     OW53303   0.139   0.853   1.421 -0.3199  0.1986  0.0891
48688SOL    HW153304   0.201   0.780   1.422 -0.2479  0.2620  0.2867
48688SOL    HW253305   0.171   0.911   1.352  0.4418  0.7448  0.8700
48689SOL     OW53306   7.895   8.530   6.933 -0.0447  0.1210 -0.3330
48689SOL    HW153307   7.977   8.571   6.907  0.1436  0.5379  0.8634
48689SOL    HW253308   7.887   8.453   6.876 -0.8396  2.1812 -3.2486
48690SOL     OW53309   0.060  11.574  10.397  0.0453  0.5563 -0.3827
48690SOL    HW153310  -0.015  11.608  10.445  0.9259  1.3870  0.4295
48690SOL    HW253311   0.022  11.532  10.320 -1.5080 -1.8531  1.5563
48691SOL     OW53312   6.450   7.706   9.411 -1.1382  0.6625  0.0851
48691SOL    HW153313   6.448   7.796   9.443  1.0584  0.1881  1.8227
48691SOL    HW253314   6.392   7.658   9.470 -0.7531  0.5949  0.4087
48692SOL     OW53315  12.171   2.768   0.735  1.2041  0.5399 -0.4863
48692SOL    HW153316  12.164   2.778   0.830 -1.3846 -1.3390 -0.3921
48692SOL    HW253317  12.180   2.858   0.703  0.6720  1.3388  1.4381
48693SOL     OW53318   9.404   0.139   7.937 -0.3106 -0.3989 -0.4195
48693SOL    HW153319   9.415   0.119   8.030 -0.2534 -0.2740 -0.3990
48693SOL    HW253320   9.412   0.234   7.932 -1.2986 -0.3045 -0.4141
48694SOL     OW53321  12.133   5.517   4.628  0.2399  0.4255  0.6787
48694SOL    HW153322  12.145   5.583   4.559  0.4224  0.3754  0.6606
48694SOL    HW253323  12.194   5.447   4.605 -0.3111  0.0272  0.4322
48695SOL     OW53324   0.300   2.805   9.497 -0.2715 -0.0921 -0.0795
48695SOL    HW153325   0.379   2.856   9.510 -1.0214  1.8301 -2.4839
48695SOL    HW253326   0.232   2.854   9.543 -0.5681 -0.2675 -0.3274
48696SOL     OW53327   2.782   5.639   7.307  0.0078 -0.0342 -1.0050
48696SOL    HW153328   2.713   5.704   7.321 -0.0900 -0.1937 -0.7317
48696SOL    HW253329   2.800   5.644   7.213 -1.5067 -1.0951 -1.3992
48697SOL     OW53330   7.529  10.466   9.404 -0.0553  0.0219 -0.1792
48697SOL    HW153331   7.581  10.537   9.367  0.1756  0.1835  0.4453
48697SOL    HW253332   7.590  10.393   9.411  0.0843  0.1996  0.5181
48698SOL     OW53333   2.349   5.861  11.938 -0.3848 -0.3261  0.2921
48698SOL    HW153334   2.431   5.887  11.980  0.4399  0.2182 -1.5435
48698SOL    HW253335   2.342   5.917  11.861 -1.0197 -2.2741 -1.1564
48699SOL     OW53336   2.611   2.872  10.550 -0.3354 -0.2325 -0.1065
48699SOL    HW153337   2.556   2.912  10.617 -0.5504 -0.8751  0.1076
48699SOL    HW253338   2.699   2.872  10.587  0.0172  1.6770 -0.8304
48700SOL     OW53339   7.318   1.681  11.821  0.0171  0.3275 -0.4005
48700SOL    HW153340   7.240   1.737  11.820  0.0232  0.3430 -0.0918
48700SOL    HW253341   7.380   1.729  11.876 -0.1330 -0.1906  0.2350
48701SOL     OW53342  10.860   1.144  10.941 -0.0189  0.1711 -0.6129
48701SOL    HW153343  10.823   1.228  10.913 -1.8262 -0.3226  0.1535
48701SOL    HW253344  10.831   1.082  10.875  1.7603  0.1982 -1.4691
48702SOL     OW53345   7.758   6.863   3.596  0.5974 -0.3330 -0.1408
48702SOL    HW153346   7.679   6.915   3.610  1.1880  0.4070  0.5388
48702SOL    HW253347   7.768   6.859   3.501  0.9689  1.4813 -0.2203
48703SOL     OW53348   9.987  10.916   1.177 -0.3527 -0.4179 -0.2078
48703SOL    HW153349   9.892  10.912   1.188 -0.4191 -0.1763 -0.6994
48703SOL    HW253350  10.002  10.990   1.118  0.0963 -0.8580 -0.6539
48704SOL     OW53351   5.785   5.203   4.863  0.4932  0.2837 -0.2187
48704SOL    HW153352   5.761   5.168   4.949  1.3165 -3.0324 -1.1799
48704SOL    HW253353   5.710   5.184   4.807  0.9228  0.1382 -0.7605
48705SOL     OW53354   9.430   0.873   6.824  0.2607 -0.3314  0.5120
48705SOL    HW153355   9.482   0.889   6.745  0.3918  2.3005  1.0320
48705SOL    HW253356   9.495   0.870   6.894 -0.1074  1.8633  1.0258
48706SOL     OW53357  12.026   6.220   3.481  0.0849 -0.1253 -0.1044
48706SOL    HW153358  12.080   6.140   3.477  2.0582  1.1658 -2.9725
48706SOL    HW253359  12.083   6.285   3.523 -0.2821  0.5466 -0.6312
48707SOL     OW53360   1.123  11.394   6.125 -0.3128  0.1592 -0.4342
48707SOL    HW153361   1.145  11.367   6.214  0.8302 -2.3311 -1.3755
48707SOL    HW253362   1.028  11.402   6.125 -0.2322  1.7536  1.3653
48708SOL     OW53363   0.859   7.894   3.524 -0.2153  0.1203  0.0387
48708SOL    HW153364   0.909   7.914   3.603 -0.0552 -1.7360  0.4630
48708SOL    HW253365   0.924   7.881   3.456 -0.1993 -0.6393  0.1900
48709SOL     OW53366   3.423   9.724  10.349 -0.0857  0.3110 -0.3129
48709SOL    HW153367   3.331   9.731  10.324 -0.0096 -0.3921 -0.8117
48709SOL    HW253368   3.451   9.639  10.315  0.3020 -0.2349  1.2809
48710SOL     OW53369   7.337   5.040   6.885  0.4943  0.7618  0.6733
48710SOL    HW153370   7.404   4.998   6.831 -0.5412  0.2307 -0.2336
48710SOL    HW253371   7.347   5.134   6.867  2.2016  0.8691  1.9927
48711SOL     OW53372   7.295  11.734   2.342  0.1665  0.0847  0.6609
48711SOL    HW153373   7.290  11.675   2.418  2.2443 -0.9404  0.0919
48711SOL    HW253374   7.376  11.783   2.355  1.7013 -1.5318 -1.7482
48712SOL     OW53375   6.703   8.048  12.166 -0.5257  0.1327  0.2585
48712SOL    HW153376   6.689   8.104  12.090 -0.8729 -0.1801  0.0851
48712SOL    HW253377   6.650   8.087  12.235 -0.3464  0.3199  0.2895
48713SOL     OW53378   5.054   5.133   0.552 -0.2384  0.3087  0.6737
48713SOL    HW153379   5.019   5.045   0.540 -1.6082  1.0858 -1.5998
48713SOL    HW253380   5.074   5.138   0.645 -1.9370 -1.7316  1.2238
48714SOL     OW53381   1.822   0.489   5.031 -0.5264 -0.4743  0.4305
48714SOL    HW153382   1.839   0.512   4.940 -0.4643 -3.5530 -0.4398
48714SOL    HW253383   1.885   0.541   5.082  0.0466  0.6262 -1.3196
48715SOL     OW53384  12.319   7.553   7.515 -0.0258  0.4992 -0.5392
48715SOL    HW153385  12.321   7.475   7.460  1.7185 -0.5416  0.9174
48715SOL    HW253386  12.406   7.592   7.505 -0.2991  1.3046  0.0968
48716SOL     OW53387   4.172   2.477   1.243  0.3347  0.2889 -0.1308
48716SOL    HW153388   4.103   2.426   1.285  1.8889 -1.9422 -0.0874
48716SOL    HW253389   4.155   2.567   1.270 -1.3497 -0.4491  1.5466
48717SOL     OW53390   0.414   5.760   0.466  0.2756  0.8372 -0.4950
48717SOL    HW153391   0.336   5.742   0.519  0.7424  0.9013  0.2140
48717SOL    HW253392   0.411   5.855   0.451  0.9156  1.0485  0.6450
48718SOL     OW53393   2.401  12.410   6.127  0.3620  0.0147 -0.2862
48718SOL    HW153394   2.405  12.497   6.085  1.6458  0.2852  0.3319
48718SOL    HW253395   2.439  12.351   6.062 -0.4942 -0.0988 -0.7000
48719SOL     OW53396   0.009   8.514   9.386  0.3153  0.0222 -0.7910
48719SOL    HW153397  -0.073   8.556   9.415 -1.1075 -2.9800 -0.1286
48719SOL    HW253398  -0.007   8.493   9.294  1.1090  1.0290 -1.1805
48720SOL     OW53399   8.270  11.209   9.988 -0.1823 -0.1636 -0.0614
48720SOL    HW153400   8.221  11.273   9.936  2.1897  0.3453 -1.8080
48720SOL    HW253401   8.280  11.133   9.931  1.5329 -0.0274  0.0023
48721SOL     OW53402  11.784   8.765   7.794 -0.2757  0.3181 -0.3832
48721SOL    HW153403  11.846   8.709   7.840  0.0592 -0.4546 -1.7157
48721SOL    HW253404  11.764   8.835   7.856 -0.6334 -1.1883  1.3113
48722SOL     OW53405   1.210  11.027   8.650  0.3529 -0.3509  0.0685
48722SOL    HW153406   1.297  11.023   8.691  0.7376 -2.2766 -0.8035
48722SOL    HW253407   1.176  10.938   8.658 -0.5197 -0.2248 -1.7224
48723SOL     OW53408   0.007  11.367  11.066  0.5667 -0.1664  0.6142
48723SOL    HW153409   0.016  11.272  11.061 -1.2638 -0.4084  1.0149
48723SOL    HW253410   0.092  11.398  11.097  0.7384 -1.8231  1.9424
48724SOL     OW53411   2.059   7.822   4.984 -0.6320  0.3815 -0.1121
48724SOL    HW153412   2.136   7.790   5.031 -0.1647 -0.9877 -1.7169
48724SOL    HW253413   2.069   7.788   4.895 -2.5583  1.0785 -0.6474
48725SOL     OW53414   8.472  11.603   4.815 -1.1294  0.5026 -0.2146
48725SOL    HW153415   8.508  11.688   4.787 -2.7361  0.8339 -1.4549
48725SOL    HW253416   8.523  11.580   4.893  1.8372  0.8174 -1.9035
48726SOL     OW53417   3.825   6.697   6.395  0.5098 -0.7758 -0.0808
48726SOL    HW153418   3.756   6.759   6.373  1.3780 -0.6144 -2.7004
48726SOL    HW253419   3.859   6.727   6.479 -1.9563 -0.3307  0.8356
48727SOL     OW53420   8.527  11.245   4.131 -0.6066  0.4155  0.2152
48727SOL    HW153421   8.606  11.197   4.155 -0.5223 -0.0547 -0.9694
48727SOL    HW253422   8.461  11.213   4.192 -0.1778 -0.0823  0.4245
48728SOL     OW53423   3.547  10.120   5.594  0.4732  0.2164 -0.4295
48728SOL    HW153424   3.452  10.119   5.588  0.4221 -1.0564  0.2679
48728SOL    HW253425   3.567  10.071   5.674  1.7429 -0.7784 -1.3042
48729SOL     OW53426   1.727   2.961  11.036 -0.1833 -0.0354 -0.5544
48729SOL    HW153427   1.775   3.043  11.026  0.9795 -0.7856 -1.3685
48729SOL    HW253428   1.640   2.979  10.998 -0.2192  1.0273 -0.0108
48730SOL     OW53429  10.572  11.688   3.761 -0.5067  0.1392 -0.4663
48730SOL    HW153430  10.523  11.663   3.840  0.5055  0.6005  0.3311
48730SOL    HW253431  10.533  11.635   3.692 -1.3920 -0.3160  0.3470
48731SOL     OW53432  12.179   1.452   1.024 -0.2838  0.1973  0.2407
48731SOL    HW153433  12.092   1.414   1.022  0.7475 -2.3385 -0.4801
48731SOL    HW253434  12.198   1.474   0.933 -0.3202  1.1271  0.4536
48732SOL     OW53435  10.328   3.417  11.115  0.1307  0.0571  0.2407
48732SOL    HW153436  10.321   3.384  11.025 -0.0233 -1.3074  0.7322
48732SOL    HW253437  10.238   3.431  11.143  0.1621  0.0969  0.3206
48733SOL     OW53438  12.451  11.364   5.413  0.1643  0.4437 -0.5581
48733SOL    HW153439  12.385  11.369   5.482  0.9862  1.9080  0.1808
48733SOL    HW253440  12.401  11.374   5.332 -0.5616  1.5520 -0.0106
48734SOL     OW53441   1.157   7.803  12.702  0.5322 -0.6991 -0.2115
48734SOL    HW153442   1.103   7.725  12.688 -1.0251  0.3227 -0.1441
48734SOL    HW253443   1.094   7.875  12.704  1.8150  0.4276  1.0048
48735SOL     OW53444   2.072   6.446   3.384  0.1323  0.1075  0.1957
48735SOL    HW153445   2.157   6.431   3.343 -0.0172  0.0192 -0.0837
48735SOL    HW253446   2.009   6.440   3.312 -0.1450 -0.1717  0.4600
48736SOL     OW53447   3.147   7.692   4.631 -0.7031  0.1795  0.2434
48736SOL    HW153448   3.208   7.746   4.582 -0.5550  0.2115  0.4631
48736SOL    HW253449   3.174   7.701   4.722 -1.8555  1.2733  0.5142
48737SOL     OW53450   3.654  10.264   4.690  0.0629 -0.3376  0.3605
48737SOL    HW153451   3.590  10.320   4.733 -1.1239 -1.0356 -0.4314
48737SOL    HW253452   3.664  10.189   4.749  0.1573 -0.2128  0.4991
48738SOL     OW53453   1.462  11.071  12.228  0.1072  0.5675 -0.0644
48738SOL    HW153454   1.489  10.982  12.205  1.8932  1.5516 -2.2397
48738SOL    HW253455   1.369  11.075  12.205  0.0796 -0.6573 -0.2046
48739SOL     OW53456   9.746   0.887   4.033 -0.2386  0.4038 -0.0401
48739SOL    HW153457   9.762   0.962   4.092  0.0901 -0.0834  0.5020
48739SOL    HW253458   9.659   0.856   4.057 -0.4785  0.7560 -0.4343
48740SOL     OW53459   6.391   4.716   6.824 -0.1872  0.3014  0.4223
48740SOL    HW153460   6.449   4.783   6.859 -1.9400  2.3507 -0.3325
48740SOL    HW253461   6.305   4.737   6.861 -1.0626 -0.6371 -0.9686
48741SOL     OW53462   9.276   4.624   5.627 -0.1187 -0.2835  0.4865
48741SOL    HW153463   9.362   4.617   5.586 -1.2352 -1.4116 -1.8371
48741SOL    HW253464   9.256   4.717   5.626  0.5349 -0.1408 -0.1654
48742SOL     OW53465   9.114   9.323   1.590 -0.1807  0.4382 -0.1427
48742SOL    HW153466   9.202   9.293   1.568 -0.5815  0.1424 -1.4264
48742SOL    HW253467   9.127   9.384   1.663  0.9774 -0.3335  0.3223
48743SOL     OW53468   8.192   2.427   6.172 -0.3042  0.3730  0.1142
48743SOL    HW153469   8.266   2.445   6.115 -1.7901 -0.3248 -2.1544
48743SOL    HW253470   8.232   2.402   6.256  2.0644 -1.0702 -1.3280
48744SOL     OW53471   7.825  11.141  10.625 -0.0959 -0.2056  0.0718
48744SOL    HW153472   7.782  11.220  10.591  1.3916  0.1395 -1.1351
48744SOL    HW253473   7.819  11.078  10.553  0.7230 -0.3950  0.1633
48745SOL     OW53474   6.672   8.270  11.606 -0.4274 -0.2527 -0.0614
48745SOL    HW153475   6.646   8.331  11.675  2.0752  1.1091 -0.2079
48745SOL    HW253476   6.644   8.313  11.525  1.2743  0.7855 -0.1604
48746SOL     OW53477   2.319   4.688   0.051 -0.4652  0.3444 -0.1616
48746SOL    HW153478   2.412   4.708   0.055 -0.3325 -0.3760  0.5136
48746SOL    HW253479   2.308   4.639  -0.031 -0.0461 -0.5578  0.3129
48747SOL     OW53480  12.402   7.258   3.542  0.3977  0.2842  0.1246
48747SOL    HW153481  12.337   7.326   3.565 -1.2229 -1.1830  0.1005
48747SOL    HW253482  12.456   7.299   3.474 -0.1562  1.7438  0.5149
48748SOL     OW53483  11.954   0.745  11.626  0.1559  0.0545  0.6101
48748SOL    HW153484  11.927   0.718  11.538  1.4709 -0.0053  0.1969
48748SOL    HW253485  11.952   0.840  11.623  0.0039  0.0508  0.5801
48749SOL     OW53486   5.499   4.130   1.143  0.3414  0.0846 -0.1408
48749SOL    HW153487   5.558   4.145   1.070  1.8534  1.2802  1.2407
48749SOL    HW253488   5.543   4.062   1.195  0.3785  0.7613  0.7350
48750SOL     OW53489   1.975  10.172   7.078  0.6001  0.0228  0.6095
48750SOL    HW153490   1.977  10.249   7.022  1.2134  0.3719  1.0926
48750SOL    HW253491   1.912  10.194   7.147  0.8845  0.1664  0.8309
48751SOL     OW53492   6.036   4.946   1.772  0.3743  0.0366 -0.0988
48751SOL    HW153493   6.055   5.035   1.745 -2.6832  0.5650 -0.9025
48751SOL    HW253494   5.941   4.937   1.759  0.5126 -3.1873  0.3722
48752SOL     OW53495   3.058   7.609   3.231 -0.0069 -0.1854  0.3849
48752SOL    HW153496   3.148   7.576   3.234 -0.3763 -1.5384 -1.5594
48752SOL    HW253497   3.004   7.535   3.260 -0.5836  0.1471  0.1845
48753SOL     OW53498   1.374   2.448   7.679  0.3851  0.1591  0.6869
48753SOL    HW153499   1.380   2.416   7.769  0.8607 -0.3333  0.4909
48753SOL    HW253500   1.349   2.371   7.628  1.2021  0.1714  0.2528
48754SOL     OW53501   6.152  10.677  10.954  0.1672 -0.9096 -1.0543
48754SOL    HW153502   6.176  10.752  11.009 -0.3497 -1.1625 -0.4722
48754SOL    HW253503   6.229  10.621  10.956  0.6595 -0.2902 -1.7057
48755SOL     OW53504   9.845  11.924   0.863  0.2792  0.3871  0.3759
48755SOL    HW153505   9.884  11.904   0.949 -0.6064  2.1861  1.2521
48755SOL    HW253506   9.753  11.904   0.873  0.1275  0.8284 -0.0650
48756SOL     OW53507   8.713  12.637   5.854  0.2581 -0.5277 -0.0889
48756SOL    HW153508   8.751  12.722   5.831 -0.2745 -0.4621 -0.7762
48756SOL    HW253509   8.686  12.599   5.770 -0.4280 -0.9300  0.2987
48757SOL     OW53510  12.665   8.663   9.101  0.3572  0.3498  0.2502
48757SOL    HW153511  12.714   8.738   9.135  0.0061  1.5535 -1.7865
48757SOL    HW253512  12.606   8.700   9.036 -2.2977 -1.2475  1.5869
48758SOL     OW53513  11.063   2.373   1.162 -0.6362  0.2721 -0.1364
48758SOL    HW153514  11.090   2.417   1.082  0.8777 -0.6220 -0.1569
48758SOL    HW253515  11.080   2.280   1.145 -0.3781  0.0564  1.1707
48759SOL     OW53516   9.733   8.595   8.045 -0.1945  0.5925  0.2025
48759SOL    HW153517   9.821   8.570   8.070  0.6462  2.1116 -1.0581
48759SOL    HW253518   9.679   8.519   8.068  1.7878 -1.3363 -1.0853
48760SOL     OW53519   9.392   3.199   3.336 -0.1024  0.2801  0.1507
48760SOL    HW153520   9.417   3.171   3.248  0.2600  0.5945  0.1506
48760SOL    HW253521   9.408   3.293   3.337 -2.2629  0.7069 -0.1683
48761SOL     OW53522   7.641   9.318  12.517  0.2929  0.2674  0.3793
48761SOL    HW153523   7.571   9.285  12.574  0.5683  0.4464  0.8347
48761SOL    HW253524   7.597   9.343  12.436  0.0169 -0.7916  0.1934
48762SOL     OW53525   0.078   7.570   9.973  0.5667 -0.1129 -0.2562
48762SOL    HW153526  -0.009   7.532   9.981  0.2937  0.6883  0.9141
48762SOL    HW253527   0.088   7.589   9.880 -1.3630  1.6644 -0.1671
48763SOL     OW53528   9.503   8.488   7.148 -0.4226 -0.4332  0.0998
48763SOL    HW153529   9.461   8.568   7.178  1.0809  0.6575 -0.5509
48763SOL    HW253530   9.474   8.420   7.208 -2.6224  0.3613 -0.0090
48764SOL     OW53531   1.479   9.818   6.812 -0.0960 -0.2916  0.1545
48764SOL    HW153532   1.438   9.864   6.885  1.7011  2.6247 -0.5056
48764SOL    HW253533   1.573   9.826   6.829  0.3106 -1.5329 -1.3364
48765SOL     OW53534   6.896   7.044  11.055  0.8649  0.1553  0.4008
48765SOL    HW153535   6.909   6.995  11.136  0.8215  0.4119  0.5631
48765SOL    HW253536   6.983   7.077  11.033  1.3647 -1.8398 -0.9131
48766SOL     OW53537   2.942   9.964   1.245  0.0599  0.0916  0.5615
48766SOL    HW153538   2.994   9.998   1.317  2.3073  0.7398 -1.2191
48766SOL    HW253539   2.955   9.869   1.249  1.0669  0.2072  0.4350
48767SOL     OW53540  11.078   1.810  11.370 -0.1712  0.0534 -0.7209
48767SOL    HW153541  11.064   1.715  11.380  1.6308 -0.0920  0.9669
48767SOL    HW253542  11.023   1.850  11.437  2.1001 -0.1219  1.3836
48768SOL     OW53543   1.254   5.854   9.938  0.2730  0.1026 -0.3717
48768SOL    HW153544   1.240   5.816  10.025  4.1747  2.0756  1.3934
48768SOL    HW253545   1.172   5.900   9.918 -0.6648 -0.1540  2.4247
48769SOL     OW53546   2.083   3.752  12.261 -0.2160 -0.5328 -0.2284
48769SOL    HW153547   2.112   3.661  12.271  0.0183 -0.2865  1.7432
48769SOL    HW253548   2.023   3.766  12.334 -1.9521  0.2956 -1.7347
48770SOL     OW53549   8.963  12.380   1.450  0.3210  0.1121  0.2264
48770SOL    HW153550   8.926  12.413   1.533  0.1723  0.5170  0.0048
48770SOL    HW253551   8.998  12.458   1.408  1.3512 -0.2600  0.3858
48771SOL     OW53552   0.192   8.247  10.498 -0.1017  0.0404  0.2149
48771SOL    HW153553   0.241   8.329  10.506  0.5239 -0.4093  1.1919
48771SOL    HW253554   0.110   8.264  10.544  0.5571 -0.2726  1.5398
48772SOL     OW53555  10.597   2.944   4.876  0.3320 -0.7028  0.0067
48772SOL    HW153556  10.551   2.870   4.916  0.9162  0.1843  2.5280
48772SOL    HW253557  10.670   2.962   4.935  0.5417  1.5188 -0.8216
48773SOL     OW53558   7.241   3.695   8.123  0.1224  0.1160  0.2370
48773SOL    HW153559   7.279   3.770   8.079 -1.3004 -0.1369 -1.5352
48773SOL    HW253560   7.157   3.681   8.079 -1.6115  0.0394  3.2822
48774SOL     OW53561   3.080   1.997  12.698  0.8352 -0.0691  0.0884
48774SOL    HW153562   3.163   1.952  12.715  1.4038  0.9550  0.0634
48774SOL    HW253563   3.091   2.083  12.738 -1.1399 -0.7471  2.3646
48775SOL     OW53564   4.276  11.500   5.854  0.1334  0.0481  0.3859
48775SOL    HW153565   4.276  11.404   5.854  1.1137  0.0353  0.5796
48775SOL    HW253566   4.359  11.524   5.813 -1.1349  0.8603 -1.9107
48776SOL     OW53567   3.353   2.856   3.323  0.6742 -0.2173 -0.5384
48776SOL    HW153568   3.370   2.949   3.310  1.5983  0.0023  1.7428
48776SOL    HW253569   3.339   2.847   3.418  0.1849 -2.3410 -0.7513
48777SOL     OW53570   1.683   2.597   9.713  0.0269 -0.3900 -0.0413
48777SOL    HW153571   1.710   2.505   9.710 -0.7453 -0.6341  0.3618
48777SOL    HW253572   1.633   2.604   9.794  0.8180  0.5890  0.3772
48778SOL     OW53573   3.349   2.365   2.378 -0.2148  0.0130 -0.4670
48778SOL    HW153574   3.286   2.312   2.329 -0.5870  0.5447 -0.5725
48778SOL    HW253575   3.434   2.324   2.360 -0.7548 -2.4501  1.9099
48779SOL     OW53576   9.244   6.638   2.245 -0.1898 -0.4912 -0.3356
48779SOL    HW153577   9.307   6.591   2.300 -0.1163 -0.8130 -0.6893
48779SOL    HW253578   9.159   6.620   2.285  0.0122  0.7970  0.7635
48780SOL     OW53579   7.653   2.157   3.188 -0.2128  0.2455  0.7057
48780SOL    HW153580   7.744   2.178   3.210 -0.0067 -0.7442  0.8289
48780SOL    HW253581   7.648   2.173   3.093  0.2898 -0.3860  0.5668
48781SOL     OW53582   1.259   4.851   0.376  0.7195 -0.1895 -0.1175
48781SOL    HW153583   1.325   4.851   0.307  0.2531 -0.3534 -0.5806
48781SOL    HW253584   1.180   4.816   0.333  0.9801 -2.3593  1.0282
48782SOL     OW53585   1.052   2.514   6.058 -0.4393  0.0174  0.2970
48782SOL    HW153586   1.045   2.450   5.988 -0.2579 -1.8581  1.9216
48782SOL    HW253587   1.130   2.489   6.106  0.0513  1.9162  0.5879
48783SOL     OW53588  11.591  11.812   0.551 -0.2687  0.1639  0.5226
48783SOL    HW153589  11.545  11.739   0.510 -0.5046  0.9235 -0.5996
48783SOL    HW253590  11.643  11.772   0.620 -0.7181 -1.0098  0.1984
48784SOL     OW53591   8.006   7.285  12.296  0.0635  0.5859 -0.5288
48784SOL    HW153592   7.984   7.338  12.373  2.4091  2.1221 -0.8025
48784SOL    HW253593   8.095   7.255  12.312 -0.4327 -1.5316 -1.3988
48785SOL     OW53594   6.979   4.919  10.443 -0.2999 -0.1137  0.7044
48785SOL    HW153595   6.920   4.979  10.399  1.5840  1.7629  0.5368
48785SOL    HW253596   7.000   4.852  10.378 -0.6386  0.3805  0.0805
48786SOL     OW53597   3.598   0.611  11.800  0.4650 -0.3377  0.4192
48786SOL    HW153598   3.610   0.622  11.706  0.4762 -0.7928  0.3663
48786SOL    HW253599   3.511   0.646  11.817  0.1430 -0.9728  0.1114
48787SOL     OW53600   1.970   1.588   0.071  0.2698  0.3372 -0.4776
48787SOL    HW153601   2.057   1.593   0.110 -0.0156 -0.1097  0.2360
48787SOL    HW253602   1.975   1.516   0.008 -0.3162 -1.5281  1.5256
48788SOL     OW53603   9.047   9.269   1.961  0.3257  0.1647  0.1218
48788SOL    HW153604   9.041   9.176   1.941 -1.6792 -0.0246  1.3058
48788SOL    HW253605   8.998   9.312   1.891  0.2295  0.2123  0.2172
48789SOL     OW53606   3.035  12.276   3.856 -0.2548 -0.2451  0.1146
48789SOL    HW153607   2.972  12.278   3.928 -0.9486 -0.2481 -0.4887
48789SOL    HW253608   3.002  12.210   3.796  0.6628 -0.6931  0.0794
48790SOL     OW53609  10.806   2.958   3.566 -0.2875 -0.0260 -0.0622
48790SOL    HW153610  10.733   2.906   3.530 -0.7349  0.3187  0.3288
48790SOL    HW253611  10.774   3.048   3.564  0.3765  0.2037 -0.4638
48791SOL     OW53612   3.951   1.190  10.545 -0.3600 -0.3429  0.0739
48791SOL    HW153613   4.030   1.155  10.505  0.6212  0.0393  1.6073
48791SOL    HW253614   3.960   1.285  10.538 -0.4623 -0.2866  0.6230
48792SOL     OW53615   9.261   4.871   0.836  0.1622 -0.2102  0.5660
48792SOL    HW153616   9.249   4.930   0.911 -0.6691  0.1305  0.1751
48792SOL    HW253617   9.329   4.914   0.783  1.2064 -0.7690  1.4230
48793SOL     OW53618   9.243   8.389   7.750  0.1997  0.1563 -0.0524
48793SOL    HW153619   9.339   8.395   7.755  0.2884  0.4131 -1.6014
48793SOL    HW253620   9.220   8.324   7.816  1.4577  0.0034  0.2682
48794SOL     OW53621  12.135  10.604   6.060 -0.4402  0.0115  0.0255
48794SOL    HW153622  12.135  10.576   6.152  1.4483 -0.5437 -0.0921
48794SOL    HW253623  12.081  10.539   6.016 -1.3415  0.2636  0.7150
48795SOL     OW53624  10.612   5.470   9.527 -0.5173  0.0652  0.3849
48795SOL    HW153625  10.601   5.469   9.622  0.2501  0.7971  0.4986
48795SOL    HW253626  10.540   5.523   9.494  0.1402  1.2101  0.7248
48796SOL     OW53627   6.885   7.897   4.953  0.4364  0.1478 -0.1119
48796SOL    HW153628   6.827   7.972   4.971  1.3040  0.7768  0.1269
48796SOL    HW253629   6.933   7.923   4.875  1.8994  0.5542  0.8833
48797SOL     OW53630   4.699   9.541   7.308  0.1960 -0.5339  0.9610
48797SOL    HW153631   4.623   9.593   7.283 -0.0817 -1.3861 -0.0647
48797SOL    HW253632   4.688   9.458   7.261  3.5231  0.5460 -2.2279
48798SOL     OW53633   0.220  12.539   9.377 -0.6128 -0.2047  0.3403
48798SOL    HW153634   0.143  12.499   9.337  0.0685 -0.4726 -0.7608
48798SOL    HW253635   0.232  12.492   9.459 -2.5505  0.9261  1.3648
48799SOL     OW53636  10.035  12.537   0.878  0.5923 -0.2155  0.0717
48799SOL    HW153637  10.081  12.547   0.794  0.8189 -0.2623  0.1892
48799SOL    HW253638  10.059  12.450   0.909  0.3673 -0.2682  0.1009
48800SOL     OW53639  11.953  10.494   9.664  0.7472 -0.3603  0.5567
48800SOL    HW153640  11.861  10.522   9.668  1.0044  0.9026 -1.0432
48800SOL    HW253641  11.994  10.535   9.740 -0.1398 -1.6224  1.7681
48801SOL     OW53642   8.624   8.000  12.138 -0.0156  0.4420  0.3590
48801SOL    HW153643   8.591   8.008  12.227  0.5443  0.2452  0.5855
48801SOL    HW253644   8.587   7.917  12.106 -0.1357  0.4647  0.4377
48802SOL     OW53645   7.921   5.494   3.335 -0.2619 -0.3145 -0.2677
48802SOL    HW153646   7.931   5.468   3.427 -1.9510 -1.2135 -0.2842
48802SOL    HW253647   8.004   5.470   3.294  0.5500  0.1839  1.0341
48803SOL     OW53648   3.166   2.949   8.389 -0.2323  0.2861 -0.1648
48803SOL    HW153649   3.147   2.980   8.300  0.2056  0.1593 -0.3077
48803SOL    HW253650   3.235   3.007   8.421 -0.4125  0.3525  0.1061
48804SOL     OW53651   3.275   6.422   8.874  0.1111  0.4627 -0.0735
48804SOL    HW153652   3.287   6.420   8.779 -0.3662 -0.8994 -0.1163
48804SOL    HW253653   3.341   6.362   8.908  0.2288  0.8829  0.4625
48805SOL     OW53654   2.708   8.274   5.142 -0.1239  0.1054  0.4459
48805SOL    HW153655   2.701   8.184   5.112 -0.4374 -0.0631  1.0113
48805SOL    HW253656   2.637   8.321   5.098  1.5189  0.6551 -1.8193
48806SOL     OW53657   6.348   3.307   6.657  0.4131  0.3837 -0.0579
48806SOL    HW153658   6.313   3.396   6.651 -0.8647 -0.0304  0.8108
48806SOL    HW253659   6.389   3.291   6.572  0.6974  1.8014 -0.2094
48807SOL     OW53660   3.461  12.381   9.163 -0.0195  0.4332  0.5127
48807SOL    HW153661   3.549  12.394   9.201  1.3121 -2.0582 -1.3996
48807SOL    HW253662   3.454  12.449   9.097  0.6476  0.4543  0.4493
48808SOL     OW53663  11.822   9.471   1.054  0.3266 -0.3724  0.5204
48808SOL    HW153664  11.789   9.382   1.044  0.7779 -0.5604  0.6622
48808SOL    HW253665  11.747   9.522   1.085  0.0391 -0.6790  0.3383
48809SOL     OW53666   4.528  10.582   3.640 -0.3572 -0.2238 -0.3550
48809SOL    HW153667   4.518  10.489   3.620 -0.0440 -0.2714 -0.3050
48809SOL    HW253668   4.456  10.624   3.594 -2.9511 -0.8605  2.7719
48810SOL     OW53669  10.022   0.279   7.091 -0.2635 -0.0547  0.1710
48810SOL    HW153670  10.059   0.251   7.175  1.1046  2.9947  0.7243
48810SOL    HW253671  10.063   0.221   7.027  1.3062 -0.2946  1.3270
48811SOL     OW53672   9.570   9.566  11.192 -0.0738  0.0734  0.5939
48811SOL    HW153673   9.657   9.606  11.200 -0.6300  1.6185 -0.6963
48811SOL    HW253674   9.589   9.473  11.178  1.4351  0.5177 -0.6499
48812SOL     OW53675   8.220   5.052   0.711  0.0721  0.2136 -0.5137
48812SOL    HW153676   8.162   4.989   0.754  0.8635 -0.1269  0.0699
48812SOL    HW253677   8.280   5.080   0.780  1.2871 -0.2356 -1.3778
48813SOL     OW53678   1.536   2.457   3.050 -0.2188 -0.2508  0.3987
48813SOL    HW153679   1.550   2.503   2.967 -0.6921  0.1900  0.5546
48813SOL    HW253680   1.513   2.368   3.025 -3.2483  0.5468 -0.1089
48814SOL     OW53681   9.046   2.956   4.095 -0.1333 -0.3383  0.5510
48814SOL    HW153682   8.998   3.032   4.126 -0.1977  0.2116 -0.8444
48814SOL    HW253683   9.130   2.991   4.065 -0.8544 -0.4997 -1.8125
48815SOL     OW53684   1.240   5.762  11.642 -0.2995  0.0556  0.7301
48815SOL    HW153685   1.159   5.736  11.687 -0.4973  0.3067  0.5167
48815SOL    HW253686   1.281   5.679  11.616 -0.9184 -0.0462  0.0723
48816SOL     OW53687   0.121   4.118  11.113  0.8150 -0.2980 -0.2993
48816SOL    HW153688   0.081   4.201  11.088  0.3721 -0.1755  0.7418
48816SOL    HW253689   0.186   4.101  11.045  0.8183  0.8271 -0.5989
48817SOL     OW53690   1.527   1.230   9.791 -0.0348  0.2056 -0.1928
48817SOL    HW153691   1.610   1.220   9.745 -0.7167 -0.2497 -1.3625
48817SOL    HW253692   1.474   1.286   9.733  0.4151  2.9229  1.8331
48818SOL     OW53693   5.848   7.508   6.745  0.0497 -0.1639 -0.4202
48818SOL    HW153694   5.772   7.489   6.689  2.2336 -0.6083 -3.5267
48818SOL    HW253695   5.812   7.556   6.819 -3.2990 -0.7816 -1.4726
48819SOL     OW53696   3.867   4.995   0.962  0.0180 -0.0893 -0.0053
48819SOL    HW153697   3.819   5.060   0.910  0.4747  0.7691  0.6267
48819SOL    HW253698   3.893   4.929   0.898 -1.2679 -0.1559 -0.5075
48820SOL     OW53699   7.246   4.494   1.958 -0.0380 -0.3157 -0.1573
48820SOL    HW153700   7.316   4.558   1.946 -0.9546  0.5123 -1.3877
48820SOL    HW253701   7.279   4.415   1.916  0.6084 -0.2847  0.2799
48821SOL     OW53702   6.004   5.924   2.636 -0.0756  0.7160  0.1097
48821SOL    HW153703   5.915   5.889   2.643  0.3949 -0.7577 -0.9038
48821SOL    HW253704   6.052   5.881   2.707  0.4028 -0.4378 -0.8807
48822SOL     OW53705   8.772   2.940   8.533  0.3135  0.0401  0.2620
48822SOL    HW153706   8.785   3.015   8.474  0.4137  0.3537  0.6798
48822SOL    HW253707   8.827   2.871   8.495 -0.1540  0.0162 -0.4009
48823SOL     OW53708   0.005   3.106   6.003 -0.1143 -0.3681  0.2744
48823SOL    HW153709  -0.017   3.199   6.003 -0.5511 -0.4657 -0.1519
48823SOL    HW253710  -0.002   3.079   6.094  0.4370  0.1118  0.4654
48824SOL     OW53711   4.762  12.461   1.345  0.6376  0.0756  0.5525
48824SOL    HW153712   4.744  12.510   1.265 -0.9172 -1.7793 -0.3089
48824SOL    HW253713   4.846  12.418   1.328  1.7363  1.8635  1.1026
48825SOL     OW53714   5.936  12.188   9.041 -0.3018  0.0218 -0.4012
48825SOL    HW153715   5.911  12.122   8.976 -2.0648 -0.7127  0.9398
48825SOL    HW253716   6.008  12.148   9.089 -0.5030 -0.3821 -0.4300
48826SOL     OW53717   1.856   2.610   2.126  0.6939  0.3896 -0.1298
48826SOL    HW153718   1.811   2.680   2.078  0.9923  0.0089 -0.9960
48826SOL    HW253719   1.896   2.557   2.057  0.1741 -0.8394  0.4883
48827SOL     OW53720   2.916   7.440  10.281 -0.0244 -0.2655 -0.2821
48827SOL    HW153721   2.930   7.530  10.310  0.2449  0.0056 -1.1936
48827SOL    HW253722   2.866   7.399  10.351 -1.2033  0.9443 -0.3626
48828SOL     OW53723   1.999   6.534   2.051 -0.5707 -0.3664 -0.7079
48828SOL    HW153724   2.046   6.549   2.133  0.2022  0.0413 -1.2155
48828SOL    HW253725   2.004   6.618   2.004 -0.2426 -0.8406 -1.5494
48829SOL     OW53726  11.056   6.701   3.227 -0.2682 -0.0935 -0.5815
48829SOL    HW153727  11.138   6.748   3.241  0.9196 -1.7997 -1.4904
48829SOL    HW253728  10.994   6.744   3.286  1.3062  1.1162  0.2824
48830SOL     OW53729   8.994   7.080   0.672 -0.5761 -0.7661  0.4258
48830SOL    HW153730   8.986   7.172   0.699 -1.0045 -0.5407 -0.4170
48830SOL    HW253731   8.906   7.057   0.639 -0.4245 -1.4182  0.4585
48831SOL     OW53732  10.654   9.642  12.525 -0.8135 -0.3118  0.2953
48831SOL    HW153733  10.589   9.710  12.507  0.5192  0.9707  0.1296
48831SOL    HW253734  10.710   9.641  12.447  0.4812 -0.0398  1.1851
48832SOL     OW53735   4.517   1.194   6.975 -0.4980  0.1884 -0.0763
48832SOL    HW153736   4.506   1.146   6.893 -1.9613  1.2907 -0.5670
48832SOL    HW253737   4.491   1.284   6.955  2.8124  1.4459  0.6580
48833SOL     OW53738   9.188   0.924   8.550 -0.4340  0.1347 -0.5117
48833SOL    HW153739   9.145   0.848   8.589 -0.5183  0.1869 -0.5033
48833SOL    HW253740   9.280   0.916   8.578 -0.1643 -0.6636 -1.5939
48834SOL     OW53741   8.555   5.712   1.212 -0.3473 -0.4595 -0.4271
48834SOL    HW153742   8.643   5.675   1.217  0.4864  1.4577 -0.3210
48834SOL    HW253743   8.529   5.724   1.303 -1.1891 -1.9930 -0.4289
48835SOL     OW53744   7.667   3.407  11.128 -0.0865 -0.1429  0.0033
48835SOL    HW153745   7.675   3.364  11.213 -1.2311 -0.9411 -0.2643
48835SOL    HW253746   7.643   3.336  11.068  1.1888  0.3244 -1.0897
48836SOL     OW53747  11.077   6.157   7.358 -0.6131 -0.7149 -0.2363
48836SOL    HW153748  11.088   6.131   7.266 -1.4388 -0.0589 -0.5368
48836SOL    HW253749  11.045   6.079   7.402 -0.6525 -0.9082 -0.6081
48837SOL     OW53750   7.230   1.467   3.779 -0.3594 -0.1877  0.3384
48837SOL    HW153751   7.193   1.393   3.732  0.8355 -0.4903 -0.1389
48837SOL    HW253752   7.202   1.454   3.870  1.3143 -2.2073  0.6247
48838SOL     OW53753   4.607   2.824   2.399 -0.1407  0.7711  0.6427
48838SOL    HW153754   4.690   2.839   2.444  0.4421 -0.4143  0.0266
48838SOL    HW253755   4.605   2.729   2.383 -2.0312  0.6334  1.4282
48839SOL     OW53756   0.549  10.776   7.466  0.1568  0.2274 -0.4756
48839SOL    HW153757   0.613  10.846   7.473  0.8231 -0.3207 -0.9319
48839SOL    HW253758   0.598  10.702   7.431 -0.5099 -0.5046  0.1034
48840SOL     OW53759  11.348   3.120  11.564  0.4646 -0.2747  0.2322
48840SOL    HW153760  11.338   3.203  11.609  0.4959  0.6003 -1.2941
48840SOL    HW253761  11.433   3.087  11.591  0.5933  0.3496  0.5924
48841SOL     OW53762  10.541  12.110   2.518  0.8278 -0.3298 -0.0068
48841SOL    HW153763  10.501  12.112   2.605  0.3004 -1.5066 -0.2044
48841SOL    HW253764  10.573  12.020   2.507  2.5248  0.2717 -0.3251
48842SOL     OW53765  11.498  10.799   7.189 -0.1517  0.6931  0.3539
48842SOL    HW153766  11.494  10.748   7.108 -0.3636  0.5256  0.4675
48842SOL    HW253767  11.578  10.771   7.232 -0.0692  0.7401  0.2284
48843SOL     OW53768   1.773   6.676  10.906 -0.7198  0.2160 -0.2144
48843SOL    HW153769   1.750   6.760  10.946 -2.0148 -0.7618  1.2255
48843SOL    HW253770   1.864   6.662  10.931 -0.8378  0.6841  0.5154
48844SOL     OW53771   7.283   9.518   5.585 -0.1212  0.1794 -0.1922
48844SOL    HW153772   7.238   9.433   5.590 -0.8168  0.6177  2.1961
48844SOL    HW253773   7.376   9.496   5.587 -0.2922 -0.5184  1.9339
48845SOL     OW53774   6.243  11.334   0.415 -0.0221 -0.4707  0.5148
48845SOL    HW153775   6.204  11.415   0.382  0.1323 -0.5829  0.0561
48845SOL    HW253776   6.270  11.355   0.504 -1.9024 -0.6274  1.1637
48846SOL     OW53777   1.717  10.211  10.077 -0.5429  0.1399 -0.1298
48846SOL    HW153778   1.690  10.294  10.038 -0.5786  0.1194 -0.1488
48846SOL    HW253779   1.715  10.227  10.172 -0.3623  0.2190 -0.1389
48847SOL     OW53780   1.381   7.160  12.485  0.1418  0.3059  0.1327
48847SOL    HW153781   1.376   7.064  12.476 -0.2390  0.4891 -2.5269
48847SOL    HW253782   1.452   7.185  12.426  0.5772  1.6577  1.1962
48848SOL     OW53783   0.632  11.968  12.661 -0.1346 -0.1772  0.0760
48848SOL    HW153784   0.667  12.045  12.706 -1.0076  0.7884 -0.8424
48848SOL    HW253785   0.678  11.965  12.578  0.2097 -0.9229  0.2844
48849SOL     OW53786   8.522   3.795   2.279 -0.5489 -0.0125  0.0182
48849SOL    HW153787   8.546   3.885   2.304  1.2515 -0.1716 -0.9826
48849SOL    HW253788   8.431   3.802   2.251 -0.4027  1.5585 -0.1828
48850SOL     OW53789   9.094   5.877   8.865 -0.1773 -0.1828  0.1774
48850SOL    HW153790   9.072   5.806   8.804  1.3814 -0.6855  0.1612
48850SOL    HW253791   9.114   5.951   8.808 -3.1343  0.7725  0.2070
48851SOL     OW53792   9.950  11.714   1.362 -0.2647  0.0166  0.0387
48851SOL    HW153793   9.912  11.627   1.356 -1.4604  0.3957  1.5755
48851SOL    HW253794   9.878  11.774   1.340  0.3345  0.6518 -0.2447
48852SOL     OW53795   0.388   8.272   0.071  0.0762  0.1445  0.5182
48852SOL    HW153796   0.330   8.333   0.024  0.5858 -0.3907 -0.8444
48852SOL    HW253797   0.451   8.244   0.006 -0.5601 -2.4240  0.9073
48853SOL     OW53798   2.194   6.622   1.078 -0.3849 -0.0904  0.0002
48853SOL    HW153799   2.224   6.576   1.157 -0.1313 -1.9370 -1.1024
48853SOL    HW253800   2.109   6.583   1.058 -0.2120 -0.0296 -0.9241
48854SOL     OW53801   5.071   6.859   7.021  0.4956 -0.3449  0.2956
48854SOL    HW153802   5.072   6.946   7.060  1.5826  0.7319 -1.9239
48854SOL    HW253803   4.981   6.829   7.031  0.1194  0.9948  1.2009
48855SOL     OW53804   7.818   8.404   9.877 -0.4906 -0.1515 -0.4997
48855SOL    HW153805   7.755   8.453   9.824 -0.9727  0.1493  0.3232
48855SOL    HW253806   7.870   8.472   9.921 -2.0633 -0.2705  1.7270
48856SOL     OW53807   0.543   0.881   9.487  0.0072 -0.2537 -0.1092
48856SOL    HW153808   0.484   0.808   9.505  0.5006 -0.5480  0.3408
48856SOL    HW253809   0.611   0.874   9.554 -1.0868  1.8939  1.3291
48857SOL     OW53810   6.894   2.100   6.087 -0.2558 -0.6920  0.3531
48857SOL    HW153811   6.866   2.019   6.131 -1.8667 -0.7127 -0.6258
48857SOL    HW253812   6.841   2.169   6.128  1.8691  0.0974  1.9455
48858SOL     OW53813   8.359   2.024   1.326 -0.5718 -0.1753  0.8670
48858SOL    HW153814   8.431   2.087   1.328 -1.2735  0.6508  0.9749
48858SOL    HW253815   8.281   2.077   1.338 -1.3523 -0.8447 -0.9564
48859SOL     OW53816   8.871   8.799   6.446  0.5585  0.2206 -0.0501
48859SOL    HW153817   8.883   8.869   6.382  1.6626 -0.1249 -0.2438
48859SOL    HW253818   8.912   8.722   6.405  1.0598 -0.0638  0.9571
48860SOL     OW53819   3.119   7.277   3.531 -0.2607 -0.0438  0.4723
48860SOL    HW153820   3.149   7.203   3.479 -2.2715  0.5586 -1.7380
48860SOL    HW253821   3.089   7.238   3.613 -2.4700 -1.9981 -1.1020
48861SOL     OW53822   1.182  11.680   0.436 -0.3742  0.5082 -0.0666
48861SOL    HW153823   1.168  11.770   0.466  1.7274  0.7273  0.4668
48861SOL    HW253824   1.100  11.635   0.454 -1.0079  1.9958  0.9517
48862SOL     OW53825   0.795   3.774   2.424 -0.4443  0.2487  0.2833
48862SOL    HW153826   0.700   3.786   2.436 -0.7054 -0.6682 -0.7577
48862SOL    HW253827   0.807   3.775   2.329  0.8766  2.2682  0.4139
48863SOL     OW53828   0.391   4.371   5.029  0.3916 -0.5730  0.1082
48863SOL    HW153829   0.421   4.429   5.098  1.1550 -1.2791  0.3853
48863SOL    HW253830   0.302   4.345   5.055 -0.7379  1.8652 -0.9272
48864SOL     OW53831  10.292   4.900   0.468  0.0370  0.7213 -0.2231
48864SOL    HW153832  10.255   4.974   0.516 -0.8169  0.2108 -0.0821
48864SOL    HW253833  10.352   4.858   0.530 -0.4537  0.5370  0.1287
48865SOL     OW53834   6.185  11.617   0.421  0.0031  0.8363 -0.1590
48865SOL    HW153835   6.209  11.693   0.474  2.4506 -0.0891  0.1726
48865SOL    HW253836   6.236  11.626   0.341  0.4015 -0.4836 -0.0772
48866SOL     OW53837   0.872   5.260  10.208 -0.1132 -0.2304  0.0639
48866SOL    HW153838   0.868   5.267  10.113  1.5633 -0.6012 -0.0612
48866SOL    HW253839   0.837   5.343  10.240  1.6427  0.9449 -0.9523
48867SOL     OW53840   4.270   2.488   6.129 -0.3864 -0.1344  0.0224
48867SOL    HW153841   4.181   2.510   6.101  0.5842  2.2382 -1.5487
48867SOL    HW253842   4.320   2.485   6.047  1.3513  0.5560  1.0091
48868SOL     OW53843   2.792   6.278   1.528  0.1868 -0.7185  1.2323
48868SOL    HW153844   2.699   6.257   1.542  0.2787 -2.2911 -0.1052
48868SOL    HW253845   2.798   6.294   1.434  1.8619 -4.6322  0.4715
48869SOL     OW53846  11.375   8.731   3.017 -0.2866 -0.6121  0.3465
48869SOL    HW153847  11.352   8.743   3.109  0.1021 -0.2610  0.4000
48869SOL    HW253848  11.402   8.640   3.011 -1.0504 -0.8519  0.4179
48870SOL     OW53849   8.442  10.042  12.632  0.1696  0.0879 -0.3585
48870SOL    HW153850   8.517  10.044  12.691 -0.3228  0.0295  0.2914
48870SOL    HW253851   8.390   9.968  12.663  1.7222 -2.3894 -3.1930
48871SOL     OW53852   8.389   1.190  12.317  0.7335 -0.2813  0.1989
48871SOL    HW153853   8.384   1.105  12.360  3.0393 -0.5913  0.0108
48871SOL    HW253854   8.417   1.250  12.386 -1.7174  0.5534  0.5354
48872SOL     OW53855   3.730   2.225   1.963  0.4579  0.0114  0.7876
48872SOL    HW153856   3.723   2.276   2.044  0.4258 -0.0878  0.8478
48872SOL    HW253857   3.816   2.183   1.968  0.5778  0.2376  0.6325
48873SOL     OW53858   8.877   1.970   0.531  0.2428  0.7137  0.3165
48873SOL    HW153859   8.938   2.000   0.464  2.6712 -0.2512  1.9469
48873SOL    HW253860   8.929   1.969   0.612 -2.1916  0.6385  2.0069
48874SOL     OW53861   7.936   9.157  11.308  0.4388 -0.6295  0.1846
48874SOL    HW153862   7.847   9.127  11.291 -0.1126  0.3532  1.1954
48874SOL    HW253863   7.967   9.100  11.379 -0.7173  1.2048  2.3173
48875SOL     OW53864   5.842  11.000   5.804  0.3074  0.0488  0.0682
48875SOL    HW153865   5.805  10.977   5.718 -1.0536 -0.1138  0.6767
48875SOL    HW253866   5.911  10.934   5.818  0.6128  0.1352 -0.9313
48876SOL     OW53867  11.401   0.600  12.666  0.1608 -0.2288 -0.1501
48876SOL    HW153868  11.367   0.633  12.749  1.7991 -0.8021  0.7799
48876SOL    HW253869  11.384   0.670  12.604 -0.4101  0.5242  0.8205
48877SOL     OW53870   1.118   1.437   3.096  0.0908 -0.1490 -0.9692
48877SOL    HW153871   1.160   1.393   3.170 -1.3724 -0.3058 -0.1748
48877SOL    HW253872   1.169   1.517   3.083  2.2244 -1.5792 -1.8153
48878SOL     OW53873   8.738   3.301   2.016  0.7204  0.1654 -0.1054
48878SOL    HW153874   8.804   3.233   1.998  0.9395  0.2737  0.2793
48878SOL    HW253875   8.767   3.341   2.098 -0.7684 -0.9552  1.0161
48879SOL     OW53876   6.954   7.745   7.997  0.3462  0.4755 -0.0941
48879SOL    HW153877   6.992   7.820   8.042 -0.9717  1.7313 -0.9946
48879SOL    HW253878   6.861   7.767   7.989  0.5702  0.5477 -3.7849
48880SOL     OW53879   2.765   8.574   3.154  0.4420 -0.2060  0.4620
48880SOL    HW153880   2.738   8.544   3.067  0.4795 -0.7223  0.6212
48880SOL    HW253881   2.818   8.651   3.138 -1.4964  1.1280  0.1657
48881SOL     OW53882   3.495   8.377   4.467 -0.6251  0.1499 -0.4250
48881SOL    HW153883   3.582   8.344   4.448 -0.3100  0.2910  0.7035
48881SOL    HW253884   3.443   8.353   4.390  0.7956  1.6159 -1.9149
48882SOL     OW53885  12.684   8.146   0.813  0.4200  0.2740  0.1866
48882SOL    HW153886  12.643   8.229   0.787  0.3602  0.8181  1.8712
48882SOL    HW253887  12.611   8.090   0.840  0.6102  0.5602  1.3561
48883SOL     OW53888   8.108  10.370   3.581  0.3915  0.1346 -0.7603
48883SOL    HW153889   8.093  10.281   3.612  0.4376 -0.0235 -1.1960
48883SOL    HW253890   8.121  10.362   3.487  1.5872  0.4541 -0.6423
48884SOL     OW53891   4.454   4.169  12.597 -0.4359  0.0620 -0.2181
48884SOL    HW153892   4.489   4.242  12.648  0.1219  0.5302 -1.2490
48884SOL    HW253893   4.440   4.099  12.661  0.1264  0.6826  0.5930
48885SOL     OW53894   0.083   2.748   2.283  0.0333 -0.0755 -0.4162
48885SOL    HW153895   0.061   2.655   2.290  0.5866 -0.3547 -2.0470
48885SOL    HW253896   0.177   2.749   2.265  0.5704  0.9384  2.0124
48886SOL     OW53897   2.403   4.159  12.229 -0.3787  0.5941 -0.1693
48886SOL    HW153898   2.360   4.090  12.280  0.1317 -1.2668 -2.1182
48886SOL    HW253899   2.332   4.200  12.179 -0.6901  1.5703  1.0252
48887SOL     OW53900   9.802   3.746   2.107 -0.5773 -0.1082 -0.3510
48887SOL    HW153901   9.812   3.802   2.184 -0.0160 -1.1125  0.3331
48887SOL    HW253902   9.879   3.688   2.109 -1.6343 -1.5716 -0.4581
48888SOL     OW53903   1.105  10.855   0.082 -0.1270  0.2707  0.2309
48888SOL    HW153904   1.190  10.832   0.119 -0.4530 -2.0286 -0.3172
48888SOL    HW253905   1.091  10.946   0.109  1.3325 -0.1079  2.5070
48889SOL     OW53906   7.591   6.184   5.278 -0.0456 -0.8061  0.2476
48889SOL    HW153907   7.546   6.114   5.230 -2.7691  1.1142 -0.2477
48889SOL    HW253908   7.643   6.230   5.211 -1.3770 -0.0298 -0.2969
48890SOL     OW53909  10.228  10.361   3.136  0.1758 -0.3324  0.0984
48890SOL    HW153910  10.192  10.272   3.130  0.2578 -0.3243 -0.5288
48890SOL    HW253911  10.321  10.351   3.114 -0.1247  0.1260 -1.4577
48891SOL     OW53912   5.346  10.468   5.691 -0.0665  0.3479 -0.0305
48891SOL    HW153913   5.387  10.534   5.635 -2.1646  1.4924 -0.3422
48891SOL    HW253914   5.252  10.488   5.686 -0.5141 -0.8352  2.2244
48892SOL     OW53915   6.243   0.173   9.414 -0.1310  0.8766  0.5286
48892SOL    HW153916   6.291   0.166   9.497 -1.4653  0.0733  1.2617
48892SOL    HW253917   6.217   0.265   9.410  0.6583  1.1121  0.5768
48893SOL     OW53918   4.213   0.972   2.721 -0.2123  0.1413  0.4673
48893SOL    HW153919   4.216   0.897   2.662 -0.1158  0.7909 -0.3687
48893SOL    HW253920   4.157   0.943   2.794 -0.0301 -0.7917  0.2404
48894SOL     OW53921   5.661   2.733   2.357  0.2976 -0.2255  0.3948
48894SOL    HW153922   5.603   2.693   2.292  0.6059 -0.1247  0.0591
48894SOL    HW253923   5.702   2.806   2.312  0.0307  0.2369  0.8952
48895SOL     OW53924   3.279  10.831   1.960  0.7066  0.3065 -0.1885
48895SOL    HW153925   3.265  10.880   1.879 -0.1167 -0.3584 -0.4588
48895SOL    HW253926   3.196  10.784   1.974  1.8478 -1.9177 -0.5409
48896SOL     OW53927  12.451  11.526   0.267  0.5513 -1.0210 -0.3156
48896SOL    HW153928  12.474  11.600   0.210 -1.0831 -1.8268 -2.1286
48896SOL    HW253929  12.422  11.457   0.207  0.6917 -2.6738  1.3972
48897SOL     OW53930  12.216  11.717   2.565 -0.1444  0.5603  0.0748
48897SOL    HW153931  12.130  11.718   2.524 -1.1943 -0.4526  2.0994
48897SOL    HW253932  12.245  11.808   2.562 -1.8166  1.1315  0.4011
48898SOL     OW53933   7.384  10.639   4.592  0.1999  0.2199 -0.6265
48898SOL    HW153934   7.307  10.692   4.569  0.4172  0.9544  0.2902
48898SOL    HW253935   7.429  10.626   4.509  0.7060  2.3845 -0.7555
48899SOL     OW53936   9.596  10.430  11.028  0.0752  0.1186  0.1578
48899SOL    HW153937   9.560  10.504  11.075  0.5847 -0.1971  1.0703
48899SOL    HW253938   9.660  10.469  10.968 -1.8022  0.6909 -1.5766
48900SOL     OW53939   8.690   1.574   1.275 -0.5992 -0.3544  0.2945
48900SOL    HW153940   8.637   1.635   1.325 -0.6171  1.6894 -1.9877
48900SOL    HW253941   8.631   1.500   1.256 -1.7237  0.5418  0.2021
48901SOL     OW53942   8.455   7.822   3.641  0.3872 -0.2522 -0.1864
48901SOL    HW153943   8.467   7.895   3.581 -0.0484  0.2057  0.2658
48901SOL    HW253944   8.543   7.790   3.659  0.8075  1.5059  1.2180
48902SOL     OW53945   4.252   2.397   8.756 -0.2544  0.2248  0.0634
48902SOL    HW153946   4.230   2.474   8.704  0.0149  0.5908  0.4837
48902SOL    HW253947   4.180   2.337   8.742 -0.8817  0.8844  0.3910
48903SOL     OW53948   1.998   1.083   1.186  0.0838 -0.1975 -0.2062
48903SOL    HW153949   1.972   0.995   1.213  1.5693 -0.4835  0.3959
48903SOL    HW253950   2.017   1.129   1.267  0.2402  0.3777 -0.5613
48904SOL     OW53951   6.660  10.473   1.124  0.0723  0.1810 -0.2498
48904SOL    HW153952   6.704  10.449   1.042  0.4095 -1.1832  0.3133
48904SOL    HW253953   6.572  10.501   1.097 -0.0095 -0.7851 -1.0305
48905SOL     OW53954   6.036   9.948  10.238  0.3074  0.2624  0.0746
48905SOL    HW153955   6.054  10.030  10.284 -0.1718  1.3831 -1.6335
48905SOL    HW253956   5.968   9.905  10.290 -1.9205  2.5929 -0.6953
48906SOL     OW53957   1.353   6.020   0.516 -0.0086 -0.1360  0.9508
48906SOL    HW153958   1.347   5.982   0.428 -1.2259  0.1638  0.8809
48906SOL    HW253959   1.440   6.059   0.519  1.4408 -3.0953  1.1312
48907SOL     OW53960   0.106   4.839  11.361 -0.3194 -0.5358  0.4231
48907SOL    HW153961   0.141   4.848  11.450 -1.2336  0.1627  0.7262
48907SOL    HW253962   0.164   4.893  11.308  0.8342 -1.7417  0.4072
48908SOL     OW53963   6.574   6.795   2.972  0.2366  0.1905 -0.1020
48908SOL    HW153964   6.593   6.784   2.879 -1.6361  0.9531 -0.6329
48908SOL    HW253965   6.652   6.764   3.017  1.6609  0.9238 -1.9526
48909SOL     OW53966   8.066   0.007  11.848  0.4799  0.2031 -0.7432
48909SOL    HW153967   8.041  -0.078  11.883  1.2472  0.2026 -0.1857
48909SOL    HW253968   7.986   0.059  11.853  0.2360 -0.2073 -0.2487
48910SOL     OW53969   2.302   9.079   6.805  0.7247  0.0777  0.4578
48910SOL    HW153970   2.234   9.014   6.785  0.5853  0.2907  0.2373
48910SOL    HW253971   2.364   9.073   6.732  0.1832  0.8969 -0.0828
48911SOL     OW53972   7.138   4.431   7.216  0.0249 -0.0739 -0.0666
48911SOL    HW153973   7.195   4.485   7.270  0.4528  1.1683 -1.6730
48911SOL    HW253974   7.077   4.494   7.176 -1.0587 -1.1067 -0.0720
48912SOL     OW53975   3.381  11.488  11.506 -0.9561  0.1636 -0.0748
48912SOL    HW153976   3.294  11.528  11.506 -0.7321  0.6611 -0.3371
48912SOL    HW253977   3.378  11.423  11.437 -1.0251  0.3901 -0.2850
48913SOL     OW53978   1.075   3.400   5.604  0.4359  0.3707 -0.5351
48913SOL    HW153979   1.015   3.340   5.560  1.1707 -0.6067 -0.2372
48913SOL    HW253980   1.030   3.484   5.602 -1.3040 -0.4900  0.3777
48914SOL     OW53981  12.346   0.560   4.150  0.0759 -0.3198  0.2423
48914SOL    HW153982  12.428   0.574   4.197 -0.7559  0.1750  1.6014
48914SOL    HW253983  12.308   0.647   4.141 -0.8430 -0.6604  0.6770
48915SOL     OW53984   4.307   0.706   5.709  0.0966  0.0343  0.1493
48915SOL    HW153985   4.328   0.615   5.691 -0.8349  0.0118 -0.9237
48915SOL    HW253986   4.213   0.707   5.726  0.4655  0.4643  2.5505
48916SOL     OW53987  10.355   5.973  12.603  0.3266 -0.1985  0.3039
48916SOL    HW153988  10.302   5.983  12.682 -1.0889 -0.1596 -0.6113
48916SOL    HW253989  10.302   5.918  12.545  0.8984  0.5652 -0.9846
48917SOL     OW53990  11.029   5.601   2.846  0.3440 -0.2221  0.0845
48917SOL    HW153991  11.019   5.640   2.933  0.4541  0.1609 -0.0713
48917SOL    HW253992  11.093   5.657   2.802  0.4536 -0.5432 -0.1676
48918SOL     OW53993   2.185   4.470   7.631 -0.0655  0.4985 -0.7164
48918SOL    HW153994   2.212   4.445   7.720 -2.5553  1.2239  0.3103
48918SOL    HW253995   2.248   4.538   7.606  0.2179  0.8352  0.8036
48919SOL     OW53996  10.449  10.137   4.683 -0.1243  0.6605 -0.2868
48919SOL    HW153997  10.509  10.210   4.698 -0.5006  0.8406  0.3665
48919SOL    HW253998  10.469  10.107   4.595  0.4709  1.1455 -0.3191
48920SOL     OW53999   1.536   3.347   0.084  0.0539  0.3312  0.4995
48920SOL    HW154000   1.493   3.364   0.000  0.7805  1.4288  0.3307
48920SOL    HW254001   1.530   3.430   0.131  0.8688  0.1210  0.9809
48921SOL     OW54002   0.278   4.407   8.338 -0.7960 -0.9333 -0.1730
48921SOL    HW154003   0.193   4.385   8.299 -0.6613 -1.3978 -0.2076
48921SOL    HW254004   0.326   4.450   8.267 -1.1934 -0.1723  0.0029
48922SOL     OW54005   9.120  12.042   1.130  0.4232  0.1184  0.3852
48922SOL    HW154006   9.169  12.124   1.117  0.7842  0.0595  1.2782
48922SOL    HW254007   9.029  12.067   1.115  0.5119  0.7270  0.8014
48923SOL     OW54008   2.481  11.680   3.363 -0.4092  0.0296  0.0257
48923SOL    HW154009   2.562  11.670   3.412 -1.0803  0.4666  1.2782
48923SOL    HW254010   2.477  11.773   3.341 -0.6271  0.0371  0.0880
48924SOL     OW54011   2.700   9.148  10.505 -0.2056 -0.6820  0.3992
48924SOL    HW154012   2.751   9.103  10.437  0.1667 -0.1969  0.3508
48924SOL    HW254013   2.621   9.095  10.515 -0.3967 -0.6017 -0.6156
48925SOL     OW54014  11.696   4.688   5.582  0.7406  0.2023  0.0288
48925SOL    HW154015  11.621   4.685   5.641  1.2541  0.3439  0.6959
48925SOL    HW254016  11.672   4.631   5.509  0.0321  0.1643  0.2853
48926SOL     OW54017  11.640   8.405   3.719  0.0033 -0.8090 -0.0104
48926SOL    HW154018  11.633   8.429   3.627  0.9778  0.6227  0.2585
48926SOL    HW254019  11.730   8.374   3.730 -0.8430 -3.5873 -0.0653
48927SOL     OW54020   3.301   3.063   1.852 -0.2798 -0.6926  0.3614
48927SOL    HW154021   3.209   3.051   1.829 -0.0405 -2.7392  0.3275
48927SOL    HW254022   3.340   3.102   1.774 -1.1688  0.5792  0.5159
48928SOL     OW54023   0.054   2.768   4.729 -0.6449  0.1308  0.1823
48928SOL    HW154024   0.020   2.730   4.810 -1.2665  0.8534  0.2644
48928SOL    HW254025   0.103   2.845   4.756  0.3910 -0.4461 -0.0096
48929SOL     OW54026   5.865   4.821   4.916 -0.0679  0.5639 -0.1393
48929SOL    HW154027   5.935   4.822   4.980  0.4042  1.2080 -0.6558
48929SOL    HW254028   5.803   4.755   4.948  0.5500  0.3194  0.5494
48930SOL     OW54029   9.059   5.484  11.259 -0.1962 -0.4028  0.4692
48930SOL    HW154030   9.000   5.551  11.226  1.4581  1.4330  1.0836
48930SOL    HW254031   9.102   5.449  11.181 -0.2399  0.0786  0.2256
48931SOL     OW54032   5.340   6.153   8.496  0.2642 -0.3318  0.6233
48931SOL    HW154033   5.434   6.142   8.483  0.0220 -1.1555 -0.6263
48931SOL    HW254034   5.302   6.071   8.464 -1.1369  1.3282 -2.3761
48932SOL     OW54035   2.298   4.073   9.580 -0.0762 -0.7177 -0.5478
48932SOL    HW154036   2.305   4.074   9.675  0.8903  3.2042 -0.4943
48932SOL    HW254037   2.207   4.045   9.563 -1.4774  1.9833  1.7604
48933SOL     OW54038   3.856   8.678  12.679  0.2562  0.1448  0.4784
48933SOL    HW154039   3.780   8.664  12.622 -1.0501 -0.8470  2.3437
48933SOL    HW254040   3.891   8.762  12.652 -2.4185  1.3689  0.5117
48934SOL     OW54041   7.369   1.099   9.176 -0.1213  0.0617 -0.3687
48934SOL    HW154042   7.432   1.120   9.107 -0.8423 -2.8748 -2.0854
48934SOL    HW254043   7.421   1.054   9.243 -0.0031 -0.3592 -0.7372
48935SOL     OW54044   3.698   0.170  10.862 -0.1796  0.0368  0.1336
48935SOL    HW154045   3.744   0.251  10.884  1.3252 -0.8885  0.5419
48935SOL    HW254046   3.692   0.122  10.945 -2.9869  0.6087  0.3556
48936SOL     OW54047   2.793   8.533   1.667 -0.2650 -0.3031  0.2752
48936SOL    HW154048   2.745   8.451   1.654 -1.6448  0.3546  0.9693
48936SOL    HW254049   2.726   8.596   1.693  1.1363  0.3782  2.4953
48937SOL     OW54050  11.104  12.708  11.623  0.5883 -0.0349 -0.0987
48937SOL    HW154051  11.048  12.786  11.630  0.5009 -0.0887 -0.1836
48937SOL    HW254052  11.173  12.722  11.687 -1.4301 -1.5770  2.6447
48938SOL     OW54053   0.257   5.656  11.358 -0.7147  0.3337  0.4271
48938SOL    HW154054   0.275   5.676  11.450  0.9794  2.4643 -0.2799
48938SOL    HW254055   0.207   5.731  11.326 -2.0947 -0.8109 -0.2121
48939SOL     OW54056  12.223   2.051  11.009  0.1484  0.5314 -0.5912
48939SOL    HW154057  12.151   2.050  10.946  1.4227 -1.7109 -2.1676
48939SOL    HW254058  12.288   1.992  10.971  1.0207 -0.9358  2.8466
48940SOL     OW54059   7.651   3.432  10.571  0.3768  0.3770 -0.5309
48940SOL    HW154060   7.707   3.381  10.512 -0.9291 -1.8451  0.0491
48940SOL    HW254061   7.641   3.517  10.528  1.4965 -0.3119 -2.2340
48941SOL     OW54062  12.378   0.333   0.709  0.1670  0.4480 -0.3524
48941SOL    HW154063  12.440   0.406   0.709 -0.4428  0.9679 -0.9991
48941SOL    HW254064  12.292   0.374   0.717 -0.0892 -0.2975  1.2341
48942SOL     OW54065  11.414  11.392   9.609 -0.2611 -0.6192 -0.3497
48942SOL    HW154066  11.468  11.330   9.659  0.6337 -1.0151 -1.7437
48942SOL    HW254067  11.368  11.443   9.676  1.8085 -0.2922  0.9136
48943SOL     OW54068   2.025   3.008  11.814  0.4317 -0.5033  0.7433
48943SOL    HW154069   2.057   3.095  11.791  0.2055 -0.5778  0.1304
48943SOL    HW254070   1.995   3.017  11.905  0.7708 -0.0482  0.8166
48944SOL     OW54071   1.107   3.672   3.082 -0.1374 -0.3093 -0.2080
48944SOL    HW154072   1.042   3.655   3.014 -1.1242 -1.1821  0.9093
48944SOL    HW254073   1.191   3.659   3.038 -0.7196  0.2224 -1.5257
48945SOL     OW54074   3.945   6.672   9.513 -0.5406 -0.4956 -0.2278
48945SOL    HW154075   3.984   6.720   9.440 -0.9256 -0.7573 -0.6115
48945SOL    HW254076   3.927   6.585   9.477 -2.7763  0.0218 -0.5010
48946SOL     OW54077   8.835   1.347  10.153  0.1305 -0.1522  0.3216
48946SOL    HW154078   8.755   1.318  10.197  1.8306 -2.8573  1.9206
48946SOL    HW254079   8.866   1.421  10.205 -0.2872 -0.3864  0.9109
48947SOL     OW54080   1.991   5.701   2.663 -0.2587  0.2409  0.1650
48947SOL    HW154081   1.977   5.673   2.753  0.1818 -0.4123  0.0388
48947SOL    HW254082   1.926   5.770   2.648  0.0671  0.7754  1.1670
48948SOL     OW54083  10.297   1.432   7.111  0.9229 -0.6577 -1.0010
48948SOL    HW154084  10.265   1.505   7.057 -1.4190 -0.4099  0.5594
48948SOL    HW254085  10.222   1.372   7.115  1.8024 -1.7178  0.1621
48949SOL     OW54086   9.442   9.448  10.491 -0.3511 -0.0697 -0.2602
48949SOL    HW154087   9.526   9.404  10.499 -1.1166 -2.1406 -2.2809
48949SOL    HW254088   9.434   9.467  10.397 -1.8230  0.6969 -0.0128
48950SOL     OW54089   1.839   7.774   0.337  0.4840  0.1005  0.4209
48950SOL    HW154090   1.879   7.687   0.341  0.4922  0.1058  0.4541
48950SOL    HW254091   1.797   7.784   0.422  1.3586  0.5515  0.8121
48951SOL     OW54092   6.165   0.082   7.405  0.5191 -0.0038 -0.1033
48951SOL    HW154093   6.243   0.040   7.439  0.0895  0.2027  1.1882
48951SOL    HW254094   6.096   0.060   7.468 -0.3228  0.3379 -0.8752
48952SOL     OW54095   2.005  10.690   4.097 -0.2195  0.0720 -0.2400
48952SOL    HW154096   2.019  10.655   4.009  0.8236 -2.0551  0.7201
48952SOL    HW254097   2.091  10.721   4.125 -0.3954  0.0801  0.2993
48953SOL     OW54098  10.405   0.445   8.668 -0.7630  0.0102 -0.2089
48953SOL    HW154099  10.324   0.487   8.699 -1.6265 -0.3744 -1.8503
48953SOL    HW254100  10.381   0.405   8.585  1.1406 -0.0946 -0.7532
48954SOL     OW54101   2.359   6.566  12.306  0.3711  0.0252  0.1715
48954SOL    HW154102   2.444   6.529  12.283  0.2123 -1.0193  1.1746
48954SOL    HW254103   2.315   6.497  12.356 -0.4895  1.0688  0.9179
48955SOL     OW54104   8.679   1.874   2.854 -0.7282  0.6207 -0.0619
48955SOL    HW154105   8.624   1.799   2.880 -1.7476  1.9144  1.7026
48955SOL    HW254106   8.736   1.839   2.785 -1.5746 -1.6158  0.2932
48956SOL     OW54107  12.419   7.107   6.623 -0.2271  0.6006  0.4169
48956SOL    HW154108  12.461   7.026   6.651  0.2443  0.3470 -0.9377
48956SOL    HW254109  12.491   7.163   6.595 -0.6920  0.5390 -0.9841
48957SOL     OW54110   6.628   0.211   5.779 -0.3510  0.8104 -0.0942
48957SOL    HW154111   6.613   0.120   5.804 -0.8905  0.9779  0.1936
48957SOL    HW254112   6.698   0.207   5.714 -3.1795 -0.2477 -3.3461
48958SOL     OW54113  11.854   5.633   9.400 -0.1005 -0.0469  0.2089
48958SOL    HW154114  11.903   5.714   9.413 -0.8437  0.5555 -0.6730
48958SOL    HW254115  11.915   5.564   9.426  1.0128  0.7191 -0.3048
48959SOL     OW54116   0.208   9.775   7.527 -0.2511  0.0378 -0.2469
48959SOL    HW154117   0.273   9.813   7.467  0.4612 -1.2618 -0.3261
48959SOL    HW254118   0.216   9.827   7.607  0.0871  0.6094 -0.6460
48960SOL     OW54119   1.477  11.630   9.763 -0.1602 -0.0672  0.1475
48960SOL    HW154120   1.545  11.598   9.822  0.8930 -1.5463 -1.7683
48960SOL    HW254121   1.520  11.638   9.678 -2.0265  0.3996 -0.8052
48961SOL     OW54122   4.602   7.951   7.436  0.0285 -0.3205  0.0828
48961SOL    HW154123   4.609   7.943   7.341  0.1438 -0.0935  0.0697
48961SOL    HW254124   4.566   8.039   7.450 -0.4464 -0.5381  0.2352
48962SOL     OW54125   2.316  12.370   1.941  0.1092  0.6029  0.5431
48962SOL    HW154126   2.320  12.288   1.892 -0.7961  0.6092  0.4441
48962SOL    HW254127   2.358  12.351   2.024  0.7401  0.3058  0.1595
48963SOL     OW54128   0.546  10.198  11.443 -0.3277  0.3713  0.2543
48963SOL    HW154129   0.472  10.258  11.458  0.1157  0.5702  1.7921
48963SOL    HW254130   0.522  10.119  11.492  0.6166  0.5627  1.0449
48964SOL     OW54131   4.172   0.219   6.774 -0.1241 -0.0333  0.6714
48964SOL    HW154132   4.207   0.133   6.751 -2.5336 -0.5490 -1.5410
48964SOL    HW254133   4.212   0.279   6.711  0.2022  0.1876  1.0807
48965SOL     OW54134   6.412  12.141  11.898 -0.1005  0.3713 -0.3873
48965SOL    HW154135   6.454  12.201  11.836  0.5811  0.2660 -0.0326
48965SOL    HW254136   6.475  12.069  11.908 -1.4906 -1.1981 -1.9527
48966SOL     OW54137   9.430  12.629   3.005 -0.2538  0.3144  0.6353
48966SOL    HW154138   9.392  12.632   3.093 -1.7143  0.0917  0.0379
48966SOL    HW254139   9.498  12.696   3.006  0.1322 -0.0515  2.0893
48967SOL     OW54140   0.177   0.430  10.257  0.1615  0.3182  0.5227
48967SOL    HW154141   0.127   0.352  10.280 -0.0895  0.3700  0.1675
48967SOL    HW254142   0.260   0.421  10.304  2.3740 -2.7370 -3.3076
48968SOL     OW54143   8.208   3.733   8.171 -0.2038 -0.1761 -0.9770
48968SOL    HW154144   8.204   3.826   8.147  0.8044 -0.4853 -2.5296
48968SOL    HW254145   8.183   3.687   8.091  0.6211 -1.2523 -0.6432
48969SOL     OW54146   7.727   3.577   5.754  0.3112  0.0926  0.2333
48969SOL    HW154147   7.769   3.496   5.783 -0.3531 -0.3936 -0.1106
48969SOL    HW254148   7.658   3.592   5.819 -1.8272 -1.5380 -1.4993
48970SOL     OW54149   9.026   8.834   9.670  0.0232  0.6884  0.3384
48970SOL    HW154150   8.952   8.887   9.699 -0.9857 -1.1273  1.2662
48970SOL    HW254151   9.069   8.807   9.751  0.4738  0.0524 -0.0985
48971SOL     OW54152  11.567   0.076   4.925 -0.3123  0.5102 -0.0950
48971SOL    HW154153  11.618   0.105   4.849  0.0186  1.0501  0.3254
48971SOL    HW254154  11.556  -0.018   4.912  0.4482  0.4594 -0.4071
48972SOL     OW54155   8.787  12.131   2.450  0.1947  0.0879  0.0673
48972SOL    HW154156   8.710  12.098   2.405  0.7485  0.3781 -1.1260
48972SOL    HW254157   8.839  12.053   2.470 -1.3632 -0.3574  2.8289
48973SOL     OW54158  10.672   8.873   5.460 -0.8366 -0.5670 -0.0956
48973SOL    HW154159  10.668   8.877   5.556  0.8492 -1.5544  0.0492
48973SOL    HW254160  10.673   8.965   5.433  0.3538 -0.2298  0.9553
48974SOL     OW54161   4.826  11.011   4.848 -0.1530  0.4388  0.0546
48974SOL    HW154162   4.869  11.093   4.872 -0.8534  1.3525 -1.6517
48974SOL    HW254163   4.760  10.998   4.916  1.1634  0.2961  1.3504
48975SOL     OW54164  11.488   3.870   0.822 -0.0733  0.4057 -0.0152
48975SOL    HW154165  11.576   3.832   0.823 -0.4784 -0.5804  0.3770
48975SOL    HW254166  11.454   3.852   0.910 -0.6126  0.9128 -0.1148
48976SOL     OW54167   8.342   0.391   5.190  0.4655 -0.1898  0.4687
48976SOL    HW154168   8.259   0.418   5.230  0.7976 -2.2329  2.7207
48976SOL    HW254169   8.318   0.316   5.135  0.2270  1.8265 -2.4304
48977SOL     OW54170  11.170   8.495   9.882  0.1263 -0.4600 -0.1069
48977SOL    HW154171  11.151   8.584   9.913 -1.5787 -0.9776  0.4450
48977SOL    HW254172  11.264   8.485   9.894  0.1196  0.7463  1.2402
48978SOL     OW54173  11.793  11.293   9.242 -0.0148  0.1750  0.1313
48978SOL    HW154174  11.713  11.249   9.214  0.8901 -1.5330  0.1108
48978SOL    HW254175  11.764  11.352   9.312 -1.0237 -1.9514  1.6241
48979SOL     OW54176   7.252   2.797   6.621 -0.0832  0.0765 -0.1813
48979SOL    HW154177   7.308   2.732   6.664 -0.0926 -0.2103 -0.5894
48979SOL    HW254178   7.308   2.837   6.555 -0.0706  0.5065  0.0908
48980SOL     OW54179   4.159   9.422   7.992  0.0265  0.5960  0.4886
48980SOL    HW154180   4.228   9.448   7.932  1.1719  0.0361  1.5111
48980SOL    HW254181   4.110   9.356   7.944  1.7883 -0.8943  0.6167
48981SOL     OW54182   7.740  12.616  12.058 -0.5686  0.0653 -0.2411
48981SOL    HW154183   7.716  12.683  11.994 -0.3338  1.2965  0.9056
48981SOL    HW254184   7.835  12.616  12.057 -0.5509 -1.3555 -1.3039
48982SOL     OW54185  11.650  12.154   5.875 -0.4130  0.2220 -0.0024
48982SOL    HW154186  11.607  12.221   5.822  0.8623  1.1246  0.0551
48982SOL    HW254187  11.715  12.202   5.926  1.5324 -1.1915 -0.9948
48983SOL     OW54188   2.956   1.912   6.308 -0.0418  0.4875  0.0875
48983SOL    HW154189   3.007   1.880   6.234  0.9522  0.7561  0.6340
48983SOL    HW254190   2.907   1.987   6.273 -1.2905 -0.6988 -0.8297
48984SOL     OW54191  11.547   0.060   9.635  0.1127  0.8001  0.1398
48984SOL    HW154192  11.524  -0.032   9.622  2.6658 -0.0569  1.0141
48984SOL    HW254193  11.555   0.069   9.730  0.7510  1.6848  0.0100
48985SOL     OW54194  10.567   6.782   5.379  0.1150  0.5800 -0.4356
48985SOL    HW154195  10.552   6.711   5.316 -1.0507  1.8438 -1.6584
48985SOL    HW254196  10.493   6.776   5.440  1.4451 -0.8822  1.1166
48986SOL     OW54197   0.080   3.072   1.980 -0.5309  0.1817  0.1958
48986SOL    HW154198   0.110   3.097   2.067  0.7991  0.2013 -0.2460
48986SOL    HW254199   0.129   3.129   1.921 -0.5782 -0.5995 -0.6125
48987SOL     OW54200   1.728   1.442   9.647 -0.4690 -0.0819  0.6597
48987SOL    HW154201   1.817   1.470   9.670  0.0824 -2.3401  1.6103
48987SOL    HW254202   1.741   1.375   9.580 -1.2894 -1.5136  1.8570
48988SOL     OW54203   6.343   5.773   8.589 -0.3026  0.2451 -0.2452
48988SOL    HW154204   6.435   5.780   8.564 -0.2072  2.2270  0.4549
48988SOL    HW254205   6.305   5.713   8.525  0.9083  1.4517 -2.2168
48989SOL     OW54206   9.388  11.768   1.286 -0.2724 -0.2577 -0.4869
48989SOL    HW154207   9.353  11.774   1.196 -1.0538 -0.2642 -0.1946
48989SOL    HW254208   9.340  11.834   1.335  0.3697 -0.0477 -0.1308
48990SOL     OW54209   9.805   1.498   7.686 -0.7121 -0.1800 -0.0216
48990SOL    HW154210   9.875   1.539   7.635 -1.8319  0.4321 -1.1213
48990SOL    HW254211   9.848   1.425   7.732  0.5610 -0.0626 -0.9716
48991SOL     OW54212   4.334   1.196  12.675  0.5685 -0.0348  0.0682
48991SOL    HW154213   4.379   1.230  12.598  0.4115  2.2891  0.9278
48991SOL    HW254214   4.256   1.152  12.641 -0.5153  2.5698 -1.0809
48992SOL     OW54215   9.557   4.938   9.979  0.0768  1.3693  0.0190
48992SOL    HW154216   9.591   4.937   9.890  0.3171 -0.0731  0.0986
48992SOL    HW254217   9.573   4.849  10.012 -3.9425  0.4492  0.0051
48993SOL     OW54218   8.088   4.096   5.698  0.6296 -0.4625  0.0704
48993SOL    HW154219   8.125   4.157   5.762  0.2407  0.7285 -0.8113
48993SOL    HW254220   8.035   4.150   5.640  1.7293 -1.3386 -1.8540
48994SOL     OW54221   3.685  10.198  11.445  0.1419 -0.0408 -0.2639
48994SOL    HW154222   3.780  10.182  11.445  0.1350 -0.0798 -0.1632
48994SOL    HW254223   3.667  10.234  11.532 -0.1334 -1.2011  0.1743
48995SOL     OW54224  12.513   7.563   7.962  0.1725  0.4013  0.0058
48995SOL    HW154225  12.607   7.546   7.952  0.1248 -1.1772  1.7549
48995SOL    HW254226  12.472   7.478   7.946 -1.0433  1.1573 -1.1364
48996SOL     OW54227   3.273  11.480   3.168 -0.6386 -0.0451 -0.5303
48996SOL    HW154228   3.196  11.519   3.126 -1.8508  0.4684  1.9660
48996SOL    HW254229   3.338  11.550   3.169 -1.6311  0.9392  0.9257
48997SOL     OW54230   0.944   4.244   5.314 -0.0310 -0.0339  0.2358
48997SOL    HW154231   0.853   4.238   5.342 -0.0920 -0.3409 -0.0182
48997SOL    HW254232   0.992   4.189   5.375  0.2142  1.2991  1.3028
48998SOL     OW54233   0.440   6.081   0.703 -0.0472  0.1648  0.2919
48998SOL    HW154234   0.350   6.107   0.724 -0.8225 -0.1498 -2.3661
48998SOL    HW254235   0.495   6.149   0.743 -1.6513  2.1268 -0.7119
48999SOL     OW54236   2.603   8.473   3.843 -0.3303 -0.3238  0.5492
48999SOL    HW154237   2.681   8.524   3.822 -0.8471 -0.3205 -1.6841
48999SOL    HW254238   2.600   8.405   3.775 -3.7038  1.3510 -1.2099
49000SOL     OW54239   7.992   3.099   6.248  0.7546 -0.1549 -1.3045
49000SOL    HW154240   7.934   3.097   6.171 -0.7800 -0.1643 -0.2107
49000SOL    HW254241   8.005   3.007   6.270 -0.7183 -0.1641 -0.2552
49001SOL     OW54242   3.106   2.273   5.674  0.0318  0.2046 -0.5565
49001SOL    HW154243   3.075   2.285   5.584  0.9291  0.9455 -0.7875
49001SOL    HW254244   3.085   2.182   5.695  0.6892 -0.2854 -1.8804
49002SOL     OW54245   3.102   8.870   3.714  0.4485 -0.1010 -0.2969
49002SOL    HW154246   3.049   8.800   3.676  0.2909 -0.0830 -0.1101
49002SOL    HW254247   3.191   8.835   3.714  0.0369 -1.4033  2.2901
49003SOL     OW54248   5.359  12.204   7.335  0.3052  0.1236 -0.2095
49003SOL    HW154249   5.294  12.183   7.402  0.0906  0.2269 -0.3826
49003SOL    HW254250   5.435  12.151   7.358  0.9948  1.7071  1.3243
49004SOL     OW54251   7.122   3.386   8.919 -0.5186  0.1857 -0.0121
49004SOL    HW154252   7.076   3.453   8.969 -1.1212 -0.5724  0.4657
49004SOL    HW254253   7.183   3.435   8.864  0.2033  1.0486  1.4979
49005SOL     OW54254   0.060   2.505   0.310 -0.2097  0.2407 -0.7558
49005SOL    HW154255   0.043   2.589   0.269 -2.8122 -1.2732 -3.1090
49005SOL    HW254256   0.005   2.505   0.389  1.3221  1.4133  0.3679
49006SOL     OW54257   7.618  11.904  11.658 -0.6369 -0.1028  0.3921
49006SOL    HW154258   7.584  11.882  11.745  0.1492  0.5729  0.8777
49006SOL    HW254259   7.646  11.995  11.665  1.5651 -0.7019  0.1083
49007SOL     OW54260   4.214  10.685   4.198  0.0045 -0.4230 -0.0999
49007SOL    HW154261   4.285  10.742   4.227 -1.4584  1.6714 -0.3712
49007SOL    HW254262   4.215  10.692   4.102  0.8959 -2.3342 -0.2828
49008SOL     OW54263   4.408  11.777   0.754  0.6335  0.1078 -0.2616
49008SOL    HW154264   4.487  11.749   0.708  1.3344  0.3879  0.7452
49008SOL    HW254265   4.337  11.756   0.693  1.4220 -0.6706 -0.9501
49009SOL     OW54266   6.379   8.715   2.694 -0.2734  0.3803  0.2327
49009SOL    HW154267   6.350   8.801   2.724  1.3542  0.3927  1.9351
49009SOL    HW254268   6.473   8.713   2.715 -0.1561 -1.5652 -0.3465
49010SOL     OW54269   6.533   1.638   4.201  0.1928 -0.2734 -0.1502
49010SOL    HW154270   6.554   1.729   4.220 -0.6349 -0.5469  2.6860
49010SOL    HW254271   6.611   1.589   4.228 -0.5442 -0.5798  1.6249
49011SOL     OW54272   3.184   0.788   2.469  0.3072 -0.0029 -0.2344
49011SOL    HW154273   3.103   0.737   2.472  0.6510 -0.6467 -1.2334
49011SOL    HW254274   3.205   0.807   2.560 -0.9932  0.2160  0.0324
49012SOL     OW54275   8.787   9.299  11.056  0.1406  0.2558  0.7652
49012SOL    HW154276   8.759   9.208  11.054 -0.1071  0.3175  1.3983
49012SOL    HW254277   8.876   9.296  11.092 -0.2364  0.3529  1.7142
49013SOL     OW54278   8.750   3.944   0.457 -0.0445 -0.2959  0.0051
49013SOL    HW154279   8.659   3.935   0.484 -0.0092  0.4365  0.4089
49013SOL    HW254280   8.768   4.038   0.466  0.6300 -0.3706 -0.4581
49014SOL     OW54281   5.486   0.769   6.351  0.5673  0.2233  0.6066
49014SOL    HW154282   5.529   0.854   6.356 -2.0009  1.6887 -0.1876
49014SOL    HW254283   5.398   0.785   6.384 -0.5565 -1.6970 -1.2195
49015SOL     OW54284   1.610   0.846   8.647 -0.1257 -0.4201 -0.1117
49015SOL    HW154285   1.536   0.790   8.622 -0.0971 -0.5824  0.1624
49015SOL    HW254286   1.628   0.898   8.569 -0.7616 -0.1272 -0.0753
49016SOL     OW54287   6.135   5.115   4.057  0.1143  0.0216  0.3318
49016SOL    HW154288   6.110   5.143   4.145 -2.5258 -2.3960  0.5048
49016SOL    HW254289   6.084   5.172   3.999 -2.4950 -1.8518  0.6056
49017SOL     OW54290   4.165   6.817   2.010 -0.4044  0.3987 -0.0647
49017SOL    HW154291   4.245   6.818   1.957  0.5125  2.2726  1.2406
49017SOL    HW254292   4.132   6.727   2.002  1.1029 -0.0662 -1.6750
49018SOL     OW54293   6.558   7.406   8.396 -0.4021 -0.5322  0.6645
49018SOL    HW154294   6.584   7.479   8.340  0.8194 -0.0307  1.8408
49018SOL    HW254295   6.636   7.351   8.402 -1.5408 -2.4645 -0.9059
49019SOL     OW54296   1.239  11.704   4.975 -0.1559  0.6464 -0.2335
49019SOL    HW154297   1.328  11.694   5.011 -1.0535 -1.4418  1.6843
49019SOL    HW254298   1.184  11.717   5.052 -1.7133  0.1624 -1.2195
49020SOL     OW54299   8.167   3.897   9.965 -0.3485 -0.1712 -0.7468
49020SOL    HW154300   8.180   3.819   9.911 -2.8067 -1.8270  0.8301
49020SOL    HW254301   8.175   3.970   9.904 -0.3335 -1.7854 -2.7821
49021SOL     OW54302   7.621   4.907   1.322 -0.1407  0.1257 -0.0926
49021SOL    HW154303   7.713   4.929   1.316 -0.3756  1.0097 -0.6059
49021SOL    HW254304   7.604   4.896   1.416  0.6663 -0.8814 -0.0535
49022SOL     OW54305   6.001  11.651   8.816 -0.3480 -0.1763 -0.0876
49022SOL    HW154306   5.918  11.670   8.773 -1.6244 -4.0462  0.2597
49022SOL    HW254307   6.047  11.593   8.756  1.0316 -0.0062  0.7579
49023SOL     OW54308  11.623   5.274   8.503 -0.2671  0.0614  0.1914
49023SOL    HW154309  11.568   5.201   8.532 -0.0279 -0.1497  0.1096
49023SOL    HW254310  11.710   5.236   8.491  0.3714  0.7443  2.1383
49024SOL     OW54311   1.318   6.066   3.013  0.2133  0.7186  0.0018
49024SOL    HW154312   1.331   6.160   3.030 -2.1758  1.4506 -1.7890
49024SOL    HW254313   1.387   6.044   2.951  1.3648  1.0200  1.1232
49025SOL     OW54314   7.320   4.843  12.406  0.1147 -0.0829  0.1487
49025SOL    HW154315   7.316   4.828  12.500 -0.0082  1.9736  0.5115
49025SOL    HW254316   7.341   4.936  12.397  0.0588 -0.2194 -1.8534
49026SOL     OW54317   1.259   8.247   4.732 -0.2835 -0.3174  0.6200
49026SOL    HW154318   1.276   8.238   4.638 -0.3339 -0.3827  0.6170
49026SOL    HW254319   1.341   8.280   4.769 -0.4082  0.1489  0.4811
49027SOL     OW54320   6.620  10.400   2.706 -0.1281 -0.1893 -0.0369
49027SOL    HW154321   6.531  10.436   2.702  0.2981  0.8190 -1.4528
49027SOL    HW254322   6.653  10.424   2.792 -0.8018  0.5252  0.0303
49028SOL     OW54323   4.139  11.262   7.136 -0.2491  0.2637  0.6375
49028SOL    HW154324   4.104  11.322   7.070  2.0851 -0.2177 -1.1684
49028SOL    HW254325   4.196  11.203   7.086 -1.3108 -2.5671  2.5422
49029SOL     OW54326   5.055   0.188   8.189 -0.0159 -0.4982  0.0542
49029SOL    HW154327   5.032   0.255   8.252 -1.4082 -0.1555 -0.7845
49029SOL    HW254328   4.992   0.118   8.204  0.5117 -1.0043 -0.0481
49030SOL     OW54329   7.696   5.992   5.633  0.3365 -0.3270 -0.7163
49030SOL    HW154330   7.648   6.031   5.559  0.0902  0.6861 -0.0485
49030SOL    HW254331   7.778   6.041   5.636 -0.1655  0.4791  0.4127
49031SOL     OW54332   8.219  10.259  10.134 -0.1775 -0.4049  0.0589
49031SOL    HW154333   8.175  10.175  10.121 -0.1178 -0.5213  0.5771
49031SOL    HW254334   8.147  10.321  10.146 -0.2449 -0.2243 -1.1711
49032SOL     OW54335   1.659   4.869   7.006 -0.7040 -0.4191  0.0151
49032SOL    HW154336   1.680   4.946   7.059  0.5153 -0.1745 -0.7631
49032SOL    HW254337   1.600   4.817   7.060 -2.5101  1.6023  0.1106
49033SOL     OW54338  11.057  11.194   0.296 -0.1910 -0.0283  0.2002
49033SOL    HW154339  11.093  11.152   0.375  0.3621  1.2045  0.6293
49033SOL    HW254340  11.133  11.226   0.249 -0.5945  0.4074 -0.1664
49034SOL     OW54341   9.968   4.913  10.280 -0.2325  0.1223 -0.4306
49034SOL    HW154342   9.956   4.914  10.185 -0.3257 -1.5570 -0.4719
49034SOL    HW254343   9.906   4.979  10.313 -2.1657 -1.1243 -1.3646
49035SOL     OW54344  11.971  12.445  11.540  0.0889  0.2297 -0.4094
49035SOL    HW154345  12.021  12.522  11.567 -0.2639  0.7575 -1.2355
49035SOL    HW254346  11.962  12.393  11.621  1.6192  0.2983 -0.1631
49036SOL     OW54347  10.384   8.711  12.267 -0.0026 -0.3019  0.1243
49036SOL    HW154348  10.295   8.734  12.243 -0.4337 -0.2736  1.6037
49036SOL    HW254349  10.399   8.626  12.227  0.4688  1.0131 -2.7443
49037SOL     OW54350   1.681   3.791   2.255 -0.8659  0.5980 -0.2310
49037SOL    HW154351   1.640   3.705   2.269  0.7895 -0.3716 -1.0073
49037SOL    HW254352   1.636   3.826   2.178  0.7677 -1.2082 -2.1316
49038SOL     OW54353   0.478   4.157   5.919  0.3419 -0.3608 -0.0769
49038SOL    HW154354   0.477   4.072   5.876 -0.7158  0.4018 -1.6551
49038SOL    HW254355   0.571   4.177   5.932  0.5901 -1.9117  0.7077
49039SOL     OW54356  10.353   5.783   1.666 -0.3948 -0.3570 -0.7081
49039SOL    HW154357  10.425   5.806   1.607  2.2884 -0.8243  2.1436
49039SOL    HW254358  10.309   5.710   1.623  1.0007 -0.2528 -2.4357
49040SOL     OW54359  10.208   7.554   6.829 -0.4317 -0.0647  0.2128
49040SOL    HW154360  10.299   7.583   6.829 -0.5727  0.3890  0.3023
49040SOL    HW254361  10.211   7.464   6.860 -0.1972  0.5336  2.0156
49041SOL     OW54362  10.336   5.177   5.440  0.6214 -0.1306  0.1545
49041SOL    HW154363  10.431   5.179   5.452  0.6938  0.6115 -0.4631
49041SOL    HW254364  10.316   5.258   5.392 -0.3685 -0.0888  0.6042
49042SOL     OW54365   6.537   0.584  10.987 -0.3972  0.0702 -0.0023
49042SOL    HW154366   6.528   0.598  11.081 -0.5834  0.5592 -0.0918
49042SOL    HW254367   6.470   0.518  10.966 -0.7549  0.3991  0.1053
49043SOL     OW54368   7.870   8.721   7.597 -0.0151 -0.5461  0.3863
49043SOL    HW154369   7.799   8.715   7.532  0.8830  1.4550 -0.8725
49043SOL    HW254370   7.825   8.715   7.681 -2.2124  3.5688 -0.2265
49044SOL     OW54371   3.332   7.015   5.429 -0.4801  0.2180  0.4279
49044SOL    HW154372   3.296   7.023   5.517 -1.6227  1.8778 -0.1290
49044SOL    HW254373   3.387   7.093   5.418  2.0975 -1.4593  0.6744
49045SOL     OW54374   5.383  12.574   3.229  0.4676  0.0485 -0.2963
49045SOL    HW154375   5.439  12.506   3.194  0.6558  0.5821 -1.0534
49045SOL    HW254376   5.318  12.590   3.161  0.9880  1.2625 -0.5541
49046SOL     OW54377   0.962   0.302   8.900  0.7294  0.5970  0.1105
49046SOL    HW154378   0.897   0.366   8.931  0.4362  0.2468  0.2281
49046SOL    HW254379   0.975   0.325   8.808  0.1021  0.4002 -0.0336
49047SOL     OW54380   8.082   2.935  10.273  0.0128 -0.0618  0.5927
49047SOL    HW154381   8.158   2.949  10.216 -0.6026 -2.8805 -1.1380
49047SOL    HW254382   8.102   2.854  10.320 -1.7613 -0.7265  0.2753
49048SOL     OW54383  11.797   6.723   8.278 -0.2124  0.0193 -0.5212
49048SOL    HW154384  11.799   6.715   8.373 -0.1125  1.2121 -0.4104
49048SOL    HW254385  11.737   6.795   8.261 -0.3380 -0.2785 -1.3694
49049SOL     OW54386   9.815   2.930  10.581 -0.2886 -0.5005 -0.0217
49049SOL    HW154387   9.784   2.969  10.663 -0.7981 -1.2895  0.1755
49049SOL    HW254388   9.737   2.892  10.541  0.0794 -0.7422 -0.5238
49050SOL     OW54389   3.345   6.380   9.266 -0.2863  0.3034  0.3664
49050SOL    HW154390   3.260   6.421   9.283 -0.4152 -0.0443  0.5658
49050SOL    HW254391   3.325   6.287   9.253  0.2053 -0.0121  1.7426
49051SOL     OW54392   3.924   6.732   0.328 -0.2238  0.1387 -0.0459
49051SOL    HW154393   3.991   6.671   0.296 -1.1587 -0.4102 -1.0406
49051SOL    HW254394   3.922   6.719   0.422  0.6038 -0.3138 -0.0802
49052SOL     OW54395   4.408   9.945  10.397 -0.1129  0.1682  0.2484
49052SOL    HW154396   4.370  10.017  10.448  0.1675  2.0471 -2.0245
49052SOL    HW254397   4.335   9.907  10.349 -0.3155 -1.3528  1.6948
49053SOL     OW54398   2.240   0.926   8.292 -0.3464  0.3156  0.5893
49053SOL    HW154399   2.234   0.906   8.385  3.3958  1.1952  1.1576
49053SOL    HW254400   2.217   1.019   8.287  0.7353  0.6109  0.8793
49054SOL     OW54401  11.141   0.821   9.471  0.0306  0.0849  0.0126
49054SOL    HW154402  11.088   0.760   9.522  1.0587 -1.2060 -0.3846
49054SOL    HW254403  11.111   0.808   9.381  1.0371 -0.7357 -0.2299
49055SOL     OW54404  12.233  12.382  12.229  0.0699  0.5229  0.0500
49055SOL    HW154405  12.176  12.458  12.237  0.9109  1.0803  1.1781
49055SOL    HW254406  12.316  12.410  12.268  1.4140  0.0148 -2.2456
49056SOL     OW54407   1.479   4.315   8.947 -0.1030 -1.2817 -0.2687
49056SOL    HW154408   1.558   4.296   8.997 -0.6494 -1.3282  0.5927
49056SOL    HW254409   1.476   4.248   8.879  1.2104 -0.5799 -1.0485
49057SOL     OW54410   9.058   6.851   4.292  0.2910 -0.5991  0.5281
49057SOL    HW154411   9.153   6.852   4.304  0.6423 -2.1235 -1.6101
49057SOL    HW254412   9.036   6.759   4.276 -1.6323 -0.3519  1.3567
49058SOL     OW54413   9.666  10.060  10.452 -0.0585 -0.7703  0.4530
49058SOL    HW154414   9.733  10.068  10.384 -0.0485 -0.2735  0.5191
49058SOL    HW254415   9.705  10.001  10.517  0.0393 -1.0314  0.1654
49059SOL     OW54416   3.006   4.526   1.289  0.3075 -0.4320  0.1187
49059SOL    HW154417   3.062   4.604   1.288 -0.6596  0.2975  1.1497
49059SOL    HW254418   3.042   4.471   1.358  2.2527 -1.9288 -1.9124
49060SOL     OW54419   5.069   2.330   2.781 -0.0502  0.1184  0.3059
49060SOL    HW154420   4.998   2.394   2.788  0.4421  0.7154 -0.0273
49060SOL    HW254421   5.120   2.359   2.706 -1.0397 -1.9330 -1.2361
49061SOL     OW54422  12.034   3.713   4.560 -0.7092  0.1610  0.1649
49061SOL    HW154423  12.029   3.635   4.616 -0.0474 -1.5882 -2.0798
49061SOL    HW254424  12.087   3.775   4.611 -0.8619 -0.9949  1.8260
49062SOL     OW54425   2.337   5.729   6.834  0.2152 -0.1996 -1.1266
49062SOL    HW154426   2.417   5.752   6.881 -0.7942  0.5514  0.3257
49062SOL    HW254427   2.363   5.660   6.774  2.1676  0.7956 -1.4873
49063SOL     OW54428  12.395  10.305   0.893 -0.5229 -0.0864  0.5497
49063SOL    HW154429  12.412  10.369   0.823 -0.0761 -0.6102  0.1672
49063SOL    HW254430  12.323  10.252   0.861  0.2430 -0.8818  0.0864
49064SOL     OW54431   6.698   5.614   6.330 -0.1074  0.2973 -0.1979
49064SOL    HW154432   6.708   5.702   6.294 -0.9934 -0.1715 -1.6645
49064SOL    HW254433   6.618   5.619   6.383  0.3409  0.5820  0.4761
49065SOL     OW54434   9.266   3.032  10.337  0.2648 -0.0650  0.5618
49065SOL    HW154435   9.316   3.073  10.266 -0.5588  0.6865  0.3881
49065SOL    HW254436   9.253   2.942  10.310  2.5771 -0.6362  1.1893
49066SOL     OW54437   2.630  12.426  10.096  0.0341 -0.4536 -0.1178
49066SOL    HW154438   2.552  12.395  10.140  1.6766 -1.6217  2.2022
49066SOL    HW254439   2.666  12.493  10.154  0.9698 -0.2104 -0.9375
49067SOL     OW54440   6.961   6.399  11.599 -0.1749  0.2050 -0.1121
49067SOL    HW154441   7.018   6.475  11.610 -0.8546  0.6060  0.7022
49067SOL    HW254442   6.941   6.370  11.688 -0.3691 -0.6003 -0.4058
49068SOL     OW54443   6.272  11.101   4.152  0.2789 -0.7450  0.2512
49068SOL    HW154444   6.207  11.032   4.138  1.3754 -1.8244  0.3232
49068SOL    HW254445   6.295  11.094   4.245 -1.8311  1.7771  1.0926
49069SOL     OW54446   7.836   5.707   5.430  0.2640 -0.5461 -0.0188
49069SOL    HW154447   7.921   5.740   5.460  1.2078 -1.2728 -1.7625
49069SOL    HW254448   7.803   5.775   5.371 -1.2160  0.5153  1.9168
49070SOL     OW54449   5.737  10.758   3.390 -0.5580  0.1022 -0.2904
49070SOL    HW154450   5.740  10.664   3.378  2.0416  0.2762 -1.5296
49070SOL    HW254451   5.811  10.778   3.447  0.5282  1.5903 -2.0995
49071SOL     OW54452   0.713   4.462   5.994  0.4784  0.8592 -0.5699
49071SOL    HW154453   0.784   4.465   5.930  1.7596  1.6677  0.8292
49071SOL    HW254454   0.665   4.544   5.980  0.8406  1.1001 -0.4280
49072SOL     OW54455  11.753   0.243  12.241 -0.1794 -0.3914  0.1915
49072SOL    HW154456  11.721   0.261  12.330  1.9073  0.8710  0.7491
49072SOL    HW254457  11.724   0.154  12.223 -2.9350  0.2393  1.0616
49073SOL     OW54458   1.165   2.940   0.020  0.2521  0.2300  0.2805
49073SOL    HW154459   1.247   2.905  -0.014  1.3419  1.2328  1.7721
49073SOL    HW254460   1.143   3.013  -0.038 -1.8591 -2.4437 -2.6502
49074SOL     OW54461   6.733   6.826   0.617 -0.1389  0.5225 -0.1216
49074SOL    HW154462   6.646   6.828   0.657 -0.0299 -0.3726  0.1787
49074SOL    HW254463   6.771   6.743   0.645  0.6425  0.6975 -0.6181
49075SOL     OW54464   5.123   9.363   9.204 -0.0935  0.4177  0.2885
49075SOL    HW154465   5.050   9.406   9.248 -0.3380  1.5823 -1.1554
49075SOL    HW254466   5.086   9.328   9.124  0.5441 -0.7180  0.4737
49076SOL     OW54467   4.715  12.455   2.950  0.0591 -0.4266 -0.5592
49076SOL    HW154468   4.725  12.469   2.855 -1.3232 -0.2942 -0.7030
49076SOL    HW254469   4.625  12.424   2.960 -0.2974  0.9445  0.8554
49077SOL     OW54470   9.846   6.114   1.439 -0.0832  0.3471 -0.0035
49077SOL    HW154471   9.770   6.173   1.443  0.5546  1.2570 -0.7691
49077SOL    HW254472   9.899   6.148   1.367 -0.1540 -1.7830 -1.1436
49078SOL     OW54473   2.049  12.125  11.959  0.5084 -0.4830 -0.4474
49078SOL    HW154474   2.004  12.091  11.881  1.2505  0.6450 -1.4026
49078SOL    HW254475   2.126  12.068  11.969  1.2826  0.3357 -1.5277
49079SOL     OW54476   3.421  10.368   9.497 -0.1724 -0.3757 -0.0323
49079SOL    HW154477   3.515  10.376   9.481 -0.3247 -0.1884 -0.9120
49079SOL    HW254478   3.412  10.288   9.549  0.6281  0.6103  1.7167
49080SOL     OW54479   3.596   8.122   5.464 -0.1597  0.5578 -0.7695
49080SOL    HW154480   3.639   8.183   5.403 -0.7678  1.3953 -0.3781
49080SOL    HW254481   3.503   8.134   5.447 -0.3171  0.5058  0.0542
49081SOL     OW54482   7.359   0.141   5.909  1.0619 -0.8104 -0.6706
49081SOL    HW154483   7.389   0.215   5.856  0.3094 -0.6155 -0.8262
49081SOL    HW254484   7.269   0.125   5.881  0.5539 -0.5360  0.7349
49082SOL     OW54485  10.850   4.208   0.758 -0.2033  0.3385  0.2220
49082SOL    HW154486  10.914   4.269   0.795  0.6570  0.8257 -1.9658
49082SOL    HW254487  10.783   4.265   0.720 -0.2189 -0.1102 -0.4233
49083SOL     OW54488   8.590  10.820   3.941 -0.3489 -0.1905 -0.2763
49083SOL    HW154489   8.571  10.739   3.987 -0.4674 -0.8105 -1.3839
49083SOL    HW254490   8.654  10.865   3.997 -0.8150 -0.7017  0.6929
49084SOL     OW54491   8.753   8.417   1.669 -0.3699 -0.5486 -0.4980
49084SOL    HW154492   8.772   8.496   1.719  1.9322 -0.7137 -0.9639
49084SOL    HW254493   8.661   8.397   1.687  0.1042 -0.1473  2.9786
49085SOL     OW54494   3.952  11.311   0.765  0.3176 -0.1254  0.0214
49085SOL    HW154495   3.998  11.259   0.831 -0.3706  0.1733  0.7623
49085SOL    HW254496   3.988  11.400   0.776  0.0668 -0.0363  0.1329
49086SOL     OW54497  11.328   6.847  10.866 -0.2523  0.6229  0.2106
49086SOL    HW154498  11.312   6.937  10.896 -1.0731  0.5787 -0.0548
49086SOL    HW254499  11.406   6.819  10.914 -0.8295  0.9777  1.3905
49087SOL     OW54500   2.234   5.507   0.510  0.2108  0.0684  0.2891
49087SOL    HW154501   2.213   5.600   0.508  1.6936  0.4216 -0.5136
49087SOL    HW254502   2.160   5.465   0.465 -1.1275  0.6743  1.8251
49088SOL     OW54503   2.011   7.591   6.560  0.3730  0.5727 -0.5784
49088SOL    HW154504   2.076   7.661   6.549  0.2708  0.5895 -1.0804
49088SOL    HW254505   1.928   7.637   6.570  0.1359  0.5180 -2.0365
49089SOL     OW54506  11.071   0.227   4.412 -0.3390 -0.3093 -0.0178
49089SOL    HW154507  11.118   0.153   4.450  1.0700  0.2905 -0.5334
49089SOL    HW254508  11.003   0.187   4.358  0.0452 -1.2144  0.1551
49090SOL     OW54509   4.514   5.670  12.381 -0.2645  0.0400  0.0249
49090SOL    HW154510   4.467   5.739  12.334  3.3410  3.2036  0.5281
49090SOL    HW254511   4.515   5.699  12.472  0.6891 -1.0752  0.4051
49091SOL     OW54512   4.911  11.156   1.516 -0.0660 -1.0772  0.0047
49091SOL    HW154513   4.888  11.220   1.449 -1.3390  0.0778  1.4799
49091SOL    HW254514   4.882  11.072   1.480 -0.6879 -0.4998 -0.8925
49092SOL     OW54515   2.728   0.622   9.809  0.2568  0.3089 -0.0035
49092SOL    HW154516   2.785   0.699   9.817  1.9190 -0.9992  1.4328
49092SOL    HW254517   2.721   0.608   9.714  1.0241  1.4381 -0.2510
49093SOL     OW54518   4.757   7.633   4.446  0.0891 -0.7160 -0.1515
49093SOL    HW154519   4.725   7.546   4.467  1.1682 -0.8040  1.3367
49093SOL    HW254520   4.679   7.683   4.422 -0.9864 -1.2981  1.8840
49094SOL     OW54521   6.186   0.143  11.787 -0.4347  0.5369 -0.0978
49094SOL    HW154522   6.265   0.197  11.777  0.4513 -0.5689  0.6573
49094SOL    HW254523   6.114   0.201  11.762  0.7620  0.9113 -3.1097
49095SOL     OW54524   1.584   5.819   6.512  0.8868 -0.2148 -0.1874
49095SOL    HW154525   1.535   5.746   6.550 -1.1224  0.2042 -1.7877
49095SOL    HW254526   1.673   5.786   6.503  0.2606 -2.0959  0.0682
49096SOL     OW54527  10.417   2.314  11.432  0.1717 -0.2322  0.1917
49096SOL    HW154528  10.364   2.244  11.471  1.8340 -0.2569  2.6519
49096SOL    HW254529  10.505   2.299  11.466  1.3222  1.0579 -2.0322
49097SOL     OW54530   8.386   0.744   2.171 -0.1803 -0.0154 -0.0140
49097SOL    HW154531   8.392   0.838   2.152 -1.4707 -0.0514 -0.6704
49097SOL    HW254532   8.477   0.717   2.183  0.1637  1.4993  1.1739
49098SOL     OW54533   9.547   6.965  11.045  0.5413  0.7076  0.6388
49098SOL    HW154534   9.599   6.887  11.063 -0.0613 -0.2672 -1.4650
49098SOL    HW254535   9.607   7.038  11.061  1.8080 -0.2808  0.5693
49099SOL     OW54536   5.445   7.913   5.542  0.5918 -0.2018  0.1901
49099SOL    HW154537   5.536   7.944   5.548  1.2540 -1.5760 -1.6900
49099SOL    HW254538   5.397   7.988   5.505  1.1256  0.2482  0.3832
49100SOL     OW54539   1.474   5.545   7.787  0.3322 -0.6084 -0.0900
49100SOL    HW154540   1.466   5.578   7.697  3.1051  3.1997  0.8465
49100SOL    HW254541   1.531   5.469   7.779 -1.9448 -2.2951 -1.7648
49101SOL     OW54542   3.050   8.450   4.429  0.1461 -0.2551  0.3360
49101SOL    HW154543   3.056   8.368   4.380 -0.7089 -1.7333  2.5714
49101SOL    HW254544   3.114   8.440   4.500  0.6522  1.4160  0.1612
49102SOL     OW54545  11.329   1.344   8.145  0.4842 -0.6129 -0.1824
49102SOL    HW154546  11.326   1.409   8.075 -0.8829  0.8351  1.1339
49102SOL    HW254547  11.421   1.317   8.149  0.7183 -0.1961 -2.0150
49103SOL     OW54548   7.196   8.942   2.576 -0.3167  0.1803 -0.0905
49103SOL    HW154549   7.233   8.875   2.520  0.3113  0.8253 -0.4693
49103SOL    HW254550   7.167   8.895   2.654 -1.2200 -0.7314 -0.9469
49104SOL     OW54551   3.650  10.570   0.034  0.8629 -0.4688 -0.2671
49104SOL    HW154552   3.721  10.537   0.090  1.4022 -0.6881 -1.0699
49104SOL    HW254553   3.651  10.665   0.049  0.5543 -0.5854  0.5965
49105SOL     OW54554   4.234  10.721   7.672 -0.4362 -0.0389 -0.3470
49105SOL    HW154555   4.173  10.774   7.724  1.0205  0.2491  1.1564
49105SOL    HW254556   4.178  10.657   7.628 -1.6815 -1.4696  2.9584
49106SOL     OW54557   5.344  11.528   6.410 -0.4964 -0.0384  0.0445
49106SOL    HW154558   5.260  11.485   6.423 -0.8589  0.6415 -0.0270
49106SOL    HW254559   5.381  11.485   6.332 -1.4391  0.6696 -0.8110
49107SOL     OW54560  12.366   3.136   7.037  0.2540 -0.1793  0.1255
49107SOL    HW154561  12.432   3.073   7.063 -0.0228 -0.3835  0.3388
49107SOL    HW254562  12.380   3.211   7.094 -0.7155 -0.8436  1.2820
49108SOL     OW54563   3.284   3.041   1.358  0.1427  0.1288 -0.0666
49108SOL    HW154564   3.252   2.968   1.411  1.6127 -0.7008 -0.2576
49108SOL    HW254565   3.219   3.110   1.369 -1.5490 -1.3728 -0.2755
49109SOL     OW54566   0.595   7.017  11.191 -0.0835  0.2491 -0.1472
49109SOL    HW154567   0.666   7.057  11.142 -0.8781  2.0058  0.0538
49109SOL    HW254568   0.558   6.952  11.130  1.1280 -0.0948 -0.5460
49110SOL     OW54569   2.243   8.224  11.928 -0.1672  0.1275 -0.3289
49110SOL    HW154570   2.178   8.282  11.890 -0.0631  0.8205  0.5043
49110SOL    HW254571   2.319   8.231  11.870  0.0071  1.1980  0.0166
49111SOL     OW54572   1.823   0.327   7.750  0.1578 -0.5543  0.4748
49111SOL    HW154573   1.754   0.265   7.774  0.9610 -1.2566  1.0102
49111SOL    HW254574   1.782   0.413   7.757 -1.0049 -1.0175 -0.3831
49112SOL     OW54575   9.427   1.777   2.896 -0.4184  0.0425  0.1814
49112SOL    HW154576   9.479   1.733   2.830 -0.4356 -1.7508  1.2836
49112SOL    HW254577   9.480   1.773   2.976 -1.1960  0.3806  0.7349
49113SOL     OW54578   3.847   2.829  11.024 -0.2477  0.2803  0.2734
49113SOL    HW154579   3.924   2.810  10.970 -1.1802  0.2020 -1.0888
49113SOL    HW254580   3.871   2.906  11.075  0.7466  0.2341 -0.1064
49114SOL     OW54581   4.597   2.802   4.248 -0.3952  0.6836  0.0672
49114SOL    HW154582   4.682   2.759   4.258  0.1502  2.0140  1.7597
49114SOL    HW254583   4.613   2.892   4.274 -1.8507  1.5590 -1.8315
49115SOL     OW54584   1.407   2.581  12.545 -0.2189 -0.1452 -0.0038
49115SOL    HW154585   1.480   2.523  12.568  0.8018  0.1502 -2.2841
49115SOL    HW254586   1.329   2.527  12.555  0.2640 -0.5093  2.3515
49116SOL     OW54587   2.704   3.330   0.721  0.1097  0.8149  0.1517
49116SOL    HW154588   2.728   3.345   0.812 -0.2557 -0.4885  0.4918
49116SOL    HW254589   2.786   3.306   0.677  0.2564  1.2704  0.1798
49117SOL     OW54590   6.675   0.224   8.862 -0.2747 -0.7389 -0.4496
49117SOL    HW154591   6.759   0.249   8.825 -0.3904  0.2680 -0.0608
49117SOL    HW254592   6.696   0.183   8.946 -0.2332  2.4894  1.3107
49118SOL     OW54593   9.115   6.901   5.222  0.3841  0.8740  0.2225
49118SOL    HW154594   9.092   6.990   5.247 -1.7939  0.1772  0.9668
49118SOL    HW254595   9.049   6.875   5.158  0.8248 -0.2896  0.1970
49119SOL     OW54596  10.713   7.305   1.759  0.1040 -0.0599  0.5059
49119SOL    HW154597  10.706   7.274   1.849  1.0758 -2.5416 -0.1771
49119SOL    HW254598  10.718   7.225   1.707  2.6822  1.2641 -1.4922
49120SOL     OW54599   0.636   2.102   5.603 -0.4159 -1.1904  0.4372
49120SOL    HW154600   0.713   2.046   5.600 -0.7018 -1.5824  0.2013
49120SOL    HW254601   0.568   2.047   5.642 -0.2393 -0.4289  1.8704
49121SOL     OW54602   8.069   6.045   9.774  0.1059  0.1101  0.3796
49121SOL    HW154603   8.062   6.141   9.772  2.2191  0.3050  0.1571
49121SOL    HW254604   8.091   6.025   9.865 -0.0330 -0.1563  0.3560
49122SOL     OW54605   1.897   5.420   2.863  0.6401  0.1463 -0.5235
49122SOL    HW154606   1.960   5.415   2.792  0.6400  0.6307 -0.5615
49122SOL    HW254607   1.948   5.450   2.939  0.3293  1.2528 -0.7313
49123SOL     OW54608   1.606  11.413   2.543  0.1948 -0.0236 -0.4481
49123SOL    HW154609   1.567  11.444   2.625 -1.1994 -0.7750 -0.7908
49123SOL    HW254610   1.696  11.444   2.546 -0.2015  1.1021  0.7554
49124SOL     OW54611   0.613   7.501   9.722 -0.9047 -0.1542 -1.0404
49124SOL    HW154612   0.607   7.553   9.802 -0.7088 -1.3806 -0.1880
49124SOL    HW254613   0.699   7.522   9.685  0.2273 -1.6221  0.6064
49125SOL     OW54614   3.758  11.273   6.213 -0.1075 -0.1651  0.1310
49125SOL    HW154615   3.837  11.309   6.255  0.5279 -2.1118  0.7072
49125SOL    HW254616   3.747  11.187   6.253 -1.7314 -0.5112 -0.9765
49126SOL     OW54617   8.704   0.801   2.804 -0.0248 -0.6681  0.2905
49126SOL    HW154618   8.756   0.832   2.730 -0.0637 -0.1244  0.4845
49126SOL    HW254619   8.758   0.823   2.881 -0.3913 -0.3897  0.4731
49127SOL     OW54620   8.616   0.562   1.151 -0.6531  0.7833 -0.0333
49127SOL    HW154621   8.610   0.592   1.060  1.5502 -1.3509 -0.9828
49127SOL    HW254622   8.675   0.625   1.193 -1.8556  1.9091  0.0688
49128SOL     OW54623   4.248   6.169   4.549  0.1728 -0.0442 -0.8014
49128SOL    HW154624   4.283   6.138   4.633 -1.4299  0.9229  0.2850
49128SOL    HW254625   4.294   6.252   4.533  0.2019 -0.0398 -0.6950
49129SOL     OW54626   1.283  11.883   1.840  0.4967 -0.3064 -0.0414
49129SOL    HW154627   1.278  11.845   1.753  1.3463  1.2749 -0.8148
49129SOL    HW254628   1.267  11.977   1.827 -1.8927 -0.3621  1.8471
49130SOL     OW54629  10.389   6.481   9.578 -0.8901 -0.0026  0.0551
49130SOL    HW154630  10.430   6.405   9.537 -0.0514 -0.5264  1.7910
49130SOL    HW254631  10.307   6.449   9.614 -0.1712 -0.2910  1.4702
49131SOL     OW54632  11.005   4.990   6.507 -0.1680 -0.1228 -0.2209
49131SOL    HW154633  11.032   4.926   6.573  1.1636  0.2050 -0.4090
49131SOL    HW254634  10.917   5.016   6.533  0.6498  0.6846  1.9891
49132SOL     OW54635   5.996   0.004   6.635 -0.0311  0.0213  0.7256
49132SOL    HW154636   5.954  -0.047   6.566 -0.9288 -0.4410  1.5756
49132SOL    HW254637   5.996  -0.055   6.711  2.0637  0.0637  0.8082
49133SOL     OW54638   0.296   6.239   8.432  0.0184  0.0966  0.7318
49133SOL    HW154639   0.304   6.227   8.337  1.1007 -1.6133  0.9861
49133SOL    HW254640   0.305   6.151   8.468  1.3180  0.8974  2.5132
49134SOL     OW54641   8.391   2.344   8.244 -0.4993 -0.1221 -0.2680
49134SOL    HW154642   8.455   2.356   8.314 -0.5100  0.2419 -0.3179
49134SOL    HW254643   8.443   2.313   8.170 -0.4395 -0.1994 -0.1929
49135SOL     OW54644   8.394   3.374   4.501 -0.0887 -0.0028 -0.0925
49135SOL    HW154645   8.327   3.416   4.556 -0.8156  0.8545 -1.5537
49135SOL    HW254646   8.379   3.281   4.511 -2.7095  0.1291 -1.6513
49136SOL     OW54647   6.600   7.430   1.329  0.5688  0.1247  0.1254
49136SOL    HW154648   6.678   7.382   1.357 -0.4354 -1.0609  1.0286
49136SOL    HW254649   6.582   7.491   1.401  0.7700  0.5115 -0.1558
49137SOL     OW54650  12.637   4.764   5.189  0.2415  0.0763 -0.4496
49137SOL    HW154651  12.587   4.726   5.117  0.6691 -1.2390 -0.0950
49137SOL    HW254652  12.599   4.851   5.202 -1.8675 -0.7972 -0.3034
49138SOL     OW54653   8.013   8.344  10.855  0.0526  0.1134  0.5312
49138SOL    HW154654   8.050   8.422  10.895 -0.9063  1.9912 -1.9830
49138SOL    HW254655   7.918   8.354  10.867 -0.3746  1.2975 -2.8304
49139SOL     OW54656   5.623   0.953   8.156 -0.4852  0.6986 -0.4503
49139SOL    HW154657   5.556   0.930   8.220  0.2981  0.5507  0.3547
49139SOL    HW254658   5.600   0.905   8.077 -0.5982 -0.4061  0.2294
49140SOL     OW54659  10.465   4.459   9.067 -0.2857  0.0175 -0.2906
49140SOL    HW154660  10.528   4.505   9.122 -0.3778 -1.6036  1.2585
49140SOL    HW254661  10.415   4.529   9.024  0.3436  1.3358  1.0376
49141SOL     OW54662   0.314  12.112   2.173  0.2511  0.4510 -0.8475
49141SOL    HW154663   0.367  12.080   2.246  0.7233  0.8055 -1.0369
49141SOL    HW254664   0.226  12.076   2.189  0.9082 -1.5261 -1.3983
49142SOL     OW54665   9.435   7.732   1.198  0.2227  0.4610 -0.3859
49142SOL    HW154666   9.389   7.665   1.147 -0.8336  0.5764  0.3730
49142SOL    HW254667   9.372   7.756   1.266  1.2203  1.0397  0.3429
49143SOL     OW54668   5.449  11.005   2.025  0.5516  0.1004  0.1401
49143SOL    HW154669   5.508  11.061   2.076 -0.1659 -0.8799  2.1578
49143SOL    HW254670   5.506  10.960   1.963  1.4084  1.6091 -0.2132
49144SOL     OW54671   4.356   0.746   9.063  0.2423  0.0757 -0.1283
49144SOL    HW154672   4.396   0.704   8.986  0.1483  2.7566 -1.7979
49144SOL    HW254673   4.267   0.767   9.035  0.1246  0.8917  0.8066
49145SOL     OW54674   7.727  12.518   5.884 -0.0292 -0.0018 -0.0214
49145SOL    HW154675   7.792  12.531   5.953  0.5866 -2.3655 -0.0534
49145SOL    HW254676   7.762  12.566   5.808  0.7236  0.2847  0.4974
49146SOL     OW54677  11.602   6.615   0.258  0.2875 -0.5042 -0.1003
49146SOL    HW154678  11.678   6.671   0.275 -0.2012  0.2865 -0.4541
49146SOL    HW254679  11.600   6.604   0.163 -0.0875 -0.4464 -0.1017
49147SOL     OW54680  12.266  10.036   4.754 -0.0160 -0.1726  0.0967
49147SOL    HW154681  12.178  10.074   4.754 -0.0910 -0.3453  0.3168
49147SOL    HW254682  12.282  10.012   4.846  0.6195  0.6836  0.2291
49148SOL     OW54683  10.924   1.389   7.821 -0.3232  0.3871  0.5652
49148SOL    HW154684  10.845   1.339   7.801  0.1443 -0.8152  1.5618
49148SOL    HW254685  10.921   1.401   7.916  1.6306 -1.4596  0.9558
49149SOL     OW54686   8.389  12.193   0.112  0.0356 -0.1119 -0.1413
49149SOL    HW154687   8.390  12.121   0.175  0.7744  1.0634  1.2539
49149SOL    HW254688   8.376  12.151   0.027 -0.3573 -1.8020  0.7234
49150SOL     OW54689   6.540  10.922  10.472  0.6486 -0.0779 -0.3276
49150SOL    HW154690   6.506  10.970  10.547  1.3850  2.2266 -1.3672
49150SOL    HW254691   6.465  10.913  10.413  0.9145  1.7022 -1.0058
49151SOL     OW54692   8.126   9.406  10.120  0.5587  0.0445  0.0215
49151SOL    HW154693   8.052   9.371  10.071  1.9629  1.4436 -3.4571
49151SOL    HW254694   8.203   9.370  10.075  1.9629  2.7255  0.0869
49152SOL     OW54695  11.317   5.512   3.008 -0.4120  0.0394 -0.0751
49152SOL    HW154696  11.326   5.599   3.048  0.1411 -0.7433  1.6471
49152SOL    HW254697  11.262   5.463   3.069  0.6077 -1.2780 -0.1471
49153SOL     OW54698   3.930  12.153  12.148  0.1324  0.5999  0.2248
49153SOL    HW154699   3.937  12.205  12.228  1.7329  1.7202 -0.5919
49153SOL    HW254700   3.888  12.211  12.085  1.1778  0.6340 -0.4612
49154SOL     OW54701   9.819   5.243   0.593  0.7352 -0.1958 -0.1494
49154SOL    HW154702   9.833   5.176   0.527 -2.3119  1.4622 -2.8066
49154SOL    HW254703   9.751   5.206   0.650 -0.4665  0.3015 -1.2165
49155SOL     OW54704   9.187  10.853   9.120 -0.8265 -0.0990  0.1372
49155SOL    HW154705   9.265  10.889   9.161  0.0604 -0.1747 -1.3993
49155SOL    HW254706   9.147  10.928   9.075  0.0070 -0.5983 -1.5207
49156SOL     OW54707  10.263   3.912   2.180  0.2664 -0.2003  0.3480
49156SOL    HW154708  10.222   3.876   2.258  2.0576 -0.4499  1.2424
49156SOL    HW254709  10.316   3.840   2.145 -0.8777 -0.2395 -1.4074
49157SOL     OW54710   5.093   6.007   3.281 -0.1765  0.3945 -0.0796
49157SOL    HW154711   5.096   5.999   3.185  1.2108  0.6374 -0.0815
49157SOL    HW254712   5.163   6.069   3.302 -0.2166  0.0554  1.1192
49158SOL     OW54713   3.067  10.788   2.909 -0.4230  0.1364  0.2450
49158SOL    HW154714   3.143  10.768   2.963 -0.4898 -0.4159  0.1333
49158SOL    HW254715   3.104  10.825   2.828 -0.3580  2.3153  1.1906
49159SOL     OW54716   2.275  11.703   3.881 -0.6632  0.1420  0.3091
49159SOL    HW154717   2.244  11.748   3.802 -0.8298 -0.6719 -0.0965
49159SOL    HW254718   2.275  11.771   3.948 -2.5105  0.3821  0.1256
49160SOL     OW54719   5.866  10.286  10.250  0.2458  0.1324  0.1390
49160SOL    HW154720   5.826  10.250  10.171  0.1985 -0.9486  0.6434
49160SOL    HW254721   5.803  10.350  10.281 -1.7275 -2.3074  1.5374
49161SOL     OW54722  10.748   6.546   1.597 -0.2325  0.3454 -0.3957
49161SOL    HW154723  10.695   6.554   1.518 -0.5220 -1.0956 -0.3710
49161SOL    HW254724  10.806   6.622   1.594  0.8900 -0.4716 -2.8764
49162SOL     OW54725   5.353   1.189   3.174  0.1269 -0.0246  0.3238
49162SOL    HW154726   5.387   1.158   3.090  1.1728  1.4862  0.1565
49162SOL    HW254727   5.290   1.121   3.201  0.1392 -0.7729 -1.4221
49163SOL     OW54728   7.694  12.021   9.572  0.0591 -0.9358  0.6251
49163SOL    HW154729   7.644  12.048   9.495  1.9766  1.3303  0.0657
49163SOL    HW254730   7.764  11.966   9.536  1.9443  1.4445  0.3931
49164SOL     OW54731   8.512   2.326   5.935 -0.0838 -0.1385 -0.2432
49164SOL    HW154732   8.561   2.274   5.872 -0.7296 -2.2561  0.9021
49164SOL    HW254733   8.578   2.363   5.994  0.7051  3.1896 -2.8822
49165SOL     OW54734  12.676   2.740   7.980  0.2736  0.1833 -0.2498
49165SOL    HW154735  12.728   2.673   7.936  1.9573  1.1503  0.1598
49165SOL    HW254736  12.674   2.712   8.072 -1.0186 -0.4851 -0.4617
49166SOL     OW54737   9.688   2.626  11.851 -0.4829  0.8101  0.5439
49166SOL    HW154738   9.640   2.547  11.826 -0.1590  0.6333  0.4767
49166SOL    HW254739   9.771   2.593  11.888  0.9470  1.1461 -2.1057
49167SOL     OW54740   0.778   8.036   2.026 -0.1480  0.2821  0.0559
49167SOL    HW154741   0.827   8.117   2.028  0.5999 -0.0596 -2.1024
49167SOL    HW254742   0.695   8.059   1.983 -1.5753  0.6403  2.7842
49168SOL     OW54743   9.660  11.017   8.430  0.1590 -0.9871  0.8733
49168SOL    HW154744   9.673  11.076   8.356 -1.2953  0.1446  1.4631
49168SOL    HW254745   9.697  10.934   8.401 -0.2738 -0.5566 -1.0893
49169SOL     OW54746   1.858   7.222   2.203 -0.3425 -0.1331 -0.5798
49169SOL    HW154747   1.787   7.276   2.239 -1.7506 -1.5877 -1.0503
49169SOL    HW254748   1.928   7.284   2.184 -2.1807  1.6987 -1.8705
49170SOL     OW54749   4.249   1.182   7.290  0.1862  0.7433  0.0796
49170SOL    HW154750   4.316   1.206   7.354  0.7440 -1.2838  0.3281
49170SOL    HW254751   4.252   1.252   7.225  1.9195  1.1880  0.5752
49171SOL     OW54752   9.397   9.664   1.065  0.5926 -0.2677  0.2572
49171SOL    HW154753   9.483   9.683   1.027  1.2507  0.1908  1.8775
49171SOL    HW254754   9.336   9.720   1.016  1.3599  0.1366 -0.2546
49172SOL     OW54755  10.877   7.838   2.241 -0.7578  0.2992 -0.4299
49172SOL    HW154756  10.841   7.854   2.153  0.2772 -0.1658 -0.9542
49172SOL    HW254757  10.901   7.746   2.240 -1.1885  0.1673  0.5259
49173SOL     OW54758   6.842  11.713  11.680  0.3506  0.4131 -0.3230
49173SOL    HW154759   6.901  11.788  11.672  1.3680 -0.0690  1.9192
49173SOL    HW254760   6.862  11.657  11.605  0.8478  1.5124 -1.0228
49174SOL     OW54761   6.162  10.534   3.061  0.2736  0.1904  0.7212
49174SOL    HW154762   6.218  10.470   3.017 -0.6572 -0.6058  0.6707
49174SOL    HW254763   6.218  10.610   3.073  0.6451  0.3791 -1.6757
49175SOL     OW54764   7.569   0.548   8.345  0.1377  0.3485  0.0322
49175SOL    HW154765   7.524   0.618   8.393  0.2207 -0.1434  0.8506
49175SOL    HW254766   7.499   0.493   8.310  0.0499 -0.7694  1.8300
49176SOL     OW54767   0.339   8.807   1.897  0.3078  0.2402  0.2804
49176SOL    HW154768   0.375   8.737   1.842 -1.1427  1.0175 -1.7603
49176SOL    HW254769   0.367   8.888   1.854  0.5146  0.9284  1.6485
49177SOL     OW54770  11.652   4.522   5.368  0.1806 -0.0873 -0.5764
49177SOL    HW154771  11.631   4.436   5.331  0.4188 -0.8226  0.9171
49177SOL    HW254772  11.688   4.571   5.295  1.2112 -1.6688 -1.1889
49178SOL     OW54773  10.810  11.992  10.322 -0.1315  0.0610  0.2936
49178SOL    HW154774  10.867  12.030  10.389 -0.3492 -1.2444  1.2725
49178SOL    HW254775  10.767  11.919  10.366 -1.0781 -0.1996 -0.9934
49179SOL     OW54776   9.144  11.863   3.384 -0.1867 -0.1412 -0.1885
49179SOL    HW154777   9.228  11.867   3.430  0.1235  1.3342 -0.8219
49179SOL    HW254778   9.145  11.779   3.338  1.4064  0.3105 -1.0297
49180SOL     OW54779   9.703   7.448  10.837 -0.1140  0.4959 -0.6148
49180SOL    HW154780   9.619   7.413  10.806 -0.7392  1.3774  0.0291
49180SOL    HW254781   9.754   7.460  10.757 -1.1480  1.3337 -1.1741
49181SOL     OW54782   5.195   1.054   1.296  0.3712  0.0197  0.9439
49181SOL    HW154783   5.217   1.079   1.206  0.2439  0.4470  1.0271
49181SOL    HW254784   5.251   1.109   1.350 -1.0271  1.3078  1.1645
49182SOL     OW54785   4.856   9.454  12.244  0.2961  0.2871  0.0432
49182SOL    HW154786   4.905   9.533  12.264 -0.2211  0.5335  0.3614
49182SOL    HW254787   4.779   9.485  12.195  1.0977 -0.2136 -1.6344
49183SOL     OW54788   1.381  10.371   6.452 -0.7048 -0.0845  0.0975
49183SOL    HW154789   1.445  10.301   6.448 -0.8138 -0.1562 -0.4926
49183SOL    HW254790   1.430  10.447   6.483 -0.7305 -0.5758  1.4098
49184SOL     OW54791  11.467   1.743  12.344  0.2615 -0.3326 -0.3725
49184SOL    HW154792  11.387   1.763  12.296  1.1983 -0.7472 -2.1762
49184SOL    HW254793  11.533   1.731  12.277  1.5734 -1.2440  1.0215
49185SOL     OW54794   7.570   7.271   5.563 -0.4597  0.0169  0.0529
49185SOL    HW154795   7.656   7.230   5.564  0.2006  1.3340  0.9931
49185SOL    HW254796   7.523   7.226   5.493  0.5978 -1.4893  0.2511
49186SOL     OW54797   9.559   3.269   5.973  0.3826  0.2572  0.2503
49186SOL    HW154798   9.465   3.258   5.960  0.7824 -3.5992 -0.4657
49186SOL    HW254799   9.596   3.269   5.885  1.0874  2.3511  0.4888
49187SOL     OW54800   8.826  12.406   7.664  0.2188  0.4776  0.2093
49187SOL    HW154801   8.749  12.354   7.644  0.7343 -0.4873  0.7076
49187SOL    HW254802   8.807  12.447   7.748 -1.3531  3.3977 -1.4056
49188SOL     OW54803   4.481   9.599  11.533 -0.6644 -0.3147  0.0628
49188SOL    HW154804   4.552   9.534  11.538 -2.0946 -2.2845 -2.6109
49188SOL    HW254805   4.524   9.682  11.552  1.7600 -1.7326  1.3519
49189SOL     OW54806   6.740   8.298  10.559 -0.2202 -0.1623  0.3992
49189SOL    HW154807   6.744   8.301  10.464 -0.3318 -1.1550  0.3530
49189SOL    HW254808   6.783   8.379  10.588 -2.8003  1.6662 -0.5238
49190SOL     OW54809   9.391   0.902   8.110 -0.1640 -0.4325 -0.8912
49190SOL    HW154810   9.369   0.965   8.041  0.7257 -0.1342 -0.9123
49190SOL    HW254811   9.485   0.915   8.125 -0.6030  0.5890  1.4382
49191SOL     OW54812   4.518   3.593   5.347  0.3645  0.2055 -0.0899
49191SOL    HW154813   4.522   3.526   5.279 -1.0227  0.5186 -0.5240
49191SOL    HW254814   4.425   3.597   5.371  0.8033  0.1096  1.8315
49192SOL     OW54815   9.581  10.139   2.547  0.4931  0.5889 -0.0195
49192SOL    HW154816   9.647  10.170   2.485  1.2098 -1.0202 -0.1146
49192SOL    HW254817   9.505  10.120   2.493  0.5308  0.8304 -0.1585
49193SOL     OW54818   8.433   8.875   3.105  0.5969 -0.1731 -0.4462
49193SOL    HW154819   8.515   8.865   3.153  0.2991  1.1668  0.3836
49193SOL    HW254820   8.406   8.785   3.085  2.2245 -0.6359 -0.6954
49194SOL     OW54821   7.151   6.911  10.657  0.1350 -0.2692 -0.5312
49194SOL    HW154822   7.189   6.899  10.570  1.8069  1.2551 -0.0758
49194SOL    HW254823   7.218   6.958  10.706 -1.7387  1.1272  0.8425
49195SOL     OW54824   3.578   7.388   1.163 -0.0490 -0.4237  0.6567
49195SOL    HW154825   3.568   7.368   1.256  0.3890 -1.6674  0.4571
49195SOL    HW254826   3.501   7.441   1.141 -1.0937 -1.6238  1.3250
49196SOL     OW54827   3.769   1.735   5.773  0.0948 -0.5086  0.0086
49196SOL    HW154828   3.725   1.799   5.829 -0.2679 -2.5012  2.1890
49196SOL    HW254829   3.701   1.672   5.750  0.8204 -1.1177 -0.5128
49197SOL     OW54830   4.794  10.077   3.169 -0.5040  0.1690 -0.4234
49197SOL    HW154831   4.839  10.071   3.084  0.4347 -0.3766  0.0964
49197SOL    HW254832   4.703  10.058   3.149 -0.8798  2.9426 -1.7777
49198SOL     OW54833   5.320  10.783  12.526 -0.4531 -0.0168  0.5866
49198SOL    HW154834   5.346  10.691  12.530 -2.1481 -0.6801 -1.6226
49198SOL    HW254835   5.306  10.808  12.617  0.4388 -1.8033  1.2617
49199SOL     OW54836  11.635   1.437   5.294 -0.3207  0.2513 -0.3995
49199SOL    HW154837  11.558   1.382   5.286  0.6281 -1.1758 -0.1515
49199SOL    HW254838  11.674   1.438   5.207  0.6670 -1.0555 -0.0089
49200SOL     OW54839  10.032   9.146   3.000 -0.2465  0.2715  0.5171
49200SOL    HW154840  10.085   9.123   3.077 -0.7853  1.0848  1.1548
49200SOL    HW254841  10.075   9.103   2.927  1.5136  1.1981  0.9603
49201SOL     OW54842   4.718   3.978   1.234 -0.0487 -0.3299 -0.2056
49201SOL    HW154843   4.637   4.014   1.197  0.2454 -0.7154 -1.2672
49201SOL    HW254844   4.786   4.007   1.173  0.5438 -0.4866  0.3711
49202SOL     OW54845   1.826   8.040  11.800 -0.5993 -0.6171 -0.1364
49202SOL    HW154846   1.921   8.043  11.794 -0.5591 -0.3134  0.5543
49202SOL    HW254847   1.807   7.950  11.828 -0.6091 -1.0905 -1.5785
49203SOL     OW54848   6.661   3.050  12.166 -0.1293 -0.3322  0.2252
49203SOL    HW154849   6.702   3.007  12.241  1.3971  0.1158 -0.3108
49203SOL    HW254850   6.695   3.140  12.169 -3.2536  0.9340  1.3266
49204SOL     OW54851  10.277   0.393   9.384  0.0209  0.3593 -0.3920
49204SOL    HW154852  10.289   0.432   9.471  0.6216  0.2866 -0.4359
49204SOL    HW254853  10.329   0.313   9.387 -3.0871 -1.8176  0.5262
49205SOL     OW54854   7.008  12.400  10.500  0.4208 -0.1666  0.2162
49205SOL    HW154855   6.915  12.379  10.508  0.3722  0.1346  0.4960
49205SOL    HW254856   7.021  12.475  10.559  0.8460 -0.2259  0.2048
49206SOL     OW54857  12.487   5.540   4.668 -0.2399  0.1164 -0.2348
49206SOL    HW154858  12.434   5.465   4.642  0.7528 -0.7691  0.2495
49206SOL    HW254859  12.435   5.616   4.641 -3.0855 -0.6041  2.5949
49207SOL     OW54860   1.060   3.621   7.065 -0.3973 -0.4266  0.2814
49207SOL    HW154861   0.969   3.608   7.090 -0.4128  0.1703  0.5649
49207SOL    HW254862   1.077   3.714   7.084  0.2055 -0.4808  0.0370
49208SOL     OW54863   1.265   1.985  11.617 -0.2989  0.3769 -0.0199
49208SOL    HW154864   1.242   2.057  11.677  1.9245  0.3524  0.9436
49208SOL    HW254865   1.318   1.926  11.670 -0.1862 -0.8325 -1.4280
49209SOL     OW54866  10.798   9.266   6.114  0.2226  0.0095  0.2232
49209SOL    HW154867  10.786   9.346   6.063  2.4697 -0.5058 -1.2561
49209SOL    HW254868  10.713   9.222   6.109 -0.6354  1.6302 -0.1055
49210SOL     OW54869   8.705   2.484  12.167 -0.2265 -0.0049 -0.5155
49210SOL    HW154870   8.707   2.551  12.235 -1.2568 -0.6120  0.1431
49210SOL    HW254871   8.612   2.473  12.146 -0.0143 -0.6769 -1.1540
49211SOL     OW54872   7.691   8.765  12.319 -0.2937  0.1249 -0.3189
49211SOL    HW154873   7.708   8.833  12.383  2.2854 -1.3954  0.7549
49211SOL    HW254874   7.603   8.733  12.341  0.1448  0.2865  1.8815
49212SOL     OW54875   0.336   7.077  11.983 -0.1072 -0.2289  0.4412
49212SOL    HW154876   0.318   7.171  11.977 -0.9325 -0.3227  1.3013
49212SOL    HW254877   0.339   7.048  11.892 -1.4910  0.3366  0.1858
49213SOL     OW54878   8.848  12.265  11.893  0.4447  0.2486  0.1222
49213SOL    HW154879   8.770  12.212  11.905  0.4798  0.4993  1.6296
49213SOL    HW254880   8.901  12.216  11.829 -1.3636  0.5929 -1.7491
49214SOL     OW54881   9.674  11.214   0.097  0.3570  0.3020  0.4284
49214SOL    HW154882   9.694  11.154   0.169 -0.2051  1.0632  1.2361
49214SOL    HW254883   9.599  11.264   0.128  0.5487  1.1276 -0.4089
49215SOL     OW54884  12.641   8.231   7.463 -0.0480  0.0515  0.0684
49215SOL    HW154885  12.610   8.306   7.513 -0.4982  0.2369 -0.4761
49215SOL    HW254886  12.701   8.269   7.398  0.1161 -0.1228  0.1184
49216SOL     OW54887   5.989   5.013   0.872  0.4200 -0.1518 -0.2314
49216SOL    HW154888   5.930   4.948   0.910  0.1421  0.6760  0.8010
49216SOL    HW254889   5.938   5.053   0.802 -0.2021  0.4282  0.5318
49217SOL     OW54890   8.698   5.081   9.357  0.1727  0.5095 -0.1030
49217SOL    HW154891   8.716   5.163   9.312 -1.8549  0.7182 -0.6228
49217SOL    HW254892   8.760   5.018   9.320 -1.4401  0.6489 -3.3341
49218SOL     OW54893   8.659  11.929   5.323  0.4571 -0.3730 -0.9029
49218SOL    HW154894   8.566  11.907   5.325 -0.1084  1.8177 -0.4102
49218SOL    HW254895   8.701  11.861   5.375 -0.7752 -1.6826 -1.5424
49219SOL     OW54896   0.601   3.452   8.625  0.4662 -0.2954  0.8428
49219SOL    HW154897   0.568   3.371   8.666 -0.5182 -0.3945 -0.1036
49219SOL    HW254898   0.525   3.510   8.622  0.3182 -0.5176 -1.3788
49220SOL     OW54899   8.844  11.007  11.362  0.1016  0.1266  0.6559
49220SOL    HW154900   8.763  11.052  11.338  0.1361 -0.2036 -0.1005
49220SOL    HW254901   8.827  10.915  11.344  0.1478 -0.1384  1.8896
49221SOL     OW54902  11.164   2.652   7.867  0.3100 -0.0117 -0.0240
49221SOL    HW154903  11.190   2.631   7.957  1.3517 -1.5723 -0.6522
49221SOL    HW254904  11.213   2.591   7.813 -0.3405  0.8679 -1.6715
49222SOL     OW54905   3.592   0.387  12.193  0.3876  0.1073 -0.5726
49222SOL    HW154906   3.573   0.295  12.208  0.6551  0.1222 -0.1298
49222SOL    HW254907   3.662   0.387  12.127  1.4831 -0.0595  0.5584
49223SOL     OW54908   9.789   6.234   7.405 -0.1849 -0.2401 -0.2860
49223SOL    HW154909   9.768   6.142   7.388  0.8029 -0.2247 -1.7366
49223SOL    HW254910   9.722   6.282   7.357 -0.6321 -0.1876  0.3775
49224SOL     OW54911   7.848  11.667   8.829  0.1893 -0.1890 -0.1402
49224SOL    HW154912   7.790  11.738   8.801  1.0828  0.9847  0.8879
49224SOL    HW254913   7.906  11.652   8.754  0.8890  1.1470  0.0939
49225SOL     OW54914   1.936   9.033   5.446 -0.8924  0.2765  0.0432
49225SOL    HW154915   1.860   9.018   5.389 -1.6729 -0.1641  1.1640
49225SOL    HW254916   1.963   9.123   5.425 -1.0139  0.0488 -1.1724
49226SOL     OW54917   5.625   2.042   2.704  0.2253 -0.1211 -0.0155
49226SOL    HW154918   5.717   2.028   2.726  0.4738  0.0247 -0.9598
49226SOL    HW254919   5.623   2.051   2.609 -0.5735  1.2777  0.0998
49227SOL     OW54920  11.729   4.221   6.723  0.6685 -0.0558 -0.8116
49227SOL    HW154921  11.671   4.148   6.703  0.6978 -1.2946  2.8512
49227SOL    HW254922  11.679   4.299   6.699 -0.2527 -1.1709 -2.7571
49228SOL     OW54923  12.457   0.805  12.636 -0.2242  0.2243  0.1594
49228SOL    HW154924  12.509   0.725  12.632 -0.3761 -0.0322  2.1558
49228SOL    HW254925  12.384   0.789  12.576 -0.3304 -1.1954  0.6262
49229SOL     OW54926   5.418   1.396  10.860 -0.3707  0.2998 -0.4615
49229SOL    HW154927   5.358   1.343  10.807 -1.1379  1.5747 -0.9010
49229SOL    HW254928   5.505   1.370  10.831 -0.7636  1.3021 -2.7465
49230SOL     OW54929   2.868   4.624   2.099  0.6167  0.5313  0.0810
49230SOL    HW154930   2.918   4.631   2.180  2.3968 -0.3222 -0.8690
49230SOL    HW254931   2.914   4.681   2.037  1.3512 -1.3222 -1.2101
49231SOL     OW54932   6.412   7.757   1.966 -0.1684 -0.4204  0.1015
49231SOL    HW154933   6.436   7.824   2.029  1.3903 -0.5242 -0.3565
49231SOL    HW254934   6.482   7.757   1.901 -1.3613 -0.8201 -1.2524
49232SOL     OW54935  10.767   7.316   4.452  0.2100  0.4035  0.5417
49232SOL    HW154936  10.716   7.284   4.526  0.4644  0.1577  0.6098
49232SOL    HW254937  10.764   7.412   4.461  0.8263  0.3602  1.2662
49233SOL     OW54938   3.270  11.696   0.789  0.2019  0.0833  0.2653
49233SOL    HW154939   3.356  11.727   0.819 -0.2514  0.4673  1.2141
49233SOL    HW254940   3.264  11.606   0.821 -0.0873  0.3365  0.9441
49234SOL     OW54941   2.151   0.449   2.211 -0.0684 -0.1178  0.0547
49234SOL    HW154942   2.162   0.410   2.124  0.6690  0.1075  0.0368
49234SOL    HW254943   2.062   0.426   2.237  0.0191 -0.9725 -0.3735
49235SOL     OW54944  10.066   3.703   7.127  0.1489 -0.3178 -0.1121
49235SOL    HW154945  10.072   3.770   7.195 -1.1794  0.1338 -0.4095
49235SOL    HW254946  10.132   3.727   7.063 -0.4111  0.8078 -0.2900
49236SOL     OW54947   4.772  10.969   5.271  0.0597  0.0345  0.4647
49236SOL    HW154948   4.728  10.976   5.356 -0.9986  0.3139 -0.0990
49236SOL    HW254949   4.865  10.982   5.292  0.0213 -1.4491  1.7926
49237SOL     OW54950   9.018   7.936   0.243  0.1457 -0.0287 -0.3913
49237SOL    HW154951   9.079   8.000   0.280  0.6177 -0.3483 -0.6091
49237SOL    HW254952   9.064   7.853   0.248 -0.4486 -0.3545 -0.1513
49238SOL     OW54953  12.380   5.797   4.575 -0.5407 -0.3914 -0.0270
49238SOL    HW154954  12.430   5.876   4.556  2.1534 -1.7231  0.8883
49238SOL    HW254955  12.312   5.795   4.508 -0.1648  2.2065 -0.5960
49239SOL     OW54956   5.649  11.517   5.465 -0.1029 -0.4649  0.2054
49239SOL    HW154957   5.687  11.468   5.539 -0.0682  0.5688  0.8935
49239SOL    HW254958   5.684  11.605   5.474 -0.6165 -0.1591 -0.6762
49240SOL     OW54959  11.504   0.780   6.816 -0.5078  0.0018  0.2118
49240SOL    HW154960  11.563   0.705   6.812 -0.2968  0.1103  1.0696
49240SOL    HW254961  11.418   0.745   6.793 -0.3325 -0.4164  0.1880
49241SOL     OW54962   0.944   9.849  12.318 -0.3145 -0.9125 -0.2622
49241SOL    HW154963   1.028   9.825  12.279  2.0772  2.4677  2.2204
49241SOL    HW254964   0.942   9.802  12.401  0.9279  1.5556  1.2679
49242SOL     OW54965   1.986   7.618   0.985 -0.3101 -0.3542  0.1606
49242SOL    HW154966   1.945   7.652   0.906 -0.0433 -0.0982  0.1318
49242SOL    HW254967   2.046   7.688   1.014 -0.7789 -0.2304  0.8696
49243SOL     OW54968   0.282   3.982  10.922 -0.2443  0.3922 -0.6567
49243SOL    HW154969   0.373   4.007  10.908  0.6044 -1.1361  1.5964
49243SOL    HW254970   0.269   3.904  10.869 -0.7769  1.5129 -2.2323
49244SOL     OW54971   2.786   8.135   0.479 -0.0118 -0.4695 -0.0354
49244SOL    HW154972   2.752   8.162   0.564 -0.6696  1.1389 -0.7717
49244SOL    HW254973   2.881   8.133   0.491 -0.1326 -1.0312  0.9359
49245SOL     OW54974   1.692   9.665   4.961 -0.1681  0.2333 -0.0839
49245SOL    HW154975   1.636   9.740   4.984  0.5893  0.8450 -0.1916
49245SOL    HW254976   1.632   9.603   4.920 -0.7389  0.9563 -0.3726
49246SOL     OW54977  11.079   9.115   4.997  0.2146 -0.3774  0.4524
49246SOL    HW154978  11.135   9.079   5.065  0.9173 -0.6585 -0.2555
49246SOL    HW254979  11.128   9.190   4.962  0.9364 -1.5932 -1.2741
49247SOL     OW54980   8.427   1.574   6.082 -0.4656  0.4708  0.0021
49247SOL    HW154981   8.489   1.560   6.154 -2.3687 -1.5716  1.3628
49247SOL    HW254982   8.394   1.662   6.096 -0.1045  0.4553  1.0676
49248SOL     OW54983  10.377   9.613   1.295 -0.2154 -0.6585 -0.0746
49248SOL    HW154984  10.434   9.683   1.327 -1.3881  0.8521 -1.1381
49248SOL    HW254985  10.383   9.619   1.200 -1.3048 -1.1802 -0.1906
49249SOL     OW54986  11.989   2.820   6.876  0.1574  0.0294 -0.6670
49249SOL    HW154987  11.950   2.861   6.953 -0.0537  0.2943 -0.9131
49249SOL    HW254988  11.929   2.749   6.853  0.4049 -0.2776 -0.3759
49250SOL     OW54989   3.370   4.939   1.419 -0.0433  0.6818  0.2406
49250SOL    HW154990   3.276   4.953   1.409 -0.0149  0.3623 -0.5526
49250SOL    HW254991   3.401   4.917   1.331  0.9529  1.7764  0.2976
49251SOL     OW54992   7.012   4.679   8.568 -0.1054 -0.1644  0.6069
49251SOL    HW154993   7.082   4.613   8.573 -0.3386 -0.5967 -1.1696
49251SOL    HW254994   7.007   4.701   8.475 -2.2614 -0.0616  0.6997
49252SOL     OW54995  11.547   6.872   4.728 -0.2314 -0.0163  0.2504
49252SOL    HW154996  11.548   6.960   4.766  0.6948 -0.0346  0.2675
49252SOL    HW254997  11.514   6.885   4.639 -0.5579  0.2808  0.4124
49253SOL     OW54998   8.820   2.316  12.414 -0.3460 -0.2156  0.0244
49253SOL    HW154999   8.733   2.278  12.403 -1.5382  2.3359 -0.0559
49253SOL    HW255000   8.852   2.327  12.324  0.1193 -1.1856  0.0550
49254SOL     OW55001   1.778  10.390   1.185  0.1918  0.3802  0.1600
49254SOL    HW155002   1.798  10.477   1.219 -2.7566  0.3392  2.3674
49254SOL    HW255003   1.685  10.392   1.165  0.3681 -1.8294 -1.2771
49255SOL     OW55004   4.565   4.315   8.280 -0.3073 -0.2199 -0.1191
49255SOL    HW155005   4.520   4.322   8.364  1.2357 -1.0948  0.8447
49255SOL    HW255006   4.542   4.395   8.233 -0.4934  0.7361  1.5214
49256SOL     OW55007   1.416  11.872   5.709  0.0499 -0.0342  0.0275
49256SOL    HW155008   1.361  11.855   5.786 -0.0300 -0.5416 -0.1434
49256SOL    HW255009   1.497  11.825   5.727 -0.7181 -1.8829 -1.1113
49257SOL     OW55010   3.078   9.288   7.157 -0.2712  0.2145 -0.2754
49257SOL    HW155011   3.097   9.375   7.191  2.2001 -0.2282 -0.3292
49257SOL    HW255012   2.991   9.268   7.189  0.7466  0.9846  3.4020
49258SOL     OW55013  12.520   5.333   4.050  0.1186 -0.0973 -0.1898
49258SOL    HW155014  12.470   5.252   4.059 -0.0373  0.0356  0.1397
49258SOL    HW255015  12.611   5.306   4.059 -0.0003  0.0123  1.8195
49259SOL     OW55016   1.418   1.851   6.465  0.4405 -0.0618  0.2695
49259SOL    HW155017   1.360   1.818   6.396  0.2058 -0.3931  0.6210
49259SOL    HW255018   1.504   1.857   6.423  0.1983  0.2205 -0.1910
49260SOL     OW55019  11.899   4.435   6.185  0.2289  0.4558 -0.0727
49260SOL    HW155020  11.900   4.366   6.118 -0.4359  1.1842 -0.8463
49260SOL    HW255021  11.809   4.466   6.185  0.5068  1.2642  0.3333
49261SOL     OW55022   3.449   3.146  11.785 -0.2853  0.0696 -0.1160
49261SOL    HW155023   3.369   3.115  11.742 -0.2327 -1.4584  0.8032
49261SOL    HW255024   3.433   3.133  11.879  1.1386 -0.5563  0.0725
49262SOL     OW55025  11.287   2.043   6.447 -0.7428  0.0111  0.0297
49262SOL    HW155026  11.360   2.060   6.388  0.8877 -2.0922  1.3078
49262SOL    HW255027  11.304   2.099   6.523  0.0309 -1.0699  0.6743
49263SOL     OW55028   7.295   9.962   5.262 -0.0040  0.3871 -0.6500
49263SOL    HW155029   7.226  10.008   5.309  0.9279  0.6038  0.5481
49263SOL    HW255030   7.295   9.874   5.299  0.4099  0.4072 -0.5991
49264SOL     OW55031  10.061  10.193   0.325 -0.2471 -0.0359 -0.0410
49264SOL    HW155032  10.081  10.100   0.336 -0.6788 -0.1744 -0.4082
49264SOL    HW255033  10.132  10.238   0.371  0.1591 -0.5399 -0.1591
49265SOL     OW55034   0.575   4.911   5.388  0.3541 -0.6889 -0.8784
49265SOL    HW155035   0.566   4.998   5.350 -3.0653  0.0916  1.2405
49265SOL    HW255036   0.509   4.858   5.343  0.4171 -1.3835 -0.1843
49266SOL     OW55037   5.762   8.951   2.281  0.4351  0.0829 -0.3999
49266SOL    HW155038   5.690   8.902   2.319  0.2125 -0.3283 -1.3188
49266SOL    HW255039   5.801   8.891   2.217  0.5276  0.8984 -1.1200
49267SOL     OW55040  10.579   0.212   8.930  0.4159 -0.1597 -0.3726
49267SOL    HW155041  10.571   0.117   8.917  0.1038 -0.1364 -0.3732
49267SOL    HW255042  10.600   0.247   8.844  0.7685 -0.2527 -0.3252
49268SOL     OW55043   7.337   0.900   3.037 -0.1626 -0.4952 -0.0609
49268SOL    HW155044   7.424   0.880   3.003 -0.0826  0.0760 -0.2114
49268SOL    HW255045   7.352   0.973   3.098 -0.6190  0.0493 -0.5878
49269SOL     OW55046   8.658   2.752   3.490 -0.4195  0.2061 -0.6399
49269SOL    HW155047   8.635   2.660   3.504  0.2178  0.1038 -0.2460
49269SOL    HW255048   8.751   2.757   3.512 -0.8533  1.3163  1.0743
49270SOL     OW55049   9.370   5.574   7.197  0.0608  0.0791  0.0685
49270SOL    HW155050   9.425   5.519   7.253 -0.7165  0.8344  1.6374
49270SOL    HW255051   9.417   5.658   7.194 -0.6143  0.4962  0.8153
49271SOL     OW55052   4.696  11.279   2.066 -0.0209  0.2427  0.0441
49271SOL    HW155053   4.705  11.184   2.077  1.2145  0.3773  0.3801
49271SOL    HW255054   4.616  11.301   2.113  0.5864 -0.4133  1.4453
49272SOL     OW55055   2.156  11.034  10.878 -0.1498 -0.2359 -0.5861
49272SOL    HW155056   2.214  11.028  10.953  1.3968 -2.1620 -1.8317
49272SOL    HW255057   2.080  10.981  10.902 -0.3371  0.3506  0.1444
49273SOL     OW55058  11.732   4.357   9.460 -0.0977  0.0582  0.6505
49273SOL    HW155059  11.774   4.364   9.546  0.1022 -0.1384  0.5710
49273SOL    HW255060  11.702   4.267   9.455 -0.4854  0.1870  0.6845
49274SOL     OW55061   7.021   8.310   8.480  0.6167  0.4251  0.0630
49274SOL    HW155062   7.069   8.243   8.527 -0.4610  0.2991  1.0197
49274SOL    HW255063   7.006   8.379   8.544 -0.0168  0.6852 -0.3531
49275SOL     OW55064   0.946   4.654  12.239  0.1516  0.1152 -0.0973
49275SOL    HW155065   0.883   4.583  12.247 -0.0292  0.3749  0.9137
49275SOL    HW255066   0.919   4.701  12.160  0.6369 -1.2622 -1.1168
49276SOL     OW55067   8.392  11.192   9.198  0.5357  0.6311 -0.4200
49276SOL    HW155068   8.324  11.196   9.130  0.4770 -2.8996 -0.7428
49276SOL    HW255069   8.471  11.167   9.150  1.2107  1.0169  0.4678
49277SOL     OW55070   0.709  11.812   3.287 -0.0585  1.1333  0.3075
49277SOL    HW155071   0.774  11.881   3.271  1.1602  0.6232  2.5698
49277SOL    HW255072   0.760  11.731   3.287 -0.9466  0.5552  0.7029
49278SOL     OW55073   2.593   2.732   9.633 -0.5211  0.0871 -0.0936
49278SOL    HW155074   2.660   2.751   9.700 -1.4481  0.5717  0.7189
49278SOL    HW255075   2.593   2.637   9.626  0.6977  0.1082 -0.5694
49279SOL     OW55076   6.005  12.362   6.544 -0.1964 -0.3489 -0.1817
49279SOL    HW155077   5.916  12.373   6.510 -0.0462 -0.4024 -0.6021
49279SOL    HW255078   6.005  12.275   6.585 -0.8382  0.3613  1.4260
49280SOL     OW55079   2.151  10.109   8.696 -0.4838  0.6636  0.4170
49280SOL    HW155080   2.212  10.148   8.758 -0.0936  2.4343 -1.0070
49280SOL    HW255081   2.085  10.066   8.751  1.9395 -1.2883  1.9898
49281SOL     OW55082   7.377   8.991   9.494  0.2372  0.2439 -0.2982
49281SOL    HW155083   7.298   8.946   9.464 -0.0147  0.3281  0.2367
49281SOL    HW255084   7.358   9.084   9.484  0.4435  0.2534 -0.6091
49282SOL     OW55085   6.489   3.588   7.326  0.0907 -0.2511 -0.5640
49282SOL    HW155086   6.489   3.646   7.402 -0.3200 -0.1168 -0.6632
49282SOL    HW255087   6.446   3.639   7.257 -1.8103 -1.2563 -0.1987
49283SOL     OW55088   2.361  11.049   7.679  0.0297  0.5173 -0.2761
49283SOL    HW155089   2.369  11.138   7.644 -1.3784  1.2732  1.1886
49283SOL    HW255090   2.273  11.046   7.715 -0.3139 -1.8288 -1.1551
49284SOL     OW55091   8.080   3.432   6.904  0.0032  0.1325 -0.1181
49284SOL    HW155092   8.030   3.475   6.834  1.5626 -1.2910 -2.2566
49284SOL    HW255093   8.027   3.356   6.928 -0.5424  0.6288  0.2544
49285SOL     OW55094   9.155  11.963   5.543  0.0080  0.0947 -0.6046
49285SOL    HW155095   9.125  11.897   5.605  0.7375  0.1781 -0.1542
49285SOL    HW255096   9.157  12.045   5.594 -0.9524  0.4917 -1.1716
49286SOL     OW55097   6.065  10.334   9.110  0.2551  0.7230 -0.3325
49286SOL    HW155098   6.046  10.413   9.060 -0.0283  0.9462  0.1121
49286SOL    HW255099   6.014  10.345   9.191 -1.0682 -0.6315 -0.9332
49287SOL     OW55100   9.350   6.063   2.097 -0.5535 -0.2815 -0.4725
49287SOL    HW155101   9.422   6.075   2.036  0.3588  0.7952  0.7518
49287SOL    HW255102   9.342   5.969   2.108  1.3974 -0.4073  0.1618
49288SOL     OW55103   6.069   4.735   6.015 -0.1756 -0.1755  0.5942
49288SOL    HW155104   6.040   4.818   6.053 -3.6091 -1.2415  0.6466
49288SOL    HW255105   6.029   4.668   6.070 -0.5074 -1.8178 -1.5055
49289SOL     OW55106   9.808   7.888  11.611  0.1307 -0.0420  0.3521
49289SOL    HW155107   9.731   7.851  11.567  0.2230 -1.4556  1.3081
49289SOL    HW255108   9.834   7.961  11.556 -1.2368 -0.2205 -0.5913
49290SOL     OW55109   1.040   7.789  12.092 -0.5300 -0.2952  0.2946
49290SOL    HW155110   0.994   7.870  12.071 -0.0671 -0.4148 -1.2986
49290SOL    HW255111   1.115   7.788  12.033  0.2934 -1.1781  1.3144
49291SOL     OW55112   9.850   1.360   6.462  0.0708  0.3329 -0.6381
49291SOL    HW155113   9.842   1.448   6.426  1.5105  0.2732 -1.1634
49291SOL    HW255114   9.944   1.343   6.464 -0.1158 -0.7651  0.5233
49292SOL     OW55115   4.778   3.132  11.283  0.0380  0.1465  0.2487
49292SOL    HW155116   4.739   3.062  11.336 -0.3738 -0.5630 -0.9344
49292SOL    HW255117   4.717   3.142  11.209  2.2177 -1.2864 -1.9080
49293SOL     OW55118   0.328  12.119  11.468 -0.2691 -0.1612 -0.1768
49293SOL    HW155119   0.338  12.205  11.509  2.5878  0.2521 -1.5126
49293SOL    HW255120   0.361  12.131  11.379 -0.1961 -2.5437 -0.5346
49294SOL     OW55121   0.381   9.024  10.458 -0.7164  0.0844  0.0243
49294SOL    HW155122   0.428   9.046  10.539  1.2452 -0.0938 -1.0009
49294SOL    HW255123   0.326   9.100  10.441  0.5188  1.0938  0.3631
49295SOL     OW55124   5.354   8.129   0.180  0.1105 -0.6139  0.2290
49295SOL    HW155125   5.417   8.157   0.247 -1.0900 -1.0434  1.5887
49295SOL    HW255126   5.311   8.210   0.154  2.6007  0.0512 -2.3125
49296SOL     OW55127   3.689  10.469  11.034  0.0410  0.0599  0.3200
49296SOL    HW155128   3.711  10.431  10.949 -0.5393 -0.3741  0.3574
49296SOL    HW255129   3.654  10.396  11.085  1.9545 -0.0733  1.5412
49297SOL     OW55130  11.656   1.551   6.697 -0.1022 -0.1982 -0.2425
49297SOL    HW155131  11.577   1.513   6.658 -1.4675  1.3839  0.8547
49297SOL    HW255132  11.628   1.636   6.730  1.9185  0.1175  0.8011
49298SOL     OW55133   4.870   9.088   1.238 -0.6813  0.2499  0.3492
49298SOL    HW155134   4.813   9.154   1.198  0.6077  1.3369  0.1880
49298SOL    HW255135   4.955   9.133   1.246 -0.1027 -0.9816  1.4528
49299SOL     OW55136  11.983  11.170  10.094  0.5975 -0.1613  0.1127
49299SOL    HW155137  12.039  11.145  10.021 -0.7188 -0.3689 -0.8546
49299SOL    HW255138  12.032  11.240  10.138  0.9165  0.7819 -1.6533
49300SOL     OW55139   6.737   4.021   6.306 -0.2065  0.2818 -0.1227
49300SOL    HW155140   6.764   3.962   6.376 -0.4124  0.5101  0.1489
49300SOL    HW255141   6.734   4.107   6.347  0.4817  0.5525 -0.6106
49301SOL     OW55142   2.479  10.111   7.806 -0.2903  0.5022  0.1623
49301SOL    HW155143   2.521  10.159   7.877  0.4152 -0.6616  0.5746
49301SOL    HW255144   2.552  10.076   7.754 -0.7611 -0.3955  0.0794
49302SOL     OW55145   4.284   3.880  10.616 -0.4144  0.2008  0.8823
49302SOL    HW155146   4.222   3.941  10.579 -0.0842 -0.6516 -1.1818
49302SOL    HW255147   4.236   3.836  10.687 -1.3036  1.3317  0.9922
49303SOL     OW55148   3.878   3.682   1.261  0.2076 -0.4166 -0.2037
49303SOL    HW155149   3.885   3.765   1.213 -0.5915 -0.2481 -0.0348
49303SOL    HW255150   3.790   3.649   1.241 -0.2527 -0.2191  1.3330
49304SOL     OW55151   1.524  11.031   2.644 -0.5306 -0.0033 -0.4270
49304SOL    HW155152   1.487  11.112   2.607 -0.6403 -0.2777 -0.9434
49304SOL    HW255153   1.606  11.019   2.597  1.1544  1.5288  1.9376
49305SOL     OW55154  12.379   2.390   7.938  0.0285 -0.3151  0.5871
49305SOL    HW155155  12.424   2.438   7.869 -0.4521 -0.8018 -0.0746
49305SOL    HW255156  12.301   2.443   7.957 -0.4499 -0.7700 -0.0735
49306SOL     OW55157   8.480   7.946   1.820  0.5640  0.1801 -0.1943
49306SOL    HW155158   8.484   8.038   1.848 -0.9337  0.2156  0.0138
49306SOL    HW255159   8.492   7.950   1.725  0.4647  0.6081 -0.1948
49307SOL     OW55160  10.394   6.626   1.639  0.4026 -0.6201 -0.0027
49307SOL    HW155161  10.485   6.597   1.644  0.4652 -0.3432  0.6628
49307SOL    HW255162  10.346   6.550   1.606  0.6428 -1.3000  1.1417
49308SOL     OW55163   9.421   5.685  10.501 -0.1860  0.2288 -0.4145
49308SOL    HW155164   9.352   5.712  10.562 -0.9454  2.1531 -1.9988
49308SOL    HW255165   9.399   5.595  10.478 -1.0313  0.1517  0.5940
49309SOL     OW55166   8.980   1.118   5.926 -0.3673  0.6095 -0.0736
49309SOL    HW155167   8.953   1.203   5.961 -1.4578 -0.0680  0.8030
49309SOL    HW255168   9.061   1.097   5.972 -1.9532 -0.4300  2.4389
49310SOL     OW55169   6.490   9.535   6.047  0.0899 -0.0999 -0.9190
49310SOL    HW155170   6.493   9.524   6.142  2.5381 -1.2730 -1.0637
49310SOL    HW255171   6.404   9.574   6.031 -0.3039  0.3826  1.7755
49311SOL     OW55172  11.002   1.112   2.678 -0.1309 -0.1446 -0.2698
49311SOL    HW155173  10.959   1.137   2.596 -1.0335 -0.3672  0.1190
49311SOL    HW255174  10.930   1.100   2.739  0.5710  0.6167  0.7305
49312SOL     OW55175   6.818   6.702   5.941 -0.5480  0.4175  0.4949
49312SOL    HW155176   6.901   6.692   5.895 -1.2271  0.8997 -0.9022
49312SOL    HW255177   6.788   6.612   5.955  0.6330  0.2058  1.8816
49313SOL     OW55178   8.523   7.663   1.451  0.0226  0.2213  0.1324
49313SOL    HW155179   8.503   7.601   1.521  0.9452  0.3772  0.5450
49313SOL    HW255180   8.527   7.609   1.372 -0.0934 -0.1020  0.3447
49314SOL     OW55181   4.812   1.092   7.429  0.4467  0.7467  0.4743
49314SOL    HW155182   4.853   1.160   7.484  0.2813  1.9600 -0.8400
49314SOL    HW255183   4.745   1.139   7.379  0.5857 -0.3095 -0.7569
49315SOL     OW55184   6.378   3.136   5.020  0.1215 -0.4598  0.5336
49315SOL    HW155185   6.446   3.146   5.086  0.0871  0.3538  0.4537
49315SOL    HW255186   6.399   3.053   4.976  0.8386 -0.4074  0.7623
49316SOL     OW55187  11.580   4.519  12.479  0.0055 -0.0678 -0.5182
49316SOL    HW155188  11.612   4.443  12.432 -2.6078 -0.8449 -1.2328
49316SOL    HW255189  11.491   4.495  12.505  0.0691  1.7230  1.6696
49317SOL     OW55190  10.497  12.048   0.610 -0.1108 -0.4301  0.2760
49317SOL    HW155191  10.489  12.133   0.653  0.4034  0.0343 -0.5084
49317SOL    HW255192  10.416  12.039   0.559 -0.3269 -0.5816  0.6437
49318SOL     OW55193   9.546   9.821  10.496  0.4561  0.0237  0.5503
49318SOL    HW155194   9.559   9.914  10.480  1.3289 -0.1806 -0.0149
49318SOL    HW255195   9.457   9.814  10.529  0.6298  1.1397  1.3028
49319SOL     OW55196   0.878   4.080   8.457 -0.2980 -0.4291  0.0740
49319SOL    HW155197   0.801   4.135   8.449 -0.8103 -1.1047  0.3133
49319SOL    HW255198   0.859   4.022   8.530  0.9023  0.1442  0.8658
49320SOL     OW55199   4.334   9.423   7.373 -0.1195  0.3299 -0.5792
49320SOL    HW155200   4.353   9.510   7.340 -2.3690  1.3238  0.5090
49320SOL    HW255201   4.253   9.397   7.328 -1.0925  0.0899  1.2005
49321SOL     OW55202  10.833   4.539   2.449  0.2101  0.7103 -0.7220
49321SOL    HW155203  10.792   4.559   2.533 -1.1001 -1.7942 -0.6422
49321SOL    HW255204  10.796   4.602   2.387  0.4386  1.9412  0.3598
49322SOL     OW55205  12.707   0.576   8.554  0.4166 -0.2993  0.1005
49322SOL    HW155206  12.769   0.536   8.493  1.3033 -0.0905  0.8366
49322SOL    HW255207  12.726   0.535   8.638 -0.8408 -0.6370  0.2384
49323SOL     OW55208   0.503   9.678   9.004 -0.1455 -0.2026 -0.3264
49323SOL    HW155209   0.429   9.738   8.998  0.1639  0.2343  0.1500
49323SOL    HW255210   0.462   9.592   9.017 -0.5814 -0.0451 -0.6222
49324SOL     OW55211   7.000   7.803  11.320 -0.1992 -0.6582  0.1298
49324SOL    HW155212   7.016   7.894  11.295 -1.8547 -1.4043 -4.6682
49324SOL    HW255213   7.088   7.767  11.336  0.5807  1.3938  0.7617
49325SOL     OW55214   0.958   4.163   2.876  0.2215  0.2284 -0.3999
49325SOL    HW155215   0.977   4.072   2.899  1.7666  0.5045 -0.4767
49325SOL    HW255216   0.871   4.180   2.913 -0.6702 -1.6502 -1.4760
49326SOL     OW55217   1.773  10.387  11.188  0.1222 -0.0172 -0.5791
49326SOL    HW155218   1.860  10.386  11.227  0.3741  0.1022 -1.1212
49326SOL    HW255219   1.716  10.423  11.255  0.7831  1.5249 -0.8044
49327SOL     OW55220  10.851   3.830   8.918  0.1036  0.1341 -0.0413
49327SOL    HW155221  10.794   3.837   8.841  0.3521 -0.0673 -0.2457
49327SOL    HW255222  10.883   3.740   8.916  0.9648  0.4393 -0.3049
49328SOL     OW55223   6.102   3.215   3.956 -0.2904  0.0487  0.2450
49328SOL    HW155224   6.189   3.192   3.988 -0.4929  0.4924  1.1326
49328SOL    HW255225   6.103   3.311   3.953 -0.4345  0.0294 -0.6487
49329SOL     OW55226   6.014   6.411   0.288  0.2830 -0.2476 -0.1295
49329SOL    HW155227   5.966   6.459   0.356 -2.1201 -2.0796 -0.4109
49329SOL    HW255228   5.992   6.457   0.207  0.7297  0.1407 -0.0395
49330SOL     OW55229   2.866   5.086   1.214  0.3487  0.4298  0.0414
49330SOL    HW155230   2.797   5.126   1.266  0.6256  0.4768  0.3704
49330SOL    HW255231   2.831   5.000   1.190  1.5126 -1.0424  3.1297
49331SOL     OW55232  10.509   7.024   1.124  0.1825 -0.1762  0.0234
49331SOL    HW155233  10.503   6.976   1.206 -0.4278 -0.0393  0.0665
49331SOL    HW255234  10.426   7.072   1.118  0.2957 -0.0431 -0.5835
49332SOL     OW55235   7.199  12.439   9.895  0.1140  0.3349  0.0025
49332SOL    HW155236   7.250  12.404   9.823  2.2485 -0.9847  2.0170
49332SOL    HW255237   7.154  12.515   9.858  1.0189 -0.3211 -2.6812
49333SOL     OW55238   6.374   6.173   4.135 -0.3580 -0.6700  0.3908
49333SOL    HW155239   6.295   6.119   4.142  1.2672 -3.2953 -0.4938
49333SOL    HW255240   6.429   6.145   4.208 -0.1013  1.0124  0.8857
49334SOL     OW55241   6.929  11.358  11.667  0.2644 -0.0006  0.1592
49334SOL    HW155242   6.952  11.422  11.734 -1.7494 -0.7010  1.6472
49334SOL    HW255243   6.908  11.411  11.590  1.8132  0.8803  0.3024
49335SOL     OW55244   5.719   1.472  10.500  0.1969  0.5217 -0.2239
49335SOL    HW155245   5.757   1.528  10.568  2.0072 -1.3443  0.4443
49335SOL    HW255246   5.697   1.391  10.546 -1.0734  0.1750 -1.3905
49336SOL     OW55247   7.723  11.415   9.677 -0.1869 -0.4832  0.2238
49336SOL    HW155248   7.726  11.455   9.764  0.4750 -0.4439  0.1855
49336SOL    HW255249   7.806  11.369   9.668  0.1855  0.3398 -0.7778
49337SOL     OW55250   8.062   3.182   2.527 -0.3811  0.3553 -0.0179
49337SOL    HW155251   8.028   3.271   2.537  2.0709  1.3707  0.0343
49337SOL    HW255252   8.157   3.191   2.538  0.1529 -1.9950 -1.7610
49338SOL     OW55253   5.558   8.740   2.014 -0.0634  0.5086  0.0389
49338SOL    HW155254   5.570   8.760   2.107  1.4208 -1.4084  0.3023
49338SOL    HW255255   5.628   8.787   1.970  0.4622 -0.1919  0.1209
49339SOL     OW55256  12.181   6.745  10.119 -0.2668 -0.0236  0.1463
49339SOL    HW155257  12.239   6.820  10.128 -0.4727  0.4457 -1.9523
49339SOL    HW255258  12.096   6.776  10.149 -0.0547  0.1687  0.5458
49340SOL     OW55259   0.282   0.480  10.961 -0.6451  0.1817  0.4190
49340SOL    HW155260   0.291   0.573  10.980 -2.5915  1.7550 -4.6770
49340SOL    HW255261   0.297   0.473  10.867 -0.1755 -4.8148  0.5865
49341SOL     OW55262   1.372   4.061   3.740  0.1713  0.7417  0.0435
49341SOL    HW155263   1.292   4.014   3.716  0.1342  1.4315 -1.3170
49341SOL    HW255264   1.343   4.150   3.759  0.6340  1.0823 -0.7764
49342SOL     OW55265   7.054  12.180  11.169 -0.0898 -0.1301 -0.1615
49342SOL    HW155266   7.027  12.089  11.158  0.4503 -0.3718  0.4459
49342SOL    HW255267   7.150  12.176  11.174 -0.1426  0.1181  2.6999
49343SOL     OW55268   8.039   2.846   0.103  0.0489  0.6304 -0.0840
49343SOL    HW155269   8.022   2.814   0.014  0.0052 -2.2004  0.8333
49343SOL    HW255270   7.970   2.910   0.119  0.2243  1.4130 -2.1592
49344SOL     OW55271  10.670   1.467   5.100 -0.1327 -0.7019  0.1114
49344SOL    HW155272  10.627   1.385   5.075 -0.6736 -0.4991  0.3440
49344SOL    HW255273  10.760   1.442   5.121 -0.6299 -1.4533  1.4440
49345SOL     OW55274   4.435  12.445  12.062  0.6656  0.1706 -0.3835
49345SOL    HW155275   4.513  12.496  12.084  0.7281 -0.0031 -0.1964
49345SOL    HW255276   4.362  12.506  12.072  0.9497  0.9702 -2.6721
49346SOL     OW55277   8.418   9.845   0.492  0.2501  0.0555  0.4574
49346SOL    HW155278   8.407   9.763   0.541  2.2699 -1.2411 -1.1371
49346SOL    HW255279   8.356   9.838   0.419  0.1032  0.1767  0.5682
49347SOL     OW55280   5.752   5.473   8.689 -0.5931  0.0276  0.6540
49347SOL    HW155281   5.832   5.493   8.641 -0.4410 -0.8443  0.5270
49347SOL    HW255282   5.739   5.379   8.676 -0.8365 -0.1224  1.8695
49348SOL     OW55283   9.774   9.592   5.034  0.1837 -0.1327 -0.4857
49348SOL    HW155284   9.687   9.554   5.044 -0.1285  0.5348 -0.6111
49348SOL    HW255285   9.812   9.546   4.959 -1.0735  1.3700 -2.1158
49349SOL     OW55286  10.871   8.511   7.416  0.1510 -0.1359  0.1857
49349SOL    HW155287  10.837   8.428   7.450  0.5108 -0.0738  0.7142
49349SOL    HW255288  10.818   8.577   7.459 -0.4321 -0.0995 -0.5737
49350SOL     OW55289  10.547   9.527  10.749  0.0999 -0.2757  0.0034
49350SOL    HW155290  10.495   9.482  10.815 -0.7723  0.2887 -0.2856
49350SOL    HW255291  10.595   9.457  10.705 -1.3367 -0.9586 -0.5378
49351SOL     OW55292  10.701  10.478   4.817  0.6894 -0.0284 -0.5232
49351SOL    HW155293  10.773  10.445   4.870  0.1689  1.0722  0.9355
49351SOL    HW255294  10.633  10.502   4.881  0.3562  2.1491 -1.6077
49352SOL     OW55295   4.465  11.541   6.938 -0.0399  0.9210 -0.0733
49352SOL    HW155296   4.505  11.584   6.862  0.3705 -3.9227 -2.9893
49352SOL    HW255297   4.373  11.530   6.915 -0.3442  1.0048  1.0278
49353SOL     OW55298  11.853   5.943   0.390  0.4239 -0.0517 -0.0463
49353SOL    HW155299  11.909   6.011   0.354  1.0655 -1.8786 -2.8563
49353SOL    HW255300  11.869   5.867   0.334  0.2377 -2.7599  3.2396
49354SOL     OW55301   2.096  11.585   1.949 -0.7011  0.0280  0.1770
49354SOL    HW155302   2.187  11.606   1.929  0.4568 -2.8559  1.9312
49354SOL    HW255303   2.086  11.493   1.924 -2.3382 -0.5015  2.4618
49355SOL     OW55304   6.406   5.382   9.121  0.5471  0.0300 -0.2946
49355SOL    HW155305   6.421   5.442   9.048 -0.2378 -0.6659 -1.0473
49355SOL    HW255306   6.314   5.357   9.112  0.7180 -0.8500  0.3433
49356SOL     OW55307   3.930   9.774   4.683  0.1924  0.9552 -0.4590
49356SOL    HW155308   3.900   9.851   4.634  0.9601  1.4190 -0.2115
49356SOL    HW255309   3.925   9.800   4.774  0.9574  0.8930 -0.3975
49357SOL     OW55310   2.356  11.227  12.479 -0.0416 -0.2932  0.2756
49357SOL    HW155311   2.330  11.290  12.547 -0.1555 -0.4480  0.3788
49357SOL    HW255312   2.451  11.231  12.477 -0.0879  0.8852 -0.6857
49358SOL     OW55313   0.803  10.302   9.106  0.0952  0.1881  0.4759
49358SOL    HW155314   0.756  10.315   9.024 -1.2722  0.9087  1.3347
49358SOL    HW255315   0.896  10.302   9.081 -0.2816  0.6368 -1.0186
49359SOL     OW55316   0.160   7.710   0.895  0.0321  0.2226  0.5183
49359SOL    HW155317   0.248   7.746   0.886 -0.0211  0.0908 -0.5849
49359SOL    HW255318   0.153   7.688   0.988  0.2042  2.6660  1.1571
49360SOL     OW55319   0.187   8.078   5.344  0.0228  0.0050 -0.7691
49360SOL    HW155320   0.136   8.159   5.347  0.8143  0.5403 -1.5736
49360SOL    HW255321   0.123   8.010   5.324 -0.8070  0.2719  0.7711
49361SOL     OW55322   0.429   3.047  11.134  0.6888 -0.1384 -0.1732
49361SOL    HW155323   0.495   2.990  11.173 -0.1076 -1.1850 -0.3090
49361SOL    HW255324   0.436   3.128  11.184  1.5504 -0.4963  0.3214
49362SOL     OW55325   4.612   9.338   7.647 -0.0825  0.5103  0.2051
49362SOL    HW155326   4.598   9.330   7.553  5.0218  1.4296 -0.9220
49362SOL    HW255327   4.604   9.432   7.664  0.2597  0.5008  0.4202
49363SOL     OW55328   7.182   5.106  11.522  0.3164  0.0047 -0.3395
49363SOL    HW155329   7.087   5.116  11.528  0.3912  0.3208  0.5059
49363SOL    HW255330   7.212   5.185  11.476  0.2909  0.5905  0.6245
49364SOL     OW55331  11.191   0.306   5.334 -0.2422 -0.6266  0.0593
49364SOL    HW155332  11.276   0.267   5.352  0.8049  0.4929 -2.0059
49364SOL    HW255333  11.185   0.382   5.392  1.4652  0.8867 -1.6216
49365SOL     OW55334   6.724   1.990   2.995  0.0399  0.1992  0.1280
49365SOL    HW155335   6.682   1.925   3.051 -0.0250  0.5563  0.5098
49365SOL    HW255336   6.653   2.029   2.945  0.0830 -0.0470 -0.1218
49366SOL     OW55337   0.062   2.131   8.548  0.1176  0.4665  0.3461
49366SOL    HW155338   0.009   2.078   8.608 -1.1560 -0.7505 -1.7356
49366SOL    HW255339   0.030   2.221   8.561  0.1062  0.2852  1.6942
49367SOL     OW55340   4.678   3.083   6.065 -0.4245  0.1369 -0.3593
49367SOL    HW155341   4.670   3.008   6.124 -1.1815  0.0263 -0.5913
49367SOL    HW255342   4.737   3.053   5.996 -0.6915 -0.2382 -0.4295
49368SOL     OW55343   7.957   7.283   9.294 -0.3270  0.1444 -0.6010
49368SOL    HW155344   7.924   7.291   9.383  0.5185 -0.5472 -0.2083
49368SOL    HW255345   7.901   7.341   9.242 -0.8063  0.5800  0.3783
49369SOL     OW55346   3.728  10.082   0.025  0.0684 -0.1680  0.4699
49369SOL    HW155347   3.774  10.138   0.088  0.2388 -0.5575  0.6912
49369SOL    HW255348   3.778  10.001   0.024 -0.3859 -0.4464  0.4075
49370SOL     OW55349  10.363   9.360   7.658 -0.4208  0.2718  0.0234
49370SOL    HW155350  10.397   9.273   7.636 -1.3787 -1.4031  4.2945
49370SOL    HW255351  10.440   9.411   7.681 -0.0890 -0.8071  1.4283
49371SOL     OW55352   1.710   7.321   4.157  0.2748 -0.3809  0.7260
49371SOL    HW155353   1.772   7.273   4.102 -0.2531  0.5918 -0.7863
49371SOL    HW255354   1.636   7.261   4.168 -0.7587  0.2629 -1.8668
49372SOL     OW55355   7.275  11.976   9.026  0.1899 -0.0245  0.2379
49372SOL    HW155356   7.268  12.007   9.116 -1.4956  0.9508 -0.2028
49372SOL    HW255357   7.189  11.990   8.988  0.2872 -2.2471 -0.9886
49373SOL     OW55358   4.086  11.893   1.695 -0.0746  0.4659 -0.2751
49373SOL    HW155359   4.001  11.850   1.691 -1.1268  2.4446 -0.8124
49373SOL    HW255360   4.071  11.971   1.748  1.9783 -0.2132  1.4456
49374SOL     OW55361   2.577  12.051  11.619 -0.1097 -0.0850  0.4248
49374SOL    HW155362   2.518  11.991  11.574 -1.1713  0.5574  0.9185
49374SOL    HW255363   2.524  12.129  11.637  0.9896  0.6753  0.5533
49375SOL     OW55364   0.488  12.551   4.949  0.2680 -0.1156  0.0633
49375SOL    HW155365   0.446  12.477   4.903 -0.7014  0.5239 -0.1124
49375SOL    HW255366   0.419  12.618   4.954  0.4970  0.0376  1.9993
49376SOL     OW55367   1.849  11.364   3.274 -0.8021 -0.2793  0.3320
49376SOL    HW155368   1.863  11.343   3.182 -1.7157 -1.5325  0.4538
49376SOL    HW255369   1.888  11.451   3.285  0.4928 -0.6670 -0.9102
49377SOL     OW55370   2.511   2.927   8.634 -0.1463  0.1531  0.3991
49377SOL    HW155371   2.557   2.843   8.622 -0.2630  0.0626  0.5749
49377SOL    HW255372   2.517   2.970   8.549 -3.4250 -1.6975 -0.9345
49378SOL     OW55373   6.693   9.425   5.925 -0.2386 -0.1102  0.2515
49378SOL    HW155374   6.607   9.459   5.947 -0.9523 -0.9745 -1.0668
49378SOL    HW255375   6.743   9.429   6.007 -1.1381  1.5135  0.7502
49379SOL     OW55376  11.815   8.699   5.580 -0.4446  0.0864  0.4539
49379SOL    HW155377  11.745   8.695   5.646 -2.1521  0.7027 -1.2352
49379SOL    HW255378  11.824   8.793   5.561 -0.3503 -0.1269 -0.5817
49380SOL     OW55379   4.838  10.262   2.755  0.4602  0.3656  0.3559
49380SOL    HW155380   4.743  10.269   2.744  0.3927  1.5293  1.4807
49380SOL    HW255381   4.874  10.315   2.684  0.2140  1.4549  1.0262
49381SOL     OW55382   5.402   3.275   2.219  0.6079  0.2238 -0.4219
49381SOL    HW155383   5.462   3.286   2.293  1.4770  0.7198 -1.1812
49381SOL    HW255384   5.343   3.350   2.225  0.3630 -0.0050  0.0513
49382SOL     OW55385   6.741  11.716   6.050  0.1626 -0.3031  0.3470
49382SOL    HW155386   6.689  11.709   5.970  0.5974 -0.8126  0.1024
49382SOL    HW255387   6.692  11.777   6.105 -0.2151 -0.0557 -0.2484
49383SOL     OW55388   0.811   1.149  12.174 -0.2049 -0.6851 -0.1079
49383SOL    HW155389   0.780   1.223  12.226 -0.3203 -1.0415  0.3354
49383SOL    HW255390   0.742   1.084  12.183  1.2336 -2.0267  2.0017
49384SOL     OW55391   2.755  10.814   0.690  0.7163 -0.2241  0.6206
49384SOL    HW155392   2.700  10.805   0.768  0.1727  1.5573  0.4976
49384SOL    HW255393   2.695  10.801   0.617  0.8748 -0.2389  0.4935
49385SOL     OW55394   5.861   2.842   3.116  0.2574 -0.2982 -0.2487
49385SOL    HW155395   5.843   2.888   3.035 -0.9353  1.4255  0.9369
49385SOL    HW255396   5.884   2.911   3.179 -1.4392 -1.2700  1.5536
49386SOL     OW55397   5.328  10.033  12.618  0.3581  0.0590 -0.1322
49386SOL    HW155398   5.360   9.972  12.684  0.7398 -0.3092 -0.6527
49386SOL    HW255399   5.281  10.100  12.668  1.3518  0.2398  0.5782
49387SOL     OW55400   5.721   8.175   4.990  0.3027 -0.5811  0.0276
49387SOL    HW155401   5.797   8.117   4.991  0.5280 -0.2799  0.3031
49387SOL    HW255402   5.701   8.190   5.082  0.3644 -0.0642 -0.0407
49388SOL     OW55403   4.711   5.707   0.991  0.7326 -0.3107  0.2381
49388SOL    HW155404   4.788   5.652   0.978  0.9059 -0.0519  0.1617
49388SOL    HW255405   4.730   5.755   1.072  0.5259 -0.4555  0.3741
49389SOL     OW55406   6.227   3.285   1.402 -0.3416 -0.0070 -0.0908
49389SOL    HW155407   6.155   3.260   1.460 -1.0578  1.2767 -0.3919
49389SOL    HW255408   6.207   3.375   1.376  0.3392 -0.3035 -1.7637
49390SOL     OW55409   4.726   2.093  11.602 -0.9541  0.3644 -0.0127
49390SOL    HW155410   4.748   2.091  11.509 -1.1803 -1.0355 -0.0550
49390SOL    HW255411   4.808   2.069  11.646 -0.4349  2.4317  0.2723
49391SOL     OW55412   3.632   3.354   6.170  0.4661  0.5127  0.3528
49391SOL    HW155413   3.552   3.340   6.222  1.0149 -0.9489  0.8715
49391SOL    HW255414   3.636   3.448   6.156 -0.8193  0.7138  1.1768
49392SOL     OW55415   4.757   6.150  10.861  0.0166  0.1433  0.1976
49392SOL    HW155416   4.672   6.171  10.899  0.2946  1.2061  0.2740
49392SOL    HW255417   4.744   6.067  10.816 -0.7243 -0.3488  1.2815
49393SOL     OW55418   5.535  11.589   4.916 -0.4744 -0.1357 -0.1085
49393SOL    HW155419   5.511  11.568   5.006  1.4244 -0.6815  0.3197
49393SOL    HW255420   5.603  11.525   4.894 -0.7215  0.1442 -1.8557
49394SOL     OW55421   2.256   7.343   3.325 -0.4280  0.2010  0.1596
49394SOL    HW155422   2.205   7.415   3.287 -2.2598 -1.4780 -0.7060
49394SOL    HW255423   2.317   7.318   3.255  0.5847  1.1844  0.6465
49395SOL     OW55424   5.962   2.189   8.837 -0.0103  0.6706  0.2689
49395SOL    HW155425   5.923   2.222   8.918  0.2691  0.0680  0.6588
49395SOL    HW255426   6.055   2.178   8.858  0.1407  0.9388 -0.2730
49396SOL     OW55427  12.120   1.717   3.751 -0.0606  0.1923  0.1307
49396SOL    HW155428  12.034   1.712   3.794  0.1181  1.8429  0.7605
49396SOL    HW255429  12.179   1.673   3.812 -0.1863  0.5169  0.4885
49397SOL     OW55430  10.557   2.060   3.536 -0.3500 -0.1407 -0.0970
49397SOL    HW155431  10.539   2.152   3.554  0.8963  0.5484 -1.9763
49397SOL    HW255432  10.495   2.036   3.467 -1.9474 -1.3399  1.6404
49398SOL     OW55433   2.026   0.078  11.772 -0.2657  0.1318 -0.2980
49398SOL    HW155434   2.118   0.072  11.744 -0.0774  3.0325 -0.5916
49398SOL    HW255435   2.008   0.171  11.774 -2.8438 -0.3108  1.1281
49399SOL     OW55436  12.581   1.098   2.889  0.1669  0.9254 -0.4820
49399SOL    HW155437  12.676   1.105   2.877  0.2788  1.4003  0.6416
49399SOL    HW255438  12.569   1.080   2.982 -0.8929  1.8891 -0.4096
49400SOL     OW55439   5.721   2.225   9.900 -0.0428 -0.1052 -0.2064
49400SOL    HW155440   5.808   2.185   9.912 -0.5145 -1.0991  0.0062
49400SOL    HW255441   5.660   2.155   9.922 -0.9079  0.7650  0.2031
49401SOL     OW55442   2.096   8.039  11.648 -0.0959  0.3364  0.0388
49401SOL    HW155443   2.114   8.033  11.554 -0.9888  0.3915 -0.1466
49401SOL    HW255444   2.072   8.130  11.662  0.7158  0.4895  0.4556
49402SOL     OW55445   0.805   3.086   2.079 -0.5598 -0.4527  0.1613
49402SOL    HW155446   0.875   3.023   2.063  0.2299  0.4634 -0.0397
49402SOL    HW255447   0.735   3.034   2.120 -1.4403 -2.2546 -3.2518
49403SOL     OW55448   3.841   3.756  11.698  0.2900 -0.2172 -0.7312
49403SOL    HW155449   3.847   3.716  11.611 -1.3933 -1.5862 -0.2746
49403SOL    HW255450   3.860   3.684  11.758 -1.6246 -0.0932  0.0802
49404SOL     OW55451   1.836  11.701   9.344 -0.0744  0.4648 -0.4945
49404SOL    HW155452   1.868  11.778   9.392 -0.7287 -0.1387  0.9447
49404SOL    HW255453   1.901  11.633   9.361  0.1794  0.4975 -1.2643
49405SOL     OW55454   9.742  11.861   8.407  0.2495  0.0953  0.1123
49405SOL    HW155455   9.795  11.900   8.477 -1.3669  1.7433  0.5263
49405SOL    HW255456   9.782  11.893   8.326  1.4330 -0.8616  0.2917
49406SOL     OW55457  11.633   1.833   0.806 -0.2125  0.0010  0.2890
49406SOL    HW155458  11.694   1.824   0.879  1.1882  0.6267 -0.7420
49406SOL    HW255459  11.629   1.746   0.767  1.9222  0.4115 -1.0206
49407SOL     OW55460   6.043   1.302   0.840  0.0143  0.1068 -0.2956
49407SOL    HW155461   6.104   1.340   0.904 -0.3588 -0.7403  0.5911
49407SOL    HW255462   6.091   1.229   0.802 -0.0479  0.1218 -0.4014
49408SOL     OW55463   7.268   1.635  11.495  0.2373 -0.1708 -0.8582
49408SOL    HW155464   7.354   1.608  11.526 -0.2832 -0.5228  0.3254
49408SOL    HW255465   7.230   1.555  11.457 -0.1684 -0.4109  0.0326
49409SOL     OW55466   8.715   0.019  10.073  0.7362 -0.0549 -0.3897
49409SOL    HW155467   8.670   0.088  10.122  1.1832  0.2894 -0.4527
49409SOL    HW255468   8.646  -0.040  10.044  0.3727  0.2449 -0.1340
49410SOL     OW55469   9.589   2.839   8.186  0.3901 -0.2599  0.2858
49410SOL    HW155470   9.650   2.896   8.141 -0.7713 -0.3456 -1.5043
49410SOL    HW255471   9.507   2.889   8.189  0.1812 -0.6304  1.5118
49411SOL     OW55472   6.178   4.982  10.051 -0.3906  0.4524  0.1486
49411SOL    HW155473   6.148   5.050  10.111  2.3208  0.2090  1.8907
49411SOL    HW255474   6.174   5.024   9.965 -1.5358  1.7917  0.7990
49412SOL     OW55475   5.383   7.937   3.480 -0.3735 -0.1500 -0.5522
49412SOL    HW155476   5.344   7.860   3.439  0.3366  0.0669 -1.6753
49412SOL    HW255477   5.352   7.934   3.570 -0.6711 -1.5309 -0.6744
49413SOL     OW55478   0.083   7.785   7.822  0.2353  0.5650  0.3852
49413SOL    HW155479   0.087   7.856   7.758  1.5117  0.5683  0.4323
49413SOL    HW255480   0.039   7.713   7.776  0.4035  0.8459 -0.2230
49414SOL     OW55481   5.056   8.890   6.541  0.3198  0.0550 -0.1967
49414SOL    HW155482   4.985   8.868   6.482  0.2724  0.9353 -0.4723
49414SOL    HW255483   5.099   8.806   6.559 -0.0127 -0.2957 -1.0162
49415SOL     OW55484   7.891   6.709   9.520  0.3625 -0.4025 -0.4813
49415SOL    HW155485   7.960   6.774   9.524 -0.2525  0.3158 -1.2331
49415SOL    HW255486   7.897   6.662   9.603  0.6799  0.7502  0.1631
49416SOL     OW55487   7.129   9.780   4.357  0.5465  0.1070  0.5729
49416SOL    HW155488   7.203   9.724   4.335  1.7112  1.1666  1.6506
49416SOL    HW255489   7.147   9.811   4.446  1.0124  3.7443 -0.6060
49417SOL     OW55490   1.759   8.905   5.278  0.2275  0.1878  0.2123
49417SOL    HW155491   1.667   8.888   5.295  0.1585  1.9092  1.8543
49417SOL    HW255492   1.792   8.823   5.239 -2.0335 -0.3168 -0.7656
49418SOL     OW55493   4.719   2.368  10.553  0.3095  0.3541  0.2312
49418SOL    HW155494   4.729   2.445  10.609 -0.3870 -0.3408  1.3496
49418SOL    HW255495   4.709   2.404  10.465  1.2120  1.4825  0.5629
49419SOL     OW55496   4.526   4.348   6.783 -0.5850 -0.3561  0.1820
49419SOL    HW155497   4.464   4.300   6.728  0.5446 -1.2137 -0.4039
49419SOL    HW255498   4.551   4.285   6.851  1.2976 -0.8409 -0.8894
49420SOL     OW55499  11.479   9.671  12.135 -0.1392 -0.2078  0.7004
49420SOL    HW155500  11.457   9.763  12.121  0.8688 -0.2265 -1.2391
49420SOL    HW255501  11.394   9.627  12.142 -0.6332  0.8964  2.0853
49421SOL     OW55502  10.416   2.295   1.990 -0.6192  0.9511 -0.0127
49421SOL    HW155503  10.326   2.274   1.964 -0.9424  0.3119  1.5554
49421SOL    HW255504  10.408   2.335   2.077  0.4901  2.4323 -0.5311
49422SOL     OW55505   3.984  12.262  12.398  0.3104 -0.3306  0.2468
49422SOL    HW155506   4.025  12.346  12.420 -3.0147  2.3264 -2.5040
49422SOL    HW255507   3.932  12.240  12.476 -1.6595  2.3089 -0.1620
49423SOL     OW55508   8.821  12.681   8.962  0.4345 -0.5302 -0.2412
49423SOL    HW155509   8.891  12.744   8.948  0.4219 -0.9075 -2.4010
49423SOL    HW255510   8.744  12.733   8.984  1.2047 -0.0680  1.4552
49424SOL     OW55511   6.404   6.785  11.058 -0.1551  0.0575 -0.3559
49424SOL    HW155512   6.367   6.754  11.141  1.0613  0.2789  0.2863
49424SOL    HW255513   6.483   6.733  11.046  1.2902  2.0346  0.1403
49425SOL     OW55514   9.593   3.110   8.030 -0.9336 -0.3226  0.6939
49425SOL    HW155515   9.554   3.189   7.993 -0.9421 -0.3259  0.6966
49425SOL    HW255516   9.686   3.133   8.040 -1.1424  0.1016  1.7999
49426SOL     OW55517   5.833   9.510   7.506  0.0019 -0.2248  0.0670
49426SOL    HW155518   5.813   9.448   7.435 -1.4636  0.7457 -0.4271
49426SOL    HW255519   5.926   9.528   7.496  0.1073 -1.1139 -0.7885
49427SOL     OW55520   1.637   4.437   5.481 -0.5993 -0.3010  0.2441
49427SOL    HW155521   1.602   4.451   5.569  0.6852  2.2841  0.4305
49427SOL    HW255522   1.563   4.402   5.431 -2.4945  1.7804  1.4220
49428SOL     OW55523   7.475   0.664   6.799  0.0518  0.7690 -0.3290
49428SOL    HW155524   7.380   0.673   6.792 -0.1145  0.7730  1.4344
49428SOL    HW255525   7.502   0.619   6.719 -1.3212  1.5068 -1.2304
49429SOL     OW55526   8.224  10.702   2.295  0.0374  0.1568 -0.0435
49429SOL    HW155527   8.155  10.679   2.233 -1.4357  0.5828  1.3672
49429SOL    HW255528   8.233  10.797   2.286  1.0039  0.0107 -0.7562
49430SOL     OW55529   4.793   7.228  10.472  0.0858 -0.4957 -0.0977
49430SOL    HW155530   4.754   7.187  10.550  0.2162 -0.9175 -0.2496
49430SOL    HW255531   4.885   7.242  10.496  0.1649 -0.7791 -0.2355
49431SOL     OW55532  11.732   5.487   5.860 -0.0209 -0.4945  0.2791
49431SOL    HW155533  11.756   5.579   5.851 -2.8105  0.2337 -0.6799
49431SOL    HW255534  11.681   5.484   5.941  0.8890 -1.4285  0.8394
49432SOL     OW55535   1.415   6.377  12.072 -0.3277 -0.6463  0.3036
49432SOL    HW155536   1.404   6.469  12.098 -0.5333 -0.6178  0.1174
49432SOL    HW255537   1.445   6.382  11.981  2.3127 -0.6803  1.0914
49433SOL     OW55538  11.028   4.289   4.569  0.3610 -0.1322 -0.5420
49433SOL    HW155539  11.069   4.360   4.618 -1.5797 -0.2440  1.4272
49433SOL    HW255540  11.004   4.327   4.485 -0.3087  1.4884  0.3452
49434SOL     OW55541   1.228   9.240   0.507  0.3984  0.2866  0.0431
49434SOL    HW155542   1.138   9.270   0.501  0.5221  0.9488  1.2090
49434SOL    HW255543   1.266   9.291   0.578  1.1145 -1.4127  0.9508
49435SOL     OW55544   8.685   9.965  10.332 -0.0212 -0.0209  0.6054
49435SOL    HW155545   8.658  10.037  10.390 -0.1268  0.4656 -0.0229
49435SOL    HW255546   8.751   9.917  10.381 -0.2041  0.2979  1.1755
49436SOL     OW55547  10.684   8.871   8.960 -0.0222 -0.1008  0.0563
49436SOL    HW155548  10.626   8.911   8.895 -0.4018 -1.4318 -0.4617
49436SOL    HW255549  10.772   8.881   8.924 -0.0761  0.5380  0.0935
49437SOL     OW55550   3.245   3.332  12.088  0.0067  0.0992 -1.2855
49437SOL    HW155551   3.317   3.339  12.151 -0.3217  0.3198 -0.9313
49437SOL    HW255552   3.264   3.252  12.040  0.4750  0.1378 -1.1775
49438SOL     OW55553   4.877   1.128  11.700 -0.0572  0.3007  0.1196
49438SOL    HW155554   4.907   1.074  11.627 -1.3890 -1.7344  1.0114
49438SOL    HW255555   4.946   1.194  11.711  1.8431 -1.4559 -0.7553
49439SOL     OW55556   1.990  12.548   3.001 -0.0330 -0.3813 -0.1831
49439SOL    HW155557   1.999  12.592   2.917  0.0841 -1.3255 -0.6770
49439SOL    HW255558   2.067  12.575   3.051  0.2994 -0.4232 -0.6645
49440SOL     OW55559   2.775   9.022  11.909 -0.2879  0.3390  0.1365
49440SOL    HW155560   2.790   9.078  11.833  1.5555 -2.7009 -1.9777
49440SOL    HW255561   2.847   9.043  11.969 -0.1852  0.9083 -0.1765
49441SOL     OW55562   3.507   1.003  10.854  0.3168  0.6893 -0.0263
49441SOL    HW155563   3.527   0.909  10.856 -0.3701  0.5274 -0.4682
49441SOL    HW255564   3.592   1.046  10.862  0.6719  0.0260 -0.2057
49442SOL     OW55565   4.383   0.243   2.811 -0.1975  0.2895 -0.7612
49442SOL    HW155566   4.342   0.158   2.827 -2.9076  1.7452  0.6193
49442SOL    HW255567   4.407   0.241   2.718  0.1518 -2.0601 -0.6805
49443SOL     OW55568   1.963   0.623   1.356  0.6168  0.1814  0.1741
49443SOL    HW155569   2.019   0.646   1.430  1.5567  0.3623 -0.5855
49443SOL    HW255570   1.901   0.559   1.392 -0.6274  2.1593  1.7626
49444SOL     OW55571  10.579   7.168   3.365  0.3162 -0.7355  0.3857
49444SOL    HW155572  10.671   7.188   3.387  0.5720 -2.0136  0.5805
49444SOL    HW255573  10.533   7.251   3.379  1.3678 -0.1766  0.7128
49445SOL     OW55574   8.253  11.574   4.596  0.3164  0.3083 -0.0509
49445SOL    HW155575   8.298  11.612   4.672  0.6751  0.4441 -0.3271
49445SOL    HW255576   8.284  11.484   4.592 -0.8460 -0.1492  0.8452
49446SOL     OW55577  11.072   4.874   8.639 -0.2540 -0.2082 -0.0425
49446SOL    HW155578  10.983   4.875   8.676  0.0009 -0.6144  0.5864
49446SOL    HW255579  11.114   4.951   8.677 -0.7978  0.8902 -1.5387
49447SOL     OW55580  12.657   2.040   8.790  0.5024  0.0265  0.0672
49447SOL    HW155581  12.654   1.947   8.768  0.3110 -0.0126  0.2565
49447SOL    HW255582  12.578   2.055   8.842  1.6605 -0.1997  1.9587
49448SOL     OW55583   6.538  10.785   9.535 -0.1529 -0.4609 -0.0552
49448SOL    HW155584   6.604  10.798   9.467 -0.0490 -0.1199  0.1060
49448SOL    HW255585   6.476  10.857   9.521 -0.3834 -0.6618 -0.0801
49449SOL     OW55586   9.187   5.242   4.534 -0.9639  0.1522  0.1549
49449SOL    HW155587   9.225   5.294   4.605 -1.4462  0.6303  0.0667
49449SOL    HW255588   9.256   5.238   4.467 -0.5335 -0.2403  0.6112
49450SOL     OW55589   8.193   0.368   7.221 -1.2558  0.2629 -0.0414
49450SOL    HW155590   8.147   0.325   7.293 -0.0701 -0.6157  0.2251
49450SOL    HW255591   8.197   0.460   7.248  2.4054 -0.5020  3.0007
49451SOL     OW55592   9.817  11.227   9.223  0.0644 -0.2223 -0.1392
49451SOL    HW155593   9.893  11.220   9.281  0.0497 -1.4852 -0.2264
49451SOL    HW255594   9.837  11.168   9.150 -1.0650 -0.7272 -0.0676
49452SOL     OW55595  10.212  12.159  11.665  0.5482  0.1435 -0.9331
49452SOL    HW155596  10.297  12.175  11.624  0.4817 -0.7087 -1.4208
49452SOL    HW255597  10.175  12.085  11.616  0.7600 -1.3825  1.1087
49453SOL     OW55598   8.790   4.780   3.528  0.4671 -0.2618  0.0426
49453SOL    HW155599   8.766   4.695   3.493 -0.1354  0.5345 -1.5362
49453SOL    HW255600   8.726   4.796   3.598 -1.6800  0.3955 -1.9565
49454SOL     OW55601   8.976   9.488   2.603  0.9357 -0.2560 -0.3579
49454SOL    HW155602   8.998   9.458   2.691 -1.4285 -2.0139 -0.2480
49454SOL    HW255603   9.048   9.457   2.548  1.5935 -0.6960  0.7137
49455SOL     OW55604   5.988  12.561   2.496 -0.1090 -0.2425 -0.7323
49455SOL    HW155605   6.014  12.473   2.523  2.3515  0.9070  1.0221
49455SOL    HW255606   5.905  12.576   2.541  0.3822 -1.0329  0.4979
49456SOL     OW55607   9.823  10.089  11.602  0.0824  0.5419 -0.4207
49456SOL    HW155608   9.875  10.076  11.682  2.0532 -0.3664 -1.7616
49456SOL    HW255609   9.869  10.159  11.556 -0.2988  0.2153 -1.3110
49457SOL     OW55610  10.458   6.987  11.922 -0.3453 -0.3697  0.2351
49457SOL    HW155611  10.367   7.009  11.901 -1.0140 -1.6167  1.6574
49457SOL    HW255612  10.462   6.892  11.912  0.3876 -0.5050  1.6288
49458SOL     OW55613   3.640  12.212   7.631 -0.1523 -0.0634 -0.5670
49458SOL    HW155614   3.608  12.298   7.605  0.3439  0.0241 -0.9160
49458SOL    HW255615   3.720  12.230   7.680  0.2527 -0.3442 -1.1104
49459SOL     OW55616   3.865   6.388   4.256  0.4284  0.2146 -0.1830
49459SOL    HW155617   3.898   6.386   4.345  0.4929 -0.9048 -0.2157
49459SOL    HW255618   3.879   6.299   4.223  0.8916  0.7381 -1.4805
49460SOL     OW55619   0.295   1.550   3.559 -0.2353 -0.2282  0.1190
49460SOL    HW155620   0.268   1.590   3.641 -2.0217 -2.9166  0.9915
49460SOL    HW255621   0.225   1.571   3.497  0.0061 -0.0739 -0.1099
49461SOL     OW55622   4.881  12.262  12.678 -1.2522  0.1191  0.1598
49461SOL    HW155623   4.918  12.338  12.632  0.1763 -0.3948  0.4305
49461SOL    HW255624   4.926  12.187  12.640  0.1353 -0.3246  2.4740
49462SOL     OW55625  10.722   6.940   0.342  0.1785 -0.0529  0.0753
49462SOL    HW155626  10.714   7.031   0.371  0.4718 -0.0611  0.1950
49462SOL    HW255627  10.655   6.893   0.391 -0.8977  0.3182 -0.9895
49463SOL     OW55628   2.881   7.935   0.266  0.3316 -0.0580 -0.3177
49463SOL    HW155629   2.930   7.996   0.210  1.3903  0.1383  0.7900
49463SOL    HW255630   2.910   7.955   0.355 -0.7013 -0.9301  0.2393
49464SOL     OW55631   5.317   2.461   0.560 -0.2107 -0.6903 -0.6158
49464SOL    HW155632   5.372   2.521   0.610  0.0045 -0.4275 -1.1541
49464SOL    HW255633   5.250   2.517   0.520 -1.2997 -1.0999  0.5877
49465SOL     OW55634   5.098   4.296  10.555 -0.5816  0.1180  0.2622
49465SOL    HW155635   5.104   4.344  10.638  1.0838 -1.1142  0.8968
49465SOL    HW255636   5.187   4.298  10.519 -1.0906 -0.1211 -1.0881
49466SOL     OW55637  10.962   8.998   7.113  0.1021 -0.2954 -0.1576
49466SOL    HW155638  10.948   9.015   7.020 -0.6750  0.4524  0.0898
49466SOL    HW255639  10.928   8.910   7.126 -1.1293  0.1348 -0.3021
49467SOL     OW55640   8.231   8.848  12.484 -0.1229 -0.2744 -0.2867
49467SOL    HW155641   8.182   8.888  12.412 -0.5675  0.3709  0.3594
49467SOL    HW255642   8.322   8.873  12.467 -0.1709 -0.4292 -0.8122
49468SOL     OW55643   3.211  12.471   8.868  0.4033 -0.3121  0.4260
49468SOL    HW155644   3.293  12.510   8.898  0.4184  0.5538 -0.6918
49468SOL    HW255645   3.213  12.480   8.773 -0.9793 -0.2968  0.3724
49469SOL     OW55646   1.715   2.252  11.015  0.0950 -0.0506  0.2173
49469SOL    HW155647   1.766   2.178  10.984  1.8237  1.0649  0.2599
49469SOL    HW255648   1.650   2.267  10.946 -0.7139 -1.9508  0.5005
49470SOL     OW55649   6.795   2.537   6.022 -0.0098  0.1912  0.0669
49470SOL    HW155650   6.767   2.482   5.949 -2.5196  2.5163 -0.8791
49470SOL    HW255651   6.781   2.481   6.099  0.4314 -1.4857 -1.0019
49471SOL     OW55652   8.820   1.177   7.288  0.1870 -0.4228  0.1021
49471SOL    HW155653   8.906   1.214   7.308 -0.3201  0.1696  1.3215
49471SOL    HW255654   8.785   1.152   7.373 -0.4711 -1.5361 -0.4786
49472SOL     OW55655  12.686   4.853   4.112  0.0957  0.7264 -0.2501
49472SOL    HW155656  12.665   4.782   4.173  0.7951 -1.0048 -1.9181
49472SOL    HW255657  12.675   4.933   4.163  0.1079 -0.6149  1.9625
49473SOL     OW55658   3.143   8.915   3.209 -0.4329  0.0413  0.1012
49473SOL    HW155659   3.207   8.966   3.260  2.3433  0.1553 -3.1572
49473SOL    HW255660   3.098   8.981   3.156 -1.0631 -0.3737  0.1135
49474SOL     OW55661  11.155   6.433  11.579 -0.2369  0.4586  0.5518
49474SOL    HW155662  11.131   6.523  11.600 -1.4757  0.1396  0.5682
49474SOL    HW255663  11.173   6.392  11.664 -0.8490  0.3765  0.6464
49475SOL     OW55664  10.974   1.949  11.590 -0.0823  0.0378 -0.5656
49475SOL    HW155665  11.044   1.922  11.649  0.1676 -2.0728 -1.7149
49475SOL    HW255666  10.894   1.929  11.637  0.1100 -0.5320 -0.4766
49476SOL     OW55667   9.018  10.157  11.086 -0.0354 -0.6580  0.6805
49476SOL    HW155668   9.070  10.237  11.086  0.6819 -1.1047  0.0911
49476SOL    HW255669   8.930  10.185  11.061  0.2728 -0.0881  0.2197
49477SOL     OW55670   1.611  11.927   7.378 -0.1849  0.4063  0.7601
49477SOL    HW155671   1.643  11.849   7.424 -1.0479  0.1955  1.0352
49477SOL    HW255672   1.689  11.976   7.355  0.4069 -0.8407  0.0586
49478SOL     OW55673   7.209   0.214   2.859 -0.0358 -0.1278  0.0737
49478SOL    HW155674   7.243   0.160   2.787  0.3688  2.6580 -2.0322
49478SOL    HW255675   7.286   0.233   2.913 -0.2938 -2.0239  1.2100
49479SOL     OW55676   6.160   4.129   0.469  0.0542 -0.1763  0.4538
49479SOL    HW155677   6.192   4.041   0.489  1.4151 -0.0491 -0.9933
49479SOL    HW255678   6.099   4.116   0.397 -0.0337  0.0149  0.4953
49480SOL     OW55679  10.787   2.386   3.644  0.0017  0.1032  0.2998
49480SOL    HW155680  10.819   2.297   3.658 -1.0820 -0.1141  1.5939
49480SOL    HW255681  10.710   2.376   3.588  0.3660  0.3169 -0.2473
49481SOL     OW55682   7.640  10.137  10.333  0.3106 -0.0595 -0.4513
49481SOL    HW155683   7.580  10.063  10.344 -0.0646 -0.0125 -1.9378
49481SOL    HW255684   7.727  10.097  10.330  0.1081 -0.4546 -1.2661
49482SOL     OW55685   4.917   9.585   4.179 -0.2231  0.3213 -0.0680
49482SOL    HW155686   4.851   9.528   4.138 -0.4936  0.7318 -0.2125
49482SOL    HW255687   4.870   9.667   4.196  0.0067  0.3011  0.6793
49483SOL     OW55688   6.037   3.221   5.285  0.1293 -0.8659 -0.1474
49483SOL    HW155689   6.113   3.245   5.337 -0.0097  0.3744 -0.4870
49483SOL    HW255690   5.962   3.249   5.337 -0.0106  0.4121 -0.9902
49484SOL     OW55691  10.458   4.273   8.804 -0.1895  0.0537  0.4024
49484SOL    HW155692  10.462   4.201   8.867  0.0640 -1.3992 -1.2088
49484SOL    HW255693  10.375   4.260   8.758 -0.6199  1.3994  0.7628
49485SOL     OW55694   4.569   4.382  10.101 -0.4258 -0.4780  0.1586
49485SOL    HW155695   4.525   4.380  10.186  0.4073  0.1204  0.6151
49485SOL    HW255696   4.507   4.428  10.044 -0.7840 -0.4560  0.5570
49486SOL     OW55697   7.006  11.844   6.454 -0.0236  0.0843 -0.1827
49486SOL    HW155698   7.078  11.852   6.391 -0.7963  1.0744 -0.9841
49486SOL    HW255699   7.028  11.907   6.523 -1.0880  1.9362 -1.4499
49487SOL     OW55700   4.089   3.453   6.483  0.6072  0.1810  0.0526
49487SOL    HW155701   4.040   3.430   6.404  2.1592 -0.0812 -0.8635
49487SOL    HW255702   4.161   3.390   6.486  2.3084  2.0157  0.0142
49488SOL     OW55703   4.316   2.034   5.475  0.1643  0.7516 -0.3961
49488SOL    HW155704   4.371   2.047   5.398 -0.2926 -0.0071 -0.8628
49488SOL    HW255705   4.313   2.120   5.517 -0.8094  1.5759 -2.0388
49489SOL     OW55706   6.028   8.318   5.529 -0.0829 -0.3043  0.4790
49489SOL    HW155707   6.076   8.239   5.504 -0.3989 -0.0135 -1.1435
49489SOL    HW255708   6.096   8.383   5.543  0.0712  0.3014 -2.5056
49490SOL     OW55709   2.126  10.420  12.660 -0.7993 -0.1271 -0.2471
49490SOL    HW155710   2.114  10.423  12.754  0.2974 -0.1784 -0.0911
49490SOL    HW255711   2.193  10.353  12.646 -0.8589 -0.0369 -1.0576
49491SOL     OW55712  10.985   3.966   2.157 -0.1105  0.5138  0.0607
49491SOL    HW155713  11.020   3.929   2.238  0.1285  0.3001 -0.1363
49491SOL    HW255714  10.955   4.053   2.181 -2.6527 -0.5473  1.0526
49492SOL     OW55715   6.101   2.905   1.859  0.3175 -0.0207  0.1464
49492SOL    HW155716   6.160   2.830   1.851 -0.4198 -0.6845  0.7740
49492SOL    HW255717   6.075   2.905   1.952 -1.6714 -0.5350 -0.3632
49493SOL     OW55718   3.524   3.405   4.181 -0.0096  0.6883  0.2261
49493SOL    HW155719   3.596   3.443   4.131 -1.8219  1.0289 -2.2913
49493SOL    HW255720   3.567   3.351   4.247  2.6352 -1.5139 -2.9873
49494SOL     OW55721   1.995  11.337   6.657  0.4817 -0.0410 -0.7464
49494SOL    HW155722   2.009  11.319   6.750  1.1350 -0.0308 -0.8336
49494SOL    HW255723   1.962  11.426   6.654  2.3261  0.6922 -0.6248
49495SOL     OW55724   2.668   7.691  10.696 -0.0858 -0.2491 -0.0645
49495SOL    HW155725   2.749   7.652  10.664 -1.9839 -1.8173 -3.7276
49495SOL    HW255726   2.666   7.778  10.657 -0.3371 -0.4283 -0.4725
49496SOL     OW55727   0.837   7.363   6.338 -0.6684  0.0511 -0.4512
49496SOL    HW155728   0.804   7.278   6.310  1.2225 -0.7744 -0.3304
49496SOL    HW255729   0.824   7.364   6.433  0.8572 -0.8812 -0.1959
49497SOL     OW55730  10.658  12.494   5.217 -0.4637 -0.8770  0.1480
49497SOL    HW155731  10.639  12.579   5.258 -1.3545 -1.1624  0.3490
49497SOL    HW255732  10.602  12.432   5.264  0.6538 -1.6939  0.4430
49498SOL     OW55733   6.698   8.538   9.232 -0.6492 -0.0489 -0.5021
49498SOL    HW155734   6.674   8.489   9.311  0.1655  0.5423  0.1275
49498SOL    HW255735   6.771   8.488   9.194  0.0469  0.5297  0.0297
49499SOL     OW55736   8.020   4.416   2.466 -0.3092  0.1855  0.0173
49499SOL    HW155737   8.095   4.440   2.411  0.3617 -1.7381 -0.0002
49499SOL    HW255738   8.019   4.482   2.536  1.1852  0.4617 -0.1873
49500SOL     OW55739   9.696  11.572   2.503  0.5446  0.3870 -0.2464
49500SOL    HW155740   9.783  11.558   2.541  1.4345 -2.2710 -2.9325
49500SOL    HW255741   9.638  11.518   2.556  0.8065  0.8407  0.5190
49501SOL     OW55742  10.612   2.564  12.112  0.1032  0.1555  0.2217
49501SOL    HW155743  10.569   2.629  12.167  1.4616  0.6055  0.7917
49501SOL    HW255744  10.699   2.600  12.095 -0.2998  0.0943 -2.3715
49502SOL     OW55745   5.030   6.358   5.613 -0.1770  0.1758  0.3675
49502SOL    HW155746   5.040   6.441   5.567 -1.5965  1.3746  2.1050
49502SOL    HW255747   5.024   6.382   5.705 -1.5135 -1.7710  0.8498
49503SOL     OW55748   8.352   0.556   0.228 -0.3446 -0.7792  0.0026
49503SOL    HW155749   8.272   0.561   0.282 -1.1376 -0.9013 -1.1184
49503SOL    HW255750   8.422   0.584   0.286 -1.1390 -1.1174  1.1631
49504SOL     OW55751   7.674   8.165  11.793 -0.3107  0.3944 -0.4932
49504SOL    HW155752   7.600   8.132  11.843 -1.2875  2.0063 -0.8077
49504SOL    HW255753   7.750   8.119  11.829 -1.4070 -1.0482  0.0548
49505SOL     OW55754  12.302   8.508   4.384 -0.0339 -0.5947  1.0432
49505SOL    HW155755  12.325   8.547   4.300 -1.2753  0.1802  1.0454
49505SOL    HW255756  12.383   8.466   4.414  0.3995 -0.9939 -0.5823
49506SOL     OW55757   3.412   7.084   0.936 -0.0143 -0.3770  0.4853
49506SOL    HW155758   3.489   7.034   0.963 -0.2887 -2.3519 -2.0520
49506SOL    HW255759   3.338   7.034   0.972 -0.2653 -1.5213 -1.5149
49507SOL     OW55760   4.642   2.401   0.077 -0.3306  0.0653  0.3246
49507SOL    HW155761   4.667   2.456   0.003 -0.9953 -0.9033 -0.6372
49507SOL    HW255762   4.547   2.399   0.075 -0.3160 -1.6994 -0.1260
49508SOL     OW55763   3.422   0.429   5.863  0.6747 -0.2990  0.1227
49508SOL    HW155764   3.410   0.335   5.878  0.8342 -0.4146 -0.4614
49508SOL    HW255765   3.361   0.450   5.792  1.9721 -0.3409 -1.0379
49509SOL     OW55766   7.509   1.612   5.467 -0.1188  0.6086  0.1840
49509SOL    HW155767   7.574   1.629   5.399 -2.1168  1.8923 -1.4908
49509SOL    HW255768   7.539   1.663   5.542  2.4485 -1.3077  0.6259
49510SOL     OW55769   6.332   9.345  10.355  0.1855 -0.0101 -0.1871
49510SOL    HW155770   6.296   9.387  10.433 -0.2162 -0.6007 -0.0478
49510SOL    HW255771   6.275   9.374  10.284 -0.7738 -1.1940  0.0811
49511SOL     OW55772   9.422   8.297   1.872  0.3342  0.8067  0.1201
49511SOL    HW155773   9.459   8.211   1.851  1.0601  1.3611 -1.0284
49511SOL    HW255774   9.343   8.278   1.921 -1.4595 -0.7197 -3.0111
49512SOL     OW55775   3.317   1.991  11.622  0.3457  0.2505 -0.2700
49512SOL    HW155776   3.236   1.945  11.646  0.2446  1.0548  1.0519
49512SOL    HW255777   3.385   1.925  11.631  0.0404  0.0050  0.3107
49513SOL     OW55778   9.895   2.435   5.066 -0.1112 -0.4597 -0.3496
49513SOL    HW155779   9.829   2.488   5.022  1.5837  2.1801  0.0591
49513SOL    HW255780   9.936   2.384   4.996 -1.4092 -0.8364 -0.8548
49514SOL     OW55781  11.862  11.267  10.672 -0.2075  0.2542 -0.2338
49514SOL    HW155782  11.936  11.306  10.718  0.2950  0.1242 -0.9106
49514SOL    HW255783  11.823  11.339  10.623  0.8465 -0.0872 -1.6484
49515SOL     OW55784  10.535   3.351   9.278  0.2316  0.3414 -0.3567
49515SOL    HW155785  10.524   3.439   9.242  1.8028  0.1181 -1.4762
49515SOL    HW255786  10.446   3.322   9.298 -0.2643  2.8386  1.7616
49516SOL     OW55787  11.147   5.473   7.630 -0.6286  0.0599 -0.1143
49516SOL    HW155788  11.060   5.496   7.661  0.0788  0.5808  1.5954
49516SOL    HW255789  11.175   5.549   7.579  0.3876  1.7871  2.7710
49517SOL     OW55790   9.015   6.527  11.635 -0.1971  0.1865  0.0529
49517SOL    HW155791   8.925   6.558  11.627  0.1032  1.5655  1.4493
49517SOL    HW255792   9.027   6.513  11.729  1.0068 -0.0832 -0.1209
49518SOL     OW55793   8.958   7.238   0.044 -0.0240  0.6750 -0.0482
49518SOL    HW155794   8.908   7.188   0.109  0.3762 -0.6535 -0.7340
49518SOL    HW255795   8.912   7.322   0.039 -2.7960 -0.7594 -1.3069
49519SOL     OW55796   7.438   2.557  10.230 -0.3049  0.4885  0.2672
49519SOL    HW155797   7.460   2.466  10.252 -0.1340  0.8790  1.8059
49519SOL    HW255798   7.522   2.601  10.220 -0.3699  0.9548  1.6643
49520SOL     OW55799   0.249   9.347   5.333 -0.1473 -0.3560  0.0384
49520SOL    HW155800   0.261   9.286   5.406  0.8168 -1.0144 -0.6379
49520SOL    HW255801   0.287   9.302   5.258 -1.3801  0.1817 -0.9461
49521SOL     OW55802   8.792   8.436   3.686 -0.0774 -0.9867  0.7207
49521SOL    HW155803   8.884   8.458   3.703  0.4069 -0.2549 -2.3098
49521SOL    HW255804   8.752   8.519   3.662 -1.3810 -1.4445  1.2289
49522SOL     OW55805   8.803   3.490   7.450 -0.2031  0.2020 -0.1532
49522SOL    HW155806   8.830   3.575   7.415  2.0557 -0.7515 -0.9406
49522SOL    HW255807   8.830   3.492   7.541  0.2740  0.1694 -0.2921
49523SOL     OW55808   8.925  10.772   7.098  0.7723 -0.6054  0.4084
49523SOL    HW155809   8.995  10.775   7.163  0.0533  0.2875  1.1699
49523SOL    HW255810   8.917  10.862   7.067 -0.7580 -0.4620  1.1419
49524SOL     OW55811   7.621  10.135   9.217 -0.1258  0.0708 -0.3434
49524SOL    HW155812   7.647  10.196   9.287  0.1699  0.7396 -1.0269
49524SOL    HW255813   7.529  10.116   9.236  0.3572 -1.0341  1.1507
49525SOL     OW55814  10.313   1.307  12.387  0.4651  0.1549  0.1718
49525SOL    HW155815  10.346   1.262  12.465  2.6629 -0.5940 -1.0854
49525SOL    HW255816  10.331   1.246  12.315 -1.5258  0.8078 -0.9352
49526SOL     OW55817   9.590   5.215   8.160 -0.5308  0.2178  0.2624
49526SOL    HW155818   9.664   5.237   8.104 -1.3648  3.4095  0.2328
49526SOL    HW255819   9.555   5.133   8.123  1.7789 -0.3343 -0.8526
49527SOL     OW55820   1.484   4.426  10.727 -0.5695  0.3067 -0.1711
49527SOL    HW155821   1.560   4.422  10.785 -0.9190  0.5092  0.3125
49527SOL    HW255822   1.519   4.405  10.641  0.3956  2.2540 -0.2971
49528SOL     OW55823   2.250   7.398   7.282 -0.1270  0.0942 -0.0483
49528SOL    HW155824   2.328   7.396   7.338  0.1103 -2.5549 -0.3500
49528SOL    HW255825   2.284   7.414   7.194 -0.1378  0.6462  0.0397
49529SOL     OW55826   0.233   9.326   8.815 -0.1028 -0.4510 -0.0099
49529SOL    HW155827   0.202   9.300   8.728 -1.1555  1.8361 -0.3994
49529SOL    HW255828   0.154   9.324   8.869 -0.0474  0.9375  0.1515
49530SOL     OW55829   7.282   9.696   3.878  0.0839  0.4965  0.7238
49530SOL    HW155830   7.257   9.631   3.812  0.5980  0.6744  0.3499
49530SOL    HW255831   7.219   9.767   3.867  1.0056  1.1678 -0.5547
49531SOL     OW55832  11.248   4.020   7.608  0.0180  0.2971 -0.4322
49531SOL    HW155833  11.156   3.998   7.593 -0.2034  1.3416 -0.6686
49531SOL    HW255834  11.272   4.076   7.534  0.2523  1.6922  0.6644
49532SOL     OW55835   1.623  11.715   6.227 -0.1692  0.1646 -0.2549
49532SOL    HW155836   1.548  11.686   6.175 -0.1215 -2.6874  1.1098
49532SOL    HW255837   1.588  11.722   6.316  0.5315  1.7501 -0.0688
49533SOL     OW55838   3.241   9.450   4.288 -0.1379 -0.5676 -0.1384
49533SOL    HW155839   3.152   9.447   4.325 -0.5924 -1.6391 -1.2346
49533SOL    HW255840   3.226   9.456   4.193  0.9823  0.8472 -0.2567
49534SOL     OW55841   6.906   9.884  10.084 -0.2678  0.6032  0.1971
49534SOL    HW155842   6.893   9.906  10.177 -0.2574  1.9241 -0.0948
49534SOL    HW255843   6.847   9.943  10.037 -0.2888 -0.0716 -0.6458
49535SOL     OW55844   7.409  10.233  10.117 -0.1706  0.3961 -0.1352
49535SOL    HW155845   7.378  10.197  10.200  1.1050  1.7029  0.9634
49535SOL    HW255846   7.505  10.225  10.121 -0.1345 -1.2155 -2.3120
49536SOL     OW55847   6.157   9.583   0.464 -0.7410 -0.0260  0.4382
49536SOL    HW155848   6.210   9.611   0.539  0.7768  0.9178 -0.9086
49536SOL    HW255849   6.068   9.578   0.498 -0.1449  0.6750  2.2276
49537SOL     OW55850   2.526  12.656   2.525  0.1958  0.0159 -0.1899
49537SOL    HW155851   2.608  12.701   2.548  1.2908 -2.2703  0.6635
49537SOL    HW255852   2.473  12.662   2.604 -0.5274  1.4915 -0.7410
49538SOL     OW55853   6.178   8.244   8.862 -0.0562  0.4464 -0.1971
49538SOL    HW155854   6.098   8.235   8.809 -0.2230 -1.6772  0.3477
49538SOL    HW255855   6.163   8.323   8.914 -3.4748 -1.7072  2.5047
49539SOL     OW55856   8.604   8.156   7.926 -0.3101 -0.3843  0.1627
49539SOL    HW155857   8.583   8.221   7.993 -2.1320 -1.5333  0.7882
49539SOL    HW255858   8.700   8.156   7.921 -0.0055 -0.9376  3.5296
49540SOL     OW55859   6.571  10.661  11.824 -0.2452  0.2456  0.3047
49540SOL    HW155860   6.664  10.656  11.844 -0.0691  1.0203 -0.3030
49540SOL    HW255861   6.565  10.653  11.729 -0.3500  4.7281 -0.2781
49541SOL     OW55862   7.323  10.702   4.881 -0.1099 -0.3786  0.5540
49541SOL    HW155863   7.301  10.705   4.974 -0.2253  1.4517  0.5028
49541SOL    HW255864   7.282  10.780   4.844  1.4418 -0.0948 -0.6757
49542SOL     OW55865   3.351   3.922   1.531 -0.2856  0.0386  0.4914
49542SOL    HW155866   3.317   3.956   1.447 -0.4744  0.9386  0.9178
49542SOL    HW255867   3.332   3.829   1.528 -0.2595  0.0462 -0.4887
49543SOL     OW55868   6.414   7.649   3.566  0.2439  0.0943  0.6196
49543SOL    HW155869   6.488   7.678   3.620  1.0984 -0.1163 -0.3858
49543SOL    HW255870   6.389   7.727   3.517  0.2377  0.0002  0.4729
49544SOL     OW55871   4.722  10.742   3.410  0.8698  0.0546  0.3629
49544SOL    HW155872   4.729  10.754   3.315 -1.5066  1.4197  0.2811
49544SOL    HW255873   4.687  10.653   3.420  0.0446  0.3138 -0.1280
49545SOL     OW55874   4.647   3.486   2.801  0.0209  0.0999 -0.0465
49545SOL    HW155875   4.559   3.520   2.788 -0.0992 -0.6290 -1.3396
49545SOL    HW255876   4.637   3.416   2.866 -0.3382  0.0884 -0.1141
49546SOL     OW55877   7.447   5.134  10.033  0.5803 -0.0756  0.1338
49546SOL    HW155878   7.364   5.151  10.078  0.2173 -0.9833 -0.1783
49546SOL    HW255879   7.509   5.115  10.104  0.4883  0.4299  0.3558
49547SOL     OW55880   7.750   7.927   0.136 -0.5959  0.4314  0.1920
49547SOL    HW155881   7.797   7.861   0.186 -2.4880  0.5208  2.2302
49547SOL    HW255882   7.816   7.963   0.076  2.0778  0.8437  3.1002
49548SOL     OW55883  11.085   6.887   9.030 -0.4031 -0.0172  0.2218
49548SOL    HW155884  11.013   6.889   9.093 -0.2390 -0.1361  0.4160
49548SOL    HW255885  11.160   6.856   9.081 -0.2319  0.0359  0.0035
49549SOL     OW55886   1.555   6.756  11.713 -0.2810  0.0438 -0.0977
49549SOL    HW155887   1.565   6.742  11.807  0.7564 -1.2789 -0.3700
49549SOL    HW255888   1.582   6.673  11.673 -0.7610  0.5534 -1.5611
49550SOL     OW55889  10.145   5.072   0.641 -0.9565  0.1342 -0.3146
49550SOL    HW155890  10.153   5.125   0.720  0.0668 -0.0331 -0.2972
49550SOL    HW255891  10.072   5.012   0.660 -1.1656  0.5544  0.2292
49551SOL     OW55892   1.370   4.915   7.798 -0.6668  0.2904  0.3217
49551SOL    HW155893   1.355   4.859   7.722  0.0759  0.9730 -0.3588
49551SOL    HW255894   1.283   4.946   7.823 -1.0144 -0.6580  0.3228
49552SOL     OW55895   4.483   2.483   7.217 -0.0962  0.5964 -0.2626
49552SOL    HW155896   4.392   2.461   7.236  0.1360  0.0921  0.3311
49552SOL    HW255897   4.479   2.537   7.139 -0.7324 -1.6885 -1.9178
49553SOL     OW55898   9.594  11.117  11.779  0.4432 -0.0649  0.8353
49553SOL    HW155899   9.546  11.187  11.823  0.3802  0.3444  0.1225
49553SOL    HW255900   9.679  11.156  11.757  0.8818 -0.5896  1.5172
49554SOL     OW55901  10.439   4.973   5.968  0.4529 -0.2597  0.4413
49554SOL    HW155902  10.483   5.003   5.888  0.2322 -0.6543  0.1705
49554SOL    HW255903  10.460   5.040   6.033 -1.1875  1.2717 -0.5036
49555SOL     OW55904   0.787   1.600  10.599  0.3876 -0.1293  0.0980
49555SOL    HW155905   0.830   1.608  10.513  0.0757 -0.3621 -0.0823
49555SOL    HW255906   0.699   1.568  10.578 -0.4126  1.7478  0.3163
49556SOL     OW55907   3.770   2.075   3.723 -0.0502 -0.1698  0.4461
49556SOL    HW155908   3.691   2.112   3.682  0.2643  1.0767  0.9338
49556SOL    HW255909   3.842   2.113   3.674  0.2814 -1.4435 -0.1146
49557SOL     OW55910   0.578   1.810   2.524 -0.0206  0.2306 -0.3287
49557SOL    HW155911   0.604   1.719   2.540 -1.7365  0.0282  1.7962
49557SOL    HW255912   0.608   1.857   2.602  0.2488  1.3752 -1.0980
49558SOL     OW55913   7.349  11.207   7.608  0.1741  0.7758 -0.2481
49558SOL    HW155914   7.363  11.126   7.656 -2.6014 -0.9245 -2.0061
49558SOL    HW255915   7.290  11.258   7.663  1.3376  1.3159  0.5284
49559SOL     OW55916   5.113   7.803   0.737 -0.2163 -0.5685 -0.5598
49559SOL    HW155917   5.191   7.844   0.773 -0.8658  1.9217 -1.7408
49559SOL    HW255918   5.041   7.859   0.767 -1.1975 -1.0283 -1.9743
49560SOL     OW55919   9.830   4.280   8.741  0.1445 -0.4053 -0.6514
49560SOL    HW155920   9.865   4.321   8.662 -0.2498 -0.3043 -0.7755
49560SOL    HW255921   9.740   4.311   8.746 -0.3209 -1.6310 -1.0046
49561SOL     OW55922   8.512   2.721   3.097  0.3057  0.0911 -0.1938
49561SOL    HW155923   8.426   2.759   3.081  0.5095  0.4064 -0.5532
49561SOL    HW255924   8.505   2.681   3.184 -0.2954 -0.1510 -0.3494
49562SOL     OW55925   6.400  12.341   6.401  0.0631  0.1745  0.2085
49562SOL    HW155926   6.309  12.366   6.386  0.3991  1.6371  0.4502
49562SOL    HW255927   6.414  12.266   6.343 -0.9023  0.7807 -0.8660
49563SOL     OW55928   9.748   3.354   2.037 -0.2935  0.3488  0.3234
49563SOL    HW155929   9.668   3.394   2.002 -0.4959 -0.9535 -0.7536
49563SOL    HW255930   9.735   3.260   2.026  1.0701  0.0806  0.8524
49564SOL     OW55931   7.346   1.157   2.525  0.5549 -0.2110 -0.4186
49564SOL    HW155932   7.419   1.096   2.514 -0.0314 -1.2288  0.9661
49564SOL    HW255933   7.386   1.238   2.556  1.2145 -0.3290 -0.9520
49565SOL     OW55934   0.297   4.075   2.141 -0.3480  0.2426 -0.3261
49565SOL    HW155935   0.295   4.170   2.132 -2.3810  0.2538 -0.2091
49565SOL    HW255936   0.236   4.056   2.213  1.2483 -1.0741  0.7719
49566SOL     OW55937   6.601  10.382   4.995 -0.2573 -0.1223  0.4277
49566SOL    HW155938   6.608  10.356   5.086  0.2957 -0.8395  0.1919
49566SOL    HW255939   6.685  10.357   4.956 -0.5171  0.0923 -0.2979
49567SOL     OW55940   8.472  10.671   2.365 -0.7389  0.0072 -0.0997
49567SOL    HW155941   8.381  10.690   2.342 -0.8276 -0.0020  0.2366
49567SOL    HW255942   8.473  10.672   2.461 -0.4431 -0.2704 -0.0979
49568SOL     OW55943   7.691  11.456   2.942 -0.5126 -0.1471 -0.6279
49568SOL    HW155944   7.664  11.364   2.947 -2.9890  0.5392  0.2095
49568SOL    HW255945   7.660  11.485   2.857 -1.3810  0.3230 -0.1739
49569SOL     OW55946   2.882   5.680   0.710  0.1730  0.2428 -0.1998
49569SOL    HW155947   2.808   5.631   0.676 -0.4965  0.7089  0.5529
49569SOL    HW255948   2.957   5.621   0.700 -0.2712 -0.1762 -1.0880
49570SOL     OW55949   1.407   1.766   1.141 -0.4565 -0.2391  0.2524
49570SOL    HW155950   1.485   1.717   1.114 -1.3951 -0.8062 -1.5148
49570SOL    HW255951   1.432   1.858   1.131 -0.9756 -0.3597 -3.5541
49571SOL     OW55952   6.596   8.774   9.812 -0.3407  0.0795 -0.7737
49571SOL    HW155953   6.681   8.732   9.825 -0.5932 -0.3423 -0.4886
49571SOL    HW255954   6.617   8.866   9.795  0.1167  0.1679  0.2594
49572SOL     OW55955   6.355   0.304   9.671 -0.0614 -0.2793 -0.1441
49572SOL    HW155956   6.416   0.333   9.603 -0.6172  0.5634 -0.3002
49572SOL    HW255957   6.404   0.311   9.752  0.0751  0.3370 -0.2738
49573SOL     OW55958  10.900   1.565   4.844  0.5959  0.0661 -0.0440
49573SOL    HW155959  10.810   1.580   4.815  1.0245  2.6998 -0.2995
49573SOL    HW255960  10.911   1.470   4.842 -2.3401 -0.3804  0.5653
49574SOL     OW55961   8.050   4.643  12.647  0.5370  0.3434  0.4919
49574SOL    HW155962   8.012   4.676  12.729 -1.4543  1.2520 -0.7295
49574SOL    HW255963   8.083   4.556  12.670 -2.2751 -0.5158  1.7187
49575SOL     OW55964   7.761   1.087   8.224 -0.0401  0.0669 -0.0940
49575SOL    HW155965   7.745   1.001   8.263  0.5939 -0.3028 -0.6295
49575SOL    HW255966   7.689   1.100   8.163 -0.0060 -0.1935 -0.1887
49576SOL     OW55967   8.351   1.304  10.366  0.3522  0.0566  0.3041
49576SOL    HW155968   8.441   1.274  10.373  0.2677 -0.1519  0.5253
49576SOL    HW255969   8.350   1.359  10.289  0.4459 -0.7530 -0.2876
49577SOL     OW55970   8.835   4.001  12.511  0.0460  0.2903 -0.0146
49577SOL    HW155971   8.849   4.007  12.417  1.0304  0.6560  0.1430
49577SOL    HW255972   8.769   4.067  12.530  1.1020  1.4259 -0.2057
49578SOL     OW55973  12.268   0.607  12.555  0.0173 -0.5103  0.5021
49578SOL    HW155974  12.329   0.538  12.531  0.6568  0.3283 -0.3861
49578SOL    HW255975  12.214   0.570  12.625  2.0969 -1.0005  1.9258
49579SOL     OW55976  10.651   0.737   0.007  0.3201  0.6584 -0.7449
49579SOL    HW155977  10.567   0.776  -0.021  0.5338  2.1213  0.5051
49579SOL    HW255978  10.701   0.811   0.041  1.6794 -0.3875 -0.3964
49580SOL     OW55979  12.052   7.652   5.108 -0.4821  0.1043 -0.3636
49580SOL    HW155980  12.136   7.625   5.144  0.1217 -0.2633 -1.9495
49580SOL    HW255981  12.061   7.747   5.095 -1.1700  0.4782  1.5467
49581SOL     OW55982   9.539   5.181   9.722  0.0441 -0.3419  0.6702
49581SOL    HW155983   9.452   5.166   9.759  0.8286 -0.8602  2.3815
49581SOL    HW255984   9.585   5.233   9.788  1.1364 -0.2961 -0.0985
49582SOL     OW55985  11.812  11.325   6.955 -0.0374 -0.0679 -0.2614
49582SOL    HW155986  11.811  11.406   6.905  1.1505 -0.8127 -1.5761
49582SOL    HW255987  11.905  11.308   6.972 -0.0819 -2.0848 -1.6762
49583SOL     OW55988  12.006   7.389   8.275 -0.2063 -0.1174 -0.4383
49583SOL    HW155989  11.916   7.371   8.250 -0.1553 -2.2559  0.7212
49583SOL    HW255990  12.057   7.369   8.196 -0.5092 -1.8499 -0.2380
49584SOL     OW55991  10.774   0.386   0.652  0.7395 -0.6793 -0.0146
49584SOL    HW155992  10.863   0.351   0.661  1.3232  0.0757 -2.1866
49584SOL    HW255993  10.766   0.408   0.559 -0.1832  3.2263  0.7852
49585SOL     OW55994   6.613  10.150  11.161  0.4180  0.5411  0.6242
49585SOL    HW155995   6.686  10.122  11.105  1.2102  3.0806  0.2556
49585SOL    HW255996   6.537  10.152  11.102  0.3463 -0.6729  0.6515
49586SOL     OW55997  12.648   8.820   3.498  0.3047 -0.0167  0.1598
49586SOL    HW155998  12.731   8.780   3.523 -0.0905 -0.8349  0.2161
49586SOL    HW255999  12.620   8.770   3.421 -0.8708 -0.7909  1.0507
49587SOL     OW56000  12.000   5.770   3.558  0.1092 -0.2945 -0.1103
49587SOL    HW156001  11.926   5.825   3.581 -0.6038 -0.8328 -1.0562
49587SOL    HW256002  12.009   5.709   3.631  1.0669  1.1891  1.0649
49588SOL     OW56003   2.635   4.633   2.980  0.1163  0.0886 -0.4348
49588SOL    HW156004   2.639   4.649   3.074  0.2891  0.0746 -0.4404
49588SOL    HW256005   2.550   4.669   2.953  1.3874  3.0570 -0.8616
49589SOL     OW56006   7.319   3.005   5.786 -0.3382  0.1010 -0.3106
49589SOL    HW156007   7.344   2.921   5.823 -0.0670  0.6072  0.6990
49589SOL    HW256008   7.227   3.016   5.809 -1.0174 -0.8590 -2.3038
49590SOL     OW56009  12.540   3.194  12.474 -0.4515 -0.1557 -1.0291
49590SOL    HW156010  12.504   3.204  12.562  1.2715 -0.0228 -0.3042
49590SOL    HW256011  12.512   3.106  12.447 -0.7305 -0.3229 -0.2315
49591SOL     OW56012   7.662   6.544   8.376  0.5273  0.2574 -0.2222
49591SOL    HW156013   7.585   6.508   8.333  0.3492 -1.2853  1.2414
49591SOL    HW256014   7.735   6.491   8.344  1.2125  2.3147 -2.3261
49592SOL     OW56015   3.836   9.600   1.126 -0.1115 -0.0773 -0.1602
49592SOL    HW156016   3.799   9.681   1.092 -0.7125  0.5782  1.8716
49592SOL    HW256017   3.765   9.562   1.178  0.8495 -0.7788  0.6725
49593SOL     OW56018  10.854   0.718   3.421 -0.2594  0.0424  0.1327
49593SOL    HW156019  10.934   0.706   3.472 -1.3998 -2.0190  1.5746
49593SOL    HW256020  10.821   0.803   3.448  0.4468  0.0640  0.9912
49594SOL     OW56021   5.577   7.418   2.672 -0.5604 -0.2480 -0.2064
49594SOL    HW156022   5.662   7.387   2.638  1.1116  2.2245  1.4049
49594SOL    HW256023   5.586   7.409   2.767 -1.2526  2.0118  0.1084
49595SOL     OW56024  12.085   4.818   6.674 -0.3438  0.1062  0.2946
49595SOL    HW156025  12.065   4.852   6.587  1.0400  0.3640  0.0582
49595SOL    HW256026  12.036   4.736   6.680 -1.0846  0.4833 -0.4075
49596SOL     OW56027   6.325   3.459   0.979 -0.3992 -0.1062  0.1413
49596SOL    HW156028   6.375   3.538   0.998 -1.0828  0.1255  1.0769
49596SOL    HW256029   6.239   3.491   0.952  0.0585 -0.4875 -1.9228
49597SOL     OW56030   4.131  11.863   6.668  0.3580  0.6011  0.6653
49597SOL    HW156031   4.055  11.805   6.663  0.1505  0.9771 -2.5286
49597SOL    HW256032   4.094  11.951   6.677  0.2999  0.8357 -1.3855
49598SOL     OW56033   6.084   6.558   3.552  0.2227  0.4128  0.5534
49598SOL    HW156034   6.003   6.549   3.502 -1.1112  0.6533  2.5561
49598SOL    HW256035   6.087   6.650   3.577  1.0711  0.3806  0.6037
49599SOL     OW56036   7.086   3.566  12.260 -1.0956  0.0789 -0.0629
49599SOL    HW156037   7.038   3.499  12.309 -0.9213 -0.2298 -0.3063
49599SOL    HW256038   7.023   3.638  12.249 -1.5037 -0.3171 -0.3739
49600SOL     OW56039   5.716   3.295   8.882 -0.1637  0.2283  0.0190
49600SOL    HW156040   5.794   3.320   8.931 -0.2842  1.3954 -0.3551
49600SOL    HW256041   5.697   3.206   8.912  0.7133  0.3022  0.8635
49601SOL     OW56042   8.529  12.053   1.054  1.1502 -0.0047 -0.0580
49601SOL    HW156043   8.495  11.999   0.982 -1.5787  0.0384  1.1055
49601SOL    HW256044   8.487  12.138   1.041  1.9691  0.5135  0.6463
49602SOL     OW56045   4.188   9.592  11.924  0.3212 -0.1862  0.3101
49602SOL    HW156046   4.149   9.666  11.971  1.6334  0.6773  0.0818
49602SOL    HW256047   4.114   9.552  11.877 -0.1986  1.8124 -0.6722
49603SOL     OW56048  12.016   9.780   3.493 -0.1303 -0.0230 -0.2208
49603SOL    HW156049  12.069   9.857   3.513 -0.0317 -0.4777  1.4265
49603SOL    HW256050  11.965   9.765   3.572 -0.7724 -1.1500 -0.8245
49604SOL     OW56051  12.704   4.095  11.913 -0.2661  0.4210  0.1520
49604SOL    HW156052  12.729   4.018  11.862  2.8580  2.0830 -1.1529
49604SOL    HW256053  12.712   4.168  11.851 -0.3342  2.0884  1.9951
49605SOL     OW56054  10.554   9.599   2.196 -0.5201 -0.1748  0.0272
49605SOL    HW156055  10.518   9.543   2.264 -0.2994 -1.3346 -0.7724
49605SOL    HW256056  10.578   9.538   2.126  0.3930  0.8508 -0.5828
49606SOL     OW56057  10.153   0.375   2.429 -0.2662 -0.0646  0.5016
49606SOL    HW156058  10.115   0.463   2.429 -0.0794  0.0655 -1.9308
49606SOL    HW256059  10.236   0.385   2.383  0.5962 -1.2240  1.7386
49607SOL     OW56060   4.322   4.326   5.415 -0.1314 -0.0834  0.2487
49607SOL    HW156061   4.394   4.360   5.467 -1.4543  0.2226  1.9655
49607SOL    HW256062   4.364   4.292   5.336  1.7650  0.9720  0.7288
49608SOL     OW56063   8.995   0.660   3.465  0.5214  0.0680  0.0520
49608SOL    HW156064   9.020   0.750   3.488 -1.2447  0.5080  0.3670
49608SOL    HW256065   8.973   0.619   3.548  1.8109 -0.8498 -0.0283
49609SOL     OW56066   2.067   3.805  11.051  0.5398  0.4655 -0.2167
49609SOL    HW156067   2.001   3.858  11.007  0.0967  0.4766  0.4414
49609SOL    HW256068   2.027   3.782  11.135  1.6152  0.9955  0.4613
49610SOL     OW56069  10.473   5.333   8.694  0.6525  0.0967 -0.2599
49610SOL    HW156070  10.435   5.245   8.683 -1.3030  0.9074 -0.4778
49610SOL    HW256071  10.409   5.380   8.747  1.9436  1.2499  0.3454
49611SOL     OW56072  12.592   5.906   5.626 -0.1493  0.0947 -0.2820
49611SOL    HW156073  12.509   5.860   5.634  0.4126 -1.5139 -2.4897
49611SOL    HW256074  12.645   5.872   5.698 -1.1555  0.6843  0.7742
49612SOL     OW56075   6.903   7.696   3.491 -0.0641  0.1746 -0.0181
49612SOL    HW156076   6.828   7.741   3.452  0.4374 -0.2893 -1.5848
49612SOL    HW256077   6.951   7.659   3.416 -0.1179 -2.4448  1.1347
49613SOL     OW56078   9.224  11.200  10.691 -0.1096  0.1818  0.3498
49613SOL    HW156079   9.318  11.184  10.686  0.1855  0.6548  2.8888
49613SOL    HW256080   9.205  11.256  10.615  2.0437  1.6357  0.7964
49614SOL     OW56081   5.273   0.463   5.260 -0.0001 -0.5938  0.6410
49614SOL    HW156082   5.212   0.396   5.230 -1.4247  1.1569 -0.6193
49614SOL    HW256083   5.218   0.528   5.304  1.1219  0.3867  0.6631
49615SOL     OW56084  11.590   1.174   1.493  0.0558  0.0250 -0.1544
49615SOL    HW156085  11.670   1.122   1.501  0.3888  0.6085  0.4518
49615SOL    HW256086  11.611   1.257   1.535 -0.5674  0.5451 -0.8405
49616SOL     OW56087   7.944   0.995   2.433 -0.3232 -0.4512 -0.5082
49616SOL    HW156088   7.967   0.907   2.403 -0.0033 -0.0174 -1.5818
49616SOL    HW256089   7.945   1.049   2.353  0.1859  0.6736  0.2303
49617SOL     OW56090   1.642   0.571   9.137 -0.0952 -0.5756  0.1266
49617SOL    HW156091   1.622   0.648   9.083 -0.6070 -0.8422 -0.0720
49617SOL    HW256092   1.591   0.500   9.097  1.1962 -1.2692 -0.3546
49618SOL     OW56093   2.460  11.941   7.165  0.0928 -0.4559 -0.1833
49618SOL    HW156094   2.387  11.965   7.107  0.4250 -0.1610 -0.4826
49618SOL    HW256095   2.418  11.903   7.242 -0.3899  0.0261 -0.2075
49619SOL     OW56096   9.604  10.470   9.061 -0.2674  0.2277 -0.5749
49619SOL    HW156097   9.510  10.468   9.082  0.2842  0.1203  2.2920
49619SOL    HW256098   9.611  10.534   8.990 -2.4062  0.8949 -0.2765
49620SOL     OW56099   1.273  11.926  11.781  0.4945 -0.0600  0.1154
49620SOL    HW156100   1.317  11.886  11.857 -0.8422  0.3591  1.1495
49620SOL    HW256101   1.229  12.003  11.817 -1.4481 -0.6987 -0.7782
49621SOL     OW56102   2.589   2.301   6.157 -0.1218 -0.0762 -0.0143
49621SOL    HW156103   2.653   2.370   6.138 -0.4484 -0.0908 -1.2130
49621SOL    HW256104   2.577   2.255   6.074 -1.6581 -0.1094  0.1962
49622SOL     OW56105   6.864  12.241   8.549 -0.3614 -0.2282  0.4582
49622SOL    HW156106   6.931  12.297   8.589 -0.1927  0.6730 -1.0092
49622SOL    HW256107   6.787  12.251   8.605 -0.0699  0.8207  0.6974
49623SOL     OW56108   5.261   5.648   7.904 -0.4002 -0.1594 -0.2417
49623SOL    HW156109   5.322   5.720   7.917 -0.1765 -0.4037  0.1114
49623SOL    HW256110   5.301   5.595   7.835  0.2798 -0.8279  0.6391
49624SOL     OW56111   4.904   2.187   6.986  0.3787  0.3894 -0.4376
49624SOL    HW156112   4.940   2.167   7.073 -0.7024 -1.4299 -0.3558
49624SOL    HW256113   4.880   2.101   6.951 -1.5759  1.3236 -1.4866
49625SOL     OW56114   6.908  10.638   0.132  0.0849  0.0641  0.3261
49625SOL    HW156115   6.966  10.565   0.112 -0.8752 -1.5065  2.7898
49625SOL    HW256116   6.961  10.716   0.116  0.6441 -0.9397 -3.9808
49626SOL     OW56117   7.031   5.055   6.816 -0.3180 -0.2234 -0.0796
49626SOL    HW156118   6.963   5.007   6.863 -0.0485 -1.3679 -0.8097
49626SOL    HW256119   7.112   5.011   6.840  0.1353  0.8392  0.4177
49627SOL     OW56120   4.255   3.212   8.758  0.6123 -0.5442 -0.5331
49627SOL    HW156121   4.272   3.145   8.692  1.9758 -1.0356  0.2622
49627SOL    HW256122   4.196   3.171   8.821 -1.1196  0.0985 -1.6549
49628SOL     OW56123   6.290  11.578   2.217 -0.0835  0.1780  0.4141
49628SOL    HW156124   6.221  11.514   2.233  1.1011 -1.2870 -0.0412
49628SOL    HW256125   6.244  11.660   2.200 -1.7098 -0.8198 -0.2270
49629SOL     OW56126   9.433   5.351  12.462  1.0676 -0.5000 -0.2683
49629SOL    HW156127   9.520   5.319  12.439  0.6277 -2.1324  0.1905
49629SOL    HW256128   9.373   5.305  12.403  0.2502 -2.1317  1.6859
49630SOL     OW56129   3.801  11.464  10.340 -0.3500  0.0757 -0.5562
49630SOL    HW156130   3.840  11.380  10.365 -0.4224  0.5752  1.3840
49630SOL    HW256131   3.874  11.513  10.301  1.1055  0.9461  2.8906
49631SOL     OW56132   0.210   2.629   8.388 -0.0466  0.0307  0.6481
49631SOL    HW156133   0.295   2.666   8.365 -0.1248 -0.0650  0.1985
49631SOL    HW256134   0.177   2.686   8.457  0.7318 -0.3921  1.4003
49632SOL     OW56135   9.457  10.581   6.739 -0.0434 -0.0610 -0.1795
49632SOL    HW156136   9.380  10.524   6.736 -0.5793  0.6550 -0.1917
49632SOL    HW256137   9.444  10.644   6.668 -0.3688  1.2105  0.9624
49633SOL     OW56138   8.321  10.659   8.987  0.5065  0.2469  0.0459
49633SOL    HW156139   8.262  10.585   8.995  1.9712 -0.9584  0.0879
49633SOL    HW256140   8.263  10.735   8.984 -0.9744 -0.7169  1.7995
49634SOL     OW56141   7.699   2.206  10.465  0.0834 -0.1149 -0.1356
49634SOL    HW156142   7.785   2.246  10.451 -0.4716  1.3596  0.3958
49634SOL    HW256143   7.681   2.158  10.385  1.4107 -0.4770 -0.2425
49635SOL     OW56144   0.759   7.153   0.736  0.1290  0.2759 -0.1664
49635SOL    HW156145   0.830   7.214   0.754  2.4289 -1.8454 -1.4897
49635SOL    HW256146   0.791   7.069   0.768 -1.3191 -0.9512 -1.7763
49636SOL     OW56147   7.082   9.075   5.162 -0.4773 -0.4771 -0.2309
49636SOL    HW156148   7.022   9.009   5.127 -0.0576 -0.5832 -0.7523
49636SOL    HW256149   7.025   9.135   5.211 -1.3470  0.6999 -2.5435
49637SOL     OW56150   0.989   6.626   1.153  0.0813  0.0491 -0.3419
49637SOL    HW156151   0.977   6.602   1.245 -0.7508 -0.4538 -0.5769
49637SOL    HW256152   1.016   6.545   1.110 -1.7494 -0.2834 -0.9502
49638SOL     OW56153   2.542   8.380   3.179 -0.1785 -0.2144  0.0533
49638SOL    HW156154   2.569   8.321   3.249  0.0362 -2.8193 -2.0607
49638SOL    HW256155   2.591   8.461   3.195  4.1215 -2.5109 -0.0123
49639SOL     OW56156   2.234   5.314   9.949 -0.0862 -0.7933  1.2324
49639SOL    HW156157   2.216   5.234   9.900  1.3777 -0.3557 -0.1100
49639SOL    HW256158   2.295   5.363   9.893  1.1542  0.0348  3.2039
49640SOL     OW56159   7.827   2.618   6.065  0.5545 -0.1212  0.3352
49640SOL    HW156160   7.892   2.684   6.088  0.4099  0.9736 -2.0662
49640SOL    HW256161   7.876   2.550   6.018  0.2269 -0.0836 -0.0741
49641SOL     OW56162   7.139   3.132   1.694  0.2131  0.4010  0.0742
49641SOL    HW156163   7.216   3.188   1.702  0.6847 -0.2295 -0.0073
49641SOL    HW256164   7.156   3.058   1.752 -1.0424  1.0135  1.2857
49642SOL     OW56165  12.279   5.648   5.767  0.0646 -0.4190 -0.1655
49642SOL    HW156166  12.306   5.648   5.859 -1.8976  0.1533  0.4570
49642SOL    HW256167  12.285   5.740   5.741  0.0472 -0.4943 -0.4307
49643SOL     OW56168  10.981   6.292  10.603 -0.9515  0.2788 -0.6774
49643SOL    HW156169  10.912   6.272  10.539 -0.1627 -0.7139 -1.2482
49643SOL    HW256170  11.024   6.208  10.619 -2.3079  0.0901  2.6368
49644SOL     OW56171   4.531   4.146   0.442 -0.1379  0.4153  0.3720
49644SOL    HW156172   4.595   4.196   0.493 -1.5844  0.9031  1.7790
49644SOL    HW256173   4.449   4.155   0.491 -0.5818 -3.0376  0.5113
49645SOL     OW56174   9.831   9.619   5.608 -0.2686 -0.4167 -0.4453
49645SOL    HW156175   9.750   9.655   5.570 -1.0007 -2.4046 -0.8634
49645SOL    HW256176   9.824   9.525   5.594  1.2012 -0.8285  1.3208
49646SOL     OW56177   1.507   3.415  10.940 -0.6376 -0.4163  0.1561
49646SOL    HW156178   1.455   3.395  11.018  1.4467  1.1498  2.0781
49646SOL    HW256179   1.597   3.413  10.970  0.2153  1.1741 -2.0020
49647SOL     OW56180   3.190   6.212  11.542  0.1513  0.0895  0.1659
49647SOL    HW156181   3.097   6.198  11.527  0.1586  0.6957 -0.4633
49647SOL    HW256182   3.218   6.135  11.592 -0.7364  0.0342  0.5983
49648SOL     OW56183   9.303   8.629  11.872  0.0779  0.1168 -0.1124
49648SOL    HW156184   9.335   8.669  11.953  0.6722 -0.8757  0.1673
49648SOL    HW256185   9.209   8.618  11.885  0.3852 -1.4600  1.1166
49649SOL     OW56186   6.489   5.277   1.505  0.3710 -0.2718 -0.7851
49649SOL    HW156187   6.532   5.332   1.439 -0.0854 -0.3320 -1.1404
49649SOL    HW256188   6.407   5.250   1.463 -1.0431  1.5386  0.6124
49650SOL     OW56189  10.353  12.306   0.279 -0.4574 -0.5274 -0.1016
49650SOL    HW156190  10.405  12.361   0.338 -0.1502 -2.3846  1.4420
49650SOL    HW256191  10.310  12.369   0.221  2.8844  1.1615 -1.0186
49651SOL     OW56192   8.297   3.943   2.460 -0.7253  0.6400  0.4087
49651SOL    HW156193   8.371   3.992   2.424 -0.6771 -1.0461 -2.0637
49651SOL    HW256194   8.224   4.005   2.456  0.1245  1.7061  1.0128
49652SOL     OW56195   9.263   0.463   1.742  0.2252 -0.1749 -0.4721
49652SOL    HW156196   9.303   0.525   1.681  1.6156  2.7795  3.0928
49652SOL    HW256197   9.333   0.401   1.763  0.0468 -0.5914 -1.0816
49653SOL     OW56198   3.444   5.310   1.658 -0.1368  0.4418  0.6878
49653SOL    HW156199   3.392   5.311   1.578  1.0717  0.7803 -0.1181
49653SOL    HW256200   3.498   5.231   1.651 -1.0986 -0.3879  1.9236
49654SOL     OW56201   3.015   4.393   0.073  0.2704 -0.2593 -0.6872
49654SOL    HW156202   3.067   4.377   0.152  0.1601 -0.0948 -0.5818
49654SOL    HW256203   2.927   4.365   0.096  0.0022  0.7765 -0.3962
49655SOL     OW56204   7.503   0.669  11.046 -0.2852 -0.0996 -0.0214
49655SOL    HW156205   7.559   0.742  11.019  0.5426  0.1977  2.2473
49655SOL    HW256206   7.473   0.693  11.134 -1.8262 -1.5054 -0.1096
49656SOL     OW56207   9.354   9.722   6.127  0.0515 -0.5672 -0.4323
49656SOL    HW156208   9.365   9.779   6.203 -1.7262 -1.7343  0.7746
49656SOL    HW256209   9.418   9.755   6.063  0.0974  1.8231  0.7310
49657SOL     OW56210   4.489   0.637  10.932  0.1050 -0.0717 -0.0623
49657SOL    HW156211   4.580   0.621  10.907  0.1545  0.3383 -0.1568
49657SOL    HW256212   4.484   0.611  11.024  0.6248  1.0444  0.2957
49658SOL     OW56213   8.792  12.602   8.693 -0.2028 -0.2241 -0.2875
49658SOL    HW156214   8.788  12.638   8.782  0.8882  0.8513 -0.6390
49658SOL    HW256215   8.721  12.646   8.646 -0.8484 -0.8725  0.0634
49659SOL     OW56216   2.715   2.619   5.374 -0.6633  0.3667 -0.0522
49659SOL    HW156217   2.732   2.526   5.361 -2.6754  0.1296 -1.5871
49659SOL    HW256218   2.629   2.622   5.417 -0.0395  1.5148  1.1970
49660SOL     OW56219  11.164   3.536   2.059 -0.0066  0.2130  0.0248
49660SOL    HW156220  11.125   3.468   2.005 -0.7094  0.1268  0.6174
49660SOL    HW256221  11.179   3.494   2.143 -1.2225  0.9821  0.6618
49661SOL     OW56222   0.146   5.287   1.318 -0.3696  0.3731  0.1446
49661SOL    HW156223   0.206   5.243   1.258 -0.8866 -0.1376 -0.0128
49661SOL    HW256224   0.203   5.332   1.380  0.1761  0.7122 -0.5765
49662SOL     OW56225   5.601   0.321   7.509  0.8231  0.4951  0.0312
49662SOL    HW156226   5.684   0.355   7.544  0.9388  1.3699 -1.0365
49662SOL    HW256227   5.549   0.399   7.491  1.1885  0.2216 -2.6988
49663SOL     OW56228  10.277   9.891   1.817  0.1817 -0.4613 -0.2208
49663SOL    HW156229  10.339   9.855   1.880  1.5713 -0.8412 -1.7460
49663SOL    HW256230  10.231   9.959   1.866 -1.1000 -2.8137  2.1560
49664SOL     OW56231  12.023   6.827  10.513 -0.5251  0.3012  0.3225
49664SOL    HW156232  12.073   6.757  10.470 -0.2756  0.4252  0.4048
49664SOL    HW256233  12.090   6.890  10.541 -0.7603  0.6435  0.1217
49665SOL     OW56234   1.900   3.559   1.742 -0.3003 -1.1699 -0.4578
49665SOL    HW156235   1.859   3.637   1.704 -0.0706 -1.5335 -1.4602
49665SOL    HW256236   1.840   3.488   1.721 -1.1455 -1.1163  1.5173
49666SOL     OW56237   2.619   4.380   9.927  0.5667  0.3452 -0.2811
49666SOL    HW156238   2.685   4.442   9.896  0.3405  0.1436 -1.1754
49666SOL    HW256239   2.614   4.313   9.859 -0.1863  0.0742  0.0257
49667SOL     OW56240   7.447  10.107   0.703  0.0883 -0.2900  0.7699
49667SOL    HW156241   7.390  10.031   0.702  2.2491 -2.0438 -0.1126
49667SOL    HW256242   7.409  10.167   0.638 -0.6475 -1.4789  0.0708
49668SOL     OW56243   7.679   1.442  11.531  0.3056 -0.2770 -0.2017
49668SOL    HW156244   7.595   1.457  11.574 -0.1983  0.6500 -1.4555
49668SOL    HW256245   7.680   1.503  11.457  1.5428 -1.1537 -0.9559
49669SOL     OW56246   0.888   6.972   4.817  0.2101 -0.6316  0.3713
49669SOL    HW156247   0.849   7.038   4.759  1.1349 -0.1834  0.2476
49669SOL    HW256248   0.815   6.913   4.838 -0.4469 -0.0287 -0.1556
49670SOL     OW56249   0.259  10.071   0.611 -0.7885  0.3027 -0.6898
49670SOL    HW156250   0.172  10.049   0.576 -1.4218 -0.1381  1.0777
49670SOL    HW256251   0.261  10.167   0.610 -2.0238  0.3878  0.8660
49671SOL     OW56252   2.097  10.587   7.498  0.4281  0.3041 -0.7248
49671SOL    HW156253   2.122  10.667   7.544  0.1009  0.4924 -0.8714
49671SOL    HW256254   2.091  10.521   7.566 -1.7730  0.9555 -0.1996
49672SOL     OW56255   1.542   6.130  11.625  0.5134  0.4373 -0.6138
49672SOL    HW156256   1.475   6.068  11.652  0.8315  0.0424 -0.7325
49672SOL    HW256257   1.495   6.191  11.567 -0.2033  1.3810  0.8928
49673SOL     OW56258   5.054   9.608   2.778  0.3253  0.2827 -0.1855
49673SOL    HW156259   4.978   9.550   2.779  1.2543 -1.0572 -1.8876
49673SOL    HW256260   5.035   9.673   2.846 -1.4268 -1.1361  0.7784
49674SOL     OW56261   2.306   0.213   7.679 -0.3807 -0.5329 -0.3714
49674SOL    HW156262   2.222   0.251   7.702 -0.4982 -1.7350  1.4343
49674SOL    HW256263   2.369   0.255   7.739 -0.0791 -1.1595 -0.2309
49675SOL     OW56264   8.888   0.717   3.856  0.1066 -0.1556  0.3601
49675SOL    HW156265   8.884   0.625   3.829  0.6662 -0.1651  0.3060
49675SOL    HW256266   8.828   0.762   3.795  1.3967 -0.1693 -0.9745
49676SOL     OW56267   1.135  12.544   1.584  0.0422  0.1178 -0.2341
49676SOL    HW156268   1.042  12.562   1.592 -0.2638 -1.0940 -0.9862
49676SOL    HW256269   1.173  12.578   1.665 -0.5884  3.3502 -1.1565
49677SOL     OW56270   9.956   1.874   6.988 -0.9227 -0.3258  0.2550
49677SOL    HW156271   9.980   1.856   6.898 -0.5922 -1.0077  0.4695
49677SOL    HW256272   9.868   1.911   6.983 -0.8239 -0.1667 -0.3549
49678SOL     OW56273   9.781   9.059  11.547 -0.5080  0.0003 -0.3205
49678SOL    HW156274   9.818   9.047  11.634  1.5812  0.1625 -1.1239
49678SOL    HW256275   9.731   9.140  11.553  0.0183  0.2757  0.6069
49679SOL     OW56276  11.797   8.774   2.353  0.1344  0.1616  0.0954
49679SOL    HW156277  11.867   8.833   2.324 -0.0994  0.9967  1.1184
49679SOL    HW256278  11.717   8.814   2.320  0.1308 -0.8898 -1.2273
49680SOL     OW56279   3.411   7.310  10.219 -0.4030 -0.2680  0.2385
49680SOL    HW156280   3.435   7.359  10.298 -0.9862 -0.5132  0.5699
49680SOL    HW256281   3.397   7.221  10.249 -0.6147 -0.3653 -0.1474
49681SOL     OW56282  10.369   5.402   1.706 -0.7171 -0.2335 -0.1394
49681SOL    HW156283  10.422   5.450   1.643 -0.3263 -1.0950 -0.4897
49681SOL    HW256284  10.432   5.371   1.771 -1.1472  0.8562  0.8314
49682SOL     OW56285   8.836   7.456   0.921  0.1352 -0.1068 -0.0382
49682SOL    HW156286   8.885   7.507   0.985  0.5313 -0.4080 -0.0959
49682SOL    HW256287   8.772   7.517   0.885 -0.8151 -0.1983  1.4173
49683SOL     OW56288   1.669   4.950   3.617 -0.3484  0.4105 -0.4528
49683SOL    HW156289   1.589   4.996   3.592 -0.0952  0.2128 -1.6719
49683SOL    HW256290   1.642   4.858   3.622 -0.3968  0.4465  0.0482
49684SOL     OW56291  11.011   2.451   7.572 -0.4146 -0.1099  0.1803
49684SOL    HW156292  11.028   2.543   7.553 -0.8363  0.3800  1.9582
49684SOL    HW256293  10.917   2.441   7.556 -0.5294 -0.0115  0.7823
49685SOL     OW56294   9.549   4.642   7.939 -0.1335  0.4169 -0.1520
49685SOL    HW156295   9.621   4.700   7.964  2.4112 -1.5879 -2.2724
49685SOL    HW256296   9.571   4.558   7.978 -2.9023  0.3149  1.4834
49686SOL     OW56297   5.617   5.683   9.276  0.7101  0.1487 -0.2704
49686SOL    HW156298   5.611   5.777   9.259  1.7645 -0.2583 -3.7280
49686SOL    HW256299   5.541   5.646   9.231  0.5658 -0.6989  0.6562
49687SOL     OW56300  10.063  10.620  11.941  0.5184  0.7531  0.3222
49687SOL    HW156301  10.148  10.653  11.971  0.6319  0.3932  0.4059
49687SOL    HW256302  10.057  10.648  11.850  1.5573 -0.7933 -0.2690
49688SOL     OW56303   9.028   6.421   2.300  0.5454  0.2658  0.2727
49688SOL    HW156304   9.103   6.398   2.355  2.1514  2.3818 -0.8832
49688SOL    HW256305   9.022   6.350   2.237  1.4241 -0.0716  0.5490
49689SOL     OW56306   6.821   8.972  11.779  0.0397 -0.0378  0.9332
49689SOL    HW156307   6.741   9.018  11.805 -1.2521  0.0796 -2.5730
49689SOL    HW256308   6.798   8.879  11.785 -0.8050 -0.0042 -0.9040
49690SOL     OW56309   1.956   3.985   4.779 -0.1689  0.2662 -0.0788
49690SOL    HW156310   1.948   4.049   4.708  1.1812  0.3452 -0.1940
49690SOL    HW256311   1.942   4.035   4.859  0.0300  0.5380 -0.2110
49691SOL     OW56312   9.798   9.158   2.528  0.5150  0.6907  0.1071
49691SOL    HW156313   9.788   9.154   2.623  2.3205  0.9945  0.3566
49691SOL    HW256314   9.789   9.251   2.507  0.2862  0.6453  0.0036
49692SOL     OW56315   0.258   9.448   5.703  0.4621 -0.9229 -0.9230
49692SOL    HW156316   0.342   9.438   5.748  1.4593 -0.5574 -2.6033
49692SOL    HW256317   0.277   9.508   5.631 -1.2143 -0.9951 -1.4587
49693SOL     OW56318   8.133   7.198   4.100  0.3900 -0.1994  0.0510
49693SOL    HW156319   8.218   7.242   4.109  0.0393  1.5216 -3.4669
49693SOL    HW256320   8.154   7.105   4.103  2.5491  0.1761 -1.3791
49694SOL     OW56321   9.761   7.916   2.237  0.0727  0.1001  0.1870
49694SOL    HW156322   9.713   7.989   2.197  0.3642  0.4379  0.4426
49694SOL    HW256323   9.820   7.885   2.168  0.8597  0.9379  0.4548
49695SOL     OW56324   9.980   3.673   1.475  0.4586  0.0951 -0.1316
49695SOL    HW156325   9.900   3.651   1.427  0.3125  2.1584 -0.9261
49695SOL    HW256326   9.953   3.676   1.566 -0.1131 -0.2893 -0.2834
49696SOL     OW56327   1.550   9.246   9.426 -0.0686 -0.2922 -0.1222
49696SOL    HW156328   1.479   9.303   9.457 -1.8599 -1.3619 -1.9379
49696SOL    HW256329   1.604   9.303   9.371 -1.8486 -0.2279 -1.9323
49697SOL     OW56330   1.787   5.718   3.465 -0.3769 -0.1924  0.5953
49697SOL    HW156331   1.726   5.785   3.496  0.2161  0.1186  1.1057
49697SOL    HW256332   1.802   5.741   3.373 -0.0773  0.4562  0.7994
49698SOL     OW56333   7.409   2.004   2.457 -0.1185  0.1551 -0.0056
49698SOL    HW156334   7.338   1.975   2.513  1.2727  0.4181  2.0131
49698SOL    HW256335   7.398   2.099   2.450 -0.1955  0.1453 -0.0094
49699SOL     OW56336   8.984   6.784   4.729  1.1088  0.4868 -0.1546
49699SOL    HW156337   8.961   6.809   4.819  0.5869 -1.3070  0.2561
49699SOL    HW256338   9.060   6.726   4.739  0.1617 -0.8985 -0.7209
49700SOL     OW56339  12.542   5.600   2.165  0.3067 -0.0492  0.4597
49700SOL    HW156340  12.559   5.595   2.259 -0.3241  0.2745  0.5962
49700SOL    HW256341  12.629   5.603   2.125  0.5976 -1.3653  0.9482
49701SOL     OW56342   9.510   8.134   0.437  0.1291 -0.4261  0.7834
49701SOL    HW156343   9.573   8.190   0.483 -0.2238  0.0433  0.7030
49701SOL    HW256344   9.551   8.048   0.436 -0.1142 -0.5954  2.5262
49702SOL     OW56345   3.648   0.668  11.540 -0.4213  0.3203  0.5557
49702SOL    HW156346   3.601   0.666  11.456 -0.1857  2.0524  0.3573
49702SOL    HW256347   3.741   0.673  11.515 -0.3076  0.1225  0.9344
49703SOL     OW56348   1.564   9.333  11.817  0.1774 -0.0372  0.2618
49703SOL    HW156349   1.651   9.314  11.781 -0.0007 -0.4964  0.0570
49703SOL    HW256350   1.566   9.295  11.905  0.8403  1.6699  1.0226
49704SOL     OW56351   3.650   8.863  10.829 -0.1693 -0.4387  0.3776
49704SOL    HW156352   3.642   8.774  10.796 -0.5237  0.0076 -0.8245
49704SOL    HW256353   3.629   8.918  10.753  2.5083  0.6975  0.3617
49705SOL     OW56354  12.291   6.428   4.281 -0.0804 -0.0889  0.5792
49705SOL    HW156355  12.311   6.521   4.293 -1.1262 -0.0561  2.3967
49705SOL    HW256356  12.239   6.426   4.200  0.2270  0.8684  0.3414
49706SOL     OW56357  11.791   7.667   8.303 -0.0340 -0.2793 -0.3942
49706SOL    HW156358  11.795   7.735   8.371 -0.1316 -1.6820  1.0862
49706SOL    HW256359  11.851   7.698   8.235 -0.1529  1.3259  0.1746
49707SOL     OW56360   3.192   4.006   4.925  0.1865 -0.0812 -0.3829
49707SOL    HW156361   3.103   4.030   4.951  0.7760  0.1944  1.5407
49707SOL    HW256362   3.207   3.922   4.967  0.6913 -0.3220 -1.0465
49708SOL     OW56363   0.501   3.153   0.115  0.0866  0.2272 -0.1569
49708SOL    HW156364   0.582   3.170   0.068  0.0646 -0.4326 -0.4498
49708SOL    HW256365   0.478   3.063   0.092 -0.2682  0.1092  0.6120
49709SOL     OW56366   8.768   6.324   8.976  0.4419 -0.0847  0.5164
49709SOL    HW156367   8.822   6.255   9.016 -0.5761 -1.8346 -0.9671
49709SOL    HW256368   8.828   6.369   8.916  0.8896 -0.3086  0.7894
49710SOL     OW56369   1.090   3.502   4.044  0.1908  0.1499  0.3163
49710SOL    HW156370   1.002   3.507   4.082 -0.5874 -0.1806 -1.3626
49710SOL    HW256371   1.145   3.550   4.106 -0.8733 -0.9292  2.1872
49711SOL     OW56372  11.536   2.327  11.500 -0.9625 -0.8529  0.2495
49711SOL    HW156373  11.608   2.323  11.438 -2.6026 -0.0120 -1.8236
49711SOL    HW256374  11.500   2.239  11.501 -0.9924 -0.8446 -0.0777
49712SOL     OW56375   1.444   4.548   0.693  0.4018  0.7656 -0.0262
49712SOL    HW156376   1.403   4.549   0.779  1.1082 -1.9407  0.4170
49712SOL    HW256377   1.488   4.633   0.687 -0.7839  1.5528  1.6842
49713SOL     OW56378   6.645   7.108   2.620  0.4718 -0.3728  0.3451
49713SOL    HW156379   6.635   7.189   2.670  1.0265 -0.5862  0.8167
49713SOL    HW256380   6.564   7.101   2.570  0.6259  0.7424 -0.1008
49714SOL     OW56381   3.438   1.438   1.680  0.2177 -0.2672 -0.3487
49714SOL    HW156382   3.481   1.355   1.659  0.3644  0.1994 -2.0542
49714SOL    HW256383   3.381   1.456   1.605 -0.5441  0.7161  0.4203
49715SOL     OW56384   8.185   6.330   1.219  0.2510  0.4954 -0.1080
49715SOL    HW156385   8.203   6.285   1.136  0.6742  2.4614 -1.1562
49715SOL    HW256386   8.149   6.262   1.276 -1.4566 -0.6332 -2.3540
49716SOL     OW56387  11.586  10.373   3.218  0.5084  0.5570 -0.1110
49716SOL    HW156388  11.534  10.442   3.259  0.0888  0.6024 -0.6980
49716SOL    HW256389  11.642  10.420   3.156  1.4550  0.5365  0.7005
49717SOL     OW56390   5.893  10.143   2.696  0.1284  0.0846 -0.2161
49717SOL    HW156391   5.832  10.143   2.623  0.0047 -0.6563 -0.1204
49717SOL    HW256392   5.911  10.236   2.712 -0.4462  0.2830 -0.6776
49718SOL     OW56393   9.051   3.755   7.748 -0.1086  0.3181 -0.0209
49718SOL    HW156394   9.009   3.840   7.741  2.6937  1.8083 -0.0118
49718SOL    HW256395   9.064   3.741   7.841  0.4502  0.4094 -0.0842
49719SOL     OW56396  10.921   3.430   3.206  0.0044  0.0883 -0.2881
49719SOL    HW156397  10.856   3.444   3.275  1.0926  3.8978  0.1943
49719SOL    HW256398  10.991   3.380   3.249 -0.2192  0.6808  0.8100
49720SOL     OW56399   3.214  10.290  11.340  0.0428 -0.0908  0.1836
49720SOL    HW156400   3.179  10.375  11.365 -0.5420  0.0247 -0.9859
49720SOL    HW256401   3.268  10.264  11.415 -0.4159  0.9298  0.8939
49721SOL     OW56402   2.060   8.906  12.212 -0.4016  0.6567 -0.5299
49721SOL    HW156403   2.029   8.926  12.300 -0.3879 -3.3654  0.6130
49721SOL    HW256404   2.143   8.860  12.226 -0.4782 -0.2303 -2.6048
49722SOL     OW56405   0.784   7.671   4.954 -0.1480 -0.6262  0.0736
49722SOL    HW156406   0.716   7.737   4.944  0.3487  0.0228  0.8830
49722SOL    HW256407   0.860   7.708   4.909 -0.1453 -1.0709 -0.2906
49723SOL     OW56408   8.446   7.440   7.626  0.3941 -0.0302  0.4246
49723SOL    HW156409   8.389   7.517   7.628  0.8172  0.2986  2.4892
49723SOL    HW256410   8.464   7.425   7.533  1.3686  3.1930 -0.0454
49724SOL     OW56411  12.018   3.859  11.472 -0.2735 -0.9874  0.2070
49724SOL    HW156412  11.977   3.836  11.556  1.5796 -0.6861  1.2515
49724SOL    HW256413  12.020   3.955  11.473 -2.2134 -0.8622 -1.2424
49725SOL     OW56414  11.153   9.740  12.011 -0.0252  0.4878  0.3104
49725SOL    HW156415  11.212   9.703  12.077  0.8614 -0.3564 -0.9239
49725SOL    HW256416  11.067   9.740  12.053  0.2667 -1.3416  0.9726
49726SOL     OW56417  11.663  10.290   1.072  0.4601  0.3542  0.1397
49726SOL    HW156418  11.736  10.237   1.039  1.3396  1.1924  0.6745
49726SOL    HW256419  11.586  10.252   1.031  1.1586 -0.7592 -0.2061
49727SOL     OW56420   7.041  12.508   3.114  0.0002  0.3067 -0.3100
49727SOL    HW156421   7.027  12.414   3.125 -1.2576  0.6273  1.2057
49727SOL    HW256422   7.132  12.515   3.085 -0.0673 -1.3908 -1.0991
49728SOL     OW56423  10.397  11.206   2.756 -0.0482  0.0692 -0.0999
49728SOL    HW156424  10.338  11.189   2.683 -0.6520  2.0450 -0.1254
49728SOL    HW256425  10.344  11.195   2.834 -0.6501  2.2367 -0.1322
49729SOL     OW56426  12.103   1.286   8.853  0.6484 -0.2249 -0.5100
49729SOL    HW156427  12.014   1.288   8.817  1.4583  1.1294 -2.6591
49729SOL    HW256428  12.122   1.377   8.876  1.6514 -0.3935 -0.6092
49730SOL     OW56429   0.418   3.686   5.711  0.3463 -0.4994 -0.0039
49730SOL    HW156430   0.393   3.597   5.687 -2.2503 -0.1628  1.1369
49730SOL    HW256431   0.336   3.729   5.733  1.6659  1.8219  0.7338
49731SOL     OW56432  10.063  10.504   5.073 -0.0054 -0.1902  0.8229
49731SOL    HW156433  10.036  10.540   4.988  1.3976 -1.0579 -0.0293
49731SOL    HW256434   9.982  10.470   5.111 -0.6781  0.3106 -0.1186
49732SOL     OW56435   9.434   8.266   8.542  0.0572 -0.5399 -0.7101
49732SOL    HW156436   9.515   8.222   8.567 -0.1199 -1.2641 -1.3547
49732SOL    HW256437   9.376   8.255   8.618  0.1342 -1.1451 -0.7292
49733SOL     OW56438   5.370   2.365  11.230 -0.5820  0.2066 -0.9053
49733SOL    HW156439   5.373   2.301  11.301  0.2942  0.2158 -0.9240
49733SOL    HW256440   5.388   2.449  11.272  0.3627  0.1569 -1.1881
49734SOL     OW56441   0.354  10.060   9.929 -0.4524  0.2693 -0.0184
49734SOL    HW156442   0.353  10.025  10.019 -1.2796  1.3938  0.4467
49734SOL    HW256443   0.318  10.148   9.938 -2.2780 -0.2351 -1.7136
49735SOL     OW56444   8.296   9.315   3.691 -0.3036  0.5242  0.1556
49735SOL    HW156445   8.274   9.236   3.740  1.2999 -0.4488 -0.6374
49735SOL    HW256446   8.227   9.323   3.626 -0.0879 -0.6523 -0.2353
49736SOL     OW56447   4.715   8.684   2.030  0.0104  0.0701  0.1030
49736SOL    HW156448   4.658   8.717   1.961  0.0515  0.1421  0.1038
49736SOL    HW256449   4.793   8.653   1.984 -1.0186 -2.2852 -0.1680
49737SOL     OW56450  11.264   0.067  12.515 -0.3968  0.5761  1.0256
49737SOL    HW156451  11.173   0.069  12.485  0.5323 -0.1749 -2.2848
49737SOL    HW256452  11.260   0.098  12.605 -4.0810 -0.7047  1.4933
49738SOL     OW56453   9.266  12.379  10.686  0.1220 -0.1689 -0.0631
49738SOL    HW156454   9.300  12.432  10.758  0.6054 -1.1146  0.4395
49738SOL    HW256455   9.342  12.328  10.657 -0.3411 -0.6280 -0.4791
49739SOL     OW56456   5.695   1.919   0.762  0.5080 -0.1921 -0.4256
49739SOL    HW156457   5.650   1.843   0.800  0.9235  0.0037  0.4934
49739SOL    HW256458   5.760   1.943   0.828 -0.0729  1.3986 -0.3983
49740SOL     OW56459   3.977  11.298   7.567 -0.0540  0.1785  0.2998
49740SOL    HW156460   3.925  11.222   7.540 -0.4213 -0.2365  2.0932
49740SOL    HW256461   3.925  11.341   7.634  1.1769  0.7131  0.9478
49741SOL     OW56462  10.230   9.851   3.152  0.3060 -0.1339 -0.1033
49741SOL    HW156463  10.183   9.856   3.068  0.5701 -1.3149 -0.3324
49741SOL    HW256464  10.226   9.940   3.186 -0.1911  0.2712 -1.1628
49742SOL     OW56465   3.379  11.686   9.141  0.1756 -0.2627  0.2966
49742SOL    HW156466   3.306  11.626   9.125  1.4036 -1.3372 -1.6385
49742SOL    HW256467   3.444  11.632   9.186 -0.0397  0.6064  1.7261
49743SOL     OW56468   6.172   5.265   4.779  0.0850  0.2329 -0.1054
49743SOL    HW156469   6.242   5.325   4.753 -2.4622  3.3930 -0.1963
49743SOL    HW256470   6.091   5.312   4.762 -2.0816 -2.0767  2.6980
49744SOL     OW56471   8.092   3.710   1.936 -0.5084 -0.5593 -0.1288
49744SOL    HW156472   8.068   3.776   1.871 -2.1659  0.6702  1.6510
49744SOL    HW256473   8.016   3.652   1.939 -1.2356  0.4240  1.9274
49745SOL     OW56474  10.727   0.883   8.320  0.5758 -0.3024  0.3868
49745SOL    HW156475  10.635   0.863   8.338  1.3140 -1.5858  3.2543
49745SOL    HW256476  10.761   0.805   8.277  0.4350  0.0031 -0.2853
49746SOL     OW56477   9.956   6.012   0.810 -0.1662 -0.3581 -0.1268
49746SOL    HW156478   9.999   6.067   0.876  0.4990 -1.3897  0.3144
49746SOL    HW256479   9.971   6.058   0.727 -0.0499  0.3761  0.2882
49747SOL     OW56480  11.686   6.888   1.454 -0.2155  0.1657 -0.1391
49747SOL    HW156481  11.668   6.839   1.534  0.3253 -1.1425 -0.7796
49747SOL    HW256482  11.666   6.979   1.476 -3.8394 -0.5938  0.3610
49748SOL     OW56483   2.097   9.208   3.036 -0.1494  0.4110 -0.2298
49748SOL    HW156484   2.014   9.200   2.990 -0.2378 -1.6052  0.1800
49748SOL    HW256485   2.102   9.300   3.061 -2.0831  0.6469 -0.5708
49749SOL     OW56486   4.458  11.287   2.886 -1.0250  0.5833  0.3673
49749SOL    HW156487   4.553  11.285   2.892 -1.0647 -0.2018  0.9282
49749SOL    HW256488   4.434  11.378   2.904 -0.4272  0.6244  0.9779
49750SOL     OW56489   1.917   7.273   1.607 -0.2695  0.2501 -0.1236
49750SOL    HW156490   1.850   7.212   1.637 -1.8973  1.1801 -1.6939
49750SOL    HW256491   1.873   7.358   1.603  1.9289  1.6771  2.0658
49751SOL     OW56492   3.870  10.291   1.257 -0.0114 -0.4198 -0.0054
49751SOL    HW156493   3.874  10.373   1.208  0.7067 -0.6242 -0.2969
49751SOL    HW256494   3.870  10.319   1.349  0.6937 -0.1035 -0.0932
49752SOL     OW56495  10.340  10.421  10.340  0.2984  0.3466 -0.5088
49752SOL    HW156496  10.423  10.414  10.386  0.6967  0.1806 -1.2369
49752SOL    HW256497  10.338  10.510  10.305  1.3992 -0.4205 -2.7255
49753SOL     OW56498   2.273   1.390   7.429  0.2224  0.2022  0.4332
49753SOL    HW156499   2.219   1.345   7.494 -3.0626  1.2920 -1.3083
49753SOL    HW256500   2.284   1.325   7.359  1.2102  0.0279  0.7210
49754SOL     OW56501  11.501   4.694   4.770 -0.6267  0.5808  0.3023
49754SOL    HW156502  11.592   4.720   4.758 -0.4651 -0.5968 -1.4329
49754SOL    HW256503  11.487   4.699   4.865  0.9136  1.7591  0.5159
49755SOL     OW56504   6.801  11.199   7.356 -0.1448  0.1593  0.2489
49755SOL    HW156505   6.863  11.182   7.427  0.5407  1.0537 -0.1134
49755SOL    HW256506   6.840  11.158   7.279 -1.0108 -1.0286  0.4180
49756SOL     OW56507  12.538   6.892   9.777 -0.3646 -0.5765  0.5627
49756SOL    HW156508  12.495   6.810   9.754 -1.0873 -0.5401  1.6857
49756SOL    HW256509  12.507   6.955   9.712 -0.6712 -0.9476  0.3494
49757SOL     OW56510   5.870   6.927   0.036  0.1785  0.1881 -0.2349
49757SOL    HW156511   5.778   6.909   0.018 -0.0503  1.2841 -0.2139
49757SOL    HW256512   5.889   6.876   0.115 -1.1447  1.9323  1.3023
49758SOL     OW56513   0.309   3.464   3.297 -1.1091 -0.4403  0.0923
49758SOL    HW156514   0.245   3.475   3.367 -0.0680 -1.8332  1.3316
49758SOL    HW256515   0.393   3.478   3.339 -0.5024 -0.0298 -1.1991
49759SOL     OW56516   8.479   9.658   9.425  0.1675  0.4554  0.0351
49759SOL    HW156517   8.442   9.696   9.345 -2.1479 -1.4605  0.0986
49759SOL    HW256518   8.447   9.715   9.495 -0.0294  0.6275 -0.1914
49760SOL     OW56519  11.820   8.824   0.283  0.2246 -0.3740  0.1310
49760SOL    HW156520  11.912   8.818   0.309 -0.1568 -2.3027  1.2007
49760SOL    HW256521  11.777   8.752   0.330 -1.4367 -0.8519 -1.9638
49761SOL     OW56522  12.568   4.302  10.856 -0.0004 -0.7224  0.1293
49761SOL    HW156523  12.606   4.264  10.936  0.4472  0.8404  0.7027
49761SOL    HW256524  12.502   4.364  10.888  0.8552  0.6423 -0.6359
49762SOL     OW56525   6.987   9.999   5.646  0.0137 -0.1725  0.3127
49762SOL    HW156526   6.976  10.078   5.593  1.3300 -0.3978 -0.3497
49762SOL    HW256527   7.054   9.949   5.600 -0.3812 -1.4108  1.0390
49763SOL     OW56528   7.224   4.549  12.149 -0.4692  0.6723 -0.7003
49763SOL    HW156529   7.283   4.545  12.225 -0.2172  0.3373 -0.9111
49763SOL    HW256530   7.137   4.539  12.187 -0.3974  1.1432 -0.3874
49764SOL     OW56531   7.715   1.246  11.326  0.4227  0.0892 -0.6931
49764SOL    HW156532   7.645   1.288  11.276 -0.5615 -0.1423  0.4376
49764SOL    HW256533   7.742   1.312  11.389 -0.3571 -0.5671  0.3549
49765SOL     OW56534   0.871   1.276   1.324 -0.7964  0.5424  0.5346
49765SOL    HW156535   0.881   1.187   1.357 -2.0403 -0.3049 -1.2099
49765SOL    HW256536   0.782   1.278   1.287 -1.0295  2.7084  1.0923
49766SOL     OW56537   6.051   4.954   6.162 -0.1294 -0.1475 -0.0906
49766SOL    HW156538   5.980   4.995   6.211 -0.4835  0.5695 -1.1770
49766SOL    HW256539   6.127   4.960   6.220 -0.5090  0.7919  0.3210
49767SOL     OW56540   5.396  10.428   6.463 -0.1078  0.8098 -0.1233
49767SOL    HW156541   5.450  10.496   6.503  0.4167  0.5057 -0.3004
49767SOL    HW256542   5.376  10.368   6.535  1.5078 -0.1719 -0.4294
49768SOL     OW56543   6.986   7.137   5.127  0.4044  0.6574  0.0669
49768SOL    HW156544   6.920   7.124   5.195  0.1003  1.7428 -0.0071
49768SOL    HW256545   7.066   7.098   5.163  0.1460  0.8694  0.8831
49769SOL     OW56546   4.203   0.051   7.514 -0.1980 -0.2758 -0.0339
49769SOL    HW156547   4.136   0.114   7.488  1.0120  1.2009  0.3222
49769SOL    HW256548   4.153  -0.022   7.551 -1.6109  1.0650  0.8591
49770SOL     OW56549   3.280   4.689   1.624  0.0776 -0.0022 -0.2475
49770SOL    HW156550   3.206   4.749   1.615 -0.5882 -0.6553  0.7323
49770SOL    HW256551   3.300   4.663   1.534 -1.0273  0.0210 -0.5146
49771SOL     OW56552   4.875  11.171  12.010  0.3559 -0.1342  0.1929
49771SOL    HW156553   4.847  11.080  12.001  0.4332 -0.0776 -0.6421
49771SOL    HW256554   4.803  11.222  11.972  0.4942  0.1348  0.2894
49772SOL     OW56555   7.539   3.687   3.560 -0.0420  0.2961 -0.3760
49772SOL    HW156556   7.549   3.658   3.470  1.3396 -0.0275 -0.1440
49772SOL    HW256557   7.529   3.782   3.555  1.0338  0.3895 -0.8125
49773SOL     OW56558   9.276   0.215   5.935 -1.1703  0.0437 -0.2684
49773SOL    HW156559   9.234   0.129   5.946  0.9260 -1.1016 -0.6677
49773SOL    HW256560   9.302   0.239   6.024 -1.8370  0.3312 -0.1433
49774SOL     OW56561   5.120  10.788   0.479  0.2932  0.5641 -0.1572
49774SOL    HW156562   5.060  10.722   0.514  1.3128 -0.1439  0.2973
49774SOL    HW256563   5.101  10.791   0.386 -0.9488  0.8894  0.0862
49775SOL     OW56564   5.848   4.365   0.268  0.4380 -0.1758 -0.3959
49775SOL    HW156565   5.886   4.316   0.196 -1.1269  0.4496 -1.7003
49775SOL    HW256566   5.804   4.298   0.322  1.4678 -0.6186 -0.0749
49776SOL     OW56567   6.109   8.338   1.726 -0.5560  0.2145 -0.3052
49776SOL    HW156568   6.122   8.243   1.735 -1.6641 -0.2968 -3.0212
49776SOL    HW256569   6.169   8.376   1.789  2.2444 -2.2544 -1.2411
49777SOL     OW56570   3.030  12.384   9.224 -0.0174  0.0577  0.6941
49777SOL    HW156571   2.951  12.370   9.278  0.3249 -1.5709  0.8146
49777SOL    HW256572   2.996  12.395   9.135 -0.3458 -2.0137  0.5226
49778SOL     OW56573   8.572   8.398   7.050  0.0549 -0.3824 -0.2538
49778SOL    HW156574   8.633   8.336   7.010  0.6376 -0.0759  0.1499
49778SOL    HW256575   8.594   8.396   7.143 -0.8701 -0.6197 -0.0256
49779SOL     OW56576   1.095  10.135   2.817  0.0382 -0.1676  0.1364
49779SOL    HW156577   1.122  10.051   2.854  2.5706 -0.0052 -1.1395
49779SOL    HW256578   1.094  10.195   2.891  3.0286 -0.3012  0.4176
49780SOL     OW56579   1.787  10.268   7.714  0.5331 -0.0727 -0.3067
49780SOL    HW156580   1.830  10.300   7.635 -0.7100 -0.9194 -1.3527
49780SOL    HW256581   1.694  10.266   7.693  0.0648  0.4394  1.4632
49781SOL     OW56582  10.041  12.252   6.577 -0.2401 -0.0536  0.2344
49781SOL    HW156583   9.961  12.302   6.557 -0.3344  0.0198  0.7781
49781SOL    HW256584  10.102  12.317   6.610 -0.3417 -0.2818  0.8858
49782SOL     OW56585   5.468   5.942   3.082  0.3045  0.4161  0.4373
49782SOL    HW156586   5.495   5.993   3.005 -2.5612 -0.2300 -1.1209
49782SOL    HW256587   5.487   5.851   3.059 -0.1290  0.2587  0.6983
49783SOL     OW56588   0.538   5.792   2.723  0.1034 -0.6254  0.0138
49783SOL    HW156589   0.509   5.820   2.637  1.0113 -1.2770 -0.5173
49783SOL    HW256590   0.545   5.874   2.773 -0.0297 -0.2017 -0.6476
49784SOL     OW56591   4.054  11.703   5.268  0.2543 -0.3022  0.1176
49784SOL    HW156592   4.058  11.779   5.211 -1.3386 -0.1658  0.1547
49784SOL    HW256593   4.140  11.700   5.310  0.7966  0.6724 -0.8909
49785SOL     OW56594   6.734   4.232   1.204  0.5105 -0.1832  0.2654
49785SOL    HW156595   6.792   4.274   1.141  0.1689 -1.3703 -0.8969
49785SOL    HW256596   6.653   4.284   1.201  1.6837  1.9459  2.4641
49786SOL     OW56597   6.558   7.054   6.824  0.0347 -0.1270 -0.1644
49786SOL    HW156598   6.512   7.063   6.908  0.6520  0.1085  0.1530
49786SOL    HW256599   6.489   7.065   6.758 -1.0529 -3.2217  0.2713
49787SOL     OW56600   1.514   9.876   9.258  0.0150  0.1962  0.7901
49787SOL    HW156601   1.609   9.885   9.246 -0.1597  0.9397 -0.1202
49787SOL    HW256602   1.479   9.963   9.241 -1.0787 -0.6214 -1.5083
49788SOL     OW56603   9.373   5.898   3.273  0.4478  0.4549 -0.2619
49788SOL    HW156604   9.459   5.890   3.231  1.8217 -0.6764  2.5217
49788SOL    HW256605   9.343   5.807   3.283  0.3232  0.6458  1.3901
49789SOL     OW56606  11.607  11.685   3.675  0.0296 -1.2441  0.2404
49789SOL    HW156607  11.627  11.774   3.648 -2.2073 -1.5240 -2.7686
49789SOL    HW256608  11.689  11.653   3.713  1.7003  1.1900 -1.0543
49790SOL     OW56609   3.677   8.849   9.872  0.4990  0.3836  0.0125
49790SOL    HW156610   3.701   8.756   9.876  0.0699  0.3189  1.5160
49790SOL    HW256611   3.649   8.862   9.781 -0.8271 -1.3148  0.1229
49791SOL     OW56612   3.270   6.174   1.139 -0.1138  0.1392 -0.3941
49791SOL    HW156613   3.248   6.149   1.049  1.3601  0.1376 -0.7681
49791SOL    HW256614   3.348   6.229   1.131  1.1102 -1.2833  0.9888
49792SOL     OW56615   9.758  10.738   2.506 -0.1504  0.7226 -0.2332
49792SOL    HW156616   9.715  10.661   2.541 -0.1650  0.8745  0.0849
49792SOL    HW256617   9.811  10.706   2.433  0.4301  0.3063  0.3720
49793SOL     OW56618   0.697   1.755   8.247  0.3518 -0.3546 -0.2159
49793SOL    HW156619   0.605   1.780   8.244  0.1048 -1.2953 -1.7112
49793SOL    HW256620   0.742   1.832   8.280 -0.7225  0.9680 -1.6944
49794SOL     OW56621   4.736   1.116  10.058  0.0740  0.1266 -0.3777
49794SOL    HW156622   4.831   1.124  10.047 -0.0800  0.1604 -1.9742
49794SOL    HW256623   4.701   1.202  10.035 -0.3796 -0.0243 -0.2708
49795SOL     OW56624   7.543  11.791   1.152  0.8288  0.4298  0.1675
49795SOL    HW156625   7.598  11.831   1.220  0.0884 -0.3039  1.2218
49795SOL    HW256626   7.547  11.697   1.168  0.4984  0.2486 -0.7051
49796SOL     OW56627  11.692  10.409   0.448 -0.2801  0.2894 -0.5217
49796SOL    HW156628  11.652  10.330   0.414  0.8619 -0.0956 -1.0370
49796SOL    HW256629  11.619  10.469   0.464 -1.0472 -0.4040 -1.3535
49797SOL     OW56630   0.623  11.097   6.548  0.2362  0.1255 -0.3628
49797SOL    HW156631   0.655  11.029   6.608  2.0619  1.7071  0.5629
49797SOL    HW256632   0.548  11.135   6.593  1.5433  1.2469  0.9696
49798SOL     OW56633   6.071   5.225   6.916 -0.2817 -0.4051 -0.7713
49798SOL    HW156634   5.979   5.250   6.924 -0.1588  0.4125 -1.6004
49798SOL    HW256635   6.099   5.204   7.005 -1.3359 -0.9489 -0.5488
49799SOL     OW56636   6.556   7.023  12.011  0.8276  0.3647  0.6890
49799SOL    HW156637   6.543   6.931  12.035 -0.0146  0.3652  0.2828
49799SOL    HW256638   6.589   7.064  12.091 -0.6390  0.0886  1.4807
49800SOL     OW56639  11.828   2.072   4.207  0.1584  0.3435  0.4316
49800SOL    HW156640  11.736   2.093   4.194 -0.0126 -0.8613 -0.4981
49800SOL    HW256641  11.856   2.131   4.277 -0.8299  1.9828 -0.4889
49801SOL     OW56642   3.531   1.174   6.511  0.9431  0.3675  0.1718
49801SOL    HW156643   3.610   1.201   6.559  0.1678  1.3023  0.9612
49801SOL    HW256644   3.565   1.123   6.437  2.2572  0.2433  0.8142
49802SOL     OW56645   0.925  12.486   0.156 -0.0727 -0.2473  0.4877
49802SOL    HW156646   0.834  12.461   0.138  0.2796 -0.2943 -1.5013
49802SOL    HW256647   0.929  12.498   0.251 -2.6730  1.7370  0.4629
49803SOL     OW56648   1.725   0.854   2.661  0.3392 -0.7240 -0.6203
49803SOL    HW156649   1.797   0.791   2.669  1.6175  0.5635 -1.5177
49803SOL    HW256650   1.738   0.894   2.575  0.2755  1.6131  0.4060
49804SOL     OW56651   0.145   7.412   9.281  0.3523  0.1479 -0.3736
49804SOL    HW156652   0.238   7.394   9.294 -0.1280 -1.4372  1.5069
49804SOL    HW256653   0.108   7.411   9.370 -1.6762 -0.6877 -1.1549
49805SOL     OW56654   9.235   5.115   9.532 -0.0376 -0.1557 -0.3382
49805SOL    HW156655   9.150   5.130   9.572  0.8830 -0.0301  1.6823
49805SOL    HW256656   9.270   5.203   9.517 -0.0452 -0.2154 -0.7342
49806SOL     OW56657   2.475   4.163   0.481 -0.3200 -0.4040 -0.4575
49806SOL    HW156658   2.525   4.130   0.556  1.1782  0.1278 -1.1865
49806SOL    HW256659   2.536   4.159   0.408 -0.9174  1.5149 -1.1245
49807SOL     OW56660  10.300   0.892   5.886 -0.4379  0.0359 -0.1618
49807SOL    HW156661  10.246   0.909   5.809 -0.7813 -0.2305  0.0184
49807SOL    HW256662  10.382   0.856   5.850 -0.1408  0.9894 -0.4696
49808SOL     OW56663   9.489   1.914  11.108  0.2348 -0.0647  0.2544
49808SOL    HW156664   9.548   1.840  11.124 -0.7460 -0.9328 -0.0645
49808SOL    HW256665   9.476   1.914  11.014 -3.0039 -2.1226  0.5490
49809SOL     OW56666  10.689   3.639   5.421 -0.4872 -0.1728 -0.7491
49809SOL    HW156667  10.595   3.638   5.442 -0.1380  0.6435  1.0660
49809SOL    HW256668  10.700   3.568   5.358 -2.3286 -0.2650 -1.0279
49810SOL     OW56669   4.664  11.338   5.911 -0.0404  1.2120  0.3688
49810SOL    HW156670   4.587  11.282   5.921  1.5479 -0.8252  2.2820
49810SOL    HW256671   4.657  11.372   5.822 -1.4549 -1.5433 -0.7119
49811SOL     OW56672  10.835  11.890   0.430 -0.0980 -0.2437  0.5193
49811SOL    HW156673  10.857  11.827   0.361  0.2025  0.9733 -0.5273
49811SOL    HW256674  10.872  11.973   0.400 -0.3000  0.4034  1.9724
49812SOL     OW56675   5.155   6.634   4.985 -0.7508  0.1938 -0.5519
49812SOL    HW156676   5.195   6.628   4.899  0.1647 -0.8006 -0.0840
49812SOL    HW256677   5.149   6.728   5.002  1.6836  0.3990 -0.5410
49813SOL     OW56678   9.751  11.335   9.723 -0.1515 -0.6138 -0.3972
49813SOL    HW156679   9.839  11.372   9.722 -0.5610  0.5970  1.9517
49813SOL    HW256680   9.744  11.291   9.808 -2.3295  0.7725  0.2301
49814SOL     OW56681   0.719   3.479  10.816  0.2592 -0.2388  0.5066
49814SOL    HW156682   0.755   3.398  10.780 -0.7657 -0.8828  0.8628
49814SOL    HW256683   0.693   3.456  10.905 -2.0050 -0.1573 -0.0583
49815SOL     OW56684   9.863   8.621  11.256  0.6905 -0.1243  0.1845
49815SOL    HW156685   9.800   8.556  11.287  0.1532 -0.4031 -1.3730
49815SOL    HW256686   9.914   8.645  11.333 -0.8198 -0.4671  1.3281
49816SOL     OW56687   3.257   5.084   4.667 -0.3526 -0.2222  0.2940
49816SOL    HW156688   3.268   5.084   4.762  0.2840 -0.2678  0.2214
49816SOL    HW256689   3.333   5.037   4.634 -0.2770  0.2921 -0.2773
49817SOL     OW56690   5.260  10.930   1.844 -0.5779 -0.1778 -0.0495
49817SOL    HW156691   5.295  10.952   1.930 -0.9704  0.5845 -0.0717
49817SOL    HW256692   5.232  11.014   1.807 -1.8092 -0.6639 -0.2942
49818SOL     OW56693   5.705   2.434   2.227 -0.2818 -0.9453  0.0920
49818SOL    HW156694   5.760   2.358   2.246  0.5413 -0.6706 -1.0670
49818SOL    HW256695   5.751   2.480   2.157 -1.1481  0.2236  0.2585
49819SOL     OW56696   7.071   7.534   2.497 -0.1746  0.8194 -0.0540
49819SOL    HW156697   7.159   7.496   2.491 -0.8314 -0.6636 -1.0358
49819SOL    HW256698   7.017   7.476   2.443 -1.9866  1.0335  1.4524
49820SOL     OW56699   3.965   6.079   9.017 -0.5863  0.1632 -0.2539
49820SOL    HW156700   4.013   6.156   9.047 -1.2044  0.9150 -1.1266
49820SOL    HW256701   4.007   6.005   9.062  1.0496  0.8393 -0.5992
49821SOL     OW56702  12.018   2.563   6.064  0.1838 -0.1588 -0.0136
49821SOL    HW156703  12.034   2.472   6.039  0.3793 -0.0138 -0.4334
49821SOL    HW256704  11.931   2.582   6.028 -0.0773 -0.3376  0.5234
49822SOL     OW56705  10.779   8.166   9.755 -0.2036 -0.7212 -0.3381
49822SOL    HW156706  10.799   8.072   9.757 -3.1008 -1.4245  1.7492
49822SOL    HW256707  10.698   8.172   9.705 -0.1944  0.6459 -0.2182
49823SOL     OW56708   9.579   2.826   8.566  0.0290  0.3626 -0.6083
49823SOL    HW156709   9.591   2.863   8.653  1.3426 -3.3133  0.9655
49823SOL    HW256710   9.659   2.848   8.519  3.1355 -3.9534  1.9118
49824SOL     OW56711   7.908  12.092   8.451  0.3932  0.3243 -0.4694
49824SOL    HW156712   7.816  12.068   8.444 -0.1406  1.2954  2.1320
49824SOL    HW256713   7.955  12.015   8.419 -1.3153 -1.3700  0.8621
49825SOL     OW56714   7.069   2.015   3.357 -0.3786  0.1035  0.5175
49825SOL    HW156715   7.001   1.969   3.307  0.1607  1.6079 -1.7155
49825SOL    HW256716   7.083   1.959   3.434 -0.2713 -3.1145 -1.6339
49826SOL     OW56717  10.405  11.025   3.624  0.1445  0.0142  0.0792
49826SOL    HW156718  10.346  10.968   3.674 -0.8981 -1.3086 -2.4415
49826SOL    HW256719  10.487  10.977   3.620 -0.0937 -0.3674 -0.3215
49827SOL     OW56720   1.294   2.789   3.106 -0.2998 -0.1355  0.2564
49827SOL    HW156721   1.243   2.783   3.025 -0.5385  0.5064  0.3532
49827SOL    HW256722   1.385   2.796   3.077 -0.2766 -0.9972  0.0776
49828SOL     OW56723  11.976   4.460   9.831  0.2037  0.2167  0.1431
49828SOL    HW156724  11.884   4.438   9.822  0.1922  0.1128  0.5376
49828SOL    HW256725  12.017   4.427   9.750 -0.1709  0.6362 -0.2248
49829SOL     OW56726   4.902  12.218   1.270  0.5775 -0.0300  0.7402
49829SOL    HW156727   4.815  12.198   1.236 -0.8012  1.1204  3.3092
49829SOL    HW256728   4.916  12.154   1.340  1.7475 -0.0739  0.4929
49830SOL     OW56729   4.392   3.483  11.795 -0.0189  0.4281 -0.0516
49830SOL    HW156730   4.418   3.440  11.714  1.3988  0.3390  0.4096
49830SOL    HW256731   4.450   3.445  11.861 -2.5604 -1.1058  1.4406
49831SOL     OW56732   5.293   5.208  11.711  0.1383 -0.1993 -0.0305
49831SOL    HW156733   5.239   5.143  11.666 -0.1492 -0.2079  0.3217
49831SOL    HW256734   5.280   5.190  11.804 -1.3239  1.4419  0.1298
49832SOL     OW56735  11.424  11.433   1.463  0.2569  0.2819 -0.5292
49832SOL    HW156736  11.481  11.433   1.540  0.9037 -2.4473 -0.9057
49832SOL    HW256737  11.338  11.405   1.497  0.7137 -1.6085 -0.8432
49833SOL     OW56738   1.661  12.660   2.711  0.0319 -0.5564 -0.5597
49833SOL    HW156739   1.679  12.627   2.623 -0.7351 -0.6539 -0.6923
49833SOL    HW256740   1.618  12.586   2.756 -0.2502 -0.2672 -0.3465
49834SOL     OW56741   5.821   4.253   5.304  0.0344  0.3589  0.2609
49834SOL    HW156742   5.777   4.280   5.384 -1.2450  3.4391 -1.3403
49834SOL    HW256743   5.750   4.243   5.240  1.2535  1.0137 -1.2481
49835SOL     OW56744   7.238   5.263  11.804  0.3186  0.1461  0.0197
49835SOL    HW156745   7.315   5.208  11.816  0.1369 -0.2821 -0.7139
49835SOL    HW256746   7.196   5.229  11.725 -1.4908 -0.6671  1.2463
49836SOL     OW56747   3.787   0.065  12.535 -0.1249  0.2226 -0.0835
49836SOL    HW156748   3.751  -0.020  12.511 -0.4866  0.3762 -0.0996
49836SOL    HW256749   3.856   0.045  12.597  0.4313 -0.1419 -0.8016
49837SOL     OW56750   3.625  11.098   6.525 -0.1371 -0.4679 -0.2097
49837SOL    HW156751   3.587  11.186   6.516  0.3394 -0.2496 -0.1366
49837SOL    HW256752   3.664  11.080   6.440  0.1604 -0.4143 -0.0889
49838SOL     OW56753  10.463   5.539  12.310  0.2188  0.6120  0.2778
49838SOL    HW156754  10.378   5.559  12.348 -0.6914 -1.8915 -0.3127
49838SOL    HW256755  10.521   5.528  12.386 -0.6547 -0.4219  0.8235
49839SOL     OW56756   4.257   8.426  12.491 -0.1732 -0.1005 -0.2425
49839SOL    HW156757   4.196   8.485  12.447  1.0305 -0.0304 -1.9427
49839SOL    HW256758   4.297   8.480  12.560  0.8732  1.1363 -1.7359
49840SOL     OW56759   1.409   6.427   9.350 -0.0250 -0.6556 -0.0239
49840SOL    HW156760   1.448   6.476   9.278  1.2428 -2.4510 -0.6527
49840SOL    HW256761   1.360   6.491   9.400  0.3130  0.9296 -1.6348
49841SOL     OW56762   8.331   0.412   8.187 -0.3767  0.4643  0.0619
49841SOL    HW156763   8.415   0.367   8.189 -0.3951  0.2074 -2.0570
49841SOL    HW256764   8.289   0.389   8.270  0.6261 -1.4248  0.1036
49842SOL     OW56765   2.438   8.383  10.764  0.0513  0.3380  0.5383
49842SOL    HW156766   2.449   8.335  10.846 -1.5975  0.8887  1.1290
49842SOL    HW256767   2.478   8.468  10.781  0.6754  0.0785  0.3866
49843SOL     OW56768  10.738   0.638   9.931  0.0328 -0.1082 -0.4744
49843SOL    HW156769  10.662   0.599   9.974 -0.5235 -1.2645 -2.3623
49843SOL    HW256770  10.706   0.661   9.843  1.6713  0.0559 -1.0540
49844SOL     OW56771  11.629   6.735   5.469  0.5181 -0.3020 -0.0301
49844SOL    HW156772  11.646   6.743   5.563  0.7593  0.7459 -0.1501
49844SOL    HW256773  11.697   6.790   5.428  0.0305 -0.2489 -0.7788
49845SOL     OW56774   3.902  11.508  11.517  0.3159  0.3484 -0.1931
49845SOL    HW156775   3.905  11.602  11.531 -1.3766  0.2923  0.7994
49845SOL    HW256776   3.912  11.498  11.422  1.5707  1.4400 -0.1996
49846SOL     OW56777   0.820   4.358   1.460  1.0842  0.2480  0.1852
49846SOL    HW156778   0.853   4.428   1.405  0.4992  0.9564  0.7201
49846SOL    HW256779   0.864   4.371   1.544  1.9777 -0.8272 -0.0874
49847SOL     OW56780   7.277   3.428   1.545  0.0701 -0.5538 -0.5959
49847SOL    HW156781   7.358   3.432   1.595 -0.3201  0.5436 -0.0241
49847SOL    HW256782   7.301   3.382   1.465  1.7498  1.3835 -1.3015
49848SOL     OW56783   4.785   0.386  12.474  0.1049  0.2955  0.1054
49848SOL    HW156784   4.786   0.305  12.423  0.8758  0.3549  0.0117
49848SOL    HW256785   4.694   0.396  12.502  0.4269 -2.1251  2.5167
49849SOL     OW56786   3.636  10.548  11.958 -0.8855 -0.4025  0.1594
49849SOL    HW156787   3.555  10.563  11.911 -1.1519  1.8443  1.2318
49849SOL    HW256788   3.661  10.633  11.993  0.0800 -1.6394  2.7991
49850SOL     OW56789   0.771   7.149   4.618 -0.3558 -0.7815 -0.3583
49850SOL    HW156790   0.686   7.183   4.646 -2.4017 -1.1473 -5.0683
49850SOL    HW256791   0.824   7.227   4.601 -1.3240 -0.3154 -1.3583
49851SOL     OW56792   6.876   3.926  10.532 -0.2188 -0.2386  0.0821
49851SOL    HW156793   6.927   3.958  10.458 -0.0482  2.0254  1.0913
49851SOL    HW256794   6.788   3.958  10.516 -0.4681 -0.8007  0.2787
49852SOL     OW56795   3.987  12.456   7.082  0.5520 -0.1816  0.2147
49852SOL    HW156796   3.943  12.392   7.026 -0.1659  1.0580 -0.6737
49852SOL    HW256797   4.022  12.522   7.022 -1.1353  1.7506  1.2050
49853SOL     OW56798   8.308   4.224   6.339  0.4273 -0.1775  0.0979
49853SOL    HW156799   8.295   4.259   6.427 -1.3820 -0.9169  0.1539
49853SOL    HW256800   8.398   4.191   6.340  1.6521  2.7916  0.5813
49854SOL     OW56801   4.018   2.917  12.296  0.3370 -0.2572 -0.1302
49854SOL    HW156802   4.026   2.952  12.384  3.2770 -1.4403  0.1684
49854SOL    HW256803   4.053   2.986  12.239  0.0194 -0.1660 -0.2203
49855SOL     OW56804   1.306   0.325  12.066  0.8013  0.5202  0.1945
49855SOL    HW156805   1.358   0.258  12.111  1.3720  0.3106 -0.7379
49855SOL    HW256806   1.218   0.316  12.104  1.3695  0.7221  1.6288
49856SOL     OW56807   2.176   7.348   0.283  0.3471 -0.4188 -0.3479
49856SOL    HW156808   2.148   7.293   0.211  1.2108  0.1350 -1.1337
49856SOL    HW256809   2.212   7.287   0.347 -0.7519 -0.9470 -0.2040
49857SOL     OW56810  11.266  11.358  10.825 -0.3499 -0.6907  0.3618
49857SOL    HW156811  11.323  11.370  10.900 -1.8277  0.4128  1.3757
49857SOL    HW256812  11.319  11.384  10.750  0.1062  1.6433  1.4049
49858SOL     OW56813   8.068   2.685   1.995 -0.7184 -0.2179 -0.2449
49858SOL    HW156814   7.985   2.731   1.987 -0.2690  1.0224  1.5885
49858SOL    HW256815   8.125   2.746   2.042  1.4235 -0.8348 -1.8738
49859SOL     OW56816   0.787   5.140   8.989  0.4120  0.4072 -0.2540
49859SOL    HW156817   0.730   5.099   9.055  0.7087  0.5898  0.1209
49859SOL    HW256818   0.758   5.231   8.984  0.7717  0.5447  0.0615
49860SOL     OW56819   5.355   4.286  10.519 -0.0017  0.6561 -0.1833
49860SOL    HW156820   5.370   4.371  10.478 -0.0972  1.3181  1.0840
49860SOL    HW256821   5.431   4.274  10.576  0.9575 -1.0114 -1.7538
49861SOL     OW56822   5.928   4.700   0.691  0.2876 -0.5682 -0.0333
49861SOL    HW156823   5.950   4.754   0.767 -0.7906  2.9288 -1.9783
49861SOL    HW256824   5.861   4.639   0.723  0.8440 -0.1560  2.0854
49862SOL     OW56825   0.738   3.178  12.690 -0.2740  0.3802  0.4314
49862SOL    HW156826   0.767   3.090  12.667  0.5315  0.6841  0.2699
49862SOL    HW256827   0.811   3.235  12.667 -1.4198  1.3299 -1.1266
49863SOL     OW56828   6.985  10.627   4.917  0.4715  0.1139 -0.4246
49863SOL    HW156829   7.050  10.621   4.986 -0.5653 -0.9514  0.4995
49863SOL    HW256830   7.013  10.562   4.852 -0.1508 -1.0527  0.4272
49864SOL     OW56831   2.644   6.926   9.945  0.5485  0.1931 -0.3057
49864SOL    HW156832   2.681   6.854   9.997  0.4577  0.3578 -0.0095
49864SOL    HW256833   2.719   6.970   9.907  0.5570 -1.1490 -1.9897
49865SOL     OW56834   7.633   0.537   8.898 -0.1612  0.0330 -0.3572
49865SOL    HW156835   7.702   0.528   8.964 -0.2817 -0.2984 -0.2788
49865SOL    HW256836   7.676   0.516   8.815  0.3850  1.9298 -0.5961
49866SOL     OW56837   1.929   0.041   9.264  0.5260 -0.3405 -0.3722
49866SOL    HW156838   1.863   0.110   9.260  1.0393  0.2098  0.3445
49866SOL    HW256839   1.943   0.016   9.173 -0.3686 -0.1787 -0.5623
49867SOL     OW56840  11.979  11.518  11.444  0.4911 -0.4052  0.0849
49867SOL    HW156841  11.999  11.491  11.533  0.9050 -3.1046 -0.7332
49867SOL    HW256842  12.063  11.546  11.408  0.0111  2.5789  1.0269
49868SOL     OW56843   8.749  12.157   4.588  0.1096 -0.5558 -0.0991
49868SOL    HW156844   8.715  12.152   4.678  0.2851  0.2565  0.0189
49868SOL    HW256845   8.736  12.069   4.553 -1.4446 -0.4637  0.1832
49869SOL     OW56846   9.336   8.910   0.226  0.2582 -0.1848 -0.0319
49869SOL    HW156847   9.332   8.854   0.148 -0.8003  0.5746 -0.5489
49869SOL    HW256848   9.425   8.897   0.260  0.8502 -0.3171 -1.5272
49870SOL     OW56849   1.272  12.153   5.364  0.0528 -0.3141 -0.3205
49870SOL    HW156850   1.338  12.154   5.433 -1.8084 -0.6342  1.5836
49870SOL    HW256851   1.265  12.245   5.337  0.9088 -0.2079 -0.2219
49871SOL     OW56852   6.242  11.906   3.682  0.3703 -0.6142  0.1153
49871SOL    HW156853   6.211  11.963   3.752 -0.6224 -0.0327 -0.7676
49871SOL    HW256854   6.205  11.820   3.704  0.5881 -0.5810  0.6308
49872SOL     OW56855   7.127   5.128   5.866  0.3230  0.0508  0.1910
49872SOL    HW156856   7.140   5.200   5.804 -0.9861 -0.1913 -0.4096
49872SOL    HW256857   7.072   5.165   5.935  1.4882  0.2206  1.0551
49873SOL     OW56858   7.897   6.331   7.289 -0.3793  0.0657 -0.4119
49873SOL    HW156859   7.849   6.404   7.330 -0.4733 -0.2394  0.0302
49873SOL    HW256860   7.831   6.263   7.277 -0.4254  0.2796 -1.4036
49874SOL     OW56861   4.330   5.528   5.124 -0.0161  0.0557 -0.0513
49874SOL    HW156862   4.286   5.509   5.207  0.5476 -0.0207  0.2375
49874SOL    HW256863   4.304   5.617   5.103  1.7512  1.0168  1.4802
49875SOL     OW56864   2.469   9.417   6.579  0.5603 -0.2744 -0.1495
49875SOL    HW156865   2.447   9.331   6.616 -0.6481  0.2758  0.4478
49875SOL    HW256866   2.512   9.464   6.651 -1.4716  0.6685  0.5155
49876SOL     OW56867   0.757   0.474   5.623  0.7647  0.2799  0.2382
49876SOL    HW156868   0.822   0.423   5.574  0.2652 -0.2453  0.1223
49876SOL    HW256869   0.697   0.409   5.660 -0.5145  0.8260 -0.8114
49877SOL     OW56870  10.344   6.782   2.990 -0.4629  0.0505  0.0721
49877SOL    HW156871  10.343   6.728   3.068 -0.4229 -0.0570 -0.0019
49877SOL    HW256872  10.436   6.786   2.964 -0.4421  0.3168  0.1904
49878SOL     OW56873   4.587   1.672  11.556  0.3089  0.2708 -0.0660
49878SOL    HW156874   4.676   1.696  11.529  0.4793 -0.6495 -0.3613
49878SOL    HW256875   4.583   1.577  11.543 -0.7084  0.3002 -0.0303
49879SOL     OW56876   6.124  12.475   9.207  0.1649  0.6291 -0.1357
49879SOL    HW156877   6.216  12.501   9.210  0.5927 -0.8299 -0.2281
49879SOL    HW256878   6.113  12.416   9.282 -1.0699  1.9079  0.7447
49880SOL     OW56879   1.377  10.689   9.774  0.0501 -0.4015  0.0542
49880SOL    HW156880   1.318  10.753   9.734  0.5822 -0.4938 -0.8960
49880SOL    HW256881   1.347  10.604   9.741  0.9698 -0.4158 -0.7865
49881SOL     OW56882   2.977   3.247   1.149  0.3427 -0.3518  0.7224
49881SOL    HW156883   3.053   3.218   1.097  0.7624  0.8590  0.6352
49881SOL    HW256884   3.001   3.333   1.181 -0.7510 -0.2224  1.2451
49882SOL     OW56885  10.877  11.299  12.336  0.5960 -0.7002  0.1364
49882SOL    HW156886  10.898  11.265  12.249  0.5894  0.1896 -0.2127
49882SOL    HW256887  10.956  11.343  12.365 -0.7168  2.9403 -1.3116
49883SOL     OW56888   8.608   6.961   7.991 -0.1606 -0.4563  0.3119
49883SOL    HW156889   8.681   6.905   7.963 -1.0952 -0.5176 -2.1838
49883SOL    HW256890   8.647   7.048   8.002  0.6994 -0.9338  1.2749
49884SOL     OW56891   4.288   7.631   0.309  0.3883  0.4652 -0.2870
49884SOL    HW156892   4.336   7.676   0.239  1.2143  0.6142  0.3633
49884SOL    HW256893   4.211   7.686   0.324  0.7053  0.9564 -0.4170
49885SOL     OW56894   9.956   8.044   8.376  0.2702  0.1493 -0.3554
49885SOL    HW156895  10.040   8.040   8.420  0.8632  0.8028 -1.3777
49885SOL    HW256896   9.974   8.090   8.294 -0.9225 -0.4104 -0.9618
49886SOL     OW56897  10.155   9.828   5.897  0.1628  0.5498 -0.9741
49886SOL    HW156898  10.079   9.851   5.843 -0.6814 -0.3179 -0.1896
49886SOL    HW256899  10.158   9.732   5.895  0.4605  0.5218  0.0530
49887SOL     OW56900   2.021   2.813   8.564 -0.0713 -0.1058 -1.0618
49887SOL    HW156901   1.956   2.878   8.588  1.1050  0.5080  0.6706
49887SOL    HW256902   1.974   2.730   8.563 -0.6880  0.1500  1.3201
49888SOL     OW56903  11.071   9.273  11.330 -0.3828  0.5646  0.8172
49888SOL    HW156904  11.060   9.215  11.255 -0.0293  0.3413  0.9350
49888SOL    HW256905  11.113   9.219  11.397 -0.2751  0.8866  1.0144
49889SOL     OW56906   0.470   5.557   9.343  0.3923 -0.1051 -0.7302
49889SOL    HW156907   0.544   5.511   9.304 -0.2236 -2.7068  0.9319
49889SOL    HW256908   0.415   5.582   9.268  0.6503 -2.3493 -1.7312
49890SOL     OW56909  11.409   1.631   3.894  0.2817  0.8762 -0.1594
49890SOL    HW156910  11.351   1.703   3.868  0.3479  0.2280 -2.2251
49890SOL    HW256911  11.493   1.674   3.910  0.4175  1.2691 -1.7176
49891SOL     OW56912   1.967   5.089   3.949 -0.2571  0.5665  0.1675
49891SOL    HW156913   1.917   5.160   3.990 -2.1001  0.3575 -1.5745
49891SOL    HW256914   1.932   5.009   3.988 -0.9711  0.4511 -0.6617
49892SOL     OW56915   6.620   5.823   8.185  0.1366 -0.0987 -0.1751
49892SOL    HW156916   6.662   5.864   8.260 -0.5764 -1.7565  1.1991
49892SOL    HW256917   6.526   5.836   8.200 -0.1287 -2.2983  0.4161
49893SOL     OW56918   9.457   3.394   3.013  0.1926  0.5106  0.0356
49893SOL    HW156919   9.397   3.406   3.087  1.4604  0.2133  1.1354
49893SOL    HW256920   9.482   3.302   3.018 -0.9579  0.0384 -1.7741
49894SOL     OW56921   4.940  10.303   9.935 -0.1489  0.2616  0.0598
49894SOL    HW156922   4.934  10.213   9.968  1.6504 -0.0728 -0.3756
49894SOL    HW256923   4.894  10.356  10.000 -2.5940 -1.1113 -0.4555
49895SOL     OW56924   2.620   8.213   4.555 -0.2714  0.4302 -0.2334
49895SOL    HW156925   2.545   8.155   4.539 -1.3268  1.3427  1.1468
49895SOL    HW256926   2.666   8.173   4.629 -0.5840  0.9489  0.2482
49896SOL     OW56927   8.157   7.603   7.347 -0.3550  0.0235  0.0135
49896SOL    HW156928   8.153   7.594   7.443  2.7975  0.5317  0.3075
49896SOL    HW256929   8.162   7.512   7.315  0.6053 -0.1293  0.5385
49897SOL     OW56930   8.149   8.186   8.886  0.5964 -0.0632 -0.0847
49897SOL    HW156931   8.239   8.200   8.854  0.6247  3.3959  1.0158
49897SOL    HW256932   8.160   8.167   8.979  0.2590  1.6759  0.3589
49898SOL     OW56933   1.528   6.571   8.661 -0.2686 -0.0521  0.4542
49898SOL    HW156934   1.529   6.620   8.744  1.4807  1.2805 -0.2821
49898SOL    HW256935   1.580   6.492   8.680  1.0379  0.7546  0.4069
49899SOL     OW56936   2.557   1.304   6.676  0.4625 -0.2123 -0.0132
49899SOL    HW156937   2.478   1.254   6.699 -0.4360 -0.1292 -2.5544
49899SOL    HW256938   2.525   1.390   6.650  1.3684 -0.1567 -1.0491
49900SOL     OW56939  12.490   0.698  10.414 -0.5587 -0.4836  0.0771
49900SOL    HW156940  12.523   0.608  10.418  1.8094  0.2732 -0.7096
49900SOL    HW256941  12.449   0.712  10.500  0.9085 -1.6562  1.0193
49901SOL     OW56942   9.633   9.934   2.721 -0.5215  1.0481  0.5614
49901SOL    HW156943   9.617   9.969   2.808 -0.5616 -0.5632  1.2341
49901SOL    HW256944   9.581   9.989   2.662 -2.4126  0.6747  1.8163
49902SOL     OW56945   2.368   1.710   0.472  0.0196  0.5460 -0.5847
49902SOL    HW156946   2.451   1.727   0.516  0.1456 -0.7020 -0.3143
49902SOL    HW256947   2.354   1.616   0.482 -2.6914  1.0681  1.6339
49903SOL     OW56948   6.816   4.127   0.717 -0.0441 -0.0893  0.3407
49903SOL    HW156949   6.800   4.074   0.639  0.3193  0.1147  0.1221
49903SOL    HW256950   6.736   4.179   0.727  0.1870  0.4032 -0.3187
49904SOL     OW56951   7.376  12.457   0.866 -0.0900  0.4776 -0.8221
49904SOL    HW156952   7.381  12.545   0.829  1.9952  0.0834 -1.6171
49904SOL    HW256953   7.463  12.441   0.903 -0.7567 -0.8518  0.2639
49905SOL     OW56954   1.001   5.913   4.485  0.0935 -0.3158 -0.0215
49905SOL    HW156955   1.025   5.979   4.550 -0.5621 -0.5529  0.4744
49905SOL    HW256956   0.906   5.915   4.483  0.1094 -0.2726 -1.0326
49906SOL     OW56957  12.336  10.876   9.423 -0.0990 -0.3380 -0.5953
49906SOL    HW156958  12.394  10.948   9.397 -0.3033  0.2568  0.5617
49906SOL    HW256959  12.250  10.900   9.387 -0.0808 -0.1993 -0.5443
49907SOL     OW56960   2.527  10.016   2.947 -0.5044 -0.1394 -0.2404
49907SOL    HW156961   2.622  10.020   2.934 -0.3137  0.2947  1.1756
49907SOL    HW256962   2.506  10.097   2.994 -0.9125 -2.0806  3.2743
49908SOL     OW56963  10.609   4.286   5.770 -0.2016 -0.9163  0.2652
49908SOL    HW156964  10.532   4.292   5.827 -0.3794 -1.2207  0.0614
49908SOL    HW256965  10.654   4.370   5.781  0.0052 -1.1373  1.1949
49909SOL     OW56966   8.895  11.046   6.985 -1.1015  0.1940  0.1528
49909SOL    HW156967   8.931  11.030   6.897  2.9677 -1.6790  1.9000
49909SOL    HW256968   8.949  11.117   7.020 -0.1241 -1.5073  2.3050
49910SOL     OW56969   8.711  11.713   0.158 -0.4551  0.0172 -0.3402
49910SOL    HW156970   8.753  11.795   0.182  0.6268 -0.7827  0.5818
49910SOL    HW256971   8.702  11.718   0.062  0.3090  0.8740 -0.3826
49911SOL     OW56972   8.935  11.909   2.451 -0.4112  0.1971  0.4637
49911SOL    HW156973   8.912  11.824   2.489 -1.2712  0.4805  0.5953
49911SOL    HW256974   8.982  11.887   2.371 -0.4605 -0.4058  0.5933
49912SOL     OW56975   3.462   4.672  12.292 -0.6221  0.1909 -0.5317
49912SOL    HW156976   3.515   4.620  12.232 -0.3914 -0.4715  0.2283
49912SOL    HW256977   3.485   4.640  12.379 -1.2462  0.8540 -0.1039
49913SOL     OW56978   7.492   1.933   3.738 -0.0004  0.8023  0.4836
49913SOL    HW156979   7.570   1.936   3.684 -0.3967  1.3565 -0.0763
49913SOL    HW256980   7.427   1.983   3.689 -0.4769  1.0078  1.3035
49914SOL     OW56981   8.318   9.127   0.310 -0.3131  0.7552 -0.5941
49914SOL    HW156982   8.288   9.086   0.392 -0.1931  0.7815 -0.5369
49914SOL    HW256983   8.295   9.063   0.242  0.0299  0.5129 -0.4858
49915SOL     OW56984   0.464   2.716  12.374 -0.4253 -0.0112 -0.2194
49915SOL    HW156985   0.429   2.692  12.288 -0.4024  0.6633 -0.4159
49915SOL    HW256986   0.529   2.648  12.393 -2.3694 -1.8038  0.5202
49916SOL     OW56987  11.569   8.166   6.444 -0.1176 -0.2984 -0.2039
49916SOL    HW156988  11.603   8.081   6.414 -0.3860 -0.2265 -0.7165
49916SOL    HW256989  11.636   8.198   6.504  0.0180 -0.8452 -0.0569
49917SOL     OW56990   3.536   6.986   3.833 -0.6763  0.0998  0.1426
49917SOL    HW156991   3.547   6.968   3.926  0.2020 -0.4980 -0.0600
49917SOL    HW256992   3.521   7.080   3.829 -2.1070 -0.0673  0.9797
49918SOL     OW56993   1.590   5.100   1.286 -0.3212  0.2593  0.5107
49918SOL    HW156994   1.651   5.119   1.215 -0.2976  0.1837  0.5106
49918SOL    HW256995   1.644   5.062   1.355 -0.4264 -0.1480  0.3694
49919SOL     OW56996   6.576   4.127   9.867  0.0006  0.2060  0.1608
49919SOL    HW156997   6.568   4.110   9.960 -0.7837  0.5317  0.1641
49919SOL    HW256998   6.628   4.054   9.833 -0.4114 -0.3546  0.7148
49920SOL     OW56999   1.346   9.823   2.185  0.1241 -0.2144  0.1566
49920SOL    HW157000   1.324   9.806   2.277  0.9805 -2.6217 -0.0170
49920SOL    HW257001   1.274   9.784   2.135  0.0276  0.4364 -0.2204
49921SOL     OW57002   1.945   0.488   8.261 -0.5740 -0.6333  0.1158
49921SOL    HW157003   1.965   0.521   8.348  0.9269 -2.4419  0.5328
49921SOL    HW257004   1.971   0.559   8.202  0.6118 -0.2501  1.0487
49922SOL     OW57005   7.980   1.396   5.127  0.4581  0.4548  0.2943
49922SOL    HW157006   8.016   1.318   5.085  1.0781  0.4770  0.7701
49922SOL    HW257007   7.917   1.362   5.191  0.2566  0.3804  0.0603
49923SOL     OW57008   2.980   7.861   1.918  0.0950 -0.2304  0.3192
49923SOL    HW157009   3.030   7.794   1.964  4.4361  2.0041 -0.5333
49923SOL    HW257010   2.967   7.826   1.830 -1.0136 -1.3301  0.8948
49924SOL     OW57011  11.639   8.090   0.402  0.2820 -0.2120  0.0863
49924SOL    HW157012  11.725   8.114   0.365  0.3468 -0.9469 -0.2569
49924SOL    HW257013  11.610   8.016   0.349 -1.6619  1.4810 -1.3792
49925SOL     OW57014   8.614  10.978   0.226  0.3877 -0.1820 -0.6688
49925SOL    HW157015   8.583  11.002   0.139  1.8749 -2.0241 -1.7820
49925SOL    HW257016   8.644  11.060   0.265  0.0530  0.6061 -2.0370
49926SOL     OW57017   9.080   6.241  12.586  0.4225 -0.6322 -0.0756
49926SOL    HW157018   9.123   6.156  12.593  0.1301 -0.7016  0.9732
49926SOL    HW257019   9.027   6.234  12.506  0.1854 -1.5322  0.1491
49927SOL     OW57020   4.335   0.522   0.651 -0.1592  0.0995  0.4172
49927SOL    HW157021   4.323   0.435   0.612  3.0226 -0.7931  1.1292
49927SOL    HW257022   4.348   0.504   0.744  1.4985  1.1972  0.4298
49928SOL     OW57023   5.356   4.326   8.740 -0.1194  0.2381 -0.2429
49928SOL    HW157024   5.396   4.280   8.814 -0.5786 -1.2686 -0.8827
49928SOL    HW257025   5.269   4.350   8.771 -1.3800 -2.7736 -1.0381
49929SOL     OW57026   5.839   1.872   3.498  0.0803  0.0117 -0.5827
49929SOL    HW157027   5.863   1.883   3.406  0.0708  0.0534 -0.5799
49929SOL    HW257028   5.750   1.905   3.504 -0.5991 -1.6215 -0.9386
49930SOL     OW57029   6.807   6.051   1.624 -0.1539 -0.0613  0.5242
49930SOL    HW157030   6.899   6.029   1.610  0.3999  1.2293  1.8154
49930SOL    HW257031   6.758   5.975   1.591  1.2791 -0.2231 -1.4217
49931SOL     OW57032   7.137   7.307   1.801  0.1038 -0.2175  0.2994
49931SOL    HW157033   7.173   7.226   1.764  0.5265 -0.5279  1.3609
49931SOL    HW257034   7.042   7.297   1.794  0.1695 -0.0378 -1.1618
49932SOL     OW57035   2.966   3.288   8.944  0.3096  0.0574 -0.1038
49932SOL    HW157036   3.030   3.219   8.960  0.6996 -0.2596 -2.5579
49932SOL    HW257037   3.016   3.359   8.903 -0.5603  0.6511 -0.1779
49933SOL     OW57038   4.881   6.640  10.643 -0.1136 -0.5852 -0.4444
49933SOL    HW157039   4.850   6.554  10.670 -0.2978 -0.5005 -0.3863
49933SOL    HW257040   4.868   6.696  10.719  0.2766 -0.5704 -0.3860
49934SOL     OW57041   5.444  10.992   4.228  0.2478  0.2769 -0.3372
49934SOL    HW157042   5.530  10.954   4.213  0.6625  1.8020 -2.2033
49934SOL    HW257043   5.389  10.954   4.159 -0.2389  0.3006  0.0323
49935SOL     OW57044   1.448   4.441   2.637 -0.2092 -0.1134  0.4324
49935SOL    HW157045   1.485   4.441   2.549  2.0882 -2.4561  1.2986
49935SOL    HW257046   1.476   4.525   2.674  1.3374 -0.3440 -0.1320
49936SOL     OW57047   8.450   8.498   9.237 -0.9279  0.7029  0.1263
49936SOL    HW157048   8.480   8.552   9.310  0.0040 -0.7496  0.8673
49936SOL    HW257049   8.454   8.556   9.161  1.8634  1.2255  0.5504
49937SOL     OW57050   0.104   1.996   0.443 -0.2257 -0.2709  0.4395
49937SOL    HW157051   0.059   2.044   0.513  0.8067  1.0867  0.1966
49937SOL    HW257052   0.180   2.050   0.421 -0.4643 -0.7006 -1.6671
49938SOL     OW57053   4.378   0.543  12.059 -0.4191 -0.1727  0.7653
49938SOL    HW157054   4.328   0.560  11.979 -0.6229 -1.6678  0.5398
49938SOL    HW257055   4.334   0.595  12.127 -1.0257  0.1111  0.1608
49939SOL     OW57056  10.898   8.677   0.167 -0.1474  0.4484  0.2897
49939SOL    HW157057  10.855   8.761   0.146  3.0519  1.7399 -1.9464
49939SOL    HW257058  10.865   8.617   0.101 -1.1570  0.3773  0.8337
49940SOL     OW57059  12.118   3.166   6.394 -0.2927 -0.1061  0.2767
49940SOL    HW157060  12.068   3.122   6.462 -0.6033 -0.4121 -0.1421
49940SOL    HW257061  12.203   3.183   6.433  0.1540 -1.8919  0.1633
49941SOL     OW57062   3.818   3.737   0.940  0.2515 -0.3832  0.3140
49941SOL    HW157063   3.801   3.695   0.855  0.9515  2.9829 -1.6595
49941SOL    HW257064   3.913   3.746   0.943  0.3129 -1.2303  1.9471
49942SOL     OW57065  11.434   8.753  10.149 -0.3078  0.2266  0.2263
49942SOL    HW157066  11.471   8.744  10.061  1.1220 -2.1065  0.9765
49942SOL    HW257067  11.453   8.844  10.173  0.1206  0.6375 -1.4831
49943SOL     OW57068  10.368   6.752  10.818  0.2256 -0.6130 -0.4122
49943SOL    HW157069  10.397   6.729  10.906  0.5688  0.6784 -0.1541
49943SOL    HW257070  10.449   6.773  10.772 -0.0414 -0.0689 -0.6461
49944SOL     OW57071   1.604   1.961  11.437  0.4085 -0.1587  0.2860
49944SOL    HW157072   1.617   2.029  11.370 -0.8822 -0.1330  0.0351
49944SOL    HW257073   1.516   1.927  11.420  1.0673 -2.0074  0.3176
49945SOL     OW57074   4.506   3.120   2.382  0.3845  0.4869  0.0390
49945SOL    HW157075   4.507   3.060   2.456 -1.1670  0.7283  0.2865
49945SOL    HW257076   4.482   3.205   2.420  1.0534  0.9409 -0.5269
49946SOL     OW57077   4.812   4.218   5.475 -0.2347  0.4545  0.3220
49946SOL    HW157078   4.772   4.161   5.542  2.3705 -0.4315  1.2331
49946SOL    HW257079   4.793   4.175   5.392 -0.4270 -0.4034  0.7984
49947SOL     OW57080   9.688   5.241   6.446  0.4967 -0.4625  0.7086
49947SOL    HW157081   9.740   5.319   6.464 -0.4658  0.2295  0.5977
49947SOL    HW257082   9.617   5.272   6.390 -0.7899 -1.0694  1.9170
49948SOL     OW57083   3.251  12.035   4.919  0.4458 -0.0790 -0.2262
49948SOL    HW157084   3.211  12.122   4.918 -0.4621 -0.4870 -1.2320
49948SOL    HW257085   3.328  12.045   4.975 -0.2424  1.0993  0.5536
49949SOL     OW57086   0.276   4.153   6.137 -0.5378  0.0054 -0.9403
49949SOL    HW157087   0.212   4.086   6.114 -0.9269 -0.3032  0.8733
49949SOL    HW257088   0.338   4.153   6.064 -1.2758 -1.3788 -1.6144
49950SOL     OW57089  11.173   2.523   0.937  0.0520  0.2740  0.4174
49950SOL    HW157090  11.237   2.589   0.964 -1.8344  2.5432 -0.3234
49950SOL    HW257091  11.092   2.572   0.923 -0.8501 -1.7801 -2.6766
49951SOL     OW57092  10.338   3.473   2.313 -0.0181  0.0466  0.2038
49951SOL    HW157093  10.417   3.419   2.304  0.5842  1.0966 -1.2180
49951SOL    HW257094  10.293   3.465   2.229 -0.4724  0.8890  0.3529
49952SOL     OW57095   2.914   7.245   9.614 -0.7988  0.1315  0.4867
49952SOL    HW157096   2.992   7.295   9.639  0.6508 -1.2489 -0.9905
49952SOL    HW257097   2.903   7.181   9.685 -0.1072 -0.1442  0.3600
49953SOL     OW57098   2.894   8.579   0.972  0.4008 -0.4246  0.8679
49953SOL    HW157099   2.945   8.657   0.948 -1.1483 -0.0048 -1.4564
49953SOL    HW257100   2.803   8.608   0.965 -0.3154 -2.8926 -2.3317
49954SOL     OW57101   5.285   4.516   5.232  0.1928  0.0647  0.0380
49954SOL    HW157102   5.223   4.569   5.181 -1.3367  0.1301  1.8494
49954SOL    HW257103   5.316   4.450   5.170 -0.5830  0.9107 -1.3210
49955SOL     OW57104   7.695   1.863   0.791 -0.0580  0.2742  0.6542
49955SOL    HW157105   7.715   1.957   0.794 -1.5944  0.7509 -1.5354
49955SOL    HW257106   7.600   1.859   0.788 -0.0117 -1.3696  0.6513
49956SOL     OW57107   8.975  10.027   9.356  0.0086 -0.9604 -0.8297
49956SOL    HW157108   8.904  10.084   9.386  2.0368  1.2034  0.2137
49956SOL    HW257109   9.013   9.992   9.437 -0.0518 -2.4045 -1.3892
49957SOL     OW57110   2.018  11.679  11.813 -0.3219 -0.2730  0.4625
49957SOL    HW157111   1.953  11.694  11.882  0.1075  1.8441  0.4643
49957SOL    HW257112   1.966  11.676  11.732 -0.6946 -1.5433  0.7209
49958SOL     OW57113   0.279  10.492  11.181  0.8176  0.5593  0.0979
49958SOL    HW157114   0.342  10.474  11.111 -0.3590 -0.9111 -0.6733
49958SOL    HW257115   0.236  10.407  11.195 -0.3287  1.3033  1.2322
49959SOL     OW57116   9.038   9.891   4.444 -0.8872  0.0327  0.1266
49959SOL    HW157117   9.016   9.807   4.404 -2.0882  0.4149 -0.0335
49959SOL    HW257118   9.046   9.871   4.538 -2.5222 -0.0099  0.2730
49960SOL     OW57119   9.127   3.200  10.037  0.6271 -0.0656  0.1319
49960SOL    HW157120   9.106   3.266  10.103  4.1232 -1.3229  2.7855
49960SOL    HW257121   9.094   3.118  10.074  0.3341 -0.4527 -0.9578
49961SOL     OW57122   2.884  10.790   1.367 -0.1898 -0.5370  0.3930
49961SOL    HW157123   2.808  10.835   1.330 -1.1765 -1.1086  1.6416
49961SOL    HW257124   2.847  10.727   1.429  1.2328 -2.0846 -0.2506
49962SOL     OW57125   3.102   4.412  11.702 -0.0951  0.0840 -0.0128
49962SOL    HW157126   3.174   4.399  11.641  1.7824 -1.5066  2.3662
49962SOL    HW257127   3.035   4.350  11.672  0.7086 -0.5563 -0.5436
49963SOL     OW57128   2.990   6.497   1.051  0.1428 -0.0962  0.6328
49963SOL    HW157129   2.953   6.488   0.964 -2.6232  0.5272  1.6487
49963SOL    HW257130   3.006   6.591   1.061  0.1023 -0.1199  0.9261
49964SOL     OW57131   2.661  11.191   5.899 -0.0909  0.0644  0.2198
49964SOL    HW157132   2.744  11.237   5.909  0.7691 -1.3817 -0.0725
49964SOL    HW257133   2.606  11.253   5.850  0.1659  1.7553  1.9459
49965SOL     OW57134   5.705  11.200   9.302 -0.8577 -0.1406 -0.1267
49965SOL    HW157135   5.744  11.284   9.325  0.2165 -0.6148 -0.1869
49965SOL    HW257136   5.619  11.223   9.266 -1.4931  0.7970  1.8026
49966SOL     OW57137   8.663  11.417  10.413 -0.1556  0.3321  0.0881
49966SOL    HW157138   8.741  11.366  10.434 -0.0532  0.7176  0.6739
49966SOL    HW257139   8.647  11.399  10.321  1.1408  0.9334 -0.2824
49967SOL     OW57140  12.533   6.364   6.542  0.3429  0.3272 -0.5881
49967SOL    HW157141  12.457   6.420   6.524 -1.2535 -1.9542 -1.4464
49967SOL    HW257142  12.507   6.314   6.620  1.4120  0.2347 -0.2787
49968SOL     OW57143   9.050   3.119   4.439  0.0359  0.0487  0.3729
49968SOL    HW157144   8.985   3.112   4.370 -0.0198 -1.4726  0.5359
49968SOL    HW257145   9.029   3.047   4.499 -0.6250  1.9675  2.6105
49969SOL     OW57146  10.708   9.406   1.107  0.1277  0.3660 -0.0440
49969SOL    HW157147  10.709   9.485   1.160 -0.6262  0.6437 -0.4424
49969SOL    HW257148  10.783   9.415   1.048  0.5021  0.4146  0.4314
49970SOL     OW57149  11.725   8.868  11.183 -0.1649 -0.0603 -0.2063
49970SOL    HW157150  11.764   8.781  11.175  0.9021  0.1095  2.3107
49970SOL    HW257151  11.679   8.867  11.267 -2.0685  1.1286 -1.1618
49971SOL     OW57152   2.322   6.661   5.491 -0.7876  0.7005 -0.9131
49971SOL    HW157153   2.227   6.654   5.480 -1.1589 -0.0449  1.9937
49971SOL    HW257154   2.358   6.633   5.406 -3.1329 -0.8440 -1.4904
49972SOL     OW57155   7.477  11.739   0.386  0.1481 -0.0369 -0.5871
49972SOL    HW157156   7.535  11.687   0.331  0.7253  1.5483 -1.5516
49972SOL    HW257157   7.418  11.675   0.426  0.1174 -1.3236 -2.5480
49973SOL     OW57158  11.711   5.578   5.223  0.3020  0.5743 -0.0833
49973SOL    HW157159  11.622   5.574   5.187  1.0119  1.8250 -2.0946
49973SOL    HW257160  11.700   5.617   5.310 -1.2512 -0.7588  0.3830
49974SOL     OW57161   1.271  11.272   1.290 -0.1927  0.6937  0.0455
49974SOL    HW157162   1.356  11.245   1.256  0.5053  1.6066  0.9844
49974SOL    HW257163   1.255  11.358   1.250 -0.3869  0.7879  0.3185
49975SOL     OW57164   8.426   2.596  11.653 -0.1625  0.0739  0.5041
49975SOL    HW157165   8.408   2.625  11.742 -1.0245  1.7891 -0.1753
49975SOL    HW257166   8.354   2.633  11.601  1.6570  1.3699 -1.2895
49976SOL     OW57167   2.218   5.729   8.346 -0.3369  0.2678  0.5338
49976SOL    HW157168   2.313   5.734   8.341 -0.4043  1.5418  0.1712
49976SOL    HW257169   2.196   5.765   8.432 -0.5167  0.2790  0.4838
49977SOL     OW57170   2.198   1.021   0.696 -0.5361  0.2529 -0.2764
49977SOL    HW157171   2.233   0.950   0.643 -0.7787 -0.0951  0.0251
49977SOL    HW257172   2.275   1.065   0.732 -0.3826  0.2347 -0.5791
49978SOL     OW57173  10.860   0.055   9.077 -0.1594  0.5337 -0.2390
49978SOL    HW157174  10.797   0.051   9.149  2.9748 -1.2852  2.6315
49978SOL    HW257175  10.843  -0.024   9.026  0.3693 -0.4987  1.1239
49979SOL     OW57176   9.541   7.128   7.327  0.3522 -0.0613  0.3348
49979SOL    HW157177   9.521   7.217   7.355 -1.5893 -0.0093 -1.0299
49979SOL    HW257178   9.629   7.111   7.361  0.9306  2.5000  0.3041
49980SOL     OW57179   3.021   3.462  12.018 -0.6851 -0.7019  0.0429
49980SOL    HW157180   3.107   3.435  12.049 -1.1531 -1.5109  0.6661
49980SOL    HW257181   3.000   3.399  11.948 -0.7817 -0.5250 -0.0889
49981SOL     OW57182  10.259   4.652   9.344  0.5000  0.1168 -0.1148
49981SOL    HW157183  10.287   4.742   9.360 -0.7975  1.1130 -2.7729
49981SOL    HW257184  10.269   4.642   9.249 -2.0488 -1.5798 -0.2694
49982SOL     OW57185   6.309  11.474   5.588 -0.5712  0.2057 -0.3067
49982SOL    HW157186   6.228  11.510   5.554 -0.2451  0.5117 -0.7836
49982SOL    HW257187   6.377  11.512   5.532 -0.0427  0.4655  0.4942
49983SOL     OW57188  10.272   4.512   7.573 -0.1240  0.4467  0.4802
49983SOL    HW157189  10.251   4.426   7.535 -0.5200  0.9174 -0.4044
49983SOL    HW257190  10.354   4.498   7.620 -0.2010 -0.4239  0.3785
49984SOL     OW57191   9.516   1.745   7.393  0.3103 -0.2379 -0.5972
49984SOL    HW157192   9.524   1.716   7.484  0.6503 -2.2851 -1.2113
49984SOL    HW257193   9.442   1.695   7.358  1.8100 -1.5343 -2.1157
49985SOL     OW57194   1.168   2.509   3.196 -0.4142  0.1793 -0.5434
49985SOL    HW157195   1.249   2.557   3.217  0.6484 -1.7803  0.1165
49985SOL    HW257196   1.111   2.574   3.156  2.6204  1.0558 -3.9709
49986SOL     OW57197   8.326   0.618   7.409  0.3026 -0.2113 -0.3636
49986SOL    HW157198   8.412   0.618   7.368  0.1871 -3.2828 -0.8087
49986SOL    HW257199   8.344   0.617   7.503  0.6423  1.7675 -0.3655
49987SOL     OW57200   1.836   9.402   6.048 -0.8875  0.3830 -0.3078
49987SOL    HW157201   1.770   9.392   5.979 -0.7340  1.6806 -0.6741
49987SOL    HW257202   1.835   9.496   6.068 -1.0963  0.0219  1.6417
49988SOL     OW57203   0.299   6.836   7.433  0.2367 -0.4554 -0.3124
49988SOL    HW157204   0.273   6.849   7.524 -0.2607  2.0656 -0.7333
49988SOL    HW257205   0.218   6.814   7.388  0.3679 -1.0470 -0.2667
49989SOL     OW57206  10.151   9.587   3.743 -0.1990 -0.2258 -0.6630
49989SOL    HW157207  10.107   9.532   3.808  1.4975 -1.3817 -0.4208
49989SOL    HW257208  10.174   9.526   3.672 -1.0062  0.7960 -1.8501
49990SOL     OW57209   6.642   7.567   9.286 -0.4755 -0.2862  0.3236
49990SOL    HW157210   6.621   7.502   9.353  0.0210  0.3097  1.0773
49990SOL    HW257211   6.619   7.651   9.326  3.8444  0.5605  1.6253
49991SOL     OW57212  12.127   2.369   2.226 -0.3576  0.1156 -0.2370
49991SOL    HW157213  12.036   2.343   2.242 -0.4307 -0.5454 -1.5551
49991SOL    HW257214  12.123   2.421   2.145  0.8816 -3.6640 -3.0262
49992SOL     OW57215   3.190   3.843   2.927  0.1951 -0.0673 -0.4047
49992SOL    HW157216   3.192   3.800   2.841  0.3815  0.7845 -0.8284
49992SOL    HW257217   3.100   3.875   2.936  0.0202 -0.6504 -0.0304
49993SOL     OW57218   3.621   1.012  10.280 -0.2087 -0.3293 -0.4101
49993SOL    HW157219   3.583   0.975  10.201 -1.9670 -0.1722  0.3158
49993SOL    HW257220   3.556   0.995  10.349  0.3335  1.3071  0.5753
49994SOL     OW57221   4.467   4.626   8.833 -0.0128 -0.6526 -0.3171
49994SOL    HW157222   4.557   4.657   8.820 -0.0692 -0.4269 -0.1680
49994SOL    HW257223   4.477   4.531   8.845  0.1679 -0.6805 -0.6646
49995SOL     OW57224   1.819   9.192   0.982 -0.5091  0.4169  0.4654
49995SOL    HW157225   1.780   9.276   0.956  0.2839  0.7127  0.1958
49995SOL    HW257226   1.794   9.132   0.911 -1.2537  0.3568  0.7616
49996SOL     OW57227   1.957  12.624  11.222  0.0950 -0.0847 -0.1073
49996SOL    HW157228   2.032  12.621  11.163 -1.1910  1.5537 -1.8998
49996SOL    HW257229   1.978  12.694  11.284  1.2223 -1.4838  1.1867
49997SOL     OW57230   2.864   3.878   3.930 -0.4585  0.3634 -0.0347
49997SOL    HW157231   2.894   3.831   4.008 -0.4724  0.6942  0.1698
49997SOL    HW257232   2.857   3.969   3.958 -0.8351  0.4206 -0.3176
49998SOL     OW57233   6.959   5.884  10.117 -0.3458  0.2968 -0.5532
49998SOL    HW157234   6.885   5.832  10.148 -0.3595  0.9613  0.5673
49998SOL    HW257235   6.942   5.972  10.151  0.7884  0.5310 -0.5672
49999SOL     OW57236  10.789   5.991  10.556  0.0089 -0.0888 -0.1228
49999SOL    HW157237  10.776   6.042  10.636 -0.8016  2.4319 -1.7532
49999SOL    HW257238  10.884   5.986  10.546  0.1012  0.5672  0.3842
50000SOL     OW57239   9.990   7.092   0.819  0.1777  0.3028  0.2556
50000SOL    HW157240  10.073   7.048   0.837  1.6679  2.1888 -1.5664
50000SOL    HW257241   9.971   7.072   0.727  0.0473  2.0528 -0.1341
50001SOL     OW57242   6.887   6.147  10.237 -0.3986 -0.3252  0.4252
50001SOL    HW157243   6.915   6.222  10.289  0.1244 -0.2400  0.0305
50001SOL    HW257244   6.823   6.102  10.292 -2.8576  1.9343 -0.3764
50002SOL     OW57245   5.850   6.822  10.803 -0.2856  0.6261  0.7013
50002SOL    HW157246   5.778   6.793  10.858  0.2926  0.7294  1.5183
50002SOL    HW257247   5.929   6.808  10.855  0.3114  0.3873 -0.2276
50003SOL     OW57248   7.679   9.265   3.348 -0.0731  0.1675 -0.5581
50003SOL    HW157249   7.618   9.283   3.420 -0.8624 -1.3918 -0.7771
50003SOL    HW257250   7.671   9.340   3.290 -1.8316  0.0060 -0.5840
50004SOL     OW57251   7.462   2.332   0.268 -0.0102  0.1724 -0.5021
50004SOL    HW157252   7.456   2.377   0.184 -0.2801  0.5687 -0.2722
50004SOL    HW257253   7.407   2.383   0.327 -0.7717 -0.7725 -0.3687
50005SOL     OW57254   9.980  12.294  11.765 -0.1266 -0.1910  0.1777
50005SOL    HW157255  10.061  12.268  11.723 -0.7143 -2.3278  0.2339
50005SOL    HW257256   9.920  12.313  11.693  0.3382  1.2462  0.1374
50006SOL     OW57257  12.130   0.468   0.061  0.3951  0.4315 -0.2318
50006SOL    HW157258  12.045   0.453   0.020  0.6826 -1.3542 -0.2699
50006SOL    HW257259  12.111   0.477   0.154  0.1455  0.1559 -0.2534
50007SOL     OW57260   3.615   7.054   5.654 -0.2947 -0.6035 -0.5846
50007SOL    HW157261   3.556   6.990   5.693  0.4302 -1.0326 -0.1670
50007SOL    HW257262   3.620   7.030   5.561 -0.3472 -0.8933 -0.5105
50008SOL     OW57263   4.549  10.048  10.897 -0.2387 -0.3810 -0.0198
50008SOL    HW157264   4.491  10.120  10.919  1.3625  0.6601  0.9474
50008SOL    HW257265   4.505   9.970  10.931 -1.3636  0.3007  0.1086
50009SOL     OW57266   7.540   0.475   7.008  0.2154  0.3087 -0.4127
50009SOL    HW157267   7.624   0.498   7.049 -0.7636  1.6106  0.9528
50009SOL    HW257268   7.506   0.558   6.974  0.1446 -0.4472 -2.3305
50010SOL     OW57269   6.568   0.622   8.574 -0.3996  0.1023  0.3713
50010SOL    HW157270   6.526   0.695   8.620  1.1296  1.2929 -0.0727
50010SOL    HW257271   6.539   0.544   8.622  0.4745  1.2262  2.8510
50011SOL     OW57272  10.909   0.267   0.021  0.4812 -0.7750  0.6403
50011SOL    HW157273  10.962   0.256  -0.058  0.2217 -0.3242  0.3962
50011SOL    HW257274  10.852   0.342   0.001 -0.2237 -1.2326  0.9039
50012SOL     OW57275  11.169  12.255   4.206 -0.5065  0.0904  1.0392
50012SOL    HW157276  11.130  12.205   4.278  1.1746  0.9266  2.6094
50012SOL    HW257277  11.262  12.260   4.227  0.2861 -0.5955 -1.8207
50013SOL     OW57278   9.731  12.706  11.271  0.5275 -0.0000  0.2112
50013SOL    HW157279   9.748  12.704  11.365  0.2031 -0.8084  0.2666
50013SOL    HW257280   9.654  12.649  11.259 -0.8857  1.9061 -0.2678
50014SOL     OW57281  10.967   4.413   5.594 -0.1987  0.0090  0.2121
50014SOL    HW157282  10.917   4.492   5.612 -1.9666 -1.0061 -0.0827
50014SOL    HW257283  10.952   4.396   5.501  1.4343  0.1471 -0.1114
50015SOL     OW57284   5.272   4.068  11.936 -0.0020  0.7417 -1.0810
50015SOL    HW157285   5.255   4.115  11.855 -1.8611 -0.4775 -1.4811
50015SOL    HW257286   5.342   4.007  11.915 -1.9581 -1.1627 -2.5545
50016SOL     OW57287   3.306   6.926   8.714  0.2843  0.1730 -0.2525
50016SOL    HW157288   3.273   6.957   8.798 -1.0063 -0.3999 -0.5239
50016SOL    HW257289   3.300   7.002   8.656  1.4822  0.6584  0.2367
50017SOL     OW57290   6.230   1.357   1.865 -0.3242  0.0361  0.2602
50017SOL    HW157291   6.161   1.307   1.821 -0.3652 -0.3516  0.7537
50017SOL    HW257292   6.275   1.403   1.795 -0.0421 -0.9934 -0.2442
50018SOL     OW57293   2.073   1.400  12.594 -0.1681  0.0684 -0.1832
50018SOL    HW157294   2.136   1.467  12.566 -0.0106 -0.0774 -0.1727
50018SOL    HW257295   2.121   1.344  12.654 -0.6842  0.7560  0.9097
50019SOL     OW57296   4.072   9.412   3.184  0.5832 -0.6605  0.2317
50019SOL    HW157297   4.143   9.469   3.211  0.7950  0.5262 -2.4613
50019SOL    HW257298   4.111   9.324   3.181  1.1673 -0.4492  1.2952
50020SOL     OW57299   6.086  11.027   7.452 -0.0217 -0.5031 -0.2493
50020SOL    HW157300   6.051  10.940   7.465  0.9793 -0.9012 -0.1102
50020SOL    HW257301   6.018  11.086   7.485 -0.4162 -1.2519  0.2918
50021SOL     OW57302   5.493   6.946   6.807  0.8444  0.3545  0.4038
50021SOL    HW157303   5.458   6.972   6.722  0.9710  1.8275  0.7689
50021SOL    HW257304   5.416   6.916   6.856  0.8122 -0.7708 -0.2943
50022SOL     OW57305   9.915  12.209   3.626 -0.7102 -0.1844 -0.3467
50022SOL    HW157306   9.883  12.153   3.556  0.5141  0.9915 -1.9346
50022SOL    HW257307   9.995  12.166   3.657 -0.5889 -0.0993 -0.5349
50023SOL     OW57308   1.580   1.317   0.758 -0.3199  0.7085 -0.0758
50023SOL    HW157309   1.491   1.339   0.785 -0.2752 -1.8863  2.8179
50023SOL    HW257310   1.628   1.400   0.763 -1.9577  1.6476  1.1561
50024SOL     OW57311   6.166   1.955   0.078  0.2366  0.2600 -0.1277
50024SOL    HW157312   6.157   1.924  -0.012 -0.7000 -0.0388  0.0579
50024SOL    HW257313   6.123   1.888   0.131 -0.9617  1.3673  0.3691
50025SOL     OW57314  10.681   3.896  10.080 -0.2501 -0.2176  0.1222
50025SOL    HW157315  10.723   3.860  10.002 -2.5920 -1.2732 -0.7694
50025SOL    HW257316  10.588   3.877  10.067 -1.6879  5.2966  0.0552
50026SOL     OW57317   9.616   4.104  12.062  0.2538 -0.5541 -0.0172
50026SOL    HW157318   9.565   4.184  12.075  0.8370 -0.0843 -0.5357
50026SOL    HW257319   9.579   4.064  11.983  0.6787 -0.2153 -0.3906
50027SOL     OW57320   6.666   3.557   3.164  0.0456 -0.4371 -0.3972
50027SOL    HW157321   6.591   3.591   3.212 -1.2558  2.0270 -3.7874
50027SOL    HW257322   6.742   3.592   3.210 -0.8738 -1.5354  2.1019
50028SOL     OW57323   7.926   8.054   4.917 -0.2987  0.1354  0.4608
50028SOL    HW157324   8.015   8.018   4.925  0.0250  0.2291 -2.0450
50028SOL    HW257325   7.871   7.977   4.904 -0.2601  0.2183 -0.2167
50029SOL     OW57326  11.739   3.494   5.820  0.0113  0.2229  0.1078
50029SOL    HW157327  11.830   3.463   5.814 -0.0371  0.3677 -2.0889
50029SOL    HW257328  11.717   3.521   5.731 -1.9897  0.8206  0.7358
50030SOL     OW57329  12.328   5.038  12.536 -0.0871 -0.3089  0.4349
50030SOL    HW157330  12.292   5.116  12.495 -0.5564  1.4298  3.8265
50030SOL    HW257331  12.355   5.066  12.623  2.8170 -3.2236  0.6940
50031SOL     OW57332   6.386   7.441   5.887  0.0386  0.3890  0.2232
50031SOL    HW157333   6.293   7.441   5.908  0.6491 -0.2636  3.5170
50031SOL    HW257334   6.411   7.533   5.886 -0.5638  0.5462 -0.2505
50032SOL     OW57335   3.867  11.359  11.896 -0.5067  0.0967 -0.1507
50032SOL    HW157336   3.937  11.294  11.908 -1.1047 -0.4717  0.3407
50032SOL    HW257337   3.890  11.431  11.954 -0.4528 -0.1944  0.1898
50033SOL     OW57338   0.664   2.520  12.399 -0.3260  0.2725 -0.6160
50033SOL    HW157339   0.759   2.525  12.406 -0.2910  0.6013 -1.2897
50033SOL    HW257340   0.641   2.439  12.444  0.4034 -0.5187 -1.6472
50034SOL     OW57341   0.788   7.849   3.205 -0.1654 -0.0172  0.0555
50034SOL    HW157342   0.731   7.869   3.279  1.6831 -0.0299  1.5479
50034SOL    HW257343   0.732   7.863   3.128 -1.9977  0.4993  1.3978
50035SOL     OW57344   6.128   5.181   2.186  0.3818  0.0532 -0.0955
50035SOL    HW157345   6.039   5.173   2.151  0.2889 -1.4088  0.4192
50035SOL    HW257346   6.182   5.131   2.124  0.5092 -0.8852  0.7528
50036SOL     OW57347   5.702  10.142  11.950  0.2124 -0.3205 -0.3499
50036SOL    HW157348   5.785  10.131  11.904  1.1636 -0.3228  1.2919
50036SOL    HW257349   5.668  10.053  11.960  0.0067 -0.3212 -1.0116
50037SOL     OW57350   6.822   3.195   3.706 -0.3084 -0.1639 -0.1448
50037SOL    HW157351   6.728   3.178   3.710 -0.2994 -0.5227 -1.2107
50037SOL    HW257352   6.835   3.239   3.622  0.1001  2.5318  1.2295
50038SOL     OW57353   2.423   8.843   5.591 -0.5332  0.0516  0.1221
50038SOL    HW157354   2.410   8.757   5.551 -1.1930  0.6226 -0.9374
50038SOL    HW257355   2.371   8.903   5.538 -0.1077  1.1165  0.8539
50039SOL     OW57356  11.513   0.245   9.271  0.7880  0.6488 -0.0731
50039SOL    HW157357  11.597   0.272   9.308  0.3478  1.0747  0.6283
50039SOL    HW257358  11.532   0.231   9.178  1.4549  1.5553 -0.0944
50040SOL     OW57359   2.681   6.487  12.703  0.7537 -0.0742  0.3429
50040SOL    HW157360   2.671   6.501  12.797 -0.3880 -0.0635  0.2338
50040SOL    HW257361   2.666   6.394  12.691  3.0613 -0.5162  0.4084
50041SOL     OW57362   3.592   9.546   5.417  0.3735 -0.0523  0.2811
50041SOL    HW157363   3.642   9.575   5.494  0.2196 -1.2131  0.8351
50041SOL    HW257364   3.513   9.507   5.454  1.0776 -2.2109 -0.3427
50042SOL     OW57365  10.273   4.918   5.618  0.4489 -0.1693  0.2568
50042SOL    HW157366  10.302   4.952   5.534 -1.3057 -1.1008 -0.7699
50042SOL    HW257367  10.259   4.995   5.672 -0.1898  0.5591 -0.9168
50043SOL     OW57368   5.234   5.065  12.007 -0.1954 -0.5080 -0.1897
50043SOL    HW157369   5.236   5.076  12.102  0.8089  2.0957 -0.4450
50043SOL    HW257370   5.274   4.978  11.993  0.7343 -0.4537  1.7114
50044SOL     OW57371   6.486   4.402   5.626 -0.3446 -0.1755 -0.2669
50044SOL    HW157372   6.568   4.448   5.611  1.0838 -2.5167 -0.0346
50044SOL    HW257373   6.485   4.332   5.560 -1.0071 -1.6016  1.1926
50045SOL     OW57374   7.137   5.195   9.230 -0.2794 -0.3844  0.6606
50045SOL    HW157375   7.111   5.250   9.156 -0.6901  0.2125  1.2290
50045SOL    HW257376   7.123   5.105   9.201  0.2386 -0.1879 -0.2266
50046SOL     OW57377   7.079   5.903   6.795  0.3654 -0.8683  0.0233
50046SOL    HW157378   7.063   5.905   6.701 -0.5023  0.7805  0.1721
50046SOL    HW257379   6.993   5.918   6.835  1.0268  0.6229  1.0092
50047SOL     OW57380  11.944   3.259   3.060 -0.0779 -0.0058  0.4443
50047SOL    HW157381  11.911   3.169   3.062 -0.6382  0.2098  1.2045
50047SOL    HW257382  11.979   3.273   3.148  0.5231  0.3346  0.1555
50048SOL     OW57383   9.732   3.417   8.960  0.2958  0.3521 -0.4121
50048SOL    HW157384   9.815   3.447   8.923 -0.0012  1.7999  0.0154
50048SOL    HW257385   9.737   3.438   9.053 -0.8205  1.1622 -0.5071
50049SOL     OW57386  10.312   7.226  12.176 -0.0225  0.1478  0.1429
50049SOL    HW157387  10.368   7.297  12.145 -0.4649  0.3844 -0.1218
50049SOL    HW257388  10.225   7.250  12.147 -0.3964  0.1924  1.2539
50050SOL     OW57389   5.064  10.028   1.532 -0.2217 -0.2450 -0.2586
50050SOL    HW157390   5.147   9.999   1.570 -1.8178 -0.7127  3.2690
50050SOL    HW257391   5.052   9.972   1.456  0.9271 -2.9412  1.3909
50051SOL     OW57392   9.711   2.818   9.376 -0.4567  0.1905  0.0401
50051SOL    HW157393   9.699   2.755   9.448 -1.4831  0.3532  0.0245
50051SOL    HW257394   9.734   2.899   9.420 -0.9865  0.2652  0.1846
50052SOL     OW57395   7.405   1.654   9.059 -0.0188  0.0158 -0.1869
50052SOL    HW157396   7.484   1.652   9.005  0.5511  1.8548  0.5070
50052SOL    HW257397   7.430   1.611   9.140  0.1270  0.1538 -0.1573
50053SOL     OW57398   5.405   8.240  10.708 -0.1809 -0.8848 -0.2709
50053SOL    HW157399   5.462   8.173  10.747 -0.2403 -3.0560 -3.5085
50053SOL    HW257400   5.317   8.204  10.716 -0.4518 -0.2564 -0.3764
50054SOL     OW57401   3.727  11.963   9.298  0.3642 -0.1389  0.1651
50054SOL    HW157402   3.816  11.992   9.275  0.0746  0.9108  0.2897
50054SOL    HW257403   3.718  11.985   9.391  1.0219 -3.0416  1.0178
50055SOL     OW57404   3.121   1.639   9.407  0.2864 -0.0248  0.2866
50055SOL    HW157405   3.031   1.611   9.427  1.1237 -1.5146  2.3268
50055SOL    HW257406   3.142   1.594   9.325 -0.9692  0.7264 -0.4793
50056SOL     OW57407   1.648   9.126   8.735 -0.4990 -0.0277  0.2976
50056SOL    HW157408   1.558   9.156   8.738  0.1052  1.8464  1.8450
50056SOL    HW257409   1.684   9.147   8.822  1.8546  0.7868 -0.7722
50057SOL     OW57410  12.642   1.261   7.817 -0.2260 -0.3221  0.1897
50057SOL    HW157411  12.622   1.175   7.778  1.3183 -1.2109  1.2695
50057SOL    HW257412  12.609   1.256   7.906  0.3277  0.0168  0.4197
50058SOL     OW57413   1.348   6.563   6.248 -0.7533 -0.0122  0.3156
50058SOL    HW157414   1.309   6.649   6.265  1.2540  0.5707  2.5745
50058SOL    HW257415   1.427   6.562   6.302  0.8907 -2.1530 -1.8846
50059SOL     OW57416   1.107   6.692   2.217  0.1960  0.0586  0.2309
50059SOL    HW157417   1.153   6.764   2.173  2.1714 -0.3372  1.5077
50059SOL    HW257418   1.018   6.694   2.181  0.1914  3.0958  0.2030
50060SOL     OW57419   5.054   9.543   4.572  0.2698 -0.0162  0.5212
50060SOL    HW157420   5.051   9.562   4.666  0.6761 -2.0388  0.9900
50060SOL    HW257421   5.147   9.537   4.552  0.1754 -0.2627  0.1500
50061SOL     OW57422   6.317  12.224   0.810  0.1222  0.7487  0.1742
50061SOL    HW157423   6.253  12.170   0.856 -1.5088  0.9635 -1.6783
50061SOL    HW257424   6.297  12.314   0.836 -0.5163  0.8339 -0.5603
50062SOL     OW57425  11.120  12.234  11.163 -0.4003 -0.6107  0.5130
50062SOL    HW157426  11.167  12.179  11.101  1.7635  0.2046  1.3230
50062SOL    HW257427  11.090  12.173  11.231  0.4928 -1.0314  0.5443
50063SOL     OW57428   4.737   9.599   2.979  0.4572 -0.4817  0.8094
50063SOL    HW157429   4.643   9.617   2.970  0.5602  0.4370  1.3917
50063SOL    HW257430   4.779   9.681   2.955  1.0954 -0.7746  0.9211
50064SOL     OW57431   9.533   4.939   9.591 -0.5309 -0.5200  0.2912
50064SOL    HW157432   9.526   5.029   9.623  1.1632 -0.1529 -0.2909
50064SOL    HW257433   9.454   4.926   9.538 -0.8226  0.6007  0.4308
50065SOL     OW57434   4.211   5.229  11.877  0.1168 -0.4750 -0.4348
50065SOL    HW157435   4.226   5.264  11.789  0.3341 -0.7226 -0.4968
50065SOL    HW257436   4.206   5.134  11.864 -1.0314 -0.4436 -0.3521
50066SOL     OW57437   1.159   1.474   5.377  0.0974  0.2894  0.6377
50066SOL    HW157438   1.093   1.410   5.352  1.2538 -0.6917  0.0331
50066SOL    HW257439   1.189   1.445   5.463  1.7127 -0.9299 -0.2833
50067SOL     OW57440   8.042  10.723  10.065 -0.0693  0.3202  1.0395
50067SOL    HW157441   8.055  10.790  10.133 -0.5733  0.0081  1.4533
50067SOL    HW257442   8.130  10.703  10.034  0.0956  1.0851  1.0020
50068SOL     OW57443   3.120   0.592  11.866 -0.5177 -0.6474  0.6923
50068SOL    HW157444   3.034   0.596  11.907 -0.1643 -1.0910  1.4955
50068SOL    HW257445   3.177   0.643  11.924 -0.6469  1.5759 -0.9699
50069SOL     OW57446   7.249   2.715   0.846  0.1477  0.5794  0.6571
50069SOL    HW157447   7.305   2.637   0.838 -1.1748 -0.3407 -0.1015
50069SOL    HW257448   7.164   2.680   0.871 -1.3665  1.3947 -2.8602
50070SOL     OW57449   4.617   7.972  12.120  0.2365  0.3063  0.0870
50070SOL    HW157450   4.619   7.959  12.025  0.0166 -4.4181  0.5036
50070SOL    HW257451   4.539   7.926  12.149  1.3219 -0.0615  2.7350
50071SOL     OW57452   3.342   9.800   2.963  0.1851  0.4167 -0.2656
50071SOL    HW157453   3.255   9.795   3.004  0.2727 -1.6210 -0.2248
50071SOL    HW257454   3.323   9.801   2.869  0.1093  0.2504 -0.2525
50072SOL     OW57455   4.845   6.575   2.480  0.4267 -0.7200 -0.0493
50072SOL    HW157456   4.808   6.608   2.561  2.6368  1.4151  0.2226
50072SOL    HW257457   4.933   6.544   2.504  1.1673  0.0555 -1.6123
50073SOL     OW57458   8.884   1.275  10.916  0.1243  0.7414  0.0916
50073SOL    HW157459   8.928   1.276  10.831 -0.8886  0.7651 -0.4475
50073SOL    HW257460   8.955   1.263  10.980  0.8557  0.3061 -0.7785
50074SOL     OW57461   0.733   5.229   6.370 -0.5281  0.1035 -0.3702
50074SOL    HW157462   0.768   5.170   6.303  0.1134  1.1981 -1.0278
50074SOL    HW257463   0.686   5.296   6.322  0.8798  1.5399  0.1546
50075SOL     OW57464   4.668   2.778   0.853 -0.0005 -0.1938  0.2523
50075SOL    HW157465   4.590   2.803   0.903 -0.7063  0.9386 -1.3157
50075SOL    HW257466   4.633   2.726   0.780  0.7571  0.0145 -0.2621
50076SOL     OW57467   5.184   0.106   2.352  0.7451 -0.7538 -0.4071
50076SOL    HW157468   5.187   0.141   2.262 -0.3766 -1.5474 -0.7834
50076SOL    HW257469   5.091   0.111   2.375  1.1460  0.4013  1.1307
50077SOL     OW57470   2.185   9.112  10.933 -0.2967  0.0919  0.7041
50077SOL    HW157471   2.225   9.031  10.900 -0.1674  0.5752 -0.3311
50077SOL    HW257472   2.179   9.098  11.028  1.0299 -0.5593  0.7087
50078SOL     OW57473  10.685   8.986  10.016 -0.0958 -0.4974 -0.0007
50078SOL    HW157474  10.602   8.958   9.976 -0.1391 -0.1327 -0.1614
50078SOL    HW257475  10.717   9.056   9.960  0.3532 -0.6730  0.0325
50079SOL     OW57476   9.122   1.461   2.454 -0.1928 -0.2753 -0.4214
50079SOL    HW157477   9.101   1.469   2.361  1.0961  1.1687 -0.6280
50079SOL    HW257478   9.089   1.374   2.479 -0.8618 -0.5436 -2.1278
50080SOL     OW57479   8.121  10.441   7.305 -0.2822  0.1406  0.2032
50080SOL    HW157480   8.060  10.498   7.352  0.1153  0.6938  0.0704
50080SOL    HW257481   8.187  10.501   7.270  0.0615 -0.3903 -0.0780
50081SOL     OW57482   4.219   1.818  10.216 -0.0480 -0.5177  0.3580
50081SOL    HW157483   4.241   1.725  10.227 -0.5256 -0.7631 -0.6139
50081SOL    HW257484   4.167   1.820  10.136 -1.3471  0.3942  1.1990
50082SOL     OW57485   7.052  11.368  10.787 -0.0605  0.4159 -0.5310
50082SOL    HW157486   7.011  11.427  10.850 -0.0879  1.0990 -1.1746
50082SOL    HW257487   7.123  11.325  10.835  1.4355  2.6315 -0.6085
50083SOL     OW57488   7.271   1.492   7.252 -0.0060 -0.2032 -0.1459
50083SOL    HW157489   7.320   1.574   7.252  0.1402 -0.2894  0.2074
50083SOL    HW257490   7.189   1.513   7.297 -0.0095 -0.2259 -0.1413
50084SOL     OW57491   1.637   2.615   8.052 -0.9194  0.4581  0.5864
50084SOL    HW157492   1.621   2.601   7.959 -1.4005  0.0642  0.7191
50084SOL    HW257493   1.641   2.527   8.089  0.6149  0.5624  0.7382
50085SOL     OW57494   9.584   2.491   8.023 -0.0810 -0.0861 -0.3350
50085SOL    HW157495   9.657   2.521   7.968  0.8719 -2.0522 -0.2358
50085SOL    HW257496   9.610   2.517   8.112  0.6598 -1.0242 -0.2642
50086SOL     OW57497   2.928   4.219  11.630 -0.5349 -0.1483 -0.5552
50086SOL    HW157498   2.942   4.203  11.536  1.6558  0.3880 -0.3713
50086SOL    HW257499   2.872   4.146  11.658  1.3633 -2.1571 -1.6599
50087SOL     OW57500   6.360   8.376   0.450 -0.1542  0.6454  0.1995
50087SOL    HW157501   6.433   8.316   0.434 -0.5785  0.2551 -0.2699
50087SOL    HW257502   6.380   8.415   0.535  0.0434 -0.2584  0.5688
50088SOL     OW57503   5.041  12.154   0.830 -0.4405 -0.0260  0.1756
50088SOL    HW157504   4.994  12.088   0.881  1.7621 -0.3709  1.9013
50088SOL    HW257505   5.052  12.227   0.891  2.6482 -0.6169  0.4827
50089SOL     OW57506  10.881   6.660   2.818  0.8067 -0.2294 -0.3003
50089SOL    HW157507  10.959   6.634   2.770  1.8934  1.8193  0.2489
50089SOL    HW257508  10.902   6.746   2.855 -2.0754  0.9242 -1.0322
50090SOL     OW57509   1.553   3.559   8.699  0.2062  0.4315  0.2263
50090SOL    HW157510   1.478   3.528   8.750 -0.6699  1.6252 -0.2720
50090SOL    HW257511   1.603   3.479   8.679 -1.6450 -0.6071 -0.5456
50091SOL     OW57512   7.807   7.886  12.460  0.2052  0.4755  0.1902
50091SOL    HW157513   7.712   7.887  12.465  0.2309  1.1014  0.7878
50091SOL    HW257514   7.836   7.932  12.539  1.0439 -0.8664  0.6945
50092SOL     OW57515   7.482   1.313   4.774 -0.0229  0.3307 -0.6635
50092SOL    HW157516   7.528   1.286   4.854 -0.7645  0.8212 -0.0508
50092SOL    HW257517   7.406   1.255   4.770 -0.5737  1.0155 -0.4071
50093SOL     OW57518  12.645   4.541   7.750 -0.1616 -0.3479 -0.3520
50093SOL    HW157519  12.674   4.629   7.726  1.3337 -0.4521  0.8992
50093SOL    HW257520  12.578   4.555   7.816 -0.4683 -0.1362 -0.7086
50094SOL     OW57521   0.862  10.191   7.377 -0.2342 -0.6440 -0.9591
50094SOL    HW157522   0.880  10.281   7.405  1.3677 -1.2964  0.2037
50094SOL    HW257523   0.773  10.174   7.408 -0.0808  0.1178 -0.0629
50095SOL     OW57524   7.044   7.544   3.246 -0.4625  0.0592 -0.2033
50095SOL    HW157525   7.015   7.523   3.158  0.5493  0.5767 -0.6750
50095SOL    HW257526   7.120   7.487   3.260 -0.6148 -0.0182  0.3390
50096SOL     OW57527   0.145   8.752   9.746  0.3437  0.2208  0.2922
50096SOL    HW157528   0.232   8.788   9.726  0.1660  0.9615  0.8447
50096SOL    HW257529   0.119   8.796   9.827 -0.4644 -0.1501  0.2352
50097SOL     OW57530   0.606  11.454  12.396  0.0096 -0.4894  0.4509
50097SOL    HW157531   0.632  11.398  12.469  3.9186 -0.2815 -0.5723
50097SOL    HW257532   0.615  11.543  12.430 -2.3875 -0.3296  0.8785
50098SOL     OW57533   5.928   3.593   4.426  0.5197 -0.0802  0.0497
50098SOL    HW157534   5.894   3.524   4.369  1.1896 -1.0616  0.7991
50098SOL    HW257535   5.851   3.623   4.475  0.1553 -0.0266 -0.5441
50099SOL     OW57536   3.766  12.393   1.953 -0.1396  0.0957  0.5630
50099SOL    HW157537   3.715  12.358   1.880  0.2149  0.3386  0.2017
50099SOL    HW257538   3.751  12.487   1.951  1.1799  0.3048 -0.2086
50100SOL     OW57539   9.007   1.079   6.540 -0.2809  0.3098 -0.3008
50100SOL    HW157540   9.018   1.163   6.495 -0.5268  0.3601 -0.2638
50100SOL    HW257541   9.048   1.092   6.625  1.2414 -0.1427 -0.9267
50101SOL     OW57542   4.830   8.717   1.517 -0.2391  0.1715 -0.4384
50101SOL    HW157543   4.735   8.732   1.524 -0.6813 -0.4726 -3.4083
50101SOL    HW257544   4.854   8.759   1.434  2.3496  1.2667  0.7544
50102SOL     OW57545   0.337  11.878   4.093  0.0532 -0.4129 -0.7872
50102SOL    HW157546   0.308  11.848   4.179  0.1734  1.1158 -0.1905
50102SOL    HW257547   0.421  11.921   4.109 -1.6598  3.3490 -0.9200
50103SOL     OW57548   2.624   6.954   0.739 -0.2683 -0.2240 -0.1544
50103SOL    HW157549   2.661   6.962   0.651 -0.9830  1.2366 -0.3538
50103SOL    HW257550   2.585   7.039   0.756  1.1881  0.0417  2.2148
50104SOL     OW57551   0.926   4.246   4.570 -0.5041  1.0746 -0.1814
50104SOL    HW157552   0.839   4.267   4.535 -1.9480 -1.0722  1.8309
50104SOL    HW257553   0.935   4.305   4.646 -1.1269 -0.0405  0.7899
50105SOL     OW57554   6.207   7.063  11.206 -0.4005 -0.0118 -0.2845
50105SOL    HW157555   6.283   7.006  11.193 -1.7293 -1.8382 -0.4277
50105SOL    HW257556   6.222   7.104  11.291 -0.1002 -1.7630  0.5492
50106SOL     OW57557   5.226   6.070   9.305  0.3790  0.2413  0.5035
50106SOL    HW157558   5.282   5.994   9.289  0.7209  0.5464  0.2392
50106SOL    HW257559   5.146   6.051   9.256  1.8493  1.7028 -2.7395
50107SOL     OW57560  11.552   2.278   4.949  0.2071 -0.5590  0.2389
50107SOL    HW157561  11.521   2.330   4.875 -1.7924 -0.0086  1.3952
50107SOL    HW257562  11.643   2.258   4.927  0.8852  2.7745 -0.6445
50108SOL     OW57563   4.340   5.142   2.651  0.0163  0.1855 -0.1235
50108SOL    HW157564   4.400   5.144   2.726 -1.1336 -0.0169  0.8304
50108SOL    HW257565   4.393   5.106   2.580  1.7697  2.3264 -0.0320
50109SOL     OW57566   0.718   4.734   3.418  0.0248 -0.2148 -0.0929
50109SOL    HW157567   0.674   4.659   3.459  1.0773 -1.3343 -0.9300
50109SOL    HW257568   0.672   4.746   3.335  0.6651 -0.7708 -0.5365
50110SOL     OW57569   4.601   6.570   8.980  0.6794 -0.2625  0.2463
50110SOL    HW157570   4.623   6.484   9.015 -1.3053 -0.5660  0.8865
50110SOL    HW257571   4.680   6.622   8.991  1.5421 -1.6731  0.9197
50111SOL     OW57572  11.833   5.324   4.905  0.1821  0.4025  0.2100
50111SOL    HW157573  11.798   5.336   4.817 -0.1843 -0.2385  0.2654
50111SOL    HW257574  11.755   5.310   4.960  0.1276  3.5675  1.1473
50112SOL     OW57575  10.109   0.122   6.558 -0.3785  0.4429  0.2497
50112SOL    HW157576  10.125   0.104   6.465 -1.1202 -1.7556  0.4925
50112SOL    HW257577  10.045   0.193   6.558  0.3523  1.1287 -0.8951
50113SOL     OW57578   5.036   7.805   2.699 -0.1348  0.1743  0.4971
50113SOL    HW157579   4.980   7.770   2.629 -0.6893  0.8236  0.6059
50113SOL    HW257580   5.112   7.746   2.701 -0.0943  0.1669 -0.6755
50114SOL     OW57581  11.903   5.490   1.763  0.1078 -0.3815  0.2780
50114SOL    HW157582  11.991   5.458   1.746 -0.3278 -1.1584 -0.6092
50114SOL    HW257583  11.892   5.481   1.858  0.9121 -0.4634  0.3668
50115SOL     OW57584   5.729  11.318   0.443 -0.5473 -0.1189  0.2088
50115SOL    HW157585   5.734  11.222   0.443  1.0860 -0.0590  0.4872
50115SOL    HW257586   5.738  11.343   0.351 -0.4179 -0.2085  0.1974
50116SOL     OW57587   3.070   6.580   9.845 -0.4527  0.1800  0.1756
50116SOL    HW157588   3.010   6.562   9.773  0.1238  0.0608 -0.2821
50116SOL    HW257589   3.097   6.671   9.831 -0.0435  0.0367  0.0145
50117SOL     OW57590   0.054   0.362   8.264 -0.5870  0.2874 -0.2113
50117SOL    HW157591  -0.040   0.360   8.278 -0.5704  1.0672  0.0963
50117SOL    HW257592   0.076   0.277   8.226 -1.2636 -0.2678  0.6346
50118SOL     OW57593   1.139  10.336   0.768  0.5826  0.1593  0.6009
50118SOL    HW157594   1.230  10.366   0.765  1.2669 -1.7271  1.0910
50118SOL    HW257595   1.127  10.304   0.857 -0.5392  0.2642  0.4990
50119SOL     OW57596  11.062  10.831   8.948  0.5850 -0.0105  0.7669
50119SOL    HW157597  11.147  10.798   8.917  0.0214  0.0185 -0.9050
50119SOL    HW257598  11.021  10.755   8.990  0.6621 -0.5734 -0.1360
50120SOL     OW57599   7.738   2.546   8.184  0.5078  0.3657  0.2546
50120SOL    HW157600   7.666   2.567   8.126  1.5592  1.8297 -0.5829
50120SOL    HW257601   7.697   2.510   8.262 -1.1799  2.1527  0.2436
50121SOL     OW57602   0.879  10.873   3.187 -0.1497  0.0449 -0.4938
50121SOL    HW157603   0.963  10.852   3.146  0.2077  0.5485 -0.0489
50121SOL    HW257604   0.904  10.920   3.267 -0.8880  1.6403 -1.1730
50122SOL     OW57605   5.639   4.474   6.504 -0.0112 -0.6417  0.4304
50122SOL    HW157606   5.586   4.415   6.450 -0.4915 -0.2655  0.4787
50122SOL    HW257607   5.652   4.551   6.449 -0.5547 -0.2312  0.8734
50123SOL     OW57608   8.368   8.609  11.017 -0.5408  0.2413 -0.0752
50123SOL    HW157609   8.390   8.603  11.110 -0.0103  0.0207 -0.2129
50123SOL    HW257610   8.448   8.584  10.971 -0.8489  0.1803 -0.5940
50124SOL     OW57611   4.129   5.836   8.592 -0.3980  0.6550 -0.0976
50124SOL    HW157612   4.224   5.822   8.598 -0.4649  0.6445  1.1833
50124SOL    HW257613   4.115   5.921   8.634 -0.9720  0.5832 -0.1452
50125SOL     OW57614   0.316   2.940  10.910  0.0855  0.1149  0.8432
50125SOL    HW157615   0.358   2.993  10.977  3.4428 -0.4225 -0.6079
50125SOL    HW257616   0.383   2.875  10.886 -1.7117 -0.9942 -1.5533
50126SOL     OW57617  11.219  10.901  12.679  0.0931  0.1056 -0.2328
50126SOL    HW157618  11.266  10.837  12.626 -0.6935  0.5299 -1.4724
50126SOL    HW257619  11.217  10.863  12.767 -0.1022 -1.4191 -0.8767
50127SOL     OW57620   7.792   4.972   9.791  0.3201  0.2048 -0.0875
50127SOL    HW157621   7.870   5.025   9.779  0.1098  1.0185  1.8212
50127SOL    HW257622   7.795   4.945   9.882 -1.2150 -0.4262 -0.1949
50128SOL     OW57623   9.312  12.094   9.438 -0.3566  0.2526  0.3376
50128SOL    HW157624   9.304  11.999   9.441  0.5436  0.1120 -1.0240
50128SOL    HW257625   9.234  12.123   9.391 -1.0979  0.2905  1.5425
50129SOL     OW57626   6.717   3.224   0.363 -0.2289  0.2675  0.4036
50129SOL    HW157627   6.751   3.169   0.293 -0.4052 -0.0397  0.5591
50129SOL    HW257628   6.705   3.310   0.322  2.7438  1.0088  0.8292
50130SOL     OW57629   4.995  11.311   8.604  0.3071  0.2725  0.2764
50130SOL    HW157630   5.003  11.369   8.529  0.4870 -0.5477 -0.3504
50130SOL    HW257631   5.028  11.226   8.573 -0.4857 -0.3190  0.9861
50131SOL     OW57632   1.407   9.828   7.576 -0.1290  0.0246 -0.2927
50131SOL    HW157633   1.321   9.850   7.612  0.3891 -2.6163  3.1675
50131SOL    HW257634   1.396   9.738   7.544  1.2157 -0.1542 -0.2925
50132SOL     OW57635   4.775   4.260   1.790 -0.3478 -0.7999  0.4964
50132SOL    HW157636   4.754   4.312   1.868  1.1702 -0.1235  0.4788
50132SOL    HW257637   4.711   4.289   1.724 -0.9663 -0.6206  1.1586
50133SOL     OW57638   8.851   4.970   6.879 -0.6270  0.1175 -0.1592
50133SOL    HW157639   8.813   4.925   6.804  0.9832 -2.4233  0.4201
50133SOL    HW257640   8.944   4.977   6.858 -0.5278  1.5080  0.6281
50134SOL     OW57641   2.368   1.903   9.806  0.2988  0.4177 -1.1072
50134SOL    HW157642   2.383   1.983   9.755  0.9372  1.2443  0.3215
50134SOL    HW257643   2.354   1.835   9.740  2.0807  1.2529 -2.4268
50135SOL     OW57644   7.824  12.647   3.905  0.2143  0.5571  0.1542
50135SOL    HW157645   7.917  12.626   3.919 -0.0224  0.1164  1.1743
50135SOL    HW257646   7.813  12.642   3.810  1.9491  3.7443 -0.3643
50136SOL     OW57647   6.767   6.322   7.723 -0.0720 -0.1638 -1.0414
50136SOL    HW157648   6.782   6.313   7.817  1.1523  1.7705 -1.0107
50136SOL    HW257649   6.823   6.254   7.684  1.6546  0.8481 -0.4575
50137SOL     OW57650   4.470  11.196   5.199  0.3549  0.3255 -0.1497
50137SOL    HW157651   4.399  11.137   5.225  0.5078 -0.6606 -1.8050
50137SOL    HW257652   4.437  11.284   5.218 -0.8771 -0.1699  0.1009
50138SOL     OW57653   5.604   0.968   6.074  0.6704 -0.4271 -0.0411
50138SOL    HW157654   5.697   0.967   6.052  1.0173  2.9257  0.7548
50138SOL    HW257655   5.601   0.995   6.166 -1.0639  0.8646 -0.4145
50139SOL     OW57656  11.323   6.435   5.194  0.5396  0.5703 -0.3346
50139SOL    HW157657  11.385   6.507   5.206  0.1192  0.8697  0.0644
50139SOL    HW257658  11.237   6.473   5.213  0.4896 -0.5535  2.2237
50140SOL     OW57659   2.137   0.784  11.997 -0.2665  0.3638 -0.2433
50140SOL    HW157660   2.146   0.724  12.071  2.7514  0.6577 -0.2215
50140SOL    HW257661   2.095   0.862  12.034  0.5222  0.2158  1.0460
50141SOL     OW57662   7.132   5.734   8.747  0.1263 -0.0435  0.3736
50141SOL    HW157663   7.154   5.641   8.754  1.1458  0.0746 -0.8179
50141SOL    HW257664   7.199   5.779   8.798 -0.2274  0.0598  0.7532
50142SOL     OW57665  12.228   0.144   8.149 -0.0524  0.1864 -0.3534
50142SOL    HW157666  12.144   0.097   8.150 -1.1747  1.9336 -2.3990
50142SOL    HW257667  12.241   0.166   8.056  1.8276  1.4437  0.1572
50143SOL     OW57668  11.477   3.556   0.623  0.1612  0.0189 -0.2971
50143SOL    HW157669  11.386   3.545   0.650 -0.2180 -0.5860 -1.7458
50143SOL    HW257670  11.526   3.495   0.678 -0.8229 -2.5496 -2.1109
50144SOL     OW57671   7.273  11.154  10.881  0.6633 -0.2686 -0.2773
50144SOL    HW157672   7.278  11.119  10.970  0.6333 -0.5914 -0.4012
50144SOL    HW257673   7.259  11.077  10.825 -1.0451  0.0848 -0.4016
50145SOL     OW57674   7.504   4.810  11.544 -0.0768 -0.1900  0.5387
50145SOL    HW157675   7.464   4.732  11.506 -1.7597  0.9157 -0.0906
50145SOL    HW257676   7.468   4.815  11.632  0.2872 -0.3066  0.6937
50146SOL     OW57677   7.222   0.914   4.297  0.5383 -0.5069 -0.2106
50146SOL    HW157678   7.205   0.851   4.367 -1.1133 -1.2019 -1.1744
50146SOL    HW257679   7.167   0.884   4.224 -0.4002  2.0748 -0.6777
50147SOL     OW57680   5.494   4.855   8.501 -0.0704  0.3423  0.5980
50147SOL    HW157681   5.472   4.762   8.511  1.1283 -0.0462 -0.1666
50147SOL    HW257682   5.568   4.868   8.561 -0.1040  0.7467  0.5522
50148SOL     OW57683   2.322   8.124   8.449  0.2269 -0.3965  0.9479
50148SOL    HW157684   2.414   8.140   8.471  0.2076  0.5124  0.4168
50148SOL    HW257685   2.292   8.207   8.412 -0.0693 -1.5024 -1.4236
50149SOL     OW57686   1.719   7.237   0.989  0.4072 -0.1086  0.1841
50149SOL    HW157687   1.641   7.212   1.039  0.0956 -1.2384 -0.8291
50149SOL    HW257688   1.694   7.319   0.946  0.0279 -0.0918  0.4287
50150SOL     OW57689  11.843   4.419   2.959  0.3110  0.3869 -0.1882
50150SOL    HW157690  11.894   4.405   3.039 -0.8564  1.4084  0.7770
50150SOL    HW257691  11.855   4.338   2.909 -0.4535 -1.0970  1.8898
50151SOL     OW57692   8.241   7.637   6.247  0.3424 -0.1357  0.3587
50151SOL    HW157693   8.324   7.591   6.237 -1.6129 -3.7683 -1.0543
50151SOL    HW257694   8.211   7.615   6.335 -1.0368 -2.6421 -0.6442
50152SOL     OW57695   4.747  10.576   4.452 -0.0946 -0.1173  0.7677
50152SOL    HW157696   4.725  10.616   4.536  0.7066  0.4382  0.7218
50152SOL    HW257697   4.679  10.510   4.439 -0.8195  0.4946  1.3507
50153SOL     OW57698   4.073  12.173   4.119 -0.2257  0.0606  0.4389
50153SOL    HW157699   4.122  12.233   4.062 -0.3883  0.4347  0.6887
50153SOL    HW257700   4.092  12.204   4.208  0.2932 -0.7225  0.6160
50154SOL     OW57701   2.466   3.931  11.982  0.5622 -0.3183 -0.1019
50154SOL    HW157702   2.379   3.933  12.022  0.4393 -1.2277 -0.3061
50154SOL    HW257703   2.471   3.845  11.940  1.1407  0.1392 -1.0183
50155SOL     OW57704  12.301   3.955  10.751 -0.3534 -0.6268  0.1413
50155SOL    HW157705  12.378   3.917  10.710  0.3227 -0.8694  1.5802
50155SOL    HW257706  12.292   4.041  10.710  1.7620  0.1610  1.1877
50156SOL     OW57707   3.823   8.602   2.181 -0.0842  0.3629  0.0192
50156SOL    HW157708   3.883   8.668   2.148 -1.1882  1.6259  0.4158
50156SOL    HW257709   3.807   8.545   2.106 -0.5558  1.6658 -0.9168
50157SOL     OW57710   2.848  10.389   6.276  0.6872  0.0887 -0.5181
50157SOL    HW157711   2.842  10.397   6.181  0.2575  0.0601 -0.4957
50157SOL    HW257712   2.942  10.379   6.293  0.9160  1.5159 -0.8235
50158SOL     OW57713   5.875   2.572   3.122 -0.7089 -0.1794 -0.6197
50158SOL    HW157714   5.902   2.663   3.124  1.6137 -0.7970  1.6154
50158SOL    HW257715   5.817   2.562   3.198  0.4607 -0.8944  0.2083
50159SOL     OW57716   6.425   0.738   7.337  0.2732  0.0416 -0.2020
50159SOL    HW157717   6.417   0.737   7.242  0.1387  0.1241 -0.1914
50159SOL    HW257718   6.476   0.660   7.358  0.3478  0.0531 -0.3463
50160SOL     OW57719   3.687   6.285   4.660 -0.4037  0.0523  0.2651
50160SOL    HW157720   3.652   6.270   4.748  0.5695  1.3755  0.9123
50160SOL    HW257721   3.631   6.233   4.603 -1.9929  0.3221  1.4980
50161SOL     OW57722   8.219  11.126  12.041  0.1663 -0.0511 -0.1947
50161SOL    HW157723   8.188  11.087  11.959 -0.6664 -1.1464  0.6221
50161SOL    HW257724   8.261  11.054  12.088 -1.3347  0.0064  1.3132
50162SOL     OW57725   4.031   1.632   3.405 -0.5647  0.0714  0.0540
50162SOL    HW157726   3.987   1.712   3.374 -1.1366  0.4401  1.7250
50162SOL    HW257727   4.033   1.575   3.328 -1.5822  1.0767 -0.7617
50163SOL     OW57728   4.590   9.260   7.988  0.7702  1.0180  0.7758
50163SOL    HW157729   4.519   9.319   7.966  0.3788 -0.1478 -1.3346
50163SOL    HW257730   4.634   9.242   7.905 -0.5075 -3.3539  0.7910
50164SOL     OW57731   7.325   7.170   0.629 -0.3480 -0.0998  0.3792
50164SOL    HW157732   7.350   7.216   0.548 -0.1891 -0.8060  0.0199
50164SOL    HW257733   7.276   7.094   0.599 -1.6560  0.4592  1.0208
50165SOL     OW57734   1.067   6.166  11.602  0.1194  0.0347  0.1823
50165SOL    HW157735   1.118   6.224  11.658  1.7995 -1.0026 -0.1968
50165SOL    HW257736   1.074   6.205  11.514  1.8730 -1.0387 -0.2149
50166SOL     OW57737   4.412   6.240  10.695 -0.3844  0.7719 -0.2337
50166SOL    HW157738   4.477   6.308  10.677  0.4635  0.0350 -0.0479
50166SOL    HW257739   4.371   6.268  10.777 -0.1438  1.1304 -0.2324
50167SOL     OW57740   9.105   2.834   9.915  0.0763  0.3470 -0.1888
50167SOL    HW157741   9.112   2.885   9.996  3.4483  1.4074 -0.9833
50167SOL    HW257742   9.094   2.744   9.945  1.6097  0.6626  1.5442
50168SOL     OW57743  10.079   1.083   0.174 -0.0048 -0.1984 -0.7649
50168SOL    HW157744  10.067   1.162   0.226 -1.6010 -0.6640 -0.3979
50168SOL    HW257745  10.160   1.045   0.208 -0.3015  0.2113  0.4588
50169SOL     OW57746   0.748   5.680   4.958 -0.3767  0.1396 -0.1832
50169SOL    HW157747   0.783   5.748   4.901  0.3062  0.3241  0.4347
50169SOL    HW257748   0.794   5.600   4.931 -0.6116  0.0769 -0.3962
50170SOL     OW57749   0.081   8.167   0.409  0.4000 -0.5739 -0.5501
50170SOL    HW157750  -0.014   8.167   0.395  0.5066 -1.0826 -1.3304
50170SOL    HW257751   0.101   8.258   0.431 -0.3786 -0.6371  0.5025
50171SOL     OW57752   4.674   3.390   9.030  0.0977 -0.1494 -0.0176
50171SOL    HW157753   4.604   3.352   8.977 -0.2752  2.2424 -1.3940
50171SOL    HW257754   4.743   3.410   8.967  1.2481 -0.7004  1.0291
50172SOL     OW57755   8.903   5.254   7.184 -0.2789 -0.4771 -0.3941
50172SOL    HW157756   8.829   5.226   7.131  0.1463 -1.9449 -0.2526
50172SOL    HW257757   8.972   5.191   7.164  0.0168 -0.8680  1.6034
50173SOL     OW57758  10.198   2.970   1.895 -0.3023 -0.5577 -0.3987
50173SOL    HW157759  10.153   3.053   1.880 -1.9954 -1.6770 -1.9642
50173SOL    HW257760  10.258   2.961   1.821 -0.3045 -0.8137 -0.3722
50174SOL     OW57761   4.048   0.562   5.014  0.1876 -0.1001 -0.4192
50174SOL    HW157762   4.074   0.610   5.093  0.9708 -0.3427 -0.5142
50174SOL    HW257763   4.108   0.487   5.012 -0.7618 -0.8692 -0.4759
50175SOL     OW57764  12.085   4.674  11.974  0.1849  0.1099  0.1660
50175SOL    HW157765  12.124   4.679  11.887 -0.9931  0.7687 -0.3524
50175SOL    HW257766  12.105   4.758  12.015 -1.0415  0.6289 -0.2733
50176SOL     OW57767   8.661  12.694  10.660 -0.7723 -0.0345  0.3782
50176SOL    HW157768   8.699  12.782  10.669  1.3853 -0.8402 -0.3060
50176SOL    HW257769   8.659  12.678  10.566 -0.1456 -1.1185  0.5342
50177SOL     OW57770   4.378   7.844   1.570  0.0708  0.3174  0.5798
50177SOL    HW157771   4.329   7.926   1.577  0.6659  0.8611 -1.0333
50177SOL    HW257772   4.360   7.798   1.651 -1.0802  1.6103  1.0982
50178SOL     OW57773   7.055   5.033   0.661 -0.9005 -0.0986  0.4808
50178SOL    HW157774   6.960   5.031   0.652 -1.1578  0.2502  2.6675
50178SOL    HW257775   7.071   5.025   0.755  1.0573  3.4183  0.6462
50179SOL     OW57776   8.386  10.849   9.505  0.2115 -0.3520  0.3599
50179SOL    HW157777   8.403  10.815   9.417  2.9814  1.4718  0.0619
50179SOL    HW257778   8.445  10.799   9.561 -0.6329 -0.6327  1.0193
50180SOL     OW57779   3.177   0.495   7.606 -0.1837  0.0258  0.6795
50180SOL    HW157780   3.149   0.415   7.561  0.6558  0.5839 -0.8980
50180SOL    HW257781   3.150   0.566   7.548  0.6887  0.7801  1.1664
50181SOL     OW57782   0.421   8.720   4.209  0.1705 -0.0329  0.0626
50181SOL    HW157783   0.329   8.694   4.213  0.0510  0.3597 -0.1255
50181SOL    HW257784   0.466   8.655   4.263 -0.2834  0.0819  0.5953
50182SOL     OW57785  11.549   9.824  12.651  0.4725 -0.9577  0.0135
50182SOL    HW157786  11.618   9.790  12.594 -0.1323 -2.3042  0.0330
50182SOL    HW257787  11.469   9.817  12.599  0.4644  1.6802 -0.4377
50183SOL     OW57788   1.690   4.935   7.508 -0.6837 -0.2239  0.6203
50183SOL    HW157789   1.728   5.001   7.450 -2.6162  1.2085  0.8863
50183SOL    HW257790   1.760   4.914   7.570  0.2909  0.8309 -0.0864
50184SOL     OW57791   5.041   5.256  12.641  0.0988 -0.5853  0.1805
50184SOL    HW157792   5.109   5.298  12.589  0.8678 -3.1093 -1.0578
50184SOL    HW257793   5.089   5.215  12.713 -0.4043 -0.5916  0.5129
50185SOL     OW57794   3.728   9.050   4.561  0.1718 -0.8420 -0.2113
50185SOL    HW157795   3.661   9.075   4.497  0.0327 -1.2004 -0.2068
50185SOL    HW257796   3.811   9.078   4.522 -0.1640  2.9430  1.2880
50186SOL     OW57797   6.397   6.595   6.005 -0.3706 -0.5660 -0.6837
50186SOL    HW157798   6.350   6.589   6.089  1.5813 -0.9246  0.4564
50186SOL    HW257799   6.348   6.538   5.946 -1.6173 -0.5526  0.2930
50187SOL     OW57800   9.691   4.738   7.100 -0.5838  0.0900 -0.5688
50187SOL    HW157801   9.653   4.826   7.103 -2.2599 -0.6284  0.9395
50187SOL    HW257802   9.649   4.691   7.171  2.3117 -1.1661  0.4637
50188SOL     OW57803   3.836   5.232   5.167  0.0302  0.1826 -0.0631
50188SOL    HW157804   3.852   5.244   5.261 -0.7261 -0.9828  0.2357
50188SOL    HW257805   3.783   5.308   5.142  1.5483  1.3249  0.0870
50189SOL     OW57806  10.884  12.400   6.626 -0.4948 -0.0127 -0.2531
50189SOL    HW157807  10.796  12.387   6.592  0.0453 -1.8998 -1.0977
50189SOL    HW257808  10.924  12.313   6.622  0.8051  0.3933  1.8883
50190SOL     OW57809   1.070   0.218   6.340  0.1503 -0.1738  0.2545
50190SOL    HW157810   1.013   0.228   6.263  1.1843  1.0329 -0.4031
50190SOL    HW257811   1.014   0.239   6.414 -1.3208 -2.9356  0.0441
50191SOL     OW57812  11.922   4.884   1.889  0.1166  0.3050 -0.3119
50191SOL    HW157813  11.999   4.869   1.945  0.6231 -0.1580 -1.1195
50191SOL    HW257814  11.922   4.812   1.827 -1.2443  0.0408 -0.0458
50192SOL     OW57815   3.193   1.334   2.812 -0.0814  0.1891  0.7249
50192SOL    HW157816   3.218   1.387   2.887  0.3985 -0.4363  1.0133
50192SOL    HW257817   3.249   1.256   2.817  0.3530  0.3877 -0.5922
50193SOL     OW57818  12.139   8.937  11.349  0.4326 -0.3006 -0.7934
50193SOL    HW157819  12.179   8.920  11.263 -0.5984  0.3149 -1.4210
50193SOL    HW257820  12.114   9.029  11.345 -0.3408 -0.4749 -0.1288
50194SOL     OW57821  10.504   6.876   9.509  0.0274  0.1058 -0.3517
50194SOL    HW157822  10.446   6.832   9.446 -0.1778  0.4910 -0.4321
50194SOL    HW257823  10.483   6.834   9.593  0.8987 -1.0055 -0.6609
50195SOL     OW57824   4.720   5.145   3.371  0.1791 -0.3411 -0.1520
50195SOL    HW157825   4.754   5.229   3.401 -0.3182 -0.0713 -0.3278
50195SOL    HW257826   4.633   5.139   3.411 -0.2584 -0.2425 -1.0579
50196SOL     OW57827   1.955   6.632   4.058  0.2031  0.4293  0.2159
50196SOL    HW157828   1.926   6.662   3.972 -0.7185  1.2788  0.8015
50196SOL    HW257829   1.880   6.649   4.116  0.3488 -1.2640  0.9612
50197SOL     OW57830   3.924   0.332   6.408 -0.3246 -0.5213  0.1021
50197SOL    HW157831   3.985   0.364   6.341 -2.1364 -0.1326 -1.4701
50197SOL    HW257832   3.900   0.411   6.457 -2.3553  0.1298 -1.7345
50198SOL     OW57833   5.947  12.045   4.075 -0.3071  0.2298 -0.2618
50198SOL    HW157834   6.020  12.032   4.013  0.3211 -0.7755  0.6501
50198SOL    HW257835   5.886  11.975   4.054  0.4298 -0.8238  0.9424
50199SOL     OW57836   0.889   8.350  11.941 -0.5745  0.0641  0.1290
50199SOL    HW157837   0.930   8.310  12.018 -3.0745 -2.2732  0.4024
50199SOL    HW257838   0.918   8.441  11.943  0.3588 -0.1841  3.1641
50200SOL     OW57839   6.123   4.785   5.744  0.2032  0.9174 -0.1432
50200SOL    HW157840   6.167   4.718   5.691 -0.1817  1.3944 -1.0778
50200SOL    HW257841   6.091   4.738   5.820 -1.0859 -0.2163 -1.3426
50201SOL     OW57842  10.231   9.244   4.143  0.5782 -0.1311 -0.1904
50201SOL    HW157843  10.217   9.151   4.163 -0.3968  0.1034  0.2883
50201SOL    HW257844  10.323   9.259   4.162  0.4397 -0.7029  0.9917
50202SOL     OW57845   8.481   7.617   7.345  0.3106  0.1399 -0.0827
50202SOL    HW157846   8.472   7.526   7.318 -0.6626  0.3925 -0.6872
50202SOL    HW257847   8.565   7.645   7.309  0.8390 -0.6441  0.5220
50203SOL     OW57848   2.589   1.448   4.523  0.3398 -1.1050 -0.1507
50203SOL    HW157849   2.595   1.465   4.617  2.6955 -3.8400  0.3512
50203SOL    HW257850   2.652   1.508   4.484 -2.2997  1.7262 -0.4288
50204SOL     OW57851   3.372   2.057   4.560 -0.5731  0.1815 -0.1588
50204SOL    HW157852   3.447   2.101   4.520  1.1668 -2.7995 -0.4627
50204SOL    HW257853   3.346   1.990   4.496 -0.5086 -1.8227  1.7757
50205SOL     OW57854   0.542   1.654   6.574 -0.2357 -0.3702 -0.4617
50205SOL    HW157855   0.581   1.715   6.511  0.5190  2.6791  2.6223
50205SOL    HW257856   0.449   1.677   6.576  0.3558  2.5325  2.2104
50206SOL     OW57857   4.698   1.890   1.546 -0.1404 -0.2460  0.8630
50206SOL    HW157858   4.730   1.829   1.480  0.1464  0.5594  0.2489
50206SOL    HW257859   4.719   1.977   1.512 -1.0435  0.2264  1.4562
50207SOL     OW57860   9.243   1.584   2.789  0.4795 -0.2085 -0.8287
50207SOL    HW157861   9.237   1.489   2.784 -0.2257 -0.1106 -3.0309
50207SOL    HW257862   9.335   1.602   2.804  0.5235 -1.2193  0.3169
50208SOL     OW57863   7.859  10.954  10.396 -0.5640  0.0377 -0.8323
50208SOL    HW157864   7.818  10.942  10.310 -3.4155  0.7072  0.3252
50208SOL    HW257865   7.827  10.881  10.449 -0.3276  0.6245  0.1467
50209SOL     OW57866   7.421  11.919   8.100 -0.5206 -0.0042 -0.3989
50209SOL    HW157867   7.331  11.934   8.073 -0.1007  0.1161 -1.7897
50209SOL    HW257868   7.457  12.006   8.116 -0.1996  0.0549 -1.3940
50210SOL     OW57869   0.258   3.927   9.079  0.0139 -0.0690  0.4196
50210SOL    HW157870   0.177   3.972   9.055  0.2562 -0.7953 -2.0644
50210SOL    HW257871   0.247   3.906   9.172 -2.8645 -0.5496  0.0655
50211SOL     OW57872   3.757   1.835  11.915  0.1381 -0.2832  0.2163
50211SOL    HW157873   3.698   1.906  11.889  0.9145 -0.0786 -1.0904
50211SOL    HW257874   3.794   1.864  11.998 -2.3920 -0.9230  1.6763
50212SOL     OW57875  10.132   2.167  10.926 -0.1642 -0.1094 -0.5677
50212SOL    HW157876  10.205   2.113  10.897 -1.3166 -2.1616  0.1332
50212SOL    HW257877  10.161   2.205  11.008  1.0057  1.1620 -1.5209
50213SOL     OW57878  10.154  10.184   9.901  0.2886  0.3958  0.5908
50213SOL    HW157879  10.131  10.098   9.937  1.3913  0.1084  0.6481
50213SOL    HW257880  10.216  10.164   9.830  0.8508  1.1666  0.8528
50214SOL     OW57881   6.327   0.888  10.812  0.5628 -0.1192  0.2177
50214SOL    HW157882   6.333   0.814  10.872  0.8233 -0.2776 -0.0040
50214SOL    HW257883   6.266   0.859  10.744 -0.6858  0.4985  1.0319
50215SOL     OW57884   8.659   4.623  11.957  0.7849 -0.7324  0.0719
50215SOL    HW157885   8.643   4.542  12.006  0.5793 -1.4540 -1.1648
50215SOL    HW257886   8.573   4.666  11.953  0.6023 -1.1312 -0.4402
50216SOL     OW57887   0.625   0.509   1.402 -0.4211  0.6613  0.1293
50216SOL    HW157888   0.671   0.476   1.324  0.6139 -0.6415  1.2380
50216SOL    HW257889   0.533   0.513   1.376 -0.0645  0.5218 -1.2341
50217SOL     OW57890   5.388   6.172   5.748  0.1710  0.2343 -0.2457
50217SOL    HW157891   5.469   6.134   5.716  0.0451  0.0339 -0.3284
50217SOL    HW257892   5.415   6.244   5.805  0.4153 -0.1891  0.1820
50218SOL     OW57893   7.079   8.647   5.054  0.6772  0.1070  0.0949
50218SOL    HW157894   7.033   8.610   4.978 -3.0890  1.9429  1.2351
50218SOL    HW257895   7.146   8.703   5.015  0.8842 -1.2909 -1.7455
50219SOL     OW57896   1.167   0.660  11.150 -0.1891  0.2509 -0.3004
50219SOL    HW157897   1.154   0.602  11.076 -1.5164 -1.5876  1.2889
50219SOL    HW257898   1.136   0.746  11.120 -2.1567 -0.7933 -1.3777
50220SOL     OW57899   2.741   3.312   2.584 -0.4653 -0.5650 -0.3482
50220SOL    HW157900   2.669   3.254   2.557  0.3278 -1.8113  0.1306
50220SOL    HW257901   2.754   3.371   2.509 -2.8928  0.6433  0.0908
50221SOL     OW57902   2.515  12.526   7.656  0.2776 -0.3476  0.2906
50221SOL    HW157903   2.572  12.521   7.732  0.5750  0.9811  0.1783
50221SOL    HW257904   2.436  12.479   7.682  1.2169 -1.7860  0.6145
50222SOL     OW57905   8.249   9.480   6.509  0.1291  0.3164 -0.0216
50222SOL    HW157906   8.270   9.394   6.544 -0.5107 -0.2846 -1.0877
50222SOL    HW257907   8.181   9.514   6.568 -2.1117 -1.3501 -1.4656
50223SOL     OW57908   0.493   1.978   9.519 -0.1306 -0.5454 -0.1581
50223SOL    HW157909   0.451   2.061   9.540 -0.0999 -0.7420  0.7541
50223SOL    HW257910   0.421   1.916   9.507 -0.1384 -0.5922  0.1139
50224SOL     OW57911   1.747  12.278   6.455  0.4396 -0.2216 -0.7194
50224SOL    HW157912   1.753  12.363   6.412 -0.1607  0.7060  0.9356
50224SOL    HW257913   1.838  12.250   6.464  0.6638  0.3826 -1.0259
50225SOL     OW57914   0.960   2.521  12.358 -0.1614  0.4528 -0.2705
50225SOL    HW157915   1.002   2.592  12.406  0.5875  0.1569 -0.4750
50225SOL    HW257916   0.971   2.444  12.414  1.3264 -0.0465 -1.1701
50226SOL     OW57917   5.647   2.928   0.574 -0.0098 -0.2020 -0.3871
50226SOL    HW157918   5.730   2.972   0.592  0.6723 -1.3149 -0.7308
50226SOL    HW257919   5.601   2.930   0.658  1.2010 -1.2896  0.3493
50227SOL     OW57920   9.501   7.514   3.246 -0.7261 -0.7716 -0.2378
50227SOL    HW157921   9.462   7.570   3.179 -2.0371  3.1465  3.4099
50227SOL    HW257922   9.428   7.488   3.302  0.5370 -2.4555  0.7517
50228SOL     OW57923  12.510   4.309   1.228 -0.5887 -0.2170  0.2596
50228SOL    HW157924  12.501   4.259   1.147  0.0278 -0.7336  0.5054
50228SOL    HW257925  12.422   4.306   1.267 -0.9574  0.2634 -0.5061
50229SOL     OW57926   7.140   3.977   0.287 -0.3382  0.2500 -0.1670
50229SOL    HW157927   7.205   3.929   0.236 -1.0060 -0.5778 -0.2681
50229SOL    HW257928   7.127   4.059   0.238 -0.1995 -0.0729 -0.7558
50230SOL     OW57929   9.921   5.047  10.992 -0.8112  0.2988 -0.3670
50230SOL    HW157930   9.851   5.017  11.050 -2.0624 -0.2328 -2.0687
50230SOL    HW257931   9.886   5.035  10.903  2.5235 -2.9569 -1.5229
50231SOL     OW57932  10.596   1.236   2.041 -1.5765  0.4535  0.3335
50231SOL    HW157933  10.622   1.266   1.954 -0.9213  0.4164  0.5172
50231SOL    HW257934  10.513   1.281   2.057 -1.2628  1.1488  0.0591
50232SOL     OW57935   7.716   2.190   0.321 -0.1013  0.2651 -0.7745
50232SOL    HW157936   7.714   2.121   0.255  0.6238  0.2089 -0.7437
50232SOL    HW257937   7.628   2.226   0.320 -0.6593 -1.0471 -0.3790
50233SOL     OW57938  10.998  10.912   1.314 -0.9290  0.2199  0.6125
50233SOL    HW157939  10.964  10.894   1.226  2.5130 -1.0318 -0.6234
50233SOL    HW257940  10.991  10.828   1.360  0.9438 -0.2712  0.0909
50234SOL     OW57941  10.480   1.592   4.479  0.4292 -0.0266  0.0024
50234SOL    HW157942  10.454   1.599   4.387  0.7310 -2.2775 -0.3012
50234SOL    HW257943  10.414   1.536   4.519 -0.4654  1.9715  1.5532
50235SOL     OW57944  12.555  11.764  10.002 -0.2955  0.3778 -0.0577
50235SOL    HW157945  12.646  11.760   9.973 -0.4507  0.1504 -0.5257
50235SOL    HW257946  12.534  11.858  10.003  0.8305  0.7046  2.9161
50236SOL     OW57947   4.566  10.566   3.226 -0.0110  0.2004  0.1535
50236SOL    HW157948   4.560  10.474   3.253 -1.7366  0.2177 -0.1127
50236SOL    HW257949   4.609  10.563   3.141  0.3448 -0.3181  0.3444
50237SOL     OW57950   2.075   9.507   3.093 -0.9502 -0.1478  0.3570
50237SOL    HW157951   2.094   9.478   3.182  0.4966  0.2025  0.1977
50237SOL    HW257952   2.160   9.534   3.058 -1.5130 -0.1184 -1.0764
50238SOL     OW57953  11.295   7.441   5.834  0.9379  0.4964 -0.3048
50238SOL    HW157954  11.214   7.491   5.848 -0.7276 -2.1993  0.5458
50238SOL    HW257955  11.340   7.446   5.919  0.3549 -0.0864  0.0524
50239SOL     OW57956   7.542   7.326  12.276  0.9375 -0.6301  0.3177
50239SOL    HW157957   7.542   7.233  12.301  1.0356 -0.2531  1.8045
50239SOL    HW257958   7.533   7.373  12.359  0.0170  0.6828 -0.4939
50240SOL     OW57959  12.000   8.145  11.309  0.1580  0.0042 -0.2500
50240SOL    HW157960  11.945   8.176  11.381  0.4241  1.3880 -0.5939
50240SOL    HW257961  12.024   8.225  11.262  1.6744 -0.6576 -0.6682
50241SOL     OW57962   6.576  12.232  11.241  0.2993  0.4241  0.4542
50241SOL    HW157963   6.633  12.171  11.195  1.6195  0.9352  1.3350
50241SOL    HW257964   6.590  12.316  11.197  0.4042  0.6018  0.8223
50242SOL     OW57965   0.816   1.117   6.447  0.2027  0.0830  0.0627
50242SOL    HW157966   0.824   1.027   6.477 -1.9019 -0.2932 -0.3670
50242SOL    HW257967   0.753   1.157   6.507 -0.1489  0.7949 -0.7582
50243SOL     OW57968  10.905   4.904   9.478  0.1340  0.3352  0.2170
50243SOL    HW157969  10.944   4.980   9.435 -0.5038  0.5720  0.0475
50243SOL    HW257970  10.979   4.856   9.514  0.6322  0.4493 -0.6335
50244SOL     OW57971   1.121   6.716   6.095  0.1500  0.0024  0.1262
50244SOL    HW157972   1.167   6.676   6.021 -0.0130  0.5874 -0.2954
50244SOL    HW257973   1.186   6.771   6.138  0.6794 -1.4986  1.3473
50245SOL     OW57974   0.457   6.082   2.271  0.1199 -0.2856 -0.0401
50245SOL    HW157975   0.511   6.103   2.348  0.3966 -0.5014 -0.1732
50245SOL    HW257976   0.412   6.163   2.251 -1.0050 -0.5687  1.1893
50246SOL     OW57977   8.704  11.038   7.232 -0.3061 -0.2016 -0.3348
50246SOL    HW157978   8.764  10.975   7.274  1.2335  1.2559 -0.2609
50246SOL    HW257979   8.725  11.031   7.139 -0.9578 -0.6140 -0.4552
50247SOL     OW57980   1.465   9.982  11.464  0.2261  0.2657  0.2163
50247SOL    HW157981   1.544   9.995  11.411 -0.2788  0.1509 -0.5726
50247SOL    HW257982   1.490   9.912  11.525  1.1790  1.1717  0.9022
50248SOL     OW57983   9.017  11.180   5.903  0.0849  0.5641  0.4386
50248SOL    HW157984   9.004  11.202   5.810  0.0698  0.9753  0.5365
50248SOL    HW257985   9.102  11.138   5.905 -0.5485 -0.8135  0.0136
50249SOL     OW57986  12.247   5.984  10.140 -0.4908  0.2167  0.0731
50249SOL    HW157987  12.323   5.946  10.183  0.2275  1.7848  0.2475
50249SOL    HW257988  12.277   6.068  10.106 -2.1844  0.9625  0.2898
50250SOL     OW57989   5.922   9.848   8.610 -0.3889 -0.1065  0.3331
50250SOL    HW157990   5.855   9.814   8.551 -2.0669  1.4889  1.1814
50250SOL    HW257991   5.914   9.794   8.689  0.4876 -0.9735 -0.1611
50251SOL     OW57992   8.822   1.426   8.294 -0.2874  0.2564 -0.2714
50251SOL    HW157993   8.898   1.410   8.238  0.1506 -0.6949  0.5460
50251SOL    HW257994   8.747   1.408   8.238  0.1379 -0.5800 -0.6050
50252SOL     OW57995   3.021   5.791  12.077 -0.2597  0.1620  0.3539
50252SOL    HW157996   2.978   5.706  12.074  1.3820 -0.6623 -0.8841
50252SOL    HW257997   3.063   5.794  12.163 -0.0694 -0.4116  0.2801
50253SOL     OW57998  12.641   6.431  12.017 -0.8338 -0.6349  0.0461
50253SOL    HW157999  12.550   6.440  11.988 -0.9983 -1.0101  0.4211
50253SOL    HW258000  12.673   6.354  11.970 -0.6047 -0.3140 -0.3309
50254SOL     OW58001  12.076   9.429   1.917  0.0656 -0.9305  0.4093
50254SOL    HW158002  11.995   9.447   1.966  0.1866 -1.5551  0.8576
50254SOL    HW258003  12.052   9.361   1.855 -0.4309  0.7989 -1.3922
50255SOL     OW58004   8.560  10.197   7.957  0.5470  0.0654  0.1562
50255SOL    HW158005   8.542  10.229   8.045  1.6726  3.0081 -0.5739
50255SOL    HW258006   8.479  10.153   7.930 -0.2911  0.2990  2.1252
50256SOL     OW58007  11.258  12.337   6.922  0.0526  0.1522  0.2350
50256SOL    HW158008  11.181  12.393   6.934 -1.2405 -1.3575 -0.5854
50256SOL    HW258009  11.225  12.261   6.873  2.1255 -0.4399 -0.3467
50257SOL     OW58010   5.620  12.556   3.392  0.2571 -0.2374  0.0474
50257SOL    HW158011   5.535  12.568   3.350  0.2685  1.4416  0.4262
50257SOL    HW258012   5.682  12.551   3.319 -0.0759 -0.7379 -0.2072
50258SOL     OW58013  10.994  10.540  11.246 -0.1517 -0.4162 -0.1504
50258SOL    HW158014  11.064  10.477  11.231  0.6606  0.4953 -0.2758
50258SOL    HW258015  10.922  10.488  11.283  0.2589 -1.5203 -0.8540
50259SOL     OW58016   7.841   2.995   6.989 -0.1760  0.0049 -0.0721
50259SOL    HW158017   7.825   2.941   7.067  1.1934 -1.0460 -0.4701
50259SOL    HW258018   7.814   2.940   6.916 -1.4787  0.9972 -0.3806
50260SOL     OW58019   1.244   0.090   2.626  0.1121  0.4522  0.4143
50260SOL    HW158020   1.329   0.110   2.664  0.6571  0.6356 -0.8287
50260SOL    HW258021   1.255   0.001   2.590 -0.3656  0.2998  0.6418
50261SOL     OW58022  11.688   9.080  11.565 -0.3412  0.2510 -0.1421
50261SOL    HW158023  11.781   9.066  11.546 -0.3178  1.7469 -1.3480
50261SOL    HW258024  11.677   9.175  11.559 -1.7980  0.1709  0.7935
50262SOL     OW58025  11.219  11.320   2.484 -0.6943 -0.0626  0.5716
50262SOL    HW158026  11.307  11.357   2.493 -0.7851  0.0634  0.9586
50262SOL    HW258027  11.230  11.247   2.423 -0.4756  0.4693 -0.0398
50263SOL     OW58028   8.083  12.150   9.703 -0.1054  0.2163  0.1827
50263SOL    HW158029   8.013  12.096   9.739  0.7368 -0.8464  0.2913
50263SOL    HW258030   8.051  12.240   9.710 -1.0131 -0.1675  1.1885
50264SOL     OW58031   8.337   0.857   4.141 -1.1039 -0.1821  0.1484
50264SOL    HW158032   8.428   0.858   4.170 -1.0476  0.3080 -0.0283
50264SOL    HW258033   8.322   0.767   4.114 -0.7830 -0.3534  0.5222
50265SOL     OW58034   3.920   7.161   8.752  0.2823  0.0121 -0.0435
50265SOL    HW158035   3.926   7.217   8.829 -1.4263  0.6365 -0.3391
50265SOL    HW258036   3.833   7.122   8.756  0.1774  0.0042 -1.6315
50266SOL     OW58037   3.096   9.376   6.056  0.1301 -0.1845  0.1407
50266SOL    HW158038   3.060   9.388   5.969 -2.5789 -3.2889  0.6592
50266SOL    HW258039   3.077   9.458   6.102 -2.8005 -0.2087 -0.8374
50267SOL     OW58040   3.608   6.968   2.481  0.1517  0.1678 -0.0724
50267SOL    HW158041   3.622   6.994   2.390  0.3204 -0.5745 -0.2663
50267SOL    HW258042   3.513   6.963   2.490  0.1442 -0.6355 -0.4751
50268SOL     OW58043   2.952   9.424   0.794 -0.2037  0.5053  0.3526
50268SOL    HW158044   2.883   9.460   0.739  0.7502  0.6645 -0.7679
50268SOL    HW258045   2.905   9.379   0.864 -1.4359  0.9147 -0.1779
50269SOL     OW58046   3.622   4.013   3.539  0.2213 -0.5031 -0.3711
50269SOL    HW158047   3.691   4.045   3.481  0.1792  0.4277  0.0746
50269SOL    HW258048   3.550   3.990   3.480  0.1033  0.6344 -0.6878
50270SOL     OW58049  11.307   7.775   8.256 -0.5122  0.8502 -0.1376
50270SOL    HW158050  11.334   7.706   8.317  0.1036  1.1537 -0.0597
50270SOL    HW258051  11.376   7.841   8.263 -0.4169  0.8742 -1.1831
50271SOL     OW58052   2.587   5.071   3.771 -0.0326 -0.6350 -0.2931
50271SOL    HW158053   2.553   4.982   3.761 -0.1785 -0.6460  0.2507
50271SOL    HW258054   2.596   5.104   3.682 -0.2630 -1.0895 -0.4857
50272SOL     OW58055   7.063   0.750   1.759  0.1808  0.4058 -0.3038
50272SOL    HW158056   7.035   0.669   1.718  1.3441 -0.5643  0.7258
50272SOL    HW258057   6.981   0.795   1.782 -0.4880 -0.6459 -0.5529
50273SOL     OW58058   3.753   3.410  11.356 -0.5914  0.3102  0.5634
50273SOL    HW158059   3.689   3.439  11.290  1.1468 -1.4321 -2.0546
50273SOL    HW258060   3.706   3.343  11.406 -0.7875 -1.3267 -1.6498
50274SOL     OW58061   1.286   6.044  11.978 -0.2759  0.6162  0.0180
50274SOL    HW158062   1.227   6.117  11.998 -0.4146  1.0753 -1.8421
50274SOL    HW258063   1.279   6.033  11.883 -0.7175 -2.2610  0.3040
50275SOL     OW58064   9.858  11.732   6.789  0.5062 -0.1162  0.2242
50275SOL    HW158065   9.938  11.776   6.760  0.3551  0.7742  1.1321
50275SOL    HW258066   9.889  11.665   6.850  0.6039 -0.1215  0.1695
50276SOL     OW58067   4.454   5.514  11.502 -0.5160 -0.2829  0.4725
50276SOL    HW158068   4.396   5.572  11.454  0.8890  1.3513  0.6553
50276SOL    HW258069   4.499   5.462  11.435  0.5177  1.1055  0.0361
50277SOL     OW58070   4.155   4.929   5.901  0.4368 -0.1313  0.6913
50277SOL    HW158071   4.159   4.927   5.996  1.6579 -3.4890  0.6875
50277SOL    HW258072   4.205   5.007   5.877  0.2723  0.6794  2.7394
50278SOL     OW58073   0.063   6.462   8.932  0.0208  0.7569  0.2995
50278SOL    HW158074  -0.028   6.492   8.937  0.4160  1.8668  1.3220
50278SOL    HW258075   0.112   6.542   8.913  0.8059  0.1959 -0.0547
50279SOL     OW58076   9.852   1.125   8.703  0.3735  0.5113  0.9179
50279SOL    HW158077   9.943   1.120   8.732  0.2620  0.9539  1.3555
50279SOL    HW258078   9.816   1.038   8.723  0.4720  0.6062  1.5289
50280SOL     OW58079   1.439   9.785   5.005  0.2708  0.0610  0.0507
50280SOL    HW158080   1.359   9.825   4.970 -0.1918  0.4268  1.4512
50280SOL    HW258081   1.408   9.706   5.049  1.1735 -1.9278 -2.6588
50281SOL     OW58082   3.489   5.456   6.803  0.2196  0.6211 -0.2053
50281SOL    HW158083   3.407   5.425   6.841  0.5625  0.4671  0.4144
50281SOL    HW258084   3.538   5.492   6.876  0.3386  1.5367 -0.7150
50282SOL     OW58085   7.815  12.707   2.557 -0.4517 -0.2455  0.4760
50282SOL    HW158086   7.817  12.731   2.464 -0.7175  0.5672  0.6658
50282SOL    HW258087   7.860  12.780   2.600  1.2724 -1.4684  0.8249
50283SOL     OW58088  11.936   1.907   5.153  0.1228  0.3866  0.0514
50283SOL    HW158089  11.960   1.821   5.187  0.7633  0.1139 -1.0410
50283SOL    HW258090  11.952   1.901   5.059 -1.8900  1.0015 -0.3833
50284SOL     OW58091   9.141   1.104   7.674 -0.3489  0.2939  0.7763
50284SOL    HW158092   9.197   1.114   7.597 -1.1403  0.3202  0.1923
50284SOL    HW258093   9.164   1.018   7.708  0.2004  0.3946  0.6631
50285SOL     OW58094   1.256  10.834   4.110 -0.3497  0.0841 -0.1200
50285SOL    HW158095   1.216  10.804   4.192 -0.9587 -0.5929 -0.6532
50285SOL    HW258096   1.249  10.760   4.051  0.3485  0.4676 -0.7112
50286SOL     OW58097   8.684   6.525   3.378 -0.0217 -0.1597  0.2066
50286SOL    HW158098   8.607   6.575   3.407  2.3500  4.8874 -1.1997
50286SOL    HW258099   8.752   6.546   3.441  1.4499 -0.6042 -1.1658
50287SOL     OW58100   2.987   6.262   8.077 -0.4880 -0.7087 -0.3123
50287SOL    HW158101   2.925   6.221   8.137 -1.8690 -0.5788 -1.5876
50287SOL    HW258102   3.022   6.190   8.025 -1.7095 -0.5058 -1.4701
50288SOL     OW58103  12.618  12.210   2.329 -0.0011 -0.1831 -0.1750
50288SOL    HW158104  12.523  12.196   2.338 -0.2311  1.3459 -0.0403
50288SOL    HW258105  12.640  12.171   2.244 -0.9547  0.4118 -0.7141
50289SOL     OW58106   3.230   9.238  12.019  0.1316  0.7116 -0.0860
50289SOL    HW158107   3.297   9.298  11.987 -0.2308  0.1972 -1.8850
50289SOL    HW258108   3.149   9.265  11.976 -0.4227  0.0963  0.5330
50290SOL     OW58109   0.979   7.804   4.843 -0.4335 -0.6607  0.9486
50290SOL    HW158110   0.978   7.839   4.932 -1.1253  2.7634 -0.2793
50290SOL    HW258111   1.071   7.786   4.825 -0.1065  0.0553  1.8468
50291SOL     OW58112   4.755   9.496  10.811 -0.4234  0.1926 -0.1067
50291SOL    HW158113   4.711   9.565  10.860  0.4562  0.7760 -0.1288
50291SOL    HW258114   4.839   9.534  10.785 -0.1398 -0.7092 -0.5531
50292SOL     OW58115   9.355   5.123   5.658 -0.1888 -0.2307 -0.1417
50292SOL    HW158116   9.282   5.168   5.700 -0.7662 -0.8603 -0.4657
50292SOL    HW258117   9.320   5.093   5.574 -0.1685 -2.2886  0.5450
50293SOL     OW58118   2.117   1.780  12.296 -0.6687 -0.0530 -0.5038
50293SOL    HW158119   2.205   1.741  12.289 -0.2785  0.8011 -0.5305
50293SOL    HW258120   2.134   1.872  12.316 -1.5850 -0.0357  0.2275
50294SOL     OW58121   9.761   9.293   0.446  0.6350 -0.5476 -0.2497
50294SOL    HW158122   9.715   9.304   0.363  1.5910  1.4502 -0.5863
50294SOL    HW258123   9.693   9.304   0.513  0.5077  2.5655 -0.7254
50295SOL     OW58124   3.970   6.832   1.340 -0.1303 -0.1977  0.0013
50295SOL    HW158125   3.965   6.744   1.376  0.8870 -0.1340  0.3409
50295SOL    HW258126   3.898   6.880   1.383 -1.5277 -1.1782 -1.1796
50296SOL     OW58127   0.859   9.390  10.752 -0.2671 -0.5731  0.6042
50296SOL    HW158128   0.820   9.313  10.793  0.3419 -1.2497 -0.0362
50296SOL    HW258129   0.938   9.407  10.802  0.0693 -0.9232  0.1989
50297SOL     OW58130   7.786   9.686  10.303 -0.0216 -0.4663  1.0256
50297SOL    HW158131   7.829   9.629  10.239 -0.8322 -1.6351  1.4924
50297SOL    HW258132   7.858   9.716  10.359  0.4938 -0.6135  0.4587
50298SOL     OW58133   6.627   6.145   6.262 -0.1529 -0.6481 -0.1544
50298SOL    HW158134   6.662   6.230   6.237 -0.7412  0.2689  1.9202
50298SOL    HW258135   6.536   6.162   6.285 -0.7814 -2.1805 -1.3304
50299SOL     OW58136   0.659   7.407   7.199 -0.1952  0.1787 -0.0074
50299SOL    HW158137   0.709   7.452   7.131 -1.2293 -1.1231 -1.6916
50299SOL    HW258138   0.685   7.315   7.192 -0.0610  0.0600  1.6233
50300SOL     OW58139  11.574  12.673   8.065 -0.1551 -0.4289  0.2020
50300SOL    HW158140  11.488  12.669   8.108 -0.9270 -0.6290 -1.2802
50300SOL    HW258141  11.555  12.657   7.972  1.6940 -2.1593  0.0624
50301SOL     OW58142   9.142  11.443   0.799  0.5557  0.7712 -0.0487
50301SOL    HW158143   9.167  11.362   0.754  0.8906  0.8166  0.0552
50301SOL    HW258144   9.184  11.513   0.749  0.9889  0.8168  0.3659
50302SOL     OW58145   2.428  12.249   2.648  0.7597 -0.5999 -0.2266
50302SOL    HW158146   2.483  12.200   2.710 -0.4727 -0.0928  1.3383
50302SOL    HW258147   2.343  12.206   2.653 -0.1693  1.2404  0.6569
50303SOL     OW58148  11.766   8.703   9.352  0.4169 -0.2745 -0.1006
50303SOL    HW158149  11.843   8.709   9.296  0.2121  2.3157 -0.2358
50303SOL    HW258150  11.800   8.713   9.441  0.1644  3.8257 -0.2786
50304SOL     OW58151   0.168   1.908   2.622  0.0854 -1.2728 -0.1808
50304SOL    HW158152   0.206   1.916   2.534 -0.6524 -1.3864 -0.5205
50304SOL    HW258153   0.149   1.998   2.648 -0.7019 -1.3073 -0.6024
50305SOL     OW58154  10.056   9.174   5.376  0.1515 -0.1804 -0.5808
50305SOL    HW158155  10.094   9.236   5.315 -1.4185  0.7221 -0.6798
50305SOL    HW258156  10.057   9.090   5.329 -2.3637  0.7420 -2.5219
50306SOL     OW58157   8.900   8.000   3.262  0.0647 -0.2739  0.3739
50306SOL    HW158158   8.936   8.056   3.193  0.9972 -0.0799  1.0094
50306SOL    HW258159   8.937   7.913   3.243 -2.4447 -1.0845 -1.4291
50307SOL     OW58160  11.420   4.578  10.654  0.3436  0.2871 -0.2652
50307SOL    HW158161  11.486   4.509  10.664  0.4309  0.3673 -0.2958
50307SOL    HW258162  11.453   4.633  10.583  0.1302  0.1967 -0.4315
50308SOL     OW58163   3.816   1.676   6.749  0.2882  0.1743  0.1536
50308SOL    HW158164   3.849   1.586   6.757  1.4752  0.5061 -0.6968
50308SOL    HW258165   3.762   1.674   6.670 -1.3377 -0.2324  1.2299
50309SOL     OW58166   7.961   7.466  12.486 -0.1775  0.5146 -0.1984
50309SOL    HW158167   7.972   7.556  12.517  3.5289 -0.5348  2.1672
50309SOL    HW258168   7.910   7.424  12.555 -0.2594  0.3464 -0.3629
50310SOL     OW58169   8.618   0.370   2.604  0.0467 -0.3242 -0.3223
50310SOL    HW158170   8.672   0.298   2.638 -2.5545 -3.1579 -1.7117
50310SOL    HW258171   8.670   0.407   2.533  1.4485 -0.8144  0.4050
50311SOL     OW58172   1.818   7.564   1.198  0.0151 -0.6128  0.6410
50311SOL    HW158173   1.825   7.650   1.239  1.8457 -0.2173 -0.3560
50311SOL    HW258174   1.874   7.570   1.120  0.2146 -2.7168  0.5513
50312SOL     OW58175   4.641   5.369   8.324 -0.5064 -0.0095 -0.0063
50312SOL    HW158176   4.630   5.414   8.408 -0.3832 -1.8326  1.0640
50312SOL    HW258177   4.592   5.422   8.261 -1.2304  1.0254  1.3728
50313SOL     OW58178   4.744   2.348   1.536  0.7527  0.2499  0.6641
50313SOL    HW158179   4.765   2.262   1.571 -0.3527 -0.4141 -0.2511
50313SOL    HW258180   4.822   2.374   1.488  1.2896  0.0082  1.3843
50314SOL     OW58181  10.164   8.683   9.817 -0.3351  0.5505  0.2226
50314SOL    HW158182  10.152   8.588   9.826 -0.3062  0.3372 -1.5220
50314SOL    HW258183  10.166   8.697   9.722 -0.6047  2.3409  0.4559
50315SOL     OW58184   3.339   4.535  10.867  0.1173 -0.1289  0.1250
50315SOL    HW158185   3.428   4.522  10.833 -0.3721 -2.3626 -0.4902
50315SOL    HW258186   3.308   4.613  10.822  0.8250 -0.8919 -1.8137
50316SOL     OW58187  11.029   8.817  11.179  0.0047 -1.1035 -0.4964
50316SOL    HW158188  11.042   8.745  11.118  0.7048  0.6558 -2.5660
50316SOL    HW258189  11.117   8.845  11.204 -0.2547 -1.9820  1.6876
50317SOL     OW58190   2.908   6.970  10.948 -0.1324 -0.2310 -0.0814
50317SOL    HW158191   2.879   6.908  10.881 -0.4241  1.0665 -1.2083
50317SOL    HW258192   2.903   7.056  10.905  1.6557  0.4443  0.9527
50318SOL     OW58193   1.087   4.444   0.575  0.0680  0.1974 -0.0005
50318SOL    HW158194   1.158   4.424   0.513  0.9954 -2.1516  1.6812
50318SOL    HW258195   1.105   4.534   0.603  1.6106  0.1208 -0.5914
50319SOL     OW58196  10.362   3.391   5.048  0.0036 -0.5377  0.4766
50319SOL    HW158197  10.407   3.467   5.013 -0.3193 -0.8556 -0.6711
50319SOL    HW258198  10.388   3.319   4.990 -1.6882 -0.7978 -0.0212
50320SOL     OW58199   7.087  12.050   6.608  0.7084  0.2880  0.0073
50320SOL    HW158200   7.146  12.121   6.582 -0.5352  1.6795  0.8308
50320SOL    HW258201   7.094  12.047   6.703  0.7999 -0.7596 -0.0242
50321SOL     OW58202   2.503   1.003   9.320 -0.3980 -0.0051 -0.2326
50321SOL    HW158203   2.432   1.068   9.323 -0.0101  0.3878  1.3528
50321SOL    HW258204   2.461   0.924   9.286 -1.4327  0.4163  0.0134
50322SOL     OW58205   7.511   0.504   2.198 -0.3125 -0.2083  0.7336
50322SOL    HW158206   7.428   0.491   2.152  0.2652 -0.4254 -0.2840
50322SOL    HW258207   7.501   0.587   2.244 -0.1798  1.1670 -1.5517
50323SOL     OW58208   3.298   8.425   2.487  0.2952 -0.3445  0.1557
50323SOL    HW158209   3.207   8.452   2.472  0.3449 -0.1332  0.2311
50323SOL    HW258210   3.301   8.335   2.456  0.3975  0.0696 -1.0994
50324SOL     OW58211   6.417   4.558   4.280  0.1266  0.0756 -0.2065
50324SOL    HW158212   6.347   4.609   4.238 -1.3880 -1.7040  0.0235
50324SOL    HW258213   6.421   4.477   4.228 -1.0941 -1.7532  2.3389
50325SOL     OW58214   7.650  11.547   9.215  0.2382  0.7566 -0.5461
50325SOL    HW158215   7.576  11.490   9.234  0.9479 -0.2338 -0.7023
50325SOL    HW258216   7.660  11.600   9.294 -0.0438  0.2337 -0.1566
50326SOL     OW58217  11.111   5.853   0.119 -0.6491  0.2274 -0.0765
50326SOL    HW158218  11.020   5.827   0.136 -1.3103  1.9877 -0.6994
50326SOL    HW258219  11.134   5.806   0.039 -1.5927  0.9992 -0.8276
50327SOL     OW58220   1.794   9.894   7.439 -0.1951 -0.0311  0.6079
50327SOL    HW158221   1.802   9.834   7.512  0.5621  0.3356  0.8381
50327SOL    HW258222   1.703   9.924   7.442 -0.1950 -0.0930  1.3318
50328SOL     OW58223  11.274  11.224   8.939 -0.5945 -0.2717 -0.2947
50328SOL    HW158224  11.354  11.171   8.936 -1.3317 -1.3896 -1.0487
50328SOL    HW258225  11.244  11.227   8.848 -1.6040 -0.1814  0.0260
50329SOL     OW58226  12.139   3.555  11.630  0.3893 -0.3944 -0.1171
50329SOL    HW158227  12.143   3.545  11.535  0.7647 -1.4562  0.0037
50329SOL    HW258228  12.175   3.643  11.645  2.2811 -0.9979 -0.8107
50330SOL     OW58229   5.866   0.831   9.759  0.1078 -0.3957  0.3559
50330SOL    HW158230   5.926   0.845   9.686  0.6423 -1.6641  0.5309
50330SOL    HW258231   5.922   0.824   9.836 -0.3825 -0.0728  0.7570
50331SOL     OW58232  10.362   1.398   2.076 -0.7970  0.1901  0.2824
50331SOL    HW158233  10.337   1.436   2.160 -1.6934  2.3626 -0.8791
50331SOL    HW258234  10.325   1.457   2.010  1.7712 -0.1309 -1.6390
50332SOL     OW58235   7.830   5.542   7.658  0.8574  0.0681  0.1392
50332SOL    HW158236   7.900   5.551   7.723 -0.2650  3.9175  1.1025
50332SOL    HW258237   7.848   5.610   7.594 -0.8748 -0.2619 -0.7554
50333SOL     OW58238   6.385   8.446   2.609 -0.2880  0.0295  0.0801
50333SOL    HW158239   6.462   8.461   2.554  0.2810 -0.7284  0.6464
50333SOL    HW258240   6.370   8.530   2.653 -0.5025  0.5191 -0.9147
50334SOL     OW58241   9.324  11.819   4.592 -0.1160 -0.3096  0.1376
50334SOL    HW158242   9.231  11.839   4.603 -0.1199 -0.3267  0.1354
50334SOL    HW258243   9.362  11.901   4.558 -0.3606 -0.6662 -1.0561
50335SOL     OW58244   7.214  10.844   4.497  0.6552  0.5130  0.2292
50335SOL    HW158245   7.168  10.811   4.420 -0.5328  1.2840  0.5661
50335SOL    HW258246   7.209  10.939   4.489  1.7499  0.6160  0.5659
50336SOL     OW58247   2.551  11.576   9.807 -0.0165 -0.0588  0.5022
50336SOL    HW158248   2.547  11.610   9.896  1.0515 -0.4860  0.7335
50336SOL    HW258249   2.643  11.587   9.781 -0.5394  1.2004 -1.0191
50337SOL     OW58250  10.776   7.416   4.821  0.1030 -0.2165  0.0924
50337SOL    HW158251  10.851   7.397   4.877 -1.1155 -0.4803  1.7058
50337SOL    HW258252  10.701   7.417   4.880 -1.0448  1.1550 -1.2755
50338SOL     OW58253  11.535  10.978  12.205  0.3981  0.0157  0.0662
50338SOL    HW158254  11.446  10.989  12.172  0.0449 -3.3931 -0.5287
50338SOL    HW258255  11.591  11.009  12.134 -0.3911 -2.6681 -1.8906
50339SOL     OW58256   5.289   8.476   2.446  0.3376  0.0467 -0.1099
50339SOL    HW158257   5.279   8.398   2.391  1.7902 -1.5827  1.7986
50339SOL    HW258258   5.377   8.508   2.427  0.2776  0.3835  0.1605
50340SOL     OW58259   7.430  11.438   0.067 -0.0554 -0.6659 -0.2341
50340SOL    HW158260   7.385  11.515   0.031 -0.1466 -1.3311 -1.6375
50340SOL    HW258261   7.479  11.471   0.142 -2.2896  0.2382  0.9383
50341SOL     OW58262   1.572   4.565  11.234 -0.2038 -0.0553  0.1531
50341SOL    HW158263   1.544   4.632  11.172  0.5458  0.0688 -0.0599
50341SOL    HW258264   1.621   4.614  11.301  0.3992 -0.3906 -0.0344
50342SOL     OW58265  11.406   1.880   8.996  0.6415 -0.5666  0.3888
50342SOL    HW158266  11.439   1.852   8.910  2.3216 -0.2096  0.8679
50342SOL    HW258267  11.387   1.798   9.042  0.5431 -0.7845 -0.0321
50343SOL     OW58268   6.152   6.460   1.141 -0.0460  0.2244  0.0207
50343SOL    HW158269   6.235   6.467   1.094  1.1561 -2.1191  1.6142
50343SOL    HW258270   6.103   6.394   1.092  0.7084 -1.3170  1.2778
50344SOL     OW58271   3.063   8.479   3.360  0.1163  0.2830 -0.1882
50344SOL    HW158272   2.990   8.486   3.422 -0.5647 -1.0785 -0.7889
50344SOL    HW258273   3.122   8.550   3.384 -1.1806  1.1244  0.6237
50345SOL     OW58274  10.234   1.451   2.316 -0.3939 -0.1246 -0.5604
50345SOL    HW158275  10.209   1.543   2.327 -0.8388 -0.4655  1.9772
50345SOL    HW258276  10.156   1.402   2.339  0.0711 -1.1702 -1.1274
50346SOL     OW58277   0.418   7.937   0.954 -0.1677 -0.8384  0.2029
50346SOL    HW158278   0.421   7.842   0.972  1.0634 -0.8447  0.0350
50346SOL    HW258279   0.498   7.954   0.904 -0.5385  0.2446 -0.0268
50347SOL     OW58280   0.490   3.353   5.396 -0.2504  0.0714  0.5261
50347SOL    HW158281   0.438   3.275   5.414  1.1810 -1.0069  0.1441
50347SOL    HW258282   0.481   3.368   5.302 -1.0135  0.7609  0.6923
50348SOL     OW58283   0.077   2.783  10.795  0.0686  0.1321  0.0180
50348SOL    HW158284   0.168   2.804  10.776 -0.1256  0.8966 -0.0953
50348SOL    HW258285   0.038   2.762  10.710  0.4075 -1.3465  0.1957
50349SOL     OW58286   3.677   6.714   6.087  0.3202 -0.2034  0.3547
50349SOL    HW158287   3.648   6.778   6.153 -0.1904  1.5903 -1.4984
50349SOL    HW258288   3.770   6.731   6.076 -0.2556  2.0861 -1.9073
50350SOL     OW58289   1.066   6.691  11.858 -0.1933  0.3714  0.5190
50350SOL    HW158290   0.978   6.717  11.889 -0.4155 -0.7348  0.8622
50350SOL    HW258291   1.105   6.647  11.934  0.3591  0.1599  0.1124
50351SOL     OW58292   8.364   0.359   8.481 -0.7670  0.7174  1.0950
50351SOL    HW158293   8.443   0.306   8.469 -0.9454  0.0949  2.5143
50351SOL    HW258294   8.392   0.448   8.459 -0.6605  0.0190 -2.0598
50352SOL     OW58295   1.755   9.539   7.407  0.3837  0.0706 -0.0970
50352SOL    HW158296   1.718   9.455   7.436  0.1427 -0.5764 -2.0967
50352SOL    HW258297   1.690   9.572   7.345  0.4349  1.8239  0.7421
50353SOL     OW58298  10.531   1.072   4.637 -0.4082  0.9276  0.0643
50353SOL    HW158299  10.573   1.138   4.582 -0.6060  1.3820  0.4484
50353SOL    HW258300  10.439   1.075   4.614 -0.4775  1.0543  0.3463
50354SOL     OW58301   1.522   3.547   8.030  0.2551  0.2891 -0.3636
50354SOL    HW158302   1.536   3.602   8.106  1.5539 -0.4161 -0.0651
50354SOL    HW258303   1.459   3.596   7.976 -0.0257  1.1830  0.7434
50355SOL     OW58304  12.087   1.996   3.724  0.0397  0.2571 -0.0716
50355SOL    HW158305  12.103   1.909   3.688  0.0285 -0.2660  1.1369
50355SOL    HW258306  12.174   2.036   3.731 -0.1434  1.4160 -3.0968
50356SOL     OW58307   9.944   9.496  10.689 -0.1440  0.0255 -0.0624
50356SOL    HW158308   9.965   9.459  10.774  0.4442 -0.6264 -0.4793
50356SOL    HW258309   9.888   9.572  10.708  0.4317  0.2134  0.9220
50357SOL     OW58310   5.847   2.422   5.602  0.0398  0.0892 -0.4214
50357SOL    HW158311   5.905   2.349   5.583  0.4665  0.4520 -0.5401
50357SOL    HW258312   5.806   2.443   5.518  1.7071  1.5051 -0.9361
50358SOL     OW58313   1.347  12.104   8.227 -0.1696  0.1434  0.0617
50358SOL    HW158314   1.319  12.059   8.306 -0.7538  0.3254 -0.0366
50358SOL    HW258315   1.442  12.116   8.238  0.1910 -1.9150 -0.3246
50359SOL     OW58316   9.934   7.756   9.385 -0.0396  0.1116  0.1255
50359SOL    HW158317   9.918   7.722   9.473 -1.1178 -2.4416 -0.9205
50359SOL    HW258318   9.846   7.762   9.346  0.2753  2.6729 -0.3337
50360SOL     OW58319  12.470   8.064   7.353  0.7944 -0.2742  0.6543
50360SOL    HW158320  12.555   8.087   7.388  0.4483  3.0835 -0.3841
50360SOL    HW258321  12.407   8.094   7.419  0.3204  1.2373 -0.4437
50361SOL     OW58322   6.456   2.723   4.542  0.7261  0.2182 -0.6446
50361SOL    HW158323   6.431   2.779   4.468  1.1255  0.3793 -0.6588
50361SOL    HW258324   6.469   2.637   4.503  0.5754  0.2205 -0.7011
50362SOL     OW58325   1.207   0.146   1.271  0.5270 -0.4987  0.7359
50362SOL    HW158326   1.229   0.133   1.363 -0.4699  1.6843  1.3573
50362SOL    HW258327   1.268   0.214   1.241  0.4210 -0.7341 -0.0435
50363SOL     OW58328   0.835   8.244  11.677  0.1807  0.0142  0.0329
50363SOL    HW158329   0.877   8.294  11.747  0.9961  1.3388 -1.3337
50363SOL    HW258330   0.751   8.218  11.714  0.4400  0.9656  1.3900
50364SOL     OW58331  10.291   9.319   2.054 -0.2725 -0.4506  0.2348
50364SOL    HW158332  10.285   9.244   2.113  0.2391  0.5394  1.6057
50364SOL    HW258333  10.302   9.280   1.967 -3.3661 -1.9856  0.4039
50365SOL     OW58334   9.671   6.844   4.255 -0.4912 -0.1246  0.7989
50365SOL    HW158335   9.679   6.827   4.349  2.1107  1.5650  0.9733
50365SOL    HW258336   9.634   6.933   4.249 -1.1971 -0.4421  0.1799
50366SOL     OW58337   9.561   7.966   6.693 -0.3768 -0.1053  0.1839
50366SOL    HW158338   9.617   8.019   6.635 -0.1558 -0.8567 -0.2946
50366SOL    HW258339   9.577   8.002   6.781  0.9064 -0.3390  0.0629
50367SOL     OW58340   3.795   8.755   9.217 -0.2847 -0.2712 -0.2690
50367SOL    HW158341   3.818   8.677   9.267 -2.0624 -0.6594 -0.0073
50367SOL    HW258342   3.771   8.820   9.283 -0.6672 -0.1185 -0.5530
50368SOL     OW58343   9.037  12.144   3.692  0.3330  0.1832 -0.4135
50368SOL    HW158344   8.964  12.147   3.630 -0.2930  0.1979  0.3105
50368SOL    HW258345   9.098  12.210   3.660  0.7978 -0.9507 -1.9609
50369SOL     OW58346   3.910   3.313  12.099 -0.1350  0.3734  0.0076
50369SOL    HW158347   3.992   3.263  12.106  0.1367  0.6752 -0.8133
50369SOL    HW258348   3.861   3.290  12.177  0.0558 -1.0452 -0.2642
50370SOL     OW58349  10.383   7.465   4.444  0.1472  0.6187 -0.1128
50370SOL    HW158350  10.472   7.500   4.453 -0.2433  1.5947  0.0778
50370SOL    HW258351  10.364   7.427   4.530  0.3469  0.4779 -0.1287
50371SOL     OW58352   4.005  12.087   6.739  0.6782 -0.1697 -0.3803
50371SOL    HW158353   4.067  12.158   6.720  0.4713  0.3106  0.6541
50371SOL    HW258354   3.954  12.119   6.814 -0.0305 -1.0423 -0.4745
50372SOL     OW58355  11.299   8.669   2.566  0.8813  0.2601  0.3225
50372SOL    HW158356  11.307   8.670   2.470 -1.3416  1.2779  0.0730
50372SOL    HW258357  11.205   8.656   2.581  1.0057  1.3874  2.3390
50373SOL     OW58358   4.745   9.783   6.527 -0.5086  0.4646 -0.3499
50373SOL    HW158359   4.819   9.834   6.560  1.9150 -2.0911 -1.4100
50373SOL    HW258360   4.677   9.795   6.592  1.9699  0.4043  2.4686
50374SOL     OW58361   2.859   1.004   5.506  0.0027 -0.1473 -0.0576
50374SOL    HW158362   2.818   1.021   5.421  0.8011  2.8115  0.0479
50374SOL    HW258363   2.792   1.028   5.570 -0.9563 -3.2960  0.2885
50375SOL     OW58364  12.245   8.808   9.276  0.3534  0.0757  0.1461
50375SOL    HW158365  12.231   8.896   9.309  1.9383 -0.5160  2.6752
50375SOL    HW258366  12.287   8.821   9.191  0.5174  1.7492  0.4471
50376SOL     OW58367   6.176   5.086   7.829 -0.0937  0.5816 -0.6157
50376SOL    HW158368   6.253   5.137   7.852 -0.8245  1.4723 -0.0720
50376SOL    HW258369   6.172   5.091   7.733  1.1063 -0.3801 -0.7405
50377SOL     OW58370   4.454   3.231  12.081 -0.1011  0.4101 -0.6246
50377SOL    HW158371   4.488   3.217  11.993  0.5779  3.2813 -0.9011
50377SOL    HW258372   4.361   3.208  12.075  0.7769 -4.1454 -0.7400
50378SOL     OW58373   8.822   8.248   3.074 -0.7000 -0.7670 -0.2005
50378SOL    HW158374   8.878   8.321   3.103  0.1914 -1.2102 -0.7596
50378SOL    HW258375   8.734   8.273   3.101 -0.6610  1.2278 -1.6966
50379SOL     OW58376   5.707   5.981   4.345 -0.7204  0.5158  0.5435
50379SOL    HW158377   5.710   5.951   4.254  0.6583 -1.0957  1.0652
50379SOL    HW258378   5.629   5.938   4.381 -1.8832  1.9917 -0.0942
50380SOL     OW58379  12.211   5.005   9.888 -0.0774 -0.2805  0.1267
50380SOL    HW158380  12.252   5.054   9.959  1.1116 -0.3827 -0.4665
50380SOL    HW258381  12.244   5.046   9.808  0.1084 -1.3597 -0.3738
50381SOL     OW58382   5.611  10.613  12.657  0.1548 -0.3964 -0.1366
50381SOL    HW158383   5.625  10.690  12.602  0.0828 -1.0127 -1.0338
50381SOL    HW258384   5.665  10.629  12.735  0.3852  0.4155 -0.4553
50382SOL     OW58385   9.165   7.192   7.509  0.0643  0.0604 -0.2946
50382SOL    HW158386   9.235   7.165   7.567 -0.0562  0.8450  0.2321
50382SOL    HW258387   9.085   7.178   7.558 -0.1511 -0.7410 -0.8579
50383SOL     OW58388   3.594   1.584  10.898  0.2325 -0.3156 -0.3644
50383SOL    HW158389   3.687   1.575  10.877  0.3992 -1.4434  0.7696
50383SOL    HW258390   3.553   1.508  10.857  0.0343 -0.5816  0.3087
50384SOL     OW58391  10.533   0.441   7.417 -0.0598  0.6241  0.3398
50384SOL    HW158392  10.628   0.440   7.431 -0.0281 -1.4058  0.3670
50384SOL    HW258393  10.515   0.358   7.372 -1.8451  0.8930  0.4879
50385SOL     OW58394   5.864   6.784   2.742 -0.1133 -0.0737 -0.4459
50385SOL    HW158395   5.853   6.867   2.787  0.6140  0.8194 -1.8360
50385SOL    HW258396   5.874   6.808   2.650 -2.2003 -1.8348 -1.2313
50386SOL     OW58397   1.928  12.665   2.471  0.0215 -0.1303  0.0767
50386SOL    HW158398   1.962  12.649   2.382 -1.3694 -0.7940 -0.3597
50386SOL    HW258399   1.883  12.749   2.465  0.8489  0.3506  0.4467
50387SOL     OW58400   1.093   8.638   7.531 -0.1550  0.5377  0.2214
50387SOL    HW158401   1.102   8.562   7.473 -1.2100 -0.2052  0.9880
50387SOL    HW258402   1.060   8.707   7.474 -1.2644 -0.2051 -0.0909
50388SOL     OW58403   6.324   6.729  10.798  0.1598  0.8938 -0.1252
50388SOL    HW158404   6.324   6.747  10.892  0.6185  0.2650 -0.0020
50388SOL    HW258405   6.416   6.721  10.774  0.0281 -1.4947 -0.1086
50389SOL     OW58406   8.928   0.178   5.223  0.1630 -0.0485  1.0354
50389SOL    HW158407   8.845   0.190   5.268  0.7440 -0.3486  2.2181
50389SOL    HW258408   8.950   0.086   5.238  0.2630 -0.2218 -0.0663
50390SOL     OW58409   6.954   4.402   1.349  0.1769 -0.1239 -0.0811
50390SOL    HW158410   6.986   4.321   1.387 -0.1207 -0.5929 -0.8123
50390SOL    HW258411   6.950   4.385   1.255 -0.9845  0.3481 -0.1321
50391SOL     OW58412   1.783   2.119   6.592  0.4758 -0.2558  0.2584
50391SOL    HW158413   1.820   2.198   6.553 -0.0579  0.3743  1.0028
50391SOL    HW258414   1.839   2.048   6.559  0.9495  0.4170 -0.4352
50392SOL     OW58415   9.774   2.588  11.207  0.1513 -0.2071  0.3622
50392SOL    HW158416   9.800   2.573  11.117 -0.5333 -1.0586  0.2983
50392SOL    HW258417   9.835   2.534  11.259 -0.0851 -0.4875  0.3481
50393SOL     OW58418  12.514   1.933  12.109 -0.2165  0.1062  0.7472
50393SOL    HW158419  12.462   1.897  12.180 -0.1930 -0.6651  0.3888
50393SOL    HW258420  12.561   1.858  12.073 -0.2576  0.4722 -0.1014
50394SOL     OW58421   9.519   8.761   9.757 -0.4945  0.0350 -0.0032
50394SOL    HW158422   9.459   8.722   9.820  0.6151 -0.3831  0.8339
50394SOL    HW258423   9.581   8.691   9.737 -0.1208  0.5355 -0.6153
50395SOL     OW58424   3.347   4.066   0.451 -0.0082  0.0662 -0.0615
50395SOL    HW158425   3.279   4.065   0.519 -0.2285  0.6211 -0.2627
50395SOL    HW258426   3.325   3.994   0.393  0.0189 -0.2352  0.2922
50396SOL     OW58427   3.685   1.113   1.895  0.5014  0.1213  0.1155
50396SOL    HW158428   3.741   1.046   1.856  0.3897  0.5729 -0.8743
50396SOL    HW258429   3.727   1.196   1.871  0.6897  0.4154  1.3962
50397SOL     OW58430  12.412  12.545   0.153 -0.6471  0.1909 -0.3739
50397SOL    HW158431  12.410  12.518   0.244  1.1780  0.4581 -0.2244
50397SOL    HW258432  12.500  12.524   0.123 -1.1746  0.2122 -2.0479
50398SOL     OW58433   7.853   2.089   3.742 -0.2376  0.0979  0.4143
50398SOL    HW158434   7.895   2.098   3.827 -0.9073  0.8202  0.6776
50398SOL    HW258435   7.805   2.171   3.729 -0.3820 -0.1164 -0.5284
50399SOL     OW58436   4.823  10.064  10.578  0.2776 -0.0670  0.1678
50399SOL    HW158437   4.906  10.033  10.540 -0.2315 -0.2260 -0.8403
50399SOL    HW258438   4.794   9.992  10.634 -0.4663 -1.1192 -1.4926
50400SOL     OW58439  10.130   0.393  12.132 -0.1668  0.5278  0.2634
50400SOL    HW158440  10.074   0.465  12.103  2.0020  1.2214 -2.6384
50400SOL    HW258441  10.169   0.425  12.213 -0.9667  1.6579  0.2300
50401SOL     OW58442   3.264   8.328   0.207 -0.0568 -0.7516  0.6807
50401SOL    HW158443   3.228   8.365   0.126  0.2637 -0.8015  0.5129
50401SOL    HW258444   3.358   8.323   0.191  0.0888 -0.1607  1.2960
50402SOL     OW58445   4.832   4.732   3.985 -0.0854 -0.8239  0.0422
50402SOL    HW158446   4.847   4.651   4.035 -1.1821 -1.2182 -0.2309
50402SOL    HW258447   4.797   4.701   3.902  2.1811 -0.2158 -1.2311
50403SOL     OW58448   1.408   3.544  11.746 -0.2916 -0.0157  0.4424
50403SOL    HW158449   1.480   3.538  11.683 -0.2237 -0.6807  0.5696
50403SOL    HW258450   1.329   3.536  11.693 -0.2254 -2.8736  0.5894
50404SOL     OW58451   7.325   1.970   7.031  0.2100  0.2981  0.1823
50404SOL    HW158452   7.313   2.061   7.060  1.9944  1.0370 -1.2166
50404SOL    HW258453   7.350   1.977   6.939 -0.9075 -1.7150 -0.3278
50405SOL     OW58454   7.618   6.482   4.072 -0.0046 -0.0349 -0.5098
50405SOL    HW158455   7.554   6.542   4.035 -0.5035 -0.6220 -0.6081
50405SOL    HW258456   7.580   6.454   4.155 -1.7536 -3.3680 -2.2760
50406SOL     OW58457  11.035   5.765   6.100  0.0491  0.1311 -0.6082
50406SOL    HW158458  10.964   5.802   6.046 -0.2988  0.2515 -0.0753
50406SOL    HW258459  11.029   5.671   6.086 -1.3166 -0.0221  0.7319
50407SOL     OW58460   3.937   3.045   9.406  0.1598  0.0050 -0.1388
50407SOL    HW158461   3.958   2.952   9.412  0.3935  0.0286 -0.5563
50407SOL    HW258462   3.851   3.053   9.448  0.0409 -0.4342 -0.2909
50408SOL     OW58463   8.430   0.931   1.613 -0.1906  0.1962 -0.3826
50408SOL    HW158464   8.400   0.842   1.594 -2.6509  0.0928  3.1209
50408SOL    HW258465   8.524   0.921   1.629  0.0681 -1.2515 -2.3219
50409SOL     OW58466   9.581   8.836   1.027 -0.4371  0.4017  0.0073
50409SOL    HW158467   9.643   8.809   1.094  0.2753  2.2828  0.1668
50409SOL    HW258468   9.580   8.763   0.965  0.7848 -0.3135  0.7794
50410SOL     OW58469   7.965   2.053   0.934 -0.2654 -0.8009 -0.5147
50410SOL    HW158470   7.945   2.136   0.976 -0.3433 -0.8104 -0.5325
50410SOL    HW258471   8.053   2.032   0.964 -0.0836 -0.5097 -0.8407
50411SOL     OW58472   2.918  10.318   9.315 -0.1834 -0.5477 -0.5204
50411SOL    HW158473   2.993  10.378   9.316  0.5979 -1.4870  0.3984
50411SOL    HW258474   2.842  10.374   9.303  0.6315  0.4783 -1.0414
50412SOL     OW58475   6.455   0.985   8.352  0.2638  0.1786 -0.4916
50412SOL    HW158476   6.361   0.969   8.359  0.3421 -0.9190 -1.7737
50412SOL    HW258477   6.488   0.971   8.441 -0.5183 -1.2725 -0.4052
50413SOL     OW58478  11.634  12.617   6.376  0.0714  0.0054 -0.0364
50413SOL    HW158479  11.557  12.591   6.326 -0.9913  1.4141  0.7978
50413SOL    HW258480  11.707  12.609   6.314 -0.4629 -2.7183 -0.4485
50414SOL     OW58481  11.706   5.926  11.741 -0.1945  0.1553 -0.2481
50414SOL    HW158482  11.757   5.953  11.665  0.8036  0.4334  0.5044
50414SOL    HW258483  11.768   5.927  11.814 -0.8992 -1.0555  0.4013
50415SOL     OW58484   9.900   4.647   3.375 -0.3700 -0.4301  0.4784
50415SOL    HW158485   9.967   4.582   3.399 -1.3424 -1.2339  1.1344
50415SOL    HW258486   9.906   4.654   3.280 -0.0718 -1.3002  0.4202
50416SOL     OW58487   2.347   4.077   9.847  0.3548 -0.0716 -0.2359
50416SOL    HW158488   2.341   4.148   9.912  1.5906 -1.0313  0.9722
50416SOL    HW258489   2.317   3.999   9.894 -0.9326 -0.4086 -1.5378
50417SOL     OW58490   4.003   0.990   6.301 -0.0283  0.2103  0.6055
50417SOL    HW158491   4.045   0.947   6.226 -0.9933 -2.5251  1.4998
50417SOL    HW258492   4.048   0.954   6.377 -0.5258  1.2658  1.4129
50418SOL     OW58493   3.223   3.620   0.146  0.4005  0.2508  0.0658
50418SOL    HW158494   3.230   3.531   0.113 -1.3415 -0.4142  1.3524
50418SOL    HW258495   3.312   3.655   0.140  0.8525 -1.0750 -1.7364
50419SOL     OW58496   2.921  12.154   5.509  0.0589 -0.3115  0.0687
50419SOL    HW158497   2.988  12.190   5.567 -0.0049 -1.0093  0.5741
50419SOL    HW258498   2.853  12.221   5.506  0.5773  0.2146 -0.1085
50420SOL     OW58499   9.847   3.058   9.504  0.5964 -0.7998  0.1132
50420SOL    HW158500   9.795   3.124   9.549  1.5922 -0.3464  0.6252
50420SOL    HW258501   9.858   3.093   9.415  0.3639 -0.7086  0.1200
50421SOL     OW58502  10.258   8.793   6.630 -0.4173  0.5868  0.7557
50421SOL    HW158503  10.343   8.811   6.671 -0.8334 -0.0125  1.9175
50421SOL    HW258504  10.232   8.708   6.665 -1.0025  0.2500 -0.4423
50422SOL     OW58505   1.454   0.175   2.758  0.3440 -0.3794 -0.8430
50422SOL    HW158506   1.539   0.130   2.758  2.4403  3.1923 -1.9514
50422SOL    HW258507   1.448   0.214   2.846 -0.1662 -0.6507 -0.7572
50423SOL     OW58508   7.929  12.065   1.121  0.0517 -0.4817  0.1552
50423SOL    HW158509   7.835  12.047   1.120 -0.1074  0.1088 -2.2791
50423SOL    HW258510   7.969  11.983   1.151 -1.1658 -1.3639 -0.5247
50424SOL     OW58511  11.246   3.253   1.167 -0.6204 -0.5441 -0.0745
50424SOL    HW158512  11.227   3.342   1.137  0.1609 -0.3661 -0.0700
50424SOL    HW258513  11.228   3.254   1.261 -1.5294 -0.6613 -0.2356
50425SOL     OW58514   8.805   2.264   2.987 -0.1315 -0.1586  0.2197
50425SOL    HW158515   8.775   2.206   3.057 -1.7072 -0.0381 -0.3046
50425SOL    HW258516   8.886   2.225   2.955  0.1165 -0.7148  1.4895
50426SOL     OW58517   2.878   9.034   5.319 -0.2289  0.9385 -0.3334
50426SOL    HW158518   2.971   9.048   5.304  0.5094 -3.0325 -0.6832
50426SOL    HW258519   2.845   9.000   5.235 -1.0055 -1.2690  0.7651
50427SOL     OW58520   7.147   7.146  10.081 -0.1828  0.4105 -0.1705
50427SOL    HW158521   7.192   7.197  10.149  0.6228 -2.1253  1.3311
50427SOL    HW258522   7.211   7.136  10.011  0.4206 -0.2625  0.4581
50428SOL     OW58523  12.511   9.761   3.912  0.1311  0.8353 -0.6685
50428SOL    HW158524  12.495   9.667   3.920  0.8894  0.7208 -0.4645
50428SOL    HW258525  12.487   9.797   3.997  0.6646  0.7027 -0.4573
50429SOL     OW58526   9.012   9.752   0.300 -0.0263  0.4960 -0.0959
50429SOL    HW158527   8.953   9.813   0.343  1.3317  2.2636 -0.6085
50429SOL    HW258528   9.058   9.708   0.373 -0.5840  0.5235  0.2766
50430SOL     OW58529   5.895  11.509   5.894  0.0912  0.7540  0.1298
50430SOL    HW158530   5.971  11.555   5.930  0.9684 -0.4206 -0.1904
50430SOL    HW258531   5.841  11.489   5.970  0.9942 -0.0100  0.5802
50431SOL     OW58532   0.133   8.654  11.102  0.0857  0.1587  0.2844
50431SOL    HW158533   0.220   8.625  11.074  0.5197  1.4421  0.2630
50431SOL    HW258534   0.128   8.746  11.075 -0.9313  0.3577  1.0901
50432SOL     OW58535   8.387  11.115   0.752  0.0777  0.2303  0.4086
50432SOL    HW158536   8.295  11.091   0.765 -0.0246  0.3024 -0.1516
50432SOL    HW258537   8.412  11.161   0.832 -1.0559  2.2984 -0.3560
50433SOL     OW58538   8.760   9.818   5.951  0.1181 -0.1435  0.5966
50433SOL    HW158539   8.795   9.893   5.902 -2.0498 -0.2700 -1.3274
50433SOL    HW258540   8.744   9.853   6.039  2.8019  0.4878  0.9246
50434SOL     OW58541   0.021  11.162   2.750 -0.6049 -0.2037 -0.0357
50434SOL    HW158542  -0.072  11.173   2.734 -1.0017 -2.3304  0.5251
50434SOL    HW258543   0.027  11.088   2.810  1.4444 -0.0148  0.0847
50435SOL     OW58544   3.896   9.510   0.342  0.1506  0.2442 -0.5854
50435SOL    HW158545   3.831   9.447   0.373 -0.2695  0.6934 -0.5366
50435SOL    HW258546   3.905   9.492   0.248  1.2294 -0.9452 -0.2878
50436SOL     OW58547   4.704   0.154  10.050 -0.3006  0.1063  0.1538
50436SOL    HW158548   4.677   0.243  10.072  0.8352  0.5903 -0.3417
50436SOL    HW258549   4.798   0.153  10.065 -0.5696 -1.6984  2.4211
50437SOL     OW58550   7.269   6.466  10.677  0.0257  0.6526 -0.0150
50437SOL    HW158551   7.299   6.529  10.742 -1.0890 -0.6607  1.8674
50437SOL    HW258552   7.174   6.460  10.690  0.2704 -2.6737  1.1725
50438SOL     OW58553   2.982   6.455   0.117 -0.2441  0.5446 -0.3409
50438SOL    HW158554   3.069   6.461   0.077 -0.5850 -0.0640 -1.2232
50438SOL    HW258555   2.923   6.485   0.048 -0.9175 -1.2321 -0.5854
50439SOL     OW58556   7.232   3.043   1.997  0.2014 -0.1947 -0.0986
50439SOL    HW158557   7.183   2.973   2.040  1.9793 -1.5276 -0.0987
50439SOL    HW258558   7.222   3.118   2.054 -0.2637 -0.9607  0.8644
50440SOL     OW58559  11.301   9.681  11.785  0.0214 -0.1270 -0.0668
50440SOL    HW158560  11.238   9.708  11.852 -0.0105  1.0157 -0.5396
50440SOL    HW258561  11.334   9.597  11.816 -0.1247  0.2975  1.2927
50441SOL     OW58562   7.891   4.516   7.042  0.0978 -0.3096 -0.0418
50441SOL    HW158563   7.918   4.587   6.983 -1.3547  0.2984 -0.0322
50441SOL    HW258564   7.949   4.524   7.118 -0.3978  1.2738  0.2214
50442SOL     OW58565   8.894   9.059   7.818  0.0645 -0.4227  0.0364
50442SOL    HW158566   8.943   9.105   7.886 -1.1042 -0.6964  1.1094
50442SOL    HW258567   8.829   9.007   7.866  0.2568 -1.9077 -1.2055
50443SOL     OW58568   7.871   4.622   8.755  0.0373  0.0767  0.4547
50443SOL    HW158569   7.905   4.646   8.669  0.4044 -0.7891  0.3494
50443SOL    HW258570   7.924   4.546   8.781 -3.2076 -2.8569 -0.7000
50444SOL     OW58571   6.630   2.570   3.832 -0.3401  0.0338  0.4299
50444SOL    HW158572   6.584   2.506   3.779  0.1264  1.3057 -1.6198
50444SOL    HW258573   6.709   2.525   3.861 -0.7804 -0.7994  0.3731
50445SOL     OW58574   0.474   4.723   7.722  0.1134  0.3404  0.0145
50445SOL    HW158575   0.431   4.800   7.760 -0.3886  0.4444 -0.7267
50445SOL    HW258576   0.405   4.655   7.722  0.3168  0.1333 -0.0650
50446SOL     OW58577   6.780  11.393   1.532  0.3593  0.8064 -0.3943
50446SOL    HW158578   6.870  11.417   1.510 -0.0902  0.9656 -2.2414
50446SOL    HW258579   6.774  11.299   1.513  0.3212  0.6171  0.4806
50447SOL     OW58580   1.319   1.050   6.426 -0.3028 -0.5670  0.3000
50447SOL    HW158581   1.278   1.132   6.455 -1.2680 -0.9701  0.1340
50447SOL    HW258582   1.410   1.058   6.454  0.1371  1.4021 -1.4440
50448SOL     OW58583   5.390   6.285   1.932  0.1885  0.8894  0.2028
50448SOL    HW158584   5.429   6.227   1.866 -1.7455  0.9280 -1.0501
50448SOL    HW258585   5.440   6.366   1.925 -0.1304  0.9889 -1.4625
50449SOL     OW58586   5.541   3.718   0.453  0.0114  0.1045 -0.0430
50449SOL    HW158587   5.501   3.631   0.461  1.2514 -1.0469 -3.9871
50449SOL    HW258588   5.469   3.774   0.424 -0.3984  0.0130  0.7550
50450SOL     OW58589   1.449   0.921  10.304 -0.1283  0.1390 -0.0490
50450SOL    HW158590   1.452   1.015  10.319 -0.1831  0.1553 -0.1382
50450SOL    HW258591   1.533   0.889  10.337 -0.7552 -0.0011  1.4638
50451SOL     OW58592  11.282   6.993   9.331 -0.6824 -0.6096 -0.1810
50451SOL    HW158593  11.278   6.958   9.420 -1.6140  0.0971  0.0689
50451SOL    HW258594  11.294   6.916   9.275  2.1144 -0.9269  0.6618
50452SOL     OW58595   8.973   0.514   6.407  0.1794 -0.4034 -0.3617
50452SOL    HW158596   8.925   0.596   6.418  0.8310 -0.0600 -0.0446
50452SOL    HW258597   8.933   0.473   6.330 -1.6752 -0.8738  0.7900
50453SOL     OW58598   0.050   8.984   4.072 -0.1958 -0.0541 -0.1915
50453SOL    HW158599   0.140   9.016   4.066 -0.2571  0.2769  0.6114
50453SOL    HW258600   0.025   8.966   3.981  0.6881 -0.1740 -0.4156
50454SOL     OW58601  10.138   5.451   1.048 -0.2200 -0.3540 -0.0565
50454SOL    HW158602  10.104   5.491   0.969  0.0268 -1.0245 -0.5131
50454SOL    HW258603  10.161   5.525   1.104 -0.8094  0.1213 -0.4262
50455SOL     OW58604  10.396   1.563  11.870 -0.3484  0.1310  0.0658
50455SOL    HW158605  10.358   1.540  11.785 -1.1701 -1.4905  0.8246
50455SOL    HW258606  10.389   1.659  11.874  0.3976  0.3327 -1.9715
50456SOL     OW58607   2.966   7.791   3.452 -0.4629 -0.3542  0.5977
50456SOL    HW158608   2.942   7.730   3.522  0.2814 -0.2087  0.9860
50456SOL    HW258609   2.984   7.735   3.376  0.9165 -0.6836  1.1488
50457SOL     OW58610   3.463   4.186   1.579 -0.2961  0.2245 -0.4681
50457SOL    HW158611   3.427   4.098   1.571  1.1069 -0.3437 -0.8177
50457SOL    HW258612   3.404   4.231   1.639  0.7447 -1.9782  2.4076
50458SOL     OW58613   0.929   6.110   3.455  0.2261 -0.0627  0.4549
50458SOL    HW158614   0.874   6.090   3.530  0.0053 -0.6838  0.1303
50458SOL    HW258615   0.994   6.171   3.489  0.2820 -0.5339  1.2161
50459SOL     OW58616   0.461   7.646  10.829  0.3191 -0.7715 -0.4347
50459SOL    HW158617   0.506   7.716  10.875 -1.7934 -0.1361  0.7832
50459SOL    HW258618   0.453   7.678  10.739  0.9517 -0.2583 -0.3139
50460SOL     OW58619   6.607   9.093  11.910  0.0508  0.4191  0.2377
50460SOL    HW158620   6.592   9.029  11.980 -0.1683 -0.0954 -0.2744
50460SOL    HW258621   6.634   9.173  11.956 -1.4934  0.5416  1.0270
50461SOL     OW58622   0.555   8.068   1.857 -0.6906  0.4532 -0.1228
50461SOL    HW158623   0.501   8.105   1.926 -0.7424 -0.1576  0.1674
50461SOL    HW258624   0.494   8.020   1.801 -0.4954  0.0251  0.0267
50462SOL     OW58625   6.768   0.003   3.563 -0.0362  0.3842 -0.5228
50462SOL    HW158626   6.683  -0.025   3.596  1.0466 -0.7017  1.5655
50462SOL    HW258627   6.783  -0.051   3.485 -0.5039 -0.7058  0.1266
50463SOL     OW58628   9.011  10.704   6.687  0.2061  0.5446  0.0532
50463SOL    HW158629   8.941  10.688   6.624  2.4674 -1.5215 -2.2092
50463SOL    HW258630   9.003  10.634   6.751 -0.3914  0.9230  0.3946
50464SOL     OW58631   7.151  12.179   0.740  0.2136 -0.3246  0.1832
50464SOL    HW158632   7.184  12.220   0.660 -0.0167  0.2699  0.3827
50464SOL    HW258633   7.123  12.092   0.713 -0.2732  0.0299 -0.4810
50465SOL     OW58634  11.352   3.711   1.501 -0.3953  0.9849  0.3850
50465SOL    HW158635  11.373   3.761   1.422 -2.4902  0.6139 -0.4590
50465SOL    HW258636  11.287   3.764   1.547 -2.2509 -0.6438 -0.2518
50466SOL     OW58637   8.922  12.045   5.958  0.5140  0.1244  0.5861
50466SOL    HW158638   8.998  12.022   6.010  0.5337 -1.2333  0.0098
50466SOL    HW258639   8.899  12.133   5.986 -0.1165 -0.9059  3.6454
50467SOL     OW58640   9.919   5.591   7.913  0.4669 -0.1180  0.0758
50467SOL    HW158641   9.970   5.526   7.864  0.6172  0.3465 -0.3913
50467SOL    HW258642   9.900   5.659   7.849 -0.7423 -0.2776  0.2340
50468SOL     OW58643  11.350   3.166   7.157  0.0941  0.6191  0.7496
50468SOL    HW158644  11.290   3.125   7.219  0.6035  0.2478  0.9976
50468SOL    HW258645  11.412   3.215   7.212  1.1355 -0.4937  0.5947
50469SOL     OW58646  10.880   9.265   2.490  0.5112  0.3414 -0.1043
50469SOL    HW158647  10.905   9.347   2.447 -1.8551  2.0047  1.4573
50469SOL    HW258648  10.873   9.288   2.582 -1.1192 -1.3830  0.2549
50470SOL     OW58649   7.173   5.165   2.085  0.6497  0.3463  0.2486
50470SOL    HW158650   7.229   5.125   2.019  0.4909  0.2978  0.1436
50470SOL    HW258651   7.131   5.238   2.040  2.3670  1.8272  0.9259
50471SOL     OW58652   2.868  11.108   8.932 -0.3417  0.5319 -0.6551
50471SOL    HW158653   2.847  11.171   9.001 -1.7377 -0.8732  0.2656
50471SOL    HW258654   2.806  11.036   8.945  2.5077 -2.0490 -0.3133
50472SOL     OW58655   9.970   6.210   2.271 -0.0199  0.1099 -0.2607
50472SOL    HW158656  10.003   6.152   2.339  1.4845 -1.1835 -1.9983
50472SOL    HW258657   9.895   6.163   2.234 -0.9987  0.9295  0.6408
50473SOL     OW58658   7.875  11.623   0.144  0.1270  0.2306 -0.1964
50473SOL    HW158659   7.928  11.687   0.192 -0.7027  0.4596  0.4373
50473SOL    HW258660   7.841  11.672   0.069 -1.0081  0.7306  0.6191
50474SOL     OW58661  10.305   0.871   4.848 -0.0967  0.3683  0.1087
50474SOL    HW158662  10.264   0.912   4.772  1.0741  0.4160 -0.5332
50474SOL    HW258663  10.340   0.789   4.814 -0.4000 -0.0698  0.8379
50475SOL     OW58664   5.288   6.733   4.757  0.4163 -0.5760 -0.8040
50475SOL    HW158665   5.320   6.695   4.675 -1.3009 -0.2051 -1.6952
50475SOL    HW258666   5.195   6.749   4.741  0.6545  2.3908  0.1158
50476SOL     OW58667  12.223   1.398  12.519 -0.3192 -0.0000 -0.3686
50476SOL    HW158668  12.233   1.388  12.614 -0.3987  0.9258 -0.2559
50476SOL    HW258669  12.135   1.366  12.501  0.1325 -1.3411 -0.3184
50477SOL     OW58670   9.417   0.356   0.032  0.1297 -0.2793  0.4394
50477SOL    HW158671   9.476   0.430   0.044 -1.1002  0.8670 -0.2257
50477SOL    HW258672   9.387   0.334   0.120  2.1377 -1.4464  0.8929
50478SOL     OW58673   1.308  12.308   3.632  0.1386 -0.2801  0.0033
50478SOL    HW158674   1.312  12.378   3.567 -0.3516  0.0802  0.3479
50478SOL    HW258675   1.385  12.254   3.615 -1.5076 -2.0113 -2.9084
50479SOL     OW58676   4.713   2.757   8.589 -0.0528 -0.2284  0.1709
50479SOL    HW158677   4.660   2.682   8.616  0.4781 -0.9782 -0.7956
50479SOL    HW258678   4.665   2.833   8.621 -0.5626 -0.9821  1.2428
50480SOL     OW58679   9.498   9.305   2.049  0.2082  0.3843  0.2737
50480SOL    HW158680   9.516   9.398   2.063 -0.8624  0.6478 -0.0035
50480SOL    HW258681   9.410   9.292   2.085 -0.4470 -0.0809 -1.3761
50481SOL     OW58682  10.108   1.348   1.428  0.4395  0.0743 -0.0060
50481SOL    HW158683  10.025   1.387   1.458  1.1562  1.4317  0.2657
50481SOL    HW258684  10.097   1.254   1.445 -0.7902  0.3112  0.6421
50482SOL     OW58685   0.039  12.562  10.584  0.2634  0.5305 -0.1213
50482SOL    HW158686   0.093  12.630  10.542  0.5722 -0.4535 -1.4058
50482SOL    HW258687  -0.044  12.605  10.602  1.0080  1.7052  0.6391
50483SOL     OW58688   8.394   4.093   1.943  0.1970  0.4542 -0.1328
50483SOL    HW158689   8.417   4.177   1.982  0.4777  1.6563 -2.6506
50483SOL    HW258690   8.477   4.046   1.936  0.0415 -0.0774  1.2636
50484SOL     OW58691   3.465   2.404  12.230  0.3063  0.1199  0.0844
50484SOL    HW158692   3.400   2.335  12.215 -0.7820  1.0754  0.2514
50484SOL    HW258693   3.538   2.381  12.172  0.0751 -1.2869  0.3141
50485SOL     OW58694   6.948   0.987  10.761 -0.3287  0.0765 -0.3118
50485SOL    HW158695   7.038   1.015  10.748 -0.7822  1.6410 -0.3070
50485SOL    HW258696   6.953   0.916  10.825  0.8860  0.1239 -0.3469
50486SOL     OW58697   2.580  10.808   7.342 -0.3100 -0.0724 -0.0821
50486SOL    HW158698   2.539  10.887   7.306 -0.7448 -0.2691 -0.0261
50486SOL    HW258699   2.661  10.840   7.382 -1.0646  0.5447  1.0285
50487SOL     OW58700  11.488   1.285  10.140 -0.5495  0.9783 -0.2181
50487SOL    HW158701  11.500   1.218  10.073  0.0731  0.2228  0.6277
50487SOL    HW258702  11.563   1.342  10.132 -0.5396  0.9609 -0.2513
50488SOL     OW58703   3.675  11.482   9.994 -0.7911 -0.1357  0.2240
50488SOL    HW158704   3.697  11.574  10.012  0.3773 -0.4708  0.6504
50488SOL    HW258705   3.698  11.470   9.902  0.6313 -0.4006  0.5858
50489SOL     OW58706   9.730  10.417   5.734 -0.9873  0.3471 -0.0831
50489SOL    HW158707   9.798  10.453   5.790 -1.2522  0.6441  0.0539
50489SOL    HW258708   9.681  10.493   5.703 -1.4837  0.1141  0.1195
50490SOL     OW58709   1.507   1.262   7.315  0.1380  0.4065  0.4724
50490SOL    HW158710   1.456   1.326   7.265  0.3238 -0.7863 -1.3514
50490SOL    HW258711   1.596   1.272   7.283  0.1519 -0.8034  0.0693
50491SOL     OW58712   7.220   4.905   9.462 -0.1312  0.4546  0.3225
50491SOL    HW158713   7.135   4.877   9.494  1.0646 -1.6512  1.9577
50491SOL    HW258714   7.235   4.990   9.505 -0.3677 -0.3541  2.0777
50492SOL     OW58715  10.265   6.443   3.583 -0.2183  0.1393  0.5600
50492SOL    HW158716  10.322   6.407   3.516  0.0998  0.3740  0.6988
50492SOL    HW258717  10.199   6.493   3.535 -1.2813 -1.4416  0.3045
50493SOL     OW58718   0.179   0.353   5.041 -0.1731 -0.1611  0.6794
50493SOL    HW158719   0.269   0.320   5.038 -0.4737 -1.1155  1.4650
50493SOL    HW258720   0.133   0.305   4.973 -0.2007 -0.0161  0.5948
50494SOL     OW58721   7.916   7.944   3.394  0.3469 -0.3534  0.3644
50494SOL    HW158722   7.962   7.931   3.311 -0.8737  2.4083 -0.8837
50494SOL    HW258723   7.836   7.893   3.385  1.3435 -2.1297  0.9917
50495SOL     OW58724   7.591   6.568  11.319  0.0556 -0.1234  0.0320
50495SOL    HW158725   7.619   6.571  11.410  2.5594  0.7183 -0.7052
50495SOL    HW258726   7.652   6.507  11.277 -0.0960  0.6611 -1.3811
50496SOL     OW58727  10.268   0.954   8.286 -0.1757  0.3295 -0.3816
50496SOL    HW158728  10.251   1.043   8.255  0.8578  0.3983 -0.8060
50496SOL    HW258729  10.197   0.902   8.248 -0.1830  0.7908 -1.0265
50497SOL     OW58730   4.281   2.257   1.031 -0.3443  0.2286 -0.0667
50497SOL    HW158731   4.360   2.298   0.996 -0.2252  1.8196  1.8901
50497SOL    HW258732   4.232   2.330   1.070 -1.7388 -1.0472  0.6415
50498SOL     OW58733  12.071   9.994   4.315 -0.2410 -0.7574  0.2327
50498SOL    HW158734  12.125   9.992   4.237 -0.2795 -2.2773  0.2124
50498SOL    HW258735  12.128  10.028   4.384  0.2108 -0.6997 -0.1684
50499SOL     OW58736  11.675  12.591  10.176  0.2521  0.4104  0.2652
50499SOL    HW158737  11.716  12.509  10.202 -0.8376 -0.1479  0.2460
50499SOL    HW258738  11.582  12.578  10.190  0.0474  1.6095  0.1610
50500SOL     OW58739   2.823   6.429   9.214 -0.1772 -0.5591  0.0781
50500SOL    HW158740   2.834   6.379   9.295 -0.9601 -2.2978 -0.8384
50500SOL    HW258741   2.911   6.436   9.178  0.5554  2.1122  2.0594
50501SOL     OW58742   4.046   1.659   8.105 -0.1725 -0.4580 -0.0110
50501SOL    HW158743   4.055   1.653   8.010 -2.2774  0.3150 -0.3211
50501SOL    HW258744   4.065   1.571   8.136 -0.4368 -0.9804 -1.2634
50502SOL     OW58745   6.178   2.499   6.819 -1.1973  0.5522 -0.0700
50502SOL    HW158746   6.152   2.536   6.734 -0.3027 -0.0005 -0.5962
50502SOL    HW258747   6.235   2.425   6.797  0.7341  1.6374  1.0089
50503SOL     OW58748   2.063   8.573  11.560  0.1632 -0.0447  0.4556
50503SOL    HW158749   2.117   8.641  11.519  1.6265 -0.6515  1.3027
50503SOL    HW258750   1.987   8.566  11.502  1.6791 -0.2055 -1.6596
50504SOL     OW58751  12.126   7.825   3.947 -0.3195 -0.8463 -0.3657
50504SOL    HW158752  12.087   7.902   3.988 -0.6571 -0.5771 -1.1640
50504SOL    HW258753  12.062   7.755   3.961  0.0681 -1.0363  0.5165
50505SOL     OW58754   9.735   0.492  10.405  0.1111  0.0474  0.0057
50505SOL    HW158755   9.694   0.412  10.440  1.5710 -0.5835  0.3536
50505SOL    HW258756   9.815   0.502  10.456  0.8279  0.7631 -1.2076
50506SOL     OW58757   7.748   0.279  11.171 -0.5698  0.3766 -0.4712
50506SOL    HW158758   7.669   0.319  11.136 -0.7568  0.6310  0.2266
50506SOL    HW258759   7.815   0.348  11.164 -0.2126 -0.0653 -1.7177
50507SOL     OW58760  10.154   5.891   4.654 -0.2944 -0.7048  0.0258
50507SOL    HW158761  10.191   5.979   4.640  0.5303 -0.9291  0.7308
50507SOL    HW258762  10.102   5.875   4.576  2.7845 -1.2424 -2.1127
50508SOL     OW58763  12.179   0.329   9.041 -0.2793  0.2105 -0.2773
50508SOL    HW158764  12.109   0.393   9.056 -1.8297 -1.4704 -0.0337
50508SOL    HW258765  12.176   0.313   8.947 -0.8107 -0.4685 -0.1548
50509SOL     OW58766   9.869  12.648   4.198 -0.0911 -0.2988 -0.1568
50509SOL    HW158767   9.922  12.683   4.126  0.1616  0.5332  0.4174
50509SOL    HW258768   9.790  12.702   4.197 -0.7095 -1.1806 -0.6643
50510SOL     OW58769   5.978   9.969   8.073  0.0790  0.3971  0.3178
50510SOL    HW158770   5.931   9.904   8.126 -0.1131  0.0680 -0.2432
50510SOL    HW258771   6.046   9.919   8.028  1.4665  0.9959  1.6773
50511SOL     OW58772   0.739   3.455   7.938  0.9731  0.1667  0.4961
50511SOL    HW158773   0.690   3.438   8.018  0.0201 -0.4584 -0.1911
50511SOL    HW258774   0.788   3.374   7.921  0.5842  0.0175  0.0572
50512SOL     OW58775   5.547   7.788   9.139  0.0606  0.4889  0.3795
50512SOL    HW158776   5.481   7.790   9.209 -1.1141 -1.2709 -0.6085
50512SOL    HW258777   5.515   7.851   9.075 -0.1673  0.3287  0.3329
50513SOL     OW58778   8.964   0.488   0.515  0.2819 -0.4794 -0.0031
50513SOL    HW158779   8.956   0.475   0.610 -0.0117 -1.1541 -0.1126
50513SOL    HW258780   8.900   0.427   0.478  0.1477  0.0387 -0.6221
50514SOL     OW58781   0.062   8.920  10.986 -0.4157  0.0691 -0.3652
50514SOL    HW158782   0.136   8.958  10.939 -1.9452  1.2763 -1.9517
50514SOL    HW258783  -0.010   8.981  10.971 -1.6646 -0.8575  1.4345
50515SOL     OW58784   9.877   0.115   7.691 -0.0059  0.0502 -0.5733
50515SOL    HW158785   9.783   0.108   7.671 -0.0798  0.8526 -0.5553
50515SOL    HW258786   9.919   0.114   7.605 -0.0167 -0.4366 -0.5762
50516SOL     OW58787   0.666   3.542  11.884  0.1560  0.0921  0.0584
50516SOL    HW158788   0.580   3.577  11.861 -0.4243 -1.2026  0.1893
50516SOL    HW258789   0.712   3.538  11.800 -0.3315 -0.3162 -0.1964
50517SOL     OW58790   8.886  10.810   5.466  0.4433 -0.1436 -0.2277
50517SOL    HW158791   8.806  10.758   5.457  0.2357  0.0488  0.4092
50517SOL    HW258792   8.944  10.757   5.520  1.1373 -0.7017 -1.4778
50518SOL     OW58793   8.655   9.364   1.128  0.2647 -0.1520 -0.1475
50518SOL    HW158794   8.611   9.341   1.209  1.6167  0.3555  0.7580
50518SOL    HW258795   8.590   9.346   1.059 -0.0155 -3.0623  0.7750
50519SOL     OW58796   9.443  11.183   9.096 -0.3163  0.1578 -0.3811
50519SOL    HW158797   9.451  11.212   9.187  2.5746 -0.5287 -0.3309
50519SOL    HW258798   9.404  11.096   9.102 -0.1414  0.1154  0.1998
50520SOL     OW58799  10.193   9.647  10.932  0.2420  0.3865  0.5174
50520SOL    HW158800  10.116   9.609  10.890  1.0215 -0.5247 -0.1047
50520SOL    HW258801  10.198   9.603  11.017  0.6961 -0.3418  0.1164
50521SOL     OW58802   9.314   4.952   3.953 -0.3691 -0.1540 -0.0292
50521SOL    HW158803   9.251   5.008   3.907  1.4236 -0.5876 -3.3494
50521SOL    HW258804   9.304   4.866   3.911  0.3163 -1.0353  1.5554
50522SOL     OW58805   6.527   4.230   1.417 -0.1129  0.3804  0.3862
50522SOL    HW158806   6.504   4.301   1.358  1.3260  0.8704  0.3726
50522SOL    HW258807   6.499   4.151   1.372  1.3021  0.7100 -1.1834
50523SOL     OW58808  12.360   5.546   0.112  0.2882  0.3199  0.5680
50523SOL    HW158809  12.401   5.479   0.057 -2.2641 -0.6729 -0.2887
50523SOL    HW258810  12.401   5.628   0.083  0.1077 -0.3468 -1.8478
50524SOL     OW58811   4.553   0.233   4.367 -0.2576 -0.8302 -0.2520
50524SOL    HW158812   4.461   0.233   4.395 -0.2162 -0.5662 -0.1156
50524SOL    HW258813   4.551   0.279   4.283 -0.1377 -0.1337  0.1245
50525SOL     OW58814  12.043   3.567   4.842 -0.5802 -0.2625  0.1311
50525SOL    HW158815  12.067   3.476   4.860  0.8289  0.2395  0.9132
50525SOL    HW258816  11.959   3.579   4.885 -0.0141 -0.7477  1.4049
50526SOL     OW58817   5.714   4.033   3.989 -0.2841  0.1133 -0.3034
50526SOL    HW158818   5.738   3.940   3.991 -1.6257 -0.2540  1.5631
50526SOL    HW258819   5.646   4.041   4.055 -0.6500  2.3322 -0.8812
50527SOL     OW58820   5.020   7.090   2.734  0.0382 -0.0764  0.2102
50527SOL    HW158821   5.011   7.182   2.760  0.1952 -0.3459  1.2925
50527SOL    HW258822   5.033   7.043   2.817 -0.9438 -1.1924 -0.2421
50528SOL     OW58823   8.726  12.651   9.369  0.0464 -0.0143 -0.0268
50528SOL    HW158824   8.727  12.706   9.448 -1.8043  0.5558 -0.3551
50528SOL    HW258825   8.645  12.600   9.377 -0.1141 -0.0131 -1.5071
50529SOL     OW58826   1.997   6.883  12.243  0.2572  0.4666 -0.3115
50529SOL    HW158827   1.989   6.977  12.230  0.0982  0.6346  0.8459
50529SOL    HW258828   2.068   6.874  12.307 -0.2662 -0.1395  0.1941
50530SOL     OW58829   1.586   3.433   5.297  0.1154 -0.1363 -0.1337
50530SOL    HW158830   1.660   3.487   5.326  2.0030 -1.9883 -1.1817
50530SOL    HW258831   1.521   3.496   5.266  2.3608  1.5913 -1.7079
50531SOL     OW58832   5.396  11.094   7.981  0.3382  0.2121  0.4764
50531SOL    HW158833   5.448  11.145   7.918  0.2062 -0.6489 -0.3550
50531SOL    HW258834   5.410  11.003   7.954 -2.2760 -0.0272 -0.3402
50532SOL     OW58835  11.920   6.181  12.197  0.2621  0.1612  0.6486
50532SOL    HW158836  11.884   6.108  12.248 -2.0883  1.7787  1.4840
50532SOL    HW258837  11.888   6.259  12.241  2.3082  1.7518 -0.4829
50533SOL     OW58838   9.049   3.940   1.246  0.2795 -0.2826 -0.1165
50533SOL    HW158839   9.094   3.935   1.330  1.2209  1.2783 -0.4919
50533SOL    HW258840   9.025   3.849   1.227  0.2906 -0.7112  1.6826
50534SOL     OW58841   2.029   1.582   3.841 -0.2166 -1.0318 -0.3829
50534SOL    HW158842   2.006   1.490   3.837  0.0005 -1.2765  2.1442
50534SOL    HW258843   2.069   1.593   3.928 -1.0016  1.5884 -0.2558
50535SOL     OW58844   6.397   3.476  11.295 -0.0270 -0.4298 -0.7887
50535SOL    HW158845   6.477   3.428  11.278  0.1697 -0.1746 -0.6032
50535SOL    HW258846   6.390   3.539  11.223 -0.1657 -0.5859 -0.9122
50536SOL     OW58847  10.526   1.194   6.404 -0.3325 -0.4352 -0.8588
50536SOL    HW158848  10.588   1.144   6.457 -0.5046  0.3984  0.1589
50536SOL    HW258849  10.581   1.255   6.354 -0.3435  1.1827  0.9773
50537SOL     OW58850   8.644   5.105   8.820  0.7347  0.0580 -0.1625
50537SOL    HW158851   8.620   5.012   8.819 -1.4725  0.5549 -1.7127
50537SOL    HW258852   8.595   5.141   8.895 -0.3516  0.3623 -0.9904
50538SOL     OW58853   3.823   7.098   1.426 -0.9047  0.1781  0.5473
50538SOL    HW158854   3.874   7.176   1.447 -1.2499  0.1672  1.4749
50538SOL    HW258855   3.800   7.061   1.512  0.1170 -1.5167  0.1365
50539SOL     OW58856   6.604   8.579   2.468 -0.1633 -0.2958  0.1261
50539SOL    HW158857   6.666   8.508   2.486 -0.3932 -0.2268  1.3213
50539SOL    HW258858   6.626   8.647   2.532 -0.5717  0.3074 -0.3651
50540SOL     OW58859   4.827   6.314   0.417  0.2269  0.0606  0.0141
50540SOL    HW158860   4.851   6.236   0.368  0.2624  0.5794 -0.8165
50540SOL    HW258861   4.891   6.380   0.389 -0.6107  0.7566 -0.3155
50541SOL     OW58862   2.918  11.413   0.836 -0.1563  0.5835  0.3187
50541SOL    HW158863   2.909  11.496   0.882 -1.6561  0.4394  0.3166
50541SOL    HW258864   2.832  11.396   0.799 -0.4449 -1.8830  1.8782
50542SOL     OW58865  11.143   2.823   1.573 -0.0394 -0.5751  0.2362
50542SOL    HW158866  11.161   2.733   1.545  2.5380 -0.0919  0.0752
50542SOL    HW258867  11.222   2.849   1.622 -1.4737  1.0107  1.8609
50543SOL     OW58868   2.293   9.514   1.592  0.0001 -0.3405  0.2987
50543SOL    HW158869   2.222   9.450   1.591  0.9708 -1.4273 -0.3342
50543SOL    HW258870   2.253   9.593   1.630 -1.6915 -0.7344 -0.5588
50544SOL     OW58871  10.480   9.953   0.837  0.0547  0.2044 -0.5581
50544SOL    HW158872  10.559   9.899   0.833 -1.0650 -1.7070  0.8999
50544SOL    HW258873  10.427   9.911   0.905 -2.2119  1.4259 -1.4754
50545SOL     OW58874   0.198   2.886   8.575  0.4108 -0.0091 -0.5531
50545SOL    HW158875   0.285   2.873   8.539  1.8191 -0.5739  2.6655
50545SOL    HW258876   0.208   2.958   8.637 -1.7565  0.7374 -0.9607
50546SOL     OW58877   8.978   8.165  12.435 -0.3165 -0.1532 -0.6756
50546SOL    HW158878   8.911   8.100  12.459  0.0878 -0.1792  0.4349
50546SOL    HW258879   9.051   8.147  12.494  0.1769  0.7003 -1.0095
50547SOL     OW58880   8.390   7.015   0.856 -0.3510  0.0548  0.6169
50547SOL    HW158881   8.296   6.999   0.856 -0.4134  0.2872 -0.9381
50547SOL    HW258882   8.411   7.035   0.765  1.5633 -2.0135  0.5148
50548SOL     OW58883   9.445  12.340  12.254  0.0299  0.2124  0.6967
50548SOL    HW158884   9.364  12.294  12.275  0.1649 -0.5764 -0.4053
50548SOL    HW258885   9.429  12.431  12.280 -0.7028 -0.2073  1.7463
50549SOL     OW58886   1.277   7.857   8.961 -0.0132 -0.2761  0.7137
50549SOL    HW158887   1.215   7.800   8.916 -0.5379  1.4915 -0.9496
50549SOL    HW258888   1.241   7.867   9.049  0.2769 -2.6944  1.1806
50550SOL     OW58889  10.027   9.636  12.445 -0.1004 -0.4574 -0.3107
50550SOL    HW158890   9.933   9.619  12.453 -0.0731  0.0614  1.2057
50550SOL    HW258891  10.065   9.601  12.525  1.1240 -1.3349 -1.2268
50551SOL     OW58892   0.951   8.010   0.025 -0.4748  0.2639 -0.1211
50551SOL    HW158893   0.967   8.034   0.116  0.8150  0.2342 -0.3160
50551SOL    HW258894   0.857   8.019   0.013 -0.5464  1.0827  0.9800
50552SOL     OW58895   2.000   2.520   2.999 -0.0564 -0.4860 -0.0177
50552SOL    HW158896   1.916   2.475   3.006  0.4687 -1.6997 -1.1399
50552SOL    HW258897   1.977   2.613   2.990 -1.1696 -0.5046  2.0596
50553SOL     OW58898   3.083   8.618   2.102  0.5050  0.6525  0.0727
50553SOL    HW158899   3.049   8.699   2.139  0.4678  0.6492  0.0447
50553SOL    HW258900   3.009   8.557   2.104  0.8769  0.2048  1.3227
50554SOL     OW58901   5.930  10.830   1.871  0.0319 -0.2825  0.1518
50554SOL    HW158902   5.931  10.757   1.809 -1.1303  1.1124 -1.5764
50554SOL    HW258903   6.000  10.887   1.842  1.2158 -0.8297  1.7542
50555SOL     OW58904   5.910   9.061   3.385  0.4934 -0.2794 -0.3489
50555SOL    HW158905   5.885   9.015   3.305  0.1006 -0.2151 -0.2616
50555SOL    HW258906   6.004   9.042   3.395  0.8116  0.5911 -1.4109
50556SOL     OW58907   8.030   7.955   2.236  0.5748 -0.2235 -0.2575
50556SOL    HW158908   7.939   7.964   2.208  0.8501  2.9945 -0.5382
50556SOL    HW258909   8.027   7.962   2.332  0.5349  0.1846 -0.2868
50557SOL     OW58910   4.602   0.716  10.215  0.1297 -0.0246 -0.0660
50557SOL    HW158911   4.523   0.768  10.231  0.4899  1.0171 -1.5261
50557SOL    HW258912   4.569   0.633  10.180 -0.2995  1.2309 -2.8437
50558SOL     OW58913   0.820   5.246   4.775 -0.4965  0.1041  0.7334
50558SOL    HW158914   0.886   5.178   4.791 -0.0723  0.2338 -0.3760
50558SOL    HW258915   0.764   5.244   4.853 -1.3704 -2.5305  0.1492
50559SOL     OW58916   7.862   9.452   4.082 -0.0997  0.4350 -0.6093
50559SOL    HW158917   7.879   9.374   4.029 -0.0744  2.0518 -3.1411
50559SOL    HW258918   7.915   9.521   4.042  0.1666  1.7398  1.7558
50560SOL     OW58919   1.971   2.310   7.600 -0.2865 -0.1325  0.4083
50560SOL    HW158920   1.898   2.290   7.659 -2.1484 -1.7356 -2.1787
50560SOL    HW258921   1.931   2.358   7.527  1.9335  1.9353  0.4317
50561SOL     OW58922   5.046   1.243   2.059 -0.0911  0.2046  0.4400
50561SOL    HW158923   4.983   1.173   2.077  0.3001 -0.3430 -0.2688
50561SOL    HW258924   5.074   1.272   2.146 -0.2539 -0.5220  0.7514
50562SOL     OW58925   1.663   5.198   9.561  0.4869 -0.1610  0.3432
50562SOL    HW158926   1.702   5.111   9.568  1.8997  0.3050 -1.1164
50562SOL    HW258927   1.716   5.243   9.495 -1.1012  1.3268 -0.0010
50563SOL     OW58928   3.464   3.980   5.618 -0.2672  0.0413 -0.0906
50563SOL    HW158929   3.433   3.982   5.527 -0.6650 -2.2310 -0.0529
50563SOL    HW258930   3.480   4.072   5.639  0.5338  0.5941 -2.6847
50564SOL     OW58931   2.922  10.680   7.095 -0.6153  0.4708 -0.0239
50564SOL    HW158932   2.828  10.696   7.090 -1.0904 -1.8257  0.4236
50564SOL    HW258933   2.940  10.671   7.188  0.0665  0.9442 -0.1048
50565SOL     OW58934   2.245  11.609   1.267 -0.2506 -0.2790 -0.2510
50565SOL    HW158935   2.332  11.584   1.300 -0.1749 -1.2467 -1.1347
50565SOL    HW258936   2.254  11.609   1.172 -1.8497 -3.1443 -0.5360
50566SOL     OW58937  11.136   3.699   9.637  0.2122  0.3055 -0.5121
50566SOL    HW158938  11.182   3.767   9.587  2.0954  2.0084  3.1589
50566SOL    HW258939  11.089   3.747   9.705 -1.5976 -1.9062 -0.0725
50567SOL     OW58940   3.631  10.887   2.294  0.3604  0.2127  0.3934
50567SOL    HW158941   3.651  10.832   2.370  1.1095  0.4047  0.3401
50567SOL    HW258942   3.675  10.843   2.221 -2.2161 -1.2767 -0.4230
50568SOL     OW58943   3.023   2.135   3.003  0.0318  0.1012 -0.3984
50568SOL    HW158944   3.063   2.203   2.948 -0.6293  3.0764  2.4790
50568SOL    HW258945   2.967   2.184   3.064 -1.0999 -3.1566  1.3932
50569SOL     OW58946  11.069   2.864   5.607 -0.0831  0.3178 -0.0494
50569SOL    HW158947  11.124   2.855   5.529 -0.7472 -2.1619 -0.3121
50569SOL    HW258948  10.982   2.882   5.573 -0.5522 -1.6356  0.0008
50570SOL     OW58949   4.442   1.033   6.175 -0.5458 -0.4131  0.2789
50570SOL    HW158950   4.460   1.117   6.217 -0.3882  0.7293 -1.9347
50570SOL    HW258951   4.367   0.998   6.224 -2.0890  2.1015 -0.0881
50571SOL     OW58952  11.473   0.124   3.016 -0.0399  0.7260 -0.2818
50571SOL    HW158953  11.393   0.137   2.965 -0.0028  1.0293 -0.2656
50571SOL    HW258954  11.507   0.040   2.986  1.0407  1.7856 -2.2352
50572SOL     OW58955  11.301  12.640   3.158 -0.1905 -0.4128 -0.1468
50572SOL    HW158956  11.227  12.616   3.102 -1.7602  1.9693  0.7334
50572SOL    HW258957  11.345  12.710   3.109  0.3830 -0.5611  0.1587
50573SOL     OW58958   8.707   6.075   1.827 -0.1996 -0.0661  0.1037
50573SOL    HW158959   8.729   6.123   1.907  0.7536 -0.8606  0.3314
50573SOL    HW258960   8.641   6.130   1.785  1.0418  1.6123  0.2164
50574SOL     OW58961   8.785   2.557   9.703 -0.0579  0.4556 -0.2409
50574SOL    HW158962   8.779   2.464   9.681 -0.4697  0.6433 -0.9505
50574SOL    HW258963   8.713   2.572   9.766  0.4243  0.1593  0.3909
50575SOL     OW58964   3.549   0.018   2.487  0.1426  0.2483 -0.5118
50575SOL    HW158965   3.564  -0.006   2.396  1.0893 -2.5645  0.3020
50575SOL    HW258966   3.476   0.080   2.483 -0.3751 -0.4043 -3.1107
50576SOL     OW58967   0.359  11.578   4.543  0.3566  0.2336 -0.0788
50576SOL    HW158968   0.434  11.609   4.493  1.2658  1.0486  1.7057
50576SOL    HW258969   0.395  11.511   4.601 -0.4323  0.0994  0.2669
50577SOL     OW58970  10.504   5.060   4.429 -0.2262 -0.4032 -0.1224
50577SOL    HW158971  10.452   5.119   4.374 -0.1260 -0.1739  0.0276
50577SOL    HW258972  10.461   5.062   4.514 -0.6530 -1.1185 -0.3122
50578SOL     OW58973   0.097   9.686   6.716 -0.6683 -0.3732 -0.2189
50578SOL    HW158974   0.032   9.694   6.786 -1.0828 -1.4570 -0.4590
50578SOL    HW258975   0.181   9.691   6.760 -0.8919  0.9679  0.1081
50579SOL     OW58976  12.048   1.889   0.384 -1.2262 -0.1038  0.2167
50579SOL    HW158977  12.057   1.913   0.292 -0.8471  0.6249  0.4348
50579SOL    HW258978  12.079   1.798   0.388 -1.0980 -0.0909 -0.3481
50580SOL     OW58979   5.462   5.385   7.972 -0.3817 -0.3242 -0.3686
50580SOL    HW158980   5.527   5.376   7.902  0.4594 -1.6969  0.5343
50580SOL    HW258981   5.468   5.477   7.999  0.0652 -0.0590 -1.3515
50581SOL     OW58982   4.107   9.614   1.091 -1.0914  0.0751 -0.0249
50581SOL    HW158983   4.169   9.543   1.105  0.2251  0.9916 -0.8654
50581SOL    HW258984   4.024   9.583   1.127 -0.0861 -1.1065  1.3651
50582SOL     OW58985  11.121   6.790   4.852  0.1252 -0.3596 -0.1866
50582SOL    HW158986  11.121   6.871   4.801 -0.4148  0.4295  1.0408
50582SOL    HW258987  11.126   6.720   4.786  1.5826  0.6745 -1.2315
50583SOL     OW58988   9.240   5.733   7.766 -0.3633  0.5399  0.1071
50583SOL    HW158989   9.316   5.751   7.821  1.0071  0.8761 -1.8020
50583SOL    HW258990   9.259   5.648   7.725 -1.5159  0.1247  0.3942
50584SOL     OW58991  11.994  10.569   7.566 -0.2354 -0.8510  0.1956
50584SOL    HW158992  11.976  10.546   7.475 -0.6503  0.7449 -0.1737
50584SOL    HW258993  11.922  10.531   7.615  0.6522 -2.8020  0.0558
50585SOL     OW58994   9.151  11.001  12.555 -0.5540 -0.1738 -0.4102
50585SOL    HW158995   9.155  10.918  12.604  1.9615 -0.7180 -1.3899
50585SOL    HW258996   9.201  11.062  12.608 -1.9473  0.6384  0.0320
50586SOL     OW58997   8.069  11.089   2.707 -0.1906 -1.3192  0.1142
50586SOL    HW158998   8.079  11.005   2.661 -3.4888 -1.6526 -0.2364
50586SOL    HW258999   8.075  11.067   2.800 -1.6517 -2.1319  0.0498
50587SOL     OW59000   5.217  10.418   1.972 -0.1304 -0.1285  0.0348
50587SOL    HW159001   5.302  10.383   2.001 -0.4856 -1.0637 -0.0180
50587SOL    HW259002   5.219  10.408   1.877 -0.6380 -0.9912  0.0974
50588SOL     OW59003  11.021   7.731   2.795  0.4344  0.3481  0.0904
50588SOL    HW159004  11.012   7.788   2.719 -0.1088  0.3645  0.1609
50588SOL    HW259005  10.980   7.780   2.867 -0.2241 -0.2053  0.1053
50589SOL     OW59006   4.847   2.845   2.506 -0.1219  0.4346 -0.0713
50589SOL    HW159007   4.932   2.865   2.467  0.1214  1.5749  0.9865
50589SOL    HW259008   4.868   2.788   2.581 -0.1903  1.3999  0.6942
50590SOL     OW59009   2.232   1.350  12.132 -0.4747  0.4218  0.5876
50590SOL    HW159010   2.147   1.395  12.136 -1.6837 -1.8024  1.1456
50590SOL    HW259011   2.274   1.386  12.054 -1.3309  2.5380  1.0288
50591SOL     OW59012   8.018   9.034   8.482 -0.6412 -0.5251  0.3593
50591SOL    HW159013   8.087   9.093   8.514 -1.1651  1.2491 -1.5729
50591SOL    HW259014   7.948   9.092   8.453 -2.4455 -2.2439  1.0194
50592SOL     OW59015   5.716  10.551   5.733 -0.0272  0.2243 -0.2805
50592SOL    HW159016   5.777  10.555   5.807  0.9362  1.8349 -1.0918
50592SOL    HW259017   5.640  10.601   5.762  0.0232  0.1833 -0.0789
50593SOL     OW59018   8.451  12.694   2.537 -0.3760 -0.3514  0.0426
50593SOL    HW159019   8.445  12.599   2.526  0.0786 -0.4031  0.2319
50593SOL    HW259020   8.539  12.716   2.508 -0.3772 -0.0252  0.2782
50594SOL     OW59021   3.125  11.274   6.744 -0.1878 -0.1354  0.3686
50594SOL    HW159022   3.138  11.292   6.837  0.4188  1.9685 -0.0611
50594SOL    HW259023   3.120  11.179   6.738  1.3477 -0.3968  2.3529
50595SOL     OW59024   8.113   9.112   7.664  0.1665  0.7023 -0.1159
50595SOL    HW159025   8.162   9.033   7.643 -1.4205 -0.1078 -0.9974
50595SOL    HW259026   8.054   9.085   7.734 -0.3507  1.1139 -0.3886
50596SOL     OW59027   4.728   4.518   2.504  0.2220 -0.4603  0.0592
50596SOL    HW159028   4.721   4.488   2.595  2.1883  1.3869  0.9076
50596SOL    HW259029   4.756   4.609   2.511 -0.6514  0.0735 -2.4286
50597SOL     OW59030  10.553   0.789   7.964 -0.6098 -0.6934 -0.5925
50597SOL    HW159031  10.641   0.814   7.935 -0.4104 -4.3042 -3.8993
50597SOL    HW259032  10.568   0.729   8.037 -0.4896 -0.2151 -0.2099
50598SOL     OW59033  10.690   2.310   7.901  0.2072 -0.0812  0.5466
50598SOL    HW159034  10.710   2.218   7.884 -1.1156 -0.0164 -1.6377
50598SOL    HW259035  10.724   2.357   7.825 -0.0822  1.1173  1.1317
50599SOL     OW59036   5.678   1.939  12.281 -0.4601 -0.1194 -0.0188
50599SOL    HW159037   5.748   1.874  12.269 -1.2921 -1.3940  1.6223
50599SOL    HW259038   5.721   2.011  12.327 -0.4615 -1.6006  2.5306
50600SOL     OW59039   0.289  12.594   8.639  0.5714  0.5104  0.3573
50600SOL    HW159040   0.329  12.576   8.554  1.4629  1.7187  0.4955
50600SOL    HW259041   0.276  12.688   8.641  0.8735  0.5573  1.6790
50601SOL     OW59042   0.321   7.353   2.028 -0.1853  0.2257 -0.2696
50601SOL    HW159043   0.329   7.275   2.082 -0.6122  0.1087 -0.3769
50601SOL    HW259044   0.407   7.395   2.034  0.0662 -0.2864 -0.2675
50602SOL     OW59045  10.033   1.014   0.498  0.1080 -0.1194  0.2394
50602SOL    HW159046  10.071   0.927   0.511  1.9018  0.2232 -2.1411
50602SOL    HW259047   9.948   0.997   0.458  0.7337 -0.8186 -0.8526
50603SOL     OW59048   7.262   3.838  10.886 -0.3652  0.1092 -0.4494
50603SOL    HW159049   7.218   3.836  10.802 -1.9296  0.0092  0.3406
50603SOL    HW259050   7.237   3.756  10.929  2.3010 -0.9826 -0.7611
50604SOL     OW59051  11.423   3.818  12.123 -0.4988 -0.7452 -0.3198
50604SOL    HW159052  11.483   3.744  12.130 -0.2358 -0.6297 -1.2788
50604SOL    HW259053  11.393   3.832  12.213 -0.7013 -2.1216 -0.1518
50605SOL     OW59054   7.729   9.375   7.798  0.3394  0.2395 -0.1963
50605SOL    HW159055   7.634   9.364   7.800  0.1204  1.7932 -0.6375
50605SOL    HW259056   7.759   9.307   7.738 -0.1864 -1.8221  1.6940
50606SOL     OW59057   8.151  10.903   8.970  0.4700 -0.4918 -0.4798
50606SOL    HW159058   8.090  10.893   9.043 -1.5294  2.0764 -1.6626
50606SOL    HW259059   8.126  10.985   8.928  2.3642 -1.1991 -3.3043
50607SOL     OW59060  11.048   2.353  10.806  0.8275 -0.5830 -0.4722
50607SOL    HW159061  10.987   2.404  10.860  1.1137  0.4057 -1.0456
50607SOL    HW259062  10.994   2.286  10.764  0.2523 -0.1322 -0.4634
50608SOL     OW59063   8.721   5.208   4.774 -0.2292 -0.0818  0.0091
50608SOL    HW159064   8.763   5.129   4.808  2.1755  0.9256 -0.3873
50608SOL    HW259065   8.633   5.207   4.810  0.1930 -2.2376  1.1047
50609SOL     OW59066   8.460   4.121   5.317  0.4365  0.0273 -0.5987
50609SOL    HW159067   8.470   4.213   5.291  1.1352  0.4030  0.8303
50609SOL    HW259068   8.373   4.117   5.356  1.7311  1.1446  2.8918
50610SOL     OW59069   4.487   6.015   5.585 -0.2400  0.3152 -0.0237
50610SOL    HW159070   4.530   5.952   5.643  0.7504  0.4427 -0.6098
50610SOL    HW259071   4.393   6.000   5.601 -0.0370 -1.2505 -0.0740
50611SOL     OW59072   7.277   7.541   9.552  0.1163  0.4340  0.4878
50611SOL    HW159073   7.198   7.568   9.598  0.3084  2.6549 -0.3382
50611SOL    HW259074   7.245   7.508   9.468  0.0213  0.3080  0.5717
50612SOL     OW59075   0.397   8.467   9.789 -0.0862  0.3072  0.1057
50612SOL    HW159076   0.342   8.496   9.717  1.3484  2.5341 -0.2280
50612SOL    HW259077   0.351   8.496   9.868 -1.7264 -2.2560  0.1859
50613SOL     OW59078   7.259   4.013   4.756  0.0766 -0.3286 -0.1626
50613SOL    HW159079   7.310   3.933   4.743 -0.2528 -1.0330  2.3822
50613SOL    HW259080   7.168   3.983   4.763 -0.1625  0.3804 -0.1519
50614SOL     OW59081   0.423  10.428   7.537  0.2364  0.6493 -0.1692
50614SOL    HW159082   0.488  10.406   7.471 -1.4226  0.5637 -1.8708
50614SOL    HW259083   0.371  10.349   7.549 -0.6964  1.2292 -0.2268
50615SOL     OW59084   2.420   6.352  10.293 -0.3256 -0.1472 -0.3811
50615SOL    HW159085   2.470   6.431  10.274 -1.6812  0.7426 -0.3868
50615SOL    HW259086   2.485   6.282  10.291  0.9690  0.9857 -0.0674
50616SOL     OW59087   8.936   9.144   0.478 -0.5309  0.2503 -0.1413
50616SOL    HW159088   8.876   9.104   0.542 -1.7151  0.0590 -1.3233
50616SOL    HW259089   9.000   9.076   0.460  0.3522  0.5951  1.4526
50617SOL     OW59090   4.571   5.009   4.226 -0.4430 -0.3497 -0.0073
50617SOL    HW159091   4.536   4.920   4.213  0.1260 -0.6715  0.6300
50617SOL    HW259092   4.659   5.006   4.190  0.5458 -0.7891  2.2873
50618SOL     OW59093   6.619  12.204   4.001  0.7737  0.2030 -0.2820
50618SOL    HW159094   6.680  12.256   3.948  0.1476  2.8945  1.4366
50618SOL    HW259095   6.644  12.222   4.092 -1.2296 -0.2951  0.4297
50619SOL     OW59096   2.872  10.577   2.879 -0.3060 -0.6250  0.0071
50619SOL    HW159097   2.927  10.631   2.937 -0.2923 -0.4775 -0.1412
50619SOL    HW259098   2.854  10.634   2.804 -0.6084 -0.6966  0.0246
50620SOL     OW59099   5.436   1.172   0.340  0.6455 -0.0596 -0.5260
50620SOL    HW159100   5.384   1.207   0.411  0.3303  1.2349 -1.3655
50620SOL    HW259101   5.425   1.077   0.346  0.1108  0.0738  0.7357
50621SOL     OW59102  10.784   7.492   9.314 -0.0598  0.6555 -0.3893
50621SOL    HW159103  10.788   7.495   9.409 -1.6734  2.1237 -0.3137
50621SOL    HW259104  10.774   7.399   9.293 -2.6111  0.5047  1.0938
50622SOL     OW59105   7.850   2.635   5.646 -0.3628 -0.4046 -0.3085
50622SOL    HW159106   7.939   2.668   5.662 -0.6057 -0.2274  0.7659
50622SOL    HW259107   7.813   2.696   5.582 -0.3644  0.7041  0.7030
50623SOL     OW59108   8.875  11.048   9.544 -0.2811 -0.1789 -0.1002
50623SOL    HW159109   8.927  10.975   9.511  2.3733  1.6840 -0.3072
50623SOL    HW259110   8.825  11.011   9.617  1.3960 -2.0697  0.1664
50624SOL     OW59111   5.971   0.605   1.311  0.0114  0.2366 -0.0457
50624SOL    HW159112   6.014   0.527   1.276 -1.0668  0.1593 -1.2929
50624SOL    HW259113   5.878   0.594   1.288 -0.4722  0.9895  1.4439
50625SOL     OW59114   9.731  12.512   7.742  0.1133  0.6800  0.4281
50625SOL    HW159115   9.785  12.466   7.678 -0.2534  2.1100 -1.0024
50625SOL    HW259116   9.721  12.600   7.705 -2.8623  0.5995  0.7893
50626SOL     OW59117   1.448   8.088  10.618  0.1554 -0.5474 -0.1177
50626SOL    HW159118   1.395   8.151  10.668  0.2169  0.1519 -0.9108
50626SOL    HW259119   1.396   8.068  10.541  0.5771 -0.6933 -0.3698
50627SOL     OW59120   4.124  11.496  10.055 -0.0977 -0.1187  0.2491
50627SOL    HW159121   4.100  11.513  10.147 -1.0027  1.1308 -0.1962
50627SOL    HW259122   4.068  11.555  10.005 -0.6721 -1.8322 -1.2106
50628SOL     OW59123   8.587  11.429   3.400  0.4296  0.8250  0.4657
50628SOL    HW159124   8.544  11.430   3.486  1.5047 -1.1857  1.1082
50628SOL    HW259125   8.538  11.363   3.350  1.4253  0.0531  0.4794
50629SOL     OW59126   7.798   7.674   2.448 -0.4220 -0.3178  0.2483
50629SOL    HW159127   7.888   7.704   2.442 -0.7679  0.7689  0.3644
50629SOL    HW259128   7.784   7.654   2.540 -0.5694  0.3970  0.3856
50630SOL     OW59129   6.036  10.604   3.473  0.1643 -0.1190 -0.2738
50630SOL    HW159130   5.973  10.560   3.416  0.6372 -0.2983 -0.6623
50630SOL    HW259131   6.056  10.687   3.428  0.4442 -0.2041 -0.3094
50631SOL     OW59132   1.364   8.307   3.224 -0.2843 -0.0218 -0.5539
50631SOL    HW159133   1.281   8.336   3.260 -0.2085  1.5202 -1.5350
50631SOL    HW259134   1.341   8.257   3.145 -0.3001 -0.4801 -0.2671
50632SOL     OW59135   4.468   1.137   4.951  0.2684  0.7388 -0.8007
50632SOL    HW159136   4.527   1.209   4.932  1.8161 -0.9519 -2.9684
50632SOL    HW259137   4.421   1.122   4.870 -0.3962 -0.3649 -0.2400
50633SOL     OW59138   0.653   8.345   6.434  0.3459 -0.7941 -0.2948
50633SOL    HW159139   0.624   8.255   6.449 -0.8186 -0.7158 -1.8972
50633SOL    HW259140   0.680   8.347   6.343 -1.7936  1.0034 -0.9761
50634SOL     OW59141   0.994   5.934   7.512  0.2276 -0.2473  0.5111
50634SOL    HW159142   0.958   6.022   7.523  3.3458  1.1993  0.4238
50634SOL    HW259143   1.039   5.916   7.595  1.3776 -0.8305 -0.2126
50635SOL     OW59144   0.621   0.986   0.443  0.7057  0.0148 -0.1141
50635SOL    HW159145   0.645   0.905   0.399  1.8767 -0.0100  0.5320
50635SOL    HW259146   0.704   1.024   0.471  0.1969  1.5850 -0.6378
50636SOL     OW59147   9.417  11.240   2.004 -0.1584  0.0399 -0.5371
50636SOL    HW159148   9.332  11.196   2.009 -0.5812  0.7546 -1.2312
50636SOL    HW259149   9.406  11.306   1.936  0.2475  1.6781  0.8997
50637SOL     OW59150   1.981   2.002   8.718  0.1976 -0.7304 -0.0072
50637SOL    HW159151   2.067   2.020   8.757  0.6019 -0.8639 -0.8129
50637SOL    HW259152   1.918   2.032   8.784  0.8621 -0.4309  0.5042
50638SOL     OW59153  11.268   4.521   7.254 -0.0139  0.0199  0.3546
50638SOL    HW159154  11.250   4.561   7.168  0.1869 -0.7625 -0.0599
50638SOL    HW259155  11.253   4.428   7.241 -0.6608 -0.0279  1.3684
50639SOL     OW59156   9.410   7.017   8.724  0.3610  0.5405  0.1121
50639SOL    HW159157   9.469   7.080   8.765 -1.8630  0.8797  3.0967
50639SOL    HW259158   9.442   6.932   8.754  1.5365  0.3959 -1.4303
50640SOL     OW59159   5.745   0.390  11.896 -0.4317 -0.7578  1.2677
50640SOL    HW159160   5.808   0.352  11.958  0.1886 -0.9668  0.5313
50640SOL    HW259161   5.680   0.321  11.883  0.2083 -1.2569  0.6182
50641SOL     OW59162   8.426   7.341   9.990 -0.3077  0.5796 -0.1260
50641SOL    HW159163   8.461   7.259   9.954 -1.9581  0.2309 -1.0101
50641SOL    HW259164   8.487   7.408   9.959  0.7255 -0.2092  0.1103
50642SOL     OW59165  11.250   8.600   9.255 -0.0880 -0.4605  0.0449
50642SOL    HW159166  11.237   8.619   9.348  0.8020 -0.6648  0.2224
50642SOL    HW259167  11.340   8.629   9.237 -0.6214  0.6128 -1.0255
50643SOL     OW59168   6.260   2.913   5.240 -0.6602  0.0395  0.5967
50643SOL    HW159169   6.194   2.927   5.172  1.0285  2.0060 -0.7592
50643SOL    HW259170   6.306   2.997   5.247  1.8647 -1.2778  1.2635
50644SOL     OW59171   8.352   5.122   9.512 -0.3632 -0.3056 -0.4447
50644SOL    HW159172   8.280   5.102   9.452  0.7482  0.1886 -1.9938
50644SOL    HW259173   8.415   5.052   9.498  1.0564  1.1688 -1.8033
50645SOL     OW59174   7.819   1.660   3.804  0.8938 -0.3580  0.1533
50645SOL    HW159175   7.815   1.615   3.720  0.2434 -0.1893  0.0843
50645SOL    HW259176   7.728   1.684   3.823  1.1846  0.6739  0.3162
50646SOL     OW59177   9.723   1.811   1.162  0.5480  0.5691  0.6366
50646SOL    HW159178   9.747   1.760   1.239  0.7321 -0.9162 -0.3509
50646SOL    HW259179   9.735   1.750   1.088  2.3158  2.5211 -0.7919
50647SOL     OW59180   7.833   6.654   3.753 -0.1444  0.0865 -0.0836
50647SOL    HW159181   7.824   6.707   3.674  1.4602  1.7777  0.8089
50647SOL    HW259182   7.784   6.574   3.733  0.3195  0.3884 -2.8199
50648SOL     OW59183  11.996   7.345   4.935  0.3960 -0.6966 -0.0004
50648SOL    HW159184  12.052   7.312   4.864  0.8241  1.3816 -0.6936
50648SOL    HW259185  12.016   7.439   4.940 -1.8860 -0.1946  0.7884
50649SOL     OW59186   1.544  11.204   4.585  0.1840  0.2073 -0.2337
50649SOL    HW159187   1.571  11.234   4.498 -1.1894 -0.9448 -1.0999
50649SOL    HW259188   1.449  11.209   4.583  0.1492  1.9178  1.9027
50650SOL     OW59189  10.996   3.525   9.331 -0.2932  0.3486 -0.3450
50650SOL    HW159190  11.048   3.454   9.292 -0.7888  1.2084 -2.7369
50650SOL    HW259191  10.917   3.481   9.364  0.4057 -0.4895  0.2692
50651SOL     OW59192  12.110   0.316   0.872  0.3606 -0.6149 -0.7510
50651SOL    HW159193  12.072   0.403   0.860  1.7673  0.0193 -0.7734
50651SOL    HW259194  12.085   0.268   0.793 -0.0435 -0.0911 -0.9456
50652SOL     OW59195   1.365   6.443  10.007  0.1861 -0.0252  0.4717
50652SOL    HW159196   1.309   6.516   9.981  1.3893  1.4518  1.7904
50652SOL    HW259197   1.438   6.445   9.945 -0.5350 -1.1236 -0.4442
50653SOL     OW59198  10.791  12.284   7.362 -0.3605 -0.1265 -0.1926
50653SOL    HW159199  10.735  12.285   7.440  2.1564 -0.8536  1.7844
50653SOL    HW259200  10.814  12.375   7.347  0.6076 -0.1185  1.1415
50654SOL     OW59201   8.510   5.074   3.197 -0.2647  0.0118  0.1967
50654SOL    HW159202   8.531   4.984   3.170 -0.1363 -0.0497  0.5058
50654SOL    HW259203   8.589   5.105   3.241  0.4865  1.0053 -1.7032
50655SOL     OW59204   5.256   9.537   2.599 -0.4914  0.2185 -0.6131
50655SOL    HW159205   5.176   9.566   2.643 -0.5733  1.2961 -1.4263
50655SOL    HW259206   5.326   9.558   2.661 -0.8230 -0.7941  0.1334
50656SOL     OW59207   3.386   1.703   2.799 -0.0970 -0.0274 -0.1641
50656SOL    HW159208   3.386   1.774   2.862 -1.7139 -0.3510  0.2260
50656SOL    HW259209   3.389   1.623   2.852 -0.3979 -0.2809 -0.5216
50657SOL     OW59210   8.564   7.209   8.172 -0.3046  0.4140 -0.1298
50657SOL    HW159211   8.501   7.169   8.232 -0.9523  0.6714 -0.6346
50657SOL    HW259212   8.522   7.289   8.143  0.5724  0.9758  0.1008
50658SOL     OW59213   3.628  12.136   4.809  1.0745 -0.4047 -0.1446
50658SOL    HW159214   3.569  12.116   4.882  0.5432 -2.8503 -1.1282
50658SOL    HW259215   3.690  12.063   4.808 -0.1746 -1.5900 -3.3052
50659SOL     OW59216   4.398  11.770   5.624  0.0741  0.6295 -0.1804
50659SOL    HW159217   4.422  11.805   5.710 -0.6404  0.9033 -0.0861
50659SOL    HW259218   4.442  11.827   5.561  0.8758  0.2232  0.0047
50660SOL     OW59219  12.194   2.766   4.717 -0.0402  0.2885 -0.0264
50660SOL    HW159220  12.152   2.850   4.732 -0.5397 -0.0904  0.7954
50660SOL    HW259221  12.283   2.778   4.749 -0.2875  0.3278  0.6542
50661SOL     OW59222   5.454   0.178   2.063 -0.4211 -0.2408  0.2718
50661SOL    HW159223   5.501   0.228   2.130  0.1476 -0.2762 -0.1015
50661SOL    HW259224   5.374   0.228   2.048  0.0647  0.4640  0.0226
50662SOL     OW59225   0.080  11.067   8.930  0.0690 -0.7207  0.1140
50662SOL    HW159226   0.150  11.076   8.995  0.6661 -0.7724 -0.5057
50662SOL    HW259227  -0.000  11.061   8.981  0.3340  1.0676  0.8018
50663SOL     OW59228   5.541  11.206   4.650  0.4527 -0.6029  0.2209
50663SOL    HW159229   5.466  11.197   4.709 -0.3395  0.8197 -0.5206
50663SOL    HW259230   5.611  11.158   4.693 -1.1572 -2.9568  0.4121
50664SOL     OW59231  11.676   8.739   7.131  0.2258  0.1218  0.7725
50664SOL    HW159232  11.681   8.676   7.060 -0.9264 -0.2490  0.9958
50664SOL    HW259233  11.717   8.818   7.096 -1.0550  0.2126 -0.5979
50665SOL     OW59234   6.921  12.222   2.919  0.1170 -0.4578 -0.0299
50665SOL    HW159235   6.895  12.146   2.868  1.6154 -0.3367 -1.0448
50665SOL    HW259236   6.938  12.188   3.007 -0.8749 -0.9687 -0.0263
50666SOL     OW59237   6.434  12.189   7.999 -0.2325 -0.0459  0.3701
50666SOL    HW159238   6.427  12.124   8.068  0.7487  0.0963  0.6060
50666SOL    HW259239   6.345  12.194   7.962 -0.2061 -1.9568 -0.0627
50667SOL     OW59240   0.486  11.926   1.377  0.4322  0.1549 -0.4000
50667SOL    HW159241   0.578  11.900   1.381  0.3808  0.0296  0.0211
50667SOL    HW259242   0.469  11.939   1.284  0.2276 -2.1793 -0.7549
50668SOL     OW59243   6.245   5.980   9.363 -0.2146  0.1129  0.3726
50668SOL    HW159244   6.331   5.965   9.323 -0.5190  1.7323 -0.9738
50668SOL    HW259245   6.185   5.989   9.290 -1.6110 -1.1688  1.3066
50669SOL     OW59246   3.617   2.428   0.704  0.4178  0.6638 -0.1010
50669SOL    HW159247   3.566   2.430   0.785 -2.7113 -2.4823 -1.6818
50669SOL    HW259248   3.563   2.476   0.641  1.3292  0.5886 -0.9507
50670SOL     OW59249  12.075   0.134   8.709 -1.0597 -0.1293  0.3372
50670SOL    HW159250  12.080   0.085   8.791 -1.5663  0.4489  0.7238
50670SOL    HW259251  12.081   0.226   8.736 -1.3323  0.0689 -0.2692
50671SOL     OW59252   2.106   2.402  11.358  0.6763 -0.2588 -0.3091
50671SOL    HW159253   2.182   2.408  11.301 -0.3245 -0.1016 -1.6607
50671SOL    HW259254   2.139   2.355  11.436  1.7285 -1.7867 -1.5947
50672SOL     OW59255   9.590   4.136   2.922 -0.4012 -0.1199  0.1307
50672SOL    HW159256   9.520   4.078   2.951 -0.8785  0.4631  0.1726
50672SOL    HW259257   9.653   4.136   2.994 -1.5207  1.2287  1.1766
50673SOL     OW59258   2.970   8.387   0.076  0.3492  0.2418  0.4822
50673SOL    HW159259   2.901   8.345   0.024 -0.9919  1.5117  1.1417
50673SOL    HW259260   3.032   8.420   0.012 -0.3550  0.2270 -0.2205
50674SOL     OW59261  10.425   7.225   9.949  0.0878 -0.1233  0.1949
50674SOL    HW159262  10.438   7.266  10.035 -1.3809  0.3552  0.2139
50674SOL    HW259263  10.488   7.152   9.947  0.4723  0.1541  1.4723
50675SOL     OW59264   7.957   8.404   7.184 -0.0968 -0.1384  0.1755
50675SOL    HW159265   8.002   8.466   7.241  0.4443 -0.3306 -0.0427
50675SOL    HW259266   7.909   8.459   7.122  0.8335  0.0612 -0.3742
50676SOL     OW59267   8.867   1.442   9.617  0.1114  0.1378 -0.0020
50676SOL    HW159268   8.951   1.397   9.619 -0.3757 -0.9164 -1.4301
50676SOL    HW259269   8.827   1.422   9.702  1.2090  0.5028  0.6126
50677SOL     OW59270  10.533   4.552   9.735 -0.2898 -0.9283 -0.2766
50677SOL    HW159271  10.470   4.594   9.676  1.1038  1.2385 -0.3242
50677SOL    HW259272  10.479   4.502   9.795 -2.0389  0.2930 -0.7441
50678SOL     OW59273   3.593   9.660   8.421 -0.1913  0.3309 -0.0414
50678SOL    HW159274   3.538   9.605   8.366  1.3530  0.7470 -2.1188
50678SOL    HW259275   3.567   9.750   8.397 -0.5521  0.5342  1.0598
50679SOL     OW59276   9.846  11.487   8.754  0.7837 -0.3410  0.1996
50679SOL    HW159277   9.841  11.433   8.834  1.0792 -0.1090  0.3735
50679SOL    HW259278   9.769  11.459   8.703  1.8927 -2.2413 -0.5436
50680SOL     OW59279   0.555   8.892  11.681 -0.6916 -0.5662  0.3406
50680SOL    HW159280   0.636   8.894  11.631  0.0209 -1.6607  1.3929
50680SOL    HW259281   0.536   8.984  11.701 -0.0733 -0.2534 -0.4540
50681SOL     OW59282   1.599   7.659   5.252  0.1632 -0.0010 -0.5314
50681SOL    HW159283   1.593   7.564   5.246  0.0673 -0.0255 -0.0442
50681SOL    HW259284   1.692   7.679   5.242  0.0761 -0.0666 -1.6769
50682SOL     OW59285   3.543  12.199   8.719 -0.6984 -0.3745  0.6680
50682SOL    HW159286   3.503  12.232   8.638  2.8335 -1.5853 -1.7959
50682SOL    HW259287   3.499  12.116   8.735  1.0786 -2.1176 -2.4779
50683SOL     OW59288   6.912  10.817   2.919  0.4593  0.0818 -0.3010
50683SOL    HW159289   6.977  10.844   2.984 -0.0208  0.6069 -0.0216
50683SOL    HW259290   6.829  10.849   2.955  0.1978  0.4529 -1.2114
50684SOL     OW59291   7.485   9.042   5.949  0.0480  0.1776  0.1621
50684SOL    HW159292   7.551   9.110   5.961 -0.0866  0.5544 -1.1053
50684SOL    HW259293   7.523   8.964   5.988  1.2888  0.3684 -0.6358
50685SOL     OW59294   5.553   9.483   4.993  0.3837 -0.2048  0.4339
50685SOL    HW159295   5.611   9.432   5.050 -1.4031 -0.6802  1.9270
50685SOL    HW259296   5.574   9.575   5.013 -1.3196 -0.3057  3.2416
50686SOL     OW59297   8.379   1.286   9.020  1.2042  0.8472  0.1968
50686SOL    HW159298   8.342   1.334   8.946 -0.3160  1.0260  1.0387
50686SOL    HW259299   8.316   1.299   9.091  0.9316 -2.0243  0.6001
50687SOL     OW59300   9.407   4.863   4.704  0.3297  0.0120  0.5329
50687SOL    HW159301   9.377   4.864   4.794  1.7978  0.6976  1.0565
50687SOL    HW259302   9.336   4.823   4.654 -0.6836  0.0413  1.9197
50688SOL     OW59303  12.508   5.855   1.281  0.4813  0.2047 -0.4393
50688SOL    HW159304  12.591   5.822   1.248  0.8064  1.8856 -1.4253
50688SOL    HW259305  12.451   5.856   1.204 -0.0436  0.3124 -0.0536
50689SOL     OW59306  11.456  10.756  11.169 -0.4124 -0.3560  0.2287
50689SOL    HW159307  11.451  10.675  11.118  1.7075 -0.7365  0.5266
50689SOL    HW259308  11.545  10.756  11.206 -0.9472  1.2551  1.6673
50690SOL     OW59309   2.502   6.223  10.602 -0.6276  0.3841  0.5199
50690SOL    HW159310   2.567   6.159  10.572 -0.9685  1.3098 -2.6166
50690SOL    HW259311   2.541   6.308  10.580 -2.0283  1.0294  0.4283
50691SOL     OW59312  12.302   0.522   1.042  0.0214 -0.5440  0.0831
50691SOL    HW159313  12.292   0.535   1.136 -0.2784 -0.1899  0.0082
50691SOL    HW259314  12.253   0.442   1.023  0.1712 -0.6734  0.2447
50692SOL     OW59315   5.320  10.484   7.821 -0.0733 -0.0373  0.1780
50692SOL    HW159316   5.396  10.540   7.803 -0.5973  0.3604 -0.9104
50692SOL    HW259317   5.349  10.426   7.891  1.9845 -1.3604 -1.6208
50693SOL     OW59318   6.235   4.814  10.907 -0.7337  0.1836 -0.1682
50693SOL    HW159319   6.246   4.904  10.940  2.5253 -0.0859 -0.1966
50693SOL    HW259320   6.253   4.759  10.982 -0.6181 -0.4558 -0.6612
50694SOL     OW59321   0.308   1.107   4.222 -0.1525 -0.0306  0.2292
50694SOL    HW159322   0.335   1.018   4.201 -1.8600 -0.8980  1.4559
50694SOL    HW259323   0.369   1.134   4.291  0.4926 -0.1517 -0.2820
50695SOL     OW59324   1.959   2.321   6.478 -0.3920  0.3969  0.3297
50695SOL    HW159325   2.049   2.295   6.461 -0.7072  0.9898 -2.8058
50695SOL    HW259326   1.966   2.404   6.526  0.8723  2.0775 -2.5425
50696SOL     OW59327   5.528  11.817   1.829  0.2665  0.3911 -0.5676
50696SOL    HW159328   5.440  11.851   1.841 -0.3522 -1.2246 -0.3545
50696SOL    HW259329   5.578  11.853   1.902 -0.3739  0.7665 -0.3074
50697SOL     OW59330   7.649   8.857   6.074 -0.2514 -1.0346  0.4558
50697SOL    HW159331   7.624   8.766   6.059  1.0397 -1.7441  2.2316
50697SOL    HW259332   7.679   8.859   6.165 -0.9579  1.3410  0.7146
50698SOL     OW59333  10.669   2.100   5.737 -0.0224  0.2921  0.1904
50698SOL    HW159334  10.740   2.162   5.722  1.1602 -1.0725 -0.0488
50698SOL    HW259335  10.635   2.080   5.650  0.1758 -0.0526  0.1915
50699SOL     OW59336   5.072   5.545   2.749 -0.0176 -0.2598 -0.1855
50699SOL    HW159337   5.155   5.552   2.795  0.4959  1.8411 -1.3206
50699SOL    HW259338   5.007   5.577   2.811  0.1536 -0.8843  0.3240
50700SOL     OW59339  12.146   4.637   9.210  0.3655  0.3747 -0.2472
50700SOL    HW159340  12.086   4.681   9.270 -1.3618 -1.9271 -0.1582
50700SOL    HW259341  12.143   4.691   9.130  0.5706  1.9470  0.7586
50701SOL     OW59342   8.097   1.285  10.961 -0.3554  0.1609 -0.3160
50701SOL    HW159343   8.172   1.240  10.922 -0.6424  0.4699 -1.2342
50701SOL    HW259344   8.135   1.362  11.004  0.1657 -0.9852  1.4244
50702SOL     OW59345   9.340  10.942  10.044  0.1286 -0.1214 -0.1467
50702SOL    HW159346   9.396  10.906   9.975  0.0697 -0.4706 -0.0123
50702SOL    HW259347   9.305  10.866  10.089  0.0963  0.1048  0.2169
50703SOL     OW59348   0.031   8.494   3.754 -0.7245 -0.5520 -0.3688
50703SOL    HW159349   0.074   8.531   3.831 -0.1662 -2.2341  0.1574
50703SOL    HW259350  -0.051   8.456   3.787 -2.3168  1.8659 -1.2248
50704SOL     OW59351  10.042   2.434   4.155  0.0725 -0.4139 -0.4429
50704SOL    HW159352  10.087   2.495   4.214 -0.4052 -0.1324 -0.3586
50704SOL    HW259353   9.998   2.491   4.091  0.0511 -0.6905 -0.6768
50705SOL     OW59354   0.626   5.413   4.002  0.7394 -0.2674  0.8645
50705SOL    HW159355   0.671   5.356   4.064  3.5700  0.7490 -0.1029
50705SOL    HW259356   0.637   5.370   3.918  1.0948  0.6871  0.4136
50706SOL     OW59357   5.502   0.434  12.378  0.1586 -0.4150  0.4825
50706SOL    HW159358   5.543   0.385  12.306 -0.1447  0.1950 -0.1178
50706SOL    HW259359   5.422   0.470  12.340  0.2859  0.3961  0.9609
50707SOL     OW59360   0.179   3.655   8.749 -0.3193  0.1264 -0.3609
50707SOL    HW159361   0.220   3.736   8.780 -0.1129 -0.5094  1.1498
50707SOL    HW259362   0.099   3.684   8.706 -1.1781  1.0760  1.7243
50708SOL     OW59363  10.287   0.226   0.956  0.5034  0.4419 -0.2184
50708SOL    HW159364  10.296   0.140   0.997 -4.9770  0.4019  1.8067
50708SOL    HW259365  10.259   0.208   0.866  0.0772  0.0846 -0.0173
50709SOL     OW59366  10.754   5.244   0.937 -0.2834  0.3917 -0.5687
50709SOL    HW159367  10.690   5.232   1.007  0.8005  1.1328  0.6047
50709SOL    HW259368  10.714   5.308   0.878 -1.7294 -1.1477 -1.3318
50710SOL     OW59369   1.982  11.007  12.315  1.0120 -0.0882  0.1789
50710SOL    HW159370   1.892  11.007  12.349  1.2066  1.0427  0.7575
50710SOL    HW259371   2.036  11.010  12.394  1.4891  2.2006 -0.1717
50711SOL     OW59372   6.725   8.731   1.009 -0.3458 -0.0151  0.2182
50711SOL    HW159373   6.761   8.819   1.003  1.9000 -0.7817  1.0370
50711SOL    HW259374   6.762   8.696   1.091 -0.6257 -1.9202 -0.4109
50712SOL     OW59375   6.288   9.382   6.601 -0.2883 -0.6508 -0.3016
50712SOL    HW159376   6.196   9.382   6.630 -0.5443 -0.2172 -1.0687
50712SOL    HW259377   6.326   9.306   6.644 -1.0325 -0.8844 -0.0253
50713SOL     OW59378   9.147   0.983   9.407  1.0207  0.4915 -0.2601
50713SOL    HW159379   9.146   0.998   9.502  1.5682  0.6427 -0.2721
50713SOL    HW259380   9.077   0.920   9.391  1.8404 -0.6278  0.4311
50714SOL     OW59381   5.896   5.163   3.673 -0.2291 -0.3979 -0.2011
50714SOL    HW159382   5.956   5.201   3.738  1.3343 -1.3950 -1.0165
50714SOL    HW259383   5.833   5.233   3.655  1.3473  1.0912 -0.1394
50715SOL     OW59384  10.797   6.324   3.565  0.2924 -0.0247 -0.8009
50715SOL    HW159385  10.729   6.370   3.613  0.5493 -0.3079 -0.1529
50715SOL    HW259386  10.837   6.391   3.509  0.2326  0.3878 -0.3456
50716SOL     OW59387   6.931   3.349   2.211  0.2403 -0.7927  0.4963
50716SOL    HW159388   6.926   3.339   2.116  1.6833  0.2963  0.2597
50716SOL    HW259389   7.016   3.311   2.234  0.8412  0.8241  1.0435
50717SOL     OW59390   5.776   0.358  10.784  0.3293  0.1272 -0.0693
50717SOL    HW159391   5.748   0.373  10.694 -2.0621  0.3608  0.6541
50717SOL    HW259392   5.854   0.303  10.776  0.5011  0.5978 -2.2730
50718SOL     OW59393   6.336   3.203  12.126  0.6810  0.2103  0.7972
50718SOL    HW159394   6.277   3.278  12.135 -0.7993 -0.8792  0.4606
50718SOL    HW259395   6.418   3.241  12.093  0.1151  1.7226  1.0535
50719SOL     OW59396   3.336  12.640  10.360  0.1231  0.5327  0.5607
50719SOL    HW159397   3.324  12.722  10.406 -2.0056  0.1746  0.7535
50719SOL    HW259398   3.335  12.664  10.267 -1.4519  0.6557  0.5896
50720SOL     OW59399  12.101   3.294   4.849  0.2540 -0.1611  0.2894
50720SOL    HW159400  12.117   3.286   4.755  0.0375  2.9313 -0.0955
50720SOL    HW259401  12.187   3.315   4.886 -0.0334  0.7111  0.4702
50721SOL     OW59402   7.706   9.834   0.743 -0.5279  0.6409 -0.1205
50721SOL    HW159403   7.776   9.860   0.803 -0.8589 -0.9510  1.0276
50721SOL    HW259404   7.626   9.866   0.784 -0.6919  0.1989 -0.0930
50722SOL     OW59405   7.083   3.350   4.743  0.0694 -0.1994  0.2612
50722SOL    HW159406   7.049   3.293   4.813 -1.6708  3.2851  2.5691
50722SOL    HW259407   7.010   3.409   4.724  2.2806  2.4830 -0.4883
50723SOL     OW59408  12.283   6.759   0.055 -0.5282  0.4802 -0.7118
50723SOL    HW159409  12.302   6.668   0.030 -0.2898  0.3890 -0.2078
50723SOL    HW259410  12.292   6.760   0.150  0.9460  1.3688 -0.8359
50724SOL     OW59411   3.572  10.224   7.970  0.1651 -0.1581  0.0498
50724SOL    HW159412   3.557  10.175   8.051  0.5232  1.1589  0.9461
50724SOL    HW259413   3.503  10.291   7.970  0.4781  0.1647 -0.4819
50725SOL     OW59414   9.533   0.807  11.501  0.4855  0.4597 -0.5410
50725SOL    HW159415   9.579   0.838  11.424  1.7689 -0.5620 -0.2168
50725SOL    HW259416   9.443   0.792  11.471  1.0890 -0.4382 -1.9810
50726SOL     OW59417   6.839   1.419   7.508  0.4351  0.2099  0.0774
50726SOL    HW159418   6.812   1.388   7.421 -0.9855  0.6138  0.3383
50726SOL    HW259419   6.928   1.387   7.518 -0.3685 -2.4302 -0.3223
50727SOL     OW59420   6.094   1.405   6.423 -0.6811  0.0061  0.1584
50727SOL    HW159421   6.157   1.472   6.397 -1.7849  0.9023 -0.2932
50727SOL    HW259422   6.023   1.454   6.463 -1.6403 -0.8652 -0.4319
50728SOL     OW59423   6.066   9.830   8.940  0.1122 -0.2450 -0.0151
50728SOL    HW159424   6.123   9.773   8.889 -0.6171 -0.1966 -0.9065
50728SOL    HW259425   6.122   9.863   9.011  1.4399  0.4527 -1.3318
50729SOL     OW59426   7.803   2.430   4.085 -0.0691  0.0119 -0.3688
50729SOL    HW159427   7.725   2.406   4.035 -1.1936  1.6306  0.4856
50729SOL    HW259428   7.796   2.378   4.165 -0.3522  0.2409 -0.2411
50730SOL     OW59429   4.576  10.116   7.353  0.1035 -0.3433 -0.2746
50730SOL    HW159430   4.634  10.143   7.281  1.2105 -0.8190  0.4060
50730SOL    HW259431   4.493  10.160   7.335 -0.1431 -1.6463 -2.6605
50731SOL     OW59432   9.598  11.792  10.611  0.2697 -0.1670 -0.2867
50731SOL    HW159433   9.674  11.739  10.585 -0.1349 -0.4810 -0.8598
50731SOL    HW259434   9.550  11.806  10.529 -0.8759 -0.9051  0.2306
50732SOL     OW59435   5.206   9.993   9.014 -0.4739 -0.5846 -0.1645
50732SOL    HW159436   5.248   9.936   8.950  0.6251  1.4492 -1.3435
50732SOL    HW259437   5.238   9.962   9.099  0.4869 -1.3934 -0.8039
50733SOL     OW59438   4.527   0.636   5.986  0.0980  0.3513  0.3522
50733SOL    HW159439   4.560   0.575   5.919 -0.9225 -0.4177  0.5244
50733SOL    HW259440   4.575   0.717   5.970 -0.4150  0.3133 -1.5833
50734SOL     OW59441   1.191   7.053   5.113  0.2672 -0.8797  0.1876
50734SOL    HW159442   1.175   7.028   5.022 -1.0426 -1.1061  0.4604
50734SOL    HW259443   1.108   7.037   5.157  0.6395  0.0163  1.2536
50735SOL     OW59444   3.832   9.108  12.041  0.3097  0.7622 -0.0311
50735SOL    HW159445   3.890   9.080  11.970 -0.7553 -0.1700 -0.5618
50735SOL    HW259446   3.755   9.144  11.998 -0.5276 -0.1827  0.6118
50736SOL     OW59447  12.250   4.774   2.829  0.0968 -0.5497 -0.6108
50736SOL    HW159448  12.241   4.780   2.734 -2.5247 -1.4758 -0.4993
50736SOL    HW259449  12.209   4.691   2.852 -1.9653  0.9499  1.5744
50737SOL     OW59450   1.980   0.710   7.339 -0.1450  0.0674 -0.2471
50737SOL    HW159451   2.051   0.728   7.401 -0.1709  0.1160 -0.2316
50737SOL    HW259452   1.987   0.616   7.322 -0.5861 -0.0841  0.3846
50738SOL     OW59453   8.676   5.240   7.010 -0.2820 -0.4335 -0.3703
50738SOL    HW159454   8.583   5.263   7.002  0.0192  0.7606 -0.6415
50738SOL    HW259455   8.689   5.171   6.945 -0.8709 -0.2466 -0.6948
50739SOL     OW59456  12.383   4.318   9.306  0.5842  0.0655 -0.1615
50739SOL    HW159457  12.423   4.399   9.277 -0.5671  0.8694  0.4037
50739SOL    HW259458  12.410   4.309   9.398  1.4280 -0.6728 -0.4660
50740SOL     OW59459   3.905   7.934  10.587  0.9076 -0.3342 -0.1889
50740SOL    HW159460   3.901   7.958  10.679  0.7647  3.3916 -1.0163
50740SOL    HW259461   3.823   7.887  10.571  0.9314 -1.0243  1.5278
50741SOL     OW59462   7.491   9.147   0.624  1.2193  0.6506  0.0727
50741SOL    HW159463   7.448   9.219   0.671  1.0520 -0.1441  1.1790
50741SOL    HW259464   7.437   9.071   0.642  1.0960  0.3233 -1.5316
50742SOL     OW59465   5.830  10.873   1.092  0.2809 -0.4695 -0.4121
50742SOL    HW159466   5.890  10.944   1.069 -2.2854  1.7243 -0.8651
50742SOL    HW259467   5.788  10.901   1.173 -0.1156 -1.9454 -0.0735
50743SOL     OW59468   1.283   3.767   1.951  0.7500 -0.2203 -0.4715
50743SOL    HW159469   1.283   3.765   2.047  2.0054  0.3876 -0.4473
50743SOL    HW259470   1.367   3.805   1.927  0.0668  0.5485 -1.8059
50744SOL     OW59471   4.617   1.060   2.491 -0.7152 -0.1269 -0.5003
50744SOL    HW159472   4.616   1.136   2.433 -0.1516  0.0725 -0.2653
50744SOL    HW259473   4.530   1.058   2.530 -0.8245  0.2374 -0.7213
50745SOL     OW59474  10.136   5.873   2.851  0.1122 -0.1422 -0.1393
50745SOL    HW159475  10.110   5.845   2.939 -1.3677 -1.2573 -0.8692
50745SOL    HW259476  10.058   5.858   2.798  0.0067  3.1985 -1.1360
50746SOL     OW59477   3.989   0.192   4.767  1.0689  0.8302 -0.0969
50746SOL    HW159478   3.995   0.167   4.859  0.3665 -0.1016 -0.2917
50746SOL    HW259479   4.080   0.196   4.738  1.3751  2.4353  0.9566
50747SOL     OW59480   5.334   7.893  10.496  0.0666  0.4542  0.0448
50747SOL    HW159481   5.409   7.834  10.503 -0.8271 -0.6510  0.7331
50747SOL    HW259482   5.372   7.979  10.478  1.4283 -0.2618 -0.6492
50748SOL     OW59483   2.587   4.666   0.061 -0.5028 -0.2619  0.0629
50748SOL    HW159484   2.617   4.593   0.006 -2.3371 -0.7577 -0.3326
50748SOL    HW259485   2.657   4.731   0.054  0.9532 -1.7677  0.0236
50749SOL     OW59486   2.569   3.772   8.741 -0.0513  0.3080 -0.5690
50749SOL    HW159487   2.648   3.728   8.772 -0.3169 -0.7930 -1.3850
50749SOL    HW259488   2.505   3.702   8.732 -0.5373  0.8793 -1.7443
50750SOL     OW59489   8.729  10.105   0.360 -0.5480 -0.4107 -0.8844
50750SOL    HW159490   8.817  10.141   0.370 -0.3479 -0.5464 -2.0570
50750SOL    HW259491   8.705  10.076   0.448  0.7707 -0.8051 -0.6362
50751SOL     OW59492   0.736   5.177  11.983 -0.9466 -0.6651 -0.8212
50751SOL    HW159493   0.757   5.194  12.074 -2.8389 -1.1526 -0.2381
50751SOL    HW259494   0.795   5.234  11.933 -0.0392 -0.2281  0.7005
50752SOL     OW59495   3.969   8.546   1.757  0.4129 -0.6461 -0.0849
50752SOL    HW159496   3.941   8.567   1.846 -0.1679  1.2816 -0.6802
50752SOL    HW259497   3.888   8.539   1.707  0.7937  1.3647 -1.0732
50753SOL     OW59498   9.598   6.701   9.492 -0.5008 -0.2632  0.2156
50753SOL    HW159499   9.584   6.737   9.579  0.6236  0.5817  0.0683
50753SOL    HW259500   9.606   6.777   9.435 -1.5592 -0.8028 -0.7120
50754SOL     OW59501   1.586   2.492   0.048  0.3671  0.0324 -0.0734
50754SOL    HW159502   1.672   2.524   0.020 -0.3657  1.1847 -1.0872
50754SOL    HW259503   1.532   2.571   0.053 -0.5379 -0.6268  0.9643
50755SOL     OW59504   4.013   0.976   5.194 -0.1264  0.1775  0.0584
50755SOL    HW159505   3.947   1.016   5.250 -0.0865  0.0149  0.2210
50755SOL    HW259506   4.090   1.032   5.204  0.1205 -0.2872  0.7583
50756SOL     OW59507  11.388  11.385   5.826 -0.6839 -0.5153  0.2467
50756SOL    HW159508  11.356  11.448   5.762 -0.0647 -0.2727  0.1721
50756SOL    HW259509  11.316  11.322   5.835 -1.4194  0.3479  0.5383
50757SOL     OW59510   2.297   2.251   7.191  0.7803  0.0170 -0.3023
50757SOL    HW159511   2.268   2.178   7.137 -0.7438  0.5744 -0.2802
50757SOL    HW259512   2.256   2.237   7.276  2.9435 -0.7089  0.6899
50758SOL     OW59513   8.946   4.433  11.583 -1.1904 -0.0664 -0.3873
50758SOL    HW159514   9.016   4.382  11.624  0.7649  1.9636 -1.0449
50758SOL    HW259515   8.905   4.480  11.656 -1.2756 -0.5554 -0.1156
50759SOL     OW59516   4.618   6.086  10.620 -0.1435  0.0513 -0.5313
50759SOL    HW159517   4.548   6.148  10.641  1.3730  1.5016  0.5446
50759SOL    HW259518   4.651   6.114  10.535  0.1642  0.3573 -0.3107
50760SOL     OW59519   4.756   0.088  12.348 -0.5257 -0.2111 -0.4492
50760SOL    HW159520   4.710   0.116  12.269 -0.8210 -0.1820 -0.2716
50760SOL    HW259521   4.846   0.073  12.321 -0.9849 -1.8910 -1.1861
50761SOL     OW59522  10.809   2.946   9.035  0.0345  0.1310 -0.0533
50761SOL    HW159523  10.817   2.910   8.947 -1.1649 -0.6412  0.1506
50761SOL    HW259524  10.778   3.036   9.021 -1.8068 -0.5213 -0.3762
50762SOL     OW59525   0.271   1.272  11.249  0.0860 -0.0958  0.1615
50762SOL    HW159526   0.363   1.291  11.267 -0.0015  2.4016 -1.5515
50762SOL    HW259527   0.257   1.302  11.159 -1.5371 -3.9017 -1.0618
50763SOL     OW59528  12.489   9.854  10.170 -0.1844 -0.2898 -0.3134
50763SOL    HW159529  12.512   9.899  10.088  0.9262  1.9209  1.1148
50763SOL    HW259530  12.572   9.824  10.205 -0.7251 -1.7819 -0.2643
50764SOL     OW59531   1.851   1.994   5.068  0.1037  0.2841 -0.1123
50764SOL    HW159532   1.915   1.930   5.037  0.1269 -0.0229  0.5488
50764SOL    HW259533   1.771   1.943   5.080  0.5026  0.0364  1.8336
50765SOL     OW59534   7.395   2.124  11.973  0.8067  0.3226 -0.3706
50765SOL    HW159535   7.435   2.204  11.938 -0.3054  1.1040  0.0718
50765SOL    HW259536   7.301   2.138  11.961  0.6389 -1.4154 -1.3096
50766SOL     OW59537   9.246  11.747  10.579  0.0314  0.8635  0.3056
50766SOL    HW159538   9.273  11.837  10.565 -0.8752  0.8246 -2.2560
50766SOL    HW259539   9.305  11.695  10.524 -1.2102  0.2065 -0.4516
50767SOL     OW59540  12.303   9.162   8.427 -0.0428  0.2914 -0.3727
50767SOL    HW159541  12.352   9.132   8.504  0.0339  1.8354  0.2154
50767SOL    HW259542  12.355   9.133   8.352  0.5805 -0.0576  0.1828
50768SOL     OW59543   2.999   1.407   9.903  0.3053 -0.0060  0.2874
50768SOL    HW159544   2.906   1.397   9.922  0.1432 -0.6090 -0.7024
50768SOL    HW259545   3.016   1.501   9.911 -0.0017 -0.0754  2.0620
50769SOL     OW59546   4.338   7.329  10.159 -0.3790 -0.2484  0.1743
50769SOL    HW159547   4.256   7.292  10.127 -0.1595 -0.4155 -0.2141
50769SOL    HW259548   4.314   7.379  10.236 -0.8818 -0.0993 -0.0742
50770SOL     OW59549   3.259   0.999   0.954 -0.1825  0.6735 -0.0380
50770SOL    HW159550   3.220   0.985   1.040 -0.4100  0.8007 -0.1193
50770SOL    HW259551   3.307   0.919   0.936 -0.2442  0.5932  0.1479
50771SOL     OW59552   0.724   7.421   4.666 -0.2429 -0.2498 -0.0678
50771SOL    HW159553   0.691   7.411   4.756 -0.5741 -1.0760 -0.2706
50771SOL    HW259554   0.795   7.485   4.674 -0.4221 -0.1349  0.7453
50772SOL     OW59555   2.582   7.051  12.373 -0.1450 -0.5269  0.0327
50772SOL    HW159556   2.564   7.037  12.280 -1.7921 -0.9855  0.3758
50772SOL    HW259557   2.615   7.141  12.378 -3.7078  1.0089 -0.6553
50773SOL     OW59558   7.387  10.748   3.095  0.1807  0.3594 -0.2367
50773SOL    HW159559   7.433  10.785   3.170 -1.1000  1.9150 -0.1929
50773SOL    HW259560   7.352  10.823   3.048 -2.0589 -0.7297 -0.4541
50774SOL     OW59561  11.377   4.939   8.452  0.5573  0.4336 -0.3258
50774SOL    HW159562  11.341   4.850   8.452  1.2295  0.1620  0.3987
50774SOL    HW259563  11.440   4.940   8.523 -0.4489  1.9075  0.6115
50775SOL     OW59564   7.042   7.754  12.410  0.2949 -0.3622  0.0420
50775SOL    HW159565   6.954   7.784  12.389  0.2022 -0.9476 -0.4133
50775SOL    HW259566   7.053   7.774  12.503 -0.0699  0.3154 -0.0550
50776SOL     OW59567   1.837   3.133   0.382 -0.2495 -0.6885  0.5886
50776SOL    HW159568   1.749   3.168   0.366 -0.1034 -0.3154  0.5789
50776SOL    HW259569   1.881   3.139   0.297  0.3207  0.6958  0.9530
50777SOL     OW59570   0.446   8.451   9.387  0.4999 -0.7877  0.0159
50777SOL    HW159571   0.376   8.471   9.449  0.6111 -0.3453  0.0032
50777SOL    HW259572   0.429   8.361   9.360 -0.0785 -0.6749 -0.0082
50778SOL     OW59573  12.273   5.945   2.265 -0.0375 -0.3009  0.0913
50778SOL    HW159574  12.306   5.894   2.191 -1.0558  0.1920 -0.7302
50778SOL    HW259575  12.249   5.880   2.331 -1.4771 -0.9271 -1.0007
50779SOL     OW59576   8.615   5.934   8.320  0.1128  0.2939 -0.2251
50779SOL    HW159577   8.558   5.952   8.245  2.8982  0.7323 -2.3573
50779SOL    HW259578   8.653   6.018   8.343 -2.1982  0.6083  3.1886
50780SOL     OW59579   3.953   1.719   0.032  0.1376 -0.3277  0.5905
50780SOL    HW159580   3.901   1.664  -0.027  0.9394 -0.1424 -0.3021
50780SOL    HW259581   3.900   1.799   0.041  1.0122  0.6381 -1.7854
50781SOL     OW59582   1.120   5.596   9.478  0.7653  0.0140 -0.2947
50781SOL    HW159583   1.174   5.624   9.552 -0.0098 -1.1839  0.7505
50781SOL    HW259584   1.033   5.631   9.497  0.7070  0.2572 -0.9820
50782SOL     OW59585   9.625   2.077   8.710  0.1598 -0.0278  0.5427
50782SOL    HW159586   9.584   1.994   8.736  0.7910  0.0494  1.8725
50782SOL    HW259587   9.707   2.052   8.668 -0.0419 -0.0986  0.1868
50783SOL     OW59588   4.543   5.942   0.965 -0.1532 -0.2632 -0.1333
50783SOL    HW159589   4.488   5.888   0.907 -2.3708  1.9672 -0.2922
50783SOL    HW259590   4.596   5.879   1.014 -0.6698 -2.4002 -2.1632
50784SOL     OW59591   4.746   1.290   3.444  0.1852 -0.3298  0.0825
50784SOL    HW159592   4.785   1.251   3.365  0.2824  1.0221 -0.5630
50784SOL    HW259593   4.814   1.347   3.479 -0.6764  0.9349 -0.2299
50785SOL     OW59594   6.216   5.179   0.757  0.1581  0.0055  0.2997
50785SOL    HW159595   6.143   5.118   0.767  1.2480 -1.7970 -1.9228
50785SOL    HW259596   6.208   5.211   0.667 -0.0980  2.8810  1.2523
50786SOL     OW59597   9.572  11.729   5.407  0.1342 -0.0981  0.0401
50786SOL    HW159598   9.503  11.677   5.449  0.2718 -0.2673  0.0561
50786SOL    HW259599   9.645  11.667   5.395 -0.3737 -0.4062 -1.6574
50787SOL     OW59600   7.197   9.288  12.196 -0.6789  0.4645 -0.0486
50787SOL    HW159601   7.152   9.354  12.144 -1.3333 -0.6517 -0.9560
50787SOL    HW259602   7.161   9.205  12.164  2.0725 -0.5072 -0.8933
50788SOL     OW59603  10.881   5.479   9.944 -0.0336  0.4146 -0.1079
50788SOL    HW159604  10.933   5.489  10.023 -1.0147  1.0983  0.4655
50788SOL    HW259605  10.871   5.568   9.910 -0.4454  0.2332 -0.4719
50789SOL     OW59606   4.476  10.195   4.581  0.0899 -0.5257  0.2293
50789SOL    HW159607   4.385  10.165   4.587  0.1502 -1.7306 -2.9084
50789SOL    HW259608   4.497  10.226   4.669 -2.6261 -2.3034  1.6485
50790SOL     OW59609   4.345  11.273   2.390 -0.1270 -0.1886 -0.4515
50790SOL    HW159610   4.380  11.212   2.455  0.4174  0.9313  0.3371
50790SOL    HW259611   4.270  11.314   2.434  1.2265  1.7674  0.1269
50791SOL     OW59612  11.895   7.718   9.958 -0.3518 -0.1922 -0.1906
50791SOL    HW159613  11.873   7.652  10.023  0.0136 -0.2881 -0.1604
50791SOL    HW259614  11.918   7.795  10.009 -2.3464  0.4845 -0.2488
50792SOL     OW59615  10.955   5.455   0.730  0.1724 -0.1775  0.4595
50792SOL    HW159616  10.991   5.374   0.765 -2.0949 -1.0078  1.0106
50792SOL    HW259617  10.892   5.484   0.796 -1.1917  0.4395 -1.0420
50793SOL     OW59618   9.647  12.428   9.954 -0.6699  0.5819 -0.0528
50793SOL    HW159619   9.569  12.376   9.969 -0.5464 -0.3763 -2.3436
50793SOL    HW259620   9.718  12.365   9.948 -0.3886  1.0085 -2.0284
50794SOL     OW59621   8.140   1.583  11.000 -0.2091  0.0471 -0.2043
50794SOL    HW159622   8.089   1.663  10.983  0.4642  0.6981  0.7377
50794SOL    HW259623   8.219   1.614  11.043  0.9456 -0.9653 -1.5051
50795SOL     OW59624   8.142  11.856   9.657 -0.5824  0.3314 -0.0083
50795SOL    HW159625   8.114  11.946   9.673 -1.8395 -0.1711  0.7958
50795SOL    HW259626   8.157  11.820   9.744 -0.1555 -0.2518 -0.3227
50796SOL     OW59627  11.500  11.056   8.927  0.1955 -0.8462 -0.3327
50796SOL    HW159628  11.533  10.989   8.986 -3.0563 -1.1714  1.4112
50796SOL    HW259629  11.479  11.010   8.846 -2.4759 -2.2420  1.0095
50797SOL     OW59630  12.651   2.164   0.176 -0.5612 -0.4949 -0.1446
50797SOL    HW159631  12.602   2.158   0.093 -0.0648 -0.4818 -0.4391
50797SOL    HW259632  12.650   2.074   0.210 -1.3153 -0.3848  0.1624
50798SOL     OW59633   7.562   1.440   8.662 -0.1713 -0.5692 -0.3498
50798SOL    HW159634   7.534   1.379   8.731 -1.9750  1.8315  1.1971
50798SOL    HW259635   7.489   1.442   8.600 -1.3267  1.7901  0.9508
50799SOL     OW59636   8.842   0.218   6.451 -0.6345 -0.2470  0.7273
50799SOL    HW159637   8.748   0.235   6.454 -0.9665 -1.4137 -1.1543
50799SOL    HW259638   8.880   0.298   6.414 -1.1690 -0.5553 -0.5163
50800SOL     OW59639  12.527   6.006   4.201 -0.4839  0.2767 -0.5667
50800SOL    HW159640  12.450   6.061   4.192 -1.3849 -0.9092 -0.2936
50800SOL    HW259641  12.518   5.965   4.287 -0.9126 -1.8467 -1.5539
50801SOL     OW59642   0.057   4.153   8.998 -0.0088  0.3124 -0.3236
50801SOL    HW159643   0.006   4.207   9.059 -0.0624  2.1514 -1.9181
50801SOL    HW259644  -0.008   4.117   8.938  0.2536  0.1784 -0.5275
50802SOL     OW59645   5.178   7.083   9.440  0.5331 -0.4522 -0.0590
50802SOL    HW159646   5.100   7.105   9.388  0.2869  0.3755  0.6535
50802SOL    HW259647   5.247   7.071   9.374  0.1028  0.0511 -0.6165
50803SOL     OW59648   1.251  12.630  10.842 -0.1100 -0.0684 -0.0418
50803SOL    HW159649   1.266  12.723  10.858 -0.0181 -0.2357  0.9029
50803SOL    HW259650   1.292  12.586  10.916 -0.0677 -0.8704 -0.5284
50804SOL     OW59651   0.337   9.732   1.803 -0.1460  0.7643  0.0667
50804SOL    HW159652   0.374   9.786   1.733  1.4419 -0.6738 -0.2662
50804SOL    HW259653   0.400   9.661   1.813 -1.1136  0.1318  1.9441
50805SOL     OW59654   3.795  10.594   9.883 -0.1433 -0.0661  0.0737
50805SOL    HW159655   3.736  10.529   9.845 -0.1482 -0.7212  1.1716
50805SOL    HW259656   3.737  10.662   9.918 -0.2906 -0.8794  1.4648
50806SOL     OW59657   9.420   9.367   0.936  0.4838 -0.0162 -0.3017
50806SOL    HW159658   9.501   9.418   0.946  1.3292 -1.3136 -0.3589
50806SOL    HW259659   9.448   9.283   0.901 -0.7384 -0.9781  0.9125
50807SOL     OW59660  12.029   3.259  11.697  0.0578  0.2140  0.2147
50807SOL    HW159661  12.014   3.313  11.619 -0.2987 -0.2461 -0.0446
50807SOL    HW259662  12.123   3.262  11.710  0.1874 -0.1390 -0.5625
50808SOL     OW59663   6.776   4.982  11.223 -0.5300  0.0769  0.3458
50808SOL    HW159664   6.856   5.024  11.190 -1.8559  2.2831 -0.2661
50808SOL    HW259665   6.808   4.906  11.272  1.7866 -0.8243 -2.2566
50809SOL     OW59666  11.562  12.322   6.958 -0.7702  0.3197  0.0391
50809SOL    HW159667  11.633  12.259   6.968 -1.2200  0.0728  2.0286
50809SOL    HW259668  11.485  12.277   6.994 -0.9622  2.2106  2.1987
50810SOL     OW59669   8.318   5.756  10.964  0.6334  0.0498  0.0118
50810SOL    HW159670   8.354   5.812  10.895  0.4836 -0.9747 -0.9357
50810SOL    HW259671   8.360   5.671  10.950  0.8298 -0.0908  1.3957
50811SOL     OW59672   0.596   5.776  12.258 -0.2902 -0.0706 -0.0595
50811SOL    HW159673   0.592   5.802  12.165 -1.3130 -1.4957 -0.4440
50811SOL    HW259674   0.603   5.858  12.305 -0.2782  0.7196 -1.3808
50812SOL     OW59675   1.366   5.203   7.448  0.5727 -0.5591  0.3405
50812SOL    HW159676   1.372   5.122   7.397 -0.0053 -1.4237  1.5882
50812SOL    HW259677   1.317   5.178   7.527 -1.5478  1.4796 -0.2160
50813SOL     OW59678   0.928   9.354   3.152  0.0141  0.4101 -0.3361
50813SOL    HW159679   0.958   9.266   3.175 -2.4199 -0.7050 -1.1494
50813SOL    HW259680   1.009   9.402   3.132  1.5080 -1.1916  1.4656
50814SOL     OW59681  10.970   3.290  12.124  0.1806  0.3926 -0.0656
50814SOL    HW159682  10.952   3.226  12.055  1.3946 -0.4002  0.3236
50814SOL    HW259683  11.038   3.346  12.086  1.7018 -0.7517  0.8549
50815SOL     OW59684   9.177   4.840   4.444  0.0915  0.2553 -0.2862
50815SOL    HW159685   9.175   4.854   4.349 -0.7825 -0.0481 -0.3242
50815SOL    HW259686   9.119   4.907   4.479  2.6998  2.3561  0.3484
50816SOL     OW59687  11.646  11.569   3.989  0.4917 -0.6257  0.0758
50816SOL    HW159688  11.638  11.575   4.084  0.3108  0.1499  0.0164
50816SOL    HW259689  11.578  11.627   3.956  1.1033 -0.2397 -0.5200
50817SOL     OW59690   3.318  12.585   0.803  0.6467 -0.4768  0.4277
50817SOL    HW159691   3.349  12.650   0.867 -0.5236 -0.9502  1.5109
50817SOL    HW259692   3.230  12.615   0.779  0.2572 -1.4384  0.6243
50818SOL     OW59693   0.383   9.459   3.901  0.4138 -0.2531 -0.0366
50818SOL    HW159694   0.451   9.464   3.834  0.5105 -0.2388  0.0623
50818SOL    HW259695   0.314   9.517   3.869 -0.8007 -2.4088 -1.5341
50819SOL     OW59696   7.778   4.045   2.330 -0.1142  0.4432 -0.0748
50819SOL    HW159697   7.788   4.003   2.245  0.2101 -0.6770  0.4922
50819SOL    HW259698   7.689   4.024   2.358  0.6876 -1.7587  1.1298
50820SOL     OW59699   9.542   1.093   3.409  0.5211 -0.3470 -0.2222
50820SOL    HW159700   9.533   1.065   3.500  0.7104 -1.0976 -0.4268
50820SOL    HW259701   9.636   1.110   3.398  0.3587  0.7373  0.0001
50821SOL     OW59702   8.065   5.840   8.774 -0.2168  0.5607  0.1155
50821SOL    HW159703   8.134   5.901   8.800  0.8441 -1.0827  1.3311
50821SOL    HW259704   8.093   5.806   8.689 -0.2775  0.9736 -0.0715
50822SOL     OW59705   9.408   0.171  10.670 -0.2444 -0.0198 -0.3178
50822SOL    HW159706   9.353   0.242  10.702 -1.1363  0.0019 -1.8245
50822SOL    HW259707   9.466   0.150  10.744 -1.7081  0.5075  1.0306
50823SOL     OW59708   3.403   1.001   9.525 -0.0705  0.2965  0.3547
50823SOL    HW159709   3.379   1.025   9.615  0.1063  1.1604  0.1825
50823SOL    HW259710   3.379   0.909   9.518 -1.6309  0.6271  0.7842
50824SOL     OW59711   8.557   6.338   9.799  0.3630  0.5671  0.5263
50824SOL    HW159712   8.467   6.331   9.830  0.7455  0.7456  1.7336
50824SOL    HW259713   8.610   6.334   9.878  1.4152  0.6135 -0.1550
50825SOL     OW59714   1.490   6.697  12.660  0.3222 -0.4620 -0.4410
50825SOL    HW159715   1.580   6.669  12.642  0.1329 -0.4486 -1.4743
50825SOL    HW259716   1.436   6.640  12.606 -0.4546 -1.8625  1.7188
50826SOL     OW59717   7.185   1.365   3.039 -0.6838 -0.0308  0.0190
50826SOL    HW159718   7.182   1.317   3.122  0.7072  0.8063  0.5890
50826SOL    HW259719   7.251   1.319   2.987 -0.7125  0.1435 -0.1710
50827SOL     OW59720   0.551   5.799   1.618  0.1835 -0.1560  0.1118
50827SOL    HW159721   0.617   5.832   1.556 -0.7315  0.5510 -0.5168
50827SOL    HW259722   0.576   5.708   1.633  0.1779 -0.5042 -1.6699
50828SOL     OW59723   3.677   6.077   3.753  0.0998 -0.0564  0.3709
50828SOL    HW159724   3.686   6.046   3.843  0.4082 -0.6381  0.1407
50828SOL    HW259725   3.583   6.073   3.735 -0.1645  1.5399  1.1819
50829SOL     OW59726   0.788  10.484   6.452  0.2437  0.6659 -0.0679
50829SOL    HW159727   0.789  10.472   6.358 -0.3853  0.6469 -0.0742
50829SOL    HW259728   0.839  10.411   6.487 -0.4693  0.0351 -0.3272
50830SOL     OW59729  11.474   9.420   4.165 -0.0153  0.1109  1.0594
50830SOL    HW159730  11.524   9.339   4.152 -2.0024 -0.6636 -3.3679
50830SOL    HW259731  11.388   9.391   4.196 -0.7487  0.4063 -0.5703
50831SOL     OW59732  10.824  11.426   4.299  0.9110 -0.6024  0.4955
50831SOL    HW159733  10.831  11.331   4.287  1.5597 -0.2067 -3.3361
50831SOL    HW259734  10.869  11.443   4.382 -0.0090 -3.6770  1.7564
50832SOL     OW59735   7.156   4.303  11.588  0.4151  0.0630 -0.3940
50832SOL    HW159736   7.161   4.259  11.673  3.4495 -0.7028 -0.8696
50832SOL    HW259737   7.180   4.394  11.607  0.3688  0.0626 -0.3328
50833SOL     OW59738   7.083   2.864   4.132 -0.2381  0.3364  0.0594
50833SOL    HW159739   6.988   2.854   4.134 -0.2440  0.4267  0.2641
50833SOL    HW259740   7.100   2.944   4.181 -0.0729  0.4462 -0.1750
50834SOL     OW59741   3.088   0.560   7.074 -0.2248  0.2768 -0.9250
50834SOL    HW159742   3.095   0.489   7.010  0.8127 -0.5363  0.0591
50834SOL    HW259743   3.173   0.562   7.118 -1.3934 -0.3253  1.5719
50835SOL     OW59744   4.169  12.300  11.251  0.7222  0.3644  0.1370
50835SOL    HW159745   4.158  12.348  11.334  2.3607  0.1541  0.5058
50835SOL    HW259746   4.248  12.248  11.264  1.0799  0.4165 -1.6115
50836SOL     OW59747   6.360   6.220  12.160  0.0698 -0.8281 -0.0341
50836SOL    HW159748   6.420   6.150  12.133  1.2001 -0.5204  1.5367
50836SOL    HW259749   6.341   6.200  12.252 -0.1729  0.5225  0.2219
50837SOL     OW59750  10.995   4.287   8.283  0.3171  0.3929 -0.0599
50837SOL    HW159751  11.029   4.347   8.216  1.6703 -0.7816 -0.4852
50837SOL    HW259752  10.935   4.230   8.235 -0.2879  0.8402  0.1604
50838SOL     OW59753  12.705   3.921  10.264 -0.0505 -0.4374 -0.0982
50838SOL    HW159754  12.736   3.883  10.347  0.7042 -0.1178 -0.2243
50838SOL    HW259755  12.763   3.995  10.249  0.4768 -1.0896 -1.4303
50839SOL     OW59756   1.046   9.850   2.574  0.4164  0.0410  0.0984
50839SOL    HW159757   1.105   9.778   2.552 -0.1049 -0.2325 -0.4340
50839SOL    HW259758   1.035   9.899   2.492 -1.2081 -0.7419 -0.1914
50840SOL     OW59759   5.026   9.795   3.439 -0.1591  0.0916  0.3463
50840SOL    HW159760   5.039   9.882   3.400  0.5363 -0.7676 -1.4141
50840SOL    HW259761   4.934   9.774   3.422 -1.2056  1.6416  3.3583
50841SOL     OW59762   9.415   5.239   6.752  0.1611 -0.2280 -0.1597
50841SOL    HW159763   9.345   5.212   6.812  0.8969 -1.5769  0.1508
50841SOL    HW259764   9.452   5.317   6.792 -1.2027  0.5596 -0.3777
50842SOL     OW59765   6.431  10.451   8.853 -0.3976 -0.0038  0.8858
50842SOL    HW159766   6.420  10.485   8.765  0.3477 -1.0771  0.3624
50842SOL    HW259767   6.522  10.473   8.876  0.1802 -1.8019  0.4424
50843SOL     OW59768  10.222   8.843  11.829 -0.1707  0.1843 -0.8417
50843SOL    HW159769  10.228   8.937  11.811  0.3803  0.3114 -0.0177
50843SOL    HW259770  10.306   8.820  11.868 -1.8276  0.2871  3.2383
50844SOL     OW59771   7.023   6.137   2.902  0.5145  0.6113 -0.1495
50844SOL    HW159772   6.973   6.083   2.841 -1.2042  1.6412  0.3060
50844SOL    HW259773   7.046   6.215   2.852  1.0809  0.4632 -0.1352
50845SOL     OW59774  11.549   0.717   7.558  0.1442 -0.1374  0.5816
50845SOL    HW159775  11.487   0.767   7.507  0.5999  0.3707  0.5152
50845SOL    HW259776  11.599   0.666   7.494  0.1105 -0.1910  0.5970
50846SOL     OW59777   9.386   6.504  11.786  0.5329  0.0556 -0.1505
50846SOL    HW159778   9.339   6.437  11.835  0.1977 -0.4114 -1.0888
50846SOL    HW259779   9.434   6.553  11.853  0.2945 -0.7235  0.6127
50847SOL     OW59780  11.045   0.470   1.329  0.3404  0.1440  0.1827
50847SOL    HW159781  11.046   0.564   1.313  0.1268  0.3654  1.3687
50847SOL    HW259782  11.137   0.444   1.326  0.3654  0.3038 -0.5932
50848SOL     OW59783   7.834   2.971  12.645  0.3121  0.0908 -0.5344
50848SOL    HW159784   7.816   3.064  12.636  2.1033  0.5202 -0.0438
50848SOL    HW259785   7.753   2.934  12.681 -0.1144  1.6167  0.1530
50849SOL     OW59786   3.916   7.049   3.745 -0.1839 -0.5941 -0.4038
50849SOL    HW159787   3.903   7.046   3.650 -0.6563 -0.1010 -0.3605
50849SOL    HW259788   3.931   6.958   3.770  0.2238 -0.6940 -0.9885
50850SOL     OW59789   2.033   2.669   8.013  0.3510 -0.0105  0.1336
50850SOL    HW159790   2.042   2.574   8.014 -0.2720 -0.0776  1.3613
50850SOL    HW259791   2.073   2.699   8.094 -1.1475  0.5760  0.7073
50851SOL     OW59792   4.607  10.336   0.776  0.4160 -0.5795 -0.2641
50851SOL    HW159793   4.557  10.321   0.856  0.6095  0.2924  0.0330
50851SOL    HW259794   4.698  10.327   0.802  0.4747 -0.4098 -0.4100
50852SOL     OW59795   1.608   8.210   4.356  0.3935  0.3343 -0.2909
50852SOL    HW159796   1.667   8.286   4.365  0.4561  0.5165 -1.9337
50852SOL    HW259797   1.623   8.179   4.267  2.4677 -3.3855  1.1456
50853SOL     OW59798   7.034   3.221   7.150  0.0469 -0.5566 -0.2078
50853SOL    HW159799   7.122   3.230   7.113 -0.0679 -3.1692 -1.3009
50853SOL    HW259800   7.048   3.219   7.245  1.5749 -3.6726 -0.3888
50854SOL     OW59801   9.190  11.001   5.582  0.1198  0.3107  0.4113
50854SOL    HW159802   9.215  11.020   5.491 -0.5460  0.1573  0.1959
50854SOL    HW259803   9.153  10.913   5.579 -2.9864  1.5084  0.2152
50855SOL     OW59804   4.774   3.832   9.764 -0.1482 -0.0909 -0.3115
50855SOL    HW159805   4.694   3.780   9.760  0.0355 -0.3178 -1.1180
50855SOL    HW259806   4.782   3.872   9.678  0.4817  0.1221 -0.1612
50856SOL     OW59807  10.787  10.725   8.359 -0.2116  0.2106 -0.3048
50856SOL    HW159808  10.839  10.798   8.324  0.4880 -0.4267 -0.6343
50856SOL    HW259809  10.851  10.670   8.405 -1.1509  1.2069  2.3587
50857SOL     OW59810  12.376  10.900  10.568 -0.4161  0.3367  0.2515
50857SOL    HW159811  12.367  10.805  10.562  0.0697  0.1566  1.8689
50857SOL    HW259812  12.359  10.932  10.479 -0.6301 -1.2477 -0.3013
50858SOL     OW59813   5.051  10.614  10.641  0.3853 -0.3085  0.1593
50858SOL    HW159814   5.017  10.699  10.614  1.1973  0.4546  1.4502
50858SOL    HW259815   5.117  10.634  10.708  0.9815 -1.9219  0.1003
50859SOL     OW59816   9.863   3.229  10.595 -0.0104 -0.0620  0.0618
50859SOL    HW159817   9.863   3.136  10.575 -1.3849 -0.0285 -0.2481
50859SOL    HW259818   9.856   3.233  10.690  0.0591 -0.2818  0.0766
50860SOL     OW59819  12.621   1.625  11.457 -0.1482  0.6230  0.3565
50860SOL    HW159820  12.547   1.682  11.475 -0.9480 -0.7094  1.5264
50860SOL    HW259821  12.695   1.684  11.442 -1.1387  1.9471  0.5995
50861SOL     OW59822   8.703   7.699   7.214  0.5669 -0.0569 -0.0279
50861SOL    HW159823   8.659   7.784   7.214  1.5262  0.4979 -1.8275
50861SOL    HW259824   8.747   7.695   7.129  3.5402 -0.7527  1.3775
50862SOL     OW59825  10.399   7.075   2.227  0.5828  0.4975  0.0030
50862SOL    HW159826  10.408   7.055   2.134  1.4036 -0.3108  0.2355
50862SOL    HW259827  10.347   7.155   2.230  1.2374  0.9875 -1.1795
50863SOL     OW59828   2.965   3.792   5.698 -0.5386 -0.5319  0.2812
50863SOL    HW159829   2.896   3.797   5.632  0.4629  0.4598 -0.7289
50863SOL    HW259830   3.045   3.818   5.652  0.4085 -1.0434  1.5793
50864SOL     OW59831   9.712   5.192   8.393 -1.2044  0.2750  0.1131
50864SOL    HW159832   9.660   5.188   8.313  0.7499 -0.7015 -1.1906
50864SOL    HW259833   9.802   5.199   8.363 -0.1572 -2.5847  2.1216
50865SOL     OW59834   0.119   3.215   8.853  0.0575  0.1825  0.0016
50865SOL    HW159835   0.084   3.137   8.895 -2.5209  0.2842 -1.7094
50865SOL    HW259836   0.169   3.182   8.779 -1.1258  0.1113 -0.7878
50866SOL     OW59837  12.072   9.365   7.500 -0.1026 -0.3219 -0.0711
50866SOL    HW159838  12.087   9.274   7.526 -1.2825 -0.3457  0.5520
50866SOL    HW259839  12.039   9.359   7.410 -2.5375 -0.7194  0.7763
50867SOL     OW59840   8.986   8.193   2.617  0.1083  0.2067  0.2894
50867SOL    HW159841   9.035   8.160   2.692  0.1963  0.1194  0.1957
50867SOL    HW259842   8.991   8.122   2.553 -1.2398 -0.3203  0.7525
50868SOL     OW59843   9.530  10.461   4.841  0.8207  0.0936 -0.2476
50868SOL    HW159844   9.567  10.428   4.759  1.7208 -0.6909  0.4602
50868SOL    HW259845   9.501  10.383   4.888  0.6199  0.5097  0.3346
50869SOL     OW59846   7.582   0.360   7.387  0.5130 -0.0099  0.3468
50869SOL    HW159847   7.616   0.323   7.468  1.2169  1.6356  0.8613
50869SOL    HW259848   7.596   0.293   7.320 -0.9425 -1.7902  1.7236
50870SOL     OW59849   7.998   1.997  11.817 -0.5469  0.1958 -0.2993
50870SOL    HW159850   7.925   1.944  11.787 -0.0182 -0.7740  0.1046
50870SOL    HW259851   8.075   1.941  11.807  0.3613  1.6471 -1.9906
50871SOL     OW59852   7.821   5.070   0.103 -0.2662  0.2157 -0.2923
50871SOL    HW159853   7.762   5.055   0.177 -0.9958  0.7062 -0.7694
50871SOL    HW259854   7.801   4.999   0.042  1.0190 -0.7673  0.3814
50872SOL     OW59855  10.196   9.155   0.278 -0.6693  0.3196  0.3632
50872SOL    HW159856  10.124   9.142   0.339 -0.4963 -1.6234  0.2173
50872SOL    HW259857  10.160   9.130   0.193  0.2908 -1.2413  0.3770
50873SOL     OW59858   1.288   7.565   5.038 -0.1069 -0.5498 -0.5133
50873SOL    HW159859   1.228   7.579   5.112 -1.2926 -3.0482 -0.9006
50873SOL    HW259860   1.271   7.640   4.980 -0.4603  0.5034  0.8874
50874SOL     OW59861   7.670   8.871   0.130 -0.0322  0.2494  0.3400
50874SOL    HW159862   7.672   8.823   0.048 -0.8542 -0.0087  0.4637
50874SOL    HW259863   7.578   8.872   0.156  0.2827 -0.2408  1.5901
50875SOL     OW59864   0.948  12.027   4.330 -0.9508 -0.2628 -0.3632
50875SOL    HW159865   0.987  12.003   4.245  0.3520  0.4445 -0.0002
50875SOL    HW259866   0.870  12.077   4.307 -0.0097  0.8934 -1.2020
50876SOL     OW59867  11.765   5.255   1.186 -0.5263  0.1455 -0.3814
50876SOL    HW159868  11.751   5.339   1.229  1.4677 -0.0265  0.7276
50876SOL    HW259869  11.847   5.223   1.223 -0.3880 -1.5236 -2.0055
50877SOL     OW59870   1.286   8.188  11.394  0.2012  0.5731  0.1177
50877SOL    HW159871   1.326   8.237  11.466  0.5180  1.6172 -0.7413
50877SOL    HW259872   1.231   8.252  11.349 -2.8365 -0.9043  1.4592
50878SOL     OW59873  11.056   2.624   8.484 -1.3177  0.0750  0.2985
50878SOL    HW159874  10.988   2.642   8.549 -1.7034  0.0043 -0.0844
50878SOL    HW259875  11.138   2.648   8.528 -1.5153 -0.5497  1.0321
50879SOL     OW59876  12.398   6.526   2.664 -0.1049  0.6329  0.3445
50879SOL    HW159877  12.451   6.461   2.618 -1.4546  1.4951 -2.7154
50879SOL    HW259878  12.461   6.573   2.719  1.3210 -1.6038  0.7686
50880SOL     OW59879   7.885   2.815   3.760 -0.4656  0.2284 -0.2147
50880SOL    HW159880   7.911   2.904   3.786  1.7382 -0.2662 -0.5084
50880SOL    HW259881   7.897   2.814   3.665 -0.3146 -0.4349 -0.1888
50881SOL     OW59882  11.508   6.641   0.786 -0.2247  0.5554 -0.1469
50881SOL    HW159883  11.594   6.643   0.826 -0.8053 -0.5379  1.2606
50881SOL    HW259884  11.523   6.667   0.695  1.6467 -0.0575 -0.0580
50882SOL     OW59885   6.670   9.876   7.223  0.7678 -0.3487  0.0831
50882SOL    HW159886   6.696   9.789   7.195  0.6972  0.8212 -4.3585
50882SOL    HW259887   6.577   9.869   7.241  0.9863 -1.3734  0.9026
50883SOL     OW59888   2.488   5.130  10.012 -0.6631 -0.5294  0.4014
50883SOL    HW159889   2.535   5.212  10.024 -0.7227 -0.1721 -1.5552
50883SOL    HW259890   2.406   5.141  10.059 -0.0610 -0.0378  1.3587
50884SOL     OW59891   6.553   2.013   0.410 -0.5843  0.4359  0.7967
50884SOL    HW159892   6.610   2.084   0.442 -0.7907  0.2105  1.6860
50884SOL    HW259893   6.557   1.947   0.479  0.4398 -0.8973 -0.4895
50885SOL     OW59894   7.737   3.026  10.644  0.0581 -0.0453 -0.3345
50885SOL    HW159895   7.775   3.030  10.556  0.4973 -0.0924 -0.1466
50885SOL    HW259896   7.776   2.949  10.684 -0.3583 -0.1873 -0.1910
50886SOL     OW59897   7.880   3.052   1.506 -0.2018 -0.1952 -0.5362
50886SOL    HW159898   7.840   3.050   1.593  0.7555 -1.3636 -0.0893
50886SOL    HW259899   7.879   2.961   1.477  4.2021 -0.8634  0.5593
50887SOL     OW59900   6.134   6.009  10.866  0.0753  0.4060 -0.0154
50887SOL    HW159901   6.084   6.069  10.922 -1.7278 -1.1871  0.1835
50887SOL    HW259902   6.147   6.057  10.785  0.1820  1.6780  0.7221
50888SOL     OW59903   0.296   5.978   5.695  0.4054 -0.3895  0.1254
50888SOL    HW159904   0.337   5.972   5.608  0.2885  0.3908  0.0087
50888SOL    HW259905   0.324   5.898   5.740  2.6157  0.3888  0.2738
50889SOL     OW59906   4.402   5.702   1.881 -0.5879 -0.1269  0.3718
50889SOL    HW159907   4.404   5.680   1.974 -1.0548  1.5565  0.8097
50889SOL    HW259908   4.492   5.693   1.852 -0.4663 -0.8348  0.9303
50890SOL     OW59909   9.643   9.158   8.923  0.0460  0.1675  0.5651
50890SOL    HW159910   9.577   9.224   8.904  1.3417  1.2490 -0.4383
50890SOL    HW259911   9.668   9.124   8.837  1.8531  0.9042  0.7476
50891SOL     OW59912   5.889   2.737   5.438  0.7482  0.1521  0.6048
50891SOL    HW159913   5.924   2.648   5.441  1.6745  0.4361 -0.8524
50891SOL    HW259914   5.933   2.783   5.509  2.2101  0.1011 -0.2460
50892SOL     OW59915   9.366   0.096   1.382  0.1931  0.0460 -0.4517
50892SOL    HW159916   9.352   0.024   1.320  0.1374 -0.0490 -0.3292
50892SOL    HW259917   9.326   0.066   1.463 -0.2194  0.3958 -0.5195
50893SOL     OW59918  12.356   9.232   5.283 -0.0679  0.5087 -0.1928
50893SOL    HW159919  12.412   9.216   5.359  1.0888  0.8624 -0.9364
50893SOL    HW259920  12.336   9.326   5.287 -1.4604  0.2046  0.6086
50894SOL     OW59921   2.262  12.195   0.155 -0.1383 -0.0477 -0.0271
50894SOL    HW159922   2.238  12.109   0.121 -0.5773 -0.2497  0.7621
50894SOL    HW259923   2.254  12.186   0.250 -2.1669  1.4291 -0.0006
50895SOL     OW59924   6.073   4.149   6.205  0.2559 -0.2452 -0.6944
50895SOL    HW159925   6.076   4.054   6.205 -0.7865 -0.2921 -0.4841
50895SOL    HW259926   5.984   4.170   6.175  0.7221  0.6728 -1.4859
50896SOL     OW59927   7.277   6.808   6.366  0.3314  0.7324 -0.5639
50896SOL    HW159928   7.309   6.721   6.345 -1.1476 -0.0385  0.1814
50896SOL    HW259929   7.334   6.867   6.317 -1.1150 -0.7675 -4.4441
50897SOL     OW59930   8.224   4.467   0.214  0.0865 -0.3506  0.2584
50897SOL    HW159931   8.205   4.449   0.122 -0.3299 -0.1311  0.2953
50897SOL    HW259932   8.218   4.382   0.257 -2.5611 -0.1027  0.5516
50898SOL     OW59933   5.886   0.267   4.982  0.0606 -0.5937  0.0426
50898SOL    HW159934   5.919   0.237   4.897  0.3675  0.3910 -0.2063
50898SOL    HW259935   5.799   0.230   4.989 -0.0808 -0.4507 -0.8420
50899SOL     OW59936   9.123  11.276   3.553  0.1102  0.0713  0.2821
50899SOL    HW159937   9.029  11.286   3.536  0.3487  1.1567 -0.4673
50899SOL    HW259938   9.147  11.354   3.602  1.1161  1.1071 -1.7470
50900SOL     OW59939   2.728   3.833   3.585 -0.8038  0.1573  0.2369
50900SOL    HW159940   2.801   3.850   3.524 -0.9453  1.8765  0.5012
50900SOL    HW259941   2.713   3.917   3.628 -1.3749 -0.7730  1.9395
50901SOL     OW59942   1.258  10.840  10.681 -0.0483 -0.6589  1.0335
50901SOL    HW159943   1.283  10.893  10.757 -1.3315  1.2840  0.1850
50901SOL    HW259944   1.173  10.802  10.706  0.0893 -0.9753  1.0176
50902SOL     OW59945   8.734   1.101   4.439  0.2179  0.7361  0.0457
50902SOL    HW159946   8.789   1.135   4.510 -1.0729  1.6322  0.6743
50902SOL    HW259947   8.785   1.116   4.360  1.3575  0.4604  0.7037
50903SOL     OW59948   7.874  12.564   8.266 -0.6206  0.4838  0.3072
50903SOL    HW159949   7.917  12.537   8.347 -0.6833  0.1520  0.2288
50903SOL    HW259950   7.830  12.646   8.289 -0.4068  0.5356  0.5334
50904SOL     OW59951   0.045   0.190   1.366  0.1206 -0.3562 -0.4185
50904SOL    HW159952   0.073   0.121   1.426  0.9351  0.3379  0.0129
50904SOL    HW259953  -0.037   0.157   1.329 -0.4578 -0.7574  1.1398
50905SOL     OW59954   7.820   7.792   4.846  0.1514 -0.3439 -0.0654
50905SOL    HW159955   7.858   7.732   4.781  0.6994 -0.9073  0.7608
50905SOL    HW259956   7.726   7.777   4.841  0.2503 -0.9276 -0.2055
50906SOL     OW59957   7.317   8.946   4.194 -0.1364  0.0859 -0.3289
50906SOL    HW159958   7.292   9.004   4.122 -0.5099  0.0325 -0.2437
50906SOL    HW259959   7.237   8.900   4.217 -0.1474  0.4827  0.4730
50907SOL     OW59960  11.640   5.057   8.244 -0.3878 -0.8048  0.1280
50907SOL    HW159961  11.714   5.022   8.195 -0.0771 -0.2332  0.1806
50907SOL    HW259962  11.637   5.149   8.221  0.1643 -0.3698  1.6542
50908SOL     OW59963   8.342   3.594   3.742 -0.2848  0.2520 -0.0684
50908SOL    HW159964   8.408   3.655   3.775 -2.5008  2.1258  1.2381
50908SOL    HW259965   8.390   3.535   3.685  2.6816  0.8322  1.6082
50909SOL     OW59966  10.589  11.020   4.139  0.3423 -0.3597  0.0598
50909SOL    HW159967  10.580  10.927   4.158  1.7494 -0.2767  1.3215
50909SOL    HW259968  10.564  11.029   4.047  2.5999 -2.3772 -0.8323
50910SOL     OW59969   2.254   4.391   7.892 -0.3855  0.6225  0.1108
50910SOL    HW159970   2.254   4.467   7.950  1.3856  0.5596  0.2367
50910SOL    HW259971   2.246   4.316   7.950 -1.0036  0.6524  0.0719
50911SOL     OW59972  11.406   4.297  10.349  0.0339  0.5918 -0.1530
50911SOL    HW159973  11.318   4.259  10.350 -0.6329  2.0640  0.2021
50911SOL    HW259974  11.463   4.228  10.383 -1.0326 -0.2798 -0.1057
50912SOL     OW59975   2.262   2.065   6.975 -0.0880  0.1761 -0.7483
50912SOL    HW159976   2.200   2.109   6.917 -1.5510  0.3492  0.8537
50912SOL    HW259977   2.213   1.991   7.011  0.3715  0.6749  1.0356
50913SOL     OW59978   7.604   4.643  12.036 -0.7317 -0.0375 -0.4788
50913SOL    HW159979   7.575   4.707  11.970 -2.7523 -0.8853 -0.4918
50913SOL    HW259980   7.590   4.688  12.120 -2.2756 -0.4414 -0.4798
50914SOL     OW59981  11.184   8.966   3.558 -0.4851  0.0128  0.1534
50914SOL    HW159982  11.156   8.876   3.571 -0.6763 -0.3343 -2.2785
50914SOL    HW259983  11.120   9.003   3.498  1.3142  0.7823 -1.3794
50915SOL     OW59984  12.642   3.840   2.451  0.1278 -0.2918  0.0549
50915SOL    HW159985  12.643   3.773   2.383  2.3071  0.9013 -1.2230
50915SOL    HW259986  12.668   3.920   2.405  0.6911  0.7630  2.1111
50916SOL     OW59987   5.046   6.887   4.721 -0.2598  0.2951  0.4091
50916SOL    HW159988   5.033   6.890   4.626 -0.4062  0.9081  0.4411
50916SOL    HW259989   4.962   6.856   4.755  0.0943 -0.8434  0.2876
50917SOL     OW59990  12.337   7.240   1.914  0.4377 -0.1162 -0.1111
50917SOL    HW159991  12.270   7.247   1.846  2.0545  2.1538 -1.6315
50917SOL    HW259992  12.383   7.159   1.893 -1.6054 -1.6135  0.8511
50918SOL     OW59993   0.585   0.972   1.547  0.2368  0.1549  0.1516
50918SOL    HW159994   0.610   1.062   1.568 -2.0968  0.9079 -0.0114
50918SOL    HW259995   0.516   0.951   1.609 -0.0950 -1.0767 -0.6042
50919SOL     OW59996   6.886   0.980  12.538 -0.1560 -0.2541  0.4905
50919SOL    HW159997   6.872   1.069  12.505 -0.4524 -1.1016 -1.8181
50919SOL    HW259998   6.923   0.993  12.625 -0.0319  2.1278  0.1566
50920SOL     OW59999  11.834   1.256  11.597  0.0559 -0.9693  0.0345
50920SOL    HW160000  11.786   1.228  11.519 -0.7763 -1.7927  0.8166
50920SOL    HW260001  11.773   1.312  11.644  0.1594 -1.3582  0.6327
50921SOL     OW60002   8.493   8.362   4.253  0.1989 -0.1504 -0.5739
50921SOL    HW160003   8.482   8.269   4.274  0.0004 -0.5111 -2.1554
50921SOL    HW260004   8.551   8.395   4.322 -0.9149 -1.0736  0.8784
50922SOL     OW60005   2.354   7.566   4.568  0.1320 -0.1912  0.6540
50922SOL    HW160006   2.433   7.534   4.611 -0.0593 -0.4850  0.7865
50922SOL    HW260007   2.283   7.521   4.612 -0.0623 -0.5709 -0.0364
50923SOL     OW60008   5.490   6.929  12.328 -0.0954  0.2733 -0.1747
50923SOL    HW160009   5.540   6.884  12.260 -3.0786  1.5336 -3.5426
50923SOL    HW260010   5.461   6.860  12.387  1.7127 -1.0484 -0.7338
50924SOL     OW60011   0.793   2.058   0.488  0.4171  0.7381 -0.0765
50924SOL    HW160012   0.813   2.149   0.465 -0.9298  0.7467 -1.3635
50924SOL    HW260013   0.826   2.007   0.415  1.0915  0.1817  0.6055
50925SOL     OW60014   6.594   0.160   0.773 -0.1374 -0.0526 -0.1728
50925SOL    HW160015   6.629   0.072   0.767  1.4622  0.3656  1.8389
50925SOL    HW260016   6.600   0.195   0.684  0.8106 -1.3811 -0.6472
50926SOL     OW60017   7.915   2.815   9.132  0.0422  0.1697  0.1426
50926SOL    HW160018   7.904   2.887   9.071 -0.0086  0.1154  0.0880
50926SOL    HW260019   7.989   2.841   9.187  0.4517 -0.0346 -0.3061
50927SOL     OW60020   6.583   7.647   8.228 -0.0195  0.1227  0.2166
50927SOL    HW160021   6.586   7.706   8.153 -2.6764 -0.7041 -0.6858
50927SOL    HW260022   6.611   7.700   8.302  0.9506  1.4901 -1.0700
50928SOL     OW60023  10.916   9.406   6.598 -0.1859 -0.1146 -0.1225
50928SOL    HW160024  10.960   9.352   6.664  0.6289 -0.0125 -0.5713
50928SOL    HW260025  10.917   9.353   6.518 -0.9962 -0.1582 -0.1182
50929SOL     OW60026   5.355   6.567   3.298  0.0177  0.7193 -0.0510
50929SOL    HW160027   5.398   6.501   3.352 -2.2622 -1.8331 -1.1416
50929SOL    HW260028   5.422   6.595   3.235  1.3846  0.4137  1.2259
50930SOL     OW60029  10.893   9.303  11.551 -0.4184 -0.5611 -0.2633
50930SOL    HW160030  10.925   9.305  11.460  0.4682 -1.1877  0.0211
50930SOL    HW260031  10.971   9.314  11.604 -0.7577 -1.4746  0.4499
50931SOL     OW60032  11.496   9.520   6.108 -0.1411  0.1768 -0.0411
50931SOL    HW160033  11.504   9.613   6.087 -0.5631 -0.1055 -1.5763
50931SOL    HW260034  11.577   9.481   6.075 -0.6383 -0.2204 -0.8121
50932SOL     OW60035   4.317   9.772   7.973 -0.0321 -0.3440  0.5469
50932SOL    HW160036   4.378   9.827   7.925 -1.0425  0.1785 -0.1790
50932SOL    HW260037   4.235   9.779   7.924 -0.9911 -0.1316  2.1190
50933SOL     OW60038  10.626   4.412   2.007  0.0360  0.4634 -0.3801
50933SOL    HW160039  10.663   4.424   2.094  1.1843  1.2540 -0.9433
50933SOL    HW260040  10.656   4.489   1.958 -1.7700  0.7716 -1.0965
50934SOL     OW60041   1.131   6.439   7.417  0.1071 -0.2014 -0.0123
50934SOL    HW160042   1.129   6.361   7.474 -1.7144 -0.0158  0.2376
50934SOL    HW260043   1.128   6.404   7.328 -0.9093 -0.4342  0.1036
50935SOL     OW60044   1.152  12.406   9.992  0.6158  0.1964  0.5372
50935SOL    HW160045   1.170  12.396   9.898  1.5352  0.3465  0.6958
50935SOL    HW260046   1.056  12.408   9.997  0.5559  0.9225 -0.4831
50936SOL     OW60047   2.544   3.516  10.898  0.3667  0.6484 -0.4021
50936SOL    HW160048   2.521   3.586  10.959 -1.1471  0.0428 -0.2327
50936SOL    HW260049   2.529   3.435  10.948  0.0587  0.1648 -1.2585
50937SOL     OW60050   7.598   9.256   0.207 -0.3364 -0.1786 -0.6036
50937SOL    HW160051   7.519   9.240   0.155 -0.4844  2.3470 -1.2848
50937SOL    HW260052   7.627   9.344   0.181  1.7473 -0.3414  0.8768
50938SOL     OW60053   0.709   2.350   8.921  0.4544  0.4524 -0.1320
50938SOL    HW160054   0.701   2.431   8.973 -0.3639 -0.8673  1.9513
50938SOL    HW260055   0.777   2.300   8.966 -1.6932 -1.6120  1.0391
50939SOL     OW60056   6.913   7.880  11.641  0.0078 -0.4935 -0.1473
50939SOL    HW160057   6.983   7.885  11.576 -0.5195 -0.4137 -0.7235
50939SOL    HW260058   6.958   7.881  11.725  0.6323  1.0242 -0.4640
50940SOL     OW60059   5.725   3.510   0.579 -0.3229  0.2437  0.0355
50940SOL    HW160060   5.709   3.422   0.544  0.0359  0.3775 -0.4856
50940SOL    HW260061   5.773   3.495   0.660 -0.5052 -0.0511  0.0923
50941SOL     OW60062   2.491  10.319   2.715 -0.3948 -0.1557  0.2048
50941SOL    HW160063   2.531  10.232   2.708  1.3276  0.5903  0.0576
50941SOL    HW260064   2.539  10.362   2.786 -1.1500  0.7016  0.2147
50942SOL     OW60065   6.153   0.499   7.015 -0.0112 -0.3796 -0.0909
50942SOL    HW160066   6.190   0.557   7.082  0.6567  0.5428 -1.2113
50942SOL    HW260067   6.060   0.521   7.014  0.2638  0.8807 -0.6536
50943SOL     OW60068   5.360   0.421  10.222  0.4110  0.2748 -0.2323
50943SOL    HW160069   5.309   0.372  10.158  2.5558  0.7864 -2.4771
50943SOL    HW260070   5.451   0.399  10.203  1.1935  1.0479  2.1995
50944SOL     OW60071  11.667   7.126   3.381 -0.2106 -0.0145 -0.6436
50944SOL    HW160072  11.632   7.158   3.464 -0.1028  0.6978 -0.8608
50944SOL    HW260073  11.677   7.205   3.328  3.0646  0.0722 -0.1127
50945SOL     OW60074  10.396   1.325   4.044  0.3434 -0.1969 -0.2428
50945SOL    HW160075  10.309   1.340   4.006  0.4258 -2.6020 -1.6307
50945SOL    HW260076  10.379   1.306   4.136 -0.7563 -1.4567 -0.6702
50946SOL     OW60077  12.235  11.957   4.990  0.5054  0.7097  0.2418
50946SOL    HW160078  12.172  11.902   4.944  0.2708  1.2962 -0.1438
50946SOL    HW260079  12.312  11.901   5.002 -0.1334 -0.0568  0.8508
50947SOL     OW60080   2.197  12.357  11.174 -0.0873 -0.4907 -0.3613
50947SOL    HW160081   2.205  12.275  11.126 -0.5672 -0.5462 -0.3504
50947SOL    HW260082   2.138  12.337  11.247 -2.0619  0.3993 -1.6258
50948SOL     OW60083   8.773  11.082   7.805 -0.1080 -0.6431  0.1151
50948SOL    HW160084   8.858  11.111   7.773  1.4334 -2.5753  2.1006
50948SOL    HW260085   8.773  10.987   7.792 -0.8826 -1.0215  2.3718
50949SOL     OW60086   7.863  10.018   7.820  0.1659  0.1925  0.0089
50949SOL    HW160087   7.888   9.930   7.850  0.5398 -0.4036 -1.9309
50949SOL    HW260088   7.770  10.012   7.802  0.2332  0.1315 -0.3206
50950SOL     OW60089   0.332   5.211  11.449  0.1756 -0.1420  0.0722
50950SOL    HW160090   0.262   5.151  11.472 -1.9378  1.9311 -0.5833
50950SOL    HW260091   0.357   5.253  11.531 -0.3801  0.1289  0.1072
50951SOL     OW60092   3.484   7.773   1.566 -0.1020 -0.8729 -0.6101
50951SOL    HW160093   3.447   7.686   1.555 -0.9877 -0.4784 -0.8952
50951SOL    HW260094   3.540   7.766   1.643 -0.9547 -1.4489 -0.0199
50952SOL     OW60095  11.488  10.120   0.947  0.1683 -0.2310 -0.0461
50952SOL    HW160096  11.403  10.076   0.947  0.5308 -0.9401 -0.1874
50952SOL    HW260097  11.551  10.051   0.926  0.7350  0.3763 -0.3779
50953SOL     OW60098  10.791   5.717   3.613  0.1681 -0.4085  0.1327
50953SOL    HW160099  10.839   5.798   3.593  0.5937 -0.7076 -0.0836
50953SOL    HW260100  10.790   5.713   3.709  3.5952 -2.0995  0.2416
50954SOL     OW60101   8.838  11.612   4.536  0.2432 -0.8123  0.4523
50954SOL    HW160102   8.765  11.589   4.594 -0.7318  0.5419 -0.1879
50954SOL    HW260103   8.914  11.572   4.577 -0.4676 -0.1902  2.5138
50955SOL     OW60104   3.136   1.918   4.644  0.6171  0.3439 -0.2165
50955SOL    HW160105   3.199   1.986   4.667  1.5286  0.0143 -1.6008
50955SOL    HW260106   3.135   1.919   4.548 -1.8398  0.6434 -0.2486
50956SOL     OW60107   9.243   2.557   4.028 -0.2152 -0.2301  0.5425
50956SOL    HW160108   9.159   2.603   4.031 -0.1726  0.0007 -1.0770
50956SOL    HW260109   9.309   2.627   4.027 -0.1574 -0.2285 -2.1839
50957SOL     OW60110   6.722   4.566   5.627 -0.1591  0.0888  0.8408
50957SOL    HW160111   6.706   4.659   5.639  2.1382  0.6515  0.0240
50957SOL    HW260112   6.796   4.546   5.684 -1.1370 -1.4668  1.6435
50958SOL     OW60113   5.267   5.899   5.612  0.1240  0.2251 -0.1494
50958SOL    HW160114   5.191   5.957   5.604 -2.3105 -2.7452 -0.6359
50958SOL    HW260115   5.297   5.912   5.702 -0.5643  1.9016 -0.1118
50959SOL     OW60116  10.313   8.691   8.914  0.5476  0.1661 -0.5572
50959SOL    HW160117  10.330   8.652   8.828 -0.5560 -2.6046  0.3912
50959SOL    HW260118  10.221   8.718   8.910  1.0615  2.0270 -0.8968
50960SOL     OW60119   2.304   1.530  12.558 -0.1372 -0.2853 -0.4020
50960SOL    HW160120   2.348   1.613  12.543  0.5239 -0.5459  0.0730
50960SOL    HW260121   2.331   1.476  12.483 -0.1395 -0.2523 -0.4273
50961SOL     OW60122   2.727   9.896   9.889 -0.4942 -0.0478  0.2443
50961SOL    HW160123   2.758   9.985   9.905 -0.7422  0.1301 -0.2426
50961SOL    HW260124   2.636   9.896   9.920 -0.5684 -0.0636  0.0278
50962SOL     OW60125   4.965   2.299   7.274  0.2172  0.2468  0.4137
50962SOL    HW160126   5.046   2.272   7.317 -0.2602  2.6630  3.1602
50962SOL    HW260127   4.975   2.393   7.260 -2.2334  0.6947  1.2215
50963SOL     OW60128   2.023   9.232   5.732  0.0960  0.1210 -0.4452
50963SOL    HW160129   2.047   9.323   5.750 -2.5426  1.2700 -2.1748
50963SOL    HW260130   1.962   9.237   5.659 -0.1773 -3.0813 -0.5841
50964SOL     OW60131   0.120   3.797   9.575  0.5672  0.1031  0.0184
50964SOL    HW160132   0.113   3.711   9.534 -0.2797 -0.3016  0.9540
50964SOL    HW260133   0.029   3.827   9.584  0.8971  1.5510 -1.1930
50965SOL     OW60134   6.340   8.475   7.160 -0.4505 -0.4826  0.6050
50965SOL    HW160135   6.312   8.554   7.208  0.9085 -0.0564  0.7428
50965SOL    HW260136   6.380   8.508   7.080  0.6326 -0.9905  0.9200
50966SOL     OW60137   8.531   0.739   2.545 -0.3751 -0.8334  0.4283
50966SOL    HW160138   8.544   0.829   2.514 -2.0062 -1.1297 -1.3642
50966SOL    HW260139   8.533   0.745   2.640  0.2634  0.9767  0.3295
50967SOL     OW60140   1.933   2.100  10.506  0.4270 -0.7571  0.4333
50967SOL    HW160141   2.006   2.039  10.493  0.4099 -0.9323  1.1127
50967SOL    HW260142   1.855   2.047  10.488  0.4552 -0.6085 -0.1511
50968SOL     OW60143   9.746   4.766   1.939  0.0660 -0.0953 -0.1013
50968SOL    HW160144   9.729   4.680   1.976  0.1982 -0.6092 -1.1880
50968SOL    HW260145   9.822   4.799   1.987  0.6524 -1.0313 -0.3780
50969SOL     OW60146   0.880  10.440   3.507 -0.3115  0.2369  0.4323
50969SOL    HW160147   0.888  10.536   3.513 -0.9701  0.2541  1.1665
50969SOL    HW260148   0.791  10.426   3.475  0.0692 -0.1212 -0.5006
50970SOL     OW60149   6.839  10.425   0.866  0.0646  0.5747  0.1712
50970SOL    HW160150   6.910  10.386   0.814  0.7606  0.5001  1.1541
50970SOL    HW260151   6.809  10.499   0.813  0.9720  0.6911 -0.1979
50971SOL     OW60152   9.336   4.514   7.349  0.3838  0.3237 -0.5321
50971SOL    HW160153   9.337   4.475   7.436 -1.3013  2.0832  0.3699
50971SOL    HW260154   9.404   4.582   7.352  0.5655  0.1480 -0.6999
50972SOL     OW60155   8.467   5.488   9.219 -0.4986 -0.4678 -0.6083
50972SOL    HW160156   8.549   5.439   9.231 -0.6460 -0.8315 -1.0534
50972SOL    HW260157   8.459   5.498   9.124  0.1095  1.4388 -0.4907
50973SOL     OW60158   4.727  11.113   7.784 -0.2385  0.8172 -0.0191
50973SOL    HW160159   4.802  11.084   7.836 -1.3553 -0.4312  0.9651
50973SOL    HW260160   4.684  11.032   7.756 -1.6374  1.4851  0.0784
50974SOL     OW60161   9.230   6.283   6.411  0.1108 -0.4886  0.1824
50974SOL    HW160162   9.320   6.257   6.390 -0.0859 -0.9358 -0.1281
50974SOL    HW260163   9.238   6.334   6.491  0.7952  0.5125 -0.4949
50975SOL     OW60164   1.785   9.068   3.791 -0.8554 -0.0902 -0.5739
50975SOL    HW160165   1.795   9.078   3.886  0.0275  0.2432 -0.6915
50975SOL    HW260166   1.767   9.157   3.759 -1.5342 -0.2626 -0.6801
50976SOL     OW60167   4.631  10.368   2.095  0.2942  0.4785 -0.1718
50976SOL    HW160168   4.662  10.357   2.005 -0.2594  2.4085 -0.6465
50976SOL    HW260169   4.707  10.348   2.150  0.7730 -0.2264 -1.0770
50977SOL     OW60170   5.546  12.149   8.199 -0.1978  0.5727 -0.0443
50977SOL    HW160171   5.480  12.144   8.268 -1.4557 -0.0784 -1.2574
50977SOL    HW260172   5.596  12.067   8.208 -0.4262  0.4410  0.0221
50978SOL     OW60173   2.005   5.393  10.984 -0.2469  0.0712 -0.4551
50978SOL    HW160174   1.935   5.458  10.976 -1.5308 -0.8373  2.1302
50978SOL    HW260175   2.078   5.430  10.935 -2.1208  1.6253 -2.2896
50979SOL     OW60176   6.496   3.333   8.904 -0.0299  0.1052  0.3374
50979SOL    HW160177   6.467   3.350   8.993  0.4828  0.7552  0.3852
50979SOL    HW260178   6.548   3.409   8.880 -0.3632  0.0503 -0.6126
50980SOL     OW60179  10.000   1.882   3.947  0.2696  0.2290 -0.0154
50980SOL    HW160180  10.050   1.920   3.876  0.0765  1.2218  0.3625
50980SOL    HW260181   9.909   1.890   3.920  0.2483 -0.4011 -0.1397
50981SOL     OW60182  11.762   7.195   8.008 -0.0289  0.2727 -0.8373
50981SOL    HW160183  11.674   7.201   8.045 -0.0951 -0.7272 -0.7909
50981SOL    HW260184  11.812   7.148   8.075  0.4461  0.5248 -1.0155
50982SOL     OW60185   1.156   0.240  10.329  0.0124 -0.1647 -0.2578
50982SOL    HW160186   1.240   0.214  10.368 -0.9717  0.0217  2.1510
50982SOL    HW260187   1.164   0.334  10.315  0.5836 -0.3283 -1.0767
50983SOL     OW60188   2.451   0.197   1.922 -0.4375 -0.0834  0.4665
50983SOL    HW160189   2.360   0.172   1.940 -0.2653 -0.5381  0.7186
50983SOL    HW260190   2.474   0.150   1.842 -1.3319  2.2502 -1.2653
50984SOL     OW60191   4.873   6.598   5.304  0.1758 -0.0982  0.1157
50984SOL    HW160192   4.923   6.533   5.255  0.5344  1.2196 -1.3687
50984SOL    HW260193   4.938   6.643   5.358 -0.1156 -1.1141  1.3545
50985SOL     OW60194   9.333   6.593   4.731  0.0409  0.2425 -0.4923
50985SOL    HW160195   9.341   6.498   4.737  0.1263  0.3187  1.1894
50985SOL    HW260196   9.271   6.607   4.660 -0.2829 -1.0931 -0.5112
50986SOL     OW60197   0.257   9.286   6.008 -0.0660 -0.2062  1.0708
50986SOL    HW160198   0.223   9.374   6.020  0.4098 -0.0454  1.2359
50986SOL    HW260199   0.187   9.239   5.962  0.3470  0.7142 -0.5646
50987SOL     OW60200   7.701   3.927  11.593 -0.3740  0.2716 -0.1274
50987SOL    HW160201   7.696   3.897  11.684  0.3267  0.9176  0.1400
50987SOL    HW260202   7.767   3.997  11.595 -0.1691  0.1164 -1.1843
50988SOL     OW60203   8.697  12.038   7.480  0.5286  0.1336  0.1204
50988SOL    HW160204   8.665  12.121   7.516 -2.3853 -0.1659 -1.4796
50988SOL    HW260205   8.719  11.986   7.557  1.2024  1.9131  1.1980
50989SOL     OW60206   0.314   7.919   4.311  0.7577 -0.0262  0.2692
50989SOL    HW160207   0.269   7.971   4.377  0.2626 -0.1490  0.0341
50989SOL    HW260208   0.247   7.859   4.279  0.9101  0.2522 -0.5812
50990SOL     OW60209   8.714   4.951   5.065 -0.1670 -0.6079  0.6209
50990SOL    HW160210   8.772   4.877   5.053  1.2620  0.4199  0.9242
50990SOL    HW260211   8.651   4.944   4.994  0.4433 -1.6410  0.1598
50991SOL     OW60212   7.964  10.633   3.391 -0.4121  0.0537  0.2227
50991SOL    HW160213   8.025  10.707   3.393 -0.0865 -0.1560 -0.9949
50991SOL    HW260214   7.968  10.596   3.479  2.6660 -1.0914 -0.2689
50992SOL     OW60215   1.627   1.130  11.876 -0.0410  0.1390 -0.4659
50992SOL    HW160216   1.690   1.059  11.889 -1.0475 -0.7011 -0.0742
50992SOL    HW260217   1.551   1.105  11.929 -1.3791  0.2705 -2.2413
50993SOL     OW60218   8.090   3.701   7.454 -0.0012 -0.0153 -0.0732
50993SOL    HW160219   8.170   3.653   7.432  0.1358  0.9064 -1.7127
50993SOL    HW260220   8.119   3.790   7.470 -0.4890 -0.0578  1.1913
50994SOL     OW60221   0.026   9.952   8.453 -0.0953  0.0953 -0.0987
50994SOL    HW160222  -0.031   9.949   8.530 -1.0550  0.8083 -0.7598
50994SOL    HW260223   0.063  10.040   8.455  0.4789 -0.1478 -0.0303
50995SOL     OW60224   5.262   6.508   0.155  0.2814  0.0052 -0.0506
50995SOL    HW160225   5.328   6.440   0.171  1.0380  0.7025 -0.1622
50995SOL    HW260226   5.228   6.487   0.068  0.9949  0.1571 -0.3740
50996SOL     OW60227   0.574   2.519   4.927  0.2047 -0.4237 -0.4164
50996SOL    HW160228   0.606   2.431   4.946 -0.5224 -0.5726  0.1712
50996SOL    HW260229   0.538   2.513   4.838  0.6672 -0.5744 -0.5911
50997SOL     OW60230  11.130  11.934   6.716  0.2198  0.5010  0.4797
50997SOL    HW160231  11.182  11.909   6.640  0.1093  1.4642  0.0680
50997SOL    HW260232  11.192  11.939   6.788  0.1439 -1.5261  0.7206
50998SOL     OW60233   7.290   2.273   2.431 -0.0050  0.1672 -0.0460
50998SOL    HW160234   7.213   2.304   2.479  0.2999 -1.2761  1.4656
50998SOL    HW260235   7.291   2.326   2.351 -2.2198  0.6292  0.1640
50999SOL     OW60236   3.635  11.189   3.134  0.2022 -0.4112  0.7860
50999SOL    HW160237   3.670  11.104   3.107 -0.2315 -0.0288 -1.1635
50999SOL    HW260238   3.556  11.201   3.080  1.6015  2.2726 -0.9095
51000SOL     OW60239   3.115   0.238   4.862  0.7684 -0.0144 -0.2497
51000SOL    HW160240   3.084   0.319   4.904  1.7854 -0.1949  0.8959
51000SOL    HW260241   3.044   0.213   4.804 -0.2673  0.8071  0.6215
51001SOL     OW60242   5.585  11.840   5.124  0.4438  0.0057  0.3153
51001SOL    HW160243   5.501  11.883   5.143  0.3035 -0.9489  2.1544
51001SOL    HW260244   5.563  11.747   5.118  1.1115 -0.0862 -1.1304
51002SOL     OW60245   3.148   4.247   3.541  0.1800  0.0370  0.3714
51002SOL    HW160246   3.126   4.329   3.498  2.1054  1.1922  1.4258
51002SOL    HW260247   3.198   4.198   3.475 -0.1423  0.1180  0.0634
51003SOL     OW60248  11.273   1.243  12.455 -0.0911 -0.6364  0.5485
51003SOL    HW160249  11.300   1.330  12.485 -1.3959 -0.7461  2.1826
51003SOL    HW260250  11.240   1.200  12.534  1.3993 -2.9931 -0.0181
51004SOL     OW60251   8.816   4.035   0.848 -0.1063 -0.6309  0.1480
51004SOL    HW160252   8.755   4.096   0.808 -0.7323 -0.8055  0.8111
51004SOL    HW260253   8.761   3.975   0.898  0.7263  0.8166  2.9901
51005SOL     OW60254   7.122   5.458   6.822 -0.2981 -0.1069 -0.6820
51005SOL    HW160255   7.135   5.486   6.913 -0.1003  0.6971 -0.9561
51005SOL    HW260256   7.028   5.444   6.814 -0.2372 -0.8908 -0.1548
51006SOL     OW60257   7.357   4.215   4.909 -0.2921 -0.0308  0.1324
51006SOL    HW160258   7.418   4.257   4.848 -0.7319 -0.9569 -0.9884
51006SOL    HW260259   7.307   4.154   4.855 -1.8191  0.2736  1.1376
51007SOL     OW60260   2.090  10.555  10.781 -0.4271 -0.5425  0.0104
51007SOL    HW160261   2.084  10.594  10.868 -1.9696 -0.9110  0.0984
51007SOL    HW260262   1.999  10.542  10.755 -0.0284  0.3173 -2.0037
51008SOL     OW60263  11.176   1.875   5.755  0.3206 -0.6284 -0.0909
51008SOL    HW160264  11.173   1.843   5.665 -0.8421 -1.0603  0.0827
51008SOL    HW260265  11.103   1.831   5.799  1.1224 -0.7477  1.1764
51009SOL     OW60266   9.735   0.443   9.171  0.2420 -0.0369 -0.2118
51009SOL    HW160267   9.804   0.490   9.123  0.1119  0.6471  0.2474
51009SOL    HW260268   9.664   0.507   9.177 -0.8717 -1.0899 -1.6077
51010SOL     OW60269   6.456  11.700  12.292  0.3111 -0.1632 -0.0131
51010SOL    HW160270   6.405  11.770  12.333 -0.8649 -1.0535  0.0934
51010SOL    HW260271   6.453  11.720  12.199 -0.5879 -0.4227 -0.0465
51011SOL     OW60272   4.869   6.373   6.614 -0.1906 -0.3368  0.3228
51011SOL    HW160273   4.932   6.444   6.627 -0.4308 -0.4720  2.7931
51011SOL    HW260274   4.803   6.410   6.556  0.1594  1.1869  0.8321
51012SOL     OW60275   1.094   5.015   1.803  0.1776 -0.0961 -0.1905
51012SOL    HW160276   1.091   5.009   1.899  0.0695  2.9740  0.1192
51012SOL    HW260277   1.188   5.016   1.782  0.2380  0.7646  0.0739
51013SOL     OW60278  11.108   6.602   2.671  0.4931 -0.0491  0.4483
51013SOL    HW160279  11.111   6.658   2.594 -0.2929 -1.5729 -0.7311
51013SOL    HW260280  11.159   6.525   2.647 -0.2868 -0.8228  1.2125
51014SOL     OW60281  12.607   8.853   2.342  0.5917  0.7769  0.3186
51014SOL    HW160282  12.589   8.762   2.320  0.4628  1.0093 -0.5607
51014SOL    HW260283  12.526   8.884   2.383  1.3645 -0.1076  2.7059
51015SOL     OW60284   2.075  10.072   3.196 -0.3194  0.7155 -0.1459
51015SOL    HW160285   2.073  10.119   3.279  0.2270 -1.7556  1.3813
51015SOL    HW260286   2.012  10.001   3.208 -0.4234  0.4575 -1.9750
51016SOL     OW60287   1.548  10.699   4.603  0.0810 -0.3366 -0.0933
51016SOL    HW160288   1.462  10.675   4.567 -0.3075 -2.3978  1.9655
51016SOL    HW260289   1.607  10.632   4.569  0.2546 -0.6629  0.8254
51017SOL     OW60290   8.902   6.605   3.506  0.4890 -0.0782 -0.0688
51017SOL    HW160291   8.963   6.534   3.526 -0.3896 -0.8667 -0.1358
51017SOL    HW260292   8.943   6.651   3.433  1.0133 -0.5812 -0.0992
51018SOL     OW60293  12.618  11.490   0.721  0.7904 -0.1520 -0.3657
51018SOL    HW160294  12.585  11.462   0.635  1.4079  2.4270 -1.5443
51018SOL    HW260295  12.548  11.470   0.782  0.3712 -2.1605 -1.4270
51019SOL     OW60296   8.848   7.902   5.424 -0.2685 -0.0909 -0.0041
51019SOL    HW160297   8.762   7.931   5.393 -0.3418 -0.5189 -0.2060
51019SOL    HW260298   8.875   7.970   5.486 -0.7313  0.0713  0.0224
51020SOL     OW60299  12.071   5.866   9.113  0.3685  0.0590  0.3561
51020SOL    HW160300  12.108   5.955   9.106 -1.8446  1.1895  1.8851
51020SOL    HW260301  12.011   5.859   9.038  1.4793 -0.6943 -0.5009
51021SOL     OW60302   0.935   7.680   2.555 -0.0043  0.2020  0.2183
51021SOL    HW160303   1.004   7.678   2.488 -0.5620 -1.0712 -0.3467
51021SOL    HW260304   0.971   7.736   2.624  2.2261 -1.5067  0.5710
51022SOL     OW60305   6.586   4.742   9.715  0.1887 -0.1291 -0.0065
51022SOL    HW160306   6.609   4.810   9.652 -1.0281 -1.0658 -1.5586
51022SOL    HW260307   6.570   4.788   9.797  2.0871  1.1023 -0.2811
51023SOL     OW60308  12.167   5.063   3.689  0.3184 -0.2061 -0.2673
51023SOL    HW160309  12.244   5.088   3.639  0.3410  0.4527  0.0920
51023SOL    HW260310  12.198   5.057   3.779 -0.3795  1.6430  0.1332
51024SOL     OW60311   1.703   6.965   3.799 -0.1148  0.6967 -0.3796
51024SOL    HW160312   1.725   6.872   3.813  1.9382  0.9060 -1.8325
51024SOL    HW260313   1.766   7.013   3.852 -0.7022  1.2959 -0.2060
51025SOL     OW60314  10.850   0.505   3.119 -0.1217 -0.3071 -0.3036
51025SOL    HW160315  10.883   0.530   3.032 -1.1436  3.4956  0.2298
51025SOL    HW260316  10.758   0.485   3.105 -0.5555  1.3384 -0.0350
51026SOL     OW60317  12.305   7.323   0.732 -0.1198 -0.0700 -0.0699
51026SOL    HW160318  12.236   7.388   0.722  0.6921  0.8702  0.2864
51026SOL    HW260319  12.373   7.350   0.671 -0.4607 -1.5695 -1.1630
51027SOL     OW60320  12.405  10.179  11.198 -0.0190 -0.1093 -0.1674
51027SOL    HW160321  12.339  10.151  11.135 -0.2190  0.9721 -0.4570
51027SOL    HW260322  12.355  10.225  11.266  0.3400 -0.1057  0.0967
51028SOL     OW60323   9.080   6.365   0.504 -0.0293  0.0360  0.8446
51028SOL    HW160324   9.048   6.374   0.414  0.5886 -0.2324  0.5918
51028SOL    HW260325   9.084   6.270   0.518  1.0300  0.0551  0.7272
51029SOL     OW60326   2.937   6.211   6.408 -0.3805  0.3813 -0.0799
51029SOL    HW160327   2.984   6.255   6.479 -0.9091 -0.0792  0.5754
51029SOL    HW260328   3.000   6.150   6.371 -0.8397 -1.3994  1.8324
51030SOL     OW60329   0.965   8.936  10.807  0.4091 -0.0051  0.1244
51030SOL    HW160330   1.022   8.899  10.875  0.9030 -0.5798 -0.5800
51030SOL    HW260331   1.015   8.925  10.726 -0.3758  0.2168 -0.4017
51031SOL     OW60332  10.073   4.796  10.685  0.0787 -0.0219 -0.2292
51031SOL    HW160333  10.024   4.714  10.684 -2.6036  1.4659  0.6264
51031SOL    HW260334  10.162   4.771  10.659 -0.6066 -3.1805  0.0895
51032SOL     OW60335   2.521   9.826   7.870 -0.1086 -0.4771 -0.0983
51032SOL    HW160336   2.519   9.919   7.891 -0.2192 -0.0361 -1.9463
51032SOL    HW260337   2.436   9.793   7.902  0.4721 -0.2881  1.8045
51033SOL     OW60338   2.522  10.765   9.455  0.2999  0.4335 -0.1588
51033SOL    HW160339   2.556  10.835   9.400 -1.5871  3.1238  1.8485
51033SOL    HW260340   2.435  10.747   9.420  0.0473  0.4151  0.4740
51034SOL     OW60341   0.380   4.909  12.115  0.1222  0.6954 -0.7095
51034SOL    HW160342   0.381   4.854  12.194  1.2026 -2.2394 -2.5855
51034SOL    HW260343   0.290   4.903  12.083 -0.2583  1.6993  0.1014
51035SOL     OW60344   8.225  11.202  11.388 -0.6823  0.4983  0.5656
51035SOL    HW160345   8.137  11.217  11.351 -0.2068 -1.0219 -1.3348
51035SOL    HW260346   8.231  11.107  11.396  0.6167  0.6173  1.1307
51036SOL     OW60347  10.667   9.988  12.474 -0.1662  0.2297 -0.6415
51036SOL    HW160348  10.647  10.029  12.558  1.9503  0.5033 -0.2142
51036SOL    HW260349  10.585   9.944  12.449 -0.9827  0.5010  1.3205
51037SOL     OW60350  12.610  10.074   4.429 -0.2841  0.2636  0.8659
51037SOL    HW160351  12.586  10.127   4.354 -0.3426 -0.8676  0.0664
51037SOL    HW260352  12.545  10.004   4.432  1.0233 -1.0156  0.5743
51038SOL     OW60353  10.251   6.812   8.726  0.0712 -0.2119 -0.5278
51038SOL    HW160354  10.217   6.791   8.813 -2.1317  1.3516 -0.9192
51038SOL    HW260355  10.343   6.832   8.740 -0.2273 -0.0534  1.4543
51039SOL     OW60356   8.899   9.741   8.048 -0.3544  0.6100 -0.0737
51039SOL    HW160357   8.837   9.803   8.086  0.7672  1.0469  1.1105
51039SOL    HW260358   8.913   9.676   8.117 -0.2393 -0.0421 -0.6934
51040SOL     OW60359   3.038   1.781   1.753  0.4471  0.3626 -0.0925
51040SOL    HW160360   3.084   1.848   1.803  0.8428 -0.6239  0.9022
51040SOL    HW260361   3.067   1.698   1.791 -0.8713 -0.3409 -0.5538
51041SOL     OW60362   1.347  10.168   5.229  0.5167  0.4410  0.6097
51041SOL    HW160363   1.351  10.120   5.146  0.3958  1.1527  0.1876
51041SOL    HW260364   1.348  10.100   5.296 -0.8880 -0.2164 -0.0068
51042SOL     OW60365   0.006   8.767   6.127 -0.1832  0.3946  0.1607
51042SOL    HW160366  -0.064   8.831   6.137 -0.9608  0.2864 -3.3631
51042SOL    HW260367  -0.027   8.688   6.168 -0.6366  1.2907  1.5731
51043SOL     OW60368   5.272   8.740   9.038  0.1065  0.1301 -0.9269
51043SOL    HW160369   5.326   8.773   8.967  1.1900  1.2782  0.3599
51043SOL    HW260370   5.332   8.687   9.091 -0.3542  0.3134 -0.2019
51044SOL     OW60371   9.980  11.421  11.495  0.0840 -0.1334 -0.4276
51044SOL    HW160372  10.017  11.347  11.544  0.9328  0.2441 -0.4909
51044SOL    HW260373  10.014  11.411  11.406  1.8555  1.4179  0.0140
51045SOL     OW60374   1.806   1.678   4.928 -0.2468  0.0181 -0.0856
51045SOL    HW160375   1.732   1.662   4.987  0.5475  0.4759  1.0760
51045SOL    HW260376   1.804   1.604   4.867 -0.7333 -0.8202  0.8995
51046SOL     OW60377   9.966   2.730   0.578  0.7255  0.5538  0.0167
51046SOL    HW160378   9.882   2.689   0.556  0.5137  0.2250  1.3234
51046SOL    HW260379   9.978   2.797   0.512  0.1037 -0.3136 -1.0053
51047SOL     OW60380   9.238  10.968   4.714 -0.1841 -0.0712 -0.2987
51047SOL    HW160381   9.320  11.014   4.695 -0.8979  1.0835 -0.7316
51047SOL    HW260382   9.257  10.876   4.696  0.9459  0.2085 -0.6278
51048SOL     OW60383  11.362   7.243   9.528 -0.6247 -0.5962 -0.2142
51048SOL    HW160384  11.380   7.336   9.537 -0.8123 -0.3879 -1.7453
51048SOL    HW260385  11.322   7.218   9.612  1.7529  0.0796  1.2375
51049SOL     OW60386   1.016   5.510   9.790 -0.8973 -0.2479 -0.0514
51049SOL    HW160387   0.947   5.544   9.733 -1.4624 -0.8243  0.2730
51049SOL    HW260388   1.093   5.565   9.771 -1.0484 -0.4734 -1.4156
51050SOL     OW60389   9.247   2.222   9.197  0.1543 -0.1329 -0.2104
51050SOL    HW160390   9.189   2.286   9.154 -0.9325 -1.9031 -1.5008
51050SOL    HW260391   9.251   2.251   9.288  0.2928  2.1707 -0.8779
51051SOL     OW60392   0.917   8.357  12.482  0.4541 -0.0482  0.0304
51051SOL    HW160393   0.852   8.399  12.425 -0.3783 -0.9597  0.2994
51051SOL    HW260394   0.949   8.429  12.537  1.7452  1.0087 -1.9618
51052SOL     OW60395   3.891   1.423   6.824  0.1108  0.2866 -0.3023
51052SOL    HW160396   3.931   1.338   6.808 -0.8632  0.0027 -1.3485
51052SOL    HW260397   3.889   1.432   6.920  3.7505  0.8661 -0.1383
51053SOL     OW60398  12.412   0.231  11.483 -0.1115 -0.5758  0.2506
51053SOL    HW160399  12.459   0.225  11.400  1.9172 -1.3696  1.3775
51053SOL    HW260400  12.392   0.140  11.505 -2.3798 -0.2657 -0.2260
51054SOL     OW60401   1.690   2.236   7.282  0.9544 -0.9084 -0.5067
51054SOL    HW160402   1.750   2.301   7.245 -0.4537 -0.8519 -2.9292
51054SOL    HW260403   1.643   2.284   7.351  1.6896 -0.1311 -0.5285
51055SOL     OW60404  12.132  11.133   3.087  0.1490  0.0466 -0.5788
51055SOL    HW160405  12.206  11.163   3.034  0.2180 -1.1766 -1.2055
51055SOL    HW260406  12.063  11.115   3.024 -0.4589  0.4973 -0.0560
51056SOL     OW60407   9.244   0.351   7.293 -0.6396  0.6256 -0.3177
51056SOL    HW160408   9.162   0.351   7.243  0.3198  3.4691 -2.1405
51056SOL    HW260409   9.260   0.444   7.311  1.1743 -0.0292  1.7945
51057SOL     OW60410   2.080   8.047   1.927 -0.0372 -0.3620  0.0156
51057SOL    HW160411   2.165   8.026   1.965  0.2225  0.0401 -0.3323
51057SOL    HW260412   2.052   7.966   1.884 -0.0067 -0.6073  0.4494
51058SOL     OW60413   1.259  12.569   3.502 -0.0993  0.8408 -0.0125
51058SOL    HW160414   1.201  12.561   3.426  1.1678 -0.2452 -0.9060
51058SOL    HW260415   1.335  12.617   3.469  1.1516 -0.9644  0.1245
51059SOL     OW60416   8.673   2.926  10.573  0.1383  0.2416 -0.1444
51059SOL    HW160417   8.629   2.907  10.656  0.9943 -2.8276 -0.2881
51059SOL    HW260418   8.602   2.945  10.512 -0.5745  1.3574  0.9698
51060SOL     OW60419   4.480   9.715   2.946 -0.0607 -0.0968  0.3640
51060SOL    HW160420   4.403   9.764   2.974  0.6229  1.5718 -0.5282
51060SOL    HW260421   4.465   9.698   2.853  1.0135  1.0781 -0.0625
51061SOL     OW60422   8.827  10.606  10.388 -0.0345  0.0531  0.3729
51061SOL    HW160423   8.856  10.697  10.389 -1.0270  0.3790  0.3403
51061SOL    HW260424   8.824  10.583  10.296 -1.0935  0.4321  0.2985
51062SOL     OW60425   0.635   5.045   7.559 -0.1331 -0.0319  0.0334
51062SOL    HW160426   0.689   5.046   7.480  0.6091 -1.6110  0.4698
51062SOL    HW260427   0.636   5.135   7.591  1.1143  0.2414 -0.7370
51063SOL     OW60428   0.729   0.751   3.197 -0.2338  0.0337 -0.1341
51063SOL    HW160429   0.644   0.707   3.193 -0.3262  0.2504 -2.9199
51063SOL    HW260430   0.711   0.841   3.168  1.0979 -0.3348 -2.3374
51064SOL     OW60431   9.718   8.662   9.004  0.7482 -0.1841 -0.5335
51064SOL    HW160432   9.807   8.634   8.980  1.3576  1.8045 -0.7409
51064SOL    HW260433   9.728   8.702   9.090  0.0325 -0.0245 -0.5163
51065SOL     OW60434   5.801   3.960  12.476 -0.3997 -0.0703  0.0217
51065SOL    HW160435   5.895   3.953  12.461 -0.3104  2.1336 -0.7140
51065SOL    HW260436   5.765   3.991  12.393 -1.6631 -0.0755  0.5405
51066SOL     OW60437  10.552   8.615   6.067 -0.7213 -0.5595  0.1825
51066SOL    HW160438  10.467   8.578   6.093 -0.5385 -0.6049  0.7217
51066SOL    HW260439  10.601   8.622   6.149 -0.1084 -0.7717 -0.1672
51067SOL     OW60440   7.601   2.316   3.970  0.0473  0.5641 -0.1238
51067SOL    HW160441   7.588   2.224   3.993  0.6653  1.0103  2.1610
51067SOL    HW260442   7.513   2.350   3.956 -0.1556 -0.5084 -1.7299
51068SOL     OW60443  10.125   9.988   7.139 -0.5445 -0.0556  0.2628
51068SOL    HW160444  10.064   9.914   7.131 -0.7184  0.1716 -0.5703
51068SOL    HW260445  10.149  10.009   7.049  1.3109 -0.5720  0.5827
51069SOL     OW60446   9.241   9.495   0.209 -0.6300 -0.7134 -1.1919
51069SOL    HW160447   9.313   9.500   0.272 -1.0381 -0.8725 -0.7034
51069SOL    HW260448   9.170   9.453   0.258 -1.4786  0.5694 -1.2685
51070SOL     OW60449   1.268   9.900  11.253  0.6244 -0.3684  0.0210
51070SOL    HW160450   1.323   9.932  11.182  0.9283 -0.3348  0.2663
51070SOL    HW260451   1.317   9.922  11.333 -0.2718  0.6870  0.3050
51071SOL     OW60452   7.735   9.841   5.157 -0.0441  0.8641  0.1646
51071SOL    HW160453   7.753   9.935   5.156 -0.4206  0.9913  2.1564
51071SOL    HW260454   7.801   9.804   5.216 -0.0022 -0.1147 -0.4644
51072SOL     OW60455   7.333  12.179   0.536 -0.2687 -0.3096 -0.1626
51072SOL    HW160456   7.303  12.107   0.480  0.5995 -0.6263 -0.2498
51072SOL    HW260457   7.420  12.201   0.501  1.3159 -2.0096  2.3642
51073SOL     OW60458   9.865  12.083  10.640  0.5301 -0.0213  0.1679
51073SOL    HW160459   9.790  12.125  10.682  0.4721  0.0835 -0.0408
51073SOL    HW260460   9.826  12.024  10.575  0.6121 -0.3841  0.4505
51074SOL     OW60461  11.791   2.421   8.359  1.2459 -0.1873  0.3546
51074SOL    HW160462  11.885   2.427   8.342  0.8593  2.1596 -1.6822
51074SOL    HW260463  11.775   2.485   8.429  1.2407 -1.1934  1.2959
51075SOL     OW60464   8.583   3.339   8.951  0.3527  0.3627  0.4858
51075SOL    HW160465   8.589   3.244   8.944 -4.3924 -0.1080 -0.7959
51075SOL    HW260466   8.612   3.371   8.865  2.1585  0.1608  0.9902
51076SOL     OW60467   9.877  10.288   1.280  0.2017 -0.1325  0.2457
51076SOL    HW160468   9.798  10.288   1.226  2.1896 -5.0268 -3.4371
51076SOL    HW260469   9.907  10.379   1.278 -3.1640  1.1347 -1.6723
51077SOL     OW60470  10.866   2.005   2.499  0.7433 -0.1596  0.3113
51077SOL    HW160471  10.819   1.945   2.556 -0.1176  1.3713  1.2619
51077SOL    HW260472  10.892   1.951   2.424  2.9058 -2.5357  2.5612
51078SOL     OW60473   7.881  10.886  12.378 -0.2317 -0.3557 -1.0538
51078SOL    HW160474   7.922  10.838  12.450  0.6328  1.5654 -0.1836
51078SOL    HW260475   7.808  10.932  12.419  0.1482  0.6018 -1.4269
51079SOL     OW60476   9.939   3.356   7.079 -0.0961  0.3737  0.7977
51079SOL    HW160477   9.878   3.324   7.013  1.7672 -0.3083 -0.6729
51079SOL    HW260478   9.883   3.404   7.141 -2.0479  0.1905 -0.6978
51080SOL     OW60479   9.842  12.133   6.209  0.0749 -0.5410 -1.0421
51080SOL    HW160480   9.847  12.119   6.114 -2.7998  1.0283 -1.5498
51080SOL    HW260481   9.766  12.082   6.236 -0.9710  1.3873 -0.1701
51081SOL     OW60482   3.005   9.493   3.785  0.1968 -0.7252 -0.4980
51081SOL    HW160483   3.046   9.409   3.767  1.9384 -0.3237  1.2257
51081SOL    HW260484   2.932   9.472   3.844  0.6422 -1.0151 -0.0490
51082SOL     OW60485   2.887   5.667   5.914 -0.0053 -0.3792  0.5596
51082SOL    HW160486   2.974   5.706   5.902 -1.0059  1.5912 -0.8956
51082SOL    HW260487   2.851   5.714   5.990 -0.0935 -0.6592  0.6914
51083SOL     OW60488  10.438  11.199   1.337 -0.5180  0.5776 -0.5794
51083SOL    HW160489  10.517  11.179   1.287  0.5320 -0.0873  1.2271
51083SOL    HW260490  10.410  11.285   1.305 -0.1078  0.0324 -2.4860
51084SOL     OW60491   2.746   5.439   3.765  0.7820 -0.2427 -0.0942
51084SOL    HW160492   2.838   5.457   3.782  0.8685 -1.5470  0.9058
51084SOL    HW260493   2.745   5.354   3.721  0.0547 -0.3007  0.0087
51085SOL     OW60494   9.909   9.992   0.946 -0.2843 -0.8324  0.0135
51085SOL    HW160495   9.978  10.048   0.909 -3.0050  1.8464 -1.4325
51085SOL    HW260496   9.879   9.940   0.871 -0.3473 -1.4858  0.4820
51086SOL     OW60497   6.681   5.508   7.658  0.0139  0.0575 -0.3735
51086SOL    HW160498   6.682   5.415   7.636  0.8085 -1.0445  3.5457
51086SOL    HW260499   6.612   5.516   7.725 -0.1095  2.3249 -0.6811
51087SOL     OW60500  10.968   5.167   3.212  0.2147 -0.2407 -0.0428
51087SOL    HW160501  10.978   5.077   3.241 -1.0319 -1.1023 -2.1316
51087SOL    HW260502  11.057   5.203   3.215  0.4725 -0.8378  2.7203
51088SOL     OW60503  11.943  11.085   6.243  0.5148  0.1281  0.2178
51088SOL    HW160504  11.968  11.001   6.204  0.0450  0.4809 -0.8949
51088SOL    HW260505  11.911  11.137   6.169  0.2727  1.0912  0.9766
51089SOL     OW60506   6.041   6.568   9.055 -0.0592 -0.3523  0.0609
51089SOL    HW160507   6.055   6.496   9.117 -0.6656 -0.8051 -0.3182
51089SOL    HW260508   6.011   6.525   8.975 -0.4614  0.3268 -0.1600
51090SOL     OW60509   2.871  11.749   2.093 -0.3986 -0.0976  0.6975
51090SOL    HW160510   2.799  11.743   2.031 -0.8143  1.1063  1.0322
51090SOL    HW260511   2.918  11.829   2.067  1.8203 -1.6757 -0.5402
51091SOL     OW60512  11.526   7.337   3.916 -0.0810  0.1942  0.4398
51091SOL    HW160513  11.576   7.255   3.917 -0.6652 -0.1693  0.9040
51091SOL    HW260514  11.437   7.309   3.893 -0.1498  0.7820 -0.0137
51092SOL     OW60515   1.080   1.642   8.019  0.1928  0.2202  0.1862
51092SOL    HW160516   1.003   1.698   8.028  0.1261  0.0136  0.8761
51092SOL    HW260517   1.056   1.560   8.061  1.4088  0.7604  2.0357
51093SOL     OW60518  11.848   7.528  10.123  0.5433 -0.1373 -0.0527
51093SOL    HW160519  11.908   7.469  10.169 -0.2091 -0.1478  0.9418
51093SOL    HW260520  11.773   7.473  10.101  0.6004  0.0378 -0.7002
51094SOL     OW60521   4.095  10.202   5.771 -0.6885 -0.0308  0.1952
51094SOL    HW160522   4.056  10.196   5.684 -0.7276 -0.7146  0.2498
51094SOL    HW260523   4.030  10.163   5.830 -0.9847  1.1034  0.6480
51095SOL     OW60524   1.083  10.893   4.610  0.3313 -0.7552 -0.3721
51095SOL    HW160525   1.054  10.881   4.700  1.2657 -0.4015 -0.0113
51095SOL    HW260526   1.178  10.878   4.613  0.2220 -1.8950 -1.5079
51096SOL     OW60527   1.635   7.433  12.077  0.2738  0.6215  0.1609
51096SOL    HW160528   1.583   7.490  12.133  1.0834  0.3097  1.2618
51096SOL    HW260529   1.712   7.412  12.130  0.4238 -0.7530 -0.5787
51097SOL     OW60530   8.342   9.094   6.873  0.0246 -0.0132  0.1885
51097SOL    HW160531   8.313   9.050   6.953  2.7172 -0.5918  0.9494
51097SOL    HW260532   8.316   9.035   6.802  1.2649 -1.5973  0.9933
51098SOL     OW60533   5.432  10.544   8.910  0.1189 -0.5414 -0.1427
51098SOL    HW160534   5.473  10.592   8.982  2.8684 -4.1133  0.9813
51098SOL    HW260535   5.344  10.524   8.942  0.6808 -0.5424  1.5005
51099SOL     OW60536   6.444   1.811  11.042 -0.4658 -0.3282 -0.1773
51099SOL    HW160537   6.402   1.734  11.081 -0.8853 -0.0268 -0.0253
51099SOL    HW260538   6.384   1.883  11.060 -0.3097 -0.0498 -0.7452
51100SOL     OW60539   0.832  12.158  10.807 -0.0678  0.3674 -0.1856
51100SOL    HW160540   0.808  12.081  10.859 -1.6362 -0.0086 -1.3820
51100SOL    HW260541   0.867  12.123  10.726 -1.6259  0.8442 -1.1188
51101SOL     OW60542   6.619   4.521   3.628  0.3671 -0.4017 -0.1682
51101SOL    HW160543   6.668   4.590   3.673 -1.8044  1.2161 -0.1619
51101SOL    HW260544   6.652   4.522   3.539 -1.0627  2.1724 -0.7464
51102SOL     OW60545   1.614   7.233   5.773  0.2432 -0.2586 -0.2795
51102SOL    HW160546   1.689   7.292   5.775 -0.1146  0.2611 -1.3477
51102SOL    HW260547   1.567   7.256   5.693 -1.4762 -0.0560  0.7301
51103SOL     OW60548   0.035  12.438   9.968 -0.5133  0.2254 -0.0856
51103SOL    HW160549   0.029  12.504  10.037  1.6672  0.1680  0.2282
51103SOL    HW260550  -0.023  12.367   9.997 -2.8920  1.9100 -0.4228
51104SOL     OW60551   5.152   6.382   7.896 -0.1545 -0.4114  0.2496
51104SOL    HW160552   5.089   6.331   7.949  0.0299  0.0925  0.9671
51104SOL    HW260553   5.212   6.419   7.960  0.3888 -0.2120 -0.3693
51105SOL     OW60554   3.751   4.457  12.451  0.0013 -0.0049  0.0607
51105SOL    HW160555   3.684   4.483  12.514  0.0446  0.9145 -0.2603
51105SOL    HW260556   3.783   4.540  12.415  0.9690 -0.4535 -0.1353
51106SOL     OW60557  11.197  12.616   5.607  0.0715 -0.3496 -0.1963
51106SOL    HW160558  11.132  12.683   5.587  1.4800  1.4556  0.9658
51106SOL    HW260559  11.272  12.638   5.552  0.9783 -0.2008  1.0374
51107SOL     OW60560   8.997   4.029   7.656  0.3206  0.0605  0.2189
51107SOL    HW160561   9.089   4.047   7.638 -0.0161  1.0578 -0.6246
51107SOL    HW260562   8.964   4.111   7.694  0.0190 -0.6360  1.5147
51108SOL     OW60563   6.399   1.551  12.327  0.0943 -0.1902  0.0725
51108SOL    HW160564   6.363   1.536  12.239 -2.5055  0.1876  0.9987
51108SOL    HW260565   6.362   1.634  12.354  0.5547 -0.4859  1.6955
51109SOL     OW60566  11.405   9.518   2.917 -0.0824  0.1659  0.3331
51109SOL    HW160567  11.357   9.508   2.834 -0.0712  1.1435  0.1851
51109SOL    HW260568  11.476   9.579   2.895  0.4072 -0.2100  0.8738
51110SOL     OW60569   1.362   8.378  11.101 -0.1701  0.0280  0.0985
51110SOL    HW160570   1.322   8.438  11.039 -1.4294 -2.0293 -1.2070
51110SOL    HW260571   1.337   8.411  11.188 -0.3195  1.6485 -0.5318
51111SOL     OW60572  10.632   3.711   2.151 -0.1159 -0.2334  0.4879
51111SOL    HW160573  10.720   3.692   2.181 -0.6763 -1.5622  1.4100
51111SOL    HW260574  10.596   3.772   2.216 -0.6777 -1.6173  1.5308
51112SOL     OW60575   7.511   4.244   7.450 -0.0462  0.6295 -0.0024
51112SOL    HW160576   7.515   4.208   7.362 -1.4239 -0.0276  0.1767
51112SOL    HW260577   7.500   4.339   7.436  0.4400  0.6147 -0.5195
51113SOL     OW60578   9.258   2.387   4.255 -0.1953 -0.4982 -0.1558
51113SOL    HW160579   9.229   2.423   4.171 -0.2007 -0.0200  0.0511
51113SOL    HW260580   9.184   2.400   4.314  0.5176  0.9686  0.4435
51114SOL     OW60581   2.973   8.697   2.699  0.4900 -0.3096  0.7045
51114SOL    HW160582   2.891   8.663   2.662  1.0820 -0.0663 -0.9426
51114SOL    HW260583   2.950   8.783   2.733  0.1426 -0.0414 -0.1802
51115SOL     OW60584  10.123   5.587   2.096 -0.3362  0.0845  0.8045
51115SOL    HW160585  10.203   5.578   2.044  0.0449 -0.9041  1.5193
51115SOL    HW260586  10.072   5.654   2.051  2.0569  2.7643  1.7629
51116SOL     OW60587  11.126   4.416   0.353  0.1954  0.4138  0.2990
51116SOL    HW160588  11.076   4.459   0.422 -2.1150  0.0847 -1.0853
51116SOL    HW260589  11.101   4.324   0.359  0.4240  0.2853 -0.6125
51117SOL     OW60590   8.078   8.931   4.734 -0.2513  0.5118 -0.2613
51117SOL    HW160591   8.067   9.025   4.716  1.0637  0.9652  1.0752
51117SOL    HW260592   8.100   8.893   4.649 -1.8501  1.2130 -1.0274
51118SOL     OW60593  10.327   4.492   7.930  0.0743 -0.1391 -0.4381
51118SOL    HW160594  10.238   4.459   7.921  0.4525 -2.1224  1.8844
51118SOL    HW260595  10.378   4.415   7.955  1.6615  1.6049  2.1403
51119SOL     OW60596   8.179   5.647   1.697 -0.1898 -0.5762  0.0512
51119SOL    HW160597   8.224   5.681   1.774  0.3959 -0.5933 -0.2788
51119SOL    HW260598   8.092   5.687   1.700 -0.0467 -0.3002  0.5280
51120SOL     OW60599   9.263   0.412  10.760 -0.0429 -0.0224  0.2641
51120SOL    HW160600   9.178   0.418  10.804  0.9927  0.2294  2.3517
51120SOL    HW260601   9.269   0.493  10.709 -1.6647 -0.7403 -1.1653
51121SOL     OW60602   4.513   9.552   3.563 -0.1881 -0.2342  0.0542
51121SOL    HW160603   4.588   9.511   3.606  0.4127  1.7121  0.9401
51121SOL    HW260604   4.498   9.498   3.485  2.0545 -0.7317 -0.0921
51122SOL     OW60605   0.135   5.574   1.536 -0.1986  0.0837  0.1502
51122SOL    HW160606   0.163   5.663   1.511  1.2385 -0.7481 -1.4186
51122SOL    HW260607   0.206   5.518   1.505 -0.8711 -1.5904  1.5326
51123SOL     OW60608   5.787   1.947  11.119 -0.5372 -0.7068  0.5369
51123SOL    HW160609   5.843   2.010  11.165  2.0665 -1.9050 -0.7433
51123SOL    HW260610   5.773   1.876  11.183 -2.1600  0.3741  1.4476
51124SOL     OW60611   3.110   0.960   0.310  0.1670 -0.3925  0.2832
51124SOL    HW160612   3.077   1.049   0.305  1.0863  0.0868  1.7923
51124SOL    HW260613   3.033   0.904   0.302 -0.4085  0.5212 -0.7555
51125SOL     OW60614   8.378   0.595  12.642 -0.0270  0.7651  0.2206
51125SOL    HW160615   8.352   0.608  12.734 -1.9835 -0.4829 -0.0974
51125SOL    HW260616   8.359   0.679  12.600  1.3966  1.5317  1.0302
51126SOL     OW60617   9.920   4.740   4.074 -0.4636  0.9097 -0.6896
51126SOL    HW160618   9.988   4.681   4.106  0.0044  0.8620 -1.7279
51126SOL    HW260619   9.941   4.825   4.112 -0.0130  0.8199 -0.7388
51127SOL     OW60620   6.253   5.299  11.697  0.2790 -0.2946 -0.3923
51127SOL    HW160621   6.295   5.269  11.616  0.5708  0.8145 -0.6651
51127SOL    HW260622   6.169   5.254  11.698 -0.3948  0.8411 -2.1121
51128SOL     OW60623   1.592   0.910   2.079  0.2774 -0.3977 -0.4087
51128SOL    HW160624   1.578   0.838   2.016  1.4309 -0.3280 -0.7641
51128SOL    HW260625   1.626   0.982   2.026  0.7069 -0.1423  0.2012
51129SOL     OW60626   2.441   0.538   0.638 -0.6656  0.4139  0.3662
51129SOL    HW160627   2.508   0.585   0.588 -0.0723 -0.1742  0.5905
51129SOL    HW260628   2.486   0.514   0.720 -1.0227 -0.3657  0.3331
51130SOL     OW60629   7.348   6.111   5.504 -0.1534 -0.0409 -0.5662
51130SOL    HW160630   7.424   6.168   5.496  0.3066 -0.8612 -2.6385
51130SOL    HW260631   7.329   6.108   5.598 -0.1775  3.4496 -0.3406
51131SOL     OW60632   1.295   9.743   2.525  0.3114 -0.0548 -0.1541
51131SOL    HW160633   1.382   9.704   2.514  0.5724  0.8592 -1.6665
51131SOL    HW260634   1.311   9.837   2.525 -0.4390  0.1420  2.1682
51132SOL     OW60635   1.822  12.474   0.565  0.3339 -0.1300 -0.3392
51132SOL    HW160636   1.765  12.501   0.637  0.4773  1.7562 -0.8961
51132SOL    HW260637   1.762  12.462   0.491  0.6096  2.2349 -1.0309
51133SOL     OW60638   6.551  11.746   9.759  0.1680 -0.4956  0.4338
51133SOL    HW160639   6.509  11.802   9.824  1.8846  1.3849  0.0204
51133SOL    HW260640   6.615  11.695   9.810  1.6525  1.1180  0.2848
51134SOL     OW60641   9.137   4.105   9.708  0.1241  0.0741 -0.8620
51134SOL    HW160642   9.133   4.198   9.684  2.0340  0.6232  0.6594
51134SOL    HW260643   9.220   4.096   9.755 -0.8814 -2.0146  0.6785
51135SOL     OW60644  11.882   6.550   0.003 -0.0949  0.1130 -0.0769
51135SOL    HW160645  11.925   6.623   0.047 -0.6328 -0.1303  0.8806
51135SOL    HW260646  11.867   6.486   0.073  0.1037 -0.7940 -0.8394
51136SOL     OW60647   2.205   1.263   9.999  0.1626  0.1919  0.3309
51136SOL    HW160648   2.152   1.234  10.074  0.1527  2.5262  1.3075
51136SOL    HW260649   2.290   1.220  10.013 -0.4314 -0.9603  0.5673
51137SOL     OW60650   5.201   0.093  11.046  0.1528 -0.5298  0.1164
51137SOL    HW160651   5.127   0.101  10.985 -0.8630  1.6422  1.5329
51137SOL    HW260652   5.162   0.101  11.133  2.0353  0.6742  0.9084
51138SOL     OW60653   6.461   9.330   0.676 -0.4452  0.3746 -0.0338
51138SOL    HW160654   6.440   9.412   0.720 -4.3368  0.1108 -1.0766
51138SOL    HW260655   6.418   9.336   0.591  3.7448 -0.6317 -2.5527
51139SOL     OW60656   8.941   5.098   8.787 -0.6094 -0.1810 -0.4375
51139SOL    HW160657   8.846   5.105   8.787 -0.5872  0.1785 -0.4796
51139SOL    HW260658   8.968   5.141   8.869 -0.6290 -2.7104  0.9893
51140SOL     OW60659   6.538   2.754   1.616 -0.5147 -0.3456 -0.2511
51140SOL    HW160660   6.565   2.688   1.680  0.4649  0.9048  0.6752
51140SOL    HW260661   6.445   2.738   1.603 -0.4024 -1.5997  0.3011
51141SOL     OW60662   3.023   7.973   0.548 -0.0217  0.1468 -0.4274
51141SOL    HW160663   3.119   7.978   0.539 -0.1369  1.7767 -1.0795
51141SOL    HW260664   3.009   7.947   0.639  1.0465 -1.1677 -0.6154
51142SOL     OW60665  12.151   9.308   8.066 -0.0933  0.4001  0.1653
51142SOL    HW160666  12.199   9.383   8.101  1.0350  1.1754 -2.7664
51142SOL    HW260667  12.125   9.335   7.978  0.7398 -2.7794 -1.1943
51143SOL     OW60668  11.052   1.343   6.706 -0.7557  0.7784  0.5565
51143SOL    HW160669  11.103   1.391   6.641  2.0326 -0.8818  1.3574
51143SOL    HW260670  11.016   1.268   6.658 -0.4493  0.6768  0.4850
51144SOL     OW60671   6.700   3.614   7.190  0.0460  0.6880 -0.1565
51144SOL    HW160672   6.688   3.580   7.101 -0.0836  0.6618 -0.1303
51144SOL    HW260673   6.625   3.578   7.239  0.5616  0.0340  0.1660
51145SOL     OW60674   9.829   6.885   7.536 -0.2598 -0.1646  0.3495
51145SOL    HW160675   9.784   6.806   7.508  1.6220 -0.3441 -2.5603
51145SOL    HW260676   9.844   6.873   7.630  0.8949 -3.7968 -0.1531
51146SOL     OW60677   7.007   1.590   2.579 -0.0194  0.5204  0.2438
51146SOL    HW160678   6.987   1.548   2.663 -1.6338  1.0425  0.1579
51146SOL    HW260679   7.094   1.629   2.591 -0.1489  0.4210  1.5976
51147SOL     OW60680   5.338   5.850   3.623 -0.2110  0.7463  0.2358
51147SOL    HW160681   5.408   5.787   3.641  0.0885  1.4520  1.6776
51147SOL    HW260682   5.351   5.875   3.531  0.9328  0.2625  0.2487
51148SOL     OW60683   7.939   3.073  10.056  0.0249 -0.3701 -0.1908
51148SOL    HW160684   7.988   3.044   9.978 -0.3586  0.6780 -0.8408
51148SOL    HW260685   7.972   3.018  10.126  2.1035  0.2367 -0.6137
51149SOL     OW60686   3.703  10.146   8.866 -0.2467 -0.2659  0.1240
51149SOL    HW160687   3.724  10.158   8.774 -0.5630 -1.3851 -0.1105
51149SOL    HW260688   3.703  10.051   8.879 -2.2625 -0.2170  0.7747
51150SOL     OW60689  12.345   3.272   6.529 -0.0814  0.1895  0.3350
51150SOL    HW160690  12.306   3.355   6.556 -1.4348 -0.9173  1.8982
51150SOL    HW260691  12.425   3.265   6.582  0.0893  0.5123  0.1285
51151SOL     OW60692   7.125   6.827  10.029  0.4328  0.3004 -0.3808
51151SOL    HW160693   7.094   6.737  10.045 -0.6516  0.4804 -1.3553
51151SOL    HW260694   7.101   6.874  10.109  0.5691 -0.1639 -0.0600
51152SOL     OW60695  12.334   8.873   4.219  0.1751  0.2761 -0.3224
51152SOL    HW160696  12.314   8.961   4.249 -2.6355 -0.4506  0.2383
51152SOL    HW260697  12.346   8.882   4.124  0.4667  1.3033 -0.2006
51153SOL     OW60698   8.994  11.280   1.481 -0.0885  0.6153  0.2481
51153SOL    HW160699   9.047  11.341   1.429  0.1231 -0.3402 -0.6822
51153SOL    HW260700   8.903  11.300   1.455 -0.1471  1.5821  1.1176
51154SOL     OW60701   6.508   1.741   0.984  0.1208 -0.2183  0.0789
51154SOL    HW160702   6.421   1.765   0.952 -1.0969 -2.0470  1.7706
51154SOL    HW260703   6.515   1.647   0.968  0.4315 -0.7488  2.7755
51155SOL     OW60704   1.014   4.228   9.236 -0.1386 -0.3099  0.7581
51155SOL    HW160705   1.048   4.263   9.153 -1.3747  4.5509  1.9657
51155SOL    HW260706   0.924   4.202   9.215 -0.2904  0.4363  0.4330
51156SOL     OW60707   3.172   7.169   9.181  0.7203 -0.0244 -0.3254
51156SOL    HW160708   3.116   7.147   9.256 -0.1323  0.3766 -0.8394
51156SOL    HW260709   3.210   7.254   9.205  2.0119 -0.7937  0.5150
51157SOL     OW60710   1.780   5.011   8.940  0.9290 -0.1209 -0.4225
51157SOL    HW160711   1.821   5.091   8.973  0.2114  0.0913 -0.0197
51157SOL    HW260712   1.691   5.037   8.917 -0.6576 -1.5391  3.3314
51158SOL     OW60713   3.517  12.391  10.501  0.0802 -0.3446  0.0901
51158SOL    HW160714   3.558  12.478  10.509  1.7598 -1.1869  1.2781
51158SOL    HW260715   3.424  12.410  10.493  0.5426  1.6290 -1.4681
51159SOL     OW60716  11.970   9.964   7.057  0.5381  0.1613  0.6142
51159SOL    HW160717  12.054   9.927   7.032  0.5302 -0.6133  1.6556
51159SOL    HW260718  11.985  10.001   7.144 -0.1746  0.0916  0.7759
51160SOL     OW60719  11.442   3.501   3.587 -0.2714 -0.9443  0.1369
51160SOL    HW160720  11.478   3.440   3.652 -0.3153 -0.2088  0.8671
51160SOL    HW260721  11.428   3.582   3.636 -0.9703 -0.5916 -0.6355
51161SOL     OW60722   6.811   4.102   3.755 -0.0574 -0.6202  0.0601
51161SOL    HW160723   6.896   4.142   3.735  0.0872 -0.9616 -0.0254
51161SOL    HW260724   6.762   4.107   3.673 -0.2072 -0.2124  0.1733
51162SOL     OW60725  11.945   6.324  11.427  0.5844  0.6835  0.3442
51162SOL    HW160726  11.864   6.295  11.470  0.5032  0.4948  0.0613
51162SOL    HW260727  11.992   6.372  11.496  0.7759 -0.2010  0.8424
51163SOL     OW60728  11.661  12.394  12.405 -0.3820  0.7373  0.4087
51163SOL    HW160729  11.748  12.433  12.410 -0.2010  0.2164  1.4455
51163SOL    HW260730  11.670  12.326  12.337 -0.2382  1.2914 -0.1424
51164SOL     OW60731   3.227   1.264   0.447 -0.5925  0.3369  0.3685
51164SOL    HW160732   3.167   1.239   0.517  0.7315 -1.2711  0.9992
51164SOL    HW260733   3.312   1.230   0.475  0.1457  0.4226 -1.6054
51165SOL     OW60734   9.279   4.013   3.234  0.7277 -0.4216 -0.7039
51165SOL    HW160735   9.355   4.048   3.281 -0.2891  0.9592 -0.0292
51165SOL    HW260736   9.229   3.966   3.300 -1.3331  2.5242  0.0573
51166SOL     OW60737   7.117   6.937   5.781  0.1267  0.7404  0.2493
51166SOL    HW160738   7.124   6.842   5.778  1.1182  0.8183 -0.2084
51166SOL    HW260739   7.076   6.955   5.866  1.0257 -0.0489  0.8787
51167SOL     OW60740   7.056   8.236   4.105 -0.0422  0.3534  0.5493
51167SOL    HW160741   6.961   8.233   4.104 -0.0981  1.6898 -0.2746
51167SOL    HW260742   7.082   8.171   4.171 -1.4843 -0.5070  0.3015
51168SOL     OW60743   8.837   4.656   4.704  0.3151 -0.1850  0.0646
51168SOL    HW160744   8.828   4.596   4.778 -0.2967  1.1991  1.1689
51168SOL    HW260745   8.923   4.637   4.668  0.6002 -0.9451  1.0958
51169SOL     OW60746  10.122   8.953   4.448  0.5268 -0.0002 -0.1295
51169SOL    HW160747  10.174   9.019   4.401  1.0219 -1.0802 -1.1468
51169SOL    HW260748  10.043   8.943   4.395  1.7933 -2.3905 -1.7263
51170SOL     OW60749  10.662  12.141   3.178  0.0325  0.2265  0.1760
51170SOL    HW160750  10.756  12.149   3.159  0.0692 -1.5317 -0.5732
51170SOL    HW260751  10.637  12.228   3.209  1.8210  0.8485  0.0265
51171SOL     OW60752   2.279  10.584   9.001 -0.3755  0.2288  0.2134
51171SOL    HW160753   2.352  10.606   8.943 -1.2877 -0.1047 -1.1159
51171SOL    HW260754   2.205  10.569   8.941 -1.5930  0.8030  1.5292
51172SOL     OW60755   3.089   4.208   5.824  0.6309 -0.0794 -0.4136
51172SOL    HW160756   3.005   4.184   5.784  1.0687 -1.1707 -0.7072
51172SOL    HW260757   3.146   4.133   5.807  2.0308  1.1309 -1.2684
51173SOL     OW60758   8.071   4.557   9.189  0.2321  0.3926 -0.2774
51173SOL    HW160759   8.163   4.531   9.187  0.1787  0.1370  0.4323
51173SOL    HW260760   8.024   4.478   9.215 -0.2044  0.4952 -0.7324
51174SOL     OW60761   2.585   2.706  10.878  0.0435  0.1060  0.2250
51174SOL    HW160762   2.519   2.738  10.817  0.3441  1.7934  0.7109
51174SOL    HW260763   2.633   2.785  10.904 -0.1644 -0.4966  2.7239
51175SOL     OW60764  11.212  11.098   1.388 -0.0090 -0.0668  0.3599
51175SOL    HW160765  11.282  11.047   1.348 -0.5867 -2.1644  1.8365
51175SOL    HW260766  11.137  11.038   1.392 -1.5272  1.7136 -0.0652
51176SOL     OW60767   6.628   6.303   5.635 -0.0345 -0.4007  0.1297
51176SOL    HW160768   6.587   6.243   5.697  0.0535 -2.6285 -1.8385
51176SOL    HW260769   6.716   6.316   5.669 -0.2033 -1.0286  0.8320
51177SOL     OW60770   3.326   1.839   1.583  0.0920  0.6689 -0.0782
51177SOL    HW160771   3.405   1.813   1.535  1.5814  1.6818  1.7083
51177SOL    HW260772   3.255   1.792   1.539  1.6625 -0.2512 -1.7727
51178SOL     OW60773  11.055   4.999   7.834  0.0690  0.1732 -0.4860
51178SOL    HW160774  11.085   5.049   7.758  2.2894 -0.3643 -0.0104
51178SOL    HW260775  11.130   4.946   7.859 -1.5418 -1.8404  0.3357
51179SOL     OW60776   2.586  11.529   2.810 -0.0966  0.3749  0.5477
51179SOL    HW160777   2.587  11.609   2.862  0.7781 -0.2471  1.5401
51179SOL    HW260778   2.678  11.504   2.803 -0.3339 -0.3778 -0.0192
51180SOL     OW60779   4.369   4.197   0.653  0.0721  0.9711  0.5844
51180SOL    HW160780   4.277   4.189   0.679  0.3495 -2.1378  0.9615
51180SOL    HW260781   4.418   4.155   0.724  1.5034 -0.2817 -1.0490
51181SOL     OW60782   0.441  12.701   1.141 -0.0534 -0.6077 -0.1411
51181SOL    HW160783   0.350  12.708   1.171 -0.6692  0.7821 -2.0655
51181SOL    HW260784   0.433  12.685   1.047  1.7258 -1.8267 -0.1323
51182SOL     OW60785  12.051   8.197   2.792  0.4087  0.2861 -0.2466
51182SOL    HW160786  12.043   8.168   2.883 -0.1621  0.2247 -0.3120
51182SOL    HW260787  11.978   8.154   2.747  1.3341 -0.5845 -0.9694
51183SOL     OW60788   6.979  10.093   2.542  0.6416  0.2516 -0.1175
51183SOL    HW160789   7.038  10.102   2.617  1.8539  0.7621 -1.0950
51183SOL    HW260790   7.038  10.087   2.466 -0.5729  1.1281 -1.1676
51184SOL     OW60791  10.503   8.215   2.785 -0.0658  0.3285  0.6735
51184SOL    HW160792  10.487   8.282   2.718 -0.8089  0.9924  1.5021
51184SOL    HW260793  10.420   8.168   2.792  0.4247 -0.6548  0.1523
51185SOL     OW60794   2.113   1.259  11.846  0.3266  0.5078 -0.0751
51185SOL    HW160795   2.181   1.326  11.837  1.3945 -0.5548 -0.0874
51185SOL    HW260796   2.034   1.308  11.867  1.0259  1.7983 -0.3610
51186SOL     OW60797   9.254   7.729   3.633  0.0724 -0.0903 -0.5959
51186SOL    HW160798   9.281   7.727   3.725  0.9836  0.4894 -0.8392
51186SOL    HW260799   9.323   7.777   3.588 -0.0609 -0.8659 -1.6918
51187SOL     OW60800  12.634   8.780   3.865 -0.3930  0.0050  0.0187
51187SOL    HW160801  12.660   8.707   3.808 -1.1030 -0.7913  0.6962
51187SOL    HW260802  12.554   8.813   3.824 -1.3657 -1.0907  0.9656
51188SOL     OW60803   9.162   6.742   8.208  0.3220  0.3812  0.6549
51188SOL    HW160804   9.228   6.704   8.149  0.2540  0.2501  0.6626
51188SOL    HW260805   9.197   6.828   8.230  1.2859 -0.3199  1.9646
51189SOL     OW60806   6.895   0.727   2.475  0.3304 -0.0446  0.1883
51189SOL    HW160807   6.911   0.750   2.383  0.9262 -0.3122  0.2222
51189SOL    HW260808   6.982   0.717   2.513  0.0849 -0.1506  0.7322
51190SOL     OW60809  11.529   4.746   0.844  0.2822 -0.4094 -0.0969
51190SOL    HW160810  11.495   4.656   0.839  1.6017 -0.8692 -1.5017
51190SOL    HW260811  11.452   4.800   0.861 -0.5678 -1.7760  0.5560
51191SOL     OW60812   7.944   5.794   4.239  0.2192 -0.4775 -0.1234
51191SOL    HW160813   7.956   5.708   4.199  0.0350 -0.9201  0.7623
51191SOL    HW260814   8.006   5.851   4.193  0.3854 -1.0918 -0.6714
51192SOL     OW60815   1.473   0.406   8.185  0.1181  0.5411  0.1037
51192SOL    HW160816   1.504   0.496   8.179  3.2122 -0.4898 -1.6047
51192SOL    HW260817   1.537   0.363   8.243 -0.8850 -0.7383  0.3074
51193SOL     OW60818   7.694   2.308   5.989  0.3956  0.3547 -0.3591
51193SOL    HW160819   7.707   2.383   5.931  0.7303  0.0413 -0.6927
51193SOL    HW260820   7.782   2.275   6.005  0.4190  1.1050  1.2198
51194SOL     OW60821   7.560   9.295   4.294 -0.5801 -0.1367 -0.6912
51194SOL    HW160822   7.572   9.375   4.244 -1.4216 -0.7065 -1.8345
51194SOL    HW260823   7.472   9.303   4.333  0.2658  0.5530  1.2127
51195SOL     OW60824  11.032   4.095   5.584 -0.2043  0.2198  0.1405
51195SOL    HW160825  10.945   4.057   5.574  0.1661 -0.4351 -0.7681
51195SOL    HW260826  11.092   4.023   5.567  0.5569  1.5495 -3.9726
51196SOL     OW60827   0.266  12.567   1.799 -0.0129 -1.0086 -0.4229
51196SOL    HW160828   0.345  12.596   1.845  1.1635 -1.6134 -2.0107
51196SOL    HW260829   0.203  12.637   1.815  0.9675 -0.3042  0.5168
51197SOL     OW60830  10.139   4.197   4.628 -0.0566  0.1577  0.4381
51197SOL    HW160831  10.127   4.199   4.723 -1.3252  0.1191  0.2973
51197SOL    HW260832  10.051   4.211   4.593  0.5861  1.5366 -0.7463
51198SOL     OW60833   7.330   7.367   3.715 -0.3108 -1.0954 -0.5411
51198SOL    HW160834   7.370   7.314   3.646 -1.2503 -1.0583 -1.1244
51198SOL    HW260835   7.404   7.394   3.770  0.5705 -0.3599 -2.0331
51199SOL     OW60836   9.365   9.127   6.622 -0.4545 -0.5688  0.8075
51199SOL    HW160837   9.360   9.165   6.535 -0.7258 -2.3475  0.0035
51199SOL    HW260838   9.308   9.050   6.618 -0.0856 -0.9638  2.4053
51200SOL     OW60839   9.117  10.133   6.350 -0.6256 -0.2216  0.0879
51200SOL    HW160840   9.076  10.220   6.350 -3.0289 -1.2501 -0.7338
51200SOL    HW260841   9.043  10.072   6.345  1.0193 -2.2944 -0.4255
51201SOL     OW60842   2.599   3.507   1.966  0.6484  0.2553  0.1816
51201SOL    HW160843   2.680   3.477   1.923  0.2558 -0.5528 -0.0083
51201SOL    HW260844   2.531   3.448   1.933 -0.1020  1.1985  0.0145
51202SOL     OW60845   0.316   6.679   7.095  0.0990  0.2205 -0.0750
51202SOL    HW160846   0.388   6.726   7.054  1.4660  0.6358  2.5765
51202SOL    HW260847   0.240   6.698   7.040  1.6418  1.2361 -1.9668
51203SOL     OW60848   8.528   7.195   9.313  0.3271  0.2541  0.0707
51203SOL    HW160849   8.523   7.100   9.305  1.2035  0.3204 -1.6109
51203SOL    HW260850   8.437   7.224   9.316  0.0302 -0.6892  1.8871
51204SOL     OW60851   2.800   8.467   2.311  0.0361  0.4989  0.2078
51204SOL    HW160852   2.772   8.378   2.330  1.1594 -0.8446 -3.6027
51204SOL    HW260853   2.723   8.521   2.330 -1.9751 -1.8140 -0.9129
51205SOL     OW60854  10.032   4.839   2.282 -0.8776  0.1253  0.0420
51205SOL    HW160855   9.990   4.904   2.337  0.7538  1.6299 -0.3818
51205SOL    HW260856   9.991   4.850   2.196 -1.2903 -0.1033  0.2075
51206SOL     OW60857   6.834   1.302   3.367  0.3156 -0.1734 -0.3362
51206SOL    HW160858   6.865   1.215   3.393 -1.4540 -0.2628  1.6800
51206SOL    HW260859   6.767   1.286   3.301  0.1674 -0.3158 -0.1489
51207SOL     OW60860  11.186  11.460  11.300 -0.3812  0.0562 -0.5022
51207SOL    HW160861  11.226  11.378  11.271  0.1799  0.0137  0.3507
51207SOL    HW260862  11.127  11.484  11.229 -0.3794 -0.9663 -0.8702
51208SOL     OW60863   4.440   7.529   0.497  0.5648  0.4793  0.0375
51208SOL    HW160864   4.394   7.587   0.437 -0.2839  0.4290  0.6152
51208SOL    HW260865   4.396   7.444   0.487  0.6917  0.3661  0.4128
51209SOL     OW60866   4.074   6.204  10.963  0.6577 -0.3060  0.1902
51209SOL    HW160867   4.035   6.185  11.048 -0.1996 -0.1625 -0.1549
51209SOL    HW260868   4.072   6.120  10.917  2.3414 -0.6968  0.7595
51210SOL     OW60869   9.075  10.477   5.389  0.9702  0.5660 -0.5611
51210SOL    HW160870   9.095  10.560   5.346  1.1296  1.4364  1.1023
51210SOL    HW260871   8.989  10.452   5.354  0.2068  2.2270  0.0183
51211SOL     OW60872  10.836  11.928   5.723  0.2288  0.2894  0.0383
51211SOL    HW160873  10.782  11.953   5.648  2.1147  0.1952 -1.4456
51211SOL    HW260874  10.858  12.010   5.766  0.7958  0.5737 -0.7588
51212SOL     OW60875   2.371  10.969   8.536 -0.3734  0.3795  0.0589
51212SOL    HW160876   2.293  10.923   8.506  0.6415 -0.3380 -1.6566
51212SOL    HW260877   2.441  10.904   8.530  0.6993  1.5151 -0.2770
51213SOL     OW60878   4.750   5.047   8.972  0.1797 -0.5141  0.1627
51213SOL    HW160879   4.836   5.006   8.962 -0.2272 -1.1787 -0.7052
51213SOL    HW260880   4.703   4.990   9.033 -0.6652 -1.8739 -1.6478
51214SOL     OW60881   2.911   5.394  10.998  0.4156 -0.0379 -0.4723
51214SOL    HW160882   2.935   5.454  10.927  0.4152  1.0060  0.3950
51214SOL    HW260883   2.905   5.449  11.076  0.6363 -1.2077  0.3978
51215SOL     OW60884  10.676   5.584   2.238 -0.3858 -0.3684  0.3878
51215SOL    HW160885  10.585   5.578   2.267 -0.2780 -2.5916  0.4045
51215SOL    HW260886  10.676   5.543   2.151  0.5588 -0.0926  0.2461
51216SOL     OW60887  10.535   6.744   6.804  0.0416 -0.1905  0.3193
51216SOL    HW160888  10.586   6.816   6.768 -0.4376  0.5330  1.0454
51216SOL    HW260889  10.444   6.767   6.786 -0.1818 -0.0734  1.4666
51217SOL     OW60890   8.078   2.579   3.172  0.1389  0.2814  0.3880
51217SOL    HW160891   8.080   2.508   3.236  0.1852 -1.6082 -1.5852
51217SOL    HW260892   7.988   2.578   3.139  0.7048 -0.4653 -1.2693
51218SOL     OW60893   5.148   9.823   2.230  0.0419  0.0272 -0.1774
51218SOL    HW160894   5.119   9.798   2.318  1.1702  0.9903  0.4971
51218SOL    HW260895   5.152   9.918   2.232  1.4710  0.0069 -0.8057
51219SOL     OW60896   9.498   2.565   6.146 -0.5770  0.3424 -0.2431
51219SOL    HW160897   9.497   2.474   6.177 -0.8825  0.5111  0.2586
51219SOL    HW260898   9.464   2.561   6.057 -0.2192 -0.0826 -0.3666
51220SOL     OW60899  10.895   6.064   5.716  0.5201 -0.4008  0.2108
51220SOL    HW160900  10.879   6.103   5.802  0.2605 -0.5942  0.2488
51220SOL    HW260901  10.988   6.042   5.718  1.2101  2.1342 -0.5774
51221SOL     OW60902   1.811   9.504   6.840 -0.4332 -0.1550 -0.1067
51221SOL    HW160903   1.831   9.596   6.821 -0.9627 -0.0282 -0.0789
51221SOL    HW260904   1.854   9.486   6.923  0.2749 -0.1422 -0.4627
51222SOL     OW60905   2.781   5.278   6.241 -0.2045  0.0285  0.0816
51222SOL    HW160906   2.709   5.313   6.293  0.0468  1.5528 -0.5487
51222SOL    HW260907   2.840   5.238   6.306  0.3135  2.2365  1.0793
51223SOL     OW60908  12.648   0.365   9.041  0.5197  0.4532 -0.0594
51223SOL    HW160909  12.689   0.318   9.114 -0.7551 -0.0566  0.3385
51223SOL    HW260910  12.722   0.403   8.994  1.8025 -3.0959 -1.2538
51224SOL     OW60911  10.929   9.930   6.465  0.5324  0.0356 -0.4587
51224SOL    HW160912  10.907   9.874   6.390 -0.4512  0.5441 -0.5731
51224SOL    HW260913  11.024   9.925   6.473  0.5856 -0.5057 -1.3616
51225SOL     OW60914   6.117   9.434   0.864  0.3887 -0.3187  0.1411
51225SOL    HW160915   6.029   9.451   0.830  0.3521  0.7908  0.7066
51225SOL    HW260916   6.102   9.380   0.942  0.3997 -2.0244 -1.0060
51226SOL     OW60917  10.849  10.693   8.080  0.4355  0.1282 -0.3088
51226SOL    HW160918  10.857  10.784   8.051 -0.7085  0.0363 -0.9759
51226SOL    HW260919  10.799  10.698   8.161  0.3005  0.0918 -0.3889
51227SOL     OW60920   1.240   4.857  12.034  0.5955 -0.6669 -0.0573
51227SOL    HW160921   1.267   4.838  12.123  0.9532  1.6155  0.3872
51227SOL    HW260922   1.241   4.772  11.989  1.9923 -1.6172  1.6756
51228SOL     OW60923  12.637   3.369  11.444 -0.1488 -0.3628 -0.3128
51228SOL    HW160924  12.627   3.289  11.392 -0.9311  0.2822 -1.1872
51228SOL    HW260925  12.596   3.437  11.391  1.7257  0.9042 -0.2226
51229SOL     OW60926  12.013   1.858   1.950 -0.4460  0.2407  0.4229
51229SOL    HW160927  12.063   1.882   2.028  0.2258  0.5147 -0.0883
51229SOL    HW260928  12.042   1.919   1.883 -1.3368  0.2837  0.0676
51230SOL     OW60929  10.589   9.295  12.104 -0.0253  0.1783  0.2747
51230SOL    HW160930  10.495   9.308  12.122 -0.3183 -0.2428 -0.9080
51230SOL    HW260931  10.625   9.266  12.188 -0.8950  0.6028  0.8173
51231SOL     OW60932   9.940   3.990   7.532 -0.3162  0.3485 -0.2546
51231SOL    HW160933   9.864   4.043   7.508 -0.0850  0.4970 -0.6630
51231SOL    HW260934  10.011   4.053   7.541  0.1573  0.0254 -1.5885
51232SOL     OW60935  10.190   4.440   0.473 -0.2113  0.3089 -0.7340
51232SOL    HW160936  10.250   4.465   0.543 -0.0868 -0.5652 -0.5138
51232SOL    HW260937  10.134   4.373   0.512 -0.0775 -0.2566 -1.4849
51233SOL     OW60938   3.995   0.063   2.603 -0.1665  0.2957 -0.0641
51233SOL    HW160939   3.988   0.126   2.532  1.7836  0.3203 -0.2896
51233SOL    HW260940   3.905   0.049   2.632 -1.0570 -0.0535 -2.8074
51234SOL     OW60941   8.294   1.408  10.124  0.0786  0.6888 -0.4623
51234SOL    HW160942   8.327   1.482  10.073  3.8621 -0.0175  0.6262
51234SOL    HW260943   8.322   1.331  10.075 -2.0792 -0.0778 -0.5805
51235SOL     OW60944   7.989   2.690   1.666  0.5219 -0.1344 -0.2250
51235SOL    HW160945   7.900   2.713   1.690  0.7999 -0.3491  1.0874
51235SOL    HW260946   8.027   2.771   1.632  0.4255  0.4757  1.0670
51236SOL     OW60947  12.630   2.820   9.608 -0.2341 -0.0258  0.2090
51236SOL    HW160948  12.586   2.905   9.601  0.3373  0.2931  0.4221
51236SOL    HW260949  12.702   2.835   9.669 -0.2906 -0.7350  0.4583
51237SOL     OW60950   2.170  12.282  10.642 -0.1618  0.2346 -0.2521
51237SOL    HW160951   2.172  12.369  10.601  3.1183  0.1853 -0.4980
51237SOL    HW260952   2.249  12.280  10.696 -1.0264 -2.0366  1.0431
51238SOL     OW60953   5.709   9.325   6.855 -0.1642 -0.2773 -0.0492
51238SOL    HW160954   5.616   9.338   6.871 -0.1291 -0.9667  0.7528
51238SOL    HW260955   5.715   9.235   6.822  0.1675 -0.0779 -0.5410
51239SOL     OW60956   1.046   9.396   5.047 -0.2694 -0.2863  0.8194
51239SOL    HW160957   0.978   9.424   4.985 -1.2680  1.6081  2.6521
51239SOL    HW260958   1.128   9.426   5.008 -0.7503 -0.0847 -0.0753
51240SOL     OW60959   5.309   6.492  10.192 -0.1272 -0.4797  0.1148
51240SOL    HW160960   5.294   6.586  10.187 -1.4032 -0.4162  2.9298
51240SOL    HW260961   5.359   6.480  10.273 -1.4423 -2.2877  0.7406
51241SOL     OW60962   9.322   4.765   2.830  0.4692 -0.2479 -0.2326
51241SOL    HW160963   9.345   4.779   2.921  2.2348 -0.4424 -0.6094
51241SOL    HW260964   9.355   4.842   2.784 -2.9778  1.3055 -0.4060
51242SOL     OW60965  10.781   2.365   4.671 -0.1245  0.2374 -0.2394
51242SOL    HW160966  10.721   2.437   4.690  0.1968  0.1265  1.2425
51242SOL    HW260967  10.812   2.383   4.582 -1.2632  1.0527 -0.4964
51243SOL     OW60968   3.404  12.247   3.010  0.3000  0.5919 -0.0837
51243SOL    HW160969   3.351  12.296   3.073 -0.0402  0.3002 -0.1479
51243SOL    HW260970   3.450  12.315   2.961 -0.7908  0.8854 -0.7270
51244SOL     OW60971   8.658  12.271   0.004  0.6766  0.4113 -0.1504
51244SOL    HW160972   8.609  12.334   0.057  1.1033  0.8455 -0.2658
51244SOL    HW260973   8.688  12.322  -0.072 -0.8190 -0.4436 -1.3652
51245SOL     OW60974   2.264   0.516   7.029 -0.0394  0.4265 -0.0695
51245SOL    HW160975   2.300   0.559   7.106 -1.9587  2.7169 -0.3340
51245SOL    HW260976   2.169   0.522   7.040 -0.3726 -1.4134 -1.4543
51246SOL     OW60977   2.828  10.898  10.519  0.0121 -0.5026 -0.1384
51246SOL    HW160978   2.843  10.936  10.433 -0.6499 -0.4899 -0.2558
51246SOL    HW260979   2.910  10.910  10.566 -0.2902  1.4617 -0.0230
51247SOL     OW60980   1.343  12.464   6.735  0.2759 -0.5946 -0.5409
51247SOL    HW160981   1.387  12.417   6.806  1.1043 -1.1059 -1.3687
51247SOL    HW260982   1.249  12.450   6.751  0.4552 -0.8201  0.3557
51248SOL     OW60983   9.685   8.280   1.517  0.4109  0.2851  1.4512
51248SOL    HW160984   9.675   8.193   1.555  0.8256 -0.6230 -0.3976
51248SOL    HW260985   9.595   8.309   1.498  0.2876 -1.9377 -2.4335
51249SOL     OW60986  12.016   5.909   9.404 -0.6772  0.0027  0.0489
51249SOL    HW160987  12.087   5.964   9.436  0.4795 -1.1796 -0.4252
51249SOL    HW260988  12.043   5.882   9.317 -1.5718 -0.7303 -0.0200
51250SOL     OW60989   9.591   8.350   8.089  0.0645 -0.0525  0.0024
51250SOL    HW160990   9.542   8.334   8.169 -0.2158  0.7984  0.0047
51250SOL    HW260991   9.605   8.263   8.052  0.5485 -0.4907  1.1701
51251SOL     OW60992   1.873   1.775  10.261  0.1677  0.6255  0.1683
51251SOL    HW160993   1.897   1.698  10.314  1.5838  0.7877 -0.2098
51251SOL    HW260994   1.822   1.830  10.321 -1.3584 -0.8363  0.2914
51252SOL     OW60995   0.033   6.060  11.155 -0.1563 -0.6520  0.2701
51252SOL    HW160996   0.053   6.118  11.228  0.0796  0.4654 -0.6446
51252SOL    HW260997   0.114   6.060  11.103 -1.2844  1.1207 -1.6340
51253SOL     OW60998   1.789   5.987  11.604 -0.1086  0.7695 -0.2526
51253SOL    HW160999   1.784   5.923  11.675 -0.4353  1.7264  0.6234
51253SOL    HW261000   1.707   6.037  11.610 -0.0280  1.0364 -1.1476
51254SOL     OW61001  10.298  12.459   3.396 -0.4055 -0.3335  0.0395
51254SOL    HW161002  10.328  12.469   3.305 -0.6502 -0.3827 -0.0453
51254SOL    HW261003  10.248  12.378   3.396 -0.2354 -0.4398  0.2649
51255SOL     OW61004   1.554   0.344   3.377 -0.1675  0.1758  0.7137
51255SOL    HW161005   1.513   0.391   3.305 -0.5701 -0.5631  0.4486
51255SOL    HW261006   1.648   0.353   3.361 -0.2506  0.0311  0.0964
51256SOL     OW61007  10.615  10.972  10.956  1.0253 -0.2709 -0.1254
51256SOL    HW161008  10.671  10.908  10.913  0.2590  0.0973 -1.7485
51256SOL    HW261009  10.579  11.024  10.884 -0.9578 -0.1319  0.9071
51257SOL     OW61010   8.244  11.353   3.233  0.4761  0.1206  0.4012
51257SOL    HW161011   8.152  11.328   3.229  0.6557 -0.4571 -0.5883
51257SOL    HW261012   8.245  11.442   3.197  0.1922  0.4876  1.2881
51258SOL     OW61013   6.181   6.031   8.909 -0.4366 -0.0212  0.0938
51258SOL    HW161014   6.258   6.051   8.857 -0.3794  1.2161  0.6243
51258SOL    HW261015   6.108   6.041   8.848 -0.4109  1.8977  0.3208
51259SOL     OW61016  11.041   5.487   9.565 -0.3943 -0.6817  0.1866
51259SOL    HW161017  11.031   5.432   9.643 -0.6437 -0.8095  0.0631
51259SOL    HW261018  11.099   5.438   9.508 -1.9284 -1.6189 -0.6531
51260SOL     OW61019   3.180   4.365   7.879  0.4674  0.4767  0.1179
51260SOL    HW161020   3.251   4.375   7.942  0.8959 -0.4553 -0.1873
51260SOL    HW261021   3.213   4.301   7.816 -1.0794 -0.9311  0.6377
51261SOL     OW61022  10.391  11.642  10.008 -0.6286 -0.5788 -0.2074
51261SOL    HW161023  10.418  11.551  10.020 -0.6349 -0.6838 -0.9024
51261SOL    HW261024  10.345  11.642   9.924 -0.8213  0.0246 -0.1095
51262SOL     OW61025   5.766  10.145   0.936 -0.5101 -0.7985 -0.6389
51262SOL    HW161026   5.831  10.081   0.910 -0.2781 -0.8882  0.1182
51262SOL    HW261027   5.802  10.229   0.907 -0.9844 -1.0296 -1.9508
51263SOL     OW61028  10.022  11.152  11.327 -0.5975  0.0190 -0.2991
51263SOL    HW161029  10.068  11.146  11.244 -0.1136 -0.5030 -0.0056
51263SOL    HW261030   9.991  11.062  11.344 -2.2589  0.4542 -0.7761
51264SOL     OW61031  10.522   5.041   2.567 -0.0351  0.2211 -0.1218
51264SOL    HW161032  10.541   5.020   2.475  1.5684  0.7151  0.0709
51264SOL    HW261033  10.453   5.107   2.562  1.8966  2.2787 -1.1215
51265SOL     OW61034   8.100   9.473   3.452  0.4550 -0.1045 -0.3364
51265SOL    HW161035   8.076   9.383   3.474  2.0274 -0.3921  0.3947
51265SOL    HW261036   8.073   9.524   3.529 -0.1191 -0.0086 -0.6016
51266SOL     OW61037   1.146   4.613   4.082 -0.3714  0.3650  0.2946
51266SOL    HW161038   1.092   4.639   4.157 -1.1218 -1.9805  0.6786
51266SOL    HW261039   1.167   4.521   4.100  1.8425  0.5626 -1.0078
51267SOL     OW61040   5.735   0.304   1.896 -0.0748  0.2257  0.4588
51267SOL    HW161041   5.830   0.320   1.887  0.0774 -0.1132  1.3961
51267SOL    HW261042   5.709   0.356   1.972 -0.2351 -1.2677  1.4652
51268SOL     OW61043   0.897   6.011   7.830 -0.6308 -0.4386 -0.2221
51268SOL    HW161044   0.869   6.055   7.750 -1.3993  1.1443  0.8795
51268SOL    HW261045   0.993   6.012   7.825 -0.6656 -0.2618 -1.0580
51269SOL     OW61046   9.845  11.303   0.391 -0.4290  0.5957 -0.1602
51269SOL    HW161047   9.815  11.213   0.402  0.5299  0.4746  1.7163
51269SOL    HW261048   9.916  11.297   0.328  0.7708 -0.2430  1.2239
51270SOL     OW61049  11.975   1.334  12.185  0.6880  0.3146  0.0850
51270SOL    HW161050  11.915   1.263  12.210 -1.7780  1.6369 -1.5912
51270SOL    HW261051  12.062   1.299  12.201 -0.4701 -2.3220  1.2362
51271SOL     OW61052   8.781   6.109   0.772  0.1383 -0.6516 -0.1703
51271SOL    HW161053   8.860   6.064   0.801  0.5482  1.6040  2.6545
51271SOL    HW261054   8.812   6.193   0.739 -0.9651 -0.3731 -0.5478
51272SOL     OW61055  10.653   0.505   9.412  0.4076  0.0969  0.2613
51272SOL    HW161056  10.623   0.424   9.451 -0.8317  0.3794 -0.0691
51272SOL    HW261057  10.748   0.497   9.409  0.2678 -1.7019 -0.5574
51273SOL     OW61058   6.821  10.791   2.400  0.1609 -0.1587 -0.9419
51273SOL    HW161059   6.753  10.732   2.432 -1.3023  1.5310 -0.7663
51273SOL    HW261060   6.816  10.867   2.458  1.5334  0.4318 -1.5532
51274SOL     OW61061   8.723   2.847   9.036  0.2201  0.0055 -0.2370
51274SOL    HW161062   8.684   2.834   9.122  0.4430  1.1255  0.0408
51274SOL    HW261063   8.811   2.811   9.043  0.1511 -0.1296 -0.0718
51275SOL     OW61064   7.548  11.402  11.252 -0.1174  0.9980 -0.4935
51275SOL    HW161065   7.574  11.456  11.327  0.5139 -0.7562  0.6105
51275SOL    HW261066   7.626  11.399  11.197  0.1685  0.4581 -0.0716
51276SOL     OW61067  10.720   0.434  10.954  0.4002  0.2764 -0.1366
51276SOL    HW161068  10.727   0.399  10.865  0.9553  0.5097 -0.1900
51276SOL    HW261069  10.743   0.361  11.011  0.3570  0.2147 -0.1982
51277SOL     OW61070  10.542   8.684   5.809  0.2082 -0.1490 -0.0199
51277SOL    HW161071  10.622   8.650   5.769 -0.2179 -2.7978  1.1320
51277SOL    HW261072  10.545   8.652   5.899 -1.2274  1.3978  0.6451
51278SOL     OW61073   2.009   7.244   6.981 -0.4780 -0.1680  0.1159
51278SOL    HW161074   2.024   7.327   6.936  1.3098 -0.2994  0.4084
51278SOL    HW261075   1.913   7.238   6.988 -0.6567  2.3563  1.0066
51279SOL     OW61076   2.861   9.284   1.554 -0.1226  0.0669 -0.0142
51279SOL    HW161077   2.802   9.241   1.615  0.3861  2.8574  2.7150
51279SOL    HW261078   2.944   9.236   1.563  0.1096  0.7755  2.0412
51280SOL     OW61079   6.733  12.346  12.021 -0.0205 -0.3444 -0.4735
51280SOL    HW161080   6.678  12.415  11.984  0.6994  1.6982  1.9131
51280SOL    HW261081   6.809  12.343  11.964 -0.1315  0.7616 -0.7116
51281SOL     OW61082   0.202   8.186   5.065  0.3176  0.4794  0.4614
51281SOL    HW161083   0.155   8.220   5.141  0.7014 -2.0893  1.9556
51281SOL    HW261084   0.294   8.185   5.091  0.5625  0.2923 -0.3635
51282SOL     OW61085   0.823   4.444   3.284 -0.1308  0.1416 -0.0498
51282SOL    HW161086   0.794   4.491   3.205 -0.8875 -1.1766 -0.5877
51282SOL    HW261087   0.839   4.354   3.254  0.1158 -0.2485  1.1945
51283SOL     OW61088   9.613   2.443   7.598 -0.1515  0.1531  0.2937
51283SOL    HW161089   9.542   2.496   7.635 -1.0741 -2.1206  2.0372
51283SOL    HW261090   9.662   2.503   7.543 -1.6862  2.5496  1.3894
51284SOL     OW61091   0.385  10.613   6.152 -0.1012 -0.1885 -0.1779
51284SOL    HW161092   0.371  10.646   6.241  1.7076 -1.0454  0.4867
51284SOL    HW261093   0.297  10.600   6.117 -0.9428  3.8116  0.0105
51285SOL     OW61094   8.321   4.732   6.605  0.3890 -0.2426 -0.2366
51285SOL    HW161095   8.237   4.766   6.637  0.4138 -0.4400  0.0440
51285SOL    HW261096   8.387   4.773   6.661  0.3509 -1.6262  0.9049
51286SOL     OW61097  12.542   2.980   0.168 -0.2465 -0.2832  0.1417
51286SOL    HW161098  12.589   2.974   0.251  0.1275 -0.3128 -0.0736
51286SOL    HW261099  12.494   2.897   0.162  0.6393 -0.7773 -0.2267
51287SOL     OW61100   9.287   5.299   6.363 -0.4840 -0.4282  0.5429
51287SOL    HW161101   9.363   5.348   6.332 -0.4445 -0.3014  0.8353
51287SOL    HW261102   9.223   5.306   6.291 -0.5617  0.2470  0.6708
51288SOL     OW61103   4.943   5.185  10.328 -0.0103 -0.6360 -0.1580
51288SOL    HW161104   4.901   5.100  10.312  0.0216 -0.8377  0.8159
51288SOL    HW261105   4.872   5.249  10.319  0.0551 -0.6985 -1.3733
51289SOL     OW61106   8.029  10.348  12.125 -0.9923  0.4451 -0.6825
51289SOL    HW161107   8.047  10.437  12.096  1.4497 -0.1769 -1.3472
51289SOL    HW261108   8.089  10.334  12.199  0.2167 -1.2328 -1.8743
51290SOL     OW61109   0.042   9.910   0.174  0.4156 -0.0034 -0.7892
51290SOL    HW161110  -0.032   9.966   0.150  1.4553  2.0081  0.4435
51290SOL    HW261111   0.030   9.895   0.268  0.5832 -1.2442 -0.9521
51291SOL     OW61112   4.354  10.644   6.523 -0.5559  0.3206  0.3805
51291SOL    HW161113   4.300  10.640   6.602 -1.9281  0.0043 -0.5500
51291SOL    HW261114   4.306  10.702   6.464 -1.0344 -1.6845 -1.3003
51292SOL     OW61115   7.425   6.760   5.041 -0.4552  0.1845 -0.0298
51292SOL    HW161116   7.340   6.755   4.998 -1.2019  3.9415  0.6625
51292SOL    HW261117   7.462   6.842   5.010  1.4393  0.2816  2.2794
51293SOL     OW61118   5.551  10.768   2.579  0.2490  0.0572 -0.1751
51293SOL    HW161119   5.558  10.716   2.660  0.0395  0.1202 -0.1151
51293SOL    HW261120   5.460  10.757   2.551 -0.7265  2.7925  1.4873
51294SOL     OW61121   9.272  12.696   5.574 -0.3752 -0.0855 -0.2590
51294SOL    HW161122   9.193  12.647   5.548 -0.1869 -0.7862  0.4336
51294SOL    HW261123   9.266  12.700   5.670 -0.0680  0.7343 -0.2710
51295SOL     OW61124   3.849  10.662   0.718  0.5485  0.3513  0.2778
51295SOL    HW161125   3.897  10.684   0.637  0.1010 -1.0221 -0.3900
51295SOL    HW261126   3.844  10.566   0.717 -1.1010  0.4054  0.9768
51296SOL     OW61127   7.430  12.131   1.643  0.1522  1.0427 -0.2300
51296SOL    HW161128   7.364  12.098   1.704 -1.2187 -0.6743 -2.4684
51296SOL    HW261129   7.508  12.079   1.661 -0.6449 -0.4055 -0.7233
51297SOL     OW61130   0.898   8.952   0.647 -0.5503 -0.7053 -0.8053
51297SOL    HW161131   0.919   8.957   0.553 -1.0242 -2.5810 -1.0475
51297SOL    HW261132   0.922   9.038   0.681  1.0869 -0.4820 -2.3502
51298SOL     OW61133  12.416  10.428   9.320 -0.1649  0.2102 -0.0132
51298SOL    HW161134  12.380  10.489   9.385  0.6991 -1.2308  1.9335
51298SOL    HW261135  12.503  10.407   9.353 -0.0012 -1.1721 -1.2296
51299SOL     OW61136   1.695   3.407   9.001 -0.6458  0.6819  0.7020
51299SOL    HW161137   1.630   3.339   8.989  0.0714  0.1355 -0.2004
51299SOL    HW261138   1.645   3.485   9.026 -1.4846 -0.1200  1.5595
51300SOL     OW61139   4.378   0.469   7.935  0.8397  0.5108  0.3685
51300SOL    HW161140   4.289   0.473   7.969  1.4193  0.0471  2.0302
51300SOL    HW261141   4.373   0.408   7.861 -0.0456 -0.2273  1.0129
51301SOL     OW61142   9.766  10.507   3.018  0.4798  0.6939 -0.1119
51301SOL    HW161143   9.775  10.549   2.932 -0.0183  2.8961  0.8343
51301SOL    HW261144   9.679  10.532   3.048  0.5485 -0.2481  0.9320
51302SOL     OW61145   6.859   3.304   8.111  0.1888 -0.3520 -0.5521
51302SOL    HW161146   6.943   3.259   8.118  0.3098 -0.0876 -0.2650
51302SOL    HW261147   6.861   3.369   8.181 -0.3302 -0.4632 -0.4293
51303SOL     OW61148   1.992   4.030   7.964 -0.0524 -0.4174 -0.0124
51303SOL    HW161149   2.025   4.026   7.874 -0.1773  0.1674 -0.0834
51303SOL    HW261150   1.963   3.941   7.983 -0.8902 -0.3395 -0.8737
51304SOL     OW61151   2.063   9.239   8.476 -0.3693 -0.0905 -0.7065
51304SOL    HW161152   1.971   9.240   8.502 -0.0978 -0.0056  0.2929
51304SOL    HW261153   2.076   9.323   8.430 -0.8540 -0.2380 -1.1242
51305SOL     OW61154   7.437   4.351   4.585 -0.2362  0.1949  0.5428
51305SOL    HW161155   7.431   4.387   4.496  0.5834  1.4603  0.9757
51305SOL    HW261156   7.360   4.387   4.630 -0.7809 -0.6369  0.2918
51306SOL     OW61157   0.821   3.263   9.441 -0.1436 -0.3161 -0.1263
51306SOL    HW161158   0.906   3.306   9.448  0.7917 -1.8962 -1.1605
51306SOL    HW261159   0.826   3.213   9.360 -1.3002 -2.0839  0.8285
51307SOL     OW61160   4.547   0.777   8.797 -0.7448 -0.0362 -0.5314
51307SOL    HW161161   4.584   0.695   8.830  1.3705  0.8273 -0.5322
51307SOL    HW261162   4.509   0.755   8.712  1.0877 -0.7862 -1.2044
51308SOL     OW61163  12.611   2.824   0.644  1.0427 -0.3044 -0.0238
51308SOL    HW161164  12.562   2.852   0.567 -2.5890 -0.7363  1.9024
51308SOL    HW261165  12.590   2.732   0.654  0.7707 -0.0797  1.8731
51309SOL     OW61166   5.483   6.182   7.735 -0.2457 -0.0030 -0.0424
51309SOL    HW161167   5.390   6.158   7.731 -1.1519  3.0616 -0.0094
51309SOL    HW261168   5.486   6.255   7.798  1.9703  0.8528 -1.0341
51310SOL     OW61169   8.385   8.380   2.851  0.6274 -0.4500  0.3552
51310SOL    HW161170   8.460   8.321   2.849  1.0293 -0.0095  1.8290
51310SOL    HW261171   8.311   8.323   2.874  0.4608 -0.8901 -1.1431
51311SOL     OW61172   2.125   2.276   3.901 -0.1552 -0.1980  0.2527
51311SOL    HW161173   2.073   2.198   3.882 -0.0727 -0.1104 -0.3523
51311SOL    HW261174   2.084   2.314   3.978  0.5181 -1.4760  1.2683
51312SOL     OW61175   2.396   8.475   3.548 -0.1093  0.0099  0.3907
51312SOL    HW161176   2.488   8.472   3.521  0.6054  0.3998  2.5694
51312SOL    HW261177   2.357   8.543   3.493  1.6417  1.9308  1.3688
51313SOL     OW61178   6.445   8.974   4.357  0.4069  0.2010  0.0274
51313SOL    HW161179   6.511   8.907   4.377  0.0978  0.2599  1.3645
51313SOL    HW261180   6.473   9.051   4.407 -1.4524 -0.2395  1.8761
51314SOL     OW61181   6.660   0.382   4.662 -0.3420 -0.0290  0.1015
51314SOL    HW161182   6.670   0.287   4.651  0.5158  0.0928 -0.2939
51314SOL    HW261183   6.566   0.395   4.674 -0.5020 -0.9034 -0.0906
51315SOL     OW61184   1.639  12.417   0.375 -0.1082  0.1475 -0.2169
51315SOL    HW161185   1.665  12.372   0.295 -0.7534  1.0594 -0.9667
51315SOL    HW261186   1.544  12.427   0.368 -0.2137  0.0124  0.7970
51316SOL     OW61187   4.722  10.871   0.295  0.1342 -0.4324 -0.2467
51316SOL    HW161188   4.682  10.951   0.261  1.5052  0.8549  1.0181
51316SOL    HW261189   4.800  10.857   0.241  0.2035 -0.5884 -0.1104
51317SOL     OW61190   1.484   4.731   5.683 -0.1365 -0.3559  0.6117
51317SOL    HW161191   1.449   4.664   5.624  1.3919  0.3831 -1.2334
51317SOL    HW261192   1.524   4.796   5.625 -0.4307  1.5227  2.4041
51318SOL     OW61193   1.051   4.651  11.076  0.2293  0.4740  0.1005
51318SOL    HW161194   1.108   4.720  11.043  0.8319  0.5363  1.2152
51318SOL    HW261195   1.022   4.603  10.998  2.0039  0.2895 -0.4862
51319SOL     OW61196   5.238   9.970   6.834 -0.2388 -0.2391  0.1994
51319SOL    HW161197   5.212   9.877   6.833  0.2964 -0.3958  0.5417
51319SOL    HW261198   5.321   9.972   6.787 -2.4358  0.7796 -4.1965
51320SOL     OW61199   3.874  11.180   8.873 -0.0416  0.1331 -0.1024
51320SOL    HW161200   3.792  11.174   8.920 -0.8966 -1.9817 -1.6904
51320SOL    HW261201   3.869  11.263   8.825 -0.8823  0.3975  0.4399
51321SOL     OW61202  12.622   6.476   6.256 -0.3511  0.8930 -0.0899
51321SOL    HW161203  12.575   6.431   6.327  0.5355 -1.3767 -0.8381
51321SOL    HW261204  12.570   6.459   6.178  0.9121 -0.4402 -0.6827
51322SOL     OW61205   1.005   9.499   4.276 -0.0495 -0.1252 -0.6203
51322SOL    HW161206   0.984   9.590   4.253 -1.5475  0.2911  1.9633
51322SOL    HW261207   1.099   9.492   4.265  0.2636  2.1252  0.2551
51323SOL     OW61208   5.895   0.302   7.841 -0.4062 -0.3527  0.2103
51323SOL    HW161209   5.807   0.327   7.869 -1.2637 -1.0442 -1.6791
51323SOL    HW261210   5.918   0.228   7.898 -1.2329 -0.4340  0.4526
51324SOL     OW61211   9.430   0.200   7.457  0.2665  0.2322 -0.1202
51324SOL    HW161212   9.368   0.265   7.424 -0.8171 -1.4379 -1.5421
51324SOL    HW261213   9.457   0.151   7.379 -1.2410 -2.9027  1.1705
51325SOL     OW61214   3.284   0.829   8.199  0.7527  0.2622  0.0859
51325SOL    HW161215   3.353   0.880   8.242  0.7117  2.3071 -2.0583
51325SOL    HW261216   3.210   0.890   8.194 -0.2363 -0.9322 -0.2201
51326SOL     OW61217   3.364  10.736  12.220 -0.2623 -0.1418  0.3927
51326SOL    HW161218   3.322  10.769  12.141 -1.8831 -0.4527  1.0801
51326SOL    HW261219   3.439  10.794  12.234 -0.7632  0.7691 -0.6043
51327SOL     OW61220   3.299   3.739   7.560  0.0929  0.2158  0.0855
51327SOL    HW161221   3.207   3.758   7.543  0.5042  2.9963  0.4390
51327SOL    HW261222   3.336   3.717   7.475 -0.9625 -1.5008  0.0286
51328SOL     OW61223   7.575  12.147   7.478  0.4637 -0.5842  0.2428
51328SOL    HW161224   7.625  12.139   7.397 -0.8569  0.4322 -0.7092
51328SOL    HW261225   7.545  12.058   7.497 -0.9262 -0.5473 -1.5500
51329SOL     OW61226   6.859   7.861  10.019  0.2244 -0.5787  0.1804
51329SOL    HW161227   6.905   7.825   9.943  0.4574 -1.5189  0.7390
51329SOL    HW261228   6.766   7.845  10.000  0.1403  0.8126 -0.6940
51330SOL     OW61229   6.025   0.489  11.072  0.1226 -0.3800 -0.2246
51330SOL    HW161230   6.017   0.452  10.984  0.8013  1.1694 -0.9822
51330SOL    HW261231   6.119   0.485  11.090  0.5237  2.5159 -1.1149
51331SOL     OW61232   6.382  11.141   0.526 -0.3086 -0.5341 -0.5557
51331SOL    HW161233   6.431  11.214   0.564  0.3866 -0.9780 -0.5791
51331SOL    HW261234   6.312  11.182   0.476 -0.0303  0.1119 -0.4180
51332SOL     OW61235  10.295   1.590   5.041 -0.1340 -0.5075  0.0861
51332SOL    HW161236  10.313   1.612   4.949 -1.2415 -0.9560 -0.2614
51332SOL    HW261237  10.286   1.495   5.042 -0.3565 -0.4853  0.6213
51333SOL     OW61238  11.697   5.996  10.139  0.3500 -0.6814  0.0589
51333SOL    HW161239  11.743   6.051  10.076  0.1083 -0.0291  0.4433
51333SOL    HW261240  11.718   6.034  10.224  0.6784 -1.5566  0.3876
51334SOL     OW61241   2.611   1.431  10.509  0.4739 -0.0177  0.1039
51334SOL    HW161242   2.575   1.491  10.574 -2.0225 -1.0813 -0.1935
51334SOL    HW261243   2.659   1.366  10.561  0.7617  0.5985  0.6311
51335SOL     OW61244  11.068  10.297   0.017 -0.3540 -0.0691  0.0221
51335SOL    HW161245  11.046  10.365   0.080  0.9676 -0.2080  0.6558
51335SOL    HW261246  10.999  10.303  -0.049 -1.6742  0.1780  1.3837
51336SOL     OW61247   7.721   7.210   1.054  0.0600 -0.5396  0.4253
51336SOL    HW161248   7.814   7.215   1.032 -0.4312  2.6387 -1.6547
51336SOL    HW261249   7.679   7.180   0.974 -0.8399 -0.1422  0.7402
51337SOL     OW61250   1.456   2.741   4.875 -0.3748 -0.0042  0.5595
51337SOL    HW161251   1.426   2.828   4.849  1.0856  0.4231  0.2206
51337SOL    HW261252   1.445   2.688   4.796  0.4284  0.3437  0.1961
51338SOL     OW61253   0.289   5.014   7.289  0.1359  0.6388 -0.4068
51338SOL    HW161254   0.331   5.051   7.366 -0.7573 -1.3842  1.1506
51338SOL    HW261255   0.197   5.001   7.315 -0.0639 -0.5695 -1.5891
51339SOL     OW61256   1.206  12.658   9.138 -0.0618 -0.4118  0.1000
51339SOL    HW161257   1.246  12.656   9.225  0.4463  1.2696 -0.0492
51339SOL    HW261258   1.279  12.654   9.077 -0.3020 -0.0918 -0.2175
51340SOL     OW61259   4.611   0.902   7.508 -0.2501 -0.6156 -0.3774
51340SOL    HW161260   4.692   0.950   7.521 -0.5616  0.2154 -1.3868
51340SOL    HW261261   4.586   0.873   7.596  1.8489 -2.1203 -0.1974
51341SOL     OW61262   2.056   5.253   5.440  0.1533 -0.3276 -0.2624
51341SOL    HW161263   2.138   5.296   5.464 -0.4199  0.5139  0.2466
51341SOL    HW261264   2.082   5.181   5.384  1.2218  0.1072 -0.3431
51342SOL     OW61265   8.840  11.791  10.259 -0.1715  0.0874 -0.1277
51342SOL    HW161266   8.866  11.807  10.168 -0.4692 -0.6329 -0.3480
51342SOL    HW261267   8.909  11.831  10.311  0.7731 -0.7450 -0.6939
51343SOL     OW61268   8.925   5.573   3.063  0.0143  0.3168 -0.1831
51343SOL    HW161269   8.986   5.501   3.046 -0.4039  0.2071 -1.2345
51343SOL    HW261270   8.909   5.613   2.978 -3.6601 -1.4823 -0.5631
51344SOL     OW61271   1.692   1.982   7.149 -0.2710 -0.8413 -0.0078
51344SOL    HW161272   1.786   1.970   7.136 -0.1929 -1.9452  1.3252
51344SOL    HW261273   1.685   2.067   7.192  0.1542 -0.9094  0.2036
51345SOL     OW61274  11.326   7.637  11.749 -0.1546 -0.2587  0.3689
51345SOL    HW161275  11.280   7.695  11.809  0.2630  0.5965 -0.1188
51345SOL    HW261276  11.339   7.690  11.670  0.9657 -0.7279  0.2213
51346SOL     OW61277   2.658   8.339   0.691 -0.2572 -0.2325 -0.2215
51346SOL    HW161278   2.567   8.336   0.721 -0.9095  0.3383 -1.9937
51346SOL    HW261279   2.660   8.412   0.628  1.5976  0.2090  0.2869
51347SOL     OW61280   7.190   8.050  10.130 -0.1725  0.5416 -0.1734
51347SOL    HW161281   7.141   8.103  10.193  0.5264  0.3852  0.5172
51347SOL    HW261282   7.159   7.961  10.144 -1.0848  0.6932 -1.0861
51348SOL     OW61283   0.146  10.953   5.133  0.7486  0.3594 -0.4645
51348SOL    HW161284   0.118  10.884   5.073 -0.0855  0.8342 -0.6461
51348SOL    HW261285   0.232  10.980   5.101  0.4234  0.4333 -1.3011
51349SOL     OW61286   4.683  12.414   5.810 -0.2847  0.1863 -0.1742
51349SOL    HW161287   4.600  12.380   5.777 -1.0751  2.1491 -0.3549
51349SOL    HW261288   4.749  12.355   5.774 -1.4388 -0.1062 -1.9318
51350SOL     OW61289  11.531   0.868   4.469  0.0761 -0.1231  0.2111
51350SOL    HW161290  11.591   0.868   4.544 -2.9462 -0.3667  2.8473
51350SOL    HW261291  11.504   0.777   4.460  0.4748 -0.1152 -1.3349
51351SOL     OW61292   7.966  10.702   2.051 -0.0770  0.1742  0.2745
51351SOL    HW161293   7.877  10.668   2.047 -0.1969  0.4840  0.2987
51351SOL    HW261294   8.016  10.635   2.098 -0.4379  0.3063  0.8440
51352SOL     OW61295   1.917   2.365  11.909  0.3092  0.2842 -0.3337
51352SOL    HW161296   2.002   2.324  11.894  0.6862  0.7404  0.5325
51352SOL    HW261297   1.931   2.426  11.982 -1.4455 -1.9828  2.1215
51353SOL     OW61298   0.192  11.856  11.927  0.2595  0.5475 -0.2231
51353SOL    HW161299   0.199  11.950  11.913  0.7413  0.4801 -0.5004
51353SOL    HW261300   0.280  11.823  11.905 -0.2170 -0.0947 -1.2416
51354SOL     OW61301   4.519   0.360   6.233 -0.0142  0.1228  0.3514
51354SOL    HW161302   4.503   0.338   6.324 -1.7369  2.6108  0.7469
51354SOL    HW261303   4.605   0.324   6.214 -0.2495 -1.7671  2.4678
51355SOL     OW61304   1.803   1.249  10.884 -0.0303  0.7606 -0.7332
51355SOL    HW161305   1.872   1.278  10.943  0.0939  2.0751 -1.4743
51355SOL    HW261306   1.737   1.318  10.889 -1.3173 -0.4735 -0.0446
51356SOL     OW61307   1.322   9.390   3.986 -0.6773  0.4035  0.1399
51356SOL    HW161308   1.325   9.391   3.890  1.4562 -0.2170  0.1602
51356SOL    HW261309   1.229   9.375   4.006 -1.1069  0.0904 -1.8269
51357SOL     OW61310   8.162   1.224   4.111 -0.4863  0.2549  0.0313
51357SOL    HW161311   8.066   1.227   4.118 -0.7033  1.0878 -2.2353
51357SOL    HW261312   8.185   1.306   4.066  1.4460  0.6314  1.5836
51358SOL     OW61313   9.738   5.891   7.043 -0.0339 -0.0891 -0.0386
51358SOL    HW161314   9.750   5.838   6.965 -2.0872 -0.0745 -0.4171
51358SOL    HW261315   9.716   5.978   7.009  0.3789  0.2541  0.5609
51359SOL     OW61316   5.415   5.837   0.311  0.2764 -0.2163 -0.4998
51359SOL    HW161317   5.449   5.810   0.225 -0.2562 -0.4211 -0.6454
51359SOL    HW261318   5.320   5.832   0.302  0.1699  1.4108 -0.4300
51360SOL     OW61319   3.337   0.981   7.142  0.2231  0.1916  0.2269
51360SOL    HW161320   3.414   0.956   7.090  0.5497 -2.2312  1.7205
51360SOL    HW261321   3.272   0.914   7.121 -0.7731  1.0276  0.5656
51361SOL     OW61322  10.404   5.914   2.452  0.6438  0.2644  0.4971
51361SOL    HW161323  10.416   5.868   2.369  1.9842  2.3767 -0.5498
51361SOL    HW261324  10.385   6.004   2.428  1.0525  0.9359  2.4927
51362SOL     OW61325  11.728   1.191  11.375 -0.6721  0.1856  0.6097
51362SOL    HW161326  11.656   1.135  11.346  0.2941 -0.3193 -0.9602
51362SOL    HW261327  11.730   1.262  11.311  1.5332 -0.9638 -0.7491
51363SOL     OW61328   1.798   8.442   9.750  0.0954  0.0779  0.1762
51363SOL    HW161329   1.890   8.425   9.729  0.0430 -0.1570  0.1357
51363SOL    HW261330   1.755   8.454   9.665  0.1609  0.5747  0.2089
51364SOL     OW61331   9.715   7.045  12.495 -0.0313 -0.4529 -0.1211
51364SOL    HW161332   9.626   7.014  12.513 -0.0279 -0.1249  0.5065
51364SOL    HW261333   9.707   7.140  12.490  0.1768 -0.4616 -0.7296
51365SOL     OW61334   5.733   8.433   2.150 -0.2653 -0.2399 -0.1423
51365SOL    HW161335   5.744   8.442   2.055  0.3051  2.4539  0.0942
51365SOL    HW261336   5.700   8.344   2.162 -0.7708 -0.5208 -2.8919
51366SOL     OW61337  11.001   0.094   7.202  0.6300  0.2943 -0.1546
51366SOL    HW161338  11.088   0.053   7.204  0.6393  0.2786 -0.7073
51366SOL    HW261339  11.019   0.188   7.205  0.6650  0.2902 -0.2353
51367SOL     OW61340   9.131   5.924   4.764 -0.0904  0.2054  0.3644
51367SOL    HW161341   9.170   5.842   4.734 -1.4726 -0.1948 -0.4649
51367SOL    HW261342   9.140   5.984   4.690  2.4816  1.4304  1.5609
51368SOL     OW61343   8.396   4.732   3.355  0.0804  0.2035 -0.1409
51368SOL    HW161344   8.395   4.675   3.432 -1.0978 -0.7902 -0.8486
51368SOL    HW261345   8.369   4.818   3.388 -2.6130 -0.6940  0.2651
51369SOL     OW61346   1.067  10.908   6.004 -0.1373 -0.2861 -0.4425
51369SOL    HW161347   1.089  10.823   6.041 -1.1937 -0.2105  0.4091
51369SOL    HW261348   1.127  10.919   5.930  0.1327 -1.6785 -0.4471
51370SOL     OW61349  11.036  11.571   5.009 -0.1539 -0.6943 -0.3256
51370SOL    HW161350  10.950  11.558   5.049 -0.7608 -0.5490 -1.5346
51370SOL    HW261351  11.060  11.660   5.032  0.2911 -1.1530  1.1127
51371SOL     OW61352   6.199   1.850   5.720  0.0707  0.2107  0.1367
51371SOL    HW161353   6.161   1.762   5.724  1.7404 -0.5457 -0.0192
51371SOL    HW261354   6.143   1.897   5.658 -0.4352 -0.9544 -0.3178
51372SOL     OW61355   8.120  11.589   6.656 -0.2900  0.2518  0.3171
51372SOL    HW161356   8.147  11.670   6.699 -0.0630  0.3136  0.0586
51372SOL    HW261357   8.093  11.532   6.728  1.7678 -0.2956  0.7355
51373SOL     OW61358  12.260   7.847   7.258 -0.0885 -0.1527 -0.0163
51373SOL    HW161359  12.317   7.898   7.316 -0.7892 -1.5686  1.9870
51373SOL    HW261360  12.315   7.775   7.227  0.2222  0.4847 -1.0173
51374SOL     OW61361  11.732  11.631   5.088 -0.2561 -0.3157  0.2887
51374SOL    HW161362  11.826  11.625   5.070 -0.1479 -1.0922  1.0506
51374SOL    HW261363  11.692  11.644   5.002  0.5103 -0.3566 -0.0888
51375SOL     OW61364   9.748   9.715  10.654  0.0705  0.3284  0.6989
51375SOL    HW161365   9.820   9.751  10.602 -1.4229 -0.1897 -1.9516
51375SOL    HW261366   9.669   9.740  10.605 -1.3266 -1.9081  1.6711
51376SOL     OW61367   6.609  11.848   5.067  0.3375 -0.1493  0.4136
51376SOL    HW161368   6.612  11.884   5.155 -3.8334  0.1022  0.6191
51376SOL    HW261369   6.592  11.754   5.079 -0.3912 -0.0919 -0.1010
51377SOL     OW61370   3.134   3.651   0.485  0.0108 -0.4834  0.3309
51377SOL    HW161371   3.075   3.581   0.455  0.1097 -1.3843  2.0877
51377SOL    HW261372   3.218   3.607   0.498  0.7385  0.5086 -0.8456
51378SOL     OW61373   0.793  12.004   6.419  0.5314 -0.1092  0.2231
51378SOL    HW161374   0.783  12.016   6.513 -0.7628 -0.1153  0.0928
51378SOL    HW261375   0.809  11.910   6.408 -0.0058 -0.2177  0.3782
51379SOL     OW61376   7.284   1.936   7.480 -0.2517 -0.5941 -0.6968
51379SOL    HW161377   7.349   1.897   7.420  1.1923  1.1645 -0.3641
51379SOL    HW261378   7.200   1.909   7.444  0.6059 -0.9260 -2.6144
51380SOL     OW61379   3.646   6.001   8.335  0.1776  0.0409 -0.1702
51380SOL    HW161380   3.640   5.948   8.415  0.2782 -1.1497 -0.9283
51380SOL    HW261381   3.555   6.014   8.308  0.1859 -0.5396 -0.4849
51381SOL     OW61382   3.525   2.518   1.724 -0.3176 -0.5928  0.4509
51381SOL    HW161383   3.539   2.423   1.716 -2.7487 -0.9725 -0.1329
51381SOL    HW261384   3.613   2.555   1.732  0.7850 -2.7601 -0.7991
51382SOL     OW61385   3.584   9.288  10.078  0.1049 -0.2995 -0.3060
51382SOL    HW161386   3.658   9.282  10.138  1.5175 -0.9526 -2.0279
51382SOL    HW261387   3.566   9.382  10.070  1.3831 -0.0580 -0.5705
51383SOL     OW61388   8.908  11.284   7.936 -0.2362  0.2255 -0.3829
51383SOL    HW161389   8.871  11.342   7.870 -0.4126  0.6976  0.1216
51383SOL    HW261390   8.903  11.197   7.897 -2.3885  0.1740 -0.1501
51384SOL     OW61391   7.132  12.207   4.288  0.3485 -0.3580  0.0173
51384SOL    HW161392   7.157  12.295   4.261  0.5119 -0.8372 -1.5198
51384SOL    HW261393   7.112  12.215   4.381  0.1355  1.3344 -0.1423
51385SOL     OW61394   8.231   7.775   3.796  0.0723  0.0615  0.0893
51385SOL    HW161395   8.324   7.774   3.773 -0.5151 -0.4977 -2.6024
51385SOL    HW261396   8.206   7.867   3.790 -0.0787 -0.0688 -1.8570
51386SOL     OW61397   0.683   6.108   1.528  0.2717  0.1676  0.4117
51386SOL    HW161398   0.624   6.107   1.603 -0.7717 -0.4396 -0.3801
51386SOL    HW261399   0.629   6.075   1.455  1.4275  0.1432 -0.4587
51387SOL     OW61400   2.371   1.952  12.199  0.4215  0.0941 -0.1753
51387SOL    HW161401   2.379   1.950  12.104  0.8253  0.5237 -0.1542
51387SOL    HW261402   2.420   1.876  12.230 -0.7579 -0.7727 -0.3698
51388SOL     OW61403   7.006   8.277  10.172 -0.3202 -0.2653 -0.5878
51388SOL    HW161404   7.074   8.313  10.115 -1.7746  0.9285 -1.6286
51388SOL    HW261405   6.937   8.248  10.113 -0.7192 -1.5431  0.4452
51389SOL     OW61406   9.949   4.680   0.913 -0.1594 -0.5313  0.9298
51389SOL    HW161407   9.941   4.773   0.890  1.7615 -0.1248  1.6857
51389SOL    HW261408   9.943   4.634   0.830  0.3772  0.4077  0.3497
51390SOL     OW61409  10.954   9.634   5.874 -0.1278 -0.9745  0.7741
51390SOL    HW161410  11.008   9.682   5.937 -0.6626  0.1658  0.3976
51390SOL    HW261411  10.993   9.546   5.871 -0.0911 -1.0684  2.6718
51391SOL     OW61412   4.593   3.235   1.049 -0.2040 -0.9583 -0.3096
51391SOL    HW161413   4.508   3.204   1.080 -0.4993  0.3419  0.2485
51391SOL    HW261414   4.634   3.272   1.128  0.1537 -0.0138 -0.9281
51392SOL     OW61415   6.169   9.533  12.458  0.5005 -0.1527  0.1925
51392SOL    HW161416   6.159   9.448  12.499 -0.2968  0.2391  0.8386
51392SOL    HW261417   6.079   9.565  12.445  0.7685  1.3727  1.6741
51393SOL     OW61418   6.755   1.525   4.640 -0.7176  0.1009 -0.3684
51393SOL    HW161419   6.803   1.534   4.557 -0.7714  2.7047 -0.1995
51393SOL    HW261420   6.679   1.471   4.618 -0.7123  0.7108 -2.0114
51394SOL     OW61421   5.256  11.803   9.385 -0.0512  0.5843  0.2831
51394SOL    HW161422   5.344  11.800   9.423 -0.2462  3.1708  1.1544
51394SOL    HW261423   5.232  11.711   9.372  2.4351 -0.2101  0.7656
51395SOL     OW61424   9.500   1.390   4.106  0.0284 -0.0551  0.0508
51395SOL    HW161425   9.458   1.365   4.024  0.9305  1.9199 -1.0841
51395SOL    HW261426   9.461   1.332   4.171 -1.5785 -0.8979 -1.5620
51396SOL     OW61427   9.827   8.396   6.098 -0.0381 -0.3302  0.0085
51396SOL    HW161428   9.754   8.374   6.156  0.3444  1.9693  1.5231
51396SOL    HW261429   9.885   8.320   6.101 -0.6633 -0.7741  1.6541
51397SOL     OW61430   8.113   0.922   9.453  0.2982  0.2304 -0.6735
51397SOL    HW161431   8.116   0.827   9.440 -0.2556 -0.1145  1.3076
51397SOL    HW261432   8.197   0.944   9.491 -0.1920  0.2160  0.4689
51398SOL     OW61433  10.582   5.614   4.992  0.2322 -0.1059  0.0205
51398SOL    HW161434  10.665   5.634   5.037  0.2135  1.2310 -0.4980
51398SOL    HW261435  10.609   5.579   4.907  0.3067  1.3015 -0.5684
51399SOL     OW61436   6.227   3.306   2.540 -0.0632 -0.3569  0.4533
51399SOL    HW161437   6.309   3.263   2.515  1.1293  1.3142  1.3327
51399SOL    HW261438   6.254   3.387   2.582 -2.1991  1.9325 -2.2195
51400SOL     OW61439  10.231   2.882   4.432 -0.5492  0.4056 -0.1806
51400SOL    HW161440  10.221   2.974   4.410  0.8125  0.3372 -1.2571
51400SOL    HW261441  10.299   2.881   4.500  0.1644  0.1561 -0.8765
51401SOL     OW61442   7.296   8.718   6.658 -0.4495 -0.7122 -0.0508
51401SOL    HW161443   7.365   8.779   6.683 -0.2924 -0.6682 -0.5762
51401SOL    HW261444   7.214   8.765   6.675 -0.3529 -0.7368  0.5027
51402SOL     OW61445   2.855   6.416   1.269 -0.0437 -0.3018 -0.3921
51402SOL    HW161446   2.764   6.440   1.251 -0.0517 -1.2498 -1.8548
51402SOL    HW261447   2.903   6.452   1.194  0.4834 -1.4717 -0.6303
51403SOL     OW61448   7.082   6.021   1.543  0.3059 -0.0586  0.5286
51403SOL    HW161449   7.049   6.081   1.477 -1.1589 -1.3630  0.0053
51403SOL    HW261450   7.172   6.002   1.515 -0.7785 -1.8919 -2.1641
51404SOL     OW61451   4.135   0.576   0.959 -0.6338 -0.1787  0.0412
51404SOL    HW161452   4.214   0.522   0.953  0.2947  1.1745 -0.4410
51404SOL    HW261453   4.085   0.538   1.031  0.3067 -1.2430  0.1619
51405SOL     OW61454   9.822   4.006   1.296  0.4991  0.0277  0.1992
51405SOL    HW161455   9.789   3.984   1.383 -2.3107 -0.7692 -0.9509
51405SOL    HW261456   9.758   3.967   1.236  3.3208 -1.1186 -2.3242
51406SOL     OW61457   4.564  12.247   3.051  0.5829 -0.1911 -0.1731
51406SOL    HW161458   4.632  12.182   3.070  0.5378 -0.4582 -0.9059
51406SOL    HW261459   4.497  12.230   3.117  0.9670 -0.3051  0.1954
51407SOL     OW61460   4.844   4.969   4.138  0.4494 -0.4705 -0.1586
51407SOL    HW161461   4.903   5.026   4.089  2.1098 -1.0969  1.0110
51407SOL    HW261462   4.836   4.891   4.083 -2.8154  1.1852 -2.3628
51408SOL     OW61463   0.805   1.158  11.199  0.3662  0.1477  0.2460
51408SOL    HW161464   0.860   1.093  11.155 -0.7746 -1.8179  1.5506
51408SOL    HW261465   0.867   1.213  11.248  1.2506 -1.6962  1.2953
51409SOL     OW61466   4.082   6.300   6.638 -0.1359  0.4423 -0.3470
51409SOL    HW161467   4.003   6.322   6.590 -0.5960  1.2227  0.7104
51409SOL    HW261468   4.135   6.380   6.635 -0.4927  0.7739  0.9825
51410SOL     OW61469   2.475   5.516   9.052  0.1418 -0.1908 -0.6302
51410SOL    HW161470   2.541   5.464   9.005 -0.9111 -2.2126 -0.0108
51410SOL    HW261471   2.410   5.538   8.984  0.2071 -0.3571 -0.7475
51411SOL     OW61472   0.429   9.396   0.125  0.3869 -0.5118  0.2529
51411SOL    HW161473   0.509   9.343   0.129 -0.1540 -1.4732 -1.0153
51411SOL    HW261474   0.366   9.341   0.080 -1.3212 -0.1511  2.0425
51412SOL     OW61475   6.501   0.477  10.421  0.4186 -1.1409  0.1440
51412SOL    HW161476   6.596   0.487  10.417  0.3348 -0.4089 -0.1736
51412SOL    HW261477   6.484   0.439  10.508  0.9417 -0.5608  0.5056
51413SOL     OW61478   3.030  12.584   0.747 -0.2533 -0.2842  0.0022
51413SOL    HW161479   2.990  12.659   0.702 -0.4775 -0.8759 -0.8175
51413SOL    HW261480   2.956  12.535   0.782 -0.0492  0.5520  1.6854
51414SOL     OW61481   6.704   9.539   3.027  0.0373 -0.2323  0.0762
51414SOL    HW161482   6.648   9.554   2.951  0.0740 -2.2250 -0.3821
51414SOL    HW261483   6.665   9.593   3.096 -3.1119 -2.2703  0.0730
51415SOL     OW61484   7.659   6.620   6.562 -0.1108 -0.3556  0.5084
51415SOL    HW161485   7.565   6.631   6.577 -0.3180 -2.0253  0.5567
51415SOL    HW261486   7.698   6.621   6.649 -0.0428  0.4669  0.4820
51416SOL     OW61487   7.485   8.900   7.069 -0.8908  0.1863 -0.3608
51416SOL    HW161488   7.475   8.839   6.996 -1.1932  0.7010 -0.7478
51416SOL    HW261489   7.556   8.862   7.122 -1.7826 -1.0721 -0.0131
51417SOL     OW61490  10.679   7.565   4.481  0.0095  0.0601 -0.1086
51417SOL    HW161491  10.690   7.619   4.559 -0.2870  0.0900 -0.0878
51417SOL    HW261492  10.703   7.622   4.408 -0.7636  0.3651 -0.1244
51418SOL     OW61493   6.138   2.259   2.226  0.4778  0.2514  0.0673
51418SOL    HW161494   6.056   2.213   2.241  0.4735 -0.1547 -1.0848
51418SOL    HW261495   6.163   2.235   2.137  0.8748  1.8520 -0.2893
51419SOL     OW61496   4.786  11.726   9.874 -0.4942 -0.5874 -0.1327
51419SOL    HW161497   4.855  11.716   9.940 -1.1715 -0.6076  0.5817
51419SOL    HW261498   4.707  11.745   9.924 -0.9908 -0.4314 -0.9537
51420SOL     OW61499   8.520  10.929   5.006  1.0033 -0.1676 -0.4348
51420SOL    HW161500   8.507  10.837   4.982 -0.0237  0.0915 -0.9358
51420SOL    HW261501   8.568  10.966   4.932  0.9044 -0.1693 -0.5001
51421SOL     OW61502  10.921   7.847   3.045 -0.1163 -0.0554  0.1164
51421SOL    HW161503  10.917   7.941   3.063 -0.2894  0.0454 -0.4445
51421SOL    HW261504  10.830   7.818   3.049 -0.0336 -0.2638  0.6057
51422SOL     OW61505   7.384   5.129   6.177  0.2921 -0.1512 -0.0333
51422SOL    HW161506   7.301   5.083   6.165  0.2278 -0.0820  0.1354
51422SOL    HW261507   7.449   5.071   6.139  0.2329 -0.4660  0.3350
51423SOL     OW61508  12.255   6.607   3.497  0.3150  0.7922  0.0067
51423SOL    HW161509  12.250   6.518   3.530  0.6602  1.1623  1.0876
51423SOL    HW261510  12.170   6.622   3.455  0.1569  0.0538  0.0608
51424SOL     OW61511   4.010   6.305   9.659  0.0196 -0.0725  0.3338
51424SOL    HW161512   4.011   6.356   9.578  2.1153  1.0590  1.0037
51424SOL    HW261513   3.918   6.307   9.687 -0.4985  0.6991 -1.2530
51425SOL     OW61514   0.179   8.539   5.240 -0.1324 -0.0910 -0.4058
51425SOL    HW161515   0.255   8.484   5.219  0.2977 -0.1693  1.1995
51425SOL    HW261516   0.128   8.542   5.159  0.1320 -2.3870 -0.7353
51426SOL     OW61517   9.719   9.257  10.863 -0.0018 -0.5778  0.1997
51426SOL    HW161518   9.763   9.181  10.826  0.4216 -0.8771  1.2663
51426SOL    HW261519   9.672   9.296  10.790 -0.2127 -1.8542 -0.3743
51427SOL     OW61520   8.299  12.330   7.903  0.1938  0.1128 -0.4162
51427SOL    HW161521   8.352  12.270   7.851  2.0216  2.0822 -0.9942
51427SOL    HW261522   8.349  12.343   7.984 -1.1627 -0.6238  0.5808
51428SOL     OW61523   8.374  11.044   2.829  0.7243  0.7062  1.1544
51428SOL    HW161524   8.431  11.009   2.897  0.7339 -2.3591 -0.2337
51428SOL    HW261525   8.285  11.022   2.858  0.7471 -0.9072  0.1223
51429SOL     OW61526  10.882   8.764  10.406 -0.4997  0.7253 -0.2582
51429SOL    HW161527  10.936   8.814  10.345 -1.1782 -0.9082 -2.3130
51429SOL    HW261528  10.885   8.674  10.373 -0.6838 -0.3225  2.3115
51430SOL     OW61529   4.790   5.230   9.884  0.0931  0.1955  0.1807
51430SOL    HW161530   4.775   5.139   9.911 -1.5908  0.3763 -0.0567
51430SOL    HW261531   4.758   5.282   9.958  0.2318  0.6091 -0.0499
51431SOL     OW61532   5.388  10.460   4.461  0.6653 -0.7285  0.3477
51431SOL    HW161533   5.354  10.433   4.375 -1.3827 -1.0623  1.1995
51431SOL    HW261534   5.468  10.508   4.441 -0.7583  0.9093 -1.9456
51432SOL     OW61535  11.683   0.133   5.162 -0.4651 -0.0555  0.0509
51432SOL    HW161536  11.627   0.126   5.085 -0.6887 -1.1887  0.3032
51432SOL    HW261537  11.622   0.135   5.236 -0.2423  0.7691  0.2237
51433SOL     OW61538   6.780  12.358  10.827 -0.0166 -0.2932 -0.7891
51433SOL    HW161539   6.848  12.374  10.892 -0.6737 -2.9853  0.7318
51433SOL    HW261540   6.727  12.438  10.827  1.5270  0.7698  0.0385
51434SOL     OW61541   6.448   9.978   3.919  0.1376  0.0293  0.1980
51434SOL    HW161542   6.360   9.952   3.893  0.0932  0.2744  0.1008
51434SOL    HW261543   6.436  10.020   4.004  0.1546  0.1091  0.1606
51435SOL     OW61544   4.104   5.045   0.753 -0.0060 -0.0659  0.1959
51435SOL    HW161545   4.089   4.953   0.734  0.5843 -0.1987  0.3412
51435SOL    HW261546   4.106   5.087   0.667  1.0459 -0.4075  0.0342
51436SOL     OW61547   4.000   9.739   6.829  0.1299 -0.5219  0.0746
51436SOL    HW161548   4.081   9.698   6.860 -0.0929 -1.3296 -0.3605
51436SOL    HW261549   4.026   9.792   6.754  0.5055  0.5877  0.9657
51437SOL     OW61550   1.995  12.272   9.865 -0.0546  0.2184  0.0746
51437SOL    HW161551   2.027  12.246   9.951 -1.2963 -4.7654 -0.6625
51437SOL    HW261552   2.072  12.271   9.809  0.1441 -0.6900  0.3553
51438SOL     OW61553   0.540   6.661  12.054 -0.1563 -0.7894  0.2007
51438SOL    HW161554   0.602   6.714  12.004  0.5262 -1.5545  0.2292
51438SOL    HW261555   0.508   6.721  12.123  0.4581 -0.3611  0.1210
51439SOL     OW61556   2.790   9.284  11.764 -0.1744  0.1611  0.1004
51439SOL    HW161557   2.785   9.279  11.669 -1.1973  1.4599  0.0634
51439SOL    HW261558   2.741   9.363  11.787  0.3319  0.0550  1.6840
51440SOL     OW61559  12.323   4.502   3.347 -0.4805 -0.0270  0.5294
51440SOL    HW161560  12.397   4.551   3.382  0.1319  0.5015 -1.4085
51440SOL    HW261561  12.342   4.411   3.371  2.3822 -0.3639 -2.3344
51441SOL     OW61562   8.465   4.761   0.667  0.8332 -0.0612 -0.3478
51441SOL    HW161563   8.503   4.716   0.591 -1.9679 -1.2493 -1.1899
51441SOL    HW261564   8.374   4.734   0.667  0.5002  0.6373  2.9590
51442SOL     OW61565   2.949   4.305   5.435  0.3445 -0.0044  0.5003
51442SOL    HW161566   2.894   4.262   5.500 -2.5361  2.3732 -0.1462
51442SOL    HW261567   3.026   4.334   5.484  0.9332 -2.9753  1.5604
51443SOL     OW61568   1.334   7.113   4.036 -0.1393 -0.3569 -0.3794
51443SOL    HW161569   1.253   7.084   3.994  1.1224 -2.6993 -1.4041
51443SOL    HW261570   1.392   7.136   3.963  1.2479 -2.1262  0.0715
51444SOL     OW61571   6.822   8.230   1.946  0.1539 -0.3934  0.4092
51444SOL    HW161572   6.765   8.206   1.873  2.8073 -1.8602 -1.3236
51444SOL    HW261573   6.828   8.151   1.999  0.0696 -0.0278  0.9778
51445SOL     OW61574   6.330   2.251   3.515  0.3953 -0.1926  0.1531
51445SOL    HW161575   6.419   2.276   3.490 -0.0143  0.4026 -0.7541
51445SOL    HW261576   6.312   2.172   3.464  0.6963 -0.8211  0.9828
51446SOL     OW61577  10.759   7.281   6.646 -0.2882 -0.0022  0.4639
51446SOL    HW161578  10.682   7.332   6.623 -0.1499 -0.0211 -0.0576
51446SOL    HW261579  10.729   7.190   6.648  0.0009 -0.1687 -1.1148
51447SOL     OW61580   0.959  12.549   6.900 -0.1697 -0.3322  0.2641
51447SOL    HW161581   0.882  12.529   6.848 -1.5189  0.2530  1.9231
51447SOL    HW261582   0.940  12.511   6.986  1.3144 -0.0168  0.7572
51448SOL     OW61583  10.723   9.618   6.583 -0.0160 -0.1411 -0.6539
51448SOL    HW161584  10.774   9.543   6.552 -1.6094 -1.3411 -0.5233
51448SOL    HW261585  10.693   9.592   6.671  1.4605  1.7146  0.4740
51449SOL     OW61586   9.889   6.617   6.386  0.3765  0.0143  0.5034
51449SOL    HW161587   9.829   6.549   6.355  0.3929  0.4009 -0.4092
51449SOL    HW261588   9.975   6.589   6.356  0.6013 -0.3071  1.4160
51450SOL     OW61589   5.159   9.544   3.315 -0.3727  0.7550  0.7694
51450SOL    HW161590   5.191   9.558   3.226  0.2961  1.7356  1.1568
51450SOL    HW261591   5.092   9.611   3.328 -1.0963  0.0661  0.7200
51451SOL     OW61592   2.242   0.312  11.020  1.0202 -0.2348 -0.3691
51451SOL    HW161593   2.181   0.308  10.946  1.0342 -1.5285 -0.3377
51451SOL    HW261594   2.207   0.250  11.084  1.2613  0.5242  0.5322
51452SOL     OW61595  10.038   6.269   7.322  0.1259  0.1272  0.2296
51452SOL    HW161596  10.047   6.188   7.272  0.0692  0.5283 -0.4387
51452SOL    HW261597   9.943   6.282   7.330  0.0788  1.2874 -1.6114
51453SOL     OW61598   1.942   3.939   0.062  0.4864 -0.0668  0.1216
51453SOL    HW161599   1.994   4.011   0.098  1.7103 -0.4815 -0.7752
51453SOL    HW261600   1.870   3.982   0.016  0.7449  0.5439  0.2780
51454SOL     OW61601   6.839   0.253   5.629 -0.3407 -0.0841  0.3834
51454SOL    HW161602   6.803   0.280   5.544  0.0024  0.7142  0.4758
51454SOL    HW261603   6.918   0.204   5.607  0.2169  0.8422  0.2435
51455SOL     OW61604   8.783   5.536   8.128  0.4688 -0.3148 -0.2362
51455SOL    HW161605   8.777   5.442   8.145  0.3783 -0.5616 -1.5273
51455SOL    HW261606   8.774   5.577   8.214  0.6160 -1.4884  0.3535
51456SOL     OW61607  11.353   4.886   5.467 -0.2883  0.3930 -0.0747
51456SOL    HW161608  11.427   4.945   5.469 -0.0693  0.1035  0.4611
51456SOL    HW261609  11.354   4.849   5.378  0.4689  0.0675  0.0601
51457SOL     OW61610  10.585   0.986   3.848  0.1656 -0.4615 -0.6415
51457SOL    HW161611  10.633   0.903   3.852  0.2666 -0.4252 -1.0595
51457SOL    HW261612  10.563   0.996   3.756  1.3315  0.6531 -0.8203
51458SOL     OW61613   3.696  12.589   3.074 -0.3113 -0.4054  0.1537
51458SOL    HW161614   3.774  12.543   3.042  1.2572  1.8151  0.5254
51458SOL    HW261615   3.699  12.576   3.169  0.0374  0.2993  0.2406
51459SOL     OW61616   9.090   5.319   5.490 -0.2288  0.1408 -0.5363
51459SOL    HW161617   9.076   5.224   5.487  0.7464 -0.0230 -0.2351
51459SOL    HW261618   9.059   5.345   5.577 -1.6518  0.3085 -1.0732
51460SOL     OW61619   8.053   1.592  11.452 -0.2875  0.1005 -0.1570
51460SOL    HW161620   8.138   1.615  11.490 -1.2309  1.2259  1.3587
51460SOL    HW261621   8.058   1.626  11.362  1.2314 -0.8295 -0.4712
51461SOL     OW61622   7.123   2.341   3.904 -0.7032 -0.3242  0.1955
51461SOL    HW161623   7.097   2.310   3.990 -0.1663  2.4932  1.4948
51461SOL    HW261624   7.207   2.298   3.887 -0.6529 -0.6581  1.2354
51462SOL     OW61625  12.186   9.426  11.867 -0.5391  0.1597 -0.5217
51462SOL    HW161626  12.224   9.503  11.825  1.0531 -0.5824 -0.5098
51462SOL    HW261627  12.126   9.390  11.802  0.6142 -0.0103 -1.5245
51463SOL     OW61628   1.016   3.332  12.358  0.1432 -0.3269 -0.3169
51463SOL    HW161629   1.020   3.284  12.276 -2.1178 -0.2722 -0.5219
51463SOL    HW261630   0.924   3.357  12.367  0.7950  1.9545  0.9306
51464SOL     OW61631   2.925   7.115  10.444 -0.2144  0.4881  0.6556
51464SOL    HW161632   2.926   7.139  10.351 -0.7250 -0.6549  0.3369
51464SOL    HW261633   2.864   7.178  10.483 -0.2031  0.8099  0.1746
51465SOL     OW61634   8.034   1.241   9.089 -0.1825 -0.0558  0.3379
51465SOL    HW161635   8.057   1.265   8.999  2.1517 -0.7912  0.6514
51465SOL    HW261636   7.947   1.278   9.103  0.0913  1.5168 -1.6667
51466SOL     OW61637   8.622   0.268   8.450  0.1924  0.0177  0.0666
51466SOL    HW161638   8.696   0.300   8.503  1.5155 -0.0658 -1.6464
51466SOL    HW261639   8.663   0.220   8.378 -1.6139 -1.9615  0.2545
51467SOL     OW61640   3.489   5.828   2.253 -0.2068  0.3464  0.2214
51467SOL    HW161641   3.489   5.916   2.216 -1.3693  0.2155 -0.1292
51467SOL    HW261642   3.424   5.780   2.202  1.8073 -1.3116 -0.9551
51468SOL     OW61643   8.828   5.416   1.391  0.4709  0.2550 -0.4153
51468SOL    HW161644   8.864   5.402   1.479  1.6202 -0.0825 -0.9225
51468SOL    HW261645   8.824   5.511   1.381 -0.4280  0.3061  0.2893
51469SOL     OW61646  11.278   2.712  12.581 -0.2208 -0.4657  0.7185
51469SOL    HW161647  11.216   2.750  12.643 -2.6672 -1.1838 -1.1230
51469SOL    HW261648  11.299   2.626  12.616 -3.8147 -2.0737 -0.6337
51470SOL     OW61649   9.595   0.532  11.236 -0.4168 -0.1563  0.4182
51470SOL    HW161650   9.531   0.574  11.178  0.8262  0.0236 -0.8632
51470SOL    HW261651   9.567   0.441  11.241 -0.6412 -0.1361 -0.3301
51471SOL     OW61652   3.737   7.316  11.465  0.0972  0.1452  0.4700
51471SOL    HW161653   3.742   7.410  11.444  0.9555  0.2075  0.9106
51471SOL    HW261654   3.765   7.310  11.556  0.7642 -0.6223  0.2240
51472SOL     OW61655  11.590  11.503   5.984  0.4446  0.4026 -0.7188
51472SOL    HW161656  11.549  11.475   5.903 -0.7431 -0.2243  0.0653
51472SOL    HW261657  11.527  11.565   6.022  0.8427  0.4538 -0.1344
51473SOL     OW61658   7.433  10.558  10.465 -0.1763  0.0244 -0.0049
51473SOL    HW161659   7.492  10.484  10.475 -0.9493 -0.3838  2.0736
51473SOL    HW261660   7.480  10.619  10.409  1.7619 -0.7384  0.7174
51474SOL     OW61661   0.066   2.812   7.249  0.5586  0.5710 -0.0668
51474SOL    HW161662   0.140   2.838   7.195  0.5654 -0.9561 -0.8418
51474SOL    HW261663   0.055   2.718   7.232 -0.7878  0.5069  0.9586
51475SOL     OW61664   1.289  10.454   9.182  0.4676  0.1227  0.0747
51475SOL    HW161665   1.307  10.531   9.235 -0.6430 -0.2678  1.0606
51475SOL    HW261666   1.347  10.386   9.216 -0.3769 -0.1799  0.9463
51476SOL     OW61667   5.419   3.551   3.929 -0.3973 -0.8970  0.8476
51476SOL    HW161668   5.461   3.576   4.011  0.8250 -2.6701  0.8447
51476SOL    HW261669   5.455   3.611   3.864 -0.1048 -0.5218  1.3526
51477SOL     OW61670   3.606   4.605   6.885  0.4032 -0.0741 -0.2939
51477SOL    HW161671   3.628   4.689   6.925  1.7520 -0.0718 -0.9687
51477SOL    HW261672   3.662   4.601   6.807 -0.2299 -1.2420 -0.7032
51478SOL     OW61673   8.447   4.387   3.656  0.2082 -0.2438  0.0015
51478SOL    HW161674   8.514   4.379   3.724 -0.3240 -1.1735  0.4399
51478SOL    HW261675   8.465   4.316   3.595 -1.1227 -1.3086  0.8066
51479SOL     OW61676   1.740   6.756   9.881 -0.0151  0.1632 -0.2655
51479SOL    HW161677   1.667   6.816   9.878 -0.7482 -0.6929  0.0309
51479SOL    HW261678   1.704   6.673   9.848  1.0360 -0.0447 -0.9446
51480SOL     OW61679   1.260   3.544  10.778 -0.2646  0.5834 -0.3797
51480SOL    HW161680   1.201   3.518  10.849  0.9454  0.3944  0.6101
51480SOL    HW261681   1.348   3.538  10.817  0.7611 -2.6167 -2.7722
51481SOL     OW61682   3.927   9.705  12.216  0.0345 -0.2147 -0.4847
51481SOL    HW161683   3.924   9.609  12.211 -0.5579 -0.2875  0.8166
51481SOL    HW261684   3.964   9.723  12.303  1.2372  0.7577 -1.1584
51482SOL     OW61685  10.299   4.824  12.022 -0.1801 -0.1676  0.1356
51482SOL    HW161686  10.292   4.894  11.957 -1.7619 -0.6381 -0.2583
51482SOL    HW261687  10.378   4.845  12.072  1.6792 -0.3227 -2.5341
51483SOL     OW61688  11.757   3.208   7.520 -0.9579  0.1866  0.0225
51483SOL    HW161689  11.678   3.247   7.483 -0.8334  1.0180  0.6109
51483SOL    HW261690  11.827   3.270   7.498 -0.6817  0.0885  0.6003
51484SOL     OW61691   7.011   4.715   9.815  0.1715 -0.8014  0.0992
51484SOL    HW161692   7.078   4.737   9.879  0.0813  1.3965 -0.4692
51484SOL    HW261693   6.946   4.664   9.863 -0.3523  1.5401  2.0307
51485SOL     OW61694  10.706  10.916   8.739  0.6111 -0.1926  0.2895
51485SOL    HW161695  10.634  10.862   8.706  0.2840  1.2310 -1.5300
51485SOL    HW261696  10.694  10.916   8.834 -0.4568 -1.7775  0.1977
51486SOL     OW61697   7.254   1.281  11.595  0.1365 -0.3274 -0.7451
51486SOL    HW161698   7.282   1.258  11.684 -0.2814  2.7668  0.2804
51486SOL    HW261699   7.201   1.205  11.567  2.4662 -2.5624  0.5017
51487SOL     OW61700   4.458  11.093   4.682 -0.4192 -0.0615 -0.1315
51487SOL    HW161701   4.544  11.081   4.641 -0.3147  0.1712  0.0160
51487SOL    HW261702   4.395  11.064   4.616 -0.3234  1.4805 -0.9588
51488SOL     OW61703  11.360   0.345  11.170 -0.4837  0.3423  0.1931
51488SOL    HW161704  11.428   0.306  11.225 -0.1841 -0.0729 -0.4512
51488SOL    HW261705  11.353   0.435  11.200 -0.9682 -0.1131  1.5098
51489SOL     OW61706   0.483   8.523  11.348 -0.1976  0.0094 -0.2443
51489SOL    HW161707   0.466   8.535  11.442 -2.5340 -5.2736  0.3364
51489SOL    HW261708   0.566   8.475  11.346 -0.3602 -0.2413 -0.8752
51490SOL     OW61709  10.414   4.527   3.128  0.6046 -0.4128  0.1083
51490SOL    HW161710  10.471   4.570   3.191  0.2958  0.0065  0.1107
51490SOL    HW261711  10.371   4.457   3.178 -2.3006  2.0521  1.4075
51491SOL     OW61712  11.618   2.958  11.167 -0.1038 -0.2893 -0.0003
51491SOL    HW161713  11.665   3.030  11.208 -0.8238  0.1743  0.0395
51491SOL    HW261714  11.681   2.919  11.106  0.1584  0.6559 -0.3574
51492SOL     OW61715   0.553   8.238   1.515  0.5904  0.2884 -0.1723
51492SOL    HW161716   0.612   8.254   1.588  0.7632 -0.2921 -0.1772
51492SOL    HW261717   0.512   8.323   1.497  0.6243  0.4554  0.5286
51493SOL     OW61718   5.696  12.611  11.253 -0.4159  0.1652  0.5067
51493SOL    HW161719   5.762  12.681  11.260 -0.4841  0.1984  0.8284
51493SOL    HW261720   5.744  12.536  11.218 -1.0404  1.3545 -3.3837
51494SOL     OW61721  11.880   9.663   6.260 -0.1314  0.0951  0.2537
51494SOL    HW161722  11.837   9.720   6.324  1.1514  1.9834 -0.4622
51494SOL    HW261723  11.973   9.671   6.280  0.1097 -1.3844 -0.2014
51495SOL     OW61724   8.528   8.251   0.204 -0.3402 -0.1797 -0.0524
51495SOL    HW161725   8.614   8.265   0.245 -0.5812 -1.6146  1.0070
51495SOL    HW261726   8.467   8.245   0.277 -1.2202 -0.1042 -0.7590
51496SOL     OW61727   8.486   7.477   1.218  0.8614 -0.1199 -0.3789
51496SOL    HW161728   8.406   7.454   1.265 -0.1917  2.5644 -0.6567
51496SOL    HW261729   8.472   7.443   1.129  1.4177 -2.2961  0.3053
51497SOL     OW61730   1.019   7.187   0.296  0.3651  0.1575  0.2656
51497SOL    HW161731   0.932   7.225   0.287  0.1371 -0.2141  0.8906
51497SOL    HW261732   1.018   7.110   0.237  0.1682 -0.0245  0.5068
51498SOL     OW61733   1.167   0.405  10.764  0.2742 -0.4552  0.3930
51498SOL    HW161734   1.118   0.450  10.833 -2.0082 -2.0556 -0.0569
51498SOL    HW261735   1.169   0.467  10.691 -1.5249 -0.4905  0.2781
51499SOL     OW61736   4.076   1.388   5.156  0.3885  0.0295 -0.1261
51499SOL    HW161737   4.001   1.430   5.114  0.3693  0.2967  0.1691
51499SOL    HW261738   4.075   1.421   5.246  0.6757 -0.2081 -0.0337
51500SOL     OW61739  12.657   5.249   6.802  0.0830  0.4841  0.3016
51500SOL    HW161740  12.672   5.272   6.893  0.6906 -0.8435  0.5531
51500SOL    HW261741  12.582   5.190   6.805  0.1763  0.3485 -0.0510
51501SOL     OW61742  12.434   3.574   0.048  0.1556 -0.1012  0.0561
51501SOL    HW161743  12.468   3.622   0.124  0.0953  0.2338 -0.1281
51501SOL    HW261744  12.373   3.510   0.085  0.2219 -0.0222  0.3011
51502SOL     OW61745  10.981  10.084   8.902  0.3146  0.8465 -0.8493
51502SOL    HW161746  10.920  10.066   8.831 -0.6280 -1.0334  0.3482
51502SOL    HW261747  10.978  10.179   8.913 -0.7986  0.9960 -2.1822
51503SOL     OW61748  11.663   4.532   0.238  0.7625  0.2981  0.2556
51503SOL    HW161749  11.662   4.450   0.188  1.0356  0.7319 -0.4806
51503SOL    HW261750  11.592   4.584   0.200  0.6523  0.4458  0.6556
51504SOL     OW61751   8.995   7.950  10.000 -0.4705 -1.0528  0.4379
51504SOL    HW161752   8.981   7.929   9.908  1.2030  2.0762 -0.6792
51504SOL    HW261753   8.919   8.004  10.024  0.4822  0.6090 -0.0964
51505SOL     OW61754   2.452   5.429   5.754 -0.1408  0.2216 -0.3914
51505SOL    HW161755   2.508   5.493   5.709 -0.7480  0.0546 -1.4089
51505SOL    HW261756   2.494   5.344   5.737  0.1757  0.2552  0.2067
51506SOL     OW61757   8.697   1.285   5.814 -0.0968  0.3540  0.5577
51506SOL    HW161758   8.739   1.285   5.900  0.6417  0.8463  0.2046
51506SOL    HW261759   8.629   1.352   5.820 -0.0524  0.3808  0.7608
51507SOL     OW61760   9.233  11.996   1.388  0.0251  0.3516 -0.4176
51507SOL    HW161761   9.188  12.026   1.309 -1.3796 -1.1810 -0.2431
51507SOL    HW261762   9.167  12.001   1.457  1.1025  1.2241  0.6027
51508SOL     OW61763   0.838   1.369   1.840  0.1115  0.2100 -0.1840
51508SOL    HW161764   0.748   1.400   1.852 -0.7568 -2.2416  0.1223
51508SOL    HW261765   0.867   1.347   1.929 -0.3543 -2.3826 -0.5907
51509SOL     OW61766   6.014   9.208   5.662 -0.5653 -0.0505 -0.7787
51509SOL    HW161767   5.946   9.166   5.610 -0.1422  0.3234 -1.6624
51509SOL    HW261768   6.064   9.136   5.700 -3.4752 -0.4681  2.8219
51510SOL     OW61769   9.336   2.410   0.881 -0.2555  0.3487 -0.1708
51510SOL    HW161770   9.421   2.373   0.906 -0.8159 -1.5277 -0.8346
51510SOL    HW261771   9.356   2.474   0.814  0.5619 -1.4381 -1.7217
51511SOL     OW61772   1.243   4.882   0.836 -0.1563 -0.0186  0.1182
51511SOL    HW161773   1.274   4.959   0.788  1.1702 -1.0989 -0.8072
51511SOL    HW261774   1.296   4.880   0.915  0.8061 -0.7283 -0.5159
51512SOL     OW61775   5.322   2.902   3.868 -0.4740  0.2225  0.2537
51512SOL    HW161776   5.317   2.920   3.774 -1.0635  1.1742  0.4434
51512SOL    HW261777   5.258   2.963   3.907 -1.2668 -1.1329  1.1459
51513SOL     OW61778   0.288  11.300   9.343 -0.1406 -0.5193 -0.1722
51513SOL    HW161779   0.233  11.359   9.395  0.7754  1.0123 -0.8706
51513SOL    HW261780   0.241  11.216   9.344 -1.4312  0.1725  0.9434
51514SOL     OW61781   8.665   8.215   0.622  0.3942  0.6194 -0.5493
51514SOL    HW161782   8.592   8.175   0.574  0.1943  1.2765 -0.8005
51514SOL    HW261783   8.667   8.306   0.592  0.5683  0.9209  0.3388
51515SOL     OW61784   1.057   7.928   7.181  0.4355  0.6476  0.5839
51515SOL    HW161785   1.013   7.972   7.255  0.5092  1.0288  0.4037
51515SOL    HW261786   1.150   7.932   7.204  0.4333  0.4751  0.6241
51516SOL     OW61787   9.862   1.329  11.572 -0.5568  0.6893  0.4525
51516SOL    HW161788   9.812   1.274  11.632  1.6583 -1.6250  0.3576
51516SOL    HW261789   9.941   1.352  11.621  1.1799 -1.0101 -1.3533
51517SOL     OW61790   2.014   5.551   3.075  0.2058  0.4818 -0.1589
51517SOL    HW161791   1.966   5.634   3.076  2.0304  1.5820  0.3042
51517SOL    HW261792   2.053   5.545   3.162  2.5367  0.6607 -1.1230
51518SOL     OW61793   9.299   4.246   9.047 -0.0956 -0.0773  0.6679
51518SOL    HW161794   9.364   4.305   9.085  0.3464 -0.3044  0.2783
51518SOL    HW261795   9.350   4.183   8.996 -0.7223  1.1160 -1.5722
51519SOL     OW61796   6.167   8.002   0.293 -0.2568 -0.1275  0.7440
51519SOL    HW161797   6.201   7.979   0.380  0.4948 -1.3047  0.1672
51519SOL    HW261798   6.244   8.030   0.244 -0.8644  1.7441  0.8095
51520SOL     OW61799   4.889   6.818   0.826 -0.5002 -0.0714  0.6635
51520SOL    HW161800   4.910   6.782   0.911  2.6016  0.6840  0.3567
51520SOL    HW261801   4.959   6.786   0.768 -1.4205  0.9734 -1.1269
51521SOL     OW61802   9.036  10.527   9.579 -0.8090 -0.4389  0.5195
51521SOL    HW161803   9.090  10.514   9.501  0.1542 -1.3760  1.3008
51521SOL    HW261804   8.992  10.443   9.591 -0.2276 -0.6288  1.4813
51522SOL     OW61805   5.035   0.457   1.550  0.1162 -0.5428  0.6793
51522SOL    HW161806   4.968   0.477   1.484  1.2867  0.1954 -0.3466
51522SOL    HW261807   5.023   0.365   1.570 -0.1900 -0.8180 -0.6933
51523SOL     OW61808   0.123  11.442   4.518  0.8823 -0.6770 -0.7306
51523SOL    HW161809   0.188  11.512   4.518  0.5394 -0.3528 -0.8082
51523SOL    HW261810   0.173  11.362   4.533  0.9405 -0.1177  3.0479
51524SOL     OW61811   2.775   6.192   3.373  0.1839  0.7571 -0.5208
51524SOL    HW161812   2.865   6.160   3.382 -0.4013 -1.6142 -1.9532
51524SOL    HW261813   2.725   6.140   3.436 -0.5675 -0.1008 -1.7706
51525SOL     OW61814  12.021   3.530   2.736  0.4697 -0.2275 -0.4918
51525SOL    HW161815  12.099   3.582   2.717  0.4652  0.3586  0.9628
51525SOL    HW261816  11.960   3.592   2.776  0.1530 -1.1620  0.5332
51526SOL     OW61817  10.151   1.984   8.642  0.3361  0.0506  0.2201
51526SOL    HW161818  10.072   1.987   8.697  0.6139  0.9131  0.6002
51526SOL    HW261819  10.214   2.039   8.689  1.1135 -0.5092 -0.1569
51527SOL     OW61820  11.877   2.078   7.561  0.2039  0.0453  0.2798
51527SOL    HW161821  11.854   2.155   7.509  1.9202  0.6437  0.3476
51527SOL    HW261822  11.806   2.016   7.543  0.4115  0.4337 -2.3171
51528SOL     OW61823   0.575   0.270  10.086 -0.3317  0.6157 -0.5559
51528SOL    HW161824   0.488   0.244  10.055 -0.0354 -0.5641 -0.4312
51528SOL    HW261825   0.589   0.219  10.165 -0.7155  2.9580  1.1442
51529SOL     OW61826  10.992   0.562  10.435  0.5066  0.3648  0.3269
51529SOL    HW161827  11.058   0.543  10.368  1.9458  0.6620  1.6067
51529SOL    HW261828  10.953   0.645  10.407  0.9034  0.3514 -0.2900
51530SOL     OW61829   1.609   0.587   2.856 -0.2649  0.3869 -0.1579
51530SOL    HW161830   1.516   0.581   2.834 -0.4469 -0.9241  0.8931
51530SOL    HW261831   1.646   0.643   2.787 -1.4828 -0.5716 -1.6424
51531SOL     OW61832   8.278   1.479   4.958 -0.9664 -0.4708  0.2699
51531SOL    HW161833   8.214   1.418   4.921  1.7204 -1.1055 -4.0894
51531SOL    HW261834   8.314   1.525   4.882  2.8540  0.6855  2.5133
51532SOL     OW61835   5.402   9.443   5.538  0.6093 -0.0577 -0.0210
51532SOL    HW161836   5.483   9.399   5.564  0.0384  0.7401  3.8377
51532SOL    HW261837   5.334   9.395   5.584 -0.7063  1.2957 -0.4905
51533SOL     OW61838   7.102   3.191   3.399 -0.1210  0.0515 -0.2617
51533SOL    HW161839   7.100   3.209   3.305  0.0014 -1.8209 -0.6723
51533SOL    HW261840   7.010   3.174   3.422  0.0014 -0.8278 -0.3672
51534SOL     OW61841   9.547   2.903  10.069  0.1974 -0.1654 -0.1912
51534SOL    HW161842   9.471   2.944  10.028 -0.2652  0.4351  1.2177
51534SOL    HW261843   9.581   2.970  10.129  1.2885 -0.7544 -0.1313
51535SOL     OW61844   9.627   2.213   6.921 -0.2309  0.1748 -0.2561
51535SOL    HW161845   9.615   2.250   6.833 -1.4506  2.2567  0.7063
51535SOL    HW261846   9.687   2.275   6.964 -0.4003 -0.2955  0.6698
51536SOL     OW61847   6.019   6.866   8.810  0.3993 -0.3677 -0.0817
51536SOL    HW161848   6.087   6.890   8.873  0.6329  0.6068 -0.6888
51536SOL    HW261849   6.058   6.794   8.760  1.2154  0.5231 -0.7721
51537SOL     OW61850  10.760   8.353   2.726 -0.1581 -0.0434 -0.5778
51537SOL    HW161851  10.775   8.271   2.678  1.8289 -0.8446  1.2425
51537SOL    HW261852  10.846   8.392   2.734 -0.2418 -0.2642  2.7575
51538SOL     OW61853  11.085   0.045  12.109 -0.2693  0.0358  0.0442
51538SOL    HW161854  11.051   0.074  12.194  0.2027  3.1922 -0.7272
51538SOL    HW261855  11.176   0.073  12.109 -0.5281  1.0118 -1.8369
51539SOL     OW61856   6.234   7.684   4.060 -0.4000 -0.1653 -0.3505
51539SOL    HW161857   6.263   7.772   4.037 -0.1492 -0.1428  0.0447
51539SOL    HW261858   6.145   7.678   4.025  0.2530 -0.4266 -2.0507
51540SOL     OW61859   0.572   8.305  12.539  0.7462  0.5430 -0.3679
51540SOL    HW161860   0.496   8.309  12.481 -1.0351 -0.0880  1.7931
51540SOL    HW261861   0.609   8.217  12.525 -0.8944 -0.3962  0.8066
51541SOL     OW61862   1.636   0.095   4.216 -0.1853  0.0398  0.2582
51541SOL    HW161863   1.662   0.136   4.299  2.1517 -0.5975 -0.0863
51541SOL    HW261864   1.718   0.065   4.178 -0.9406  1.7488 -3.0953
51542SOL     OW61865   7.771   5.348   4.915 -0.4521  0.2160 -0.2944
51542SOL    HW161866   7.754   5.260   4.882 -0.7565 -0.2533  1.0375
51542SOL    HW261867   7.687   5.377   4.950 -0.7310  1.6571 -2.0294
51543SOL     OW61868   4.993   6.994   3.020  0.2048 -0.4231 -0.0369
51543SOL    HW161869   5.035   6.966   3.101 -0.1488 -0.1077  0.2586
51543SOL    HW261870   4.920   6.932   3.008 -0.1683 -0.0437  0.2598
51544SOL     OW61871  10.527   8.109   0.099 -0.6846  0.0624 -0.2461
51544SOL    HW161872  10.579   8.126   0.177 -0.2963  0.1423 -0.5174
51544SOL    HW261873  10.571   8.036   0.056  0.1570  1.1468 -1.3087
51545SOL     OW61874   8.874   9.642   8.345  0.0971  0.1043 -0.5405
51545SOL    HW161875   8.850   9.728   8.311  0.4619  0.4204 -0.0127
51545SOL    HW261876   8.792   9.608   8.382  0.0995  0.5210 -0.1364
51546SOL     OW61877  12.440  12.036   7.560  0.2342 -0.2600 -0.1076
51546SOL    HW161878  12.481  12.121   7.542 -0.4757  0.1504  0.1765
51546SOL    HW261879  12.369  12.029   7.496  0.2527 -0.6133 -0.0938
51547SOL     OW61880   0.486   5.184   3.865  0.2629  0.0799 -0.1122
51547SOL    HW161881   0.549   5.176   3.793 -0.6763 -0.9842 -0.8566
51547SOL    HW261882   0.421   5.246   3.833  1.2409  1.7159  0.9289
51548SOL     OW61883   8.709  12.447   7.212 -0.1921  0.1111 -0.3057
51548SOL    HW161884   8.733  12.356   7.229  0.3343  0.0793 -1.1706
51548SOL    HW261885   8.633  12.463   7.268 -0.1379 -0.7847  0.0312
51549SOL     OW61886  10.110  10.700   1.059 -0.0086 -0.2850 -0.2430
51549SOL    HW161887  10.203  10.719   1.044 -0.1642 -0.5058 -1.5874
51549SOL    HW261888  10.080  10.771   1.116  0.6696  0.5309 -0.8814
51550SOL     OW61889   7.442   5.045   7.363 -0.1327  0.0103 -0.3435
51550SOL    HW161890   7.486   4.967   7.396 -1.7836 -0.5824  0.5646
51550SOL    HW261891   7.395   5.016   7.285 -0.2193  0.2476 -0.3814
51551SOL     OW61892  12.144  11.801   1.746  0.1609  0.1682  0.3649
51551SOL    HW161893  12.070  11.853   1.714  0.4173 -0.7085 -1.7981
51551SOL    HW261894  12.206  11.866   1.779  0.5008  1.3040 -2.2991
51552SOL     OW61895   2.551   9.577   1.680  0.0461 -0.0457 -0.4618
51552SOL    HW161896   2.591   9.622   1.606  1.4789  1.1782  0.9768
51552SOL    HW261897   2.463   9.554   1.649  0.9673 -0.5918 -2.8907
51553SOL     OW61898  10.934   7.144   8.558 -0.5638 -0.3984  0.0660
51553SOL    HW161899  10.940   7.068   8.500 -1.6682 -0.5405  0.1179
51553SOL    HW261900  10.852   7.187   8.534 -0.6173  0.0215  0.9431
51554SOL     OW61901  11.291  12.367   7.204  0.3906 -0.0699  0.0455
51554SOL    HW161902  11.206  12.344   7.242 -0.2649  1.6688 -0.2725
51554SOL    HW261903  11.280  12.355   7.110 -0.1372  1.8540 -0.1855
51555SOL     OW61904   5.655  11.911   4.281 -0.6167  0.5218  0.2698
51555SOL    HW161905   5.691  11.888   4.196  0.0267  0.5895  0.5223
51555SOL    HW261906   5.570  11.866   4.284 -1.2210  1.5044 -0.9087
51556SOL     OW61907  12.332   6.846   3.189 -0.0213 -0.8361  0.0141
51556SOL    HW161908  12.248   6.865   3.146  0.0947 -0.5132 -0.0734
51556SOL    HW261909  12.325   6.890   3.274 -0.1183 -1.1932  0.1934
51557SOL     OW61910   4.740   0.637  11.182  0.1143 -0.0409 -0.5982
51557SOL    HW161911   4.693   0.611  11.261 -0.4356 -0.9791 -1.2128
51557SOL    HW261912   4.785   0.557  11.154 -0.4755  0.0109 -1.7522
51558SOL     OW61913   1.994   1.073  10.438  0.3742  0.0706  0.0765
51558SOL    HW161914   2.016   1.109  10.524  2.2538  0.9437 -0.7204
51558SOL    HW261915   2.031   0.984  10.440  1.1126  0.3731 -0.1074
51559SOL     OW61916   0.826   7.575   7.315 -0.9195  0.7068 -0.1625
51559SOL    HW161917   0.906   7.523   7.311  0.1535  2.3430 -1.4368
51559SOL    HW261918   0.759   7.514   7.346  0.9967 -0.4572  1.9573
51560SOL     OW61919   1.643  12.533   0.750 -0.2113 -0.2134  0.1154
51560SOL    HW161920   1.627  12.617   0.793  0.4405 -0.1285  0.2036
51560SOL    HW261921   1.564  12.517   0.698  0.2716  1.2053 -1.1264
51561SOL     OW61922   2.404   6.256   0.567 -0.0891 -0.1501  0.0273
51561SOL    HW161923   2.413   6.311   0.488  1.7801  0.9541  0.9421
51561SOL    HW261924   2.494   6.234   0.591 -0.6520 -0.8739  1.5703
51562SOL     OW61925   0.947  10.309  10.234  0.0307 -0.2901  0.4420
51562SOL    HW161926   0.880  10.251  10.199  0.9632 -1.5215  0.6092
51562SOL    HW261927   1.005  10.326  10.160  0.1160 -0.1074  0.5495
51563SOL     OW61928  10.086   5.248   7.418  0.3452  0.2429 -0.1519
51563SOL    HW161929  10.076   5.217   7.509  1.6690 -1.6508 -0.5856
51563SOL    HW261930  10.065   5.341   7.422 -0.4342  0.0401  1.9427
51564SOL     OW61931  10.996   3.539  11.415 -0.0051 -0.0717  0.7838
51564SOL    HW161932  10.908   3.543  11.378  0.4225  0.0925 -0.2570
51564SOL    HW261933  10.983   3.547  11.510 -1.2097 -1.6033  0.7780
51565SOL     OW61934   9.760   4.107  11.073  0.3863 -0.0809 -0.2356
51565SOL    HW161935   9.736   4.111  11.165 -2.1145  0.6452 -0.8525
51565SOL    HW261936   9.824   4.178  11.062  0.0573  0.3818  0.7480
51566SOL     OW61937   0.357   6.260  11.644 -0.0489  0.4639  0.0631
51566SOL    HW161938   0.426   6.280  11.580  1.2881 -0.8128  1.0397
51566SOL    HW261939   0.297   6.334  11.637  0.2023  0.5396 -2.4152
51567SOL     OW61940  12.130   7.125   9.733 -0.0975 -0.1184 -0.6466
51567SOL    HW161941  12.072   7.134   9.657 -1.4483 -1.1186  0.2163
51567SOL    HW261942  12.111   7.202   9.787 -1.7916 -1.1622  0.3421
51568SOL     OW61943   4.542   5.386  10.624 -0.5930  0.9381 -0.1458
51568SOL    HW161944   4.614   5.334  10.660  0.6897 -0.2495 -3.9371
51568SOL    HW261945   4.466   5.327  10.626 -0.0957  0.2525 -0.9230
51569SOL     OW61946  12.186  10.972   7.710 -0.4374  0.1706  0.4218
51569SOL    HW161947  12.253  11.041   7.707 -0.7894  0.4944 -0.6098
51569SOL    HW261948  12.131  10.990   7.633 -1.2683 -0.5297  0.8466
51570SOL     OW61949   4.172   7.281   3.053 -0.4736 -0.0738  0.0310
51570SOL    HW161950   4.224   7.351   3.092 -1.9557  0.5761  0.9109
51570SOL    HW261951   4.198   7.281   2.960  1.4286 -0.1253  0.5175
51571SOL     OW61952   2.434   9.090   4.368  0.3470  0.6307  0.5121
51571SOL    HW161953   2.416   9.160   4.305 -1.5413 -0.3606 -0.1490
51571SOL    HW261954   2.498   9.127   4.429  1.0600  2.1417 -1.0987
51572SOL     OW61955   6.662   9.781   6.921  0.2559 -0.1053  0.1284
51572SOL    HW161956   6.578   9.755   6.881  0.1787 -0.5645  0.5668
51572SOL    HW261957   6.653   9.875   6.937  0.3995  0.1419 -1.1811
51573SOL     OW61958  11.384   5.837   1.524  0.1003  0.5024  0.5244
51573SOL    HW161959  11.375   5.883   1.607 -1.4942  2.3357 -0.5728
51573SOL    HW261960  11.331   5.757   1.535 -0.4019  0.9156  1.1517
51574SOL     OW61961   8.661  12.250   0.812 -0.1228  0.1663  0.0501
51574SOL    HW161962   8.619  12.238   0.897  0.5728 -1.9093  0.1732
51574SOL    HW261963   8.690  12.341   0.812 -0.7700  0.4084  1.7307
51575SOL     OW61964   3.676   7.248   5.820 -0.1944 -0.4712  0.1179
51575SOL    HW161965   3.730   7.175   5.851  0.0678 -0.7924 -1.0135
51575SOL    HW261966   3.624   7.210   5.749 -0.3407  0.3564 -0.2289
51576SOL     OW61967   1.238  10.458  10.052  0.0178  0.1462  0.1000
51576SOL    HW161968   1.247  10.507  10.134  0.9905  0.5149 -0.2112
51576SOL    HW261969   1.322  10.413  10.042 -0.9307 -1.8056  0.4897
51577SOL     OW61970   7.984   9.998   2.617 -0.1467  0.1508 -0.3038
51577SOL    HW161971   7.978  10.078   2.565 -0.7200 -0.4057 -1.1170
51577SOL    HW261972   8.043   9.942   2.567 -0.4891 -0.2880 -0.2186
51578SOL     OW61973   9.252   9.468  11.507 -0.2967 -0.1142  0.0726
51578SOL    HW161974   9.298   9.546  11.475  0.5055 -0.3350  0.6714
51578SOL    HW261975   9.243   9.482  11.601  2.3323 -1.9227  0.7206
51579SOL     OW61976  10.758   6.640   1.084 -0.4193  0.1474  0.1843
51579SOL    HW161977  10.698   6.714   1.078 -0.3589  0.3882  2.0327
51579SOL    HW261978  10.841   6.674   1.051 -0.5342  0.7208  0.4761
51580SOL     OW61979   7.151   5.574  12.411  0.5457 -0.5421  0.2395
51580SOL    HW161980   7.095   5.641  12.448  1.7738  1.1788 -0.8615
51580SOL    HW261981   7.194   5.534  12.487  0.9352  0.9902  0.8658
51581SOL     OW61982   8.982   6.682   2.296 -0.3509 -0.0660  0.2136
51581SOL    HW161983   8.947   6.689   2.385 -0.6831  0.1830  0.0669
51581SOL    HW261984   8.986   6.588   2.280  2.2505 -0.2607  1.4671
51582SOL     OW61985   9.924  10.347   9.852  0.2727 -0.1801  0.2292
51582SOL    HW161986   9.899  10.428   9.807 -0.8654 -0.5853  0.1111
51582SOL    HW261987  10.013  10.364   9.883 -1.0260  2.4395  3.1370
51583SOL     OW61988   1.701  11.330   7.438  0.3917  0.1333 -0.1401
51583SOL    HW161989   1.708  11.241   7.406  0.1579  0.1548 -0.2526
51583SOL    HW261990   1.769  11.337   7.506 -2.3011 -1.4901  3.0217
51584SOL     OW61991   4.600  10.980  11.771  0.6455  0.5311  0.2580
51584SOL    HW161992   4.508  10.988  11.797  0.6994  1.3800  0.2147
51584SOL    HW261993   4.647  10.967  11.853  0.5003  0.1948  0.2900
51585SOL     OW61994   1.511   4.255  11.437 -0.1240  0.3432  0.0709
51585SOL    HW161995   1.560   4.315  11.494  0.5495  0.2942 -0.4425
51585SOL    HW261996   1.576   4.221  11.376 -0.8138  0.3416 -0.6884
51586SOL     OW61997   6.073   6.097   5.864  0.1483 -0.2932  0.7314
51586SOL    HW161998   6.021   6.158   5.916  0.0246 -0.1640  0.4613
51586SOL    HW261999   6.162   6.133   5.867  0.5356 -1.3146  2.4084
51587SOL     OW62000   5.984   7.164   2.053  0.4033  0.1933  0.1772
51587SOL    HW162001   5.979   7.259   2.041  0.9520 -0.0324 -2.4511
51587SOL    HW262002   5.928   7.128   1.983  2.0001 -1.4218 -0.3617
51588SOL     OW62003  12.316  11.541   0.663  0.6168 -0.4624  0.2866
51588SOL    HW162004  12.251  11.561   0.731  0.2718  0.1971 -0.2244
51588SOL    HW262005  12.367  11.622   0.655 -1.7921  0.9671 -2.9132
51589SOL     OW62006   4.727   2.734   0.425  0.1360  0.5869 -0.7345
51589SOL    HW162007   4.780   2.771   0.355 -0.0260  0.1022 -1.1198
51589SOL    HW262008   4.713   2.643   0.399  2.3377 -0.4216  1.2270
51590SOL     OW62009   8.140   5.033   8.065 -0.1888  0.1907 -0.0129
51590SOL    HW162010   8.186   5.079   7.995 -1.0409 -0.9406 -1.3818
51590SOL    HW262011   8.104   5.102   8.120  0.3642  1.1225 -0.7910
51591SOL     OW62012   6.851   6.195   4.653  0.2094 -1.0519  0.7660
51591SOL    HW162013   6.879   6.114   4.697 -0.3958 -1.7582 -0.1100
51591SOL    HW262014   6.924   6.256   4.667  0.6115 -1.6925  1.5727
51592SOL     OW62015   3.051   9.182  12.494  0.1715 -0.2584  0.4428
51592SOL    HW162016   3.054   9.270  12.457 -0.9877  0.8042  2.6526
51592SOL    HW262017   3.139   9.167  12.528  0.2036  0.3304  0.6327
51593SOL     OW62018   9.442   9.424   9.707  0.2983  0.5379  0.1894
51593SOL    HW162019   9.449   9.350   9.646  1.4011  0.7602  0.0204
51593SOL    HW262020   9.379   9.483   9.666  1.3460  0.8938 -0.9809
51594SOL     OW62021   2.980   7.518   0.250  0.3166  0.5063  0.3970
51594SOL    HW162022   2.917   7.588   0.265 -1.1118 -0.6993  0.2412
51594SOL    HW262023   2.930   7.449   0.205  1.0172 -1.5505  2.5440
51595SOL     OW62024   4.777   1.969   6.893  0.0165  0.1433  0.6244
51595SOL    HW162025   4.801   1.884   6.856  0.7224  0.0115  1.3597
51595SOL    HW262026   4.694   1.991   6.851  1.0358  0.2731 -1.4735
51596SOL     OW62027   6.272   7.381   2.968 -0.2407 -0.8103  0.2457
51596SOL    HW162028   6.257   7.292   3.000 -2.6456 -0.7778 -0.5665
51596SOL    HW262029   6.189   7.426   2.984  0.9730  1.3737  0.7830
51597SOL     OW62030   8.961   8.045   6.839  0.1710 -0.0918  0.3616
51597SOL    HW162031   8.981   7.987   6.912 -0.8867 -2.5077 -1.1431
51597SOL    HW262032   9.014   8.012   6.767 -0.2024  1.0433 -0.4572
51598SOL     OW62033  10.057  11.818   0.274 -0.9468  0.3854 -0.3872
51598SOL    HW162034  10.074  11.835   0.181  0.7130  1.1066  0.0188
51598SOL    HW262035  10.003  11.892   0.302  0.4194  1.3783 -0.2802
51599SOL     OW62036   1.564   0.613   5.736 -0.5277 -1.1234  0.1062
51599SOL    HW162037   1.497   0.593   5.802 -1.7915 -0.6005 -0.9645
51599SOL    HW262038   1.516   0.616   5.653  0.4706  1.1159 -0.4766
51600SOL     OW62039   0.440   7.872   3.870  0.4239  0.5002 -0.8013
51600SOL    HW162040   0.480   7.849   3.953 -1.4840  1.5823  0.4887
51600SOL    HW262041   0.436   7.968   3.870 -0.3626  0.4964 -1.7418
51601SOL     OW62042   2.437   3.280   3.479 -0.3266  0.4313 -0.0259
51601SOL    HW162043   2.405   3.195   3.511  0.2657  0.7825  1.5984
51601SOL    HW262044   2.476   3.260   3.394  0.2777 -1.0346  0.5527
51602SOL     OW62045   8.786   4.785   9.565  0.0529 -0.0221 -0.7622
51602SOL    HW162046   8.814   4.798   9.475  1.2954  1.2866 -0.2411
51602SOL    HW262047   8.778   4.874   9.600 -0.5724 -0.5060  0.3586
51603SOL     OW62048  12.560   1.625   6.504  0.7376  0.3262  0.2358
51603SOL    HW162049  12.635   1.661   6.457  0.8259 -2.8773 -2.3955
51603SOL    HW262050  12.592   1.608   6.592  1.8885  2.5249  0.3061
51604SOL     OW62051   5.774   5.408   7.489 -0.0727 -0.7364 -0.8956
51604SOL    HW162052   5.827   5.355   7.548 -0.3250  1.1228  1.1093
51604SOL    HW262053   5.710   5.347   7.452  0.8206 -2.1678 -0.1415
51605SOL     OW62054   6.928  11.198   2.679  0.4637 -0.5360 -0.0316
51605SOL    HW162055   6.897  11.187   2.589  2.2113 -1.4347 -0.5665
51605SOL    HW262056   6.916  11.113   2.720  1.2500 -0.6120  0.0558
51606SOL     OW62057   5.144   4.037   7.026 -0.5275  0.3103 -0.0902
51606SOL    HW162058   5.212   3.971   7.040  0.1650  0.7557 -1.2128
51606SOL    HW262059   5.094   4.037   7.107  0.4060 -0.5006  0.5129
51607SOL     OW62060   1.529   1.678  11.968  0.4114 -0.1519 -0.4033
51607SOL    HW162061   1.568   1.594  11.941 -0.3574  0.2171 -2.9687
51607SOL    HW262062   1.600   1.741  11.958  0.3021 -0.1206 -1.0756
51608SOL     OW62063   8.033   0.919   1.905  0.1235  0.3400  0.2062
51608SOL    HW162064   8.087   0.840   1.909  1.6753  1.3571  0.2500
51608SOL    HW262065   7.960   0.896   1.847  0.5489 -1.1073  0.2091
51609SOL     OW62066   8.418   3.565   4.726  0.3495  0.6171 -0.5938
51609SOL    HW162067   8.326   3.560   4.751 -0.0025  0.2006 -1.9021
51609SOL    HW262068   8.454   3.480   4.751  0.0958  0.3500 -1.1211
51610SOL     OW62069   1.052   0.835   6.086  0.0657 -0.0325  0.5667
51610SOL    HW162070   1.020   0.745   6.093 -0.5209  0.1015 -0.2891
51610SOL    HW262071   1.124   0.840   6.150 -0.5471 -0.8099  1.3316
51611SOL     OW62072  11.351   2.549  10.054 -0.1852  0.5470 -0.0467
51611SOL    HW162073  11.321   2.612   9.988  0.8362  1.0718 -0.0197
51611SOL    HW262074  11.428   2.508  10.015 -1.9539 -2.1977 -0.9421
51612SOL     OW62075   8.907   2.713   7.329 -0.2111  0.2601  0.4779
51612SOL    HW162076   8.950   2.702   7.244  1.5086  0.4124  1.3021
51612SOL    HW262077   8.935   2.638   7.381 -1.1457  0.2398  0.9719
51613SOL     OW62078  11.805   9.610  10.378 -0.2077  0.1747  0.1406
51613SOL    HW162079  11.876   9.557  10.340  0.2500  0.8120  0.0905
51613SOL    HW262080  11.850   9.684  10.419 -0.7995  0.1837  0.7705
51614SOL     OW62081   5.929  11.958   2.214 -0.1617  0.8622 -0.0550
51614SOL    HW162082   5.957  11.964   2.306  3.6393 -0.9127 -0.9127
51614SOL    HW262083   5.956  12.041   2.176  0.3578  0.7304  0.0056
51615SOL     OW62084   3.944   7.657   6.144  0.2213 -0.1770  0.4381
51615SOL    HW162085   3.981   7.604   6.215  1.6507  1.8299  1.2848
51615SOL    HW262086   3.854   7.673   6.172 -0.2414 -2.0821  0.1648
51616SOL     OW62087   0.506  11.066   3.339 -0.2619 -0.1676  0.3491
51616SOL    HW162088   0.498  11.050   3.245  0.9044 -0.3665  0.2718
51616SOL    HW262089   0.486  10.982   3.380 -2.1472  0.2524  0.3751
51617SOL     OW62090   7.712   4.003   1.620  0.0986  0.4696 -0.2187
51617SOL    HW162091   7.757   3.977   1.540  1.0816 -0.9961  0.7740
51617SOL    HW262092   7.647   4.067   1.591  1.6477  1.3566 -1.9399
51618SOL     OW62093   8.152  11.502   5.252 -0.5263  0.1837  0.0568
51618SOL    HW162094   8.202  11.464   5.180  0.4755  3.1404 -0.9869
51618SOL    HW262095   8.163  11.441   5.324  0.6127 -1.6116 -1.5417
51619SOL     OW62096   6.205   3.016   8.610 -0.2441  0.1987 -0.3002
51619SOL    HW162097   6.301   3.016   8.609 -0.2450  0.7466 -0.8234
51619SOL    HW262098   6.180   3.072   8.536 -0.9652  0.9927  0.5193
51620SOL     OW62099   7.708   7.363   8.811 -0.5376 -0.2174 -0.2267
51620SOL    HW162100   7.677   7.451   8.791 -0.6620 -0.4741 -1.2771
51620SOL    HW262101   7.759   7.372   8.891 -0.5598  0.8017 -0.3196
51621SOL     OW62102  10.816   5.513  10.938 -0.1069 -0.3627  0.5479
51621SOL    HW162103  10.776   5.594  10.968  0.6620  0.7867 -1.3593
51621SOL    HW262104  10.872   5.485  11.010  1.4065  2.0948  0.4559
51622SOL     OW62105   2.637   8.970  12.432 -0.2547  0.3494 -0.2873
51622SOL    HW162106   2.680   9.021  12.500 -0.3531 -0.7032  0.5887
51622SOL    HW262107   2.642   9.025  12.353  2.9804  0.1605 -0.3450
51623SOL     OW62108  12.304   4.365   2.128 -0.7742  0.2970 -0.6351
51623SOL    HW162109  12.271   4.289   2.081  0.3022  1.4138 -3.4498
51623SOL    HW262110  12.255   4.439   2.092 -0.1293  1.1932  0.2516
51624SOL     OW62111   4.669   0.096   5.333 -0.5039  0.3107  0.3555
51624SOL    HW162112   4.702   0.016   5.374 -0.2333  1.5593  2.7709
51624SOL    HW262113   4.727   0.110   5.258  0.9003 -0.5684  1.2192
51625SOL     OW62114   6.875  11.492  12.123 -0.1894  0.6399  0.0081
51625SOL    HW162115   6.855  11.398  12.115  2.4807  0.0183 -0.3697
51625SOL    HW262116   6.902  11.503  12.214 -1.5657  1.3373  0.3659
51626SOL     OW62117   0.704   2.376  11.971 -0.6801 -0.6946  0.3176
51626SOL    HW162118   0.630   2.372  12.031 -1.8449  1.0471 -0.8790
51626SOL    HW262119   0.666   2.409  11.889  1.0515 -1.8028 -1.0200
51627SOL     OW62120   7.875  10.418   9.124  0.5486  0.2903 -0.7657
51627SOL    HW162121   7.848  10.504   9.091  0.0536  0.2062 -0.5843
51627SOL    HW262122   7.865  10.425   9.219 -1.7937 -0.7096 -0.8772
51628SOL     OW62123   0.398   8.280   2.737  0.1884  0.1972 -0.2395
51628SOL    HW162124   0.465   8.318   2.680  0.3020 -0.1600 -0.3418
51628SOL    HW262125   0.446   8.221   2.795 -0.2606 -1.5937 -1.6060
51629SOL     OW62126   1.606   1.364   8.880  0.4155  0.1129 -0.0214
51629SOL    HW162127   1.644   1.437   8.929 -0.8137 -0.1297  1.3581
51629SOL    HW262128   1.543   1.406   8.820  2.1085  0.4331 -1.6694
51630SOL     OW62129   8.167   0.297   7.604 -0.0124  0.0248 -0.1082
51630SOL    HW162130   8.146   0.388   7.627 -0.8996 -0.0716 -0.5066
51630SOL    HW262131   8.106   0.245   7.656  1.2580 -0.4112  0.9944
51631SOL     OW62132   3.822   1.626   6.183 -0.3070 -0.2635 -0.4533
51631SOL    HW162133   3.768   1.597   6.256 -0.2877  0.9940  0.0936
51631SOL    HW262134   3.788   1.713   6.161  0.0367 -0.4026 -1.5890
51632SOL     OW62135   8.655   8.496   1.065 -0.2001 -0.4022  1.0312
51632SOL    HW162136   8.670   8.433   1.135 -0.2381 -0.9517  0.5507
51632SOL    HW262137   8.684   8.452   0.985 -0.7904 -0.0478  0.6040
51633SOL     OW62138   4.256   9.555   0.772  0.2149  0.2420 -0.1386
51633SOL    HW162139   4.197   9.602   0.830  0.9331 -1.1934  1.9097
51633SOL    HW262140   4.199   9.499   0.720 -0.5922  2.8150 -2.2047
51634SOL     OW62141  12.526   2.299   1.724 -0.1628 -0.4047 -0.6214
51634SOL    HW162142  12.510   2.266   1.635  0.4173 -0.3499 -0.7481
51634SOL    HW262143  12.576   2.230   1.766  0.9711  0.2536 -0.8561
51635SOL     OW62144  10.271   3.743   8.043  0.2700  0.1934  0.5108
51635SOL    HW162145  10.352   3.790   8.027 -0.1305  0.5007 -0.6768
51635SOL    HW262146  10.296   3.650   8.046  0.8454  0.3698  1.4732
51636SOL     OW62147   9.934   7.066  12.662 -0.1129 -0.2068 -0.4102
51636SOL    HW162148   9.858   7.059  12.605 -1.8133  0.4366  1.6242
51636SOL    HW262149   9.899   7.058  12.751  2.0433  1.1484  0.6746
51637SOL     OW62150  11.606   6.713   9.634 -0.2998  0.4794 -0.3022
51637SOL    HW162151  11.534   6.701   9.696 -1.2444 -0.9975 -1.6277
51637SOL    HW262152  11.564   6.723   9.549  0.9635  2.8151 -0.7250
51638SOL     OW62153   2.188   7.281   2.635 -0.1637 -0.1547  0.6495
51638SOL    HW162154   2.147   7.256   2.551 -0.9177  0.4559  0.8191
51638SOL    HW262155   2.219   7.370   2.620  0.1820 -0.2413  0.8567
51639SOL     OW62156  12.079   6.584   2.870 -0.7833  0.4433  0.3841
51639SOL    HW162157  12.135   6.524   2.822 -1.2632  1.3466 -1.4170
51639SOL    HW262158  12.087   6.558   2.962  1.7320 -0.1000  0.0626
51640SOL     OW62159   8.171   8.423   4.057  0.2837 -0.5519 -0.4133
51640SOL    HW162160   8.085   8.428   4.015 -0.5729 -1.4804  1.1144
51640SOL    HW262161   8.186   8.329   4.070  1.3428 -0.3762 -0.2867
51641SOL     OW62162  12.026   2.180   8.445  0.3738  0.3069 -0.0848
51641SOL    HW162163  12.108   2.185   8.493  1.0610 -0.6855 -1.0819
51641SOL    HW262164  12.045   2.223   8.361  0.2152 -0.7842 -0.7122
51642SOL     OW62165   8.471   7.093  12.034  0.0867  0.1577 -0.3594
51642SOL    HW162166   8.386   7.131  12.011  0.0726 -0.6009 -1.5940
51642SOL    HW262167   8.535   7.158  12.006  0.0106 -0.2269 -1.4409
51643SOL     OW62168   6.314  10.398   5.251 -0.3395  0.2645  0.2491
51643SOL    HW162169   6.230  10.365   5.219 -0.9125  1.1712  0.7897
51643SOL    HW262170   6.375  10.326   5.234 -0.3256  1.0019 -3.8581
51644SOL     OW62171   2.223   5.063  12.148  0.5553  0.6558  0.0649
51644SOL    HW162172   2.194   5.029  12.064  1.7657 -1.5599  0.4649
51644SOL    HW262173   2.176   5.146  12.158 -2.6939 -0.8886 -0.9616
51645SOL     OW62174  10.676   8.233   6.332  0.6998 -0.0595  0.0397
51645SOL    HW162175  10.666   8.288   6.254 -1.2659  0.3091  0.4859
51645SOL    HW262176  10.680   8.295   6.405  0.0748 -0.4398  0.4126
51646SOL     OW62177   5.756   1.853   7.093 -0.9828  0.1716  1.0351
51646SOL    HW162178   5.786   1.878   7.005  1.3968 -2.1478  1.0576
51646SOL    HW262179   5.788   1.923   7.150  1.3869 -0.4354  0.5439
51647SOL     OW62180   9.157   4.583   3.057 -0.4388  0.0401  0.5804
51647SOL    HW162181   9.200   4.635   2.988  1.1481 -0.5216  1.1240
51647SOL    HW262182   9.203   4.500   3.057  1.0760  0.7472  3.7441
51648SOL     OW62183   9.130   3.542   9.213 -0.5454  0.7330  0.7184
51648SOL    HW162184   9.076   3.464   9.205  1.5457 -0.7835  0.5015
51648SOL    HW262185   9.118   3.570   9.304  0.8009 -1.5710  1.6940
51649SOL     OW62186   7.573   2.007   2.822 -1.0129  0.2812 -0.5408
51649SOL    HW162187   7.567   1.911   2.817  1.4669  0.1247 -1.5746
51649SOL    HW262188   7.599   2.034   2.735 -3.9769  2.2187 -0.9889
51650SOL     OW62189   5.970   3.456   3.343 -0.1865  0.4650  0.7099
51650SOL    HW162190   5.968   3.552   3.348  0.5732  0.6427 -1.4736
51650SOL    HW262191   5.953   3.436   3.251  3.1652 -1.2798  0.3017
51651SOL     OW62192   1.816   5.244   0.238 -0.0686 -0.0182  0.1079
51651SOL    HW162193   1.829   5.254   0.143 -0.1576 -0.7241  0.0174
51651SOL    HW262194   1.721   5.239   0.249 -0.0593  0.0904  0.2354
51652SOL     OW62195   7.291   1.384   1.590  0.3337 -0.1624 -0.5910
51652SOL    HW162196   7.297   1.357   1.682 -0.6785 -1.2515 -0.8203
51652SOL    HW262197   7.362   1.448   1.579  0.1908  0.3150  1.0477
51653SOL     OW62198  10.275   9.746   0.337  0.2050 -0.5550  0.2960
51653SOL    HW162199  10.254   9.654   0.319 -0.6670 -0.3312  0.1524
51653SOL    HW262200  10.370   9.751   0.322  0.0920 -1.1817 -0.7734
51654SOL     OW62201  12.227   3.664  10.604 -0.1443 -0.3076  0.1518
51654SOL    HW162202  12.141   3.654  10.645  0.0279  1.2703  1.0035
51654SOL    HW262203  12.215   3.737  10.542  0.4083 -0.5414 -0.2388
51655SOL     OW62204   8.296   0.945  11.845  0.0965  0.0529  0.3082
51655SOL    HW162205   8.365   0.906  11.792  0.8999  1.3853  0.3310
51655SOL    HW262206   8.222   0.885  11.836  0.4956 -0.2099 -1.6254
51656SOL     OW62207   2.178   5.304  12.049 -0.1831  0.2799  0.0579
51656SOL    HW162208   2.230   5.256  11.984 -1.8622  0.8743 -1.8383
51656SOL    HW262209   2.221   5.389  12.056 -0.5969  0.6132 -1.1662
51657SOL     OW62210   9.356   3.119   5.430 -0.0653  0.1464 -0.0672
51657SOL    HW162211   9.403   3.045   5.391  0.1103  0.2274 -0.0112
51657SOL    HW262212   9.420   3.191   5.429 -0.0813  0.1644  0.3141
51658SOL     OW62213   1.210   2.686   6.956 -0.0530  0.4421 -0.1587
51658SOL    HW162214   1.118   2.667   6.938  0.3145 -2.6028  0.6138
51658SOL    HW262215   1.252   2.685   6.869 -0.3631 -0.8416 -0.3159
51659SOL     OW62216   7.513  12.285   4.205 -0.1242  0.2963 -0.2593
51659SOL    HW162217   7.474  12.366   4.172 -0.6842 -0.3655 -1.2682
51659SOL    HW262218   7.525  12.230   4.128  1.3383 -0.1542  0.2507
51660SOL     OW62219  10.938  11.575   6.145 -0.0927  0.2413  0.9148
51660SOL    HW162220  10.928  11.643   6.212  0.3118  2.4258 -1.1137
51660SOL    HW262221  11.031  11.579   6.120 -0.1829 -0.7031  0.3807
51661SOL     OW62222   2.045   1.496   7.226 -0.1570  0.9315 -0.5470
51661SOL    HW162223   2.099   1.438   7.279 -1.3557 -0.1653 -0.4894
51661SOL    HW262224   2.104   1.528   7.157  0.9429  0.9741  0.3950
51662SOL     OW62225  11.630   7.903   6.989  0.2111 -0.5854 -0.7290
51662SOL    HW162226  11.627   7.862   6.903 -0.4649 -1.5120 -0.2912
51662SOL    HW262227  11.538   7.925   7.008  0.4891  0.5719 -0.6843
51663SOL     OW62228   1.780   4.983   0.040 -0.2730  0.2416  0.2510
51663SOL    HW162229   1.779   5.026   0.125 -0.9250 -0.2958  0.5203
51663SOL    HW262230   1.873   4.977   0.017 -0.0786  0.1899  1.0276
51664SOL     OW62231   2.436   5.503  10.722  0.1865 -0.2993 -0.3482
51664SOL    HW162232   2.408   5.549  10.644  1.6168 -0.3481 -0.9226
51664SOL    HW262233   2.530   5.521  10.728  0.5448 -2.1354  0.0826
51665SOL     OW62234   9.942   2.006   6.340  0.2457 -0.7020 -0.5098
51665SOL    HW162235   9.919   2.083   6.288 -2.2826 -0.8599  0.2264
51665SOL    HW262236  10.038   2.001   6.335  0.4310  2.0067 -1.2090
51666SOL     OW62237   8.642   1.866   1.421  0.1598  0.3323 -0.2600
51666SOL    HW162238   8.724   1.915   1.419 -0.2834  1.0841 -0.4325
51666SOL    HW262239   8.575   1.932   1.402 -0.4860 -0.2613 -0.0543
51667SOL     OW62240   7.525   3.886   1.190  0.1473 -0.2262  0.7123
51667SOL    HW162241   7.498   3.879   1.098  2.0400  0.5701  0.0516
51667SOL    HW262242   7.469   3.824   1.236 -1.4040 -0.0682 -0.8425
51668SOL     OW62243   5.613   4.662  10.205 -0.1653  0.2818  0.5539
51668SOL    HW162244   5.583   4.630  10.120  1.4278 -0.9697  0.4133
51668SOL    HW262245   5.672   4.734  10.184  2.9837 -2.1815  0.2661
51669SOL     OW62246  12.193   1.652   0.397 -0.1921  0.1002 -0.5979
51669SOL    HW162247  12.184   1.559   0.419 -1.3457 -0.1703 -2.0866
51669SOL    HW262248  12.287   1.665   0.383 -0.0244 -0.8279 -0.3857
51670SOL     OW62249   8.395   3.811   5.184 -0.2553 -0.3220 -0.0904
51670SOL    HW162250   8.304   3.782   5.183  0.3151 -2.2887  0.2134
51670SOL    HW262251   8.439   3.753   5.121  0.7696  0.7014 -0.3602
51671SOL     OW62252   7.804  11.399  11.123  0.1576 -0.2786  0.1039
51671SOL    HW162253   7.890  11.439  11.120 -0.7465  2.0160  1.6332
51671SOL    HW262254   7.780  11.385  11.032  1.8042 -0.2420 -0.3656
51672SOL     OW62255   6.980   3.829   0.441  0.1012 -0.2029 -0.2283
51672SOL    HW162256   6.944   3.789   0.362 -2.8635  2.6209 -0.4732
51672SOL    HW262257   7.054   3.881   0.410 -0.5077  0.1933 -1.0486
51673SOL     OW62258  10.946   8.599   8.307 -0.0164 -0.8971  0.0775
51673SOL    HW162259  10.860   8.638   8.297  0.9767  1.6020  0.4267
51673SOL    HW262260  11.007   8.670   8.287  1.9823 -2.5454 -0.1041
51674SOL     OW62261  11.967   6.635   9.406  0.5368  0.1228 -0.2264
51674SOL    HW162262  11.934   6.723   9.393  0.0646 -0.1847 -1.2308
51674SOL    HW262263  12.025   6.641   9.482 -0.0820  1.1336  0.1721
51675SOL     OW62264   5.828   0.009   0.746  0.1323  0.0240  0.0428
51675SOL    HW162265   5.821   0.052   0.661  0.9808  0.7140  0.3112
51675SOL    HW262266   5.922   0.002   0.762  0.0327  1.8332  1.8623
51676SOL     OW62267   2.986   8.351   9.101  0.0961  0.6033  0.2268
51676SOL    HW162268   2.981   8.311   9.188  0.5969 -0.7107 -0.3252
51676SOL    HW262269   3.073   8.392   9.098  1.0748 -1.4096 -0.4750
51677SOL     OW62270   2.588   7.227   2.382 -0.0840  0.0132 -0.1804
51677SOL    HW162271   2.544   7.165   2.440  0.2821  1.4550  1.7348
51677SOL    HW262272   2.659   7.177   2.342  1.3172 -0.4479  2.6461
51678SOL     OW62273   6.829   6.250   0.036  0.1119  0.0456  0.4005
51678SOL    HW162274   6.889   6.248  -0.038 -2.4265  1.2593 -1.8619
51678SOL    HW262275   6.870   6.310   0.098  0.7030  1.8983 -1.6446
51679SOL     OW62276   6.378   5.474   8.130 -0.7637 -0.4453 -0.2483
51679SOL    HW162277   6.341   5.546   8.079 -0.2855 -0.1919 -0.2496
51679SOL    HW262278   6.473   5.488   8.124 -0.7175 -0.0582  1.2317
51680SOL     OW62279  11.879   5.645   7.666 -0.2193 -0.2708 -0.3672
51680SOL    HW162280  11.901   5.698   7.590 -0.3117 -1.8014 -1.5159
51680SOL    HW262281  11.854   5.560   7.629 -2.2967 -0.4362  1.2316
51681SOL     OW62282   4.165   0.678   9.838 -0.3188 -0.3350  0.4606
51681SOL    HW162283   4.202   0.763   9.861  0.3972  0.5383 -3.1900
51681SOL    HW262284   4.241   0.622   9.822 -0.6768 -0.5827 -0.4736
51682SOL     OW62285  12.484   1.450   9.813 -0.8362 -0.4238  0.3787
51682SOL    HW162286  12.416   1.498   9.765 -0.2412 -1.7146 -1.8816
51682SOL    HW262287  12.458   1.358   9.806 -2.2741 -0.6445  5.1138
51683SOL     OW62288   7.319   3.389   0.781  0.0250  0.0344 -0.1557
51683SOL    HW162289   7.311   3.394   0.877  0.2572 -0.7336 -0.0922
51683SOL    HW262290   7.278   3.306   0.758 -0.0541  0.2298 -0.7337
51684SOL     OW62291   0.731   6.215  12.539  0.4859  0.4722  0.0022
51684SOL    HW162292   0.734   6.294  12.485 -2.0340  0.2585 -0.5808
51684SOL    HW262293   0.663   6.233  12.604  1.2067 -0.5164  1.0458
51685SOL     OW62294  10.574   6.345   4.903  0.1434  0.3584  0.1388
51685SOL    HW162295  10.541   6.435   4.907  0.9975  0.6979 -0.1853
51685SOL    HW262296  10.506   6.293   4.945 -0.1056  1.2261  0.8577
51686SOL     OW62297   4.985  11.987  10.682 -0.0311  0.0199  0.2004
51686SOL    HW162298   4.895  11.964  10.706  0.0743  0.4812  1.1129
51686SOL    HW262299   4.981  12.005  10.588 -0.6422 -1.0833 -0.0043
51687SOL     OW62300   7.331   2.261  10.869  0.2713 -0.5282  0.1673
51687SOL    HW162301   7.289   2.309  10.940 -0.2464  0.9655 -1.1046
51687SOL    HW262302   7.424   2.262  10.890  0.4219  2.0573 -0.3694
51688SOL     OW62303  11.757  12.050  10.853  0.0751  0.2754  0.2691
51688SOL    HW162304  11.828  11.988  10.870 -0.5509 -0.2267  1.1461
51688SOL    HW262305  11.730  12.080  10.940 -0.8780  0.3462 -0.0360
51689SOL     OW62306   2.311   9.242   4.976  0.4644  0.2491 -0.5241
51689SOL    HW162307   2.276   9.326   4.948 -0.1606  1.0786  2.3971
51689SOL    HW262308   2.241   9.179   4.958  1.0168  0.2222 -2.9250
51690SOL     OW62309   5.940   9.794   3.476  0.3714 -0.6648 -0.0743
51690SOL    HW162310   5.853   9.832   3.484  0.1903 -1.3943  2.0385
51690SOL    HW262311   5.939   9.748   3.392 -0.5770  0.9328 -0.9979
51691SOL     OW62312   1.828  10.556   7.864 -1.1334  0.1283  0.1182
51691SOL    HW162313   1.832  10.536   7.958  1.9038 -2.0468 -0.3085
51691SOL    HW262314   1.911  10.523   7.830 -2.2013  0.7362 -3.4020
51692SOL     OW62315  11.706   3.982   6.209  0.5935 -0.4909 -0.2763
51692SOL    HW162316  11.791   4.025   6.214  1.1260 -1.5826  0.7135
51692SOL    HW262317  11.710   3.913   6.276 -1.6680  0.4753  0.9701
51693SOL     OW62318   7.203   0.882   7.786  0.3853 -0.1466  0.1639
51693SOL    HW162319   7.278   0.877   7.727  0.8037  0.3789  0.6439
51693SOL    HW262320   7.239   0.909   7.870 -0.5371  2.1570 -0.0845
51694SOL     OW62321   0.629  10.815  11.189 -0.3227  0.3435 -0.0115
51694SOL    HW162322   0.612  10.809  11.095  1.2754  0.4796 -0.3289
51694SOL    HW262323   0.715  10.776  11.200  0.1162  1.6015  1.2096
51695SOL     OW62324   6.194   9.819   7.527  0.3392  0.2270 -0.7879
51695SOL    HW162325   6.109   9.856   7.550  0.5223 -0.8629  2.1169
51695SOL    HW262326   6.252   9.845   7.599  1.8191 -1.1342 -1.4216
51696SOL     OW62327  11.150   8.822   1.318  0.6214 -0.1707 -0.0575
51696SOL    HW162328  11.084   8.806   1.250  0.5891  1.0448 -0.3484
51696SOL    HW262329  11.202   8.742   1.321 -0.6971 -1.0522 -0.0109
51697SOL     OW62330  12.420   6.020   0.256 -0.1758  0.3105 -0.2655
51697SOL    HW162331  12.360   6.025   0.330  1.2986 -1.4767  1.1546
51697SOL    HW262332  12.369   5.980   0.185 -1.1989  0.6655  0.2659
51698SOL     OW62333   5.523   2.708   2.936  0.7952  0.0489  0.1530
51698SOL    HW162334   5.516   2.715   3.031  0.9959 -1.4702  0.3066
51698SOL    HW262335   5.594   2.645   2.922  2.1701  1.7604 -1.0482
51699SOL     OW62336   7.941   6.139   8.519 -0.0696  0.3303  0.0370
51699SOL    HW162337   7.966   6.074   8.453 -0.6033 -1.2165  1.2769
51699SOL    HW262338   7.846   6.136   8.521 -0.0531 -0.2287  1.3702
51700SOL     OW62339  12.041   4.104   1.006  0.3716  0.3191 -0.0565
51700SOL    HW162340  11.991   4.026   1.031 -0.4847  0.7169 -0.4957
51700SOL    HW262341  11.996   4.137   0.929  0.4643  1.5029  0.3855
51701SOL     OW62342   9.617   7.907   0.388  0.0026  0.3915 -0.2471
51701SOL    HW162343   9.590   7.885   0.299 -1.2458  0.4429  0.0922
51701SOL    HW262344   9.594   7.830   0.440  0.8261  0.3174  0.0163
51702SOL     OW62345   3.906   7.863   2.473 -0.8878  0.3861  0.0710
51702SOL    HW162346   3.837   7.877   2.407  1.0842  0.5067 -2.0990
51702SOL    HW262347   3.977   7.921   2.446  0.1962  0.0721  2.0783
51703SOL     OW62348   1.877   0.461   9.979  0.5802 -0.6225 -0.0053
51703SOL    HW162349   1.803   0.399   9.981  1.3500 -1.5963 -0.8033
51703SOL    HW262350   1.847   0.535  10.032 -1.4900 -0.4044 -1.3398
51704SOL     OW62351   0.838   0.271   6.120  0.7727  0.2701 -0.0451
51704SOL    HW162352   0.901   0.247   6.052  1.9937 -0.2518  1.2315
51704SOL    HW262353   0.785   0.341   6.080  1.8069  0.3508 -1.3301
51705SOL     OW62354   5.401   1.151   4.133 -0.0194  0.2492 -0.5617
51705SOL    HW162355   5.444   1.091   4.072  1.2011  1.3297 -0.8201
51705SOL    HW262356   5.474   1.192   4.180 -0.8832  0.6563  0.4410
51706SOL     OW62357   7.052  12.610  11.639 -0.1867  0.5889  0.0903
51706SOL    HW162358   7.145  12.588  11.647 -0.9078 -3.3949 -0.4263
51706SOL    HW262359   7.036  12.608  11.544 -0.4400  3.6064 -0.0223
51707SOL     OW62360  12.160   1.351   9.243  0.1677  0.0372 -0.0371
51707SOL    HW162361  12.094   1.367   9.176  0.4299 -0.0347 -0.3142
51707SOL    HW262362  12.202   1.270   9.217 -0.9500 -1.0013  1.1943
51708SOL     OW62363   2.253   2.437   8.362 -0.0583  0.1651 -0.2732
51708SOL    HW162364   2.323   2.470   8.418  1.6597 -0.7196 -1.8086
51708SOL    HW262365   2.230   2.352   8.400 -1.4625  1.1062  1.1349
51709SOL     OW62366   2.311  11.696   7.681  0.5341  0.2477  0.1357
51709SOL    HW162367   2.376  11.641   7.724  1.5174  0.5422 -0.9156
51709SOL    HW262368   2.273  11.748   7.752  0.3093 -1.0309  0.9941
51710SOL     OW62369   3.748   8.233   5.153  0.2824  0.4208 -0.0148
51710SOL    HW162370   3.675   8.223   5.091  0.2493  0.7266 -0.0257
51710SOL    HW262371   3.714   8.292   5.220  1.1505  2.1109 -1.0077
51711SOL     OW62372   1.534   9.727   5.914 -0.0880  0.5156  0.2979
51711SOL    HW162373   1.440   9.713   5.917 -0.7291  3.7568 -0.1534
51711SOL    HW262374   1.549   9.770   5.829  1.8140  0.0483  0.3418
51712SOL     OW62375  11.321  12.299  11.715  0.3726 -0.4091 -0.2281
51712SOL    HW162376  11.239  12.290  11.665  1.1278 -2.4371 -1.2354
51712SOL    HW262377  11.380  12.345  11.656  0.5573 -0.7426 -0.3071
51713SOL     OW62378   1.049   7.081   0.669 -0.0614  0.8181  0.9187
51713SOL    HW162379   0.984   7.023   0.631  0.6948 -0.5356  1.6260
51713SOL    HW262380   1.117   7.088   0.602  0.0103  0.6188  0.9724
51714SOL     OW62381   3.368   9.857   6.449 -0.2851 -0.2649 -0.3644
51714SOL    HW162382   3.455   9.875   6.487  0.6483 -0.5240 -2.2626
51714SOL    HW262383   3.383   9.854   6.355 -2.4456 -0.0056 -0.7672
51715SOL     OW62384   1.850  11.478   8.772 -0.2141  0.2823  0.2402
51715SOL    HW162385   1.835  11.533   8.848  0.3089 -2.4824  2.5373
51715SOL    HW262386   1.945  11.461   8.773 -0.5158 -1.7009  0.5114
51716SOL     OW62387   7.007   8.463  11.348  0.4686  0.3641 -0.5957
51716SOL    HW162388   7.063   8.541  11.346  0.3509  0.4450 -0.7124
51716SOL    HW262389   6.919   8.495  11.329  0.1337  0.4442  0.9033
51717SOL     OW62390   8.457   6.705   7.302  0.2447 -0.0058 -0.2202
51717SOL    HW162391   8.522   6.684   7.236 -0.6876 -2.0860 -0.5557
51717SOL    HW262392   8.499   6.685   7.386  0.5012  0.0257 -0.3418
51718SOL     OW62393   9.706  10.976   7.956  0.0105  0.1823  0.1521
51718SOL    HW162394   9.625  10.947   7.997 -0.5059  0.6492 -0.5077
51718SOL    HW262395   9.775  10.932   8.005 -0.6240  0.0169  0.9267
51719SOL     OW62396   4.538   1.049   6.750 -0.0683 -0.2261 -0.0892
51719SOL    HW162397   4.508   1.030   6.661 -1.7516  0.0521  0.3863
51719SOL    HW262398   4.597   0.977   6.772  0.1236 -0.4556 -1.3171
51720SOL     OW62399   9.345   3.704   0.412 -0.1525 -0.3784  0.0702
51720SOL    HW162400   9.311   3.791   0.393 -0.9213 -0.4730  0.9699
51720SOL    HW262401   9.438   3.709   0.387 -0.0121  0.9107  0.7686
51721SOL     OW62402   1.274   7.572   2.815  0.2417  0.3035 -0.2483
51721SOL    HW162403   1.327   7.596   2.739  0.1002  2.4654  0.2681
51721SOL    HW262404   1.186   7.560   2.780 -0.0511  2.3922 -0.3056
51722SOL     OW62405   1.970  10.448   9.332 -0.1803 -0.0819 -0.0630
51722SOL    HW162406   1.895  10.390   9.344 -0.5523  0.5922  1.0093
51722SOL    HW262407   1.933  10.536   9.337  0.7703  0.2721  1.1564
51723SOL     OW62408   9.677   9.163   6.426 -0.3988  0.2021  0.3225
51723SOL    HW162409   9.586   9.194   6.428 -0.7555 -0.7304 -0.5299
51723SOL    HW262410   9.730   9.242   6.421 -1.2298  0.7149 -0.6897
51724SOL     OW62411   7.401   6.060   4.450  0.2294 -0.1445  0.2348
51724SOL    HW162412   7.390   6.133   4.390 -0.8303  0.4373  1.1121
51724SOL    HW262413   7.319   6.011   4.445  1.1624 -1.7077 -0.8555
51725SOL     OW62414   6.230   9.551   2.194 -0.2967  0.1672  0.2386
51725SOL    HW162415   6.266   9.520   2.111  2.3306  2.3538  0.4391
51725SOL    HW262416   6.212   9.470   2.243  0.3224 -1.1248 -1.5417
51726SOL     OW62417   9.583   7.716   6.534 -0.4398 -0.3153  0.0524
51726SOL    HW162418   9.552   7.776   6.602 -1.1237 -0.0682 -0.4660
51726SOL    HW262419   9.674   7.742   6.518 -0.9154  1.0015 -0.6102
51727SOL     OW62420   3.243   0.618   0.009 -0.7187 -0.2670 -0.3616
51727SOL    HW162421   3.303   0.544   0.009 -2.3004 -1.6323  0.8509
51727SOL    HW262422   3.252   0.656   0.096  0.8329  1.6987 -1.2983
51728SOL     OW62423   4.413   5.090   5.905  0.2323  0.0138 -0.3449
51728SOL    HW162424   4.416   5.038   5.985  0.3987 -1.5860 -1.3441
51728SOL    HW262425   4.391   5.178   5.934  3.4630  0.2529  1.7909
51729SOL     OW62426   9.762   1.207   2.582  0.2550  0.7164 -0.5539
51729SOL    HW162427   9.836   1.244   2.533 -1.3160  3.6229 -0.9648
51729SOL    HW262428   9.690   1.269   2.567 -1.9019 -1.2637  0.9247
51730SOL     OW62429   3.156   1.816   3.667  0.1625  0.0217 -0.3437
51730SOL    HW162430   3.182   1.724   3.669 -1.3344 -0.4287  0.4623
51730SOL    HW262431   3.233   1.864   3.695  0.8998 -1.0084 -0.5486
51731SOL     OW62432   4.915  11.975   1.495 -0.2542  0.1380  0.4546
51731SOL    HW162433   4.978  11.904   1.481 -0.8970 -0.6668  1.4677
51731SOL    HW262434   4.957  12.031   1.560 -0.6757 -0.5543  1.3478
51732SOL     OW62435  10.890   1.988   6.689 -1.0189 -0.1375 -0.5825
51732SOL    HW162436  10.974   1.976   6.646 -0.7778 -2.4092  0.3768
51732SOL    HW262437  10.899   2.071   6.736  0.5702 -0.1879 -0.7417
51733SOL     OW62438   7.517   4.838   3.145 -0.1618  0.0618 -0.0915
51733SOL    HW162439   7.606   4.858   3.173  0.4377  2.2708 -3.0701
51733SOL    HW262440   7.524   4.755   3.099 -0.1384 -0.8948  1.5773
51734SOL     OW62441   9.101   1.590   7.406 -0.5491  0.0059 -0.3765
51734SOL    HW162442   9.189   1.568   7.376 -0.2902  0.6344 -0.1131
51734SOL    HW262443   9.114   1.625   7.494 -0.9438  1.0008 -0.6989
51735SOL     OW62444   9.986   3.132   4.355  0.0911 -0.4832  0.7798
51735SOL    HW162445   9.914   3.072   4.375 -0.4317  0.3915  1.6471
51735SOL    HW262446   9.956   3.217   4.388  1.4368 -0.0562  0.9828
51736SOL     OW62447   4.182   1.387  11.505  0.2080  0.4125 -0.4421
51736SOL    HW162448   4.096   1.424  11.484  1.1493  2.9741 -0.1369
51736SOL    HW262449   4.177   1.296  11.476 -2.0700  0.9239 -1.8674
51737SOL     OW62450   1.772   1.574   3.235  0.1127  0.2693  0.5869
51737SOL    HW162451   1.717   1.496   3.226  2.8729 -1.7861  0.3970
51737SOL    HW262452   1.783   1.605   3.145  0.0835  0.1135  0.5297
51738SOL     OW62453   0.132   4.608   8.750  0.6985  0.3281  0.0639
51738SOL    HW162454   0.158   4.581   8.838 -0.9611 -1.6688  0.0022
51738SOL    HW262455   0.039   4.586   8.744 -0.1284  3.4546 -1.0835
51739SOL     OW62456   0.653   7.787   7.266  0.2022  0.4651  0.1696
51739SOL    HW162457   0.727   7.727   7.265 -0.5175 -0.4377 -0.8911
51739SOL    HW262458   0.679   7.859   7.209 -0.1622 -0.4413 -1.2116
51740SOL     OW62459   2.014  12.384   5.982 -0.3210 -0.6372  0.5851
51740SOL    HW162460   2.101  12.413   5.957 -0.6128  1.1556  1.5367
51740SOL    HW262461   1.959  12.462   5.974 -1.8788 -1.7381 -0.0537
51741SOL     OW62462   6.966   2.020  12.507  0.2795  0.1507  0.0969
51741SOL    HW162463   7.035   2.055  12.450 -1.2648  1.6704 -0.9529
51741SOL    HW262464   6.907   1.974  12.448 -1.8318  2.4994  0.1875
51742SOL     OW62465   5.692   1.745   9.544  0.4527 -0.1058 -0.0920
51742SOL    HW162466   5.678   1.743   9.639 -1.4095 -1.0292 -0.3332
51742SOL    HW262467   5.787   1.748   9.534  0.7002 -0.1304  1.7919
51743SOL     OW62468  10.035   5.160  11.622  0.8319  0.6863  0.0141
51743SOL    HW162469  10.004   5.169  11.532  1.6081  2.0230 -0.1517
51743SOL    HW262470  10.097   5.088  11.619 -1.5009 -1.4745  0.1818
51744SOL     OW62471   1.391  10.415   5.032 -0.1434 -0.9111 -0.4027
51744SOL    HW162472   1.400  10.341   5.092  1.6620 -0.5341 -0.1805
51744SOL    HW262473   1.366  10.489   5.087 -0.1108 -0.9344 -0.3574
51745SOL     OW62474   5.111   3.607   8.024  0.5280  0.1365  0.2658
51745SOL    HW162475   5.134   3.663   7.949  1.7825 -0.6978 -0.0086
51745SOL    HW262476   5.053   3.661   8.077  0.0043  0.9300 -1.0547
51746SOL     OW62477   0.908   2.098   7.233  0.4629 -0.2885  0.0103
51746SOL    HW162478   0.965   2.150   7.290  2.4905 -0.7559 -1.4545
51746SOL    HW262479   0.836   2.071   7.289  0.8951  1.5801  1.5977
51747SOL     OW62480   5.864  10.221   3.441  0.0914  0.0290  0.2823
51747SOL    HW162481   5.800  10.154   3.418 -0.3310  0.1282  1.1067
51747SOL    HW262482   5.856  10.230   3.537 -0.7420  2.1182  0.0870
51748SOL     OW62483  10.552   6.847   8.816 -0.1520  0.5857  0.4283
51748SOL    HW162484  10.569   6.760   8.852  0.2152  0.5472  0.1625
51748SOL    HW262485  10.634   6.895   8.829  0.7481 -0.0637 -2.2392
51749SOL     OW62486   6.590  11.832   0.395  0.2770 -0.2773  0.0848
51749SOL    HW162487   6.608  11.758   0.453 -0.9127 -2.4426 -2.1333
51749SOL    HW262488   6.530  11.887   0.444 -0.0873 -1.6324  1.2211
51750SOL     OW62489  10.173   3.322   7.355 -0.2134 -0.4581  0.1471
51750SOL    HW162490  10.193   3.396   7.413 -0.5330  0.0143 -0.3399
51750SOL    HW262491  10.177   3.358   7.267  2.6267 -1.6904 -0.3354
51751SOL     OW62492   8.111  11.026   2.951  0.1586  0.1580  0.0362
51751SOL    HW162493   8.096  10.933   2.967 -0.1458  0.0864 -0.6405
51751SOL    HW262494   8.059  11.070   3.019 -2.8831 -0.0960 -1.9183
51752SOL     OW62495   1.784   1.235   8.099 -0.4142  0.0021  0.1067
51752SOL    HW162496   1.799   1.142   8.083 -1.5200 -0.1132 -0.3388
51752SOL    HW262497   1.689   1.243   8.107 -0.3979  1.2099 -0.6706
51753SOL     OW62498   6.673   1.511   1.912 -0.3233 -0.4670 -0.2259
51753SOL    HW162499   6.616   1.581   1.945  0.6354 -0.6438  1.9352
51753SOL    HW262500   6.636   1.431   1.947  1.3449 -0.5635  1.4805
51754SOL     OW62501   4.432   2.394   0.691  0.4019 -0.8550  0.0668
51754SOL    HW162502   4.445   2.394   0.786 -0.3778 -0.3281  0.1838
51754SOL    HW262503   4.377   2.318   0.674 -1.2432  0.2378  0.3201
51755SOL     OW62504   6.668   2.424   4.866 -0.0257  0.3542  0.5434
51755SOL    HW162505   6.740   2.471   4.824 -0.6156  1.8617  1.1654
51755SOL    HW262506   6.647   2.475   4.944 -0.7889 -0.8799  1.1954
51756SOL     OW62507   8.517   4.821   1.309  0.3038 -0.0706 -0.3496
51756SOL    HW162508   8.521   4.912   1.280  1.1023  0.2267  0.6213
51756SOL    HW262509   8.582   4.776   1.255  1.0153  0.2652  0.1962
51757SOL     OW62510   8.611   4.409   2.689  0.3983 -0.1439 -0.0436
51757SOL    HW162511   8.638   4.349   2.758 -0.9809  0.4617  1.0704
51757SOL    HW262512   8.553   4.472   2.732 -0.5761  0.2105 -1.7563
51758SOL     OW62513   1.062   7.610   1.157  0.1948  0.4325 -0.3656
51758SOL    HW162514   1.127   7.680   1.148  0.8530  0.1382  1.6190
51758SOL    HW262515   0.981   7.656   1.180  0.7090  0.5753  1.3002
51759SOL     OW62516   5.107   8.102   6.173 -0.2247 -0.8536 -0.6137
51759SOL    HW162517   5.146   8.189   6.171 -0.1162 -0.8790  0.3215
51759SOL    HW262518   5.016   8.116   6.200 -0.1037 -1.0696 -0.0981
51760SOL     OW62519   6.686   4.780   2.163  0.1457  0.3932  0.4159
51760SOL    HW162520   6.662   4.828   2.083  1.5550  0.3227 -0.0796
51760SOL    HW262521   6.746   4.840   2.209  2.7284 -1.1746 -0.6891
51761SOL     OW62522   8.436   0.909   8.745  0.3738 -0.3840 -0.1356
51761SOL    HW162523   8.509   0.926   8.685  0.4208 -2.4654 -0.7526
51761SOL    HW262524   8.358   0.939   8.697  0.5581 -0.7757 -0.7051
51762SOL     OW62525  10.066   2.477   3.671  0.3060  0.2121 -0.1265
51762SOL    HW162526  10.013   2.552   3.701  0.1581  0.2600 -0.4941
51762SOL    HW262527  10.155   2.499   3.695  0.0890 -0.1357  1.0335
51763SOL     OW62528   4.408   2.399  12.117 -0.9610  0.2282  0.5259
51763SOL    HW162529   4.336   2.341  12.094 -0.6830  0.3498 -0.6849
51763SOL    HW262530   4.371   2.487  12.115 -0.9800  0.2247  0.7195
51764SOL     OW62531   5.073   0.693   7.498 -0.7790 -0.1111 -0.2005
51764SOL    HW162532   5.056   0.613   7.548  2.0954 -0.1836  0.8658
51764SOL    HW262533   5.007   0.755   7.529 -2.9035 -1.9226 -0.8439
51765SOL     OW62534   8.510   2.933  12.209  0.0131 -0.0567 -0.0988
51765SOL    HW162535   8.503   3.029  12.210 -0.8491 -0.1139 -0.0568
51765SOL    HW262536   8.430   2.903  12.253  0.0816 -0.8065 -0.4756
51766SOL     OW62537  11.722   5.539   6.246  0.0692  0.0008  0.1504
51766SOL    HW162538  11.789   5.599   6.212  0.0658 -0.8983 -1.5155
51766SOL    HW262539  11.768   5.457   6.260 -0.4506 -0.3080  0.0603
51767SOL     OW62540   3.496   0.429  11.027 -0.1101  0.3298  0.5618
51767SOL    HW162541   3.479   0.437  10.933  1.7713  2.1743  0.2943
51767SOL    HW262542   3.475   0.338  11.048  0.2952 -0.3900 -1.8551
51768SOL     OW62543   0.331   6.271  12.040 -0.4098  0.4397 -0.1583
51768SOL    HW162544   0.240   6.244  12.037 -0.5926  1.0456 -2.6858
51768SOL    HW262545   0.374   6.220  11.972  1.3884 -0.4901  1.5768
51769SOL     OW62546   8.553  12.315   5.071 -0.0560  0.7485 -0.4543
51769SOL    HW162547   8.634  12.317   5.121 -0.1625  0.1436 -0.2584
51769SOL    HW262548   8.493  12.261   5.123 -0.4349  0.8049 -0.8237
51770SOL     OW62549   3.958   8.542   3.145 -0.2813  0.2032 -0.7863
51770SOL    HW162550   3.917   8.586   3.219 -1.2848  0.7081 -1.6210
51770SOL    HW262551   3.892   8.481   3.113  0.6202 -0.9722 -0.4778
51771SOL     OW62552   0.699   8.768  12.626 -0.1341 -1.1164 -0.0327
51771SOL    HW162553   0.609   8.798  12.620 -0.1494 -0.5460  2.1411
51771SOL    HW262554   0.693   8.679  12.661  0.1474 -0.6267  1.3239
51772SOL     OW62555   3.851   7.180   5.600 -0.8939 -0.5739  0.5763
51772SOL    HW162556   3.798   7.245   5.553 -2.3885 -1.5638  0.8153
51772SOL    HW262557   3.787   7.119   5.636  0.4490 -1.9914  0.6573
51773SOL     OW62558   6.123  12.025   9.216  0.0944 -0.1455 -0.1248
51773SOL    HW162559   6.200  12.032   9.160  2.4067  1.3360  2.9796
51773SOL    HW262560   6.123  11.935   9.246  0.8577 -0.0593  0.1516
51774SOL     OW62561  11.269   2.477   9.661 -0.4886  0.5423  0.0583
51774SOL    HW162562  11.267   2.564   9.700 -0.8012  1.1043 -1.1590
51774SOL    HW262563  11.360   2.449   9.671 -0.4539  0.8772  0.7349
51775SOL     OW62564   6.006   0.726   5.437  0.0291  0.4104 -0.4277
51775SOL    HW162565   5.995   0.681   5.521 -2.3810  1.6902  0.0389
51775SOL    HW262566   5.943   0.685   5.378  1.6795 -0.4561 -1.6691
51776SOL     OW62567   2.428   9.785   6.228 -0.2294 -0.5361  0.4143
51776SOL    HW162568   2.344   9.807   6.268 -0.6700 -1.1508 -0.1563
51776SOL    HW262569   2.443   9.694   6.252  0.2819 -0.4342  0.5074
51777SOL     OW62570   9.565   6.969   3.175 -0.5488 -0.0534 -0.1514
51777SOL    HW162571   9.532   7.032   3.239  0.5390  2.2969 -1.7520
51777SOL    HW262572   9.655   6.953   3.202 -0.4412  0.0592 -0.4410
51778SOL     OW62573  10.448  11.303   5.378  0.5945 -0.1477  0.4504
51778SOL    HW162574  10.421  11.367   5.312  0.6363 -3.0974 -2.7126
51778SOL    HW262575  10.371  11.291   5.433  0.5813  2.4626  1.1236
51779SOL     OW62576   0.359  10.568   3.491 -0.2236  0.2367 -0.0330
51779SOL    HW162577   0.373  10.537   3.402 -1.3422 -0.4174  0.0043
51779SOL    HW262578   0.269  10.542   3.512 -0.4944  1.7081  0.7510
51780SOL     OW62579   7.292   8.003   8.242  0.1736  0.1752  0.1079
51780SOL    HW162580   7.267   8.050   8.322 -0.9156  0.4800 -0.3968
51780SOL    HW262581   7.378   7.966   8.263 -0.8283 -1.2499  2.0465
51781SOL     OW62582   1.546   8.173   6.277 -0.4754 -0.3197  0.1333
51781SOL    HW162583   1.461   8.214   6.262 -0.8273 -1.5137 -1.4845
51781SOL    HW262584   1.542   8.139   6.366 -0.8741  1.4398  0.8183
51782SOL     OW62585   3.406   1.507   0.014  0.2614  0.9952  0.3933
51782SOL    HW162586   3.318   1.511   0.052 -0.8113 -2.4545 -1.2579
51782SOL    HW262587   3.398   1.551  -0.070  0.4110  1.5587  0.6706
51783SOL     OW62588  10.754   0.823   2.801 -0.3603  0.0068  0.4338
51783SOL    HW162589  10.732   0.834   2.709  2.6349  2.3340 -0.1696
51783SOL    HW262590  10.823   0.756   2.802 -0.4726 -0.1088  1.0204
51784SOL     OW62591   3.929   7.383   0.050  0.0106  0.0672  0.4254
51784SOL    HW162592   3.942   7.477   0.042  2.4870 -0.0660  2.0984
51784SOL    HW262593   3.854   7.374   0.109 -2.1145  0.8745 -1.9250
51785SOL     OW62594   0.293   2.004   8.445  0.2193 -0.1908 -0.1721
51785SOL    HW162595   0.338   2.029   8.526 -1.0201  0.9319  0.2065
51785SOL    HW262596   0.204   2.038   8.455  0.2499  0.7304 -2.3331
51786SOL     OW62597   7.437   3.151   8.251 -0.1910 -0.4666 -0.2132
51786SOL    HW162598   7.528   3.135   8.226  0.2370  0.1742  0.8248
51786SOL    HW262599   7.396   3.064   8.251 -0.0713 -0.5612 -2.4058
51787SOL     OW62600   4.725   7.121   4.683  0.1475 -0.1532 -0.6436
51787SOL    HW162601   4.776   7.047   4.714  2.2872  0.4213 -2.5466
51787SOL    HW262602   4.647   7.122   4.740  0.6388 -3.0401  0.2422
51788SOL     OW62603   2.543  10.407   0.096  0.1365 -0.0033 -0.3092
51788SOL    HW162604   2.515  10.339   0.157  0.5867 -0.0024 -0.0939
51788SOL    HW262605   2.554  10.485   0.151 -0.9347  0.3934 -0.6528
51789SOL     OW62606   7.474   9.436   6.271 -0.5282  0.5762 -0.1107
51789SOL    HW162607   7.554   9.485   6.286 -0.5412  0.9077 -1.0432
51789SOL    HW262608   7.450   9.401   6.357  0.0613  1.3107  0.3619
51790SOL     OW62609   2.015   0.029   9.769 -0.1685  0.1692 -0.4814
51790SOL    HW162610   1.956   0.096   9.735  0.9990  0.3446 -2.2904
51790SOL    HW262611   2.102   0.069   9.768  0.2858 -0.7424  0.2309
51791SOL     OW62612   7.330   4.932   2.015 -0.2456 -0.5628  0.9621
51791SOL    HW162613   7.367   4.982   2.088  0.2510  1.7728 -0.7661
51791SOL    HW262614   7.406   4.909   1.961 -0.7064 -1.3102  0.6206
51792SOL     OW62615   8.748  11.812   9.664  0.2947  0.1580 -0.5424
51792SOL    HW162616   8.714  11.730   9.628  2.1602 -1.1805  0.5902
51792SOL    HW262617   8.669  11.864   9.684 -1.0586 -2.1767  0.5642
51793SOL     OW62618   6.342   3.986   6.847  0.1141 -0.2287  0.7718
51793SOL    HW162619   6.391   3.908   6.822 -1.1354 -1.3559  1.7175
51793SOL    HW262620   6.306   4.019   6.764  1.9985  0.3452  0.1355
51794SOL     OW62621   8.895  10.579   2.814 -0.5824  0.3554  0.0424
51794SOL    HW162622   8.979  10.550   2.850  0.1887  1.1361 -1.0357
51794SOL    HW262623   8.868  10.507   2.757 -0.6408  0.1016  0.3893
51795SOL     OW62624  11.839  12.633  12.367 -0.3803  0.7858  0.4479
51795SOL    HW162625  11.762  12.668  12.323  0.2299  3.6243  1.4257
51795SOL    HW262626  11.819  12.639  12.460 -0.2811 -1.7667  0.6824
51796SOL     OW62627   6.074  11.004   4.427  0.5488  0.7783 -0.5792
51796SOL    HW162628   6.020  11.061   4.482  0.2959  0.4484 -0.4797
51796SOL    HW262629   6.164  11.028   4.449  0.4466  0.8110 -0.1887
51797SOL     OW62630  12.546   4.676   1.571  0.1111 -0.1670  0.3071
51797SOL    HW162631  12.618   4.737   1.553 -2.2901  2.8529  0.2229
51797SOL    HW262632  12.582   4.615   1.635  2.8752  0.8931 -0.0926
51798SOL     OW62633   3.696   1.209   5.254  0.2824 -0.1309  0.5922
51798SOL    HW162634   3.655   1.158   5.185 -0.1491  1.4767 -0.3881
51798SOL    HW262635   3.706   1.297   5.217  2.3024  0.1807  1.6916
51799SOL     OW62636  10.009   8.903   2.603  0.8490  0.4428 -0.7735
51799SOL    HW162637  10.082   8.927   2.660  0.3942 -0.6186  0.2903
51799SOL    HW262638   9.940   8.875   2.663  1.1844 -3.1190 -1.8397
51800SOL     OW62639   9.930   8.653   2.073 -0.7609 -0.1815 -0.7347
51800SOL    HW162640   9.989   8.614   2.137  0.2386 -0.1583 -1.6229
51800SOL    HW262641   9.950   8.609   1.991 -1.8693 -0.0474 -1.0976
51801SOL     OW62642   1.865  12.512   9.866  0.0004  0.4913  0.0900
51801SOL    HW162643   1.910  12.428   9.858 -1.7311 -0.5679  0.8660
51801SOL    HW262644   1.931  12.577   9.840  1.2821 -1.1027 -0.8690
51802SOL     OW62645   2.030   3.342   3.634  0.0872 -0.3300  0.0623
51802SOL    HW162646   1.992   3.329   3.547  0.2013 -1.5382  0.1736
51802SOL    HW262647   2.018   3.258   3.679  2.4471 -0.6384  0.2733
51803SOL     OW62648   2.410   5.392   0.014  0.0374  0.0600 -0.0050
51803SOL    HW162649   2.369   5.390   0.100 -0.2147  1.0457 -0.0941
51803SOL    HW262650   2.353   5.338  -0.041 -0.3204  0.2052  0.2213
51804SOL     OW62651   9.330   7.868   7.013 -0.5613  0.3120 -0.1056
51804SOL    HW162652   9.320   7.945   7.068 -0.4059  1.6304 -1.8336
51804SOL    HW262653   9.424   7.862   6.996 -0.4721 -0.7715  0.6908
51805SOL     OW62654   0.936  10.640   9.330  0.0037  0.6783 -0.2973
51805SOL    HW162655   0.970  10.643   9.240  1.6571 -0.5455  0.2330
51805SOL    HW262656   0.868  10.573   9.328  1.5848 -1.0052 -0.2130
51806SOL     OW62657   5.940   1.186   9.526 -0.3799  0.0817 -0.1727
51806SOL    HW162658   5.979   1.183   9.613 -1.5693 -3.2597  0.3709
51806SOL    HW262659   5.865   1.244   9.535  0.4796  1.1239  0.5306
51807SOL     OW62660   3.790   3.573   7.122  0.3447  0.7339  0.3696
51807SOL    HW162661   3.719   3.574   7.058  0.7009 -0.5045 -0.0664
51807SOL    HW262662   3.821   3.664   7.124 -0.5170  1.0570 -0.2497
51808SOL     OW62663   1.748   9.504   5.172  0.8110  0.1609  0.0698
51808SOL    HW162664   1.731   9.540   5.085 -0.4627 -1.1611 -0.2742
51808SOL    HW262665   1.749   9.580   5.230  0.8535  0.9803 -0.9840
51809SOL     OW62666   5.488  10.626   8.092 -0.6343 -0.4193 -0.7788
51809SOL    HW162667   5.504  10.559   8.026 -0.7351  0.3643 -1.6263
51809SOL    HW262668   5.572  10.636   8.136 -0.4967 -0.7784 -0.9522
51810SOL     OW62669   0.696   2.986   5.521  0.7060  0.0869 -0.5233
51810SOL    HW162670   0.725   2.994   5.431  3.0354 -0.4315  0.1194
51810SOL    HW262671   0.665   3.073   5.545  0.1697  0.2503 -1.7600
51811SOL     OW62672  11.305   2.441  12.595  0.5914 -0.4155 -0.1450
51811SOL    HW162673  11.298   2.411  12.505 -1.0853 -0.2798 -0.0831
51811SOL    HW262674  11.216   2.466  12.620  1.3257  1.4017  0.9187
51812SOL     OW62675   3.727   4.419   3.450  0.0776  0.3323  0.0807
51812SOL    HW162676   3.694   4.341   3.406 -0.0628  1.0582 -1.1576
51812SOL    HW262677   3.745   4.391   3.540 -0.3087 -1.0193 -0.2472
51813SOL     OW62678   5.991   9.232   0.280  0.0813 -0.3112 -0.1746
51813SOL    HW162679   6.004   9.321   0.313  2.5760 -0.8902  0.6073
51813SOL    HW262680   5.995   9.177   0.358  0.4417 -1.2598 -0.8446
51814SOL     OW62681   8.419   7.028   3.244 -0.0277 -0.4064 -0.1404
51814SOL    HW162682   8.464   6.949   3.275 -1.8406 -1.1365  0.7917
51814SOL    HW262683   8.439   7.032   3.151  0.5911 -1.6246 -0.0777
51815SOL     OW62684   3.020   8.276   8.208  0.1657  0.2244  0.1611
51815SOL    HW162685   3.074   8.278   8.128 -0.7747  0.2958 -0.4892
51815SOL    HW262686   2.984   8.364   8.214 -1.4674 -0.3663 -0.5438
51816SOL     OW62687  12.368   3.048   9.091  0.6587 -0.2293  0.1265
51816SOL    HW162688  12.322   2.967   9.073 -0.9287  0.5907  0.3407
51816SOL    HW262689  12.408   3.073   9.008 -1.4086  0.3271 -0.7584
51817SOL     OW62690  11.239  11.534   2.084 -0.0370  0.1873  0.4139
51817SOL    HW162691  11.185  11.458   2.064 -0.5696  0.6878 -0.0929
51817SOL    HW262692  11.304  11.537   2.014 -0.6936  0.8167 -0.1854
51818SOL     OW62693  10.625   3.790   4.911  0.0600 -0.3146  0.3815
51818SOL    HW162694  10.658   3.824   4.828  2.1059  0.1137  1.3085
51818SOL    HW262695  10.699   3.797   4.972 -1.6939  0.5107  2.5901
51819SOL     OW62696   6.809  11.499   6.646 -0.0561  0.6233 -0.0676
51819SOL    HW162697   6.835  11.448   6.723  1.7636  0.9142 -0.4556
51819SOL    HW262698   6.805  11.436   6.575 -0.1927  0.6273 -0.0648
51820SOL     OW62699   5.619  12.089   9.209 -0.0569  0.2442 -0.9953
51820SOL    HW162700   5.702  12.124   9.239  0.0101 -0.0445 -0.8423
51820SOL    HW262701   5.572  12.065   9.289 -1.4166  2.9034 -0.8924
51821SOL     OW62702   4.601   1.443   2.514 -0.4018  0.2306 -0.0968
51821SOL    HW162703   4.506   1.432   2.519 -0.1642 -2.5251 -0.1310
51821SOL    HW262704   4.614   1.505   2.443 -2.1649  0.6123 -0.1305
51822SOL     OW62705  12.488  10.679  11.659 -0.2632  0.2214 -0.1779
51822SOL    HW162706  12.578  10.703  11.636 -0.3318  0.1056 -0.5603
51822SOL    HW262707  12.490  10.584  11.671 -0.0727  0.3521  0.9895
51823SOL     OW62708   7.490   8.846   1.158 -0.0589 -0.2889  0.3553
51823SOL    HW162709   7.537   8.768   1.187  0.3717 -0.5660 -1.0315
51823SOL    HW262710   7.545   8.919   1.184  0.4953 -0.5496 -0.0667
51824SOL     OW62711   0.565   1.837   5.732  0.0246  0.3214  0.0773
51824SOL    HW162712   0.518   1.754   5.727 -1.3254  1.1502 -1.5399
51824SOL    HW262713   0.517   1.888   5.797 -0.5052  0.6671 -0.5832
51825SOL     OW62714   9.493  11.757  11.091 -0.7148 -0.2743 -0.4925
51825SOL    HW162715   9.441  11.691  11.046  1.1103 -1.5202 -0.8725
51825SOL    HW262716   9.559  11.708  11.140 -1.2395  1.1417  1.8218
51826SOL     OW62717   1.886   1.384   7.878  0.0109  0.2635 -0.5508
51826SOL    HW162718   1.862   1.358   7.789 -1.2890 -0.2841 -0.0638
51826SOL    HW262719   1.849   1.315   7.934 -1.0408  1.6788  0.5659
51827SOL     OW62720  11.134   6.252   5.644 -0.3176 -0.3392  0.2351
51827SOL    HW162721  11.079   6.236   5.567 -0.9789 -1.5436  0.9397
51827SOL    HW262722  11.206   6.191   5.635 -0.3817 -0.4624  0.5586
51828SOL     OW62723   5.243   7.210   1.589  0.3058  0.2328 -0.1422
51828SOL    HW162724   5.266   7.270   1.660 -1.9819 -0.0749  0.9595
51828SOL    HW262725   5.165   7.164   1.621  0.9586 -2.1069 -1.6463
51829SOL     OW62726   8.830   3.085   1.350 -0.1332 -0.3764 -0.1710
51829SOL    HW162727   8.800   2.995   1.337  0.6836 -0.9421  1.4591
51829SOL    HW262728   8.796   3.109   1.436  1.1982  0.1755  0.2308
51830SOL     OW62729   4.567   3.558   3.452  0.2965 -0.0296  0.3099
51830SOL    HW162730   4.662   3.566   3.463  0.5975 -0.5854 -1.4428
51830SOL    HW262731   4.552   3.464   3.442 -0.4392  0.0606  0.5340
51831SOL     OW62732   8.347   6.679   0.910  0.0920 -0.0773 -0.2078
51831SOL    HW162733   8.356   6.749   0.975 -0.0525 -1.0400  0.8945
51831SOL    HW262734   8.262   6.696   0.869  0.3832  0.8026 -0.4702
51832SOL     OW62735   4.903   8.085   3.570 -0.0428 -0.1756 -0.0204
51832SOL    HW162736   4.898   7.995   3.539 -1.6837 -0.4099  0.8154
51832SOL    HW262737   4.843   8.134   3.515 -0.7068 -0.0096  0.8336
51833SOL     OW62738   8.397   0.830  10.117 -0.1710 -0.0361  0.2700
51833SOL    HW162739   8.361   0.906  10.162 -0.4042 -0.0700  0.1394
51833SOL    HW262740   8.414   0.766  10.186  2.6089  1.1206  0.7967
51834SOL     OW62741   0.619   7.983  10.069  0.1785 -0.0057 -0.5698
51834SOL    HW162742   0.569   7.953  10.145  0.4390 -0.3079 -0.5177
51834SOL    HW262743   0.646   8.072  10.093  1.6821 -0.6822  0.4116
51835SOL     OW62744   5.856  10.927   3.932 -0.2667 -0.1993 -0.0117
51835SOL    HW162745   5.797  10.989   3.889 -2.2023 -0.6599  1.7664
51835SOL    HW262746   5.943  10.962   3.917 -1.1660  1.9284 -0.6562
51836SOL     OW62747   9.804  10.736  10.127 -0.8501  0.4337 -0.4087
51836SOL    HW162748   9.858  10.809  10.098 -1.1344  1.4583  1.4919
51836SOL    HW262749   9.794  10.749  10.222 -3.3023 -0.4502 -0.4615
51837SOL     OW62750   9.153   9.844   2.719  0.3605  0.1350 -0.0755
51837SOL    HW162751   9.060   9.820   2.724  0.2496  0.7841  1.4450
51837SOL    HW262752   9.198   9.771   2.763  0.5831 -0.1996 -0.8496
51838SOL     OW62753   6.126   7.058  10.909 -0.1713  0.1120  0.1622
51838SOL    HW162754   6.087   7.071  10.823 -2.2628  0.0669  1.0287
51838SOL    HW262755   6.117   6.964  10.925 -2.0263  0.4270  1.3369
51839SOL     OW62756   7.226   3.856   1.288 -0.2812 -0.5745 -0.3643
51839SOL    HW162757   7.218   3.933   1.232 -2.2571 -0.4579 -0.0076
51839SOL    HW262758   7.189   3.784   1.236 -1.1128 -0.6826  0.3554
51840SOL     OW62759   0.048   8.208   2.940 -0.7526 -0.3203  0.0564
51840SOL    HW162760   0.112   8.153   2.984  0.0527  1.0651  0.6827
51840SOL    HW262761  -0.037   8.170   2.963 -0.3781  0.3156  2.8468
51841SOL     OW62762   7.835   5.533   2.448 -0.2570 -0.3372 -0.4493
51841SOL    HW162763   7.756   5.484   2.475 -0.1936  0.0504  0.4510
51841SOL    HW262764   7.803   5.595   2.382 -0.9236  0.5624  0.6854
51842SOL     OW62765   7.385  12.407   2.507  0.4471 -0.3531  0.0966
51842SOL    HW162766   7.410  12.417   2.599  2.0357 -0.0927 -0.3436
51842SOL    HW262767   7.459  12.443   2.458 -1.6336  2.4129 -1.2807
51843SOL     OW62768  11.013   5.590  12.604  0.3053  0.4603 -0.1636
51843SOL    HW162769  10.966   5.527  12.549  0.7246  0.2531 -0.2888
51843SOL    HW262770  11.068   5.535  12.661 -0.5116  0.6394  0.8393
51844SOL     OW62771   1.268  11.113   5.438 -0.0428 -0.2040 -0.4754
51844SOL    HW162772   1.298  11.049   5.503 -1.0270 -1.0836 -0.8601
51844SOL    HW262773   1.294  11.198   5.474  0.1900 -0.7329  0.6492
51845SOL     OW62774   3.453  11.120   5.824 -0.2847 -0.4545 -0.3768
51845SOL    HW162775   3.436  11.212   5.805 -3.3794 -1.0776 -1.2135
51845SOL    HW262776   3.441  11.113   5.919  0.0203 -0.0052 -0.3020
51846SOL     OW62777  11.441   6.613  10.209 -0.4601  0.2766  0.0311
51846SOL    HW162778  11.418   6.576  10.123 -0.5615 -0.3814  0.3382
51846SOL    HW262779  11.480   6.698  10.188 -0.5685  0.1649 -0.6646
51847SOL     OW62780   6.350   4.165   5.785 -0.0651  0.0462 -0.4858
51847SOL    HW162781   6.315   4.223   5.853  0.6447 -0.0803 -0.0036
51847SOL    HW262782   6.399   4.222   5.726  0.0420  0.0394 -0.4045
51848SOL     OW62783   8.257   3.135   0.594  0.4453  0.2528 -0.1368
51848SOL    HW162784   8.310   3.185   0.656 -1.5060  0.1077  1.7696
51848SOL    HW262785   8.166   3.151   0.622 -0.4585 -0.8042 -2.2348
51849SOL     OW62786  12.220   6.360   7.452 -0.4140  0.3793 -0.1599
51849SOL    HW162787  12.255   6.370   7.364 -0.3635 -0.3337 -0.2204
51849SOL    HW262788  12.268   6.425   7.504 -0.7334  1.0906 -0.7272
51850SOL     OW62789  11.739   7.422   0.915  0.1404 -0.1394 -0.4698
51850SOL    HW162790  11.739   7.382   0.828  2.5605 -1.5694  0.0810
51850SOL    HW262791  11.701   7.356   0.972  0.7968 -0.2217 -0.1107
51851SOL     OW62792   2.145   8.856   6.742 -0.2385  0.4489 -0.1237
51851SOL    HW162793   2.083   8.823   6.677 -0.9693  0.5509  0.5056
51851SOL    HW262794   2.139   8.794   6.815  0.3161  0.5273  0.0006
51852SOL     OW62795  11.254   5.297   4.583  0.0455 -0.5163 -0.1240
51852SOL    HW162796  11.340   5.333   4.562 -0.5812  0.4882 -1.0616
51852SOL    HW262797  11.193   5.348   4.530 -1.0418 -1.8939 -0.2569
51853SOL     OW62798  11.900   9.047   5.824 -0.5060  0.2147  0.1399
51853SOL    HW162799  11.936   9.122   5.871  0.3313 -0.0597 -0.0564
51853SOL    HW262800  11.976   8.997   5.795 -1.0641 -1.2371  1.0779
51854SOL     OW62801   5.770   3.664   6.691  0.2536 -0.6399  0.1347
51854SOL    HW162802   5.753   3.672   6.597  0.6722  0.8450  0.1699
51854SOL    HW262803   5.704   3.719   6.732  1.6514  0.7994  0.5522
51855SOL     OW62804   1.624   4.742   9.691 -0.0462  0.5245 -0.1755
51855SOL    HW162805   1.658   4.675   9.751 -0.0648  1.8760  1.4417
51855SOL    HW262806   1.647   4.711   9.604  1.5808 -0.6695  0.6307
51856SOL     OW62807   3.537   5.660  12.640  0.6237 -0.1532  0.2380
51856SOL    HW162808   3.595   5.670  12.565  0.3975  0.8319  0.1753
51856SOL    HW262809   3.463   5.718  12.621 -1.2863 -2.6460 -0.5267
51857SOL     OW62810   3.957  10.203   4.299  0.2284  0.1077 -0.7357
51857SOL    HW162811   3.984  10.111   4.296  1.4925  0.3998  0.7268
51857SOL    HW262812   4.025  10.247   4.350 -1.3656  1.5043  0.2837
51858SOL     OW62813   9.068   5.005   4.848 -0.7498  0.3690  0.0068
51858SOL    HW162814   9.064   5.101   4.854  0.6450  0.5472 -1.3383
51858SOL    HW262815   9.155   4.983   4.879 -0.3992 -0.2841 -1.3710
51859SOL     OW62816  10.758   6.318  10.826 -0.0207  0.1195  0.2566
51859SOL    HW162817  10.797   6.402  10.851  0.7318  0.1273 -0.8886
51859SOL    HW262818  10.777   6.309  10.733  0.1456 -1.4461  0.4098
51860SOL     OW62819   3.357   0.560   4.956 -0.1620  0.1668  0.0638
51860SOL    HW162820   3.350   0.646   4.997 -1.4724  0.6050 -0.9751
51860SOL    HW262821   3.266   0.536   4.936  0.0169 -2.1683  1.7065
51861SOL     OW62822   7.852   5.764   3.919 -0.0386 -0.5360  0.1537
51861SOL    HW162823   7.908   5.839   3.902  1.0088 -1.2233  0.4687
51861SOL    HW262824   7.907   5.704   3.970 -1.8187 -0.1852  2.7026
51862SOL     OW62825   0.326  11.987  12.179  0.7008  0.3838 -0.6985
51862SOL    HW162826   0.271  11.915  12.209 -0.7794  1.6241 -0.3354
51862SOL    HW262827   0.416  11.956  12.195  0.1762 -1.7446 -1.4436
51863SOL     OW62828   5.140  11.659   4.321  0.4739  0.6324  0.4029
51863SOL    HW162829   5.138  11.573   4.364  1.1914  0.7146  0.6113
51863SOL    HW262830   5.086  11.715   4.376 -2.7043 -0.3881 -1.3640
51864SOL     OW62831   4.076   4.830   9.669 -0.6700  0.1978 -0.4376
51864SOL    HW162832   4.165   4.855   9.642 -0.3620  0.6757  0.9177
51864SOL    HW262833   4.034   4.800   9.589  1.3319 -1.9650 -0.7965
51865SOL     OW62834  12.526   0.210   4.478  0.1879  0.2253 -0.1914
51865SOL    HW162835  12.554   0.275   4.542 -0.4387 -0.3678  0.7172
51865SOL    HW262836  12.520   0.258   4.396  2.2068  0.7424 -0.0987
51866SOL     OW62837  10.226  11.642   3.759 -0.1106 -0.0483  0.4238
51866SOL    HW162838  10.255  11.620   3.847  0.1256 -0.4437  0.2494
51866SOL    HW262839  10.298  11.615   3.702  0.3652  1.5393  0.2307
51867SOL     OW62840   9.592   7.947   3.812  0.1182  0.3988 -0.1023
51867SOL    HW162841   9.617   7.888   3.740 -0.8508 -1.0794  0.7299
51867SOL    HW262842   9.659   7.933   3.879  2.2453  3.3023 -1.3885
51868SOL     OW62843   7.126   2.101  12.272  0.3356  0.4094 -0.3871
51868SOL    HW162844   7.206   2.062  12.307 -0.9355 -2.1089 -0.0678
51868SOL    HW262845   7.120   2.068  12.182  0.8563  2.5737 -1.2724
51869SOL     OW62846   5.460   3.632   0.916  0.4262 -0.1869  0.4083
51869SOL    HW162847   5.472   3.715   0.871 -0.5007  0.1624  0.7714
51869SOL    HW262848   5.386   3.591   0.871  3.1430 -2.5998 -2.2711
51870SOL     OW62849  11.462   4.606   4.225  0.5230 -0.0499 -0.2020
51870SOL    HW162850  11.480   4.585   4.316  1.0423 -1.0167 -0.5120
51870SOL    HW262851  11.546   4.595   4.181  0.0360 -0.7115 -0.9926
51871SOL     OW62852   4.396  11.414   1.516  0.5154 -0.4355  0.1791
51871SOL    HW162853   4.370  11.359   1.590 -1.1657 -0.2581 -0.2566
51871SOL    HW262854   4.492  11.407   1.515  0.4213 -2.6207  0.6927
51872SOL     OW62855   6.718  11.322  10.289  0.1236 -0.0436 -0.1954
51872SOL    HW162856   6.712  11.406  10.335  0.6446 -0.0200 -0.1626
51872SOL    HW262857   6.804  11.288  10.313 -0.1226 -0.6315 -0.1341
51873SOL     OW62858  10.779  12.595  10.272  0.0937  0.2046 -0.4546
51873SOL    HW162859  10.856  12.543  10.295 -0.0357 -0.6082 -1.7341
51873SOL    HW262860  10.769  12.657  10.344  1.4471 -0.2291  0.1393
51874SOL     OW62861   2.147  12.156   6.709  0.0843  0.6895 -0.6927
51874SOL    HW162862   2.156  12.064   6.733  1.3445  0.7944 -0.7283
51874SOL    HW262863   2.148  12.203   6.793  2.7554  0.9141 -0.7811
51875SOL     OW62864   5.898   3.382  12.375  0.3823  0.2151  0.3065
51875SOL    HW162865   5.826   3.355  12.317  0.3185 -1.8189  1.2094
51875SOL    HW262866   5.965   3.417  12.316 -0.7300  0.7141 -0.7083
51876SOL     OW62867   0.871  10.445   6.189 -0.1202  0.1680  0.2802
51876SOL    HW162868   0.825  10.526   6.166  0.6618  0.4725 -0.2382
51876SOL    HW262869   0.904  10.411   6.106 -0.9738 -1.0347  0.4074
51877SOL     OW62870  10.884   4.533  11.038  0.4107 -0.3392 -0.1885
51877SOL    HW162871  10.939   4.498  10.968  0.4528 -0.0422 -0.3046
51877SOL    HW262872  10.896   4.628  11.034  0.7723 -0.3504  0.5253
51878SOL     OW62873   3.733   6.812   8.578 -0.0440  0.0863  0.2604
51878SOL    HW162874   3.690   6.856   8.650 -3.4640 -0.2605 -1.3890
51878SOL    HW262875   3.678   6.736   8.559  2.2979 -1.4680 -0.9392
51879SOL     OW62876   1.888  12.621   5.017  0.3102  0.2839 -0.0215
51879SOL    HW162877   1.922  12.711   5.014 -0.9146  0.7929 -3.6258
51879SOL    HW262878   1.959  12.568   4.981  0.1231  0.2215 -0.3053
51880SOL     OW62879   8.275  11.783   9.273 -0.0978 -0.2779 -0.0396
51880SOL    HW162880   8.281  11.791   9.177  2.9299  1.6694  0.1857
51880SOL    HW262881   8.247  11.870   9.302 -1.9175 -1.1126  0.8816
51881SOL     OW62882  11.401   9.424   6.389  0.0447  0.1272  0.0392
51881SOL    HW162883  11.449   9.462   6.315  0.2987 -0.3811 -0.0627
51881SOL    HW262884  11.460   9.434   6.464  0.8107 -1.5001 -0.3019
51882SOL     OW62885   9.546   8.422   0.992  0.0730  0.6151  0.1103
51882SOL    HW162886   9.609   8.490   1.012  1.0512  0.1180 -1.1299
51882SOL    HW262887   9.473   8.468   0.949  0.3629  0.9761  0.0077
51883SOL     OW62888   2.102   4.495  10.710  0.2250 -0.4135  0.0255
51883SOL    HW162889   2.086   4.400  10.714  0.4278 -0.4169  2.9835
51883SOL    HW262890   2.017   4.533  10.732  0.2557  0.0967 -0.7289
51884SOL     OW62891  12.336   4.528   5.334  0.2054 -0.1839  0.0421
51884SOL    HW162892  12.404   4.550   5.270  1.1917  0.7195  1.3458
51884SOL    HW262893  12.291   4.453   5.296  1.2561 -0.1624 -1.3422
51885SOL     OW62894   0.367   2.369   6.265 -0.0358 -0.5085  0.0103
51885SOL    HW162895   0.315   2.306   6.315 -0.7606  0.2641  0.2747
51885SOL    HW262896   0.447   2.381   6.316  1.4393 -3.2881 -1.4434
51886SOL     OW62897   2.297   2.020  12.536  0.1409 -0.1825 -0.3249
51886SOL    HW162898   2.372   2.053  12.485 -0.1792  0.0322 -0.6622
51886SOL    HW262899   2.333   1.947  12.586  0.8626  0.6370  0.4001
51887SOL     OW62900   6.795  10.342   1.650 -0.3914  0.3133 -0.1534
51887SOL    HW162901   6.876  10.365   1.695 -0.2746  1.3065 -0.8503
51887SOL    HW262902   6.759  10.270   1.702  1.1652 -0.4874 -0.1082
51888SOL     OW62903   6.823  10.615  11.907 -0.1615 -0.2304 -0.4880
51888SOL    HW162904   6.900  10.666  11.933 -0.3816  0.1561 -0.5833
51888SOL    HW262905   6.855  10.553  11.842  0.1342 -0.2937 -0.2805
51889SOL     OW62906   6.894   5.196   2.868 -0.2128 -0.1983 -0.1262
51889SOL    HW162907   6.928   5.194   2.958  0.3196 -0.8733 -0.3276
51889SOL    HW262908   6.852   5.281   2.860  0.6199  0.2840  0.4440
51890SOL     OW62909  10.999   6.839  10.736 -0.1792 -0.2312  0.5221
51890SOL    HW162910  11.031   6.749  10.737 -0.7939 -0.4987 -0.9254
51890SOL    HW262911  11.064   6.886  10.683  0.2120  0.2205  1.3860
51891SOL     OW62912   9.879   2.664   4.020  0.8234  0.2784  0.4993
51891SOL    HW162913   9.884   2.654   3.925  0.2383 -0.2259  0.5138
51891SOL    HW262914   9.947   2.728   4.042 -0.2381  1.7961 -0.4609
51892SOL     OW62915   2.144   9.481   8.660  0.2856 -0.0054  0.2228
51892SOL    HW162916   2.156   9.575   8.677 -0.9658  0.3939 -0.9124
51892SOL    HW262917   2.152   9.472   8.565  0.5744 -1.0793  0.3348
51893SOL     OW62918   8.932  10.930  10.132  0.4019 -0.0268  0.0183
51893SOL    HW162919   8.836  10.935  10.132  0.4286  0.9790 -0.8568
51893SOL    HW262920   8.954  10.885  10.213 -0.8697 -1.5217 -0.4117
51894SOL     OW62921   8.156   4.206   1.841  0.1393  0.6327 -0.4517
51894SOL    HW162922   8.153   4.274   1.909  2.6029  1.9166 -1.5154
51894SOL    HW262923   8.231   4.152   1.863  0.1624  0.2419 -1.4248
51895SOL     OW62924  12.583   3.306  10.214  0.0627 -0.4179 -0.0194
51895SOL    HW162925  12.661   3.265  10.178  0.3652  0.3932 -0.2911
51895SOL    HW262926  12.521   3.308  10.141 -0.4567 -1.6374  0.3617
51896SOL     OW62927  10.162   7.751   7.674 -0.0527  1.0957  0.2991
51896SOL    HW162928  10.085   7.736   7.729  0.1120  0.4407  0.3535
51896SOL    HW262929  10.130   7.740   7.585 -0.7555  3.9477  0.0936
51897SOL     OW62930  10.169   9.003  10.578  0.5477 -0.4632 -0.5285
51897SOL    HW162931  10.163   9.063  10.504  1.9638  1.7822  1.0495
51897SOL    HW262932  10.262   8.981  10.584  0.5144 -0.3260  0.7597
51898SOL     OW62933  12.017  12.245   5.770  0.0769 -0.3600  0.1495
51898SOL    HW162934  12.079  12.267   5.702  0.8931  0.8294  1.2258
51898SOL    HW262935  11.993  12.154   5.753  1.4413 -0.5669 -0.7975
51899SOL     OW62936  10.779   9.460  10.393 -0.3356  0.2100  0.6284
51899SOL    HW162937  10.807   9.434  10.481 -0.5267  0.2036  0.6875
51899SOL    HW262938  10.824   9.399  10.335 -2.7315 -1.9696  0.8860
51900SOL     OW62939   0.324   2.328   0.795  0.4210  0.1835 -0.0990
51900SOL    HW162940   0.402   2.372   0.763 -0.6328  2.5354  0.3144
51900SOL    HW262941   0.255   2.352   0.732 -0.4431  0.0377  0.7614
51901SOL     OW62942   9.739   3.181   6.955  0.3974  0.2276  0.5393
51901SOL    HW162943   9.774   3.150   7.039  0.5685  0.5979  0.6057
51901SOL    HW262944   9.764   3.113   6.893 -1.1797 -0.8938  1.0703
51902SOL     OW62945  11.738   8.560   6.927  0.2942  0.4473 -0.6378
51902SOL    HW162946  11.743   8.466   6.947 -1.3571  0.4848  0.1149
51902SOL    HW262947  11.830   8.588   6.920  0.8808 -0.7398  1.5045
51903SOL     OW62948  12.697   2.794   7.506  0.4912 -0.4644  0.1323
51903SOL    HW162949  12.602   2.786   7.505  0.3543  0.9047  0.9717
51903SOL    HW262950  12.721   2.806   7.414  0.0777 -2.8337 -0.3463
51904SOL     OW62951   2.900   8.957   2.811 -0.0511 -0.4076 -0.1921
51904SOL    HW162952   2.963   9.028   2.825  0.2703 -0.8802  0.8208
51904SOL    HW262953   2.818   8.991   2.845 -0.0190 -0.3214 -0.2009
51905SOL     OW62954   6.696   9.878   9.193  0.4293 -0.4348 -0.2014
51905SOL    HW162955   6.723   9.962   9.232 -2.1230 -0.1239  1.0859
51905SOL    HW262956   6.639   9.903   9.120  0.1115 -1.0552 -0.1676
51906SOL     OW62957   9.582   7.233   4.452  0.1782  0.0377 -0.6398
51906SOL    HW162958   9.648   7.287   4.409  1.5744 -0.2866  0.9976
51906SOL    HW262959   9.609   7.231   4.544 -1.8188 -0.5672 -0.0176
51907SOL     OW62960   8.374   0.078   3.082  0.1699 -0.1646 -0.0412
51907SOL    HW162961   8.350   0.120   2.999  1.5756 -0.5109 -0.6527
51907SOL    HW262962   8.291   0.065   3.127 -0.7044 -0.5943 -1.6993
51908SOL     OW62963   5.269   1.914   7.737  0.9302  0.4984  0.2566
51908SOL    HW162964   5.288   1.973   7.664  3.2948 -0.8299 -0.3136
51908SOL    HW262965   5.266   1.827   7.697 -1.1530  0.0447  1.2734
51909SOL     OW62966   5.957   1.534  11.966 -0.8871  0.0694  0.2503
51909SOL    HW162967   5.926   1.463  12.023 -0.4572  0.4209  0.9421
51909SOL    HW262968   5.884   1.596  11.963 -1.5124 -0.6817 -0.8781
51910SOL     OW62969   9.915   2.891   7.048 -0.1876  0.0915 -0.2294
51910SOL    HW162970   9.972   2.816   7.069 -0.7352 -0.5009 -0.8032
51910SOL    HW262971   9.960   2.966   7.087  0.3043 -0.5490  0.4897
51911SOL     OW62972   6.929   8.127   1.058  0.4208 -0.4160  0.0364
51911SOL    HW162973   6.905   8.121   0.965 -0.2784 -0.0761  0.1883
51911SOL    HW262974   6.958   8.039   1.081 -0.5672 -0.8151 -0.1982
51912SOL     OW62975   6.119  12.213   8.087  0.0819 -0.1919 -0.7307
51912SOL    HW162976   6.025  12.232   8.094  0.3098  0.6864  0.0216
51912SOL    HW262977   6.148  12.262   8.011  0.3441  1.2608  0.2742
51913SOL     OW62978   4.359   4.920   4.904 -0.7500 -0.0280 -0.0279
51913SOL    HW162979   4.299   4.932   4.830 -0.8131  0.9114  0.1600
51913SOL    HW262980   4.328   4.982   4.970  1.5197  1.9101 -0.6190
51914SOL     OW62981   2.804   4.017   8.225  0.1917  0.2304  0.9082
51914SOL    HW162982   2.747   4.085   8.260 -0.5651  0.3285 -0.4119
51914SOL    HW262983   2.825   4.047   8.136 -1.0271 -1.6864 -0.1198
51915SOL     OW62984   2.062   8.071   2.765  0.2925 -0.0913 -0.2588
51915SOL    HW162985   2.100   8.153   2.732 -0.2291 -0.0479 -0.7618
51915SOL    HW262986   2.033   8.092   2.853  1.0308 -0.0041 -0.0249
51916SOL     OW62987   5.615  11.233   9.648  0.0081  0.2506 -0.0336
51916SOL    HW162988   5.637  11.283   9.570 -0.8510  1.0714  0.2240
51916SOL    HW262989   5.530  11.193   9.628  0.0686 -0.0262  0.2539
51917SOL     OW62990   7.701   3.120   9.805 -0.3345  0.0025 -0.3382
51917SOL    HW162991   7.671   3.039   9.847 -0.0078 -0.3525 -0.7652
51917SOL    HW262992   7.786   3.138   9.846 -0.9870  0.8479  0.6687
51918SOL     OW62993   8.608   5.015  12.338  0.6444  0.1289 -0.2133
51918SOL    HW162994   8.647   4.998  12.424  1.1368  0.2562 -0.4077
51918SOL    HW262995   8.662   4.965  12.277 -0.0233 -0.3870 -0.3962
51919SOL     OW62996   6.450   1.333   1.260  0.2777 -0.1570  0.1552
51919SOL    HW162997   6.515   1.351   1.192 -0.3309  1.8561  0.0587
51919SOL    HW262998   6.440   1.415   1.307 -2.2427 -0.3445  0.0990
51920SOL     OW62999  10.413  10.770   0.843  0.1671 -0.4035  0.4360
51920SOL    HW163000  10.445  10.684   0.817 -1.0324 -1.2916  1.7666
51920SOL    HW263001  10.415  10.769   0.938  0.5554  1.2280  0.4740
51921SOL     OW63002   2.456   8.056   2.720  0.2078  0.3894  0.5575
51921SOL    HW163003   2.484   7.966   2.733 -0.2008  0.0907 -0.6017
51921SOL    HW263004   2.441   8.089   2.809 -0.4189 -0.9197  0.9602
51922SOL     OW63005   8.521   4.383   5.730  0.5337 -0.2293  0.1639
51922SOL    HW163006   8.604   4.418   5.698 -0.1920  1.5408  0.1172
51922SOL    HW263007   8.527   4.392   5.825  0.3841 -0.1021  0.1603
51923SOL     OW63008  11.407   7.815   3.441  0.8057  0.0980  0.0112
51923SOL    HW163009  11.496   7.826   3.408  1.6211 -0.4528  1.8813
51923SOL    HW263010  11.360   7.771   3.371  1.8583  0.8676 -1.2059
51924SOL     OW63011  11.053   7.898   0.398  0.0584  0.7832 -0.0224
51924SOL    HW163012  11.119   7.873   0.463 -0.3239 -1.0347 -0.2879
51924SOL    HW263013  11.103   7.931   0.324  0.6126  0.6823  0.3032
51925SOL     OW63014   7.271  12.459  12.368  0.5155  0.2087 -0.4730
51925SOL    HW163015   7.236  12.480  12.454  1.5751  1.6798 -0.3656
51925SOL    HW263016   7.329  12.532  12.346  2.0735 -1.2172 -1.4374
51926SOL     OW63017   1.357   1.449   5.824 -0.6158 -0.0447 -0.1554
51926SOL    HW163018   1.358   1.545   5.829  0.3444  0.1097 -2.1414
51926SOL    HW263019   1.358   1.420   5.915 -2.2561  1.8148  0.5264
51927SOL     OW63020  10.095   8.506  10.238 -0.8408  0.0096  0.3583
51927SOL    HW163021  10.088   8.569  10.311 -0.3336  2.2482 -1.3992
51927SOL    HW263022  10.187   8.508  10.214 -1.0167 -0.6382 -0.3834
51928SOL     OW63023   8.760   9.691   2.419 -0.5139  0.4497  0.3882
51928SOL    HW163024   8.704   9.725   2.349  0.0540  1.1056  0.2326
51928SOL    HW263025   8.700   9.670   2.490 -1.2103 -1.0604 -0.5860
51929SOL     OW63026   2.370  10.302  10.991  0.2557 -0.0616  0.3426
51929SOL    HW163027   2.442  10.330  10.934 -0.3221  1.2164  0.1933
51929SOL    HW263028   2.347  10.381  11.041 -2.0675  0.0269 -0.7411
51930SOL     OW63029  11.128   6.516  12.198 -0.0068 -0.2323 -0.7507
51930SOL    HW163030  11.054   6.478  12.151 -1.7657  1.6205  0.3268
51930SOL    HW263031  11.127   6.472  12.283 -1.9899  1.9006  0.4641
51931SOL     OW63032   1.478   5.357   2.635  0.4246  0.3160 -0.6869
51931SOL    HW163033   1.402   5.406   2.604 -0.6009 -0.3460  0.6711
51931SOL    HW263034   1.533   5.423   2.678  0.7541  0.8377 -1.8746
51932SOL     OW63035   2.955  11.374   7.347  0.1503 -0.6583  0.2570
51932SOL    HW163036   2.871  11.419   7.339  1.6459  2.2957 -0.4457
51932SOL    HW263037   2.944  11.293   7.298 -3.1160 -1.8859  2.6494
51933SOL     OW63038   4.310   9.566   5.228  0.5265 -0.4383  0.2576
51933SOL    HW163039   4.290   9.476   5.257 -1.4616 -0.5409 -1.1900
51933SOL    HW263040   4.322   9.558   5.133  1.7909  0.6325  0.3058
51934SOL     OW63041   7.739   1.507   2.702 -0.2896 -0.0144 -0.5186
51934SOL    HW163042   7.716   1.440   2.767  1.6272  0.3730  0.6441
51934SOL    HW263043   7.735   1.461   2.618 -2.6723 -0.5676 -0.1714
51935SOL     OW63044   4.361   5.300   3.230  0.4588 -0.3132  0.5447
51935SOL    HW163045   4.368   5.221   3.285 -1.2994  0.0768  1.3929
51935SOL    HW263046   4.448   5.339   3.234  0.4946 -0.4788  2.8127
51936SOL     OW63047   6.842   7.261  12.310  0.2154  0.7652 -0.4571
51936SOL    HW163048   6.805   7.348  12.324  1.6478  1.4437 -0.6016
51936SOL    HW263049   6.811   7.209  12.383 -1.2968  1.1764 -0.7852
51937SOL     OW63050   5.321   0.148   0.224 -0.0881  0.4515 -0.9156
51937SOL    HW163051   5.264   0.172   0.297  0.3846 -0.4996 -0.2233
51937SOL    HW263052   5.279   0.187   0.147 -0.5750  1.4911 -0.1409
51938SOL     OW63053   0.254  11.195   4.517 -0.1935 -0.2317  0.1686
51938SOL    HW163054   0.299  11.237   4.591  0.5103  2.1332 -1.4903
51938SOL    HW263055   0.302  11.113   4.505  0.5445 -0.0336  1.4712
51939SOL     OW63056  10.805   1.520   4.243  0.2572  0.1286  0.0428
51939SOL    HW163057  10.821   1.426   4.246  0.3451  0.1077 -0.8198
51939SOL    HW263058  10.714   1.528   4.213  0.4880  0.3232 -0.6186
51940SOL     OW63059   9.819  11.859   8.063 -0.3267 -0.1359  0.6775
51940SOL    HW163060   9.832  11.800   7.989  0.4565 -0.7869  1.3217
51940SOL    HW263061   9.890  11.838   8.124 -0.9865  0.3412  1.6425
51941SOL     OW63062   0.788   7.783   1.814 -0.1677 -0.0299  0.0216
51941SOL    HW163063   0.790   7.857   1.753  0.6765  0.3967  0.5485
51941SOL    HW263064   0.695   7.772   1.836 -0.3054  0.8652 -0.0846
51942SOL     OW63065  12.544   4.758   2.763  0.2792  0.0572  0.3969
51942SOL    HW163066  12.550   4.664   2.745  1.9408  0.2138  0.0393
51942SOL    HW263067  12.458   4.769   2.803 -1.1980 -1.1984 -2.1681
51943SOL     OW63068   1.315   2.826   7.150 -0.5403 -0.0759  0.6655
51943SOL    HW163069   1.279   2.763   7.088  0.0946 -0.9274  1.1425
51943SOL    HW263070   1.272   2.806   7.233 -2.6643  2.1488  0.2306
51944SOL     OW63071   6.778   9.443  11.825  0.0707  0.7010  0.5753
51944SOL    HW163072   6.704   9.404  11.779  1.8214 -0.4820 -1.4172
51944SOL    HW263073   6.789   9.390  11.904 -0.8912  0.5863  0.6358
51945SOL     OW63074   6.514  12.500   5.054  0.1755  1.1545  0.0926
51945SOL    HW163075   6.564  12.533   4.979 -0.2496  0.8929 -0.3056
51945SOL    HW263076   6.424  12.497   5.024  0.1111  0.2671  0.3448
51946SOL     OW63077   7.867   4.772   4.973 -0.2994 -0.7166  0.1747
51946SOL    HW163078   7.948   4.799   4.930 -0.4081  1.0745  0.9908
51946SOL    HW263079   7.818   4.726   4.905  0.2704  0.5285 -1.1396
51947SOL     OW63080   5.356   1.570   0.210 -0.1525  0.0974 -0.0534
51947SOL    HW163081   5.309   1.575   0.127  0.4005  1.5696 -0.3187
51947SOL    HW263082   5.438   1.524   0.189 -0.2824 -0.0672 -0.1955
51948SOL     OW63083   2.104   4.416  12.601  0.1032  0.1898  0.4275
51948SOL    HW163084   2.078   4.344  12.544  0.2379  1.1047 -0.8193
51948SOL    HW263085   2.023   4.464  12.618 -0.1159 -0.6166  1.8333
51949SOL     OW63086  10.273   5.385   0.085 -0.1949  0.5062  0.6530
51949SOL    HW163087  10.300   5.473   0.113  0.1209  0.8433 -0.6174
51949SOL    HW263088  10.270   5.391  -0.011  0.2412 -0.9908  0.5256
51950SOL     OW63089   0.097   6.274   9.484 -0.3101  0.3634 -0.2008
51950SOL    HW163090   0.066   6.341   9.545  1.2218 -1.2607  2.5490
51950SOL    HW263091   0.021   6.255   9.429 -1.2162  3.2343 -0.1443
51951SOL     OW63092   5.446   1.367  11.826 -0.1207  0.2146 -0.0390
51951SOL    HW163093   5.443   1.272  11.828 -1.9590  0.2121  2.2446
51951SOL    HW263094   5.521   1.390  11.881 -0.3612  0.0591  0.3598
51952SOL     OW63095   5.498  10.623   0.604 -0.2447 -0.6902  0.3083
51952SOL    HW163096   5.475  10.709   0.641 -1.4659  0.1514 -2.1789
51952SOL    HW263097   5.431  10.564   0.637  0.2766 -0.5886  1.5924
51953SOL     OW63098   4.187  12.360  12.594 -0.0024 -0.2251  0.0762
51953SOL    HW163099   4.216  12.272  12.618  0.2883  0.0417  0.7187
51953SOL    HW263100   4.210  12.414  12.669  0.4413  0.5349 -0.5970
51954SOL     OW63101   2.087   3.121  10.711 -0.4480 -0.0713 -0.6426
51954SOL    HW163102   2.150   3.063  10.666 -0.3650 -0.3992 -0.1073
51954SOL    HW263103   2.037   3.062  10.767 -1.3838  0.1553 -1.2151
51955SOL     OW63104   4.345   4.987   9.597 -0.3088 -0.7523  0.2042
51955SOL    HW163105   4.329   4.906   9.548 -2.2952 -1.4673  1.9173
51955SOL    HW263106   4.287   5.052   9.556  1.5620 -0.0079 -1.4180
51956SOL     OW63107   9.060   2.400   0.874  0.1196  0.3149 -0.1317
51956SOL    HW163108   9.155   2.412   0.874  0.0655  1.8177  3.1428
51956SOL    HW263109   9.025   2.487   0.856 -0.7399 -0.3563 -2.0092
51957SOL     OW63110   8.765  10.594   9.348  0.6496  0.3738  0.1064
51957SOL    HW163111   8.730  10.545   9.273  0.7912 -0.2867  0.4728
51957SOL    HW263112   8.858  10.573   9.349  0.5358 -0.1138  0.8451
51958SOL     OW63113  10.823   1.611  12.464  0.4667  0.3263  0.2444
51958SOL    HW163114  10.767   1.534  12.457  0.3401  0.5585 -2.4896
51958SOL    HW263115  10.848   1.615  12.557 -1.4606 -1.5817  0.9226
51959SOL     OW63116   0.448   7.406   2.547 -0.2554  0.0876  0.1298
51959SOL    HW163117   0.474   7.498   2.554 -0.1409  0.1070 -0.4984
51959SOL    HW263118   0.352   7.409   2.547 -0.2556  0.2653 -0.5099
51960SOL     OW63119   6.893   1.535   3.866 -0.2643 -0.0723 -0.0147
51960SOL    HW163120   6.941   1.570   3.941 -2.3109  1.1855  0.8002
51960SOL    HW263121   6.892   1.440   3.880  4.7283 -0.6697 -1.8483
51961SOL     OW63122   7.726   0.908   6.213 -0.5495  0.1121  0.0080
51961SOL    HW163123   7.659   0.935   6.275 -0.0985 -0.3924  0.7381
51961SOL    HW263124   7.789   0.859   6.266  0.0900  0.0745 -0.7666
51962SOL     OW63125   2.210   8.997  10.557  0.1167 -0.0395  0.3948
51962SOL    HW163126   2.161   9.012  10.476 -1.0641 -2.8787  0.4618
51962SOL    HW263127   2.142   8.975  10.621  1.1873  0.3103  1.6776
51963SOL     OW63128   2.262   3.481   2.003 -0.1441 -0.1956 -0.0922
51963SOL    HW163129   2.258   3.391   1.969  2.1704 -0.2253 -0.4535
51963SOL    HW263130   2.205   3.531   1.944 -0.6593 -1.2391 -0.5148
51964SOL     OW63131   2.496   9.471   2.699 -0.0711 -0.7304 -0.2446
51964SOL    HW163132   2.457   9.384   2.692 -1.9055 -0.1352  1.6315
51964SOL    HW263133   2.465   9.518   2.621 -4.1271 -0.0078  1.5314
51965SOL     OW63134   3.930   7.237   6.744 -0.0569  0.0094 -0.0420
51965SOL    HW163135   3.863   7.212   6.808 -0.0661 -0.2293 -0.1423
51965SOL    HW263136   3.944   7.158   6.693 -1.9473  0.8810 -2.0724
51966SOL     OW63137   0.299  11.745   0.184  0.4381 -0.0984 -0.0675
51966SOL    HW163138   0.310  11.757   0.278  0.4009 -0.4474 -0.0179
51966SOL    HW263139   0.334  11.825   0.145  0.6176 -0.0314  0.2326
51967SOL     OW63140  11.126   2.825  11.664  0.1739  0.3900  0.3336
51967SOL    HW163141  11.140   2.808  11.571 -0.9669  1.0391  0.0154
51967SOL    HW263142  11.213   2.822  11.703  0.5438 -1.1013 -0.5413
51968SOL     OW63143   6.491   4.396  10.725 -0.1277 -0.3901 -0.3645
51968SOL    HW163144   6.432   4.340  10.674 -0.1896 -1.0524  0.4097
51968SOL    HW263145   6.575   4.350  10.722  0.1626  0.1519 -0.8094
51969SOL     OW63146   2.553   9.430   1.273 -0.1425 -0.5320 -0.0507
51969SOL    HW163147   2.462   9.414   1.297  0.1644  0.6182  2.1869
51969SOL    HW263148   2.548   9.475   1.189 -1.6771 -0.1975  0.1843
51970SOL     OW63149   9.061  10.747   0.732 -0.4326 -0.0883  0.1872
51970SOL    HW163150   8.967  10.741   0.711 -1.0044  0.3567  2.3701
51970SOL    HW263151   9.097  10.804   0.663 -1.8874  0.2627 -0.3333
51971SOL     OW63152   2.977  10.597   1.178 -0.6216  0.3951 -0.0341
51971SOL    HW163153   2.960  10.678   1.226  0.7593  0.8654 -0.3074
51971SOL    HW263154   3.072  10.590   1.174 -0.6535 -2.1292  1.4544
51972SOL     OW63155   9.205   4.719   1.110  0.3502 -0.5524 -0.2965
51972SOL    HW163156   9.273   4.678   1.057 -0.1799 -1.7161 -0.0998
51972SOL    HW263157   9.142   4.649   1.128 -0.3411  0.2300  0.4508
51973SOL     OW63158  11.040  10.307  12.320  0.0616  0.1440 -0.3407
51973SOL    HW163159  10.946  10.319  12.310  0.3813  1.0158 -3.0082
51973SOL    HW263160  11.079  10.363  12.253  2.4610 -0.7674  0.1807
51974SOL     OW63161   1.831   2.231   8.326  0.2999 -0.2784  0.3725
51974SOL    HW163162   1.869   2.307   8.370 -1.1570  0.8405 -0.1957
51974SOL    HW263163   1.802   2.174   8.398  1.4310 -0.3299  0.8046
51975SOL     OW63164   6.786   1.508   1.082  0.4935 -0.4332  0.2198
51975SOL    HW163165   6.824   1.527   0.996 -0.2983 -3.1859 -0.8584
51975SOL    HW263166   6.692   1.525   1.071  0.6463  1.3393  1.2846
51976SOL     OW63167   7.116   6.053   9.269 -0.0629 -0.0960  0.2908
51976SOL    HW163168   7.052   6.007   9.324 -0.1352 -0.6230 -0.2209
51976SOL    HW263169   7.115   6.005   9.186  0.3449  0.4390 -0.0304
51977SOL     OW63170   9.345   3.765  12.076  0.3484  0.0654 -0.2323
51977SOL    HW163171   9.402   3.766  12.153  1.0325 -1.8633 -0.6518
51977SOL    HW263172   9.325   3.672  12.063 -1.0420  0.5094 -1.4546
51978SOL     OW63173   2.613   9.179   3.840  0.0385 -0.3479 -0.5507
51978SOL    HW163174   2.656   9.223   3.767  0.8747  1.3207  0.8794
51978SOL    HW263175   2.673   9.189   3.914 -0.6206 -2.2728  0.3306
51979SOL     OW63176   4.164  11.010  12.164  0.0258  0.1419 -0.3037
51979SOL    HW163177   4.214  10.931  12.147 -0.8206 -0.0157 -2.2104
51979SOL    HW263178   4.179  11.028  12.257  0.2250 -2.2366  0.1708
51980SOL     OW63179   9.863   4.885   7.725  0.0582 -0.3585 -0.4881
51980SOL    HW163180   9.920   4.957   7.753  1.0860 -1.5281  0.5677
51980SOL    HW263181   9.924   4.817   7.697 -0.8368 -1.3914  0.0190
51981SOL     OW63182   8.965   7.807   5.820 -0.4629  0.0532 -0.4242
51981SOL    HW163183   8.886   7.753   5.822  0.5725 -1.6963 -2.3427
51981SOL    HW263184   8.936   7.891   5.787 -1.6715 -0.2299 -0.1345
51982SOL     OW63185   4.302   8.213   1.127  0.0601 -0.2348 -0.2012
51982SOL    HW163186   4.365   8.147   1.155 -1.3904 -1.0590  1.3401
51982SOL    HW263187   4.220   8.164   1.116 -1.1517  1.3071  1.3638
51983SOL     OW63188   6.926   5.190   5.221  0.5111 -0.5881 -0.1437
51983SOL    HW163189   7.004   5.245   5.208 -0.6877  1.6851  1.5586
51983SOL    HW263190   6.879   5.194   5.138  0.4436  1.0290 -0.0525
51984SOL     OW63191   5.014   0.252   4.348  0.5923 -0.4505  0.0336
51984SOL    HW163192   4.985   0.179   4.294  0.9367  0.3412 -1.2517
51984SOL    HW263193   5.086   0.292   4.298  1.8786 -0.5302  1.7053
51985SOL     OW63194   0.984  11.403  12.706  0.0465  0.2491 -0.2045
51985SOL    HW163195   0.996  11.358  12.622  0.8363  0.4446 -0.1970
51985SOL    HW263196   1.060  11.461  12.714  1.0967 -1.2707  1.6051
51986SOL     OW63197   0.598   6.961   8.609  0.1236  0.7268 -0.1300
51986SOL    HW163198   0.618   6.886   8.665 -2.8006  0.3431  0.5591
51986SOL    HW263199   0.604   6.928   8.520 -0.4906 -0.1698  0.1500
51987SOL     OW63200   3.502   2.981   5.206 -0.3452 -0.1493 -0.0695
51987SOL    HW163201   3.470   3.013   5.290  0.1451  0.2334 -0.0219
51987SOL    HW263202   3.509   2.886   5.217  1.2997  0.0424  0.9006
51988SOL     OW63203  12.072   4.357   1.113  0.4507 -0.0780 -0.5857
51988SOL    HW163204  12.075   4.264   1.091 -0.6270  0.0366 -1.2464
51988SOL    HW263205  12.108   4.362   1.202  1.0769 -1.0390 -0.7737
51989SOL     OW63206  11.606   9.959   9.863  0.1031  0.5221 -0.2152
51989SOL    HW163207  11.694   9.922   9.857 -1.4960 -4.3156  1.5458
51989SOL    HW263208  11.562   9.929   9.784 -0.9270 -0.2627  0.6407
51990SOL     OW63209   8.382   9.787   7.130  0.3497  0.9160 -0.8274
51990SOL    HW163210   8.466   9.766   7.172  0.2785 -0.7665 -1.4511
51990SOL    HW263211   8.316   9.751   7.189  0.1863  0.0533 -1.5144
51991SOL     OW63212   9.411  11.083   7.935  0.0271 -0.2686  0.2786
51991SOL    HW163213   9.319  11.105   7.950 -0.7256 -2.5063 -0.6924
51991SOL    HW263214   9.442  11.050   8.019  0.3502  1.5926  0.9450
51992SOL     OW63215   7.593   3.406   8.748  0.9430  0.6573  0.4363
51992SOL    HW163216   7.505   3.445   8.747  1.0709  1.0831  2.2503
51992SOL    HW263217   7.583   3.323   8.701 -0.4606  0.6474  0.7079
51993SOL     OW63218   5.971   3.203   1.134 -0.2774 -0.2330 -0.2437
51993SOL    HW163219   5.920   3.177   1.058 -0.4335 -1.4977  0.2655
51993SOL    HW263220   5.920   3.273   1.175 -0.9321 -0.5629 -0.4832
51994SOL     OW63221   6.317   8.395   0.718 -0.3429 -0.5655  0.3472
51994SOL    HW163222   6.326   8.473   0.774 -0.0826 -1.3318  1.4193
51994SOL    HW263223   6.241   8.350   0.753 -1.4808 -0.0112 -1.2998
51995SOL     OW63224   1.840   0.013   3.387 -0.2093 -0.2791 -0.2675
51995SOL    HW163225   1.762  -0.022   3.431  0.1512  0.6540  1.1775
51995SOL    HW263226   1.805   0.078   3.326 -0.5518  1.1116  1.3178
51996SOL     OW63227   8.070   0.997   1.227  0.4557  0.4136  0.4478
51996SOL    HW163228   8.156   0.954   1.225  0.4600  0.4505 -0.3346
51996SOL    HW263229   8.046   0.997   1.320  0.7220 -0.7495  0.5359
51997SOL     OW63230   4.547   7.753   8.997 -0.0709  0.1570  0.1758
51997SOL    HW163231   4.454   7.741   8.980 -0.8618  2.3371  2.3289
51997SOL    HW263232   4.556   7.742   9.092  1.5484  1.5999  0.2417
51998SOL     OW63233   1.309   2.448   7.062  0.1580  0.2113  0.8849
51998SOL    HW163234   1.280   2.533   7.030 -0.1717  0.2244  1.2067
51998SOL    HW263235   1.396   2.436   7.024 -0.5771 -0.1994 -0.7948
51999SOL     OW63236   3.210   7.107   6.289  0.3242  0.2955 -0.4615
51999SOL    HW163237   3.127   7.095   6.335 -0.2410  0.7486 -1.3338
51999SOL    HW263238   3.250   7.021   6.288 -0.5563 -0.1245 -0.8080
52000SOL     OW63239   5.887  11.089   4.618  0.1835  0.5981  0.1874
52000SOL    HW163240   5.891  10.994   4.631 -0.9051  0.6346  0.9827
52000SOL    HW263241   5.828  11.101   4.543 -0.2853  0.6580  0.5589
52001SOL     OW63242   7.181   7.276   1.384 -0.2085  0.2687  0.1961
52001SOL    HW163243   7.173   7.371   1.378  0.4430  0.2873 -0.5434
52001SOL    HW263244   7.159   7.244   1.297  1.3146 -0.1211 -0.0675
52002SOL     OW63245   8.271   7.836   7.238 -0.5429  0.3080  0.0163
52002SOL    HW163246   8.239   7.806   7.153 -0.0748 -1.2003  0.3564
52002SOL    HW263247   8.253   7.764   7.298  1.2155  0.4066  0.7245
52003SOL     OW63248  11.585   8.242  11.822 -0.6935 -0.7852 -0.0051
52003SOL    HW163249  11.522   8.240  11.895 -1.9676 -2.4012 -1.0780
52003SOL    HW263250  11.538   8.286  11.751 -0.0035 -0.5374 -0.3134
52004SOL     OW63251   3.152   2.492   6.209 -0.0396 -0.0210 -0.0891
52004SOL    HW163252   3.154   2.444   6.126 -0.4954 -1.3058  0.6057
52004SOL    HW263253   3.151   2.584   6.184 -2.1279 -0.3855 -1.5658
52005SOL     OW63254  11.660   4.642   2.604  0.3136  0.1295  0.1171
52005SOL    HW163255  11.659   4.559   2.556 -0.0394 -0.0633  0.4512
52005SOL    HW263256  11.752   4.668   2.605  0.2089  0.6988 -1.6171
52006SOL     OW63257  10.901   0.966   1.013  0.0299 -0.0973 -0.0315
52006SOL    HW163258  10.879   0.902   0.946 -0.6146  0.5718 -0.4698
52006SOL    HW263259  10.818   0.983   1.058  0.5773 -1.1116  1.4729
52007SOL     OW63260   9.643   8.813   9.995 -0.3756 -0.4699  0.2399
52007SOL    HW163261   9.736   8.811   9.970 -0.0640 -0.9870  1.3765
52007SOL    HW263262   9.596   8.818   9.912  0.6834  0.4878 -0.3278
52008SOL     OW63263   7.348   3.843   0.181 -0.5831 -0.1568  0.2402
52008SOL    HW163264   7.358   3.760   0.133  1.7503 -0.2912  0.8407
52008SOL    HW263265   7.429   3.851   0.232 -1.7080  1.4440  1.8795
52009SOL     OW63266   0.709   5.888  10.924 -0.4821  0.2050  0.1722
52009SOL    HW163267   0.771   5.960  10.917  1.4125 -1.2154  1.2134
52009SOL    HW263268   0.667   5.883  10.838  1.6884  0.5518 -0.9684
52010SOL     OW63269  12.585   0.167   4.768 -0.3811 -0.3088  0.1133
52010SOL    HW163270  12.552   0.245   4.814 -0.3393  0.2528 -0.7904
52010SOL    HW263271  12.679   0.166   4.787 -0.6430 -1.0905  1.4918
52011SOL     OW63272   3.899  10.153   0.991 -0.2117 -0.1107  0.3698
52011SOL    HW163273   3.823  10.194   0.949  0.2492 -0.0618 -0.4456
52011SOL    HW263274   3.897  10.185   1.081  0.0562  1.6244 -0.1995
52012SOL     OW63275   9.081   3.479   2.844  0.0969 -0.1188  0.0664
52012SOL    HW163276   9.174   3.471   2.823  0.1814 -0.7525  0.6411
52012SOL    HW263277   9.036   3.443   2.767  0.1686  3.2620 -1.7608
52013SOL     OW63278  12.168   8.355  12.644 -0.5190  0.4124 -0.6679
52013SOL    HW163279  12.146   8.278  12.591 -2.8644  0.1562  0.5745
52013SOL    HW263280  12.107   8.352  12.717  2.2906  1.0232  1.8643
52014SOL     OW63281   9.453   3.860   6.121  0.4928  0.4455  0.0484
52014SOL    HW163282   9.449   3.777   6.073 -1.0175  0.8115 -0.5339
52014SOL    HW263283   9.544   3.869   6.147  1.1735 -0.2497 -1.9206
52015SOL     OW63284   4.007   2.192   5.381  0.2431  0.5054  0.1829
52015SOL    HW163285   4.027   2.113   5.431 -1.3967  0.4796  0.8633
52015SOL    HW263286   4.068   2.191   5.308  1.1177 -0.6961  0.9095
52016SOL     OW63287  11.757   4.111   4.507 -0.2709 -0.0516  0.2552
52016SOL    HW163288  11.716   4.197   4.495  1.2444  0.8126  1.0100
52016SOL    HW263289  11.741   4.089   4.599 -0.2734 -0.3763  0.1782
52017SOL     OW63290   0.870   6.221   4.303 -0.4233 -0.2348 -0.5441
52017SOL    HW163291   0.822   6.138   4.304 -0.3682 -0.3074  1.5853
52017SOL    HW263292   0.807   6.285   4.336 -0.2898  0.4792 -1.6365
52018SOL     OW63293   4.051   2.381   7.714 -0.1593 -0.2741 -0.2684
52018SOL    HW163294   4.077   2.460   7.761  0.0095  0.0533 -0.8987
52018SOL    HW263295   4.134   2.342   7.686 -0.2489 -0.5935 -0.1024
52019SOL     OW63296   0.210   3.871   9.325 -0.3660 -0.5236 -0.0402
52019SOL    HW163297   0.115   3.875   9.323 -0.4082 -0.7893  0.9354
52019SOL    HW263298   0.232   3.853   9.417  0.5731 -1.6290 -0.4437
52020SOL     OW63299   7.394   2.947  10.806  0.1090  0.0230 -0.6956
52020SOL    HW163300   7.441   3.030  10.816  1.7592 -1.1195  1.8499
52020SOL    HW263301   7.324   2.951  10.872  0.2663 -0.6664 -0.4836
52021SOL     OW63302   2.411  12.365  10.233 -0.2835 -0.3364 -0.1601
52021SOL    HW163303   2.351  12.438  10.245 -0.3781 -0.5923  0.9893
52021SOL    HW263304   2.453  12.354  10.318  0.3439 -1.0800 -0.5553
52022SOL     OW63305   6.713   1.827   3.552  0.3650 -0.0445 -0.2188
52022SOL    HW163306   6.782   1.768   3.582  1.0915  0.2697 -1.2079
52022SOL    HW263307   6.708   1.812   3.457 -0.4709  0.4164 -0.2605
52023SOL     OW63308   5.077  12.104  12.329  0.4150 -0.1029 -0.5031
52023SOL    HW163309   5.094  12.186  12.283  0.8862 -0.2171 -0.5330
52023SOL    HW263310   5.155  12.051  12.314  0.5858 -0.1336  0.4494
52024SOL     OW63311   8.382  11.850   7.565  0.1570 -0.3855 -0.4557
52024SOL    HW163312   8.326  11.858   7.487  0.5895 -1.7422 -0.9402
52024SOL    HW263313   8.394  11.939   7.595 -1.9195  0.0009 -0.5834
52025SOL     OW63314   9.504   9.565   5.881  0.5033 -0.6512  0.1111
52025SOL    HW163315   9.582   9.591   5.931 -0.3616  0.8280  0.7869
52025SOL    HW263316   9.510   9.616   5.800 -0.2659  0.2763  0.6218
52026SOL     OW63317   2.027   3.055   5.580  0.2533  0.3821  0.5847
52026SOL    HW163318   2.112   3.050   5.535  0.5878 -1.7270  1.3227
52026SOL    HW263319   2.049   3.060   5.673 -0.4418  0.8586  0.7272
52027SOL     OW63320  11.404   8.382  10.606  0.2950 -0.3640 -0.2844
52027SOL    HW163321  11.497   8.375  10.585  0.1567 -0.9670 -0.7062
52027SOL    HW263322  11.359   8.368  10.523 -0.1621  0.6967 -0.2421
52028SOL     OW63323   6.964   9.646   1.668 -0.2392  0.2759  0.0916
52028SOL    HW163324   6.969   9.562   1.623 -2.2977 -0.2631  0.7899
52028SOL    HW263325   6.962   9.711   1.597 -1.1736 -0.4143 -0.5337
52029SOL     OW63326   6.546   7.946  12.563  0.5907 -0.5939 -0.6014
52029SOL    HW163327   6.566   7.870  12.508 -0.2128 -1.1371 -0.1697
52029SOL    HW263328   6.458   7.928  12.597  1.3527 -0.6855  1.5063
52030SOL     OW63329   6.039   7.903  12.305 -0.3267 -0.3546 -0.4290
52030SOL    HW163330   6.018   7.928  12.395 -2.6037 -0.2557 -0.9234
52030SOL    HW263331   6.000   7.972  12.251  3.5403  1.2572 -1.5063
52031SOL     OW63332   1.119   8.566  11.537  0.1323 -0.5696  0.0065
52031SOL    HW163333   1.032   8.529  11.521  0.4500 -0.9977 -0.8491
52031SOL    HW263334   1.134   8.553  11.630 -2.1430  2.7309  0.9995
52032SOL     OW63335   4.407  11.230   5.605  0.3297  0.0162 -0.2249
52032SOL    HW163336   4.401  11.230   5.700 -1.9626  0.0910 -0.3119
52032SOL    HW263337   4.361  11.151   5.578  0.9890 -0.0268 -1.2802
52033SOL     OW63338   5.242   5.441   1.773  0.4980 -0.1296  0.0116
52033SOL    HW163339   5.177   5.434   1.843  0.2741  0.2802 -0.1509
52033SOL    HW263340   5.204   5.393   1.700 -0.0464  0.8674 -0.3834
52034SOL     OW63341   3.666  12.498  12.426  0.2165 -0.3544  0.0322
52034SOL    HW163342   3.759  12.475  12.436 -0.4169 -2.7392  1.4234
52034SOL    HW263343   3.628  12.477  12.511 -1.7841 -0.4558 -0.8394
52035SOL     OW63344   3.420   5.968   7.561 -0.8066 -0.0698 -0.6590
52035SOL    HW163345   3.391   6.058   7.579  0.8362  0.4022 -0.1690
52035SOL    HW263346   3.377   5.915   7.628  0.0040  0.7196  0.5427
52036SOL     OW63347   1.326   3.227   6.393 -0.3839  0.0898  0.0804
52036SOL    HW163348   1.258   3.294   6.396 -0.2780  0.1738  0.6310
52036SOL    HW263349   1.298   3.167   6.323 -1.0179  0.1188  0.3043
52037SOL     OW63350   0.363   6.337   9.441 -0.0959 -0.7838 -0.1518
52037SOL    HW163351   0.268   6.324   9.436 -0.4544  0.5662  1.7920
52037SOL    HW263352   0.400   6.249   9.435 -1.3594 -1.2381 -2.1631
52038SOL     OW63353  12.538   5.990  10.632 -0.9948  0.0121  0.3142
52038SOL    HW163354  12.577   5.910  10.667 -0.7138 -0.2279 -0.5279
52038SOL    HW263355  12.586   6.060  10.675 -0.5784 -0.2775  0.3306
52039SOL     OW63356   0.573   9.055   8.297 -0.6767  0.1011  0.1608
52039SOL    HW163357   0.599   9.145   8.315 -2.1855  0.7450 -0.6749
52039SOL    HW263358   0.606   9.038   8.209  0.6077 -0.5877  0.7548
52040SOL     OW63359   9.915   8.734   6.165 -0.3682 -0.2349  0.0820
52040SOL    HW163360   9.826   8.699   6.177  0.0508 -1.7700 -1.0035
52040SOL    HW263361   9.905   8.804   6.101 -0.6336 -1.2827 -1.0482
52041SOL     OW63362   0.320  11.826   0.445 -0.3414  0.7810  0.3106
52041SOL    HW163363   0.319  11.921   0.432 -2.2383  0.7901  0.3421
52041SOL    HW263364   0.396  11.812   0.502  0.5671  2.1405 -0.4867
52042SOL     OW63365   4.877   3.756   9.997 -0.4089  0.3178  0.0634
52042SOL    HW163366   4.935   3.824  10.033  1.6661 -0.8719 -0.8119
52042SOL    HW263367   4.855   3.788   9.910  0.2181  0.0763 -0.1878
52043SOL     OW63368   1.457   3.218  12.070  0.2372  0.6806 -0.0184
52043SOL    HW163369   1.433   3.303  12.034 -2.0142  0.5871  1.1093
52043SOL    HW263370   1.490   3.238  12.158  0.0606  0.4113  0.1074
52044SOL     OW63371  10.037   0.743  12.678  0.4191 -0.0918 -0.8826
52044SOL    HW163372  10.005   0.718  12.764  0.0622  1.0453 -0.6784
52044SOL    HW263373  10.053   0.837  12.684 -2.3048  0.6111 -2.8623
52045SOL     OW63374   4.808   6.141   6.297 -0.0574  0.0297  0.1232
52045SOL    HW163375   4.793   6.054   6.333 -1.6872  0.0298 -0.4817
52045SOL    HW263376   4.728   6.162   6.249  1.1537  0.9426 -1.6246
52046SOL     OW63377   2.904   1.718   9.188 -0.1420  0.6556 -0.3532
52046SOL    HW163378   2.944   1.772   9.256  0.5990  0.0156 -0.2790
52046SOL    HW263379   2.900   1.630   9.225 -3.1545  0.9590  0.3120
52047SOL     OW63380  12.044   5.217   6.484  0.2283  0.3422  0.3172
52047SOL    HW163381  12.001   5.226   6.569 -0.3255  2.7434 -0.1405
52047SOL    HW263382  12.127   5.264   6.494  1.6970 -2.0497  0.3992
52048SOL     OW63383   1.485   6.788   8.525 -0.0151  0.0846 -0.9591
52048SOL    HW163384   1.496   6.698   8.556 -2.0769 -0.6218 -2.0640
52048SOL    HW263385   1.468   6.839   8.604  3.5703  0.0542 -0.0138
52049SOL     OW63386   5.347   6.000   5.264 -0.0485 -0.2700 -0.2320
52049SOL    HW163387   5.341   6.061   5.338 -1.1876 -1.5323  0.7617
52049SOL    HW263388   5.412   6.039   5.206  0.9199  0.7352  1.4631
52050SOL     OW63389   5.518   2.315   0.820  0.2899  0.0686  0.2812
52050SOL    HW163390   5.515   2.408   0.795 -1.0361 -0.1909 -0.5820
52050SOL    HW263391   5.587   2.278   0.765 -1.0178  0.0006 -1.3909
52051SOL     OW63392   7.245   9.014   1.152  0.3363  0.1175  0.1540
52051SOL    HW163393   7.331   8.972   1.141  0.0992 -1.0216  2.1820
52051SOL    HW263394   7.207   9.014   1.064  1.4340 -1.5809 -0.3731
52052SOL     OW63395   1.311   4.663   3.725 -0.3809 -0.3687  0.4894
52052SOL    HW163396   1.320   4.675   3.819 -3.3025 -0.8022  0.9005
52052SOL    HW263397   1.218   4.647   3.711 -0.9140  3.7565 -2.9380
52053SOL     OW63398   1.891   4.114   8.680  1.0098 -0.0715 -0.6061
52053SOL    HW163399   1.870   4.049   8.747 -1.5640  0.0517 -1.2081
52053SOL    HW263400   1.898   4.063   8.599  2.0236  0.0599 -0.6246
52054SOL     OW63401  10.317  10.492  10.916 -0.4923 -0.0893 -0.0857
52054SOL    HW163402  10.240  10.521  10.867 -1.3622  0.5321  1.5641
52054SOL    HW263403  10.284  10.475  11.005  0.7703 -2.2898  0.0464
52055SOL     OW63404   4.782   6.080   1.831 -0.1481  0.1485  0.4377
52055SOL    HW163405   4.752   6.158   1.877 -1.1424  0.2533 -0.3313
52055SOL    HW263406   4.705   6.022   1.829 -0.6511  0.7353 -2.2533
52056SOL     OW63407   8.561  10.624   8.081 -0.0079 -0.0115  0.3691
52056SOL    HW163408   8.567  10.575   8.000  0.1632 -1.4020  1.1858
52056SOL    HW263409   8.540  10.558   8.148 -0.4144  1.1259  1.4122
52057SOL     OW63410   9.190   2.296   3.277 -0.0569 -0.5177  0.7051
52057SOL    HW163411   9.095   2.307   3.267  0.1512  0.8311  0.0433
52057SOL    HW263412   9.225   2.300   3.188  0.8880  1.9813  1.1195
52058SOL     OW63413   5.262  10.680   0.151 -0.0908  0.5134  0.1909
52058SOL    HW163414   5.185  10.736   0.148  0.1369  0.8578  0.5660
52058SOL    HW263415   5.313  10.713   0.225  0.5712  0.5023 -0.2408
52059SOL     OW63416   1.553   4.692   4.002 -0.9320  0.8459 -0.0914
52059SOL    HW163417   1.468   4.723   4.032 -0.7604  0.3769  0.9194
52059SOL    HW263418   1.607   4.689   4.081 -0.4695 -0.4607 -0.4283
52060SOL     OW63419   8.005  12.705   9.296  0.5519  0.2017 -0.4929
52060SOL    HW163420   7.913  12.694   9.272  0.8014 -2.4254 -0.5743
52060SOL    HW263421   8.049  12.730   9.215  0.4929 -2.8215 -1.5870
52061SOL     OW63422   5.307  11.698   2.223  0.2060 -0.3691 -0.2545
52061SOL    HW163423   5.225  11.744   2.204  0.6785  1.0308  0.9329
52061SOL    HW263424   5.324  11.646   2.144 -2.7744 -2.2128  0.1683
52062SOL     OW63425  11.415   4.167   2.061  0.3673 -0.4203 -0.5991
52062SOL    HW163426  11.394   4.166   2.154  0.6409  0.6066 -0.5064
52062SOL    HW263427  11.453   4.254   2.046 -0.6428 -0.1588 -1.8697
52063SOL     OW63428  11.237   3.909   9.461  0.2608  0.3009 -0.5651
52063SOL    HW163429  11.296   3.984   9.464 -1.0043  1.4494 -2.3272
52063SOL    HW263430  11.149   3.946   9.465 -0.5206 -1.4366  3.3448
52064SOL     OW63431   0.069   1.069  11.327 -0.1822  0.1106 -0.1662
52064SOL    HW163432   0.157   1.107  11.326  0.0202 -0.3355 -1.1716
52064SOL    HW263433   0.016   1.128  11.274 -0.5223  0.4295  0.5158
52065SOL     OW63434   0.273  10.093   6.149 -0.4175  0.3923 -0.1927
52065SOL    HW163435   0.259  10.103   6.243 -1.1794 -0.3880 -0.2066
52065SOL    HW263436   0.304  10.178   6.119  0.5249  0.4525  0.8848
52066SOL     OW63437  11.934   7.024   3.392  0.1361  0.3920 -0.7069
52066SOL    HW163438  11.957   7.057   3.305  0.2142  0.2755 -0.7308
52066SOL    HW263439  11.846   7.058   3.408  0.6808  1.6377 -0.2229
52067SOL     OW63440   1.385   9.008  11.350 -0.1869  0.3090 -0.2051
52067SOL    HW163441   1.424   9.020  11.437 -0.5206 -0.3224  0.0332
52067SOL    HW263442   1.367   9.097  11.320 -1.4773  0.4909  1.0189
52068SOL     OW63443   1.577   5.698   8.819  0.0204 -0.1975  0.3769
52068SOL    HW163444   1.530   5.617   8.799  1.2505 -0.2565 -2.9523
52068SOL    HW263445   1.648   5.671   8.877  0.2013 -1.4809 -0.3894
52069SOL     OW63446  10.881  11.976   9.197  0.9250 -0.1725 -0.4037
52069SOL    HW163447  10.936  12.054   9.207 -0.5879  1.0302 -1.0752
52069SOL    HW263448  10.838  11.987   9.113  1.8214 -2.5278 -1.2418
52070SOL     OW63449   0.133   4.720   1.461  0.2506 -0.6037  0.7156
52070SOL    HW163450   0.145   4.774   1.383 -3.9033  2.2503  1.7163
52070SOL    HW263451   0.099   4.637   1.428  2.3065 -1.0022 -0.6008
52071SOL     OW63452  12.666   9.797   8.769  0.0858 -0.0006  0.5118
52071SOL    HW163453  12.650   9.776   8.861  0.0125 -1.3990  0.1976
52071SOL    HW263454  12.638   9.888   8.760 -0.3954 -0.0138  1.7532
52072SOL     OW63455  10.164   3.679   0.656 -0.2330  0.4194 -0.2187
52072SOL    HW163456  10.169   3.747   0.723 -1.3276  1.1519 -0.8445
52072SOL    HW263457  10.098   3.711   0.594 -0.4077 -0.9866 -0.8025
52073SOL     OW63458   2.374   9.518   5.454  0.2532 -0.6045 -0.6778
52073SOL    HW163459   2.360   9.424   5.465  1.5442 -0.6367  1.4610
52073SOL    HW263460   2.358   9.554   5.541  0.0564  1.1267 -1.3973
52074SOL     OW63461   7.886  10.539  10.769 -0.3297 -0.4027  0.1568
52074SOL    HW163462   7.884  10.448  10.799  1.7594 -0.4662  0.2122
52074SOL    HW263463   7.812  10.580  10.813 -1.5703 -2.1509 -0.1807
52075SOL     OW63464   1.665   2.785   2.527 -0.1427 -0.3479  0.4024
52075SOL    HW163465   1.591   2.813   2.581 -0.8597 -0.4064 -0.5161
52075SOL    HW263466   1.659   2.839   2.449 -0.2540 -1.5407 -0.4396
52076SOL     OW63467   5.526   1.383  11.149  0.1277  0.3981 -0.0181
52076SOL    HW163468   5.453   1.331  11.114  1.3682 -0.9384 -0.7437
52076SOL    HW263469   5.593   1.318  11.171  1.0683  1.5812  0.7482
52077SOL     OW63470   7.605   5.163  12.389  0.0228  0.3579 -0.5188
52077SOL    HW163471   7.691   5.127  12.411  0.4585  1.1988 -0.8123
52077SOL    HW263472   7.624   5.245  12.345 -0.9332  0.4194 -0.8334
52078SOL     OW63473   6.744   9.609   4.028 -0.3401 -0.2900 -0.1014
52078SOL    HW163474   6.701   9.669   3.968 -1.3185 -1.9327 -1.1050
52078SOL    HW263475   6.823   9.656   4.056  0.6144  0.2482 -3.3115
52079SOL     OW63476   0.649   6.584   1.911  0.5283 -0.1542  1.0193
52079SOL    HW163477   0.687   6.597   1.824  1.9278 -0.7837  1.5043
52079SOL    HW263478   0.555   6.582   1.896  0.6908  0.8273 -0.3323
52080SOL     OW63479  12.497   6.003   3.363  0.5243 -0.3113  0.6508
52080SOL    HW163480  12.553   6.078   3.340  0.2177  0.3365  1.9383
52080SOL    HW263481  12.517   5.938   3.296  1.8162  0.4081  0.2837
52081SOL     OW63482   1.010   0.671   8.262 -0.0562 -0.5171  0.3563
52081SOL    HW163483   1.065   0.688   8.339  0.3376  0.7067 -0.1672
52081SOL    HW263484   1.013   0.753   8.213 -0.9119 -1.0398 -0.5890
52082SOL     OW63485   4.476  11.443   4.931  0.7463 -0.1740  0.2503
52082SOL    HW163486   4.535  11.517   4.918 -1.7930  1.6911 -2.0323
52082SOL    HW263487   4.440  11.456   5.018  2.8371 -0.7838  1.2624
52083SOL     OW63488   0.280  10.582  11.909  0.0659  0.4988 -0.3312
52083SOL    HW163489   0.327  10.639  11.849 -0.5182 -0.3430 -1.6209
52083SOL    HW263490   0.249  10.640  11.978  0.4397  1.5461 -1.0281
52084SOL     OW63491   5.641   0.641  10.589 -0.1354 -0.1505  0.4501
52084SOL    HW163492   5.651   0.561  10.538 -1.1032  0.1602 -0.2615
52084SOL    HW263493   5.588   0.615  10.664  0.6549 -0.4463  0.9176
52085SOL     OW63494   9.249   1.577  12.656 -0.0063 -0.2397 -0.2222
52085SOL    HW163495   9.299   1.607  12.580  3.1471 -1.1429  1.2952
52085SOL    HW263496   9.282   1.488  12.672 -1.6065 -0.6043  1.3946
52086SOL     OW63497   4.112   4.041   1.900  0.3654  0.3810  0.2580
52086SOL    HW163498   4.187   4.100   1.908 -0.2880  1.2353  0.3711
52086SOL    HW263499   4.038   4.100   1.886 -0.3181 -0.4287  0.3958
52087SOL     OW63500   2.238   6.899   5.337  0.2103  0.0905 -0.2506
52087SOL    HW163501   2.296   6.941   5.274 -0.0615  1.1940  0.2161
52087SOL    HW263502   2.277   6.918   5.423 -1.0659  1.2879  0.1071
52088SOL     OW63503   6.982  12.414   0.775 -0.2003  0.1685 -0.5168
52088SOL    HW163504   6.926  12.349   0.819 -1.1488  1.2708 -0.0497
52088SOL    HW263505   7.069  12.374   0.775 -0.4459 -0.4411  1.1518
52089SOL     OW63506   6.886  10.616   2.729  0.3992 -0.7384  0.1510
52089SOL    HW163507   6.802  10.572   2.720 -0.0408  0.0992  0.1667
52089SOL    HW263508   6.871  10.686   2.793  0.8860 -0.0458 -0.4766
52090SOL     OW63509  11.690   2.786  10.214  0.0557 -0.1236 -0.1620
52090SOL    HW163510  11.739   2.848  10.158 -1.0921  1.3228  0.3603
52090SOL    HW263511  11.675   2.834  10.295 -0.7627 -1.1507  0.3177
52091SOL     OW63512   6.314  10.340   7.101  0.2650 -0.0198  0.2981
52091SOL    HW163513   6.388  10.390   7.135  0.0775 -0.3522  1.2145
52091SOL    HW263514   6.312  10.360   7.007  1.1432  0.4586  0.3790
52092SOL     OW63515   0.739   7.407   3.834  0.1097 -0.2966  0.5687
52092SOL    HW163516   0.697   7.493   3.832  2.0072  0.6813  0.5267
52092SOL    HW263517   0.704   7.361   3.757 -1.6816  0.0202  1.1445
52093SOL     OW63518  11.510   6.188   6.195  0.1343 -0.1950  0.1189
52093SOL    HW163519  11.444   6.252   6.169 -1.4921 -2.0167 -0.4551
52093SOL    HW263520  11.554   6.228   6.270 -0.5277  1.7540 -0.4842
52094SOL     OW63521  11.496  12.105   7.954  0.4726  0.2579 -0.3719
52094SOL    HW163522  11.412  12.072   7.985  0.5279 -0.3434 -0.8471
52094SOL    HW263523  11.561  12.046   7.994  0.5224 -0.8063 -1.9318
52095SOL     OW63524   4.132  12.157   9.613 -0.0956  0.2247  0.2560
52095SOL    HW163525   4.159  12.243   9.646 -1.1633  1.4263 -1.8633
52095SOL    HW263526   4.121  12.169   9.519 -0.0311 -2.3208 -0.1469
52096SOL     OW63527   2.538   8.187  10.623  0.4229  0.3726 -0.0926
52096SOL    HW163528   2.465   8.133  10.592 -0.4382  0.4931  1.6222
52096SOL    HW263529   2.497   8.267  10.655  1.4319  0.9125 -0.1096
52097SOL     OW63530   4.563   7.084   3.959  0.0638 -0.4123  0.2255
52097SOL    HW163531   4.477   7.044   3.949 -0.3272  0.1030  1.2822
52097SOL    HW263532   4.564   7.155   3.894  0.2876 -1.3441 -0.8089
52098SOL     OW63533   1.382   0.361   1.734 -0.1262 -0.6949  0.0214
52098SOL    HW163534   1.288   0.353   1.751 -0.5097  1.6331 -0.6728
52098SOL    HW263535   1.418   0.398   1.814 -0.6107  2.5651 -1.1083
52099SOL     OW63536   4.291   7.209  12.525  0.4598  0.0163  0.2151
52099SOL    HW163537   4.275   7.115  12.537  2.3466 -0.2182  1.3212
52099SOL    HW263538   4.367   7.227  12.580  1.2064  1.8522 -1.3294
52100SOL     OW63539   4.039   2.997   2.525 -0.0298 -0.2948 -0.6590
52100SOL    HW163540   4.056   2.910   2.559  0.4447  0.1868  0.3746
52100SOL    HW263541   3.946   2.997   2.504 -0.0596 -1.0033 -0.5354
52101SOL     OW63542   6.865   7.538   0.801  0.5180  0.1189 -0.1853
52101SOL    HW163543   6.818   7.457   0.784  0.0625  0.1204  0.9970
52101SOL    HW263544   6.929   7.544   0.730  0.0742 -0.8975 -0.6873
52102SOL     OW63545   3.483   8.933  11.824 -0.3157 -0.8126  0.0103
52102SOL    HW163546   3.485   8.837  11.831 -0.7654 -0.7765  0.7831
52102SOL    HW263547   3.401   8.952  11.780 -0.2859 -0.7753 -0.0288
52103SOL     OW63548  11.470  11.120  10.961  0.1233 -0.2253 -0.1986
52103SOL    HW163549  11.423  11.036  10.957  0.9420 -0.7130  0.1202
52103SOL    HW263550  11.478  11.147  10.870 -1.2541  0.1545 -0.2318
52104SOL     OW63551   7.171   9.845  10.162  0.4429 -0.1525  0.1787
52104SOL    HW163552   7.079   9.838  10.136  0.6959 -1.3585 -0.4673
52104SOL    HW263553   7.211   9.901  10.095  0.5935 -1.3224 -0.7444
52105SOL     OW63554   2.153   8.558  12.420  0.0568  0.0365  0.0665
52105SOL    HW163555   2.169   8.463  12.425  1.7669  0.2598 -0.3183
52105SOL    HW263556   2.082   8.568  12.358 -0.6675 -1.0293  0.6854
52106SOL     OW63557   3.645   9.010   4.815  0.4011  0.2491  0.4648
52106SOL    HW163558   3.675   9.076   4.878 -0.0095  1.1659 -0.2739
52106SOL    HW263559   3.700   9.024   4.738  0.2251 -0.1950  0.2589
52107SOL     OW63560   9.986   1.178   2.080 -0.3696 -0.2745  0.4758
52107SOL    HW163561   9.966   1.099   2.030  0.0715 -0.9695  1.3807
52107SOL    HW263562  10.041   1.230   2.022 -1.3289 -0.2488 -0.4390
52108SOL     OW63563   2.904   5.725   1.869  0.3083  0.6468  0.5889
52108SOL    HW163564   2.904   5.685   1.782 -3.0255  1.0859  0.2675
52108SOL    HW263565   2.912   5.819   1.852 -0.4663  0.7424  0.7160
52109SOL     OW63566  10.177   8.864   7.207 -0.7272  0.6416 -0.0082
52109SOL    HW163567  10.240   8.860   7.279 -0.4386 -1.4822 -0.3158
52109SOL    HW263568  10.231   8.874   7.129 -0.6478 -1.5092 -0.3063
52110SOL     OW63569   0.294  11.250   9.007 -0.2347 -0.3100  0.6531
52110SOL    HW163570   0.264  11.323   8.953  0.4952 -1.2469 -1.1011
52110SOL    HW263571   0.326  11.291   9.087  2.5635  1.6184 -1.2891
52111SOL     OW63572   0.129   8.469  12.091 -0.4135 -0.3006 -0.3972
52111SOL    HW163573   0.188   8.543  12.104 -1.6587  0.7187 -0.3670
52111SOL    HW263574   0.187   8.396  12.067  1.0592  0.0917  1.7221
52112SOL     OW63575   8.614   5.403  12.196  0.1831  0.2303  0.7376
52112SOL    HW163576   8.561   5.464  12.247 -0.5227  0.3506 -0.1105
52112SOL    HW263577   8.623   5.326  12.251  0.8692  0.9986  1.7213
52113SOL     OW63578   7.843   5.018   2.943  0.2332  0.5633 -0.1470
52113SOL    HW163579   7.901   5.033   3.018  1.2153 -0.2278 -0.7247
52113SOL    HW263580   7.767   5.073   2.960  0.8950  1.1753  0.9235
52114SOL     OW63581   0.615  10.288   7.083  0.2272  0.1564  0.3383
52114SOL    HW163582   0.698  10.254   7.050  0.0716  0.6623 -0.5956
52114SOL    HW263583   0.604  10.372   7.039  0.6813  1.5406  2.6873
52115SOL     OW63584   8.370   4.888   1.545 -0.3592  0.1901  0.0622
52115SOL    HW163585   8.338   4.975   1.521 -0.6965 -0.1904 -0.9100
52115SOL    HW263586   8.416   4.858   1.467  2.4644  0.7242  1.3850
52116SOL     OW63587   0.060  11.516   9.089  0.0406  0.3835  0.2443
52116SOL    HW163588   0.090  11.494   9.000 -0.5440  2.3025 -0.4853
52116SOL    HW263589   0.140  11.543   9.134  0.2979 -0.2971  0.2007
52117SOL     OW63590   6.661  10.983   7.886  0.3547 -0.1263  0.1288
52117SOL    HW163591   6.578  11.001   7.843 -0.0709 -2.2094 -0.0410
52117SOL    HW263592   6.727  10.993   7.817 -0.1387 -1.6945 -0.6258
52118SOL     OW63593   1.148   5.013  10.203  0.6730 -0.1058 -0.4826
52118SOL    HW163594   1.098   4.969  10.272 -0.7372 -0.1071 -1.4551
52118SOL    HW263595   1.165   4.944  10.139 -1.0706  0.5539 -1.7524
52119SOL     OW63596  12.140   2.977   2.027  0.6676 -0.3542  0.4353
52119SOL    HW163597  12.182   3.024   2.099  1.2566  0.5968 -0.4869
52119SOL    HW263598  12.206   2.915   1.996  1.6409  1.4265 -1.2819
52120SOL     OW63599  10.906  12.070  12.702  0.3686 -0.2451 -0.6680
52120SOL    HW163600  10.865  12.155  12.717  1.6920  0.1251  1.1129
52120SOL    HW263601  10.987  12.090  12.655  1.3696 -0.3229  0.9441
52121SOL     OW63602   5.995   5.812   9.650 -0.3357  0.2624  0.3861
52121SOL    HW163603   5.954   5.872   9.712  1.0927  1.6429  0.0341
52121SOL    HW263604   5.923   5.784   9.593 -0.9066  2.2259  0.0893
52122SOL     OW63605  12.099   4.214   7.852  0.5447  0.0028 -0.6601
52122SOL    HW163606  12.074   4.303   7.827  2.1051  1.1823  1.6351
52122SOL    HW263607  12.188   4.204   7.818  0.9986 -0.0284  0.5065
52123SOL     OW63608   7.867   8.652   9.288  0.2300 -0.0170  0.1105
52123SOL    HW163609   7.958   8.662   9.259  0.0856  0.6472 -0.1130
52123SOL    HW263610   7.866   8.685   9.377  0.1567  0.1965  0.0304
52124SOL     OW63611  10.667   1.370   2.740 -0.2261 -0.2731  0.2724
52124SOL    HW163612  10.617   1.452   2.742 -0.5741 -0.4966  0.9475
52124SOL    HW263613  10.759   1.398   2.732 -0.4927  0.1181 -2.2471
52125SOL     OW63614   8.953   4.919   1.111 -0.1137  0.1650 -0.0578
52125SOL    HW163615   9.029   4.861   1.110 -0.1879  0.0654 -0.0377
52125SOL    HW263616   8.973   4.984   1.178 -0.0438  0.1424 -0.0563
52126SOL     OW63617   0.565  12.285   2.168  0.1844 -0.1432 -0.2082
52126SOL    HW163618   0.500  12.327   2.226  1.1506 -0.2030  0.9628
52126SOL    HW263619   0.532  12.196   2.158 -0.7994  0.2870 -1.0329
52127SOL     OW63620  10.360   8.215   6.315  0.0052 -0.8633 -0.3331
52127SOL    HW163621  10.439   8.267   6.299  0.3401 -1.5153 -0.8465
52127SOL    HW263622  10.291   8.279   6.328  0.4100 -0.2945 -0.9713
52128SOL     OW63623   4.701   8.588   6.282 -0.2204  0.1783  0.6622
52128SOL    HW163624   4.689   8.512   6.338  0.3691  1.0514  2.0145
52128SOL    HW263625   4.633   8.650   6.310  0.6191  0.9562  1.0321
52129SOL     OW63626  11.803   1.641   8.754  0.2581 -0.2830 -0.1075
52129SOL    HW163627  11.746   1.708   8.716  1.2331  1.9612  2.0915
52129SOL    HW263628  11.890   1.680   8.753  0.9335 -1.6806  0.9323
52130SOL     OW63629  12.376   3.920   0.063  0.3573  0.0224  0.6793
52130SOL    HW163630  12.407   3.909  -0.027  1.4541  0.2816  1.0014
52130SOL    HW263631  12.415   3.847   0.111 -3.4700 -2.5411  0.2542
52131SOL     OW63632  10.409   4.640  11.182 -0.5094 -0.7705  0.7545
52131SOL    HW163633  10.324   4.601  11.159 -0.3966 -0.7596  0.3069
52131SOL    HW263634  10.440   4.588  11.256 -1.0690 -0.5523  1.1513
52132SOL     OW63635   4.170   1.475   5.388 -0.0523 -0.1390 -1.4282
52132SOL    HW163636   4.147   1.389   5.425 -0.8230  0.7969  0.3828
52132SOL    HW263637   4.262   1.465   5.361  0.3901 -1.0825  0.2704
52133SOL     OW63638   4.847   9.398   8.729 -0.3353 -0.7726 -0.1210
52133SOL    HW163639   4.838   9.486   8.766  4.0798  0.0013 -0.2556
52133SOL    HW263640   4.887   9.411   8.643 -1.7632 -2.8828 -1.1935
52134SOL     OW63641  12.422   5.942   6.478  0.2962  0.9027 -0.1974
52134SOL    HW163642  12.442   5.851   6.500 -0.0531  0.8446 -0.1090
52134SOL    HW263643  12.460   5.993   6.550 -1.4168  0.6687  0.9451
52135SOL     OW63644   7.263   7.411   6.542 -0.5677  0.4777  0.0575
52135SOL    HW163645   7.277   7.503   6.518  0.2496 -0.0375 -1.5792
52135SOL    HW263646   7.187   7.414   6.601 -0.6153  2.1828 -0.0150
52136SOL     OW63647   6.592  11.650   7.878  0.0946 -0.6437  0.1463
52136SOL    HW163648   6.586  11.745   7.875 -0.3034 -0.6250  1.1325
52136SOL    HW263649   6.609  11.624   7.788  0.4275  0.3740 -0.0943
52137SOL     OW63650   1.365   2.694  10.293 -0.2083 -0.4018  0.1130
52137SOL    HW163651   1.377   2.617  10.238 -2.6806 -0.3325 -0.6524
52137SOL    HW263652   1.291   2.672  10.350 -2.8785  2.2377 -2.0122
52138SOL     OW63653   5.557  11.831   2.291 -0.3199 -0.0214 -0.2798
52138SOL    HW163654   5.525  11.921   2.281 -0.6691 -0.0443  0.5789
52138SOL    HW263655   5.478  11.778   2.291 -0.2134 -0.1854  0.7277
52139SOL     OW63656  11.825   6.996  11.261  0.3286 -0.0655 -0.0569
52139SOL    HW163657  11.763   7.056  11.303  1.7466  0.9851  0.6199
52139SOL    HW263658  11.851   6.935  11.330  1.3021  0.5541  0.1510
52140SOL     OW63659   1.718  10.262  10.336  0.3743 -0.4952 -0.3815
52140SOL    HW163660   1.775  10.300  10.403 -0.5901 -1.2312  0.8988
52140SOL    HW263661   1.687  10.180  10.375  0.2320 -1.2342 -1.9672
52141SOL     OW63662   6.301   5.293  12.589 -0.5796 -0.1949 -0.3259
52141SOL    HW163663   6.360   5.339  12.649  0.2418 -0.4404 -0.9156
52141SOL    HW263664   6.230   5.261  12.644  1.0621 -1.9973  0.8747
52142SOL     OW63665   1.364   8.462   9.109 -0.0573  0.3068  0.6901
52142SOL    HW163666   1.301   8.442   9.179  0.9689  0.8419  1.8255
52142SOL    HW263667   1.444   8.418   9.136  0.3324  0.4355 -0.2263
52143SOL     OW63668  12.008  10.667   0.631  0.1119 -0.4719 -0.1561
52143SOL    HW163669  11.979  10.578   0.614  3.0141 -1.3590 -0.9160
52143SOL    HW263670  12.029  10.702   0.545  0.6099  0.3539  0.2886
52144SOL     OW63671   2.976   1.289   6.740  0.1556  0.4258 -0.1650
52144SOL    HW163672   2.978   1.336   6.657  2.7602  1.5179  0.4161
52144SOL    HW263673   2.992   1.356   6.806 -1.3749 -0.4947  1.2399
52145SOL     OW63674   9.265  11.792   3.822  0.0422 -0.2388 -0.0333
52145SOL    HW163675   9.187  11.740   3.802 -0.4098  0.9622 -1.5178
52145SOL    HW263676   9.241  11.842   3.900 -0.5805 -0.0987 -0.3091
52146SOL     OW63677   7.839  11.418   5.404  0.2664  0.5977 -0.1822
52146SOL    HW163678   7.904  11.414   5.474 -0.4596  0.5622  0.5049
52146SOL    HW263679   7.863  11.348   5.344  1.1094  0.8590 -0.1593
52147SOL     OW63680   9.401   6.712   1.258  0.1772 -0.2164 -0.3742
52147SOL    HW163681   9.429   6.748   1.173  1.6472 -0.7648 -0.1565
52147SOL    HW263682   9.369   6.624   1.237  0.1890 -0.2110 -0.4148
52148SOL     OW63683   5.335  12.355  11.739 -0.8843 -0.4708  0.0808
52148SOL    HW163684   5.310  12.412  11.667  2.1762 -0.2436 -0.9561
52148SOL    HW263685   5.335  12.267  11.701  0.4518 -0.3835 -0.1710
52149SOL     OW63686   5.141   4.463   0.732  0.2341 -0.8489 -0.0664
52149SOL    HW163687   5.163   4.498   0.646  0.1378  1.5246  0.8058
52149SOL    HW263688   5.180   4.525   0.794 -1.1289 -1.5584  1.5778
52150SOL     OW63689   3.525  12.534   0.144 -0.5041  0.5427  0.2337
52150SOL    HW163690   3.443  12.577   0.119 -0.4809 -0.0892 -1.0562
52150SOL    HW263691   3.499  12.447   0.172 -0.1836 -0.2068 -1.6593
52151SOL     OW63692   6.362   7.806   5.633  0.9463 -0.1694  0.0132
52151SOL    HW163693   6.284   7.843   5.674  0.3076 -0.1846 -1.1317
52151SOL    HW263694   6.352   7.827   5.540  1.3549 -1.8140 -0.4367
52152SOL     OW63695   9.650   9.042   3.481 -0.3356  0.4691 -0.1891
52152SOL    HW163696   9.624   8.950   3.489  0.2791  0.3690  0.9453
52152SOL    HW263697   9.672   9.068   3.570  0.2040  1.5100 -0.6104
52153SOL     OW63698   9.784   1.238  12.021 -0.1542  0.2433 -0.3088
52153SOL    HW163699   9.770   1.332  12.014  1.0917  0.4061 -1.0174
52153SOL    HW263700   9.858   1.230  12.082  0.5785 -0.1730 -1.2136
52154SOL     OW63701   9.361  10.928   3.979  0.6733  0.1673  0.7984
52154SOL    HW163702   9.340  10.915   4.071 -5.0816 -3.4068 -0.5116
52154SOL    HW263703   9.284  10.973   3.943  2.3828  0.7977 -2.4467
52155SOL     OW63704   8.405   7.728   4.599 -0.0416  0.4112 -0.2945
52155SOL    HW163705   8.406   7.701   4.691  1.2906  1.0925 -0.0919
52155SOL    HW263706   8.374   7.650   4.552  1.4022 -0.6948  0.5112
52156SOL     OW63707   8.016  12.175   5.707  0.6974 -0.2408 -0.1276
52156SOL    HW163708   8.087  12.228   5.742 -0.0022  0.6009  0.0384
52156SOL    HW263709   8.059  12.097   5.672  1.5350 -0.5285  1.4849
52157SOL     OW63710   0.360  12.644   0.878 -0.1302  0.5388  0.0311
52157SOL    HW163711   0.289  12.708   0.868 -0.7824 -0.3289 -1.1009
52157SOL    HW263712   0.317  12.559   0.875  0.8132  0.0162  0.7676
52158SOL     OW63713   2.027   2.813   3.808 -0.2058  0.3066  0.0099
52158SOL    HW163714   1.981   2.752   3.750  1.6734  0.7755 -2.1057
52158SOL    HW263715   2.038   2.764   3.889 -1.2860 -1.1003 -0.6407
52159SOL     OW63716   8.401  12.436   3.521  0.2794 -0.1263 -0.2008
52159SOL    HW163717   8.478  12.449   3.576  0.7705 -1.5427 -0.5166
52159SOL    HW263718   8.415  12.351   3.479 -1.6924 -0.6595  0.1260
52160SOL     OW63719   0.506   3.086   7.527 -0.2967  0.3633 -0.0828
52160SOL    HW163720   0.490   2.992   7.540 -1.0487  0.6709  1.4990
52160SOL    HW263721   0.596   3.099   7.557 -0.0618  0.0945 -0.6590
52161SOL     OW63722  12.300   9.536   0.307 -0.3702  0.8141  0.6728
52161SOL    HW163723  12.323   9.606   0.367 -0.0218 -0.5036  2.1428
52161SOL    HW263724  12.384   9.506   0.271 -0.6089  1.9602 -0.9799
52162SOL     OW63725   5.201   7.246  10.876  0.4297  0.7381 -0.0185
52162SOL    HW163726   5.220   7.250  10.969 -0.5480  2.0148  0.1560
52162SOL    HW263727   5.109   7.273  10.869  0.0241 -0.8102 -1.2240
52163SOL     OW63728   0.167   7.152   7.516  0.0961 -0.5002 -0.4221
52163SOL    HW163729   0.104   7.201   7.463  0.1207 -0.6753 -0.6176
52163SOL    HW263730   0.126   7.067   7.530  0.5849 -0.8698 -1.1532
52164SOL     OW63731   3.921   6.463   3.639 -0.0590 -0.2557  0.9453
52164SOL    HW163732   4.008   6.454   3.678 -0.0786  0.1941  1.1073
52164SOL    HW263733   3.901   6.557   3.648  1.1057  0.4881 -2.5904
52165SOL     OW63734  11.298   1.406   3.570 -0.4269  0.2324  0.1143
52165SOL    HW163735  11.241   1.418   3.493 -1.9177 -0.1299  1.1266
52165SOL    HW263736  11.253   1.452   3.640  1.4341  1.4390  0.5903
52166SOL     OW63737   9.622  10.108   3.699  0.2313  0.2637  0.2117
52166SOL    HW163738   9.631  10.056   3.779  1.2960 -0.2071 -0.1955
52166SOL    HW263739   9.603  10.197   3.730 -0.1668 -0.0754  0.9600
52167SOL     OW63740   1.661   9.376   0.793 -0.2830  0.3213  0.0508
52167SOL    HW163741   1.707   9.427   0.727 -0.0207 -0.0218 -0.0379
52167SOL    HW263742   1.672   9.426   0.874  1.6114 -0.4922  0.3688
52168SOL     OW63743  10.764   0.128   3.697  0.0307 -0.0863  0.4604
52168SOL    HW163744  10.718   0.142   3.615  1.3973 -1.2248 -0.5718
52168SOL    HW263745  10.818   0.050   3.680  0.6231 -0.1215  2.3164
52169SOL     OW63746   3.720  12.419  11.294  0.2939  0.3782 -0.0463
52169SOL    HW163747   3.750  12.472  11.220  2.2233 -0.1734  0.2945
52169SOL    HW263748   3.781  12.346  11.298 -0.3732 -0.1339  1.4961
52170SOL     OW63749   4.088   4.444  11.943 -0.2982 -0.2702 -0.9046
52170SOL    HW163750   4.069   4.383  11.872 -1.0413  1.1294 -1.9593
52170SOL    HW263751   4.009   4.498  11.951 -0.3747 -0.5962  1.2331
52171SOL     OW63752   9.523   2.159   3.701 -0.1912 -0.0096  0.5253
52171SOL    HW163753   9.456   2.139   3.766 -0.5816  1.3648  0.5844
52171SOL    HW263754   9.588   2.211   3.749 -1.0445  1.9917 -0.3815
52172SOL     OW63755   5.834   6.243   8.095  0.7480  0.0671 -0.1479
52172SOL    HW163756   5.807   6.329   8.128  1.0401 -0.0830  0.4926
52172SOL    HW263757   5.909   6.261   8.039 -0.0564  0.3791 -1.1567
52173SOL     OW63758   7.147   9.173   8.386 -0.0452  0.1479  0.1501
52173SOL    HW163759   7.118   9.242   8.446  1.2269 -0.1571  1.1436
52173SOL    HW263760   7.193   9.220   8.316 -1.3694  0.4863 -0.5362
52174SOL     OW63761  10.177   2.828   3.733 -0.4080 -0.1636  0.6918
52174SOL    HW163762  10.090   2.793   3.751 -0.9841  0.8112 -0.0508
52174SOL    HW263763  10.172   2.920   3.760  0.1551  0.0869 -0.0201
52175SOL     OW63764   7.985  12.406   5.534  0.2974  0.6408  0.1635
52175SOL    HW163765   7.995  12.319   5.573  0.4765  1.2390  1.5235
52175SOL    HW263766   8.054  12.410   5.467  0.8647  0.0487  0.6922
52176SOL     OW63767   7.800   1.620   8.251 -0.1341 -0.1577  0.4775
52176SOL    HW163768   7.868   1.554   8.235  0.8900  0.7941  0.7605
52176SOL    HW263769   7.762   1.637   8.165  1.3760  0.7363 -0.0496
52177SOL     OW63770   2.864   2.683   4.462  0.3360  0.4072  0.0866
52177SOL    HW163771   2.947   2.657   4.421  1.1591 -1.7593  2.8037
52177SOL    HW263772   2.889   2.744   4.531 -0.8299  2.5493 -1.2645
52178SOL     OW63773   6.337  10.114   3.234  0.0826  0.2509  0.2292
52178SOL    HW163774   6.398  10.188   3.233 -1.1358  1.2735 -0.0800
52178SOL    HW263775   6.263  10.144   3.286  0.2784 -1.3644  1.5163
52179SOL     OW63776   4.422   8.810   9.804 -0.3040 -0.0237 -0.4037
52179SOL    HW163777   4.416   8.905   9.817 -0.2126 -0.2401  1.5119
52179SOL    HW263778   4.391   8.773   9.887 -1.4630 -1.7005 -1.5394
52180SOL     OW63779  12.393   2.332   6.396 -0.3908 -0.1034 -0.3405
52180SOL    HW163780  12.339   2.253   6.385 -0.2193 -0.3216  0.3287
52180SOL    HW263781  12.481   2.298   6.414 -0.2488  0.2460 -0.3833
52181SOL     OW63782  10.984   7.933  11.709  0.5168  0.6588 -0.2016
52181SOL    HW163783  10.974   7.981  11.791 -0.7243 -1.6590  1.0936
52181SOL    HW263784  10.933   7.983  11.645 -0.5879  1.1622  1.0473
52182SOL     OW63785   2.666   3.935   1.429  1.0584 -0.1367  0.4892
52182SOL    HW163786   2.675   3.849   1.387  2.3934 -0.3567  1.1691
52182SOL    HW263787   2.642   3.915   1.520  0.8514  0.2298  0.5165
52183SOL     OW63788   9.487   8.532   0.084 -0.0333 -0.3027  0.3398
52183SOL    HW163789   9.479   8.572   0.170  0.7628  0.7807 -0.0588
52183SOL    HW263790   9.564   8.574   0.045 -0.6523 -0.4085 -1.0776
52184SOL     OW63791  11.142  11.528   1.268  0.1295  0.1768 -0.5589
52184SOL    HW163792  11.106  11.475   1.338 -1.7672  0.0928 -1.5289
52184SOL    HW263793  11.120  11.618   1.292 -0.1062  0.1880 -0.8080
52185SOL     OW63794   0.958  12.060   8.673  0.0858 -0.6956 -0.7649
52185SOL    HW163795   0.921  11.995   8.732 -0.0475 -0.4447 -0.5736
52185SOL    HW263796   1.045  12.079   8.709 -1.0131  1.5192  0.9929
52186SOL     OW63797  11.976   0.430   9.440 -0.3327 -0.1362  0.0827
52186SOL    HW163798  11.964   0.336   9.424 -0.9847 -0.3310  1.5418
52186SOL    HW263799  11.893   0.459   9.477  0.4093  0.6499  1.1825
52187SOL     OW63800  11.123  11.881   4.496 -0.1150 -0.3122 -0.1153
52187SOL    HW163801  11.120  11.859   4.403 -1.8420  0.9973 -0.4029
52187SOL    HW263802  11.061  11.822   4.537  0.7063 -0.9468  0.2553
52188SOL     OW63803   6.597   3.029   0.562  0.3322  0.3511 -0.1326
52188SOL    HW163804   6.665   3.034   0.629  0.5980 -1.6079 -0.1965
52188SOL    HW263805   6.627   3.088   0.492  0.7627  1.3017  0.8318
52189SOL     OW63806   9.469   9.596   0.348 -0.4180 -0.3048  0.6543
52189SOL    HW163807   9.557   9.628   0.326 -0.6024 -1.2948 -1.8182
52189SOL    HW263808   9.415   9.675   0.352  0.4127  0.2519  1.5367
52190SOL     OW63809   4.798   1.241   1.280 -0.3846  0.2787 -0.3537
52190SOL    HW163810   4.818   1.320   1.229 -0.2086  0.5194  0.0888
52190SOL    HW263811   4.705   1.249   1.302  0.1715  1.5852  1.7772
52191SOL     OW63812  12.338  10.461   1.535  0.1194  0.1976  0.2900
52191SOL    HW163813  12.294  10.542   1.509 -0.4099 -0.1418  0.0898
52191SOL    HW263814  12.302  10.441   1.621 -2.7714 -1.8624 -1.2324
52192SOL     OW63815   4.194   7.193  12.219  1.1221  0.3453 -0.5346
52192SOL    HW163816   4.212   7.197  12.313  0.4072  3.3239 -0.4327
52192SOL    HW263817   4.098   7.187  12.214  1.0046  1.9827 -0.9996
52193SOL     OW63818   8.002   2.145  10.936  0.2338 -0.3661  0.0195
52193SOL    HW163819   7.961   2.065  10.903 -1.1377  1.0170 -1.8586
52193SOL    HW263820   8.090   2.144  10.900  0.7155 -1.6393  1.1352
52194SOL     OW63821   6.178   5.155  11.991  0.4474 -0.1652 -0.5757
52194SOL    HW163822   6.140   5.084  11.941  1.7274 -0.7181 -0.8192
52194SOL    HW263823   6.249   5.188  11.935  0.1978  0.9655 -0.2510
52195SOL     OW63824  11.069   6.117   4.922  0.2887 -0.1662 -0.2834
52195SOL    HW163825  11.036   6.169   4.848 -1.5602  1.1717  1.3742
52195SOL    HW263826  11.153   6.156   4.943  0.4971 -0.0950 -1.1996
52196SOL     OW63827   8.051   2.888   4.874  0.1751  0.3351  0.0745
52196SOL    HW163828   8.066   2.967   4.822 -0.0981  0.4060  0.0991
52196SOL    HW263829   8.025   2.921   4.960  2.8631  0.2533  1.0043
52197SOL     OW63830   8.638   7.895   0.769 -0.1287 -1.1683 -0.3658
52197SOL    HW163831   8.663   7.831   0.835 -0.3241 -1.4638 -0.5782
52197SOL    HW263832   8.607   7.971   0.819  1.8659 -0.4942 -0.0644
52198SOL     OW63833   9.491   4.918   5.785 -0.1550 -0.2551 -0.2860
52198SOL    HW163834   9.544   4.945   5.860  0.2728 -0.9395 -0.3316
52198SOL    HW263835   9.424   4.986   5.777 -0.4288 -0.3584  0.9403
52199SOL     OW63836   3.582   0.607   5.369 -0.7300  0.0528 -0.4257
52199SOL    HW163837   3.579   0.566   5.283  2.8796 -0.8618 -0.2577
52199SOL    HW263838   3.509   0.669   5.369 -1.8378 -1.0897 -3.4723
52200SOL     OW63839   5.294   3.836   0.704 -0.1317 -0.3271 -1.0144
52200SOL    HW163840   5.281   3.913   0.649  2.2172  0.7261 -0.2225
52200SOL    HW263841   5.388   3.822   0.703 -0.2213 -1.4516  1.1896
52201SOL     OW63842   1.379   3.058   3.196  0.1327 -0.1391 -0.2830
52201SOL    HW163843   1.441   3.131   3.205 -1.3328  1.4089 -2.0804
52201SOL    HW263844   1.418   3.001   3.131  0.8623 -0.5516  0.4881
52202SOL     OW63845  12.207   6.993   3.892  0.1251 -0.1916  0.4155
52202SOL    HW163846  12.218   6.934   3.817 -1.1422 -2.2532  1.7517
52202SOL    HW263847  12.297   7.018   3.916  0.6031 -0.3719 -1.0808
52203SOL     OW63848  10.645  10.415   1.961  0.1527 -0.0603 -0.3026
52203SOL    HW163849  10.648  10.395   1.868  2.1680 -0.0935 -0.2870
52203SOL    HW263850  10.706  10.489   1.972 -0.7181  0.5169  0.8577
52204SOL     OW63851  12.617   5.386   5.870 -0.0610 -0.0727  0.2469
52204SOL    HW163852  12.523   5.398   5.868  0.2042  2.5472  0.5725
52204SOL    HW263853  12.650   5.459   5.923  2.2874  0.1059 -1.3130
52205SOL     OW63854   7.279   9.316   6.697  0.2671  0.2951  0.2407
52205SOL    HW163855   7.223   9.252   6.652 -0.4249  0.5678  0.6864
52205SOL    HW263856   7.298   9.276   6.781 -2.0267  1.5494  1.4564
52206SOL     OW63857   8.918   4.926  12.378  0.4383  0.3083  0.1193
52206SOL    HW163858   8.870   4.854  12.337  0.8309 -0.9379  1.7403
52206SOL    HW263859   8.981   4.954  12.312 -0.8848  0.3775 -1.1704
52207SOL     OW63860   8.544   5.893  10.204 -0.5188 -0.2538  0.3929
52207SOL    HW163861   8.533   5.942  10.122 -0.3578 -0.2962  0.3468
52207SOL    HW263862   8.603   5.821  10.182  0.7050  0.5639  0.8898
52208SOL     OW63863   9.530   8.012   4.553  0.1104 -0.5010  0.5184
52208SOL    HW163864   9.455   7.959   4.580 -0.0926  0.0143  0.9958
52208SOL    HW263865   9.605   7.973   4.598  0.1507 -1.0647 -0.0222
52209SOL     OW63866   3.490   7.353   0.567  0.7074  0.2441  0.3995
52209SOL    HW163867   3.568   7.399   0.535 -0.0965  0.5692 -1.1495
52209SOL    HW263868   3.525   7.286   0.627  2.3577 -0.8938 -1.6989
52210SOL     OW63869   1.625   2.748   6.450 -0.1955  0.1811  0.5039
52210SOL    HW163870   1.619   2.769   6.543 -0.8016  0.0627  0.4913
52210SOL    HW263871   1.610   2.653   6.446  1.1275 -0.0519  0.4151
52211SOL     OW63872   5.948   6.098   3.426 -0.2831  0.1048 -0.4900
52211SOL    HW163873   5.926   6.041   3.353  0.3220  0.5906 -1.0652
52211SOL    HW263874   5.964   6.184   3.386  2.6254 -0.1744 -0.1680
52212SOL     OW63875   3.883   3.637   1.547 -0.0442  0.5524  0.2540
52212SOL    HW163876   3.896   3.661   1.455 -0.9155 -1.2169 -0.3900
52212SOL    HW263877   3.822   3.702   1.581 -0.0870  0.9518 -0.5623
52213SOL     OW63878   5.550   8.201  11.195  0.1134 -0.0248 -0.0015
52213SOL    HW163879   5.515   8.274  11.142  1.3060 -0.3127 -1.2462
52213SOL    HW263880   5.520   8.220  11.284  0.3441  1.9859 -0.2921
52214SOL     OW63881   3.389   0.524   0.487 -0.5656  0.1694  0.4024
52214SOL    HW163882   3.355   0.585   0.553 -0.5186 -0.0868  0.6688
52214SOL    HW263883   3.321   0.457   0.479 -1.0369  0.7436 -0.5736
52215SOL     OW63884   2.679  11.803   8.803  0.3816  0.3394 -0.3707
52215SOL    HW163885   2.635  11.886   8.784  0.4330  0.6852  0.8830
52215SOL    HW263886   2.752  11.828   8.861 -0.6772 -0.7591  1.5328
52216SOL     OW63887   8.741   3.890   7.213  0.0294  0.0533  0.7694
52216SOL    HW163888   8.816   3.914   7.267  1.4544  0.9097 -1.4658
52216SOL    HW263889   8.758   3.800   7.186 -0.3413 -0.1472  1.1979
52217SOL     OW63890   2.148  10.001   7.856  0.8836  0.5278 -0.2052
52217SOL    HW163891   2.209  10.074   7.849 -0.8404  1.8852 -3.0765
52217SOL    HW263892   2.062  10.042   7.857 -0.0873 -1.4159 -0.0622
52218SOL     OW63893   6.983   3.308   9.983  0.4168 -0.2460 -0.6808
52218SOL    HW163894   6.970   3.290  10.076  4.1842 -2.6424 -0.3715
52218SOL    HW263895   7.036   3.388   9.981  1.5795 -0.9814 -0.5738
52219SOL     OW63896   6.258  12.359   6.729  0.0238 -0.0928  0.3465
52219SOL    HW163897   6.188  12.365   6.664 -0.1461  0.8669  0.6069
52219SOL    HW263898   6.225  12.298   6.795  0.3934 -1.4729 -0.6812
52220SOL     OW63899   3.113  11.939   5.450  0.8811  0.0399 -0.7013
52220SOL    HW163900   3.022  11.927   5.423  1.2746  1.3616 -2.9520
52220SOL    HW263901   3.130  12.032   5.436  2.7772 -0.3159 -1.0741
52221SOL     OW63902   4.888   0.022   4.269  0.1632 -0.0633  0.6284
52221SOL    HW163903   4.823   0.010   4.339 -1.0400 -0.2665 -0.4872
52221SOL    HW263904   4.838   0.054   4.195  1.2521 -0.7898 -0.4581
52222SOL     OW63905   7.578   7.392   5.247 -0.0242  0.0053 -0.2210
52222SOL    HW163906   7.515   7.337   5.199  0.4557 -0.8065  0.0671
52222SOL    HW263907   7.663   7.364   5.215  0.3397 -0.8910  1.4351
52223SOL     OW63908  10.875   2.505  10.936  0.1696 -0.1649 -0.0538
52223SOL    HW163909  10.869   2.594  10.970  0.8367  0.4274 -1.4003
52223SOL    HW263910  10.785   2.481  10.913 -0.1962 -0.3467  1.5169
52224SOL     OW63911  11.507   0.173  11.342 -0.1281 -0.7793 -0.2849
52224SOL    HW163912  11.559   0.169  11.422  1.1382 -1.5158 -1.1097
52224SOL    HW263913  11.420   0.142  11.368 -0.3718  0.9866  1.2379
52225SOL     OW63914   0.264   8.160   1.891  0.4301 -0.0283  0.4382
52225SOL    HW163915   0.247   8.229   1.956  0.9559  2.1564 -1.6283
52225SOL    HW263916   0.197   8.094   1.909 -0.3741  1.1784  2.2288
52226SOL     OW63917   0.555   9.587  11.246  0.2486 -0.6369 -0.1980
52226SOL    HW163918   0.644   9.564  11.221  0.6116  1.6750 -1.2919
52226SOL    HW263919   0.565   9.663  11.303 -1.0099 -0.6531  0.0701
52227SOL     OW63920   6.759   3.517  12.054  0.1535 -0.1691  0.0978
52227SOL    HW163921   6.740   3.462  12.130 -0.0979 -0.6913 -0.3341
52227SOL    HW263922   6.678   3.516  12.003  0.4888 -0.2475 -0.4370
52228SOL     OW63923  10.458   0.237   4.612 -0.7089  0.5056  0.0370
52228SOL    HW163924  10.391   0.304   4.627 -1.2345 -0.2584  1.2870
52228SOL    HW263925  10.451   0.179   4.688  0.0710 -0.6817 -0.7649
52229SOL     OW63926   4.532   1.080   1.125  0.3211  0.3801 -0.1688
52229SOL    HW163927   4.486   1.132   1.059 -0.7844 -0.0564  0.2375
52229SOL    HW263928   4.463   1.047   1.182  1.1361 -0.3743  0.4071
52230SOL     OW63929   2.954  10.912   2.173  0.3606  0.6143 -0.2017
52230SOL    HW163930   3.034  10.874   2.135  0.1568  1.6919 -1.7648
52230SOL    HW263931   2.983  10.994   2.213 -0.0651  1.4216 -1.4932
52231SOL     OW63932   2.798   8.218   6.462  0.2639  0.0331 -0.3329
52231SOL    HW163933   2.842   8.136   6.441 -1.1382 -0.5424 -1.1483
52231SOL    HW263934   2.745   8.238   6.384  0.8107  1.8832 -0.2853
52232SOL     OW63935   8.590   4.363   3.026  0.0392 -0.1126  0.4340
52232SOL    HW163936   8.509   4.413   3.038  1.1473  2.4579 -1.7657
52232SOL    HW263937   8.561   4.279   2.991 -1.7237  0.7600 -0.3538
52233SOL     OW63938   8.192   9.071   0.557 -0.3850  0.8524 -0.1425
52233SOL    HW163939   8.097   9.074   0.552 -0.3895  2.3410  0.5485
52233SOL    HW263940   8.211   8.985   0.596 -1.3688  0.1014 -1.2515
52234SOL     OW63941   1.037  10.002  10.779 -0.0114  0.3136  0.2243
52234SOL    HW163942   1.093   9.995  10.702  0.7916  1.3013  0.7099
52234SOL    HW263943   0.958  10.047  10.747  0.5713  1.2717  0.0950
52235SOL     OW63944  12.509   9.103   5.495  0.2069  0.2809 -0.3422
52235SOL    HW163945  12.525   9.014   5.464  0.7598 -0.5076  2.0428
52235SOL    HW263946  12.592   9.149   5.480 -0.2869  0.6759 -2.2205
52236SOL     OW63947   5.326  11.388   7.269 -0.1423 -0.3339  0.4184
52236SOL    HW163948   5.295  11.478   7.275  1.3652  0.3327 -0.9586
52236SOL    HW263949   5.421  11.396   7.261 -0.0648 -1.9565 -0.8387
52237SOL     OW63950   8.004  12.607  11.053 -0.5357  0.3432  0.2570
52237SOL    HW163951   8.041  12.554  11.123 -3.2860 -0.1310  1.4866
52237SOL    HW263952   7.942  12.549  11.008 -0.3411  1.2396 -1.2750
52238SOL     OW63953   8.235  11.957   3.649  0.4001 -0.4208 -0.0216
52238SOL    HW163954   8.272  12.034   3.693 -0.4826  0.6498 -1.1016
52238SOL    HW263955   8.155  11.937   3.698  0.7003 -0.7571  0.3426
52239SOL     OW63956   6.198   2.355   6.367 -0.0377 -0.1848  1.0509
52239SOL    HW163957   6.123   2.359   6.308  0.4405  0.2307  0.4497
52239SOL    HW263958   6.196   2.267   6.404  0.4930 -0.9946 -0.7406
52240SOL     OW63959   1.757   3.975   8.895 -0.2323 -0.1838 -0.2232
52240SOL    HW163960   1.679   4.029   8.913  0.4830  1.7231 -2.3327
52240SOL    HW263961   1.726   3.908   8.834 -0.0305  1.5155 -2.3229
52241SOL     OW63962   7.546   5.929   7.183  0.0155  0.2493  0.7054
52241SOL    HW163963   7.484   5.936   7.111 -2.0471  0.3115  2.3866
52241SOL    HW263964   7.536   5.839   7.214  1.4482 -0.0156  0.4480
52242SOL     OW63965   1.869   8.268   4.861  0.0481 -0.2491  0.0876
52242SOL    HW163966   1.785   8.235   4.895  0.1048 -1.3965 -0.8490
52242SOL    HW263967   1.935   8.218   4.909  0.2120  0.3856  0.5468
52243SOL     OW63968   4.272  10.489   7.037 -0.2360  0.1865 -0.1696
52243SOL    HW163969   4.185  10.469   7.002  0.6449  0.1347 -2.5289
52243SOL    HW263970   4.326  10.415   7.010  1.0000  1.2405 -0.6928
52244SOL     OW63971  12.614   1.932   0.800  0.0783 -0.0184 -0.3388
52244SOL    HW163972  12.595   1.880   0.878 -1.7953  0.3662 -0.4930
52244SOL    HW263973  12.583   2.020   0.823  0.9739  0.4694 -0.9575
52245SOL     OW63974   4.421   9.793   0.958  0.0700 -0.2273 -0.2796
52245SOL    HW163975   4.327   9.776   0.958  0.0925 -0.3649 -0.5685
52245SOL    HW263976   4.436   9.850   1.033 -0.0357 -1.3440  0.6242
52246SOL     OW63977   6.743  10.813  10.106  0.4564  0.2414  0.1573
52246SOL    HW163978   6.733  10.783  10.196  0.6162  0.5364  0.2783
52246SOL    HW263979   6.735  10.909  10.112  0.4943  0.2642 -0.1383
52247SOL     OW63980  10.686   9.479   3.594  0.5180  0.0836  0.5135
52247SOL    HW163981  10.754   9.517   3.538  0.7574  0.1509  0.8467
52247SOL    HW263982  10.649   9.555   3.640  0.3925  0.0159  0.5232
52248SOL     OW63983   4.097   6.311   9.165  0.3123 -0.2566  0.6938
52248SOL    HW163984   4.128   6.257   9.238  0.5797 -1.0395  0.0255
52248SOL    HW263985   4.149   6.391   9.170  0.8087 -0.5893  0.9643
52249SOL     OW63986  12.388   7.297  10.080 -0.1681 -0.3545 -0.6698
52249SOL    HW163987  12.447   7.222  10.083 -0.2487 -0.5060 -2.1352
52249SOL    HW263988  12.425   7.360  10.142  0.0777 -1.4617  0.3354
52250SOL     OW63989   3.735   5.042   1.234 -0.2716 -1.0726  0.3495
52250SOL    HW163990   3.822   5.021   1.201 -0.4263 -0.2146 -0.6447
52250SOL    HW263991   3.744   5.038   1.329  1.7164  2.1439  0.4594
52251SOL     OW63992   1.769   5.531   7.620 -0.1364 -0.1781  0.0599
52251SOL    HW163993   1.751   5.438   7.626  3.1977 -0.9331  0.2622
52251SOL    HW263994   1.805   5.543   7.532  1.4577  0.4446  0.7559
52252SOL     OW63995   2.493   8.434   8.657  0.1549  0.1228  0.1846
52252SOL    HW163996   2.545   8.475   8.587  1.1932 -0.3125  0.6691
52252SOL    HW263997   2.410   8.481   8.657  0.5450  0.8283 -0.6443
52253SOL     OW63998   1.953   4.238   4.135 -0.4783  0.2868 -0.0690
52253SOL    HW163999   2.045   4.210   4.136 -0.6382 -0.4666 -2.2814
52253SOL    HW264000   1.957   4.334   4.132  0.3426  0.2351 -2.3302
52254SOL     OW64001   0.611  10.890   6.032 -0.0335 -0.6871 -1.3542
52254SOL    HW164002   0.631  10.806   6.072 -0.4553 -0.8044 -1.3785
52254SOL    HW264003   0.693  10.939   6.034 -0.2828 -0.2476  0.6929
52255SOL     OW64004   5.321   6.013   4.432 -0.3119  0.3507 -0.9136
52255SOL    HW164005   5.388   5.948   4.455 -0.2970  0.4112 -0.7832
52255SOL    HW264006   5.363   6.097   4.452 -1.4109  0.3433  1.9274
52256SOL     OW64007   7.828   3.828   1.017  0.1945 -0.6618  0.1707
52256SOL    HW164008   7.917   3.808   0.987  0.2181 -0.3149  0.0110
52256SOL    HW264009   7.833   3.917   1.050  0.4741 -1.4709  2.4759
52257SOL     OW64010  10.544   2.452  10.418 -0.1532  0.5953 -0.1346
52257SOL    HW164011  10.464   2.505  10.423  0.5007  1.5119  0.9091
52257SOL    HW264012  10.611   2.506  10.460  0.4233 -1.2863  1.5040
52258SOL     OW64013   3.226   3.167  10.785  0.8837 -0.7873 -0.0393
52258SOL    HW164014   3.153   3.194  10.841  1.9163 -0.0777  1.0080
52258SOL    HW264015   3.268   3.096  10.834  0.7581 -1.3628 -0.7520
52259SOL     OW64016  10.732   0.067   6.268  0.0017 -0.2258  0.2189
52259SOL    HW164017  10.801   0.020   6.315  0.0457  0.2829  0.6737
52259SOL    HW264018  10.779   0.119   6.202  0.0540  0.1038  0.5142
52260SOL     OW64019   4.062  10.585   2.313  0.1235 -0.2957  0.1544
52260SOL    HW164020   4.076  10.661   2.257 -1.2034 -0.1860 -0.0620
52260SOL    HW264021   4.081  10.615   2.401  2.9457 -0.6557 -0.2375
52261SOL     OW64022   6.803  11.123   6.545 -0.4636  0.4576  0.0092
52261SOL    HW164023   6.829  11.207   6.508  1.4580 -0.2227 -0.2807
52261SOL    HW264024   6.710  11.134   6.566 -0.5351  2.2624 -1.0570
52262SOL     OW64025   4.677   5.360  12.426  0.6700 -0.5225  0.0478
52262SOL    HW164026   4.717   5.424  12.367 -0.2516  0.0178  0.0014
52262SOL    HW264027   4.680   5.278  12.376 -0.0285 -0.0883 -0.7313
52263SOL     OW64028   0.585   9.729  11.789  0.3694  0.0875 -0.2476
52263SOL    HW164029   0.647   9.656  11.796  1.0440  0.5584 -1.0683
52263SOL    HW264030   0.528   9.719  11.865 -0.4641 -2.1093 -1.0617
52264SOL     OW64031  10.428   2.035   4.584  0.3060  0.1036  0.1056
52264SOL    HW164032  10.473   1.962   4.626 -0.2681 -1.3921 -1.7636
52264SOL    HW264033  10.494   2.074   4.526  0.6925  1.3050  1.2949
52265SOL     OW64034  11.402   9.627  10.052 -0.2418 -0.2489  0.3517
52265SOL    HW164035  11.311   9.606  10.071 -0.0128 -1.8474 -0.2048
52265SOL    HW264036  11.451   9.599  10.130 -0.1107 -0.2196  0.2819
52266SOL     OW64037  11.895   1.704   2.159  0.5260  0.3015 -0.1569
52266SOL    HW164038  11.894   1.797   2.182 -1.8290  0.6430 -1.3021
52266SOL    HW264039  11.936   1.701   2.073  1.8756  0.0728  0.4763
52267SOL     OW64040   5.134   1.839   9.974  0.1662  0.1707  0.3098
52267SOL    HW164041   5.165   1.750   9.994  0.2504 -0.7590 -3.2167
52267SOL    HW264042   5.167   1.892  10.046  1.2361 -2.4274  1.9062
52268SOL     OW64043   2.969   3.583   5.164  0.2951 -0.0071 -0.0415
52268SOL    HW164044   2.914   3.540   5.230 -0.4498  0.8743 -0.0703
52268SOL    HW264045   3.055   3.542   5.174  0.2720  0.3099  1.6632
52269SOL     OW64046   7.746   0.676  11.390  0.1676 -0.6576  0.7526
52269SOL    HW164047   7.779   0.587  11.404 -1.9134 -1.3370  1.7397
52269SOL    HW264048   7.692   0.694  11.467  0.0319  1.2315  0.2682
52270SOL     OW64049  12.378   6.301   8.557 -0.4248  0.0203 -0.0260
52270SOL    HW164050  12.378   6.212   8.520  0.0898  0.4132 -0.9833
52270SOL    HW264051  12.344   6.356   8.487  0.8041  0.8129 -0.0152
52271SOL     OW64052   5.221   0.584  10.394 -0.4674 -0.2961 -0.3209
52271SOL    HW164053   5.127   0.569  10.386 -0.2605 -2.0123  0.0682
52271SOL    HW264054   5.259   0.545  10.316 -0.0017 -0.4886 -0.0083
52272SOL     OW64055   8.684   1.741   0.646  0.3721 -0.4341 -0.0342
52272SOL    HW164056   8.758   1.799   0.630  0.7829 -0.5557  1.3417
52272SOL    HW264057   8.709   1.691   0.724 -1.4913  0.0829  0.9319
52273SOL     OW64058   2.715   7.484   0.694 -0.3676  0.1025 -0.6287
52273SOL    HW164059   2.627   7.518   0.703 -0.9824 -1.8706  1.9977
52273SOL    HW264060   2.763   7.521   0.768  0.3055 -0.8219 -0.5862
52274SOL     OW64061   6.635   8.387   3.832  0.0844 -0.2093  0.3018
52274SOL    HW164062   6.716   8.435   3.851  0.3262 -0.5086  0.0469
52274SOL    HW264063   6.570   8.455   3.815  0.5841  0.0304 -0.7271
52275SOL     OW64064   4.780   7.422  12.263 -0.1532  0.4604 -0.1846
52275SOL    HW164065   4.853   7.433  12.324 -0.8830  0.7618  0.6638
52275SOL    HW264066   4.704   7.454  12.312 -0.8073  0.4028 -1.1487
52276SOL     OW64067   4.025   0.861   8.161 -0.3687  0.4960  0.0350
52276SOL    HW164068   4.022   0.806   8.239 -0.4138  0.3121 -0.0963
52276SOL    HW264069   4.102   0.917   8.174 -0.8881  1.0874  0.6316
52277SOL     OW64070   4.755   8.424   3.178 -0.6344 -0.2227 -0.8011
52277SOL    HW164071   4.735   8.412   3.085  0.1368  0.3802 -1.0555
52277SOL    HW264072   4.850   8.435   3.181 -0.8539  2.1710 -0.2379
52278SOL     OW64073   3.208  12.665   2.126 -0.2474  0.1851 -0.6277
52278SOL    HW164074   3.241  12.607   2.194 -0.4954  1.0947  0.2968
52278SOL    HW264075   3.240  12.627   2.044  1.1035 -0.2528  0.0677
52279SOL     OW64076   3.083   6.630  11.201  0.2844  0.2002  0.0172
52279SOL    HW164077   3.160   6.593  11.244  0.1810  0.5797  0.5510
52279SOL    HW264078   3.106   6.634  11.108  0.1031 -1.6639 -0.1321
52280SOL     OW64079   9.433   2.792   6.446  0.3986  0.2301  0.2860
52280SOL    HW164080   9.430   2.698   6.465  0.9963  0.1264 -0.1247
52280SOL    HW264081   9.410   2.834   6.529 -0.6785 -0.2891  0.2718
52281SOL     OW64082   8.891   6.377   6.762 -0.0332  0.4432 -0.6033
52281SOL    HW164083   8.875   6.283   6.768  2.2842 -0.1691 -2.4674
52281SOL    HW264084   8.904   6.393   6.668  0.5374  2.4527 -0.2308
52282SOL     OW64085   9.949  11.128   6.829  0.1367  0.4585 -0.4184
52282SOL    HW164086   9.950  11.150   6.736  2.3673  0.5880 -0.4148
52282SOL    HW264087   9.857  11.136   6.855 -0.5707  0.1524 -2.6503
52283SOL     OW64088  12.320   2.723   3.910 -0.0742  0.2150 -0.3644
52283SOL    HW164089  12.330   2.629   3.926 -0.7719  0.3442  0.9392
52283SOL    HW264090  12.225   2.736   3.901  0.0442  0.7424 -0.9463
52284SOL     OW64091  10.704  11.017   5.020 -0.2103 -0.3761  0.0194
52284SOL    HW164092  10.743  11.104   5.029 -0.7800 -0.1710  0.5042
52284SOL    HW264093  10.750  10.979   4.945  2.4344 -0.9473  1.7753
52285SOL     OW64094   0.057   6.766   4.675 -0.0970 -0.2638 -0.6493
52285SOL    HW164095   0.153   6.762   4.674 -0.1294 -1.3594 -0.6366
52285SOL    HW264096   0.033   6.790   4.586  0.1944 -0.0171 -0.6601
52286SOL     OW64097   4.740   5.956   5.915  0.4651  0.1000 -0.7724
52286SOL    HW164098   4.655   5.912   5.928  1.0977 -0.9934 -0.1603
52286SOL    HW264099   4.755   6.004   5.996 -0.7533  2.4890 -1.8584
52287SOL     OW64100   9.235   9.004  12.087  0.2093  0.6051  0.3371
52287SOL    HW164101   9.193   9.088  12.106  1.4656  0.8386  2.4661
52287SOL    HW264102   9.171   8.938  12.112 -0.3799  0.9213 -0.3126
52288SOL     OW64103   2.767   7.955   3.120  0.5253 -0.4341  0.1229
52288SOL    HW164104   2.684   7.907   3.115  1.3961 -2.1981  1.5152
52288SOL    HW264105   2.831   7.897   3.079  1.1738  0.6678 -0.4415
52289SOL     OW64106   9.200   4.123  11.193  0.5730 -0.6498  0.3290
52289SOL    HW164107   9.109   4.145  11.170  1.4839  2.4503 -0.9216
52289SOL    HW264108   9.224   4.054  11.131 -0.4705 -0.4069 -0.3858
52290SOL     OW64109  10.832   2.733   4.673  0.1223 -0.0141  0.5454
52290SOL    HW164110  10.878   2.701   4.596  0.3869 -0.4201  0.8644
52290SOL    HW264111  10.875   2.688   4.746  0.9261  1.5021  1.0676
52291SOL     OW64112   1.982   8.943  10.792  0.8484  0.0027  0.3951
52291SOL    HW164113   1.906   8.967  10.845  1.4450 -0.5592  1.5418
52291SOL    HW264114   2.030   8.880  10.846  0.7941 -1.6292 -1.3538
52292SOL     OW64115   4.098   3.166   0.366  0.5823  0.1742 -0.2718
52292SOL    HW164116   4.177   3.191   0.414  0.5844 -0.5904  0.1341
52292SOL    HW264117   4.101   3.071   0.362  0.5973  0.2105 -1.8496
52293SOL     OW64118   7.967   8.184   5.505  0.0009  0.5529  0.0589
52293SOL    HW164119   7.944   8.143   5.421 -0.3581 -2.1382  1.3511
52293SOL    HW264120   8.062   8.193   5.501  0.0754 -0.2833 -0.3567
52294SOL     OW64121   7.249  12.065   2.495 -0.1690 -0.4211  0.1517
52294SOL    HW164122   7.215  12.119   2.423  2.0839  0.4533 -0.3525
52294SOL    HW264123   7.311  12.006   2.454 -1.9648 -2.9807  0.8318
52295SOL     OW64124   1.556   9.878   9.722 -0.0443 -0.4468 -0.1414
52295SOL    HW164125   1.566   9.910   9.811  0.2389 -0.2124 -0.2563
52295SOL    HW264126   1.532   9.955   9.671 -1.6533 -0.8264 -0.0313
52296SOL     OW64127   1.965   9.689   6.229 -0.4111 -0.1405  0.5148
52296SOL    HW164128   1.876   9.665   6.203 -0.2183 -0.4507  0.1210
52296SOL    HW264129   2.008   9.713   6.146  0.1629 -0.9542  0.5635
52297SOL     OW64130  11.464   2.764   3.988  0.8036  0.1652  0.2287
52297SOL    HW164131  11.391   2.779   3.927  0.3441 -1.0081  0.4649
52297SOL    HW264132  11.516   2.696   3.946  0.6318 -0.4593  1.0009
52298SOL     OW64133  12.368   6.630  11.933 -0.2091  0.0854 -0.4460
52298SOL    HW164134  12.406   6.686  12.000  2.3475 -0.1670 -1.5688
52298SOL    HW264135  12.381   6.541  11.965 -0.9831  0.0168 -0.3040
52299SOL     OW64136   4.091   5.854   2.736 -0.0173  0.1191 -0.1479
52299SOL    HW164137   4.111   5.762   2.716 -0.0009  0.5834 -2.6059
52299SOL    HW264138   4.131   5.903   2.665  0.6970  2.1477  1.5809
52300SOL     OW64139   1.721   3.736  12.435 -0.5116  0.2768  0.1060
52300SOL    HW164140   1.775   3.678  12.488  1.4723  2.3932  0.5255
52300SOL    HW264141   1.642   3.750  12.488  0.0237 -0.1521  1.0364
52301SOL     OW64142   7.123  11.377   7.120  0.2063 -0.3804 -0.1152
52301SOL    HW164143   7.156  11.389   7.032 -1.0310  2.4610 -0.3094
52301SOL    HW264144   7.197  11.397   7.177  0.3668  0.2152 -0.5268
52302SOL     OW64145  12.283   3.129  10.239  0.1008 -0.2202 -0.3427
52302SOL    HW164146  12.276   3.187  10.164  1.8570 -1.2204 -1.3435
52302SOL    HW264147  12.323   3.050  10.205  1.7985 -0.3877  1.7974
52303SOL     OW64148   7.608  11.424  12.561 -0.1044 -0.4946  0.2752
52303SOL    HW164149   7.700  11.404  12.575 -0.4224 -2.7519 -0.5310
52303SOL    HW264150   7.563  11.392  12.639 -0.2973  0.0436  0.3931
52304SOL     OW64151   2.057   3.041  12.524 -0.2660  0.6902  0.2950
52304SOL    HW164152   1.982   2.982  12.523  0.0402  0.2975 -0.2370
52304SOL    HW264153   2.131   2.986  12.499  0.6179  0.5495  2.9348
52305SOL     OW64154   7.596   3.890   8.736  0.0884  0.0310 -1.0848
52305SOL    HW164155   7.678   3.934   8.716 -0.3537  0.4985 -1.9281
52305SOL    HW264156   7.617   3.834   8.810  0.8140  1.2169 -0.3494
52306SOL     OW64157   4.665  12.156  11.601  0.5508 -0.1951 -0.0939
52306SOL    HW164158   4.693  12.068  11.574 -0.0184  0.4564 -3.2750
52306SOL    HW264159   4.574  12.145  11.629  0.4213 -0.6345 -0.6601
52307SOL     OW64160  11.561   5.672  11.724  0.7364  0.4415 -0.1990
52307SOL    HW164161  11.607   5.589  11.714  0.8002  0.2993  1.0904
52307SOL    HW264162  11.630   5.738  11.729  0.7011  0.5251 -0.7039
52308SOL     OW64163  12.510   7.882   4.399  0.0479  0.2552  0.4227
52308SOL    HW164164  12.569   7.815   4.364  1.0954  1.0883  0.5517
52308SOL    HW264165  12.503   7.947   4.329 -1.9229 -0.5386 -0.1708
52309SOL     OW64166   6.528  11.624   0.713  0.3206  0.1437  0.4020
52309SOL    HW164167   6.573  11.708   0.726  1.0619 -0.0549 -0.7591
52309SOL    HW264168   6.511  11.592   0.802  0.4104  1.3156  0.8587
52310SOL     OW64169   4.079   4.799   3.156  0.0102  0.0763 -0.1629
52310SOL    HW164170   4.080   4.774   3.248  3.4041 -1.1165 -0.4004
52310SOL    HW264171   4.108   4.890   3.155 -0.6276  0.2891 -0.0604
52311SOL     OW64172   9.885   4.443   8.987 -0.0911 -0.4258  0.0593
52311SOL    HW164173   9.846   4.430   9.073 -1.3354  0.7965 -0.2847
52311SOL    HW264174   9.919   4.357   8.962 -1.2374 -1.1780  1.0370
52312SOL     OW64175  11.583   2.815   8.620  0.5182  0.6567  0.2454
52312SOL    HW164176  11.638   2.891   8.609 -1.2484  1.7374 -1.8048
52312SOL    HW264177  11.498   2.841   8.584  0.1615 -2.6220 -1.7200
52313SOL     OW64178   0.628   9.884   8.158 -0.0534  0.1877  0.4296
52313SOL    HW164179   0.666   9.959   8.113 -0.5480 -0.3919 -1.0227
52313SOL    HW264180   0.553   9.919   8.205  1.2604  1.0516  1.9960
52314SOL     OW64181   9.573   1.124  10.690  0.5038  0.0454  0.4325
52314SOL    HW164182   9.503   1.066  10.721  0.4586 -0.0609  0.1378
52314SOL    HW264183   9.615   1.075  10.620 -0.2659  0.8304 -0.5978
52315SOL     OW64184   6.780  10.285   8.976  0.0912  0.4713  0.6322
52315SOL    HW164185   6.874  10.294   8.992  0.1952 -0.3549  0.5390
52315SOL    HW264186   6.752  10.371   8.945  0.6749  0.9340  1.3493
52316SOL     OW64187   4.983   2.151   4.631 -0.0992  0.5959 -0.0349
52316SOL    HW164188   4.912   2.112   4.580 -0.3803 -0.0044  0.7994
52316SOL    HW264189   5.053   2.086   4.630  0.8188  1.5499 -1.6059
52317SOL     OW64190   4.400   1.697   5.308 -0.0968 -0.0249 -0.8200
52317SOL    HW164191   4.421   1.658   5.393  0.1578  0.0472 -0.8491
52317SOL    HW264192   4.446   1.781   5.309  0.7184 -0.4552 -1.4259
52318SOL     OW64193   9.892   2.100   9.040  0.0912 -0.2931 -0.2395
52318SOL    HW164194   9.950   2.159   9.090  1.2130 -0.0171 -1.8054
52318SOL    HW264195   9.804   2.136   9.054  0.1450 -1.0239  2.6102
52319SOL     OW64196   9.617   9.984   0.670  0.1186  0.2920  0.0744
52319SOL    HW164197   9.662   9.903   0.648 -2.3783 -0.6623 -2.1532
52319SOL    HW264198   9.656  10.050   0.613 -1.6074 -0.7015 -2.4709
52320SOL     OW64199   0.921   9.494   8.436  0.0988  0.1094 -0.3244
52320SOL    HW164200   0.827   9.512   8.435 -0.1157 -0.8647  0.6259
52320SOL    HW264201   0.948   9.504   8.344 -1.1616 -0.7753 -0.8254
52321SOL     OW64202  10.539   2.236   5.087 -0.4316 -0.1033 -0.1555
52321SOL    HW164203  10.563   2.307   5.147 -3.7833  0.4241  0.7801
52321SOL    HW264204  10.509   2.281   5.008  1.5049 -0.7253 -1.3147
52322SOL     OW64205  12.591  12.291   5.745  0.1408 -0.0364  0.0013
52322SOL    HW164206  12.602  12.199   5.771  0.3522  0.0014  0.0471
52322SOL    HW264207  12.676  12.331   5.762 -0.6041  0.7247  2.2262
52323SOL     OW64208   3.188   1.539   0.422 -0.6235  0.7393  0.1059
52323SOL    HW164209   3.199   1.452   0.460 -2.2039  1.1678  1.7016
52323SOL    HW264210   3.245   1.595   0.474  0.0058  0.7628 -0.5909
52324SOL     OW64211   1.677  12.328   5.523 -0.1468  0.2596 -0.2626
52324SOL    HW164212   1.750  12.368   5.475  0.6673 -1.2062 -0.2935
52324SOL    HW264213   1.626  12.403   5.555  1.9264  1.3697  0.6515
52325SOL     OW64214  10.409   1.080   6.200 -0.2026 -0.2014 -0.0999
52325SOL    HW164215  10.450   1.111   6.282 -0.1887 -1.0741  0.2300
52325SOL    HW264216  10.343   1.017   6.229 -3.2421  2.5527 -0.4678
52326SOL     OW64217   1.111   4.745   7.274  0.3027 -0.2626  0.7340
52326SOL    HW164218   1.075   4.750   7.185 -0.8399 -0.7473  1.1628
52326SOL    HW264219   1.164   4.825   7.282  1.8356 -1.0345 -0.9660
52327SOL     OW64220   4.343   0.802  12.194  0.0777  0.9113  0.3260
52327SOL    HW164221   4.319   0.872  12.134 -2.0603 -0.3819 -0.4328
52327SOL    HW264222   4.282   0.811  12.267  0.3174  0.3274  0.6057
52328SOL     OW64223   3.272   8.975  11.049  0.1179  1.2479  0.1348
52328SOL    HW164224   3.199   8.913  11.044  1.3034 -0.1709 -0.2161
52328SOL    HW264225   3.253   9.028  11.126 -0.1452 -0.6486  1.4528
52329SOL     OW64226   9.899   5.507   7.314  0.2683  0.4062 -0.2355
52329SOL    HW164227   9.882   5.431   7.258  0.3976  0.6082 -0.5499
52329SOL    HW264228   9.927   5.576   7.254 -1.7552  1.3257 -0.2231
52330SOL     OW64229   3.372  10.100   9.582  0.4096 -0.0734 -0.5068
52330SOL    HW164230   3.292  10.064   9.544 -0.0264  1.3301 -0.9585
52330SOL    HW264231   3.442  10.046   9.546 -0.0157  0.9607 -3.0735
52331SOL     OW64232   3.645   8.042  11.932  0.3855 -0.1944 -0.0268
52331SOL    HW164233   3.639   7.963  11.986  0.0442  0.1426  0.4304
52331SOL    HW264234   3.586   8.025  11.858  0.8812 -0.6703 -0.3229
52332SOL     OW64235   7.968   9.765  11.273 -0.0091  0.2195  0.2069
52332SOL    HW164236   7.893   9.810  11.236  0.9223  0.5893 -1.3427
52332SOL    HW264237   7.998   9.707  11.203  1.2983  0.2792  0.6909
52333SOL     OW64238   4.366   7.461   5.838 -0.2774 -0.1509 -0.4657
52333SOL    HW164239   4.367   7.557   5.840 -1.7758 -0.0954 -1.1264
52333SOL    HW264240   4.274   7.438   5.841  0.0676 -1.5977 -0.1440
52334SOL     OW64241   1.240   1.481  12.131 -0.4272 -0.5476 -0.8351
52334SOL    HW164242   1.316   1.432  12.162  0.0753  1.2088  0.9513
52334SOL    HW264243   1.271   1.529  12.054  1.0560  1.7925  1.0599
52335SOL     OW64244   3.817   9.338  12.535  0.5425 -0.4140 -0.1492
52335SOL    HW164245   3.796   9.301  12.450  2.4871 -1.8438 -0.0636
52335SOL    HW264246   3.773   9.280  12.598  2.6259 -2.0243 -0.0666
52336SOL     OW64247   3.454   3.764   6.291 -0.4347  0.3271  0.0825
52336SOL    HW164248   3.442   3.857   6.270 -2.0360  0.4142  1.2255
52336SOL    HW264249   3.531   3.763   6.349 -0.6356  1.0032  0.3764
52337SOL     OW64250   5.439   7.240  12.395  0.3145 -0.1367  0.2405
52337SOL    HW164251   5.507   7.238  12.328 -1.7481 -1.5744 -1.9437
52337SOL    HW264252   5.406   7.330  12.394  0.4586 -0.0897 -0.5059
52338SOL     OW64253   4.326   0.410   0.959 -0.2027 -0.2167  0.0677
52338SOL    HW164254   4.329   0.354   1.037  1.1349  1.1182  1.0347
52338SOL    HW264255   4.396   0.376   0.903  0.7994  0.6055  0.7795
52339SOL     OW64256   2.112   6.119   1.631  0.3186 -0.2946  0.0559
52339SOL    HW164257   2.032   6.159   1.665  0.2169 -0.5219  0.0851
52339SOL    HW264258   2.105   6.129   1.536 -0.2545 -1.2535 -0.0206
52340SOL     OW64259  11.083  10.894   8.421 -0.3076  0.4287 -0.1379
52340SOL    HW164260  11.157  10.926   8.368 -0.5489  2.7112  0.8115
52340SOL    HW264261  11.008  10.944   8.390 -0.8345  0.3700  1.0021
52341SOL     OW64262   2.397   2.552  12.500  0.0082 -0.2436  0.1295
52341SOL    HW164263   2.448   2.626  12.533 -0.1819  0.4584 -1.1011
52341SOL    HW264264   2.445   2.475  12.530  1.5745  0.3923 -0.6588
52342SOL     OW64265   1.515   2.196   0.719  0.5164 -0.1621 -0.4882
52342SOL    HW164266   1.522   2.113   0.767  0.2537  0.0144 -0.1372
52342SOL    HW264267   1.559   2.260   0.776 -0.8061  0.2734  0.0795
52343SOL     OW64268   6.969   3.242   1.474  0.6003  0.6031 -0.2565
52343SOL    HW164269   6.998   3.321   1.428  0.8726  1.2265  0.9660
52343SOL    HW264270   7.013   3.245   1.559 -0.4457 -0.1691  0.3428
52344SOL     OW64271  11.446   4.137  12.218 -1.3325 -0.0807  0.1229
52344SOL    HW164272  11.500   4.087  12.279  0.0923  0.0489 -0.9933
52344SOL    HW264273  11.478   4.227  12.226 -0.7855 -0.1489 -1.1763
52345SOL     OW64274   4.897   0.276  10.486  0.1881  0.1884  0.5922
52345SOL    HW164275   4.985   0.237  10.481  0.1786  0.1181  0.9669
52345SOL    HW264276   4.859   0.239  10.565 -0.2599  0.0615  0.3244
52346SOL     OW64277   0.437   6.007   5.444  0.3125 -0.0868  0.3347
52346SOL    HW164278   0.445   6.102   5.455  0.6555 -0.0642 -0.0659
52346SOL    HW264279   0.361   5.996   5.387 -0.4090 -0.1152  1.2929
52347SOL     OW64280   4.638   3.429   0.503 -0.4533  0.4837  0.1419
52347SOL    HW164281   4.694   3.493   0.459 -2.4585  0.5100 -2.5598
52347SOL    HW264282   4.567   3.481   0.541 -1.1051  0.0660 -0.4801
52348SOL     OW64283   3.519   7.115   6.083  0.1029  0.4267 -0.0012
52348SOL    HW164284   3.534   7.075   6.168 -0.4690 -0.3533 -0.2436
52348SOL    HW264285   3.605   7.117   6.041  0.1572 -0.5490  0.0377
52349SOL     OW64286  11.065  12.609   2.154  0.0653  0.3392  0.1505
52349SOL    HW164287  11.152  12.576   2.134  0.1855  0.7787 -0.0698
52349SOL    HW264288  11.006  12.536   2.135  0.5481 -0.7170  2.3701
52350SOL     OW64289   1.426   8.437   8.811 -0.2900  0.2570  0.1728
52350SOL    HW164290   1.383   8.433   8.896 -0.5957 -0.9551 -0.0069
52350SOL    HW264291   1.362   8.478   8.754 -1.5605 -2.0669 -0.2275
52351SOL     OW64292   9.418   5.551  12.133 -0.4623  0.3662  0.1273
52351SOL    HW164293   9.431   5.535  12.040 -1.2415 -1.5686  0.2854
52351SOL    HW264294   9.329   5.518  12.151 -0.8469  1.9249  1.3111
52352SOL     OW64295   8.558   0.805   7.081  0.0157  0.2212  0.0116
52352SOL    HW164296   8.602   0.720   7.086  0.6882  0.4327 -1.6145
52352SOL    HW264297   8.630   0.869   7.078 -0.4761  0.8140  0.6915
52353SOL     OW64298   6.001   2.450   1.270  0.0768 -0.0505 -0.6115
52353SOL    HW164299   5.980   2.359   1.251 -1.5697  0.3893 -1.0710
52353SOL    HW264300   6.004   2.455   1.365 -2.5084 -0.0876 -0.4567
52354SOL     OW64301  11.606   4.843   4.349  0.2662 -0.1322  0.5436
52354SOL    HW164302  11.551   4.918   4.373 -0.6199 -0.4158 -0.5476
52354SOL    HW264303  11.547   4.768   4.352  0.9065 -0.6349  0.6173
52355SOL     OW64304   1.330  11.348   3.070  0.7452  0.0986 -0.1366
52355SOL    HW164305   1.402  11.364   3.131 -0.1333  0.8414  0.7380
52355SOL    HW264306   1.328  11.253   3.060  2.4145  0.0951 -0.9227
52356SOL     OW64307   5.721  10.370   7.490 -0.6358 -0.8381  0.0842
52356SOL    HW164308   5.737  10.420   7.570 -2.1237 -1.3625  0.7502
52356SOL    HW264309   5.730  10.434   7.420  0.7440 -0.3733  0.6435
52357SOL     OW64310  12.487   2.091   9.316  0.0543 -0.6882  0.3876
52357SOL    HW164311  12.504   2.138   9.397  0.4730 -1.9221  1.0380
52357SOL    HW264312  12.574   2.063   9.285  0.3910  2.7395 -2.4203
52358SOL     OW64313   4.991   3.157   1.119 -0.1130 -0.2028  0.7462
52358SOL    HW164314   5.024   3.136   1.206  1.0021 -1.8526 -0.0380
52358SOL    HW264315   4.983   3.253   1.120  0.4968 -0.1295  2.4338
52359SOL     OW64316  10.455   9.231   3.344 -0.0331  0.1188  0.2211
52359SOL    HW164317  10.447   9.223   3.439  0.2391  0.6347  0.2909
52359SOL    HW264318  10.451   9.326   3.328  1.1994  0.1212 -0.1651
52360SOL     OW64319   4.637   2.903   6.439 -0.4469 -0.0477  0.2562
52360SOL    HW164320   4.621   2.997   6.435  1.7864  0.4447  1.3147
52360SOL    HW264321   4.717   2.894   6.491 -1.4498 -2.6435  1.5434
52361SOL     OW64322   8.449   5.659   2.694 -0.1549  0.0660 -0.6562
52361SOL    HW164323   8.518   5.638   2.631 -1.3797  0.5117 -2.2122
52361SOL    HW264324   8.430   5.575   2.737 -0.4303 -0.6227 -2.0665
52362SOL     OW64325   3.099   2.579   5.677  0.0366 -0.0054 -0.2992
52362SOL    HW164326   3.118   2.486   5.669  3.3057  0.5953 -1.0907
52362SOL    HW264327   3.159   2.621   5.615  0.5757  2.7846  1.8986
52363SOL     OW64328   9.515   4.329  11.188  0.6415  0.0325  0.0054
52363SOL    HW164329   9.441   4.382  11.159 -0.2264 -1.4643 -0.6386
52363SOL    HW264330   9.589   4.390  11.192 -0.1999  1.1755 -1.2015
52364SOL     OW64331   1.503   8.625   9.929  0.2598 -0.5903 -0.3309
52364SOL    HW164332   1.461   8.546   9.963  1.1440  0.0872  2.5936
52364SOL    HW264333   1.453   8.697   9.966  0.3617  0.2553 -1.7808
52365SOL     OW64334   8.542   3.103   6.879 -0.4075 -0.0396 -0.1201
52365SOL    HW164335   8.620   3.152   6.906 -0.5985 -0.3920  1.1627
52365SOL    HW264336   8.507   3.152   6.805  0.5456  0.6101 -0.1601
52366SOL     OW64337   0.679   7.484   0.954  0.5568 -0.0052  0.5497
52366SOL    HW164338   0.719   7.514   1.035  1.8575 -0.5050  0.1061
52366SOL    HW264339   0.640   7.399   0.976  0.5954  0.0258  0.7351
52367SOL     OW64340   8.225   9.840  12.687  0.2048 -0.3172 -0.2637
52367SOL    HW164341   8.179   9.921  12.669 -0.7850 -0.5266  1.1976
52367SOL    HW264342   8.170   9.772  12.649 -1.5156 -0.6937  2.6297
52368SOL     OW64343   3.301  10.305   6.135  0.1580 -0.4506 -0.2876
52368SOL    HW164344   3.331  10.297   6.225  1.1054  2.0402 -0.3134
52368SOL    HW264345   3.221  10.251   6.131  0.7842 -1.6185  1.6477
52369SOL     OW64346  11.878   2.181   0.886 -0.3410  0.1603  0.1510
52369SOL    HW164347  11.910   2.270   0.872 -1.8360  0.5524 -1.0090
52369SOL    HW264348  11.825   2.162   0.808  0.2486 -1.8985  0.1880
52370SOL     OW64349   0.942   4.377   6.779  0.1846 -0.0806 -0.0304
52370SOL    HW164350   0.971   4.315   6.711  1.9338 -0.3003  0.8525
52370SOL    HW264351   0.866   4.335   6.819  1.2447 -1.6453  0.4547
52371SOL     OW64352   7.319   0.056   5.426 -0.1661  0.7925 -0.6836
52371SOL    HW164353   7.286   0.056   5.336 -0.1993 -0.7194 -0.6880
52371SOL    HW264354   7.295  -0.030   5.461 -0.8208  1.6185  1.0263
52372SOL     OW64355   6.192   3.507   0.648 -0.1700  0.0630 -0.5822
52372SOL    HW164356   6.217   3.531   0.737  0.5953  2.0697 -1.2750
52372SOL    HW264357   6.127   3.572   0.623  0.0708 -0.0955 -1.6754
52373SOL     OW64358   8.842   7.959   1.161 -0.0524  0.4477 -0.2915
52373SOL    HW164359   8.799   7.889   1.211  1.3097  0.2247  0.6222
52373SOL    HW264360   8.781   8.032   1.165 -0.6299 -0.0540  0.4402
52374SOL     OW64361  12.635   8.687  10.869 -0.5974  0.1280  0.0002
52374SOL    HW164362  12.551   8.706  10.912  0.4842  1.7687  1.5536
52374SOL    HW264363  12.695   8.753  10.903  1.7585 -1.9316  0.1929
52375SOL     OW64364  10.824   0.002   3.302  0.2525 -0.5089 -0.0662
52375SOL    HW164365  10.774   0.074   3.341  0.2349  0.1040 -1.1747
52375SOL    HW264366  10.891   0.046   3.248  0.6710 -1.3242 -0.2289
52376SOL     OW64367   4.083   8.705   9.743 -0.1667  0.3511  0.4149
52376SOL    HW164368   4.114   8.666   9.825 -0.2476  2.3769  1.4597
52376SOL    HW264369   4.050   8.791   9.768 -1.0933  0.6392 -1.6172
52377SOL     OW64370   6.265   4.533   7.554  0.1860 -0.4891  0.5680
52377SOL    HW164371   6.304   4.447   7.563 -0.2076 -0.5734  1.5288
52377SOL    HW264372   6.244   4.540   7.460  2.0809 -0.5973  0.0899
52378SOL     OW64373   4.798   3.325   6.102  0.6477 -0.2656  0.0567
52378SOL    HW164374   4.758   3.249   6.144 -0.2579  0.9131  1.4462
52378SOL    HW264375   4.848   3.289   6.029 -1.5169 -1.9961 -0.6832
52379SOL     OW64376   0.077   1.094   5.764  0.3709 -0.1434 -0.0660
52379SOL    HW164377  -0.014   1.070   5.784  0.1184  0.6564 -0.1956
52379SOL    HW264378   0.099   1.042   5.687 -0.7604  1.2818 -1.4142
52380SOL     OW64379   5.742   3.209  10.556 -0.0171  0.2285 -0.1609
52380SOL    HW164380   5.680   3.165  10.614 -0.8696  1.0598 -0.4156
52380SOL    HW264381   5.811   3.241  10.614  0.1532 -0.6520  0.1351
52381SOL     OW64382   8.624   9.227   2.140  0.1664 -0.0976  1.0535
52381SOL    HW164383   8.665   9.313   2.129  1.1879 -0.3475  2.6141
52381SOL    HW264384   8.696   9.168   2.162 -0.6626 -1.1457  1.0470
52382SOL     OW64385   7.740   8.220   3.300 -0.1794  0.2049 -0.1846
52382SOL    HW164386   7.779   8.308   3.296 -1.4670  0.7668 -1.0025
52382SOL    HW264387   7.752   8.193   3.391 -0.4692  1.5800  0.2906
52383SOL     OW64388   5.567   2.476   6.813 -0.0052 -0.1556  0.3248
52383SOL    HW164389   5.489   2.528   6.796 -0.9248 -0.7874  2.2727
52383SOL    HW264390   5.582   2.428   6.731 -2.6928 -1.2735  0.3631
52384SOL     OW64391   5.626   8.116   7.454 -0.3924  0.0227 -0.5536
52384SOL    HW164392   5.704   8.153   7.496  0.0001  1.9256 -2.7307
52384SOL    HW264393   5.554   8.172   7.483 -0.6484 -0.5667 -0.0316
52385SOL     OW64394   6.767   0.468  10.431  0.7067  0.6493  0.3371
52385SOL    HW164395   6.783   0.376  10.408  0.3558  0.3697  1.1814
52385SOL    HW264396   6.828   0.517  10.377  1.8917 -0.1646  0.8982
52386SOL     OW64397  12.606   3.603   4.564 -0.1605  0.0595  0.6027
52386SOL    HW164398  12.681   3.654   4.596  0.9549 -1.2134  0.1301
52386SOL    HW264399  12.628   3.584   4.473  0.6442 -3.1610  1.3300
52387SOL     OW64400   2.606   9.353   9.207 -0.0016  0.5684 -0.2714
52387SOL    HW164401   2.633   9.404   9.283 -0.5207  0.0449  0.2757
52387SOL    HW264402   2.554   9.281   9.243 -1.7081  1.2401 -1.2293
52388SOL     OW64403   4.210  11.216  10.424  0.2023 -0.2824 -0.4327
52388SOL    HW164404   4.159  11.281  10.472 -0.0674 -0.9352  0.1818
52388SOL    HW264405   4.281  11.266  10.384 -0.8602  0.6340 -1.2384
52389SOL     OW64406   0.342   1.806   6.986 -0.0642  0.1109 -0.1294
52389SOL    HW164407   0.431   1.790   6.955 -0.0730  0.5613 -0.3963
52389SOL    HW264408   0.350   1.885   7.040 -0.4473  0.6411 -0.8403
52390SOL     OW64409   5.179   0.768   6.914 -0.0356  0.5931  0.3621
52390SOL    HW164410   5.163   0.861   6.930 -0.5068  0.2664  1.9253
52390SOL    HW264411   5.163   0.726   6.998  0.1783 -0.9134 -0.3202
52391SOL     OW64412   0.139   3.902   2.659  0.7380 -0.1743 -0.6373
52391SOL    HW164413   0.058   3.904   2.609 -0.2988 -0.0669  0.9649
52391SOL    HW264414   0.162   3.810   2.666 -1.9583 -0.7757  2.9265
52392SOL     OW64415   7.008   3.317   0.794 -0.0076  0.0331 -0.0283
52392SOL    HW164416   6.954   3.240   0.808  0.9037 -0.6380 -0.1343
52392SOL    HW264417   6.975   3.354   0.711 -1.9991  1.1308  1.1698
52393SOL     OW64418   9.892   6.570   0.689  0.5475  0.0825 -0.5720
52393SOL    HW164419   9.839   6.626   0.747  0.2587  0.2059 -0.9531
52393SOL    HW264420   9.841   6.490   0.679  0.9960 -0.2880  0.0320
52394SOL     OW64421   8.651  11.194   9.029  0.2527 -0.4696  0.3052
52394SOL    HW164422   8.691  11.266   8.980 -0.0970  0.8155  1.8218
52394SOL    HW264423   8.716  11.170   9.095  0.3787 -1.5939 -0.2013
52395SOL     OW64424   0.837   7.053   3.586 -0.1819 -0.0453  0.2181
52395SOL    HW164425   0.750   7.092   3.583 -0.6173 -0.9818  0.3807
52395SOL    HW264426   0.873   7.080   3.671  0.0305  1.0096 -0.1776
52396SOL     OW64427   5.804   2.542  10.711  0.2241 -1.3167 -0.0873
52396SOL    HW164428   5.871   2.513  10.772  1.3402  0.8100 -0.1995
52396SOL    HW264429   5.754   2.608  10.759  0.3783 -0.4567 -1.0706
52397SOL     OW64430   5.733   9.105  11.151  0.2422 -0.4454  0.3538
52397SOL    HW164431   5.769   9.033  11.099 -0.6691 -0.1127 -0.7899
52397SOL    HW264432   5.804   9.130  11.210  1.6254 -0.2862 -1.2967
52398SOL     OW64433   2.036   6.232   5.787 -0.5689  0.5972 -0.3351
52398SOL    HW164434   1.984   6.311   5.802  0.6468  1.0180  2.1264
52398SOL    HW264435   2.127   6.261   5.795 -0.0977 -1.3200  2.8116
52399SOL     OW64436   4.987   9.815  11.845 -0.0413 -0.2016  0.4062
52399SOL    HW164437   4.929   9.741  11.826 -2.2193  1.5197 -0.2510
52399SOL    HW264438   5.022   9.840  11.759 -1.8499  1.3700  0.0343
52400SOL     OW64439   7.459   6.616   9.072 -0.5253 -0.0194  0.3919
52400SOL    HW164440   7.451   6.712   9.072  0.6709  0.1093 -0.7032
52400SOL    HW264441   7.434   6.590   8.983  0.7168 -0.5488  0.1742
52401SOL     OW64442   2.882  10.338  10.867 -0.2226 -0.5459  0.1432
52401SOL    HW164443   2.842  10.376  10.945  0.1409 -2.1050  1.1461
52401SOL    HW264444   2.898  10.246  10.891  0.2767 -0.9577 -1.6280
52402SOL     OW64445  11.871   8.877   4.675 -0.1851 -0.1483 -0.0544
52402SOL    HW164446  11.825   8.834   4.748 -0.4962 -0.8720 -0.6678
52402SOL    HW264447  11.908   8.804   4.624 -0.3121  0.3378 -0.8517
52403SOL     OW64448   7.892  11.215   8.624 -0.2876 -0.4448  0.7393
52403SOL    HW164449   7.963  11.171   8.671 -0.2740 -0.6602  0.5183
52403SOL    HW264450   7.858  11.148   8.564 -0.9024 -0.4456  1.0821
52404SOL     OW64451   6.799  11.400   1.241  0.1922 -0.2019 -0.0346
52404SOL    HW164452   6.744  11.330   1.208  0.3239 -1.5383  2.3667
52404SOL    HW264453   6.746  11.479   1.229 -2.5740 -1.4637  2.5509
52405SOL     OW64454   7.789   9.846   8.586 -0.4536 -0.4864  0.1702
52405SOL    HW164455   7.787   9.757   8.621  0.6977 -0.8886 -0.7124
52405SOL    HW264456   7.873   9.852   8.541 -0.8833  0.7640 -0.5165
52406SOL     OW64457   4.776   0.387   9.416 -0.0436  0.1151  0.1245
52406SOL    HW164458   4.825   0.469   9.409  0.5747 -0.1216  1.5037
52406SOL    HW264459   4.831   0.323   9.370 -0.1993  0.3142 -0.3532
52407SOL     OW64460  11.384   8.927   4.095 -0.3511 -0.4231 -0.2953
52407SOL    HW164461  11.454   8.873   4.058  0.6239  0.1867  0.6242
52407SOL    HW264462  11.423   8.969   4.171 -1.0019  1.7520 -1.0840
52408SOL     OW64463   6.866  11.754   2.479 -0.3796 -0.0880 -0.4104
52408SOL    HW164464   6.884  11.664   2.450 -2.2794 -1.1171  1.3185
52408SOL    HW264465   6.951  11.788   2.508 -0.0656 -2.5885  2.0603
52409SOL     OW64466   7.520  10.387   2.342  0.0006 -0.2437  0.4916
52409SOL    HW164467   7.446  10.427   2.296  0.7633  1.8607  0.9600
52409SOL    HW264468   7.488  10.371   2.430  0.0850  0.6875  0.7011
52410SOL     OW64469   3.415   9.301   3.649  0.2534 -0.0260  0.1026
52410SOL    HW164470   3.451   9.217   3.622 -0.2734  0.3357 -1.8239
52410SOL    HW264471   3.436   9.306   3.743  0.3740 -2.2393  0.2538
52411SOL     OW64472   7.417   3.544   3.975 -0.5703 -0.5569 -0.1314
52411SOL    HW164473   7.446   3.456   3.999 -0.2553 -0.1909  0.8842
52411SOL    HW264474   7.459   3.561   3.890  0.5245 -0.8462  0.3352
52412SOL     OW64475   1.158   6.917   4.218  0.4970  0.0545 -0.3508
52412SOL    HW164476   1.248   6.887   4.207 -0.1106 -2.2524  0.4337
52412SOL    HW264477   1.118   6.908   4.131  0.1420 -2.2378 -0.0008
52413SOL     OW64478   0.887   1.271   1.025  0.2020  0.2137  0.1786
52413SOL    HW164479   0.928   1.337   1.081  1.2639  0.8871 -1.3113
52413SOL    HW264480   0.930   1.189   1.048  0.1870  0.3719  0.7783
52414SOL     OW64481   2.782   2.517   1.587  0.0684 -0.1988 -0.1682
52414SOL    HW164482   2.820   2.544   1.503 -1.9982 -1.2258 -1.5424
52414SOL    HW264483   2.857   2.510   1.646  1.6185  0.5238 -1.9276
52415SOL     OW64484  10.688  10.578   4.054 -0.4654 -0.5733 -0.0722
52415SOL    HW164485  10.615  10.517   4.045 -0.5752 -0.4935  0.2617
52415SOL    HW264486  10.658  10.642   4.118  0.1246 -0.8770  0.5189
52416SOL     OW64487   1.563   1.993   6.907  0.5134 -0.0764  0.3132
52416SOL    HW164488   1.482   1.943   6.918 -0.0127  0.8720  0.8300
52416SOL    HW264489   1.599   1.998   6.996  1.4066 -0.8989  0.0234
52417SOL     OW64490   6.862   4.401   9.833 -0.5622 -0.1150 -0.5670
52417SOL    HW164491   6.771   4.428   9.828 -0.5208  0.2836  0.5837
52417SOL    HW264492   6.858   4.305   9.832 -0.9014 -0.1053 -1.6673
52418SOL     OW64493   0.582   3.184   9.788  0.6044  0.1831 -0.4019
52418SOL    HW164494   0.576   3.230   9.704 -0.6550 -0.5648 -0.7608
52418SOL    HW264495   0.604   3.094   9.765 -1.2182 -0.3831 -0.0824
52419SOL     OW64496  12.388  10.074   6.613 -0.7074  0.3123 -0.1331
52419SOL    HW164497  12.320  10.141   6.617 -0.4843  0.5459 -0.2050
52419SOL    HW264498  12.404  10.050   6.704 -1.8075 -0.6949 -0.1770
52420SOL     OW64499   7.185   9.521   3.674 -0.0075  0.0648  0.2223
52420SOL    HW164500   7.211   9.464   3.601 -0.6819 -0.8197  0.6496
52420SOL    HW264501   7.123   9.468   3.724 -0.0334  0.8944  1.0884
52421SOL     OW64502   6.830   9.171   9.067 -0.0366 -0.5338  0.2302
52421SOL    HW164503   6.846   9.168   8.972 -1.5050 -2.4027 -0.0167
52421SOL    HW264504   6.880   9.097   9.101 -0.6669 -0.7548  0.6917
52422SOL     OW64505   2.541   4.631   5.509 -0.6002  0.8144  0.1264
52422SOL    HW164506   2.449   4.622   5.536 -2.0893 -1.7327 -4.6630
52422SOL    HW264507   2.542   4.708   5.452  0.2346  0.7164 -0.0054
52423SOL     OW64508   5.217   3.311   4.744  1.1748 -0.0786  0.0822
52423SOL    HW164509   5.256   3.376   4.802  0.5695  2.4178 -2.1058
52423SOL    HW264510   5.292   3.265   4.706  1.5897 -2.5847  3.4370
52424SOL     OW64511   6.400   9.935   0.763  0.3080  0.1727  0.2887
52424SOL    HW164512   6.344   9.977   0.828  0.7288 -0.9665  1.4496
52424SOL    HW264513   6.487   9.932   0.805  0.1692 -2.3770  0.5784
52425SOL     OW64514   8.245   9.577   1.506 -0.0345 -0.5362 -0.1670
52425SOL    HW164515   8.279   9.523   1.578 -0.8413 -1.2188 -0.2916
52425SOL    HW264516   8.280   9.665   1.523 -1.0528 -0.4450  1.6417
52426SOL     OW64517   1.126  11.756   1.185 -0.3059  0.2767  0.2692
52426SOL    HW164518   1.145  11.832   1.241  0.0146  0.5420 -0.1903
52426SOL    HW264519   1.179  11.685   1.221  0.8264  0.7550 -0.4002
52427SOL     OW64520  12.347   2.615   0.601  0.1746  0.1309  0.5905
52427SOL    HW164521  12.288   2.641   0.672 -1.2950 -1.0949 -0.1372
52427SOL    HW264522  12.297   2.628   0.521  1.2242 -0.0784 -0.1278
52428SOL     OW64523   4.633  10.881   7.686  0.1791  0.0751 -0.7224
52428SOL    HW164524   4.712  10.880   7.631  0.0164 -2.6256 -1.0502
52428SOL    HW264525   4.572  10.822   7.641 -1.6679  1.3008  0.0680
52429SOL     OW64526   8.467   6.307   9.274  0.6284  0.1079  0.7369
52429SOL    HW164527   8.513   6.378   9.230 -3.2919  2.3083 -0.2211
52429SOL    HW264528   8.444   6.343   9.360 -2.9726  0.9345 -0.4103
52430SOL     OW64529   9.842  10.179   7.268  0.3834  0.4887 -0.0805
52430SOL    HW164530   9.823  10.243   7.337  2.0477  1.8102 -0.7921
52430SOL    HW264531   9.908  10.221   7.213 -0.7410 -0.6082 -2.3959
52431SOL     OW64532   9.673   6.517   3.015  0.9281  0.0953  0.3024
52431SOL    HW164533   9.613   6.456   3.057 -0.3610 -0.8493 -2.6251
52431SOL    HW264534   9.760   6.477   3.024  0.7513  0.0481  2.1022
52432SOL     OW64535   0.785  11.260   1.376  0.2167  0.0990 -0.4122
52432SOL    HW164536   0.765  11.229   1.464  0.2026  0.9293 -0.1157
52432SOL    HW264537   0.730  11.206   1.319 -0.9715  0.6189  0.2088
52433SOL     OW64538   5.855   8.524   4.134 -0.2787  0.0721 -0.4101
52433SOL    HW164539   5.870   8.561   4.047  0.6657 -0.4805 -0.4902
52433SOL    HW264540   5.873   8.430   4.123 -2.6359 -0.4657 -0.2264
52434SOL     OW64541   5.170  10.693  11.757  0.1922 -0.0780  0.1733
52434SOL    HW164542   5.198  10.780  11.730  0.3765 -0.2761 -0.2805
52434SOL    HW264543   5.089  10.709  11.806  0.6395  0.4134  0.7684
52435SOL     OW64544   1.145   7.913   0.507  0.2028 -0.1820 -0.3115
52435SOL    HW164545   1.238   7.899   0.491  0.1249 -0.3498 -0.6254
52435SOL    HW264546   1.141   7.952   0.594  0.6468  0.9509 -0.7865
52436SOL     OW64547   7.585  11.312   1.455 -0.6236  0.6295  0.3324
52436SOL    HW164548   7.649  11.268   1.399 -1.0811  0.7118 -0.2599
52436SOL    HW264549   7.520  11.245   1.476  0.1058  0.2989  1.6707
52437SOL     OW64550   9.584   9.578  11.692  0.2631  0.0188  0.2097
52437SOL    HW164551   9.628   9.600  11.774 -0.0397 -2.2477  1.0528
52437SOL    HW264552   9.621   9.638  11.628  2.3678  0.1846  1.5032
52438SOL     OW64553   5.371   5.488  11.640  0.2761  0.0359 -0.3429
52438SOL    HW164554   5.355   5.397  11.666  2.0591 -0.5673 -1.1851
52438SOL    HW264555   5.464   5.501  11.654  0.2602  1.3880 -1.2829
52439SOL     OW64556   3.825   7.468   2.633 -0.0866 -0.0416  0.2080
52439SOL    HW164557   3.881   7.546   2.645  0.1950 -0.2505  0.2600
52439SOL    HW264558   3.855   7.407   2.701  0.1523 -0.4564 -0.2648
52440SOL     OW64559   3.285   9.012   2.951 -0.7124  0.0502  0.0445
52440SOL    HW164560   3.325   9.011   2.864 -0.6674 -0.3836  0.0687
52440SOL    HW264561   3.236   9.094   2.953 -0.5834  0.1421 -0.3298
52441SOL     OW64562   3.201   2.208   2.182  0.3146  0.0202  0.6549
52441SOL    HW164563   3.226   2.169   2.098  1.1520 -1.4309  1.5398
52441SOL    HW264564   3.119   2.165   2.206  0.6004 -0.3218  1.0438
52442SOL     OW64565   2.743   6.974   6.324  0.0050 -0.2919 -0.3636
52442SOL    HW164566   2.707   7.057   6.293  1.3315  0.6079  0.3973
52442SOL    HW264567   2.816   6.957   6.265 -0.6209 -1.2475 -0.8820
52443SOL     OW64568   2.767   1.519   5.382  0.0133  0.5109  0.2492
52443SOL    HW164569   2.764   1.572   5.302 -1.5111 -2.0152 -1.5384
52443SOL    HW264570   2.818   1.571   5.444  1.3404  2.5957 -2.3774
52444SOL     OW64571   8.840  11.486   0.871  0.2030  0.0284  0.3206
52444SOL    HW164572   8.799  11.546   0.933  1.1266  0.4808  0.5132
52444SOL    HW264573   8.852  11.405   0.921 -0.4510 -0.1129  0.2564
52445SOL     OW64574   2.225   7.530   5.464  0.2425 -0.0884  0.3740
52445SOL    HW164575   2.156   7.504   5.403  0.2476 -1.1558  0.8059
52445SOL    HW264576   2.238   7.623   5.446 -0.9015 -0.0004 -0.1137
52446SOL     OW64577   7.601   2.923   0.095 -0.1057 -0.0010 -0.5938
52446SOL    HW164578   7.613   2.954   0.184 -0.8228 -0.8951 -0.1689
52446SOL    HW264579   7.528   2.860   0.100  2.0604 -2.7471 -1.1388
52447SOL     OW64580   8.296   6.142   3.327  0.4519 -0.1349 -0.5151
52447SOL    HW164581   8.387   6.153   3.299  0.6181 -2.2106 -0.8787
52447SOL    HW264582   8.291   6.053   3.360 -1.5202 -0.1318 -0.7078
52448SOL     OW64583   9.346   1.958   8.178 -0.0146 -0.7604 -0.1552
52448SOL    HW164584   9.342   2.053   8.171 -0.3659 -0.8839 -2.2827
52448SOL    HW264585   9.278   1.936   8.242  0.0776  0.4055  0.3607
52449SOL     OW64586   2.154   0.631   7.778  0.7216  0.5311 -0.2740
52449SOL    HW164587   2.120   0.542   7.787  0.0001  0.8008 -0.2287
52449SOL    HW264588   2.238   0.629   7.824  0.6817 -0.1061 -0.2102
52450SOL     OW64589   6.039   0.556   1.574  0.2600  0.2312  0.3623
52450SOL    HW164590   6.134   0.547   1.564  0.6789  2.4212  1.6511
52450SOL    HW264591   6.006   0.566   1.485  0.9849 -2.0574 -0.2426
52451SOL     OW64592   6.236   8.845   4.193  0.0338 -0.6536 -0.2196
52451SOL    HW164593   6.285   8.845   4.275  0.0128  2.3390 -0.1195
52451SOL    HW264594   6.148   8.816   4.217 -0.0211  0.3860  0.8692
52452SOL     OW64595   8.437   3.122   4.570  0.0613  0.1996  0.0248
52452SOL    HW164596   8.368   3.057   4.580 -0.0769  0.3461  0.0266
52452SOL    HW264597   8.497   3.103   4.642  0.1622 -0.0958 -0.1343
52453SOL     OW64598  12.520   2.925   7.860 -0.5041  0.0122 -0.1740
52453SOL    HW164599  12.574   2.854   7.894 -2.7190 -1.5490  0.3465
52453SOL    HW264600  12.523   2.915   7.765  0.7438  0.4774 -0.1973
52454SOL     OW64601   8.532   3.461   8.161  0.4054  0.1494 -0.0870
52454SOL    HW164602   8.627   3.455   8.160  0.4274 -0.8910  2.0737
52454SOL    HW264603   8.502   3.390   8.105  0.8548  1.2068 -1.7453
52455SOL     OW64604   7.027   2.344   4.158 -0.4601  0.0589 -0.6314
52455SOL    HW164605   6.972   2.275   4.120  0.4663  0.0054 -1.9463
52455SOL    HW264606   6.979   2.425   4.141 -1.3551 -0.2007  0.5512
52456SOL     OW64607  12.650   2.501   2.314 -0.2598 -0.6870 -0.3843
52456SOL    HW164608  12.567   2.488   2.267 -2.3868  2.2519  2.1156
52456SOL    HW264609  12.628   2.488   2.406  2.6312 -1.7000  0.2873
52457SOL     OW64610  12.287   5.366   9.483 -0.4415  0.2051 -0.4607
52457SOL    HW164611  12.365   5.321   9.452  0.0343 -0.9929  2.2406
52457SOL    HW264612  12.318   5.455   9.504  0.7397 -0.7712  2.3233
52458SOL     OW64613   9.640   9.115   9.848 -0.4246 -1.1585  0.3513
52458SOL    HW164614   9.640   9.201   9.890  0.4382 -0.9580 -0.0323
52458SOL    HW264615   9.549   9.086   9.852 -0.5151 -0.7638  1.5716
52459SOL     OW64616  11.220   9.874   4.393 -0.8807  0.0872 -0.2983
52459SOL    HW164617  11.201   9.783   4.371  2.5041 -0.9683  0.6600
52459SOL    HW264618  11.170   9.890   4.474  0.0173 -1.6163  0.6446
52460SOL     OW64619   5.041   6.669  12.360 -0.4138  0.4208  0.1348
52460SOL    HW164620   5.000   6.744  12.316 -2.0702 -1.2640 -1.3702
52460SOL    HW264621   4.967   6.615  12.389  0.7370 -0.9520  0.6369
52461SOL     OW64622   2.626   1.212   9.225  0.0187  0.0707  0.0999
52461SOL    HW164623   2.601   1.120   9.229  1.3898 -0.3204  0.2924
52461SOL    HW264624   2.720   1.211   9.206  0.0320  1.4328 -0.0553
52462SOL     OW64625   8.240   8.677   1.435  0.0097 -0.3568  0.1533
52462SOL    HW164626   8.306   8.610   1.449 -1.1100 -1.6963 -0.7327
52462SOL    HW264627   8.162   8.629   1.407 -1.0888  1.2411  0.3117
52463SOL     OW64628   3.807  10.960   7.881  0.0553  0.6313 -0.1982
52463SOL    HW164629   3.746  10.915   7.939  1.0898  1.2236  1.4051
52463SOL    HW264630   3.753  10.988   7.807 -1.2176 -0.4736  0.2660
52464SOL     OW64631   0.778   0.545   4.958 -0.7266  0.0612  0.6324
52464SOL    HW164632   0.769   0.622   5.015 -1.5387  0.9852 -0.6869
52464SOL    HW264633   0.688   0.523   4.933 -0.4665 -1.0778  0.6683
52465SOL     OW64634   9.265  10.454   0.147  0.2414 -0.2319 -0.1530
52465SOL    HW164635   9.178  10.460   0.187 -0.1354  0.3013 -1.0338
52465SOL    HW264636   9.250  10.472   0.054  1.2198 -0.6578 -0.4067
52466SOL     OW64637   0.316   5.498  10.612  0.3483  0.2078 -0.2422
52466SOL    HW164638   0.227   5.535  10.618 -0.2859 -1.1679 -0.8179
52466SOL    HW264639   0.336   5.469  10.701 -0.0080  0.0139 -0.2248
52467SOL     OW64640   0.440  12.522  11.238  0.7145  0.2580  0.2586
52467SOL    HW164641   0.502  12.489  11.304  1.5036 -0.2046 -0.6932
52467SOL    HW264642   0.403  12.443  11.198  0.5609  0.5367 -0.1560
52468SOL     OW64643   2.130   6.532   8.812  0.1032 -0.1472 -0.4209
52468SOL    HW164644   2.093   6.604   8.761 -0.9335  0.5377  1.2088
52468SOL    HW264645   2.216   6.565   8.841 -0.3476  0.4569  0.2805
52469SOL     OW64646  10.175   3.832   9.893  0.0229  0.1500 -0.3771
52469SOL    HW164647  10.083   3.805   9.886 -0.1134  0.3834  0.4553
52469SOL    HW264648  10.213   3.770   9.954 -0.7522  2.8534  3.1472
52470SOL     OW64649   9.169   7.205  10.302 -0.1889  0.0336  0.0371
52470SOL    HW164650   9.240   7.200  10.239 -0.7076 -0.6916 -0.5115
52470SOL    HW264651   9.132   7.293  10.290 -0.5062 -0.2244 -0.9197
52471SOL     OW64652   7.018   2.436   7.167  0.1747  0.0063  0.2926
52471SOL    HW164653   7.074   2.487   7.109  1.2801  2.5901  3.3613
52471SOL    HW264654   7.079   2.396   7.230 -1.0908 -0.9096  0.9849
52472SOL     OW64655   9.695   4.048   1.579  0.0035  0.5590  0.0833
52472SOL    HW164656   9.691   4.060   1.674 -0.2377 -0.8495  0.2781
52472SOL    HW264657   9.629   4.107   1.544 -2.6696 -1.6238  1.1062
52473SOL     OW64658   3.867   5.569  11.651  0.5823  0.5883 -0.0429
52473SOL    HW164659   3.909   5.523  11.723 -0.3486 -0.5904 -0.2317
52473SOL    HW264660   3.909   5.656  11.651  0.9278  0.4607  1.6048
52474SOL     OW64661   6.046   5.774   8.729  0.3719 -0.2639 -0.6598
52474SOL    HW164662   6.134   5.806   8.751 -0.4615  1.7283  0.0029
52474SOL    HW264663   6.060   5.713   8.656  2.2287  0.5670 -1.0577
52475SOL     OW64664   3.258   7.082   2.466  0.3490 -0.3262  0.4706
52475SOL    HW164665   3.316   7.144   2.510 -1.3484  0.5515  1.5710
52475SOL    HW264666   3.203   7.136   2.409 -0.8491 -0.8272  1.1047
52476SOL     OW64667   8.616   9.807   2.739  0.0130 -0.0091 -0.5699
52476SOL    HW164668   8.653   9.895   2.742 -0.8973  0.3553  0.7038
52476SOL    HW264669   8.531   9.815   2.782 -0.3826 -1.3787 -1.0452
52477SOL     OW64670   6.785  12.000   6.839  0.0619 -0.0120 -0.2201
52477SOL    HW164671   6.808  11.925   6.784 -1.6201 -0.1721 -0.7534
52477SOL    HW264672   6.806  12.076   6.786 -0.1241 -0.1484 -0.4927
52478SOL     OW64673   6.125  10.562   6.912  0.2334  0.0953 -0.4606
52478SOL    HW164674   6.122  10.590   6.821  0.5266 -0.6322 -0.7053
52478SOL    HW264675   6.170  10.477   6.909  0.2654  0.0782  0.3611
52479SOL     OW64676   8.067  12.598   3.049  0.1176  0.4014 -0.2318
52479SOL    HW164677   8.083  12.661   3.119 -0.6068  1.7961 -1.2551
52479SOL    HW264678   8.154  12.566   3.025  0.6866  2.1189 -0.6392
52480SOL     OW64679  10.086   9.018   4.065 -0.2874  0.0813  0.2459
52480SOL    HW164680  10.049   9.064   3.989  0.1108  0.7919  0.4687
52480SOL    HW264681  10.126   8.939   4.028 -0.2565  0.3312 -0.2609
52481SOL     OW64682   5.408   7.563   8.213  0.1953  0.2757  0.1037
52481SOL    HW164683   5.478   7.537   8.154 -0.1275  0.4608 -0.3669
52481SOL    HW264684   5.409   7.658   8.212 -0.3714  0.2819 -0.2864
52482SOL     OW64685   7.217   4.547   8.957 -0.1478 -0.5299  0.1638
52482SOL    HW164686   7.255   4.583   8.878  1.6993  1.5393  1.8580
52482SOL    HW264687   7.248   4.456   8.959 -0.5106 -0.7248 -1.5864
52483SOL     OW64688   8.976  10.081   7.089  0.7547  0.7279 -0.6363
52483SOL    HW164689   9.044  10.044   7.031  2.2820  0.4395  1.2313
52483SOL    HW264690   8.927  10.004   7.119 -0.1909  0.8994 -1.6777
52484SOL     OW64691   5.054  10.875   0.215 -0.0043  0.1022  0.2072
52484SOL    HW164692   5.015  10.917   0.138 -1.1350  0.7924  1.1249
52484SOL    HW264693   5.107  10.944   0.256  0.6775 -0.2921  0.0005
52485SOL     OW64694   5.876   2.633   3.595 -0.7235 -0.9305  0.0568
52485SOL    HW164695   5.822   2.579   3.537  0.7108  0.2215 -2.5544
52485SOL    HW264696   5.966   2.605   3.579 -0.2028  0.0565  1.0525
52486SOL     OW64697   9.290   4.493  12.552  0.1222 -0.4307  0.2679
52486SOL    HW164698   9.307   4.483  12.458 -0.0640 -1.0279  0.2937
52486SOL    HW264699   9.230   4.567  12.557  0.6742  0.0516 -0.0244
52487SOL     OW64700   6.132   8.465   8.559 -0.0550  0.1995 -0.1460
52487SOL    HW164701   6.135   8.522   8.482 -0.0187  0.1595 -0.1743
52487SOL    HW264702   6.169   8.519   8.630 -1.1243  0.6315  0.1030
52488SOL     OW64703   9.387   1.637   1.793 -0.3130 -0.1476  0.2389
52488SOL    HW164704   9.453   1.573   1.819  0.5951  0.2449 -0.9993
52488SOL    HW264705   9.436   1.706   1.748 -1.4440  0.6876  0.2341
52489SOL     OW64706  11.685   1.707  12.181 -0.0943  0.9469  0.0795
52489SOL    HW164707  11.747   1.774  12.151  0.9687 -0.1847 -0.3276
52489SOL    HW264708  11.681   1.645  12.109  0.6661 -0.5793  1.3081
52490SOL     OW64709   0.625   0.373   7.567 -0.6019 -0.5879 -0.1234
52490SOL    HW164710   0.570   0.387   7.490 -0.0344 -0.4319 -0.5079
52490SOL    HW264711   0.714   0.373   7.532 -0.0382  2.7451  0.9074
52491SOL     OW64712   2.287   7.120   0.920 -0.1568 -0.0064  0.1478
52491SOL    HW164713   2.218   7.058   0.942  0.8626 -0.5988  1.8288
52491SOL    HW264714   2.282   7.187   0.988  1.3650 -0.4414  0.7235
52492SOL     OW64715   6.740  11.869  11.244  0.5100  0.1914 -0.2468
52492SOL    HW164716   6.775  11.916  11.320  1.3797 -0.2735 -0.3442
52492SOL    HW264717   6.645  11.874  11.254  0.5553  2.2948 -0.4540
52493SOL     OW64718   4.417  10.463  11.125  0.1651 -0.5700  0.5200
52493SOL    HW164719   4.507  10.469  11.093 -0.4956  0.0271 -1.4364
52493SOL    HW264720   4.370  10.529  11.073 -1.6841 -1.9337  0.3665
52494SOL     OW64721   9.046  12.257   1.875  0.2086 -0.2946  0.1295
52494SOL    HW164722   9.032  12.200   1.951 -1.6352 -1.4344 -0.9919
52494SOL    HW264723   9.103  12.206   1.817  0.6805  0.0978  0.2456
52495SOL     OW64724   6.906   8.774   6.269 -1.1451  0.0146 -0.2518
52495SOL    HW164725   6.919   8.764   6.175 -0.2376  0.7439 -0.2216
52495SOL    HW264726   6.995   8.769   6.306 -1.6243 -2.0133  0.7606
52496SOL     OW64727   6.795   9.086   2.820 -0.5214  0.6282 -0.0371
52496SOL    HW164728   6.715   9.056   2.863 -0.1162  2.0035  1.8054
52496SOL    HW264729   6.826   9.009   2.772 -1.8690 -0.5307  0.8387
52497SOL     OW64730   1.268   0.991   1.090 -0.3313  0.0612 -0.3833
52497SOL    HW164731   1.242   1.012   1.179  0.0951 -1.5989  0.1839
52497SOL    HW264732   1.363   0.995   1.091 -0.2587 -1.1590 -0.3979
52498SOL     OW64733   7.397   8.533   5.468  0.5554  0.2066  0.2833
52498SOL    HW164734   7.359   8.501   5.550 -0.6340 -0.2331 -0.4176
52498SOL    HW264735   7.357   8.619   5.454 -1.6935 -0.9953 -1.3629
52499SOL     OW64736   9.599   3.786   8.947 -0.2891  0.0623  0.0353
52499SOL    HW164737   9.538   3.857   8.967 -0.4707  0.0170 -0.3450
52499SOL    HW264738   9.686   3.827   8.948 -0.2559  0.0035  1.1892
52500SOL     OW64739   2.949   5.941   0.696  0.3592 -0.1738 -0.5209
52500SOL    HW164740   2.997   5.931   0.614  1.7957 -2.1850  0.4811
52500SOL    HW264741   2.922   5.852   0.719 -0.0475  0.3472  1.1526
52501SOL     OW64742  10.230   8.253   7.413 -0.0303  0.2310 -0.1950
52501SOL    HW164743  10.136   8.262   7.426  0.1461  1.5400  0.4078
52501SOL    HW264744  10.249   8.161   7.428 -1.2879 -0.1607 -0.9083
52502SOL     OW64745   1.219   7.796   5.871  0.3589  0.4988 -0.2802
52502SOL    HW164746   1.205   7.760   5.958  1.8941 -0.7730 -0.4982
52502SOL    HW264747   1.176   7.733   5.812  1.3254  0.0780 -0.5540
52503SOL     OW64748   2.065   5.169   3.168 -0.1842  0.3612  0.0414
52503SOL    HW164749   2.148   5.158   3.121 -1.3168  1.6856 -2.4902
52503SOL    HW264750   2.005   5.108   3.125 -0.6287 -0.3367  1.6162
52504SOL     OW64751   9.402   5.594   0.285 -0.0890  0.4664  0.1594
52504SOL    HW164752   9.440   5.507   0.295 -1.7785 -0.3351 -0.1642
52504SOL    HW264753   9.451   5.649   0.347  1.1061 -0.6625  0.2439
52505SOL     OW64754   2.582   4.843  11.726  0.2190  0.4304  0.0877
52505SOL    HW164755   2.600   4.754  11.695  0.1985  0.5548 -0.2828
52505SOL    HW264756   2.523   4.830  11.800  1.9138  0.0102  1.4178
52506SOL     OW64757   9.622   6.875   1.608  0.3897 -0.0780  0.3262
52506SOL    HW164758   9.534   6.841   1.593  0.2174 -0.5613  2.2419
52506SOL    HW264759   9.609   6.955   1.659  1.0604 -0.3237  0.9016
52507SOL     OW64760   6.524   6.770  12.126  0.3680  0.4243 -0.3069
52507SOL    HW164761   6.573   6.692  12.100  0.5438  0.3655  0.1884
52507SOL    HW264762   6.510   6.759  12.220 -1.3448  0.0248 -0.5756
52508SOL     OW64763   1.232  10.705  11.318 -0.0840 -0.8113  0.0817
52508SOL    HW164764   1.252  10.704  11.412 -1.7794 -1.8355  0.4793
52508SOL    HW264765   1.193  10.792  11.303 -0.0452 -0.7356  0.3958
52509SOL     OW64766  12.300  11.381   1.057 -0.3365  0.4144  0.3038
52509SOL    HW164767  12.381  11.421   1.087  0.6650 -2.6218  2.1702
52509SOL    HW264768  12.231  11.439   1.089  1.0022  2.6275 -0.5978
52510SOL     OW64769   2.466  11.084   2.026  0.3191  0.2074 -0.5575
52510SOL    HW164770   2.387  11.066   2.077  1.6679  1.6049  2.2315
52510SOL    HW264771   2.445  11.164   1.977  0.1893  0.9819  0.7212
52511SOL     OW64772   6.528   3.329   7.255  0.0370  0.3228 -0.4205
52511SOL    HW164773   6.437   3.308   7.276 -0.1070  0.4709 -0.9048
52511SOL    HW264774   6.548   3.406   7.308 -0.3612  0.7611 -0.9008
52512SOL     OW64775  12.410  10.771   8.830 -0.7892 -0.2221  0.5625
52512SOL    HW164776  12.504  10.781   8.820 -0.4936 -1.5021  1.7963
52512SOL    HW264777  12.385  10.834   8.898 -1.1866  1.4542 -1.0371
52513SOL     OW64778   6.806   8.380   2.196  0.1478 -0.0775  0.4930
52513SOL    HW164779   6.763   8.463   2.176 -2.1787 -1.1036  0.9448
52513SOL    HW264780   6.796   8.328   2.117 -0.9954 -0.9181  1.1613
52514SOL     OW64781   8.267  10.296  11.282 -0.2595 -0.2560 -0.2201
52514SOL    HW164782   8.184  10.248  11.293 -0.2605 -0.1296  0.3190
52514SOL    HW264783   8.248  10.360  11.213 -0.7193  0.0133  0.1520
52515SOL     OW64784   9.627  10.932   3.873 -0.2861  0.8327  0.4387
52515SOL    HW164785   9.653  11.021   3.849  0.2499  0.6220  0.2034
52515SOL    HW264786   9.535  10.939   3.897 -0.8468  1.0998 -1.5901
52516SOL     OW64787   2.600   7.378   8.590  0.2353  0.9696 -0.2268
52516SOL    HW164788   2.624   7.381   8.683 -0.3859  2.2823 -0.0931
52516SOL    HW264789   2.672   7.422   8.546  0.4279  0.5319 -0.3560
52517SOL     OW64790   1.846  11.638   0.055  0.1917 -0.2911  0.6093
52517SOL    HW164791   1.848  11.667  -0.036 -2.1812 -1.8406 -0.0230
52517SOL    HW264792   1.917  11.574   0.061  0.1561 -0.4271 -0.2568
52518SOL     OW64793  10.340   5.579   9.485  0.5020 -0.4216 -0.1671
52518SOL    HW164794  10.269   5.573   9.422  0.6227 -2.1968 -0.1899
52518SOL    HW264795  10.307   5.532   9.562 -0.1317  2.7296  1.6343
52519SOL     OW64796   9.047  11.490   7.489 -0.0299 -0.2797 -0.2418
52519SOL    HW164797   9.015  11.418   7.434 -0.5932  1.1770 -1.9353
52519SOL    HW264798   9.114  11.533   7.435 -0.6809  1.2660  0.1214
52520SOL     OW64799   1.746   2.621   4.545  0.1514 -0.2271 -0.3461
52520SOL    HW164800   1.837   2.600   4.527  0.3298  0.4589 -0.2669
52520SOL    HW264801   1.704   2.536   4.559  0.8367 -0.5289 -0.0936
52521SOL     OW64802   0.594   9.021   8.040  0.3570 -0.5992 -0.1533
52521SOL    HW164803   0.596   8.926   8.028  3.3827 -1.0676  2.5379
52521SOL    HW264804   0.665   9.053   7.985  0.1075 -0.0508 -0.1606
52522SOL     OW64805   1.983   1.891  11.713  0.0876  0.1622  0.0353
52522SOL    HW164806   1.901   1.939  11.702 -0.3360  0.1913  2.7252
52522SOL    HW264807   1.960   1.799  11.699 -0.6409  0.0775  1.6481
52523SOL     OW64808   4.185   2.171   0.410 -0.5537 -0.2940  0.1559
52523SOL    HW164809   4.210   2.262   0.392 -1.1728  0.2587  1.8800
52523SOL    HW264810   4.231   2.149   0.491 -0.0694 -1.6972 -0.4647
52524SOL     OW64811   8.966   2.695  12.025  0.3420 -0.1028  0.7688
52524SOL    HW164812   8.927   2.608  12.013 -0.5491  0.4705 -0.8358
52524SOL    HW264813   9.054   2.687  11.990  0.7675 -0.7149  1.9407
52525SOL     OW64814  10.939   2.878  10.733  0.5298 -0.4118 -0.1502
52525SOL    HW164815  10.970   2.790  10.754  0.8788 -0.0226  1.0527
52525SOL    HW264816  11.009   2.936  10.765 -0.1028  0.3385 -0.1049
52526SOL     OW64817  10.971   3.119   1.337  0.1842  0.3192  0.3432
52526SOL    HW164818  10.995   3.032   1.305 -1.9303 -0.7544  1.4779
52526SOL    HW264819  11.051   3.152   1.378  1.2009 -0.8252 -0.6427
52527SOL     OW64820   3.394   3.037   5.449 -0.1107 -0.6344  0.1389
52527SOL    HW164821   3.308   3.036   5.491  1.2287 -1.0176  3.1811
52527SOL    HW264822   3.433   3.119   5.478  0.5229 -0.4177 -1.2920
52528SOL     OW64823  11.550   3.187   9.162 -0.0613 -0.0201 -0.0408
52528SOL    HW164824  11.614   3.135   9.114  0.7837  0.1622  0.8532
52528SOL    HW264825  11.471   3.134   9.162 -0.0071 -0.1194 -1.4170
52529SOL     OW64826   4.754   5.220  10.714 -0.0748 -0.0236  0.2085
52529SOL    HW164827   4.718   5.201  10.800 -0.3825  1.7322  0.5018
52529SOL    HW264828   4.738   5.140  10.663 -0.6752 -0.7636  1.5083
52530SOL     OW64829   9.507   0.206   6.589  0.0718  0.6716 -0.0697
52530SOL    HW164830   9.593   0.164   6.579 -0.5309 -0.5103 -0.4251
52530SOL    HW264831   9.457   0.177   6.513 -0.5826  1.5493  0.0055
52531SOL     OW64832  11.205   5.749   4.479  0.1728 -0.0241 -0.2894
52531SOL    HW164833  11.215   5.821   4.417  0.3737 -0.2390 -0.5123
52531SOL    HW264834  11.224   5.670   4.428 -2.0495 -0.4249 -0.5624
52532SOL     OW64835   6.150   5.115  12.270  0.0420  0.3259 -0.9355
52532SOL    HW164836   6.136   5.141  12.179  1.0709  1.2222 -0.8515
52532SOL    HW264837   6.087   5.167  12.320  0.3748  0.8120 -1.0144
52533SOL     OW64838   1.835   7.340   3.070  0.0673 -0.0266  0.3051
52533SOL    HW164839   1.919   7.352   3.026  1.2300 -1.6217  1.9183
52533SOL    HW264840   1.791   7.425   3.063  1.9179  0.9189 -0.3648
52534SOL     OW64841   7.741   7.774   5.210  0.3982  0.4825 -0.2864
52534SOL    HW164842   7.652   7.745   5.192  0.1377  1.0934 -0.0275
52534SOL    HW264843   7.797   7.702   5.181 -0.2052 -0.1488  0.0966
52535SOL     OW64844  10.156   2.752   1.517 -0.3605 -0.0778 -0.2231
52535SOL    HW164845  10.250   2.734   1.522 -0.0295  1.6872  1.4520
52535SOL    HW264846  10.149   2.822   1.452 -0.8210 -1.6406 -1.9146
52536SOL     OW64847   9.268   7.744   9.347 -0.1974 -0.1150 -0.2378
52536SOL    HW164848   9.175   7.722   9.335 -0.3617 -0.4986  1.4211
52536SOL    HW264849   9.313   7.699   9.276 -1.1929 -0.7072 -0.5114
52537SOL     OW64850   0.789   6.030   2.664  0.5286 -0.3903 -0.3185
52537SOL    HW164851   0.709   6.050   2.713 -0.2154  0.4394 -1.8110
52537SOL    HW264852   0.859   6.039   2.728 -0.5183 -0.5709  0.8894
52538SOL     OW64853   4.981   7.121   7.108  0.0527  0.1121  0.3082
52538SOL    HW164854   4.914   7.178   7.146  0.3979  1.8623 -1.4901
52538SOL    HW264855   5.060   7.139   7.159  0.1455  1.3054 -0.2097
52539SOL     OW64856   7.242   9.052   4.615 -0.7243  0.5652  0.1701
52539SOL    HW164857   7.326   9.060   4.659  0.0517  0.9475 -1.3086
52539SOL    HW264858   7.178   9.041   4.686  0.4899  0.8532  1.3443
52540SOL     OW64859   8.222  10.816   6.728 -0.1765 -0.2796  0.6287
52540SOL    HW164860   8.267  10.899   6.741 -2.5032  1.2725 -0.3710
52540SOL    HW264861   8.129  10.840   6.721 -0.8174 -2.7768 -1.0800
52541SOL     OW64862   0.705   0.114  12.194  0.4526  0.5274 -0.1108
52541SOL    HW164863   0.688   0.170  12.117  0.1721  0.4848 -0.0792
52541SOL    HW264864   0.697   0.174  12.268  2.4250  0.9680 -0.1924
52542SOL     OW64865   9.934  11.524   8.306 -0.0231  0.3406 -0.3206
52542SOL    HW164866   9.996  11.495   8.373  0.0804  0.4054 -0.3864
52542SOL    HW264867   9.848  11.516   8.347  0.0571  0.6076 -0.0955
52543SOL     OW64868   7.827   0.984  12.626 -0.4034 -0.2449  0.0523
52543SOL    HW164869   7.804   0.929  12.552 -1.4430 -1.3520  1.1493
52543SOL    HW264870   7.845   1.070  12.588  1.2742 -1.3102 -1.6989
52544SOL     OW64871   6.962  10.766   1.643 -0.1261 -0.0286 -1.0930
52544SOL    HW164872   7.058  10.771   1.650 -0.2007 -0.5095  0.5906
52544SOL    HW264873   6.937  10.854   1.613  0.8526  0.0201 -1.8308
52545SOL     OW64874   8.081   9.953   8.967 -0.3909 -0.0294 -0.0388
52545SOL    HW164875   8.138  10.006   9.024 -0.2221  0.5739 -0.7606
52545SOL    HW264876   8.006  10.010   8.949 -1.0403 -0.6788  0.5829
52546SOL     OW64877   5.566  10.140   3.116  0.8901  0.0859  0.2063
52546SOL    HW164878   5.591  10.232   3.106  1.4805  0.1388  1.7480
52546SOL    HW264879   5.622  10.093   3.055  1.6976  0.6291  0.5056
52547SOL     OW64880   6.121   4.449  10.421 -0.2224  0.2603 -0.6111
52547SOL    HW164881   6.084   4.526  10.464 -1.0530 -0.6461  0.3376
52547SOL    HW264882   6.197   4.483  10.373  1.1525  1.2448  2.0635
52548SOL     OW64883   3.192   4.825   5.408  0.2636  0.5203 -0.3717
52548SOL    HW164884   3.137   4.780   5.472 -0.4218  1.2673 -0.4293
52548SOL    HW264885   3.180   4.776   5.327  0.6244 -0.0351 -0.0968
52549SOL     OW64886   3.854   9.504   9.829 -0.3167 -0.0776  0.5440
52549SOL    HW164887   3.884   9.574   9.888 -1.4359  0.1164  0.9034
52549SOL    HW264888   3.899   9.426   9.860  1.9207  0.6471 -0.6121
52550SOL     OW64889   1.442   2.302   9.724 -0.0463 -0.9543 -0.1768
52550SOL    HW164890   1.508   2.243   9.687  0.2369  0.2482 -1.6973
52550SOL    HW264891   1.399   2.341   9.648 -2.3045 -1.4298  0.7726
52551SOL     OW64892   1.686   8.169   1.430  0.3356  0.3542  0.0681
52551SOL    HW164893   1.644   8.202   1.350  0.8472  2.5911  0.6564
52551SOL    HW264894   1.698   8.246   1.485 -0.2242 -1.1589  2.4673
52552SOL     OW64895   8.613   7.700   9.552  0.0605  0.4302  0.4575
52552SOL    HW164896   8.563   7.781   9.564 -2.7550 -1.1009 -0.0143
52552SOL    HW264897   8.566   7.653   9.483  0.5199 -2.3648  1.9222
52553SOL     OW64898   0.134   0.830   0.883 -0.1440  0.4097  0.0019
52553SOL    HW164899   0.060   0.878   0.845 -0.0782  0.2047 -0.3936
52553SOL    HW264900   0.201   0.896   0.897 -0.9971  0.9383  2.0086
52554SOL     OW64901  12.261   1.385   5.177 -0.6263  0.0125  0.0917
52554SOL    HW164902  12.281   1.313   5.118  0.8098  0.7156 -0.3299
52554SOL    HW264903  12.172   1.412   5.154 -0.0089  0.4408 -1.9693
52555SOL     OW64904   2.685   7.250  12.003 -0.6225  0.2069 -0.3504
52555SOL    HW164905   2.751   7.211  12.060  0.7495 -0.5611 -2.3727
52555SOL    HW264906   2.728   7.324  11.962 -0.8780 -0.4397 -1.8777
52556SOL     OW64907   4.710   8.078   2.817 -0.2834 -0.2240  0.3301
52556SOL    HW164908   4.692   8.158   2.767  0.0451  0.3305  1.0769
52556SOL    HW264909   4.798   8.091   2.852 -0.6153 -0.4755  1.2838
52557SOL     OW64910   5.146   3.134   3.158 -0.6692  0.1513  0.2764
52557SOL    HW164911   5.171   3.067   3.094 -0.4749 -1.0230  1.5163
52557SOL    HW264912   5.050   3.133   3.157 -0.7827 -2.3228  2.3173
52558SOL     OW64913  12.529   2.623   1.740 -0.5798 -0.2517  0.4682
52558SOL    HW164914  12.495   2.594   1.824  0.6685 -1.3541  0.6181
52558SOL    HW264915  12.568   2.709   1.759 -1.0406 -0.1112  0.8149
52559SOL     OW64916   2.694   5.412  12.613  0.3505 -0.0278 -0.4675
52559SOL    HW164917   2.620   5.370  12.657  0.9682 -0.2224  0.4111
52559SOL    HW264918   2.714   5.354  12.539  0.5799 -0.7765  0.1736
52560SOL     OW64919  11.613   0.395   6.007 -0.2298  0.1883 -0.2003
52560SOL    HW164920  11.642   0.320   6.059 -0.9581 -0.1471 -0.2654
52560SOL    HW264921  11.578   0.456   6.072  1.0225  0.7991 -0.0736
52561SOL     OW64922  11.610   3.976   7.707 -0.7039  0.2344 -0.1550
52561SOL    HW164923  11.627   3.998   7.799 -1.0281 -1.0508  0.2333
52561SOL    HW264924  11.592   3.882   7.708 -3.2052  0.6136 -1.1618
52562SOL     OW64925   2.342  11.327   7.934 -0.5588 -0.2535 -0.1185
52562SOL    HW164926   2.386  11.389   7.992  0.6051 -0.7539 -0.4445
52562SOL    HW264927   2.346  11.244   7.981 -2.1428 -0.0998  0.3343
52563SOL     OW64928   5.817   4.098   1.569 -0.1894  0.0449  0.3088
52563SOL    HW164929   5.736   4.143   1.593 -0.7558 -1.8357  2.2121
52563SOL    HW264930   5.882   4.130   1.632 -0.0613 -0.2225  0.3130
52564SOL     OW64931   3.992   8.272  12.705  0.0941 -0.0486  0.5165
52564SOL    HW164932   4.044   8.240  12.631 -0.8446  1.2220 -0.7742
52564SOL    HW264933   4.055   8.312  12.764  1.0910 -2.6857  1.3682
52565SOL     OW64934   3.022   7.970   2.712 -0.1084  0.0203  0.0776
52565SOL    HW164935   2.965   7.901   2.680  2.9701 -2.0099 -1.5909
52565SOL    HW264936   3.074   7.928   2.781  2.2815  0.3418 -1.4184
52566SOL     OW64937   9.327   9.183   7.625  0.2054  0.1820  0.6353
52566SOL    HW164938   9.334   9.112   7.689 -1.3086 -0.2341  0.3896
52566SOL    HW264939   9.299   9.259   7.676 -0.0775  0.0902  0.6218
52567SOL     OW64940   1.841   3.574   5.703 -0.1960 -0.0585 -0.0371
52567SOL    HW164941   1.874   3.485   5.708 -0.7503 -0.4520 -2.3773
52567SOL    HW264942   1.902   3.625   5.756  0.9450 -1.5982  0.2039
52568SOL     OW64943  11.266  12.419  11.978  0.4201  0.1017  0.6825
52568SOL    HW164944  11.218  12.358  12.034 -1.3697  1.3396  0.5735
52568SOL    HW264945  11.291  12.367  11.902 -1.2131 -0.4735  0.5162
52569SOL     OW64946   9.889   0.033   6.102  0.1838  0.9189 -0.0921
52569SOL    HW164947   9.839  -0.010   6.171  1.6882 -1.2297 -0.2443
52569SOL    HW264948   9.930   0.108   6.146 -0.6302  0.8874  0.7712
52570SOL     OW64949   3.863   3.251  10.004 -0.0752 -0.5669 -0.5666
52570SOL    HW164950   3.906   3.268  10.088 -0.3752 -0.0221 -0.5192
52570SOL    HW264951   3.859   3.337   9.961 -1.1016 -0.5995 -0.5704
52571SOL     OW64952   6.502   8.597   9.025 -0.0228  0.0073 -0.5822
52571SOL    HW164953   6.437   8.632   9.085  0.2616 -1.2721  0.5376
52571SOL    HW264954   6.573   8.567   9.082  0.5343 -0.6754 -1.6031
52572SOL     OW64955  12.532   0.504   9.420  0.5728 -0.1601  0.3576
52572SOL    HW164956  12.473   0.579   9.426 -0.7028 -0.9832 -1.2974
52572SOL    HW264957  12.474   0.430   9.404  2.1003 -0.7996 -2.8129
52573SOL     OW64958   9.677   6.972   3.606 -0.5749  0.4508  0.5296
52573SOL    HW164959   9.631   7.053   3.586  0.6880  1.3770  1.1938
52573SOL    HW264960   9.614   6.903   3.588 -0.9820  1.4187 -2.2472
52574SOL     OW64961   4.770   2.363  12.391  0.3176  0.2656  0.3803
52574SOL    HW164962   4.766   2.399  12.480  0.2331  2.2391 -0.3861
52574SOL    HW264963   4.835   2.294  12.397 -0.1514 -0.0906  2.1204
52575SOL     OW64964  12.309   0.361   7.271 -0.3735 -0.8941 -0.3434
52575SOL    HW164965  12.336   0.350   7.362  0.0188 -0.1667 -0.3637
52575SOL    HW264966  12.238   0.425   7.274 -0.5577 -1.0905 -0.5199
52576SOL     OW64967  12.396   8.480   4.135  0.6082  0.1240 -0.8421
52576SOL    HW164968  12.472   8.447   4.087  0.2522  0.2012 -1.4736
52576SOL    HW264969  12.336   8.405   4.138 -0.4933  0.8330 -2.8694
52577SOL     OW64970   3.486   8.452   6.555 -0.5364 -0.3747  0.4448
52577SOL    HW164971   3.509   8.373   6.604 -1.7950 -0.3439  1.1377
52577SOL    HW264972   3.565   8.506   6.559 -0.1814 -0.9277  1.3589
52578SOL     OW64973   8.661   5.094  10.469  0.2808 -0.5411  0.5604
52578SOL    HW164974   8.573   5.129  10.481  0.5485  1.1711 -1.8971
52578SOL    HW264975   8.714   5.139  10.534 -0.5353 -1.3412  1.8325
52579SOL     OW64976   9.808   5.237   8.655  0.3505  0.2991  0.7917
52579SOL    HW164977   9.743   5.295   8.696  0.2888  0.7441  0.0736
52579SOL    HW264978   9.761   5.197   8.582  0.8290  0.4603  0.3969
52580SOL     OW64979   7.166   1.562   6.596 -0.6286 -0.0895 -0.0044
52580SOL    HW164980   7.225   1.617   6.545  0.8502 -1.6424 -0.0714
52580SOL    HW264981   7.223   1.518   6.659 -2.0358 -0.1663  1.2605
52581SOL     OW64982  12.204   0.108  12.469  0.0707  0.6553  0.1575
52581SOL    HW164983  12.191   0.114  12.564 -0.8397 -3.1600  0.4561
52581SOL    HW264984  12.287   0.151  12.454  0.7538  0.5066  2.8823
52582SOL     OW64985   9.778   2.236   3.810 -0.2553 -0.1980  0.0704
52582SOL    HW164986   9.741   2.324   3.798  0.7249  0.1873 -0.1731
52582SOL    HW264987   9.803   2.232   3.902  0.1497 -0.0425 -0.0317
52583SOL     OW64988  10.003   8.659  10.758 -0.2155 -0.2102 -0.0150
52583SOL    HW164989  10.091   8.697  10.764 -0.6747  0.8334  0.3474
52583SOL    HW264990  10.018   8.570  10.727  0.9618 -0.0102 -0.0839
52584SOL     OW64991  11.944   3.061   6.576 -0.3070  0.3921 -0.2844
52584SOL    HW164992  11.851   3.048   6.554 -0.0662 -0.3608 -0.9351
52584SOL    HW264993  11.943   3.104   6.661 -1.2704  1.6307 -0.8855
52585SOL     OW64994   3.092   3.173   3.980  0.6277  0.0009  0.1282
52585SOL    HW164995   3.093   3.193   4.074 -0.0047 -0.1899  0.1819
52585SOL    HW264996   3.007   3.204   3.950  0.8960  0.2196 -0.4235
52586SOL     OW64997   7.639   7.067   9.196  0.2884 -0.0213  0.2768
52586SOL    HW164998   7.714   7.043   9.249 -0.6272 -1.0850  1.1512
52586SOL    HW264999   7.618   7.157   9.222  2.2262  0.9310 -1.1999
52587SOL     OW65000   7.805   2.595  11.387  0.5154 -0.0923 -0.8651
52587SOL    HW165001   7.747   2.672  11.396  0.3605 -0.2725 -0.2181
52587SOL    HW265002   7.819   2.566  11.477 -0.7356 -1.7974 -1.1630
52588SOL     OW65003   2.655  10.503   8.529 -0.1315  0.7190 -0.1807
52588SOL    HW165004   2.655  10.466   8.617 -0.6660 -0.0325 -0.4848
52588SOL    HW265005   2.669  10.597   8.542 -1.6504  0.8457  0.8125
52589SOL     OW65006   9.527   8.095  11.789  0.4448 -0.1209 -0.3746
52589SOL    HW165007   9.502   8.150  11.863 -0.6132 -0.8138 -0.2003
52589SOL    HW265008   9.621   8.079  11.802  0.2480 -0.3469  0.9105
52590SOL     OW65009   4.059   3.932   0.103  0.0840  0.7364 -0.2281
52590SOL    HW165010   4.136   3.911   0.051 -0.5230  0.5374 -1.0642
52590SOL    HW265011   4.080   4.016   0.144  1.1200  0.2346  0.3366
52591SOL     OW65012  11.475   5.554   5.069 -0.4929 -0.0084 -0.4260
52591SOL    HW165013  11.395   5.598   5.099  0.1683  0.3479  0.8894
52591SOL    HW265014  11.472   5.563   4.973 -1.4462  1.0192 -0.3291
52592SOL     OW65015  10.419   5.940   9.829  0.5307  0.0293 -0.5319
52592SOL    HW165016  10.371   6.016   9.861 -3.5953 -2.4028 -0.3454
52592SOL    HW265017  10.492   5.931   9.890 -0.9331  1.7266  1.6496
52593SOL     OW65018   2.608   2.819   4.594  0.2797  0.0181 -0.6290
52593SOL    HW165019   2.592   2.751   4.529  1.8990  0.0713 -1.1189
52593SOL    HW265020   2.699   2.844   4.582 -0.0054  1.6248  0.1708
52594SOL     OW65021  10.603   2.054   0.371  0.2331 -0.2534  0.0251
52594SOL    HW165022  10.601   2.037   0.466  1.5229  1.3740  0.3923
52594SOL    HW265023  10.696   2.047   0.348  0.1989  1.3396 -0.7003
52595SOL     OW65024   0.668  11.992   7.520 -0.1263  0.4754  0.3360
52595SOL    HW165025   0.583  11.998   7.476  0.5330 -3.4048 -1.9673
52595SOL    HW265026   0.667  11.906   7.563  2.7154  0.0999 -0.1261
52596SOL     OW65027   0.541   3.488   3.447  0.7316 -0.2360 -0.2926
52596SOL    HW165028   0.537   3.394   3.461  2.7389 -0.5188 -1.3017
52596SOL    HW265029   0.571   3.524   3.530 -1.1144 -0.2970  0.4650
52597SOL     OW65030   5.113   2.445   8.491  0.0938 -0.7773  0.2807
52597SOL    HW165031   5.085   2.494   8.569  0.6448 -0.4870  0.3008
52597SOL    HW265032   5.118   2.354   8.521  0.7069 -0.6118  0.7062
52598SOL     OW65033   3.762  11.791   6.995  0.1821 -0.4498  0.3140
52598SOL    HW165034   3.802  11.721   7.046 -0.5548 -0.3637  1.0389
52598SOL    HW265035   3.830  11.858   6.987 -0.2928  0.4818  3.0515
52599SOL     OW65036   0.465  12.709   2.482 -0.0815  0.3262  0.6481
52599SOL    HW165037   0.436  12.685   2.570  0.8371 -2.7641  0.2159
52599SOL    HW265038   0.544  12.761   2.495 -1.6406  2.5975  1.6387
52600SOL     OW65039   9.793   8.517  11.623 -0.1636  0.1642  0.1190
52600SOL    HW165040   9.751   8.564  11.550 -0.7370  1.0105  0.9660
52600SOL    HW265041   9.749   8.432  11.624  0.0062  0.0595 -0.6598
52601SOL     OW65042  11.038   2.649   5.772  0.1708 -0.0993 -0.8760
52601SOL    HW165043  11.022   2.706   5.847  0.4345 -0.4525 -0.5510
52601SOL    HW265044  11.017   2.703   5.696 -0.1083  0.2556 -0.5495
52602SOL     OW65045  11.917   5.762  11.454  0.0424  0.4543 -0.1711
52602SOL    HW165046  11.897   5.856  11.455  2.9076  1.1551 -0.1518
52602SOL    HW265047  11.938   5.741  11.545 -0.8366 -0.3091 -0.1270
52603SOL     OW65048   3.662   9.764   1.677  0.3337 -0.2596  0.2509
52603SOL    HW165049   3.647   9.815   1.757 -0.1309 -1.0476  0.6762
52603SOL    HW265050   3.575   9.751   1.640  0.4450 -0.7320  0.1465
52604SOL     OW65051   6.751   4.115   9.480 -0.2648  0.9505 -0.5857
52604SOL    HW165052   6.666   4.159   9.486  0.1667  1.6268  0.9104
52604SOL    HW265053   6.768   4.082   9.568  0.9509  0.6673 -0.8993
52605SOL     OW65054   3.988   1.564  11.381  0.0302  0.5895 -0.1221
52605SOL    HW165055   3.905   1.580  11.425  0.8765  2.8858  0.8179
52605SOL    HW265056   3.969   1.573  11.288 -0.8690  0.5292  0.0512
52606SOL     OW65057  11.429   3.836   6.462  0.1637 -0.2202 -0.0572
52606SOL    HW165058  11.410   3.779   6.387  2.6391  0.6919 -1.5127
52606SOL    HW265059  11.344   3.857   6.499 -0.9906 -2.6599 -1.1225
52607SOL     OW65060  12.189   4.238   5.607 -0.2437 -0.4056  0.1795
52607SOL    HW165061  12.164   4.215   5.518  2.6540 -2.9278 -0.1390
52607SOL    HW265062  12.198   4.333   5.605 -1.6280 -0.2496 -1.7846
52608SOL     OW65063   6.637  10.625   0.180 -0.0886  0.1158 -0.1039
52608SOL    HW165064   6.616  10.700   0.236 -0.4460 -1.2437  1.6532
52608SOL    HW265065   6.717  10.651   0.135 -0.0411  1.4412  0.6950
52609SOL     OW65066   0.364   0.706   0.643 -0.3415  0.3999  0.6743
52609SOL    HW165067   0.286   0.681   0.693 -1.0973  0.3585 -0.4843
52609SOL    HW265068   0.362   0.649   0.565 -0.4652  1.9833 -0.5361
52610SOL     OW65069   8.119   2.085   7.010  0.5460 -0.2149  0.2947
52610SOL    HW165070   8.130   1.993   7.032 -1.5620 -0.4491  0.6216
52610SOL    HW265071   8.117   2.087   6.914 -0.2740 -0.6611  0.2913
52611SOL     OW65072   4.438   1.386   3.296  0.2637  0.2905 -0.2323
52611SOL    HW165073   4.482   1.303   3.279 -1.1624 -0.6240  0.3920
52611SOL    HW265074   4.413   1.381   3.388  0.2198  1.4554 -0.1695
52612SOL     OW65075  12.636   7.837   9.302 -0.1433 -0.0302  0.9912
52612SOL    HW165076  12.582   7.909   9.269  1.2674  0.4028 -0.5004
52612SOL    HW265077  12.617   7.763   9.245  1.0865  0.2380  0.1966
52613SOL     OW65078   6.136   1.920   6.375  0.4411 -0.1489  0.7388
52613SOL    HW165079   6.122   1.995   6.433  0.8590 -0.6473  1.4993
52613SOL    HW265080   6.183   1.857   6.429  2.1298 -0.0677 -0.5559
52614SOL     OW65081   4.824   9.838   7.414 -0.1875  0.5573 -0.2109
52614SOL    HW165082   4.875   9.912   7.445 -1.2897  1.1410  0.2633
52614SOL    HW265083   4.861   9.763   7.460  2.2233  0.4446 -2.1319
52615SOL     OW65084   7.995   1.834  10.860 -0.2073  0.2571  0.1225
52615SOL    HW165085   7.984   1.788  10.777 -2.0478  0.2610  0.3321
52615SOL    HW265086   7.906   1.850  10.891  0.4305  1.4001  1.4777
52616SOL     OW65087   4.690   4.599   6.999 -0.5791 -0.4514 -0.4704
52616SOL    HW165088   4.654   4.639   7.078  0.7594  0.2272 -0.1825
52616SOL    HW265089   4.615   4.589   6.941 -1.0791  2.1297 -0.4051
52617SOL     OW65090   9.333   2.344  12.009 -0.0279  0.0887  0.0324
52617SOL    HW165091   9.363   2.263  12.050 -0.6203  0.7490  1.8564
52617SOL    HW265092   9.291   2.315  11.928  0.6973 -1.3240  0.1302
52618SOL     OW65093  10.700   9.715  10.417  0.1312  0.3324 -0.1257
52618SOL    HW165094  10.689   9.741  10.325  1.5065  1.2147 -0.0575
52618SOL    HW265095  10.741   9.629  10.413 -0.6905 -0.0615 -0.3288
52619SOL     OW65096   0.405   1.015   0.188  0.3879 -0.0108 -0.0222
52619SOL    HW165097   0.346   0.981   0.121  1.3278 -1.7947  0.0161
52619SOL    HW265098   0.433   0.938   0.237  0.8234  1.0947  1.5453
52620SOL     OW65099  12.232   6.339   2.774  0.2678  0.3221  0.2214
52620SOL    HW165100  12.285   6.407   2.732 -0.3147  0.0270 -1.0662
52620SOL    HW265101  12.188   6.295   2.701 -1.2585  0.1454  1.2046
52621SOL     OW65102   1.751   1.479  10.021 -0.1862  0.2565  0.0698
52621SOL    HW165103   1.727   1.442  10.106  0.0389  2.6283  1.2490
52621SOL    HW265104   1.801   1.409   9.978 -0.3632 -1.0371  1.8476
52622SOL     OW65105  12.246   5.743   6.059  0.2456  0.0903 -0.4168
52622SOL    HW165106  12.219   5.834   6.061  1.1673  0.3788 -0.6044
52622SOL    HW265107  12.164   5.693   6.061 -0.2461  0.9043  0.3021
52623SOL     OW65108   9.218   0.127   8.585 -0.1312 -0.6915  0.0941
52623SOL    HW165109   9.183   0.215   8.576  0.6085 -0.4282 -0.2447
52623SOL    HW265110   9.292   0.124   8.525  2.0502 -0.4338  2.6245
52624SOL     OW65111   4.670  10.052   9.145  0.0046  0.2696  0.1930
52624SOL    HW165112   4.716  10.136   9.155  1.1916 -0.4831  1.5144
52624SOL    HW265113   4.672  10.034   9.051 -1.6320  2.4188 -0.3212
52625SOL     OW65114   9.352   8.262   4.256 -0.0458  0.0878  0.1350
52625SOL    HW165115   9.321   8.343   4.215  1.8938  0.3568 -0.9331
52625SOL    HW265116   9.330   8.193   4.193  1.5565  0.3053 -0.7229
52626SOL     OW65117   0.564   5.924   1.338 -0.5146  0.0790 -0.2455
52626SOL    HW165118   0.520   6.002   1.306 -1.1429  0.0537  0.5349
52626SOL    HW265119   0.496   5.857   1.341 -0.0419 -0.4322 -0.6521
52627SOL     OW65120   1.564   9.677   1.308 -0.1857 -0.2991 -0.0320
52627SOL    HW165121   1.558   9.625   1.389 -1.7658 -0.7580 -0.3977
52627SOL    HW265122   1.534   9.764   1.333  0.6619 -0.0529  0.1642
52628SOL     OW65123   0.829   5.286  10.587 -0.3202  0.6879 -0.0440
52628SOL    HW165124   0.871   5.209  10.548  0.3208  0.7705  0.4626
52628SOL    HW265125   0.739   5.282  10.556  0.4834  1.6056 -2.8259
52629SOL     OW65126   1.865   2.166   0.975 -0.1082  0.2578  0.0566
52629SOL    HW165127   1.899   2.208   1.055  1.2942 -1.6799  0.5630
52629SOL    HW265128   1.771   2.157   0.990  0.2297 -0.6654  1.8015
52630SOL     OW65129   5.178   9.748   1.977  0.1487  0.5435  0.0471
52630SOL    HW165130   5.099   9.782   1.934  0.9267  1.8208 -0.4192
52630SOL    HW265131   5.165   9.767   2.069 -1.6420 -2.4231  0.5625
52631SOL     OW65132   2.011  12.570   2.734  0.8847 -0.6825  0.1883
52631SOL    HW165133   2.105  12.549   2.730  1.0845  0.0241  0.8389
52631SOL    HW265134   1.986  12.587   2.643  1.2979 -1.2421 -0.0359
52632SOL     OW65135   5.235   2.692   0.102 -0.3183  0.0003 -0.0405
52632SOL    HW165136   5.296   2.627   0.137 -1.2674 -1.7226 -1.4452
52632SOL    HW265137   5.283   2.734   0.030  0.0397  0.3724  0.4075
52633SOL     OW65138   7.198  11.618   7.666  0.3982 -0.1346 -0.0137
52633SOL    HW165139   7.230  11.696   7.622 -1.6848  1.1594  0.6238
52633SOL    HW265140   7.197  11.642   7.759 -1.4318 -0.4156  0.0834
52634SOL     OW65141  12.595   7.864   1.502 -0.2079  0.6117 -0.3143
52634SOL    HW165142  12.507   7.895   1.479 -1.3083  0.4023  3.0064
52634SOL    HW265143  12.627   7.929   1.566  0.0528 -1.6362  1.9924
52635SOL     OW65144   5.011   8.295   1.558  0.1952 -0.0884  0.0600
52635SOL    HW165145   4.939   8.273   1.497 -0.0538  0.9830 -0.0414
52635SOL    HW265146   5.089   8.298   1.502 -0.1871  1.9274 -0.4434
52636SOL     OW65147   7.741   8.522  11.495 -0.3555 -0.4787  0.0814
52636SOL    HW165148   7.703   8.526  11.583 -1.1465 -0.7925 -0.2340
52636SOL    HW265149   7.765   8.430  11.484 -0.2276 -0.4331 -0.0211
52637SOL     OW65150   0.103   9.463   4.468  0.2080 -0.4642  0.3948
52637SOL    HW165151   0.051   9.512   4.405  0.9627  1.2470  1.0513
52637SOL    HW265152   0.188   9.451   4.426  0.5098  0.1281  0.8179
52638SOL     OW65153  11.103   7.667   3.868  0.2100 -0.1353  0.5869
52638SOL    HW165154  11.051   7.708   3.799  1.0062 -0.2885 -0.1052
52638SOL    HW265155  11.134   7.585   3.830  1.5120  0.2603  0.7506
52639SOL     OW65156   1.671  10.870   5.993 -0.2956  0.7818  0.4412
52639SOL    HW165157   1.708  10.820   5.920 -0.0791 -1.7007  2.1078
52639SOL    HW265158   1.744  10.924   6.024  0.1707  0.4317 -0.0226
52640SOL     OW65159  10.176   9.215  10.365  0.9178  0.4154  0.3054
52640SOL    HW165160  10.153   9.303  10.395  0.0367  0.3080 -0.0238
52640SOL    HW265161  10.192   9.224  10.271  1.3238  0.3086  0.3593
52641SOL     OW65162   9.453  10.501   4.253  0.0795 -0.1228  0.7559
52641SOL    HW165163   9.359  10.493   4.267 -0.0140 -0.6414 -0.1196
52641SOL    HW265164   9.467  10.594   4.235 -0.3719 -0.1706  0.1415
52642SOL     OW65165   6.429   2.869   4.314  0.0922 -0.4932  0.4951
52642SOL    HW165166   6.372   2.931   4.268  0.3928 -0.8375 -0.3549
52642SOL    HW265167   6.517   2.891   4.284  0.2113 -1.2599  0.2684
52643SOL     OW65168   4.451   6.343   6.647 -0.1378  0.2765  0.5951
52643SOL    HW165169   4.381   6.305   6.701 -1.0426  1.4096  0.2616
52643SOL    HW265170   4.499   6.267   6.613  0.5760 -0.4872  3.0766
52644SOL     OW65171   2.299   9.752   5.332  0.4906 -0.1912 -0.0066
52644SOL    HW165172   2.210   9.719   5.319  0.5629 -0.7260  0.7745
52644SOL    HW265173   2.350   9.675   5.357  0.6992  0.4618  1.7402
52645SOL     OW65174   5.717   1.591  11.108 -0.0210  0.4103  0.2255
52645SOL    HW165175   5.658   1.522  11.137  0.7068 -0.3214 -0.0129
52645SOL    HW265176   5.774   1.607  11.183 -1.0082  1.6798  0.7399
52646SOL     OW65177   2.765   1.867  10.324 -0.1137  0.1901  0.2074
52646SOL    HW165178   2.747   1.779  10.289 -0.6176 -0.3600  1.7858
52646SOL    HW265179   2.683   1.915  10.311  0.1054  0.3916 -0.4923
52647SOL     OW65180   2.712   0.823   1.188  0.2204 -0.2977  0.3149
52647SOL    HW165181   2.678   0.864   1.268  0.9426 -0.0902  0.5258
52647SOL    HW265182   2.711   0.730   1.207 -0.2660 -0.2980  0.3009
52648SOL     OW65183   3.619  11.743   0.568 -0.5090 -0.1151  0.0059
52648SOL    HW165184   3.586  11.813   0.624 -1.8971 -1.1218  0.5050
52648SOL    HW265185   3.704  11.720   0.606 -1.1853 -0.4166  1.4080
52649SOL     OW65186   8.102   2.946   0.872 -0.1865  0.1778 -0.6184
52649SOL    HW165187   8.169   2.891   0.831  0.5481  1.2929 -0.9918
52649SOL    HW265188   8.100   2.918   0.963  1.2518  0.5024 -0.4542
52650SOL     OW65189  10.632   5.133   5.827 -0.1536 -0.4159 -0.5696
52650SOL    HW165190  10.656   5.093   5.910  0.7385  2.4541  0.6693
52650SOL    HW265191  10.706   5.116   5.769  0.2152 -0.5032 -0.0738
52651SOL     OW65192   4.950   0.509  10.366 -0.3954 -0.7112  0.3021
52651SOL    HW165193   4.895   0.555  10.429 -2.3278 -1.5557 -0.6842
52651SOL    HW265194   4.953   0.419  10.398  2.4019 -0.2563  1.5919
52652SOL     OW65195   5.357   7.104   8.348  0.9033 -0.3766  0.0093
52652SOL    HW165196   5.267   7.104   8.381  1.6394  0.0716  2.2187
52652SOL    HW265197   5.349   7.133   8.258 -1.0873  0.6729  0.4493
52653SOL     OW65198   3.171  11.136  11.640  0.0991 -0.6472 -0.1286
52653SOL    HW165199   3.116  11.179  11.575 -0.6065 -2.0175 -0.4868
52653SOL    HW265200   3.129  11.156  11.724  0.6906  0.6514 -0.1174
52654SOL     OW65201   4.979   1.267   0.690 -0.3437 -0.3922  0.0857
52654SOL    HW165202   5.051   1.323   0.661  0.4927 -0.6588  1.5096
52654SOL    HW265203   5.020   1.181   0.702 -1.1173 -0.7747  0.0270
52655SOL     OW65204  11.257   0.072   2.026  0.3027 -0.7984 -0.2196
52655SOL    HW165205  11.255   0.167   2.036 -0.6065 -0.8410  0.0710
52655SOL    HW265206  11.344   0.046   2.057  0.6990 -0.0234 -0.6831
52656SOL     OW65207   8.463  11.485   2.387 -0.2002 -0.2356  0.1986
52656SOL    HW165208   8.384  11.535   2.409  0.2013  0.5811 -0.2204
52656SOL    HW265209   8.441  11.441   2.305 -0.6773 -1.0559  0.7402
52657SOL     OW65210   2.211   4.916   2.790 -0.1494  0.2356  0.8219
52657SOL    HW165211   2.171   4.874   2.866 -0.2983 -1.1708  0.0034
52657SOL    HW265212   2.143   4.915   2.723 -0.2278  2.0285  0.8314
52658SOL     OW65213   8.376   6.414   0.947  0.2427  0.8043  0.3554
52658SOL    HW165214   8.384   6.509   0.951  2.4003  0.6597  0.6311
52658SOL    HW265215   8.436   6.381   1.014 -0.9783 -0.7579  0.7478
52659SOL     OW65216   6.236   0.910   5.097 -0.3329 -0.0978  0.3184
52659SOL    HW165217   6.185   0.830   5.080  1.8694 -1.4053 -0.6579
52659SOL    HW265218   6.223   0.963   5.018 -0.6131 -0.1566  0.3224
52660SOL     OW65219   2.749   3.582   6.090 -0.9428  0.6174  0.2830
52660SOL    HW165220   2.759   3.639   6.013  0.7325  2.6652  1.8577
52660SOL    HW265221   2.714   3.501   6.056  3.7555 -0.3063 -3.4802
52661SOL     OW65222   6.381   2.137   7.541 -0.0958 -0.6441 -0.0130
52661SOL    HW165223   6.415   2.222   7.513 -0.1742 -1.3301 -2.4965
52661SOL    HW265224   6.286   2.143   7.527 -0.3393 -0.5883  1.5015
52662SOL     OW65225   3.179   5.604   9.965 -0.4873  0.6591  0.1199
52662SOL    HW165226   3.227   5.639  10.040 -0.4274  1.2602 -0.1884
52662SOL    HW265227   3.102   5.661   9.957 -0.6499  0.4151 -0.0915
52663SOL     OW65228  11.263   9.796   1.664  0.0409  0.4753  0.0703
52663SOL    HW165229  11.191   9.762   1.716  0.1912  1.0159  0.6447
52663SOL    HW265230  11.225   9.813   1.577  0.2165 -2.1884 -0.5996
52664SOL     OW65231   2.680   7.981   4.743 -0.1568  0.2328 -0.2490
52664SOL    HW165232   2.753   7.925   4.716  0.0374 -0.8256  2.1522
52664SOL    HW265233   2.602   7.938   4.708  0.1158 -0.7342  0.2878
52665SOL     OW65234  12.354   9.694   6.021 -0.2234  0.4208 -0.2365
52665SOL    HW165235  12.447   9.670   6.027 -0.4333  0.0367  2.8795
52665SOL    HW265236  12.351   9.784   6.052 -1.0143  0.0154  0.9096
52666SOL     OW65237  11.311   4.330   4.993 -0.0225  0.3148 -0.1292
52666SOL    HW165238  11.345   4.343   5.081 -1.5838 -1.0305  0.7197
52666SOL    HW265239  11.318   4.416   4.952  1.8013  0.7121  0.8782
52667SOL     OW65240   9.883   7.468  10.623 -0.3931  0.0325 -0.1634
52667SOL    HW165241   9.909   7.543  10.570 -0.3822  0.7815  0.8859
52667SOL    HW265242   9.866   7.399  10.559 -1.3026  1.1818 -1.2213
52668SOL     OW65243   0.540   2.398  12.166  0.0264  0.4923 -0.3396
52668SOL    HW165244   0.456   2.362  12.195  0.6423 -1.1203 -0.4460
52668SOL    HW265245   0.581   2.431  12.245 -0.1876  0.1476 -0.0814
52669SOL     OW65246   0.598  10.375   1.857  0.1969 -0.2465 -0.5635
52669SOL    HW165247   0.623  10.292   1.816 -0.9252 -0.7085 -0.3516
52669SOL    HW265248   0.521  10.353   1.910  0.2769  0.8018  0.0079
52670SOL     OW65249  10.689   9.688   8.750 -0.4826 -0.1811  0.1081
52670SOL    HW165250  10.774   9.730   8.762 -0.5744  0.2712 -0.7182
52670SOL    HW265251  10.688   9.617   8.813  1.1523 -1.1776 -0.9010
52671SOL     OW65252   8.007   4.587   3.576 -0.0492  0.0171 -0.2110
52671SOL    HW165253   7.987   4.560   3.666 -0.4696  0.1230 -0.2721
52671SOL    HW265254   8.069   4.659   3.586  0.6646 -0.6103 -0.0346
52672SOL     OW65255   6.971  10.218   9.916  0.0301  0.4531  0.4642
52672SOL    HW165256   6.983  10.140   9.863 -0.9094 -0.7328  1.9124
52672SOL    HW265257   6.933  10.282   9.856 -2.4003 -1.3035 -0.0142
52673SOL     OW65258   5.376  12.063   5.582 -0.4498 -0.4495 -0.4116
52673SOL    HW165259   5.398  11.974   5.552  0.0599  0.2641 -2.3283
52673SOL    HW265260   5.460  12.105   5.596 -0.6864 -0.1432  0.1061
52674SOL     OW65261  11.355   2.922   8.874 -0.1426  0.4187  0.0560
52674SOL    HW165262  11.415   2.994   8.855 -0.3066  0.4674 -0.2929
52674SOL    HW265263  11.380   2.892   8.962 -0.6784  1.5276  0.6159
52675SOL     OW65264   7.920   1.043  11.512  0.1154 -0.2668 -0.1812
52675SOL    HW165265   7.835   0.999  11.516  0.7700 -1.7391 -1.3168
52675SOL    HW265266   7.925   1.094  11.593 -1.9687  0.1211 -0.2416
52676SOL     OW65267   5.286   3.395   2.520  0.1465  0.5858 -1.1843
52676SOL    HW165268   5.230   3.370   2.594  1.8342 -1.2182 -0.4215
52676SOL    HW265269   5.225   3.417   2.450 -1.5057  1.0363  0.3146
52677SOL     OW65270  11.916   5.177  10.773  0.2251  0.1679  0.5613
52677SOL    HW165271  11.971   5.161  10.850  0.4907  1.5617  0.6728
52677SOL    HW265272  11.831   5.138  10.796  0.6454 -0.4843  1.0634
52678SOL     OW65273   8.611  12.349   5.867 -0.5238  0.0640 -0.3334
52678SOL    HW165274   8.643  12.425   5.818 -1.0393  1.2991  1.1532
52678SOL    HW265275   8.586  12.286   5.800 -2.5819  2.2163 -1.7359
52679SOL     OW65276   3.553   0.755   9.200 -0.2616  0.2296  0.9322
52679SOL    HW165277   3.471   0.769   9.153  0.6485  1.9926 -0.2489
52679SOL    HW265278   3.597   0.685   9.151 -0.0028  0.9921  0.0438
52680SOL     OW65279   2.921  10.742   6.698  0.1526  0.0320 -0.2022
52680SOL    HW165280   2.943  10.664   6.748  0.4438  0.1299 -0.1750
52680SOL    HW265281   2.875  10.798   6.760  0.0121 -0.0836 -0.2014
52681SOL     OW65282   4.297   1.287   8.502 -0.8287 -0.5411 -0.0613
52681SOL    HW165283   4.386   1.320   8.488 -1.2066  0.7595  0.4227
52681SOL    HW265284   4.262   1.271   8.415 -0.4786 -0.0650 -0.2888
52682SOL     OW65285   4.155   3.739   4.066 -0.2003 -0.1108 -0.1334
52682SOL    HW165286   4.066   3.705   4.050 -1.6863  3.3583 -0.1344
52682SOL    HW265287   4.187   3.764   3.979  0.4545 -0.6068 -0.0367
52683SOL     OW65288  11.560   5.771   8.415  0.5678  0.4016 -0.1238
52683SOL    HW165289  11.605   5.841   8.462 -0.6540  0.5472  0.8916
52683SOL    HW265290  11.480   5.811   8.383  0.2521 -0.3138 -0.2590
52684SOL     OW65291   0.479   2.155   9.853  0.1902 -0.4206 -0.4624
52684SOL    HW165292   0.389   2.184   9.867  0.4710  0.0454  0.4359
52684SOL    HW265293   0.471   2.068   9.815 -0.6283 -0.5752  0.0555
52685SOL     OW65294  11.557   4.393   8.995 -0.9513  0.7733 -0.0354
52685SOL    HW165295  11.525   4.480   9.017 -1.4338  0.4810  0.4696
52685SOL    HW265296  11.642   4.407   8.955 -1.0745  1.4805 -0.0545
52686SOL     OW65297   5.962   7.767   4.058 -0.0742  0.7026  0.5822
52686SOL    HW165298   5.902   7.715   4.003  0.7645  0.4911 -0.1476
52686SOL    HW265299   5.906   7.801   4.128 -0.8792 -0.2182  0.4151
52687SOL     OW65300   9.847   4.369   6.606  0.0335  0.0439 -0.4852
52687SOL    HW165301   9.772   4.338   6.658 -0.4097  1.0038 -0.5210
52687SOL    HW265302   9.907   4.295   6.604 -0.9930 -0.8128 -0.6002
52688SOL     OW65303   3.146   3.465  11.608  0.1833  0.4883 -0.0725
52688SOL    HW165304   3.121   3.531  11.672  0.3507  0.6970 -0.2190
52688SOL    HW265305   3.111   3.383  11.642  1.1056  0.4304  0.7923
52689SOL     OW65306   9.515   1.388   7.684  0.0732 -0.0882  0.5599
52689SOL    HW165307   9.599   1.429   7.705 -1.1845  1.6337  2.6938
52689SOL    HW265308   9.500   1.327   7.756 -2.1693  2.4525  2.4795
52690SOL     OW65309   5.036  10.919   4.729  0.2379 -0.4387 -0.7421
52690SOL    HW165310   5.051  10.834   4.770 -0.3486  0.1179  0.6941
52690SOL    HW265311   4.954  10.950   4.767  1.0418  1.2963 -0.3129
52691SOL     OW65312  12.632   4.329   6.399 -0.1252  0.4476  0.2138
52691SOL    HW165313  12.661   4.290   6.481 -1.4902 -1.5059 -0.1527
52691SOL    HW265314  12.624   4.422   6.419  2.4713  0.5082  1.3845
52692SOL     OW65315  10.501   8.882   2.451 -0.8264  0.3029 -0.3904
52692SOL    HW165316  10.563   8.955   2.462 -0.3755 -0.1352  0.0218
52692SOL    HW265317  10.423   8.923   2.414  0.0152  0.7382 -1.7651
52693SOL     OW65318   2.373   0.806  11.058 -0.4345  0.1568  0.2794
52693SOL    HW165319   2.345   0.717  11.080 -0.2659  0.4323  1.6811
52693SOL    HW265320   2.425   0.834  11.133 -0.3676  1.3944 -0.2120
52694SOL     OW65321   5.526  11.354   1.834 -0.1055 -0.4826 -0.2544
52694SOL    HW165322   5.577  11.377   1.912  0.8700  0.6875 -1.1918
52694SOL    HW265323   5.499  11.438   1.797 -0.4183 -1.0061 -1.2540
52695SOL     OW65324  11.845   9.511   3.500  0.2476 -0.0090  0.4012
52695SOL    HW165325  11.913   9.452   3.532  0.6180 -0.3735 -0.9794
52695SOL    HW265326  11.833   9.574   3.570  2.0020  0.0604  0.6884
52696SOL     OW65327   0.953   4.956   0.872  0.2226  0.4922  0.0329
52696SOL    HW165328   0.914   5.032   0.828 -0.4412  0.1692  0.0432
52696SOL    HW265329   0.995   4.906   0.802 -0.9215 -0.0751 -0.2771
52697SOL     OW65330  11.315   3.799   5.453  0.1375  0.2423 -0.4401
52697SOL    HW165331  11.377   3.871   5.446 -0.1353  0.5712  0.3998
52697SOL    HW265332  11.356   3.727   5.406  0.6801  0.7647 -0.7834
52698SOL     OW65333  12.504   0.410   2.512 -0.4283 -0.5554  0.3137
52698SOL    HW165334  12.540   0.499   2.508 -1.3064 -0.1956  0.0980
52698SOL    HW265335  12.581   0.353   2.514  0.1569  0.1614 -0.7096
52699SOL     OW65336   0.993   1.304   6.357 -0.0661  0.2756 -0.1669
52699SOL    HW165337   0.934   1.231   6.376  1.2300 -1.0998 -1.1972
52699SOL    HW265338   1.058   1.267   6.298  0.4020  2.3876 -1.0643
52700SOL     OW65339   0.676   2.939   8.579  0.3651  0.2446  0.4391
52700SOL    HW165340   0.639   3.012   8.630 -1.9823 -1.1347  0.8430
52700SOL    HW265341   0.712   2.880   8.645  1.8626  0.7648  0.1342
52701SOL     OW65342   2.168   6.279   0.981  0.2530  0.4849 -0.5494
52701SOL    HW165343   2.211   6.340   0.920 -0.1648  0.7177 -0.6095
52701SOL    HW265344   2.089   6.325   1.009  0.9816  0.8440  1.0082
52702SOL     OW65345   6.976  11.658   9.472  0.6418  0.0436 -0.8425
52702SOL    HW165346   7.021  11.713   9.536 -0.3022  0.6084 -0.6357
52702SOL    HW265347   6.996  11.697   9.388 -1.7893  2.1410 -0.5776
52703SOL     OW65348  12.476   7.677  10.571 -0.8535 -0.1596  0.2877
52703SOL    HW165349  12.520   7.598  10.540 -0.9288 -0.8178  1.7631
52703SOL    HW265350  12.503   7.745  10.510  0.1303 -1.0923 -0.3503
52704SOL     OW65351   2.259  12.647   7.884  0.5373  0.0465 -0.3018
52704SOL    HW165352   2.339  12.693   7.858  0.3265  0.6286  0.0411
52704SOL    HW265353   2.189  12.709   7.865  0.1346 -0.5876 -0.8972
52705SOL     OW65354  11.119   3.887   3.919 -0.0803  0.5470 -0.0397
52705SOL    HW165355  11.063   3.891   3.997 -0.7634 -0.6905 -0.4487
52705SOL    HW265356  11.067   3.929   3.851 -0.2195  0.0373 -0.2488
52706SOL     OW65357   1.613   1.585   8.576  0.2488 -0.0251  0.1476
52706SOL    HW165358   1.696   1.554   8.611  1.4392  1.6488 -1.0259
52706SOL    HW265359   1.622   1.680   8.574 -2.2404  0.3266  1.2431
52707SOL     OW65360   3.105  11.748   8.431 -0.2041 -0.2275  0.0698
52707SOL    HW165361   3.107  11.655   8.409  0.9817  0.0021 -0.9750
52707SOL    HW265362   3.036  11.757   8.497 -1.6181 -1.5514 -1.1547
52708SOL     OW65363   3.463   1.643   7.308  0.7279  0.9842  0.2917
52708SOL    HW165364   3.390   1.667   7.251  2.3098  1.1132 -1.8052
52708SOL    HW265365   3.496   1.727   7.341 -1.6392  0.8368  3.5322
52709SOL     OW65366   2.736  10.827   1.800  0.2298 -0.1298  0.1579
52709SOL    HW165367   2.701  10.805   1.886 -1.6994 -0.9053 -0.7597
52709SOL    HW265368   2.800  10.758   1.782 -1.9773 -2.1420 -0.4760
52710SOL     OW65369   7.332   7.213   4.671 -0.5337 -0.0872  0.1157
52710SOL    HW165370   7.351   7.176   4.585 -1.5913  1.7250 -0.9682
52710SOL    HW265371   7.394   7.169   4.730 -0.6774 -2.3474 -1.2919
52711SOL     OW65372   2.127   3.791   8.704  0.2771  0.4118  0.1312
52711SOL    HW165373   2.114   3.702   8.672  2.8102  0.1018 -0.2208
52711SOL    HW265374   2.203   3.823   8.656  0.5773  2.0854  1.6151
52712SOL     OW65375   3.283   7.747   7.911  0.0002  0.5899 -0.1033
52712SOL    HW165376   3.297   7.684   7.981  0.1281 -0.3859 -0.9942
52712SOL    HW265377   3.192   7.734   7.884  0.1302  0.5466 -0.5219
52713SOL     OW65378   8.835  10.827   7.736 -0.4009 -0.1427  0.3303
52713SOL    HW165379   8.772  10.756   7.751 -0.1647 -0.2484  0.8317
52713SOL    HW265380   8.912  10.783   7.702  0.1246 -0.2657  1.6329
52714SOL     OW65381  11.480   1.384   2.917 -0.1124  0.5251 -0.4322
52714SOL    HW165382  11.508   1.318   2.981  1.2760  0.8943 -0.6058
52714SOL    HW265383  11.393   1.411   2.946  0.2270  0.2290  0.9378
52715SOL     OW65384   0.384   1.680  10.032  0.5074  0.4893  0.1394
52715SOL    HW165385   0.469   1.709  10.066  0.5519  0.0846  0.3774
52715SOL    HW265386   0.406   1.620   9.961  0.4431 -0.7297  1.1223
52716SOL     OW65387   0.210   8.593  11.382 -0.4554  0.2616  0.5663
52716SOL    HW165388   0.262   8.569  11.304 -1.1588  0.2515  0.0929
52716SOL    HW265389   0.274   8.631  11.442  0.6563 -2.3563  1.1864
52717SOL     OW65390   0.600   0.974   0.882 -0.1689 -0.2282  0.3004
52717SOL    HW165391   0.579   1.064   0.857 -1.8122 -0.7522 -0.3559
52717SOL    HW265392   0.557   0.920   0.816  2.8793 -1.4995 -0.7827
52718SOL     OW65393  12.276   3.120  10.549  0.6158  0.6016  0.2355
52718SOL    HW165394  12.276   3.207  10.510  0.3253  0.4392 -0.1355
52718SOL    HW265395  12.245   3.062  10.478 -2.9648  0.6741  1.5180
52719SOL     OW65396   0.407   8.567   2.681  0.1337  0.1969 -0.2382
52719SOL    HW165397   0.387   8.518   2.761  2.6978  0.5942  0.7453
52719SOL    HW265398   0.461   8.508   2.629  0.4662  0.7968 -0.5806
52720SOL     OW65399   9.795   9.930   1.185 -0.0521 -0.0776  0.5404
52720SOL    HW165400   9.702   9.955   1.183 -0.4440 -1.4873  0.6545
52720SOL    HW265401   9.824   9.943   1.094 -0.5584 -0.3646  0.3318
52721SOL     OW65402   4.079   3.440   4.598 -0.0940  0.0431 -0.7150
52721SOL    HW165403   4.094   3.370   4.535 -0.4446  0.3733 -1.1724
52721SOL    HW265404   4.167   3.466   4.625  0.0388 -0.5348 -0.5819
52722SOL     OW65405   1.865   5.695  11.969  0.4366 -1.0956  0.0606
52722SOL    HW165406   1.840   5.696  12.061  0.6749 -2.8223  0.1740
52722SOL    HW265407   1.955   5.661  11.969  0.1951 -1.7564 -0.8528
52723SOL     OW65408  11.638   0.317   3.179 -0.3148 -0.1355  0.0578
52723SOL    HW165409  11.619   0.410   3.163  0.3271 -0.3018 -1.9797
52723SOL    HW265410  11.588   0.271   3.112  0.1168 -1.2035  0.4500
52724SOL     OW65411   9.477   0.416   4.965  0.1526  0.0682  0.4252
52724SOL    HW165412   9.518   0.497   4.934  0.5481  0.3941  1.7626
52724SOL    HW265413   9.421   0.443   5.037 -1.4431 -0.5673 -0.5284
52725SOL     OW65414  11.997  10.900  11.597  0.0868 -0.3894 -0.2529
52725SOL    HW165415  11.987  10.995  11.605  0.0366 -0.4840  1.0410
52725SOL    HW265416  12.091  10.886  11.589  0.0997 -0.2445 -0.3634
52726SOL     OW65417   1.193   1.705  10.660 -0.0684  0.2345 -0.1045
52726SOL    HW165418   1.139   1.714  10.582  0.6001  0.5689 -0.5412
52726SOL    HW265419   1.145   1.645  10.716 -0.7047  0.2299 -0.6423
52727SOL     OW65420   5.643   9.862   3.450  0.2380 -0.5261 -0.5151
52727SOL    HW165421   5.599   9.946   3.433  0.6176 -0.1863  0.1776
52727SOL    HW265422   5.674   9.834   3.364 -1.4426 -0.8427 -1.0568
52728SOL     OW65423   1.502   1.440   5.555 -0.2951 -0.4234 -0.0119
52728SOL    HW165424   1.502   1.349   5.527  1.8362 -0.0214 -1.5843
52728SOL    HW265425   1.441   1.443   5.629 -1.2252 -2.8757 -0.5996
52729SOL     OW65426   8.802   8.322   0.856  0.5202 -0.3891 -0.5274
52729SOL    HW165427   8.762   8.261   0.794  2.5098 -0.6904 -1.6181
52729SOL    HW265428   8.793   8.408   0.814 -0.3855 -0.2197 -0.0037
52730SOL     OW65429   8.124   5.847   9.957 -0.6741  0.1849  0.2237
52730SOL    HW165430   8.162   5.887  10.036  1.0297 -0.7843 -0.0466
52730SOL    HW265431   8.048   5.798   9.990  0.2572 -0.5590  1.3629
52731SOL     OW65432   8.228   1.994   0.981  0.4556 -0.0274  0.2842
52731SOL    HW165433   8.230   1.943   1.062  1.1794 -0.1774  0.1850
52731SOL    HW265434   8.321   2.002   0.957  0.1820 -1.2076 -1.2924
52732SOL     OW65435  10.934   3.068   6.532 -0.0492 -0.3987  0.1016
52732SOL    HW165436  10.865   3.126   6.562 -1.1422 -0.5596 -1.9535
52732SOL    HW265437  10.920   2.986   6.580 -0.5858 -0.0698  0.5066
52733SOL     OW65438   8.302   3.692   2.105  0.1591 -1.2006 -0.6339
52733SOL    HW165439   8.279   3.779   2.138 -0.4883 -1.4439 -0.4266
52733SOL    HW265440   8.235   3.672   2.040  0.1814 -1.6360 -0.5276
52734SOL     OW65441  12.228   8.586   0.806  0.3555  0.3987  0.2574
52734SOL    HW165442  12.230   8.622   0.717  1.6655 -1.3334 -0.4580
52734SOL    HW265443  12.279   8.505   0.800  0.0816  0.0200  2.4956
52735SOL     OW65444   4.849   5.271   8.129  0.2776  0.5189 -0.3146
52735SOL    HW165445   4.774   5.287   8.187  1.1360 -0.5868  1.1848
52735SOL    HW265446   4.831   5.185   8.092  0.0764  0.9239 -1.1725
52736SOL     OW65447   6.470   2.300   4.715  0.3538 -0.6049  0.1691
52736SOL    HW165448   6.540   2.353   4.754 -1.1171  0.7282  1.1049
52736SOL    HW265449   6.434   2.356   4.646 -2.1868  0.3581  2.1254
52737SOL     OW65450   0.665   5.788  10.009 -0.2739  0.0201  0.2869
52737SOL    HW165451   0.605   5.714  10.002 -1.0783  0.7173 -0.3312
52737SOL    HW265452   0.727   5.762  10.077 -0.1617 -1.4745 -0.3599
52738SOL     OW65453   4.380   4.818   2.514 -0.4876 -0.2585  0.7961
52738SOL    HW165454   4.464   4.788   2.477 -0.5211  0.3979  0.1554
52738SOL    HW265455   4.375   4.776   2.600  0.6600 -0.0476  0.9826
52739SOL     OW65456  11.338   8.291  10.086  0.5883  0.0392 -0.5403
52739SOL    HW165457  11.403   8.357  10.062  2.0535 -0.6381  1.3448
52739SOL    HW265458  11.357   8.218  10.027  1.3737 -0.0483 -0.1941
52740SOL     OW65459   6.733   9.864   2.232  0.0628 -0.3885  0.2458
52740SOL    HW165460   6.676   9.931   2.269  1.4163  0.4796  0.8596
52740SOL    HW265461   6.801   9.913   2.185  1.0215 -1.3210  0.6024
52741SOL     OW65462   5.418   1.020  10.597  0.0528 -0.3116  0.1639
52741SOL    HW165463   5.375   0.940  10.566 -0.2412 -1.0528  2.3294
52741SOL    HW265464   5.506   0.992  10.623  0.4175  0.3581 -0.3125
52742SOL     OW65465   4.473   8.765   0.904 -0.5170  0.5187 -0.0634
52742SOL    HW165466   4.522   8.761   0.821 -0.1178 -0.8500  0.2031
52742SOL    HW265467   4.535   8.804   0.966  1.3759 -3.3989  0.8972
52743SOL     OW65468   7.835   0.774  10.988  0.1383  0.3098  0.1842
52743SOL    HW165469   7.773   0.845  10.997 -0.1323  0.1799 -0.5693
52743SOL    HW265470   7.855   0.770  10.894  0.8640 -0.0004  0.3376
52744SOL     OW65471   0.383  12.595  12.693 -0.3210 -0.3233  0.2229
52744SOL    HW165472   0.441  12.611  12.619 -0.1561  0.6058  0.5438
52744SOL    HW265473   0.322  12.528  12.662 -0.1501 -0.0647 -0.6887
52745SOL     OW65474   4.778   9.344   2.059  0.0897 -0.0081 -0.3421
52745SOL    HW165475   4.852   9.399   2.032 -0.8161  1.5597  0.2531
52745SOL    HW265476   4.769   9.360   2.153 -1.0913 -0.0501 -0.4297
52746SOL     OW65477   2.993   5.178  11.481  0.0963  0.0961  0.0287
52746SOL    HW165478   3.089   5.178  11.488  0.0573 -0.2699  0.6880
52746SOL    HW265479   2.971   5.091  11.450  0.0067  0.3748 -0.7001
52747SOL     OW65480  11.156  11.206   8.680 -0.2079 -0.1919 -0.1862
52747SOL    HW165481  11.102  11.130   8.700 -0.6912 -0.1230 -1.1847
52747SOL    HW265482  11.107  11.253   8.613  0.2466  0.8246  0.1759
52748SOL     OW65483   2.909   8.522   0.315  0.1593  0.4868 -0.0844
52748SOL    HW165484   2.970   8.475   0.372  1.8607  0.9337 -1.4532
52748SOL    HW265485   2.923   8.483   0.228 -4.1163 -1.9437  0.0290
52749SOL     OW65486  10.176  10.903   6.811  0.0734  0.7256  0.5785
52749SOL    HW165487  10.129  10.820   6.815  0.0977  0.6501 -0.3530
52749SOL    HW265488  10.116  10.962   6.765 -0.1122  1.3547  1.5985
52750SOL     OW65489   5.843   6.305   4.735 -0.1062  0.1306 -0.2386
52750SOL    HW165490   5.858   6.284   4.642  0.5262  0.1261 -0.1423
52750SOL    HW265491   5.795   6.387   4.734  0.4811  0.4786 -0.5663
52751SOL     OW65492   6.831   4.092  11.923 -0.6506  0.2538 -0.1611
52751SOL    HW165493   6.868   4.008  11.952 -0.0916  0.0361 -1.4221
52751SOL    HW265494   6.866   4.156  11.985 -0.3161 -0.3218  0.2570
52752SOL     OW65495   4.271   8.831   7.032 -0.4502 -0.3569 -0.1121
52752SOL    HW165496   4.180   8.803   7.033 -0.5101 -0.1902 -0.6735
52752SOL    HW265497   4.321   8.749   7.035 -0.5642 -0.4189  2.9185
52753SOL     OW65498   0.150  12.198   2.754 -0.2211  0.0132 -0.1326
52753SOL    HW165499   0.239  12.169   2.771 -0.6017 -1.0507  0.1310
52753SOL    HW265500   0.144  12.201   2.658  0.0179 -0.1588 -0.1527
52754SOL     OW65501   1.354   7.969   7.277 -0.3399  0.1686  0.6973
52754SOL    HW165502   1.419   7.956   7.208 -0.6405  0.5884  0.3292
52754SOL    HW265503   1.384   7.914   7.349  0.8931  1.0107  0.8523
52755SOL     OW65504   7.170   7.426   4.723 -0.5047 -0.2207 -0.2708
52755SOL    HW165505   7.244   7.368   4.740  0.5160  1.2731  0.6112
52755SOL    HW265506   7.190   7.465   4.637  1.0020  1.9208  0.9592
52756SOL     OW65507   3.736   5.108   2.281  0.3103 -0.6992 -0.3126
52756SOL    HW165508   3.657   5.160   2.297 -0.4046 -1.7620 -0.3542
52756SOL    HW265509   3.760   5.128   2.191  0.5727  0.2495 -0.0459
52757SOL     OW65510  10.478  10.248   9.270 -0.3110  0.3668 -0.5666
52757SOL    HW165511  10.490  10.244   9.175 -1.3017 -1.0343 -0.6645
52757SOL    HW265512  10.409  10.184   9.288  1.3144 -0.9971  1.3159
52758SOL     OW65513   4.835   0.313   8.826  0.4088 -0.1893  0.2228
52758SOL    HW165514   4.930   0.326   8.823  0.3853  0.1753  0.7796
52758SOL    HW265515   4.823   0.230   8.871  0.4889 -0.8003 -0.8637
52759SOL     OW65516   8.843   3.261   5.265  0.7126  0.1408  0.6423
52759SOL    HW165517   8.894   3.280   5.186 -0.1856  0.9162  0.2385
52759SOL    HW265518   8.816   3.346   5.298 -2.0224 -0.2727 -0.2965
52760SOL     OW65519   0.137   8.246   1.383 -0.4933 -0.0153 -0.6710
52760SOL    HW165520   0.049   8.210   1.398 -0.9739  1.0525 -0.8485
52760SOL    HW265521   0.165   8.207   1.300  0.0428 -1.9079  0.3370
52761SOL     OW65522   5.851  10.856  10.614 -0.4996  0.6912 -0.6244
52761SOL    HW165523   5.762  10.855  10.579 -0.7187 -0.1015 -0.0598
52761SOL    HW265524   5.846  10.913  10.690 -0.8553 -0.4306  0.2189
52762SOL     OW65525   8.054   6.350  10.167  0.1594  0.7139  0.6480
52762SOL    HW165526   8.053   6.439  10.203  0.0388  0.5401  1.0851
52762SOL    HW265527   7.985   6.305  10.215  1.5733 -0.1910  1.9340
52763SOL     OW65528   7.204  11.597   5.033  0.0762  0.6975  0.4352
52763SOL    HW165529   7.286  11.548   5.030 -0.2120  0.1929  0.6829
52763SOL    HW265530   7.227  11.684   5.000  0.9701  0.9191  1.5550
52764SOL     OW65531   8.218   7.499   4.701 -0.0368 -0.2300 -0.0514
52764SOL    HW165532   8.265   7.417   4.711  1.2609  0.5120  0.2137
52764SOL    HW265533   8.159   7.503   4.776  0.9977 -0.2369  0.7934
52765SOL     OW65534   9.980   0.800   5.006 -0.2147  0.3419 -0.5515
52765SOL    HW165535   9.931   0.879   5.027 -1.4068 -0.7861  1.2244
52765SOL    HW265536  10.065   0.812   5.048 -0.7817  0.2510  0.6491
52766SOL     OW65537   1.121   5.785   9.275  0.2036 -0.5579 -0.5627
52766SOL    HW165538   1.127   5.720   9.345 -1.2938 -1.1062 -0.9085
52766SOL    HW265539   1.207   5.784   9.233  1.2027 -0.0891  1.3525
52767SOL     OW65540  11.747   7.577   7.117  0.6658 -0.3773  0.7905
52767SOL    HW165541  11.736   7.501   7.060 -0.3426  2.3073 -2.9564
52767SOL    HW265542  11.837   7.605   7.103 -0.0144  1.1638 -0.8038
52768SOL     OW65543   8.791   1.158   8.375  0.3925  0.3916  0.0572
52768SOL    HW165544   8.840   1.237   8.352  0.4555  1.4828  3.3754
52768SOL    HW265545   8.847   1.086   8.348  0.9633  1.4827 -1.8123
52769SOL     OW65546   7.458  12.400   7.609 -0.2263  0.9596 -1.0066
52769SOL    HW165547   7.502  12.321   7.578  0.3479 -0.1233  2.1721
52769SOL    HW265548   7.365  12.383   7.596 -0.0530  0.2272 -1.3278
52770SOL     OW65549   5.364   7.128  11.609 -0.3786  0.4674 -0.5568
52770SOL    HW165550   5.326   7.076  11.680 -2.1290  0.3980 -1.4750
52770SOL    HW265551   5.408   7.201  11.653  0.1812 -0.5730  0.6486
52771SOL     OW65552   5.889  12.434   5.616 -0.1714  0.1680  0.5923
52771SOL    HW165553   5.947  12.505   5.641 -0.0529  1.5775 -3.0587
52771SOL    HW265554   5.947  12.359   5.601  0.6380  1.1524 -1.5930
52772SOL     OW65555   8.175  10.180   8.585 -0.2550  0.1997 -0.3307
52772SOL    HW165556   8.112  10.207   8.653  0.8479  1.4022  0.2647
52772SOL    HW265557   8.176  10.254   8.524 -1.0124 -0.7483 -1.5333
52773SOL     OW65558  11.593   7.590   8.125  0.0514 -0.6936  0.4880
52773SOL    HW165559  11.664   7.617   8.183  0.2597 -0.1255 -0.0203
52773SOL    HW265560  11.513   7.606   8.174  0.2182 -0.0219  0.5381
52774SOL     OW65561   0.141   3.198   5.614 -0.3715 -0.7465 -0.4062
52774SOL    HW165562   0.163   3.191   5.707 -0.1871 -0.2442 -0.4072
52774SOL    HW265563   0.124   3.108   5.586  2.4782 -1.2986 -0.6048
52775SOL     OW65564   9.559   0.489  12.143 -0.0750 -0.3506  0.0097
52775SOL    HW165565   9.606   0.571  12.128 -0.2559 -0.1226  0.6611
52775SOL    HW265566   9.499   0.482  12.069 -0.1603  0.1793  0.0246
52776SOL     OW65567  11.779   8.905   1.897 -0.2274 -0.5394 -0.3979
52776SOL    HW165568  11.869   8.935   1.912 -0.7386  0.4463  0.9616
52776SOL    HW265569  11.777   8.817   1.933 -0.1292 -0.0597  0.8242
52777SOL     OW65570  11.888   1.121   0.012  0.1779 -0.3284  0.3533
52777SOL    HW165571  11.891   1.049   0.075 -0.0232 -0.7131 -0.0745
52777SOL    HW265572  11.938   1.090  -0.063  2.2044  0.9231  1.1126
52778SOL     OW65573  12.175   6.803   1.407  0.2246  1.2227 -0.3715
52778SOL    HW165574  12.174   6.767   1.318  1.4489 -1.1440  0.4878
52778SOL    HW265575  12.089   6.781   1.443  0.4095  0.4402 -0.3744
52779SOL     OW65576   0.402   0.230  11.300 -0.4873 -0.0942 -0.3673
52779SOL    HW165577   0.468   0.250  11.233 -0.5062 -1.0782 -0.6875
52779SOL    HW265578   0.324   0.277  11.271 -0.0563  0.7705 -0.1876
52780SOL     OW65579   1.551   1.573   9.857  0.4554  0.2320 -0.2854
52780SOL    HW165580   1.594   1.552   9.940  0.4721  0.8500 -0.1380
52780SOL    HW265581   1.603   1.526   9.791  0.2996 -0.4527  0.0717
52781SOL     OW65582   7.985   5.138   5.442  0.1367  0.4999 -0.4677
52781SOL    HW165583   8.007   5.231   5.446 -3.7784  1.5347  2.7001
52781SOL    HW265584   8.007   5.104   5.528  0.9480 -1.4479 -1.3813
52782SOL     OW65585   8.733   8.155   5.981  0.1628 -0.2393 -0.7309
52782SOL    HW165586   8.721   8.084   5.918  0.8322 -1.8524  0.8687
52782SOL    HW265587   8.647   8.168   6.021  0.3778 -1.2995  0.1066
52783SOL     OW65588  12.287   0.719   7.751 -0.4433  0.4026  0.1965
52783SOL    HW165589  12.318   0.784   7.814  2.2712  0.9573 -1.5275
52783SOL    HW265590  12.281   0.637   7.801 -1.0354  1.3540  1.7409
52784SOL     OW65591  11.433   3.752   6.773  0.3947  0.6127  0.2597
52784SOL    HW165592  11.390   3.673   6.739 -0.2902  0.7965  0.6673
52784SOL    HW265593  11.371   3.822   6.753 -0.2679  0.6693  2.2754
52785SOL     OW65594  11.002  10.081   3.553  0.1571 -0.2747  0.1940
52785SOL    HW165595  10.936  10.146   3.529 -0.1285 -0.9561 -0.9720
52785SOL    HW265596  10.956   9.997   3.548  0.3170 -0.5476  2.4233
52786SOL     OW65597   0.148   7.937   9.144 -0.4436 -0.2023 -0.4939
52786SOL    HW165598   0.121   8.025   9.119 -0.1626 -0.3395 -1.3256
52786SOL    HW265599   0.082   7.909   9.207 -0.0477  0.9232  0.4560
52787SOL     OW65600  10.947  10.055   5.408 -0.5041 -0.5733  0.4483
52787SOL    HW165601  10.980   9.992   5.472  0.1559 -0.1264  0.5572
52787SOL    HW265602  10.943  10.138   5.455  0.1701 -0.2025 -0.1340
52788SOL     OW65603  12.275   3.112   2.521 -0.0777  0.5345 -0.1625
52788SOL    HW165604  12.366   3.136   2.541 -0.1373  1.0635 -0.5032
52788SOL    HW265605  12.223   3.177   2.568 -0.2847  0.2070  0.0643
52789SOL     OW65606  12.681   4.986   1.863  0.0107  0.2610 -0.0513
52789SOL    HW165607  12.719   4.988   1.775 -1.6688 -0.3770 -0.8317
52789SOL    HW265608  12.587   4.990   1.848 -0.3168 -0.2218  1.7096
52790SOL     OW65609  12.453   8.280   4.839  0.2369 -0.5058  0.4407
52790SOL    HW165610  12.376   8.312   4.886  0.4963  1.9829 -0.6595
52790SOL    HW265611  12.419   8.245   4.757  0.2486  1.7951 -0.6444
52791SOL     OW65612  12.200   2.340   4.715  0.5879  0.2924 -0.5784
52791SOL    HW165613  12.273   2.279   4.706  1.6642  1.4245  0.1189
52791SOL    HW265614  12.208   2.374   4.804 -1.5584 -0.4665 -0.0375
52792SOL     OW65615   9.225   7.346   8.145  0.0687  0.4256  0.3079
52792SOL    HW165616   9.289   7.348   8.216  0.2809 -0.7320  0.1579
52792SOL    HW265617   9.199   7.255   8.138  0.6137  0.3695 -1.6083
52793SOL     OW65618   1.547  11.675   0.994 -0.2134 -0.1423 -0.1159
52793SOL    HW165619   1.628  11.634   1.023  0.2399  1.0577  0.3643
52793SOL    HW265620   1.519  11.622   0.920 -0.1291 -1.8356  1.0182
52794SOL     OW65621  10.766   2.607   3.792 -0.3181  0.0804 -0.2352
52794SOL    HW165622  10.853   2.619   3.830 -0.3084 -1.3997  0.2389
52794SOL    HW265623  10.772   2.526   3.742 -1.9815 -1.2552  1.5848
52795SOL     OW65624   9.009   8.492   9.836  0.1549  0.7578 -0.2204
52795SOL    HW165625   9.012   8.565   9.898 -0.6472 -0.4516  1.3009
52795SOL    HW265626   9.099   8.459   9.834 -0.3462 -1.2037  2.8959
52796SOL     OW65627   5.335   1.906   9.492  0.3884 -0.1489 -0.2675
52796SOL    HW165628   5.342   1.850   9.570  1.1161  1.5029  0.9051
52796SOL    HW265629   5.420   1.949   9.486  0.4351 -0.4278 -2.1648
52797SOL     OW65630   5.553   3.447  12.335  0.0876  0.5361 -0.2363
52797SOL    HW165631   5.648   3.450  12.343 -0.0127  0.5403  1.1129
52797SOL    HW265632   5.531   3.519  12.276  0.7897  1.6215  0.7906
52798SOL     OW65633   6.431  11.687  12.622 -0.3329 -0.4818  0.7651
52798SOL    HW165634   6.499  11.690  12.553  0.2755  0.9020  1.3908
52798SOL    HW265635   6.357  11.643  12.580  0.5195 -0.9473 -0.3219
52799SOL     OW65636   8.073   3.185   6.568  0.9530 -0.8918 -0.0266
52799SOL    HW165637   8.135   3.152   6.504  0.3327  0.0258 -1.1505
52799SOL    HW265638   7.987   3.156   6.536  0.0016  3.8561 -2.6952
52800SOL     OW65639   0.072   8.838   9.306  0.4300 -0.1220 -0.4088
52800SOL    HW165640   0.149   8.847   9.362  0.6542 -0.1709 -0.7093
52800SOL    HW265641  -0.001   8.835   9.367  0.6613 -0.0135 -0.1249
52801SOL     OW65642   0.243   1.540  10.243  0.1281  0.1725 -0.3130
52801SOL    HW165643   0.249   1.598  10.319 -2.9461  1.6756 -1.0854
52801SOL    HW265644   0.265   1.596  10.169  2.3111 -1.0842 -0.7125
52802SOL     OW65645   5.510   6.286  10.157 -0.1685  0.2355 -0.4271
52802SOL    HW165646   5.566   6.311  10.084 -0.3519 -2.3519 -1.5463
52802SOL    HW265647   5.427   6.332  10.141  0.4470  1.2952 -0.6799
52803SOL     OW65648  11.937   0.974   4.832  0.2433  0.1181  0.5229
52803SOL    HW165649  12.032   0.978   4.839  0.2302  0.6124  0.3948
52803SOL    HW265650  11.906   1.060   4.861  0.0277  1.2983 -2.8169
52804SOL     OW65651   9.945   5.270   1.311  0.4296  0.1794  0.4427
52804SOL    HW165652   9.917   5.203   1.373 -0.8225  0.8703  0.6623
52804SOL    HW265653  10.005   5.225   1.253  0.2227 -0.9393  1.0596
52805SOL     OW65654  11.856   5.466   4.600 -0.4779 -0.1554 -0.2806
52805SOL    HW165655  11.942   5.481   4.640 -0.3203  1.5907 -1.1689
52805SOL    HW265656  11.846   5.539   4.539 -3.6166  1.1009  1.5016
52806SOL     OW65657  12.425  12.456   2.639  0.3020 -0.0533 -0.2189
52806SOL    HW165658  12.331  12.437   2.634  0.0052  1.2267  0.2097
52806SOL    HW265659  12.456  12.406   2.715 -0.5130  1.2651  1.0421
52807SOL     OW65660   0.677   3.382   2.445 -0.1297  0.1078 -0.4790
52807SOL    HW165661   0.624   3.451   2.406 -0.5948 -0.3244 -0.6291
52807SOL    HW265662   0.733   3.352   2.374  0.1724  0.4271 -0.3755
52808SOL     OW65663   0.484   0.801   8.050 -0.0097  0.5561  0.2588
52808SOL    HW165664   0.426   0.739   8.005  1.2023 -0.7662  0.4654
52808SOL    HW265665   0.431   0.833   8.123 -0.5573 -0.5011  0.3562
52809SOL     OW65666   0.792   4.460  11.675 -0.0546  0.2087 -0.7916
52809SOL    HW165667   0.861   4.470  11.609  1.3227 -1.3868  0.3092
52809SOL    HW265668   0.781   4.548  11.711  1.2789  0.5580 -1.1638
52810SOL     OW65669   5.788   9.373   4.393 -0.0112  0.3615 -0.0261
52810SOL    HW165670   5.863   9.385   4.334  0.4457 -0.8254  0.2924
52810SOL    HW265671   5.766   9.462   4.422  0.8426  0.7899 -0.6580
52811SOL     OW65672   6.784  11.078  10.470 -0.3485  0.4475 -0.7738
52811SOL    HW165673   6.749  11.099  10.557 -0.2870  0.5715 -0.7795
52811SOL    HW265674   6.712  11.033  10.426  0.2836 -1.5081  0.0737
52812SOL     OW65675  11.078  11.361   8.422 -0.7449  0.0669 -0.4742
52812SOL    HW165676  11.059  11.443   8.468  2.5397  0.4874  0.4283
52812SOL    HW265677  11.139  11.386   8.353  0.9132 -1.6363  0.2779
52813SOL     OW65678  11.169  12.545   0.413 -0.2155  1.0290  0.3699
52813SOL    HW165679  11.140  12.454   0.418 -0.1435  0.7364 -2.7312
52813SOL    HW265680  11.261  12.541   0.438 -1.0327  0.9321  3.8278
52814SOL     OW65681   8.318   4.568   2.655  0.0089 -0.1843 -0.2495
52814SOL    HW165682   8.383   4.626   2.616  0.3105 -2.0695 -2.7577
52814SOL    HW265683   8.240   4.623   2.665  1.0427  1.3074 -0.0475
52815SOL     OW65684   9.680   3.507  11.026 -0.3139  0.3125 -0.7457
52815SOL    HW165685   9.613   3.530  10.961 -1.7082 -2.1640 -0.3055
52815SOL    HW265686   9.721   3.591  11.048 -2.5917  1.8117 -1.7673
52816SOL     OW65687   5.706   2.911   1.131  0.1582 -0.0693  0.1200
52816SOL    HW165688   5.626   2.935   1.177 -0.0659 -1.4831  0.5040
52816SOL    HW265689   5.678   2.853   1.061  0.9723 -2.3176  1.5326
52817SOL     OW65690   3.989   7.657   1.527 -0.3124 -0.2219 -0.4501
52817SOL    HW165691   4.020   7.685   1.614 -1.1428  0.7785 -0.4536
52817SOL    HW265692   4.036   7.714   1.466 -0.2853 -0.4231 -0.6182
52818SOL     OW65693   7.937   5.320   2.299  0.4074  0.1298 -0.2394
52818SOL    HW165694   7.898   5.406   2.316 -1.2607 -0.3831 -1.2549
52818SOL    HW265695   7.865   5.258   2.310  0.9470 -0.8814 -1.9539
52819SOL     OW65696   2.313   2.231   6.211  0.7290 -0.1677 -0.6561
52819SOL    HW165697   2.287   2.239   6.120  2.0995  1.2845 -0.9542
52819SOL    HW265698   2.402   2.266   6.215  0.3949  0.6179  1.3819
52820SOL     OW65699  10.246   7.597   9.528 -0.1927  0.1949 -0.0567
52820SOL    HW165700  10.225   7.525   9.468 -2.0492 -0.1236  0.8974
52820SOL    HW265701  10.180   7.590   9.597  1.6549  0.7519  1.8672
52821SOL     OW65702  10.499   5.634   3.522  0.1051  0.7393 -0.0584
52821SOL    HW165703  10.491   5.689   3.444 -0.3343 -0.4894 -0.9030
52821SOL    HW265704  10.578   5.665   3.565  0.1817  1.6528 -0.8186
52822SOL     OW65705   3.290   4.342   2.818 -0.2432  0.2098  0.3028
52822SOL    HW165706   3.317   4.291   2.742 -1.2312  0.2925 -0.1216
52822SOL    HW265707   3.223   4.401   2.784  1.5916  2.6060  0.5198
52823SOL     OW65708   9.813   8.214   9.813  0.2888 -0.2172  0.0823
52823SOL    HW165709   9.805   8.134   9.866 -0.4646 -1.0290 -1.1997
52823SOL    HW265710   9.907   8.222   9.796  0.8837  1.3611  3.3842
52824SOL     OW65711   0.184  10.378  10.640  0.7770  0.1141 -0.2055
52824SOL    HW165712   0.223  10.347  10.722  1.2037 -0.9238 -0.7722
52824SOL    HW265713   0.117  10.441  10.666  0.5937 -0.5487  0.9647
52825SOL     OW65714   4.537   4.795   5.073  0.4535 -0.2818 -0.1628
52825SOL    HW165715   4.467   4.823   5.013  2.5436  1.7637 -1.8000
52825SOL    HW265716   4.571   4.876   5.109  0.1096 -1.4068  2.9646
52826SOL     OW65717   2.295   1.608   0.172  0.7524  0.1331 -0.0746
52826SOL    HW165718   2.237   1.634   0.244  0.3114 -1.1587  0.0567
52826SOL    HW265719   2.374   1.576   0.216  0.1925 -1.3629 -0.1044
52827SOL     OW65720   4.357   3.326   7.675 -0.0396 -0.2239 -0.2422
52827SOL    HW165721   4.346   3.287   7.762 -2.1936 -1.0217 -0.7910
52827SOL    HW265722   4.392   3.414   7.692  2.1670 -1.3134  1.2176
52828SOL     OW65723   1.668   8.597   8.556 -0.3720  0.2535 -0.1343
52828SOL    HW165724   1.649   8.684   8.591 -0.4702  0.0235  0.4073
52828SOL    HW265725   1.761   8.600   8.533 -0.8216  1.1029 -1.9567
52829SOL     OW65726   8.134   4.727   1.609  0.0759  0.5249  0.0125
52829SOL    HW165727   8.206   4.752   1.550  0.2074 -0.5606 -0.3094
52829SOL    HW265728   8.056   4.766   1.570  0.4095  1.2576  0.0669
52830SOL     OW65729   1.034   4.552  10.496  0.5092 -0.0400 -0.3318
52830SOL    HW165730   0.995   4.477  10.540  0.4784  0.2007  0.0528
52830SOL    HW265731   1.129   4.540  10.506  0.4891  0.4357  0.5169
52831SOL     OW65732   4.785   6.732   5.080  0.3049  0.0927 -0.1579
52831SOL    HW165733   4.805   6.662   5.143  1.1204 -2.2235 -2.7918
52831SOL    HW265734   4.689   6.729   5.070  0.1120  0.8055  1.2393
52832SOL     OW65735   6.951   9.194   7.080 -0.0663  0.0909 -0.4286
52832SOL    HW165736   6.963   9.286   7.105 -0.6628  0.4148 -1.2746
52832SOL    HW265737   6.885   9.161   7.142 -0.0721  0.3187 -0.3119
52833SOL     OW65738   0.356  12.319   1.567 -0.5042 -0.1354  0.2200
52833SOL    HW165739   0.331  12.402   1.607 -1.3483 -0.7296  0.9391
52833SOL    HW265740   0.326  12.252   1.628  0.3646 -0.9785 -0.2409
52834SOL     OW65741   0.398   4.761   8.422 -0.4378  0.0388  0.1384
52834SOL    HW165742   0.307   4.786   8.435 -0.2817  0.0100  1.3955
52834SOL    HW265743   0.409   4.682   8.475  0.8734  1.2833  1.8223
52835SOL     OW65744   9.395   0.202   3.724  0.3104  0.4852  0.4590
52835SOL    HW165745   9.394   0.116   3.681  3.6675  0.2504  0.6144
52835SOL    HW265746   9.429   0.184   3.812  1.4485  2.0210  0.3484
52836SOL     OW65747   0.653   5.095   3.362  0.3264  0.8739 -0.5778
52836SOL    HW165748   0.727   5.148   3.331  0.8509  0.5470  0.0911
52836SOL    HW265749   0.628   5.136   3.445  0.0996  0.6651 -0.5444
52837SOL     OW65750   3.024   9.923   2.817  0.3921  0.0726  0.4769
52837SOL    HW165751   3.113   9.920   2.784  0.0512  0.6594 -0.5508
52837SOL    HW265752   3.023   9.863   2.891  1.2390 -1.1545 -0.4788
52838SOL     OW65753   3.468  10.249   0.078 -0.0529 -0.2827  0.3475
52838SOL    HW165754   3.507  10.247  -0.009  0.2233 -0.7623  0.4792
52838SOL    HW265755   3.415  10.329   0.079 -0.4349 -0.5178 -0.4237
52839SOL     OW65756   7.537   8.848   9.758  0.5729  0.2746 -0.1933
52839SOL    HW165757   7.596   8.875   9.828 -0.0772  0.5688  0.2510
52839SOL    HW265758   7.466   8.803   9.803  0.4736 -0.1147 -0.7271
52840SOL     OW65759   2.571  12.624   9.645 -0.0767  0.2529  0.5145
52840SOL    HW165760   2.571  12.668   9.560 -1.8168  1.4830  1.0799
52840SOL    HW265761   2.540  12.536   9.626  1.6939 -0.2150 -0.3945
52841SOL     OW65762   7.500  12.372   8.272  0.0093 -0.0522 -0.0973
52841SOL    HW165763   7.566  12.383   8.340  0.0842  1.3505 -0.3665
52841SOL    HW265764   7.421  12.413   8.308  0.0479  0.7006 -0.8224
52842SOL     OW65765   1.415   5.376   4.612  0.1321  0.7182 -0.7237
52842SOL    HW165766   1.499   5.348   4.646 -0.6108  1.0881  1.6026
52842SOL    HW265767   1.373   5.296   4.582  1.4706  0.5964 -2.3955
52843SOL     OW65768  12.420   6.206   6.732 -0.2249  0.5138 -0.1007
52843SOL    HW165769  12.337   6.211   6.685 -1.3930 -0.7008  1.7150
52843SOL    HW265770  12.396   6.211   6.824  1.2223 -3.4395  0.6956
52844SOL     OW65771   7.551  10.884   4.741  0.3559 -0.2613 -0.1923
52844SOL    HW165772   7.558  10.942   4.817 -2.0637 -1.3231  0.9741
52844SOL    HW265773   7.531  10.943   4.668  2.1997  0.7296  0.0495
52845SOL     OW65774   9.032  12.649   1.337  0.1824 -0.2512  0.0863
52845SOL    HW165775   9.125  12.660   1.318  0.2585 -0.0568  0.5418
52845SOL    HW265776   9.019  12.696   1.419 -0.4812  0.3809 -0.3695
52846SOL     OW65777   4.451  10.295  11.360 -0.1513 -0.0076 -0.0758
52846SOL    HW165778   4.365  10.260  11.339 -0.4052 -0.5768  1.7397
52846SOL    HW265779   4.459  10.374  11.306 -3.0512  1.6936  1.7214
52847SOL     OW65780   6.152   8.361   7.496 -0.0957  0.2584  0.0894
52847SOL    HW165781   6.146   8.281   7.442 -0.6743  0.6256 -0.4087
52847SOL    HW265782   6.061   8.384   7.514  0.0399  1.2666 -0.4698
52848SOL     OW65783   3.683   1.216   0.286 -0.7609  0.0611 -0.3930
52848SOL    HW165784   3.613   1.278   0.310 -0.4553  0.4459 -0.4777
52848SOL    HW265785   3.718   1.250   0.204 -0.0476  0.2407 -0.0236
52849SOL     OW65786   4.985   2.584   7.269 -0.4636 -0.2204 -0.5519
52849SOL    HW165787   4.952   2.640   7.199  0.1384  1.3960  0.3960
52849SOL    HW265788   4.954   2.625   7.349  2.0071  0.2104  0.2922
52850SOL     OW65789   6.982   4.489   0.603  0.4783 -0.0267  0.5093
52850SOL    HW165790   7.019   4.401   0.591  1.2175  0.0922  1.7662
52850SOL    HW265791   7.014   4.517   0.688  0.9255  1.8079 -0.2204
52851SOL     OW65792   2.886  11.526   1.556  0.2906 -0.3368  0.3775
52851SOL    HW165793   2.865  11.470   1.631  2.6397 -1.4095  0.3066
52851SOL    HW265794   2.971  11.565   1.578  1.4242 -1.2755 -2.0034
52852SOL     OW65795   3.564   9.906  12.358  0.0652  0.0288  0.0238
52852SOL    HW165796   3.653   9.941  12.352 -0.0537  0.1745 -1.2003
52852SOL    HW265797   3.528   9.917  12.270 -1.2904  0.2850  0.5867
52853SOL     OW65798   2.897   8.736   7.526 -1.0400  0.0647 -0.2224
52853SOL    HW165799   2.902   8.710   7.434  0.4115 -0.9637  0.1253
52853SOL    HW265800   2.978   8.705   7.565 -1.7847  0.1606  1.5016
52854SOL     OW65801   2.819   7.975  10.193  0.4309 -0.5466 -0.3147
52854SOL    HW165802   2.792   7.898  10.142  0.1291  0.5006 -1.7949
52854SOL    HW265803   2.787   8.050  10.143  0.5443  0.5573  1.1964
52855SOL     OW65804  11.510  11.135   0.826  0.4266 -0.2030 -0.3798
52855SOL    HW165805  11.472  11.078   0.759 -1.7475  0.2830  0.3528
52855SOL    HW265806  11.436  11.184   0.860  1.0514 -1.5924  3.5312
52856SOL     OW65807   2.692   6.516   2.780  0.1396 -0.2058  0.2081
52856SOL    HW165808   2.664   6.589   2.836  1.1977  0.1688  0.2707
52856SOL    HW265809   2.650   6.439   2.818 -0.3925  0.2678  0.5901
52857SOL     OW65810   0.613   8.310   4.905 -0.8633  0.3327 -0.1495
52857SOL    HW165811   0.678   8.240   4.894  0.7831  1.6333  0.8514
52857SOL    HW265812   0.578   8.297   4.993 -2.7453 -0.9353 -1.0244
52858SOL     OW65813   7.181   8.898   8.229  0.2802  0.0077 -0.1812
52858SOL    HW165814   7.246   8.847   8.277  1.0233  0.6467 -0.4887
52858SOL    HW265815   7.187   8.986   8.266 -0.2760  0.1217 -0.3459
52859SOL     OW65816  10.406  11.419  12.200  0.4448 -0.0089 -0.3909
52859SOL    HW165817  10.459  11.452  12.273 -1.5229 -0.1629  1.1886
52859SOL    HW265818  10.378  11.332  12.228 -0.4707 -0.0071 -1.2523
52860SOL     OW65819  11.436   2.890   2.399 -0.1624 -0.0485 -0.2218
52860SOL    HW165820  11.361   2.932   2.356  0.1935  0.6415 -0.1963
52860SOL    HW265821  11.445   2.806   2.355 -1.1959 -0.3238  0.0447
52861SOL     OW65822   2.942   1.005   8.725  0.6176  0.1325 -0.3540
52861SOL    HW165823   2.885   0.974   8.795  0.3362  0.1621 -0.5711
52861SOL    HW265824   2.999   0.930   8.706  2.0659  0.7335  1.2874
52862SOL     OW65825  11.626  10.913   9.906 -0.1199 -0.1057 -0.4273
52862SOL    HW165826  11.572  10.991   9.921  1.2005  1.0559 -1.4812
52862SOL    HW265827  11.612  10.859   9.983 -2.1234  0.5374 -0.2825
52863SOL     OW65828  10.599   6.152   1.748 -0.5506  0.6381 -0.1235
52863SOL    HW165829  10.591   6.220   1.815  1.1533  0.8034 -0.0401
52863SOL    HW265830  10.558   6.075   1.787  0.0120  0.8610  0.9415
52864SOL     OW65831   5.191  11.142  10.763 -0.5619 -0.0157 -0.2087
52864SOL    HW165832   5.146  11.160  10.681 -1.3395  0.4011  0.2950
52864SOL    HW265833   5.282  11.127  10.738 -0.0904  3.2132 -0.8747
52865SOL     OW65834   9.747   6.834  10.101 -0.5410  0.3577  0.7069
52865SOL    HW165835   9.747   6.775  10.025 -1.3585  1.5221 -0.2409
52865SOL    HW265836   9.763   6.777  10.176  1.4859 -0.6775 -0.4332
52866SOL     OW65837   8.892   6.041   2.683  0.1047 -0.3720  0.2399
52866SOL    HW165838   8.866   6.128   2.716  1.8662  0.6929 -0.9764
52866SOL    HW265839   8.972   6.021   2.733 -0.1026 -1.1357  0.2637
52867SOL     OW65840  10.058   9.960   6.486  0.3465  0.6081  0.5672
52867SOL    HW165841  10.151   9.939   6.495  0.2670 -0.1520 -0.2720
52867SOL    HW265842  10.015   9.906   6.552  0.3821  0.0021  0.0986
52868SOL     OW65843   3.702   6.395   1.056  0.3144 -0.4144  0.0143
52868SOL    HW165844   3.647   6.457   1.007 -0.3536 -1.4785 -0.6214
52868SOL    HW265845   3.642   6.358   1.122  0.3961 -1.2138 -0.3529
52869SOL     OW65846   4.033  10.177   3.226 -0.1824  0.6361 -0.1115
52869SOL    HW165847   4.069  10.113   3.287  0.8974  1.3521  0.0406
52869SOL    HW265848   3.994  10.125   3.156 -0.7578 -0.1834  0.8110
52870SOL     OW65849   4.130  12.656   5.962  0.0963 -0.4946  0.5749
52870SOL    HW165850   4.218  12.625   5.942  0.5614  0.5045  0.9690
52870SOL    HW265851   4.142  12.715   6.037 -0.4208  2.1158 -1.2524
52871SOL     OW65852   2.784  12.420   5.485  0.0928  0.5312 -0.0548
52871SOL    HW165853   2.823  12.505   5.468  2.4914 -0.6469 -0.8645
52871SOL    HW265854   2.749  12.392   5.400  0.6165  0.0907 -0.1281
52872SOL     OW65855   6.291   3.576  12.473  0.4165 -0.2036  0.3713
52872SOL    HW165856   6.296   3.500  12.531  2.4802 -0.5093 -0.1383
52872SOL    HW265857   6.273   3.540  12.387 -3.0267  0.2766  0.7530
52873SOL     OW65858  10.864   1.754  12.008  0.2046  0.1530  0.2389
52873SOL    HW165859  10.884   1.667  11.974 -0.7355  0.2271 -0.5599
52873SOL    HW265860  10.829   1.737  12.096 -0.1327 -0.2887  0.0255
52874SOL     OW65861   0.457   0.785   7.054  0.2468 -0.0776 -0.0998
52874SOL    HW165862   0.440   0.839   6.978  1.3612  0.8350  0.2813
52874SOL    HW265863   0.539   0.740   7.034 -0.1104 -0.8065  0.0410
52875SOL     OW65864   0.148   4.847   5.038  0.8189 -0.5122 -0.0923
52875SOL    HW165865   0.176   4.933   5.069  1.5162 -0.5769 -0.5078
52875SOL    HW265866   0.086   4.816   5.104  0.2775  0.4607 -0.1310
52876SOL     OW65867   2.995   5.003   7.787  0.2429 -0.0407  0.5532
52876SOL    HW165868   2.937   5.059   7.838  0.0830  1.0572 -0.7795
52876SOL    HW265869   3.018   4.932   7.847 -0.0566  1.0977  2.0912
52877SOL     OW65870  12.300   4.044   8.904  0.1765 -0.2794  0.3979
52877SOL    HW165871  12.221   3.994   8.923 -1.4931  1.0247 -2.5120
52877SOL    HW265872  12.268   4.127   8.869  2.8245  0.1580 -1.2472
52878SOL     OW65873   9.419   1.434   6.381  0.1392  0.0195  0.3721
52878SOL    HW165874   9.362   1.495   6.334  1.3348 -1.4192 -3.2628
52878SOL    HW265875   9.371   1.414   6.462 -2.0948  2.6564 -0.1532
52879SOL     OW65876   3.229   4.085   9.757  0.4123 -0.3730 -0.4475
52879SOL    HW165877   3.163   4.063   9.823  0.0616 -0.4193 -0.8072
52879SOL    HW265878   3.197   4.167   9.718  1.3311  0.4121  0.3867
52880SOL     OW65879  11.017  11.062   6.836  0.0485  0.3117  0.3985
52880SOL    HW165880  11.049  11.110   6.913  2.3164  0.6462 -0.6704
52880SOL    HW265881  11.058  10.976   6.843  0.5639  0.4631 -0.5891
52881SOL     OW65882  11.780   9.838  11.604  0.5057 -0.0117  0.6973
52881SOL    HW165883  11.740   9.910  11.654  0.6551 -0.4594  1.4831
52881SOL    HW265884  11.807   9.878  11.522 -0.4444  0.5772  0.6521
52882SOL     OW65885   3.400   5.872  12.201 -0.1758 -0.5978  0.5967
52882SOL    HW165886   3.331   5.919  12.247 -1.3943 -2.5057  0.8398
52882SOL    HW265887   3.443   5.820  12.268  1.6557  0.6488  0.4716
52883SOL     OW65888   0.472   1.478  11.139  0.2715 -0.2869  0.3042
52883SOL    HW165889   0.522   1.488  11.058  0.4414  1.1503  0.5662
52883SOL    HW265890   0.538   1.484  11.209 -0.0846  0.1899  0.6041
52884SOL     OW65891   7.809   5.310   4.249  0.1725 -0.3680 -0.4355
52884SOL    HW165892   7.803   5.382   4.186  2.5283  0.3740  0.1166
52884SOL    HW265893   7.783   5.349   4.332  0.2223 -0.4944 -0.3611
52885SOL     OW65894   1.770   6.944  11.641 -0.6925 -1.0663 -0.7092
52885SOL    HW165895   1.761   6.979  11.730 -0.1420 -1.1442 -0.6146
52885SOL    HW265896   1.685   6.907  11.620 -0.7990 -1.1302 -0.1748
52886SOL     OW65897   4.594   0.568  11.392  0.2460  0.2241  0.4040
52886SOL    HW165898   4.629   0.638  11.447  1.5801  0.0964 -0.2418
52886SOL    HW265899   4.636   0.489  11.425 -0.3448 -0.1148  0.3575
52887SOL     OW65900   3.344  11.755   8.874  1.1571 -0.4167 -0.6334
52887SOL    HW165901   3.308  11.668   8.891 -0.1415  0.3495  0.7805
52887SOL    HW265902   3.404  11.771   8.947  0.2210  0.4679 -0.0413
52888SOL     OW65903   7.274   1.560  12.239  0.2405 -0.3632  0.3003
52888SOL    HW165904   7.295   1.644  12.198 -0.4582 -0.8950 -1.2262
52888SOL    HW265905   7.196   1.578  12.292  1.4752  0.4590  1.9233
52889SOL     OW65906   6.082  11.176  11.777  0.9119 -0.1437  0.1225
52889SOL    HW165907   6.084  11.262  11.818 -0.6294  0.0313 -0.1242
52889SOL    HW265908   6.134  11.121  11.836 -0.7169  0.2447  2.0574
52890SOL     OW65909   1.407   3.478   1.277 -0.3790 -0.1027  0.0253
52890SOL    HW165910   1.427   3.531   1.354  0.4172 -0.5075  0.1116
52890SOL    HW265911   1.326   3.514   1.243 -0.3228  0.5861  0.6046
52891SOL     OW65912   3.312   6.121   3.487  0.7571 -0.0656  0.3056
52891SOL    HW165913   3.324   6.187   3.418  1.6598 -0.3377  0.1939
52891SOL    HW265914   3.385   6.061   3.476 -0.5620 -1.6596 -0.1963
52892SOL     OW65915   6.313   5.336   3.641 -0.6575  0.2107 -0.3807
52892SOL    HW165916   6.338   5.312   3.552 -0.0412  1.3568 -0.5474
52892SOL    HW265917   6.240   5.397   3.630  0.0122  1.0805 -0.1739
52893SOL     OW65918   8.548   9.068   1.714 -0.8531  0.1476  0.4060
52893SOL    HW165919   8.585   9.060   1.626 -2.2014  1.8328 -0.3756
52893SOL    HW265920   8.596   9.141   1.754 -0.4302 -0.4367  0.9944
52894SOL     OW65921  12.066   8.785   3.102 -0.0661  0.3489  0.2092
52894SOL    HW165922  12.156   8.793   3.136  0.1037  0.7363 -0.3248
52894SOL    HW265923  12.042   8.875   3.079 -1.1392  0.4931  1.7072
52895SOL     OW65924   7.890  11.692   2.384 -0.1557 -0.8263  0.4347
52895SOL    HW165925   7.803  11.722   2.413  0.4424  0.0945  1.3606
52895SOL    HW265926   7.872  11.619   2.326 -1.6381  0.4159 -0.7612
52896SOL     OW65927   8.916   5.896   7.549  0.1312 -0.7020 -0.3340
52896SOL    HW165928   8.911   5.941   7.634  2.1130  0.9537 -1.0266
52896SOL    HW265929   9.009   5.879   7.536  0.0207  0.1013 -2.6507
52897SOL     OW65930   5.785   1.787   8.241  0.0127 -0.2402 -0.3892
52897SOL    HW165931   5.755   1.839   8.165  1.9647  1.8886  0.1752
52897SOL    HW265932   5.721   1.807   8.310  0.1265  0.5803 -0.5048
52898SOL     OW65933   3.535   5.570   4.916  0.4650 -0.6490 -0.1051
52898SOL    HW165934   3.582   5.577   4.833  0.9898 -1.3203  0.1300
52898SOL    HW265935   3.515   5.661   4.940  0.0253 -0.4550 -1.1143
52899SOL     OW65936   1.119   8.954   9.311 -0.1808 -0.1878 -0.4400
52899SOL    HW165937   1.035   8.908   9.320 -0.5546  0.5182 -0.2931
52899SOL    HW265938   1.185   8.885   9.324 -0.7309 -0.7079 -0.3453
52900SOL     OW65939   7.851   0.654   7.066  0.0755 -0.2351  0.4445
52900SOL    HW165940   7.804   0.684   6.988  0.9930 -0.2432 -0.1301
52900SOL    HW265941   7.901   0.730   7.094  1.9543 -0.9840 -0.6747
52901SOL     OW65942   5.668  10.223  11.557 -0.5164  0.0701  0.8299
52901SOL    HW165943   5.650  10.308  11.598  1.3442 -0.3989  2.8047
52901SOL    HW265944   5.632  10.159  11.618 -0.1674 -0.5972  0.3497
52902SOL     OW65945   1.153   2.303   5.176  0.3382 -0.9209  0.1462
52902SOL    HW165946   1.179   2.230   5.232 -0.0498 -1.8003 -0.7779
52902SOL    HW265947   1.071   2.335   5.214  1.6610  0.5737  1.9062
52903SOL     OW65948  11.516   9.018   8.876  0.2198 -0.4393  0.1210
52903SOL    HW165949  11.534   9.091   8.935 -1.4718  0.3506 -0.2990
52903SOL    HW265950  11.427   8.991   8.897  0.6590 -2.1144 -0.0423
52904SOL     OW65951  12.138  12.202   5.510  0.2045  0.2436  0.4643
52904SOL    HW165952  12.079  12.129   5.491 -0.9999  1.0693  0.9441
52904SOL    HW265953  12.127  12.262   5.436 -0.0647  0.7178  0.8885
52905SOL     OW65954  11.458   7.873   1.944  0.1146  0.2594 -0.1089
52905SOL    HW165955  11.401   7.809   1.988 -0.7033  0.7677 -0.3996
52905SOL    HW265956  11.406   7.903   1.869  0.8956  0.5171 -0.5546
52906SOL     OW65957  12.575   9.799   8.281 -0.0588 -0.0249  0.0580
52906SOL    HW165958  12.628   9.864   8.328 -1.9239  1.6525  0.0000
52906SOL    HW265959  12.561   9.838   8.195 -2.7382  0.4635  0.6215
52907SOL     OW65960   1.463   8.671   0.460 -0.1868 -0.3158 -0.0955
52907SOL    HW165961   1.501   8.731   0.395  0.3576 -0.3258  0.2104
52907SOL    HW265962   1.535   8.615   0.486 -0.6739 -1.0537 -0.3042
52908SOL     OW65963   9.076   5.006   2.573 -0.2940 -0.1857  0.4644
52908SOL    HW165964   9.143   4.987   2.638  0.5424  0.5153 -0.1546
52908SOL    HW265965   9.092   4.944   2.502  1.2898  1.4920 -0.7531
52909SOL     OW65966   2.424   7.537   5.221  0.1167  0.1675 -0.2117
52909SOL    HW165967   2.411   7.485   5.142 -0.4561  0.6038 -0.4072
52909SOL    HW265968   2.367   7.496   5.287  0.1883  0.1295 -0.1730
52910SOL     OW65969  10.876   1.276   4.562  0.2208 -0.0548  0.4019
52910SOL    HW165970  10.884   1.185   4.534  1.8858  0.4617 -0.9715
52910SOL    HW265971  10.811   1.314   4.504  1.2063  0.1726 -0.5860
52911SOL     OW65972  10.926  12.443   4.259  0.0691  0.4642 -0.6605
52911SOL    HW165973  10.967  12.360   4.283  0.1103  0.3813 -1.0170
52911SOL    HW265974  10.857  12.419   4.198  0.9681  0.8088 -1.8440
52912SOL     OW65975   9.837   0.066   0.801 -0.2993 -0.0180 -0.2481
52912SOL    HW165976   9.808   0.152   0.773  2.0971  0.8086 -0.4505
52912SOL    HW265977   9.790   0.049   0.882 -0.6532  1.5897 -0.0969
52913SOL     OW65978  10.089   1.907   4.912 -0.3212 -0.0271  0.3321
52913SOL    HW165979  10.126   1.968   4.848 -0.0512  0.7371  1.1916
52913SOL    HW265980  10.073   1.827   4.862  2.4773 -0.4061 -0.0929
52914SOL     OW65981   4.532   3.840  10.707 -0.0344  0.8586  0.4715
52914SOL    HW165982   4.447   3.872  10.675  1.1782  4.5906  0.5616
52914SOL    HW265983   4.589   3.917  10.706  3.2999 -1.4145  0.7952
52915SOL     OW65984   5.920   4.963   4.662  0.0954  0.0716  0.3180
52915SOL    HW165985   5.923   5.031   4.595 -1.5038 -0.4698 -0.3516
52915SOL    HW265986   5.878   5.005   4.737  0.0451  0.1037  0.2717
52916SOL     OW65987   9.903  12.174   0.745  0.3505  0.0482  0.3255
52916SOL    HW165988   9.902  12.078   0.756  0.1465  0.0664  0.4815
52916SOL    HW265989   9.954  12.188   0.665 -2.2390 -0.4154 -1.5779
52917SOL     OW65990   0.943   7.415   4.316 -0.0360 -0.6257  0.7162
52917SOL    HW165991   0.961   7.321   4.329 -0.2950 -0.7527  0.1892
52917SOL    HW265992   0.938   7.425   4.221  1.0452  0.1346  0.7216
52918SOL     OW65993  11.886   9.835  11.132 -0.2853 -0.2880  0.0990
52918SOL    HW165994  11.951   9.847  11.201 -1.1565  0.0092  0.8958
52918SOL    HW265995  11.802   9.840  11.178 -0.9287  1.2450 -1.1797
52919SOL     OW65996  10.997   8.354   1.244 -0.3848 -0.5825  0.3390
52919SOL    HW165997  10.935   8.300   1.196  0.4013 -2.1802  1.0641
52919SOL    HW265998  10.942   8.407   1.302 -1.3011  0.9261 -1.7600
52920SOL     OW65999   0.025   7.165   8.447  0.0554  0.8133 -0.0257
52920SOL    HW166000   0.086   7.190   8.516 -0.0260 -0.0668  0.3807
52920SOL    HW266001  -0.059   7.153   8.493  0.1936 -0.6413 -0.1038
52921SOL     OW66002   4.723  11.058   6.453  0.1578 -0.1390 -0.4567
52921SOL    HW166003   4.674  11.045   6.534  0.2347  0.9318 -0.2256
52921SOL    HW266004   4.815  11.051   6.479  0.1722 -0.3442 -0.5588
52922SOL     OW66005   3.849   4.996   1.502 -0.1860 -0.2712 -0.1762
52922SOL    HW166006   3.849   5.011   1.597  0.0955 -0.7502 -0.0945
52922SOL    HW266007   3.876   5.080   1.465 -1.1415  0.1824  0.1134
52923SOL     OW66008   4.372   4.470  11.885 -0.6279 -0.7667  0.3982
52923SOL    HW166009   4.280   4.444  11.896  0.0332 -3.1514  0.7670
52923SOL    HW266010   4.415   4.392  11.851  1.6803 -0.3894  2.2635
52924SOL     OW66011   3.228   4.678   2.298  0.3708 -0.0772 -0.4801
52924SOL    HW166012   3.275   4.614   2.352  0.5184  0.6121  0.2405
52924SOL    HW266013   3.140   4.680   2.335  0.6392  0.8399  0.1537
52925SOL     OW66014   8.978   0.043   1.599  0.2871 -0.3327 -0.0256
52925SOL    HW166015   8.995   0.130   1.633  1.5696 -1.0951  1.4100
52925SOL    HW266016   8.905   0.010   1.652  0.8151 -0.6902  0.4894
52926SOL     OW66017   2.511   2.922   2.260 -0.1721  0.3121  0.4258
52926SOL    HW166018   2.603   2.950   2.263 -0.0994  0.0516  0.6903
52926SOL    HW266019   2.514   2.829   2.280 -0.2751 -0.2159 -1.7280
52927SOL     OW66020   0.909   1.667   1.105  0.1301  0.1050  0.2747
52927SOL    HW166021   0.917   1.573   1.088  0.6723 -0.0183  1.1242
52927SOL    HW266022   0.997   1.693   1.135 -0.1153  0.8053  0.3938
52928SOL     OW66023   6.419   1.473  11.973  0.3448  0.2742 -0.1865
52928SOL    HW166024   6.335   1.513  11.995  0.0913 -0.2803 -0.1235
52928SOL    HW266025   6.399   1.410  11.904  0.3335 -1.3220  1.1927
52929SOL     OW66026   3.222  11.522   2.082  0.2768  0.0391 -0.3915
52929SOL    HW166027   3.255  11.432   2.078  0.3464  0.0551 -0.1738
52929SOL    HW266028   3.164  11.530   2.007 -0.8708 -0.6406  0.4025
52930SOL     OW66029   1.754   6.584   2.830 -0.0205  0.3729  0.2124
52930SOL    HW166030   1.706   6.519   2.882 -1.1871  0.5839 -0.5672
52930SOL    HW266031   1.836   6.540   2.807 -0.5786 -0.6552  0.1045
52931SOL     OW66032   7.094   7.876   7.740 -0.8449 -0.2338  0.6125
52931SOL    HW166033   7.031   7.850   7.673 -1.9096  0.1297  1.4441
52931SOL    HW266034   7.050   7.946   7.788  0.9074  1.2952  0.0956
52932SOL     OW66035  10.381  10.643   2.820  0.0324 -0.2747 -0.6812
52932SOL    HW166036  10.383  10.738   2.831  1.3369 -0.5119  1.9856
52932SOL    HW266037  10.421  10.609   2.900 -1.4269 -3.1333 -1.0399
52933SOL     OW66038   0.807   9.274   6.261  0.1223  0.0509 -0.2302
52933SOL    HW166039   0.874   9.289   6.328 -1.4799 -0.4426  1.5711
52933SOL    HW266040   0.783   9.362   6.232  1.5463  0.2354 -0.9630
52934SOL     OW66041   1.428   4.758  11.103  0.4808 -0.3045 -0.5372
52934SOL    HW166042   1.368   4.720  11.167  0.8093 -1.0958 -0.6862
52934SOL    HW266043   1.440   4.848  11.131 -0.5831 -0.2102 -0.3633
52935SOL     OW66044  11.410  11.256   1.268  0.1516 -0.6486 -0.0362
52935SOL    HW166045  11.419  11.317   1.341  0.7588 -1.1393  0.3083
52935SOL    HW266046  11.328  11.210   1.285 -1.2409  1.2568 -1.2164
52936SOL     OW66047  10.888   3.341  10.995  0.2085 -0.4979  0.0567
52936SOL    HW166048  10.896   3.265  10.939  0.6285 -1.0027  0.7833
52936SOL    HW266049  10.794   3.345  11.017  0.1140 -0.5358 -0.3342
52937SOL     OW66050   3.443   6.509   2.027  0.5491 -0.3131  0.2218
52937SOL    HW166051   3.373   6.443   2.027  0.4688 -0.2759 -1.4251
52937SOL    HW266052   3.524   6.458   2.039  0.6163 -0.9449 -2.3942
52938SOL     OW66053  11.941   9.643   2.202  0.1077 -0.1321  0.1192
52938SOL    HW166054  11.976   9.574   2.259  1.0902  0.1568 -0.1110
52938SOL    HW266055  12.017   9.672   2.151 -0.6812 -0.1530 -1.0961
52939SOL     OW66056   0.801   6.957   3.948 -0.7260  0.0362  0.5921
52939SOL    HW166057   0.749   6.888   3.907 -1.2169  0.3634  0.6644
52939SOL    HW266058   0.757   6.975   4.031  0.8016 -1.3006  1.7587
52940SOL     OW66059   3.678   0.643   3.397 -0.0679  0.5647 -0.1202
52940SOL    HW166060   3.712   0.731   3.380 -1.0582  0.7751 -1.1370
52940SOL    HW266061   3.693   0.629   3.490 -0.5509  2.1163  0.2306
52941SOL     OW66062   0.331  11.118   9.741  0.3778 -0.1814 -0.5309
52941SOL    HW166063   0.424  11.140   9.744 -0.1566  2.5278 -0.5642
52941SOL    HW266064   0.326  11.036   9.692  2.7821 -0.7764  0.1436
52942SOL     OW66065  12.311   7.405   8.432 -0.0757 -0.6693 -0.2645
52942SOL    HW166066  12.236   7.459   8.408 -0.9037 -1.4822  0.4139
52942SOL    HW266067  12.285   7.316   8.408 -1.3530 -1.7421  4.1401
52943SOL     OW66068   1.350   2.691   2.459  0.2364 -0.5490 -0.2192
52943SOL    HW166069   1.402   2.764   2.492 -1.7391  1.6057 -1.5885
52943SOL    HW266070   1.343   2.631   2.533  1.2457  1.0165  1.2127
52944SOL     OW66071   1.524   4.896   3.246 -0.5448 -0.1268 -0.1979
52944SOL    HW166072   1.499   4.829   3.309 -0.8694 -0.2961 -0.5027
52944SOL    HW266073   1.458   4.889   3.176  0.2677 -0.4759 -0.9495
52945SOL     OW66074   3.198   0.147   9.605 -0.1667 -0.0247  0.1488
52945SOL    HW166075   3.104   0.162   9.604  0.0890  1.8343  0.4564
52945SOL    HW266076   3.227   0.180   9.690  0.5846 -2.0537  0.7385
52946SOL     OW66077   6.046  11.604  11.759 -0.2919  0.3661  0.0344
52946SOL    HW166078   5.998  11.563  11.686 -0.2652 -0.0439  0.2408
52946SOL    HW266079   6.112  11.539  11.783 -1.1724 -0.1060  1.3088
52947SOL     OW66080   3.756   4.129   1.052  0.3087 -0.1979 -0.0617
52947SOL    HW166081   3.713   4.207   1.085  1.3708  0.7033 -0.7300
52947SOL    HW266082   3.685   4.066   1.038 -0.6592  0.8899 -0.1869
52948SOL     OW66083   9.976  12.403   6.164  0.2775 -0.2773 -0.6586
52948SOL    HW166084  10.046  12.360   6.213 -0.4700 -0.7284  0.0330
52948SOL    HW266085   9.906  12.338   6.160  0.5899 -0.5592 -3.0136
52949SOL     OW66086   6.754   3.126   1.372  0.7045 -0.2296 -0.1176
52949SOL    HW166087   6.830   3.174   1.404 -0.9170  1.7378  1.0361
52949SOL    HW266088   6.699   3.193   1.332 -0.1007 -1.7309 -1.6393
52950SOL     OW66089  11.021   0.126  10.966 -0.0480 -0.4779 -0.0374
52950SOL    HW166090  10.941   0.158  10.925 -0.8953 -1.6459  0.6440
52950SOL    HW266091  11.092   0.168  10.917 -1.0221 -1.2691 -2.2197
52951SOL     OW66092   4.039   5.707   5.329  0.0063 -0.6431 -0.0233
52951SOL    HW166093   3.979   5.768   5.371 -0.9880 -0.1613 -2.0161
52951SOL    HW266094   4.100   5.762   5.281  1.8021 -1.1506  1.5552
52952SOL     OW66095   7.802   7.860   2.880 -0.3433  0.8025  0.6178
52952SOL    HW166096   7.798   7.773   2.920  2.2636  0.5123  0.4277
52952SOL    HW266097   7.888   7.863   2.838 -1.0829  2.8490 -0.9105
52953SOL     OW66098   4.181   6.309   2.451  0.2250  0.6648 -0.5696
52953SOL    HW166099   4.251   6.306   2.517 -0.4582  2.3454  0.2804
52953SOL    HW266100   4.202   6.236   2.392  0.0487 -1.9264  2.2903
52954SOL     OW66101  11.426   2.326  11.773  0.0195 -0.3677 -0.1450
52954SOL    HW166102  11.462   2.302  11.687  0.2076  0.7025 -0.3705
52954SOL    HW266103  11.481   2.397  11.803 -1.3452  0.7041 -0.0888
52955SOL     OW66104   6.948   9.636   6.949 -0.0095 -0.0125  0.1000
52955SOL    HW166105   6.993   9.612   6.869 -1.1311 -1.4848 -0.1265
52955SOL    HW266106   6.873   9.689   6.920 -0.1756 -0.1842  0.2164
52956SOL     OW66107   7.041  11.053  10.368  0.2797  0.2709 -0.2634
52956SOL    HW166108   6.954  11.057  10.408 -0.8540  3.5307 -2.5929
52956SOL    HW266109   7.028  11.002  10.288  0.6809  0.1374 -0.2445
52957SOL     OW66110   7.351   2.958   7.229 -0.5618 -0.0280  0.2993
52957SOL    HW166111   7.260   2.949   7.258 -0.3204  0.6746  1.3432
52957SOL    HW266112   7.350   3.034   7.170 -0.4767  0.7361  1.2424
52958SOL     OW66113   9.322   5.140   0.164  0.2751 -0.3091  0.1016
52958SOL    HW166114   9.281   5.065   0.209 -0.6929 -0.5502 -1.1219
52958SOL    HW266115   9.269   5.151   0.085  0.5387  1.5518  0.1556
52959SOL     OW66116  11.603   0.843   3.142 -0.6413  0.3584  0.1168
52959SOL    HW166117  11.698   0.855   3.147 -0.7718  2.1186 -0.9392
52959SOL    HW266118  11.591   0.757   3.103  0.5270  0.4152 -0.3799
52960SOL     OW66119   2.362   7.923   6.891 -0.1564 -0.4119 -0.0234
52960SOL    HW166120   2.415   8.002   6.905 -0.1887 -0.6389  1.5875
52960SOL    HW266121   2.281   7.955   6.851 -0.4888  0.5041  1.2956
52961SOL     OW66122   5.287   4.335   7.590 -0.0959  0.0221  0.1282
52961SOL    HW166123   5.342   4.287   7.528  0.0766  0.4249 -0.0376
52961SOL    HW266124   5.202   4.342   7.547 -0.0858 -0.0289  0.1007
52962SOL     OW66125   6.592  12.325   9.416  0.1105 -0.3615 -0.5387
52962SOL    HW166126   6.557  12.406   9.379 -0.0984 -0.0318  0.3464
52962SOL    HW266127   6.676  12.350   9.454 -0.2817 -0.3892  0.3729
52963SOL     OW66128   7.310  11.102   1.205  0.3052 -0.1940  0.1381
52963SOL    HW166129   7.380  11.091   1.140  1.1170  0.1143  0.9548
52963SOL    HW266130   7.252  11.168   1.166  0.4136 -0.5084 -0.5768
52964SOL     OW66131  10.312   8.946   0.640  0.4283 -0.4991 -0.0922
52964SOL    HW166132  10.281   9.008   0.705  0.5887 -1.5763  1.0583
52964SOL    HW266133  10.398   8.980   0.613  1.2321 -0.9932  1.6870
52965SOL     OW66134   2.212   1.150   6.341  1.0095 -0.8918 -0.3442
52965SOL    HW166135   2.268   1.215   6.299  2.0313 -1.2777  0.3986
52965SOL    HW266136   2.272   1.091   6.386  0.0097 -1.3592  0.4168
52966SOL     OW66137  10.237   7.897   5.256  0.5044 -0.4011  0.3389
52966SOL    HW166138  10.224   7.924   5.165 -0.1652  1.2114  0.8618
52966SOL    HW266139  10.158   7.848   5.278  0.4928 -0.4638  0.1560
52967SOL     OW66140   9.195   8.268   4.729  0.6877 -0.0631  0.8175
52967SOL    HW166141   9.265   8.276   4.664  1.6725 -0.3800  1.8005
52967SOL    HW266142   9.170   8.358   4.748 -1.5383  0.0337 -1.9408
52968SOL     OW66143  11.340   1.497  11.580 -0.5842  0.1154 -0.1003
52968SOL    HW166144  11.290   1.574  11.553 -0.6067 -0.5587 -2.1360
52968SOL    HW266145  11.308   1.427  11.524  2.7629 -0.3261 -1.6831
52969SOL     OW66146   7.945   0.289   7.376  0.0225 -0.2970 -0.5210
52969SOL    HW166147   7.877   0.277   7.442 -0.5848  2.1322 -0.5962
52969SOL    HW266148   7.992   0.367   7.405  1.6863 -0.9194 -1.4119
52970SOL     OW66149   9.632   0.779   2.452 -0.0453 -0.3609  0.4332
52970SOL    HW166150   9.666   0.800   2.539 -2.5286  1.4207  1.0849
52970SOL    HW266151   9.629   0.863   2.407 -2.8878 -0.4812  0.2447
52971SOL     OW66152   0.139   2.909   1.111 -0.3464  0.2126 -0.3951
52971SOL    HW166153   0.140   2.827   1.062 -0.8874  1.0053 -1.7814
52971SOL    HW266154   0.219   2.907   1.163 -0.4193 -1.2450 -0.2766
52972SOL     OW66155   1.712   8.298   9.952  0.1303  0.1886  0.0801
52972SOL    HW166156   1.774   8.321  10.021  0.1289 -0.2866  0.2454
52972SOL    HW266157   1.735   8.355   9.879 -0.2169  1.0791  0.6509
52973SOL     OW66158   7.731   6.575   6.834  0.1708  0.4410 -0.3387
52973SOL    HW166159   7.741   6.487   6.870  1.8656 -0.2305 -2.2353
52973SOL    HW266160   7.808   6.622   6.865 -1.1355  1.5730  1.3366
52974SOL     OW66161   2.188   5.642   4.976 -0.3989  0.4524  0.1994
52974SOL    HW166162   2.238   5.698   4.917  1.4098 -0.4138  0.8126
52974SOL    HW266163   2.174   5.561   4.926  0.0858  0.1666  0.5123
52975SOL     OW66164   1.449   6.415   3.527 -0.4194  0.4057 -0.2960
52975SOL    HW166165   1.411   6.330   3.505  0.4346 -0.7390  2.2520
52975SOL    HW266166   1.529   6.393   3.575  0.3450  2.6831 -0.4277
52976SOL     OW66167   1.261   5.878   3.211  0.3351 -0.1872 -0.3063
52976SOL    HW166168   1.287   5.925   3.290 -2.9415  1.4104  0.0301
52976SOL    HW266169   1.281   5.939   3.140 -0.0231 -0.0456 -0.2925
52977SOL     OW66170   4.911   1.515   3.427  0.1112  0.5003  0.3254
52977SOL    HW166171   4.870   1.601   3.432  0.9489  0.8329  2.2888
52977SOL    HW266172   4.998   1.527   3.466  1.2117 -0.7121 -1.5818
52978SOL     OW66173   0.639   0.035   1.628  0.4652  0.2150 -0.3258
52978SOL    HW166174   0.560   0.009   1.675  0.5183 -0.2839 -0.5051
52978SOL    HW266175   0.638   0.131   1.631  0.4596  0.2023  0.6727
52979SOL     OW66176   3.984   8.300   3.804 -0.3632 -0.4512  0.4662
52979SOL    HW166177   3.940   8.236   3.861  0.0712 -0.9377  0.2566
52979SOL    HW266178   4.064   8.256   3.775 -0.3747 -0.0486 -0.1946
52980SOL     OW66179  12.167  12.152   4.299  0.0274  0.2264  0.1719
52980SOL    HW166180  12.261  12.169   4.307 -0.2882  3.6083 -1.5727
52980SOL    HW266181  12.131  12.175   4.385  0.6188  0.5299  0.3434
52981SOL     OW66182   7.521   1.565  10.093 -0.5068  0.3114  0.4784
52981SOL    HW166183   7.513   1.639  10.034 -1.2194 -0.1478 -0.0091
52981SOL    HW266184   7.476   1.593  10.173 -0.0520  0.7085  0.6020
52982SOL     OW66185   4.202  10.027  10.201  0.3040  0.4767  0.0053
52982SOL    HW166186   4.138  10.057  10.265  0.6873  2.6856 -0.5902
52982SOL    HW266187   4.150  10.004  10.124  0.0078 -0.5721  0.4876
52983SOL     OW66188   5.219   0.298   3.340 -0.1735 -0.4198  0.0602
52983SOL    HW166189   5.187   0.312   3.429 -1.1300 -0.1427 -0.3161
52983SOL    HW266190   5.277   0.222   3.347 -2.7927 -2.5266  0.3688
52984SOL     OW66191   4.953  12.324   6.847 -0.2370  0.7485  0.4532
52984SOL    HW166192   4.913  12.272   6.778  3.1590 -3.3055  1.1183
52984SOL    HW266193   5.040  12.346   6.813 -0.3018  3.0813  1.6170
52985SOL     OW66194   1.684   2.105   5.655 -0.0858 -0.7138  0.2447
52985SOL    HW166195   1.615   2.135   5.714 -0.1385 -0.7953  0.2233
52985SOL    HW266196   1.749   2.175   5.659 -0.8700  0.1199 -0.9337
52986SOL     OW66197   6.657   2.249  12.277 -0.0358  0.0165  0.4189
52986SOL    HW166198   6.649   2.166  12.230 -2.2555 -0.4277  1.4472
52986SOL    HW266199   6.633   2.228  12.367 -0.8115  1.8053  0.6691
52987SOL     OW66200   5.493   6.984  11.924 -0.3448  0.3439  0.3612
52987SOL    HW166201   5.409   6.938  11.927 -0.0642 -0.2732 -0.7787
52987SOL    HW266202   5.469   7.077  11.923 -0.9835  0.1917  0.9068
52988SOL     OW66203   5.831   1.249   6.422 -0.4374 -0.1832  0.0968
52988SOL    HW166204   5.919   1.287   6.424 -1.5667  2.7835 -0.4774
52988SOL    HW266205   5.816   1.220   6.512  0.9407 -0.2851  0.3165
52989SOL     OW66206   8.499  11.555   5.089 -0.3229  0.1664  0.1595
52989SOL    HW166207   8.443  11.478   5.090  0.9221 -0.8906 -2.4135
52989SOL    HW266208   8.526  11.567   5.180 -2.3753 -1.0079  0.9751
52990SOL     OW66209   7.609  10.341  10.504  0.5462  0.2114 -0.1886
52990SOL    HW166210   7.691  10.389  10.496  0.4752  0.1442 -1.4979
52990SOL    HW266211   7.616  10.271  10.439 -0.7226  0.4705 -0.6297
52991SOL     OW66212   8.617   4.045   9.185  0.1637  0.1606 -0.2936
52991SOL    HW166213   8.707   4.063   9.210 -0.3786  1.8286  0.6175
52991SOL    HW266214   8.587   3.981   9.250  0.6597 -0.3793 -0.5835
52992SOL     OW66215   2.726   5.565   1.139  0.1678 -0.1726  0.3133
52992SOL    HW166216   2.810   5.538   1.175  0.4480 -1.0851 -0.9399
52992SOL    HW266217   2.748   5.621   1.064 -0.4029  2.1793  1.8121
52993SOL     OW66218  10.677   6.093   7.545 -0.6559  0.1348  0.0764
52993SOL    HW166219  10.616   6.098   7.618  0.3235 -0.7508  0.9978
52993SOL    HW266220  10.756   6.054   7.583  0.3052  0.7792 -1.1864
52994SOL     OW66221  10.311   9.258   0.503 -0.3133 -0.1496  0.0822
52994SOL    HW166222  10.264   9.237   0.583  0.2718 -0.9203  0.2424
52994SOL    HW266223  10.270   9.203   0.436 -1.0589  0.7816 -0.2349
52995SOL     OW66224   6.334   7.642   4.552  0.8898 -0.2740  0.0004
52995SOL    HW166225   6.396   7.646   4.625  0.2596 -0.7805  0.5910
52995SOL    HW266226   6.255   7.602   4.591  0.2150  0.3134 -0.7326
52996SOL     OW66227   6.423   7.618   4.270  1.1148  0.3398  0.4025
52996SOL    HW166228   6.363   7.616   4.345 -0.2998  3.2890 -0.4721
52996SOL    HW266229   6.366   7.638   4.195  2.9074  0.9607 -0.8541
52997SOL     OW66230  12.334   9.918   8.384 -0.7261 -0.0686  0.2499
52997SOL    HW166231  12.409   9.861   8.368  0.5865  1.7363 -0.3917
52997SOL    HW266232  12.373  10.002   8.412 -2.5694  0.4490  1.5007
52998SOL     OW66233   8.505  11.821   0.834 -0.6006  0.1274  0.6651
52998SOL    HW166234   8.516  11.748   0.773 -3.9337 -0.2960  0.4106
52998SOL    HW266235   8.477  11.894   0.779 -0.5025  0.6795  1.3350
52999SOL     OW66236   8.167   6.768   6.721 -0.6336 -0.1975 -0.5649
52999SOL    HW166237   8.205   6.731   6.801  0.9972  0.1527 -1.1296
52999SOL    HW266238   8.214   6.724   6.650 -2.3424 -0.8137 -1.3784
53000SOL     OW66239   9.105   0.295   8.345  0.3359 -0.1960  0.6402
53000SOL    HW166240   9.180   0.352   8.362  0.4584  0.2987 -1.2568
53000SOL    HW266241   9.043   0.352   8.299  1.3266 -1.9966 -3.2959
53001SOL     OW66242   6.499   2.391   7.446 -0.1611  0.0576 -0.2107
53001SOL    HW166243   6.441   2.381   7.371 -0.1368  1.0555 -0.3814
53001SOL    HW266244   6.580   2.348   7.420 -1.0221 -1.9556  0.2945
53002SOL     OW66245  10.436   3.589   4.869 -0.1358  0.2817 -0.3503
53002SOL    HW166246  10.523   3.629   4.872  0.4025 -0.8167 -0.6828
53002SOL    HW266247  10.377   3.662   4.852  0.8144  0.9177 -1.0602
53003SOL     OW66248   7.962   4.541   1.950  0.0561  0.3365 -0.1891
53003SOL    HW166249   7.972   4.591   1.870 -0.8974  0.5023 -0.2125
53003SOL    HW266250   7.979   4.604   2.020  1.1026  0.1416 -0.2469
53004SOL     OW66251   3.958   9.455   0.096 -0.0383 -0.2609  0.3523
53004SOL    HW166252   4.045   9.448   0.057  0.1560 -0.2754  0.7780
53004SOL    HW266253   3.897   9.443   0.023  0.3188 -0.0290  0.0181
53005SOL     OW66254  12.686   4.216   8.645  0.1859  0.1723  0.3320
53005SOL    HW166255  12.640   4.148   8.695 -0.1371 -0.8113 -1.1975
53005SOL    HW266256  12.772   4.179   8.627  0.8184  1.1170  1.3670
53006SOL     OW66257   5.295   5.303   7.118  0.2128 -0.4169  0.1945
53006SOL    HW166258   5.279   5.396   7.132  2.6768  0.2700 -0.9618
53006SOL    HW266259   5.319   5.269   7.205 -3.7443 -0.8568  1.3502
53007SOL     OW66260   2.130   9.167   1.333 -0.1871 -0.3263  0.1574
53007SOL    HW166261   2.053   9.219   1.312 -0.0837 -0.5632 -0.8698
53007SOL    HW266262   2.159   9.131   1.249  1.9075  0.9285  0.2619
53008SOL     OW66263  10.323  10.578   3.793 -0.6600 -0.3258  0.2953
53008SOL    HW166264  10.299  10.511   3.857 -1.3105 -0.0079  0.3908
53008SOL    HW266265  10.419  10.580   3.795 -0.6718 -0.3924  1.1890
53009SOL     OW66266   9.099   7.829   4.518  0.2317  0.3816  0.5210
53009SOL    HW166267   9.048   7.849   4.440 -0.3750 -0.3289  0.7240
53009SOL    HW266268   9.033   7.808   4.584  0.7533  0.5658  1.1089
53010SOL     OW66269   9.219   0.580  12.191  0.2081  0.1947 -0.1285
53010SOL    HW166270   9.207   0.675  12.187  0.9608  0.2645 -0.9118
53010SOL    HW266271   9.231   0.562  12.284  0.2424  0.8908  0.0110
53011SOL     OW66272   5.289   7.180   3.548 -0.4881 -0.2104 -0.3013
53011SOL    HW166273   5.297   7.170   3.642 -0.2095  0.0093 -0.3022
53011SOL    HW266274   5.249   7.098   3.518 -0.6279 -0.2563  0.0123
53012SOL     OW66275   1.992   5.966   4.242 -0.0507 -0.1129 -0.2713
53012SOL    HW166276   1.960   6.038   4.187  1.1652  0.3783 -0.3563
53012SOL    HW266277   2.053   6.007   4.302  0.6384 -1.0705 -0.3001
53013SOL     OW66278   6.484   7.397   2.345  0.4092 -0.1208  0.2814
53013SOL    HW166279   6.452   7.462   2.283 -2.2706 -1.2017  0.4062
53013SOL    HW266280   6.492   7.316   2.294 -2.5434 -1.2191  1.3195
53014SOL     OW66281  12.495   7.997   0.920 -0.4092 -0.2280  0.7191
53014SOL    HW166282  12.535   7.921   0.877 -0.4966  0.6456 -0.9934
53014SOL    HW266283  12.400   7.980   0.915 -0.4476  0.2107 -0.1030
53015SOL     OW66284   3.111   0.542   6.650  0.3061 -0.0794  0.5028
53015SOL    HW166285   3.047   0.506   6.588  0.5869  0.3583 -0.0460
53015SOL    HW266286   3.136   0.626   6.613  0.8430 -0.0295  0.9684
53016SOL     OW66287  11.460   1.046   4.940  0.2509 -0.1424 -0.2963
53016SOL    HW166288  11.379   1.012   4.979  0.6604 -1.5702 -0.6416
53016SOL    HW266289  11.522   0.973   4.946  2.0059  1.3563  1.3040
53017SOL     OW66290   6.466   8.478  10.234  0.3543 -0.5575 -0.3702
53017SOL    HW166291   6.414   8.531  10.173  1.0134 -1.1651 -1.4876
53017SOL    HW266292   6.543   8.452  10.184  0.7334 -1.3976  0.6142
53018SOL     OW66293   8.845  11.378  11.418  0.1486 -0.3200 -0.7176
53018SOL    HW166294   8.819  11.354  11.507  1.9564 -0.4618 -0.1696
53018SOL    HW266295   8.775  11.344  11.362  0.0399 -2.2472  0.4680
53019SOL     OW66296   3.866   2.196   7.824  0.3429 -0.2981 -0.0053
53019SOL    HW166297   3.820   2.261   7.878  0.5140  0.4687 -0.7587
53019SOL    HW266298   3.923   2.248   7.767  4.1984 -1.2286  2.5790
53020SOL     OW66299   0.855   4.525  10.840  0.0133  0.2005 -0.8613
53020SOL    HW166300   0.814   4.499  10.758 -0.3703  0.8542 -0.8900
53020SOL    HW266301   0.937   4.476  10.843  0.0502  0.1953 -1.6550
53021SOL     OW66302   0.582   1.408  12.013  0.1930 -0.5390  0.2810
53021SOL    HW166303   0.513   1.341  12.009  1.8846 -2.4192  1.0097
53021SOL    HW266304   0.535   1.488  12.036 -2.1015 -1.1365 -1.8893
53022SOL     OW66305  11.619   9.074   8.620  0.2200 -0.1477  0.1955
53022SOL    HW166306  11.710   9.085   8.648  0.0155  2.9000 -0.0143
53022SOL    HW266307  11.569   9.079   8.701  0.1462 -0.0948  0.1465
53023SOL     OW66308   0.070   6.093   8.977 -0.0011 -0.0631  0.0325
53023SOL    HW166309   0.099   6.151   8.907  0.3883 -1.1278 -0.7136
53023SOL    HW266310   0.088   6.142   9.058 -0.0598  0.9993 -0.5756
53024SOL     OW66311   9.317  10.236   8.652 -0.9349 -0.5334  0.3580
53024SOL    HW166312   9.389  10.230   8.714  2.2947 -0.0828 -2.9920
53024SOL    HW266313   9.279  10.322   8.666  0.5163  0.0348  0.9510
53025SOL     OW66314   7.011   1.326   9.817  0.4417 -0.1313  0.8187
53025SOL    HW166315   7.028   1.294   9.729  0.9837  0.2784  0.7699
53025SOL    HW266316   7.071   1.276   9.873  0.9250  0.4088  0.8047
53026SOL     OW66317  10.120   3.855  11.014  0.2041  0.3637  0.0368
53026SOL    HW166318  10.049   3.803  11.052  0.1004  0.7890  0.4251
53026SOL    HW266319  10.087   3.884  10.929 -0.1224  0.6360  0.2565
53027SOL     OW66320  10.716   6.679   9.243  0.3725 -0.5239 -0.0742
53027SOL    HW166321  10.637   6.722   9.275  0.8935  0.1995  0.2784
53027SOL    HW266322  10.709   6.589   9.273 -0.2626 -0.4312  0.0572
53028SOL     OW66323   4.130   8.635   0.105  1.1218 -0.4224 -0.6439
53028SOL    HW166324   4.110   8.546   0.134  0.4082 -0.1327 -0.2094
53028SOL    HW266325   4.047   8.668   0.070  1.1586  0.3538 -0.0392
53029SOL     OW66326   2.938   7.408  11.412  0.2380 -0.2554 -0.4849
53029SOL    HW166327   2.889   7.349  11.356 -0.5609 -0.5958  0.5325
53029SOL    HW266328   2.872   7.444  11.472  1.0181  0.2761  0.0768
53030SOL     OW66329  11.776   1.844   4.605 -0.0376 -0.1308  0.5901
53030SOL    HW166330  11.865   1.876   4.614 -0.1501  0.5724 -0.5124
53030SOL    HW266331  11.782   1.774   4.540 -0.5108  1.1616 -0.9284
53031SOL     OW66332   4.950   2.272   3.203 -0.1750  0.4899  0.0497
53031SOL    HW166333   5.042   2.286   3.227 -0.1402  0.8791 -0.2903
53031SOL    HW266334   4.922   2.356   3.166 -0.9447  0.6680  1.0019
53032SOL     OW66335   3.645   7.662   1.772  0.1519 -0.1998  0.2988
53032SOL    HW166336   3.724   7.617   1.804 -0.8351 -1.1576  1.5120
53032SOL    HW266337   3.595   7.682   1.852 -0.7118  0.6306 -0.4285
53033SOL     OW66338   2.309   5.996   2.676 -0.4243 -0.2130 -0.4571
53033SOL    HW166339   2.228   5.947   2.687 -0.4688 -0.4758 -1.7888
53033SOL    HW266340   2.326   6.034   2.762 -0.6019 -2.2279  0.5277
53034SOL     OW66341   3.854  12.533   4.020  0.2086 -0.3425 -0.1047
53034SOL    HW166342   3.833  12.441   4.033 -0.1956  0.0223  2.2737
53034SOL    HW266343   3.779  12.580   4.056  1.2303  0.9054  0.4804
53035SOL     OW66344   3.960   9.312   6.152  0.4213  0.2194 -0.1946
53035SOL    HW166345   4.045   9.347   6.178 -0.6096  3.2830 -0.5894
53035SOL    HW266346   3.976   9.269   6.068  1.5581  0.7689 -0.2675
53036SOL     OW66347   2.281   7.424   2.274 -0.2689 -0.0312  0.1550
53036SOL    HW166348   2.353   7.426   2.211 -0.0333 -0.5788  0.4022
53036SOL    HW266349   2.267   7.331   2.291  1.0591  0.1104  2.4847
53037SOL     OW66350   2.298   7.151  12.374 -0.2015 -0.8267  0.0082
53037SOL    HW166351   2.349   7.116  12.447  3.1768  1.3801 -1.0473
53037SOL    HW266352   2.353   7.137  12.297 -2.2327 -0.2720 -1.6370
53038SOL     OW66353  10.196   8.437   9.915  0.2179 -0.0459  0.3842
53038SOL    HW166354  10.137   8.367   9.944  0.3772  0.0439  0.9283
53038SOL    HW266355  10.222   8.482   9.995 -0.6314  1.2504 -0.0258
53039SOL     OW66356   0.181   5.251   5.905 -0.0282  0.0177 -0.7661
53039SOL    HW166357   0.098   5.282   5.870 -0.0418  0.6712 -0.1826
53039SOL    HW266358   0.162   5.229   5.996  0.6415  1.1589 -0.3199
53040SOL     OW66359  11.748   6.629  12.489 -0.1300 -0.3914 -0.2293
53040SOL    HW166360  11.791   6.591  12.565 -1.4109 -1.4298  0.0143
53040SOL    HW266361  11.775   6.575  12.415  1.1025  0.6084 -0.5489
53041SOL     OW66362   4.661   5.723   8.758  0.1151  0.1844 -0.4729
53041SOL    HW166363   4.635   5.745   8.847  0.9235  0.8340 -0.3861
53041SOL    HW266364   4.631   5.796   8.704  1.8933  1.0824 -0.3327
53042SOL     OW66365  11.698  10.289   4.066  0.3969  0.8588 -0.2277
53042SOL    HW166366  11.756  10.329   4.003 -0.4269 -0.1168 -1.6701
53042SOL    HW266367  11.645  10.361   4.100  0.6525  1.3632 -0.8812
53043SOL     OW66368  10.349  10.756  11.279 -0.0045 -0.9346  0.0908
53043SOL    HW166369  10.382  10.845  11.296 -2.0852 -0.0107 -0.4274
53043SOL    HW266370  10.397  10.728  11.201  1.0656 -0.5018  0.5652
53044SOL     OW66371   2.224   8.524   4.905  0.2496 -0.6336 -0.1820
53044SOL    HW166372   2.260   8.497   4.989  0.4633  1.1792  0.3584
53044SOL    HW266373   2.296   8.568   4.861 -0.2926 -0.1840 -0.6435
53045SOL     OW66374   4.851  10.914   7.456  0.2355  0.3147  0.2347
53045SOL    HW166375   4.897  10.831   7.443 -1.0528 -1.0646  3.4692
53045SOL    HW266376   4.911  10.980   7.423  1.7307 -1.7917 -1.5952
53046SOL     OW66377  11.232   9.260  10.584 -0.7577 -0.1209  0.2931
53046SOL    HW166378  11.219   9.275  10.677 -0.1505 -1.9700  0.7195
53046SOL    HW266379  11.232   9.348  10.545  0.5703  0.8264  2.2513
53047SOL     OW66380   6.990   0.229   4.363 -0.0447  0.6915 -0.5954
53047SOL    HW166381   7.034   0.148   4.338 -1.7087  0.5715 -3.5645
53047SOL    HW266382   7.024   0.248   4.451  1.3187 -2.5107 -0.2783
53048SOL     OW66383   8.747  10.628   6.614  0.8117 -0.3762 -0.2484
53048SOL    HW166384   8.757  10.626   6.519  0.5569  1.1298 -0.3323
53048SOL    HW266385   8.657  10.599   6.630  0.1992  1.2072 -0.6325
53049SOL     OW66386   8.067   1.612  10.263 -0.5212 -0.0306 -0.1738
53049SOL    HW166387   8.117   1.603  10.182 -0.0344  0.5132  0.0653
53049SOL    HW266388   8.131   1.636  10.329 -1.2054  1.4560 -0.0221
53050SOL     OW66389   5.921  12.455  10.387 -0.0567  0.0219  0.6778
53050SOL    HW166390   5.873  12.513  10.445  0.4638 -0.1193  1.2560
53050SOL    HW266391   5.857  12.429  10.320 -0.4839  0.6782  0.8263
53051SOL     OW66392  11.281  10.174   3.535  0.2278 -0.2242 -0.1482
53051SOL    HW166393  11.188  10.156   3.529 -0.1415  1.7530 -1.2999
53051SOL    HW266394  11.292  10.213   3.622 -1.0344  4.0470 -1.6390
53052SOL     OW66395   9.654   3.561  12.219 -0.0064 -0.4246 -0.3583
53052SOL    HW166396   9.638   3.629  12.284  1.5229 -0.8128  0.4852
53052SOL    HW266397   9.740   3.583  12.183  0.5371 -1.9112 -0.0348
53053SOL     OW66398   0.617   9.012   9.721 -0.1499 -0.2849  0.2918
53053SOL    HW166399   0.619   8.994   9.815  2.2662 -1.5242  0.0695
53053SOL    HW266400   0.709   9.020   9.696 -0.7580  0.5123 -1.9045
53054SOL     OW66401   7.845  12.254   0.307  0.0089 -0.7984  0.2714
53054SOL    HW166402   7.831  12.191   0.236  0.4777 -0.1047 -0.4622
53054SOL    HW266403   7.940  12.270   0.305 -0.3112  1.3463 -0.8338
53055SOL     OW66404  11.164   4.343  10.565  0.0782  0.1249  0.0456
53055SOL    HW166405  11.116   4.426  10.561 -0.2990 -0.1424 -1.9951
53055SOL    HW266406  11.248   4.366  10.605  0.1353  1.5853 -0.8260
53056SOL     OW66407   8.974  11.082   0.621 -1.1379 -0.2090  0.4331
53056SOL    HW166408   9.020  11.021   0.563 -2.1083  0.9678 -1.6840
53056SOL    HW266409   9.032  11.158   0.626 -0.9408 -0.4088  1.2383
53057SOL     OW66410   1.832   5.588   2.321  0.5778 -0.1047 -0.5817
53057SOL    HW166411   1.820   5.496   2.345  1.8948 -0.0375  0.4795
53057SOL    HW266412   1.745   5.627   2.331  0.2786 -0.9519  0.3014
53058SOL     OW66413  12.697   7.078   7.032  0.3861 -0.3763  0.2627
53058SOL    HW166414  12.616   7.127   7.042  0.8001  0.2155  0.7552
53058SOL    HW266415  12.751   7.133   6.975 -0.0696 -1.4089 -1.2174
53059SOL     OW66416   9.356   3.020   8.172  0.4013 -0.0559  0.3557
53059SOL    HW166417   9.403   3.077   8.110 -1.5053  1.7296  0.4232
53059SOL    HW266418   9.410   3.022   8.251  1.3814  0.0383 -0.2908
53060SOL     OW66419   3.260   3.763   8.049  0.2591  0.2713 -0.2804
53060SOL    HW166420   3.237   3.790   7.960  0.0147  1.3953  0.1152
53060SOL    HW266421   3.270   3.845   8.097  0.5296 -0.3266  0.6960
53061SOL     OW66422   7.048   9.360  12.551  0.0539  0.0818  0.0443
53061SOL    HW166423   7.053   9.352  12.646  1.8391 -1.2469 -0.1021
53061SOL    HW266424   6.988   9.290  12.524 -0.9543  0.8582  0.2000
53062SOL     OW66425   6.765   1.044   8.059  0.2217  0.3015  0.2791
53062SOL    HW166426   6.821   1.092   8.119  2.1709 -0.5632 -0.7636
53062SOL    HW266427   6.824   1.011   7.991 -1.6632 -0.0308 -1.3082
53063SOL     OW66428   2.329   4.446  11.045 -0.2842 -0.0835 -0.1766
53063SOL    HW166429   2.238   4.456  11.071 -0.2098  0.9125 -0.2614
53063SOL    HW266430   2.347   4.353  11.056 -0.7885 -0.0081  1.5571
53064SOL     OW66431   2.207  10.967   9.326  0.3463  0.4651 -0.2173
53064SOL    HW166432   2.219  10.963   9.421 -0.8845  2.3741  0.0698
53064SOL    HW266433   2.112  10.970   9.314  0.3361 -2.1811 -1.6993
53065SOL     OW66434   9.104   8.686   6.525  0.5689 -0.3596 -0.0744
53065SOL    HW166435   9.059   8.747   6.585  2.4296 -0.0471  1.0753
53065SOL    HW266436   9.089   8.600   6.564  1.5492 -0.1827  0.7519
53066SOL     OW66437   8.363   7.211  12.310  0.3067  0.6623  0.8726
53066SOL    HW166438   8.443   7.181  12.267 -0.6660  1.5027 -1.7114
53066SOL    HW266439   8.357   7.303  12.287 -1.2201  0.6974  1.3218
53067SOL     OW66440   1.217   9.470  12.605  0.4187 -0.1096 -0.0076
53067SOL    HW166441   1.291   9.417  12.635 -0.7521 -1.7512  0.0532
53067SOL    HW266442   1.209   9.539  12.671  2.1762  0.4194 -0.2694
53068SOL     OW66443   7.444   1.210   0.541 -0.0056 -0.1678 -0.1699
53068SOL    HW166444   7.489   1.165   0.613  1.8330  0.3568 -0.9287
53068SOL    HW266445   7.414   1.292   0.579  0.0920 -0.3184  0.2414
53069SOL     OW66446   8.510   2.201  11.186  0.6892 -0.6053  0.2985
53069SOL    HW166447   8.456   2.132  11.148  0.4904  0.6022 -1.7244
53069SOL    HW266448   8.476   2.211  11.275 -0.5606 -1.7766 -0.0123
53070SOL     OW66449   7.635   0.631   0.375  0.1507  0.1267 -0.9013
53070SOL    HW166450   7.672   0.647   0.288  2.1484 -2.9578 -0.7739
53070SOL    HW266451   7.558   0.578   0.358  0.8626 -0.9608 -0.8077
53071SOL     OW66452   6.498   5.180   0.853 -0.1944  0.5844 -0.2104
53071SOL    HW166453   6.408   5.160   0.826 -0.0214  1.7265 -1.7619
53071SOL    HW266454   6.507   5.274   0.839  0.3737  1.0499  2.6848
53072SOL     OW66455   7.489  11.297   3.729  0.5529  0.4006 -0.1157
53072SOL    HW166456   7.461  11.205   3.723  1.8845 -0.0182 -0.2449
53072SOL    HW266457   7.439  11.332   3.803 -0.7830 -0.1029 -0.7448
53073SOL     OW66458   3.195  12.592   8.580  0.3469 -0.1248  0.0290
53073SOL    HW166459   3.167  12.500   8.580 -0.2928  0.0658  0.4965
53073SOL    HW266460   3.219  12.610   8.489 -0.7194 -0.3922 -0.3170
53074SOL     OW66461   5.509   1.013   2.216 -0.3663  0.0792 -0.1503
53074SOL    HW166462   5.487   1.078   2.149 -1.2070 -2.2624 -2.3407
53074SOL    HW266463   5.424   0.976   2.241  0.2107 -1.5546 -0.5013
53075SOL     OW66464   6.881   5.306   6.804  0.1836 -0.1860  0.6753
53075SOL    HW166465   6.927   5.225   6.830  1.2415  0.4377  0.8151
53075SOL    HW266466   6.872   5.298   6.709  0.9449 -0.1568  0.5912
53076SOL     OW66467   4.716   3.617   1.454  0.3166 -0.0441 -0.0941
53076SOL    HW166468   4.696   3.647   1.543  0.0281 -1.9365  0.5087
53076SOL    HW266469   4.805   3.582   1.460 -0.1072 -1.1788 -0.2751
53077SOL     OW66470   7.749   9.517   5.880 -0.6421 -0.1097  0.1835
53077SOL    HW166471   7.670   9.569   5.864 -0.2989  0.6151  0.8183
53077SOL    HW266472   7.819   9.565   5.836 -0.6644 -1.1924 -1.1089
53078SOL     OW66473   3.494   3.636   0.895 -0.3444  0.0476  0.8211
53078SOL    HW166474   3.449   3.600   0.818 -1.1814 -0.9203  1.7218
53078SOL    HW266475   3.586   3.612   0.882 -0.6012 -0.8040  0.4833
53079SOL     OW66476   8.929   2.918   5.011 -0.1341  0.2359  0.2849
53079SOL    HW166477   8.975   2.907   4.928 -1.7879  1.6428 -0.8870
53079SOL    HW266478   8.850   2.865   5.002 -0.6773  0.9679  0.6619
53080SOL     OW66479  12.173   3.554  11.314 -0.7415  0.2444  0.3615
53080SOL    HW166480  12.140   3.644  11.324  0.2104  0.5058  1.3584
53080SOL    HW266481  12.174   3.539  11.220 -1.8458  0.9165  0.2186
53081SOL     OW66482  10.622   6.475   3.674 -0.0440  0.0739 -0.2675
53081SOL    HW166483  10.579   6.448   3.755  1.0206  0.6219  0.5111
53081SOL    HW266484  10.568   6.546   3.640 -1.8607 -1.7100 -1.3725
53082SOL     OW66485   4.583  12.119  10.642 -0.0334 -0.1311 -0.1379
53082SOL    HW166486   4.518  12.051  10.657  1.7774 -2.0332 -0.4335
53082SOL    HW266487   4.626  12.131  10.726 -0.6505  1.0556  0.0360
53083SOL     OW66488   0.990   6.114  10.131  0.4679  0.0819  0.2543
53083SOL    HW166489   0.928   6.187  10.128  0.7440  0.3988  1.6086
53083SOL    HW266490   1.055   6.136  10.065 -0.6755 -0.1067 -0.9847
53084SOL     OW66491   1.674   4.694  11.447  0.1540  0.0817  0.0267
53084SOL    HW166492   1.684   4.642  11.527  0.3721 -1.1703 -0.7878
53084SOL    HW266493   1.627   4.773  11.475  0.1922 -0.3551  1.3713
53085SOL     OW66494   2.807   4.584   5.585  0.2826 -0.4836  0.1084
53085SOL    HW166495   2.811   4.489   5.581  1.1943 -0.4618  0.1951
53085SOL    HW266496   2.716   4.606   5.562  0.3470 -1.3110 -1.0377
53086SOL     OW66497  11.415   1.568   9.122  0.5156 -0.1203 -0.0733
53086SOL    HW166498  11.428   1.515   9.201  1.4455  2.6936  1.7879
53086SOL    HW266499  11.503   1.579   9.086  0.1172 -1.2648 -1.5237
53087SOL     OW66500   6.820   3.192  11.818 -0.3888 -0.4758 -0.4539
53087SOL    HW166501   6.797   3.105  11.852  1.3885 -1.4402 -1.5850
53087SOL    HW266502   6.915   3.190  11.808 -0.4880  0.9503 -2.2228
53088SOL     OW66503  11.816   8.288   8.674  0.2461 -0.1861  0.0048
53088SOL    HW166504  11.779   8.339   8.746  1.9950 -0.3959  1.1224
53088SOL    HW266505  11.831   8.352   8.604 -1.4158  0.0299 -0.1920
53089SOL     OW66506   2.128   5.809   5.361  0.4523  0.0244 -0.1164
53089SOL    HW166507   2.040   5.803   5.396  0.2011 -0.0859 -0.7591
53089SOL    HW266508   2.153   5.901   5.372 -0.9344  0.8096 -2.7342
53090SOL     OW66509   6.374   5.690   4.917 -0.3867  0.1699  0.1040
53090SOL    HW166510   6.346   5.654   5.001 -1.3103  0.6283  0.0014
53090SOL    HW266511   6.461   5.727   4.935  0.1184 -1.1401  0.4542
53091SOL     OW66512   1.137  10.958   5.282 -0.2070  0.0553  0.5109
53091SOL    HW166513   1.193  11.018   5.332 -0.1853  0.3786  0.1034
53091SOL    HW266514   1.168  10.965   5.192 -0.4280 -0.3170  0.4039
53092SOL     OW66515   9.353   4.698   1.546  0.4335 -0.2630 -0.0064
53092SOL    HW166516   9.280   4.650   1.507 -0.7445  2.6101 -1.6951
53092SOL    HW266517   9.318   4.733   1.628  0.4540 -0.2529 -0.0020
53093SOL     OW66518   3.239  11.244   0.023 -0.1507  0.6765 -0.5449
53093SOL    HW166519   3.197  11.162  -0.003  0.0833  0.8236 -1.4192
53093SOL    HW266520   3.174  11.287   0.079 -0.3964  0.0380 -0.3317
53094SOL     OW66521   7.252   1.684   4.839  0.1589  0.2723 -0.1988
53094SOL    HW166522   7.157   1.696   4.837  0.2824  1.5124  0.4685
53094SOL    HW266523   7.264   1.590   4.849 -0.9694 -0.1072 -1.8322
53095SOL     OW66524   7.886   9.285  10.478  0.3185  0.3031 -0.3005
53095SOL    HW166525   7.879   9.231  10.400  0.5279  0.8360 -0.6943
53095SOL    HW266526   7.796   9.304  10.503  0.2380  1.5817 -1.4432
53096SOL     OW66527   3.031   8.717   9.225 -0.7593 -0.2368 -0.1690
53096SOL    HW166528   3.043   8.801   9.181 -0.6581  0.1188  0.5265
53096SOL    HW266529   3.108   8.666   9.201  1.3879  1.3509  2.7392
53097SOL     OW66530   1.289   6.451   5.673 -0.3719  0.0109  0.3422
53097SOL    HW166531   1.199   6.446   5.639 -0.2126 -0.6895 -0.0008
53097SOL    HW266532   1.342   6.472   5.597 -0.1782 -0.1156  0.4433
53098SOL     OW66533   4.432  12.694  10.048 -0.1035  0.2229  0.3983
53098SOL    HW166534   4.386  12.710   9.965  2.0184  1.9532 -0.5228
53098SOL    HW266535   4.437  12.779  10.090  2.0623  0.0734  0.5418
53099SOL     OW66536   6.658   6.622   6.559  0.1732 -0.2726 -0.5938
53099SOL    HW166537   6.636   6.538   6.599 -0.1310 -0.3348 -0.8795
53099SOL    HW266538   6.573   6.660   6.535  0.3226 -0.0057 -0.7128
53100SOL     OW66539   0.443   7.345   9.614  0.4659  0.5987 -0.0435
53100SOL    HW166540   0.353   7.376   9.622  0.5840  0.4807  2.0885
53100SOL    HW266541   0.495   7.410   9.660  1.6042  1.0307 -1.8344
53101SOL     OW66542   9.073   2.895  12.171  0.0784  0.0013  0.7806
53101SOL    HW166543   9.022   2.878  12.250  1.2415 -1.6252  1.2338
53101SOL    HW266544   9.049   2.825  12.110 -2.4502  2.3935 -1.2953
53102SOL     OW66545   2.277   2.052   5.253  0.1070  0.3610 -0.2723
53102SOL    HW166546   2.200   1.997   5.247 -0.4815  1.2598 -1.3558
53102SOL    HW266547   2.313   2.054   5.164 -0.7374  2.8417 -0.6532
53103SOL     OW66548   0.545  10.270   7.825  0.3324  0.1241 -0.3399
53103SOL    HW166549   0.461  10.236   7.795  0.6892 -0.1501 -1.0376
53103SOL    HW266550   0.533  10.365   7.828  0.3482  0.1725 -1.5446
53104SOL     OW66551  11.240  12.249   9.610 -0.2768 -0.2923 -0.0806
53104SOL    HW166552  11.328  12.217   9.630  0.1114  0.8361  0.1031
53104SOL    HW266553  11.182  12.196   9.664  0.5076  0.5813  1.7102
53105SOL     OW66554   9.244   4.042   8.769  0.4474 -0.1473 -0.4113
53105SOL    HW166555   9.170   4.043   8.710 -0.4155  1.4608  0.6102
53105SOL    HW266556   9.321   4.030   8.713 -0.5216 -1.2986 -1.5316
53106SOL     OW66557   8.635   7.295   7.073 -0.0929  0.6075  0.1853
53106SOL    HW166558   8.553   7.258   7.104  0.8077 -2.3772 -0.6261
53106SOL    HW266559   8.677   7.330   7.151 -1.7558  1.5199  0.7275
53107SOL     OW66560   4.159  10.656   5.556 -0.4684 -0.3395 -0.6011
53107SOL    HW166561   4.085  10.661   5.616 -0.0354  1.1391 -0.1369
53107SOL    HW266562   4.121  10.631   5.472 -1.3682 -0.3911 -0.1861
53108SOL     OW66563  11.391   8.333   3.796 -0.1450  0.3568  0.0744
53108SOL    HW166564  11.475   8.356   3.755  0.2171  0.6500  0.9526
53108SOL    HW266565  11.369   8.247   3.759  0.6155  0.2111 -0.0530
53109SOL     OW66566   9.800   0.491  11.615 -0.3649 -0.1863  0.1102
53109SOL    HW166567   9.854   0.515  11.690 -1.0505 -2.5250  1.4549
53109SOL    HW266568   9.825   0.401  11.595 -1.8678 -0.4058 -0.9469
53110SOL     OW66569   9.520   0.401   0.456 -0.3022  0.8542 -0.0843
53110SOL    HW166570   9.561   0.315   0.449  0.3254  1.1978 -0.6988
53110SOL    HW266571   9.581   0.461   0.414 -0.4745  1.6955  0.8147
53111SOL     OW66572   6.088   5.369   2.769  0.0239 -0.4218  0.1952
53111SOL    HW166573   6.090   5.455   2.728  2.3654 -0.4034  0.2082
53111SOL    HW266574   6.061   5.386   2.860 -0.6543  0.1363 -0.1095
53112SOL     OW66575   2.127  10.543   6.512  0.2247  0.0853 -0.1397
53112SOL    HW166576   2.150  10.587   6.430  0.7542  1.2262  0.5891
53112SOL    HW266577   2.141  10.610   6.579 -0.7229 -0.6597  0.8293
53113SOL     OW66578   1.557  10.800  11.124 -0.2773 -0.0953  0.2546
53113SOL    HW166579   1.526  10.889  11.107  1.1846  0.6503  1.2717
53113SOL    HW266580   1.609  10.807  11.204 -0.1330 -1.8768  0.3668
53114SOL     OW66581   3.490   0.553   1.910  0.3818  0.2129  0.3318
53114SOL    HW166582   3.510   0.465   1.877  0.3622  0.0989  0.6219
53114SOL    HW266583   3.395   0.555   1.916  0.4282 -0.1287  1.3562
53115SOL     OW66584  11.213  10.636  11.887  0.4562  0.3360 -0.1870
53115SOL    HW166585  11.281  10.575  11.861 -1.3448 -1.6884 -0.3759
53115SOL    HW266586  11.234  10.658  11.978  1.4409 -0.1164 -0.2987
53116SOL     OW66587   7.760   1.131  10.553 -0.5237 -0.2406 -0.4280
53116SOL    HW166588   7.801   1.052  10.518 -1.5100 -1.3782  0.8918
53116SOL    HW266589   7.833   1.183  10.586  0.0429 -1.3044  0.0557
53117SOL     OW66590   7.309   8.895   2.231 -0.8961  0.0915 -0.2026
53117SOL    HW166591   7.260   8.975   2.254 -0.0569  0.5408  0.0532
53117SOL    HW266592   7.381   8.927   2.176  1.6023  0.0403  2.7908
53118SOL     OW66593   4.590   1.793   3.472 -0.2961  0.2845  0.4438
53118SOL    HW166594   4.679   1.828   3.471 -0.2956  0.2786 -0.0066
53118SOL    HW266595   4.595   1.716   3.529  0.0322  0.1678  0.2622
53119SOL     OW66596   7.660   2.720  12.030  0.4522  1.0101  0.2099
53119SOL    HW166597   7.671   2.815  12.024  0.3258  1.0270  0.2319
53119SOL    HW266598   7.629   2.695  11.943 -1.4944  1.2692  0.7817
53120SOL     OW66599   3.454   4.344   7.298 -0.3293 -0.3094  0.2762
53120SOL    HW166600   3.501   4.378   7.222  0.7673 -0.1171  1.0054
53120SOL    HW266601   3.484   4.253   7.306  0.9574  0.1702  1.4739
53121SOL     OW66602   6.443   9.126  12.212 -0.3765  0.2111 -0.4210
53121SOL    HW166603   6.511   9.171  12.263 -0.5297 -1.3159  1.2562
53121SOL    HW266604   6.484   9.045  12.183 -0.4959  0.7795 -2.2614
53122SOL     OW66605   5.052  10.501   4.294 -0.0727  0.4230 -0.1688
53122SOL    HW166606   4.996  10.549   4.233 -0.4270  0.8389  0.4834
53122SOL    HW266607   5.018  10.521   4.380 -0.1022 -0.8481  0.1381
53123SOL     OW66608   0.343   1.495   7.262 -0.4428 -0.0511  0.8219
53123SOL    HW166609   0.299   1.535   7.187  0.8349 -1.7193 -0.9126
53123SOL    HW266610   0.297   1.530   7.338 -3.2512  0.0203 -0.7732
53124SOL     OW66611   3.923   6.799   3.877 -0.0136 -0.2772 -0.0313
53124SOL    HW166612   3.887   6.743   3.946 -1.4313 -0.6432 -1.0073
53124SOL    HW266613   4.017   6.785   3.881 -0.1683 -1.1720  1.0724
53125SOL     OW66614   1.600   1.016   7.376  0.7382  0.1549  0.2028
53125SOL    HW166615   1.684   1.024   7.330  0.3929  1.1251 -0.2888
53125SOL    HW266616   1.551   1.094   7.351 -0.6016 -0.7396 -0.0697
53126SOL     OW66617   9.507   1.322   0.364  0.2624 -0.1041 -0.5553
53126SOL    HW166618   9.460   1.269   0.428 -2.8964 -0.8245 -3.2030
53126SOL    HW266619   9.453   1.400   0.353 -0.5198 -0.9527 -3.7301
53127SOL     OW66620   5.080   9.389   1.725  0.0513 -0.8517  0.6060
53127SOL    HW166621   5.014   9.446   1.765  0.5267  0.8023 -0.8512
53127SOL    HW266622   5.157   9.398   1.782  0.6474  1.2969 -0.4365
53128SOL     OW66623   6.737  10.429   3.879  0.4431 -0.2497  0.6584
53128SOL    HW166624   6.804  10.397   3.820  0.1310 -0.6432  0.5100
53128SOL    HW266625   6.720  10.519   3.851  1.1655 -0.0255  0.9316
53129SOL     OW66626  11.248   6.818   5.632  0.0373  0.2895  0.0881
53129SOL    HW166627  11.276   6.731   5.659  0.5987  0.3359 -0.3158
53129SOL    HW266628  11.152   6.815   5.633 -0.1549 -1.6759 -3.9504
53130SOL     OW66629   7.111  12.604   9.303  0.1294 -0.2754  0.4459
53130SOL    HW166630   7.088  12.684   9.350  0.5147 -0.5945  1.2028
53130SOL    HW266631   7.175  12.632   9.238  0.1620  0.0576  0.6187
53131SOL     OW66632   7.780  12.535   3.664  0.0906  0.2069 -0.5169
53131SOL    HW166633   7.804  12.575   3.580 -0.1306 -1.3111 -1.3242
53131SOL    HW266634   7.827  12.452   3.666  1.0569  0.7482  1.4286
53132SOL     OW66635   7.155   6.481   4.981  0.1937  0.0693 -0.6307
53132SOL    HW166636   7.103   6.402   4.974 -1.0931  0.9679 -1.6532
53132SOL    HW266637   7.185   6.499   4.892  0.6814  0.5909 -0.3720
53133SOL     OW66638   8.418   6.168  10.194 -0.1551 -0.4796 -0.4511
53133SOL    HW166639   8.478   6.181  10.268 -0.8044 -0.6741  0.1212
53133SOL    HW266640   8.427   6.248  10.142  1.2669 -0.8853 -0.8731
53134SOL     OW66641   8.845   2.494   8.316  0.3003 -0.4448 -0.1730
53134SOL    HW166642   8.907   2.436   8.358 -0.1481  0.3983  1.7297
53134SOL    HW266643   8.792   2.436   8.260  0.8358 -1.6142  0.5022
53135SOL     OW66644  11.860   6.607   0.376 -0.2373  0.2577  0.5935
53135SOL    HW166645  11.852   6.512   0.381 -1.0957  0.3532  1.2624
53135SOL    HW266646  11.910   6.631   0.454 -1.1707  0.4598  1.1483
53136SOL     OW66647   6.787   9.083   3.234 -0.0290 -0.2419  0.1441
53136SOL    HW166648   6.808   9.142   3.162  0.4245  1.1244  1.3513
53136SOL    HW266649   6.871   9.042   3.256  0.0122  0.0170  0.4706
53137SOL     OW66650   6.679   6.903   8.647  0.3450 -0.6598  0.4305
53137SOL    HW166651   6.747   6.904   8.580 -0.8356 -0.1866 -0.8017
53137SOL    HW266652   6.669   6.995   8.673 -0.1294 -0.6675  0.2810
53138SOL     OW66653  10.209   7.034   3.211 -0.0383  0.3650  0.3318
53138SOL    HW166654  10.287   7.049   3.156  0.5601  1.5266  1.4275
53138SOL    HW266655  10.239   7.054   3.300 -0.3812 -3.4817  1.4803
53139SOL     OW66656  10.569   6.728   7.959  0.5014 -0.2695  0.0993
53139SOL    HW166657  10.635   6.689   8.017  0.5635  0.5919  0.6318
53139SOL    HW266658  10.487   6.719   8.007  0.6415  0.9847  0.6298
53140SOL     OW66659   7.400   5.254   9.187  0.2141 -0.4534  0.5580
53140SOL    HW166660   7.319   5.240   9.236 -0.0106  0.6455  0.5218
53140SOL    HW266661   7.382   5.219   9.100 -0.3975  0.1875  0.4124
53141SOL     OW66662  12.416  11.823   3.928 -0.6839 -0.0364  0.1152
53141SOL    HW166663  12.494  11.802   3.876 -0.5465  0.1416  0.2474
53141SOL    HW266664  12.435  11.909   3.966 -1.9305  1.1439 -1.7900
53142SOL     OW66665   7.429  11.783  10.456 -0.0709 -0.5139 -0.3193
53142SOL    HW166666   7.425  11.850  10.388 -1.0122 -1.2286 -1.0003
53142SOL    HW266667   7.406  11.702  10.411 -0.8762 -0.9852  0.8710
53143SOL     OW66668   8.450   5.869  11.785 -0.1871  0.7397 -0.7033
53143SOL    HW166669   8.430   5.909  11.701 -0.4038  0.7730 -0.6354
53143SOL    HW266670   8.539   5.899  11.805  0.3593 -0.2762 -1.5151
53144SOL     OW66671   8.998   5.691   4.397  0.2109  0.0262  0.4727
53144SOL    HW166672   9.019   5.721   4.309  1.5146 -1.8905  0.0533
53144SOL    HW266673   8.922   5.743   4.423 -0.2790  0.5765 -1.8154
53145SOL     OW66674   5.526   4.973  11.145  0.1496 -0.3602  0.1986
53145SOL    HW166675   5.449   4.954  11.091 -0.1467  1.5684 -0.1661
53145SOL    HW266676   5.590   5.007  11.082  1.6997 -2.8366  0.3512
53146SOL     OW66677   7.337   9.388   9.143  0.1788 -0.0159  0.1917
53146SOL    HW166678   7.290   9.468   9.165  2.3330  0.9444  1.6024
53146SOL    HW266679   7.418   9.393   9.193  0.9723 -2.4792 -0.6940
53147SOL     OW66680   3.169  11.423   0.491 -0.5333  0.2086 -0.2724
53147SOL    HW166681   3.136  11.510   0.469  0.1231  0.2934 -0.9821
53147SOL    HW266682   3.220  11.397   0.414  0.1999 -0.3312  0.3825
53148SOL     OW66683   5.748   3.561  12.629  0.6340  0.1740  0.3001
53148SOL    HW166684   5.818   3.530  12.686 -0.5950 -1.0317  1.2071
53148SOL    HW266685   5.750   3.501  12.554  1.6741  1.2192 -0.5511
53149SOL     OW66686   7.881   8.861  10.388 -0.1193 -0.2527 -0.0237
53149SOL    HW166687   7.881   8.901  10.475 -2.4293  0.8783 -0.4830
53149SOL    HW266688   7.914   8.929  10.330  0.4945 -0.6795 -0.1904
53150SOL     OW66689   2.839   1.671   9.665 -0.0525 -0.2419  0.6234
53150SOL    HW166690   2.814   1.645   9.754 -2.6055  0.1184  0.0920
53150SOL    HW266691   2.756   1.686   9.620  1.1315 -0.9050 -1.9965
53151SOL     OW66692   4.233   2.653  11.482 -0.2376  0.1126 -0.3091
53151SOL    HW166693   4.277   2.736  11.463 -1.4040  1.1849  1.3031
53151SOL    HW266694   4.156   2.679  11.534 -0.4705 -2.0108  0.4978
53152SOL     OW66695   7.650   1.637  11.346 -0.0765 -0.1772 -0.3243
53152SOL    HW166696   7.676   1.671  11.260 -0.1404  1.9004  0.4485
53152SOL    HW266697   7.690   1.696  11.409 -2.3373  0.0115  1.0305
53153SOL     OW66698   7.420   2.931   7.849 -0.4116 -0.6266  0.1538
53153SOL    HW166699   7.396   2.843   7.820 -1.3231  0.1413 -1.5487
53153SOL    HW266700   7.398   2.988   7.775  2.0125  0.8192  0.4354
53154SOL     OW66701   2.662   8.287  11.228  0.3331  0.0061 -0.2813
53154SOL    HW166702   2.713   8.366  11.247 -0.0650  0.3461 -0.6097
53154SOL    HW266703   2.600   8.314  11.160  0.7579 -0.8114 -1.0041
53155SOL     OW66704  10.579   6.330   6.761 -0.2869  0.5974 -0.5705
53155SOL    HW166705  10.500   6.347   6.711 -0.4901 -1.1638 -0.9298
53155SOL    HW266706  10.549   6.319   6.851 -0.6703 -1.2069 -0.8748
53156SOL     OW66707   0.570   1.703   7.455 -0.5776 -0.8035 -0.6255
53156SOL    HW166708   0.578   1.621   7.504  1.6712  1.5674  3.5654
53156SOL    HW266709   0.489   1.742   7.486 -0.8838 -0.7093 -1.4998
53157SOL     OW66710   5.184   3.098   4.939  0.5586  0.2332 -0.0597
53157SOL    HW166711   5.177   3.184   4.897 -2.3959  0.8659  1.4544
53157SOL    HW266712   5.188   3.117   5.033  0.8010 -1.2607  0.2600
53158SOL     OW66713   6.062   2.931   1.503  0.2215 -0.0314 -0.5097
53158SOL    HW166714   6.004   2.933   1.427 -0.9539  1.3241  0.3589
53158SOL    HW266715   6.004   2.908   1.576  1.0049  0.2847  0.2236
53159SOL     OW66716   4.280  11.843   3.519 -0.1105  1.0582 -0.7408
53159SOL    HW166717   4.207  11.904   3.512 -0.7919  0.2998 -0.4694
53159SOL    HW266718   4.349  11.893   3.561  0.0527  2.2261 -2.3024
53160SOL     OW66719   2.970   6.366   5.399 -0.1218 -0.2348  0.0281
53160SOL    HW166720   2.884   6.388   5.363 -0.3545  0.3972  0.9223
53160SOL    HW266721   3.004   6.299   5.341  0.1581  1.7777 -2.2568
53161SOL     OW66722   1.809   0.944   6.641  0.1170  0.5062  0.0685
53161SOL    HW166723   1.732   0.996   6.664 -0.4894  0.6701 -2.1140
53161SOL    HW266724   1.778   0.853   6.640 -0.3453  0.6587 -1.7856
53162SOL     OW66725   9.514   1.691   4.652  0.2766 -0.0565  0.3704
53162SOL    HW166726   9.565   1.653   4.580 -1.7975 -0.1096 -1.1761
53162SOL    HW266727   9.576   1.696   4.725  2.1904 -1.0134 -1.0768
53163SOL     OW66728  12.119   2.539   4.909  0.2329 -0.3000 -0.1506
53163SOL    HW166729  12.120   2.590   4.828  1.7534 -0.6750 -0.3972
53163SOL    HW266730  12.085   2.599   4.975  1.0746  0.7290 -0.6318
53164SOL     OW66731   3.963   7.781   4.635 -0.0170 -0.4647 -0.2485
53164SOL    HW166732   3.997   7.868   4.615  0.3298 -0.3533  0.7496
53164SOL    HW266733   3.874   7.781   4.599 -0.2203  0.4978  0.2235
53165SOL     OW66734  10.320   5.575   5.090  0.4410  0.7230 -1.0964
53165SOL    HW166735  10.402   5.599   5.046  0.5095  1.5407 -0.5234
53165SOL    HW266736  10.259   5.559   5.018  1.2584 -0.5538 -1.5579
53166SOL     OW66737   8.884   8.046   2.921  0.3669  0.2978 -0.1060
53166SOL    HW166738   8.875   8.116   2.987  0.8987  0.9246 -0.6793
53166SOL    HW266739   8.963   8.070   2.872  0.5767 -0.7366 -0.2874
53167SOL     OW66740  10.628  11.066   8.526  0.4465 -0.5898 -0.5076
53167SOL    HW166741  10.686  11.062   8.449 -0.2795 -1.0893 -1.0319
53167SOL    HW266742  10.662  10.999   8.585  1.2642  0.0756 -0.1981
53168SOL     OW66743  11.632   1.579   0.718  0.0543 -0.4101  0.0672
53168SOL    HW166744  11.623   1.593   0.624  0.8874 -0.5091 -0.0340
53168SOL    HW266745  11.676   1.495   0.726  3.3211  1.1668  0.3950
53169SOL     OW66746   9.810  10.383   6.072  0.2312  0.6229  0.1900
53169SOL    HW166747   9.880  10.407   6.132 -0.2186  1.3246  0.4472
53169SOL    HW266748   9.818  10.445   6.000  0.2197  0.3465 -0.0499
53170SOL     OW66749   3.757   7.023   2.817 -0.1395 -0.3647  0.3043
53170SOL    HW166750   3.792   6.972   2.890  0.6889 -0.9907 -0.5011
53170SOL    HW266751   3.811   6.997   2.742 -0.5698  0.7177 -0.4028
53171SOL     OW66752   2.851   3.262   3.901  0.1826 -0.2588  0.2145
53171SOL    HW166753   2.794   3.230   3.971 -0.0919  0.3536  0.2760
53171SOL    HW266754   2.820   3.351   3.884 -0.5209 -0.7878 -1.4760
53172SOL     OW66755   1.033   4.420   9.406  0.3637 -0.0432  0.0749
53172SOL    HW166756   1.069   4.380   9.485 -0.6181  0.4179  0.7802
53172SOL    HW266757   1.024   4.348   9.344 -0.5988 -0.7900  1.0444
53173SOL     OW66758   3.650   3.613   2.222  0.3434  0.3873 -0.0228
53173SOL    HW166759   3.623   3.657   2.302  1.0670  0.8089 -0.0039
53173SOL    HW266760   3.607   3.663   2.152 -0.7574 -0.3239  0.1030
53174SOL     OW66761   6.984  11.994   1.532 -0.4252 -0.2260 -0.1067
53174SOL    HW166762   6.988  12.009   1.627  3.3085 -0.2699 -0.0996
53174SOL    HW266763   6.959  12.079   1.496  0.4768  0.4755  0.8426
53175SOL     OW66764   7.921   7.914   6.573 -0.0220 -0.0358  0.5442
53175SOL    HW166765   7.973   7.982   6.531  1.0870 -0.6204  0.9310
53175SOL    HW266766   7.832   7.930   6.542  0.7097 -0.3897 -2.0035
53176SOL     OW66767   9.920  12.196   7.545 -0.6315 -0.7377 -0.0950
53176SOL    HW166768   9.976  12.273   7.534 -0.6516 -0.8836 -1.3491
53176SOL    HW266769   9.835  12.231   7.571 -0.0572 -0.4994  1.6138
53177SOL     OW66770   3.247   5.278   6.392 -0.4969  0.2421  0.7028
53177SOL    HW166771   3.153   5.276   6.372 -0.4705  1.3237  0.4111
53177SOL    HW266772   3.288   5.245   6.312 -0.5566  1.4939  0.1243
53178SOL     OW66773   3.977  12.627  11.730  0.4160  0.3832  0.5840
53178SOL    HW166774   4.036  12.702  11.722  1.9368 -0.8698 -0.4741
53178SOL    HW266775   3.942  12.613  11.642 -0.1528  0.0678  0.8504
53179SOL     OW66776   1.706   0.265  10.604  0.2566  0.2033  0.1799
53179SOL    HW166777   1.660   0.274  10.521  0.4430  0.8733  0.1416
53179SOL    HW266778   1.778   0.328  10.599  0.5362 -0.0664  0.6708
53180SOL     OW66779  12.351   4.469   0.271  0.0047  0.3099  0.0123
53180SOL    HW166780  12.263   4.505   0.262 -0.1215 -0.2436 -1.2174
53180SOL    HW266781  12.358   4.444   0.363 -0.8698  0.9989  0.2750
53181SOL     OW66782   4.920   7.431   6.499 -0.2942  0.0128 -0.1739
53181SOL    HW166783   4.955   7.368   6.562 -1.6695 -0.7869 -0.1703
53181SOL    HW266784   4.995   7.487   6.477  0.0990  0.7483  2.6245
53182SOL     OW66785  11.657   7.495   7.750 -0.0549  0.1794  0.3035
53182SOL    HW166786  11.577   7.442   7.756 -0.5545  1.0773  3.1946
53182SOL    HW266787  11.704   7.477   7.832  2.1973  0.5265 -0.8396
53183SOL     OW66788   1.136   7.174   8.421 -0.1033 -0.2879  0.2289
53183SOL    HW166789   1.199   7.130   8.479  0.8241 -0.6331 -0.9887
53183SOL    HW266790   1.057   7.121   8.427  0.3041 -0.8912  0.4335
53184SOL     OW66791   6.226   0.889   3.552 -0.2757 -0.3445  0.0889
53184SOL    HW166792   6.257   0.834   3.624  0.2812 -1.4729 -0.9884
53184SOL    HW266793   6.305   0.911   3.503 -0.7321 -0.1232 -0.5563
53185SOL     OW66794  12.464   7.050   3.985  0.0888 -0.5886 -0.8407
53185SOL    HW166795  12.486   7.126   4.039  2.8103 -1.3870 -0.6791
53185SOL    HW266796  12.516   7.062   3.905 -2.1248 -0.5856 -2.3463
53186SOL     OW66797  11.380   1.924   3.601  0.0690 -0.1003  0.1925
53186SOL    HW166798  11.353   2.007   3.639  1.0058  0.9003 -1.2121
53186SOL    HW266799  11.474   1.918   3.620  0.1701 -0.4513 -0.3782
53187SOL     OW66800   0.467   6.038  10.201  0.3960  0.0988  0.2460
53187SOL    HW166801   0.482   6.130  10.223  0.8601  0.1029 -0.0745
53187SOL    HW266802   0.439   6.040  10.109  1.3184 -0.1474 -0.0554
53188SOL     OW66803   8.012   2.412   3.648 -0.5356 -0.0486  0.9028
53188SOL    HW166804   8.032   2.400   3.741 -0.2727 -0.9823  0.7341
53188SOL    HW266805   7.924   2.375   3.637 -0.5399  0.0002  0.7655
53189SOL     OW66806   3.269   9.064   4.314  0.0731  0.1621  0.6558
53189SOL    HW166807   3.188   9.111   4.289  1.4100  0.9114 -2.8763
53189SOL    HW266808   3.255   8.975   4.283  0.4082  0.1893  0.4201
53190SOL     OW66809   2.868  12.363   1.343 -0.4144 -0.4152 -0.1118
53190SOL    HW166810   2.859  12.345   1.437 -1.5703 -0.1025 -0.1441
53190SOL    HW266811   2.877  12.277   1.303  1.5762 -0.4842  0.4052
53191SOL     OW66812   2.674   9.233   4.240  0.1030  0.2664  0.3203
53191SOL    HW166813   2.738   9.162   4.230  1.4278  1.3624  0.6970
53191SOL    HW266814   2.658   9.237   4.334 -1.2055 -0.5536  0.1553
53192SOL     OW66815   0.892   4.792   9.235 -0.6273 -0.5632 -0.0453
53192SOL    HW166816   0.973   4.843   9.234 -0.3845 -0.8673  1.6492
53192SOL    HW266817   0.921   4.701   9.233 -0.9276 -0.6696  0.3526
53193SOL     OW66818   6.230   6.933   8.013 -0.0425  0.2166  0.0973
53193SOL    HW166819   6.167   6.892   8.072  0.2383 -1.4562 -0.7101
53193SOL    HW266820   6.260   7.010   8.061 -1.1548 -0.0965  1.3719
53194SOL     OW66821   2.544   9.563   9.656  0.4762  0.5705  0.1439
53194SOL    HW166822   2.460   9.609   9.668 -0.4298 -1.5855  3.5022
53194SOL    HW266823   2.523   9.490   9.597 -1.0754 -1.8832  3.4221
53195SOL     OW66824   5.514  11.973   3.083  0.2068  0.1726 -0.2194
53195SOL    HW166825   5.483  11.895   3.038  0.7803 -0.3825  0.3219
53195SOL    HW266826   5.450  12.041   3.062 -1.0200 -0.7766  0.3640
53196SOL     OW66827   7.453   4.696  10.679  0.2416  0.7704  0.1192
53196SOL    HW166828   7.468   4.619  10.624  0.1990 -0.5788  1.8898
53196SOL    HW266829   7.358   4.694  10.696  0.2777  1.0799  0.3595
53197SOL     OW66830  11.512   9.520   5.081 -0.2474 -0.0136  0.0157
53197SOL    HW166831  11.482   9.458   5.013 -0.0653 -0.0657 -0.0181
53197SOL    HW266832  11.431   9.557   5.116 -0.3351  0.2500 -0.4516
53198SOL     OW66833   6.081   8.001   4.118  0.0642  0.3463  0.2161
53198SOL    HW166834   6.077   7.915   4.077  0.6464  0.7486 -0.7061
53198SOL    HW266835   6.008   8.001   4.180  0.2761 -0.9428  0.5006
53199SOL     OW66836   2.614   0.352   0.089 -0.5888  0.3230 -0.0913
53199SOL    HW166837   2.523   0.351   0.060 -0.2642  0.4175 -1.1584
53199SOL    HW266838   2.609   0.370   0.183 -1.6355  1.0945 -0.2753
53200SOL     OW66839   1.068   9.670   0.667  0.2150  0.4067 -0.5734
53200SOL    HW166840   1.054   9.765   0.673 -2.3703  0.0468  0.2916
53200SOL    HW266841   1.158   9.657   0.698  0.4423  2.5105 -0.2232
53201SOL     OW66842   7.362   3.779   8.637  0.3574  0.5261  0.4654
53201SOL    HW166843   7.385   3.777   8.544  1.7940 -1.9053  0.7907
53201SOL    HW266844   7.436   3.823   8.679  0.9882 -0.7194  0.7049
53202SOL     OW66845   9.890  11.687   7.367  0.0337 -0.0671  0.0507
53202SOL    HW166846   9.912  11.633   7.291 -0.3968 -0.3894  0.1481
53202SOL    HW266847   9.795  11.686   7.370  0.0273  0.5891  0.1418
53203SOL     OW66848   4.927   0.295   1.323  0.3165 -0.3245 -0.0230
53203SOL    HW166849   4.924   0.262   1.234 -0.1541 -0.3149 -0.0145
53203SOL    HW266850   4.897   0.386   1.316  0.8304 -0.1449  0.0643
53204SOL     OW66851   4.446   0.064   9.420  0.0187 -0.3444  0.0662
53204SOL    HW166852   4.384   0.012   9.369 -0.8464  1.1591 -0.4644
53204SOL    HW266853   4.507  -0.001   9.457 -0.3533 -1.6153 -1.4580
53205SOL     OW66854  10.468   5.583   0.980 -0.0671  0.7278  0.1278
53205SOL    HW166855  10.388   5.636   0.985 -0.7609 -0.2666 -0.2093
53205SOL    HW266856  10.463   5.525   1.056  0.6867  1.1235  0.4903
53206SOL     OW66857   8.870   0.726   5.361  0.1138 -0.5763 -0.2831
53206SOL    HW166858   8.829   0.639   5.358 -0.3738 -0.3640  0.0141
53206SOL    HW266859   8.857   0.755   5.452 -0.7541  0.2862 -0.6691
53207SOL     OW66860  10.321  10.994   1.790 -0.5062  0.4079 -0.3887
53207SOL    HW166861  10.233  10.994   1.826 -0.4223  0.6994 -0.1843
53207SOL    HW266862  10.309  11.018   1.698 -0.5094  1.8375 -0.0335
53208SOL     OW66863   4.160  11.719   6.293  0.1193  0.5428  0.0594
53208SOL    HW166864   4.211  11.673   6.226  0.4817 -0.0096  0.7043
53208SOL    HW266865   4.205  11.700   6.375 -1.0270  0.2021  0.6248
53209SOL     OW66866   5.015   0.616  11.311 -0.0883  0.3463  0.1555
53209SOL    HW166867   4.956   0.569  11.370 -1.9496  0.4067 -1.5396
53209SOL    HW266868   5.067   0.672  11.369 -0.7657 -0.6953  1.8419
53210SOL     OW66869   1.623  10.505   5.936 -0.1091  0.2344  0.4616
53210SOL    HW166870   1.689  10.462   5.882 -2.4475 -0.8330 -1.7412
53210SOL    HW266871   1.598  10.583   5.886 -1.5422 -0.1872  0.4602
53211SOL     OW66872   3.176  11.725   4.196 -0.4166  0.6393  0.1585
53211SOL    HW166873   3.115  11.797   4.206  0.1443  0.9315  1.8403
53211SOL    HW266874   3.256  11.754   4.240  0.4987 -0.2498 -0.8330
53212SOL     OW66875   1.438  10.610  11.975  0.3023  0.2765  0.3287
53212SOL    HW166876   1.344  10.614  11.992 -0.1422 -1.4677 -1.3959
53212SOL    HW266877   1.469  10.536  12.028  0.5654  0.4166  0.3727
53213SOL     OW66878   9.368   2.012   5.707 -0.3681 -0.3153 -0.0125
53213SOL    HW166879   9.342   1.929   5.666  0.1960  0.5043 -2.1910
53213SOL    HW266880   9.363   2.076   5.636 -1.2341  1.6466  1.7013
53214SOL     OW66881   7.199   9.098   1.788 -0.5947  0.4392  0.2282
53214SOL    HW166882   7.249   9.172   1.823 -0.3375 -1.4709  4.7250
53214SOL    HW266883   7.265   9.035   1.761 -0.6627  0.0577  0.9253
53215SOL     OW66884   9.789   6.070   2.088 -0.3742  0.2298 -0.0877
53215SOL    HW166885   9.852   6.071   2.016 -0.1978 -0.6002  0.0422
53215SOL    HW266886   9.745   6.155   2.083  2.0371  1.6720  0.9381
53216SOL     OW66887  10.963   9.260   6.372 -0.6862 -0.3279  0.0239
53216SOL    HW166888  11.034   9.320   6.347  1.2453 -0.8370  3.6095
53216SOL    HW266889  10.925   9.232   6.289  3.5859 -0.3002 -2.2140
53217SOL     OW66890  12.659   1.512  10.596  0.1499 -0.1586 -0.0923
53217SOL    HW166891  12.691   1.481  10.512  1.0724  1.3545 -0.3473
53217SOL    HW266892  12.570   1.544  10.577 -0.5762 -1.9993  0.0565
53218SOL     OW66893  11.504  11.695   5.253 -0.0677 -0.3487 -0.1845
53218SOL    HW166894  11.586  11.677   5.207  1.3001 -1.3331  2.4337
53218SOL    HW266895  11.468  11.609   5.272 -1.5042  0.0748 -0.8628
53219SOL     OW66896   7.993   8.456   2.370  0.6676  0.1346  0.1223
53219SOL    HW166897   8.022   8.481   2.283 -1.3500 -0.4341 -0.7535
53219SOL    HW266898   8.040   8.515   2.429  1.8218  0.7373 -1.3410
53220SOL     OW66899   6.099   2.710   0.175 -0.0894 -0.0123  0.8682
53220SOL    HW166900   6.152   2.732   0.251  0.0981  0.8917  0.4848
53220SOL    HW266901   6.130   2.768   0.105 -0.4600 -0.6155  0.1786
53221SOL     OW66902   8.803   4.509  10.470 -0.1119 -0.4843  0.2095
53221SOL    HW166903   8.882   4.479  10.425  0.2629  2.2039 -1.0995
53221SOL    HW266904   8.818   4.602  10.485 -2.5704 -0.1424  0.9544
53222SOL     OW66905   8.172   1.748   5.779 -0.2590  0.5019  0.3786
53222SOL    HW166906   8.154   1.688   5.706  0.0596 -1.4172  1.7961
53222SOL    HW266907   8.251   1.795   5.751  0.9045 -1.4457  0.1333
53223SOL     OW66908   1.770   0.567   3.441 -0.0574  0.7483 -0.0402
53223SOL    HW166909   1.819   0.485   3.453 -1.3056 -0.1702 -0.8671
53223SOL    HW266910   1.785   0.590   3.349 -2.8504 -0.7905 -1.0073
53224SOL     OW66911   5.779   7.704  10.516  0.2493 -0.1404 -0.0803
53224SOL    HW166912   5.795   7.712  10.422 -0.8267  1.0921 -0.1822
53224SOL    HW266913   5.865   7.719  10.556  0.7023 -0.5952 -0.8469
53225SOL     OW66914   5.704   5.685  10.525 -0.2496  0.2229  0.2548
53225SOL    HW166915   5.779   5.726  10.569 -0.6104  0.9635  0.1947
53225SOL    HW266916   5.711   5.592  10.547 -0.0850  0.4894  1.3834
53226SOL     OW66917   3.191   2.448   0.568 -0.0544 -0.5766  0.5903
53226SOL    HW166918   3.264   2.428   0.510  0.8019 -0.4600  1.5931
53226SOL    HW266919   3.113   2.418   0.521  0.8132 -2.6302  0.3682
53227SOL     OW66920   3.902   1.512  10.403  0.5623  0.2870 -0.1809
53227SOL    HW166921   3.863   1.522  10.489  1.5945  1.1233  0.2088
53227SOL    HW266922   3.997   1.506  10.420  0.6569 -1.7569 -1.0762
53228SOL     OW66923   1.174   4.429   6.964  0.2421  0.6460  0.4174
53228SOL    HW166924   1.144   4.378   7.039  0.5489  2.1760  1.6346
53228SOL    HW266925   1.098   4.432   6.905 -0.5039  0.6528  1.3515
53229SOL     OW66926   1.351   7.022   1.882  0.0650 -0.4814  0.2399
53229SOL    HW166927   1.375   6.978   1.800 -1.3025 -0.1140 -0.3972
53229SOL    HW266928   1.261   7.052   1.867  0.3705  1.0523  1.2721
53230SOL     OW66929   2.848   2.603   5.047  0.1507  0.1666 -0.3159
53230SOL    HW166930   2.816   2.543   4.980  0.7257 -0.4876 -0.0236
53230SOL    HW266931   2.942   2.609   5.029  0.4076 -0.4661  0.7731
53231SOL     OW66932   0.689  12.086   9.876 -0.0527  0.2237  0.1793
53231SOL    HW166933   0.721  11.999   9.852 -0.3089 -0.1380  1.1387
53231SOL    HW266934   0.603  12.093   9.834  1.3664  1.3955 -2.8508
53232SOL     OW66935   7.197   7.077   9.195 -0.5373  0.5944 -0.3496
53232SOL    HW166936   7.185   7.049   9.286  1.2583 -1.2915 -0.6005
53232SOL    HW266937   7.120   7.129   9.175 -1.0198  0.9865  2.2225
53233SOL     OW66938   8.946   9.569   9.926  0.3270  0.0275 -0.0697
53233SOL    HW166939   8.911   9.608  10.006  0.6153 -1.5274  0.8699
53233SOL    HW266940   8.882   9.590   9.859  0.4664  2.0480  0.3627
53234SOL     OW66941   3.401   0.450   9.798  0.4023 -0.0216 -0.6063
53234SOL    HW166942   3.477   0.416   9.845  0.4135  0.5802 -0.1828
53234SOL    HW266943   3.387   0.537   9.835  0.1700  0.3043 -1.4430
53235SOL     OW66944   6.036  10.161   2.051 -0.2611  0.0156 -0.1760
53235SOL    HW166945   6.099  10.148   1.981 -0.7162 -3.5353 -0.1163
53235SOL    HW266946   5.951  10.167   2.006 -0.3463 -0.2238 -0.0513
53236SOL     OW66947   8.661   5.643   4.552 -0.0423  0.0616  0.4583
53236SOL    HW166948   8.573   5.677   4.572 -0.3790 -0.2041 -0.5033
53236SOL    HW266949   8.714   5.722   4.542 -0.4044  0.2628  0.0599
53237SOL     OW66950  12.607   2.355   8.922  0.2903 -0.2432  0.0590
53237SOL    HW166951  12.701   2.357   8.905  0.2458 -0.2127 -0.1964
53237SOL    HW266952  12.571   2.420   8.862  0.0525 -0.6253 -0.2157
53238SOL     OW66953   9.605   5.237   2.814  0.0987  0.1519 -0.6323
53238SOL    HW166954   9.554   5.283   2.880 -0.1785  0.9090 -1.3671
53238SOL    HW266955   9.628   5.154   2.856 -0.2601  0.5247  0.3308
53239SOL     OW66956  12.625   5.418   8.103  0.0228 -0.7159  0.9883
53239SOL    HW166957  12.593   5.338   8.062  0.9399 -0.5764 -0.0451
53239SOL    HW266958  12.679   5.388   8.175  1.0024 -1.0669  0.1259
53240SOL     OW66959  10.208   0.071   1.237  0.5300  0.3161  0.5008
53240SOL    HW166960  10.117   0.046   1.220  0.9715 -0.8266 -0.3002
53240SOL    HW266961  10.259   0.021   1.173  1.7881  0.2815  1.4933
53241SOL     OW66962   5.675  11.420  11.577  0.1263 -0.1779  0.2704
53241SOL    HW166963   5.627  11.444  11.657 -1.0711 -0.7000 -0.2685
53241SOL    HW266964   5.638  11.336  11.551  0.8606 -0.2586 -0.5655
53242SOL     OW66965   2.064   9.418   9.661 -0.5430  0.2551  0.0340
53242SOL    HW166966   1.986   9.431   9.715 -1.1203  0.1637 -0.7500
53242SOL    HW266967   2.056   9.484   9.591 -1.1492 -1.2574 -1.3872
53243SOL     OW66968   1.126  12.247   2.836  0.4131 -0.2195 -0.5115
53243SOL    HW166969   1.094  12.335   2.819 -0.5357 -0.3994  0.2316
53243SOL    HW266970   1.165  12.252   2.923  1.1242 -0.3470 -0.8140
53244SOL     OW66971   9.927   8.211   3.705  0.5799  0.1981 -0.2277
53244SOL    HW166972   9.987   8.277   3.672  1.7624  0.2460  1.8651
53244SOL    HW266973   9.969   8.127   3.686  0.0125  0.1073 -1.1333
53245SOL     OW66974   8.060   5.683  10.876  0.1624  0.3270 -0.3621
53245SOL    HW166975   8.004   5.701  10.952 -0.5968  1.1931 -1.0985
53245SOL    HW266976   8.148   5.705  10.906 -0.0785  0.3016  0.3851
53246SOL     OW66977  10.664   3.885   7.817 -0.7766 -0.6138  0.2598
53246SOL    HW166978  10.748   3.929   7.800 -0.7605 -0.9798 -0.6734
53246SOL    HW266979  10.599   3.942   7.776 -0.9532 -0.5207  0.6628
53247SOL     OW66980   7.961  12.494   6.061  0.0992 -0.9386 -0.0840
53247SOL    HW166981   8.005  12.464   6.141 -0.2116 -1.1778  0.0022
53247SOL    HW266982   8.001  12.578   6.041  0.5629 -1.1351  0.0151
53248SOL     OW66983   0.379   7.520  11.089  0.1601 -0.1918 -0.7187
53248SOL    HW166984   0.377   7.550  10.998 -0.7190 -0.6417 -0.8633
53248SOL    HW266985   0.439   7.446  11.089 -0.6411 -0.8683 -1.1728
53249SOL     OW66986  12.007  11.269   5.350 -0.1006 -0.3737 -0.0064
53249SOL    HW166987  12.029  11.281   5.257 -0.9714  0.5368 -0.1065
53249SOL    HW266988  12.014  11.174   5.364 -1.2631 -0.6943 -1.3401
53250SOL     OW66989   8.807  12.596   4.181 -0.3886  0.1392  0.2171
53250SOL    HW166990   8.791  12.688   4.159 -2.2270  0.1732  1.4105
53250SOL    HW266991   8.848  12.600   4.268  1.8685 -0.1396 -0.7716
53251SOL     OW66992  10.410  12.366   5.271 -0.7418 -0.2362 -0.3445
53251SOL    HW166993  10.442  12.365   5.180 -0.5932 -2.1741 -0.3032
53251SOL    HW266994  10.332  12.420   5.267 -1.0127 -0.6762 -1.7436
53252SOL     OW66995   9.020   1.217  12.472 -0.1918 -0.1351  0.1274
53252SOL    HW166996   9.110   1.208  12.503  0.6216  2.4302 -1.2179
53252SOL    HW266997   8.966   1.180  12.542  1.8157 -0.3052  1.6565
53253SOL     OW66998   9.354   1.535   7.318  0.1732 -0.4377 -0.1751
53253SOL    HW166999   9.424   1.498   7.372 -0.4870 -1.0425  0.3010
53253SOL    HW267000   9.371   1.503   7.230  1.0310  0.2147 -0.2596
53254SOL     OW67001   9.440   6.709   8.348  0.0977  0.4533  0.0182
53254SOL    HW167002   9.454   6.657   8.269  1.4557  0.5463  0.1670
53254SOL    HW267003   9.518   6.693   8.401 -0.6239  0.6902  1.1710
53255SOL     OW67004   7.008  11.955   4.496  0.2434 -0.2203  0.6522
53255SOL    HW167005   6.926  12.004   4.487  0.4240 -0.0991 -0.5344
53255SOL    HW267006   7.071  12.020   4.527  0.2805  0.1138 -0.0935
53256SOL     OW67007  12.081  10.460  12.055 -0.7872  0.0049  0.2104
53256SOL    HW167008  11.988  10.442  12.043 -0.7979 -0.2126  0.6057
53256SOL    HW267009  12.083  10.549  12.090 -0.8454  0.0095  0.2025
53257SOL     OW67010   7.722   2.620   9.970 -0.1272 -0.4880  0.0374
53257SOL    HW167011   7.675   2.602  10.052 -2.1874  0.2628 -0.8921
53257SOL    HW267012   7.812   2.636   9.996 -0.5151 -1.3372  2.0322
53258SOL     OW67013   7.465   8.856   7.634 -0.1763 -0.3012  0.1392
53258SOL    HW167014   7.434   8.836   7.545 -0.6732 -0.8106  0.4244
53258SOL    HW267015   7.390   8.895   7.677 -0.3184 -1.1905  0.7169
53259SOL     OW67016   0.335   0.257   9.667  0.1464 -0.4029  0.4596
53259SOL    HW167017   0.280   0.292   9.597  1.3430  1.5358  0.4196
53259SOL    HW267018   0.273   0.219   9.730 -1.2047  0.9935  0.0366
53260SOL     OW67019   3.937  11.642   0.294 -0.1735  0.3283 -0.5119
53260SOL    HW167020   4.008  11.703   0.314  0.1316 -0.2011  0.0400
53260SOL    HW267021   3.967  11.594   0.217  0.7163 -0.9015  0.5702
53261SOL     OW67022  12.603   1.243   4.652 -0.6245 -0.4332 -0.9329
53261SOL    HW167023  12.695   1.242   4.624 -0.6911 -0.3060 -1.1543
53261SOL    HW267024  12.579   1.335   4.652 -0.6533 -0.4371 -0.5431
53262SOL     OW67025   2.604  11.015  12.277 -0.4408 -0.0361 -0.2847
53262SOL    HW167026   2.562  10.945  12.327  1.2284  0.2557  1.6560
53262SOL    HW267027   2.618  11.085  12.340 -0.1993  1.2432 -1.7014
53263SOL     OW67028   5.553   1.045   5.765  0.1098 -0.6528  0.1506
53263SOL    HW167029   5.471   0.999   5.784  0.0318 -0.4999  0.1884
53263SOL    HW267030   5.537   1.135   5.793  0.7091 -0.8834  1.2889
53264SOL     OW67031   2.756   2.163   8.257 -0.0898  0.1681  0.1605
53264SOL    HW167032   2.708   2.216   8.193 -0.4299 -0.4459 -0.1065
53264SOL    HW267033   2.694   2.149   8.329 -0.4359 -0.8681 -0.3140
53265SOL     OW67034   7.394   8.632  11.785  0.6641  0.2335  0.0343
53265SOL    HW167035   7.307   8.604  11.813  0.3203  1.0432 -0.1781
53265SOL    HW267036   7.403   8.720  11.823  1.1450  0.3924 -0.4390
53266SOL     OW67037  11.458   5.648   2.182 -0.1063  0.3431  0.5096
53266SOL    HW167038  11.372   5.667   2.145 -0.2829  1.4516  1.4501
53266SOL    HW267039  11.446   5.565   2.229 -0.5422  0.2741  0.2833
53267SOL     OW67040   7.059  10.799  12.018  0.3134 -0.2602  0.5035
53267SOL    HW167041   6.995  10.815  12.088  0.6443 -0.9035  0.9708
53267SOL    HW267042   7.137  10.848  12.044  0.3905 -0.3890  0.5189
53268SOL     OW67043   6.792  11.550   0.440 -0.4732 -0.0953 -0.6659
53268SOL    HW167044   6.779  11.469   0.488 -1.1084  1.0800  1.2829
53268SOL    HW267045   6.877  11.539   0.397  0.1284 -1.2547  0.7202
53269SOL     OW67046   3.131   1.125   9.342 -0.6036  0.1300  0.0843
53269SOL    HW167047   3.117   1.090   9.430 -3.3035  1.8085  0.4293
53269SOL    HW267048   3.206   1.184   9.352  1.3299 -2.2271  0.3943
53270SOL     OW67049  11.686   2.457   6.947  0.3774  0.1465 -0.2681
53270SOL    HW167050  11.595   2.473   6.924  0.6823  1.8409 -0.4210
53270SOL    HW267051  11.689   2.464   7.042  0.0322 -1.8116 -0.0809
53271SOL     OW67052   4.443   0.204   5.488 -0.5908  0.1338  0.1462
53271SOL    HW167053   4.538   0.207   5.488 -0.5936  0.9762  1.1544
53271SOL    HW267054   4.421   0.130   5.544 -0.5450 -0.4623 -0.6027
53272SOL     OW67055   3.380   8.183   8.244  0.0431 -0.0683  0.2356
53272SOL    HW167056   3.299   8.198   8.196 -0.3343 -0.9693  0.5781
53272SOL    HW267057   3.382   8.252   8.311 -0.4947 -0.1212  0.3084
53273SOL     OW67058   8.999   1.792   0.070 -0.5546 -0.3265 -0.0558
53273SOL    HW167059   8.989   1.884   0.096 -1.2320 -0.5741  0.5872
53273SOL    HW267060   9.066   1.794   0.001 -1.6908  0.8487 -1.1979
53274SOL     OW67061  10.606   3.883   0.863  0.0175 -0.2985 -0.4911
53274SOL    HW167062  10.613   3.938   0.941  1.7650 -3.3737  1.7404
53274SOL    HW267063  10.686   3.902   0.813  0.1824 -0.1875 -0.1870
53275SOL     OW67064   0.773   2.380   3.344  0.6035 -0.1130  0.5984
53275SOL    HW167065   0.860   2.354   3.313  0.1886 -1.1382  0.2407
53275SOL    HW267066   0.772   2.354   3.437 -0.1835 -2.4992 -0.0141
53276SOL     OW67067   0.867   5.813   8.643 -0.1198  0.0489 -0.4106
53276SOL    HW167068   0.918   5.742   8.604 -1.2145 -0.9187 -0.1446
53276SOL    HW267069   0.872   5.798   8.737 -0.9226 -0.1100 -0.3797
53277SOL     OW67070  10.349   4.378   6.834  0.4947 -0.0342  0.1922
53277SOL    HW167071  10.365   4.307   6.896  0.7426 -0.5134 -0.4147
53277SOL    HW267072  10.430   4.429   6.834 -0.0671  0.9218  1.4644
53278SOL     OW67073  11.462  10.386   9.624  0.1438 -0.0040 -0.4850
53278SOL    HW167074  11.548  10.427   9.621  0.2377 -0.2327 -2.7713
53278SOL    HW267075  11.430  10.391   9.534 -1.8582 -0.7316  0.1315
53279SOL     OW67076   2.421   1.154  11.987 -0.1687 -0.0465  0.5408
53279SOL    HW167077   2.450   1.096  11.917 -0.5285 -0.6171  0.8496
53279SOL    HW267078   2.371   1.097  12.046  2.8034 -0.3236  3.0004
53280SOL     OW67079   7.176   5.148   4.206 -0.4141 -0.0580  0.0062
53280SOL    HW167080   7.120   5.071   4.217 -2.5022  1.1341 -1.4657
53280SOL    HW267081   7.163   5.199   4.286  0.6181 -0.9648  0.7841
53281SOL     OW67082   2.737  11.879   4.538  0.3955  0.1867  0.7746
53281SOL    HW167083   2.797  11.950   4.518  1.0842 -0.1829  1.4778
53281SOL    HW267084   2.658  11.922   4.570  0.5338  0.6486  0.5063
53282SOL     OW67085   8.043   6.494   5.831 -0.0744 -0.2730  0.2435
53282SOL    HW167086   7.995   6.466   5.753 -0.0196 -0.3513  0.2379
53282SOL    HW267087   8.116   6.546   5.797  2.8916 -4.2589 -0.1485
53283SOL     OW67088   4.350   0.911   7.146  0.0591 -0.3194  0.3392
53283SOL    HW167089   4.355   1.006   7.138 -0.3535 -0.3767 -0.7413
53283SOL    HW267090   4.442   0.882   7.148  0.2078  0.1649  1.8608
53284SOL     OW67091   8.232   1.961   3.572 -0.7499 -0.2913 -0.2885
53284SOL    HW167092   8.151   1.914   3.594 -1.0257  0.8321  1.2553
53284SOL    HW267093   8.296   1.927   3.635 -1.0784  1.6686  1.1972
53285SOL     OW67094   8.563   6.260  10.695  0.2980 -0.5107  0.0285
53285SOL    HW167095   8.481   6.220  10.724  0.9796 -2.8954 -1.0713
53285SOL    HW267096   8.570   6.341  10.745 -2.2188 -0.7498  0.8680
53286SOL     OW67097   3.542  10.930   9.147 -0.0171  0.1695  0.2805
53286SOL    HW167098   3.467  10.883   9.183  0.0301 -0.2330 -0.1443
53286SOL    HW267099   3.576  10.873   9.078 -0.4052  1.1651 -0.7506
53287SOL     OW67100   2.193   9.866   8.540 -0.3239 -0.1568 -0.3097
53287SOL    HW167101   2.127   9.934   8.536  0.2910  0.6616  1.7557
53287SOL    HW267102   2.178   9.823   8.625 -0.3304 -2.2416 -1.2961
53288SOL     OW67103  10.106   6.799  11.893  0.4743 -0.8551  0.2181
53288SOL    HW167104  10.096   6.869  11.957  0.6723  0.8788 -1.5796
53288SOL    HW267105  10.016   6.776  11.869  0.4118  0.7289 -1.1848
53289SOL     OW67106   6.277  10.425   6.457  0.5327 -0.1382  0.0158
53289SOL    HW167107   6.230  10.378   6.388 -0.8545  2.2898 -0.7822
53289SOL    HW267108   6.252  10.516   6.447 -0.4395  0.2807  4.2631
53290SOL     OW67109   5.555   7.637  11.317  0.7431  0.4877  0.0523
53290SOL    HW167110   5.549   7.638  11.412  0.2076  0.2675  0.0251
53290SOL    HW267111   5.564   7.545  11.294 -1.3618  0.3126 -0.2261
53291SOL     OW67112   1.605   9.897   3.351 -0.5449  0.0848 -0.1497
53291SOL    HW167113   1.552   9.817   3.345  0.4037 -0.6632  0.9926
53291SOL    HW267114   1.547   9.961   3.392 -0.9707 -0.3381 -0.0850
53292SOL     OW67115  11.017   5.619   3.391  0.5719 -0.1952 -0.6762
53292SOL    HW167116  10.922   5.623   3.399  0.4897 -0.0807 -1.6121
53292SOL    HW267117  11.047   5.584   3.475 -0.0601  2.6063  0.8310
53293SOL     OW67118  10.698   7.274  10.043  0.1781 -0.1127  0.0305
53293SOL    HW167119  10.677   7.367  10.033  2.0119  0.2158 -1.3549
53293SOL    HW267120  10.712   7.262  10.137 -1.0269  0.7669  0.3458
53294SOL     OW67121   5.513   6.428   3.477 -0.0819 -0.1058  0.2256
53294SOL    HW167122   5.584   6.480   3.513 -2.0089  2.6052  0.4569
53294SOL    HW267123   5.478   6.380   3.552  1.4728 -1.5213  0.0927
53295SOL     OW67124   8.820   0.061   3.554 -0.3890 -0.3521 -0.2944
53295SOL    HW167125   8.770   0.131   3.511 -0.9214 -0.0437  0.8090
53295SOL    HW267126   8.804  -0.016   3.499  0.1191  0.3432 -1.4693
53296SOL     OW67127   9.500   0.341   1.246  0.3286 -0.3073 -0.0680
53296SOL    HW167128   9.429   0.353   1.309 -0.2872 -2.6025 -0.2128
53296SOL    HW267129   9.564   0.408   1.268 -0.5700 -0.0624  2.0007
53297SOL     OW67130   5.171   4.663   8.151 -0.1632  0.5580 -0.0094
53297SOL    HW167131   5.079   4.674   8.124 -0.1010  1.5660  0.1548
53297SOL    HW267132   5.167   4.610   8.230 -0.6760  1.3462  0.5016
53298SOL     OW67133  10.441   5.860   2.980 -0.0208 -0.5935  0.2476
53298SOL    HW167134  10.513   5.870   3.043 -0.3000  0.8032  0.3833
53298SOL    HW267135  10.383   5.935   2.999 -0.7534 -0.8728 -0.8327
53299SOL     OW67136   7.628   6.891   2.889 -0.2588  0.5498  0.4100
53299SOL    HW167137   7.708   6.921   2.846 -0.3525  2.0152  1.2129
53299SOL    HW267138   7.655   6.812   2.935  0.4009  0.2821 -0.3957
53300SOL     OW67139   5.771  10.455   8.580 -0.0283 -0.1835 -0.0985
53300SOL    HW167140   5.859  10.457   8.542  0.4842 -0.1601  1.0537
53300SOL    HW267141   5.776  10.386   8.646 -1.5873 -1.8936 -1.6684
53301SOL     OW67142   6.469   2.231   5.578 -0.3490 -0.4992  0.1486
53301SOL    HW167143   6.447   2.236   5.485  1.5869 -1.2138 -0.3782
53301SOL    HW267144   6.505   2.144   5.590  1.6549  0.3868  1.0305
53302SOL     OW67145   9.165   0.522   5.760 -0.1697  0.0846 -0.0387
53302SOL    HW167146   9.214   0.446   5.792  0.2485  0.3218 -0.1046
53302SOL    HW267147   9.116   0.553   5.836  2.6053  2.0658  1.1258
53303SOL     OW67148  10.835   8.080   2.582  0.2098  0.1066 -0.2295
53303SOL    HW167149  10.820   8.106   2.491  0.9238 -0.7377 -0.6022
53303SOL    HW267150  10.915   8.027   2.579 -0.0951 -0.4336  0.7961
53304SOL     OW67151   6.637   1.191   3.180  0.0388  0.5603 -0.0204
53304SOL    HW167152   6.548   1.221   3.196 -0.0035  0.1625  0.5046
53304SOL    HW267153   6.630   1.136   3.101 -0.0020  1.3262 -0.5672
53305SOL     OW67154   4.408   2.735   6.703 -0.6503 -0.0434  0.1199
53305SOL    HW167155   4.351   2.809   6.684 -0.2669 -0.3257 -2.5497
53305SOL    HW267156   4.380   2.666   6.643  1.2496 -0.8457  0.0577
53306SOL     OW67157  10.537  11.149   3.107  0.4095  0.4267  0.6796
53306SOL    HW167158  10.484  11.153   3.187 -0.0382  1.3941  0.3582
53306SOL    HW267159  10.534  11.239   3.073 -1.1714 -0.3728 -1.5281
53307SOL     OW67160   9.245  10.962   6.822 -0.0914 -0.2678  0.7581
53307SOL    HW167161   9.152  10.953   6.842 -0.1762 -0.7509  0.1507
53307SOL    HW267162   9.287  10.969   6.908 -0.5863 -1.0693  1.0726
53308SOL     OW67163   4.601  12.279   4.680  1.2672  0.0766  0.1687
53308SOL    HW167164   4.655  12.358   4.668  0.7272  0.4150 -0.0729
53308SOL    HW267165   4.622  12.224   4.604  0.1838  0.8552 -0.7301
53309SOL     OW67166  11.703   3.209   5.349 -0.2545 -0.2606  0.0259
53309SOL    HW167167  11.628   3.150   5.336 -0.2259 -0.1012 -0.9230
53309SOL    HW267168  11.756   3.165   5.416 -1.0688 -0.4950  0.5374
53310SOL     OW67169   8.087   8.088  11.825  1.3104  0.0569 -0.0940
53310SOL    HW167170   8.106   8.110  11.917  0.1089 -1.2546  0.4987
53310SOL    HW267171   8.002   8.044  11.827  1.1757  0.1580 -1.8729
53311SOL     OW67172   9.091   7.849   1.133 -0.6413  0.3532 -0.0027
53311SOL    HW167173   9.122   7.891   1.214 -1.5162  3.3688 -1.0996
53311SOL    HW267174   9.001   7.881   1.122 -1.4830 -2.0519 -0.8960
53312SOL     OW67175   8.080   1.463   2.783 -0.1284  0.2308  0.0133
53312SOL    HW167176   8.105   1.524   2.852  2.1123 -1.3807  0.7532
53312SOL    HW267177   8.067   1.379   2.828  0.0553 -0.5578 -1.3456
53313SOL     OW67178   6.547   5.074   3.151 -0.0701 -0.0441 -0.4924
53313SOL    HW167179   6.615   5.140   3.167  0.8683 -0.8274 -1.1785
53313SOL    HW267180   6.595   4.993   3.138 -1.2605 -1.1466  1.4910
53314SOL     OW67181  11.147   8.140   5.903 -0.4431  0.0185 -0.4793
53314SOL    HW167182  11.198   8.200   5.957 -0.7207 -1.3248  1.3839
53314SOL    HW267183  11.064   8.186   5.888 -0.4062  0.3798  0.3640
53315SOL     OW67184   1.309   8.795   9.595 -0.6206 -0.0080 -0.5914
53315SOL    HW167185   1.329   8.813   9.503  1.7353  0.5904 -0.0267
53315SOL    HW267186   1.339   8.873   9.642 -0.0291 -1.0754  0.8648
53316SOL     OW67187   0.256   5.646   0.100  0.4428 -0.1650 -0.0055
53316SOL    HW167188   0.261   5.715   0.034 -1.3561  1.2150  1.1917
53316SOL    HW267189   0.162   5.632   0.112  0.7641 -2.0230  0.6291
53317SOL     OW67190   3.073  11.788   2.477  0.4692 -0.3523 -0.2229
53317SOL    HW167191   3.127  11.821   2.549  0.2667 -0.1551 -0.1611
53317SOL    HW267192   3.131  11.791   2.401  0.1928  1.0281 -0.4117
53318SOL     OW67193   6.964   0.674   3.143  0.5312  0.3374  0.0077
53318SOL    HW167194   6.921   0.759   3.150 -2.4259 -0.9083 -1.1189
53318SOL    HW267195   6.972   0.644   3.234  0.8579  1.4256  0.3581
53319SOL     OW67196   1.872   1.927  11.152  0.4014  0.6897  0.1399
53319SOL    HW167197   1.884   2.000  11.213  1.6654 -0.9135  1.9392
53319SOL    HW267198   1.859   1.850  11.208 -1.9389 -0.3686 -1.6912
53320SOL     OW67199   2.252   2.262   4.404  0.0813 -0.1969  0.5737
53320SOL    HW167200   2.345   2.273   4.424  0.0882  1.4847 -0.1957
53320SOL    HW267201   2.249   2.250   4.310 -0.4961  0.2825  0.5215
53321SOL     OW67202  11.341   2.389   1.991  0.3599 -0.0716  0.2144
53321SOL    HW167203  11.273   2.339   2.036 -0.2351 -0.7475 -1.3705
53321SOL    HW267204  11.371   2.331   1.921 -0.0801  1.6176 -1.4561
53322SOL     OW67205   0.934  11.883   7.377 -0.5609  0.7310 -0.1462
53322SOL    HW167206   0.863  11.932   7.419 -0.7029  0.3278  0.0914
53322SOL    HW267207   1.001  11.949   7.361 -1.3420  1.2919 -1.2069
53323SOL     OW67208  12.666   9.834   2.656  0.2839  0.0656 -0.0956
53323SOL    HW167209  12.580   9.792   2.666 -0.1633  1.0064  0.1504
53323SOL    HW267210  12.688   9.864   2.744 -0.1327  1.6828 -0.5039
53324SOL     OW67211   8.610   1.522   9.081 -0.2211 -0.1792 -0.4681
53324SOL    HW167212   8.569   1.537   8.995 -1.1066  0.1136 -0.0051
53324SOL    HW267213   8.690   1.575   9.079 -0.4004  0.0773 -0.9977
53325SOL     OW67214   1.486   2.793   0.891  0.4385  0.2457  0.0454
53325SOL    HW167215   1.439   2.846   0.956  0.4217  0.3085 -0.0180
53325SOL    HW267216   1.567   2.767   0.936 -0.0148 -0.5217  0.4335
53326SOL     OW67217   6.736  10.200   0.972  0.2593 -0.2757  0.4060
53326SOL    HW167218   6.693  10.145   0.906  2.0841 -1.2781 -0.0342
53326SOL    HW267219   6.762  10.278   0.925 -0.8703  0.2638  0.6366
53327SOL     OW67220  11.127  10.485   8.748 -0.7195  0.2720  0.2551
53327SOL    HW167221  11.206  10.534   8.772 -0.6808 -0.2536  1.2438
53327SOL    HW267222  11.084  10.539   8.682  2.0557 -0.8128 -2.7254
53328SOL     OW67223  11.093  11.150   3.210 -0.3284  0.1553 -0.2752
53328SOL    HW167224  11.105  11.232   3.161 -1.1077 -1.2863 -3.0540
53328SOL    HW267225  10.998  11.136   3.211 -0.2246 -0.5456  0.4890
53329SOL     OW67226   3.741   1.084   7.377  0.0235  0.4296 -0.1275
53329SOL    HW167227   3.689   1.017   7.333  0.6334 -0.9527  1.1555
53329SOL    HW267228   3.828   1.076   7.337  0.1409  0.3244  0.1440
53330SOL     OW67229   6.134  12.082   2.854  0.0439  0.0885  0.2760
53330SOL    HW167230   6.226  12.099   2.876 -0.1367  0.3077  0.8800
53330SOL    HW267231   6.137  12.048   2.765  0.8602 -1.5207  0.8832
53331SOL     OW67232   7.305   2.964   1.136  0.4454  0.6792  0.5402
53331SOL    HW167233   7.261   2.981   1.052 -1.4066 -2.4820  0.7345
53331SOL    HW267234   7.388   2.923   1.111 -0.8681 -1.9230  0.1306
53332SOL     OW67235  10.017   5.421  12.080  0.5544 -0.1465  0.0045
53332SOL    HW167236   9.946   5.480  12.107  0.0039 -0.7722 -0.0562
53332SOL    HW267237   9.976   5.334  12.078  0.8051 -0.2701 -1.9001
53333SOL     OW67238   0.339   4.203   1.098  0.0410 -0.1410  0.0720
53333SOL    HW167239   0.400   4.275   1.119 -0.1345 -0.0675  0.3416
53333SOL    HW267240   0.277   4.203   1.172  0.0688 -0.6009  0.0951
53334SOL     OW67241  11.218  11.176  11.235 -0.8344  0.3822  0.6096
53334SOL    HW167242  11.159  11.201  11.164 -1.2545  0.8508  1.1180
53334SOL    HW267243  11.171  11.108  11.283 -0.6549  0.2391  0.5857
53335SOL     OW67244   7.644   0.189   9.085 -0.6831 -0.4827  0.0752
53335SOL    HW167245   7.684   0.275   9.094 -0.7207 -0.3936 -0.5118
53335SOL    HW267246   7.561   0.196   9.133 -1.6865  0.5047 -1.6721
53336SOL     OW67247   9.165   4.503   8.359  0.2650  0.0945 -0.0531
53336SOL    HW167248   9.152   4.412   8.332 -0.0831 -0.8978  3.0653
53336SOL    HW267249   9.100   4.553   8.308 -1.6588 -1.8554  0.3343
53337SOL     OW67250   6.053   2.914   3.951  0.1924 -0.2215  0.0305
53337SOL    HW167251   6.082   3.004   3.933  1.0666 -0.7351 -1.3095
53337SOL    HW267252   5.960   2.914   3.928 -0.4079  0.8828  2.2191
53338SOL     OW67253  11.414   2.490   6.950  0.3733 -0.6627 -0.4804
53338SOL    HW167254  11.452   2.563   6.998 -0.1017 -0.8790  0.2339
53338SOL    HW267255  11.392   2.425   7.017 -1.8802 -0.2763 -0.7736
53339SOL     OW67256   8.822   6.725  10.330  0.1840 -0.2755  0.6145
53339SOL    HW167257   8.846   6.636  10.355  0.0911 -0.2067  0.9447
53339SOL    HW267258   8.791   6.766  10.411 -2.2399 -0.7235 -0.0295
53340SOL     OW67259   2.386   8.911   5.971 -1.0735  0.4626  0.4227
53340SOL    HW167260   2.368   9.002   5.997 -0.0272  0.6906  0.3983
53340SOL    HW267261   2.311   8.886   5.918 -1.9851  0.8814  1.4631
53341SOL     OW67262   5.965   7.642   0.269 -0.1625 -0.9057  0.0316
53341SOL    HW167263   5.919   7.662   0.350 -1.8417  0.1527 -1.1260
53341SOL    HW267264   5.959   7.722   0.217  2.2434 -1.0437 -0.5544
53342SOL     OW67265  12.190   1.278   4.295  0.5418  0.1633 -0.1890
53342SOL    HW167266  12.149   1.359   4.326  2.2721  1.0363 -0.0525
53342SOL    HW267267  12.135   1.208   4.331 -0.6625  1.2537  0.1758
53343SOL     OW67268   0.897  10.070  12.613 -0.0293  0.5958 -0.2323
53343SOL    HW167269   0.877  10.136  12.680 -0.3478  0.2936 -0.0208
53343SOL    HW267270   0.839  10.092  12.540  0.7062  1.2559 -0.6364
53344SOL     OW67271   2.198   7.485  10.289 -0.7780  0.4746  0.5302
53344SOL    HW167272   2.197   7.461  10.382 -2.1664  0.8192  0.6251
53344SOL    HW267273   2.135   7.556  10.282  0.0528  1.1257 -0.5212
53345SOL     OW67274   7.703   8.856   0.918 -0.0918  0.3746  0.0375
53345SOL    HW167275   7.771   8.857   0.986 -0.1994 -3.1118  0.4151
53345SOL    HW267276   7.677   8.764   0.913 -2.0975  0.9767 -2.7989
53346SOL     OW67277   2.359   3.293   5.318  0.0296 -0.1520 -0.2526
53346SOL    HW167278   2.448   3.271   5.293 -0.3339 -0.4695 -1.3068
53346SOL    HW267279   2.355   3.389   5.312  0.4674 -0.0843  0.4199
53347SOL     OW67280   6.665   6.240   0.793 -0.1305  0.2002 -0.0938
53347SOL    HW167281   6.634   6.180   0.726 -0.2799 -0.8432  0.8625
53347SOL    HW267282   6.613   6.320   0.781  0.1542  0.1950 -1.4638
53348SOL     OW67283   8.546   8.287   5.420 -0.4130  0.1793 -0.3550
53348SOL    HW167284   8.579   8.213   5.471 -0.8758  0.5879  0.5697
53348SOL    HW267285   8.452   8.284   5.432 -0.4087  1.1249 -0.0072
53349SOL     OW67286   7.732  10.374   1.140  0.0559  0.4605 -0.3213
53349SOL    HW167287   7.677  10.377   1.062 -0.4586  1.0619  0.0578
53349SOL    HW267288   7.820  10.394   1.108 -0.3562  1.9355 -0.5698
53350SOL     OW67289   3.406   5.191  12.223  0.3989  0.0105  0.1775
53350SOL    HW167290   3.459   5.262  12.186 -1.9303  0.5093 -2.5413
53350SOL    HW267291   3.460   5.113  12.212  0.4574  0.3750 -3.2108
53351SOL     OW67292   1.184   2.304   1.377 -0.0228  0.4106 -0.2876
53351SOL    HW167293   1.106   2.256   1.405  1.9026 -2.2357  1.0536
53351SOL    HW267294   1.174   2.314   1.283 -1.0465 -1.7431 -0.4646
53352SOL     OW67295  10.401   8.142  11.133 -0.5888  0.1403 -0.5206
53352SOL    HW167296  10.495   8.158  11.132 -0.4132 -0.7787 -0.0123
53352SOL    HW267297  10.368   8.202  11.200 -0.2658 -0.0591 -0.1823
53353SOL     OW67298   0.671   0.934   8.371  0.2320  0.6696 -0.6358
53353SOL    HW167299   0.689   0.840   8.375 -0.4368  0.5259 -0.8307
53353SOL    HW267300   0.715   0.970   8.448  0.6698  0.2303 -0.6733
53354SOL     OW67301  11.856  11.309   4.927  0.0627 -0.0924 -0.2695
53354SOL    HW167302  11.879  11.279   4.839 -0.7072 -0.7905 -0.2343
53354SOL    HW267303  11.790  11.377   4.913 -0.0628 -0.2068 -0.2306
53355SOL     OW67304   7.962   7.566   3.437  0.2299  0.2863  0.1533
53355SOL    HW167305   7.991   7.551   3.526 -0.5836  1.4695  0.6367
53355SOL    HW267306   8.034   7.534   3.382  1.3907  0.9618  1.2516
53356SOL     OW67307   7.877   1.286   3.124  0.0344 -0.1190 -0.0454
53356SOL    HW167308   7.842   1.371   3.097  1.7728 -0.0014 -2.1954
53356SOL    HW267309   7.964   1.306   3.158 -0.2983 -0.8640  1.3333
53357SOL     OW67310  11.874  12.404   6.170  0.9155  0.1928  0.3874
53357SOL    HW167311  11.816  12.332   6.143 -0.3041  0.9074  0.9973
53357SOL    HW267312  11.947  12.401   6.109  0.0277 -0.4950 -0.6689
53358SOL     OW67313   9.477   6.153   6.360  0.0508  0.0009 -0.3770
53358SOL    HW167314   9.572   6.143   6.366  0.0188  0.1256  0.5597
53358SOL    HW267315   9.443   6.064   6.353  0.1678 -0.1590  0.7884
53359SOL     OW67316   3.666  12.694   7.731  0.6064 -0.3878  0.5197
53359SOL    HW167317   3.721  12.744   7.670 -0.4525 -0.4060 -0.4800
53359SOL    HW267318   3.579  12.734   7.724 -0.3590 -2.5030 -0.5435
53360SOL     OW67319   6.127   7.391   5.969 -0.0210  1.0402 -0.4625
53360SOL    HW167320   6.087   7.455   6.028 -1.4003  0.8287 -1.1350
53360SOL    HW267321   6.080   7.310   5.986 -0.1251  0.8678 -1.5069
53361SOL     OW67322  11.565  11.847   8.277  0.0040  0.7583  0.1238
53361SOL    HW167323  11.610  11.929   8.255  0.2528  1.0189  1.5358
53361SOL    HW267324  11.476  11.860   8.242  0.7776  0.4923 -2.1002
53362SOL     OW67325  10.580  10.618  11.340 -0.6562 -0.1237  0.1284
53362SOL    HW167326  10.657  10.562  11.329  0.2868  0.3347  3.3404
53362SOL    HW267327  10.583  10.679  11.266  1.5087 -0.7478 -0.3535
53363SOL     OW67328   7.255  11.890   1.050  0.1513  0.0470 -0.2399
53363SOL    HW167329   7.304  11.947   0.991  2.4957  1.4150  2.7112
53363SOL    HW267330   7.164  11.914   1.037  0.7569  1.6604 -1.8653
53364SOL     OW67331   4.794  11.956  10.957  0.1435 -0.0425 -0.4129
53364SOL    HW167332   4.733  11.891  10.922  1.0100 -1.2062  0.1971
53364SOL    HW267333   4.766  12.038  10.916  0.0997 -1.0535 -2.5558
53365SOL     OW67334   5.787  11.063   5.122 -0.1639  0.4576 -0.1206
53365SOL    HW167335   5.768  11.144   5.170  1.4947  0.2857  0.9372
53365SOL    HW267336   5.796  10.996   5.191 -0.8498 -0.5049 -0.9305
53366SOL     OW67337   7.466   9.456  11.355  0.4751 -0.3841 -0.5549
53366SOL    HW167338   7.542   9.405  11.384  1.0003  0.3758 -0.5525
53366SOL    HW267339   7.503   9.541  11.331 -0.6111  0.7399  1.4518
53367SOL     OW67340   5.095   9.774   9.398  0.2261 -0.2701  0.1005
53367SOL    HW167341   5.154   9.740   9.330 -1.0473 -0.1486 -1.1331
53367SOL    HW267342   5.095   9.869   9.385 -1.0005 -0.3340 -0.6429
53368SOL     OW67343   4.616   7.383  11.020  0.2436 -0.2594  0.0497
53368SOL    HW167344   4.618   7.465  10.971 -1.5736 -0.5025 -0.5124
53368SOL    HW267345   4.707   7.358  11.029  0.7883  1.4126 -0.4653
53369SOL     OW67346   5.351   8.980  11.118  0.0660  0.0810  0.1534
53369SOL    HW167347   5.374   9.018  11.203  1.3540 -1.2550  0.4407
53369SOL    HW267348   5.381   9.045  11.055  3.0026 -0.7136  0.6053
53370SOL     OW67349   5.382   4.671   6.026 -0.4424  0.6821  0.2058
53370SOL    HW167350   5.438   4.725   5.970 -1.2828  0.6335 -0.7348
53370SOL    HW267351   5.297   4.716   6.023 -1.0959 -0.5389 -0.4098
53371SOL     OW67352   8.074   8.891   8.914  0.0354  0.2826  0.6689
53371SOL    HW167353   8.116   8.897   8.828  0.5083 -1.1570  0.7697
53371SOL    HW267354   8.000   8.952   8.909  0.3243  0.5629 -0.5888
53372SOL     OW67355   4.164  10.525  10.971 -0.5225  0.1036  0.0073
53372SOL    HW167356   4.116  10.472  11.035 -1.6391  0.4619 -0.4908
53372SOL    HW267357   4.175  10.610  11.014  1.1657 -0.4578  0.7606
53373SOL     OW67358   2.637   1.956   1.215  0.5962  0.0782 -0.2297
53373SOL    HW167359   2.726   1.962   1.249  0.6046 -0.7015 -0.1098
53373SOL    HW267360   2.636   1.878   1.160 -0.1498 -0.2272  0.1940
53374SOL     OW67361   7.454   0.030   3.672 -0.0399 -0.3516  0.2975
53374SOL    HW167362   7.471   0.024   3.766 -0.7194 -0.5036  0.4169
53374SOL    HW267363   7.434   0.122   3.656  0.9634 -0.1524  0.1384
53375SOL     OW67364  10.541   4.636   2.288 -0.1305  0.1333  0.0258
53375SOL    HW167365  10.620   4.673   2.250 -0.5214  0.3491 -0.5951
53375SOL    HW267366  10.479   4.709   2.290 -0.4949 -0.1705 -0.0272
53376SOL     OW67367   0.006   1.144  10.963 -0.1023  0.0751 -0.2600
53376SOL    HW167368   0.087   1.193  10.975 -1.5324  2.2920  1.2401
53376SOL    HW267369  -0.022   1.165  10.873  1.2259 -1.1837 -0.9983
53377SOL     OW67370   6.715   6.239   1.792 -0.0684 -0.3168  0.5255
53377SOL    HW167371   6.741   6.186   1.716 -0.6227 -0.3166  0.3326
53377SOL    HW267372   6.674   6.177   1.852 -0.6846 -0.1155  0.3159
53378SOL     OW67373   6.775   8.844  10.154  0.1410  0.4228 -0.0955
53378SOL    HW167374   6.697   8.892  10.182  0.0001  0.5387 -0.6810
53378SOL    HW267375   6.763   8.830  10.060  0.4636 -0.2308 -0.0500
53379SOL     OW67376   1.336   7.343   4.886  0.0511 -0.5257  0.2474
53379SOL    HW167377   1.310   7.411   4.948 -2.1189 -1.3980  0.3861
53379SOL    HW267378   1.350   7.389   4.804 -2.3213  0.0474  0.0983
53380SOL     OW67379  11.921   0.078  11.979 -0.4111  0.4607 -0.5022
53380SOL    HW167380  12.007   0.053  11.945 -0.2087  0.7449 -0.2084
53380SOL    HW267381  11.938   0.154  12.035 -0.8964  0.7276 -0.7061
53381SOL     OW67382   5.904   0.161   5.688 -0.0596  0.1177 -0.5531
53381SOL    HW167383   5.967   0.225   5.722  0.3110 -0.4218 -0.1995
53381SOL    HW267384   5.937   0.139   5.601 -0.6151  0.9724 -0.9911
53382SOL     OW67385   2.012   8.422  11.058  0.2299  0.0734 -0.0790
53382SOL    HW167386   2.082   8.485  11.076  0.3436  0.5035 -1.8450
53382SOL    HW267387   1.934   8.461  11.095  0.4683  0.8508 -0.3816
53383SOL     OW67388   7.116   3.874  10.112  0.4049  0.0119  0.1557
53383SOL    HW167389   7.187   3.822  10.150  0.2376 -2.1130 -2.1843
53383SOL    HW267390   7.158   3.925  10.043 -0.1391 -0.5853 -0.6428
53384SOL     OW67391  11.858  10.269  10.175  0.3609  0.0887 -0.0238
53384SOL    HW167392  11.881  10.361  10.181 -3.6753  1.2505  1.4452
53384SOL    HW267393  11.841  10.253  10.082 -2.0895  1.9011  0.0288
53385SOL     OW67394   1.817  12.082   7.233  0.3241  0.5213 -0.2668
53385SOL    HW167395   1.777  12.164   7.260  0.6200  0.5141  0.1995
53385SOL    HW267396   1.898  12.108   7.189 -0.0569  0.5229 -0.9899
53386SOL     OW67397   5.359  12.065   3.608 -0.2334  0.5518 -0.5528
53386SOL    HW167398   5.394  12.131   3.667 -1.5829  0.4853  0.3808
53386SOL    HW267399   5.303  12.114   3.548 -1.7433  0.2422  0.5388
53387SOL     OW67400   7.525   6.531   4.326 -0.6195 -0.3790 -0.2889
53387SOL    HW167401   7.528   6.627   4.326 -1.1907 -0.3552  0.2394
53387SOL    HW267402   7.432   6.509   4.322 -0.5081 -0.9108 -0.1011
53388SOL     OW67403   3.215   4.698   1.254  0.3936  0.4692  0.2384
53388SOL    HW167404   3.236   4.622   1.201 -0.0987  1.0016 -0.7467
53388SOL    HW267405   3.250   4.772   1.206  0.8631  0.8858  1.1838
53389SOL     OW67406  11.754   5.758  10.474  0.3581 -0.3471 -0.4354
53389SOL    HW167407  11.755   5.750  10.378  0.0941 -0.1531 -0.4563
53389SOL    HW267408  11.839   5.724  10.501  0.8607  0.5549 -0.8206
53390SOL     OW67409  11.679  10.544   9.693  0.5762  0.2895 -0.2314
53390SOL    HW167410  11.700  10.546   9.786  0.4408  0.8432 -0.2054
53390SOL    HW267411  11.632  10.627   9.678 -4.5545 -2.1021  0.3984
53391SOL     OW67412  11.319  11.851   3.291  0.3888 -0.5156  0.6222
53391SOL    HW167413  11.312  11.944   3.313 -2.1053 -0.1586 -1.2771
53391SOL    HW267414  11.398  11.845   3.236 -0.2088  0.7646 -0.4132
53392SOL     OW67415  10.712   6.530  10.397  0.9815 -0.2394  0.4513
53392SOL    HW167416  10.807   6.530  10.405  1.2403  1.2489 -1.6936
53392SOL    HW267417  10.696   6.498  10.308 -0.4914  0.1085  0.5609
53393SOL     OW67418   5.942   1.000   7.684  0.1755  0.1026  0.2402
53393SOL    HW167419   5.889   1.002   7.604  0.3645 -0.9272  0.0700
53393SOL    HW267420   5.936   0.909   7.714  0.5055  0.3679  1.1269
53394SOL     OW67421   6.039   3.937   2.543 -0.0003  0.0003 -0.2756
53394SOL    HW167422   6.094   3.895   2.609  0.8327  0.4857 -0.6586
53394SOL    HW267423   6.075   3.911   2.459 -0.5625  0.0460 -0.5418
53395SOL     OW67424   6.168  11.801   2.178 -0.4237 -0.2537  0.0872
53395SOL    HW167425   6.210  11.831   2.259 -2.0452  0.3673  0.7389
53395SOL    HW267426   6.090  11.855   2.171  0.7386  1.2569 -3.0732
53396SOL     OW67427   2.200  12.522   4.123 -0.2128 -0.2549 -0.1798
53396SOL    HW167428   2.244  12.515   4.038  1.0063 -0.9492  0.4769
53396SOL    HW267429   2.206  12.615   4.144 -1.5326  0.1271 -1.3430
53397SOL     OW67430   0.914   2.767   2.728  0.1199  0.5778  0.4311
53397SOL    HW167431   0.827   2.754   2.766 -0.9757 -0.1800 -2.1360
53397SOL    HW267432   0.906   2.736   2.638  2.3503  2.9302 -0.7023
53398SOL     OW67433   5.599   3.934   5.059  0.4763  0.2808 -0.3578
53398SOL    HW167434   5.508   3.933   5.029  0.5765  0.5999 -0.6748
53398SOL    HW267435   5.613   4.023   5.089  1.0227  0.5499 -1.3632
53399SOL     OW67436   5.931   3.895   1.890  0.0328  0.3618  0.3350
53399SOL    HW167437   5.845   3.909   1.850 -0.3074 -1.3509  0.3720
53399SOL    HW267438   5.993   3.922   1.823 -0.5465  0.4732 -0.1666
53400SOL     OW67439   3.594   6.488   9.600  0.5314  0.0039 -0.5157
53400SOL    HW167440   3.599   6.523   9.511 -0.4636 -0.8082 -0.9081
53400SOL    HW267441   3.656   6.415   9.600  0.2435 -0.2384 -0.6531
53401SOL     OW67442  10.882   5.546   7.667  0.6364 -0.3246 -0.1132
53401SOL    HW167443  10.827   5.533   7.744  1.7503 -0.0005  0.7686
53401SOL    HW267444  10.854   5.479   7.605 -2.4537  1.3589 -0.7237
53402SOL     OW67445   2.668   4.277   0.901 -0.1064 -0.7173  0.3050
53402SOL    HW167446   2.663   4.373   0.906 -2.1149 -0.8158  0.9481
53402SOL    HW267447   2.696   4.250   0.988  0.6660 -0.7363  0.0634
53403SOL     OW67448  11.219   5.628   6.452  0.1204 -0.6435 -0.4443
53403SOL    HW167449  11.224   5.597   6.362 -1.8817 -1.5443 -0.3046
53403SOL    HW267450  11.233   5.722   6.446  1.2562 -0.8558 -1.5203
53404SOL     OW67451   0.220   2.959   4.812 -0.1886  0.0862  0.4662
53404SOL    HW167452   0.260   3.045   4.825 -1.3061  0.5302  1.1068
53404SOL    HW267453   0.199   2.928   4.901 -0.4767 -0.5116  0.2005
53405SOL     OW67454   6.380   9.232   2.281  0.1623  0.1726 -0.1640
53405SOL    HW167455   6.293   9.242   2.242  0.4475  1.1716 -0.5572
53405SOL    HW267456   6.390   9.137   2.291 -0.3847 -0.0474 -1.4608
53406SOL     OW67457   5.374  10.509   0.920 -0.3096  0.0678  0.0865
53406SOL    HW167458   5.349  10.459   0.842  0.0345 -0.7272  0.4865
53406SOL    HW267459   5.295  10.511   0.974 -0.3111 -0.0812  0.0900
53407SOL     OW67460   3.202   7.500   4.458  0.0209 -0.2351  1.0274
53407SOL    HW167461   3.176   7.556   4.531  0.0506  0.4426  0.5219
53407SOL    HW267462   3.244   7.559   4.396 -1.1013 -0.5929 -0.1002
53408SOL     OW67463   9.459   9.772   0.709  0.2957  0.5490 -0.0525
53408SOL    HW167464   9.487   9.858   0.742  1.7049 -0.5490  1.7992
53408SOL    HW267465   9.537   9.717   0.716 -0.9711 -1.2969  0.2619
53409SOL     OW67466   7.910  11.503   9.044  0.1691 -0.5190 -0.3624
53409SOL    HW167467   7.822  11.476   9.071  0.1774 -0.0561  0.1485
53409SOL    HW267468   7.896  11.582   8.992  0.2833 -0.4077 -0.2255
53410SOL     OW67469  10.722   6.290   8.186 -0.6050 -0.0789 -0.6961
53410SOL    HW167470  10.757   6.309   8.273 -0.3731  0.6796 -0.9456
53410SOL    HW267471  10.797   6.255   8.137 -0.7213 -0.4489 -0.6148
53411SOL     OW67472   4.075   8.822  10.143 -0.3475 -0.3558 -0.2779
53411SOL    HW167473   4.077   8.826  10.239 -1.2824 -2.6163 -0.1074
53411SOL    HW267474   4.143   8.885  10.116  0.2216  0.0523  1.8519
53412SOL     OW67475   6.782   6.693  12.478 -0.4769  0.1273 -0.1603
53412SOL    HW167476   6.688   6.679  12.465 -0.7598  0.7788  0.9892
53412SOL    HW267477   6.822   6.611  12.451 -1.5382 -0.7706  0.8467
53413SOL     OW67478  11.623   4.399   2.527 -0.0828 -0.1257 -0.9122
53413SOL    HW167479  11.688   4.339   2.491 -0.2172 -1.7725  1.3904
53413SOL    HW267480  11.540   4.372   2.488  0.0329 -0.6870 -0.7688
53414SOL     OW67481  12.170   7.399   3.990  0.3512 -0.4408 -0.7431
53414SOL    HW167482  12.149   7.317   4.033  0.2615 -0.5284 -0.9522
53414SOL    HW267483  12.179   7.462   4.062 -1.8669 -0.1034 -0.6792
53415SOL     OW67484   8.424   2.603   9.074  0.7803  0.1049  0.0768
53415SOL    HW167485   8.433   2.508   9.077  2.4646  0.1458 -1.5425
53415SOL    HW267486   8.332   2.618   9.052 -0.1735 -1.0046  2.8316
53416SOL     OW67487   7.626   0.224   2.071  0.3192 -0.4717 -0.3868
53416SOL    HW167488   7.554   0.287   2.075  0.0512 -0.7280 -1.0598
53416SOL    HW267489   7.584   0.138   2.083  0.9146 -0.4430  2.6858
53417SOL     OW67490   8.804  10.355   2.706  0.2481 -0.5292 -0.2029
53417SOL    HW167491   8.805  10.260   2.719  1.2041 -0.3986  0.8854
53417SOL    HW267492   8.752  10.368   2.627  2.3832 -2.1790 -2.0276
53418SOL     OW67493   5.025   5.927   7.310  0.3982 -0.4269  0.2335
53418SOL    HW167494   5.017   5.957   7.400  1.5394  0.6051  0.0195
53418SOL    HW267495   5.100   5.975   7.275  2.1770 -3.3174 -0.2475
53419SOL     OW67496   1.283   5.364  10.460 -0.3521  0.2641 -0.0193
53419SOL    HW167497   1.194   5.395  10.478 -0.7043 -1.1192  0.8062
53419SOL    HW267498   1.295   5.290  10.519  1.1640  0.0800 -0.5071
53420SOL     OW67499  10.893  11.071  10.384 -0.5810 -0.3548 -0.4657
53420SOL    HW167500  10.929  11.148  10.341 -0.2833  0.4652  1.1813
53420SOL    HW267501  10.823  11.105  10.441  0.0668 -1.1685  0.8713
53421SOL     OW67502   2.584   2.412   0.737  0.4902  0.4082 -0.5518
53421SOL    HW167503   2.490   2.411   0.756  0.6339  0.0899  0.1905
53421SOL    HW267504   2.604   2.321   0.713  1.2247 -0.3971  2.6491
53422SOL     OW67505  11.622   5.291   5.084 -0.0565  0.2480 -0.0682
53422SOL    HW167506  11.636   5.293   5.179 -1.3645 -1.6571  0.2043
53422SOL    HW267507  11.551   5.353   5.069  1.4190  2.0370 -0.1247
53423SOL     OW67508   3.820  12.001  11.868 -0.3238  0.3730  0.0292
53423SOL    HW167509   3.817  12.097  11.871 -0.9010  0.3518  1.7422
53423SOL    HW267510   3.791  11.974  11.956 -1.0976 -1.3924 -0.7215
53424SOL     OW67511   6.784  12.040   6.471 -1.1741  0.3315  0.0185
53424SOL    HW167512   6.724  12.019   6.399 -0.6476 -2.0157  0.1604
53424SOL    HW267513   6.857  11.980   6.459 -0.5174  0.6879  1.8504
53425SOL     OW67514   1.918   1.741   7.295  0.1511 -0.3822  0.3218
53425SOL    HW167515   1.971   1.662   7.287  1.2533  0.4202 -0.8586
53425SOL    HW267516   1.928   1.784   7.210  1.6413  2.2671  1.7087
53426SOL     OW67517   5.198   9.592  10.066 -0.0538  0.7230  0.7436
53426SOL    HW167518   5.158   9.647   9.998  0.6160  1.8700  1.2533
53426SOL    HW267519   5.237   9.519  10.017  1.4795  2.1423 -0.2886
53427SOL     OW67520   9.325   6.045  11.972  0.3492  0.2314  0.3342
53427SOL    HW167521   9.309   6.035  11.878 -0.8154  1.7937  0.3294
53427SOL    HW267522   9.244   6.014  12.012  0.5450  0.2968  0.7789
53428SOL     OW67523   0.400   1.385   6.965 -0.3845  0.4658  0.1908
53428SOL    HW167524   0.486   1.428   6.962  0.3788 -0.9635  0.5453
53428SOL    HW267525   0.371   1.383   6.874  0.7652 -0.5593 -0.1829
53429SOL     OW67526   3.952   5.692  11.344  0.1357 -0.3812 -0.0536
53429SOL    HW167527   3.947   5.711  11.250 -0.3713  0.1044  0.0670
53429SOL    HW267528   3.861   5.679  11.371  0.3238 -1.0357  0.2684
53430SOL     OW67529  12.061   0.663   9.571  0.2072 -0.4182 -0.1911
53430SOL    HW167530  12.076   0.597   9.503 -0.2010 -0.8075  0.0885
53430SOL    HW267531  12.043   0.743   9.522 -0.4506 -0.7747 -0.5593
53431SOL     OW67532   4.417   3.484   4.669 -0.2488  0.0911 -0.2898
53431SOL    HW167533   4.415   3.488   4.764 -1.2331 -1.2948 -0.2237
53431SOL    HW267534   4.499   3.526   4.645  0.7460 -0.8777  1.2556
53432SOL     OW67535   8.864   7.689   7.430  0.2781 -0.0793 -0.2120
53432SOL    HW167536   8.806   7.698   7.354 -1.3403 -2.4357  0.6128
53432SOL    HW267537   8.805   7.694   7.506  1.1818 -2.0203  0.6838
53433SOL     OW67538   3.630   5.994   6.924  0.0260  0.1787  0.3971
53433SOL    HW167539   3.592   5.908   6.906  0.6559 -0.1996  0.8387
53433SOL    HW267540   3.725   5.981   6.915  0.1719  0.6617  1.1249
53434SOL     OW67541   0.274   9.703  11.711  0.0943 -0.9250  0.2045
53434SOL    HW167542   0.181   9.683  11.718  0.2341 -1.3258  1.2051
53434SOL    HW267543   0.291   9.762  11.785  0.8343 -1.7224  0.6974
53435SOL     OW67544   2.840   9.093   3.979 -0.4174 -0.4574 -0.4532
53435SOL    HW167545   2.929   9.074   3.950  0.3331  0.8551  0.8574
53435SOL    HW267546   2.809   9.011   4.018  0.6476 -0.6156  0.0952
53436SOL     OW67547   6.596  11.763   3.694  0.6598 -0.1363 -0.0657
53436SOL    HW167548   6.548  11.773   3.612 -0.6294  1.5652  0.8253
53436SOL    HW267549   6.606  11.852   3.727  1.8981 -0.7090  1.2289
53437SOL     OW67550  10.048  10.913   9.983  0.1659 -0.3390  0.2431
53437SOL    HW167551  10.008  10.855   9.918  1.3418 -1.1736  0.2359
53437SOL    HW267552  10.050  10.998   9.940 -0.7282 -0.4781 -0.1054
53438SOL     OW67553   4.701   9.044   2.506  0.0120 -0.6359 -0.3965
53438SOL    HW167554   4.687   8.984   2.432  1.8088 -1.3903 -0.1627
53438SOL    HW267555   4.651   9.122   2.482 -1.5843 -1.8127 -1.1734
53439SOL     OW67556   8.681   0.833  12.323  0.1348  0.0080 -0.1463
53439SOL    HW167557   8.742   0.889  12.276  0.1465 -0.9128 -1.2735
53439SOL    HW267558   8.736   0.784  12.384  0.2507  0.5370  0.1774
53440SOL     OW67559   9.223   0.626   6.385 -0.7129 -0.1586 -0.0485
53440SOL    HW167560   9.191   0.708   6.348  0.7247  1.4890  2.1652
53440SOL    HW267561   9.146   0.570   6.389 -1.3263  0.1788 -3.6281
53441SOL     OW67562   0.467   7.743  10.535 -0.5371  0.0770  0.2163
53441SOL    HW167563   0.551   7.707  10.561  0.1949  0.7938 -1.0507
53441SOL    HW267564   0.422   7.670  10.492 -0.2313 -0.0830  0.1669
53442SOL     OW67565   0.221   5.268  10.413 -0.1238 -0.2647 -0.1180
53442SOL    HW167566   0.207   5.312  10.329 -1.4426 -2.8309 -1.3804
53442SOL    HW267567   0.261   5.334  10.469  0.8873  1.5507 -2.7805
53443SOL     OW67568   4.960   0.283   9.728  0.3262  0.5853  0.2482
53443SOL    HW167569   4.979   0.367   9.769 -2.9378  0.9559  1.3166
53443SOL    HW267570   5.022   0.222   9.767  1.4418  2.1179  0.9673
53444SOL     OW67571   2.423  11.259   9.776 -0.5566  0.2632  0.1286
53444SOL    HW167572   2.404  11.324   9.845  0.9355  0.1446  0.6873
53444SOL    HW267573   2.414  11.308   9.694 -0.0563  1.0204  0.5197
53445SOL     OW67574   5.765   8.620   7.929 -0.6227 -0.0037 -0.5621
53445SOL    HW167575   5.788   8.713   7.927 -1.2289  0.1451 -1.1235
53445SOL    HW267576   5.764   8.597   8.022 -0.6293  0.5919 -0.4143
53446SOL     OW67577   7.776   9.599  11.533  0.1077 -0.0512  0.0434
53446SOL    HW167578   7.784   9.539  11.459 -0.4372  1.0905 -0.9913
53446SOL    HW267579   7.734   9.677  11.496  0.2308  0.7313  1.4653
53447SOL     OW67580   4.597   5.154  12.215 -0.2709 -0.0893 -0.4268
53447SOL    HW167581   4.629   5.216  12.149  2.7253 -0.9789  0.0108
53447SOL    HW267582   4.576   5.075  12.165 -0.6831  0.1204 -0.5911
53448SOL     OW67583   9.422  10.648   5.205 -0.0450  0.2863 -0.0835
53448SOL    HW167584   9.345  10.682   5.159  0.2715  2.0147  0.5987
53448SOL    HW267585   9.400  10.557   5.223 -1.2276  0.2747 -1.3940
53449SOL     OW67586  11.411   6.478   6.789 -0.1876  0.5106  0.0272
53449SOL    HW167587  11.320   6.450   6.797  0.3880 -1.3221  1.0506
53449SOL    HW267588  11.459   6.414   6.843  1.5666  2.1395  0.4887
53450SOL     OW67589   9.955   8.063   8.846  0.4341 -0.5815  0.3206
53450SOL    HW167590   9.905   8.038   8.768  1.0432  1.0491 -0.6560
53450SOL    HW267591   9.891   8.101   8.905  0.5216  2.4043 -1.3219
53451SOL     OW67592   2.860   7.944   1.447 -0.4319  0.0975 -0.3512
53451SOL    HW167593   2.944   7.989   1.449 -0.4290  0.0746  0.1746
53451SOL    HW267594   2.801   8.003   1.400 -0.5624  0.8915  0.7643
53452SOL     OW67595   0.102   4.874   1.227  0.1122 -0.1037  0.7317
53452SOL    HW167596   0.148   4.957   1.213 -0.3149  0.2254  1.2542
53452SOL    HW267597   0.155   4.809   1.181  0.0674  0.5655 -0.2947
53453SOL     OW67598   1.967   6.468   4.697 -0.7497 -0.0414 -0.5116
53453SOL    HW167599   2.001   6.414   4.769 -1.0942  0.6335  0.1679
53453SOL    HW267600   1.875   6.482   4.720 -1.1596 -0.7362 -1.6494
53454SOL     OW67601   8.570  10.677   8.364  0.0341  0.6919  0.2939
53454SOL    HW167602   8.573  10.695   8.458 -0.2973 -1.6838  0.8188
53454SOL    HW267603   8.657  10.700   8.333  1.3410 -1.5966  1.8961
53455SOL     OW67604   5.032   8.800   2.672 -0.3227 -0.2708 -0.6080
53455SOL    HW167605   5.097   8.801   2.742  1.5855 -1.4614 -2.2802
53455SOL    HW267606   4.959   8.852   2.707  1.4827  1.1135  1.3510
53456SOL     OW67607   4.938  10.011   8.204 -0.5046  0.2197  0.3874
53456SOL    HW167608   4.964  10.100   8.229 -0.3481  0.5142 -0.7690
53456SOL    HW267609   4.988   9.954   8.263  1.3955  0.8329 -0.5391
53457SOL     OW67610   8.483   1.830   6.404 -0.3432  0.0225 -0.5650
53457SOL    HW167611   8.450   1.851   6.316 -0.5745  0.4661 -0.3779
53457SOL    HW267612   8.404   1.820   6.458 -0.2017 -0.2045 -0.3986
53458SOL     OW67613   0.899   0.297  12.647  0.7858  0.4642  0.1629
53458SOL    HW167614   0.961   0.243  12.695  2.7611  0.7344 -1.8943
53458SOL    HW267615   0.924   0.387  12.667  0.1239  0.6010  0.4147
53459SOL     OW67616   2.450   4.631   2.100 -0.3824  0.2859  0.2505
53459SOL    HW167617   2.504   4.583   2.038  1.1251  1.2400  0.7651
53459SOL    HW267618   2.397   4.690   2.045  0.7737  0.9639 -0.1758
53460SOL     OW67619   7.206   9.374  11.253 -0.1238  0.1949  0.2005
53460SOL    HW167620   7.292   9.367  11.293  0.9276 -0.5926 -2.0473
53460SOL    HW267621   7.194   9.467  11.236  0.7787  0.2013 -0.4500
53461SOL     OW67622   1.554  12.031   8.765 -0.2199 -0.2065 -0.0961
53461SOL    HW167623   1.618  12.016   8.696  0.5257 -0.5620  0.6557
53461SOL    HW267624   1.605  12.064   8.839 -0.6508 -1.8472  0.9874
53462SOL     OW67625   3.671  10.848   8.906  0.1900 -0.6103 -0.5515
53462SOL    HW167626   3.766  10.833   8.903  0.1702 -0.6658 -1.5656
53462SOL    HW267627   3.639  10.811   8.823 -0.6677 -0.2424 -0.3973
53463SOL     OW67628   3.370   1.871  12.489  0.1833 -0.1202  0.1957
53463SOL    HW167629   3.322   1.935  12.437  0.4748 -0.7463 -0.8847
53463SOL    HW267630   3.353   1.896  12.580 -0.6573  0.7725 -0.1861
53464SOL     OW67631   6.946   6.774   4.789 -0.1309 -0.8553 -0.5040
53464SOL    HW167632   6.929   6.684   4.820  0.5912 -1.4108 -1.6692
53464SOL    HW267633   7.019   6.804   4.843  0.2602 -1.3260 -0.7702
53465SOL     OW67634   1.476   6.744   2.893  0.1810  0.8257  0.0346
53465SOL    HW167635   1.421   6.808   2.848 -1.3824 -0.3144  0.2764
53465SOL    HW267636   1.416   6.695   2.949  1.3020 -0.9212 -0.2123
53466SOL     OW67637   4.872   3.696   3.469  0.1228 -0.2933 -0.4158
53466SOL    HW167638   4.853   3.751   3.545 -0.5652 -1.3417  0.2082
53466SOL    HW267639   4.943   3.639   3.499 -0.4375 -0.9975 -0.3977
53467SOL     OW67640   3.717   9.206   9.619  0.6263  0.1698  0.0987
53467SOL    HW167641   3.689   9.297   9.626  1.2019  0.3791 -0.2008
53467SOL    HW267642   3.761   9.188   9.702  1.1577  0.4050 -0.1223
53468SOL     OW67643   8.231   7.907   3.412 -0.3913 -0.3063 -0.1066
53468SOL    HW167644   8.305   7.847   3.420 -1.0503 -0.9821  1.3097
53468SOL    HW267645   8.180   7.893   3.492 -0.6591  2.0428  0.2089
53469SOL     OW67646   8.853   5.071   6.310  0.7556  0.0667 -0.1885
53469SOL    HW167647   8.870   5.162   6.286  1.9309 -0.0518  0.1020
53469SOL    HW267648   8.781   5.044   6.254  1.0790  0.8668 -1.0159
53470SOL     OW67649   8.389   7.755   4.047  0.2704 -0.5631  0.4292
53470SOL    HW167650   8.320   7.752   3.981  2.3646 -1.9132 -1.8980
53470SOL    HW267651   8.438   7.835   4.026 -0.9499  0.8317  2.5712
53471SOL     OW67652   8.071   4.499   3.156 -0.3627  0.2106  0.0502
53471SOL    HW167653   8.035   4.534   3.074 -0.3144  0.4715  0.1422
53471SOL    HW267654   8.162   4.528   3.157 -0.0916 -0.5892 -0.2651
53472SOL     OW67655   5.546   7.503   2.377  0.2900  0.2516  0.7019
53472SOL    HW167656   5.529   7.466   2.464  1.8447 -0.1273  0.8800
53472SOL    HW267657   5.477   7.568   2.365  0.0400  0.3093  2.2220
53473SOL     OW67658   7.853   1.786   0.974  0.5795  0.0628  0.0981
53473SOL    HW167659   7.898   1.870   0.973 -0.0537  0.4525 -2.6142
53473SOL    HW267660   7.794   1.789   0.899  0.6971 -2.8894 -0.2244
53474SOL     OW67661   0.051   6.085   5.253  0.1816  0.3760 -0.2033
53474SOL    HW167662   0.118   6.017   5.243  0.2934  0.3204  0.8276
53474SOL    HW267663  -0.031   6.036   5.264 -0.3871  0.4269 -3.2116
53475SOL     OW67664   6.998   4.866   1.801 -0.3086  0.2002 -0.5210
53475SOL    HW167665   7.025   4.941   1.747  3.1731 -0.1638  0.5135
53475SOL    HW267666   7.045   4.792   1.764 -1.5950 -1.0001  0.1713
53476SOL     OW67667  12.053  12.400   8.595  0.2941 -0.0150  0.2957
53476SOL    HW167668  12.016  12.484   8.566  1.8598  1.1576  1.5077
53476SOL    HW267669  11.980  12.356   8.638 -0.0930  1.6756  1.4826
53477SOL     OW67670  12.115   8.480  11.976 -0.2349 -0.0625  0.4527
53477SOL    HW167671  12.202   8.488  11.935  0.3928 -1.4379  1.4223
53477SOL    HW267672  12.065   8.426  11.915 -0.6245  1.1624 -0.3652
53478SOL     OW67673  10.956   8.429  10.624 -0.2148  0.1709  0.1858
53478SOL    HW167674  10.976   8.521  10.640  1.0755 -0.3617  1.9079
53478SOL    HW267675  10.861   8.428  10.609 -0.0507  1.9378 -1.4360
53479SOL     OW67676   8.088   9.430   2.137  0.1709 -0.5663  0.1866
53479SOL    HW167677   8.007   9.413   2.185 -0.1160 -1.0753 -0.4546
53479SOL    HW267678   8.090   9.525   2.127 -0.4005 -0.5580  0.1212
53480SOL     OW67679   7.031   5.004   0.028  0.2229  0.1026 -0.0052
53480SOL    HW167680   7.017   4.953   0.109 -1.7167  1.8248  0.8391
53480SOL    HW267681   6.951   4.991  -0.022  0.2876  1.1651 -0.4091
53481SOL     OW67682   5.028   0.218  10.872 -0.1953  0.0598 -0.0528
53481SOL    HW167683   4.970   0.159  10.824  1.8549 -1.7965 -0.3777
53481SOL    HW267684   5.060   0.280  10.806 -0.3561 -0.0740 -0.2552
53482SOL     OW67685   0.630   6.362   4.427  0.2055  0.2163 -0.2334
53482SOL    HW167686   0.608   6.307   4.501  1.1056  0.1806  0.0151
53482SOL    HW267687   0.550   6.364   4.374  0.1035 -1.1813 -0.1642
53483SOL     OW67688   4.458   3.743   4.395 -0.1414  0.4313  0.1821
53483SOL    HW167689   4.501   3.750   4.310 -1.6111  4.4502 -0.4214
53483SOL    HW267690   4.365   3.746   4.375 -0.5481  0.1810  1.8917
53484SOL     OW67691   3.595   1.670  12.311 -0.7667  0.1469  0.1521
53484SOL    HW167692   3.592   1.764  12.293 -0.1234  0.2721  0.6684
53484SOL    HW267693   3.521   1.654  12.369 -0.4867  0.4641  0.6060
53485SOL     OW67694   1.997   3.587  11.256  0.6483 -0.6074  0.2876
53485SOL    HW167695   2.069   3.579  11.193 -1.2082 -1.2913 -1.8865
53485SOL    HW267696   2.016   3.522  11.323  1.0160 -2.3051 -1.3895
53486SOL     OW67697  12.029   7.105   8.139 -0.7013  0.4398 -0.4010
53486SOL    HW167698  12.088   7.134   8.208 -1.3516 -0.0319  0.3760
53486SOL    HW267699  12.060   7.019   8.113 -0.0086  0.9255 -1.2463
53487SOL     OW67700   1.036   2.005   6.064 -0.2477  0.0610  0.1383
53487SOL    HW167701   1.058   1.917   6.035  0.1208  1.0617 -2.9327
53487SOL    HW267702   1.118   2.040   6.099  0.0924 -0.1427 -0.4595
53488SOL     OW67703   4.971   9.536   4.849  0.3953  0.5641 -0.0352
53488SOL    HW167704   4.916   9.520   4.926  1.0252  1.4732  0.6233
53488SOL    HW267705   5.019   9.616   4.870  0.6659  0.7661 -1.3355
53489SOL     OW67706   4.654   7.989  11.536 -0.6059 -0.4639  0.0097
53489SOL    HW167707   4.640   8.004  11.630 -2.0645  0.1706 -0.2894
53489SOL    HW267708   4.567   7.996  11.497 -0.1388 -1.5281 -1.2996
53490SOL     OW67709   1.012   3.406   8.413  0.0632 -0.1099 -0.0467
53490SOL    HW167710   1.103   3.404   8.383 -0.4227  1.1460 -1.8463
53490SOL    HW267711   1.000   3.324   8.461  1.7713 -0.9174 -0.9025
53491SOL     OW67712   3.343  12.196  11.565  0.1230  0.7836  0.2292
53491SOL    HW167713   3.374  12.283  11.591  1.2088  0.8721 -1.2064
53491SOL    HW267714   3.421  12.141  11.568 -1.0324 -0.9580  3.9690
53492SOL     OW67715   9.378   9.670  11.345  0.0799  0.3048 -0.5028
53492SOL    HW167716   9.375   9.760  11.311  1.2620  0.1604 -1.0481
53492SOL    HW267717   9.457   9.633  11.306  0.5221 -0.4455  1.0300
53493SOL     OW67718   8.929   1.704   1.326  0.4401 -0.7949  0.4548
53493SOL    HW167719   8.856   1.654   1.363  0.2465 -2.5589 -2.0703
53493SOL    HW267720   8.888   1.768   1.268  0.8408 -1.5812 -0.7289
53494SOL     OW67721   1.475   1.976   8.406 -0.2627  0.0411  0.3308
53494SOL    HW167722   1.390   2.008   8.437  1.2169  3.9707  0.9462
53494SOL    HW267723   1.518   1.942   8.484 -1.1062 -1.8781  0.0335
53495SOL     OW67724  11.102  11.373   6.888 -0.3743  0.2096 -0.1457
53495SOL    HW167725  11.084  11.430   6.813  0.5274  2.0859  1.0133
53495SOL    HW267726  11.176  11.320   6.860 -1.1174 -0.3238 -1.1826
53496SOL     OW67727   2.542   8.124   6.921 -0.1924  0.9424  0.0754
53496SOL    HW167728   2.527   8.206   6.969 -0.5306  0.9331 -0.0141
53496SOL    HW267729   2.579   8.152   6.837 -0.6157  1.0255 -0.0859
53497SOL     OW67730   4.308   2.973   4.574  0.4949 -0.6377  0.4858
53497SOL    HW167731   4.224   3.012   4.549  0.2593 -0.9451  0.7831
53497SOL    HW267732   4.365   3.048   4.592  0.9310 -0.3805 -1.7226
53498SOL     OW67733   2.433  10.856   9.091  0.1409 -0.0330  0.5295
53498SOL    HW167734   2.465  10.882   9.177  0.0393  0.7083  0.3509
53498SOL    HW267735   2.337  10.856   9.100  0.0405  1.9096 -0.0796
53499SOL     OW67736  11.405   0.271  10.914 -0.2727 -0.3013  0.1805
53499SOL    HW167737  11.379   0.312  10.996 -0.1810 -2.5238  1.3874
53499SOL    HW267738  11.485   0.317  10.888  0.7943 -0.7756  2.3739
53500SOL     OW67739   7.742   2.788   7.612  0.9326 -0.2555 -0.1773
53500SOL    HW167740   7.712   2.710   7.658  3.2236 -0.2549  1.4675
53500SOL    HW267741   7.681   2.797   7.539 -1.5799 -1.5131  1.5953
53501SOL     OW67742   3.026  11.542   8.701 -0.1068 -0.6081  0.0244
53501SOL    HW167743   2.960  11.484   8.740  1.3233 -1.7170  0.8566
53501SOL    HW267744   3.032  11.515   8.610 -0.1811 -1.0835  0.1598
53502SOL     OW67745  10.294   3.147  12.548  0.6641  0.4473 -0.1295
53502SOL    HW167746  10.320   3.191  12.468  2.1274 -0.6881 -0.3280
53502SOL    HW267747  10.308   3.211  12.617  1.3967  0.7688 -0.5674
53503SOL     OW67748   0.225   6.599   5.210  0.0751  0.2547 -0.4907
53503SOL    HW167749   0.249   6.677   5.159 -1.8571  2.1589  1.3231
53503SOL    HW267750   0.140   6.574   5.176  0.6600 -1.0960 -1.0173
53504SOL     OW67751   8.049  10.602  10.388 -0.2092  0.4712 -0.5280
53504SOL    HW167752   7.988  10.531  10.407 -0.6776  0.6846 -1.1963
53504SOL    HW267753   8.065  10.644  10.472  1.4539 -1.5010  0.2235
53505SOL     OW67754   4.756   8.303   0.367  0.2245  0.1398  0.0715
53505SOL    HW167755   4.755   8.368   0.297  1.6865 -0.5133 -0.5857
53505SOL    HW267756   4.812   8.342   0.435  1.3700 -0.5368 -0.4584
53506SOL     OW67757   6.110   5.705  10.071  0.6733  0.0607 -0.1611
53506SOL    HW167758   6.036   5.735  10.124 -1.0052 -1.0527 -1.7533
53506SOL    HW267759   6.155   5.785  10.044  0.6052  0.7182  1.5299
53507SOL     OW67760  10.125  10.154  10.678  0.0577  0.2530  0.0814
53507SOL    HW167761  10.136  10.243  10.644  3.3371 -0.3427 -0.7121
53507SOL    HW267762  10.031  10.137  10.667 -0.6528  3.4721  0.0356
53508SOL     OW67763  10.782   4.623   5.654 -0.4602  0.0565  0.3634
53508SOL    HW167764  10.833   4.703   5.663 -0.2380 -0.1182  0.6474
53508SOL    HW267765  10.751   4.625   5.563  0.6499 -0.1896 -0.0342
53509SOL     OW67766   8.260   9.640  11.674  0.2532 -0.5288  0.3484
53509SOL    HW167767   8.194   9.663  11.609  1.2055  1.3157 -0.0180
53509SOL    HW267768   8.261   9.544  11.674 -0.7353 -0.5724 -1.3456
53510SOL     OW67769   2.209   7.570   3.648 -0.1168 -0.0821 -0.1320
53510SOL    HW167770   2.222   7.608   3.735  0.4993 -1.8278  0.5862
53510SOL    HW267771   2.261   7.626   3.589 -0.8288  1.3347  0.5346
53511SOL     OW67772   6.449   5.573  11.079  0.7877 -0.2069  0.2104
53511SOL    HW167773   6.464   5.554  11.172 -1.3189  0.4924  0.7674
53511SOL    HW267774   6.414   5.663  11.079  0.7308 -0.2100 -1.2549
53512SOL     OW67775   0.734   6.344   6.025  0.7670  0.2992 -0.9197
53512SOL    HW167776   0.664   6.363   5.963  0.6098  0.1814 -0.7809
53512SOL    HW267777   0.706   6.264   6.069  1.6604 -0.5587 -1.8511
53513SOL     OW67778   1.632   8.877  11.292 -0.0327  0.0056  0.3687
53513SOL    HW167779   1.613   8.792  11.333 -1.0565 -0.4727 -1.0280
53513SOL    HW267780   1.554   8.930  11.309 -0.3621 -0.1157 -0.7254
53514SOL     OW67781   3.651   7.371   1.438  0.1320 -0.4670 -0.2156
53514SOL    HW167782   3.648   7.467   1.432 -0.4737 -0.5184 -0.8298
53514SOL    HW267783   3.741   7.352   1.464  0.3954  0.2464 -0.5657
53515SOL     OW67784   9.611   6.685   9.051 -0.2773  0.6248 -0.2454
53515SOL    HW167785   9.637   6.773   9.077 -0.0590  0.4870 -0.0074
53515SOL    HW267786   9.689   6.647   9.012 -0.2842  0.4219 -0.0605
53516SOL     OW67787   1.879  11.352   5.562  0.1388 -0.1658  0.7484
53516SOL    HW167788   1.852  11.337   5.471  0.1012  0.2350  0.6911
53516SOL    HW267789   1.891  11.264   5.598  2.1115 -0.3287 -0.2091
53517SOL     OW67790   1.288   4.953   8.487 -0.0165 -1.0719 -0.8479
53517SOL    HW167791   1.207   4.931   8.532  0.2809 -0.2845  0.1050
53517SOL    HW267792   1.352   4.965   8.557  0.3925  0.4666 -1.4342
53518SOL     OW67793  11.647  10.242   8.840  0.2234  0.4020 -0.1276
53518SOL    HW167794  11.642  10.226   8.746  2.0058  0.1779 -0.2230
53518SOL    HW267795  11.740  10.255   8.857  0.1065 -0.8362  1.8050
53519SOL     OW67796   1.299   3.881   7.601 -0.1282 -0.4024 -0.1403
53519SOL    HW167797   1.361   3.931   7.548  0.1212 -0.4613  0.0897
53519SOL    HW267798   1.227   3.941   7.620  0.4113  0.0359  0.5680
53520SOL     OW67799  12.115   7.966   6.203  0.3405  0.3307 -0.4068
53520SOL    HW167800  12.055   8.017   6.149 -0.0781 -0.2480 -0.5002
53520SOL    HW267801  12.193   7.955   6.148  0.5269  1.0597 -0.2959
53521SOL     OW67802   3.297   5.200   8.435 -0.0121  0.2317  0.5538
53521SOL    HW167803   3.232   5.148   8.388 -1.2898  0.2025  2.2590
53521SOL    HW267804   3.245   5.260   8.489  1.4076  1.1160  1.0038
53522SOL     OW67805  11.836   2.089   6.609 -0.6247 -0.0197  0.5626
53522SOL    HW167806  11.809   2.135   6.688 -1.9969  0.2993 -0.0660
53522SOL    HW267807  11.830   2.154   6.539  2.9661  0.4383  0.4887
53523SOL     OW67808  10.275   9.310   3.832  0.2654  0.6953  0.0996
53523SOL    HW167809  10.277   9.377   3.901  1.0816 -0.6811  1.4641
53523SOL    HW267810  10.295   9.228   3.877 -1.7707 -0.6725 -1.3305
53524SOL     OW67811  10.115   3.406   6.867 -0.5808  0.4073  0.8564
53524SOL    HW167812  10.048   3.402   6.935 -1.1585  2.2890  0.4435
53524SOL    HW267813  10.079   3.465   6.801  0.1616 -1.0077 -0.8968
53525SOL     OW67814   7.437   3.889  11.208 -0.1485  0.2378  0.0444
53525SOL    HW167815   7.443   3.922  11.298  0.9872  1.3502 -0.4108
53525SOL    HW267816   7.470   3.799  11.213 -1.1658 -0.1105  0.9193
53526SOL     OW67817   5.673  10.743   8.921  0.0046 -0.2384  0.0710
53526SOL    HW167818   5.742  10.684   8.890  0.5707  0.8876 -0.8743
53526SOL    HW267819   5.720  10.813   8.966 -0.3072  1.6034 -2.2978
53527SOL     OW67820   5.419   6.468   5.839 -1.0113  0.3559  0.0789
53527SOL    HW167821   5.474   6.537   5.804 -0.6371  0.2303  0.4146
53527SOL    HW267822   5.335   6.511   5.858 -1.8588  0.0601 -2.6301
53528SOL     OW67823  12.445   0.857   8.868 -0.2341 -0.2430 -0.1019
53528SOL    HW167824  12.525   0.868   8.815  0.9202  1.8061  1.9076
53528SOL    HW267825  12.440   0.763   8.884  0.9258 -0.5857 -1.4808
53529SOL     OW67826   8.379  10.775   7.584 -0.3864  0.2246  0.1858
53529SOL    HW167827   8.414  10.860   7.556 -1.3229  0.3280 -0.7141
53529SOL    HW267828   8.372  10.783   7.679 -0.8701  1.3317  0.0767
53530SOL     OW67829  11.435   2.462   8.673 -0.0183  0.3361  0.0595
53530SOL    HW167830  11.388   2.379   8.662  1.8358 -0.8619  0.6099
53530SOL    HW267831  11.511   2.438   8.726  1.9247  1.8830 -1.8736
53531SOL     OW67832   4.352   8.003   7.634 -0.5643  0.3081 -0.5110
53531SOL    HW167833   4.405   8.051   7.571  1.4891  1.8715  2.1686
53531SOL    HW267834   4.412   7.938   7.671 -1.9839 -1.2087 -0.7541
53532SOL     OW67835   3.394   7.716   2.909 -0.0284  0.1948  0.0607
53532SOL    HW167836   3.480   7.674   2.909  0.1883  0.6354  0.1391
53532SOL    HW267837   3.355   7.690   2.825  0.2077  0.0545 -0.0074
53533SOL     OW67838   7.571  10.691  11.822 -0.2425  0.1682 -0.3579
53533SOL    HW167839   7.501  10.666  11.762  0.3468  0.6276 -1.2690
53533SOL    HW267840   7.640  10.626  11.808 -0.6995 -0.6252  0.9604
53534SOL     OW67841   2.287  11.261   3.488 -0.6564  0.3718 -0.2466
53534SOL    HW167842   2.212  11.223   3.443  0.1408 -0.2644 -1.0894
53534SOL    HW267843   2.253  11.287   3.574 -1.6223 -0.7582 -0.2547
53535SOL     OW67844   0.072   6.629   8.392  0.1225 -0.0567  0.6665
53535SOL    HW167845   0.021   6.549   8.400 -0.6411  0.4861  1.3936
53535SOL    HW267846   0.129   6.629   8.469  2.0177 -1.1631 -0.6390
53536SOL     OW67847   0.345   0.968   3.122  0.0236 -0.4396 -0.1460
53536SOL    HW167848   0.384   0.990   3.206  1.5756 -1.0697 -0.6572
53536SOL    HW267849   0.271   1.027   3.113  0.1152 -0.0461  1.4419
53537SOL     OW67850  10.623  12.550   3.557 -0.5136  0.4047 -0.1190
53537SOL    HW167851  10.638  12.503   3.639  1.9393  1.0627 -0.1104
53537SOL    HW267852  10.582  12.485   3.500  0.7132 -1.0794  0.6119
53538SOL     OW67853   7.575   8.233   8.934 -0.2477 -0.6876  0.1933
53538SOL    HW167854   7.645   8.169   8.942 -0.4185 -0.9249 -0.1961
53538SOL    HW267855   7.504   8.186   8.892  0.3645  0.2996 -2.0756
53539SOL     OW67856   2.539   8.506  10.448 -0.0053  0.3418  0.7563
53539SOL    HW167857   2.589   8.433  10.485  0.0260 -0.4009 -0.7191
53539SOL    HW267858   2.448   8.476  10.447  0.3401 -1.0164 -2.7276
53540SOL     OW67859   4.817   9.070   2.033  0.1521 -0.0464 -0.1927
53540SOL    HW167860   4.838   9.161   2.012 -1.3757  0.1264 -1.1332
53540SOL    HW267861   4.766   9.039   1.957  0.2589 -1.5415  0.3155
53541SOL     OW67862   9.242  11.610   0.593 -0.2585  0.4697 -0.0820
53541SOL    HW167863   9.303  11.664   0.643 -0.7296 -0.4543  1.5365
53541SOL    HW267864   9.214  11.667   0.521  2.4038  0.9616 -0.8595
53542SOL     OW67865   6.287  10.661  11.653  0.1084 -1.1165  0.7113
53542SOL    HW167866   6.277  10.661  11.748 -1.6042  0.8371  0.6093
53542SOL    HW267867   6.312  10.751  11.632  1.3865 -1.7357 -0.6535
53543SOL     OW67868  10.840   1.807   4.192  0.3185  0.3000  0.9278
53543SOL    HW167869  10.849   1.715   4.216 -0.1363 -1.0670 -3.4406
53543SOL    HW267870  10.753   1.832   4.224 -0.4423 -1.4708  0.3668
53544SOL     OW67871   2.779   4.720   6.814  0.6001 -0.6141  0.1105
53544SOL    HW167872   2.717   4.793   6.812  0.0089 -1.1117 -0.6980
53544SOL    HW267873   2.865   4.761   6.819  0.2729  0.1434 -0.3468
53545SOL     OW67874   2.788  12.420  12.549 -0.9739 -0.0566 -0.1715
53545SOL    HW167875   2.708  12.455  12.589 -1.3162 -0.0749 -0.8260
53545SOL    HW267876   2.852  12.491  12.558 -1.0727 -0.0248  0.3165
53546SOL     OW67877  11.534   5.574  12.292 -0.3841  0.1545  0.0142
53546SOL    HW167878  11.551   5.480  12.297 -0.9875 -0.0353 -1.1096
53546SOL    HW267879  11.455   5.587  12.345 -1.2717 -0.2659 -1.1631
53547SOL     OW67880  10.644   6.756   3.058  0.2041 -0.2230  0.1571
53547SOL    HW167881  10.727   6.802   3.045  0.1889 -0.7583 -2.2498
53547SOL    HW267882  10.592   6.816   3.113  1.2300  1.3160 -0.4789
53548SOL     OW67883   9.249  10.345   7.406  0.4177 -0.0733 -0.4200
53548SOL    HW167884   9.331  10.353   7.357  0.0597  2.2312 -0.7892
53548SOL    HW267885   9.276  10.318   7.493  1.5523  0.4086 -0.5998
53549SOL     OW67886   4.702  11.431   6.788 -0.5820 -0.1442  0.4322
53549SOL    HW167887   4.699  11.359   6.852 -0.7435  1.1025  1.8866
53549SOL    HW267888   4.735  11.506   6.838 -0.6826  0.8674 -0.9692
53550SOL     OW67889   1.428   2.597   4.653 -0.0495  0.5102  0.1017
53550SOL    HW167890   1.357   2.550   4.610  0.8393  0.7961 -1.7593
53550SOL    HW267891   1.468   2.533   4.711 -1.8395  0.3677  1.2358
53551SOL     OW67892  11.453   4.847   1.564  0.2065 -0.6843 -0.0367
53551SOL    HW167893  11.529   4.806   1.524 -0.1373 -2.6349  1.2142
53551SOL    HW267894  11.480   4.938   1.578  1.4946 -0.7852 -1.5969
53552SOL     OW67895   8.746   1.357   2.056 -0.0678  0.5331 -0.1182
53552SOL    HW167896   8.733   1.422   2.125  1.2388 -0.0029  0.6733
53552SOL    HW267897   8.678   1.376   1.992  0.8155  3.3099 -0.3975
53553SOL     OW67898   8.693  11.006   4.782 -0.2952  0.5965 -0.7870
53553SOL    HW167899   8.783  10.971   4.781  0.5208  2.5612 -1.2982
53553SOL    HW267900   8.648  10.957   4.713 -0.1033 -1.4746  0.4721
53554SOL     OW67901   6.486   8.855   2.050  0.0356  0.0989  0.4547
53554SOL    HW167902   6.443   8.794   2.110  0.8976  0.9575  1.9921
53554SOL    HW267903   6.564   8.884   2.097 -0.0521  1.9493 -0.4697
53555SOL     OW67904   7.975   0.051   8.636  0.7505  0.2799 -0.4466
53555SOL    HW167905   7.932   0.062   8.552  0.3885 -0.6999 -0.4026
53555SOL    HW267906   7.904   0.050   8.700  0.8789 -0.6533 -0.3065
53556SOL     OW67907   4.218   6.799   1.508  0.3173  0.5258 -0.0550
53556SOL    HW167908   4.170   6.881   1.499 -1.1253 -0.1873  0.7925
53556SOL    HW267909   4.159   6.732   1.474  0.3308 -0.4711  1.7198
53557SOL     OW67910   8.974   1.476   8.705  0.3078 -0.0442  0.1682
53557SOL    HW167911   8.966   1.506   8.614  0.9951 -2.0232 -0.5856
53557SOL    HW267912   8.899   1.419   8.718 -1.0083  1.8644  1.6103
53558SOL     OW67913   4.707  10.188   6.558 -0.4609 -0.1207  0.2457
53558SOL    HW167914   4.632  10.242   6.532  2.1700  4.2893  0.6355
53558SOL    HW267915   4.686  10.158   6.647 -1.6439  1.3368  0.5006
53559SOL     OW67916   1.162   3.761  10.613  0.1425  0.7031 -0.4939
53559SOL    HW167917   1.111   3.771  10.693  2.0402  1.0950  0.7295
53559SOL    HW267918   1.181   3.668  10.607  1.8201  0.9321  0.7441
53560SOL     OW67919  12.603   2.239  10.979 -0.6125  0.3750 -0.2914
53560SOL    HW167920  12.515   2.271  10.999 -0.5395 -0.6940  2.0251
53560SOL    HW267921  12.653   2.254  11.059  1.6198  1.7485 -1.8249
53561SOL     OW67922   8.733   6.601   6.881 -0.6094 -0.1610 -0.0774
53561SOL    HW167923   8.778   6.526   6.842 -0.7718 -0.3865  0.1640
53561SOL    HW267924   8.801   6.667   6.892 -0.8749  0.6019 -2.4262
53562SOL     OW67925   2.883   3.938   0.422  0.5443 -0.9309  0.6322
53562SOL    HW167926   2.858   3.852   0.454  1.3945 -1.6336 -0.5154
53562SOL    HW267927   2.972   3.927   0.389  0.9188  0.5536  1.0504
53563SOL     OW67928  10.581   9.095  12.683  0.2560 -0.4023 -0.0345
53563SOL    HW167929  10.590   9.113  12.777 -0.0054  1.7701 -0.3723
53563SOL    HW267930  10.647   9.150  12.641 -2.7833  2.5487 -1.3800
53564SOL     OW67931  11.529   3.708   6.188  0.1171  0.3142 -0.4044
53564SOL    HW167932  11.576   3.627   6.172  1.4332  1.1800 -1.0889
53564SOL    HW267933  11.597   3.770   6.214 -0.5885  1.6547 -1.6280
53565SOL     OW67934   5.761   0.290   3.946 -0.2675  0.0822  0.0418
53565SOL    HW167935   5.812   0.230   4.001  0.5539  0.6300 -0.1068
53565SOL    HW267936   5.670   0.267   3.964  0.0137 -0.4888  0.7916
53566SOL     OW67937   4.726   9.257   9.683 -0.2101 -0.1299  0.1856
53566SOL    HW167938   4.764   9.345   9.676  2.0495 -0.8754  1.8838
53566SOL    HW267939   4.667   9.262   9.758  1.0280 -0.3595  1.2161
53567SOL     OW67940   3.096  10.833   6.968 -0.3885  0.8392  0.1873
53567SOL    HW167941   3.180  10.790   6.983  0.2466  1.8487 -0.3350
53567SOL    HW267942   3.031  10.775   7.009  0.3501 -0.8703 -0.9534
53568SOL     OW67943   3.819   9.622   5.947  0.1817  0.0797  0.5267
53568SOL    HW167944   3.878   9.655   6.015 -0.9662  1.6583  0.8172
53568SOL    HW267945   3.733   9.652   5.974 -0.4032  0.1171 -1.2633
53569SOL     OW67946   0.294  11.482   2.218  0.0950 -0.3722  0.2467
53569SOL    HW167947   0.280  11.489   2.312  0.5401  1.3425  0.2110
53569SOL    HW267948   0.386  11.460   2.208  1.5427  4.5936  0.2167
53570SOL     OW67949   3.456   2.460   9.080  0.2941  0.0896  0.2724
53570SOL    HW167950   3.426   2.495   8.997 -2.8875  1.6787  1.9113
53570SOL    HW267951   3.434   2.367   9.077  0.4352  0.0800 -0.7097
53571SOL     OW67952   2.388  11.915  10.193  0.2211 -0.3684  0.4053
53571SOL    HW167953   2.469  11.933  10.147 -0.1796  0.5386  0.0317
53571SOL    HW267954   2.319  11.936  10.130 -0.3111 -2.6977  0.1224
53572SOL     OW67955   1.286   0.076   0.933 -0.5719  0.7208  0.0845
53572SOL    HW167956   1.342   0.117   0.999 -0.2586 -0.4637  0.5843
53572SOL    HW267957   1.304   0.124   0.852  1.9556 -0.2214 -0.0159
53573SOL     OW67958   4.483   1.632   4.534 -0.2424 -0.6862 -0.1359
53573SOL    HW167959   4.556   1.693   4.542 -2.6855  2.6364 -0.8055
53573SOL    HW267960   4.450   1.623   4.624  0.5846 -1.7277  0.0805
53574SOL     OW67961   1.815  10.708  10.578  0.0387 -0.1428  0.3844
53574SOL    HW167962   1.831  10.786  10.631 -1.4122  0.7322 -0.4144
53574SOL    HW267963   1.768  10.740  10.501 -1.4643 -1.9197  0.4953
53575SOL     OW67964   8.834   9.302  12.169  0.1478  0.7070  0.2838
53575SOL    HW167965   8.839   9.384  12.121 -0.6393  1.5480  1.5635
53575SOL    HW267966   8.853   9.326  12.260 -0.8637 -0.3655  0.8164
53576SOL     OW67967   2.636   1.575   4.779  0.2908 -0.6160 -0.3691
53576SOL    HW167968   2.632   1.665   4.746  0.6023  0.1990  1.6334
53576SOL    HW267969   2.704   1.577   4.846 -0.2030 -2.1728  0.2275
53577SOL     OW67970   8.667  12.395   1.862 -0.1609 -0.2907 -0.1875
53577SOL    HW167971   8.655  12.302   1.844 -1.2127 -0.4556  1.1982
53577SOL    HW267972   8.643  12.405   1.954  1.1704  1.1419  0.0496
53578SOL     OW67973   4.549  11.446   3.361  0.2158  0.0846  0.0373
53578SOL    HW167974   4.498  11.470   3.438 -1.1509  0.0495 -0.8199
53578SOL    HW267975   4.567  11.352   3.372 -0.0087  0.0715  0.2881
53579SOL     OW67976   7.956  11.935  10.795  0.1305 -0.0519 -0.0750
53579SOL    HW167977   8.039  11.906  10.759  0.0870  1.3752 -1.4435
53579SOL    HW267978   7.976  12.016  10.841 -0.6134  0.8279 -1.2312
53580SOL     OW67979   7.044   7.078   2.880 -0.0968  0.2364 -0.8750
53580SOL    HW167980   6.949   7.064   2.876 -0.0535  0.1111 -1.5584
53580SOL    HW267981   7.081   6.991   2.865  0.1262  0.3084 -0.7352
53581SOL     OW67982   1.674  10.828  10.377 -0.6003 -0.2516 -0.3929
53581SOL    HW167983   1.684  10.873  10.293 -1.1651 -0.8507 -0.7922
53581SOL    HW267984   1.579  10.825  10.391 -0.5108 -0.1601  0.2691
53582SOL     OW67985   9.698   8.090   8.016  0.3519  0.2289 -0.5850
53582SOL    HW167986   9.635   8.033   8.060 -0.7054 -0.6886 -3.1027
53582SOL    HW267987   9.777   8.037   8.007  0.4368  0.2821 -0.1899
53583SOL     OW67988   8.655   7.346  11.679 -0.1341 -0.2386  0.2831
53583SOL    HW167989   8.723   7.280  11.665  1.0809  0.9651  0.4220
53583SOL    HW267990   8.658   7.366  11.772 -0.2448  0.2891  0.1766
53584SOL     OW67991   4.216   7.937   4.310  0.6057 -0.2640  0.1152
53584SOL    HW167992   4.228   7.959   4.217  1.7510 -0.6536  0.1543
53584SOL    HW267993   4.294   7.887   4.333 -0.6240 -2.0197  0.7408
53585SOL     OW67994  11.523   8.270   3.287 -0.2703  0.5399 -0.2744
53585SOL    HW167995  11.434   8.250   3.314  0.1220  0.2098  0.8278
53585SOL    HW267996  11.523   8.256   3.192 -0.6654 -2.3504  0.0561
53586SOL     OW67997   2.130   6.105   1.337 -0.5702 -0.1585 -0.0991
53586SOL    HW167998   2.086   6.020   1.328 -0.4539 -0.0412 -2.4548
53586SOL    HW267999   2.200   6.101   1.271 -0.4131  1.6767 -0.0699
53587SOL     OW68000   0.744   2.449   2.622  0.2466 -0.2797 -0.5748
53587SOL    HW168001   0.794   2.373   2.654  0.9703  0.7596  0.8675
53587SOL    HW268002   0.808   2.520   2.620 -0.9751  0.9187  0.6613
53588SOL     OW68003   5.862   7.332   0.950  0.3648  0.2901  0.4177
53588SOL    HW168004   5.782   7.331   0.899  0.1559  0.5781  0.7310
53588SOL    HW268005   5.930   7.361   0.889  0.1740  0.3477  0.2337
53589SOL     OW68006   7.686   7.872   9.431 -0.1683  0.5758  0.3425
53589SOL    HW168007   7.723   7.960   9.439 -0.9670  0.9778 -0.1581
53589SOL    HW268008   7.597   7.881   9.466 -0.3949  0.0755 -0.0950
53590SOL     OW68009   7.339   1.734   4.527  0.1555  0.4522  0.1515
53590SOL    HW168010   7.307   1.711   4.614 -0.3522  0.4870 -0.0212
53590SOL    HW268011   7.329   1.653   4.476 -0.5195  0.7123 -0.1415
53591SOL     OW68012   7.106   7.873  11.847 -0.5856 -0.3444  0.0153
53591SOL    HW168013   7.082   7.782  11.867 -0.3621 -0.1459  1.2686
53591SOL    HW268014   7.139   7.907  11.930  2.5425 -0.1322 -1.2022
53592SOL     OW68015  10.077   8.009  10.815 -0.1144  0.1595 -0.1013
53592SOL    HW168016  10.047   7.918  10.816 -1.8159  0.6779 -1.0765
53592SOL    HW268017  10.124   8.020  10.898  3.1003 -2.5038 -1.3317
53593SOL     OW68018   3.911  10.685   4.616  0.2219 -0.3511 -0.5199
53593SOL    HW168019   3.945  10.690   4.705 -0.4014 -0.6042 -0.2610
53593SOL    HW268020   3.941  10.600   4.584 -0.6419 -0.8357 -0.0824
53594SOL     OW68021   8.378   7.462  12.215 -0.2612  0.3183 -0.2784
53594SOL    HW168022   8.324   7.540  12.225 -1.7397 -0.7001  0.1212
53594SOL    HW268023   8.414   7.469  12.126 -0.7663  1.2026 -0.4277
53595SOL     OW68024   1.125   0.082   2.941 -0.6878  0.4695 -0.3865
53595SOL    HW168025   1.123   0.146   2.870 -0.1479 -0.0630 -0.9014
53595SOL    HW268026   1.190   0.116   3.002 -0.4566  0.4556 -0.6218
53596SOL     OW68027   0.589   9.099   4.006  0.1583 -0.0644  0.3740
53596SOL    HW168028   0.563   9.007   4.011 -0.3805 -0.0022 -1.0076
53596SOL    HW268029   0.649   9.111   4.080  1.3761 -1.8889 -0.2454
53597SOL     OW68030   1.919   2.771   5.767 -0.0086 -0.3583  1.1765
53597SOL    HW168031   1.844   2.829   5.774 -0.9877 -1.6078  1.2865
53597SOL    HW268032   1.994   2.826   5.789 -1.0480  0.5050  2.7208
53598SOL     OW68033   4.230   7.328   0.458  0.0690  0.1089 -0.0409
53598SOL    HW168034   4.138   7.336   0.431 -0.1814 -1.4105  0.2443
53598SOL    HW268035   4.226   7.306   0.551  0.7395  0.1912  0.0128
53599SOL     OW68036  10.489   7.886  11.142 -0.4573  0.0418 -0.1720
53599SOL    HW168037  10.510   7.847  11.227  1.1655  1.6839  0.2576
53599SOL    HW268038  10.444   7.968  11.164 -2.2344 -0.6740 -0.9923
53600SOL     OW68039   3.260  11.034  11.136 -0.3508  0.0444 -0.2357
53600SOL    HW168040   3.261  10.958  11.077  2.5265 -1.2443  1.2815
53600SOL    HW268041   3.323  11.095  11.098  0.0578  0.0524  0.4426
53601SOL     OW68042   6.031   9.725  11.670  0.2146  0.3299 -0.3388
53601SOL    HW168043   6.020   9.818  11.693  2.9145  1.0299 -1.4405
53601SOL    HW268044   6.037   9.726  11.574  0.6933 -0.9266 -0.3286
53602SOL     OW68045  11.687  11.286   8.471 -0.1283 -0.2872  0.1330
53602SOL    HW168046  11.703  11.328   8.386 -1.1645  0.1624  0.1510
53602SOL    HW268047  11.688  11.192   8.452 -2.3080 -0.1652 -0.7616
53603SOL     OW68048   5.633  10.953   9.406 -0.2832  0.6688  0.3333
53603SOL    HW168049   5.658  11.042   9.381 -2.1552  1.4294  0.9700
53603SOL    HW268050   5.712  10.901   9.391  0.3526  2.0822 -1.7476
53604SOL     OW68051   0.063   1.121  10.498 -0.0265 -0.2960  0.1359
53604SOL    HW168052   0.044   1.090  10.410 -2.1339  0.6816  0.1935
53604SOL    HW268053   0.139   1.179  10.487  0.6720 -1.3394 -0.7577
53605SOL     OW68054   4.021   6.097   1.832 -0.5781 -0.0301 -0.0002
53605SOL    HW168055   3.963   6.026   1.857  0.1231 -0.3365  0.8207
53605SOL    HW268056   4.029   6.091   1.737  1.4704 -2.6831  0.2225
53606SOL     OW68057   1.062   9.552   9.179  0.0461 -0.1026 -0.2728
53606SOL    HW168058   1.140   9.603   9.204  0.0985 -0.5845  0.5847
53606SOL    HW268059   0.990   9.592   9.228  0.3660 -1.8704  1.7839
53607SOL     OW68060   6.187   3.261   6.899  0.2734 -0.2626  0.1031
53607SOL    HW168061   6.116   3.219   6.851 -1.6359  1.4492  1.2735
53607SOL    HW268062   6.247   3.292   6.831 -1.1038 -0.0564 -1.0538
53608SOL     OW68063   3.038  12.326   5.727  0.3647  0.2289  0.4276
53608SOL    HW168064   3.110  12.379   5.761  1.3180 -1.7845  1.7899
53608SOL    HW268065   2.974  12.324   5.798 -0.2736  0.6400 -0.1329
53609SOL     OW68066   0.459  10.818   0.931 -0.1062 -0.1427 -0.0603
53609SOL    HW168067   0.506  10.788   0.853  0.3318 -0.1001  0.1869
53609SOL    HW268068   0.448  10.740   0.984  0.9055  0.0860  0.5150
53610SOL     OW68069   8.218  10.316   9.867  0.2159 -0.0625  0.0393
53610SOL    HW168070   8.225  10.323   9.962  1.5493 -0.0189 -0.0400
53610SOL    HW268071   8.264  10.235   9.846 -1.2370 -0.7989 -0.4704
53611SOL     OW68072   6.490   4.697   4.612  0.2537  0.5231  0.3036
53611SOL    HW168073   6.544   4.767   4.647  0.6920  1.2893 -1.7907
53611SOL    HW268074   6.548   4.648   4.553 -0.1019 -1.4961  1.5147
53612SOL     OW68075   6.611   0.512   9.016 -0.2117 -0.4617  0.5485
53612SOL    HW168076   6.554   0.489   8.943 -0.7108  0.0538  0.7694
53612SOL    HW268077   6.684   0.559   8.977 -2.0977  2.8332  0.6466
53613SOL     OW68078   8.920  11.730   0.612  0.4931 -0.2752  0.5039
53613SOL    HW168079   8.961  11.644   0.616  0.2074 -0.5066 -0.8995
53613SOL    HW268080   8.857  11.722   0.540 -0.2394  0.8105  1.0074
53614SOL     OW68081  12.017   4.414  10.248 -0.0204  0.0886 -0.3729
53614SOL    HW168082  12.106   4.433  10.278 -0.1408  0.8229 -0.4606
53614SOL    HW268083  11.981   4.499  10.224 -0.4157 -0.3184 -1.2674
53615SOL     OW68084   7.451   7.390  11.506 -0.0231  0.0140 -0.3546
53615SOL    HW168085   7.460   7.361  11.596 -0.8724 -0.2597 -0.3544
53615SOL    HW268086   7.457   7.486  11.510 -2.2696  0.1745  0.2861
53616SOL     OW68087   8.315   5.441   2.166 -0.1159 -0.3125 -0.1793
53616SOL    HW168088   8.236   5.423   2.115 -0.5088  0.6178  0.0722
53616SOL    HW268089   8.327   5.536   2.159  1.3037 -0.5035 -0.6702
53617SOL     OW68090   9.538   7.545   5.716  0.1256  0.0826 -0.1625
53617SOL    HW168091   9.478   7.555   5.642 -0.5846 -0.8620  0.2671
53617SOL    HW268092   9.620   7.514   5.676  0.4775  1.6924 -0.7928
53618SOL     OW68093   9.751   9.010   1.355 -0.3790 -0.4782 -0.1034
53618SOL    HW168094   9.784   8.936   1.305 -0.0789  0.1649 -0.8903
53618SOL    HW268095   9.816   9.023   1.424  0.3903  0.0032 -0.8971
53619SOL     OW68096  11.524   7.577   0.433  0.4352 -1.0670  0.0111
53619SOL    HW168097  11.439   7.589   0.391 -0.1037 -2.2878  0.6771
53619SOL    HW268098  11.555   7.492   0.401  0.7057 -1.3196  0.8915
53620SOL     OW68099   5.656   6.145  11.190 -0.3189 -0.0688  0.2958
53620SOL    HW168100   5.716   6.078  11.156  1.4468  1.2340  0.6692
53620SOL    HW268101   5.711   6.224  11.197 -1.6512  0.7378  2.3425
53621SOL     OW68102   1.997   0.368   5.927 -0.2852  0.3090  0.0389
53621SOL    HW168103   1.966   0.322   6.005  0.2946  2.6343  1.7534
53621SOL    HW268104   1.920   0.413   5.894 -0.3176  0.1173 -0.1484
53622SOL     OW68105   2.163   6.944   1.453  0.1789 -0.2903  0.3203
53622SOL    HW168106   2.164   6.866   1.508  0.5265 -0.5168  0.0001
53622SOL    HW268107   2.070   6.968   1.446  0.2119  0.4502  1.9721
53623SOL     OW68108  10.001   0.971   4.441  0.1534 -0.3866  0.1328
53623SOL    HW168109  10.026   0.882   4.463  0.7480  0.0429  1.2570
53623SOL    HW268110  10.084   1.019   4.433 -0.1147 -0.1101 -1.3214
53624SOL     OW68111   9.990   3.291  11.607  0.0414  0.0368 -0.1261
53624SOL    HW168112  10.053   3.312  11.538 -0.2888 -0.2115 -0.5129
53624SOL    HW268113   9.907   3.325  11.574 -0.0202  0.4077  0.4038
53625SOL     OW68114  11.009   8.774   6.755  0.3013 -0.1028  0.4388
53625SOL    HW168115  10.950   8.715   6.803 -1.4886  1.2044 -0.0308
53625SOL    HW268116  10.985   8.763   6.663  0.4658  0.7820  0.2799
53626SOL     OW68117  11.205   7.255  11.262  0.3641  0.5283  0.0700
53626SOL    HW168118  11.120   7.222  11.231  0.4272  1.5646 -1.2862
53626SOL    HW268119  11.257   7.176  11.277 -0.4451 -0.0867 -0.2573
53627SOL     OW68120   5.788  11.133  12.520  0.3467  0.0068 -0.3368
53627SOL    HW168121   5.725  11.061  12.529 -0.1531  0.5307  0.4225
53627SOL    HW268122   5.826  11.142  12.607 -1.3641  2.2691  0.2595
53628SOL     OW68123   2.858   2.724  12.073  0.3858  0.4864 -0.1469
53628SOL    HW168124   2.764   2.707  12.076  0.3778  0.6372  1.6740
53628SOL    HW268125   2.865   2.819  12.065  0.3893  0.4654 -0.4016
53629SOL     OW68126   3.349   3.135   9.243 -0.0182  0.0467  0.0286
53629SOL    HW168127   3.389   3.125   9.330  1.4570 -1.0203 -0.7301
53629SOL    HW268128   3.358   3.048   9.203 -1.9876  0.1238 -0.6800
53630SOL     OW68129  10.784   1.617   2.066 -0.5591  0.2490  0.7399
53630SOL    HW168130  10.750   1.638   1.978  0.7110  1.0762  0.4251
53630SOL    HW268131  10.753   1.689   2.121  0.2430  0.7452  0.5552
53631SOL     OW68132   5.590   5.460   2.152  0.0271  0.2423  0.1092
53631SOL    HW168133   5.590   5.546   2.110  0.4561 -0.0179 -0.4370
53631SOL    HW268134   5.658   5.411   2.105  0.7697  0.0571  1.3308
53632SOL     OW68135   5.330   5.144  12.627  0.0194 -0.4332 -0.3167
53632SOL    HW168136   5.322   5.208  12.556  0.6175  0.4209  0.3735
53632SOL    HW268137   5.423   5.121  12.628 -0.0403 -0.6593 -0.0034
53633SOL     OW68138   1.554   4.828  10.628 -0.2596 -0.1658  0.0683
53633SOL    HW168139   1.501   4.749  10.636 -0.5043 -0.0148 -0.0537
53633SOL    HW268140   1.492   4.897  10.606 -0.1003  0.1316  0.5221
53634SOL     OW68141   6.405   4.220  11.135  0.1066  0.0386  0.3049
53634SOL    HW168142   6.310   4.208  11.136  0.0213  0.5942 -0.1212
53634SOL    HW268143   6.418   4.301  11.086  0.7411  0.6040  1.3695
53635SOL     OW68144   1.052   2.319   4.399  0.0345 -0.5181  0.3610
53635SOL    HW168145   1.005   2.383   4.345  2.3295  0.7041 -0.3592
53635SOL    HW268146   0.996   2.305   4.474 -1.3507  1.0353 -0.3155
53636SOL     OW68147   8.807   7.738   0.369 -0.4693  0.8331  0.5123
53636SOL    HW168148   8.865   7.692   0.430  0.2769 -0.2963 -0.9727
53636SOL    HW268149   8.863   7.756   0.293 -1.4510  1.8980  0.0181
53637SOL     OW68150  10.557   6.526   7.688 -0.0428  0.3859  0.3170
53637SOL    HW168151  10.600   6.600   7.730 -2.1930  1.5076  0.6876
53637SOL    HW268152  10.469   6.558   7.668 -1.3153 -2.3035  1.2022
53638SOL     OW68153  12.340  11.343   1.438 -1.0384  0.3855  0.2123
53638SOL    HW168154  12.269  11.298   1.391 -0.6597  0.9292 -0.9028
53638SOL    HW268155  12.295  11.394   1.506 -1.8624  1.7390 -1.2820
53639SOL     OW68156   4.105   9.777   5.211 -0.1187 -0.5437 -0.0177
53639SOL    HW168157   4.153   9.695   5.218 -1.3627 -1.1446  2.6555
53639SOL    HW268158   4.081   9.799   5.301  1.0391  3.3291 -0.4581
53640SOL     OW68159   1.623  12.707   2.352  0.0456 -0.0072 -0.5398
53640SOL    HW168160   1.565  12.698   2.275 -0.9860 -0.1953  0.2319
53640SOL    HW268161   1.631  12.618   2.386  0.1720  0.1335 -0.2027
53641SOL     OW68162   6.909  11.095   2.980  0.0100 -0.0885  0.0599
53641SOL    HW168163   6.934  11.139   3.061  0.2110  1.2670 -0.6936
53641SOL    HW268164   6.822  11.060   2.998  0.2270 -0.1630  0.9920
53642SOL     OW68165   7.020   2.834   3.460  0.2821 -0.1835 -0.2158
53642SOL    HW168166   6.929   2.856   3.442 -0.4503 -1.9525  1.0240
53642SOL    HW268167   7.067   2.863   3.382 -1.3177  0.8047 -0.8679
53643SOL     OW68168   0.966   0.757   6.901 -0.2923  0.4277 -0.0526
53643SOL    HW168169   0.927   0.671   6.910  0.5937 -0.0032 -0.2366
53643SOL    HW268170   0.964   0.794   6.989  0.8408 -0.4594  0.3628
53644SOL     OW68171   4.622   6.694  10.478  0.1693  0.2015  0.2654
53644SOL    HW168172   4.700   6.719  10.527  2.6029 -0.8264 -2.7346
53644SOL    HW268173   4.603   6.770  10.423 -0.3206  0.0612  0.2332
53645SOL     OW68174   9.768   0.602   9.497  0.0390 -0.1956  0.3958
53645SOL    HW168175   9.817   0.547   9.436 -0.6338 -0.8060  0.3885
53645SOL    HW268176   9.832   0.628   9.563  1.1083  1.5487 -1.2411
53646SOL     OW68177  11.355   8.034  11.100  0.3572  0.1234  0.2456
53646SOL    HW168178  11.401   8.111  11.064 -0.0486  0.7325  1.0082
53646SOL    HW268179  11.324   8.063  11.185 -1.3932 -0.2891 -0.2212
53647SOL     OW68180   5.971  12.323   2.922 -0.0160  0.0761 -0.5772
53647SOL    HW168181   6.002  12.234   2.902 -0.4818 -0.2590  0.1428
53647SOL    HW268182   5.902  12.339   2.857 -0.3354 -0.3307 -0.3519
53648SOL     OW68183   3.992   6.770   6.868  0.4703 -0.1437  0.1945
53648SOL    HW168184   4.005   6.813   6.784  1.3419 -1.0319 -0.1452
53648SOL    HW268185   4.023   6.834   6.933  1.6020 -0.1711 -0.2925
53649SOL     OW68186   9.434   2.479   9.944 -0.1942 -0.4463 -0.1140
53649SOL    HW168187   9.526   2.455   9.956 -0.6081 -1.9661  0.1765
53649SOL    HW268188   9.435   2.542   9.872  1.0702 -0.4508 -0.1132
53650SOL     OW68189   0.562   4.704   6.707 -0.2560 -0.0073  0.1057
53650SOL    HW168190   0.510   4.739   6.635  0.5760 -0.5903 -0.8038
53650SOL    HW268191   0.523   4.741   6.786 -1.6840  0.0102 -0.5897
53651SOL     OW68192   5.936   0.119   3.046 -0.6143 -0.6099 -0.5589
53651SOL    HW168193   5.962   0.062   2.974 -0.0396  0.0116 -0.8498
53651SOL    HW268194   5.986   0.199   3.032 -0.3826 -0.5350  0.6160
53652SOL     OW68195   4.572  12.450   1.771  0.3478  0.0634  0.2915
53652SOL    HW168196   4.545  12.490   1.854  0.2013 -1.5129  1.0413
53652SOL    HW268197   4.498  12.396   1.745 -0.4674  2.1434 -2.0152
53653SOL     OW68198   5.394   3.454  11.411 -0.0345  0.1203  0.4263
53653SOL    HW168199   5.378   3.421  11.499  2.1410  0.6769  1.0850
53653SOL    HW268200   5.428   3.378  11.363 -0.5543 -0.0077  0.2534
53654SOL     OW68201   4.880   5.344  11.760  0.1005  0.1871  0.3523
53654SOL    HW168202   4.946   5.330  11.828  0.5591  0.4236 -0.0335
53654SOL    HW268203   4.904   5.284  11.690 -2.1138 -2.2908  1.5519
53655SOL     OW68204  11.767   3.074   0.229  0.2154 -0.2707  0.2444
53655SOL    HW168205  11.716   3.139   0.276 -0.0319 -0.5667  0.3909
53655SOL    HW268206  11.766   2.997   0.286 -0.1548 -0.6587 -0.2790
53656SOL     OW68207  10.473   6.221   2.865  0.2665  0.0710  0.3850
53656SOL    HW168208  10.537   6.150   2.861  1.0536  0.7414  0.8097
53656SOL    HW268209  10.414   6.204   2.791  2.7195  1.1321 -2.0124
53657SOL     OW68210   3.688   5.575   0.141  0.1941 -0.5292 -0.0146
53657SOL    HW168211   3.621   5.599   0.077 -2.1058  2.1983  3.0889
53657SOL    HW268212   3.771   5.595   0.097 -1.1781  0.5169 -2.3687
53658SOL     OW68213   0.732   1.980   8.729  0.2496 -0.5902 -0.0244
53658SOL    HW168214   0.804   2.002   8.788 -0.4252 -0.5937  0.8321
53658SOL    HW268215   0.739   2.043   8.658  0.7559 -0.2206  0.3461
53659SOL     OW68216   0.127   9.312   6.399  0.1299 -0.2334  0.3526
53659SOL    HW168217   0.085   9.234   6.364 -0.5120 -1.0342  2.7046
53659SOL    HW268218   0.056   9.376   6.408  0.2344 -0.1275  0.4287
53660SOL     OW68219  11.748   5.795   9.103  0.2551  0.2692  0.2955
53660SOL    HW168220  11.757   5.737   9.027  2.7817 -1.2027  1.5946
53660SOL    HW268221  11.817   5.860   9.092 -0.8337  1.4433  0.2238
53661SOL     OW68222   9.100   6.650  11.029 -0.9727  0.2860  0.1713
53661SOL    HW168223   9.047   6.686  10.957 -1.4170  0.0005  0.3560
53661SOL    HW268224   9.048   6.667  11.108 -1.3429 -1.0513  0.2293
53662SOL     OW68225   8.137   9.608  10.949  0.4640 -0.3196 -0.3257
53662SOL    HW168226   8.098   9.525  10.922 -0.5842  0.1747 -0.3593
53662SOL    HW268227   8.203   9.583  11.014 -3.5003 -0.9213  3.9633
53663SOL     OW68228   1.436   7.854   6.076 -0.6652 -0.2295 -0.0402
53663SOL    HW168229   1.358   7.818   6.035 -1.8249  1.7882  0.2452
53663SOL    HW268230   1.404   7.926   6.130  1.3500  0.3507  0.4884
53664SOL     OW68231   6.484   2.308   6.299  0.0909  0.2755  0.3676
53664SOL    HW168232   6.473   2.268   6.213 -0.7775 -0.4930  0.8092
53664SOL    HW268233   6.396   2.309   6.336  0.3062  1.4505  0.8911
53665SOL     OW68234   5.765   4.234  12.358 -0.1051 -0.7181 -0.2896
53665SOL    HW168235   5.781   4.300  12.426  1.1572 -1.9299  0.6496
53665SOL    HW268236   5.828   4.255  12.289  0.8433 -1.3767  0.3557
53666SOL     OW68237   8.195   1.281   2.370  0.0249  0.5757 -0.0371
53666SOL    HW168238   8.279   1.297   2.413  1.1649 -4.8784  0.5024
53666SOL    HW268239   8.137   1.250   2.440 -1.1777  0.4583 -1.0391
53667SOL     OW68240   2.897   9.188   0.439 -0.0351 -0.5462  0.2526
53667SOL    HW168241   2.873   9.225   0.354  1.6004 -0.4301 -0.1971
53667SOL    HW268242   2.881   9.094   0.429 -0.0436 -0.5097 -0.1119
53668SOL     OW68243   6.788   4.958   9.797 -0.7548  0.4298 -0.4844
53668SOL    HW168244   6.843   4.985   9.871 -0.2350  1.6193 -1.2761
53668SOL    HW268245   6.798   4.863   9.793 -0.8717  0.3271  1.0228
53669SOL     OW68246   4.421   2.957   2.799  0.3677  0.3730 -0.2190
53669SOL    HW168247   4.428   3.046   2.764  0.1554  0.6135  0.3371
53669SOL    HW268248   4.400   2.903   2.723  0.4570  0.8051 -0.5547
53670SOL     OW68249   0.680   7.939   9.688  0.2137  0.5966 -0.3159
53670SOL    HW168250   0.740   7.972   9.755  1.4906 -0.7745 -0.7237
53670SOL    HW268251   0.676   8.010   9.623  1.0777  0.8874 -0.0745
53671SOL     OW68252   8.497  12.571  12.710  0.3193  0.3959  0.2318
53671SOL    HW168253   8.477  12.638  12.776  1.0826  1.8755 -0.9937
53671SOL    HW268254   8.563  12.611  12.654 -1.1448 -0.3435 -2.1669
53672SOL     OW68255   9.169   7.624   5.664  0.3607  0.7017 -0.1643
53672SOL    HW168256   9.124   7.559   5.610  0.1182  1.0088 -0.3361
53672SOL    HW268257   9.238   7.658   5.606 -1.3619  2.7360 -1.1561
53673SOL     OW68258   6.565  10.266   1.852 -0.2768  0.2948  0.4810
53673SOL    HW168259   6.620  10.238   1.925  0.7540 -1.8589 -1.0217
53673SOL    HW268260   6.537  10.184   1.811 -1.6422  1.4291 -0.9581
53674SOL     OW68261   3.500   5.640   3.110  0.2883  0.0952 -0.0828
53674SOL    HW168262   3.429   5.582   3.137 -1.4021  1.1355 -2.0237
53674SOL    HW268263   3.497   5.712   3.173  0.4799 -0.4848  0.5992
53675SOL     OW68264   8.706   1.684   4.994 -0.5555 -0.2030  0.0179
53675SOL    HW168265   8.744   1.691   4.907 -0.7594  1.9114  0.0493
53675SOL    HW268266   8.758   1.618   5.039  0.5932 -0.1316 -1.1790
53676SOL     OW68267  10.189   5.552   8.633 -0.3063 -0.9405 -0.1002
53676SOL    HW168268  10.188   5.602   8.551 -0.6231 -1.1286 -0.2108
53676SOL    HW268269  10.146   5.470   8.612  2.6308 -2.4835 -0.6753
53677SOL     OW68270  10.985  11.340   9.410 -0.5255  0.6956 -0.0750
53677SOL    HW168271  10.965  11.308   9.321  0.0014  0.8899 -0.2665
53677SOL    HW268272  11.081  11.338   9.415 -0.5784 -0.6199  0.9656
53678SOL     OW68273  12.647   2.079   3.880 -0.1236  0.1328  0.2220
53678SOL    HW168274  12.627   2.161   3.834 -1.0350 -0.5835 -0.6905
53678SOL    HW268275  12.693   2.108   3.960 -0.0903  1.5027 -0.2537
53679SOL     OW68276   5.273   7.726   1.978  0.2618 -0.5835  0.2476
53679SOL    HW168277   5.299   7.813   2.007 -1.8770  0.2555 -0.1612
53679SOL    HW268278   5.345   7.696   1.923  1.1773  0.7940  0.6685
53680SOL     OW68279  12.427   3.895   6.121 -0.4638  0.2337  0.2408
53680SOL    HW168280  12.473   3.968   6.161 -0.6954  1.0175 -0.8549
53680SOL    HW268281  12.342   3.931   6.096  0.0502  0.1335 -1.9094
53681SOL     OW68282  10.564   9.220   7.401 -0.1175 -0.6198  0.4466
53681SOL    HW168283  10.557   9.172   7.483 -1.3996  1.7390  1.8440
53681SOL    HW268284  10.474   9.239   7.376  0.2136 -1.8435 -1.9311
53682SOL     OW68285   8.347   5.536   1.129 -0.2348 -0.2153 -0.1874
53682SOL    HW168286   8.368   5.500   1.043  0.4936  0.8792 -0.4893
53682SOL    HW268287   8.423   5.590   1.151 -1.3963  1.3656  0.0921
53683SOL     OW68288   8.642   3.343  11.242 -0.2870  0.0778 -0.0967
53683SOL    HW168289   8.665   3.436  11.248 -1.6042  0.4971 -1.1222
53683SOL    HW268290   8.562   3.335  11.294 -0.5334 -0.3465 -0.5311
53684SOL     OW68291   1.831   8.191   7.124 -0.0505 -0.0580 -0.1797
53684SOL    HW168292   1.803   8.282   7.121 -0.1500 -0.0887 -0.1895
53684SOL    HW268293   1.815   8.158   7.036 -1.7249 -0.5908  0.2882
53685SOL     OW68294   3.356   2.580  11.980 -0.3500  0.0601  0.3662
53685SOL    HW168295   3.384   2.494  11.949 -0.1315 -0.2227  1.3117
53685SOL    HW268296   3.260   2.578  11.974 -0.3613 -0.3635  0.6703
53686SOL     OW68297   4.977   0.098   8.588 -0.4966 -0.3524 -0.2709
53686SOL    HW168298   5.015   0.161   8.650 -0.2692 -0.2731 -0.4900
53686SOL    HW268299   4.885   0.093   8.613  0.0709 -2.2417  1.7312
53687SOL     OW68300   3.141   3.001  10.529 -0.8260  0.6157 -0.7602
53687SOL    HW168301   3.181   3.053  10.599  0.9624 -0.9596 -0.5322
53687SOL    HW268302   3.201   3.010  10.455 -2.4057  1.8001 -1.9919
53688SOL     OW68303   0.662   1.939  10.933  0.3197 -0.6326 -0.0113
53688SOL    HW168304   0.597   1.967  10.869  0.0381 -0.0295  0.5379
53688SOL    HW268305   0.611   1.905  11.007  0.6351 -0.7457  0.1584
53689SOL     OW68306   2.442   1.459   3.716 -0.0378 -0.3912 -0.3729
53689SOL    HW168307   2.402   1.543   3.693 -2.0311 -1.3140 -0.5223
53689SOL    HW268308   2.452   1.463   3.812 -1.1690 -0.3998 -0.2431
53690SOL     OW68309  12.058  10.609   9.328  0.2246  0.3165  0.0168
53690SOL    HW168310  12.097  10.527   9.356 -1.1459 -0.2187  0.4804
53690SOL    HW268311  12.033  10.653   9.409 -0.5944  0.3854 -0.2552
53691SOL     OW68312  11.041   9.290   7.956 -0.4065  0.3119  0.2527
53691SOL    HW168313  11.098   9.323   8.025 -1.7141 -0.3019  1.6964
53691SOL    HW268314  10.992   9.219   7.998 -3.0041  1.4991 -0.5361
53692SOL     OW68315   5.231   7.110  12.177 -0.2206  0.0530  0.1503
53692SOL    HW168316   5.221   7.075  12.089 -0.2364 -1.8729  0.8606
53692SOL    HW268317   5.195   7.198  12.173  2.9605  1.4541 -2.6009
53693SOL     OW68318   3.324   2.856  12.008 -0.6553 -0.3726  0.1301
53693SOL    HW168319   3.302   2.847  12.101  0.4829 -0.4838  0.4158
53693SOL    HW268320   3.337   2.766  11.978 -4.4318 -0.6510 -1.0938
53694SOL     OW68321   1.824   2.453   6.083 -0.7461  0.5030 -0.0719
53694SOL    HW168322   1.775   2.391   6.136 -1.5459  0.0306 -1.3195
53694SOL    HW268323   1.771   2.533   6.084 -1.6116 -0.0210 -1.4556
53695SOL     OW68324   6.820  11.601   3.654  0.1246  0.7140  0.3173
53695SOL    HW168325   6.774  11.527   3.692  0.7052 -1.0640 -2.1757
53695SOL    HW268326   6.769  11.678   3.680 -2.5118 -0.8665  0.1241
53696SOL     OW68327   4.273  12.700   6.686  0.4273 -0.0292  0.2601
53696SOL    HW168328   4.247  12.640   6.617  0.6203 -0.8868  0.9182
53696SOL    HW268329   4.367  12.686   6.697  0.2978 -0.3161  1.0813
53697SOL     OW68330  12.597   9.829   1.765  0.3620 -0.2208 -0.0528
53697SOL    HW168331  12.622   9.742   1.796  1.1721 -0.2787 -0.8147
53697SOL    HW268332  12.579   9.817   1.672 -2.0623 -0.0570  0.3422
53698SOL     OW68333  12.436   5.608   5.558 -0.4567  0.5795 -0.1275
53698SOL    HW168334  12.354   5.588   5.604 -0.8383 -1.3844 -1.5049
53698SOL    HW268335  12.419   5.691   5.513 -1.3069  0.7335  0.4568
53699SOL     OW68336   4.862  10.627   0.503 -0.9675  0.2920 -0.1965
53699SOL    HW168337   4.866  10.596   0.412 -0.1452 -1.0633  0.2688
53699SOL    HW268338   4.769  10.634   0.522 -1.1730  1.8751 -1.5260
53700SOL     OW68339   4.302  10.799   0.283  0.3958  0.2289 -0.5904
53700SOL    HW168340   4.232  10.736   0.266  1.0772 -0.3245 -1.4316
53700SOL    HW268341   4.288  10.825   0.374  1.6239 -3.1698  0.7367
53701SOL     OW68342  10.996   0.718   7.104  0.2689  0.4340  0.0601
53701SOL    HW168343  11.009   0.624   7.115 -0.6205  0.1303 -1.3161
53701SOL    HW268344  10.957   0.747   7.187  1.5604 -0.1831  0.9180
53702SOL     OW68345   1.751   1.918  10.469  0.3342  0.5627  0.6237
53702SOL    HW168346   1.742   1.886  10.559  0.1802  1.8128  1.0824
53702SOL    HW268347   1.662   1.916  10.433  0.4521 -0.2988  0.3506
53703SOL     OW68348   3.595  11.362   8.119  0.6678 -0.4574  0.3408
53703SOL    HW168349   3.618  11.455   8.113 -1.7743  0.2630  1.0606
53703SOL    HW268350   3.563  11.340   8.032 -0.0000 -0.2502  0.5324
53704SOL     OW68351   0.458   1.302   5.840  0.1427 -0.0351 -0.9227
53704SOL    HW168352   0.470   1.279   5.932 -0.9152 -2.9913 -1.4126
53704SOL    HW268353   0.502   1.232   5.791 -1.3373  0.1533 -2.6469
53705SOL     OW68354   7.608   8.619   1.223  0.0724  0.0533 -0.2092
53705SOL    HW168355   7.683   8.617   1.282  0.0060 -2.4160 -0.0740
53705SOL    HW268356   7.572   8.530   1.228 -3.3469  1.2962  0.3326
53706SOL     OW68357   6.232   6.568  11.523  0.1462  0.0934 -0.2436
53706SOL    HW168358   6.191   6.650  11.550  1.3186  0.3910  0.6922
53706SOL    HW268359   6.301   6.552  11.588  0.1854 -1.4465 -0.6058
53707SOL     OW68360   6.257   3.940  11.442 -0.2683 -0.2097  0.6413
53707SOL    HW168361   6.329   3.999  11.465 -0.0783 -0.6611  1.2190
53707SOL    HW268362   6.189   3.959  11.507  0.6980 -2.2811  2.3417
53708SOL     OW68363   7.275   0.014   5.148 -0.3989 -0.1323  0.7162
53708SOL    HW168364   7.244   0.082   5.088 -1.2668 -0.2029  1.0728
53708SOL    HW268365   7.359  -0.013   5.111 -0.4404  0.5354  0.0986
53709SOL     OW68366   0.377   8.327   3.951  0.3494  0.3791  0.4643
53709SOL    HW168367   0.452   8.330   4.011  1.0473 -1.0550 -0.2775
53709SOL    HW268368   0.335   8.243   3.969  2.1777 -1.4387 -2.7983
53710SOL     OW68369   0.599   3.836   7.416  0.3946 -0.2294 -0.4458
53710SOL    HW168370   0.604   3.758   7.361  0.9838 -1.9454  1.8696
53710SOL    HW268371   0.512   3.832   7.455  0.3963  0.3351 -0.3816
53711SOL     OW68372   2.747   3.915   9.289 -0.4127 -0.4842 -0.0675
53711SOL    HW168373   2.799   3.975   9.343  1.8065  0.6655 -3.1842
53711SOL    HW268374   2.798   3.834   9.286 -0.0398 -0.2230 -1.1189
53712SOL     OW68375   8.212   1.907   8.916  0.3803  0.2006 -0.1397
53712SOL    HW168376   8.159   1.869   8.986 -0.1310  1.6051  0.2829
53712SOL    HW268377   8.298   1.920   8.956  0.5208 -0.3611 -0.2471
53713SOL     OW68378   5.485  12.648  12.455  0.0082  0.2416 -0.4664
53713SOL    HW168379   5.478  12.644  12.359 -0.4439  0.5162 -0.4484
53713SOL    HW268380   5.575  12.677  12.470  0.0118  0.4331 -0.8188
53714SOL     OW68381   8.177   7.657   9.599 -0.0654 -0.3154 -0.0864
53714SOL    HW168382   8.212   7.600   9.667 -1.4273  0.9080  1.7088
53714SOL    HW268383   8.139   7.597   9.534  1.4478 -1.4978  0.0824
53715SOL     OW68384   8.353   4.380   7.556 -0.1191 -0.5840  0.0338
53715SOL    HW168385   8.333   4.355   7.466  0.5110 -0.3882 -0.1623
53715SOL    HW268386   8.446   4.400   7.556 -0.0843 -0.7079  0.7604
53716SOL     OW68387   3.066  11.292   5.245  0.4731  0.2331 -0.0551
53716SOL    HW168388   3.103  11.204   5.253 -1.3581 -0.5981 -0.1591
53716SOL    HW268389   2.996  11.283   5.180  0.1553  1.7506  0.0284
53717SOL     OW68390   3.236   9.610  12.254  0.0006  0.3847  0.0978
53717SOL    HW168391   3.165   9.670  12.236  1.0737  1.9806  0.9320
53717SOL    HW268392   3.293   9.616  12.178 -0.2951 -0.2118 -0.1766
53718SOL     OW68393  10.196  12.341   3.916  0.6922 -0.0877 -0.1013
53718SOL    HW168394  10.262  12.410   3.923  0.3435  0.4083 -1.3049
53718SOL    HW268395  10.123  12.382   3.869  0.9413 -1.5467 -1.9225
53719SOL     OW68396   7.829   4.022   2.924 -0.1207 -0.1219 -0.0217
53719SOL    HW168397   7.746   4.040   2.968 -0.7495 -0.4976 -1.0387
53719SOL    HW268398   7.811   4.033   2.831  0.9398 -0.3287 -0.2689
53720SOL     OW68399   1.669   4.339  11.112 -0.0291 -0.4049  0.5454
53720SOL    HW168400   1.578   4.316  11.095 -0.5614  3.4806 -3.9880
53720SOL    HW268401   1.666   4.426  11.150  1.8257 -0.5594  1.1648
53721SOL     OW68402   9.878   7.957   5.057 -0.2809 -0.1694  0.2960
53721SOL    HW168403   9.910   8.009   5.131 -1.1551  1.0484 -0.1374
53721SOL    HW268404   9.899   8.009   4.980  1.1142 -1.6881 -0.3917
53722SOL     OW68405   5.262   8.925  10.675 -0.1153  0.2873 -0.2554
53722SOL    HW168406   5.214   8.863  10.621 -0.8305 -1.0822  1.8290
53722SOL    HW268407   5.226   9.011  10.653 -0.7263 -0.2830 -1.5442
53723SOL     OW68408  12.012   8.470   2.828 -0.0946  0.0301 -0.3234
53723SOL    HW168409  11.959   8.464   2.749  0.8664 -0.3632 -0.9538
53723SOL    HW268410  12.057   8.386   2.834 -0.5950 -0.1680  0.9767
53724SOL     OW68411   8.056   4.533   9.903 -0.3043  0.2445 -0.0370
53724SOL    HW168412   7.974   4.528   9.951 -1.0319 -0.6756 -1.3111
53724SOL    HW268413   8.030   4.559   9.814  0.7364 -0.3540 -0.5373
53725SOL     OW68414   3.123  10.266  10.624 -0.5051  0.2869 -0.5187
53725SOL    HW168415   3.035  10.303  10.627 -0.9354 -0.7523  0.1356
53725SOL    HW268416   3.144  10.263  10.531 -1.4666 -0.1365 -0.7350
53726SOL     OW68417   4.606   1.185   3.136 -0.0674 -0.3853  0.2800
53726SOL    HW168418   4.701   1.181   3.132 -0.0207  0.2440  0.6508
53726SOL    HW268419   4.581   1.232   3.056 -0.0698 -0.5314  0.1937
53727SOL     OW68420   1.139  11.724  11.656 -0.3783 -0.1189 -0.0461
53727SOL    HW168421   1.210  11.760  11.710  0.2207  0.1607 -1.0037
53727SOL    HW268422   1.104  11.652  11.708  0.9173 -0.5607  0.2521
53728SOL     OW68423  12.143   9.157   9.648 -0.1146  0.9989  0.2565
53728SOL    HW168424  12.101   9.242   9.636 -0.3681  0.8854  0.3318
53728SOL    HW268425  12.169   9.156   9.740  1.8115  1.8619 -0.2242
53729SOL     OW68426   4.965   7.139   6.616 -0.5979  0.4763  0.5713
53729SOL    HW168427   4.887   7.087   6.596 -0.6593  0.4106  0.9751
53729SOL    HW268428   5.036   7.075   6.615 -0.4962  0.5884 -0.1143
53730SOL     OW68429   4.928  11.672   6.838  0.0194 -0.0399  0.9097
53730SOL    HW168430   5.004  11.658   6.782 -0.1661  0.0334  0.6420
53730SOL    HW268431   4.965  11.680   6.926  0.1742 -1.8525  1.0576
53731SOL     OW68432   2.626   3.833   0.783 -0.2865  0.1579 -0.1662
53731SOL    HW168433   2.596   3.761   0.728  0.1192  0.2670 -0.5347
53731SOL    HW268434   2.568   3.832   0.859 -1.8038  0.9142 -1.2638
53732SOL     OW68435  10.654  10.149   2.025  0.8403 -0.7263 -0.3363
53732SOL    HW168436  10.632  10.239   2.004 -3.4511 -1.3094  0.7935
53732SOL    HW268437  10.686  10.152   2.115  2.6235 -0.2097 -0.9422
53733SOL     OW68438   0.160  11.925   3.903 -0.1262 -0.0704  0.0119
53733SOL    HW168439   0.106  11.993   3.941  1.5781  0.8884  0.8367
53733SOL    HW268440   0.229  11.910   3.968  1.7715  0.2320 -1.8432
53734SOL     OW68441  11.049   8.010  10.724  0.5282 -0.1099  0.0189
53734SOL    HW168442  10.955   8.002  10.733  0.6811 -0.0206  2.1309
53734SOL    HW268443  11.062   8.088  10.670 -0.5782 -2.1496 -3.5665
53735SOL     OW68444   9.345   5.712   6.909  0.4129  0.6037 -0.2676
53735SOL    HW168445   9.377   5.742   6.824  0.1810 -1.8840 -1.3129
53735SOL    HW268446   9.263   5.761   6.922  0.3812  0.9208 -1.5350
53736SOL     OW68447   2.836   8.979   4.750  0.7883 -0.8579  0.0239
53736SOL    HW168448   2.876   8.919   4.688  1.0938 -1.1908  0.5417
53736SOL    HW268449   2.902   8.992   4.818  0.3618 -0.6993  0.4165
53737SOL     OW68450   4.047   0.998   5.809 -0.0098  0.0764 -0.1952
53737SOL    HW168451   4.090   0.929   5.860  0.8798  0.2519 -0.6880
53737SOL    HW268452   4.043   0.963   5.720  2.7268  1.5809 -1.0133
53738SOL     OW68453   9.838   5.009   4.966  0.4490  0.1752  0.2467
53738SOL    HW168454   9.826   5.049   4.880 -0.9514  2.1396  1.2771
53738SOL    HW268455   9.893   4.932   4.949  0.9684  0.9961 -2.2405
53739SOL     OW68456   2.855   9.577   6.780  0.1325 -0.5211 -0.6960
53739SOL    HW168457   2.891   9.659   6.814 -1.1012 -0.4189  0.4533
53739SOL    HW268458   2.922   9.512   6.799 -0.2484 -0.3511  1.4676
53740SOL     OW68459   0.399   4.512  10.713 -0.3968 -0.2348  0.6504
53740SOL    HW168460   0.449   4.584  10.751 -0.1309 -1.2959  2.4499
53740SOL    HW268461   0.466   4.451  10.681 -0.6132  0.0136 -0.3049
53741SOL     OW68462   5.182   1.560   4.071 -0.1169  0.3736  0.1862
53741SOL    HW168463   5.195   1.486   4.013 -0.1380  0.5920 -0.0963
53741SOL    HW268464   5.090   1.584   4.060 -0.1896  0.2542  0.5031
53742SOL     OW68465  12.182   7.141   6.733 -0.6592  0.0804 -0.0673
53742SOL    HW168466  12.266   7.110   6.699 -0.1959  1.9526 -0.7476
53742SOL    HW268467  12.137   7.061   6.762  0.0854 -1.3561 -2.5022
53743SOL     OW68468  11.686  12.534   0.639 -0.4918 -0.1299  0.0854
53743SOL    HW168469  11.665  12.453   0.592  1.1569 -0.4292 -0.2213
53743SOL    HW268470  11.766  12.565   0.597 -1.3204  1.9184 -0.0800
53744SOL     OW68471  10.844  11.233  12.020 -0.1299  0.5297  0.6004
53744SOL    HW168472  10.888  11.190  11.947 -0.6280  0.1893  0.5030
53744SOL    HW268473  10.801  11.309  11.980 -1.0743 -0.1008  0.3919
53745SOL     OW68474   0.416  10.981   4.340 -0.3886  0.3461 -0.0312
53745SOL    HW168475   0.443  11.027   4.419 -1.4677 -0.3362  0.7691
53745SOL    HW268476   0.492  10.928   4.315  0.3354  1.4015 -0.1070
53746SOL     OW68477   3.968   7.487   6.341  0.0464 -0.2943 -0.3225
53746SOL    HW168478   4.012   7.413   6.299  0.1939  0.3876 -1.4049
53746SOL    HW268479   3.964   7.463   6.434 -1.9086 -2.6819 -0.9121
53747SOL     OW68480   5.806   1.862   5.585 -0.4449  0.9261  0.1972
53747SOL    HW168481   5.775   1.823   5.667  0.6652  1.1704  0.7606
53747SOL    HW268482   5.731   1.910   5.551 -1.0238  0.5311  0.9000
53748SOL     OW68483   8.557  11.769   8.874 -0.0107  0.0848  0.3230
53748SOL    HW168484   8.566  11.700   8.809 -0.8297  0.1760  0.1071
53748SOL    HW268485   8.480  11.819   8.847  0.4647  0.9757  0.5787
53749SOL     OW68486   1.250   6.540   7.774 -0.1124  0.9272 -0.5023
53749SOL    HW168487   1.228   6.453   7.742  0.7602  0.5965 -0.2316
53749SOL    HW268488   1.167   6.577   7.803 -0.6241  0.5296 -1.4352
53750SOL     OW68489   9.909   2.605   6.073  0.1147  0.1627  0.8703
53750SOL    HW168490   9.969   2.653   6.016 -1.8401 -0.0886 -1.5877
53750SOL    HW268491   9.965   2.551   6.128  2.1294  0.3196 -0.9279
53751SOL     OW68492   2.282  11.885   4.111  0.4976  0.5623 -0.4432
53751SOL    HW168493   2.289  11.809   4.168  0.5818  1.7255  1.1372
53751SOL    HW268494   2.212  11.938   4.148  0.6740  1.4306 -1.2979
53752SOL     OW68495   6.491   4.000   0.701 -0.6232 -0.2076 -0.6324
53752SOL    HW168496   6.502   4.084   0.746  0.2753 -0.1561 -0.9365
53752SOL    HW268497   6.558   3.943   0.739  0.0941 -0.1849 -1.8199
53753SOL     OW68498   1.571   2.389   9.953  0.5515  0.1832  0.3340
53753SOL    HW168499   1.511   2.370   9.881 -0.3666  0.1503  1.0985
53753SOL    HW268500   1.629   2.313   9.957 -0.1629 -0.3677  0.4031
53754SOL     OW68501   9.540   6.368   5.079  0.2687 -0.5587 -0.5878
53754SOL    HW168502   9.632   6.352   5.101  0.7243  0.9937 -1.1915
53754SOL    HW268503   9.538   6.366   4.983 -0.4218 -1.0107 -0.5664
53755SOL     OW68504   6.111   3.056   2.525  0.1073 -0.4509  0.4452
53755SOL    HW168505   6.140   3.147   2.530  0.0411 -0.5172  3.3513
53755SOL    HW268506   6.015   3.061   2.530  0.0717 -0.6937  0.1060
53756SOL     OW68507  10.083   0.797   7.049  0.3990 -0.0087 -0.5405
53756SOL    HW168508  10.067   0.703   7.061 -1.1193  0.1241 -1.2876
53756SOL    HW268509  10.174   0.809   7.076  0.3280 -1.5141  0.5370
53757SOL     OW68510  12.128   6.049   4.734  0.2206 -0.4800 -0.3200
53757SOL    HW168511  12.111   6.122   4.675  0.2954  0.2871  0.5807
53757SOL    HW268512  12.076   5.976   4.699 -1.7024  0.6500  0.0617
53758SOL     OW68513   4.280   5.117  11.314 -0.3045 -0.5345 -0.6978
53758SOL    HW168514   4.194   5.080  11.334  0.2573 -0.8932  1.2693
53758SOL    HW268515   4.262   5.207  11.285 -1.7015 -2.1160 -5.5879
53759SOL     OW68516  10.385  12.156   1.511 -0.0895 -0.1108  0.3188
53759SOL    HW168517  10.310  12.134   1.566 -0.3819 -0.2166 -0.1164
53759SOL    HW268518  10.412  12.244   1.540 -1.9044  1.0071 -1.1267
53760SOL     OW68519   2.525   1.328   2.725  0.2470  0.1469 -0.3949
53760SOL    HW168520   2.474   1.264   2.775 -0.7522  0.6456 -0.7455
53760SOL    HW268521   2.473   1.408   2.728  1.1952  0.7731 -0.4666
53761SOL     OW68522   4.510   1.983   1.768 -0.0701 -0.6420 -0.1530
53761SOL    HW168523   4.595   2.026   1.769  0.3695 -1.3408 -2.2729
53761SOL    HW268524   4.530   1.889   1.766 -0.9677 -0.9250  1.8278
53762SOL     OW68525   9.163   1.589  12.371 -0.2911  0.1918  0.1830
53762SOL    HW168526   9.205   1.630  12.296  0.7951  1.0689  1.2264
53762SOL    HW268527   9.145   1.662  12.431 -1.2052 -0.4768  0.7369
53763SOL     OW68528  11.483  10.320   6.728 -0.0417 -0.5795  0.5969
53763SOL    HW168529  11.437  10.297   6.647  0.2585 -0.5102  0.4062
53763SOL    HW268530  11.469  10.245   6.786  1.8317 -1.7526 -0.3806
53764SOL     OW68531  11.447   6.877   7.935 -0.7237 -0.1655 -0.3556
53764SOL    HW168532  11.378   6.940   7.956 -1.1508 -0.6543 -0.2468
53764SOL    HW268533  11.399   6.801   7.900 -0.2884 -0.7355  0.2624
53765SOL     OW68534   0.162  12.213   3.488 -0.5938 -0.3853 -0.4156
53765SOL    HW168535   0.148  12.128   3.446  1.5154 -1.4723  0.8938
53765SOL    HW268536   0.121  12.276   3.429  0.0064 -2.0410 -2.7578
53766SOL     OW68537   8.436   7.714  10.196 -0.1664 -0.2249  0.0110
53766SOL    HW168538   8.417   7.622  10.210  1.2249 -0.4939  0.2455
53766SOL    HW268539   8.392   7.759  10.269  1.7810 -1.0264  1.7634
53767SOL     OW68540   2.521  10.639   3.135 -0.1862  0.3686  0.2209
53767SOL    HW168541   2.428  10.660   3.126 -0.0379  0.7151 -0.6052
53767SOL    HW268542   2.561  10.722   3.163 -0.1119  0.2369  0.5097
53768SOL     OW68543   1.775   6.385   2.460 -0.1672 -0.1163  0.2965
53768SOL    HW168544   1.838   6.455   2.442 -0.9862  0.5768  0.0364
53768SOL    HW268545   1.828   6.310   2.485  0.7144  0.7497  1.0966
53769SOL     OW68546  10.686   6.706   5.977  0.1405 -0.3050 -0.1446
53769SOL    HW168547  10.762   6.710   5.919 -0.2213 -0.7055 -0.6521
53769SOL    HW268548  10.688   6.617   6.012 -0.3674 -0.4712 -0.5326
53770SOL     OW68549   1.208   0.936   1.480  0.2586  0.3741 -0.6312
53770SOL    HW168550   1.130   0.959   1.429 -0.1801  2.5344  0.8937
53770SOL    HW268551   1.174   0.888   1.555  0.6419 -0.5274 -1.0215
53771SOL     OW68552   4.580   3.219   7.082  0.0268  0.6371 -0.6443
53771SOL    HW168553   4.531   3.162   7.022 -1.3313  2.4354 -1.3371
53771SOL    HW268554   4.610   3.160   7.151 -0.3619 -1.0996 -1.8686
53772SOL     OW68555   4.859   9.634   8.250 -0.2827 -0.0631  0.0453
53772SOL    HW168556   4.806   9.681   8.314  0.0557  1.4270 -0.6987
53772SOL    HW268557   4.919   9.701   8.216  0.2731 -1.0682 -1.0275
53773SOL     OW68558   5.665   2.336  12.317 -0.1627 -0.3173  0.8402
53773SOL    HW168559   5.642   2.282  12.392  1.7659 -3.6164 -0.7238
53773SOL    HW268560   5.760   2.329  12.311 -0.2125  0.1894 -1.6085
53774SOL     OW68561   7.983   3.582   9.933 -0.3080 -0.1820  0.2073
53774SOL    HW168562   8.057   3.642   9.924  0.9958 -1.7595 -0.0734
53774SOL    HW268563   7.964   3.580  10.027  0.2577 -0.0490  0.3225
53775SOL     OW68564   6.291  11.973   5.579  0.0055 -0.5687 -0.2755
53775SOL    HW168565   6.238  11.964   5.500 -1.4537  0.8114  0.4958
53775SOL    HW268566   6.245  11.920   5.645 -0.3385  0.4699  0.3445
53776SOL     OW68567   2.861   7.896   7.701  0.1278  0.5696  0.1148
53776SOL    HW168568   2.812   7.897   7.619 -2.3397  1.5899  1.4969
53776SOL    HW268569   2.891   7.987   7.712 -0.4932  0.6978  0.8427
53777SOL     OW68570  12.206   8.189   5.673 -0.4532  0.0529  0.3368
53777SOL    HW168571  12.139   8.122   5.662 -0.0205 -0.3537  0.1590
53777SOL    HW268572  12.245   8.199   5.586 -0.8515  0.9044  0.2387
53778SOL     OW68573   2.985   9.589   9.907  0.2936 -0.1737  0.3390
53778SOL    HW168574   2.895   9.554   9.915  0.0057  0.1632 -1.1008
53778SOL    HW268575   2.988   9.662   9.968 -0.4913 -0.0417  0.2295
53779SOL     OW68576  11.857   4.924   7.755  0.1414 -0.0828 -0.0859
53779SOL    HW168577  11.856   4.838   7.714  2.0819 -0.7686  1.1584
53779SOL    HW268578  11.896   4.982   7.690  1.3423 -0.7325  0.0359
53780SOL     OW68579   4.089   4.535  12.595  0.2215  0.1437  0.2639
53780SOL    HW168580   4.053   4.450  12.617 -0.3718 -0.0852 -1.4220
53780SOL    HW268581   4.150   4.555  12.665  0.1779 -1.5487  0.8134
53781SOL     OW68582   0.283  10.728   2.520 -0.0626 -0.0052  0.8136
53781SOL    HW168583   0.258  10.675   2.445  0.6645 -1.0383  1.2705
53781SOL    HW268584   0.304  10.814   2.483  1.9512 -0.9532 -0.4471
53782SOL     OW68585   0.164   2.346   0.134  0.3241  0.0363  0.6619
53782SOL    HW168586   0.114   2.266   0.150 -0.1741  0.4944  1.4445
53782SOL    HW268587   0.123   2.411   0.190  0.2149  1.0475 -0.5392
53783SOL     OW68588   7.427  10.299   5.625  0.8488 -0.1130  0.8943
53783SOL    HW168589   7.398  10.214   5.594  0.3983  0.1874  0.4705
53783SOL    HW268590   7.361  10.360   5.592  2.0629  0.6242 -0.2887
53784SOL     OW68591   7.505   1.764   8.071  0.0202  0.4318 -0.2913
53784SOL    HW168592   7.469   1.681   8.103 -0.4079  0.6382 -0.2313
53784SOL    HW268593   7.498   1.757   7.975  1.6154 -0.3264 -0.3889
53785SOL     OW68594   9.510   4.240   7.447 -0.3254  0.1609  0.0028
53785SOL    HW168595   9.495   4.239   7.541 -0.1222 -3.9894  0.1427
53785SOL    HW268596   9.603   4.260   7.438 -0.4988  1.3404  0.5634
53786SOL     OW68597   1.023   1.006   3.252  0.4188  0.2035 -0.1153
53786SOL    HW168598   0.996   0.919   3.224 -0.1423  0.3090  0.0833
53786SOL    HW268599   1.092   0.990   3.316 -1.4185 -0.2421  1.8992
53787SOL     OW68600   1.123   7.973  10.094 -0.7791  0.1475 -0.1036
53787SOL    HW168601   1.107   8.057  10.137 -3.0405 -0.1065 -0.3076
53787SOL    HW268602   1.041   7.926  10.103 -0.6145 -0.8150 -2.7084
53788SOL     OW68603   0.289   7.044   2.657  0.2675  0.2475  0.3025
53788SOL    HW168604   0.295   6.974   2.722 -1.1054 -1.4229 -1.2435
53788SOL    HW268605   0.196   7.067   2.655  0.4709  1.1015 -0.2507
53789SOL     OW68606  11.125   1.222  11.211  0.1033 -0.0887 -0.1752
53789SOL    HW168607  11.062   1.181  11.271 -1.1149  1.4392 -0.3272
53789SOL    HW268608  11.072   1.249  11.136  0.9122  1.3408 -0.2694
53790SOL     OW68609   8.919   6.042   7.821  0.0133 -0.3536  0.1390
53790SOL    HW168610   8.958   6.128   7.839 -1.1130 -0.2738  2.6696
53790SOL    HW268611   8.831   6.048   7.859  0.4167 -3.1027  1.7575
53791SOL     OW68612  11.143   2.396   6.070 -0.1521 -0.5626 -0.0119
53791SOL    HW168613  11.098   2.369   5.990  0.2216  1.2467 -0.8752
53791SOL    HW268614  11.079   2.381   6.139 -1.5361  0.4510 -1.0075
53792SOL     OW68615   3.565   1.431   3.200 -0.2157  0.5601  0.7508
53792SOL    HW168616   3.647   1.413   3.155  0.1617 -0.4369  1.8083
53792SOL    HW268617   3.500   1.433   3.130  0.6732  1.2738 -0.0875
53793SOL     OW68618   3.918  11.861   6.250  0.5762 -0.3852  0.1475
53793SOL    HW168619   3.912  11.927   6.319  1.7967 -1.7390  1.6241
53793SOL    HW268620   4.008  11.828   6.255 -0.2660 -2.8905  0.2020
53794SOL     OW68621   6.275   4.624  10.690  0.2518  0.3074  0.6137
53794SOL    HW168622   6.270   4.691  10.758  0.3891  0.3376  0.5935
53794SOL    HW268623   6.290   4.542  10.738  1.7328  0.5161  0.5374
53795SOL     OW68624   1.138  12.159  11.826 -0.1703  0.0811 -0.5650
53795SOL    HW168625   1.077  12.107  11.773 -0.1368  0.2741 -0.7947
53795SOL    HW268626   1.107  12.249  11.818 -0.0254  0.1416 -0.4491
53796SOL     OW68627  12.206   2.500   8.586 -0.2803  0.3778 -0.2305
53796SOL    HW168628  12.149   2.500   8.509  0.7164 -0.5078 -1.0168
53796SOL    HW268629  12.290   2.534   8.553  0.9210 -2.3113 -0.1944
53797SOL     OW68630   8.627  12.199   8.856 -0.0865 -0.2357  0.2424
53797SOL    HW168631   8.653  12.132   8.918 -1.5925 -1.1857 -0.1101
53797SOL    HW268632   8.710  12.236   8.825  0.7748 -1.7864  0.5838
53798SOL     OW68633   8.916  11.784   1.982 -0.7305  0.0093 -0.2178
53798SOL    HW168634   9.008  11.792   2.010 -0.8142 -0.9503  0.3947
53798SOL    HW268635   8.867  11.829   2.051 -0.7288  0.5001 -0.5325
53799SOL     OW68636   1.546   9.401   5.398  0.1797  0.4606 -0.2527
53799SOL    HW168637   1.549   9.306   5.384 -1.4870  0.6237 -2.0474
53799SOL    HW268638   1.609   9.416   5.469  1.1305 -1.8610 -0.5064
53800SOL     OW68639   6.275  11.096   8.303 -0.1997  0.2207 -0.3006
53800SOL    HW168640   6.227  11.030   8.252 -2.2013  1.8782 -0.6890
53800SOL    HW268641   6.301  11.050   8.383  0.0315 -1.5045 -1.3282
53801SOL     OW68642   3.482   6.943   0.046 -0.3762  0.7665  0.4085
53801SOL    HW168643   3.470   6.872  -0.018 -0.3075  0.2633  0.9440
53801SOL    HW268644   3.413   6.929   0.111  0.6931  0.1294  1.4629
53802SOL     OW68645   3.558   4.126  12.643  0.5856 -0.4141  0.5821
53802SOL    HW168646   3.652   4.129  12.661  0.9612 -2.2164 -0.6979
53802SOL    HW268647   3.540   4.206  12.593  1.6556 -0.4772  0.0575
53803SOL     OW68648   0.753   4.566  10.146  0.3324  0.5738  0.8205
53803SOL    HW168649   0.837   4.536  10.180 -0.3075 -1.7339  0.5221
53803SOL    HW268650   0.773   4.649  10.102  2.2067  0.6840  1.7941
53804SOL     OW68651   8.678   9.222   6.072  0.3230 -0.1751  0.3655
53804SOL    HW168652   8.630   9.284   6.018  0.1256 -1.0368 -0.4690
53804SOL    HW268653   8.733   9.173   6.010  1.5918  0.1556  1.1821
53805SOL     OW68654   4.268   3.159   5.931 -0.4099 -0.0252  0.0127
53805SOL    HW168655   4.316   3.158   6.014 -0.8473 -0.4517  0.2686
53805SOL    HW268656   4.335   3.144   5.864 -0.4069 -2.8625  0.5070
53806SOL     OW68657   5.950   1.242   7.274 -0.1436 -0.0442 -0.4378
53806SOL    HW168658   5.949   1.175   7.342 -0.6978 -0.1747 -0.5725
53806SOL    HW268659   5.915   1.198   7.197  0.0094  0.2468 -0.6728
53807SOL     OW68660   2.729   8.847   4.368 -0.0351  0.1192 -0.0269
53807SOL    HW168661   2.800   8.784   4.380 -0.7580 -0.7682 -0.2041
53807SOL    HW268662   2.772   8.930   4.350  0.9749 -0.7309 -1.8846
53808SOL     OW68663   4.259   0.483   5.939 -0.1705 -0.1433 -0.0429
53808SOL    HW168664   4.284   0.402   5.896  0.2696 -0.2128  0.3405
53808SOL    HW268665   4.338   0.536   5.940 -1.0014  1.3062 -2.4629
53809SOL     OW68666   1.543  10.010   7.428 -0.4533 -0.0446  0.0584
53809SOL    HW168667   1.477   9.953   7.468 -1.8206  0.7496 -0.9702
53809SOL    HW268668   1.499  10.045   7.350  1.4135  0.0427 -0.9964
53810SOL     OW68669   8.317  12.485  10.097  0.4520  0.5858 -0.2640
53810SOL    HW168670   8.256  12.558  10.085 -0.6823 -0.2116  0.4499
53810SOL    HW268671   8.284  12.416  10.040  2.3980  1.0804 -2.1304
53811SOL     OW68672   3.369   8.028   0.546 -0.1730  0.1255  0.2409
53811SOL    HW168673   3.459   7.997   0.559  0.4041  1.2407 -0.8192
53811SOL    HW268674   3.330   8.028   0.633  1.1340  0.4000  0.8464
53812SOL     OW68675   8.564  10.357   3.508 -0.0046  0.0868  0.3744
53812SOL    HW168676   8.652  10.358   3.471  0.2122  0.1803  0.8936
53812SOL    HW268677   8.512  10.409   3.447  0.5519  1.0408  0.6988
53813SOL     OW68678   6.588   7.634   8.736 -0.0972  0.0464  0.4551
53813SOL    HW168679   6.617   7.646   8.646  0.1937 -0.1957  0.5152
53813SOL    HW268680   6.629   7.706   8.784 -1.3264  0.9715  0.1663
53814SOL     OW68681   4.148  10.094   7.591  0.6084  0.2409 -0.2618
53814SOL    HW168682   4.099  10.099   7.674  0.2987  0.3699 -0.4497
53814SOL    HW268683   4.119  10.013   7.551  2.1996 -0.8251  0.6424
53815SOL     OW68684   4.436   2.384   5.339 -0.1379  0.7782 -0.1329
53815SOL    HW168685   4.472   2.316   5.282  0.3787  0.2855  0.7624
53815SOL    HW268686   4.389   2.335   5.407 -3.1712  1.3754 -1.6123
53816SOL     OW68687   8.248   7.988   2.928  0.3595 -0.0023  0.7299
53816SOL    HW168688   8.263   8.059   2.991  1.2986  0.1737  0.3219
53816SOL    HW268689   8.283   8.022   2.845 -1.5835  0.0927 -0.0982
53817SOL     OW68690   8.844   5.782   1.896  0.1314  0.1564  0.0869
53817SOL    HW168691   8.868   5.690   1.890 -0.6202  0.0388 -4.4098
53817SOL    HW268692   8.788   5.787   1.974  1.4319 -2.7655  1.3668
53818SOL     OW68693  12.275  11.140   5.541  0.1068  0.3048 -0.2852
53818SOL    HW168694  12.211  11.070   5.526  0.5443 -0.2166  0.2244
53818SOL    HW268695  12.222  11.220   5.545 -0.2719  0.1903 -2.1727
53819SOL     OW68696  10.382   7.480   1.104  0.3208 -0.2731  0.1148
53819SOL    HW168697  10.307   7.518   1.149  0.6715  0.3192  0.2011
53819SOL    HW268698  10.456   7.497   1.162  0.5600 -0.6731 -0.0667
53820SOL     OW68699   8.310   3.085   2.925 -0.3684 -0.2185 -0.2895
53820SOL    HW168700   8.394   3.080   2.971 -0.8611 -2.0485  0.5123
53820SOL    HW268701   8.320   3.027   2.850 -1.5351 -2.1510  0.9634
53821SOL     OW68702  11.677  10.510   2.977 -0.2326 -0.4831  0.3601
53821SOL    HW168703  11.646  10.600   2.970  0.6470 -0.0525  1.6835
53821SOL    HW268704  11.763  10.510   2.934 -0.2780 -0.7104  0.2661
53822SOL     OW68705   1.038   8.420   0.302  0.1383 -0.3198 -0.3020
53822SOL    HW168706   0.971   8.407   0.235 -0.8989 -0.3027  0.6919
53822SOL    HW268707   0.992   8.400   0.384  1.7427 -1.7447  0.3055
53823SOL     OW68708  10.271   1.710   2.890  0.0517  0.2275 -0.2511
53823SOL    HW168709  10.197   1.768   2.873  0.6454  0.3782 -2.8728
53823SOL    HW268710  10.340   1.768   2.923  0.5888  1.1345 -2.7036
53824SOL     OW68711   9.069  10.809   4.181 -0.1421  0.8571 -0.5117
53824SOL    HW168712   9.112  10.728   4.154  0.0793  1.0295 -0.6741
53824SOL    HW268713   9.023  10.785   4.262  0.4709  0.7375 -0.1878
53825SOL     OW68714  12.608   8.610  10.598 -0.3580 -0.2874  0.0355
53825SOL    HW168715  12.609   8.662  10.679  0.0539 -0.2555  0.0073
53825SOL    HW268716  12.516   8.614  10.569 -1.0153 -2.0930  1.6507
53826SOL     OW68717   5.593   1.015  11.905  0.3006 -0.0300 -0.2656
53826SOL    HW168718   5.685   1.037  11.923  0.1609 -0.2640  0.8151
53826SOL    HW268719   5.552   1.014  11.991 -0.7094 -0.0005 -0.7352
53827SOL     OW68720   8.403  10.487   3.349 -0.1990 -0.2257 -0.4025
53827SOL    HW168721   8.323  10.500   3.399 -0.0042 -0.6070  0.0206
53827SOL    HW268722   8.416  10.568   3.300  0.4335  0.7657  1.3483
53828SOL     OW68723   4.215  10.814   5.194  0.0312 -0.2350 -0.2607
53828SOL    HW168724   4.298  10.837   5.235 -0.9527 -1.1972  2.5666
53828SOL    HW268725   4.176  10.898   5.168  1.2004  0.3463 -0.1729
53829SOL     OW68726   0.627   6.576   7.711  0.5695 -0.0775  0.8290
53829SOL    HW168727   0.616   6.659   7.665 -0.1974 -0.4710  0.2774
53829SOL    HW268728   0.685   6.525   7.654 -0.1811 -0.4740  0.4124
53830SOL     OW68729   0.368   4.231   9.804 -0.0099 -0.3940 -0.6278
53830SOL    HW168730   0.453   4.261   9.773 -0.8765  1.2001 -1.5576
53830SOL    HW268731   0.332   4.180   9.731 -0.7998  0.8829 -1.1651
53831SOL     OW68732   6.337  11.048   4.442  0.4817  0.1347  0.3458
53831SOL    HW168733   6.351  11.115   4.509  1.1342  1.3283 -0.9435
53831SOL    HW268734   6.419  11.045   4.393 -1.0665  1.8779 -2.6239
53832SOL     OW68735   4.783   7.936   2.238  0.2793  0.0135 -0.0545
53832SOL    HW168736   4.833   7.990   2.299  0.8902 -0.0767 -0.4713
53832SOL    HW268737   4.815   7.961   2.152  0.8079 -1.2410 -0.2412
53833SOL     OW68738   0.004  12.013   3.369 -0.3437  0.2242  0.3204
53833SOL    HW168739  -0.059  12.038   3.435 -1.1970 -1.2607  0.1192
53833SOL    HW268740  -0.031  11.932   3.332  0.5560  0.5445 -1.3363
53834SOL     OW68741   5.077   2.544   4.039 -0.2005 -0.3915 -1.0759
53834SOL    HW168742   5.059   2.606   3.968 -0.2313  0.3208 -0.4618
53834SOL    HW268743   5.173   2.544   4.045 -0.0518 -2.2030 -2.6180
53835SOL     OW68744   5.620   1.683   0.835  0.0993  0.4882  0.1952
53835SOL    HW168745   5.593   1.640   0.916  0.8492  2.0009  1.3137
53835SOL    HW268746   5.716   1.676   0.835  0.0574 -0.3132 -1.0559
53836SOL     OW68747   3.286  10.518   2.955 -0.0987 -0.5884  0.2527
53836SOL    HW168748   3.343  10.577   3.005  2.0510 -2.4551  0.1766
53836SOL    HW268749   3.322  10.519   2.866 -2.8872  1.4300 -1.0031
53837SOL     OW68750  10.628   1.831   4.395 -0.1397 -0.0593 -0.4408
53837SOL    HW168751  10.588   1.748   4.421 -1.2760  0.5141 -0.2794
53837SOL    HW268752  10.702   1.842   4.455  1.1357 -1.7863 -1.6038
53838SOL     OW68753   2.811   3.837  11.989  0.4560 -0.1163  0.1498
53838SOL    HW168754   2.813   3.742  11.998 -0.9333 -0.2844 -1.1321
53838SOL    HW268755   2.837   3.869  12.076  2.4296 -1.6272  0.1804
53839SOL     OW68756  10.569   9.805   7.518  0.2073  0.3033 -0.1414
53839SOL    HW168757  10.496   9.867   7.523 -0.7924 -0.8441 -0.0450
53839SOL    HW268758  10.533   9.722   7.551  1.0799 -0.7081 -1.6082
53840SOL     OW68759   7.953   4.084  11.608 -0.3753 -0.1434  0.0570
53840SOL    HW168760   7.985   4.022  11.673 -0.9226 -0.9846 -0.4584
53840SOL    HW268761   8.032   4.111  11.560 -0.4404 -2.9485 -1.8594
53841SOL     OW68762  11.397   6.393   8.725 -0.1900  0.3702  0.3288
53841SOL    HW168763  11.435   6.394   8.813 -0.3686  1.9933  0.4121
53841SOL    HW268764  11.312   6.436   8.735 -0.5659 -0.1542 -0.4958
53842SOL     OW68765   7.162  11.724   8.515 -0.3158  0.0426 -0.1452
53842SOL    HW168766   7.218  11.647   8.508  0.7490  0.8598 -0.9687
53842SOL    HW268767   7.076  11.694   8.487  0.1682 -0.7534 -0.8232
53843SOL     OW68768  11.943  10.792   5.359  0.1197  0.3187 -0.4005
53843SOL    HW168769  11.997  10.757   5.288 -0.2527  0.7855 -0.9364
53843SOL    HW268770  11.859  10.811   5.317 -0.0792  0.6834  0.1517
53844SOL     OW68771   5.862   2.102   3.029  0.3496 -0.2754 -0.3489
53844SOL    HW168772   5.919   2.076   2.957 -0.7250 -1.5885 -0.7792
53844SOL    HW268773   5.781   2.131   2.986  0.6314  1.4930  0.2441
53845SOL     OW68774   5.131   5.807   0.388  0.3921  0.0925  0.1607
53845SOL    HW168775   5.156   5.897   0.409 -1.8411  0.8505 -0.1072
53845SOL    HW268776   5.094   5.773   0.469 -0.9980  0.3021 -0.3503
53846SOL     OW68777  11.404  10.287   7.991 -0.1131 -0.3403 -0.5071
53846SOL    HW168778  11.449  10.203   8.002 -1.5627 -1.1658 -0.7225
53846SOL    HW268779  11.388  10.317   8.080  2.9627  1.2019 -0.3222
53847SOL     OW68780   1.658   5.829   5.346  0.6443 -0.4221 -0.3387
53847SOL    HW168781   1.587   5.767   5.361  0.0115  0.8273  2.5745
53847SOL    HW268782   1.614   5.912   5.328  1.4261 -0.1084 -0.8587
53848SOL     OW68783  12.105   6.137   6.928  0.6052  0.2273  0.3916
53848SOL    HW168784  12.042   6.140   6.856 -0.5710 -0.0329  1.3678
53848SOL    HW268785  12.062   6.184   6.999  2.1202  1.2733  0.6599
53849SOL     OW68786   0.742  10.552   2.030 -0.0674  0.5716  0.0320
53849SOL    HW168787   0.691  10.502   1.967 -0.5954  0.6930  0.3550
53849SOL    HW268788   0.814  10.589   1.979 -0.4204  0.5712 -0.4726
53850SOL     OW68789   2.522   0.449  11.932 -0.4189  0.6959  0.0959
53850SOL    HW168790   2.434   0.412  11.937 -0.6519  1.3273  3.9610
53850SOL    HW268791   2.516   0.534  11.976  2.4024 -0.0611  2.2602
53851SOL     OW68792   9.923   1.578   9.111 -0.0386  0.3726 -0.1903
53851SOL    HW168793   9.950   1.507   9.053 -0.4884 -0.0393  0.0955
53851SOL    HW268794   9.871   1.534   9.179  1.1527  0.7206  0.9852
53852SOL     OW68795   3.594  10.193   5.962 -0.2548  0.4181  0.1449
53852SOL    HW168796   3.629  10.280   5.983 -0.8600  0.6038  0.3909
53852SOL    HW268797   3.516  10.211   5.910 -0.3388  0.0159  0.1305
53853SOL     OW68798  11.307   4.880  10.267 -0.1237 -0.3131  0.0498
53853SOL    HW168799  11.215   4.889  10.292 -0.0761 -0.3495  0.2355
53853SOL    HW268800  11.340   4.970  10.267  0.0372 -0.3659  0.7297
53854SOL     OW68801   7.398  11.325   2.859  0.0550 -0.0538 -0.0335
53854SOL    HW168802   7.305  11.305   2.871  0.1202  0.7523  2.2601
53854SOL    HW268803   7.404  11.356   2.768 -1.9807  0.2058 -0.1280
53855SOL     OW68804   9.470   7.936  10.604  0.0617 -0.4580 -0.3444
53855SOL    HW168805   9.452   7.842  10.610 -0.3106 -0.3622  0.0127
53855SOL    HW268806   9.462   7.956  10.511 -2.8443 -0.1879 -0.1168
53856SOL     OW68807   7.474  11.590   6.504  0.0028  0.3436  0.0014
53856SOL    HW168808   7.444  11.681   6.506 -0.2940  0.2451  0.4397
53856SOL    HW268809   7.561  11.593   6.464 -0.8089  0.5772 -1.8390
53857SOL     OW68810  10.537   0.982   8.559 -0.1395  0.6395  0.2360
53857SOL    HW168811  10.532   1.039   8.482  0.6291 -0.1013 -0.3736
53857SOL    HW268812  10.628   0.988   8.589 -0.2237  0.2639  0.5848
53858SOL     OW68813   8.599   8.685   4.436  0.0200  0.4837  0.3526
53858SOL    HW168814   8.659   8.611   4.445 -1.4745 -0.7890  0.1808
53858SOL    HW268815   8.585   8.693   4.341  1.4053  2.0481  0.2374
53859SOL     OW68816   8.614   7.912   2.569 -0.9381 -0.3750 -0.7881
53859SOL    HW168817   8.626   8.006   2.561  0.9980 -0.5992 -1.0327
53859SOL    HW268818   8.630   7.893   2.661 -0.1494 -0.5949 -0.9645
53860SOL     OW68819   6.562   5.289   8.864 -0.2755  0.0911 -0.0531
53860SOL    HW168820   6.588   5.301   8.773 -1.0961 -2.6801 -0.7615
53860SOL    HW268821   6.507   5.210   8.863  0.4245 -0.5802  2.9507
53861SOL     OW68822  12.655   4.627   6.510 -0.1384 -0.3067 -0.4425
53861SOL    HW168823  12.560   4.635   6.518 -0.4237 -2.1917 -1.4949
53861SOL    HW268824  12.676   4.672   6.428 -0.3062 -0.9856 -0.8641
53862SOL     OW68825  12.185   0.322  10.931  0.0063  0.0060  0.0506
53862SOL    HW168826  12.179   0.228  10.919 -2.4608  0.0036  0.8013
53862SOL    HW268827  12.181   0.334  11.026 -0.0586  0.8922 -0.0572
53863SOL     OW68828   3.480   8.489   3.577 -0.3309  0.6113  0.3656
53863SOL    HW168829   3.434   8.465   3.657 -1.5951  0.4496 -0.3900
53863SOL    HW268830   3.475   8.584   3.574  1.7721  0.8263  1.6465
53864SOL     OW68831   0.852   7.440   7.013 -0.4136 -0.2698 -0.8171
53864SOL    HW168832   0.895   7.392   6.942  0.0017 -2.6737  0.8921
53864SOL    HW268833   0.925   7.472   7.067 -0.6900 -0.7712 -0.1202
53865SOL     OW68834   2.611  10.115   3.791 -0.4955  0.0983 -0.3316
53865SOL    HW168835   2.621  10.053   3.864 -0.3724  1.4560  0.8438
53865SOL    HW268836   2.636  10.200   3.828 -2.8475  1.2813 -1.2112
53866SOL     OW68837  10.459   4.995   8.215 -0.6256 -0.4452  0.0290
53866SOL    HW168838  10.500   5.050   8.282  1.1592  1.7199 -2.6497
53866SOL    HW268839  10.365   5.003   8.232 -0.2611 -1.1051  3.0115
53867SOL     OW68840   6.819   5.000   3.906 -0.8647 -0.1318  0.1467
53867SOL    HW168841   6.753   4.943   3.945 -1.8986 -0.8149 -2.4257
53867SOL    HW268842   6.902   4.957   3.926 -1.4295 -1.0088  0.6632
53868SOL     OW68843   0.746   3.493   0.302  0.2015 -0.5714  0.2907
53868SOL    HW168844   0.713   3.566   0.354  1.0871 -0.5045  0.7783
53868SOL    HW268845   0.778   3.430   0.366 -0.7451 -1.5020 -0.1182
53869SOL     OW68846   6.950  11.721   3.247 -0.2161  0.6255 -0.2273
53869SOL    HW168847   7.031  11.757   3.211  1.2899 -1.0937  1.2631
53869SOL    HW268848   6.937  11.769   3.329  0.7139 -0.7717  0.7772
53870SOL     OW68849   4.378   4.412   6.417  0.3162  0.2132 -0.4256
53870SOL    HW168850   4.423   4.496   6.411  1.0317 -0.2737 -2.6259
53870SOL    HW268851   4.298   4.424   6.366 -0.7871  0.2501  1.2452
53871SOL     OW68852   0.694  12.347   7.842  0.0146 -0.1186  0.0299
53871SOL    HW168853   0.708  12.438   7.868  1.0637 -0.3061  0.1532
53871SOL    HW268854   0.633  12.352   7.769  0.2390  0.7023 -0.1093
53872SOL     OW68855   0.883   5.703  10.657  0.8939 -0.8361 -0.2851
53872SOL    HW168856   0.812   5.660  10.705 -0.7177  2.2029  0.2831
53872SOL    HW268857   0.854   5.704  10.566  0.7820 -0.6721 -0.2477
53873SOL     OW68858   0.654  11.965  10.368  0.0835 -0.0626 -0.6811
53873SOL    HW168859   0.631  12.055  10.388 -0.7421 -0.2254 -0.8652
53873SOL    HW268860   0.577  11.929  10.324  0.0075 -1.1353  0.2610
53874SOL     OW68861   4.992   9.209  11.511  0.5251  0.1118  0.2347
53874SOL    HW168862   4.970   9.222  11.604 -1.2699 -0.1859 -0.1089
53874SOL    HW268863   5.010   9.116  11.503  0.5843  0.1206  0.2651
53875SOL     OW68864   0.615   6.635   4.653  0.4433 -0.0116  0.0890
53875SOL    HW168865   0.626   6.627   4.558 -0.0260  2.0349 -0.1878
53875SOL    HW268866   0.689   6.689   4.681  1.1515 -1.4237  1.0996
53876SOL     OW68867   0.373   7.779   9.567 -0.5552  0.6924 -0.6386
53876SOL    HW168868   0.358   7.819   9.653  0.9747 -2.0409  1.0401
53876SOL    HW268869   0.285   7.769   9.530 -1.2795  1.5815  0.7422
53877SOL     OW68870  11.633   1.004   1.767 -0.6105 -0.1030  0.0891
53877SOL    HW168871  11.545   1.018   1.731 -0.2515  1.6435 -0.1856
53877SOL    HW268872  11.687   0.980   1.692 -0.6809 -0.3948  0.1301
53878SOL     OW68873  11.659  10.292   6.134  0.1669  0.3623  0.1799
53878SOL    HW168874  11.673  10.324   6.224  3.2880 -0.4176  0.0896
53878SOL    HW268875  11.667  10.371   6.080 -0.5309  0.6487  0.4727
53879SOL     OW68876   5.636   3.177   9.761  0.2055  0.0219  0.2095
53879SOL    HW168877   5.629   3.206   9.671 -0.6093 -0.7734 -0.0061
53879SOL    HW268878   5.558   3.122   9.774 -0.2651  0.9789  1.7215
53880SOL     OW68879   8.188   4.215  12.486 -0.3838 -0.1474 -0.4865
53880SOL    HW168880   8.176   4.123  12.511 -1.4672  0.1408  0.1150
53880SOL    HW268881   8.193   4.214  12.391 -0.0100 -0.8593 -0.4698
53881SOL     OW68882  10.778   3.619   6.530 -0.1342  0.3555 -0.7560
53881SOL    HW168883  10.748   3.564   6.457  0.5275 -1.7066  0.4356
53881SOL    HW268884  10.868   3.642   6.508  0.4753 -1.2619 -0.1122
53882SOL     OW68885   0.240   4.930   0.693 -0.1926 -0.2004 -0.2530
53882SOL    HW168886   0.289   4.983   0.629  0.8025 -0.2087  0.4831
53882SOL    HW268887   0.149   4.932   0.661  0.1604  0.3906 -1.2650
53883SOL     OW68888   1.469   2.305   1.339 -0.0067  0.3155 -0.0679
53883SOL    HW168889   1.379   2.285   1.312 -0.1604 -0.2410  0.8227
53883SOL    HW268890   1.499   2.370   1.276 -0.8188  0.0394 -0.7499
53884SOL     OW68891  11.088   1.471  11.816  1.0831  0.4364  0.6266
53884SOL    HW168892  11.030   1.442  11.887 -0.6667 -1.2794 -1.3791
53884SOL    HW268893  11.152   1.401  11.807 -0.9497 -1.2918 -1.8089
53885SOL     OW68894   1.770   2.178  10.059  0.3867 -0.4961  0.5643
53885SOL    HW168895   1.771   2.100  10.003 -1.4641 -0.7123  0.7854
53885SOL    HW268896   1.694   2.165  10.117  0.0488  1.4763  0.6016
53886SOL     OW68897   3.287   8.783   2.687 -0.4552  0.7938  0.4255
53886SOL    HW168898   3.270   8.861   2.634 -0.1177 -0.0875 -1.0521
53886SOL    HW268899   3.378   8.760   2.667  0.2609  1.4027  2.7385
53887SOL     OW68900  10.413   4.148  11.901 -0.1594  0.2262  0.2155
53887SOL    HW168901  10.395   4.145  11.995  0.1589 -1.6489  0.2393
53887SOL    HW268902  10.399   4.059  11.871 -2.1053  1.1560 -1.9028
53888SOL     OW68903   0.474   9.141  11.666 -0.0799  0.6555 -0.3904
53888SOL    HW168904   0.507   9.218  11.712  0.2334  0.3989 -0.1826
53888SOL    HW268905   0.491   9.159  11.574 -1.0056  1.3116 -0.4473
53889SOL     OW68906   8.438   1.257   4.549  0.4551  0.3069  0.3764
53889SOL    HW168907   8.406   1.253   4.459  2.0188 -0.5941 -0.1828
53889SOL    HW268908   8.475   1.346   4.557  2.5794 -0.4069 -0.7537
53890SOL     OW68909   1.512   1.979   6.187 -0.2215 -0.3240 -0.2389
53890SOL    HW168910   1.573   1.945   6.252 -2.5583 -1.3299  1.6113
53890SOL    HW268911   1.503   1.908   6.123  0.0568 -0.4453 -0.1458
53891SOL     OW68912   5.450   0.397  11.638 -0.6187  0.8318  0.2968
53891SOL    HW168913   5.541   0.401  11.609 -1.0786  0.1036 -1.3547
53891SOL    HW268914   5.449   0.443  11.722  1.2974  0.7007  0.4235
53892SOL     OW68915  11.522   7.170  12.109  0.2029  0.0589 -0.0889
53892SOL    HW168916  11.548   7.262  12.119  0.8942 -0.4096  3.8780
53892SOL    HW268917  11.427   7.171  12.118  0.2618  0.3480  0.5497
53893SOL     OW68918  11.831   1.017   8.667  0.2511 -0.3567 -0.2508
53893SOL    HW168919  11.920   1.039   8.639 -0.1894  1.5594 -0.2871
53893SOL    HW268920  11.801   0.953   8.602  1.9761 -1.9464  0.4266
53894SOL     OW68921   5.731   3.899   8.243 -0.2541  0.5499 -0.5115
53894SOL    HW168922   5.740   3.873   8.151  1.8109 -0.5065 -0.0725
53894SOL    HW268923   5.821   3.916   8.271 -0.9757  2.3287  0.9356
53895SOL     OW68924  10.623  10.475   3.767 -0.4277 -0.0965  0.7134
53895SOL    HW168925  10.661  10.499   3.683  2.5488 -2.3495  1.2480
53895SOL    HW268926  10.659  10.538   3.829 -1.0070  0.3510  0.5962
53896SOL     OW68927  10.125   7.627  11.936  0.3802  0.1346  0.8212
53896SOL    HW168928  10.044   7.675  11.917 -0.0639 -1.4212 -1.6721
53896SOL    HW268929  10.177   7.688  11.988 -0.7350  2.7452 -0.9100
53897SOL     OW68930   1.917   9.869   3.615  0.2973  0.1453 -0.0278
53897SOL    HW168931   1.873   9.791   3.647  0.0015 -0.5021 -1.9041
53897SOL    HW268932   2.010   9.852   3.629  0.1296  0.5537  1.8522
53898SOL     OW68933  10.155   9.715   8.882 -0.1578 -0.2039 -0.5896
53898SOL    HW168934  10.079   9.662   8.857 -0.5671 -0.7306  1.5896
53898SOL    HW268935  10.179   9.684   8.969  0.8131  1.8857 -0.0491
53899SOL     OW68936   5.062   0.522   9.805 -0.0739 -0.4240  0.3097
53899SOL    HW168937   5.157   0.529   9.816 -0.1021 -2.1965  2.5791
53899SOL    HW268938   5.027   0.532   9.894 -2.1027  0.7815 -0.5539
53900SOL     OW68939   3.360   9.726   0.778  0.1492  0.1238 -0.2336
53900SOL    HW168940   3.334   9.796   0.839 -0.5983 -0.6825  0.4050
53900SOL    HW268941   3.436   9.685   0.820  1.8092  1.7215 -1.5266
53901SOL     OW68942   5.137  10.231   4.322 -0.6781 -0.5072  0.6295
53901SOL    HW168943   5.114  10.228   4.229 -0.7979  0.9701  0.5929
53901SOL    HW268944   5.139  10.324   4.344 -0.2875 -0.8140  2.0259
53902SOL     OW68945  11.123   6.454  12.499  0.5547 -0.1759 -0.2992
53902SOL    HW168946  11.080   6.395  12.561  3.4965 -0.3585  1.7962
53902SOL    HW268947  11.182   6.397  12.450  0.2477  0.4058 -1.3668
53903SOL     OW68948  11.033   6.512   6.415  0.3345  0.3326  0.3223
53903SOL    HW168949  11.049   6.445   6.481  2.8975 -0.3301 -0.8752
53903SOL    HW268950  10.937   6.518   6.410  0.0517 -0.5105  3.1008
53904SOL     OW68951   9.061   2.031   6.124 -0.2600 -0.2893  0.1711
53904SOL    HW168952   9.017   1.955   6.086 -2.0163  0.6395  0.2046
53904SOL    HW268953   9.094   2.079   6.048 -2.3333  0.7212 -0.1731
53905SOL     OW68954   9.080  11.492   6.400 -0.3657 -0.1653 -0.0884
53905SOL    HW168955   9.161  11.468   6.355  0.9660  0.9817  1.5947
53905SOL    HW268956   9.048  11.568   6.352 -1.2057 -1.3528 -1.5342
53906SOL     OW68957   6.880   1.484   9.399  0.1446  1.1345 -0.2357
53906SOL    HW168958   6.878   1.478   9.495  0.4651  1.3995 -0.2100
53906SOL    HW268959   6.809   1.426   9.370  0.7366  0.2088  0.1218
53907SOL     OW68960  10.173   0.312   2.978 -0.3438 -0.2988 -0.4941
53907SOL    HW168961  10.176   0.227   3.021 -1.0990 -0.8274 -1.4492
53907SOL    HW268962  10.152   0.373   3.048 -0.4188 -0.9812  0.0928
53908SOL     OW68963   6.801   4.162   1.512 -0.4205 -0.0917  0.1454
53908SOL    HW168964   6.815   4.244   1.558 -2.6607  1.6518 -2.0220
53908SOL    HW268965   6.734   4.181   1.447  1.0261 -2.8833 -2.4771
53909SOL     OW68966   7.853   2.452   0.568  0.0218  0.2076 -0.1709
53909SOL    HW168967   7.940   2.431   0.603 -0.1768  0.2513  0.3652
53909SOL    HW268968   7.869   2.480   0.478  0.5663  0.2488 -0.0652
53910SOL     OW68969   9.041   4.284   6.143  0.0444  0.0229 -0.2254
53910SOL    HW168970   9.060   4.191   6.133 -1.5209 -0.3116 -0.3703
53910SOL    HW268971   9.110   4.328   6.094 -0.1087 -1.1297 -1.5315
53911SOL     OW68972  11.785   0.142   7.966 -0.3457 -0.0300  0.1518
53911SOL    HW168973  11.697   0.125   8.001 -0.3771 -0.6595 -0.2087
53911SOL    HW268974  11.793   0.081   7.892  0.1735  0.4359 -0.1849
53912SOL     OW68975   4.552   2.090  11.147  0.5046  0.3345  0.1871
53912SOL    HW168976   4.466   2.053  11.168 -0.3858  0.6722 -2.4449
53912SOL    HW268977   4.532   2.169  11.098  2.3723  1.2013  0.7366
53913SOL     OW68978   1.080  10.763   7.809  0.1750  0.5069 -0.2914
53913SOL    HW168979   0.987  10.780   7.793  0.4450  1.5076 -0.9330
53913SOL    HW268980   1.117  10.849   7.832  0.8693  0.0598  0.3029
53914SOL     OW68981  11.258   1.190   8.478  0.2922 -0.4033 -0.6529
53914SOL    HW168982  11.213   1.134   8.415 -0.5161  0.5727 -0.9650
53914SOL    HW268983  11.190   1.247   8.512  1.5521  2.4397 -2.5188
53915SOL     OW68984   7.030  11.017  11.109 -0.4307 -0.3436 -0.1050
53915SOL    HW168985   6.964  11.003  11.178 -0.6296  0.6413 -0.0923
53915SOL    HW268986   6.996  11.090  11.058  0.3288 -0.2709 -0.5118
53916SOL     OW68987   7.175   0.557   6.293  0.6171  0.2828  0.2324
53916SOL    HW168988   7.179   0.533   6.201  1.3295 -2.4955  0.8802
53916SOL    HW268989   7.081   0.562   6.312  0.4336 -0.6379 -0.3396
53917SOL     OW68990   8.891   1.849   5.912  0.2911 -0.0587 -0.4702
53917SOL    HW168991   8.805   1.818   5.883 -1.3323  1.8736  1.8590
53917SOL    HW268992   8.935   1.878   5.832 -0.9963 -1.4977 -1.7733
53918SOL     OW68993  11.555   8.560  10.313 -0.6007  0.4081  0.0386
53918SOL    HW168994  11.515   8.632  10.264 -0.8095 -0.1668 -0.6557
53918SOL    HW268995  11.481   8.505  10.340 -0.3256 -0.5165 -1.0186
53919SOL     OW68996   4.156   8.921   0.139  0.3408 -0.0306  0.1013
53919SOL    HW168997   4.179   8.829   0.129  1.9705  0.1500  1.7563
53919SOL    HW268998   4.102   8.925   0.218 -0.3625  0.3598 -0.3838
53920SOL     OW68999   4.890  12.242   4.931  0.2370 -0.5590  0.2613
53920SOL    HW169000   4.911  12.251   4.838 -0.5951 -0.6417  0.0568
53920SOL    HW269001   4.935  12.163   4.959  1.8887  0.3746  0.3525
53921SOL     OW69002   1.481   4.465   3.591  0.0675 -0.1041 -0.5563
53921SOL    HW169003   1.402   4.518   3.603  0.6859  0.5618  0.7344
53921SOL    HW269004   1.451   4.374   3.603 -0.4078  0.1805  0.5723
53922SOL     OW69005   5.759   2.715   4.111 -0.3508 -0.2401 -0.5902
53922SOL    HW169006   5.771   2.696   4.018  1.1381 -0.4003 -0.3908
53922SOL    HW269007   5.760   2.811   4.115 -0.7708 -0.2257 -0.7770
53923SOL     OW69008   1.379   4.935   1.184  0.2142  0.1734 -0.2515
53923SOL    HW169009   1.426   5.009   1.222  0.9253 -0.2742 -0.2576
53923SOL    HW269010   1.436   4.860   1.197 -0.7169 -0.4814  0.2048
53924SOL     OW69011  10.140   9.363   5.087 -0.1271 -0.2554 -0.0371
53924SOL    HW169012  10.209   9.340   5.149 -1.4434 -3.1308  0.5736
53924SOL    HW269013  10.125   9.282   5.038 -2.5960  0.4337 -0.5739
53925SOL     OW69014  11.737   2.413   0.534 -0.4381 -0.4091 -0.5211
53925SOL    HW169015  11.750   2.359   0.456  0.8103 -0.7904 -0.0675
53925SOL    HW269016  11.825   2.440   0.560 -0.8035 -0.5285  0.9226
53926SOL     OW69017   0.034   9.811  10.004 -0.2559  0.0897  0.0135
53926SOL    HW169018   0.101   9.837  10.067 -0.5778  0.9957 -0.0083
53926SOL    HW269019  -0.010   9.893   9.980 -0.5706 -0.3328 -0.8918
53927SOL     OW69020   7.087   2.638  11.132 -0.0435  0.2668  0.2977
53927SOL    HW169021   7.046   2.721  11.107 -1.4519  0.1044  1.8268
53927SOL    HW269022   7.058   2.624  11.223  2.0595 -0.7533  0.8719
53928SOL     OW69023   9.722   7.329   7.197 -0.1775 -0.6220  0.5692
53928SOL    HW169024   9.806   7.349   7.155 -0.0473 -0.7873  0.7501
53928SOL    HW269025   9.725   7.234   7.213 -0.2528 -0.5707  0.8931
53929SOL     OW69026   9.988  11.913   3.732 -0.4390 -0.3926 -0.0414
53929SOL    HW169027   9.905  11.911   3.779 -0.5453  1.7870 -0.0070
53929SOL    HW269028   9.967  11.886   3.643 -1.5499  1.6362 -0.4514
53930SOL     OW69029   8.650   2.507   6.750 -0.0056 -0.3426 -0.0009
53930SOL    HW169030   8.578   2.496   6.812 -0.2895  1.8331  0.1100
53930SOL    HW269031   8.728   2.486   6.800 -0.2196  1.4457  1.1796
53931SOL     OW69032   4.374   0.785   0.937 -0.0190  0.8283  0.3485
53931SOL    HW169033   4.437   0.774   0.866  0.9225 -0.5024  1.3540
53931SOL    HW269034   4.397   0.718   1.001 -0.0045  2.8171  2.5616
53932SOL     OW69035  11.843   8.976  12.455 -0.2952  0.1138 -0.4553
53932SOL    HW169036  11.760   9.000  12.413  0.4408  1.5590 -1.1655
53932SOL    HW269037  11.907   8.977  12.383  0.1928 -1.9654 -0.1090
53933SOL     OW69038   4.884  10.406  12.061  0.2809  0.0834 -0.1173
53933SOL    HW169039   4.978  10.390  12.048  0.5709  0.3568  1.4918
53933SOL    HW269040   4.841  10.332  12.018  1.3052 -1.0164  0.7134
53934SOL     OW69041   6.150   9.521   1.232  0.3411  0.2606 -0.0130
53934SOL    HW169042   6.108   9.445   1.190  0.5890  0.8749 -1.4056
53934SOL    HW269043   6.077   9.578   1.255  0.1129 -0.5557  1.4400
53935SOL     OW69044   9.631   9.130   8.654 -0.2139  0.1779  0.4657
53935SOL    HW169045   9.570   9.132   8.580  0.5274  0.4557 -0.1517
53935SOL    HW269046   9.676   9.047   8.645 -0.6232 -0.1087  1.0296
53936SOL     OW69047   6.629   3.307  11.304 -0.2277 -0.0994  0.2028
53936SOL    HW169048   6.716   3.278  11.330  0.6071  0.0416 -2.1545
53936SOL    HW269049   6.584   3.226  11.278 -0.5132 -0.0704  0.5906
53937SOL     OW69050  11.690   3.920   1.415  0.0569 -0.4670  0.3703
53937SOL    HW169051  11.750   3.853   1.382  0.9958  0.5755 -0.1466
53937SOL    HW269052  11.625   3.930   1.345 -0.2955 -1.0785  0.6059
53938SOL     OW69053   0.483   0.884   1.857  0.3691 -0.5878 -0.1453
53938SOL    HW169054   0.420   0.956   1.867  0.7281 -0.0960 -1.2660
53938SOL    HW269055   0.568   0.925   1.871  0.7438 -0.2987 -2.7677
53939SOL     OW69056   6.906   9.245   4.231 -0.2948  0.3663  0.0328
53939SOL    HW169057   6.820   9.285   4.244 -0.3458  0.0252  0.8097
53939SOL    HW269058   6.929   9.211   4.317  0.0792 -0.6051 -0.4420
53940SOL     OW69059   1.575   8.420   2.365 -0.6305  0.6379 -0.1118
53940SOL    HW169060   1.480   8.426   2.373 -0.4958  3.3889  0.4635
53940SOL    HW269061   1.603   8.510   2.346  1.6767 -0.4801 -2.8089
53941SOL     OW69062   3.079   9.845   6.457  0.0644  0.3906  0.6020
53941SOL    HW169063   3.171   9.850   6.432 -0.0518 -0.5946 -0.0457
53941SOL    HW269064   3.051   9.937   6.464  0.6148  0.7068 -0.9613
53942SOL     OW69065   5.446  11.734   2.968  0.8201 -0.7861  0.1178
53942SOL    HW169066   5.516  11.668   2.963  1.2697 -0.2402 -3.7874
53942SOL    HW269067   5.378  11.701   2.910 -0.5505  0.5337  0.9076
53943SOL     OW69068   8.139   9.937   2.895  0.2313 -0.1957  0.3986
53943SOL    HW169069   8.202   9.999   2.859 -0.2004  0.5207  0.8468
53943SOL    HW269070   8.071   9.930   2.828 -0.0355  0.3184  0.6037
53944SOL     OW69071   4.235   2.997   7.242 -0.6848  0.0039  0.3756
53944SOL    HW169072   4.305   2.959   7.190 -2.1464 -0.6151 -1.2300
53944SOL    HW269073   4.280   3.043   7.313  1.2532 -2.0294  0.5756
53945SOL     OW69074   9.848   5.524   1.391  0.6191  0.0795 -0.6046
53945SOL    HW169075   9.860   5.431   1.368 -1.1664 -0.3160 -0.1370
53945SOL    HW269076   9.760   5.544   1.359 -0.2974  0.6945  2.0962
53946SOL     OW69077   7.292  12.160   6.308  0.2262 -0.9509 -0.6056
53946SOL    HW169078   7.360  12.172   6.243 -0.7002 -0.1289 -1.4608
53946SOL    HW269079   7.223  12.111   6.263 -0.5859 -0.0562 -0.3800
53947SOL     OW69080   4.978   4.509   1.779  0.0024 -0.2936  0.6657
53947SOL    HW169081   4.948   4.495   1.689  0.8561 -1.5846  0.5627
53947SOL    HW269082   4.963   4.426   1.823 -0.9904  0.5066  1.9153
53948SOL     OW69083  11.289   6.340  10.612  0.4092  0.6181  0.0084
53948SOL    HW169084  11.324   6.417  10.566  0.0773  0.2434 -0.9044
53948SOL    HW269085  11.195   6.342  10.594  0.2996  0.3496  0.5222
53949SOL     OW69086   2.307   2.485   9.726 -0.2544  0.1501  0.2637
53949SOL    HW169087   2.266   2.555   9.677 -0.1572 -0.2788 -0.4447
53949SOL    HW269088   2.399   2.486   9.698 -0.5739 -1.2627 -0.9704
53950SOL     OW69089   8.014  11.324   5.636 -0.0762  0.9501 -0.0023
53950SOL    HW169090   8.001  11.297   5.727 -0.6065 -1.0878 -0.6162
53950SOL    HW269091   8.043  11.415   5.642  0.1938  0.7926  2.2123
53951SOL     OW69092   2.003   6.112   3.294  0.5431  0.4815  0.0903
53951SOL    HW169093   1.948   6.153   3.361  1.3667  0.0807  1.0193
53951SOL    HW269094   2.026   6.026   3.329  1.9049  0.7023 -0.1952
53952SOL     OW69095   4.994  12.028   8.118  0.3114 -0.0593  0.1141
53952SOL    HW169096   4.944  12.100   8.157  2.5432  0.7177  1.7216
53952SOL    HW269097   4.945  11.949   8.142 -1.2994  0.7792 -0.2869
53953SOL     OW69098   2.563  10.779   0.480  0.6003  0.2038  0.0408
53953SOL    HW169099   2.517  10.735   0.552  1.6407 -0.8747  0.0835
53953SOL    HW269100   2.495  10.826   0.433 -0.3451 -0.3562  0.8119
53954SOL     OW69101   3.582   2.753   6.038 -0.0815  0.6271 -0.6407
53954SOL    HW169102   3.582   2.830   6.095 -0.3520  0.5860 -0.5813
53954SOL    HW269103   3.672   2.746   6.007  0.2911  0.1247  0.4869
53955SOL     OW69104   1.824   2.953   5.424 -0.1348 -0.3444 -0.1283
53955SOL    HW169105   1.748   3.004   5.453  0.1537  1.8563 -2.8129
53955SOL    HW269106   1.899   2.998   5.463 -0.0474 -0.7394  0.1607
53956SOL     OW69107  11.656  11.846   0.914 -0.7629  0.1669 -0.5520
53956SOL    HW169108  11.565  11.858   0.887 -1.0148 -0.2301  0.1044
53956SOL    HW269109  11.666  11.903   0.990 -0.4641  0.2094 -0.6238
53957SOL     OW69110   0.886  11.385   3.590 -0.8564  0.1630 -0.3775
53957SOL    HW169111   0.905  11.307   3.537 -0.7826 -1.3572  1.7767
53957SOL    HW269112   0.823  11.355   3.655  1.0656  1.2023  2.1150
53958SOL     OW69113   6.401   8.138   0.835  0.1250  0.7685 -0.2401
53958SOL    HW169114   6.342   8.138   0.910  0.1753 -0.5354 -0.1922
53958SOL    HW269115   6.385   8.223   0.792 -0.2958  1.2884  0.9159
53959SOL     OW69116   9.541   6.349   7.044 -0.0789 -0.0245 -0.3479
53959SOL    HW169117   9.620   6.338   6.990  0.2075 -0.1847  0.0982
53959SOL    HW269118   9.497   6.426   7.008  0.8376  0.7188  0.0802
53960SOL     OW69119   3.108  12.605  11.345 -0.3190 -0.1233 -0.0656
53960SOL    HW169120   3.094  12.602  11.440 -0.6407  3.0361  0.0887
53960SOL    HW269121   3.200  12.582  11.333 -0.4223 -1.1607  0.9017
53961SOL     OW69122  10.302  10.708  12.088  0.0988 -0.1959  0.4781
53961SOL    HW169123  10.262  10.711  12.175 -0.3597 -1.6719  0.3462
53961SOL    HW269124  10.395  10.696  12.105  0.1659  0.6897  0.7648
53962SOL     OW69125   5.588   0.756   2.983 -0.3527 -0.5362  0.0460
53962SOL    HW169126   5.659   0.692   2.981 -1.2697 -1.8637  3.5027
53962SOL    HW269127   5.519   0.716   2.931 -0.4925 -1.8787  1.2090
53963SOL     OW69128   4.259   4.059   7.891 -0.4635 -0.4238  0.4355
53963SOL    HW169129   4.259   4.122   7.963  0.0119  0.4213 -0.2828
53963SOL    HW269130   4.272   4.112   7.812 -2.0675 -1.1942 -0.4082
53964SOL     OW69131   7.745  11.943   0.400 -0.0230 -0.0700  0.1328
53964SOL    HW169132   7.687  11.927   0.326  0.7392 -0.3729 -0.4185
53964SOL    HW269133   7.827  11.900   0.375  0.3935  0.2302  0.9510
53965SOL     OW69134   5.489   3.707   8.736  0.2817 -0.1315  0.3535
53965SOL    HW169135   5.522   3.633   8.787  0.5999  0.1606  0.5784
53965SOL    HW269136   5.509   3.685   8.645 -0.1992 -0.6108  0.3571
53966SOL     OW69137   5.381   0.527   7.156  0.0544 -0.4634  0.4321
53966SOL    HW169138   5.375   0.620   7.135 -0.4963 -0.6327 -0.1993
53966SOL    HW269139   5.469   0.502   7.127  0.4855  0.0248  1.3063
53967SOL     OW69140   5.430   9.861  12.401 -0.2027  0.4645  0.3727
53967SOL    HW169141   5.412   9.787  12.459  0.1542  1.2351  1.5005
53967SOL    HW269142   5.506   9.834  12.350  0.2842  0.2594  1.1854
53968SOL     OW69143   4.858   3.237   3.412  0.4047 -0.2260  0.9494
53968SOL    HW169144   4.929   3.173   3.414  0.5176 -0.1736 -0.3429
53968SOL    HW269145   4.890   3.306   3.354 -0.1849  0.4346  1.4020
53969SOL     OW69146   2.167   5.495   6.766 -0.2642  0.3965 -0.3099
53969SOL    HW169147   2.189   5.462   6.678  1.1417  0.7785 -0.1258
53969SOL    HW269148   2.205   5.431   6.826 -2.9679 -0.9910  0.0961
53970SOL     OW69149   7.552   1.329  12.593  0.5057  0.8534  0.3985
53970SOL    HW169150   7.647   1.330  12.604  0.5513  0.2563  0.0944
53970SOL    HW269151   7.536   1.399  12.530  1.0439 -0.7133 -1.5983
53971SOL     OW69152   5.355   2.145  11.398  0.3500  0.2076 -0.2553
53971SOL    HW169153   5.399   2.132  11.482  1.0934  1.3930 -0.4478
53971SOL    HW269154   5.364   2.061  11.353 -0.8328 -0.7461  1.1740
53972SOL     OW69155   1.587   0.881   3.639 -0.2265  0.6060 -0.4465
53972SOL    HW169156   1.570   0.805   3.583  0.0511 -0.7113  1.1731
53972SOL    HW269157   1.681   0.897   3.631 -0.4173  1.3727 -1.4507
53973SOL     OW69158  10.610   2.051  10.663  0.4423  0.0744 -0.2134
53973SOL    HW169159  10.602   2.047  10.568  2.7446 -0.4195 -0.4445
53973SOL    HW269160  10.665   1.976  10.686 -1.1097 -0.5670  1.6867
53974SOL     OW69161   4.255   3.412   0.015 -0.0740 -0.3355 -0.4672
53974SOL    HW169162   4.320   3.423   0.084  0.7257  0.8361 -1.3714
53974SOL    HW269163   4.178   3.379   0.060  0.0734  1.4122  1.1784
53975SOL     OW69164   8.347   9.309  10.409 -0.5787 -0.9333  0.3193
53975SOL    HW169165   8.437   9.336  10.391  0.0405 -4.0107 -2.1463
53975SOL    HW269166   8.321   9.361  10.485  3.1876  0.2581  1.0063
53976SOL     OW69167   8.641   7.905   3.158 -0.0424 -0.4749 -0.4150
53976SOL    HW169168   8.724   7.918   3.204  0.3249  0.1231 -1.2170
53976SOL    HW269169   8.666   7.886   3.068 -0.7231 -2.3648 -0.2661
53977SOL     OW69170   8.117   6.843  11.607  0.1403 -0.2606 -0.5505
53977SOL    HW169171   8.160   6.925  11.583 -1.2228  0.8506  0.6316
53977SOL    HW269172   8.074   6.814  11.527 -0.8547  1.1540 -0.5686
53978SOL     OW69173  11.092  12.300  12.136 -0.1192  0.0076  0.2196
53978SOL    HW169174  11.026  12.369  12.129  0.7058  0.8063  0.2423
53978SOL    HW269175  11.065  12.249  12.213 -0.1876  0.8853  0.7872
53979SOL     OW69176  11.623  11.282   3.938 -0.1626  0.9520  0.5289
53979SOL    HW169177  11.651  11.370   3.965  0.7523  0.4321  1.3065
53979SOL    HW269178  11.703  11.239   3.908 -0.7947  0.7569 -0.9737
53980SOL     OW69179   2.432   4.750  11.361  0.3564 -0.5858 -0.6923
53980SOL    HW169180   2.494   4.687  11.324 -1.4942 -1.9400 -1.6203
53980SOL    HW269181   2.442   4.827  11.305  2.1069 -0.2671 -0.0141
53981SOL     OW69182  10.853   2.571   0.960 -0.3843  0.6898 -0.3779
53981SOL    HW169183  10.810   2.485   0.958  0.4448  0.1721  1.3118
53981SOL    HW269184  10.823   2.615   0.881 -3.7542  0.2640  0.5166
53982SOL     OW69185   0.313   3.889  11.975  0.1481  0.7546 -0.1693
53982SOL    HW169186   0.273   3.949  12.038  0.1795 -0.0699  0.6451
53982SOL    HW269187   0.344   3.946  11.905 -0.4559  1.6251  0.2464
53983SOL     OW69188   9.926  10.133   5.069  0.0654  0.1353  0.1163
53983SOL    HW169189   9.960  10.198   5.007 -0.5600  1.7545  1.3839
53983SOL    HW269190  10.004  10.097   5.111  0.3860  1.1626  0.4351
53984SOL     OW69191  10.501  12.668   6.227 -0.3903  0.3133  0.4879
53984SOL    HW169192  10.529  12.578   6.208 -0.0956  0.3065  0.9356
53984SOL    HW269193  10.583  12.714   6.248 -0.4705  0.8328 -0.3131
53985SOL     OW69194  10.038   9.773   1.879  0.1681  0.1985 -0.5853
53985SOL    HW169195  10.123   9.816   1.893  1.5233 -1.7876 -2.1919
53985SOL    HW269196  10.027   9.773   1.784  0.0390 -2.5686 -0.6351
53986SOL     OW69197   0.132   4.599   2.693 -0.7737  0.0381 -0.2843
53986SOL    HW169198   0.161   4.522   2.741 -1.6732  1.4542  2.8436
53986SOL    HW269199   0.045   4.576   2.659 -1.5269 -0.0488  1.5860
53987SOL     OW69200   4.054   3.171   4.797  0.0226  0.5595 -0.6312
53987SOL    HW169201   3.967   3.133   4.805 -1.1164  2.9127 -1.1419
53987SOL    HW269202   4.064   3.190   4.704  1.5329 -0.5838 -0.7422
53988SOL     OW69203   0.147  12.414   5.707 -0.0416 -0.2141 -0.1494
53988SOL    HW169204   0.240  12.402   5.729 -0.8719 -0.7279  3.7528
53988SOL    HW269205   0.126  12.502   5.738 -0.9387 -0.1940 -0.7745
53989SOL     OW69206   6.882   8.178   0.734  0.1899 -0.0203  0.3782
53989SOL    HW169207   6.844   8.266   0.725 -0.5383 -0.4411 -0.9313
53989SOL    HW269208   6.807   8.123   0.758  0.2189 -0.6084 -0.7978
53990SOL     OW69209   4.484   6.294   2.453 -0.5565  0.3427 -0.2007
53990SOL    HW169210   4.422   6.263   2.387 -0.3298  0.9768 -0.7254
53990SOL    HW269211   4.563   6.314   2.403 -0.0559 -0.1091  0.4123
53991SOL     OW69212   2.172  12.306   2.949 -0.3692 -0.7664 -0.6475
53991SOL    HW169213   2.229  12.327   3.023 -0.3239 -2.5815 -0.1257
53991SOL    HW269214   2.104  12.374   2.952  1.2689  0.9849 -0.8165
53992SOL     OW69215   3.647   8.366   2.213  0.0623 -0.6705 -0.3147
53992SOL    HW169216   3.611   8.438   2.264 -0.8440 -0.2075 -1.5750
53992SOL    HW269217   3.706   8.408   2.151  1.6231 -1.2826  0.6820
53993SOL     OW69218   0.999   3.599  10.300 -0.1820 -1.0513 -0.2605
53993SOL    HW169219   1.029   3.618  10.389  0.8546  3.0099 -1.2645
53993SOL    HW269220   1.078   3.572  10.254 -0.4462 -1.7899 -0.2894
53994SOL     OW69221   9.505   2.939   2.102 -0.2685  0.3595 -0.1739
53994SOL    HW169222   9.425   2.900   2.067 -0.9095  0.8981  0.6462
53994SOL    HW269223   9.576   2.884   2.068 -1.1046 -1.2607  0.5878
53995SOL     OW69224   7.553   8.761  11.033  0.1635 -0.6094  0.5147
53995SOL    HW169225   7.649   8.753  11.027  0.3454  0.6678  1.4136
53995SOL    HW269226   7.522   8.670  11.035  1.3373 -1.0477  0.0562
53996SOL     OW69227   2.219  11.128  11.709  0.2463  0.4004 -0.5262
53996SOL    HW169228   2.230  11.055  11.649  0.2306  0.0283 -0.0809
53996SOL    HW269229   2.144  11.177  11.674  2.5544  2.4166 -3.0341
53997SOL     OW69230   9.114   4.628   7.215  0.4424  0.3797 -0.7603
53997SOL    HW169231   9.194   4.596   7.257  0.2146 -0.1766 -0.7477
53997SOL    HW269232   9.143   4.659   7.129  0.9749  1.8823 -0.0695
53998SOL     OW69233   1.734   2.546   5.499  0.0567 -0.0042 -0.3407
53998SOL    HW169234   1.814   2.572   5.454 -0.8819  1.2402 -1.3428
53998SOL    HW269235   1.664   2.592   5.453 -1.0297  0.7491  1.9425
53999SOL     OW69236  11.419   4.502   0.773  0.2239  0.0224  0.5953
53999SOL    HW169237  11.421   4.416   0.730  1.7650 -0.2917  1.2039
53999SOL    HW269238  11.392   4.484   0.862  0.5985  0.1434  0.7376
54000SOL     OW69239  10.283   5.607   7.674  0.0267 -0.0773  0.4292
54000SOL    HW169240  10.254   5.672   7.738  1.2757 -0.6625  1.6367
54000SOL    HW269241  10.372   5.635   7.651  0.8281 -1.6494  1.4267
54001SOL     OW69242  10.017   8.671   0.070  0.5140 -0.2988  0.3166
54001SOL    HW169243  10.094   8.622   0.099  1.9020  1.8058  0.3460
54001SOL    HW269244  10.038   8.698  -0.019 -1.6619 -2.5115 -1.0178
54002SOL     OW69245   6.774  10.892  10.728  0.0981  0.1647  0.9271
54002SOL    HW169246   6.748  10.953  10.659  1.6675 -0.0734  0.0859
54002SOL    HW269247   6.862  10.863  10.703 -0.0804 -1.4366  2.0021
54003SOL     OW69248   9.124  10.085  10.647 -0.4946 -0.0687  0.3430
54003SOL    HW169249   9.033  10.093  10.617 -0.7190 -0.0616  1.0128
54003SOL    HW269250   9.157  10.175  10.647 -0.6689 -0.0029  0.6409
54004SOL     OW69251  11.470   2.870   9.141  0.1458  0.0988  0.3725
54004SOL    HW169252  11.390   2.856   9.191  0.3389 -0.3175  0.5696
54004SOL    HW269253  11.541   2.862   9.206  0.2717  2.7407  0.6882
54005SOL     OW69254   7.373  10.879   5.957  0.1168  0.2503 -0.1939
54005SOL    HW169255   7.410  10.898   5.871  1.5416  3.1966  0.9497
54005SOL    HW269256   7.420  10.801   5.987 -0.0662 -0.5284 -1.8153
54006SOL     OW69257   2.740   2.356   5.386  0.0937  0.2331  0.1470
54006SOL    HW169258   2.807   2.311   5.335 -0.7892 -0.2572 -0.6156
54006SOL    HW269259   2.759   2.332   5.477  0.5662 -0.4087 -0.1088
54007SOL     OW69260   8.829  11.873   1.743  0.3054 -0.1175 -0.2827
54007SOL    HW169261   8.844  11.798   1.685 -1.6344 -0.2760 -0.6472
54007SOL    HW269262   8.866  11.845   1.827  0.2519 -1.2135 -0.6043
54008SOL     OW69263   5.599  11.451   7.800  0.4059 -0.1769  0.2663
54008SOL    HW169264   5.653  11.375   7.823  1.5484  0.8506  1.1076
54008SOL    HW269265   5.533  11.456   7.870  0.8842  0.1240  0.6977
54009SOL     OW69266   4.925  10.579   1.328 -0.1929  0.6045 -0.2529
54009SOL    HW169267   4.882  10.641   1.270 -2.4056  1.0058  1.6924
54009SOL    HW269268   4.870  10.501   1.325  0.2911  0.2237  0.4406
54010SOL     OW69269  10.671   6.109   8.630  0.2769 -0.1764  0.3123
54010SOL    HW169270  10.661   6.022   8.592  1.6827 -0.7347  1.1351
54010SOL    HW269271  10.703   6.092   8.719  0.6067  1.1787  0.4686
54011SOL     OW69272   4.290   0.168   4.739 -0.2107  0.0523 -0.4306
54011SOL    HW169273   4.288   0.253   4.782 -1.2405 -0.3486  0.3614
54011SOL    HW269274   4.383   0.151   4.722  0.1731  0.5101  1.0728
54012SOL     OW69275   0.351   4.951   7.769 -0.4808  0.4571 -0.0278
54012SOL    HW169276   0.388   5.024   7.820 -0.8790 -0.0292  0.9871
54012SOL    HW269277   0.260   4.947   7.797 -0.2027 -1.1075  0.7419
54013SOL     OW69278   7.962   4.728   2.332 -0.4344  0.7375  0.3465
54013SOL    HW169279   7.874   4.766   2.325  0.0309  1.6092 -1.1884
54013SOL    HW269280   7.997   4.734   2.243  1.4924  1.1623  1.1032
54014SOL     OW69281   5.049   0.239  11.287 -0.4773  0.0589 -0.2060
54014SOL    HW169282   4.974   0.189  11.320 -0.5651 -0.8437 -1.6749
54014SOL    HW269283   5.098   0.264  11.366 -0.9655 -1.5171  0.6426
54015SOL     OW69284   7.235   8.238   3.289 -0.5490  0.5882 -0.0041
54015SOL    HW169285   7.172   8.262   3.357 -1.8823 -2.1786 -0.1450
54015SOL    HW269286   7.183   8.232   3.209  0.5027  1.2004 -0.7545
54016SOL     OW69287   8.907  10.473   0.488  0.0290 -0.1666 -0.0989
54016SOL    HW169288   8.977  10.449   0.548  0.2154 -0.7210 -0.5237
54016SOL    HW269289   8.896  10.567   0.499 -0.0270 -0.2847  0.8856
54017SOL     OW69290   8.274  11.781   7.319 -0.6201  0.2722 -0.4249
54017SOL    HW169291   8.292  11.690   7.343 -2.8295 -0.5143 -1.4985
54017SOL    HW269292   8.292  11.785   7.225  1.0438  1.4225 -0.0969
54018SOL     OW69293   2.071  10.313   1.511 -0.5659  0.0468  0.4448
54018SOL    HW169294   2.009  10.249   1.474  1.1567 -1.9126  0.7757
54018SOL    HW269295   2.060  10.391   1.457  0.5343 -2.0479 -3.1682
54019SOL     OW69296   4.712  11.397   6.501 -0.1646  0.1439 -0.5011
54019SOL    HW169297   4.725  11.412   6.595  0.7204 -1.3720 -0.3599
54019SOL    HW269298   4.635  11.450   6.479 -1.8553 -1.2792  1.6028
54020SOL     OW69299   5.838   3.061   0.034 -0.3100  0.2088 -0.1063
54020SOL    HW169300   5.880   3.049   0.119  0.1331 -1.4963 -0.5203
54020SOL    HW269301   5.909   3.091  -0.024 -0.6735  1.6569  0.1566
54021SOL     OW69302   2.022   7.014   3.477 -0.3019 -0.2224 -0.6034
54021SOL    HW169303   2.101   6.976   3.440  0.5665 -0.8834  1.7203
54021SOL    HW269304   2.044   7.030   3.569 -2.9988 -0.9121  0.2753
54022SOL     OW69305   9.128   3.744   2.465  0.5872 -0.2750  0.3909
54022SOL    HW169306   9.141   3.650   2.450 -0.5248 -0.1829 -1.5428
54022SOL    HW269307   9.035   3.758   2.448  0.9448  1.3453 -0.4452
54023SOL     OW69308   7.575   4.254   6.566  0.6822 -0.2158  0.1146
54023SOL    HW169309   7.616   4.340   6.570  0.3188 -0.0502  0.3061
54023SOL    HW269310   7.481   4.271   6.565  0.5634 -0.6430  1.5122
54024SOL     OW69311  11.063   6.705  12.554  0.2230  0.1136 -0.0891
54024SOL    HW169312  11.093   6.619  12.523 -0.3715 -0.5647  1.1470
54024SOL    HW269313  11.120   6.724  12.628  1.0469  1.3083 -0.9838
54025SOL     OW69314  10.598   5.126   2.039  0.1719 -0.4476  0.1393
54025SOL    HW169315  10.617   5.038   2.007 -0.1769 -0.6338  0.4476
54025SOL    HW269316  10.531   5.160   1.979  0.2565 -0.4155  0.0618
54026SOL     OW69317  11.328   1.683   9.769  0.3145  0.1027  0.0464
54026SOL    HW169318  11.362   1.669   9.681  0.3362 -0.2453  0.1066
54026SOL    HW269319  11.403   1.714   9.820  0.2966  0.3226 -0.0606
54027SOL     OW69320   1.701  11.623   4.048  0.1732 -0.1399  0.5579
54027SOL    HW169321   1.646  11.657   4.119  0.2596 -0.2233  0.6648
54027SOL    HW269322   1.646  11.558   4.004  0.4676 -0.8301  1.1772
54028SOL     OW69323   8.755   0.735   0.445  0.3067  0.1216  0.4322
54028SOL    HW169324   8.764   0.827   0.470  1.9360  0.1357 -0.1374
54028SOL    HW269325   8.833   0.693   0.479 -0.2347 -0.9975  0.3388
54029SOL     OW69326   3.841   2.643   5.910  0.6162 -0.2291 -0.2585
54029SOL    HW169327   3.775   2.606   5.851  1.2913 -0.4309 -0.9042
54029SOL    HW269328   3.858   2.573   5.974  0.4972 -0.3283 -0.3356
54030SOL     OW69329   0.336   1.823   2.918  0.0147  0.1091  0.5410
54030SOL    HW169330   0.296   1.876   2.850 -0.1282  0.8184  1.1706
54030SOL    HW269331   0.263   1.773   2.956  0.2052 -0.8308 -0.2957
54031SOL     OW69332   1.196   2.319  11.572  0.0081 -0.1974 -0.3940
54031SOL    HW169333   1.203   2.283  11.660  2.0269 -0.6031 -0.6831
54031SOL    HW269334   1.274   2.289  11.526 -0.4859  0.8352 -2.0377
54032SOL     OW69335   7.075   4.565   4.073  0.2339 -0.3132  0.5896
54032SOL    HW169336   7.064   4.470   4.084  2.7301 -0.6877  0.6390
54032SOL    HW269337   7.068   4.579   3.979  1.8445 -0.9503  0.3246
54033SOL     OW69338  10.582   1.074   5.995 -0.0973  0.4622  0.1403
54033SOL    HW169339  10.590   0.982   5.969 -1.6804  0.7711 -1.6274
54033SOL    HW269340  10.515   1.074   6.062 -0.8584  0.4324 -0.6095
54034SOL     OW69341   4.132   1.773   9.618 -0.2996 -0.1686 -0.3816
54034SOL    HW169342   4.070   1.711   9.658  0.7713 -0.5521  0.7711
54034SOL    HW269343   4.077   1.836   9.572 -1.7519  0.9144  2.5633
54035SOL     OW69344   8.537  10.478   8.911 -0.2049 -0.7581  0.3974
54035SOL    HW169345   8.477  10.551   8.929  0.2270 -0.0664 -0.8452
54035SOL    HW269346   8.583  10.465   8.994  2.0768  2.6483 -0.1059
54036SOL     OW69347   3.510  10.073  11.711 -0.1066  0.0787  0.1833
54036SOL    HW169348   3.563  10.139  11.758 -0.3164  0.7279 -0.4690
54036SOL    HW269349   3.492  10.006  11.777 -0.8389  1.2162  1.1830
54037SOL     OW69350   4.652   9.427   4.375 -0.2799  0.2683 -0.4286
54037SOL    HW169351   4.567   9.418   4.331  0.0214 -1.1421 -0.7680
54037SOL    HW269352   4.716   9.397   4.310  0.4932  1.3562 -0.1887
54038SOL     OW69353   1.118   5.225   1.484  0.0092  0.8458  0.1022
54038SOL    HW169354   1.154   5.142   1.451  0.6964  1.1157  0.1464
54038SOL    HW269355   1.053   5.198   1.549 -0.6924  0.3274 -0.7930
54039SOL     OW69356   2.051  12.529   3.391  0.0147  0.4235  0.1424
54039SOL    HW169357   2.124  12.590   3.404  0.9438 -0.4950 -0.5703
54039SOL    HW269358   1.973  12.582   3.404  0.7865  1.7602 -0.4347
54040SOL     OW69359  11.687   5.279   2.399  0.1954 -0.1546 -0.2847
54040SOL    HW169360  11.609   5.233   2.368  0.3768 -0.9508  0.3899
54040SOL    HW269361  11.741   5.210   2.438  0.9748  0.4748 -0.2314
54041SOL     OW69362   8.630   9.794   7.218 -0.1274  0.4036  0.3366
54041SOL    HW169363   8.708   9.818   7.168 -0.1823 -0.1409 -0.0191
54041SOL    HW269364   8.665   9.757   7.299 -0.0259  0.8238  0.4827
54042SOL     OW69365   9.225  10.477   3.886 -0.3091  0.7647  0.5399
54042SOL    HW169366   9.265  10.527   3.957 -2.1380  2.1714  0.6643
54042SOL    HW269367   9.165  10.539   3.844 -0.5451 -0.5319 -1.1643
54043SOL     OW69368   9.583   6.432   7.330  0.0927  0.3462  0.0998
54043SOL    HW169369   9.581   6.436   7.235  1.8981 -0.0279 -0.0062
54043SOL    HW269370   9.537   6.510   7.359 -1.6242 -0.1845 -1.0259
54044SOL     OW69371   5.747   1.200  11.158 -0.9438 -0.0546  0.2555
54044SOL    HW169372   5.819   1.242  11.206 -0.1995 -1.0190  0.0033
54044SOL    HW269373   5.743   1.111  11.193 -1.6915 -0.1667 -0.0971
54045SOL     OW69374  11.300   2.109   5.592  0.9970 -0.4242  0.4978
54045SOL    HW169375  11.337   2.178   5.648  2.6899 -0.1210 -0.8908
54045SOL    HW269376  11.279   2.038   5.652  1.2575  0.4877  1.7117
54046SOL     OW69377  11.392   6.525   4.480 -0.4587  0.2150 -0.0914
54046SOL    HW169378  11.321   6.461   4.483  0.2571 -0.6071 -0.0977
54046SOL    HW269379  11.452   6.498   4.550 -0.6142  1.4638  0.5464
54047SOL     OW69380   6.641   9.125   7.032  0.4674  0.1000  0.0834
54047SOL    HW169381   6.699   9.168   6.970  0.5495  0.3172  0.3053
54047SOL    HW269382   6.649   9.177   7.112  1.2007 -0.7968  0.6207
54048SOL     OW69383   9.733   9.335  11.600 -0.2483  0.3856 -0.3294
54048SOL    HW169384   9.819   9.337  11.558  0.0692 -1.2737  0.1665
54048SOL    HW269385   9.708   9.427  11.608  1.3463  0.8850 -0.7519
54049SOL     OW69386   4.072   2.083  11.344  0.0257  0.2354 -0.9617
54049SOL    HW169387   4.124   2.074  11.424 -0.6242  0.7157 -0.4787
54049SOL    HW269388   4.037   2.172  11.348  0.8923  0.6811 -2.3356
54050SOL     OW69389   0.224   2.621  10.006  0.3548 -0.2729  0.3299
54050SOL    HW169390   0.148   2.592   9.956  0.0818  0.3437  0.3783
54050SOL    HW269391   0.278   2.668   9.942 -0.7773  1.9736  0.8937
54051SOL     OW69392   6.741   9.128   4.918  0.2389 -0.3242  0.7371
54051SOL    HW169393   6.724   9.099   4.828  0.0167  0.8454  0.3912
54051SOL    HW269394   6.801   9.201   4.909  1.2609 -1.0222  1.6411
54052SOL     OW69395   5.541   1.103   7.849 -0.2366 -0.4814  0.0802
54052SOL    HW169396   5.501   1.161   7.783  0.7836 -0.8351 -0.8762
54052SOL    HW269397   5.612   1.155   7.887  2.3515 -1.8076 -2.5448
54053SOL     OW69398   3.187   1.811   5.696  0.2499  0.9129 -0.0621
54053SOL    HW169399   3.239   1.764   5.761  2.9746  0.4208 -2.4118
54053SOL    HW269400   3.163   1.893   5.740  2.5911  0.9298  1.3742
54054SOL     OW69401   6.040   3.399   2.349  0.4816 -0.8344 -0.0259
54054SOL    HW169402   6.068   3.351   2.426  2.3601 -0.3585 -0.3624
54054SOL    HW269403   6.068   3.345   2.275  1.8915  0.3270 -0.3919
54055SOL     OW69404   2.687  10.671   0.251 -0.1743 -0.0700 -0.2774
54055SOL    HW169405   2.640  10.703   0.328 -1.4143 -0.6123 -0.7889
54055SOL    HW269406   2.708  10.580   0.272 -0.7236 -0.2892 -0.6776
54056SOL     OW69407   0.408  11.165   6.703 -0.3013 -0.0887 -0.2673
54056SOL    HW169408   0.441  11.254   6.696 -0.0173 -0.0268  1.4388
54056SOL    HW269409   0.353  11.166   6.781 -1.0054 -1.2056 -0.7182
54057SOL     OW69410   3.854   9.843   4.022  0.0283  0.2091  0.2217
54057SOL    HW169411   3.829   9.927   3.984 -1.9296  0.6553  2.2834
54057SOL    HW269412   3.809   9.778   3.970 -0.4826  0.6211  0.1462
54058SOL     OW69413   3.069   5.093   2.828 -0.1051  0.2761 -0.5038
54058SOL    HW169414   3.088   5.186   2.839 -1.0247  0.2585  1.7158
54058SOL    HW269415   2.996   5.076   2.887  0.9407 -2.1398  0.2412
54059SOL     OW69416   5.117  11.962   2.852  0.2862  0.4437  0.6443
54059SOL    HW169417   5.135  12.037   2.796  0.4590  0.0417  0.1556
54059SOL    HW269418   5.193  11.905   2.840 -0.9465 -0.9301 -0.8496
54060SOL     OW69419   5.251   6.845   3.471 -0.1299 -0.1166 -0.0120
54060SOL    HW169420   5.220   6.817   3.557 -0.8768  2.2049  0.5435
54060SOL    HW269421   5.347   6.836   3.476 -0.1886 -0.2940  0.9563
54061SOL     OW69422   6.025   3.731  10.763  0.3404 -0.8122  0.0421
54061SOL    HW169423   5.958   3.671  10.728  1.3902 -0.8580 -2.0659
54061SOL    HW269424   5.984   3.818  10.755  0.5282 -0.8248 -1.3629
54062SOL     OW69425   1.673  11.146   6.354  0.2596 -0.1896  0.1255
54062SOL    HW169426   1.679  11.210   6.284 -1.1581 -0.7262 -0.5296
54062SOL    HW269427   1.605  11.084   6.325  3.3704 -3.6597 -0.5877
54063SOL     OW69428   1.045   3.634   7.741 -0.5114  0.1745 -0.1685
54063SOL    HW169429   1.076   3.685   7.816  2.5270  1.2298 -1.9862
54063SOL    HW269430   1.076   3.545   7.759  0.5556  0.5031 -0.3344
54064SOL     OW69431   7.731   3.951   1.340  0.4190  0.3381 -0.8678
54064SOL    HW169432   7.648   3.925   1.300 -0.7390  0.7583  1.1335
54064SOL    HW269433   7.741   4.043   1.317 -0.5903  0.7662  0.2812
54065SOL     OW69434   3.599   8.490  11.142 -0.0617 -0.2368 -0.3366
54065SOL    HW169435   3.572   8.559  11.081 -0.5702  0.2863  0.4591
54065SOL    HW269436   3.552   8.510  11.223  0.7931 -0.7683  0.3125
54066SOL     OW69437   0.347   6.129   4.423 -0.1877  0.1757 -0.2621
54066SOL    HW169438   0.405   6.169   4.488  0.6789  1.5343 -1.7978
54066SOL    HW269439   0.279   6.086   4.475  2.7283 -2.5606  1.7261
54067SOL     OW69440   3.513   9.396   4.381  0.1566 -0.7456  0.2614
54067SOL    HW169441   3.562   9.447   4.317  0.2943  0.6178  1.3946
54067SOL    HW269442   3.422   9.402   4.353 -0.1369  1.9582  1.4536
54068SOL     OW69443   2.945  11.853   9.852 -0.0263 -0.1002 -0.1819
54068SOL    HW169444   2.909  11.767   9.828 -1.6109 -0.2632  2.3173
54068SOL    HW269445   2.897  11.877   9.931  1.9167  2.1129  0.4434
54069SOL     OW69446   3.646  11.634   9.547 -0.0352 -0.9121  0.5450
54069SOL    HW169447   3.630  11.621   9.453  0.7883 -1.8741  0.5199
54069SOL    HW269448   3.706  11.563   9.570 -1.2914 -1.5208  2.1006
54070SOL     OW69449  12.467   5.289   2.697  0.0130  0.0261 -0.4138
54070SOL    HW169450  12.445   5.217   2.757 -1.9233 -1.0806 -2.3230
54070SOL    HW269451  12.442   5.368   2.745  2.5121 -0.4066  1.8847
54071SOL     OW69452   2.538   4.334   3.466  0.8427 -0.2752  0.2825
54071SOL    HW169453   2.494   4.401   3.518  0.3172 -1.0090  0.8156
54071SOL    HW269454   2.555   4.375   3.381 -0.6446  0.1119  0.1568
54072SOL     OW69455   1.382   1.740  11.297  0.0497  0.4016  0.5554
54072SOL    HW169456   1.307   1.787  11.334  0.0259  0.3050  0.6302
54072SOL    HW269457   1.364   1.738  11.203 -0.9005 -1.1140  0.7361
54073SOL     OW69458   1.781   0.988  10.963  0.3369  0.3616  0.2804
54073SOL    HW169459   1.710   0.940  10.920  0.6712  1.5769 -1.7600
54073SOL    HW269460   1.796   1.064  10.906  1.9996  1.1331  1.6755
54074SOL     OW69461  12.325   9.895  12.665 -0.5848  0.2121 -0.5460
54074SOL    HW169462  12.332   9.886  12.760  1.0451  0.7513 -0.5867
54074SOL    HW269463  12.410   9.866  12.632 -1.1323  0.0355 -1.8486
54075SOL     OW69464   7.573   6.664  11.046  0.1405 -0.6475  0.1484
54075SOL    HW169465   7.549   6.638  11.135 -3.5947 -0.5603 -0.6796
54075SOL    HW269466   7.653   6.715  11.057 -0.4387 -0.2344  3.5058
54076SOL     OW69467   2.848   7.105   0.049  0.1405 -0.4813  0.1787
54076SOL    HW169468   2.810   7.065  -0.030 -2.1030 -1.7415  1.7923
54076SOL    HW269469   2.928   7.055   0.066 -0.6249 -1.8046  0.0217
54077SOL     OW69470   5.252   6.988   2.606 -0.1662  0.1749  0.0413
54077SOL    HW169471   5.338   7.027   2.623 -0.3441  0.4141  0.4112
54077SOL    HW269472   5.197   7.020   2.677 -0.3481 -0.6642  0.2809
54078SOL     OW69473   3.480   0.189   0.474  0.1118 -0.0244 -0.4209
54078SOL    HW169474   3.405   0.207   0.417 -0.2087  0.4807  0.1502
54078SOL    HW269475   3.466   0.099   0.504 -0.8489  0.4404  0.5480
54079SOL     OW69476   9.467   3.939   9.493 -0.1801  0.3116  0.3519
54079SOL    HW169477   9.479   3.891   9.412  0.5836 -0.0058  0.6474
54079SOL    HW269478   9.500   4.027   9.475 -1.0625  0.5782 -0.0174
54080SOL     OW69479   5.431   6.158   9.805  0.3743  0.0552  0.0276
54080SOL    HW169480   5.462   6.131   9.891 -1.0316 -1.2037  0.1753
54080SOL    HW269481   5.373   6.233   9.822  1.4589  0.9240 -0.0213
54081SOL     OW69482  10.370  10.813   6.997  0.3410  0.3205 -0.3066
54081SOL    HW169483  10.323  10.852   6.924 -1.9847 -0.7092  0.5392
54081SOL    HW269484  10.444  10.872   7.013 -2.6864  4.2714  0.7041
54082SOL     OW69485  11.695   6.445   9.694  0.2599 -0.9444 -0.5907
54082SOL    HW169486  11.717   6.415   9.606 -0.1052 -0.2288 -0.9377
54082SOL    HW269487  11.675   6.538   9.683  0.5757 -0.7552  0.3126
54083SOL     OW69488   2.639   2.255  12.225 -0.3817 -0.1099 -0.0213
54083SOL    HW169489   2.636   2.264  12.130 -0.2837  0.1746  0.0016
54083SOL    HW269490   2.599   2.335  12.258 -1.2546 -0.6203  0.1699
54084SOL     OW69491   7.548   5.795   2.513  0.4758  0.1430 -0.3165
54084SOL    HW169492   7.606   5.852   2.462  0.5029 -0.0271 -0.4748
54084SOL    HW269493   7.475   5.851   2.537  1.5415  0.8747  1.4054
54085SOL     OW69494   7.700   2.566   7.323 -0.4841 -0.1467 -0.1384
54085SOL    HW169495   7.696   2.509   7.401  0.7023 -0.6652 -0.4354
54085SOL    HW269496   7.738   2.510   7.255 -1.0550  0.4538 -0.9646
54086SOL     OW69497   9.860   5.687  10.993 -0.2489  0.0759 -0.3574
54086SOL    HW169498   9.812   5.769  10.982 -0.2233  0.2404  0.6840
54086SOL    HW269499   9.798   5.619  10.965 -0.1199  0.4639 -1.6345
54087SOL     OW69500   1.946  10.985   6.494 -1.1114 -0.2911 -1.0192
54087SOL    HW169501   1.863  11.031   6.482 -1.0454  1.1270  2.7213
54087SOL    HW269502   1.922  10.892   6.494 -2.3772  0.0133 -1.6586
54088SOL     OW69503  12.377   2.867   8.243 -0.5299  0.1109  0.1256
54088SOL    HW169504  12.449   2.907   8.291  0.5276 -0.8069 -0.6639
54088SOL    HW269505  12.308   2.933   8.244 -0.3727  0.3162  2.4559
54089SOL     OW69506   1.376   4.683   1.709 -0.0905  0.6669  0.2023
54089SOL    HW169507   1.378   4.706   1.802 -1.7093 -1.2495  0.7580
54089SOL    HW269508   1.336   4.759   1.666  0.8889  1.6681  0.9869
54090SOL     OW69509   6.286   9.171   9.868  0.1786 -0.3523  0.2659
54090SOL    HW169510   6.231   9.231   9.818  0.3414  0.3146  0.8733
54090SOL    HW269511   6.291   9.092   9.813  0.0447  0.2151 -0.5923
54091SOL     OW69512   8.750   7.357   1.574 -0.2250 -0.6462 -0.5776
54091SOL    HW169513   8.738   7.399   1.659  0.3387  1.1747 -1.3523
54091SOL    HW269514   8.804   7.281   1.593 -1.3492 -1.1238  0.8903
54092SOL     OW69515   5.227   1.989   0.395 -0.9165 -0.1258 -0.2418
54092SOL    HW169516   5.290   1.918   0.401 -1.0646 -0.2615 -0.2800
54092SOL    HW269517   5.280   2.068   0.392 -0.7464 -0.2452 -0.3853
54093SOL     OW69518  11.263   5.104   1.388  0.5237  0.3252 -0.4441
54093SOL    HW169519  11.322   5.108   1.313 -1.6106 -1.1407 -2.3459
54093SOL    HW269520  11.197   5.172   1.371  1.6376  2.1021  1.7537
54094SOL     OW69521   2.313   3.404   4.517  0.4480  0.1502  0.1114
54094SOL    HW169522   2.369   3.467   4.472 -1.6372  0.1834 -2.7310
54094SOL    HW269523   2.328   3.420   4.610  2.9768  2.0312 -0.5166
54095SOL     OW69524   8.595   0.430   3.967  0.5954 -0.5629  0.2115
54095SOL    HW169525   8.654   0.483   4.021  0.1005 -1.3111  1.5522
54095SOL    HW269526   8.613   0.340   3.994 -0.9521 -0.8277  0.4535
54096SOL     OW69527  11.568   8.726   9.925  0.3913 -0.6098  0.8984
54096SOL    HW169528  11.531   8.762   9.845 -0.1804 -1.0319  0.9687
54096SOL    HW269529  11.662   8.723   9.909  0.3399 -0.1140  0.4811
54097SOL     OW69530   1.952  10.848  11.313 -0.0954  0.1155 -0.2983
54097SOL    HW169531   1.943  10.922  11.254  0.1291 -0.1363 -0.6470
54097SOL    HW269532   1.862  10.825  11.336 -0.1491  1.3381  0.8800
54098SOL     OW69533   7.064  10.308   8.982  0.2729  0.1012 -0.4914
54098SOL    HW169534   7.115  10.383   8.953 -0.7548  1.0736  0.1112
54098SOL    HW269535   7.088  10.297   9.074 -0.6556  0.6322 -0.1762
54099SOL     OW69536  10.195   1.044   4.675 -0.7603  0.2583 -0.1188
54099SOL    HW169537  10.107   1.008   4.665 -0.0516 -1.4604 -0.4350
54099SOL    HW269538  10.181   1.138   4.690 -2.8578 -0.4876  3.9451
54100SOL     OW69539  11.147   8.520   1.555  0.4577  0.4923  0.2424
54100SOL    HW169540  11.180   8.610   1.561 -1.5746  1.2439  1.2890
54100SOL    HW269541  11.065   8.528   1.508  0.4384 -0.8978  0.0032
54101SOL     OW69542   5.373   9.254   6.585  0.0836 -0.1570  0.5433
54101SOL    HW169543   5.469   9.254   6.578  0.0046 -0.1540 -0.9771
54101SOL    HW269544   5.352   9.171   6.626  0.6873 -0.8918 -0.5653
54102SOL     OW69545   9.201   8.759   6.843  0.5029 -0.4214 -0.1093
54102SOL    HW169546   9.142   8.820   6.798  1.3221 -0.1650 -0.8680
54102SOL    HW269547   9.184   8.773   6.936  0.8179  1.1385 -0.2579
54103SOL     OW69548   3.044   7.615  11.220 -0.5575 -0.8759 -0.5570
54103SOL    HW169549   3.068   7.548  11.284  0.3258  0.3987  0.4873
54103SOL    HW269550   2.951   7.632  11.238 -1.5087 -3.4468 -2.4188
54104SOL     OW69551   3.061   6.499  12.189  0.2974 -0.4025  0.4143
54104SOL    HW169552   3.051   6.575  12.132 -2.3001  0.0135  1.2847
54104SOL    HW269553   2.998   6.435  12.155  0.3741 -1.0365  1.4209
54105SOL     OW69554   7.431   7.518  12.656  0.1280 -0.2596 -0.3434
54105SOL    HW169555   7.441   7.442  12.598 -0.8905 -1.8542  1.4442
54105SOL    HW269556   7.521   7.545  12.675  0.5151 -0.9732 -1.1023
54106SOL     OW69557   3.825  12.563   7.905  0.4090  0.3739  0.2240
54106SOL    HW169558   3.866  12.486   7.865 -0.6823 -0.4107  0.5771
54106SOL    HW269559   3.766  12.596   7.837  0.1311  0.2946  0.4240
54107SOL     OW69560   5.072   4.710   5.685 -0.0826  0.3983 -0.4942
54107SOL    HW169561   5.077   4.622   5.648  1.4370 -0.5263  1.7004
54107SOL    HW269562   5.162   4.740   5.688  0.3314 -0.4634  4.0642
54108SOL     OW69563   1.470   7.185   1.179  0.3191 -0.5642  0.0190
54108SOL    HW169564   1.540   7.233   1.222 -0.2642  0.0940  0.2517
54108SOL    HW269565   1.390   7.231   1.205 -0.0941 -0.4892 -1.3190
54109SOL     OW69566   0.069   9.066   1.146  0.1091  0.0797  0.4732
54109SOL    HW169567   0.059   8.981   1.188  0.4935 -0.5434 -0.6724
54109SOL    HW269568   0.159   9.068   1.115 -0.5321 -0.0619 -1.5320
54110SOL     OW69569  10.924  11.145  10.864  0.4055  0.4635 -0.3658
54110SOL    HW169570  10.886  11.217  10.814  1.3896  1.4181  0.2099
54110SOL    HW269571  10.976  11.096  10.801 -1.7003 -0.8740 -1.1717
54111SOL     OW69572  10.306   4.132   6.315 -0.6778 -0.1245 -0.0157
54111SOL    HW169573  10.255   4.060   6.352  0.9005 -0.3888  1.8642
54111SOL    HW269574  10.332   4.101   6.228 -0.9329 -1.3717  0.3296
54112SOL     OW69575  10.662   7.792   1.381 -0.0622 -0.0894 -0.8958
54112SOL    HW169576  10.750   7.775   1.415 -0.3421 -0.7491 -0.4938
54112SOL    HW269577  10.628   7.862   1.437  0.2446  0.2527 -1.1280
54113SOL     OW69578  11.917   0.025   5.834 -0.3643 -0.3030  0.5369
54113SOL    HW169579  11.985   0.092   5.839 -1.3032  0.6896  0.3424
54113SOL    HW269580  11.944  -0.031   5.762 -0.9352  1.4702 -1.1323
54114SOL     OW69581   3.338  12.273   2.072  0.2719  0.7165 -0.5195
54114SOL    HW169582   3.244  12.288   2.072 -0.0379 -0.9335  0.5341
54114SOL    HW269583   3.347  12.181   2.048  1.3668 -0.0211  2.2521
54115SOL     OW69584   9.954  12.110   0.254 -0.0478 -0.4944 -0.2543
54115SOL    HW169585   9.908  12.166   0.317  0.6979 -0.3319  0.1575
54115SOL    HW269586  10.016  12.169   0.211 -0.3985 -0.6517 -1.0041
54116SOL     OW69587   7.216   8.745   4.722 -0.1579 -0.3115 -0.3380
54116SOL    HW169588   7.299   8.698   4.727 -0.0072  0.0586  1.0970
54116SOL    HW269589   7.214   8.780   4.633  1.4138 -0.0067 -0.2857
54117SOL     OW69590   7.130   2.137   9.663  0.0577  0.1112 -0.0288
54117SOL    HW169591   7.139   2.147   9.569 -0.2332  1.3702  0.0571
54117SOL    HW269592   7.037   2.118   9.677 -0.0720  0.7695  0.0514
54118SOL     OW69593  10.602   7.371   8.693  0.0592 -0.8958 -0.2091
54118SOL    HW169594  10.537   7.352   8.626  0.4678 -1.5899 -0.4211
54118SOL    HW269595  10.568   7.329   8.772 -0.8571  0.6691  0.2591
54119SOL     OW69596   0.856   6.706  12.260  0.2890 -0.1825  0.1038
54119SOL    HW169597   0.806   6.744  12.187 -1.8940 -0.6608  1.2764
54119SOL    HW269598   0.940   6.752  12.257 -0.5348  1.3520 -1.3870
54120SOL     OW69599   2.168  11.354   6.443  0.3466  0.5412 -0.3256
54120SOL    HW169600   2.142  11.282   6.385  1.0637  0.1041 -0.1127
54120SOL    HW269601   2.105  11.351   6.515  1.3102 -0.9115  0.5059
54121SOL     OW69602   2.516   3.453   7.779  0.6095  0.3048 -0.7790
54121SOL    HW169603   2.485   3.520   7.840  0.0553  0.2535 -0.9991
54121SOL    HW269604   2.439   3.400   7.760  1.0074 -0.2996 -0.7370
54122SOL     OW69605   7.998  10.284   8.193  0.7204 -0.2409 -0.1438
54122SOL    HW169606   7.987  10.275   8.099  0.1210  0.0871 -0.1097
54122SOL    HW269607   8.022  10.375   8.206 -0.4345  0.0439  0.1180
54123SOL     OW69608  11.414  10.410   5.127  0.5003 -0.0894  0.7207
54123SOL    HW169609  11.432  10.428   5.035  0.2166  1.5614  0.9675
54123SOL    HW269610  11.493  10.366   5.159  1.4186  1.1034  0.1635
54124SOL     OW69611   4.802   8.935   0.164  0.3249  0.3284 -0.3368
54124SOL    HW169612   4.775   8.866   0.225  1.1176  0.3407  0.0374
54124SOL    HW269613   4.720   8.974   0.134 -0.0858  0.2978  0.6998
54125SOL     OW69614   2.412   7.468   1.797 -0.5413  0.0370  0.3132
54125SOL    HW169615   2.438   7.467   1.889  0.3145 -2.6442  0.1256
54125SOL    HW269616   2.326   7.427   1.796 -2.3543  3.4603  0.2348
54126SOL     OW69617   2.679   5.376  10.094 -0.4199  0.1779  0.2546
54126SOL    HW169618   2.761   5.340  10.058 -0.7541  0.5853 -0.9764
54126SOL    HW269619   2.706   5.421  10.174  0.7289  1.1113 -0.6145
54127SOL     OW69620   5.545   0.898  11.165 -0.2808 -0.0087  0.0143
54127SOL    HW169621   5.453   0.904  11.190 -0.2794 -1.6823  0.5388
54127SOL    HW269622   5.593   0.909  11.247 -0.1151 -1.2212  0.0987
54128SOL     OW69623  10.897   6.077  11.610  0.6591 -0.0415  0.5084
54128SOL    HW169624  10.852   6.031  11.681  0.2565 -0.8529 -0.2483
54128SOL    HW269625  10.988   6.081  11.639  1.0717 -2.8852 -0.1147
54129SOL     OW69626   8.405   0.975  12.474  0.6451 -0.4158 -0.2185
54129SOL    HW169627   8.441   1.031  12.543  0.9358 -3.0102  1.8963
54129SOL    HW269628   8.481   0.946  12.424  0.6936 -0.3725 -0.1688
54130SOL     OW69629   4.167  11.068   5.321  0.2551  0.9360  0.2891
54130SOL    HW169630   4.178  11.074   5.415  0.6015  0.5715  0.2759
54130SOL    HW269631   4.072  11.062   5.308  0.2673 -1.6801  0.8095
54131SOL     OW69632   0.745   8.683  11.293  0.5387 -0.5739  0.0958
54131SOL    HW169633   0.727   8.732  11.373 -0.1028 -0.9988  0.2167
54131SOL    HW269634   0.681   8.716  11.229  1.8192  0.6240 -0.6142
54132SOL     OW69635   4.811   3.833   5.629  0.1330 -0.3179  0.1844
54132SOL    HW169636   4.788   3.842   5.722 -0.7951  0.1687 -0.0771
54132SOL    HW269637   4.745   3.774   5.593 -0.4191  0.6592 -0.4671
54133SOL     OW69638  12.630   1.232  10.709  0.4051  0.2325  0.2293
54133SOL    HW169639  12.618   1.327  10.709 -1.8755  0.0181 -0.5785
54133SOL    HW269640  12.666   1.212  10.622 -0.4676  0.2509 -0.1452
54134SOL     OW69641   4.775   3.587   7.613  0.0002 -0.5324  0.3099
54134SOL    HW169642   4.750   3.495   7.620 -0.0942 -0.5087  0.2928
54134SOL    HW269643   4.857   3.586   7.564 -0.2227 -0.5796 -0.0770
54135SOL     OW69644   6.414  11.948   7.728  0.1174  0.1981  0.3922
54135SOL    HW169645   6.467  11.932   7.807 -0.6231  0.6042  0.9872
54135SOL    HW269646   6.400  12.043   7.729 -2.8284 -0.1433  1.7317
54136SOL     OW69647   5.956   3.343  11.942  0.7312 -0.0865 -0.0705
54136SOL    HW169648   6.041   3.372  11.975 -0.3918  1.5361  1.6517
54136SOL    HW269649   5.905   3.323  12.021  0.1924 -3.3446 -1.1015
54137SOL     OW69650   0.958   2.712   3.138  0.0318  0.1295 -0.1662
54137SOL    HW169651   0.960   2.789   3.194  0.4577  0.5382 -0.7320
54137SOL    HW269652   0.871   2.674   3.152 -0.3736  0.9946 -0.2587
54138SOL     OW69653   8.173   1.433  10.683 -0.0947  0.5562  0.2079
54138SOL    HW169654   8.149   1.524  10.700  3.1651  1.5173  0.4751
54138SOL    HW269655   8.251   1.419  10.737 -0.7951 -2.6211  0.5687
54139SOL     OW69656   4.216   0.632   9.359  0.3629 -0.2149 -0.5106
54139SOL    HW169657   4.163   0.616   9.437 -0.1157  0.7269 -0.6232
54139SOL    HW269658   4.247   0.545   9.333  3.0738 -0.3232  2.4380
54140SOL     OW69659   4.166   7.161   5.837 -1.1056 -0.0014 -0.5444
54140SOL    HW169660   4.153   7.067   5.851  0.7946  0.0841  3.1331
54140SOL    HW269661   4.110   7.203   5.902  1.8531  1.0236  1.5795
54141SOL     OW69662   8.867  10.833   1.499  0.1807  0.0006 -0.2286
54141SOL    HW169663   8.861  10.900   1.431  1.4073 -0.3977 -0.7522
54141SOL    HW269664   8.803  10.767   1.473  0.4425 -0.0148 -0.8618
54142SOL     OW69665   8.364  11.485  12.525  0.3195 -0.6461 -0.2790
54142SOL    HW169666   8.458  11.502  12.521  0.3368 -0.6768  0.0276
54142SOL    HW269667   8.353  11.420  12.595  0.0477 -0.4863 -0.1699
54143SOL     OW69668   2.526   6.434   6.830 -0.0763  0.2386  0.2306
54143SOL    HW169669   2.500   6.523   6.855 -0.0371  0.0462  0.9894
54143SOL    HW269670   2.489   6.379   6.898  0.3609 -0.2752  0.0572
54144SOL     OW69671   6.424   2.671  11.263 -0.0487  0.4688  0.4353
54144SOL    HW169672   6.330   2.671  11.243  0.2711  0.3194 -1.1613
54144SOL    HW269673   6.448   2.764  11.264  0.0141  0.4689 -0.3678
54145SOL     OW69674   6.829   0.305  12.453 -0.2556 -0.2430 -0.1665
54145SOL    HW169675   6.827   0.385  12.401  1.6316 -0.8849 -1.3046
54145SOL    HW269676   6.762   0.318  12.520  0.0339  2.2884 -0.3018
54146SOL     OW69677   9.461   9.126  11.949 -0.5157 -0.1748  0.1254
54146SOL    HW169678   9.406   9.055  11.982 -1.8881  0.9029  0.2361
54146SOL    HW269679   9.447   9.125  11.855 -0.7043  0.0739  0.1494
54147SOL     OW69680   0.157  11.373   8.417  0.1854  0.2527 -0.5661
54147SOL    HW169681   0.082  11.400   8.364  1.2779  0.4114 -2.0849
54147SOL    HW269682   0.229  11.428   8.387  1.2135 -0.7638 -0.0280
54148SOL     OW69683   8.305   1.041   8.359 -0.3253 -0.1236 -0.9452
54148SOL    HW169684   8.363   0.983   8.409 -0.9568 -0.7159 -0.8826
54148SOL    HW269685   8.364   1.089   8.300  0.4748  0.8325  0.5808
54149SOL     OW69686   3.548  10.808  10.556 -0.0060  1.2069  0.2297
54149SOL    HW169687   3.617  10.803  10.623  1.1093  2.1599 -0.8121
54149SOL    HW269688   3.594  10.802  10.473 -1.2358  1.4899 -0.4941
54150SOL     OW69689   5.058   0.149   2.826  0.2186  0.1105 -0.6349
54150SOL    HW169690   5.108   0.199   2.890  0.6746 -0.2732 -0.6803
54150SOL    HW269691   4.988   0.108   2.877 -0.6893  1.4857 -0.7514
54151SOL     OW69692   8.217   1.625   3.009 -0.2706  0.0453  0.1210
54151SOL    HW169693   8.194   1.695   3.070  1.2587  0.5741  0.1502
54151SOL    HW269694   8.243   1.552   3.064  1.0604  0.5055  0.1480
54152SOL     OW69695  11.461  12.027  10.503  0.2450 -0.3707 -0.0262
54152SOL    HW169696  11.467  12.078  10.422 -0.3137  1.1976  0.8886
54152SOL    HW269697  11.367  12.020  10.521  0.4012  1.2074  1.6256
54153SOL     OW69698   3.099   7.942   1.278  0.1236 -0.4840  0.2790
54153SOL    HW169699   3.086   8.029   1.240  0.8604 -0.3705  0.2785
54153SOL    HW269700   3.191   7.940   1.302 -0.0674 -0.9873  0.9870
54154SOL     OW69701   3.948   3.799  11.255  0.1139  0.1404 -0.1265
54154SOL    HW169702   4.042   3.783  11.248  0.1520 -0.4029  1.2890
54154SOL    HW269703   3.914   3.723  11.303 -0.7117  1.2998  1.1861
54155SOL     OW69704   4.631   1.956   1.012 -0.8193  0.2051 -0.2610
54155SOL    HW169705   4.554   1.931   1.064  1.2949 -0.4592  2.8029
54155SOL    HW269706   4.656   2.042   1.046  0.2045  0.0963 -0.7017
54156SOL     OW69707  11.594   5.728   7.865 -0.0272  0.0597 -0.1997
54156SOL    HW169708  11.631   5.816   7.869 -0.1695  0.0756  3.6423
54156SOL    HW269709  11.505   5.740   7.831  0.2111  1.2801 -0.4176
54157SOL     OW69710   6.221   0.815  12.372  0.1670  0.3134  0.4136
54157SOL    HW169711   6.129   0.792  12.356  0.5022 -0.6142 -0.2508
54157SOL    HW269712   6.259   0.822  12.285  0.8049  0.3450  0.6948
54158SOL     OW69713   8.377  12.089   1.582  0.3174 -0.5589  0.2380
54158SOL    HW169714   8.430  12.044   1.648  1.6221  0.9834  0.3054
54158SOL    HW269715   8.431  12.088   1.503  0.4591  0.9924  0.2897
54159SOL     OW69716  10.689   8.228   8.975  0.0286 -0.1569 -0.4722
54159SOL    HW169717  10.684   8.224   9.071 -1.4729 -1.7500 -0.5881
54159SOL    HW269718  10.738   8.309   8.958 -0.3138  0.5619  1.6121
54160SOL     OW69719   1.726  11.390   6.228 -0.2160 -0.0475  0.0021
54160SOL    HW169720   1.775  11.467   6.255  1.3170 -0.5445 -1.2109
54160SOL    HW269721   1.637  11.422   6.210  0.0444  1.1589  0.7897
54161SOL     OW69722   5.547   4.652   0.735 -0.0617  0.2949  0.3803
54161SOL    HW169723   5.527   4.744   0.721 -1.1107  0.1052  0.5085
54161SOL    HW269724   5.560   4.644   0.829 -0.3072  0.2520  0.4108
54162SOL     OW69725   9.796   4.101  10.137 -0.2723 -0.4690 -0.5364
54162SOL    HW169726   9.829   4.012  10.148 -0.4630 -0.8107 -2.3439
54162SOL    HW269727   9.703   4.090  10.118 -0.8216  0.2945  1.4594
54163SOL     OW69728   9.275  10.321   1.441  0.1681  0.0686 -0.2316
54163SOL    HW169729   9.319  10.302   1.358  2.6441  0.2845  0.9415
54163SOL    HW269730   9.238  10.408   1.429  4.7110  2.4021  0.2793
54164SOL     OW69731   5.907   4.959   0.120 -0.0999  0.8372  0.7267
54164SOL    HW169732   5.828   4.915   0.090  0.0713  1.9895 -1.7019
54164SOL    HW269733   5.883   5.051   0.127  0.9812  1.2023 -0.0198
54165SOL     OW69734   7.104   2.942   9.070 -0.4450  0.0003  0.5908
54165SOL    HW169735   7.058   2.977   8.994  0.0461 -0.3496  0.1213
54165SOL    HW269736   7.192   2.978   9.063  0.1159 -1.4192  0.0108
54166SOL     OW69737   7.661  11.330   9.949 -0.0498 -0.0510 -0.4934
54166SOL    HW169738   7.568  11.337   9.969 -0.5833  1.0015 -3.0291
54166SOL    HW269739   7.665  11.286   9.865  1.6158  1.4757 -1.2919
54167SOL     OW69740   2.137   1.786   2.344 -0.2305 -0.0168 -0.7900
54167SOL    HW169741   2.100   1.777   2.432 -1.9616  0.3474 -1.4494
54167SOL    HW269742   2.222   1.742   2.350 -0.5512 -0.4906  0.9091
54168SOL     OW69743   8.007   7.841   8.144 -0.6299  0.0429  0.4481
54168SOL    HW169744   8.077   7.904   8.126 -0.9054  0.6674  1.4476
54168SOL    HW269745   8.050   7.773   8.196 -0.4200 -0.4164 -0.3048
54169SOL     OW69746   4.487   9.352   9.138 -1.0554 -0.3717  0.7940
54169SOL    HW169747   4.555   9.346   9.206  1.5647  0.0043 -1.5852
54169SOL    HW269748   4.470   9.446   9.130 -0.3464 -0.2925  0.0687
54170SOL     OW69749   5.296   3.470   8.260  0.1226 -0.0446 -0.1663
54170SOL    HW169750   5.275   3.532   8.191  0.1377  1.5834  1.2114
54170SOL    HW269751   5.351   3.520   8.321  0.3468 -1.4942  0.8803
54171SOL     OW69752   8.039   2.829   1.121 -0.4056  0.0835  0.0611
54171SOL    HW169753   8.095   2.847   1.196 -1.1788  0.9756  0.4464
54171SOL    HW269754   7.951   2.821   1.158 -0.8439  0.8363 -0.7717
54172SOL     OW69755  11.227   2.468   2.619  0.2364  0.1547 -0.2725
54172SOL    HW169756  11.207   2.375   2.631  0.5938  0.1989  0.8257
54172SOL    HW269757  11.320   2.475   2.644 -0.0514  0.9583  0.6411
54173SOL     OW69758  12.506   6.982   4.938 -0.4457  0.5264  0.0938
54173SOL    HW169759  12.551   7.045   4.882 -0.5536 -1.1931 -2.0728
54173SOL    HW269760  12.574   6.921   4.966 -0.8518 -0.2919 -0.6344
54174SOL     OW69761   9.879  10.326   8.546 -0.4697  0.3390 -0.3975
54174SOL    HW169762   9.886  10.259   8.614 -0.7218 -2.1147 -2.6156
54174SOL    HW269763   9.934  10.398   8.578  1.1022 -1.5277  1.4460
54175SOL     OW69764  10.247   5.266  11.319  0.4478  0.3550  0.2030
54175SOL    HW169765  10.299   5.312  11.253  0.5742 -0.9156 -0.6168
54175SOL    HW269766  10.303   5.194  11.347 -0.2741 -0.1068  0.4729
54176SOL     OW69767   2.266  12.484   2.650 -0.6482  0.1865  0.2927
54176SOL    HW169768   2.216  12.470   2.570  3.5837  1.2163 -2.8667
54176SOL    HW269769   2.327  12.411   2.654  0.3503  1.0423  1.6561
54177SOL     OW69770  10.734  10.400  11.315  0.0579 -0.3329 -0.3960
54177SOL    HW169771  10.736  10.407  11.411 -1.9806 -0.9872 -0.2630
54177SOL    HW269772  10.768  10.312  11.297 -0.0601 -0.4127 -0.2322
54178SOL     OW69773  10.938  11.711   9.187  0.0818  0.8831  0.4005
54178SOL    HW169774  10.914  11.683   9.099 -0.7401  1.0079  0.5770
54178SOL    HW269775  10.932  11.806   9.184  0.4517  0.9074  0.4772
54179SOL     OW69776   2.130   8.799  11.357 -0.2824  0.3905  0.1250
54179SOL    HW169777   2.037   8.814  11.374 -0.2282 -1.5351  2.7886
54179SOL    HW269778   2.175   8.842  11.429  0.6297 -1.3507  0.6652
54180SOL     OW69779   1.950   6.840   9.717  0.0293 -0.7242  0.8882
54180SOL    HW169780   1.870   6.821   9.766  0.6801 -2.4589  1.3543
54180SOL    HW269781   2.003   6.892   9.778 -0.2858 -0.4872  0.9678
54181SOL     OW69782   4.758   1.117   0.258  0.8655  0.4978 -0.2796
54181SOL    HW169783   4.772   1.179   0.186  0.8450  0.4317 -0.3400
54181SOL    HW269784   4.662   1.108   0.262  0.8192  1.1710  0.3175
54182SOL     OW69785  12.447  10.830   0.570 -0.1408  0.3370  0.0384
54182SOL    HW169786  12.404  10.912   0.547 -0.9044 -0.4283 -1.4219
54182SOL    HW269787  12.486  10.800   0.488  1.9975  0.2824  1.0130
54183SOL     OW69788   2.300   4.467   2.494 -0.2015  0.1717  0.1629
54183SOL    HW169789   2.330   4.401   2.432  0.5776  0.9160 -0.2723
54183SOL    HW269790   2.274   4.541   2.439  0.3495  0.7812  0.7051
54184SOL     OW69791  10.655   8.388   8.066 -0.0769 -0.1632  0.3096
54184SOL    HW169792  10.715   8.330   8.112  2.1906  0.4218 -1.6921
54184SOL    HW269793  10.709   8.463   8.039 -1.1613 -0.4455 -3.1758
54185SOL     OW69794   5.659   1.015  11.621 -0.1078 -0.1068  0.1491
54185SOL    HW169795   5.612   1.033  11.702  1.2224  2.3289  0.4612
54185SOL    HW269796   5.724   0.949  11.646 -0.0177  0.2749  0.9611
54186SOL     OW69797   9.781   9.608   5.941 -0.9494  0.0052 -0.2879
54186SOL    HW169798   9.826   9.535   5.984 -0.0896  0.5130 -0.3023
54186SOL    HW269799   9.828   9.621   5.859 -0.3035  1.3552  0.2681
54187SOL     OW69800  11.725   1.678  11.053  0.4573  0.2954 -0.0790
54187SOL    HW169801  11.680   1.675  10.969  0.3692  2.1997 -0.1473
54187SOL    HW269802  11.718   1.770  11.080 -1.6565 -0.6245  3.1647
54188SOL     OW69803  12.174   0.461   5.505  0.5412 -0.1821  0.3863
54188SOL    HW169804  12.215   0.381   5.538  0.0363 -0.1624  1.0922
54188SOL    HW269805  12.081   0.439   5.498  0.6659 -0.2927 -1.3867
54189SOL     OW69806  11.194  11.602   6.040  0.1392  0.1041 -0.3147
54189SOL    HW169807  11.288  11.615   6.030  0.3615 -1.0224  0.1238
54189SOL    HW269808  11.161  11.596   5.950  1.0449 -2.8880 -0.5750
54190SOL     OW69809   2.570   7.150   4.875  0.0669  0.1963 -0.0873
54190SOL    HW169810   2.524   7.174   4.794  1.1918 -0.1051 -0.8375
54190SOL    HW269811   2.587   7.233   4.918 -0.8281  0.3407  0.0230
54191SOL     OW69812   0.048   2.447   1.761  0.4595  0.5079  0.5059
54191SOL    HW169813   0.016   2.537   1.756  2.6697  1.4828  2.0194
54191SOL    HW269814  -0.031   2.393   1.764 -0.9267  2.4165  0.1102
54192SOL     OW69815   2.970   9.978   0.713 -0.2883  0.1452  0.1092
54192SOL    HW169816   2.945   9.931   0.793 -1.9097 -1.1046 -1.0614
54192SOL    HW269817   2.962   9.913   0.644  1.0764  1.2002 -1.1005
54193SOL     OW69818  10.100   5.703   5.623 -0.5518  0.2966  0.1067
54193SOL    HW169819  10.102   5.626   5.566  1.0114 -0.4906  1.1480
54193SOL    HW269820  10.183   5.747   5.606 -0.9044  1.0884  0.4074
54194SOL     OW69821   8.641   3.668  10.981  0.4825  0.1599  0.6334
54194SOL    HW169822   8.659   3.762  10.983 -2.1473  0.7355  0.2281
54194SOL    HW269823   8.631   3.647  10.888 -0.3058 -0.2349  0.8036
54195SOL     OW69824   5.056   2.069  10.245  0.0284 -0.1364 -0.3488
54195SOL    HW169825   4.988   2.044  10.307  1.1385 -1.3068  0.4444
54195SOL    HW269826   5.063   2.164  10.254 -0.9317 -0.1011  0.1333
54196SOL     OW69827   0.026  11.556   2.275  0.2524  0.3748 -0.1025
54196SOL    HW169828   0.026  11.641   2.318 -0.0680  0.4992 -0.3363
54196SOL    HW269829   0.117  11.540   2.251  0.8004 -0.6440  2.4128
54197SOL     OW69830   7.834   3.986   8.958  0.0395 -0.7849 -0.2360
54197SOL    HW169831   7.783   3.909   8.980 -0.3674 -0.2051  0.9383
54197SOL    HW269832   7.837   3.987   8.862 -3.6363  0.0569 -0.4918
54198SOL     OW69833   0.453   1.885   1.876  0.3873 -0.3584  0.3651
54198SOL    HW169834   0.509   1.833   1.933 -0.1893 -2.2547 -0.6934
54198SOL    HW269835   0.508   1.909   1.802  0.6488  0.5351  0.8458
54199SOL     OW69836   9.025   8.792  11.379  0.1477  0.0149 -0.3263
54199SOL    HW169837   9.043   8.749  11.295 -1.2523 -1.0079 -0.1519
54199SOL    HW269838   9.095   8.855  11.389  0.8201 -0.4244 -1.8736
54200SOL     OW69839  11.782  10.957   0.052  0.1746 -0.6469  0.4361
54200SOL    HW169840  11.826  10.941   0.135 -1.5264  0.6883  1.6838
54200SOL    HW269841  11.692  10.979   0.077 -0.8728 -1.9624 -1.8940
54201SOL     OW69842   6.181   6.368   4.425  0.3127 -0.3421 -0.0999
54201SOL    HW169843   6.270   6.343   4.451 -0.0148 -1.8851 -0.3457
54201SOL    HW269844   6.170   6.329   4.338 -0.3166  0.5568 -0.4317
54202SOL     OW69845   6.943   8.656   0.202  0.8610  0.2018 -0.3990
54202SOL    HW169846   6.866   8.600   0.206 -0.0450  1.4248  2.5531
54202SOL    HW269847   6.908   8.745   0.208  2.3815  0.9927 -2.2878
54203SOL     OW69848   4.638   1.667   1.109 -0.3255 -0.3354  0.0458
54203SOL    HW169849   4.670   1.710   1.030  1.8213 -1.2866  0.3381
54203SOL    HW269850   4.685   1.584   1.112 -2.5284 -1.6577  0.8060
54204SOL     OW69851  11.818  10.185  10.752  0.2334 -0.0989  0.2084
54204SOL    HW169852  11.820  10.099  10.793  2.4027  0.0575  0.5552
54204SOL    HW269853  11.910  10.204  10.731 -0.0282  2.5717  1.1009
54205SOL     OW69854   2.253  10.093  11.809 -0.4653  0.0228 -0.2278
54205SOL    HW169855   2.278  10.001  11.800 -0.8890  0.0243 -1.5772
54205SOL    HW269856   2.167  10.091  11.852  0.4475 -0.0918  1.7158
54206SOL     OW69857   5.312   1.873   8.739  0.0061 -0.0160 -0.4898
54206SOL    HW169858   5.273   1.884   8.652  0.1645  2.4017 -0.3363
54206SOL    HW269859   5.339   1.781   8.742  0.5233 -0.0422 -3.2190
54207SOL     OW69860   7.257  11.013   3.074  0.6719  0.3902  0.5423
54207SOL    HW169861   7.339  11.061   3.081  1.1334 -0.5610  1.9682
54207SOL    HW269862   7.211  11.054   3.000  3.2077 -0.2716 -1.5320
54208SOL     OW69863   5.913   9.217   1.428 -0.0266  0.2641  0.3226
54208SOL    HW169864   5.945   9.278   1.495  0.3990  0.9293 -0.4729
54208SOL    HW269865   5.833   9.181   1.466 -0.4957  1.6001  0.6709
54209SOL     OW69866  10.243   1.647   6.649 -0.0426 -0.1015  0.5351
54209SOL    HW169867  10.225   1.585   6.578  1.3459  0.5864 -0.4708
54209SOL    HW269868  10.339   1.653   6.653 -0.0475 -0.6816  3.0036
54210SOL     OW69869   6.535  11.559   3.311  0.0297 -0.5543  0.6470
54210SOL    HW169870   6.508  11.613   3.386 -2.4352 -2.1285  1.0005
54210SOL    HW269871   6.619  11.523   3.338 -0.6914 -0.9091  2.6223
54211SOL     OW69872   3.206   8.032   4.300 -0.6848  0.1103  0.2906
54211SOL    HW169873   3.229   7.993   4.385  1.2099 -1.0472 -0.6919
54211SOL    HW269874   3.233   7.968   4.235  0.8628  2.2473 -1.3461
54212SOL     OW69875   0.328   5.389   1.496 -0.1391  0.6362 -0.2872
54212SOL    HW169876   0.352   5.346   1.578 -0.3510 -1.2512 -1.1602
54212SOL    HW269877   0.391   5.357   1.432 -1.8619 -0.4472 -1.5333
54213SOL     OW69878   8.991   7.792   3.578 -0.2292 -0.1282  0.6618
54213SOL    HW169879   9.071   7.757   3.618 -0.5177 -0.5744  0.8597
54213SOL    HW269880   9.017   7.875   3.540  0.4262 -0.4668  0.3676
54214SOL     OW69881   5.588   8.221  10.049  0.0944  0.0481  0.0081
54214SOL    HW169882   5.534   8.285  10.003  1.2147  0.6981 -0.4429
54214SOL    HW269883   5.619   8.266  10.127  0.8444  0.0561 -0.2810
54215SOL     OW69884  11.259   2.035  12.334  0.8568  0.0646 -0.3391
54215SOL    HW169885  11.245   1.983  12.255 -1.0536  0.0916 -0.0611
54215SOL    HW269886  11.355   2.042  12.342  1.1349 -2.0747 -1.2291
54216SOL     OW69887   6.224  10.056   0.909  0.0468  0.2097  0.6416
54216SOL    HW169888   6.177  10.139   0.896 -0.5775 -0.2594 -0.2410
54216SOL    HW269889   6.202  10.030   0.998 -0.5786  0.5006  0.5812
54217SOL     OW69890  12.075   8.937   3.478 -0.1885  0.2020 -0.0690
54217SOL    HW169891  12.082   8.848   3.443 -1.5523  0.0505 -0.0262
54217SOL    HW269892  11.985   8.963   3.459  0.2753  1.7078 -0.3597
54218SOL     OW69893   3.103   7.768   9.404  0.7470 -0.4049 -0.2249
54218SOL    HW169894   3.196   7.763   9.425  0.6457 -0.1129  0.3027
54218SOL    HW269895   3.066   7.828   9.469  0.1894 -0.5147 -0.4298
54219SOL     OW69896   2.586   0.675   1.496  0.0930 -0.5170 -0.5140
54219SOL    HW169897   2.545   0.689   1.581 -0.4784 -1.1751 -0.6736
54219SOL    HW269898   2.621   0.586   1.500  2.2029  0.2720 -0.1143
54220SOL     OW69899   7.558   0.883  12.650  0.5789  0.3173 -0.6659
54220SOL    HW169900   7.611   0.872  12.571  0.4954 -1.7983 -0.4719
54220SOL    HW269901   7.470   0.902  12.618  0.7023  0.2149 -1.0649
54221SOL     OW69902   5.385   3.340   9.813 -0.1902  0.6730  0.7981
54221SOL    HW169903   5.309   3.282   9.813  0.9445 -0.8869  0.5825
54221SOL    HW269904   5.447   3.298   9.873  1.7505  0.1261 -1.4658
54222SOL     OW69905   5.016   9.419   7.192 -0.1068 -0.3919 -1.0262
54222SOL    HW169906   4.984   9.353   7.253 -0.8871  0.2250 -0.7648
54222SOL    HW269907   4.997   9.382   7.105 -0.5228 -0.5197 -0.8828
54223SOL     OW69908   3.248   5.563   7.265  0.1128 -0.1927 -0.1773
54223SOL    HW169909   3.226   5.566   7.172  0.1352  0.1564 -0.1723
54223SOL    HW269910   3.249   5.655   7.292 -0.0486 -0.3043  0.2047
54224SOL     OW69911  11.546   2.461   9.645  0.0615  0.8137 -0.0861
54224SOL    HW169912  11.602   2.423   9.577  1.4587 -0.7439  1.8095
54224SOL    HW269913  11.521   2.547   9.611 -1.0662 -0.6801 -3.4660
54225SOL     OW69914   4.938  11.695  10.086 -0.1875 -0.4445 -0.0462
54225SOL    HW169915   4.883  11.740  10.150  0.5136  0.6844 -0.2038
54225SOL    HW269916   4.977  11.622  10.134 -0.2906 -0.0857  0.5868
54226SOL     OW69917   8.211   0.818  11.276 -0.3002  0.3814  0.2198
54226SOL    HW169918   8.144   0.867  11.322 -0.5016  0.7860 -0.4899
54226SOL    HW269919   8.205   0.848  11.185  1.2233  0.8465  0.2462
54227SOL     OW69920   3.310   9.545  11.114 -0.5506 -0.4299  0.1812
54227SOL    HW169921   3.348   9.457  11.114  4.1034  1.3154  0.9620
54227SOL    HW269922   3.348   9.588  11.038 -1.9116  1.2758  0.3912
54228SOL     OW69923   3.651  12.003   0.916 -0.7131 -0.4074  0.3541
54228SOL    HW169924   3.736  12.043   0.898 -1.5634  1.3040 -0.0790
54228SOL    HW269925   3.666  11.909   0.905  1.6621 -0.3871  2.6130
54229SOL     OW69926  11.079   4.068   7.349 -0.1763  0.3062 -0.6928
54229SOL    HW169927  11.114   4.157   7.355  0.7569  0.0150 -1.5476
54229SOL    HW269928  11.049   4.059   7.259  1.7708 -0.9297 -1.2867
54230SOL     OW69929   6.088   2.372   3.985  0.5729 -0.3976  0.2645
54230SOL    HW169930   6.133   2.353   3.903 -1.4196 -2.6402 -0.4030
54230SOL    HW269931   6.113   2.300   4.044 -1.0197 -0.9491  0.3087
54231SOL     OW69932   8.990  11.803  11.071  0.1603  0.5835 -0.0424
54231SOL    HW169933   8.952  11.889  11.091  1.1698  0.9920  0.1794
54231SOL    HW269934   8.918  11.741  11.084 -0.5867  1.3969 -0.2299
54232SOL     OW69935   4.096   4.676   5.999  0.2957  1.3019 -0.3268
54232SOL    HW169936   4.011   4.674   6.043  0.0456  1.8253 -0.7641
54232SOL    HW269937   4.093   4.755   5.944  0.1456  0.1111 -2.1323
54233SOL     OW69938   3.997   3.701  10.550 -0.3099  0.2108  0.0199
54233SOL    HW169939   4.033   3.693  10.639 -2.3381  0.0377  0.8689
54233SOL    HW269940   4.038   3.630  10.501  1.5159  0.8496  0.5354
54234SOL     OW69941   7.701   7.530   4.929  0.3734  0.1775 -0.6998
54234SOL    HW169942   7.759   7.534   5.005  0.5675 -0.3526 -0.8137
54234SOL    HW269943   7.757   7.499   4.858  0.2994  1.0982 -1.1723
54235SOL     OW69944   1.900   5.722  12.286  0.4417 -0.3202 -0.0164
54235SOL    HW169945   1.969   5.788  12.293  0.9242 -0.7401 -0.6112
54235SOL    HW269946   1.823   5.771  12.256  0.8597 -0.0636 -0.6928
54236SOL     OW69947  12.408   0.264  11.171 -0.0390  0.0004  0.5836
54236SOL    HW169948  12.477   0.318  11.210  0.1619 -1.3165  2.1448
54236SOL    HW269949  12.334   0.273  11.231 -0.7012  0.1626 -0.2487
54237SOL     OW69950   4.395   6.856   6.970  0.5459 -0.1829  0.4707
54237SOL    HW169951   4.388   6.895   7.057  0.9331 -0.3370  0.5722
54237SOL    HW269952   4.488   6.838   6.959  0.5213  0.0030 -0.0516
54238SOL     OW69953   9.931   0.661   9.712  0.1377 -0.2641 -0.3184
54238SOL    HW169954   9.910   0.599   9.781 -0.1307  0.6120  0.4025
54238SOL    HW269955   9.924   0.747   9.753  1.8371  0.2204 -0.9258
54239SOL     OW69956   8.393  10.989   6.311  0.1056  0.0727  0.0254
54239SOL    HW169957   8.483  11.022   6.303  0.4074 -0.2949  1.4606
54239SOL    HW269958   8.389  10.953   6.400 -1.4783  0.0941 -0.0072
54240SOL     OW69959  12.534   2.984   4.858 -0.6193  0.3999 -0.0842
54240SOL    HW169960  12.441   2.991   4.836 -0.7542  0.0107  0.3501
54240SOL    HW269961  12.577   3.049   4.803 -1.1780  0.7397 -0.1190
54241SOL     OW69962   1.076   5.579   4.164 -0.0992  0.6677 -0.2270
54241SOL    HW169963   1.056   5.535   4.246  0.7814  1.1412  0.2570
54241SOL    HW269964   1.167   5.607   4.173 -0.9324  3.5999 -0.0214
54242SOL     OW69965   3.763   0.746   6.289 -0.3734  0.1481 -0.1097
54242SOL    HW169966   3.835   0.696   6.249 -0.4911  2.0693 -3.0468
54242SOL    HW269967   3.715   0.682   6.341  1.1840 -2.0813 -1.2550
54243SOL     OW69968   6.194   6.302   6.546  0.1230  0.1384  0.1017
54243SOL    HW169969   6.106   6.299   6.510 -0.1923  1.3091  0.7110
54243SOL    HW269970   6.211   6.396   6.560  1.7020  0.0036 -0.5902
54244SOL     OW69971   3.582   3.603   5.499 -0.3660 -0.5732  0.0345
54244SOL    HW169972   3.520   3.547   5.546 -0.7816  0.1337  0.3444
54244SOL    HW269973   3.630   3.649   5.569 -0.8194  0.3079 -0.2187
54245SOL     OW69974   4.677   9.060   5.216 -0.3304  0.7065  0.2036
54245SOL    HW169975   4.743   9.102   5.160  0.9770  1.5478  2.2452
54245SOL    HW269976   4.608   9.126   5.225 -1.0004  0.2187 -1.1026
54246SOL     OW69977   4.072   4.312   3.270 -0.2121 -0.7123 -0.2330
54246SOL    HW169978   4.131   4.360   3.328  0.8913  0.9815 -2.5850
54246SOL    HW269979   4.008   4.377   3.241  1.1674 -0.5674 -3.2903
54247SOL     OW69980   5.750   1.021   2.910  0.2583 -0.1597  0.2065
54247SOL    HW169981   5.804   1.067   2.975  1.4954 -1.6492  0.3061
54247SOL    HW269982   5.791   1.041   2.826  0.0835 -0.1238  0.1299
54248SOL     OW69983   7.340  12.411   3.124  0.8987 -0.0204 -0.1964
54248SOL    HW169984   7.316  12.340   3.184  3.9717  0.7267  2.1502
54248SOL    HW269985   7.418  12.379   3.079  1.4541  1.2975 -0.2042
54249SOL     OW69986   2.091  11.221   4.657 -0.7117  0.1221 -0.2734
54249SOL    HW169987   2.064  11.260   4.740 -1.0809  0.8242 -0.7191
54249SOL    HW269988   2.054  11.278   4.590 -3.0581 -2.0889 -1.0118
54250SOL     OW69989   3.105  12.030   9.728 -0.5083 -0.9501 -0.0797
54250SOL    HW169990   3.182  12.049   9.782 -1.1306  0.4479  0.3542
54250SOL    HW269991   3.070  11.948   9.764  0.1292 -1.0012  0.4504
54251SOL     OW69992   0.189   9.145   0.258  0.2167 -0.4701  0.2493
54251SOL    HW169993   0.159   9.234   0.239 -0.5545 -0.6892  0.4024
54251SOL    HW269994   0.127   9.112   0.323 -0.0627 -1.4514 -0.4951
54252SOL     OW69995   8.075   3.817  11.199 -0.1523 -0.4824  0.3853
54252SOL    HW169996   8.123   3.791  11.121 -0.7496 -0.0024 -0.1510
54252SOL    HW269997   8.057   3.735  11.245 -0.8959 -0.9112 -0.6298
54253SOL     OW69998   2.023   0.642   9.616  0.3664 -0.1788 -0.0097
54253SOL    HW169999   1.950   0.594   9.656 -0.4692  0.9136 -0.1649
54253SOL    HW270000   2.089   0.575   9.599 -0.0289 -0.9864  1.4152
54254SOL     OW70001   2.323   1.308   5.175  0.4213  0.4274  1.0190
54254SOL    HW170002   2.415   1.285   5.192  0.0306 -1.4649  0.8265
54254SOL    HW270003   2.324   1.351   5.090  1.0643 -0.2999  0.6447
54255SOL     OW70004   6.808  11.045   8.554  0.7149 -0.4985  0.4487
54255SOL    HW170005   6.714  11.059   8.549  0.7487 -0.5058 -0.5315
54255SOL    HW270006   6.822  10.997   8.635 -0.2096 -1.2020  0.2042
54256SOL     OW70007   9.626   7.562   5.346  0.4925  0.8210  0.1276
54256SOL    HW170008   9.679   7.641   5.349  2.3663 -0.3836 -0.0881
54256SOL    HW270009   9.600   7.554   5.254 -0.1318  1.4234  0.2404
54257SOL     OW70010  10.642   0.891   7.279 -0.2475  0.0087 -0.2788
54257SOL    HW170011  10.576   0.828   7.309  0.5501 -0.6759  0.0938
54257SOL    HW270012  10.725   0.853   7.307  0.2211  1.6098  0.6508
54258SOL     OW70013   9.369  10.675  12.607  0.3389  0.4317 -0.1010
54258SOL    HW170014   9.278  10.694  12.629  0.6859  1.3231  0.6076
54258SOL    HW270015   9.372  10.580  12.597 -0.1812  0.1203  2.2133
54259SOL     OW70016   4.752   9.155   8.169  0.4889 -0.5325  0.1527
54259SOL    HW170017   4.708   9.192   8.092 -0.9706 -2.9007 -0.2859
54259SOL    HW270018   4.824   9.215   8.187 -1.0479  1.8437 -1.0701
54260SOL     OW70019   7.847   0.857   1.715 -0.5009  0.4097  0.0902
54260SOL    HW170020   7.826   0.890   1.628 -1.7479  1.5224  0.7769
54260SOL    HW270021   7.826   0.764   1.711  1.4817 -0.0312 -1.3906
54261SOL     OW70022   5.834   5.926  12.267  0.0043 -0.2317  0.0564
54261SOL    HW170023   5.910   5.977  12.294 -0.5525  2.7999 -3.2945
54261SOL    HW270024   5.872   5.848  12.226  1.0423 -0.8607  2.0937
54262SOL     OW70025   8.844  10.916  10.980 -0.4847 -0.0886 -0.2046
54262SOL    HW170026   8.911  10.909  11.048  0.2685  2.0828 -0.6325
54262SOL    HW270027   8.767  10.874  11.017  0.1309  0.3570  1.6780
54263SOL     OW70028   3.795   3.448   9.817  0.0799  0.0776 -0.1088
54263SOL    HW170029   3.729   3.404   9.764  0.9218 -0.4722 -0.7356
54263SOL    HW270030   3.850   3.495   9.754 -0.8559  2.1816  0.5396
54264SOL     OW70031  11.203   2.364  12.358 -0.2228  0.2122  0.1378
54264SOL    HW170032  11.219   2.280  12.315 -0.1720  0.0126  0.5394
54264SOL    HW270033  11.207   2.428  12.288  0.3333 -0.0605 -0.0904
54265SOL     OW70034   0.716  11.485   6.751  0.4671 -0.0177 -0.3771
54265SOL    HW170035   0.742  11.402   6.710  1.0828  0.3144 -0.6687
54265SOL    HW270036   0.761  11.552   6.700 -0.7991  0.5724 -0.7603
54266SOL     OW70037   8.964  10.960   6.747 -0.0041 -0.2477  0.8136
54266SOL    HW170038   8.995  11.008   6.670  0.9515 -1.6853  0.2655
54266SOL    HW270039   8.954  10.870   6.717 -1.1744 -0.5294  1.9728
54267SOL     OW70040   4.787   9.594   1.113 -1.0673 -0.0425  0.1727
54267SOL    HW170041   4.859   9.535   1.094 -0.2900  0.7998  0.4251
54267SOL    HW270042   4.775   9.645   1.032 -0.4056  0.8060  0.5927
54268SOL     OW70043   9.026   7.143   4.032 -0.1989 -0.0357 -0.3315
54268SOL    HW170044   9.100   7.180   4.081  0.2043 -1.2822  0.0398
54268SOL    HW270045   8.952   7.149   4.093  0.2201 -1.2536  0.3304
54269SOL     OW70046   7.729   0.848   0.502  0.2282  0.1788  0.1190
54269SOL    HW170047   7.756   0.914   0.438 -0.5761  3.2502  2.6829
54269SOL    HW270048   7.705   0.772   0.449 -1.7591  2.9436 -3.3987
54270SOL     OW70049   6.319  10.408   1.931  0.3522 -0.3299 -0.2355
54270SOL    HW170050   6.263  10.363   1.868  0.3259  1.1029 -1.2879
54270SOL    HW270051   6.394  10.350   1.942  0.5050 -0.4745 -1.8443
54271SOL     OW70052   4.690   6.678   9.392  0.1557  0.7670  0.7228
54271SOL    HW170053   4.770   6.669   9.340 -0.2196  0.9936  0.0979
54271SOL    HW270054   4.652   6.760   9.362 -1.9454 -0.8216 -1.2697
54272SOL     OW70055   4.039   4.920   0.256  0.5574  0.7161 -0.4207
54272SOL    HW170056   4.081   5.004   0.272 -2.0162  1.7971  1.3755
54272SOL    HW270057   4.106   4.855   0.274  2.1570  2.3537 -0.2424
54273SOL     OW70058  11.813   8.995   0.024  0.0105 -0.0327  0.4279
54273SOL    HW170059  11.784   8.975  -0.065  2.4909 -1.1722 -0.2072
54273SOL    HW270060  11.818   8.910   0.068 -1.3929  0.5354  1.7874
54274SOL     OW70061   9.169   9.994  10.909  0.4089 -0.0062 -0.5742
54274SOL    HW170062   9.117  10.040  10.975 -0.5884 -1.7508 -0.0581
54274SOL    HW270063   9.152  10.041  10.827  1.9113  2.3785  0.3984
54275SOL     OW70064   4.398   5.898  11.550  0.2967 -0.1336 -0.4435
54275SOL    HW170065   4.448   5.857  11.620  1.8021 -1.6556 -2.2990
54275SOL    HW270066   4.331   5.834  11.527 -1.9755  1.4408  1.2671
54276SOL     OW70067   7.833   8.704   1.374  0.0521 -0.0688  0.0815
54276SOL    HW170068   7.881   8.649   1.437 -0.3666 -0.8627 -0.2875
54276SOL    HW270069   7.779   8.761   1.429  0.5678  0.0607  0.4684
54277SOL     OW70070   3.470   3.534  10.815  0.7080 -0.0855  0.2346
54277SOL    HW170071   3.531   3.463  10.834 -0.2865 -0.8832  0.5157
54277SOL    HW270072   3.458   3.530  10.720  1.0672  0.0640  0.1801
54278SOL     OW70073   9.031  12.015   1.593  0.1814  0.0205 -0.2727
54278SOL    HW170074   8.962  12.034   1.530 -0.8225 -0.6679  0.5807
54278SOL    HW270075   8.989  11.960   1.659  1.1571  0.8122  1.0721
54279SOL     OW70076   1.564   2.420   3.693  0.0744 -0.0725  0.0026
54279SOL    HW170077   1.519   2.359   3.634  0.7283 -1.5225  0.9347
54279SOL    HW270078   1.528   2.400   3.780 -0.0492  1.2285  0.2605
54280SOL     OW70079   7.715   8.965   4.592  0.2064 -0.2997  0.0207
54280SOL    HW170080   7.776   8.892   4.607 -0.3220 -0.7073  0.2295
54280SOL    HW270081   7.711   8.974   4.497  0.6754 -0.1904  0.0055
54281SOL     OW70082   5.723   8.018   5.480 -0.2376 -0.5204 -0.3147
54281SOL    HW170083   5.697   8.086   5.418 -0.1936 -0.7143 -0.5484
54281SOL    HW270084   5.790   8.059   5.534 -0.0658 -0.4393 -0.5858
54282SOL     OW70085   6.946   5.284   6.029  0.8729  0.0470  0.1684
54282SOL    HW170086   6.869   5.315   5.981  0.2293 -0.9823  0.5058
54282SOL    HW270087   6.933   5.313   6.119  0.6511 -0.5241  0.3222
54283SOL     OW70088   1.347   1.007   7.864  0.2972 -0.0823  0.4170
54283SOL    HW170089   1.382   1.019   7.775  1.7433  2.0894  1.1815
54283SOL    HW270090   1.334   1.097   7.896 -0.2705 -0.8219  2.3689
54284SOL     OW70091   5.874  12.434   4.450 -0.1989  0.0579 -0.5940
54284SOL    HW170092   5.843  12.496   4.384 -0.8002 -0.0273 -0.3970
54284SOL    HW270093   5.938  12.380   4.405 -0.2869  0.2809 -0.9887
54285SOL     OW70094   6.328   1.339   8.221 -0.1124  0.6848 -0.1114
54285SOL    HW170095   6.405   1.284   8.232  0.0786  0.8926 -0.4269
54285SOL    HW270096   6.362   1.426   8.202 -0.4235  0.7269 -0.5015
54286SOL     OW70097   9.589   8.387   0.523  0.6560 -0.2143 -0.3001
54286SOL    HW170098   9.603   8.342   0.606  1.0424  0.8413  0.2320
54286SOL    HW270099   9.654   8.458   0.524 -0.2511  0.6449 -0.8722
54287SOL     OW70100   3.692  11.623   8.098  0.3683  0.2462 -0.2829
54287SOL    HW170101   3.770  11.609   8.045  0.0447  0.9783 -0.9788
54287SOL    HW270102   3.724  11.664   8.178  0.7247  0.3567 -0.4815
54288SOL     OW70103   1.137   2.533   9.540  0.3870 -0.4125 -0.0327
54288SOL    HW170104   1.060   2.477   9.532  0.3712 -0.3213 -0.6020
54288SOL    HW270105   1.211   2.473   9.535  0.3561 -0.5701  1.1418
54289SOL     OW70106   6.275   7.203   2.119 -0.4894  0.0543  0.1156
54289SOL    HW170107   6.286   7.279   2.061 -0.9209  0.0912  0.0739
54289SOL    HW270108   6.182   7.180   2.110 -0.2958 -0.6799 -0.1254
54290SOL     OW70109   7.443   3.946   6.808  0.0250  0.1439 -0.4104
54290SOL    HW170110   7.492   3.951   6.726  0.2363 -3.9172 -0.7596
54290SOL    HW270111   7.353   3.927   6.781  0.1980 -1.7601  0.2008
54291SOL     OW70112   8.758   7.487  12.506 -0.4803  0.6049  0.6182
54291SOL    HW170113   8.749   7.514  12.597  1.6520  1.2131  0.7035
54291SOL    HW270114   8.701   7.546  12.457 -1.7253  0.1991  1.5469
54292SOL     OW70115   3.864   4.218   9.337 -0.3702  0.1069 -0.2348
54292SOL    HW170116   3.940   4.200   9.393 -0.3415  0.9019  0.0003
54292SOL    HW270117   3.844   4.134   9.296  0.4392 -0.1884 -0.0510
54293SOL     OW70118   3.749   3.552   0.747  0.1199  0.6121  0.2959
54293SOL    HW170119   3.763   3.457   0.739 -1.2598  0.5056 -1.5028
54293SOL    HW270120   3.824   3.591   0.701  0.0423  0.3579 -0.0505
54294SOL     OW70121   7.033  12.217  11.772 -0.2553 -0.1064 -0.2051
54294SOL    HW170122   6.997  12.304  11.759  0.1570 -0.0092 -0.7441
54294SOL    HW270123   7.073  12.219  11.859 -1.0349 -0.0422  0.1588
54295SOL     OW70124   6.113   9.530   1.605 -0.0917 -0.4954  0.2752
54295SOL    HW170125   6.193   9.497   1.564 -0.0712  0.6251 -0.6480
54295SOL    HW270126   6.143   9.603   1.659 -0.5848  0.5988 -0.8870
54296SOL     OW70127   4.295   4.251   9.400  0.0761  0.2042 -0.0211
54296SOL    HW170128   4.320   4.334   9.441  0.7807  0.3058 -0.6261
54296SOL    HW270129   4.374   4.198   9.404 -0.2412 -0.2710 -0.0487
54297SOL     OW70130   4.946   3.245   5.834 -0.7097  0.4682 -0.0175
54297SOL    HW170131   5.035   3.251   5.867 -0.6865  1.8277 -0.2417
54297SOL    HW270132   4.939   3.157   5.796  1.0413  0.8643 -1.3919
54298SOL     OW70133  10.314   6.048   2.710 -0.1951 -0.1024 -0.1871
54298SOL    HW170134  10.241   6.003   2.752  0.4224 -0.9297  0.0279
54298SOL    HW270135  10.369   5.977   2.675  0.9094  0.4658  0.3498
54299SOL     OW70136   8.590   6.542  11.991  0.2170  0.5956 -0.0795
54299SOL    HW170137   8.590   6.587  11.907 -0.0015 -1.3369 -1.1618
54299SOL    HW270138   8.497   6.528  12.010  0.2965 -2.2716 -1.4221
54300SOL     OW70139   7.306   8.086   0.882  0.2875 -0.7457 -0.2724
54300SOL    HW170140   7.274   8.176   0.884  2.8497  0.2203  0.4290
54300SOL    HW270141   7.277   8.053   0.796  0.9732  1.4160 -1.4113
54301SOL     OW70142  11.661  10.299   2.701  0.1176 -0.5568 -0.6315
54301SOL    HW170143  11.726  10.265   2.762  0.4182  0.4721 -0.3558
54301SOL    HW270144  11.710  10.317   2.621  0.4001  1.0976 -0.1252
54302SOL     OW70145  12.381   2.433   9.722  0.0460  0.1173 -0.3603
54302SOL    HW170146  12.394   2.510   9.777 -0.0225 -0.1001 -0.0366
54302SOL    HW270147  12.314   2.460   9.659  0.9093  0.7230 -1.0343
54303SOL     OW70148   0.689   6.470   5.045 -0.1512  0.2900 -0.1734
54303SOL    HW170149   0.624   6.521   5.093  0.3246  2.2568 -1.4921
54303SOL    HW270150   0.638   6.424   4.977 -0.3667  0.5403 -0.1826
54304SOL     OW70151   1.535   7.753   1.246  0.0152 -0.5538 -0.8080
54304SOL    HW170152   1.448   7.755   1.205 -0.4297 -1.2951  0.0612
54304SOL    HW270153   1.559   7.846   1.255 -1.9023 -0.1726  1.3666
54305SOL     OW70154   8.348   9.208   7.304 -0.3205 -0.3929 -0.1283
54305SOL    HW170155   8.402   9.168   7.373 -0.0372 -0.6048 -0.4661
54305SOL    HW270156   8.258   9.188   7.329 -0.2491  0.0902  0.5224
54306SOL     OW70157   4.125   5.315  10.882 -0.0860  0.6613 -0.1675
54306SOL    HW170158   4.075   5.239  10.853  1.9195 -2.2577  3.1408
54306SOL    HW270159   4.067   5.359  10.944 -0.3943  0.3585 -0.2392
54307SOL     OW70160  10.072   5.515   6.638 -0.2340  0.1365 -0.3575
54307SOL    HW170161  10.068   5.547   6.729 -1.3522 -0.6623 -0.1032
54307SOL    HW270162   9.983   5.528   6.605 -0.3791 -1.4688 -0.6685
54308SOL     OW70163   6.777   5.331   5.407 -0.3958  0.2217  0.0893
54308SOL    HW170164   6.760   5.402   5.346  0.8472  0.5019  0.0453
54308SOL    HW270165   6.828   5.267   5.357  0.3699  0.3166  0.7205
54309SOL     OW70166   8.642  11.919   7.769 -0.1381  0.2612  0.5481
54309SOL    HW170167   8.576  11.988   7.779  0.2201  0.7081 -0.1024
54309SOL    HW270168   8.693  11.924   7.850 -1.4554 -0.7179  1.4938
54310SOL     OW70169  12.430   2.643   9.368  0.3397  0.4869 -0.6703
54310SOL    HW170170  12.500   2.583   9.342  0.4327  0.2379  0.1259
54310SOL    HW270171  12.466   2.690   9.444  0.3935  1.8005 -1.4879
54311SOL     OW70172   9.396   6.836   7.754  0.6412 -0.3402 -0.6820
54311SOL    HW170173   9.380   6.857   7.662 -1.5632  1.8373  0.0846
54311SOL    HW270174   9.427   6.919   7.792  1.6835 -1.2474  0.5496
54312SOL     OW70175   2.801   3.723  12.667  0.0303 -0.0703 -0.3004
54312SOL    HW170176   2.771   3.771  12.590 -1.0424  0.6362  0.5089
54312SOL    HW270177   2.895   3.742  12.673 -0.1448  0.9657 -0.6831
54313SOL     OW70178   0.363   3.620  12.033 -0.3104  1.1189  0.1292
54313SOL    HW170179   0.346   3.713  12.020 -0.7422  1.1908  1.1460
54313SOL    HW270180   0.305   3.594  12.104 -0.1036  0.0975 -0.0555
54314SOL     OW70181   9.581   2.037  11.465  0.2964 -0.6680 -0.0830
54314SOL    HW170182   9.596   2.101  11.396 -0.4274  0.5473  0.8569
54314SOL    HW270183   9.643   1.967  11.446  1.3262  0.4408 -0.9483
54315SOL     OW70184   4.695   4.682  12.670 -0.2281  0.2178  0.2229
54315SOL    HW170185   4.688   4.698  12.764  1.8461  0.6132  0.3635
54315SOL    HW270186   4.674   4.766  12.630  1.3138  0.7809  0.5016
54316SOL     OW70187   3.514   2.574   8.607  0.2536  0.1881 -0.4486
54316SOL    HW170188   3.475   2.591   8.521 -1.1156 -1.2666 -0.1608
54316SOL    HW270189   3.602   2.542   8.587  0.3542  0.9190 -1.2442
54317SOL     OW70190   0.389   2.666   2.271 -0.3096 -0.8712 -0.5211
54317SOL    HW170191   0.350   2.584   2.241  0.8628 -1.9386  0.7032
54317SOL    HW270192   0.382   2.662   2.367  1.3581 -0.3982 -0.3426
54318SOL     OW70193   5.701  12.470   5.343 -0.0777 -0.1882  0.0299
54318SOL    HW170194   5.705  12.563   5.322 -0.2047 -0.3635 -0.8142
54318SOL    HW270195   5.694  12.467   5.438  1.6838  0.6252  0.2385
54319SOL     OW70196   6.127   7.076   6.968  0.3769 -0.4486  0.7921
54319SOL    HW170197   6.158   7.007   6.908  2.9066  0.5763  0.8105
54319SOL    HW270198   6.046   7.107   6.928  1.6097 -0.2643 -1.8047
54320SOL     OW70199   5.647  12.537   0.684  0.2225  0.0351 -0.6973
54320SOL    HW170200   5.689  12.465   0.637  0.6752 -0.1795  0.0218
54320SOL    HW270201   5.720  12.593   0.712  0.1063 -0.6178  1.0238
54321SOL     OW70202   1.659   7.927   5.690  0.3993 -0.6004 -0.6265
54321SOL    HW170203   1.644   7.929   5.596 -0.6244  0.7879 -0.4653
54321SOL    HW270204   1.573   7.912   5.728  0.8777 -1.6352  0.0826
54322SOL     OW70205   7.073  12.369   8.040  0.4783  0.0668  0.0219
54322SOL    HW170206   7.126  12.326   8.107 -1.5591  1.1416  2.5038
54322SOL    HW270207   7.009  12.302   8.014 -0.4233  0.4254  1.2198
54323SOL     OW70208   8.091   6.458   3.032 -0.5376  0.5932  0.1162
54323SOL    HW170209   8.171   6.490   2.992 -0.7979 -0.1212 -1.0250
54323SOL    HW270210   8.043   6.537   3.058  0.2247  1.0317  0.2084
54324SOL     OW70211  10.305  12.310   5.992  0.6071 -0.2335 -0.2435
54324SOL    HW170212  10.299  12.263   6.074 -0.8539  0.3747  0.0396
54324SOL    HW270213  10.269  12.250   5.927  1.2631 -0.5095 -0.3616
54325SOL     OW70214  12.332  10.318   0.613 -0.1517 -0.8754 -0.8792
54325SOL    HW170215  12.362  10.408   0.601 -1.4288 -0.2784  0.2105
54325SOL    HW270216  12.307  10.289   0.525 -2.9879  1.0653 -0.8302
54326SOL     OW70217   6.933   0.753   4.519 -0.1044 -0.0781 -0.2161
54326SOL    HW170218   6.921   0.659   4.500 -1.4238 -0.2555  1.2925
54326SOL    HW270219   6.844   0.788   4.523  0.2108  0.6319  2.0143
54327SOL     OW70220   6.059  10.304   4.088 -0.4432  0.3874 -0.1032
54327SOL    HW170221   6.029  10.215   4.070  0.5258  0.4651 -2.3648
54327SOL    HW270222   6.079  10.341   4.002 -0.6962  2.7663  0.7781
54328SOL     OW70223   3.873  10.411   4.562 -0.1938  0.1759  0.5592
54328SOL    HW170224   3.839  10.433   4.476  0.7564  0.5912  0.2829
54328SOL    HW270225   3.800  10.368   4.606 -0.8292  0.3671 -0.2873
54329SOL     OW70226   3.300   2.729   3.932  0.5739 -0.1514 -0.6370
54329SOL    HW170227   3.225   2.720   3.874 -0.8734  1.5917  0.8280
54329SOL    HW270228   3.326   2.639   3.952 -2.9448 -1.0043  0.9697
54330SOL     OW70229   2.803  12.478   8.545  0.7010 -0.1211  0.1256
54330SOL    HW170230   2.846  12.540   8.486 -0.8566  1.2811  0.4106
54330SOL    HW270231   2.747  12.532   8.601  0.2093 -1.6715  1.2093
54331SOL     OW70232  11.680   9.413   5.928  0.3848  0.2899  0.3556
54331SOL    HW170233  11.775   9.412   5.916  0.2587 -0.7784 -0.7317
54331SOL    HW270234  11.646   9.358   5.858 -1.0430  0.5486  0.8037
54332SOL     OW70235   5.678   5.841   7.134  0.0076 -0.3406 -0.3989
54332SOL    HW170236   5.664   5.858   7.041  0.1946  2.7185  0.0289
54332SOL    HW270237   5.596   5.870   7.176  0.3299 -0.6535  0.4684
54333SOL     OW70238   3.519   8.199   5.006  0.1610 -0.0818 -0.2316
54333SOL    HW170239   3.435   8.244   5.009  0.6100  0.7092  1.2043
54333SOL    HW270240   3.533   8.182   4.913 -0.9258  1.0376 -0.6280
54334SOL     OW70241  10.176   7.681   3.562  0.0263 -0.3739  0.1655
54334SOL    HW170242  10.126   7.739   3.618 -2.4717 -2.5751  0.3991
54334SOL    HW270243  10.261   7.672   3.606  0.2492  2.3936  0.4809
54335SOL     OW70244  10.687   9.776  10.694 -1.0021 -0.6266  1.3369
54335SOL    HW170245  10.628   9.704  10.718 -1.4146 -0.7499  0.0308
54335SOL    HW270246  10.696   9.769  10.599 -1.6962  1.5134  1.0596
54336SOL     OW70247  12.272   8.004   8.320  0.4197 -0.4607  0.3732
54336SOL    HW170248  12.312   8.056   8.251  0.5983  0.1325  0.9145
54336SOL    HW270249  12.316   7.919   8.315 -0.1374 -0.6923 -0.7569
54337SOL     OW70250  11.350   5.984  12.335 -0.1461 -0.5656  0.8961
54337SOL    HW170251  11.297   6.016  12.408 -1.2532  4.3165 -1.6872
54337SOL    HW270252  11.288   5.969  12.264  1.3548 -0.5071 -0.4843
54338SOL     OW70253   5.617   0.492   1.062  0.2288 -0.1285  0.5199
54338SOL    HW170254   5.630   0.433   1.136  0.1501 -0.8192 -0.0069
54338SOL    HW270255   5.618   0.435   0.985  1.5173  0.7168 -0.1271
54339SOL     OW70256   3.209   9.411   8.972 -0.3893  0.0589  0.7688
54339SOL    HW170257   3.128   9.461   8.967 -0.9504 -0.8392  0.6039
54339SOL    HW270258   3.278   9.477   8.978 -1.0590  0.8508 -0.0330
54340SOL     OW70259  11.578   7.354  10.595 -0.1444  0.1070 -0.2296
54340SOL    HW170260  11.639   7.344  10.668 -0.7194 -1.4096  0.0755
54340SOL    HW270261  11.570   7.266  10.558 -2.2768  0.1961 -0.1296
54341SOL     OW70262   3.658   3.485   5.877  0.2846 -0.3061  0.0163
54341SOL    HW170263   3.596   3.485   5.950  0.2872  1.3925  0.0573
54341SOL    HW270264   3.648   3.572   5.838  1.5709 -0.5533 -0.8957
54342SOL     OW70265   3.161   6.026   4.887 -0.0684  0.2169 -0.1370
54342SOL    HW170266   3.155   5.938   4.925 -0.4879 -0.2293 -1.1991
54342SOL    HW270267   3.254   6.049   4.897  0.0374 -0.3272  0.2014
54343SOL     OW70268   8.772   4.446   0.160  0.0242 -0.2906  0.5668
54343SOL    HW170269   8.770   4.514   0.093 -1.8358 -0.6692  0.1757
54343SOL    HW270270   8.839   4.384   0.130 -0.1530  0.0057 -0.4794
54344SOL     OW70271   7.141   5.999  10.791 -0.1357 -0.0114 -0.0002
54344SOL    HW170272   7.086   5.977  10.866  0.0449 -2.0975 -0.4367
54344SOL    HW270273   7.227   5.963  10.812 -0.3474 -1.6096 -1.6258
54345SOL     OW70274   6.755  11.226   9.346 -0.2693  0.0901  0.2746
54345SOL    HW170275   6.728  11.285   9.416  2.9688  1.1512  0.8263
54345SOL    HW270276   6.812  11.279   9.290  0.0993 -1.6727 -1.1122
54346SOL     OW70277  11.593   7.020   6.718  0.0849  0.4512 -0.2861
54346SOL    HW170278  11.581   6.957   6.790  1.0857 -0.6930 -1.0717
54346SOL    HW270279  11.622   6.966   6.644  0.5482  1.7985 -1.1163
54347SOL     OW70280  11.477   4.299   5.259 -0.2091 -0.1631  0.1228
54347SOL    HW170281  11.400   4.289   5.316  0.1290 -0.4187  0.5417
54347SOL    HW270282  11.526   4.217   5.270  0.6031  0.3628  0.5940
54348SOL     OW70283   9.878   3.906   2.301  0.3742 -0.3159  0.6001
54348SOL    HW170284   9.858   3.999   2.288  1.1254 -0.4097 -1.4911
54348SOL    HW270285   9.947   3.906   2.367  1.4775  0.7452 -0.5028
54349SOL     OW70286   1.400   7.658   2.591 -0.0386 -0.3485  0.1231
54349SOL    HW170287   1.477   7.680   2.643 -1.0883  1.1986  1.0963
54349SOL    HW270288   1.411   7.566   2.570  1.2582 -0.5890  1.6671
54350SOL     OW70289   8.782   5.129   1.066  0.5195 -0.6150 -0.7937
54350SOL    HW170290   8.691   5.118   1.096  0.7831 -0.8410 -0.0578
54350SOL    HW270291   8.818   5.041   1.068  1.0627 -0.3880 -0.0547
54351SOL     OW70292  11.867   2.508   6.694 -0.4435 -0.6047  0.4585
54351SOL    HW170293  11.813   2.542   6.623  1.0264 -3.1446 -2.0929
54351SOL    HW270294  11.806   2.494   6.767 -2.6376 -0.7022 -1.3038
54352SOL     OW70295  10.337   3.987   4.579 -0.3123  0.2251  0.1788
54352SOL    HW170296  10.357   3.986   4.486  0.0310 -3.2285  0.1691
54352SOL    HW270297  10.245   4.013   4.585 -0.4079  0.2033 -1.1113
54353SOL     OW70298  11.039   4.207   4.072  0.1236 -0.4851 -0.4674
54353SOL    HW170299  10.988   4.247   4.001  0.7280 -1.3755 -1.4271
54353SOL    HW270300  11.083   4.133   4.031  2.6916  0.5879  0.1681
54354SOL     OW70301   2.580   0.876   8.301 -0.4412 -0.6534 -0.1244
54354SOL    HW170302   2.630   0.886   8.382 -1.2916  0.8356  0.2516
54354SOL    HW270303   2.515   0.946   8.304 -0.4136 -0.4901 -2.1752
54355SOL     OW70304  12.136   9.728   2.036 -0.2971  0.8815 -0.1232
54355SOL    HW170305  12.157   9.709   1.945  0.7241 -0.4793  0.3641
54355SOL    HW270306  12.195   9.801   2.059  3.0979 -1.8547  0.7549
54356SOL     OW70307  12.542  11.174   2.359  0.3612  0.2927  0.3520
54356SOL    HW170308  12.530  11.221   2.441  2.1389  0.6642  0.4351
54356SOL    HW270309  12.468  11.201   2.305 -0.2077  0.9355  1.4222
54357SOL     OW70310   4.659   3.062   7.294  0.0847 -0.5074 -0.1801
54357SOL    HW170311   4.589   3.086   7.355 -0.3337 -2.6885  0.2881
54357SOL    HW270312   4.680   2.971   7.317  1.2676 -0.7471 -2.0336
54358SOL     OW70313   5.164   7.957   1.744  0.1883  0.2100 -0.0765
54358SOL    HW170314   5.167   7.999   1.831  0.4616 -1.1321  0.5863
54358SOL    HW270315   5.122   8.022   1.688 -1.0229  0.6879  1.3073
54359SOL     OW70316   9.338   9.378   8.350 -0.5106  0.0256  0.0314
54359SOL    HW170317   9.368   9.467   8.368 -2.7949  1.4151 -2.3883
54359SOL    HW270318   9.277   9.359   8.421  0.1771  0.2494  0.7010
54360SOL     OW70319  10.478  12.266   9.394  0.3033 -0.1392 -0.5874
54360SOL    HW170320  10.536  12.330   9.435 -0.0689  0.5610 -1.1288
54360SOL    HW270321  10.526  12.236   9.317  0.0121  0.3319 -0.9546
54361SOL     OW70322  11.569   5.203  12.609  0.1697 -0.1904  0.3209
54361SOL    HW170323  11.493   5.169  12.562 -0.3502 -0.3112  1.2438
54361SOL    HW270324  11.579   5.144  12.684 -0.0897  1.0505  1.3511
54362SOL     OW70325   9.090  11.622   4.819  0.1675 -0.4103  0.0190
54362SOL    HW170326   9.023  11.554   4.820 -0.4047  0.1462  0.1147
54362SOL    HW270327   9.042  11.703   4.836  0.7814  0.0706 -0.4984
54363SOL     OW70328   2.065  11.166   0.447 -0.3192 -0.0632 -0.1311
54363SOL    HW170329   2.161  11.165   0.441 -0.0196  0.0678  2.9840
54363SOL    HW270330   2.040  11.073   0.443  0.1790 -0.2716  1.0549
54364SOL     OW70331   8.715   1.929   7.706 -0.1972 -0.3990  0.4561
54364SOL    HW170332   8.679   1.856   7.655 -1.2619 -0.6238  1.5103
54364SOL    HW270333   8.772   1.887   7.770  1.0645 -0.1210 -0.4441
54365SOL     OW70334   1.159  11.438   7.836 -0.4868 -0.0024  0.6053
54365SOL    HW170335   1.205  11.390   7.906 -2.3015  0.8565  2.4990
54365SOL    HW270336   1.218  11.510   7.814  0.1678 -0.3494  1.1649
54366SOL     OW70337   4.667   0.358   8.233 -0.1958 -0.0060  0.0975
54366SOL    HW170338   4.754   0.388   8.258  0.7834 -0.0108 -2.8789
54366SOL    HW270339   4.681   0.269   8.200 -1.3778 -0.1242 -0.1217
54367SOL     OW70340   1.488   7.318   4.436  0.4917  0.0695 -0.0216
54367SOL    HW170341   1.395   7.337   4.440  0.8680  1.9481  1.7846
54367SOL    HW270342   1.496   7.249   4.370 -2.0154  0.6872 -1.0913
54368SOL     OW70343   6.069   7.265   9.533  0.7418 -0.6041  0.4731
54368SOL    HW170344   6.026   7.260   9.619  2.0098 -1.2006  1.0982
54368SOL    HW270345   6.027   7.339   9.490 -1.6695 -1.7642  0.5977
54369SOL     OW70346  10.637  11.877  11.301  0.2433 -0.1321  0.1693
54369SOL    HW170347  10.584  11.954  11.320 -0.3154 -0.7784  1.3013
54369SOL    HW270348  10.726  11.901  11.329  0.6502  1.0122 -1.8856
54370SOL     OW70349   9.230   0.416   3.908  0.0851 -0.1904 -0.1655
54370SOL    HW170350   9.235   0.362   3.829  0.5746 -1.1435  0.5015
54370SOL    HW270351   9.137   0.440   3.914  0.2664  1.1004 -1.7945
54371SOL     OW70352   0.196   0.693   4.750  0.0702 -0.0818 -0.3196
54371SOL    HW170353   0.233   0.779   4.729  2.1819 -0.9007 -0.2297
54371SOL    HW270354   0.216   0.680   4.843 -1.0385 -0.3073 -0.0976
54372SOL     OW70355   8.791   5.036   5.355 -0.7641  0.0900  0.2044
54372SOL    HW170356   8.788   5.027   5.260 -0.3946 -0.6097  0.2475
54372SOL    HW270357   8.699   5.039   5.382 -1.0128 -2.7420  0.0583
54373SOL     OW70358   4.208   4.603   3.058  0.2943 -0.2498  0.2750
54373SOL    HW170359   4.136   4.665   3.057  0.3959 -0.1301 -0.6078
54373SOL    HW270360   4.260   4.627   3.134 -0.2354  0.0823  0.5319
54374SOL     OW70361   1.149  11.050   1.656 -0.4914  0.0535  0.0720
54374SOL    HW170362   1.242  11.069   1.663 -0.3137 -1.1612  4.3966
54374SOL    HW270363   1.106  11.131   1.682 -0.6448  0.4280 -1.3125
54375SOL     OW70364   0.497   4.534   2.077 -0.4177  0.3341 -0.4725
54375SOL    HW170365   0.592   4.526   2.072 -0.4870 -0.5625 -0.4850
54375SOL    HW270366   0.482   4.615   2.125  0.3768 -0.8291  1.9085
54376SOL     OW70367  10.960   3.605  10.016  0.7114  0.8401  0.2830
54376SOL    HW170368  11.053   3.626  10.004  0.3961  1.9377 -0.3768
54376SOL    HW270369  10.914   3.681   9.980 -0.4858 -0.5275 -1.1989
54377SOL     OW70370  10.582  12.337   8.619  0.0026 -0.6549 -0.3474
54377SOL    HW170371  10.664  12.385   8.608 -0.1053 -0.2233  0.5686
54377SOL    HW270372  10.514  12.403   8.605 -0.1400 -0.3329  1.5874
54378SOL     OW70373   4.545  12.243   1.995  0.0348 -0.2226 -0.2197
54378SOL    HW170374   4.554  12.327   2.040  1.1367  0.2433 -1.2570
54378SOL    HW270375   4.569  12.262   1.904 -0.3606 -1.5279 -0.6213
54379SOL     OW70376   9.190  11.312   8.780 -0.2145  0.3063  0.2157
54379SOL    HW170377   9.117  11.318   8.718 -0.3577  3.3071  0.5127
54379SOL    HW270378   9.268  11.319   8.726 -0.2568  0.3624  0.1620
54380SOL     OW70379   1.719  12.235   0.895  0.4208  0.1313 -0.1860
54380SOL    HW170380   1.633  12.203   0.868  0.3027  0.2218  0.0815
54380SOL    HW270381   1.702  12.319   0.938  0.6634  0.2467 -0.3111
54381SOL     OW70382   5.764   5.296   9.114  0.2457 -0.1074 -0.0411
54381SOL    HW170383   5.720   5.360   9.058  0.3823  0.9527  1.0096
54381SOL    HW270384   5.778   5.220   9.058 -1.1873  0.2554 -0.9321
54382SOL     OW70385  10.912   8.952   8.159 -0.5960 -0.3024 -0.1616
54382SOL    HW170386  10.872   8.910   8.082  0.4062  1.5261 -1.7481
54382SOL    HW270387  10.997   8.909   8.168  0.1449  0.8277 -1.3733
54383SOL     OW70388   7.482  10.106   0.408  0.1839  0.5207 -0.2881
54383SOL    HW170389   7.507  10.086   0.498  1.4194  0.9704 -0.5090
54383SOL    HW270390   7.393  10.073   0.399  0.4244 -0.4567  0.7932
54384SOL     OW70391   6.451   3.981   1.268  0.6373  0.1414 -0.3142
54384SOL    HW170392   6.383   4.027   1.219  1.2366  0.5651 -0.7638
54384SOL    HW270393   6.531   3.997   1.218  0.8666 -1.3914 -0.4757
54385SOL     OW70394   0.301  10.345   9.975 -0.0044  0.6494  0.2353
54385SOL    HW170395   0.273  10.321  10.063 -0.6118 -1.4573 -0.4630
54385SOL    HW270396   0.332  10.435   9.983 -0.2708  0.5949  2.5320
54386SOL     OW70397   8.054   7.652   1.333  0.1964  0.3919  0.1161
54386SOL    HW170398   7.966   7.642   1.372 -0.2156  0.3559 -0.8044
54386SOL    HW270399   8.106   7.691   1.404 -0.6114  0.6000  0.6217
54387SOL     OW70400  12.682  10.202  10.292  0.8168  0.1762 -0.5788
54387SOL    HW170401  12.590  10.184  10.276  1.1416 -0.4827 -1.8302
54387SOL    HW270402  12.697  10.177  10.383  0.1206 -1.2166 -0.8358
54388SOL     OW70403   4.369   3.813   2.282  0.0900  0.1010  0.2412
54388SOL    HW170404   4.395   3.809   2.190 -0.7160  1.0753 -0.0525
54388SOL    HW270405   4.284   3.770   2.285  0.0728  0.1538  0.5179
54389SOL     OW70406  11.494  11.907   9.167  0.1524  0.4498 -0.4549
54389SOL    HW170407  11.412  11.924   9.213 -1.1216 -1.4655 -1.8345
54389SOL    HW270408  11.543  11.850   9.226 -1.1487 -1.3840 -1.0323
54390SOL     OW70409   4.259   6.531   5.491  0.3921 -0.1702  0.2999
54390SOL    HW170410   4.271   6.474   5.567  0.2366 -0.1745  0.3220
54390SOL    HW270411   4.347   6.558   5.467  0.5073 -0.7646  0.0331
54391SOL     OW70412   5.445   1.379   3.716 -0.2995 -0.3226 -0.3755
54391SOL    HW170413   5.532   1.386   3.756  0.1743  1.4553 -1.6070
54391SOL    HW270414   5.385   1.377   3.790  0.7838 -1.8145  0.5085
54392SOL     OW70415   2.589   2.231   1.246 -0.8636 -0.3489  0.5119
54392SOL    HW170416   2.653   2.225   1.317 -0.8584 -0.2599  0.5146
54392SOL    HW270417   2.508   2.195   1.283 -0.5017 -1.5981  0.1324
54393SOL     OW70418   6.155   2.126   3.311 -0.5558 -0.0008  0.0364
54393SOL    HW170419   6.064   2.146   3.334 -0.8700  0.1629 -1.2294
54393SOL    HW270420   6.175   2.186   3.239  0.9630  0.7790  1.0639
54394SOL     OW70421   0.741   0.662   2.815 -0.4173  0.0476  0.1900
54394SOL    HW170422   0.734   0.613   2.733 -0.5729  0.6911 -0.1953
54394SOL    HW270423   0.652   0.696   2.830 -0.4640 -0.3240  0.7954
54395SOL     OW70424   1.221   2.609  11.795  0.2634 -0.3452 -0.1803
54395SOL    HW170425   1.244   2.591  11.886  1.8786  2.7246  0.1331
54395SOL    HW270426   1.127   2.590  11.790  0.2706 -1.2036  1.9230
54396SOL     OW70427  10.568   2.058   1.511  0.0258 -0.2604  0.1911
54396SOL    HW170428  10.643   2.015   1.470 -0.5224 -1.4137  0.3582
54396SOL    HW270429  10.495   2.043   1.451 -0.4055 -0.4761  0.7621
54397SOL     OW70430   9.650   7.102   1.809 -0.4997  0.6871  0.1668
54397SOL    HW170431   9.693   7.159   1.745 -0.8139 -0.2604 -0.9248
54397SOL    HW270432   9.560   7.134   1.813 -1.2149 -0.8193 -1.8900
54398SOL     OW70433   4.552   4.075   4.968  0.0122  0.5619  0.1897
54398SOL    HW170434   4.638   4.040   4.946  0.2069  0.2334  1.3859
54398SOL    HW270435   4.559   4.168   4.946  0.0767  0.2257 -1.3435
54399SOL     OW70436   3.944   8.451   5.766 -0.3247  0.2478  0.1181
54399SOL    HW170437   4.022   8.413   5.807  0.0111  0.1680 -0.5670
54399SOL    HW270438   3.916   8.520   5.827  0.8052  0.8646 -0.0294
54400SOL     OW70439  10.052  11.701   4.476 -0.1843  0.2341 -0.0666
54400SOL    HW170440   9.960  11.721   4.456 -0.0750  0.7886 -0.0189
54400SOL    HW270441  10.088  11.783   4.509  0.7637  0.5014 -1.6615
54401SOL     OW70442   4.319   5.332   1.409  0.3507 -0.2240  0.1597
54401SOL    HW170443   4.281   5.300   1.328  0.3363 -0.2865  0.1913
54401SOL    HW270444   4.408   5.297   1.409 -0.2266 -1.7708  1.0535
54402SOL     OW70445   0.081   2.801  12.433  0.7257  0.0140  0.6005
54402SOL    HW170446   0.109   2.752  12.356 -3.1693 -0.9345 -0.4180
54402SOL    HW270447   0.091   2.893  12.408  0.6699 -0.2814 -0.5759
54403SOL     OW70448  10.917   2.683   7.799  0.2528  0.3547 -0.4973
54403SOL    HW170449  11.008   2.668   7.825 -0.1624 -1.2211  0.1838
54403SOL    HW270450  10.899   2.614   7.735 -0.5679  0.4285 -0.3562
54404SOL     OW70451   9.376   6.260   9.632 -0.2957  0.0456 -0.6925
54404SOL    HW170452   9.322   6.280   9.556  0.2677 -0.7818 -1.3319
54404SOL    HW270453   9.381   6.164   9.633 -0.5253  0.0250  0.5549
54405SOL     OW70454   0.627   5.547  12.538 -0.5705  0.9467  0.5774
54405SOL    HW170455   0.595   5.535  12.627 -0.3337 -0.7296  0.4631
54405SOL    HW270456   0.620   5.461  12.498  2.8574  0.7295  0.1546
54406SOL     OW70457   3.608  12.694   1.302  0.6675  0.3635  0.6436
54406SOL    HW170458   3.645  12.653   1.380 -2.1861  1.4098  2.7405
54406SOL    HW270459   3.587  12.621   1.243  0.9008 -0.6501  1.7863
54407SOL     OW70460   8.825   1.788   3.125 -0.4917  0.6572  0.4163
54407SOL    HW170461   8.821   1.841   3.205 -0.6525  2.3287 -0.6460
54407SOL    HW270462   8.873   1.843   3.062  1.5881 -1.4992 -0.0315
54408SOL     OW70463   0.831   1.320   5.991 -0.8204  0.5269  0.0147
54408SOL    HW170464   0.779   1.282   5.921 -1.2911  0.7539  0.2401
54408SOL    HW270465   0.814   1.264   6.067 -0.0060  0.0438 -0.1391
54409SOL     OW70466   8.561   0.336   6.971 -0.6684  0.0068  0.3620
54409SOL    HW170467   8.499   0.276   6.929 -0.4040 -0.6751  0.9157
54409SOL    HW270468   8.635   0.280   6.996 -1.4623  0.0234  3.1160
54410SOL     OW70469  11.948  12.316  10.482 -0.0362  0.6384 -0.3453
54410SOL    HW170470  11.977  12.262  10.556 -0.2823 -0.7786 -1.2418
54410SOL    HW270471  11.978  12.268  10.405 -0.6162  1.6029 -1.1912
54411SOL     OW70472   4.394  10.192   9.700  0.1955  0.4479  0.0927
54411SOL    HW170473   4.425  10.266   9.648  0.9846  1.0365  1.3596
54411SOL    HW270474   4.345  10.232   9.772 -0.1869 -0.3119  0.2688
54412SOL     OW70475   9.812   3.870   4.127  0.1217 -0.1574 -0.0693
54412SOL    HW170476   9.808   3.855   4.032  0.8501 -1.7294  0.1083
54412SOL    HW270477   9.900   3.904   4.142 -0.5683  1.7421 -0.1234
54413SOL     OW70478   8.097   3.402   5.696 -0.5552  0.2800  0.4023
54413SOL    HW170479   8.110   3.394   5.791  0.7370  2.0306  0.4282
54413SOL    HW270480   8.089   3.311   5.665 -3.8518 -0.2807  2.4803
54414SOL     OW70481   4.957   1.454  10.622  0.6999  0.1646  0.1051
54414SOL    HW170482   4.877   1.495  10.589  0.4926  0.5721  1.0846
54414SOL    HW270483   4.928   1.373  10.662  0.5034  1.1589  2.0695
54415SOL     OW70484   3.930   6.087   4.179 -0.4626 -0.1186 -0.1590
54415SOL    HW170485   3.960   6.137   4.104 -0.0135  0.0864  0.1514
54415SOL    HW270486   4.006   6.082   4.237 -0.8597 -0.0861  0.3775
54416SOL     OW70487  10.334   0.639  12.156  0.0421 -0.4763 -0.0888
54416SOL    HW170488  10.383   0.709  12.199  1.2827 -0.9022 -0.7360
54416SOL    HW270489  10.301   0.585  12.227  0.1072  0.0939  0.3841
54417SOL     OW70490   8.856  12.666  11.592 -0.7593  0.0246 -0.3819
54417SOL    HW170491   8.823  12.598  11.651 -0.0552 -1.1876 -1.3437
54417SOL    HW270492   8.794  12.738  11.603 -0.7438 -0.2050  1.6984
54418SOL     OW70493   8.458   0.952  11.024  0.0691 -0.0770  0.2412
54418SOL    HW170494   8.527   0.888  11.037  0.4954  0.2594 -0.3198
54418SOL    HW270495   8.380   0.900  11.004  0.2037 -0.4458  0.6523
54419SOL     OW70496   1.223   0.959   3.415 -0.0812  0.4703  0.4322
54419SOL    HW170497   1.307   0.944   3.370 -0.1687 -1.0000  0.6919
54419SOL    HW270498   1.248   1.000   3.498  0.4386 -0.2895  0.6677
54420SOL     OW70499  11.114  12.517  10.177  0.1293  0.1906 -0.1807
54420SOL    HW170500  11.033  12.519  10.126  0.5117 -3.2266 -1.1840
54420SOL    HW270501  11.093  12.464  10.254  0.9012  1.0421  0.6503
54421SOL     OW70502   2.989   4.552   9.629  0.5219 -0.1811 -0.2956
54421SOL    HW170503   3.034   4.634   9.652  2.5278 -1.3362  0.1778
54421SOL    HW270504   2.906   4.555   9.677  0.4135  1.6865 -0.5295
54422SOL     OW70505   3.385   6.423   3.885  0.7634 -0.0650  0.5869
54422SOL    HW170506   3.464   6.447   3.836  0.3882  2.0667  0.9347
54422SOL    HW270507   3.413   6.351   3.941  2.1707 -0.0968 -0.1153
54423SOL     OW70508   5.567   2.915   6.159  0.3413 -0.2678  0.3809
54423SOL    HW170509   5.551   2.837   6.106 -1.6502 -1.0465  1.9962
54423SOL    HW270510   5.645   2.894   6.210  0.1646 -0.9584  0.3713
54424SOL     OW70511   2.193   8.684   8.503 -0.3828  0.1712 -0.0325
54424SOL    HW170512   2.224   8.746   8.437  0.5411  0.4040  0.5921
54424SOL    HW270513   2.189   8.600   8.458  0.6773  0.2430 -0.2827
54425SOL     OW70514   4.546   6.200   0.921  0.0488  0.0750  0.0696
54425SOL    HW170515   4.575   6.112   0.947 -1.1676 -0.0362  1.1351
54425SOL    HW270516   4.521   6.190   0.829  0.7510 -0.4746 -0.0707
54426SOL     OW70517   7.348   8.417   0.595  0.0141  0.8574 -0.2378
54426SOL    HW170518   7.294   8.379   0.664 -0.0753  2.2380  0.4860
54426SOL    HW270519   7.341   8.511   0.608  1.0076  1.1159 -1.3678
54427SOL     OW70520   6.213   2.128   2.003  0.2730 -0.0467  0.6664
54427SOL    HW170521   6.307   2.125   2.022  0.5323  0.3233 -0.4782
54427SOL    HW270522   6.207   2.177   1.921 -0.8714 -0.5826  0.4109
54428SOL     OW70523   1.843  10.085   2.576 -0.0719 -0.0174 -0.0503
54428SOL    HW170524   1.863  10.067   2.484  0.6201  1.4077 -0.2227
54428SOL    HW270525   1.929  10.087   2.619 -0.3719 -0.4231  0.5685
54429SOL     OW70526   4.027   7.644   3.421  0.3104 -0.3892  0.3006
54429SOL    HW170527   4.026   7.724   3.368 -2.1090  0.4118  1.4385
54429SOL    HW270528   4.120   7.628   3.439  0.8344  2.4232  0.4325
54430SOL     OW70529   4.679   6.031   0.677  0.6384  0.3737 -0.4427
54430SOL    HW170530   4.621   5.960   0.648  0.9143  0.7102 -1.8651
54430SOL    HW270531   4.622   6.108   0.681  0.4271  0.1779  0.7213
54431SOL     OW70532   9.962   2.734   7.447 -0.3679 -0.0933  0.5810
54431SOL    HW170533   9.961   2.828   7.429  0.1851 -0.1767  0.0641
54431SOL    HW270534   9.914   2.724   7.529  0.2717  0.7256  1.0598
54432SOL     OW70535   5.136   4.479   0.086 -0.1048  0.6319 -0.5079
54432SOL    HW170536   5.072   4.542   0.118 -0.0784  0.3648  0.0797
54432SOL    HW270537   5.219   4.507   0.123 -0.2291 -0.2158  0.4372
54433SOL     OW70538   9.986   5.153   9.160  0.1981 -0.0806 -0.4889
54433SOL    HW170539   9.964   5.243   9.186  2.5517  0.1251  1.1790
54433SOL    HW270540  10.031   5.163   9.076 -2.0757 -0.0896 -1.7935
54434SOL     OW70541   0.033  10.069   4.673 -0.0918  0.2297 -0.4965
54434SOL    HW170542  -0.046  10.096   4.720  0.0403  2.0011 -1.1843
54434SOL    HW270543   0.003  10.054   4.583  0.4617  1.9216 -1.0116
54435SOL     OW70544   4.845   2.830   0.203  0.0483 -0.3793  0.2010
54435SOL    HW170545   4.876   2.814   0.114  0.1569 -0.0023  0.1717
54435SOL    HW270546   4.905   2.895   0.239 -0.6155  0.2440  0.1925
54436SOL     OW70547   4.862   2.503   0.671 -0.1628  0.0209 -0.0913
54436SOL    HW170548   4.910   2.422   0.689 -2.0901 -0.9095  1.1823
54436SOL    HW270549   4.818   2.487   0.587  0.4597  0.2594 -0.4692
54437SOL     OW70550   6.640   1.878  10.378 -0.0287 -0.1274 -0.1095
54437SOL    HW170551   6.603   1.965  10.390  1.4924  0.4336  0.7135
54437SOL    HW270552   6.607   1.828  10.453  1.0174  0.4324  0.7442
54438SOL     OW70553  12.070   9.019  11.826  0.3384  0.0007 -0.2994
54438SOL    HW170554  11.996   9.073  11.854 -0.2239 -0.4401 -0.9183
54438SOL    HW270555  12.146   9.060  11.868  0.0014  1.5934 -1.1489
54439SOL     OW70556  10.121   6.358  10.912  0.4615 -0.3316  0.6009
54439SOL    HW170557  10.124   6.361  11.008  0.6797 -1.1142  0.6292
54439SOL    HW270558  10.114   6.265  10.892 -2.2482 -0.0765 -0.0717
54440SOL     OW70559   1.154  10.797  11.988 -0.4703 -0.5583  0.8156
54440SOL    HW170560   1.100  10.845  11.925 -0.5625 -2.0374 -0.2757
54440SOL    HW270561   1.109  10.714  12.001  1.2104 -1.6115  0.2861
54441SOL     OW70562  11.198   6.097   8.717  0.2570 -0.1067 -0.5029
54441SOL    HW170563  11.118   6.147   8.731  1.2526  1.2620  0.6266
54441SOL    HW270564  11.248   6.149   8.655  1.2137  0.2347  0.5144
54442SOL     OW70565   5.657   2.458   8.502  0.6449 -0.4017  0.4499
54442SOL    HW170566   5.571   2.497   8.518  0.9179  1.1424 -1.5618
54442SOL    HW270567   5.667   2.394   8.573 -2.7009 -1.5745  0.0416
54443SOL     OW70568   7.567  12.477   3.889 -0.1214  0.4320  1.3144
54443SOL    HW170569   7.571  12.571   3.904  0.9164  1.0546 -2.1155
54443SOL    HW270570   7.656  12.453   3.863 -0.8537 -1.0409  0.0145
54444SOL     OW70571   8.516   3.064   8.613 -0.1197 -0.2491  0.4299
54444SOL    HW170572   8.449   3.033   8.553 -0.6732  0.7340  0.5351
54444SOL    HW270573   8.588   3.092   8.557 -0.3832  0.0766  0.2570
54445SOL     OW70574   0.137  12.025   6.038  0.5648 -0.0701  0.1087
54445SOL    HW170575   0.187  11.943   6.043  0.9967  0.2311  1.0248
54445SOL    HW270576   0.062  12.012   6.096  0.2375 -0.0786 -0.3127
54446SOL     OW70577   3.044   6.659   5.867 -0.4984 -0.1919  0.3417
54446SOL    HW170578   3.116   6.614   5.911  0.3192  0.9611  0.2301
54446SOL    HW270579   2.970   6.647   5.926  0.0847 -0.3686  1.0577
54447SOL     OW70580  10.096   6.171   6.300  0.5302  0.2153 -0.5951
54447SOL    HW170581  10.091   6.256   6.257 -0.5027  0.9964  0.9691
54447SOL    HW270582  10.005   6.146   6.314  0.8276 -0.0903  0.9236
54448SOL     OW70583   5.840   9.722   5.130 -0.4880  0.2394  0.6382
54448SOL    HW170584   5.838   9.717   5.226  0.3812  1.8687  0.7788
54448SOL    HW270585   5.915   9.667   5.105 -1.4321 -1.1599  0.7673
54449SOL     OW70586  11.320   4.352  12.478  0.8033 -0.1113 -0.2821
54449SOL    HW170587  11.344   4.259  12.482  0.1090 -0.3196 -0.8218
54449SOL    HW270588  11.340   4.378  12.388  1.9457  0.5434  0.1356
54450SOL     OW70589   6.512   2.105  10.424  0.0951  0.2156  0.1967
54450SOL    HW170590   6.433   2.117  10.372 -0.2340  0.0516  0.6592
54450SOL    HW270591   6.577   2.162  10.382  0.2519 -0.9831 -1.2792
54451SOL     OW70592  12.581   3.835   0.804 -0.3708  0.3185 -0.2130
54451SOL    HW170593  12.671   3.816   0.830 -0.1945  1.3932 -0.0270
54451SOL    HW270594  12.529   3.770   0.852  0.4240 -1.6494 -1.8758
54452SOL     OW70595   9.780   3.983   6.964  0.3721 -0.0404  0.0777
54452SOL    HW170596   9.784   3.899   7.010  0.6612 -0.3698 -0.5401
54452SOL    HW270597   9.856   4.031   6.996 -0.0800  0.2004  0.8249
54453SOL     OW70598  11.812  10.552   8.473  0.3668 -0.2536 -0.3272
54453SOL    HW170599  11.804  10.635   8.521  0.2858 -1.3709  1.6696
54453SOL    HW270600  11.901  10.554   8.438 -0.2514  1.4992 -2.0279
54454SOL     OW70601   7.188  10.540  11.959  0.4283  0.2445  0.0967
54454SOL    HW170602   7.165  10.620  12.005  0.2558 -0.4453  1.2356
54454SOL    HW270603   7.278  10.521  11.986 -0.3501 -1.2745  1.8504
54455SOL     OW70604   5.220   7.611   2.988  0.0165  0.0048 -0.1518
54455SOL    HW170605   5.286   7.578   2.926 -0.4067 -1.2665  0.0378
54455SOL    HW270606   5.178   7.532   3.021 -0.7505  0.7480  0.6775
54456SOL     OW70607   8.290  12.707  12.071  0.0261  0.4153  0.3491
54456SOL    HW170608   8.286  12.644  11.999  2.2307 -1.4868  1.7411
54456SOL    HW270609   8.255  12.788  12.034  1.8676 -0.1877 -3.1676
54457SOL     OW70610  11.888   9.079  11.162 -0.3613 -0.6784  0.0874
54457SOL    HW170611  11.832   9.144  11.120 -0.9378 -0.0081  1.7886
54457SOL    HW270612  11.832   9.003  11.177 -0.0285 -1.1025 -0.7502
54458SOL     OW70613   1.789   7.368   3.806 -0.0676 -0.5891 -0.3060
54458SOL    HW170614   1.850   7.439   3.829  0.5117 -1.3577  0.5760
54458SOL    HW270615   1.793   7.308   3.880  0.9240 -2.5185 -1.8278
54459SOL     OW70616  11.509   8.988   8.397 -0.4292  0.0443  0.0449
54459SOL    HW170617  11.524   8.989   8.491 -0.1834 -1.1657  0.0306
54459SOL    HW270618  11.588   9.026   8.359 -0.0655 -0.4732  0.2776
54460SOL     OW70619   4.884  11.084  10.118 -0.1745 -0.0577  0.4422
54460SOL    HW170620   4.814  11.070  10.054  0.3735  0.1079 -0.1947
54460SOL    HW270621   4.962  11.049  10.077  0.1677 -0.0511  1.0703
54461SOL     OW70622   0.076   3.697   0.547  0.0537  0.0496 -0.1119
54461SOL    HW170623  -0.008   3.653   0.559 -0.2776  0.7213  0.0507
54461SOL    HW270624   0.104   3.719   0.636  1.5656 -2.2757  0.0768
54462SOL     OW70625   8.820  12.474   0.837  0.5539 -0.4042  0.5233
54462SOL    HW170626   8.823  12.508   0.926 -1.0202  0.5176  0.2761
54462SOL    HW270627   8.886  12.524   0.789  1.0732 -0.5695  1.0644
54463SOL     OW70628   7.390   6.211  12.183 -0.1999 -0.4595 -0.2876
54463SOL    HW170629   7.428   6.127  12.157 -1.7313 -1.1875 -0.3180
54463SOL    HW270630   7.463   6.273  12.179  1.1331 -1.9159  0.4304
54464SOL     OW70631   5.045   6.095   5.251 -0.2804 -0.4519  0.3052
54464SOL    HW170632   4.978   6.147   5.296 -0.1720 -2.3120  2.8419
54464SOL    HW270633   5.126   6.116   5.296  0.2079 -0.9428 -0.3182
54465SOL     OW70634   4.181   1.795  12.598 -0.3474 -0.0359 -0.0233
54465SOL    HW170635   4.104   1.771  12.648 -0.5170 -0.1721 -0.3464
54465SOL    HW270636   4.250   1.804  12.663 -0.7335  0.5066  0.3143
54466SOL     OW70637   8.656  12.003   3.636  0.1935  0.6659  0.0376
54466SOL    HW170638   8.722  12.059   3.596  0.1229  0.6480 -0.1020
54466SOL    HW270639   8.706  11.949   3.698  0.3904  0.2763 -0.4602
54467SOL     OW70640  12.456   7.820   7.928 -0.0261 -0.0438  0.4282
54467SOL    HW170641  12.420   7.793   7.843  0.1145 -0.0010  0.3557
54467SOL    HW270642  12.482   7.738   7.970  1.2032  0.0268 -0.1482
54468SOL     OW70643   3.408   7.940   5.168 -0.4715  0.1460  0.1744
54468SOL    HW170644   3.501   7.920   5.164 -0.3974  0.3601  0.7551
54468SOL    HW270645   3.393   7.998   5.093 -0.0147  0.5975  0.4279
54469SOL     OW70646   1.928   1.846   7.041  0.0543 -0.0846  0.1403
54469SOL    HW170647   1.959   1.936   7.037  0.7601 -0.0595  3.4351
54469SOL    HW270648   1.948   1.810   6.954  0.3991  2.6729 -1.0314
54470SOL     OW70649   6.688   5.664  12.057 -0.2393 -0.4704 -0.2865
54470SOL    HW170650   6.754   5.609  12.014  0.1237 -1.0150  0.9130
54470SOL    HW270651   6.729   5.690  12.140 -0.9076  0.5571 -0.2696
54471SOL     OW70652   8.362  11.149   4.878  0.0496 -0.6861 -0.3822
54471SOL    HW170653   8.360  11.119   4.969  0.1960 -2.9806 -1.0653
54471SOL    HW270654   8.450  11.184   4.866  0.2302 -0.9354  0.1980
54472SOL     OW70655   4.858  10.718   9.808  0.2095 -0.0862 -0.1429
54472SOL    HW170656   4.858  10.681   9.720  0.1931  0.6852 -0.4741
54472SOL    HW270657   4.774  10.765   9.813  0.7085  0.8230 -0.1304
54473SOL     OW70658   6.987   8.761  10.561 -0.1638  0.0210 -0.0718
54473SOL    HW170659   7.056   8.704  10.526  1.4935  1.7368  0.1936
54473SOL    HW270660   7.028   8.803  10.637 -1.3733  1.4041 -0.1488
54474SOL     OW70661   2.299   9.870   8.274 -0.0503 -0.2339 -0.1350
54474SOL    HW170662   2.257   9.852   8.358 -1.3413 -1.4286 -0.9990
54474SOL    HW270663   2.299   9.965   8.268 -0.7797 -0.1545  0.8061
54475SOL     OW70664   6.703   6.550   4.237  0.4761  0.1133  0.0362
54475SOL    HW170665   6.635   6.486   4.259  0.0886  0.6493  0.4304
54475SOL    HW270666   6.696   6.561   4.142  1.4665 -1.4388 -0.2465
54476SOL     OW70667   5.266   6.160   3.965  0.4163  0.2058 -0.5077
54476SOL    HW170668   5.257   6.103   3.888  0.3464  1.0171 -1.1187
54476SOL    HW270669   5.280   6.100   4.038  2.6528 -0.5293 -1.4566
54477SOL     OW70670   4.440  11.603   3.555  0.2231 -0.3178 -0.0490
54477SOL    HW170671   4.378  11.675   3.542  0.5841 -0.2538 -1.7598
54477SOL    HW270672   4.504  11.637   3.617  0.2842  0.8005 -0.6806
54478SOL     OW70673   7.487  10.929   2.439  0.4132 -0.1337  0.2495
54478SOL    HW170674   7.410  10.942   2.383  0.0055  0.1683  0.8675
54478SOL    HW270675   7.561  10.955   2.384  0.0083  0.2698 -0.1164
54479SOL     OW70676   3.711   3.968   8.784  0.0551 -0.4897  0.4362
54479SOL    HW170677   3.691   3.904   8.853 -1.1635 -2.1618 -1.3518
54479SOL    HW270678   3.666   3.934   8.707  2.7894  0.3055 -1.6754
54480SOL     OW70679  12.396   5.067   2.857 -0.2940 -0.4557 -0.6936
54480SOL    HW170680  12.339   5.016   2.799 -1.2096  0.9737 -1.1119
54480SOL    HW270681  12.353   5.060   2.943 -1.1179  0.5794 -0.9984
54481SOL     OW70682   6.551   9.953  11.952  0.0643 -0.7370  0.3572
54481SOL    HW170683   6.523   9.969  11.862  0.1649  1.5738  0.6699
54481SOL    HW270684   6.599   9.870  11.948  1.6355  0.1664 -2.1153
54482SOL     OW70685   2.727  12.650   1.001  0.1229  0.9713 -0.2041
54482SOL    HW170686   2.727  12.559   0.971  0.3319  0.6430  0.7522
54482SOL    HW270687   2.664  12.651   1.073  0.7764  1.3844  0.3716
54483SOL     OW70688   8.004   9.543   6.675  0.2070 -0.1142 -0.1327
54483SOL    HW170689   7.946   9.571   6.745  0.1194  1.2756 -0.7294
54483SOL    HW270690   7.947   9.496   6.614  0.0637 -0.3066  0.1460
54484SOL     OW70691  10.225   8.121   4.151  0.4907 -0.8017  0.2651
54484SOL    HW170692  10.158   8.172   4.196  0.0387 -0.8025 -0.3952
54484SOL    HW270693  10.308   8.158   4.182  0.1771 -0.3265  0.5454
54485SOL     OW70694   3.949   6.394  12.028 -0.2458  0.0474 -0.5895
54485SOL    HW170695   3.886   6.445  12.080  1.6952 -0.7571  2.8497
54485SOL    HW270696   3.982   6.328  12.089  3.3350 -0.0705 -2.4128
54486SOL     OW70697   9.545   2.253   4.795 -0.1662 -0.4771 -0.1944
54486SOL    HW170698   9.622   2.197   4.784  0.1424  0.2145 -1.8872
54486SOL    HW270699   9.471   2.196   4.775 -0.2036 -1.3276  2.0882
54487SOL     OW70700   7.225   9.625   1.719 -0.1273 -0.4089 -0.3788
54487SOL    HW170701   7.133   9.632   1.693  0.1407  0.0829 -1.2637
54487SOL    HW270702   7.225   9.646   1.812 -0.7786  0.7821 -0.6173
54488SOL     OW70703  12.430   8.375   3.115  0.5971  0.6703  0.3935
54488SOL    HW170704  12.512   8.380   3.165  1.5710 -0.5783 -0.9871
54488SOL    HW270705  12.361   8.390   3.181  1.9274  2.9841  1.3643
54489SOL     OW70706  11.256   4.076  10.905  0.0081 -0.1674 -0.0644
54489SOL    HW170707  11.253   4.154  10.960  0.3279 -0.9663  1.1274
54489SOL    HW270708  11.259   4.003  10.967  2.2506 -1.0333 -1.0905
54490SOL     OW70709  11.521   7.749   0.676  0.5791 -0.2849  0.2268
54490SOL    HW170710  11.537   7.680   0.612  1.6918 -1.2575  1.4743
54490SOL    HW270711  11.462   7.709   0.740 -0.5446  0.6780 -0.1969
54491SOL     OW70712   8.046  11.521   0.908 -0.0799 -0.6218 -0.5263
54491SOL    HW170713   8.038  11.524   1.003 -2.6131  0.3740 -0.6877
54491SOL    HW270714   8.025  11.610   0.879  1.1792 -0.7592 -2.0285
54492SOL     OW70715   7.968  11.956   6.315 -0.3533 -0.2723 -0.0794
54492SOL    HW170716   8.025  11.982   6.387 -2.2411 -0.9388  1.7387
54492SOL    HW270717   7.894  12.017   6.319 -2.0994 -2.3199  0.7108
54493SOL     OW70718   6.878   0.796  10.402  0.1791  0.6409 -0.4756
54493SOL    HW170719   6.882   0.761  10.313 -1.4358 -1.3682  0.1550
54493SOL    HW270720   6.922   0.730  10.456 -0.6593  0.8219  0.4523
54494SOL     OW70721   0.684   0.691   5.413 -0.2969  0.1198  0.4688
54494SOL    HW170722   0.740   0.629   5.368  0.1906  0.5171  0.5168
54494SOL    HW270723   0.670   0.761   5.350 -1.9505 -0.6512 -0.0734
54495SOL     OW70724   5.561  10.200   0.715 -0.0099 -1.1306 -0.2288
54495SOL    HW170725   5.619  10.182   0.789 -0.4331 -0.2319  0.3322
54495SOL    HW270726   5.610  10.169   0.638  2.0890  1.2844 -0.0095
54496SOL     OW70727   2.423   6.685   4.983  0.4238 -0.2099 -0.4913
54496SOL    HW170728   2.396   6.650   4.898  0.7533 -0.9444 -0.3015
54496SOL    HW270729   2.422   6.780   4.972 -0.8933 -0.2496 -0.8977
54497SOL     OW70730  10.122   3.935   8.979 -0.0196 -0.2297 -0.3038
54497SOL    HW170731  10.150   3.930   9.071  1.2279  0.1672 -0.6504
54497SOL    HW270732  10.196   3.901   8.929 -0.7229 -0.5266 -1.1697
54498SOL     OW70733   9.044  11.739   0.314  0.1737  1.0417 -0.1783
54498SOL    HW170734   9.070  11.784   0.394 -1.2494 -0.6535  1.3162
54498SOL    HW270735   8.988  11.802   0.268  1.3495  2.1901 -0.1156
54499SOL     OW70736   3.786   7.242   0.867 -0.1700 -0.4567  0.2588
54499SOL    HW170737   3.844   7.307   0.829  0.7497 -1.8804 -0.9152
54499SOL    HW270738   3.787   7.260   0.961  0.0675  1.1665 -0.0308
54500SOL     OW70739   9.176   5.710   3.656 -0.5656  0.4371 -0.1090
54500SOL    HW170740   9.149   5.654   3.583 -2.6024  0.6649  0.4008
54500SOL    HW270741   9.111   5.693   3.724  0.3129  1.4788  1.0317
54501SOL     OW70742   7.635   3.375   3.287 -0.2878  0.0812  0.2556
54501SOL    HW170743   7.659   3.335   3.371  0.3971 -0.2748 -0.1043
54501SOL    HW270744   7.617   3.467   3.308  1.5625  0.4061  0.5139
54502SOL     OW70745   7.953   9.948   3.086 -0.1091  0.1695 -0.1515
54502SOL    HW170746   7.865   9.951   3.048 -0.1138  2.6566 -0.0556
54502SOL    HW270747   8.010   9.926   3.012 -0.3228  3.2336 -1.3479
54503SOL     OW70748   6.688  12.412   0.375  0.3846  0.1191  0.0494
54503SOL    HW170749   6.689  12.507   0.375 -0.4328  0.1518 -1.5131
54503SOL    HW270750   6.765  12.387   0.428  0.7805  1.6210  0.2225
54504SOL     OW70751   1.438   4.426   7.017  0.3847 -0.0104  0.3170
54504SOL    HW170752   1.356   4.476   7.016 -0.3985 -1.0738  3.0706
54504SOL    HW270753   1.411   4.335   7.026  1.8728 -0.6231 -0.9419
54505SOL     OW70754  11.631   6.251   4.987  0.0857 -0.5144 -0.0610
54505SOL    HW170755  11.536   6.260   4.992 -0.1745 -2.8283  0.1464
54505SOL    HW270756  11.648   6.227   4.896  0.6176  1.0202 -0.3884
54506SOL     OW70757   9.497   4.008  10.084  0.0118  0.5422 -0.2414
54506SOL    HW170758   9.540   3.943  10.029  0.8874  0.4788  0.4928
54506SOL    HW270759   9.486   3.965  10.169 -1.4005  0.6070 -0.3677
54507SOL     OW70760   9.373  11.588   3.109  0.3533  0.0685  0.1009
54507SOL    HW170761   9.288  11.629   3.126 -0.3705 -0.9103 -0.9934
54507SOL    HW270762   9.420  11.594   3.193 -0.0607  2.2615  0.2228
54508SOL     OW70763   4.393   4.385  11.167 -0.1846  0.0730  0.1596
54508SOL    HW170764   4.327   4.454  11.176 -0.4549 -0.2908  1.1198
54508SOL    HW270765   4.461   4.424  11.113 -1.0361  0.5656 -0.5809
54509SOL     OW70766  11.029   5.494  10.186  0.1606  0.0605 -0.0085
54509SOL    HW170767  11.073   5.429  10.241 -0.0274  0.3617  0.5022
54509SOL    HW270768  11.056   5.578  10.222  1.5088  0.3234 -1.5266
54510SOL     OW70769   2.093  10.403   9.586 -0.2747 -0.4260  0.4279
54510SOL    HW170770   2.033  10.404   9.512 -0.9481 -1.4890  0.9379
54510SOL    HW270771   2.037  10.389   9.663  0.6919 -2.8459  0.7895
54511SOL     OW70772   1.115   8.197   9.694  0.2267  0.5864  0.2000
54511SOL    HW170773   1.139   8.104   9.690  0.5772  0.6431  0.8455
54511SOL    HW270774   1.166   8.231   9.767  1.1295  1.5981 -0.8616
54512SOL     OW70775   2.579  11.556  10.307  0.2917  0.0454  0.3344
54512SOL    HW170776   2.495  11.530  10.345  0.2778 -0.7034 -0.1887
54512SOL    HW270777   2.556  11.605  10.228  0.3252  1.3933  1.1375
54513SOL     OW70778   7.918   9.133   3.338  0.0833  0.1500  0.3939
54513SOL    HW170779   7.838   9.184   3.345  1.0162  1.8702 -0.7631
54513SOL    HW270780   7.941   9.136   3.245  1.0424 -1.0279  0.5635
54514SOL     OW70781   9.769   0.915   2.661 -0.1202  0.3708 -0.3405
54514SOL    HW170782   9.736   1.004   2.646 -0.7210  0.2062 -0.0342
54514SOL    HW270783   9.864   0.926   2.670 -0.1601  0.9413 -0.5875
54515SOL     OW70784   4.285   1.530  10.347  0.5690  0.4058  0.2268
54515SOL    HW170785   4.223   1.536  10.274  1.8184  2.8927 -0.7471
54515SOL    HW270786   4.294   1.436  10.362 -1.9933 -0.1045 -0.8061
54516SOL     OW70787   5.161   1.293  11.324 -0.0615  0.0100  0.0895
54516SOL    HW170788   5.204   1.241  11.257 -0.6842 -1.5027  0.8304
54516SOL    HW270789   5.127   1.369  11.277 -0.1312 -0.8073 -1.2287
54517SOL     OW70790   3.002   8.038   5.929 -0.4287  0.2321 -0.3083
54517SOL    HW170791   2.992   7.944   5.947  0.5239  0.0413 -0.7316
54517SOL    HW270792   3.081   8.063   5.975  0.1148  0.5046 -1.3619
54518SOL     OW70793   8.126  10.748   9.576  0.1296  0.1072 -0.0706
54518SOL    HW170794   8.212  10.786   9.558 -0.5725  1.5097 -0.5603
54518SOL    HW270795   8.143  10.681   9.643  1.6680 -0.0076 -0.5502
54519SOL     OW70796   2.491   6.836   1.434 -0.0279  0.0423 -0.0911
54519SOL    HW170797   2.575   6.792   1.425  0.5427  1.2426 -0.8560
54519SOL    HW270798   2.454   6.837   1.345 -0.7647 -0.2789  0.1970
54520SOL     OW70799  10.209   2.707   2.732  0.4105  0.1467  0.9784
54520SOL    HW170800  10.161   2.781   2.694  0.7303  0.3683  0.9989
54520SOL    HW270801  10.182   2.631   2.681  1.3824  0.5499 -0.1709
54521SOL     OW70802   2.256   4.269   0.054 -0.2402 -0.1689 -0.2784
54521SOL    HW170803   2.313   4.215  -0.001 -0.3143 -0.9829  0.4172
54521SOL    HW270804   2.215   4.331  -0.006 -0.1110 -0.8603 -1.0900
54522SOL     OW70805   5.591   8.425   9.748  0.1277  0.3714  0.0053
54522SOL    HW170806   5.675   8.428   9.703 -0.4651 -1.0177 -1.2809
54522SOL    HW270807   5.539   8.494   9.707 -0.1418 -0.3596 -0.9162
54523SOL     OW70808   0.831   3.059   9.694 -0.6137  0.2816 -0.1815
54523SOL    HW170809   0.765   2.992   9.676 -1.5966  0.0211  3.5554
54523SOL    HW270810   0.907   3.031   9.643 -1.5473 -2.7049 -0.1703
54524SOL     OW70811   2.935   4.441   5.871 -0.2905  0.3902  0.1987
54524SOL    HW170812   3.029   4.424   5.879 -0.4190 -0.3002  0.2953
54524SOL    HW270813   2.906   4.382   5.801 -0.9974 -0.8136  1.4515
54525SOL     OW70814   4.734   8.961   1.787  0.2116 -0.3741  0.0969
54525SOL    HW170815   4.725   8.926   1.698  0.7751  2.0872 -1.0240
54525SOL    HW270816   4.807   8.912   1.825 -0.3220 -1.7679 -0.6029
54526SOL     OW70817   9.865   0.608   2.960 -0.4190 -0.7807  0.4581
54526SOL    HW170818   9.919   0.604   2.881 -2.4583 -1.2557 -1.0055
54526SOL    HW270819   9.923   0.643   3.027  1.2932  0.0696 -1.3579
54527SOL     OW70820   8.959   3.704   1.144 -0.3213 -0.1123 -0.0925
54527SOL    HW170821   8.877   3.744   1.115  0.9439  0.9251 -2.4330
54527SOL    HW270822   8.985   3.646   1.073  2.2956  1.5956 -0.6393
54528SOL     OW70823   3.066  10.131  11.592  0.0005 -0.0449  0.2735
54528SOL    HW170824   3.159  10.128  11.571 -0.2773 -1.4393 -0.8925
54528SOL    HW270825   3.029  10.054  11.549 -1.2969 -0.9045  2.7492
54529SOL     OW70826   4.296   0.859  10.140 -0.0421  0.2970 -0.5958
54529SOL    HW170827   4.352   0.936  10.155  1.0735 -0.5479 -0.2959
54529SOL    HW270828   4.244   0.851  10.220 -0.8186  1.2621 -0.9919
54530SOL     OW70829   2.935   1.289   5.409 -0.2673  0.4531  0.1933
54530SOL    HW170830   2.874   1.343   5.358 -0.6985  0.0300  0.2513
54530SOL    HW270831   2.901   1.292   5.498  0.0034  0.5032  0.2961
54531SOL     OW70832   9.118  10.233   8.400  0.2557 -0.0999 -0.2364
54531SOL    HW170833   9.213  10.227   8.399  0.2124 -1.4335  0.5705
54531SOL    HW270834   9.089  10.173   8.331 -0.0036 -0.2660  0.0121
54532SOL     OW70835   4.850   1.361   6.039  0.4228  0.2568 -0.4146
54532SOL    HW170836   4.871   1.394   5.952  0.5680  0.4320 -0.3142
54532SOL    HW270837   4.906   1.412   6.098  1.0285 -0.5045 -0.2987
54533SOL     OW70838   6.289   3.445   4.673  0.6586  0.9028  0.3627
54533SOL    HW170839   6.311   3.364   4.627  0.1310  0.9131  0.0833
54533SOL    HW270840   6.274   3.509   4.603 -1.3500  0.6156  0.4652
54534SOL     OW70841   8.126   9.466   4.826 -0.1202  0.1605  0.1138
54534SOL    HW170842   8.155   9.537   4.769 -0.2011 -0.1413 -0.3155
54534SOL    HW270843   8.031   9.476   4.831  0.0683  1.4081  1.8712
54535SOL     OW70844   8.079   8.877   7.478  0.1219 -0.2433 -0.2028
54535SOL    HW170845   8.135   8.821   7.425  1.0345  1.3720 -1.0066
54535SOL    HW270846   8.053   8.822   7.552  1.9306 -1.3446 -0.3428
54536SOL     OW70847   4.791   9.973  12.542  0.0897  0.0357 -0.1518
54536SOL    HW170848   4.835   9.985  12.626 -0.0456  0.9475 -0.2053
54536SOL    HW270849   4.855   9.925  12.489  1.0578  1.3495 -0.2332
54537SOL     OW70850   3.262   0.508   7.882  0.3836  0.0318 -0.0682
54537SOL    HW170851   3.206   0.565   7.935 -0.0214 -0.4220 -0.0033
54537SOL    HW270852   3.244   0.533   7.792  0.5454  0.3201 -0.0202
54538SOL     OW70853   3.461   4.910   1.712 -0.2172  0.0296  0.3225
54538SOL    HW170854   3.423   4.983   1.664 -0.3995 -0.1337  0.2137
54538SOL    HW270855   3.396   4.840   1.704  0.7573 -0.7575 -1.1890
54539SOL     OW70856  11.808  11.812  11.339 -0.1136  0.7300  0.0998
54539SOL    HW170857  11.772  11.834  11.253 -0.9582  2.4042  0.8391
54539SOL    HW270858  11.765  11.730  11.363 -1.3725  1.2654 -0.2489
54540SOL     OW70859   6.872   8.923   5.045 -0.7489 -0.5198 -0.6736
54540SOL    HW170860   6.823   8.992   5.001  1.9656  2.3064  0.3545
54540SOL    HW270861   6.819   8.899   5.121 -1.0624  1.7389 -0.1099
54541SOL     OW70862   2.308   3.038  12.034  0.7425  0.3401 -0.0194
54541SOL    HW170863   2.307   2.959  12.087  1.7074  0.1851 -0.2220
54541SOL    HW270864   2.222   3.078  12.048  1.2554  0.7403  2.3127
54542SOL     OW70865   7.114   5.324   0.841  0.3865 -0.5703  0.1170
54542SOL    HW170866   7.147   5.411   0.817  1.3007 -0.7093  0.7977
54542SOL    HW270867   7.147   5.266   0.773  1.4071 -0.6762  0.6880
54543SOL     OW70868   6.112   9.961   3.641  0.5486 -0.2777 -0.1239
54543SOL    HW170869   6.029   9.913   3.647 -0.8837  2.1446  0.9682
54543SOL    HW270870   6.141   9.971   3.731 -0.0465  2.1627 -0.1247
54544SOL     OW70871   0.495   9.885   3.047 -0.2062 -0.4686 -0.3499
54544SOL    HW170872   0.560   9.920   3.108  0.3905 -0.7832 -0.8014
54544SOL    HW270873   0.490   9.950   2.977 -1.8847  0.5816  0.6535
54545SOL     OW70874   5.485   8.141  10.445 -0.0268 -0.0010  0.1768
54545SOL    HW170875   5.525   8.186  10.519 -1.4071  0.4514  0.6883
54545SOL    HW270876   5.407   8.194  10.425 -0.3995 -0.8620 -0.7312
54546SOL     OW70877   3.973   6.274   8.558 -0.3037 -0.2324  0.5029
54546SOL    HW170878   3.885   6.240   8.574 -0.6875  1.7389  3.4093
54546SOL    HW270879   4.029   6.225   8.619  0.9349 -2.2160 -2.0459
54547SOL     OW70880   4.376  11.007   3.419 -0.1681  0.4424  0.4158
54547SOL    HW170881   4.383  10.940   3.352  0.8114 -0.1054  1.0511
54547SOL    HW270882   4.345  11.085   3.372 -1.7438 -0.5407 -0.2514
54548SOL     OW70883  11.868  12.469   5.673  0.6656  0.5540  0.0230
54548SOL    HW170884  11.911  12.454   5.589 -1.2232 -1.3696 -0.6974
54548SOL    HW270885  11.906  12.404   5.732  0.1455  0.1451 -0.0853
54549SOL     OW70886   5.014   8.446   7.103  0.1259 -0.3414 -0.0158
54549SOL    HW170887   4.973   8.430   7.018 -1.1232  0.8445  0.3119
54549SOL    HW270888   4.944   8.428   7.166  0.7754 -0.3802  0.7047
54550SOL     OW70889  12.586   2.071   5.195  0.0106  0.6921 -0.2247
54550SOL    HW170890  12.553   2.057   5.106  0.3216 -2.1388  0.0154
54550SOL    HW270891  12.548   1.999   5.245  2.1922  0.5156  1.2729
54551SOL     OW70892   2.702   3.545   0.154  0.1198  0.1615 -0.3545
54551SOL    HW170893   2.634   3.483   0.127 -0.5855  1.0048 -0.5492
54551SOL    HW270894   2.730   3.586   0.072  0.9604 -0.2689 -0.2904
54552SOL     OW70895   1.272   1.158   4.279 -0.0113  0.5214  0.2190
54552SOL    HW170896   1.351   1.181   4.327 -0.0354  0.0587  0.4843
54552SOL    HW270897   1.256   1.234   4.222 -1.0322  1.9054  2.2426
54553SOL     OW70898   2.813  10.915   7.409 -0.5915  0.3522  0.1228
54553SOL    HW170899   2.882  10.851   7.395 -0.0720  1.2771 -1.9483
54553SOL    HW270900   2.821  10.940   7.501 -2.1325 -3.9517  1.6882
54554SOL     OW70901   5.481   6.875   0.417 -0.3409 -0.3921  0.0452
54554SOL    HW170902   5.475   6.964   0.382 -1.3368 -0.4932 -0.0656
54554SOL    HW270903   5.396   6.860   0.458  0.2041 -0.9020  1.0327
54555SOL     OW70904   1.276  12.332   1.484  0.1658  0.3047  0.2531
54555SOL    HW170905   1.216  12.325   1.410 -0.2023 -0.8794  0.6425
54555SOL    HW270906   1.253  12.415   1.525  0.1256  0.8026 -0.7357
54556SOL     OW70907   1.814   9.451   7.905 -0.7090  0.4565 -0.0376
54556SOL    HW170908   1.740   9.496   7.863 -0.4778  0.4842 -0.4189
54556SOL    HW270909   1.774   9.379   7.953 -1.1202  1.2007  0.7834
54557SOL     OW70910   3.914   0.308   1.902  0.2851  0.0745  0.0867
54557SOL    HW170911   3.901   0.402   1.914  1.1018  0.2334 -0.1776
54557SOL    HW270912   3.835   0.268   1.937 -0.1622  0.8720  0.0172
54558SOL     OW70913   2.085   5.860   1.780  0.4257  0.3020 -0.0372
54558SOL    HW170914   2.095   5.877   1.873  0.5998  1.6564 -0.2756
54558SOL    HW270915   2.058   5.944   1.743  0.5737 -0.1551 -1.2378
54559SOL     OW70916   2.621   0.301   5.386 -0.6449  0.2867  0.5839
54559SOL    HW170917   2.697   0.271   5.436 -2.1057 -1.7100  1.7450
54559SOL    HW270918   2.641   0.393   5.365  2.5086 -0.4478 -0.0831
54560SOL     OW70919   5.055   5.906   1.478 -0.2052 -0.4891 -0.1713
54560SOL    HW170920   5.089   5.875   1.394 -1.4864 -0.5437 -0.6824
54560SOL    HW270921   5.015   5.829   1.518  0.8080 -0.5741  0.7202
54561SOL     OW70922   1.828  12.545   1.305  0.4890 -0.0057 -0.1260
54561SOL    HW170923   1.743  12.574   1.340  0.9785  0.6023  0.5976
54561SOL    HW270924   1.872  12.627   1.281  1.1534 -0.2693  0.1840
54562SOL     OW70925   4.860   8.078   0.515  0.1744  0.0077  0.2616
54562SOL    HW170926   4.947   8.054   0.482 -0.0230  0.5626 -0.6918
54562SOL    HW270927   4.834   8.153   0.462 -1.1726 -0.5489  0.1087
54563SOL     OW70928   9.957   5.858   1.040 -0.3072 -0.4654 -0.6012
54563SOL    HW170929   9.933   5.876   0.949 -0.0254  1.8622 -0.2895
54563SOL    HW270930   9.909   5.779   1.063 -1.7018 -0.1533 -2.2698
54564SOL     OW70931   9.609   8.267   5.844 -0.0070  0.3442 -0.0123
54564SOL    HW170932   9.682   8.220   5.803 -0.1630  1.5417 -1.8088
54564SOL    HW270933   9.533   8.243   5.790 -0.3626  1.4342 -0.0032
54565SOL     OW70934   4.499  12.165  11.965 -0.3068  0.0966 -0.1901
54565SOL    HW170935   4.458  12.190  11.881  0.1657  0.6487 -0.2694
54565SOL    HW270936   4.510  12.249  12.011  2.1787  0.2092 -0.8438
54566SOL     OW70937   6.250   5.603   6.723  0.7064  0.5660 -0.4466
54566SOL    HW170938   6.194   5.621   6.647  0.1847 -1.0571 -0.4876
54566SOL    HW270939   6.231   5.673   6.785 -1.2647  0.1625 -0.5396
54567SOL     OW70940   9.513   5.189  10.564  0.3376  0.2340 -0.3636
54567SOL    HW170941   9.518   5.094  10.555  0.5433  0.0670  1.1794
54567SOL    HW270942   9.596   5.213  10.606 -0.9917  0.6346  2.2768
54568SOL     OW70943   0.597   0.504   8.399 -0.4997  0.7956  0.6727
54568SOL    HW170944   0.599   0.408   8.405  1.2268  0.3840 -3.5337
54568SOL    HW270945   0.684   0.532   8.427 -0.8645  1.1429  1.4958
54569SOL     OW70946   3.976  10.430  10.562 -0.4079 -0.1963  0.3133
54569SOL    HW170947   3.984  10.524  10.576 -0.5378 -0.0998 -0.2418
54569SOL    HW270948   4.039  10.391  10.623 -0.1017  0.2660  0.2990
54570SOL     OW70949  12.217   9.020   4.984  0.1926  0.3087  0.0221
54570SOL    HW170950  12.170   9.082   4.928 -0.2253 -0.2773 -0.2840
54570SOL    HW270951  12.304   9.060   4.996  0.1682  0.6093 -0.7480
54571SOL     OW70952   1.480   8.717   0.018  0.2401  0.5368 -0.2786
54571SOL    HW170953   1.527   8.659   0.078 -1.1853 -2.5529 -1.9502
54571SOL    HW270954   1.549   8.761  -0.032  1.4404 -2.1714 -1.1496
54572SOL     OW70955   2.459  10.000   0.088 -0.2321 -0.3495  0.1250
54572SOL    HW170956   2.480   9.923   0.140 -0.5139 -0.1840  0.4909
54572SOL    HW270957   2.369   9.985   0.058 -1.0747  0.7598  1.9352
54573SOL     OW70958   2.231   5.906   7.351 -0.1564 -0.1414 -0.4813
54573SOL    HW170959   2.160   5.971   7.352 -1.4552 -1.4729  0.9464
54573SOL    HW270960   2.207   5.845   7.281 -0.7390 -0.8694  0.3269
54574SOL     OW70961   6.987   0.277   6.485  0.9063 -0.0426  0.2670
54574SOL    HW170962   6.913   0.216   6.479 -0.2935  0.9285  3.3046
54574SOL    HW270963   6.957   0.355   6.439  0.2517  0.1025  0.9092
54575SOL     OW70964  10.679   0.510   4.414  0.3600 -0.1312 -0.4525
54575SOL    HW170965  10.676   0.513   4.319 -0.1050  1.0060 -0.4269
54575SOL    HW270966  10.599   0.556   4.442 -0.4518 -2.0026  0.4967
54576SOL     OW70967   5.064   9.799   3.881  0.3077 -0.2495 -0.7838
54576SOL    HW170968   5.071   9.768   3.971 -0.1389 -1.4082 -1.1350
54576SOL    HW270969   5.002   9.872   3.885 -0.8577 -1.2331 -0.3678
54577SOL     OW70970   2.997  10.443   7.954  0.0083  0.2915  0.4055
54577SOL    HW170971   3.085  10.431   7.989  0.2308  0.1742 -0.1738
54577SOL    HW270972   2.950  10.492   8.021  0.9854  1.7529  0.0578
54578SOL     OW70973  12.507   4.656   8.617  0.3649  0.3285 -0.1493
54578SOL    HW170974  12.495   4.569   8.578  0.3096  0.9974 -1.6887
54578SOL    HW270975  12.534   4.712   8.544 -0.2416  1.7603  0.6720
54579SOL     OW70976   1.528   7.222   0.417  0.1415 -0.5088  0.1758
54579SOL    HW170977   1.467   7.294   0.402  0.1899 -0.3219  0.8222
54579SOL    HW270978   1.503   7.188   0.503  0.8779 -0.4918  0.4054
54580SOL     OW70979   8.080   1.872   1.651 -0.5378 -0.6777 -0.2090
54580SOL    HW170980   8.013   1.938   1.634  2.4298  2.6579 -0.2009
54580SOL    HW270981   8.055   1.831   1.734 -2.9972 -0.3153 -0.7209
54581SOL     OW70982   1.069  12.628   3.701  0.2798 -0.2889 -0.1120
54581SOL    HW170983   0.979  12.650   3.678  0.8032  1.2217 -0.9041
54581SOL    HW270984   1.092  12.557   3.641 -0.1221 -0.0836 -0.5206
54582SOL     OW70985   0.249   1.343   8.094 -0.3416 -0.1716 -0.2361
54582SOL    HW170986   0.195   1.420   8.078  1.7688  0.9884 -2.3695
54582SOL    HW270987   0.291   1.325   8.010 -1.6572 -4.4857 -0.2373
54583SOL     OW70988  11.005   4.293  10.255  0.3656  0.0643  0.3238
54583SOL    HW170989  10.951   4.220  10.228  1.8372 -0.7066 -0.6740
54583SOL    HW270990  10.984   4.306  10.348  0.1123 -1.6497  0.5272
54584SOL     OW70991   0.437   4.812   4.630 -0.4437 -0.1793  0.0867
54584SOL    HW170992   0.508   4.876   4.626  0.8707 -1.5480  0.5775
54584SOL    HW270993   0.395   4.817   4.545  0.6419  0.2252 -0.4463
54585SOL     OW70994   4.680   5.561   0.503  0.1477 -0.1727  0.3061
54585SOL    HW170995   4.675   5.525   0.592  0.2257 -1.1663 -0.0768
54585SOL    HW270996   4.611   5.515   0.455 -0.6723  1.1954  0.1212
54586SOL     OW70997   9.068   9.555   3.879 -0.6027 -0.1476  0.7955
54586SOL    HW170998   9.095   9.476   3.833  1.8121  0.1752  1.4892
54586SOL    HW270999   8.997   9.527   3.936 -1.0899 -1.3578 -0.3676
54587SOL     OW71000   5.726   6.657   0.664  0.0734 -0.6121  0.0639
54587SOL    HW171001   5.631   6.643   0.673  0.1488 -1.8292 -0.7869
54587SOL    HW271002   5.763   6.619   0.744 -0.1323 -0.3920  0.2655
54588SOL     OW71003  10.986   6.575   0.308  0.5434  0.4828 -0.1726
54588SOL    HW171004  10.995   6.602   0.399 -2.5494  1.5118 -0.0740
54588SOL    HW271005  10.975   6.656   0.259 -0.6138 -0.1658 -1.0497
54589SOL     OW71006   8.379   4.002   7.284 -0.4603 -0.5195 -0.1217
54589SOL    HW171007   8.413   3.916   7.310  0.5344 -0.4476 -1.1111
54589SOL    HW271008   8.361   4.046   7.367  0.6679 -1.0532  0.4275
54590SOL     OW71009   2.890   1.757  11.857 -0.4000  0.0471 -0.3184
54590SOL    HW171010   2.897   1.663  11.840 -2.5443 -0.1790 -0.2364
54590SOL    HW271011   2.884   1.763  11.952  0.9136  0.3914 -0.2439
54591SOL     OW71012   1.802  12.579   4.719  0.2395 -0.0312  0.0982
54591SOL    HW171013   1.722  12.629   4.734 -0.3790 -0.9070 -0.2156
54591SOL    HW271014   1.870  12.645   4.705 -0.6460  0.7135 -0.7520
54592SOL     OW71015   1.066  10.676   5.565  0.1016 -0.4803 -0.4287
54592SOL    HW171016   1.089  10.746   5.625  0.8038 -1.7253  0.8318
54592SOL    HW271017   1.041  10.720   5.484 -2.6248  1.3795  1.2541
54593SOL     OW71018   8.182  11.743   4.020 -0.0576  0.8056  0.1432
54593SOL    HW171019   8.189  11.774   4.111 -0.5999  1.3365  0.0077
54593SOL    HW271020   8.240  11.800   3.970 -1.1974  1.7458 -0.1360
54594SOL     OW71021   5.057  10.173   4.776 -0.4489 -0.1116  0.5918
54594SOL    HW171022   5.093  10.088   4.751 -1.1050 -0.9061  2.2051
54594SOL    HW271023   5.114  10.204   4.846 -1.0140  0.1152  0.9600
54595SOL     OW71024   4.736  11.458  10.123 -0.5867 -0.1381 -1.0143
54595SOL    HW171025   4.731  11.552  10.106  0.3650  0.2832  0.7211
54595SOL    HW271026   4.685  11.418  10.053  2.2667  1.3481 -4.2184
54596SOL     OW71027   8.721   0.162   6.784 -0.4154 -0.3118  0.7054
54596SOL    HW171028   8.721   0.247   6.739 -0.7735 -0.4823  0.3765
54596SOL    HW271029   8.659   0.109   6.734 -0.5395 -0.6228  1.1875
54597SOL     OW71030   9.014   0.609  11.704 -0.1796 -0.4096 -0.2797
54597SOL    HW171031   9.040   0.517  11.696 -0.3988 -0.3987 -1.2535
54597SOL    HW271032   8.923   0.606  11.733 -1.2079 -0.6063 -3.1891
54598SOL     OW71033   1.805   2.707   4.906  0.0270 -0.1851  0.1524
54598SOL    HW171034   1.742   2.667   4.965 -1.2338  1.1925 -0.1926
54598SOL    HW271035   1.884   2.717   4.959 -1.0390  0.9297  1.6236
54599SOL     OW71036   8.675   5.265   2.996 -0.1357 -0.5595 -0.0997
54599SOL    HW171037   8.653   5.350   3.033  0.9774 -0.1262 -0.3950
54599SOL    HW271038   8.673   5.205   3.071  0.1529 -0.0681  0.3048
54600SOL     OW71039   9.138   7.774  11.156  0.2572 -0.0226 -0.3452
54600SOL    HW171040   9.188   7.763  11.075 -1.3860 -1.2156 -1.2386
54600SOL    HW271041   9.077   7.845  11.136  0.9288  0.8001  0.4368
54601SOL     OW71042   0.203   6.141  10.088  0.0932  0.0059  0.2365
54601SOL    HW171043   0.123   6.185  10.058  0.6144  0.5673 -0.3595
54601SOL    HW271044   0.257   6.212  10.123  0.0190 -0.4752  1.3500
54602SOL     OW71045  10.322  10.670   8.206 -0.4940  0.0009 -0.5358
54602SOL    HW171046  10.375  10.729   8.259 -1.3092  0.0429  0.2657
54602SOL    HW271047  10.265  10.728   8.156  0.1893 -0.0439 -1.3807
54603SOL     OW71048   9.739   3.369   5.632  0.0620  0.0604  0.2515
54603SOL    HW171049   9.737   3.454   5.588  0.4838  0.5871  1.2112
54603SOL    HW271050   9.815   3.374   5.689 -0.7366 -0.4068  1.3895
54604SOL     OW71051   1.094   6.091  12.505  0.1241  0.4327  0.5581
54604SOL    HW171052   1.184   6.107  12.476  0.6674 -0.3687  1.7384
54604SOL    HW271053   1.074   6.002  12.477 -0.3292  0.6289  0.2453
54605SOL     OW71054   1.945   6.598   1.350 -0.3702 -0.1574  0.0890
54605SOL    HW171055   1.963   6.690   1.369  1.2913 -0.6491  1.1785
54605SOL    HW271056   1.900   6.599   1.266 -1.0769  1.6868  0.4380
54606SOL     OW71057  11.995   5.037   7.298 -0.0758  0.4304  0.4936
54606SOL    HW171058  11.908   5.028   7.337 -0.2585 -0.8174 -0.1608
54606SOL    HW271059  11.980   5.079   7.213  0.0277  0.6932  0.6030
54607SOL     OW71060   1.134  11.950  10.321  0.0430 -0.2222 -0.0029
54607SOL    HW171061   1.191  12.011  10.275  2.6659 -2.1109  0.5156
54607SOL    HW271062   1.101  12.000  10.396  1.6467  0.7673  0.0976
54608SOL     OW71063   4.045   0.175   7.709 -0.0901  0.5287  0.5621
54608SOL    HW171064   4.102   0.215   7.644 -1.7738 -0.9678 -2.0160
54608SOL    HW271065   4.104   0.126   7.766  1.3810  1.1138 -0.4123
54609SOL     OW71066   2.924  11.611   6.128  0.5894 -0.3741  0.0353
54609SOL    HW171067   3.011  11.585   6.160  1.8079  0.3254 -2.4366
54609SOL    HW271068   2.901  11.687   6.182  0.6182 -1.6569  1.9587
54610SOL     OW71069   7.362  11.342  11.639 -0.4678 -0.4710  0.7296
54610SOL    HW171070   7.380  11.277  11.571 -1.1723 -1.3535  1.3460
54610SOL    HW271071   7.421  11.318  11.711 -0.6716 -0.3854  0.9283
54611SOL     OW71072   3.400   0.598   3.350  0.0584 -0.1266  0.0865
54611SOL    HW171073   3.493   0.601   3.373 -0.3575  0.8173  1.8152
54611SOL    HW271074   3.360   0.667   3.402 -1.8836 -1.5750  0.6410
54612SOL     OW71075   7.244   8.477   6.823  0.0910  0.1017  0.2954
54612SOL    HW171076   7.191   8.454   6.747  0.7481  2.0167 -0.8269
54612SOL    HW271077   7.276   8.566   6.804  3.4587 -0.8023  0.9848
54613SOL     OW71078   9.534   1.074   5.557 -0.0949  0.1818  0.1775
54613SOL    HW171079   9.578   0.990   5.546  0.5178  0.4697  0.3645
54613SOL    HW271080   9.484   1.064   5.638 -0.2879 -0.1135  0.0217
54614SOL     OW71081   2.797   9.308  10.708  0.0587  0.3594 -0.8731
54614SOL    HW171082   2.763   9.237  10.653 -0.4007  0.4830 -0.7556
54614SOL    HW271083   2.805   9.383  10.649 -0.6103  0.5450 -0.7426
54615SOL     OW71084   0.614  11.010   4.092 -0.0707 -0.1510  0.2152
54615SOL    HW171085   0.690  11.043   4.045 -1.2901  1.4866 -0.7383
54615SOL    HW271086   0.645  10.995   4.182  1.2874  0.7542 -0.0786
54616SOL     OW71087   7.707   5.462   4.007 -0.0645  0.1673  0.2072
54616SOL    HW171088   7.791   5.461   3.961  0.2937 -0.5817  0.8514
54616SOL    HW271089   7.657   5.391   3.967  1.1130 -2.0920  2.4466
54617SOL     OW71090   3.560   4.936  12.255 -0.2343  0.4549 -0.0198
54617SOL    HW171091   3.638   4.944  12.310  0.3975 -1.4743 -0.5500
54617SOL    HW271092   3.528   4.847  12.272 -0.1913 -0.1147 -2.4730
54618SOL     OW71093   6.256   9.894  11.236 -0.2452 -0.2561  0.5907
54618SOL    HW171094   6.262   9.808  11.195  2.4920  0.3540 -0.5385
54618SOL    HW271095   6.243   9.954  11.163 -0.8783  0.3957  1.2287
54619SOL     OW71096  12.581   0.539   6.877  0.3231  0.4194  0.1656
54619SOL    HW171097  12.597   0.518   6.785 -1.1739  0.8076 -0.2080
54619SOL    HW271098  12.507   0.484   6.902  0.1662  0.9474  0.8969
54620SOL     OW71099   6.088   8.540   2.023  0.2534  0.3710 -0.2250
54620SOL    HW171100   6.054   8.516   1.938  0.5051  1.3599 -0.6241
54620SOL    HW271101   6.105   8.634   2.017  0.2859  0.4612  0.9087
54621SOL     OW71102   0.594   1.494   1.838  0.5245  0.3774 -0.4283
54621SOL    HW171103   0.606   1.536   1.752  1.2088 -0.4754 -0.7578
54621SOL    HW271104   0.528   1.426   1.822  0.6587  0.2127 -0.2756
54622SOL     OW71105  12.292   7.447  11.900 -0.5018 -0.4078  0.2398
54622SOL    HW171106  12.299   7.358  11.934 -2.2478 -0.9577 -0.6760
54622SOL    HW271107  12.353   7.498  11.952  1.2204 -2.2964  0.1911
54623SOL     OW71108  12.111   7.526   5.811 -0.4997  0.8112  0.9339
54623SOL    HW171109  12.111   7.465   5.737  0.5373  0.3256  1.2975
54623SOL    HW271110  12.075   7.607   5.776 -0.6473  0.3868  0.0728
54624SOL     OW71111   0.285   6.411  12.440 -0.0955  0.1130  0.0629
54624SOL    HW171112   0.324   6.324  12.430 -0.0346  0.2060 -0.5856
54624SOL    HW271113   0.195   6.401  12.409  0.3427  0.6070 -1.4968
54625SOL     OW71114   3.131   5.233   8.123  0.0921  0.3823 -0.1092
54625SOL    HW171115   3.180   5.160   8.161 -1.7993 -0.4637  0.8061
54625SOL    HW271116   3.191   5.270   8.058  1.4931 -1.3176  0.1369
54626SOL     OW71117   1.272   8.996   3.024  0.6713 -0.1678  0.2624
54626SOL    HW171118   1.281   8.912   3.068 -0.4142 -0.0956  0.6499
54626SOL    HW271119   1.194   8.986   2.968  0.8377  0.4104 -0.0825
54627SOL     OW71120   9.826   7.810   6.538  0.0601 -0.1886 -0.4294
54627SOL    HW171121   9.870   7.876   6.484  0.6650 -0.0135  0.2664
54627SOL    HW271122   9.895   7.750   6.564  0.0200  0.4014  1.1376
54628SOL     OW71123   6.669   8.841   2.997  0.5508  0.0846 -0.3352
54628SOL    HW171124   6.627   8.811   3.077 -0.6050 -0.6945 -1.1860
54628SOL    HW271125   6.762   8.838   3.015  0.3329 -0.8462  0.7143
54629SOL     OW71126   4.039   9.958  10.490 -0.0565 -0.0284 -0.1773
54629SOL    HW171127   4.061  10.047  10.463 -1.0473 -0.1321 -1.4153
54629SOL    HW271128   3.964   9.935  10.436 -0.4258 -1.2599  0.8320
54630SOL     OW71129   2.445   1.154   8.355  0.3705  0.2135 -0.4039
54630SOL    HW171130   2.425   1.173   8.263  0.9403  1.0932 -0.3621
54630SOL    HW271131   2.532   1.191   8.368  0.0422  0.6412  0.6445
54631SOL     OW71132   2.426   9.078   6.568 -0.1019 -0.6204 -0.4745
54631SOL    HW171133   2.503   9.049   6.520  0.4909  0.5562 -0.2707
54631SOL    HW271134   2.353   9.062   6.508  0.4675 -0.4702 -1.2209
54632SOL     OW71135   1.945   8.944   8.638 -0.0621 -0.3718  0.0743
54632SOL    HW171136   2.036   8.965   8.659  0.2617 -1.0049 -0.6177
54632SOL    HW271137   1.894   8.981   8.709  0.9124 -1.7104  1.5314
54633SOL     OW71138   3.820   0.389   4.675 -0.4636 -0.5999 -0.0944
54633SOL    HW171139   3.880   0.442   4.623 -1.2152  2.0755  1.5103
54633SOL    HW271140   3.868   0.309   4.694  0.8051 -0.5269 -2.5974
54634SOL     OW71141  10.370   3.554   9.840  0.3194  1.0446 -0.4427
54634SOL    HW171142  10.290   3.505   9.824 -0.6797  2.1122  1.0810
54634SOL    HW271143  10.430   3.490   9.879 -0.7402  0.8464  0.9240
54635SOL     OW71144   8.859   3.901   3.661 -0.3245  0.5616 -0.0729
54635SOL    HW171145   8.918   3.828   3.682  0.3414  1.0400 -0.2577
54635SOL    HW271146   8.824   3.928   3.746  0.2760  0.7355  0.1288
54636SOL     OW71147   5.917   1.397   5.844  0.5571  0.3018 -0.1481
54636SOL    HW171148   5.920   1.304   5.823  0.2975  0.2384  0.0912
54636SOL    HW271149   5.842   1.430   5.795  0.1201  0.2091  0.4561
54637SOL     OW71150   1.386   1.622   4.642  0.3590  0.1659  0.3928
54637SOL    HW171151   1.447   1.637   4.714  0.1397 -2.0312  1.1264
54637SOL    HW271152   1.300   1.643   4.679  0.4127  0.8567  0.1452
54638SOL     OW71153   5.033  12.554   9.327 -0.2645  0.0357  1.0182
54638SOL    HW171154   5.023  12.579   9.235  0.9649 -0.6872  0.6608
54638SOL    HW271155   4.964  12.602   9.373  0.2851  1.8812 -0.0095
54639SOL     OW71156   2.370   6.813   9.950 -0.3765 -0.1929 -0.0641
54639SOL    HW171157   2.339   6.840  10.036  1.1034  0.0674  0.4222
54639SOL    HW271158   2.466   6.822   9.955 -0.3460  1.5576 -2.3191
54640SOL     OW71159   7.774   6.126  11.104 -0.1457  0.0995  0.0006
54640SOL    HW171160   7.840   6.078  11.154 -1.9359 -2.9324 -0.3062
54640SOL    HW271161   7.824   6.171  11.036  1.7150 -1.0032  0.5660
54641SOL     OW71162   9.609   0.109   5.136  0.4459  0.3161  0.6505
54641SOL    HW171163   9.696   0.150   5.135  0.4313  0.7018  3.9071
54641SOL    HW271164   9.548   0.182   5.129  0.3373  0.1252 -0.6772
54642SOL     OW71165   8.126   0.617   9.376  0.1875  0.1503  0.4392
54642SOL    HW171166   8.186   0.596   9.304  1.5390  0.6313  1.3785
54642SOL    HW271167   8.118   0.536   9.426 -0.8590 -0.2217 -0.2959
54643SOL     OW71168  12.255   0.806   4.125 -0.1379  0.0213 -0.3151
54643SOL    HW171169  12.163   0.830   4.132  0.2332  1.0313  1.4450
54643SOL    HW271170  12.295   0.837   4.205  1.8109 -0.1729 -1.1516
54644SOL     OW71171  12.094   3.432   1.280 -0.2177 -0.4175 -0.4907
54644SOL    HW171172  12.127   3.478   1.357  1.6502 -1.6471 -0.4713
54644SOL    HW271173  12.049   3.355   1.315 -2.0661  0.5708 -0.5727
54645SOL     OW71174   0.697   6.546   3.279 -0.1209 -0.0970 -0.4034
54645SOL    HW171175   0.706   6.462   3.323  0.7236 -0.1844 -0.7182
54645SOL    HW271176   0.764   6.545   3.211 -1.8427 -0.2502 -2.1705
54646SOL     OW71177   4.486   3.695   2.031  0.5054 -0.2757 -0.1931
54646SOL    HW171178   4.576   3.672   2.052  0.3225 -0.2146  0.7229
54646SOL    HW271179   4.466   3.646   1.951  1.5575  0.2411 -0.7894
54647SOL     OW71180   1.090   3.811  10.868 -0.2567  1.1262  0.5659
54647SOL    HW171181   1.124   3.900  10.864  0.3358  1.0192  2.4674
54647SOL    HW271182   1.127   3.774  10.948 -1.6654 -0.3465  0.5925
54648SOL     OW71183   9.305   5.336   9.247 -0.2387  0.1163  0.5837
54648SOL    HW171184   9.250   5.410   9.274 -0.0538  0.4852 -0.0260
54648SOL    HW271185   9.373   5.331   9.314 -0.4811  0.2527  0.8408
54649SOL     OW71186   3.595  10.611   7.868 -0.2621  0.1508 -0.0630
54649SOL    HW171187   3.669  10.585   7.922 -2.0499 -1.8581  1.5881
54649SOL    HW271188   3.553  10.681   7.917 -0.1407  0.4850 -0.4260
54650SOL     OW71189   7.690   3.302   8.496 -0.2803  0.4491  0.0478
54650SOL    HW171190   7.630   3.375   8.484  1.9809  2.1256 -1.9249
54650SOL    HW271191   7.745   3.302   8.418  2.0634 -1.2077  1.5381
54651SOL     OW71192   3.260   5.437  11.804 -0.3117  0.4817  0.6522
54651SOL    HW171193   3.262   5.488  11.885  2.3323  1.6202 -0.0354
54651SOL    HW271194   3.351   5.415  11.787 -0.6853  0.8647 -2.3672
54652SOL     OW71195  12.118   1.725  12.540  0.1020 -0.6581  0.0050
54652SOL    HW171196  12.063   1.787  12.492 -0.2079 -0.8260  0.1386
54652SOL    HW271197  12.104   1.641  12.496  0.3512 -0.6767 -0.0402
54653SOL     OW71198  10.024   3.920   0.456  0.4700 -0.5157  1.0292
54653SOL    HW171199   9.956   3.955   0.398  0.4488 -1.5223  0.4368
54653SOL    HW271200  10.106   3.944   0.413  0.4524 -1.8152  0.2139
54654SOL     OW71201   2.245   0.461   5.906 -0.0275 -0.2733  0.2216
54654SOL    HW171202   2.244   0.538   5.964  0.8042  0.8837 -1.2242
54654SOL    HW271203   2.154   0.430   5.906  0.0455 -0.6295  2.5100
54655SOL     OW71204   5.915  10.148   9.877  0.3324  0.1203 -0.0313
54655SOL    HW171205   5.842  10.188   9.925  1.5094  1.0621  1.0523
54655SOL    HW271206   5.901  10.174   9.786 -0.7357  0.1674  0.1261
54656SOL     OW71207   7.107   8.867  12.480 -0.1694  0.7133  0.0678
54656SOL    HW171208   7.148   8.804  12.539 -0.7458  0.6943  0.4553
54656SOL    HW271209   7.150   8.951  12.500 -1.3862  1.0158  1.5829
54657SOL     OW71210   0.788  10.956   7.488 -0.3788  0.5431 -0.3522
54657SOL    HW171211   0.851  11.013   7.442  0.6981 -0.4602 -0.1607
54657SOL    HW271212   0.761  11.008   7.564 -0.7985  1.5092 -1.1403
54658SOL     OW71213  12.326   1.492   3.001 -0.0102  0.1196  0.0925
54658SOL    HW171214  12.406   1.446   2.978  0.6632 -0.0293  2.4251
54658SOL    HW271215  12.355   1.575   3.039 -0.8671 -0.1466  1.4332
54659SOL     OW71216   4.567   3.742   7.428 -0.4613  0.5884  0.2344
54659SOL    HW171217   4.623   3.664   7.434 -0.7862  0.4361  1.5815
54659SOL    HW271218   4.568   3.765   7.335  1.1291  0.0678  0.0899
54660SOL     OW71219  11.925  11.989   8.683  1.1696 -0.1200 -0.0033
54660SOL    HW171220  11.912  11.985   8.588 -0.3322  0.1956  0.1571
54660SOL    HW271221  11.966  11.905   8.705 -0.1860 -1.0226 -0.7204
54661SOL     OW71222  10.171   6.329   5.523  0.1361  0.1055  0.7707
54661SOL    HW171223  10.127   6.292   5.599  0.8767 -1.2591  0.5607
54661SOL    HW271224  10.101   6.347   5.461 -0.4938  1.4067  1.8152
54662SOL     OW71225   7.786  10.483   1.601 -0.0790 -0.0776 -0.0819
54662SOL    HW171226   7.717  10.460   1.540 -0.6221 -0.2056  0.5654
54662SOL    HW271227   7.864  10.492   1.547  0.4105 -4.2189 -0.3366
54663SOL     OW71228   8.460   2.300   2.697 -0.7210  0.2297 -0.0064
54663SOL    HW171229   8.513   2.329   2.622  0.5265  1.3863  1.2730
54663SOL    HW271230   8.519   2.247   2.750 -1.1166  0.6958  0.9306
54664SOL     OW71231   2.138   5.732  11.074 -0.1652  0.2593  0.1067
54664SOL    HW171232   2.056   5.726  11.026  0.9707 -1.2598 -1.7665
54664SOL    HW271233   2.201   5.682  11.022  2.0237  1.5146  1.3639
54665SOL     OW71234   3.579   1.256   5.773 -0.5297  0.2015  0.0457
54665SOL    HW171235   3.591   1.331   5.831 -1.6178 -1.5987  2.8092
54665SOL    HW271236   3.617   1.182   5.821 -0.1496 -1.1879 -2.2307
54666SOL     OW71237   0.287   5.369   3.759  0.5326  0.2445  0.1039
54666SOL    HW171238   0.254   5.459   3.758  1.3898  0.5794  1.0130
54666SOL    HW271239   0.313   5.352   3.668 -0.2072  0.6866 -0.2034
54667SOL     OW71240   6.371   5.743   7.632 -0.8866  0.0811 -0.0907
54667SOL    HW171241   6.332   5.678   7.690 -0.0654  0.2050  0.6246
54667SOL    HW271242   6.423   5.799   7.689  1.7936 -1.1491 -1.1555
54668SOL     OW71243  12.223   9.928   4.103  0.4207  0.4588 -0.1432
54668SOL    HW171244  12.230   9.840   4.139  1.7932  0.7392  0.3237
54668SOL    HW271245  12.195   9.915   4.012 -1.1670 -0.3446  0.4191
54669SOL     OW71246   7.891   5.704   8.023  0.3810 -0.6941  0.6410
54669SOL    HW171247   7.945   5.674   8.096  1.3490 -2.1942 -0.6129
54669SOL    HW271248   7.932   5.665   7.946 -0.7614  0.6155 -0.6850
54670SOL     OW71249  10.328   0.550   7.910  0.1231 -0.2980 -0.0043
54670SOL    HW171250  10.354   0.574   7.821 -0.6092  0.1685 -0.0959
54670SOL    HW271251  10.397   0.587   7.965 -0.0271  0.4341 -0.2882
54671SOL     OW71252  12.117   3.859   7.135 -0.5553 -0.3314 -0.2570
54671SOL    HW171253  12.066   3.870   7.215  0.7185  2.0636  0.3137
54671SOL    HW271254  12.140   3.948   7.109  1.8331 -1.2220 -1.4650
54672SOL     OW71255   9.848   7.003   9.598  0.1251 -0.4236 -0.2706
54672SOL    HW171256   9.768   7.048   9.623 -0.6447 -0.9473 -1.6824
54672SOL    HW271257   9.912   7.073   9.585 -0.3483  0.0683  0.0072
54673SOL     OW71258   1.909  12.376  11.741  0.2542  0.0235  0.3100
54673SOL    HW171259   1.964  12.439  11.694  0.0872  0.0120  0.1019
54673SOL    HW271260   1.961  12.296  11.743 -0.4155 -0.4779 -1.3184
54674SOL     OW71261   4.691   0.295   2.561  0.2805  0.1863  0.9345
54674SOL    HW171262   4.622   0.228   2.559  2.3369 -2.0921 -1.0903
54674SOL    HW271263   4.727   0.289   2.649 -1.5897  0.9595  1.8136
54675SOL     OW71264   1.635   9.771   3.847  0.2751  0.1812 -0.7132
54675SOL    HW171265   1.621   9.808   3.759 -1.4723 -0.9135 -0.9539
54675SOL    HW271266   1.627   9.676   3.834  0.3372 -0.0102  0.5743
54676SOL     OW71267   2.306  11.836   2.404 -0.1586 -0.0751 -0.2372
54676SOL    HW171268   2.301  11.924   2.367 -0.9684  0.8152  1.7829
54676SOL    HW271269   2.375  11.842   2.470 -1.0096 -0.5767  0.7353
54677SOL     OW71270   1.282  11.789   9.954  0.2957 -0.3247  0.4928
54677SOL    HW171271   1.347  11.765   9.888 -0.3040  0.0304 -0.2378
54677SOL    HW271272   1.334  11.821  10.028  0.9694 -0.5472  0.1250
54678SOL     OW71273   4.658  10.752   6.100 -0.3442  0.0284  0.5221
54678SOL    HW171274   4.610  10.790   6.173 -1.9526 -0.4631 -0.2238
54678SOL    HW271275   4.714  10.823   6.069  0.0943  0.3523  1.9827
54679SOL     OW71276   7.581   3.104   2.652 -0.2453  0.3119 -0.0875
54679SOL    HW171277   7.538   3.040   2.594 -0.3077 -1.6681  1.9872
54679SOL    HW271278   7.511   3.166   2.675 -0.3668  0.7641 -1.5935
54680SOL     OW71279   0.468  10.505   8.925 -0.2080  0.5280 -0.2250
54680SOL    HW171280   0.502  10.544   9.006  1.1811 -1.4049  0.1978
54680SOL    HW271281   0.374  10.503   8.937 -0.1495  1.6885  0.6582
54681SOL     OW71282  10.267   9.355  12.674  0.2872 -0.3649 -0.5836
54681SOL    HW171283  10.271   9.334  12.580  1.5476 -0.2552 -0.5678
54681SOL    HW271284  10.222   9.280  12.713  0.7619 -0.9466 -1.1289
54682SOL     OW71285   7.934   2.392   4.330  0.3404 -0.3512 -0.0317
54682SOL    HW171286   7.964   2.326   4.391  2.3424 -0.0918 -0.6581
54682SOL    HW271287   8.013   2.442   4.307 -0.2532 -0.5123 -2.8837
54683SOL     OW71288   3.201   5.152   9.691 -0.3400 -0.2543 -0.1200
54683SOL    HW171289   3.134   5.123   9.753 -0.0389 -0.5572  0.0692
54683SOL    HW271290   3.232   5.235   9.727 -0.6033 -0.1212 -0.1999
54684SOL     OW71291   7.555  12.568   8.075  0.3165  0.1078  0.0440
54684SOL    HW171292   7.562  12.526   8.161 -0.2900 -1.2775 -0.5642
54684SOL    HW271293   7.623  12.527   8.023  1.0180  1.3059 -0.0255
54685SOL     OW71294   8.310  11.700   9.525 -0.1799  0.8624 -0.0798
54685SOL    HW171295   8.241  11.746   9.573 -0.4443 -0.4729  0.8641
54685SOL    HW271296   8.285  11.708   9.433 -1.9697 -0.1287  0.2746
54686SOL     OW71297  10.098   4.049   1.990  0.5859 -0.6200  0.5588
54686SOL    HW171298  10.052   4.111   2.045 -1.2866 -2.4416  1.1834
54686SOL    HW271299  10.150   3.996   2.051 -0.6240 -1.9276  0.4825
54687SOL     OW71300   5.578   4.191   1.972 -0.0413  0.9861 -0.7053
54687SOL    HW171301   5.600   4.114   1.919  0.5505 -0.3999  1.4205
54687SOL    HW271302   5.659   4.242   1.974 -0.8636  2.6053 -3.4245
54688SOL     OW71303   7.804   6.994   8.814 -0.0304  0.9308 -0.1377
54688SOL    HW171304   7.822   6.925   8.750 -1.6393  0.4962 -0.1770
54688SOL    HW271305   7.778   7.070   8.760  1.4413  1.5073 -0.0820
54689SOL     OW71306   3.770   5.481   1.396  0.6300  0.0474 -0.4938
54689SOL    HW171307   3.775   5.569   1.359 -0.9713 -0.1536 -1.2835
54689SOL    HW271308   3.711   5.433   1.337  2.3561 -1.9106 -0.7631
54690SOL     OW71309   4.127   7.354  10.809  0.6790  0.3317  0.0595
54690SOL    HW171310   4.049   7.403  10.835  1.0094  0.6977  0.3579
54690SOL    HW271311   4.189   7.366  10.881  1.2351  0.5423 -0.4426
54691SOL     OW71312  10.660   6.929   8.270 -0.3499  0.2407  0.2882
54691SOL    HW171313  10.607   6.882   8.333 -2.3910  2.3509  0.2652
54691SOL    HW271314  10.724   6.976   8.323  0.2920 -0.7944  0.4611
54692SOL     OW71315   1.879   8.478   6.846 -0.3002 -0.4156  0.0261
54692SOL    HW171316   1.895   8.479   6.941  1.3265  1.2473 -0.2171
54692SOL    HW271317   1.799   8.530   6.835 -1.3816 -1.8961  0.5736
54693SOL     OW71318   0.876  11.520   2.571 -0.2975 -0.0095  0.0793
54693SOL    HW171319   0.873  11.453   2.503 -2.0093 -1.0547  1.0935
54693SOL    HW271320   0.935  11.587   2.537 -0.0713 -1.1124 -1.8296
54694SOL     OW71321   1.214   9.159   6.400 -0.4848  0.2446 -0.3834
54694SOL    HW171322   1.289   9.206   6.365 -0.1393 -0.9101 -1.2457
54694SOL    HW271323   1.140   9.220   6.388  0.1940  1.1665 -0.0204
54695SOL     OW71324   7.072   7.099   1.546  0.1010  0.3639  0.4181
54695SOL    HW171325   7.116   7.144   1.474 -3.1619 -0.2205 -2.2086
54695SOL    HW271326   7.120   7.017   1.555  1.3206  0.9801 -0.2288
54696SOL     OW71327   1.960   7.071   3.053 -0.4289 -0.0447 -0.3484
54696SOL    HW171328   1.897   7.141   3.067  0.0716  0.4640 -0.5831
54696SOL    HW271329   1.993   7.086   2.964 -0.8753 -1.0326 -0.6965
54697SOL     OW71330   3.452   6.338   6.147  0.1909  0.1192 -0.5257
54697SOL    HW171331   3.468   6.336   6.241 -0.6998 -0.7068 -0.3769
54697SOL    HW271332   3.372   6.286   6.135  0.5298 -0.1475 -1.7828
54698SOL     OW71333   9.834  11.492  12.288 -0.7102  0.4845 -0.2910
54698SOL    HW171334   9.821  11.530  12.201 -1.0309 -0.2185 -0.5557
54698SOL    HW271335   9.911  11.436  12.278  0.7793  2.2570  0.5003
54699SOL     OW71336  11.924  10.845   2.663  0.5058  0.1297 -0.1052
54699SOL    HW171337  11.921  10.755   2.630 -0.9641 -0.3703  1.2965
54699SOL    HW271338  11.837  10.861   2.699  1.0947  1.7125  0.7233
54700SOL     OW71339   7.456  10.558  11.616  0.6823 -0.6022  0.0366
54700SOL    HW171340   7.371  10.600  11.623  0.7223 -0.4997 -0.0954
54700SOL    HW271341   7.440  10.466  11.639  0.9445 -0.1437  2.3146
54701SOL     OW71342  10.430   0.803   1.134 -0.3001 -0.2713  0.5968
54701SOL    HW171343  10.404   0.840   1.218 -1.5091 -0.3049  0.2542
54701SOL    HW271344  10.404   0.711   1.138  1.4475 -0.7966  0.9186
54702SOL     OW71345   9.871   5.828   5.738 -0.0199  0.0765 -0.2210
54702SOL    HW171346   9.932   5.754   5.737  3.9094  2.9802 -0.8610
54702SOL    HW271347   9.871   5.861   5.649 -2.7692  0.1966 -0.2626
54703SOL     OW71348   1.271   3.128   8.414 -0.1887  0.3287 -0.2980
54703SOL    HW171349   1.342   3.170   8.462  0.6811  0.4583 -1.6395
54703SOL    HW271350   1.198   3.125   8.476  0.9842  0.1763  1.1247
54704SOL     OW71351  11.759   4.947   6.906 -0.0801  0.2464  0.5479
54704SOL    HW171352  11.702   4.918   6.977 -1.3681  1.1825 -0.0831
54704SOL    HW271353  11.727   4.901   6.829 -0.6326  1.5241  0.0006
54705SOL     OW71354   6.732   9.764   9.815  0.0947 -0.0873 -0.8451
54705SOL    HW171355   6.768   9.675   9.811 -0.8465 -0.5558  0.3905
54705SOL    HW271356   6.810   9.820   9.818  0.8162 -1.0452  1.2411
54706SOL     OW71357  12.036   5.109  12.296  0.7400 -0.2850 -0.3254
54706SOL    HW171358  12.120   5.155  12.288  0.6712 -0.0984  0.0111
54706SOL    HW271359  11.975   5.163  12.246  0.8816 -0.5863 -0.8329
54707SOL     OW71360  12.194   5.676   4.409 -0.2725 -0.8048  0.0118
54707SOL    HW171361  12.128   5.696   4.342 -0.5146  0.5735  0.6170
54707SOL    HW271362  12.253   5.614   4.367 -1.7919 -1.8581 -0.6497
54708SOL     OW71363  10.725   2.311   7.443 -0.0247  0.5722 -0.0353
54708SOL    HW171364  10.764   2.335   7.359 -0.4276  0.4418 -0.2630
54708SOL    HW271365  10.643   2.268   7.420  0.7706 -1.2642  0.3481
54709SOL     OW71366   0.198   6.398   6.192  0.2253  0.1410 -0.1393
54709SOL    HW171367   0.108   6.428   6.181  0.2385 -0.1571 -1.2045
54709SOL    HW271368   0.207   6.382   6.286  0.2862  3.5940  0.5778
54710SOL     OW71369   7.417   1.535   6.741  0.1012 -0.5343 -0.3105
54710SOL    HW171370   7.444   1.620   6.777 -1.7917  1.3128 -2.9031
54710SOL    HW271371   7.348   1.505   6.800  1.3835 -0.7963  1.1314
54711SOL     OW71372   1.630   4.273   6.536 -0.1951 -0.1304 -0.0800
54711SOL    HW171373   1.668   4.350   6.578  0.4950 -0.2853 -0.3873
54711SOL    HW271374   1.674   4.199   6.578 -0.3557 -0.3263 -0.2567
54712SOL     OW71375   7.459   2.112   8.120 -0.7280 -0.1702  0.5404
54712SOL    HW171376   7.483   2.132   8.029 -1.7507  0.4784  0.3982
54712SOL    HW271377   7.449   2.198   8.162  0.2642 -0.4660  1.4254
54713SOL     OW71378   9.179  10.009   8.583 -0.5607  0.0581  0.2446
54713SOL    HW171379   9.086  10.031   8.575 -1.3764 -2.6310  1.0959
54713SOL    HW271380   9.223  10.093   8.596 -3.2234  1.2483  2.6253
54714SOL     OW71381   5.917  11.236   7.613 -0.2766 -0.3797 -0.0458
54714SOL    HW171382   5.876  11.271   7.534  0.7625 -1.2456 -0.9952
54714SOL    HW271383   5.847  11.238   7.678 -1.6680 -1.2409 -1.4425
54715SOL     OW71384   3.482   6.035   6.682  0.3154 -0.2835 -0.2134
54715SOL    HW171385   3.503   6.000   6.769 -0.7650 -0.1243  0.1141
54715SOL    HW271386   3.425   6.109   6.698  1.0621  0.4878 -1.0165
54716SOL     OW71387   3.511   3.193   0.670  0.0682  0.3417  0.4590
54716SOL    HW171388   3.591   3.169   0.716 -0.1296 -2.1083 -0.3261
54716SOL    HW271389   3.540   3.210   0.580  0.0658  2.3992  0.7971
54717SOL     OW71390   2.377  10.947   4.786 -0.2327  0.9033  0.6606
54717SOL    HW171391   2.439  10.949   4.713 -0.6563 -0.2069  0.2408
54717SOL    HW271392   2.374  11.037   4.819 -0.1612  1.4642 -0.8029
54718SOL     OW71393   0.585   4.410   0.368 -0.1072 -0.5808  0.3053
54718SOL    HW171394   0.666   4.444   0.408  1.8076 -1.2201 -2.7216
54718SOL    HW271395   0.559   4.479   0.307 -1.3156 -0.8372  0.5238
54719SOL     OW71396   0.664   2.744   8.191  0.5898  0.0703 -0.2198
54719SOL    HW171397   0.664   2.685   8.266 -1.2099 -0.6068 -0.7057
54719SOL    HW271398   0.593   2.806   8.210 -0.1985 -0.3843 -1.5330
54720SOL     OW71399  10.795   0.940   7.728  0.1854 -0.3575  0.4826
54720SOL    HW171400  10.708   0.925   7.690 -0.1337  1.7825  0.2573
54720SOL    HW271401  10.855   0.929   7.654  0.0323 -0.8747  0.4268
54721SOL     OW71402   5.144   1.066  10.185  0.3353  0.0279  0.2196
54721SOL    HW171403   5.146   1.011  10.264 -0.5414 -0.5104 -0.1206
54721SOL    HW271404   5.234   1.097  10.175  0.9201 -1.5914  0.2521
54722SOL     OW71405  11.870  11.848   9.497  0.1002 -0.0504  0.3842
54722SOL    HW171406  11.953  11.825   9.456 -0.5065 -1.1255 -0.2579
54722SOL    HW271407  11.835  11.918   9.442  0.5913  0.4455  0.6889
54723SOL     OW71408  12.085  11.653   8.567 -0.2589  0.0185 -0.0687
54723SOL    HW171409  12.049  11.626   8.652  3.8574 -1.3134  1.5110
54723SOL    HW271410  12.036  11.601   8.503 -0.8694 -2.0109  1.8939
54724SOL     OW71411   4.832  12.172   3.540  0.2265 -0.4181 -0.3966
54724SOL    HW171412   4.858  12.206   3.626  0.0230  0.5492 -0.6960
54724SOL    HW271413   4.774  12.240   3.505 -1.0194 -1.5704 -0.6151
54725SOL     OW71414   6.664   5.246   7.574 -0.0276 -0.2075  0.4098
54725SOL    HW171415   6.619   5.189   7.511 -0.8050 -0.5247  1.2289
54725SOL    HW271416   6.671   5.193   7.653  2.4393 -0.4076  0.1260
54726SOL     OW71417  11.946   1.128   0.952  0.2473  0.2626 -0.4730
54726SOL    HW171418  11.911   1.053   1.001 -1.6586  0.2057 -1.8089
54726SOL    HW271419  11.972   1.191   1.019 -0.8051 -0.4360  0.6232
54727SOL     OW71420  12.290  12.672   5.052  0.2186  0.5394 -0.2572
54727SOL    HW171421  12.279  12.597   5.111  2.6411 -0.1156 -0.5540
54727SOL    HW271422  12.218  12.731   5.076 -0.3828 -0.8269  1.5793
54728SOL     OW71423   2.260   0.686   4.671 -0.1540 -0.3151 -0.2654
54728SOL    HW171424   2.232   0.778   4.668 -0.4317 -0.3777  0.2678
54728SOL    HW271425   2.288   0.667   4.582  1.0755  0.6395 -0.1024
54729SOL     OW71426   7.089   0.425   0.753  0.0506 -0.1997 -0.5764
54729SOL    HW171427   7.070   0.516   0.774 -0.2709  0.3557 -2.9075
54729SOL    HW271428   7.169   0.428   0.701  0.6351 -1.3730  0.2159
54730SOL     OW71429  12.112   8.861   9.604  0.4925 -0.5377 -0.6265
54730SOL    HW171430  12.179   8.814   9.554  0.0102 -0.5518 -1.2734
54730SOL    HW271431  12.138   8.953   9.597  0.6881 -0.5832 -0.5044
54731SOL     OW71432   0.618   1.215   4.950 -0.6065  0.0104  0.2263
54731SOL    HW171433   0.711   1.236   4.943 -0.4604 -0.8776 -0.7665
54731SOL    HW271434   0.573   1.299   4.940  0.0640  0.3733  0.2204
54732SOL     OW71435   2.061   9.294   0.170  0.2062 -0.1817  0.0274
54732SOL    HW171436   1.973   9.306   0.206  0.8862 -0.4164  1.8518
54732SOL    HW271437   2.108   9.375   0.193  0.5907 -0.2231 -0.5826
54733SOL     OW71438   1.162   4.561   1.343 -0.4495  0.3235 -0.2619
54733SOL    HW171439   1.147   4.513   1.262  0.2925  0.6186 -0.5823
54733SOL    HW271440   1.251   4.594   1.336 -0.4113  0.4508  0.6283
54734SOL     OW71441  12.466   7.670   9.904  0.0776 -0.0654  0.0303
54734SOL    HW171442  12.422   7.724   9.838  2.1528  0.8108 -0.7236
54734SOL    HW271443  12.452   7.717   9.987 -1.0179 -0.2096 -0.0618
54735SOL     OW71444   9.209  11.894   0.494 -0.4526 -0.2408  0.5727
54735SOL    HW171445   9.163  11.975   0.475 -0.6442 -0.0329  1.8699
54735SOL    HW271446   9.213  11.890   0.590 -0.4475 -1.7521  0.5339
54736SOL     OW71447  11.305  11.749  11.328 -0.4837 -0.1977  0.3280
54736SOL    HW171448  11.306  11.826  11.385 -0.8890 -0.8282  1.2045
54736SOL    HW271449  11.262  11.681  11.379  1.5944 -1.6018  0.3655
54737SOL     OW71450  10.423   7.326   9.281  0.0732  0.0338 -0.2546
54737SOL    HW171451  10.328   7.335   9.283  0.1584  0.8437  1.2220
54737SOL    HW271452  10.456   7.415   9.266  0.6062 -0.2283 -0.6859
54738SOL     OW71453   7.291   9.984   7.447  0.2612  0.0647  0.0292
54738SOL    HW171454   7.301   9.895   7.413  1.5617  0.4468 -0.6651
54738SOL    HW271455   7.347   9.986   7.524  1.7180  0.7725 -0.9935
54739SOL     OW71456   6.605   7.798   3.671  0.0939 -0.0001 -0.1811
54739SOL    HW171457   6.654   7.797   3.589 -0.5773 -0.9043 -0.5783
54739SOL    HW271458   6.665   7.760   3.736  0.8770  1.3317 -0.0787
54740SOL     OW71459   8.574   0.177   4.083  0.1760 -0.4605 -0.1248
54740SOL    HW171460   8.499   0.206   4.135  0.5918  0.1518  0.1385
54740SOL    HW271461   8.536   0.114   4.021 -0.5062 -0.3797  0.1937
54741SOL     OW71462   0.799   9.759   9.638 -0.6220 -0.3369 -0.8728
54741SOL    HW171463   0.724   9.792   9.590 -3.0135 -2.9045  0.8081
54741SOL    HW271464   0.829   9.834   9.691 -2.5831  0.5114 -0.8978
54742SOL     OW71465   9.500   6.970   0.678 -0.4448 -0.0701  0.1214
54742SOL    HW171466   9.418   6.927   0.655  0.0650 -0.0024 -2.0309
54742SOL    HW271467   9.489   7.061   0.650 -0.1731  0.3249  1.2386
54743SOL     OW71468  12.672   8.719   2.830  1.2898 -0.2706 -0.1941
54743SOL    HW171469  12.646   8.653   2.895  1.7141 -0.6899 -0.4416
54743SOL    HW271470  12.704   8.667   2.756  2.7400  0.2215  0.0646
54744SOL     OW71471   7.122   9.685   9.637  0.0863 -0.3288 -0.1177
54744SOL    HW171472   7.213   9.701   9.663  0.1216 -3.2937  2.0920
54744SOL    HW271473   7.070   9.711   9.713 -0.5584 -1.6618 -0.0607
54745SOL     OW71474   8.492   7.317  11.258 -0.2744 -0.1998 -0.2695
54745SOL    HW171475   8.404   7.290  11.285  0.6201 -2.1145  0.9278
54745SOL    HW271476   8.529   7.240  11.215  1.0600  0.3353 -0.1468
54746SOL     OW71477   0.246   8.224   2.225  0.1826  0.4301 -0.4325
54746SOL    HW171478   0.242   8.154   2.290 -1.1563 -2.6858 -3.5079
54746SOL    HW271479   0.340   8.240   2.212  0.5468 -1.0958  0.1354
54747SOL     OW71480   5.296   8.170   3.391 -0.0668 -0.4530  0.0527
54747SOL    HW171481   5.363   8.206   3.332 -0.8265  0.9117 -0.0239
54747SOL    HW271482   5.337   8.093   3.430  1.3255  0.0026 -0.4474
54748SOL     OW71483  12.233   3.771   5.739  0.1938 -0.2645  0.7848
54748SOL    HW171484  12.315   3.725   5.758  0.1195  0.1118  2.1310
54748SOL    HW271485  12.247   3.859   5.774 -0.1973  0.3134 -0.4527
54749SOL     OW71486   2.914  10.898   0.231  0.3586  0.3668 -0.3115
54749SOL    HW171487   2.853  10.962   0.194 -0.0347 -0.0045 -0.3040
54749SOL    HW271488   2.928  10.835   0.160 -0.0378 -0.0925  0.0115
54750SOL     OW71489   5.385   1.181   9.321 -0.6182 -0.0967  0.0067
54750SOL    HW171490   5.436   1.207   9.397  1.0979 -0.7561 -0.8778
54750SOL    HW271491   5.312   1.131   9.357 -0.9929  1.3206  1.3343
54751SOL     OW71492  11.678   0.359   5.766  0.2762  0.0217 -0.0309
54751SOL    HW171493  11.655   0.358   5.858  1.6043  0.1780  0.3195
54751SOL    HW271494  11.696   0.451   5.746 -1.9043  0.3042 -0.9691
54752SOL     OW71495   9.334   9.720  11.677  0.9023  0.6529  0.4229
54752SOL    HW171496   9.417   9.673  11.672  1.3667  1.5986 -2.6951
54752SOL    HW271497   9.349   9.789  11.741  1.4993 -0.8985  2.0645
54753SOL     OW71498   0.618   8.656   5.884  0.4945  0.3143 -0.0965
54753SOL    HW171499   0.708   8.656   5.917 -0.1062  0.5141  1.6903
54753SOL    HW271500   0.592   8.748   5.884  0.1972  0.2325 -0.2980
54754SOL     OW71501   2.318   6.498  10.592  0.4937 -0.3527  0.1918
54754SOL    HW171502   2.406   6.503  10.557  0.4359  0.0776  0.1024
54754SOL    HW271503   2.291   6.407  10.575  0.7813 -0.3864 -0.1067
54755SOL     OW71504   7.709   6.496   7.409 -0.1574  0.2735  0.0663
54755SOL    HW171505   7.655   6.570   7.440 -1.2764 -0.7447  0.6329
54755SOL    HW271506   7.689   6.425   7.470  0.4026 -0.6931 -0.8497
54756SOL     OW71507   2.080  11.280  10.069  0.1840  0.6837 -0.2062
54756SOL    HW171508   2.021  11.285  10.145  0.3361  0.2148 -0.0587
54756SOL    HW271509   2.067  11.192  10.034 -0.8129  1.3001 -1.4724
54757SOL     OW71510  10.952   1.453  11.020  0.3653 -0.1448 -0.0071
54757SOL    HW171511  10.910   1.496  11.094  1.2394  0.5298  0.1043
54757SOL    HW271512  10.879   1.429  10.962 -0.3868 -1.1917  1.3019
54758SOL     OW71513   1.261  10.616   3.920 -0.0615 -0.0390  0.3412
54758SOL    HW171514   1.245  10.522   3.931 -0.2552 -0.0110  0.2970
54758SOL    HW271515   1.353  10.622   3.895  0.0626 -0.1879  0.7479
54759SOL     OW71516  11.797   4.406   0.950  0.1864 -0.4394  0.1074
54759SOL    HW171517  11.876   4.356   0.931 -0.3559 -1.1997 -0.1922
54759SOL    HW271518  11.726   4.342   0.944 -0.3814  0.0734  1.1238
54760SOL     OW71519  10.378  11.113   8.437 -0.3786  0.2950 -0.1916
54760SOL    HW171520  10.377  11.119   8.341  0.2983  0.2023 -0.2091
54760SOL    HW271521  10.455  11.060   8.457 -1.2592 -0.8118  0.3514
54761SOL     OW71522   4.838   5.805  11.002 -0.2600  0.3777 -0.3490
54761SOL    HW171523   4.804   5.809  10.912 -2.0387 -1.8073  0.1440
54761SOL    HW271524   4.830   5.713  11.027  1.7253  0.6266  1.5234
54762SOL     OW71525   7.622  12.443   1.926 -0.0407  0.1970 -0.2464
54762SOL    HW171526   7.657  12.355   1.936 -0.9439 -0.0401  1.0938
54762SOL    HW271527   7.567  12.439   1.848  0.2216 -0.3173 -0.4063
54763SOL     OW71528   9.140   1.151   2.007  0.1365  0.0029  0.1304
54763SOL    HW171529   9.184   1.149   2.092  0.8289 -2.2988 -0.1970
54763SOL    HW271530   9.203   1.109   1.947 -1.8052 -1.9227 -0.7002
54764SOL     OW71531   1.248  10.610   2.109  0.5020  0.9671 -0.6015
54764SOL    HW171532   1.304  10.553   2.056 -2.2868 -2.0839 -0.5930
54764SOL    HW271533   1.292  10.614   2.194 -0.0369 -2.9697  0.0441
54765SOL     OW71534   6.672   1.160   7.021  0.2384  0.3390  0.3241
54765SOL    HW171535   6.759   1.183   6.988  0.6839 -1.2635  0.3232
54765SOL    HW271536   6.619   1.238   7.004  1.5894  1.2281  0.0411
54766SOL     OW71537  10.520   0.129   4.178 -0.0126  0.5755 -0.4276
54766SOL    HW171538  10.431   0.161   4.161 -0.7696 -1.0938  0.2287
54766SOL    HW271539  10.560   0.121   4.091 -0.2337  1.9549 -0.6913
54767SOL     OW71540   8.958  10.190   7.784 -0.1132 -0.5689  0.0230
54767SOL    HW171541   8.886  10.152   7.733 -0.0671 -0.8684  0.1801
54767SOL    HW271542   9.022  10.119   7.792  0.1643 -0.3295 -0.0463
54768SOL     OW71543   1.552  10.907   6.536  0.1457 -0.1385 -0.8175
54768SOL    HW171544   1.599  10.894   6.618 -2.6304 -1.0566  0.7377
54768SOL    HW271545   1.590  10.843   6.476 -0.5532 -2.4737  1.0671
54769SOL     OW71546  10.188   7.065  12.694  0.0422  0.1876 -0.4387
54769SOL    HW171547  10.093   7.064  12.682 -0.2070  0.0450  1.2729
54769SOL    HW271548  10.221   7.113  12.619 -1.4788  1.2665 -0.4639
54770SOL     OW71549  11.088  11.691   3.315  0.7848  0.0920 -0.7894
54770SOL    HW171550  11.165  11.745   3.295  1.5503 -0.6918 -0.0622
54770SOL    HW271551  11.051  11.731   3.394 -0.5923  1.4917 -2.0693
54771SOL     OW71552   5.193   2.779  10.265 -0.1566  0.1153 -0.7502
54771SOL    HW171553   5.256   2.849  10.278 -1.1130  0.6430  1.3457
54771SOL    HW271554   5.118   2.821  10.223 -1.2171  0.6709  1.5926
54772SOL     OW71555   7.854  10.748   0.224 -0.2673  0.4966  0.7569
54772SOL    HW171556   7.931  10.779   0.272  0.3892  0.0161  0.0257
54772SOL    HW271557   7.875  10.657   0.203 -2.5506 -0.9232  3.7615
54773SOL     OW71558  11.084   5.114   1.121 -0.2232 -0.2878 -0.3113
54773SOL    HW171559  11.090   5.189   1.180  1.0866  0.4602 -1.3212
54773SOL    HW271560  11.173   5.078   1.120 -0.6211 -1.2807 -0.5644
54774SOL     OW71561  11.793   6.209   7.679 -0.0091 -0.3422 -0.2215
54774SOL    HW171562  11.889   6.208   7.676 -0.0015 -0.7426  0.0617
54774SOL    HW271563  11.771   6.281   7.738  0.1268 -0.4449 -0.0445
54775SOL     OW71564   4.575   0.912   5.432 -0.5523 -0.3026 -0.4577
54775SOL    HW171565   4.587   0.862   5.513  0.5203 -1.0761 -1.0542
54775SOL    HW271566   4.498   0.965   5.447 -0.5876 -0.7135  0.9355
54776SOL     OW71567   8.042  12.550   0.424 -0.0887 -0.3754 -0.4140
54776SOL    HW171568   8.128  12.517   0.396  0.4085 -0.7566  1.4023
54776SOL    HW271569   7.997  12.572   0.343  2.7300  2.4698 -1.4523
54777SOL     OW71570   2.489   8.707  10.148 -0.0652  0.3245 -0.6309
54777SOL    HW171571   2.583   8.689  10.140  0.1745  1.1047  0.1913
54777SOL    HW271572   2.481   8.757  10.229 -1.4549 -1.3682  0.3486
54778SOL     OW71573   6.938   2.347  12.239  0.0868  0.6134 -0.2968
54778SOL    HW171574   6.883   2.296  12.179 -0.0052  0.0484  0.2564
54778SOL    HW271575   6.974   2.282  12.299 -0.3849  1.2551  0.7012
54779SOL     OW71576   5.396   2.746   5.974 -0.6485 -0.0731  0.4065
54779SOL    HW171577   5.469   2.746   5.912 -2.1855  0.0240 -1.5018
54779SOL    HW271578   5.351   2.829   5.958 -1.0735 -0.0299  1.7215
54780SOL     OW71579   4.067   9.132  11.693 -0.3523 -0.0343  0.0492
54780SOL    HW171580   4.080   9.108  11.601 -1.5741  1.0485 -0.4395
54780SOL    HW271581   4.104   9.220  11.700 -0.6676  0.0702  0.4763
54781SOL     OW71582   0.757  12.252   7.202  0.2641  0.3381  0.2799
54781SOL    HW171583   0.806  12.231   7.281 -0.9126 -1.7352  0.5419
54781SOL    HW271584   0.699  12.176   7.188 -1.1611  1.6128 -1.3152
54782SOL     OW71585   9.431   0.357  10.988 -0.4118  0.4925 -0.1241
54782SOL    HW171586   9.383   0.357  10.905  1.9758  1.5391 -1.6032
54782SOL    HW271587   9.448   0.264  11.006  0.5457  0.3182 -1.7612
54783SOL     OW71588   0.865  10.659  11.874 -0.4577 -0.4121  0.0288
54783SOL    HW171589   0.778  10.661  11.914  0.0829 -0.5270  1.2300
54783SOL    HW271590   0.857  10.595  11.803 -0.7344 -2.2052  1.6106
54784SOL     OW71591  11.365   0.102  12.052 -0.2112  0.7674  0.7449
54784SOL    HW171592  11.375   0.180  11.997  1.1867  0.9648  1.2251
54784SOL    HW271593  11.455   0.079  12.076 -0.5854 -1.0089  0.6049
54785SOL     OW71594   7.406   1.418   2.550  0.2874 -0.3175  0.1673
54785SOL    HW171595   7.319   1.406   2.589  0.6369 -0.5685  0.8757
54785SOL    HW271596   7.393   1.488   2.485 -1.2096 -2.5500 -2.1712
54786SOL     OW71597  10.967   4.837  11.524 -0.5373 -0.3297 -0.0375
54786SOL    HW171598  10.899   4.852  11.458 -1.4817 -1.5615  0.6111
54786SOL    HW271599  11.021   4.767  11.487 -1.3770 -1.3927  0.6652
54787SOL     OW71600   4.925   4.269   0.119 -0.1687 -0.0457  0.3670
54787SOL    HW171601   5.013   4.273   0.080 -0.1039 -0.7383  0.4278
54787SOL    HW271602   4.867   4.251   0.045 -0.0313 -1.4838  0.5800
54788SOL     OW71603   3.081   5.943   3.926  0.1545 -0.5613 -0.2112
54788SOL    HW171604   3.080   6.030   3.885 -0.1201 -0.3949  0.1358
54788SOL    HW271605   3.037   5.957   4.010  0.2501 -1.0058 -0.0886
54789SOL     OW71606   2.409   4.260   9.398  0.9557  0.4686 -0.0612
54789SOL    HW171607   2.356   4.218   9.465  0.5186 -1.4024 -1.5046
54789SOL    HW271608   2.453   4.332   9.443 -2.6886  2.1075  1.2506
54790SOL     OW71609   2.928   5.077   3.106 -0.0018  0.2955  0.3730
54790SOL    HW171610   2.948   4.990   3.140  2.0268  0.6899  0.3074
54790SOL    HW271611   2.847   5.103   3.150 -0.8534 -1.7505  0.1099
54791SOL     OW71612   9.713   7.798   0.044 -0.3341 -0.5903 -0.4974
54791SOL    HW171613   9.622   7.801   0.014 -0.4284 -2.2682 -0.4832
54791SOL    HW271614   9.764   7.791  -0.036 -0.0659  1.8188 -0.6027
54792SOL     OW71615   0.399  10.202   0.896  0.0318  0.7145  0.0200
54792SOL    HW171616   0.376  10.291   0.870 -2.2852 -0.5165 -2.7246
54792SOL    HW271617   0.316  10.162   0.922  0.9931 -0.7214  1.0701
54793SOL     OW71618   9.920   2.299   2.650  0.4697  0.1639  0.1705
54793SOL    HW171619   9.935   2.328   2.560 -1.1388 -0.6103 -0.4017
54793SOL    HW271620   9.994   2.333   2.699  0.9254  1.3923 -1.2759
54794SOL     OW71621   6.332   8.626   4.435 -0.7635  0.2969 -0.3220
54794SOL    HW171622   6.306   8.708   4.478  0.6527  1.8203 -2.2262
54794SOL    HW271623   6.342   8.563   4.507  2.5771  2.9719  1.8229
54795SOL     OW71624   5.172   4.190  12.705  0.3583 -0.4597 -0.4559
54795SOL    HW171625   5.262   4.222  12.700  0.6561 -1.4284 -3.5759
54795SOL    HW271626   5.143   4.185  12.614 -2.6780 -0.7790  0.3986
54796SOL     OW71627   6.160   5.277   3.225  0.6004  0.4669 -0.0833
54796SOL    HW171628   6.082   5.303   3.176  0.5938  1.9554  0.6590
54796SOL    HW271629   6.174   5.348   3.287  1.4510 -0.6804  1.0992
54797SOL     OW71630   2.785   9.821   7.596  0.2563 -0.0163  0.6530
54797SOL    HW171631   2.844   9.872   7.540  0.4350 -0.3852  0.4983
54797SOL    HW271632   2.780   9.736   7.552 -0.1110 -0.0985  0.8581
54798SOL     OW71633   5.887   4.976  12.133  0.1545  0.2873 -0.7299
54798SOL    HW171634   5.957   4.936  12.185 -1.8070 -1.2868  0.8735
54798SOL    HW271635   5.923   4.981  12.045  1.1954 -3.5516 -0.6918
54799SOL     OW71636  10.027   3.902   3.345 -0.6073 -0.4927 -0.2414
54799SOL    HW171637  10.106   3.872   3.390  1.4313  2.2303 -1.7000
54799SOL    HW271638   9.976   3.944   3.414 -0.1108 -1.0403  0.4775
54800SOL     OW71639  10.915   6.924   1.141  0.1646  0.3201  0.1039
54800SOL    HW171640  10.873   6.926   1.227 -0.7033 -0.2180 -0.2917
54800SOL    HW271641  10.947   7.013   1.127  0.1709  0.4509  0.9082
54801SOL     OW71642   3.159   1.018   8.436  0.1967 -0.0295  0.1267
54801SOL    HW171643   3.119   1.019   8.349 -2.0512  0.4992  1.1114
54801SOL    HW271644   3.121   0.941   8.479  2.4530 -1.1981  0.1872
54802SOL     OW71645   9.035   6.390   3.642 -0.9566  0.0114 -0.1372
54802SOL    HW171646   8.945   6.404   3.670 -0.5594 -0.1434  1.3237
54802SOL    HW271647   9.065   6.316   3.695 -0.2632 -0.5449 -1.2802
54803SOL     OW71648   9.087   1.509   2.169  0.0282  0.2092 -0.4875
54803SOL    HW171649   9.153   1.466   2.115 -0.2724 -1.2180  0.2277
54803SOL    HW271650   9.008   1.507   2.116  0.2768  0.9115 -0.8990
54804SOL     OW71651   1.256   1.974   0.348 -0.1225 -0.7249  0.2960
54804SOL    HW171652   1.219   1.971   0.260 -2.5987 -1.0011  1.2644
54804SOL    HW271653   1.224   2.057   0.384 -1.4003 -1.8130  1.8000
54805SOL     OW71654  12.205   1.977   3.458  0.0751 -0.3332  0.7509
54805SOL    HW171655  12.184   1.884   3.449 -2.7097  0.1312  1.5091
54805SOL    HW271656  12.177   2.016   3.375  0.7369 -0.0729  0.6443
54806SOL     OW71657   1.225   8.809   6.037  0.2689  0.1656  0.3965
54806SOL    HW171658   1.183   8.723   6.048 -0.4954  0.2413 -1.5132
54806SOL    HW271659   1.184   8.864   6.104 -0.5043 -0.5335  0.5173
54807SOL     OW71660   2.232   0.623  11.586 -0.6941 -0.4547  0.2009
54807SOL    HW171661   2.231   0.567  11.508 -3.5332  0.5231 -0.5790
54807SOL    HW271662   2.312   0.674  11.578 -0.1521 -1.4658 -1.2582
54808SOL     OW71663   3.019   9.165   5.730  0.2575 -0.7021  0.1751
54808SOL    HW171664   2.972   9.099   5.679  0.9030 -0.7720 -0.3508
54808SOL    HW271665   2.975   9.167   5.814 -1.5724  0.2327 -0.7613
54809SOL     OW71666   2.289  12.584   5.197 -0.0817 -0.1711  0.5616
54809SOL    HW171667   2.346  12.557   5.269  0.5177  0.0148  0.1650
54809SOL    HW271668   2.223  12.514   5.190 -0.1778 -0.1567  1.3229
54810SOL     OW71669   7.206  12.049   7.985 -0.4046  0.3329 -0.4479
54810SOL    HW171670   7.217  12.086   8.073 -0.0145 -1.0459  0.1064
54810SOL    HW271671   7.122  12.084   7.955 -1.1413 -0.1179  0.9814
54811SOL     OW71672   2.113   1.337   5.335 -0.0374  0.0466  0.6901
54811SOL    HW171673   2.185   1.312   5.276 -0.1173  0.3120  0.4811
54811SOL    HW271674   2.130   1.428   5.357  0.6170 -0.3574  1.9799
54812SOL     OW71675  10.741   5.013   6.041 -0.2991  0.7604  0.6281
54812SOL    HW171676  10.835   5.009   6.024 -0.2038  1.8436  0.8241
54812SOL    HW271677  10.719   4.927   6.076  0.4380  0.1666 -0.3044
54813SOL     OW71678   3.589   3.487  12.561  0.2224 -0.9025 -0.4252
54813SOL    HW171679   3.684   3.488  12.569  0.3196 -0.9234 -1.4141
54813SOL    HW271680   3.566   3.576  12.535 -0.1664 -0.5561  1.0093
54814SOL     OW71681  12.063  11.807   4.753 -0.2911 -0.0095  0.3607
54814SOL    HW171682  12.049  11.873   4.685  1.3062  0.3057  0.3072
54814SOL    HW271683  12.155  11.784   4.746 -0.4666 -1.1309  1.4015
54815SOL     OW71684   2.249   6.109   8.862  0.0881 -0.6085  0.2908
54815SOL    HW171685   2.154   6.104   8.861 -0.0311  1.0986 -0.5125
54815SOL    HW271686   2.276   6.065   8.781 -0.0652 -0.5203  0.1905
54816SOL     OW71687  12.601  10.994   3.535 -0.0398  0.3724 -0.0630
54816SOL    HW171688  12.633  11.078   3.569  1.0202  0.8506 -2.0692
54816SOL    HW271689  12.676  10.936   3.540 -0.8458 -0.5901  1.5614
54817SOL     OW71690  12.320  12.577   6.737 -0.3109 -0.4593  0.0957
54817SOL    HW171691  12.286  12.544   6.654  1.0729 -3.2336  0.5384
54817SOL    HW271692  12.243  12.616   6.780 -1.5972 -1.2131 -1.3997
54818SOL     OW71693   7.817   8.389   6.017 -0.3168  0.1723  0.2425
54818SOL    HW171694   7.777   8.460   5.967 -0.0721  1.7682  2.1616
54818SOL    HW271695   7.910   8.410   6.020  0.2838 -1.8123 -1.5026
54819SOL     OW71696   5.129   6.400   5.320 -0.2991  0.1449 -0.7372
54819SOL    HW171697   5.047   6.401   5.270 -0.1445  2.3627 -1.0604
54819SOL    HW271698   5.197   6.415   5.255  0.2778 -0.7022 -0.3350
54820SOL     OW71699   1.084   9.464   1.183  0.1542 -0.3279 -0.0408
54820SOL    HW171700   1.039   9.545   1.207  0.1257 -0.4665  0.3822
54820SOL    HW271701   1.157   9.492   1.128  0.2911  0.0053  0.3099
54821SOL     OW71702   4.815   1.679   7.381 -0.0561  0.7079 -0.3001
54821SOL    HW171703   4.835   1.731   7.303  0.6209  1.4490  0.3444
54821SOL    HW271704   4.720   1.686   7.391 -0.2884 -0.1648 -1.5650
54822SOL     OW71705   9.295   1.896   3.985  0.5970 -0.0637 -0.1989
54822SOL    HW171706   9.336   1.831   4.042  0.8697  0.3793  0.1161
54822SOL    HW271707   9.234   1.942   4.042  1.0139  0.5149 -0.2107
54823SOL     OW71708   8.282  11.846   1.360  0.3293 -0.3955 -0.0946
54823SOL    HW171709   8.206  11.858   1.304 -0.4927 -0.5881  0.9422
54823SOL    HW271710   8.337  11.923   1.343  0.0209 -0.3701 -1.0172
54824SOL     OW71711   0.127   9.482   3.566  0.3383 -0.7062  0.3836
54824SOL    HW171712   0.172   9.494   3.649  0.1316 -1.9486  0.6920
54824SOL    HW271713   0.036   9.505   3.585 -0.0953 -2.7533  1.0225
54825SOL     OW71714   4.990   1.174   1.469  0.2269  0.0914  0.1533
54825SOL    HW171715   5.043   1.110   1.421 -2.3938 -3.6985  1.7480
54825SOL    HW271716   4.912   1.187   1.414 -0.9177 -1.1010  1.3880
54826SOL     OW71717  12.034   9.545   2.542  0.1260 -0.1558 -0.4525
54826SOL    HW171718  11.980   9.620   2.566 -1.7011 -1.3772 -0.5736
54826SOL    HW271719  12.123   9.579   2.541 -0.4296  1.5237  1.4549
54827SOL     OW71720   2.231   0.738   6.268 -0.2040  0.0997  0.8932
54827SOL    HW171721   2.221   0.709   6.358  0.3602 -0.2155  0.8592
54827SOL    HW271722   2.257   0.659   6.220 -1.5967 -0.0087  0.2326
54828SOL     OW71723   1.383   5.046   2.647 -0.1954 -0.3398  0.2371
54828SOL    HW171724   1.334   5.083   2.721  1.5089  0.5056  1.0186
54828SOL    HW271725   1.346   4.959   2.634 -0.1077 -0.7833  2.5665
54829SOL     OW71726   3.277  10.580   7.516 -0.2120 -0.3971 -0.2263
54829SOL    HW171727   3.239  10.495   7.497 -0.2427 -0.6994  1.0929
54829SOL    HW271728   3.347  10.591   7.452 -0.1701 -1.4460 -0.3631
54830SOL     OW71729   0.162  11.827   4.301 -0.1603  0.4687  0.0104
54830SOL    HW171730   0.087  11.886   4.293 -0.4890  0.0587  0.0934
54830SOL    HW271731   0.126  11.739   4.290 -0.1262  0.0676  2.5198
54831SOL     OW71732   0.146  10.065   4.255  0.6531 -0.1611 -0.6301
54831SOL    HW171733   0.162   9.983   4.209 -2.1230 -0.2714 -1.6031
54831SOL    HW271734   0.080  10.044   4.320  0.0316  1.2349 -0.7610
54832SOL     OW71735  10.777   3.355   9.386  0.1373  0.0705  0.0691
54832SOL    HW171736  10.690   3.351   9.347 -0.8668  1.2024  2.0337
54832SOL    HW271737  10.819   3.273   9.359 -0.8603  0.2875 -2.3528
54833SOL     OW71738   7.448  11.068  10.123  0.2333 -0.7557  0.5034
54833SOL    HW171739   7.444  10.999  10.056  2.1630  0.9222 -1.4841
54833SOL    HW271740   7.389  11.136  10.091  1.6308  0.3197  0.1323
54834SOL     OW71741  11.284  11.247   0.955  0.4302  0.3769 -0.3109
54834SOL    HW171742  11.330  11.305   1.015 -0.8313  0.6085  0.4723
54834SOL    HW271743  11.217  11.204   1.008  0.5877 -0.9554 -1.1208
54835SOL     OW71744   2.723   7.668   7.306  0.4137 -0.1996  0.1768
54835SOL    HW171745   2.662   7.602   7.338  0.2319 -0.5128 -0.7918
54835SOL    HW271746   2.803   7.653   7.357  0.5847 -1.5775 -0.4547
54836SOL     OW71747   4.160   4.305   1.574 -0.0491 -0.1043 -0.2163
54836SOL    HW171748   4.131   4.214   1.579 -1.7356  0.3170 -1.5011
54836SOL    HW271749   4.092   4.353   1.622 -0.5533  0.7195 -1.7068
54837SOL     OW71750   6.795   8.810  12.259  0.4736 -0.0009 -0.0403
54837SOL    HW171751   6.827   8.725  12.289 -0.6370  0.3440  2.3191
54837SOL    HW271752   6.873   8.857  12.230  1.5884 -0.6297  1.7876
54838SOL     OW71753   9.511   8.415   3.603  0.7030  0.3623  0.0359
54838SOL    HW171754   9.473   8.336   3.643 -3.0772  0.5327 -2.7212
54838SOL    HW271755   9.464   8.487   3.644  1.8364  1.0245  0.2166
54839SOL     OW71756   1.192   5.436   9.252  0.5257  0.2714  0.1128
54839SOL    HW171757   1.157   5.469   9.335 -1.3669 -1.1943 -0.0193
54839SOL    HW271758   1.213   5.344   9.270  0.1244 -0.0529 -1.0147
54840SOL     OW71759   1.575  11.332   4.326 -0.4387  1.0076 -0.0547
54840SOL    HW171760   1.590  11.288   4.242 -0.7924 -0.2228  0.5049
54840SOL    HW271761   1.566  11.424   4.304  3.2384  1.2839 -0.9716
54841SOL     OW71762   2.746   8.494   8.997 -0.3034 -0.1741 -0.2237
54841SOL    HW171763   2.813   8.500   9.065  0.8159  0.5474 -1.3281
54841SOL    HW271764   2.787   8.441   8.928 -1.1464 -0.3165 -0.6297
54842SOL     OW71765  12.345   0.197   9.434 -0.1670 -0.2470 -0.6707
54842SOL    HW171766  12.406   0.161   9.369  0.4773 -0.7755  0.2123
54842SOL    HW271767  12.311   0.277   9.393 -0.5453 -1.0910 -2.0675
54843SOL     OW71768  12.586   6.891   2.525  0.2064 -0.2880 -0.0188
54843SOL    HW171769  12.610   6.944   2.601  0.0242 -2.6561  1.7864
54843SOL    HW271770  12.498   6.920   2.502 -0.2337 -0.3853  1.4648
54844SOL     OW71771   4.437   3.017   0.282 -0.1771  0.3040  0.6618
54844SOL    HW171772   4.422   2.923   0.270 -2.5091  0.6758  0.2055
54844SOL    HW271773   4.496   3.041   0.211 -2.7308 -0.1382 -1.7621
54845SOL     OW71774   0.090   9.278  11.713 -0.0525 -0.2939  0.0465
54845SOL    HW171775   0.017   9.266  11.652  0.5467 -2.1257 -0.3726
54845SOL    HW271776   0.148   9.340  11.668 -0.7091  0.1626 -0.1926
54846SOL     OW71777  10.625   2.218   8.795 -0.4425 -0.4096 -0.1847
54846SOL    HW171778  10.584   2.249   8.714  1.5229 -0.9538 -1.4536
54846SOL    HW271779  10.713   2.256   8.793  0.2444 -1.8821  0.7982
54847SOL     OW71780   7.099   0.573   7.859 -1.2527  0.3821  0.1752
54847SOL    HW171781   7.076   0.568   7.766  1.3136 -0.1506 -0.5008
54847SOL    HW271782   7.136   0.661   7.869  0.2729 -0.2365  0.1984
54848SOL     OW71783   0.328   7.030   6.879  0.2480  0.1350  0.1377
54848SOL    HW171784   0.277   7.104   6.846 -0.8594 -0.7549 -0.2041
54848SOL    HW271785   0.418   7.049   6.853 -0.5087 -0.4913 -3.5409
54849SOL     OW71786  12.190   7.337   8.875 -0.4669  0.2203 -0.7181
54849SOL    HW171787  12.259   7.361   8.815  0.1982  0.2924  0.0602
54849SOL    HW271788  12.195   7.401   8.945 -0.1818 -0.7821  0.2153
54850SOL     OW71789  10.258  12.481   2.059 -0.2833 -0.6538 -0.1884
54850SOL    HW171790  10.192  12.540   2.023  0.7096 -0.3259 -1.5411
54850SOL    HW271791  10.259  12.406   1.999  0.2084 -0.9012  0.1181
54851SOL     OW71792   5.073   7.806   6.165 -0.0259 -0.3693 -0.4543
54851SOL    HW171793   5.079   7.766   6.252  1.7650 -2.0432 -1.2638
54851SOL    HW271794   5.089   7.899   6.180  0.8243 -0.7169  0.9471
54852SOL     OW71795   5.606   1.236   5.551  0.8254  0.1468 -0.6525
54852SOL    HW171796   5.632   1.281   5.471 -0.0462 -0.4609 -1.2917
54852SOL    HW271797   5.550   1.164   5.522  0.0317  0.2461  0.5387
54853SOL     OW71798   9.988  11.529   2.031  0.5679 -0.0459 -0.3626
54853SOL    HW171799  10.058  11.568   2.084 -0.1707 -1.1155  1.5121
54853SOL    HW271800   9.908  11.568   2.066  0.1487  1.1558 -2.4694
54854SOL     OW71801   4.951  10.488   1.842  0.2150  0.1186 -0.3390
54854SOL    HW171802   5.001  10.480   1.761 -0.6882  0.4951 -0.9576
54854SOL    HW271803   5.016  10.480   1.912  1.0341 -0.0300 -1.1023
54855SOL     OW71804   3.207   5.606   1.606  0.1637 -0.0626  0.8349
54855SOL    HW171805   3.175   5.631   1.520 -0.1483  1.1640  1.2833
54855SOL    HW271806   3.254   5.525   1.592  1.2426  0.7939 -0.7180
54856SOL     OW71807   1.203   1.577  11.732 -0.3937 -0.3562 -0.5871
54856SOL    HW171808   1.119   1.587  11.687 -1.1087  0.5689  0.8814
54856SOL    HW271809   1.190   1.501  11.790 -0.2386 -0.1763 -0.3176
54857SOL     OW71810   6.398   3.861   3.279 -0.6188 -0.5208 -0.2048
54857SOL    HW171811   6.357   3.785   3.319 -3.3479  1.1798  0.4775
54857SOL    HW271812   6.468   3.885   3.339 -0.1655 -2.0532 -0.0852
54858SOL     OW71813   6.519   8.595   0.240  0.1475 -0.2333  0.7338
54858SOL    HW171814   6.510   8.682   0.202  2.2569  0.1211  0.9007
54858SOL    HW271815   6.441   8.548   0.212 -1.1209  1.7478  0.7784
54859SOL     OW71816   9.905   5.758   9.569  0.3199 -0.3210  0.6865
54859SOL    HW171817   9.980   5.807   9.534  2.0101 -2.4654  1.0866
54859SOL    HW271818   9.904   5.779   9.662 -1.8326  2.4000  0.1945
54860SOL     OW71819   6.932  11.951   0.008  0.3790  0.4747  0.3642
54860SOL    HW171820   7.005  11.954   0.070 -0.6419  2.1223  1.5656
54860SOL    HW271821   6.857  11.924   0.061 -0.4864  1.7958 -0.1207
54861SOL     OW71822   0.488   0.030   2.774 -0.6447  0.3525 -0.2582
54861SOL    HW171823   0.394   0.030   2.787 -0.8727 -1.4236 -1.4931
54861SOL    HW271824   0.518  -0.053   2.813  0.4469  0.9637  0.2722
54862SOL     OW71825  10.975   9.215   4.082 -0.4980 -0.4591 -0.0160
54862SOL    HW171826  10.941   9.238   4.169 -0.0525  1.2637 -0.2670
54862SOL    HW271827  10.917   9.145   4.051 -2.2341  0.6548  0.6148
54863SOL     OW71828   9.439   2.870   9.217 -0.1152 -0.0859  0.1394
54863SOL    HW171829   9.470   2.809   9.150  0.2578  0.0270  0.2071
54863SOL    HW271830   9.517   2.893   9.267 -0.6775 -1.7238  1.8888
54864SOL     OW71831  10.577  11.488  12.411  0.0623  0.3557  0.1031
54864SOL    HW171832  10.669  11.497  12.388  0.3025  1.9987  1.4647
54864SOL    HW271833  10.577  11.453  12.501 -0.6604 -0.1354 -0.0756
54865SOL     OW71834   5.890   2.639   6.156 -0.4866 -0.7594 -0.2454
54865SOL    HW171835   5.909   2.731   6.174 -2.2306 -0.5613  0.8624
54865SOL    HW271836   5.873   2.635   6.062 -3.3402  0.7106  0.0992
54866SOL     OW71837   4.468   1.999  11.530 -0.5494  0.1391 -0.2338
54866SOL    HW171838   4.535   1.987  11.597 -0.6065 -0.1525 -0.2275
54866SOL    HW271839   4.472   2.092  11.508  1.1143 -0.1882 -1.5460
54867SOL     OW71840   3.169   8.961   6.774 -0.8553 -0.3182 -0.4199
54867SOL    HW171841   3.135   9.015   6.846 -0.8682 -0.9149  0.0247
54867SOL    HW271842   3.227   8.898   6.816  0.4113  0.3436 -1.1072
54868SOL     OW71843   2.462  12.193   6.897 -0.1101 -0.0494 -0.3271
54868SOL    HW171844   2.402  12.118   6.891 -0.3728  0.1470 -0.1756
54868SOL    HW271845   2.479  12.203   6.991  1.2998 -0.9945 -0.4513
54869SOL     OW71846   5.093   9.988  10.488 -0.3174 -0.3767 -0.0350
54869SOL    HW171847   5.119  10.004  10.397 -3.2438 -0.0845 -0.9385
54869SOL    HW271848   5.105   9.894  10.500  1.9107 -0.1480 -0.0108
54870SOL     OW71849   4.607  10.891   3.574 -0.3234 -0.5176 -0.1818
54870SOL    HW171850   4.654  10.823   3.524 -0.3065 -0.9330  0.3982
54870SOL    HW271851   4.517  10.885   3.543 -0.1883 -0.3562 -0.6136
54871SOL     OW71852   4.007   8.083  12.032  0.1291 -0.3049 -0.2580
54871SOL    HW171853   3.971   7.994  12.030  0.3343 -0.3782 -1.3193
54871SOL    HW271854   3.931   8.140  12.044  0.0304 -0.6296  0.7492
54872SOL     OW71855   1.222   0.687   1.166 -0.0792 -0.1436  0.0725
54872SOL    HW171856   1.180   0.604   1.142  0.0776 -0.0993 -0.3569
54872SOL    HW271857   1.283   0.663   1.236  0.7515 -0.5927 -0.7767
54873SOL     OW71858   3.970   7.682   0.234 -0.0404  0.3692 -0.2352
54873SOL    HW171859   4.024   7.760   0.227  0.5866 -0.0663 -0.3466
54873SOL    HW271860   3.915   7.684   0.156  1.1180 -0.1435 -1.0926
54874SOL     OW71861   4.472   8.263   4.668 -0.8832  0.0688 -0.5862
54874SOL    HW171862   4.411   8.277   4.595 -1.3905  1.4889  0.0667
54874SOL    HW271863   4.488   8.351   4.702 -1.0512 -0.6093  1.3246
54875SOL     OW71864   3.707   5.294   0.186 -0.3632  0.0110 -0.1205
54875SOL    HW171865   3.711   5.384   0.155 -0.6120  0.0704  0.0200
54875SOL    HW271866   3.798   5.268   0.197 -0.3046  0.6246  0.9448
54876SOL     OW71867  12.093  10.651   3.456 -0.3375 -0.0765  0.1250
54876SOL    HW171868  12.106  10.696   3.539  0.7463 -0.6707  0.2895
54876SOL    HW271869  12.047  10.571   3.479 -0.3394 -0.0827  0.1006
54877SOL     OW71870   7.219   4.589  10.866  0.3869  0.1754  0.0469
54877SOL    HW171871   7.219   4.609  10.959  0.9954  0.7336 -0.0698
54877SOL    HW271872   7.233   4.494  10.862 -2.0337 -0.2901  0.5788
54878SOL     OW71873   2.431   9.798   2.610  0.1530 -0.1367 -0.0684
54878SOL    HW171874   2.336   9.792   2.611  0.1554 -0.4093 -0.6742
54878SOL    HW271875   2.460   9.715   2.571  0.6932 -0.5607  1.1732
54879SOL     OW71876  11.332   9.878   0.207  0.2426 -0.5624  0.1824
54879SOL    HW171877  11.390   9.948   0.180  0.7125 -0.4517  1.4243
54879SOL    HW271878  11.375   9.838   0.283  0.2679 -2.5614 -0.8290
54880SOL     OW71879   7.951   3.300  10.224 -0.1240 -0.1169  0.8063
54880SOL    HW171880   7.948   3.243  10.147 -1.4134  3.2697 -1.9381
54880SOL    HW271881   7.865   3.292  10.263 -0.4874  0.3070  0.1103
54881SOL     OW71882   4.386  11.265   1.267 -0.2829  0.2348 -0.3842
54881SOL    HW171883   4.391  11.181   1.313 -2.4951 -0.1336 -0.6989
54881SOL    HW271884   4.361  11.328   1.335 -1.2807  0.1176 -0.6305
54882SOL     OW71885   0.384   8.850   1.274  0.0863  0.2002 -0.2241
54882SOL    HW171886   0.353   8.761   1.254 -1.0216  0.1448  1.5769
54882SOL    HW271887   0.468   8.856   1.228 -1.2964 -0.5913 -3.1068
54883SOL     OW71888   6.026   5.407   0.486 -0.0189 -0.1308 -0.1124
54883SOL    HW171889   6.002   5.423   0.395  1.9067  0.9275 -0.4849
54883SOL    HW271890   6.103   5.351   0.481  0.0644 -0.1258  0.8736
54884SOL     OW71891   8.823   9.775   6.866  0.4060 -0.1782 -0.6003
54884SOL    HW171892   8.728   9.783   6.873  0.2204 -2.7203  1.8013
54884SOL    HW271893   8.837   9.691   6.822  1.4507 -0.5893  0.4477
54885SOL     OW71894   4.770  11.762   3.134 -0.2810  0.2904  0.3625
54885SOL    HW171895   4.798  11.834   3.191  2.6672 -1.7488  1.7137
54885SOL    HW271896   4.792  11.792   3.046  0.9683  1.0516  0.9007
54886SOL     OW71897  11.541   3.635  10.977  0.0765 -0.1674 -0.2375
54886SOL    HW171898  11.460   3.669  10.939  0.5159  0.4690 -0.6220
54886SOL    HW271899  11.543   3.543  10.952 -0.5772 -0.2103 -0.1411
54887SOL     OW71900   1.045   9.101   0.868 -0.2097  0.2411 -0.3843
54887SOL    HW171901   1.133   9.072   0.843 -1.0249 -0.8222 -2.2523
54887SOL    HW271902   1.053   9.130   0.959  1.3053 -3.1287  0.6756
54888SOL     OW71903   4.349   5.380   2.353  0.3616 -0.5583  0.4736
54888SOL    HW171904   4.348   5.455   2.412  1.2960 -0.3771  0.2732
54888SOL    HW271905   4.412   5.320   2.392  0.7703 -0.5652 -0.1788
54889SOL     OW71906   5.192  10.676   6.539  0.0111  0.3677 -0.8973
54889SOL    HW171907   5.274  10.646   6.499 -0.3627 -0.3290 -1.1558
54889SOL    HW271908   5.215  10.697   6.630  0.5584  0.5688 -1.0809
54890SOL     OW71909   1.725   0.969   2.944  0.3089  0.3575  0.5287
54890SOL    HW171910   1.674   1.048   2.928 -0.8235  0.0525  2.4070
54890SOL    HW271911   1.746   0.936   2.856 -1.7231  1.1284 -0.3076
54891SOL     OW71912   6.496   4.268   9.467 -0.4307  0.6291  0.2671
54891SOL    HW171913   6.553   4.341   9.492  1.9199 -0.9362 -0.1899
54891SOL    HW271914   6.507   4.261   9.372  0.0950 -0.8284  0.4076
54892SOL     OW71915   4.269   7.767   2.514 -0.4369  0.1556  0.4785
54892SOL    HW171916   4.348   7.727   2.552 -0.2667  0.1510  0.1195
54892SOL    HW271917   4.274   7.747   2.421 -1.2451 -0.4760  0.5700
54893SOL     OW71918   5.317   3.938   5.033 -0.1139  0.3285  0.4710
54893SOL    HW171919   5.265   3.875   4.984  1.0021  0.2940 -0.7242
54893SOL    HW271920   5.269   3.950   5.115 -0.4428 -1.9341  0.6706
54894SOL     OW71921   7.840   0.128  11.914  0.6720  0.2720 -0.4076
54894SOL    HW171922   7.878   0.163  11.995  1.4162 -1.1227 -0.1171
54894SOL    HW271923   7.756   0.173  11.906  1.4302  1.8650  0.0841
54895SOL     OW71924   3.142  10.525   5.401 -0.7304 -0.2033  0.3328
54895SOL    HW171925   3.048  10.523   5.386 -0.7449  2.0158 -0.2504
54895SOL    HW271926   3.153  10.566   5.487 -0.2969  0.0893  0.1451
54896SOL     OW71927   7.684   5.539   1.418 -0.4035 -1.0586 -0.2518
54896SOL    HW171928   7.687   5.527   1.513  2.2402  1.0079  0.0411
54896SOL    HW271929   7.768   5.505   1.387  0.9983  2.7214 -1.0928
54897SOL     OW71930  10.497  10.498   7.219 -0.0108  0.0400  0.1862
54897SOL    HW171931  10.455  10.558   7.158  1.2724  0.9057  0.1202
54897SOL    HW271932  10.567  10.457   7.169  0.2647 -0.1777  0.7377
54898SOL     OW71933   2.581   3.769   7.462 -0.0656  0.5315  0.2165
54898SOL    HW171934   2.502   3.787   7.513 -0.0988  2.6683 -0.4635
54898SOL    HW271935   2.639   3.723   7.523 -0.9144  1.1090  1.5090
54899SOL     OW71936   1.247   0.026   6.354 -0.2717  0.1197 -0.7888
54899SOL    HW171937   1.188  -0.048   6.366  0.4333 -0.0660  2.3667
54899SOL    HW271938   1.192   0.104   6.368 -0.1929  0.0170  0.1387
54900SOL     OW71939   3.194   0.382   5.306  0.0831  0.5524  0.3424
54900SOL    HW171940   3.156   0.310   5.356 -1.6593  1.0005 -0.2728
54900SOL    HW271941   3.283   0.352   5.284 -1.2061 -2.3124 -1.5977
54901SOL     OW71942   5.569   8.406   0.671  0.1947 -0.9068  0.4122
54901SOL    HW171943   5.583   8.498   0.696 -0.8737 -0.6763  0.1975
54901SOL    HW271944   5.529   8.366   0.748 -2.9675 -0.2300 -0.7419
54902SOL     OW71945   3.855   7.993  12.556 -0.4804 -0.0771 -0.1328
54902SOL    HW171946   3.853   7.900  12.536 -0.0642 -1.0484  3.6712
54902SOL    HW271947   3.947   8.018  12.546 -0.2918 -0.5186  0.4278
54903SOL     OW71948  10.783   5.111   8.550 -0.0647  0.1724  0.6753
54903SOL    HW171949  10.688   5.126   8.555 -0.1714  0.3334 -1.2099
54903SOL    HW271950  10.822   5.196   8.571 -0.3214  0.1434  1.3106
54904SOL     OW71951   1.186   5.724  10.178  0.2287  0.2342 -0.0193
54904SOL    HW171952   1.171   5.728  10.272  0.6965  1.3416  0.0172
54904SOL    HW271953   1.268   5.675  10.169 -0.5759 -1.1813  0.0506
54905SOL     OW71954   2.758  11.113   2.046 -0.3012 -0.2262 -0.0860
54905SOL    HW171955   2.788  11.022   2.053 -0.6946 -0.2503  2.0811
54905SOL    HW271956   2.664  11.106   2.030 -0.2287 -0.2005 -0.5171
54906SOL     OW71957  11.580   3.332   3.768  0.7129 -0.2910  0.2875
54906SOL    HW171958  11.496   3.286   3.769 -0.0521  1.0614  0.7081
54906SOL    HW271959  11.601   3.346   3.861  1.0498 -0.0123  0.1745
54907SOL     OW71960   6.290   0.263  11.356 -0.0295  0.4523 -0.1882
54907SOL    HW171961   6.248   0.185  11.319  0.9852 -0.7910  1.1223
54907SOL    HW271962   6.220   0.310  11.400 -0.4637 -0.3440 -0.0126
54908SOL     OW71963   5.593   4.214   6.688  0.3014  0.0666  0.3006
54908SOL    HW171964   5.572   4.247   6.600  1.4710 -0.3531 -0.1639
54908SOL    HW271965   5.687   4.193   6.683  0.5251  0.5807  1.8279
54909SOL     OW71966   6.860   2.624   5.564 -0.5980 -0.6627  0.4927
54909SOL    HW171967   6.815   2.699   5.526  0.6523  0.2746  0.7997
54909SOL    HW271968   6.791   2.558   5.575 -1.1582 -0.8780 -2.9666
54910SOL     OW71969   1.282   7.122   1.616  0.4225  0.0716 -0.1171
54910SOL    HW171970   1.194   7.129   1.578  0.1174  1.0791  0.7232
54910SOL    HW271971   1.278   7.175   1.696  1.2411 -1.4604  0.9922
54911SOL     OW71972   3.949  11.134  10.245  0.1119 -0.2690 -0.1212
54911SOL    HW171973   3.942  11.127  10.150 -1.5383  1.8145 -0.2303
54911SOL    HW271974   4.043  11.147  10.261  0.4007 -0.5151 -1.4700
54912SOL     OW71975   9.339   4.289   5.821  0.1890  0.2319  0.3792
54912SOL    HW171976   9.403   4.259   5.886  0.6092 -0.2667 -0.2522
54912SOL    HW271977   9.359   4.237   5.742 -0.3930  0.7352 -0.1060
54913SOL     OW71978   2.431   1.782   4.259 -0.5017  0.8934  0.1121
54913SOL    HW171979   2.378   1.713   4.219 -0.2586  1.1865 -0.7487
54913SOL    HW271980   2.379   1.861   4.251 -0.2119  1.0627 -0.1671
54914SOL     OW71981  10.728   8.265   7.481  0.0474  0.3008 -0.0861
54914SOL    HW171982  10.720   8.273   7.576  3.6572 -0.0779  0.3745
54914SOL    HW271983  10.709   8.173   7.463  0.0926  0.1961  0.3867
54915SOL     OW71984   8.175   4.175   9.338 -0.6970  0.2005  0.2708
54915SOL    HW171985   8.134   4.130   9.265 -0.2462  1.0162 -0.4979
54915SOL    HW271986   8.119   4.156   9.413 -1.9790  0.5567 -0.5759
54916SOL     OW71987  11.616   9.953   5.183 -0.1488  0.1895 -0.3867
54916SOL    HW171988  11.687   9.902   5.143  0.6596 -0.6008  1.9025
54916SOL    HW271989  11.633   9.947   5.277 -2.6475  0.9122  0.1670
54917SOL     OW71990   8.687   2.845   4.905  0.3571 -0.5782  0.6320
54917SOL    HW171991   8.612   2.791   4.879  0.5864 -1.2309  1.2822
54917SOL    HW271992   8.680   2.924   4.851  0.1080 -1.3262 -0.4569
54918SOL     OW71993   9.634   2.832   4.896  0.5568  0.3520  0.0209
54918SOL    HW171994   9.707   2.817   4.836 -0.3029  0.4813 -1.0989
54918SOL    HW271995   9.576   2.757   4.883  0.9522 -0.2829  1.6591
54919SOL     OW71996   8.077   8.086   6.947 -0.5604  0.0036 -0.1687
54919SOL    HW171997   8.171   8.075   6.937 -0.4042 -0.0505  1.1495
54919SOL    HW271998   8.040   8.000   6.923 -0.1712 -0.3287  0.3985
54920SOL     OW71999   4.303   3.268   0.783 -0.0144 -0.0146 -0.0248
54920SOL    HW172000   4.376   3.255   0.722  1.6139  0.4375  1.7403
54920SOL    HW272001   4.281   3.180   0.814 -0.2255 -0.1474 -0.5341
54921SOL     OW72002  11.549  10.763   3.057  0.4955 -0.1238 -0.1498
54921SOL    HW172003  11.453  10.759   3.064  0.3527  1.4946 -0.7782
54921SOL    HW272004  11.566  10.835   2.996  2.1290  0.1224  0.5410
54922SOL     OW72005   2.504   2.256   5.279  0.5887  0.3104 -0.3217
54922SOL    HW172006   2.525   2.162   5.273 -0.5868  0.0507 -0.5005
54922SOL    HW272007   2.574   2.292   5.334  0.5431 -0.8454  0.5263
54923SOL     OW72008   0.636   2.030   9.298 -0.0771 -0.3309  0.3829
54923SOL    HW172009   0.632   2.126   9.293  0.6673 -0.3037  0.1944
54923SOL    HW272010   0.567   2.006   9.359  0.1501  0.3770  0.9278
54924SOL     OW72011   5.178  11.683   9.700  0.0168  0.2414  0.1437
54924SOL    HW172012   5.090  11.673   9.736  0.8399  0.1281  2.2392
54924SOL    HW272013   5.188  11.778   9.688 -0.1707  0.3104  0.5052
54925SOL     OW72014  12.100  11.072  10.820  0.2936  0.4566  0.0062
54925SOL    HW172015  12.043  10.995  10.814  0.5129  0.0064  2.5584
54925SOL    HW272016  12.112  11.100  10.729 -0.9376 -1.6723 -0.8931
54926SOL     OW72017   2.570   2.217   6.414  1.0589 -1.1174  0.3104
54926SOL    HW172018   2.493   2.264   6.447  2.9816  2.0250  0.7810
54926SOL    HW272019   2.555   2.209   6.320 -0.1362 -1.1701  0.4911
54927SOL     OW72020   7.716   3.214   3.488 -0.0707 -0.1530 -0.5693
54927SOL    HW172021   7.717   3.119   3.481 -0.2569 -0.0545 -2.1717
54927SOL    HW272022   7.683   3.231   3.577  0.9248 -1.5716  0.0995
54928SOL     OW72023   4.931   4.001  11.646 -0.4128 -0.5705  0.0461
54928SOL    HW172024   4.948   3.916  11.686  1.0455 -1.2484 -1.8720
54928SOL    HW272025   4.878   3.981  11.569  1.7633 -0.0452 -1.6462
54929SOL     OW72026   8.204  10.061   4.549 -0.2029 -0.2540 -0.0097
54929SOL    HW172027   8.155   9.992   4.505  0.9894 -0.9845 -0.2212
54929SOL    HW272028   8.295  10.033   4.544  0.1418  0.5401  1.3449
54930SOL     OW72029   4.567   0.691  10.551  0.1580 -0.2799  0.2150
54930SOL    HW172030   4.519   0.737  10.483 -0.6436 -0.4155  0.6756
54930SOL    HW272031   4.526   0.604  10.554  0.2337 -0.2964  0.8192
54931SOL     OW72032   8.368   5.436   5.026  0.2192  0.0952 -0.6355
54931SOL    HW172033   8.328   5.360   5.069  0.9527 -0.6625 -1.2840
54931SOL    HW272034   8.454   5.444   5.067  0.6142 -0.1589 -1.4036
54932SOL     OW72035   1.597   1.438  10.525 -0.2620  0.2068 -0.5726
54932SOL    HW172036   1.658   1.466  10.593 -0.2176 -0.1339 -0.4716
54932SOL    HW272037   1.523   1.498  10.534  0.3283  1.0367 -1.1144
54933SOL     OW72038   7.233   7.951   6.361  0.9258 -0.0095 -0.7221
54933SOL    HW172039   7.318   7.980   6.394  0.2927 -1.1227  2.2333
54933SOL    HW272040   7.171   8.017   6.393  0.4670 -0.1836 -1.2329
54934SOL     OW72041   2.982  10.462   8.720 -0.4604  0.4941  0.1917
54934SOL    HW172042   3.052  10.397   8.724 -0.0239  0.9027 -0.5230
54934SOL    HW272043   2.941  10.458   8.806  0.0453 -0.1900  0.4140
54935SOL     OW72044  12.148   1.354   4.686  0.3084  0.3046  0.3301
54935SOL    HW172045  12.061   1.319   4.705  0.8510 -1.1582  0.2427
54935SOL    HW272046  12.144   1.445   4.713 -1.7492  0.7356 -1.1646
54936SOL     OW72047   5.734   3.856   5.625  0.1775 -0.1811  0.1193
54936SOL    HW172048   5.769   3.907   5.552  0.6727  2.5846  2.1101
54936SOL    HW272049   5.796   3.783   5.635 -0.7703 -1.6004 -3.0734
54937SOL     OW72050   6.544   6.494   3.580 -0.0695 -0.3266 -0.0074
54937SOL    HW172051   6.511   6.583   3.594  0.2071 -0.4347  1.4530
54937SOL    HW272052   6.523   6.448   3.661  1.5529 -1.0560  0.0175
54938SOL     OW72053  10.233   7.973   9.977  0.2545  0.5515 -0.3078
54938SOL    HW172054  10.206   8.027  10.051  0.5223  0.3715 -0.0787
54938SOL    HW272055  10.322   8.002   9.956  0.5603 -0.0761  0.0804
54939SOL     OW72056   2.018   7.901   2.447 -0.1866  0.1632  1.0947
54939SOL    HW172057   1.971   7.943   2.519  0.2285  1.0499  0.8525
54939SOL    HW272058   2.068   7.971   2.405 -0.3119 -0.3613  0.0194
54940SOL     OW72059   0.154   6.825   5.694  0.0437 -0.4671  0.1652
54940SOL    HW172060   0.144   6.777   5.777 -0.3575 -0.4784  0.1134
54940SOL    HW272061   0.147   6.757   5.627  0.0786 -0.4188  0.1136
54941SOL     OW72062   8.684   2.542   3.970  0.3240  0.2447  0.1840
54941SOL    HW172063   8.589   2.539   3.980  0.0415  1.3720 -1.7672
54941SOL    HW272064   8.699   2.607   3.901  2.5194  0.1529  0.5167
54942SOL     OW72065   5.328   2.399   2.622 -0.2738 -0.1090 -0.5483
54942SOL    HW172066   5.290   2.445   2.547  0.9185 -0.0280 -1.1268
54942SOL    HW272067   5.323   2.463   2.693 -1.7747 -0.3223 -0.4241
54943SOL     OW72068  11.596   2.268   8.789 -0.2614 -0.0343 -0.0048
54943SOL    HW172069  11.529   2.205   8.763 -0.7535  0.6342 -0.3786
54943SOL    HW272070  11.662   2.262   8.719 -1.5641  1.7308 -1.4717
54944SOL     OW72071   9.622   9.856   6.104 -0.4912 -0.2534  0.5910
54944SOL    HW172072   9.584   9.944   6.101  0.2016  0.0333  0.0046
54944SOL    HW272073   9.710   9.866   6.069 -0.9884 -1.4797 -1.1298
54945SOL     OW72074   2.754   3.994   0.050  0.2677 -0.3399 -0.3567
54945SOL    HW172075   2.709   4.013   0.132  2.4081  2.4800  0.3330
54945SOL    HW272076   2.825   3.934   0.075 -0.0900 -0.8118 -0.4726
54946SOL     OW72077  10.095   3.060   6.463 -0.4193 -0.2893 -0.4288
54946SOL    HW172078  10.162   3.004   6.423 -0.4921 -0.5315 -0.2101
54946SOL    HW272079  10.128   3.149   6.449  1.0018 -0.4479  1.5084
54947SOL     OW72080   7.029   4.302   4.054 -0.0248  0.3155  0.1357
54947SOL    HW172081   7.055   4.300   3.962  1.0036 -0.2942  0.4186
54947SOL    HW272082   6.939   4.270   4.054 -0.9231  2.6329 -0.8990
54948SOL     OW72083   1.255   0.431   9.886  0.6693  0.4557 -0.4703
54948SOL    HW172084   1.244   0.498   9.819  1.3908  0.3362 -0.7090
54948SOL    HW272085   1.347   0.407   9.882  0.3482 -0.8114 -0.6311
54949SOL     OW72086   0.637   4.002   1.144 -0.4077 -0.5538 -0.2810
54949SOL    HW172087   0.705   3.994   1.077  0.5000  0.8805  0.4262
54949SOL    HW272088   0.572   4.060   1.104 -0.0030  0.0742 -0.0371
54950SOL     OW72089   4.629   9.216   3.547  1.0372  0.7311  0.1136
54950SOL    HW172090   4.718   9.250   3.534  1.2719 -0.8776 -4.2029
54950SOL    HW272091   4.575   9.268   3.487 -0.5379  0.2759  1.0844
54951SOL     OW72092  10.732  11.650  11.832 -0.4326 -0.1294 -0.4433
54951SOL    HW172093  10.638  11.669  11.838 -0.1764  0.8986  1.0773
54951SOL    HW272094  10.750  11.594  11.908  0.4277  0.9358  0.1759
54952SOL     OW72095  11.822   6.795   7.650  0.1123  0.0124 -0.0380
54952SOL    HW172096  11.868   6.857   7.593  1.1809 -1.3144 -0.6930
54952SOL    HW272097  11.779   6.849   7.715  1.7208  1.3967 -0.0541
54953SOL     OW72098   0.412  11.718   2.538  0.0342 -0.1867 -0.2111
54953SOL    HW172099   0.445  11.741   2.625  1.2603 -1.1230 -0.3960
54953SOL    HW272100   0.479  11.749   2.478 -0.8072  0.4529 -0.8363
54954SOL     OW72101   8.015   5.144   9.733  0.1491 -0.4722  0.1410
54954SOL    HW172102   8.033   5.191   9.652 -0.8525 -1.7774 -0.8937
54954SOL    HW272103   7.968   5.206   9.788  1.2262  0.5724 -0.0820
54955SOL     OW72104   7.706   5.691   4.799  0.3202 -0.4254 -0.4488
54955SOL    HW172105   7.780   5.735   4.759  0.1915 -0.6017 -0.8914
54955SOL    HW272106   7.729   5.682   4.892  1.8617 -2.5077 -0.9653
54956SOL     OW72107   7.309   3.086   4.499  0.0747 -0.1828 -0.2778
54956SOL    HW172108   7.278   3.047   4.580 -1.5101  0.3821 -0.5770
54956SOL    HW272109   7.324   3.177   4.520  1.1763 -0.3597 -0.2475
54957SOL     OW72110  12.209  12.263   2.255 -0.3186 -0.5855 -0.3168
54957SOL    HW172111  12.193  12.301   2.169  3.0084 -0.9700 -1.2450
54957SOL    HW272112  12.247  12.177   2.237 -0.9194 -1.2967  1.5834
54958SOL     OW72113   6.617  11.836   0.127 -0.0368  0.1277 -0.2453
54958SOL    HW172114   6.542  11.880   0.086  1.9524  3.4729 -0.6157
54958SOL    HW272115   6.596  11.836   0.220 -0.4572  1.1702 -0.3250
54959SOL     OW72116   5.246  10.308   7.645  0.2982  0.0787  0.5697
54959SOL    HW172117   5.327  10.265   7.619  0.4417 -0.8549  2.3655
54959SOL    HW272118   5.275  10.380   7.701  0.0359  2.3383 -1.9864
54960SOL     OW72119   0.613  10.461   5.513 -0.0595  0.5425 -0.2489
54960SOL    HW172120   0.613  10.378   5.561 -0.1458 -0.4170 -1.8361
54960SOL    HW272121   0.697  10.463   5.468 -1.0517  0.0361 -2.2536
54961SOL     OW72122   4.424   9.450   4.262 -0.0273  0.1512  0.2621
54961SOL    HW172123   4.382   9.385   4.205  0.2882  0.0537  0.1413
54961SOL    HW272124   4.354   9.476   4.322 -0.0240 -0.6648  0.6364
54962SOL     OW72125   0.946   8.701   1.941  0.2789  0.0515 -0.0193
54962SOL    HW172126   0.964   8.609   1.920  0.4163  0.3792 -1.4423
54962SOL    HW272127   0.857   8.716   1.908  0.0235  0.2828  0.7534
54963SOL     OW72128   6.030   8.972   7.276 -0.9637 -0.1613 -0.3999
54963SOL    HW172129   5.979   8.923   7.211 -2.0593  1.5628 -0.8790
54963SOL    HW272130   5.995   9.061   7.273  2.4645  1.3082 -1.1920
54964SOL     OW72131   2.923  10.301  12.019 -0.0293 -0.1505 -0.2152
54964SOL    HW172132   2.999  10.346  11.983  0.2014  0.3425  0.8517
54964SOL    HW272133   2.884  10.364  12.080 -0.3128 -0.9971  0.5065
54965SOL     OW72134   5.593  12.174   2.346 -0.1324 -0.4682  0.0765
54965SOL    HW172135   5.657  12.105   2.330  0.4825  0.6017 -2.7221
54965SOL    HW272136   5.607  12.237   2.275 -2.3247  1.3087  1.0675
54966SOL     OW72137   0.497   5.541   0.069  0.0268  0.0757 -0.3016
54966SOL    HW172138   0.411   5.580   0.085  0.6012  1.5232 -0.5738
54966SOL    HW272139   0.533   5.525   0.156  0.2552  1.2962 -0.1544
54967SOL     OW72140  11.198   7.785  11.921  0.0325  0.7856  0.5763
54967SOL    HW172141  11.178   7.747  12.007 -1.0296  1.5358  0.6683
54967SOL    HW272142  11.126   7.845  11.903 -0.4882 -0.3494 -1.4564
54968SOL     OW72143   5.095   8.914   9.171 -0.1188  0.5958 -0.2121
54968SOL    HW172144   5.033   8.851   9.207 -1.7488  1.1177 -1.9409
54968SOL    HW272145   5.171   8.862   9.146 -0.3693 -0.2635  0.7735
54969SOL     OW72146  10.843   1.251   4.199  0.6969 -0.0026  0.5257
54969SOL    HW172147  10.790   1.259   4.120  2.3681  1.1847 -0.5140
54969SOL    HW272148  10.923   1.207   4.171  1.5045  0.8252  1.4496
54970SOL     OW72149  11.148   7.916   8.746 -0.6363  0.2565  0.0337
54970SOL    HW172150  11.089   7.843   8.724 -0.4355  0.2074 -0.3325
54970SOL    HW272151  11.089   7.987   8.772 -0.8389  0.0308  0.1977
54971SOL     OW72152   7.098   7.860   3.163 -0.2880 -0.2415  0.3003
54971SOL    HW172153   7.034   7.931   3.167 -0.3737 -0.3901  2.0198
54971SOL    HW272154   7.061   7.798   3.100 -1.0359  0.4138  0.0747
54972SOL     OW72155  12.298   0.435  11.617 -0.0830  0.3741 -0.4492
54972SOL    HW172156  12.347   0.365  11.574 -0.2096  0.5055 -0.8226
54972SOL    HW272157  12.275   0.495  11.545 -1.3537 -0.0200 -0.3928
54973SOL     OW72158  12.691   4.733   6.261  0.1158  0.0198  0.2706
54973SOL    HW172159  12.611   4.693   6.227  0.3491 -0.8111  0.6598
54973SOL    HW272160  12.747   4.745   6.185  1.3412 -3.4462  0.4595
54974SOL     OW72161  11.960   1.354   8.409  0.0137  0.4806  0.0425
54974SOL    HW172162  11.980   1.378   8.499  1.4155  0.1990 -0.1772
54974SOL    HW272163  11.887   1.412   8.385 -0.9927 -0.0593  1.6220
54975SOL     OW72164  12.351   0.532   8.584 -0.1675 -0.6129 -0.4989
54975SOL    HW172165  12.423   0.476   8.612  0.7537 -0.0915 -1.7648
54975SOL    HW272166  12.369   0.552   8.492 -1.2145  0.6121 -0.4725
54976SOL     OW72167  10.519   6.501   3.373 -0.5566 -0.0275 -0.0149
54976SOL    HW172168  10.601   6.550   3.362 -0.4465 -0.6191 -2.1850
54976SOL    HW272169  10.451   6.564   3.350 -0.7572  0.3589  1.4651
54977SOL     OW72170  11.321   3.236   6.641  0.4507  0.2865  0.1083
54977SOL    HW172171  11.338   3.209   6.731 -0.9936 -0.9722  0.0355
54977SOL    HW272172  11.361   3.168   6.587 -0.6456 -0.1901 -0.1361
54978SOL     OW72173   3.375   8.394   8.391  0.2181  0.5191  0.4790
54978SOL    HW172174   3.414   8.463   8.444 -3.0045  2.6765  0.3318
54978SOL    HW272175   3.292   8.373   8.435 -1.0521  0.0824 -1.9285
54979SOL     OW72176   7.230   3.620   6.899  0.3866  0.3547 -0.3854
54979SOL    HW172177   7.220   3.711   6.926  0.9051  0.2711  0.0911
54979SOL    HW272178   7.141   3.585   6.900  0.0828  1.0601 -1.3245
54980SOL     OW72179   9.197  11.491   5.136  0.0987 -0.5742  0.9698
54980SOL    HW172180   9.197  11.531   5.049 -0.9939 -2.5969 -0.0250
54980SOL    HW272181   9.202  11.565   5.196 -0.8301  1.0029 -0.7861
54981SOL     OW72182   5.777  11.926   1.282  0.2325  0.1673 -0.3484
54981SOL    HW172183   5.718  11.850   1.280 -1.7413  1.6131 -1.8997
54981SOL    HW272184   5.718  12.002   1.285  2.1112  1.6938  0.8733
54982SOL     OW72185   0.212   3.405  12.597 -0.2652  0.0048  0.1074
54982SOL    HW172186   0.130   3.427  12.552 -0.3578 -0.3246  0.1119
54982SOL    HW272187   0.208   3.310  12.608 -0.3042  0.0994  0.9378
54983SOL     OW72188  11.091   0.923   5.035  0.3571  0.5523  0.5691
54983SOL    HW172189  11.131   1.003   5.067  0.9996  0.5528 -0.2258
54983SOL    HW272190  11.024   0.952   4.973  1.2256  0.4669 -0.4400
54984SOL     OW72191  12.366   6.409   9.491  0.2575 -0.1466  0.1966
54984SOL    HW172192  12.271   6.413   9.480  0.2113 -0.4918  0.4577
54984SOL    HW272193  12.387   6.489   9.540  0.0349 -0.3218  0.5852
54985SOL     OW72194   3.035   0.117  12.614 -0.5314  0.3780  0.1908
54985SOL    HW172195   3.047   0.059  12.539 -1.0960 -1.2096  1.2805
54985SOL    HW272196   2.987   0.065  12.678  0.4327  1.4724  1.8994
54986SOL     OW72197  11.088  11.029   4.624 -0.3129  0.2272 -0.2096
54986SOL    HW172198  11.044  10.958   4.671  0.6477  1.1710  2.3053
54986SOL    HW272199  11.143  10.984   4.560  1.8257 -1.5993  2.6368
54987SOL     OW72200   9.375  10.655   6.179 -0.2226  0.4545  0.7939
54987SOL    HW172201   9.449  10.689   6.228  1.6597  0.7398 -2.0400
54987SOL    HW272202   9.414  10.607   6.106 -2.8022  0.5139 -0.7522
54988SOL     OW72203   9.968   0.991   1.386  0.1984 -0.6107  0.7682
54988SOL    HW172204   9.911   1.053   1.341  0.4320 -1.3887 -0.6214
54988SOL    HW272205   9.970   0.914   1.330  2.5167 -0.6490  0.8134
54989SOL     OW72206   4.910  10.244   3.395  0.4937  0.4471  0.1281
54989SOL    HW172207   4.973  10.290   3.449 -0.0447 -0.7497  1.8776
54989SOL    HW272208   4.908  10.155   3.430  0.4348 -0.5349 -2.1789
54990SOL     OW72209  12.594   3.384   7.795  0.3468 -0.4261 -0.0769
54990SOL    HW172210  12.678   3.340   7.811 -1.0004 -3.4952 -0.8191
54990SOL    HW272211  12.557   3.398   7.881 -0.0470 -2.6756  0.1797
54991SOL     OW72212   8.252   7.802  10.394  0.1927  0.9126  0.3093
54991SOL    HW172213   8.172   7.855  10.384  0.7321  1.6220 -0.3738
54991SOL    HW272214   8.304   7.850  10.458 -0.4935 -0.2702  1.8137
54992SOL     OW72215  11.934   6.667  10.279 -0.1285  0.6151 -0.0585
54992SOL    HW172216  12.023   6.667  10.316  0.1812 -1.6121 -0.6774
54992SOL    HW272217  11.929   6.748  10.228  1.2455  1.1809  0.6528
54993SOL     OW72218   1.026   2.432  10.904  0.1669 -0.8803  0.3249
54993SOL    HW172219   1.106   2.411  10.953 -0.4600  0.5822  2.0638
54993SOL    HW272220   0.984   2.347  10.890  0.7010 -1.4059  1.7558
54994SOL     OW72221   2.355   2.884   8.168 -0.8197 -0.1221 -0.7760
54994SOL    HW172222   2.366   2.828   8.091  0.3393 -0.8992 -0.0703
54994SOL    HW272223   2.298   2.833   8.227 -0.4963 -0.1846 -0.5118
54995SOL     OW72224   1.215   1.456   6.737 -0.1668 -0.4585 -0.0616
54995SOL    HW172225   1.131   1.501   6.749  0.4595  1.3212 -1.7269
54995SOL    HW272226   1.280   1.526   6.745  1.4616 -2.1579  3.6736
54996SOL     OW72227  11.458  11.971   4.765  0.3272 -0.6025 -0.3739
54996SOL    HW172228  11.501  11.933   4.688  1.3533 -0.6063  0.1856
54996SOL    HW272229  11.470  12.065   4.756 -1.1906 -0.4563 -1.1583
54997SOL     OW72230   2.982  11.256   4.724  0.5786  0.2803  0.6079
54997SOL    HW172231   3.007  11.331   4.777  0.8105 -0.6871  1.9260
54997SOL    HW272232   2.959  11.188   4.788  1.4309 -1.1287 -0.5197
54998SOL     OW72233   5.211   0.008  12.434 -0.0336 -0.2028  0.5815
54998SOL    HW172234   5.158  -0.007  12.512 -1.3183  0.8632 -0.0293
54998SOL    HW272235   5.299   0.025  12.467 -0.5870  0.3736  1.8117
54999SOL     OW72236   6.936  12.478  11.852 -0.3748  0.0926  0.2228
54999SOL    HW172237   6.942  12.530  11.772  3.0839  1.0659  0.9448
54999SOL    HW272238   6.933  12.543  11.922 -0.4392 -0.7250  0.9975
55000SOL     OW72239   2.883   9.071   4.317 -0.5238  0.7855 -0.1865
55000SOL    HW172240   2.936   9.100   4.392  0.7699 -3.3816  0.7648
55000SOL    HW272241   2.943   9.077   4.243 -0.2574  0.4981  0.0032
55001SOL     OW72242   2.614  10.864   4.183  0.0810 -0.0996 -0.0364
55001SOL    HW172243   2.614  10.924   4.257 -0.2237 -0.6996  0.4630
55001SOL    HW272244   2.527  10.823   4.185 -0.3500  0.7060 -1.4213
55002SOL     OW72245   2.898   0.715   2.760 -0.3273 -0.3224  0.4510
55002SOL    HW172246   2.860   0.800   2.779  1.4761  0.5056  0.5691
55002SOL    HW272247   2.888   0.666   2.842 -1.1466 -0.1555  0.4615
55003SOL     OW72248   3.670  11.052   7.671 -0.4298 -0.2479  0.4054
55003SOL    HW172249   3.693  11.093   7.588 -2.4902  1.1953  0.4863
55003SOL    HW272250   3.617  10.977   7.647  0.6790 -1.0501  0.3812
55004SOL     OW72251  11.958   2.286   6.986  0.1165  0.3103 -0.0083
55004SOL    HW172252  12.017   2.344   6.937 -0.7227  0.3370 -1.0259
55004SOL    HW272253  11.888   2.267   6.924 -0.3263 -0.6851  0.7891
55005SOL     OW72254   6.436   4.642   1.567  0.0067 -0.2808  0.2628
55005SOL    HW172255   6.409   4.642   1.475 -0.5075 -0.9087  0.4079
55005SOL    HW272256   6.366   4.596   1.613 -0.5213  1.3957  1.2136
55006SOL     OW72257   0.312   7.314   0.519  0.4570  0.0068 -0.7640
55006SOL    HW172258   0.327   7.402   0.555  0.9205 -0.6627  0.7225
55006SOL    HW272259   0.265   7.267   0.588  0.4294 -0.9978 -1.4498
55007SOL     OW72260   8.663  11.566   6.951 -0.1397  0.1133 -0.4379
55007SOL    HW172261   8.705  11.619   7.019 -0.1037  1.8705 -1.7797
55007SOL    HW272262   8.730  11.502   6.926 -0.7611 -1.9024  2.4321
55008SOL     OW72263   0.460  12.692   7.326  0.1400  0.3651 -0.4696
55008SOL    HW172264   0.395  12.734   7.382  2.3303  0.3242  2.3299
55008SOL    HW272265   0.413  12.621   7.283 -2.1821  1.8108 -0.5237
55009SOL     OW72266   3.351   3.501   5.631  0.7379  0.7109 -0.0638
55009SOL    HW172267   3.335   3.484   5.723  0.5672  1.3865  0.0343
55009SOL    HW272268   3.277   3.555   5.603  0.1661 -0.4459 -0.8859
55010SOL     OW72269   0.797   3.366  10.505 -0.2769 -0.1883 -0.6429
55010SOL    HW172270   0.767   3.347  10.416 -2.6466  1.4652 -0.2894
55010SOL    HW272271   0.718   3.361  10.559  0.9927 -0.5263  1.2941
55011SOL     OW72272   5.197   4.726   6.935 -0.2602 -0.0435 -0.1750
55011SOL    HW172273   5.217   4.710   7.027 -2.7741  3.2089  1.1348
55011SOL    HW272274   5.125   4.665   6.916  0.9593 -1.4771 -0.4258
55012SOL     OW72275   2.551   0.527   9.062  0.2797  0.6648 -0.5277
55012SOL    HW172276   2.457   0.513   9.073  0.1146  3.0544  2.7829
55012SOL    HW272277   2.591   0.445   9.092 -0.7177 -0.0029 -0.9937
55013SOL     OW72278   5.217   1.999   1.681 -0.4358  0.4220 -0.5112
55013SOL    HW172279   5.186   2.071   1.736 -0.9509  0.1107 -0.3880
55013SOL    HW272280   5.288   2.037   1.630 -0.0793  0.7746  0.2275
55014SOL     OW72281   1.632   0.694   9.951 -0.4916  0.3226  0.1656
55014SOL    HW172282   1.661   0.654   9.870  0.6398 -1.5747  1.4466
55014SOL    HW272283   1.582   0.626   9.996  0.1132  0.8357  1.6948
55015SOL     OW72284   8.149   9.190  11.934 -0.1216 -0.1843  0.0544
55015SOL    HW172285   8.099   9.271  11.938  2.0531  1.3390 -1.5819
55015SOL    HW272286   8.216   9.199  12.002  1.3629  0.3329 -1.4280
55016SOL     OW72287   4.377   3.834   3.892  0.2050  0.3971 -0.0218
55016SOL    HW172288   4.437   3.780   3.943 -0.4163  0.4524  0.7918
55016SOL    HW272289   4.344   3.899   3.954  0.6807  1.5126 -0.9039
55017SOL     OW72290   5.676   9.607   1.436  0.1512 -0.0405 -0.2294
55017SOL    HW172291   5.592   9.631   1.473  0.3147  0.1956 -0.0101
55017SOL    HW272292   5.669   9.629   1.343 -0.0907 -0.1865 -0.2454
55018SOL     OW72293   8.642  10.923   9.325  0.2810 -0.2269 -0.2941
55018SOL    HW172294   8.677  11.012   9.328 -0.6717  0.1447  0.9093
55018SOL    HW272295   8.563  10.927   9.379 -0.5304 -1.4865 -1.3182
55019SOL     OW72296   4.944   6.496   7.033 -0.0562  0.2122  0.4059
55019SOL    HW172297   4.935   6.538   6.948  1.0180  0.3375  0.3422
55019SOL    HW272298   4.872   6.433   7.036  0.9265 -1.0789 -1.3544
55020SOL     OW72299   0.453  11.503   1.352 -0.1612 -0.3521  0.5069
55020SOL    HW172300   0.360  11.490   1.337 -0.2510 -1.4037  1.8549
55020SOL    HW272301   0.476  11.440   1.420  1.3504  0.4755  0.8104
55021SOL     OW72302   2.836   6.384  12.068 -0.2147  0.2022 -0.1077
55021SOL    HW172303   2.856   6.329  11.993 -1.1782 -0.9617  0.4745
55021SOL    HW272304   2.743   6.370  12.086 -0.0461  0.5655  1.2090
55022SOL     OW72305   1.720   2.970  10.298 -0.3784  0.4923  0.3796
55022SOL    HW172306   1.772   2.980  10.378 -0.7287  0.3010  0.6390
55022SOL    HW272307   1.647   3.031  10.310  0.8715  2.3599 -0.9272
55023SOL     OW72308  10.742   8.783   2.509  0.2424  0.2075 -0.2546
55023SOL    HW172309  10.647   8.789   2.509  0.1412 -1.0836 -1.0238
55023SOL    HW272310  10.768   8.802   2.419  0.4662 -2.1616 -0.7481
55024SOL     OW72311  12.414   5.037   1.989  0.0137  0.1479 -0.2610
55024SOL    HW172312  12.425   5.114   2.044 -0.3437  0.6470 -0.8824
55024SOL    HW272313  12.334   5.054   1.939 -2.5363 -2.3913  2.5604
55025SOL     OW72314   5.278   7.508   8.552 -0.7391  0.2352  0.3091
55025SOL    HW172315   5.324   7.521   8.635  0.8475 -0.0864 -0.4885
55025SOL    HW272316   5.346   7.516   8.485 -1.7179 -1.0042 -0.8801
55026SOL     OW72317   5.200   4.696  10.076 -0.3139 -0.2734  0.1410
55026SOL    HW172318   5.191   4.692  10.172 -0.8490 -1.5198  0.0709
55026SOL    HW272319   5.116   4.733  10.046 -0.1800  0.0363  0.1491
55027SOL     OW72320   4.598   3.083   6.729 -0.2011 -0.0839 -0.0395
55027SOL    HW172321   4.676   3.137   6.741  1.1729 -1.7514 -0.9989
55027SOL    HW272322   4.576   3.093   6.636 -0.3304 -0.6404 -0.0729
55028SOL     OW72323   9.695   8.224   2.497 -0.1294  0.2025  0.8428
55028SOL    HW172324   9.718   8.303   2.546 -1.0603  0.7824  0.3692
55028SOL    HW272325   9.774   8.202   2.447  0.2589  0.6002  1.2789
55029SOL     OW72326   9.077  10.226   5.500  0.2622 -0.5061 -0.4351
55029SOL    HW172327   9.117  10.276   5.429  0.9268 -0.0772  0.2285
55029SOL    HW272328   9.132  10.243   5.576 -1.0822 -0.0154  0.4770
55030SOL     OW72329   7.925   6.212  10.913  0.4789  0.4210 -0.5622
55030SOL    HW172330   7.957   6.145  10.853  0.1899 -0.3873  0.1590
55030SOL    HW272331   7.983   6.287  10.899  2.2060 -0.7143  0.1384
55031SOL     OW72332  11.102  11.501  12.008  0.1008 -0.2715  0.0807
55031SOL    HW172333  11.051  11.573  11.971  2.1477  1.5753  0.6145
55031SOL    HW272334  11.088  11.428  11.948 -0.2262  1.2534 -1.8034
55032SOL     OW72335   4.802   5.689   3.435 -0.2283  0.5924  0.0240
55032SOL    HW172336   4.897   5.689   3.422 -0.0067 -0.0920  1.4290
55032SOL    HW272337   4.771   5.768   3.392  0.7361 -0.0853 -2.0532
55033SOL     OW72338   6.922   2.532   3.808 -0.1139  0.3808  0.0015
55033SOL    HW172339   6.938   2.444   3.843 -0.6423  0.7097  1.1347
55033SOL    HW272340   6.961   2.531   3.721  2.1417 -0.1878  0.9547
55034SOL     OW72341   1.413   9.254  10.179  0.1758 -0.4390  0.1781
55034SOL    HW172342   1.407   9.187  10.247  1.4538  0.2389  0.9911
55034SOL    HW272343   1.323   9.264  10.148 -0.3066 -1.3191  1.2163
55035SOL     OW72344   5.168  11.084   3.878 -0.1213 -0.0445 -0.1120
55035SOL    HW172345   5.120  11.099   3.796 -0.1644  2.4187  0.2914
55035SOL    HW272346   5.144  11.158   3.934  2.0285 -0.1916  1.1052
55036SOL     OW72347  11.621   2.164   7.988  0.8752  0.4286  0.6340
55036SOL    HW172348  11.627   2.075   7.951 -1.3692  0.4954 -0.0767
55036SOL    HW272349  11.606   2.149   8.081 -1.0665 -0.0820  0.3036
55037SOL     OW72350   4.505  11.039   0.201 -0.2376  0.4745 -0.0041
55037SOL    HW172351   4.556  11.091   0.139  0.4538 -1.7273 -1.4450
55037SOL    HW272352   4.483  11.099   0.271  3.8273  1.8027  0.4222
55038SOL     OW72353   5.054   3.808   3.055 -0.6158  0.0974 -0.2947
55038SOL    HW172354   5.085   3.718   3.046 -2.5564 -0.9284  2.0972
55038SOL    HW272355   5.020   3.830   2.968 -1.4399 -2.0390 -0.5750
55039SOL     OW72356  10.702  10.743   7.121 -0.3069 -0.0830  0.2256
55039SOL    HW172357  10.752  10.817   7.155  0.3313  1.5289 -3.7111
55039SOL    HW272358  10.721  10.742   7.027 -1.9287 -4.0347 -0.2487
55040SOL     OW72359   7.314  10.121   7.190 -0.6062  0.0355  0.7543
55040SOL    HW172360   7.333  10.093   7.280  1.2243  1.3341  0.8163
55040SOL    HW272361   7.379  10.189   7.171 -2.0787  1.0569 -0.9454
55041SOL     OW72362   3.594   7.131   0.183  0.3012 -0.1464 -0.0180
55041SOL    HW172363   3.546   7.079   0.119 -1.3158  0.1171  0.9277
55041SOL    HW272364   3.627   7.067   0.246  0.8784 -0.2907 -0.4583
55042SOL     OW72365  12.376  11.414   2.193 -0.5625 -0.4157  0.0619
55042SOL    HW172366  12.352  11.505   2.209 -0.4034 -0.5116  0.9352
55042SOL    HW272367  12.435  11.417   2.118 -0.5991  0.1900  0.0510
55043SOL     OW72368   9.723   9.490   8.047 -0.3199  0.1748 -0.2768
55043SOL    HW172369   9.727   9.431   8.122 -1.4173  0.6331  0.1566
55043SOL    HW272370   9.651   9.549   8.067  1.5778  2.5485 -0.0592
55044SOL     OW72371   3.642   6.860  11.605 -0.2099  0.2535  0.2026
55044SOL    HW172372   3.592   6.880  11.526 -0.3604  0.4101  0.3367
55044SOL    HW272373   3.582   6.878  11.677  0.9892  3.7391  0.5517
55045SOL     OW72374   6.593   0.077   3.149 -0.2483  0.6300  0.0542
55045SOL    HW172375   6.668   0.044   3.099 -0.4973 -0.5624  0.4284
55045SOL    HW272376   6.581   0.167   3.119 -0.2652  0.0182 -1.9061
55046SOL     OW72377  11.648   8.731  11.418  0.4606  0.0413 -0.0863
55046SOL    HW172378  11.714   8.663  11.429 -0.5138 -0.7364  1.3554
55046SOL    HW272379  11.573   8.700  11.469 -0.6743  1.3418 -0.8799
55047SOL     OW72380  11.896   8.360   0.571  0.2515 -0.4578 -0.2050
55047SOL    HW172381  11.825   8.374   0.634  1.4473  0.9937  0.9106
55047SOL    HW272382  11.908   8.446   0.530  1.7551 -0.5241  0.0687
55048SOL     OW72383   6.999   0.099   2.300 -0.4303  0.5347  0.8285
55048SOL    HW172384   6.978   0.149   2.379  2.2374  1.2017  1.2040
55048SOL    HW272385   6.991   0.007   2.327  1.5458  0.7294  2.2626
55049SOL     OW72386   9.547  10.610  11.958  0.3617  0.0032 -0.5181
55049SOL    HW172387   9.562  10.695  11.915  1.7845 -0.2693 -0.5982
55049SOL    HW272388   9.494  10.632  12.035  0.2597  0.8869 -0.8175
55050SOL     OW72389   4.296   0.261   0.608 -0.0622 -0.6026 -0.3328
55050SOL    HW172390   4.241   0.233   0.681  1.3502 -1.4681  0.4499
55050SOL    HW272391   4.327   0.179   0.568  2.3606 -0.2371  0.6192
55051SOL     OW72392  12.443   3.391   9.478 -0.8166  0.4735 -0.0200
55051SOL    HW172393  12.437   3.459   9.410  0.9698 -0.2895 -0.9855
55051SOL    HW272394  12.421   3.310   9.433  0.8078 -0.1041  0.1674
55052SOL     OW72395   7.654   8.238   2.852 -0.9558 -0.6581  0.0386
55052SOL    HW172396   7.570   8.277   2.826 -0.1758  0.3634 -1.0416
55052SOL    HW272397   7.695   8.214   2.769  0.3798  0.0609  0.4656
55053SOL     OW72398   0.183   3.925   4.420  0.1252 -0.1723 -0.1719
55053SOL    HW172399   0.262   3.888   4.382  1.6284  1.7555  0.9301
55053SOL    HW272400   0.162   3.867   4.493  0.7666 -0.4332 -0.1905
55054SOL     OW72401   5.543   8.449   3.034 -0.2653 -0.2049 -0.2365
55054SOL    HW172402   5.631   8.435   3.000 -1.3389 -1.5877 -2.6913
55054SOL    HW272403   5.505   8.361   3.039 -2.2783  0.5185 -1.5719
55055SOL     OW72404   1.598   2.068   1.681 -0.0929 -0.5968 -0.0449
55055SOL    HW172405   1.638   1.982   1.676  0.2270 -0.4274 -0.3998
55055SOL    HW272406   1.552   2.079   1.598 -0.2911 -0.5030  0.0758
55056SOL     OW72407   3.784   6.707  10.191  0.0383 -0.5193 -0.7561
55056SOL    HW172408   3.842   6.765  10.240  0.1800 -0.7188 -0.6839
55056SOL    HW272409   3.740   6.763  10.128 -0.2103 -0.2401 -0.3395
55057SOL     OW72410  11.794  12.553  11.856  0.0947 -0.2133  0.1816
55057SOL    HW172411  11.735  12.567  11.782  0.6151 -0.3418 -0.2646
55057SOL    HW272412  11.814  12.642  11.887 -1.4157 -0.1941  1.2322
55058SOL     OW72413   6.700   7.455  11.679  0.0092 -0.5706  0.0618
55058SOL    HW172414   6.784   7.452  11.634 -1.1614  1.6232 -2.4833
55058SOL    HW272415   6.652   7.379  11.647  0.2045 -0.5789 -0.2050
55059SOL     OW72416   3.685   0.680  11.100  0.3763  0.3050  0.0126
55059SOL    HW172417   3.779   0.687  11.084  0.8910 -0.0107  2.4943
55059SOL    HW272418   3.659   0.767  11.130 -0.1112  0.3605 -0.5633
55060SOL     OW72419  10.006  10.480   4.066 -0.3659 -0.0340 -0.1057
55060SOL    HW172420   9.918  10.450   4.040 -0.9067  1.6495 -0.3065
55060SOL    HW272421   9.990  10.538   4.140  0.7983 -1.3194  1.2213
55061SOL     OW72422   9.415  10.090  12.174 -0.4491  0.5041 -0.3265
55061SOL    HW172423   9.344  10.146  12.143 -0.1552  0.8615 -0.3670
55061SOL    HW272424   9.495  10.134  12.145 -0.2266 -0.4059 -1.1421
55062SOL     OW72425  12.354  12.391   5.148  0.1019 -0.1301 -0.1263
55062SOL    HW172426  12.319  12.443   5.221  1.2007  0.4596 -0.0089
55062SOL    HW272427  12.280  12.335   5.121 -0.2339 -0.5938  1.6386
55063SOL     OW72428   4.068   1.902   5.463  0.2901 -0.3589 -0.3680
55063SOL    HW172429   4.154   1.942   5.478 -0.2105  0.2350  1.0593
55063SOL    HW272430   4.066   1.886   5.369  2.1308 -0.7685 -0.3834
55064SOL     OW72431   0.782   4.572   3.728 -0.6237  0.2924  0.4967
55064SOL    HW172432   0.737   4.527   3.657 -2.1923  0.1026  1.5663
55064SOL    HW272433   0.713   4.593   3.791  0.8326 -0.4816  2.4608
55065SOL     OW72434  11.467  11.026   2.937 -0.0548 -0.6259  0.5640
55065SOL    HW172435  11.467  11.032   3.032  2.6205 -1.0388  0.6646
55065SOL    HW272436  11.386  10.980   2.916  0.0805 -2.0253  2.7644
55066SOL     OW72437   1.924   8.932   0.015 -0.3650  0.1969  0.3851
55066SOL    HW172438   1.922   8.838   0.036 -0.4569 -0.7003 -3.0036
55066SOL    HW272439   2.006   8.944  -0.034 -0.7738  1.7052  0.0215
55067SOL     OW72440   7.743   4.911  11.584 -0.5031 -0.0876 -0.3361
55067SOL    HW172441   7.797   4.835  11.562 -0.8331 -0.3290 -0.3276
55067SOL    HW272442   7.654   4.883  11.564 -0.6248  0.3088 -0.3586
55068SOL     OW72443   6.710   6.593   8.245  0.1229  0.6281 -0.0458
55068SOL    HW172444   6.764   6.573   8.322  1.1766  0.7582 -0.7386
55068SOL    HW272445   6.707   6.511   8.196  0.6450  0.9106 -0.5716
55069SOL     OW72446   3.586  11.489   1.299 -0.2863 -0.1226  0.6134
55069SOL    HW172447   3.618  11.420   1.241  0.3892 -1.3014  2.3093
55069SOL    HW272448   3.491  11.487   1.287 -0.2067 -0.7345 -0.0162
55070SOL     OW72449   1.338  11.568  12.556 -0.4971  0.3946 -0.4651
55070SOL    HW172450   1.396  11.640  12.582  2.2387 -1.7860 -0.1056
55070SOL    HW272451   1.289  11.546  12.635 -0.9609  1.4565 -0.4413
55071SOL     OW72452   2.315   6.124   1.144 -0.1185  0.7572 -0.5333
55071SOL    HW172453   2.255   6.138   1.071 -0.4260 -1.0666 -0.6806
55071SOL    HW272454   2.402   6.136   1.106 -0.2901  0.2242 -1.0994
55072SOL     OW72455  12.671   2.890  11.035 -0.0242  0.3254  0.1614
55072SOL    HW172456  12.696   2.862  10.947  3.6492  1.2798  0.7385
55072SOL    HW272457  12.634   2.977  11.023 -1.1158 -0.2092 -0.5363
55073SOL     OW72458  11.507   7.228   8.072 -0.3866  0.1445  0.2495
55073SOL    HW172459  11.490   7.321   8.060  0.3757  0.6680  2.7212
55073SOL    HW272460  11.424   7.185   8.050 -1.1628  1.5331  0.3807
55074SOL     OW72461   7.747   0.093   5.503 -0.2069  0.6143  0.2799
55074SOL    HW172462   7.804   0.114   5.429  0.5715 -0.4768  0.5384
55074SOL    HW272463   7.659   0.111   5.471 -0.0420 -1.3778 -1.5207
55075SOL     OW72464   9.161  11.960   6.083  0.5632 -0.1952  0.3690
55075SOL    HW172465   9.208  11.878   6.066  3.4266  1.2392  0.8196
55075SOL    HW272466   9.169  11.973   6.177  2.1168  1.6108  0.0561
55076SOL     OW72467   1.668  12.416   6.989  0.0911  0.3190  0.5454
55076SOL    HW172468   1.585  12.447   6.953  0.2918  1.7603  1.2371
55076SOL    HW272469   1.668  12.447   7.080  0.1287 -2.1464  1.4791
55077SOL     OW72470   3.510   1.172   4.832 -0.4819 -0.0259 -0.3305
55077SOL    HW172471   3.530   1.229   4.757 -1.7677 -0.0221 -0.6936
55077SOL    HW272472   3.417   1.186   4.848 -0.2467 -0.1297  1.1988
55078SOL     OW72473   5.585   9.115   6.318 -0.4623 -0.0042 -1.0261
55078SOL    HW172474   5.629   9.156   6.393 -0.6533  0.5783 -1.2242
55078SOL    HW272475   5.495   9.102   6.347 -1.5118  3.3782 -2.2248
55079SOL     OW72476   1.897   1.926   2.155 -0.7126  0.0059 -0.0522
55079SOL    HW172477   1.826   1.861   2.155  0.9869 -2.0146 -1.5857
55079SOL    HW272478   1.966   1.885   2.207  0.1988  0.8533 -0.5721
55080SOL     OW72479  12.081   7.228  11.466 -0.1971  0.2855  0.5306
55080SOL    HW172480  12.087   7.265  11.378  0.4555 -0.5458  0.2096
55080SOL    HW272481  12.115   7.296  11.524 -0.1816  0.6517  0.0934
55081SOL     OW72482   1.500   0.886   1.522  0.0236 -0.0807  0.1232
55081SOL    HW172483   1.405   0.900   1.524 -0.1636 -0.6562 -1.8853
55081SOL    HW272484   1.512   0.795   1.550 -0.3030 -0.7992 -1.8885
55082SOL     OW72485   1.295   7.134   9.767  0.2155  0.1736 -0.3558
55082SOL    HW172486   1.355   7.082   9.713 -1.0741  1.4840 -3.2339
55082SOL    HW272487   1.253   7.070   9.824  1.4079 -1.3638 -1.1178
55083SOL     OW72488   8.199   4.130   5.368  0.2115  0.0102 -0.3255
55083SOL    HW172489   8.154   4.056   5.409  2.8977 -0.4191  2.1349
55083SOL    HW272490   8.146   4.206   5.390 -0.0711 -0.6287  1.3816
55084SOL     OW72491   8.422   7.037   4.324 -0.0841 -0.0693 -0.1480
55084SOL    HW172492   8.352   7.099   4.343 -0.2639  0.0267 -1.0940
55084SOL    HW272493   8.466   7.073   4.247 -0.1909 -1.1027 -0.7100
55085SOL     OW72494   4.098   5.227   0.949  0.6075 -0.1497 -0.0759
55085SOL    HW172495   4.101   5.156   0.884 -0.7108  0.7053 -1.1244
55085SOL    HW272496   4.119   5.184   1.032  1.8098 -1.3761 -0.9646
55086SOL     OW72497   9.210   7.600   5.252 -0.2938  0.1379  0.3367
55086SOL    HW172498   9.169   7.672   5.205 -1.6586 -2.0400 -2.0702
55086SOL    HW272499   9.303   7.623   5.254 -0.7346  2.1294  0.0240
55087SOL     OW72500   2.911   6.970   7.161 -0.9206 -0.0963 -0.6255
55087SOL    HW172501   2.982   6.905   7.156 -1.1143 -0.2794 -1.0721
55087SOL    HW272502   2.848   6.932   7.223 -0.0318  0.6680  0.7967
55088SOL     OW72503   5.028   9.209   1.509  0.4144  0.3858  0.5148
55088SOL    HW172504   5.055   9.269   1.579  1.6968 -0.6692  0.9571
55088SOL    HW272505   4.967   9.261   1.456  0.0129  1.4616  1.9530
55089SOL     OW72506  10.556   4.523   0.810 -0.4353 -0.5854 -0.0824
55089SOL    HW172507  10.618   4.564   0.870 -0.0977  0.1676 -0.9259
55089SOL    HW272508  10.610   4.464   0.756 -0.4816 -0.1308 -0.6378
55090SOL     OW72509   0.855   3.198   2.932 -0.2396 -0.2686  0.0731
55090SOL    HW172510   0.931   3.250   2.959 -0.5637  0.7086 -0.8158
55090SOL    HW272511   0.888   3.141   2.863 -0.1114 -0.4999  0.3253
55091SOL     OW72512   1.654   2.797   2.035  0.1606  0.2301  0.3742
55091SOL    HW172513   1.586   2.848   1.991  0.6934  0.4108 -0.2640
55091SOL    HW272514   1.664   2.838   2.120  0.9210  1.5176 -0.3071
55092SOL     OW72515   6.709   1.572   6.058  0.9182 -0.1933 -0.2126
55092SOL    HW172516   6.641   1.504   6.068  1.3688 -0.8621 -1.5194
55092SOL    HW272517   6.661   1.655   6.070  0.8527 -0.6153  4.6065
55093SOL     OW72518  12.132  10.123   5.394  0.1907 -0.1574 -0.0360
55093SOL    HW172519  12.071  10.051   5.380  1.2915 -1.1509  0.0577
55093SOL    HW272520  12.141  10.130   5.489 -1.6340  1.6525  0.0634
55094SOL     OW72521   1.508   6.796   4.855 -0.0145 -0.4416 -0.3209
55094SOL    HW172522   1.486   6.854   4.928 -0.4769 -0.9591 -0.0326
55094SOL    HW272523   1.583   6.745   4.886  1.7254  1.3946 -1.3436
55095SOL     OW72524   9.480  12.137   1.914  0.6308 -0.7128  0.1877
55095SOL    HW172525   9.397  12.161   1.873  1.1576  1.0222  0.0508
55095SOL    HW272526   9.470  12.044   1.935 -1.2269 -0.6242 -0.0908
55096SOL     OW72527   7.072   6.003   2.234 -0.2133  0.0477  0.1041
55096SOL    HW172528   6.989   5.967   2.264 -0.4889  2.1434  2.2037
55096SOL    HW272529   7.049   6.086   2.192  0.5671 -1.0014 -2.5329
55097SOL     OW72530  11.914  11.271   7.739  0.0187 -0.3850  0.0836
55097SOL    HW172531  11.886  11.349   7.787 -0.5729  0.3672 -1.4166
55097SOL    HW272532  11.864  11.200   7.778 -1.5206  0.4280 -0.3212
55098SOL     OW72533   8.798  11.241   0.988 -0.1568 -0.1269 -0.5618
55098SOL    HW172534   8.867  11.179   0.962  0.9309  0.0330  1.7208
55098SOL    HW272535   8.752  11.197   1.059  0.1072  1.3191  0.5549
55099SOL     OW72536   3.296   2.120   3.517  0.2065  0.0270 -0.4861
55099SOL    HW172537   3.388   2.127   3.542  0.5844 -3.1553 -0.6040
55099SOL    HW272538   3.248   2.157   3.591  1.5146  2.9115 -0.9624
55100SOL     OW72539   4.231   9.564  11.457  0.3446 -0.5672  0.8016
55100SOL    HW172540   4.308   9.596  11.505 -0.0142 -0.8769  1.6087
55100SOL    HW272541   4.247   9.589  11.366  1.9880 -1.7016  0.7270
55101SOL     OW72542   7.492   3.665  11.587  0.0011 -0.1148 -0.4539
55101SOL    HW172543   7.420   3.630  11.535 -0.5532 -0.9527  0.8438
55101SOL    HW272544   7.510   3.750  11.548 -0.9675 -0.3594 -1.4806
55102SOL     OW72545   3.714   9.942   1.941 -0.0405 -0.2110  0.2071
55102SOL    HW172546   3.660  10.021   1.944 -0.7237 -0.6432 -0.4841
55102SOL    HW272547   3.660   9.874   1.982 -0.4800 -0.8953 -1.4416
55103SOL     OW72548   8.119  12.185   7.214  0.1941 -0.6470  0.0396
55103SOL    HW172549   8.146  12.151   7.300 -0.3683  0.0313  0.4882
55103SOL    HW272550   8.201  12.193   7.165  0.6253 -0.2065  0.8131
55104SOL     OW72551   3.511   3.409   0.188 -0.1293 -0.7320  0.2221
55104SOL    HW172552   3.519   3.502   0.166 -1.1645 -0.5824  0.4524
55104SOL    HW272553   3.549   3.363   0.113 -0.5853 -0.1439 -0.3760
55105SOL     OW72554  11.923   4.620   6.670  0.3346  0.0587  0.0716
55105SOL    HW172555  11.842   4.645   6.715  0.7292 -0.1935  0.9406
55105SOL    HW272556  11.895   4.562   6.600 -0.1871 -0.5021  0.7353
55106SOL     OW72557   3.926   4.643   1.842 -0.1955 -0.0508 -0.6229
55106SOL    HW172558   3.947   4.724   1.889  0.8635 -0.8504  0.3335
55106SOL    HW272559   3.838   4.620   1.872 -0.4364  0.6325 -0.7691
55107SOL     OW72560   4.924   7.817  10.177 -0.3050 -0.4953 -0.3503
55107SOL    HW172561   4.953   7.885  10.238  0.8765 -1.3530  0.0664
55107SOL    HW272562   4.888   7.866  10.103  1.7203  0.6284 -0.6585
55108SOL     OW72563   2.582   4.001  10.696  0.2439  0.2655 -0.3333
55108SOL    HW172564   2.627   4.065  10.750  2.2536 -1.4511  0.1901
55108SOL    HW272565   2.564   4.047  10.614  1.1150  1.6456  0.2166
55109SOL     OW72566   9.464   2.730  11.253  0.4949  0.3101 -0.0333
55109SOL    HW172567   9.528   2.755  11.320  0.4895 -1.7105  0.7995
55109SOL    HW272568   9.460   2.634  11.259 -0.3252  0.1655 -2.1923
55110SOL     OW72569  12.254   0.254   0.160  0.7790 -0.4654 -0.1455
55110SOL    HW172570  12.278   0.261   0.252 -2.0950 -0.7375  0.7135
55110SOL    HW272571  12.249   0.345   0.130  2.4890 -0.3946 -0.3107
55111SOL     OW72572  10.290   7.205   8.051  0.0962  0.3393 -0.0590
55111SOL    HW172573  10.322   7.224   7.962  2.6554  1.5284  1.0003
55111SOL    HW272574  10.344   7.132   8.080  0.6869  1.2375  1.1774
55112SOL     OW72575   2.225  10.298  11.634 -0.4696  0.1968  0.3967
55112SOL    HW172576   2.313  10.329  11.614 -0.6243 -0.2621 -1.0782
55112SOL    HW272577   2.239  10.232  11.703  0.2856  0.4209  0.4725
55113SOL     OW72578   0.085   3.181   2.737 -0.3115 -0.1974 -0.6898
55113SOL    HW172579   0.123   3.147   2.656  0.4649 -0.3821 -0.2633
55113SOL    HW272580   0.056   3.269   2.714 -1.1912 -0.6715 -1.4724
55114SOL     OW72581   3.887   8.680  10.890 -0.1373 -0.0536  0.5983
55114SOL    HW172582   3.849   8.676  10.978  1.6363  2.5331  1.5773
55114SOL    HW272583   3.898   8.773  10.872  3.6573 -0.5284 -0.4563
55115SOL     OW72584   7.215   2.356   9.796 -0.2941 -0.6622 -0.3909
55115SOL    HW172585   7.137   2.361   9.851 -0.5688  1.1311 -0.8689
55115SOL    HW272586   7.209   2.270   9.753 -1.9341 -0.6145 -0.3227
55116SOL     OW72587   4.924   9.786  12.276  0.1115 -0.5306 -0.0221
55116SOL    HW172588   4.837   9.784  12.236 -0.1190  1.0527  0.3303
55116SOL    HW272589   4.983   9.806  12.204 -0.0173 -0.0144  0.0128
55117SOL     OW72590   2.081   2.459   1.653 -0.2392  0.0606 -0.0505
55117SOL    HW172591   1.995   2.500   1.655 -0.0449  0.4644  0.4064
55117SOL    HW272592   2.095   2.428   1.743 -0.1116 -0.4358 -0.2372
55118SOL     OW72593  11.028   0.877   1.636 -0.2315  0.1731 -0.1539
55118SOL    HW172594  11.018   0.897   1.543  1.0108 -0.9374 -0.5547
55118SOL    HW272595  10.975   0.943   1.680 -1.2921  0.3924 -1.6620
55119SOL     OW72596  12.022   9.016   1.924  0.9749  0.1186 -0.1616
55119SOL    HW172597  11.979   9.093   1.888  2.0842 -0.0765 -2.0286
55119SOL    HW272598  12.019   9.030   2.019 -0.6573  1.4323 -0.3558
55120SOL     OW72599   0.264   0.529  11.816 -0.8373 -0.1161 -0.2796
55120SOL    HW172600   0.169   0.518  11.808 -0.6966 -1.5240 -0.3201
55120SOL    HW272601   0.300   0.447  11.784  0.3792  0.1722  0.2958
55121SOL     OW72602   2.024  12.017  11.352  0.0865  0.1375 -0.1548
55121SOL    HW172603   2.089  12.043  11.417  1.6401 -1.0559 -1.1902
55121SOL    HW272604   2.033  12.081  11.281 -0.1699  0.2075 -0.1281
55122SOL     OW72605   6.221   3.114   0.834 -0.0480 -0.4741 -0.1277
55122SOL    HW172606   6.248   3.192   0.882  0.0836 -0.3283 -0.4339
55122SOL    HW272607   6.253   3.128   0.745 -0.7937 -0.4715 -0.4092
55123SOL     OW72608  11.023   7.450   6.813  0.2051 -0.0110 -0.1509
55123SOL    HW172609  11.112   7.481   6.832  0.2155  0.7397 -1.3145
55123SOL    HW272610  11.034   7.357   6.793  0.4432 -0.3712  1.5286
55124SOL     OW72611  12.461   1.069   2.230  0.0653  0.8831 -0.2157
55124SOL    HW172612  12.395   1.010   2.266  0.4643  0.4062 -0.2398
55124SOL    HW272613  12.426   1.097   2.146  0.3232 -0.1514 -0.6803
55125SOL     OW72614   1.846  11.240   5.269 -0.2061 -0.2937 -0.8752
55125SOL    HW172615   1.785  11.167   5.276 -0.3428 -0.3097 -2.0381
55125SOL    HW272616   1.824  11.282   5.186  3.0518 -1.8817 -2.7508
55126SOL     OW72617   0.199   8.434   5.950 -0.9869  0.1101  0.1951
55126SOL    HW172618   0.213   8.488   5.873 -0.2038  0.5716  0.6521
55126SOL    HW272619   0.117   8.466   5.988 -0.7630  0.6641  0.2089
55127SOL     OW72620   1.913   8.833   7.506 -0.0700 -0.0180  0.5931
55127SOL    HW172621   1.946   8.853   7.593  2.1901 -1.7061  0.2094
55127SOL    HW272622   1.859   8.755   7.518  1.3624 -1.0847  0.3444
55128SOL     OW72623  11.281   6.210   4.118  0.1084 -0.4621 -0.5124
55128SOL    HW172624  11.264   6.286   4.174  1.3963 -1.3893  1.2788
55128SOL    HW272625  11.266   6.241   4.029  0.5258  1.8679  0.1570
55129SOL     OW72626  10.142  11.675   5.471  0.1294  0.2765 -0.3288
55129SOL    HW172627  10.140  11.731   5.393 -0.2785 -2.6240 -2.6103
55129SOL    HW272628  10.073  11.711   5.527  0.9053  2.9023 -0.9128
55130SOL     OW72629   0.180   5.570  11.900 -0.2889 -0.0621  0.2921
55130SOL    HW172630   0.161   5.529  11.985  0.1382 -2.5049 -0.6896
55130SOL    HW272631   0.274   5.586  11.903 -0.1442 -0.8345  0.0213
55131SOL     OW72632   3.173   5.731   5.855  0.0701 -0.7043  0.3715
55131SOL    HW172633   3.226   5.803   5.890 -0.4312 -0.1124 -0.0697
55131SOL    HW272634   3.229   5.654   5.865  1.4088  0.0443 -0.9396
55132SOL     OW72635  12.462   9.769   9.018 -0.0989  0.4287 -0.3791
55132SOL    HW172636  12.465   9.716   9.098 -3.0922  1.2187  0.4051
55132SOL    HW272637  12.469   9.860   9.049  2.5680  0.6650 -1.4664
55133SOL     OW72638  12.708   8.131   4.346 -0.6453  0.1510  0.2647
55133SOL    HW172639  12.642   8.198   4.333 -1.0609 -0.0656  1.1419
55133SOL    HW272640  12.671   8.052   4.307 -1.1575 -0.1007  1.2304
55134SOL     OW72641  10.586   3.638  11.092  0.8051  0.5212 -0.0061
55134SOL    HW172642  10.561   3.667  11.004 -1.6474 -2.4962 -0.4693
55134SOL    HW272643  10.515   3.669  11.149  1.3885  0.7835  0.5958
55135SOL     OW72644   3.675  11.745   5.756  0.2005  0.1925 -0.9743
55135SOL    HW172645   3.644  11.823   5.709  2.4270  2.8899  1.6795
55135SOL    HW272646   3.608  11.729   5.823 -0.0923  0.0123 -1.3059
55136SOL     OW72647  10.150   3.812  11.978 -0.0019  0.0487 -0.1380
55136SOL    HW172648  10.144   3.716  11.982 -2.0509  0.1625  0.9673
55136SOL    HW272649  10.144   3.840  12.069 -0.5079  1.2582 -0.5320
55137SOL     OW72650   7.928   0.051  10.828  0.0261 -0.1765 -0.1849
55137SOL    HW172651   7.930  -0.011  10.901 -3.0187  1.8601  1.8546
55137SOL    HW272652   7.845   0.098  10.839  1.3598  3.0992 -2.5599
55138SOL     OW72653   5.648   5.179   8.356  0.5735 -0.0152  0.1652
55138SOL    HW172654   5.578   5.172   8.420 -0.1177  0.7841 -0.4798
55138SOL    HW272655   5.619   5.125   8.282  0.7609  0.1043  0.0016
55139SOL     OW72656   3.733   3.337   4.364  0.1120 -0.1077 -0.4540
55139SOL    HW172657   3.677   3.282   4.419  0.0967 -0.4914 -0.8583
55139SOL    HW272658   3.774   3.397   4.427  1.1482 -1.4183  0.1861
55140SOL     OW72659  10.809  12.206   3.990  0.3344 -0.3273 -0.0742
55140SOL    HW172660  10.770  12.166   3.912 -1.8474 -1.4773  1.4975
55140SOL    HW272661  10.903  12.198   3.976  0.2074  2.2277 -3.8956
55141SOL     OW72662   9.185   2.459   8.665 -0.1133 -0.4077 -0.0309
55141SOL    HW172663   9.156   2.544   8.700  1.1103 -0.2730  0.7056
55141SOL    HW272664   9.223   2.479   8.580 -1.0600 -0.4263 -0.4765
55142SOL     OW72665   1.621   0.257  10.062  0.2805 -0.4368  0.3461
55142SOL    HW172666   1.553   0.286  10.002  1.7423 -1.1656 -1.7687
55142SOL    HW272667   1.614   0.161  10.061  0.1759 -0.4593  1.5618
55143SOL     OW72668  12.392  11.575   3.258  0.0174 -0.4167 -0.2018
55143SOL    HW172669  12.466  11.544   3.205 -0.6634 -1.3470 -0.6406
55143SOL    HW272670  12.318  11.521   3.229 -0.6832  0.0407  0.7014
55144SOL     OW72671   2.662   7.398   3.084 -0.0241  0.0835  0.5037
55144SOL    HW172672   2.748   7.370   3.053  0.5203  0.0461  1.9909
55144SOL    HW272673   2.610   7.317   3.088  0.3765 -0.1442  1.1601
55145SOL     OW72674   5.579   3.420  10.651 -0.1830  0.2728  0.2461
55145SOL    HW172675   5.583   3.382  10.738  1.5564 -0.5492 -0.1398
55145SOL    HW272676   5.577   3.345  10.592 -1.3026  0.8152 -0.4492
55146SOL     OW72677   9.997  12.052   4.951  0.2810 -0.6033  0.1668
55146SOL    HW172678  10.049  12.093   4.882  1.3526 -0.2496  1.1482
55146SOL    HW272679   9.965  11.971   4.912  0.3746 -0.1309 -0.9310
55147SOL     OW72680   0.952   2.717   6.223 -0.0079  0.6795  0.0369
55147SOL    HW172681   1.037   2.747   6.256  0.6146 -1.0577  0.1053
55147SOL    HW272682   0.974   2.646   6.163 -1.3835  0.7532 -0.5667
55148SOL     OW72683   3.832   4.960   0.090  0.0819 -0.3859 -0.0530
55148SOL    HW172684   3.910   4.931   0.137  0.4937 -1.8354 -1.5588
55148SOL    HW272685   3.850   5.052   0.069  2.3408 -1.1790 -2.0874
55149SOL     OW72686   5.500  12.440   6.023  0.0080 -0.1081 -0.1983
55149SOL    HW172687   5.529  12.467   6.110  0.9585  3.1641 -1.3810
55149SOL    HW272688   5.581  12.434   5.972 -0.5667 -1.5679 -0.9963
55150SOL     OW72689   2.517   0.994   0.099  0.0842 -0.5638 -0.2550
55150SOL    HW172690   2.422   0.993   0.091  0.1769  0.4111 -1.7676
55150SOL    HW272691   2.540   0.903   0.121 -1.2163 -0.6862  0.6771
55151SOL     OW72692   2.920  12.683   9.356  0.7714 -0.4050  0.7379
55151SOL    HW172693   3.002  12.697   9.309 -0.1603  0.6946 -0.6626
55151SOL    HW272694   2.860  12.649   9.290 -0.6817  1.5196  0.9769
55152SOL     OW72695   6.590   0.697   3.047  0.0251 -0.2804 -0.2453
55152SOL    HW172696   6.630   0.611   3.044  1.4633  0.3611 -0.2068
55152SOL    HW272697   6.608   0.735   2.961  1.5093  0.8620  0.5259
55153SOL     OW72698  10.099   1.329   1.890 -0.2256 -0.1550 -0.5878
55153SOL    HW172699  10.129   1.417   1.908 -0.4953 -0.2922  0.5678
55153SOL    HW272700  10.156   1.298   1.819  0.4171  0.6274 -0.4183
55154SOL     OW72701   6.620   0.630  12.010 -0.4557 -0.3488 -0.2685
55154SOL    HW172702   6.708   0.625  11.973 -0.7432  1.1405 -1.2081
55154SOL    HW272703   6.625   0.698  12.077 -1.1850  0.6460 -1.2043
55155SOL     OW72704   7.872   9.697   6.869 -0.3172 -1.5080 -0.2612
55155SOL    HW172705   7.937   9.767   6.870 -0.2928 -1.4784 -1.6940
55155SOL    HW272706   7.881   9.654   6.954  0.4120 -0.4525  0.2095
55156SOL     OW72707   3.878   3.313   7.169  0.2312  0.2055  0.2350
55156SOL    HW172708   3.855   3.295   7.260 -2.7048  0.2104 -0.3950
55156SOL    HW272709   3.854   3.405   7.157 -1.0116 -0.2484 -0.9411
55157SOL     OW72710   5.833   3.571  10.671 -0.1921  0.0151  1.3138
55157SOL    HW172711   5.861   3.483  10.698  0.4830 -0.0169  0.5732
55157SOL    HW272712   5.739   3.562  10.655 -0.2123 -0.4650  1.6781
55158SOL     OW72713   5.140   4.108  12.452  0.4221  0.5798 -0.1594
55158SOL    HW172714   5.084   4.156  12.391 -1.7308  0.4966  1.6604
55158SOL    HW272715   5.088   4.033  12.480  1.9844 -0.2827  0.5621
55159SOL     OW72716   0.364   3.262   8.374  0.0929  0.3813  0.1029
55159SOL    HW172717   0.382   3.247   8.281  0.6723 -0.5338  0.3502
55159SOL    HW272718   0.448   3.289   8.411  0.3323 -1.1161  0.7134
55160SOL     OW72719   2.363   4.938   7.438 -0.3475  0.4548 -0.3504
55160SOL    HW172720   2.347   4.847   7.463  0.6541  0.0813 -1.0229
55160SOL    HW272721   2.290   4.986   7.476 -0.6438 -0.5622  0.4184
55161SOL     OW72722   7.804   2.072   2.956 -0.2966 -0.1788 -0.1631
55161SOL    HW172723   7.865   2.143   2.934  0.8549 -1.4332 -1.1982
55161SOL    HW272724   7.747   2.065   2.879 -1.3569  0.5312  0.5223
55162SOL     OW72725  12.271   0.560   1.360 -0.3925  0.6322 -0.0611
55162SOL    HW172726  12.275   0.472   1.397 -0.5743 -0.3153 -2.1623
55162SOL    HW272727  12.245   0.616   1.433  0.6118 -0.9004  1.5473
55163SOL     OW72728   6.093   1.029  10.532 -0.1260 -0.2527 -0.4397
55163SOL    HW172729   6.167   1.005  10.588  1.0358  1.4040 -1.1935
55163SOL    HW272730   6.055   1.106  10.574 -0.6821 -0.3886 -0.6950
55164SOL     OW72731  11.341   7.075  10.411 -0.4702  0.1471 -0.3814
55164SOL    HW172732  11.344   7.148  10.350  0.3427  2.2211  1.9657
55164SOL    HW272733  11.433   7.055  10.429 -0.6870 -1.2656 -0.7456
55165SOL     OW72734  11.923   2.610  11.525  0.2962  0.2496 -0.2696
55165SOL    HW172735  11.879   2.622  11.609  0.6968  1.0558 -0.1668
55165SOL    HW272736  11.959   2.521  11.530  0.9178  0.5406  0.7037
55166SOL     OW72737   7.485   0.189   1.172  0.4262  0.4090  0.3132
55166SOL    HW172738   7.473   0.284   1.171  2.8829  0.8908 -3.1148
55166SOL    HW272739   7.578   0.177   1.192  0.1136 -1.3505  0.9372
55167SOL     OW72740   3.599   0.529   5.119  0.2695  0.1628 -0.4277
55167SOL    HW172741   3.680   0.528   5.069 -0.7578 -0.5864 -2.1427
55167SOL    HW272742   3.531   0.506   5.056 -1.1919 -0.0057  1.1357
55168SOL     OW72743   9.944   7.379   7.064  0.1675 -0.8397  0.0556
55168SOL    HW172744  10.011   7.353   7.001  0.6969  0.4338  0.0522
55168SOL    HW272745   9.994   7.416   7.137 -0.5230  1.1587 -0.4200
55169SOL     OW72746   2.911  12.181   5.133  0.2021 -0.3020 -0.5461
55169SOL    HW172747   2.995  12.222   5.115  0.5148 -0.7987 -0.2421
55169SOL    HW272748   2.866  12.242   5.191  0.1285  0.2149 -1.1389
55170SOL     OW72749  12.362   3.523   8.075 -0.3841 -0.2271 -0.4023
55170SOL    HW172750  12.434   3.494   8.130  0.5143  1.2192 -0.7751
55170SOL    HW272751  12.326   3.600   8.120  0.3449  0.9563 -1.7795
55171SOL     OW72752   4.136  12.430   4.788 -0.0986  0.0056 -0.3331
55171SOL    HW172753   4.189  12.447   4.865 -0.9455  0.1031  0.2389
55171SOL    HW272754   4.081  12.356   4.812 -1.9897  1.4311  0.0172
55172SOL     OW72755   9.358   2.739  11.529 -0.5293  0.0141  0.4123
55172SOL    HW172756   9.447   2.772  11.526 -0.5818  0.1480  0.3017
55172SOL    HW272757   9.304   2.814  11.504 -0.8234  0.4917  2.2780
55173SOL     OW72758   8.706  10.742   0.306 -0.1524  0.1073  0.4979
55173SOL    HW172759   8.674  10.831   0.288 -0.2134  0.0479  0.3151
55173SOL    HW272760   8.628  10.690   0.320 -0.1506 -0.0645 -0.0729
55174SOL     OW72761   0.568   4.316   2.423 -0.1369  0.3982  0.1682
55174SOL    HW172762   0.555   4.402   2.465 -0.5919  1.0199 -1.1682
55174SOL    HW272763   0.655   4.289   2.450  0.5943  1.9487 -0.4732
55175SOL     OW72764   8.129  12.082   8.110 -0.6408  0.3028 -0.0310
55175SOL    HW172765   8.193  12.054   8.045 -0.4802  0.2648  0.1429
55175SOL    HW272766   8.044  12.058   8.072 -0.5152 -0.3067  0.0541
55176SOL     OW72767   1.810   9.569  12.415  0.4291  0.6214 -0.3725
55176SOL    HW172768   1.846   9.594  12.500 -1.1810 -0.7678  0.7954
55176SOL    HW272769   1.833   9.641  12.357  2.7486  1.0042  0.8829
55177SOL     OW72770   8.968   5.454   8.816  0.0356 -0.5173 -0.0211
55177SOL    HW172771   9.014   5.404   8.749  0.3296 -0.3269  0.0376
55177SOL    HW272772   8.934   5.531   8.770 -2.7851 -2.0372 -0.7612
55178SOL     OW72773  10.880   0.452   5.534 -0.3257 -0.1449  0.2019
55178SOL    HW172774  10.816   0.521   5.550  0.1536  0.1689  0.8189
55178SOL    HW272775  10.850   0.378   5.587  0.9038  0.6757  2.1057
55179SOL     OW72776   5.280   2.244   6.931  0.0853 -0.2129  0.2883
55179SOL    HW172777   5.204   2.293   6.963 -0.2071 -0.4046 -0.0993
55179SOL    HW272778   5.263   2.232   6.838  0.6864 -0.1002  0.1638
55180SOL     OW72779  11.307   3.652   4.275 -0.7971 -0.2249 -0.2017
55180SOL    HW172780  11.280   3.744   4.278 -2.0591 -0.5540 -0.5160
55180SOL    HW272781  11.336   3.638   4.185  0.7592  0.1990  0.2071
55181SOL     OW72782   5.409   5.188   3.393 -0.6628  0.0774  0.0573
55181SOL    HW172783   5.321   5.161   3.418 -1.2466  1.8618  0.0616
55181SOL    HW272784   5.419   5.276   3.430 -0.1653  1.3279 -2.7518
55182SOL     OW72785   8.301  10.326   4.487  0.4854  0.3464  0.0534
55182SOL    HW172786   8.243  10.250   4.479 -1.2107  1.6349 -0.5768
55182SOL    HW272787   8.352  10.309   4.566 -2.1073 -0.0415  1.7676
55183SOL     OW72788   5.374   2.516   8.530  0.8056  0.5660 -0.7166
55183SOL    HW172789   5.286   2.481   8.522  1.3085 -1.0366  0.2523
55183SOL    HW272790   5.362   2.610   8.543 -0.8338  0.1932  0.8445
55184SOL     OW72791   5.791   3.510   2.446 -0.0315 -0.1904 -0.1281
55184SOL    HW172792   5.728   3.508   2.374  0.3933  1.4193 -0.5779
55184SOL    HW272793   5.876   3.509   2.404  0.2276  1.6816  0.2712
55185SOL     OW72794  11.041   9.282   7.082  0.1183  0.3116  0.4814
55185SOL    HW172795  10.995   9.205   7.117 -0.4808  0.5017  0.1161
55185SOL    HW272796  11.042   9.269   6.988  1.7312 -0.1921  0.5396
55186SOL     OW72797   8.011   0.745  11.545  0.8407 -0.1898  0.2647
55186SOL    HW172798   7.965   0.809  11.599 -1.3277  0.1306 -1.8031
55186SOL    HW272799   7.961   0.742  11.463  2.9654 -1.8917 -1.0916
55187SOL     OW72800   3.736   4.169   1.518  0.2915 -0.9356  0.2156
55187SOL    HW172801   3.642   4.162   1.534  0.2965 -1.2694  0.0964
55187SOL    HW272802   3.743   4.212   1.433  0.2636  0.6355  0.9662
55188SOL     OW72803   5.244   9.407  11.949  0.4164  0.3754  0.4636
55188SOL    HW172804   5.159   9.365  11.940 -0.3760  2.0430 -0.1516
55188SOL    HW272805   5.306   9.342  11.914 -0.8350 -0.0505 -1.0894
55189SOL     OW72806   0.876   3.939   4.037 -0.3647  0.7820  0.4241
55189SOL    HW172807   0.887   3.985   4.121 -0.0862  1.1935  0.1671
55189SOL    HW272808   0.966   3.914   4.013 -0.4769  0.4075  0.3879
55190SOL     OW72809   0.823   5.186   6.092  0.4157 -0.5364  0.3610
55190SOL    HW172810   0.837   5.271   6.051  2.0720 -0.5614  0.8097
55190SOL    HW272811   0.768   5.138   6.030  0.2303  0.5340 -0.3193
55191SOL     OW72812   1.727   3.805   3.545 -0.3862  0.2139  0.4394
55191SOL    HW172813   1.791   3.747   3.586  0.5233  0.5251 -0.5052
55191SOL    HW272814   1.662   3.822   3.614 -1.1513 -2.5641  0.5273
55192SOL     OW72815   7.871   0.886   3.149 -0.0901  0.5595 -0.2059
55192SOL    HW172816   7.917   0.907   3.068 -0.1018  0.8704 -0.1329
55192SOL    HW272817   7.926   0.925   3.218  1.1533 -1.6374  0.1351
55193SOL     OW72818   8.855   0.632  10.555  0.0854 -0.1937  0.0450
55193SOL    HW172819   8.873   0.620  10.649 -1.0938 -0.4698  0.2560
55193SOL    HW272820   8.761   0.617  10.547  0.0848  0.3370 -1.1116
55194SOL     OW72821   6.972  11.825   4.085 -0.6512  0.1869  0.0536
55194SOL    HW172822   7.043  11.884   4.110 -1.0930  1.3561 -1.3532
55194SOL    HW272823   6.893  11.865   4.122 -0.6804 -0.8698  1.2202
55195SOL     OW72824   8.797  10.588   1.431  0.6275 -0.0256 -0.0297
55195SOL    HW172825   8.875  10.558   1.383  0.8926 -1.8225  1.4066
55195SOL    HW272826   8.736  10.514   1.425  0.6608 -0.3177  2.3179
55196SOL     OW72827  11.310  10.923   6.465  0.3497  0.1821 -0.0473
55196SOL    HW172828  11.256  10.888   6.395  0.5147 -0.8776  0.3447
55196SOL    HW272829  11.311  11.018   6.449 -1.3980  0.2112 -0.2076
55197SOL     OW72830   1.066   8.963   5.524 -0.2751  0.3823 -0.3248
55197SOL    HW172831   1.092   9.005   5.605  0.0327  1.2969 -0.8861
55197SOL    HW272832   1.004   8.895   5.551 -0.5658  1.0054  0.6189
55198SOL     OW72833   9.400  10.666   0.260 -0.4043 -0.1987  0.3184
55198SOL    HW172834   9.329  10.707   0.310 -0.9751 -1.4149  0.5570
55198SOL    HW272835   9.357  10.595   0.212  0.5070 -0.3863 -0.2442
55199SOL     OW72836   0.766  10.498   2.675  0.0555  0.5757  0.3537
55199SOL    HW172837   0.860  10.496   2.691  0.0518 -0.9637  0.3339
55199SOL    HW272838   0.729  10.543   2.751  0.5889 -1.2546  1.7760
55200SOL     OW72839   8.805   0.635   6.829 -0.3529 -0.5346  0.1672
55200SOL    HW172840   8.808   0.552   6.781  0.2566 -0.7533  0.5735
55200SOL    HW272841   8.838   0.700   6.767 -1.0135 -0.5556 -0.2196
55201SOL     OW72842   4.123   0.146   1.849  0.0778 -0.1031  0.3442
55201SOL    HW172843   4.044   0.199   1.854 -1.4143 -2.2897  2.0107
55201SOL    HW272844   4.175   0.172   1.925  0.5287  0.6628 -0.2173
55202SOL     OW72845   9.215   3.372   9.612  0.3203 -0.1810 -0.2426
55202SOL    HW172846   9.182   3.300   9.665  2.6293 -0.2847  1.2013
55202SOL    HW272847   9.137   3.421   9.586 -1.1092 -1.8042  0.7913
55203SOL     OW72848  11.608   9.564   6.868  0.3266 -0.1751  0.1099
55203SOL    HW172849  11.684   9.611   6.836  0.9181 -0.4255  1.1032
55203SOL    HW272850  11.642   9.505   6.936 -0.5353 -1.3010 -0.3898
55204SOL     OW72851   4.781   1.466   8.305  0.2319 -0.7642 -0.1343
55204SOL    HW172852   4.745   1.414   8.233 -0.5467  0.7410 -0.8824
55204SOL    HW272853   4.842   1.526   8.263 -1.5388  1.3458  0.1351
55205SOL     OW72854  11.252   7.836   0.583 -0.1398 -0.2391  0.2422
55205SOL    HW172855  11.320   7.881   0.634 -0.5866 -1.5879  2.1399
55205SOL    HW272856  11.297   7.762   0.543 -0.2730 -0.6132  0.7645
55206SOL     OW72857   0.103  10.118  12.648 -0.3230 -0.4787 -0.0558
55206SOL    HW172858   0.133  10.061  12.577 -0.5945 -1.0434  0.2785
55206SOL    HW272859   0.180  10.167  12.674  0.0754 -1.1969  0.1289
55207SOL     OW72860   4.084   8.494   1.080 -0.8707  0.6871 -0.4251
55207SOL    HW172861   4.082   8.413   1.029 -1.3585  1.3030 -1.4118
55207SOL    HW272862   4.175   8.502   1.108 -1.2856 -1.4736  1.8416
55208SOL     OW72863   7.642   9.790   4.220 -0.0002  0.0541 -0.1822
55208SOL    HW172864   7.723   9.842   4.213  0.0922 -0.1636 -0.7110
55208SOL    HW272865   7.572   9.855   4.211  0.1145  0.1124 -0.6469
55209SOL     OW72866  10.319   2.358   4.360  0.3490 -0.6136 -1.0438
55209SOL    HW172867  10.402   2.392   4.326  0.3477  1.0588  0.4950
55209SOL    HW272868  10.266   2.436   4.376  0.2587 -1.2176  2.4091
55210SOL     OW72869   5.105  12.011   3.837 -1.1387 -0.1058 -0.0777
55210SOL    HW172870   5.166  12.083   3.857 -0.5289  0.2104 -2.7375
55210SOL    HW272871   5.129  11.942   3.898 -0.2190  1.1346  1.0286
55211SOL     OW72872   4.296   7.661  10.721  0.0664 -0.5825 -0.4383
55211SOL    HW172873   4.256   7.740  10.685  1.4919 -0.1827 -1.1945
55211SOL    HW272874   4.236   7.635  10.791  0.0947  1.7876  0.5891
55212SOL     OW72875  12.638   1.129  12.057  0.2016 -0.2637 -0.1702
55212SOL    HW172876  12.574   1.182  12.104  2.0758  1.7433  0.2787
55212SOL    HW272877  12.637   1.164  11.968  1.5759  0.7208  0.1709
55213SOL     OW72878   1.916  10.746   3.621  0.1302  0.2647  0.1646
55213SOL    HW172879   1.965  10.718   3.544 -0.7607  1.1674 -0.7781
55213SOL    HW272880   1.895  10.838   3.603  0.6822  0.7727  1.9195
55214SOL     OW72881  10.637   6.986  10.459 -0.2834  0.6083  0.2296
55214SOL    HW172882  10.577   6.984  10.384  1.5643 -0.0978 -1.3220
55214SOL    HW272883  10.693   6.910  10.447  1.0929  1.3785  1.4509
55215SOL     OW72884   7.812   4.314   2.929 -0.1611 -0.2385 -0.4115
55215SOL    HW172885   7.843   4.223   2.935  0.9853  0.1770  0.3315
55215SOL    HW272886   7.724   4.312   2.968  0.9409 -0.5569  2.2805
55216SOL     OW72887   9.323  12.431  11.677  0.1028 -0.0016  0.3206
55216SOL    HW172888   9.245  12.376  11.672 -0.0354  0.2547 -0.4369
55216SOL    HW272889   9.370  12.414  11.595  0.8416 -0.1455  0.7637
55217SOL     OW72890   1.516   6.772   2.304  0.1340  0.0727 -0.4412
55217SOL    HW172891   1.551   6.796   2.219 -2.4272  1.3298 -1.2632
55217SOL    HW272892   1.533   6.848   2.360 -0.0483  0.1219 -0.4508
55218SOL     OW72893   2.296  11.949  12.060  0.4228 -0.5741  0.5629
55218SOL    HW172894   2.287  11.866  12.013 -0.7154 -0.2870  0.2444
55218SOL    HW272895   2.350  12.003  12.001  0.5508 -0.8342  0.4368
55219SOL     OW72896   4.032  10.853   9.712 -0.3258 -0.5433 -0.3333
55219SOL    HW172897   3.946  10.896   9.714 -0.3397 -0.3195 -2.5977
55219SOL    HW272898   4.049  10.829   9.803 -2.5792 -0.1885  0.2535
55220SOL     OW72899   3.412   1.014  10.478  0.0669 -0.3425  0.0564
55220SOL    HW172900   3.342   0.976  10.531  0.6739 -2.0313 -0.2653
55220SOL    HW272901   3.455   1.077  10.535 -1.2668  0.1985  0.4894
55221SOL     OW72902   5.637  10.531   4.355  0.1643  0.7785 -0.0865
55221SOL    HW172903   5.731  10.520   4.342 -0.0679 -3.2761  0.3137
55221SOL    HW272904   5.599  10.516   4.269 -0.2560 -4.6830  0.7086
55222SOL     OW72905   4.384  10.131  12.232  0.1590 -0.2058  0.1220
55222SOL    HW172906   4.447  10.062  12.213  1.8733  1.3340 -0.1037
55222SOL    HW272907   4.365  10.121  12.325  2.6885  0.7163  0.8293
55223SOL     OW72908   8.678   8.165   1.963  0.1052 -0.0098  0.1372
55223SOL    HW172909   8.746   8.190   1.902  0.7287  0.7598  1.1128
55223SOL    HW272910   8.725   8.129   2.038 -0.6801 -2.1418 -0.3093
55224SOL     OW72911   6.588   0.390  12.237 -0.2031 -0.5139 -0.7651
55224SOL    HW172912   6.652   0.365  12.170 -0.0755  0.9833 -1.2267
55224SOL    HW272913   6.571   0.308  12.285  1.6477 -1.0618 -0.9601
55225SOL     OW72914   6.619  10.813   2.784 -0.6653 -0.2949 -0.3158
55225SOL    HW172915   6.566  10.796   2.706 -1.0083 -1.6829  0.1887
55225SOL    HW272916   6.635  10.908   2.782 -0.6686 -0.2976 -2.0505
55226SOL     OW72917   2.027   6.842  10.440 -0.1756  0.5103 -0.0970
55226SOL    HW172918   1.960   6.799  10.492  1.3503  0.2687  1.7866
55226SOL    HW272919   2.108   6.795  10.461  0.7209  1.1790 -1.8023
55227SOL     OW72920   2.311  12.428   6.903  0.2751  0.2053 -0.7240
55227SOL    HW172921   2.308  12.442   6.997 -0.0925 -1.3344 -0.4730
55227SOL    HW272922   2.344  12.338   6.893 -2.0805 -0.6198 -1.9376
55228SOL     OW72923   5.098   1.859   6.831  0.4428  0.1797  0.4439
55228SOL    HW172924   5.061   1.917   6.765 -0.3250 -0.1103  0.6113
55228SOL    HW272925   5.070   1.896   6.914  0.4928 -0.0728  0.5740
55229SOL     OW72926   0.574   4.963  11.929  0.6595 -0.3649  0.1089
55229SOL    HW172927   0.516   4.954  12.004 -0.4578  1.0627 -0.5394
55229SOL    HW272928   0.641   5.025  11.958  0.4866 -0.1698  0.0987
55230SOL     OW72929   0.712  10.155   1.734  0.0688 -0.5484 -0.1659
55230SOL    HW172930   0.700  10.154   1.639  3.0916  1.6309 -0.7343
55230SOL    HW272931   0.760  10.074   1.753  1.4282  0.0470 -0.9120
55231SOL     OW72932   4.662   0.808  11.508  0.1727  0.1756 -0.2437
55231SOL    HW172933   4.622   0.864  11.575 -2.3840  0.3753 -1.7986
55231SOL    HW272934   4.755   0.829  11.512 -0.1356  1.4343  2.0441
55232SOL     OW72935   1.744   0.677   3.061  0.4085 -0.4763 -0.2979
55232SOL    HW172936   1.697   0.618   3.002 -1.5313 -0.4491  1.1166
55232SOL    HW272937   1.728   0.764   3.026 -1.3851 -0.3932  0.5987
55233SOL     OW72938  10.401   4.913   2.161  0.4980 -0.1340 -0.3923
55233SOL    HW172939  10.390   4.876   2.074 -1.8678 -2.1304  0.6313
55233SOL    HW272940  10.312   4.935   2.189  1.0073 -0.7743  1.9745
55234SOL     OW72941   1.671  12.539   1.753  0.5415  0.6677 -0.7490
55234SOL    HW172942   1.680  12.536   1.848 -1.4585  0.3892 -0.5113
55234SOL    HW272943   1.683  12.448   1.725 -1.6713  0.1912 -0.3759
55235SOL     OW72944  11.283   8.820   6.723  0.5513  0.1229 -0.3478
55235SOL    HW172945  11.189   8.816   6.741  0.7009 -0.7670  0.2927
55235SOL    HW272946  11.290   8.813   6.627  0.0703 -2.8504 -0.2675
55236SOL     OW72947  12.571  11.164   4.857  0.0682  0.1542 -0.2342
55236SOL    HW172948  12.625  11.111   4.800 -0.3185 -0.2922 -0.1917
55236SOL    HW272949  12.552  11.243   4.807  2.3615  1.2177  0.4617
55237SOL     OW72950   0.697   9.508   9.380  0.1901  0.5394 -0.0554
55237SOL    HW172951   0.728   9.591   9.415  0.9099  0.7806 -1.2134
55237SOL    HW272952   0.691   9.522   9.286 -1.7878 -0.0632 -0.0676
55238SOL     OW72953   2.082   4.889   0.377 -0.4446 -0.0354 -0.0061
55238SOL    HW172954   2.143   4.934   0.318  0.2571 -1.0402 -0.0588
55238SOL    HW272955   2.044   4.820   0.323 -0.1661 -0.6496  0.5771
55239SOL     OW72956   8.790   2.319   9.988 -0.2827 -0.0023 -0.2069
55239SOL    HW172957   8.765   2.326  10.080  1.4602  1.0520  0.2242
55239SOL    HW272958   8.885   2.315   9.989 -0.2716 -0.9704 -1.9319
55240SOL     OW72959   5.714   1.662  12.050  0.1507  0.3833 -0.0006
55240SOL    HW172960   5.627   1.647  12.012 -0.3163  1.9049  0.3723
55240SOL    HW272961   5.703   1.645  12.143 -0.2078  2.0935  0.3132
55241SOL     OW72962   6.633  11.149   0.032 -0.0814 -0.3136 -0.6033
55241SOL    HW172963   6.678  11.215  -0.022  0.2831  0.4379  0.5652
55241SOL    HW272964   6.592  11.200   0.102 -0.7336 -1.2351 -0.3002
55242SOL     OW72965   9.452  11.159   3.291 -0.0583 -0.0337 -0.6327
55242SOL    HW172966   9.473  11.071   3.322  1.3991  0.5518  0.1885
55242SOL    HW272967   9.467  11.156   3.197  2.0611 -0.1664 -0.3425
55243SOL     OW72968   7.792  10.966   3.126  0.5842  0.6770 -0.3419
55243SOL    HW172969   7.863  10.974   3.190  0.8768 -0.7364 -0.4672
55243SOL    HW272970   7.719  10.928   3.174  0.5815  0.2325 -0.6922
55244SOL     OW72971   5.217   1.266   0.530  0.3409 -0.1155  0.0751
55244SOL    HW172972   5.266   1.302   0.605  0.9241 -0.2759 -0.2192
55244SOL    HW272973   5.212   1.172   0.548  2.2182 -0.4873 -1.0074
55245SOL     OW72974   1.000   7.294   8.663 -0.0780  0.2617  0.3112
55245SOL    HW172975   0.923   7.238   8.675 -0.5449  1.1899  2.0026
55245SOL    HW272976   1.072   7.232   8.649 -0.7711 -0.7154  0.8714
55246SOL     OW72977   7.126   1.310   0.626  0.1630 -0.0504 -0.0163
55246SOL    HW172978   7.208   1.348   0.593  0.6412 -1.5599 -0.6445
55246SOL    HW272979   7.136   1.311   0.721  0.2153  1.2404 -0.0174
55247SOL     OW72980   5.618   5.650   2.380 -0.1367  0.4969 -0.0427
55247SOL    HW172981   5.581   5.580   2.326 -1.3956  1.4017 -0.4013
55247SOL    HW272982   5.575   5.639   2.466  2.2101 -1.2327  1.0024
55248SOL     OW72983   8.083  11.491   3.566 -0.7329  0.2414 -0.4094
55248SOL    HW172984   8.128  11.566   3.528  0.1273 -0.8570 -1.6888
55248SOL    HW272985   8.123  11.479   3.651 -0.7095  1.0701 -0.2952
55249SOL     OW72986   2.400   8.350  11.527  0.1247 -0.2850 -0.6729
55249SOL    HW172987   2.310   8.356  11.559 -0.0641 -1.6384 -0.8818
55249SOL    HW272988   2.443   8.293  11.591  1.0182  0.8517 -0.2306
55250SOL     OW72989   4.043   2.471   2.540  0.2487  0.3677  0.5485
55250SOL    HW172990   4.048   2.561   2.573 -1.4315 -0.0412  2.0612
55250SOL    HW272991   4.112   2.425   2.587  2.3795  1.1808 -1.5931
55251SOL     OW72992   9.763  11.752  11.374  0.1757 -0.2998 -0.7359
55251SOL    HW172993   9.680  11.726  11.336 -0.3945 -0.6959  0.7081
55251SOL    HW272994   9.767  11.706  11.458  2.1973 -0.8869 -1.0896
55252SOL     OW72995   1.200   2.409   2.941  0.0949 -0.0015  0.2948
55252SOL    HW172996   1.200   2.427   3.035  0.7438 -0.6924  0.4422
55252SOL    HW272997   1.173   2.491   2.900  1.3575  0.8141  1.0164
55253SOL     OW72998   9.871   4.441   8.518 -0.3652  0.2295 -0.0834
55253SOL    HW172999   9.919   4.513   8.558  1.1998  0.4988 -2.3107
55253SOL    HW273000   9.821   4.481   8.447 -2.0571 -0.4308  0.6703
55254SOL     OW73001   0.097   8.217  11.611  0.4054  0.2766 -0.3202
55254SOL    HW173002   0.032   8.276  11.648 -1.7195 -0.7404 -2.2015
55254SOL    HW273003   0.121   8.158  11.683  0.9397  2.0136  0.9764
55255SOL     OW73004   3.725   4.140   6.409  0.4645 -0.2238 -0.5633
55255SOL    HW173005   3.727   4.060   6.461  3.9857 -0.6967 -1.1945
55255SOL    HW273006   3.672   4.201   6.460 -1.3739 -2.5288  0.4825
55256SOL     OW73007   3.265   4.762   0.594 -0.1580 -0.1561  0.0744
55256SOL    HW173008   3.276   4.809   0.512  0.1558 -2.5021 -1.3162
55256SOL    HW273009   3.340   4.703   0.598  0.0897  0.2355  2.3227
55257SOL     OW73010   7.272   0.103   0.984  0.1350 -1.0400  0.3450
55257SOL    HW173011   7.335   0.131   1.051 -0.7672 -0.9213  1.1621
55257SOL    HW273012   7.186   0.123   1.021 -0.3851 -0.5579 -1.0311
55258SOL     OW73013   5.113   7.811   7.030 -0.9553  0.2871 -0.1962
55258SOL    HW173014   5.184   7.802   7.094 -1.6487 -1.0414  0.4301
55258SOL    HW273015   5.063   7.886   7.061 -0.6734  0.3077  0.2179
55259SOL     OW73016   5.174   0.095   0.860  0.3396  0.2504 -0.3426
55259SOL    HW173017   5.189   0.022   0.800  0.2741 -1.5885  1.7619
55259SOL    HW273018   5.208   0.172   0.813 -1.3497 -0.7197 -3.4483
55260SOL     OW73019   9.681   8.293   5.365 -0.9200  0.5028 -0.0308
55260SOL    HW173020   9.694   8.304   5.459 -1.6518 -0.5943  0.2164
55260SOL    HW273021   9.723   8.209   5.345 -1.5638  0.2904 -0.5147
55261SOL     OW73022   8.817   1.622   7.354  0.0430 -0.2395  0.1481
55261SOL    HW173023   8.795   1.564   7.281  0.2842 -0.0962 -0.0385
55261SOL    HW273024   8.912   1.624   7.356  0.0384 -0.2843  0.5013
55262SOL     OW73025   9.098   6.119   1.517 -0.1351  0.0266 -0.2958
55262SOL    HW173026   9.121   6.202   1.477 -1.8975  0.1594 -1.1355
55262SOL    HW273027   9.003   6.121   1.523 -0.1624 -1.6332  0.3409
55263SOL     OW73028   0.244   0.106   9.356  0.0031 -0.0182  0.2212
55263SOL    HW173029   0.225   0.013   9.372  0.7661  0.0723  1.8727
55263SOL    HW273030   0.331   0.119   9.393  0.3718  1.1264 -1.0013
55264SOL     OW73031  11.729   0.489  10.531  0.3495  0.1870  0.1111
55264SOL    HW173032  11.788   0.440  10.473  0.0410 -0.3513  0.2454
55264SOL    HW273033  11.654   0.511  10.476 -0.3877 -1.1563  0.5298
55265SOL     OW73034   8.845  10.916   7.417 -0.3192  0.8448  0.6994
55265SOL    HW173035   8.935  10.950   7.413  0.7725 -1.8725  0.6190
55265SOL    HW273036   8.823  10.919   7.511 -0.3133  1.8340  0.6829
55266SOL     OW73037   9.879   7.297   7.752  0.1027  0.1290 -0.0971
55266SOL    HW173038   9.963   7.257   7.733 -0.0958 -0.6505  0.6273
55266SOL    HW273039   9.869   7.289   7.847 -1.2731 -0.7940 -0.2946
55267SOL     OW73040   2.889   6.979   7.682  0.6670 -0.0713 -0.6736
55267SOL    HW173041   2.917   7.024   7.762 -1.0192  0.6062 -0.4120
55267SOL    HW273042   2.970   6.948   7.642  1.7172  1.2744  0.2925
55268SOL     OW73043  10.361  11.489   0.044 -0.4826 -0.7286 -0.0135
55268SOL    HW173044  10.276  11.494   0.000 -1.3925 -3.1260  1.3256
55268SOL    HW273045  10.371  11.575   0.086 -3.2419 -1.0370  1.4986
55269SOL     OW73046   7.837   1.434   8.629  0.0691  0.0261  0.0782
55269SOL    HW173047   7.867   1.520   8.602 -0.1780 -0.4391 -1.7996
55269SOL    HW273048   7.741   1.440   8.629  0.0500 -0.2706 -0.1302
55270SOL     OW73049   1.065   1.577   6.187 -0.0735 -0.3453  0.2115
55270SOL    HW173050   1.057   1.530   6.104 -0.2566  0.7547 -0.4036
55270SOL    HW273051   0.975   1.599   6.211  0.1282  1.9469 -0.8511
55271SOL     OW73052   2.280   4.530   1.405  0.7061  0.0775 -0.2956
55271SOL    HW173053   2.277   4.465   1.476 -1.9959  0.9061  0.4716
55271SOL    HW273054   2.219   4.497   1.340  1.0163  0.7523 -0.9443
55272SOL     OW73055   7.599   2.615   8.841 -0.3021 -0.8966  0.3466
55272SOL    HW173056   7.527   2.623   8.904  1.1255 -0.7985  2.0705
55272SOL    HW273057   7.657   2.549   8.880  0.1778 -1.5382 -1.3783
55273SOL     OW73058   9.965   9.395  10.150  0.5840 -0.2407  0.0600
55273SOL    HW173059   9.962   9.456  10.076  0.7372 -0.9880 -0.5773
55273SOL    HW273060   9.880   9.350  10.147  0.7239 -0.5142  0.1271
55274SOL     OW73061   4.354   9.829   3.476  0.5061  0.4194  0.6558
55274SOL    HW173062   4.369   9.792   3.563  0.4705 -1.2657 -0.0166
55274SOL    HW273063   4.427   9.798   3.423  0.9724  2.1066  0.2556
55275SOL     OW73064  10.394   3.381   0.599 -0.2256 -0.1139 -0.5035
55275SOL    HW173065  10.432   3.446   0.540 -1.1453 -0.3041 -1.3232
55275SOL    HW273066  10.430   3.297   0.570 -0.3727 -0.1648 -0.5383
55276SOL     OW73067   2.449  10.395   1.420 -0.2349 -0.0109 -0.4885
55276SOL    HW173068   2.513  10.324   1.431  1.7151  1.5466 -1.1268
55276SOL    HW273069   2.389  10.362   1.353  0.8530 -0.9317 -1.0570
55277SOL     OW73070   9.255  11.468   6.653 -0.1623 -0.1191  1.0850
55277SOL    HW173071   9.210  11.495   6.573 -1.4204 -0.4520  1.6613
55277SOL    HW273072   9.240  11.373   6.657 -1.0160  0.0505  2.2521
55278SOL     OW73073   1.002   0.944   5.827  0.5819 -0.2389  0.1992
55278SOL    HW173074   0.991   0.862   5.777 -0.7803  0.0250  0.0320
55278SOL    HW273075   1.016   0.915   5.917 -0.0813 -0.6518  0.1722
55279SOL     OW73076  11.106   2.274   2.075  0.0994 -0.4838 -0.7120
55279SOL    HW173077  11.038   2.211   2.099 -1.8329  1.2536 -1.3314
55279SOL    HW273078  11.082   2.354   2.123  1.1258  0.4627 -1.7270
55280SOL     OW73079   9.960  12.220   5.480 -0.0859  0.3850  0.1642
55280SOL    HW173080  10.033  12.236   5.419 -0.9450  0.7334 -0.8012
55280SOL    HW273081   9.929  12.132   5.457  1.2381 -0.6123  1.8984
55281SOL     OW73082  10.207   9.237  11.989 -0.1172 -0.4163 -0.1550
55281SOL    HW173083  10.239   9.175  11.923 -2.4592 -1.6051 -0.2773
55281SOL    HW273084  10.123   9.267  11.955 -0.9312 -0.3108  1.8111
55282SOL     OW73085   3.040   0.664   4.173 -0.0647  0.3191  0.3197
55282SOL    HW173086   3.065   0.720   4.247 -1.5328  1.1082  0.2620
55282SOL    HW273087   2.971   0.607   4.209 -1.9374  1.7773 -0.7653
55283SOL     OW73088   4.354   1.693  11.867  0.0195 -0.3537  0.4373
55283SOL    HW173089   4.348   1.714  11.774 -0.6281 -0.7764  0.3808
55283SOL    HW273090   4.411   1.761  11.903  1.9603 -1.3098 -0.6291
55284SOL     OW73091   4.068   9.501   4.852  0.4521  0.3340 -0.0434
55284SOL    HW173092   3.980   9.467   4.864  0.6477  0.2839  1.5296
55284SOL    HW273093   4.094   9.472   4.765 -0.6440 -0.6454 -0.0682
55285SOL     OW73094   3.156  11.546   7.274 -0.3974  0.5212  0.5082
55285SOL    HW173095   3.098  11.471   7.290 -0.6829  0.2225 -1.6665
55285SOL    HW273096   3.231  11.509   7.227 -0.5491  1.5889 -0.6081
55286SOL     OW73097   4.768  10.192   1.449 -0.0951 -0.2743 -0.2325
55286SOL    HW173098   4.681  10.212   1.485  0.6857  2.3159  0.3889
55286SOL    HW273099   4.821  10.170   1.526  0.9640  2.9251  0.0819
55287SOL     OW73100   3.321  11.220  12.103  0.0886  0.4152  0.1037
55287SOL    HW173101   3.309  11.314  12.093 -1.5094  0.1530 -0.6634
55287SOL    HW273102   3.380  11.196  12.031 -1.2636  0.5090 -1.0658
55288SOL     OW73103  12.315   1.325   9.589  0.1373  0.5313 -0.1999
55288SOL    HW173104  12.304   1.267   9.664  1.2279  0.3313 -0.1824
55288SOL    HW273105  12.260   1.287   9.520 -0.1143  0.1820  0.1903
55289SOL     OW73106  12.581  10.365   1.471 -0.2753  0.1240 -0.2791
55289SOL    HW173107  12.494  10.405   1.479 -0.2503  0.3221 -0.9125
55289SOL    HW273108  12.638  10.419   1.526 -0.8746 -1.1034  1.6656
55290SOL     OW73109   1.841   0.419   8.989  0.4550 -0.0698 -0.2843
55290SOL    HW173110   1.902   0.421   9.062 -1.0650 -1.9329  1.1651
55290SOL    HW273111   1.779   0.490   9.006  0.5884  0.0331 -0.2308
55291SOL     OW73112   2.819  11.496   4.597  0.4204 -0.3998  0.0389
55291SOL    HW173113   2.794  11.588   4.592  2.9932  0.3026 -1.7859
55291SOL    HW273114   2.885  11.493   4.666  0.4677 -0.8413 -0.0204
55292SOL     OW73115   6.869   8.935   4.466 -0.0473  0.0457 -0.0012
55292SOL    HW173116   6.856   8.958   4.374  0.7688 -1.6517 -0.5783
55292SOL    HW273117   6.880   8.840   4.466 -2.7183 -0.4001  2.1614
55293SOL     OW73118   8.818  10.580  10.116  0.0132  0.1810  0.1415
55293SOL    HW173119   8.755  10.615  10.053 -2.7979 -0.7665  2.2568
55293SOL    HW273120   8.880  10.532  10.062  0.0508  2.5843 -2.2068
55294SOL     OW73121   1.979   7.603   0.667 -0.4417  0.5986  0.3449
55294SOL    HW173122   2.013   7.572   0.583 -0.8145  0.5258  0.2163
55294SOL    HW273123   1.892   7.637   0.646 -0.6775  0.2625  0.7557
55295SOL     OW73124   3.989   6.635   8.672 -0.5202 -0.0739  0.1981
55295SOL    HW173125   4.055   6.595   8.615 -0.3031 -0.8622  0.9808
55295SOL    HW273126   3.916   6.656   8.613  0.1245  0.1311 -0.5513
55296SOL     OW73127   7.654   7.810  11.966 -0.2572 -0.0323 -0.1024
55296SOL    HW173128   7.573   7.806  12.018 -2.2633 -0.6507 -3.0363
55296SOL    HW273129   7.683   7.720  11.960  1.0620  0.2576  1.4434
55297SOL     OW73130   4.216  12.626  12.032  0.0210  0.0627 -0.4180
55297SOL    HW173131   4.222  12.713  11.993 -1.5385  0.5086  0.2747
55297SOL    HW273132   4.197  12.643  12.124  0.7330 -1.0186 -0.0548
55298SOL     OW73133   1.119   8.434   6.529 -0.1366  0.1614  0.5506
55298SOL    HW173134   1.180   8.447   6.602 -0.6723 -0.6892  1.1587
55298SOL    HW273135   1.035   8.464   6.562 -0.5739 -1.0852  0.6175
55299SOL     OW73136   5.910   0.039  11.787  0.1049 -0.0714  0.2817
55299SOL    HW173137   5.848   0.010  11.854 -0.9912 -0.9267 -1.0499
55299SOL    HW273138   5.874   0.121  11.755 -0.7489 -0.8831 -0.9377
55300SOL     OW73139   6.746   6.437   7.361  0.0752  0.0724 -0.9211
55300SOL    HW173140   6.776   6.346   7.359  2.0872  0.6471  0.4607
55300SOL    HW273141   6.815   6.484   7.407 -0.2817  2.5541 -2.7143
55301SOL     OW73142   6.898  12.212   1.427  0.8050  0.4906 -0.0306
55301SOL    HW173143   6.903  12.240   1.336 -2.6221 -1.4655 -0.9863
55301SOL    HW273144   6.858  12.285   1.473 -0.6969  0.2103 -0.8533
55302SOL     OW73145   7.795   4.364   6.283 -0.2518 -0.1765 -0.1758
55302SOL    HW173146   7.876   4.415   6.289  1.1917 -2.2885 -0.5789
55302SOL    HW273147   7.824   4.275   6.266 -2.5871 -1.4313  1.7902
55303SOL     OW73148   3.670   6.360   0.469  0.2407  0.1127 -0.3061
55303SOL    HW173149   3.649   6.303   0.394  0.6147  0.3280 -0.5801
55303SOL    HW273150   3.766   6.363   0.470  0.2419  0.0371  0.2440
55304SOL     OW73151   3.677   4.147   6.005  0.1925  0.2402 -0.6821
55304SOL    HW173152   3.755   4.095   5.986  0.3575  0.4039 -0.4620
55304SOL    HW273153   3.696   4.233   5.967  0.2672  0.3830 -0.3297
55305SOL     OW73154   3.805   0.633  12.158 -0.0517  0.4093 -0.0780
55305SOL    HW173155   3.862   0.707  12.138 -0.1542  0.3402 -0.6261
55305SOL    HW273156   3.804   0.629  12.254  0.1060  0.9965 -0.0502
55306SOL     OW73157  10.100   5.609   1.649  0.1076  0.1303 -0.1115
55306SOL    HW173158  10.145   5.547   1.592 -1.2022 -0.1340 -0.8970
55306SOL    HW273159  10.016   5.568   1.669 -0.0827  0.8985  0.7671
55307SOL     OW73160   6.186   6.243   7.002  0.9043  0.2965 -0.1574
55307SOL    HW173161   6.194   6.173   7.067 -0.6045  0.4998  0.2922
55307SOL    HW273162   6.177   6.197   6.918 -0.9196 -0.1446  0.2184
55308SOL     OW73163   4.586   8.648   5.808  0.1904  0.0901  0.5197
55308SOL    HW173164   4.505   8.692   5.833  0.9572  0.2182  3.0339
55308SOL    HW273165   4.603   8.586   5.879  2.6224  0.5569  0.4337
55309SOL     OW73166   5.401   3.863   8.984 -0.6779  0.3157 -0.2028
55309SOL    HW173167   5.432   3.916   9.057 -4.6045  1.1204  1.1088
55309SOL    HW273168   5.405   3.921   8.908 -1.1606  1.1860  0.4160
55310SOL     OW73169   0.791   7.674  12.314 -0.0655 -0.0964 -0.0052
55310SOL    HW173170   0.840   7.612  12.259  0.6157  0.6745 -0.2845
55310SOL    HW273171   0.839   7.756  12.305 -1.3466  0.6441 -0.1540
55311SOL     OW73172  10.495   1.113   5.646 -0.3220  0.1071  0.0640
55311SOL    HW173173  10.481   1.177   5.716  1.4822  0.9743 -0.3163
55311SOL    HW273174  10.579   1.072   5.667 -0.4864 -0.7150 -0.7925
55312SOL     OW73175   0.907   3.957   9.533  0.0945 -0.9015  0.1050
55312SOL    HW173176   0.849   3.928   9.463  0.9969  0.8490 -1.4755
55312SOL    HW273177   0.851   4.004   9.594 -0.2483  0.8572 -1.4472
55313SOL     OW73178   7.299  11.295   5.165  0.5646  0.1163 -0.4139
55313SOL    HW173179   7.311  11.250   5.082  0.1571 -0.7348 -0.0335
55313SOL    HW273180   7.207  11.280   5.187  0.5161  0.8483 -0.1031
55314SOL     OW73181   7.879   3.396   0.281 -0.1285 -0.4304 -0.3481
55314SOL    HW173182   7.874   3.305   0.310  1.3601 -0.8137 -1.2009
55314SOL    HW273183   7.902   3.445   0.360 -0.5360 -0.8464  0.0323
55315SOL     OW73184  11.672  10.972   7.448 -0.0071  0.0619  0.1726
55315SOL    HW173185  11.740  10.984   7.382 -1.6249  0.3389 -1.5384
55315SOL    HW273186  11.696  10.891   7.493  2.0246  0.7388  0.4013
55316SOL     OW73187   3.059   3.662  11.776  0.1447  0.1636  0.4075
55316SOL    HW173188   3.054   3.638  11.869 -0.5224 -0.6605  0.1737
55316SOL    HW273189   2.981   3.621  11.737  0.8912 -0.2666 -0.6800
55317SOL     OW73190   2.563  11.027  11.714 -0.3269 -0.2096  0.1123
55317SOL    HW173191   2.573  10.954  11.775  1.2410 -1.0000 -0.9960
55317SOL    HW273192   2.486  11.005  11.662 -0.5484 -0.4923  0.5556
55318SOL     OW73193  11.264   8.201   6.153  0.1924 -0.2748 -0.9397
55318SOL    HW173194  11.243   8.279   6.204 -0.4683 -0.1044 -1.4536
55318SOL    HW273195  11.359   8.205   6.139  0.2036  0.2718 -0.7099
55319SOL     OW73196   4.837   9.385   3.600  0.0675  0.3002 -0.2478
55319SOL    HW173197   4.854   9.476   3.626  1.3986  0.3128 -1.1033
55319SOL    HW273198   4.914   9.359   3.550  0.0625 -1.5826  0.6383
55320SOL     OW73199   3.710   0.604   4.197 -0.3175 -0.2843  0.2871
55320SOL    HW173200   3.797   0.641   4.211  0.0925 -1.6685  1.7019
55320SOL    HW273201   3.710   0.576   4.106  1.2126 -1.3906  0.5831
55321SOL     OW73202  10.741   7.499   9.590 -0.5089 -0.2593  0.1387
55321SOL    HW173203  10.816   7.499   9.648  0.6849 -2.3836 -1.2945
55321SOL    HW273204  10.665   7.497   9.649  0.6431 -2.8536  1.6890
55322SOL     OW73205   1.132  12.503   0.743  0.9793  0.0000  0.3718
55322SOL    HW173206   1.037  12.505   0.737  0.8142 -0.3400  2.3939
55322SOL    HW273207   1.161  12.586   0.706 -0.1203  0.2704  0.1022
55323SOL     OW73208   0.953   4.103   0.283  0.1808 -0.6390 -0.1521
55323SOL    HW173209   0.931   4.124   0.374  0.6187 -1.7954  0.2440
55323SOL    HW273210   0.949   4.187   0.237  0.3146  0.0210  1.0076
55324SOL     OW73211   9.711  11.640   9.287 -0.0082 -0.1908 -0.2708
55324SOL    HW173212   9.709  11.592   9.370  0.1504  2.9205  1.7050
55324SOL    HW273213   9.803  11.656   9.270  0.0451 -1.7829 -1.7624
55325SOL     OW73214   9.528   5.358   1.590  0.2801 -0.4515 -0.0980
55325SOL    HW173215   9.551   5.303   1.515  0.5338  0.0948 -0.4322
55325SOL    HW273216   9.432   5.358   1.592  0.1888  1.2394 -1.7570
55326SOL     OW73217   7.476  10.820   9.427  0.0104  0.1581  0.5000
55326SOL    HW173218   7.550  10.870   9.392 -0.7509  1.3334  0.5161
55326SOL    HW273219   7.412  10.819   9.355  0.7159 -2.4501 -0.2080
55327SOL     OW73220   2.786   4.479  10.285 -0.0022  0.2162  0.8142
55327SOL    HW173221   2.783   4.563  10.239  0.4881 -1.1060 -1.7900
55327SOL    HW273222   2.703   4.436  10.263  0.3288 -0.5389  1.0063
55328SOL     OW73223   0.047   2.959  11.589 -0.5335  0.1351 -0.5644
55328SOL    HW173224  -0.019   2.973  11.521 -0.5114  1.7536 -0.2928
55328SOL    HW273225   0.104   3.035  11.583  1.0670 -1.0075 -0.4733
55329SOL     OW73226   3.363  12.128   9.087  0.4716  0.1074  0.2723
55329SOL    HW173227   3.429  12.065   9.057  0.1859  0.4371 -1.1107
55329SOL    HW273228   3.412  12.190   9.142  0.7606 -1.2854  1.6698
55330SOL     OW73229  12.518   3.945   7.217 -0.3418  0.1122  0.1753
55330SOL    HW173230  12.453   3.876   7.223  0.5858 -0.7589  0.4562
55330SOL    HW273231  12.531   3.959   7.123  0.5794 -1.2023  0.0730
55331SOL     OW73232   7.021   8.209   8.824 -0.8749 -0.3371  0.3129
55331SOL    HW173233   7.094   8.248   8.872 -0.5310  0.1070 -0.5480
55331SOL    HW273234   6.946   8.263   8.848 -0.4856  0.6092 -0.5211
55332SOL     OW73235   9.188  11.219   7.994  0.0273 -0.8100  0.3359
55332SOL    HW173236   9.122  11.272   7.949  0.5240 -1.2231 -0.9496
55332SOL    HW273237   9.219  11.275   8.065 -0.0680  0.3157 -0.4717
55333SOL     OW73238   6.779   5.054   9.116 -0.7262 -0.3726 -0.0686
55333SOL    HW173239   6.845   4.985   9.115 -1.2965 -0.9118 -0.3315
55333SOL    HW273240   6.802   5.107   9.193  0.5413 -0.0320 -0.6537
55334SOL     OW73241   0.469   9.400   7.801  0.5284 -0.3778  0.0302
55334SOL    HW173242   0.451   9.320   7.752 -1.1089  0.0370 -0.1012
55334SOL    HW273243   0.408   9.397   7.875 -0.5180  1.3498 -0.6930
55335SOL     OW73244   8.788   8.404  10.987  0.0973 -0.3503  0.0161
55335SOL    HW173245   8.784   8.325  10.933  0.1993 -0.0992 -0.3578
55335SOL    HW273246   8.876   8.439  10.973 -0.4603  0.6867 -1.0393
55336SOL     OW73247   5.664   2.071   3.454 -0.0803  0.8258 -0.5187
55336SOL    HW173248   5.752   2.109   3.465  0.7738 -1.3576  0.9049
55336SOL    HW273249   5.644   2.085   3.362  2.0692  0.7937 -1.0606
55337SOL     OW73250   5.244   4.293   7.249  0.1382 -0.2359 -0.0788
55337SOL    HW173251   5.330   4.250   7.245 -0.5188 -1.5506 -0.8483
55337SOL    HW273252   5.223   4.314   7.158 -0.5208 -0.2956  0.0531
55338SOL     OW73253  11.823   9.203   8.878 -0.1542  0.9820 -0.1131
55338SOL    HW173254  11.773   9.282   8.856 -2.3460 -0.9239 -2.6249
55338SOL    HW273255  11.906   9.214   8.833 -1.3833  0.8802 -2.5518
55339SOL     OW73256   7.771   8.525  12.222  0.1462 -0.5486 -0.1044
55339SOL    HW173257   7.740   8.607  12.260 -0.1492 -1.1948  1.0893
55339SOL    HW273258   7.705   8.503  12.156  0.9412  0.8506 -1.4456
55340SOL     OW73259   1.805   3.414  10.821  0.2091  0.1734  0.6246
55340SOL    HW173260   1.727   3.413  10.766  0.4374  0.9957  0.2632
55340SOL    HW273261   1.874   3.446  10.763  0.5087  0.8246  1.3209
55341SOL     OW73262  11.877   5.218  12.522 -0.3440  0.3689  0.0350
55341SOL    HW173263  11.919   5.161  12.458 -2.0102 -0.7045 -0.1660
55341SOL    HW273264  11.788   5.230  12.489 -0.9438  0.6077  1.6377
55342SOL     OW73265   8.330  10.460   5.104 -0.0789  0.0877 -0.4415
55342SOL    HW173266   8.242  10.436   5.133 -0.6407  0.2625 -1.9110
55342SOL    HW273267   8.332  10.438   5.011  0.4854  2.6159 -1.1107
55343SOL     OW73268   9.534   2.522   3.163 -0.2386 -0.5521  0.3891
55343SOL    HW173269   9.445   2.486   3.158 -1.0614  1.4922 -1.1056
55343SOL    HW273270   9.553   2.549   3.073  0.2843  2.6700  1.3533
55344SOL     OW73271   0.379   7.267   5.096  0.5026  0.3591 -0.3622
55344SOL    HW173272   0.469   7.237   5.097  1.1612  2.2236  0.1087
55344SOL    HW273273   0.329   7.193   5.062  2.0434 -1.1078  0.4460
55345SOL     OW73274  11.742   2.611   6.473  0.1976 -0.8151 -0.2482
55345SOL    HW173275  11.673   2.626   6.538  0.6323 -0.6773  0.1953
55345SOL    HW273276  11.755   2.696   6.432  1.1747 -0.4466  0.7637
55346SOL     OW73277   1.844   3.564  10.491  0.3849 -0.3439  0.4083
55346SOL    HW173278   1.866   3.509  10.415  4.0762 -0.4332  1.3214
55346SOL    HW273279   1.774   3.517  10.535 -0.1105 -1.6197 -1.5764
55347SOL     OW73280   7.963  12.482  11.948  0.2075  0.0397 -0.4923
55347SOL    HW173281   7.878  12.454  11.913  0.8283 -1.4867 -0.8339
55347SOL    HW273282   7.983  12.419  12.017  0.0342  1.7386  1.2112
55348SOL     OW73283   1.046   2.458   2.249  0.0357  0.4488  0.6430
55348SOL    HW173284   1.123   2.408   2.223  0.6685  0.3350  2.6001
55348SOL    HW273285   1.008   2.487   2.166  1.4512 -0.5507 -0.4199
55349SOL     OW73286   5.653   0.770   1.001 -0.4598 -0.1717  0.4526
55349SOL    HW173287   5.572   0.732   1.033  0.3343 -1.7690  0.6515
55349SOL    HW273288   5.718   0.747   1.067  0.2846  0.5440 -0.0052
55350SOL     OW73289   8.077   9.613  11.461  0.5673  0.4253 -0.8527
55350SOL    HW173290   8.035   9.669  11.396 -0.8157 -0.5233 -0.8100
55350SOL    HW273291   8.006   9.560  11.498  1.9875 -3.1453 -2.6673
55351SOL     OW73292   6.753   9.355   8.450 -0.0869  0.2718 -0.7766
55351SOL    HW173293   6.657   9.359   8.452 -0.1633 -1.1919  0.9601
55351SOL    HW273294   6.773   9.301   8.373 -0.8129 -1.4874  0.2072
55352SOL     OW73295   6.850   4.658   7.416  0.0973 -0.5523  0.6614
55352SOL    HW173296   6.924   4.717   7.401  0.4159 -1.4573 -1.8270
55352SOL    HW273297   6.776   4.700   7.373 -0.2463 -0.8359  0.9629
55353SOL     OW73298   9.290   8.991  11.733  0.0518 -0.4736 -0.0737
55353SOL    HW173299   9.271   8.910  11.686  1.1539 -0.9213  0.2055
55353SOL    HW273300   9.384   8.987  11.750  0.2835  1.2155 -0.7073
55354SOL     OW73301   1.029   2.718   4.737  0.0503  0.3812  0.0027
55354SOL    HW173302   0.963   2.654   4.763  0.0644  0.1754 -0.4706
55354SOL    HW273303   1.031   2.714   4.642 -0.9945  2.1419 -0.1315
55355SOL     OW73304   8.868   7.307   4.825  0.0942 -0.0397 -0.0175
55355SOL    HW173305   8.942   7.309   4.765  0.0859 -1.0347 -0.0728
55355SOL    HW273306   8.791   7.296   4.768 -0.0149  0.1325  0.0955
55356SOL     OW73307   7.247   5.542   1.871 -1.4337  0.2508  0.0047
55356SOL    HW173308   7.155   5.520   1.881 -0.9949 -1.6803  0.1466
55356SOL    HW273309   7.292   5.495   1.941 -0.4287  2.1206  0.7076
55357SOL     OW73310  12.216   9.641   1.234  0.0547 -0.1667  0.3423
55357SOL    HW173311  12.138   9.594   1.262  0.4178 -1.5206 -0.8723
55357SOL    HW273312  12.288   9.595   1.276  0.5415 -1.7183 -2.0157
55358SOL     OW73313   1.305   8.818   4.452 -0.0530 -0.0474 -1.0163
55358SOL    HW173314   1.257   8.811   4.370  0.5730 -0.4562 -1.3513
55358SOL    HW273315   1.308   8.729   4.487  0.3911 -0.0138 -0.9613
55359SOL     OW73316   3.268  10.858   9.175 -0.2308  0.6108  0.3882
55359SOL    HW173317   3.189  10.912   9.172 -0.1110  1.0008  2.3572
55359SOL    HW273318   3.305  10.877   9.262  2.4518  1.0521 -0.7587
55360SOL     OW73319   4.937  11.008   8.945  0.4542 -0.2824  0.7610
55360SOL    HW173320   4.933  10.929   8.998  0.4296 -0.2780  0.7660
55360SOL    HW273321   4.947  10.976   8.855  0.0135 -0.3059  0.7147
55361SOL     OW73322   1.316   5.367   4.247 -0.3832  0.3724 -0.0032
55361SOL    HW173323   1.375   5.299   4.280 -0.4416  0.0853 -0.4836
55361SOL    HW273324   1.359   5.449   4.270 -0.0122  0.1665  0.0393
55362SOL     OW73325   4.418   8.279   4.067  0.2734 -0.2495  0.5046
55362SOL    HW173326   4.438   8.253   3.977 -0.2429 -1.2239  0.6614
55362SOL    HW273327   4.325   8.258   4.079  0.1201  0.6498  1.0051
55363SOL     OW73328  10.550   7.978   4.209  0.5029  0.4053  0.0225
55363SOL    HW173329  10.523   8.069   4.203 -0.1298  0.2104 -0.1252
55363SOL    HW273330  10.495   7.932   4.145 -1.4372 -0.6071  2.2911
55364SOL     OW73331   2.270   3.562   6.444  0.5075  0.4312  0.3124
55364SOL    HW173332   2.327   3.488   6.467 -0.5927 -0.5565 -0.0209
55364SOL    HW273333   2.207   3.567   6.516 -0.3305  0.0727 -0.3816
55365SOL     OW73334   5.409   0.506   0.138 -0.1588  0.4904  0.3486
55365SOL    HW173335   5.454   0.501   0.222  2.1114 -1.4491 -0.8851
55365SOL    HW273336   5.348   0.432   0.139 -0.1134  0.4526  0.2651
55366SOL     OW73337  12.537   5.171  11.886  0.5728  0.2076  0.2114
55366SOL    HW173338  12.630   5.156  11.904  0.6519  0.8487  0.3524
55366SOL    HW273339  12.493   5.093  11.919  0.8101  0.8955  2.3220
55367SOL     OW73340   4.722   0.248   5.741 -0.1786 -0.0222  0.6516
55367SOL    HW173341   4.752   0.216   5.656 -0.1073 -1.1805  1.1015
55367SOL    HW273342   4.797   0.238   5.798 -0.2126  0.7987  0.8554
55368SOL     OW73343   1.948   1.576   6.685 -0.3639 -0.0917  0.1071
55368SOL    HW173344   2.042   1.558   6.686 -0.5312 -1.3377 -1.7367
55368SOL    HW273345   1.908   1.493   6.712 -0.9634 -0.1824 -1.0085
55369SOL     OW73346   7.215   7.515   7.158 -0.0953 -0.0792 -0.1908
55369SOL    HW173347   7.266   7.435   7.146 -1.1024 -1.0536  1.6156
55369SOL    HW273348   7.132   7.485   7.195 -1.0689  1.6904 -0.8114
55370SOL     OW73349  11.663  12.428   9.120 -0.0762  0.2778  0.2487
55370SOL    HW173350  11.627  12.342   9.144  0.1164 -0.1403 -0.8729
55370SOL    HW273351  11.593  12.490   9.140 -1.4444 -0.4933 -1.7415
55371SOL     OW73352  12.178   0.492  10.093 -0.9854  0.7165  0.4044
55371SOL    HW173353  12.150   0.570  10.142 -2.7047  1.6578 -1.8622
55371SOL    HW273354  12.146   0.508  10.004  0.1560 -1.8330 -0.5424
55372SOL     OW73355   3.724   9.831   1.037 -0.1681 -0.3325  0.4161
55372SOL    HW173356   3.650   9.802   0.983  0.4605 -0.5873 -0.3307
55372SOL    HW273357   3.792   9.852   0.973  0.5862 -0.6226  1.1174
55373SOL     OW73358  11.780   5.820   5.130  0.4166 -0.6589 -0.2340
55373SOL    HW173359  11.835   5.816   5.051 -1.9887 -1.9800 -1.9542
55373SOL    HW273360  11.746   5.731   5.140  0.4012 -0.4502  2.1834
55374SOL     OW73361  12.394   2.386   4.967 -0.2458  0.5648 -0.3393
55374SOL    HW173362  12.336   2.462   4.974 -0.4940  0.2237  1.9014
55374SOL    HW273363  12.339   2.312   4.994  0.4091 -0.2005 -1.0705
55375SOL     OW73364  11.432   1.115   2.133 -0.3788  0.2097  0.4545
55375SOL    HW173365  11.412   1.119   2.227 -1.8175 -1.0717  0.2441
55375SOL    HW273366  11.395   1.195   2.097  1.0690  1.2057  1.1017
55376SOL     OW73367   3.067   2.956   0.706 -0.3642  0.3036  0.7010
55376SOL    HW173368   3.037   2.866   0.720 -0.6531 -0.2189 -2.5074
55376SOL    HW273369   3.162   2.949   0.698 -0.5440 -0.1846 -1.7856
55377SOL     OW73370   7.278  12.438   3.905  0.6292  0.2335  0.2186
55377SOL    HW173371   7.373  12.436   3.914  0.7747  0.7595 -1.0240
55377SOL    HW273372   7.254  12.347   3.886  0.8533  0.0482  0.8252
55378SOL     OW73373   7.046   1.479  11.366  0.0012 -0.0934 -1.0644
55378SOL    HW173374   6.952   1.460  11.359 -0.2180  1.2080 -2.0613
55378SOL    HW273375   7.075   1.488  11.275  1.7167 -3.0697 -0.9309
55379SOL     OW73376  10.450   2.477   6.905 -0.1343 -0.1516  0.3863
55379SOL    HW173377  10.413   2.483   6.817 -2.2844  0.5806  1.2815
55379SOL    HW273378  10.508   2.552   6.912 -1.2254  0.7477  0.1225
55380SOL     OW73379   4.352   0.709   3.054  0.0263  0.2461  0.1027
55380SOL    HW173380   4.363   0.650   2.980 -0.1774 -0.4890  0.6424
55380SOL    HW273381   4.432   0.762   3.054  0.1741  0.0301 -0.4427
55381SOL     OW73382   2.051   7.612  11.961  0.0693  0.1459  0.3359
55381SOL    HW173383   2.141   7.636  11.939  0.0381  0.6801  0.7690
55381SOL    HW273384   2.039   7.524  11.924  0.4939  0.4130 -0.4576
55382SOL     OW73385  11.589   6.371   5.402 -0.0345  0.5396  0.0163
55382SOL    HW173386  11.650   6.368   5.328 -0.8632 -1.9066 -0.6678
55382SOL    HW273387  11.646   6.373   5.479  1.0263 -1.9217 -0.5861
55383SOL     OW73388   8.341   6.322   7.350 -0.0312 -0.2401 -0.2548
55383SOL    HW173389   8.416   6.358   7.398 -0.2239 -0.2905  0.0919
55383SOL    HW273390   8.354   6.350   7.260  1.0452 -1.2857 -0.4298
55384SOL     OW73391  11.847   6.450   4.780 -0.3058 -0.1443 -0.0896
55384SOL    HW173392  11.836   6.524   4.840  0.9704 -1.0885  1.4097
55384SOL    HW273393  11.892   6.487   4.704  0.7553  0.5798  0.8504
55385SOL     OW73394   9.536   7.937   8.363  0.4631 -0.0422 -0.0972
55385SOL    HW173395   9.534   7.872   8.433  0.1227 -1.2841 -1.2073
55385SOL    HW273396   9.448   7.973   8.360 -0.2324 -1.6684 -1.3305
55386SOL     OW73397   9.009   7.767   5.198  0.0164  0.1359 -0.0176
55386SOL    HW173398   8.979   7.751   5.288 -0.7101 -0.4360 -0.3541
55386SOL    HW273399   8.930   7.794   5.151  0.1983 -0.5140 -0.7121
55387SOL     OW73400  12.612   7.527  12.431 -0.5135 -1.1430 -0.1854
55387SOL    HW173401  12.614   7.613  12.390  0.6987 -1.2896 -0.4821
55387SOL    HW273402  12.602   7.545  12.525 -0.3026 -0.6811 -0.2517
55388SOL     OW73403   2.011  12.260  10.149  0.2714  0.8724 -0.3554
55388SOL    HW173404   1.997  12.352  10.169  2.8858  1.3013 -0.1859
55388SOL    HW273405   2.042  12.221  10.231  0.7876  0.2307 -0.8397
55389SOL     OW73406   3.331   2.665   9.649  0.4682 -0.1214  0.2462
55389SOL    HW173407   3.302   2.591   9.596  1.4702  0.3915 -1.0642
55389SOL    HW273408   3.311   2.640   9.739  0.6127 -1.8893 -0.1902
55390SOL     OW73409   9.517   0.592   4.067 -0.4492  0.2414 -0.2025
55390SOL    HW173410   9.532   0.546   3.984  1.3784  2.4537 -1.2223
55390SOL    HW273411   9.589   0.563   4.124 -1.1168 -0.4994  0.2864
55391SOL     OW73412   7.153   1.498   9.405 -0.1365  0.0607  1.4831
55391SOL    HW173413   7.062   1.482   9.378  0.0883 -1.3998  1.5195
55391SOL    HW273414   7.164   1.445   9.484  0.5237  0.8608  1.9439
55392SOL     OW73415   6.277   9.001   7.718 -0.1369 -0.1463  0.2393
55392SOL    HW173416   6.243   8.936   7.779 -3.1284  0.0396 -1.0177
55392SOL    HW273417   6.345   8.955   7.668 -2.0935 -2.3770 -0.5529
55393SOL     OW73418   0.056  11.594   4.255  0.3269 -0.3360  0.4837
55393SOL    HW173419   0.003  11.579   4.176  0.4760  0.8386  0.1450
55393SOL    HW273420   0.090  11.508   4.277  0.3847 -0.6695 -0.8212
55394SOL     OW73421   3.004   7.761   5.956  0.3365  0.3663  0.5895
55394SOL    HW173422   2.988   7.668   5.942 -1.5805  0.4115  2.1009
55394SOL    HW273423   3.073   7.783   5.893 -0.5714 -1.5925 -1.2194
55395SOL     OW73424   8.483   8.973  12.507 -0.2870  0.1385 -0.8438
55395SOL    HW173425   8.475   9.000  12.415 -1.0673  0.5971 -0.6513
55395SOL    HW273426   8.468   9.053  12.556  3.6344  0.7253 -0.3263
55396SOL     OW73427   7.350   1.881  11.333 -0.2813  0.0266 -0.1502
55396SOL    HW173428   7.433   1.928  11.324  0.8370 -1.8724 -0.3344
55396SOL    HW273429   7.354   1.841  11.420 -0.4753 -0.9845 -0.5897
55397SOL     OW73430   1.663   1.630   1.412  0.3255 -0.1428 -0.2145
55397SOL    HW173431   1.702   1.543   1.425 -2.6617 -1.7835 -1.1102
55397SOL    HW273432   1.717   1.670   1.344  2.0595 -1.0875  0.5456
55398SOL     OW73433   4.203   1.041  10.427  0.0756 -0.0223  0.2481
55398SOL    HW173434   4.219   0.947  10.437 -0.1992 -0.0072  0.8474
55398SOL    HW273435   4.216   1.057  10.333 -1.3733 -0.9575 -0.1511
55399SOL     OW73436   9.325   5.046   8.737 -0.0860  0.0212 -0.2830
55399SOL    HW173437   9.251   5.008   8.690 -1.6611  1.6421  0.7805
55399SOL    HW273438   9.399   5.037   8.676 -1.0946 -1.7182 -1.3344
55400SOL     OW73439   9.901   5.553   8.406 -0.1602  0.3145  0.0497
55400SOL    HW173440   9.920   5.552   8.312  0.6238  1.0301  0.1920
55400SOL    HW273441   9.942   5.473   8.439  0.5784  0.6450 -0.0392
55401SOL     OW73442   5.657   0.695  11.470 -0.0291 -0.1090  0.0157
55401SOL    HW173443   5.716   0.623  11.447  0.7392  1.0927 -2.0124
55401SOL    HW273444   5.620   0.669  11.554  1.6293 -1.9981  0.2473
55402SOL     OW73445   6.557   4.358   6.718 -0.0326 -0.1342  0.6107
55402SOL    HW173446   6.565   4.269   6.684 -0.5473  1.0822 -3.1341
55402SOL    HW273447   6.645   4.396   6.707 -0.4999  0.6472 -0.6969
55403SOL     OW73448   4.678  12.183   4.335  0.2404  0.5174 -0.2087
55403SOL    HW173449   4.732  12.136   4.271  0.0979 -0.2181  0.2120
55403SOL    HW273450   4.667  12.122   4.407  0.4283  1.3595  0.5460
55404SOL     OW73451   5.265   8.319  11.261  0.2966 -0.0000  0.3486
55404SOL    HW173452   5.234   8.341  11.173 -0.0899 -0.2918  0.4084
55404SOL    HW273453   5.214   8.242  11.286 -1.3635  1.4656  1.7996
55405SOL     OW73454   4.047  11.149   1.000 -0.1910  0.1244 -0.8135
55405SOL    HW173455   4.079  11.060   0.984 -1.1861 -0.6401  1.0932
55405SOL    HW273456   4.126  11.202   1.010  0.4107 -0.5914 -1.6174
55406SOL     OW73457   8.633   4.362  10.926 -0.3531 -0.1064 -0.1490
55406SOL    HW173458   8.686   4.437  10.898  0.4740 -0.6255  0.0007
55406SOL    HW273459   8.607   4.319  10.845 -1.0604  0.4847 -0.2491
55407SOL     OW73460   3.149   8.205   2.242  0.4454  0.4979  0.3339
55407SOL    HW173461   3.169   8.296   2.221 -0.7956  1.4231  2.8540
55407SOL    HW273462   3.224   8.175   2.294 -0.3874  1.0255  1.8959
55408SOL     OW73463   0.270   7.904  11.533 -0.2918  0.1376 -0.1345
55408SOL    HW173464   0.277   7.810  11.546 -1.7041 -0.0492 -0.5646
55408SOL    HW273465   0.322   7.922  11.455  0.1422 -0.2531  0.0620
55409SOL     OW73466   5.601   6.660   5.711 -0.3517  0.7476 -0.5363
55409SOL    HW173467   5.530   6.625   5.656  0.3451  0.1718 -1.0841
55409SOL    HW273468   5.671   6.683   5.650  0.3659  0.2690  0.0842
55410SOL     OW73469   4.550   4.714   2.360 -0.1897  0.3120  0.2752
55410SOL    HW173470   4.601   4.641   2.394 -1.6049 -0.0919  1.6491
55410SOL    HW273471   4.615   4.779   2.334  1.0227 -0.1501  1.9963
55411SOL     OW73472   1.548   1.396   0.228 -0.6680  0.0630 -0.0924
55411SOL    HW173473   1.565   1.467   0.289 -0.0867  0.5183 -0.7613
55411SOL    HW273474   1.552   1.316   0.282 -0.7330  0.4902  0.5539
55412SOL     OW73475   0.925   4.738   5.213 -0.0760  0.3474  0.4000
55412SOL    HW173476   0.978   4.804   5.257 -1.6802  1.6196  0.5151
55412SOL    HW273477   0.939   4.754   5.119 -1.1730  1.5265  0.4040
55413SOL     OW73478  11.331   4.814   4.082 -0.0898  0.2692 -0.0898
55413SOL    HW173479  11.369   4.729   4.102  0.7194  0.1013 -2.1393
55413SOL    HW273480  11.268   4.797   4.012 -1.9747  0.9843  1.3350
55414SOL     OW73481   5.222   2.203   5.646 -0.5922  0.0358  0.1926
55414SOL    HW173482   5.272   2.219   5.726 -0.6326 -1.9182  0.6661
55414SOL    HW273483   5.183   2.116   5.659 -0.7989 -0.2347 -1.8408
55415SOL     OW73484   0.308   6.699   0.305 -0.2727  0.1972 -0.2661
55415SOL    HW173485   0.327   6.793   0.297  0.1471  0.3266  1.6493
55415SOL    HW273486   0.391   6.656   0.287  0.2704  0.3891  1.5765
55416SOL     OW73487   1.171   4.372   0.087 -0.0794 -0.3873 -0.1478
55416SOL    HW173488   1.199   4.286   0.056  1.5081  1.5466 -5.0458
55416SOL    HW273489   1.098   4.395   0.029  0.6279  2.1799 -0.1134
55417SOL     OW73490   2.977   9.442   4.368 -0.0568  0.1946  0.7270
55417SOL    HW173491   2.973   9.507   4.297 -0.3422 -0.0071  0.5584
55417SOL    HW273492   2.888   9.409   4.376 -0.1329  0.5906  1.5375
55418SOL     OW73493   7.059   2.282  11.347  0.0501  0.3383 -0.3591
55418SOL    HW173494   7.039   2.323  11.432 -1.3552  0.4036 -0.6840
55418SOL    HW273495   7.069   2.189  11.367  0.5330  0.4607 -0.0100
55419SOL     OW73496   1.182   0.202   4.708 -0.2413 -0.3939 -0.1100
55419SOL    HW173497   1.149   0.150   4.781 -1.5429  0.2384 -0.2150
55419SOL    HW273498   1.269   0.231   4.737 -0.7641 -0.0863  1.2370
55420SOL     OW73499  11.520   6.910   6.222 -0.0820  0.0212 -0.2367
55420SOL    HW173500  11.610   6.941   6.236 -0.5722  1.3865  0.0203
55420SOL    HW273501  11.527   6.814   6.223  1.0304  0.0678  2.0604
55421SOL     OW73502  11.206   2.676   6.115 -0.0815 -0.3414  0.0546
55421SOL    HW173503  11.157   2.738   6.061  0.3097  1.0143  1.2256
55421SOL    HW273504  11.174   2.590   6.086 -0.3979  0.3541 -1.8206
55422SOL     OW73505   8.081   6.945   7.194 -0.0509  0.2006 -0.4123
55422SOL    HW173506   8.025   6.892   7.137 -0.5702  0.8613 -0.5297
55422SOL    HW273507   8.169   6.934   7.159 -0.1116 -0.7425 -0.3112
55423SOL     OW73508   0.760   0.819   1.192  0.2774 -0.3694  0.8113
55423SOL    HW173509   0.784   0.746   1.134 -1.5953 -1.5487  1.4130
55423SOL    HW273510   0.668   0.837   1.170  0.9929  2.7144 -0.1850
55424SOL     OW73511  11.346   4.743   8.783  0.0639 -0.0826 -0.5926
55424SOL    HW173512  11.370   4.657   8.750  0.8417  0.5968 -1.9084
55424SOL    HW273513  11.262   4.763   8.741  0.5109  0.3153 -1.3259
55425SOL     OW73514  10.389   0.227  12.435  0.3241 -0.1672 -0.6264
55425SOL    HW173515  10.435   0.267  12.510  1.1773  0.1887 -1.3246
55425SOL    HW273516  10.336   0.158  12.475  1.4706 -0.6012  0.2278
55426SOL     OW73517   6.058   0.142   8.289 -0.8112  0.3436 -0.6403
55426SOL    HW173518   6.111   0.081   8.340  0.5191  0.2459 -2.0449
55426SOL    HW273519   5.973   0.099   8.279 -0.7028 -0.1532  0.4557
55427SOL     OW73520   2.027   5.553   1.482  0.0071 -0.0918  0.4534
55427SOL    HW173521   1.987   5.534   1.566  1.6996 -2.4521  0.8397
55427SOL    HW273522   1.955   5.579   1.425 -1.3430  0.2676  2.2679
55428SOL     OW73523  10.889   6.094   6.487 -0.0538 -0.0304  0.6846
55428SOL    HW173524  10.845   6.122   6.567 -1.6185 -1.3467  0.3462
55428SOL    HW273525  10.858   6.004   6.473 -0.1016  0.2965 -1.5907
55429SOL     OW73526   8.967   5.717   8.677 -1.0643  0.2012 -0.3725
55429SOL    HW173527   9.006   5.713   8.590  1.0695  1.6753  0.4381
55429SOL    HW273528   8.903   5.789   8.670  1.0415  2.2064 -0.0914
55430SOL     OW73529  12.175   7.753   6.588  0.4039 -0.0400 -0.2990
55430SOL    HW173530  12.132   7.728   6.670 -0.9814 -0.2415 -1.0487
55430SOL    HW273531  12.240   7.684   6.574 -0.8732 -1.2727 -0.4719
55431SOL     OW73532   6.107   7.175   3.413  0.1161 -0.1356 -0.6413
55431SOL    HW173533   6.051   7.248   3.439 -0.1790  0.1843 -2.0856
55431SOL    HW273534   6.047   7.111   3.374  0.2346 -1.6192  1.4878
55432SOL     OW73535  11.157   4.391   3.168  0.3932 -0.2646 -0.1780
55432SOL    HW173536  11.222   4.321   3.163  0.7373 -0.0556  1.1626
55432SOL    HW273537  11.200   4.466   3.128  1.3882  0.1479  1.5810
55433SOL     OW73538   8.226   5.555  12.463  0.0351  0.1059  0.3782
55433SOL    HW173539   8.171   5.629  12.438  0.5443 -0.0209 -1.2419
55433SOL    HW273540   8.228   5.499  12.385  1.4590 -0.4915  0.8103
55434SOL     OW73541   0.936  10.950   2.237  0.2233 -0.1420 -0.0228
55434SOL    HW173542   0.967  10.997   2.315 -1.2072 -0.7264  0.9474
55434SOL    HW273543   1.008  10.890   2.215  0.4073 -0.4062  1.2332
55435SOL     OW73544   0.544   4.097   8.687 -0.0649 -0.0392 -0.6843
55435SOL    HW173545   0.533   4.187   8.716  1.3760  0.0385 -0.3131
55435SOL    HW273546   0.505   4.095   8.599 -1.3073  0.5945 -0.1641
55436SOL     OW73547   4.844   5.227   1.714 -1.2255 -0.0352  0.4493
55436SOL    HW173548   4.814   5.186   1.633  0.1483 -0.9196  0.3627
55436SOL    HW273549   4.790   5.306   1.722 -2.6438 -0.8705 -0.3596
55437SOL     OW73550   0.912   0.002   4.093 -0.0680  0.2497  0.2982
55437SOL    HW173551   0.857  -0.072   4.067 -1.4838  1.2117  0.4928
55437SOL    HW273552   0.996  -0.015   4.050 -0.7808 -0.7922 -0.7401
55438SOL     OW73553  10.876   2.958  12.297 -0.6378 -0.6439  0.3939
55438SOL    HW173554  10.887   2.909  12.216  1.2692 -0.7403  0.6545
55438SOL    HW273555  10.803   2.916  12.342 -0.3637 -1.9419 -0.3311
55439SOL     OW73556   7.769   0.455   9.137  0.3238 -0.2947  0.5029
55439SOL    HW173557   7.857   0.449   9.101 -0.0113 -0.3613 -0.3249
55439SOL    HW273558   7.780   0.438   9.231  0.9021 -2.8092  0.0452
55440SOL     OW73559  11.686   7.366   0.648  0.3279 -0.0974  0.0017
55440SOL    HW173560  11.659   7.357   0.557 -2.5748 -1.4840  0.8936
55440SOL    HW273561  11.758   7.429   0.645  0.3727 -0.1315 -3.2199
55441SOL     OW73562  11.956   2.271  10.504 -0.3787 -0.0433 -0.2133
55441SOL    HW173563  12.017   2.309  10.441  0.4218 -0.3987  0.3300
55441SOL    HW273564  11.870   2.282  10.464  0.1724 -0.9212 -1.7238
55442SOL     OW73565  11.246  10.863   9.521  0.1625  0.3826 -0.2212
55442SOL    HW173566  11.281  10.914   9.594  2.3352 -0.0118 -0.9143
55442SOL    HW273567  11.254  10.920   9.446 -0.1849  0.0742 -0.4965
55443SOL     OW73568  11.464   1.714   6.475  0.0170 -0.3856 -0.0326
55443SOL    HW173569  11.383   1.715   6.424 -0.2471  0.5922  0.3895
55443SOL    HW273570  11.534   1.718   6.410 -0.2048 -2.2409 -0.4629
55444SOL     OW73571   1.083   2.862  10.505  0.2795  0.4164  0.9574
55444SOL    HW173572   1.054   2.820  10.424  0.2926 -0.4210  1.3763
55444SOL    HW273573   1.125   2.943  10.476  0.2840  0.1280  0.1268
55445SOL     OW73574   0.756   3.690  10.993 -0.2883 -0.0400 -0.2388
55445SOL    HW173575   0.808   3.650  11.063 -0.9857  0.9116  0.8517
55445SOL    HW273576   0.795   3.777  10.981  0.0587 -0.3257 -1.3100
55446SOL     OW73577  10.810   5.489   1.171  0.0328  0.0545  0.0882
55446SOL    HW173578  10.898   5.473   1.139  0.1674  0.1397  0.4145
55446SOL    HW273579  10.787   5.576   1.138 -0.6348 -0.7012 -1.5469
55447SOL     OW73580  12.711   3.372   4.098 -0.2681 -0.1060 -0.2162
55447SOL    HW173581  12.795   3.338   4.129  0.4663  3.2931  2.0551
55447SOL    HW273582  12.734   3.436   4.031 -0.9072  1.3117  0.8577
55448SOL     OW73583   3.096   6.007  10.672 -0.3517  0.3537 -0.2235
55448SOL    HW173584   3.110   6.056  10.753  0.8355  0.9364 -0.7484
55448SOL    HW273585   3.096   5.915  10.699 -2.8492  0.5781  0.8131
55449SOL     OW73586   4.819   9.961   5.541 -0.1794  0.3917  0.4910
55449SOL    HW173587   4.754   9.964   5.471  1.7360  0.1237 -1.3851
55449SOL    HW273588   4.830   9.868   5.559 -0.3001  0.4390  0.8236
55450SOL     OW73589  10.802   0.726   6.910  0.1730 -0.0842 -0.4506
55450SOL    HW173590  10.762   0.639   6.917  1.3143 -0.6615 -0.7850
55450SOL    HW273591  10.891   0.714   6.944  0.8027  0.6137 -1.7563
55451SOL     OW73592   1.602   5.362   6.659 -0.0858 -0.2563  0.6278
55451SOL    HW173593   1.560   5.277   6.648  1.4922 -0.8473 -1.6094
55451SOL    HW273594   1.695   5.342   6.667  0.5308  1.2463 -1.7088
55452SOL     OW73595   3.824  10.000   5.142 -0.4677  0.1331 -0.1963
55452SOL    HW173596   3.798   9.953   5.222  0.5864 -0.6344 -0.2811
55452SOL    HW273597   3.913   9.971   5.125 -0.1925  1.3092 -0.9178
55453SOL     OW73598  10.717  12.214   1.884 -0.3103 -0.0047  0.1633
55453SOL    HW173599  10.775  12.140   1.902  0.2434  0.4353  0.1931
55453SOL    HW273600  10.640  12.174   1.843 -0.0589 -0.6084  0.2697
55454SOL     OW73601  12.680   9.304  12.407 -0.7314  0.4403 -0.5957
55454SOL    HW173602  12.623   9.376  12.431 -1.7064 -0.7419  0.8154
55454SOL    HW273603  12.765   9.326  12.446 -1.6140 -0.2071  1.8729
55455SOL     OW73604   0.962   1.942  11.807  0.1468  0.1640 -0.4285
55455SOL    HW173605   0.952   2.025  11.854  0.5200 -0.4886  0.8575
55455SOL    HW273606   1.010   1.886  11.868 -0.5221 -1.1590 -1.0764
55456SOL     OW73607  12.638   9.349   6.002 -0.8333 -0.7885  0.6357
55456SOL    HW173608  12.635   9.340   5.906  0.7716 -1.9589  0.6642
55456SOL    HW273609  12.662   9.441   6.016 -2.3960 -0.2486 -0.0306
55457SOL     OW73610   0.719  10.980  12.469 -0.1245 -0.1304 -0.4583
55457SOL    HW173611   0.730  10.900  12.521 -0.6263  0.1992  0.1808
55457SOL    HW273612   0.808  11.009  12.450  0.0607 -0.6209 -0.3419
55458SOL     OW73613   0.625   8.048   0.737  0.2297 -0.0521 -0.7678
55458SOL    HW173614   0.571   8.112   0.689 -0.2009 -0.6345 -1.0732
55458SOL    HW273615   0.697   8.028   0.677  0.5225  0.3566 -0.5570
55459SOL     OW73616  11.282   2.378   4.457 -0.0632 -0.2146  0.3143
55459SOL    HW173617  11.194   2.388   4.493  0.8055 -0.3894  2.7227
55459SOL    HW273618  11.323   2.312   4.514  2.0140  0.8273  0.1066
55460SOL     OW73619   7.830  12.362   9.690  0.4045 -0.3951 -0.5274
55460SOL    HW173620   7.760  12.408   9.643 -0.0826  2.7382  2.8173
55460SOL    HW273621   7.910  12.410   9.667  0.8611 -1.5176 -1.3460
55461SOL     OW73622   0.756  10.996   8.905  0.3773  0.2980 -0.3783
55461SOL    HW173623   0.688  11.062   8.918 -0.6172 -0.5557 -1.0383
55461SOL    HW273624   0.766  10.991   8.810 -1.2524 -2.0852 -0.5105
55462SOL     OW73625  12.076   2.942  10.368 -1.1920  0.0270  0.0307
55462SOL    HW173626  12.128   2.992  10.305  0.7138 -0.6932  0.9352
55462SOL    HW273627  12.079   2.852  10.335 -2.0363  0.0084 -0.0032
55463SOL     OW73628   2.749   4.702   5.875  0.0979  0.0399  0.3160
55463SOL    HW173629   2.831   4.751   5.884 -0.0111  0.0013  1.7161
55463SOL    HW273630   2.771   4.628   5.819  1.2705 -0.4815  1.4196
55464SOL     OW73631   8.301  12.095  11.143 -0.0005 -0.3890 -0.1419
55464SOL    HW173632   8.335  12.006  11.145 -2.4609 -1.4636 -1.7413
55464SOL    HW273633   8.374  12.148  11.112  2.2178 -1.3593  2.9237
55465SOL     OW73634   6.755   0.127   4.037  0.3052  0.1756  0.3440
55465SOL    HW173635   6.768   0.066   4.109 -0.4832 -1.4587 -0.8324
55465SOL    HW273636   6.663   0.117   4.012  0.5578  0.6681 -0.8970
55466SOL     OW73637   7.652   7.629   8.847  0.1678 -0.2096  0.3427
55466SOL    HW173638   7.640   7.711   8.798 -0.5423  0.2363  1.2429
55466SOL    HW273639   7.569   7.617   8.893 -0.6167 -2.6302 -1.5249
55467SOL     OW73640   9.153   4.377  10.053  0.2818  0.0085  0.6322
55467SOL    HW173641   9.223   4.436  10.083 -0.9722  2.0359 -0.1958
55467SOL    HW273642   9.080   4.395  10.112 -0.4113 -0.0642 -0.2002
55468SOL     OW73643   8.793   2.019  10.373 -0.4168  0.1282 -0.6338
55468SOL    HW173644   8.825   1.933  10.399 -2.6347 -0.6293 -0.2482
55468SOL    HW273645   8.827   2.031  10.284  0.1630 -0.9957 -0.5813
55469SOL     OW73646   3.450   2.043   2.848 -0.1419 -0.3921 -0.0140
55469SOL    HW173647   3.517   2.014   2.910 -0.8964 -1.4551  0.3382
55469SOL    HW273648   3.497   2.098   2.785  1.4291 -2.5839 -0.8528
55470SOL     OW73649  10.269   2.311   5.492 -0.4080 -0.4250 -0.3453
55470SOL    HW173650  10.298   2.222   5.511 -0.9205 -0.9218 -1.7901
55470SOL    HW273651  10.178   2.302   5.464 -0.7866  0.6837  0.4411
55471SOL     OW73652  12.058  12.193   6.731 -0.1840  0.3102 -0.8820
55471SOL    HW173653  12.044  12.098   6.741 -1.3865  0.6091  0.8367
55471SOL    HW273654  11.987  12.232   6.782  2.5735  2.1220  1.8689
55472SOL     OW73655   7.806   6.352   1.726  0.3387 -0.2719 -0.6522
55472SOL    HW173656   7.851   6.366   1.643 -0.3830 -3.2020 -1.6670
55472SOL    HW273657   7.722   6.398   1.717  0.1254 -0.8518 -1.7187
55473SOL     OW73658   5.188   7.494   2.071 -0.2887 -0.6344 -0.3416
55473SOL    HW173659   5.268   7.447   2.092 -0.0838  0.2768  1.0377
55473SOL    HW273660   5.218   7.578   2.037 -0.6543 -0.5763 -0.5271
55474SOL     OW73661   9.105  10.534   2.977  0.1119 -0.0794 -0.0385
55474SOL    HW173662   9.150  10.618   2.981 -0.1853  0.1443 -1.1059
55474SOL    HW273663   9.175  10.469   2.974  0.3664 -0.0065  2.4818
55475SOL     OW73664  12.074   8.610   1.597  0.3589 -0.0687 -0.6024
55475SOL    HW173665  12.155   8.653   1.570 -0.8953  1.4977 -2.0641
55475SOL    HW273666  12.042   8.565   1.519 -0.2534 -0.5869 -0.0764
55476SOL     OW73667  11.847   2.574  12.344 -0.0520 -0.4619  0.0138
55476SOL    HW173668  11.871   2.483  12.363 -2.1064 -0.5234  3.3775
55476SOL    HW273669  11.913   2.626  12.389  0.9911 -0.2462 -1.7158
55477SOL     OW73670   0.079   0.122  11.502  0.1537 -0.2786  0.4381
55477SOL    HW173671   0.130   0.046  11.475 -0.0762 -0.3507  0.2003
55477SOL    HW273672   0.127   0.159  11.576  0.1130 -0.8216  0.7377
55478SOL     OW73673   4.196   9.885   4.781  0.1591 -1.2493  0.5620
55478SOL    HW173674   4.187   9.839   4.698 -0.4014 -0.8945  0.4244
55478SOL    HW273675   4.156   9.826   4.845  0.9361 -1.6988  0.6527
55479SOL     OW73676  10.729  12.132  10.753 -0.9436  0.1484 -0.4377
55479SOL    HW173677  10.650  12.179  10.780 -0.2272 -0.2110  2.5992
55479SOL    HW273678  10.730  12.053  10.808  0.6798 -0.6850 -1.5960
55480SOL     OW73679   4.749  10.486   6.376  0.5500 -0.4142  0.1815
55480SOL    HW173680   4.682  10.487   6.444  1.2129 -0.3398  0.8540
55480SOL    HW273681   4.830  10.464   6.423  0.9161 -0.9416 -0.6788
55481SOL     OW73682   2.667   8.235   0.238 -0.6178  0.3546 -0.2094
55481SOL    HW173683   2.714   8.204   0.315 -1.1226 -1.3891 -0.5643
55481SOL    HW273684   2.605   8.300   0.271 -1.9622 -1.5240  1.1283
55482SOL     OW73685   5.929   9.880   7.333  0.0361  0.4548  0.1443
55482SOL    HW173686   5.998   9.941   7.360 -0.2653  0.9642 -0.2139
55482SOL    HW273687   5.880   9.928   7.267  0.1305 -0.3891 -0.5570
55483SOL     OW73688   2.232  10.910   7.436  0.6060 -0.2695 -0.4844
55483SOL    HW173689   2.243  10.993   7.482 -0.9426  0.4176 -1.2737
55483SOL    HW273690   2.263  10.844   7.498 -0.0131  0.7291  0.9579
55484SOL     OW73691   4.552   2.048   0.412  0.1511  0.9586 -0.4013
55484SOL    HW173692   4.489   1.986   0.374  0.8007  1.0900 -1.7216
55484SOL    HW273693   4.629   1.995   0.433  0.3629  1.1597 -0.6728
55485SOL     OW73694  12.408   8.909   0.534 -0.1640 -0.1185 -0.9440
55485SOL    HW173695  12.413   8.951   0.620 -0.6338  0.7956 -1.3550
55485SOL    HW273696  12.484   8.851   0.532  1.6741  2.1486 -1.0913
55486SOL     OW73697   9.974   0.922   2.378  0.0486  0.2269  0.0247
55486SOL    HW173698   9.976   0.907   2.283  0.9541 -0.9397  0.2018
55486SOL    HW273699   9.887   0.957   2.395 -0.4408 -0.3814 -1.1297
55487SOL     OW73700   1.653   0.839   9.043  0.2929  0.0643  0.0270
55487SOL    HW173701   1.710   0.897   8.993  0.8032 -0.5943 -0.1843
55487SOL    HW273702   1.695   0.832   9.129 -0.2838  0.7575  0.3707
55488SOL     OW73703   4.110   3.711   2.255 -0.1891  0.3970  0.6280
55488SOL    HW173704   4.038   3.651   2.274 -0.0170  0.4190  1.4009
55488SOL    HW273705   4.079   3.765   2.182 -1.3115  1.0193  1.5398
55489SOL     OW73706  11.732   2.197   6.867  0.3034 -0.1018 -0.1633
55489SOL    HW173707  11.651   2.155   6.839 -0.2259  0.7322  0.0780
55489SOL    HW273708  11.703   2.274   6.917  1.2402  0.1231  0.0497
55490SOL     OW73709   8.995   3.109   0.301 -0.9395  0.2052 -0.5288
55490SOL    HW173710   9.046   3.031   0.324 -1.0902  0.1629 -0.3323
55490SOL    HW273711   9.028   3.178   0.358 -0.9134  0.2459 -0.5934
55491SOL     OW73712   3.733  10.361   9.720 -0.2598  0.5583 -0.1209
55491SOL    HW173713   3.672  10.351   9.793  1.3940 -0.6912  1.1831
55491SOL    HW273714   3.743  10.273   9.685  2.8013  0.1208  1.4971
55492SOL     OW73715   6.643  12.666   5.811 -0.1178  0.6694  0.2939
55492SOL    HW173716   6.553  12.663   5.846 -0.1655  0.9876  0.2006
55492SOL    HW273717   6.698  12.665   5.889 -0.2107  0.8060  0.3616
55493SOL     OW73718   3.211   2.116   8.146  0.0040 -0.3074  0.0786
55493SOL    HW173719   3.303   2.124   8.121  0.0821  2.9325  0.9532
55493SOL    HW273720   3.187   2.028   8.119  3.6787 -1.7774  0.9800
55494SOL     OW73721  11.338   4.598   5.566  0.2797 -0.3397  0.0859
55494SOL    HW173722  11.275   4.560   5.505  1.9006  0.0457 -1.9710
55494SOL    HW273723  11.362   4.682   5.527  1.0479  0.1448  1.5086
55495SOL     OW73724  10.180   6.071  11.932 -0.1285  0.5431 -0.6872
55495SOL    HW173725  10.222   6.013  11.995  0.8056  1.0735 -0.7970
55495SOL    HW273726  10.253   6.115  11.888 -0.7592  0.3848 -1.9503
55496SOL     OW73727   6.683   4.281  10.323  0.0889 -0.0190  0.2932
55496SOL    HW173728   6.735   4.357  10.300  0.3850 -0.2091  0.3307
55496SOL    HW273729   6.700   4.217  10.254 -0.2520 -0.0073  0.1964
55497SOL     OW73730   0.483   3.338   5.875 -0.1995  0.7256 -0.4515
55497SOL    HW173731   0.499   3.244   5.867 -0.3422  0.7432 -0.9675
55497SOL    HW273732   0.556   3.370   5.928 -1.2941 -0.0190  1.6146
55498SOL     OW73733   2.507   5.746   8.641  0.1237  0.0256 -0.1544
55498SOL    HW173734   2.453   5.810   8.596  0.5833 -0.6162 -1.6662
55498SOL    HW273735   2.448   5.706   8.706 -0.2413  1.7181  0.6036
55499SOL     OW73736  10.114  10.327   6.892 -0.6072 -0.3007 -0.1087
55499SOL    HW173737  10.176  10.346   6.963 -1.4245  0.8521  0.3291
55499SOL    HW273738  10.035  10.374   6.917 -1.2488 -0.7313 -1.2869
55500SOL     OW73739   4.357   9.808   4.518 -0.2882 -0.3350 -0.0735
55500SOL    HW173740   4.410   9.867   4.465 -1.9022  1.5110  0.2635
55500SOL    HW273741   4.418   9.771   4.581  0.6480  1.6179  0.2357
55501SOL     OW73742   7.456   8.143  12.413  0.1332  0.3929 -0.1812
55501SOL    HW173743   7.442   8.225  12.366 -0.3969  1.5987  1.9403
55501SOL    HW273744   7.373   8.097  12.405 -0.3860  1.1639  0.5922
55502SOL     OW73745   5.342   9.767   2.886 -0.1294 -0.8625 -0.6337
55502SOL    HW173746   5.391   9.846   2.862 -0.4323 -0.8386 -1.1857
55502SOL    HW273747   5.326   9.776   2.980  1.3604 -1.1122 -0.3332
55503SOL     OW73748   5.694   6.635   7.429 -0.5147  0.0010 -0.2051
55503SOL    HW173749   5.683   6.582   7.508  0.9692  0.3426  0.2469
55503SOL    HW273750   5.734   6.576   7.365 -2.9161 -0.6820 -1.2261
55504SOL     OW73751   0.184   5.942  11.541 -0.4509  0.1165  0.1039
55504SOL    HW173752   0.110   5.963  11.597 -0.7056  1.9964 -0.8521
55504SOL    HW273753   0.145   5.907  11.461 -0.1341 -1.5908  0.6506
55505SOL     OW73754   7.699  11.572  10.259  0.0790 -0.6232 -0.3616
55505SOL    HW173755   7.743  11.540  10.180 -0.4385 -0.6383 -0.6533
55505SOL    HW273756   7.606  11.553  10.243  0.0116 -0.9696  0.4184
55506SOL     OW73757   6.929   5.614   8.373  0.2297 -0.4726 -0.2369
55506SOL    HW173758   6.882   5.658   8.443 -0.9759 -1.0362 -0.6724
55506SOL    HW273759   6.961   5.533   8.413  0.6108 -0.2206 -0.0201
55507SOL     OW73760   0.631   4.943   7.034  0.4569 -0.4301 -0.1074
55507SOL    HW173761   0.666   4.983   6.954 -0.4278 -0.4814 -0.5327
55507SOL    HW273762   0.545   4.908   7.008  0.6390 -1.4319  0.5911
55508SOL     OW73763   1.985   9.278   6.247 -0.3488  0.1949  0.2140
55508SOL    HW173764   2.025   9.202   6.204  1.1968  1.0556  0.0483
55508SOL    HW273765   1.944   9.326   6.176 -1.3553 -0.4805  0.3232
55509SOL     OW73766   0.306  10.667   3.855 -0.5529  0.0020  0.0354
55509SOL    HW173767   0.355  10.736   3.901 -1.7517  0.2016  1.0835
55509SOL    HW273768   0.277  10.608   3.925  1.9152 -2.6302 -0.9624
55510SOL     OW73769   3.767   2.556   1.221  0.4222  0.2370 -0.4995
55510SOL    HW173770   3.740   2.606   1.143  0.6335  3.0024  1.0865
55510SOL    HW273771   3.724   2.471   1.210 -0.2814  0.8318 -3.1752
55511SOL     OW73772   2.910  11.289   5.020  0.4284 -0.0862  0.7106
55511SOL    HW173773   2.863  11.225   4.966  1.8893 -1.0365  0.5101
55511SOL    HW273774   2.860  11.370   5.010 -0.1157 -0.5890 -0.9588
55512SOL     OW73775   4.381   9.658   2.662 -0.2930 -0.0813  0.1199
55512SOL    HW173776   4.389   9.564   2.646 -1.6979 -0.0381 -1.0888
55512SOL    HW273777   4.288   9.676   2.648  0.0987  1.6198 -0.4444
55513SOL     OW73778   9.074   2.576  10.029  0.2865  0.0056  0.5589
55513SOL    HW173779   9.142   2.549  10.091  0.4782  0.3749  0.5143
55513SOL    HW273780   8.997   2.525  10.054  0.2447  0.4387  1.3740
55514SOL     OW73781   6.622   2.151   4.532  0.3238  0.2206  0.6487
55514SOL    HW173782   6.592   2.179   4.445  1.0273  1.8365  0.8992
55514SOL    HW273783   6.578   2.211   4.593 -0.3478 -1.0384  1.4645
55515SOL     OW73784   3.028   7.123   3.777 -0.5035  0.2300  0.1153
55515SOL    HW173785   2.938   7.091   3.788 -0.0350 -0.4869  2.3404
55515SOL    HW273786   3.027   7.210   3.817 -0.4947  0.7717 -1.0389
55516SOL     OW73787   8.267   5.290   9.175  0.1433 -0.1505  0.3416
55516SOL    HW173788   8.337   5.226   9.160 -0.9686 -0.6594 -3.7277
55516SOL    HW273789   8.312   5.375   9.172  0.8433 -0.5332 -0.3982
55517SOL     OW73790   2.800   2.466   6.097  0.2325  0.2387  0.3563
55517SOL    HW173791   2.887   2.430   6.076  0.4454  0.4736  0.8240
55517SOL    HW273792   2.764   2.490   6.012  1.0192  1.0206  0.2228
55518SOL     OW73793  12.423   5.296   1.095 -0.3422  0.0234  0.1763
55518SOL    HW173794  12.332   5.300   1.126 -0.4814 -0.3711 -0.1752
55518SOL    HW273795  12.431   5.210   1.053  0.3682 -0.1902  0.7277
55519SOL     OW73796   4.884   6.735  10.203 -0.0368  0.4635 -0.0884
55519SOL    HW173797   4.789   6.733  10.216 -0.2157  0.9749 -1.2025
55519SOL    HW273798   4.913   6.812  10.252 -0.0965 -0.0479  0.7718
55520SOL     OW73799   1.567   3.118   6.216  0.3702  0.0851  0.7456
55520SOL    HW173800   1.535   3.136   6.304  0.3787  1.0432  0.5689
55520SOL    HW273801   1.504   3.161   6.158  2.2333  2.6054  0.4057
55521SOL     OW73802   3.154   8.659  11.272  0.1404 -0.0623  0.1979
55521SOL    HW173803   3.115   8.649  11.359  1.1965 -0.1012  0.6816
55521SOL    HW273804   3.083   8.692  11.218 -0.6619 -0.4687  0.9659
55522SOL     OW73805  12.118   8.856   5.205  0.6396 -0.1606  0.3652
55522SOL    HW173806  12.158   8.905   5.134  0.0514  2.1061  1.4880
55522SOL    HW273807  12.024   8.861   5.188  0.5689 -0.9379  0.4897
55523SOL     OW73808  10.533   5.233  10.297  0.2475 -0.0618  0.1629
55523SOL    HW173809  10.545   5.221  10.391  0.9556  0.6505  0.1811
55523SOL    HW273810  10.442   5.212  10.280  0.3943 -1.2694  0.8299
55524SOL     OW73811   8.356   8.710   5.000  0.2379 -0.4632  0.1151
55524SOL    HW173812   8.415   8.750   4.936  0.2609 -0.1715  0.3158
55524SOL    HW273813   8.357   8.771   5.074 -0.4662 -0.3574  0.0436
55525SOL     OW73814   4.964   8.048   2.396 -1.0266 -0.3480 -0.0799
55525SOL    HW173815   4.967   8.046   2.492 -1.6907  0.4529 -0.0224
55525SOL    HW273816   4.953   8.141   2.375 -0.2123 -0.4337 -0.9668
55526SOL     OW73817   6.449   3.179   2.478 -0.3400  0.6446 -0.6278
55526SOL    HW173818   6.488   3.097   2.446 -0.6370  0.7922 -1.4006
55526SOL    HW273819   6.494   3.196   2.560  1.1527  0.7450 -1.4317
55527SOL     OW73820  11.380   3.680   2.730  0.2664  0.4367 -0.5160
55527SOL    HW173821  11.424   3.639   2.805 -1.0004  1.7548  1.0525
55527SOL    HW273822  11.331   3.609   2.689 -0.9680  0.0630  1.4449
55528SOL     OW73823   6.527  11.766   1.785  0.4383 -0.2006  0.3248
55528SOL    HW173824   6.558  11.699   1.847 -1.8641 -0.8419  0.8735
55528SOL    HW273825   6.442  11.793   1.819 -0.2688  0.4719 -1.8070
55529SOL     OW73826   4.467  11.125   2.643  0.5544  0.3055  0.2507
55529SOL    HW173827   4.421  11.041   2.646 -2.1862  1.4164 -3.4231
55529SOL    HW273828   4.443  11.169   2.724 -1.1960 -1.0014  0.4970
55530SOL     OW73829   8.490  12.702   0.833  0.2129  0.5755  0.0002
55530SOL    HW173830   8.397  12.684   0.820  0.2115  0.6478 -0.0868
55530SOL    HW273831   8.530  12.684   0.748  0.1931  1.1033 -0.1227
55531SOL     OW73832   6.559   7.671   0.739  0.6009  0.1032 -0.1702
55531SOL    HW173833   6.494   7.654   0.671 -0.8129  0.9737  0.9119
55531SOL    HW273834   6.580   7.585   0.775 -0.9941 -0.0815  0.3798
55532SOL     OW73835   1.048  12.678   5.017  0.4962  0.3227 -0.5739
55532SOL    HW173836   1.038  12.765   5.056 -0.1234  0.2596 -0.5795
55532SOL    HW273837   0.966  12.664   4.969  0.3472 -0.4925 -0.1070
55533SOL     OW73838   9.082  11.217   8.410 -0.6223 -0.2353 -0.3703
55533SOL    HW173839   9.161  11.174   8.441  0.0618  1.5327  0.4462
55533SOL    HW273840   9.015  11.196   8.475 -0.6163 -1.0330 -0.6153
55534SOL     OW73841   1.827   2.845   0.461 -0.0315  0.1229 -0.7756
55534SOL    HW173842   1.829   2.939   0.440 -1.9025  0.0419 -1.5355
55534SOL    HW273843   1.752   2.835   0.519  0.3469 -0.8719 -0.4393
55535SOL     OW73844   1.375   0.682  10.419  0.4121 -0.0122 -0.7213
55535SOL    HW173845   1.423   0.619  10.366 -0.5748 -0.9538 -0.5599
55535SOL    HW273846   1.403   0.767  10.388  2.4193 -0.5014 -0.3935
55536SOL     OW73847   4.341  10.675   9.551 -0.7415  0.0469 -0.2630
55536SOL    HW173848   4.281  10.601   9.543 -0.6199 -0.1614  0.6246
55536SOL    HW273849   4.421  10.646   9.507 -0.4792 -0.6019  0.6255
55537SOL     OW73850  11.337   3.328  10.517  0.7530 -0.2806  0.3900
55537SOL    HW173851  11.418   3.279  10.503  0.6260 -0.6895  1.0710
55537SOL    HW273852  11.344   3.403  10.458  2.4706  0.6695  1.7002
55538SOL     OW73853   4.828   2.708  12.019 -0.1470  0.3229 -0.2932
55538SOL    HW173854   4.794   2.797  12.015  0.2637  0.5301  0.6607
55538SOL    HW273855   4.758   2.654  11.982 -1.2226  0.8179  0.9326
55539SOL     OW73856   9.909   2.598  12.216 -0.4536 -0.3282  0.3871
55539SOL    HW173857   9.814   2.612  12.212 -0.4183 -0.1162  0.2432
55539SOL    HW273858   9.930   2.553  12.134 -0.5755 -1.2864  0.8755
55540SOL     OW73859   1.248   7.825   6.580  0.0306  0.3163 -0.3257
55540SOL    HW173860   1.217   7.889   6.643 -3.2227 -1.7767  0.4032
55540SOL    HW273861   1.267   7.746   6.632  1.9037 -0.0553 -1.4412
55541SOL     OW73862   2.394   1.114   5.969  0.2216 -0.1069 -0.6760
55541SOL    HW173863   2.438   1.193   5.936  1.0960  0.3118  1.3440
55541SOL    HW273864   2.301   1.129   5.949  0.2451  1.8749  0.3551
55542SOL     OW73865   0.594   0.601  12.050  0.0467 -0.5192 -0.0949
55542SOL    HW173866   0.621   0.545  12.123 -1.6166  0.6209  1.4813
55542SOL    HW273867   0.499   0.589  12.044 -0.0284  0.4592 -1.1701
55543SOL     OW73868   7.672   7.165  11.441 -0.2243  0.0977 -0.0517
55543SOL    HW173869   7.709   7.248  11.412  0.4534  0.1611  0.9383
55543SOL    HW273870   7.579   7.183  11.454  0.0440  0.9372  0.8983
55544SOL     OW73871   2.294  11.066   3.104  0.1243  0.1364  0.1401
55544SOL    HW173872   2.255  11.076   3.017  1.0590  1.3119 -0.1694
55544SOL    HW273873   2.372  11.121   3.101 -0.4337  1.1176  2.0898
55545SOL     OW73874   7.841  10.966   8.180 -0.3701  0.2281 -0.3559
55545SOL    HW173875   7.819  10.880   8.144 -1.9487  0.8444 -0.9617
55545SOL    HW273876   7.779  11.026   8.138 -1.3548  1.2080  2.2838
55546SOL     OW73877   2.498   1.528   1.394  0.0616  0.1828 -0.1193
55546SOL    HW173878   2.426   1.468   1.415  0.8533 -1.2381 -1.2962
55546SOL    HW273879   2.485   1.601   1.453  0.4515 -2.2029  3.1745
55547SOL     OW73880   9.053   3.194  12.073 -0.3239  0.0420 -0.4019
55547SOL    HW173881   8.992   3.220  12.004 -1.7383 -1.5327  0.1813
55547SOL    HW273882   9.049   3.266  12.136 -0.7430  0.4713 -0.9026
55548SOL     OW73883   1.472   3.883   8.974 -0.3572  0.1068  0.2708
55548SOL    HW173884   1.434   3.909   9.059 -1.4881 -1.2423  0.2209
55548SOL    HW273885   1.409   3.821   8.938  1.0445 -0.8135 -0.6922
55549SOL     OW73886   3.169  10.014   8.253 -0.2203 -0.2412 -0.0263
55549SOL    HW173887   3.115  10.081   8.209 -1.2382 -1.3094 -0.4536
55549SOL    HW273888   3.124   9.998   8.336  0.2974 -0.0473  0.2927
55550SOL     OW73889  11.738   7.953   6.369  0.0277  0.3411  0.2220
55550SOL    HW173890  11.678   7.878   6.379 -0.1905  0.6883  1.7623
55550SOL    HW273891  11.824   7.913   6.360 -0.1795 -0.1202  0.2396
55551SOL     OW73892  12.003   1.132   7.334 -0.0436  0.1825 -0.3280
55551SOL    HW173893  11.924   1.117   7.282 -0.3831  1.8526 -0.3638
55551SOL    HW273894  12.033   1.219   7.308  2.2688 -0.6941 -0.8475
55552SOL     OW73895   3.418   2.506   0.123 -0.4537  0.2070  0.1560
55552SOL    HW173896   3.395   2.464   0.040  0.7668  0.2786 -0.2342
55552SOL    HW273897   3.351   2.574   0.134 -0.7332  0.0878 -0.6847
55553SOL     OW73898   2.448   2.866  10.224  0.1267  0.4320  0.3140
55553SOL    HW173899   2.373   2.899  10.274 -0.8077  0.7759 -1.2461
55553SOL    HW273900   2.420   2.870  10.133  0.2115 -3.9710 -0.1087
55554SOL     OW73901  11.835   6.094   5.177  0.4839  0.3228 -0.7901
55554SOL    HW173902  11.761   6.139   5.135 -0.8002 -1.4206 -0.5234
55554SOL    HW273903  11.814   6.001   5.168  1.4376 -0.1681  1.5012
55555SOL     OW73904  11.444  12.566   0.459  0.4253  0.3775  0.0480
55555SOL    HW173905  11.521  12.544   0.406  1.2064  1.9835  0.4657
55555SOL    HW273906  11.477  12.623   0.528 -0.8748 -0.2736  1.2689
55556SOL     OW73907  11.808   5.278   3.547  0.1197 -0.2637  0.1257
55556SOL    HW173908  11.877   5.315   3.602  0.6270 -0.2701 -0.4929
55556SOL    HW273909  11.762   5.216   3.605 -1.1857  1.7661  1.3843
55557SOL     OW73910   1.668   9.133   4.317 -0.2632  0.2862  0.1095
55557SOL    HW173911   1.657   9.128   4.412 -0.5777 -1.8704  0.0126
55557SOL    HW273912   1.762   9.143   4.304 -0.1336 -0.1572  0.6654
55558SOL     OW73913  12.302   2.260   0.096  0.2664  0.1455 -0.1052
55558SOL    HW173914  12.361   2.271   0.171 -2.3021 -0.4400  2.1652
55558SOL    HW273915  12.242   2.333   0.102 -0.2915 -0.1864 -1.3426
55559SOL     OW73916   9.690   7.182   9.952  0.0206 -0.9285 -0.2987
55559SOL    HW173917   9.627   7.158   9.884  0.4115 -1.3769 -0.5083
55559SOL    HW273918   9.666   7.127  10.027  0.0131 -0.9277 -0.3004
55560SOL     OW73919   9.698   3.838   7.341 -0.1713  0.5600 -0.2312
55560SOL    HW173920   9.724   3.805   7.428 -0.7874  1.4989  0.3268
55560SOL    HW273921   9.603   3.842   7.345 -0.1385  2.1525 -0.3475
55561SOL     OW73922   2.264   0.097   5.529  0.3580 -0.0214  0.0006
55561SOL    HW173923   2.202   0.106   5.600 -2.0073 -1.9887 -1.6602
55561SOL    HW273924   2.310   0.015   5.547  0.0888 -0.2837 -0.5036
55562SOL     OW73925  11.300   0.714   0.205  0.1544  0.8012 -0.3293
55562SOL    HW173926  11.343   0.778   0.261  1.3473 -0.2646  0.0049
55562SOL    HW273927  11.229   0.678   0.259  0.7243  0.4329  0.1811
55563SOL     OW73928   6.704  11.368  12.516 -0.4864  0.6845 -0.3500
55563SOL    HW173929   6.651  11.414  12.451 -2.0529  1.4064  1.3086
55563SOL    HW273930   6.790  11.410  12.512 -0.4182  0.4349 -2.1757
55564SOL     OW73931   8.975  10.328   4.671 -0.1966  0.1764  0.3018
55564SOL    HW173932   9.063  10.325   4.632  0.0472 -0.3767  0.8722
55564SOL    HW273933   8.988  10.366   4.757 -0.7153  1.2541 -0.0823
55565SOL     OW73934  11.557   8.915  10.553 -0.5340 -0.1399  0.0072
55565SOL    HW173935  11.473   8.874  10.571 -0.9277  0.1840 -1.0556
55565SOL    HW273936  11.588   8.944  10.639 -1.8044  0.3197  0.3260
55566SOL     OW73937  12.173  12.377   2.671  0.2267 -0.5484 -0.3876
55566SOL    HW173938  12.106  12.309   2.671 -1.2791  0.8658  0.8270
55566SOL    HW273939  12.171  12.414   2.760  0.5351  1.4912 -1.1646
55567SOL     OW73940   0.567   5.123   1.308 -0.1644 -0.0273 -0.3601
55567SOL    HW173941   0.521   5.065   1.369 -0.0114 -2.1079 -2.1268
55567SOL    HW273942   0.659   5.097   1.315  0.0807  0.8019 -0.3684
55568SOL     OW73943   3.199   9.334   6.526  0.2652 -0.8738  0.6646
55568SOL    HW173944   3.246   9.415   6.507 -1.6309  0.9111  2.9210
55568SOL    HW273945   3.266   9.266   6.526  1.9638  0.6774 -1.1240
55569SOL     OW73946   7.223   1.429   6.888  0.6989  0.1062  0.3870
55569SOL    HW173947   7.137   1.468   6.901  1.2438  1.2371  0.7151
55569SOL    HW273948   7.225   1.354   6.947 -0.7748 -1.1562 -1.0539
55570SOL     OW73949   2.268   8.671   3.383 -0.0011  0.6097 -0.4672
55570SOL    HW173950   2.181   8.653   3.348  0.0085 -1.1500  0.2931
55570SOL    HW273951   2.325   8.675   3.307 -0.2582 -1.3929 -0.8090
55571SOL     OW73952   2.360   9.240   7.716 -0.5693 -0.0962  0.3227
55571SOL    HW173953   2.404   9.290   7.785 -0.4389  1.1265 -0.6109
55571SOL    HW273954   2.285   9.201   7.759 -0.8186  1.1238  1.0525
55572SOL     OW73955   7.091   9.530   1.014  0.6202 -0.3416 -0.4540
55572SOL    HW173956   7.146   9.597   1.054 -0.2380 -0.0260  0.2235
55572SOL    HW273957   7.117   9.449   1.058  1.0409 -0.3121 -0.6466
55573SOL     OW73958   8.061   5.005   8.547  0.0889  0.6798  0.3231
55573SOL    HW173959   8.026   5.094   8.544 -0.1724  0.5947  0.8108
55573SOL    HW273960   8.062   4.982   8.640 -1.9276 -0.6402  0.0826
55574SOL     OW73961   8.048  10.459   4.673  0.0709  0.3016 -0.3172
55574SOL    HW173962   8.074  10.551   4.670  1.4186 -0.0419  0.2550
55574SOL    HW273963   8.066  10.426   4.585  0.3913  0.3847 -0.2840
55575SOL     OW73964   3.376   5.077   7.817 -0.7775  0.2252 -0.1129
55575SOL    HW173965   3.468   5.103   7.807 -1.1307  0.7865 -2.4491
55575SOL    HW273966   3.341   5.138   7.882 -0.0966  1.6425 -1.0276
55576SOL     OW73967   9.340   1.637   6.728  0.3825  0.1898 -0.9202
55576SOL    HW173968   9.427   1.605   6.748 -0.3764 -0.6102  1.4734
55576SOL    HW273969   9.351   1.731   6.714  1.3340  0.6578  2.2099
55577SOL     OW73970  12.642   3.215   5.243 -0.4268 -0.4852 -0.0255
55577SOL    HW173971  12.628   3.239   5.152 -2.7212  1.8321  0.8151
55577SOL    HW273972  12.574   3.150   5.261 -2.4689  1.7540  0.8772
55578SOL     OW73973   3.131   6.161   1.369 -0.3029 -0.3040 -0.2835
55578SOL    HW173974   3.176   6.163   1.285 -0.0170  1.3173 -0.1193
55578SOL    HW273975   3.197   6.130   1.431  0.1554  0.6040 -0.3028
55579SOL     OW73976   5.546   5.523  12.007 -0.5232 -0.1406  0.1333
55579SOL    HW173977   5.543   5.603  11.954 -1.8401  0.9542  1.7598
55579SOL    HW273978   5.630   5.483  11.985 -0.4476  0.9420 -1.7709
55580SOL     OW73979   3.403   8.413   6.964  0.4870 -0.4797 -0.4697
55580SOL    HW173980   3.430   8.322   6.974  0.8843 -0.5178 -1.7389
55580SOL    HW273981   3.367   8.418   6.876 -0.0996  0.4629 -0.1985
55581SOL     OW73982   5.158  11.140   8.469  0.4623 -0.4535 -0.4290
55581SOL    HW173983   5.215  11.205   8.428 -0.1088 -0.8117 -1.8630
55581SOL    HW273984   5.180  11.057   8.424  0.9969 -1.2221  1.1852
55582SOL     OW73985   2.488  12.134   9.851  0.1021  0.0748  0.3285
55582SOL    HW173986   2.425  12.159   9.918 -0.5204  1.1382 -0.6208
55582SOL    HW273987   2.573  12.145   9.893 -0.2829  0.4381  1.0368
55583SOL     OW73988   2.398  10.563   0.908  0.2107 -0.5240 -0.1003
55583SOL    HW173989   2.322  10.560   0.967  0.0417  1.1542 -0.1869
55583SOL    HW273990   2.460  10.501   0.947  0.3473  0.9299  2.2581
55584SOL     OW73991   7.372   9.010   6.458 -0.0260 -0.0977 -0.0581
55584SOL    HW173992   7.412   8.947   6.518  0.5939 -1.3614 -1.7130
55584SOL    HW273993   7.288   9.032   6.499  0.6976 -0.3133  1.6249
55585SOL     OW73994   5.234  10.074  10.693 -0.0603  0.4928  0.3054
55585SOL    HW173995   5.282   9.992  10.705  1.0265  1.0047 -0.3333
55585SOL    HW273996   5.180  10.059  10.616 -1.1927 -0.1916  1.2057
55586SOL     OW73997  11.410  12.586   7.883 -0.2497 -0.0993  0.4379
55586SOL    HW173998  11.458  12.504   7.895 -1.4388 -0.8277  0.2848
55586SOL    HW273999  11.395  12.591   7.788 -1.0858 -0.2272  0.5633
55587SOL     OW74000   3.352   3.295  11.501  0.1720 -0.0829  0.0656
55587SOL    HW174001   3.283   3.295  11.435  0.6998  0.2749 -0.4992
55587SOL    HW274002   3.352   3.383  11.537  0.3676 -0.0663  0.0274
55588SOL     OW74003  11.211   2.918  11.406  0.3646 -0.2320  0.2569
55588SOL    HW174004  11.255   2.979  11.465  2.3711 -1.0744 -0.2777
55588SOL    HW274005  11.194   2.969  11.326  0.8766 -0.0409  0.2710
55589SOL     OW74006  11.344   0.700   6.173 -0.3731 -0.1205 -0.4272
55589SOL    HW174007  11.392   0.780   6.152 -1.0177  1.2227  2.6489
55589SOL    HW274008  11.252   0.726   6.169 -0.6784 -1.2867 -1.3348
55590SOL     OW74009   9.007  11.728   6.333 -0.0256 -0.6413  0.2768
55590SOL    HW174010   9.027  11.793   6.267 -1.1970 -0.0120  0.5117
55590SOL    HW274011   8.940  11.769   6.388  0.7708 -1.2179  1.7382
55591SOL     OW74012   0.886   0.289  10.916  0.1723  0.2930  0.3316
55591SOL    HW174013   0.845   0.305  10.831  1.4933  2.1597 -0.0093
55591SOL    HW274014   0.937   0.209  10.903  0.4009  0.5803 -0.6637
55592SOL     OW74015   8.680  11.738  11.301  0.2624  0.1955 -0.7633
55592SOL    HW174016   8.743  11.687  11.249  1.3772  1.5899 -0.8427
55592SOL    HW274017   8.627  11.672  11.345  0.4594 -1.0241 -2.2661
55593SOL     OW74018   7.974   0.603   8.234 -0.2845 -0.0177  0.1168
55593SOL    HW174019   7.890   0.644   8.209  0.1970  1.4434  0.7575
55593SOL    HW274020   8.024   0.675   8.274  1.2582 -0.8777 -0.2009
55594SOL     OW74021   9.365  12.103   7.606 -0.3137 -0.1569  0.1085
55594SOL    HW174022   9.312  12.027   7.581 -0.7060 -0.0716  0.6700
55594SOL    HW274023   9.305  12.177   7.601 -0.0047  0.0807 -0.1553
55595SOL     OW74024  11.148  10.822  11.627  0.0193 -0.1536  0.0232
55595SOL    HW174025  11.226  10.873  11.605  1.2495 -2.2970 -0.9621
55595SOL    HW274026  11.183  10.741  11.666 -1.7336 -1.0000 -0.0512
55596SOL     OW74027  11.353   5.323   7.359 -0.1447 -0.3899  0.3200
55596SOL    HW174028  11.280   5.382   7.337  1.4381  1.9168  0.9563
55596SOL    HW274029  11.417   5.337   7.289  0.0660 -1.8333  0.1840
55597SOL     OW74030   0.981   1.935   1.506 -0.2569  0.4171 -0.1199
55597SOL    HW174031   0.925   1.882   1.563 -1.3104  1.3411 -0.2404
55597SOL    HW274032   1.068   1.898   1.516 -0.9664 -1.3930 -0.2915
55598SOL     OW74033   7.088   8.341   9.359  0.0626 -0.2387  0.2693
55598SOL    HW174034   7.081   8.361   9.452  1.4224  1.1581  0.1108
55598SOL    HW274035   7.182   8.330   9.343  0.1505  2.0947 -1.3769
55599SOL     OW74036   7.287   5.928   1.368  0.5064 -0.3425 -0.0989
55599SOL    HW174037   7.334   5.982   1.303 -0.5934 -0.3787 -0.9591
55599SOL    HW274038   7.336   5.846   1.369  0.7184 -0.2361 -0.6768
55600SOL     OW74039   5.876   1.917   3.229 -0.5683  0.1416 -0.0727
55600SOL    HW174040   5.949   1.879   3.180 -1.2946 -0.1781 -0.9516
55600SOL    HW274041   5.839   1.982   3.169 -0.9141  0.3986  0.4142
55601SOL     OW74042   7.457   8.678   6.938  0.5111 -0.9384  0.0367
55601SOL    HW174043   7.512   8.669   6.860  1.5432 -0.7016  0.7194
55601SOL    HW274044   7.498   8.620   7.003  0.8373  0.3320  1.0149
55602SOL     OW74045   9.035   3.476   4.684  0.2237  0.0789  0.3689
55602SOL    HW174046   9.016   3.398   4.736  0.1066  0.0605  0.2976
55602SOL    HW274047   8.955   3.528   4.689  0.5535  0.5386  1.0253
55603SOL     OW74048  10.242  10.987  11.061  0.2662 -0.0648 -0.1015
55603SOL    HW174049  10.294  10.922  11.015 -1.2508 -1.8298  0.5798
55603SOL    HW274050  10.307  11.048  11.098  1.6645 -0.6897 -1.4483
55604SOL     OW74051   1.392   9.092   6.082 -0.1879  0.3065 -0.0927
55604SOL    HW174052   1.414   9.133   6.166 -1.0965 -1.1697  0.8989
55604SOL    HW274053   1.300   9.116   6.068 -0.9326 -1.7692  0.8058
55605SOL     OW74054   4.350  11.555   4.652 -0.6747  0.0044 -0.1085
55605SOL    HW174055   4.428  11.533   4.703 -0.9456 -0.5534  0.0742
55605SOL    HW274056   4.325  11.473   4.609 -1.3261  0.0992  0.0690
55606SOL     OW74057   9.796  11.021   0.379  0.2582 -0.3705 -0.1990
55606SOL    HW174058   9.831  11.024   0.468 -0.7929 -2.0264  0.3168
55606SOL    HW274059   9.722  10.960   0.385 -0.2826  0.0582 -2.0592
55607SOL     OW74060   6.717   7.171  11.844 -0.0366  0.2119 -0.2008
55607SOL    HW174061   6.673   7.241  11.891  0.4694 -0.0649  0.7081
55607SOL    HW274062   6.685   7.090  11.885 -0.3341 -0.0740 -0.9854
55608SOL     OW74063   9.859   3.077   4.085  0.5934 -0.1070  0.0722
55608SOL    HW174064   9.784   3.020   4.098 -0.1203  0.4958 -1.2508
55608SOL    HW274065   9.905   3.076   4.169 -0.9421 -0.4168  0.9304
55609SOL     OW74066   6.138   4.444   9.344 -0.1129  0.1789  0.0857
55609SOL    HW174067   6.122   4.537   9.360  0.4564  0.3625 -0.3859
55609SOL    HW274068   6.190   4.442   9.264  0.1370 -0.5299  0.2561
55610SOL     OW74069   9.374   4.606   0.901 -0.0661 -0.2542  0.0788
55610SOL    HW174070   9.317   4.556   0.841  2.0684 -0.7227 -1.6871
55610SOL    HW274071   9.419   4.668   0.844  1.3286 -0.0309  1.3716
55611SOL     OW74072  11.598   2.170   1.038  0.0730  0.1172 -0.3922
55611SOL    HW174073  11.620   2.147   0.948 -0.2487  0.2531 -0.5095
55611SOL    HW274074  11.595   2.266   1.038 -0.5861  0.1015 -0.4009
55612SOL     OW74075   7.240   5.552   1.563  0.0102 -0.4156 -0.3424
55612SOL    HW174076   7.241   5.578   1.656 -1.5539 -1.2657 -0.0551
55612SOL    HW274077   7.172   5.607   1.524 -0.6677 -1.3733 -0.5512
55613SOL     OW74078   1.586  12.425   9.680 -0.0144 -0.4063  0.4769
55613SOL    HW174079   1.591  12.519   9.700  0.6146 -0.2360 -0.4375
55613SOL    HW274080   1.677  12.397   9.673 -0.2019 -0.9477  0.1192
55614SOL     OW74081  12.632   4.278  10.336  0.4468 -0.3640  0.3633
55614SOL    HW174082  12.702   4.245  10.393  1.0390  0.1946 -0.0241
55614SOL    HW274083  12.581   4.200  10.313  0.9037 -0.7694  0.7056
55615SOL     OW74084   2.938   7.945   4.640  0.1200 -0.1910 -0.5014
55615SOL    HW174085   3.019   7.903   4.668  0.7751  1.3885  0.0916
55615SOL    HW274086   2.928   7.920   4.548  1.4569 -0.1215 -0.6738
55616SOL     OW74087   2.621   9.054   8.006 -0.1758 -0.4376 -0.1450
55616SOL    HW174088   2.688   8.996   8.043 -2.1425 -2.1924  0.8950
55616SOL    HW274089   2.655   9.079   7.920  1.9645 -0.9057  0.4982
55617SOL     OW74090   1.440   8.342   3.753 -0.2437 -0.4891 -0.0764
55617SOL    HW174091   1.405   8.407   3.814  1.9226 -0.6319  1.4182
55617SOL    HW274092   1.535   8.352   3.758  0.0888 -2.3393 -1.4167
55618SOL     OW74093  12.339   4.503   1.483  0.1488 -0.7063  0.2222
55618SOL    HW174094  12.310   4.557   1.410  1.9770 -1.0350 -0.8185
55618SOL    HW274095  12.410   4.554   1.523  0.6716 -1.5050  0.3394
55619SOL     OW74096   3.746   1.079   3.947  0.3128 -0.0750  0.0798
55619SOL    HW174097   3.711   1.082   4.036 -1.1306  0.5258 -0.4739
55619SOL    HW274098   3.674   1.045   3.894  0.6643  0.8811 -1.0547
55620SOL     OW74099   1.354   4.458   7.815  0.1565  0.5907  0.3595
55620SOL    HW174100   1.282   4.439   7.755  0.2180 -1.0393  0.7430
55620SOL    HW274101   1.321   4.434   7.901  1.2812 -0.6346  0.4846
55621SOL     OW74102   5.902   4.348   4.395  0.2043 -0.1394  0.2482
55621SOL    HW174103   5.913   4.441   4.411 -0.3275 -0.0548  0.1168
55621SOL    HW274104   5.962   4.328   4.323  0.2987  0.1026  0.2618
55622SOL     OW74105   8.348   4.079   6.820  0.0979 -0.1635  0.3793
55622SOL    HW174106   8.357   4.000   6.767 -1.2367  0.2267 -0.4902
55622SOL    HW274107   8.400   4.062   6.898  1.0358 -1.2927 -0.4590
55623SOL     OW74108   2.365  10.405   9.511 -0.3741  0.7651 -0.4345
55623SOL    HW174109   2.273  10.391   9.535  0.1256 -0.8807  0.6664
55623SOL    HW274110   2.363  10.420   9.416 -1.6477 -0.7649 -0.6871
55624SOL     OW74111   1.168  11.562  10.150  0.1068  0.2328 -0.1654
55624SOL    HW174112   1.150  11.635  10.091 -0.3923 -0.9970 -1.6432
55624SOL    HW274113   1.232  11.509  10.102 -1.3813 -1.5483 -0.2950
55625SOL     OW74114  11.514  12.158   0.241  0.5043  0.4590 -0.6357
55625SOL    HW174115  11.602  12.167   0.279  0.5317 -0.9256 -0.3267
55625SOL    HW274116  11.525  12.095   0.170 -0.1419  0.7163 -0.9690
55626SOL     OW74117  12.356   4.527   9.591 -0.1933  0.2992 -0.3359
55626SOL    HW174118  12.399   4.442   9.596  2.1883  1.4421  0.4289
55626SOL    HW274119  12.303   4.523   9.512  1.7087 -1.1291 -1.6278
55627SOL     OW74120   8.186   4.274   1.316 -0.1365 -0.1103  0.5616
55627SOL    HW174121   8.272   4.297   1.350 -0.9171 -0.0719  2.6436
55627SOL    HW274122   8.132   4.258   1.394 -1.9904 -0.2443 -0.6734
55628SOL     OW74123   2.434   8.614   2.501  0.3959  0.0057  0.0989
55628SOL    HW174124   2.396   8.578   2.582  0.6252 -0.2941  0.0779
55628SOL    HW274125   2.361   8.657   2.457 -0.1105 -1.2534 -0.3384
55629SOL     OW74126   7.721  11.882   6.522 -0.1551  0.0992  0.0664
55629SOL    HW174127   7.798  11.908   6.572 -0.8417  0.7164  0.8425
55629SOL    HW274128   7.746  11.800   6.479  1.2939  0.8545 -0.6001
55630SOL     OW74129   1.429   5.018   5.102  0.1470 -0.2665 -0.1812
55630SOL    HW174130   1.393   4.929   5.100  1.6319 -0.9182  0.6933
55630SOL    HW274131   1.493   5.020   5.031  0.4434 -0.0389  0.0923
55631SOL     OW74132  10.182   2.300  11.155  0.3683 -0.1129 -0.0316
55631SOL    HW174133  10.104   2.319  11.207 -1.2141  0.3447 -2.4126
55631SOL    HW274134  10.243   2.370  11.177 -0.8801  0.9954  0.0751
55632SOL     OW74135   9.670   6.737   7.977  0.0677  0.0032 -0.3422
55632SOL    HW174136   9.750   6.699   8.013 -0.9526 -2.0424 -0.1309
55632SOL    HW274137   9.694   6.828   7.958  2.0738 -0.2138  0.8452
55633SOL     OW74138   7.320  12.659   7.083 -0.6379  0.1272  0.6415
55633SOL    HW174139   7.339  12.711   7.161  0.1328 -0.0914  0.6006
55633SOL    HW274140   7.274  12.719   7.025  0.3632  0.8209  0.5395
55634SOL     OW74141  12.621   3.393  10.836  0.2759 -0.0811  0.5241
55634SOL    HW174142  12.708   3.372  10.800  0.7101  1.1523  0.8067
55634SOL    HW274143  12.577   3.440  10.766 -0.3487 -1.1053  0.2178
55635SOL     OW74144   5.930   0.041   5.209  0.0019  0.3736 -0.2537
55635SOL    HW174145   5.948   0.110   5.145  0.9580 -1.1477 -1.6966
55635SOL    HW274146   5.882  -0.026   5.160 -0.7030 -0.1245  1.0439
55636SOL     OW74147   2.094   7.308   7.798 -0.6283 -0.0368  0.3043
55636SOL    HW174148   2.123   7.248   7.729 -0.8513 -0.4482  0.5642
55636SOL    HW274149   2.171   7.360   7.820 -0.4007 -0.3184  0.1658
55637SOL     OW74150   3.380  12.354   0.698  0.2014  0.8315  0.7852
55637SOL    HW174151   3.368  12.447   0.713  1.2701  0.6267  3.2039
55637SOL    HW274152   3.413  12.348   0.608 -0.3928  2.6912  0.4031
55638SOL     OW74153  11.686  12.183   0.946  0.3133  0.0017 -0.0989
55638SOL    HW174154  11.746  12.256   0.927  1.2787 -0.5726  0.6463
55638SOL    HW274155  11.715  12.150   1.031 -0.9484 -0.4335  0.1794
55639SOL     OW74156   8.464   6.393   6.854 -0.2317 -0.2118  0.2911
55639SOL    HW174157   8.526   6.415   6.785 -0.4087  0.4720  0.3438
55639SOL    HW274158   8.432   6.306   6.831 -0.2897  0.0132 -0.4857
55640SOL     OW74159   1.759  11.927   4.087  0.4608 -0.4801  0.3533
55640SOL    HW174160   1.831  11.918   4.024  0.2890 -0.7021  0.1859
55640SOL    HW274161   1.772  11.855   4.148 -0.4729 -1.4340 -0.5420
55641SOL     OW74162   7.360   9.786   4.121  0.2130 -0.2792 -0.2075
55641SOL    HW174163   7.330   9.770   4.032 -0.6970  0.6540 -0.0908
55641SOL    HW274164   7.363   9.881   4.128  0.7626 -0.3510  0.6000
55642SOL     OW74165  11.511   2.811   4.483  0.3038 -0.0234  0.0123
55642SOL    HW174166  11.544   2.766   4.405  0.9760 -1.6094  1.1584
55642SOL    HW274167  11.585   2.864   4.513 -0.2476  1.3199 -0.9076
55643SOL     OW74168   8.563   5.937   2.140 -0.3422 -0.2414  0.0632
55643SOL    HW174169   8.637   5.877   2.142  0.2899  0.4576 -1.2592
55643SOL    HW274170   8.588   6.007   2.200 -0.8709 -1.0136  1.2288
55644SOL     OW74171   3.388   7.644   5.829 -0.0689 -0.6651 -0.1814
55644SOL    HW174172   3.425   7.582   5.892 -2.7513 -2.2936 -0.0596
55644SOL    HW274173   3.406   7.605   5.743  0.4074 -0.2997 -0.2550
55645SOL     OW74174   2.484  12.118  11.943  0.4052 -0.1670 -0.0301
55645SOL    HW174175   2.505  12.037  11.897 -1.3697 -0.0057 -1.2136
55645SOL    HW274176   2.568  12.163  11.953  1.2157 -1.5027 -0.5791
55646SOL     OW74177   2.564   2.572   2.955 -0.6549 -0.4456 -0.4023
55646SOL    HW174178   2.494   2.518   2.919 -1.4568 -0.4196  1.0243
55646SOL    HW274179   2.537   2.588   3.046  1.1620 -0.3683  0.1675
55647SOL     OW74180   8.318   2.281  11.399  0.0429 -0.4421 -0.2478
55647SOL    HW174181   8.273   2.316  11.322  2.6198  1.2297 -1.1480
55647SOL    HW274182   8.299   2.343  11.469 -0.8915 -1.0240  0.0350
55648SOL     OW74183   7.504   9.116   8.824 -0.0986  0.6905  0.5958
55648SOL    HW174184   7.427   9.172   8.819  0.7556  1.9060  0.7752
55648SOL    HW274185   7.550   9.130   8.741 -0.6748 -1.0017 -0.0748
55649SOL     OW74186  11.269   0.455   2.307  0.3103  0.2065  0.3805
55649SOL    HW174187  11.230   0.378   2.348 -1.8979  0.4294 -1.1108
55649SOL    HW274188  11.296   0.511   2.380  0.6121 -1.3210  1.4795
55650SOL     OW74189   6.845   6.990  12.174 -0.6867  0.4251  0.3796
55650SOL    HW174190   6.878   7.074  12.144 -0.3306  0.2675  0.3232
55650SOL    HW274191   6.822   7.004  12.266 -0.3041  0.4915  0.4652
55651SOL     OW74192   7.518   9.016  11.550 -0.2921  0.4602 -0.4694
55651SOL    HW174193   7.550   8.928  11.528 -2.0854 -0.3649 -0.0144
55651SOL    HW274194   7.495   9.011  11.642  0.7082  1.8081 -0.1236
55652SOL     OW74195   4.134   2.752   1.286 -0.7208  0.7659 -0.5226
55652SOL    HW174196   4.052   2.771   1.241 -2.1155  1.0562  1.9723
55652SOL    HW274197   4.202   2.792   1.230 -2.6555  4.7708 -0.3880
55653SOL     OW74198   9.545   0.747   3.466 -0.2837  0.4283 -0.0962
55653SOL    HW174199   9.462   0.769   3.423 -0.5491  3.2862  1.6149
55653SOL    HW274200   9.521   0.717   3.553  0.4373 -0.5360 -0.2101
55654SOL     OW74201   4.113   6.029   4.364  0.1140  0.5665 -0.2351
55654SOL    HW174202   4.163   6.090   4.419 -2.2356 -0.0319  2.8319
55654SOL    HW274203   4.060   5.979   4.426 -1.1841 -1.7065 -2.9617
55655SOL     OW74204   7.083   8.467   5.281  0.2475  0.3859 -0.7784
55655SOL    HW174205   6.999   8.442   5.243 -0.1583  0.7961 -0.1643
55655SOL    HW274206   7.111   8.543   5.231 -0.8424  1.6397  0.4506
55656SOL     OW74207   1.466   0.681   2.512  0.1405  0.3010  0.0770
55656SOL    HW174208   1.500   0.591   2.514  1.6784  0.5954 -4.0232
55656SOL    HW274209   1.524   0.728   2.453 -1.7590  3.5475  0.5306
55657SOL     OW74210  11.369   6.378   2.848  0.3022 -0.6324  0.0370
55657SOL    HW174211  11.410   6.465   2.857  0.8606 -0.6843 -1.7620
55657SOL    HW274212  11.289   6.385   2.901  1.1756  0.4126  1.2989
55658SOL     OW74213   5.650   1.265   4.152 -0.1382 -0.4380 -0.0947
55658SOL    HW174214   5.662   1.359   4.135  0.2293 -0.2365  1.1884
55658SOL    HW274215   5.739   1.230   4.153 -0.3324 -1.1420 -2.2101
55659SOL     OW74216   6.433  10.642   0.765  0.0455  0.3201  0.0737
55659SOL    HW174217   6.463  10.732   0.780 -1.0141  0.5710  0.8551
55659SOL    HW274218   6.348  10.638   0.810  0.1587 -1.1294  0.2028
55660SOL     OW74219   3.938   8.793  12.140 -0.4790 -0.7487 -0.0627
55660SOL    HW174220   3.955   8.860  12.074 -1.2344 -1.2011 -0.7408
55660SOL    HW274221   3.855   8.753  12.113 -0.8577 -0.8805  1.2227
55661SOL     OW74222   1.433   4.835   6.184  0.7131  0.7648 -0.2138
55661SOL    HW174223   1.489   4.872   6.252  2.1797 -2.4901  0.5556
55661SOL    HW274224   1.492   4.816   6.111  0.9010 -3.0826  0.7462
55662SOL     OW74225   3.690   5.226   3.456 -0.1932  0.6604 -0.1739
55662SOL    HW174226   3.696   5.130   3.461 -0.2106  0.4732 -2.5819
55662SOL    HW274227   3.597   5.245   3.469 -0.1810  0.3889  0.3774
55663SOL     OW74228   1.782  11.481   1.455  0.0009 -0.0717  0.2839
55663SOL    HW174229   1.753  11.570   1.475 -2.5650 -1.1830  2.0392
55663SOL    HW274230   1.730  11.456   1.377  1.0133  0.0747 -0.4539
55664SOL     OW74231   1.834   6.856   9.052 -0.0624 -0.2843 -0.3794
55664SOL    HW174232   1.891   6.920   9.096  0.9248 -1.1366 -0.3703
55664SOL    HW274233   1.763   6.840   9.114 -1.6917  2.5543 -1.3191
55665SOL     OW74234   9.544   0.037  12.060 -0.3347 -0.3193 -0.6114
55665SOL    HW174235   9.477   0.106  12.056 -1.8361 -1.6690  0.1405
55665SOL    HW274236   9.527  -0.017  11.983 -2.3401 -2.5505  1.2507
55666SOL     OW74237  10.810   6.397   9.250  0.1621  0.8368 -0.3155
55666SOL    HW174238  10.858   6.406   9.333  3.2695  0.7087 -1.9511
55666SOL    HW274239  10.871   6.352   9.192 -2.5367 -0.6291 -2.2493
55667SOL     OW74240   3.341   4.131  10.470  0.2629  0.0276  0.0366
55667SOL    HW174241   3.419   4.076  10.478  1.3983  1.3564 -1.4060
55667SOL    HW274242   3.343   4.186  10.548  2.1531  1.6717 -1.0692
55668SOL     OW74243   4.609   9.977   0.335  0.2869 -0.1210  0.5482
55668SOL    HW174244   4.634   9.941   0.419  0.9716 -0.8257  0.0596
55668SOL    HW274245   4.686  10.026   0.306  0.4333 -0.7167 -0.1097
55669SOL     OW74246   7.163   6.336   6.221  0.1654  0.3145  0.0056
55669SOL    HW174247   7.133   6.330   6.131 -0.3769  0.5816  0.1647
55669SOL    HW274248   7.251   6.375   6.215  0.8209 -1.2050 -0.5099
55670SOL     OW74249   7.334  10.371   2.572  0.3593 -0.0039  0.3273
55670SOL    HW174250   7.298  10.380   2.660  0.6365  0.7134  0.3740
55670SOL    HW274251   7.259  10.345   2.518  0.2704 -0.8332  0.8414
55671SOL     OW74252   1.875  10.674   0.354 -0.0700 -0.1815 -0.5128
55671SOL    HW174253   1.865  10.620   0.432  2.8494  1.0015  0.8185
55671SOL    HW274254   1.824  10.753   0.373 -1.9352 -1.1498 -1.2252
55672SOL     OW74255   9.240   7.820   0.911 -0.3435 -0.5359  0.6474
55672SOL    HW174256   9.192   7.817   0.994 -1.2351 -1.6497  0.1057
55672SOL    HW274257   9.190   7.765   0.852  1.3583 -1.3643 -0.0880
55673SOL     OW74258   7.750   4.326   2.617 -0.0055  0.1319 -0.5644
55673SOL    HW174259   7.776   4.322   2.525 -0.4231  0.0955 -0.6837
55673SOL    HW274260   7.827   4.297   2.665 -0.0380 -0.6137 -0.9491
55674SOL     OW74261   5.540   7.493   9.780  0.4789  0.2050  0.3345
55674SOL    HW174262   5.468   7.503   9.718 -0.0458 -0.2313  0.8656
55674SOL    HW274263   5.499   7.460   9.860  0.9063  2.1525  1.4334
55675SOL     OW74264  10.083   6.419   9.344  0.5948 -0.5962  0.3360
55675SOL    HW174265  10.087   6.330   9.378  0.2836 -0.3425  1.0567
55675SOL    HW274266   9.996   6.451   9.369 -0.0052 -0.7100 -1.5039
55676SOL     OW74267   3.219   7.089  10.257  0.5091 -0.3855  0.1722
55676SOL    HW174268   3.254   7.038  10.330 -1.2275 -1.0098  0.6218
55676SOL    HW274269   3.124   7.080  10.265  0.2534  0.3220 -1.6106
55677SOL     OW74270  11.840   8.130  11.818  0.6399 -0.3243 -0.4117
55677SOL    HW174271  11.845   8.152  11.911  0.7281  1.8032 -0.8690
55677SOL    HW274272  11.751   8.155  11.792  0.7776 -0.4412 -1.0070
55678SOL     OW74273  12.680   0.896   3.931 -0.2455  0.2855  0.2831
55678SOL    HW174274  12.642   0.955   3.996 -1.0145  0.7321 -0.5528
55678SOL    HW274275  12.625   0.817   3.935 -0.8969  0.6870 -0.4834
55679SOL     OW74276  11.774   2.216   8.584  0.3737 -0.1463 -0.6546
55679SOL    HW174277  11.700   2.189   8.529 -0.2215  1.5961 -0.7764
55679SOL    HW274278  11.846   2.231   8.523  0.6381 -1.1956 -0.6092
55680SOL     OW74279   9.035  11.366   4.540  0.0333  0.6214 -0.1323
55680SOL    HW174280   9.019  11.287   4.488 -0.4169  0.8606 -0.3678
55680SOL    HW274281   9.062  11.334   4.625 -0.5257  0.2056 -0.1101
55681SOL     OW74282  10.321   1.455   7.616  0.7658  1.1178  0.5224
55681SOL    HW174283  10.267   1.480   7.541 -1.0394 -0.2327  1.3015
55681SOL    HW274284  10.352   1.538   7.652 -0.4785  1.9352 -0.1913
55682SOL     OW74285   2.881   2.458   0.717  0.4983 -0.5542  0.2870
55682SOL    HW174286   2.832   2.525   0.766  3.3835 -0.3688  3.2428
55682SOL    HW274287   2.813   2.399   0.684 -1.9198  1.7904  0.6524
55683SOL     OW74288   8.637   8.068  11.439  0.6868  0.1426 -0.2098
55683SOL    HW174289   8.701   8.136  11.418  2.0730 -0.7850  0.8763
55683SOL    HW274290   8.684   7.986  11.427 -0.1772 -0.5530  0.9766
55684SOL     OW74291   7.429   9.794   8.499  0.1777  0.3835  0.3536
55684SOL    HW174292   7.454   9.816   8.589  1.1089 -3.8589  1.3434
55684SOL    HW274293   7.508   9.811   8.448 -0.2864  2.5979  0.2312
55685SOL     OW74294   4.490  12.575   5.130 -0.7647 -0.3409  0.0280
55685SOL    HW174295   4.515  12.560   5.038 -1.6250 -0.9579 -0.1152
55685SOL    HW274296   4.459  12.665   5.132  0.3794  0.0746 -0.0231
55686SOL     OW74297   1.559   8.015  12.612  0.5709  0.4765 -0.3189
55686SOL    HW174298   1.497   7.960  12.563  0.4398 -0.4939  0.8804
55686SOL    HW274299   1.513   8.098  12.623 -0.2915 -0.0283  0.0232
55687SOL     OW74300   1.838   9.044   1.443 -0.3255 -0.1352  0.1697
55687SOL    HW174301   1.837   9.106   1.370 -0.4325 -0.0090  0.2774
55687SOL    HW274302   1.783   8.971   1.413 -1.8905  0.7355  0.8248
55688SOL     OW74303   7.397   4.075  10.205 -0.4672 -0.0912  0.4178
55688SOL    HW174304   7.319   4.103  10.252 -1.5765 -1.0870 -0.7612
55688SOL    HW274305   7.397   3.979  10.212  2.2136 -0.0606  2.7570
55689SOL     OW74306   2.772   7.694   4.966  0.0418  0.3839 -0.0658
55689SOL    HW174307   2.689   7.673   4.924  0.4212  0.5842 -0.9405
55689SOL    HW274308   2.749   7.710   5.058 -1.1061  1.8311 -0.5675
55690SOL     OW74309  12.521   7.545   6.610 -0.3644 -0.0378  0.4334
55690SOL    HW174310  12.612   7.530   6.635 -0.4632 -1.2863  0.0934
55690SOL    HW274311  12.493   7.463   6.569 -2.0058 -0.1084  1.5887
55691SOL     OW74312   5.430   8.069  10.980  0.2020 -0.4521  0.1793
55691SOL    HW174313   5.480   7.994  10.947  0.4885 -0.7354  1.2368
55691SOL    HW274314   5.476   8.096  11.059 -0.6470  0.0215  0.5282
55692SOL     OW74315   1.583  11.245   5.614 -0.3530 -0.5313  0.1908
55692SOL    HW174316   1.662  11.230   5.666 -0.8501 -1.2500  0.7618
55692SOL    HW274317   1.575  11.167   5.560 -0.7484 -0.5185  0.2305
55693SOL     OW74318   1.366   6.280   4.683 -0.3435  0.0500 -1.3606
55693SOL    HW174319   1.300   6.347   4.666 -0.2675 -0.1629 -2.5458
55693SOL    HW274320   1.412   6.311   4.761 -2.6418 -0.4205  0.2903
55694SOL     OW74321   4.230  11.759   9.967  0.4131 -0.4333 -0.5277
55694SOL    HW174322   4.162  11.728   9.907  0.9670  0.6556 -1.7712
55694SOL    HW274323   4.312  11.724   9.931  0.7088 -0.1402 -0.1562
55695SOL     OW74324   1.470   0.219   8.538  0.0453 -0.1657 -0.2895
55695SOL    HW174325   1.410   0.204   8.611 -0.4053 -1.2822 -0.8567
55695SOL    HW274326   1.554   0.240   8.579 -0.9478  2.6262  0.5307
55696SOL     OW74327   5.714  12.537   9.324 -0.2624  0.3049 -0.1482
55696SOL    HW174328   5.710  12.513   9.417  1.7428  2.5438  0.6024
55696SOL    HW274329   5.631  12.583   9.308  0.2122  1.7081  1.1556
55697SOL     OW74330   2.745   6.104   7.538 -0.4931  0.0162 -0.3917
55697SOL    HW174331   2.798   6.035   7.579  0.6452  1.3830  0.5210
55697SOL    HW274332   2.676   6.122   7.601  0.8745  1.6595  0.6945
55698SOL     OW74333   4.646   6.052   2.277  0.4896  0.1547 -0.2385
55698SOL    HW174334   4.707   6.104   2.329  1.0174 -1.0230  0.3504
55698SOL    HW274335   4.701   5.991   2.228 -0.1697 -0.4949 -0.1898
55699SOL     OW74336   9.689   7.653  11.927  0.2142  0.2292 -0.2105
55699SOL    HW174337   9.617   7.716  11.936 -0.2895  0.4573 -4.1364
55699SOL    HW274338   9.767   7.707  11.917  0.3591  0.1040  0.2381
55700SOL     OW74339   6.822   8.450   0.665  0.4556 -0.0099  0.1251
55700SOL    HW174340   6.829   8.530   0.613 -0.9698  0.5983  0.8239
55700SOL    HW274341   6.840   8.478   0.755 -0.5330 -0.3579  0.4447
55701SOL     OW74342   3.848   9.110   3.471  0.5639  0.4427  0.2101
55701SOL    HW174343   3.797   9.041   3.430 -0.8214  1.0479  0.8673
55701SOL    HW274344   3.838   9.095   3.565 -1.6940  2.8212  0.4562
55702SOL     OW74345   5.393   9.955   7.281 -0.3844 -0.4400 -0.3015
55702SOL    HW174346   5.323   9.996   7.231 -0.4258  0.8057  0.6976
55702SOL    HW274347   5.431   9.891   7.222 -1.4845 -0.1807 -1.3317
55703SOL     OW74348   3.897   7.839  11.266  0.0918  0.1679 -0.6101
55703SOL    HW174349   3.967   7.780  11.295  0.0286  1.0504  1.5046
55703SOL    HW274350   3.876   7.808  11.178  1.1502 -1.9467 -0.2083
55704SOL     OW74351   8.837  10.605   7.983  0.0562  0.3021 -0.0955
55704SOL    HW174352   8.896  10.679   7.995 -1.3459  1.6065 -0.8291
55704SOL    HW274353   8.769  10.618   8.049  0.2149 -0.7953  0.3015
55705SOL     OW74354   2.284  11.189   9.187  0.0470  0.2457 -0.9182
55705SOL    HW174355   2.292  11.104   9.230 -0.3403 -0.7114 -2.6409
55705SOL    HW274356   2.336  11.248   9.241  2.2289 -1.5427 -0.8885
55706SOL     OW74357  11.649   1.740   6.272 -0.3483 -0.1764 -0.2582
55706SOL    HW174358  11.645   1.745   6.177 -0.2403 -1.6611 -0.3551
55706SOL    HW274359  11.700   1.817   6.298 -2.4682  1.6584 -1.1859
55707SOL     OW74360   0.308  12.323   2.993 -0.2920  0.4184 -0.0015
55707SOL    HW174361   0.241  12.313   3.059 -1.3817  1.4955 -0.8990
55707SOL    HW274362   0.283  12.401   2.944  2.0804  1.3971  0.1717
55708SOL     OW74363  10.543  10.795   9.191 -0.3967 -1.1517  0.2114
55708SOL    HW174364  10.453  10.761   9.198 -0.6603 -0.5477 -0.1211
55708SOL    HW274365  10.592  10.725   9.148 -0.3057 -2.1745  1.8749
55709SOL     OW74366   4.341   1.634   9.448 -0.1487 -0.3545  0.5057
55709SOL    HW174367   4.431   1.624   9.477  0.8711  1.4754 -1.6646
55709SOL    HW274368   4.301   1.691   9.514 -0.0100 -1.8372  1.9185
55710SOL     OW74369   1.068   9.093  11.884 -0.2849 -0.3228  0.4030
55710SOL    HW174370   1.011   9.019  11.865 -1.4739  0.4627  0.7975
55710SOL    HW274371   1.136   9.089  11.817 -0.8659 -1.2174 -0.1491
55711SOL     OW74372   3.600   3.839   4.435 -0.4795  0.2527 -0.7254
55711SOL    HW174373   3.611   3.745   4.420  0.2191  0.2739 -0.4222
55711SOL    HW274374   3.670   3.879   4.384 -0.2081  0.5363 -0.1498
55712SOL     OW74375   3.162   4.448   3.708 -0.4052  0.4173 -0.2246
55712SOL    HW174376   3.165   4.354   3.689 -0.2853  0.2214  0.6978
55712SOL    HW274377   3.069   4.467   3.721 -0.5137  0.6059 -1.2274
55713SOL     OW74378  11.942   5.779  12.090 -0.3017 -0.1911  0.3313
55713SOL    HW174379  11.997   5.717  12.043  1.1143 -0.6464  2.4560
55713SOL    HW274380  11.882   5.725  12.141 -1.5433  0.2806 -0.5914
55714SOL     OW74381   8.905   0.918   2.984 -0.0315 -0.2037  0.1704
55714SOL    HW174382   8.972   0.872   3.035 -0.8232  0.4470  1.8570
55714SOL    HW274383   8.901   1.005   3.023 -0.4957  0.4083 -1.1987
55715SOL     OW74384   9.850   4.345  10.040 -0.5435  0.0311 -0.2619
55715SOL    HW174385   9.770   4.376   9.997 -0.6682 -1.0747 -0.8610
55715SOL    HW274386   9.836   4.251  10.051  0.3741 -0.0478  0.3072
55716SOL     OW74387   9.803   3.125   1.418  0.1264 -0.3703 -0.2167
55716SOL    HW174388   9.867   3.134   1.348  0.1727 -0.1246 -0.1419
55716SOL    HW274389   9.722   3.158   1.381  0.2939  0.3570  0.0541
55717SOL     OW74390   3.968   4.024  10.486 -0.5604  0.3389  0.0254
55717SOL    HW174391   3.979   4.105  10.535 -0.4544  0.6892 -0.5676
55717SOL    HW274392   3.947   3.958  10.552 -0.0457  0.7243  0.5798
55718SOL     OW74393   3.174   8.967   2.260  0.0442  0.0722  0.2790
55718SOL    HW174394   3.147   8.884   2.300 -3.1903  0.1154 -1.4831
55718SOL    HW274395   3.108   9.030   2.289  1.1082  1.4969 -0.2997
55719SOL     OW74396   6.845   4.758  11.696  0.2123  0.5574 -0.0412
55719SOL    HW174397   6.937   4.763  11.671 -0.2166  0.8587 -1.6881
55719SOL    HW274398   6.845   4.711  11.780  2.0202  2.4564  1.1180
55720SOL     OW74399  11.280   1.607   7.999  0.5078 -0.3468 -0.4198
55720SOL    HW174400  11.242   1.592   7.912  0.3631 -2.5386 -0.0333
55720SOL    HW274401  11.211   1.650   8.049  0.3256  0.2374 -1.1587
55721SOL     OW74402   6.622   3.573   1.467  0.1147  0.2144  0.0540
55721SOL    HW174403   6.586   3.489   1.438 -1.6195  1.0220 -0.2466
55721SOL    HW274404   6.692   3.591   1.404  0.2227 -0.7927 -0.1438
55722SOL     OW74405   3.619   4.300   6.593  0.1443 -0.3231 -0.1527
55722SOL    HW174406   3.542   4.330   6.545 -0.2207  1.7084  1.5640
55722SOL    HW274407   3.667   4.380   6.615  0.7292 -1.1818  2.0506
55723SOL     OW74408   5.126   0.705   8.272  0.2133 -0.4679 -0.3052
55723SOL    HW174409   5.135   0.766   8.345 -0.2190  0.2066 -0.8107
55723SOL    HW274410   5.212   0.664   8.266  0.2983 -0.4334  0.4917
55724SOL     OW74411   2.814   3.865   4.889 -0.1186 -0.4340 -0.0628
55724SOL    HW174412   2.876   3.923   4.934  0.2825  0.0927 -1.2259
55724SOL    HW274413   2.787   3.915   4.812 -3.3640  0.0712  1.2573
55725SOL     OW74414   1.696  11.238  12.072  0.5190 -0.1826  0.1417
55725SOL    HW174415   1.651  11.200  12.147 -2.2078 -0.1310 -1.3468
55725SOL    HW274416   1.667  11.185  11.998  0.2713  1.9024 -1.3391
55726SOL     OW74417   0.310   3.619   7.062  0.1846  0.4177  0.0371
55726SOL    HW174418   0.245   3.558   7.028  0.5171  0.7771 -1.2941
55726SOL    HW274419   0.280   3.640   7.150 -0.3699 -1.0326  0.2235
55727SOL     OW74420   3.619  12.445   2.553  0.3628 -0.7728  0.1477
55727SOL    HW174421   3.571  12.526   2.537 -0.2200 -0.9108  1.1208
55727SOL    HW274422   3.590  12.387   2.482  1.4905  0.1415 -1.0991
55728SOL     OW74423   6.471   3.094   5.274  0.1728  0.0152 -0.1987
55728SOL    HW174424   6.429   3.142   5.345  1.3067  0.2915  0.3102
55728SOL    HW274425   6.561   3.127   5.273  0.6574 -1.2581 -0.5987
55729SOL     OW74426   4.026   1.749   1.139 -0.7234 -0.0851 -0.5382
55729SOL    HW174427   3.935   1.756   1.111 -1.5593  0.0403  1.9779
55729SOL    HW274428   4.035   1.660   1.172 -1.0930  0.8928  2.5911
55730SOL     OW74429   6.172   7.729   9.986 -0.1877 -0.4947 -0.4644
55730SOL    HW174430   6.200   7.762   9.900  0.3497 -1.4651 -0.6803
55730SOL    HW274431   6.091   7.777  10.005  0.6596  1.0973 -0.6483
55731SOL     OW74432   1.566   1.266   6.944 -0.3937 -0.5271  0.4557
55731SOL    HW174433   1.622   1.273   7.021 -0.0017 -0.2650  0.1516
55731SOL    HW274434   1.604   1.327   6.880 -1.0630 -0.2981  0.2643
55732SOL     OW74435   2.188  10.155   5.989 -0.5385  0.0438  0.0027
55732SOL    HW174436   2.145  10.239   6.006 -2.4477 -0.6161 -1.2585
55732SOL    HW274437   2.202  10.155   5.894  0.4064 -0.6335  0.1325
55733SOL     OW74438   1.160   0.881  10.221  0.3044  0.0833  0.3817
55733SOL    HW174439   1.128   0.870  10.310  0.4443  0.3551  0.4681
55733SOL    HW274440   1.252   0.906  10.232  0.7588 -1.4256  0.1254
55734SOL     OW74441  11.443   8.609   6.091  0.4622  0.0868 -0.0874
55734SOL    HW174442  11.390   8.687   6.075 -0.9937 -0.6013  1.0666
55734SOL    HW274443  11.394   8.561   6.158  1.5076 -1.6352 -0.5005
55735SOL     OW74444  11.440   7.210   2.772  0.0032 -0.1769 -0.1211
55735SOL    HW174445  11.359   7.159   2.770 -0.2801  0.1350  1.5171
55735SOL    HW274446  11.414   7.296   2.804  0.6706  0.6575 -1.6798
55736SOL     OW74447   7.844   8.625   4.053 -0.3443  0.0999 -0.1508
55736SOL    HW174448   7.842   8.713   4.016 -2.3479  0.1403 -0.0264
55736SOL    HW274449   7.788   8.573   3.996  0.5981 -1.0612 -0.0685
55737SOL     OW74450   7.701   3.200   0.488 -0.5352 -0.1588 -0.6626
55737SOL    HW174451   7.769   3.216   0.554 -1.0838 -0.9456  0.1222
55737SOL    HW274452   7.645   3.277   0.493  0.9658  1.0965 -2.2116
55738SOL     OW74453   2.439   6.558   3.675  0.0533  0.1325  0.6810
55738SOL    HW174454   2.404   6.637   3.714 -0.7234  0.1766 -0.0635
55738SOL    HW274455   2.487   6.588   3.597  0.2486 -0.0802  0.7147
55739SOL     OW74456   5.977   0.004   2.808 -0.0016 -0.5009  0.2765
55739SOL    HW174457   5.924  -0.064   2.767 -2.3156  2.3617 -1.8939
55739SOL    HW274458   5.945   0.086   2.770  1.2968  2.0432  4.0490
55740SOL     OW74459   9.191  11.652   2.522 -0.4097 -0.0276  0.2426
55740SOL    HW174460   9.171  11.583   2.458 -0.7860 -0.3530  0.7039
55740SOL    HW274461   9.245  11.714   2.474 -1.6114  0.3125 -0.7268
55741SOL     OW74462   5.015   9.461   2.016 -0.1555  0.5317 -0.4586
55741SOL    HW174463   5.053   9.524   2.077 -0.8917 -2.0812  2.9901
55741SOL    HW274464   5.086   9.401   1.995 -0.7380 -0.7278  0.9605
55742SOL     OW74465   5.419   9.464  12.579  0.0827  0.6308  0.4390
55742SOL    HW174466   5.344   9.415  12.612  0.3899  0.1372  0.4162
55742SOL    HW274467   5.438   9.425  12.494  1.0955 -0.0390  0.9540
55743SOL     OW74468  11.200  10.018  10.926  0.1083 -0.5146  0.2875
55743SOL    HW174469  11.256  10.067  10.866 -0.9566 -0.9523 -1.1108
55743SOL    HW274470  11.152  10.084  10.975  1.5917 -0.1378  1.2935
55744SOL     OW74471  10.075   8.672   5.386 -0.0149  0.4780 -0.1875
55744SOL    HW174472  10.155   8.713   5.419  0.4983 -0.1191 -0.6910
55744SOL    HW274473  10.093   8.579   5.386 -0.9144  0.2880  0.2264
55745SOL     OW74474   3.519   6.173  11.510 -0.0690 -0.5382  0.1666
55745SOL    HW174475   3.595   6.122  11.537  0.4249 -0.7518 -1.5560
55745SOL    HW274476   3.452   6.108  11.490 -0.0537 -0.4347 -0.2262
55746SOL     OW74477   4.035   6.583   2.010  0.5451  0.3389  0.0122
55746SOL    HW174478   4.011   6.496   2.042 -0.5215 -0.8115 -3.4576
55746SOL    HW274479   3.951   6.629   1.999  0.9550  1.1288  0.0773
55747SOL     OW74480   2.702   1.947   2.689 -0.5864 -0.1622  0.0170
55747SOL    HW174481   2.776   2.005   2.709  0.0418 -1.1871  0.7725
55747SOL    HW274482   2.703   1.882   2.759 -1.4881 -0.8925 -0.6204
55748SOL     OW74483   3.334   3.523   1.884 -0.2170 -0.0040 -0.1983
55748SOL    HW174484   3.279   3.585   1.835 -1.4601 -0.0443  1.0852
55748SOL    HW274485   3.372   3.467   1.816 -0.4104  1.0798 -1.2556
55749SOL     OW74486   4.052  11.162   1.590  0.4484 -0.1890  0.0998
55749SOL    HW174487   4.110  11.205   1.653 -0.5643  0.6541  0.4924
55749SOL    HW274488   4.111  11.119   1.528  1.5530  2.0247 -0.4880
55750SOL     OW74489  12.645   0.333   6.066  0.1240  0.0416 -0.3788
55750SOL    HW174490  12.725   0.288   6.093 -0.3253 -0.5543 -0.0000
55750SOL    HW274491  12.608   0.277   5.998 -0.2917 -0.0229 -0.1056
55751SOL     OW74492  10.174   5.710   4.120  0.1202 -0.3128  0.2125
55751SOL    HW174493  10.124   5.629   4.109 -0.5997 -0.0167  1.1009
55751SOL    HW274494  10.144   5.766   4.049  1.6448 -1.2728 -1.2705
55752SOL     OW74495   9.463   7.591   4.405  0.1967 -0.6592 -0.2476
55752SOL    HW174496   9.461   7.583   4.309  0.8009  0.1136 -0.3381
55752SOL    HW274497   9.554   7.609   4.425 -0.1105  0.2399  0.3842
55753SOL     OW74498   6.471   3.783  11.327  0.0805 -0.2417 -0.5021
55753SOL    HW174499   6.540   3.821  11.382  0.2644 -1.4493  0.1401
55753SOL    HW274500   6.400   3.763  11.387 -0.0724 -0.7445 -0.8375
55754SOL     OW74501   5.475  10.446  10.454 -0.2054 -0.5503 -0.0025
55754SOL    HW174502   5.437  10.512  10.512 -1.1590 -0.2819 -0.9155
55754SOL    HW274503   5.538  10.399  10.509  2.5003  2.7742  0.1057
55755SOL     OW74504  11.485  11.529   6.356  0.0858 -0.0700  0.1211
55755SOL    HW174505  11.493  11.435   6.341  0.0301  0.0547 -0.6883
55755SOL    HW274506  11.575  11.561   6.360  0.1142  0.1569 -1.6494
55756SOL     OW74507   8.465  10.020   5.892  0.3572 -0.2392  0.0199
55756SOL    HW174508   8.390  10.036   5.834  1.2687  1.2719 -0.8000
55756SOL    HW274509   8.522   9.962   5.841 -0.0265 -1.0483  0.4810
55757SOL     OW74510   9.682   4.092  12.529 -0.1609 -0.1958  0.0439
55757SOL    HW174511   9.630   4.129  12.600  0.6896  2.0820 -0.4041
55757SOL    HW274512   9.619   4.071  12.461 -0.9027 -1.6706  1.1484
55758SOL     OW74513   5.380   2.369   1.599 -0.6589  0.3213  0.1967
55758SOL    HW174514   5.321   2.297   1.580 -0.3752  0.4952 -1.4348
55758SOL    HW274515   5.322   2.439   1.631 -1.2519  0.2136 -0.6086
55759SOL     OW74516   8.607   2.791   7.686 -0.0998 -0.6396 -0.0109
55759SOL    HW174517   8.525   2.839   7.680 -0.6773 -1.3367  1.6210
55759SOL    HW274518   8.669   2.843   7.635 -1.2003  0.6745 -0.0751
55760SOL     OW74519  11.917   5.154   6.111 -0.4091  0.0469  0.0698
55760SOL    HW174520  11.966   5.073   6.097 -2.5574 -1.5626  1.1844
55760SOL    HW274521  11.980   5.224   6.095  1.6594 -1.8440 -0.4935
55761SOL     OW74522   0.415   3.246   8.104 -0.3277  0.0192  0.1263
55761SOL    HW174523   0.344   3.278   8.049 -0.4529 -0.2173  0.1478
55761SOL    HW274524   0.470   3.194   8.044 -0.7552 -0.6850  0.3278
55762SOL     OW74525   5.856   7.597   4.720 -0.2516 -0.0516  0.0362
55762SOL    HW174526   5.780   7.587   4.663  1.1786  1.1158 -2.2730
55762SOL    HW274527   5.824   7.649   4.794 -1.8640 -0.3364 -0.4175
55763SOL     OW74528  12.265   3.860   4.667 -0.6010 -0.2872  0.0762
55763SOL    HW174529  12.286   3.778   4.621 -0.6917 -0.4930  0.3997
55763SOL    HW274530  12.282   3.840   4.759 -2.2612 -0.4825  0.3632
55764SOL     OW74531   4.761   0.224   2.812 -0.3875 -0.0526 -0.1335
55764SOL    HW174532   4.720   0.252   2.893 -1.9609 -1.3479 -0.4300
55764SOL    HW274533   4.728   0.135   2.798  0.9652 -0.3894 -1.4611
55765SOL     OW74534   4.740  12.393   8.079  0.7449  0.2208 -0.0014
55765SOL    HW174535   4.674  12.418   8.015  0.4846  1.0502  0.5638
55765SOL    HW274536   4.822  12.391   8.030  0.2262 -1.4928 -0.8631
55766SOL     OW74537   2.920   2.059   1.941  0.1812  0.2912 -0.1505
55766SOL    HW174538   2.886   2.006   2.013  1.0195  0.2055  0.1971
55766SOL    HW274539   3.015   2.042   1.941  0.1657  0.1116 -1.4182
55767SOL     OW74540   8.309   5.567   8.662 -0.2547  0.1080  0.9330
55767SOL    HW174541   8.236   5.624   8.638 -0.0945  0.2287  0.7240
55767SOL    HW274542   8.292   5.486   8.614 -1.1448 -0.4889  2.1945
55768SOL     OW74543   4.550   1.882   6.276 -0.0035  1.0639 -0.4218
55768SOL    HW174544   4.605   1.834   6.339  2.5381  2.1321 -1.6658
55768SOL    HW274545   4.483   1.924   6.330 -2.1184 -3.3118  0.7847
55769SOL     OW74546   5.803  10.080   6.223 -0.7022 -0.0936 -0.4626
55769SOL    HW174547   5.732  10.138   6.249 -0.9544 -0.5146 -0.2024
55769SOL    HW274548   5.833  10.115   6.139 -2.0652 -0.6546 -1.2073
55770SOL     OW74549   6.320   6.182   5.558 -0.6056  0.2076 -0.3210
55770SOL    HW174550   6.387   6.114   5.558  0.2819  1.0567 -1.3321
55770SOL    HW274551   6.339   6.235   5.635 -0.9025 -0.2736  0.0981
55771SOL     OW74552   6.147   6.000   0.928  0.8429 -0.1572  0.0256
55771SOL    HW174553   6.229   6.009   0.879  1.6914 -1.4164  1.1285
55771SOL    HW274554   6.175   5.993   1.020 -0.6256  1.1430  0.6188
55772SOL     OW74555  12.267   5.048   8.466 -0.1620 -0.6406 -0.3984
55772SOL    HW174556  12.297   5.124   8.417  1.0369 -0.4500  0.5958
55772SOL    HW274557  12.242   5.083   8.551 -1.5131 -1.0812 -0.5868
55773SOL     OW74558   7.003  10.770  11.619 -0.0578  0.0164 -0.2381
55773SOL    HW174559   6.929  10.711  11.633 -0.0457  0.1674  0.5285
55773SOL    HW274560   6.963  10.853  11.592 -0.1566  0.0306 -0.0493
55774SOL     OW74561   5.980  10.311   5.362  0.0703 -0.2472 -0.8732
55774SOL    HW174562   6.008  10.220   5.353  0.9554  0.1549 -2.5490
55774SOL    HW274563   5.917  10.323   5.290 -0.7026  0.2354 -0.1284
55775SOL     OW74564  11.504   7.692  12.111 -0.4359  0.4205  0.1113
55775SOL    HW174565  11.409   7.691  12.100 -0.2994  0.2569 -1.1529
55775SOL    HW274566  11.531   7.778  12.081 -0.2171  0.6476  0.9202
55776SOL     OW74567  11.832  10.970   1.292  0.5634  0.4587 -0.4768
55776SOL    HW174568  11.742  10.980   1.261 -0.1721  1.0681  1.6763
55776SOL    HW274569  11.848  11.047   1.347  2.0714 -0.0942 -0.0682
55777SOL     OW74570   9.074   5.344   6.540 -0.3912 -0.0925  0.2023
55777SOL    HW174571   9.145   5.330   6.477 -0.7618 -1.5744  0.0582
55777SOL    HW274572   8.997   5.362   6.486 -0.4192  0.0255  0.2831
55778SOL     OW74573   1.725   7.065  11.866  0.5380 -0.1217  0.3418
55778SOL    HW174574   1.714   7.155  11.835  0.6969 -0.3283 -0.3236
55778SOL    HW274575   1.661   7.056  11.936 -0.9174 -0.1199 -0.9431
55779SOL     OW74576   4.807  10.842   6.640 -0.0416  0.3401  0.1737
55779SOL    HW174577   4.832  10.809   6.726  2.4285  1.1601 -0.1454
55779SOL    HW274578   4.733  10.900   6.657 -0.1705 -0.2053  1.6185
55780SOL     OW74579   2.680   0.350   8.683  0.4842 -0.0048 -0.4206
55780SOL    HW174580   2.606   0.327   8.739 -1.0093 -0.7703 -2.5837
55780SOL    HW274581   2.671   0.444   8.669 -1.7985 -0.4652 -2.8264
55781SOL     OW74582   6.762   1.353   2.963 -0.4528  0.2283 -0.1661
55781SOL    HW174583   6.743   1.316   2.877  2.6171 -0.3538 -0.7311
55781SOL    HW274584   6.751   1.280   3.024 -1.0232  0.2002 -0.3050
55782SOL     OW74585   7.066   6.847   8.292  0.6346 -0.5524  0.0618
55782SOL    HW174586   7.148   6.819   8.253  1.3439 -0.9954  1.7838
55782SOL    HW274587   7.010   6.869   8.218  2.2175 -0.4704 -1.1489
55783SOL     OW74588  10.769   1.904  11.794  0.6940  0.0125 -0.0149
55783SOL    HW174589  10.809   1.860  11.869 -1.1069 -0.6992  0.5968
55783SOL    HW274590  10.765   1.996  11.819 -0.8269 -0.3614  1.2576
55784SOL     OW74591   4.523   5.091   3.713 -0.1087 -0.6536  0.6460
55784SOL    HW174592   4.446   5.096   3.770 -0.6194  1.3786 -0.1273
55784SOL    HW274593   4.487   5.094   3.625  0.8251 -0.4051  0.2626
55785SOL     OW74594   0.442   7.567   0.595  0.1716  0.1735 -0.4367
55785SOL    HW174595   0.408   7.655   0.611  0.4490 -0.0481  1.5768
55785SOL    HW274596   0.531   7.569   0.629  0.2791 -0.8194 -0.6207
55786SOL     OW74597   3.954   5.431   9.053  0.4617 -0.2780  0.3949
55786SOL    HW174598   3.945   5.484   9.132 -2.9119 -1.8136  1.2254
55786SOL    HW274599   4.002   5.353   9.081 -0.8494 -0.8825  1.0368
55787SOL     OW74600   0.718   9.500   9.115  0.2421 -0.0734  0.7299
55787SOL    HW174601   0.807   9.483   9.085 -1.2889 -2.4722 -3.2672
55787SOL    HW274602   0.682   9.560   9.051 -2.1318 -2.3994 -0.3196
55788SOL     OW74603   0.713   7.890   4.705 -0.1553 -0.1303 -0.3683
55788SOL    HW174604   0.783   7.825   4.697  0.8972  1.1444 -2.1639
55788SOL    HW274605   0.636   7.848   4.667  0.2691 -0.6553 -0.6521
55789SOL     OW74606   4.804   7.795   5.274 -0.4740 -0.1928 -0.5914
55789SOL    HW174607   4.794   7.766   5.365 -0.3786 -1.1495 -0.8742
55789SOL    HW274608   4.716   7.818   5.246 -0.6715 -0.9025 -0.5739
55790SOL     OW74609   6.422   7.434   6.277  0.4867  0.7416 -0.8384
55790SOL    HW174610   6.475   7.435   6.356 -0.5340 -1.6636 -0.0440
55790SOL    HW274611   6.339   7.475   6.303  0.1133 -0.1421 -0.6074
55791SOL     OW74612   0.051  10.403   2.908  0.5504 -0.6431  0.7149
55791SOL    HW174613   0.122  10.357   2.864  1.1306 -0.0081  0.9740
55791SOL    HW274614   0.019  10.340   2.973 -0.0977 -1.4620 -0.3677
55792SOL     OW74615  11.585   8.990   6.038 -0.1923 -0.3712  0.1834
55792SOL    HW174616  11.611   8.944   5.959  0.0939  0.5773 -0.2939
55792SOL    HW274617  11.665   9.034   6.067  0.1983 -2.1201  2.0370
55793SOL     OW74618   2.147   7.338   4.529  0.0347 -0.1414  0.2032
55793SOL    HW174619   2.076   7.355   4.467 -2.1807 -0.5549  2.5057
55793SOL    HW274620   2.207   7.281   4.480 -1.1094  0.3270 -1.8684
55794SOL     OW74621   1.943   7.558   2.768  0.2120 -0.2487  0.1704
55794SOL    HW174622   1.881   7.629   2.780  1.1310  1.0942 -2.3306
55794SOL    HW274623   2.013   7.596   2.715  1.6072 -2.5643  0.2156
55795SOL     OW74624  11.773  12.208   1.454  0.3427  0.1424  0.1112
55795SOL    HW174625  11.712  12.270   1.493 -2.3850 -2.2758  0.0270
55795SOL    HW274626  11.814  12.164   1.528  1.2285  0.9854  0.1549
55796SOL     OW74627   9.894   8.005   0.210  0.1505 -0.4630  0.5483
55796SOL    HW174628   9.826   7.941   0.190 -2.2836  1.4924  2.0038
55796SOL    HW274629   9.952   7.959   0.271  0.2340 -2.1791 -0.7302
55797SOL     OW74630  12.497   9.452   3.066 -0.2707 -0.0467  0.2190
55797SOL    HW174631  12.413   9.498   3.071 -0.1713  0.5017 -1.9726
55797SOL    HW274632  12.561   9.516   3.099 -0.5322  0.1592  0.3316
55798SOL     OW74633   1.856   9.819   5.895  0.2731 -0.0043  0.0718
55798SOL    HW174634   1.843   9.817   5.800 -0.8281  0.0858  0.2169
55798SOL    HW274635   1.768   9.819   5.932  0.6312 -2.4684  1.1485
55799SOL     OW74636   1.853   8.899   5.655  0.0554  0.7928  0.0898
55799SOL    HW174637   1.758   8.906   5.663  0.2490  1.9870  1.8835
55799SOL    HW274638   1.878   8.973   5.599 -0.1136 -0.0789 -1.1962
55800SOL     OW74639   5.642   3.653  11.475 -0.1407  0.5126  0.7784
55800SOL    HW174640   5.583   3.650  11.550 -0.5472  0.3158  0.4521
55800SOL    HW274641   5.651   3.562  11.447 -0.8117  0.6871 -0.0393
55801SOL     OW74642   3.510   4.140  11.610  0.1292  0.2536 -0.1578
55801SOL    HW174643   3.424   4.180  11.600  0.7743  1.6953 -0.1615
55801SOL    HW274644   3.522   4.133  11.705  1.2510  2.9886 -0.0077
55802SOL     OW74645  10.215   5.171   4.862 -0.7298  0.7154 -0.0818
55802SOL    HW174646  10.170   5.216   4.934 -0.2119  0.6468  0.2881
55802SOL    HW274647  10.237   5.085   4.897 -1.0824  0.4258 -0.5555
55803SOL     OW74648   9.232  10.637   4.619 -0.4110  0.4815  0.1532
55803SOL    HW174649   9.172  10.591   4.677 -0.5698 -0.6751 -0.8978
55803SOL    HW274650   9.238  10.582   4.542 -0.2455  2.0119 -0.9700
55804SOL     OW74651   0.940   0.276   1.372 -0.2394  0.2883 -0.3936
55804SOL    HW174652   1.028   0.239   1.363 -0.3415 -0.2401  0.6575
55804SOL    HW274653   0.881   0.204   1.351 -0.4353  0.6625 -1.1693
55805SOL     OW74654   4.528   8.042   9.219  0.1091  0.5982 -0.0298
55805SOL    HW174655   4.525   8.029   9.314 -0.2205 -0.9902 -0.2305
55805SOL    HW274656   4.450   8.095   9.200  0.8695  2.0544  0.7061
55806SOL     OW74657   3.948   2.730  10.366 -0.3656  0.5907 -0.0269
55806SOL    HW174658   4.024   2.787  10.364 -1.1696  1.6757 -0.8728
55806SOL    HW274659   3.916   2.736  10.457 -0.3688  1.3993 -0.0720
55807SOL     OW74660   0.125   9.431   1.612  0.1946  0.6484  0.3365
55807SOL    HW174661   0.144   9.427   1.518  0.8567 -4.6180  0.3957
55807SOL    HW274662   0.211   9.428   1.654 -0.1511  0.1704  1.0356
55808SOL     OW74663   3.070   8.216  11.760 -0.0890  0.0416  0.1637
55808SOL    HW174664   2.995   8.267  11.727  0.6592  2.5450  2.0300
55808SOL    HW274665   3.063   8.221  11.855  2.2093 -0.0100  0.3883
55809SOL     OW74666   0.047  10.234   9.789 -0.2023 -1.0683 -0.1883
55809SOL    HW174667   0.100  10.277   9.856 -1.3306 -1.5878  1.0817
55809SOL    HW274668   0.107  10.222   9.715  0.7786  0.4925  0.3046
55810SOL     OW74669   0.135   5.613  12.515  0.4291  0.4741 -0.1843
55810SOL    HW174670   0.049   5.588  12.548 -0.2551  1.3585 -1.2135
55810SOL    HW274671   0.150   5.700  12.553  1.1023  0.1133  0.3899
55811SOL     OW74672  11.141   2.798   6.864  0.3447  0.3447 -0.3306
55811SOL    HW174673  11.119   2.707   6.842  0.8020 -0.1850  1.2676
55811SOL    HW274674  11.237   2.800   6.858  0.3083  0.8710 -0.8223
55812SOL     OW74675   1.410   4.245  11.057 -0.4119  0.0254  0.8708
55812SOL    HW174676   1.343   4.298  11.102  0.2082 -0.5718  2.5989
55812SOL    HW274677   1.408   4.161  11.102  1.4404 -0.0315  0.9196
55813SOL     OW74678   6.593  11.963   8.456  0.0964  0.3176 -0.6015
55813SOL    HW174679   6.668  11.905   8.442 -1.2254 -1.3948 -0.8895
55813SOL    HW274680   6.612  12.007   8.539  2.5393  1.8069 -1.8316
55814SOL     OW74681   3.755  12.059   8.062  0.0507 -0.0881 -0.7601
55814SOL    HW174682   3.677  12.003   8.064  0.4826 -0.6874 -0.2223
55814SOL    HW274683   3.756  12.094   7.973 -2.3927  2.2367 -0.0343
55815SOL     OW74684   5.994   0.321  11.712 -0.5579 -0.8251 -0.4274
55815SOL    HW174685   5.907   0.361  11.712  0.2699  1.1414  1.0269
55815SOL    HW274686   6.054   0.394  11.729  1.1408 -2.5200  1.3056
55816SOL     OW74687   7.433   6.353   2.701 -0.3001  0.1108 -0.5817
55816SOL    HW174688   7.375   6.278   2.696  1.5909 -1.4347 -0.6402
55816SOL    HW274689   7.460   6.370   2.611  0.4016 -0.0793 -0.4132
55817SOL     OW74690   3.839   0.858   3.663 -0.1231  0.1113  0.3565
55817SOL    HW174691   3.918   0.839   3.611  0.3351  0.4140  0.9305
55817SOL    HW274692   3.808   0.942   3.630  0.8924  0.9240  1.4138
55818SOL     OW74693   5.187   1.498   0.778  0.7295 -0.2261 -0.3772
55818SOL    HW174694   5.270   1.453   0.793  1.4244  1.0864 -0.1584
55818SOL    HW274695   5.210   1.591   0.777 -0.6981  0.1435 -0.6021
55819SOL     OW74696   3.821   9.908   1.452 -0.0203 -0.1730  0.0611
55819SOL    HW174697   3.818   9.997   1.418  0.5608 -0.4489 -0.7437
55819SOL    HW274698   3.790   9.916   1.542  0.2075  0.8679  0.0624
55820SOL     OW74699   7.083   3.203   8.533  0.0502 -0.0350  0.2773
55820SOL    HW174700   7.025   3.246   8.595 -0.6174  0.6755 -0.8208
55820SOL    HW274701   7.044   3.219   8.447  1.7529  0.2859 -0.4778
55821SOL     OW74702  12.508  10.194   4.756 -0.5731  0.4617  0.2620
55821SOL    HW174703  12.534  10.177   4.847  0.8665 -1.0685 -0.3827
55821SOL    HW274704  12.416  10.169   4.753 -0.7049  0.7584  1.3520
55822SOL     OW74705   4.800   1.729  11.824 -0.1450 -0.3259  0.0688
55822SOL    HW174706   4.801   1.636  11.804  0.2573 -0.4174  0.5223
55822SOL    HW274707   4.823   1.772  11.741 -0.2603 -0.6296 -0.1197
55823SOL     OW74708   9.532   8.835   5.812  0.6368  0.4771 -0.3927
55823SOL    HW174709   9.588   8.772   5.857  0.4713 -0.0202 -0.8823
55823SOL    HW274710   9.574   8.848   5.727  0.6326  0.9790 -0.3257
55824SOL     OW74711  11.017  12.150   2.185  0.3771 -0.8103 -0.2250
55824SOL    HW174712  10.994  12.233   2.143 -1.0024 -2.1641 -2.3279
55824SOL    HW274713  11.061  12.175   2.266 -2.7069  1.9836  0.7792
55825SOL     OW74714   0.445  10.971   3.100  0.1091  0.3339  0.3987
55825SOL    HW174715   0.356  10.949   3.124  0.0519 -1.6166 -1.3222
55825SOL    HW274716   0.440  11.061   3.068 -0.4202  1.7205  3.9331
55826SOL     OW74717  11.336  10.360   8.280 -0.3737  0.8153 -0.4720
55826SOL    HW174718  11.413  10.406   8.312  0.3651  0.6222 -1.8733
55826SOL    HW274719  11.355  10.267   8.296 -1.1832  0.8584  0.9288
55827SOL     OW74720  11.307  10.225   4.797  0.1412 -0.3285 -0.1893
55827SOL    HW174721  11.258  10.215   4.879  0.5884  0.1901  0.1474
55827SOL    HW274722  11.381  10.282   4.820 -1.6276  2.8161 -1.7262
55828SOL     OW74723  11.657   0.407   5.103  0.1228 -0.5226 -0.2586
55828SOL    HW174724  11.578   0.408   5.048  0.9964 -0.3004 -1.5338
55828SOL    HW274725  11.652   0.323   5.150 -1.0733 -0.3301  0.0074
55829SOL     OW74726   5.399   7.786   6.354 -0.1787  0.7908 -0.4451
55829SOL    HW174727   5.426   7.801   6.263 -0.0191  1.3168 -0.3126
55829SOL    HW274728   5.326   7.723   6.347  1.0619 -0.6649 -0.7948
55830SOL     OW74729  11.828  11.535   7.346 -0.0867  0.5749 -0.5890
55830SOL    HW174730  11.778  11.558   7.267 -0.3925  0.3682 -0.4596
55830SOL    HW274731  11.784  11.583   7.416  0.5344  1.2160 -0.6206
55831SOL     OW74732   0.842  12.570   5.344  0.1957 -0.0772  0.1053
55831SOL    HW174733   0.794  12.518   5.280  0.6807 -0.1517 -0.2028
55831SOL    HW274734   0.823  12.661   5.321  0.6174 -0.0978 -0.3427
55832SOL     OW74735   6.537   8.325   2.242  0.4617 -0.1937 -0.1549
55832SOL    HW174736   6.629   8.349   2.252  0.3401  0.4396 -0.4702
55832SOL    HW274737   6.490   8.409   2.243  0.1370 -0.2578 -2.5784
55833SOL     OW74738   1.949  12.189  10.453  0.8969 -0.6309 -0.2672
55833SOL    HW174739   2.008  12.250  10.498  1.0615 -1.2846  0.4313
55833SOL    HW274740   1.980  12.102  10.479 -2.0857 -1.0385  2.5696
55834SOL     OW74741   6.238   4.454  12.671 -0.0797 -0.4262  0.0605
55834SOL    HW174742   6.199   4.539  12.692 -2.4116 -1.0007 -1.5031
55834SOL    HW274743   6.216   4.399  12.747 -0.5872 -0.2065  0.0823
55835SOL     OW74744   5.625  10.939  11.697 -0.0057  0.7322  0.3768
55835SOL    HW174745   5.700  10.993  11.724 -0.1693  0.2657  1.8992
55835SOL    HW274746   5.646  10.909  11.609  1.3303  1.0870  0.5576
55836SOL     OW74747   2.284   1.025   1.010  0.4926 -0.1477 -0.0700
55836SOL    HW174748   2.216   1.087   0.983 -0.2947 -0.1357  1.7711
55836SOL    HW274749   2.361   1.049   0.958 -0.4671  0.8366 -1.0804
55837SOL     OW74750   8.439   0.790   2.829  0.1591  0.5238  0.0538
55837SOL    HW174751   8.530   0.820   2.828 -0.0888  1.2897 -0.6467
55837SOL    HW274752   8.388   0.870   2.839 -0.4392  0.0821  0.6134
55838SOL     OW74753   8.965   7.401  10.409 -0.2128  0.5400  0.1723
55838SOL    HW174754   9.046   7.439  10.444 -0.5114  0.3493  1.0969
55838SOL    HW274755   8.895   7.445  10.457 -0.6515  0.4960 -0.4172
55839SOL     OW74756   0.575   4.393   9.080  0.0261 -0.0678  0.7748
55839SOL    HW174757   0.614   4.389   9.167  1.3429 -0.9906  0.1723
55839SOL    HW274758   0.525   4.312   9.072 -1.4469  0.7482  1.2428
55840SOL     OW74759  10.519   5.554  10.181  0.2004  0.3835  0.6419
55840SOL    HW174760  10.599   5.502  10.192 -0.1404 -0.2737  0.0800
55840SOL    HW274761  10.471   5.542  10.263  1.9193  3.0639  2.2091
55841SOL     OW74762   3.815   0.519   6.088 -0.0096 -0.0856  0.0138
55841SOL    HW174763   3.874   0.453   6.052 -0.1553 -0.6175  0.7268
55841SOL    HW274764   3.754   0.469   6.142 -1.1892  0.4374 -0.7949
55842SOL     OW74765   0.912  10.400  12.527 -0.2828  0.1147 -0.2927
55842SOL    HW174766   0.864  10.350  12.593 -0.1987 -0.4819 -0.6758
55842SOL    HW274767   0.873  10.487  12.530 -0.0691  0.1826  0.7528
55843SOL     OW74768   2.035   9.122  10.070  0.8437  0.0498  0.3179
55843SOL    HW174769   1.957   9.096  10.022  0.4333 -0.7962  1.4053
55843SOL    HW274770   2.047   9.214  10.047 -1.3720  0.6535  1.2960
55844SOL     OW74771   2.561  10.922   5.794 -0.1789 -0.1986  0.6714
55844SOL    HW174772   2.629  10.986   5.816  0.5874 -0.5224 -0.6425
55844SOL    HW274773   2.579  10.848   5.851 -0.5227  0.3800  1.5670
55845SOL     OW74774   6.715  11.551   5.111  0.2727  0.0274 -0.4178
55845SOL    HW174775   6.773  11.586   5.180  1.1776  0.8212 -1.5431
55845SOL    HW274776   6.775  11.520   5.043 -0.6184  0.0865 -1.2520
55846SOL     OW74777   2.672   4.897   2.857 -0.0464  0.4258  0.1997
55846SOL    HW174778   2.697   4.806   2.872  1.3013  0.9360  1.2967
55846SOL    HW274779   2.616   4.894   2.779 -1.6403 -1.5595  1.3168
55847SOL     OW74780   4.198   1.451   3.184 -0.1156 -0.2412  0.4069
55847SOL    HW174781   4.279   1.430   3.230 -0.9833  0.7523  2.4954
55847SOL    HW274782   4.199   1.546   3.176 -1.2842 -0.1738  0.8847
55848SOL     OW74783   4.487   8.436  11.857  0.0616 -0.1699  0.0780
55848SOL    HW174784   4.554   8.499  11.883  1.3509 -0.7878 -1.5403
55848SOL    HW274785   4.467   8.388  11.937  0.1959  1.2264  0.9869
55849SOL     OW74786   6.553   9.138   3.389 -0.4137  0.0086  0.1033
55849SOL    HW174787   6.635   9.099   3.357  0.5616  0.4894  1.8942
55849SOL    HW274788   6.505   9.065   3.427 -0.0894 -0.0068  0.4849
55850SOL     OW74789   5.440  12.314   8.754 -0.7859  0.1666  0.7750
55850SOL    HW174790   5.526  12.287   8.784 -0.7853 -0.2649  0.3813
55850SOL    HW274791   5.385  12.311   8.833 -0.6389 -0.3652  0.8581
55851SOL     OW74792   2.491  10.669  11.039 -0.4417 -0.1629  0.5380
55851SOL    HW174793   2.450  10.709  10.962  2.0090  0.8446 -0.3540
55851SOL    HW274794   2.479  10.735  11.109  0.8036  0.7799 -0.0925
55852SOL     OW74795   2.962   7.656   8.220 -0.4497 -0.4347 -0.4356
55852SOL    HW174796   3.034   7.649   8.282 -0.8493 -1.4613 -0.0581
55852SOL    HW274797   2.978   7.586   8.156 -1.1663 -0.7568 -0.2741
55853SOL     OW74798   0.058  10.619   5.323  0.0145 -0.2539  0.1470
55853SOL    HW174799  -0.023  10.663   5.348  1.6897  3.0559  0.1910
55853SOL    HW274800   0.043  10.589   5.234 -1.6657 -0.8848  0.6093
55854SOL     OW74801   8.668   3.105   9.204 -0.2970 -0.4496 -0.1746
55854SOL    HW174802   8.701   3.093   9.116  1.5448  0.0431  0.4034
55854SOL    HW274803   8.643   3.197   9.208 -4.2397 -1.2894 -1.3348
55855SOL     OW74804   0.409   0.759   5.982  0.1990  0.0263 -0.1550
55855SOL    HW174805   0.489   0.707   5.972 -0.1520 -0.3525 -1.2369
55855SOL    HW274806   0.406   0.813   5.903 -1.3003 -0.9608 -0.8248
55856SOL     OW74807  11.438   6.341  10.289  0.3356 -0.3784 -0.3583
55856SOL    HW174808  11.511   6.321  10.230  1.0044 -0.3755  0.4449
55856SOL    HW274809  11.424   6.435  10.279  0.8415 -0.2706 -0.0791
55857SOL     OW74810   9.939   7.517   3.530 -0.4744 -0.2218  0.0995
55857SOL    HW174811   9.994   7.473   3.465  1.6990  1.0716  0.9783
55857SOL    HW274812   9.984   7.600   3.548 -3.2508  1.4217  0.1446
55858SOL     OW74813  11.098   7.057   6.416  0.1078  0.7983 -0.0858
55858SOL    HW174814  11.162   7.128   6.423  1.0512  0.0705 -1.0401
55858SOL    HW274815  11.151   6.978   6.406 -0.8875  0.3365 -2.3952
55859SOL     OW74816   4.588   9.832  11.783  0.3203 -0.4513 -0.5816
55859SOL    HW174817   4.494   9.849  11.773  0.5152  0.8225 -0.4364
55859SOL    HW274818   4.626   9.859  11.700  0.8545  1.6257  0.2679
55860SOL     OW74819   3.444  11.172   3.525  0.3674 -0.1069 -0.0861
55860SOL    HW174820   3.540  11.171   3.530  0.3765  1.0698  0.3944
55860SOL    HW274821   3.423  11.265   3.511 -0.6727 -0.4527 -0.9433
55861SOL     OW74822   9.534   2.276   6.125 -0.5841  0.2145 -0.2585
55861SOL    HW174823   9.615   2.319   6.097 -0.1660  0.9991  1.9285
55861SOL    HW274824   9.529   2.196   6.072  2.7352 -0.9446  0.9209
55862SOL     OW74825   0.736   7.030   1.871  0.4213  0.2593  0.1482
55862SOL    HW174826   0.813   7.050   1.925  0.7507 -0.6612  0.0466
55862SOL    HW274827   0.765   7.045   1.781  0.9383 -1.3920  0.0088
55863SOL     OW74828   2.972   4.451   6.509 -0.2175 -0.3047 -0.3496
55863SOL    HW174829   2.882   4.483   6.509 -0.0484  0.1810 -0.6917
55863SOL    HW274830   3.018   4.508   6.571  0.3653  0.9585 -1.8907
55864SOL     OW74831  10.336   2.605  10.745  0.1940  0.7151  0.1606
55864SOL    HW174832  10.339   2.512  10.766  1.1592  0.7601  0.2911
55864SOL    HW274833  10.345   2.609  10.650 -1.0760  0.6358  0.0250
55865SOL     OW74834  10.990   4.793   3.967 -0.0246  0.0198  0.6098
55865SOL    HW174835  11.078   4.755   3.960 -0.7129 -1.3877 -1.1173
55865SOL    HW274836  10.935   4.719   3.994 -1.3017 -0.1611 -2.2228
55866SOL     OW74837   3.622   9.153  10.504  0.0505 -0.2610 -0.1011
55866SOL    HW174838   3.535   9.151  10.463 -0.7277 -1.1516  1.5066
55866SOL    HW274839   3.682   9.176  10.433 -1.6307  1.6121 -1.0039
55867SOL     OW74840   8.582   0.277  10.245 -0.0242 -0.4127  0.0298
55867SOL    HW174841   8.542   0.318  10.322 -0.8448 -0.0411 -0.5909
55867SOL    HW274842   8.676   0.283  10.262  0.1523  4.3376 -1.2685
55868SOL     OW74843  10.324   3.234   2.578  0.2855 -0.1659 -0.8386
55868SOL    HW174844  10.362   3.189   2.653  1.7423 -1.2834 -2.1873
55868SOL    HW274845  10.357   3.186   2.501  0.5363  2.1558 -2.2862
55869SOL     OW74846  12.472   0.072   8.818 -0.1559 -0.0207  0.0640
55869SOL    HW174847  12.472   0.115   8.904  0.1874  0.6465 -0.2558
55869SOL    HW274848  12.482   0.144   8.756 -1.1737 -0.4217 -0.5828
55870SOL     OW74849  11.316   5.937   4.989  0.3075 -0.4206 -0.5078
55870SOL    HW174850  11.356   5.883   4.921  2.1822  0.1191  0.1306
55870SOL    HW274851  11.384   5.947   5.055 -0.7331  0.9402  0.3956
55871SOL     OW74852  10.282  12.420   3.104 -0.0124  0.3106 -0.1599
55871SOL    HW174853  10.246  12.479   3.038  1.7474  1.8609  0.1720
55871SOL    HW274854  10.209  12.364   3.129 -1.2171  0.9668 -2.0089
55872SOL     OW74855   8.085   7.110  11.132  0.3994 -0.0220  0.1007
55872SOL    HW174856   7.991   7.127  11.123  0.6254  1.4718  0.2694
55872SOL    HW274857   8.127   7.189  11.097  1.5691 -0.1657  1.1168
55873SOL     OW74858  11.740  11.351   5.454  0.1042 -0.4341 -0.3517
55873SOL    HW174859  11.725  11.387   5.367 -0.7079 -0.8683 -0.3910
55873SOL    HW274860  11.821  11.300   5.445  0.5209  0.2616 -0.6211
55874SOL     OW74861   0.085  10.593   1.269  0.2655  0.5316 -0.0456
55874SOL    HW174862  -0.008  10.606   1.250 -0.2817 -2.3149  0.1427
55874SOL    HW274863   0.129  10.608   1.186 -0.3798  1.7138 -0.1852
55875SOL     OW74864   6.809   0.638   5.851  0.3031  0.3054 -0.0580
55875SOL    HW174865   6.800   0.543   5.837 -1.6962  0.5684 -0.9784
55875SOL    HW274866   6.820   0.647   5.946 -0.4322 -0.8102  0.1548
55876SOL     OW74867   8.266   9.333   9.148  0.1668 -0.4254  0.3257
55876SOL    HW174868   8.262   9.260   9.086 -0.7751 -0.0386 -0.0879
55876SOL    HW274869   8.284   9.292   9.233  0.3353 -1.0666 -0.0155
55877SOL     OW74870   9.197   4.904   8.111 -0.0023  0.3316  0.7363
55877SOL    HW174871   9.254   4.842   8.156 -0.7229 -0.8697  0.0418
55877SOL    HW274872   9.133   4.929   8.178  1.1417  1.4836  1.4399
55878SOL     OW74873   7.093   4.088  11.000  0.2064 -0.2267  0.1638
55878SOL    HW174874   7.171   4.036  11.021 -1.2204 -2.1911  0.8661
55878SOL    HW274875   7.053   4.040  10.927  1.0147  2.2659 -2.0736
55879SOL     OW74876  10.380   7.390   5.847 -0.0722 -0.1467  0.8677
55879SOL    HW174877  10.469   7.398   5.880  0.0001 -1.0303  0.9089
55879SOL    HW274878  10.377   7.303   5.807 -1.5474 -1.0797  2.8225
55880SOL     OW74879   0.133   7.570   8.355 -0.2742  0.2058  0.1370
55880SOL    HW174880   0.077   7.646   8.374  0.6247  1.0708 -0.5980
55880SOL    HW274881   0.155   7.579   8.263 -0.2330 -1.0200  0.0154
55881SOL     OW74882   0.352   1.696  11.638 -0.1105 -0.2647  0.0773
55881SOL    HW174883   0.319   1.724  11.553  0.1723 -1.1946 -0.3542
55881SOL    HW274884   0.394   1.611  11.621  0.5572 -0.1396  1.0131
55882SOL     OW74885   4.108   1.499   1.183 -0.2737 -0.0676  0.1272
55882SOL    HW174886   4.180   1.531   1.129  0.7503  2.1301  2.6271
55882SOL    HW274887   4.149   1.470   1.264 -2.1070  0.6004  1.3573
55883SOL     OW74888   9.501   8.435   6.872 -0.2848 -0.2222 -0.1613
55883SOL    HW174889   9.423   8.470   6.828 -0.2276  1.3988  0.9463
55883SOL    HW274890   9.477   8.434   6.964  1.2349  0.9374  0.2696
55884SOL     OW74891   1.689   3.369  10.282  0.2988  0.2958  0.3217
55884SOL    HW174892   1.688   3.311  10.358 -0.8433 -0.5896 -0.3140
55884SOL    HW274893   1.762   3.337  10.228  0.2150 -0.0023  0.3836
55885SOL     OW74894   1.446   1.993   5.227 -0.5760 -1.0344 -0.3046
55885SOL    HW174895   1.371   2.041   5.193 -0.5976 -0.9075 -0.0760
55885SOL    HW274896   1.442   2.004   5.322  0.9207  0.7689 -0.3925
55886SOL     OW74897   5.809   3.155   0.929 -0.0016 -0.4672 -0.0428
55886SOL    HW174898   5.718   3.129   0.939 -0.0696 -1.7943 -2.9225
55886SOL    HW274899   5.858   3.073   0.936  1.3599  0.5064  3.8933
55887SOL     OW74900   6.142   5.112   4.448 -0.6388 -0.2329 -0.4203
55887SOL    HW174901   6.189   5.161   4.516 -0.5656  0.4520 -0.9598
55887SOL    HW274902   6.195   5.033   4.436  2.4026  1.9794 -3.3918
55888SOL     OW74903   5.513   7.949  11.440  0.2485  0.0941  1.1567
55888SOL    HW174904   5.497   7.879  11.503  0.4457 -0.7706  0.2805
55888SOL    HW274905   5.603   7.934  11.410  0.3468  0.8232  1.0804
55889SOL     OW74906   8.266   3.414   5.967 -0.6527  0.4032 -0.0912
55889SOL    HW174907   8.246   3.384   6.055  0.4260  2.1238  0.8170
55889SOL    HW274908   8.360   3.396   5.956 -0.3351  1.8898 -0.1046
55890SOL     OW74909  11.268   7.917   6.156  0.1980  0.1161 -0.0002
55890SOL    HW174910  11.280   8.011   6.163  0.0978  0.1218  0.0977
55890SOL    HW274911  11.186   7.906   6.107 -0.4861  0.0843  1.1314
55891SOL     OW74912   6.423  10.852   6.363 -0.0088 -0.0936 -0.0239
55891SOL    HW174913   6.357  10.823   6.300  0.4644 -0.7554 -0.2302
55891SOL    HW274914   6.503  10.859   6.312  0.7047 -1.9989  0.7225
55892SOL     OW74915   5.469   4.207  12.152  0.1947 -0.0789  0.0583
55892SOL    HW174916   5.399   4.192  12.089 -1.1653  3.6668  0.4427
55892SOL    HW274917   5.438   4.167  12.233 -1.1561  0.7655 -0.0167
55893SOL     OW74918   4.752   9.421  11.420 -0.5132  0.6240  0.3574
55893SOL    HW174919   4.824   9.481  11.438  0.8931 -1.0627  0.6934
55893SOL    HW274920   4.765   9.396  11.328 -1.3936  1.1764  0.0647
55894SOL     OW74921   4.473   0.464   9.242  0.4059 -0.9130  0.0764
55894SOL    HW174922   4.445   0.494   9.156 -1.6332 -0.9505  0.6735
55894SOL    HW274923   4.569   0.472   9.241  0.2997  0.6494 -1.5830
55895SOL     OW74924   8.689  10.782   2.800 -0.0451  0.0326 -0.2771
55895SOL    HW174925   8.717  10.691   2.811 -1.0182 -0.2105  0.2346
55895SOL    HW274926   8.766  10.834   2.825  0.6186 -0.6347 -0.8676
55896SOL     OW74927   8.717   9.721   2.095  0.4766  0.3671  0.3677
55896SOL    HW174928   8.638   9.766   2.123  0.0705  0.6827 -1.2079
55896SOL    HW274929   8.753   9.775   2.024  0.6015 -1.1509 -0.7903
55897SOL     OW74930   4.899   6.430  10.849  0.0604  0.0669 -0.4423
55897SOL    HW174931   4.930   6.371  10.917 -0.0443  1.1854  0.6082
55897SOL    HW274932   4.907   6.518  10.887 -1.5912  0.6044 -1.2079
55898SOL     OW74933   5.266   7.996   3.735  0.3735  0.2342 -0.7955
55898SOL    HW174934   5.217   7.917   3.759  0.5869  0.8633  1.9880
55898SOL    HW274935   5.200   8.065   3.732  0.7726  0.7734  1.3640
55899SOL     OW74936   9.010  11.734  12.352 -1.1306  0.0577  0.2003
55899SOL    HW174937   9.045  11.800  12.413 -0.2704 -0.2781  0.0839
55899SOL    HW274938   8.992  11.658  12.407  0.3455 -0.5046 -0.0529
55900SOL     OW74939  10.344   1.294  12.691 -0.4651  0.1016 -0.6824
55900SOL    HW174940  10.369   1.283  12.783  1.1479 -1.9593 -1.3108
55900SOL    HW274941  10.352   1.388  12.676 -0.5870  0.4640  1.2202
55901SOL     OW74942   3.110   8.933   7.893  0.5088 -0.0696 -0.1404
55901SOL    HW174943   3.152   8.866   7.839  2.0086 -0.9594  1.9998
55901SOL    HW274944   3.150   8.923   7.979 -0.9973  2.0042  0.8837
55902SOL     OW74945   1.128   6.405   9.593  0.3723 -0.1165  0.5265
55902SOL    HW174946   1.116   6.454   9.675  2.1783 -1.7387  1.8781
55902SOL    HW274947   1.145   6.472   9.527  2.2945  1.1522  2.1867
55903SOL     OW74948  11.318   1.427  10.660 -0.0207 -0.0849  0.2189
55903SOL    HW174949  11.274   1.496  10.610 -0.3974  0.2766  1.0278
55903SOL    HW274950  11.247   1.368  10.687  0.0212  0.3262  1.2596
55904SOL     OW74951   9.709   2.817  10.969 -0.6585 -0.1188  0.5204
55904SOL    HW174952   9.644   2.789  11.034 -1.0737 -0.2948  0.0322
55904SOL    HW274953   9.768   2.742  10.961 -1.3717 -0.6311 -0.2739
55905SOL     OW74954  11.778  12.499   8.171  0.2321 -0.1014  0.5970
55905SOL    HW174955  11.717  12.528   8.103 -0.7990 -1.5882  0.8348
55905SOL    HW274956  11.751  12.546   8.250 -1.0868 -1.2356  0.8596
55906SOL     OW74957   9.123   8.934   8.995  0.2938 -0.1694 -0.3044
55906SOL    HW174958   9.207   8.903   8.962  1.0174 -0.5591  1.7639
55906SOL    HW274959   9.064   8.859   8.985  0.4363 -0.1995 -0.9144
55907SOL     OW74960   3.002  10.088   5.479  0.1511 -0.3960  0.0162
55907SOL    HW174961   2.967  10.164   5.526  0.5944 -1.3814  2.0402
55907SOL    HW274962   2.928  10.029   5.471 -0.1916  0.1863 -1.5566
55908SOL     OW74963  12.526   0.106  10.952  0.2052 -0.0610  0.1658
55908SOL    HW174964  12.468   0.111  11.028 -0.2684 -0.8380 -0.1332
55908SOL    HW274965  12.611   0.134  10.986 -0.3004  0.9645  0.6416
55909SOL     OW74966   5.639   1.296  11.468 -0.2021  0.6095 -0.1611
55909SOL    HW174967   5.680   1.221  11.510 -1.5829 -0.3025 -0.3489
55909SOL    HW274968   5.568   1.257  11.415 -0.0204  1.9222 -1.4225
55910SOL     OW74969   4.145   6.854  11.505 -0.3257  0.2737 -0.3878
55910SOL    HW174970   4.207   6.812  11.564 -0.1373  0.7471 -0.2499
55910SOL    HW274971   4.068   6.871  11.559  0.0038  1.0905 -0.1649
55911SOL     OW74972   2.926  12.658   0.117  0.2379  0.2061  0.2664
55911SOL    HW174973   2.870  12.732   0.143  0.9758  0.2660  1.7924
55911SOL    HW274974   2.990  12.651   0.187  1.3686 -0.6843 -0.8133
55912SOL     OW74975   7.804   7.927   7.956  0.8654 -0.5498  0.2873
55912SOL    HW174976   7.785   8.020   7.971  0.7252 -0.5357  0.0281
55912SOL    HW274977   7.869   7.905   8.022 -0.2523 -0.6684  1.3643
55913SOL     OW74978  12.321   5.906   1.834  0.1521 -0.1407  0.2853
55913SOL    HW174979  12.365   5.906   1.919 -0.2464 -0.5849  0.4989
55913SOL    HW274980  12.375   5.847   1.780  0.0563 -0.3591  0.4242
55914SOL     OW74981   3.108   1.799  11.665 -0.3608 -0.4438  0.1332
55914SOL    HW174982   3.148   1.722  11.624  1.5953 -1.1925  3.0812
55914SOL    HW274983   3.045   1.763  11.727  0.0148  0.3361  0.9919
55915SOL     OW74984   6.453   8.742   1.405  0.4122 -0.1881 -0.2939
55915SOL    HW174985   6.427   8.687   1.478  0.7998  0.4436  0.3420
55915SOL    HW274986   6.427   8.831   1.432  1.7874  0.2482 -0.2964
55916SOL     OW74987   5.452   2.760   0.421 -1.0681 -0.4808 -0.6403
55916SOL    HW174988   5.461   2.698   0.494  0.8814 -1.1534 -1.3814
55916SOL    HW274989   5.441   2.845   0.464  0.0297 -0.8666  0.4830
55917SOL     OW74990   9.158   2.175  10.129  0.3629 -0.0632 -0.2728
55917SOL    HW174991   9.242   2.131  10.117  0.2908 -0.0156 -0.9680
55917SOL    HW274992   9.143   2.222  10.048 -0.2902  0.0094 -0.1199
55918SOL     OW74993   9.931   9.015   6.462  0.1169 -0.4384 -0.0184
55918SOL    HW174994   9.905   9.107   6.459  1.0915 -0.1698 -2.1784
55918SOL    HW274995   9.854   8.969   6.494 -0.3030  1.1412  1.3335
55919SOL     OW74996   9.348   8.770  10.731  0.3258  0.2286  0.2872
55919SOL    HW174997   9.255   8.752  10.745 -0.1550 -0.0222 -2.6149
55919SOL    HW274998   9.368   8.730  10.646  3.0700  0.3964  0.7645
55920SOL     OW74999   9.706   2.434   5.919 -0.2706  0.2136 -0.1009
55920SOL    HW175000   9.765   2.500   5.956  2.1616 -0.8335 -1.8131
55920SOL    HW275001   9.665   2.478   5.845  1.0006 -0.0001 -0.9633
55921SOL     OW75002   0.332   0.289   3.236  0.0567 -0.0518  0.1677
55921SOL    HW175003   0.244   0.313   3.210 -0.3017  0.6961  1.9301
55921SOL    HW275004   0.326   0.273   3.330  1.1555 -3.0808 -0.1430
55922SOL     OW75005   7.609   8.821   6.494  0.6985 -0.2271 -0.0574
55922SOL    HW175006   7.652   8.794   6.413 -1.1662  0.1054 -1.2155
55922SOL    HW275007   7.654   8.901   6.520  0.5981  0.2742 -1.3751
55923SOL     OW75008  11.229  11.155   4.861  0.5231  0.2031  0.1362
55923SOL    HW175009  11.169  11.146   4.935  0.4678  0.8242  0.1704
55923SOL    HW275010  11.188  11.107   4.790  0.6129 -0.4671  0.5290
55924SOL     OW75011   3.815   8.142   1.510 -0.6278 -0.1762 -0.2981
55924SOL    HW175012   3.799   8.049   1.527  0.6547 -0.6214 -1.3792
55924SOL    HW275013   3.728   8.178   1.493 -1.0873 -1.2759 -0.3767
55925SOL     OW75014   4.053   8.423   3.490  0.3085 -0.5647 -0.0008
55925SOL    HW175015   4.042   8.386   3.577  0.3181  0.5390  0.4933
55925SOL    HW275016   4.136   8.388   3.459  1.0141  0.1384  1.0282
55926SOL     OW75017   9.348  11.370   6.018 -0.0841 -0.0084 -0.4342
55926SOL    HW175018   9.432  11.371   6.065  0.2281 -0.1444 -0.9776
55926SOL    HW275019   9.311  11.457   6.033  0.9988  0.7004 -1.6578
55927SOL     OW75020  10.076   0.988  10.632  0.2938 -0.5723 -0.0971
55927SOL    HW175021  10.040   0.926  10.568  1.5916 -0.5475 -0.8882
55927SOL    HW275022  10.164   0.956  10.649  0.4474  0.2101  0.6525
55928SOL     OW75023   4.972  10.196   9.564 -0.2131 -0.2576  0.6088
55928SOL    HW175024   5.012  10.166   9.645 -0.0576 -0.4862  0.4489
55928SOL    HW275025   5.027  10.158   9.495 -0.0569  0.3306  0.4063
55929SOL     OW75026   7.074   3.847   3.531  0.2580 -0.1979  0.0048
55929SOL    HW175027   7.002   3.807   3.481  0.2211  2.7540 -2.6621
55929SOL    HW275028   7.150   3.838   3.474  1.1078  0.0910  1.0753
55930SOL     OW75029  11.970   3.179   9.551  0.0223 -0.2304 -0.0169
55930SOL    HW175030  11.961   3.248   9.485  0.8459 -0.2712 -0.1777
55930SOL    HW275031  12.059   3.188   9.583  0.1241 -1.2009 -0.0128
55931SOL     OW75032   1.894   5.054  12.345 -0.1112 -0.0052  0.6490
55931SOL    HW175033   1.832   5.065  12.274  0.1149 -0.5836  0.3539
55931SOL    HW275034   1.857   4.983  12.398 -0.3648  0.5329  1.2083
55932SOL     OW75035   6.454   3.799   5.130  0.2686 -0.1324 -0.3365
55932SOL    HW175036   6.497   3.727   5.083  1.0973 -0.5271  0.9636
55932SOL    HW275037   6.371   3.762   5.160  0.0736 -0.1142 -0.8587
55933SOL     OW75038   0.081   9.516   7.599 -0.8141 -0.4570 -0.0958
55933SOL    HW175039   0.142   9.588   7.580 -0.1414 -0.8448  0.5208
55933SOL    HW275040   0.056   9.483   7.513 -0.2314 -0.2131 -0.3662
55934SOL     OW75041   8.374   2.934   4.313  0.2894  0.2199 -0.2508
55934SOL    HW175042   8.402   2.853   4.271  0.5723  0.1259  0.1158
55934SOL    HW275043   8.322   2.905   4.388  0.3376  0.3791 -0.1562
55935SOL     OW75044  10.415   9.642  10.454 -0.0779 -0.2395 -0.3990
55935SOL    HW175045  10.426   9.547  10.456 -0.3794 -0.2679 -0.2017
55935SOL    HW275046  10.505   9.676  10.457  0.0216 -0.5120 -0.2493
55936SOL     OW75047  11.473   5.272   9.698  0.3793  0.2002 -0.4937
55936SOL    HW175048  11.482   5.319   9.781 -1.3894 -0.0922 -0.0994
55936SOL    HW275049  11.528   5.320   9.637  3.6346 -0.8938  1.3164
55937SOL     OW75050  12.579   7.361   2.750 -0.1287 -0.2522 -0.0088
55937SOL    HW175051  12.596   7.394   2.662  0.5068 -0.7038 -0.0661
55937SOL    HW275052  12.629   7.280   2.755  1.8778  0.9757  1.5895
55938SOL     OW75053   9.591   5.996   1.041  0.0303 -0.1522 -0.4866
55938SOL    HW175054   9.501   5.968   1.024 -0.0853 -0.4426  0.5689
55938SOL    HW275055   9.587   6.092   1.034 -0.5058 -0.1177  0.1796
55939SOL     OW75056   5.082   9.014   3.575 -0.0361 -0.6595  0.6871
55939SOL    HW175057   5.110   9.100   3.606 -1.1269 -0.3511  0.8497
55939SOL    HW275058   4.991   9.026   3.548  0.1527 -1.4928 -0.3968
55940SOL     OW75059  11.204  12.443   3.706  0.1976  0.4208  0.5038
55940SOL    HW175060  11.239  12.400   3.628 -1.7237  0.4393 -0.4493
55940SOL    HW275061  11.211  12.378   3.775  0.1012 -0.3450 -0.1956
55941SOL     OW75062   0.545   8.807   2.721 -0.1785  0.1004 -0.3955
55941SOL    HW175063   0.493   8.726   2.714 -0.9734  0.5980 -0.3756
55941SOL    HW275064   0.618   8.794   2.661  1.3020 -1.8022  1.6159
55942SOL     OW75065   7.478   4.787   8.212 -0.5354  0.0134  0.1676
55942SOL    HW175066   7.484   4.696   8.183  0.5575 -0.3837  1.5483
55942SOL    HW275067   7.480   4.838   8.130  2.5379 -1.0531 -0.5477
55943SOL     OW75068   0.172   8.702   3.483  0.4521  0.0185  0.4730
55943SOL    HW175069   0.242   8.671   3.541 -0.2810 -1.1350  0.7694
55943SOL    HW275070   0.217   8.726   3.402  1.2804  0.0420  0.9271
55944SOL     OW75071   9.992  11.521   7.192 -0.3397  0.5713 -0.2168
55944SOL    HW175072  10.043  11.486   7.119 -0.1160  1.5731 -0.5580
55944SOL    HW275073   9.908  11.476   7.187  0.4629 -1.0706  0.3178
55945SOL     OW75074   5.309   8.174  12.467  0.9095  0.6403 -0.7975
55945SOL    HW175075   5.337   8.137  12.383  0.6565  0.8864 -0.9923
55945SOL    HW275076   5.240   8.114  12.497  0.5413  0.9115 -1.0841
55946SOL     OW75077   1.116   0.592   9.714  0.5649 -0.1200 -0.0850
55946SOL    HW175078   1.095   0.623   9.626 -0.1213  1.1246  0.4903
55946SOL    HW275079   1.138   0.672   9.763  2.0389 -0.8861  0.5988
55947SOL     OW75080   0.959   5.740   5.777  0.4570 -0.5354  0.0764
55947SOL    HW175081   0.869   5.773   5.776  1.1286  1.4522  0.6025
55947SOL    HW275082   0.974   5.715   5.868  1.3256  1.9265  0.6774
55948SOL     OW75083   8.315   5.615   7.996  0.3895  0.6394 -0.1976
55948SOL    HW175084   8.277   5.539   8.040 -0.3221  1.2895  0.3481
55948SOL    HW275085   8.364   5.578   7.922  2.1673 -0.5360  1.4772
55949SOL     OW75086   9.974   9.463   9.174 -0.2586  0.1279  0.0412
55949SOL    HW175087  10.028   9.477   9.251  2.1944  1.2428 -1.7343
55949SOL    HW275088   9.978   9.369   9.158 -0.3893 -0.0430  0.9711
55950SOL     OW75089   1.290   8.527   1.804  0.0970 -0.1341 -0.3164
55950SOL    HW175090   1.316   8.615   1.828  0.3055  0.1153 -1.3960
55950SOL    HW275091   1.334   8.511   1.720 -1.7977 -0.3566 -1.3405
55951SOL     OW75092   0.945  10.712   6.436  0.3584 -0.1490  0.6816
55951SOL    HW175093   1.025  10.682   6.478  1.1311  0.5849 -0.2272
55951SOL    HW275094   0.901  10.632   6.407  2.1950 -0.5110 -1.3789
55952SOL     OW75095   0.909   5.540   0.180 -0.3164  0.1872  0.7973
55952SOL    HW175096   0.887   5.499   0.264  1.7397 -0.9749  0.8474
55952SOL    HW275097   0.860   5.489   0.115 -0.5118 -0.0910  1.1556
55953SOL     OW75098  10.495   8.387   0.481  0.1739  0.5533 -0.1560
55953SOL    HW175099  10.405   8.358   0.474  0.1406  0.6530 -0.1424
55953SOL    HW275100  10.501   8.463   0.423  0.5902 -0.2592 -1.2166
55954SOL     OW75101   0.153  12.549  10.953  0.9494  0.4578  0.9245
55954SOL    HW175102   0.211  12.593  11.015  0.6764 -0.4790  1.8736
55954SOL    HW275103   0.206  12.479  10.916  0.4599 -0.3943  1.7885
55955SOL     OW75104   8.496   4.401   6.260 -0.1429  0.1285 -0.7344
55955SOL    HW175105   8.419   4.349   6.285  0.4507 -0.7380 -0.6650
55955SOL    HW275106   8.513   4.456   6.336  0.0064 -0.5220 -0.2915
55956SOL     OW75107  11.305  11.181   7.914 -0.1015  0.1187  0.2149
55956SOL    HW175108  11.250  11.104   7.921 -0.6105  0.5710  1.4614
55956SOL    HW275109  11.253  11.244   7.865  0.0062 -0.0486 -0.1194
55957SOL     OW75110   1.851   0.688   5.347  0.2669  0.1967  0.2689
55957SOL    HW175111   1.910   0.621   5.311  0.3285  0.7685 -0.7380
55957SOL    HW275112   1.863   0.682   5.442 -1.3211 -2.6549  0.3805
55958SOL     OW75113   7.788   5.347   4.523 -0.2337  0.5307  0.0405
55958SOL    HW175114   7.880   5.321   4.510 -0.6813 -1.4993  0.6811
55958SOL    HW275115   7.794   5.423   4.582  0.9662 -1.5559  2.8289
55959SOL     OW75116   8.417  12.442  10.703 -0.0252 -0.8074  0.2926
55959SOL    HW175117   8.489  12.464  10.761 -1.2032  0.2632  1.3996
55959SOL    HW275118   8.460  12.418  10.620  1.5877 -0.4436  0.9825
55960SOL     OW75119   4.091   4.564   2.597 -0.2060  0.1201 -0.3856
55960SOL    HW175120   4.071   4.655   2.578 -0.3208 -0.0002 -0.8395
55960SOL    HW275121   4.173   4.567   2.647 -1.0657  0.5913  1.0722
55961SOL     OW75122  11.528  12.066  11.964  0.0770 -0.1700  0.4403
55961SOL    HW175123  11.600  12.128  11.961  0.3511 -0.4085  1.6408
55961SOL    HW275124  11.466  12.103  12.026 -0.4233 -0.4157  0.1021
55962SOL     OW75125   6.483  10.336   3.942 -0.2851  0.6005 -0.2476
55962SOL    HW175126   6.575  10.361   3.939 -0.3973  0.9727 -0.6071
55962SOL    HW275127   6.450  10.353   3.854 -0.8958  1.2195  0.0910
55963SOL     OW75128   0.327   2.531   6.521 -0.0470 -0.7176 -0.2434
55963SOL    HW175129   0.411   2.491   6.499 -0.7097 -1.8537 -0.8094
55963SOL    HW275130   0.343   2.579   6.602  0.8681 -1.8757  0.2836
55964SOL     OW75131   9.161   5.861   6.568 -0.0189  0.7844  0.2312
55964SOL    HW175132   9.068   5.864   6.544  0.2572 -2.7157 -1.8362
55964SOL    HW275133   9.160   5.857   6.664 -2.0156  0.4588  0.2458
55965SOL     OW75134   6.646   7.265   3.886  0.0644 -0.3235 -0.5001
55965SOL    HW175135   6.640   7.300   3.797  0.7721  0.1203 -0.3854
55965SOL    HW275136   6.587   7.190   3.887 -0.7264  0.2791 -1.0452
55966SOL     OW75137   2.814  12.622   1.788  0.1312 -0.4573 -0.3258
55966SOL    HW175138   2.838  12.540   1.744 -0.2150  0.7301 -2.8582
55966SOL    HW275139   2.738  12.598   1.842  1.8618 -2.4280  1.4467
55967SOL     OW75140   1.965   3.020   0.827 -0.0782  0.6100  0.3698
55967SOL    HW175141   1.917   2.996   0.905 -1.2170 -0.7437 -0.6946
55967SOL    HW275142   2.028   3.086   0.856  0.0613 -0.4242  2.5512
55968SOL     OW75143   4.672  12.004   7.974 -0.3168  0.0264  0.4755
55968SOL    HW175144   4.673  12.067   8.046 -0.4613 -0.2224  0.6972
55968SOL    HW275145   4.666  12.058   7.895 -1.3282  0.2694  0.7042
55969SOL     OW75146   0.499   0.115   8.941  0.3368 -0.2686  0.4139
55969SOL    HW175147   0.451   0.092   8.862  1.2854  0.2614 -0.3291
55969SOL    HW275148   0.470   0.050   9.006 -1.5541  0.1792  0.0824
55970SOL     OW75149   2.767  12.627   0.408  0.8633 -0.1147 -0.6422
55970SOL    HW175150   2.741  12.536   0.392 -2.0524 -0.0331  2.4688
55970SOL    HW275151   2.684  12.675   0.408  1.6898  1.6063  2.6253
55971SOL     OW75152  11.866   2.958   1.917  0.6155 -0.7384 -0.0228
55971SOL    HW175153  11.864   3.021   1.845  0.7465 -0.5901  0.1025
55971SOL    HW275154  11.959   2.943   1.934  0.5859 -0.7895  0.1009
55972SOL     OW75155   6.416  12.034   0.449  0.8221  0.0958  0.3456
55972SOL    HW175156   6.329  12.051   0.483 -0.4474 -0.2842 -2.4730
55972SOL    HW275157   6.462  12.117   0.458 -0.4698  0.8542  0.1003
55973SOL     OW75158  12.245  11.188   3.604  0.0375 -0.1444 -0.3642
55973SOL    HW175159  12.201  11.177   3.520 -1.3563 -2.3185  0.5659
55973SOL    HW275160  12.242  11.101   3.644  2.1502  0.4366  1.2505
55974SOL     OW75161   6.229   5.055   8.564 -0.5134  0.1747  0.0703
55974SOL    HW175162   6.257   5.143   8.591  2.6689 -0.7692  0.2919
55974SOL    HW275163   6.289   5.033   8.493 -1.8111 -1.5351 -0.5516
55975SOL     OW75164   1.496   1.929  12.335 -0.4551 -0.4018  0.4221
55975SOL    HW175165   1.437   1.892  12.270 -0.2071  2.8017 -1.8702
55975SOL    HW275166   1.564   1.973  12.283 -0.4064  2.6234  2.7831
55976SOL     OW75167   7.723   4.047   6.984  0.6139  0.3629 -0.5728
55976SOL    HW175168   7.677   3.964   6.971  1.7994 -0.0514 -2.3667
55976SOL    HW275169   7.684   4.083   7.064 -1.9751 -0.5086 -1.3332
55977SOL     OW75170   1.079   7.105   6.285 -0.0605  0.6469 -0.4481
55977SOL    HW175171   1.141   7.033   6.275 -0.1938  0.6129 -1.0747
55977SOL    HW275172   1.096   7.139   6.372 -0.8349 -0.9460  0.3801
55978SOL     OW75173   8.150   2.611   4.870  0.1652  0.3692 -0.0392
55978SOL    HW175174   8.240   2.644   4.859 -0.5281  2.2234 -0.5004
55978SOL    HW275175   8.095   2.690   4.868 -1.5074 -0.7506  0.0070
55979SOL     OW75176   6.222   8.546   2.413  0.5852 -0.5703  0.1804
55979SOL    HW175177   6.185   8.480   2.355  1.4589  0.5736 -1.7906
55979SOL    HW275178   6.261   8.496   2.485  0.5038 -2.1279 -0.8101
55980SOL     OW75179   9.788   6.080   8.809 -0.2508  0.5161  0.4482
55980SOL    HW175180   9.850   6.107   8.876 -1.6803  2.8146  0.9775
55980SOL    HW275181   9.793   6.149   8.743 -0.7266 -0.3674 -0.5371
55981SOL     OW75182  12.487  12.538   6.950 -0.1827 -0.3062 -0.3129
55981SOL    HW175183  12.406  12.556   6.904 -0.3159  0.1077  0.0751
55981SOL    HW275184  12.471  12.456   6.996  0.1812 -1.0772 -1.5222
55982SOL     OW75185  11.584   3.358   1.342  0.4420 -0.1354  0.2184
55982SOL    HW175186  11.635   3.312   1.275 -0.5730 -1.1978  0.1291
55982SOL    HW275187  11.540   3.289   1.390 -0.1817  0.7020  0.8874
55983SOL     OW75188   7.106  10.601   3.346 -0.1299 -0.5052  0.0437
55983SOL    HW175189   7.186  10.549   3.347  0.0052 -0.2988  0.9927
55983SOL    HW275190   7.035  10.536   3.344  0.0356 -0.7469  1.2908
55984SOL     OW75191   0.024  10.341   5.409  0.5080 -0.4524 -0.0725
55984SOL    HW175192   0.037  10.421   5.357 -1.2987  0.5423  0.8940
55984SOL    HW275193   0.063  10.361   5.494 -2.2024  0.5186  1.0589
55985SOL     OW75194  10.166   3.920   5.823 -0.6821  0.1274 -0.2902
55985SOL    HW175195  10.199   4.008   5.836  0.4609 -0.4338  0.8862
55985SOL    HW275196  10.215   3.886   5.748 -0.7078  0.3002 -0.3843
55986SOL     OW75197   3.160   3.705   6.137  0.0190 -0.1365  0.1248
55986SOL    HW175198   3.132   3.747   6.055 -0.6533  0.1980  0.5245
55986SOL    HW275199   3.136   3.613   6.125 -0.4245 -0.0199  0.0973
55987SOL     OW75200   4.916   6.674   0.014 -0.1977  0.4690  0.1663
55987SOL    HW175201   4.935   6.610   0.082 -1.8009  0.1269  0.3311
55987SOL    HW275202   4.988   6.737   0.019  1.1731 -1.0490  0.2960
55988SOL     OW75203  12.315   8.684  11.270 -0.3438  0.0421 -0.3353
55988SOL    HW175204  12.360   8.620  11.325 -0.1656 -0.1278 -0.6758
55988SOL    HW275205  12.374   8.759  11.266 -0.7134  0.3785  0.3628
55989SOL     OW75206   6.606   9.645   8.680 -0.1902  0.3028  0.4897
55989SOL    HW175207   6.606   9.712   8.611  0.6147 -1.1612 -1.0320
55989SOL    HW275208   6.687   9.660   8.729  0.5778 -0.1988 -0.5741
55990SOL     OW75209   6.147   0.295   1.488 -0.3997 -0.0806 -0.4072
55990SOL    HW175210   6.168   0.268   1.398 -1.2390  0.1704 -0.6884
55990SOL    HW275211   6.051   0.297   1.490 -0.3820  1.9248 -0.1243
55991SOL     OW75212   6.745   0.939  11.918  0.1610  0.1500  0.1472
55991SOL    HW175213   6.707   1.016  11.959  0.4978 -0.5881  1.9461
55991SOL    HW275214   6.683   0.916  11.849  1.4016  3.5761 -2.3609
55992SOL     OW75215   2.287   0.399  11.841  0.3910 -0.1364  0.0327
55992SOL    HW175216   2.201   0.357  11.841  1.2823 -2.1011  0.8038
55992SOL    HW275217   2.286   0.458  11.766 -1.9171  0.5415  0.5371
55993SOL     OW75218   9.592   2.241   9.906 -0.5100  0.5065 -0.1140
55993SOL    HW175219   9.679   2.278   9.890 -0.7968  1.2567  0.0031
55993SOL    HW275220   9.545   2.256   9.823 -0.9371  1.3225  0.2607
55994SOL     OW75221   8.722   6.479  10.945 -0.3582 -0.2674 -0.3990
55994SOL    HW175222   8.784   6.427  10.894  0.5960 -0.3781  0.8296
55994SOL    HW275223   8.655   6.505  10.882  0.5568 -0.7428 -1.6069
55995SOL     OW75224   9.163   9.846   9.758  0.4912 -0.1689 -0.3228
55995SOL    HW175225   9.145   9.789   9.683  1.0472  1.8197 -2.0476
55995SOL    HW275226   9.212   9.790   9.819  0.8261 -1.6085 -1.8444
55996SOL     OW75227  12.098  10.857   2.032  0.1695 -0.1144 -0.2460
55996SOL    HW175228  12.116  10.943   1.994  0.6352 -0.3308 -0.5241
55996SOL    HW275229  12.184  10.826   2.064 -0.3678  0.5676  2.0682
55997SOL     OW75230  12.129   5.791  11.022 -0.5245  0.3032  0.6326
55997SOL    HW175231  12.139   5.741  11.103 -0.2381 -0.1368  0.3272
55997SOL    HW275232  12.042   5.766  10.990  0.0484 -0.8704 -0.0927
55998SOL     OW75233   7.766   0.093   1.192 -0.0011 -0.2286 -0.3953
55998SOL    HW175234   7.816   0.042   1.255 -0.2279  0.7399  0.5972
55998SOL    HW275235   7.830   0.154   1.154  0.2531 -1.1501 -1.5213
55999SOL     OW75236   2.612   7.320   1.054 -0.7459  0.1401 -0.2686
55999SOL    HW175237   2.630   7.259   0.982 -0.2482 -0.1047  0.0538
55999SOL    HW275238   2.695   7.367   1.066 -0.8769  0.2969  0.0367
56000SOL     OW75239   6.057  10.105   8.619  0.5827  0.0454  0.4724
56000SOL    HW175240   6.050  10.011   8.604 -0.5291  0.3330 -1.1507
56000SOL    HW275241   6.145  10.118   8.654  1.4362 -1.3969 -1.0239
56001SOL     OW75242   5.573   9.750   6.713  0.3340  0.2929  0.1587
56001SOL    HW175243   5.663   9.726   6.737 -0.0473 -2.7120 -0.9825
56001SOL    HW275244   5.518   9.689   6.762 -0.8775 -0.0883 -1.5794
56002SOL     OW75245  12.493   9.729   4.985  0.2355 -0.6319 -0.3574
56002SOL    HW175246  12.445   9.655   5.022  0.2053 -0.5413 -0.2167
56002SOL    HW275247  12.429   9.799   4.980  0.2331 -0.6541 -0.6097
56003SOL     OW75248   8.334  10.110   9.739  0.5285  0.0286  0.1966
56003SOL    HW175249   8.267  10.107   9.671  0.7617 -1.0269 -0.0026
56003SOL    HW275250   8.331  10.024   9.780  1.8818 -0.1077  0.0604
56004SOL     OW75251   5.224  12.117   7.551  0.4679  0.5119  0.0214
56004SOL    HW175252   5.276  12.057   7.604 -0.7110  0.3640  1.0383
56004SOL    HW275253   5.136  12.079   7.550  0.1581  1.2015 -0.9616
56005SOL     OW75254   4.221   7.145   3.828 -0.2818 -0.7626  0.3212
56005SOL    HW175255   4.217   7.238   3.807  0.1193 -0.8499 -0.1620
56005SOL    HW275256   4.182   7.138   3.916 -2.6208 -0.4739 -0.6230
56006SOL     OW75257   9.549   8.869   8.816 -0.3131  0.1690  0.3597
56006SOL    HW175258   9.490   8.944   8.811 -1.2915 -0.3950  2.5001
56006SOL    HW275259   9.579   8.867   8.907  0.9011 -1.1591 -0.0188
56007SOL     OW75260   6.258   9.430   1.919 -0.6078  0.1471  0.7017
56007SOL    HW175261   6.184   9.376   1.944 -1.5943  0.7641 -0.7208
56007SOL    HW275262   6.314   9.372   1.867  0.9065 -0.8314  3.2486
56008SOL     OW75263   6.862  11.313   7.743 -0.1776 -0.8331 -0.0378
56008SOL    HW175264   6.810  11.358   7.677 -0.9124 -0.0923  1.0106
56008SOL    HW275265   6.851  11.365   7.822  2.1952 -0.6421  0.2411
56009SOL     OW75266  12.182   4.750  10.920  0.1635  0.6266 -0.0530
56009SOL    HW175267  12.094   4.713  10.916  0.2859  0.2763  0.4120
56009SOL    HW275268  12.237   4.686  10.876  0.2592  0.6019  0.1006
56010SOL     OW75269   1.482  10.775   3.132 -0.4553 -0.3464 -0.6676
56010SOL    HW175270   1.457  10.761   3.040 -0.2490  0.1932 -0.8098
56010SOL    HW275271   1.561  10.829   3.127 -0.5493 -0.1606 -0.1701
56011SOL     OW75272  11.655   9.670   2.236 -0.5503 -0.0123  0.0499
56011SOL    HW175273  11.623   9.597   2.184  2.1210  0.2784 -2.2145
56011SOL    HW275274  11.748   9.651   2.250 -0.4922  1.4354  2.1581
56012SOL     OW75275  12.228   3.448   2.481 -0.0441 -0.5736 -0.5987
56012SOL    HW175276  12.280   3.402   2.414  0.2624  0.9498 -1.4417
56012SOL    HW275277  12.183   3.378   2.528  0.5811 -1.7521 -1.6935
56013SOL     OW75278   7.430   0.688   0.133  0.0034 -0.0923 -0.4883
56013SOL    HW175279   7.450   0.750   0.063  2.0794 -0.4673 -0.2668
56013SOL    HW275280   7.431   0.741   0.213  1.7029 -0.3547 -0.3074
56014SOL     OW75281  10.665   2.691   7.877 -0.1704 -0.0982 -0.0832
56014SOL    HW175282  10.749   2.699   7.833 -0.1716 -0.0966 -0.0848
56014SOL    HW275283  10.675   2.615   7.934  0.1126  0.3999  0.5450
56015SOL     OW75284   9.199  12.402   5.788 -1.0359 -1.1202 -0.0944
56015SOL    HW175285   9.135  12.457   5.743  0.9191  1.5412  0.1639
56015SOL    HW275286   9.174  12.406   5.880  0.4833  1.5773  0.3016
56016SOL     OW75287   9.066   0.412   6.132 -0.7160 -0.4997 -0.0963
56016SOL    HW175288   9.074   0.501   6.098  0.7182  0.2081  1.9228
56016SOL    HW275289   8.994   0.374   6.081 -2.0127  2.1054 -0.3952
56017SOL     OW75290   6.666   9.055   1.288  0.1221 -0.7553 -0.1975
56017SOL    HW175291   6.743   9.109   1.271  0.0657 -0.5503  0.2057
56017SOL    HW275292   6.692   8.999   1.362 -0.5501  0.1978  0.7737
56018SOL     OW75293   9.608   6.827  11.828 -0.4043  0.1970  0.1758
56018SOL    HW175294   9.591   6.828  11.734  0.0766  1.7653  0.0810
56018SOL    HW275295   9.551   6.895  11.864 -1.2805 -1.0114  1.1873
56019SOL     OW75296   1.372   7.365   8.632 -0.1857 -0.5631 -0.9549
56019SOL    HW175297   1.392   7.396   8.721  0.9836  0.0719 -1.4194
56019SOL    HW275298   1.278   7.348   8.634 -0.7029  1.8954 -0.3116
56020SOL     OW75299   5.509  12.354   3.544  0.0475  0.2647 -0.1482
56020SOL    HW175300   5.554  12.372   3.462 -0.2904  2.9286  0.1545
56020SOL    HW275301   5.440  12.420   3.548 -0.6823 -0.5443  1.7463
56021SOL     OW75302   7.204  10.620   1.912  0.1358 -0.4655  0.1524
56021SOL    HW175303   7.245  10.671   1.842 -3.3574 -0.1279 -1.8511
56021SOL    HW275304   7.189  10.683   1.983 -0.0366  0.2170 -0.4804
56022SOL     OW75305   8.874   2.196   9.603  0.7603 -0.3971  0.2565
56022SOL    HW175306   8.966   2.220   9.613  0.1251  1.6268  1.9607
56022SOL    HW275307   8.872   2.140   9.525  3.4873 -0.9950  0.5262
56023SOL     OW75308   8.668   1.838   6.112 -0.2380  0.3419  0.1353
56023SOL    HW175309   8.710   1.846   6.026  1.4355  2.4634  1.0472
56023SOL    HW275310   8.607   1.912   6.116  0.6784  1.0855  1.2113
56024SOL     OW75311  10.117   9.940   0.393  0.0957 -0.0313  0.4452
56024SOL    HW175312  10.067   9.927   0.474 -1.3916  0.2757 -0.3796
56024SOL    HW275313  10.174   9.864   0.387  0.2092 -0.0780  1.7472
56025SOL     OW75314   7.938  12.180   6.947 -0.1245 -0.5374 -0.3075
56025SOL    HW175315   7.901  12.267   6.936 -0.3655 -0.8294 -2.1719
56025SOL    HW275316   7.991  12.186   7.026 -0.0560  1.3217 -0.4507
56026SOL     OW75317  10.158   9.520   9.417  0.3669 -0.1979  0.3773
56026SOL    HW175318  10.249   9.494   9.424  0.2084 -0.6191  0.8724
56026SOL    HW275319  10.115   9.482   9.493 -0.2521 -0.1189  0.0785
56027SOL     OW75320   8.304  10.546   9.674  0.2051 -0.0209  0.1596
56027SOL    HW175321   8.395  10.520   9.664  0.1172 -0.3650  0.2552
56027SOL    HW275322   8.261  10.470   9.713 -0.2247 -0.0332 -0.3314
56028SOL     OW75323   1.988  11.772  11.298  0.3722 -0.9912 -0.5937
56028SOL    HW175324   1.976  11.866  11.314 -1.3468 -1.2709  0.0291
56028SOL    HW275325   2.042  11.742  11.372  0.5028 -0.5901 -0.5221
56029SOL     OW75326   6.986   1.917  12.100 -0.6363  0.5557 -0.0333
56029SOL    HW175327   6.917   1.852  12.089 -0.1338  0.0661 -0.3236
56029SOL    HW275328   7.048   1.898  12.030 -0.8550  1.8278 -0.5960
56030SOL     OW75329   9.441   4.514   2.319  0.0455  0.0654 -0.4800
56030SOL    HW175330   9.515   4.569   2.344  1.7829 -2.0703 -0.6088
56030SOL    HW275331   9.421   4.464   2.399 -1.2888  0.6102 -0.4487
56031SOL     OW75332   8.291  10.445   4.828 -0.1302  0.3212 -0.0651
56031SOL    HW175333   8.337  10.369   4.792  0.1618  0.4795 -0.0301
56031SOL    HW275334   8.229  10.470   4.759  1.2130  1.3218 -0.9472
56032SOL     OW75335   0.681   3.539   9.124 -0.7997  0.1576  0.4111
56032SOL    HW175336   0.615   3.596   9.083  0.0594 -0.0546 -1.3715
56032SOL    HW275337   0.648   3.450   9.109 -1.3988  0.1144  1.8710
56033SOL     OW75338   6.633   5.847   6.171  0.3634 -0.1550  0.8779
56033SOL    HW175339   6.661   5.818   6.085  0.0798 -0.6997  0.9652
56033SOL    HW275340   6.646   5.942   6.170 -0.1419 -0.0817  0.0430
56034SOL     OW75341  10.535   5.980   0.933 -0.2165 -0.2773 -0.0884
56034SOL    HW175342  10.478   5.949   1.004 -0.3291 -2.0180 -0.8873
56034SOL    HW275343  10.623   5.953   0.959  0.2608  2.0458  0.9456
56035SOL     OW75344   4.286   4.827   8.778 -0.5970 -0.0898 -0.0815
56035SOL    HW175345   4.292   4.818   8.683  0.6071  0.8380 -0.1209
56035SOL    HW275346   4.353   4.768   8.812  0.9366  1.6015  0.0274
56036SOL     OW75347   4.703   4.622   3.377  0.4214 -0.0524  0.1361
56036SOL    HW175348   4.702   4.706   3.332  2.4292 -0.5218 -0.9159
56036SOL    HW275349   4.696   4.557   3.306 -1.6144 -0.8216  0.9642
56037SOL     OW75350  11.262   6.180  10.863 -0.5972  0.3214 -0.2446
56037SOL    HW175351  11.295   6.090  10.858 -2.1045 -0.2775 -0.0370
56037SOL    HW275352  11.282   6.218  10.778 -0.4200 -0.3971 -0.5309
56038SOL     OW75353  11.997  10.997   5.118 -0.2016 -1.2232 -0.1094
56038SOL    HW175354  11.957  11.009   5.032  0.3509 -0.5441 -0.2794
56038SOL    HW275355  12.026  10.906   5.119 -2.1233 -1.8826  0.1854
56039SOL     OW75356   9.337   5.452  10.140 -0.1375 -0.2685  0.1082
56039SOL    HW175357   9.288   5.395  10.080  0.9067 -1.3661  0.2623
56039SOL    HW275358   9.428   5.431  10.123  0.2963  1.6066 -0.0392
56040SOL     OW75359   5.102  10.047   1.174 -0.1825  0.3608  0.0970
56040SOL    HW175360   5.043  10.106   1.220  0.2398  0.5703  0.3838
56040SOL    HW275361   5.187  10.061   1.216 -0.1875 -0.8891  0.5824
56041SOL     OW75362   1.041  10.891   6.855 -0.1884 -0.1317  0.2221
56041SOL    HW175363   0.968  10.879   6.795  0.3588  0.8504 -0.6808
56041SOL    HW275364   1.008  10.861   6.940 -1.9776  1.2858  0.0716
56042SOL     OW75365  12.135   9.500   2.889  0.0218 -0.0156  0.3808
56042SOL    HW175366  12.208   9.511   2.829 -0.1810  0.9494  0.3081
56042SOL    HW275367  12.164   9.541   2.970 -0.6596  0.8899  0.1745
56043SOL     OW75368   1.372   0.303  10.541  0.5900 -0.1503  0.3882
56043SOL    HW175369   1.326   0.239  10.595  0.6096  0.1185  0.7276
56043SOL    HW275370   1.442   0.336  10.597 -0.2471  1.1531  0.6915
56044SOL     OW75371   5.847   1.366  12.174  0.7242  0.1741  0.2059
56044SOL    HW175372   5.846   1.444  12.230 -0.5899  1.1722 -1.0929
56044SOL    HW275373   5.838   1.293  12.234 -0.2232  1.1788  1.3497
56045SOL     OW75374   0.859   4.016   6.101 -0.3281  0.1539 -0.7130
56045SOL    HW175375   0.804   3.939   6.115  0.4182 -0.6181 -1.9262
56045SOL    HW275376   0.797   4.089   6.097 -0.9145  0.0332  2.8484
56046SOL     OW75377  10.894   2.155   7.623 -0.2818 -0.5595  0.0817
56046SOL    HW175378  10.846   2.155   7.540 -0.6671 -1.3623  0.2966
56046SOL    HW275379  10.911   2.248   7.641 -1.3821 -0.2842 -0.2119
56047SOL     OW75380   0.521   7.583   7.657 -0.0314  0.0454 -0.2200
56047SOL    HW175381   0.523   7.517   7.588 -0.9349  0.1184 -0.3238
56047SOL    HW275382   0.474   7.657   7.618 -1.0847 -0.1413  0.6624
56048SOL     OW75383  10.059   0.537  10.146  0.4462 -0.3057 -0.0984
56048SOL    HW175384  10.022   0.522  10.233  1.3106  0.0037  0.3309
56048SOL    HW275385  10.110   0.617  10.155  0.8016 -0.4462 -0.8099
56049SOL     OW75386   1.637   6.649   8.928  0.6202  0.2776  0.6411
56049SOL    HW175387   1.571   6.718   8.919  1.5177  1.1832  0.8391
56049SOL    HW275388   1.715   6.694   8.958  1.0265 -0.9513  1.5107
56050SOL     OW75389   1.284   5.576   8.385  0.5282  0.5893 -0.2441
56050SOL    HW175390   1.356   5.633   8.359 -0.5778  1.3204 -1.8962
56050SOL    HW275391   1.278   5.511   8.316 -0.5992  0.7578 -0.3358
56051SOL     OW75392   0.284  10.550   4.090  0.0395  0.5826 -0.1223
56051SOL    HW175393   0.211  10.491   4.108  1.3066 -1.1591 -0.4214
56051SOL    HW275394   0.358  10.511   4.137  0.8868  2.0468 -0.1968
56052SOL     OW75395   8.898   1.778  10.486 -0.2109  0.3782  0.2596
56052SOL    HW175396   8.881   1.701  10.541 -1.0430  1.3754  1.4532
56052SOL    HW275397   8.988   1.802  10.505  0.3468 -0.7946 -0.7842
56053SOL     OW75398   5.005  11.032   0.565 -0.2813 -0.0342 -0.5255
56053SOL    HW175399   5.073  10.979   0.523 -1.2351 -1.3252 -0.5028
56053SOL    HW275400   5.047  11.117   0.581  1.3862 -0.8652 -0.2951
56054SOL     OW75401   9.179   7.555   1.483  0.1185  0.4860 -0.1219
56054SOL    HW175402   9.170   7.584   1.574  1.6811 -1.5384  0.7619
56054SOL    HW275403   9.144   7.465   1.484  1.7421 -0.1954 -1.0859
56055SOL     OW75404  11.967   8.380   4.077  0.2159 -0.2404 -0.1285
56055SOL    HW175405  11.978   8.474   4.061 -1.3943  0.1680  0.8845
56055SOL    HW275406  11.963   8.342   3.990 -0.9376  0.8975 -0.6096
56056SOL     OW75407  12.003   6.511  12.148  0.0528  0.2352  0.0583
56056SOL    HW175408  12.079   6.490  12.094 -1.2761 -1.9012 -1.1259
56056SOL    HW275409  12.035   6.577  12.210  2.5041  0.3371 -1.1880
56057SOL     OW75410   5.966   7.882   0.155  0.3162 -0.5865  0.0845
56057SOL    HW175411   5.971   7.935   0.075 -3.0146 -0.4801 -0.1832
56057SOL    HW275412   6.046   7.906   0.203  1.5191  0.7349 -2.3250
56058SOL     OW75413   3.083   3.447  12.514  0.1951  0.2307  0.1154
56058SOL    HW175414   3.162   3.501  12.514  0.1550  0.2964  0.8025
56058SOL    HW275415   3.014   3.506  12.486  0.1981  0.4779  0.6105
56059SOL     OW75416   0.725   0.079   5.047 -0.2655  0.2404  0.2152
56059SOL    HW175417   0.649   0.050   4.996 -0.6819  1.8097 -0.1111
56059SOL    HW275418   0.702   0.057   5.138 -1.0310  0.4963  0.0948
56060SOL     OW75419   7.225   6.559  12.320 -0.1426 -0.7819  0.4727
56060SOL    HW175420   7.190   6.648  12.329 -2.9535 -1.8516  1.0341
56060SOL    HW275421   7.258   6.555  12.231  0.7436  0.9985  0.6535
56061SOL     OW75422   6.203   5.987   4.164 -0.1785 -0.5364  0.1323
56061SOL    HW175423   6.125   5.936   4.142  0.1497 -0.4749 -1.2589
56061SOL    HW275424   6.256   5.928   4.218  0.2911 -1.8045 -1.6236
56062SOL     OW75425   0.832   4.464   0.466  0.4542 -0.2594  0.5198
56062SOL    HW175426   0.925   4.459   0.486  0.8778  1.5683 -0.6994
56062SOL    HW275427   0.790   4.482   0.550  1.1841 -1.1209  1.0802
56063SOL     OW75428   8.822   3.757  12.649  0.1661 -0.2276 -0.1775
56063SOL    HW175429   8.832   3.777  12.742  1.6766 -1.3994 -0.0507
56063SOL    HW275430   8.808   3.843  12.608  0.0164  0.3613  1.0558
56064SOL     OW75431  10.121  11.189   8.207 -0.1488 -0.0625 -0.2751
56064SOL    HW175432  10.063  11.145   8.144 -0.2725  0.7333 -0.7371
56064SOL    HW275433  10.093  11.155   8.292 -0.0518 -1.0784 -0.6279
56065SOL     OW75434   8.758  11.362   0.638  0.7409  0.0380 -0.1845
56065SOL    HW175435   8.803  11.412   0.570  0.9544  1.4588  0.9553
56065SOL    HW275436   8.792  11.398   0.720 -0.6901 -0.5469  0.6923
56066SOL     OW75437   1.560  10.077  12.029 -0.1817 -0.3690 -0.0311
56066SOL    HW175438   1.481  10.109  12.072 -1.4774 -1.0712 -1.7762
56066SOL    HW275439   1.534  10.062  11.938  1.1841 -3.3593 -0.0344
56067SOL     OW75440   2.343   8.594   7.520 -0.2123  0.0478  0.1806
56067SOL    HW175441   2.431   8.624   7.499 -0.0587  0.7427  1.6768
56067SOL    HW275442   2.287   8.636   7.455  0.2427  1.9933  0.9726
56068SOL     OW75443   4.632   7.476   4.216 -0.1795 -0.5683  0.0303
56068SOL    HW175444   4.570   7.417   4.259 -0.3606  0.1793  0.8312
56068SOL    HW275445   4.597   7.564   4.233 -0.4328 -0.2447 -1.9278
56069SOL     OW75446   9.473  10.262   1.981 -0.3302 -0.1639 -0.2215
56069SOL    HW175447   9.449  10.175   2.015  0.8983 -1.1928 -1.8305
56069SOL    HW275448   9.427  10.269   1.898  1.3945 -0.3190 -1.2359
56070SOL     OW75449   1.022   7.328   9.946 -0.4641  0.0931  0.5885
56070SOL    HW175450   1.004   7.272   9.871 -1.2843  0.3803  0.5599
56070SOL    HW275451   0.935   7.353   9.979 -0.1176  0.1599  1.4882
56071SOL     OW75452   7.704   3.334   2.614 -0.1731 -0.7269 -0.2451
56071SOL    HW175453   7.670   3.249   2.642 -0.4140 -0.9094 -1.0560
56071SOL    HW275454   7.715   3.325   2.519 -0.2387  0.1605 -0.3451
56072SOL     OW75455  10.035   5.118  11.931 -0.4474 -0.1546 -0.1836
56072SOL    HW175456  10.003   5.155  11.849  0.5175  0.8720 -0.1215
56072SOL    HW275457  10.128   5.101  11.915 -0.2020  0.2632  0.7628
56073SOL     OW75458   2.434   0.005  10.271  0.2612 -0.7088  0.0097
56073SOL    HW175459   2.461   0.092  10.239 -0.2624  0.0778  1.5847
56073SOL    HW275460   2.517  -0.043  10.280  0.5947 -0.2614 -0.5723
56074SOL     OW75461   1.280   1.709  11.041  0.2072  1.1909  0.4963
56074SOL    HW175462   1.259   1.624  11.079 -0.1570  2.3839  3.2008
56074SOL    HW275463   1.199   1.738  10.999  0.1474  0.5245  0.1338
56075SOL     OW75464  10.945   1.951   0.729  0.2403  0.3375 -0.3773
56075SOL    HW175465  10.866   1.951   0.675 -0.8991 -0.0295  1.2111
56075SOL    HW275466  10.993   2.029   0.700  0.3945 -0.5848 -2.8399
56076SOL     OW75467   8.763  12.135   1.479  0.6612  0.0817  0.3892
56076SOL    HW175468   8.727  12.133   1.568 -0.4645 -2.0448 -0.0346
56076SOL    HW275469   8.827  12.206   1.481 -0.0911  0.8067  2.5840
56077SOL     OW75470   1.507   6.846   4.428  0.0884 -0.1972  0.9723
56077SOL    HW175471   1.460   6.802   4.498  0.3809 -0.2920  1.1128
56077SOL    HW275472   1.486   6.939   4.440  1.7545  0.0470  2.4750
56078SOL     OW75473  11.306   6.957   6.635 -0.1287 -0.1952 -0.3914
56078SOL    HW175474  11.396   6.982   6.652  0.2080 -1.2998 -0.4818
56078SOL    HW275475  11.305   6.932   6.542 -0.9066  1.3792 -0.8403
56079SOL     OW75476  12.207   3.801   3.948  0.5928  0.1204  0.4078
56079SOL    HW175477  12.126   3.840   3.916  0.6845 -0.0413 -0.0305
56079SOL    HW275478  12.271   3.872   3.945  0.4879  0.2264  0.6763
56080SOL     OW75479   4.708   5.283   5.982 -0.8243  0.5622  0.1506
56080SOL    HW175480   4.692   5.231   5.904  1.6678  1.5099 -1.1194
56080SOL    HW275481   4.761   5.357   5.951 -2.4733  2.7424  2.2264
56081SOL     OW75482   4.949  10.652  10.053  0.3034  0.5398 -0.0387
56081SOL    HW175483   5.023  10.592  10.054  0.3419  0.5774  1.3362
56081SOL    HW275484   4.940  10.678   9.961  2.2954  0.9111 -0.1627
56082SOL     OW75485  11.339   6.241   5.011 -0.2600  0.0146 -0.4419
56082SOL    HW175486  11.341   6.161   5.064  0.4358 -0.3969 -1.0725
56082SOL    HW275487  11.331   6.312   5.075  0.9080 -0.4484  0.2511
56083SOL     OW75488  10.632   4.127   3.762 -0.4485  0.2861  0.1247
56083SOL    HW175489  10.643   4.215   3.799  0.0009 -0.3659  1.6247
56083SOL    HW275490  10.537   4.114   3.762 -0.6093  1.2422 -1.3300
56084SOL     OW75491   2.464   3.207  11.908  0.2374 -0.2782  0.4238
56084SOL    HW175492   2.420   3.291  11.918  0.9387 -0.1727  3.6099
56084SOL    HW275493   2.398   3.142  11.934  0.1502 -0.6498 -0.6523
56085SOL     OW75494  10.950  12.208   6.214 -0.6872 -0.4369  0.2367
56085SOL    HW175495  10.914  12.119   6.210 -1.7710 -0.0133  0.2428
56085SOL    HW275496  10.972  12.221   6.306 -1.0543 -0.4975  0.3342
56086SOL     OW75497   1.576   0.098   0.780  0.4866  0.2472  0.0897
56086SOL    HW175498   1.653   0.127   0.731  0.3555  0.2173 -0.1329
56086SOL    HW275499   1.512   0.168   0.767  0.9599  0.9879  1.4571
56087SOL     OW75500   0.363  10.793   8.865 -0.3848 -0.4446 -0.0195
56087SOL    HW175501   0.362  10.883   8.834  1.2499 -0.0887  0.8366
56087SOL    HW275502   0.328  10.798   8.954  0.5621 -0.4779  0.3722
56088SOL     OW75503   4.926   5.140   3.945 -0.8313 -0.1421  0.5070
56088SOL    HW175504   4.854   5.128   3.883 -0.9441 -0.3941  0.6843
56088SOL    HW275505   4.962   5.226   3.924  1.1135 -1.4227 -1.9356
56089SOL     OW75506   1.216   8.799   8.515  0.5864 -0.1701  0.2468
56089SOL    HW175507   1.296   8.763   8.474  0.6947 -0.1365  0.4287
56089SOL    HW275508   1.241   8.887   8.542  1.0529 -0.7804  1.9298
56090SOL     OW75509   8.098   8.115  10.730  0.2373  0.1780  0.5739
56090SOL    HW175510   8.050   8.198  10.740  0.6258  0.7838 -1.9575
56090SOL    HW275511   8.190   8.141  10.734  0.3669 -0.0132 -0.6929
56091SOL     OW75512  11.549   3.036  10.790  0.2972  0.1837 -0.7549
56091SOL    HW175513  11.631   3.063  10.830  0.5384 -2.4406  0.6772
56091SOL    HW275514  11.481   3.082  10.840  0.7699 -0.0651  0.1183
56092SOL     OW75515   2.048   0.295   9.128 -0.3975  0.1043 -0.2660
56092SOL    HW175516   2.052   0.249   9.044 -0.2603 -1.1598  0.4090
56092SOL    HW275517   2.082   0.232   9.191 -0.7441  0.9430  0.7821
56093SOL     OW75518  10.644   2.726   3.989  0.5259 -0.1852  0.0985
56093SOL    HW175519  10.553   2.744   3.968  0.4743 -1.0595 -0.4861
56093SOL    HW275520  10.679   2.685   3.910  1.0683 -1.0377  0.7700
56094SOL     OW75521   2.832   0.589   6.935 -0.0372 -0.2126  0.5947
56094SOL    HW175522   2.786   0.506   6.925 -0.0860 -0.3228  1.5990
56094SOL    HW275523   2.925   0.565   6.934 -0.0215 -0.1410 -0.1853
56095SOL     OW75524  12.652   5.399  10.623 -0.3037 -0.3059  0.8217
56095SOL    HW175525  12.660   5.350  10.541  1.6241 -0.1328  0.8701
56095SOL    HW275526  12.576   5.360  10.666 -1.0895 -0.7022 -0.8300
56096SOL     OW75527   7.753   1.871   6.064 -0.5436 -0.4631  0.3341
56096SOL    HW175528   7.835   1.902   6.025 -0.3901 -0.1833  0.8754
56096SOL    HW275529   7.778   1.840   6.151 -1.2881  1.3740  1.2603
56097SOL     OW75530   4.406   6.064   9.912  0.1046 -0.1447  0.2467
56097SOL    HW175531   4.316   6.073   9.882  0.1874  0.5984  0.1974
56097SOL    HW275532   4.422   5.970   9.913 -0.5579 -0.2650 -0.0780
56098SOL     OW75533   1.894  12.201   4.336  0.4530 -0.0201  0.2705
56098SOL    HW175534   1.800  12.208   4.315  0.2532 -0.2675  1.0484
56098SOL    HW275535   1.938  12.210   4.252 -0.3013 -0.4602 -0.1859
56099SOL     OW75536   3.676   8.532  11.742 -0.0738 -0.1121 -0.5905
56099SOL    HW175537   3.587   8.568  11.748 -0.0115 -0.1837  1.9893
56099SOL    HW275538   3.664   8.441  11.714 -0.9437 -0.4520  0.8097
56100SOL     OW75539   5.465   5.662   2.623 -0.2860  0.3261 -0.1038
56100SOL    HW175540   5.508   5.670   2.708  0.5631  1.5226 -0.6296
56100SOL    HW275541   5.405   5.736   2.620  0.7805  1.1766 -1.1522
56101SOL     OW75542   0.312   3.575  11.229  0.0009  0.3328 -0.5771
56101SOL    HW175543   0.328   3.646  11.168  0.2503  0.7217 -0.0638
56101SOL    HW275544   0.241   3.524  11.189  1.3629 -0.4692 -2.0765
56102SOL     OW75545   5.161   7.278   0.894 -1.2762  0.1144 -0.1208
56102SOL    HW175546   5.134   7.216   0.961 -0.5187  0.2786  0.3485
56102SOL    HW275547   5.172   7.361   0.941  1.6680 -0.2954  0.1041
56103SOL     OW75548   7.752   3.677   0.558 -0.1390 -0.3225  0.4749
56103SOL    HW175549   7.739   3.719   0.473 -1.4269 -0.4341  0.5996
56103SOL    HW275550   7.735   3.747   0.622  0.3420 -0.3603  0.6471
56104SOL     OW75551   8.170   1.277   0.167 -0.1892 -0.0533  0.6603
56104SOL    HW175552   8.199   1.364   0.195 -0.5371  0.6445 -1.0042
56104SOL    HW275553   8.140   1.235   0.247  1.0270  0.9335  1.6832
56105SOL     OW75554   0.272   9.965   1.971  0.3501  0.3370 -0.1636
56105SOL    HW175555   0.220   9.981   1.892  1.3888  2.5448 -0.4989
56105SOL    HW275556   0.323   9.887   1.951 -1.4994 -0.8387 -0.5069
56106SOL     OW75557   9.283   9.978   1.525 -0.2531  0.5210  0.0484
56106SOL    HW175558   9.286   9.924   1.446 -1.9864  2.3890 -1.3634
56106SOL    HW275559   9.347  10.047   1.509  0.9168 -0.2258  1.2452
56107SOL     OW75560   5.706   9.900  11.692 -0.4613  0.0176 -0.5411
56107SOL    HW175561   5.766   9.952  11.746 -0.0463 -0.6375 -0.3658
56107SOL    HW275562   5.625   9.951  11.692 -0.4233  0.1183  0.5886
56108SOL     OW75563  10.939   6.109  11.191  0.0867 -0.3811 -0.1366
56108SOL    HW175564  10.882   6.181  11.217 -0.1611 -0.1540 -1.2350
56108SOL    HW275565  10.989   6.144  11.117  1.5272 -0.6388  0.6848
56109SOL     OW75566   1.846   4.897   3.206 -0.2842 -0.1383 -0.3149
56109SOL    HW175567   1.751   4.892   3.204 -0.2030 -1.6596 -1.3491
56109SOL    HW275568   1.875   4.810   3.232  0.8505 -0.0509 -1.1816
56110SOL     OW75569  11.328   8.689  11.537 -0.2329 -0.7734 -0.4304
56110SOL    HW175570  11.338   8.681  11.632  0.4189 -1.6128 -0.5646
56110SOL    HW275571  11.233   8.692  11.523 -0.3813  2.3323  0.4589
56111SOL     OW75572   7.242   0.172   3.905 -0.5345  0.0550  0.3011
56111SOL    HW175573   7.207   0.085   3.923 -0.9234  0.2555  0.5131
56111SOL    HW275574   7.198   0.200   3.825  0.9022 -0.6738 -0.7969
56112SOL     OW75575  11.380   4.649   2.679  0.0844 -0.0900  0.5636
56112SOL    HW175576  11.342   4.626   2.595 -0.1221 -2.2427  1.1988
56112SOL    HW275577  11.472   4.621   2.672 -0.2866 -1.6608  1.5171
56113SOL     OW75578   1.503  10.604  10.226 -0.0527  0.9208 -0.2670
56113SOL    HW175579   1.470  10.645  10.306  0.3971  1.8617 -0.5400
56113SOL    HW275580   1.476  10.663  10.156  1.4562  1.2837 -0.5751
56114SOL     OW75581   7.265  11.859   7.484 -0.3634 -0.0616 -0.4976
56114SOL    HW175582   7.355  11.892   7.484 -0.7432  1.1299  1.5399
56114SOL    HW275583   7.227  11.893   7.404  0.5167  0.9053 -0.5322
56115SOL     OW75584   9.709  10.059  11.881  0.3146 -0.0735 -1.0817
56115SOL    HW175585   9.802  10.039  11.891  0.4148 -0.2875 -2.3419
56115SOL    HW275586   9.689  10.116  11.956  2.1293  2.2480 -2.2285
56116SOL     OW75587   1.866   2.742  11.780 -0.7713  0.5996  0.3794
56116SOL    HW175588   1.931   2.676  11.754 -1.1330  0.0006  0.9594
56116SOL    HW275589   1.915   2.806  11.831 -0.7800 -0.3415  1.6252
56117SOL     OW75590  12.326  11.649   6.042  0.3885 -0.7310  0.4061
56117SOL    HW175591  12.239  11.659   6.082 -0.2584  0.6498 -1.2561
56117SOL    HW275592  12.383  11.629   6.116 -1.1395 -0.5427  1.7083
56118SOL     OW75593   1.564  12.259  11.049  0.7379 -0.4046  0.8109
56118SOL    HW175594   1.652  12.235  11.019 -0.8003 -1.4403 -3.5847
56118SOL    HW275595   1.518  12.176  11.060 -0.6260  0.1599 -0.3804
56119SOL     OW75596  12.368  11.346   2.924 -0.1137  0.4034 -0.1709
56119SOL    HW175597  12.443  11.405   2.935  1.3662 -1.4019 -0.0179
56119SOL    HW275598  12.307  11.395   2.868  0.5295  2.4735  0.8177
56120SOL     OW75599   7.925   4.367  10.489 -0.5628  0.2616  0.2074
56120SOL    HW175600   7.875   4.396  10.413  1.4324  0.3517 -1.1527
56120SOL    HW275601   7.993   4.310  10.453  1.9808  2.2258  1.5426
56121SOL     OW75602   7.846  11.120   4.830  0.1058  0.2307  0.1627
56121SOL    HW175603   7.765  11.156   4.865 -0.3640 -1.0581  0.4612
56121SOL    HW275604   7.849  11.031   4.864  1.7976  0.3429  0.3825
56122SOL     OW75605   4.468   5.185   9.275  0.0663  0.1375  0.3024
56122SOL    HW175606   4.483   5.233   9.194 -2.3724 -0.5272 -0.6273
56122SOL    HW275607   4.423   5.248   9.332  0.9310  0.3052  0.8272
56123SOL     OW75608   8.859  11.895   5.749  0.0504  0.1893 -0.3122
56123SOL    HW175609   8.933  11.835   5.764 -0.6963 -0.9316 -0.9829
56123SOL    HW275610   8.864  11.957   5.822  1.8063  0.3185 -0.4852
56124SOL     OW75611   6.229  10.575   8.979 -0.9257 -0.6361  0.6322
56124SOL    HW175612   6.255  10.582   9.071 -0.3581 -2.5964  0.6523
56124SOL    HW275613   6.298  10.523   8.939  0.0511  2.0329 -1.4637
56125SOL     OW75614  10.665   9.030   6.933  0.4829 -0.8087 -0.4444
56125SOL    HW175615  10.649   9.007   7.024 -1.3439  0.3417 -0.4354
56125SOL    HW275616  10.758   9.011   6.920  0.6600 -1.5018  1.4835
56126SOL     OW75617   5.553  12.539   8.922  0.4350  0.1435  0.0508
56126SOL    HW175618   5.542  12.460   8.974 -1.1904  0.4173  0.1850
56126SOL    HW275619   5.596  12.601   8.980 -0.4604  0.1240  0.7486
56127SOL     OW75620   4.695   0.311  11.673 -0.1175  0.3460  0.4707
56127SOL    HW175621   4.624   0.257  11.710 -1.0191  0.8435 -0.4755
56127SOL    HW275622   4.692   0.293  11.579  2.5573 -1.3919  0.6088
56128SOL     OW75623   0.671   1.887   4.483 -0.0176 -0.1598  0.0210
56128SOL    HW175624   0.701   1.882   4.574 -2.6057  1.4574  1.0705
56128SOL    HW275625   0.623   1.806   4.469 -3.0550  1.2188  1.5733
56129SOL     OW75626   5.315  12.705   2.543  0.2692  0.4768 -0.7944
56129SOL    HW175627   5.348  12.653   2.469  3.5314  2.4287 -0.9092
56129SOL    HW275628   5.264  12.776   2.501 -0.0824  0.1344 -0.9563
56130SOL     OW75629  11.777  10.142   6.857 -0.0076 -0.5187  0.3681
56130SOL    HW175630  11.836  10.098   6.918  0.3236 -0.7138 -0.0853
56130SOL    HW275631  11.710  10.077   6.836  0.6524 -0.9293 -0.5388
56131SOL     OW75632   4.758  10.884  12.609  0.1727  0.4913 -0.0995
56131SOL    HW175633   4.827  10.948  12.628  0.4808 -0.4866  2.5876
56131SOL    HW275634   4.772  10.815  12.674 -1.9044 -0.8924 -1.0321
56132SOL     OW75635  12.638   1.601   2.958  0.0018  0.3068 -0.2523
56132SOL    HW175636  12.593   1.678   2.924 -0.7203 -0.3627 -0.8492
56132SOL    HW275637  12.645   1.542   2.883  1.7788  0.3311 -0.1497
56133SOL     OW75638   3.818  11.818   4.255 -0.2373  0.2691 -0.1605
56133SOL    HW175639   3.817  11.858   4.168  1.0963 -0.9115 -0.7740
56133SOL    HW275640   3.875  11.875   4.307 -0.6142  0.6897 -0.2010
56134SOL     OW75641  12.512   4.271   7.046  0.2046  0.3086 -0.3258
56134SOL    HW175642  12.481   4.285   7.135  0.8417  0.2665 -0.0894
56134SOL    HW275643  12.461   4.333   6.993  1.6643  2.2872  0.4423
56135SOL     OW75644   1.041   7.652   0.767 -0.7504 -0.3799  0.9079
56135SOL    HW175645   1.107   7.716   0.796 -0.3192 -0.1888 -0.4389
56135SOL    HW275646   0.959   7.701   0.765 -0.7197 -0.2988  1.4047
56136SOL     OW75647   0.033   9.134   4.307 -0.2437  0.3636  0.4264
56136SOL    HW175648   0.032   9.089   4.223 -0.5030 -1.0579  1.1511
56136SOL    HW275649  -0.023   9.080   4.364 -0.6815  1.7019  1.3068
56137SOL     OW75650   0.782   8.946   7.394 -0.0595  0.4540  0.2229
56137SOL    HW175651   0.850   8.960   7.328 -0.6119 -1.0968 -0.7089
56137SOL    HW275652   0.715   9.010   7.374  0.2681  0.7221 -0.0345
56138SOL     OW75653   4.181  10.762   4.525  0.3681  0.1504  0.5884
56138SOL    HW175654   4.100  10.752   4.575  0.0400  1.0110  0.2469
56138SOL    HW275655   4.229  10.681   4.541 -1.5609 -1.4425 -1.0268
56139SOL     OW75656   2.783   8.157  12.565 -0.0638 -0.1967  0.1611
56139SOL    HW175657   2.830   8.171  12.483 -0.1633  0.1466  0.1597
56139SOL    HW275658   2.789   8.063  12.581  1.2145 -0.0874  0.5028
56140SOL     OW75659   2.916   6.154  11.517  0.3958 -0.6397 -0.1717
56140SOL    HW175660   2.910   6.058  11.514  1.0137 -0.6959  0.3034
56140SOL    HW275661   2.825   6.183  11.526  0.2033 -1.1820 -0.3234
56141SOL     OW75662  11.740  11.884   1.394  0.0449 -0.8833 -0.5940
56141SOL    HW175663  11.669  11.820   1.388  0.4626 -1.3259 -0.9845
56141SOL    HW275664  11.700  11.962   1.432 -0.8060 -0.8949 -1.4340
56142SOL     OW75665   9.449  12.103   8.200 -0.0381 -0.9312  0.6812
56142SOL    HW175666   9.452  12.173   8.135 -0.9719 -1.6595 -0.1855
56142SOL    HW275667   9.541  12.083   8.219  0.2677  1.1576  1.6996
56143SOL     OW75668  10.435  11.615   0.885 -0.0123 -0.1942  0.2558
56143SOL    HW175669  10.404  11.703   0.904  0.6712 -0.2269  1.6244
56143SOL    HW275670  10.357  11.568   0.855 -0.6862  0.4668  0.9327
56144SOL     OW75671   2.654   0.916   1.429 -0.3981 -0.0644 -0.3218
56144SOL    HW175672   2.628   0.827   1.455  0.4391 -0.3567 -0.4591
56144SOL    HW275673   2.577   0.970   1.449 -0.3743 -0.5452  1.2414
56145SOL     OW75674   3.828   9.912   5.395  0.0339 -0.0430  0.1753
56145SOL    HW175675   3.856   9.830   5.436  0.7663  0.6685  1.1399
56145SOL    HW275676   3.879   9.980   5.439  1.3612  0.7508 -2.3774
56146SOL     OW75677   5.129   7.506   6.127  0.2734  0.0242 -0.2440
56146SOL    HW175678   5.120   7.553   6.209  0.7434 -0.5980  0.1774
56146SOL    HW275679   5.179   7.565   6.070  1.0885 -0.0729  0.3651
56147SOL     OW75680   7.768   6.925  11.232 -0.2100  0.2227 -0.7888
56147SOL    HW175681   7.693   6.920  11.291 -0.7195  1.1378 -1.3425
56147SOL    HW275682   7.777   7.018  11.211  0.5859  0.0331 -1.3636
56148SOL     OW75683   4.811   8.144   1.240 -0.2805  0.2429  0.5656
56148SOL    HW175684   4.879   8.204   1.210 -1.4250  1.1758 -0.2933
56148SOL    HW275685   4.852   8.058   1.239  1.3358  0.9631  1.5960
56149SOL     OW75686   1.450  11.104   9.452 -0.1505  0.5419  0.0868
56149SOL    HW175687   1.383  11.119   9.384  0.9105  0.6464 -0.9787
56149SOL    HW275688   1.411  11.140   9.531 -1.4721  0.3488 -0.4337
56150SOL     OW75689   1.806   7.032   5.862 -0.2736 -0.8688 -0.4557
56150SOL    HW175690   1.811   7.126   5.843 -0.1162 -1.3036 -3.0037
56150SOL    HW275691   1.729   7.002   5.814  0.4347 -2.2473 -0.7935
56151SOL     OW75692   5.946  10.448   2.743  0.0588 -0.6761  0.3717
56151SOL    HW175693   5.942  10.529   2.694 -0.1467 -0.3016  0.9878
56151SOL    HW275694   5.956  10.475   2.834 -1.0949 -1.3000  0.7104
56152SOL     OW75695   7.470   4.779  10.063 -0.2393 -0.0501 -0.1046
56152SOL    HW175696   7.512   4.763   9.979  2.3065 -0.8600  1.2109
56152SOL    HW275697   7.543   4.787  10.125 -2.0184 -0.0079  2.1140
56153SOL     OW75698   6.319   3.020   1.490 -0.0614  0.6041 -0.0881
56153SOL    HW175699   6.314   3.107   1.450  0.2729  1.9485  2.5098
56153SOL    HW275700   6.228   2.992   1.499 -0.1803  0.7579 -0.7534
56154SOL     OW75701   0.696   0.252  12.457 -0.0932  0.1462 -0.7566
56154SOL    HW175702   0.779   0.255  12.505 -0.3179  0.6325 -0.3919
56154SOL    HW275703   0.629   0.240  12.525 -0.2019 -2.0060 -1.1795
56155SOL     OW75704   2.477  10.405  10.278 -0.5816  0.3590  0.4934
56155SOL    HW175705   2.516  10.326  10.318  0.7811  0.4219 -0.6397
56155SOL    HW275706   2.383  10.387  10.276 -0.3921 -0.8201  1.1576
56156SOL     OW75707  11.700   1.822   8.096 -0.2925 -0.0370  0.2066
56156SOL    HW175708  11.669   1.767   8.168 -2.6637  0.8387 -0.0472
56156SOL    HW275709  11.624   1.830   8.038  1.1228  0.4615 -1.6670
56157SOL     OW75710   3.405   4.386   2.293 -0.2887 -0.2484 -0.0901
56157SOL    HW175711   3.418   4.296   2.321 -1.0259 -0.5129 -0.5708
56157SOL    HW275712   3.329   4.383   2.234 -1.0183  0.8336  0.7409
56158SOL     OW75713   9.345   9.703   2.138  0.3149  0.1812 -0.2251
56158SOL    HW175714   9.278   9.646   2.100  1.9631 -1.5945 -0.6320
56158SOL    HW275715   9.348   9.679   2.231  2.1551 -1.7436 -0.6963
56159SOL     OW75716  10.877   7.314   7.273 -0.6727 -0.9066 -0.3540
56159SOL    HW175717  10.850   7.347   7.187 -0.0585 -3.1058 -1.4817
56159SOL    HW275718  10.797   7.278   7.312 -0.7400 -0.9176 -0.5027
56160SOL     OW75719   6.154   8.935   5.152 -0.6561 -0.0082 -0.0178
56160SOL    HW175720   6.091   8.923   5.082  0.4946  0.9069 -1.2444
56160SOL    HW275721   6.212   8.858   5.146 -0.0231  0.5112 -0.6587
56161SOL     OW75722   8.822   2.394  11.331 -0.4882  0.2778  0.1551
56161SOL    HW175723   8.875   2.379  11.408 -1.1436 -0.2299  0.5171
56161SOL    HW275724   8.745   2.440  11.364 -0.6912  0.2091 -0.2178
56162SOL     OW75725   9.070   9.590   7.402 -1.2150 -0.4136 -0.1878
56162SOL    HW175726   9.132   9.523   7.375 -0.8090 -0.9220  1.8375
56162SOL    HW275727   8.985   9.555   7.377 -1.0668 -2.0274  1.3372
56163SOL     OW75728   0.386   3.840  10.033  0.2410  0.3946  0.4074
56163SOL    HW175729   0.302   3.811  10.068 -0.5610  1.3897 -0.6418
56163SOL    HW275730   0.434   3.759  10.016  0.0684 -0.1565  2.3189
56164SOL     OW75731   1.954   6.210   2.546  0.1529  0.1556  0.4429
56164SOL    HW175732   2.038   6.221   2.502 -0.7512  1.6182 -1.0574
56164SOL    HW275733   1.965   6.134   2.602  2.5851  0.5387  0.5690
56165SOL     OW75734   6.004  10.669   7.135  0.1093 -0.0260  0.3311
56165SOL    HW175735   6.049  10.729   7.196 -1.5392  0.7870  0.8034
56165SOL    HW275736   6.072  10.643   7.073  1.0716  1.7591  0.5573
56166SOL     OW75737   1.215   1.569   2.611 -0.1240  0.0208  0.0552
56166SOL    HW175738   1.282   1.616   2.661 -1.6079  1.7319  0.5313
56166SOL    HW275739   1.133   1.594   2.652 -1.0835 -2.1938 -0.3873
56167SOL     OW75740  12.310   4.079   3.878 -0.0384 -1.1131 -0.0216
56167SOL    HW175741  12.350   4.071   3.792 -0.5045 -2.1046 -0.1545
56167SOL    HW275742  12.224   4.116   3.862  0.0540 -0.8477  0.0751
56168SOL     OW75743  11.963   3.129   9.243  0.0020 -0.1477 -0.0007
56168SOL    HW175744  11.955   3.156   9.335 -0.2313 -1.9199  0.5335
56168SOL    HW275745  11.989   3.209   9.197 -0.4500  0.9162  1.5066
56169SOL     OW75746  10.497   8.177   3.414 -0.0734  0.0304 -0.5083
56169SOL    HW175747  10.511   8.243   3.346  2.9164  0.8816  0.7591
56169SOL    HW275748  10.536   8.097   3.378  1.1822  0.3883  0.0259
56170SOL     OW75749   9.620   9.405   0.202  0.0192  0.2955  0.2014
56170SOL    HW175750   9.547   9.460   0.231 -0.8653  0.2316 -1.7101
56170SOL    HW275751   9.578   9.330   0.160  1.1583  0.4435 -1.2886
56171SOL     OW75752   0.608   8.288   4.135 -0.1499  0.3387  0.2165
56171SOL    HW175753   0.627   8.220   4.071  0.2737 -0.2040  0.9038
56171SOL    HW275754   0.682   8.286   4.195  1.3004  3.3263 -1.2728
56172SOL     OW75755   4.768   9.734   2.551 -0.4845 -0.5166 -0.4507
56172SOL    HW175756   4.825   9.807   2.528  0.3336 -1.3530 -1.1293
56172SOL    HW275757   4.731   9.759   2.636 -0.3274  0.7401 -0.7228
56173SOL     OW75758  11.122  10.300  11.929 -0.8392 -0.0749 -0.0075
56173SOL    HW175759  11.198  10.249  11.901 -0.7510 -0.9323  1.6552
56173SOL    HW275760  11.052  10.235  11.940 -1.4127  0.5045 -0.1597
56174SOL     OW75761  11.776   9.551   3.189 -0.3922 -0.1772  0.0725
56174SOL    HW175762  11.687   9.518   3.179 -0.1554 -0.7107 -0.2891
56174SOL    HW275763  11.802   9.527   3.278 -0.2462 -0.9021 -0.1656
56175SOL     OW75764  12.081   7.336   9.928  0.1561  0.0987  0.3923
56175SOL    HW175765  12.094   7.348  10.022 -0.7005  1.4474  0.3671
56175SOL    HW275766  12.068   7.424   9.893  1.2861 -0.2968 -1.1499
56176SOL     OW75767  11.644   6.510  11.641 -0.2663 -0.2896  0.2946
56176SOL    HW175768  11.709   6.571  11.676  0.6205 -1.6443  1.1148
56176SOL    HW275769  11.638   6.531  11.548 -1.4259  2.2919  0.8761
56177SOL     OW75770   0.484   5.505   7.869  0.0505 -0.5627  0.0643
56177SOL    HW175771   0.442   5.473   7.949 -0.6524 -0.8215 -0.3981
56177SOL    HW275772   0.486   5.429   7.811  0.6464 -0.4024 -0.1366
56178SOL     OW75773  12.482  11.943  11.437 -0.0004 -0.7716 -0.4847
56178SOL    HW175774  12.513  12.028  11.469  1.0713 -1.4378  0.3188
56178SOL    HW275775  12.492  11.948  11.342 -0.8815  0.3441 -0.5388
56179SOL     OW75776   2.426   6.765  12.106  0.0161  0.1285  0.1600
56179SOL    HW175777   2.355   6.773  12.043  1.9518 -0.8771 -2.3490
56179SOL    HW275778   2.401   6.692  12.162 -1.3088  0.3625 -0.1079
56180SOL     OW75779  11.545   6.475   9.395  0.0663  0.1558 -0.2977
56180SOL    HW175780  11.552   6.569   9.380 -1.0561  0.3115  0.0237
56180SOL    HW275781  11.635   6.445   9.408  0.2517  1.7426  2.9118
56181SOL     OW75782   3.439  11.644  11.202  0.1138  0.1228  0.3396
56181SOL    HW175783   3.365  11.691  11.163  0.5651 -0.0836 -0.7997
56181SOL    HW275784   3.410  11.624  11.291 -1.2032  0.0784 -0.0748
56182SOL     OW75785   4.932   9.847   0.578 -0.0305  0.4320  0.3169
56182SOL    HW175786   5.018   9.888   0.586 -0.3117  1.1011 -0.0426
56182SOL    HW275787   4.885   9.873   0.657 -0.7344  2.1007 -0.5927
56183SOL     OW75788   4.282   9.339  10.663  0.1011 -0.2533 -0.2174
56183SOL    HW175789   4.319   9.250  10.657  2.5980  0.7782 -1.4717
56183SOL    HW275790   4.334   9.382  10.730  0.9919  1.1237 -1.7183
56184SOL     OW75791   2.681   3.217   5.259  0.2690 -0.3209 -0.6296
56184SOL    HW175792   2.679   3.139   5.313 -1.8629 -1.0435 -1.6138
56184SOL    HW275793   2.745   3.275   5.301 -0.3465 -1.3484  1.8898
56185SOL     OW75794  11.423   4.234   4.044  0.0037  0.5120 -0.1824
56185SOL    HW175795  11.473   4.284   3.980  0.0800  1.4985  0.6344
56185SOL    HW275796  11.439   4.277   4.128 -0.6991 -0.2967  0.3932
56186SOL     OW75797   9.857   5.342  11.129 -0.5322  0.0557  0.2831
56186SOL    HW175798   9.796   5.395  11.078 -1.4012 -0.1369  1.1016
56186SOL    HW275799   9.907   5.294  11.064 -1.0405  0.4441 -0.4119
56187SOL     OW75800   8.282   7.882   6.566 -0.2282 -0.4353  0.3853
56187SOL    HW175801   8.354   7.920   6.617  1.1296 -1.9255 -0.3667
56187SOL    HW275802   8.238   7.958   6.528  0.6749  0.5308  1.1938
56188SOL     OW75803   5.227   4.853   6.263 -0.6510 -0.2489  0.0954
56188SOL    HW175804   5.188   4.933   6.298 -1.2161 -0.0532 -0.9242
56188SOL    HW275805   5.279   4.818   6.335 -0.6331  0.8752  0.6571
56189SOL     OW75806   6.323   6.879   3.071 -0.1950  0.1972  0.0769
56189SOL    HW175807   6.391   6.872   3.004 -0.6368  0.6013 -0.4241
56189SOL    HW275808   6.249   6.920   3.026 -0.9763 -0.7479  0.4591
56190SOL     OW75809   5.880   6.225   8.595  0.3297 -0.3371 -0.2078
56190SOL    HW175810   5.902   6.158   8.660 -1.2342  1.5524  2.4662
56190SOL    HW275811   5.946   6.293   8.608 -0.8354  0.6962  0.5063
56191SOL     OW75812   1.927   9.214  12.115 -0.2325 -1.1111  0.4443
56191SOL    HW175813   2.005   9.247  12.070 -0.9354 -0.6570 -0.4800
56191SOL    HW275814   1.932   9.251  12.203  0.4547 -0.8766  0.3115
56192SOL     OW75815   1.030  10.045   3.756 -0.6663  0.2715  0.1215
56192SOL    HW175816   1.061  10.051   3.847  0.2140 -0.4076 -0.1222
56192SOL    HW275817   0.955  10.106   3.753 -0.0019  1.1780  0.9913
56193SOL     OW75818   0.778   8.538   7.335  0.0679 -0.3335 -0.3534
56193SOL    HW175819   0.810   8.461   7.381  0.5770  1.6573  3.0030
56193SOL    HW275820   0.738   8.592   7.403 -2.7971  1.1924 -2.9654
56194SOL     OW75821  10.357   9.774  10.726  0.3651 -0.5739 -0.0695
56194SOL    HW175822  10.331   9.731  10.808  1.0562 -1.4156 -0.2675
56194SOL    HW275823  10.301   9.734  10.659 -2.3208  2.2326  0.3226
56195SOL     OW75824   7.171   5.540   9.131  0.3543  0.0940  0.6650
56195SOL    HW175825   7.232   5.572   9.065  1.4199 -0.6970  1.2437
56195SOL    HW275826   7.106   5.489   9.081 -0.0071  1.1638  0.0186
56196SOL     OW75827   6.182  12.513   2.288 -0.3092 -0.0419  0.0862
56196SOL    HW175828   6.132  12.557   2.356  0.1935 -0.3637  0.6704
56196SOL    HW275829   6.142  12.426   2.282 -0.8995  0.2645 -0.6330
56197SOL     OW75830   9.134   3.252   0.730 -0.1181  0.2751 -0.3186
56197SOL    HW175831   9.083   3.257   0.649  0.3670  0.6867 -0.6052
56197SOL    HW275832   9.177   3.166   0.726 -4.5266 -2.4617  2.2307
56198SOL     OW75833   7.966  10.126   7.572 -0.4449  0.0303 -0.0744
56198SOL    HW175834   7.931  10.064   7.635 -1.3132  1.0887  0.5164
56198SOL    HW275835   8.057  10.138   7.599 -1.1069  1.3741  1.7613
56199SOL     OW75836   0.296  10.826   4.733 -0.1846  0.1078  0.6343
56199SOL    HW175837   0.314  10.746   4.685 -0.4627  0.1259  0.4945
56199SOL    HW275838   0.355  10.891   4.695  1.1953 -0.3890  1.8192
56200SOL     OW75839   1.618   3.997   0.529 -0.2999 -0.5689  0.4156
56200SOL    HW175840   1.604   4.057   0.602  1.2370  0.8696 -0.4121
56200SOL    HW275841   1.530   3.973   0.501 -0.9236 -0.2279  1.9740
56201SOL     OW75842   4.218   9.057   5.302  0.3159  0.2714  0.2065
56201SOL    HW175843   4.135   9.074   5.257  0.2233  0.0902  0.3096
56201SOL    HW275844   4.193   9.010   5.382  0.4953  0.4237  0.3549
56202SOL     OW75845  11.850   9.171   3.242  0.7863  0.1258 -0.1156
56202SOL    HW175846  11.935   9.211   3.257  0.1613  0.6580  2.5143
56202SOL    HW275847  11.787   9.242   3.254 -0.1226 -0.6865  0.0908
56203SOL     OW75848   8.342   2.139   2.994  0.2461 -0.1499 -0.1239
56203SOL    HW175849   8.319   2.225   2.961  0.5284 -1.0949 -3.0627
56203SOL    HW275850   8.437   2.135   2.986  0.5865  0.2565  2.8087
56204SOL     OW75851   4.128   0.862   2.944 -0.2852  0.6551 -0.1770
56204SOL    HW175852   4.201   0.821   2.990  0.6078  2.2997 -0.0213
56204SOL    HW275853   4.052   0.845   3.000 -0.2635 -1.9014 -0.8226
56205SOL     OW75854   0.248   3.426   1.131  0.1919 -0.1717  0.1667
56205SOL    HW175855   0.255   3.359   1.063  0.6286  0.0434 -0.0063
56205SOL    HW275856   0.177   3.396   1.187  1.3622 -1.5516  0.9647
56206SOL     OW75857   0.814   6.396   5.650  0.1801 -0.5377  0.5724
56206SOL    HW175858   0.775   6.439   5.575  0.3871  1.0354  1.3299
56206SOL    HW275859   0.748   6.333   5.679 -1.9280  2.0644  1.8364
56207SOL     OW75860   8.704   1.208  12.318  0.5927  0.1309 -0.3053
56207SOL    HW175861   8.612   1.184  12.305  0.2312  1.4873 -0.4603
56207SOL    HW275862   8.713   1.219  12.413  0.5240  0.2188 -0.3083
56208SOL     OW75863   2.449   9.575   4.957  0.0990 -0.7370  0.2190
56208SOL    HW175864   2.459   9.537   5.044  1.2780 -0.0075  0.4333
56208SOL    HW275865   2.429   9.667   4.974 -1.7048 -0.9981 -0.2944
56209SOL     OW75866   9.828   1.526   6.960 -0.0521 -0.5233 -0.3474
56209SOL    HW175867   9.865   1.465   6.896 -0.4397  1.4167 -2.5782
56209SOL    HW275868   9.868   1.501   7.044  2.3575 -1.7256 -1.7440
56210SOL     OW75869   7.341  10.593   2.271 -0.3356 -0.0703  0.7943
56210SOL    HW175870   7.264  10.636   2.235  0.8635  1.6022  0.1223
56210SOL    HW275871   7.348  10.628   2.360  0.8920  1.5694  0.1008
56211SOL     OW75872  12.412   0.388   5.165  0.0594 -0.0374  0.7090
56211SOL    HW175873  12.348   0.448   5.204 -0.6604  0.4450 -1.1355
56211SOL    HW275874  12.363   0.306   5.153  0.4721 -0.3962  1.3767
56212SOL     OW75875   9.154   6.263  10.867 -0.2654  0.0939  0.0645
56212SOL    HW175876   9.194   6.176  10.860 -0.5016  0.0107 -0.3044
56212SOL    HW275877   9.162   6.300  10.779  0.0635  0.5530  0.2795
56213SOL     OW75878   4.880  12.501  11.327  0.3785 -0.2225  0.1607
56213SOL    HW175879   4.892  12.588  11.363 -0.7764  0.6936 -1.5449
56213SOL    HW275880   4.801  12.467  11.371 -0.1728  0.2999 -0.4105
56214SOL     OW75881  12.368   1.732   1.576 -0.7044  0.2089 -0.0957
56214SOL    HW175882  12.410   1.804   1.528 -1.5129 -0.2038 -1.4901
56214SOL    HW275883  12.431   1.660   1.570 -0.4472  0.4074  0.1898
56215SOL     OW75884   9.796   6.214   8.569  0.3080 -0.6545 -0.1080
56215SOL    HW175885   9.835   6.281   8.512 -0.5228  0.0582  0.1502
56215SOL    HW275886   9.727   6.174   8.515 -1.1088  0.6596  0.6837
56216SOL     OW75887   1.838   7.161  10.657 -0.3123 -0.2790 -0.1142
56216SOL    HW175888   1.875   7.075  10.676 -3.7840 -1.8253  0.4773
56216SOL    HW275889   1.827   7.162  10.562  0.2576 -0.2136 -0.1846
56217SOL     OW75890   4.249   3.602   5.132 -0.0998 -0.4290 -0.3821
56217SOL    HW175891   4.269   3.689   5.096 -0.4290 -1.0601 -2.1850
56217SOL    HW275892   4.153   3.599   5.132 -0.0839 -0.9057 -0.6049
56218SOL     OW75893   9.501  10.126   0.872  0.1388 -1.0740  0.2180
56218SOL    HW175894   9.545  10.053   0.829 -0.8561 -0.4444 -2.0629
56218SOL    HW275895   9.505  10.197   0.808 -3.0488 -0.6269  0.3542
56219SOL     OW75896  11.785   1.158   7.162  0.5118  0.5513  0.5942
56219SOL    HW175897  11.720   1.093   7.188  2.3742 -1.4764  0.4805
56219SOL    HW275898  11.734   1.238   7.146 -1.4363  0.3895  4.7377
56220SOL     OW75899   4.658  12.693   4.415 -0.7232  0.0997 -0.1670
56220SOL    HW175900   4.676  12.654   4.501 -0.0968 -1.1390 -0.8377
56220SOL    HW275901   4.603  12.769   4.435 -0.4464 -0.0600  1.3437
56221SOL     OW75902   2.885  12.111   1.602  0.4491 -0.2178 -0.1976
56221SOL    HW175903   2.911  12.085   1.514 -1.5283 -0.5922 -0.7139
56221SOL    HW275904   2.804  12.064   1.618  0.1323  0.7812  1.3541
56222SOL     OW75905   1.953  10.879   9.222  0.1683  0.2747  0.6165
56222SOL    HW175906   1.884  10.904   9.162  1.1954  1.6104 -0.0529
56222SOL    HW275907   2.029  10.860   9.166  0.7294  0.1331  1.4016
56223SOL     OW75908   6.803   2.295   9.026  0.4821 -0.0863 -0.2882
56223SOL    HW175909   6.883   2.268   9.071 -0.9640 -3.2594  0.6372
56223SOL    HW275910   6.791   2.386   9.052  2.2277 -0.3966  1.9657
56224SOL     OW75911   7.690  10.282   4.739 -0.0746 -0.3350 -0.0016
56224SOL    HW175912   7.758  10.311   4.799 -0.7664 -1.5674  1.4563
56224SOL    HW275913   7.737  10.245   4.664  0.8034  1.1804 -0.2499
56225SOL     OW75914   4.311   9.804   5.674  0.2032 -0.4710  0.2920
56225SOL    HW175915   4.310   9.860   5.751  0.8819  0.7377 -0.5484
56225SOL    HW275916   4.321   9.715   5.708 -2.7537 -0.3704  1.7905
56226SOL     OW75917   9.865   7.173   3.371 -0.6808 -0.0771  0.0887
56226SOL    HW175918   9.848   7.197   3.462 -1.6385  0.0143 -0.0979
56226SOL    HW275919   9.817   7.239   3.320  0.0637  0.0308 -0.4854
56227SOL     OW75920   5.555  12.107   1.340  0.3292  0.1722 -0.5026
56227SOL    HW175921   5.462  12.103   1.320  0.7486 -0.5738 -2.6483
56227SOL    HW275922   5.584  12.191   1.304  0.5099  0.3546  0.0626
56228SOL     OW75923   7.463   2.329   6.463  0.0890  0.6828  0.0974
56228SOL    HW175924   7.547   2.284   6.465  0.3311  1.1428  0.1243
56228SOL    HW275925   7.476   2.404   6.405 -0.0369  1.2915  0.8462
56229SOL     OW75926  12.381   4.777   4.299  0.4886  0.0565  0.0313
56229SOL    HW175927  12.320   4.714   4.260  1.0636 -0.8706  0.5930
56229SOL    HW275928  12.467   4.751   4.265  0.9434 -0.4929  1.5402
56230SOL     OW75929   1.695  11.752   8.521  0.9822  1.0946  0.2252
56230SOL    HW175930   1.737  11.724   8.439 -1.6268 -0.3862 -0.7526
56230SOL    HW275931   1.764  11.797   8.569  3.2950 -0.0861 -1.7297
56231SOL     OW75932  10.911   0.440  11.568 -0.0852 -0.7811 -0.1670
56231SOL    HW175933  10.981   0.438  11.503 -1.9449  0.4957 -2.3526
56231SOL    HW275934  10.919   0.526  11.610 -1.1201 -0.0405 -1.4164
56232SOL     OW75935  10.437   2.399   6.487  0.7643 -0.5357  0.6221
56232SOL    HW175936  10.454   2.447   6.406  1.9944 -0.0022  1.1637
56232SOL    HW275937  10.480   2.314   6.474 -0.1044 -0.9301  0.2526
56233SOL     OW75938   6.145   0.252  12.238 -0.2745  0.6197  0.1055
56233SOL    HW175939   6.065   0.278  12.284  0.4507  3.2871  0.0437
56233SOL    HW275940   6.214   0.260  12.305 -0.0500 -2.1475  0.3053
56234SOL     OW75941   4.084   7.095  11.845  0.0123  0.1032  0.0326
56234SOL    HW175942   4.039   7.168  11.889 -1.6345 -0.3463 -0.8672
56234SOL    HW275943   4.053   7.017  11.889  1.1121 -0.1485  0.4088
56235SOL     OW75944  10.644   7.952   3.728  0.0987 -0.4761 -0.7048
56235SOL    HW175945  10.587   7.897   3.673 -1.4446  0.2883  0.0704
56235SOL    HW275946  10.608   8.040   3.719 -1.3445 -0.5521  2.8247
56236SOL     OW75947   4.204   3.786   9.725  0.1400  0.1418  0.1484
56236SOL    HW175948   4.153   3.722   9.775  0.0322 -0.1811 -0.3718
56236SOL    HW275949   4.295   3.759   9.738  0.0034 -1.7664 -2.2265
56237SOL     OW75950   1.857   5.952   9.871  0.0492  0.2319 -0.0237
56237SOL    HW175951   1.897   5.908   9.946 -1.3795 -0.8427  0.1331
56237SOL    HW275952   1.851   5.885   9.803  1.3672  1.2031 -1.1653
56238SOL     OW75953  10.342   6.103   6.963 -0.5401  0.2821 -0.2531
56238SOL    HW175954  10.278   6.171   6.941 -1.4038 -0.4611 -0.0937
56238SOL    HW275955  10.409   6.149   7.014 -1.1366  1.0026 -0.1016
56239SOL     OW75956   8.063   5.755   2.856  0.2920  0.2091 -0.4084
56239SOL    HW175957   8.037   5.730   2.768 -0.6840 -1.0968  0.2275
56239SOL    HW275958   8.039   5.681   2.911  1.0885  0.9008  0.9365
56240SOL     OW75959   3.135   2.954   0.116  0.2836  0.4272  0.2120
56240SOL    HW175960   3.072   2.972   0.185 -0.7347 -0.2914 -0.4926
56240SOL    HW275961   3.204   3.019   0.128  0.2414  0.1815  2.0131
56241SOL     OW75962   4.761   5.749   5.492 -0.1387 -0.6220 -0.1611
56241SOL    HW175963   4.807   5.830   5.469  0.4282 -0.4090  1.5269
56241SOL    HW275964   4.749   5.703   5.409  0.0844  0.9051 -1.0791
56242SOL     OW75965   3.354   9.025   2.480 -0.1865 -0.7054  0.3518
56242SOL    HW175966   3.445   9.003   2.460 -0.3714 -2.3766  1.2276
56242SOL    HW275967   3.304   8.990   2.407 -0.2516 -0.9343  0.5068
56243SOL     OW75968  10.208   8.026  11.358  0.1691 -0.3077 -0.0527
56243SOL    HW175969  10.270   8.012  11.430  0.0818  0.0786  0.0994
56243SOL    HW275970  10.261   8.067  11.290 -0.3194  1.8208  0.7869
56244SOL     OW75971   3.347   8.715   6.805 -0.2589 -0.2050 -0.2169
56244SOL    HW175972   3.428   8.744   6.848  0.3318  1.0634 -2.0364
56244SOL    HW275973   3.337   8.624   6.832  1.4783 -0.2386  0.4914
56245SOL     OW75974   7.958   6.998   8.470 -0.3973  0.2436 -0.5903
56245SOL    HW175975   7.939   7.074   8.526  2.7931  1.1923 -0.5868
56245SOL    HW275976   7.997   7.035   8.391  1.6342 -1.3694 -0.4238
56246SOL     OW75977  10.910   0.399   1.549 -0.0495 -0.0998 -0.7674
56246SOL    HW175978  10.964   0.393   1.627 -0.3629  1.5808 -0.3648
56246SOL    HW275979  10.972   0.417   1.478  0.3548 -2.6777 -1.1602
56247SOL     OW75980  11.502  11.171  11.816  0.0072 -0.0318  0.0750
56247SOL    HW175981  11.471  11.250  11.771 -0.1309 -0.1125  0.0259
56247SOL    HW275982  11.421  11.123  11.837  0.1046 -0.2858 -0.1263
56248SOL     OW75983   1.622   8.853   8.669 -0.1941  0.4775  0.0182
56248SOL    HW175984   1.636   8.822   8.759 -0.1111  0.3638 -0.0327
56248SOL    HW275985   1.631   8.948   8.674 -0.4562  0.4936  0.1785
56249SOL     OW75986   1.126   3.641   9.306 -0.1326  0.1968  0.6224
56249SOL    HW175987   1.087   3.642   9.394  0.6349  0.4493  0.9668
56249SOL    HW275988   1.072   3.702   9.255 -0.7932 -0.2073  0.8186
56250SOL     OW75989   1.718  10.315   6.925  0.2710 -0.1581  0.5329
56250SOL    HW175990   1.811  10.323   6.906  0.2768  0.0221  0.6334
56250SOL    HW275991   1.713  10.247   6.992  0.4675  0.8114  1.5599
56251SOL     OW75992   0.498   8.311   2.182 -0.0003  0.0975  0.1787
56251SOL    HW175993   0.499   8.337   2.090 -0.7616  1.1794  0.4667
56251SOL    HW275994   0.567   8.363   2.223  0.5506 -0.6100  0.1792
56252SOL     OW75995   3.546   2.562  10.383  0.8416 -0.0187 -0.1920
56252SOL    HW175996   3.457   2.529  10.377  0.9438 -0.3850  0.2661
56252SOL    HW275997   3.601   2.485  10.374  1.0988  0.1307  0.0962
56253SOL     OW75998   6.138   6.874   4.991  0.4540 -0.2532  0.2999
56253SOL    HW175999   6.111   6.783   4.976 -0.1734 -0.2757  1.3778
56253SOL    HW276000   6.227   6.867   5.026  0.9592 -0.3457 -0.9636
56254SOL     OW76001   0.238  12.395   9.810  0.4008  0.2851  0.0197
56254SOL    HW176002   0.306  12.351   9.861 -0.5489 -0.7782  0.4192
56254SOL    HW276003   0.173  12.423   9.875 -0.0986  0.2553 -0.4578
56255SOL     OW76004  10.123   2.478   5.206 -0.0796 -0.3475  0.9703
56255SOL    HW176005  10.151   2.565   5.180 -1.8425  0.9637  3.0818
56255SOL    HW276006  10.041   2.464   5.159  0.0930 -0.8054  0.7974
56256SOL     OW76007   8.047  11.551   3.912 -0.0440  0.2885 -0.0696
56256SOL    HW176008   8.089  11.619   3.965  1.7864 -0.8820  0.0655
56256SOL    HW276009   8.117  11.490   3.891 -1.1451 -0.3621 -2.1621
56257SOL     OW76010   6.480  10.844   5.366 -0.0663 -0.1561 -0.2255
56257SOL    HW176011   6.448  10.843   5.456 -0.0239 -0.2257 -0.2105
56257SOL    HW276012   6.439  10.767   5.326  0.4583 -0.5309 -0.0696
56258SOL     OW76013   8.060   8.847   1.811 -0.1972 -0.0056 -0.0856
56258SOL    HW176014   8.002   8.776   1.784  0.2549 -1.7190  3.0269
56258SOL    HW276015   8.145   8.804   1.823  0.9563  1.7867 -1.2629
56259SOL     OW76016   3.206   0.896  11.810 -0.1485  0.1023  0.2266
56259SOL    HW176017   3.243   0.964  11.866 -0.6855 -0.4879  1.3331
56259SOL    HW276018   3.111   0.908  11.817 -0.3987 -2.3710  2.6280
56260SOL     OW76019  11.307   8.650   8.621 -0.1307  0.2747 -0.4798
56260SOL    HW176020  11.348   8.679   8.539  2.3045 -0.6715  0.3015
56260SOL    HW276021  11.377   8.658   8.686 -1.1106 -1.7208  0.9004
56261SOL     OW76022   8.260   6.102   6.212 -0.7382 -1.0391 -0.3770
56261SOL    HW176023   8.287   6.081   6.122 -0.2681  1.6431 -0.9652
56261SOL    HW276024   8.336   6.148   6.249 -2.0034  0.5866  0.3056
56262SOL     OW76025  12.343   8.352  10.512 -0.2247 -0.0273 -0.1068
56262SOL    HW176026  12.365   8.441  10.485 -0.2350 -0.4556 -1.6168
56262SOL    HW276027  12.362   8.349  10.606 -0.9455  1.7775  0.1252
56263SOL     OW76028   9.361   1.334  12.368 -0.8855 -0.1974  0.0436
56263SOL    HW176029   9.425   1.300  12.305 -0.1231  2.3000 -0.6645
56263SOL    HW276030   9.299   1.383  12.314  0.4817  3.0681  1.1949
56264SOL     OW76031   5.577   5.190  11.909 -0.9321  0.8748 -0.4880
56264SOL    HW176032   5.586   5.154  11.997  0.0417  0.7625 -0.6214
56264SOL    HW276033   5.505   5.253  11.915 -0.0354  1.8120  0.6958
56265SOL     OW76034   6.062  10.625   7.574  0.2237  0.4195  0.2254
56265SOL    HW176035   6.106  10.708   7.558  0.0085  0.4056 -0.5022
56265SOL    HW276036   6.114  10.560   7.525  0.5153  0.0889  0.9621
56266SOL     OW76037   2.942  11.010   7.695 -0.0465 -0.2384 -0.3662
56266SOL    HW176038   2.935  10.923   7.736  1.0486  0.0226  0.4123
56266SOL    HW276039   3.022  11.004   7.642  0.3246  0.4480  0.1060
56267SOL     OW76040   6.432   9.019   0.686 -0.4326 -0.3994 -0.6868
56267SOL    HW176041   6.510   8.968   0.707 -1.1575 -1.7613 -1.1649
56267SOL    HW276042   6.450   9.107   0.719 -0.0282 -1.4734  2.2067
56268SOL     OW76043   2.432  10.937   3.784 -0.1568 -0.2498  0.1238
56268SOL    HW176044   2.515  10.900   3.753 -0.3564 -0.8498  0.2934
56268SOL    HW276045   2.384  10.960   3.704 -0.3308 -1.0296 -0.0019
56269SOL     OW76046   1.522   7.125   2.060  0.0673 -0.0965 -0.6357
56269SOL    HW176047   1.482   7.071   1.992 -0.9421 -0.1802  0.0078
56269SOL    HW276048   1.500   7.215   2.036  0.1995 -0.0883 -0.7269
56270SOL     OW76049   2.517   6.962  11.453 -0.0341 -0.5999  0.0487
56270SOL    HW176050   2.518   6.897  11.383 -0.3454  1.1606 -1.6840
56270SOL    HW276051   2.608   6.968  11.482  0.8081  1.0634 -2.6407
56271SOL     OW76052   0.801  11.494   0.962 -0.0596 -0.2784  0.3589
56271SOL    HW176053   0.732  11.434   0.934  1.7886 -1.7834 -1.3010
56271SOL    HW276054   0.837  11.454   1.041  0.9486 -1.2299 -0.5569
56272SOL     OW76055   4.048   0.937   5.535 -0.1054 -0.0172 -0.2132
56272SOL    HW176056   4.000   0.856   5.518  1.3032 -0.7347 -0.9164
56272SOL    HW276057   3.995   1.005   5.495 -1.6770 -0.4650  1.0013
56273SOL     OW76058   7.877   6.288  10.358  0.3458  0.0958  0.2563
56273SOL    HW176059   7.847   6.222  10.421 -0.0184  1.1405  1.2214
56273SOL    HW276060   7.796   6.329  10.327  0.4913 -0.7278 -1.3006
56274SOL     OW76061  12.398   4.068  10.256 -0.1478  0.4656 -0.1255
56274SOL    HW176062  12.410   4.010  10.181 -0.9540  0.5727 -0.3498
56274SOL    HW276063  12.377   4.153  10.218 -0.9371  0.4349  0.2168
56275SOL     OW76064  12.036   6.182   7.360 -0.1877 -0.5888 -0.4257
56275SOL    HW176065  12.085   6.248   7.410  1.0134  0.7250 -3.1066
56275SOL    HW276066  11.999   6.232   7.286  0.5057 -2.8104 -2.3999
56276SOL     OW76067   8.655  12.346   1.272  0.2477 -0.1712 -0.4022
56276SOL    HW176068   8.633  12.360   1.364  0.9162  0.3510 -0.3158
56276SOL    HW276069   8.570  12.330   1.230 -0.0917 -0.1670  0.2596
56277SOL     OW76070   0.112   2.316   2.014 -0.0634  0.4251  0.0436
56277SOL    HW176071   0.109   2.346   1.923  0.4813  1.7999  0.4433
56277SOL    HW276072   0.177   2.246   2.015 -1.6640 -1.1605 -1.0095
56278SOL     OW76073  12.539   2.977   4.481  0.3870  0.1767 -0.1064
56278SOL    HW176074  12.573   2.990   4.569 -0.2406  1.4880 -0.0398
56278SOL    HW276075  12.571   3.051   4.431 -0.4250  0.1951 -0.6219
56279SOL     OW76076  11.738   0.763   9.406 -0.0557 -0.2182  0.1718
56279SOL    HW176077  11.711   0.674   9.428  0.3587 -0.5559 -0.6268
56279SOL    HW276078  11.770   0.799   9.488 -1.2889 -0.4010  0.7614
56280SOL     OW76079  10.485  11.349   2.474 -0.6041  0.2401  0.4530
56280SOL    HW176080  10.467  11.256   2.480  1.6163 -0.2829 -0.0396
56280SOL    HW276081  10.580  11.356   2.489 -0.5058  2.2654 -0.7352
56281SOL     OW76082   1.550   1.947   4.001 -0.0372  0.8726  0.7248
56281SOL    HW176083   1.508   1.982   3.923  2.0458 -0.0212 -0.8960
56281SOL    HW276084   1.479   1.906   4.050 -1.7450  3.2589  0.4223
56282SOL     OW76085  12.064   6.353   6.534  0.1831 -0.2795  0.3917
56282SOL    HW176086  12.073   6.281   6.472  2.3652  1.4495 -1.4674
56282SOL    HW276087  11.998   6.410   6.496 -1.6720 -1.2681  1.9487
56283SOL     OW76088   7.074   9.473  12.033 -0.3243  0.2672  0.0999
56283SOL    HW176089   7.041   9.472  11.943 -1.4411 -0.2530  0.5010
56283SOL    HW276090   7.087   9.566  12.053 -5.5301  1.0394  1.2870
56284SOL     OW76091  12.047   4.471   4.549 -0.9887  0.4896 -0.1424
56284SOL    HW176092  12.055   4.392   4.494 -1.4846  0.1082  0.3220
56284SOL    HW276093  11.953   4.479   4.565 -0.9456  1.2350 -0.2644
56285SOL     OW76094  11.714   3.333   7.078  0.3492 -0.1960  0.4537
56285SOL    HW176095  11.648   3.335   7.147 -2.4595 -1.9354 -1.9351
56285SOL    HW276096  11.699   3.413   7.028  0.3005 -0.4218  0.1070
56286SOL     OW76097  12.210  11.009   1.188  0.2831  0.3861 -0.3032
56286SOL    HW176098  12.187  11.096   1.221 -1.2027 -0.0493 -0.1376
56286SOL    HW276099  12.296  11.021   1.148 -0.1689  2.0761 -0.8532
56287SOL     OW76100   3.928   8.961  10.857 -0.0520  0.0579  0.4791
56287SOL    HW176101   3.860   9.011  10.901 -1.7613  0.3759 -2.2754
56287SOL    HW276102   3.974   9.025  10.802  1.1702 -0.5281  0.7722
56288SOL     OW76103   7.414   0.429   0.041  0.4444  0.3589 -0.1872
56288SOL    HW176104   7.442   0.517   0.066  1.0872 -0.1744  1.0326
56288SOL    HW276105   7.318   0.433   0.041  0.3452  0.2706  3.0148
56289SOL     OW76106   5.614   5.688   0.954  0.6213  0.3309  0.0229
56289SOL    HW176107   5.671   5.614   0.971  1.5849  1.1072  0.2664
56289SOL    HW276108   5.663   5.764   0.986  0.0706  1.1813 -1.0729
56290SOL     OW76109   0.079   4.604  11.227 -0.3916 -0.6704 -0.2150
56290SOL    HW176110   0.147   4.550  11.267 -1.3310 -0.6593  1.4924
56290SOL    HW276111   0.089   4.690  11.268 -0.4488 -0.2028 -1.1324
56291SOL     OW76112  11.259   4.847  12.473  0.1308 -0.0727  0.2278
56291SOL    HW176113  11.258   4.783  12.544 -0.2104 -0.2531  0.0664
56291SOL    HW276114  11.326   4.813  12.413  0.4834  0.1290  0.5042
56292SOL     OW76115   1.585   8.265   9.429  0.0863 -0.1050  0.1580
56292SOL    HW176116   1.557   8.279   9.519 -1.0692  0.2549 -0.2508
56292SOL    HW276117   1.628   8.347   9.404  0.4972 -0.2400  0.3979
56293SOL     OW76118   7.840   9.442  12.341  0.4962  0.3035  0.4515
56293SOL    HW176119   7.886   9.359  12.327  1.7583  0.9113  0.8683
56293SOL    HW276120   7.775   9.422  12.408  0.4330 -0.4823  0.1629
56294SOL     OW76121  10.454  11.950   7.140  0.3326 -0.5352 -0.1774
56294SOL    HW176122  10.536  11.960   7.189 -1.3851  2.7349  2.4534
56294SOL    HW276123  10.422  11.862   7.163  0.0756  0.4666  4.1612
56295SOL     OW76124   7.700   5.125   6.364 -0.0578  0.1200  0.5424
56295SOL    HW176125   7.757   5.196   6.393  2.5953 -1.4333 -0.5251
56295SOL    HW276126   7.744   5.089   6.287 -2.4082 -1.3559 -0.2116
56296SOL     OW76127   5.009   4.291  12.265 -0.8623  0.4093 -0.4624
56296SOL    HW176128   5.089   4.339  12.288 -1.1632  0.2085  1.1268
56296SOL    HW276129   4.938   4.349  12.291 -1.2227 -0.5184  0.7294
56297SOL     OW76130  10.993   8.466   9.388  0.0043  0.2641  0.5891
56297SOL    HW176131  11.022   8.431   9.473 -0.1980  0.2422  0.6520
56297SOL    HW276132  11.073   8.481   9.339  0.0411 -2.0726 -0.1577
56298SOL     OW76133   0.866  10.014   0.882  0.1744  0.5163 -0.0855
56298SOL    HW176134   0.771  10.022   0.872 -0.0888  0.3746  1.8287
56298SOL    HW276135   0.900  10.006   0.793 -1.3032  3.6315 -1.0466
56299SOL     OW76136   3.980   7.028   4.026  0.0127 -0.3102 -0.0430
56299SOL    HW176137   3.935   7.046   3.944 -1.8195  0.6416  1.0875
56299SOL    HW276138   3.928   6.959   4.067  1.9426 -2.0795 -0.4196
56300SOL     OW76139   0.049   1.517   7.793 -0.6669  0.3373  0.0350
56300SOL    HW176140   0.002   1.444   7.831 -2.3446  1.7247  0.7702
56300SOL    HW276141   0.038   1.507   7.698 -0.8849 -0.3361  0.1329
56301SOL     OW76142   5.162   9.663   0.494 -0.5868  1.0345  0.4898
56301SOL    HW176143   5.225   9.592   0.504 -0.6084  1.2107  2.1566
56301SOL    HW276144   5.136   9.659   0.402  1.0966  0.3287 -0.0011
56302SOL     OW76145   7.973   7.125   9.634  0.1568 -0.0963  0.1695
56302SOL    HW176146   7.893   7.155   9.676 -0.3710 -0.1632 -0.7501
56302SOL    HW276147   7.985   7.186   9.560 -0.9635 -2.0932 -1.7804
56303SOL     OW76148  11.198   4.211  11.696 -0.7942  0.4933 -0.3783
56303SOL    HW176149  11.159   4.204  11.609 -0.7907  0.1278 -0.3526
56303SOL    HW276150  11.243   4.296  11.696 -1.5520  0.9026 -0.4194
56304SOL     OW76151   8.833   0.718  11.115  0.4515  0.8955 -0.0501
56304SOL    HW176152   8.923   0.689  11.102 -0.0098 -0.4900 -0.2941
56304SOL    HW276153   8.831   0.749  11.205  1.0355  0.3817  0.1501
56305SOL     OW76154   3.857  10.084  10.669  0.1110  0.2165 -0.1475
56305SOL    HW176155   3.919  10.044  10.608 -0.5685 -1.4569  0.2166
56305SOL    HW276156   3.772  10.074  10.625 -0.2519 -0.0808  0.6149
56306SOL     OW76157   1.734   0.568   6.238 -0.6883 -0.3441  0.1612
56306SOL    HW176158   1.790   0.586   6.314 -3.8496  0.0478  2.6242
56306SOL    HW276159   1.734   0.649   6.188  0.9608 -0.4011  0.0032
56307SOL     OW76160   1.272   3.379   3.859 -0.3518 -0.2607 -0.1719
56307SOL    HW176161   1.336   3.343   3.920  0.4221  1.2122 -0.0734
56307SOL    HW276162   1.210   3.426   3.915 -0.1843  0.2793 -0.4331
56308SOL     OW76163   1.400   9.383   1.395  0.5977  0.0827  0.3001
56308SOL    HW176164   1.328   9.355   1.453  0.2035  1.4707  0.5118
56308SOL    HW276165   1.470   9.409   1.455 -0.2256  2.6486  0.2816
56309SOL     OW76166   0.115   1.108   3.809 -0.2733 -0.2130 -0.5095
56309SOL    HW176167   0.116   1.125   3.903  0.7372 -1.4974 -0.2617
56309SOL    HW276168   0.176   1.172   3.773 -0.9250  0.5136 -0.3492
56310SOL     OW76169   5.629  12.619   7.838 -0.3769  0.6892 -0.1678
56310SOL    HW176170   5.570  12.667   7.781 -1.2442 -0.7450 -0.5324
56310SOL    HW276171   5.577  12.599   7.916 -0.2406 -0.1799 -0.2892
56311SOL     OW76172   2.544  11.193   0.463  0.0088  0.1626  0.1070
56311SOL    HW176173   2.605  11.122   0.443 -0.1071  0.4087 -1.1985
56311SOL    HW276174   2.600  11.269   0.477  0.0125  0.4831 -1.5014
56312SOL     OW76175   7.421   3.988   1.903  0.5764  0.4625  0.1114
56312SOL    HW176176   7.359   3.946   1.843 -1.7211  1.1999  1.8090
56312SOL    HW276177   7.415   4.081   1.882 -0.7845  0.8225  1.7953
56313SOL     OW76178   6.485   3.968   2.486 -0.8612  0.2851 -0.8203
56313SOL    HW176179   6.401   3.935   2.456 -1.6814  1.1782  0.3897
56313SOL    HW276180   6.500   3.924   2.569 -0.4508  0.6164 -0.7153
56314SOL     OW76181   0.394   0.955  11.973 -0.7294  0.7797  0.3919
56314SOL    HW176182   0.350   0.949  11.888 -3.2755  1.8597  1.5252
56314SOL    HW276183   0.367   0.876  12.019  0.8528  0.0693  0.1571
56315SOL     OW76184  11.438   6.614   3.542 -0.0441  0.0360 -0.1619
56315SOL    HW176185  11.410   6.677   3.608  1.6600  1.2544 -0.5562
56315SOL    HW276186  11.390   6.639   3.463 -0.8621 -0.4271  0.1691
56316SOL     OW76187   1.427  11.748   4.678  0.0059 -0.0351 -0.0130
56316SOL    HW176188   1.424  11.825   4.734  0.0357  0.4293 -0.6487
56316SOL    HW276189   1.498  11.695   4.714 -1.2895 -0.7392  1.6785
56317SOL     OW76190   1.931   5.648   3.691  0.0513 -0.0131  0.3827
56317SOL    HW176191   1.900   5.653   3.600  1.7317  2.5341 -0.1490
56317SOL    HW276192   1.943   5.554   3.706 -0.9048 -0.5662 -1.7970
56318SOL     OW76193   5.122   2.784   6.537  0.4482 -0.3839  0.0839
56318SOL    HW176194   5.175   2.798   6.616  0.5111  0.5303 -0.1027
56318SOL    HW276195   5.112   2.689   6.531  1.1321 -0.5087  0.7396
56319SOL     OW76196  11.890   3.428   7.437 -0.0641 -0.4193  0.2234
56319SOL    HW176197  11.957   3.495   7.447  0.5352 -0.6675 -1.7624
56319SOL    HW276198  11.813   3.476   7.406 -0.6708 -0.2247  1.9170
56320SOL     OW76199   5.646   4.918   3.085  0.5148  0.2235 -0.5714
56320SOL    HW176200   5.669   4.827   3.108 -1.0099  0.0590  0.4048
56320SOL    HW276201   5.707   4.971   3.137  1.4406 -0.2244 -1.1741
56321SOL     OW76202   5.618   4.819   3.963 -0.2550 -0.0305  0.0126
56321SOL    HW176203   5.686   4.886   3.962  0.0452 -0.2819  1.4186
56321SOL    HW276204   5.547   4.855   3.910 -0.2155  1.5229  0.9739
56322SOL     OW76205   5.160   8.829   8.367 -0.2463  0.0017 -0.0829
56322SOL    HW176206   5.209   8.749   8.349  2.8066  1.6420  0.1540
56322SOL    HW276207   5.108   8.844   8.288 -0.7349 -2.0914 -0.1951
56323SOL     OW76208   8.636   8.376  11.229  0.0201  0.1990  0.0253
56323SOL    HW176209   8.717   8.372  11.178 -0.4089  1.5684 -0.8185
56323SOL    HW276210   8.581   8.306  11.194  0.8600 -0.8222  0.6889
56324SOL     OW76211   0.075   5.810   1.213 -0.3343 -0.2514 -0.9231
56324SOL    HW176212   0.106   5.859   1.289 -2.2714 -0.3811  0.0011
56324SOL    HW276213   0.138   5.739   1.203  0.2076  0.0323  0.2769
56325SOL     OW76214  10.405   0.643   4.754 -0.0608 -0.2136 -0.2159
56325SOL    HW176215  10.485   0.622   4.706  0.9357 -1.6282  1.8938
56325SOL    HW276216  10.344   0.574   4.729  1.0940 -2.1188  1.8389
56326SOL     OW76217   5.065   7.431   2.301  0.2484  0.0650 -0.5878
56326SOL    HW176218   5.114   7.460   2.225  2.7690  2.1564  1.6302
56326SOL    HW276219   5.005   7.504   2.321  1.4004  0.6843  0.8000
56327SOL     OW76220   6.891   5.014   8.022 -0.5445  0.4051  0.1846
56327SOL    HW176221   6.923   5.085   8.078  0.5791 -1.5260  2.1497
56327SOL    HW276222   6.966   4.954   8.014 -1.4400 -0.5571 -1.4382
56328SOL     OW76223   0.464   4.392   1.278  0.5778  0.5457 -0.2563
56328SOL    HW176224   0.485   4.335   1.352  0.1068  0.6375 -0.0498
56328SOL    HW276225   0.546   4.399   1.229  1.0731  0.9873  0.6081
56329SOL     OW76226   6.790   8.728   4.854  0.3980 -0.1443  0.0240
56329SOL    HW176227   6.827   8.802   4.903  1.5755 -1.7086  1.6352
56329SOL    HW276228   6.695   8.741   4.860  0.5745  1.2833  0.1468
56330SOL     OW76229   2.347   4.486   7.254  0.4208  0.9322  0.1825
56330SOL    HW176230   2.269   4.504   7.201 -1.1778  0.3141  2.1513
56330SOL    HW276231   2.391   4.570   7.262 -0.5158  1.4807 -0.3026
56331SOL     OW76232   2.871   2.593   2.694 -0.2362  0.0424  0.7707
56331SOL    HW176233   2.921   2.652   2.639  0.5832  1.2049  2.6644
56331SOL    HW276234   2.790   2.641   2.715 -0.4690 -0.3194  0.7153
56332SOL     OW76235  10.950   1.847   1.879  0.0261  0.3819 -0.0246
56332SOL    HW176236  10.920   1.910   1.946 -2.0760  0.3146 -0.8146
56332SOL    HW276237  10.873   1.834   1.823  1.3328 -0.6060 -1.6632
56333SOL     OW76238   8.584   0.589  10.545 -0.0826 -0.0782 -0.4225
56333SOL    HW176239   8.532   0.617  10.620  0.1158 -1.9955  0.4886
56333SOL    HW276240   8.573   0.494  10.542 -1.0345  0.0183 -3.5597
56334SOL     OW76241  12.624   5.512   6.715 -0.4836 -0.0716 -0.8578
56334SOL    HW176242  12.638   5.417   6.720  1.8335  0.2798  1.4137
56334SOL    HW276243  12.531   5.524   6.737 -0.2172 -1.7132  1.5410
56335SOL     OW76244   6.783   9.592  11.575  0.1072  0.7135 -0.3848
56335SOL    HW176245   6.817   9.583  11.664  0.3090  1.3416 -0.3993
56335SOL    HW276246   6.698   9.548  11.578  0.8584 -0.8054 -0.3376
56336SOL     OW76247  11.441   4.900  11.691  0.1285 -0.4243 -0.1235
56336SOL    HW176248  11.380   4.879  11.620 -0.2065  1.7236 -0.5582
56336SOL    HW276249  11.454   4.817  11.737  0.4810 -1.9748 -2.7697
56337SOL     OW76250   1.515   7.365   3.753 -0.0982  0.2576  0.5430
56337SOL    HW176251   1.497   7.272   3.739 -2.1809  0.4300  1.6382
56337SOL    HW276252   1.610   7.370   3.760  0.2121 -1.5049 -1.2901
56338SOL     OW76253   2.685   9.791   1.028  0.1340 -0.2440  0.0440
56338SOL    HW176254   2.685   9.886   1.033  0.0835 -0.2955  1.4486
56338SOL    HW276255   2.777   9.767   1.017  0.0534 -0.0192 -1.3072
56339SOL     OW76256   4.464   5.382   6.366 -0.2836 -0.1212  0.0423
56339SOL    HW176257   4.425   5.457   6.321  0.3260  0.0263 -0.2445
56339SOL    HW276258   4.486   5.321   6.295  1.5161  0.4939  0.0277
56340SOL     OW76259  11.750  10.836   8.536 -0.3121  0.2536 -0.4374
56340SOL    HW176260  11.787  10.924   8.526  1.6661 -0.2205  1.8426
56340SOL    HW276261  11.693  10.843   8.612  2.5315 -1.0598  2.0239
56341SOL     OW76262   1.564   3.451   2.932  0.7539 -0.4836  0.2311
56341SOL    HW176263   1.634   3.451   2.998  2.4999 -1.6004 -1.4800
56341SOL    HW276264   1.609   3.474   2.850 -1.6147  2.5664 -0.3923
56342SOL     OW76265   7.347   2.115   3.530 -0.2548  0.5810 -0.9710
56342SOL    HW176266   7.421   2.176   3.525  3.0534 -2.9653 -0.1502
56342SOL    HW276267   7.318   2.105   3.440  2.3451 -0.0903 -1.8208
56343SOL     OW76268   7.409   9.700   5.309 -0.8793  0.5955 -0.6057
56343SOL    HW176269   7.439   9.627   5.362 -2.2283 -1.2345 -2.2259
56343SOL    HW276270   7.457   9.776   5.343  2.1833 -1.3499 -0.2406
56344SOL     OW76271  12.279   6.940  10.908 -0.0897  0.5908  0.0491
56344SOL    HW176272  12.354   6.882  10.891 -1.3243 -0.6988 -1.3434
56344SOL    HW276273  12.252   6.919  10.997  0.8186  0.6199  0.3439
56345SOL     OW76274   7.532   5.489   9.233 -0.3293 -0.2465 -0.8155
56345SOL    HW176275   7.559   5.545   9.160  3.3396 -0.3072  0.3202
56345SOL    HW276276   7.481   5.419   9.191 -0.5885  1.1045 -2.9311
56346SOL     OW76277   5.387   4.604   8.592 -0.3894 -0.5488  0.2981
56346SOL    HW176278   5.311   4.660   8.608 -0.7226 -1.2433  1.2009
56346SOL    HW276279   5.356   4.515   8.611  0.5272 -0.8864  0.2449
56347SOL     OW76280  11.788   9.171   0.774 -0.2825 -0.0267 -0.1917
56347SOL    HW176281  11.846   9.114   0.823 -0.7231  0.9963  1.6078
56347SOL    HW276282  11.836   9.190   0.693  0.4385 -1.7977 -0.2343
56348SOL     OW76283   8.547   0.799   3.123  0.2856  0.5593 -0.2136
56348SOL    HW176284   8.586   0.712   3.127  0.6265  0.7243  0.1531
56348SOL    HW276285   8.523   0.810   3.031 -1.2705 -0.5624  0.0143
56349SOL     OW76286  11.698  10.800   5.264 -0.1937 -0.0840 -0.4475
56349SOL    HW176287  11.604  10.810   5.280 -0.1443  0.9479 -0.7231
56349SOL    HW276288  11.705  10.782   5.171 -0.0912  0.3077 -0.5165
56350SOL     OW76289   4.189   7.767   8.682  0.2737  0.3888  0.6618
56350SOL    HW176290   4.125   7.711   8.726 -1.7992  1.3483 -0.9105
56350SOL    HW276291   4.230   7.818   8.752 -0.9753  0.0094  1.7051
56351SOL     OW76292   4.614   2.872   5.496  0.0052  0.4724  1.0887
56351SOL    HW176293   4.687   2.828   5.452  1.3177  1.2932  2.3586
56351SOL    HW276294   4.650   2.956   5.524 -1.6264  1.1716  1.2233
56352SOL     OW76295   8.485   5.131   9.145  0.3995 -0.0672  0.7881
56352SOL    HW176296   8.524   5.094   9.224  1.5926 -0.3443  0.0845
56352SOL    HW276297   8.457   5.055   9.094 -1.6328  0.1250  1.5214
56353SOL     OW76298   5.678   6.073  10.625  0.3394  0.6835  0.3475
56353SOL    HW176299   5.671   6.118  10.541 -1.8826  0.2452  0.2259
56353SOL    HW276300   5.722   5.990  10.603  1.0804  1.1809 -0.0976
56354SOL     OW76301   1.510   0.970   9.443 -0.0844 -0.3422  0.2059
56354SOL    HW176302   1.491   0.958   9.350  0.6017  1.5301 -0.2238
56354SOL    HW276303   1.427   0.956   9.487 -0.5316 -0.7385 -0.7482
56355SOL     OW76304   9.425   5.535   1.790  0.1300 -0.1104  0.5203
56355SOL    HW176305   9.466   5.477   1.725  1.0545  2.5798 -1.5134
56355SOL    HW276306   9.463   5.509   1.873  1.1849 -1.7919 -0.4300
56356SOL     OW76307   8.022   1.074   0.701  0.2149  0.0166 -0.2072
56356SOL    HW176308   7.937   1.116   0.711  1.0109  1.6518  0.0841
56356SOL    HW276309   8.049   1.051   0.790 -0.2430 -1.2026 -0.3721
56357SOL     OW76310   4.040  10.377   6.873 -0.2588 -0.0845  0.4295
56357SOL    HW176311   3.972  10.413   6.816 -0.4342  3.2913  2.4708
56357SOL    HW276312   4.006  10.293   6.902 -2.8499  0.7745  0.1128
56358SOL     OW76313   0.164   9.078   2.132  0.0700 -0.8014  0.3822
56358SOL    HW176314   0.159   9.161   2.084  1.3446 -0.0093  1.5262
56358SOL    HW276315   0.256   9.051   2.123  0.9404  0.4206  3.8752
56359SOL     OW76316   5.472   2.250   9.356 -0.3433  0.2534 -0.3568
56359SOL    HW176317   5.521   2.256   9.438 -0.9579 -1.0186  0.1230
56359SOL    HW276318   5.426   2.334   9.350 -1.2332 -0.0672  1.2307
56360SOL     OW76319   8.527   7.739   5.177 -0.4382  0.3178  0.5649
56360SOL    HW176320   8.496   7.754   5.087 -0.0437 -0.3478  0.3175
56360SOL    HW276321   8.448   7.751   5.231 -1.4395 -2.3185 -0.1396
56361SOL     OW76322  11.911  10.664   5.621 -0.5897  0.4250 -0.2703
56361SOL    HW176323  11.833  10.610   5.600 -0.0405 -0.2009 -0.7748
56361SOL    HW276324  11.933  10.706   5.538  1.7529 -2.2495 -1.1666
56362SOL     OW76325   9.413   6.697  11.151 -0.1717 -0.2481  0.8855
56362SOL    HW176326   9.498   6.740  11.147 -0.4939  0.5200  1.7905
56362SOL    HW276327   9.415   6.647  11.232 -0.0234 -1.5163  0.1355
56363SOL     OW76328   5.300   1.777  10.519  0.0832  0.2183  0.0198
56363SOL    HW176329   5.264   1.726  10.592  2.2911  0.2807  1.2333
56363SOL    HW276330   5.394   1.766  10.526  0.4017  0.4230 -2.7363
56364SOL     OW76331  12.490  12.507   0.783 -0.6057 -0.4980 -0.2453
56364SOL    HW176332  12.453  12.478   0.700  0.8151 -1.8335 -0.4587
56364SOL    HW276333  12.518  12.426   0.827  0.3180  0.3143  0.7230
56365SOL     OW76334   7.880   7.422   3.771 -0.1739  0.1946  0.3485
56365SOL    HW176335   7.826   7.501   3.772 -0.1184  0.2306  0.9185
56365SOL    HW276336   7.964   7.451   3.737  0.0944  0.5552  1.2859
56366SOL     OW76337   7.736  11.623   7.257 -0.3221 -0.4014 -0.4096
56366SOL    HW176338   7.771  11.559   7.195  0.3275 -0.7456  0.2941
56366SOL    HW276339   7.798  11.696   7.253 -0.4917 -0.2597 -0.4513
56367SOL     OW76340   5.642   3.190   7.967  0.6171  0.5007 -0.1112
56367SOL    HW176341   5.630   3.242   8.047 -0.3540  0.7368 -0.3992
56367SOL    HW276342   5.556   3.190   7.925  0.6314 -1.2236 -0.1972
56368SOL     OW76343   0.244   9.312  10.036 -0.1772 -0.2415 -0.4534
56368SOL    HW176344   0.297   9.264   9.972 -0.0496 -0.1896 -0.3861
56368SOL    HW276345   0.279   9.401  10.034 -0.1026 -0.2669 -0.2319
56369SOL     OW76346   0.478  11.879  11.499  0.4839  0.2696 -0.1926
56369SOL    HW176347   0.434  11.963  11.489 -1.5974 -0.6730  0.3591
56369SOL    HW276348   0.481  11.843  11.410 -0.5896  0.0196 -0.1355
56370SOL     OW76349   1.616   7.908   5.431  0.4313  0.4768  0.1072
56370SOL    HW176350   1.522   7.893   5.438  0.2244  1.7047  0.0492
56370SOL    HW276351   1.643   7.855   5.355 -0.1168 -0.2276  0.3897
56371SOL     OW76352   2.245  12.540   7.191 -0.3775 -0.1650 -0.2614
56371SOL    HW176353   2.202  12.546   7.105  0.0547 -1.0620 -0.5565
56371SOL    HW276354   2.213  12.616   7.239 -0.9044  0.1598 -1.0960
56372SOL     OW76355  11.591   7.968  12.082 -0.0524 -0.3316 -0.3952
56372SOL    HW176356  11.680   7.993  12.104  0.4125  0.9346 -3.2355
56372SOL    HW276357  11.545   8.051  12.069 -1.3561 -0.9719 -0.0528
56373SOL     OW76358  10.449  11.746   7.333 -0.0049  0.1181  0.1626
56373SOL    HW176359  10.542  11.767   7.321 -0.0772 -0.4553 -1.5715
56373SOL    HW276360  10.444  11.712   7.422  1.0781  2.0186  1.0209
56374SOL     OW76361   7.892   6.592   2.446  0.0858  0.2232  0.2239
56374SOL    HW176362   7.828   6.534   2.405 -0.6294  0.5311  0.8626
56374SOL    HW276363   7.976   6.549   2.434 -0.3554 -0.6303  0.1431
56375SOL     OW76364   9.875  10.268   8.275  0.8428  0.0242 -0.1069
56375SOL    HW176365   9.787  10.240   8.248  0.9443  0.0087 -0.4207
56375SOL    HW276366   9.861  10.306   8.362  0.6524 -0.6593  0.1618
56376SOL     OW76367   5.012  12.522  10.587  0.4143  0.1612 -0.3242
56376SOL    HW176368   5.096  12.482  10.610 -0.4317 -0.6881  1.4962
56376SOL    HW276369   4.961  12.451  10.549  0.0813  0.3532 -0.2374
56377SOL     OW76370   1.338   5.208   5.640 -0.0052 -0.1101 -0.1533
56377SOL    HW176371   1.330   5.162   5.556  0.5074  0.3108 -0.4365
56377SOL    HW276372   1.416   5.170   5.681 -1.2019 -1.5209  0.9083
56378SOL     OW76373   3.543   8.904   1.218  0.1582 -0.6706 -0.0112
56378SOL    HW176374   3.583   8.991   1.211  1.2762 -1.1376  0.2411
56378SOL    HW276375   3.461   8.910   1.169 -1.0018  1.2165  1.9948
56379SOL     OW76376   8.067   5.034   2.439  0.0378  0.4350  0.5453
56379SOL    HW176377   8.005   4.989   2.381  1.7514 -2.2983  0.6161
56379SOL    HW276378   8.076   5.121   2.401  0.1693 -0.8143 -2.6820
56380SOL     OW76379  10.263   5.379   3.288 -0.3571 -0.2874 -0.4094
56380SOL    HW176380  10.290   5.392   3.379 -0.7673  0.8219 -0.4171
56380SOL    HW276381  10.275   5.286   3.272 -3.0744 -1.1481  1.7346
56381SOL     OW76382   0.508  10.659   1.739 -0.4396 -0.3791  0.1904
56381SOL    HW176383   0.474  10.575   1.710 -0.2441 -0.5787  0.5364
56381SOL    HW276384   0.505  10.654   1.835  1.7422 -0.8909  0.2835
56382SOL     OW76385   7.718   2.107  10.195  0.4660 -0.2209  0.3861
56382SOL    HW176386   7.787   2.172  10.178  1.3405 -0.7654  1.7357
56382SOL    HW276387   7.749   2.028  10.152  0.7577 -0.4968  1.0872
56383SOL     OW76388   2.738   7.135   8.667 -0.5170  0.3100  0.2735
56383SOL    HW176389   2.698   7.213   8.627  0.3211  1.5712  1.7967
56383SOL    HW276390   2.830   7.158   8.675 -0.0993 -1.1910  0.0214
56384SOL     OW76391   2.158  12.163   8.187  0.0982 -0.0433  0.3955
56384SOL    HW176392   2.100  12.230   8.226  0.1823 -0.8048  1.9247
56384SOL    HW276393   2.220  12.143   8.257  0.6767 -1.0193 -0.3870
56385SOL     OW76394  11.288   8.711   7.825 -0.3857  0.1884 -0.0722
56385SOL    HW176395  11.314   8.686   7.736  1.4641  1.2533  0.1243
56385SOL    HW276396  11.251   8.798   7.815  1.4213  1.0598  0.3678
56386SOL     OW76397   0.090   8.674   8.720 -0.3091 -0.4900 -0.3694
56386SOL    HW176398   0.154   8.669   8.791  0.3818  1.3539 -0.7951
56386SOL    HW276399   0.089   8.767   8.696 -0.3018 -1.1086 -2.9716
56387SOL     OW76400   2.395   0.849  11.944  0.4484  0.4254  0.2296
56387SOL    HW176401   2.307   0.813  11.951  0.8922 -1.0526 -1.0778
56387SOL    HW276402   2.441   0.816  12.021  1.0343 -2.5960 -1.2479
56388SOL     OW76403   0.307   3.983   0.902 -0.2714  0.1572 -0.5499
56388SOL    HW176404   0.214   3.988   0.883 -0.1161  2.1841 -1.0437
56388SOL    HW276405   0.316   4.018   0.991  0.1557  1.5280 -1.1109
56389SOL     OW76406   8.969  11.165   0.245 -0.2228  0.0033 -0.5086
56389SOL    HW176407   8.971  11.077   0.281  1.8532  0.1291 -0.1981
56389SOL    HW276408   8.996  11.221   0.318 -1.2098  0.8858 -0.7908
56390SOL     OW76409   2.793   0.261   1.172  0.6115 -0.2273  0.0572
56390SOL    HW176410   2.832   0.192   1.226  1.5503  0.6872  0.5688
56390SOL    HW276411   2.705   0.228   1.151  0.0165 -0.4064  2.5185
56391SOL     OW76412   9.278   1.749  11.749  0.4857 -0.0454 -0.7270
56391SOL    HW176413   9.258   1.660  11.720  1.9318 -0.2616 -1.1693
56391SOL    HW276414   9.194   1.794  11.748 -0.2711 -1.3984 -0.5084
56392SOL     OW76415   1.621  11.701   0.446  0.3741 -0.6166 -0.5845
56392SOL    HW176416   1.536  11.695   0.402 -1.1389  1.2156  1.8293
56392SOL    HW276417   1.676  11.749   0.384 -2.3750  4.0068  0.0985
56393SOL     OW76418   0.017   9.827  10.304 -0.2381 -0.6526 -0.4067
56393SOL    HW176419   0.045   9.890  10.370  0.0796  1.7973 -2.7344
56393SOL    HW276420   0.070   9.749  10.321  2.1108  1.0086  0.3386
56394SOL     OW76421   4.640   4.694   4.631  0.0355  0.0659 -0.1279
56394SOL    HW176422   4.568   4.631   4.635 -0.0090  0.1738  1.1290
56394SOL    HW276423   4.687   4.682   4.714  1.1723  0.3571 -0.7031
56395SOL     OW76424   6.942  11.359   9.196 -0.0048 -0.0219 -0.1287
56395SOL    HW176425   6.918  11.413   9.120 -1.6412 -0.5276 -0.0124
56395SOL    HW276426   6.979  11.421   9.259 -1.2826  0.8853 -0.2344
56396SOL     OW76427   0.175   2.589   5.260  0.1712  0.1808 -0.0198
56396SOL    HW176428   0.238   2.645   5.305  1.0935  0.3296 -1.4260
56396SOL    HW276429   0.217   2.504   5.254 -0.3199 -0.0779  0.2136
56397SOL     OW76430   0.471   6.881   1.872  0.1989 -0.1162  0.7174
56397SOL    HW176431   0.472   6.860   1.965  2.0210  0.5277  0.8985
56397SOL    HW276432   0.562   6.907   1.853  0.0514 -0.9726 -1.4083
56398SOL     OW76433  11.147   2.341   3.022 -0.7264 -0.3306  0.3079
56398SOL    HW176434  11.080   2.349   3.090  0.9414 -0.1936  2.0054
56398SOL    HW276435  11.098   2.319   2.943 -2.8630  0.7685  1.2473
56399SOL     OW76436   1.854   4.047   3.037 -0.2961  0.3974  0.3946
56399SOL    HW176437   1.774   4.088   3.067  0.7149  2.3864  0.5214
56399SOL    HW276438   1.845   4.042   2.942 -0.7516  0.1642  0.4469
56400SOL     OW76439   8.681   1.641   8.448 -0.3813 -0.3665 -0.1280
56400SOL    HW176440   8.727   1.564   8.414 -0.7351 -0.9589  0.6997
56400SOL    HW276441   8.744   1.713   8.439 -0.5522 -0.4079 -2.2945
56401SOL     OW76442   5.462   2.601  11.352 -0.6456  0.2470 -0.1758
56401SOL    HW176443   5.401   2.627  11.420  0.6871  0.9356  0.8061
56401SOL    HW276444   5.519   2.678  11.339  0.9492 -0.8362  0.0424
56402SOL     OW76445  11.354   1.478   1.525 -0.4763 -0.1888 -0.2511
56402SOL    HW176446  11.327   1.497   1.615 -1.9009  0.5604 -0.7982
56402SOL    HW276447  11.316   1.549   1.473  1.8865  0.4504 -1.2537
56403SOL     OW76448   3.331   7.542   6.589 -0.0057 -0.0099 -0.0540
56403SOL    HW176449   3.358   7.508   6.505 -1.7745  0.8353 -1.0287
56403SOL    HW276450   3.290   7.468   6.634  0.6004 -0.3618 -0.0671
56404SOL     OW76451   2.160   7.394   5.711  0.4053  0.4833  0.0237
56404SOL    HW176452   2.142   7.473   5.761  1.3350  1.0009 -0.4328
56404SOL    HW276453   2.173   7.425   5.621 -0.0020 -0.2816 -0.3122
56405SOL     OW76454   8.730   0.176   0.626  0.2663  0.3224 -0.0487
56405SOL    HW176455   8.666   0.245   0.612  0.6584  0.7859  0.4173
56405SOL    HW276456   8.752   0.182   0.719  0.1276 -0.5830  0.0515
56406SOL     OW76457   8.888  11.983   9.226  0.3340 -0.3584 -0.0822
56406SOL    HW176458   8.983  11.996   9.221  0.2296  0.6841  0.4339
56406SOL    HW276459   8.872  11.956   9.316  0.0006  0.7640  0.2023
56407SOL     OW76460   6.546   5.583  12.345 -0.6116  0.1384 -0.1703
56407SOL    HW176461   6.584   5.670  12.333  0.4881  0.0572  2.2057
56407SOL    HW276462   6.610   5.524  12.306 -0.9294  0.3115 -0.9787
56408SOL     OW76463   5.929   7.043   3.806 -0.1397 -0.2926  0.5341
56408SOL    HW176464   5.970   6.978   3.749 -2.3629 -0.5163 -0.9556
56408SOL    HW276465   6.002   7.083   3.854  1.6053 -1.6430 -0.8538
56409SOL     OW76466   8.214   9.367   7.630 -0.1960 -0.1763  0.1720
56409SOL    HW176467   8.253   9.326   7.553  0.4065  0.1014  0.3241
56409SOL    HW276468   8.169   9.296   7.675  2.1382 -1.0777  1.2719
56410SOL     OW76469   6.538   4.107   6.598 -0.3050 -0.4495 -0.5719
56410SOL    HW176470   6.453   4.066   6.609  0.0445 -0.7202  1.6786
56410SOL    HW276471   6.599   4.034   6.588 -0.0379 -0.3954  0.5208
56411SOL     OW76472   7.080   2.961   7.800  0.5211  0.0664  0.0817
56411SOL    HW176473   7.162   2.970   7.753  0.6376 -0.8364  0.0983
56411SOL    HW276474   7.040   2.881   7.765  0.2300 -0.1744  0.9343
56412SOL     OW76475   5.244   8.866   5.286  0.0466 -0.3807 -0.2818
56412SOL    HW176476   5.173   8.929   5.300  2.1469  2.2105 -0.5162
56412SOL    HW276477   5.260   8.868   5.192  1.2082 -0.0186 -0.0868
56413SOL     OW76478  10.325   0.704   1.740  0.6850 -0.5792  0.2869
56413SOL    HW176479  10.373   0.744   1.667  0.5005  0.7933  0.8765
56413SOL    HW276480  10.387   0.706   1.813  0.0333  0.4876  0.8439
56414SOL     OW76481   7.449  12.558   5.854 -0.1761 -0.2141  0.0791
56414SOL    HW176482   7.542  12.548   5.876 -0.4862 -0.4327  1.3413
56414SOL    HW276483   7.430  12.650   5.870  0.1230  0.1505 -1.4698
56415SOL     OW76484   9.326   2.754  10.612  0.1536  0.3382 -0.6788
56415SOL    HW176485   9.294   2.752  10.522 -1.6327 -1.9115 -0.0791
56415SOL    HW276486   9.282   2.830  10.651  1.7728  1.9913 -1.9036
56416SOL     OW76487  10.499   6.300   7.050  0.3102 -0.4113 -0.2010
56416SOL    HW176488  10.472   6.392   7.055  0.7497 -0.3366  1.4743
56416SOL    HW276489  10.581   6.297   7.100 -0.5335 -1.9888  1.1922
56417SOL     OW76490   8.723   8.459   8.388 -0.2184  0.3411 -0.0672
56417SOL    HW176491   8.758   8.537   8.344 -1.3771  0.1120 -1.4406
56417SOL    HW276492   8.672   8.495   8.461  0.0281  0.8266 -0.1265
56418SOL     OW76493   6.303   6.797   1.309  0.1529 -0.0452  0.1444
56418SOL    HW176494   6.299   6.881   1.355 -0.8019 -0.6653  1.2596
56418SOL    HW276495   6.397   6.778   1.303  0.3307  0.2048  1.6131
56419SOL     OW76496   9.406   0.631  11.081  0.0890  0.2361  0.4539
56419SOL    HW176497   9.313   0.642  11.103  0.1368  1.1292  0.2330
56419SOL    HW276498   9.409   0.550  11.029 -0.9507  1.4913 -1.6881
56420SOL     OW76499   7.857   6.389   8.295  0.0238 -0.1809 -0.0703
56420SOL    HW176500   7.834   6.351   8.211  0.6245  1.5579 -1.0730
56420SOL    HW276501   7.950   6.368   8.307  0.0391 -0.0912 -0.0298
56421SOL     OW76502  10.077   1.271   7.615 -0.0701  0.3926  0.0149
56421SOL    HW176503  10.152   1.301   7.666 -0.0469 -0.3926  0.4558
56421SOL    HW276504  10.004   1.275   7.677  0.2003 -1.8673  0.5764
56422SOL     OW76505   8.724   5.192   4.021  0.3243  0.4034  0.0492
56422SOL    HW176506   8.685   5.217   4.105 -0.4075 -1.3662  0.2886
56422SOL    HW276507   8.693   5.258   3.959  3.7130  3.9378  1.6620
56423SOL     OW76508   9.299   0.984   3.340 -0.4856 -0.1787 -0.4343
56423SOL    HW176509   9.393   1.006   3.340 -0.6157  0.3796 -0.6818
56423SOL    HW276510   9.296   0.894   3.372  0.2172 -0.4989 -1.2125
56424SOL     OW76511   4.175   3.428   3.731  0.4632  0.0958 -0.1210
56424SOL    HW176512   4.237   3.396   3.666  1.6017  2.1100 -0.0970
56424SOL    HW276513   4.113   3.482   3.681  0.6591  0.7156  0.3021
56425SOL     OW76514   6.839   7.332   1.435 -0.3057  0.7208  0.3008
56425SOL    HW176515   6.833   7.408   1.493  1.2003  2.9876 -2.3029
56425SOL    HW276516   6.916   7.284   1.466  0.0812  1.5147  0.5925
56426SOL     OW76517   0.542   3.756   9.327 -0.4771 -0.2925  0.7052
56426SOL    HW176518   0.469   3.793   9.376 -0.7110 -1.2283  1.0832
56426SOL    HW276519   0.502   3.724   9.246 -0.3401 -0.0668  0.5468
56427SOL     OW76520   6.551   0.871  11.713  0.0386  0.0020 -0.3743
56427SOL    HW176521   6.570   0.933  11.642 -0.9431  1.0358  0.2198
56427SOL    HW276522   6.462   0.893  11.740 -0.7617 -2.3939 -0.8284
56428SOL     OW76523  11.015   0.245   6.365  0.0950 -0.0331  0.1071
56428SOL    HW176524  10.937   0.262   6.417 -0.4989 -0.2213 -0.7090
56428SOL    HW276525  11.003   0.156   6.330  0.4680  0.0949 -0.3695
56429SOL     OW76526   0.883   1.956   5.610  0.5936  0.2092  0.2339
56429SOL    HW176527   0.937   1.912   5.544  0.6823 -0.2286  0.5922
56429SOL    HW276528   0.880   1.894   5.683 -0.2359  0.3112  0.2961
56430SOL     OW76529   0.635   3.199   4.777  0.2670 -0.2331 -0.2121
56430SOL    HW176530   0.673   3.200   4.689  0.5950  1.8553 -0.0954
56430SOL    HW276531   0.709   3.212   4.835 -0.3791  3.7387  0.0271
56431SOL     OW76532  10.047  10.211  11.012  0.0924 -0.1278 -0.5694
56431SOL    HW176533   9.981  10.186  11.077  0.0754  0.8104 -0.2144
56431SOL    HW276534   9.998  10.263  10.948  0.6056  1.1713  0.0664
56432SOL     OW76535   6.575  12.045  10.433 -0.3261 -0.0491  0.0743
56432SOL    HW176536   6.644  11.988  10.401 -0.3347 -0.0480  0.0538
56432SOL    HW276537   6.606  12.075  10.518  1.1205  2.3825 -1.1960
56433SOL     OW76538   5.060   1.669   7.105 -0.1388  0.4697  0.0494
56433SOL    HW176539   5.069   1.584   7.150  1.0207  0.6048  0.1081
56433SOL    HW276540   5.148   1.707   7.109 -0.3676  1.1463 -1.0345
56434SOL     OW76541   6.542   4.245   0.801  0.5298 -0.4011  0.1251
56434SOL    HW176542   6.506   4.266   0.714  0.1139  1.6267  0.7421
56434SOL    HW276543   6.489   4.296   0.862  0.9294 -1.6621  1.5920
56435SOL     OW76544   4.115   7.064   1.540  0.3348 -0.3306  0.8186
56435SOL    HW176545   4.134   7.151   1.577 -2.7409  0.3471  1.0978
56435SOL    HW276546   4.091   7.082   1.449  1.4449 -1.1619  0.3456
56436SOL     OW76547   3.269   8.612   3.807  0.2204 -0.0362 -0.0497
56436SOL    HW176548   3.336   8.611   3.875 -0.3032  1.5046  0.5246
56436SOL    HW276549   3.301   8.673   3.741  0.4379 -1.0564 -0.9288
56437SOL     OW76550   5.597   9.515   6.321  0.2040  0.3453 -0.0735
56437SOL    HW176551   5.504   9.491   6.326  0.4849 -0.5839  1.4970
56437SOL    HW276552   5.597   9.609   6.307 -0.9481 -0.0899 -3.9844
56438SOL     OW76553  12.038   3.673   8.687 -0.0194  0.0369  0.0709
56438SOL    HW176554  11.969   3.621   8.646  1.7290 -2.4752  0.0960
56438SOL    HW276555  12.028   3.658   8.781 -0.0303  0.5048  0.1498
56439SOL     OW76556  10.331  12.484   6.436 -0.4849  0.0908  0.5607
56439SOL    HW176557  10.342  12.577   6.419  0.4943  0.1005  1.1870
56439SOL    HW276558  10.237  12.468   6.424 -0.4181  0.7824 -1.3048
56440SOL     OW76559   6.225  10.394   9.388  0.5613 -0.1388  0.4229
56440SOL    HW176560   6.268  10.310   9.403  0.8821 -0.0414  0.0733
56440SOL    HW276561   6.160  10.376   9.320  1.1422  0.0509 -0.1922
56441SOL     OW76562   2.731   2.092   0.221  0.3724 -0.2543 -0.2449
56441SOL    HW176563   2.814   2.084   0.268 -0.4014 -2.3564  0.9301
56441SOL    HW276564   2.706   2.002   0.200 -2.1147  0.2015  0.3694
56442SOL     OW76565  11.526   7.369   7.134  0.1647  0.4514 -0.2015
56442SOL    HW176566  11.594   7.309   7.104  0.0330  0.4465 -0.4974
56442SOL    HW276567  11.524   7.438   7.067 -0.6973  0.0115 -0.6480
56443SOL     OW76568   9.327  10.390   5.297 -0.0908  0.5088 -0.5883
56443SOL    HW176569   9.314  10.324   5.229 -0.3535  0.0530 -0.1038
56443SOL    HW276570   9.242  10.399   5.339  0.1079  0.6749 -0.2139
56444SOL     OW76571   1.812   1.751   2.759 -0.6037 -0.1778  0.3470
56444SOL    HW176572   1.795   1.705   2.842 -1.0249 -2.4547 -0.9109
56444SOL    HW276573   1.766   1.834   2.768 -1.7390 -0.9197  1.9233
56445SOL     OW76574   2.506   7.397   1.535 -0.0949 -0.4036  0.2409
56445SOL    HW176575   2.466   7.415   1.620 -0.1709  0.9424 -0.0588
56445SOL    HW276576   2.432   7.384   1.476 -0.0495 -0.7895  0.2695
56446SOL     OW76577   5.646  10.587  10.936 -0.4920 -0.2366  0.0838
56446SOL    HW176578   5.663  10.675  10.901 -1.2963 -0.0342  0.1856
56446SOL    HW276579   5.718  10.572  10.997  0.8129 -0.4958 -1.4416
56447SOL     OW76580  11.745   4.816   9.958  0.3133  0.1399  0.0110
56447SOL    HW176581  11.767   4.903   9.991 -0.3217  0.6170 -0.7770
56447SOL    HW276582  11.789   4.810   9.874 -0.9550  0.3616 -0.6970
56448SOL     OW76583   5.875   2.281  11.740 -0.8772  0.4187  0.1900
56448SOL    HW176584   5.834   2.255  11.822 -0.0358  1.4764  0.9707
56448SOL    HW276585   5.808   2.332  11.695 -2.0393 -1.7500 -0.7137
56449SOL     OW76586   8.740  12.490  11.756  0.0533 -0.0614  0.2006
56449SOL    HW176587   8.651  12.506  11.788  1.1150  2.2611  2.3062
56449SOL    HW276588   8.782  12.439  11.825  0.4587 -0.8531 -0.6194
56450SOL     OW76589   0.452   8.206   0.621 -0.4676 -0.2477 -0.0462
56450SOL    HW176590   0.360   8.231   0.627 -1.1220 -2.1574 -1.0894
56450SOL    HW276591   0.481   8.238   0.535  0.5520  2.2866  1.1534
56451SOL     OW76592   6.183   7.320   1.473 -0.6254  0.5958 -0.0096
56451SOL    HW176593   6.096   7.297   1.440 -0.3977  1.4680 -1.2652
56451SOL    HW276594   6.241   7.310   1.398  0.0884  1.5795  0.3871
56452SOL     OW76595   0.650   6.231   7.198 -0.4030 -0.1008  0.0180
56452SOL    HW176596   0.557   6.240   7.215 -0.4657  0.8936 -0.7828
56452SOL    HW276597   0.667   6.287   7.121  0.8527 -0.2130  0.1836
56453SOL     OW76598   1.948   2.119   7.110 -0.1613 -0.2847  0.2876
56453SOL    HW176599   1.942   2.213   7.128 -1.4977 -0.5732  1.5370
56453SOL    HW276600   2.011   2.086   7.175  0.1785 -0.2763 -0.0383
56454SOL     OW76601   6.394   8.283   7.364 -0.2285 -0.1058 -0.1380
56454SOL    HW176602   6.314   8.296   7.415 -0.6859  0.9367 -1.0603
56454SOL    HW276603   6.399   8.361   7.308  1.3748 -0.2064 -0.1879
56455SOL     OW76604   5.351   7.784   5.239 -0.0397  0.1379 -0.2904
56455SOL    HW176605   5.258   7.774   5.262  0.1111 -1.9836 -0.3520
56455SOL    HW276606   5.369   7.877   5.250 -1.7077  0.3122  1.5809
56456SOL     OW76607  10.315   6.561   7.357  0.0490  0.0739  0.3616
56456SOL    HW176608  10.395   6.610   7.338  0.6386 -0.6310  0.9441
56456SOL    HW276609  10.308   6.564   7.453  0.8204 -2.0189  0.5478
56457SOL     OW76610   8.996   4.125   3.619  0.7011 -0.1451  0.0204
56457SOL    HW176611   8.942   4.046   3.616 -0.3875  0.5894 -0.2005
56457SOL    HW276612   9.083   4.093   3.645 -0.3710 -1.0533  2.8247
56458SOL     OW76613   6.621  11.669   3.044 -0.2528  0.1915  0.4003
56458SOL    HW176614   6.610  11.736   3.111  1.9915 -0.5195  1.5785
56458SOL    HW276615   6.645  11.589   3.092  1.1917 -0.4041 -1.1719
56459SOL     OW76616   3.279   3.716  10.678 -0.3977  0.1407 -0.1657
56459SOL    HW176617   3.317   3.645  10.627 -1.3704 -1.1991  0.8787
56459SOL    HW276618   3.350   3.779  10.689  0.8867 -1.2648 -0.0693
56460SOL     OW76619   6.133   2.113   6.550 -0.6476  0.0290  0.1230
56460SOL    HW176620   6.059   2.146   6.601 -0.0539  1.3216  0.1845
56460SOL    HW276621   6.208   2.124   6.609 -0.0092  1.1985 -0.8732
56461SOL     OW76622  11.424   4.660   6.625  0.1385  0.2485 -0.5421
56461SOL    HW176623  11.355   4.714   6.588  3.2078  4.2385 -1.1574
56461SOL    HW276624  11.453   4.605   6.552 -0.3789  0.7664 -1.1509
56462SOL     OW76625  10.899   0.356  12.350  0.4552  0.1541 -0.4402
56462SOL    HW176626  10.945   0.371  12.433 -0.2340  0.6316 -0.1443
56462SOL    HW276627  10.925   0.430  12.295  0.3626  0.2059 -0.4141
56463SOL     OW76628   1.308   6.633   5.883  0.2820 -0.0331  0.0065
56463SOL    HW176629   1.323   6.721   5.849  1.6017 -0.2268  0.0264
56463SOL    HW276630   1.301   6.578   5.805  0.5849 -0.0741  0.0072
56464SOL     OW76631   0.216   4.409  12.616  0.2586 -0.3542  0.1952
56464SOL    HW176632   0.262   4.458  12.684  0.0157 -0.0331  0.1310
56464SOL    HW276633   0.271   4.418  12.538  0.4791 -0.6276  0.3155
56465SOL     OW76634  10.114   8.046   4.628 -0.6056  0.0970 -0.8596
56465SOL    HW176635  10.113   7.976   4.694  1.6216  1.4089  0.6722
56465SOL    HW276636  10.169   8.012   4.557  4.5511  1.7690  1.8935
56466SOL     OW76637   2.237   6.684   3.486  0.2981 -0.0296 -0.2740
56466SOL    HW176638   2.185   6.610   3.453 -1.2779  1.1544 -0.6052
56466SOL    HW276639   2.307   6.694   3.423 -1.3681  0.7714 -2.1099
56467SOL     OW76640   7.659   1.306   7.951  0.5164 -0.9726 -0.0336
56467SOL    HW176641   7.597   1.361   8.000  0.7833 -0.2348 -0.4998
56467SOL    HW276642   7.608   1.230   7.924  0.0655 -0.8299  0.4067
56468SOL     OW76643   0.547  12.158   4.625  0.3677 -0.3778 -0.0370
56468SOL    HW176644   0.508  12.071   4.626 -1.1009  0.2467  0.1508
56468SOL    HW276645   0.556  12.180   4.718  1.2856 -0.5528 -0.0784
56469SOL     OW76646   4.059   1.455   1.675  0.6302  0.0750 -0.3841
56469SOL    HW176647   4.103   1.483   1.755  1.3563 -0.6219 -0.5280
56469SOL    HW276648   4.005   1.530   1.650  0.2006  0.2150  0.8768
56470SOL     OW76649   6.937   5.438   9.318  0.1356 -0.2694 -0.1081
56470SOL    HW176650   7.010   5.423   9.258  1.8708  1.9412  1.3072
56470SOL    HW276651   6.881   5.502   9.272 -0.1165 -0.7906 -0.5433
56471SOL     OW76652   5.481   5.260  11.225  0.6513  0.1756 -0.4688
56471SOL    HW176653   5.538   5.255  11.301  1.1429  0.7668 -0.7898
56471SOL    HW276654   5.492   5.176  11.181  1.3605  0.3292 -0.5903
56472SOL     OW76655   7.265   5.166   3.434  0.1108 -0.7678 -0.0243
56472SOL    HW176656   7.201   5.096   3.419 -3.2303  2.0119 -0.0638
56472SOL    HW276657   7.245   5.199   3.522  0.8458  0.8201 -0.4101
56473SOL     OW76658   0.537   7.814   6.303  0.5435  0.2253  0.8494
56473SOL    HW176659   0.543   7.732   6.352 -1.0495 -0.1226  0.5282
56473SOL    HW276660   0.448   7.845   6.319 -0.0907  0.0720 -1.8138
56474SOL     OW76661   3.052   7.319   6.414  0.4593 -0.5179  0.2354
56474SOL    HW176662   3.095   7.382   6.473  0.8710 -1.3108  0.7997
56474SOL    HW276663   3.067   7.234   6.455 -0.0729 -0.9928 -0.5325
56475SOL     OW76664   9.224   8.536   5.041  0.8013  0.0762  0.1940
56475SOL    HW176665   9.176   8.462   5.077  1.3489 -0.5378 -0.3210
56475SOL    HW276666   9.254   8.586   5.117  0.6224 -0.3532  0.5452
56476SOL     OW76667   7.630  12.394   6.861 -0.0982  0.1828  0.1061
56476SOL    HW176668   7.690  12.466   6.876  0.9254 -0.6259 -0.0355
56476SOL    HW276669   7.548  12.423   6.901 -0.3037  2.2406 -1.6021
56477SOL     OW76670   7.132  12.537   8.910 -0.4136 -0.6112 -0.1487
56477SOL    HW176671   7.162  12.513   8.822  3.0601 -3.3616  1.5662
56477SOL    HW276672   7.180  12.617   8.930 -0.4399 -0.5450 -0.3409
56478SOL     OW76673   0.539  11.830  12.222  0.0448  0.4318 -0.0738
56478SOL    HW176674   0.546  11.749  12.172 -0.1393  0.1446  0.3564
56478SOL    HW276675   0.557  11.803  12.312 -2.7694  0.3124  0.5438
56479SOL     OW76676  10.813  10.459   8.618  0.1479 -0.0136 -0.4448
56479SOL    HW176677  10.820  10.530   8.683  0.6993  0.1178 -0.6388
56479SOL    HW276678  10.884  10.477   8.556 -0.2327 -0.2668 -0.9619
56480SOL     OW76679   7.618   4.083   5.969  0.4626 -0.0148 -0.2938
56480SOL    HW176680   7.589   3.992   5.971  0.7320 -0.1637 -1.6778
56480SOL    HW276681   7.639   4.099   5.877 -1.3170  1.9919 -0.4274
56481SOL     OW76682   2.009  12.271   6.516  0.6770  0.2531  0.1146
56481SOL    HW176683   2.053  12.218   6.582  0.1284  0.5730  0.7614
56481SOL    HW276684   2.079  12.309   6.464  1.1086 -0.2675  0.3085
56482SOL     OW76685   7.908  10.724   2.800  1.0006 -0.6648  0.3156
56482SOL    HW176686   7.872  10.702   2.714  0.1335 -0.7974  0.7137
56482SOL    HW276687   7.966  10.651   2.821  0.0499 -1.3761  0.5164
56483SOL     OW76688   9.871   8.974  11.025  0.8372  0.1734 -0.1342
56483SOL    HW176689   9.950   9.003  10.980  0.7500  0.7287  0.0614
56483SOL    HW276690   9.865   9.030  11.103  0.2785  0.1067 -0.1199
56484SOL     OW76691   6.194   0.177   0.107  0.5265 -0.1012  0.0257
56484SOL    HW176692   6.289   0.189   0.108  0.7221 -1.4547  0.1471
56484SOL    HW276693   6.174   0.139   0.193  0.1096 -1.3048 -0.5860
56485SOL     OW76694   6.764   9.387  10.377  0.5113 -0.2956 -0.0155
56485SOL    HW176695   6.714   9.320  10.330 -0.2797  0.6143 -0.4995
56485SOL    HW276696   6.711   9.406  10.454  0.9410 -0.5068  0.3390
56486SOL     OW76697  11.555   2.371   6.561 -0.3780  0.5531  0.3620
56486SOL    HW176698  11.553   2.406   6.472  1.3026  3.3537  1.2960
56486SOL    HW276699  11.626   2.307   6.560  0.5880  1.5898 -0.0443
56487SOL     OW76700   8.587  12.697   3.394 -0.2118  0.5510  0.1542
56487SOL    HW176701   8.608  12.787   3.368  0.9813 -0.3681 -2.4086
56487SOL    HW276702   8.503  12.678   3.352 -0.0975  0.2304  0.0657
56488SOL     OW76703  12.545   6.987  12.498 -0.1061 -0.2181 -0.5273
56488SOL    HW176704  12.462   6.977  12.451  0.7212 -0.5875 -1.9692
56488SOL    HW276705  12.593   7.054  12.449 -0.1195  1.0791  1.1562
56489SOL     OW76706   2.071  10.751   1.559  0.2683  0.4461 -0.0047
56489SOL    HW176707   2.120  10.824   1.521  2.4169 -0.7257  0.3119
56489SOL    HW276708   2.016  10.790   1.626  0.7150  1.8674 -0.4412
56490SOL     OW76709  12.068   6.223   7.984  0.5630  0.0812 -0.3820
56490SOL    HW176710  12.133   6.276   8.031  0.4620  1.1819 -1.4183
56490SOL    HW276711  12.039   6.158   8.048  0.8816  1.1274  0.8847
56491SOL     OW76712   1.229   1.744   0.870 -0.1069 -0.0787 -0.4620
56491SOL    HW176713   1.180   1.663   0.878 -0.6770  0.3743  0.8580
56491SOL    HW276714   1.236   1.778   0.960  0.0784  1.3483 -0.9772
56492SOL     OW76715  10.771  11.650   5.834  0.0604 -0.6229  0.3934
56492SOL    HW176716  10.829  11.723   5.813 -0.6652 -0.7925 -2.7201
56492SOL    HW276717  10.766  11.650   5.929  1.8153  1.9971  0.5934
56493SOL     OW76718   7.487   3.828   5.446  0.2472  0.0275 -0.2158
56493SOL    HW176719   7.399   3.799   5.424  0.6557 -0.5684 -1.1034
56493SOL    HW276720   7.532   3.837   5.362  0.5585  1.9282  0.1019
56494SOL     OW76721   6.047  12.008   7.126  0.2180  0.0226 -0.1565
56494SOL    HW176722   6.099  11.928   7.128 -1.6219 -1.2759 -1.0562
56494SOL    HW276723   6.077  12.058   7.202  0.9985 -1.7910  0.7963
56495SOL     OW76724   3.074   7.549   1.363 -0.4295  0.1647  0.1924
56495SOL    HW176725   3.041   7.634   1.335 -0.0105  0.3586  0.2813
56495SOL    HW276726   3.003   7.511   1.414 -1.7317 -0.7396 -2.1281
56496SOL     OW76727   7.546   1.861   5.140  0.1578 -0.0888 -0.4002
56496SOL    HW176728   7.500   1.800   5.197  2.5493  0.6312  2.5484
56496SOL    HW276729   7.518   1.837   5.051 -1.9265 -2.8621  0.8685
56497SOL     OW76730   1.873   7.553   7.047 -0.0386 -0.0236 -0.1287
56497SOL    HW176731   1.841   7.525   6.961 -3.4055  1.9905  0.2743
56497SOL    HW276732   1.839   7.488   7.108  0.1644 -0.0974 -0.0957
56498SOL     OW76733   8.099   6.318   4.953 -0.2411 -0.6448 -0.4852
56498SOL    HW176734   8.137   6.242   4.998  0.1588  0.0581  0.4037
56498SOL    HW276735   8.056   6.367   5.023  2.1040  1.5441 -0.4466
56499SOL     OW76736   8.219   5.574   5.829 -0.2602  0.4176  0.0261
56499SOL    HW176737   8.282   5.624   5.778  0.8622 -0.7366  0.2264
56499SOL    HW276738   8.273   5.516   5.883 -1.4944 -0.3424  0.4832
56500SOL     OW76739  12.443   7.135   7.570  0.3306  0.1402  0.2902
56500SOL    HW176740  12.358   7.106   7.603 -1.7157  3.1276 -1.8316
56500SOL    HW276741  12.454   7.223   7.607  1.9231  0.3011 -0.4752
56501SOL     OW76742   2.608   6.959   7.966 -0.6957  0.0635  0.0091
56501SOL    HW176743   2.517   6.956   7.937 -0.9512  0.8013  0.6956
56501SOL    HW276744   2.658   6.920   7.895 -1.3224  1.5025 -1.2594
56502SOL     OW76745  11.827   2.252   6.392 -0.0001 -1.2375 -0.5245
56502SOL    HW176746  11.817   2.240   6.298 -0.1811  0.6834 -0.7956
56502SOL    HW276747  11.912   2.294   6.402  0.3016 -1.9914  0.2481
56503SOL     OW76748   0.616   0.362   1.158  0.6880 -0.0760  0.1425
56503SOL    HW176749   0.605   0.289   1.219 -0.5573  0.6244  0.7928
56503SOL    HW276750   0.529   0.373   1.118  0.6963  1.3794  0.4660
56504SOL     OW76751   1.344   6.634   2.630  0.2088 -0.7448  0.6428
56504SOL    HW176752   1.430   6.635   2.588 -0.4623  1.2674 -0.8889
56504SOL    HW276753   1.283   6.612   2.559 -0.6824 -0.3704  1.2738
56505SOL     OW76754   5.664  10.816   5.190  0.3885  0.0897  0.2040
56505SOL    HW176755   5.677  10.905   5.155  2.0960 -0.7688 -1.5357
56505SOL    HW276756   5.631  10.766   5.116 -2.0018 -0.4981  1.5434
56506SOL     OW76757   4.766   4.638   0.208  0.1856 -0.4979 -0.8827
56506SOL    HW176758   4.757   4.573   0.277 -0.5826 -0.1764 -0.6687
56506SOL    HW276759   4.861   4.646   0.194  0.2863 -1.8213 -1.0845
56507SOL     OW76760   9.893   3.352   4.497  0.1252 -0.0967  0.5630
56507SOL    HW176761   9.799   3.357   4.512  0.3369  0.8993  1.7262
56507SOL    HW276762   9.921   3.443   4.484  0.5019 -0.5624 -2.9819
56508SOL     OW76763   1.513   2.041   1.413  0.3382  0.4260 -0.4584
56508SOL    HW176764   1.565   2.043   1.333  1.5838  0.4124  0.3373
56508SOL    HW276765   1.481   2.131   1.423  2.1771  1.0448  0.2901
56509SOL     OW76766   2.100  12.109   8.669  0.2375  0.6359  0.2640
56509SOL    HW176767   2.130  12.194   8.636 -0.4363  1.0526  0.7132
56509SOL    HW276768   2.055  12.070   8.595 -1.2304  1.5483  0.6442
56510SOL     OW76769  12.201   6.666  11.251 -0.4248 -1.0856 -0.3462
56510SOL    HW176770  12.269   6.619  11.204  2.5100 -0.6692  3.0689
56510SOL    HW276771  12.202   6.754  11.214  3.0404 -0.2556  1.3455
56511SOL     OW76772   6.423   4.627   5.821  0.2125  0.2542 -0.0597
56511SOL    HW176773   6.442   4.612   5.913 -0.9299 -0.2329  0.1211
56511SOL    HW276774   6.436   4.542   5.779  0.9136  0.5157 -0.3946
56512SOL     OW76775   9.693   1.154   3.902 -0.7898  0.0697  0.1273
56512SOL    HW176776   9.721   1.081   3.958  3.6641  2.8810  2.0415
56512SOL    HW276777   9.633   1.204   3.957 -0.3622  0.1744  0.5067
56513SOL     OW76778  10.122   9.798  11.866  0.9116 -0.0464  0.1481
56513SOL    HW176779  10.191   9.750  11.820  1.4117  0.7241  0.0616
56513SOL    HW276780  10.169   9.852  11.930  0.6096  1.9496 -1.2027
56514SOL     OW76781   0.193  11.742   6.040  0.0164  0.1909 -0.1176
56514SOL    HW176782   0.258  11.672   6.040 -0.2134 -0.0756  1.8900
56514SOL    HW276783   0.137  11.724   6.116 -0.7016  1.9442 -0.1660
56515SOL     OW76784   6.984  10.915   9.557  0.1116  0.4947  0.4606
56515SOL    HW176785   7.047  10.886   9.624  1.4839  1.4999 -0.3543
56515SOL    HW276786   6.989  11.011   9.559 -0.6712  0.5617 -0.3014
56516SOL     OW76787   9.648   9.555   9.564  0.1312  0.4751 -0.4917
56516SOL    HW176788   9.702   9.585   9.637  2.0502  0.0171 -1.6465
56516SOL    HW276789   9.608   9.474   9.594  0.5071  0.5410  0.1934
56517SOL     OW76790   9.071   2.061   6.470 -0.2056  0.7076  0.6917
56517SOL    HW176791   9.006   2.054   6.540 -2.5470 -1.0654 -1.4348
56517SOL    HW276792   9.018   2.060   6.389  2.3425  2.3599 -1.1331
56518SOL     OW76793   6.105  12.364   7.592 -0.7178 -0.0055  0.1389
56518SOL    HW176794   6.075  12.339   7.505  0.1638 -0.7896  0.0377
56518SOL    HW276795   6.025  12.379   7.642 -1.3002 -1.8102 -0.1695
56519SOL     OW76796   8.540   7.937  11.054 -0.3492  0.6977  0.3347
56519SOL    HW176797   8.594   7.901  11.123 -0.0567 -0.0128 -0.2557
56519SOL    HW276798   8.587   7.917  10.973 -1.1467  0.6754 -0.1394
56520SOL     OW76799   1.018   2.963   9.317 -0.4117 -0.3478 -0.0641
56520SOL    HW176800   0.931   2.925   9.329 -0.6019 -0.1588 -0.8160
56520SOL    HW276801   1.004   3.035   9.256  0.2691 -0.2914 -0.1543
56521SOL     OW76802  12.052   3.206   5.368  0.2020  0.1383 -0.4382
56521SOL    HW176803  11.981   3.199   5.304 -0.8537  1.5529  0.5070
56521SOL    HW276804  12.020   3.159   5.444 -0.0191  1.3074  0.2139
56522SOL     OW76805  12.560   7.692   7.494  0.2465 -0.0476  0.1149
56522SOL    HW176806  12.580   7.761   7.558 -1.0603  0.6324 -0.1716
56522SOL    HW276807  12.644   7.651   7.476  0.8483  0.6231  1.2737
56523SOL     OW76808   3.813  10.690   2.437 -0.1897  0.4565 -0.3484
56523SOL    HW176809   3.828  10.601   2.469 -1.2412  0.3477 -0.1069
56523SOL    HW276810   3.813  10.682   2.341 -0.0043  0.2475 -0.3302
56524SOL     OW76811   6.565   0.339   4.340 -0.6121  0.2426 -0.5961
56524SOL    HW176812   6.580   0.335   4.245 -0.7033 -0.6996 -0.5806
56524SOL    HW276813   6.620   0.268   4.376  0.1162  1.1637  0.1540
56525SOL     OW76814   1.927   2.749   1.479 -0.4699  0.9874 -0.2243
56525SOL    HW176815   2.019   2.764   1.456  0.6416 -2.3735  1.3954
56525SOL    HW276816   1.914   2.797   1.560  0.2889  0.4511  0.2260
56526SOL     OW76817   4.721   7.235   2.212 -0.1533  0.1893 -0.5720
56526SOL    HW176818   4.702   7.306   2.273  2.2193 -0.2432  0.7913
56526SOL    HW276819   4.795   7.266   2.161 -1.4751  0.1355 -2.6428
56527SOL     OW76820   2.411   9.418   7.925 -0.1656  0.2314 -0.2684
56527SOL    HW176821   2.339   9.472   7.957 -1.5411 -1.2854 -0.7083
56527SOL    HW276822   2.488   9.452   7.971 -1.1742  1.7299  0.3917
56528SOL     OW76823   8.449   1.490  10.811  0.1897 -0.6882 -0.1386
56528SOL    HW176824   8.475   1.503  10.720 -1.4200  0.7327 -0.4558
56528SOL    HW276825   8.532   1.480  10.859  1.2428  1.2538 -1.3965
56529SOL     OW76826   6.358   0.588   4.872  0.2043  0.2086  0.0512
56529SOL    HW176827   6.329   0.550   4.955  1.1112  1.0423  0.7649
56529SOL    HW276828   6.381   0.512   4.818 -1.9184 -0.4301 -0.0548
56530SOL     OW76829   4.798   6.558   5.684  0.4150  0.2887 -0.3933
56530SOL    HW176830   4.887   6.591   5.670  0.1668  0.4118 -1.8009
56530SOL    HW276831   4.742   6.635   5.679  0.2155  0.2168  0.5288
56531SOL     OW76832   8.789   4.665   7.288 -0.1623 -0.3891  0.3781
56531SOL    HW176833   8.862   4.699   7.236 -0.9881  1.8580  0.5863
56531SOL    HW276834   8.751   4.596   7.233  0.1527  0.6242 -1.1745
56532SOL     OW76835  11.759   3.294   7.905 -0.7295  0.2346  0.5104
56532SOL    HW176836  11.812   3.303   7.985  0.7243 -0.2944 -0.3603
56532SOL    HW276837  11.775   3.375   7.857 -2.0208  0.7825  0.9709
56533SOL     OW76838   1.616   3.361   2.236  0.4867  0.6106  1.2704
56533SOL    HW176839   1.620   3.412   2.155  1.8737 -2.7083 -0.9626
56533SOL    HW276840   1.525   3.332   2.241  0.7292 -0.4964 -0.0934
56534SOL     OW76841  10.916   9.884   6.918  0.0384 -0.4988  0.3332
56534SOL    HW176842  10.908   9.865   7.012 -2.8129 -0.5239  0.1800
56534SOL    HW276843  10.961   9.807   6.882 -1.1134 -1.7218  1.3584
56535SOL     OW76844   8.127   1.208   7.557 -0.0282  0.3182  0.4162
56535SOL    HW176845   8.109   1.217   7.651  0.5927 -0.9809  0.6852
56535SOL    HW276846   8.208   1.157   7.553 -1.0047 -1.2128 -0.8354
56536SOL     OW76847   2.512   0.424  11.047 -0.3091  0.5294  0.5370
56536SOL    HW176848   2.484   0.493  11.107  0.2332  0.1165  1.2807
56536SOL    HW276849   2.430   0.389  11.011 -0.6480  0.6724  1.1553
56537SOL     OW76850   9.195   1.707   0.869  0.2808 -0.3772  0.0573
56537SOL    HW176851   9.218   1.626   0.825  1.6257 -0.5617  1.0514
56537SOL    HW276852   9.209   1.689   0.962  0.9471  1.0842  0.2678
56538SOL     OW76853   7.391   0.324   6.462 -0.0251 -0.2151 -0.1958
56538SOL    HW176854   7.360   0.297   6.375 -1.7191 -1.2916  0.6886
56538SOL    HW276855   7.353   0.411   6.474  1.1478  0.4220 -0.9633
56539SOL     OW76856   5.110   6.315   8.366 -0.2708  0.1840  0.4921
56539SOL    HW176857   5.128   6.250   8.298 -2.4038  0.7625 -0.7072
56539SOL    HW276858   5.050   6.271   8.426 -0.4085  0.5124  0.5956
56540SOL     OW76859   2.350  10.410   6.262 -0.4600 -0.3854 -0.2353
56540SOL    HW176860   2.371  10.357   6.185 -2.0920 -0.7916 -0.4392
56540SOL    HW276861   2.305  10.486   6.226 -0.2407 -0.0278  0.2412
56541SOL     OW76862  10.365   1.029   0.681 -0.1926 -0.0297  0.2927
56541SOL    HW176863  10.456   1.055   0.693  0.4762 -2.1792  0.2919
56541SOL    HW276864  10.340   1.067   0.597  0.7487  0.4588  0.2256
56542SOL     OW76865  12.572   3.043  10.685  0.0157 -0.2735 -0.1307
56542SOL    HW176866  12.646   3.071  10.740  0.1085  0.8735 -0.7870
56542SOL    HW276867  12.560   3.116  10.624 -1.1145 -0.8249 -0.5881
56543SOL     OW76868   5.568  10.378   4.930 -0.2170  0.4870 -0.0963
56543SOL    HW176869   5.487  10.359   4.882 -0.2200  0.8025 -0.2180
56543SOL    HW276870   5.625  10.303   4.911 -1.3017 -0.9336  1.8663
56544SOL     OW76871   9.102  12.321   4.135  0.1285 -0.7975 -0.3081
56544SOL    HW176872   9.079  12.349   4.047  0.2973  0.1465 -0.0579
56544SOL    HW276873   9.081  12.396   4.191 -0.5938 -1.6081  0.5542
56545SOL     OW76874  10.512   7.617   9.292  0.0674 -0.5601  0.8036
56545SOL    HW176875  10.492   7.703   9.330  0.5977  0.3535 -0.9169
56545SOL    HW276876  10.601   7.598   9.321  0.9523  0.7217 -0.9346
56546SOL     OW76877   0.380   6.454   7.723 -0.1983  0.3862 -0.0706
56546SOL    HW176878   0.464   6.500   7.715  0.2844 -0.5697 -0.7295
56546SOL    HW276879   0.351   6.471   7.813  1.0665  0.1238  0.4027
56547SOL     OW76880   6.082  11.011  10.898 -0.1812 -0.7701 -0.5301
56547SOL    HW176881   6.068  11.078  10.831  1.9240  0.0203 -0.2289
56547SOL    HW276882   6.135  10.944  10.855 -0.2492 -1.0912 -0.1248
56548SOL     OW76883  10.019   7.721   5.589 -0.0054 -0.8522 -0.3831
56548SOL    HW176884   9.926   7.743   5.584  0.2953  0.4837 -0.2414
56548SOL    HW276885  10.028   7.678   5.674 -0.2402  0.2910  0.2361
56549SOL     OW76886   9.964   8.746  11.813  0.1687  0.3825 -0.2992
56549SOL    HW176887   9.959   8.650  11.814 -0.9854  0.4233  0.0304
56549SOL    HW276888  10.057   8.765  11.816  0.4648 -0.7347 -1.3588
56550SOL     OW76889   9.764  11.222   5.579 -0.3720 -0.2286  0.0250
56550SOL    HW176890   9.798  11.142   5.540  2.4412  0.3893  0.9755
56550SOL    HW276891   9.838  11.258   5.629 -2.4758  1.2984  2.2859
56551SOL     OW76892   8.709   6.024   9.933  0.0793  0.1463 -0.0798
56551SOL    HW176893   8.756   5.942   9.942 -0.6962 -0.2778  0.1970
56551SOL    HW276894   8.635   6.003   9.876  0.9654  1.1263 -1.6723
56552SOL     OW76895   9.567   6.245   0.875 -0.5570  0.4363  0.0628
56552SOL    HW176896   9.605   6.269   0.790 -2.1479  0.5765 -0.6533
56552SOL    HW276897   9.642   6.241   0.935  0.6602 -0.0795 -1.4236
56553SOL     OW76898  11.969   1.826   4.859 -0.5682 -0.0340  0.3804
56553SOL    HW176899  12.025   1.750   4.844 -1.5355 -0.7411  0.2479
56553SOL    HW276900  12.000   1.892   4.796  1.2428  0.2479  1.4930
56554SOL     OW76901   2.549   1.204   8.811  0.2519 -0.1875 -0.0188
56554SOL    HW176902   2.629   1.246   8.844  0.0545  0.4758 -0.3707
56554SOL    HW276903   2.500   1.180   8.890 -0.6605  2.2235  0.2523
56555SOL     OW76904   6.524   7.508   2.958  0.0955 -0.3719  0.2097
56555SOL    HW176905   6.447   7.451   2.960  0.4055 -0.7945  1.9581
56555SOL    HW276906   6.597   7.449   2.939 -0.0558  0.1589 -2.3327
56556SOL     OW76907   9.158   3.682   4.120 -0.5592  0.0858  0.3821
56556SOL    HW176908   9.159   3.627   4.199  0.7574  0.6515  0.7850
56556SOL    HW276909   9.150   3.771   4.153  3.1887  0.6676  0.1992
56557SOL     OW76910   9.096   8.908   0.391  0.0723 -0.3162 -0.2132
56557SOL    HW176911   9.175   8.915   0.338  1.6586 -1.2091  1.8836
56557SOL    HW276912   9.128   8.888   0.479 -2.3298  2.3520  1.4412
56558SOL     OW76913   2.014  10.593  10.136 -0.1902 -0.2969 -0.5242
56558SOL    HW176914   2.053  10.623  10.219  0.0676  0.8270 -1.0344
56558SOL    HW276915   1.920  10.606  10.148 -0.0363  1.5813 -1.0269
56559SOL     OW76916   2.446   7.685  10.866  0.2714 -0.1532  0.4262
56559SOL    HW176917   2.530   7.681  10.819  0.7440  0.7033  1.1656
56559SOL    HW276918   2.406   7.766  10.837  0.9998  0.8831  2.1577
56560SOL     OW76919   1.633   4.656   3.731  0.1025 -0.1463  0.4000
56560SOL    HW176920   1.588   4.675   3.813 -0.0954  1.0196  0.0448
56560SOL    HW276921   1.564   4.622   3.674 -0.0997  0.5464  0.2231
56561SOL     OW76922   7.828   3.391   9.839  0.0245 -0.8223 -0.0399
56561SOL    HW176923   7.764   3.377   9.908 -1.3569  0.6068 -0.9684
56561SOL    HW276924   7.890   3.454   9.876  0.2058 -1.2655  0.4245
56562SOL     OW76925   4.602   0.129   5.996 -0.1446  0.3932 -0.4451
56562SOL    HW176926   4.685   0.105   5.956 -0.7432  0.8401 -2.0195
56562SOL    HW276927   4.616   0.216   6.032  0.3395  0.0671  0.1832
56563SOL     OW76928   5.615   0.170   8.217 -0.2253  0.0801 -0.2506
56563SOL    HW176929   5.563   0.107   8.167 -1.4588  0.7678  0.1231
56563SOL    HW276930   5.573   0.254   8.201 -1.4555  0.2013  2.8523
56564SOL     OW76931   9.323   8.290   9.453 -0.1529 -0.0001 -0.1478
56564SOL    HW176932   9.337   8.346   9.529  1.2053  0.8335 -0.9733
56564SOL    HW276933   9.400   8.233   9.451 -0.0522  0.1543 -1.0306
56565SOL     OW76934   9.238   7.156  11.926  0.3356 -0.5965 -0.0522
56565SOL    HW176935   9.161   7.213  11.928  0.5548 -0.3128  1.1335
56565SOL    HW276936   9.249   7.135  11.834 -0.4281  0.3598 -0.3888
56566SOL     OW76937   2.761   2.850   1.902 -0.1261 -0.1295  0.2063
56566SOL    HW176938   2.826   2.899   1.852 -0.3880 -0.4091 -0.4161
56566SOL    HW276939   2.679   2.898   1.889 -0.1970 -0.2040  0.3674
56567SOL     OW76940   0.517   4.370   1.736 -0.0038 -0.3077  0.7487
56567SOL    HW176941   0.528   4.295   1.795  3.5976 -0.9860 -0.5483
56567SOL    HW276942   0.586   4.431   1.761 -0.1391  0.6173 -0.9610
56568SOL     OW76943  11.712   9.171   9.107  0.4503  0.5476  0.3238
56568SOL    HW176944  11.769   9.178   9.030 -1.7455  0.6365 -1.3950
56568SOL    HW276945  11.691   9.078   9.113  0.8419  0.5001  1.0123
56569SOL     OW76946   7.154   5.271   4.454  0.0015  0.1025  0.0300
56569SOL    HW176947   7.234   5.222   4.472 -1.2197 -1.9086  0.3017
56569SOL    HW276948   7.158   5.347   4.513  1.4187 -0.2542  0.4271
56570SOL     OW76949   7.169   6.985   0.531 -0.1474 -0.6425 -0.3136
56570SOL    HW176950   7.191   6.909   0.477 -1.9747 -1.4953  0.0671
56570SOL    HW276951   7.075   6.998   0.517  0.0250  1.2528  0.0288
56571SOL     OW76952  11.017   8.301   4.504  0.0477  0.3308 -0.6110
56571SOL    HW176953  11.072   8.314   4.426 -1.1666  0.8961 -1.4091
56571SOL    HW276954  11.060   8.231   4.552  0.4371 -0.5591 -2.1782
56572SOL     OW76955   2.684  10.805   8.151  0.4637  0.4538 -0.3820
56572SOL    HW176956   2.599  10.821   8.192  0.7050 -0.4787  0.5380
56572SOL    HW276957   2.674  10.837   8.061 -1.1488 -0.4002 -0.5504
56573SOL     OW76958   5.820   5.090   7.173  0.4392 -0.3433  0.3356
56573SOL    HW176959   5.849   5.176   7.202 -1.3184  0.4201 -0.0567
56573SOL    HW276960   5.762   5.059   7.242  0.6961 -1.0162  0.2602
56574SOL     OW76961  12.474   9.859   6.832  0.1537  0.6312  0.3266
56574SOL    HW176962  12.478   9.953   6.850 -1.6449  0.6818  0.6933
56574SOL    HW276963  12.526   9.819   6.902  2.4422  1.3944 -0.8432
56575SOL     OW76964   7.484   2.236   7.258  0.1595  0.6786 -0.1789
56575SOL    HW176965   7.446   2.230   7.346 -0.5183 -0.4343 -0.5361
56575SOL    HW276966   7.579   2.232   7.273  0.0749  1.1232  0.5438
56576SOL     OW76967   1.622   0.862  11.676  0.0868  0.5504  0.1073
56576SOL    HW176968   1.635   0.954  11.655  0.2660  0.7139  0.9070
56576SOL    HW276969   1.651   0.816  11.597 -0.8022  1.2010 -0.6157
56577SOL     OW76970   4.386   0.188   5.216  0.0882  0.4774  0.1847
56577SOL    HW176971   4.293   0.177   5.194  0.4356 -2.2135 -0.3181
56577SOL    HW276972   4.388   0.187   5.311 -0.2981 -1.2790  0.2147
56578SOL     OW76973   9.659   1.412   8.283 -0.2762 -0.0021  0.0346
56578SOL    HW176974   9.704   1.351   8.225 -0.2682 -0.3049  0.3577
56578SOL    HW276975   9.615   1.356   8.347  1.5043  0.3789  1.6662
56579SOL     OW76976   0.407   6.154   8.851 -0.0950 -0.2264  0.1409
56579SOL    HW176977   0.457   6.234   8.835  1.4326 -1.2670 -0.5315
56579SOL    HW276978   0.316   6.180   8.836  0.5311  0.8828 -2.3568
56580SOL     OW76979   5.773  11.070   8.531  0.2817 -0.2227 -0.2882
56580SOL    HW176980   5.826  10.999   8.567 -0.0178  0.0775  0.7870
56580SOL    HW276981   5.829  11.147   8.536  0.1479 -0.1291 -0.2116
56581SOL     OW76982   7.213   7.544  12.412 -0.4225 -0.0307 -0.5775
56581SOL    HW176983   7.167   7.626  12.390  0.4187  0.2028 -1.5216
56581SOL    HW276984   7.176   7.518  12.497 -1.7357  0.5570 -0.9451
56582SOL     OW76985   8.720   8.035   7.091 -0.2288 -0.5820  0.7353
56582SOL    HW176986   8.648   8.007   7.147 -0.0521 -1.7110  0.4266
56582SOL    HW276987   8.740   7.958   7.038  1.0675 -0.2233  0.6747
56583SOL     OW76988  12.335   1.641   3.577  0.4227  0.1709  0.2289
56583SOL    HW176989  12.269   1.672   3.638  0.4228 -0.1714  0.4035
56583SOL    HW276990  12.331   1.546   3.583  0.9467  0.1479  0.2615
56584SOL     OW76991   0.317   6.870   2.870  0.1157  0.0313 -0.0950
56584SOL    HW176992   0.271   6.905   2.947  0.8993  2.9330 -0.8148
56584SOL    HW276993   0.399   6.836   2.904  0.4171  1.2171  0.4374
56585SOL     OW76994   9.367   2.593   7.457  0.0502 -0.4980  0.3172
56585SOL    HW176995   9.350   2.515   7.405  0.1080 -0.3162  0.0278
56585SOL    HW276996   9.286   2.608   7.505  0.2652 -1.1292  0.8892
56586SOL     OW76997  11.763   8.671   3.320 -0.1759  0.0931  0.1381
56586SOL    HW176998  11.740   8.761   3.300  1.6879  0.7698  0.8368
56586SOL    HW276999  11.857   8.673   3.336 -0.3811 -1.6055  2.0676
56587SOL     OW77000  10.984   0.387   3.348  0.4473 -0.0101  0.2590
56587SOL    HW177001  10.940   0.392   3.263  0.2084 -0.1182  0.3729
56587SOL    HW277002  11.010   0.477   3.368 -0.6625  0.2409  0.6687
56588SOL     OW77003   6.226  10.686   0.974 -0.0025  0.2051 -0.4854
56588SOL    HW177004   6.139  10.647   0.968  0.5244 -1.0018 -0.5486
56588SOL    HW277005   6.211  10.771   1.014 -1.1839 -0.0952 -0.2502
56589SOL     OW77006  10.987   6.358   4.347 -0.1664 -0.2608  0.6257
56589SOL    HW177007  11.048   6.430   4.334 -0.2106 -0.1443  1.0637
56589SOL    HW277008  10.918   6.394   4.403 -1.2131 -0.0663 -0.7153
56590SOL     OW77009   8.479  12.494   7.649 -0.5104 -0.1518 -0.8882
56590SOL    HW177010   8.417  12.554   7.691 -1.0414 -1.2269 -0.0914
56590SOL    HW277011   8.559  12.546   7.638 -0.4863  0.3176  1.0963
56591SOL     OW77012   2.411   6.589   7.343 -0.4563 -0.8280  0.3639
56591SOL    HW177013   2.358   6.599   7.264 -2.3709  0.1141  1.6784
56591SOL    HW277014   2.447   6.501   7.336 -2.4304 -1.6486 -0.5081
56592SOL     OW77015  10.275   4.117  11.580 -0.1720  0.2188  0.0622
56592SOL    HW177016  10.311   4.032  11.554 -1.4359 -0.4297  0.3475
56592SOL    HW277017  10.220   4.097  11.655  0.3454  1.4710  0.8019
56593SOL     OW77018   9.537   9.998   1.158  0.1084 -0.3444  0.2228
56593SOL    HW177019   9.487   9.917   1.167  1.6018 -1.4336 -0.9648
56593SOL    HW277020   9.494  10.045   1.086  0.0899 -0.7373 -0.0245
56594SOL     OW77021   0.419  12.097  10.647 -0.0922 -0.4677 -0.9472
56594SOL    HW177022   0.405  12.167  10.711  0.0811 -0.0956 -1.3095
56594SOL    HW277023   0.444  12.143  10.566  1.8379 -0.9955 -0.7157
56595SOL     OW77024   2.552   1.579  11.836 -0.3336 -0.7242  0.1617
56595SOL    HW177025   2.572   1.596  11.743  1.7357 -0.7896  0.5543
56595SOL    HW277026   2.543   1.666  11.874 -0.7218 -0.6959  0.0206
56596SOL     OW77027   8.026   5.207   9.438 -0.1893 -1.0341  0.0796
56596SOL    HW177028   8.082   5.281   9.462 -1.5314 -0.0026  0.1287
56596SOL    HW277029   8.086   5.144   9.397  0.9181  0.2440 -0.3318
56597SOL     OW77030   2.288   7.131   9.143  0.2295 -0.0939  0.7891
56597SOL    HW177031   2.258   7.217   9.113 -0.5789 -0.0194  1.7732
56597SOL    HW277032   2.354   7.105   9.079  0.9358  1.5440  0.8101
56598SOL     OW77033   8.336   9.840   2.138 -0.2808 -0.0489 -0.6048
56598SOL    HW177034   8.339   9.924   2.183  1.2771 -0.1786 -0.4021
56598SOL    HW277035   8.351   9.775   2.207 -2.8949 -0.6490 -0.5034
56599SOL     OW77036   4.674  12.160   8.194 -0.0557 -0.5103  0.5936
56599SOL    HW177037   4.688  12.251   8.166  2.4779 -0.7504  0.8418
56599SOL    HW277038   4.608  12.167   8.263 -3.0138  0.5877 -2.0962
56600SOL     OW77039   9.036   1.290  10.696  0.3370 -0.3322  0.1069
56600SOL    HW177040   9.091   1.360  10.734 -0.5932  1.5928 -1.8520
56600SOL    HW277041   9.090   1.253  10.626  0.6767 -1.3626  0.8900
56601SOL     OW77042  11.893   3.733  11.264 -0.4974  0.1383  0.0761
56601SOL    HW177043  11.831   3.676  11.309 -0.1286  0.1873  0.6568
56601SOL    HW277044  11.941   3.776  11.334  0.4291 -0.1530 -0.3609
56602SOL     OW77045   4.016   1.631   5.550  0.4111 -0.3529 -0.0512
56602SOL    HW177046   4.078   1.590   5.490 -1.9505 -1.7707 -1.6665
56602SOL    HW277047   4.008   1.721   5.519 -0.3254 -0.9054 -1.5717
56603SOL     OW77048   8.501   1.765  10.951 -0.1183 -0.0877  0.7931
56603SOL    HW177049   8.572   1.804  10.899 -2.3618  1.8320 -1.0258
56603SOL    HW277050   8.492   1.676  10.916 -0.0759  0.4194 -0.5522
56604SOL     OW77051   7.120   9.721  11.393 -0.2145  0.6165 -0.2010
56604SOL    HW177052   7.112   9.695  11.301 -0.4387 -0.6112  0.1459
56604SOL    HW277053   7.093   9.813  11.395 -3.6461 -0.2241 -0.8585
56605SOL     OW77054   6.898   1.226   8.222 -0.3720  0.4985  0.2252
56605SOL    HW177055   6.940   1.311   8.237 -0.1418  0.2600  0.9739
56605SOL    HW277056   6.943   1.166   8.282 -0.2942 -0.2309 -0.5346
56606SOL     OW77057   8.818   0.358   1.133 -0.2199 -0.0973 -0.0597
56606SOL    HW177058   8.727   0.388   1.139 -0.7358 -1.1047 -1.9606
56606SOL    HW277059   8.870   0.437   1.147 -1.4453  0.9661 -1.1672
56607SOL     OW77060   9.223  10.447  12.612 -0.0155 -0.6581 -0.0062
56607SOL    HW177061   9.138  10.480  12.584 -0.4353 -1.6448  0.0646
56607SOL    HW277062   9.225  10.357  12.580  0.0092 -1.4325  2.0592
56608SOL     OW77063   8.902   4.462  11.314  0.8188  0.0123 -0.1461
56608SOL    HW177064   8.811   4.434  11.310  0.9087 -0.2844 -0.1348
56608SOL    HW277065   8.931   4.442  11.403  0.2883  2.0350  0.5316
56609SOL     OW77066   5.412  11.106   0.575  0.5160  0.4683  0.0629
56609SOL    HW177067   5.416  11.013   0.600  1.4522  0.0503 -1.5062
56609SOL    HW277068   5.320  11.129   0.584  0.6384  0.2208  3.1662
56610SOL     OW77069   8.210   8.005   0.595  0.3090  0.4804  0.3096
56610SOL    HW177070   8.242   7.987   0.684  1.2984 -1.1913 -0.3448
56610SOL    HW277071   8.270   8.070   0.560  0.2244  0.7620  0.6787
56611SOL     OW77072   4.366   2.122   0.621  0.9993 -0.6826  0.4131
56611SOL    HW177073   4.313   2.069   0.680  1.8304 -0.3211  1.5081
56611SOL    HW277074   4.450   2.077   0.616  1.0115 -0.5903 -0.3323
56612SOL     OW77075  11.385  12.236   3.201 -0.3774  0.2837  0.0385
56612SOL    HW177076  11.457  12.233   3.138 -0.9991 -2.4781 -0.6594
56612SOL    HW277077  11.318  12.289   3.158  0.7229  1.9097  0.2149
56613SOL     OW77078   8.793   4.319   7.222  0.2161  0.7237  0.1766
56613SOL    HW177079   8.753   4.302   7.307 -0.5057 -1.2007 -0.4922
56613SOL    HW277080   8.720   4.340   7.165  0.5115  0.4014 -0.3292
56614SOL     OW77081   9.609  10.446   6.256 -0.0233 -0.0103  0.2805
56614SOL    HW177082   9.674  10.416   6.193 -0.6379  1.0621 -0.9226
56614SOL    HW277083   9.550  10.372   6.268 -0.1895 -0.0567 -0.8097
56615SOL     OW77084   5.907   0.797  10.472  0.2193 -0.0152 -0.2223
56615SOL    HW177085   5.914   0.735  10.545 -1.3826 -1.2942 -1.0935
56615SOL    HW277086   5.996   0.830  10.460  0.7451 -0.7039  1.4948
56616SOL     OW77087   5.291   1.755   8.176 -0.2879  0.3468  0.3194
56616SOL    HW177088   5.266   1.787   8.263 -0.7055 -0.0951  0.3692
56616SOL    HW277089   5.212   1.770   8.123 -0.4353 -0.4398  0.3055
56617SOL     OW77090   0.078   4.066   7.359 -0.0364 -0.6109 -0.4028
56617SOL    HW177091   0.083   4.109   7.273 -0.7076 -1.2589 -0.7755
56617SOL    HW277092  -0.004   4.016   7.356 -1.4993  1.4663  1.5874
56618SOL     OW77093   7.568   1.838   7.233 -0.3168  0.2446 -0.0935
56618SOL    HW177094   7.596   1.884   7.153 -0.0605  0.7299  0.2743
56618SOL    HW277095   7.579   1.745   7.211  2.0057  0.3897  0.1304
56619SOL     OW77096   2.520   8.756   8.011  0.3337  0.6309 -0.0630
56619SOL    HW177097   2.563   8.756   7.925 -1.1020  0.0463 -0.8200
56619SOL    HW277098   2.428   8.774   7.992  0.0761  1.0504  1.4267
56620SOL     OW77099  12.334   5.233   8.275 -0.1171  0.2009  0.1906
56620SOL    HW177100  12.418   5.240   8.229  0.3534  0.3042  1.0532
56620SOL    HW277101  12.269   5.237   8.205  0.5402  1.4015 -0.3972
56621SOL     OW77102   4.687   1.638  10.558 -0.4822  0.0066 -0.1527
56621SOL    HW177103   4.692   1.667  10.649 -1.6106  2.1202 -0.7079
56621SOL    HW277104   4.595   1.648  10.534 -0.1209 -0.0160 -1.6779
56622SOL     OW77105   8.194   5.040   7.348 -0.9087  0.0320  0.2082
56622SOL    HW177106   8.166   5.000   7.265 -0.5196 -1.0310  0.5828
56622SOL    HW277107   8.188   4.969   7.412 -0.2272  0.5801  0.8926
56623SOL     OW77108  10.614   8.900   3.227 -0.3628  0.3319 -0.4714
56623SOL    HW177109  10.569   8.897   3.311  0.0988  2.5542 -0.0631
56623SOL    HW277110  10.682   8.967   3.239 -0.3876  0.8260 -2.6389
56624SOL     OW77111  12.547   1.098   5.575  0.0258 -0.0257 -0.5347
56624SOL    HW177112  12.630   1.074   5.535  0.1010  1.1396 -1.1276
56624SOL    HW277113  12.519   1.176   5.528 -0.6912  0.4492  0.6155
56625SOL     OW77114   6.142   7.910   0.758  0.2374  0.2276 -0.2948
56625SOL    HW177115   6.196   7.893   0.680  2.3665  2.1406  0.6223
56625SOL    HW277116   6.067   7.960   0.726 -0.8002 -2.0050 -1.5362
56626SOL     OW77117  10.308   3.025   9.885  0.5485 -0.0110 -0.1864
56626SOL    HW177118  10.245   2.963   9.847 -0.5299  1.0298 -0.1711
56626SOL    HW277119  10.253   3.097   9.918  1.7743  1.0879 -0.4683
56627SOL     OW77120   6.626  10.611   2.501  0.1463  0.3686 -0.3414
56627SOL    HW177121   6.546  10.657   2.527 -0.5697 -1.1655  0.2569
56627SOL    HW277122   6.637  10.543   2.568  0.5362 -1.0573 -1.8036
56628SOL     OW77123   4.146   2.973  12.547  0.0049  0.5738 -0.1909
56628SOL    HW177124   4.207   3.046  12.556  0.8539 -0.3239  2.1066
56628SOL    HW277125   4.074   2.995  12.607  0.0586 -0.2426  0.1854
56629SOL     OW77126   4.798   9.314   2.996  0.2782  0.4155 -0.3315
56629SOL    HW177127   4.784   9.408   2.983  2.4748  0.8995  0.3735
56629SOL    HW277128   4.874   9.294   2.942  1.2522 -0.4514  1.3093
56630SOL     OW77129  11.322   3.500   6.755 -0.5106  0.3012  0.4517
56630SOL    HW177130  11.290   3.494   6.845  0.7084  0.5519  0.9129
56630SOL    HW277131  11.330   3.409   6.725 -0.4687  0.2057  0.7575
56631SOL     OW77132   1.672   7.383  10.627 -0.2297 -0.9389  0.0777
56631SOL    HW177133   1.701   7.298  10.595 -0.1980 -1.3465  1.1348
56631SOL    HW277134   1.646   7.367  10.718  1.1357  0.4619  0.7625
56632SOL     OW77135  11.198  12.540   1.216  0.2229 -0.4131  0.1527
56632SOL    HW177136  11.112  12.581   1.222  0.4223  0.1937 -0.8811
56632SOL    HW277137  11.258  12.604   1.254  0.2532 -0.7538  0.6930
56633SOL     OW77138   0.562   5.521   7.224 -0.5160  0.0447  0.3259
56633SOL    HW177139   0.481   5.546   7.180 -0.2510  0.7097  0.2015
56633SOL    HW277140   0.617   5.599   7.219  0.0498 -0.3285  0.6043
56634SOL     OW77141   9.085   0.988   4.438 -0.0293 -0.4280  0.3431
56634SOL    HW177142   9.038   1.061   4.479 -2.2053 -0.7441 -1.4066
56634SOL    HW277143   9.033   0.911   4.461 -0.5231 -0.7840 -1.7653
56635SOL     OW77144  10.752   3.330   1.085  0.0208 -0.4000 -0.0619
56635SOL    HW177145  10.822   3.363   1.142 -0.1312  0.4882 -0.3716
56635SOL    HW277146  10.686   3.399   1.086 -2.4080 -2.5273  2.8131
56636SOL     OW77147   1.758   0.671   6.638  0.0170  0.3412 -0.1102
56636SOL    HW177148   1.817   0.645   6.567  1.1253 -0.2555  1.0121
56636SOL    HW277149   1.680   0.616   6.625  0.8570 -0.9213  0.0693
56637SOL     OW77150   4.568   9.828   9.366  0.2919 -0.5402  0.2399
56637SOL    HW177151   4.475   9.810   9.374  0.5402 -2.0666  0.0533
56637SOL    HW277152   4.573   9.905   9.308 -0.8047 -2.2101 -2.2592
56638SOL     OW77153   2.644   1.568   4.179  0.5283 -0.4519 -0.2053
56638SOL    HW177154   2.626   1.630   4.250 -1.1365 -1.6774  0.5213
56638SOL    HW277155   2.739   1.567   4.170  0.7828 -0.2874  2.0632
56639SOL     OW77156   2.668   4.119   8.457 -0.6338  0.0130 -0.5084
56639SOL    HW177157   2.643   4.070   8.536  0.2315 -0.0138 -0.2433
56639SOL    HW277158   2.763   4.110   8.452 -0.5295  1.1581 -0.8091
56640SOL     OW77159   3.760   7.150   4.435  0.0155 -0.0879 -0.2239
56640SOL    HW177160   3.802   7.224   4.478  0.0047 -0.2153  0.0075
56640SOL    HW277161   3.831   7.089   4.415  0.0900  0.1863 -0.8338
56641SOL     OW77162   8.406   1.657  11.200 -0.8498  0.3295 -0.1595
56641SOL    HW177163   8.455   1.697  11.129 -1.7431 -0.0381 -1.0058
56641SOL    HW277164   8.453   1.576  11.219 -1.0561  0.0195 -0.9105
56642SOL     OW77165   7.584   1.570   7.201 -0.0670  0.3792 -0.1791
56642SOL    HW177166   7.572   1.488   7.152 -0.2213  0.9516 -1.1271
56642SOL    HW277167   7.679   1.584   7.201  0.0296 -0.2178  0.7057
56643SOL     OW77168   1.496   6.860   8.864 -0.2132 -0.4609 -0.1415
56643SOL    HW177169   1.560   6.910   8.814  1.1045 -2.0616 -0.1683
56643SOL    HW277170   1.451   6.925   8.918  3.0668  0.5480  1.6307
56644SOL     OW77171   6.286   9.694   4.019  0.5752  0.3504 -0.0138
56644SOL    HW177172   6.349   9.748   4.066 -1.9439  2.5442  1.1045
56644SOL    HW277173   6.309   9.705   3.927  0.2376  3.3505  0.1728
56645SOL     OW77174  11.143   1.650  10.180  0.4347 -0.2512 -0.5583
56645SOL    HW177175  11.204   1.707  10.133  1.6497 -0.0512  1.1440
56645SOL    HW277176  11.184   1.636  10.266 -0.3042 -2.8537 -0.5214
56646SOL     OW77177   1.320  11.355   5.574  0.0164  0.3344  0.1026
56646SOL    HW177178   1.272  11.376   5.654  0.5393  1.1697  0.2049
56646SOL    HW277179   1.411  11.345   5.602  0.0531 -0.3707 -0.2312
56647SOL     OW77180   4.605   4.920   8.221 -0.2058 -0.0147 -0.0237
56647SOL    HW177181   4.649   4.974   8.286 -0.4253 -0.4337  0.4786
56647SOL    HW277182   4.664   4.844   8.210 -1.6377 -1.5536  2.0735
56648SOL     OW77183   7.253  12.069   3.938 -0.0214  0.2351 -0.6295
56648SOL    HW177184   7.208  12.027   4.011  1.5861 -2.6763 -1.1375
56648SOL    HW277185   7.346  12.064   3.961  0.3826  1.5188 -1.8076
56649SOL     OW77186   5.982   7.417   4.056  0.1881 -0.0384  0.7996
56649SOL    HW177187   6.044   7.398   4.127  0.4284  0.7561  0.8139
56649SOL    HW277188   6.010   7.362   3.984  0.7920  0.1760  0.8705
56650SOL     OW77189   4.457   4.366   4.093 -0.2582 -0.4087 -0.7160
56650SOL    HW177190   4.380   4.419   4.113  0.0686 -0.1711 -0.0591
56650SOL    HW277191   4.483   4.328   4.177 -0.2202 -1.2589 -1.0979
56651SOL     OW77192   5.491   0.748   9.438 -0.3684  0.0146 -0.2546
56651SOL    HW177193   5.547   0.716   9.508 -0.1695 -0.5993 -0.6896
56651SOL    HW277194   5.478   0.841   9.458  0.0309 -0.0584  0.3590
56652SOL     OW77195  11.047   7.197   6.725 -0.0976 -0.6902  0.0663
56652SOL    HW177196  11.021   7.220   6.635  0.5529  0.9177  0.2418
56652SOL    HW277197  11.137   7.165   6.716  0.6171  1.1268  0.2909
56653SOL     OW77198   4.986   3.602  11.547  0.1172  0.2174 -0.2365
56653SOL    HW177199   4.958   3.511  11.559  0.4099  0.0801 -0.5451
56653SOL    HW277200   4.956   3.647  11.625  1.5790 -0.5338  0.8126
56654SOL     OW77201   6.622   6.020   3.027  0.3407 -0.4084  1.0339
56654SOL    HW177202   6.646   6.068   3.106  2.4887  0.0502  0.1704
56654SOL    HW277203   6.619   6.087   2.958 -0.4800 -0.9592  0.5079
56655SOL     OW77204   3.214   4.156   7.603  0.1857 -0.6424  0.4615
56655SOL    HW177205   3.268   4.088   7.643  0.2362 -0.4332  0.7475
56655SOL    HW277206   3.183   4.117   7.521  2.2406 -0.1292 -0.6297
56656SOL     OW77207  10.387   1.362  10.041 -0.0466 -0.6126  0.6190
56656SOL    HW177208  10.459   1.425  10.051 -1.3581  1.2478 -1.0980
56656SOL    HW277209  10.418   1.302   9.973  0.3084 -0.5060  0.6806
56657SOL     OW77210   7.548   1.199   1.838  0.0636 -0.1058  0.4561
56657SOL    HW177211   7.579   1.183   1.927  0.3838 -0.4047  0.2910
56657SOL    HW277212   7.609   1.264   1.802 -0.4359  0.4884  0.6643
56658SOL     OW77213   5.991   9.115  11.247  0.8748 -0.4649  0.0456
56658SOL    HW177214   6.039   9.132  11.328  1.9762 -0.6980 -0.5469
56658SOL    HW277215   6.022   9.029  11.218  0.4749 -0.3909 -0.6193
56659SOL     OW77216   8.929   9.707  11.093 -0.0186  0.5612  0.9398
56659SOL    HW177217   8.990   9.638  11.065  0.8287  1.0380  1.5624
56659SOL    HW277218   8.949   9.720  11.186  0.6198  2.4285  0.5742
56660SOL     OW77219  11.746   1.671   0.001 -0.1503 -0.1551  0.0400
56660SOL    HW177220  11.667   1.643   0.049  1.2154 -1.7003  1.5114
56660SOL    HW277221  11.816   1.666   0.066  1.1304  1.6309 -1.1096
56661SOL     OW77222   4.187   3.521   0.452  0.0511  0.1211  0.0403
56661SOL    HW177223   4.275   3.494   0.426  0.7219  0.3269  1.9140
56661SOL    HW277224   4.180   3.494   0.544 -0.4577  3.2451  1.0502
56662SOL     OW77225   6.896   6.696   4.061 -0.1269  0.4683 -0.0981
56662SOL    HW177226   6.863   6.756   3.994 -2.5019 -1.7325 -1.0572
56662SOL    HW277227   6.982   6.669   4.028  0.3847  2.1989 -0.3257
56663SOL     OW77228   6.138   1.421  10.323 -0.0964  0.1338 -0.1763
56663SOL    HW177229   6.185   1.397  10.403  1.2411  0.9442 -0.6960
56663SOL    HW277230   6.169   1.509  10.302 -0.0293 -0.2676 -1.8776
56664SOL     OW77231   6.875   3.614  10.119 -0.0197  0.2049  0.0487
56664SOL    HW177232   6.801   3.675  10.119 -0.2028  0.0372 -1.5675
56664SOL    HW277233   6.948   3.664  10.157 -0.7781  0.5849  1.0476
56665SOL     OW77234   2.245   1.734   9.657  0.1630  0.1662  0.1465
56665SOL    HW177235   2.271   1.701   9.570  1.6636 -0.2650  0.7381
56665SOL    HW277236   2.187   1.666   9.691 -0.9170  0.6094 -0.7294
56666SOL     OW77237   2.154   6.021   7.575 -0.2395  0.2393 -0.0862
56666SOL    HW177238   2.232   5.966   7.569 -1.1002 -0.9471 -0.7646
56666SOL    HW277239   2.143   6.037   7.668  0.4244 -0.1616  0.0668
56667SOL     OW77240  10.697  12.338   2.599  0.0972 -0.0980  0.3061
56667SOL    HW177241  10.641  12.262   2.588 -0.8757  0.4964  0.9474
56667SOL    HW277242  10.667  12.400   2.533  0.9463 -0.2941 -0.2784
56668SOL     OW77243   3.449   2.341   9.834 -0.0794  0.3537 -0.1075
56668SOL    HW177244   3.543   2.330   9.846 -0.3734 -1.6518  0.8832
56668SOL    HW277245   3.434   2.434   9.845  1.5169  0.4221  2.1835
56669SOL     OW77246   7.987   1.496   9.404 -0.1614 -0.0188  0.0070
56669SOL    HW177247   7.987   1.500   9.499 -0.4415 -1.0948  0.0639
56669SOL    HW277248   8.076   1.467   9.381 -0.1360  0.1033 -0.0496
56670SOL     OW77249  10.965  11.778   0.201 -0.2669  0.0769  1.0357
56670SOL    HW177250  10.985  11.812   0.113 -2.9715 -0.7206  0.0266
56670SOL    HW277251  11.037  11.717   0.219  0.5862  0.5910 -0.4115
56671SOL     OW77252   4.174   1.295   4.870 -0.1807 -0.3106  0.5204
56671SOL    HW177253   4.167   1.384   4.836 -2.7491 -0.4040  0.6514
56671SOL    HW277254   4.184   1.306   4.964 -2.8140 -0.0883  0.8544
56672SOL     OW77255   4.795   0.103   7.941 -0.4405 -0.0527  0.1032
56672SOL    HW177256   4.807   0.192   7.908 -0.9782 -0.2105 -0.5279
56672SOL    HW277257   4.806   0.111   8.036  2.0021  0.2562 -0.1433
56673SOL     OW77258   5.116   2.531   9.863 -0.2743  0.1294  0.0433
56673SOL    HW177259   5.066   2.610   9.885 -3.4008 -1.9057  0.8120
56673SOL    HW277260   5.192   2.534   9.920  0.3055  3.0869 -0.7277
56674SOL     OW77261   6.061   4.856   2.028  0.1904  0.3546 -0.1374
56674SOL    HW177262   6.053   4.888   1.938  0.8128 -0.4752 -0.4920
56674SOL    HW277263   5.979   4.884   2.070 -0.5648 -0.1165 -1.2375
56675SOL     OW77264   7.876   4.863   0.626  0.1355 -0.0326  0.3900
56675SOL    HW177265   7.900   4.820   0.709  0.1379 -0.5491  0.1254
56675SOL    HW277266   7.929   4.943   0.625  0.8634 -0.4993  0.4427
56676SOL     OW77267   8.331   7.872   2.491  0.0825  0.0153 -0.3931
56676SOL    HW177268   8.390   7.939   2.455 -2.6270  2.2817 -0.9422
56676SOL    HW277269   8.317   7.899   2.581 -3.3832  2.1739 -1.4075
56677SOL     OW77270   8.225   6.622   1.433 -0.0868  0.0595 -0.9098
56677SOL    HW177271   8.223   6.533   1.398  1.8535 -0.7721  0.8478
56677SOL    HW277272   8.290   6.618   1.504 -0.2794  2.7719 -0.4786
56678SOL     OW77273   2.378  10.903   2.275  0.6202 -0.6571 -0.7726
56678SOL    HW177274   2.471  10.879   2.270  0.9590  0.1657  0.8767
56678SOL    HW277275   2.367  10.940   2.362 -0.7699  1.3502 -1.7150
56679SOL     OW77276   4.222  11.748  11.836 -0.2345  0.1721 -0.2120
56679SOL    HW177277   4.314  11.766  11.853 -0.1376 -0.7043  0.2236
56679SOL    HW277278   4.183  11.736  11.923 -0.4859 -0.7289 -0.4380
56680SOL     OW77279   9.349   1.282   9.151  0.5150 -0.0353  0.6916
56680SOL    HW177280   9.369   1.196   9.115  2.0705  0.6253 -0.1017
56680SOL    HW277281   9.319   1.264   9.240 -0.0714 -1.4497  0.2415
56681SOL     OW77282   0.421   0.901  10.356 -0.0732  0.0129 -0.1992
56681SOL    HW177283   0.343   0.855  10.388  1.3759 -1.0340  2.1170
56681SOL    HW277284   0.461   0.841  10.293 -1.1223  0.5813 -1.4461
56682SOL     OW77285   7.370   7.082  10.960 -0.1498  0.2928  0.2652
56682SOL    HW177286   7.425   7.084  11.038 -0.7013 -0.5695  0.6922
56682SOL    HW277287   7.313   7.007  10.973 -0.6633  0.5011 -0.6933
56683SOL     OW77288   5.653   1.822   8.481  0.3398 -0.6520 -0.5438
56683SOL    HW177289   5.706   1.895   8.514  0.0148 -0.4992 -0.3526
56683SOL    HW277290   5.574   1.863   8.446  0.7215 -0.8064 -1.6248
56684SOL     OW77291   9.157  10.389  11.037 -0.2217  0.3182  0.1150
56684SOL    HW177292   9.157  10.479  11.069  0.6008  0.3971 -0.0712
56684SOL    HW277293   9.192  10.395  10.948  1.5288 -0.3609  0.7081
56685SOL     OW77294   0.237   8.323   3.620 -0.2907  0.4734  0.1297
56685SOL    HW177295   0.172   8.315   3.690 -2.1765  1.2775 -1.4264
56685SOL    HW277296   0.304   8.381   3.655 -0.7525  0.1989  1.5379
56686SOL     OW77297   2.297   3.958   5.367  0.0725 -1.0385  0.2404
56686SOL    HW177298   2.377   3.932   5.322 -0.4274  1.1714 -2.1976
56686SOL    HW277299   2.310   4.051   5.387 -1.3993 -0.9554  0.9861
56687SOL     OW77300   2.176  10.719   6.713  0.3373  0.6515 -0.1277
56687SOL    HW177301   2.187  10.699   6.806 -0.2954 -1.0261 -0.3825
56687SOL    HW277302   2.125  10.800   6.712  1.6552  1.5356  0.9653
56688SOL     OW77303   9.950   3.289   4.957  0.2311 -0.7428 -0.6607
56688SOL    HW177304   9.939   3.366   4.902  0.0562 -0.0783  0.2746
56688SOL    HW277305   9.946   3.215   4.896  0.6553 -0.0085 -1.6015
56689SOL     OW77306  12.654  11.913   6.235 -0.2238  0.4058 -0.3178
56689SOL    HW177307  12.723  11.960   6.282 -0.3676 -0.0241  0.3321
56689SOL    HW277308  12.581  11.974   6.233 -1.1191 -0.4782  2.3142
56690SOL     OW77309   9.348   1.437   1.422 -0.4451 -0.2695  0.2299
56690SOL    HW177310   9.276   1.458   1.482  0.0302  0.4424  0.5542
56690SOL    HW277311   9.368   1.520   1.379  1.0653 -0.1648  1.0931
56691SOL     OW77312   6.347   2.366   7.237  0.8159  0.0743  0.5293
56691SOL    HW177313   6.274   2.427   7.241  0.9400  0.4107 -1.3214
56691SOL    HW277314   6.315   2.293   7.185  1.7852  0.2766 -0.4070
56692SOL     OW77315  12.453  10.309   9.825 -0.0951 -0.5583  0.5319
56692SOL    HW177316  12.480  10.340   9.911 -0.0535  0.9207  0.0080
56692SOL    HW277317  12.535  10.285   9.781  0.0448  0.3378  0.2930
56693SOL     OW77318   4.872  12.415   0.585 -0.0624 -0.0300 -0.1713
56693SOL    HW177319   4.826  12.393   0.666 -0.0924  0.7664  0.0341
56693SOL    HW277320   4.873  12.333   0.536 -0.1016 -0.5080  0.6032
56694SOL     OW77321  11.172   3.800   9.001  0.1444 -0.2810 -0.0558
56694SOL    HW177322  11.200   3.771   9.088  0.5747  0.2759 -0.0028
56694SOL    HW277323  11.078   3.814   9.010  0.0117 -1.1887  0.0432
56695SOL     OW77324   8.388   5.715   4.991  0.2101 -0.2040 -0.4237
56695SOL    HW177325   8.322   5.753   5.048 -2.4853 -0.9726 -2.8264
56695SOL    HW277326   8.370   5.621   4.993 -0.9625 -0.1684 -3.4934
56696SOL     OW77327   0.725   2.297   1.082  0.1575 -0.0012  0.6962
56696SOL    HW177328   0.656   2.240   1.049 -0.9361  1.9664 -0.6277
56696SOL    HW277329   0.697   2.322   1.170 -0.0166 -0.4694  0.7738
56697SOL     OW77330   5.353   1.291   5.317  0.3872 -0.3729 -0.4192
56697SOL    HW177331   5.313   1.367   5.276  0.0982 -0.5897 -0.5449
56697SOL    HW277332   5.447   1.310   5.315  0.3723 -0.3306 -1.0987
56698SOL     OW77333   4.522   9.231   7.404 -0.1466 -0.0028 -0.0991
56698SOL    HW177334   4.473   9.312   7.412  0.8739  0.4451  2.2354
56698SOL    HW277335   4.458   9.168   7.370 -0.9930  1.6814 -1.8225
56699SOL     OW77336  11.470   8.959   1.855  0.3270 -0.1014 -0.5258
56699SOL    HW177337  11.528   8.951   1.778  0.2022 -0.3919 -0.5929
56699SOL    HW277338  11.485   8.877   1.903  0.1120 -0.0916 -0.4453
56700SOL     OW77339   4.082   4.916  11.063  0.3005 -0.3657  0.0038
56700SOL    HW177340   4.148   4.983  11.048 -0.0484 -0.4371 -2.1009
56700SOL    HW277341   4.058   4.926  11.155  1.7831  0.9796  0.2778
56701SOL     OW77342   6.018   5.307   3.859 -0.1000 -0.4022 -0.3571
56701SOL    HW177343   5.952   5.353   3.911  0.4774 -1.6163  1.5491
56701SOL    HW277344   6.074   5.377   3.825 -2.4877  0.7160 -2.3837
56702SOL     OW77345   3.840   7.520   7.676  0.6189  0.6583  0.2740
56702SOL    HW177346   3.926   7.524   7.716  1.5684 -0.0586 -1.5815
56702SOL    HW277347   3.847   7.577   7.599 -0.4549  0.3568 -0.0684
56703SOL     OW77348   8.749  11.809   6.004  0.4959 -0.3715  0.4493
56703SOL    HW177349   8.774  11.845   5.919  0.0278  0.5953  0.7014
56703SOL    HW277350   8.768  11.880   6.066  0.2053 -0.8206  1.0637
56704SOL     OW77351   0.541   9.862  10.588  0.1070  0.3014 -0.3133
56704SOL    HW177352   0.581   9.841  10.672  0.3712  0.6395 -0.3488
56704SOL    HW277353   0.562   9.788  10.531  0.6030  0.4290 -0.3018
56705SOL     OW77354   4.690   8.758   5.050 -0.2106 -0.0348 -0.2615
56705SOL    HW177355   4.770   8.807   5.067 -0.2273 -0.1085  0.0281
56705SOL    HW277356   4.620   8.822   5.055 -0.3609 -0.2906  1.3147
56706SOL     OW77357   7.776   0.218   7.583 -0.2803 -0.3331  0.5434
56706SOL    HW177358   7.735   0.272   7.650  1.0976  0.8362  0.4790
56706SOL    HW277359   7.765   0.128   7.614 -0.9738  0.0940  1.5712
56707SOL     OW77360   4.989   7.445  12.465 -0.3852  0.0681  0.5225
56707SOL    HW177361   5.057   7.476  12.524  0.7878  0.1543 -0.8217
56707SOL    HW277362   4.930   7.394  12.520 -0.4792  1.8319  2.1446
56708SOL     OW77363   2.159   3.938   7.440  0.3491 -0.1858 -0.2698
56708SOL    HW177364   2.111   3.903   7.364  0.1292 -0.4527 -0.0104
56708SOL    HW277365   2.192   4.023   7.410  0.7165 -0.5216 -0.8392
56709SOL     OW77366   0.297   0.584   6.166 -0.1137  0.0151  0.0013
56709SOL    HW177367   0.340   0.657   6.122  0.9230  0.3043  1.4224
56709SOL    HW277368   0.205   0.610   6.171  0.0855  0.8062 -0.3442
56710SOL     OW77369  11.643   5.403   5.609 -0.4532  0.8217 -0.2219
56710SOL    HW177370  11.688   5.428   5.689 -1.0859  3.6318 -0.6635
56710SOL    HW277371  11.560   5.365   5.638 -1.0797  2.6670  0.4690
56711SOL     OW77372  10.346   7.850   2.628 -0.6306  0.3697  0.0197
56711SOL    HW177373  10.288   7.881   2.559 -0.1211 -1.5223 -1.3236
56711SOL    HW277374  10.295   7.784   2.675  0.1351 -0.7671 -0.6968
56712SOL     OW77375   3.766  10.487   3.969  0.4475 -0.5046 -0.1897
56712SOL    HW177376   3.781  10.393   3.979  2.1458 -0.2541 -0.2051
56712SOL    HW277377   3.833  10.528   4.022  0.1077  0.7129 -0.6699
56713SOL     OW77378   4.606   8.088   3.174 -0.2652  0.8644  0.1463
56713SOL    HW177379   4.666   8.139   3.228 -0.3576  1.0117  0.1096
56713SOL    HW277380   4.555   8.153   3.126  0.2655  0.7361 -0.6127
56714SOL     OW77381  10.766   2.393   5.483  0.5970  0.0562  0.4255
56714SOL    HW177382  10.716   2.474   5.495  1.4330  0.5917  0.4453
56714SOL    HW277383  10.845   2.421   5.437  1.5802 -0.4962  1.7064
56715SOL     OW77384   1.132   9.932  12.620 -0.0035 -0.1769 -0.0685
56715SOL    HW177385   1.099   9.842  12.622  0.4289 -0.3602 -0.9737
56715SOL    HW277386   1.053   9.986  12.621 -0.3293 -0.6027 -1.2582
56716SOL     OW77387   7.326   6.291   9.641  0.1284 -0.1495 -0.1997
56716SOL    HW177388   7.334   6.212   9.586  1.2761  0.3661 -0.8143
56716SOL    HW277389   7.250   6.274   9.697 -1.6562 -0.3220 -2.5458
56717SOL     OW77390   8.844   5.996   0.327 -0.2172  0.7456 -0.5777
56717SOL    HW177391   8.882   6.057   0.264  3.9549 -0.2802  0.6000
56717SOL    HW277392   8.863   5.909   0.291  1.2408  0.1548  1.4099
56718SOL     OW77393   5.886  12.556   1.270 -0.3029  0.5022 -0.2411
56718SOL    HW177394   5.980  12.541   1.279 -0.2978  0.1566 -0.8385
56718SOL    HW277395   5.859  12.588   1.357  0.5196  1.4919 -0.3235
56719SOL     OW77396   6.907   6.906  11.294  0.0324  0.1920  0.7973
56719SOL    HW177397   6.925   6.813  11.302  1.2201  0.3621  0.2810
56719SOL    HW277398   6.960   6.947  11.363 -0.7746  0.4648  1.2708
56720SOL     OW77399  10.972   8.229  11.110 -0.4532 -0.2081  0.3861
56720SOL    HW177400  11.037   8.264  11.049 -2.2389  0.1780 -1.3954
56720SOL    HW277401  10.965   8.136  11.088 -1.8374  0.1358 -0.7760
56721SOL     OW77402   1.902  10.727   6.422  0.1155 -0.3078  0.1986
56721SOL    HW177403   1.899  10.634   6.400  0.4734  0.0130 -1.2562
56721SOL    HW277404   1.988  10.757   6.392 -0.9321  1.0288 -1.6632
56722SOL     OW77405   4.982   7.737  11.860 -0.2521 -0.1594 -0.3714
56722SOL    HW177406   4.887   7.748  11.868 -0.4533 -0.4258 -2.0144
56722SOL    HW277407   4.997   7.730  11.766  1.5394  0.9693 -0.2145
56723SOL     OW77408   9.656  12.098   3.202 -0.3765  0.7019 -0.3271
56723SOL    HW177409   9.697  12.179   3.174  0.2760  0.6041  0.2988
56723SOL    HW277410   9.564  12.120   3.214 -0.3823  1.1027 -1.0978
56724SOL     OW77411   7.543   6.890   9.017  0.6105 -0.2677  0.2160
56724SOL    HW177412   7.581   6.901   8.930  0.4522 -0.2592  0.1484
56724SOL    HW277413   7.579   6.963   9.068 -0.0268  0.2710 -0.0926
56725SOL     OW77414   3.511   0.672   1.171 -0.2346 -0.0283  0.2911
56725SOL    HW177415   3.498   0.677   1.266  3.5608  0.4862  0.9242
56725SOL    HW277416   3.498   0.580   1.150 -0.5252 -0.2533  1.3916
56726SOL     OW77417   3.759   2.275  12.375  0.3754  0.1554 -0.1805
56726SOL    HW177418   3.768   2.370  12.362  0.8381 -0.1088 -2.0497
56726SOL    HW277419   3.667   2.263  12.399  0.1657  1.0258 -0.4878
56727SOL     OW77420  11.516   7.169  11.737 -0.3000  0.8616 -0.5818
56727SOL    HW177421  11.447   7.223  11.699 -0.7753  1.8048  1.5076
56727SOL    HW277422  11.471   7.099  11.782  0.0919  1.1735  0.3342
56728SOL     OW77423   7.051  10.239  10.321 -0.0042 -0.4045  0.4910
56728SOL    HW177424   7.038  10.264  10.230  1.9059 -0.8211  0.0558
56728SOL    HW277425   7.111  10.305  10.355 -0.1830 -0.6279  1.2609
56729SOL     OW77426   0.713   5.459  10.321 -0.3717  0.0714  0.3947
56729SOL    HW177427   0.715   5.548  10.356 -1.7524 -0.8153  2.9509
56729SOL    HW277428   0.654   5.411  10.379 -0.0403 -2.4275 -1.1765
56730SOL     OW77429   2.260   3.107   5.783 -0.9136 -0.0944 -0.3974
56730SOL    HW177430   2.295   3.168   5.847 -0.6414  0.2729 -0.8883
56730SOL    HW277431   2.312   3.122   5.704 -0.3338 -1.4952 -0.3078
56731SOL     OW77432  12.119   0.283   6.570  0.2865  0.3153 -0.6759
56731SOL    HW177433  12.090   0.193   6.552 -1.1948  0.1469  2.0067
56731SOL    HW277434  12.037   0.333   6.575  0.9269  1.2990  0.2506
56732SOL     OW77435   3.917   1.418   9.450  0.1403 -0.4522 -0.8509
56732SOL    HW177436   3.955   1.331   9.437 -0.0259 -0.4406 -1.4362
56732SOL    HW277437   3.898   1.422   9.544 -1.0853 -1.5530 -1.0330
56733SOL     OW77438   2.769   6.463   3.306  0.0548 -0.0764  0.0305
56733SOL    HW177439   2.852   6.504   3.279  0.2681 -1.1378 -1.0059
56733SOL    HW277440   2.797   6.389   3.361 -0.1494 -0.9022 -0.9535
56734SOL     OW77441   0.521   8.959   5.973 -0.1600  0.0982  0.2193
56734SOL    HW177442   0.458   8.895   6.006 -1.1640  0.8485 -0.1706
56734SOL    HW277443   0.562   8.996   6.051 -0.0273 -0.5571  0.4678
56735SOL     OW77444   2.935   8.118   2.003  0.1728  0.3681 -0.4415
56735SOL    HW177445   2.937   8.024   1.987 -1.0827  0.0417  1.0024
56735SOL    HW277446   2.922   8.126   2.098  0.5975  2.0030 -0.4877
56736SOL     OW77447   9.940  12.695   1.109  0.0613 -0.2883 -0.1185
56736SOL    HW177448   9.916  12.769   1.053 -1.4205  0.4209  1.3576
56736SOL    HW277449   9.960  12.624   1.048 -0.9717  0.6011 -1.5492
56737SOL     OW77450   8.723   5.891   7.358  0.0458  0.0081 -0.1879
56737SOL    HW177451   8.774   5.864   7.282 -0.0075  0.1179 -0.2643
56737SOL    HW277452   8.781   5.874   7.433  0.1548  0.0343 -0.2647
56738SOL     OW77453   1.621   5.167  11.527 -0.2271 -0.4577  0.0054
56738SOL    HW177454   1.699   5.146  11.475  0.1964  0.9431  0.0269
56738SOL    HW277455   1.652   5.233  11.590 -1.5633  0.6197 -0.4147
56739SOL     OW77456   5.624   0.512   9.893  0.4450  0.0003 -0.6550
56739SOL    HW177457   5.659   0.571   9.960 -0.2245  0.0750 -0.3524
56739SOL    HW277458   5.632   0.561   9.811  1.1896 -0.0550 -0.6183
56740SOL     OW77459  12.514   7.112   5.919  0.0005 -0.2230 -0.2137
56740SOL    HW177460  12.517   7.075   5.831 -0.7326 -2.1117  0.5125
56740SOL    HW277461  12.563   7.050   5.973 -0.2733  0.4638  0.8558
56741SOL     OW77462   7.238   2.497   5.882  0.8470  1.0468  0.1880
56741SOL    HW177463   7.191   2.416   5.901  0.5955  1.2461  0.4196
56741SOL    HW277464   7.177   2.548   5.829  0.0524  2.0960  2.0371
56742SOL     OW77465   2.383   4.898  10.878  0.2396  0.2983  0.2990
56742SOL    HW177466   2.373   4.910  10.972 -0.8320  1.4406  0.0796
56742SOL    HW277467   2.298   4.863  10.850  0.1853  0.9451 -0.3698
56743SOL     OW77468   9.929   5.984   6.837 -0.0996 -0.4922  0.7481
56743SOL    HW177469   9.877   5.913   6.799 -0.0643 -1.9968  3.3030
56743SOL    HW277470  10.020   5.958   6.821 -0.0682 -1.4904  2.3270
56744SOL     OW77471   9.067   2.968  10.703 -0.0111 -0.1777 -0.1527
56744SOL    HW177472   9.092   3.056  10.674  1.4315 -0.7126 -0.6470
56744SOL    HW277473   9.021   2.982  10.785  0.2853  1.0364 -0.1682
56745SOL     OW77474   6.039   6.819   8.155  0.0983 -0.2097  0.0975
56745SOL    HW177475   6.052   6.807   8.249 -1.5735 -1.1794  0.2398
56745SOL    HW277476   6.017   6.732   8.123  0.0341  0.2306 -1.0914
56746SOL     OW77477   3.653   8.676   1.605  0.2506 -0.6259 -0.1205
56746SOL    HW177478   3.695   8.737   1.545  0.4994 -1.9207 -1.3075
56746SOL    HW277479   3.604   8.616   1.549 -2.1724  0.0320  1.1590
56747SOL     OW77480   4.618   9.331   8.561  0.4396  0.2834  0.4327
56747SOL    HW177481   4.535   9.298   8.595  0.0083  1.4947  0.5947
56747SOL    HW277482   4.650   9.391   8.629  3.6329 -3.2814  2.4689
56748SOL     OW77483  12.083   4.156   3.780  0.3482  0.4367 -0.1248
56748SOL    HW177484  12.002   4.114   3.810  1.1717 -0.0598  1.4993
56748SOL    HW277485  12.110   4.105   3.704 -0.3827  0.0597 -0.1376
56749SOL     OW77486  11.389   5.531   3.855 -0.3944  0.4269  0.9710
56749SOL    HW177487  11.371   5.437   3.856  0.2644  0.2765 -0.1207
56749SOL    HW277488  11.316   5.569   3.905 -0.7293 -0.6396  1.3317
56750SOL     OW77489   0.937  11.122   8.380  0.4534 -0.2855  0.1664
56750SOL    HW177490   0.972  11.174   8.453  1.3022 -0.8463  0.1785
56750SOL    HW277491   0.923  11.035   8.418 -0.5361 -0.1903  0.0373
56751SOL     OW77492  12.686  10.753   8.785  0.4279 -0.5033 -0.6251
56751SOL    HW177493  12.672  10.730   8.877  1.7620 -1.2240 -0.5745
56751SOL    HW277494  12.777  10.782   8.781  0.2535 -0.0578 -1.6476
56752SOL     OW77495   9.434   0.179  12.547  0.3005 -0.4405  0.9370
56752SOL    HW177496   9.433   0.230  12.628  3.3081  1.3280  0.0257
56752SOL    HW277497   9.443   0.244  12.478 -0.9371 -1.9866 -0.7908
56753SOL     OW77498   9.281   9.337   4.198 -0.1477  0.0883  0.6874
56753SOL    HW177499   9.334   9.282   4.255  1.7478 -0.1411 -1.1688
56753SOL    HW277500   9.318   9.425   4.209  0.3066  0.0233 -0.2022
56754SOL     OW77501   1.800  11.825   0.793 -0.7646 -0.1467 -0.2401
56754SOL    HW177502   1.842  11.856   0.873 -1.7473 -0.5654  0.4623
56754SOL    HW277503   1.765  11.739   0.817  0.2731 -0.9971 -1.5878
56755SOL     OW77504   0.922   5.846   4.822  0.3167 -0.0624 -0.9691
56755SOL    HW177505   0.941   5.908   4.892 -1.8359 -0.9333  0.5069
56755SOL    HW277506   0.906   5.900   4.745  1.6502  0.9852 -0.5435
56756SOL     OW77507  12.062   5.797  10.628 -0.0835  0.5587  0.3808
56756SOL    HW177508  12.023   5.713  10.650 -0.4390  0.4629 -0.5784
56756SOL    HW277509  12.135   5.807  10.690  0.2284 -0.6529  0.2210
56757SOL     OW77510   7.241   8.059   9.174 -0.3506  0.0072  0.6172
56757SOL    HW177511   7.283   7.976   9.151  0.7652  0.5746  0.5149
56757SOL    HW277512   7.168   8.066   9.113  0.0966 -0.4732  0.0062
56758SOL     OW77513   0.769   9.259   9.857 -0.7236  0.4898 -0.5824
56758SOL    HW177514   0.730   9.261   9.770 -1.1908 -1.1582 -0.4592
56758SOL    HW277515   0.700   9.223   9.913  0.0829  0.0412  0.1570
56759SOL     OW77516  11.848   2.720   7.356 -0.3162  0.7696 -0.1689
56759SOL    HW177517  11.873   2.634   7.320 -0.2091  0.3441  0.8959
56759SOL    HW277518  11.889   2.723   7.442 -0.1252  2.0035 -0.2870
56760SOL     OW77519   5.587  11.407   7.431  0.1875  0.3158 -0.1295
56760SOL    HW177520   5.681  11.394   7.420  0.2566  1.1607 -0.6346
56760SOL    HW277521   5.579  11.491   7.476 -0.3172  0.0639  0.2627
56761SOL     OW77522   7.361   9.525  11.720  0.0054  0.0269 -0.6311
56761SOL    HW177523   7.439   9.483  11.682  0.4292  1.3480 -1.2902
56761SOL    HW277524   7.287   9.481  11.677  0.3615 -1.2950  0.0537
56762SOL     OW77525   9.405  12.596  11.887 -0.2172  0.3868 -0.5083
56762SOL    HW177526   9.380  12.536  11.817 -0.2578 -2.0523  1.4870
56762SOL    HW277527   9.360  12.563  11.964 -0.6751  3.3560  0.6199
56763SOL     OW77528  11.444  10.796   7.754  0.3261 -0.3529 -0.1689
56763SOL    HW177529  11.440  10.708   7.718  0.8794 -0.4644  0.0319
56763SOL    HW277530  11.518  10.794   7.814 -0.4474 -0.1011  0.8150
56764SOL     OW77531   3.657   7.767  10.569 -0.1370  0.6242  0.4475
56764SOL    HW177532   3.631   7.679  10.544  0.0725  0.9751 -1.1023
56764SOL    HW277533   3.610   7.784  10.651  0.9467 -1.4478  1.5798
56765SOL     OW77534   0.158   2.092   5.165  0.4877 -0.1018  0.1385
56765SOL    HW177535   0.064   2.075   5.173 -0.0935  2.2378 -0.7510
56765SOL    HW277536   0.167   2.133   5.078  2.3623 -0.4663  0.1282
56766SOL     OW77537   7.524   5.386   8.887  0.0561 -0.6404 -0.5248
56766SOL    HW177538   7.553   5.469   8.849 -0.2159  0.0614  0.7360
56766SOL    HW277539   7.524   5.324   8.814 -0.2424  0.5945 -1.5949
56767SOL     OW77540   8.711   3.507  12.555  0.0547  0.0826 -0.5371
56767SOL    HW177541   8.744   3.589  12.592 -1.3779  0.2224  0.5147
56767SOL    HW277542   8.670   3.532  12.473  0.5899  0.2369 -0.7630
56768SOL     OW77543   3.048   1.509   6.860  0.0785  0.4518 -0.2670
56768SOL    HW177544   3.142   1.515   6.846  0.1767 -1.4355 -0.7558
56768SOL    HW277545   3.012   1.587   6.819  1.4163  1.1803 -0.0978
56769SOL     OW77546   8.548   8.769   0.187 -0.4383 -0.4212  0.1195
56769SOL    HW177547   8.486   8.840   0.174  0.3826  0.0341 -1.5591
56769SOL    HW277548   8.508   8.715   0.255 -1.3404  1.3256  1.0441
56770SOL     OW77549   6.341   7.821   1.679  0.1591  0.7808 -0.1749
56770SOL    HW177550   6.299   7.735   1.677 -1.2673  1.4423 -1.4147
56770SOL    HW277551   6.425   7.806   1.722 -1.5340 -0.5188  2.9938
56771SOL     OW77552  12.176   0.871   9.214  0.2177  0.4622 -0.4490
56771SOL    HW177553  12.210   0.948   9.168  1.0010 -0.3282 -1.2546
56771SOL    HW277554  12.229   0.799   9.180 -0.4085 -0.4110  0.3912
56772SOL     OW77555   4.574   8.266  11.675  0.2999  0.4700 -0.8474
56772SOL    HW177556   4.537   8.340  11.724 -0.4565  0.3815 -1.2706
56772SOL    HW277557   4.636   8.306  11.614  0.0424  0.7333 -0.9378
56773SOL     OW77558   0.399   2.936   2.254  0.2765  0.1545 -0.6980
56773SOL    HW177559   0.411   2.841   2.257 -1.7193 -0.1166  1.5824
56773SOL    HW277560   0.462   2.970   2.318 -0.8932  0.0461  0.5662
56774SOL     OW77561   5.831  11.945   5.159  0.0824  0.3226 -0.2520
56774SOL    HW177562   5.836  12.041   5.160  0.7366  0.2989 -0.6129
56774SOL    HW277563   5.737  11.926   5.160 -0.0930  0.9277  1.9553
56775SOL     OW77564   6.318   7.269  12.098 -0.1234  0.7053  0.3882
56775SOL    HW177565   6.401   7.300  12.063 -0.0348 -0.9300 -0.9179
56775SOL    HW277566   6.341   7.199  12.158 -0.4684  1.5922  1.6081
56776SOL     OW77567   3.743  10.151   9.546 -0.3128  0.1410 -0.3278
56776SOL    HW177568   3.715  10.206   9.474 -1.1128 -1.4734 -1.3183
56776SOL    HW277569   3.681  10.078   9.546  0.9831 -1.0145  0.5960
56777SOL     OW77570   2.963   4.669   2.402 -0.6708 -0.4924  1.0411
56777SOL    HW177571   2.913   4.589   2.420 -2.8098  0.1280 -1.4377
56777SOL    HW277572   2.901   4.740   2.419 -0.6255  0.3394 -1.6893
56778SOL     OW77573   5.855   5.111   0.679 -0.1786  0.5085  0.6843
56778SOL    HW177574   5.836   5.204   0.677  0.1280  0.5657 -1.0597
56778SOL    HW277575   5.904   5.094   0.599 -1.2831 -1.3688  0.3381
56779SOL     OW77576  12.665   5.798   5.001  0.1896 -0.2199 -0.0509
56779SOL    HW177577  12.588   5.742   4.989  0.6243 -0.9036  0.3188
56779SOL    HW277578  12.642   5.854   5.076  1.0810 -2.3101  1.9041
56780SOL     OW77579   8.820  10.346  11.269  0.1726  0.2913  0.1727
56780SOL    HW177580   8.797  10.288  11.197 -1.0631  0.9979 -0.0252
56780SOL    HW277581   8.767  10.315  11.343  2.8733 -1.7174  1.4482
56781SOL     OW77582   0.746   8.609   6.178 -0.2432 -0.2446  0.0300
56781SOL    HW177583   0.717   8.694   6.212  0.0888 -0.6076  1.2568
56781SOL    HW277584   0.673   8.579   6.124  0.0968  1.3431 -1.4154
56782SOL     OW77585   0.157   0.504   0.648  0.1834  0.1565  0.2413
56782SOL    HW177586   0.197   0.438   0.704 -1.0897 -0.4629  0.4578
56782SOL    HW277587   0.069   0.516   0.684 -0.5413  0.0158 -1.3788
56783SOL     OW77588   0.668   4.533   0.683 -0.4349  0.2174  0.0646
56783SOL    HW177589   0.703   4.574   0.763  0.5573 -0.2567 -0.1055
56783SOL    HW277590   0.610   4.599   0.646  0.3334  1.0856  0.3405
56784SOL     OW77591   5.420   9.743   3.804  0.2429  0.1459  0.2213
56784SOL    HW177592   5.511   9.727   3.781 -0.0136 -0.4368 -0.4087
56784SOL    HW277593   5.376   9.754   3.719 -0.8222 -2.5607  0.3497
56785SOL     OW77594   4.391   1.453  11.280  0.4368  0.0674  0.4652
56785SOL    HW177595   4.309   1.421  11.318  0.2674 -0.3994 -0.2598
56785SOL    HW277596   4.456   1.441  11.349 -0.3589  1.8597  1.6027
56786SOL     OW77597  10.603   5.293   2.419 -0.6070  0.0091 -0.1542
56786SOL    HW177598  10.693   5.260   2.413 -0.4273  0.3051  0.7299
56786SOL    HW277599  10.611   5.386   2.399 -1.0429 -0.3431 -2.1684
56787SOL     OW77600   9.305   9.639  12.135  0.2044 -0.0558  0.0025
56787SOL    HW177601   9.272   9.550  12.130  0.1209 -0.0178 -0.1157
56787SOL    HW277602   9.240   9.685  12.189 -0.3499  0.2119 -0.8885
56788SOL     OW77603   1.218   2.289   3.748  0.2532 -0.1189 -0.4182
56788SOL    HW177604   1.270   2.318   3.823 -0.2035 -3.0992  1.2068
56788SOL    HW277605   1.215   2.365   3.690  2.3969  1.6555  1.5951
56789SOL     OW77606  10.477   1.544   6.119  0.1151  0.0981 -0.8817
56789SOL    HW177607  10.402   1.571   6.065 -0.5465 -0.4927 -0.2807
56789SOL    HW277608  10.449   1.462   6.159  0.8234  0.2227 -0.1086
56790SOL     OW77609   8.689   4.427   7.991 -0.1952 -0.2478  0.2357
56790SOL    HW177610   8.756   4.466   7.935  0.6471  0.4714  1.6903
56790SOL    HW277611   8.710   4.459   8.079 -2.7655  0.4684  0.6746
56791SOL     OW77612   9.590   6.083   8.973 -0.3182  0.1247  0.0263
56791SOL    HW177613   9.607   6.151   9.038  0.4590  0.4829 -0.5294
56791SOL    HW277614   9.669   6.082   8.919 -1.1051  0.1396 -1.1636
56792SOL     OW77615   0.817   1.309   9.704  0.5606 -0.2050  0.3789
56792SOL    HW177616   0.789   1.299   9.612 -0.6366  0.0793  0.6931
56792SOL    HW277617   0.735   1.309   9.754  0.9568  2.6121  1.1882
56793SOL     OW77618  11.828   0.900   8.297  1.0606 -0.1012 -0.6292
56793SOL    HW177619  11.830   0.995   8.304 -3.9266  0.1770  0.9430
56793SOL    HW277620  11.826   0.882   8.203  2.0460  1.3211 -0.9431
56794SOL     OW77621   4.310   9.211  12.491  0.2791 -0.2060  0.4588
56794SOL    HW177622   4.231   9.263  12.473  1.8050  2.7978  1.7218
56794SOL    HW277623   4.312   9.204  12.586 -0.4684 -3.8201  0.3337
56795SOL     OW77624  11.732   9.626   0.245 -0.3615  0.4234  0.2762
56795SOL    HW177625  11.727   9.705   0.191 -1.9738  0.3902  0.3277
56795SOL    HW277626  11.693   9.557   0.192 -1.2580  0.2245  1.1398
56796SOL     OW77627  11.292  11.058   4.022 -0.2046 -0.1210 -0.0205
56796SOL    HW177628  11.328  11.111   3.951 -2.7902 -0.4513 -1.7352
56796SOL    HW277629  11.353  10.985   4.033  1.2292  0.9651 -0.5171
56797SOL     OW77630   4.450   5.874   3.036 -0.1665 -0.7324  0.2047
56797SOL    HW177631   4.451   5.876   2.940 -3.0053 -0.7692  0.0934
56797SOL    HW277632   4.378   5.814   3.057 -0.2488  0.0646  2.3483
56798SOL     OW77633   8.545  10.571  10.353 -0.0512 -0.1672  0.4916
56798SOL    HW177634   8.640  10.559  10.364 -0.1161 -1.1078  0.1728
56798SOL    HW277635   8.528  10.543  10.263 -0.4626  1.1913  0.1187
56799SOL     OW77636   7.669  12.550   5.158  0.2770  0.1713  0.4963
56799SOL    HW177637   7.681  12.609   5.232 -0.0706 -0.4698  1.0758
56799SOL    HW277638   7.581  12.571   5.125  0.2451  0.1358  0.5579
56800SOL     OW77639   4.142  12.470  10.031 -0.3624  0.1659  0.1498
56800SOL    HW177640   4.101  12.410   9.969  0.9533 -2.2576  1.4568
56800SOL    HW277641   4.236  12.464  10.011 -0.0147  0.1397  1.6655
56801SOL     OW77642  10.522   7.389   6.545 -0.0852  0.4021  0.0544
56801SOL    HW177643  10.439   7.342   6.545  0.0430  0.1105 -1.8605
56801SOL    HW277644  10.522   7.439   6.463  1.1807  1.2272  0.5217
56802SOL     OW77645   5.032  12.234  10.784  0.8846  0.1737  0.4434
56802SOL    HW177646   5.052  12.146  10.750  0.9257  0.1147  0.6172
56802SOL    HW277647   4.955  12.262  10.733  0.4653 -0.2353  0.8372
56803SOL     OW77648  12.243   0.861   3.028 -0.1486 -0.0602 -0.1339
56803SOL    HW177649  12.186   0.784   3.016  0.1492 -0.2472 -0.3527
56803SOL    HW277650  12.216   0.897   3.113 -0.8980  0.1094 -0.4372
56804SOL     OW77651   9.559   5.480   4.452  0.0384 -0.0201 -0.3219
56804SOL    HW177652   9.638   5.428   4.435 -0.0290  0.5238 -2.5829
56804SOL    HW277653   9.489   5.430   4.410 -0.0489  1.7066 -2.4540
56805SOL     OW77654   2.995  10.732  11.834 -0.5176 -0.1842 -0.0589
56805SOL    HW177655   2.987  10.758  11.926 -0.4594  0.2689 -0.1782
56805SOL    HW277656   2.947  10.799  11.786  0.5556  0.3252 -0.4564
56806SOL     OW77657  12.708   6.931   0.931  0.5901 -0.4683 -0.6265
56806SOL    HW177658  12.760   6.876   0.990  0.8498  2.1146  1.7835
56806SOL    HW277659  12.617   6.910   0.952  0.6891 -0.1506  0.1589
56807SOL     OW77660   2.224   2.513   7.281  0.3215 -0.2123 -0.4115
56807SOL    HW177661   2.130   2.499   7.274  0.3049  0.0614 -0.7201
56807SOL    HW277662   2.263   2.430   7.253  0.1799 -0.2288 -0.5595
56808SOL     OW77663   1.970   7.526   0.392 -0.2862 -0.2017  0.1857
56808SOL    HW177664   1.904   7.458   0.384  1.4188 -2.1057  1.4189
56808SOL    HW277665   2.045   7.493   0.344 -0.0443  1.7548 -0.8950
56809SOL     OW77666   7.975   6.972   5.724 -0.1607 -0.2321  0.0045
56809SOL    HW177667   7.940   7.017   5.647 -0.6834 -1.4169 -0.4676
56809SOL    HW277668   7.907   6.981   5.790 -0.6179 -0.9896 -0.3459
56810SOL     OW77669   9.382   3.235  11.167 -0.4323 -0.1437 -0.5109
56810SOL    HW177670   9.299   3.279  11.185 -0.5734 -0.9436  0.9432
56810SOL    HW277671   9.441   3.268  11.234 -0.3400 -1.5790  0.1404
56811SOL     OW77672   6.869   4.842   2.394 -0.3465 -0.1656 -0.9561
56811SOL    HW177673   6.906   4.922   2.358 -0.9169  0.6776  0.2423
56811SOL    HW277674   6.781   4.867   2.424 -0.6323 -1.2974 -0.7931
56812SOL     OW77675   3.782  12.361   4.723  0.5490 -0.7986  0.9183
56812SOL    HW177676   3.868  12.345   4.762  0.7143 -0.3874  0.7304
56812SOL    HW277677   3.736  12.278   4.732  0.9724 -1.0274  1.0123
56813SOL     OW77678   9.853  10.862   4.007  0.1690  0.2595  0.3627
56813SOL    HW177679   9.769  10.894   3.975  0.5114  0.0887 -0.7575
56813SOL    HW277680   9.885  10.932   4.064  1.3852  2.5526 -2.8658
56814SOL     OW77681   1.480  11.761  12.633  0.1971  0.0599  0.7184
56814SOL    HW177682   1.481  11.809  12.717  2.7130  0.4942  0.5325
56814SOL    HW277683   1.567  11.776  12.597 -0.9073  0.1105 -2.1500
56815SOL     OW77684  10.485  11.177   6.760 -0.1477  0.7001 -0.1184
56815SOL    HW177685  10.566  11.221   6.734  0.0694 -0.0975 -0.8706
56815SOL    HW277686  10.461  11.217   6.843  2.2138 -0.5274  1.2631
56816SOL     OW77687   2.036   1.553   1.577 -0.2764 -0.0143  0.2578
56816SOL    HW177688   2.046   1.648   1.583 -0.1230 -0.0857  1.3960
56816SOL    HW277689   1.982   1.530   1.652 -0.4661 -0.8054 -0.1161
56817SOL     OW77690  11.964  11.076   2.865  0.0346 -0.2936 -0.7043
56817SOL    HW177691  11.977  11.166   2.836 -2.1608 -0.0716 -1.1541
56817SOL    HW277692  11.994  11.022   2.791 -1.7367  0.1817 -1.8275
56818SOL     OW77693   1.885   2.154   1.270 -0.0976 -0.3219 -0.0149
56818SOL    HW177694   1.964   2.124   1.315 -0.4327 -0.0187  0.7967
56818SOL    HW277695   1.839   2.207   1.335  0.0100  1.1744 -1.1081
56819SOL     OW77696   6.248   1.831   0.916 -0.1156  0.2864  0.3951
56819SOL    HW177697   6.194   1.768   0.963 -1.5861  0.1232 -1.3799
56819SOL    HW277698   6.250   1.909   0.973  4.2846 -2.0783  4.1520
56820SOL     OW77699   5.289   6.430   4.014 -0.0482 -0.0209 -0.1052
56820SOL    HW177700   5.274   6.339   3.990  0.2373 -0.4398  1.2234
56820SOL    HW277701   5.310   6.474   3.931 -1.7534 -0.8160 -1.0041
56821SOL     OW77702   4.032  11.278   9.884  0.9708 -0.2085  0.3946
56821SOL    HW177703   4.049  11.310   9.796  0.6234  1.1834  0.7983
56821SOL    HW277704   4.037  11.356   9.939 -1.3478 -0.5671  1.2621
56822SOL     OW77705   5.349   5.829   6.291 -0.4414 -0.2117 -0.1225
56822SOL    HW177706   5.259   5.798   6.285 -0.1305 -1.3633  0.8301
56822SOL    HW277707   5.381   5.795   6.375  0.6382  0.8325 -0.0810
56823SOL     OW77708  11.903   0.808   3.112  0.0499 -0.2407 -0.3130
56823SOL    HW177709  11.937   0.738   3.056  0.2313  0.2831 -0.8648
56823SOL    HW277710  11.921   0.778   3.201  1.1444 -0.3966 -0.5723
56824SOL     OW77711   0.187   5.117   1.096 -0.1964 -0.1959 -0.0831
56824SOL    HW177712   0.239   5.175   1.039 -0.8110 -0.2388 -0.6965
56824SOL    HW277713   0.116   5.087   1.040  0.1246 -1.5811  0.2198
56825SOL     OW77714   9.880   2.160  10.819 -0.1946  0.3422  0.1485
56825SOL    HW177715   9.968   2.158  10.855  0.4417  0.3404 -1.3234
56825SOL    HW277716   9.865   2.071  10.787 -0.7089  0.3610  0.3306
56826SOL     OW77717  10.001   5.665   8.153  0.3872  0.5024  0.4028
56826SOL    HW177718   9.968   5.633   8.069 -1.7564 -2.1758  2.0977
56826SOL    HW277719  10.083   5.618   8.167  0.4273  0.4774  0.0891
56827SOL     OW77720   5.616   3.099  12.613  0.0923  0.3309  0.0158
56827SOL    HW177721   5.575   3.166  12.668  2.4777  2.2767 -0.4009
56827SOL    HW277722   5.699   3.079  12.657  0.5665 -0.4689 -1.1899
56828SOL     OW77723   4.001   2.021  12.686 -0.7128 -0.2288 -0.4244
56828SOL    HW177724   4.094   2.005  12.674 -0.7207 -1.1360  0.5648
56828SOL    HW277725   3.991   2.035  12.780 -1.5927 -0.3039 -0.4973
56829SOL     OW77726   4.832   9.907   1.313  0.1872  0.4478  0.8853
56829SOL    HW177727   4.775   9.915   1.236  0.3847  0.1051  0.7016
56829SOL    HW277728   4.830   9.993   1.353  1.8476  1.3099 -0.7350
56830SOL     OW77729   5.139   6.661   4.040  0.2668 -0.6379 -0.3232
56830SOL    HW177730   5.216   6.716   4.028  0.4424 -0.8448 -0.1644
56830SOL    HW277731   5.174   6.576   4.068 -0.1424  0.0141  2.4456
56831SOL     OW77732   2.546   4.227   6.685 -0.8143 -0.1076 -0.2219
56831SOL    HW177733   2.484   4.297   6.706  0.1797  0.8796 -0.5328
56831SOL    HW277734   2.520   4.197   6.598 -1.5120 -0.4461  0.0910
56832SOL     OW77735   2.452   8.884  11.973 -0.0667 -0.0381 -0.2251
56832SOL    HW177736   2.465   8.895  12.068  1.4093 -0.1924 -0.3833
56832SOL    HW277737   2.359   8.898  11.960 -0.3715 -0.4211  1.3140
56833SOL     OW77738   0.937  12.377   9.710  0.4503  0.1219  0.4478
56833SOL    HW177739   0.970  12.295   9.745 -0.9951 -0.2325  1.0590
56833SOL    HW277740   0.858  12.395   9.761 -0.2415  0.9742 -0.8558
56834SOL     OW77741  11.153   7.821   9.301  0.2062  0.2061  0.1646
56834SOL    HW177742  11.071   7.871   9.304  0.7664  1.0968  1.7681
56834SOL    HW277743  11.129   7.738   9.259 -1.7433  0.0600  1.4569
56835SOL     OW77744   4.112   0.250  10.811 -0.5259  0.6672  0.9193
56835SOL    HW177745   4.080   0.174  10.764  3.4524 -1.6655  1.5526
56835SOL    HW277746   4.081   0.239  10.900 -2.0921  1.2545  0.4757
56836SOL     OW77747   1.274   6.393   3.809  0.0223  0.1863 -0.1857
56836SOL    HW177748   1.366   6.370   3.801 -0.0928 -1.4179  2.0517
56836SOL    HW277749   1.274   6.474   3.861  0.1610  0.2745 -0.3221
56837SOL     OW77750   7.056   8.866  10.098 -0.4201 -0.2126 -0.8112
56837SOL    HW177751   7.061   8.961  10.084  0.6072 -0.0381  0.5840
56837SOL    HW277752   6.962   8.849  10.111 -0.7504  0.4164 -2.2267
56838SOL     OW77753   8.493   5.797  11.270 -0.0806 -0.3952 -0.0735
56838SOL    HW177754   8.426   5.862  11.250 -0.8771 -1.2516 -0.2745
56838SOL    HW277755   8.562   5.846  11.314 -0.6699  0.5721 -0.1981
56839SOL     OW77756   6.432  10.773   1.695  0.2545  0.1036  0.0007
56839SOL    HW177757   6.474  10.858   1.704  0.1886 -0.0117  1.5764
56839SOL    HW277758   6.450  10.727   1.777 -1.5288 -0.5882  0.0652
56840SOL     OW77759   2.188  11.373   3.710  0.2241 -0.1300 -0.2336
56840SOL    HW177760   2.146  11.424   3.779  0.7945 -0.1903  0.1607
56840SOL    HW277761   2.197  11.285   3.748  1.3281  0.0529 -0.0591
56841SOL     OW77762  12.413   2.301  11.433  0.3534  0.1733 -0.0869
56841SOL    HW177763  12.373   2.375  11.479 -0.1785  0.1344 -0.4783
56841SOL    HW277764  12.505   2.325  11.425  0.4253  0.2568  0.8506
56842SOL     OW77765   1.624   1.183   4.875  0.3869 -0.6040 -0.5291
56842SOL    HW177766   1.642   1.091   4.896  1.3995 -0.3226 -0.1227
56842SOL    HW277767   1.688   1.233   4.926 -1.4127  0.4551  0.8067
56843SOL     OW77768   9.674  10.204   9.017  0.0733 -0.1350  0.0681
56843SOL    HW177769   9.637  10.168   9.098  0.6528  0.1546  0.4708
56843SOL    HW277770   9.678  10.299   9.032 -1.1851  0.0983 -0.8760
56844SOL     OW77771  11.114   9.885   4.661  0.9016  0.1833 -0.2109
56844SOL    HW177772  11.080   9.808   4.707 -1.1213 -0.1381 -2.0622
56844SOL    HW277773  11.047   9.952   4.675  0.5908  0.2982 -1.9873
56845SOL     OW77774   6.585   0.157   8.459 -0.8017 -0.3978 -0.0427
56845SOL    HW177775   6.519   0.097   8.425 -0.3447 -1.0117  0.1317
56845SOL    HW277776   6.586   0.230   8.397  1.0077 -2.1331 -2.2100
56846SOL     OW77777  10.471   8.547   5.488 -0.1607 -0.0508  0.7763
56846SOL    HW177778  10.540   8.571   5.427 -1.1471 -0.0265 -0.3702
56846SOL    HW277779  10.492   8.596   5.568  0.7473  0.5035  0.2188
56847SOL     OW77780   5.126   5.685   4.133 -0.0582 -0.0251  0.7918
56847SOL    HW177781   5.093   5.759   4.184  0.9509 -0.2827  1.8552
56847SOL    HW277782   5.203   5.655   4.181  1.7122  0.4858 -1.5459
56848SOL     OW77783  10.598   8.416  11.883 -0.1255 -0.4839  0.5929
56848SOL    HW177784  10.602   8.324  11.858 -2.0137 -0.2666 -0.7089
56848SOL    HW277785  10.652   8.461  11.819  0.7131 -0.6672  1.1656
56849SOL     OW77786  11.667   8.545   8.525  0.4151  0.4959  0.4144
56849SOL    HW177787  11.617   8.464   8.513  1.5066 -0.0476 -0.6040
56849SOL    HW277788  11.604   8.614   8.507 -0.4360 -0.1306  0.9129
56850SOL     OW77789   8.858   4.281  10.160  0.4822 -0.0147 -0.0394
56850SOL    HW177790   8.773   4.323  10.149  1.4264  1.6259 -1.5648
56850SOL    HW277791   8.912   4.347  10.203  1.3980 -0.4998 -0.4324
56851SOL     OW77792   7.097   1.526   5.176  0.1554 -0.0123  0.1859
56851SOL    HW177793   7.103   1.508   5.083  2.9906  0.6582  0.1566
56851SOL    HW277794   7.144   1.454   5.218 -0.2622  0.1935  1.0315
56852SOL     OW77795   7.393   0.970   0.247 -0.7682  0.1353 -0.4433
56852SOL    HW177796   7.461   1.037   0.234  1.0724 -1.6278 -0.4708
56852SOL    HW277797   7.349   0.963   0.163  0.1723  0.1318 -0.9448
56853SOL     OW77798   4.745   4.835   0.683 -0.5742  0.4223  0.2519
56853SOL    HW177799   4.675   4.868   0.739 -2.2715  0.0840 -1.5363
56853SOL    HW277800   4.702   4.773   0.624  1.2941 -0.0138 -0.7558
56854SOL     OW77801  10.090   6.531   3.323 -0.9303 -0.0216 -0.0968
56854SOL    HW177802  10.011   6.559   3.278 -1.2397 -0.4956  0.1402
56854SOL    HW277803  10.158   6.530   3.255 -1.2057  0.0532 -0.3734
56855SOL     OW77804   8.668   4.914  10.810 -0.3108  0.5725 -0.2359
56855SOL    HW177805   8.753   4.920  10.854 -0.3844 -0.2497  0.0233
56855SOL    HW277806   8.649   5.004  10.783  0.5300  0.8027 -0.0867
56856SOL     OW77807  11.640   8.840  10.915 -0.1626  0.3791  0.7121
56856SOL    HW177808  11.548   8.865  10.912 -0.1632  0.3268  0.2293
56856SOL    HW277809  11.665   8.850  11.007 -0.7623 -0.0156  0.9217
56857SOL     OW77810   2.460  11.398   3.335 -0.2783  0.5146 -0.4916
56857SOL    HW177811   2.447  11.493   3.346  1.5000  0.8220 -0.7387
56857SOL    HW277812   2.401  11.359   3.399 -1.3456  1.7672 -0.6511
56858SOL     OW77813   2.621   6.755   7.766  0.3895 -0.7034 -0.2798
56858SOL    HW177814   2.691   6.692   7.746 -0.5995 -1.8140 -0.3805
56858SOL    HW277815   2.558   6.744   7.694  0.4940  0.8973 -0.6605
56859SOL     OW77816  11.241   2.598   7.261  0.4492 -0.3540 -0.1847
56859SOL    HW177817  11.291   2.538   7.316  0.0543 -1.0764 -0.5930
56859SOL    HW277818  11.167   2.625   7.316  0.7860 -0.0033  0.1013
56860SOL     OW77819   9.605   5.965  12.045 -0.0960 -0.7008  0.2143
56860SOL    HW177820   9.613   5.876  12.011 -0.1750 -0.7196  0.2449
56860SOL    HW277821   9.511   5.982  12.045 -0.0028 -0.0842 -1.1650
56861SOL     OW77822   2.849   3.262   1.726 -0.0683  0.3367 -0.4578
56861SOL    HW177823   2.758   3.263   1.696 -1.0451  1.1739  2.1712
56861SOL    HW277824   2.866   3.170   1.747 -0.2220  0.1455 -1.1445
56862SOL     OW77825   5.770   7.757   5.378 -0.1504  0.0373  0.0749
56862SOL    HW177826   5.864   7.739   5.380 -0.6703 -3.3050  2.3322
56862SOL    HW277827   5.760   7.835   5.433  1.3266  0.9668 -0.8985
56863SOL     OW77828   1.733   8.596  12.046 -0.6780  0.1916 -0.3166
56863SOL    HW177829   1.767   8.511  12.019  0.9079  1.0619 -1.2543
56863SOL    HW277830   1.643   8.579  12.073 -0.2029 -1.8807  0.1497
56864SOL     OW77831  10.541   1.119  10.317  0.3002  0.3431  0.5164
56864SOL    HW177832  10.611   1.086  10.373  0.4110  0.5553  0.5046
56864SOL    HW277833  10.572   1.102  10.228  0.4123  0.5871  0.5079
56865SOL     OW77834   8.836   6.993   1.343 -0.4579 -0.0170  0.4081
56865SOL    HW177835   8.770   7.012   1.276  0.5639 -0.6903 -0.8360
56865SOL    HW277836   8.910   7.048   1.320 -0.0041 -0.4338  0.8581
56866SOL     OW77837   6.063   5.617   2.651 -0.2635 -0.2749  0.5288
56866SOL    HW177838   5.997   5.622   2.583  0.8078  1.7854 -0.4340
56866SOL    HW277839   6.146   5.615   2.605  0.4385 -0.7633  1.7515
56867SOL     OW77840   3.602   2.215  10.956  0.0812 -0.5298 -0.1030
56867SOL    HW177841   3.585   2.268  11.034  1.4012 -1.3143  0.7537
56867SOL    HW277842   3.685   2.247  10.923 -0.0084 -0.8404 -0.6400
56868SOL     OW77843   2.509  11.032   5.515 -0.2658  0.0015 -0.1620
56868SOL    HW177844   2.594  11.001   5.483 -0.4960  2.0367 -3.0621
56868SOL    HW277845   2.515  11.023   5.610  3.6297  1.0474 -0.1548
56869SOL     OW77846   6.786   3.039   5.128  0.1276  1.0103  0.0842
56869SOL    HW177847   6.708   3.012   5.079 -0.4304  0.8776  1.0393
56869SOL    HW277848   6.859   3.018   5.069 -0.3444 -1.5511  0.3114
56870SOL     OW77849  12.154   9.928  11.332 -0.7786 -0.0243 -0.0790
56870SOL    HW177850  12.228   9.882  11.293 -0.1058  1.4887 -0.6775
56870SOL    HW277851  12.187   9.962  11.415 -0.5749  1.1534 -0.6139
56871SOL     OW77852   3.632   7.112   3.154 -0.4626  0.1277  0.1265
56871SOL    HW177853   3.695   7.178   3.125 -1.2703  1.0037  0.2918
56871SOL    HW277854   3.684   7.033   3.167  0.5351  0.7309 -0.0689
56872SOL     OW77855   6.598   3.521   8.409 -0.1812  0.3499  0.4189
56872SOL    HW177856   6.658   3.591   8.382  0.4993 -0.2465  0.3646
56872SOL    HW277857   6.540   3.509   8.334  1.7837 -1.3887 -0.9424
56873SOL     OW77858   7.223   8.488   5.891  0.0346  0.4018  0.3931
56873SOL    HW177859   7.305   8.450   5.924  1.8208  2.9451 -0.7298
56873SOL    HW277860   7.232   8.581   5.908 -1.3839  1.1157 -2.2327
56874SOL     OW77861   1.708   9.703   7.634 -0.5962  0.1625 -0.3217
56874SOL    HW177862   1.745   9.656   7.559 -0.5174  0.6144 -0.5691
56874SOL    HW277863   1.657   9.636   7.681  0.5015 -0.4599  0.0167
56875SOL     OW77864   7.966   9.882   0.846  0.2027 -0.0077  0.1209
56875SOL    HW177865   7.994   9.938   0.774  2.2423 -0.2222  0.6957
56875SOL    HW277866   7.997   9.927   0.925  0.4469 -1.1230  0.6852
56876SOL     OW77867   8.101   2.607   9.074 -0.0292  0.2345 -0.2352
56876SOL    HW177868   8.061   2.692   9.091  0.5141  0.4742 -0.1310
56876SOL    HW277869   8.076   2.586   8.984 -2.0326 -0.5476  0.4502
56877SOL     OW77870   4.074   2.977   8.271 -0.2450 -0.3845 -0.0677
56877SOL    HW177871   4.014   3.039   8.312 -0.3527 -1.2657  1.1590
56877SOL    HW277872   4.088   2.910   8.338  1.3436 -0.7032 -0.6876
56878SOL     OW77873   2.587   2.411   0.311 -0.2871  0.7135 -0.5098
56878SOL    HW177874   2.618   2.482   0.367  0.3042  2.0769 -2.4430
56878SOL    HW277875   2.525   2.363   0.365  0.9399  1.3615  1.5931
56879SOL     OW77876   0.827   5.788   1.565  0.0794 -0.1458 -0.0313
56879SOL    HW177877   0.842   5.871   1.612 -0.9616  0.6019 -0.9719
56879SOL    HW277878   0.913   5.746   1.563  0.5085  0.6403  0.9602
56880SOL     OW77879   2.306   6.440   3.213  0.3610 -0.0914  0.5890
56880SOL    HW177880   2.348   6.388   3.145 -0.8215 -0.7154  0.3029
56880SOL    HW277881   2.372   6.448   3.282  0.6129 -1.9519  0.6215
56881SOL     OW77882   5.342   2.087   2.300  0.0725 -0.0883  0.3766
56881SOL    HW177883   5.377   2.071   2.212  0.2864 -1.8218  0.7417
56881SOL    HW277884   5.414   2.129   2.348  0.7790 -1.2381  0.3642
56882SOL     OW77885   0.329  11.528  12.654 -0.0953 -0.4724  0.2366
56882SOL    HW177886   0.261  11.559  12.714 -0.1252 -1.2880  0.6287
56882SOL    HW277887   0.283  11.468  12.595  0.0427 -0.0850 -0.2659
56883SOL     OW77888   1.462  12.176   5.576  0.0658  0.4116 -0.2406
56883SOL    HW177889   1.540  12.222   5.543  0.2183 -0.0603 -0.5461
56883SOL    HW277890   1.497  12.097   5.617 -0.1321  0.9631  1.0105
56884SOL     OW77891   2.740   0.902   2.977 -0.0566  0.0214  0.1963
56884SOL    HW177892   2.753   0.987   2.934 -1.6592  0.8225  1.2094
56884SOL    HW277893   2.746   0.921   3.071 -0.9889 -0.8841  0.4588
56885SOL     OW77894   0.855   1.266   9.427  0.0684  0.0235 -0.1279
56885SOL    HW177895   0.809   1.283   9.344  1.7951 -0.0726 -1.1438
56885SOL    HW277896   0.919   1.198   9.406  0.8484  0.3233  1.1689
56886SOL     OW77897   8.359   5.006   3.740  0.0148 -0.3221  0.6824
56886SOL    HW177898   8.295   4.943   3.707  2.1732 -1.2096 -2.2388
56886SOL    HW277899   8.383   4.973   3.826 -1.7572 -1.2418  0.8703
56887SOL     OW77900   3.971   2.131  10.007 -0.5956  0.2486  0.1483
56887SOL    HW177901   3.968   2.226   9.996 -1.4537  0.2552  0.3700
56887SOL    HW277902   4.001   2.119  10.097  2.7539  0.2402 -0.8499
56888SOL     OW77903   5.602   9.793   1.768  0.5242 -0.0851  0.5123
56888SOL    HW177904   5.536   9.728   1.791  1.2368 -0.8863  0.3574
56888SOL    HW277905   5.562   9.844   1.698  0.1601 -0.7275  0.2414
56889SOL     OW77906   9.294   7.385  12.467  0.1988  0.1075  0.0787
56889SOL    HW177907   9.259   7.453  12.526  0.7960  0.8664 -0.4240
56889SOL    HW277908   9.241   7.308  12.486  1.6454 -0.2886  3.0459
56890SOL     OW77909   0.143   1.092   0.363  0.3768 -0.0071  0.1260
56890SOL    HW177910   0.090   1.047   0.429 -0.2873 -0.6432 -0.8049
56890SOL    HW277911   0.233   1.063   0.380  0.2452 -0.0099  0.8551
56891SOL     OW77912   2.963   6.303   9.451 -0.5045  0.3679 -0.0653
56891SOL    HW177913   2.904   6.326   9.523 -1.0730  2.2650 -1.0656
56891SOL    HW277914   2.957   6.208   9.445 -3.7547  0.4641 -0.2992
56892SOL     OW77915   7.229  12.477  10.996  0.1298  0.1623 -0.4978
56892SOL    HW177916   7.219  12.462  10.902  0.0778 -1.2059 -0.2814
56892SOL    HW277917   7.312  12.436  11.019  0.8719  1.7597 -0.1971
56893SOL     OW77918  11.650   5.471   3.159  0.1814 -0.1871 -0.5905
56893SOL    HW177919  11.710   5.545   3.172  0.7345 -0.6159 -0.6646
56893SOL    HW277920  11.678   5.407   3.224 -1.3797  0.3214  0.6533
56894SOL     OW77921   4.066   2.517  11.034  0.1808 -0.8033  0.1142
56894SOL    HW177922   4.154   2.478  11.027  0.7573  0.3188  0.7888
56894SOL    HW277923   4.067   2.589  10.971  0.1913 -0.0173  0.9935
56895SOL     OW77924  11.883   5.470   2.039  0.0633 -0.8047 -0.7271
56895SOL    HW177925  11.824   5.518   2.098  1.3646 -0.6525  0.5254
56895SOL    HW277926  11.862   5.378   2.055  0.2211 -0.7564 -0.2063
56896SOL     OW77927   3.851   9.318  11.602 -0.1936 -0.3304  0.3654
56896SOL    HW177928   3.940   9.302  11.632 -0.8059 -0.4090  2.2394
56896SOL    HW277929   3.804   9.236  11.619 -0.7752 -0.0788  0.0089
56897SOL     OW77930  10.548   8.009   5.587  0.2540 -0.4737 -0.0220
56897SOL    HW177931  10.636   8.040   5.564  1.0600 -2.9567 -0.5775
56897SOL    HW277932  10.500   8.008   5.504  0.3429 -0.9948 -0.0703
56898SOL     OW77933   5.121   8.979  11.312 -0.0355  0.1698  0.2930
56898SOL    HW177934   5.090   8.891  11.333 -0.4048 -0.1038 -1.2976
56898SOL    HW277935   5.216   8.974  11.323 -0.0589 -0.4001  0.2923
56899SOL     OW77936   8.953   5.411   2.186  0.4309 -0.7889 -0.2333
56899SOL    HW177937   8.885   5.347   2.163  0.3729 -1.1587  0.8996
56899SOL    HW277938   8.986   5.381   2.271  2.1655 -0.7332 -0.8652
56900SOL     OW77939   4.987   0.720   2.260 -0.1794  0.1669 -0.0512
56900SOL    HW177940   4.991   0.772   2.340  0.9706  2.2406 -1.3754
56900SOL    HW277941   5.030   0.638   2.282  0.7477  0.9788  1.2701
56901SOL     OW77942  12.434   2.218   8.400 -0.3598  0.4162  0.2249
56901SOL    HW177943  12.502   2.285   8.402 -0.7526  0.9571 -1.9355
56901SOL    HW277944  12.383   2.237   8.321 -0.5230 -2.3989 -0.4669
56902SOL     OW77945   8.019   9.059   9.964 -0.1442 -0.5900  0.4037
56902SOL    HW177946   8.031   9.040   9.871  0.0099  1.4153 -0.0233
56902SOL    HW277947   8.098   9.024  10.006  0.6164  0.0386 -0.4709
56903SOL     OW77948   3.359   9.325   6.170 -0.0817 -0.1214 -0.0718
56903SOL    HW177949   3.274   9.331   6.128  0.3430 -0.2802 -0.9867
56903SOL    HW277950   3.385   9.415   6.188 -1.4218 -0.1309  2.3156
56904SOL     OW77951   4.921   7.296   2.037  0.2486  0.0379  0.3689
56904SOL    HW177952   4.883   7.300   1.949 -0.4540 -0.9684  0.6067
56904SOL    HW277953   4.986   7.366   2.038  0.0927  0.2280 -0.8658
56905SOL     OW77954   2.171   7.063   6.803  0.2905  0.2972 -0.2554
56905SOL    HW177955   2.145   7.132   6.864  0.8496  0.1884  0.1093
56905SOL    HW277956   2.089   7.033   6.764 -0.0575  0.4559  0.3475
56906SOL     OW77957  10.260   8.318   8.017 -1.0961 -0.0127 -0.1893
56906SOL    HW177958  10.253   8.413   8.026 -1.5124  0.0565 -1.1236
56906SOL    HW277959  10.185   8.284   8.066 -2.7105  0.3043 -2.2761
56907SOL     OW77960   1.078  11.702   2.512 -0.7033  0.5914 -0.4689
56907SOL    HW177961   1.170  11.683   2.498 -1.2293 -2.9454 -0.1471
56907SOL    HW277962   1.077  11.775   2.574  2.0070 -1.3830  2.1911
56908SOL     OW77963  10.949   9.931   2.619  0.4451 -0.0156  0.5210
56908SOL    HW177964  10.964   9.904   2.529 -1.4624  1.3776 -0.2608
56908SOL    HW277965  10.931   9.849   2.666  1.2343 -0.7274 -0.3824
56909SOL     OW77966   8.928   3.484  10.892 -0.0616 -0.2836  0.0087
56909SOL    HW177967   8.841   3.523  10.900 -0.3256 -0.8248 -0.1452
56909SOL    HW277968   8.988   3.555  10.911 -0.5527 -0.1226  1.0409
56910SOL     OW77969  12.084   3.833   3.376  0.1069 -0.7523  1.1079
56910SOL    HW177970  12.143   3.870   3.311 -1.3193 -0.2290  0.0354
56910SOL    HW277971  12.044   3.909   3.419  0.3359 -1.0941  1.9578
56911SOL     OW77972  10.826   9.981   7.537 -0.1565  0.3274 -0.3620
56911SOL    HW177973  10.854  10.056   7.590  0.6847  1.1659 -1.9170
56911SOL    HW277974  10.778   9.925   7.598  1.4016  0.8636  1.4533
56912SOL     OW77975   4.611  10.963   9.518  0.4099  0.8762  0.0939
56912SOL    HW177976   4.542  10.922   9.465  1.1384  1.6168 -1.4897
56912SOL    HW277977   4.681  10.980   9.456  1.2149  2.0103  1.2777
56913SOL     OW77978   6.485   6.618  10.084 -0.2595 -0.0751  0.0961
56913SOL    HW177979   6.479   6.648   9.993  1.5376  1.0598  0.3149
56913SOL    HW277980   6.479   6.523  10.078  1.4078 -0.1436 -1.4019
56914SOL     OW77981   3.029   2.339   1.833 -0.5623  0.2855 -0.2027
56914SOL    HW177982   3.062   2.389   1.907 -1.3269 -0.6325  0.7908
56914SOL    HW277983   3.032   2.248   1.862 -2.1924  0.0157 -0.7342
56915SOL     OW77984   1.711  10.719  12.005  0.3622  1.1278 -0.1667
56915SOL    HW177985   1.738  10.673  12.084 -0.2012  2.2005  0.6847
56915SOL    HW277986   1.619  10.695  11.994  0.6195  0.4319 -0.9163
56916SOL     OW77987  11.432   1.096   7.909  0.3176 -0.0668  0.2611
56916SOL    HW177988  11.525   1.115   7.897  0.6106 -0.6046  1.5195
56916SOL    HW277989  11.410   1.038   7.836  0.2409  2.2002 -1.6646
56917SOL     OW77990  10.743   0.423   5.820 -0.1934  0.5822 -0.7961
56917SOL    HW177991  10.697   0.416   5.904 -2.1078 -1.1093 -1.8991
56917SOL    HW277992  10.681   0.465   5.762  1.3669  2.3532 -1.2648
56918SOL     OW77993   4.658   6.734  12.617  0.2163 -0.0296 -0.0282
56918SOL    HW177994   4.746   6.711  12.648 -0.0310 -0.1695  0.5683
56918SOL    HW277995   4.638   6.817  12.660 -0.4411 -0.6075  0.8216
56919SOL     OW77996  12.495  11.749   1.371  0.0068 -0.6919  0.2097
56919SOL    HW177997  12.540  11.780   1.293 -0.3715 -0.0099  0.2594
56919SOL    HW277998  12.467  11.828   1.417  2.1874 -0.9711  2.2465
56920SOL     OW77999   2.502  10.192   0.286  0.2348 -0.1965 -0.0210
56920SOL    HW178000   2.502  10.132   0.212  0.5546  1.7291 -1.6634
56920SOL    HW278001   2.592  10.190   0.319 -0.0301 -1.4461  0.7220
56921SOL     OW78002   5.998   6.090   1.183  0.3897  0.0386 -0.3090
56921SOL    HW178003   5.944   6.116   1.257  1.7953 -0.2260  0.8606
56921SOL    HW278004   6.088   6.097   1.215  1.0090 -0.9780 -1.6961
56922SOL     OW78005   0.797   5.584   4.315 -0.1570  0.5856 -0.1434
56922SOL    HW178006   0.858   5.512   4.328  0.4360  1.0673 -0.2378
56922SOL    HW278007   0.785   5.622   4.402 -0.3265  0.4918 -0.1248
56923SOL     OW78008   9.327   2.368   3.039 -0.1062 -0.0506  0.3025
56923SOL    HW178009   9.237   2.386   3.012  0.1354  2.5602  0.9379
56923SOL    HW278010   9.379   2.394   2.963  0.1607 -0.9864  0.1573
56924SOL     OW78011   5.225   6.060   0.532 -0.2682 -0.0670 -0.3854
56924SOL    HW178012   5.263   6.143   0.505 -2.6639  1.7805  1.4981
56924SOL    HW278013   5.285   6.027   0.600  0.2106  0.6096 -0.4684
56925SOL     OW78014   6.017   0.737   5.953 -0.0888  0.1129 -0.0204
56925SOL    HW178015   6.069   0.734   6.034  0.7959 -1.3482 -0.6008
56925SOL    HW278016   6.075   0.701   5.886 -1.0087  0.7760 -1.2075
56926SOL     OW78017   0.564   5.033   8.200  0.2787  0.1408  0.1608
56926SOL    HW178018   0.574   4.939   8.214 -0.4679 -0.2709 -1.8169
56926SOL    HW278019   0.653   5.064   8.185  0.5943 -0.1261  1.3535
56927SOL     OW78020  10.405   3.822  11.528 -0.1523 -0.4083  0.3070
56927SOL    HW178021  10.452   3.878  11.466 -1.0691 -0.3539 -0.3635
56927SOL    HW278022  10.469   3.803  11.597 -0.2707  2.8718  1.4820
56928SOL     OW78023   3.178   7.731   4.920  0.4094 -0.2347  0.3827
56928SOL    HW178024   3.100   7.748   4.973  0.2653 -0.1446  0.1427
56928SOL    HW278025   3.176   7.637   4.904  0.4036 -0.2479  0.4603
56929SOL     OW78026   0.595   4.180   2.774  0.0139 -0.3179 -0.2385
56929SOL    HW178027   0.666   4.146   2.719  1.3524  1.6019  0.2098
56929SOL    HW278028   0.561   4.103   2.818 -1.4123 -2.0579 -3.9289
56930SOL     OW78029   2.930   4.331   2.400  0.2824 -0.2902 -0.5373
56930SOL    HW178030   2.850   4.352   2.353 -0.1108 -1.7227 -0.5462
56930SOL    HW278031   2.987   4.291   2.335  0.5129 -0.4520 -0.2383
56931SOL     OW78032   6.277   8.930   1.536  0.0051  0.4916 -0.2262
56931SOL    HW178033   6.302   9.021   1.551 -1.2769  0.7466  0.5314
56931SOL    HW278034   6.199   8.935   1.482 -0.9717 -0.0700  1.0774
56932SOL     OW78035   1.746  12.202   9.435  0.1855  0.4087 -0.6384
56932SOL    HW178036   1.664  12.232   9.396 -0.1544  2.4335  1.3882
56932SOL    HW278037   1.720  12.140   9.503  0.4790 -0.1873 -1.0598
56933SOL     OW78038   8.984   3.823   1.562 -0.4545  0.4757 -0.0793
56933SOL    HW178039   9.011   3.879   1.635 -1.8493 -0.2242  1.0198
56933SOL    HW278040   9.066   3.798   1.519  0.2071  3.6317 -0.8753
56934SOL     OW78041   4.784   9.628  10.430  0.0231 -0.2395  0.0841
56934SOL    HW178042   4.778   9.719  10.401 -1.8036  0.3378  2.0221
56934SOL    HW278043   4.713   9.619  10.494  0.6353 -2.8255  0.4888
56935SOL     OW78044   1.924   0.653   6.399  0.1923 -0.5049  1.0559
56935SOL    HW178045   1.975   0.733   6.383 -1.3830  0.6710  1.6700
56935SOL    HW278046   1.979   0.601   6.458  1.4083 -0.0752  0.3525
56936SOL     OW78047   1.842   6.375   1.875  0.1574  0.0970  0.6583
56936SOL    HW178048   1.767   6.414   1.830 -0.6563 -1.8292  0.2317
56936SOL    HW278049   1.871   6.442   1.936 -0.5525  1.7015 -0.6752
56937SOL     OW78050   1.587   6.616   2.512  0.3134 -0.7579 -0.2041
56937SOL    HW178051   1.561   6.676   2.442  3.1561  1.0615  0.1204
56937SOL    HW278052   1.662   6.568   2.476 -0.2535 -2.2183  0.4870
56938SOL     OW78053   6.685  12.075  11.042 -0.4530 -0.0287  0.2769
56938SOL    HW178054   6.774  12.093  11.011 -0.6576 -1.9051 -1.6016
56938SOL    HW278055   6.691  11.988  11.083 -1.3535 -0.0239  0.4472
56939SOL     OW78056   3.334   5.109  10.700  0.0281 -0.5633 -0.2155
56939SOL    HW178057   3.364   5.025  10.733 -0.4172 -0.5865  0.1457
56939SOL    HW278058   3.287   5.148  10.774  0.3609  0.0683 -0.3312
56940SOL     OW78059   1.374   3.601   5.080 -0.3386 -0.0248 -0.2886
56940SOL    HW178060   1.389   3.568   4.992 -0.6530  0.9528 -0.7267
56940SOL    HW278061   1.291   3.562   5.107 -0.2550 -0.3023 -0.4378
56941SOL     OW78062   2.729   8.921  10.071  0.3406 -0.1626  0.5627
56941SOL    HW178063   2.735   8.830  10.101  1.0348 -0.8984 -1.6679
56941SOL    HW278064   2.720   8.915   9.976 -0.4306  2.1011  0.4336
56942SOL     OW78065   2.579   8.081   4.976 -0.0131 -0.1001 -0.1712
56942SOL    HW178066   2.486   8.089   4.955 -0.0206  0.2905  0.0112
56942SOL    HW278067   2.617   8.038   4.900 -0.4164 -0.6425 -0.0732
56943SOL     OW78068   9.320   0.627   2.082  0.4129  0.1582  0.0746
56943SOL    HW178069   9.392   0.568   2.105  1.2234  1.0792 -0.0802
56943SOL    HW278070   9.338   0.655   1.993 -0.2519  0.2416 -0.0441
56944SOL     OW78071  11.352  11.836   7.084 -0.0728 -0.1845  0.5103
56944SOL    HW178072  11.400  11.760   7.051 -1.2023 -0.8918  0.4355
56944SOL    HW278073  11.415  11.908   7.080  0.6405 -0.8422 -0.5888
56945SOL     OW78074   2.797   1.268   7.113 -0.3419 -0.0721  0.0462
56945SOL    HW178075   2.850   1.348   7.110 -1.5835  0.7580 -0.4428
56945SOL    HW278076   2.771   1.253   7.022 -1.1220 -0.3218  0.3009
56946SOL     OW78077   6.950   9.822   2.737  0.2562  0.5041  0.2502
56946SOL    HW178078   7.007   9.829   2.660 -1.7061 -1.1242 -1.5093
56946SOL    HW278079   6.924   9.912   2.756  1.0033  0.9761 -0.8289
56947SOL     OW78080   3.603   6.703   4.153  0.2568  0.4663 -0.2704
56947SOL    HW178081   3.623   6.793   4.126 -0.5024  0.8246  0.3225
56947SOL    HW278082   3.523   6.682   4.105  1.5320 -0.6713 -2.0287
56948SOL     OW78083   2.718   9.258   8.153  0.1220 -0.4285 -0.2057
56948SOL    HW178084   2.669   9.188   8.110 -0.8276  0.2921 -0.3229
56948SOL    HW278085   2.695   9.337   8.105  1.7100 -0.1128 -0.4968
56949SOL     OW78086   9.884   1.782   2.639 -0.2549 -0.3615 -0.2689
56949SOL    HW178087   9.860   1.829   2.559  0.2844  1.4604  0.5717
56949SOL    HW278088   9.847   1.694   2.628 -0.5083 -0.0385 -2.3313
56950SOL     OW78089   7.479   5.483  10.166 -0.5506  0.4302  0.1824
56950SOL    HW178090   7.399   5.448  10.126 -0.6550 -1.0944  1.6017
56950SOL    HW278091   7.541   5.492  10.093 -1.1248 -1.0935 -0.5302
56951SOL     OW78092   2.143   8.645  11.820 -0.0199  0.0778 -0.2573
56951SOL    HW178093   2.207   8.590  11.866  0.4223  0.1117 -0.8149
56951SOL    HW278094   2.134   8.603  11.734 -1.7120 -0.6667  0.2278
56952SOL     OW78095   2.921   9.441   8.247  0.1815  0.6502  0.2554
56952SOL    HW178096   2.991   9.408   8.303  0.2422  0.0781 -0.1529
56952SOL    HW278097   2.858   9.369   8.242 -0.7553  1.3729  1.1274
56953SOL     OW78098   8.379   5.419  10.239  0.5842 -0.3443  0.1483
56953SOL    HW178099   8.421   5.502  10.215 -0.0119 -0.4973 -1.6499
56953SOL    HW278100   8.286   5.434  10.218  0.2657 -1.0515  1.0235
56954SOL     OW78101  10.229  12.060   4.371  0.6034 -0.1546  0.1836
56954SOL    HW178102  10.230  12.107   4.287  2.8314  0.6422  0.5826
56954SOL    HW278103  10.161  12.105   4.422 -0.9555 -0.8021 -1.2147
56955SOL     OW78104   9.265  11.191   1.691  0.4068  0.2945 -0.1731
56955SOL    HW178105   9.205  11.205   1.764  1.6763  1.0803  0.7603
56955SOL    HW278106   9.320  11.270   1.689  0.5920  0.1602 -1.7973
56956SOL     OW78107   9.366   3.501   3.800 -0.5780 -0.1548  0.3447
56956SOL    HW178108   9.436   3.528   3.859 -1.8300 -0.3931  2.0036
56956SOL    HW278109   9.331   3.420   3.838 -0.9456 -0.7236 -1.1342
56957SOL     OW78110   9.967   0.688   6.419  0.3952 -0.1933 -0.0273
56957SOL    HW178111  10.004   0.604   6.392 -0.0875 -1.0730  1.8882
56957SOL    HW278112   9.979   0.690   6.514 -0.5525  1.4496  0.0950
56958SOL     OW78113   0.082   8.675   1.050  0.8403 -0.5082  0.0219
56958SOL    HW178114   0.049   8.588   1.024  2.2394 -1.5524  1.5813
56958SOL    HW278115   0.005   8.731   1.047 -0.1091 -1.7964 -1.0092
56959SOL     OW78116  10.173   2.987  11.064 -0.4495  0.1633 -0.0173
56959SOL    HW178117  10.204   2.897  11.068  0.7800  0.5607 -0.2191
56959SOL    HW278118  10.117   2.991  10.987  0.6262 -0.1009 -0.8295
56960SOL     OW78119   2.449   0.074   9.079 -0.0026  0.1280 -0.6111
56960SOL    HW178120   2.473  -0.018   9.068 -0.8735 -0.3154  0.8613
56960SOL    HW278121   2.472   0.095   9.169 -2.3795  0.4754 -0.0014
56961SOL     OW78122   6.748   0.761   4.923  0.1562  0.4935  0.0125
56961SOL    HW178123   6.767   0.668   4.910  1.3628  0.6670  0.3910
56961SOL    HW278124   6.658   0.763   4.957  0.9430 -0.7506  2.4425
56962SOL     OW78125  10.090   8.916   3.400  0.5229  0.1355 -0.4183
56962SOL    HW178126  10.007   8.962   3.414  0.8277  2.1320 -3.9442
56962SOL    HW278127  10.064   8.825   3.381 -0.3503 -0.5385  3.3274
56963SOL     OW78128   9.391  10.260   8.383  0.2110 -0.3418  0.1470
56963SOL    HW178129   9.468  10.213   8.349 -0.7644 -1.2166 -0.9500
56963SOL    HW278130   9.400  10.254   8.478  1.4341 -0.5320  0.0456
56964SOL     OW78131  10.066  12.037   8.274  0.0928  0.2952  0.0339
56964SOL    HW178132  10.051  11.944   8.289 -2.3167  0.7333  0.7004
56964SOL    HW278133  10.112  12.068   8.352 -0.0921 -0.1080  0.2990
56965SOL     OW78134  11.518   3.896   0.039  0.1090 -1.0268 -0.6799
56965SOL    HW178135  11.512   3.902   0.135  0.2285 -0.0704 -0.7322
56965SOL    HW278136  11.445   3.838   0.015 -1.2404  0.4131 -0.1841
56966SOL     OW78137   7.981  10.448   1.011 -0.6696 -0.1902  0.0386
56966SOL    HW178138   8.030  10.500   0.947 -1.9919  1.8033  0.5460
56966SOL    HW278139   7.937  10.381   0.959 -0.8307  0.7006 -0.9951
56967SOL     OW78140  11.723   2.099   6.123 -0.0114 -0.2538  0.3735
56967SOL    HW178141  11.798   2.039   6.131  0.8297  0.6841 -0.1388
56967SOL    HW278142  11.672   2.064   6.050  2.4304  1.5413 -2.4634
56968SOL     OW78143  11.747   8.724   4.897  0.6503  0.1877 -0.2406
56968SOL    HW178144  11.660   8.696   4.869  0.8130 -1.0723  0.4078
56968SOL    HW278145  11.793   8.642   4.917  1.2058  0.8997  1.6495
56969SOL     OW78146   4.505   2.313   3.231  0.1002 -0.0741  0.3728
56969SOL    HW178147   4.551   2.369   3.169 -1.0280 -0.0183 -0.4502
56969SOL    HW278148   4.416   2.349   3.234 -1.3287 -3.0373 -1.8657
56970SOL     OW78149   2.345   4.809   1.418 -0.1047  0.1639  0.1504
56970SOL    HW178150   2.334   4.714   1.425 -1.2318  0.3031  0.5783
56970SOL    HW278151   2.334   4.828   1.325 -0.9425 -0.0196  0.2059
56971SOL     OW78152   1.843  12.129  11.103 -0.1808 -0.0089  0.0707
56971SOL    HW178153   1.799  12.148  11.186 -2.1340  0.3164 -0.9789
56971SOL    HW278154   1.869  12.214  11.069 -0.8755  0.0151 -0.4156
56972SOL     OW78155   5.162   6.542   7.630 -0.1190  0.4981 -0.8078
56972SOL    HW178156   5.245   6.585   7.610  0.1133  0.3562 -0.1774
56972SOL    HW278157   5.171   6.514   7.721 -1.0954  1.0232 -0.5411
56973SOL     OW78158   9.791   5.133   9.864  0.4404  0.1612  0.4334
56973SOL    HW178159   9.769   5.144   9.771  0.8647 -0.6720  0.2283
56973SOL    HW278160   9.835   5.215   9.888 -2.9373  1.9983  0.9214
56974SOL     OW78161  11.840  10.807   9.736  0.3660  0.4287  0.3914
56974SOL    HW178162  11.772  10.796   9.802  1.0656  0.2278  1.1011
56974SOL    HW278163  11.921  10.780   9.780  0.8317  0.1668 -0.5888
56975SOL     OW78164   4.107  11.745   6.936 -0.4466 -0.5726  0.1512
56975SOL    HW178165   4.058  11.786   6.864 -1.4630 -1.9639  0.0161
56975SOL    HW278166   4.154  11.673   6.895  1.1295  0.2484  0.4338
56976SOL     OW78167   4.459   6.448   7.638 -0.0317 -0.1549  0.3145
56976SOL    HW178168   4.475   6.520   7.699  1.1201  0.3122 -0.4935
56976SOL    HW278169   4.540   6.442   7.587  0.6184 -3.1237  1.4471
56977SOL     OW78170   9.678   1.933   9.137  0.0759  0.1242 -0.5201
56977SOL    HW178171   9.696   1.988   9.061  0.6409 -1.7083 -1.7690
56977SOL    HW278172   9.760   1.933   9.187 -0.4112  1.6344  0.3500
56978SOL     OW78173  10.549   7.273   4.007 -0.3718 -0.3264  0.0209
56978SOL    HW178174  10.546   7.350   3.950 -1.4710  1.3550  2.1857
56978SOL    HW278175  10.625   7.289   4.063 -1.6913  0.2484  1.7541
56979SOL     OW78176   6.588   3.984   4.061  0.0592  0.3481  0.0316
56979SOL    HW178177   6.625   3.898   4.044  0.1258  0.3660  0.0847
56979SOL    HW278178   6.542   3.974   4.144 -0.6706  0.1349 -0.3927
56980SOL     OW78179   5.983   8.741   4.271 -0.2373 -0.0723  0.2844
56980SOL    HW178180   5.944   8.666   4.227  1.5340 -0.8090 -0.1123
56980SOL    HW278181   5.921   8.812   4.257 -0.5367 -0.7079 -1.9612
56981SOL     OW78182   4.644  12.213   6.124  0.0302  0.3765  0.7193
56981SOL    HW178183   4.661  12.194   6.216 -1.2833 -1.4386  0.6400
56981SOL    HW278184   4.727  12.193   6.079  0.7974  1.6558  1.5272
56982SOL     OW78185   2.830  10.806   6.102  0.3792 -0.6961 -0.4135
56982SOL    HW178186   2.757  10.747   6.081  0.1144 -0.8973  0.9992
56982SOL    HW278187   2.822  10.821   6.196  1.2608  0.5142 -0.5166
56983SOL     OW78188   8.503  10.152   6.118 -0.0447  0.1551 -0.3247
56983SOL    HW178189   8.493  10.110   6.032 -0.0212  0.8543 -0.6831
56983SOL    HW278190   8.571  10.218   6.104 -0.1748  0.3981  0.1847
56984SOL     OW78191  10.354  10.843   9.888  0.2731 -0.2159  0.5030
56984SOL    HW178192  10.382  10.806   9.805 -1.1824  1.4280 -0.8165
56984SOL    HW278193  10.285  10.785   9.919  1.0669 -1.0316  0.7770
56985SOL     OW78194   2.117   5.972   5.680  0.0732 -0.6933  0.0636
56985SOL    HW178195   2.071   6.056   5.682  1.8049  0.2981 -0.0295
56985SOL    HW278196   2.146   5.962   5.590 -0.0496 -1.3723  0.0911
56986SOL     OW78197  10.747  10.393  11.592 -0.4177 -0.2206 -0.4559
56986SOL    HW178198  10.813  10.420  11.656 -0.4421 -0.2593 -0.4144
56986SOL    HW278199  10.686  10.338  11.642 -0.3687 -0.3536 -0.5425
56987SOL     OW78200   9.044   0.694   2.783 -0.1749 -0.4522  0.7973
56987SOL    HW178201   9.023   0.626   2.846  0.4138 -0.7345  0.6938
56987SOL    HW278202   8.990   0.769   2.809  0.7832 -0.2301  2.2267
56988SOL     OW78203   1.617   8.365   9.095  0.9073 -0.0931 -0.0342
56988SOL    HW178204   1.556   8.303   9.056  0.1379  1.5288 -1.6017
56988SOL    HW278205   1.690   8.312   9.125 -1.1432 -2.0941  1.7406
56989SOL     OW78206   6.621   1.072  11.548 -0.0509 -0.0894 -0.4689
56989SOL    HW178207   6.621   1.144  11.611  0.4117 -0.5057  0.0219
56989SOL    HW278208   6.605   1.113  11.463 -1.6282  0.3695  0.0333
56990SOL     OW78209   0.272   8.333   1.650  0.0422  0.3712  0.6713
56990SOL    HW178210   0.258   8.290   1.566  0.2614  2.9888 -0.8075
56990SOL    HW278211   0.313   8.265   1.705  0.6127 -1.2057 -1.5432
56991SOL     OW78212  10.369   2.497  11.253  0.0104 -0.2859  0.0353
56991SOL    HW178213  10.444   2.556  11.260 -0.0872 -0.3227  1.8701
56991SOL    HW278214  10.385   2.430  11.319 -1.1717 -0.8345 -0.2087
56992SOL     OW78215   6.601   5.270   9.506 -0.0980  0.4382  0.0121
56992SOL    HW178216   6.646   5.327   9.569 -0.0935  1.5551 -0.9578
56992SOL    HW278217   6.520   5.317   9.487 -0.1105  0.1009 -0.7881
56993SOL     OW78218   3.619  10.686   0.918 -0.0806 -0.1602  0.0228
56993SOL    HW178219   3.687  10.688   0.986 -0.1322 -0.9009  0.1112
56993SOL    HW278220   3.666  10.657   0.839 -0.0243  0.6787 -0.2624
56994SOL     OW78221  11.336   5.572   9.064 -0.1054 -0.3265 -0.3058
56994SOL    HW178222  11.302   5.504   9.123  0.7211 -0.3756  0.1276
56994SOL    HW278223  11.402   5.527   9.011  0.1137  0.0307 -0.3412
56995SOL     OW78224   0.657   8.343   3.782 -0.3994 -0.0797 -0.0282
56995SOL    HW178225   0.733   8.352   3.724  0.0787 -0.8127  0.4577
56995SOL    HW278226   0.664   8.254   3.816 -1.7566 -0.3340 -0.3495
56996SOL     OW78227  10.570   9.806  11.991 -0.4762 -0.4592 -0.6969
56996SOL    HW178228  10.600   9.885  12.035 -0.5094 -0.3938 -0.7910
56996SOL    HW278229  10.571   9.739  12.060  0.1523 -0.5270 -0.7693
56997SOL     OW78230   9.933   9.389   7.911  0.0562 -0.0234  0.4354
56997SOL    HW178231   9.893   9.322   7.854 -1.6407  2.0101 -0.9036
56997SOL    HW278232   9.861   9.419   7.966  0.8144  0.6593  1.0635
56998SOL     OW78233   4.500   1.957  10.185 -0.3380 -0.8556  0.0322
56998SOL    HW178234   4.415   1.957  10.141 -1.0206 -0.1267  1.2955
56998SOL    HW278235   4.500   1.877  10.238 -0.1320 -0.9795 -0.1532
56999SOL     OW78236   1.603   1.153  10.604 -0.1047 -0.0729 -0.4048
56999SOL    HW178237   1.586   1.246  10.593 -1.3265 -0.2303  0.0382
56999SOL    HW278238   1.641   1.125  10.521 -0.2100  0.7068 -0.7184
57000SOL     OW78239   6.284   8.582   7.595  0.5015  0.3783 -0.1191
57000SOL    HW178240   6.225   8.543   7.530  1.1801  2.8359 -2.3325
57000SOL    HW278241   6.225   8.623   7.658 -0.3270  2.8149 -2.3042
57001SOL     OW78242   4.012   9.883   7.419 -0.5420 -0.0605 -0.3086
57001SOL    HW178243   3.927   9.891   7.463 -0.0798  1.1579  0.4138
57001SOL    HW278244   4.065   9.830   7.477 -0.0935  1.1220  0.3971
57002SOL     OW78245   7.246   7.847  11.603 -0.2353 -0.1992  0.0886
57002SOL    HW178246   7.319   7.907  11.619  0.9035 -1.5958  0.3192
57002SOL    HW278247   7.200   7.843  11.687 -0.4051  0.4281  0.0349
57003SOL     OW78248   3.748   5.811   7.691 -0.1014 -0.1763  0.3285
57003SOL    HW178249   3.678   5.867   7.724  0.3131  0.8854 -0.5211
57003SOL    HW278250   3.810   5.872   7.650 -0.7904 -1.3610 -2.7740
57004SOL     OW78251  10.682   6.446   0.912 -0.0242  0.3177  0.2836
57004SOL    HW178252  10.699   6.523   0.967  1.5366  0.1762  0.0341
57004SOL    HW278253  10.766   6.401   0.907 -0.7616 -1.0820 -0.0982
57005SOL     OW78254   1.577   9.784  11.652 -0.4392  0.2838  0.1177
57005SOL    HW178255   1.505   9.750  11.704  0.2348 -1.6032 -0.1005
57005SOL    HW278256   1.648   9.799  11.715 -0.3011 -0.0062  0.0333
57006SOL     OW78257   4.337  11.661  10.733 -0.1433 -0.6394  0.2852
57006SOL    HW178258   4.405  11.602  10.767 -1.2885 -1.8503  0.5552
57006SOL    HW278259   4.282  11.679  10.809 -0.2466  0.1813  0.0219
57007SOL     OW78260   9.986   1.545   0.814  0.4384 -0.4522  0.2583
57007SOL    HW178261  10.007   1.482   0.882  1.4301 -1.7086 -1.1508
57007SOL    HW278262  10.025   1.509   0.734 -0.0210  1.3347 -0.8434
57008SOL     OW78263  12.212   8.447   6.306  0.0175 -0.3619  0.0158
57008SOL    HW178264  12.242   8.419   6.392 -1.5650 -0.5845  0.5095
57008SOL    HW278265  12.242   8.378   6.246  1.9051  0.2253  0.2014
57009SOL     OW78266   4.692   6.649   0.372 -0.0994 -0.3920 -0.9278
57009SOL    HW178267   4.787   6.660   0.363 -0.0270 -0.5283 -0.3700
57009SOL    HW278268   4.661   6.737   0.395 -0.0880 -0.3815 -0.9517
57010SOL     OW78269   7.227   8.167   2.188 -0.6508 -0.5858 -0.3007
57010SOL    HW178270   7.161   8.107   2.152 -0.0630 -0.5720 -1.4449
57010SOL    HW278271   7.307   8.145   2.141 -0.4628  1.2430 -0.9148
57011SOL     OW78272   8.850   8.990  12.311  0.4522  0.5268  0.6923
57011SOL    HW178273   8.760   8.993  12.344  0.7609  0.4285  1.5638
57011SOL    HW278274   8.840   8.966  12.219 -0.3825 -0.0079  0.9059
57012SOL     OW78275   3.738   9.422   0.801 -0.4894  0.0813 -0.2822
57012SOL    HW178276   3.780   9.360   0.860  0.8650  1.8426  0.7386
57012SOL    HW278277   3.708   9.369   0.727  3.7012 -1.4494 -1.1986
57013SOL     OW78278  11.173   6.990   8.317 -1.0507  0.4498 -1.1526
57013SOL    HW178279  11.178   6.907   8.268 -1.2427 -0.0427 -0.3454
57013SOL    HW278280  11.160   6.964   8.408 -0.3132  1.3523 -0.7678
57014SOL     OW78281  11.405   4.174  11.153 -0.5290  0.0577 -0.6130
57014SOL    HW178282  11.360   4.245  11.199 -1.3634 -1.0319  0.3035
57014SOL    HW278283  11.491   4.170  11.195 -0.9767 -0.3653  0.2803
57015SOL     OW78284  12.193   3.300   9.643 -0.0657 -0.1806 -0.1543
57015SOL    HW178285  12.224   3.371   9.588  1.8575 -0.0483  0.9931
57015SOL    HW278286  12.134   3.342   9.706  0.8124  0.3763  0.3200
57016SOL     OW78287  12.140   6.755   5.213 -0.1412  0.1705  0.0746
57016SOL    HW178288  12.164   6.782   5.302 -1.2073  0.1384  0.3805
57016SOL    HW278289  12.102   6.833   5.173 -0.9011 -0.1734  0.1086
57017SOL     OW78290   5.197  11.352  11.983  0.2004 -0.8897 -0.2219
57017SOL    HW178291   5.195  11.290  11.911 -1.0852 -0.4046 -0.6331
57017SOL    HW278292   5.267  11.414  11.960 -1.9386  0.9125 -2.5454
57018SOL     OW78293   0.549  11.138   5.021 -0.0539 -0.1740  0.0118
57018SOL    HW178294   0.622  11.157   5.079 -0.3476 -0.2733  0.4125
57018SOL    HW278295   0.486  11.208   5.037 -0.2575 -0.3583  0.0195
57019SOL     OW78296   2.324   6.027   2.943 -0.1072 -0.6119  0.7082
57019SOL    HW178297   2.233   6.019   2.972 -0.2240 -0.8877  0.2763
57019SOL    HW278298   2.376   6.023   3.023 -0.5147  0.2636  1.0221
57020SOL     OW78299   0.118   1.049   5.492  0.0152  0.3114 -0.1705
57020SOL    HW178300   0.155   0.963   5.474 -0.6072  0.1526 -0.7260
57020SOL    HW278301   0.126   1.097   5.410 -1.1845  0.2014 -0.3666
57021SOL     OW78302  11.388   5.233   5.354  0.2409  0.3244  0.9334
57021SOL    HW178303  11.323   5.303   5.347  0.9249  0.8422 -4.0190
57021SOL    HW278304  11.465   5.275   5.390  0.4958  2.1914 -1.5232
57022SOL     OW78305   9.348   8.529   8.454 -0.2366 -0.2625  0.0383
57022SOL    HW178306   9.372   8.450   8.501 -0.3653 -0.3374 -0.0224
57022SOL    HW278307   9.431   8.575   8.439 -0.0246 -0.9181 -0.9061
57023SOL     OW78308   4.834   9.652   1.411  0.0199 -0.0957 -0.5645
57023SOL    HW178309   4.821   9.686   1.499  2.5361 -0.7655  0.1420
57023SOL    HW278310   4.856   9.729   1.359  0.7694  0.0115 -0.0953
57024SOL     OW78311   8.197   3.992   6.283  0.3569 -0.4030 -0.5544
57024SOL    HW178312   8.262   3.931   6.319 -1.0432 -0.2698  2.5489
57024SOL    HW278313   8.241   4.077   6.284  1.1399 -0.7704 -1.5363
57025SOL     OW78314   3.508   0.908  10.051  0.2348 -0.2970  0.0643
57025SOL    HW178315   3.548   0.827  10.020  0.3453  0.2639 -1.3366
57025SOL    HW278316   3.491   0.958   9.971 -0.5404  0.7326  0.8507
57026SOL     OW78317   9.135   5.537   0.331 -0.0448 -0.0176  0.0478
57026SOL    HW178318   9.135   5.451   0.374  0.9380 -0.2662 -0.4257
57026SOL    HW278319   9.227   5.557   0.316 -0.2712  1.0816  0.0547
57027SOL     OW78320   2.209   6.792   8.290  0.1819  0.2622  0.4198
57027SOL    HW178321   2.220   6.808   8.196 -1.2578  0.1146  0.2041
57027SOL    HW278322   2.294   6.815   8.328 -0.0081  2.9215 -0.5668
57028SOL     OW78323   8.530   4.120   5.595  0.8594  0.2289 -0.4964
57028SOL    HW178324   8.523   4.210   5.626  0.4020  0.8664 -2.3355
57028SOL    HW278325   8.538   4.127   5.500  2.3044 -1.6167 -0.5782
57029SOL     OW78326   4.403   1.152   3.714  0.2108 -0.1050 -0.6548
57029SOL    HW178327   4.472   1.202   3.759 -0.8669  0.7241  0.1446
57029SOL    HW278328   4.430   1.152   3.622  1.5771 -0.3250 -0.2843
57030SOL     OW78329  11.997   0.894   4.060 -0.0654  0.2298  0.3754
57030SOL    HW178330  11.945   0.858   3.988  1.6449 -0.1974 -0.7137
57030SOL    HW278331  11.934   0.914   4.128 -1.6074 -0.4983 -0.7894
57031SOL     OW78332   6.487   1.726   6.079  0.0479 -0.0623 -0.7695
57031SOL    HW178333   6.477   1.664   6.151  0.7727 -0.1524 -0.7331
57031SOL    HW278334   6.438   1.688   6.007  2.7465 -2.2106 -1.6824
57032SOL     OW78335   4.250  11.137   7.392 -0.7820 -0.1656  0.1770
57032SOL    HW178336   4.336  11.161   7.357 -0.0664  0.0323  1.9656
57032SOL    HW278337   4.251  11.042   7.396  0.2005 -0.1311  2.0482
57033SOL     OW78338   1.223   0.411   3.549  0.3230 -0.0681 -0.1000
57033SOL    HW178339   1.311   0.439   3.573 -0.0028  0.6908  0.2354
57033SOL    HW278340   1.226   0.315   3.556  1.0791 -0.0456  0.0254
57034SOL     OW78341   1.777  12.008   0.608  0.3003 -0.3003 -0.3348
57034SOL    HW178342   1.785  11.934   0.668  0.7001 -0.0379 -0.0590
57034SOL    HW278343   1.800  12.084   0.661 -0.3387  0.0526 -0.5486
57035SOL     OW78344   1.590  10.176  10.550  0.5611  0.3646  0.1950
57035SOL    HW178345   1.674  10.221  10.537  0.2751  0.4743 -1.5666
57035SOL    HW278346   1.551  10.219  10.626  2.1540  0.1868  1.1805
57036SOL     OW78347   1.171   4.742  10.101 -0.3911  0.7947 -0.1699
57036SOL    HW178348   1.110   4.679  10.140  0.0246  1.1394  1.0962
57036SOL    HW278349   1.172   4.720  10.008 -0.7716 -0.6386  0.1310
57037SOL     OW78350   2.542   7.206   6.997  0.1863  0.1336 -0.2322
57037SOL    HW178351   2.491   7.286   7.014 -1.0138 -0.8900  1.2497
57037SOL    HW278352   2.610   7.206   7.064  1.6857  1.0488 -1.6725
57038SOL     OW78353   8.275  11.861   6.430  0.2640 -0.4613  0.0034
57038SOL    HW178354   8.357  11.861   6.480  0.0887 -0.2219  0.2977
57038SOL    HW278355   8.215  11.914   6.483 -0.0209 -0.4693 -0.3091
57039SOL     OW78356   2.331   6.691  10.776  0.9694  0.3485  0.5475
57039SOL    HW178357   2.423   6.712  10.791  1.1662  0.3733 -0.6273
57039SOL    HW278358   2.331   6.608  10.729  0.3259 -0.3454  1.7213
57040SOL     OW78359  10.361   0.792   6.564 -0.3439 -0.4982 -0.3186
57040SOL    HW178360  10.358   0.721   6.628  0.5741  0.5098  0.9063
57040SOL    HW278361  10.322   0.867   6.610 -0.2812  0.0800 -1.1874
57041SOL     OW78362  11.799   4.091   1.607 -0.0213  0.2857 -0.0495
57041SOL    HW178363  11.762   4.027   1.546  0.4293  0.9029 -0.9875
57041SOL    HW278364  11.737   4.164   1.606  0.5106  0.7402 -0.5795
57042SOL     OW78365   8.625   8.475   7.716 -0.4405  0.3166  0.1968
57042SOL    HW178366   8.680   8.534   7.664  1.7393  0.2418  2.2823
57042SOL    HW278367   8.663   8.388   7.701  1.1929  0.4584  2.8892
57043SOL     OW78368   4.708   2.968   3.640 -0.3093  0.2649  0.5600
57043SOL    HW178369   4.761   3.043   3.666 -0.0218  0.9903 -1.8618
57043SOL    HW278370   4.762   2.892   3.661  0.8744  0.9042 -0.0838
57044SOL     OW78371   8.413   4.049   3.271 -0.1073 -0.2312 -0.1638
57044SOL    HW178372   8.396   3.958   3.245 -0.6991 -0.1510 -0.0590
57044SOL    HW278373   8.335   4.097   3.243 -0.2468  0.0657  0.7165
57045SOL     OW78374   3.076   8.495  11.531 -0.0865  0.3240 -0.0806
57045SOL    HW178375   3.093   8.573  11.583  0.0077 -0.4574  1.1009
57045SOL    HW278376   3.162   8.454  11.521 -0.3847 -0.6389  1.0142
57046SOL     OW78377  11.983   7.568  11.564 -0.1273 -0.1188  0.8843
57046SOL    HW178378  12.062   7.523  11.533 -0.4262 -0.0556 -0.0038
57046SOL    HW278379  11.979   7.647  11.511 -1.0305 -0.3445  0.6014
57047SOL     OW78380   1.708  12.313   7.330 -0.0065  0.1535 -0.2658
57047SOL    HW178381   1.755  12.319   7.413 -1.0183  1.7308  0.2287
57047SOL    HW278382   1.690  12.404   7.305 -1.1878 -0.3373 -1.3518
57048SOL     OW78383   7.098  10.741   0.805 -0.3529 -0.9022  0.1136
57048SOL    HW178384   7.177  10.790   0.782  0.9864 -2.1074  1.8868
57048SOL    HW278385   7.060  10.716   0.721 -0.1166  1.5602 -0.8259
57049SOL     OW78386   3.013   3.291   5.634 -0.0083  0.8185  0.1408
57049SOL    HW178387   2.951   3.348   5.589 -0.0315  1.6233  1.1610
57049SOL    HW278388   3.080   3.350   5.668  0.4949  0.1290  0.3794
57050SOL     OW78389   3.827  11.236   9.224  0.0268  0.0212  0.0096
57050SOL    HW178390   3.731  11.237   9.222 -0.2487  2.8257  3.7088
57050SOL    HW278391   3.853  11.312   9.171  0.0885  0.1384  0.2056
57051SOL     OW78392   9.535   7.902   5.405  0.2654 -0.4042  0.4675
57051SOL    HW178393   9.546   7.894   5.500  0.7286  1.8758  0.6651
57051SOL    HW278394   9.604   7.847   5.368  0.5647 -0.7205  1.4602
57052SOL     OW78395  10.602   9.027   6.152 -0.2702  0.0075 -0.4474
57052SOL    HW178396  10.509   9.021   6.131 -0.4512  1.7403 -0.2473
57052SOL    HW278397  10.627   8.937   6.175 -1.9580 -0.4268 -0.1696
57053SOL     OW78398   4.778   3.366   6.767 -0.2344  0.8443  0.1367
57053SOL    HW178399   4.828   3.346   6.846 -0.3229 -1.0648 -0.2412
57053SOL    HW278400   4.841   3.407   6.708  0.2437  0.7776  0.5910
57054SOL     OW78401   4.173   6.489  12.248  0.4896  0.1634 -0.4432
57054SOL    HW178402   4.133   6.463  12.165  0.7739  0.9921 -0.8490
57054SOL    HW278403   4.166   6.584  12.249  2.4797  0.3580 -0.5616
57055SOL     OW78404   9.265   1.636   6.296  0.4110  0.2584 -0.1798
57055SOL    HW178405   9.257   1.721   6.252 -0.1811  0.5272  0.4213
57055SOL    HW278406   9.174   1.609   6.309  0.6013 -0.5117 -0.4432
57056SOL     OW78407  11.536   9.779   3.663  0.0514  0.0149 -0.3927
57056SOL    HW178408  11.445   9.763   3.637 -1.1064 -1.4281  3.8088
57056SOL    HW278409  11.530   9.845   3.732  2.0510 -0.8248  0.6500
57057SOL     OW78410   2.908  12.274   4.326  0.7874  0.0156  0.3610
57057SOL    HW178411   2.924  12.334   4.399  1.6953 -0.1997  0.3479
57057SOL    HW278412   2.829  12.227   4.351 -0.3185  1.6368  0.0912
57058SOL     OW78413  12.042   2.587   3.117  0.4068  0.4490 -0.1192
57058SOL    HW178414  12.113   2.639   3.079  0.9526 -1.1484 -1.3814
57058SOL    HW278415  12.060   2.497   3.089 -1.7811 -0.0997  0.0707
57059SOL     OW78416  12.232  10.777  12.240  0.0081 -0.0956  0.6325
57059SOL    HW178417  12.303  10.842  12.236 -0.6579  0.7353  1.6900
57059SOL    HW278418  12.209  10.773  12.333  1.0824 -3.0646  0.8701
57060SOL     OW78419   8.470   9.658   6.469 -0.4108  0.0723  0.0014
57060SOL    HW178420   8.444   9.598   6.539  0.3922 -2.3472 -1.6455
57060SOL    HW278421   8.546   9.705   6.505 -0.0639 -1.0503  0.8027
57061SOL     OW78422   9.885   9.367   5.487  0.0487  0.5142  0.2503
57061SOL    HW178423   9.839   9.315   5.554 -0.3626  1.7857  0.9779
57061SOL    HW278424   9.950   9.306   5.451 -1.5032 -1.0101 -0.0923
57062SOL     OW78425   8.671  11.748   7.197 -0.1427  0.6073  0.2539
57062SOL    HW178426   8.713  11.748   7.284 -0.2205 -0.1857  0.2969
57062SOL    HW278427   8.614  11.671   7.198  1.6509 -0.8517 -1.3591
57063SOL     OW78428  10.187  10.912   5.802  0.0546 -0.0657  0.4510
57063SOL    HW178429  10.256  10.846   5.803  0.1101 -0.0055  0.5995
57063SOL    HW278430  10.183  10.941   5.711 -0.2823 -0.6006  0.2859
57064SOL     OW78431  11.566   7.045   2.605 -0.3116 -0.4495 -0.2945
57064SOL    HW178432  11.522   7.076   2.526  1.3625  0.6552 -0.8350
57064SOL    HW278433  11.542   7.109   2.672 -0.2143 -0.3382 -0.3674
57065SOL     OW78434   9.874   5.345   4.908 -0.3895  0.4168  0.3262
57065SOL    HW178435   9.934   5.284   4.950  0.1437  0.1187 -0.8312
57065SOL    HW278436   9.812   5.370   4.977 -0.1693 -0.8484  1.0035
57066SOL     OW78437   0.183   7.573   6.595 -0.3910  0.1274  0.0241
57066SOL    HW178438   0.243   7.590   6.667 -0.0297 -1.6629  0.1883
57066SOL    HW278439   0.144   7.659   6.575  1.8482  1.2453  0.2082
57067SOL     OW78440   3.533   8.547   1.810  0.3569 -0.0275 -0.0783
57067SOL    HW178441   3.577   8.594   1.739  0.1712 -0.1376 -0.2679
57067SOL    HW278442   3.507   8.616   1.871  2.6261 -0.1148  1.0997
57068SOL     OW78443   1.573  11.176   2.077 -0.2863 -0.3064  0.2100
57068SOL    HW178444   1.519  11.255   2.087 -0.8468 -0.4396 -1.4475
57068SOL    HW278445   1.649  11.193   2.132  0.4688  2.2247 -1.4164
57069SOL     OW78446   1.227   2.618  10.523  0.0581 -0.0445  0.2037
57069SOL    HW178447   1.176   2.552  10.569  0.2198  0.4042  1.0480
57069SOL    HW278448   1.179   2.700  10.538 -0.8536 -0.1226 -1.9042
57070SOL     OW78449   1.422   6.558  12.413 -0.3823  0.6484 -0.3568
57070SOL    HW178450   1.466   6.586  12.333 -1.0742 -1.8896 -1.7221
57070SOL    HW278451   1.330   6.581  12.399 -0.6046 -0.3539 -0.5800
57071SOL     OW78452   6.537   3.560  11.924 -0.3110  0.8446 -0.5128
57071SOL    HW178453   6.450   3.543  11.890 -1.8704  1.5868  2.6941
57071SOL    HW278454   6.529   3.644  11.971  1.5330 -0.0175  1.5395
57072SOL     OW78455   0.590   2.817   0.518 -0.4420  0.1812  0.0374
57072SOL    HW178456   0.495   2.825   0.526 -0.2778  1.4369  1.0319
57072SOL    HW278457   0.616   2.761   0.592 -0.2695  1.0989  0.6908
57073SOL     OW78458   0.390   7.856   0.623 -0.2562 -0.7989  0.4718
57073SOL    HW178459   0.305   7.897   0.639 -0.0113 -0.9568  2.3846
57073SOL    HW278460   0.454   7.920   0.654  0.2315 -1.5618  1.0604
57074SOL     OW78461   0.409   6.651   3.700  0.1172  0.9677  0.1118
57074SOL    HW178462   0.432   6.656   3.608 -0.4664  0.3406 -0.0728
57074SOL    HW278463   0.424   6.560   3.724 -2.9807  0.2457 -0.2686
57075SOL     OW78464   9.704  10.474  12.675  0.2789 -0.3139  0.0156
57075SOL    HW178465   9.698  10.560  12.632 -0.3558 -0.2237  0.2630
57075SOL    HW278466   9.767  10.487  12.745 -1.7341  0.7490  1.7798
57076SOL     OW78467   2.351   9.226   4.642 -0.4849  0.6498 -0.0514
57076SOL    HW178468   2.351   9.131   4.651 -0.5727  0.7287  0.9284
57076SOL    HW278469   2.258   9.249   4.632 -0.3371  0.5019 -2.1435
57077SOL     OW78470   4.421   4.705   1.573 -0.1082 -0.1600 -0.1378
57077SOL    HW178471   4.421   4.699   1.669 -0.1692  0.1434 -0.1174
57077SOL    HW278472   4.366   4.781   1.555  0.1307 -0.0534 -0.4056
57078SOL     OW78473   3.494  12.034   4.357 -0.4281 -0.7895 -0.2884
57078SOL    HW178474   3.537  11.999   4.279  0.1747 -2.5826  0.7853
57078SOL    HW278475   3.480  12.127   4.337  5.3707  0.4748 -0.2788
57079SOL     OW78476   9.810   7.888   3.932  0.0326 -0.0180  0.4659
57079SOL    HW178477   9.868   7.877   3.857 -0.1282 -1.0216  0.4682
57079SOL    HW278478   9.844   7.965   3.978  0.4867  0.2550 -0.3124
57080SOL     OW78479   6.914   8.519  10.332 -0.0001 -0.5409 -0.2207
57080SOL    HW178480   6.946   8.440  10.289  0.5825  0.2340 -1.2497
57080SOL    HW278481   6.911   8.585  10.263 -1.3506  0.1121  0.4221
57081SOL     OW78482  11.437  12.654   1.306  0.4393  0.3342  0.1131
57081SOL    HW178483  11.447  12.565   1.274 -2.7373  0.1086 -0.6276
57081SOL    HW278484  11.518  12.698   1.281  0.5891 -1.4002 -2.9490
57082SOL     OW78485   9.835   9.109   1.059  0.3418 -0.3401 -0.1823
57082SOL    HW178486   9.808   9.193   1.097  0.3958 -0.6898  0.6700
57082SOL    HW278487   9.772   9.091   0.990  1.4030  1.2847 -1.6601
57083SOL     OW78488   6.429  12.166   8.703  0.1285 -0.0695  0.3418
57083SOL    HW178489   6.481  12.176   8.623  1.3305 -2.4981  0.7328
57083SOL    HW278490   6.436  12.250   8.747  0.5938  0.8642 -1.4132
57084SOL     OW78491   2.967   7.812  11.001 -0.3497  0.1842 -0.2975
57084SOL    HW178492   2.938   7.734  11.048  0.3369 -0.4471 -0.9016
57084SOL    HW278493   2.926   7.805  10.914 -0.9179  0.9056 -0.1012
57085SOL     OW78494   3.511   5.185   8.239 -0.0097  0.2252  0.2477
57085SOL    HW178495   3.534   5.093   8.255 -0.8855 -0.0652 -0.0947
57085SOL    HW278496   3.453   5.207   8.311 -1.8077 -0.2709 -0.9757
57086SOL     OW78497   6.140   7.177   3.904  0.4243 -0.0103  0.9333
57086SOL    HW178498   6.198   7.129   3.846 -0.2894 -1.1172  1.1102
57086SOL    HW278499   6.190   7.254   3.930  0.7194  0.5578 -1.2067
57087SOL     OW78500   8.852   2.412   7.855  0.0204 -0.0635  0.2880
57087SOL    HW178501   8.849   2.336   7.796  0.9311 -0.1735  0.3678
57087SOL    HW278502   8.800   2.386   7.930 -0.2838 -0.3281 -0.0125
57088SOL     OW78503   3.890   7.139   0.485 -0.8512 -0.5397 -0.0141
57088SOL    HW178504   3.832   7.066   0.462  0.1326 -1.9207  1.5834
57088SOL    HW278505   3.901   7.131   0.580 -1.9579  2.6984  0.5128
57089SOL     OW78506   0.018   7.618   5.856 -0.0284  0.5286 -0.5363
57089SOL    HW178507  -0.050   7.613   5.924 -0.4352 -0.8299 -1.0064
57089SOL    HW278508   0.042   7.711   5.852  0.2756  0.5908  1.7081
57090SOL     OW78509   7.097   9.088   2.261 -0.3275 -0.5443 -0.1997
57090SOL    HW178510   7.030   9.111   2.196 -0.3972  0.6867  0.2876
57090SOL    HW278511   7.164   9.156   2.251  0.2315 -1.0290  0.2144
57091SOL     OW78512  10.291   2.647   1.994 -0.1029 -0.3041 -0.2885
57091SOL    HW178513  10.309   2.600   2.076  0.3279 -2.2914 -1.4591
57091SOL    HW278514  10.244   2.584   1.940 -0.6236  1.0660 -1.4867
57092SOL     OW78515   7.253   6.233   2.473 -0.9577  0.5221  0.0838
57092SOL    HW178516   7.297   6.262   2.394  1.1277  2.2991  1.7662
57092SOL    HW278517   7.264   6.138   2.473  1.3686  0.7456 -0.4776
57093SOL     OW78518  11.232  11.055   9.987 -0.0382 -0.0962  0.3736
57093SOL    HW178519  11.266  11.038  10.075 -0.4335  0.2120  0.5890
57093SOL    HW278520  11.148  11.010   9.985 -0.0440 -0.0737  0.1651
57094SOL     OW78521   0.792   3.074   8.121  0.0360  0.5526  0.6090
57094SOL    HW178522   0.831   3.053   8.206  3.1665  1.3631 -0.4995
57094SOL    HW278523   0.773   2.988   8.082 -2.4420  0.1608  2.4140
57095SOL     OW78524   3.774   8.222   1.797  0.4684 -0.6301 -0.1229
57095SOL    HW178525   3.690   8.221   1.750  0.3420  0.1049  0.0756
57095SOL    HW278526   3.840   8.216   1.728  0.2667 -0.6868 -0.3128
57096SOL     OW78527   0.002   0.001   5.447 -0.5330  0.2334 -0.2429
57096SOL    HW178528   0.094   0.008   5.422 -0.5854  1.4418 -0.1399
57096SOL    HW278529  -0.034  -0.063   5.386  0.7670 -1.7260  0.9185
57097SOL     OW78530   7.607  11.476   1.993  0.4620  0.1239 -0.7406
57097SOL    HW178531   7.576  11.556   2.035 -0.8827 -0.2804 -0.9183
57097SOL    HW278532   7.547  11.463   1.919  0.5168 -1.1693 -0.5808
57098SOL     OW78533   7.301   4.397   0.069  0.1515  0.1968  0.3242
57098SOL    HW178534   7.382   4.360   0.035  0.1430  0.0592  0.4545
57098SOL    HW278535   7.234   4.368   0.008  0.1055 -0.2277  0.5749
57099SOL     OW78536   8.176   1.173   1.807 -0.5827 -0.4651 -0.1546
57099SOL    HW178537   8.213   1.210   1.887 -1.2946  0.3579 -0.1892
57099SOL    HW278538   8.121   1.100   1.837 -1.4529  0.3169  0.1893
57100SOL     OW78539   6.431   2.616  12.426  1.2117 -0.3897 -0.1424
57100SOL    HW178540   6.426   2.538  12.481  1.4857 -1.0384 -1.0240
57100SOL    HW278541   6.521   2.648  12.439  1.6542 -1.2097 -1.0942
57101SOL     OW78542   7.991   1.573  12.112 -0.0297  0.4895 -0.5968
57101SOL    HW178543   7.947   1.505  12.060 -1.0015  0.3768  0.3404
57101SOL    HW278544   8.035   1.525  12.182  1.6053  0.6081 -1.5114
57102SOL     OW78545   9.417   0.315   4.640 -0.1352 -0.1007 -0.6627
57102SOL    HW178546   9.418   0.256   4.715 -0.6690 -0.3704 -0.8672
57102SOL    HW278547   9.325   0.337   4.628  0.2085  2.8536  1.0493
57103SOL     OW78548   5.561   0.125   0.062 -0.2864 -0.3420 -0.3183
57103SOL    HW178549   5.484   0.149   0.112  0.3143 -0.5159  0.7208
57103SOL    HW278550   5.556   0.030   0.053 -0.4015 -0.3111 -0.6295
57104SOL     OW78551   9.169   1.585   4.283  0.3969 -0.4021  0.2084
57104SOL    HW178552   9.232   1.634   4.336  1.3638 -0.1610 -1.1054
57104SOL    HW278553   9.201   1.595   4.193 -1.0342 -1.0256 -0.3945
57105SOL     OW78554   2.152   0.739   7.537 -0.1586 -0.5693  0.5812
57105SOL    HW178555   2.160   0.699   7.623  0.5930 -0.8125  0.4096
57105SOL    HW278556   2.193   0.825   7.547 -0.2281 -0.5292  0.5159
57106SOL     OW78557   7.777   8.660   8.762 -1.1443  0.5632 -0.3070
57106SOL    HW178558   7.868   8.640   8.785 -1.1326  2.8199  2.1512
57106SOL    HW278559   7.731   8.577   8.769  0.2721 -0.1579  1.0738
57107SOL     OW78560   9.103  11.471   4.112 -0.1833 -0.0988  0.0326
57107SOL    HW178561   9.096  11.511   4.199 -0.0626 -0.7805  0.3625
57107SOL    HW278562   9.048  11.526   4.056  1.2961  1.5461  0.0932
57108SOL     OW78563   5.745  10.858  10.968  0.2500 -0.5692 -0.1676
57108SOL    HW178564   5.738  10.938  11.021  2.7024  0.0320 -0.6550
57108SOL    HW278565   5.677  10.869  10.902  0.2344  0.9198  0.0393
57109SOL     OW78566   0.298   4.967   0.262  0.7571  0.6397  0.1624
57109SOL    HW178567   0.205   4.976   0.246  1.1422  1.4680 -1.8907
57109SOL    HW278568   0.305   4.905   0.334 -1.3626  0.6668  0.4287
57110SOL     OW78569   9.727   1.422   8.869  0.2724  0.4573  0.7519
57110SOL    HW178570   9.820   1.403   8.882  0.6100  0.4105 -1.4551
57110SOL    HW278571   9.726   1.493   8.805 -1.2343  0.2330  0.4999
57111SOL     OW78572   3.064   2.524   9.072  0.2834  0.1720  0.1311
57111SOL    HW178573   3.102   2.445   9.034 -0.5164  0.3897 -1.1828
57111SOL    HW278574   3.120   2.595   9.043  0.4983  0.1892  0.5786
57112SOL     OW78575   0.974   2.998   1.052 -0.3246 -0.3745  0.5610
57112SOL    HW178576   0.900   3.006   1.113  0.0078 -0.1142  0.9320
57112SOL    HW278577   0.953   2.921   0.999  0.4367 -1.9442  2.4523
57113SOL     OW78578   0.283   8.804   6.040 -0.1213 -0.4033 -0.1171
57113SOL    HW178579   0.275   8.886   6.089 -0.0328 -1.2948  1.4779
57113SOL    HW278580   0.197   8.763   6.047 -0.2568 -0.3283 -1.1747
57114SOL     OW78581   5.478   1.268   1.194  0.2807  0.0180  0.1425
57114SOL    HW178582   5.445   1.193   1.144 -0.9535  0.7565 -0.1805
57114SOL    HW278583   5.452   1.250   1.284  1.3112 -0.6475  0.3329
57115SOL     OW78584  11.979  12.312   9.817  0.2939 -0.5640  0.2914
57115SOL    HW178585  11.902  12.262   9.845  0.2808 -0.2182  0.8834
57115SOL    HW278586  12.012  12.352   9.898 -0.0879  0.9315 -0.2677
57116SOL     OW78587   7.102  10.112   5.352 -0.2606  0.6568 -0.2669
57116SOL    HW178588   7.011  10.109   5.323 -0.3816  2.0314 -0.1029
57116SOL    HW278589   7.130  10.201   5.333  0.9060  0.3883  0.1322
57117SOL     OW78590   0.525   4.619   0.982 -0.3732 -0.5763 -0.3177
57117SOL    HW178591   0.568   4.547   1.028 -1.3704 -1.6150 -0.9253
57117SOL    HW278592   0.595   4.664   0.935  0.5700  0.1572  1.7141
57118SOL     OW78593  11.131   0.030   6.836 -0.0237 -0.2242  0.9247
57118SOL    HW178594  11.215   0.030   6.882  0.9981  0.3114 -0.8163
57118SOL    HW278595  11.116   0.122   6.814 -0.1427 -0.5080 -0.2884
57119SOL     OW78596  10.820   9.134   8.388 -0.2833 -0.3581  0.1913
57119SOL    HW178597  10.887   9.081   8.344 -0.6772 -1.0356  0.3867
57119SOL    HW278598  10.758   9.069   8.424 -1.4079  0.2756 -0.5583
57120SOL     OW78599  12.565   5.185   8.555  0.0127  0.4576  0.4694
57120SOL    HW178600  12.527   5.237   8.626 -0.6561  1.4431 -0.5756
57120SOL    HW278601  12.609   5.250   8.499  1.0935 -0.3779  0.3068
57121SOL     OW78602   3.432   1.792   1.847 -0.1156 -0.1822 -0.3401
57121SOL    HW178603   3.404   1.803   1.756  1.3003 -0.2418 -0.7977
57121SOL    HW278604   3.366   1.840   1.898 -1.1499 -0.4868 -1.3493
57122SOL     OW78605   5.095   3.579   7.339  0.4684 -0.2144  0.2333
57122SOL    HW178606   5.115   3.490   7.309 -0.4231  0.1684 -1.6306
57122SOL    HW278607   5.036   3.614   7.272  0.1753  1.5103  1.3458
57123SOL     OW78608   2.733   9.596   2.397 -0.2084  0.1700 -0.5823
57123SOL    HW178609   2.668   9.555   2.340 -2.2575 -0.5448  2.1013
57123SOL    HW278610   2.711   9.565   2.485  2.1641  2.0242  0.7813
57124SOL     OW78611   2.679   1.496   8.983  0.0449 -0.3207  0.4625
57124SOL    HW178612   2.750   1.519   9.043  0.4772  1.4217 -0.6481
57124SOL    HW278613   2.723   1.473   8.901 -0.6399  0.1168 -0.0428
57125SOL     OW78614   5.445   9.773   4.089 -0.4892 -0.4164  0.4449
57125SOL    HW178615   5.439   9.688   4.134 -1.2338 -0.6837 -0.1216
57125SOL    HW278616   5.435   9.751   3.996 -1.2628  0.3368  0.3351
57126SOL     OW78617   9.883   7.945   9.611  0.8048  0.3106  0.5838
57126SOL    HW178618   9.923   7.859   9.619 -0.1815 -0.3152 -0.7914
57126SOL    HW278619   9.793   7.933   9.642  0.1382  0.3773 -1.2065
57127SOL     OW78620  10.765   6.345   7.718 -0.1950 -0.4503  0.0070
57127SOL    HW178621  10.707   6.421   7.726 -2.6095 -2.0137 -1.1906
57127SOL    HW278622  10.798   6.350   7.628  0.8315 -0.0568  0.3981
57128SOL     OW78623   6.358   0.552   3.457 -0.2481 -0.2213 -0.0345
57128SOL    HW178624   6.345   0.457   3.457  0.1384 -0.2793 -0.0159
57128SOL    HW278625   6.279   0.587   3.497 -0.5910 -0.5059 -0.4582
57129SOL     OW78626   5.607   0.810   4.356  0.7899  0.3020 -0.3202
57129SOL    HW178627   5.679   0.750   4.376 -0.3898 -0.5254  1.7959
57129SOL    HW278628   5.584   0.791   4.265  0.7488 -2.2047  0.1352
57130SOL     OW78629   0.287   3.798  12.416 -0.2210  0.4255 -0.1913
57130SOL    HW178630   0.270   3.850  12.337 -3.3632  0.4433  0.3780
57130SOL    HW278631   0.281   3.707  12.386 -3.1423  0.3945  0.1850
57131SOL     OW78632  10.438  11.063  10.472 -0.3822 -0.2095  0.5640
57131SOL    HW178633  10.441  11.020  10.386 -2.2412  0.3088  0.1937
57131SOL    HW278634  10.353  11.038  10.508  0.8543 -1.4488  2.8684
57132SOL     OW78635   1.521   1.264   1.050 -0.2123  0.3043  0.0968
57132SOL    HW178636   1.610   1.266   1.014 -0.6020 -0.7938 -1.0253
57132SOL    HW278637   1.529   1.300   1.138  1.2103  0.9026 -0.2566
57133SOL     OW78638   0.542   1.944  11.181 -0.0108  0.2711  0.1859
57133SOL    HW178639   0.517   1.877  11.244 -0.5221  1.7457  1.6418
57133SOL    HW278640   0.596   2.005  11.232 -0.5346  1.5798 -0.7809
57134SOL     OW78641  10.992   7.184   0.283 -0.0920 -0.0326  0.6975
57134SOL    HW178642  11.086   7.172   0.288 -0.1739 -0.5358  1.0715
57134SOL    HW278643  10.973   7.254   0.346  0.0090 -0.0365  0.7316
57135SOL     OW78644   5.187  11.168   5.930 -0.5461  0.3642  0.3529
57135SOL    HW178645   5.253  11.113   5.971 -0.6489  1.0061  1.3929
57135SOL    HW278646   5.115  11.108   5.909  0.1130 -0.2306 -0.2647
57136SOL     OW78647   6.027   2.335   3.092 -0.2470  0.1735 -0.1241
57136SOL    HW178648   5.977   2.254   3.082  0.8998 -0.5408 -0.2451
57136SOL    HW278649   5.963   2.405   3.079 -1.3245 -0.7088  0.3519
57137SOL     OW78650   4.351   8.613   8.937 -0.2749 -0.4524 -0.2437
57137SOL    HW178651   4.329   8.652   9.022 -0.0794 -1.0616  0.0949
57137SOL    HW278652   4.360   8.519   8.955  1.1182 -0.4276 -0.6537
57138SOL     OW78653   6.443  12.140   5.914  0.5107  0.0008 -0.1235
57138SOL    HW178654   6.363  12.107   5.873  1.6901 -0.4791 -2.1758
57138SOL    HW278655   6.451  12.230   5.881  0.3107  0.4160  0.9095
57139SOL     OW78656  10.361  11.972   7.854  0.0394  0.3557  0.4850
57139SOL    HW178657  10.300  11.911   7.812  0.9483 -0.2854  0.0747
57139SOL    HW278658  10.331  11.977   7.945  0.4209 -1.3390  0.7331
57140SOL     OW78659  11.464   0.045   0.233  0.5572  0.1715  1.0590
57140SOL    HW178660  11.465  -0.012   0.309  1.3005  1.6583  2.2151
57140SOL    HW278661  11.510  -0.004   0.165 -1.2586 -1.7141  1.1053
57141SOL     OW78662   5.635   7.174   5.584  0.0511  0.3702 -1.3459
57141SOL    HW178663   5.620   7.100   5.643 -2.3740  0.4596 -1.7675
57141SOL    HW278664   5.626   7.137   5.496 -1.0330  1.1113 -1.5614
57142SOL     OW78665   1.729   4.617   1.258  0.0979 -0.1197 -0.2367
57142SOL    HW178666   1.747   4.688   1.319 -0.5127  0.4034 -0.6475
57142SOL    HW278667   1.743   4.537   1.308 -2.8339  0.2460  1.3953
57143SOL     OW78668  12.110  11.006   9.352 -0.6346  0.1141  0.3498
57143SOL    HW178669  12.074  11.021   9.264 -2.2110  1.1397  1.1384
57143SOL    HW278670  12.043  10.955   9.397  0.4828 -1.0444  0.7698
57144SOL     OW78671   4.538   8.463  10.336 -0.2287 -0.0378  0.0647
57144SOL    HW178672   4.608   8.457  10.271 -0.2618  1.6414 -0.1769
57144SOL    HW278673   4.457   8.466  10.284 -0.2235  1.8749  0.0997
57145SOL     OW78674  10.549   6.291   9.214  0.5766  0.6260  0.0624
57145SOL    HW178675  10.561   6.205   9.174 -0.1224  1.0776 -1.1664
57145SOL    HW278676  10.636   6.332   9.210  1.2337 -0.4950  1.8766
57146SOL     OW78677   0.381   8.322  12.353  0.2854 -0.3960  0.1145
57146SOL    HW178678   0.340   8.235  12.356 -0.4873 -0.0143  1.1264
57146SOL    HW278679   0.374   8.348  12.261 -0.6473 -0.8666  0.0396
57147SOL     OW78680   0.922  10.566   6.813  0.4754  0.2227  0.1640
57147SOL    HW178681   0.922  10.648   6.765 -0.9756 -1.0784 -2.2227
57147SOL    HW278682   0.971  10.505   6.758 -1.7165 -1.4717 -0.0495
57148SOL     OW78683   0.314   9.685   3.101 -0.0215  0.2647  0.2612
57148SOL    HW178684   0.290   9.700   3.193 -2.5056  0.6645 -0.3629
57148SOL    HW278685   0.356   9.766   3.073 -2.9960  1.8960  0.0249
57149SOL     OW78686   7.946  11.455   5.986  0.4345 -0.4923 -0.0609
57149SOL    HW178687   7.972  11.366   6.008  2.1167  0.1106  0.5155
57149SOL    HW278688   7.942  11.501   6.069  3.5195  0.9412 -0.5633
57150SOL     OW78689   8.980   3.266   2.670 -0.0217  0.1727  0.0588
57150SOL    HW178690   8.974   3.232   2.581  4.4969 -0.3474 -0.2488
57150SOL    HW278691   8.999   3.189   2.724 -1.5788  0.6535  1.3816
57151SOL     OW78692   2.964   5.328  10.023 -0.7304 -0.3890 -0.0750
57151SOL    HW178693   2.922   5.293   9.944  0.4181 -1.6289 -0.1780
57151SOL    HW278694   3.043   5.371   9.992 -0.5479 -0.4142  0.3432
57152SOL     OW78695  11.444   0.645   1.479 -0.1753 -0.0409 -0.5282
57152SOL    HW178696  11.418   0.575   1.420 -0.6817  0.5326 -0.9984
57152SOL    HW278697  11.417   0.726   1.435 -0.1586  0.4240  0.2832
57153SOL     OW78698   6.342   5.604   2.962  0.0209  0.1267  0.0776
57153SOL    HW178699   6.351   5.510   2.974  0.0684  0.1384  0.1349
57153SOL    HW278700   6.256   5.625   2.999  0.6486  0.3444  1.4844
57154SOL     OW78701   6.724   0.656   4.100  0.4736 -0.2818  0.4645
57154SOL    HW178702   6.742   0.730   4.158 -4.2291 -0.7011  2.9509
57154SOL    HW278703   6.735   0.579   4.155  0.6134 -1.1126 -0.6839
57155SOL     OW78704  12.612   6.053  10.149  0.2423 -0.3741 -0.1391
57155SOL    HW178705  12.700   6.052  10.187  0.3953 -1.5201 -0.4775
57155SOL    HW278706  12.621   6.006  10.066 -0.4191  0.6911 -0.8366
57156SOL     OW78707   8.836   8.230  10.783 -0.2942  0.3688 -0.0211
57156SOL    HW178708   8.762   8.225  10.722  1.4792 -0.9649 -2.1869
57156SOL    HW278709   8.898   8.289  10.741  0.8781 -0.3723  0.6368
57157SOL     OW78710   5.367   0.328  11.057  0.3293 -0.0104  0.1190
57157SOL    HW178711   5.308   0.403  11.054  0.5402  0.1646 -2.1111
57157SOL    HW278712   5.311   0.253  11.073 -0.0249  0.5086  1.3617
57158SOL     OW78713   5.904   0.881   4.407  0.1492 -0.7277  0.2065
57158SOL    HW178714   5.890   0.813   4.473  1.6025 -2.4864 -1.1991
57158SOL    HW278715   5.965   0.943   4.448  0.9889 -1.7636  0.5491
57159SOL     OW78716  11.507   4.109  11.676 -0.0522 -0.2866  0.5146
57159SOL    HW178717  11.511   4.096  11.771  0.3295 -0.2007  0.5130
57159SOL    HW278718  11.599   4.111  11.648 -0.0758  1.6093  0.4112
57160SOL     OW78719   5.149  10.624  12.151 -0.5502  0.0561 -0.2157
57160SOL    HW178720   5.161  10.622  12.246 -0.9281  2.0338 -0.0759
57160SOL    HW278721   5.069  10.675  12.138  0.2636  1.0639 -1.6235
57161SOL     OW78722   8.980   0.437  12.136  0.5911 -0.0236  0.3075
57161SOL    HW178723   9.009   0.415  12.225  0.3448 -0.6598  0.2314
57161SOL    HW278724   9.060   0.466  12.092  1.1645 -1.8583  0.0671
57162SOL     OW78725   7.758  11.615   3.931  0.0578 -0.3883 -0.3200
57162SOL    HW178726   7.744  11.625   3.837  0.1744  0.6973 -0.2371
57162SOL    HW278727   7.851  11.633   3.943  0.1702 -1.1075 -0.0614
57163SOL     OW78728   1.021  11.496   9.670 -0.3890  0.2014 -0.4489
57163SOL    HW178729   0.985  11.550   9.740 -0.8691  2.7681 -2.5019
57163SOL    HW278730   0.956  11.427   9.657 -1.8878  1.5215 -0.3818
57164SOL     OW78731   7.571   1.400   6.972  0.0986 -0.1641 -0.7306
57164SOL    HW178732   7.558   1.431   6.882  0.7099 -0.6655 -0.9998
57164SOL    HW278733   7.632   1.327   6.963 -0.6748 -0.9127 -0.0139
57165SOL     OW78734   0.984   7.376   8.929 -0.3125 -0.6959  0.2543
57165SOL    HW178735   0.896   7.414   8.920 -0.4312 -0.4388  2.1580
57165SOL    HW278736   1.000   7.334   8.845 -2.5876 -1.4128  0.1067
57166SOL     OW78737   2.230   3.561  11.825 -0.4212  0.3943  0.4276
57166SOL    HW178738   2.149   3.611  11.836 -0.1716  0.9216 -0.0829
57166SOL    HW278739   2.224   3.526  11.736  0.1287  0.8494  0.2032
57167SOL     OW78740  10.887   3.122   2.483  0.0386 -0.1479  0.4210
57167SOL    HW178741  10.806   3.101   2.438  1.1246  1.0325 -2.2821
57167SOL    HW278742  10.952   3.063   2.445  1.5428  2.7020 -1.7401
57168SOL     OW78743   0.682   4.336   8.472  0.0309 -0.1081 -0.1981
57168SOL    HW178744   0.638   4.385   8.542  0.1101 -0.7564  0.3265
57168SOL    HW278745   0.611   4.300   8.420 -0.0928 -1.1215  0.6262
57169SOL     OW78746   8.235   3.945   4.042  0.3671 -0.3204  0.4123
57169SOL    HW178747   8.317   3.938   4.091  0.2110 -0.9480  0.5987
57169SOL    HW278748   8.253   4.011   3.975 -0.4221  3.1164  3.2937
57170SOL     OW78749  10.898   2.247   4.343  0.3335  0.5109  0.3876
57170SOL    HW178750  10.917   2.194   4.266 -2.2311  0.5309 -0.3502
57170SOL    HW278751  10.951   2.209   4.413  1.1718 -0.7884 -0.9110
57171SOL     OW78752  11.923   4.267   5.234  0.2807 -0.4224  0.0578
57171SOL    HW178753  11.907   4.250   5.327  0.1400 -2.1413 -0.2394
57171SOL    HW278754  12.013   4.239   5.220  0.4964  0.3921 -0.2110
57172SOL     OW78755   4.587   6.183   0.319 -0.0234 -0.0635 -0.2246
57172SOL    HW178756   4.661   6.236   0.349  1.0799 -1.4028 -0.4639
57172SOL    HW278757   4.518   6.246   0.301  1.3246  1.3290 -0.7886
57173SOL     OW78758   7.225  12.029   5.433 -0.2166  0.0139 -0.5142
57173SOL    HW178759   7.314  12.064   5.427 -0.1608  0.3315  1.4582
57173SOL    HW278760   7.236  11.937   5.455 -0.3932 -0.2907 -1.6351
57174SOL     OW78761   2.211   9.938   4.227 -0.3249  1.1471 -0.5256
57174SOL    HW178762   2.234   9.934   4.320 -0.7338  0.5213 -0.4446
57174SOL    HW278763   2.137   9.998   4.223  0.7737  2.5352 -0.6830
57175SOL     OW78764   9.246   2.240   7.640 -0.0098  0.0788 -0.5937
57175SOL    HW178765   9.205   2.323   7.618 -0.4233 -0.1958 -0.8809
57175SOL    HW278766   9.331   2.263   7.676 -1.1191  0.7926  1.7680
57176SOL     OW78767  11.406   7.094   8.963  0.3470  0.3519  0.4153
57176SOL    HW178768  11.466   7.160   8.929  1.6011 -0.8089  0.2787
57176SOL    HW278769  11.418   7.019   8.905 -0.1654 -0.4069  1.2637
57177SOL     OW78770   3.277   7.763   0.461  0.1868 -0.0960  0.3585
57177SOL    HW178771   3.319   7.846   0.437 -0.1477  0.6675  2.2013
57177SOL    HW278772   3.342   7.719   0.516 -0.3297 -0.1890  0.9102
57178SOL     OW78773   8.006   7.722   8.433 -0.0473  0.1693  0.0204
57178SOL    HW178774   7.977   7.786   8.497 -0.5191  0.2210 -0.2408
57178SOL    HW278775   7.943   7.650   8.440 -0.4981  0.4676 -0.8413
57179SOL     OW78776   9.310   0.487   1.407 -0.1156 -0.3842  0.3664
57179SOL    HW178777   9.215   0.496   1.404  0.0035  1.5197  0.9920
57179SOL    HW278778   9.337   0.543   1.480  1.4710 -1.1298  0.3983
57180SOL     OW78779  12.630   4.410   8.855 -0.6055 -0.0583 -0.5259
57180SOL    HW178780  12.676   4.402   8.939 -1.9213  0.6757  0.3023
57180SOL    HW278781  12.656   4.332   8.806 -0.0107 -0.6367  0.6688
57181SOL     OW78782   4.653   7.858   0.380  0.6182  0.6982 -0.2449
57181SOL    HW178783   4.708   7.864   0.302 -0.1319  1.0153 -0.7618
57181SOL    HW278784   4.701   7.906   0.447  2.0343 -0.9084 -0.0448
57182SOL     OW78785   2.658   2.842   8.008 -0.1220  0.2460  0.4082
57182SOL    HW178786   2.749   2.819   8.026 -0.4023 -2.7014 -1.3527
57182SOL    HW278787   2.663   2.928   7.967  1.4975  1.5289  2.9783
57183SOL     OW78788   5.924   9.328  11.052 -0.0197  0.4958 -0.3211
57183SOL    HW178789   5.883   9.273  11.119  0.1861  3.5744  2.6410
57183SOL    HW278790   6.010   9.289  11.038 -0.6022 -1.0223  0.1677
57184SOL     OW78791   8.063  10.623  11.780 -0.5691 -0.0374 -0.3573
57184SOL    HW178792   7.981  10.657  11.744 -0.6124 -0.1031 -0.3205
57184SOL    HW278793   8.055  10.635  11.875 -0.3345  0.3991 -0.3892
57185SOL     OW78794   4.748   3.079  11.734 -0.0731 -0.6094 -0.4535
57185SOL    HW178795   4.836   3.052  11.710  1.0137  0.4163  1.9700
57185SOL    HW278796   4.707   3.000  11.769  0.5219 -0.7319 -0.0110
57186SOL     OW78797  12.516   7.280   4.124 -0.0772 -0.1805  0.2647
57186SOL    HW178798  12.584   7.310   4.185  0.2060 -2.6124  1.2603
57186SOL    HW278799  12.472   7.361   4.096  2.0073  1.3144  1.0046
57187SOL     OW78800   9.991   1.948   7.258 -0.1236 -0.5013  0.5177
57187SOL    HW178801   9.952   1.867   7.292  0.0417 -0.9098 -0.2589
57187SOL    HW278802   9.989   1.938   7.163  0.2852  0.2254  0.4259
57188SOL     OW78803   1.684  11.873   8.153  0.3398  0.1226 -0.1297
57188SOL    HW178804   1.757  11.862   8.093  0.9529  1.2405  0.3627
57188SOL    HW278805   1.669  11.786   8.190  1.6568 -0.0615  0.0102
57189SOL     OW78806   5.167   0.532   8.536 -0.3296 -0.2659 -0.1941
57189SOL    HW178807   5.097   0.577   8.488  0.6330  0.9161 -0.5255
57189SOL    HW278808   5.175   0.580   8.618 -1.1171 -1.5263  0.6587
57190SOL     OW78809   0.871   3.024   8.375  0.1260  0.0283 -1.0916
57190SOL    HW178810   0.792   2.982   8.409  0.0023 -0.1959 -1.6488
57190SOL    HW278811   0.913   3.061   8.453 -0.2873 -0.2490 -0.7274
57191SOL     OW78812   5.052   9.839   8.808  0.1617 -0.3183 -0.2108
57191SOL    HW178813   5.013   9.890   8.737  0.7287  0.2002 -0.1697
57191SOL    HW278814   5.053   9.900   8.882 -0.9111 -1.0278  0.4014
57192SOL     OW78815   3.386  11.056   7.994  0.2339 -0.2514  0.1609
57192SOL    HW178816   3.362  11.100   8.075  1.8840 -0.1370  0.6360
57192SOL    HW278817   3.420  11.126   7.938 -1.4743 -0.2277 -0.8974
57193SOL     OW78818   3.182  11.391   0.755 -0.0007 -0.2537  0.0809
57193SOL    HW178819   3.092  11.385   0.784 -0.1132 -0.1415 -0.2354
57193SOL    HW278820   3.176  11.422   0.664  0.3908  1.1668  0.5019
57194SOL     OW78821   4.046  12.024   5.108  0.4014  0.2335  0.1254
57194SOL    HW178822   4.134  12.048   5.138  0.5531  3.2244 -2.2269
57194SOL    HW278823   4.060  11.989   5.020 -0.6093 -1.5129  0.6262
57195SOL     OW78824   7.476  10.494  12.318 -0.4347  0.4445 -0.6927
57195SOL    HW178825   7.417  10.420  12.305 -0.4670  0.4964 -0.8393
57195SOL    HW278826   7.483  10.534  12.232  0.2397  0.1151 -0.7997
57196SOL     OW78827   6.878   2.946   8.630  0.1323  0.1371  0.8635
57196SOL    HW178828   6.916   2.860   8.611 -0.8919 -0.4022  1.1539
57196SOL    HW278829   6.875   2.989   8.545  1.3829  0.2075  0.8377
57197SOL     OW78830   0.854   2.925   5.787  0.4184 -0.2929 -0.3089
57197SOL    HW178831   0.896   2.912   5.872 -0.0823 -2.0848 -0.2916
57197SOL    HW278832   0.909   2.990   5.743 -1.2020  3.4480  2.6086
57198SOL     OW78833   0.573   5.347  12.363 -0.0756 -0.0970 -0.0202
57198SOL    HW178834   0.532   5.301  12.290 -0.2476  0.3183 -0.1944
57198SOL    HW278835   0.667   5.337  12.348 -0.1074  0.0660 -0.3563
57199SOL     OW78836   8.407   0.168   3.826  1.0438  0.1199 -0.3307
57199SOL    HW178837   8.335   0.231   3.831  0.3516 -0.7275  1.0057
57199SOL    HW278838   8.394   0.123   3.742 -0.7960 -0.8937  0.4242
57200SOL     OW78839  11.474   7.750   3.723 -0.6034 -0.3534 -0.1897
57200SOL    HW178840  11.479   7.735   3.628  2.6232 -2.1234  0.1365
57200SOL    HW278841  11.545   7.697   3.760 -2.1643 -0.2855  3.3297
57201SOL     OW78842   1.444   9.897  10.668  0.3782 -0.1039  0.2126
57201SOL    HW178843   1.436   9.926  10.577  0.1332 -0.9454 -0.0432
57201SOL    HW278844   1.538   9.883  10.680  0.7686  2.4874  0.9061
57202SOL     OW78845   3.636   6.607   6.832 -0.0785  0.1419  0.4710
57202SOL    HW178846   3.556   6.660   6.831 -1.1682 -1.4180  0.0868
57202SOL    HW278847   3.608   6.522   6.798  2.0310 -0.0815 -0.8825
57203SOL     OW78848  11.246   1.291   0.391 -0.3434 -0.3506  0.8082
57203SOL    HW178849  11.175   1.287   0.327  0.5619  0.2354 -0.2456
57203SOL    HW278850  11.234   1.375   0.435  0.3761  0.3035 -0.1998
57204SOL     OW78851   8.015   5.247   0.229  0.5644 -0.2197 -0.2193
57204SOL    HW178852   7.950   5.229   0.161  1.0675  0.9129 -1.0267
57204SOL    HW278853   8.099   5.238   0.185  0.8992  0.4202  0.2737
57205SOL     OW78854   9.337   8.710  11.152  0.1971  0.4507 -0.3897
57205SOL    HW178855   9.337   8.798  11.189 -0.9811 -0.0657  0.9304
57205SOL    HW278856   9.245   8.692  11.133  0.1453 -1.2126  1.1999
57206SOL     OW78857   7.225   6.018  12.556  0.2357 -0.2968  0.1726
57206SOL    HW178858   7.135   6.048  12.540  0.2456 -1.0965 -1.6614
57206SOL    HW278859   7.280   6.082  12.510  0.5772 -0.1471  0.7840
57207SOL     OW78860   6.974   7.199   0.884 -0.0029  0.0441  0.0829
57207SOL    HW178861   6.903   7.255   0.853  0.9434  0.6794 -1.0323
57207SOL    HW278862   7.048   7.220   0.826  0.7416 -1.4670  0.4323
57208SOL     OW78863   0.597   8.414   7.746  0.0499 -0.6846  0.4214
57208SOL    HW178864   0.530   8.440   7.683 -0.3155 -0.7230  0.7875
57208SOL    HW278865   0.670   8.385   7.693 -0.4484 -1.2184  0.0113
57209SOL     OW78866   3.757   1.074   5.851  0.2378  0.0627  0.1339
57209SOL    HW178867   3.770   1.052   5.943  3.4359  1.3047  0.0938
57209SOL    HW278868   3.841   1.052   5.809  0.4734  3.5840 -1.5823
57210SOL     OW78869   4.751  11.445   5.685 -0.5055 -0.1273 -0.5457
57210SOL    HW178870   4.829  11.399   5.715 -1.1652 -0.8444  0.0999
57210SOL    HW278871   4.780  11.536   5.673  0.3566 -0.3324 -0.0757
57211SOL     OW78872   1.926   5.258  12.697 -1.0181 -0.0821 -0.4843
57211SOL    HW178873   1.952   5.167  12.683  0.4731  0.3588 -0.7063
57211SOL    HW278874   1.925   5.296  12.609 -1.4998  0.1630 -0.3780
57212SOL     OW78875   2.773  10.710   2.670 -0.3251  0.2555 -0.9025
57212SOL    HW178876   2.821  10.748   2.596  0.7701  0.6291 -0.0396
57212SOL    HW278877   2.711  10.650   2.630  1.1412 -0.5582 -2.0754
57213SOL     OW78878   3.249   6.549   1.141 -0.4443  0.8165  0.4812
57213SOL    HW178879   3.183   6.514   1.081 -2.0783  4.7637 -0.3599
57213SOL    HW278880   3.212   6.535   1.229 -0.6095 -0.2410  0.2525
57214SOL     OW78881   7.732  11.977   2.744  0.1920  0.3859  0.1174
57214SOL    HW178882   7.638  11.984   2.734  0.2278 -0.2178 -0.7141
57214SOL    HW278883   7.762  12.067   2.755 -0.4961  0.5620  0.6082
57215SOL     OW78884   6.357   5.915   8.281 -0.5199  0.3263  0.4737
57215SOL    HW178885   6.344   5.986   8.343 -1.4314  0.6451 -0.0598
57215SOL    HW278886   6.316   5.947   8.200  0.1345 -0.3119 -0.1200
57216SOL     OW78887   1.123   0.427   3.971 -0.4273  0.0094 -0.3710
57216SOL    HW178888   1.143   0.474   4.052  0.6599 -0.3444 -0.4243
57216SOL    HW278889   1.140   0.491   3.902  0.4994 -0.2676 -0.4123
57217SOL     OW78890   8.051   4.099   8.470 -0.2454  0.1170  0.5397
57217SOL    HW178891   7.997   4.037   8.421 -1.4674  0.2410  1.6898
57217SOL    HW278892   8.008   4.184   8.457  1.1604  0.6900 -0.6535
57218SOL     OW78893   4.553   7.952   6.401 -0.6843 -0.0029 -0.0004
57218SOL    HW178894   4.646   7.930   6.394 -0.6413  0.2637 -0.2974
57218SOL    HW278895   4.515   7.882   6.454 -0.0521  0.6074  1.3058
57219SOL     OW78896   4.988   2.562   3.333  0.0454 -0.1506  0.0044
57219SOL    HW178897   4.941   2.521   3.406  0.5495  0.0280  0.4450
57219SOL    HW278898   4.920   2.586   3.271 -0.3337 -0.9030  0.1149
57220SOL     OW78899   1.708   3.258   5.793  0.0402  0.2780 -0.2080
57220SOL    HW178900   1.797   3.273   5.763  0.4599  0.1122  0.8920
57220SOL    HW278901   1.714   3.262   5.889 -0.8957 -0.9756 -0.0728
57221SOL     OW78902   5.775  10.855   1.367  0.5916 -0.2756 -0.4721
57221SOL    HW178903   5.694  10.897   1.398  1.0690  0.7627 -0.5891
57221SOL    HW278904   5.750  10.764   1.351 -1.0428  0.4337 -2.3105
57222SOL     OW78905   6.936   8.114   1.543 -0.1894 -0.3272 -0.2200
57222SOL    HW178906   7.011   8.137   1.488 -0.2247 -0.5778 -0.3707
57222SOL    HW278907   6.921   8.193   1.596 -0.3030 -0.0016 -0.7291
57223SOL     OW78908  12.170   0.396   6.279 -0.3859  0.0599 -0.1156
57223SOL    HW178909  12.199   0.336   6.347 -0.1202 -1.0121 -1.1313
57223SOL    HW278910  12.249   0.415   6.228 -0.1635  2.3982  0.9760
57224SOL     OW78911   0.280   1.702   7.600  0.1469  0.4493  0.3968
57224SOL    HW178912   0.258   1.727   7.690 -1.4744 -1.0260  0.4500
57224SOL    HW278913   0.196   1.681   7.559  0.9563  0.0594 -1.1488
57225SOL     OW78914   8.055   5.607   1.054  0.3543 -0.1252  0.0774
57225SOL    HW178915   8.139   5.649   1.034 -0.1557  0.8129 -0.1634
57225SOL    HW278916   8.078   5.518   1.082  1.2579 -0.6981 -2.3031
57226SOL     OW78917   5.649  12.235   7.564  0.0601  0.3027  0.0221
57226SOL    HW178918   5.644  12.153   7.516 -0.7703  0.1655  0.3254
57226SOL    HW278919   5.662  12.302   7.497 -1.4337  0.1557 -0.4443
57227SOL     OW78920   3.475   6.134   2.248 -0.3366 -0.0619  0.2731
57227SOL    HW178921   3.452   6.226   2.231  0.6160  0.0389 -0.5472
57227SOL    HW278922   3.458   6.090   2.165 -2.8749 -1.1056  1.2260
57228SOL     OW78923   5.941   4.688   2.974  0.4632  0.7740 -0.1404
57228SOL    HW178924   6.013   4.628   2.992 -0.3878 -1.1732 -2.6069
57228SOL    HW278925   5.883   4.679   3.050  1.7868  0.8097  0.9093
57229SOL     OW78926   7.928   0.184  12.705 -0.0251 -1.3865  0.0735
57229SOL    HW178927   7.975   0.109  12.667  1.6011 -0.8225  0.8679
57229SOL    HW278928   7.967   0.195  12.792 -0.6409  0.0173  0.1935
57230SOL     OW78929   9.082   0.204   2.076  0.0261 -0.4298 -0.3988
57230SOL    HW178930   9.056   0.290   2.041 -0.9551 -1.2488 -1.7737
57230SOL    HW278931   9.169   0.189   2.040 -0.0836 -0.3015 -0.7301
57231SOL     OW78932   4.209   8.854  10.846  0.5310  0.3185 -0.2511
57231SOL    HW178933   4.115   8.868  10.856  0.9161  2.3575  1.1190
57231SOL    HW278934   4.234   8.803  10.922  0.8329  1.6300  0.5634
57232SOL     OW78935   9.375   7.688   5.458 -0.6404 -0.1853 -0.2393
57232SOL    HW178936   9.451   7.641   5.425  0.0809 -0.3268  1.5061
57232SOL    HW278937   9.374   7.770   5.409  0.0986 -0.5648 -0.9121
57233SOL     OW78938   0.255   8.106   4.055  0.2610  0.0850 -0.3827
57233SOL    HW178939   0.193   8.035   4.034 -2.0148  1.6642  0.5820
57233SOL    HW278940   0.289   8.083   4.141 -1.0202  0.4624  0.2500
57234SOL     OW78941   9.158   9.701   2.388 -0.5699 -0.4735  0.1450
57234SOL    HW178942   9.236   9.746   2.420 -0.4675  0.5551 -1.4916
57234SOL    HW278943   9.189   9.614   2.364 -0.2763 -0.6242  1.0240
57235SOL     OW78944   3.786   4.208  10.589 -0.2187  0.0507  0.5396
57235SOL    HW178945   3.805   4.235  10.679  1.4553  2.7200 -0.4787
57235SOL    HW278946   3.734   4.280  10.554  0.7556 -0.0031 -1.1258
57236SOL     OW78947  10.757   1.752   6.779  0.1484  0.3523 -0.1948
57236SOL    HW178948  10.794   1.837   6.756 -1.4648  0.9245 -0.8618
57236SOL    HW278949  10.825   1.688   6.757  0.8376  1.3596 -1.0571
57237SOL     OW78950   3.784   9.694   8.720 -0.5494 -0.2269 -0.4099
57237SOL    HW178951   3.842   9.640   8.666  1.0335 -0.9200  1.8413
57237SOL    HW278952   3.769   9.773   8.668  1.7417 -0.4068 -1.4521
57238SOL     OW78953  11.989   8.360   3.466 -0.1139 -0.4724 -0.1419
57238SOL    HW178954  11.942   8.366   3.549 -1.9639 -0.2196 -1.1426
57238SOL    HW278955  11.928   8.314   3.408  0.2095  1.2502 -1.9427
57239SOL     OW78956  12.258   8.119   9.375 -0.2171  0.7779  0.4233
57239SOL    HW178957  12.206   8.154   9.303  0.5861  0.7088 -0.2024
57239SOL    HW278958  12.301   8.042   9.338  0.8932  1.2479  0.7126
57240SOL     OW78959   0.566   7.951   9.145  0.3104 -0.5566  0.5023
57240SOL    HW178960   0.543   7.975   9.235 -0.1211  0.0428  0.2424
57240SOL    HW278961   0.506   7.879   9.124 -0.4751  0.1464  0.2706
57241SOL     OW78962   0.575   7.457   0.242  0.4670 -0.0916 -0.2922
57241SOL    HW178963   0.604   7.431   0.329  1.2669  1.5300 -0.0458
57241SOL    HW278964   0.506   7.394   0.220 -0.4147  0.0294  1.9040
57242SOL     OW78965   8.363   7.396   0.253 -0.2722 -0.4170  0.2604
57242SOL    HW178966   8.281   7.381   0.205 -0.4971 -0.2982  0.6092
57242SOL    HW278967   8.348   7.358   0.339 -0.2053  0.2218  0.5558
57243SOL     OW78968  12.091   8.051   0.273  0.0199 -0.3858 -0.1769
57243SOL    HW178969  12.018   8.102   0.309  0.0830 -0.0544 -0.5060
57243SOL    HW278970  12.088   8.070   0.179  1.1448  0.4095 -0.0603
57244SOL     OW78971   3.583   5.943   7.910 -0.8140 -0.2006 -0.3683
57244SOL    HW178972   3.506   5.999   7.917 -0.1610  0.8689 -1.4664
57244SOL    HW278973   3.656   6.000   7.935 -0.3238 -1.0805  0.2545
57245SOL     OW78974   4.165   7.288   7.241  0.4235 -0.4421 -0.3854
57245SOL    HW178975   4.073   7.261   7.238  0.3149 -0.0389 -0.7221
57245SOL    HW278976   4.193   7.290   7.149  0.8041 -0.6728 -0.2796
57246SOL     OW78977   8.346   5.530  10.577  0.2801  0.0653 -0.3865
57246SOL    HW178978   8.389   5.551  10.660  0.0335  0.0248 -0.2476
57246SOL    HW278979   8.378   5.597  10.516  0.1552  0.3362 -0.1585
57247SOL     OW78980  11.407   3.186   8.068  0.1012 -0.6418  0.1415
57247SOL    HW178981  11.420   3.185   7.973  1.8252 -1.0470  0.3434
57247SOL    HW278982  11.489   3.220   8.103 -0.1074 -1.4889  1.5465
57248SOL     OW78983   4.908   5.355   6.622 -0.1207  0.0565  0.3521
57248SOL    HW178984   4.873   5.425   6.678 -1.5182  0.5068 -1.0057
57248SOL    HW278985   4.833   5.327   6.570  0.5887 -1.9952  0.3690
57249SOL     OW78986   0.101  11.299   7.630  0.5752 -0.5991  0.3000
57249SOL    HW178987   0.051  11.218   7.644 -0.9927  0.3179  0.2421
57249SOL    HW278988   0.142  11.286   7.545 -0.1682 -1.1013 -0.0027
57250SOL     OW78989   8.058   8.421   9.058  0.5021  0.6134  0.1472
57250SOL    HW178990   7.965   8.429   9.080 -0.1704 -1.6109 -1.4431
57250SOL    HW278991   8.062   8.344   9.001  3.2244  1.1370 -0.5129
57251SOL     OW78992   0.583   5.401   6.208 -0.0968 -0.0414  0.4151
57251SOL    HW178993   0.644   5.463   6.167 -2.1888  2.4207  0.7149
57251SOL    HW278994   0.540   5.358   6.135  0.7269 -0.4873  0.1790
57252SOL     OW78995   8.633   9.332   7.083  0.1950 -0.0800 -0.2516
57252SOL    HW178996   8.556   9.348   7.029  0.8767 -0.1130 -1.2549
57252SOL    HW278997   8.607   9.357   7.171 -0.9167  0.0334 -0.6068
57253SOL     OW78998   6.192  10.307   7.494  0.0690  0.2528  0.2946
57253SOL    HW178999   6.150  10.259   7.423  0.3864 -1.1128  1.0020
57253SOL    HW279000   6.235  10.381   7.451  1.3547 -1.2563 -1.1082
57254SOL     OW79001   6.717   4.087   8.011  0.2556  0.1122  0.1859
57254SOL    HW179002   6.655   4.159   8.005 -1.0135 -0.8779  0.8155
57254SOL    HW279003   6.794   4.117   7.963 -0.5801  1.5086 -0.3403
57255SOL     OW79004   0.348   8.185   8.255  0.8089  0.1638 -0.1865
57255SOL    HW179005   0.304   8.230   8.183  2.2685  2.9262  0.4838
57255SOL    HW279006   0.438   8.175   8.225  0.8980 -0.8253  0.3742
57256SOL     OW79007   8.606   4.442   7.092 -0.4283 -0.5602 -0.2574
57256SOL    HW179008   8.511   4.438   7.100 -0.4253  0.8908  1.1581
57256SOL    HW279009   8.622   4.472   7.003 -1.3344 -0.0759 -0.2690
57257SOL     OW79010  11.406   3.210   5.028 -0.5796 -0.0474  0.0326
57257SOL    HW179011  11.347   3.253   5.090 -0.0627 -0.7114  1.0099
57257SOL    HW279012  11.454   3.146   5.080  0.5558  0.0273 -0.8630
57258SOL     OW79013   0.974   1.072   2.841  0.1572 -0.1393  0.2064
57258SOL    HW179014   0.958   1.115   2.925 -1.8241 -0.1423 -0.1267
57258SOL    HW279015   0.887   1.058   2.804  0.9535 -0.7831 -1.5387
57259SOL     OW79016   3.437   0.119  12.592 -0.4481 -0.9538 -0.5011
57259SOL    HW179017   3.392   0.096  12.673 -0.6608  1.1505  0.0193
57259SOL    HW279018   3.526   0.143  12.619 -1.2576  2.3895 -0.4139
57260SOL     OW79019   1.836   9.098   2.497 -0.0730 -0.1728  0.4647
57260SOL    HW179020   1.806   9.168   2.556  0.4254 -1.0923  1.8600
57260SOL    HW279021   1.763   9.036   2.494 -1.5928  1.5180 -2.8311
57261SOL     OW79022   4.180   4.055  10.316  0.1610 -0.0638  0.0965
57261SOL    HW179023   4.181   4.151  10.311 -0.3421 -0.0504  0.2215
57261SOL    HW279024   4.104   4.035  10.370  1.2874 -0.4627  1.6329
57262SOL     OW79025   5.284   5.299   5.335  0.3861  0.3724  0.0594
57262SOL    HW179026   5.353   5.262   5.280  0.0792 -0.4199  0.1916
57262SOL    HW279027   5.228   5.224   5.357 -1.7814  1.2967 -1.8336
57263SOL     OW79028   5.418   7.740  12.180 -0.0112  0.0762  0.0053
57263SOL    HW179029   5.500   7.739  12.230  0.4396 -1.2071 -0.7220
57263SOL    HW279030   5.350   7.746  12.247  0.5519 -2.1636  0.8721
57264SOL     OW79031   1.031   9.601   6.299 -0.2982 -0.5885  0.0595
57264SOL    HW179032   1.104   9.662   6.308  0.4231 -1.0684 -1.9704
57264SOL    HW279033   0.955   9.657   6.280  0.5083 -0.2654 -2.5963
57265SOL     OW79034  10.426   1.188   7.644 -0.1893  0.2806  0.0595
57265SOL    HW179035  10.383   1.274   7.637 -1.5217 -0.2480  1.1975
57265SOL    HW279036  10.400   1.142   7.564  2.7388  1.7994 -1.9079
57266SOL     OW79037   7.699   7.768   5.872 -0.1023 -0.0529 -0.1719
57266SOL    HW179038   7.686   7.805   5.785 -2.6483 -1.1139 -0.3285
57266SOL    HW279039   7.660   7.833   5.931 -0.4622 -0.3845 -0.0438
57267SOL     OW79040   6.584   4.429   0.422 -0.0521  0.4314  0.1243
57267SOL    HW179041   6.534   4.370   0.478  0.7349  0.5838  1.0120
57267SOL    HW279042   6.520   4.464   0.360 -1.4098  1.8069  2.1803
57268SOL     OW79043  11.477  10.512   0.634  0.0422 -0.0618  0.8357
57268SOL    HW179044  11.461  10.422   0.661  0.2175 -0.0109  1.1159
57268SOL    HW279045  11.453  10.564   0.711 -0.8318  0.1878  0.4080
57269SOL     OW79046   7.310   4.033   7.563  0.4994 -0.8111 -0.3515
57269SOL    HW179047   7.364   4.113   7.558 -0.3822 -0.1699  0.2003
57269SOL    HW279048   7.303   4.004   7.472 -0.0216  0.3224 -0.6933
57270SOL     OW79049   1.411   9.013   3.978 -0.2138  0.0315 -0.0224
57270SOL    HW179050   1.487   8.969   4.015 -0.2217 -0.3697 -0.4675
57270SOL    HW279051   1.417   9.103   4.010  0.0993 -0.1592  0.4545
57271SOL     OW79052   7.747  10.454   8.391 -0.4243 -0.5959 -0.2526
57271SOL    HW179053   7.743  10.489   8.480 -1.9816 -1.8665  0.2237
57271SOL    HW279054   7.804  10.378   8.397  0.7290  0.2106 -0.6969
57272SOL     OW79055   2.201   1.105   4.401  0.2684 -0.2594  0.2333
57272SOL    HW179056   2.285   1.124   4.444  0.7916 -2.6722  0.4142
57272SOL    HW279057   2.215   1.021   4.357 -0.8480  1.1453 -3.1125
57273SOL     OW79058   2.218   8.436   0.565  0.4087 -0.2311  0.1329
57273SOL    HW179059   2.253   8.525   0.570 -2.2307  1.0057 -0.8861
57273SOL    HW279060   2.172   8.423   0.648 -1.3342  0.4549 -0.6567
57274SOL     OW79061  10.298   1.238   5.079 -0.9724 -0.3323 -0.0376
57274SOL    HW179062  10.246   1.222   5.158  0.2779 -0.6894  0.7512
57274SOL    HW279063  10.387   1.216   5.105 -0.0106  2.4617 -0.5965
57275SOL     OW79064   0.793   3.861   0.953  0.2550 -0.1108  0.3629
57275SOL    HW179065   0.712   3.811   0.938 -0.9887  1.7769  0.4872
57275SOL    HW279066   0.820   3.888   0.865 -0.5506  1.1384  0.4634
57276SOL     OW79067   6.863  12.694   6.419  0.5591  0.2120  0.0318
57276SOL    HW179068   6.891  12.657   6.503  0.0582 -1.4368 -0.4835
57276SOL    HW279069   6.795  12.634   6.388 -0.3973  1.6854 -0.8158
57277SOL     OW79070   6.462   6.190  10.925 -0.3133  0.0037 -0.1585
57277SOL    HW179071   6.519   6.123  10.965  1.2147  1.2410 -0.1796
57277SOL    HW279072   6.374   6.167  10.955  0.0387 -2.4762 -0.8044
57278SOL     OW79073   3.524   3.908   0.771  0.1359 -0.2234  0.5149
57278SOL    HW179074   3.509   3.836   0.832  0.8100 -0.1203  0.8141
57278SOL    HW279075   3.441   3.957   0.770  0.9196  1.4165  3.5304
57279SOL     OW79076  11.822   9.321   2.325  0.5647 -0.4364  0.4379
57279SOL    HW179077  11.743   9.271   2.345  0.0133 -0.2787 -1.2422
57279SOL    HW279078  11.881   9.301   2.397 -0.7989 -0.9853  1.4546
57280SOL     OW79079   9.696  10.659   9.443  0.5728 -0.0500 -0.3132
57280SOL    HW179080   9.605  10.654   9.413  1.1284 -2.3646 -1.8707
57280SOL    HW279081   9.719  10.569   9.465  2.4442  0.5268  0.2803
57281SOL     OW79082  10.936  10.539   6.635  0.2698  0.3594  0.0267
57281SOL    HW179083  10.905  10.544   6.544 -0.9899 -3.6589  0.0489
57281SOL    HW279084  11.026  10.571   6.631  0.4447 -0.2274 -2.7893
57282SOL     OW79085   4.885   0.965   0.454 -0.1592 -0.2820 -0.2526
57282SOL    HW179086   4.980   0.974   0.453 -0.2385  0.8299  0.6204
57282SOL    HW279087   4.854   1.031   0.392 -0.4506  1.1235  1.3189
57283SOL     OW79088   0.339   5.391   5.242 -0.5840 -0.3943 -0.3350
57283SOL    HW179089   0.282   5.399   5.165  0.1458 -1.5094 -1.0260
57283SOL    HW279090   0.282   5.406   5.317 -1.0756  2.0769 -1.1020
57284SOL     OW79091   3.244   0.943   8.995 -0.0181  0.1535  0.0940
57284SOL    HW179092   3.264   0.876   8.930  2.3006 -0.6937  1.5482
57284SOL    HW279093   3.188   0.899   9.059  0.9929 -0.2942  0.7155
57285SOL     OW79094   2.321   9.889  10.855  0.0443  0.8018  0.3231
57285SOL    HW179095   2.392   9.825  10.844 -0.9766 -0.4200  0.5547
57285SOL    HW279096   2.348   9.941  10.931  0.3500 -0.1592  0.9009
57286SOL     OW79097   9.874  11.054   2.545 -0.6094  0.1624  0.1700
57286SOL    HW179098   9.922  11.122   2.498 -1.9960  1.2035  0.1766
57286SOL    HW279099   9.919  11.046   2.628  0.6080 -0.1821 -0.4995
57287SOL     OW79100  11.225  10.195   5.048 -0.3806  0.0542  0.3082
57287SOL    HW179101  11.132  10.209   5.067 -0.4676  0.5808 -0.4580
57287SOL    HW279102  11.267  10.279   5.068  0.0440 -0.3620  1.2420
57288SOL     OW79103   0.215   2.766   5.728 -0.4678  0.9631  0.0063
57288SOL    HW179104   0.231   2.680   5.689 -1.4810  1.5524 -1.8030
57288SOL    HW279105   0.161   2.747   5.805 -1.0774  0.0168 -0.6304
57289SOL     OW79106   1.183   6.018   7.221  0.1054  0.3417  0.2770
57289SOL    HW179107   1.092   5.995   7.239  0.1013  1.7058  2.2925
57289SOL    HW279108   1.191   6.008   7.126 -1.0721 -3.3382  0.4110
57290SOL     OW79109   6.787   7.522  12.283 -0.3564 -0.2102  0.2230
57290SOL    HW179110   6.732   7.574  12.343  1.0528  1.5915  0.0239
57290SOL    HW279111   6.768   7.558  12.196  1.4246  0.7509  0.2000
57291SOL     OW79112   8.266   8.865   0.218  0.3492  0.2154  0.5007
57291SOL    HW179113   8.212   8.827   0.288 -1.4936  2.2830  0.3301
57291SOL    HW279114   8.217   8.847   0.138  1.2288 -0.0678  0.0189
57292SOL     OW79115   5.543  12.672   9.498 -0.2256 -0.3138  0.5095
57292SOL    HW179116   5.452  12.702   9.488 -0.0004  0.1310 -0.3591
57292SOL    HW279117   5.595  12.740   9.455  0.3079 -1.8864 -1.5076
57293SOL     OW79118  11.030  11.706   8.902 -0.2598  0.2570 -0.1697
57293SOL    HW179119  11.096  11.639   8.885  0.0045  0.3769  0.3686
57293SOL    HW279120  11.081  11.787   8.915 -0.5041  0.3194  0.3916
57294SOL     OW79121  11.322   3.554   4.017 -0.2563 -0.2052  0.1043
57294SOL    HW179122  11.237   3.561   3.973  0.2717 -0.4667 -1.0190
57294SOL    HW279123  11.376   3.622   3.975  0.7023 -1.4318 -0.7299
57295SOL     OW79124   4.824   8.838  10.178  0.3471 -0.5293  0.1165
57295SOL    HW179125   4.845   8.745  10.163 -2.2572 -1.1040 -0.4872
57295SOL    HW279126   4.769   8.862  10.103 -0.0464  1.1625  0.9075
57296SOL     OW79127   6.282   4.018   6.591  0.2242  0.1805  0.1551
57296SOL    HW179128   6.314   3.991   6.505 -0.2789 -0.7865  0.2502
57296SOL    HW279129   6.187   4.000   6.588  0.3410 -0.7497  1.2006
57297SOL     OW79130   3.360  10.290   2.026 -0.6384  0.4860 -0.3591
57297SOL    HW179131   3.351  10.313   1.933 -0.7653 -2.2451 -1.1058
57297SOL    HW279132   3.271  10.293   2.060 -0.9747 -1.1212 -1.0470
57298SOL     OW79133   4.277   0.527   2.022 -0.3093  0.3755 -0.5244
57298SOL    HW179134   4.196   0.535   2.073 -0.4187 -1.1323 -0.4349
57298SOL    HW279135   4.345   0.564   2.079 -0.7407  0.4973 -0.0824
57299SOL     OW79136   0.823  12.206  10.363 -0.1184 -0.1453 -0.0940
57299SOL    HW179137   0.870  12.162  10.292  0.5160  0.2853  0.0549
57299SOL    HW279138   0.888  12.264  10.403 -1.1167  1.4829 -0.7417
57300SOL     OW79139   7.657  12.506   1.385 -0.3599  0.3954  0.1976
57300SOL    HW179140   7.604  12.427   1.371  0.5422 -0.1510 -0.2129
57300SOL    HW279141   7.603  12.562   1.441 -0.6454 -0.9013  1.2706
57301SOL     OW79142   1.541   0.197   1.982  0.0310 -0.1708 -0.2680
57301SOL    HW179143   1.572   0.189   1.892  0.4769 -0.8073 -0.0676
57301SOL    HW279144   1.556   0.289   2.005  0.6301 -0.1827 -0.5907
57302SOL     OW79145   9.841  11.832  10.282 -0.0127 -0.2488 -0.1583
57302SOL    HW179146   9.788  11.911  10.289  0.5384  0.1297 -0.1596
57302SOL    HW279147   9.826  11.800  10.193  0.1771  0.1608 -0.3412
57303SOL     OW79148   0.166   5.414  11.261  0.1797  0.1775  0.2184
57303SOL    HW179149   0.137   5.371  11.341  0.8833  0.9553  0.9022
57303SOL    HW279150   0.225   5.483  11.290  1.7929 -0.5916 -1.0524
57304SOL     OW79151   1.019   6.889  11.181 -0.7455  0.1005  0.0482
57304SOL    HW179152   0.978   6.805  11.160 -2.0129  0.7641 -0.2337
57304SOL    HW279153   1.112   6.875  11.166 -1.0551 -0.9638 -1.0117
57305SOL     OW79154   8.566   2.800  11.417 -0.1325 -0.4372  0.5709
57305SOL    HW179155   8.649   2.810  11.370 -0.9263  0.4398 -0.6972
57305SOL    HW279156   8.502   2.843  11.361 -1.5253 -1.4633  1.3235
57306SOL     OW79157   6.218   1.066   2.174  0.1260 -0.3062  0.6803
57306SOL    HW179158   6.185   1.132   2.235  0.5928 -0.7168  1.3871
57306SOL    HW279159   6.157   1.070   2.100  0.2554  1.0482  0.6155
57307SOL     OW79160   1.032   4.681   3.128  0.1791 -0.2320  0.3285
57307SOL    HW179161   1.001   4.665   3.218  0.7939 -1.3914  0.3596
57307SOL    HW279162   1.039   4.776   3.122 -0.8551 -0.0746  1.1681
57308SOL     OW79163   1.107   5.660   1.811 -0.6517  0.3930  0.1368
57308SOL    HW179164   1.107   5.684   1.719  1.3605 -2.3933 -0.7183
57308SOL    HW279165   1.016   5.637   1.830 -1.1012  1.0473 -1.1184
57309SOL     OW79166   6.420   0.031   3.341 -0.4776  0.4151 -0.6080
57309SOL    HW179167   6.353  -0.022   3.298  0.0343  0.3340 -1.3262
57309SOL    HW279168   6.489   0.041   3.275 -0.2281  1.3393 -0.2263
57310SOL     OW79169   5.810   8.447   5.461  0.0483  0.3213 -0.2158
57310SOL    HW179170   5.904   8.431   5.459  0.5063  2.6996 -1.1415
57310SOL    HW279171   5.772   8.376   5.409  1.3610 -0.3847 -0.2493
57311SOL     OW79172   9.462   1.589   5.779 -0.3279  0.0591 -0.1262
57311SOL    HW179173   9.538   1.532   5.779 -0.8263 -0.6590 -1.6389
57311SOL    HW279174   9.478   1.651   5.850  0.6921 -1.3385  0.9161
57312SOL     OW79175   5.981   9.356   1.995 -0.0024  0.4043 -0.0030
57312SOL    HW179176   5.937   9.293   1.937 -1.2187 -0.1860  1.5040
57312SOL    HW279177   5.911   9.416   2.021  0.9459  1.8149 -0.6289
57313SOL     OW79178  11.179   9.777  10.336  0.4445 -0.4728  0.6498
57313SOL    HW179179  11.165   9.720  10.261 -0.1822  0.9893 -0.3702
57313SOL    HW279180  11.092   9.788  10.375  0.7262 -1.0382  1.4863
57314SOL     OW79181   5.219   9.313   1.965  0.2116  0.3443 -0.2004
57314SOL    HW179182   5.247   9.226   1.993 -0.4007  0.4133  0.6588
57314SOL    HW279183   5.301   9.361   1.951  0.5962 -0.7578 -2.0310
57315SOL     OW79184   2.208   4.797   4.433  0.2980  0.2621 -0.2565
57315SOL    HW179185   2.201   4.786   4.338  0.6156 -1.2871 -0.1438
57315SOL    HW279186   2.118   4.799   4.464  0.0828 -3.0918 -0.2900
57316SOL     OW79187   1.729   3.866   5.914  0.1709  0.2760  0.5575
57316SOL    HW179188   1.755   3.809   5.841  1.0461  1.6091 -0.2151
57316SOL    HW279189   1.790   3.940   5.910 -0.9552  1.3056  1.4922
57317SOL     OW79190   0.854   9.883   9.163  0.1995  0.5339  0.4281
57317SOL    HW179191   0.932   9.936   9.148  0.3785  0.6961  1.7820
57317SOL    HW279192   0.873   9.835   9.244 -1.1206  0.6234  0.8138
57318SOL     OW79193   6.429   5.955  12.188  0.9588  0.0575  0.4011
57318SOL    HW179194   6.408   5.951  12.282  2.5413 -1.5886  0.7441
57318SOL    HW279195   6.358   5.906  12.146  0.9058 -0.2880  0.8774
57319SOL     OW79196   9.618  11.695   4.113 -0.0138  0.5293  0.0056
57319SOL    HW179197   9.533  11.722   4.148 -2.0215 -3.4223 -1.2175
57319SOL    HW279198   9.615  11.721   4.021 -0.3701 -0.4200 -0.2662
57320SOL     OW79199   4.354   0.437   6.662 -0.5161  0.7172  0.0554
57320SOL    HW179200   4.299   0.483   6.600 -2.7396 -0.1117  1.3131
57320SOL    HW279201   4.357   0.494   6.739  0.3363  0.7071  0.0457
57321SOL     OW79202   2.892   1.992  11.542  0.5215 -0.1625 -0.5713
57321SOL    HW179203   2.937   1.957  11.619 -0.5391 -0.7470 -0.1929
57321SOL    HW279204   2.959   2.041  11.495  1.0696  0.7282  1.0415
57322SOL     OW79205   8.391  11.909   2.935 -0.3990 -0.3789 -0.1188
57322SOL    HW179206   8.447  11.987   2.924  1.7343 -1.8028  0.1264
57322SOL    HW279207   8.338  11.907   2.855 -0.5182  1.3239 -0.1187
57323SOL     OW79208   0.784   3.002  10.472 -0.0336 -0.1259 -0.1741
57323SOL    HW179209   0.728   3.001  10.550  1.2930  0.1548  0.8225
57323SOL    HW279210   0.858   3.058  10.497  0.3299  0.1182 -1.7142
57324SOL     OW79211   8.445   4.386   5.254 -0.5966 -0.3044  0.0490
57324SOL    HW179212   8.425   4.444   5.327 -0.6720 -1.8546  1.3034
57324SOL    HW279213   8.512   4.433   5.204 -1.8321  1.5809  0.0456
57325SOL     OW79214   6.460   5.305   4.848  0.9970  0.1054  0.1587
57325SOL    HW179215   6.410   5.365   4.903 -0.9585 -0.2287 -1.1343
57325SOL    HW279216   6.526   5.360   4.806  0.4431  0.9828  0.4092
57326SOL     OW79217   9.206   9.584   4.851  0.2149  0.1947 -0.4188
57326SOL    HW179218   9.197   9.602   4.944  1.0638 -0.8467 -0.1146
57326SOL    HW279219   9.180   9.665   4.808  0.0478  0.7643  0.7296
57327SOL     OW79220   9.490   7.428   2.746  0.7174  0.0753  0.3154
57327SOL    HW179221   9.467   7.336   2.752 -0.8978  0.4003 -0.4206
57327SOL    HW279222   9.579   7.433   2.781  0.3644 -1.5533  1.5227
57328SOL     OW79223   6.676   6.498  10.462  0.0271  0.3833  0.2736
57328SOL    HW179224   6.625   6.416  10.459  1.4219 -0.6536  2.3654
57328SOL    HW279225   6.638   6.547  10.535 -0.0252  1.0579 -0.2049
57329SOL     OW79226   5.451  12.464   5.185  0.0785 -0.4808  0.2153
57329SOL    HW179227   5.537  12.480   5.224  0.0550 -0.6077  0.3150
57329SOL    HW279228   5.393  12.450   5.259  0.1405 -1.2754  0.1228
57330SOL     OW79229   6.482   3.526   0.452  0.0378  0.1483 -0.6839
57330SOL    HW179230   6.516   3.488   0.370 -0.8432  0.4389 -1.2036
57330SOL    HW279231   6.413   3.466   0.479  0.7254 -0.2613  0.1794
57331SOL     OW79232   2.603   1.590  12.296  0.3760  0.5372  0.1726
57331SOL    HW179233   2.664   1.561  12.364 -0.0485  0.1435  0.3866
57331SOL    HW279234   2.620   1.531  12.222  1.1618  1.2578 -0.2418
57332SOL     OW79235  11.148   1.812   1.593  0.6364  0.3064 -0.3680
57332SOL    HW179236  11.189   1.836   1.510 -0.0297  0.7855 -0.5700
57332SOL    HW279237  11.123   1.895   1.632 -0.0041  0.0333 -0.1886
57333SOL     OW79238   0.529   2.756   5.689 -0.3661  0.6460 -0.2328
57333SOL    HW179239   0.445   2.714   5.671 -1.3258  2.3944 -0.0666
57333SOL    HW279240   0.534   2.760   5.784  0.5434 -0.6299 -0.2120
57334SOL     OW79241  11.130   6.420   6.867  0.1189 -0.2838 -0.3945
57334SOL    HW179242  11.065   6.487   6.888  0.7335  0.3551 -0.4989
57334SOL    HW279243  11.119   6.355   6.937 -0.0291  0.2566  0.1009
57335SOL     OW79244   7.958   6.636   9.275  0.1873 -0.4480  0.9572
57335SOL    HW179245   7.915   6.705   9.224  0.2008  0.0997  1.6620
57335SOL    HW279246   7.946   6.663   9.366  1.6261 -0.5250  1.1868
57336SOL     OW79247   1.983   6.686  11.812  0.6986 -0.5234  0.1238
57336SOL    HW179248   2.002   6.648  11.898 -1.6091  1.4660  1.6324
57336SOL    HW279249   1.891   6.711  11.817  1.1763  2.0050 -1.9887
57337SOL     OW79250   5.572   7.018   7.543 -0.0359 -0.2290  0.0076
57337SOL    HW179251   5.661   6.990   7.522 -0.5898 -2.9960  0.9423
57337SOL    HW279252   5.566   7.107   7.507  2.9634 -0.0569 -0.3605
57338SOL     OW79253   3.084  10.949   3.921  0.3364 -0.3191 -0.1321
57338SOL    HW179254   3.122  11.034   3.942 -1.7887  0.4830  0.7332
57338SOL    HW279255   3.102  10.936   3.828  0.6307  1.1295 -0.2878
57339SOL     OW79256   8.006  10.441  10.111 -0.1526  0.4626 -0.3247
57339SOL    HW179257   8.030  10.529  10.081 -0.9394  0.3412 -1.3763
57339SOL    HW279258   7.915  10.450  10.140  0.1304  0.2386  0.6693
57340SOL     OW79259   1.709   2.943   5.814  0.0092 -0.2958  0.2130
57340SOL    HW179260   1.684   2.995   5.737  1.6047 -0.6938 -0.6295
57340SOL    HW279261   1.756   3.005   5.870  0.3473 -0.4003  0.0486
57341SOL     OW79262  11.661  12.682   3.193 -0.4349 -0.4370  0.3048
57341SOL    HW179263  11.656  12.597   3.150 -1.6227 -1.0137  1.5265
57341SOL    HW279264  11.576  12.723   3.177  0.7362  1.3964 -1.8897
57342SOL     OW79265  12.392   3.509   6.254  0.3100  0.1298 -0.3574
57342SOL    HW179266  12.358   3.594   6.280  1.6588  0.3056  0.9728
57342SOL    HW279267  12.358   3.496   6.165 -2.5117  0.5823  0.5619
57343SOL     OW79268  11.555  11.862  10.736 -0.5988  0.1725  0.7666
57343SOL    HW179269  11.631  11.822  10.777 -0.9351 -0.7872  0.4780
57343SOL    HW279270  11.481  11.809  10.766 -1.1314  0.9776  0.9006
57344SOL     OW79271   4.318   6.521   0.894  0.0284  0.1019 -0.1491
57344SOL    HW179272   4.289   6.580   0.825  2.0962 -0.7136 -1.8195
57344SOL    HW279273   4.250   6.454   0.900 -0.4447  0.4985 -0.9772
57345SOL     OW79274   7.702   1.984   8.789 -0.3323  0.4744 -0.3815
57345SOL    HW179275   7.637   2.022   8.849  0.4143  2.2660 -0.6396
57345SOL    HW279276   7.715   1.895   8.822 -1.9250  0.5024  0.4684
57346SOL     OW79277   0.370   4.424   0.750 -0.0082 -0.2626 -0.0467
57346SOL    HW179278   0.298   4.476   0.713 -0.0293 -0.8909 -0.9342
57346SOL    HW279279   0.419   4.486   0.804 -1.0463  0.2423  0.3392
57347SOL     OW79280   5.797   9.206   9.991  0.0810 -0.0560  0.3704
57347SOL    HW179281   5.743   9.128   9.981  0.9211 -0.6162  0.0713
57347SOL    HW279282   5.863   9.182  10.056 -0.5051  0.8927  1.3583
57348SOL     OW79283   5.716  12.525  10.052 -0.7344  0.5150 -0.2910
57348SOL    HW179284   5.697  12.592   9.986 -2.5411 -0.8378 -1.2492
57348SOL    HW279285   5.730  12.445  10.000 -0.1235 -0.1590  0.8848
57349SOL     OW79286  11.139   0.098   3.386  0.2832 -0.0999  0.3716
57349SOL    HW179287  11.079   0.089   3.312 -1.0596 -2.8141  1.6415
57349SOL    HW279288  11.138   0.192   3.406 -2.4897  0.1822 -0.5488
57350SOL     OW79289   8.221   5.737   6.792 -1.0709 -0.6941 -0.5346
57350SOL    HW179290   8.231   5.732   6.697 -0.8945  0.1379 -0.5644
57350SOL    HW279291   8.153   5.803   6.806 -1.0310 -0.7459 -0.0815
57351SOL     OW79292   1.663   3.001  12.041  0.7880 -0.3243  0.0432
57351SOL    HW179293   1.602   3.075  12.042 -0.4561 -1.2992  1.2676
57351SOL    HW279294   1.750   3.041  12.038  0.1288  1.1250 -1.1313
57352SOL     OW79295   2.526   1.959   6.939  0.0343 -0.1220 -0.7377
57352SOL    HW179296   2.440   1.977   6.977 -0.8401 -0.5466 -2.4220
57352SOL    HW279297   2.579   2.034   6.966 -0.6406 -0.1806  0.9018
57353SOL     OW79298   3.008   6.990   0.771 -0.0544 -0.0180  0.6634
57353SOL    HW179299   3.006   6.957   0.681  2.9358  0.8844  0.1613
57353SOL    HW279300   3.057   6.925   0.820 -2.8353 -1.2074  2.0939
57354SOL     OW79301   4.766  11.624   7.763  0.4125  0.3256 -0.2016
57354SOL    HW179302   4.826  11.567   7.810  0.5047  1.0055  0.5210
57354SOL    HW279303   4.688  11.629   7.818 -0.0244  0.0381 -0.7801
57355SOL     OW79304   8.487  11.073   7.951  0.3538 -0.3156  0.3019
57355SOL    HW179305   8.525  11.125   7.880  0.6076  0.5534  1.0594
57355SOL    HW279306   8.563  11.041   8.000  0.2116 -1.5884 -0.2580
57356SOL     OW79307   2.652   2.752   7.533 -0.8889  0.6353  0.0966
57356SOL    HW179308   2.727   2.778   7.586 -1.1884  0.9458  0.3720
57356SOL    HW279309   2.681   2.672   7.489  0.0151  1.3694 -0.6846
57357SOL     OW79310  12.389   7.795  10.123 -0.1781 -0.0248  0.1033
57357SOL    HW179311  12.345   7.783  10.208 -1.9452 -0.3859 -0.8187
57357SOL    HW279312  12.346   7.871  10.084  1.1762  0.6345 -0.1512
57358SOL     OW79313   0.034   0.694   3.716 -0.1019  0.5231  0.5297
57358SOL    HW179314  -0.037   0.673   3.655  0.6644  0.9305 -0.5378
57358SOL    HW279315   0.067   0.610   3.745 -1.6004  0.3190  1.7627
57359SOL     OW79316   1.175  11.858   3.550 -0.4710  0.8581  0.3248
57359SOL    HW179317   1.168  11.790   3.484 -2.4889  1.1218  0.1909
57359SOL    HW279318   1.217  11.816   3.625 -1.1519 -0.3767  0.0305
57360SOL     OW79319   4.522   5.153   1.225  0.1944 -0.5986 -0.0977
57360SOL    HW179320   4.562   5.240   1.238 -0.0392 -0.2094 -1.7798
57360SOL    HW279321   4.543   5.106   1.305 -1.8660  1.8092  2.0216
57361SOL     OW79322   7.026   5.553  11.249 -0.2440  0.4342  0.0702
57361SOL    HW179323   6.975   5.632  11.266 -3.2651 -0.8694 -1.9949
57361SOL    HW279324   6.991   5.487  11.309  0.2528 -0.0207 -0.1298
57362SOL     OW79325   4.575   9.594   1.269  0.1206  0.6206 -0.6897
57362SOL    HW179326   4.660   9.594   1.224  0.7282  0.4382  0.4325
57362SOL    HW279327   4.572   9.678   1.314 -0.1136  0.4563 -0.3978
57363SOL     OW79328   9.407   5.760  10.867  0.3569  0.3248  0.5063
57363SOL    HW179329   9.371   5.715  10.943  1.3940  1.4585  1.7321
57363SOL    HW279330   9.342   5.827  10.846 -0.4583 -0.7057 -0.3417
57364SOL     OW79331   6.822  11.974   8.615 -0.1887  0.3053  0.4752
57364SOL    HW179332   6.854  12.052   8.569 -0.5622  0.7260  0.9071
57364SOL    HW279333   6.816  12.002   8.707 -3.8744  0.9780  0.1634
57365SOL     OW79334   7.921  11.080   0.282  1.0848 -0.0285  0.1628
57365SOL    HW179335   7.870  11.102   0.204 -1.8304 -2.0935  1.3074
57365SOL    HW279336   7.932  11.164   0.328 -0.1132  0.6939 -0.8232
57366SOL     OW79337   4.773   4.952   6.129  0.6574  0.0468  0.0047
57366SOL    HW179338   4.833   4.990   6.065 -0.1267 -0.5334 -1.1050
57366SOL    HW279339   4.786   5.004   6.209  1.0755  1.3088 -0.8610
57367SOL     OW79340   4.161   3.757   1.416 -0.7646 -0.4971  0.1115
57367SOL    HW179341   4.136   3.793   1.501 -0.2013 -2.6756  1.2768
57367SOL    HW279342   4.128   3.666   1.418 -1.2180 -0.4519 -2.2360
57368SOL     OW79343   1.956  11.513   5.982 -0.0834 -0.0736 -0.5859
57368SOL    HW179344   1.960  11.604   6.010 -0.2463 -0.0170 -0.7480
57368SOL    HW279345   2.022  11.507   5.912  1.1617 -0.4910  0.5908
57369SOL     OW79346   2.077   0.225   2.795  0.8281 -0.2056  0.3976
57369SOL    HW179347   2.126   0.198   2.717 -0.0287 -1.6427  0.3080
57369SOL    HW279348   1.997   0.172   2.793 -0.1917  1.2206  1.1666
57370SOL     OW79349  10.624   5.177   7.097 -0.0294  0.3567  0.0373
57370SOL    HW179350  10.551   5.237   7.115 -0.4531 -0.7499  2.4342
57370SOL    HW279351  10.599   5.133   7.016 -1.0935  1.3582 -0.2134
57371SOL     OW79352   7.702   2.746  12.405 -0.0177 -0.0105  0.0522
57371SOL    HW179353   7.790   2.738  12.443 -0.9197 -0.2887  2.2008
57371SOL    HW279354   7.672   2.833  12.433 -0.2009  0.3753 -1.2656
57372SOL     OW79355   6.756   3.061   9.128  0.3301  0.0265  0.0449
57372SOL    HW179356   6.726   3.008   9.054 -0.8033  0.4137  0.2131
57372SOL    HW279357   6.786   2.998   9.192  1.2413 -0.3197 -0.6951
57373SOL     OW79358   4.490   3.559   3.768  0.0353  0.5372  0.0264
57373SOL    HW179359   4.581   3.581   3.787 -0.2384 -0.1212  2.5120
57373SOL    HW279360   4.441   3.601   3.839 -1.4716 -0.0601 -0.6297
57374SOL     OW79361   4.188  11.079   9.621 -0.4152 -0.0658  0.3612
57374SOL    HW179362   4.220  11.044   9.538  0.4345 -0.7154  0.9483
57374SOL    HW279363   4.161  11.002   9.671  0.0448  0.2287  1.0806
57375SOL     OW79364   7.218   9.805  10.753 -0.4337 -0.0658 -0.0481
57375SOL    HW179365   7.238   9.799  10.660  0.6631 -1.0518  0.2179
57375SOL    HW279366   7.303   9.797  10.796 -0.6254  2.5979  1.0166
57376SOL     OW79367   3.895   0.992   2.713  0.6577 -0.3124  0.7473
57376SOL    HW179368   3.903   0.949   2.798  0.1952  0.6482  1.2855
57376SOL    HW279369   3.821   0.948   2.671  0.1175  0.0194  1.3369
57377SOL     OW79370   6.595  12.516   9.718 -0.0002  0.4572 -0.4358
57377SOL    HW179371   6.540  12.579   9.766 -0.4249 -0.3997  0.2505
57377SOL    HW279372   6.682  12.529   9.754 -0.4908 -0.8645  1.3721
57378SOL     OW79373   2.785   0.133   6.449 -0.6874 -0.7570 -0.2098
57378SOL    HW179374   2.748   0.059   6.497 -1.2095 -0.8643 -0.7664
57378SOL    HW279375   2.837   0.181   6.514  0.0680 -1.8898  0.0551
57379SOL     OW79376   7.743  11.456   1.678 -0.5401  0.1154 -0.7607
57379SOL    HW179377   7.651  11.462   1.706 -0.7519  0.7353 -1.5565
57379SOL    HW279378   7.742  11.396   1.604 -0.3321  0.2961 -0.9091
57380SOL     OW79379  10.796   1.867   6.231 -0.3349 -0.0637 -0.3225
57380SOL    HW179380  10.777   1.858   6.324  0.1039 -1.7209 -0.3644
57380SOL    HW279381  10.714   1.894   6.192 -0.5123  0.7130  0.5359
57381SOL     OW79382  10.345   1.851   6.209 -0.1736 -0.6459 -0.8438
57381SOL    HW179383  10.365   1.789   6.279 -0.0405  0.6545  0.3266
57381SOL    HW279384  10.294   1.801   6.146 -1.0520 -1.6592  0.6042
57382SOL     OW79385   8.205   5.067  11.768  0.7522  0.5259 -0.2509
57382SOL    HW179386   8.212   5.038  11.677  0.3345 -0.5563  0.0420
57382SOL    HW279387   8.169   4.991  11.815  0.5498  1.2085  0.7412
57383SOL     OW79388   5.083   7.154   1.146  0.0576 -0.4640  0.6088
57383SOL    HW179389   5.081   7.214   1.220  2.8860 -2.0418  2.1529
57383SOL    HW279390   4.999   7.108   1.150 -0.9555  1.3285  1.1229
57384SOL     OW79391   9.003   5.164   2.323 -0.4383 -0.2725  0.1541
57384SOL    HW179392   9.001   5.106   2.247  1.9607  0.6543 -0.6969
57384SOL    HW279393   8.973   5.109   2.396 -0.3612 -1.9205 -1.0159
57385SOL     OW79394   9.770   2.266  10.281  0.2528  0.3614  0.3665
57385SOL    HW179395   9.832   2.323  10.236  0.7032  0.2900  0.8824
57385SOL    HW279396   9.803   2.261  10.371  0.2392 -0.7406  0.3194
57386SOL     OW79397  10.710   3.668   8.156 -0.6356  0.0539  0.5450
57386SOL    HW179398  10.743   3.603   8.094 -0.4936  0.7215 -0.0972
57386SOL    HW279399  10.776   3.670   8.225  0.5872  1.1841 -0.5980
57387SOL     OW79400  11.803   5.587   7.925  0.0734  0.1628 -0.3170
57387SOL    HW179401  11.836   5.606   7.837 -2.6513 -1.3594 -1.7658
57387SOL    HW279402  11.717   5.629   7.928 -0.7962 -1.6138  0.8352
57388SOL     OW79403   3.625  10.718   3.270  0.3928  0.1016  0.3592
57388SOL    HW179404   3.614  10.770   3.350  0.7955  0.4409  0.2000
57388SOL    HW279405   3.711  10.677   3.281 -0.9143 -2.5578  1.6245
57389SOL     OW79406   8.011   9.063  10.262  0.1765  0.0627 -0.5354
57389SOL    HW179407   8.101   9.061  10.294  0.0308  0.0618 -0.1237
57389SOL    HW279408   8.018   9.105  10.176  0.1860  2.9737  0.7796
57390SOL     OW79409   8.804   1.552   5.740 -0.0428  0.5307  0.2359
57390SOL    HW179410   8.739   1.516   5.801  0.2411  0.0891  0.2802
57390SOL    HW279411   8.765   1.634   5.710 -1.7157 -0.8218 -1.5593
57391SOL     OW79412   0.042   5.175  12.576  0.3955 -0.2678  0.4893
57391SOL    HW179413   0.041   5.083  12.605  0.2693 -1.0589 -1.8456
57391SOL    HW279414   0.126   5.185  12.531 -0.2838  0.2480 -0.7094
57392SOL     OW79415   3.223   6.324   2.024  0.1731  0.0460 -0.5887
57392SOL    HW179416   3.132   6.344   2.049  0.3618  1.0753 -0.6612
57392SOL    HW279417   3.216   6.283   1.938 -0.2405 -0.0969 -0.4891
57393SOL     OW79418  11.028   2.841   9.594  0.3150  0.4940  0.3561
57393SOL    HW179419  11.026   2.753   9.557  0.6014  1.1281 -1.2545
57393SOL    HW279420  10.943   2.879   9.571 -0.1636  0.3773  1.8057
57394SOL     OW79421   6.524   7.024   7.386  0.0409  0.0529 -0.8207
57394SOL    HW179422   6.580   7.006   7.462  0.9929  1.2106 -1.2231
57394SOL    HW279423   6.581   7.071   7.325 -1.3787  1.3432 -1.2036
57395SOL     OW79424   9.590   0.300   6.134  0.0119 -0.5926 -0.2464
57395SOL    HW179425   9.540   0.378   6.160 -0.2577 -0.2683 -1.6606
57395SOL    HW279426   9.681   0.322   6.155  0.0562  0.4928 -1.4520
57396SOL     OW79427   7.910   3.654   8.802 -0.4200  0.6048  0.6122
57396SOL    HW179428   7.825   3.646   8.846 -1.0754 -0.0635 -0.7341
57396SOL    HW279429   7.973   3.626   8.868 -1.4821 -1.6558  0.7545
57397SOL     OW79430  11.899   9.705   6.957 -0.4963 -0.0480 -0.1111
57397SOL    HW179431  11.870   9.706   6.866 -1.0747  0.9319  0.0657
57397SOL    HW279432  11.922   9.796   6.976 -0.4397 -0.2314  0.7427
57398SOL     OW79433  11.002   2.232   0.633 -0.2328  0.1404 -0.1519
57398SOL    HW179434  11.081   2.238   0.687 -0.1224 -0.4018 -0.2402
57398SOL    HW279435  10.986   2.321   0.603  0.2418  0.2856  0.0186
57399SOL     OW79436  12.221   3.686   5.022  0.1031  0.3228 -0.1614
57399SOL    HW179437  12.153   3.655   4.962 -0.1169 -0.8600  0.6687
57399SOL    HW279438  12.176   3.699   5.105  0.7477  0.2162  0.2112
57400SOL     OW79439  10.636  11.446   6.818  0.1803 -0.9530 -0.2018
57400SOL    HW179440  10.617  11.445   6.912  0.9370  0.8893  0.0248
57400SOL    HW279441  10.732  11.444   6.813  0.3047  1.6359 -0.7325
57401SOL     OW79442   6.994  12.682   3.334 -0.0754 -0.6949  0.3936
57401SOL    HW179443   7.010  12.678   3.240 -0.1604 -0.2349  0.3527
57401SOL    HW279444   6.915  12.630   3.347 -0.4919 -0.1517  0.0951
57402SOL     OW79445   1.920  11.194   8.806  0.4321  0.5318  0.3230
57402SOL    HW179446   1.858  11.266   8.811 -1.0087 -0.7359  2.6388
57402SOL    HW279447   1.956  11.187   8.895  2.2611 -0.1804 -0.4182
57403SOL     OW79448   3.052   0.075  10.066  0.1893  0.4908  0.2060
57403SOL    HW179449   3.066   0.016  10.140 -1.7328  0.7660  0.8290
57403SOL    HW279450   3.070   0.162  10.102  0.7519  0.5075 -0.0943
57404SOL     OW79451   2.685   7.196   1.529 -0.4318  0.1105 -0.0497
57404SOL    HW179452   2.612   7.256   1.541 -1.3864 -0.8145 -0.9699
57404SOL    HW279453   2.665   7.150   1.447 -0.5374 -2.5367  1.3609
57405SOL     OW79454   1.512   3.913  10.538 -0.2538  0.0809  0.0337
57405SOL    HW179455   1.458   3.866  10.474 -1.1006  1.2869 -0.1644
57405SOL    HW279456   1.490   3.872  10.622  0.1811 -0.8922 -0.3020
57406SOL     OW79457   0.951   8.988   5.972  0.1510  0.2806  0.0313
57406SOL    HW179458   0.869   9.027   6.004 -1.2303 -2.7816  0.5579
57406SOL    HW279459   1.013   9.002   6.043 -0.1071  1.9020 -0.0191
57407SOL     OW79460  11.377   5.568   6.841 -0.2404  0.4555 -0.5166
57407SOL    HW179461  11.319   5.565   6.764 -0.2524  1.7268 -0.5792
57407SOL    HW279462  11.447   5.628   6.816 -0.9914  2.0233  0.9404
57408SOL     OW79463   2.782  11.317   5.627  0.2610 -0.0089  0.1040
57408SOL    HW179464   2.791  11.369   5.547  0.4389 -1.3409 -0.7841
57408SOL    HW279465   2.866  11.271   5.635 -0.1897 -0.7983  0.3829
57409SOL     OW79466   5.224   9.372   8.164 -0.2767  0.6787  0.2650
57409SOL    HW179467   5.226   9.283   8.199  0.9748  0.5519 -0.0898
57409SOL    HW279468   5.191   9.362   8.074  0.4768  0.4852  0.0043
57410SOL     OW79469  11.615   4.442   6.821  0.4888 -0.6830 -0.2609
57410SOL    HW179470  11.564   4.523   6.823 -0.6533 -1.3526 -0.8697
57410SOL    HW279471  11.689   4.458   6.880  0.2047  0.7374 -0.2575
57411SOL     OW79472   9.849   6.412   9.019 -0.1019  0.0763  0.0528
57411SOL    HW179473   9.843   6.490   8.965  0.8644 -0.2075 -0.4957
57411SOL    HW279474   9.942   6.405   9.042 -0.5889  0.6706  2.4977
57412SOL     OW79475  11.706   9.626   3.968  0.1796  0.3441 -0.3668
57412SOL    HW179476  11.701   9.665   4.055 -0.3089  0.9112 -0.6437
57412SOL    HW279477  11.615   9.602   3.947  0.5085 -1.2789 -0.0554
57413SOL     OW79478   1.474   0.747   7.961  0.5098 -0.5037 -0.0260
57413SOL    HW179479   1.419   0.760   8.039  1.5791  1.7618  0.4514
57413SOL    HW279480   1.413   0.722   7.892 -1.0793  1.3473  0.6258
57414SOL     OW79481   9.391   7.528  11.023  0.1331  0.0231 -0.0867
57414SOL    HW179482   9.334   7.481  11.083  1.4105 -1.1331  0.2821
57414SOL    HW279483   9.463   7.467  11.006  0.3975  0.7755 -1.8750
57415SOL     OW79484  12.588   7.216  11.982 -0.3743  0.1261 -0.3475
57415SOL    HW179485  12.633   7.299  11.992  1.2224 -0.9429  2.2704
57415SOL    HW279486  12.658   7.151  11.976 -1.4320 -1.4530  2.3809
57416SOL     OW79487   2.167   3.428   5.068  0.2558  0.3569 -0.6173
57416SOL    HW179488   2.115   3.445   5.146  1.5380  2.1128 -0.0796
57416SOL    HW279489   2.195   3.515   5.038  1.2041 -0.3939 -2.0365
57417SOL     OW79490   6.818   6.801   9.950  0.2538 -0.6374  0.5542
57417SOL    HW179491   6.874   6.799   9.872  1.2148  1.3213  1.1267
57417SOL    HW279492   6.793   6.710   9.964  1.0114 -1.1927 -1.3569
57418SOL     OW79493   4.174   1.809   4.137  0.3381 -0.2990 -0.0054
57418SOL    HW179494   4.210   1.751   4.070  0.4377  0.1599 -0.3590
57418SOL    HW279495   4.232   1.798   4.212 -1.3770 -2.9750  1.0731
57419SOL     OW79496  11.019   3.567   6.066 -0.1824 -0.1304  0.2691
57419SOL    HW179497  11.110   3.583   6.092  0.0953 -0.0335 -0.7238
57419SOL    HW279498  10.987   3.503   6.130  0.5235 -0.0146  0.7462
57420SOL     OW79499  11.434   6.555  10.520  0.7778  0.2981  0.1512
57420SOL    HW179500  11.396   6.641  10.540  1.5073  0.7559 -0.3865
57420SOL    HW279501  11.519   6.575  10.482  0.3928 -0.6240 -1.2642
57421SOL     OW79502   7.808   0.330  12.507 -0.1799  0.1953  1.1115
57421SOL    HW179503   7.841   0.312  12.594  0.4340 -0.9331  0.6626
57421SOL    HW279504   7.714   0.345  12.519  0.0307  0.8217  2.0468
57422SOL     OW79505   3.448   2.402   5.966  0.1070 -0.0146 -0.0168
57422SOL    HW179506   3.381   2.335   5.956 -1.9418  1.6565  1.5040
57422SOL    HW279507   3.399   2.484   5.967  2.3388  1.3853 -0.0563
57423SOL     OW79508   8.412  11.209   8.915  0.2632 -0.4426  0.0679
57423SOL    HW179509   8.403  11.291   8.867  0.3271  0.3280  1.3148
57423SOL    HW279510   8.502  11.210   8.948  0.7615 -1.7533 -1.1713
57424SOL     OW79511   2.270   3.285   3.002  0.2198 -0.3677 -0.0187
57424SOL    HW179512   2.222   3.325   2.929 -0.6592  0.2925  0.9008
57424SOL    HW279513   2.362   3.302   2.982 -0.0772  1.4096 -0.0960
57425SOL     OW79514   9.467  10.047   6.219  0.0333 -0.3402  0.0420
57425SOL    HW179515   9.504  10.008   6.299 -0.7650 -0.9559  0.1230
57425SOL    HW279516   9.415  10.121   6.251 -1.5457 -1.4914  0.2816
57426SOL     OW79517   7.138   1.353   4.947  0.3160  0.8304  0.2988
57426SOL    HW179518   7.125   1.364   4.853  0.1425  0.3146  0.2592
57426SOL    HW279519   7.139   1.258   4.960 -0.1360  0.8990  0.8777
57427SOL     OW79520   9.489   2.834   7.675 -0.4651 -0.2751  0.4935
57427SOL    HW179521   9.479   2.752   7.723 -0.2972 -0.0353  0.9397
57427SOL    HW279522   9.460   2.901   7.736 -0.2670  0.0294  0.2530
57428SOL     OW79523   3.586   5.525  11.604 -0.2858 -0.2889  0.2113
57428SOL    HW179524   3.556   5.466  11.673 -0.5974 -0.1668  0.1824
57428SOL    HW279525   3.681   5.530  11.616 -0.5764  1.9999  2.5162
57429SOL     OW79526   2.401   3.027  10.691  1.0269  0.5197  0.4514
57429SOL    HW179527   2.399   3.025  10.787 -2.6513  0.0146  0.5093
57429SOL    HW279528   2.370   2.941  10.664 -1.3982  1.7300 -1.0177
57430SOL     OW79529  10.489   8.097   9.894 -0.1058 -0.3340 -0.1523
57430SOL    HW179530  10.525   8.101   9.806  0.2237  2.3402  0.0287
57430SOL    HW279531  10.462   8.186   9.914 -1.7858 -1.1905  1.8281
57431SOL     OW79532   7.784   5.508   8.542 -0.3418  0.6913 -0.1839
57431SOL    HW179533   7.803   5.593   8.503 -1.4364  0.3174 -1.6206
57431SOL    HW279534   7.693   5.490   8.518  0.2467 -1.4461 -1.0270
57432SOL     OW79535   2.428   9.421   3.628  0.0503  0.2526  0.1100
57432SOL    HW179536   2.397   9.511   3.636  0.5237  0.5732 -1.4167
57432SOL    HW279537   2.370   9.371   3.686 -1.2651  1.2955 -0.2434
57433SOL     OW79538   4.620   7.112   7.399  0.0825 -0.0563 -0.1142
57433SOL    HW179539   4.617   7.151   7.486 -0.8884  0.9516 -0.5771
57433SOL    HW279540   4.532   7.125   7.363  0.9241  1.1746 -1.9134
57434SOL     OW79541   4.689   5.672   8.200 -0.0575 -0.8726 -0.1022
57434SOL    HW179542   4.601   5.635   8.209 -1.0755  1.4073 -0.2108
57434SOL    HW279543   4.717   5.691   8.290 -0.9321  1.0991 -0.2030
57435SOL     OW79544   3.388  11.060   2.440 -0.1283 -0.1416 -0.3510
57435SOL    HW179545   3.332  11.004   2.387 -0.8815 -0.9300  1.1986
57435SOL    HW279546   3.466  11.007   2.458 -0.9984 -0.9227  1.4191
57436SOL     OW79547  12.156   0.740   6.847 -0.1814 -0.1913  0.0268
57436SOL    HW179548  12.127   0.724   6.936  2.2372 -3.3288  0.4750
57436SOL    HW279549  12.232   0.798   6.856  1.4557 -2.2592  0.4043
57437SOL     OW79550   7.619  12.430  12.231  0.1554 -0.2613  0.1572
57437SOL    HW179551   7.614  12.495  12.161 -0.1536 -0.2474  0.1919
57437SOL    HW279552   7.658  12.476  12.305  0.6160 -0.3139 -0.0479
57438SOL     OW79553   5.771   6.685   5.497  0.1191  0.1736  0.6656
57438SOL    HW179554   5.865   6.675   5.480 -0.0008 -1.0002  0.6220
57438SOL    HW279555   5.736   6.723   5.416  0.4094 -0.2657  0.3281
57439SOL     OW79556   5.136  10.330   3.495  0.4343  0.5138  0.3745
57439SOL    HW179557   5.200  10.358   3.561  1.4895  1.5583 -1.0310
57439SOL    HW279558   5.175  10.356   3.412 -1.6619  0.8255 -0.5629
57440SOL     OW79559  11.479   9.500   2.061  0.1999  0.2796  0.3324
57440SOL    HW179560  11.392   9.535   2.046 -0.3129 -0.9531  0.2628
57440SOL    HW279561  11.475   9.410   2.027  0.6953 -0.6926  2.6793
57441SOL     OW79562   9.763   6.329  10.672 -1.0279 -0.3394  0.3296
57441SOL    HW179563   9.684   6.352  10.722  0.7677  1.0622  2.7668
57441SOL    HW279564   9.808   6.265  10.727  0.1823 -0.0698 -0.3161
57442SOL     OW79565  11.476   2.613   9.025 -0.0934 -0.3128 -0.0111
57442SOL    HW179566  11.398   2.559   9.036  0.0261 -0.6006 -0.5330
57442SOL    HW279567  11.445   2.702   9.037 -0.6689 -0.3646 -0.9501
57443SOL     OW79568   0.374   9.571   8.456  0.2156  0.2026 -0.0379
57443SOL    HW179569   0.365   9.571   8.552  2.5902  0.8559  0.2555
57443SOL    HW279570   0.329   9.650   8.428 -0.5719 -0.0348  0.5232
57444SOL     OW79571   9.874  12.547   1.602  0.4985  0.4384 -0.5854
57444SOL    HW179572   9.929  12.572   1.528  0.5270  2.4919  0.0575
57444SOL    HW279573   9.785  12.567   1.575 -0.0584 -2.7502 -1.5685
57445SOL     OW79574   9.354  11.266  12.227 -0.4311 -0.1042  0.3000
57445SOL    HW179575   9.350  11.234  12.317 -0.9587 -0.4582  0.1546
57445SOL    HW279576   9.421  11.335  12.229 -1.6456  1.0931  1.3383
57446SOL     OW79577  11.496   5.965   3.726  0.3603  0.5303 -0.1349
57446SOL    HW179578  11.532   6.044   3.766 -0.9864  0.7013  0.8190
57446SOL    HW279579  11.511   5.896   3.790 -0.2170  0.4309 -0.0970
57447SOL     OW79580  12.411   8.098  12.675  0.3615  0.4247 -1.1326
57447SOL    HW179581  12.454   8.184  12.673  0.1047  0.5455 -1.6046
57447SOL    HW279582  12.414   8.072  12.767 -0.5195  1.4249 -0.8023
57448SOL     OW79583   3.721   1.945   4.130 -0.2524 -0.2536  0.0464
57448SOL    HW179584   3.630   1.922   4.148 -0.2344 -0.1893  0.2208
57448SOL    HW279585   3.727   2.038   4.150 -0.5535  0.1352 -1.5681
57449SOL     OW79586   1.442   1.768   1.509  0.6824  0.0967 -0.2572
57449SOL    HW179587   1.483   1.740   1.427  0.5947 -0.4396 -0.1271
57449SOL    HW279588   1.462   1.861   1.516  0.1055  0.3012 -1.2222
57450SOL     OW79589   6.071  11.249   3.346 -0.0963  0.3569  0.2149
57450SOL    HW179590   6.155  11.250   3.394 -0.1542  3.2945  0.4247
57450SOL    HW279591   6.049  11.341   3.334 -1.9202 -0.2976 -2.3612
57451SOL     OW79592   4.449   2.278   0.310 -1.0229  0.1669  0.1315
57451SOL    HW179593   4.449   2.240   0.222 -0.0947 -0.1337  0.2472
57451SOL    HW279594   4.473   2.205   0.368 -0.0231  0.7305  0.4484
57452SOL     OW79595   3.439   0.026  10.779  0.6562  0.7923 -0.2491
57452SOL    HW179596   3.379  -0.037  10.819  0.6412  0.5407 -0.6565
57452SOL    HW279597   3.440   0.100  10.839  1.4551 -0.0088  0.7387
57453SOL     OW79598   1.537   0.556   1.002  0.2379 -0.2741  0.0078
57453SOL    HW179599   1.602   0.522   1.063 -0.1644  0.1370  0.6811
57453SOL    HW279600   1.553   0.650   1.000 -0.6538 -0.0975  0.5757
57454SOL     OW79601   5.439   1.100   0.983  0.3118 -0.0928  0.2230
57454SOL    HW179602   5.509   1.089   0.919  0.0130  1.0798 -0.3419
57454SOL    HW279603   5.380   1.026   0.967  1.2777 -0.9485  0.5411
57455SOL     OW79604  12.238   1.488   0.761 -0.2133  0.1137  0.1219
57455SOL    HW179605  12.220   1.457   0.672 -0.3666  0.4967  0.0209
57455SOL    HW279606  12.289   1.568   0.749 -1.1429  0.7595  0.3552
57456SOL     OW79607   5.839  11.758   6.718 -0.0928  0.5463  0.2472
57456SOL    HW179608   5.877  11.822   6.658 -0.0540  0.8471  0.5896
57456SOL    HW279609   5.911  11.699   6.740  0.5004  1.8031  1.8176
57457SOL     OW79610   2.906   5.935   4.435  0.1362 -0.3136  0.1144
57457SOL    HW179611   2.864   5.912   4.518  1.3631 -1.9101  0.3377
57457SOL    HW279612   2.842   5.991   4.391 -0.5368  0.5798  2.1130
57458SOL     OW79613   9.444   5.439   8.229  0.4142  0.5983 -0.6350
57458SOL    HW179614   9.502   5.469   8.300  1.1471 -1.3091 -0.3767
57458SOL    HW279615   9.485   5.359   8.197 -2.0991 -0.8864 -0.3923
57459SOL     OW79616   7.712   5.355   3.214  0.3202  0.1560 -0.6902
57459SOL    HW179617   7.794   5.400   3.190  0.5853 -0.5271 -1.1138
57459SOL    HW279618   7.732   5.310   3.295 -0.4024  1.9908  0.5698
57460SOL     OW79619   5.037   4.746   9.200 -0.2768 -0.0403 -0.6485
57460SOL    HW179620   5.074   4.658   9.196  0.5176  0.1258  1.4540
57460SOL    HW279621   5.111   4.804   9.188 -0.7305  0.3688 -1.5861
57461SOL     OW79622   6.842  10.051   4.416  0.3615 -0.0523  0.1304
57461SOL    HW179623   6.889  10.084   4.339 -0.4922  1.6155  0.2593
57461SOL    HW279624   6.909  10.010   4.470  1.7478  2.2789  0.3252
57462SOL     OW79625   2.429   1.539   1.776 -0.4289 -0.6840 -0.2971
57462SOL    HW179626   2.417   1.576   1.688  0.8282  1.8039  0.4801
57462SOL    HW279627   2.341   1.541   1.814 -0.8897 -1.2767 -1.2696
57463SOL     OW79628   7.148   2.384   7.607  0.4824  0.2424  0.1996
57463SOL    HW179629   7.081   2.406   7.542  0.1266 -0.1915  0.4195
57463SOL    HW279630   7.220   2.443   7.587  0.1993  0.4220 -0.3088
57464SOL     OW79631   4.105   2.668   4.307  0.8553 -0.5319  0.2423
57464SOL    HW179632   4.141   2.614   4.237 -1.2232 -0.4203 -0.9947
57464SOL    HW279633   4.169   2.739   4.318  2.4134 -1.8685  0.2112
57465SOL     OW79634   3.414   8.023   3.309  0.0037 -0.2041 -0.1259
57465SOL    HW179635   3.498   8.063   3.289 -0.2037  0.1102 -0.3688
57465SOL    HW279636   3.391   8.057   3.395 -0.6596  1.0131 -0.7667
57466SOL     OW79637  11.958   4.716   2.669 -0.3068 -0.3520 -0.1885
57466SOL    HW179638  11.971   4.711   2.574  0.5149  2.0116 -0.2822
57466SOL    HW279639  12.036   4.675   2.706  0.5591  0.8885 -0.5920
57467SOL     OW79640   8.280   0.824   2.433  0.0775 -0.0024  0.1963
57467SOL    HW179641   8.363   0.786   2.460  0.6316  0.1009 -1.2712
57467SOL    HW279642   8.267   0.794   2.343 -1.2207  0.3986  0.2237
57468SOL     OW79643   5.547   2.113   6.669  0.1773  0.2973  0.1354
57468SOL    HW179644   5.499   2.030   6.675  1.2468 -0.6133 -2.2386
57468SOL    HW279645   5.624   2.100   6.725  1.0678 -0.9526 -1.2849
57469SOL     OW79646  10.916   1.569   7.028  0.5844  0.0096  0.5235
57469SOL    HW179647  10.825   1.572   7.058 -0.4947 -0.4788 -2.3624
57469SOL    HW279648  10.926   1.483   6.987  1.2403  1.2342 -2.1443
57470SOL     OW79649   9.191   2.139   3.499  0.6423 -0.1301  0.3891
57470SOL    HW179650   9.196   2.168   3.590 -2.1803 -0.7891  0.8392
57470SOL    HW279651   9.187   2.219   3.448 -2.0607  0.3655  1.2391
57471SOL     OW79652  11.282  12.614   7.643  0.1950 -0.8855 -1.0625
57471SOL    HW179653  11.191  12.608   7.616 -0.3438  1.9640 -0.2109
57471SOL    HW279654  11.328  12.647   7.565 -0.1750  0.9883 -0.5302
57472SOL     OW79655   1.992   2.811   3.002 -0.4139  0.4387 -0.2153
57472SOL    HW179656   2.034   2.894   3.025 -1.6835  1.1751 -0.4156
57472SOL    HW279657   1.912   2.837   2.956  0.0911 -0.9306 -1.9883
57473SOL     OW79658   0.149   4.167   4.855  0.3256 -0.0950 -0.4651
57473SOL    HW179659   0.059   4.135   4.850  0.5582 -0.6984 -0.8302
57473SOL    HW279660   0.142   4.249   4.905 -0.9192  1.7030 -3.3209
57474SOL     OW79661   0.053  12.123  10.162  0.6941 -0.2782 -0.2694
57474SOL    HW179662  -0.022  12.065  10.176  0.7336 -0.3668 -0.4228
57474SOL    HW279663   0.019  12.211  10.181  0.2409 -0.1886 -1.4012
57475SOL     OW79664   7.390   8.110   4.116 -0.1042 -0.2017  0.6529
57475SOL    HW179665   7.468   8.116   4.060  0.7068  0.6034  1.8391
57475SOL    HW279666   7.389   8.192   4.164 -1.8080 -0.1280  0.5399
57476SOL     OW79667   8.389   0.148   9.907  0.4162 -0.1938  0.0538
57476SOL    HW179668   8.378   0.239   9.937  1.6728 -0.6688  2.2039
57476SOL    HW279669   8.442   0.156   9.828  0.4901  0.9755  0.1920
57477SOL     OW79670   2.644   8.657   0.954 -0.4767  0.6812 -0.1380
57477SOL    HW179671   2.620   8.732   1.009 -0.3280  1.1938 -0.7599
57477SOL    HW279672   2.561   8.612   0.937 -0.3015 -0.6517  2.1272
57478SOL     OW79673  11.118  11.726   7.156  0.1861 -0.5807 -0.0204
57478SOL    HW179674  11.201  11.764   7.129 -0.1813  0.1183 -0.2162
57478SOL    HW279675  11.141  11.661   7.222  0.8420  0.0800  0.4151
57479SOL     OW79676   9.094   2.623  12.439 -0.6820  0.1549  0.2562
57479SOL    HW179677   9.069   2.579  12.358  0.2695 -0.5275  0.3265
57479SOL    HW279678   9.039   2.702  12.441  0.1303  0.8289 -1.6592
57480SOL     OW79679   2.587   4.889   6.801 -0.3142 -0.1702  0.4164
57480SOL    HW179680   2.581   4.940   6.881 -0.6994  1.7381 -0.7594
57480SOL    HW279681   2.504   4.842   6.796 -0.4129 -0.0637  0.9801
57481SOL     OW79682   2.539  11.608   9.508  0.1422 -0.1913 -0.4056
57481SOL    HW179683   2.633  11.598   9.496  0.5722  1.4187  1.1541
57481SOL    HW279684   2.525  11.595   9.602 -1.0663  0.3640 -0.4843
57482SOL     OW79685   3.111  10.402   3.520  0.0007 -0.2276  0.2393
57482SOL    HW179686   3.159  10.365   3.447  0.8951  0.5455  0.4196
57482SOL    HW279687   3.178  10.424   3.585  0.1362  5.0780 -1.2403
57483SOL     OW79688   4.598   6.567   7.300  1.0784  0.0390  0.0814
57483SOL    HW179689   4.601   6.473   7.321  0.2209  0.0717  0.4131
57483SOL    HW279690   4.619   6.611   7.382 -1.9847  0.1636  0.9220
57484SOL     OW79691   1.530  10.013   9.968 -0.0152  0.5479 -0.2483
57484SOL    HW179692   1.572  10.078  10.023 -2.5666  0.3469  2.1346
57484SOL    HW279693   1.437  10.035   9.970 -0.5114 -0.8938 -2.6156
57485SOL     OW79694   8.166   5.326   1.013  0.2363 -0.3567  0.2537
57485SOL    HW179695   8.202   5.238   1.026 -0.1439 -0.7432 -1.0919
57485SOL    HW279696   8.234   5.373   0.967  0.3376 -0.0192  0.7433
57486SOL     OW79697   1.010  11.550   1.745 -0.1731  0.2622 -0.0825
57486SOL    HW179698   1.043  11.621   1.689 -0.3218 -0.2153 -0.7866
57486SOL    HW279699   1.058  11.472   1.717 -1.3679 -0.3005 -0.6453
57487SOL     OW79700   6.703   0.477   2.725 -0.0285  0.6603  0.3094
57487SOL    HW179701   6.757   0.409   2.686 -0.8703  0.0453  0.1881
57487SOL    HW279702   6.736   0.486   2.814 -0.5493 -0.6295  0.6499
57488SOL     OW79703   1.190   0.385   5.727 -0.4035  0.4706  0.2396
57488SOL    HW179704   1.205   0.444   5.654 -1.7871  0.5418 -0.0130
57488SOL    HW279705   1.136   0.435   5.788  0.2314  0.2053  1.0549
57489SOL     OW79706   5.545   7.612   5.310  0.4164  0.1670  0.0609
57489SOL    HW179707   5.466   7.659   5.286 -0.1284 -0.4686  0.5494
57489SOL    HW279708   5.601   7.677   5.351 -0.6782  0.2450  1.5172
57490SOL     OW79709  12.266  11.584   1.588  0.6513 -0.0630 -0.7307
57490SOL    HW179710  12.239  11.650   1.652  1.5448 -1.6447  1.3853
57490SOL    HW279711  12.337  11.626   1.539  0.5822  0.8667 -0.0543
57491SOL     OW79712  10.211  11.948   5.333  0.5996 -0.1741 -0.0471
57491SOL    HW179713  10.178  12.025   5.286  0.2847 -0.0317  0.4065
57491SOL    HW279714  10.284  11.917   5.279  1.2546  0.9104  0.1739
57492SOL     OW79715   8.033   2.004   1.273 -0.5357  0.3708  0.4324
57492SOL    HW179716   8.071   2.089   1.251 -0.8130  0.3436 -0.1754
57492SOL    HW279717   7.947   2.025   1.309 -0.8373  0.3294 -0.2433
57493SOL     OW79718   7.952   7.613   6.473  0.4466  0.3452  0.8285
57493SOL    HW179719   8.047   7.602   6.486  0.8386  2.5828  0.2428
57493SOL    HW279720   7.930   7.693   6.520 -0.3097  2.1721 -2.3554
57494SOL     OW79721   8.241   7.674   2.765 -0.6120 -0.3541  0.1220
57494SOL    HW179722   8.306   7.723   2.816 -1.5861  1.3629 -0.1907
57494SOL    HW279723   8.277   7.586   2.759  1.3769  0.3677  0.5057
57495SOL     OW79724   1.320   8.100   0.211  0.3796  0.5572 -0.0902
57495SOL    HW179725   1.343   8.139   0.295  1.1591  0.7405 -0.3839
57495SOL    HW279726   1.396   8.047   0.187  0.3727  0.9068 -0.9126
57496SOL     OW79727   0.669   8.079   6.030 -0.3272 -0.2125  0.0460
57496SOL    HW179728   0.734   8.015   6.059  0.2157  0.7475  1.0328
57496SOL    HW279729   0.634   8.043   5.948  0.1084 -1.6501  0.4596
57497SOL     OW79730  12.338   6.799   7.673 -0.6376  0.5730 -0.4959
57497SOL    HW179731  12.316   6.892   7.669  0.3102  0.7755 -1.1472
57497SOL    HW279732  12.414   6.790   7.617  0.4267 -0.2779  1.0286
57498SOL     OW79733   5.868   2.584   2.437  0.0437 -0.0071 -0.0450
57498SOL    HW179734   5.830   2.499   2.416 -0.9223 -0.6736  3.6738
57498SOL    HW279735   5.803   2.648   2.409 -0.4990 -0.6876 -0.3481
57499SOL     OW79736   4.648   4.979  12.423 -0.5718 -0.4918  0.4106
57499SOL    HW179737   4.725   4.970  12.367 -0.7351  0.3614  0.0328
57499SOL    HW279738   4.583   5.021  12.367 -0.9774 -0.2801  1.0298
57500SOL     OW79739   1.425  10.141   6.252 -0.8251  0.4025 -0.3014
57500SOL    HW179740   1.407  10.224   6.207 -0.7901  1.5440  1.6803
57500SOL    HW279741   1.341  10.113   6.286 -0.5974  0.4076  0.2787
57501SOL     OW79742   9.282   7.109  12.176 -0.2783  0.0860 -0.7905
57501SOL    HW179743   9.271   7.141  12.087  0.1591  1.9968 -0.2046
57501SOL    HW279744   9.201   7.136  12.221  0.0057  0.1806 -0.3283
57502SOL     OW79745  10.730   6.247  11.316 -0.2540  0.1140  0.1655
57502SOL    HW179746  10.669   6.259  11.388 -0.2017  2.1592 -0.0685
57502SOL    HW279747  10.690   6.292  11.242  0.7843  0.1104 -0.4248
57503SOL     OW79748   6.713   5.851   7.929 -0.2274  0.0837  0.3175
57503SOL    HW179749   6.752   5.939   7.931  0.3151 -0.1392 -0.2438
57503SOL    HW279750   6.644   5.855   7.995  1.3240  0.2239  2.0444
57504SOL     OW79751   7.519   4.280  12.384 -0.1031 -0.0637  0.3915
57504SOL    HW179752   7.584   4.351  12.382  0.1360 -0.2221  1.6610
57504SOL    HW279753   7.485   4.276  12.294  2.0114 -0.3312 -0.4571
57505SOL     OW79754  10.364  12.574   2.304  0.5666 -0.1286 -0.6088
57505SOL    HW179755  10.328  12.526   2.230 -0.8055 -1.4667  0.8621
57505SOL    HW279756  10.311  12.653   2.310 -1.5285 -1.5213  0.8073
57506SOL     OW79757   5.262   1.450   3.314 -0.2987 -0.5171  0.2698
57506SOL    HW179758   5.170   1.443   3.288 -0.2764 -0.8008  0.2680
57506SOL    HW279759   5.311   1.450   3.232 -0.3077 -0.1780  0.2625
57507SOL     OW79760   9.076   6.133   4.573 -0.0362  0.4308  0.2371
57507SOL    HW179761   9.093   6.196   4.502 -1.9666  1.1698  0.3900
57507SOL    HW279762   8.991   6.095   4.553  0.0592 -0.4657  1.3904
57508SOL     OW79763   4.064  10.902   5.926 -0.2004  0.0436  0.0095
57508SOL    HW179764   4.117  10.942   5.996 -0.7464 -0.8550  0.9704
57508SOL    HW279765   4.040  10.976   5.870  1.1861  0.6208  0.1297
57509SOL     OW79766   6.453  12.582   9.412  0.0306  0.3041 -0.1706
57509SOL    HW179767   6.394  12.589   9.337  0.5736  1.4300 -0.5244
57509SOL    HW279768   6.399  12.546   9.482 -0.1048 -2.3057 -1.4890
57510SOL     OW79769   2.184   0.872   2.166 -0.4256 -0.4068 -0.0409
57510SOL    HW179770   2.261   0.838   2.211 -0.6419 -2.2860 -0.9807
57510SOL    HW279771   2.114   0.866   2.231 -0.4665 -1.9018 -0.1765
57511SOL     OW79772   3.747   2.281   8.208  0.5184 -0.5694  0.3805
57511SOL    HW179773   3.728   2.319   8.122  1.1545  1.2147  0.9866
57511SOL    HW279774   3.666   2.293   8.257  0.4025 -0.8848  0.2648
57512SOL     OW79775   9.780   1.705   8.172  0.0862  0.3059 -0.3515
57512SOL    HW179776   9.810   1.793   8.147  0.2796 -0.5121 -3.3999
57512SOL    HW279777   9.727   1.676   8.097 -0.6800 -1.8703  0.9486
57513SOL     OW79778  11.224   9.048   8.480 -0.3792 -0.5024  0.1346
57513SOL    HW179779  11.186   9.102   8.550 -0.9651 -0.9793  0.1943
57513SOL    HW279780  11.313   9.081   8.470 -0.3507 -0.2989  0.9778
57514SOL     OW79781  11.540   8.942  12.041  0.4571 -0.0841  0.2134
57514SOL    HW179782  11.528   8.862  12.093 -1.0047  0.2872  0.4776
57514SOL    HW279783  11.561   8.910  11.953 -0.8245 -0.7989  0.1458
57515SOL     OW79784   8.762   2.839   6.067 -0.0600  0.0588 -0.0543
57515SOL    HW179785   8.801   2.810   6.150  1.8400 -0.3296 -1.0345
57515SOL    HW279786   8.761   2.935   6.074 -1.3185  0.0016  0.9927
57516SOL     OW79787   3.443   8.130   6.956 -0.4868 -0.4346  0.2505
57516SOL    HW179788   3.398   8.107   6.875 -0.0101  0.2159 -0.2140
57516SOL    HW279789   3.515   8.068   6.962 -0.5808 -0.5461  0.2244
57517SOL     OW79790   4.635  10.074   8.171  0.3633  0.8697 -0.5927
57517SOL    HW179791   4.610  10.130   8.245  0.5945 -1.6391  1.5339
57517SOL    HW279792   4.729  10.091   8.159  0.6118  0.4042  0.5649
57518SOL     OW79793   4.058  11.146   9.104 -0.4359 -0.2366  0.1835
57518SOL    HW179794   3.974  11.152   9.149 -0.4978 -1.9105  0.3533
57518SOL    HW279795   4.036  11.147   9.011 -0.6091 -0.2874  0.2249
57519SOL     OW79796   1.878  10.343   3.911 -0.4197  0.2274 -0.6278
57519SOL    HW179797   1.920  10.429   3.903  0.5236 -0.2168 -0.6382
57519SOL    HW279798   1.827  10.333   3.830  0.7488  0.1197 -1.3742
57520SOL     OW79799   9.271   9.927  11.459 -0.1497  0.0234 -0.1288
57520SOL    HW179800   9.242   9.962  11.543 -3.5272 -1.9287 -0.2893
57520SOL    HW279801   9.328   9.853  11.483 -3.2176 -2.2493  0.7177
57521SOL     OW79802   0.862   4.298   0.988  0.2064 -0.2407 -0.4190
57521SOL    HW179803   0.951   4.307   0.956 -0.1259 -0.1105 -1.3317
57521SOL    HW279804   0.808   4.299   0.910 -0.7756  1.8787  0.2276
57522SOL     OW79805   7.702   6.540   0.204  0.3870  0.6296  0.3128
57522SOL    HW179806   7.666   6.498   0.282  0.7071  1.0580  0.6907
57522SOL    HW279807   7.737   6.467   0.152 -0.2105  0.3013  0.3616
57523SOL     OW79808   3.528   4.318   6.194 -0.0596  0.2412  0.0618
57523SOL    HW179809   3.600   4.379   6.207 -0.1316 -0.2254  3.5459
57523SOL    HW279810   3.570   4.235   6.173  0.1340  0.8511 -2.2334
57524SOL     OW79811   6.405   0.339  11.656 -0.3129 -0.0438  0.0827
57524SOL    HW179812   6.406   0.390  11.737 -0.9281 -0.1766  0.1816
57524SOL    HW279813   6.454   0.392  11.593  2.4454 -1.0840  1.1999
57525SOL     OW79814  10.272   5.772   8.778  0.4348 -0.0657 -0.6158
57525SOL    HW179815  10.360   5.747   8.805  1.2106 -1.1171 -3.6742
57525SOL    HW279816  10.234   5.691   8.742 -0.0682  1.2351 -3.3231
57526SOL     OW79817   1.870   5.732  10.331  0.4626  0.5076 -0.1993
57526SOL    HW179818   1.823   5.664  10.281  1.3217 -0.8659  0.8060
57526SOL    HW279819   1.818   5.744  10.410  0.4969  0.8015 -0.2178
57527SOL     OW79820   8.992   8.647   8.977 -0.4095 -0.0150 -0.1962
57527SOL    HW179821   9.031   8.560   8.980  0.4388  0.2858 -1.5765
57527SOL    HW279822   8.928   8.648   9.049  0.1517 -1.4750  0.3500
57528SOL     OW79823   7.139   1.445   4.034 -0.8055 -0.0947 -0.0987
57528SOL    HW179824   7.088   1.406   4.104  0.2553  0.5056  1.0514
57528SOL    HW279825   7.228   1.412   4.047 -0.4531  0.5583 -0.7440
57529SOL     OW79826   9.428   4.148  10.984  0.7541  0.8373  0.4750
57529SOL    HW179827   9.443   4.182  11.072  0.5210  0.9339  0.4764
57529SOL    HW279828   9.390   4.062  10.998 -0.0176  1.1701  0.4691
57530SOL     OW79829  12.578  10.196  11.456 -0.1161  0.1178  0.4025
57530SOL    HW179830  12.506  10.259  11.458  0.2532  0.5420  1.9311
57530SOL    HW279831  12.612  10.200  11.367 -2.5233 -0.7397 -0.6606
57531SOL     OW79832   7.553   0.380  10.978  0.0546 -0.7363 -0.0324
57531SOL    HW179833   7.562   0.471  11.007  2.2636 -1.4227  1.7285
57531SOL    HW279834   7.464   0.356  11.003  0.6706 -0.1754  3.2309
57532SOL     OW79835  11.549  12.293   9.507 -0.3866 -0.8814 -0.3418
57532SOL    HW179836  11.593  12.238   9.442 -0.2532  0.0747 -1.0709
57532SOL    HW279837  11.558  12.244   9.589  3.2472 -0.1662 -0.1307
57533SOL     OW79838   2.865   0.887   9.785 -0.0620  0.1156  0.2728
57533SOL    HW179839   2.871   0.953   9.715  1.1208 -0.7436 -0.4692
57533SOL    HW279840   2.952   0.888   9.826  0.5619 -2.0957 -0.8308
57534SOL     OW79841   6.317  10.872  11.131  0.4532  0.0130 -0.1720
57534SOL    HW179842   6.348  10.793  11.175  0.4905  0.8859  1.4325
57534SOL    HW279843   6.250  10.908  11.189  0.8030  1.4489 -0.6089
57535SOL     OW79844   2.265   4.957   7.870 -0.4544  0.1632  0.2509
57535SOL    HW179845   2.230   4.890   7.811  1.9876  0.0504 -1.1876
57535SOL    HW279846   2.309   4.907   7.939  1.6813  0.1885 -1.0160
57536SOL     OW79847   6.978   1.572   7.249  0.0165 -0.1750 -0.2377
57536SOL    HW179848   6.969   1.559   7.154  0.0309 -1.9901 -0.0337
57536SOL    HW279849   6.888   1.576   7.281  0.0117 -0.1825 -0.2502
57537SOL     OW79850   6.739   1.092   1.941 -0.0644  0.1521  0.0272
57537SOL    HW179851   6.802   1.060   2.006 -2.3211  0.4531  2.5258
57537SOL    HW279852   6.698   1.168   1.982 -2.8416 -0.6960 -0.9294
57538SOL     OW79853   6.154   6.414   2.437 -0.1645 -0.3230 -0.8404
57538SOL    HW179854   6.174   6.331   2.480 -0.1154  1.1926  2.2996
57538SOL    HW279855   6.239   6.451   2.415  0.1213  0.7646  1.7456
57539SOL     OW79856   1.974   1.164  10.682  0.0715  0.5506  0.0589
57539SOL    HW179857   2.055   1.207  10.710  0.3652  1.9425 -2.5717
57539SOL    HW279858   1.911   1.183  10.751  1.6407  0.4911  1.5665
57540SOL     OW79859  11.946   5.010   5.792 -0.0393  0.1442 -0.5044
57540SOL    HW179860  12.034   4.973   5.795 -0.7106 -1.4589  1.3434
57540SOL    HW279861  11.958   5.102   5.815  1.1667 -0.0368 -0.3480
57541SOL     OW79862  12.412   0.857   6.930  0.6958  0.3109 -0.4263
57541SOL    HW179863  12.457   0.782   6.893 -1.4766 -3.1017  3.0183
57541SOL    HW279864  12.427   0.850   7.025 -0.9950  3.2561  0.2040
57542SOL     OW79865   3.776  12.028  10.212  0.0669 -0.2630  0.2404
57542SOL    HW179866   3.748  12.018  10.121 -0.2629  0.0703  0.3033
57542SOL    HW279867   3.723  12.100  10.245  0.7688  0.1575  0.4650
57543SOL     OW79868   4.455   2.033   4.216  0.6039  0.1436 -0.1452
57543SOL    HW179869   4.479   1.988   4.135  0.7175  0.6953 -0.4248
57543SOL    HW279870   4.360   2.022   4.222  0.7637 -1.1302  0.4083
57544SOL     OW79871   4.073   5.565   4.432 -0.1067  0.3101  0.5931
57544SOL    HW179872   4.120   5.491   4.394 -0.2212  0.6174 -0.1669
57544SOL    HW279873   4.004   5.585   4.368 -0.6458  0.4936  1.2243
57545SOL     OW79874   6.460   2.422   1.397  0.0947  0.3829  0.1275
57545SOL    HW179875   6.417   2.337   1.409 -0.3726  0.7802  1.5416
57545SOL    HW279876   6.388   2.483   1.378 -0.0578  1.0568  2.5278
57546SOL     OW79877   9.699   7.679   0.511 -0.1267  0.4247 -0.5692
57546SOL    HW179878   9.734   7.603   0.557 -2.5260  0.2698  1.1892
57546SOL    HW279879   9.731   7.754   0.561  0.0798  0.4509 -0.7368
57547SOL     OW79880   0.405   4.771   6.938  0.1715  0.2694 -0.1153
57547SOL    HW179881   0.369   4.714   7.006  3.3077 -0.3857  1.1874
57547SOL    HW279882   0.350   4.755   6.861 -1.7679 -1.1160  1.4462
57548SOL     OW79883   6.295  10.803   0.261 -0.1937 -0.0644 -0.7978
57548SOL    HW179884   6.230  10.865   0.227 -1.0305 -0.7424 -0.4768
57548SOL    HW279885   6.315  10.836   0.349  0.1211  0.3069 -1.0045
57549SOL     OW79886   0.958  11.232   6.852  0.5869  0.2745  0.4376
57549SOL    HW179887   0.874  11.188   6.864  0.8371 -0.5593 -0.7127
57549SOL    HW279888   0.992  11.198   6.769  1.9889  0.7187  0.7944
57550SOL     OW79889   7.987   4.455   6.569  0.2607 -0.2307  0.6542
57550SOL    HW179890   7.928   4.456   6.645  1.6880 -0.3275  1.8221
57550SOL    HW279891   7.994   4.547   6.544 -0.0858 -0.1758  0.7514
57551SOL     OW79892   2.024   6.822   6.486  0.1631  0.0753  0.1089
57551SOL    HW179893   1.977   6.746   6.519  0.4000  0.6283  1.8543
57551SOL    HW279894   2.036   6.805   6.393 -1.0835 -1.3234  0.1664
57552SOL     OW79895  12.511   1.344   3.665 -0.5694 -0.3581  0.2387
57552SOL    HW179896  12.551   1.422   3.702 -0.2618 -0.1454 -0.5272
57552SOL    HW279897  12.437   1.325   3.723 -0.2498  0.1146  0.8052
57553SOL     OW79898   3.083   2.496   0.202  0.5813 -0.2987 -0.2953
57553SOL    HW179899   3.016   2.535   0.145 -1.1391 -2.3556  0.1735
57553SOL    HW279900   3.141   2.569   0.225 -3.8782  2.7683  2.8125
57554SOL     OW79901   7.080   5.355   5.674 -0.6633  0.5150 -0.2915
57554SOL    HW179902   7.101   5.369   5.582  1.1309 -1.3635 -0.2500
57554SOL    HW279903   7.023   5.277   5.674  1.0823 -0.8178  0.2659
57555SOL     OW79904  12.509   6.616   8.951  0.2553  0.0081 -0.1843
57555SOL    HW179905  12.488   6.701   8.990  0.0894  0.5814 -1.4892
57555SOL    HW279906  12.521   6.634   8.858 -0.9394 -1.5926 -0.7000
57556SOL     OW79907   2.636   3.918  12.476  0.8297 -0.4316 -0.0088
57556SOL    HW179908   2.664   4.008  12.490 -1.7034  0.3187  0.6892
57556SOL    HW279909   2.601   3.890  12.561 -0.1706 -1.4040 -0.7092
57557SOL     OW79910  10.787   0.858  12.030 -0.6336 -0.5637  0.7674
57557SOL    HW179911  10.720   0.789  12.019  1.2686 -2.5363  0.8211
57557SOL    HW279912  10.769   0.920  11.960 -1.2943 -2.1084 -0.4935
57558SOL     OW79913   4.338   0.446   5.622 -0.6759 -0.7851 -0.6232
57558SOL    HW179914   4.378   0.450   5.535 -0.0629 -0.0286 -0.3154
57558SOL    HW279915   4.281   0.369   5.618  1.3806 -2.3602 -0.8397
57559SOL     OW79916  10.331   9.100   9.258  0.0445  0.1052  0.1768
57559SOL    HW179917  10.322   9.107   9.353 -0.9351 -1.5503  0.2539
57559SOL    HW279918  10.340   9.006   9.243  1.2305  0.4183 -1.3078
57560SOL     OW79919   8.860   9.488   0.137 -0.3932  0.5757  0.2140
57560SOL    HW179920   8.841   9.457   0.226 -0.9216 -2.1329 -0.7515
57560SOL    HW279921   8.881   9.580   0.148 -0.9181  0.4444  3.0897
57561SOL     OW79922   0.053   8.651   0.179  0.4743  0.6306 -0.0482
57561SOL    HW179923   0.053   8.567   0.223  0.4971  0.7089  0.1021
57561SOL    HW279924   0.017   8.713   0.243 -1.8511  0.3306 -0.9509
57562SOL     OW79925   6.930   3.277   8.739  0.1359  0.3895 -0.5311
57562SOL    HW179926   6.870   3.334   8.786 -0.1894  0.0919 -0.5826
57562SOL    HW279927   7.017   3.310   8.761  0.0802 -0.7462  1.6553
57563SOL     OW79928   6.663  10.790   1.063 -0.4940  0.1632 -0.2032
57563SOL    HW179929   6.757  10.776   1.053 -0.1062  1.4977  1.1472
57563SOL    HW279930   6.635  10.726   1.128 -0.3354  0.3434  0.0435
57564SOL     OW79931  10.924  11.188   9.125 -0.3581  0.4400  0.0376
57564SOL    HW179932  10.855  11.255   9.135  0.4917  1.1786  1.2479
57564SOL    HW279933  11.005  11.238   9.124  0.4064 -0.6085  2.3052
57565SOL     OW79934  12.094   9.975  10.698  0.1395  1.0837  0.0286
57565SOL    HW179935  12.171   9.930  10.733 -0.3619  0.2567  0.0906
57565SOL    HW279936  12.123  10.066  10.684  1.8472  0.2948 -2.1197
57566SOL     OW79937  11.290  12.234   6.181  0.1997 -1.3595 -0.0271
57566SOL    HW179938  11.222  12.218   6.247 -0.6458  1.1593 -0.1969
57566SOL    HW279939  11.241  12.250   6.100  1.0595 -0.7812 -0.4373
57567SOL     OW79940   9.576  12.182   9.495  0.4790  0.2053  0.1491
57567SOL    HW179941   9.490  12.144   9.479  0.9001 -0.8423  0.3457
57567SOL    HW279942   9.564  12.276   9.477 -0.5728 -0.0028 -0.2931
57568SOL     OW79943   3.000   4.264   7.242  0.5315 -0.2170 -0.6684
57568SOL    HW179944   3.018   4.207   7.316  0.6893 -0.7355 -1.0983
57568SOL    HW279945   2.940   4.330   7.276  2.4475  0.9924  0.5469
57569SOL     OW79946  11.552   8.257   8.499  0.0219  0.1949  0.0585
57569SOL    HW179947  11.620   8.227   8.438 -2.0209 -3.5162 -0.6691
57569SOL    HW279948  11.566   8.206   8.578 -0.7326  0.8638  0.6394
57570SOL     OW79949   1.236   7.237   6.958  0.1303 -0.3857  0.0209
57570SOL    HW179950   1.246   7.220   7.052 -0.5110 -1.4155 -0.0879
57570SOL    HW279951   1.225   7.150   6.919 -0.1497  0.0764 -0.9489
57571SOL     OW79952   0.901   1.411   7.302 -0.2149 -1.1181 -0.4421
57571SOL    HW179953   0.973   1.436   7.245 -2.0114 -1.9194 -3.3228
57571SOL    HW279954   0.826   1.460   7.268 -1.5477 -2.2803  0.7130
57572SOL     OW79955   9.520   8.117   2.315  0.4876  0.1976  0.0816
57572SOL    HW179956   9.583   8.150   2.379  1.0247 -0.1852 -0.2422
57572SOL    HW279957   9.496   8.194   2.263  0.4526  0.4051  0.4023
57573SOL     OW79958   2.504   4.532   2.688  0.3586  0.0133 -0.1429
57573SOL    HW179959   2.566   4.579   2.633  1.3067 -2.1676 -1.0567
57573SOL    HW279960   2.427   4.520   2.633 -0.3078  1.3087  0.4461
57574SOL     OW79961   0.374   1.339   1.735  0.5576 -0.1430 -0.4763
57574SOL    HW179962   0.286   1.378   1.737  0.2584 -0.7959 -0.8987
57574SOL    HW279963   0.391   1.322   1.643  0.8214 -0.7237 -0.3226
57575SOL     OW79964   5.650   0.089   7.379  0.1631  0.7283 -0.1550
57575SOL    HW179965   5.591   0.109   7.306 -0.3030 -0.6545 -0.1894
57575SOL    HW279966   5.682   0.174   7.408 -0.8438  1.4152 -0.9820
57576SOL     OW79967   2.718   9.655   5.743  0.1122 -0.2013 -0.4512
57576SOL    HW179968   2.670   9.694   5.670  0.8301 -1.4996 -1.6680
57576SOL    HW279969   2.749   9.571   5.709  1.0350 -0.5410  1.1380
57577SOL     OW79970   5.240   2.531   7.335 -0.0183  0.0621  0.5143
57577SOL    HW179971   5.152   2.553   7.305 -0.2093 -0.7661  0.4390
57577SOL    HW279972   5.264   2.453   7.283  0.6335  0.1023  0.7504
57578SOL     OW79973   5.698   9.238   3.445 -0.0073  0.5638 -0.1171
57578SOL    HW179974   5.693   9.247   3.540  0.7151  2.3213 -0.2038
57578SOL    HW279975   5.781   9.194   3.429  0.6138  1.6384  0.0369
57579SOL     OW79976   9.593   5.044   3.014  0.3076  0.0307 -0.2788
57579SOL    HW179977   9.530   4.981   3.048  2.0364 -0.7016  1.7639
57579SOL    HW279978   9.613   5.101   3.088  1.2963  0.8772 -1.1588
57580SOL     OW79979   1.457   4.037   5.299  0.2554 -0.0918 -0.2382
57580SOL    HW179980   1.480   3.946   5.280 -0.7317 -0.5537  0.6600
57580SOL    HW279981   1.401   4.064   5.226  0.6810 -0.1454 -0.5873
57581SOL     OW79982   5.926   9.726  12.100 -0.3725  0.0139 -0.5117
57581SOL    HW179983   5.929   9.635  12.128  2.1321 -0.0958 -0.8638
57581SOL    HW279984   5.892   9.722  12.011  1.5439 -0.8659 -1.2642
57582SOL     OW79985  11.574  11.520   3.140 -0.0400 -0.0417  0.3906
57582SOL    HW179986  11.536  11.438   3.171 -0.8287  0.7733  1.6776
57582SOL    HW279987  11.640  11.543   3.205  1.1941 -0.3482 -0.7074
57583SOL     OW79988   6.312   0.639   2.899 -0.3889 -0.0933 -0.1077
57583SOL    HW179989   6.340   0.584   2.825 -1.1034 -1.4384  0.5889
57583SOL    HW279990   6.385   0.633   2.961  0.0156  0.6758 -0.4880
57584SOL     OW79991  11.807  10.394  11.258 -0.0558  0.6698 -0.1103
57584SOL    HW179992  11.807  10.388  11.354 -1.8454 -2.7886 -0.1807
57584SOL    HW279993  11.889  10.354  11.231 -1.1482 -1.7952 -0.0016
57585SOL     OW79994   4.502   6.009   6.851  0.5607 -0.0054  0.1333
57585SOL    HW179995   4.411   5.981   6.864  0.1591 -0.2896 -2.5433
57585SOL    HW279996   4.498   6.104   6.846  0.5279  0.0229  0.6575
57586SOL     OW79997   5.841  12.122   5.901  0.3016 -0.2713 -0.0511
57586SOL    HW179998   5.913  12.120   5.963  0.7843 -1.9753 -0.6181
57586SOL    HW279999   5.828  12.031   5.876 -1.0239  0.1791 -1.1450
57587SOL     OW80000   7.097   0.811   4.080  0.2346  0.0968 -0.1520
57587SOL    HW180001   7.043   0.839   4.006  0.7039  0.7155 -0.2642
57587SOL    HW280002   7.101   0.715   4.072 -2.6286 -0.2382  1.0710
57588SOL     OW80003   2.038  10.826   1.214  0.3836 -0.1084  0.1879
57588SOL    HW180004   1.957  10.793   1.252 -0.4035  0.0621 -1.2880
57588SOL    HW280005   2.082  10.870   1.287 -1.2228  0.4826  0.8467
57589SOL     OW80006  11.669   7.881  10.590 -0.5284 -0.1407 -0.3520
57589SOL    HW180007  11.762   7.896  10.578 -0.5023 -0.1201 -0.1225
57589SOL    HW280008  11.659   7.786  10.587 -0.1334 -0.3318  2.1984
57590SOL     OW80009   6.128   9.686   3.082 -0.2839  0.2012  0.2372
57590SOL    HW180010   6.154   9.776   3.065  0.2329  0.0048 -0.0377
57590SOL    HW280011   6.069   9.663   3.010  0.0311  0.1395 -0.0035
57591SOL     OW80012   5.784   7.412   1.216 -0.2671  0.1844  0.0121
57591SOL    HW180013   5.707   7.359   1.236  0.0688 -0.3323 -0.0384
57591SOL    HW280014   5.807   7.386   1.126  0.0796  0.1945  0.0993
57592SOL     OW80015   5.873  12.355   7.730 -0.5377 -1.1919  0.1149
57592SOL    HW180016   5.787  12.314   7.719 -0.5676 -0.7536 -1.6629
57592SOL    HW280017   5.866  12.402   7.813 -1.5997 -2.1215  0.5895
57593SOL     OW80018   2.010   7.126   2.806 -0.8789 -0.1822 -0.0892
57593SOL    HW180019   1.967   7.079   2.734  1.0936 -0.6011 -1.0603
57593SOL    HW280020   2.065   7.191   2.762 -0.5539  0.3704  1.1009
57594SOL     OW80021   9.563   7.417   4.856 -0.0324 -0.4168 -0.2742
57594SOL    HW180022   9.478   7.384   4.886  0.3631 -1.9635 -0.7550
57594SOL    HW280023   9.541   7.493   4.801 -0.8601  1.3846  2.3741
57595SOL     OW80024   3.405   7.532   6.863 -0.5384  0.3246  0.0658
57595SOL    HW180025   3.396   7.558   6.772  1.2831 -0.7015 -0.4583
57595SOL    HW280026   3.402   7.437   6.862  2.7121  0.0901  0.5420
57596SOL     OW80027  10.000   9.152   0.506  0.4580  0.4773  0.0497
57596SOL    HW180028   9.970   9.079   0.560 -0.7865 -1.1296 -2.5984
57596SOL    HW280029   9.920   9.198   0.481  1.1364  2.0926  0.7233
57597SOL     OW80030  10.650   4.333  11.568 -0.1419 -0.3099 -0.4321
57597SOL    HW180031  10.654   4.239  11.582 -0.1798 -0.9418 -3.8226
57597SOL    HW280032  10.591   4.365  11.636  0.6380 -2.5241  1.4066
57598SOL     OW80033   7.775   6.751   0.962  0.5065  0.1725  0.4114
57598SOL    HW180034   7.867   6.769   0.982  0.4830 -0.4077  1.0717
57598SOL    HW280035   7.771   6.751   0.866  1.3377 -0.4642  0.3610
57599SOL     OW80036   3.265  10.523   6.511  0.5170  0.1701  0.9355
57599SOL    HW180037   3.257  10.566   6.596 -0.0866  1.1502  0.3993
57599SOL    HW280038   3.199  10.453   6.513  1.7270 -1.0163  1.9368
57600SOL     OW80039   4.229   5.158   6.272 -0.0097 -0.1055  0.2354
57600SOL    HW180040   4.217   5.223   6.203 -0.9752 -0.3655  0.1421
57600SOL    HW280041   4.225   5.208   6.354  1.5038  0.2581  0.1287
57601SOL     OW80042   4.567   1.813   2.128 -0.0195  0.8733 -0.0210
57601SOL    HW180043   4.475   1.841   2.134 -0.1701  0.0958  1.5413
57601SOL    HW280044   4.570   1.758   2.049 -0.8432  1.0859 -0.2090
57602SOL     OW80045   6.876   3.942   4.520 -0.6213 -0.2809 -0.1929
57602SOL    HW180046   6.819   3.888   4.467  0.7154 -1.3311 -0.6321
57602SOL    HW280047   6.849   4.032   4.502 -1.1343 -0.6885 -1.5233
57603SOL     OW80048  10.311   2.293   0.346 -0.1834  0.2444  0.2023
57603SOL    HW180049  10.219   2.316   0.335 -0.3506 -0.9521 -1.0758
57603SOL    HW280050  10.350   2.310   0.261  0.4742 -0.5684  0.3284
57604SOL     OW80051  10.403   0.593   7.631 -0.0540 -0.1584  0.2159
57604SOL    HW180052  10.428   0.546   7.552 -0.0609  0.1386  0.0325
57604SOL    HW280053  10.344   0.662   7.600  0.1809  0.1500  0.4404
57605SOL     OW80054   1.948  12.451  12.629 -0.5289  0.2970  0.4184
57605SOL    HW180055   1.966  12.390  12.700 -0.2785 -0.0191  0.0873
57605SOL    HW280056   1.914  12.395  12.558  1.4173  0.2577 -0.5509
57606SOL     OW80057   5.637   7.934   3.378  0.0462 -0.2366  0.1148
57606SOL    HW180058   5.674   7.949   3.465 -2.2538 -1.6545  1.4308
57606SOL    HW280059   5.546   7.961   3.386  0.1211  0.9801 -2.3276
57607SOL     OW80060   7.965  11.010   6.056 -0.2732 -0.0974 -0.2838
57607SOL    HW180061   7.996  10.929   6.097 -1.5915 -1.0587 -1.1086
57607SOL    HW280062   7.870  11.006   6.065 -0.3773  1.1719 -0.7111
57608SOL     OW80063   3.299   8.673  10.630  0.8699 -0.8510 -0.1548
57608SOL    HW180064   3.369   8.736  10.646 -2.0735  2.3125  1.5672
57608SOL    HW280065   3.307   8.609  10.701  2.5364 -1.1747 -0.5825
57609SOL     OW80066  10.881   4.151   8.067 -1.0223 -0.3940  0.3858
57609SOL    HW180067  10.965   4.106   8.074 -0.6433  0.2632  0.1876
57609SOL    HW280068  10.860   4.148   7.974 -0.7019  0.3446  0.2829
57610SOL     OW80069   0.286   1.370   8.828 -0.1637  0.2648  0.2369
57610SOL    HW180070   0.283   1.293   8.773 -0.2375 -0.0768  0.7095
57610SOL    HW280071   0.328   1.437   8.774 -1.9045  0.4971 -0.9063
57611SOL     OW80072   4.695   4.052   6.728 -0.4533 -0.0973  0.1087
57611SOL    HW180073   4.658   4.096   6.652  0.7945  1.1010  0.1587
57611SOL    HW280074   4.645   4.085   6.803 -1.3228 -0.8658 -0.1253
57612SOL     OW80075  12.694   8.691   7.765  0.2070 -0.8921 -0.2079
57612SOL    HW180076  12.671   8.783   7.749 -1.8127 -1.5830 -1.7241
57612SOL    HW280077  12.732   8.661   7.682 -0.4600 -1.7897 -0.1967
57613SOL     OW80078   3.286  12.321  12.457  0.4036  0.0783 -0.2677
57613SOL    HW180079   3.289  12.413  12.428 -1.2780  0.7144  1.3852
57613SOL    HW280080   3.267  12.272  12.378 -1.7064  1.5097 -0.7577
57614SOL     OW80081   0.295  10.269   1.185 -0.2014 -0.1977  0.6760
57614SOL    HW180082   0.234  10.299   1.252 -3.0552  1.5949 -2.4707
57614SOL    HW280083   0.326  10.349   1.143  1.6527 -1.2610 -0.1050
57615SOL     OW80084   9.859  12.464  11.189  0.4521 -0.3159  0.0679
57615SOL    HW180085   9.847  12.386  11.242  0.0425  0.3475  0.9901
57615SOL    HW280086   9.818  12.534  11.240  0.3609  0.4130 -0.9636
57616SOL     OW80087   4.717  12.510   6.056 -0.0215 -0.8006 -0.3225
57616SOL    HW180088   4.709  12.503   5.960 -0.5526 -1.4690 -0.2386
57616SOL    HW280089   4.671  12.433   6.089 -0.1285 -0.3945  0.4896
57617SOL     OW80090  11.343   9.550   6.950 -0.0430  0.4890 -0.3016
57617SOL    HW180091  11.429   9.546   6.910 -1.1523 -1.4841 -2.7477
57617SOL    HW280092  11.302   9.467   6.928 -1.2619 -0.3498  4.0996
57618SOL     OW80093   1.004   2.740  11.139  0.2447  0.0110 -0.2328
57618SOL    HW180094   1.079   2.681  11.131  2.3669  2.3211  1.0011
57618SOL    HW280095   0.980   2.735  11.231  0.9759  1.5498  0.0786
57619SOL     OW80096  11.203   7.145  12.618  0.7980  0.1657 -0.1597
57619SOL    HW180097  11.279   7.167  12.672  1.6564 -2.1362 -0.2799
57619SOL    HW280098  11.238   7.089  12.549 -1.0134 -1.2820 -0.0130
57620SOL     OW80099   5.057   9.622   7.824  0.1712  0.0092  1.1236
57620SOL    HW180100   5.030   9.712   7.843 -0.7171 -0.1164  0.5048
57620SOL    HW280101   5.093   9.625   7.736 -2.5265 -0.7292 -0.0961
57621SOL     OW80102   9.864  10.707   5.575 -0.1539 -0.1786  0.4640
57621SOL    HW180103   9.775  10.672   5.571  0.8139 -2.6882 -1.5942
57621SOL    HW280104   9.862  10.784   5.518 -0.7638 -0.8386 -0.4317
57622SOL     OW80105   7.016   8.037   0.530  0.0153 -0.1301 -0.0548
57622SOL    HW180106   6.950   8.083   0.581  0.9772  2.3048 -0.8516
57622SOL    HW280107   7.086   8.019   0.592  0.6533  1.7140 -0.1841
57623SOL     OW80108  10.997   7.851   2.533 -0.4329 -0.4463 -0.1563
57623SOL    HW180109  10.924   7.836   2.473 -0.1594  1.5819 -1.0726
57623SOL    HW280110  11.075   7.844   2.478 -0.0742 -0.2288  0.3260
57624SOL     OW80111   0.442   8.117   7.200  0.1540  0.3827  0.2163
57624SOL    HW180112   0.466   8.197   7.246  0.6341 -0.9360  2.4225
57624SOL    HW280113   0.526   8.080   7.171 -0.1918  1.9281 -3.2860
57625SOL     OW80114   6.574   1.140   6.319 -0.4057 -0.0458  0.2959
57625SOL    HW180115   6.520   1.062   6.308 -2.0578  1.0024  0.6067
57625SOL    HW280116   6.644   1.113   6.379 -1.1421 -1.1956  0.6671
57626SOL     OW80117  10.022  12.584   4.898 -0.2760 -0.2731 -0.1008
57626SOL    HW180118   9.937  12.591   4.943 -0.6495  1.5744 -0.9576
57626SOL    HW280119  10.004  12.616   4.810  1.5517  1.3282  0.0454
57627SOL     OW80120   7.692   7.072   0.519 -0.3603 -0.2603 -0.0281
57627SOL    HW180121   7.738   7.148   0.484  0.0119 -0.3895  0.1839
57627SOL    HW280122   7.627   7.050   0.451 -0.3126  0.1019 -0.1905
57628SOL     OW80123  10.978  10.533   6.356 -0.2452  0.5285  0.2703
57628SOL    HW180124  10.962  10.623   6.326  1.4532  0.6700 -0.3196
57628SOL    HW280125  10.948  10.479   6.283  3.0252  0.8441 -1.5331
57629SOL     OW80126   3.774  11.458   2.395 -0.4261  0.3068 -0.2840
57629SOL    HW180127   3.707  11.398   2.362  0.3226  0.3131 -1.9145
57629SOL    HW280128   3.729  11.510   2.461 -1.7288 -0.4384 -0.5432
57630SOL     OW80129  12.485   8.756  12.079 -0.1573 -0.1945  0.4408
57630SOL    HW180130  12.419   8.803  12.130 -0.3535 -0.3907  0.3676
57630SOL    HW280131  12.536   8.825  12.037 -0.0691 -0.0343  0.8084
57631SOL     OW80132  11.584  11.088   1.662 -0.4706  0.1717  0.0488
57631SOL    HW180133  11.652  11.038   1.707  1.5780  1.9240 -0.9063
57631SOL    HW280134  11.515  11.024   1.644  1.9621 -2.3266 -1.0802
57632SOL     OW80135   5.729   6.865   4.343  0.1186  0.2383 -0.3711
57632SOL    HW180136   5.649   6.904   4.306 -0.3653 -0.6503 -0.2886
57632SOL    HW280137   5.757   6.802   4.278  1.4104  1.3419 -0.9094
57633SOL     OW80138   3.620   3.056   6.898 -0.3152 -0.2826  0.4676
57633SOL    HW180139   3.623   2.990   6.828 -0.7053 -0.8451  0.9653
57633SOL    HW280140   3.559   3.122   6.866 -2.7246 -1.8940  1.3815
57634SOL     OW80141   6.435   9.890   4.258 -0.0242 -0.4477 -0.1021
57634SOL    HW180142   6.375   9.964   4.253  0.7118  0.1190 -1.0533
57634SOL    HW280143   6.386   9.821   4.302 -1.1953  0.1594 -0.4177
57635SOL     OW80144  12.636   5.104  10.044  0.7618  0.2442  0.1655
57635SOL    HW180145  12.718   5.152  10.045  1.5358 -0.9921 -0.6403
57635SOL    HW280146  12.654   5.027   9.989 -1.0560  0.1627 -0.3819
57636SOL     OW80147   8.945  11.992   3.259 -0.5717  0.3219 -0.3310
57636SOL    HW180148   9.013  11.949   3.311 -2.4775 -0.8207  1.3480
57636SOL    HW280149   8.940  11.939   3.179  0.2129  0.1718 -0.2898
57637SOL     OW80150   9.560   2.918   4.561  0.0897 -0.0858 -0.2013
57637SOL    HW180151   9.489   2.971   4.598  0.3918 -0.1056  0.4082
57637SOL    HW280152   9.536   2.828   4.582 -0.1287 -0.1564 -0.7328
57638SOL     OW80153   9.701   7.483  11.681  0.1492  0.5573 -0.1429
57638SOL    HW180154   9.697   7.550  11.750  0.4759  1.4964 -1.0257
57638SOL    HW280155   9.636   7.510  11.617 -0.0272 -0.2228 -0.3108
57639SOL     OW80156  11.872   4.500  12.031 -0.0887 -0.7092 -0.6228
57639SOL    HW180157  11.953   4.551  12.036  0.8651 -2.0939 -1.3491
57639SOL    HW280158  11.869   4.468  11.941 -2.7268  1.2683 -1.3384
57640SOL     OW80159   2.274   5.520  10.950  0.0979  1.0211 -0.1728
57640SOL    HW180160   2.319   5.462  11.011 -1.7941  1.2967  1.5662
57640SOL    HW280161   2.331   5.521  10.872  0.4873 -2.7148 -0.1158
57641SOL     OW80162   8.889   9.775  12.671 -0.6814 -0.0961 -0.5879
57641SOL    HW180163   8.917   9.853  12.718 -0.9045  1.2539 -2.6069
57641SOL    HW280164   8.971   9.732  12.645 -0.5201 -1.6038  2.0511
57642SOL     OW80165   7.179  11.444   9.830  0.1518  0.2267 -0.1640
57642SOL    HW180166   7.254  11.499   9.806  2.9573 -3.5962 -1.2832
57642SOL    HW280167   7.152  11.404   9.748 -1.0901 -0.7836  0.7091
57643SOL     OW80168   2.479   9.857   7.533 -0.0084  0.4515 -0.1573
57643SOL    HW180169   2.548   9.846   7.598 -0.4424 -3.8997 -0.1409
57643SOL    HW280170   2.398   9.861   7.584 -0.0731  3.2363 -0.2987
57644SOL     OW80171  10.951  12.382  10.383  0.0704  0.2947 -0.9123
57644SOL    HW180172  10.941  12.291  10.356 -1.1461  0.8034 -2.2693
57644SOL    HW280173  10.894  12.390  10.460 -0.5144  0.1354 -1.3238
57645SOL     OW80174   1.874   2.411   1.911 -0.2510 -0.0547 -0.2645
57645SOL    HW180175   1.801   2.365   1.952  1.1885 -0.6512  1.8017
57645SOL    HW280176   1.950   2.356   1.929  1.1507  1.8737  0.0633
57646SOL     OW80177   8.608   0.137   8.699 -0.5104  0.1440 -0.0798
57646SOL    HW180178   8.603   0.164   8.607 -1.0487  1.2642  0.2521
57646SOL    HW280179   8.663   0.203   8.740 -0.9774  0.1462  0.5588
57647SOL     OW80180   9.590   6.338   3.586 -0.2371 -0.3545 -0.7152
57647SOL    HW180181   9.494   6.346   3.585 -0.3129 -1.0348 -2.2106
57647SOL    HW280182   9.621   6.417   3.544 -0.0701  0.2856  0.5638
57648SOL     OW80183   8.837   0.453   9.032 -0.1921 -0.1256 -0.2218
57648SOL    HW180184   8.924   0.424   9.060  0.5078  0.7505 -1.3772
57648SOL    HW280185   8.830   0.542   9.066  0.7957  1.0752 -2.8999
57649SOL     OW80186   9.514   9.123   5.850 -0.0721  0.3079  0.0279
57649SOL    HW180187   9.496   9.043   5.899 -0.6364 -0.3601 -1.2131
57649SOL    HW280188   9.446   9.126   5.783  1.7393  0.1328 -1.9545
57650SOL     OW80189   1.511   7.113   4.245  0.4912  0.2782  0.0981
57650SOL    HW180190   1.450   7.120   4.172 -1.5155  1.4932  1.8062
57650SOL    HW280191   1.539   7.021   4.244 -2.0323 -0.5542 -0.2722
57651SOL     OW80192   2.548   3.453  10.571  0.0246  0.0583 -0.0363
57651SOL    HW180193   2.484   3.384  10.553  0.5226 -0.2938 -0.5064
57651SOL    HW280194   2.596   3.462  10.489  1.0344 -0.1772  0.5087
57652SOL     OW80195   9.297  10.740  11.441 -0.0596  0.2446  0.3270
57652SOL    HW180196   9.349  10.820  11.432  0.3510 -0.1189 -0.8367
57652SOL    HW280197   9.336  10.695  11.516 -0.8232  1.4852  1.5165
57653SOL     OW80198   0.313   7.620   1.283 -0.0744  0.0777 -0.0099
57653SOL    HW180199   0.222   7.635   1.311  0.0373  0.8342 -0.0117
57653SOL    HW280200   0.352   7.570   1.354 -0.6627 -0.8070 -0.3021
57654SOL     OW80201  10.931   3.754   0.375 -0.0202  0.0458 -0.3181
57654SOL    HW180202  11.024   3.774   0.375  0.0434 -0.1472 -1.6755
57654SOL    HW280203  10.888   3.839   0.362  0.0172  0.0307 -0.5593
57655SOL     OW80204   7.774   7.069  10.475 -0.0131 -0.5039  0.0832
57655SOL    HW180205   7.736   6.998  10.527 -0.7252  1.1004  1.8552
57655SOL    HW280206   7.824   7.121  10.538  1.9805 -0.3874 -1.5086
57656SOL     OW80207   6.851   0.444   4.235 -0.0258 -0.2015  0.3899
57656SOL    HW180208   6.844   0.427   4.141 -0.1627  0.6646  0.2317
57656SOL    HW280209   6.910   0.377   4.267  0.1086 -0.4429 -0.3372
57657SOL     OW80210   7.924   2.827   4.626  0.2861 -0.1273  0.1276
57657SOL    HW180211   7.907   2.735   4.605  1.2041 -0.2237 -0.2552
57657SOL    HW280212   7.990   2.823   4.696 -1.2105  0.2213  1.6179
57658SOL     OW80213   0.826   6.177   3.713  0.4489  0.2501 -0.0946
57658SOL    HW180214   0.902   6.234   3.699  1.9150 -1.7402 -0.7980
57658SOL    HW280215   0.767   6.198   3.641  2.2316 -0.9529 -2.0437
57659SOL     OW80216   8.998   5.237   9.668  0.4991 -0.0266 -0.1422
57659SOL    HW180217   8.987   5.267   9.758  0.6664 -0.7832  0.1436
57659SOL    HW280218   8.917   5.264   9.624  0.0001 -0.4637  0.4747
57660SOL     OW80219   6.060   1.278   8.513 -0.5730  0.2328 -0.2876
57660SOL    HW180220   5.973   1.320   8.513 -0.0170  1.4804  0.9914
57660SOL    HW280221   6.060   1.223   8.591 -0.4263 -0.2786 -0.6404
57661SOL     OW80222   8.313   2.580   3.730 -0.0558 -0.2014 -0.0548
57661SOL    HW180223   8.337   2.544   3.815 -2.0706 -1.9675 -0.1429
57661SOL    HW280224   8.386   2.558   3.673  0.3592 -0.9694  0.7518
57662SOL     OW80225   2.670   7.616   3.367  0.1273 -0.6691 -0.0894
57662SOL    HW180226   2.629   7.529   3.362 -0.8505 -0.1900 -0.9245
57662SOL    HW280227   2.690   7.638   3.276  1.2453 -0.4075  0.2081
57663SOL     OW80228   1.705   1.379  10.290 -0.1064  0.4025 -0.1755
57663SOL    HW180229   1.704   1.284  10.296  1.3668  0.3349 -0.6219
57663SOL    HW280230   1.671   1.409  10.374 -0.1059 -0.5213  0.1587
57664SOL     OW80231   6.598   4.030  10.438  0.3805 -0.1440  0.5229
57664SOL    HW180232   6.550   4.027  10.521 -0.9403  3.6889  0.1090
57664SOL    HW280233   6.574   4.114  10.400  0.5587 -1.8935 -4.0527
57665SOL     OW80234   5.687   1.741   1.586 -0.3857 -0.4285 -0.0954
57665SOL    HW180235   5.773   1.700   1.577  0.8579  1.7229  1.2259
57665SOL    HW280236   5.694   1.823   1.537 -1.2566  0.3392  0.9937
57666SOL     OW80237   6.540   4.277   9.218  0.6847 -0.4231  0.3836
57666SOL    HW180238   6.523   4.331   9.140 -1.5439 -1.4554  0.0846
57666SOL    HW280239   6.536   4.187   9.186  1.5355 -0.8451  1.4032
57667SOL     OW80240   7.918  11.525  10.494  0.1579  0.0346  0.7105
57667SOL    HW180241   7.940  11.613  10.523  0.2073  0.3686 -0.3171
57667SOL    HW280242   7.990  11.471  10.527  0.2574  0.4127  1.1234
57668SOL     OW80243   9.538   0.458   3.842  0.1610 -0.0326  0.0173
57668SOL    HW180244   9.464   0.400   3.861  0.5826 -0.8849 -0.8690
57668SOL    HW280245   9.611   0.399   3.826  0.9802  0.7956  0.6088
57669SOL     OW80246   6.146   0.558   0.615 -0.0730  0.2157  0.0137
57669SOL    HW180247   6.107   0.620   0.676  0.0946  1.2308 -0.8756
57669SOL    HW280248   6.082   0.549   0.544 -0.2423 -0.9036  0.2869
57670SOL     OW80249   0.037   5.203   5.373  0.5087 -0.0799  0.2230
57670SOL    HW180250  -0.004   5.137   5.317 -0.3852  1.2684 -0.7671
57670SOL    HW280251   0.015   5.287   5.333  1.8174  0.8416  1.3059
57671SOL     OW80252   9.824   0.005  12.152 -0.1178 -0.0964  0.0824
57671SOL    HW180253   9.753   0.066  12.132 -0.2615  0.6588  2.6651
57671SOL    HW280254   9.782  -0.081  12.150 -0.9475  0.2808  0.8803
57672SOL     OW80255  12.655   5.324   4.772  0.2726  0.8400  0.2710
57672SOL    HW180256  12.630   5.261   4.704 -0.5799 -0.2460  1.5277
57672SOL    HW280257  12.610   5.405   4.747 -2.2486 -0.2610  0.8766
57673SOL     OW80258   6.626   9.914   6.289  0.2131  0.1074  0.1145
57673SOL    HW180259   6.712   9.952   6.307  1.3265 -2.4796  0.7796
57673SOL    HW280260   6.646   9.825   6.261 -2.1412  0.3082 -2.6374
57674SOL     OW80261   6.517   9.390   3.485  1.1091  0.5851  0.3861
57674SOL    HW180262   6.490   9.447   3.414  0.1260  1.5624  1.4892
57674SOL    HW280263   6.554   9.313   3.442  0.4040  1.0763 -1.1633
57675SOL     OW80264   3.395   1.519   6.327 -0.2977  0.2857 -0.2400
57675SOL    HW180265   3.336   1.467   6.382  1.4305 -3.1437 -1.3192
57675SOL    HW280266   3.466   1.545   6.387  0.4592 -1.5312 -0.2689
57676SOL     OW80267   8.252   2.039   8.478 -0.0949 -0.1674 -0.6653
57676SOL    HW180268   8.165   2.025   8.515 -0.0256  1.3222  0.1280
57676SOL    HW280269   8.306   2.065   8.552  1.2523 -1.8158 -1.0059
57677SOL     OW80270   0.349   2.354   7.698  0.3889 -0.1612 -0.3855
57677SOL    HW180271   0.269   2.308   7.722  1.2082 -0.5416  1.7998
57677SOL    HW280272   0.323   2.447   7.695 -0.2800 -0.3457 -0.4288
57678SOL     OW80273   1.661   0.522   9.413 -0.4962 -0.6779 -0.7782
57678SOL    HW180274   1.655   0.559   9.325 -1.4633  2.7884  0.5967
57678SOL    HW280275   1.606   0.443   9.409 -2.4778  0.6714 -2.6915
57679SOL     OW80276  11.203   9.066   0.378 -0.3367 -0.5564 -0.2135
57679SOL    HW180277  11.187   8.990   0.322  1.9962 -2.0516  1.0379
57679SOL    HW280278  11.279   9.109   0.340 -1.5957  1.2362 -0.8807
57680SOL     OW80279   6.802   0.783   2.166  0.8655  0.5716 -0.0657
57680SOL    HW180280   6.802   0.737   2.082  0.1082  1.6468 -0.6765
57680SOL    HW280281   6.834   0.871   2.145 -0.2712  1.1621  0.5699
57681SOL     OW80282   2.132   9.071   4.124 -0.2660  0.1298  0.4271
57681SOL    HW180283   2.184   9.011   4.069 -1.9550 -0.5990 -0.4327
57681SOL    HW280284   2.095   9.014   4.192  0.1928  0.6900  1.1660
57682SOL     OW80285  10.138  10.078   3.281  0.5191  0.1740 -0.4179
57682SOL    HW180286  10.051  10.118   3.271 -0.1541 -0.7259  1.3793
57682SOL    HW280287  10.185  10.138   3.339  0.3300 -0.4067  0.3510
57683SOL     OW80288   4.801   4.429   0.357 -0.3409 -0.4005 -0.1077
57683SOL    HW180289   4.799   4.379   0.276  0.2580 -0.2476 -0.2234
57683SOL    HW280290   4.778   4.366   0.426  0.0518 -0.7428 -0.2920
57684SOL     OW80291   1.842   8.539   7.457  0.0049 -0.2485  0.5954
57684SOL    HW180292   1.772   8.517   7.395  0.8399 -1.3657 -0.0037
57684SOL    HW280293   1.921   8.507   7.414  1.3031  3.3412  0.0472
57685SOL     OW80294   4.117   6.460   0.201  0.4100 -0.3565 -0.1677
57685SOL    HW180295   4.095   6.472   0.109 -1.4282 -0.8279  0.1810
57685SOL    HW280296   4.208   6.429   0.200  1.4660  2.3815 -1.6363
57686SOL     OW80297  11.332  11.966  11.494 -0.5806 -0.8637  0.6766
57686SOL    HW180298  11.422  11.934  11.500  0.1384  0.8859 -0.1536
57686SOL    HW280299  11.306  11.981  11.585  0.7612  0.6463  0.8487
57687SOL     OW80300   8.088   0.993   6.401  0.0992  0.2244  0.4583
57687SOL    HW180301   8.145   1.066   6.426  0.5330 -0.5848  1.9552
57687SOL    HW280302   8.009   1.005   6.454 -0.3519  0.2698 -0.2032
57688SOL     OW80303   0.217  10.996  11.444 -0.3650 -0.1692  0.2153
57688SOL    HW180304   0.236  10.943  11.521  1.3323  1.7113  1.1568
57688SOL    HW280305   0.258  10.949  11.372  1.5150  0.0239  1.1042
57689SOL     OW80306   6.610   4.890   9.319 -0.0029 -0.0402 -0.4906
57689SOL    HW180307   6.664   4.930   9.388 -2.2849 -0.3030  1.5682
57689SOL    HW280308   6.557   4.963   9.285 -0.4742 -0.3421 -0.4006
57690SOL     OW80309  10.153   4.933   5.891  0.2335 -0.1922 -0.3552
57690SOL    HW180310  10.135   4.994   5.962 -0.9151 -1.0752  0.1461
57690SOL    HW280311  10.246   4.913   5.898  0.4304  0.8137  0.0085
57691SOL     OW80312   0.841  12.104   4.029  0.2826 -0.0278 -0.0369
57691SOL    HW180313   0.912  12.043   4.045  0.3712  0.3115  0.9410
57691SOL    HW280314   0.810  12.083   3.941  1.1400 -0.6264 -0.2016
57692SOL     OW80315   8.059   4.906  12.354 -0.5576 -0.2765  0.3633
57692SOL    HW180316   8.139   4.895  12.406 -0.2773 -0.5064 -0.1080
57692SOL    HW280317   8.013   4.822  12.362 -1.8133  0.5313  2.3529
57693SOL     OW80318  10.004   9.995   2.629 -0.5108 -0.1540  0.4082
57693SOL    HW180319  10.033   9.955   2.711 -0.1804  1.7011  1.2381
57693SOL    HW280320   9.913   9.965   2.619 -0.5098 -0.5134  1.3666
57694SOL     OW80321   4.353   0.609   7.579  0.2787  0.1685 -0.3886
57694SOL    HW180322   4.394   0.664   7.646  0.7900 -0.0908 -0.4846
57694SOL    HW280323   4.381   0.649   7.496 -0.7965  0.8204 -0.4639
57695SOL     OW80324   9.746   8.317   3.525 -0.0512 -0.3425  0.6053
57695SOL    HW180325   9.676   8.373   3.558  0.0688 -0.0132  0.3043
57695SOL    HW280326   9.804   8.306   3.601  0.1299  0.2650  0.5622
57696SOL     OW80327   9.425   6.179   8.794  0.2519 -0.3227 -0.0408
57696SOL    HW180328   9.472   6.139   8.867 -1.3770 -0.4463  0.9963
57696SOL    HW280329   9.474   6.259   8.775  0.4322 -0.0107  1.5524
57697SOL     OW80330   7.725  12.628   7.055 -0.0347  0.4073 -0.0232
57697SOL    HW180331   7.647  12.574   7.053  0.1438 -0.0484  2.4248
57697SOL    HW280332   7.724  12.670   7.141  2.5972  0.0391  0.3018
57698SOL     OW80333   9.742   5.388   5.177 -0.4016 -0.2673  0.2108
57698SOL    HW180334   9.778   5.342   5.254 -2.1807  0.0423  1.2960
57698SOL    HW280335   9.795   5.467   5.170  0.1694 -0.5831  0.7438
57699SOL     OW80336   9.650   6.535  12.293 -0.0213  0.5786  0.5625
57699SOL    HW180337   9.709   6.462  12.313  0.0874  0.8198  1.1384
57699SOL    HW280338   9.708   6.604  12.261 -0.3115 -0.2560 -2.0174
57700SOL     OW80339   9.306   1.284   8.331 -0.1624  0.3685 -0.0744
57700SOL    HW180340   9.313   1.377   8.355 -1.7030  0.1879  1.2840
57700SOL    HW280341   9.378   1.242   8.378  1.0313  0.9266 -1.3091
57701SOL     OW80342   0.102  10.306   7.108  0.1724  0.3295  0.0988
57701SOL    HW180343   0.117  10.290   7.201 -0.6602 -0.8038  0.0553
57701SOL    HW280344   0.182  10.277   7.066  1.1589  2.2173  0.5465
57702SOL     OW80345  11.884   4.128   1.989 -0.4984 -0.2240 -0.6204
57702SOL    HW180346  11.939   4.089   1.921 -1.2396 -0.1754 -1.2518
57702SOL    HW280347  11.794   4.110   1.962 -0.8045 -0.5994  0.5747
57703SOL     OW80348  10.515   0.670   5.327 -0.5725 -0.3215  0.2396
57703SOL    HW180349  10.430   0.625   5.327  0.0677 -1.5883  0.7442
57703SOL    HW280350  10.516   0.718   5.410 -1.4465  1.0429 -0.5049
57704SOL     OW80351  11.448  11.397  10.310 -0.0258  0.9997 -0.3460
57704SOL    HW180352  11.505  11.435  10.243 -0.9478  0.7792 -1.2875
57704SOL    HW280353  11.361  11.430  10.289 -0.6737 -0.7197 -0.5243
57705SOL     OW80354   6.405   3.809   2.755  0.6600  0.1950 -0.0933
57705SOL    HW180355   6.324   3.798   2.805  1.1189  2.4522  1.2880
57705SOL    HW280356   6.462   3.739   2.786  0.0161 -0.0444  0.5898
57706SOL     OW80357   6.183  12.484   6.328  0.0788  0.1381  0.4966
57706SOL    HW180358   6.137  12.509   6.409  0.8046 -1.1429  1.3346
57706SOL    HW280359   6.142  12.402   6.301  2.6294 -1.8048  2.0299
57707SOL     OW80360   2.367  11.293   1.873 -0.0464 -0.0641  0.0237
57707SOL    HW180361   2.363  11.360   1.805 -2.0310  0.2988  0.4237
57707SOL    HW280362   2.345  11.339   1.954  2.0319 -0.5361  0.9255
57708SOL     OW80363   3.128   0.506   3.961 -0.6581 -0.0880  0.4633
57708SOL    HW180364   3.095   0.569   4.025  0.6009  0.4949  0.5784
57708SOL    HW280365   3.223   0.514   3.968 -0.4753 -1.7714  0.2369
57709SOL     OW80366   9.765   9.395   4.813 -0.0824 -0.1468 -0.7981
57709SOL    HW180367   9.715   9.326   4.857  0.2956 -0.8178 -1.3997
57709SOL    HW280368   9.704   9.431   4.749  0.1415 -0.8759 -1.4403
57710SOL     OW80369   4.139  12.188   6.332  0.1594  0.0072  0.4032
57710SOL    HW180370   4.087  12.129   6.386  0.9885 -0.8439  0.3073
57710SOL    HW280371   4.093  12.271   6.336 -0.0004 -0.1294  2.1267
57711SOL     OW80372   0.757   0.923   6.081 -0.4466  0.0363 -0.3613
57711SOL    HW180373   0.755   0.845   6.137  1.6833  0.3047  0.1451
57711SOL    HW280374   0.844   0.924   6.043 -0.0667  2.6931  0.3966
57712SOL     OW80375   8.056   1.534   0.950  0.4851 -0.1101  0.0324
57712SOL    HW180376   8.049   1.601   1.019  0.4590  0.2434 -0.3111
57712SOL    HW280377   8.035   1.452   0.995  1.7921 -0.0779  0.7655
57713SOL     OW80378   7.417  11.898   8.435 -0.2922 -0.1432  0.2699
57713SOL    HW180379   7.383  11.893   8.346 -1.2892 -1.7275  0.6936
57713SOL    HW280380   7.409  11.809   8.468  0.0567  0.4205  1.9525
57714SOL     OW80381   4.641   1.586   8.872 -0.0070 -0.1620  0.3887
57714SOL    HW180382   4.583   1.614   8.801 -0.2241  0.6667  0.8833
57714SOL    HW280383   4.607   1.500   8.899 -0.4443 -0.0900  0.0732
57715SOL     OW80384   3.213   5.518   4.309  0.0205 -0.1176 -0.3662
57715SOL    HW180385   3.141   5.567   4.268  0.0630 -1.7731 -2.5947
57715SOL    HW280386   3.288   5.577   4.303 -0.6605  0.8142  0.0442
57716SOL     OW80387   6.292   1.859   3.960  0.2770 -0.1463 -0.4570
57716SOL    HW180388   6.283   1.825   3.872 -0.8248  1.8350 -1.1656
57716SOL    HW280389   6.245   1.796   4.015 -0.8333 -0.3015 -1.5550
57717SOL     OW80390   3.729   2.808   1.521 -0.4201  0.5700 -0.1714
57717SOL    HW180391   3.766   2.735   1.571 -0.9909 -0.8150 -1.6834
57717SOL    HW280392   3.805   2.857   1.491 -0.0469  1.0316  1.4262
57718SOL     OW80393   1.369   1.789  11.773 -0.7567 -0.5620 -0.1158
57718SOL    HW180394   1.305   1.721  11.755 -0.1817 -1.0488 -0.3731
57718SOL    HW280395   1.438   1.744  11.823 -0.5320 -0.0912  0.0049
57719SOL     OW80396  11.285   0.557   2.910 -0.3108  0.2184  0.0370
57719SOL    HW180397  11.196   0.588   2.927  0.2598  0.8496  2.2587
57719SOL    HW280398  11.289   0.546   2.815 -2.9934 -0.6182 -0.0604
57720SOL     OW80399  12.450   4.922   8.037 -0.0963 -0.3186  0.1711
57720SOL    HW180400  12.443   4.895   7.945  2.4074 -3.0070  0.5968
57720SOL    HW280401  12.405   4.853   8.086 -2.3954  1.6501  1.0448
57721SOL     OW80402  10.033   2.462   3.395  0.0074 -0.7357  0.4132
57721SOL    HW180403   9.994   2.377   3.374  1.8716 -2.1226  2.1790
57721SOL    HW280404  10.024   2.470   3.490 -1.7774  1.9717  0.1362
57722SOL     OW80405   4.357   3.131  10.195 -0.3165 -0.0418  0.0101
57722SOL    HW180406   4.421   3.080  10.246  0.1361 -0.1008 -0.6022
57722SOL    HW280407   4.392   3.220  10.195 -0.7383  0.1290  0.4774
57723SOL     OW80408   6.558   9.393   2.632 -0.1786 -0.2400  0.0300
57723SOL    HW180409   6.504   9.314   2.633  0.1330 -0.4600 -0.3507
57723SOL    HW280410   6.647   9.361   2.647  0.0621 -0.0566 -0.9630
57724SOL     OW80411   1.842   7.754   3.728 -0.3974 -0.0155 -0.5176
57724SOL    HW180412   1.892   7.795   3.657 -1.1104  1.1901 -0.3620
57724SOL    HW280413   1.901   7.688   3.764  1.0057  1.1788 -0.4966
57725SOL     OW80414  10.905   0.228   4.776  0.1050  0.0178 -0.4222
57725SOL    HW180415  10.869   0.236   4.687 -0.2740  1.0309 -0.1894
57725SOL    HW280416  10.829   0.223   4.832  0.3440 -0.0260 -0.1009
57726SOL     OW80417   2.592   6.588   2.062  0.3892  0.4630  0.1256
57726SOL    HW180418   2.500   6.562   2.061  0.0872  1.4290  1.0670
57726SOL    HW280419   2.617   6.583   2.155  1.1367  0.7233 -0.0596
57727SOL     OW80420   2.098  12.560   0.289 -0.5014  0.0435  0.0279
57727SOL    HW180421   2.080  12.576   0.381  0.5870  0.5224  0.1759
57727SOL    HW280422   2.187  12.593   0.276  0.8177 -3.2453 -0.3359
57728SOL     OW80423   4.973   6.112   0.310 -0.5597 -0.1101  0.1987
57728SOL    HW180424   5.024   6.192   0.320 -1.3556  0.3971  0.2437
57728SOL    HW280425   5.009   6.052   0.376  2.8650 -1.3281 -2.4473
57729SOL     OW80426   6.364   1.494   1.652 -0.0421  0.2986 -0.3894
57729SOL    HW180427   6.419   1.558   1.605  0.2063  0.7215  0.4528
57729SOL    HW280428   6.416   1.413   1.651  0.3467  0.5398 -0.1001
57730SOL     OW80429   6.934  11.177   4.471  0.7484 -0.0411  0.3034
57730SOL    HW180430   6.916  11.228   4.550  1.3105 -1.3635  1.3073
57730SOL    HW280431   6.877  11.101   4.478  0.0569  0.3056 -1.0957
57731SOL     OW80432  11.570   6.996   9.168 -0.3777 -0.0812 -0.4690
57731SOL    HW180433  11.550   7.060   9.237  2.0144 -0.6967  0.8897
57731SOL    HW280434  11.518   7.025   9.093 -0.7118  2.4181  0.6340
57732SOL     OW80435   9.888   4.625  10.040 -0.0794 -0.3677 -0.2583
57732SOL    HW180436   9.890   4.532  10.018  0.5779 -0.3300 -0.3622
57732SOL    HW280437   9.975   4.644  10.074  0.0448  0.3906 -0.9724
57733SOL     OW80438   8.321   7.061   7.836  0.1246 -0.5565  0.0411
57733SOL    HW180439   8.349   6.970   7.827 -2.0973 -1.2164 -0.8267
57733SOL    HW280440   8.230   7.062   7.805  0.3804  2.1352 -0.9361
57734SOL     OW80441  10.539  10.601   0.196 -0.2378 -0.4898 -0.1839
57734SOL    HW180442  10.516  10.538   0.129  1.1703  2.0986 -3.3773
57734SOL    HW280443  10.471  10.668   0.191  0.8467  0.6309 -0.3546
57735SOL     OW80444  11.979   2.615   0.582 -0.1325 -0.1958  0.3857
57735SOL    HW180445  12.023   2.672   0.646  3.7832 -1.4713 -0.8370
57735SOL    HW280446  11.961   2.673   0.508  0.8418  0.1657  0.4046
57736SOL     OW80447  12.280   0.719   8.259  0.0809 -0.1631 -0.0502
57736SOL    HW180448  12.225   0.646   8.234 -0.3253  0.7116 -1.9078
57736SOL    HW280449  12.363   0.679   8.286  1.9497 -1.4024 -6.0486
57737SOL     OW80450   6.527   5.536   3.698 -0.3371  0.5377 -0.3242
57737SOL    HW180451   6.432   5.536   3.710 -0.4230  1.8327 -0.8951
57737SOL    HW280452   6.540   5.515   3.606 -0.0788  0.4826 -0.2759
57738SOL     OW80453   3.966   2.232   8.428  0.1359  0.9552  0.2685
57738SOL    HW180454   3.920   2.164   8.476 -0.0902 -1.2743 -2.7827
57738SOL    HW280455   3.897   2.273   8.374  0.6906  1.9701  0.3029
57739SOL     OW80456   1.231   6.522   1.707 -0.1020  0.3477 -0.6236
57739SOL    HW180457   1.322   6.502   1.686  0.7889  2.6677  0.5613
57739SOL    HW280458   1.207   6.591   1.645 -1.1846 -0.4341 -1.1056
57740SOL     OW80459   4.417   4.359   4.891  0.1841  0.7226 -0.6072
57740SOL    HW180460   4.338   4.412   4.899 -0.0351  0.3399 -0.2060
57740SOL    HW280461   4.416   4.328   4.800  0.4438  1.5914 -0.9224
57741SOL     OW80462  11.757   6.014   5.869 -0.2883 -0.3531  0.1131
57741SOL    HW180463  11.739   6.108   5.877  0.0768 -0.2840  0.1177
57741SOL    HW280464  11.691   5.973   5.925  0.0255 -0.0579  0.7097
57742SOL     OW80465  10.830   1.010   5.601  0.1373 -0.1774  0.4528
57742SOL    HW180466  10.880   0.932   5.626  1.0282  0.1671 -0.2108
57742SOL    HW280467  10.817   1.000   5.506 -2.1319 -0.8692  0.7744
57743SOL     OW80468   7.487   0.135   8.102 -0.5401 -0.0877  0.1884
57743SOL    HW180469   7.516   0.054   8.062 -0.5675  0.4859 -1.0364
57743SOL    HW280470   7.394   0.140   8.081 -0.7345 -0.1642  1.0127
57744SOL     OW80471   9.272   0.985  11.651 -0.1014  0.1723 -0.0326
57744SOL    HW180472   9.326   1.056  11.687  0.6906 -0.0804 -0.6831
57744SOL    HW280473   9.324   0.950  11.579 -0.7512 -0.6766 -0.1046
57745SOL     OW80474   0.761  12.484  11.886 -0.1445 -0.4977  0.0579
57745SOL    HW180475   0.729  12.395  11.899 -1.6552  0.1975  1.5138
57745SOL    HW280476   0.847  12.473  11.844 -1.0095 -2.5559 -1.3411
57746SOL     OW80477  12.667   9.432   5.278 -0.3090  0.5687  0.4541
57746SOL    HW180478  12.649   9.503   5.340 -1.8033 -0.1451  0.8949
57746SOL    HW280479  12.762   9.431   5.268 -0.2834  3.8643 -1.0312
57747SOL     OW80480   2.957   8.003   3.683  0.0179 -0.3657 -0.8756
57747SOL    HW180481   2.878   7.990   3.735 -1.4674  2.2494 -2.2522
57747SOL    HW280482   2.945   7.947   3.606  1.0329 -2.2916  0.2829
57748SOL     OW80483   4.893  10.912   7.879 -0.5335 -0.0681  0.1151
57748SOL    HW180484   4.940  10.918   7.962 -0.3045  0.2000 -0.0291
57748SOL    HW280485   4.884  10.819   7.863 -1.3539 -0.1263  0.8714
57749SOL     OW80486   4.957   6.329   5.887 -0.2714  0.4548 -0.3093
57749SOL    HW180487   4.862   6.338   5.875 -1.2139  1.0582  5.0959
57749SOL    HW280488   4.967   6.249   5.938  1.9603  1.0585  0.2877
57750SOL     OW80489  10.290   8.066   5.798  0.3429  0.0626  0.2663
57750SOL    HW180490  10.375   8.025   5.782  0.0451 -0.5087  0.0937
57750SOL    HW280491  10.311   8.156   5.823  0.9401  0.5358 -1.6989
57751SOL     OW80492   3.788   2.102  10.384  0.4348 -0.6922  0.2274
57751SOL    HW180493   3.880   2.091  10.360  1.1681 -0.3460  2.6189
57751SOL    HW280494   3.751   2.014  10.382  0.3278 -0.6642 -2.2832
57752SOL     OW80495  11.542   3.490   2.856  0.0574  0.3364 -0.2126
57752SOL    HW180496  11.496   3.447   2.785  1.6930 -0.1466 -1.0238
57752SOL    HW280497  11.626   3.444   2.862  0.8719  1.8352  0.5126
57753SOL     OW80498  12.083   3.027   4.678  0.1249  0.0867  0.1376
57753SOL    HW180499  12.017   2.974   4.632  0.5147 -0.4785  0.2257
57753SOL    HW280500  12.079   3.113   4.635  1.4363 -0.8004 -1.8992
57754SOL     OW80501   1.637   5.769   1.650 -0.4039  0.1065 -0.2480
57754SOL    HW180502   1.608   5.716   1.575 -0.0927 -1.7904  0.9129
57754SOL    HW280503   1.568   5.758   1.715 -0.5181  1.4820 -0.1130
57755SOL     OW80504   7.142   4.687   1.666  0.4750 -0.4563 -0.0574
57755SOL    HW180505   7.161   4.726   1.581 -0.3483 -0.1878 -0.1294
57755SOL    HW280506   7.134   4.593   1.649  2.5124 -0.7071  0.1247
57756SOL     OW80507  10.842  10.703   6.180 -0.5843 -0.1943  0.2224
57756SOL    HW180508  10.749  10.686   6.165 -0.3919 -0.0602 -1.1864
57756SOL    HW280509  10.870  10.758   6.107  0.3825  0.6021  1.1571
57757SOL     OW80510  11.128   5.806   3.678 -0.0480 -0.1973 -0.2846
57757SOL    HW180511  11.218   5.780   3.658  0.2436 -1.5889  2.2866
57757SOL    HW280512  11.087   5.725   3.711 -0.9576  1.2148  2.3719
57758SOL     OW80513   6.523   1.722   8.893  0.0184 -0.3366 -0.7001
57758SOL    HW180514   6.449   1.668   8.864  1.1470 -2.4478  0.1345
57758SOL    HW280515   6.574   1.736   8.813 -0.1023 -0.7935 -0.8602
57759SOL     OW80516   3.266   7.603  10.419 -0.3622  0.2686 -0.1797
57759SOL    HW180517   3.359   7.580  10.426  1.3790  5.6811 -0.5902
57759SOL    HW280518   3.238   7.564  10.336  1.2585 -2.0241  0.2596
57760SOL     OW80519   3.640   0.206   0.079 -0.3932  0.2379 -0.1248
57760SOL    HW180520   3.662   0.234   0.168 -1.5607 -0.5960  0.4486
57760SOL    HW280521   3.720   0.164   0.047  0.6328  2.1002 -0.1600
57761SOL     OW80522   8.895   0.055   7.461  0.1055 -0.0695 -0.0685
57761SOL    HW180523   8.932   0.138   7.491 -0.5555  0.8164 -1.6126
57761SOL    HW280524   8.965  -0.009   7.476  1.0142  0.9528  0.1654
57762SOL     OW80525   6.031   5.412   8.959 -0.4449 -0.5998  0.5431
57762SOL    HW180526   5.994   5.369   8.882  1.5653  0.7293 -1.2903
57762SOL    HW280527   5.980   5.493   8.967 -0.4529 -0.5905  0.4053
57763SOL     OW80528   6.232   7.065  11.479 -0.1877 -0.1582 -0.0991
57763SOL    HW180529   6.225   6.992  11.541 -1.8362  0.6735  0.7603
57763SOL    HW280530   6.307   7.116  11.511  0.1315 -0.7402  0.0934
57764SOL     OW80531   7.846   9.408   6.503 -0.0227 -0.2510  0.1236
57764SOL    HW180532   7.854   9.384   6.411  2.1707  1.5359 -0.2466
57764SOL    HW280533   7.857   9.325   6.550 -2.8084 -1.4705 -1.1601
57765SOL     OW80534   3.347   9.764   6.725  0.0770 -0.2318 -0.6067
57765SOL    HW180535   3.306   9.771   6.639  2.3382 -1.9652 -1.9063
57765SOL    HW280536   3.322   9.846   6.769 -3.8490 -0.6770 -1.5653
57766SOL     OW80537  12.129   2.154   3.225 -0.4180 -0.3029  0.3482
57766SOL    HW180538  12.041   2.182   3.201  0.2073  1.3935 -0.1643
57766SOL    HW280539  12.162   2.109   3.147 -0.4586  0.0426  0.1256
57767SOL     OW80540  11.041   6.675   1.793 -0.3130 -0.0717 -0.3831
57767SOL    HW180541  11.136   6.678   1.799 -0.3552 -0.5591  0.7046
57767SOL    HW280542  11.021   6.581   1.783 -0.7716 -0.2404  1.6822
57768SOL     OW80543  10.219   8.600   1.153  0.1721 -0.0163  0.1449
57768SOL    HW180544  10.306   8.586   1.115  0.1864 -0.9902  0.5000
57768SOL    HW280545  10.174   8.516   1.142 -1.0717  0.7430 -0.8838
57769SOL     OW80546   2.592   6.468  10.534  0.8790  0.2589 -0.0030
57769SOL    HW180547   2.585   6.564  10.536 -0.1043  0.3096 -2.1883
57769SOL    HW280548   2.684   6.452  10.510  0.9739  0.6707  0.0639
57770SOL     OW80549   6.803   3.471   1.711  0.2310 -0.4496  0.3062
57770SOL    HW180550   6.739   3.511   1.769 -0.6707 -0.9623 -0.3177
57770SOL    HW280551   6.758   3.463   1.627  1.2464 -0.4470 -0.2557
57771SOL     OW80552   1.941   7.817  11.447  0.2025  0.3795 -0.1929
57771SOL    HW180553   1.922   7.776  11.531 -0.3524 -0.9376 -0.9327
57771SOL    HW280554   1.863   7.800  11.393  0.5510  1.1775 -0.9862
57772SOL     OW80555   1.482  11.467   3.929 -0.0770  0.3622  0.4521
57772SOL    HW180556   1.506  11.397   3.990  2.3659  0.2621 -0.5196
57772SOL    HW280557   1.492  11.428   3.842  0.7092  1.7025 -0.0847
57773SOL     OW80558   4.673   6.072   8.150  0.6516 -0.1270  0.3695
57773SOL    HW180559   4.664   6.005   8.082  1.5739 -0.0004  0.1174
57773SOL    HW280560   4.739   6.132   8.117  0.4577  0.4368  0.9824
57774SOL     OW80561   6.562  12.009   1.604  0.6880 -0.0706 -0.2099
57774SOL    HW180562   6.567  12.049   1.517  0.4029 -0.1221 -0.2538
57774SOL    HW280563   6.531  12.079   1.661  1.2784  0.0771 -0.0677
57775SOL     OW80564   8.971  12.244  10.326 -0.4857 -0.3779 -0.4469
57775SOL    HW180565   8.898  12.292  10.366 -1.1205 -1.3896 -0.3412
57775SOL    HW280566   8.932  12.199  10.251 -0.3342 -2.0806  0.4375
57776SOL     OW80567   3.425  12.513   3.334 -0.1064  0.4725  0.2596
57776SOL    HW180568   3.404  12.477   3.421 -1.0212 -0.2762 -0.2562
57776SOL    HW280569   3.513  12.550   3.345 -0.3764  0.7951  1.6243
57777SOL     OW80570   1.488   4.232  12.449 -0.4953  0.1617 -0.5586
57777SOL    HW180571   1.555   4.243  12.516 -1.2608  0.7410  0.1361
57777SOL    HW280572   1.449   4.319  12.440 -1.6380 -0.3193 -0.4114
57778SOL     OW80573  10.500   5.984   3.900 -0.5814 -0.4940 -0.0811
57778SOL    HW180574  10.411   5.957   3.879 -0.5759  0.5266 -1.5216
57778SOL    HW280575  10.495   6.079   3.909  0.8022 -0.0553 -2.9035
57779SOL     OW80576   1.533   2.643   5.370  0.4089  0.1948  0.4911
57779SOL    HW180577   1.492   2.724   5.399 -0.0008 -0.2798  1.2713
57779SOL    HW280578   1.462   2.579   5.370  1.0039 -0.4846  1.2418
57780SOL     OW80579  11.884   6.423   1.038 -0.1054  0.6363 -0.1833
57780SOL    HW180580  11.948   6.352   1.045 -0.8952 -0.0716 -0.0321
57780SOL    HW280581  11.800   6.383   1.061 -0.4163  1.8664  0.9863
57781SOL     OW80582  11.390   4.078   1.688  0.4734 -0.4616  0.2021
57781SOL    HW180583  11.472   4.104   1.647 -0.3273 -1.1284 -1.9221
57781SOL    HW280584  11.417   4.034   1.769  2.1185  0.5734  0.2683
57782SOL     OW80585  12.593   8.032  10.616  0.2843 -0.7812  0.0877
57782SOL    HW180586  12.575   8.122  10.586 -1.3859 -0.6179  1.4169
57782SOL    HW280587  12.682   8.014  10.586  0.4130  1.0798 -0.7862
57783SOL     OW80588   9.233   8.762   3.352  0.6996 -0.6148  0.1447
57783SOL    HW180589   9.152   8.751   3.402  1.1070  0.3470  1.0480
57783SOL    HW280590   9.303   8.758   3.417  1.1962  1.5115 -0.1699
57784SOL     OW80591  10.816  12.351   1.324  0.1652 -0.3288  0.2117
57784SOL    HW180592  10.890  12.409   1.343  0.4079 -0.9194  1.1170
57784SOL    HW280593  10.857  12.268   1.299 -0.1853 -0.2878 -0.5088
57785SOL     OW80594   3.101  12.549   9.862 -0.3048 -0.4994  0.4550
57785SOL    HW180595   3.031  12.614   9.861 -0.6495 -0.8656 -0.6807
57785SOL    HW280596   3.175  12.593   9.820 -0.1757 -0.4649  0.7138
57786SOL     OW80597   5.730   9.370   2.214  0.0990 -0.1826 -0.2038
57786SOL    HW180598   5.706   9.454   2.253 -0.0099 -0.6361  0.7358
57786SOL    HW280599   5.715   9.382   2.120 -2.0187  0.1747  0.1138
57787SOL     OW80600   8.914   0.797   6.640 -0.2628 -0.1060  0.0425
57787SOL    HW180601   8.999   0.780   6.681 -0.6081  0.9321  1.2721
57787SOL    HW280602   8.925   0.883   6.598 -0.8203  0.2529  0.6079
57788SOL     OW80603  10.518   1.814   5.695  0.1731 -0.1778 -1.0823
57788SOL    HW180604  10.545   1.848   5.610 -0.3378 -0.4176 -1.3452
57788SOL    HW280605  10.429   1.846   5.706  0.1718 -0.3037 -0.7178
57789SOL     OW80606   3.102   7.568   3.840  0.5385  0.5689 -0.4382
57789SOL    HW180607   3.079   7.544   3.930  2.9074  1.6127  0.5393
57789SOL    HW280608   3.166   7.503   3.813 -1.3201 -0.6820 -2.0460
57790SOL     OW80609   8.265   9.436   1.753 -0.0785 -0.2407 -0.3476
57790SOL    HW180610   8.339   9.449   1.813  0.5175  0.4092 -1.1875
57790SOL    HW280611   8.199   9.499   1.783 -0.3539 -0.9004  0.4759
57791SOL     OW80612   6.559   6.788   5.940 -0.6100  0.3251  0.2336
57791SOL    HW180613   6.642   6.742   5.925 -0.1389  1.7215 -1.9288
57791SOL    HW280614   6.493   6.718   5.940  0.3536 -0.6128 -0.1150
57792SOL     OW80615   1.874   7.025   0.134 -0.5347 -0.6983  0.0063
57792SOL    HW180616   1.917   6.985   0.209 -0.2196 -1.3805 -0.5203
57792SOL    HW280617   1.788   7.051   0.166  0.4740  1.2788  1.2486
57793SOL     OW80618   4.992   6.312  11.111  0.1818 -0.1214 -0.2824
57793SOL    HW180619   5.017   6.359  11.191  2.1754 -0.6177 -0.5514
57793SOL    HW280620   4.930   6.246  11.140 -0.1794  0.5947  0.6172
57794SOL     OW80621   8.305  11.287   2.636  0.3404  0.8935  0.3683
57794SOL    HW180622   8.336  11.213   2.689 -2.2511 -0.9776 -0.5414
57794SOL    HW280623   8.385  11.326   2.601  1.8522 -1.0751  1.4012
57795SOL     OW80624   4.687   2.631   1.481 -0.0973 -0.2201  0.1273
57795SOL    HW180625   4.623   2.618   1.411 -1.7686  2.0389  1.1230
57795SOL    HW280626   4.703   2.543   1.516 -0.9297 -1.1046 -1.5846
57796SOL     OW80627   9.039   9.522  11.811 -0.0358  0.6467 -0.1684
57796SOL    HW180628   9.055   9.428  11.817 -1.2072  0.4684  0.5160
57796SOL    HW280629   8.983   9.532  11.734 -1.0577  0.5935  0.5434
57797SOL     OW80630  10.010   4.410   2.650  0.5960  0.1170 -0.5777
57797SOL    HW180631   9.964   4.479   2.698  1.0815 -0.4298  0.7070
57797SOL    HW280632  10.072   4.374   2.713  0.0839 -1.7626 -1.1063
57798SOL     OW80633   8.638   6.731   0.081 -0.2441  0.3430  0.4172
57798SOL    HW180634   8.707   6.666   0.097  0.3390  0.5933 -0.9383
57798SOL    HW280635   8.645   6.751  -0.013 -1.6110  1.0128  0.4341
57799SOL     OW80636   5.941   9.622   1.381 -0.1946  0.0485 -0.3532
57799SOL    HW180637   5.850   9.593   1.391 -0.1362 -0.6057 -1.4442
57799SOL    HW280638   5.987   9.583   1.455 -0.2291 -2.3661 -1.4885
57800SOL     OW80639   9.386   9.993   0.303  0.5634  0.1527 -0.5663
57800SOL    HW180640   9.433  10.066   0.342 -0.5677  0.7412 -0.2758
57800SOL    HW280641   9.369   9.933   0.376  0.6459  0.0577 -0.6249
57801SOL     OW80642   0.011   1.723   9.436  0.3213 -0.0284 -0.8354
57801SOL    HW180643   0.072   1.665   9.391 -0.0258 -0.2810 -0.9820
57801SOL    HW280644  -0.070   1.717   9.386  0.1016  0.1175 -0.5014
57802SOL     OW80645   2.169   4.454   9.572 -0.5396 -0.0797  0.0538
57802SOL    HW180646   2.175   4.502   9.489 -1.3344  0.5134  0.3235
57802SOL    HW280647   2.123   4.373   9.550 -0.6376  0.0204 -0.1084
57803SOL     OW80648   9.234  11.222   2.293 -0.1860  0.2835  0.0189
57803SOL    HW180649   9.222  11.185   2.205 -0.9838 -1.4830  0.8160
57803SOL    HW280650   9.222  11.147   2.352 -0.8996  1.6548  1.6985
57804SOL     OW80651  11.662   9.400   8.091 -0.6673 -0.4009 -0.3826
57804SOL    HW180652  11.570   9.397   8.114 -0.4484  0.3395  0.6804
57804SOL    HW280653  11.708   9.389   8.174  0.1802  1.0477 -0.6143
57805SOL     OW80654   3.173   0.936  10.637  0.0117 -0.1850 -0.0900
57805SOL    HW180655   3.193   0.843  10.640  0.6985 -0.0547 -0.2941
57805SOL    HW280656   3.157   0.960  10.728  0.4670 -0.3775  0.0459
57806SOL     OW80657   8.564  10.761   2.016 -0.1673  0.0106 -0.0289
57806SOL    HW180658   8.608  10.693   2.068  1.0338 -0.0800 -1.1201
57806SOL    HW280659   8.497  10.714   1.966 -1.3767  0.1069  1.4283
57807SOL     OW80660   7.497   7.285   2.671 -0.9311  0.0031  0.3544
57807SOL    HW180661   7.419   7.270   2.619 -0.7496  0.8743 -0.1968
57807SOL    HW280662   7.570   7.275   2.610 -0.7311  1.3999  0.3132
57808SOL     OW80663   3.221   2.571  12.458 -0.0902 -0.9371  0.2654
57808SOL    HW180664   3.155   2.592  12.393  0.2835 -0.4179  0.0511
57808SOL    HW280665   3.189   2.491  12.500 -2.6523  1.1110  2.5893
57809SOL     OW80666  10.542   8.449  11.433 -0.1012 -0.4198 -0.2821
57809SOL    HW180667  10.553   8.491  11.348  1.5970  0.7284  0.4560
57809SOL    HW280668  10.458   8.483  11.465 -0.0129  0.3552 -0.8314
57810SOL     OW80669  11.672   6.619  10.395  0.0955  0.8167  0.3252
57810SOL    HW180670  11.619   6.573  10.329  0.4085 -1.6719  1.6652
57810SOL    HW280671  11.762   6.603  10.368  0.2101  0.7316  0.7582
57811SOL     OW80672   3.639   2.740  11.450  0.3875  0.0735 -0.0410
57811SOL    HW180673   3.585   2.688  11.391 -0.8419  0.1438  0.9982
57811SOL    HW280674   3.688   2.676  11.501  1.4162  0.0114 -1.0606
57812SOL     OW80675   0.891   2.296   1.758  0.1275 -0.3760  0.7913
57812SOL    HW180676   0.958   2.359   1.784 -0.9224  0.0186  2.7701
57812SOL    HW280677   0.853   2.265   1.841 -1.7462 -0.9766 -0.2184
57813SOL     OW80678  10.717   2.067   7.814  0.5148 -0.6446  0.0931
57813SOL    HW180679  10.658   1.994   7.794  0.1495 -0.2987 -0.0875
57813SOL    HW280680  10.765   2.082   7.733  0.8376 -0.9097  0.2325
57814SOL     OW80681   5.059   3.630   8.488 -0.2911  0.2055  0.0537
57814SOL    HW180682   5.028   3.597   8.404  1.3733  0.6569 -0.7903
57814SOL    HW280683   5.081   3.722   8.470  0.0733  0.3045  0.9791
57815SOL     OW80684  10.033   6.471  12.470  0.4090 -0.3769 -0.3780
57815SOL    HW180685   9.998   6.560  12.469 -0.4551 -0.7150 -0.6645
57815SOL    HW280686   9.957   6.415  12.481  1.0322 -1.0528  0.7816
57816SOL     OW80687   3.413  11.378  12.584 -0.1815  0.2654  0.0813
57816SOL    HW180688   3.337  11.343  12.630 -0.5513  0.6158 -0.2526
57816SOL    HW280689   3.488  11.348  12.635 -0.4358 -1.4994 -0.5272
57817SOL     OW80690   9.641  10.768   1.521 -0.3582  0.4819  0.3630
57817SOL    HW180691   9.651  10.715   1.601 -0.6001  0.1339  0.1654
57817SOL    HW280692   9.694  10.846   1.538  1.1145 -0.4192  0.1317
57818SOL     OW80693   9.311  12.413   9.426  0.2964 -0.2168 -0.5926
57818SOL    HW180694   9.370  12.441   9.496 -0.9913  0.1663  0.3744
57818SOL    HW280695   9.369  12.385   9.355  1.6258  0.1584  0.3185
57819SOL     OW80696   0.781   9.768   7.855  0.0158  0.3839 -0.1150
57819SOL    HW180697   0.778   9.722   7.771 -0.3850  0.7802 -0.3187
57819SOL    HW280698   0.742   9.706   7.917 -2.0432  1.0503 -0.6737
57820SOL     OW80699  12.143  11.545  11.977  0.1751 -0.0972  0.4665
57820SOL    HW180700  12.049  11.555  11.962  0.0717 -0.2675  1.0067
57820SOL    HW280701  12.164  11.612  12.042  0.7545  1.0989 -0.8790
57821SOL     OW80702   6.987   6.385  10.625  0.5836 -0.3899 -0.5148
57821SOL    HW180703   7.010   6.303  10.580 -0.8303 -0.6598 -0.8037
57821SOL    HW280704   6.908   6.363  10.675  1.0569  0.4141  0.6176
57822SOL     OW80705   2.656  11.907   3.629 -0.0626 -0.5782 -1.0398
57822SOL    HW180706   2.656  11.954   3.546  2.1448 -0.5697 -1.0947
57822SOL    HW280707   2.580  11.943   3.676 -0.0485  1.0538 -2.1583
57823SOL     OW80708   4.586   3.771  12.173  0.1067 -0.3631 -0.2450
57823SOL    HW180709   4.659   3.830  12.159  1.2251 -1.6384  0.0075
57823SOL    HW280710   4.515   3.807  12.120  0.1954  2.1042  1.1741
57824SOL     OW80711  10.535   4.059  10.593  0.1524  0.0825 -0.2566
57824SOL    HW180712  10.483   4.088  10.669 -1.2691  0.9378 -1.4963
57824SOL    HW280713  10.562   4.140  10.550  0.2538 -0.3942 -1.1100
57825SOL     OW80714   6.054  12.083   6.105  0.6920 -0.1928  0.4609
57825SOL    HW180715   6.113  12.098   6.032 -0.0648  0.0914 -0.1121
57825SOL    HW280716   6.090  12.008   6.151  0.1502 -1.6118 -1.3319
57826SOL     OW80717  10.903   7.714   1.491  0.2229  0.1938  0.3470
57826SOL    HW180718  10.913   7.636   1.545  0.6075 -1.8396 -2.4298
57826SOL    HW280719  10.989   7.755   1.491  0.9216 -1.1853 -0.6142
57827SOL     OW80720  12.197  11.795   5.334 -0.2442 -0.1495 -0.1075
57827SOL    HW180721  12.286  11.821   5.358 -0.1827  0.6707 -1.1425
57827SOL    HW280722  12.175  11.852   5.260 -1.2267 -1.0753 -0.5506
57828SOL     OW80723  12.428  11.326  12.166  0.4267 -0.9140 -0.3939
57828SOL    HW180724  12.368  11.366  12.230  1.5852  0.3222 -0.0437
57828SOL    HW280725  12.484  11.269  12.219  0.2966 -1.1932 -0.5581
57829SOL     OW80726   2.556   3.863   8.249 -0.2743  0.3347  0.0654
57829SOL    HW180727   2.647   3.892   8.258 -0.4078  0.9565 -0.4797
57829SOL    HW280728   2.554   3.818   8.164 -0.1291 -1.0715  0.7902
57830SOL     OW80729   6.362   9.796   2.073 -0.4285 -0.0705  0.2763
57830SOL    HW180730   6.267   9.801   2.074 -0.4552 -0.5161  0.2667
57830SOL    HW280731   6.383   9.724   2.132 -0.1798 -1.0284 -0.9505
57831SOL     OW80732   8.658   5.710   8.876 -0.3475  0.3325  0.1418
57831SOL    HW180733   8.714   5.639   8.906 -0.5511 -0.7426 -1.8999
57831SOL    HW280734   8.711   5.757   8.812 -0.9954  0.6607 -0.1585
57832SOL     OW80735  11.102   4.209  11.442  0.1694  0.0351 -0.1381
57832SOL    HW180736  11.031   4.193  11.379  1.4035 -4.2796 -0.7819
57832SOL    HW280737  11.176   4.236  11.388  1.1924 -3.5474 -0.7596
57833SOL     OW80738   4.289   2.896   3.037 -0.0697 -0.0193 -0.0547
57833SOL    HW180739   4.348   2.903   2.962 -1.3475 -1.8252 -1.3223
57833SOL    HW280740   4.226   2.828   3.012  0.1749 -1.6415  3.1517
57834SOL     OW80741  10.587  10.387  10.831  0.2947  0.1404 -0.0753
57834SOL    HW180742  10.495  10.391  10.859 -0.0906 -0.5553 -1.1404
57834SOL    HW280743  10.630  10.334  10.897 -0.6060 -1.5540 -0.7731
57835SOL     OW80744   4.352   1.224   5.652 -0.2207  0.2001  0.4506
57835SOL    HW180745   4.353   1.175   5.734  1.3760  1.6382  1.3626
57835SOL    HW280746   4.360   1.156   5.584 -0.1753 -0.9256  1.5391
57836SOL     OW80747   4.061   7.780   4.921 -0.5922  0.0353  0.0831
57836SOL    HW180748   4.118   7.854   4.943 -1.4105  0.2097  1.8179
57836SOL    HW280749   4.019   7.806   4.839  0.7739  0.4859 -0.5155
57837SOL     OW80750   7.746  12.261  10.689 -0.3165  0.2116 -0.2233
57837SOL    HW180751   7.819  12.238  10.632  1.2543  0.6593  1.5185
57837SOL    HW280752   7.768  12.223  10.774 -1.7316  1.0387  0.5639
57838SOL     OW80753   9.139  10.235   9.323 -0.2294  0.0024  0.1684
57838SOL    HW180754   9.073  10.175   9.360 -0.7065 -0.0053 -0.6595
57838SOL    HW280755   9.141  10.212   9.230 -0.4423  1.2927 -0.1656
57839SOL     OW80756   5.914   0.859   6.286  0.5581 -0.0640 -0.1030
57839SOL    HW180757   5.836   0.804   6.287  0.2342  0.3811 -0.4643
57839SOL    HW280758   5.887   0.940   6.330  0.7234  0.2085 -0.4973
57840SOL     OW80759  11.986  10.825  10.823  0.0139  0.2955 -0.0228
57840SOL    HW180760  12.002  10.752  10.882 -1.4477  0.1185  0.1790
57840SOL    HW280761  12.016  10.793  10.738  2.7457  0.7866  0.6573
57841SOL     OW80762   2.734  10.081   8.437  0.0629  0.1867  0.0963
57841SOL    HW180763   2.764  10.164   8.400  1.9981 -0.9688 -1.1254
57841SOL    HW280764   2.723  10.024   8.361  0.8498 -1.2869  1.0495
57842SOL     OW80765   8.825   9.016  12.684  0.7721 -1.1113  0.3251
57842SOL    HW180766   8.791   8.929  12.665 -0.9927 -0.2665 -0.6243
57842SOL    HW280767   8.771   9.075  12.632  3.1284  0.4350 -0.5299
57843SOL     OW80768   6.824  10.272   6.164 -0.0951 -0.4880  0.3414
57843SOL    HW180769   6.755  10.301   6.104 -1.8365 -0.8417  2.0850
57843SOL    HW280770   6.903  10.269   6.109 -0.7233  2.9791 -1.0520
57844SOL     OW80771  11.863   5.260  12.188  0.4393  0.6494 -0.3198
57844SOL    HW180772  11.880   5.303  12.104  1.8025  2.0876  0.6401
57844SOL    HW280773  11.776   5.292  12.214 -0.5986 -0.8329 -1.7259
57845SOL     OW80774   1.064  10.069   8.137  0.6555 -0.1440  0.6913
57845SOL    HW180775   0.999  10.049   8.069  0.9611  0.3731  0.2339
57845SOL    HW280776   1.108   9.986   8.153 -0.8858 -0.7757  1.8509
57846SOL     OW80777   1.709   1.937   1.158 -0.0676 -0.4584  0.1837
57846SOL    HW180778   1.773   1.870   1.181  0.6099 -0.0696 -0.4969
57846SOL    HW280779   1.756   2.020   1.171  1.8611 -0.0788 -5.9174
57847SOL     OW80780   8.726   1.161  11.871  0.1106 -0.3079  0.0990
57847SOL    HW180781   8.656   1.124  11.924  0.0080  0.1963  0.3273
57847SOL    HW280782   8.759   1.234  11.923 -0.7609  0.9416 -1.0117
57848SOL     OW80783   2.604  12.647   6.536  0.2803  0.3673 -0.0110
57848SOL    HW180784   2.558  12.638   6.619  0.8283 -0.1518  0.2446
57848SOL    HW280785   2.565  12.579   6.480  2.7579 -2.2748  1.1646
57849SOL     OW80786   4.766   1.265   5.181  0.2076 -0.5878 -0.2722
57849SOL    HW180787   4.670   1.263   5.189  0.3244 -2.3479  1.8686
57849SOL    HW280788   4.784   1.333   5.117 -2.4573  0.2541 -0.2329
57850SOL     OW80789   1.701   6.238   2.951  0.1440  0.0301 -1.0649
57850SOL    HW180790   1.671   6.147   2.945  3.5050 -1.2563 -0.6694
57850SOL    HW280791   1.672   6.278   2.869 -2.4382 -0.9591 -0.7320
57851SOL     OW80792   1.598   5.718  11.066 -0.3500 -0.1701 -0.2372
57851SOL    HW180793   1.627   5.793  11.117  0.8471  0.5108 -1.8465
57851SOL    HW280794   1.645   5.644  11.104 -0.5440  0.0867  0.5267
57852SOL     OW80795   0.963   7.741   9.132 -0.5592 -0.7491 -0.3369
57852SOL    HW180796   0.953   7.747   9.227  2.8119  0.4290  0.0702
57852SOL    HW280797   0.918   7.818   9.098  1.1819  0.7836  0.6770
57853SOL     OW80798   3.875   8.532   9.353 -0.1563  0.5649 -0.5799
57853SOL    HW180799   3.962   8.495   9.339  0.2631  0.5936  1.5917
57853SOL    HW280800   3.819   8.457   9.372 -0.3792  0.6540 -0.8606
57854SOL     OW80801  11.628   1.974   2.420 -0.3545  0.4365  0.4552
57854SOL    HW180802  11.588   2.015   2.343 -1.2927  3.4073  2.3439
57854SOL    HW280803  11.556   1.929   2.464  0.2590 -1.6053 -0.5013
57855SOL     OW80804   0.282   4.451  11.364  1.0790  0.2089 -0.3893
57855SOL    HW180805   0.322   4.493  11.441  1.5665 -0.7197 -0.1148
57855SOL    HW280806   0.353   4.445  11.301  1.4168 -1.4568  0.1002
57856SOL     OW80807   3.057   8.627   3.960 -0.5404  0.0214  0.1241
57856SOL    HW180808   3.041   8.551   4.017 -1.1553  0.7638  0.9848
57856SOL    HW280809   3.131   8.601   3.906 -0.1244 -0.8431  1.0615
57857SOL     OW80810  11.727  12.615   6.076  0.7595  0.5175 -0.3511
57857SOL    HW180811  11.759  12.639   5.989 -0.5224  1.9295 -0.4592
57857SOL    HW280812  11.662  12.546   6.059 -0.4233  1.6759 -0.6569
57858SOL     OW80813  11.428   8.278  11.377 -0.0895 -0.1161  0.3717
57858SOL    HW180814  11.482   8.334  11.321 -1.1448  0.3514 -0.2070
57858SOL    HW280815  11.344   8.323  11.381 -0.9323 -1.6030 -0.0295
57859SOL     OW80816   7.469   2.713   3.705  0.0679 -0.2557 -0.3965
57859SOL    HW180817   7.554   2.679   3.734 -0.0159  0.4590  0.7517
57859SOL    HW280818   7.414   2.636   3.695 -0.0735 -0.5316  1.9984
57860SOL     OW80819   2.501   8.724   4.022 -0.3406  0.7287  0.2033
57860SOL    HW180820   2.434   8.748   4.087  1.0209  0.2652  1.8773
57860SOL    HW280821   2.481   8.778   3.946 -1.1190  2.4625  1.5496
57861SOL     OW80822   4.531   9.827   5.907  0.7682  0.7125  0.2386
57861SOL    HW180823   4.459   9.883   5.934 -1.2684  0.2437 -3.5575
57861SOL    HW280824   4.506   9.739   5.937 -0.1278  0.6000 -0.8072
57862SOL     OW80825   5.810   2.091   1.720  0.2872  0.1092 -0.2633
57862SOL    HW180826   5.738   2.030   1.737  0.8667 -0.3062  0.7685
57862SOL    HW280827   5.832   2.127   1.806  1.5445 -0.0374 -0.5058
57863SOL     OW80828   7.430   7.705  12.358 -0.0206 -0.1046  0.4760
57863SOL    HW180829   7.410   7.611  12.362  1.5450 -0.4689  0.4617
57863SOL    HW280830   7.461   7.727  12.446  0.0723  0.2838  0.3493
57864SOL     OW80831   2.661   4.212  10.911 -0.3895 -0.1959  0.5248
57864SOL    HW180832   2.619   4.197  10.996 -0.3036 -0.2097  0.5643
57864SOL    HW280833   2.679   4.306  10.910  1.2818 -0.4772  1.2935
57865SOL     OW80834   6.140   8.317   5.060  0.8362  0.3768 -0.0251
57865SOL    HW180835   6.164   8.246   5.000  0.5776  0.9939 -0.8817
57865SOL    HW280836   6.102   8.272   5.136  1.2339 -0.4237 -0.2838
57866SOL     OW80837   0.325   2.818   3.144  0.5920 -0.4961  0.1103
57866SOL    HW180838   0.341   2.744   3.085 -1.1037 -0.4431 -0.4770
57866SOL    HW280839   0.232   2.810   3.166  0.7008  0.7310  1.0703
57867SOL     OW80840   3.660   0.883   2.598  0.2158  0.2582 -0.8719
57867SOL    HW180841   3.611   0.951   2.643  0.4324  1.2584 -2.1030
57867SOL    HW280842   3.623   0.882   2.509  0.5753 -0.8701 -1.0294
57868SOL     OW80843   0.527   8.053   2.156 -0.2090  0.4728  0.3099
57868SOL    HW180844   0.610   8.022   2.192 -0.9989  1.0137  2.8417
57868SOL    HW280845   0.516   8.141   2.192 -2.4830 -0.1096  1.2320
57869SOL     OW80846   1.138   1.208   1.581 -0.3834  0.0759 -0.0350
57869SOL    HW180847   1.185   1.131   1.614 -1.3979 -0.7082 -0.3448
57869SOL    HW280848   1.072   1.171   1.522 -0.9761  1.1860 -0.0816
57870SOL     OW80849   9.345   7.994   7.869  0.0973 -0.4581  0.0127
57870SOL    HW180850   9.340   7.908   7.828  1.6092 -0.7485  0.3995
57870SOL    HW280851   9.390   7.978   7.952 -0.7894  0.5061  0.7097
57871SOL     OW80852  12.436  10.774   9.156  0.4631  0.1752 -0.5587
57871SOL    HW180853  12.360  10.739   9.109  0.0709  0.2314  0.0215
57871SOL    HW280854  12.430  10.735   9.243  0.4685  1.0605 -0.1578
57872SOL     OW80855   9.607  11.685   7.753  0.0160 -0.1494 -0.5437
57872SOL    HW180856   9.692  11.641   7.749 -0.6545 -1.5547  0.0104
57872SOL    HW280857   9.546  11.621   7.716 -0.8290  0.7812 -0.7932
57873SOL     OW80858   7.531  11.525   1.201  0.9079 -0.5052 -0.1596
57873SOL    HW180859   7.523  11.438   1.240  1.1371 -1.1138 -1.4173
57873SOL    HW280860   7.569  11.509   1.115  0.7322  0.8291 -0.5041
57874SOL     OW80861   1.994   9.703   9.022 -0.2251  0.1924  0.6184
57874SOL    HW180862   1.996   9.798   9.029  0.1497  0.3377 -1.0401
57874SOL    HW280863   2.036   9.672   9.102  0.7473  1.4494  0.6305
57875SOL     OW80864   2.335   7.599   8.752  0.0048 -0.2387  0.2512
57875SOL    HW180865   2.391   7.660   8.800  1.3616 -1.8143  0.7582
57875SOL    HW280866   2.362   7.609   8.660 -0.7256  0.8525  0.1347
57876SOL     OW80867   7.587   6.876  12.565  0.2304 -0.5002 -0.0385
57876SOL    HW180868   7.640   6.802  12.538  1.5842  0.0461  1.0251
57876SOL    HW280869   7.533   6.896  12.488  0.3255 -2.1295 -0.5612
57877SOL     OW80870   7.936   4.748   6.807 -0.2246  0.1921  0.1184
57877SOL    HW180871   7.877   4.680   6.774  0.5437 -0.1915 -0.5164
57877SOL    HW280872   7.881   4.827   6.813 -0.8434 -0.1996 -0.2559
57878SOL     OW80873   6.656   3.601   0.641  0.3871 -0.3293 -0.0882
57878SOL    HW180874   6.576   3.600   0.589 -0.3038 -0.3131  0.9492
57878SOL    HW280875   6.646   3.529   0.704  1.2447 -0.4139 -0.0336
57879SOL     OW80876  10.225   5.743   3.533  0.3556  0.4959  0.0622
57879SOL    HW180877  10.309   5.705   3.559 -0.1003 -0.0955  0.7337
57879SOL    HW280878  10.207   5.705   3.447  0.0034 -0.7067  0.6318
57880SOL     OW80879   3.328  11.366   5.944 -0.0666  0.4006  0.0025
57880SOL    HW180880   3.252  11.372   5.885 -0.8246 -0.6208  0.8576
57880SOL    HW280881   3.401  11.399   5.891 -1.0026  0.9518 -0.9988
57881SOL     OW80882  12.500   0.404   4.900 -0.3893  0.0870 -0.3317
57881SOL    HW180883  12.485   0.382   4.992  1.7577  0.0673  0.0584
57881SOL    HW280884  12.418   0.445   4.872 -1.0034  0.3372  1.6578
57882SOL     OW80885  10.681   0.021   7.437  0.3465 -0.5738 -0.7899
57882SOL    HW180886  10.727  -0.057   7.408  0.2519 -1.1639  0.5788
57882SOL    HW280887  10.741   0.062   7.499 -0.8642 -1.2891  0.9251
57883SOL     OW80888   6.703   6.556  12.075 -0.2483 -0.3282  0.2560
57883SOL    HW180889   6.672   6.495  12.142  1.1084  0.3920  1.5904
57883SOL    HW280890   6.787   6.588  12.108  0.0282  0.7454 -1.3678
57884SOL     OW80891   4.451   0.115  11.004  0.4753  0.1153 -0.1952
57884SOL    HW180892   4.544   0.136  11.016  0.4944 -0.0473 -0.0561
57884SOL    HW280893   4.451   0.028  10.964  0.3670 -0.1906  0.4665
57885SOL     OW80894   1.180   4.764  11.719 -0.2703 -0.1419 -0.9903
57885SOL    HW180895   1.247   4.748  11.786 -0.3237 -0.3510 -0.9880
57885SOL    HW280896   1.182   4.859  11.706 -1.9649  0.2621  1.1077
57886SOL     OW80897   1.205   0.921  10.924  0.4091  0.2943  0.5424
57886SOL    HW180898   1.235   0.990  10.865  1.1920 -2.1740 -2.1687
57886SOL    HW280899   1.268   0.922  10.996  1.0976  1.6118 -0.0450
57887SOL     OW80900   8.981  12.145   6.412 -0.3895  0.6996 -0.6149
57887SOL    HW180901   8.966  12.121   6.504  1.6111 -0.3066 -0.5031
57887SOL    HW280902   9.045  12.081   6.381 -2.0397  0.1705 -3.1420
57888SOL     OW80903   7.631   0.131  12.227  0.0257 -0.7234  0.5570
57888SOL    HW180904   7.720   0.151  12.197 -0.3183 -0.1390 -0.1006
57888SOL    HW280905   7.596   0.215  12.256 -0.5244 -0.8392  0.2387
57889SOL     OW80906   6.781   1.902  10.117 -0.0933 -0.1830  0.3688
57889SOL    HW180907   6.698   1.886  10.161  0.2753  0.3651  1.2921
57889SOL    HW280908   6.804   1.992  10.142  0.4231 -0.0713 -0.4623
57890SOL     OW80909  10.400  12.179  10.602 -0.2020  0.5723 -0.3555
57890SOL    HW180910  10.424  12.135  10.520 -2.3825  0.0694 -0.7753
57890SOL    HW280911  10.319  12.225  10.582 -0.7757  0.4492  1.5151
57891SOL     OW80912  11.527   9.644   7.294  0.0378 -0.0334 -0.1818
57891SOL    HW180913  11.475   9.568   7.265 -0.2588  0.3481 -0.6619
57891SOL    HW280914  11.563   9.681   7.214 -0.5455  0.8604 -0.0444
57892SOL     OW80915   0.879   7.213   0.994 -0.5970 -0.3734  0.2473
57892SOL    HW180916   0.789   7.248   0.996 -0.2704  0.6868 -1.4763
57892SOL    HW280917   0.913   7.233   1.081 -1.2987  1.3316  0.1842
57893SOL     OW80918   3.756   5.678   0.636 -0.0007  0.2624 -0.1684
57893SOL    HW180919   3.785   5.768   0.649 -2.0948  0.7963  1.3022
57893SOL    HW280920   3.675   5.685   0.586  1.3486 -1.0698 -2.7507
57894SOL     OW80921   2.580   7.959  11.666  0.3796  0.2013  0.3570
57894SOL    HW180922   2.523   7.960  11.589  0.1939 -2.2052  0.3880
57894SOL    HW280923   2.669   7.966  11.631  0.2206  1.1752  0.1113
57895SOL     OW80924   8.230   3.602   2.359 -0.3587 -0.8543  0.2046
57895SOL    HW180925   8.271   3.661   2.423 -0.5614  1.0375 -1.3108
57895SOL    HW280926   8.295   3.593   2.289 -0.7772 -1.5252 -0.1116
57896SOL     OW80927   3.070   6.409   3.449  0.4183 -0.3939  0.6916
57896SOL    HW180928   3.038   6.475   3.511  1.5307  1.6405 -0.7605
57896SOL    HW280929   3.061   6.451   3.363  0.1706 -2.5871 -0.4140
57897SOL     OW80930   3.351   8.986   8.065 -0.0211  0.4909 -0.7255
57897SOL    HW180931   3.344   9.081   8.070  1.9987  0.7641 -1.9821
57897SOL    HW280932   3.439   8.966   8.097 -0.8786 -1.1169  0.8036
57898SOL     OW80933   8.529  12.443   3.222  0.1789  0.1571  0.0174
57898SOL    HW180934   8.548  12.479   3.309  0.3621 -1.3687  0.6324
57898SOL    HW280935   8.570  12.357   3.222 -0.7467 -0.3128 -1.2000
57899SOL     OW80936   2.159   0.631   4.080 -0.6416 -0.3188  0.1907
57899SOL    HW180937   2.160   0.632   3.984 -1.3975 -1.2884  0.1474
57899SOL    HW280938   2.251   0.624   4.105 -0.3118  1.3968 -0.4059
57900SOL     OW80939   2.840   2.819  12.404 -0.1651  0.0832 -0.1820
57900SOL    HW180940   2.916   2.762  12.389  0.3836  0.3686  1.2542
57900SOL    HW280941   2.868   2.905  12.371 -0.5575 -0.2168 -1.3050
57901SOL     OW80942  11.916   7.650   5.590 -0.2920  0.2615 -0.7385
57901SOL    HW180943  11.844   7.713   5.580 -0.4855 -0.1818 -2.6629
57901SOL    HW280944  11.877   7.576   5.636 -0.4252  0.9702  0.3217
57902SOL     OW80945   8.583   9.094   7.218 -0.1801  0.0816 -0.3496
57902SOL    HW180946   8.618   9.173   7.177  0.8495  0.1614  0.6409
57902SOL    HW280947   8.489   9.109   7.221 -0.2544  0.2568 -2.2603
57903SOL     OW80948   9.591   5.262   1.970  0.3512  0.0485  0.3610
57903SOL    HW180949   9.674   5.242   2.012 -0.5106  1.2159  2.8136
57903SOL    HW280950   9.615   5.301   1.886  2.2324 -0.6142  0.5493
57904SOL     OW80951   6.911   9.156   1.275 -1.0672  0.0057  0.0273
57904SOL    HW180952   6.960   9.081   1.309 -0.0902 -0.0639 -1.4232
57904SOL    HW280953   6.974   9.229   1.280 -1.5500  0.4183  0.1365
57905SOL     OW80954   5.999   1.745  11.400 -0.7871 -0.1007  0.5570
57905SOL    HW180955   5.915   1.790  11.394 -0.7380 -0.0996 -0.2348
57905SOL    HW280956   6.062   1.814  11.420 -0.8127  0.0858  0.0117
57906SOL     OW80957   1.053   1.729  11.977  0.2358  0.3618  0.0833
57906SOL    HW180958   1.081   1.656  12.033  1.4053 -0.6685 -1.7439
57906SOL    HW280959   0.974   1.697  11.935 -1.1432  1.4675  1.6938
57907SOL     OW80960   9.711  11.101   6.948  0.1215  0.2389  0.5610
57907SOL    HW180961   9.676  11.045   7.017 -0.8044 -0.1205 -0.1746
57907SOL    HW280962   9.679  11.061   6.867  0.0059  1.4465 -0.0037
57908SOL     OW80963   6.576  11.877   7.117  0.0733 -0.0585 -0.1346
57908SOL    HW180964   6.670  11.865   7.101  0.1832 -2.2247  1.6933
57908SOL    HW280965   6.535  11.799   7.079 -0.6904 -0.3601  1.2309
57909SOL     OW80966  10.193   2.942   1.333 -0.0347  0.4277 -0.2962
57909SOL    HW180967  10.165   3.034   1.329 -2.2348 -0.1141  0.5498
57909SOL    HW280968  10.127   2.895   1.282 -0.3119 -0.9073  1.2175
57910SOL     OW80969  11.129   3.416   8.864 -0.7608 -0.4130 -0.6467
57910SOL    HW180970  11.154   3.382   8.778 -1.0348  1.4997 -1.5248
57910SOL    HW280971  11.200   3.477   8.887 -0.3219 -1.4253  0.8456
57911SOL     OW80972   7.586   1.115   2.788 -0.2613  0.3206  0.4586
57911SOL    HW180973   7.667   1.063   2.785  0.1113  0.8528  1.1008
57911SOL    HW280974   7.519   1.058   2.749  0.2828 -0.3778  0.5410
57912SOL     OW80975   1.336   6.357   8.924  0.4566 -0.3697  0.1814
57912SOL    HW180976   1.337   6.309   9.007 -0.0269 -0.0368  0.3873
57912SOL    HW280977   1.425   6.352   8.892  0.4128 -1.3971  0.2066
57913SOL     OW80978   0.863   5.072   0.014  0.0523 -0.1883  0.3875
57913SOL    HW180979   0.913   5.145  -0.023 -1.0696  0.8015  0.7875
57913SOL    HW280980   0.836   5.102   0.100 -2.5219 -0.0691 -0.3800
57914SOL     OW80981   9.141  12.642   3.744  0.2500 -0.1590 -0.1480
57914SOL    HW180982   9.201  12.626   3.671 -0.3024 -2.1090 -0.2187
57914SOL    HW280983   9.181  12.596   3.818  0.3590  1.0783  0.6001
57915SOL     OW80984   6.886   3.950   0.011 -0.3118 -0.3744 -0.8059
57915SOL    HW180985   6.833   3.918   0.085 -0.2477 -0.9125 -0.9863
57915SOL    HW280986   6.946   3.878  -0.007 -0.5701 -0.3893 -1.6199
57916SOL     OW80987   7.526  12.103   4.003 -0.2360 -0.1771 -0.0072
57916SOL    HW180988   7.572  12.153   3.935  3.0418 -1.6834  0.8882
57916SOL    HW280989   7.576  12.022   4.011 -2.5804 -1.5812  1.8315
57917SOL     OW80990   3.149   5.526  11.414  0.5915  0.5215  0.4930
57917SOL    HW180991   3.085   5.576  11.364  2.7809  3.5181  0.4191
57917SOL    HW280992   3.107   5.511  11.499 -0.7293  1.0667 -0.0408
57918SOL     OW80993   2.587   1.744   9.568 -0.9777 -0.2870  0.2351
57918SOL    HW180994   2.563   1.671   9.510 -1.8204  0.8872 -0.9531
57918SOL    HW280995   2.544   1.820   9.529  2.6087  1.5426 -0.5467
57919SOL     OW80996   8.126   3.981   8.054 -0.1334  0.1506  0.4694
57919SOL    HW180997   8.190   4.051   8.044 -0.3133  0.0281 -2.3688
57919SOL    HW280998   8.043   4.026   8.068  0.2046  0.3607  1.9792
57920SOL     OW80999  11.425   7.513   9.538 -0.2018 -0.4250  0.1468
57920SOL    HW181000  11.437   7.571   9.463 -0.4019 -1.2692 -0.5560
57920SOL    HW281001  11.453   7.565   9.613  1.6750 -0.1335 -0.6973
57921SOL     OW81002   8.988   4.902  10.848  0.5606 -0.2250  0.0137
57921SOL    HW181003   9.013   4.812  10.833  0.7035 -0.2662  0.4765
57921SOL    HW281004   9.054   4.936  10.909  0.4649  0.1642 -0.0954
57922SOL     OW81005   5.188   8.896   2.469 -0.1684  0.1518  0.1650
57922SOL    HW181006   5.136   8.887   2.548 -0.6947  0.9628 -0.0825
57922SOL    HW281007   5.158   8.824   2.412 -1.6396  1.0925 -0.3064
57923SOL     OW81008  10.537   6.737  11.840 -0.0794 -0.4150  0.4408
57923SOL    HW181009  10.530   6.659  11.784 -0.5503 -0.8231  1.0554
57923SOL    HW281010  10.610   6.787  11.802 -0.1652 -0.8524 -0.3264
57924SOL     OW81011   3.735  10.023   7.883  0.4342 -0.1124  0.7302
57924SOL    HW181012   3.668   9.957   7.898 -0.2970 -0.0516 -1.7983
57924SOL    HW281013   3.692  10.107   7.901 -0.2511 -0.0706 -0.9266
57925SOL     OW81014   1.481   4.460  10.066 -0.4828 -0.3426  0.4395
57925SOL    HW181015   1.550   4.514  10.027  1.1034 -1.9909  0.8064
57925SOL    HW281016   1.498   4.372  10.032 -2.1483 -0.8937  0.9277
57926SOL     OW81017  10.589   0.661  11.924 -0.2218 -0.1296 -0.7047
57926SOL    HW181018  10.517   0.637  11.982  0.3390  0.1061  0.1020
57926SOL    HW281019  10.648   0.586  11.927 -1.4757 -1.3272 -3.1509
57927SOL     OW81020   8.633  11.780   3.170 -0.7773  0.0455 -0.6058
57927SOL    HW181021   8.580  11.714   3.125  0.7672 -1.3380 -0.4512
57927SOL    HW281022   8.702  11.803   3.108  0.4266 -0.6873  0.4087
57928SOL     OW81023   3.508   2.820   8.007  0.0076 -0.4566 -0.4909
57928SOL    HW181024   3.567   2.788   7.938  2.2674  1.4516  0.4106
57928SOL    HW281025   3.516   2.755   8.077  0.1587 -0.7628 -0.7851
57929SOL     OW81026   0.193   5.478   2.369 -0.0025 -0.2555  0.5862
57929SOL    HW181027   0.176   5.508   2.280  2.0234 -0.5123  0.0567
57929SOL    HW281028   0.191   5.383   2.364 -2.3809 -0.3271  1.4106
57930SOL     OW81029   0.798   8.677  11.566  0.3891 -0.0498  0.5275
57930SOL    HW181030   0.838   8.610  11.511 -0.0026  0.1760 -0.0459
57930SOL    HW281031   0.725   8.633  11.608  0.4893 -0.1377  0.6100
57931SOL     OW81032   1.506  10.407  12.180 -0.2632  0.1032  0.3537
57931SOL    HW181033   1.596  10.430  12.204 -0.2336  2.7328 -1.7171
57931SOL    HW281034   1.465  10.382  12.263  2.1405 -0.3643  1.4920
57932SOL     OW81035  11.191   0.224   9.982 -0.2896 -0.5710 -0.8468
57932SOL    HW181036  11.239   0.147   9.952 -0.5465 -1.3762  0.7461
57932SOL    HW281037  11.121   0.189  10.037 -0.2440  0.8175  0.1383
57933SOL     OW81038  11.125   8.699   9.573 -0.1080 -0.2133  0.7696
57933SOL    HW181039  11.085   8.779   9.539  0.4233 -0.3220 -0.1206
57933SOL    HW281040  11.051   8.649   9.609 -0.5523  0.3066  0.5875
57934SOL     OW81041   7.468   2.240   2.953  0.2680 -0.5827 -0.3334
57934SOL    HW181042   7.465   2.152   2.916  0.0510 -0.6299 -0.2042
57934SOL    HW281043   7.471   2.298   2.877  0.7900 -0.7145 -0.4154
57935SOL     OW81044   3.546   6.117  10.337  0.2664 -0.3922 -0.0926
57935SOL    HW181045   3.618   6.075  10.290 -0.2080  0.9551 -2.2077
57935SOL    HW281046   3.468   6.068  10.309  0.0734 -0.0972 -0.0803
57936SOL     OW81047   0.927  11.805  11.927 -0.0204 -0.2742 -0.3280
57936SOL    HW181048   0.942  11.716  11.896 -0.6251 -0.6238  0.3622
57936SOL    HW281049   0.896  11.795  12.017 -0.6071  0.6042 -0.4160
57937SOL     OW81050   4.645   9.161   4.788  0.1865  0.1031  0.0015
57937SOL    HW181051   4.555   9.149   4.818 -0.1122  0.4820 -0.7307
57937SOL    HW281052   4.637   9.187   4.696  1.0628 -0.3413 -0.2110
57938SOL     OW81053   9.824  11.121   9.583  0.6916  0.1687  1.2250
57938SOL    HW181054   9.919  11.125   9.593  0.5867  0.5362  2.1667
57938SOL    HW281055   9.792  11.201   9.626 -0.0402  0.0402  0.9279
57939SOL     OW81056   8.440   9.252   3.371 -0.7060  0.1559 -0.3028
57939SOL    HW181057   8.449   9.235   3.277 -0.9522 -0.1362 -0.2741
57939SOL    HW281058   8.516   9.306   3.392  0.4406 -1.3763 -0.2848
57940SOL     OW81059  10.486  11.998  10.383  0.0210  0.3055 -0.2847
57940SOL    HW181060  10.546  11.936  10.424 -2.2457 -0.9634  1.3164
57940SOL    HW281061  10.416  11.943  10.347 -1.5099  1.8324  0.2276
57941SOL     OW81062   1.529   6.798  11.073 -0.1874 -0.0015 -0.4429
57941SOL    HW181063   1.603   6.783  11.132 -1.7267  0.0772  1.6207
57941SOL    HW281064   1.564   6.856  11.006  1.4949  0.4870  0.7759
57942SOL     OW81065  10.327   6.042   7.798  0.2921  0.5617  0.0206
57942SOL    HW181066  10.262   6.083   7.855  1.7048  0.3760  1.8645
57942SOL    HW281067  10.378   6.115   7.764  0.4363  0.5801  0.2726
57943SOL     OW81068   7.284   1.803   8.789  0.2547  0.5845 -0.2559
57943SOL    HW181069   7.234   1.740   8.738 -0.2760  1.2878 -0.6255
57943SOL    HW281070   7.336   1.750   8.850  1.6551 -0.3561 -2.1667
57944SOL     OW81071   8.642  11.048   1.138 -0.3033  0.2382  0.0654
57944SOL    HW181072   8.570  11.075   1.195  0.1514 -0.1500  0.8362
57944SOL    HW281073   8.610  10.970   1.094 -0.2270 -0.1696  0.7077
57945SOL     OW81074   8.929   2.402  10.266  0.0663  0.2097 -0.3774
57945SOL    HW181075   8.969   2.446  10.341  0.0135  0.6884 -0.6233
57945SOL    HW281076   8.852   2.454  10.246 -1.4737 -1.4632  0.9247
57946SOL     OW81077  12.173   6.969   4.624  0.2060 -0.2859  0.0473
57946SOL    HW181078  12.100   6.911   4.643  0.5424 -0.5394  0.5710
57946SOL    HW281079  12.136   7.036   4.566 -0.5031 -0.2561  0.5314
57947SOL     OW81080   4.941   5.679   2.967  0.3485 -0.3890 -0.6219
57947SOL    HW181081   5.017   5.661   3.022  1.2908  4.0163 -0.1570
57947SOL    HW281082   4.866   5.660   3.022  1.0664 -2.2571 -0.1873
57948SOL     OW81083   7.594   0.360   7.722  0.0346  0.8341 -0.1626
57948SOL    HW181084   7.512   0.409   7.711 -0.2507  0.5704  0.6677
57948SOL    HW281085   7.629   0.392   7.805 -0.5708 -0.9302  0.8148
57949SOL     OW81086   2.570  11.905   3.977 -0.5107  0.0763 -0.6985
57949SOL    HW181087   2.631  11.843   3.937  1.0222  1.7860 -1.1481
57949SOL    HW281088   2.581  11.893   4.071 -1.9523 -1.8965 -0.7188
57950SOL     OW81089   6.640  10.296   9.306 -0.5290 -0.3426 -0.3314
57950SOL    HW181090   6.557  10.336   9.332 -0.2459  0.4557 -0.6213
57950SOL    HW281091   6.633  10.287   9.211  0.3366  1.2652 -0.5948
57951SOL     OW81092   8.721   8.979   8.230 -0.5479 -0.1515 -0.1116
57951SOL    HW181093   8.731   8.915   8.300 -1.6855 -0.6317 -0.3638
57951SOL    HW281094   8.672   9.051   8.270 -0.0033  0.1984 -0.0573
57952SOL     OW81095   1.095   5.698   2.221  1.1577  0.0877  0.2180
57952SOL    HW181096   1.009   5.702   2.180 -0.0310 -1.2894  2.3540
57952SOL    HW281097   1.095   5.769   2.285  1.8035  0.3852 -0.1074
57953SOL     OW81098   6.936   9.036   9.852  0.0484 -0.0548  0.4860
57953SOL    HW181099   6.884   9.074   9.922 -1.4779 -0.6213 -0.2938
57953SOL    HW281100   7.018   9.086   9.853 -0.7561  1.3110  1.3268
57954SOL     OW81101   6.387  11.648   1.163 -0.6509 -0.1968  0.1759
57954SOL    HW181102   6.305  11.621   1.121 -0.4412 -0.8593  0.1883
57954SOL    HW281103   6.456  11.607   1.112 -0.2851  0.7867 -0.1521
57955SOL     OW81104   4.785  12.015   5.229  0.5796 -0.5955 -0.5204
57955SOL    HW181105   4.770  11.923   5.207 -0.8608 -1.1670  2.2996
57955SOL    HW281106   4.698  12.053   5.234  0.9346  0.1093  1.2111
57956SOL     OW81107  12.597   1.748   6.140 -0.4786  0.0802 -0.0351
57956SOL    HW181108  12.576   1.668   6.189  2.0637  0.6636  2.2572
57956SOL    HW281109  12.688   1.735   6.111 -0.4461  1.6289 -0.7183
57957SOL     OW81110   1.447   4.703   7.975 -0.0860  0.6947 -0.0847
57957SOL    HW181111   1.423   4.775   7.916  1.6794  1.1149 -0.3482
57957SOL    HW281112   1.399   4.627   7.941 -0.9013  1.4463 -0.6462
57958SOL     OW81113  10.872   1.472   5.632  0.5543  0.1854  0.1292
57958SOL    HW181114  10.818   1.457   5.555  0.2750  1.8841 -0.0371
57958SOL    HW281115  10.858   1.395   5.687 -0.4512 -0.3202 -0.8076
57959SOL     OW81116  12.439   3.419  12.308 -0.3155  0.1503  0.1571
57959SOL    HW181117  12.459   3.339  12.357  2.8235  0.3441 -0.5573
57959SOL    HW281118  12.416   3.483  12.376 -1.5532 -0.9742  0.8403
57960SOL     OW81119   3.214   8.785   8.568 -0.4654 -0.1405 -0.7154
57960SOL    HW181120   3.239   8.877   8.573  0.0349 -0.2402 -1.3213
57960SOL    HW281121   3.293   8.740   8.538 -1.0837 -0.5878 -1.7267
57961SOL     OW81122   6.649   3.719   9.774  0.6525 -0.1416 -0.5538
57961SOL    HW181123   6.701   3.639   9.774 -0.5408 -1.0044  1.8984
57961SOL    HW281124   6.646   3.746   9.866 -0.9567  1.4060 -1.0039
57962SOL     OW81125  10.524  11.681   2.209  0.6291 -0.2544 -0.2478
57962SOL    HW181126  10.434  11.667   2.239  0.8027 -1.5127 -0.2494
57962SOL    HW281127  10.578  11.660   2.284  0.9383  0.2154 -0.3355
57963SOL     OW81128  12.077   4.278   9.597  0.4381  0.6979 -0.9654
57963SOL    HW181129  12.029   4.196   9.584 -0.1610  0.8046  0.3687
57963SOL    HW281130  12.169   4.255   9.585  0.4325 -0.5844  1.0547
57964SOL     OW81131   8.725   3.559   0.359  0.1247 -0.2614 -0.8990
57964SOL    HW181132   8.738   3.471   0.396  0.9358 -0.5633 -1.8662
57964SOL    HW281133   8.650   3.594   0.408  1.1161 -0.6371  1.0121
57965SOL     OW81134  11.666   1.029  10.113 -0.1106 -0.0641 -0.5284
57965SOL    HW181135  11.683   1.084  10.190 -2.2860  0.7035 -0.5389
57965SOL    HW281136  11.623   0.951  10.148 -0.6760  0.0723 -0.9066
57966SOL     OW81137   7.009   8.471   2.739 -0.3168  0.1320 -0.2727
57966SOL    HW181138   7.039   8.542   2.795 -1.3358  2.4040 -2.4461
57966SOL    HW281139   7.062   8.396   2.765  1.3191  1.8309  1.6223
57967SOL     OW81140   4.667   6.733   7.096 -0.1759  0.1194 -0.4972
57967SOL    HW181141   4.708   6.800   7.152 -0.7599  1.2751 -1.4107
57967SOL    HW281142   4.635   6.668   7.158  0.5564  0.5887  0.4193
57968SOL     OW81143   8.869   2.149   3.539 -0.0526  0.2168  0.0605
57968SOL    HW181144   8.817   2.079   3.498  1.4769 -0.8594 -0.1233
57968SOL    HW281145   8.955   2.141   3.499  0.3945  1.6792  0.6774
57969SOL     OW81146   0.421  10.104  10.737 -0.5607 -0.3402 -0.2445
57969SOL    HW181147   0.409  10.010  10.721 -0.9850 -0.1776 -0.8892
57969SOL    HW281148   0.406  10.145  10.652  0.3435  0.2531 -0.1347
57970SOL     OW81149   9.703  10.404   2.005 -0.5707 -0.0353  0.4975
57970SOL    HW181150   9.710  10.459   2.084  0.3142  0.2077  0.2649
57970SOL    HW281151   9.629  10.346   2.022 -2.0157  1.7325  0.4291
57971SOL     OW81152   8.231   9.485   7.898 -0.1626  0.0991 -0.7088
57971SOL    HW181153   8.171   9.415   7.871 -0.3102 -0.0092 -0.1055
57971SOL    HW281154   8.278   9.508   7.817  0.0628 -0.8603 -0.8651
57972SOL     OW81155   3.517   2.687   2.792  0.1541  0.3527 -0.1909
57972SOL    HW181156   3.514   2.607   2.844  1.8519 -0.7908 -1.7437
57972SOL    HW281157   3.442   2.682   2.733 -0.1608  0.2803  0.2127
57973SOL     OW81158  10.933   7.324   6.001  0.4044 -0.0484  0.2945
57973SOL    HW181159  10.920   7.390   5.933  0.1039  0.8465  1.2036
57973SOL    HW281160  10.935   7.373   6.083  0.7840 -1.1057  0.9445
57974SOL     OW81161   5.277  11.279   6.973  0.4799 -0.2836  0.4524
57974SOL    HW181162   5.270  11.185   6.962  1.4968 -0.3054 -0.1141
57974SOL    HW281163   5.226  11.316   6.900  0.4054 -0.3852  0.4525
57975SOL     OW81164   8.065   4.676   2.584  0.1733 -0.2149 -0.0996
57975SOL    HW181165   8.017   4.718   2.514 -0.1573  1.0293  0.8374
57975SOL    HW281166   8.057   4.735   2.659  0.1310 -1.6905  1.1363
57976SOL     OW81167   0.271   7.326   8.266 -0.0445 -0.2008 -0.0378
57976SOL    HW181168   0.336   7.367   8.209 -0.0839  0.5940  0.4692
57976SOL    HW281169   0.219   7.399   8.299 -0.8079 -0.7749  0.0388
57977SOL     OW81170   2.681  11.320  11.120  0.5123 -0.3277  0.0113
57977SOL    HW181171   2.689  11.268  11.040  1.0674 -1.3567  0.7140
57977SOL    HW281172   2.748  11.388  11.110  1.2050 -0.9986 -0.0012
57978SOL     OW81173   3.548   6.671   2.490 -0.1159  0.7028  0.0935
57978SOL    HW181174   3.504   6.702   2.569 -2.9119  0.2507 -1.1847
57978SOL    HW281175   3.513   6.726   2.420  1.4568  0.3596 -1.0200
57979SOL     OW81176   4.584   9.605  11.275 -0.0972 -0.0040  0.2708
57979SOL    HW181177   4.632   9.527  11.303  0.4459  0.1223 -0.2971
57979SOL    HW281178   4.512   9.612  11.338 -0.4830 -1.2875 -0.0046
57980SOL     OW81179  12.020   4.508   4.012 -0.3165  0.0533  0.4929
57980SOL    HW181180  11.992   4.473   3.928  1.7993 -0.7554  0.0611
57980SOL    HW281181  12.064   4.591   3.991 -1.3151  0.7501  1.0282
57981SOL     OW81182   2.583   0.497  12.274 -0.7709  0.0206 -0.1212
57981SOL    HW181183   2.633   0.513  12.355  1.1113 -0.2058 -1.1744
57981SOL    HW281184   2.569   0.403  12.273 -0.9147  0.0410  0.0179
57982SOL     OW81185  11.562   7.301   0.355  0.0010  0.1434 -0.9466
57982SOL    HW181186  11.532   7.270   0.270 -1.9266  0.1372 -0.3325
57982SOL    HW281187  11.514   7.247   0.418  2.4681 -0.8640  0.2075
57983SOL     OW81188   8.543  12.554   9.969  0.1589  0.3610 -0.4182
57983SOL    HW181189   8.474  12.525  10.028  0.4284  1.3483  0.4145
57983SOL    HW281190   8.501  12.559   9.883  0.1064 -2.4952 -0.6797
57984SOL     OW81191  12.542  11.006   9.062  0.2289 -0.1702  0.1423
57984SOL    HW181192  12.507  11.072   9.122  0.6630 -0.6008  0.8936
57984SOL    HW281193  12.511  10.923   9.098 -0.1046 -0.3959 -0.6496
57985SOL     OW81194  10.229   8.474   0.112  0.0878  0.3371  0.2190
57985SOL    HW181195  10.322   8.494   0.114  0.1301  0.1638  0.0395
57985SOL    HW281196  10.214   8.439   0.024  0.0389 -0.5146  0.5564
57986SOL     OW81197   0.764   1.326   4.725  0.1156  0.4181 -0.2360
57986SOL    HW181198   0.693   1.316   4.661  1.0015  0.7185 -1.3061
57986SOL    HW281199   0.792   1.237   4.745  1.8819  0.2954 -2.7011
57987SOL     OW81200  10.672   5.720   5.442 -0.3402 -0.0844 -0.2938
57987SOL    HW181201  10.747   5.667   5.417 -0.6674 -0.2809 -0.8895
57987SOL    HW281202  10.633   5.672   5.515  0.1073  0.0139  0.0091
57988SOL     OW81203   0.481   1.798   3.153  0.3810 -0.2713 -0.3613
57988SOL    HW181204   0.464   1.877   3.204  0.8900 -0.5227  0.2087
57988SOL    HW281205   0.410   1.795   3.089 -0.3607 -0.0435  0.4434
57989SOL     OW81206   4.791   8.936   9.929 -0.2465  0.1804 -0.5187
57989SOL    HW181207   4.793   8.862   9.869 -0.1526 -1.0667  0.9721
57989SOL    HW281208   4.698   8.959   9.936 -0.3928 -0.4929 -0.1783
57990SOL     OW81209  11.429   9.274   8.522  0.2099 -0.0459  0.3803
57990SOL    HW181210  11.398   9.282   8.612  0.9407  1.8980  0.5203
57990SOL    HW281211  11.491   9.201   8.523 -0.7904 -0.9076  1.1284
57991SOL     OW81212   6.760   0.795   8.507  0.3320 -0.3915 -0.0308
57991SOL    HW181213   6.702   0.719   8.510 -0.1187 -0.0938 -0.9018
57991SOL    HW281214   6.704   0.869   8.527  0.4079 -0.1067 -0.8264
57992SOL     OW81215   8.223   5.893  10.295 -0.1759  0.3685 -0.0307
57992SOL    HW181216   8.308   5.937  10.292  0.6525 -1.1467 -3.6436
57992SOL    HW281217   8.161   5.961  10.269  0.4590  0.6283 -0.9267
57993SOL     OW81218   5.632   4.223   0.402  0.2269  0.0569 -0.0779
57993SOL    HW181219   5.631   4.175   0.485 -1.0296  0.4296  0.1398
57993SOL    HW281220   5.571   4.174   0.346  0.1626  0.4796 -0.3800
57994SOL     OW81221   6.794  12.302   6.649  0.2207 -0.4660 -0.1847
57994SOL    HW181222   6.786  12.228   6.588 -0.7610 -0.0078 -0.6237
57994SOL    HW281223   6.706  12.313   6.684  0.1036  1.1693 -0.9289
57995SOL     OW81224  12.123   2.051  10.599 -0.3214 -0.3098 -0.1847
57995SOL    HW181225  12.091   2.038  10.688  0.3833  0.3297  0.1739
57995SOL    HW281226  12.067   2.119  10.563  0.2425  0.3822  0.2348
57996SOL     OW81227   7.716   5.107   4.073 -0.1301  0.3342  1.0722
57996SOL    HW181228   7.768   5.177   4.113 -1.3807  1.7228  0.3702
57996SOL    HW281229   7.625   5.138   4.080 -0.6222 -0.7222 -0.2136
57997SOL     OW81230   3.881   2.030   8.192 -0.6287  0.5368 -0.1939
57997SOL    HW181231   3.974   2.027   8.172 -0.7318 -0.2919 -0.5771
57997SOL    HW281232   3.868   2.117   8.230  0.5029  0.2566  0.9213
57998SOL     OW81233  11.181   0.344   2.056  0.3894 -0.3702  0.1979
57998SOL    HW181234  11.207   0.412   2.118 -3.0585  0.5656  0.8461
57998SOL    HW281235  11.109   0.382   2.007 -0.4808 -2.9228 -0.6950
57999SOL     OW81236   1.068   0.264  12.198  0.0294 -0.5733 -0.5326
57999SOL    HW181237   0.999   0.249  12.133 -0.8416 -1.4373  0.5242
57999SOL    HW281238   1.056   0.192  12.261  1.0351  0.0545  0.4055
58000SOL     OW81239   0.188   3.918   5.641  0.0087  0.0903 -0.4922
58000SOL    HW181240   0.162   3.864   5.715  0.7069 -1.5281 -1.3709
58000SOL    HW281241   0.263   3.872   5.603 -0.0365  1.1214 -1.9150
58001SOL     OW81242   1.899  10.924   7.684 -0.1727  0.3644 -0.5673
58001SOL    HW181243   1.835  10.971   7.631  0.5835 -0.1392 -1.9688
58001SOL    HW281244   1.894  10.833   7.654  0.5664  0.1472 -0.0724
58002SOL     OW81245   3.400   2.202  10.300 -0.1169 -0.7148  1.0300
58002SOL    HW181246   3.434   2.229  10.214 -0.9521  1.2097  1.2502
58002SOL    HW281247   3.477   2.200  10.357  0.2376 -0.5673  0.5604
58003SOL     OW81248  10.979   3.565  12.283  0.4846 -0.0109  0.5844
58003SOL    HW181249  11.034   3.519  12.347  2.0615 -0.3212 -0.9116
58003SOL    HW281250  10.954   3.646  12.327  1.8830 -0.0064  1.4360
58004SOL     OW81251   5.131   0.044  10.322 -0.1556 -0.7394  0.5576
58004SOL    HW181252   5.221   0.019  10.299 -0.3409  0.3174 -1.5835
58004SOL    HW281253   5.141   0.103  10.396  0.8107 -1.6154  1.1544
58005SOL     OW81254  11.881   5.778   1.225  0.0923 -0.4738  0.7912
58005SOL    HW181255  11.909   5.692   1.255  1.7129  0.7869  3.2723
58005SOL    HW281256  11.956   5.811   1.174 -0.2169 -0.2500  0.4750
58006SOL     OW81257   8.970  10.661   3.260  0.0981  0.6329  0.1607
58006SOL    HW181258   8.990  10.737   3.205  1.0375 -0.2784 -0.7881
58006SOL    HW281259   8.922  10.602   3.202  1.3905 -0.4807  0.1831
58007SOL     OW81260   1.223   9.730   4.398 -0.3393  0.3151  0.4489
58007SOL    HW181261   1.275   9.807   4.419 -0.4909  0.2585  1.0347
58007SOL    HW281262   1.270   9.689   4.325 -1.1976  1.9003 -1.0800
58008SOL     OW81263   1.622   2.127   9.579  0.2178 -0.3159  0.2637
58008SOL    HW181264   1.602   2.052   9.635  1.3759 -0.4428  0.5456
58008SOL    HW281265   1.694   2.172   9.625  0.4335  0.2113 -0.5622
58009SOL     OW81266   2.823  10.079   6.084 -0.0071 -0.6241  0.5431
58009SOL    HW181267   2.826   9.989   6.054 -0.0673 -0.4343 -0.0431
58009SOL    HW281268   2.763  10.123   6.023  1.1050  0.1281 -0.0461
58010SOL     OW81269   6.052   0.318   6.531 -0.1071  0.6752  0.2407
58010SOL    HW181270   6.137   0.291   6.565  0.2401  1.5088  0.0739
58010SOL    HW281271   5.990   0.293   6.599  0.3155  0.3680  0.5193
58011SOL     OW81272   8.863   7.060   7.006  0.3276  0.0762 -0.5305
58011SOL    HW181273   8.854   6.970   6.976  1.4721  0.3960 -1.8921
58011SOL    HW281274   8.775   7.097   6.999 -0.5777 -1.3890  1.7586
58012SOL     OW81275   0.252   2.076  12.547  0.2784 -0.0879 -0.5460
58012SOL    HW181276   0.291   2.038  12.625  0.6415  0.5694 -0.3986
58012SOL    HW281277   0.173   2.024  12.531  0.7986 -0.9294 -0.3951
58013SOL     OW81278   8.741   4.746  10.248  0.5416 -0.5042 -0.3422
58013SOL    HW181279   8.796   4.819  10.218 -0.8203 -0.0646 -1.8669
58013SOL    HW281280   8.758   4.741  10.342  0.8773  1.6139 -0.2428
58014SOL     OW81281   3.396   5.231   7.389  0.0261 -0.1020  0.1992
58014SOL    HW181282   3.480   5.204   7.424 -0.0755  0.2328  0.7135
58014SOL    HW281283   3.350   5.270   7.463 -1.1556 -1.5652  0.2859
58015SOL     OW81284  10.673   5.315   2.795 -0.2600 -0.4868  0.1401
58015SOL    HW181285  10.726   5.265   2.857 -1.6672 -0.5115  1.3715
58015SOL    HW281286  10.610   5.251   2.762 -0.9583  0.0579  0.4085
58016SOL     OW81287   3.478   0.513   6.125  0.1030  0.3060  0.6146
58016SOL    HW181288   3.479   0.492   6.032 -1.3809 -1.3811  0.9362
58016SOL    HW281289   3.541   0.453   6.164  0.3312  0.6491  0.7824
58017SOL     OW81290   3.954   4.055   0.570 -0.6326  0.2913 -0.4528
58017SOL    HW181291   3.867   4.040   0.608 -0.6032 -0.7164 -0.7515
58017SOL    HW281292   3.990   3.967   0.558  0.1728  0.6788 -0.9260
58018SOL     OW81293   0.201   4.621   0.649 -0.0231 -0.2112 -0.0739
58018SOL    HW181294   0.236   4.691   0.593 -0.1584 -0.2598 -0.2207
58018SOL    HW281295   0.107   4.637   0.650  0.1193  0.8043  1.5101
58019SOL     OW81296   8.157   5.498   1.326  0.0166 -0.1342  0.5534
58019SOL    HW181297   8.106   5.578   1.319  0.0864 -0.0968  0.4741
58019SOL    HW281298   8.222   5.504   1.255  2.2186  1.3104  2.5161
58020SOL     OW81299  10.368   9.031   3.087  0.5302 -0.8769 -0.8258
58020SOL    HW181300  10.335   9.111   3.127  1.5835 -0.0953 -1.4647
58020SOL    HW281301  10.427   8.993   3.153 -1.6166 -2.3357  0.3618
58021SOL     OW81302   0.755   3.565   1.125 -0.4328  0.4715 -0.0357
58021SOL    HW181303   0.674   3.565   1.176 -0.3450  0.9704  0.1085
58021SOL    HW281304   0.732   3.520   1.044 -0.5043 -0.5817  0.5433
58022SOL     OW81305   1.629   0.460   7.207 -0.8609 -0.0554 -0.3973
58022SOL    HW181306   1.606   0.478   7.298 -0.9962  0.7130 -0.5801
58022SOL    HW281307   1.546   0.466   7.160 -0.5291  1.3176 -0.8406
58023SOL     OW81308  10.402   1.614   3.680 -0.1603  0.1350 -0.2154
58023SOL    HW181309  10.352   1.638   3.758  1.2621  0.6985  0.5758
58023SOL    HW281310  10.359   1.535   3.647 -1.1380  0.2071  0.8094
58024SOL     OW81311   0.418  11.374   8.101  0.2834 -0.2503 -0.3065
58024SOL    HW181312   0.373  11.290   8.090  1.2066 -1.1904  2.2561
58024SOL    HW281313   0.370  11.418   8.171  0.5743  0.8154 -0.7576
58025SOL     OW81314   5.630   5.036   5.626  0.3567 -0.1733 -0.6217
58025SOL    HW181315   5.571   4.991   5.565 -1.3376 -0.7891  1.3611
58025SOL    HW281316   5.625   5.128   5.601 -1.6575 -0.1835 -0.3807
58026SOL     OW81317   7.522  11.292   6.215  0.2268  0.1612 -0.2279
58026SOL    HW181318   7.529  11.274   6.121  0.2290 -0.5220 -0.0988
58026SOL    HW281319   7.436  11.334   6.224  0.6120  1.0529 -0.6578
58027SOL     OW81320   0.079  10.658   5.632 -0.3289 -0.6010  0.2813
58027SOL    HW181321   0.109  10.570   5.655 -2.1468 -0.6815  2.7885
58027SOL    HW281322   0.010  10.644   5.567 -0.1154 -0.9440  0.1260
58028SOL     OW81323   2.456   1.353   9.393  0.4454  0.4303 -0.1018
58028SOL    HW181324   2.391   1.390   9.334  0.3933  1.4747  0.5994
58028SOL    HW281325   2.503   1.288   9.339 -1.0227 -0.2030 -0.6650
58029SOL     OW81326   3.121   4.479   9.385 -0.0506  0.0064  0.2822
58029SOL    HW181327   3.137   4.385   9.389 -1.2949 -0.1651  2.5516
58029SOL    HW281328   3.043   4.493   9.438  0.4122  2.3922  0.4575
58030SOL     OW81329   0.337   3.815   7.542 -0.2660  0.0831 -0.3962
58030SOL    HW181330   0.334   3.827   7.636  0.7739 -0.5847 -0.2671
58030SOL    HW281331   0.331   3.904   7.506  2.0067  0.6127  0.3730
58031SOL     OW81332  11.496   2.992   5.293  0.0769 -0.3243 -0.0423
58031SOL    HW181333  11.520   2.980   5.385  0.2867 -0.0648 -0.0591
58031SOL    HW281334  11.421   2.935   5.279 -0.8538  0.6929  0.6661
58032SOL     OW81335   8.689  10.688   7.394  0.5569  0.2814 -0.4729
58032SOL    HW181336   8.682  10.682   7.489  0.8644  1.5849 -0.3390
58032SOL    HW281337   8.760  10.751   7.380 -0.3977  1.1530 -1.5411
58033SOL     OW81338   4.498  10.863   6.916 -0.1946  0.3446 -0.6088
58033SOL    HW181339   4.547  10.943   6.934  2.7005 -1.6196  1.0579
58033SOL    HW281340   4.514  10.845   6.823  2.1261 -0.0601 -0.1859
58034SOL     OW81341   2.687  10.243  11.300  0.0109  0.3020  0.5316
58034SOL    HW181342   2.659  10.154  11.321  0.6308 -0.3528 -1.2140
58034SOL    HW281343   2.747  10.233  11.226 -0.5544  2.2445 -0.2642
58035SOL     OW81344   2.088   5.423   7.217 -0.5351 -0.1595  0.5439
58035SOL    HW181345   2.033   5.453   7.145 -1.1438 -1.2491  0.5351
58035SOL    HW281346   2.159   5.487   7.221 -0.7291  0.1636 -0.7382
58036SOL     OW81347   1.654   7.523   4.376 -0.0809  0.4233  0.4191
58036SOL    HW181348   1.606   7.442   4.397 -0.6777  0.3985 -0.8981
58036SOL    HW281349   1.656   7.572   4.458 -0.2939 -0.6362  1.0766
58037SOL     OW81350   3.584   5.712   0.365  0.9593  0.0410  0.2008
58037SOL    HW181351   3.531   5.649   0.414 -0.2368  1.3038  0.5834
58037SOL    HW281352   3.610   5.665   0.286  1.3461 -1.4078  1.1449
58038SOL     OW81353   2.678  10.678   1.510 -0.0931 -0.0324 -0.2733
58038SOL    HW181354   2.649  10.587   1.513  1.1371 -0.5667 -2.5293
58038SOL    HW281355   2.614  10.722   1.454  1.0619 -0.2704 -1.8229
58039SOL     OW81356  12.697   1.179   2.179 -0.6202 -0.4754 -0.1337
58039SOL    HW181357  12.747   1.148   2.255 -0.3196 -0.4389 -0.3166
58039SOL    HW281358  12.615   1.129   2.183 -1.4201  0.8490  1.2750
58040SOL     OW81359   2.152   1.807  10.615  0.1494  0.3584 -0.4477
58040SOL    HW181360   2.177   1.717  10.596  3.4335  1.1386 -0.4818
58040SOL    HW281361   2.162   1.853  10.532 -0.5891  0.9355 -0.2277
58041SOL     OW81362   4.542   1.301   8.849  0.5304 -0.3065  0.2376
58041SOL    HW181363   4.625   1.321   8.807  0.7353 -0.0203  0.7682
58041SOL    HW281364   4.509   1.224   8.802  0.9758 -0.2756 -0.1300
58042SOL     OW81365   9.571  10.136   8.784  0.4077 -0.0200 -0.0957
58042SOL    HW181366   9.603  10.215   8.739  1.8055 -0.1081  0.6828
58042SOL    HW281367   9.605  10.145   8.874  1.2878 -1.8825 -0.2060
58043SOL     OW81368   7.954   2.418   1.827 -0.0054 -0.3455 -0.2253
58043SOL    HW181369   7.984   2.333   1.860  1.7615  0.6131  0.7574
58043SOL    HW281370   8.033   2.472   1.823 -0.8457  0.8785 -2.1203
58044SOL     OW81371  11.820   2.412   1.623  0.1908  0.1004  0.2973
58044SOL    HW181372  11.769   2.471   1.567  2.4234  2.5599  0.6748
58044SOL    HW281373  11.849   2.343   1.563 -0.3431  0.7834 -0.7920
58045SOL     OW81374   4.282   2.940   1.154  0.0689 -0.9085  0.4281
58045SOL    HW181375   4.360   2.932   1.099 -0.7862  0.9982 -1.1823
58045SOL    HW281376   4.286   3.028   1.190 -0.2688 -1.5487  2.1210
58046SOL     OW81377  10.999   6.822   5.385  0.1647  0.3934  0.0519
58046SOL    HW181378  10.995   6.802   5.292  0.9922 -1.4733  0.3822
58046SOL    HW281379  10.932   6.889   5.398  1.7213  2.6303 -2.3332
58047SOL     OW81380   0.320   3.898   8.779  0.2482 -0.2683  0.1248
58047SOL    HW181381   0.302   3.929   8.868  0.1977 -2.2041  0.8374
58047SOL    HW281382   0.320   3.977   8.725 -1.2558  0.7994  1.5969
58048SOL     OW81383   4.082   1.608  11.675  0.4132 -0.2336  0.4156
58048SOL    HW181384   4.121   1.547  11.613 -2.7739 -1.7903 -0.2448
58048SOL    HW281385   4.045   1.677  11.621 -0.0453 -0.1674  0.8116
58049SOL     OW81386   7.659   2.838   1.992 -0.3824 -0.5372  0.0220
58049SOL    HW181387   7.575   2.856   2.033 -0.9699  1.5885 -1.8886
58049SOL    HW281388   7.719   2.824   2.065 -2.2652 -1.5902  1.4398
58050SOL     OW81389   3.901   8.607   2.681 -0.4824  0.1228 -0.1110
58050SOL    HW181390   3.926   8.643   2.596 -0.4060 -0.5640 -0.3865
58050SOL    HW281391   3.822   8.556   2.663 -0.3527 -0.1930  0.1877
58051SOL     OW81392   9.926  12.349  12.236 -0.0210  0.7520  0.0293
58051SOL    HW181393   9.853  12.390  12.284 -1.7167 -2.3941  0.4103
58051SOL    HW281394   9.910  12.372  12.145 -0.6956  1.2291  0.2535
58052SOL     OW81395   7.863  10.895   0.622  0.0899 -0.3760  0.3221
58052SOL    HW181396   7.817  10.850   0.692 -0.4427  0.1384  0.3119
58052SOL    HW281397   7.870  10.986   0.652  0.1233 -0.2150 -0.1565
58053SOL     OW81398   9.039   4.853  11.394  0.4108  0.5309  0.0396
58053SOL    HW181399   8.994   4.931  11.427  0.0424  1.1098 -1.6871
58053SOL    HW281400   8.982   4.822  11.323  0.0845 -1.8679  1.2589
58054SOL     OW81401  12.131  10.907   5.522 -0.2068  0.9606 -0.3800
58054SOL    HW181402  12.190  10.832   5.520 -0.6727  0.5934 -1.2382
58054SOL    HW281403  12.055  10.878   5.472 -0.8701  1.6247  0.2212
58055SOL     OW81404   0.186  11.383  12.091  0.4003 -0.1057 -0.3006
58055SOL    HW181405   0.142  11.468  12.093  0.9068  0.1596  1.2715
58055SOL    HW281406   0.273  11.400  12.126  0.9655 -1.0528 -1.1830
58056SOL     OW81407  11.221   0.315   5.735  0.4381 -0.0449 -0.1622
58056SOL    HW181408  11.242   0.321   5.828 -1.8415 -0.2606  0.4412
58056SOL    HW281409  11.270   0.239   5.704  1.5275  0.2562  0.7582
58057SOL     OW81410   4.237   3.477   2.083 -0.1039 -0.1894 -0.4701
58057SOL    HW181411   4.263   3.566   2.104 -0.7732  1.2044 -4.7100
58057SOL    HW281412   4.317   3.425   2.095  0.4878  1.0547  1.3364
58058SOL     OW81413   1.346   9.092  12.281 -0.0835  0.0216 -0.0063
58058SOL    HW181414   1.429   9.063  12.243  0.2910  0.4289  0.4851
58058SOL    HW281415   1.347   9.056  12.370 -1.5979 -2.1660 -0.7970
58059SOL     OW81416   7.176  10.945   1.883 -0.6869 -0.3490 -0.0196
58059SOL    HW181417   7.240  10.912   1.946 -0.1746  1.4695  0.4788
58059SOL    HW281418   7.091  10.936   1.927 -0.5980 -1.1628  0.0051
58060SOL     OW81419   9.849   3.280   6.529  0.1951 -0.0410 -0.5249
58060SOL    HW181420   9.878   3.243   6.612 -0.0489 -0.7580 -0.7472
58060SOL    HW281421   9.758   3.251   6.520  0.5454 -0.9385 -1.5497
58061SOL     OW81422   1.347   6.711   9.230  0.2639  0.0474  0.5115
58061SOL    HW181423   1.294   6.683   9.155  0.5348 -0.7612  0.6089
58061SOL    HW281424   1.286   6.709   9.304 -0.3669  2.2106  0.0989
58062SOL     OW81425   8.421  10.228   7.202  0.4453  0.4778  0.3135
58062SOL    HW181426   8.485  10.290   7.237  1.5445 -0.7489  0.5294
58062SOL    HW281427   8.376  10.277   7.133 -0.1586  2.1888  1.8077
58063SOL     OW81428  11.362   2.859   1.257  0.5786 -0.3338  0.5208
58063SOL    HW181429  11.399   2.930   1.205  1.1251 -0.6050  0.5255
58063SOL    HW281430  11.432   2.838   1.319  1.3530 -2.4022 -0.9463
58064SOL     OW81431   0.373  10.035   4.874 -0.0669 -0.0838 -0.0486
58064SOL    HW181432   0.407   9.971   4.811  0.3876  0.1529 -0.0445
58064SOL    HW281433   0.299   9.991   4.915  0.4108 -0.7089  0.1470
58065SOL     OW81434   4.179   2.068   3.751 -0.2310 -0.0505 -0.1299
58065SOL    HW181435   4.113   2.105   3.693 -0.8011 -2.0154 -0.8231
58065SOL    HW281436   4.256   2.055   3.695 -0.3018 -0.6246 -0.0976
58066SOL     OW81437   2.957  10.875   9.708 -0.0446  0.1308 -0.3463
58066SOL    HW181438   2.897  10.834   9.646 -0.6351 -3.4001  2.2923
58066SOL    HW281439   2.962  10.966   9.679 -3.7859 -0.2386 -2.8446
58067SOL     OW81440  10.055   6.123   8.932  0.6544  0.3905  0.2447
58067SOL    HW181441  10.022   6.134   9.022  1.5742 -0.8932  0.7846
58067SOL    HW281442  10.105   6.203   8.915 -0.5082  1.1787  0.4071
58068SOL     OW81443   4.234   1.326  10.033 -0.0273 -0.7598 -0.1303
58068SOL    HW181444   4.314   1.358  10.076 -1.6768  1.3207  1.6451
58068SOL    HW281445   4.228   1.377   9.953  0.2964 -0.7585 -0.1561
58069SOL     OW81446   5.677   6.797   8.427  0.2664  0.8125  0.6044
58069SOL    HW181447   5.696   6.811   8.334  0.3393 -0.8032  0.3546
58069SOL    HW281448   5.725   6.718   8.450  0.2965  1.2299  2.0494
58070SOL     OW81449  12.517   7.292   7.107  0.2708 -0.3058 -0.6279
58070SOL    HW181450  12.583   7.349   7.066  0.6034 -0.9369 -0.9926
58070SOL    HW281451  12.444   7.292   7.045 -0.5520  1.2614  0.2801
58071SOL     OW81452  10.199  12.158  11.132 -0.6858 -0.0357  0.3285
58071SOL    HW181453  10.179  12.065  11.132 -1.4311  0.1148  0.4421
58071SOL    HW281454  10.271  12.168  11.195 -1.9582 -0.2705  1.8716
58072SOL     OW81455   9.754   6.672   3.564  0.3988  0.0958 -0.4218
58072SOL    HW181456   9.782   6.712   3.647 -1.1909  0.5724 -0.0799
58072SOL    HW281457   9.661   6.691   3.559  0.2463 -0.8899 -1.8038
58073SOL     OW81458   2.542   7.753   4.383 -0.1061 -0.0227  0.2059
58073SOL    HW181459   2.636   7.760   4.397  0.1603 -3.0019  0.6266
58073SOL    HW281460   2.532   7.682   4.319 -2.0721 -0.5876  1.0470
58074SOL     OW81461   4.332   9.549   1.595  0.2184 -0.6742 -0.0347
58074SOL    HW181462   4.378   9.490   1.655 -1.4794 -1.4031  0.6292
58074SOL    HW281463   4.354   9.637   1.626  2.1086 -0.9311 -0.5145
58075SOL     OW81464   3.874   8.676  10.569  0.5653  0.4980 -0.3242
58075SOL    HW181465   3.778   8.677  10.567  0.5742  1.1720 -0.8112
58075SOL    HW281466   3.896   8.650  10.658 -0.0645 -0.2115 -0.3605
58076SOL     OW81467   1.791   8.524   4.200 -0.6162  0.0719  0.8569
58076SOL    HW181468   1.733   8.595   4.228  1.9108  2.2974  0.8453
58076SOL    HW281469   1.879   8.557   4.217  0.7656 -2.1549 -1.2983
58077SOL     OW81470  11.222   3.541   2.523  0.2552 -0.4340 -0.0120
58077SOL    HW181471  11.138   3.498   2.509 -0.5750  1.4121 -1.0476
58077SOL    HW281472  11.271   3.526   2.442  0.0251  0.4021 -0.3122
58078SOL     OW81473   1.357  10.105   3.947  0.6447 -0.8650 -0.0652
58078SOL    HW181474   1.447  10.107   3.979  1.5226 -0.8637 -2.3393
58078SOL    HW281475   1.342  10.015   3.919  0.5580 -0.4859 -1.2851
58079SOL     OW81476   2.792  10.151   9.997 -0.1320  0.2222 -0.4688
58079SOL    HW181477   2.803  10.245  10.008  0.1645  0.3760 -1.8886
58079SOL    HW281478   2.711  10.130  10.044 -1.1544  1.4933 -1.5801
58080SOL     OW81479   9.992   7.436   0.162 -0.1174  0.3243  0.0742
58080SOL    HW181480  10.069   7.428   0.105 -0.1351 -0.2190  0.1195
58080SOL    HW281481   9.977   7.530   0.168  0.3065  0.4207 -0.2545
58081SOL     OW81482  11.284   9.098  12.032 -0.3450  0.9874 -0.1121
58081SOL    HW181483  11.346   9.047  12.084  0.2531  1.0911 -0.7175
58081SOL    HW281484  11.198   9.065  12.059  0.0303 -0.5009 -0.6163
58082SOL     OW81485   5.803   9.767   2.955 -0.2360 -0.5438  0.2062
58082SOL    HW181486   5.843   9.838   2.906  0.1164 -0.3514  0.7604
58082SOL    HW281487   5.852   9.689   2.931  1.8102 -0.0292  2.3064
58083SOL     OW81488   7.115   2.469   4.904 -0.3244 -0.3166 -0.1822
58083SOL    HW181489   7.036   2.463   4.850 -0.6529 -1.9660  0.4193
58083SOL    HW281490   7.159   2.548   4.873 -0.9347 -0.7274 -2.2785
58084SOL     OW81491   5.579   2.247   5.625  0.3239  0.0644 -0.0953
58084SOL    HW181492   5.527   2.328   5.627  0.6155  0.2561 -0.3431
58084SOL    HW281493   5.667   2.274   5.650  0.5437 -0.0880 -0.6954
58085SOL     OW81494   6.207   0.692  11.927  0.4325 -0.2867 -0.6149
58085SOL    HW181495   6.132   0.651  11.970 -0.9887  1.2395 -1.5190
58085SOL    HW281496   6.230   0.766  11.984 -1.6847  1.9628 -2.4228
58086SOL     OW81497  12.097   9.477   3.751 -0.4377  1.0410 -0.2292
58086SOL    HW181498  12.020   9.443   3.796  0.1022 -1.8694 -1.2673
58086SOL    HW281499  12.091   9.441   3.663  3.3991 -1.7455  0.3734
58087SOL     OW81500   0.859   7.779   7.048 -0.4022 -0.2995  0.3511
58087SOL    HW181501   0.923   7.715   7.015  1.2688  1.3038  0.2969
58087SOL    HW281502   0.904   7.822   7.121 -1.6643  0.4843  0.6940
58088SOL     OW81503  12.494   8.533  11.418 -0.2543 -0.2766  0.2336
58088SOL    HW181504  12.468   8.521  11.510 -0.8427  0.2981  0.1556
58088SOL    HW281505  12.572   8.588  11.423 -1.1220  0.9877  0.3515
58089SOL     OW81506   6.131  10.946   1.752 -0.7808 -0.0512  0.3372
58089SOL    HW181507   6.210  10.893   1.767  0.2407  1.2552 -0.2212
58089SOL    HW281508   6.151  10.996   1.673 -0.6808  2.9797  2.1312
58090SOL     OW81509   4.391   8.997   2.385 -0.0961  0.5849  0.4069
58090SOL    HW181510   4.374   9.048   2.464 -0.9170  1.2632 -0.1857
58090SOL    HW281511   4.382   8.906   2.413  0.6948  0.7671  1.3229
58091SOL     OW81512   9.273   1.957   9.742 -0.0869 -0.1712  0.0563
58091SOL    HW181513   9.266   1.878   9.688 -0.1649  0.2095 -0.4935
58091SOL    HW281514   9.366   1.963   9.764  0.4911  1.1707 -2.3436
58092SOL     OW81515   1.125  12.450   9.534  0.1762 -0.2264 -0.2353
58092SOL    HW181516   1.199  12.431   9.591  0.4186 -1.4503 -0.9112
58092SOL    HW281517   1.048  12.445   9.591  0.3402 -2.2268 -0.1192
58093SOL     OW81518   2.404   6.363   7.720 -0.5552  0.0135  0.2738
58093SOL    HW181519   2.371   6.352   7.809 -0.8968  1.9835  0.4296
58093SOL    HW281520   2.325   6.373   7.666 -0.3534 -1.2044 -0.2967
58094SOL     OW81521   6.808   2.889   9.812  0.5836 -0.0507 -0.4419
58094SOL    HW181522   6.901   2.868   9.802  0.3553 -2.3040  1.5353
58094SOL    HW281523   6.804   2.946   9.889  0.1930 -1.5507  0.6878
58095SOL     OW81524   7.529  10.930   7.587  0.0012  0.5188 -0.2601
58095SOL    HW181525   7.435  10.940   7.571  0.0086 -0.0655 -0.7622
58095SOL    HW281526   7.559  11.017   7.610 -0.9971  0.3812  1.8211
58096SOL     OW81527   5.032   8.841  10.890  0.2725  0.2319 -0.2882
58096SOL    HW181528   5.026   8.764  10.947  2.5705 -0.0600 -0.3471
58096SOL    HW281529   4.999   8.811  10.805  2.1712 -1.0923 -0.6189
58097SOL     OW81530  10.967   7.132   2.938 -0.0880 -0.2440  0.3246
58097SOL    HW181531  11.046   7.127   2.885 -0.3991  2.0078 -0.4718
58097SOL    HW281532  10.973   7.217   2.981 -1.5884 -0.4789  1.0487
58098SOL     OW81533   6.410   8.548   3.835 -0.1005  0.0889 -0.1021
58098SOL    HW181534   6.359   8.618   3.875 -0.8436 -1.1216  1.1636
58098SOL    HW281535   6.368   8.533   3.750 -1.6965 -0.6541  0.7720
58099SOL     OW81536  10.205  10.788   9.023  0.0836  0.0197  0.0924
58099SOL    HW181537  10.250  10.820   8.945 -1.0126  0.3142 -0.4343
58099SOL    HW281538  10.174  10.701   8.998  2.5188 -1.3044  1.3112
58100SOL     OW81539   2.393   6.918   3.983 -0.1899 -0.2115 -0.2207
58100SOL    HW181540   2.365   6.863   3.910  0.3740 -0.0639 -0.5519
58100SOL    HW281541   2.410   7.003   3.944 -0.1433 -0.0592  0.1290
58101SOL     OW81542  12.230   0.558  10.828 -0.0171 -0.3138 -0.4128
58101SOL    HW181543  12.192   0.601  10.905  0.2379 -1.8049  0.5830
58101SOL    HW281544  12.227   0.465  10.848  1.2497 -0.6680 -1.6682
58102SOL     OW81545  10.308   6.417   9.022 -0.7970  0.6659  0.2295
58102SOL    HW181546  10.388   6.469   9.025  0.6452 -1.4626  0.6335
58102SOL    HW281547  10.269   6.428   9.108  0.1974  0.0519  0.7713
58103SOL     OW81548   1.955   2.106   9.775  0.6265 -0.5545 -0.3041
58103SOL    HW181549   1.990   2.039   9.833 -0.7636  0.7889  2.2094
58103SOL    HW281550   2.013   2.181   9.787 -0.1199 -0.0114 -0.0574
58104SOL     OW81551   2.128   2.057   2.041  0.5198  0.3159  0.2928
58104SOL    HW181552   2.189   1.989   2.013  0.8309  0.5757  0.3318
58104SOL    HW281553   2.042   2.015   2.040  0.3500  0.5635 -2.0024
58105SOL     OW81554   7.059   3.463   6.526  0.3246 -0.3413  0.8394
58105SOL    HW181555   7.024   3.440   6.440  2.4276  2.0900 -0.7853
58105SOL    HW281556   7.122   3.393   6.545  2.0594  0.6176 -1.0778
58106SOL     OW81557   6.519   3.658   9.541 -0.5491 -0.2459 -0.1927
58106SOL    HW181558   6.468   3.727   9.500 -1.3965 -0.5265  0.3510
58106SOL    HW281559   6.566   3.702   9.612 -0.5481 -0.1046 -0.2813
58107SOL     OW81560   4.686  11.541   8.376 -0.5429  0.2505  0.0951
58107SOL    HW181561   4.699  11.537   8.281 -1.8836  0.9547 -0.1394
58107SOL    HW281562   4.725  11.625   8.401  2.0269 -1.0110  0.5873
58108SOL     OW81563  12.634  10.386   6.121  0.1287 -0.3642  0.5594
58108SOL    HW181564  12.636  10.386   6.217  0.0206 -3.4021  0.6414
58108SOL    HW281565  12.546  10.357   6.098  0.0593  0.6040 -0.5086
58109SOL     OW81566   0.729  10.800   3.786  0.2461  0.0362  0.0566
58109SOL    HW181567   0.687  10.720   3.754  1.4446  0.3988 -2.7114
58109SOL    HW281568   0.673  10.871   3.753  0.3882  0.3933  0.5784
58110SOL     OW81569  10.248   1.816   5.614 -0.1702 -0.2570  0.2795
58110SOL    HW181570  10.205   1.763   5.681  2.3016 -1.1671  1.2715
58110SOL    HW281571  10.203   1.793   5.533 -0.3560 -2.5581  0.9681
58111SOL     OW81572   0.781  10.037   4.426 -0.2557 -0.0127  0.3252
58111SOL    HW181573   0.696  10.034   4.470  0.5147 -0.1652  1.8757
58111SOL    HW281574   0.820   9.951   4.444  2.0901  1.5122  3.6723
58112SOL     OW81575  11.656   6.784   1.699 -0.0263  0.4502  0.3308
58112SOL    HW181576  11.602   6.712   1.734 -0.2007 -0.2111 -1.2169
58112SOL    HW281577  11.737   6.779   1.749  0.5531 -1.7952 -0.7064
58113SOL     OW81578  11.414   7.947   0.006 -0.5529  0.0779 -0.4886
58113SOL    HW181579  11.471   7.877   0.037 -2.2171 -0.9904  0.3125
58113SOL    HW281580  11.451   7.972  -0.079  0.7249 -0.9916 -0.2861
58114SOL     OW81581   5.609   1.491   6.709  0.1190  0.3983 -0.2958
58114SOL    HW181582   5.598   1.586   6.712 -0.8550  0.2989 -0.2743
58114SOL    HW281583   5.663   1.470   6.785 -1.1343  0.7729  0.7419
58115SOL     OW81584   2.779   1.926   8.461 -0.0706 -0.1093  0.2155
58115SOL    HW181585   2.855   1.956   8.412 -0.7216 -0.5473 -1.0948
58115SOL    HW281586   2.704   1.943   8.403 -0.6393 -2.6329  0.1162
58116SOL     OW81587  10.470   7.262   8.277 -0.2944 -0.5059 -0.7189
58116SOL    HW181588  10.507   7.307   8.201  0.3555  1.2985  0.5873
58116SOL    HW281589  10.380   7.242   8.253 -0.4139  0.9820 -1.5826
58117SOL     OW81590  11.192   4.177   3.827  0.3841  0.4420 -0.2045
58117SOL    HW181591  11.180   4.266   3.794  2.0412  0.8239  0.1306
58117SOL    HW281592  11.274   4.181   3.877 -0.9893 -0.5499  2.3192
58118SOL     OW81593   3.618   8.300   0.237  0.0139 -0.3028  0.3039
58118SOL    HW181594   3.676   8.251   0.180  0.0692 -0.4298  0.4691
58118SOL    HW281595   3.658   8.387   0.243 -0.2693 -0.1265 -0.2676
58119SOL     OW81596   5.631  11.156   8.191 -0.3205  0.4390 -0.4238
58119SOL    HW181597   5.552  11.153   8.138  0.0267  0.5960 -0.9537
58119SOL    HW281598   5.601  11.141   8.280 -1.0139  0.9913 -0.5583
58120SOL     OW81599   3.239   7.335   1.301 -0.5749  0.2666 -0.0095
58120SOL    HW181600   3.203   7.252   1.331  1.2712 -0.2856  0.8434
58120SOL    HW281601   3.167   7.397   1.312 -1.4268 -0.8503  1.1362
58121SOL     OW81602   3.948   6.063   0.512 -0.2829  0.2269 -0.8213
58121SOL    HW181603   3.960   6.151   0.476  1.5025 -0.0078 -0.9199
58121SOL    HW281604   3.986   6.005   0.446 -1.3418 -0.6237 -0.7082
58122SOL     OW81605   5.147   1.567   5.816 -0.2408  0.2867  0.0431
58122SOL    HW181606   5.159   1.592   5.908  0.5925 -0.3449  0.1141
58122SOL    HW281607   5.231   1.529   5.790  0.4883  2.8228 -1.7783
58123SOL     OW81608   5.341  10.877   7.392 -0.4996  0.5018 -0.0161
58123SOL    HW181609   5.317  10.970   7.385 -0.0950  0.6070 -0.0573
58123SOL    HW281610   5.288  10.844   7.464  0.1740  1.0428  0.7412
58124SOL     OW81611  11.404   0.434   8.063 -0.5178  0.3014  0.2284
58124SOL    HW181612  11.404   0.433   7.968 -1.2055  1.7349  0.1982
58124SOL    HW281613  11.353   0.356   8.087 -1.2927  0.5293 -0.6057
58125SOL     OW81614   2.109   2.308   1.946  0.1063 -0.3653  0.4968
58125SOL    HW181615   2.140   2.217   1.940  0.6534 -0.3428  2.3974
58125SOL    HW281616   2.179   2.354   1.990 -0.1401  1.0310 -0.5218
58126SOL     OW81617   2.953  10.451   3.124 -0.2742 -0.3365  0.2464
58126SOL    HW181618   2.919  10.475   3.038 -0.3618 -0.5247  0.2289
58126SOL    HW281619   2.916  10.365   3.141 -1.6977  0.4403  1.2652
58127SOL     OW81620   9.975   7.479  11.547 -0.3734 -0.3742  0.0526
58127SOL    HW181621   9.968   7.399  11.598  1.4203 -1.1033 -0.7615
58127SOL    HW281622   9.906   7.535  11.581 -1.3385 -2.0570  1.0045
58128SOL     OW81623   0.081   1.273   1.934 -0.1161  0.0703 -0.1111
58128SOL    HW181624   0.068   1.236   2.021 -1.0223  0.2903 -0.1409
58128SOL    HW281625   0.019   1.224   1.879  1.3072 -0.9273 -0.8833
58129SOL     OW81626   4.689   3.728   6.431  0.1028 -0.4760 -0.4078
58129SOL    HW181627   4.725   3.719   6.519 -1.5055  0.8333  0.4221
58129SOL    HW281628   4.664   3.639   6.407  1.3323 -0.9832  0.0753
58130SOL     OW81629   5.600   3.570   1.358  0.0354  0.9021  0.0615
58130SOL    HW181630   5.554   3.523   1.289 -0.8588  3.3460 -1.1293
58130SOL    HW281631   5.654   3.634   1.311 -1.3715  3.3505  1.5355
58131SOL     OW81632   2.337   6.462   1.985 -0.0634 -0.4756  0.1851
58131SOL    HW181633   2.340   6.374   2.023  0.8269  0.8946  3.6437
58131SOL    HW281634   2.260   6.503   2.025  0.3203  0.7437 -0.2783
58132SOL     OW81635   5.202   7.728  11.472 -0.3253  0.6201 -0.0234
58132SOL    HW181636   5.292   7.759  11.482 -0.2943  0.7787 -0.8051
58132SOL    HW281637   5.201   7.680  11.390 -0.9438  0.5591  0.0123
58133SOL     OW81638   0.036  11.523   8.225 -0.0049 -0.1881  0.1281
58133SOL    HW181639  -0.013  11.589   8.274 -0.3756 -0.4936  0.1734
58133SOL    HW281640  -0.019  11.505   8.149  1.1662  1.2541 -1.1358
58134SOL     OW81641  10.799   8.628   5.727 -0.6446  0.2264 -0.2745
58134SOL    HW181642  10.831   8.650   5.814  0.4118 -0.5323 -0.4547
58134SOL    HW281643  10.877   8.626   5.672 -1.0170 -1.2158 -0.8217
58135SOL     OW81644   1.878  12.091   4.577  0.0784  0.0238 -0.2533
58135SOL    HW181645   1.895  12.120   4.487  0.5425  1.7470  0.3434
58135SOL    HW281646   1.956  12.040   4.600  1.4524  2.1299  0.1312
58136SOL     OW81647   5.433   0.856   8.347 -0.0682 -0.2846 -0.1453
58136SOL    HW181648   5.356   0.907   8.374 -0.5549 -0.1371 -1.6963
58136SOL    HW281649   5.485   0.847   8.427 -1.3725  0.1744  0.7968
58137SOL     OW81650  12.076  12.261   9.533 -0.6503  0.3787 -0.4946
58137SOL    HW181651  12.011  12.251   9.603 -1.5208 -1.3968 -1.4874
58137SOL    HW281652  12.139  12.191   9.548  0.5222  1.4855 -0.1187
58138SOL     OW81653   4.271  11.023   4.498 -0.2949  0.1863 -0.1077
58138SOL    HW181654   4.194  11.065   4.461 -0.6386 -0.3673 -0.0290
58138SOL    HW281655   4.246  10.931   4.509 -0.0676  0.2429  1.0986
58139SOL     OW81656   4.771   5.255  12.032 -0.4565  0.5554  0.6411
58139SOL    HW181657   4.862   5.243  12.004 -0.0768  1.9824  1.1908
58139SOL    HW281658   4.722   5.258  11.950 -0.0065 -0.0565  0.3344
58140SOL     OW81659   5.138   9.253   9.570 -0.2579 -0.2048 -0.6462
58140SOL    HW181660   5.080   9.253   9.646  0.6076 -1.6497  0.0716
58140SOL    HW281661   5.212   9.199   9.597  3.2259  4.2150 -0.1898
58141SOL     OW81662   8.049   3.647   3.505 -0.3538  0.2082  0.3978
58141SOL    HW181663   8.127   3.696   3.527 -0.5210 -0.4169  2.6489
58141SOL    HW281664   8.068   3.608   3.419  0.7897  2.0037 -0.2202
58142SOL     OW81665   1.611   3.157   5.296  0.1009  0.0055  0.2117
58142SOL    HW181666   1.531   3.106   5.300 -0.1136  0.2243 -1.0165
58142SOL    HW281667   1.584   3.246   5.317 -0.0995  0.2004 -0.8596
58143SOL     OW81668   4.113  11.609   3.082 -0.3281  0.8028  0.1187
58143SOL    HW181669   4.179  11.640   3.144  1.0921 -2.2552  0.3112
58143SOL    HW281670   4.042  11.576   3.137 -0.5650  1.1129  0.0021
58144SOL     OW81671   8.633   1.719   5.524  0.2613  0.5266  0.4564
58144SOL    HW181672   8.642   1.779   5.449  0.6893  0.5396  0.5130
58144SOL    HW281673   8.563   1.757   5.576 -2.5079 -1.3314 -1.6505
58145SOL     OW81674   1.564   1.192   6.511  0.0196 -0.7639 -0.5701
58145SOL    HW181675   1.599   1.227   6.593 -1.8440 -0.3609  0.1186
58145SOL    HW281676   1.641   1.167   6.460  1.2340 -2.3257  1.8477
58146SOL     OW81677   3.661   2.920   2.139 -0.1587 -0.7217 -0.0544
58146SOL    HW181678   3.606   2.908   2.216 -0.2792 -1.0226 -0.1842
58146SOL    HW281679   3.664   3.015   2.125 -0.3064 -0.6806  0.1965
58147SOL     OW81680  10.642   0.598   0.754  0.7347 -0.0087 -0.7016
58147SOL    HW181681  10.709   0.546   0.709 -0.4725 -0.3908 -2.0920
58147SOL    HW281682  10.600   0.536   0.814  1.5128  0.2090  0.1031
58148SOL     OW81683   1.518   1.276   8.198 -0.1995  0.2612 -0.3708
58148SOL    HW181684   1.502   1.364   8.164  0.4615  0.4080 -0.3256
58148SOL    HW281685   1.499   1.282   8.292 -0.0109  0.3957 -0.3410
58149SOL     OW81686   9.450   6.591  11.379 -0.1098  0.3133 -0.5201
58149SOL    HW181687   9.520   6.529  11.358  2.5443  2.7053  0.6062
58149SOL    HW281688   9.379   6.537  11.413  0.9738 -2.2828 -2.0486
58150SOL     OW81689  11.990   5.411   3.155  0.3644  0.1311  0.3008
58150SOL    HW181690  11.905   5.369   3.140  0.3244  0.6909 -1.3584
58150SOL    HW281691  12.008   5.399   3.248 -0.3996 -2.0876  0.2055
58151SOL     OW81692   1.390   7.434   0.275 -0.9089 -0.0478 -0.3304
58151SOL    HW181693   1.358   7.358   0.227 -0.2420 -0.7377  0.2747
58151SOL    HW281694   1.365   7.509   0.222 -2.7911 -0.5902 -0.2851
58152SOL     OW81695   3.956   4.868   8.819 -0.5729 -0.1813 -0.0024
58152SOL    HW181696   3.949   4.822   8.902  0.2763 -1.1395 -0.4462
58152SOL    HW281697   3.999   4.951   8.842  0.0495 -0.6188  0.4623
58153SOL     OW81698  10.840  11.927   3.399  0.0485 -0.5315  0.2291
58153SOL    HW181699  10.826  12.021   3.416 -0.4854 -0.5817  0.1018
58153SOL    HW281700  10.909  11.901   3.460  0.7901  0.1292 -0.3041
58154SOL     OW81701   9.629   9.214   1.604  0.5130 -0.1440 -0.2594
58154SOL    HW181702   9.654   9.173   1.687 -0.1150 -0.6828 -0.3321
58154SOL    HW281703   9.577   9.148   1.559  1.0770  0.0401 -1.2159
58155SOL     OW81704   5.935   9.325  11.854  0.1885 -0.1325 -0.4050
58155SOL    HW181705   5.849   9.359  11.879 -0.9949 -1.8804 -1.8329
58155SOL    HW281706   5.983   9.402  11.823 -1.2348  0.7406 -0.5551
58156SOL     OW81707  12.399   8.182   5.417  0.3509 -0.0206 -1.1298
58156SOL    HW181708  12.462   8.233   5.468  0.5542 -1.3964  0.0339
58156SOL    HW281709  12.371   8.242   5.348  2.5768  0.7848 -1.4049
58157SOL     OW81710   1.952   4.171  12.475  0.5232 -0.0394  0.7971
58157SOL    HW181711   1.990   4.115  12.407  0.2952  1.1096 -0.3146
58157SOL    HW281712   1.881   4.117  12.512  1.3640 -1.0993  0.9077
58158SOL     OW81713   0.772  12.531   4.514 -0.0818  0.1706  1.0952
58158SOL    HW181714   0.828  12.458   4.490  0.0086  0.1665  1.3142
58158SOL    HW281715   0.798  12.602   4.456  0.1294  0.1596  1.1746
58159SOL     OW81716   5.451   7.950  12.683 -0.0334 -0.2023  0.2863
58159SOL    HW181717   5.444   8.035  12.726 -0.0445  0.1339 -0.3753
58159SOL    HW281718   5.476   7.890  12.754 -0.1581  0.3202  0.7825
58160SOL     OW81719   3.485   8.179   1.567 -0.0082 -0.1728 -0.1322
58160SOL    HW181720   3.434   8.118   1.621 -0.7218  1.6291  1.3344
58160SOL    HW281721   3.443   8.264   1.580  1.7819  0.9104 -0.9921
58161SOL     OW81722   4.136   9.663   7.599  0.0841  0.4037  0.3580
58161SOL    HW181723   4.158   9.685   7.690  0.2948  0.0171  0.4023
58161SOL    HW281724   4.103   9.573   7.604  1.1388 -0.0279 -0.0977
58162SOL     OW81725  12.611   7.562   2.116  0.5280  0.1329 -0.6025
58162SOL    HW181726  12.635   7.597   2.030  1.3973 -0.1902 -0.5031
58162SOL    HW281727  12.684   7.504   2.139  0.4663  0.4751  0.4960
58163SOL     OW81728   6.256   6.703   9.675 -0.1770 -0.1880 -0.0241
58163SOL    HW181729   6.284   6.611   9.677 -2.7564 -1.0848 -0.8537
58163SOL    HW281730   6.281   6.737   9.761  2.7271 -0.9827 -0.4391
58164SOL     OW81731   1.627   4.380   9.506 -0.5393 -0.0304 -0.1100
58164SOL    HW181732   1.610   4.345   9.593  0.1933 -0.9328 -0.3210
58164SOL    HW281733   1.655   4.305   9.454  1.8881  0.9391 -0.3624
58165SOL     OW81734   7.834   1.994   0.134 -0.5215 -0.2645  0.2249
58165SOL    HW181735   7.823   2.086   0.109 -1.0633 -0.5283 -0.5439
58165SOL    HW281736   7.909   1.964   0.083 -1.3945 -0.7007 -0.8308
58166SOL     OW81737  10.840  10.396  12.542 -0.1629 -0.0864 -0.3261
58166SOL    HW181738  10.820  10.372  12.451 -0.3352  1.4435 -0.7197
58166SOL    HW281739  10.760  10.436  12.574  0.7852  2.0494 -0.4754
58167SOL     OW81740   7.292   0.240   6.206 -0.0462  0.4139  0.3140
58167SOL    HW181741   7.222   0.244   6.141 -1.6814 -1.4918  1.8109
58167SOL    HW281742   7.317   0.148   6.209  0.0818  0.4679  2.2238
58168SOL     OW81743   9.826   1.731   7.348  0.5690  0.4794 -0.0337
58168SOL    HW181744   9.781   1.778   7.418 -0.5100 -0.2914 -0.1900
58168SOL    HW281745   9.759   1.720   7.280  0.3832 -2.4002  0.5030
58169SOL     OW81746   4.123   0.630   4.076  0.9017 -0.0475 -0.2954
58169SOL    HW181747   4.104   0.679   4.156  1.2153 -0.7693  0.2335
58169SOL    HW281748   4.040   0.632   4.026  0.6139  0.1461  0.1880
58170SOL     OW81749   5.557   5.083   0.188 -0.2567  0.4004 -0.3268
58170SOL    HW181750   5.477   5.037   0.214  0.4921 -0.4861  0.4469
58170SOL    HW281751   5.555   5.081   0.092 -0.2490 -1.2436 -0.3075
58171SOL     OW81752  12.055   8.683  10.641  1.0263  0.2546  0.3036
58171SOL    HW181753  11.997   8.718  10.708  0.5144 -0.8492  0.4567
58171SOL    HW281754  12.128   8.645  10.689  2.0249  1.8332  0.1031
58172SOL     OW81755   4.884   1.084   2.888 -0.0335  0.0572  0.3834
58172SOL    HW181756   4.822   1.126   2.829 -2.4823 -1.7448  1.4802
58172SOL    HW281757   4.940   1.155   2.920 -1.1612  1.6802 -1.0786
58173SOL     OW81758   5.310  10.663   2.441 -0.1882 -0.8891  0.1280
58173SOL    HW181759   5.312  10.740   2.385  0.1025 -1.5033 -0.7338
58173SOL    HW281760   5.268  10.692   2.521 -1.2931 -0.1739 -0.6824
58174SOL     OW81761   2.155  10.186   1.856 -0.0003  0.2496 -0.4159
58174SOL    HW181762   2.142  10.213   1.947 -0.3891 -0.6604 -0.1922
58174SOL    HW281763   2.069  10.195   1.815 -0.6643 -2.4876  0.1846
58175SOL     OW81764   3.970  10.955   8.240  0.4514 -0.2171  0.0921
58175SOL    HW181765   3.951  11.043   8.274  1.5293  0.3610 -0.7274
58175SOL    HW281766   4.065  10.957   8.224  0.6845 -1.8957  1.0694
58176SOL     OW81767   5.249   0.123   6.372  0.0474  0.1049  0.0491
58176SOL    HW181768   5.308   0.140   6.445 -0.7385  1.6435  0.3588
58176SOL    HW281769   5.257   0.028   6.357  1.9483  0.1325  0.6025
58177SOL     OW81770  11.732  11.170   2.193  0.4190  0.5352  0.4569
58177SOL    HW181771  11.651  11.128   2.164  1.7792 -1.5392 -0.6068
58177SOL    HW281772  11.777  11.103   2.244  1.3805  1.7143  1.1969
58178SOL     OW81773   1.952  11.934   9.457  0.6827 -0.7058 -0.4842
58178SOL    HW181774   2.044  11.944   9.482 -0.2348 -0.8845  3.6737
58178SOL    HW281775   1.928  12.018   9.419  1.7556  0.7621  1.8292
58179SOL     OW81776   5.562   8.362   1.824 -0.2079  0.3992 -0.5911
58179SOL    HW181777   5.515   8.285   1.790 -0.9985  0.9372 -0.7549
58179SOL    HW281778   5.501   8.400   1.888 -0.0269  1.1619 -0.8704
58180SOL     OW81779   4.198   9.084   6.943 -0.3276 -0.3881 -0.2016
58180SOL    HW181780   4.160   9.078   7.031  1.8346 -0.2208  0.8111
58180SOL    HW281781   4.245   9.001   6.931 -0.5183 -0.3731 -1.1793
58181SOL     OW81782   8.123  12.704   5.705  0.7381  0.0892  0.1837
58181SOL    HW181783   8.120  12.799   5.693  1.1788 -0.0374 -1.1381
58181SOL    HW281784   8.031  12.678   5.714  0.5073  0.5047 -0.7934
58182SOL     OW81785   9.460   3.791  11.240 -0.1272  0.1602 -0.5496
58182SOL    HW181786   9.485   3.845  11.315 -0.5806 -0.2540 -0.0950
58182SOL    HW281787   9.541   3.780  11.190  0.3729 -0.2970  0.3478
58183SOL     OW81788  11.330  12.428   5.764 -0.1834  0.1495 -0.3309
58183SOL    HW181789  11.304  12.345   5.725  0.7720  0.6487 -2.1970
58183SOL    HW281790  11.304  12.494   5.699  0.4975  1.1437  0.3652
58184SOL     OW81791   4.936   5.625   0.120 -0.2248 -0.2820 -0.4177
58184SOL    HW181792   4.999   5.553   0.121 -0.0383 -0.1189 -0.2287
58184SOL    HW281793   4.917   5.642   0.213 -0.4292 -0.2288 -0.4686
58185SOL     OW81794   5.009   6.707   1.620 -0.5942 -0.0194  0.6555
58185SOL    HW181795   4.992   6.718   1.526  0.7187 -0.1087  0.3947
58185SOL    HW281796   5.101   6.730   1.631 -0.8425  0.4094  2.0038
58186SOL     OW81797   6.962   6.376   1.843 -0.0277  0.0767 -0.2614
58186SOL    HW181798   6.883   6.325   1.831 -0.0340 -0.4035  1.5788
58186SOL    HW281799   6.932   6.460   1.877  0.2195  0.1178 -0.1429
58187SOL     OW81800   9.096   2.762   3.757 -0.4961 -0.5916  1.0445
58187SOL    HW181801   9.121   2.671   3.743 -0.3401 -0.5622  1.1326
58187SOL    HW281802   9.169   2.813   3.722 -1.9920 -0.4053 -2.1570
58188SOL     OW81803  10.734   2.721   6.837  0.1830 -0.1487  0.0892
58188SOL    HW181804  10.683   2.667   6.776  0.9910 -0.7525 -0.0764
58188SOL    HW281805  10.671   2.750   6.902 -0.3900 -0.8234 -0.1524
58189SOL     OW81806   8.586   5.286   8.593  0.2466 -0.2256  0.0978
58189SOL    HW181807   8.628   5.223   8.652 -2.7015 -3.5632 -0.9570
58189SOL    HW281808   8.640   5.285   8.514  0.1004 -1.8448 -0.0261
58190SOL     OW81809   4.126  10.429   1.675  0.1212  0.2829  0.2685
58190SOL    HW181810   4.086  10.453   1.758 -0.8073  0.2487 -0.1596
58190SOL    HW281811   4.098  10.339   1.659  0.4440  0.2252  0.0003
58191SOL     OW81812   1.866  10.429   8.531 -0.1774 -0.1291  0.0873
58191SOL    HW181813   1.870  10.509   8.583 -1.0082 -0.1792  0.2384
58191SOL    HW281814   1.775  10.399   8.539  0.3472 -1.6182  0.8197
58192SOL     OW81815  11.958  10.176   2.872 -0.5926  0.2785  0.4740
58192SOL    HW181816  11.886  10.118   2.845 -1.2184  0.9241  0.7250
58192SOL    HW281817  11.973  10.154   2.964 -0.4379  0.1087  0.4075
58193SOL     OW81818   9.729   7.413  11.291 -0.6139 -0.0801  0.5014
58193SOL    HW181819   9.781   7.494  11.286 -1.2812  0.4814  2.1061
58193SOL    HW281820   9.682   7.410  11.208  1.0536  0.0240 -0.4917
58194SOL     OW81821   1.776   2.178   5.353  0.0856  0.5027  0.8012
58194SOL    HW181822   1.766   2.170   5.448  0.1701 -0.2483  0.7521
58194SOL    HW281823   1.745   2.094   5.318  1.7654  0.0499  0.2989
58195SOL     OW81824  11.572   5.035   5.635 -0.2142 -0.0239  0.1216
58195SOL    HW181825  11.542   5.108   5.689  1.1274  0.6149  0.0587
58195SOL    HW281826  11.604   4.970   5.698  0.7118  0.4308  0.1397
58196SOL     OW81827  10.139   7.690   6.018  0.6955  0.3847  0.0045
58196SOL    HW181828  10.177   7.634   6.085  1.9920  1.8691  0.5724
58196SOL    HW281829  10.164   7.649   5.935  0.5291 -0.5411  0.3988
58197SOL     OW81830   7.515   6.663   3.131 -0.3052  0.1024  0.3597
58197SOL    HW181831   7.538   6.676   3.223 -2.6117 -0.2811  1.0334
58197SOL    HW281832   7.464   6.582   3.130  0.7337 -0.5970 -1.4846
58198SOL     OW81833   9.039   6.728   7.556 -0.5425  0.4144 -0.4806
58198SOL    HW181834   9.042   6.657   7.620  2.2324  2.4794  1.9537
58198SOL    HW281835   9.087   6.694   7.480 -0.1959 -0.6784  0.2038
58199SOL     OW81836   1.910   3.746   7.493 -0.1488  0.2394 -0.2231
58199SOL    HW181837   1.969   3.774   7.422 -1.6549 -1.1684 -2.1355
58199SOL    HW281838   1.954   3.669   7.531  0.4922  0.7848  0.1681
58200SOL     OW81839  12.617   4.988  10.812  0.3339  0.2087 -1.1116
58200SOL    HW181840  12.590   4.896  10.820 -1.2773  0.8014  1.3414
58200SOL    HW281841  12.704   4.991  10.850  0.3808 -0.2759 -1.1752
58201SOL     OW81842   3.137   5.946   8.664  0.5556 -0.6710 -0.0318
58201SOL    HW181843   3.173   5.864   8.629  0.1684 -0.7313 -0.2981
58201SOL    HW281844   3.044   5.927   8.680  0.6787 -0.5764  0.8288
58202SOL     OW81845   7.991   9.039   7.037  0.0786  0.2694 -0.1818
58202SOL    HW181846   7.936   8.991   7.099  0.1482 -1.1918 -1.1958
58202SOL    HW281847   8.075   8.994   7.038 -0.2526 -0.5384 -2.0991
58203SOL     OW81848   8.143  11.435  10.943 -0.5081  0.1803 -0.3291
58203SOL    HW181849   8.077  11.366  10.953  1.2820 -1.4209  1.0080
58203SOL    HW281850   8.223  11.398  10.979  0.8950  2.4710 -0.8747
58204SOL     OW81851   3.249   8.304   3.261  0.1521 -0.4594 -0.7656
58204SOL    HW181852   3.299   8.268   3.334 -0.7740 -1.2154 -0.4808
58204SOL    HW281853   3.191   8.369   3.302  1.3918  0.9732 -1.1951
58205SOL     OW81854   4.070   6.982  10.118 -0.0643  1.0862 -0.0738
58205SOL    HW181855   4.039   6.977  10.208  0.4308  0.2287  0.0671
58205SOL    HW281856   4.069   7.075  10.097 -0.3573  1.2806  0.7562
58206SOL     OW81857   6.290   1.183   0.081  0.1473  0.5403 -0.2961
58206SOL    HW181858   6.248   1.100   0.107 -0.6492  0.6139 -1.2835
58206SOL    HW281859   6.360   1.195   0.145 -1.5583  0.5942  1.6765
58207SOL     OW81860   6.632  10.032   9.665 -0.2027 -0.0460  0.3549
58207SOL    HW181861   6.653  10.040   9.758  1.4154 -1.0190  0.1187
58207SOL    HW281862   6.540  10.007   9.663 -1.4510  3.7714  1.5198
58208SOL     OW81863   4.417   2.621   6.317  0.2142  0.0896  0.0971
58208SOL    HW181864   4.352   2.672   6.365  0.8353 -0.9734  2.1571
58208SOL    HW281865   4.366   2.562   6.262 -0.5912 -0.7419  1.6916
58209SOL     OW81866   7.549  11.300   4.706 -0.1422 -0.1836  0.4749
58209SOL    HW181867   7.625  11.352   4.680  1.2083 -2.5476 -0.5923
58209SOL    HW281868   7.488  11.309   4.632  1.2205 -2.1710 -0.9768
58210SOL     OW81869  12.169  12.475   6.480 -0.6073  0.5133 -0.1352
58210SOL    HW181870  12.081  12.464   6.446 -0.1749 -0.8738 -0.8953
58210SOL    HW281871  12.226  12.454   6.406  0.3663  1.3405  0.3528
58211SOL     OW81872  12.674   0.474  12.395 -0.0497 -0.2255 -0.3211
58211SOL    HW181873  12.641   0.510  12.313  2.5284  1.8390 -0.5687
58211SOL    HW281874  12.760   0.438  12.374  0.7941  0.5944  1.5018
58212SOL     OW81875   6.674   6.644  11.812 -0.1220  0.2129  0.6222
58212SOL    HW181876   6.690   6.600  11.895 -1.6836  0.5896  1.1500
58212SOL    HW281877   6.620   6.720  11.834  0.7610  1.2417 -0.5439
58213SOL     OW81878   5.102   9.300   5.026 -0.3738  0.1030  0.0411
58213SOL    HW181879   5.054   9.269   5.102 -1.3108  3.2745  0.8963
58213SOL    HW281880   5.036   9.342   4.971  0.5508 -0.6256 -1.7174
58214SOL     OW81881   8.351   7.890   9.086  0.2939 -0.0348 -0.2937
58214SOL    HW181882   8.341   7.985   9.096  0.6879 -0.0077 -0.1164
58214SOL    HW281883   8.263   7.859   9.066  0.1353  0.3547 -0.2267
58215SOL     OW81884   5.376   9.075   9.575 -0.1046  0.7171 -0.5407
58215SOL    HW181885   5.395   9.080   9.482  0.6536  0.3464 -0.4097
58215SOL    HW281886   5.455   9.108   9.618  0.3859 -1.0622  0.0216
58216SOL     OW81887  10.694   5.867   5.715  0.8341 -0.5204  0.0670
58216SOL    HW181888  10.681   5.839   5.624  1.1258 -1.9638  0.4488
58216SOL    HW281889  10.761   5.936   5.709 -2.4385  2.9306 -1.2880
58217SOL     OW81890   7.020   4.179   6.410  0.1342  0.0927 -0.4214
58217SOL    HW181891   7.019   4.215   6.498  3.9494 -0.2898 -0.0720
58217SOL    HW281892   6.988   4.251   6.355 -0.7384  0.8921  1.0654
58218SOL     OW81893   5.736  10.862  12.205 -0.7501  0.2382  0.0102
58218SOL    HW181894   5.707  10.932  12.146 -1.4710  1.0825  1.3251
58218SOL    HW281895   5.823  10.889  12.234  0.0177 -0.6551 -1.3728
58219SOL     OW81896   9.161   3.225   7.123  0.3578 -0.0343  0.1225
58219SOL    HW181897   9.126   3.272   7.198  1.0785  0.6679  0.0445
58219SOL    HW281898   9.158   3.133   7.148  0.4611  0.1798  0.9600
58220SOL     OW81899   3.575   5.235   6.129  0.1713  0.2846  0.4715
58220SOL    HW181900   3.555   5.305   6.191  0.3324  1.1260 -0.4076
58220SOL    HW281901   3.667   5.215   6.144  0.5168  1.2771 -0.2566
58221SOL     OW81902   2.218  12.110   9.672  0.0112  0.1777  0.2480
58221SOL    HW181903   2.291  12.104   9.734  0.0340 -1.0004  0.1281
58221SOL    HW281904   2.216  12.025   9.629 -0.9061  0.4902 -0.3599
58222SOL     OW81905   3.280   9.871  10.711 -0.0875  0.4113 -0.4377
58222SOL    HW181906   3.351   9.934  10.700  1.5289 -0.9760  1.5025
58222SOL    HW281907   3.272   9.859  10.805 -2.4347 -0.0455 -0.6350
58223SOL     OW81908   9.954  12.050   1.660 -0.0269  0.3317  0.1407
58223SOL    HW181909   9.921  12.133   1.625  0.7800  0.5193 -0.1935
58223SOL    HW281910   9.885  11.986   1.640 -0.9348  1.0336  0.9626
58224SOL     OW81911   5.091   2.723   1.291 -0.3122 -0.0154 -0.2996
58224SOL    HW181912   5.091   2.781   1.215  2.0574 -0.2695 -0.5755
58224SOL    HW281913   5.169   2.668   1.279 -0.5252 -0.8553  1.7344
58225SOL     OW81914  12.501  10.575   3.456  0.0020  0.1341 -0.5457
58225SOL    HW181915  12.469  10.620   3.378 -0.9781 -2.8310 -2.0182
58225SOL    HW281916  12.424  10.570   3.514  0.3509  1.1147  0.0079
58226SOL     OW81917   0.161  10.347   3.516 -0.6241  0.0380  0.2764
58226SOL    HW181918   0.155  10.354   3.611  2.1834 -0.2838  0.5568
58226SOL    HW281919   0.113  10.267   3.495 -2.4287  0.8233  1.2242
58227SOL     OW81920   7.453   2.843   8.481 -1.0086 -0.4099 -0.2697
58227SOL    HW181921   7.367   2.883   8.465 -0.2133  1.3448 -0.3883
58227SOL    HW281922   7.488   2.826   8.393 -1.2507 -1.1806 -0.2209
58228SOL     OW81923   6.136   5.671   4.056  0.1794  0.2318  0.7075
58228SOL    HW181924   6.214   5.617   4.041 -0.7070 -0.9738  0.2402
58228SOL    HW281925   6.063   5.615   4.029 -0.7472  1.9535 -0.5685
58229SOL     OW81926   8.058   0.728   3.909  0.5555 -0.4414  0.6704
58229SOL    HW181927   8.108   0.678   3.974  2.3342  1.4169  0.8150
58229SOL    HW281928   8.111   0.722   3.830  0.1500  0.1803  0.3521
58230SOL     OW81929   1.926   2.037   3.166 -0.0596 -0.3491  0.3784
58230SOL    HW181930   1.985   2.108   3.192 -0.6984  0.1073  0.6049
58230SOL    HW281931   1.904   1.994   3.248  0.0319 -0.5778  0.2828
58231SOL     OW81932   2.530   2.405   6.812  0.0990 -0.1998  0.3858
58231SOL    HW181933   2.615   2.396   6.768  0.4543 -0.3721  1.0850
58231SOL    HW281934   2.469   2.430   6.743  0.6480 -0.4454 -0.1936
58232SOL     OW81935   0.131   1.504   6.427 -0.3276 -0.3782 -0.3752
58232SOL    HW181936   0.181   1.484   6.348 -0.5099  0.5702 -0.7366
58232SOL    HW281937   0.051   1.453   6.419 -0.6466  0.2231 -1.1328
58233SOL     OW81938   7.175   7.021   6.544 -0.0436  0.1273 -0.2074
58233SOL    HW181939   7.240   7.089   6.528 -1.1126  1.3887  0.5840
58233SOL    HW281940   7.178   6.967   6.465  2.5505 -0.4036  0.1699
58234SOL     OW81941  12.655   0.107   0.454  0.0467  0.1292 -0.1577
58234SOL    HW181942  12.700   0.156   0.523 -0.6581 -0.5846  0.8160
58234SOL    HW281943  12.590   0.054   0.499  1.6260 -2.7627 -0.9921
58235SOL     OW81944   5.749   4.646   3.201 -0.1091  0.5864  0.0843
58235SOL    HW181945   5.813   4.689   3.258 -0.7405  0.2012  1.0987
58235SOL    HW281946   5.732   4.562   3.243 -1.0824  0.5678 -0.3195
58236SOL     OW81947   2.593   1.826  11.304 -0.1175 -0.5091 -0.0053
58236SOL    HW181948   2.550   1.849  11.386  1.1323 -0.8771  0.7677
58236SOL    HW281949   2.676   1.873  11.305  0.4799 -1.5003 -0.4628
58237SOL     OW81950   4.409  11.573   2.568 -0.4205  0.0206  0.4962
58237SOL    HW181951   4.447  11.602   2.651  0.2577  1.1398 -0.1669
58237SOL    HW281952   4.322  11.539   2.591  0.0674 -0.4255  1.7492
58238SOL     OW81953   1.830   1.046   7.813  0.2386 -0.2185  0.3203
58238SOL    HW181954   1.742   1.041   7.851 -1.2757 -0.9620 -2.9060
58238SOL    HW281955   1.853   0.955   7.793  0.2079  0.1997 -1.8872
58239SOL     OW81956   8.800   2.494   9.339  0.0753 -0.2987  0.6526
58239SOL    HW181957   8.732   2.438   9.378  0.4041  0.5555  2.5813
58239SOL    HW281958   8.790   2.577   9.385  0.9831  0.5464 -0.6521
58240SOL     OW81959   0.508   1.991   2.201 -0.5844 -0.0069 -0.1061
58240SOL    HW181960   0.589   1.954   2.235 -0.8157 -0.7369 -0.3342
58240SOL    HW281961   0.457   2.012   2.279 -0.4835 -0.2436  0.0260
58241SOL     OW81962   8.805   6.717   5.241  0.4634  0.0663 -0.9394
58241SOL    HW181963   8.794   6.792   5.299 -0.2681 -0.3790 -0.4886
58241SOL    HW281964   8.831   6.755   5.157 -0.8225  0.9031 -0.9765
58242SOL     OW81965   2.745   0.776  12.486  0.4815 -0.5143 -0.2607
58242SOL    HW181966   2.665   0.821  12.511  0.8123  0.7887 -1.3867
58242SOL    HW281967   2.777   0.737  12.567 -0.4002  0.3842  0.5500
58243SOL     OW81968   7.028   6.271  12.559  0.0927  0.1159  0.4298
58243SOL    HW181969   7.035   6.349  12.504 -0.7082  0.0905  0.2849
58243SOL    HW281970   7.118   6.239  12.566  0.3187  0.5904 -0.1729
58244SOL     OW81971   1.739   3.985   1.303 -0.2983  0.1113  0.3121
58244SOL    HW181972   1.777   3.897   1.308  1.2405  0.8068  1.4645
58244SOL    HW281973   1.664   3.981   1.362 -0.6093 -0.5797 -0.1072
58245SOL     OW81974  10.694   2.276  12.123  0.4611  0.1062 -0.0184
58245SOL    HW181975  10.654   2.353  12.164  0.9368  1.2023 -1.5223
58245SOL    HW281976  10.786   2.301  12.111 -0.0011  0.6277 -3.3836
58246SOL     OW81977   0.106   6.698   5.945 -0.3386  0.0511  0.5605
58246SOL    HW181978   0.198   6.699   5.971 -0.5984  0.5591  1.5245
58246SOL    HW281979   0.060   6.669   6.024 -1.1510  1.4700  0.6423
58247SOL     OW81980   0.589   7.222   8.096 -0.2213 -0.0203  0.3756
58247SOL    HW181981   0.594   7.233   8.001 -0.8451 -1.1478  0.2060
58247SOL    HW281982   0.536   7.296   8.126 -2.0010 -0.9281 -0.4292
58248SOL     OW81983   6.443   7.979   9.467  0.8868 -0.0249 -0.4037
58248SOL    HW181984   6.482   8.043   9.408 -0.7296  1.1077 -0.3104
58248SOL    HW281985   6.443   8.021   9.553 -0.8227  0.1986 -0.4711
58249SOL     OW81986   0.624   2.943   2.404 -0.0840  0.1549 -0.4585
58249SOL    HW181987   0.663   2.858   2.387 -1.1566 -0.3703 -0.3596
58249SOL    HW281988   0.688   2.988   2.460  2.7687  1.3187 -4.2086
58250SOL     OW81989   6.025   8.418   7.740 -0.0857  0.3776 -0.0496
58250SOL    HW181990   6.049   8.509   7.760  0.2790  0.4440 -0.7468
58250SOL    HW281991   6.108   8.377   7.716 -0.4571  0.2551 -1.1858
58251SOL     OW81992   3.704  10.979   4.804  0.0691 -0.5246 -0.4598
58251SOL    HW181993   3.749  10.969   4.720  0.1634 -0.1183 -0.4584
58251SOL    HW281994   3.613  10.993   4.781  0.2644  0.7185 -0.5461
58252SOL     OW81995   7.920   1.780   5.420 -0.3736  0.6232 -0.2230
58252SOL    HW181996   7.985   1.725   5.377  0.8441  0.8686  1.2084
58252SOL    HW281997   7.836   1.754   5.381  0.5081 -0.1216 -1.6883
58253SOL     OW81998  10.202  10.968   3.834 -0.0771 -0.1456 -0.8349
58253SOL    HW181999  10.170  10.995   3.921  0.5548 -0.0137 -0.6396
58253SOL    HW282000  10.133  10.910   3.801  0.8074 -2.3221  0.8619
58254SOL     OW82001   5.006   2.929  12.632 -0.3171  0.1575 -0.0163
58254SOL    HW182002   4.980   2.837  12.625  1.3657 -0.3085 -0.3433
58254SOL    HW282003   5.064   2.944  12.558  0.2205  1.2076  0.5913
58255SOL     OW82004  12.082  12.241  12.032 -0.4563  0.3766 -0.4851
58255SOL    HW182005  12.142  12.279  12.096  0.8000  1.1266 -2.0277
58255SOL    HW282006  12.104  12.148  12.030 -0.3158  0.3991 -0.0266
58256SOL     OW82007   0.329   6.982   5.255 -0.0772  0.3004  0.9323
58256SOL    HW182008   0.361   6.906   5.305  1.0383  0.5332  0.5963
58256SOL    HW282009   0.344   6.958   5.164  1.2204  1.2953  0.8519
58257SOL     OW82010   2.295   2.267   4.130  0.4338 -0.3782 -0.2201
58257SOL    HW182011   2.260   2.258   4.041  0.3985 -0.2441 -0.2214
58257SOL    HW282012   2.364   2.332   4.122 -2.1760  2.7606  0.5106
58258SOL     OW82013   8.201   2.198  12.092  0.0799 -0.9741  0.7649
58258SOL    HW182014   8.239   2.258  12.029 -1.2091 -0.5164  0.3759
58258SOL    HW282015   8.135   2.250  12.138 -0.1221 -1.7338  1.3623
58259SOL     OW82016   7.630   4.562   1.173 -0.0239 -0.0315  0.6604
58259SOL    HW182017   7.702   4.558   1.235  1.2324 -1.8306 -0.8191
58259SOL    HW282018   7.562   4.507   1.211 -0.6875  1.6333  2.0358
58260SOL     OW82019  11.752   1.090   9.865  0.1139 -0.8072  0.0718
58260SOL    HW182020  11.706   1.065   9.946  0.7046  0.9263  0.9861
58260SOL    HW282021  11.692   1.064   9.795 -3.2288  2.7812  1.2230
58261SOL     OW82022   4.054   8.120   2.764 -0.0793 -0.0202 -0.3047
58261SOL    HW182023   4.113   8.103   2.691 -0.7723  0.7734 -1.0679
58261SOL    HW282024   4.089   8.199   2.805 -1.2355  1.1350 -1.4666
58262SOL     OW82025  12.394   9.133   6.810  0.0530  0.4504 -0.2185
58262SOL    HW182026  12.428   9.052   6.773 -0.6743  0.2116 -0.3610
58262SOL    HW282027  12.403   9.121   6.905 -0.5885 -0.0326 -0.2157
58263SOL     OW82028   0.201  10.417   1.843  0.2886 -0.1678 -0.5707
58263SOL    HW182029   0.272  10.374   1.891  0.6518  0.5003 -0.5060
58263SOL    HW282030   0.185  10.358   1.769  1.3843  0.0058 -0.9727
58264SOL     OW82031   9.129  10.638  10.207  0.4126  0.0321  0.4026
58264SOL    HW182032   9.174  10.605  10.285  0.9743 -0.8889 -0.2872
58264SOL    HW282033   9.153  10.576  10.138 -0.0383  0.8534 -0.5131
58265SOL     OW82034   3.216   5.145  10.201 -0.0443 -0.1179 -0.1367
58265SOL    HW182035   3.230   5.239  10.212  0.8784 -0.1543 -0.7967
58265SOL    HW282036   3.140   5.124  10.255 -1.2237  1.2867 -1.1662
58266SOL     OW82037  12.205  10.368   1.160  0.4361 -0.4392 -0.1124
58266SOL    HW182038  12.298  10.372   1.138  0.7668 -0.4360  1.2401
58266SOL    HW282039  12.167  10.444   1.117  1.1736 -0.0826 -0.1450
58267SOL     OW82040   5.957   7.224   8.369  0.5873 -0.2918 -0.1983
58267SOL    HW182041   5.922   7.209   8.281  0.0707 -0.3683  0.0176
58267SOL    HW282042   5.896   7.285   8.409  0.8187 -0.2617  0.1131
58268SOL     OW82043   6.620   6.089  12.537  0.2966  0.3136  0.3037
58268SOL    HW182044   6.571   6.145  12.477  0.6694  1.5568  1.1355
58268SOL    HW282045   6.557   6.064  12.604  0.2595  0.1240  0.2005
58269SOL     OW82046   2.953   9.554   9.625  0.2913 -0.2990  0.2987
58269SOL    HW182047   2.998   9.606   9.692 -0.6600  1.4647 -0.3805
58269SOL    HW282048   2.872   9.526   9.668 -0.1602  0.5482  0.0258
58270SOL     OW82049  11.852   4.568   9.009  0.3725 -0.0946  0.4809
58270SOL    HW182050  11.852   4.549   9.103 -1.2438 -0.3917  0.4493
58270SOL    HW282051  11.804   4.651   9.002 -0.4693 -0.6178 -0.1556
58271SOL     OW82052  10.323   3.093   7.420 -0.0049 -0.4272 -0.1442
58271SOL    HW182053  10.349   3.106   7.329  1.7629  0.7440  0.4763
58271SOL    HW282054  10.261   3.164   7.438  0.5251  0.0282 -0.1125
58272SOL     OW82055  11.667   6.122  12.571  0.4672  0.0035 -0.2612
58272SOL    HW182056  11.595   6.066  12.599 -0.5260  0.4015 -1.8790
58272SOL    HW282057  11.645   6.145  12.481  1.9678  1.2153 -0.3498
58273SOL     OW82058   1.344   1.061   8.384  0.2833 -0.5838  0.4044
58273SOL    HW182059   1.282   1.055   8.457  1.3804 -2.4206  1.2787
58273SOL    HW282060   1.339   0.976   8.341  1.6876 -0.5330  0.0903
58274SOL     OW82061  10.066   3.847   7.351 -0.4214 -0.3661 -0.3679
58274SOL    HW182062  10.072   3.759   7.389  1.0314 -0.1507 -0.0381
58274SOL    HW282063  10.018   3.898   7.416 -0.9937 -0.8308 -0.4174
58275SOL     OW82064  11.144   1.952   4.271 -0.1365 -0.2289  0.3126
58275SOL    HW182065  11.141   1.856   4.276  0.8240 -0.1807  2.7820
58275SOL    HW282066  11.053   1.979   4.281 -0.1928 -0.8661  1.8063
58276SOL     OW82067  12.462  12.337   4.154  0.1939  0.0579 -0.3135
58276SOL    HW182068  12.503  12.333   4.067 -0.0281 -0.4090 -0.4028
58276SOL    HW282069  12.535  12.350   4.214  0.4295 -0.3392 -0.5094
58277SOL     OW82070   7.628   5.809   7.951 -0.1845 -0.4051 -0.4528
58277SOL    HW182071   7.594   5.730   7.908 -0.2692  0.5612 -2.2623
58277SOL    HW282072   7.710   5.782   7.990  0.0924 -1.2592 -1.5892
58278SOL     OW82073   1.383   6.583   2.181  0.7056 -0.4406  0.2814
58278SOL    HW182074   1.431   6.646   2.235  0.7988  0.4324 -0.7798
58278SOL    HW282075   1.291   6.607   2.192  0.6099 -1.1099  1.0692
58279SOL     OW82076   9.804   3.553  10.637  0.5224 -0.1785  0.1507
58279SOL    HW182077   9.777   3.468  10.671  0.4053  0.2567  1.1815
58279SOL    HW282078   9.876   3.580  10.693 -0.3186  1.0005  0.7030
58280SOL     OW82079   1.947  11.065   4.303 -0.1089 -0.1308  0.5986
58280SOL    HW182080   1.995  10.991   4.341  1.4031  0.8266  0.6609
58280SOL    HW282081   2.005  11.140   4.317 -0.9406  0.8057 -0.7656
58281SOL     OW82082   6.212  10.148   5.846 -0.3086 -0.5702 -0.1732
58281SOL    HW182083   6.169  10.171   5.764  0.4310 -0.1127 -0.4448
58281SOL    HW282084   6.269  10.074   5.822 -0.2683 -0.5881 -0.0216
58282SOL     OW82085   2.464   0.241   3.702  0.7324 -0.3879  0.2464
58282SOL    HW182086   2.447   0.273   3.614 -0.4972 -1.2846  0.1434
58282SOL    HW282087   2.533   0.175   3.690 -0.6796 -1.8358 -0.3441
58283SOL     OW82088  10.488   0.098   5.113  0.2320  0.4214 -0.3027
58283SOL    HW182089  10.399   0.065   5.122  0.5785 -0.3115  0.6833
58283SOL    HW282090  10.502   0.151   5.191  0.7061  0.3970 -0.3660
58284SOL     OW82091  12.558   3.566   3.263 -0.0363  0.2950  0.2280
58284SOL    HW182092  12.578   3.648   3.218 -0.4346  1.4425  2.0877
58284SOL    HW282093  12.484   3.586   3.320 -0.7124 -1.5925  0.0934
58285SOL     OW82094   3.078   0.636   8.073  0.0819 -0.0436 -0.0355
58285SOL    HW182095   3.113   0.636   8.162 -0.3119  0.8525  0.1302
58285SOL    HW282096   3.083   0.727   8.045  1.4553 -0.5029 -1.4504
58286SOL     OW82097  12.219  10.924   7.153  0.5392 -0.3405  0.3429
58286SOL    HW182098  12.309  10.894   7.166 -0.0630 -1.8268  1.4295
58286SOL    HW282099  12.166  10.862   7.204 -1.0443  0.9127  0.2917
58287SOL     OW82100   3.239   0.996   7.893  0.1105  0.3916 -0.5361
58287SOL    HW182101   3.181   1.007   7.967 -1.5791 -1.8302 -1.3971
58287SOL    HW282102   3.283   1.080   7.883 -0.8872  1.2697  1.8828
58288SOL     OW82103   9.211   5.776   9.430  0.0253 -0.0559 -0.1550
58288SOL    HW182104   9.164   5.817   9.358  0.4160  2.5098  0.9434
58288SOL    HW282105   9.265   5.708   9.388 -0.7182  0.4792 -2.0797
58289SOL     OW82106   7.834   3.961   8.062 -0.0256 -0.1627 -0.1858
58289SOL    HW182107   7.830   3.865   8.066  1.1997 -0.2713 -1.0558
58289SOL    HW282108   7.769   3.984   7.995  0.8767 -0.5220 -1.2009
58290SOL     OW82109   8.617   7.705   0.565  0.1898  0.6271 -0.1500
58290SOL    HW182110   8.641   7.787   0.607 -2.4440  2.1596 -1.4085
58290SOL    HW282111   8.676   7.698   0.490  2.0562  0.0452  1.3029
58291SOL     OW82112   0.735   6.526  10.133 -0.0865  0.2716  0.6893
58291SOL    HW182113   0.689   6.584  10.073 -0.1035  1.7043  2.0235
58291SOL    HW282114   0.684   6.531  10.214  1.9575  1.3331  1.9803
58292SOL     OW82115  10.867   3.375   9.903  0.4701  0.9257 -0.6141
58292SOL    HW182116  10.903   3.459   9.933  0.5588  0.7732 -0.2957
58292SOL    HW282117  10.891   3.371   9.810  1.5100  0.7017 -0.3451
58293SOL     OW82118  12.552   7.859   0.119  0.3418 -0.6020 -0.5164
58293SOL    HW182119  12.641   7.883   0.145  0.1431 -2.6914  2.6591
58293SOL    HW282120  12.496   7.893   0.188 -1.6711  2.0141 -3.2205
58294SOL     OW82121   0.977  11.547   4.092 -0.2421  0.0939 -0.3021
58294SOL    HW182122   0.926  11.582   4.019 -0.0177  0.4585 -0.2859
58294SOL    HW282123   0.918  11.486   4.135 -0.7537  0.6820 -0.1497
58295SOL     OW82124   0.769  11.772   2.875 -0.2853 -0.2448 -0.5428
58295SOL    HW182125   0.832  11.843   2.891  1.1399 -1.2937 -1.2593
58295SOL    HW282126   0.778  11.715   2.951 -0.8215 -0.0895 -0.3610
58296SOL     OW82127   7.505   4.561   2.031 -0.5136  0.2217  0.6685
58296SOL    HW182128   7.459   4.484   2.063 -0.5567 -0.2622 -0.4848
58296SOL    HW282129   7.576   4.575   2.093 -0.7376 -0.5225  1.0987
58297SOL     OW82130   9.423  11.869   3.019  0.1185 -0.3387  0.1470
58297SOL    HW182131   9.505  11.869   3.069  0.2091 -2.6417  0.0589
58297SOL    HW282132   9.390  11.780   3.026 -2.2397  0.4577 -0.1019
58298SOL     OW82133  10.267   7.769  11.061 -0.4304 -0.4538 -0.0229
58298SOL    HW182134  10.349   7.815  11.078  0.1002  0.8158 -4.6738
58298SOL    HW282135  10.291   7.676  11.064  0.5382 -0.1900  1.0792
58299SOL     OW82136   4.821  10.256   9.234 -0.0901 -0.3828 -0.9600
58299SOL    HW182137   4.842  10.344   9.202  0.7911 -0.6198 -1.0811
58299SOL    HW282138   4.829  10.263   9.329  0.6190 -0.4717 -1.0028
58300SOL     OW82139  12.596   7.940  11.238 -0.0795  0.3377 -0.2019
58300SOL    HW182140  12.648   7.998  11.293 -1.8659  0.1787  1.7568
58300SOL    HW282141  12.538   7.999  11.190 -0.1380  0.3274 -0.1429
58301SOL     OW82142  12.591   9.641   1.005  0.1580  0.2951  0.3995
58301SOL    HW182143  12.633   9.717   1.046 -0.7605  0.1105  1.7717
58301SOL    HW282144  12.501   9.671   0.988  0.0970 -0.1430 -0.0524
58302SOL     OW82145   3.065   4.996   9.880 -0.1802 -0.5456  0.0807
58302SOL    HW182146   3.078   5.029   9.969 -1.4460 -1.5885  0.6885
58302SOL    HW282147   2.972   4.975   9.876 -0.8608  2.1854 -2.4668
58303SOL     OW82148   5.413   9.582   8.351  0.0337  0.5619  0.1622
58303SOL    HW182149   5.505   9.588   8.323  0.0118  2.0868  0.3805
58303SOL    HW282150   5.376   9.515   8.293  1.2455  0.0167 -0.0208
58304SOL     OW82151   5.548  11.367   7.014 -0.2658 -0.1050 -0.3058
58304SOL    HW182152   5.586  11.280   7.016 -0.4554 -0.1917  1.5879
58304SOL    HW282153   5.454  11.353   7.025 -0.3163  0.3262 -0.1519
58305SOL     OW82154   7.239  10.382  10.451  0.4987  0.1506 -0.1815
58305SOL    HW182155   7.322  10.426  10.436  0.6556 -0.8609 -3.0213
58305SOL    HW282156   7.259  10.314  10.516  1.4476  0.9765  0.4161
58306SOL     OW82157   9.328   9.854   9.467  0.1756  0.3101  0.5900
58306SOL    HW182158   9.301   9.880   9.379  0.9765 -2.0779 -0.4579
58306SOL    HW282159   9.246   9.835   9.513 -0.2631 -2.2911 -1.0206
58307SOL     OW82160   4.122   2.604   5.912  0.0003 -0.0225  0.2894
58307SOL    HW182161   4.158   2.677   5.862  0.5682 -0.3453  0.2178
58307SOL    HW282162   4.077   2.645   5.986 -0.3590  0.4318 -0.1741
58308SOL     OW82163   3.508   9.314   1.990  0.1950  0.3365  0.1842
58308SOL    HW182164   3.548   9.242   2.038 -0.4552 -0.2989 -0.2084
58308SOL    HW282165   3.581   9.373   1.970  1.0912 -1.1598 -1.1579
58309SOL     OW82166   2.403   3.147  11.546 -0.5802 -0.2491  0.2402
58309SOL    HW182167   2.419   3.238  11.569 -0.9418  0.3410 -1.7502
58309SOL    HW282168   2.319   3.147  11.500 -0.2451 -1.4694 -0.4225
58310SOL     OW82169   7.300   4.134   6.479  0.3318  0.6470 -0.5125
58310SOL    HW182170   7.212   4.138   6.441  0.9936 -1.9190 -2.6044
58310SOL    HW282171   7.290   4.077   6.556  0.4374 -1.4933 -1.9944
58311SOL     OW82172   7.167   9.806   4.663  0.3461  0.3685  0.1564
58311SOL    HW182173   7.079   9.801   4.701 -0.3642 -2.0183 -1.5194
58311SOL    HW282174   7.216   9.863   4.722 -1.7068 -0.0198  2.4031
58312SOL     OW82175  10.550  12.327   6.360 -0.0067  0.3167  0.3627
58312SOL    HW182176  10.476  12.365   6.409 -0.1407 -1.5526  1.7050
58312SOL    HW282177  10.609  12.294   6.428  1.2498  0.2628 -0.7300
58313SOL     OW82178   1.690   8.983   3.025 -0.2566 -0.2752  0.3057
58313SOL    HW182179   1.740   8.994   3.106 -0.5721  1.1625  0.3250
58313SOL    HW282180   1.613   9.039   3.037  0.1239  0.6542 -1.3432
58314SOL     OW82181   8.832   3.858   4.654 -0.0366 -0.9605 -0.1576
58314SOL    HW182182   8.744   3.880   4.684 -0.5039 -2.8083 -0.0424
58314SOL    HW282183   8.886   3.933   4.679 -0.9854 -1.0949  2.5697
58315SOL     OW82184   3.557   4.569   5.126  0.5959  0.3379  0.0866
58315SOL    HW182185   3.470   4.538   5.150  0.5284  1.2344  1.0909
58315SOL    HW282186   3.570   4.648   5.180  1.5404  0.9009 -0.9218
58316SOL     OW82187   8.586   7.698   9.088 -0.1960  0.5536 -0.2427
58316SOL    HW182188   8.503   7.743   9.104 -0.6064  0.1148 -1.0719
58316SOL    HW282189   8.632   7.702   9.171 -1.8805 -0.9335  0.8231
58317SOL     OW82190  12.545   2.778   6.975  0.0602  0.1171  0.0062
58317SOL    HW182191  12.466   2.744   7.017 -1.5459  1.9411 -1.3733
58317SOL    HW282192  12.574   2.707   6.917 -1.1406 -0.2317 -0.1888
58318SOL     OW82193   4.217   1.968   2.801  0.5954  0.5703 -0.0125
58318SOL    HW182194   4.131   1.945   2.835 -0.2533  1.3422 -1.5523
58318SOL    HW282195   4.259   2.017   2.872 -0.6236  1.0619  0.3967
58319SOL     OW82196   3.615   8.090   9.545 -0.2566  0.0621 -0.0563
58319SOL    HW182197   3.667   8.055   9.617 -1.0489 -0.4562  0.2729
58319SOL    HW282198   3.595   8.014   9.490 -2.6130 -0.1862  1.0538
58320SOL     OW82199   7.714   4.070  11.235 -0.1640 -0.1622 -0.6181
58320SOL    HW182200   7.664   4.042  11.311  0.8321 -0.6453 -0.1297
58320SOL    HW282201   7.764   4.145  11.265 -1.0330  0.7003 -1.2750
58321SOL     OW82202   6.938  10.772   4.596 -0.0561 -0.1948  0.4950
58321SOL    HW182203   6.967  10.759   4.505 -0.2370 -0.7071  0.5091
58321SOL    HW282204   6.898  10.858   4.596 -1.4503 -0.8106 -0.2763
58322SOL     OW82205   5.903   1.167   3.862 -0.0250  0.3338 -0.0490
58322SOL    HW182206   5.921   1.253   3.824  3.3956 -0.2355 -0.0759
58322SOL    HW282207   5.902   1.182   3.957  0.7294  0.4134 -0.0479
58323SOL     OW82208   7.567   5.274   9.788  0.9132 -0.4958 -0.1164
58323SOL    HW182209   7.498   5.246   9.728  0.1207  0.6407  0.2382
58323SOL    HW282210   7.566   5.208   9.857  0.4184 -0.6749 -0.2901
58324SOL     OW82211   3.320  10.479   2.663  0.0417  0.7042 -0.2373
58324SOL    HW182212   3.383  10.410   2.641  0.4937  0.5307  1.4841
58324SOL    HW282213   3.335  10.546   2.596  1.3936  0.2391 -0.4383
58325SOL     OW82214   1.987   8.669   4.573 -0.0868 -0.1338 -0.3967
58325SOL    HW182215   1.954   8.579   4.569  1.6240 -0.8126  0.0810
58325SOL    HW282216   1.908   8.723   4.565 -1.4151 -1.6717  1.3952
58326SOL     OW82217   5.778   9.478   6.598 -0.4655 -0.0608 -0.1018
58326SOL    HW182218   5.780   9.531   6.678  0.7367 -0.2448  0.0023
58326SOL    HW282219   5.702   9.511   6.550 -0.5294  0.8381  0.5834
58327SOL     OW82220   8.462   3.004  12.710 -0.4646  0.0825  0.5573
58327SOL    HW182221   8.546   3.023  12.668  0.3524 -2.0632  1.1015
58327SOL    HW282222   8.430   2.925  12.667 -2.4723  1.0676  0.0755
58328SOL     OW82223   0.507   4.102   9.116  0.0357 -0.0090  0.0436
58328SOL    HW182224   0.520   4.082   9.024  0.4767 -0.4199  0.1921
58328SOL    HW282225   0.430   4.051   9.141 -1.0606  1.3251 -0.4820
58329SOL     OW82226  10.217   5.068   7.153 -0.3293  0.3773 -0.2473
58329SOL    HW182227  10.165   5.034   7.226 -0.6643  0.4845 -0.4338
58329SOL    HW282228  10.289   5.006   7.144  0.2244  0.8531  0.7648
58330SOL     OW82229  10.164   9.214  10.095  0.2447  0.0196 -0.2443
58330SOL    HW182230  10.088   9.266  10.119 -1.2003 -1.6601 -0.9934
58330SOL    HW282231  10.190   9.248  10.009  0.3987  0.6360  0.0384
58331SOL     OW82232   7.170   1.318   0.897  0.4021 -0.0175 -0.0875
58331SOL    HW182233   7.220   1.277   0.967  1.7433  0.2527 -0.8528
58331SOL    HW282234   7.183   1.412   0.910  0.2607  0.0478 -0.4136
58332SOL     OW82235   8.179   9.781   6.434  0.4844  0.1266 -0.6347
58332SOL    HW182236   8.163   9.831   6.514 -1.6712 -1.5773  0.0994
58332SOL    HW282237   8.103   9.799   6.378  1.7412  0.9357 -2.1551
58333SOL     OW82238   7.483   8.713   0.511  0.3158 -0.4756 -0.3307
58333SOL    HW182239   7.403   8.710   0.564 -0.0867  3.4891 -0.4126
58333SOL    HW282240   7.454   8.750   0.427  1.8767 -1.2612 -1.2550
58334SOL     OW82241   2.365   0.111   1.636  0.0623 -0.4409  0.0422
58334SOL    HW182242   2.336   0.033   1.683 -1.1021 -1.0042 -1.5348
58334SOL    HW282243   2.320   0.107   1.552  1.6218  0.8273 -0.9218
58335SOL     OW82244   6.169   0.783   6.191  0.0108  0.2320  0.2661
58335SOL    HW182245   6.088   0.826   6.218  0.3179  0.3555  0.9987
58335SOL    HW282246   6.183   0.714   6.255  0.0908 -0.2868 -0.2943
58336SOL     OW82247   2.323   3.994   4.969 -0.3300  0.3552  0.2664
58336SOL    HW182248   2.331   3.960   4.879 -1.0651  1.5989 -0.2961
58336SOL    HW282249   2.377   4.073   4.970 -0.4794  0.4508  0.8692
58337SOL     OW82250   1.671   9.133   8.321 -0.6755  0.5420  0.0021
58337SOL    HW182251   1.739   9.138   8.255 -0.3518 -2.2067 -0.0126
58337SOL    HW282252   1.710   9.172   8.399 -0.3454  2.0243 -0.8718
58338SOL     OW82253   4.968   1.137   7.206 -0.0288  0.3851 -0.2328
58338SOL    HW182254   4.925   1.103   7.284  2.3147 -2.0623  0.1574
58338SOL    HW282255   4.897   1.159   7.146 -1.8218  0.0637  1.6727
58339SOL     OW82256   4.400   0.475  11.230 -0.3151 -0.6029  0.0959
58339SOL    HW182257   4.461   0.497  11.300  1.0652 -2.9114 -0.2797
58339SOL    HW282258   4.365   0.389  11.255 -2.6807  0.1824 -0.2309
58340SOL     OW82259   7.355   8.620  10.680  0.0043  0.5302 -0.2769
58340SOL    HW182260   7.399   8.694  10.638  0.8987  1.0640  1.4794
58340SOL    HW282261   7.423   8.554  10.691 -0.5453 -0.1512 -0.8957
58341SOL     OW82262   5.651   2.256   2.932  0.1836 -0.7440 -0.8688
58341SOL    HW182263   5.663   2.351   2.925  0.1270 -0.7728 -1.3632
58341SOL    HW282264   5.606   2.231   2.851 -1.1939 -0.9671 -0.0675
58342SOL     OW82265   0.545  11.983   3.839  0.1583  0.7450  0.2745
58342SOL    HW182266   0.627  12.026   3.812 -0.0799  1.6081  0.8742
58342SOL    HW282267   0.561  11.890   3.824  1.6244  0.7919  1.2576
58343SOL     OW82268   5.227   9.907   7.498  0.0340 -0.1036 -0.0621
58343SOL    HW182269   5.284   9.902   7.421 -2.4036 -1.5664 -1.9470
58343SOL    HW282270   5.234   9.821   7.539 -0.3317 -0.0834  0.0501
58344SOL     OW82271  10.805   8.417  10.866 -0.1323 -0.3799  0.0854
58344SOL    HW182272  10.864   8.344  10.847  0.1968 -0.0208 -0.2904
58344SOL    HW282273  10.747   8.422  10.790  0.7332  0.6134 -0.5321
58345SOL     OW82274   9.472  10.898   1.135  0.0789 -0.0364  0.2234
58345SOL    HW182275   9.448  10.987   1.161  2.8401  0.7457  0.4074
58345SOL    HW282276   9.388  10.853   1.126 -1.4185  2.4763  0.4081
58346SOL     OW82277  12.531   4.791   2.061 -0.2174 -0.3671 -0.2397
58346SOL    HW182278  12.448   4.798   2.014 -0.3298  0.0985  0.0243
58346SOL    HW282279  12.585   4.861   2.026 -0.1866 -0.2216  0.0892
58347SOL     OW82280   1.224   9.411   5.796 -0.0303  0.6995 -0.0909
58347SOL    HW182281   1.242   9.470   5.723  1.3012 -0.4097 -0.7095
58347SOL    HW282282   1.153   9.355   5.766  1.0933 -0.3304 -0.9235
58348SOL     OW82283   0.635   7.735   5.558  0.1251  0.3304 -0.3798
58348SOL    HW182284   0.627   7.649   5.598  3.9541 -1.0614 -2.1290
58348SOL    HW282285   0.553   7.747   5.509 -0.5284 -2.3057 -0.0632
58349SOL     OW82286   0.713   1.443   4.235 -0.2630  0.1312  0.2673
58349SOL    HW182287   0.665   1.524   4.253 -1.3217 -0.1986 -0.9009
58349SOL    HW282288   0.760   1.425   4.316  0.0184  1.9168  0.5546
58350SOL     OW82289  12.535   6.827   6.760 -0.1801 -0.2031  0.1978
58350SOL    HW182290  12.507   6.837   6.851  1.2326 -1.9779  0.8894
58350SOL    HW282291  12.465   6.775   6.719 -0.6558  0.3140  0.3480
58351SOL     OW82292   9.232   2.264   5.549 -0.0496  0.2068  0.1905
58351SOL    HW182293   9.232   2.193   5.485  0.3916 -0.7857  1.2726
58351SOL    HW282294   9.311   2.315   5.528 -0.2598  0.2856 -0.4538
58352SOL     OW82295   2.048   5.072   9.355  0.6547  0.8290  0.3681
58352SOL    HW182296   1.979   5.131   9.324  0.9523  1.0016  0.0234
58352SOL    HW282297   2.001   5.002   9.400  0.2538  0.9406  0.1290
58353SOL     OW82298   1.113   1.797   0.153 -0.5821 -0.4926 -0.0200
58353SOL    HW182299   1.183   1.731   0.150 -1.1488 -1.1469  0.8767
58353SOL    HW282300   1.064   1.784   0.072  0.0651 -0.3193 -0.4478
58354SOL     OW82301   6.526   2.496   6.637  0.1559  0.3749  0.2573
58354SOL    HW182302   6.619   2.486   6.657  0.1221 -0.6870 -0.0505
58354SOL    HW282303   6.486   2.415   6.667 -0.5914  0.6096 -0.0788
58355SOL     OW82304  10.950   1.636   6.613 -0.0661  0.3312 -0.6867
58355SOL    HW182305  10.964   1.542   6.600  0.0486  0.3496 -0.6961
58355SOL    HW282306  11.009   1.678   6.551  0.0445  0.4105 -0.5279
58356SOL     OW82307   3.929  12.084   6.484  0.4254  0.0644 -0.6892
58356SOL    HW182308   3.838  12.057   6.496  0.3671 -0.4890 -2.1339
58356SOL    HW282309   3.970  12.069   6.569 -1.4251  3.0403  0.8882
58357SOL     OW82310   5.489   9.826   7.033  0.5552  0.4309 -0.0305
58357SOL    HW182311   5.461   9.881   6.960  0.2124  1.3750  0.7802
58357SOL    HW282312   5.499   9.739   6.995  0.1968  0.8551 -1.1535
58358SOL     OW82313   2.298   8.221   5.228  0.2065  0.2576 -0.3533
58358SOL    HW182314   2.351   8.274   5.169  0.8218 -0.5656 -0.5499
58358SOL    HW282315   2.236   8.283   5.267  0.6073  1.0277 -0.9287
58359SOL     OW82316   3.995   1.992   1.271 -0.3287  0.9078  0.0742
58359SOL    HW182317   4.062   2.053   1.300 -0.3912  1.7920 -1.5085
58359SOL    HW282318   4.043   1.925   1.222 -0.3499  0.1276  1.0967
58360SOL     OW82319   8.784   0.174  10.517  0.6136 -0.2717 -0.1180
58360SOL    HW182320   8.767   0.144  10.428  0.6988 -0.1787 -0.1665
58360SOL    HW282321   8.870   0.140  10.538  0.7140 -0.0583 -0.1767
58361SOL     OW82322   4.926  11.747  10.487 -0.3741 -0.3217 -0.0038
58361SOL    HW182323   4.972  11.663  10.480  0.9876  0.3156  0.7367
58361SOL    HW282324   4.875  11.740  10.567  0.2372 -0.2322  0.4013
58362SOL     OW82325  10.827  11.461   2.484  0.0920 -0.0207  0.6569
58362SOL    HW182326  10.861  11.394   2.425  0.7964  2.9439 -2.6687
58362SOL    HW282327  10.905  11.502   2.522 -0.2484  0.0589  1.2803
58363SOL     OW82328   6.331  10.619  11.254 -0.3081  0.2796 -0.0787
58363SOL    HW182329   6.282  10.596  11.333 -1.4719 -1.1035 -1.1386
58363SOL    HW282330   6.364  10.535  11.221  0.1746  0.8326 -1.0479
58364SOL     OW82331   8.478   3.751   5.899 -0.8855 -0.1665  0.1104
58364SOL    HW182332   8.458   3.829   5.848 -0.4849  0.1741  0.4716
58364SOL    HW282333   8.404   3.742   5.959 -2.0008 -1.2905 -1.3492
58365SOL     OW82334   6.785   9.806   8.183 -0.1285  0.0228  0.2703
58365SOL    HW182335   6.752   9.790   8.094 -0.0210  1.7009 -0.1045
58365SOL    HW282336   6.785   9.719   8.224 -2.9533 -0.3893 -0.3883
58366SOL     OW82337   4.484   7.260   0.716  0.3169 -0.4226 -0.0671
58366SOL    HW182338   4.392   7.252   0.692  0.4965  0.4619 -1.1756
58366SOL    HW282339   4.483   7.299   0.804 -0.3846  0.4675 -0.4485
58367SOL     OW82340   6.727   8.576   5.506  0.0109  0.4701 -0.3138
58367SOL    HW182341   6.691   8.488   5.520  1.2794  0.2525  2.2540
58367SOL    HW282342   6.820   8.566   5.528  0.4469  2.2022 -1.2559
58368SOL     OW82343  11.826  12.063   3.909  0.2319 -0.6892 -0.3445
58368SOL    HW182344  11.903  12.094   3.956  1.2807 -0.9824 -1.8041
58368SOL    HW282345  11.780  12.008   3.972  2.1710 -1.9709  0.0425
58369SOL     OW82346   2.759   3.471   4.581 -0.4521  0.0628 -0.3198
58369SOL    HW182347   2.853   3.484   4.597 -0.6448  0.4700  0.5669
58369SOL    HW282348   2.754   3.444   4.489  0.3812  1.9414 -0.9709
58370SOL     OW82349   8.172   0.076   8.827 -0.4513 -0.5902  0.3320
58370SOL    HW182350   8.112   0.028   8.770 -0.2706 -2.1098  1.3669
58370SOL    HW282351   8.186   0.159   8.782 -0.9412 -1.4115 -1.4321
58371SOL     OW82352   2.570   5.642   5.360 -0.1127 -0.3320  0.3157
58371SOL    HW182353   2.515   5.710   5.322  2.9002  1.6446 -0.8887
58371SOL    HW282354   2.623   5.688   5.426  0.4298 -2.0180  1.1201
58372SOL     OW82355   1.036   2.223  12.200  0.0242  0.0190  0.4826
58372SOL    HW182356   0.980   2.260  12.268 -1.0292 -0.0532 -0.3098
58372SOL    HW282357   1.047   2.132  12.225 -0.5726 -0.0711  0.4395
58373SOL     OW82358   5.939   7.865   1.956  0.0346 -0.4463 -0.0185
58373SOL    HW182359   5.855   7.893   1.920 -0.2227 -1.1901 -0.0057
58373SOL    HW282360   5.989   7.946   1.965 -0.6027 -0.0231 -0.2228
58374SOL     OW82361   4.495   6.004   5.089  0.0034  0.5132 -0.2300
58374SOL    HW182362   4.507   6.075   5.152  0.2085 -0.9650  1.4800
58374SOL    HW282363   4.545   6.032   5.012 -3.0395  3.9443 -1.2042
58375SOL     OW82364   7.729   7.715   3.384  0.3577 -0.3780 -0.0844
58375SOL    HW182365   7.663   7.651   3.410  0.6778 -1.0435 -0.8779
58375SOL    HW282366   7.811   7.666   3.382  1.1614  0.7280  2.1912
58376SOL     OW82367   0.100   9.268   2.338  0.3150 -0.0023 -0.0427
58376SOL    HW182368   0.157   9.345   2.343 -1.6123  1.8311 -3.1203
58376SOL    HW282369   0.137   9.216   2.267 -0.8930  0.4305 -1.0179
58377SOL     OW82370   6.552   7.388  10.425 -0.1399 -0.3045 -0.2894
58377SOL    HW182371   6.592   7.449  10.364 -1.0956  0.5800 -0.0647
58377SOL    HW282372   6.611   7.313  10.427 -0.2194 -0.4948 -2.5170
58378SOL     OW82373   2.265   9.755   0.147 -0.6361  0.3386 -0.3197
58378SOL    HW182374   2.240   9.663   0.150  0.9347 -0.1363 -0.8469
58378SOL    HW282375   2.320   9.767   0.224 -1.9320  1.2136  0.5069
58379SOL     OW82376   9.702   9.829  11.602 -0.6183 -0.5059 -0.3343
58379SOL    HW182377   9.617   9.870  11.584 -0.2340  0.9113  0.9305
58379SOL    HW282378   9.763   9.902  11.608  0.2119 -1.2914  1.3114
58380SOL     OW82379   7.794   9.789   2.465  0.0406  0.2948 -0.0103
58380SOL    HW182380   7.744   9.850   2.520  1.1915 -0.4220  1.8829
58380SOL    HW282381   7.815   9.716   2.522  2.6377  0.2298 -0.9397
58381SOL     OW82382  12.040  11.725   6.148  0.4332  0.5489  0.7579
58381SOL    HW182383  11.975  11.663   6.182 -0.6339  2.1606  1.7770
58381SOL    HW282384  12.068  11.775   6.224  0.3582  2.1326 -0.2068
58382SOL     OW82385   2.171   2.980   6.242 -0.6126 -0.4982  0.0208
58382SOL    HW182386   2.215   2.964   6.158 -1.1211  1.7085 -0.7334
58382SOL    HW282387   2.139   3.070   6.235 -1.7917 -0.7065  2.1053
58383SOL     OW82388   1.965   1.302   8.991  0.5648 -0.1961 -0.4094
58383SOL    HW182389   1.884   1.265   9.026  0.3972  0.4341 -0.1259
58383SOL    HW282390   2.002   1.353   9.064  0.8570  0.0957 -0.7575
58384SOL     OW82391   0.078   8.263   9.218 -0.2544 -0.2361 -0.9330
58384SOL    HW182392  -0.001   8.317   9.211  0.6709  1.3137  0.0244
58384SOL    HW282393   0.063   8.210   9.296  0.4556  1.5431  0.4798
58385SOL     OW82394  10.497   7.690  10.226  0.2470  0.3224  0.1936
58385SOL    HW182395  10.437   7.669  10.154  0.1556  1.6588 -0.1463
58385SOL    HW282396  10.454   7.654  10.304  0.0119 -0.5355 -0.3148
58386SOL     OW82397  10.924  11.973   8.291  0.1679 -0.4686 -0.3017
58386SOL    HW182398  10.883  12.016   8.366  0.6462  1.0811 -0.8969
58386SOL    HW282399  10.985  11.911   8.329  2.7436  2.4639  0.7335
58387SOL     OW82400  10.528   1.992  10.367  0.5485  0.3256 -0.2168
58387SOL    HW182401  10.470   2.067  10.359 -0.2271 -0.0204  1.7218
58387SOL    HW282402  10.470   1.917  10.376  1.3157 -0.4000 -1.0558
58388SOL     OW82403   4.508   1.029   4.302  0.3030 -0.4492 -0.4751
58388SOL    HW182404   4.551   0.961   4.354 -0.6537 -0.1651  0.7199
58388SOL    HW282405   4.564   1.106   4.313  0.2100 -0.4438 -0.0322
58389SOL     OW82406  12.028   0.801   5.069 -0.3679 -0.3128 -0.2390
58389SOL    HW182407  11.994   0.725   5.023  0.8095 -0.2175 -1.3071
58389SOL    HW282408  12.036   0.869   5.002 -1.4286  0.7926  0.6924
58390SOL     OW82409   3.762  11.856  10.443 -0.9106 -0.5230  0.4943
58390SOL    HW182410   3.717  11.782  10.401 -1.7210 -0.0719  0.5523
58390SOL    HW282411   3.780  11.916  10.371 -2.0634  0.1311  0.7220
58391SOL     OW82412   2.635   7.381   5.029  0.1965 -0.5657 -0.0849
58391SOL    HW182413   2.652   7.407   5.119 -0.3815 -2.8122  0.7358
58391SOL    HW282414   2.591   7.457   4.990 -0.8522 -0.0570  1.9472
58392SOL     OW82415   6.691   4.365   1.800  0.6567 -0.6245  0.5214
58392SOL    HW182416   6.667   4.382   1.891  1.7912  1.6394  0.4516
58392SOL    HW282417   6.786   4.368   1.798  0.6470 -0.0564 -0.8108
58393SOL     OW82418   5.044   1.656   7.525  0.2220 -0.0973 -0.3424
58393SOL    HW182419   4.975   1.665   7.459  0.6865 -0.1695 -0.8456
58393SOL    HW282420   5.050   1.562   7.541  2.2340 -0.4301 -2.5304
58394SOL     OW82421   4.832   2.126   1.653 -0.2387 -0.1444 -0.2985
58394SOL    HW182422   4.907   2.085   1.609  0.0371 -0.1294  0.1441
58394SOL    HW282423   4.828   2.082   1.738  0.0292  0.6970  0.1677
58395SOL     OW82424  10.422   1.668   7.727  0.1813  0.0717  0.0502
58395SOL    HW182425  10.476   1.736   7.685 -0.3273 -0.2036 -1.0652
58395SOL    HW282426  10.486   1.608   7.766  0.6999 -0.0534 -0.9455
58396SOL     OW82427  10.446   7.877   3.985  0.2064 -0.0834  0.0935
58396SOL    HW182428  10.433   7.945   3.919  1.0661 -1.0330 -1.1128
58396SOL    HW282429  10.374   7.816   3.972  0.8803 -0.7577 -0.6434
58397SOL     OW82430   3.121   1.191   1.661  0.0671  0.0318 -0.0062
58397SOL    HW182431   3.199   1.225   1.617  2.6750  0.7844  4.5777
58397SOL    HW282432   3.126   1.096   1.649  1.3393  0.1247 -0.3319
58398SOL     OW82433   2.274   0.150   2.602  0.6153 -0.5643  0.0296
58398SOL    HW182434   2.344   0.208   2.572  0.6149 -1.4953 -1.8982
58398SOL    HW282435   2.219   0.136   2.525 -0.4927 -1.5678  0.9528
58399SOL     OW82436   4.582   8.583   1.343  0.0994  0.7786  0.5606
58399SOL    HW182437   4.494   8.608   1.314  0.2696  0.5808 -0.1654
58399SOL    HW282438   4.592   8.625   1.428 -0.8283  0.5102  0.8198
58400SOL     OW82439   8.171   3.227   7.788 -0.2167  0.0047  0.2400
58400SOL    HW182440   8.234   3.229   7.860 -0.8182  1.2114  0.7813
58400SOL    HW282441   8.103   3.166   7.818 -0.4204  0.4348  0.6910
58401SOL     OW82442  12.505   9.347   8.747  0.3765 -0.1066  0.0394
58401SOL    HW182443  12.575   9.327   8.809 -0.7651 -0.0974  1.4089
58401SOL    HW282444  12.491   9.266   8.699  0.7855 -0.3506  0.3265
58402SOL     OW82445   9.079  10.642   8.534 -0.0583  0.2219 -0.3536
58402SOL    HW182446   9.098  10.736   8.546  0.8770  0.1094 -0.8318
58402SOL    HW282447   9.149  10.598   8.582  1.3921 -0.2157 -2.6964
58403SOL     OW82448   6.903   4.666   5.006  0.1307  0.5003 -0.2018
58403SOL    HW182449   6.925   4.621   4.924 -1.3477  2.2039 -1.6027
58403SOL    HW282450   6.972   4.639   5.067  0.7020 -1.6466 -1.6663
58404SOL     OW82451   6.161  10.002   6.471  0.6639  0.2331  0.0562
58404SOL    HW182452   6.174  10.090   6.433 -0.2881  0.6427  0.6582
58404SOL    HW282453   6.216   9.945   6.417  0.7586  1.0914 -0.7852
58405SOL     OW82454  10.565   9.793  10.935  0.4392  0.2157 -0.3863
58405SOL    HW182455  10.649   9.790  10.889  0.2662  1.6237 -0.8233
58405SOL    HW282456  10.499   9.785  10.865  0.1114 -3.4809  0.1114
58406SOL     OW82457   3.426   5.867   0.207 -0.1568 -0.0658  0.0503
58406SOL    HW182458   3.493   5.844   0.272  1.3799 -1.6731 -1.9630
58406SOL    HW282459   3.476   5.901   0.133 -1.6191 -0.6883 -1.2649
58407SOL     OW82460   3.949   2.556   0.833 -0.4171  0.2433  0.0531
58407SOL    HW182461   3.915   2.549   0.743  0.3141  1.8964 -0.3904
58407SOL    HW282462   3.898   2.492   0.883 -0.9688 -0.5838 -1.4970
58408SOL     OW82463   8.254   3.312   2.764  0.1275 -0.6607 -0.6031
58408SOL    HW182464   8.206   3.340   2.842  1.1118  1.7800 -0.7570
58408SOL    HW282465   8.284   3.224   2.784 -1.6805 -1.0202  0.7744
58409SOL     OW82466  12.031   5.666  11.709  0.0586 -0.0732  0.1653
58409SOL    HW182467  12.028   5.657  11.805  1.6371  0.2464  0.2682
58409SOL    HW282468  12.100   5.604  11.682 -1.2828 -1.1558 -0.9219
58410SOL     OW82469   9.401   1.321  12.636  0.8276  0.7365  0.5682
58410SOL    HW182470   9.378   1.328  12.544  0.9633  0.1416  0.4899
58410SOL    HW282471   9.478   1.265  12.638  0.7975  0.7077  1.0472
58411SOL     OW82472   7.528   8.034  11.280 -0.4187  0.6275  0.6196
58411SOL    HW182473   7.463   8.057  11.346  0.7413  0.8548  1.7349
58411SOL    HW282474   7.597   7.990  11.329 -0.0019 -0.1470 -0.6231
58412SOL     OW82475   2.709   0.268   2.326 -0.0457  0.5809  0.0082
58412SOL    HW182476   2.740   0.222   2.248  0.1515 -2.9230  1.9623
58412SOL    HW282477   2.751   0.223   2.399 -2.3562  1.8893  2.3058
58413SOL     OW82478   3.570  11.854   5.214  0.7020 -0.1856  0.7948
58413SOL    HW182479   3.477  11.878   5.214  0.4384 -1.1632  1.0501
58413SOL    HW282480   3.594  11.853   5.307  1.1641  0.7649  0.6923
58414SOL     OW82481   6.006   8.445  11.833  1.1582 -0.0005  0.3591
58414SOL    HW182482   6.050   8.457  11.918  2.3965 -0.2420 -0.2220
58414SOL    HW282483   5.971   8.356  11.837 -0.4206  0.6229  1.3107
58415SOL     OW82484   2.107   8.349   3.361  0.1300  0.2820  0.3446
58415SOL    HW182485   2.076   8.265   3.328 -1.7407  1.1055 -0.1322
58415SOL    HW282486   2.202   8.340   3.366  0.2671 -0.8913 -2.4947
58416SOL     OW82487   2.995   9.691   8.109 -0.8221  0.0883  0.1627
58416SOL    HW182488   2.945   9.630   8.164 -0.2150 -0.5590  0.0224
58416SOL    HW282489   3.079   9.699   8.154  0.7645 -2.6469 -1.9949
58417SOL     OW82490   8.368   0.148   0.535  0.1144  0.2394 -0.4704
58417SOL    HW182491   8.423   0.217   0.573  0.8449  0.1255 -1.2733
58417SOL    HW282492   8.407   0.132   0.448  0.3528 -1.6137 -0.0681
58418SOL     OW82493   5.578  12.018   7.350  0.3120  0.3145  0.5332
58418SOL    HW182494   5.656  11.962   7.354  1.9852  2.3692 -1.0191
58418SOL    HW282495   5.541  12.001   7.264  0.0495  0.6140  0.5870
58419SOL     OW82496  12.472  10.726   2.586  0.1122 -0.0334 -0.2322
58419SOL    HW182497  12.443  10.706   2.497  1.0403 -1.5453 -0.2265
58419SOL    HW282498  12.392  10.722   2.639 -0.4520  0.9302 -0.9905
58420SOL     OW82499   2.610   7.704  11.793  0.0414 -0.0991 -0.3840
58420SOL    HW182500   2.608   7.796  11.769 -2.3338 -0.0903 -0.4311
58420SOL    HW282501   2.635   7.703  11.885  2.2303  0.3747 -0.9156
58421SOL     OW82502   1.006  11.090   2.967 -0.2807  0.0361  0.6663
58421SOL    HW182503   1.020  11.055   2.879  0.3803 -0.8344  1.0985
58421SOL    HW282504   1.085  11.065   3.015 -0.2557  1.2513  1.2815
58422SOL     OW82505  10.083   9.598   4.272  0.2263 -0.7046  0.2584
58422SOL    HW182506  10.064   9.692   4.275 -0.9482 -0.8945 -0.6052
58422SOL    HW282507  10.013   9.558   4.324  1.1109 -1.0631  1.1974
58423SOL     OW82508   5.865   3.822   3.656  0.5131  0.1985  0.0929
58423SOL    HW182509   5.899   3.793   3.571  0.6266 -0.4822  0.3662
58423SOL    HW282510   5.928   3.787   3.720  0.7321  1.1644  0.4284
58424SOL     OW82511   8.109  12.577  10.601  0.2254 -0.3616 -0.4180
58424SOL    HW182512   8.125  12.611  10.689 -0.3149 -1.4218  0.1035
58424SOL    HW282513   8.152  12.491  10.600  0.1515 -0.3989 -1.1549
58425SOL     OW82514   6.330   7.504   9.972  0.0443 -0.1851  0.0574
58425SOL    HW182515   6.312   7.598   9.963 -1.8237 -0.4829  0.2641
58425SOL    HW282516   6.378   7.481   9.892  0.4201  0.9046 -0.0533
58426SOL     OW82517   3.974   0.107   0.394  0.2432 -0.6808  0.2791
58426SOL    HW182518   4.033   0.036   0.419  0.7138 -0.4111 -0.0608
58426SOL    HW282519   3.888   0.080   0.427  0.4232 -1.3999  0.1676
58427SOL     OW82520   7.337   7.373   7.879  0.2754 -0.0464 -0.6157
58427SOL    HW182521   7.244   7.397   7.874  0.7312  1.7971 -0.7232
58427SOL    HW282522   7.365   7.362   7.788  0.4150  0.4403 -0.6329
58428SOL     OW82523   4.815   2.526  10.338 -0.0659 -0.1186  0.0007
58428SOL    HW182524   4.808   2.481  10.253  0.8898 -0.2889  0.0037
58428SOL    HW282525   4.908   2.547  10.347 -0.3714  1.2342  0.3322
58429SOL     OW82526   4.416   9.075   4.348  0.2067 -0.0431  0.1035
58429SOL    HW182527   4.348   9.135   4.317  0.5663 -0.2056 -1.0703
58429SOL    HW282528   4.370   8.994   4.367  0.0520 -0.1605 -0.7110
58430SOL     OW82529   8.733   6.511   3.019  0.1710 -0.0118 -0.3367
58430SOL    HW182530   8.756   6.447   2.952  2.1942 -0.7370  0.9492
58430SOL    HW282531   8.782   6.590   2.994 -0.7643  0.4324 -0.8373
58431SOL     OW82532   9.154   5.717  11.435 -0.2573  0.4286  0.6331
58431SOL    HW182533   9.107   5.710  11.352 -1.3198 -1.1088  1.3029
58431SOL    HW282534   9.140   5.807  11.464 -2.2319  0.2278  0.4561
58432SOL     OW82535   7.810   2.469   3.051 -0.1016 -0.1935  0.3948
58432SOL    HW182536   7.866   2.394   3.030  1.3118  0.2527  2.2751
58432SOL    HW282537   7.804   2.518   2.969  2.2458 -0.3054  0.0701
58433SOL     OW82538  11.383  11.405   6.703 -0.4344  0.4492 -0.1456
58433SOL    HW182539  11.289  11.420   6.693 -0.8031 -1.2229  0.5185
58433SOL    HW282540  11.391  11.312   6.723  1.3983  0.4927 -0.4792
58434SOL     OW82541   3.735   5.458   5.081 -0.5450 -0.4746  0.1539
58434SOL    HW182542   3.680   5.491   5.010 -1.8887 -0.3421  1.2155
58434SOL    HW282543   3.738   5.529   5.145  0.1353 -0.8173  0.5228
58435SOL     OW82544   7.354   6.504   0.523 -0.4909  0.0177 -0.3596
58435SOL    HW182545   7.401   6.572   0.572  0.0417 -1.9249  2.0244
58435SOL    HW282546   7.423   6.448   0.488 -0.9004 -1.4140  0.9934
58436SOL     OW82547   4.443   1.737   4.276 -0.0856  0.6961  0.1371
58436SOL    HW182548   4.537   1.722   4.265  0.0950  1.7879  0.0318
58436SOL    HW282549   4.423   1.704   4.364  0.1498 -0.5767 -0.2704
58437SOL     OW82550   4.908   9.394   2.715 -0.2228 -0.3282  1.1821
58437SOL    HW182551   4.937   9.341   2.641 -1.0328  0.6703  0.1157
58437SOL    HW282552   4.816   9.411   2.699 -0.3459  0.1596  2.2783
58438SOL     OW82553  12.436   4.903   9.442 -0.7001 -0.1400 -0.5836
58438SOL    HW182554  12.478   4.947   9.368  1.4757 -0.0576  0.6127
58438SOL    HW282555  12.343   4.902   9.420 -0.1792  0.3074 -3.0661
58439SOL     OW82556   1.014   0.311   4.429  0.3090 -0.4929  0.6207
58439SOL    HW182557   1.085   0.296   4.491  1.6582  0.2608 -0.6840
58439SOL    HW282558   1.035   0.395   4.388 -1.5636 -0.0370  0.4902
58440SOL     OW82559  11.364   0.962   1.634  0.1118  0.0111 -0.2202
58440SOL    HW182560  11.291   1.022   1.643  0.1249  0.6128 -3.0289
58440SOL    HW282561  11.366   0.941   1.540  3.2262 -0.3452 -0.1795
58441SOL     OW82562   6.534   5.872   6.421 -0.1206 -0.4191 -0.4082
58441SOL    HW182563   6.546   5.888   6.328  0.2511  1.3013 -0.1024
58441SOL    HW282564   6.469   5.936   6.448  1.3247  0.5627  0.9027
58442SOL     OW82565   5.422   9.049   3.965 -0.2870 -0.0925  0.5382
58442SOL    HW182566   5.451   8.958   3.961 -0.3230 -0.0947  0.2886
58442SOL    HW282567   5.435   9.075   4.056  0.3002 -0.1576  0.4762
58443SOL     OW82568   4.768   6.771   6.618  0.2418 -0.0184  0.4205
58443SOL    HW182569   4.734   6.737   6.701  0.8505 -0.4867  0.4845
58443SOL    HW282570   4.751   6.701   6.555 -2.1463  1.1378 -0.3555
58444SOL     OW82571   9.056   3.330   5.936  0.0349  0.1081 -0.3460
58444SOL    HW182572   9.021   3.281   6.010 -0.0599  1.6034  0.6400
58444SOL    HW282573   9.055   3.267   5.863 -0.5896 -1.1643  0.7102
58445SOL     OW82574   3.765   7.263   4.025  0.6014 -0.0274 -0.0758
58445SOL    HW182575   3.723   7.189   4.069  1.4179 -0.4411  0.0349
58445SOL    HW282576   3.760   7.334   4.089 -0.6023  0.1591 -0.3608
58446SOL     OW82577  11.192  12.705   2.632 -0.1048 -0.1146 -0.0604
58446SOL    HW182578  11.176  12.647   2.706 -1.6060 -0.1768 -0.4139
58446SOL    HW282579  11.228  12.647   2.564 -0.4548 -0.4004 -0.0043
58447SOL     OW82580   6.257   0.768  10.318 -0.6136  0.4605 -0.3657
58447SOL    HW182581   6.235   0.854  10.282  1.3151  0.6196 -1.3394
58447SOL    HW282582   6.193   0.709  10.279 -0.2993  1.0698 -1.8970
58448SOL     OW82583   7.209   1.947   2.632  0.1099 -0.4732  0.6073
58448SOL    HW182584   7.124   1.949   2.588  0.9809  1.0301 -1.1684
58448SOL    HW282585   7.191   1.975   2.721 -1.3384 -0.8482  0.4605
58449SOL     OW82586   5.892   7.181   2.912  0.5547  0.3949 -0.1132
58449SOL    HW182587   5.882   7.214   3.001  2.9446  2.0982 -0.3683
58449SOL    HW282588   5.911   7.260   2.860  1.4715 -0.8145 -1.6951
58450SOL     OW82589   2.473   9.071   3.305  0.1130  0.0059  0.3969
58450SOL    HW182590   2.487   9.015   3.229 -0.7523 -1.0498  0.9929
58450SOL    HW282591   2.442   9.012   3.373 -2.6158  1.4556  0.5482
58451SOL     OW82592   0.382   6.809   0.712 -0.0659  0.2277 -0.4207
58451SOL    HW182593   0.388   6.733   0.769 -1.8135  0.8732  0.7011
58451SOL    HW282594   0.327   6.781   0.639 -0.0380  0.1948 -0.4292
58452SOL     OW82595  11.871  10.308   9.904  0.0289 -0.0926 -0.7746
58452SOL    HW182596  11.815  10.382   9.883 -1.2932 -1.0612 -0.7792
58452SOL    HW282597  11.866  10.251   9.827  0.4675 -0.5218 -0.4949
58453SOL     OW82598  10.255   1.493   5.564  0.1072 -0.0999 -0.1593
58453SOL    HW182599  10.348   1.501   5.584 -0.2711  0.4498  1.5169
58453SOL    HW282600  10.240   1.555   5.493  0.8623  0.3913  0.1064
58454SOL     OW82601  10.208   1.853   9.470 -0.3226 -0.1621 -0.1657
58454SOL    HW182602  10.173   1.942   9.474 -2.4741 -0.9317 -0.4871
58454SOL    HW282603  10.192   1.826   9.379  0.9235 -0.6556 -0.2496
58455SOL     OW82604   0.120  12.578   0.391 -0.1787  0.2296 -0.1954
58455SOL    HW182605   0.092  12.486   0.385 -2.8861  0.8999  1.0020
58455SOL    HW282606   0.040  12.628   0.386  1.3315  2.6693 -1.8994
58456SOL     OW82607  12.210   5.034   0.195  0.6911  0.1864 -0.5321
58456SOL    HW182608  12.193   5.128   0.197  1.6419  0.3550  0.1551
58456SOL    HW282609  12.232   5.012   0.285  1.0492 -0.5849 -0.8045
58457SOL     OW82610   0.291   0.691   6.515  0.2689 -0.8741 -0.0598
58457SOL    HW182611   0.206   0.693   6.471  0.0622 -2.7707  0.1876
58457SOL    HW282612   0.274   0.649   6.599  0.9422  1.3533  1.2864
58458SOL     OW82613   4.882   5.592   6.140  0.0371 -0.0635  0.8152
58458SOL    HW182614   4.830   5.666   6.172  0.1013  0.0053  0.7588
58458SOL    HW282615   4.838   5.515   6.177 -1.0255 -0.1100 -0.4918
58459SOL     OW82616  12.199   2.182   5.064 -0.2800  0.4976  0.2283
58459SOL    HW182617  12.126   2.185   5.003  0.5751 -1.7818 -1.0197
58459SOL    HW282618  12.160   2.156   5.148 -1.0763  0.8386 -0.0267
58460SOL     OW82619   8.652   5.557   0.262  0.6725 -0.0807 -0.1790
58460SOL    HW182620   8.741   5.571   0.230  0.5579  0.2613 -0.3507
58460SOL    HW282621   8.650   5.464   0.285  0.8434 -0.2784 -0.9211
58461SOL     OW82622  11.545   5.023   4.042  0.1227 -0.1944  0.5136
58461SOL    HW182623  11.570   4.954   3.980 -0.0085  1.0260 -0.9578
58461SOL    HW282624  11.459   4.996   4.074 -0.1288 -0.5040 -0.3811
58462SOL     OW82625   8.817   0.917   5.194  0.5634 -0.5590 -0.1665
58462SOL    HW182626   8.833   0.847   5.258  0.4086  0.2914  0.8461
58462SOL    HW282627   8.903   0.934   5.156  0.7709 -0.7296  0.2145
58463SOL     OW82628   7.448   0.072  11.485 -0.5177 -0.6181 -0.4305
58463SOL    HW182629   7.524   0.023  11.517 -1.2763 -1.2413  0.4725
58463SOL    HW282630   7.403   0.012  11.426 -1.0262 -0.7309  0.0693
58464SOL     OW82631   8.263   7.263   4.401  0.0160  0.0158 -0.4305
58464SOL    HW182632   8.324   7.281   4.329  0.1692  0.7995 -0.1170
58464SOL    HW282633   8.235   7.350   4.431  1.9668 -0.1135  2.1472
58465SOL     OW82634   6.781  10.346   4.166 -0.2323 -0.4143 -0.2101
58465SOL    HW182635   6.766  10.357   4.073  0.6170  1.0026 -0.2024
58465SOL    HW282636   6.806  10.254   4.175  0.4140 -0.3840 -1.4864
58466SOL     OW82637   9.928  11.256   1.980  0.0820  0.0465 -0.0198
58466SOL    HW182638   9.946  11.344   2.012 -2.0716  1.4955 -2.4816
58466SOL    HW282639   9.845  11.263   1.933 -0.5902 -3.4940  0.3341
58467SOL     OW82640  11.283  12.602   6.636  0.0438  0.3975  0.5282
58467SOL    HW182641  11.256  12.684   6.678  1.2640  1.5381 -0.8262
58467SOL    HW282642  11.272  12.536   6.705 -0.2416  1.8123  1.9066
58468SOL     OW82643   6.751   2.743  10.117 -0.1067 -0.0228  0.6732
58468SOL    HW182644   6.827   2.687  10.123 -0.9764 -1.5926 -1.6295
58468SOL    HW282645   6.786   2.831  10.102  1.2465  0.0014  3.4462
58469SOL     OW82646   1.756  11.893   7.056 -0.3692 -0.5533  0.0687
58469SOL    HW182647   1.767  11.965   7.118 -0.3723  0.1932 -0.7815
58469SOL    HW282648   1.814  11.915   6.983 -0.7746 -1.1393 -0.4409
58470SOL     OW82649  11.281   9.179   8.096 -0.1126  0.3383 -0.1139
58470SOL    HW182650  11.320   9.188   8.009 -0.0089  1.2268  0.0088
58470SOL    HW282651  11.336   9.234   8.152  0.5213 -1.1185  0.7596
58471SOL     OW82652   9.462  12.040   4.291  0.1753 -0.1439  0.3945
58471SOL    HW182653   9.556  12.029   4.306 -0.0291 -1.3218  0.8711
58471SOL    HW282654   9.433  11.955   4.258 -0.5060  0.5854 -0.9720
58472SOL     OW82655   0.382  11.778   9.992 -0.1352  0.1061  0.1866
58472SOL    HW182656   0.427  11.700  10.024  0.0416 -0.3483 -1.1025
58472SOL    HW282657   0.411  11.787   9.901 -1.7708  0.4561 -0.3374
58473SOL     OW82658   1.655  10.328   5.028 -0.2927  0.2440 -0.4145
58473SOL    HW182659   1.651  10.294   5.117 -0.1297 -0.8155 -0.8014
58473SOL    HW282660   1.577  10.383   5.020 -0.8255 -0.4248  0.0784
58474SOL     OW82661  11.963   1.830  11.379  0.1017 -0.1558 -0.1394
58474SOL    HW182662  12.053   1.853  11.356 -0.6192  1.2845 -1.8071
58474SOL    HW282663  11.956   1.736  11.362  0.9522 -0.0354 -1.2769
58475SOL     OW82664   3.349   5.614   0.144  0.2828 -0.1045 -0.2810
58475SOL    HW182665   3.382   5.704   0.153 -0.2714  0.0008  0.7684
58475SOL    HW282666   3.272   5.623   0.088  0.0711  0.1124  0.0428
58476SOL     OW82667   4.419   4.198   6.270 -0.5058  0.0434 -0.1811
58476SOL    HW182668   4.439   4.268   6.332  0.5361 -0.0631 -0.3835
58476SOL    HW282669   4.427   4.240   6.184 -1.0414 -0.0389 -0.2747
58477SOL     OW82670   0.362  12.222   1.084  0.0421 -0.0917  0.4979
58477SOL    HW182671   0.327  12.262   1.164  1.2167 -0.2718  1.1210
58477SOL    HW282672   0.422  12.288   1.048 -1.0415  0.2933 -0.6667
58478SOL     OW82673   7.739   8.113   2.603 -0.1729  0.0947  0.4460
58478SOL    HW182674   7.690   8.176   2.550  0.6077 -0.5558 -1.1267
58478SOL    HW282675   7.672   8.052   2.634 -0.6489  0.4782  0.2045
58479SOL     OW82676   9.296  11.905   1.853  0.2439 -0.1591  0.3504
58479SOL    HW182677   9.241  11.866   1.921 -0.8878 -1.5656 -1.2725
58479SOL    HW282678   9.330  11.831   1.804  0.0868  0.8144 -1.3080
58480SOL     OW82679  12.320  10.583   0.597 -0.6070 -0.1479  0.4002
58480SOL    HW182680  12.394  10.644   0.595 -0.1342 -0.6579  1.5631
58480SOL    HW282681  12.243  10.639   0.608 -0.3380  0.3387 -0.1134
58481SOL     OW82682   4.840   9.873   0.955  0.7718 -0.0578 -0.6854
58481SOL    HW182683   4.890   9.821   1.018  0.2221  1.3217  0.9644
58481SOL    HW282684   4.903   9.937   0.922  1.4925 -1.7360 -2.8397
58482SOL     OW82685   1.519  11.783   3.363  0.0426 -0.5788  0.1672
58482SOL    HW182686   1.580  11.806   3.433  1.3564 -0.4659 -0.9662
58482SOL    HW282687   1.478  11.701   3.393  2.0320 -1.6106  0.2312
58483SOL     OW82688  12.632   6.579   5.067 -0.0331  0.4817 -0.5416
58483SOL    HW182689  12.562   6.573   5.002  1.2843 -0.2807 -1.9513
58483SOL    HW282690  12.698   6.635   5.026  0.9422 -0.2237  0.0137
58484SOL     OW82691   4.924   7.061   3.613 -0.2755 -0.4852  0.4041
58484SOL    HW182692   4.964   7.037   3.697  0.3026 -0.5116  0.1210
58484SOL    HW282693   4.861   7.129   3.636  1.1310  0.7998  0.6405
58485SOL     OW82694  11.485   2.833   7.754 -0.0800 -0.1386 -0.2587
58485SOL    HW182695  11.560   2.858   7.700 -1.0957  1.1882 -1.1038
58485SOL    HW282696  11.432   2.777   7.698 -0.1938 -0.3156  0.0229
58486SOL     OW82697   5.744   6.460   2.371  0.0571 -0.0982  0.3297
58486SOL    HW182698   5.723   6.368   2.384 -0.9482 -0.6172 -3.6094
58486SOL    HW282699   5.659   6.505   2.373  0.1972  0.2404 -0.6835
58487SOL     OW82700   9.713   6.932   9.097  0.4670 -0.2265 -0.3276
58487SOL    HW182701   9.714   6.993   9.023 -2.4520  0.3713  0.0012
58487SOL    HW282702   9.715   6.988   9.175  2.4902 -0.8149  0.1049
58488SOL     OW82703   5.823   8.691   2.143 -0.1712  0.1454  0.4557
58488SOL    HW182704   5.781   8.635   2.210 -1.7871  3.0534  2.0574
58488SOL    HW282705   5.830   8.634   2.066 -2.4806 -2.0420  1.6854
58489SOL     OW82706  10.865   6.719  12.315 -0.2125 -0.3564 -0.2272
58489SOL    HW182707  10.871   6.733  12.409 -3.6237 -0.3090  0.1015
58489SOL    HW282708  10.913   6.637  12.300  1.4720  0.2849  1.2820
58490SOL     OW82709  10.807   6.584  10.847  0.4778 -0.0617  0.2822
58490SOL    HW182710  10.757   6.647  10.794  0.6907  1.2538  1.5956
58490SOL    HW282711  10.894   6.583  10.807 -0.2222 -1.5187 -1.3268
58491SOL     OW82712   3.580  12.368   5.793 -0.1643 -0.0355  0.5359
58491SOL    HW182713   3.522  12.348   5.720  0.9316  0.9756 -0.6563
58491SOL    HW282714   3.558  12.458   5.816  0.4931  0.1435  0.4806
58492SOL     OW82715  10.780   6.233   5.555  0.4305  0.5623  0.8848
58492SOL    HW182716  10.732   6.169   5.502  0.4524  1.3475 -0.1125
58492SOL    HW282717  10.829   6.180   5.618 -0.6420 -0.3253  1.0060
58493SOL     OW82718  11.316  10.784  10.160  0.4078  0.3285  0.1822
58493SOL    HW182719  11.316  10.769  10.065  0.6329 -2.3825  0.5534
58493SOL    HW282720  11.233  10.828  10.177 -0.5983 -1.0126 -1.0512
58494SOL     OW82721   4.274  12.079   8.404  0.2997 -0.0970 -0.1188
58494SOL    HW182722   4.225  12.004   8.370  0.9869  0.2888 -2.1154
58494SOL    HW282723   4.289  12.059   8.496 -2.3670 -0.8819  0.2279
58495SOL     OW82724   6.079   6.763  10.943  0.2906 -0.6220 -0.0665
58495SOL    HW182725   6.095   6.696  11.010 -2.0588 -1.6588 -0.4125
58495SOL    HW282726   6.132   6.736  10.869 -1.2210 -2.6756 -0.4918
58496SOL     OW82727  10.692  11.388   5.813  0.1824  0.2371  0.0080
58496SOL    HW182728  10.727  11.475   5.795 -0.7114  0.2497 -1.8941
58496SOL    HW282729  10.744  11.357   5.887  0.7380  2.2427  0.5447
58497SOL     OW82730   4.761   4.365   3.242  0.5135  0.4255 -0.1104
58497SOL    HW182731   4.681   4.320   3.216 -0.7870  1.9823  0.9352
58497SOL    HW282732   4.830   4.324   3.190 -1.4200  1.3356 -3.7703
58498SOL     OW82733   4.240   8.757   0.744 -0.1413 -0.4138 -0.7051
58498SOL    HW182734   4.321   8.773   0.792 -1.7033  2.2512  1.2849
58498SOL    HW282735   4.260   8.783   0.654  0.9357  1.2102 -0.0390
58499SOL     OW82736  12.237   2.808   6.247  0.2861  0.3920 -0.1926
58499SOL    HW182737  12.196   2.844   6.326  0.4366  1.4176 -0.5731
58499SOL    HW282738  12.281   2.728   6.278 -0.9865 -0.1018  0.4516
58500SOL     OW82739   5.046   8.667  12.367 -0.1172  0.7644 -0.3329
58500SOL    HW182740   5.039   8.640  12.276 -1.4218  0.2453 -0.1048
58500SOL    HW282741   5.139   8.682  12.381  0.3772 -1.2633 -1.1557
58501SOL     OW82742   0.866   7.055   5.414  0.5862 -0.4879 -0.1300
58501SOL    HW182743   0.914   7.136   5.396 -0.7584 -0.0022 -1.9364
58501SOL    HW282744   0.850   7.017   5.327 -2.1921 -0.6055  0.3439
58502SOL     OW82745   8.813  10.618   6.352  0.0102 -0.3361  0.1198
58502SOL    HW182746   8.907  10.630   6.338 -0.2760  1.6717 -0.3634
58502SOL    HW282747   8.773  10.645   6.269 -1.1284  1.8031  1.2782
58503SOL     OW82748  11.757  12.483   8.895 -0.3856 -0.6215  0.1529
58503SOL    HW182749  11.750  12.469   8.990 -1.5748 -0.2440  0.1360
58503SOL    HW282750  11.842  12.524   8.883  0.1978 -1.5506  0.9516
58504SOL     OW82751  10.905   2.275  11.155  0.1827  0.1853 -0.5189
58504SOL    HW182752  10.975   2.213  11.178  0.7598  0.0231 -2.5697
58504SOL    HW282753  10.947   2.337  11.096 -1.2645  0.4257 -1.3371
58505SOL     OW82754  12.325   8.123  10.371 -0.0015 -0.5052  0.6631
58505SOL    HW182755  12.400   8.138  10.314 -0.7498  0.6742 -0.0455
58505SOL    HW282756  12.321   8.201  10.426 -0.3973 -0.8051  1.0671
58506SOL     OW82757  12.330   7.913   4.618 -0.0256 -0.1245  0.0179
58506SOL    HW182758  12.404   7.899   4.559  0.3163 -0.4713  0.5223
58506SOL    HW282759  12.282   7.830   4.615  1.5049 -1.2165  2.3113
58507SOL     OW82760   5.106   3.594  10.818  0.1103 -0.5164  0.4317
58507SOL    HW182761   5.026   3.550  10.789  0.0531  0.7134 -1.4247
58507SOL    HW282762   5.175   3.529  10.803 -0.3754 -1.1867  1.0043
58508SOL     OW82763   9.960   2.424   7.904 -0.0174  0.4045  0.3649
58508SOL    HW182764   9.977   2.359   7.972  0.0229  0.2821  0.2381
58508SOL    HW282765   9.969   2.376   7.821  1.8043  0.9396  0.1901
58509SOL     OW82766   6.485   5.970  11.154 -0.4638 -0.0816 -0.0338
58509SOL    HW182767   6.580   5.972  11.155 -0.4746  0.9209  1.0302
58509SOL    HW282768   6.459   5.997  11.242 -1.7303 -0.7692 -0.1646
58510SOL     OW82769   1.060   4.945   3.112 -0.1139 -0.6201  0.9654
58510SOL    HW182770   1.002   4.987   3.048  0.5770 -1.7428 -0.4632
58510SOL    HW282771   1.101   5.017   3.159 -0.5831  0.2420  0.0845
58511SOL     OW82772   6.204   2.548   0.607 -0.5894  0.5708  0.5218
58511SOL    HW182773   6.209   2.539   0.512  0.4321 -0.3536  0.6541
58511SOL    HW282774   6.162   2.467   0.636 -0.7775  0.7956  0.8806
58512SOL     OW82775   4.496  10.522   8.244  0.0145  0.3574  0.1207
58512SOL    HW182776   4.569  10.574   8.210  1.3993 -2.6361 -2.0388
58512SOL    HW282777   4.507  10.523   8.339  3.1994 -0.2488 -0.1211
58513SOL     OW82778   2.832   2.205   5.604  0.1133  0.6133  0.4233
58513SOL    HW182779   2.896   2.141   5.636 -0.1640  1.5519  3.0247
58513SOL    HW282780   2.760   2.201   5.667 -0.7546  2.1665 -0.4172
58514SOL     OW82781  11.926   6.015  10.539 -0.0802 -0.2386  0.0615
58514SOL    HW182782  11.965   5.930  10.562 -2.7279 -1.3970  0.6298
58514SOL    HW282783  11.889   6.047  10.621  0.0157  1.0057 -0.3638
58515SOL     OW82784   5.361  10.160   4.475 -0.0142 -0.1709 -0.1921
58515SOL    HW182785   5.440  10.150   4.422 -1.4710 -3.6094 -2.0179
58515SOL    HW282786   5.292  10.181   4.412 -1.0308  0.2129  1.0104
58516SOL     OW82787  10.299   4.238   9.149 -0.1301 -0.4916  0.3174
58516SOL    HW182788  10.368   4.300   9.126  1.8915 -1.4580  3.1242
58516SOL    HW282789  10.337   4.152   9.130 -1.1326 -1.0081  0.5859
58517SOL     OW82790   4.134   5.044   3.230 -0.0294 -0.3650 -0.0234
58517SOL    HW182791   4.179   5.104   3.170 -1.0188  1.6609  1.1357
58517SOL    HW282792   4.180   5.054   3.313  0.6206 -2.2881 -0.1153
58518SOL     OW82793  10.666   0.511   4.141 -0.4325 -0.4809 -0.4814
58518SOL    HW182794  10.662   0.438   4.079 -1.7133 -2.2769  1.5774
58518SOL    HW282795  10.752   0.550   4.127  0.1948 -2.2230 -1.8213
58519SOL     OW82796  12.304   3.671   1.871 -0.6177  0.2699 -1.0015
58519SOL    HW182797  12.302   3.740   1.805  0.0125  0.9954 -0.2686
58519SOL    HW282798  12.229   3.689   1.928  1.0146  1.9079  0.7249
58520SOL     OW82799   9.238   6.660   7.891  0.4272 -0.1010 -0.3969
58520SOL    HW182800   9.285   6.733   7.852  0.8167  0.0864  0.3974
58520SOL    HW282801   9.245   6.590   7.826  3.1341 -0.5753  0.3018
58521SOL     OW82802  10.959   8.868   3.146  0.2248  0.6468 -0.4442
58521SOL    HW182803  10.976   8.938   3.083 -1.7249  1.6598  0.0653
58521SOL    HW282804  10.995   8.901   3.229  1.6969 -0.1616 -0.7214
58522SOL     OW82805   4.969  11.595   9.285 -0.3312  0.0617 -0.0436
58522SOL    HW182806   5.060  11.569   9.296 -0.3870  0.2253  0.8466
58522SOL    HW282807   4.953  11.660   9.354 -1.5049 -0.9730  0.7092
58523SOL     OW82808   0.505   8.887   4.469  0.1368 -0.5653 -0.8213
58523SOL    HW182809   0.504   8.972   4.425 -1.6554  0.4021  0.9317
58523SOL    HW282810   0.415   8.854   4.459 -0.6166  0.0617  2.5983
58524SOL     OW82811   7.885   2.215   1.590 -0.8112  0.2215  0.4600
58524SOL    HW182812   7.881   2.204   1.495 -0.0616 -0.9897  0.5481
58524SOL    HW282813   7.878   2.309   1.603  0.3465  0.5298 -0.8758
58525SOL     OW82814   9.444   7.686  12.675 -0.1508  0.2713  0.1554
58525SOL    HW182815   9.423   7.593  12.687  1.2405 -0.0941 -0.0739
58525SOL    HW282816   9.509   7.687  12.604  0.2039  1.3743  0.4748
58526SOL     OW82817   6.312   5.599   2.530 -0.3862 -0.4151  0.0700
58526SOL    HW182818   6.301   5.513   2.490  0.0315  0.2680 -1.5749
58526SOL    HW282819   6.381   5.587   2.595 -0.7807 -1.4566  0.3081
58527SOL     OW82820   1.938   3.147  11.264 -0.2412  0.2910  0.4203
58527SOL    HW182821   1.957   3.099  11.184 -0.3363  1.7388 -0.4974
58527SOL    HW282822   1.860   3.104  11.300  0.9011 -1.5796  0.7974
58528SOL     OW82823   2.299  12.129   2.360 -0.2832 -0.9434  0.6033
58528SOL    HW182824   2.287  12.120   2.455 -0.3377  0.2629  0.7230
58528SOL    HW282825   2.392  12.151   2.350 -0.4938 -0.0984  0.4596
58529SOL     OW82826   6.495  12.258   9.670  0.2554  0.0989 -0.5341
58529SOL    HW182827   6.543  12.232   9.591  1.3677  0.5886 -0.0292
58529SOL    HW282828   6.523  12.348   9.687  0.5359 -0.2206  0.7948
58530SOL     OW82829   4.156  11.790   4.374  0.2239  0.3471  0.3723
58530SOL    HW182830   4.116  11.707   4.399 -0.7498  0.4815 -0.6702
58530SOL    HW282831   4.083  11.852   4.372  0.7794  1.0027  0.1688
58531SOL     OW82832  11.146   4.839  12.144  0.3313 -0.1281 -0.5700
58531SOL    HW182833  11.189   4.807  12.224  0.5542  0.0257 -0.6255
58531SOL    HW282834  11.163   4.771  12.079 -1.8552 -1.4017  0.1056
58532SOL     OW82835  10.879   5.107   5.703 -0.1808 -0.1926  1.1029
58532SOL    HW182836  10.971   5.104   5.679 -0.2733  1.1289  0.5006
58532SOL    HW282837  10.833   5.068   5.629 -0.3036  2.0080 -0.0775
58533SOL     OW82838   5.459   2.379   8.276  0.3057 -0.7400  0.0035
58533SOL    HW182839   5.497   2.329   8.204  0.6536  0.5346 -0.7191
58533SOL    HW282840   5.534   2.412   8.325  0.0866 -0.7593  0.3511
58534SOL     OW82841   0.921   7.739  10.254  0.5075 -0.0587 -0.0968
58534SOL    HW182842   0.907   7.795  10.178  0.4132 -0.1689 -0.1610
58534SOL    HW282843   0.923   7.800  10.328 -3.2671 -0.1705  0.3048
58535SOL     OW82844  12.286   9.134   2.260  0.5187 -0.4731  0.0511
58535SOL    HW182845  12.370   9.170   2.231 -0.2324  0.7857 -0.6433
58535SOL    HW282846  12.309   9.065   2.322  2.0488  0.2719  0.3405
58536SOL     OW82847  10.059  11.626   7.599  0.0518 -0.0112  0.1910
58536SOL    HW182848  10.080  11.538   7.565 -1.0890  0.5204 -2.0852
58536SOL    HW282849   9.997  11.662   7.536 -0.2755  2.0854  1.6099
58537SOL     OW82850   6.775   5.725   5.488  0.3075 -0.2842 -0.4047
58537SOL    HW182851   6.774   5.650   5.548 -1.3027 -0.6609 -0.8574
58537SOL    HW282852   6.866   5.733   5.461  1.0116 -0.3462  1.7771
58538SOL     OW82853   1.712  11.021   9.439 -0.3182  0.7510  0.1279
58538SOL    HW182854   1.622  11.049   9.457 -0.6338 -0.6767  0.9328
58538SOL    HW282855   1.747  10.995   9.524 -0.5996 -2.7083 -0.6390
58539SOL     OW82856   6.134  12.609   7.208  0.1781  0.3434  0.4957
58539SOL    HW182857   6.216  12.560   7.203 -0.3799 -0.6209  0.6110
58539SOL    HW282858   6.160  12.695   7.243  1.2225  0.2844 -0.0769
58540SOL     OW82859   6.510   8.053   0.621 -0.7529  0.6498  0.3076
58540SOL    HW182860   6.585   8.003   0.654  0.6304  2.5043  0.1612
58540SOL    HW282861   6.460   8.076   0.699  0.5461  1.9854  0.7893
58541SOL     OW82862   1.931   5.243   1.814 -0.6693  0.1659  0.0757
58541SOL    HW182863   1.847   5.261   1.771 -1.6880  0.0052  1.8987
58541SOL    HW282864   1.952   5.325   1.860  0.6867  0.5274 -1.1189
58542SOL     OW82865   1.692   4.614   0.171  0.2591  0.1554  0.4539
58542SOL    HW182866   1.727   4.612   0.082 -1.3982  1.5422 -0.2770
58542SOL    HW282867   1.748   4.553   0.220  0.8347 -1.1004 -1.6491
58543SOL     OW82868  12.317   9.618   2.426 -0.0648 -0.4863  0.5641
58543SOL    HW182869  12.273   9.552   2.372 -2.7148  0.4095  1.5230
58543SOL    HW282870  12.346   9.684   2.363 -1.2700 -0.4672  0.0114
58544SOL     OW82871   5.527  10.550   6.832  0.4466  0.0709 -0.3305
58544SOL    HW182872   5.504  10.560   6.740 -0.2469 -0.2093 -0.1938
58544SOL    HW282873   5.457  10.594   6.880 -0.7312 -2.1408  0.1478
58545SOL     OW82874   3.911   5.034   8.160  0.2231 -0.4916 -0.3954
58545SOL    HW182875   3.913   5.120   8.117  0.4536 -0.8651 -1.1308
58545SOL    HW282876   3.971   5.044   8.234  0.9962 -0.3039 -1.0344
58546SOL     OW82877   6.162   4.282   4.685  0.0232  0.0523 -0.4001
58546SOL    HW182878   6.155   4.188   4.700 -0.1547 -0.0352 -1.0214
58546SOL    HW282879   6.206   4.316   4.764 -1.4929 -0.2948  0.6242
58547SOL     OW82880   9.384   3.299   1.965 -0.4038  0.1203 -0.0300
58547SOL    HW182881   9.432   3.318   1.885  0.9643  0.7492  0.8880
58547SOL    HW282882   9.452   3.276   2.029 -1.4773 -0.7383  0.8485
58548SOL     OW82883   1.371  12.380   0.660 -0.4799  0.2199  0.1367
58548SOL    HW182884   1.361  12.403   0.567 -0.1159  1.2989  0.3636
58548SOL    HW282885   1.306  12.433   0.705 -2.0176 -1.7134  0.3284
58549SOL     OW82886   7.033   0.593  10.509 -0.3530  0.1632 -0.0675
58549SOL    HW182887   7.125   0.610  10.530 -0.4855 -0.3828  1.0309
58549SOL    HW282888   7.021   0.500  10.531 -1.1097  0.1776 -0.4085
58550SOL     OW82889   3.756   3.541   8.230  0.1049 -0.6122  0.0474
58550SOL    HW182890   3.822   3.594   8.185 -2.1549  1.3733 -1.1861
58550SOL    HW282891   3.682   3.539   8.170 -1.2277 -2.1820  1.6271
58551SOL     OW82892   4.993  10.354   3.834 -0.3756  0.8048 -0.7788
58551SOL    HW182893   4.913  10.328   3.788 -1.8876  1.2697  1.4367
58551SOL    HW282894   4.999  10.295   3.908 -0.0086  2.3008  0.4323
58552SOL     OW82895   7.005   9.360   3.998  0.2454  0.2672  0.0933
58552SOL    HW182896   7.047   9.444   4.015 -0.9294  0.9176 -0.0745
58552SOL    HW282897   6.979   9.328   4.084 -1.4884  1.2852 -0.0067
58553SOL     OW82898   2.410   6.726   7.577 -0.5556 -0.3383  0.3063
58553SOL    HW182899   2.329   6.680   7.599 -1.1080 -0.0616 -1.0522
58553SOL    HW282900   2.428   6.700   7.486  0.3035  0.4280  0.2501
58554SOL     OW82901   2.211   1.476   2.154 -0.5529 -0.1986  0.8052
58554SOL    HW182902   2.180   1.389   2.178  0.7217 -1.4423 -1.7394
58554SOL    HW282903   2.301   1.462   2.124 -0.6275  1.8225 -0.5517
58555SOL     OW82904   1.252   8.443   0.710 -0.3577  0.1097 -0.1443
58555SOL    HW182905   1.263   8.366   0.766 -2.4975 -1.4236 -1.6564
58555SOL    HW282906   1.290   8.417   0.626 -1.9714  0.2520 -0.9615
58556SOL     OW82907   0.713   2.328   7.276 -0.2591  0.1352 -0.0307
58556SOL    HW182908   0.648   2.352   7.210 -0.5009  0.1054  0.1946
58556SOL    HW282909   0.662   2.291   7.348  0.0445 -0.3078 -0.0403
58557SOL     OW82910   7.175   2.986   8.378 -0.6474  0.1448 -0.2301
58557SOL    HW182911   7.156   3.040   8.454  1.6768  1.8293 -0.7505
58557SOL    HW282912   7.127   3.027   8.306 -0.1903  0.5658 -0.3010
58558SOL     OW82913   6.741   0.040  11.085  0.0488  0.2369 -0.4696
58558SOL    HW182914   6.831   0.074  11.085 -0.0042  0.3814 -0.6840
58558SOL    HW282915   6.686   0.117  11.102  0.0236 -0.0323  0.7017
58559SOL     OW82916   2.347   5.821   3.558 -0.0322 -0.3429 -0.0833
58559SOL    HW182917   2.299   5.745   3.525 -0.2316 -0.3789  0.2875
58559SOL    HW282918   2.376   5.867   3.479  0.8875 -1.3047 -0.3315
58560SOL     OW82919   9.514  12.189   6.276  0.7163  0.1823  0.1636
58560SOL    HW182920   9.424  12.202   6.243  0.3329  0.1238  1.1526
58560SOL    HW282921   9.551  12.123   6.218 -0.1799 -0.4414  0.2773
58561SOL     OW82922   6.483   7.109   1.066  0.5632 -0.6502  0.0304
58561SOL    HW182923   6.415   7.053   1.107 -0.1594  0.0926 -0.1311
58561SOL    HW282924   6.565   7.065   1.087 -0.0473 -2.4436 -1.1135
58562SOL     OW82925  12.687  11.222   3.628  0.4348  0.1995  0.6693
58562SOL    HW182926  12.775  11.238   3.662  0.5185  0.9023  0.1379
58562SOL    HW282927  12.667  11.299   3.575 -0.6926  0.2744  1.1673
58563SOL     OW82928   2.488   4.228   8.982 -0.1429  0.0939  0.0924
58563SOL    HW182929   2.573   4.209   9.023  0.7011  1.8898 -0.7006
58563SOL    HW282930   2.438   4.272   9.051 -0.1006 -0.1791  0.2985
58564SOL     OW82931  12.089   4.241   4.058 -0.3045 -0.2020 -0.1116
58564SOL    HW182932  12.030   4.195   3.999  0.8759 -0.3155 -1.2454
58564SOL    HW282933  12.045   4.324   4.077 -0.7064 -0.1719 -1.1433
58565SOL     OW82934  11.494   4.175   9.156  0.3374 -0.5229 -0.0423
58565SOL    HW182935  11.521   4.254   9.110 -0.9641 -1.1551 -2.0516
58565SOL    HW282936  11.554   4.107   9.124 -0.4809 -0.9352 -0.7687
58566SOL     OW82937   3.769  12.250   1.235 -0.3709  0.0551 -0.6116
58566SOL    HW182938   3.814  12.169   1.210 -1.6355 -0.9763  0.3118
58566SOL    HW282939   3.790  12.311   1.165 -1.8260 -1.9539 -2.9631
58567SOL     OW82940  12.210   8.599   9.438  0.2997 -0.6129  0.3018
58567SOL    HW182941  12.219   8.675   9.380 -0.3076 -1.1204 -0.4955
58567SOL    HW282942  12.145   8.544   9.394  2.7429 -2.9758 -0.6490
58568SOL     OW82943   1.406   2.878   7.689 -0.4237 -0.3623  0.2830
58568SOL    HW182944   1.385   2.954   7.635 -0.7931 -0.8731 -0.3145
58568SOL    HW282945   1.377   2.803   7.637  1.5305 -1.0421  0.0710
58569SOL     OW82946  12.073   7.913   0.560  0.2144  0.4992  0.2178
58569SOL    HW182947  12.094   8.006   0.566  0.4441  0.4865 -0.3514
58569SOL    HW282948  11.984   7.906   0.596 -0.0631  1.0379 -0.3513
58570SOL     OW82949  11.485   4.342  11.541 -0.7779 -0.2049 -0.0249
58570SOL    HW182950  11.564   4.395  11.534 -1.8526  1.4579 -0.1594
58570SOL    HW282951  11.514   4.261  11.584  1.1422 -0.0376 -0.8731
58571SOL     OW82952   5.680  11.022   0.466 -0.2804 -0.3862 -0.2282
58571SOL    HW182953   5.584  11.017   0.456 -0.3449 -1.0088  0.6138
58571SOL    HW282954   5.693  11.039   0.559  0.3514  2.7793 -0.7710
58572SOL     OW82955  12.550  11.985   8.995 -0.4213  0.0312 -0.0365
58572SOL    HW182956  12.641  11.958   9.010 -1.0416 -1.7611  0.7601
58572SOL    HW282957  12.506  11.968   9.079 -1.2159  2.2260  0.0456
58573SOL     OW82958   8.613   2.970   1.705 -0.2428 -0.0070  0.1964
58573SOL    HW182959   8.549   2.987   1.774  1.3478 -0.8848  2.0018
58573SOL    HW282960   8.669   3.048   1.705 -0.6671  0.3029 -0.6286
58574SOL     OW82961   8.417  11.926   5.489  0.3751  0.2873  0.4309
58574SOL    HW182962   8.391  11.852   5.434 -0.6266 -0.5661  1.9693
58574SOL    HW282963   8.467  11.886   5.560 -0.6351  1.0175  1.5739
58575SOL     OW82964   2.628   0.067   5.698  0.3923 -0.1581  0.1747
58575SOL    HW182965   2.705   0.018   5.726  1.0979 -0.4887 -2.1347
58575SOL    HW282966   2.660   0.125   5.629 -1.2742  0.2929 -0.2684
58576SOL     OW82967   6.172   8.403   6.177 -0.3496 -0.3165  0.2917
58576SOL    HW182968   6.168   8.417   6.083  1.8530 -0.1247  0.1839
58576SOL    HW282969   6.183   8.308   6.187  0.9467 -0.1791  0.2670
58577SOL     OW82970   3.652  11.421   7.363  0.8984 -0.0499 -0.1561
58577SOL    HW182971   3.568  11.376   7.371  0.0417  1.3010 -1.1476
58577SOL    HW282972   3.653  11.483   7.436  1.0396 -0.0778 -0.1342
58578SOL     OW82973  11.707  11.164   4.493 -0.4246  0.2113 -0.2105
58578SOL    HW182974  11.627  11.111   4.490 -0.0649 -0.3110 -1.5058
58578SOL    HW282975  11.703  11.217   4.414  0.1752  0.6931  0.0793
58579SOL     OW82976   1.822   4.173  12.201  0.3599  0.0235 -0.5833
58579SOL    HW182977   1.778   4.088  12.206 -1.1640  0.7580 -1.0712
58579SOL    HW282978   1.755   4.233  12.169  2.1532  0.8891 -2.9651
58580SOL     OW82979   4.626   8.751   3.776 -0.4542  0.4118  0.4021
58580SOL    HW182980   4.703   8.700   3.799 -0.5982 -0.2751 -0.5895
58580SOL    HW282981   4.660   8.827   3.729 -0.4489 -1.9973 -4.0363
58581SOL     OW82982   2.094   8.715   5.654 -0.3314 -1.3134  0.1001
58581SOL    HW182983   2.123   8.762   5.576 -1.9014 -0.3442  0.0759
58581SOL    HW282984   2.027   8.771   5.693 -0.1138 -2.1322  1.7432
58582SOL     OW82985  11.104   1.569   0.190  0.3515  0.2154  0.0185
58582SOL    HW182986  11.010   1.562   0.205  0.2388  1.0370 -0.2519
58582SOL    HW282987  11.144   1.535   0.270 -0.1996  1.1519  0.7052
58583SOL     OW82988  10.976  10.125   3.183 -0.0491 -0.2727  0.2118
58583SOL    HW182989  10.926  10.207   3.181 -0.2415 -0.3923 -1.6235
58583SOL    HW282990  11.014  10.119   3.096  0.5014 -1.8277  0.5375
58584SOL     OW82991  10.798  11.695   8.515 -1.3187  0.4079 -0.6207
58584SOL    HW182992  10.813  11.611   8.558  2.6075  0.5620 -1.2906
58584SOL    HW282993  10.810  11.760   8.585 -2.8273  0.4865 -0.4141
58585SOL     OW82994   3.721   2.501   4.447 -0.6341 -0.3686  0.3645
58585SOL    HW182995   3.636   2.527   4.412 -0.9469  0.0678  1.4101
58585SOL    HW282996   3.731   2.410   4.419 -1.4805 -0.4446  0.2829
58586SOL     OW82997   8.143  11.196   1.326  0.0276  0.1060 -0.1577
58586SOL    HW182998   8.161  11.144   1.248 -0.0154  0.1029 -0.1659
58586SOL    HW282999   8.229  11.219   1.361  0.0502  0.3863 -0.3913
58587SOL     OW83000   1.648   9.305  11.415 -0.1113  0.4007 -0.2624
58587SOL    HW183001   1.604   9.388  11.433 -0.9044 -0.3557  1.5372
58587SOL    HW283002   1.740   9.330  11.402 -0.3252  1.5619  0.2619
58588SOL     OW83003   5.002   3.801   5.453  0.1730  0.3139 -0.1922
58588SOL    HW183004   5.063   3.759   5.514 -1.9994 -1.0870  1.1811
58588SOL    HW283005   4.928   3.829   5.508 -1.1031  0.5627 -1.9437
58589SOL     OW83006   9.335   3.996   2.968  0.7972  0.3917  0.1342
58589SOL    HW183007   9.256   3.970   2.921  1.7814 -0.1440 -1.2948
58589SOL    HW283008   9.311   3.990   3.061 -0.2872 -1.5235 -0.2225
58590SOL     OW83009   5.569   5.154   1.227  0.3082  0.6019  0.3030
58590SOL    HW183010   5.552   5.153   1.133 -0.6838 -0.1645  0.4637
58590SOL    HW283011   5.498   5.101   1.264  1.0135  0.4080  1.4274
58591SOL     OW83012   8.127   3.683   5.189  0.2088  0.0844  0.8157
58591SOL    HW183013   8.097   3.653   5.103  0.5471  0.0612  0.7017
58591SOL    HW283014   8.050   3.723   5.229 -0.0338 -0.1928  0.6333
58592SOL     OW83015  12.201  10.244  10.785 -0.1084  0.3111  0.0422
58592SOL    HW183016  12.161  10.257  10.699 -0.5485  0.2219  0.2298
58592SOL    HW283017  12.246  10.326  10.804 -0.7711  0.6607  0.1215
58593SOL     OW83018  12.314   9.289  10.030 -0.3949  0.5197 -0.2124
58593SOL    HW183019  12.272   9.302  10.115  1.7395  1.2595  0.7879
58593SOL    HW283020  12.291   9.199  10.006 -1.0957  0.3168  1.1105
58594SOL     OW83021   2.364  10.253   8.794 -0.1840  0.1946 -0.1023
58594SOL    HW183022   2.342  10.339   8.761 -0.3603 -0.2676 -1.2215
58594SOL    HW283023   2.417  10.213   8.725  2.7586  0.5968  1.6940
58595SOL     OW83024   4.269   4.768   9.462  0.2324 -0.5977 -0.3539
58595SOL    HW183025   4.179   4.737   9.453  0.0083 -0.5132  1.3231
58595SOL    HW283026   4.320   4.689   9.481 -0.3028 -0.2052  3.6789
58596SOL     OW83027  11.148   5.513   2.264 -0.3023 -0.0033  0.3568
58596SOL    HW183028  11.176   5.598   2.298  2.0562 -0.2342 -0.7864
58596SOL    HW283029  11.110   5.532   2.178  0.1934 -0.0785  0.1163
58597SOL     OW83030   3.275   6.553  12.316 -0.1839  0.0293 -0.2701
58597SOL    HW183031   3.198   6.519  12.269 -2.0639  1.2040  1.7412
58597SOL    HW283032   3.297   6.484  12.379  1.1544 -0.7569 -1.5420
58598SOL     OW83033   9.937   7.360  12.498  1.0586  0.5421 -0.1734
58598SOL    HW183034   9.938   7.305  12.419  2.1023 -0.0709  0.2372
58598SOL    HW283035   9.854   7.339  12.541  1.2887 -0.4718 -0.2030
58599SOL     OW83036   2.937  10.136   4.976  0.2804  0.2789  0.0577
58599SOL    HW183037   2.870  10.197   5.008  0.9343  1.5210 -0.8334
58599SOL    HW283038   2.964  10.087   5.054  1.1335  2.5204  1.2713
58600SOL     OW83039   9.892   5.060   6.782 -0.3169 -0.1659  0.0526
58600SOL    HW183040   9.930   4.990   6.730 -1.6165 -1.1069  0.3251
58600SOL    HW283041   9.952   5.134   6.771  1.3593 -1.4562  0.1588
58601SOL     OW83042   6.677   7.777  10.686 -0.3517  0.2353  0.5246
58601SOL    HW183043   6.657   7.871  10.691 -0.4533  0.1793  1.1656
58601SOL    HW283044   6.647   7.752  10.598  0.9383  1.0912 -0.1915
58602SOL     OW83045   8.044   8.857   3.417 -0.4923 -0.0557  0.0120
58602SOL    HW183046   8.015   8.947   3.405 -0.9050 -0.1129  0.5390
58602SOL    HW283047   8.079   8.831   3.332  0.4032  0.8746  0.0729
58603SOL     OW83048   6.262   4.526   2.857  0.2776 -0.2472 -0.3482
58603SOL    HW183049   6.309   4.589   2.803 -0.7192 -0.4013 -1.4367
58603SOL    HW283050   6.184   4.503   2.806 -1.5479  0.7508  1.7797
58604SOL     OW83051   8.430   7.558   9.433  0.0383  0.3414  0.1737
58604SOL    HW183052   8.403   7.580   9.344 -0.3786 -1.4637 -0.2021
58604SOL    HW283053   8.358   7.590   9.488 -0.0343  0.8469 -0.2027
58605SOL     OW83054   3.183   6.605   7.572  0.1119  0.6872 -0.3245
58605SOL    HW183055   3.192   6.514   7.543 -0.3945  0.8451 -1.0140
58605SOL    HW283056   3.124   6.645   7.508 -1.1777  1.0324  1.0125
58606SOL     OW83057   8.934   2.754   3.525 -0.6397  0.1129 -0.2129
58606SOL    HW183058   8.977   2.758   3.610  1.6328 -2.6135 -1.0857
58606SOL    HW283059   8.978   2.821   3.473 -2.0582  1.8117  0.6242
58607SOL     OW83060   5.249   1.736   6.338 -0.0886  0.0301 -0.4283
58607SOL    HW183061   5.318   1.724   6.404 -0.1836 -0.0588 -0.3443
58607SOL    HW283062   5.168   1.734   6.388 -0.0833  1.8563 -0.2918
58608SOL     OW83063   0.506  10.549   0.279  0.0157 -0.3116  0.1971
58608SOL    HW183064   0.444  10.585   0.216  1.3848  0.9768 -0.4762
58608SOL    HW283065   0.466  10.568   0.364  0.9315  3.6431 -0.0571
58609SOL     OW83066   0.418   7.250   5.832 -0.2536 -0.1024  0.0622
58609SOL    HW183067   0.407   7.298   5.915  2.1415  0.1293  0.3155
58609SOL    HW283068   0.330   7.219   5.811 -1.3335  1.7278  1.5321
58610SOL     OW83069  11.525   0.935   3.372  0.4788  0.3563  0.4709
58610SOL    HW183070  11.556   1.022   3.347 -2.6754  0.9643 -1.9923
58610SOL    HW283071  11.546   0.879   3.297  0.2702 -0.4218  0.9781
58611SOL     OW83072  11.515  11.328   1.922 -0.0559  0.4857  0.2055
58611SOL    HW183073  11.603  11.294   1.938  0.8285  2.9848  1.1247
58611SOL    HW283074  11.457  11.264   1.964  1.3007 -1.0084 -0.0700
58612SOL     OW83075   9.603   2.351   1.015 -0.1358 -0.1436  0.3973
58612SOL    HW183076   9.673   2.397   1.060  0.4940 -1.9390  1.3783
58612SOL    HW283077   9.552   2.310   1.086 -1.3738  0.0111 -0.3657
58613SOL     OW83078   5.634  11.609   0.608 -1.0047 -0.1852  0.2042
58613SOL    HW183079   5.676  11.538   0.657 -0.0614  0.2506  0.0513
58613SOL    HW283080   5.675  11.605   0.522  0.7187  1.9112  0.8372
58614SOL     OW83081  10.339   3.361   4.213 -0.0157  0.1049  0.7552
58614SOL    HW183082  10.362   3.277   4.252  3.6221  0.5537 -0.1099
58614SOL    HW283083  10.371   3.426   4.275 -0.2795  0.8308  0.1418
58615SOL     OW83084   7.048   7.012   3.835  0.2263  0.2596 -0.0997
58615SOL    HW183085   7.006   7.019   3.749 -0.3471  0.3575  0.1873
58615SOL    HW283086   7.057   7.103   3.864  1.1833  0.2792 -0.4153
58616SOL     OW83087   3.173   9.163   5.254  0.0185 -0.9293  0.2080
58616SOL    HW183088   3.104   9.206   5.303 -0.2175 -1.0909  0.0168
58616SOL    HW283089   3.252   9.174   5.308 -0.1639 -0.7846  0.4432
58617SOL     OW83090   4.841  10.153   0.274  0.6224 -0.6987 -0.2474
58617SOL    HW183091   4.782  10.202   0.331 -0.3958 -0.9947 -1.0158
58617SOL    HW283092   4.915  10.130   0.330 -0.0875 -0.5017  0.7983
58618SOL     OW83093   7.627   4.460  11.592 -0.0878 -0.0052  0.2844
58618SOL    HW183094   7.640   4.459  11.687  0.1715 -1.2461  0.2527
58618SOL    HW283095   7.535   4.484  11.580 -0.5849 -1.4978  0.9305
58619SOL     OW83096   5.437   4.795   9.722 -0.0105 -0.0514 -0.6033
58619SOL    HW183097   5.486   4.875   9.743  1.8967 -1.1895 -0.5472
58619SOL    HW283098   5.462   4.775   9.632 -0.7539 -0.4124 -0.7356
58620SOL     OW83099  12.209   1.602   2.500  0.7034  0.1798 -0.1269
58620SOL    HW183100  12.189   1.664   2.430  1.0404 -3.2179 -3.5804
58620SOL    HW283101  12.304   1.609   2.512  0.7445  0.3401 -0.5167
58621SOL     OW83102   6.033   7.607   5.101 -0.3500 -0.2500  0.0798
58621SOL    HW183103   6.073   7.521   5.082 -1.0127 -0.0039 -2.9121
58621SOL    HW283104   5.939   7.589   5.106 -0.5165  0.3020 -0.8247
58622SOL     OW83105   2.717   9.865   2.517 -0.5836 -0.5955 -0.1036
58622SOL    HW183106   2.703   9.774   2.489 -0.8188 -1.4597  2.5446
58622SOL    HW283107   2.654   9.878   2.588  1.1124  0.7999  1.2217
58623SOL     OW83108   1.408   9.025  10.352  0.4343  0.2444  0.3457
58623SOL    HW183109   1.440   9.036  10.441  3.3744 -0.0567 -0.5704
58623SOL    HW283110   1.453   8.947  10.320 -1.3988 -0.2927 -1.0935
58624SOL     OW83111  12.032   2.792   5.556 -0.1274 -0.4809  0.3176
58624SOL    HW183112  11.983   2.865   5.593  1.3981  0.4580  0.5753
58624SOL    HW283113  12.064   2.825   5.472 -0.3198 -1.2390 -0.0580
58625SOL     OW83114   7.398   9.555   6.044  0.0947 -0.1454 -0.3781
58625SOL    HW183115   7.303   9.565   6.051  0.2711  2.1034 -0.5112
58625SOL    HW283116   7.426   9.530   6.132 -0.5571 -0.3251 -0.2154
58626SOL     OW83117   2.180   1.560   3.157 -0.2221 -0.4687 -0.3975
58626SOL    HW183118   2.117   1.495   3.124 -0.1872  0.3546 -2.2139
58626SOL    HW283119   2.136   1.598   3.233 -0.8187 -1.6741 -0.1096
58627SOL     OW83120   6.240   8.179   4.826 -0.2502  0.0164 -0.4181
58627SOL    HW183121   6.284   8.094   4.835 -2.1511 -1.0480 -0.7563
58627SOL    HW283122   6.295   8.228   4.765  1.5476 -0.4708  0.7296
58628SOL     OW83123   8.443   8.679   9.008  0.5488  0.1074 -0.1509
58628SOL    HW183124   8.356   8.664   8.971 -0.4736  1.0523  1.6911
58628SOL    HW283125   8.447   8.773   9.022  2.7748  0.3970 -2.1633
58629SOL     OW83126   7.191   0.475   8.503  0.3432 -0.1109 -0.4959
58629SOL    HW183127   7.099   0.461   8.524  0.7932 -1.5099  0.6890
58629SOL    HW283128   7.232   0.389   8.514  1.8104  0.4849 -0.9659
58630SOL     OW83129  11.247   5.716   7.417 -0.0972 -0.2528 -0.4011
58630SOL    HW183130  11.306   5.680   7.483 -1.0474  0.8594  1.1053
58630SOL    HW283131  11.232   5.643   7.356  0.8494 -1.2930  0.5606
58631SOL     OW83132   4.337  11.220   4.878  0.2394 -0.2153  0.0232
58631SOL    HW183133   4.390  11.182   4.808  1.2398  0.0923  0.5921
58631SOL    HW283134   4.397  11.276   4.926 -0.6015  0.1139  0.7210
58632SOL     OW83135  11.126   7.083   4.199  0.8212  0.0708  0.3603
58632SOL    HW183136  11.056   7.039   4.152  0.7885 -0.3560  0.7995
58632SOL    HW283137  11.157   7.150   4.139 -0.0988  0.3981  0.2319
58633SOL     OW83138   1.368   7.600   9.717  0.7221 -0.9864  0.2866
58633SOL    HW183139   1.284   7.571   9.753 -1.0753 -0.1587 -2.9009
58633SOL    HW283140   1.364   7.696   9.721  2.9616 -0.8565  2.8823
58634SOL     OW83141   2.938  10.977   1.613 -0.3970 -0.3035  0.3832
58634SOL    HW183142   2.881  10.995   1.538 -1.3899  0.5134  1.2955
58634SOL    HW283143   2.898  10.901   1.655 -0.6639  0.1064  0.8746
58635SOL     OW83144   9.327   2.279   6.938  0.2083  0.5159 -0.0773
58635SOL    HW183145   9.284   2.194   6.952  0.8708 -0.2399 -2.1197
58635SOL    HW283146   9.417   2.266   6.968  0.3353  0.4304 -0.4764
58636SOL     OW83147   0.503   5.755  10.262 -0.0829  0.1548  0.0554
58636SOL    HW183148   0.490   5.837  10.214  1.3953  0.3202 -0.1147
58636SOL    HW283149   0.415   5.720  10.274 -0.6071  0.8131 -1.5589
58637SOL     OW83150  11.500   4.339   1.217 -0.0489  0.1247 -0.2186
58637SOL    HW183151  11.424   4.315   1.270  0.2585 -0.5638 -0.0787
58637SOL    HW283152  11.541   4.256   1.194  0.4584  0.4711 -0.5968
58638SOL     OW83153   5.625  10.615   0.897  0.1484 -0.4019 -0.2385
58638SOL    HW183154   5.532  10.595   0.907 -0.5908  1.9638 -1.5844
58638SOL    HW283155   5.659  10.615   0.986 -1.1950 -1.0790  0.3032
58639SOL     OW83156   6.947  10.767  11.024  0.1023 -0.1041 -0.3223
58639SOL    HW183157   6.856  10.794  11.034 -0.0237 -0.8804  0.6663
58639SOL    HW283158   6.997  10.847  11.040 -0.3199 -0.1613  1.4633
58640SOL     OW83159   0.502   0.181   0.673  0.3750  0.2900 -0.8739
58640SOL    HW183160   0.468   0.099   0.638 -0.4403  0.2770 -0.0944
58640SOL    HW283161   0.541   0.225   0.598 -0.5500 -0.1268 -1.6199
58641SOL     OW83162   1.132   2.320   2.501 -0.3677 -0.4877  0.2478
58641SOL    HW183163   1.076   2.364   2.437 -1.1519  0.0788  1.2923
58641SOL    HW283164   1.072   2.262   2.548 -0.1526  0.3156  1.5595
58642SOL     OW83165   9.801  10.074   0.412  0.6077 -0.3660 -0.4505
58642SOL    HW183166   9.881  10.121   0.391 -0.3922  1.2845 -0.7162
58642SOL    HW283167   9.830   9.998   0.462  2.3524  0.0108 -0.8416
58643SOL     OW83168   7.741   4.447  12.689 -0.3960 -0.0946 -0.0650
58643SOL    HW183169   7.738   4.471  12.781  2.1684  0.2664 -0.0002
58643SOL    HW283170   7.671   4.498  12.648 -0.2998  1.2470  1.3704
58644SOL     OW83171  10.145  12.468  10.598  0.1703 -0.1066 -0.0084
58644SOL    HW183172  10.237  12.493  10.584  0.0751  0.5570  0.4630
58644SOL    HW283173  10.150  12.394  10.659  0.3496  1.3369  1.8327
58645SOL     OW83174   0.868  10.397   8.741  0.9053 -0.4735  0.5289
58645SOL    HW183175   0.795  10.376   8.800  0.9904 -0.8516  0.4984
58645SOL    HW283176   0.937  10.335   8.765  0.8331 -0.8312 -0.1737
58646SOL     OW83177   5.116   8.011  11.598 -0.6875  0.6682  0.2450
58646SOL    HW183178   5.161   8.069  11.536  0.4074  0.0355  0.4152
58646SOL    HW283179   5.140   7.923  11.570 -2.3782  0.2721 -0.0410
58647SOL     OW83180  10.388   9.475   4.649 -0.0517 -0.0180  0.7552
58647SOL    HW183181  10.344   9.471   4.564  0.0342 -1.9610  0.7746
58647SOL    HW283182  10.474   9.512   4.630 -0.0987 -0.2795  0.0151
58648SOL     OW83183   6.880   2.939   0.446  0.4317  0.1149 -0.2150
58648SOL    HW183184   6.948   2.916   0.510 -0.0144 -0.1995  0.1488
58648SOL    HW283185   6.924   2.999   0.385  0.7245  0.8217  0.6740
58649SOL     OW83186  10.670   0.361   7.916 -0.1074 -0.3859  0.0450
58649SOL    HW183187  10.758   0.354   7.953 -0.6083  1.6634  1.8152
58649SOL    HW283188  10.681   0.414   7.838  0.3182 -0.8641 -0.2307
58650SOL     OW83189  11.652   7.960   1.038 -0.1249  0.3481  0.3415
58650SOL    HW183190  11.674   7.869   1.021  0.3350  0.4918  0.1719
58650SOL    HW283191  11.591   7.957   1.112 -1.9969 -0.2808 -1.1315
58651SOL     OW83192   0.041  11.944   4.683  0.1902 -0.1007  0.0077
58651SOL    HW183193   0.034  11.921   4.775  1.9569  2.2942  0.8435
58651SOL    HW283194   0.101  11.878   4.647  0.5503 -0.2785  0.9025
58652SOL     OW83195   5.387  10.663  11.443 -0.2055  0.0972  0.2250
58652SOL    HW183196   5.360  10.611  11.519 -1.4892  0.1298 -0.1800
58652SOL    HW283197   5.304  10.694  11.406  0.3858 -0.0943 -1.3087
58653SOL     OW83198   9.414  11.732   0.773 -0.1917  0.5863 -0.1613
58653SOL    HW183199   9.399  11.768   0.860  1.4225 -2.2233  1.4198
58653SOL    HW283200   9.496  11.771   0.744  0.3995 -0.1042  0.5594
58654SOL     OW83201  11.695   8.373  10.935 -0.0275  0.1946 -0.2103
58654SOL    HW183202  11.705   8.369  10.840  2.3922  0.0887 -0.0234
58654SOL    HW283203  11.684   8.282  10.962 -1.1729  0.2654 -0.4037
58655SOL     OW83204   4.130   8.891   4.111  0.3300  0.1523  0.0644
58655SOL    HW183205   4.110   8.799   4.127  0.9490 -0.0311 -0.1777
58655SOL    HW283206   4.126   8.932   4.197 -2.0002  0.3361 -0.0819
58656SOL     OW83207   9.944   7.242   4.777  0.3213  0.3694  0.1419
58656SOL    HW183208   9.849   7.246   4.766  0.5706 -1.2960 -4.5830
58656SOL    HW283209   9.961   7.154   4.808  0.3650  0.0381 -0.7918
58657SOL     OW83210   6.507  10.519  10.593  0.3257 -0.5292 -0.4523
58657SOL    HW183211   6.504  10.501  10.499 -0.8058 -1.3698 -0.2713
58657SOL    HW283212   6.416  10.520  10.620  0.6014 -5.4757  1.5542
58658SOL     OW83213   3.555   6.876   1.702 -0.1879 -0.0911 -0.8216
58658SOL    HW183214   3.492   6.872   1.774  1.4764  0.5843  0.7323
58658SOL    HW283215   3.561   6.786   1.670 -3.3827  0.1031 -2.3889
58659SOL     OW83216   3.099   8.307  10.254  0.0309  0.1127  0.4156
58659SOL    HW183217   3.093   8.212  10.258 -0.8185  0.1939  1.5083
58659SOL    HW283218   3.141   8.333  10.336  2.2844  0.5735 -0.8122
58660SOL     OW83219   0.253   2.102   1.817  0.0892 -0.5392 -0.2960
58660SOL    HW183220   0.299   2.018   1.818  0.1996 -0.4779  0.2933
58660SOL    HW283221   0.321   2.166   1.837 -0.0710 -0.3553 -0.3461
58661SOL     OW83222   6.630   0.574   1.414 -0.4713  0.6064 -0.4959
58661SOL    HW183223   6.612   0.494   1.463 -1.4426  0.1851 -1.4737
58661SOL    HW283224   6.609   0.645   1.475 -1.4528  0.1002 -0.2207
58662SOL     OW83225   9.385   1.511   8.843 -0.0060  0.7278  0.0952
58662SOL    HW183226   9.422   1.476   8.761 -0.2959 -1.9306  0.9924
58662SOL    HW283227   9.460   1.550   8.888  0.7233 -0.1799 -0.2867
58663SOL     OW83228   0.706   1.161   6.189 -0.2906  0.7676  0.4509
58663SOL    HW183229   0.765   1.157   6.264  0.3725  1.9741  0.0188
58663SOL    HW283230   0.711   1.074   6.150  0.1979  0.4640  1.1656
58664SOL     OW83231   7.517   2.624   4.122 -0.2927 -0.4506 -0.2547
58664SOL    HW183232   7.438   2.673   4.146 -0.0360 -0.5693  0.8750
58664SOL    HW283233   7.498   2.589   4.035 -0.8391  0.8898 -0.7003
58665SOL     OW83234   4.873   2.901  10.875  0.2818  0.6360  0.6620
58665SOL    HW183235   4.899   2.974  10.931  2.8922  0.5036 -0.2758
58665SOL    HW283236   4.942   2.836  10.885 -1.4681 -1.3552  0.6989
58666SOL     OW83237   2.953   2.713  11.814 -0.4304  0.6710  0.0443
58666SOL    HW183238   2.919   2.727  11.902 -0.9422 -0.5067  0.0534
58666SOL    HW283239   2.990   2.798  11.788 -0.7432  1.1665  1.1788
58667SOL     OW83240   1.588   5.143  12.604  0.0507 -0.0953  0.4521
58667SOL    HW183241   1.671   5.156  12.651  0.2455  2.4552 -0.4399
58667SOL    HW283242   1.520   5.156  12.670  0.2541 -3.2102  1.4268
58668SOL     OW83243   7.736   9.693   5.528 -0.2378  0.2227  0.5912
58668SOL    HW183244   7.712   9.640   5.452  0.9696 -0.6964  0.8032
58668SOL    HW283245   7.666   9.758   5.536 -0.5129  0.1881 -1.1456
58669SOL     OW83246   0.314   7.586   8.686 -0.1598 -0.1377 -0.2602
58669SOL    HW183247   0.347   7.665   8.728  0.4901 -1.0365  1.0074
58669SOL    HW283248   0.291   7.613   8.597  0.7626  1.2855 -0.0911
58670SOL     OW83249   4.243   5.917   6.904  0.7002  0.0686 -0.0066
58670SOL    HW183250   4.153   5.944   6.887  1.5586  2.6478 -0.9323
58670SOL    HW283251   4.238   5.868   6.986 -1.5175  0.2152  0.0119
58671SOL     OW83252   3.700   7.625   9.259 -0.5463 -0.8981  0.0596
58671SOL    HW183253   3.608   7.623   9.286 -0.9233 -1.2443 -1.1721
58671SOL    HW283254   3.742   7.685   9.321 -1.8340  0.1663 -0.0333
58672SOL     OW83255   9.425  11.418   4.107 -0.5986 -0.4569 -0.7489
58672SOL    HW183256   9.337  11.382   4.098 -0.5505 -0.8063  0.1355
58672SOL    HW283257   9.413  11.497   4.159 -0.8091  1.2953 -3.2808
58673SOL     OW83258   6.373  12.444   2.108 -0.0472 -0.3070 -0.9546
58673SOL    HW183259   6.301  12.467   2.167  1.9031  1.0341  1.0659
58673SOL    HW283260   6.393  12.353   2.129 -0.3015 -0.2777 -0.5822
58674SOL     OW83261   7.504  12.450  11.145  0.5741  0.5440 -0.7760
58674SOL    HW183262   7.556  12.530  11.140 -0.5823  1.2973 -1.1137
58674SOL    HW283263   7.468  12.451  11.234  0.4792  0.4367 -0.8135
58675SOL     OW83264   8.372   3.361   2.092  0.5361 -0.3971 -1.2142
58675SOL    HW183265   8.425   3.396   2.164 -1.2788  0.9023 -0.4571
58675SOL    HW283266   8.409   3.401   2.014  1.4537 -0.4842 -0.8379
58676SOL     OW83267  11.572   6.766  12.120  0.2377  0.1326 -0.0187
58676SOL    HW183268  11.653   6.719  12.101  1.3252  1.1515  1.9534
58676SOL    HW283269  11.524   6.708  12.179  0.1315  0.1297 -0.1061
58677SOL     OW83270   5.719   2.076   7.587 -0.4394 -0.5980  0.0513
58677SOL    HW183271   5.759   2.059   7.502  0.4427  0.2927  0.2711
58677SOL    HW283272   5.625   2.070   7.570 -0.3316  0.7194 -1.2750
58678SOL     OW83273  12.403  11.071   0.388  0.3921 -0.3504  0.5786
58678SOL    HW183274  12.327  11.116   0.424  0.3546 -0.0633  0.1451
58678SOL    HW283275  12.403  11.094   0.295  1.7064  0.6709  0.7916
58679SOL     OW83276   0.814   7.952  12.273  0.4777  0.0228  0.0898
58679SOL    HW183277   0.778   8.035  12.241  0.1533  0.6286  1.9006
58679SOL    HW283278   0.869   7.977  12.347 -0.9589 -1.4755  1.7601
58680SOL     OW83279   8.022   1.981   5.724  0.0470 -0.2393 -0.7727
58680SOL    HW183280   8.092   2.035   5.687  1.1364 -0.1165  1.3119
58680SOL    HW283281   8.058   1.893   5.725 -0.2481 -0.3603 -0.6576
58681SOL     OW83282   8.464   0.230  11.247  0.2878 -0.1342 -0.4467
58681SOL    HW183283   8.391   0.229  11.186 -1.0577  0.1466  1.0792
58681SOL    HW283284   8.513   0.150  11.228  0.9028  0.7621 -2.9686
58682SOL     OW83285   9.602   4.728   8.565 -0.5758  0.4217 -0.6343
58682SOL    HW183286   9.515   4.736   8.526 -1.1504  0.8613  0.6894
58682SOL    HW283287   9.645   4.661   8.512 -1.3969  0.8182 -1.8574
58683SOL     OW83288   8.043   6.736   5.506 -0.1176 -0.3701  0.1772
58683SOL    HW183289   8.007   6.809   5.556  0.2709 -0.3965  0.5032
58683SOL    HW283290   8.133   6.762   5.487 -0.1320 -0.5459 -0.1473
58684SOL     OW83291   7.748   7.454   0.313  0.2558 -0.1836  0.0808
58684SOL    HW183292   7.683   7.425   0.249  0.2680 -0.9965  0.4215
58684SOL    HW283293   7.762   7.547   0.293 -0.9275 -0.0193 -0.0607
58685SOL     OW83294  10.535   1.941   2.452 -0.4789 -0.0256  0.1916
58685SOL    HW183295  10.443   1.943   2.426 -0.4248 -1.6601 -0.2488
58685SOL    HW283296  10.544   2.013   2.515 -1.2518  2.2985 -2.1898
58686SOL     OW83297   6.870  11.570   4.190  0.0127  0.0285 -0.3450
58686SOL    HW183298   6.811  11.522   4.132  0.4238 -0.4837 -0.3475
58686SOL    HW283299   6.900  11.644   4.137 -1.0605  0.6143 -0.1533
58687SOL     OW83300   3.577   9.804  11.821  0.2456 -0.7115 -0.3246
58687SOL    HW183301   3.504   9.764  11.773 -0.4431  0.7302 -0.5496
58687SOL    HW283302   3.641   9.826  11.754 -0.2725  0.3801 -0.4822
58688SOL     OW83303  12.210   0.665   6.601 -0.2614 -0.4123 -0.0215
58688SOL    HW183304  12.133   0.699   6.556 -1.2446 -0.1514  1.7831
58688SOL    HW283305  12.199   0.693   6.692  3.2990  2.0604 -0.1358
58689SOL     OW83306  12.051  10.153  11.799  0.1911  0.0885  0.3854
58689SOL    HW183307  11.971  10.203  11.783  0.0322  0.1919  1.4032
58689SOL    HW283308  12.037  10.112  11.885  0.0302 -2.3276 -0.7207
58690SOL     OW83309   9.591   4.682   7.371  0.1971  0.2532  0.1999
58690SOL    HW183310   9.663   4.745   7.378  1.2060 -0.5298 -2.0320
58690SOL    HW283311   9.582   4.645   7.459  2.2975  0.6367  0.6252
58691SOL     OW83312   5.683   0.403  10.252  0.1528 -0.0682  0.0575
58691SOL    HW183313   5.737   0.479  10.229  1.5211 -1.1259 -0.3366
58691SOL    HW283314   5.691   0.396  10.347  0.6620 -0.1914  0.0047
58692SOL     OW83315   8.210   4.342   7.317  0.0779  0.1331 -0.1685
58692SOL    HW183316   8.141   4.280   7.340 -2.0430  1.9763 -1.1711
58692SOL    HW283317   8.229   4.322   7.225  0.4202  0.0607 -0.0830
58693SOL     OW83318   0.389   5.338  11.677 -0.3334 -0.0952 -0.7326
58693SOL    HW183319   0.408   5.303  11.764 -1.2623 -0.1608 -0.5470
58693SOL    HW283320   0.396   5.433  11.687  0.6198 -0.1427 -0.8546
58694SOL     OW83321   5.621  11.852   4.820 -0.5011 -0.3752  0.0268
58694SOL    HW183322   5.641  11.913   4.892  1.8791 -2.0916  0.9378
58694SOL    HW283323   5.547  11.801   4.853 -0.4038 -0.1385  0.6450
58695SOL     OW83324   4.556   6.944  11.979  0.0908 -0.3070  0.5790
58695SOL    HW183325   4.616   6.873  12.000  1.3292  0.9746  1.6178
58695SOL    HW283326   4.572   7.010  12.047 -0.6021  1.2023 -0.6521
58696SOL     OW83327   5.917   9.817   0.031 -0.5687 -0.1782  0.0285
58696SOL    HW183328   5.965   9.799   0.112 -0.9240  2.6465  0.9869
58696SOL    HW283329   5.839   9.863   0.060 -2.6015 -2.3284 -1.7186
58697SOL     OW83330   3.918   8.066   3.486  0.5071 -0.2404 -0.0986
58697SOL    HW183331   3.900   7.980   3.449 -0.5442 -0.3961  0.7417
58697SOL    HW283332   3.883   8.062   3.575  2.3474  0.3594  0.6998
58698SOL     OW83333  11.032   1.661   4.020 -0.0887  0.0927 -0.4306
58698SOL    HW183334  10.978   1.592   3.982 -0.7997 -0.0745  0.8251
58698SOL    HW283335  10.970   1.720   4.063  0.5637  1.1826 -0.9298
58699SOL     OW83336   7.368   4.578   4.093 -0.1424  0.4531  0.1378
58699SOL    HW183337   7.403   4.523   4.024 -0.7101 -1.3271  1.1870
58699SOL    HW283338   7.277   4.595   4.068 -0.3461 -0.1873  0.4263
58700SOL     OW83339  12.107   0.697   5.655  0.3467 -0.2280 -0.1692
58700SOL    HW183340  12.150   0.630   5.602 -2.4207  0.4236 -3.5981
58700SOL    HW283341  12.118   0.778   5.605 -2.4492  0.4207  0.1173
58701SOL     OW83342  12.212   7.245   4.475 -0.1778 -0.3749  0.4101
58701SOL    HW183343  12.254   7.326   4.449  0.0295 -0.4363  0.5539
58701SOL    HW283344  12.177   7.209   4.393  0.5265 -0.5988  0.2051
58702SOL     OW83345  11.020  10.919   1.921  0.1502 -0.0738  0.2707
58702SOL    HW183346  10.955  10.873   1.869  1.0710 -0.5407 -0.5093
58702SOL    HW283347  10.970  10.975   1.980 -0.9565 -0.9552  0.1857
58703SOL     OW83348   1.283   3.240   7.083  0.3663 -0.1392  0.5162
58703SOL    HW183349   1.259   3.306   7.148  0.7239 -0.5164  1.0364
58703SOL    HW283350   1.360   3.196   7.121 -0.1276 -1.1499  0.3710
58704SOL     OW83351   9.557   7.865  11.099  0.5585 -0.2698 -0.1979
58704SOL    HW183352   9.629   7.906  11.050 -1.4566  2.1176 -1.4006
58704SOL    HW283353   9.481   7.921  11.081 -1.8934 -3.2423  0.1463
58705SOL     OW83354   9.464   6.653   5.268 -0.4386 -0.0074  0.6760
58705SOL    HW183355   9.489   6.632   5.358  0.8972 -1.3193  0.0455
58705SOL    HW283356   9.505   6.584   5.215 -3.0882 -0.6425 -0.7524
58706SOL     OW83357   4.996   8.885   5.596  0.2366 -0.5454 -0.0274
58706SOL    HW183358   5.054   8.813   5.572  1.0031 -0.2457  0.8788
58706SOL    HW283359   4.917   8.871   5.543 -0.1481 -2.7516  1.0106
58707SOL     OW83360   7.503  10.449   2.968  0.3063  0.1512  0.7690
58707SOL    HW183361   7.573  10.510   2.944  1.2997 -0.8635  0.9719
58707SOL    HW283362   7.456  10.492   3.038  1.0273  0.6619  0.9531
58708SOL     OW83363   8.684   7.468   9.246 -0.3294  0.1536 -0.1375
58708SOL    HW183364   8.594   7.485   9.217 -0.4958  0.3190  0.4524
58708SOL    HW283365   8.673   7.425   9.331  0.1562  2.8956  1.4118
58709SOL     OW83366  11.798   6.703   4.448  0.0698 -0.2930 -0.2439
58709SOL    HW183367  11.831   6.719   4.359  0.4311  1.1966  0.1326
58709SOL    HW283368  11.850   6.629   4.479 -0.5808 -1.3324 -1.5192
58710SOL     OW83369  10.745   5.872   3.894 -0.0878  0.4306  0.3428
58710SOL    HW183370  10.788   5.941   3.944  0.5524  0.7503 -0.6308
58710SOL    HW283371  10.652   5.896   3.893 -0.4948 -0.6146  3.0497
58711SOL     OW83372   8.985   1.647   6.310  0.0738 -0.3817 -0.4440
58711SOL    HW183373   8.977   1.703   6.387 -0.0438  0.1568 -0.8419
58711SOL    HW283374   8.921   1.682   6.248  0.9077 -0.1352 -1.1923
58712SOL     OW83375  12.265   2.995   4.898 -0.3504  0.1880 -0.1384
58712SOL    HW183376  12.202   3.028   4.834  0.2240  0.0722 -0.7729
58712SOL    HW283377  12.246   3.044   4.978 -2.0547 -0.7092  0.0497
58713SOL     OW83378   3.556  10.398   5.571 -0.7129  0.3304 -0.0198
58713SOL    HW183379   3.568  10.304   5.586  1.0257  0.7260  1.3209
58713SOL    HW283380   3.573  10.410   5.477 -0.4827 -0.6227 -0.1084
58714SOL     OW83381   5.236  11.524   0.408 -0.0756 -0.3485 -0.5172
58714SOL    HW183382   5.320  11.478   0.400 -0.1437 -0.7829  0.9138
58714SOL    HW283383   5.261  11.614   0.428  0.0519 -0.2459 -1.1259
58715SOL     OW83384   3.256   5.343   9.878  0.5214  0.5703  0.1335
58715SOL    HW183385   3.219   5.431   9.879  1.8331  1.1558  1.4239
58715SOL    HW283386   3.348   5.355   9.901  1.0168 -1.0366 -0.8255
58716SOL     OW83387   6.710   3.100  11.506 -0.4285  0.1245 -0.3996
58716SOL    HW183388   6.620   3.092  11.539 -0.3668 -0.3806 -0.3354
58716SOL    HW283389   6.751   3.164  11.565 -0.2873 -0.8547  0.6101
58717SOL     OW83390   9.702   2.542  10.058  0.0411 -0.2039  0.0366
58717SOL    HW183391   9.648   2.599  10.113 -0.7945 -0.3202 -0.6396
58717SOL    HW283392   9.769   2.508  10.117  1.4917  2.5889  0.1826
58718SOL     OW83393   2.734   3.330   9.723  0.0366 -0.0938 -0.3968
58718SOL    HW183394   2.650   3.300   9.689 -0.1532  0.9498 -0.9090
58718SOL    HW283395   2.757   3.404   9.667  0.9202  0.1227  0.2305
58719SOL     OW83396   7.334   5.568   4.458 -0.4325 -0.2602  0.3031
58719SOL    HW183397   7.370   5.647   4.497 -0.0136  1.8623 -3.8011
58719SOL    HW283398   7.246   5.560   4.496 -0.8376  2.7747  0.2737
58720SOL     OW83399   1.355  11.699   2.369 -0.1084 -0.5746 -0.5621
58720SOL    HW183400   1.332  11.742   2.287 -1.6589 -0.2027  0.0349
58720SOL    HW283401   1.410  11.625   2.343  0.2971  0.1566 -1.8323
58721SOL     OW83402   5.353   2.982   8.667  0.2289 -0.2488 -1.0300
58721SOL    HW183403   5.319   3.066   8.698 -0.6038 -1.0437  0.3799
58721SOL    HW283404   5.448   2.994   8.662  0.1507  0.6656 -0.4861
58722SOL     OW83405   0.112   7.948   6.785  0.0276 -0.1070  0.0727
58722SOL    HW183406   0.069   7.989   6.861 -1.8509 -1.8921  0.0517
58722SOL    HW283407   0.117   8.019   6.721 -1.3710  0.6225  0.7108
58723SOL     OW83408   7.821   3.766   6.453  0.0995 -0.1434 -0.1912
58723SOL    HW183409   7.821   3.764   6.358  0.5155  0.5136 -0.2104
58723SOL    HW283410   7.803   3.675   6.479 -0.0271 -0.3250 -0.8857
58724SOL     OW83411   4.498   1.697  10.269 -0.4081  0.2327  0.2163
58724SOL    HW183412   4.429   1.663  10.326 -1.8140  1.1993 -0.8323
58724SOL    HW283413   4.492   1.644  10.189 -0.1339  0.5057  0.0105
58725SOL     OW83414   3.366   1.024  12.004  0.1111 -0.6373  0.3742
58725SOL    HW183415   3.455   0.995  12.026 -0.7288 -1.9650  2.3256
58725SOL    HW283416   3.366   1.118  12.020  1.4703 -0.3670 -0.9210
58726SOL     OW83417   7.219   9.641   0.086  0.2308 -0.2305 -0.6002
58726SOL    HW183418   7.191   9.551   0.104  3.9195 -1.1254  1.6003
58726SOL    HW283419   7.281   9.632   0.013  2.4287  0.0472  1.1387
58727SOL     OW83420  12.522  10.117   6.912 -0.6598  0.0263 -0.1324
58727SOL    HW183421  12.492  10.200   6.875  1.8148 -0.5353 -3.9562
58727SOL    HW283422  12.590  10.141   6.974 -0.6845  0.8985 -0.4322
58728SOL     OW83423   5.455  11.338  10.174  0.2763 -0.1805  0.3324
58728SOL    HW183424   5.384  11.330  10.238  0.2145  0.3200  0.3352
58728SOL    HW283425   5.475  11.248  10.148  0.3755 -0.3962  1.1386
58729SOL     OW83426  12.253  12.652   2.000 -0.2108  0.0496  0.2172
58729SOL    HW183427  12.172  12.700   1.986  0.0706  0.5422  0.2669
58729SOL    HW283428  12.323  12.715   1.983  0.1624 -0.2077  0.7245
58730SOL     OW83429   6.664   2.367   3.083  0.7061 -0.7413 -0.1134
58730SOL    HW183430   6.690   2.389   2.993  0.7701 -0.2821  0.0192
58730SOL    HW283431   6.589   2.423   3.101  0.8992 -0.5965  0.2430
58731SOL     OW83432   7.664   0.357   0.141 -0.5963 -0.6694 -0.5957
58731SOL    HW183433   7.648   0.320   0.227 -1.9979  1.3760  0.0989
58731SOL    HW283434   7.578   0.359   0.099 -0.3617  0.6249 -1.0507
58732SOL     OW83435   8.065   4.841   2.816 -0.1241  0.1516 -0.1337
58732SOL    HW183436   8.005   4.894   2.763 -1.0487  0.8448  1.5361
58732SOL    HW283437   8.082   4.893   2.894 -0.9537 -1.8948  1.5167
58733SOL     OW83438  10.629   0.111  11.370 -0.4505  0.0549  0.5153
58733SOL    HW183439  10.547   0.120  11.321 -0.4580 -0.8446  0.3475
58733SOL    HW283440  10.637   0.193  11.419 -0.6169  0.8419 -0.7279
58734SOL     OW83441   5.745   1.599   0.526  0.1333 -0.1251  0.3538
58734SOL    HW183442   5.785   1.614   0.611 -1.2606  0.9527  0.8542
58734SOL    HW283443   5.684   1.527   0.540  1.6842 -1.6576 -0.3697
58735SOL     OW83444   5.979   5.706   1.588 -0.0106 -0.3746  0.3794
58735SOL    HW183445   5.967   5.739   1.499  0.7687 -0.8095  0.1058
58735SOL    HW283446   5.912   5.752   1.640  2.0264  2.9741  0.3693
58736SOL     OW83447   5.409   2.918   0.775  0.0520 -0.3668 -0.2527
58736SOL    HW183448   5.327   2.960   0.747  1.0274  0.2509 -2.4086
58736SOL    HW283449   5.403   2.828   0.741 -0.7538 -1.1368  1.7778
58737SOL     OW83450  11.823   2.806   8.356  0.3083 -1.2371 -0.0978
58737SOL    HW183451  11.733   2.836   8.341  0.3576 -0.5604  0.8893
58737SOL    HW283452  11.813   2.724   8.405  0.2346 -0.6007  0.9718
58738SOL     OW83453   8.122   2.652   5.732  0.9243 -0.2270 -0.1582
58738SOL    HW183454   8.209   2.611   5.732  1.7654  1.4242 -1.3773
58738SOL    HW283455   8.131   2.727   5.790  0.9208  1.0495 -1.7484
58739SOL     OW83456  12.596   4.695   8.352  0.3708 -0.3878 -0.3947
58739SOL    HW183457  12.679   4.661   8.319  0.9565 -0.2928  0.9456
58739SOL    HW283458  12.606   4.790   8.347 -0.2851 -0.3681 -1.7228
58740SOL     OW83459   5.626   6.135   8.487  0.0896 -0.5000  0.1314
58740SOL    HW183460   5.716   6.136   8.519 -0.1008 -1.2234  0.7258
58740SOL    HW283461   5.619   6.053   8.438 -0.2955 -0.5365  0.2421
58741SOL     OW83462   1.162   6.696  10.302 -0.2777 -0.0819  0.3323
58741SOL    HW183463   1.144   6.661  10.390  2.8024  1.0725  1.5669
58741SOL    HW283464   1.187   6.787  10.318  0.5241  0.0966 -1.7265
58742SOL     OW83465   1.684   7.817   2.595 -0.1249  0.2562  0.3403
58742SOL    HW183466   1.656   7.905   2.621  0.3962  0.3695  0.5226
58742SOL    HW283467   1.728   7.782   2.672 -1.1599 -0.5319  0.5981
58743SOL     OW83468   4.614   3.831   3.046 -0.0146 -0.6467  0.1745
58743SOL    HW183469   4.684   3.777   3.008 -0.0422 -0.4364 -0.1900
58743SOL    HW283470   4.536   3.809   2.994  0.2385  0.6223 -0.8102
58744SOL     OW83471   5.145  12.151   5.682 -0.0845  0.5139 -0.2073
58744SOL    HW183472   5.221  12.118   5.636  0.4817  2.4598 -0.7558
58744SOL    HW283473   5.121  12.081   5.743  2.1735 -0.1170  0.0361
58745SOL     OW83474  10.934   3.303   4.375 -0.2639 -0.3945  0.0610
58745SOL    HW183475  11.017   3.311   4.423 -0.7015 -0.0130  0.7650
58745SOL    HW283476  10.914   3.209   4.377  0.6065 -0.6252 -0.9175
58746SOL     OW83477  11.999   7.084   2.593  0.2692 -0.0439 -0.4378
58746SOL    HW183478  11.936   7.016   2.568 -0.3966  0.8649 -1.3349
58746SOL    HW283479  12.078   7.064   2.543  0.9844 -1.5868  1.2052
58747SOL     OW83480   4.196  12.033   1.413  0.2745 -0.2082  0.1854
58747SOL    HW183481   4.259  12.024   1.484  0.4948  2.8368  0.5420
58747SOL    HW283482   4.249  12.052   1.335 -0.0827  0.9344  0.1926
58748SOL     OW83483  10.157   6.883   7.709 -0.4010  0.2702  0.0053
58748SOL    HW183484  10.139   6.867   7.616  0.4340  0.1935 -0.1565
58748SOL    HW283485  10.153   6.978   7.718  0.3833  0.3494 -0.3185
58749SOL     OW83486   9.992  12.646   1.396 -0.5545  0.5133  0.1260
58749SOL    HW183487   9.956  12.688   1.318 -2.1410  0.2577  0.6793
58749SOL    HW283488  10.075  12.608   1.367 -0.9110  0.7742 -1.3213
58750SOL     OW83489   6.629   9.493   6.955 -0.1781 -0.5547  0.0558
58750SOL    HW183490   6.611   9.438   6.879  0.5937  0.2667 -0.7360
58750SOL    HW283491   6.664   9.574   6.919  0.4442 -0.2471  1.2999
58751SOL     OW83492   4.896   0.722   7.072 -0.2360 -0.3373  0.2334
58751SOL    HW183493   4.955   0.647   7.073  0.6675  0.3538  0.7018
58751SOL    HW283494   4.896   0.753   7.162 -0.5703  0.2402  0.0395
58752SOL     OW83495  10.411   2.503  10.011 -0.1137 -0.1111  0.7697
58752SOL    HW183496  10.502   2.480  10.033  0.4392  1.3865  0.1446
58752SOL    HW283497  10.412   2.598  10.000 -1.3528 -0.2681 -1.0557
58753SOL     OW83498   9.815  10.527  12.009  0.3731 -0.2936 -0.5387
58753SOL    HW183499   9.742  10.576  11.971 -0.2782 -1.7814 -1.2819
58753SOL    HW283500   9.890  10.547  11.952  0.4324  0.8024 -0.0971
58754SOL     OW83501   8.794   6.230  10.352 -0.0057 -0.2427  0.0975
58754SOL    HW183502   8.776   6.223  10.259  1.4189 -1.2058 -0.1370
58754SOL    HW283503   8.867   6.169  10.367 -0.5233 -0.4676  1.9223
58755SOL     OW83504   0.116   1.169   6.534  0.5605 -0.7283 -0.4192
58755SOL    HW183505   0.196   1.217   6.513 -0.1403  0.2753 -0.8319
58755SOL    HW283506   0.091   1.127   6.451 -0.1167  0.1260 -0.6539
58756SOL     OW83507   9.627   5.842   5.581 -0.1641 -0.5496 -0.6382
58756SOL    HW183508   9.542   5.817   5.616 -0.3717  0.8778 -0.0331
58756SOL    HW283509   9.691   5.801   5.638 -0.4313 -1.6228 -1.0904
58757SOL     OW83510   7.619  11.112   0.742  0.4782 -0.2492  0.3613
58757SOL    HW183511   7.565  11.157   0.808  0.1207 -2.9885  2.1082
58757SOL    HW283512   7.556  11.079   0.678  0.1992 -1.7764  1.3613
58758SOL     OW83513  10.470   3.192   3.511 -0.0727 -0.4141  0.0698
58758SOL    HW183514  10.485   3.138   3.434  1.2670 -1.4333  0.9945
58758SOL    HW283515  10.550   3.244   3.521 -1.3558  1.9008 -0.8393
58759SOL     OW83516   0.626   1.545   2.627  0.3969  0.0195  0.2537
58759SOL    HW183517   0.602   1.533   2.719 -1.6541  0.3353 -0.1974
58759SOL    HW283518   0.674   1.466   2.604 -0.7208 -0.9424  1.0977
58760SOL     OW83519   4.067   8.890  10.403 -0.0729 -0.7759 -0.0402
58760SOL    HW183520   4.126   8.928  10.468 -0.7679 -0.7565  0.5879
58760SOL    HW283521   4.012   8.829  10.452 -1.0423 -0.2800 -0.4866
58761SOL     OW83522   6.794  12.461   8.327  0.0260 -0.2953  0.4632
58761SOL    HW183523   6.706  12.473   8.291  0.4430  0.5997 -0.2982
58761SOL    HW283524   6.817  12.371   8.305  0.0749  0.0777 -1.1055
58762SOL     OW83525   4.346   4.247   7.099 -0.4075  0.1455 -0.1009
58762SOL    HW183526   4.365   4.329   7.145  0.0363  0.1685 -0.3157
58762SOL    HW283527   4.274   4.267   7.040  0.1177  0.5482 -0.6106
58763SOL     OW83528  10.193   7.841  12.374 -0.5707 -0.2373 -0.4518
58763SOL    HW183529  10.137   7.769  12.346 -0.9068  0.4180 -1.5703
58763SOL    HW283530  10.269   7.836  12.316  0.1169 -0.5819  0.4600
58764SOL     OW83531   6.490   8.072   5.143  0.0713  0.7583  0.3176
58764SOL    HW183532   6.454   7.984   5.151  0.5714  0.4245 -0.9118
58764SOL    HW283533   6.466   8.115   5.225 -1.3524 -0.0807  0.3656
58765SOL     OW83534   1.099   6.285   3.573  0.4474  0.2678 -0.1330
58765SOL    HW183535   1.155   6.207   3.577  1.1499  0.8074  2.1753
58765SOL    HW283536   1.155   6.356   3.603  0.3510  2.1104 -3.8165
58766SOL     OW83537   3.732   4.757   9.600  0.4622  0.2662  0.4061
58766SOL    HW183538   3.647   4.761   9.556 -0.7436 -2.0191  2.3135
58766SOL    HW283539   3.793   4.728   9.532 -0.7520 -0.4163 -0.4337
58767SOL     OW83540   7.288  10.992   6.189 -0.4328  0.3715 -0.4009
58767SOL    HW183541   7.235  10.921   6.151  0.3241 -0.6737  0.4321
58767SOL    HW283542   7.362  11.000   6.129 -1.3930  1.7233 -1.4778
58768SOL     OW83543   0.906   9.321   3.692  0.1084  0.0659 -0.0870
58768SOL    HW183544   0.881   9.242   3.739 -1.4084 -0.0394 -1.0246
58768SOL    HW283545   0.911   9.389   3.759 -0.6063 -0.3899  0.4283
58769SOL     OW83546  11.332   7.701   7.555  0.1457  0.1212  0.1612
58769SOL    HW183547  11.359   7.756   7.481  0.8668 -0.1348  0.2235
58769SOL    HW283548  11.297   7.622   7.515 -0.2376  0.3290  0.0828
58770SOL     OW83549  11.370   8.634   1.022 -0.5393  0.0262 -0.1516
58770SOL    HW183550  11.420   8.690   1.081 -0.6786  0.3119 -0.3013
58770SOL    HW283551  11.420   8.633   0.941  1.1804 -2.6524  0.7978
58771SOL     OW83552   2.413  10.081  11.452  0.3376  0.8439 -0.6338
58771SOL    HW183553   2.378  10.082  11.542  1.9984  0.6647  0.0401
58771SOL    HW283554   2.391  10.168  11.417  0.9066  1.4426  0.4450
58772SOL     OW83555  11.569  11.809  11.800 -0.5735 -0.1054  0.3123
58772SOL    HW183556  11.551  11.896  11.834  0.5294  0.8927 -1.4636
58772SOL    HW283557  11.571  11.752  11.877 -4.4549  0.7691  1.2710
58773SOL     OW83558  12.646   9.629   6.013  0.0234  0.0776  0.8053
58773SOL    HW183559  12.713   9.683   6.053  1.7377 -1.4131  0.0948
58773SOL    HW283560  12.639   9.661   5.923 -1.0743  0.9692  1.1931
58774SOL     OW83561  10.885   4.192   3.268 -0.0459 -0.3202  0.1884
58774SOL    HW183562  10.824   4.162   3.336  0.5092 -0.4704  0.6321
58774SOL    HW283563  10.971   4.162   3.298  0.2370 -0.1955 -0.4774
58775SOL     OW83564  11.453   1.462   1.221  0.2292 -0.1630 -0.6179
58775SOL    HW183565  11.390   1.516   1.172 -0.5193 -1.0917 -0.7140
58775SOL    HW283566  11.401   1.425   1.293  1.1952  0.7774  0.6033
58776SOL     OW83567   2.697   0.913   7.475  0.3917  0.3942  0.4270
58776SOL    HW183568   2.739   0.967   7.408  1.6297 -0.3058  0.6023
58776SOL    HW283569   2.755   0.837   7.483 -0.3654 -0.0884  1.4576
58777SOL     OW83570   3.128   6.745   6.657  0.2508  0.0873 -0.4046
58777SOL    HW183571   3.089   6.683   6.718  1.5615 -0.0851  0.3009
58777SOL    HW283572   3.221   6.749   6.682  0.3392  1.8592 -0.8199
58778SOL     OW83573   4.796   9.653   0.160  0.1778 -0.4086  0.0199
58778SOL    HW183574   4.874   9.642   0.106 -0.7860 -1.1365 -1.2616
58778SOL    HW283575   4.824   9.628   0.248  0.8925 -2.6547 -0.7744
58779SOL     OW83576   5.573  11.560   8.961  0.3557  0.3787 -0.0554
58779SOL    HW183577   5.496  11.610   8.988 -0.7555 -1.5719  0.6433
58779SOL    HW283578   5.544  11.513   8.883  0.7366 -0.5592  0.3509
58780SOL     OW83579   8.816   1.640   0.262 -0.5910  0.2201  0.0171
58780SOL    HW183580   8.745   1.704   0.258 -0.8293 -0.0382  0.0438
58780SOL    HW283581   8.784   1.573   0.323 -0.3543  0.0667 -0.0272
58781SOL     OW83582   5.617   1.748   6.754 -0.2687 -0.4080 -0.0244
58781SOL    HW183583   5.675   1.822   6.774  1.2497 -1.1734 -1.4070
58781SOL    HW283584   5.528   1.784   6.763  0.4019  1.0534  1.1705
58782SOL     OW83585  10.184   1.833  12.152  0.5610 -0.3717 -0.4907
58782SOL    HW183586  10.267   1.879  12.168  0.2178 -0.2588  1.0699
58782SOL    HW283587  10.171   1.841  12.058  2.2440 -0.2495 -0.7537
58783SOL     OW83588  12.483   8.349   1.679 -0.0992 -0.0918  0.3030
58783SOL    HW183589  12.431   8.342   1.759 -0.8232 -4.0612 -0.2946
58783SOL    HW283590  12.574   8.351   1.709 -0.3217 -2.4489  1.3158
58784SOL     OW83591   8.258   6.723   2.439 -0.0692  0.0143  0.4336
58784SOL    HW183592   8.348   6.755   2.442  0.0975 -0.2314 -0.9822
58784SOL    HW283593   8.232   6.715   2.530  1.2004  0.4823  0.8623
58785SOL     OW83594   0.614   1.153   3.747 -0.7463 -0.6577 -0.2597
58785SOL    HW183595   0.594   1.106   3.666 -0.2385 -1.1575 -0.1028
58785SOL    HW283596   0.677   1.220   3.721  0.6577 -1.8473 -0.0161
58786SOL     OW83597   2.441   0.011   8.473  0.0244  0.3203  0.1132
58786SOL    HW183598   2.491   0.043   8.398 -2.2455  2.2108 -0.7219
58786SOL    HW283599   2.382  -0.054   8.436 -0.6421  0.7708  0.3645
58787SOL     OW83600   4.925   2.582   6.799 -0.2197  0.7802  0.2273
58787SOL    HW183601   4.877   2.622   6.726  0.3644  0.7825 -0.1604
58787SOL    HW283602   4.867   2.593   6.875 -0.7573  0.9342 -0.1979
58788SOL     OW83603   3.887   1.488   2.050  0.3939 -0.0732 -0.1022
58788SOL    HW183604   3.875   1.440   1.968  0.6681  0.3136 -0.3757
58788SOL    HW283605   3.805   1.477   2.097 -0.0940  0.4244 -0.8147
58789SOL     OW83606   2.567  11.533   2.450 -0.3206 -0.6211 -0.2601
58789SOL    HW183607   2.589  11.602   2.513 -3.3139  0.8895 -0.6983
58789SOL    HW283608   2.610  11.560   2.369 -2.9846  2.0301 -0.9931
58790SOL     OW83609   0.556   3.606  11.448  0.0199 -0.1226 -0.2967
58790SOL    HW183610   0.465   3.618  11.476 -0.1764 -2.7398  0.5204
58790SOL    HW283611   0.548   3.561  11.363  0.4959 -1.1730  0.1924
58791SOL     OW83612  11.752   4.847  11.533 -0.6408 -0.3568 -0.5463
58791SOL    HW183613  11.832   4.823  11.580 -0.7328  0.9276  0.3154
58791SOL    HW283614  11.738   4.776  11.471  0.1362 -1.5239  0.5724
58792SOL     OW83615  11.425   7.561   2.678 -0.2354 -0.7716 -0.5259
58792SOL    HW183616  11.505   7.558   2.731 -0.7083  0.7613  0.3537
58792SOL    HW283617  11.454   7.540   2.590  0.8033 -2.0995  0.0976
58793SOL     OW83618   0.324  10.860   0.615  0.3031 -0.2489  0.7533
58793SOL    HW183619   0.365  10.777   0.594  0.3576 -0.1955  0.6493
58793SOL    HW283620   0.328  10.866   0.711 -0.2503 -0.6486  0.8019
58794SOL     OW83621  11.307   6.690   7.808 -0.0268 -0.1107  0.3633
58794SOL    HW183622  11.305   6.607   7.856 -0.1574 -1.4036 -1.7679
58794SOL    HW283623  11.238   6.683   7.743 -0.5462  2.0128  0.6043
58795SOL     OW83624   2.065   1.695   4.554 -0.1239  0.3961  0.2314
58795SOL    HW183625   2.006   1.624   4.528  0.1545  0.0954  0.4190
58795SOL    HW283626   2.153   1.662   4.535  0.0279  0.5418  0.6696
58796SOL     OW83627   6.434   3.544   0.026  0.1287 -0.3286 -0.3722
58796SOL    HW183628   6.445   3.621  -0.030 -0.7802  0.0525 -0.0524
58796SOL    HW283629   6.375   3.487  -0.024  0.3399 -0.5555 -0.3598
58797SOL     OW83630   0.130  10.855   7.583 -0.3726 -0.3813 -0.2263
58797SOL    HW183631   0.093  10.928   7.633 -2.0472 -2.8304  2.3845
58797SOL    HW283632   0.098  10.868   7.494  0.6944  2.8401 -0.2613
58798SOL     OW83633   3.516  10.387   4.495  0.0287  0.3920  0.4814
58798SOL    HW183634   3.570  10.366   4.571 -0.0584  0.2680  0.5093
58798SOL    HW283635   3.485  10.476   4.512 -0.5242  0.1251  0.9095
58799SOL     OW83636   2.996   6.915   0.492 -0.1431  0.2786  0.2437
58799SOL    HW183637   3.018   6.833   0.448  0.9031 -0.2936  1.7571
58799SOL    HW283638   2.901   6.911   0.502 -0.3485  0.1818 -1.4297
58800SOL     OW83639   9.882   3.570   7.661  0.0176 -0.2975 -0.0834
58800SOL    HW183640   9.859   3.517   7.585  1.7096  0.3798 -1.1242
58800SOL    HW283641   9.824   3.646   7.656 -0.9712 -1.0005  0.2478
58801SOL     OW83642  11.925  12.270   1.871 -0.0518 -0.2792 -0.3226
58801SOL    HW183643  11.989  12.274   1.942  0.5427  0.9755 -0.8992
58801SOL    HW283644  11.877  12.352   1.877  0.0144 -0.1471 -1.3737
58802SOL     OW83645  11.551   9.792   9.611 -0.0960  0.0382 -0.5693
58802SOL    HW183646  11.512   9.866   9.563  0.6300 -1.6778 -4.1187
58802SOL    HW283647  11.477   9.737   9.635 -0.4645  0.8643  0.2500
58803SOL     OW83648  12.169   8.731   6.539 -0.9700  0.4777 -0.2444
58803SOL    HW183649  12.233   8.777   6.485 -1.1702 -0.5931 -1.4583
58803SOL    HW283650  12.199   8.745   6.629  2.5473 -2.0188 -0.7629
58804SOL     OW83651  10.465   8.263   4.207  0.4381  0.0544 -0.0214
58804SOL    HW183652  10.504   8.322   4.143  0.7617  1.4561  1.3739
58804SOL    HW283653  10.489   8.302   4.292 -3.0835  0.4465  0.9576
58805SOL     OW83654   6.934   2.841  12.560  0.7273  0.0047 -0.5018
58805SOL    HW183655   6.987   2.914  12.592  3.3973 -1.4450 -1.3951
58805SOL    HW283656   6.901   2.800  12.640  2.8633 -0.3778  0.2482
58806SOL     OW83657   2.114   7.385   9.558 -0.1430 -0.0939 -0.2391
58806SOL    HW183658   2.081   7.442   9.626 -1.1399 -0.0401 -0.7555
58806SOL    HW283659   2.127   7.301   9.601  2.0685  0.6577  0.7176
58807SOL     OW83660  11.159   7.216   6.164 -1.2025 -0.4382  0.9292
58807SOL    HW183661  11.071   7.253   6.155 -0.9120  0.2674  0.8580
58807SOL    HW283662  11.156   7.164   6.244 -1.4430  0.3151  1.4210
58808SOL     OW83663   2.208   9.549   2.834 -0.6079  0.8144  0.4250
58808SOL    HW183664   2.187   9.636   2.868 -1.5059 -0.0617  2.2444
58808SOL    HW283665   2.129   9.523   2.785 -1.1074  0.2967  1.4703
58809SOL     OW83666   4.812   9.601   2.269 -0.0307 -0.2426 -0.1227
58809SOL    HW183667   4.791   9.657   2.344  0.9956  0.5397 -0.3853
58809SOL    HW283668   4.892   9.555   2.295  1.5663  1.5906 -1.4465
58810SOL     OW83669   9.599   0.278   2.256  0.5289  0.1590  0.1326
58810SOL    HW183670   9.551   0.203   2.220  1.7666 -0.7253  0.2707
58810SOL    HW283671   9.627   0.327   2.178  0.8028 -0.2116 -0.0019
58811SOL     OW83672  12.403   0.807   8.029  0.3573  0.6570  0.4173
58811SOL    HW183673  12.326   0.864   8.029 -0.3857 -0.3081  0.6024
58811SOL    HW283674  12.414   0.782   8.121  0.3602  0.1183  0.2790
58812SOL     OW83675   7.920   5.381   1.419  0.2179 -0.1282  0.7763
58812SOL    HW183676   7.953   5.322   1.351  0.5896  0.7981  0.1412
58812SOL    HW283677   7.992   5.442   1.436 -0.3057  0.4099  1.1083
58813SOL     OW83678   2.343  10.321  11.348  0.1829  0.0496  0.8111
58813SOL    HW183679   2.290  10.349  11.273 -0.0178 -1.4736  0.3408
58813SOL    HW283680   2.392  10.399  11.374 -0.1312  0.7393 -0.5868
58814SOL     OW83681   8.235   9.049   3.229 -0.2876  0.6032  0.2401
58814SOL    HW183682   8.283   9.130   3.245 -1.6658  1.5346 -0.1566
58814SOL    HW283683   8.294   8.996   3.175 -0.6822  2.8132 -2.6176
58815SOL     OW83684   8.318   6.701  11.732  0.5526 -0.5136 -0.1167
58815SOL    HW183685   8.278   6.638  11.792  0.8385  0.2855  0.9530
58815SOL    HW283686   8.244   6.740  11.686  0.1666  0.1013  0.9847
58816SOL     OW83687   1.949  12.563   5.394 -0.0315 -0.4535 -0.0943
58816SOL    HW183688   1.992  12.501   5.335  1.0561  1.1012 -1.0078
58816SOL    HW283689   1.989  12.548   5.479  1.6248  0.2588 -0.7135
58817SOL     OW83690   2.815  10.881   2.396  0.7948 -0.3859  0.6482
58817SOL    HW183691   2.821  10.897   2.301 -4.3280  1.2780  0.3180
58817SOL    HW283692   2.810  10.968   2.435  0.4608 -1.0738  2.1892
58818SOL     OW83693   0.360   7.501   4.365  0.1527 -0.2974 -0.2249
58818SOL    HW183694   0.307   7.559   4.419  0.1840 -0.5718  0.1069
58818SOL    HW283695   0.449   7.509   4.400  0.2743 -0.0530 -0.5953
58819SOL     OW83696   0.877   3.779   9.836 -0.3130  0.4433 -0.0190
58819SOL    HW183697   0.842   3.801   9.922  2.1186  1.1122  0.8897
58819SOL    HW283698   0.887   3.684   9.838  1.5824  0.6146  1.2849
58820SOL     OW83699  11.952   3.741   3.643 -0.4108  0.6292 -0.4283
58820SOL    HW183700  11.914   3.653   3.641 -2.8486  1.6094 -0.6353
58820SOL    HW283701  11.978   3.757   3.552 -1.2134  0.6251 -0.6634
58821SOL     OW83702   0.805   1.847   6.169  0.5477 -0.1998  0.4385
58821SOL    HW183703   0.770   1.773   6.119 -2.8710  2.3977 -1.4648
58821SOL    HW283704   0.887   1.869   6.125  0.7539 -1.8122 -0.0271
58822SOL     OW83705  10.499   1.736   9.064 -0.3368  0.5540 -0.2413
58822SOL    HW183706  10.477   1.798   9.133  0.5802  0.2798  0.3210
58822SOL    HW283707  10.432   1.668   9.070 -0.3308  0.5969  0.2972
58823SOL     OW83708   4.446   6.344   2.113 -0.1634  0.2701  0.0043
58823SOL    HW183709   4.510   6.412   2.134 -1.7199  1.4347  1.2505
58823SOL    HW283710   4.397   6.380   2.039 -0.7899  0.3668  0.4644
58824SOL     OW83711  10.315   8.306   3.110  0.4167  0.4828  0.0403
58824SOL    HW183712  10.300   8.250   3.034  3.1337  0.1593 -0.3324
58824SOL    HW283713  10.230   8.309   3.155 -1.0048 -0.1006 -2.4437
58825SOL     OW83714   6.589   1.175  11.901 -0.2557 -0.0640 -0.3142
58825SOL    HW183715   6.626   1.251  11.945 -0.7491 -0.2934  0.5040
58825SOL    HW283716   6.518   1.211  11.846  0.4604  0.2382 -1.0645
58826SOL     OW83717   6.036   2.938   0.491  0.3838 -0.3645 -0.5243
58826SOL    HW183718   5.997   3.003   0.549  0.2061 -1.5378  0.7139
58826SOL    HW283719   6.007   2.854   0.525  1.2806 -1.1467 -1.5850
58827SOL     OW83720  10.970   0.887  10.532 -0.5277 -0.2438  0.0102
58827SOL    HW183721  11.028   0.889  10.457 -0.7107 -2.1423 -0.2360
58827SOL    HW283722  11.028   0.897  10.608  0.1515 -1.9859 -0.2361
58828SOL     OW83723  12.266  10.060   4.476  0.0160  1.2772  0.2277
58828SOL    HW183724  12.323  10.014   4.415 -1.6474 -0.2107 -0.3132
58828SOL    HW283725  12.287  10.024   4.562 -0.8406 -0.1238 -0.1149
58829SOL     OW83726   5.559   4.896   6.960  0.3561  0.3960  0.1013
58829SOL    HW183727   5.474   4.927   6.929  0.3755 -1.4499 -2.0307
58829SOL    HW283728   5.622   4.958   6.922  0.0610  0.9761  0.5502
58830SOL     OW83729   8.563  11.180   9.479  0.9061  1.1867  0.2377
58830SOL    HW183730   8.496  11.192   9.412  1.2587  2.9357  0.1729
58830SOL    HW283731   8.643  11.215   9.441  1.7344 -0.2055  0.5991
58831SOL     OW83732   6.775   3.213   9.394  0.2206 -0.1779  0.4023
58831SOL    HW183733   6.775   3.138   9.453  2.8377 -1.7678 -1.4066
58831SOL    HW283734   6.702   3.196   9.334  0.5515 -1.1154  0.2468
58832SOL     OW83735   7.850   8.173   7.180 -0.3207  0.0771 -0.5426
58832SOL    HW183736   7.897   8.256   7.177  0.3965 -0.3486 -1.7349
58832SOL    HW283737   7.898   8.116   7.119 -3.0803  0.0211 -2.8915
58833SOL     OW83738   1.555  10.401  12.583 -0.3011 -0.8998  0.1616
58833SOL    HW183739   1.642  10.397  12.622  0.0112 -0.2644 -0.4448
58833SOL    HW283740   1.523  10.311  12.587  0.7118 -1.2931 -0.3366
58834SOL     OW83741   7.251  10.574   9.336  0.2014  0.0292 -0.0011
58834SOL    HW183742   7.198  10.594   9.413  0.9756 -1.0924  0.8513
58834SOL    HW283743   7.340  10.561   9.371  0.3905 -1.4046 -0.9516
58835SOL     OW83744   3.557   4.992  10.393  0.4690 -0.3060  0.3378
58835SOL    HW183745   3.617   5.062  10.417  1.1806 -0.3455 -1.2057
58835SOL    HW283746   3.488   5.035  10.343 -0.6605 -0.3101  1.8307
58836SOL     OW83747   4.141   5.575   6.935  0.0923  0.2321 -0.3857
58836SOL    HW183748   4.218   5.619   6.972  0.8312 -1.7773  0.6469
58836SOL    HW283749   4.167   5.483   6.930 -2.1729 -0.4706 -0.2316
58837SOL     OW83750   7.691  10.994   0.398 -0.4296  0.4915  0.1193
58837SOL    HW183751   7.687  10.914   0.451  1.4947  0.7718  0.7454
58837SOL    HW283752   7.775  10.989   0.353 -1.4069  0.9482 -1.8753
58838SOL     OW83753   8.374   8.574   9.738  0.1364 -0.2858 -0.2702
58838SOL    HW183754   8.425   8.644   9.779 -1.5097  0.6046  0.3216
58838SOL    HW283755   8.413   8.493   9.773  0.3222  0.3969  1.1770
58839SOL     OW83756   9.589   2.369   4.151 -0.4341  0.1717  0.7507
58839SOL    HW183757   9.569   2.451   4.106 -0.2635  0.3564  1.0130
58839SOL    HW283758   9.545   2.376   4.236 -2.2196 -0.8864 -0.0216
58840SOL     OW83759   7.557  11.512   3.208  0.4632  0.2608  0.1636
58840SOL    HW183760   7.490  11.444   3.220 -0.0776  0.7514 -0.0259
58840SOL    HW283761   7.628  11.468   3.163  1.0974 -0.7597  2.0487
58841SOL     OW83762   1.683  10.190  10.983 -0.1184  0.0211 -0.5920
58841SOL    HW183763   1.753  10.128  10.965 -0.1047  0.5278 -2.4462
58841SOL    HW283764   1.720  10.250  11.048  1.3235  0.5065 -1.8197
58842SOL     OW83765  10.513  12.284   3.560 -0.4272 -0.1942  0.2087
58842SOL    HW183766  10.426  12.294   3.521 -0.4252  2.2461  0.6731
58842SOL    HW283767  10.529  12.190   3.559 -2.3107 -0.5660 -1.5298
58843SOL     OW83768   6.040  10.241   5.659  0.2716 -0.9887  0.3569
58843SOL    HW183769   6.086  10.319   5.691  0.4256 -0.9254 -0.0229
58843SOL    HW283770   5.960  10.275   5.619 -0.2960 -1.1218  1.3263
58844SOL     OW83771   5.877   7.658   3.598  0.2520 -0.1397 -0.6511
58844SOL    HW183772   5.843   7.633   3.512 -0.3683 -1.4743 -0.0452
58844SOL    HW283773   5.894   7.751   3.590  0.0502 -0.1977 -2.1731
58845SOL     OW83774   3.092   5.020   0.256  0.1671  0.2384  0.0393
58845SOL    HW183775   3.062   5.038   0.167 -3.3107  1.3679  1.2409
58845SOL    HW283776   3.059   5.095   0.307  1.1006 -0.8879  2.4338
58846SOL     OW83777   6.347   7.955   1.267  0.4807 -0.5899 -0.3347
58846SOL    HW183778   6.355   7.916   1.180  0.1572 -0.5892 -0.3674
58846SOL    HW283779   6.270   7.912   1.305 -0.4538  0.6745 -0.7183
58847SOL     OW83780   2.232   0.467   6.230 -0.2387  0.1800  0.3830
58847SOL    HW183781   2.235   0.476   6.325  0.9672  2.2611  0.2189
58847SOL    HW283782   2.307   0.412   6.209 -0.3953 -0.1245  0.6123
58848SOL     OW83783   7.068   4.667   9.157  0.7081 -0.1817  0.1018
58848SOL    HW183784   7.103   4.631   9.076  1.3920  0.8364 -0.0717
58848SOL    HW283785   7.130   4.640   9.224 -0.7117 -2.4385  0.6054
58849SOL     OW83786   4.010   3.637   0.727  0.3132  0.2725 -0.4706
58849SOL    HW183787   4.056   3.673   0.803  0.6774 -1.4865  0.1870
58849SOL    HW283788   4.043   3.689   0.653  0.6222  1.4286  0.4378
58850SOL     OW83789   2.780  12.165  12.212 -0.6523 -0.3224 -0.5390
58850SOL    HW183790   2.767  12.157  12.118 -2.8669 -1.8703 -0.1763
58850SOL    HW283791   2.771  12.259  12.229 -2.1141 -0.2250 -1.6570
58851SOL     OW83792   1.630   7.754  11.513 -0.0084 -0.2931 -0.0003
58851SOL    HW183793   1.648   7.817  11.443  2.0174  0.4834  1.1333
58851SOL    HW283794   1.589   7.805  11.582  0.9490 -0.3465  0.6255
58852SOL     OW83795  12.553   2.349   4.215 -0.4562  0.3028  0.1102
58852SOL    HW183796  12.474   2.297   4.202 -0.0504 -0.5224  0.8704
58852SOL    HW283797  12.524   2.425   4.266 -1.1933  1.2640 -1.6493
58853SOL     OW83798   0.041   6.224  11.844  0.1428 -0.1700  0.3909
58853SOL    HW183799   0.080   6.295  11.792 -0.6398 -0.1380 -0.1506
58853SOL    HW283800   0.009   6.162  11.780  1.5225 -1.4356  0.8619
58854SOL     OW83801   7.904   8.626   3.110 -0.4127 -0.2804 -0.0086
58854SOL    HW183802   7.949   8.631   3.194  0.0780 -0.9539 -0.2206
58854SOL    HW283803   7.975   8.624   3.045 -0.6486 -2.4740 -0.2993
58855SOL     OW83804  12.584   4.119  10.640  0.3893 -0.2298 -0.6446
58855SOL    HW183805  12.627   4.087  10.720  2.2262  0.1626 -1.4356
58855SOL    HW283806  12.534   4.196  10.669 -1.0908 -1.5668  0.5707
58856SOL     OW83807   3.617  12.647   4.035 -0.3070  0.1230 -0.0911
58856SOL    HW183808   3.584  12.710   4.099  1.1634  0.1759  0.6631
58856SOL    HW283809   3.539  12.606   3.998 -1.4896  3.7723 -2.1309
58857SOL     OW83810   9.942   4.482   5.395  0.5929 -0.3420  0.1423
58857SOL    HW183811   9.876   4.415   5.416  0.6799 -0.9377 -1.3631
58857SOL    HW283812  10.023   4.432   5.383  0.3863 -0.1913 -2.3384
58858SOL     OW83813   1.786   6.006   9.265 -0.5536 -0.1616 -0.1852
58858SOL    HW183814   1.855   5.939   9.267 -0.5829 -0.2291 -0.9805
58858SOL    HW283815   1.706   5.958   9.286 -0.2350  0.1141  1.8209
58859SOL     OW83816   6.968   9.458   7.160 -0.4495 -0.2476 -0.4206
58859SOL    HW183817   7.043   9.476   7.217 -0.3467 -2.5535  0.2749
58859SOL    HW283818   6.989   9.503   7.078  0.6518  0.9274  0.4690
58860SOL     OW83819   5.583   5.634   5.017 -0.3255 -0.2946  0.0385
58860SOL    HW183820   5.597   5.702   5.083 -0.3645  0.1654 -0.4236
58860SOL    HW283821   5.489   5.638   4.998 -0.4365 -0.8902  0.4538
58861SOL     OW83822   8.019   5.983  10.804  0.4479  0.1821  0.4240
58861SOL    HW183823   8.076   6.007  10.877  2.0173  0.0071 -0.6944
58861SOL    HW283824   8.050   5.897  10.776 -1.9356 -1.0645  1.2530
58862SOL     OW83825   0.704   9.194   5.660 -0.1900  0.2266  0.4066
58862SOL    HW183826   0.778   9.235   5.615 -0.2300  0.3338  0.4391
58862SOL    HW283827   0.710   9.225   5.750  1.1716 -1.6686  1.0455
58863SOL     OW83828   0.074   0.592   2.998  0.0031  0.1583  0.1112
58863SOL    HW183829  -0.014   0.617   2.970 -0.3377 -1.3926 -0.3528
58863SOL    HW283830   0.123   0.674   3.003 -1.7679  1.1885  1.5199
58864SOL     OW83831   9.109   7.454   4.919  0.3978 -0.5058  0.8268
58864SOL    HW183832   9.024   7.424   4.951 -0.0078 -1.8554 -1.2976
58864SOL    HW283833   9.099   7.549   4.910 -0.3388 -0.4485  2.0589
58865SOL     OW83834   0.785   8.087   4.898 -0.2391  0.0585  0.0860
58865SOL    HW183835   0.874   8.062   4.922 -0.5289 -0.5517  0.5365
58865SOL    HW283836   0.753   8.014   4.844 -0.0207  0.8621 -1.1782
58866SOL     OW83837  12.397   3.577   6.971 -0.7861 -0.5614 -0.3886
58866SOL    HW183838  12.459   3.647   6.951  1.2615 -2.3498 -0.6470
58866SOL    HW283839  12.313   3.609   6.936  0.4171  1.0420 -2.0121
58867SOL     OW83840   5.511  12.328   4.713  0.3626  0.0027  0.6453
58867SOL    HW183841   5.545  12.259   4.656 -0.1056  0.2242  0.0938
58867SOL    HW283842   5.442  12.286   4.764  0.0601  0.0791  0.2909
58868SOL     OW83843   9.677   5.288   0.317  0.0564  0.2482  0.4263
58868SOL    HW183844   9.747   5.353   0.308  0.2708  0.1965  1.5406
58868SOL    HW283845   9.653   5.266   0.227  2.4487 -0.7914 -0.0161
58869SOL     OW83846   8.049   3.428   9.006 -0.3887  0.0394  0.5469
58869SOL    HW183847   8.047   3.510   9.055 -0.6540 -0.0369  0.6643
58869SOL    HW283848   7.971   3.431   8.951 -0.6548 -0.3534  0.9032
58870SOL     OW83849   3.592   0.473   7.378 -0.1825  0.1237  0.2432
58870SOL    HW183850   3.682   0.462   7.407 -0.3211 -0.7516  0.3802
58870SOL    HW283851   3.596   0.466   7.283  0.1091  1.7810  0.1086
58871SOL     OW83852   8.954   9.984   8.945 -0.0173 -0.0116  0.3862
58871SOL    HW183853   8.884   9.966   9.008  1.0361 -0.2738  1.5362
58871SOL    HW283854   8.948   9.913   8.882 -1.7426  0.8172 -0.4357
58872SOL     OW83855  10.984   9.023  12.651 -0.6730 -0.3419 -0.3318
58872SOL    HW183856  11.073   9.032  12.618  0.0596 -0.7903  1.4388
58872SOL    HW283857  10.952   8.940  12.614  1.1745 -2.3464  2.2549
58873SOL     OW83858   4.801   2.155   2.385  0.2803 -0.5521 -0.5588
58873SOL    HW183859   4.765   2.161   2.296 -0.3584  2.8849 -0.2017
58873SOL    HW283860   4.891   2.184   2.377 -0.2240  1.3328  0.0624
58874SOL     OW83861   6.945   5.958   0.116 -0.3357  0.2901 -0.5994
58874SOL    HW183862   7.032   5.920   0.105 -0.1273  0.1574  1.2542
58874SOL    HW283863   6.936   6.018   0.041  0.7281 -0.7856 -1.6382
58875SOL     OW83864   6.008   4.667   1.490  0.2480  0.3650 -0.2353
58875SOL    HW183865   6.024   4.746   1.438  0.9354  1.4388  1.5096
58875SOL    HW283866   6.052   4.684   1.573 -0.3408 -1.5091  0.5097
58876SOL     OW83867   5.486   6.955  11.443  0.3710 -0.5094  0.3704
58876SOL    HW183868   5.577   6.964  11.471 -0.5381 -1.3144  4.0543
58876SOL    HW283869   5.443   7.035  11.474  0.0640  0.9262 -3.2389
58877SOL     OW83870   3.851   6.299   6.963 -0.0857  0.0741  0.0271
58877SOL    HW183871   3.887   6.221   6.922  1.3569  1.3500 -1.2228
58877SOL    HW283872   3.920   6.365   6.957 -1.2276  1.4535  1.0955
58878SOL     OW83873   6.460   9.118   8.664 -0.1145  0.1272  0.5964
58878SOL    HW183874   6.488   9.154   8.748  0.2850 -1.1511  1.0361
58878SOL    HW283875   6.511   9.165   8.599  0.7710 -0.0088  1.1821
58879SOL     OW83876   6.810   4.819   1.419  0.8201  0.6157  0.1226
58879SOL    HW183877   6.776   4.735   1.447  0.1603  1.6208  2.6348
58879SOL    HW283878   6.904   4.804   1.406  1.1145 -0.1054  2.5946
58880SOL     OW83879   0.939  11.971   3.270  0.3413  0.2442 -0.1070
58880SOL    HW183880   0.956  12.039   3.204 -0.5648 -0.8617 -1.5306
58880SOL    HW283881   1.019  11.919   3.271  0.1795 -0.0245 -0.7090
58881SOL     OW83882   8.824   9.145   1.210  0.5205 -0.1072 -0.6646
58881SOL    HW183883   8.783   9.219   1.166 -1.1135 -1.0855 -0.8966
58881SOL    HW283884   8.840   9.175   1.299  1.7220  1.1456 -1.2792
58882SOL     OW83885   2.650   4.109  12.116  0.0902 -0.1953 -0.4604
58882SOL    HW183886   2.591   4.158  12.173  0.6595  1.0763 -0.9180
58882SOL    HW283887   2.593   4.052  12.065 -0.8688  1.5217 -1.4087
58883SOL     OW83888   1.997  11.401  11.863  0.2235 -0.1634 -0.1241
58883SOL    HW183889   1.902  11.403  11.849  0.3890 -0.1775 -1.4509
58883SOL    HW283890   2.025  11.491  11.843  0.5841 -0.3919 -0.6914
58884SOL     OW83891   3.807   0.438   1.593  0.6057  0.6805  0.3111
58884SOL    HW183892   3.738   0.478   1.646  1.3558 -2.2737  3.9486
58884SOL    HW283893   3.879   0.501   1.597 -0.2044  1.6132  0.6878
58885SOL     OW83894   3.269   7.850  11.811 -0.4378  0.2860 -0.4451
58885SOL    HW183895   3.293   7.798  11.887  0.0141  0.5363 -0.4089
58885SOL    HW283896   3.173   7.852  11.812 -0.5096 -1.4329 -1.0651
58886SOL     OW83897   1.867   6.616   6.604 -0.0294  0.8337  0.5923
58886SOL    HW183898   1.901   6.625   6.693 -0.3207 -0.7966  0.8966
58886SOL    HW283899   1.772   6.612   6.614 -0.0109 -0.9865  0.4118
58887SOL     OW83900  11.607   4.566   3.246  0.5686 -0.0597  0.6686
58887SOL    HW183901  11.697   4.598   3.255  0.5748  0.1590 -0.1011
58887SOL    HW283902  11.567   4.625   3.182 -1.0191  1.6603  3.0739
58888SOL     OW83903   0.846   4.102   0.574 -0.0182 -0.0173  0.2925
58888SOL    HW183904   0.866   4.026   0.628  0.0763  0.4814  0.9730
58888SOL    HW283905   0.851   4.176   0.634  1.7598  0.7576 -0.7107
58889SOL     OW83906  12.262  11.587   4.939 -0.5162  0.3432  0.1093
58889SOL    HW183907  12.285  11.549   4.854 -0.5740  0.1914  0.1623
58889SOL    HW283908  12.323  11.546   5.001 -1.3995 -0.6073  0.3734
58890SOL     OW83909  10.051   5.047   3.367  1.1418  0.0516  0.0529
58890SOL    HW183910  10.131   5.012   3.407  0.2033 -1.9727  0.2806
58890SOL    HW283911   9.980   5.006   3.416 -0.0342 -0.4986 -1.9996
58891SOL     OW83912   7.316  11.283  12.514  0.0917 -0.4615  0.8503
58891SOL    HW183913   7.311  11.270  12.609 -0.1131 -0.7786  0.7966
58891SOL    HW283914   7.370  11.211  12.482 -0.0164 -0.4773  0.7017
58892SOL     OW83915   0.957   1.493   4.837 -0.2845 -0.1637  0.5556
58892SOL    HW183916   0.902   1.522   4.909  1.5712  0.0335  1.9818
58892SOL    HW283917   0.901   1.435   4.785 -2.1828  1.0265  1.1684
58893SOL     OW83918   4.410  10.212  10.223  0.2000  0.2223  0.4148
58893SOL    HW183919   4.479  10.174  10.168  2.0117  0.2854  2.5133
58893SOL    HW283920   4.338  10.148  10.219  0.0799  0.4073 -2.2468
58894SOL     OW83921   2.269  12.100   3.299 -0.1388  0.1597  0.2167
58894SOL    HW183922   2.304  12.106   3.388  0.5536  0.1092 -0.0482
58894SOL    HW283923   2.341  12.127   3.243 -0.4402 -0.2124 -0.3572
58895SOL     OW83924  11.719   7.683   2.290 -0.2952 -0.5678 -0.1417
58895SOL    HW183925  11.774   7.757   2.316 -1.0672 -0.5938  1.7095
58895SOL    HW283926  11.629   7.715   2.300 -0.6402 -1.3773 -0.5359
58896SOL     OW83927   8.903  11.764   3.551 -0.3896  0.1385 -0.6873
58896SOL    HW183928   8.843  11.715   3.495 -0.4344 -0.4032 -0.1739
58896SOL    HW283929   8.965  11.804   3.490  0.0255 -1.0660 -1.0838
58897SOL     OW83930   8.237   7.286   0.794 -0.0602  0.5647  0.0168
58897SOL    HW183931   8.147   7.306   0.770 -0.2418  2.4330  1.9268
58897SOL    HW283932   8.280   7.266   0.711 -2.0298  0.3687 -1.0257
58898SOL     OW83933   8.012   1.002  10.785  0.3122  0.0419 -0.6059
58898SOL    HW183934   7.970   1.071  10.734 -0.1345 -0.2056 -0.5848
58898SOL    HW283935   8.104   1.005  10.759  0.4711  1.2051  0.0321
58899SOL     OW83936  12.519   9.619   7.497  0.3771  0.1839  0.2039
58899SOL    HW183937  12.593   9.675   7.473  2.7786 -3.2202 -1.0918
58899SOL    HW283938  12.529   9.607   7.592  0.5616  0.9308  0.2888
58900SOL     OW83939   8.043  11.845   0.885 -0.2245  0.2362 -0.2535
58900SOL    HW183940   8.108  11.825   0.952 -0.7137 -2.2710 -0.4164
58900SOL    HW283941   7.959  11.831   0.928 -0.5810  0.2262 -0.9421
58901SOL     OW83942   1.280   8.889   0.103 -0.1490  0.0435 -0.4116
58901SOL    HW183943   1.316   8.952   0.165 -3.1521  1.9475 -0.3872
58901SOL    HW283944   1.343   8.817   0.102  1.5244  1.3003  2.5091
58902SOL     OW83945   7.847  12.419  11.480 -0.3128  0.2016  0.1322
58902SOL    HW183946   7.924  12.382  11.438 -0.0095  0.0381  0.8129
58902SOL    HW283947   7.842  12.509  11.447 -0.8770 -0.3188 -1.2935
58903SOL     OW83948   5.152   7.193  12.469 -0.1748  0.4918  0.3750
58903SOL    HW183949   5.116   7.147  12.545  0.2187  1.0835  0.9364
58903SOL    HW283950   5.177   7.279  12.503 -0.7166  1.0550 -0.6139
58904SOL     OW83951   2.350   0.461  10.408  0.1649 -0.4011 -0.5762
58904SOL    HW183952   2.395   0.393  10.358 -0.1090 -1.1426  0.1581
58904SOL    HW283953   2.317   0.522  10.342 -1.5482 -2.1679 -1.4465
58905SOL     OW83954   7.987   2.258   0.370 -0.0548  0.4862  0.4912
58905SOL    HW183955   7.932   2.248   0.448 -0.2682 -1.5777  0.1101
58905SOL    HW283956   7.939   2.214   0.300  1.5657 -0.4280 -0.0894
58906SOL     OW83957   8.452  10.362   6.732 -0.7184 -0.7376  0.1405
58906SOL    HW183958   8.467  10.456   6.733 -1.8452 -0.5077  2.5587
58906SOL    HW283959   8.387  10.348   6.663 -0.8806  0.3069  0.0703
58907SOL     OW83960   2.883  10.161   1.730 -0.6965 -0.1084 -0.7148
58907SOL    HW183961   2.959  10.208   1.765 -1.5102  0.6418  0.1129
58907SOL    HW283962   2.857  10.103   1.802 -0.3607 -1.0586 -1.3361
58908SOL     OW83963  10.386   4.015   0.501 -0.2230 -0.4830 -0.5489
58908SOL    HW183964  10.478   4.033   0.523 -0.7163  0.5362  0.8093
58908SOL    HW283965  10.349   4.102   0.482 -0.8371 -0.9256 -1.4371
58909SOL     OW83966   5.687   7.747   9.918 -0.1787 -0.0028  0.2970
58909SOL    HW183967   5.668   7.713  10.005 -0.6580  1.0176  0.6130
58909SOL    HW283968   5.660   7.678   9.858 -2.1878  0.2323  0.8571
58910SOL     OW83969   3.488   3.161   3.157 -0.1764  0.5324 -0.1827
58910SOL    HW183970   3.542   3.083   3.149 -0.9785 -0.0193 -0.3932
58910SOL    HW283971   3.429   3.156   3.081 -0.5742  1.0643  0.0869
58911SOL     OW83972   3.653   8.613   5.533 -0.8960 -0.8261  0.1427
58911SOL    HW183973   3.614   8.697   5.509 -1.4278 -0.7415  1.2232
58911SOL    HW283974   3.747   8.631   5.541 -1.0071 -0.3377  0.3578
58912SOL     OW83975  11.309   6.484   0.038  0.4258  0.0890  0.1771
58912SOL    HW183976  11.229   6.459  -0.009 -1.2092  1.8958  1.8577
58912SOL    HW283977  11.304   6.579   0.046  1.7476  0.0516  2.0768
58913SOL     OW83978   8.737  10.526   3.930 -0.0461  0.3037  0.0431
58913SOL    HW183979   8.802  10.495   3.867 -0.1066  2.1722 -0.9967
58913SOL    HW283980   8.653  10.498   3.893  0.0229 -0.2452  0.2888
58914SOL     OW83981   1.881   3.683   4.020  0.0103 -0.2691  0.1113
58914SOL    HW183982   1.817   3.648   3.959  0.5707  0.6134 -1.0182
58914SOL    HW283983   1.881   3.622   4.094 -1.3959 -0.8132 -0.3161
58915SOL     OW83984   7.278   0.411  11.942 -0.6114 -0.1445  0.1835
58915SOL    HW183985   7.366   0.400  11.976  0.9994  3.3194 -2.2673
58915SOL    HW283986   7.247   0.493  11.980 -0.4871  1.5003 -2.9249
58916SOL     OW83987   8.482   7.189   3.856  0.3179 -0.4803  0.1692
58916SOL    HW183988   8.571   7.205   3.828  0.1232  1.4490  0.5066
58916SOL    HW283989   8.472   7.241   3.936 -1.3641  0.0664 -0.3505
58917SOL     OW83990   4.116  11.972  12.279  0.0226  0.7106 -0.1332
58917SOL    HW183991   4.052  11.948  12.346 -2.4725  0.2137 -2.5034
58917SOL    HW283992   4.098  12.064  12.261  3.6349  2.2215  2.7338
58918SOL     OW83993   9.559  11.339   7.047 -0.1663 -0.4310  0.2860
58918SOL    HW183994   9.597  11.254   7.029 -2.1691 -1.2817 -0.1707
58918SOL    HW283995   9.546  11.379   6.961  0.5775  0.2629  0.4852
58919SOL     OW83996  10.918   3.283   9.024 -0.5144 -0.4245  0.0049
58919SOL    HW183997  10.855   3.334   8.973 -1.1120  0.0923  1.2340
58919SOL    HW283998  11.003   3.318   8.998 -0.9002  1.1366  0.7271
58920SOL     OW83999   0.615  12.619   9.138 -0.7977  0.0305  0.6059
58920SOL    HW184000   0.624  12.568   9.057  1.0867 -0.8970  1.3404
58920SOL    HW284001   0.588  12.556   9.204 -0.9208  0.4903  1.0031
58921SOL     OW84002   2.693   6.351   5.388 -0.4962 -0.3579 -0.2963
58921SOL    HW184003   2.647   6.363   5.471  0.5778 -0.2118  0.2978
58921SOL    HW284004   2.625   6.327   5.326 -1.2994 -0.6213  0.6612
58922SOL     OW84005   7.788  10.265  11.278  0.6924 -0.3072 -0.1401
58922SOL    HW184006   7.750  10.240  11.362  0.1646  1.2395  0.1038
58922SOL    HW284007   7.718  10.311  11.232  1.3181 -0.1668 -0.9857
58923SOL     OW84008   7.949   4.777  11.180 -0.3911 -0.6187  0.2724
58923SOL    HW184009   8.043   4.774  11.164 -0.6680 -3.5367 -1.3982
58923SOL    HW284010   7.941   4.806  11.271  2.0718 -0.2064  0.4201
58924SOL     OW84011   5.954   6.834   4.500  0.8949  0.0883  0.7367
58924SOL    HW184012   5.875   6.856   4.450  1.5532  0.4866 -0.1546
58924SOL    HW284013   5.988   6.755   4.457  1.7305  0.7063  0.2184
58925SOL     OW84014  11.723   3.291  10.688 -0.6133 -0.0326 -0.1193
58925SOL    HW184015  11.729   3.205  10.728 -0.5086 -0.8901 -1.8775
58925SOL    HW284016  11.676   3.277  10.606 -1.3488  1.7389 -0.0561
58926SOL     OW84017   4.773   8.909   8.296 -0.2423  0.2481 -0.1793
58926SOL    HW184018   4.721   8.914   8.376  1.7965  0.7646  1.1854
58926SOL    HW284019   4.770   8.997   8.260  1.2927  0.8329  1.0196
58927SOL     OW84020   2.936   0.708   2.507  0.4586  0.6012 -0.4317
58927SOL    HW184021   2.909   0.715   2.598 -0.0225  2.3811 -0.6627
58927SOL    HW284022   2.868   0.655   2.465  0.1756  0.5751  0.0551
58928SOL     OW84023  10.713  12.195   6.518  0.1654  0.0294  0.2019
58928SOL    HW184024  10.624  12.171   6.547  0.1249 -0.1364 -0.0566
58928SOL    HW284025  10.767  12.120   6.542  0.6389  0.9437  2.2168
58929SOL     OW84026   9.403   4.833   1.799 -0.2052  0.4165  0.0650
58929SOL    HW184027   9.398   4.883   1.880  0.1236 -0.4357  0.6236
58929SOL    HW284028   9.409   4.899   1.730 -3.1391  1.2784  0.4748
58930SOL     OW84029   7.397   3.745   2.166 -0.0862  0.7191  0.1684
58930SOL    HW184030   7.389   3.693   2.086 -0.7860  0.0254  0.6745
58930SOL    HW284031   7.420   3.833   2.135 -1.0796  0.6474 -0.8552
58931SOL     OW84032  10.317  12.607   4.012  0.4970  0.4344  0.0726
58931SOL    HW184033  10.264  12.679   3.977 -0.4147  0.1618  0.8613
58931SOL    HW284034  10.363  12.572   3.935 -1.1018  0.1481 -0.8022
58932SOL     OW84035   5.664  12.434   6.798  0.4587 -0.2031 -0.2880
58932SOL    HW184036   5.727  12.363   6.801  0.5252 -0.1232  0.1387
58932SOL    HW284037   5.666  12.473   6.885  1.1283  0.9342 -0.7877
58933SOL     OW84038   2.466   7.694   6.809 -0.4782 -0.3133 -0.0345
58933SOL    HW184039   2.499   7.674   6.896  0.7956  0.0094 -0.4267
58933SOL    HW284040   2.419   7.777   6.820  1.8141  1.0568 -0.1001
58934SOL     OW84041   1.609   7.609   6.877 -0.2573 -0.3084 -0.8284
58934SOL    HW184042   1.678   7.553   6.841 -0.7164 -1.2973 -0.1894
58934SOL    HW284043   1.528   7.561   6.863 -0.6430  0.1149 -0.1116
58935SOL     OW84044   1.838   3.717   8.163 -0.5204  0.2358 -0.1055
58935SOL    HW184045   1.778   3.791   8.157 -2.2404 -0.9264  1.5716
58935SOL    HW284046   1.854   3.691   8.072  0.5472  2.9196 -0.7676
58936SOL     OW84047   3.906   3.543   2.317 -0.0222 -0.2213 -0.0732
58936SOL    HW184048   3.828   3.549   2.262 -2.1227 -3.3959  2.1746
58936SOL    HW284049   3.938   3.454   2.304  0.9339 -0.2161  1.8577
58937SOL     OW84050   1.448  10.097   4.266  0.1096 -0.1449 -0.5302
58937SOL    HW184051   1.475  10.187   4.247 -0.7537  0.2880  0.1745
58937SOL    HW284052   1.525  10.044   4.247  0.5458  0.7085 -1.2329
58938SOL     OW84053   6.705  10.943   3.100 -0.1880  0.1535 -0.1368
58938SOL    HW184054   6.662  10.866   3.062  0.7377 -0.0463 -0.8110
58938SOL    HW284055   6.727  10.916   3.189  1.6238 -1.0023 -0.8761
58939SOL     OW84056   3.375   5.351   0.094  0.2649 -0.5194 -0.6610
58939SOL    HW184057   3.419   5.320   0.173 -0.4148  2.2187  0.9010
58939SOL    HW284058   3.382   5.446   0.097  1.3339 -0.2675 -4.6156
58940SOL     OW84059   1.848   0.266   2.002 -0.1289 -0.3956 -0.3345
58940SOL    HW184060   1.853   0.323   2.079  0.3287  0.2629 -0.8414
58940SOL    HW284061   1.810   0.184   2.035 -0.6197  0.1342  0.4386
58941SOL     OW84062   2.125  11.121   6.325  0.7717 -0.0083 -0.2125
58941SOL    HW184063   2.068  11.086   6.394  2.5353  0.5208  1.6275
58941SOL    HW284064   2.123  11.055   6.256 -1.9820 -0.0270 -0.2409
58942SOL     OW84065  10.290   1.825  11.289 -0.0212 -0.6669 -0.6872
58942SOL    HW184066  10.350   1.899  11.287 -0.9638  0.1428  0.3902
58942SOL    HW284067  10.321   1.771  11.363 -0.8082 -0.0689  0.0919
58943SOL     OW84068   8.564   5.808  12.219 -0.3890 -0.1933  0.2789
58943SOL    HW184069   8.555   5.734  12.280 -0.8477  0.9435  1.6285
58943SOL    HW284070   8.534   5.884  12.268 -0.9539  0.7525 -1.4398
58944SOL     OW84071   8.889   9.362   1.407  0.2922  0.5537 -0.5946
58944SOL    HW184072   8.964   9.363   1.466 -0.3414 -0.9400  0.2925
58944SOL    HW284073   8.924   9.391   1.323  1.7866  0.1955 -0.1280
58945SOL     OW84074   9.686   4.736   3.713  0.5933 -0.4914 -0.2412
58945SOL    HW184075   9.772   4.694   3.715 -0.0833 -1.9061 -0.1790
58945SOL    HW284076   9.653   4.721   3.625  0.2240 -0.3248 -0.1344
58946SOL     OW84077   3.033   1.445   1.729  0.4257  0.3150  0.1360
58946SOL    HW184078   3.066   1.355   1.722 -1.2626 -0.3250 -0.1724
58946SOL    HW284079   3.103   1.493   1.772  0.7748 -1.5001  1.7376
58947SOL     OW84080   1.033   4.527  10.200  0.1641 -0.6257  0.3736
58947SOL    HW184081   1.083   4.468  10.143 -0.2073 -0.9452  0.3705
58947SOL    HW284082   1.042   4.490  10.287  1.9877  0.6951  0.8129
58948SOL     OW84083  10.541   8.341  10.038 -0.3301 -0.9069 -0.6895
58948SOL    HW184084  10.587   8.293  10.107  0.6987  0.3838 -0.4252
58948SOL    HW284085  10.608   8.355   9.970 -0.3781  0.7383 -0.4441
58949SOL     OW84086   3.477   8.773   1.970 -0.0134  0.5728 -0.0530
58949SOL    HW184087   3.542   8.813   2.028  0.8875  0.3623 -0.8765
58949SOL    HW284088   3.405   8.836   1.967  0.6567  1.3616 -0.0256
58950SOL     OW84089   1.760   5.852  11.276 -0.0817 -0.1906 -0.0062
58950SOL    HW184090   1.855   5.847  11.269 -0.1485 -1.0742 -0.3652
58950SOL    HW284091   1.744   5.873  11.369  0.5025  2.0769 -0.3530
58951SOL     OW84092   8.157  11.046  11.773  0.4891  0.1620  0.1009
58951SOL    HW184093   8.203  10.963  11.761 -0.5344 -0.7991  2.2389
58951SOL    HW284094   8.097  11.051  11.699 -0.5047 -1.8043  0.7053
58952SOL     OW84095   1.556   0.951   1.113  0.1653  0.5736 -0.2361
58952SOL    HW184096   1.574   0.874   1.168 -0.2756 -0.0466 -0.9458
58952SOL    HW284097   1.634   0.960   1.058 -0.2998 -0.1633 -1.0513
58953SOL     OW84098   3.857   9.083   1.373 -0.1509 -0.3977 -0.2744
58953SOL    HW184099   3.834   9.076   1.280 -1.4564  1.4268 -0.1533
58953SOL    HW284100   3.867   9.177   1.388  0.9571 -0.7212  1.2436
58954SOL     OW84101  11.147   3.363   4.592 -0.5188  0.8893  0.4979
58954SOL    HW184102  11.140   3.357   4.687  0.2952 -0.1081  0.5190
58954SOL    HW284103  11.223   3.309   4.570 -0.7690  0.9954 -0.7319
58955SOL     OW84104   6.909   2.170   3.110 -0.4917 -0.1885 -0.3236
58955SOL    HW184105   6.851   2.097   3.088  0.3694 -0.7981 -0.6336
58955SOL    HW284106   6.857   2.249   3.095 -1.8716 -0.7482  1.2400
58956SOL     OW84107   2.134   1.303   8.765  0.0477  0.1383 -0.4120
58956SOL    HW184108   2.056   1.272   8.719  0.1544  0.6264 -0.9280
58956SOL    HW284109   2.109   1.300   8.858 -0.9967  1.3397 -0.6172
58957SOL     OW84110   3.048   1.370   6.115  0.1115  0.1488 -0.1351
58957SOL    HW184111   3.143   1.384   6.105  0.2292 -0.2449  0.4274
58957SOL    HW284112   3.009   1.453   6.085  0.5340 -0.3071 -2.1114
58958SOL     OW84113   4.035   5.291   2.301 -0.2505  0.3010 -0.9359
58958SOL    HW184114   4.114   5.344   2.294  0.6309 -0.7325  0.7102
58958SOL    HW284115   4.031   5.264   2.392 -3.7748  2.1774 -0.3490
58959SOL     OW84116   3.190  12.040   1.747  0.5276  0.1979  1.0061
58959SOL    HW184117   3.133  11.965   1.762  0.7050 -0.5313 -1.5283
58959SOL    HW284118   3.144  12.093   1.682  0.8039  1.8811  2.1062
58960SOL     OW84119   7.290   9.417   0.832  0.0406  0.1069 -0.1894
58960SOL    HW184120   7.360   9.439   0.771  0.2212  0.8789  0.2785
58960SOL    HW284121   7.273   9.498   0.879 -1.2997 -0.0225 -0.4176
58961SOL     OW84122   8.335   1.633   9.985 -0.1518  0.3575  0.0045
58961SOL    HW184123   8.383   1.715   9.996  1.3456 -0.3329 -0.9521
58961SOL    HW284124   8.332   1.619   9.890 -0.7699 -0.4721  0.1295
58962SOL     OW84125   6.849   0.178   9.222 -0.0093 -0.2386 -0.4043
58962SOL    HW184126   6.842   0.104   9.283  0.7342  0.4846  0.5852
58962SOL    HW284127   6.935   0.216   9.240 -0.8089  1.5290 -0.1307
58963SOL     OW84128   6.117   4.938   3.059 -0.3413  0.0147  0.1000
58963SOL    HW184129   6.058   4.982   3.120 -0.6080  0.6367 -0.5943
58963SOL    HW284130   6.104   4.845   3.077 -2.7373  0.0370 -1.0703
58964SOL     OW84131  12.309  12.116   8.405  0.0100 -0.0666  0.5103
58964SOL    HW184132  12.386  12.078   8.448  0.2921  1.0366  1.0195
58964SOL    HW284133  12.300  12.202   8.445 -1.3961 -0.1106  0.3207
58965SOL     OW84134   7.788   1.173   6.115 -0.1382 -0.1302  0.4947
58965SOL    HW184135   7.881   1.177   6.137  0.0346 -0.9289 -0.0502
58965SOL    HW284136   7.752   1.105   6.171 -0.5567  0.6466  1.2036
58966SOL     OW84137   9.692   8.451  11.341  0.6464 -0.4420 -0.1132
58966SOL    HW184138   9.637   8.427  11.267 -0.3630  0.2066  0.3983
58966SOL    HW284139   9.669   8.388  11.410 -1.4532  1.3788  0.9778
58967SOL     OW84140   5.645   7.663   6.514 -0.7379  0.5776  0.5985
58967SOL    HW184141   5.691   7.744   6.537  1.0507  0.3659 -1.8253
58967SOL    HW284142   5.570   7.693   6.463 -1.0854  0.7577  1.2026
58968SOL     OW84143  12.085   1.978   4.649  0.4299 -0.2129  0.2602
58968SOL    HW184144  12.145   1.954   4.579 -0.8424 -0.8406 -0.6559
58968SOL    HW284145  12.109   2.068   4.671  1.8124 -0.5087  0.0577
58969SOL     OW84146  11.704   0.524   4.412  0.1400  0.5908 -0.2169
58969SOL    HW184147  11.609   0.528   4.396  0.1443  1.6613 -0.0434
58969SOL    HW284148  11.739   0.598   4.362  0.9031  0.1445 -0.3569
58970SOL     OW84149   0.483  11.452   3.126  0.1206  0.3060  0.4463
58970SOL    HW184150   0.520  11.400   3.197 -0.0508 -0.4249  0.0080
58970SOL    HW284151   0.524  11.417   3.047 -1.2343 -0.3111 -0.0214
58971SOL     OW84152  10.291   0.998   1.776  0.0662 -0.1423 -0.0702
58971SOL    HW184153  10.224   0.933   1.799 -0.2104 -0.7781 -2.4171
58971SOL    HW284154  10.285   1.064   1.845 -1.6085 -1.1918  0.8578
58972SOL     OW84155   9.544  12.473   3.554 -0.0370  0.4725  0.1530
58972SOL    HW184156   9.594  12.542   3.598 -0.2178 -0.3594  1.7004
58972SOL    HW284157   9.554  12.396   3.610  0.1322 -0.7803 -1.5120
58973SOL     OW84158   1.299   7.820   1.095  0.3514 -0.3693  0.1989
58973SOL    HW184159   1.363   7.890   1.105  0.0685 -0.2009  0.8865
58973SOL    HW284160   1.264   7.832   1.006  1.3440 -0.5341 -0.2268
58974SOL     OW84161   2.603  12.631   4.702 -0.0727 -0.2805 -0.3718
58974SOL    HW184162   2.613  12.727   4.705  0.4509 -0.3389 -0.0272
58974SOL    HW284163   2.620  12.603   4.791 -2.3048 -0.5361  0.0207
58975SOL     OW84164   7.609   5.862   8.723  0.2397  0.9535  0.0906
58975SOL    HW184165   7.675   5.892   8.786 -0.9622  2.2166  0.7944
58975SOL    HW284166   7.614   5.924   8.651  2.1885 -0.9573 -1.5694
58976SOL     OW84167   6.952   3.196   7.852 -0.1996 -0.0326  1.0986
58976SOL    HW184168   6.980   3.108   7.825  1.1027  0.7383 -0.2105
58976SOL    HW284169   7.032   3.237   7.884 -0.4292  1.2740  0.0371
58977SOL     OW84170   8.111   6.093   5.785 -0.0682  0.1278 -0.5736
58977SOL    HW184171   8.204   6.103   5.766  0.2601  1.2828  1.3219
58977SOL    HW284172   8.104   6.003   5.819  0.4223  0.1474 -0.4026
58978SOL     OW84173  12.109  11.676   3.619 -0.0058  0.0070 -0.3964
58978SOL    HW184174  12.146  11.610   3.561 -1.3525 -1.3116  0.1620
58978SOL    HW284175  12.015  11.673   3.602 -0.2213  0.9429  0.4984
58979SOL     OW84176   1.733   6.261   6.386 -0.1802  0.1216  0.2500
58979SOL    HW184177   1.814   6.263   6.334  0.0421  0.2621  0.5955
58979SOL    HW284178   1.755   6.208   6.463  0.2743  1.9317  1.4490
58980SOL     OW84179   5.323   4.756   5.685  0.2222 -0.0952  0.5638
58980SOL    HW184180   5.385   4.688   5.658 -0.0715  0.1029 -0.6437
58980SOL    HW284181   5.362   4.793   5.764 -0.7956 -3.3270  2.7928
58981SOL     OW84182   5.669   0.654   9.661  0.5233 -0.1809 -0.9613
58981SOL    HW184183   5.713   0.618   9.584  1.8045  1.2077 -0.9228
58981SOL    HW284184   5.727   0.724   9.692  0.0666 -0.7003  1.2859
58982SOL     OW84185   9.160   0.377  11.188 -0.5353 -0.7112 -0.1441
58982SOL    HW184186   9.208   0.432  11.126  0.8012 -1.6599 -0.0015
58982SOL    HW284187   9.142   0.435  11.262 -1.7761  0.3173 -1.2120
58983SOL     OW84188  11.995   2.184   4.441 -0.1529  0.4392  0.2816
58983SOL    HW184189  12.047   2.264   4.448 -0.7234  0.7863  0.6910
58983SOL    HW284190  11.921   2.199   4.500 -1.4289  0.5020 -1.2845
58984SOL     OW84191   3.702  12.202   1.726  0.3921 -0.1289 -0.0007
58984SOL    HW184192   3.693  12.283   1.676  0.6700  0.0324  0.2111
58984SOL    HW284193   3.615  12.161   1.722 -0.2310  0.9748  1.2545
58985SOL     OW84194   8.160   5.775   4.809 -0.0941 -0.1194  0.9226
58985SOL    HW184195   8.140   5.737   4.895  1.0409 -1.7347  0.4964
58985SOL    HW284196   8.221   5.847   4.829  0.1490 -0.4729  1.4788
58986SOL     OW84197   5.322  11.955   6.743 -0.2058  0.1026  0.0652
58986SOL    HW184198   5.249  11.946   6.804 -1.2550 -0.5809 -1.2376
58986SOL    HW284199   5.370  11.872   6.752 -0.7199 -0.2602 -0.4712
58987SOL     OW84200  11.449   5.554   0.078  0.3367 -0.4393  0.0341
58987SOL    HW184201  11.471   5.551   0.171  2.7856 -0.8809 -0.4892
58987SOL    HW284202  11.405   5.472   0.060  2.4343 -1.6894  0.2882
58988SOL     OW84203   2.179   1.832   0.725  0.5649  0.2921 -0.3145
58988SOL    HW184204   2.106   1.869   0.776  1.4368  2.0596 -0.2473
58988SOL    HW284205   2.162   1.738   0.722 -1.1118  0.5311  0.6570
58989SOL     OW84206   5.717   5.882   2.225  0.3265 -0.5387  0.2821
58989SOL    HW184207   5.665   5.824   2.281  1.6383 -1.1075  0.9774
58989SOL    HW284208   5.778   5.923   2.286  0.1014  0.7965 -0.3734
58990SOL     OW84209   3.856   9.837  12.003 -0.0848 -1.0380 -0.0196
58990SOL    HW184210   3.883   9.790  12.082 -0.4897 -0.5740  0.3964
58990SOL    HW284211   3.778   9.791  11.973 -0.3519 -0.7640  0.2605
58991SOL     OW84212   0.709   1.684   3.032  0.3607  0.0473  0.5369
58991SOL    HW184213   0.665   1.670   3.115  0.3256  1.4099  0.7632
58991SOL    HW284214   0.729   1.778   3.030  2.7420 -0.3803  0.2104
58992SOL     OW84215   0.225   5.957   8.001 -0.8019  0.2277 -0.1445
58992SOL    HW184216   0.212   5.876   7.953  3.0853 -0.4333 -0.4125
58992SOL    HW284217   0.299   6.000   7.957 -1.4697  2.9788  1.1775
58993SOL     OW84218   8.324  12.633   7.866  0.1162 -0.0831 -0.1794
58993SOL    HW184219   8.312  12.539   7.883  0.5816 -0.3917 -1.3891
58993SOL    HW284220   8.236  12.668   7.858 -0.0618 -0.4262  0.2802
58994SOL     OW84221   8.695  11.321   3.125 -0.0202  0.7140  0.3450
58994SOL    HW184222   8.671  11.390   3.063  1.4432 -1.6068 -3.1299
58994SOL    HW284223   8.615  11.271   3.138 -0.4309  1.4454  0.7200
58995SOL     OW84224   9.879   7.661   9.631  0.0174  0.7739  0.1226
58995SOL    HW184225   9.798   7.646   9.680  0.5381  0.7856  1.0167
58995SOL    HW284226   9.944   7.605   9.674  0.4421  0.6118 -0.7081
58996SOL     OW84227   1.416  10.236   2.328 -0.0605 -0.4421  0.1248
58996SOL    HW184228   1.469  10.158   2.341  0.8615  0.4694  2.3680
58996SOL    HW284229   1.447  10.273   2.246  0.2703 -1.8150 -0.3910
58997SOL     OW84230   0.037   2.136   3.165 -0.0570  0.0880  0.8064
58997SOL    HW184231  -0.024   2.209   3.176 -0.2626 -0.0223  0.4094
58997SOL    HW284232   0.123   2.178   3.156 -0.3799  0.4214 -1.3131
58998SOL     OW84233   2.349   6.852   0.489 -0.8023 -0.1134  0.6359
58998SOL    HW184234   2.420   6.802   0.530  0.6637  1.9321  0.7281
58998SOL    HW284235   2.327   6.920   0.553 -1.3881  0.5703 -0.2701
58999SOL     OW84236   4.077   6.418   5.328  0.0608 -0.4160 -0.0156
58999SOL    HW184237   4.149   6.457   5.377  0.8889  0.3253 -1.7427
58999SOL    HW284238   4.105   6.328   5.310  0.4220 -0.2356 -0.3768
59000SOL     OW84239  12.711   9.125   6.173  0.2665 -0.0313  0.5980
59000SOL    HW184240  12.647   9.090   6.111  1.9060 -0.5972 -0.8676
59000SOL    HW284241  12.702   9.220   6.165 -0.2224 -0.1005  0.2536
59001SOL     OW84242  11.841   1.359   5.444  0.1132  0.4717  0.1863
59001SOL    HW184243  11.755   1.379   5.408  0.4244  1.0043 -0.2604
59001SOL    HW284244  11.850   1.264   5.433 -1.2439  0.0791  2.0670
59002SOL     OW84245   5.429   2.524   0.198 -0.1613 -0.4282 -0.4602
59002SOL    HW184246   5.458   2.448   0.148  2.8099  0.7813 -0.8238
59002SOL    HW284247   5.510   2.568   0.224 -1.7029  1.5591  1.4254
59003SOL     OW84248  11.396   7.085   7.465  0.0531  0.0696  0.2086
59003SOL    HW184249  11.345   7.026   7.522  0.4304 -1.1556 -0.6748
59003SOL    HW284250  11.338   7.159   7.449 -0.6327 -0.2889  0.9524
59004SOL     OW84251   1.978  10.361  11.368  0.0802 -0.1757  0.2716
59004SOL    HW184252   1.912  10.360  11.437  0.3517 -0.9635  0.5384
59004SOL    HW284253   2.050  10.413  11.405 -0.2027  0.2914  0.1636
59005SOL     OW84254   9.631   4.217   0.592  0.1407  0.3072 -0.2156
59005SOL    HW184255   9.576   4.210   0.514 -0.5636  3.7046 -0.1774
59005SOL    HW284256   9.718   4.238   0.558 -0.1384  1.6593 -0.1509
59006SOL     OW84257   5.649  12.503   1.002 -0.0017 -0.6119  0.0413
59006SOL    HW184258   5.559  12.522   1.027 -0.2802  0.5829 -1.6823
59006SOL    HW284259   5.657  12.535   0.912  2.7765  1.4873  0.8895
59007SOL     OW84260   7.828  11.705   7.960  0.5641  0.0884  0.2122
59007SOL    HW184261   7.889  11.776   7.978  0.7300 -0.1845  0.7562
59007SOL    HW284262   7.751  11.749   7.924  0.5856  0.5731  0.7343
59008SOL     OW84263   1.850   1.822   8.366 -0.1362  0.1407  0.4382
59008SOL    HW184264   1.892   1.906   8.348  0.9165 -0.7252 -1.3675
59008SOL    HW284265   1.844   1.818   8.462 -1.7483  2.9754  0.5547
59009SOL     OW84266  10.571   5.528   2.611  0.0557  0.0046 -0.1679
59009SOL    HW184267  10.625   5.482   2.676  1.1980 -0.4677 -1.4009
59009SOL    HW284268  10.496   5.561   2.661  0.4898 -1.0198  1.2297
59010SOL     OW84269   3.987   3.702   6.064 -0.0729 -0.1544 -0.9431
59010SOL    HW184270   3.895   3.684   6.084  0.3553 -0.1463  1.2971
59010SOL    HW284271   3.992   3.798   6.063 -0.0995 -0.1546 -1.1507
59011SOL     OW84272   7.727   6.839   8.519 -0.4004 -0.4110 -0.1677
59011SOL    HW184273   7.817   6.861   8.498 -0.2639  1.3310  1.9418
59011SOL    HW284274   7.684   6.830   8.433  1.9794 -2.6331 -1.2734
59012SOL     OW84275  10.408   3.257   1.814  0.2336  0.3517  0.4731
59012SOL    HW184276  10.461   3.321   1.765 -1.0457  1.0592 -0.0261
59012SOL    HW284277  10.387   3.190   1.749  0.0482  0.3641  0.5205
59013SOL     OW84278   3.356   2.210   5.310 -0.2972  0.0405 -0.2938
59013SOL    HW184279   3.353   2.211   5.214  1.3074 -1.5965 -0.4196
59013SOL    HW284280   3.267   2.187   5.336 -0.5738 -0.2413 -1.4190
59014SOL     OW84281   2.781  12.219   8.330 -0.5798 -0.5888  0.6846
59014SOL    HW184282   2.816  12.175   8.407 -0.5208 -0.9135  0.4751
59014SOL    HW284283   2.774  12.311   8.356  0.2249 -0.5497  0.8098
59015SOL     OW84284   5.311  10.893  11.044  0.7112 -0.5972 -0.3274
59015SOL    HW184285   5.369  10.836  11.093 -0.0580 -0.5729  0.6308
59015SOL    HW284286   5.298  10.969  11.100  0.4526 -0.2085 -0.9008
59016SOL     OW84287   0.938   8.694   0.955  0.0473 -0.3824 -0.2604
59016SOL    HW184288   0.959   8.698   0.861  3.6689 -1.8455  0.3162
59016SOL    HW284289   0.941   8.600   0.975  3.3485  0.0460  1.9470
59017SOL     OW84290   1.071  10.269   5.410  0.0036  0.5030 -0.0835
59017SOL    HW184291   1.118  10.336   5.460  0.0544 -0.5627  1.3639
59017SOL    HW284292   1.107  10.186   5.441  0.4061 -0.2141 -2.3140
59018SOL     OW84293   9.375  12.437   7.024  0.0266 -0.5919  0.7406
59018SOL    HW184294   9.346  12.360   6.975 -1.0470 -0.6141  1.3772
59018SOL    HW284295   9.406  12.402   7.107  3.1220 -0.7017 -0.3207
59019SOL     OW84296  11.061  12.557  10.928 -0.6299  0.3803  0.2477
59019SOL    HW184297  11.028  12.645  10.946  0.7376  0.8001  0.8330
59019SOL    HW284298  11.074  12.518  11.014  0.9082  0.4509  0.0776
59020SOL     OW84299  11.201   4.645  12.700 -0.1505  0.5138  0.0689
59020SOL    HW184300  11.235   4.611  12.782  0.3495 -1.3179 -0.8384
59020SOL    HW284301  11.132   4.584  12.674 -0.9888  1.6137 -0.4025
59021SOL     OW84302  10.359   0.353   8.421 -0.0235 -0.4346 -0.6216
59021SOL    HW184303  10.389   0.353   8.330 -2.7969  1.0434 -1.6586
59021SOL    HW284304  10.265   0.336   8.415 -0.3244 -0.0639  1.9565
59022SOL     OW84305  11.151   5.152   1.949  0.2146 -0.0867 -0.1553
59022SOL    HW184306  11.150   5.158   2.045 -0.7259 -0.0618 -0.1599
59022SOL    HW284307  11.238   5.119   1.928  0.7575  0.7971  0.6571
59023SOL     OW84308   1.335   8.258  10.776  0.7767 -0.0100  0.3160
59023SOL    HW184309   1.253   8.308  10.766  0.4543 -0.4735  0.5994
59023SOL    HW284310   1.401   8.324  10.798  0.3267  0.2801  0.8305
59024SOL     OW84311   0.690   8.476   2.249  0.2849  0.0948  0.0906
59024SOL    HW184312   0.760   8.524   2.292  1.5460 -0.7488 -0.9642
59024SOL    HW284313   0.727   8.449   2.165 -0.4571 -2.4336  0.4912
59025SOL     OW84314   8.221   6.990   2.114  0.1047  1.0013 -0.6002
59025SOL    HW184315   8.265   7.030   2.190 -0.0780  2.3811 -1.1922
59025SOL    HW284316   8.286   6.932   2.076  0.5663  1.1262 -0.0066
59026SOL     OW84317  12.710   8.237   8.934  0.1358 -0.0749 -0.4339
59026SOL    HW184318  12.726   8.209   9.024  1.1167  0.6959 -0.3394
59026SOL    HW284319  12.682   8.328   8.942  0.1437 -0.0308 -0.8927
59027SOL     OW84320   3.723   4.254   2.555  0.4628  0.0289 -0.0740
59027SOL    HW184321   3.766   4.320   2.610  1.3595 -0.3521 -0.2962
59027SOL    HW284322   3.713   4.178   2.611  0.5742 -0.0650 -0.1805
59028SOL     OW84323   1.645   8.532   9.500  0.1458 -0.1004  0.1509
59028SOL    HW184324   1.656   8.590   9.425 -0.0250  0.4105  0.5151
59028SOL    HW284325   1.551   8.533   9.518 -0.0811 -1.6489 -0.7389
59029SOL     OW84326   6.188  11.230   7.674  0.5286 -0.4176  0.1604
59029SOL    HW184327   6.183  11.146   7.720 -0.6101 -0.7016 -0.4433
59029SOL    HW284328   6.098  11.249   7.649  0.8923  0.5763 -0.4581
59030SOL     OW84329  12.622   5.276   8.964 -0.2479  0.2421  0.5108
59030SOL    HW184330  12.717   5.277   8.970 -0.2481 -0.3596  0.6779
59030SOL    HW284331  12.598   5.184   8.979 -0.8632  0.4236  0.6646
59031SOL     OW84332  10.116  12.198   6.310 -0.4122  0.0311  0.0729
59031SOL    HW184333  10.035  12.157   6.279 -1.8035  1.1001  2.0311
59031SOL    HW284334  10.107  12.199   6.405  1.3920  1.2374  0.2812
59032SOL     OW84335   3.346   9.284   0.327 -0.5267  0.6061 -0.4995
59032SOL    HW184336   3.398   9.344   0.274 -1.1101  0.7874 -0.8721
59032SOL    HW284337   3.265   9.331   0.344 -1.4526 -0.5002 -1.7312
59033SOL     OW84338   5.966   4.006   9.869 -0.1076 -0.5492 -0.7705
59033SOL    HW184339   5.888   3.995   9.814  0.7583  0.0731 -2.1812
59033SOL    HW284340   6.009   4.084   9.833  0.2944  0.1089  1.0602
59034SOL     OW84341   6.207   7.279  11.851  0.4539  0.8544 -0.3992
59034SOL    HW184342   6.268   7.304  11.920 -1.8579  0.6333  1.8575
59034SOL    HW284343   6.138   7.345  11.855 -0.8171 -0.3835 -1.0055
59035SOL     OW84344   6.166  10.882   7.723 -0.6961  0.1969  0.0261
59035SOL    HW184345   6.165  10.814   7.791 -2.2332 -0.6256 -0.7897
59035SOL    HW284346   6.126  10.958   7.765  1.7295  0.9381  1.1988
59036SOL     OW84347   5.914   7.085   8.149 -0.1162  0.7080 -0.3196
59036SOL    HW184348   5.958   7.003   8.171 -2.8993 -0.4163  1.6967
59036SOL    HW284349   5.877   7.069   8.062 -0.0420  0.0839 -0.2408
59037SOL     OW84350  12.089  12.339   0.528 -0.0281  0.1351  0.5989
59037SOL    HW184351  12.043  12.291   0.597 -0.4159 -1.7730 -0.8933
59037SOL    HW284352  12.132  12.271   0.476  1.0664  1.5801 -0.4722
59038SOL     OW84353   0.288   3.297   3.596 -0.1360  0.4822 -0.3355
59038SOL    HW184354   0.342   3.248   3.658  0.9570  1.4365 -0.4807
59038SOL    HW284355   0.264   3.377   3.644  0.9051  1.3351 -1.1642
59039SOL     OW84356   0.264   6.963   1.316  0.0310  0.3370 -0.9632
59039SOL    HW184357   0.354   6.971   1.283 -0.2550  1.3593 -1.5285
59039SOL    HW284358   0.241   7.051   1.346 -0.3703 -0.1797  0.3093
59040SOL     OW84359   2.103  10.464   0.851  0.0790 -0.0712  0.2382
59040SOL    HW184360   2.140  10.420   0.775  0.6848  0.0916  0.4378
59040SOL    HW284361   2.048  10.398   0.893  1.2964 -0.7702  0.7681
59041SOL     OW84362  10.569   6.086   6.117 -0.0235  0.3053  0.0253
59041SOL    HW184363  10.580   6.047   6.030  0.8958  1.1294 -0.2506
59041SOL    HW284364  10.479   6.064   6.142  0.1780 -1.1999 -0.4794
59042SOL     OW84365  10.151   0.303   1.769 -0.1316  0.6394  0.8471
59042SOL    HW184366  10.131   0.210   1.777  1.9085  0.0958  0.1559
59042SOL    HW284367  10.154   0.335   1.859 -1.2392  0.1511  1.0764
59043SOL     OW84368  11.814   2.555   4.992  0.6091 -0.0693 -0.0173
59043SOL    HW184369  11.888   2.584   5.046 -0.2213 -0.7550  1.5648
59043SOL    HW284370  11.759   2.504   5.052 -1.2731  0.5998 -1.0873
59044SOL     OW84371   5.108   6.428  12.622  0.4351  0.0176 -0.4646
59044SOL    HW184372   5.107   6.523  12.627  2.9036  0.0520  1.7957
59044SOL    HW284373   5.020   6.401  12.647 -0.4869  1.6566 -1.7711
59045SOL     OW84374   3.879   4.932  11.681  0.2648  0.0757  0.6593
59045SOL    HW184375   3.936   4.856  11.691  0.3733 -0.0895 -0.8824
59045SOL    HW284376   3.844   4.948  11.768  0.9521 -1.1778  1.1909
59046SOL     OW84377   3.756   5.809   4.975 -0.5484 -0.8010  0.4437
59046SOL    HW184378   3.766   5.756   5.054 -2.3514 -0.6657  0.8102
59046SOL    HW284379   3.770   5.899   5.004 -0.4746 -0.8184  0.4609
59047SOL     OW84380   1.862   2.999   1.175 -0.2391  0.1709 -0.0204
59047SOL    HW184381   1.867   2.939   1.249  1.2547 -1.4085 -1.2936
59047SOL    HW284382   1.869   3.086   1.213 -1.8579 -0.4578  1.8516
59048SOL     OW84383   8.590   2.415   9.511  0.2266 -0.1425  0.7412
59048SOL    HW184384   8.515   2.464   9.546 -0.7327 -1.0036 -0.0597
59048SOL    HW284385   8.616   2.359   9.584 -0.5722 -0.5799  0.7068
59049SOL     OW84386  11.834   9.417   4.382 -0.3111 -0.2912  0.1589
59049SOL    HW184387  11.851   9.398   4.474 -0.1109  1.1665  0.4470
59049SOL    HW284388  11.739   9.425   4.376 -0.2438  1.4391  0.6716
59050SOL     OW84389  11.923   1.967  12.455  0.2544 -0.2801  0.2572
59050SOL    HW184390  11.983   1.953  12.382 -0.8006  0.7753 -0.8593
59050SOL    HW284391  11.871   2.043  12.429  0.1525  0.4145  2.3164
59051SOL     OW84392   9.898  11.768   9.584  0.2218 -0.1108 -0.0312
59051SOL    HW184393   9.834  11.839   9.590  0.2638 -0.1105  0.4382
59051SOL    HW284394   9.879  11.726   9.500 -1.4384 -1.0949  0.7875
59052SOL     OW84395   6.487   2.950   1.941  0.0075 -0.4096  0.0842
59052SOL    HW184396   6.548   2.926   2.011  1.5410  1.2644 -0.6159
59052SOL    HW284397   6.516   2.900   1.865 -1.1947 -1.6458  0.3915
59053SOL     OW84398   1.891   6.877   5.026  0.0540  0.0216  0.4221
59053SOL    HW184399   1.835   6.799   5.028 -1.1393  0.8277 -0.3514
59053SOL    HW284400   1.884   6.910   4.936  1.0009  0.7023  0.5801
59054SOL     OW84401   8.113   6.747  11.145 -0.5983 -0.2460 -0.1382
59054SOL    HW184402   8.176   6.681  11.174  0.7726  0.3585 -1.6338
59054SOL    HW284403   8.161   6.801  11.083 -2.2390  1.0302 -0.3590
59055SOL     OW84404   5.152  10.093   9.377 -0.0711 -0.1881 -0.0079
59055SOL    HW184405   5.143  10.137   9.292 -0.3089  0.3170  0.2765
59055SOL    HW284406   5.240  10.116   9.407  0.7603 -1.9246 -0.9793
59056SOL     OW84407   7.225   3.589   4.155 -0.1202  0.5298  0.1637
59056SOL    HW184408   7.286   3.578   4.082 -0.0363 -0.6147  0.3894
59056SOL    HW284409   7.278   3.631   4.224 -0.1556  1.4512 -0.3548
59057SOL     OW84410   4.520  10.386   4.384  0.6332  0.1855  0.2611
59057SOL    HW184411   4.538  10.321   4.316  2.4908 -1.0553  1.8310
59057SOL    HW284412   4.504  10.335   4.463 -2.8466  1.5265  0.5991
59058SOL     OW84413   6.930  10.611   0.542 -0.4725  0.1637 -0.8963
59058SOL    HW184414   6.868  10.655   0.600 -0.7037 -0.9510 -0.2581
59058SOL    HW284415   6.961  10.680   0.483  0.6089  1.6308  1.2323
59059SOL     OW84416  10.465  12.020   1.827 -0.4687  0.3660 -0.5809
59059SOL    HW184417  10.487  12.026   1.734 -1.6772 -0.0201 -0.9038
59059SOL    HW284418  10.440  11.928   1.840  1.3331 -0.0414  0.5240
59060SOL     OW84419  11.731   3.514   0.097  0.4637 -0.0189  0.4826
59060SOL    HW184420  11.753   3.597   0.141 -0.6217  0.0809  0.8680
59060SOL    HW284421  11.643   3.528   0.063  0.4760 -0.8452  0.0893
59061SOL     OW84422  11.381  10.601   8.082  0.1806  0.1218  0.0047
59061SOL    HW184423  11.437  10.566   8.152  0.3779  0.6956  0.1402
59061SOL    HW284424  11.432  10.589   8.002 -0.0928 -0.6415 -0.0632
59062SOL     OW84425   3.052   6.132   3.427  0.1415  0.3798 -0.3938
59062SOL    HW184426   3.046   6.227   3.436 -0.0693  0.3683 -0.4091
59062SOL    HW284427   3.142   6.112   3.449  0.2654  0.6164 -0.6806
59063SOL     OW84428   4.556   3.274   5.192 -0.0259 -0.1822  0.3842
59063SOL    HW184429   4.615   3.341   5.157 -2.2765  1.1617 -1.0790
59063SOL    HW284430   4.569   3.199   5.134  0.7983 -0.1761  0.5554
59064SOL     OW84431  10.825   3.955   0.703 -0.2109 -0.0745 -0.7499
59064SOL    HW184432  10.916   3.926   0.695  0.2493  1.0558  0.1265
59064SOL    HW284433  10.831   4.043   0.741 -1.6199  0.4505 -1.6499
59065SOL     OW84434   4.599  12.601   7.208 -0.2015 -0.2252  0.1142
59065SOL    HW184435   4.576  12.588   7.300 -1.3708 -0.2523 -0.1681
59065SOL    HW284436   4.515  12.615   7.164  0.2086 -1.5258 -1.1700
59066SOL     OW84437   9.785   5.171  11.737  0.5738 -0.3158 -0.3477
59066SOL    HW184438   9.862   5.175  11.680  0.2743 -0.0436 -0.7313
59066SOL    HW284439   9.757   5.262  11.746 -0.1161 -0.4777 -0.7717
59067SOL     OW84440   4.603   2.095   2.838 -0.2607 -0.1353  0.1445
59067SOL    HW184441   4.684   2.140   2.813  0.6260 -1.5704  0.2958
59067SOL    HW284442   4.535   2.136   2.785  0.5736  1.0525 -0.0447
59068SOL     OW84443   3.614   1.326   4.229  0.4604 -0.9202  0.3105
59068SOL    HW184444   3.579   1.262   4.167  1.3367 -1.2132  0.1006
59068SOL    HW284445   3.709   1.325   4.213  0.3440  2.2088 -1.4378
59069SOL     OW84446   6.247  11.003  12.163  0.2931 -0.0805 -0.0977
59069SOL    HW184447   6.215  10.979  12.076  1.4129 -1.6047 -0.1462
59069SOL    HW284448   6.193  10.952  12.223  0.9520 -0.7321 -0.0434
59070SOL     OW84449   7.844   1.555  10.845  0.0704 -0.0427  0.0586
59070SOL    HW184450   7.877   1.465  10.841 -2.9421 -1.2243 -3.0560
59070SOL    HW284451   7.890   1.601  10.774  0.9242  0.6581  1.0409
59071SOL     OW84452  10.406   4.359  11.689 -0.3208  0.4523  0.3816
59071SOL    HW184453  10.384   4.351  11.782  1.8206 -1.5004  0.8163
59071SOL    HW284454  10.360   4.286  11.647 -0.1818  0.4883  0.1662
59072SOL     OW84455   9.495   2.961   4.285 -0.8175 -0.3039  0.1965
59072SOL    HW184456   9.430   3.031   4.278  0.7384  1.2475  0.5240
59072SOL    HW284457   9.531   2.971   4.373 -0.9463 -1.9113  0.4578
59073SOL     OW84458   6.403   8.421   9.653  0.0313  0.4798 -0.6681
59073SOL    HW184459   6.310   8.436   9.670  0.2562 -0.2567  1.4561
59073SOL    HW284460   6.414   8.327   9.660  0.9912  0.5816 -0.6647
59074SOL     OW84461   5.682   0.956   0.060  0.5776  0.4292  0.2449
59074SOL    HW184462   5.593   0.929   0.085  0.2268  0.1097 -1.2593
59074SOL    HW284463   5.697   1.037   0.110  0.0808 -0.3638  1.7280
59075SOL     OW84464  11.664   7.857   1.689 -0.3118  0.4418 -0.3374
59075SOL    HW184465  11.718   7.780   1.675  2.1969  1.6347  1.8991
59075SOL    HW284466  11.702   7.925   1.633 -1.3333  0.5684 -0.9033
59076SOL     OW84467   8.197  10.123   1.671 -0.1561  0.0135  0.2715
59076SOL    HW184468   8.163  10.063   1.604  0.5735 -1.9109  1.5523
59076SOL    HW284469   8.284  10.147   1.639 -0.1748 -0.1670  0.0852
59077SOL     OW84470  12.201   9.083   0.938 -0.0058  1.0733  0.3385
59077SOL    HW184471  12.195   8.989   0.950 -1.2401  1.0870 -0.0282
59077SOL    HW284472  12.206   9.119   1.027  0.7119  0.6650  0.4708
59078SOL     OW84473   0.396   9.660   7.806  0.3916 -0.0410 -0.3019
59078SOL    HW184474   0.304   9.639   7.822  0.1898 -0.2231 -1.6226
59078SOL    HW284475   0.435   9.576   7.783  0.6773  0.2066 -0.7129
59079SOL     OW84476   5.188   3.519   8.722 -0.0864 -0.5293 -0.0362
59079SOL    HW184477   5.146   3.557   8.645 -2.7374 -0.3332  1.3719
59079SOL    HW284478   5.209   3.429   8.697 -0.4450 -0.3255 -1.1095
59080SOL     OW84479   7.751   2.402  11.221  0.1645 -0.3377 -0.4777
59080SOL    HW184480   7.658   2.405  11.198 -0.0832 -1.4115  0.2651
59080SOL    HW284481   7.762   2.469  11.288 -0.0565 -0.1726 -0.6052
59081SOL     OW84482   5.179   3.168   3.994 -0.1178 -0.7212  0.4582
59081SOL    HW184483   5.252   3.199   3.941 -0.6154 -0.3878 -0.0437
59081SOL    HW284484   5.103   3.173   3.936 -0.5019 -1.2992  0.8901
59082SOL     OW84485  11.747   6.189   4.705  0.2538 -0.0960 -0.2992
59082SOL    HW184486  11.701   6.272   4.718  0.0150 -0.0151 -1.5629
59082SOL    HW284487  11.828   6.198   4.755  0.3195  0.9793 -0.5799
59083SOL     OW84488   5.772  11.983   6.384 -0.7576 -0.1620  0.1977
59083SOL    HW184489   5.730  11.909   6.341 -0.9883 -0.0355  0.2076
59083SOL    HW284490   5.710  12.055   6.375 -0.7708 -0.1113  0.6645
59084SOL     OW84491  10.400  10.237  10.626  0.0878 -0.0149 -0.1033
59084SOL    HW184492  10.388  10.174  10.697 -0.7627 -0.6229 -0.7667
59084SOL    HW284493  10.465  10.299  10.659 -1.0054  0.2807  1.5876
59085SOL     OW84494   5.861   7.470   6.437  0.0676  0.8078 -0.0271
59085SOL    HW184495   5.825   7.433   6.518  0.2458  0.1156 -0.2556
59085SOL    HW284496   5.825   7.558   6.433 -1.3992  0.2214 -0.1189
59086SOL     OW84497  12.061   4.058  11.056 -0.4798 -0.1686 -0.3089
59086SOL    HW184498  12.042   4.013  10.974 -1.8985 -2.0769  0.9807
59086SOL    HW284499  11.980   4.052  11.106  1.1734 -1.8528  2.4323
59087SOL     OW84500   2.779   4.988  12.451  0.4112 -0.0968 -0.0738
59087SOL    HW184501   2.778   4.931  12.374  2.8539 -0.7667  0.3024
59087SOL    HW284502   2.758   4.930  12.524  2.2948 -0.4551  0.2334
59088SOL     OW84503  10.683   7.367   2.220  0.3000 -0.0945  0.0949
59088SOL    HW184504  10.646   7.387   2.306  0.1119  0.3458 -0.0820
59088SOL    HW284505  10.646   7.434   2.162  0.4667 -0.3536 -0.3179
59089SOL     OW84506   6.612   3.814   8.774  0.2047  0.5748  0.3651
59089SOL    HW184507   6.616   3.719   8.773  0.4091  0.5475  1.9321
59089SOL    HW284508   6.572   3.837   8.690 -1.0479 -0.9542  0.4909
59090SOL     OW84509  10.126  10.576   9.630 -0.2699 -0.1991 -0.3170
59090SOL    HW184510  10.157  10.494   9.591  0.2227 -1.0422  1.7506
59090SOL    HW284511  10.149  10.569   9.722  0.4808  2.6178 -0.2051
59091SOL     OW84512   2.774   9.967   5.558 -0.1464 -0.0317  0.1690
59091SOL    HW184513   2.707   9.904   5.529 -0.3508  0.9023 -1.5455
59091SOL    HW284514   2.729  10.021   5.623 -0.6490 -0.2740  0.0334
59092SOL     OW84515   0.401   4.006   5.133  0.1970  0.4681  0.2235
59092SOL    HW184516   0.314   3.995   5.093 -0.8548 -0.1347  2.4920
59092SOL    HW284517   0.450   3.929   5.106 -0.3630  0.2429 -0.1699
59093SOL     OW84518  10.291  11.313   7.748  0.7995 -0.1176  0.3740
59093SOL    HW184519  10.269  11.296   7.657 -1.4386 -1.2973  1.0574
59093SOL    HW284520  10.255  11.400   7.766 -0.8478 -0.8236  0.6878
59094SOL     OW84521   9.418   2.479   8.814 -0.2145 -0.3962 -0.0642
59094SOL    HW184522   9.337   2.467   8.764 -0.7362 -0.8877  0.8539
59094SOL    HW284523   9.481   2.513   8.751 -0.2327 -2.9062 -1.6010
59095SOL     OW84524   2.637   4.709   4.675 -0.1520 -0.6272 -0.2184
59095SOL    HW184525   2.544   4.733   4.667  0.3182  1.8258  0.8042
59095SOL    HW284526   2.667   4.702   4.584 -0.5058  2.3771 -0.6704
59096SOL     OW84527  11.299   0.708   3.707  0.0872 -0.1930  0.5180
59096SOL    HW184528  11.288   0.786   3.654 -1.3732 -0.9361 -0.3231
59096SOL    HW284529  11.259   0.638   3.656  0.1772 -1.2506  1.8386
59097SOL     OW84530   5.941   7.257   6.828 -0.5881  0.2787 -0.2340
59097SOL    HW184531   5.870   7.236   6.889  0.4979  0.3579  1.0814
59097SOL    HW284532   5.927   7.349   6.805  0.2461  0.9001  1.6318
59098SOL     OW84533  10.901   4.061   3.751 -0.2977  0.3968  0.3014
59098SOL    HW184534  10.946   4.129   3.700  0.7549 -1.0391 -0.8048
59098SOL    HW284535  10.810   4.067   3.722 -0.1434  1.0643 -0.0901
59099SOL     OW84536   5.901  10.014   4.947 -0.1572 -0.1800  0.1292
59099SOL    HW184537   5.978   9.957   4.943 -0.1131 -0.1183  0.1079
59099SOL    HW284538   5.872  10.008   5.038  0.7883  1.0053  0.5363
59100SOL     OW84539   6.756   7.253   2.176 -0.7701  0.5999  0.0786
59100SOL    HW184540   6.740   7.252   2.082  0.8652  0.8351 -0.2287
59100SOL    HW284541   6.683   7.204   2.213 -1.2988  0.2744 -1.3295
59101SOL     OW84542   0.062   5.186   8.266  0.4661 -0.2426  0.1118
59101SOL    HW184543   0.041   5.260   8.322  0.6679 -1.9127  2.5253
59101SOL    HW284544   0.158   5.179   8.270  0.5238 -0.0899 -0.8453
59102SOL     OW84545   8.607  10.801   4.628 -0.2299  0.1881 -0.1922
59102SOL    HW184546   8.569  10.748   4.557 -0.1486 -0.4192  0.2130
59102SOL    HW284547   8.639  10.737   4.691 -0.0262  0.7263  0.2545
59103SOL     OW84548   1.256   4.481   8.608  0.2285  0.8202  0.1983
59103SOL    HW184549   1.319   4.518   8.546 -1.9325  1.4761 -1.7482
59103SOL    HW284550   1.299   4.490   8.693  2.4840  1.7885 -0.9404
59104SOL     OW84551   9.901   2.720  12.446  0.3200 -0.1676  0.0232
59104SOL    HW184552   9.825   2.776  12.431  0.5790  0.0578 -0.4959
59104SOL    HW284553   9.925   2.688  12.359  1.3646  0.5047  0.0398
59105SOL     OW84554   6.315  11.974   0.189  0.3321  0.3382 -0.1913
59105SOL    HW184555   6.251  12.044   0.185  1.5316  1.4112 -2.2404
59105SOL    HW284556   6.368  11.994   0.266  1.3066  2.3741 -1.2964
59106SOL     OW84557   2.228  10.681   2.634 -0.5597  0.2435  0.0420
59106SOL    HW184558   2.269  10.767   2.625 -0.1254 -0.0230 -0.5633
59106SOL    HW284559   2.263  10.646   2.715 -0.6341  0.5785  0.2218
59107SOL     OW84560   3.971   2.296   7.241  0.5601  0.7856 -0.4700
59107SOL    HW184561   3.925   2.361   7.189 -0.1969 -0.2563 -1.1522
59107SOL    HW284562   3.946   2.315   7.331 -1.4465  0.1125 -0.8423
59108SOL     OW84563   3.764  12.401   9.191  0.1549 -0.2067  0.2246
59108SOL    HW184564   3.763  12.496   9.200 -0.4211 -0.2504  0.6606
59108SOL    HW284565   3.746  12.384   9.099 -0.6275  0.0822  0.3234
59109SOL     OW84566  11.571   6.388  10.034  0.4460 -0.1341  0.0221
59109SOL    HW184567  11.554   6.331   9.960  0.8316 -1.2658  0.7753
59109SOL    HW284568  11.667   6.391  10.041  0.4320 -1.3227  1.3792
59110SOL     OW84569   1.758   8.187   0.241  0.6099  0.6824 -0.7051
59110SOL    HW184570   1.843   8.147   0.221  1.5890  2.2305  0.1239
59110SOL    HW284571   1.775   8.241   0.318 -0.9950  1.4804 -0.8717
59111SOL     OW84572   3.105   4.074   5.233  0.2646  0.1777 -0.0908
59111SOL    HW184573   3.057   4.081   5.316 -0.2626  0.3293 -0.3978
59111SOL    HW284574   3.196   4.059   5.258  0.0779  0.0263  0.5122
59112SOL     OW84575   3.811  10.831   7.197  0.5048  0.3144 -0.3190
59112SOL    HW184576   3.780  10.850   7.109 -0.1094 -0.9693 -0.4155
59112SOL    HW284577   3.731  10.814   7.247  0.8730  0.5060  0.3490
59113SOL     OW84578   9.094   9.906   8.013 -0.2897  0.4204  0.1813
59113SOL    HW184579   9.024   9.841   8.018  0.2050 -0.1640 -0.2650
59113SOL    HW284580   9.118   9.908   7.920 -0.5398  1.5151  0.1253
59114SOL     OW84581   1.336   9.453  11.688 -0.2726 -0.4483  0.3580
59114SOL    HW184582   1.278   9.416  11.755 -0.6822 -4.3846 -1.8300
59114SOL    HW284583   1.424   9.423  11.714 -0.2463 -0.8182 -0.1602
59115SOL     OW84584  10.446   5.670   8.100  0.1700 -0.2008 -0.3509
59115SOL    HW184585  10.502   5.709   8.168  2.5270 -2.9876 -0.5197
59115SOL    HW284586  10.497   5.676   8.020 -0.3419 -1.5807 -0.8125
59116SOL     OW84587   9.610   1.470   2.815 -1.2299 -0.2401 -0.4321
59116SOL    HW184588   9.595   1.548   2.762  0.9962 -0.4707 -1.5172
59116SOL    HW284589   9.704   1.471   2.833 -1.6172 -1.1054  2.0904
59117SOL     OW84590  11.272  12.072   5.412 -0.0171 -0.3900 -0.0403
59117SOL    HW184591  11.238  12.130   5.344  2.2488  1.2083  0.1025
59117SOL    HW284592  11.193  12.042   5.458 -1.5537 -0.8884 -2.7716
59118SOL     OW84593   9.658  12.054  12.597  0.1278 -0.0378 -0.0561
59118SOL    HW184594   9.687  11.994  12.666  1.5979 -0.8837 -1.3431
59118SOL    HW284595   9.697  12.138  12.619 -0.2678 -0.0314  0.6677
59119SOL     OW84596   6.335   1.556   2.839 -0.0669 -0.0446  0.6459
59119SOL    HW184597   6.393   1.532   2.911 -0.2683  1.5251  1.3674
59119SOL    HW284598   6.363   1.644   2.813 -0.0291 -0.5526 -1.1891
59120SOL     OW84599   2.915   7.741   1.232 -0.1233  0.1835  0.5192
59120SOL    HW184600   2.984   7.807   1.225 -0.5582  0.8635  2.2318
59120SOL    HW284601   2.857   7.774   1.300 -2.0046 -0.5224 -0.6530
59121SOL     OW84602   5.871   5.411   9.363 -0.2159  0.0940  0.4281
59121SOL    HW184603   5.853   5.376   9.276 -0.4727  1.3685 -0.0662
59121SOL    HW284604   5.816   5.360   9.422  0.1020 -0.9093 -0.1245
59122SOL     OW84605  10.464   8.083   6.049 -0.3557 -0.0644  0.0696
59122SOL    HW184606  10.425   8.170   6.040 -0.7761 -0.1754  0.7655
59122SOL    HW284607  10.448   8.058   6.140 -0.6098 -1.0430 -0.2301
59123SOL     OW84608  12.559   1.955   6.491  0.4533  0.0549 -0.2023
59123SOL    HW184609  12.510   1.947   6.409  1.0512  1.0037 -0.6642
59123SOL    HW284610  12.491   1.971   6.557  0.0200 -0.1116 -0.6006
59124SOL     OW84611   8.921   8.027   8.027 -0.0828  1.0735  0.1770
59124SOL    HW184612   8.978   7.957   8.061  0.7051  0.9794 -1.2531
59124SOL    HW284613   8.842   7.982   7.999 -1.0067  1.2270  2.3449
59125SOL     OW84614   8.259   9.675   3.333 -0.2071  0.1572  0.2144
59125SOL    HW184615   8.305   9.756   3.310 -0.5996  0.1532 -0.6169
59125SOL    HW284616   8.304   9.643   3.411  0.3049  0.8875  0.2241
59126SOL     OW84617  11.570  12.186   6.196 -0.4985  0.3138  0.1772
59126SOL    HW184618  11.620  12.224   6.124 -1.4928  0.6127 -0.3698
59126SOL    HW284619  11.481  12.219   6.184 -1.4704 -2.3506 -0.4573
59127SOL     OW84620   5.090   6.635   2.014 -0.0073  0.8954 -0.1586
59127SOL    HW184621   5.062   6.571   2.079  0.7820  1.0959  0.3997
59127SOL    HW284622   5.009   6.679   1.987 -0.3745  0.6531  0.5206
59128SOL     OW84623   5.496   3.482   2.708  0.0479  0.2315 -0.2269
59128SOL    HW184624   5.413   3.454   2.669  0.2604 -0.9215  0.1229
59128SOL    HW284625   5.545   3.521   2.635  0.1258 -1.1956 -0.9698
59129SOL     OW84626   1.023  10.408   1.424  0.3028  0.0070  0.2629
59129SOL    HW184627   1.037  10.492   1.379  0.1248 -0.9903 -1.7656
59129SOL    HW284628   0.927  10.401   1.430  0.3193 -0.0389  0.4571
59130SOL     OW84629   0.132   6.965   8.345  0.3436 -0.3869  0.6745
59130SOL    HW184630   0.062   6.915   8.303 -2.0876  0.9583  2.7777
59130SOL    HW284631   0.088   7.044   8.378  3.2119  1.2996  0.8175
59131SOL     OW84632  10.920   7.149   9.735  0.2033  0.0281 -0.2351
59131SOL    HW184633  10.827   7.169   9.731  0.2640  0.3727  0.0699
59131SOL    HW284634  10.955   7.209   9.800  0.6389 -0.1050 -0.3425
59132SOL     OW84635  12.377   6.224   8.086 -0.4806 -0.1671  0.0361
59132SOL    HW184636  12.367   6.139   8.045 -0.2775 -0.1841  0.0182
59132SOL    HW284637  12.439   6.209   8.157 -1.9293 -0.4468  1.2853
59133SOL     OW84638   9.702   1.123   0.206  0.2985 -0.4060  0.1627
59133SOL    HW184639   9.705   1.204   0.257  1.9578  0.2298 -0.8690
59133SOL    HW284640   9.748   1.059   0.260  0.2703 -0.2808  0.3346
59134SOL     OW84641   7.535   0.276  12.554  0.2653  0.1928  0.5328
59134SOL    HW184642   7.495   0.323  12.627 -1.5465  1.5790 -1.2266
59134SOL    HW284643   7.527   0.184  12.578  0.2500  0.6207  2.3090
59135SOL     OW84644   8.271   6.483   9.719  0.1068 -0.1757 -0.3653
59135SOL    HW184645   8.189   6.483   9.670  0.3353 -1.5272 -0.7964
59135SOL    HW284646   8.257   6.418   9.788 -0.4610  2.1569  1.8731
59136SOL     OW84647   3.451   1.633  11.713  0.3226 -0.1458  0.6087
59136SOL    HW184648   3.386   1.591  11.657 -1.1080 -0.3179  2.3267
59136SOL    HW284649   3.528   1.642  11.657 -0.8424 -0.8328 -1.1906
59137SOL     OW84650   1.676   5.770  11.773  0.1413 -0.3757  0.1023
59137SOL    HW184651   1.589   5.772  11.813 -0.4339 -0.9470 -1.0634
59137SOL    HW284652   1.735   5.753  11.846 -0.5564  1.3204  1.1332
59138SOL     OW84653   6.275   2.451  10.875 -0.1079 -0.2274 -0.2989
59138SOL    HW184654   6.341   2.390  10.843  0.8659  0.1582  0.9033
59138SOL    HW284655   6.314   2.538  10.865  0.1348 -0.0748  1.6053
59139SOL     OW84656   6.095   3.985   1.704 -0.0443 -0.1151 -0.2728
59139SOL    HW184657   6.162   3.922   1.679  0.6452  0.1574  0.8382
59139SOL    HW284658   6.137   4.070   1.694 -0.4699  0.0971 -0.2770
59140SOL     OW84659   8.597   5.248  11.770 -0.3991  0.2537 -0.5120
59140SOL    HW184660   8.547   5.258  11.689  0.0120 -0.3125 -0.8459
59140SOL    HW284661   8.575   5.325  11.823 -1.7707 -0.0859 -0.5680
59141SOL     OW84662   8.824   4.143   5.969 -0.5471  0.3892  0.3512
59141SOL    HW184663   8.830   4.184   6.056  0.2827  1.0835 -0.0158
59141SOL    HW284664   8.892   4.187   5.918 -0.1198 -0.9495 -0.2703
59142SOL     OW84665   4.853   7.582   6.920  0.3835  0.0605  0.3904
59142SOL    HW184666   4.855   7.605   7.013 -0.1538  0.9579  0.1948
59142SOL    HW284667   4.895   7.656   6.876  0.5235 -0.3000 -0.0901
59143SOL     OW84668   1.227   8.005   7.913 -0.1680  0.9704 -0.7173
59143SOL    HW184669   1.150   7.947   7.912 -0.2278  1.0183  0.2002
59143SOL    HW284670   1.293   7.957   7.863 -1.0475  1.2958 -2.2337
59144SOL     OW84671  11.283   6.329  11.797  0.8788 -0.5107 -0.4177
59144SOL    HW184672  11.310   6.359  11.883  1.1847 -0.3996 -0.5517
59144SOL    HW284673  11.358   6.281  11.763  0.7803 -0.5044 -0.6473
59145SOL     OW84674   9.783   3.545   6.885 -0.4101 -0.2234  0.1475
59145SOL    HW184675   9.786   3.597   6.965 -1.8264 -0.9073  0.6878
59145SOL    HW284676   9.689   3.527   6.872 -0.0402 -1.8370 -0.5160
59146SOL     OW84677  11.381   8.359   6.505  0.3039  0.3994 -0.1341
59146SOL    HW184678  11.422   8.273   6.495  0.2878  0.2613  0.8287
59146SOL    HW284679  11.455   8.419   6.519  0.3063  0.5183 -0.6585
59147SOL     OW84680   8.595   9.468   9.095  0.4121  0.3615  0.1480
59147SOL    HW184681   8.538   9.431   9.027  1.6144 -0.5747 -0.3778
59147SOL    HW284682   8.582   9.562   9.088 -0.9459  0.1819 -0.0668
59148SOL     OW84683  12.222   6.026   8.753  1.0442  0.1281 -0.4977
59148SOL    HW184684  12.270   6.029   8.836  2.1097 -1.2857 -1.0074
59148SOL    HW284685  12.281   5.979   8.694 -1.0005 -1.8008 -1.1421
59149SOL     OW84686   1.508   4.956   4.858  0.3407  0.0531  0.5796
59149SOL    HW184687   1.548   4.871   4.877  0.0430  0.2002  1.9802
59149SOL    HW284688   1.475   4.947   4.768  0.2462 -1.3387  0.7251
59150SOL     OW84689   9.381  10.759  11.756  0.0441 -0.0023 -0.0972
59150SOL    HW184690   9.355  10.673  11.721  1.1366 -0.0883 -0.7523
59150SOL    HW284691   9.476  10.762  11.742 -0.1125  1.6995 -0.9333
59151SOL     OW84692   2.219   2.100   1.731  0.2890 -0.1768  0.3252
59151SOL    HW184693   2.199   2.164   1.662 -1.0295  0.6405  1.4086
59151SOL    HW284694   2.293   2.138   1.778 -0.7309  0.7993  1.2050
59152SOL     OW84695   1.983   0.068  10.759  0.2581  0.2930  0.0440
59152SOL    HW184696   2.023  -0.005  10.806 -0.0751 -0.0663 -0.2226
59152SOL    HW284697   1.895   0.037  10.737  0.1219  0.7682 -0.0903
59153SOL     OW84698   4.576   1.371  12.576  0.4998  0.2619  0.5330
59153SOL    HW184699   4.593   1.436  12.645 -0.7943  1.2815 -0.0639
59153SOL    HW284700   4.637   1.395  12.506  1.6582 -0.6356  1.2097
59154SOL     OW84701   0.627   8.519   0.019  0.0086  0.0918  0.6269
59154SOL    HW184702   0.707   8.504   0.068 -0.0381 -1.2680  0.3089
59154SOL    HW284703   0.622   8.447  -0.043 -1.5612  0.0346  0.7733
59155SOL     OW84704   3.473   2.442   0.955 -0.7726 -0.3356  0.4361
59155SOL    HW184705   3.420   2.500   1.010  0.7642 -0.4444  2.1220
59155SOL    HW284706   3.458   2.355   0.990  0.0578 -0.4387  0.5543
59156SOL     OW84707   3.334   8.307   7.415 -0.1892  0.3975 -0.3221
59156SOL    HW184708   3.387   8.339   7.343  0.4002 -0.6562 -0.3866
59156SOL    HW284709   3.285   8.233   7.379 -2.0286  1.5835 -0.3618
59157SOL     OW84710   8.493   2.002   7.040 -0.3111  0.8462 -0.0642
59157SOL    HW184711   8.483   1.909   7.021  2.1806  0.4202  0.4460
59157SOL    HW284712   8.412   2.025   7.085 -0.2257 -1.5617  1.5241
59158SOL     OW84713   5.626   0.173   4.284  0.1360 -0.0526  0.1455
59158SOL    HW184714   5.531   0.162   4.292 -0.1195  0.9510 -1.0272
59158SOL    HW284715   5.651   0.116   4.211  0.3070  0.1772  0.0203
59159SOL     OW84716   2.725   6.594  12.469  0.2057  0.4280  0.4944
59159SOL    HW184717   2.668   6.529  12.428  3.6984 -2.0700 -0.9120
59159SOL    HW284718   2.719   6.576  12.562 -0.5745 -0.4308  0.2899
59160SOL     OW84719   7.525   5.580   7.832  0.1069  0.2693  0.0425
59160SOL    HW184720   7.444   5.581   7.781 -0.0425 -1.1728  0.2087
59160SOL    HW284721   7.593   5.556   7.768  0.2854  0.7026  0.0658
59161SOL     OW84722   2.439   7.732   7.394  0.2520  0.2556  0.1094
59161SOL    HW184723   2.456   7.648   7.352  0.3708  0.4723 -0.2807
59161SOL    HW284724   2.435   7.794   7.322 -1.1080  0.3879  0.2827
59162SOL     OW84725   3.479   6.588   0.093  0.3958 -0.0945  0.6370
59162SOL    HW184726   3.574   6.601   0.093  0.7456 -1.1694 -3.4708
59162SOL    HW284727   3.468   6.493   0.089 -0.9569 -0.0278  1.7755
59163SOL     OW84728   8.110  11.319  11.790 -0.3581 -0.1245  0.4955
59163SOL    HW184729   8.160  11.238  11.805  0.1132 -0.0467 -0.5840
59163SOL    HW284730   8.042  11.317  11.858  0.9429 -0.3447  1.8695
59164SOL     OW84731   9.989   2.704   1.992  0.7898 -0.0144 -0.1462
59164SOL    HW184732  10.076   2.709   2.032  0.7557  1.1134 -0.1907
59164SOL    HW284733  10.004   2.725   1.900  0.3490  1.1448  0.0344
59165SOL     OW84734   3.321  12.653   9.785  0.1187  0.0038  0.2336
59165SOL    HW184735   3.321  12.693   9.698 -0.7666 -1.3005 -0.3891
59165SOL    HW284736   3.369  12.716   9.840 -0.7573  1.6568 -0.8026
59166SOL     OW84737   5.375  12.048   0.006 -0.2223 -0.2437 -0.2011
59166SOL    HW184738   5.409  12.041  -0.083 -1.7136 -2.0716 -0.7001
59166SOL    HW284739   5.378  11.958   0.040 -1.5259  0.0742  0.8477
59167SOL     OW84740   7.218   3.344   9.721  0.3150  0.3188  0.1507
59167SOL    HW184741   7.226   3.399   9.644  1.4777 -1.9649 -1.4612
59167SOL    HW284742   7.308   3.336   9.754 -0.0959  0.8349  1.4633
59168SOL     OW84743   0.904   8.126  11.191  0.7842  0.2204 -0.4642
59168SOL    HW184744   0.998   8.128  11.205  0.9577  1.6237 -1.5778
59168SOL    HW284745   0.876   8.217  11.203 -0.1904  0.0845 -1.5096
59169SOL     OW84746   3.653  12.662   3.380 -0.1222 -0.9758  0.3766
59169SOL    HW184747   3.687  12.752   3.373 -0.0720 -1.0109  0.1507
59169SOL    HW284748   3.730  12.606   3.373  0.1272 -0.9937  2.7057
59170SOL     OW84749   7.811   2.985   2.803 -0.1826 -0.2316  0.2359
59170SOL    HW184750   7.876   2.958   2.738  0.6885  1.0174  0.5472
59170SOL    HW284751   7.752   3.044   2.756  0.3231  0.5059  0.5147
59171SOL     OW84752   8.076  10.416   8.480  0.1664 -0.3315  0.7437
59171SOL    HW184753   8.128  10.485   8.437  0.1641 -0.8143 -0.0635
59171SOL    HW284754   8.028  10.462   8.549 -2.2993  1.1690 -1.7168
59172SOL     OW84755   1.164   8.837  10.964 -0.1118  0.0876  0.1046
59172SOL    HW184756   1.212   8.883  10.895  1.2031  0.6100  1.3203
59172SOL    HW284757   1.231   8.811  11.027 -1.1165 -1.5106  0.5817
59173SOL     OW84758   2.839   2.098   6.032 -0.0733  0.2809 -0.2588
59173SOL    HW184759   2.751   2.130   6.010 -0.3549  0.5673  1.1644
59173SOL    HW284760   2.862   2.146   6.111  1.2976  0.0473 -0.4977
59174SOL     OW84761   1.074   9.984   3.496  0.4631 -0.1027 -0.5426
59174SOL    HW184762   1.012   9.921   3.459  1.3904 -0.3412 -1.7802
59174SOL    HW284763   1.044   9.999   3.585 -0.0087 -2.0168 -0.3397
59175SOL     OW84764   3.684  11.030   5.470 -0.3072  0.3626  0.2086
59175SOL    HW184765   3.588  11.025   5.464 -0.3772  1.8387 -0.2403
59175SOL    HW284766   3.700  11.065   5.558 -0.1872  0.5604  0.1051
59176SOL     OW84767   3.014   9.122   3.074  0.0053 -0.0199  0.1956
59176SOL    HW184768   2.922   9.109   3.096  0.2321 -0.0568  1.1634
59176SOL    HW284769   3.019   9.211   3.039 -0.3254  0.1446  0.5634
59177SOL     OW84770   4.702  12.051   6.919 -0.2864  0.2989 -0.0462
59177SOL    HW184771   4.631  12.111   6.940 -0.8901 -0.3145 -0.3114
59177SOL    HW284772   4.758  12.101   6.859 -0.0995  1.0296  0.7054
59178SOL     OW84773   9.741   4.125   3.923 -0.4392  0.2177  0.9653
59178SOL    HW184774   9.766   4.150   4.012 -0.1363  0.5187  0.7944
59178SOL    HW284775   9.814   4.073   3.892 -0.6765 -0.1417  0.9957
59179SOL     OW84776  11.553   9.091   1.191 -0.2184 -0.1340  0.0025
59179SOL    HW184777  11.457   9.091   1.188 -0.2788 -2.2469  0.3800
59179SOL    HW284778  11.579   9.144   1.116 -1.7096 -1.2902 -1.4211
59180SOL     OW84779   5.116   5.255   1.598  0.0648  0.0359 -0.3038
59180SOL    HW184780   5.027   5.269   1.631 -0.2890 -2.0073 -0.2491
59180SOL    HW284781   5.114   5.290   1.510 -1.7286 -2.4734 -1.3929
59181SOL     OW84782   7.377   1.249   8.338 -0.3486  0.2669  0.4784
59181SOL    HW184783   7.419   1.298   8.267 -1.6903  1.9181  0.7564
59181SOL    HW284784   7.382   1.307   8.414 -1.5238 -0.2365  0.9611
59182SOL     OW84785   7.340   9.834  10.494 -0.3917 -0.7587 -0.3147
59182SOL    HW184786   7.433   9.828  10.473 -0.1775 -0.0998  0.3721
59182SOL    HW284787   7.304   9.895  10.430  0.0509  0.4682  0.5670
59183SOL     OW84788   6.702  10.302   1.404  0.5339  0.3727 -0.1715
59183SOL    HW184789   6.779  10.271   1.355  0.5690  0.0703  0.0666
59183SOL    HW284790   6.736  10.324   1.490  0.5843  1.5053 -0.4652
59184SOL     OW84791  10.244   8.307  11.350 -0.1443 -0.2609 -0.5377
59184SOL    HW184792  10.289   8.388  11.374 -0.2690 -0.8424  1.9157
59184SOL    HW284793  10.185   8.333  11.280  0.3773  1.6175 -0.3427
59185SOL     OW84794   8.567   5.980   5.383 -0.2609 -0.7119 -0.2405
59185SOL    HW184795   8.523   6.050   5.431 -0.9702 -1.1053 -0.3020
59185SOL    HW284796   8.538   5.991   5.292 -0.3334 -1.0517 -0.2605
59186SOL     OW84797  12.056   9.504  10.416 -0.0172 -0.1884 -0.0857
59186SOL    HW184798  12.046   9.424  10.468  2.1914 -1.1634 -1.0576
59186SOL    HW284799  12.121   9.556  10.463  1.3807 -0.7067 -1.3817
59187SOL     OW84800  11.964   3.669  10.720  0.6327 -0.3505  0.9197
59187SOL    HW184801  11.892   3.695  10.777  0.5172 -0.2918  0.7476
59187SOL    HW284802  11.959   3.573  10.717 -1.5810 -0.2634 -1.8166
59188SOL     OW84803   9.592  11.497   6.474  0.0326  0.0597  0.1193
59188SOL    HW184804   9.605  11.541   6.558 -0.5489 -0.9042  0.7267
59188SOL    HW284805   9.521  11.545   6.432 -0.1848  0.0739  0.5074
59189SOL     OW84806   1.015   0.343   5.386 -0.1338 -0.9346 -0.1255
59189SOL    HW184807   0.944   0.348   5.323 -0.9897  0.2933  0.8877
59189SOL    HW284808   1.067   0.268   5.358  0.8428  0.8654 -3.5872
59190SOL     OW84809   1.160   3.511   1.137 -0.1427  0.1383 -0.6279
59190SOL    HW184810   1.105   3.583   1.109 -1.4158 -0.5702 -0.0214
59190SOL    HW284811   1.101   3.435   1.141  1.1706 -0.9870 -1.3899
59191SOL     OW84812  12.574  12.052   4.013 -0.1551 -0.5475 -0.1274
59191SOL    HW184813  12.574  12.139   3.974 -0.1781 -0.5190 -0.0636
59191SOL    HW284814  12.620  12.063   4.096  0.7426 -0.8047 -0.5838
59192SOL     OW84815   1.954   1.962   7.987 -0.4008 -0.4096  0.4108
59192SOL    HW184816   1.866   1.967   8.023  0.5329  0.9650  2.8001
59192SOL    HW284817   1.943   1.934   7.897 -3.5788  3.2707 -0.5894
59193SOL     OW84818   4.822   1.534   4.701 -0.0611  0.1564 -0.9051
59193SOL    HW184819   4.788   1.615   4.663  0.0287 -0.5689 -2.5981
59193SOL    HW284820   4.866   1.563   4.781 -1.7135  1.5161 -0.4233
59194SOL     OW84821  10.719   7.728   0.656 -0.6004  0.0074  0.2143
59194SOL    HW184822  10.656   7.792   0.621 -1.2826 -0.7597 -0.0107
59194SOL    HW284823  10.693   7.645   0.615  1.2542 -0.1417 -0.7524
59195SOL     OW84824  10.949  10.352  10.461  0.1139  0.7855 -0.3898
59195SOL    HW184825  10.915  10.375  10.548 -0.5607 -0.0224 -0.4303
59195SOL    HW284826  10.911  10.267  10.442  1.0898  0.4754 -1.0415
59196SOL     OW84827   0.425  10.449   4.922  0.5793 -0.3284  0.0711
59196SOL    HW184828   0.449  10.540   4.942  1.4093 -0.3955 -0.5505
59196SOL    HW284829   0.377  10.419   4.999  2.1679 -0.0388  1.2153
59197SOL     OW84830   7.829  11.549   8.183  0.0805  0.1770  0.1287
59197SOL    HW184831   7.818  11.458   8.157 -0.2084  0.1921  0.1930
59197SOL    HW284832   7.823  11.598   8.102  1.0870  0.0761 -0.0203
59198SOL     OW84833   8.602  12.048  11.844  0.2511 -0.2930  0.6505
59198SOL    HW184834   8.587  11.962  11.805  1.2746 -0.3509  0.3655
59198SOL    HW284835   8.625  12.030  11.935 -0.3106 -0.2657  0.8017
59199SOL     OW84836   2.182  10.257   2.113 -0.1935  0.1390  0.0146
59199SOL    HW184837   2.275  10.281   2.120 -0.5789  1.7960  0.0333
59199SOL    HW284838   2.148  10.271   2.202 -0.5504  0.0124 -0.1037
59200SOL     OW84839   4.040   5.925   0.306  0.1239  0.6397  0.0291
59200SOL    HW184840   4.050   5.843   0.259  0.3254  0.5204  0.2766
59200SOL    HW284841   4.091   5.988   0.255  1.1436  0.3035  0.6011
59201SOL     OW84842   3.610   3.792   1.372 -0.7225  0.8607 -0.2102
59201SOL    HW184843   3.628   3.701   1.348 -2.0125  0.4423  0.3236
59201SOL    HW284844   3.613   3.840   1.289  0.2218  0.3993 -0.4621
59202SOL     OW84845   5.308   3.029   1.445  0.0285 -0.3637 -0.2609
59202SOL    HW184846   5.329   3.096   1.380  2.4437 -0.7661  0.0133
59202SOL    HW284847   5.328   3.070   1.529 -0.9401 -0.6043  0.1063
59203SOL     OW84848   7.811   2.153   5.011  0.0560 -0.1504  0.8078
59203SOL    HW184849   7.881   2.093   5.040  0.1713  0.1220  1.0945
59203SOL    HW284850   7.769   2.107   4.938 -0.4340 -0.9818  1.5913
59204SOL     OW84851   6.592   1.564   6.392  0.1311 -0.3799  0.4536
59204SOL    HW184852   6.544   1.628   6.446 -0.5486  0.9832 -1.6533
59204SOL    HW284853   6.545   1.482   6.405 -0.4925  0.0975  1.3210
59205SOL     OW84854   2.898   2.784   7.680  0.1749  0.2406 -0.2205
59205SOL    HW184855   2.958   2.791   7.754 -0.4340 -5.0230  1.1505
59205SOL    HW284856   2.943   2.725   7.618 -1.2911  0.7241 -1.8398
59206SOL     OW84857  11.899   8.239   5.314  0.0780 -1.0345 -0.3664
59206SOL    HW184858  11.905   8.304   5.383 -1.9938 -2.4298  1.2319
59206SOL    HW284859  11.990   8.217   5.294  0.7602  0.9662  0.3449
59207SOL     OW84860   8.841   6.650   2.035 -0.1972  0.1279  0.3846
59207SOL    HW184861   8.887   6.567   2.021  1.7011  1.5810 -3.6781
59207SOL    HW284862   8.867   6.677   2.123  2.3244 -1.7860  0.3609
59208SOL     OW84863  12.630   8.414   9.859  0.5081 -0.2584 -0.7445
59208SOL    HW184864  12.699   8.430   9.924 -0.4357 -0.3728  0.3084
59208SOL    HW284865  12.610   8.501   9.824 -0.5706  0.1623  0.8019
59209SOL     OW84866   5.479   2.049   9.982  0.1437  0.2095 -0.0165
59209SOL    HW184867   5.438   2.013  10.060  0.6100 -2.0346 -0.7378
59209SOL    HW284868   5.407   2.085   9.931 -0.4544 -0.3998  0.3915
59210SOL     OW84869   8.890   0.981   8.645 -0.0220  0.0718  0.2532
59210SOL    HW184870   8.965   1.034   8.619  0.1097 -0.6856 -1.0039
59210SOL    HW284871   8.927   0.895   8.667 -0.4946 -0.2440 -0.1599
59211SOL     OW84872  10.097   1.884   8.144 -0.5377 -0.1976 -0.2675
59211SOL    HW184873  10.092   1.902   8.238  0.5425 -1.7520  0.1229
59211SOL    HW284874  10.008   1.898   8.112 -1.0708 -0.3108  1.1191
59212SOL     OW84875  10.058   6.896   4.629  0.3427 -0.3594  0.1659
59212SOL    HW184876  10.031   6.812   4.593  1.7174 -1.3153  1.2425
59212SOL    HW284877  10.064   6.954   4.553  0.2593 -1.4828 -0.7250
59213SOL     OW84878   6.112   5.573   3.727 -0.4161  0.2553 -0.2714
59213SOL    HW184879   6.175   5.639   3.753 -0.1169 -1.3003  3.5590
59213SOL    HW284880   6.026   5.612   3.746 -0.2319 -0.4264  2.2500
59214SOL     OW84881  11.110   5.868  10.768 -0.4458 -0.5064  0.0253
59214SOL    HW184882  11.078   5.867  10.858  0.8575 -1.7512  0.5069
59214SOL    HW284883  11.193   5.821  10.771  0.0421  0.1676 -1.6875
59215SOL     OW84884   7.470   5.670   2.075  0.8447 -0.4471  0.0158
59215SOL    HW184885   7.487   5.764   2.077  1.2033 -0.5209  0.7117
59215SOL    HW284886   7.432   5.655   1.989  0.0457  0.4578  0.1857
59216SOL     OW84887  10.419   4.473   8.479 -0.0929  0.1460  0.6677
59216SOL    HW184888  10.331   4.437   8.493 -0.7878  0.6119 -1.9405
59216SOL    HW284889  10.470   4.400   8.445 -0.6291  0.7453 -1.5887
59217SOL     OW84890  11.814   3.359   2.823 -0.0539  0.2996  0.0579
59217SOL    HW184891  11.857   3.329   2.903 -1.3441  1.2147  1.1201
59217SOL    HW284892  11.878   3.417   2.782  1.4720 -1.7914 -0.7463
59218SOL     OW84893  10.026  10.447   4.529 -0.1463  0.1588 -0.1355
59218SOL    HW184894  10.108  10.397   4.527  0.0630  0.5008 -0.4083
59218SOL    HW284895  10.055  10.538   4.525 -0.5677  0.2596 -1.2061
59219SOL     OW84896  10.076  11.046   9.647 -0.0604 -0.1823  0.3646
59219SOL    HW184897  10.157  11.080   9.685  0.5016  0.4388 -1.2928
59219SOL    HW284898  10.071  10.956   9.678  1.6684 -0.4609 -0.0840
59220SOL     OW84899   9.079   3.303   1.470  0.6921 -0.0380  0.1731
59220SOL    HW184900   9.095   3.277   1.379  3.4444 -1.4157  0.9222
59220SOL    HW284901   9.037   3.226   1.510  2.4518 -0.7377  0.7648
59221SOL     OW84902   5.928   9.851   1.717 -0.6524  0.4167 -0.2229
59221SOL    HW184903   5.846   9.840   1.764 -1.3112  0.0284 -1.4388
59221SOL    HW284904   5.983   9.778   1.748 -0.4032  1.1874  1.2597
59222SOL     OW84905   0.125   7.695   6.189  0.5226  0.1385 -0.2022
59222SOL    HW184906   0.086   7.753   6.124  2.0347  1.7405  0.2249
59222SOL    HW284907   0.218   7.692   6.165  0.7822 -0.6788  0.8320
59223SOL     OW84908  11.309   6.302  12.369 -0.1041  0.0875 -0.2917
59223SOL    HW184909  11.327   6.266  12.282 -0.4860 -1.2727  0.1633
59223SOL    HW284910  11.318   6.227  12.428  0.8333  1.1332  0.9448
59224SOL     OW84911   8.513  11.143  12.380  0.3989  0.2419 -0.1255
59224SOL    HW184912   8.503  11.068  12.323 -0.3031 -0.5747  1.0275
59224SOL    HW284913   8.559  11.208  12.327 -0.9103 -0.1834 -1.8563
59225SOL     OW84914  10.643   3.229   1.355 -0.7174 -0.2274 -0.1328
59225SOL    HW184915  10.726   3.213   1.310 -0.5101  1.7418 -0.5444
59225SOL    HW284916  10.586   3.157   1.326 -0.0893  0.0585 -2.3090
59226SOL     OW84917   2.052   1.996   8.461  0.3076  0.3935  0.7554
59226SOL    HW184918   2.011   2.014   8.545  0.6633  1.0934  0.7902
59226SOL    HW284919   2.091   1.909   8.471  0.9700  0.7720  1.5596
59227SOL     OW84920   0.986   1.552  10.816 -0.8767  0.0796 -0.0273
59227SOL    HW184921   1.004   1.475  10.869 -0.1924 -0.1795 -0.6310
59227SOL    HW284922   0.908   1.528  10.765  0.6707 -1.1334 -1.9518
59228SOL     OW84923   7.507  10.270  10.780  0.1125  0.2510  0.6419
59228SOL    HW184924   7.510  10.241  10.689 -2.2495  1.3541  0.1499
59228SOL    HW284925   7.598  10.292  10.801  0.7607 -0.3053 -1.3262
59229SOL     OW84926  11.188  10.300   5.410 -0.0076  0.6413  0.0910
59229SOL    HW184927  11.118  10.285   5.346 -0.2874  1.8615  0.0848
59229SOL    HW284928  11.167  10.385   5.450  0.5873  0.2642  1.2554
59230SOL     OW84929  11.836   9.289  12.519 -0.2965  0.1079  0.7269
59230SOL    HW184930  11.883   9.343  12.456 -2.4131  0.6658 -0.4627
59230SOL    HW284931  11.899   9.223  12.546  1.2660  1.0530 -0.4695
59231SOL     OW84932   1.715   0.975   3.301 -0.0139  0.0990 -0.1849
59231SOL    HW184933   1.654   1.048   3.316 -1.2551 -1.1001  0.8657
59231SOL    HW284934   1.751   0.992   3.214 -0.6833  1.6706 -0.2002
59232SOL     OW84935   4.828  11.526   5.191 -1.1089 -0.4784 -0.5532
59232SOL    HW184936   4.762  11.466   5.225 -1.1131 -0.1872 -0.0391
59232SOL    HW284937   4.875  11.556   5.268 -3.1590  2.6996 -0.3642
59233SOL     OW84938   4.050  11.226   0.493  0.1292 -0.6498 -0.2749
59233SOL    HW184939   4.091  11.218   0.579  1.3824  0.6589 -0.7038
59233SOL    HW284940   3.998  11.306   0.499  0.1378 -0.6101 -0.6888
59234SOL     OW84941  11.707   1.679   2.715 -0.2565  0.6094  0.1828
59234SOL    HW184942  11.639   1.734   2.677  0.0069  0.2407 -0.8572
59234SOL    HW284943  11.767   1.741   2.757 -0.7514  0.9971  0.3264
59235SOL     OW84944   6.588   8.618   3.444  0.4524 -0.4609 -0.2360
59235SOL    HW184945   6.517   8.571   3.487 -0.1094  1.2436  0.7765
59235SOL    HW284946   6.549   8.700   3.414  2.1150  0.8710  1.0242
59236SOL     OW84947   7.275   4.627  12.600 -0.2642  0.2179 -0.0651
59236SOL    HW184948   7.200   4.569  12.585 -1.7437  2.3698 -1.4357
59236SOL    HW284949   7.240   4.699  12.653  1.7581 -0.4546  2.4280
59237SOL     OW84950   7.068   8.503   7.118 -0.5209 -0.0147  0.3739
59237SOL    HW184951   7.101   8.582   7.075 -1.7109 -0.2472 -1.0642
59237SOL    HW284952   7.145   8.462   7.156  0.2779  1.2626  0.1964
59238SOL     OW84953   4.086   3.763   3.684  0.5922 -0.1586 -0.0202
59238SOL    HW184954   4.040   3.828   3.737 -2.1884 -1.6232 -0.4548
59238SOL    HW284955   4.032   3.755   3.605  1.7857 -1.7576 -0.7261
59239SOL     OW84956  10.723   8.631  11.273  0.9049 -0.1062  0.0098
59239SOL    HW184957  10.803   8.580  11.268  1.0628  0.0509  0.7058
59239SOL    HW284958  10.691   8.636  11.183  1.7678 -0.0194 -0.2992
59240SOL     OW84959   9.689  12.291   1.838  0.0192  0.0399 -0.3827
59240SOL    HW184960   9.630  12.366   1.829  0.1864  0.4125  1.3824
59240SOL    HW284961   9.636  12.222   1.876 -0.0110 -0.6263 -1.5688
59241SOL     OW84962   5.889   0.349   6.091  0.0004 -0.2545  0.3148
59241SOL    HW184963   5.973   0.389   6.114  0.8404 -1.7640 -0.0077
59241SOL    HW284964   5.847   0.412   6.033  1.1149  0.3204  0.1092
59242SOL     OW84965   7.440   0.108   7.602 -0.5402  0.8930 -0.0957
59242SOL    HW184966   7.495   0.184   7.622 -0.5128  0.7084  0.5410
59242SOL    HW284967   7.462   0.044   7.670 -2.0422  1.0656  0.5820
59243SOL     OW84968   7.642   9.053   3.195 -0.0470  0.4813  0.3268
59243SOL    HW184969   7.549   9.031   3.208 -0.0924  0.8675  0.6747
59243SOL    HW284970   7.659   9.123   3.258  0.5805  0.1650  0.5176
59244SOL     OW84971   1.448   8.238   5.858  0.4124 -0.6476  0.5417
59244SOL    HW184972   1.468   8.295   5.784  1.1803 -0.6165  0.7684
59244SOL    HW284973   1.450   8.149   5.823  1.5887 -0.6931  0.6805
59245SOL     OW84974  10.556  12.072  11.792 -0.2401  0.2136 -0.4067
59245SOL    HW184975  10.501  12.133  11.842  0.0395  0.6267 -0.5988
59245SOL    HW284976  10.645  12.094  11.819 -0.2084 -1.3223  0.9062
59246SOL     OW84977   3.978   3.055  11.118  0.2917 -0.1885  0.1570
59246SOL    HW184978   3.958   3.139  11.077  0.3874 -0.1076  0.2759
59246SOL    HW284979   4.073   3.051  11.122  0.3377 -0.8787 -1.0296
59247SOL     OW84980   3.509   7.794   3.167  0.3405 -0.1184 -0.0328
59247SOL    HW184981   3.454   7.854   3.216  0.3982  0.9410 -1.1984
59247SOL    HW284982   3.449   7.731   3.128 -0.2617  1.6229 -2.1326
59248SOL     OW84983   9.634   2.301  10.803 -0.0459  0.1080  0.3838
59248SOL    HW184984   9.628   2.368  10.735  1.7744  1.7471  1.7017
59248SOL    HW284985   9.727   2.279  10.806 -0.4860 -1.9049  0.5748
59249SOL     OW84986  10.216  11.532   7.935 -0.2843  0.0697  0.0764
59249SOL    HW184987  10.146  11.491   7.986 -0.5267 -0.5414 -0.7265
59249SOL    HW284988  10.290  11.535   7.995 -0.5049 -0.8224  0.4171
59250SOL     OW84989  12.219   0.536   2.273 -0.6051 -0.0112 -0.3256
59250SOL    HW184990  12.142   0.541   2.329  0.5463  0.9504  1.2852
59250SOL    HW284991  12.233   0.626   2.244  0.5266  0.0315  0.3094
59251SOL     OW84992   3.673  11.717   4.468  0.3349  0.1549 -0.6905
59251SOL    HW184993   3.582  11.721   4.439  0.2550  3.0434 -0.2482
59251SOL    HW284994   3.721  11.768   4.402  1.2625  0.6169  0.3202
59252SOL     OW84995   2.766  12.229  11.930  0.3809 -0.5875 -0.1476
59252SOL    HW184996   2.797  12.199  11.844 -0.0343 -1.2692 -0.0680
59252SOL    HW284997   2.823  12.303  11.951  2.4037 -2.1366  0.2452
59253SOL     OW84998   4.301   8.186   1.924  0.1972  0.2273  0.5680
59253SOL    HW184999   4.388   8.159   1.893 -0.2102 -1.0525  0.5101
59253SOL    HW285000   4.274   8.254   1.862  0.4406 -0.5626 -0.4205
59254SOL     OW85001   3.308   3.404   4.364  0.1013 -0.4059  0.0819
59254SOL    HW185002   3.360   3.450   4.298  0.9302 -0.3052  0.7859
59254SOL    HW285003   3.321   3.311   4.346 -0.4114 -0.3798 -0.4501
59255SOL     OW85004   5.686   8.734   3.338 -0.0609  0.2221 -0.0599
59255SOL    HW185005   5.662   8.819   3.299  1.1972  0.5745 -0.1155
59255SOL    HW285006   5.761   8.705   3.287  0.9577  0.1747  1.4221
59256SOL     OW85007   1.107   9.574   3.935 -0.6226 -0.0672  0.1913
59256SOL    HW185008   1.148   9.555   3.851  0.7923  1.1093  0.5598
59256SOL    HW285009   1.014   9.558   3.921 -0.4574  0.3898 -1.6970
59257SOL     OW85010   8.860   1.550   4.654  0.3301  0.1851  0.1198
59257SOL    HW185011   8.919   1.489   4.608  0.1651 -0.3634  0.6274
59257SOL    HW285012   8.773   1.511   4.643  0.1959  0.4464  0.2660
59258SOL     OW85013   0.112   8.168  12.005 -0.4006  0.4199  0.6159
59258SOL    HW185014   0.019   8.185  12.020 -0.7466 -0.6940 -0.1007
59258SOL    HW285015   0.113   8.113  11.926  0.9673  1.7125 -0.3179
59259SOL     OW85016   6.597   7.507  11.387 -0.2128 -0.5409 -0.4982
59259SOL    HW185017   6.655   7.552  11.325 -0.9602  0.8604 -0.2207
59259SOL    HW285018   6.650   7.494  11.465  0.2228 -0.7808 -0.8309
59260SOL     OW85019   1.356   3.695  10.324  0.1967  0.1421  0.1809
59260SOL    HW185020   1.323   3.711  10.235  0.2464 -1.6219 -0.1867
59260SOL    HW285021   1.451   3.689  10.314  0.1079 -1.4880  0.0760
59261SOL     OW85022   4.602   6.976   1.358  0.3301 -0.6870  0.1619
59261SOL    HW185023   4.543   6.902   1.351 -2.1213  1.0975  0.5998
59261SOL    HW285024   4.636   6.989   1.269 -3.0088  0.4951 -1.0945
59262SOL     OW85025   7.726   7.104  12.536  0.0616 -0.2459  0.3862
59262SOL    HW185026   7.676   7.023  12.551  0.1384 -0.2028  0.9010
59262SOL    HW285027   7.810   7.075  12.501 -0.2418 -0.3318 -0.2942
59263SOL     OW85028   9.952   1.435   7.191 -0.5935  0.0776 -0.3967
59263SOL    HW185029   9.983   1.350   7.222 -1.2523  0.2542  0.7828
59263SOL    HW285030  10.025   1.495   7.210 -0.7454  0.0664  0.2465
59264SOL     OW85031   5.049  10.238   0.662 -0.0686  0.2361 -0.7687
59264SOL    HW185032   5.051  10.327   0.697  2.3774  0.5695 -1.5735
59264SOL    HW285033   5.081  10.183   0.733  0.0544  0.2309 -0.8284
59265SOL     OW85034   3.317   6.262   7.529 -0.2029 -0.0975  0.6094
59265SOL    HW185035   3.298   6.250   7.436  0.1948 -0.3570  0.5564
59265SOL    HW285036   3.239   6.302   7.565 -0.7601 -0.9356  0.3589
59266SOL     OW85037   2.621   8.382   4.337 -0.1023 -0.6416  0.1441
59266SOL    HW185038   2.542   8.348   4.293 -0.0340  0.3798 -0.8201
59266SOL    HW285039   2.630   8.328   4.415 -0.7750 -1.9139 -0.6249
59267SOL     OW85040  10.032   6.348  11.411 -0.5609 -0.1786  0.6688
59267SOL    HW185041  10.045   6.443  11.420  0.1819 -0.3127  1.1203
59267SOL    HW285042  10.052   6.330  11.319 -0.8259  0.1198  0.5506
59268SOL     OW85043  10.845  12.105   2.428  0.1045  0.4428 -0.1546
59268SOL    HW185044  10.755  12.072   2.425  1.0207 -2.2755 -1.4708
59268SOL    HW285045  10.866  12.128   2.337  1.7581 -2.4051 -0.6399
59269SOL     OW85046  11.117   2.630   4.136 -1.0137 -0.1144 -0.5774
59269SOL    HW185047  11.166   2.671   4.208 -0.6094  0.7593 -1.3362
59269SOL    HW285048  11.035   2.602   4.177 -0.3994 -0.4894  0.4370
59270SOL     OW85049   3.011  10.391   6.530  0.4163  0.3828  0.2320
59270SOL    HW185050   2.986  10.307   6.568  0.0775  1.0862  1.6573
59270SOL    HW285051   2.934  10.447   6.544  0.7551  1.0195 -0.3845
59271SOL     OW85052   9.605   2.426   3.410 -0.3423 -0.0072 -0.4095
59271SOL    HW185053   9.697   2.402   3.397 -0.8057 -1.6950 -0.8711
59271SOL    HW285054   9.575   2.452   3.323 -0.6910 -0.9522 -0.5771
59272SOL     OW85055   3.735   1.155  10.848  0.1077  0.2115 -0.4558
59272SOL    HW185056   3.700   1.239  10.818 -0.0580  0.5017  0.5038
59272SOL    HW285057   3.743   1.103  10.769 -2.2284  0.2209 -0.7668
59273SOL     OW85058   7.390   2.391  11.823 -0.1184  0.0329  0.3349
59273SOL    HW185059   7.406   2.443  11.902 -0.2668 -1.1548  1.1686
59273SOL    HW285060   7.297   2.371  11.825  0.1546 -1.2541  0.6562
59274SOL     OW85061  11.845   1.076   3.681  0.3311  0.9067 -0.2444
59274SOL    HW185062  11.878   1.119   3.760  3.2474  1.2016 -1.4771
59274SOL    HW285063  11.822   1.149   3.623  0.2881  0.7382 -0.4380
59275SOL     OW85064  11.162   6.462   9.228 -0.1890 -0.6527 -0.1745
59275SOL    HW185065  11.102   6.396   9.193  0.0023 -1.1898  0.4951
59275SOL    HW285066  11.245   6.415   9.237 -0.3527 -0.6759  1.4528
59276SOL     OW85067   3.788   6.243  12.278 -0.2641 -0.7682 -0.3924
59276SOL    HW185068   3.869   6.216  12.233 -0.6572  0.4686 -1.9088
59276SOL    HW285069   3.796   6.337  12.287 -1.2422 -0.7196  0.0728
59277SOL     OW85070  11.999   2.924  10.617 -0.1417 -0.0949  0.7459
59277SOL    HW185071  12.032   3.007  10.650  0.5728 -0.2288  0.3843
59277SOL    HW285072  12.027   2.922  10.526  1.3639 -1.5072  1.2093
59278SOL     OW85073   0.728   1.399  12.290 -0.1203  0.0693  0.1739
59278SOL    HW185074   0.695   1.486  12.268 -1.5606 -0.6945 -0.8707
59278SOL    HW285075   0.745   1.403  12.384  0.1484  1.5655  0.0882
59279SOL     OW85076   4.259   3.306  12.342  0.5581  0.2278  0.0262
59279SOL    HW185077   4.270   3.389  12.296  2.6701  0.3895  0.7276
59279SOL    HW285078   4.234   3.244  12.273 -2.2246  1.5720 -0.3473
59280SOL     OW85079  10.696   8.244  12.253 -0.3227  0.1974  0.1626
59280SOL    HW185080  10.759   8.314  12.274  0.8602 -0.8242  0.1570
59280SOL    HW285081  10.698   8.239  12.157  0.4184 -0.5415  0.2032
59281SOL     OW85082   1.446   4.841   7.168 -0.1248  0.4277  0.1459
59281SOL    HW185083   1.428   4.815   7.258  0.9230  0.6728  0.4435
59281SOL    HW285084   1.422   4.933   7.164  2.1218  1.1311  0.9166
59282SOL     OW85085   9.900   5.585   3.231 -0.9482  0.1115 -0.2911
59282SOL    HW185086   9.959   5.530   3.282  0.2204  0.9798 -0.6811
59282SOL    HW285087   9.870   5.528   3.159  0.2299 -0.0393 -0.6795
59283SOL     OW85088   1.406  10.601   2.387 -0.1452 -0.1900  0.2925
59283SOL    HW185089   1.491  10.638   2.411  1.2358 -0.9335 -2.9622
59283SOL    HW285090   1.391  10.532   2.452  3.1157 -1.8884 -0.5511
59284SOL     OW85091   5.619   5.914   1.937 -0.0557  0.0675  0.4916
59284SOL    HW185092   5.645   5.857   2.010 -1.6241  0.0606  1.0893
59284SOL    HW285093   5.556   5.975   1.976 -1.5493 -0.4562 -1.0180
59285SOL     OW85094  10.744   4.955   4.570  0.2411 -0.2532 -0.0602
59285SOL    HW185095  10.660   4.987   4.535 -0.0189 -0.3022  0.4939
59285SOL    HW285096  10.774   4.890   4.507 -0.4706 -0.7151  0.0673
59286SOL     OW85097  11.784   1.532   9.251  0.4960 -0.1142 -0.4684
59286SOL    HW185098  11.754   1.563   9.337  5.0032 -0.9111  1.6733
59286SOL    HW285099  11.809   1.613   9.205 -1.9145  0.3156 -1.1596
59287SOL     OW85100   8.144  10.620   2.531 -0.1563 -0.7441  0.6219
59287SOL    HW185101   8.088  10.695   2.551 -0.9659 -0.8653 -1.0070
59287SOL    HW285102   8.196  10.647   2.455 -1.0550 -2.0676 -0.5256
59288SOL     OW85103   2.793   7.014   3.749  0.0653 -0.1818  0.3192
59288SOL    HW185104   2.802   6.925   3.783 -2.2366 -0.7414 -0.3671
59288SOL    HW285105   2.721   7.009   3.686  0.1197  2.0998 -0.0315
59289SOL     OW85106  11.346   0.411  12.471  0.2888 -0.1562 -0.7595
59289SOL    HW185107  11.367   0.466  12.546 -0.5194 -0.0886 -0.5755
59289SOL    HW285108  11.389   0.454  12.397 -0.6880  0.9881 -0.6906
59290SOL     OW85109   7.928   5.577   4.578 -0.1847 -0.1620  0.2128
59290SOL    HW185110   7.997   5.582   4.512  0.5049  0.5320  0.9556
59290SOL    HW285111   7.917   5.667   4.608 -2.4059 -0.0188 -0.8415
59291SOL     OW85112  10.015   7.645   3.953 -0.1082  0.0719  0.4563
59291SOL    HW185113  10.079   7.683   3.893 -0.4203 -0.9945 -0.5964
59291SOL    HW285114   9.959   7.718   3.978  0.7902  0.7816  0.4438
59292SOL     OW85115  11.547   7.971   8.308  0.6693  0.3724  0.4648
59292SOL    HW185116  11.578   8.035   8.243  1.4160 -0.5785 -0.1441
59292SOL    HW285117  11.627   7.934   8.345  0.2704 -0.8973  0.1002
59293SOL     OW85118   4.117  11.062   6.540 -0.0487 -0.1975  0.2139
59293SOL    HW185119   4.169  11.124   6.488  1.5182 -3.3898 -2.3929
59293SOL    HW285120   4.153  11.070   6.629  2.1510  0.5533 -0.6722
59294SOL     OW85121   3.330   3.346  11.068  0.2290 -0.1575  0.2122
59294SOL    HW185122   3.342   3.377  10.979  0.1879 -1.2102 -0.1714
59294SOL    HW285123   3.408   3.374  11.115 -0.1527  1.1799  0.0810
59295SOL     OW85124   8.896  10.591   8.330  0.5917 -0.1443 -0.7503
59295SOL    HW185125   8.943  10.617   8.250  0.0519 -1.4926 -1.5600
59295SOL    HW285126   8.955  10.614   8.401  1.6038  0.0525 -1.6201
59296SOL     OW85127   4.637   5.258  11.792  0.0537 -0.0645 -0.7830
59296SOL    HW185128   4.710   5.312  11.760  0.0645  0.5835  0.2922
59296SOL    HW285129   4.602   5.217  11.713  0.5745  0.8775 -1.5303
59297SOL     OW85130   3.537   7.167   4.864  0.2010  0.3213 -0.1437
59297SOL    HW185131   3.552   7.223   4.788  1.5815 -0.2700 -0.3287
59297SOL    HW285132   3.563   7.080   4.836  1.6274  0.2479  1.2574
59298SOL     OW85133   1.661   1.832  12.586  0.0610  0.3313  0.0850
59298SOL    HW185134   1.585   1.782  12.558 -1.4236  1.5938  1.5924
59298SOL    HW285135   1.685   1.793  12.670 -1.0729  1.9700  1.2438
59299SOL     OW85136   5.289  12.679   6.761  0.4555  0.2614 -0.2166
59299SOL    HW185137   5.348  12.738   6.809  0.3930 -0.0590  0.2586
59299SOL    HW285138   5.230  12.645   6.828 -0.6977  1.0827 -0.7964
59300SOL     OW85139  10.848   6.602  12.697  0.0227  0.2289 -0.5541
59300SOL    HW185140  10.830   6.674  12.758  1.1992 -1.2659  1.6973
59300SOL    HW285141  10.899   6.643  12.627  0.1526  1.7109  0.3422
59301SOL     OW85142   0.067  11.818   0.798  0.3562  0.3509  0.4414
59301SOL    HW185143   0.162  11.822   0.801  0.3751 -0.2164  0.9373
59301SOL    HW285144   0.045  11.743   0.854 -0.4653  1.4511  1.6349
59302SOL     OW85145   1.603   3.788   7.800  0.9245 -0.0508  0.7123
59302SOL    HW185146   1.534   3.788   7.867  0.2909 -1.2550  0.1067
59302SOL    HW285147   1.620   3.880   7.782 -1.1578  0.2892  0.2611
59303SOL     OW85148   3.171   8.152   7.034  0.4049 -0.1451 -0.0637
59303SOL    HW185149   3.262   8.160   7.004  0.3695  0.8020  0.0325
59303SOL    HW285150   3.176   8.168   7.128  0.0367  0.8582 -0.1984
59304SOL     OW85151   4.289   6.059   1.490  0.2058  0.1547 -0.4085
59304SOL    HW185152   4.291   6.022   1.402 -2.0460  0.5008 -0.6600
59304SOL    HW285153   4.331   5.992   1.545 -0.9710 -1.3904 -1.3079
59305SOL     OW85154   2.951   3.989   2.933 -0.0066 -0.0489  0.4099
59305SOL    HW185155   2.905   4.073   2.931  0.5440  0.2472 -0.7393
59305SOL    HW285156   2.888   3.927   2.895  0.3578  0.2847 -0.8087
59306SOL     OW85157  11.731   5.811   3.382 -0.4910  0.2493  0.4623
59306SOL    HW185158  11.655   5.818   3.324 -1.2536 -0.7279  1.2917
59306SOL    HW285159  11.783   5.740   3.345 -1.1195 -0.5644  1.0982
59307SOL     OW85160   6.357   0.397   1.827 -0.1335  0.7105  0.2626
59307SOL    HW185161   6.299   0.470   1.847 -1.5859 -0.2448 -0.2571
59307SOL    HW285162   6.305   0.319   1.847 -1.1239 -0.3583 -5.0601
59308SOL     OW85163   1.805   2.546   1.368 -0.0159 -0.0298  0.0816
59308SOL    HW185164   1.879   2.514   1.315 -1.2333  0.3266 -1.9191
59308SOL    HW285165   1.838   2.625   1.411  1.3746 -0.9993  0.8974
59309SOL     OW85166   4.776  11.621   3.389  0.0605 -0.5307  0.1940
59309SOL    HW185167   4.714  11.550   3.377 -3.0082  1.5882  2.2114
59309SOL    HW285168   4.783  11.662   3.302 -0.9080 -1.1371 -0.1785
59310SOL     OW85169   2.599   1.640   7.186 -0.3017 -0.2395  0.4090
59310SOL    HW185170   2.683   1.634   7.232 -0.1531  1.1461  0.3495
59310SOL    HW285171   2.537   1.596   7.244  0.7464 -2.9426 -0.3808
59311SOL     OW85172   5.935   0.239   6.769 -0.1942  0.3736  0.4845
59311SOL    HW185173   5.980   0.161   6.736  1.9642  1.0127  1.6968
59311SOL    HW285174   5.876   0.206   6.836 -1.1832 -0.4361 -0.7337
59312SOL     OW85175   5.852   3.990   5.412  0.1335 -0.1677  0.1468
59312SOL    HW185176   5.878   4.081   5.395  0.7385 -0.0163  1.7482
59312SOL    HW285177   5.935   3.944   5.428 -0.3035 -0.5016  1.5863
59313SOL     OW85178  10.120   3.167   8.632  0.3403 -0.9233 -0.1268
59313SOL    HW185179  10.045   3.145   8.688  0.0067  0.8723  0.2065
59313SOL    HW285180  10.191   3.186   8.693 -0.0766  1.2330 -0.2425
59314SOL     OW85181  11.890   3.017  12.270 -0.1596 -0.2779 -0.0396
59314SOL    HW185182  11.909   2.982  12.183 -1.4617  0.1017 -0.5020
59314SOL    HW285183  11.880   3.111  12.257 -1.1096 -0.3114  0.3760
59315SOL     OW85184   8.374   5.607   6.991 -0.1274 -0.0253  0.0554
59315SOL    HW185185   8.457   5.654   6.994 -0.3818  0.4362  0.0199
59315SOL    HW285186   8.320   5.657   6.929 -0.1605 -0.7773 -0.5388
59316SOL     OW85187   9.586   3.797   8.312  0.7189  0.7719 -0.4667
59316SOL    HW185188   9.640   3.791   8.391  0.9465  1.5821 -0.5516
59316SOL    HW285189   9.529   3.872   8.328  0.0771  0.3292 -0.6614
59317SOL     OW85190   3.747   8.660   5.113  0.1673 -0.0175 -0.0010
59317SOL    HW185191   3.747   8.692   5.022  2.4114  0.1696  0.0137
59317SOL    HW285192   3.657   8.629   5.127 -0.1576 -0.3773 -2.3929
59318SOL     OW85193   2.515   6.830   6.590 -0.0290  0.1462  0.4903
59318SOL    HW185194   2.524   6.890   6.664 -1.2602 -0.3277  1.0470
59318SOL    HW285195   2.431   6.787   6.604  0.8427 -1.7764  0.1413
59319SOL     OW85196   8.446  12.669   9.187  0.3327 -0.4139  0.7798
59319SOL    HW185197   8.518  12.625   9.232 -0.3078 -1.4544  0.8165
59319SOL    HW285198   8.367  12.639   9.233 -0.1381  0.6993  0.7409
59320SOL     OW85199   8.893   3.819  11.775  0.3341 -0.5027 -0.0343
59320SOL    HW185200   8.873   3.889  11.713 -0.5547 -1.1917 -0.5543
59320SOL    HW285201   8.943   3.862  11.845 -0.4260  0.7056 -0.2008
59321SOL     OW85202   4.498  10.889   3.852  0.3235  0.5347 -0.0271
59321SOL    HW185203   4.441  10.956   3.814 -1.1598 -1.2420 -1.1683
59321SOL    HW285204   4.564  10.873   3.785 -0.2156 -0.1556 -0.4081
59322SOL     OW85205   7.077   8.383  12.567 -0.0627 -0.0376  0.6893
59322SOL    HW185206   7.155   8.337  12.598 -0.5420  0.2255  2.4319
59322SOL    HW285207   7.082   8.378  12.472  0.2181 -3.1767  0.7595
59323SOL     OW85208   3.766   6.993   7.078  0.0088 -0.2942 -0.3058
59323SOL    HW185209   3.691   6.937   7.098 -0.1519  0.3121  0.8783
59323SOL    HW285210   3.729   7.069   7.033 -0.2720  0.5420  1.2730
59324SOL     OW85211  12.088   8.026  12.016  0.7126 -0.1132 -0.0774
59324SOL    HW185212  12.155   8.081  12.057 -1.3365  2.0346  0.6166
59324SOL    HW285213  12.100   8.040  11.922  1.7708 -0.4852 -0.0157
59325SOL     OW85214   6.719   3.903   7.096  0.0420 -0.4738  0.2486
59325SOL    HW185215   6.664   3.833   7.131  0.2669 -1.1755 -0.7271
59325SOL    HW285216   6.670   3.983   7.112 -0.4026 -0.8952  1.0511
59326SOL     OW85217   9.089   4.825   4.183  0.1673  0.2297  0.4662
59326SOL    HW185218   9.013   4.768   4.171  1.4509 -1.7733  1.3730
59326SOL    HW285219   9.157   4.786   4.129  1.7790 -0.5700  2.9012
59327SOL     OW85220   1.012  11.829   0.940  0.2098  0.0677 -0.2522
59327SOL    HW185221   0.918  11.833   0.958  0.5177  1.5200  1.2804
59327SOL    HW285222   1.050  11.793   1.020  1.0937  0.8604 -0.3044
59328SOL     OW85223   2.566  10.268   5.570  0.2121 -0.6393 -0.3389
59328SOL    HW185224   2.503  10.338   5.556 -0.3919 -1.1174 -0.0693
59328SOL    HW285225   2.545  10.203   5.503  0.3488 -0.8396 -0.1907
59329SOL     OW85226   1.215  12.099   8.781  0.0345 -0.0813  0.1524
59329SOL    HW185227   1.266  12.028   8.821  1.3807  0.7287 -0.0519
59329SOL    HW285228   1.203  12.161   8.852 -0.6457 -0.2473  0.1838
59330SOL     OW85229   0.615   1.409   7.937 -0.6195  0.7923 -0.4208
59330SOL    HW185230   0.524   1.418   7.965 -0.0425  0.1761  1.8544
59330SOL    HW285231   0.616   1.329   7.884 -1.5177  1.2513 -1.1551
59331SOL     OW85232   4.957   9.082   0.520  0.4664 -0.5205 -0.5126
59331SOL    HW185233   4.875   9.100   0.566 -0.5649 -0.8261 -2.1439
59331SOL    HW285234   5.012   9.158   0.540 -0.1063 -0.4114  0.7950
59332SOL     OW85235   9.113   3.377   6.916 -0.6803 -0.1900 -0.5337
59332SOL    HW185236   9.132   3.324   6.992 -1.5296  3.0089  2.1520
59332SOL    HW285237   9.036   3.337   6.876 -1.6895 -0.6513  1.7568
59333SOL     OW85238   4.405   5.102   8.024 -0.1334 -0.3746 -0.1972
59333SOL    HW185239   4.431   5.053   7.946 -0.2253 -0.0270 -0.4501
59333SOL    HW285240   4.488   5.121   8.068 -0.1775 -1.9465  0.6534
59334SOL     OW85241   2.974   7.210   2.546 -0.3412 -0.2798  0.0085
59334SOL    HW185242   3.007   7.297   2.522 -1.8767  0.1059 -0.7684
59334SOL    HW285243   2.935   7.175   2.466 -0.1142 -1.5339  0.4133
59335SOL     OW85244  12.512   6.459   6.022 -0.1041 -0.1389 -0.4283
59335SOL    HW185245  12.533   6.490   5.934  0.7078 -1.3255 -0.6824
59335SOL    HW285246  12.430   6.411   6.011  0.7209 -1.5169 -0.8609
59336SOL     OW85247   8.660   8.283   4.836 -0.6571  0.4089 -0.4682
59336SOL    HW185248   8.681   8.202   4.883  0.5755  0.7981 -0.3041
59336SOL    HW285249   8.619   8.339   4.901  0.4860  0.7198  0.0004
59337SOL     OW85250   2.750   5.260  10.710 -0.4503  0.2723  0.0081
59337SOL    HW185251   2.814   5.193  10.733  0.6448  1.9559  2.3190
59337SOL    HW285252   2.666   5.225  10.739 -0.2262 -0.9304 -0.7459
59338SOL     OW85253   5.691   7.670   3.270  0.3861  0.3368  0.6887
59338SOL    HW185254   5.676   7.666   3.175 -0.4764 -1.1378  0.8642
59338SOL    HW285255   5.653   7.755   3.296 -0.2967  0.3053 -0.1428
59339SOL     OW85256   9.291   6.822   9.841 -0.1425 -0.1343 -0.1670
59339SOL    HW185257   9.260   6.909   9.816 -0.2180 -0.0146  0.3307
59339SOL    HW285258   9.263   6.765   9.769  0.7998  0.4195 -0.9954
59340SOL     OW85259   4.881   0.503   7.363 -0.2146  0.0082 -0.1249
59340SOL    HW185260   4.892   0.597   7.347  0.9339  0.2773  1.9004
59340SOL    HW285261   4.965   0.475   7.398 -0.7382 -1.6776 -0.1451
59341SOL     OW85262   1.473   7.783  10.740 -0.3028  0.0786  0.0171
59341SOL    HW185263   1.562   7.750  10.743 -1.0910 -2.1546  0.7858
59341SOL    HW285264   1.465   7.824  10.654  1.0488 -0.9403 -0.6215
59342SOL     OW85265   0.098   9.854   6.094 -0.0741 -0.1324 -0.0437
59342SOL    HW185266   0.089   9.838   6.188  1.3723  1.1669  0.3530
59342SOL    HW285267   0.151   9.934   6.088  1.6907 -1.3359 -1.9585
59343SOL     OW85268   2.053   8.089   4.142  0.2618 -0.5045  0.0495
59343SOL    HW185269   2.013   8.101   4.228  0.2546  3.1094 -0.2829
59343SOL    HW285270   2.129   8.034   4.158  1.3957  1.6369  2.8311
59344SOL     OW85271  12.377   6.089  11.477 -0.0364 -0.6365  0.0741
59344SOL    HW185272  12.383   6.162  11.415  0.4072 -0.1075  0.7252
59344SOL    HW285273  12.323   6.024  11.432  0.4133 -0.3401 -0.9385
59345SOL     OW85274  11.613   8.122  10.441  0.3774 -0.7786 -0.4772
59345SOL    HW185275  11.626   8.094  10.350  0.3548 -1.9298 -0.1358
59345SOL    HW285276  11.623   8.042  10.493 -3.1526 -0.9016  0.2520
59346SOL     OW85277   2.895   8.918   0.409 -0.3345  0.1071 -0.0365
59346SOL    HW185278   2.918   8.912   0.317  0.7693  0.0545  0.2375
59346SOL    HW285279   2.937   8.842   0.450  2.3523  2.0872  1.1262
59347SOL     OW85280  11.757   9.084  12.144 -0.2671  0.4333 -0.0945
59347SOL    HW185281  11.833   9.032  12.170 -0.3464  1.0063  1.3700
59347SOL    HW285282  11.706   9.026  12.087 -0.6233 -1.2988  1.8829
59348SOL     OW85283   8.830   6.152   8.173  0.0691  0.1314  0.3339
59348SOL    HW185284   8.844   6.162   8.267  0.7197 -1.0250  0.3711
59348SOL    HW285285   8.892   6.085   8.146  0.9413  1.4950 -1.2023
59349SOL     OW85286   9.763   2.927   6.818  0.4271 -0.2619  0.1108
59349SOL    HW185287   9.827   2.923   6.747 -0.9464 -0.6372 -1.1595
59349SOL    HW285288   9.798   2.869   6.885  0.5986 -1.8310 -1.2717
59350SOL     OW85289   9.260  12.542   2.219  0.4085  0.4243  0.4567
59350SOL    HW185290   9.232  12.509   2.134  3.4201  0.4565 -0.6352
59350SOL    HW285291   9.180  12.578   2.258 -1.1704 -0.1426 -2.0643
59351SOL     OW85292  10.801   2.889   1.865  0.1580 -0.6113 -0.4973
59351SOL    HW185293  10.825   2.799   1.843 -1.0226 -1.4585  1.4256
59351SOL    HW285294  10.747   2.918   1.791  0.5461 -1.4832 -1.1356
59352SOL     OW85295   7.371   2.751   0.186  0.1620 -0.0439  0.3251
59352SOL    HW185296   7.302   2.686   0.200 -1.0204  0.6445 -1.8871
59352SOL    HW285297   7.372   2.803   0.266 -2.3109  0.2648  0.2239
59353SOL     OW85298   9.548   3.846   4.940  0.3137 -0.0005  0.6390
59353SOL    HW185299   9.454   3.840   4.957  0.0968  0.8547 -0.1643
59353SOL    HW285300   9.555   3.856   4.845  1.3578 -2.2845  0.3977
59354SOL     OW85301   0.255  10.115   2.518 -0.4146  0.0208  0.2520
59354SOL    HW185302   0.309  10.071   2.453  0.0238 -1.5621  1.6197
59354SOL    HW285303   0.167  10.083   2.502 -0.3848  0.0020  0.1267
59355SOL     OW85304  11.654   2.067   3.938 -0.3110 -0.0719  0.0396
59355SOL    HW185305  11.694   2.126   4.002 -2.0741 -0.8755  1.9914
59355SOL    HW285306  11.583   2.119   3.899 -0.3866 -0.1718  0.0459
59356SOL     OW85307  12.675   7.763   6.582 -0.2079  0.5598 -0.4177
59356SOL    HW185308  12.604   7.706   6.609  1.5842 -0.5579  2.3516
59356SOL    HW285309  12.650   7.850   6.614  0.6659 -0.2750  2.9265
59357SOL     OW85310   5.625  11.697   7.677  0.3653 -0.0500 -0.3376
59357SOL    HW185311   5.538  11.736   7.666  0.7211  1.2642  1.1639
59357SOL    HW285312   5.611  11.622   7.734  0.3000  0.6510  0.5928
59358SOL     OW85313  11.143   3.421   7.002  0.0009  0.1797  0.3812
59358SOL    HW185314  11.076   3.360   6.971 -0.0060  0.4930 -0.2310
59358SOL    HW285315  11.167   3.387   7.089  1.0223 -1.5266 -0.5092
59359SOL     OW85316   0.812  11.086   7.111  0.7342 -0.3290 -0.2623
59359SOL    HW185317   0.828  11.129   7.195 -0.7768  0.2129 -0.2321
59359SOL    HW285318   0.838  10.995   7.125  1.3431 -0.0475  0.5058
59360SOL     OW85319   1.153   6.439   4.238  0.3758 -0.1817  0.2578
59360SOL    HW185320   1.087   6.499   4.273  0.0998  0.0274 -0.5998
59360SOL    HW285321   1.181   6.480   4.156  1.9689  0.0003  0.8649
59361SOL     OW85322   6.514   0.140   0.259  0.0459  0.6204  0.2676
59361SOL    HW185323   6.473   0.079   0.321  1.6885  0.2639  1.0418
59361SOL    HW285324   6.553   0.208   0.314  0.3337  1.0557 -0.4577
59362SOL     OW85325   3.436   0.045   1.019  0.3003 -0.3274  0.0517
59362SOL    HW185326   3.522   0.060   0.981  0.6240 -4.0497 -1.0828
59362SOL    HW285327   3.453   0.028   1.111  0.5695  0.2852  0.1232
59363SOL     OW85328   8.903   5.523   9.721 -0.3429 -0.6412 -0.2479
59363SOL    HW185329   8.853   5.475   9.655  0.3824 -1.1924 -0.4148
59363SOL    HW285330   8.866   5.611   9.720 -1.3843 -1.0694 -0.2729
59364SOL     OW85331   7.266   9.831   5.020  0.2739 -0.3077 -0.5308
59364SOL    HW185332   7.244   9.741   5.046  0.1138  0.2006  1.2381
59364SOL    HW285333   7.296   9.872   5.101  0.4798  1.1944 -1.3455
59365SOL     OW85334   4.418   4.694   1.998  0.1179  0.2685  0.2539
59365SOL    HW185335   4.449   4.707   1.909  2.5847  0.2010  1.0389
59365SOL    HW285336   4.373   4.609   1.995  0.5167  0.0802 -0.8380
59366SOL     OW85337  12.658   3.082   0.733  0.2078  0.2482  0.0209
59366SOL    HW185338  12.643   3.131   0.652  1.5223  0.1574 -0.2986
59366SOL    HW285339  12.635   2.992   0.711  1.3121  0.0781 -0.5146
59367SOL     OW85340  10.159   7.149   7.665 -0.3469  0.0975  0.3971
59367SOL    HW185341  10.155   7.153   7.569  0.4381 -0.7029  0.3118
59367SOL    HW285342  10.162   7.241   7.692 -3.3150  0.4453 -0.1606
59368SOL     OW85343   1.128   1.175   1.910 -0.2285 -0.2178 -0.0673
59368SOL    HW185344   1.052   1.189   1.853 -0.5666 -0.3532  0.3496
59368SOL    HW285345   1.182   1.112   1.862 -1.7739 -2.4069  0.9059
59369SOL     OW85346   2.588  12.543  12.657  0.1454 -0.1268  0.4525
59369SOL    HW185347   2.568  12.591  12.737 -1.1586  0.6348 -0.2951
59369SOL    HW285348   2.583  12.608  12.587  0.5801 -0.9031 -0.3326
59370SOL     OW85349   5.514   8.673   2.866  0.0112  0.6949 -0.0068
59370SOL    HW185350   5.534   8.603   2.928  0.4356  0.8411  0.0269
59370SOL    HW285351   5.462   8.630   2.798 -1.6447  0.8284  1.1270
59371SOL     OW85352   0.440   9.595  12.329 -0.7030  0.0120  0.1261
59371SOL    HW185353   0.434   9.577  12.423 -0.4525  1.5931  0.4602
59371SOL    HW285354   0.352   9.580  12.296 -0.5938 -1.4652  0.4139
59372SOL     OW85355   2.670   4.676  12.349 -0.3638  0.4577  0.2858
59372SOL    HW185356   2.667   4.584  12.321  0.8156  0.1772  1.0191
59372SOL    HW285357   2.715   4.722  12.279 -0.2535  0.3378  0.2784
59373SOL     OW85358   5.641  10.064   1.355  0.4232  0.0318 -0.0561
59373SOL    HW185359   5.697   9.995   1.390 -1.1945 -1.2722  0.0746
59373SOL    HW285360   5.563  10.062   1.410 -0.6277  0.4039 -1.4778
59374SOL     OW85361  12.336  11.267  10.467  0.3152  0.6768  0.9104
59374SOL    HW185362  12.260  11.210  10.478  1.2631 -0.9129 -0.3215
59374SOL    HW285363  12.341  11.316  10.549 -2.3054  1.2258  0.8296
59375SOL     OW85364   2.459   6.298   7.359 -0.1193 -0.0036  0.3209
59375SOL    HW185365   2.397   6.283   7.430  0.6823  1.3636  1.3446
59375SOL    HW285366   2.453   6.218   7.305 -0.5702 -1.1776  2.0279
59376SOL     OW85367   0.169  11.987   5.367  0.1918  0.4256 -0.3809
59376SOL    HW185368   0.074  11.983   5.366  0.2019  0.2501 -0.6697
59376SOL    HW285369   0.189  12.063   5.421 -0.1501  1.4656 -1.6591
59377SOL     OW85370   8.008   7.093   2.339 -0.1167 -0.0937 -0.1222
59377SOL    HW185371   8.099   7.091   2.309 -0.3695  0.7282 -0.9944
59377SOL    HW285372   7.991   7.186   2.357 -1.8966  0.4363 -3.6433
59378SOL     OW85373   7.732  12.399   6.238  0.3502 -0.2450 -0.4268
59378SOL    HW185374   7.757  12.489   6.259 -1.0011  0.5372 -1.9194
59378SOL    HW285375   7.764  12.386   6.149 -0.2671 -0.8989 -0.5623
59379SOL     OW85376  11.050  12.001  11.716 -0.8134 -0.1538  0.1330
59379SOL    HW185377  11.140  12.002  11.751 -0.5929  0.5471 -0.4224
59379SOL    HW285378  11.042  11.916  11.674 -1.8424 -2.0194  3.6778
59380SOL     OW85379   0.748   0.079   1.365 -0.2368 -0.4601 -0.0514
59380SOL    HW185380   0.757   0.014   1.295 -2.0665  0.0076 -0.7576
59380SOL    HW285381   0.771   0.030   1.444  2.7386 -0.7739 -0.9759
59381SOL     OW85382  10.304   0.009  12.241 -0.1723 -0.3219 -0.4071
59381SOL    HW185383  10.344  -0.024  12.161 -0.4893 -0.5993 -0.4519
59381SOL    HW285384  10.225   0.055  12.212  0.6619  1.1717 -0.4242
59382SOL     OW85385   6.402   1.744   6.911  0.3001 -0.2790 -0.1500
59382SOL    HW185386   6.451   1.678   6.862  1.9071  0.0538  0.9334
59382SOL    HW285387   6.448   1.826   6.892  1.0808 -0.1720  2.0120
59383SOL     OW85388   0.482   0.362   2.148 -0.1840 -0.0207 -0.2374
59383SOL    HW185389   0.545   0.300   2.185  0.6626 -0.8510 -2.8307
59383SOL    HW285390   0.410   0.307   2.117  0.4474  0.2044 -2.3139
59384SOL     OW85391  11.683   9.515   2.597 -0.1260 -0.2243 -0.0685
59384SOL    HW185392  11.727   9.476   2.522 -0.6928 -0.6943 -0.1534
59384SOL    HW285393  11.706   9.608   2.592  0.9283 -0.4742 -0.0630
59385SOL     OW85394   7.738   2.343   3.663  0.1102 -0.2628  0.0421
59385SOL    HW185395   7.680   2.310   3.594 -0.0310  0.9597 -0.4326
59385SOL    HW285396   7.688   2.412   3.706  0.9604  0.3499  0.0699
59386SOL     OW85397  11.644   1.137   4.333  0.0769 -0.3937  0.6450
59386SOL    HW185398  11.596   1.055   4.342 -0.3761 -0.2816 -0.5780
59386SOL    HW285399  11.735   1.110   4.320  0.2816 -0.6236  2.3766
59387SOL     OW85400   4.631   8.346   7.296  0.5442 -0.0716  0.1647
59387SOL    HW185401   4.705   8.398   7.328  1.5132 -0.8885 -0.6687
59387SOL    HW285402   4.580   8.407   7.243  2.0693 -0.0657 -1.4176
59388SOL     OW85403   1.960   8.263   6.705 -0.0564 -0.3624  0.2249
59388SOL    HW185404   1.909   8.199   6.755 -1.9145  0.3689 -0.6453
59388SOL    HW285405   1.937   8.347   6.742 -0.0713  0.0442 -0.6767
59389SOL     OW85406   0.294   3.956   0.117 -0.1468 -0.0535  0.1955
59389SOL    HW185407   0.254   3.959   0.204  1.3790  0.4069  0.9170
59389SOL    HW285408   0.348   4.034   0.113  0.3934 -0.4655 -0.8879
59390SOL     OW85409  11.042   8.560  11.007 -0.0969  0.2684  0.4144
59390SOL    HW185410  10.981   8.511  10.952 -1.0286  1.3105  0.4606
59390SOL    HW285411  11.128   8.541  10.970 -0.5560 -0.3465 -0.3829
59391SOL     OW85412  11.562   7.285   8.607 -0.3685 -0.3948  0.5282
59391SOL    HW185413  11.610   7.339   8.544 -0.2272  0.1887  1.1338
59391SOL    HW285414  11.534   7.208   8.556  0.4121 -0.3017 -0.0529
59392SOL     OW85415   8.214   6.681   2.180 -0.1424 -0.0231 -0.0766
59392SOL    HW185416   8.119   6.684   2.187 -0.1173  0.9442  0.0700
59392SOL    HW285417   8.245   6.677   2.271 -0.0572 -2.3517 -0.1596
59393SOL     OW85418  10.403   5.026   8.630  0.4936  0.1286  0.9677
59393SOL    HW185419  10.381   5.029   8.723  0.4261  0.8198  0.9337
59393SOL    HW285420  10.479   4.968   8.624  0.3405 -0.1178  1.4201
59394SOL     OW85421   3.560   0.981   2.093 -0.1002  0.3880  0.2865
59394SOL    HW185422   3.610   1.027   2.025  2.4599  0.2719  1.9302
59394SOL    HW285423   3.580   0.888   2.079 -0.3083  0.2880  0.6293
59395SOL     OW85424   5.128   1.234  11.577  0.2515 -0.1727 -0.0444
59395SOL    HW185425   5.125   1.317  11.626  0.5101 -0.2751  0.1487
59395SOL    HW285426   5.140   1.260  11.486  2.9449 -0.0414  0.2674
59396SOL     OW85427   6.693  11.337   3.134  0.1778  0.2182 -0.0321
59396SOL    HW185428   6.753  11.352   3.061 -2.2130  2.0927 -1.7589
59396SOL    HW285429   6.742  11.366   3.211  2.3869 -0.8309 -0.9378
59397SOL     OW85430  10.806   1.052   8.669  0.5723 -0.3900 -0.1342
59397SOL    HW185431  10.885   1.008   8.638  1.2284 -0.4745  1.5515
59397SOL    HW285432  10.816   1.056   8.764 -2.0149 -1.5399  0.2902
59398SOL     OW85433   6.322  10.384   9.952  0.0587 -0.1136  0.3723
59398SOL    HW185434   6.280  10.358   9.870  2.4678 -3.3118 -0.0627
59398SOL    HW285435   6.249  10.403  10.012 -1.8787 -1.6458 -1.3756
59399SOL     OW85436   5.915   9.351   1.674  0.0629 -0.0712  0.1403
59399SOL    HW185437   5.974   9.422   1.647  0.0716  1.2168  3.1871
59399SOL    HW285438   5.830   9.392   1.683 -0.0802 -0.6007  1.3039
59400SOL     OW85439   6.104   7.796   5.971 -0.1773  0.1682 -0.2385
59400SOL    HW185440   6.108   7.825   5.880 -1.6358 -0.2589 -0.4646
59400SOL    HW285441   6.091   7.877   6.021  1.8331  0.5548 -0.2497
59401SOL     OW85442  10.340   8.506   4.979  0.0348 -0.1259  0.5122
59401SOL    HW185443  10.254   8.512   5.020 -0.8126  0.1015 -1.2184
59401SOL    HW285444  10.382   8.590   4.999  1.3479 -1.4422  4.3033
59402SOL     OW85445   9.308   2.441   8.421 -0.6002  0.4543  0.0053
59402SOL    HW185446   9.354   2.360   8.401 -0.5447 -0.1683  2.3804
59402SOL    HW285447   9.359   2.509   8.377 -0.2358 -0.6848 -1.4134
59403SOL     OW85448   6.813  12.214   2.415 -0.2013 -0.2571  0.6498
59403SOL    HW185449   6.877  12.222   2.485  0.8853  1.8448 -0.5067
59403SOL    HW285450   6.834  12.131   2.373  0.6546 -0.4067  1.3437
59404SOL     OW85451   5.206   6.757   5.356 -0.1543 -0.5158  0.2847
59404SOL    HW185452   5.283   6.782   5.306 -0.8188  0.2464 -0.3961
59404SOL    HW285453   5.134   6.804   5.313 -1.1921 -2.2046  0.0817
59405SOL     OW85454  10.272   9.090  11.736 -0.1432  0.3201  0.3806
59405SOL    HW185455  10.349   9.095  11.679  1.5298  1.5120  2.5503
59405SOL    HW285456  10.212   9.156  11.700  0.3368  0.2057 -0.6839
59406SOL     OW85457  11.909   5.224   4.066 -0.2263 -0.0259 -0.2011
59406SOL    HW185458  11.843   5.199   4.131  1.4131 -1.4202  1.0082
59406SOL    HW285459  11.858   5.244   3.987 -2.0536 -2.5666  0.2012
59407SOL     OW85460  11.171   2.138   3.919  0.6927  0.0859  0.5764
59407SOL    HW185461  11.176   2.043   3.927  3.9420  0.2252  1.4119
59407SOL    HW285462  11.163   2.169   4.009 -2.5166  0.6617  0.2164
59408SOL     OW85463  11.996   6.323   1.699 -0.6912 -0.2144 -0.0330
59408SOL    HW185464  11.953   6.241   1.676 -1.5408 -0.5322  2.4145
59408SOL    HW285465  12.085   6.298   1.723 -0.7550 -0.3305  0.0839
59409SOL     OW85466   2.862  11.716   5.618  0.0347 -0.4800  0.5783
59409SOL    HW185467   2.866  11.727   5.523 -0.2403 -1.4896  0.4387
59409SOL    HW285468   2.902  11.630   5.634 -3.3213 -2.1458  0.9700
59410SOL     OW85469   7.814   4.795   3.753 -0.5236 -0.0758  0.0322
59410SOL    HW185470   7.825   4.881   3.795 -0.1682 -0.2036  0.2091
59410SOL    HW285471   7.814   4.814   3.660 -0.1053  0.0833  0.0614
59411SOL     OW85472   7.548   8.250   9.423  0.0630  0.4453  0.9515
59411SOL    HW185473   7.545   8.308   9.499  1.8758  0.3466  1.1414
59411SOL    HW285474   7.618   8.188   9.443  0.7546  0.5664 -0.8632
59412SOL     OW85475   7.522   1.359   2.816 -0.4923 -0.5563 -0.8454
59412SOL    HW185476   7.488   1.386   2.731  1.6240 -0.2820 -1.6751
59412SOL    HW285477   7.538   1.265   2.807 -2.3481 -0.9976  0.0512
59413SOL     OW85478  11.629  10.236   5.119  0.5685  0.1335 -0.4561
59413SOL    HW185479  11.620  10.141   5.127  0.5376  0.1435 -0.3747
59413SOL    HW285480  11.713  10.256   5.159 -0.2480  0.3600  1.2419
59414SOL     OW85481  10.666  10.949   5.798  0.3904  0.1398 -0.0069
59414SOL    HW185482  10.612  11.027   5.787 -0.4292 -0.3797  0.2489
59414SOL    HW285483  10.668  10.935   5.893  0.9179  0.1150 -0.0218
59415SOL     OW85484   9.061  11.229  12.165 -0.1365 -0.7075 -0.1219
59415SOL    HW185485   9.041  11.235  12.259 -0.7561 -0.8960 -0.2382
59415SOL    HW285486   9.150  11.264  12.158  0.9165 -2.9428  0.8770
59416SOL     OW85487   9.070  12.114   7.042  0.4081  0.2039 -0.0191
59416SOL    HW185488   9.034  12.034   7.081 -2.0284  0.9530 -0.5612
59416SOL    HW285489   9.142  12.083   6.987 -0.9765 -1.7723 -0.8623
59417SOL     OW85490   5.916   8.722  12.467 -0.5897 -0.1343  0.0926
59417SOL    HW185491   5.921   8.815  12.485  0.2915 -0.2897  0.7428
59417SOL    HW285492   5.979   8.708  12.396  1.7600 -0.6813  2.1146
59418SOL     OW85493   5.258   6.073   6.091 -0.0487  0.7919 -0.2575
59418SOL    HW185494   5.282   6.027   6.171  1.5272  1.3410 -0.3903
59418SOL    HW285495   5.313   6.151   6.090  1.5867 -0.2461 -2.9004
59419SOL     OW85496   4.613   7.169  12.131 -0.6475 -0.0088 -0.0986
59419SOL    HW185497   4.701   7.136  12.111 -0.4589  1.5410 -2.0937
59419SOL    HW285498   4.624   7.217  12.212  0.4047  0.3238 -0.4182
59420SOL     OW85499   2.388   0.045   0.095  0.0780 -0.2251  0.1462
59420SOL    HW185500   2.433  -0.021   0.148  0.2359  0.1353  0.4637
59420SOL    HW285501   2.342  -0.005   0.027 -2.0032 -0.9038  1.9471
59421SOL     OW85502   3.696  11.600   1.827  0.6509 -0.4813 -0.3541
59421SOL    HW185503   3.711  11.664   1.898  0.4034 -0.1882 -0.5627
59421SOL    HW285504   3.661  11.523   1.872  0.3200 -0.2297 -0.1797
59422SOL     OW85505   8.698   0.692   2.317 -0.2859  0.1768  0.5955
59422SOL    HW185506   8.773   0.750   2.333 -1.4148  1.6629  0.7292
59422SOL    HW285507   8.642   0.705   2.393 -1.9316  1.1470 -0.7233
59423SOL     OW85508   9.575  10.192   1.338 -0.0387 -0.2134 -0.1315
59423SOL    HW185509   9.632  10.181   1.414  0.6644  0.7160 -0.4876
59423SOL    HW285510   9.582  10.110   1.290 -1.0720 -1.0853  1.1646
59424SOL     OW85511   4.528   5.861  10.169 -0.2608 -0.3774 -0.2128
59424SOL    HW185512   4.512   5.799  10.240 -1.1980 -0.1496 -0.2119
59424SOL    HW285513   4.480   5.826  10.095  0.1532 -0.2543 -0.5460
59425SOL     OW85514   7.060   7.065   6.055  0.2805  0.9665  0.3324
59425SOL    HW185515   7.050   7.002   6.126 -1.6814  1.0262  0.1568
59425SOL    HW285516   7.148   7.102   6.068  0.9624 -0.8337  1.1953
59426SOL     OW85517   7.335   9.733   7.362 -0.3076  0.2330  0.0891
59426SOL    HW185518   7.264   9.700   7.306 -0.4549  1.2579 -0.3553
59426SOL    HW285519   7.348   9.664   7.427 -2.4622  0.4589  0.8619
59427SOL     OW85520  12.221   7.680   8.077  0.2759  0.2369 -0.2383
59427SOL    HW185521  12.293   7.725   8.121  0.6675 -0.3250 -0.2988
59427SOL    HW285522  12.262   7.606   8.033 -0.5714 -1.2139  1.2806
59428SOL     OW85523   4.380   0.112   8.968 -0.1325 -0.1374 -0.0572
59428SOL    HW185524   4.385   0.033   8.914 -0.9473 -0.0724 -0.2331
59428SOL    HW285525   4.461   0.111   9.019  0.4999 -0.3665 -1.0408
59429SOL     OW85526   6.260  12.647   1.451 -0.1080 -0.2366 -0.2029
59429SOL    HW185527   6.259  12.655   1.546  0.8510 -1.3566 -0.0760
59429SOL    HW285528   6.245  12.736   1.419 -1.1649  0.0393  0.9831
59430SOL     OW85529   2.882   2.111   4.647 -0.3144  0.3209 -0.4077
59430SOL    HW185530   2.895   2.073   4.734 -3.6317  1.2340  0.6346
59430SOL    HW285531   2.949   2.180   4.642  0.2414 -0.0436  1.2122
59431SOL     OW85532   2.194   4.224   2.600 -0.3593  0.1375 -0.4121
59431SOL    HW185533   2.229   4.311   2.578 -0.2986  0.2457  0.0917
59431SOL    HW285534   2.137   4.202   2.527  1.1130 -0.2532 -1.4816
59432SOL     OW85535   9.102   4.169   0.754 -0.3616  0.5249 -0.2141
59432SOL    HW185536   9.008   4.189   0.755 -0.0521  2.4344  2.1535
59432SOL    HW285537   9.119   4.131   0.840  1.0704  0.4674 -0.4954
59433SOL     OW85538   0.465   6.387   3.776 -0.0305 -0.1554  0.4124
59433SOL    HW185539   0.517   6.366   3.854 -2.1068 -1.5067  1.5458
59433SOL    HW285540   0.388   6.331   3.783 -1.5306  1.5359 -1.2881
59434SOL     OW85541   5.776   1.424   6.957  0.3200 -0.4307 -0.0499
59434SOL    HW185542   5.871   1.437   6.962  0.0794  0.9657  1.8304
59434SOL    HW285543   5.741   1.474   7.031 -1.9603 -0.2402 -1.1892
59435SOL     OW85544   6.622   9.739   4.960  0.2795 -0.5290  0.4402
59435SOL    HW185545   6.684   9.809   4.979  0.1421 -0.2135 -0.2492
59435SOL    HW285546   6.620   9.734   4.864 -0.8566 -0.4371  0.4470
59436SOL     OW85547   0.925   9.978   7.911 -0.0101  0.2203 -0.1264
59436SOL    HW185548   0.873   9.897   7.917  0.0049  0.2077 -0.1610
59436SOL    HW285549   0.912  10.008   7.821 -1.6511  1.3540  0.4535
59437SOL     OW85550   7.743   4.557   9.959  0.0203  0.4264  0.0391
59437SOL    HW185551   7.695   4.475   9.948 -1.0589  0.5223  3.1114
59437SOL    HW285552   7.718   4.610   9.884 -0.5830 -1.4251 -1.1207
59438SOL     OW85553   6.600   2.969   4.938 -0.7299  0.6926 -0.7044
59438SOL    HW185554   6.614   3.033   4.868  1.1729 -0.7281 -1.7025
59438SOL    HW285555   6.527   2.916   4.907 -0.2677  0.4321 -1.3582
59439SOL     OW85556   2.421   4.334   2.297 -0.3903 -0.0175  0.2627
59439SOL    HW185557   2.442   4.256   2.246  1.1417  0.3245  0.3271
59439SOL    HW285558   2.506   4.368   2.326 -1.1485  0.3700  2.1965
59440SOL     OW85559   0.749   0.483   8.890 -0.6634  0.4939  0.0727
59440SOL    HW185560   0.659   0.462   8.916 -0.6566 -0.5068 -0.6589
59440SOL    HW285561   0.746   0.575   8.863 -1.2189  0.7915  1.1125
59441SOL     OW85562   0.171   5.338   7.767 -0.3192 -0.3711  0.0491
59441SOL    HW185563   0.154   5.350   7.860 -0.1939 -1.1589  0.1828
59441SOL    HW285564   0.136   5.417   7.726 -0.6217 -0.1385  0.7335
59442SOL     OW85565   1.792   7.337   5.432  0.2736  0.2335 -0.4732
59442SOL    HW185566   1.730   7.298   5.494 -0.6638  3.7754  1.0474
59442SOL    HW285567   1.770   7.297   5.348 -1.5663 -1.3331  0.6611
59443SOL     OW85568   6.417   7.412  12.663  0.2764  0.5571  0.8015
59443SOL    HW185569   6.378   7.389  12.578  0.6018  1.2252  0.4672
59443SOL    HW285570   6.358   7.371  12.727  0.0941 -0.0621  0.2590
59444SOL     OW85571   2.733   6.042  10.626 -0.5788  0.0202 -0.0411
59444SOL    HW185572   2.758   6.017  10.537 -0.3256 -1.0273  0.3020
59444SOL    HW285573   2.665   5.979  10.650 -0.8302  0.4586  0.4126
59445SOL     OW85574   4.056   0.012   9.766 -0.2941 -0.0868 -0.3940
59445SOL    HW185575   4.016  -0.068   9.801  0.7153 -1.2388 -1.7207
59445SOL    HW285576   4.042   0.078   9.833 -1.4072 -1.3111  0.6327
59446SOL     OW85577   5.298  12.278   8.975 -0.3519 -0.0518  1.2000
59446SOL    HW185578   5.307  12.274   9.070 -2.8414  1.0417  1.5470
59446SOL    HW285579   5.264  12.192   8.950 -1.5533  0.3000  1.5760
59447SOL     OW85580   8.161   6.861  10.522 -0.1769  0.6987 -0.4335
59447SOL    HW185581   8.152   6.855  10.427 -1.5395 -4.0611 -0.2654
59447SOL    HW285582   8.240   6.811  10.541 -1.1855 -0.4401  0.9817
59448SOL     OW85583   9.420   1.462  11.580  0.2199  0.0244  0.1602
59448SOL    HW185584   9.396   1.375  11.613 -0.5447  0.2329  0.1790
59448SOL    HW285585   9.513   1.471  11.601  0.9282 -1.7129 -1.8419
59449SOL     OW85586   6.388   9.876   7.284  0.0861 -0.2967  0.1710
59449SOL    HW185587   6.373   9.968   7.261 -0.0377 -0.3189  0.1650
59449SOL    HW285588   6.315   9.853   7.340  0.7563 -0.0377  1.1871
59450SOL     OW85589   6.699   0.816   2.812  0.3939 -0.3675  0.4808
59450SOL    HW185590   6.756   0.884   2.776  0.3127 -0.5365  0.0197
59450SOL    HW285591   6.665   0.770   2.735 -0.5540 -0.1172  0.7357
59451SOL     OW85592   8.195   3.355   3.393 -0.5049 -0.1385 -0.3230
59451SOL    HW185593   8.105   3.363   3.425 -0.2780 -0.4873  0.4401
59451SOL    HW285594   8.187   3.309   3.310 -1.1499  1.1773 -1.0121
59452SOL     OW85595   1.927   1.595   7.688 -0.0390 -0.2121 -0.2172
59452SOL    HW185596   1.857   1.538   7.656 -0.9547 -0.0630  1.4037
59452SOL    HW285597   1.988   1.603   7.614 -0.0586 -2.9732 -0.6377
59453SOL     OW85598   7.023  10.847   9.280 -0.1175  0.0134  0.1557
59453SOL    HW185599   7.022  10.849   9.376  1.9391  0.5396  0.2196
59453SOL    HW285600   6.980  10.928   9.254  1.0616  0.8558  0.7193
59454SOL     OW85601  11.297   4.379  10.027 -0.0167 -0.0356  0.4357
59454SOL    HW185602  11.207   4.411  10.027 -0.4609 -1.0145 -2.3168
59454SOL    HW285603  11.350   4.454  10.001 -0.4877 -0.2478 -1.2608
59455SOL     OW85604   9.846   3.947   2.713  0.0814  0.3327  0.1747
59455SOL    HW185605   9.925   4.000   2.711 -1.4780  2.8898  0.8665
59455SOL    HW285606   9.788   3.988   2.649 -0.6200 -1.6683 -0.5434
59456SOL     OW85607   7.456   1.302   6.223 -0.1795 -0.5954  0.2592
59456SOL    HW185608   7.476   1.213   6.194 -0.4419 -0.6168  0.1431
59456SOL    HW285609   7.361   1.309   6.214 -0.0561  0.0186 -0.6245
59457SOL     OW85610  12.469   7.801   8.991  0.3430 -0.5300  0.0203
59457SOL    HW185611  12.555   7.830   9.023  1.0321 -1.9520 -0.4988
59457SOL    HW285612  12.488   7.738   8.922 -1.1269 -1.1316  0.1246
59458SOL     OW85613   2.478   8.339   7.104  0.3766 -0.2564 -0.3835
59458SOL    HW185614   2.474   8.428   7.140 -1.6623 -0.6966  0.6377
59458SOL    HW285615   2.513   8.286   7.176 -1.7849 -0.8020  0.3585
59459SOL     OW85616   2.474   2.401   3.897 -0.3067 -0.0342  0.9498
59459SOL    HW185617   2.546   2.400   3.834  0.4441  2.0317  1.6906
59459SOL    HW285618   2.469   2.311   3.930  0.2338 -0.8100 -0.9533
59460SOL     OW85619   5.006   9.968   4.316  0.2221  0.0791  0.5131
59460SOL    HW185620   5.056   9.908   4.261  0.0935 -0.8706  1.4036
59460SOL    HW285621   5.056  10.050   4.314  1.0522 -0.4203  0.2399
59461SOL     OW85622   9.927  10.431   0.987 -0.5632  0.3142 -0.0586
59461SOL    HW185623   9.947  10.496   1.054  0.1124 -0.7577  0.8104
59461SOL    HW285624   9.923  10.348   1.034 -2.4302 -0.1762 -0.9658
59462SOL     OW85625   5.072  11.451   7.147 -0.0794 -0.8436  0.7499
59462SOL    HW185626   5.089  11.460   7.241  1.6464  0.9134  0.3177
59462SOL    HW285627   5.149  11.407   7.113 -0.8683 -1.8274  0.1651
59463SOL     OW85628   6.260   3.816  10.610 -0.3734  0.3142 -0.4953
59463SOL    HW185629   6.324   3.856  10.669 -1.2332  1.0878 -0.0520
59463SOL    HW285630   6.183   3.801  10.665  0.2615 -3.1058 -0.3140
59464SOL     OW85631   1.201  11.257   2.389 -0.4197  0.0427  0.1137
59464SOL    HW185632   1.182  11.164   2.396 -3.9103  0.5333 -0.8216
59464SOL    HW285633   1.177  11.280   2.299  1.7530  1.6143 -0.1355
59465SOL     OW85634   0.955  10.850   0.480 -0.4579  0.6014 -0.1532
59465SOL    HW185635   0.915  10.856   0.566  0.2369  1.3243  0.1373
59465SOL    HW285636   0.917  10.923   0.431  1.1532  1.8882  0.4264
59466SOL     OW85637   7.100  10.607  10.189  0.5344  0.5294 -0.2823
59466SOL    HW185638   7.036  10.584  10.257 -0.8385  3.1134 -0.5674
59466SOL    HW285639   7.117  10.524  10.143  0.1999 -0.9406  2.0814
59467SOL     OW85640   1.968   3.614  10.032 -0.5020 -0.6291  0.1444
59467SOL    HW185641   2.021   3.675  10.083  1.5500 -0.6290 -1.8316
59467SOL    HW285642   1.922   3.561  10.098 -0.5402  1.4735  1.9095
59468SOL     OW85643   0.830   5.651  12.403  0.1536  0.5323  0.0740
59468SOL    HW185644   0.789   5.605  12.476 -0.5332  2.9201  1.3056
59468SOL    HW285645   0.759   5.669  12.342  0.2513  0.6909  0.0054
59469SOL     OW85646   0.718   3.175  12.083  0.1833  0.8618 -0.0965
59469SOL    HW185647   0.657   3.148  12.015  0.5253 -0.1742 -0.0177
59469SOL    HW285648   0.700   3.268  12.097 -2.2334  0.3061  0.8178
59470SOL     OW85649   5.615  11.831   6.890 -0.4543  0.2387  0.0656
59470SOL    HW185650   5.701  11.833   6.850 -0.3270  1.2565  0.3461
59470SOL    HW285651   5.615  11.754   6.947  0.0344 -0.1236 -0.4284
59471SOL     OW85652   7.708   1.289   3.693 -0.0197  0.0810  0.9981
59471SOL    HW185653   7.631   1.347   3.688  0.1684  0.2954  0.5131
59471SOL    HW285654   7.729   1.269   3.601  0.6797  0.2572  1.1151
59472SOL     OW85655   1.469   7.922  11.002 -0.8352 -0.7269  0.1203
59472SOL    HW185656   1.445   7.899  10.912 -0.5982 -1.6938  0.2943
59472SOL    HW285657   1.390   7.905  11.053 -0.8120 -0.6794  0.1715
59473SOL     OW85658   4.542  12.594   6.685 -0.2909 -0.2836  0.1505
59473SOL    HW185659   4.632  12.623   6.695  0.3919 -2.2986  0.2987
59473SOL    HW285660   4.531  12.579   6.591 -0.5621  0.1436  0.1064
59474SOL     OW85661   8.042   9.913  10.022 -0.3474 -0.2921  0.1583
59474SOL    HW185662   8.030  10.005  10.001  1.8609 -0.1676 -0.8943
59474SOL    HW285663   8.081   9.875   9.943  1.7151 -1.3788  1.5876
59475SOL     OW85664  11.181   5.423   5.346  0.2784 -0.5218 -0.1374
59475SOL    HW185665  11.093   5.389   5.333  0.1409  0.2534 -1.4415
59475SOL    HW285666  11.181   5.507   5.300  1.2656  0.1911  1.0930
59476SOL     OW85667   2.043   4.532   0.802  0.0791 -0.4410 -0.0182
59476SOL    HW185668   2.134   4.503   0.806  0.2927  0.2813  2.4470
59476SOL    HW285669   1.998   4.480   0.869 -0.7375  0.8973  0.5321
59477SOL     OW85670  10.944   6.307  12.689  0.0872  0.2428  0.1999
59477SOL    HW185671  10.875   6.300  12.623  1.3201 -0.0313 -1.1008
59477SOL    HW285672  10.911   6.372  12.751 -1.9436 -0.9041  0.4071
59478SOL     OW85673   0.949   9.653   7.306  0.3316 -0.2073 -0.2586
59478SOL    HW185674   0.929   9.717   7.239 -2.2228 -0.5076  0.1237
59478SOL    HW285675   0.867   9.642   7.355  1.6844 -1.0604  1.9965
59479SOL     OW85676   3.797   5.438   3.998 -0.0724  0.6745 -0.3435
59479SOL    HW185677   3.884   5.399   4.008  0.7747  2.9040  1.9790
59479SOL    HW285678   3.789   5.454   3.904  0.5813 -2.5137 -1.0684
59480SOL     OW85679  12.204   9.951   1.537 -0.9893  0.1970 -0.0104
59480SOL    HW185680  12.192  10.045   1.521  0.0815  0.4214  0.3809
59480SOL    HW285681  12.294   9.934   1.507  0.3279  0.1748  3.4501
59481SOL     OW85682   0.057   5.825  11.278 -0.8928 -0.4042 -0.4340
59481SOL    HW185683   0.075   5.869  11.194  0.1561 -0.9968 -0.5359
59481SOL    HW285684  -0.038   5.823  11.283 -0.9723 -0.0200 -1.4356
59482SOL     OW85685   1.397   0.634  10.728  0.2424  0.5810  0.2257
59482SOL    HW185686   1.408   0.657  10.636 -1.3144  0.0148 -0.1371
59482SOL    HW285687   1.302   0.637  10.742  0.4087  0.0335  1.6457
59483SOL     OW85688   8.722   6.068  11.505 -0.2445 -0.0996 -0.2483
59483SOL    HW185689   8.735   5.973  11.504  1.3792  0.0011  2.3715
59483SOL    HW285690   8.786   6.101  11.442 -1.4125 -0.7206 -1.8342
59484SOL     OW85691   0.585   7.046   4.128 -0.3864 -0.7149  0.3662
59484SOL    HW185692   0.580   7.078   4.038  1.6723 -0.9409  0.1062
59484SOL    HW285693   0.531   7.107   4.178  0.3050  0.8717 -0.7044
59485SOL     OW85694   3.095   2.631   7.543  0.0163 -0.3160 -0.0749
59485SOL    HW185695   3.069   2.581   7.466  1.7842  0.8938 -1.5495
59485SOL    HW285696   3.188   2.650   7.529 -0.4886  3.1640  0.4864
59486SOL     OW85697   0.469   9.607  12.017  0.0857 -0.3178 -0.8649
59486SOL    HW185698   0.422   9.524  12.010 -1.7286  0.6301 -0.5118
59486SOL    HW285699   0.509   9.605  12.104  0.5309 -1.0486 -1.0797
59487SOL     OW85700   9.499  10.271   0.643 -0.3045  0.1078 -0.6341
59487SOL    HW185701   9.514  10.366   0.642  1.9439 -0.1167  1.5133
59487SOL    HW285702   9.527  10.241   0.557 -1.2581  1.3797 -1.4291
59488SOL     OW85703  10.784   1.292  10.562  0.2871 -0.4238  0.7413
59488SOL    HW185704  10.753   1.366  10.509 -0.4988 -1.5571 -0.4284
59488SOL    HW285705  10.879   1.299  10.558  0.2394 -0.0865 -0.2887
59489SOL     OW85706   5.639  11.071  11.124 -0.1411  0.1396 -0.6980
59489SOL    HW185707   5.681  11.152  11.152  0.9556 -0.5813 -0.2003
59489SOL    HW285708   5.551  11.076  11.162  0.6518  0.0871  1.2868
59490SOL     OW85709   2.169   2.637   0.116 -0.4021  0.4240 -0.1722
59490SOL    HW185710   2.204   2.670   0.199 -3.8595  0.5691  1.3718
59490SOL    HW285711   2.173   2.542   0.125 -0.8684  0.4376  0.2402
59491SOL     OW85712   2.246   5.296   1.220 -0.4757 -0.5969  0.2830
59491SOL    HW185713   2.220   5.297   1.312 -0.1400 -0.5222  0.3783
59491SOL    HW285714   2.290   5.381   1.207 -1.5580 -0.0985 -0.2446
59492SOL     OW85715   8.317   5.030   8.411 -0.0762 -0.1890  0.0966
59492SOL    HW185716   8.227   5.034   8.443  0.4776 -0.2776  1.7371
59492SOL    HW285717   8.354   5.116   8.431  0.1957 -0.1322 -0.6240
59493SOL     OW85718   4.286   5.769  10.640 -0.0554 -0.3599 -0.2477
59493SOL    HW185719   4.213   5.822  10.606  1.0634  2.2756  1.1341
59493SOL    HW285720   4.244   5.694  10.682 -1.8321  0.0568 -1.1676
59494SOL     OW85721  11.214   2.985   8.035  0.1482  0.1036  0.4261
59494SOL    HW185722  11.271   3.057   8.059 -0.7905  0.2758  2.2677
59494SOL    HW285723  11.250   2.909   8.081  1.4060 -0.7896 -1.8549
59495SOL     OW85724   9.346  10.108   7.026  0.1775  0.1627  0.3513
59495SOL    HW185725   9.296  10.038   7.067 -0.7204  0.7579  0.3095
59495SOL    HW285726   9.433  10.102   7.065 -0.2868 -0.0860  1.3892
59496SOL     OW85727   7.863   4.697   0.872 -0.0510 -0.0705  0.0856
59496SOL    HW185728   7.861   4.605   0.898  0.3082 -0.0580  0.1569
59496SOL    HW285729   7.797   4.739   0.928 -0.0769 -0.2498  0.1887
59497SOL     OW85730   5.569   9.533  10.087 -0.0518  0.0181 -0.0398
59497SOL    HW185731   5.651   9.519  10.039 -0.5545 -0.9314 -0.6470
59497SOL    HW285732   5.518   9.454  10.071 -0.3916 -0.1691  1.7527
59498SOL     OW85733   4.827  10.521   8.596  0.0678 -0.2777  0.2655
59498SOL    HW185734   4.834  10.592   8.660  2.8066 -0.6077  0.4600
59498SOL    HW285735   4.908  10.527   8.545 -0.7639 -1.7726 -1.3202
59499SOL     OW85736   8.274   5.942   8.399 -0.4551 -0.4378 -0.1240
59499SOL    HW185737   8.283   6.031   8.364  0.5013 -0.5079 -0.1018
59499SOL    HW285738   8.346   5.935   8.462 -0.4597 -1.2607 -0.2007
59500SOL     OW85739   1.700   0.590   7.820 -0.2797 -0.3389  0.1521
59500SOL    HW185740   1.695   0.663   7.759  0.2309 -0.5174 -0.1009
59500SOL    HW285741   1.610   0.579   7.851 -0.3775  0.3391  0.1274
59501SOL     OW85742   2.594   1.834   5.483  0.1899  0.1506  0.1504
59501SOL    HW185743   2.553   1.763   5.433 -1.5453  1.0763  0.1525
59501SOL    HW285744   2.571   1.816   5.574 -2.5123  1.9676 -0.0510
59502SOL     OW85745   3.924   8.695   2.433 -0.2189 -0.3336  0.1371
59502SOL    HW185746   3.933   8.789   2.417  0.0449 -0.1736  1.1577
59502SOL    HW285747   3.888   8.660   2.352  0.0009  0.5986 -0.3748
59503SOL     OW85748   0.420   0.828   4.228 -0.0108  0.3934  0.4654
59503SOL    HW185749   0.514   0.845   4.221  0.1065  0.0112  1.0142
59503SOL    HW285750   0.397   0.786   4.145  0.1933  0.9650  0.1150
59504SOL     OW85751  12.309   2.463   3.579  0.4345 -0.5570 -0.8044
59504SOL    HW185752  12.390   2.513   3.590  0.4772 -0.8594  0.4137
59504SOL    HW285753  12.289   2.431   3.667  0.1669 -2.3246 -1.4748
59505SOL     OW85754   2.989   2.461  11.186 -0.1843 -0.0365  0.3990
59505SOL    HW185755   3.078   2.434  11.165 -0.6610 -1.1489 -0.3194
59505SOL    HW285756   2.969   2.418  11.269 -1.1557 -2.5964 -1.0358
59506SOL     OW85757   7.071   5.882   0.887  0.6539 -0.3210  0.4607
59506SOL    HW185758   7.089   5.975   0.902 -0.3250 -0.0808  0.1957
59506SOL    HW285759   7.145   5.837   0.929  2.1896  0.6225 -1.0828
59507SOL     OW85760   1.605   7.643  10.125  0.3317  0.3172 -0.3493
59507SOL    HW185761   1.513   7.670  10.117  0.5357  0.6560 -1.6915
59507SOL    HW285762   1.602   7.564  10.178 -0.3518  2.5798  3.3826
59508SOL     OW85763   7.581   9.302   1.477 -0.4166  0.0423 -0.0659
59508SOL    HW185764   7.552   9.392   1.488  1.1281  0.8302 -1.8528
59508SOL    HW285765   7.662   9.296   1.526  0.1751  0.0488 -1.0084
59509SOL     OW85766   8.043  11.526   1.528  0.0455 -0.7297 -0.4581
59509SOL    HW185767   8.006  11.614   1.518  2.1491  0.3051  0.2429
59509SOL    HW285768   7.998  11.474   1.461 -1.1859  0.8797 -0.9745
59510SOL     OW85769  10.983   3.176  12.421  0.6742 -0.1784 -0.0190
59510SOL    HW185770  10.969   3.216  12.335 -1.5148  0.4661  0.5777
59510SOL    HW285771  10.946   3.088  12.413  2.1893 -0.8377 -0.2414
59511SOL     OW85772   0.108   4.377   5.816 -0.1674 -0.1170  0.5703
59511SOL    HW185773   0.102   4.284   5.837  1.1853 -0.5482 -0.7648
59511SOL    HW285774   0.103   4.381   5.721 -1.1561  1.2802  0.6499
59512SOL     OW85775  10.113   5.833   3.853  0.1152  0.0182  0.2695
59512SOL    HW185776  10.104   5.927   3.873  2.1398  0.2650  0.3093
59512SOL    HW285777  10.067   5.822   3.770 -0.3118  1.0077  0.3500
59513SOL     OW85778   6.556   1.280   7.690 -0.0422  0.8031  0.0158
59513SOL    HW185779   6.497   1.254   7.760 -1.1107  1.4338 -0.6152
59513SOL    HW285780   6.644   1.265   7.725 -0.5611  0.6586  1.3025
59514SOL     OW85781   0.048   3.348   0.588  0.5248 -0.3125 -0.3464
59514SOL    HW185782  -0.030   3.301   0.559 -0.5171  0.4645  1.0892
59514SOL    HW285783   0.019   3.438   0.600  2.2025  0.5125 -1.9135
59515SOL     OW85784  12.644   5.229  10.383  0.3878  0.2893 -0.2161
59515SOL    HW185785  12.627   5.137  10.365  0.6207  0.2137 -0.0525
59515SOL    HW285786  12.725   5.248  10.335  0.6342  0.2672  0.1836
59516SOL     OW85787   4.504  10.536   8.939  0.1315 -0.7744 -0.2873
59516SOL    HW185788   4.409  10.546   8.944  0.0992 -1.6399  2.4383
59516SOL    HW285789   4.538  10.623   8.956 -0.1760 -0.7250  0.0874
59517SOL     OW85790   9.034   4.387   6.440 -0.3448  0.3528 -0.4118
59517SOL    HW185791   9.049   4.344   6.356 -0.9868  0.1941 -0.4544
59517SOL    HW285792   9.029   4.316   6.504  3.4381  0.5880  0.3675
59518SOL     OW85793   9.310   7.762  10.925 -0.0271  0.2244 -0.0932
59518SOL    HW185794   9.386   7.821  10.920 -0.7118  1.3715  2.0025
59518SOL    HW285795   9.342   7.687  10.974  0.1898 -0.0708 -0.6747
59519SOL     OW85796   0.460   0.097  11.785  0.8399  0.1547 -0.1482
59519SOL    HW185797   0.502   0.074  11.701 -0.3312 -3.2303  0.0424
59519SOL    HW285798   0.491   0.030  11.846 -1.3066  0.2617  1.1382
59520SOL     OW85799   3.372  11.876   0.978  0.1985 -0.2261  0.4114
59520SOL    HW185800   3.331  11.913   1.057  1.6081  1.6601  0.3198
59520SOL    HW285801   3.342  11.932   0.907 -2.2579 -2.7700 -0.7709
59521SOL     OW85802   7.840  12.626  10.585  0.0158 -0.0506  0.2651
59521SOL    HW185803   7.844  12.674  10.668  0.4662  2.4868 -1.1161
59521SOL    HW285804   7.931  12.605  10.565  0.1842  1.4998 -0.7140
59522SOL     OW85805   9.547   5.307  12.161 -0.9234 -0.5371  0.4053
59522SOL    HW185806   9.531   5.399  12.138 -0.5045 -0.7980 -1.0561
59522SOL    HW285807   9.615   5.310  12.228 -1.8623  0.2599  1.3492
59523SOL     OW85808  11.883   2.598   3.746 -0.6958 -0.2638  0.1859
59523SOL    HW185809  11.950   2.567   3.806  0.0803 -0.6232 -0.8401
59523SOL    HW285810  11.810   2.624   3.802 -0.5578 -1.9507  1.1920
59524SOL     OW85811  10.896   3.027   6.270 -0.3123  0.1281 -0.5354
59524SOL    HW185812  10.920   2.935   6.278 -3.1463 -0.8457 -1.9891
59524SOL    HW285813  10.881   3.056   6.360 -1.5325 -1.5402 -0.1549
59525SOL     OW85814   4.341   7.449   3.195  0.5100  0.1662 -0.5245
59525SOL    HW185815   4.404   7.480   3.130  1.4155  0.7563  0.6094
59525SOL    HW285816   4.276   7.519   3.201 -1.2204 -1.1038 -2.8493
59526SOL     OW85817   8.716   7.371   6.808  0.0004 -0.3109  0.0654
59526SOL    HW185818   8.739   7.352   6.899  0.7222  1.4962  0.2974
59526SOL    HW285819   8.630   7.413   6.813 -0.2552 -0.8078 -0.1508
59527SOL     OW85820   2.927   5.855  11.022  0.7345  0.6396 -0.4270
59527SOL    HW185821   2.901   5.790  11.087  0.3691 -1.6486 -2.6761
59527SOL    HW285822   2.854   5.917  11.018  0.0148 -0.1613  0.1483
59528SOL     OW85823   8.381   8.958   3.447 -0.1157 -0.5583  0.0595
59528SOL    HW185824   8.304   8.945   3.391  0.5722 -0.9301 -0.8138
59528SOL    HW285825   8.381   9.052   3.465 -0.6030 -0.5036 -0.1858
59529SOL     OW85826   7.232  11.408   9.017  0.3393  0.2508  0.3103
59529SOL    HW185827   7.285  11.438   8.944 -0.8402  0.6906 -0.3875
59529SOL    HW285828   7.235  11.480   9.080 -0.7920  0.9928 -0.4619
59530SOL     OW85829   3.157   1.458   5.027  0.7082 -0.0217 -0.2681
59530SOL    HW185830   3.190   1.415   5.106 -1.1761  2.0101  1.7648
59530SOL    HW285831   3.208   1.539   5.020  1.3637 -0.5116 -1.6342
59531SOL     OW85832   7.737  11.114   9.022 -0.1954 -0.5778  0.4792
59531SOL    HW185833   7.809  11.122   9.085  0.0640 -1.3481  0.2898
59531SOL    HW285834   7.662  11.088   9.076 -0.1273 -0.6042  0.5635
59532SOL     OW85835   6.945   4.804   1.109 -0.5110 -0.4874  0.1112
59532SOL    HW185836   7.006   4.781   1.180 -0.4346  0.1782  0.2709
59532SOL    HW285837   6.866   4.753   1.127 -0.3462 -0.6258  0.4455
59533SOL     OW85838   8.285  11.067   3.259  0.0372 -0.0512  0.2218
59533SOL    HW185839   8.347  11.120   3.309 -0.5237  0.6760  0.1673
59533SOL    HW285840   8.215  11.128   3.235 -0.4045 -0.7176 -0.2292
59534SOL     OW85841   1.341   9.557   6.201 -0.2038  0.1688  0.2182
59534SOL    HW185842   1.285   9.490   6.160  0.8855 -0.5033 -0.2281
59534SOL    HW285843   1.317   9.638   6.157  0.1502 -0.3564 -0.9884
59535SOL     OW85844   6.961  11.026   3.567  0.8515 -0.3465  0.3827
59535SOL    HW185845   7.056  11.029   3.560  0.8195 -0.6890 -0.2094
59535SOL    HW285846   6.942  10.942   3.609  0.6816 -1.6395 -2.1185
59536SOL     OW85847   5.825   4.545   7.810  0.5553  0.3275  0.4731
59536SOL    HW185848   5.776   4.598   7.872  0.5676  1.2419 -0.2797
59536SOL    HW285849   5.908   4.592   7.798  0.1545  0.7257 -0.9863
59537SOL     OW85850   4.323   7.567   0.742  0.3184 -0.3395 -0.8203
59537SOL    HW185851   4.350   7.502   0.807  0.6195  0.6578  0.0846
59537SOL    HW285852   4.389   7.562   0.673  0.8842 -0.3260 -0.2884
59538SOL     OW85853  11.463  11.425   2.465  0.3166 -0.4176 -0.1010
59538SOL    HW185854  11.533  11.430   2.400  1.4794 -2.3001  0.9169
59538SOL    HW285855  11.502  11.460   2.545 -0.7139  0.7728 -0.0937
59539SOL     OW85856   4.550  12.534   6.425  0.3588 -0.0520 -0.1450
59539SOL    HW185857   4.515  12.535   6.336 -0.8672  2.9354  0.2621
59539SOL    HW285858   4.632  12.584   6.419  0.3617  0.0114  0.3744
59540SOL     OW85859   3.580   5.678  11.157 -0.0911 -0.3133  0.5501
59540SOL    HW185860   3.547   5.731  11.230  2.4428  0.5551  1.1613
59540SOL    HW285861   3.612   5.598  11.198  2.1769  0.5527  0.6264
59541SOL     OW85862   4.791   9.197   7.804 -0.0139 -0.3561  0.7014
59541SOL    HW185863   4.842   9.273   7.832  0.3683 -0.4450  0.2522
59541SOL    HW285864   4.745   9.226   7.726 -1.2312 -0.0505  1.5001
59542SOL     OW85865  11.912   2.448   7.236 -0.4246  0.2416 -0.1685
59542SOL    HW185866  11.924   2.401   7.154  0.3555  0.3351 -0.1170
59542SOL    HW285867  12.000   2.480   7.259 -0.4619 -0.4690  1.1032
59543SOL     OW85868   3.908   6.435   6.411 -0.6032 -0.5050  0.2325
59543SOL    HW185869   3.988   6.470   6.373 -0.7717 -1.6650 -1.2742
59543SOL    HW285870   3.846   6.508   6.409 -0.7035 -0.5920 -2.0882
59544SOL     OW85871   9.181   2.945   7.651 -0.4752  0.3162 -0.2026
59544SOL    HW185872   9.137   2.974   7.572  0.2781 -0.3214 -0.8688
59544SOL    HW285873   9.260   2.999   7.656  0.3308 -0.7478 -0.8144
59545SOL     OW85874   6.114   9.749   0.904 -0.0743  0.2783  0.4173
59545SOL    HW185875   6.138   9.657   0.888 -1.6502  0.1145 -1.4105
59545SOL    HW285876   6.172   9.777   0.975  0.2394 -2.2181  1.2419
59546SOL     OW85877   0.652   2.125  11.356 -0.1945 -0.6344  0.2345
59546SOL    HW185878   0.728   2.138  11.299  0.2196 -1.1008  0.6745
59546SOL    HW285879   0.670   2.180  11.432 -0.0975 -1.0691  0.5266
59547SOL     OW85880   7.286   5.715   0.982 -0.0204 -0.3874  0.4107
59547SOL    HW185881   7.231   5.673   1.048  0.1850 -1.1133  0.1388
59547SOL    HW285882   7.268   5.666   0.902 -1.0825  1.1665 -0.3466
59548SOL     OW85883   5.028   3.557   9.086  0.2368 -0.3440 -0.0435
59548SOL    HW185884   5.070   3.625   9.034 -0.5375  0.5019  0.4100
59548SOL    HW285885   4.998   3.493   9.022 -1.1061  0.9041 -0.7105
59549SOL     OW85886   9.491   7.407   1.331  0.1450  0.0667 -0.1492
59549SOL    HW185887   9.428   7.478   1.338 -1.1746 -1.1201  0.3619
59549SOL    HW285888   9.508   7.399   1.237 -0.9575 -0.0049 -0.3560
59550SOL     OW85889   7.674   7.062   2.284 -0.2284  0.2268  0.3476
59550SOL    HW185890   7.741   7.094   2.224 -1.3370 -0.1392 -1.1640
59550SOL    HW285891   7.674   6.967   2.272 -1.3856  0.2661 -0.1444
59551SOL     OW85892   4.123   7.094   2.496 -0.0039  0.0532 -0.2231
59551SOL    HW185893   4.201   7.148   2.502  0.8944 -1.3024  0.9231
59551SOL    HW285894   4.151   7.017   2.446 -1.6140  1.1625 -3.0679
59552SOL     OW85895   6.020   5.790   1.288 -0.0899 -0.0865  0.0956
59552SOL    HW185896   6.091   5.832   1.337  0.4908 -0.3171 -0.5203
59552SOL    HW285897   5.986   5.858   1.230 -1.1040  0.3215  1.1426
59553SOL     OW85898   9.935   7.990   1.811 -0.0421  0.3328  0.3035
59553SOL    HW185899   9.922   8.084   1.801  2.7789  0.7382 -0.5794
59553SOL    HW285900   9.985   7.964   1.733  0.2828 -1.6627  1.1062
59554SOL     OW85901   4.144   1.563   4.774  0.0100  0.1429  0.0335
59554SOL    HW185902   4.139   1.537   4.681 -1.8140  3.4490 -0.9382
59554SOL    HW285903   4.232   1.599   4.783  1.2365 -2.6443  0.4709
59555SOL     OW85904  12.647  12.369  10.355  0.8012 -0.5172 -0.4549
59555SOL    HW185905  12.666  12.454  10.316 -1.1172 -0.0338 -0.4122
59555SOL    HW285906  12.665  12.381  10.448  3.1543 -0.9999 -0.7872
59556SOL     OW85907  12.538   3.755   2.065  0.1254  0.3540 -0.2673
59556SOL    HW185908  12.449   3.789   2.066  0.1673  0.6883 -2.2897
59556SOL    HW285909  12.556   3.738   1.972  1.3103 -2.0557  0.3100
59557SOL     OW85910   0.845  12.641   2.371  0.4332 -0.7828  0.3375
59557SOL    HW185911   0.801  12.605   2.448 -1.0567 -0.4124 -0.3050
59557SOL    HW285912   0.922  12.585   2.359  0.4892 -1.0688  1.8670
59558SOL     OW85913   6.485  11.521  11.881 -0.7390  0.3548 -0.0440
59558SOL    HW185914   6.556  11.515  11.817 -0.0008  2.2431  0.5327
59558SOL    HW285915   6.483  11.435  11.922 -0.6221 -0.6049 -1.9404
59559SOL     OW85916   3.121   8.139  10.696 -0.2037  0.0216 -0.4544
59559SOL    HW185917   3.066   8.066  10.723  1.6165 -0.7554  1.3407
59559SOL    HW285918   3.096   8.211  10.754  0.0742 -0.0774 -0.2104
59560SOL     OW85919  11.070   7.926   5.349  0.2191 -0.4831  0.0489
59560SOL    HW185920  11.083   7.996   5.285  2.4564 -0.1048  0.7970
59560SOL    HW285921  11.067   7.846   5.297  1.1525 -0.1050 -0.6308
59561SOL     OW85922   2.165   8.060   6.079  1.1489  0.3298 -0.0225
59561SOL    HW185923   2.140   8.012   6.158  3.0110  1.0419  1.0626
59561SOL    HW285924   2.082   8.078   6.035  0.1472 -1.0351  1.1956
59562SOL     OW85925  12.637  10.214   3.031  0.2477  0.6817 -0.2704
59562SOL    HW185926  12.637  10.141   3.093  1.0623  1.1221  0.2624
59562SOL    HW285927  12.595  10.179   2.953  0.5287 -0.3299  0.0167
59563SOL     OW85928  12.689   4.425  12.447  0.1637  0.0024 -0.6670
59563SOL    HW185929  12.696   4.499  12.387 -0.5843 -1.5830 -2.7844
59563SOL    HW285930  12.780   4.404  12.469  0.4498  0.5090 -1.3346
59564SOL     OW85931  11.479   9.569   5.719  0.3863 -0.3608  0.0905
59564SOL    HW185932  11.523   9.651   5.741  2.9323 -0.5919 -3.2972
59564SOL    HW285933  11.510   9.508   5.786 -0.8529  1.1284  2.1420
59565SOL     OW85934   8.329   3.952  11.560  0.4968  0.0410 -0.1235
59565SOL    HW185935   8.243   3.909  11.565 -1.1684  2.9890 -0.8800
59565SOL    HW285936   8.340   3.994  11.646  0.5391  0.7613 -0.4758
59566SOL     OW85937   3.527   2.294   8.347  0.1046 -0.1516 -0.4447
59566SOL    HW185938   3.484   2.320   8.429  1.6430 -1.6013  0.8940
59566SOL    HW285939   3.517   2.199   8.345  1.8683 -0.3498 -0.8760
59567SOL     OW85940   6.892   7.288   3.119  0.4642  0.2139 -0.0869
59567SOL    HW185941   6.974   7.243   3.101 -0.6418 -1.8813 -0.3104
59567SOL    HW285942   6.830   7.251   3.055 -0.3928  2.6672 -0.8098
59568SOL     OW85943   8.159   6.017  11.023  0.8312 -0.0932  0.1220
59568SOL    HW185944   8.098   5.996  11.093 -0.3832 -0.3005 -0.9660
59568SOL    HW285945   8.237   5.965  11.043  0.2827 -0.6021  1.0000
59569SOL     OW85946   2.617  11.144   1.020 -0.0917 -0.3550  0.2800
59569SOL    HW185947   2.603  11.167   0.928  0.3390 -0.2176  0.2475
59569SOL    HW285948   2.712  11.133   1.028 -0.1953 -1.1687  0.5182
59570SOL     OW85949   2.763  12.345   9.624 -0.0110  0.1163  0.0703
59570SOL    HW185950   2.847  12.386   9.603 -0.3124 -0.0212 -1.5272
59570SOL    HW285951   2.785  12.276   9.686  1.2723 -0.8118 -1.3616
59571SOL     OW85952  11.118   4.765   9.729 -0.2975  0.0420 -0.0157
59571SOL    HW185953  11.201   4.812   9.729 -0.1038 -0.2720 -1.0985
59571SOL    HW285954  11.142   4.673   9.721 -0.7436 -0.0602 -0.2380
59572SOL     OW85955   5.987  10.222   8.349  0.0035  0.4891 -0.0909
59572SOL    HW185956   5.983  10.154   8.417  0.8206  0.2158 -0.3046
59572SOL    HW285957   6.018  10.176   8.272 -0.9711  0.7885 -0.6830
59573SOL     OW85958   0.894  11.402   7.747 -0.2800 -0.3123  0.1698
59573SOL    HW185959   0.987  11.424   7.751 -0.4003  0.0538  2.4183
59573SOL    HW285960   0.851  11.472   7.795 -1.8237 -0.1488 -1.3604
59574SOL     OW85961   4.556   7.772   3.625  0.0722  0.1831 -0.2870
59574SOL    HW185962   4.623   7.713   3.590 -1.7427 -1.3687 -1.3510
59574SOL    HW285963   4.502   7.795   3.549 -1.9299 -0.4643  0.8673
59575SOL     OW85964   0.398   7.488  10.436  0.0273  0.1900  0.3219
59575SOL    HW185965   0.413   7.468  10.528  1.0747  0.0201  0.1339
59575SOL    HW285966   0.398   7.403  10.393  0.9550  0.3412 -0.0091
59576SOL     OW85967   8.052   7.024   4.340  0.3628 -0.0457  0.4617
59576SOL    HW185968   8.026   6.977   4.260  0.4923 -1.4814  1.2225
59576SOL    HW285969   8.096   7.103   4.308 -1.4320  0.4900 -0.8631
59577SOL     OW85970   9.105   9.240   3.681  0.3572  0.5414 -0.0328
59577SOL    HW185971   9.020   9.253   3.639  0.5903  1.1353 -0.3388
59577SOL    HW285972   9.159   9.312   3.648 -0.0046  2.2631  2.7512
59578SOL     OW85973   4.672  10.503   3.978  0.0925 -0.4379 -0.1585
59578SOL    HW185974   4.709  10.548   3.903  1.7634  0.1614  0.9481
59578SOL    HW285975   4.673  10.568   4.048 -2.2016 -0.7253  0.2141
59579SOL     OW85976   6.766  11.719  11.973  0.1370 -0.2718 -0.8765
59579SOL    HW185977   6.796  11.642  12.021 -0.2556  0.3990  0.4905
59579SOL    HW285978   6.795  11.704  11.883  2.2726 -0.8508 -0.1513
59580SOL     OW85979   3.192  12.317  11.106 -0.4947 -0.2419  0.0175
59580SOL    HW185980   3.253  12.390  11.115  0.8384 -1.3205  0.0148
59580SOL    HW285981   3.184  12.282  11.195 -0.8315 -0.3406 -0.0497
59581SOL     OW85982   2.918   6.988   4.727 -0.0603 -0.2786 -0.3466
59581SOL    HW185983   2.897   6.956   4.815 -0.6897 -1.3263 -0.8548
59581SOL    HW285984   2.857   6.941   4.670 -0.5501  1.3533 -1.2136
59582SOL     OW85985  10.327  10.378   1.556 -0.0887  0.0518  0.2332
59582SOL    HW185986  10.384  10.359   1.630  0.0850 -1.6785 -0.3001
59582SOL    HW285987  10.335  10.302   1.499 -3.5048 -0.6744  0.4922
59583SOL     OW85988   3.630   7.544   7.856 -0.3260  0.0618  0.1361
59583SOL    HW185989   3.705   7.536   7.798  0.7366  0.2259  1.4541
59583SOL    HW285990   3.595   7.455   7.862  0.7183 -0.3226  0.7400
59584SOL     OW85991   6.990   9.870   5.194  0.1351 -0.1240 -0.3980
59584SOL    HW185992   7.050   9.876   5.120 -0.8345  1.0697 -1.1104
59584SOL    HW285993   7.047   9.863   5.271  1.1580 -0.2911 -1.1591
59585SOL     OW85994   4.982  11.866   4.582 -0.1941 -0.0451  0.3022
59585SOL    HW185995   5.048  11.932   4.604  1.3583 -1.3335 -0.2446
59585SOL    HW285996   4.960  11.825   4.665 -0.5433  0.5934  0.5297
59586SOL     OW85997  12.291   4.707   3.768  0.0744 -0.3524  0.2213
59586SOL    HW185998  12.303   4.722   3.675  0.7003  0.4886  0.4173
59586SOL    HW285999  12.328   4.620   3.784 -2.1375 -1.5192 -0.6799
59587SOL     OW86000   7.916   7.704   8.830  0.2251 -0.4151  0.2140
59587SOL    HW186001   7.837   7.669   8.871 -0.6403  3.0328  1.9196
59587SOL    HW286002   7.883   7.770   8.769  1.7235  0.5092  0.3644
59588SOL     OW86003   1.095   7.385   2.527  0.2276 -0.3850  0.0115
59588SOL    HW186004   1.027   7.345   2.581  0.6554  0.9237  1.5924
59588SOL    HW286005   1.056   7.466   2.494 -1.3811 -2.7951 -4.8770
59589SOL     OW86006   5.659   7.266   5.090  0.4449  0.0304 -0.1816
59589SOL    HW186007   5.692   7.197   5.032 -0.9505  0.2030 -1.2389
59589SOL    HW286008   5.574   7.290   5.052 -0.9057 -0.3790  2.3668
59590SOL     OW86009   9.423  12.159  11.790 -0.3102  0.5742 -0.1274
59590SOL    HW186010   9.514  12.130  11.780  0.0218  0.9063  1.7082
59590SOL    HW286011   9.425  12.253  11.770 -0.3084  0.5293 -0.3418
59591SOL     OW86012   3.698  11.377   6.716 -0.1812  0.3671  0.1859
59591SOL    HW186013   3.681  11.471   6.720 -0.9788  0.2986 -1.1339
59591SOL    HW286014   3.612  11.336   6.724 -0.0847 -0.1689 -1.2405
59592SOL     OW86015   8.518   9.350   5.425  0.8007  0.2162  0.1365
59592SOL    HW186016   8.557   9.307   5.501  0.9357  0.1380  0.0235
59592SOL    HW286017   8.513   9.281   5.358 -2.7033 -0.7549  1.2137
59593SOL     OW86018  11.580   6.494  12.697  0.0890  0.4547  0.3269
59593SOL    HW186019  11.487   6.515  12.698 -0.0031  0.0637  0.2689
59593SOL    HW286020  11.608   6.516  12.608 -0.4853 -1.6401 -0.4309
59594SOL     OW86021   0.943   2.614   7.299 -0.2083  0.6609  0.0890
59594SOL    HW186022   1.012   2.679   7.314  2.6351 -2.3175  1.1298
59594SOL    HW286023   0.958   2.583   7.209 -0.7448  0.5953  0.0184
59595SOL     OW86024   6.718   3.501  10.320  0.1313 -0.5334 -0.7619
59595SOL    HW186025   6.743   3.537  10.235 -1.2187  0.5664 -0.7382
59595SOL    HW286026   6.773   3.423  10.331  2.4263  0.9203 -1.2961
59596SOL     OW86027   8.358   6.584   7.896  0.0231  0.7682  0.2235
59596SOL    HW186028   8.308   6.503   7.891 -0.0908  0.8418  0.1462
59596SOL    HW286029   8.400   6.581   7.982  1.0886  0.0214 -0.3008
59597SOL     OW86030   2.008   1.165   3.332  0.1985 -0.0662  0.9976
59597SOL    HW186031   2.077   1.100   3.343  2.6483  2.1644 -0.0101
59597SOL    HW286032   1.955   1.131   3.259  0.8755 -1.3279  1.0630
59598SOL     OW86033   4.852   5.217   2.757  0.7476 -0.0411 -0.7476
59598SOL    HW186034   4.914   5.253   2.695  0.4788 -1.3358 -1.8174
59598SOL    HW286035   4.906   5.181   2.827  1.3104 -1.7717 -1.9982
59599SOL     OW86036   3.712   3.212  11.930  0.5567  0.0196 -0.2799
59599SOL    HW186037   3.783   3.227  11.992  1.0032 -0.4067 -0.6801
59599SOL    HW286038   3.649   3.158  11.977  1.9249 -2.2122 -0.8777
59600SOL     OW86039   8.903  11.443   6.617  0.9217  0.6486  0.4494
59600SOL    HW186040   8.979  11.458   6.560  0.8940 -2.1475 -0.4760
59600SOL    HW286041   8.837  11.405   6.559 -0.4790  1.1447  1.6622
59601SOL     OW86042   8.881   9.641   5.495 -0.5480 -0.8389  0.0575
59601SOL    HW186043   8.865   9.717   5.439 -0.6762 -1.2304 -0.4511
59601SOL    HW286044   8.896   9.678   5.582 -1.3926 -0.2824 -0.0177
59602SOL     OW86045  12.697   0.502  11.772  0.0402 -0.7387 -0.7754
59602SOL    HW186046  12.672   0.493  11.680  0.3850  0.7338 -1.0512
59602SOL    HW286047  12.658   0.426  11.815 -2.5772 -0.0110 -1.6503
59603SOL     OW86048   2.040   6.696   5.755 -0.6447  0.2265 -0.2791
59603SOL    HW186049   2.133   6.713   5.771 -0.2231 -0.9780 -1.3111
59603SOL    HW286050   2.037   6.664   5.665 -2.2440  1.6163 -0.7802
59604SOL     OW86051   4.742   5.547  10.782  0.4618  0.2944  0.2083
59604SOL    HW186052   4.659   5.513  10.749 -0.8812  2.0520  1.5387
59604SOL    HW286053   4.791   5.573  10.704 -1.2476  1.3906 -0.5474
59605SOL     OW86054   9.421  12.609  10.134 -0.3882  0.1074  0.2384
59605SOL    HW186055   9.363  12.629  10.207 -1.7700  0.3478 -0.8681
59605SOL    HW286056   9.507  12.597  10.173 -0.9188  1.1042  1.7767
59606SOL     OW86057   9.374  10.999   4.245  0.5989  0.2117 -0.1948
59606SOL    HW186058   9.336  10.932   4.303  0.0756 -0.5542 -1.3717
59606SOL    HW286059   9.310  11.070   4.246 -1.1258 -1.1596 -2.3300
59607SOL     OW86060   4.867   8.643   2.282  0.2276  0.0046  0.1009
59607SOL    HW186061   4.801   8.617   2.218  1.0037  2.1222 -1.7090
59607SOL    HW286062   4.835   8.725   2.318  1.0483  0.1485  0.5260
59608SOL     OW86063   0.369   3.410  11.572  0.3638  0.2399 -0.2379
59608SOL    HW186064   0.359   3.411  11.667 -1.0413 -0.3496 -0.3608
59608SOL    HW286065   0.356   3.501  11.545 -0.6147  0.1813  0.0157
59609SOL     OW86066   3.730   5.893  11.070 -0.1359 -0.1692  0.1641
59609SOL    HW186067   3.741   5.951  11.145  0.3064  0.2848 -0.2431
59609SOL    HW286068   3.671   5.825  11.101 -0.4610  0.3581  0.7295
59610SOL     OW86069   2.657   0.058   2.037 -0.0417  0.5449 -0.0231
59610SOL    HW186070   2.647  -0.026   1.993 -0.5758  0.6073 -0.0316
59610SOL    HW286071   2.574   0.103   2.022 -0.3913  0.4212  1.3522
59611SOL     OW86072   4.687   7.993   9.647  0.8891  0.2012 -0.3954
59611SOL    HW186073   4.717   7.902   9.645  0.0429 -0.1110  0.6965
59611SOL    HW286074   4.606   7.993   9.597  0.5172  0.2116  0.2030
59612SOL     OW86075   3.924   3.157   5.269  0.1787 -0.4480  0.1651
59612SOL    HW186076   3.853   3.115   5.221  0.2057  0.3409 -0.5855
59612SOL    HW286077   3.886   3.236   5.306  0.9395  0.6363 -1.2802
59613SOL     OW86078  12.077   0.160   7.417 -0.3099  0.3636 -0.7504
59613SOL    HW186079  12.127   0.150   7.498 -1.6623  0.8805  0.1858
59613SOL    HW286080  12.026   0.080   7.410 -0.8138  0.6665 -0.6312
59614SOL     OW86081   0.098   3.553   9.464 -0.4275 -0.2244  0.3097
59614SOL    HW186082   0.154   3.475   9.458  0.3869  0.4355 -1.4394
59614SOL    HW286083   0.019   3.530   9.415 -0.4765 -0.1805  0.3675
59615SOL     OW86084   8.483   4.797   2.875  0.0689 -0.5069 -0.9467
59615SOL    HW186085   8.451   4.887   2.868 -1.7825 -1.1842 -1.7788
59615SOL    HW286086   8.472   4.761   2.787  0.1228 -1.7612 -0.4591
59616SOL     OW86087   5.933   1.912   2.515  0.5412 -0.1756 -0.0450
59616SOL    HW186088   5.914   1.833   2.465  0.7775 -0.2795  0.0262
59616SOL    HW286089   5.904   1.984   2.459  0.0735 -0.3216  0.0039
59617SOL     OW86090   9.724   8.091   8.485  0.0248  0.8271  0.4890
59617SOL    HW186091   9.805   8.042   8.469 -0.8230 -0.7649  0.8530
59617SOL    HW286092   9.659   8.049   8.428 -1.0670  0.5394  1.8793
59618SOL     OW86093   1.551  11.961   1.493  0.3467 -0.2799 -0.1494
59618SOL    HW186094   1.462  11.979   1.463  0.6479  0.5692 -0.5644
59618SOL    HW286095   1.558  12.005   1.577 -0.4356 -2.5054  1.1783
59619SOL     OW86096   1.616  12.661   9.832  0.2358 -0.0773 -0.4141
59619SOL    HW186097   1.588  12.673   9.922 -0.9873 -1.8988 -0.4906
59619SOL    HW286098   1.712  12.662   9.836  0.1888  0.1493  0.8502
59620SOL     OW86099   2.988   9.127   6.021  0.2810  0.2147  0.4210
59620SOL    HW186100   3.039   9.062   6.069  1.5579  0.8590 -0.0310
59620SOL    HW286101   3.026   9.211   6.045 -0.0163  0.6513 -0.5816
59621SOL     OW86102   2.052   6.360  10.628  0.0984  0.1077  0.0136
59621SOL    HW186103   1.973   6.353  10.682  0.5310  0.5376  0.7255
59621SOL    HW286104   2.089   6.272  10.629  0.0156  0.0747  0.2834
59622SOL     OW86105   0.574   5.293  11.301  0.2866  0.0195  0.2191
59622SOL    HW186106   0.512   5.277  11.373 -1.0318  0.2318 -0.8384
59622SOL    HW286107   0.616   5.376  11.324 -0.1015  0.0791  0.7486
59623SOL     OW86108   3.681   2.221  10.089  0.2885 -0.4689 -0.0068
59623SOL    HW186109   3.775   2.209  10.075  0.4676 -1.9295  1.9365
59623SOL    HW286110   3.643   2.136  10.066 -0.5936  0.1390 -0.8599
59624SOL     OW86111   1.871   6.629  10.571 -0.2194  0.1796 -0.3309
59624SOL    HW186112   1.917   6.549  10.595 -1.2137 -1.5730 -3.6635
59624SOL    HW286113   1.781   6.616  10.604  0.2870  1.3831  1.7506
59625SOL     OW86114   2.264   6.988   4.575  0.4683 -0.2458 -0.1096
59625SOL    HW186115   2.248   6.931   4.500 -1.4754 -0.3710  0.3578
59625SOL    HW286116   2.276   7.075   4.537 -1.4116 -0.1398 -0.5682
59626SOL     OW86117   5.264   2.615  12.191  0.3154 -0.2252 -0.1083
59626SOL    HW186118   5.224   2.603  12.277 -0.5592  0.1737 -0.4399
59626SOL    HW286119   5.358   2.609  12.207  0.1649 -0.1700  0.8723
59627SOL     OW86120   8.919   1.668   5.469 -0.0504  0.2042 -0.1078
59627SOL    HW186121   8.921   1.759   5.440  0.2129  0.3938  0.4868
59627SOL    HW286122   8.826   1.648   5.480 -0.1239  0.3062 -0.5295
59628SOL     OW86123   2.484   8.247   9.474 -0.3300  0.3740 -0.3693
59628SOL    HW186124   2.486   8.216   9.383 -1.7669 -1.6010  0.1917
59628SOL    HW286125   2.551   8.195   9.518 -0.4389  0.4795 -0.0812
59629SOL     OW86126  10.597   1.507   4.068 -0.7380  0.0400  0.3498
59629SOL    HW186127  10.561   1.595   4.077 -1.7490 -0.2099 -0.8763
59629SOL    HW286128  10.523   1.454   4.037 -0.7473 -1.7411  3.0545
59630SOL     OW86129   8.937  12.450   3.650  0.0582  0.0452  0.4304
59630SOL    HW186130   8.907  12.442   3.560 -0.2972 -1.9904  0.6826
59630SOL    HW286131   9.011  12.510   3.646 -1.1421  1.5037 -0.9028
59631SOL     OW86132   9.462   3.088   7.013 -0.0615  0.0891  0.1809
59631SOL    HW186133   9.391   3.139   7.051 -0.2302  0.4735 -0.6293
59631SOL    HW286134   9.528   3.154   6.989 -0.0469 -0.1215 -0.3682
59632SOL     OW86135   5.958   0.986  10.808  0.0036  0.0570  0.4605
59632SOL    HW186136   5.958   0.925  10.734  2.1875 -0.1818  0.5950
59632SOL    HW286137   5.994   0.935  10.881 -1.4257  0.5091  1.5185
59633SOL     OW86138  12.040   9.735  11.638 -0.5061 -0.3478  0.1384
59633SOL    HW186139  11.957   9.780  11.624  0.4973  1.3096 -0.8943
59633SOL    HW286140  12.071   9.715  11.549  0.4117 -0.5030  0.4845
59634SOL     OW86141   2.869   1.629   1.178 -0.3599 -0.3478  0.3293
59634SOL    HW186142   2.848   1.718   1.150 -2.0260 -1.3818 -2.0217
59634SOL    HW286143   2.819   1.617   1.259 -2.3469  0.0218 -0.7787
59635SOL     OW86144   8.423   4.821   8.626  0.2496  0.6564 -0.5363
59635SOL    HW186145   8.391   4.898   8.578 -0.0452 -0.5475 -2.4088
59635SOL    HW286146   8.413   4.749   8.563  2.8453 -0.4953  0.2598
59636SOL     OW86147   0.839   4.714   5.724 -0.8005 -0.2671 -0.3138
59636SOL    HW186148   0.889   4.742   5.647 -0.4642  0.5913  0.2075
59636SOL    HW286149   0.748   4.710   5.693 -0.5539 -0.8424 -0.9951
59637SOL     OW86150   2.279   2.004   4.231 -0.2215  0.0839  0.2796
59637SOL    HW186151   2.304   2.078   4.175 -0.7393  0.3538  0.3883
59637SOL    HW286152   2.186   2.020   4.250  0.2211  0.6239  2.1464
59638SOL     OW86153   8.418   4.045   9.661 -0.1965  0.0766  0.1286
59638SOL    HW186154   8.401   4.039   9.567  1.7618 -1.0401 -0.1980
59638SOL    HW286155   8.457   3.961   9.684  1.4368  1.1514  1.4774
59639SOL     OW86156   5.328   1.276   8.237 -0.0549  0.6114  0.0290
59639SOL    HW186157   5.327   1.347   8.172  0.8494  0.6706  0.0654
59639SOL    HW286158   5.294   1.316   8.316 -0.7019  0.6739 -0.2745
59640SOL     OW86159   7.232   0.280   5.046  1.0094 -0.7062 -0.5038
59640SOL    HW186160   7.292   0.259   4.975  0.3867 -3.4672 -0.3026
59640SOL    HW286161   7.287   0.320   5.113  1.7869  0.9403 -2.0353
59641SOL     OW86162   4.511   0.005   8.139  0.1193  0.0876 -0.4476
59641SOL    HW186163   4.453  -0.072   8.135  0.7556 -0.5138  1.2180
59641SOL    HW286164   4.454   0.076   8.170  0.0350 -0.2619  0.2125
59642SOL     OW86165   3.104   1.120   6.486 -0.6700 -0.3674 -0.5777
59642SOL    HW186166   3.055   1.086   6.562 -1.9091 -0.3051 -1.3259
59642SOL    HW286167   3.037   1.142   6.422  0.3571 -0.3498 -1.6825
59643SOL     OW86168   8.722   5.934  11.855  0.5322 -0.0021  0.0690
59643SOL    HW186169   8.817   5.943  11.842  0.1748  1.9385 -1.6230
59643SOL    HW286170   8.714   5.858  11.913  3.0528 -0.8573 -0.5459
59644SOL     OW86171  12.588   6.712   1.525 -0.0005  0.7638  0.5495
59644SOL    HW186172  12.503   6.748   1.550  0.1676  0.2516  1.9138
59644SOL    HW286173  12.613   6.655   1.597  0.1399 -1.4668 -1.1373
59645SOL     OW86174   9.278   7.341   4.749 -0.2844  0.5732  0.3072
59645SOL    HW186175   9.273   7.427   4.706 -4.8328  0.5870  0.3970
59645SOL    HW286176   9.213   7.346   4.819 -0.5156 -2.8746  0.4756
59646SOL     OW86177   0.342   7.305   7.879  0.0060  0.2622  0.3933
59646SOL    HW186178   0.349   7.296   7.784 -1.2854  0.8495  0.2103
59646SOL    HW286179   0.404   7.375   7.901  0.4440 -0.0005  0.0164
59647SOL     OW86180  12.341  11.784   4.728  0.6333  0.2496  0.3011
59647SOL    HW186181  12.364  11.811   4.639 -0.1734  1.6609  0.4904
59647SOL    HW286182  12.342  11.688   4.725  1.0958  0.2782 -1.0930
59648SOL     OW86183   4.669   9.792   3.659  0.2978  0.4152  0.4156
59648SOL    HW186184   4.668   9.865   3.720 -1.1991  0.1330  0.7734
59648SOL    HW286185   4.689   9.716   3.713 -0.6915  0.2138  0.5156
59649SOL     OW86186   9.708  10.294   4.651  0.0523 -0.2543  0.4464
59649SOL    HW186187   9.734  10.204   4.633 -0.4948 -0.2485 -0.4325
59649SOL    HW286188   9.695  10.333   4.565  1.1638  0.9473  0.7710
59650SOL     OW86189  10.154   2.232   3.575  0.6294  0.2733 -0.5724
59650SOL    HW186190  10.228   2.272   3.621  1.3401 -1.7549  0.1570
59650SOL    HW286191  10.078   2.285   3.602  1.6678  1.9541 -0.7681
59651SOL     OW86192   5.430   7.153  10.725 -0.0157  0.9294 -0.3685
59651SOL    HW186193   5.347   7.183  10.762 -0.3888  1.0172 -1.2461
59651SOL    HW286194   5.453   7.221  10.661  0.0417  0.2403 -1.0915
59652SOL     OW86195  10.607   0.123   0.093  0.6417 -0.1544  0.1090
59652SOL    HW186196  10.541   0.149   0.157  0.3880 -0.5351  0.0032
59652SOL    HW286197  10.685   0.173   0.118  1.1679 -1.7578  1.9501
59653SOL     OW86198   8.996   6.526   8.533 -0.2689 -0.5379  0.4455
59653SOL    HW186199   9.091   6.528   8.523 -0.3770  0.0618 -0.5631
59653SOL    HW286200   8.982   6.539   8.627  0.6568 -1.4926  0.7365
59654SOL     OW86201  11.518   0.022  10.759  0.1971  0.1791  0.3898
59654SOL    HW186202  11.546  -0.028  10.835  0.3714 -0.9102 -0.3600
59654SOL    HW286203  11.460   0.089  10.794 -0.1460 -0.6302  1.4161
59655SOL     OW86204   2.765   4.998   8.158  0.1057  0.0954 -0.2681
59655SOL    HW186205   2.826   4.925   8.158  0.5800  0.4124 -2.6052
59655SOL    HW286206   2.687   4.964   8.203  1.2313 -0.9659  0.9531
59656SOL     OW86207   8.027   9.402   0.180  0.1882 -0.2269 -0.3357
59656SOL    HW186208   8.022   9.319   0.133 -0.4296 -0.1828 -0.3577
59656SOL    HW286209   8.002   9.381   0.270 -0.5490  0.0309 -0.4708
59657SOL     OW86210   1.332  11.554   1.176  0.3543  0.2574  0.1888
59657SOL    HW186211   1.382  11.599   1.108  1.1652 -1.3068 -0.2996
59657SOL    HW286212   1.376  11.578   1.258  2.2595 -1.3966 -0.2566
59658SOL     OW86213   8.887  11.513  12.485 -0.2612 -0.1429 -0.0874
59658SOL    HW186214   8.802  11.521  12.529  0.1134  1.9298  0.3960
59658SOL    HW286215   8.944  11.476  12.552  0.4441  3.5172  1.6040
59659SOL     OW86216   1.871   5.432  10.552  0.4992  0.3788 -0.8007
59659SOL    HW186217   1.791   5.428  10.499 -0.1679  2.1139 -0.0001
59659SOL    HW286218   1.877   5.345  10.592 -1.3195  0.3633 -0.4481
59660SOL     OW86219  11.652  11.249   6.072 -0.5307 -0.0984  0.2215
59660SOL    HW186220  11.642  11.343   6.053  0.4297  0.3554  1.7903
59660SOL    HW286221  11.727  11.222   6.019 -0.9842 -0.0847 -0.4544
59661SOL     OW86222   4.237  12.088  10.045  0.1916 -0.2838 -0.0370
59661SOL    HW186223   4.206  11.999  10.030  0.2128 -0.1662 -0.8322
59661SOL    HW286224   4.191  12.117  10.124 -2.5406  0.2316 -1.6764
59662SOL     OW86225  12.215   5.937  11.339  0.3922 -0.6680 -0.1577
59662SOL    HW186226  12.131   5.980  11.318  0.8367  0.4473  0.2364
59662SOL    HW286227  12.201   5.845  11.316 -0.4900 -0.2622 -1.3933
59663SOL     OW86228  11.056   6.571  10.734  0.0733 -0.1270 -0.2039
59663SOL    HW186229  11.052   6.494  10.677  1.9726  0.1403 -0.7618
59663SOL    HW286230  11.140   6.562  10.780  0.6422  1.9150 -0.7574
59664SOL     OW86231  11.886  12.503   1.488  0.1399  0.0514 -0.3463
59664SOL    HW186232  11.960  12.557   1.461  1.2169 -2.0900 -1.9971
59664SOL    HW286233  11.926  12.426   1.528 -1.3212  0.2391  1.5968
59665SOL     OW86234   9.156   4.469   0.512  0.6140  0.8362  1.2512
59665SOL    HW186235   9.175   4.537   0.447  0.5934 -0.4254 -0.1039
59665SOL    HW286236   9.064   4.484   0.535 -0.5040 -0.7883 -1.6551
59666SOL     OW86237   4.295   6.085  12.652  0.1969 -0.0875  0.1237
59666SOL    HW186238   4.369   6.139  12.626  0.6164 -1.3915 -1.5502
59666SOL    HW286239   4.267   6.042  12.572 -0.6936 -1.6406  1.2110
59667SOL     OW86240   5.339  11.555  11.305 -0.3952  0.3867  0.5467
59667SOL    HW186241   5.425  11.512  11.302 -1.2840 -1.6313  1.7769
59667SOL    HW286242   5.346  11.617  11.378  0.0446  0.2560  0.6190
59668SOL     OW86243   8.395   0.137   6.898  0.2619 -0.1862 -0.2027
59668SOL    HW186244   8.427   0.095   6.978 -0.5995 -0.4360  0.0238
59668SOL    HW286245   8.339   0.072   6.857 -2.6705  1.3054  1.1284
59669SOL     OW86246   7.687   0.085   9.845 -0.1784  0.4725 -0.1369
59669SOL    HW186247   7.751   0.155   9.833 -0.5929  0.7621 -0.7339
59669SOL    HW286248   7.684   0.040   9.761  0.1784 -0.3558  0.2856
59670SOL     OW86249   0.691   1.162   5.787 -0.5228 -0.8104  0.3012
59670SOL    HW186250   0.658   1.193   5.703 -1.3318  0.3312  1.0063
59670SOL    HW286251   0.760   1.100   5.765 -0.6818 -0.4845 -1.1957
59671SOL     OW86252  10.098  11.749   6.140  0.2563 -0.3116 -0.1556
59671SOL    HW186253  10.179  11.741   6.089  0.2350 -0.1770 -0.2120
59671SOL    HW286254  10.090  11.666   6.186  0.5015 -0.2712 -0.0382
59672SOL     OW86255   3.754   7.042   1.686  0.3391  0.2567 -0.1901
59672SOL    HW186256   3.739   7.120   1.739  0.9161  0.4973 -0.3691
59672SOL    HW286257   3.671   6.995   1.689  0.3912  0.2155  0.9948
59673SOL     OW86258   1.764  12.296   8.670  0.4871  0.1113 -0.0458
59673SOL    HW186259   1.840  12.282   8.726  1.2507 -0.8716 -1.3000
59673SOL    HW286260   1.769  12.388   8.644  0.5738  0.3599  0.8151
59674SOL     OW86261   3.803   3.853   0.234 -0.3418  0.0396  0.0996
59674SOL    HW186262   3.728   3.838   0.291 -1.2871 -0.9974 -1.3468
59674SOL    HW286263   3.846   3.767   0.228  0.1228  0.2880 -0.2159
59675SOL     OW86264   6.334   9.304   7.447  0.2458 -0.3379 -0.1042
59675SOL    HW186265   6.413   9.357   7.443  0.1587 -0.1974 -0.0183
59675SOL    HW286266   6.285   9.341   7.521 -0.1002 -0.1399 -0.4299
59676SOL     OW86267  10.867  11.762   2.000  0.1938  0.1936 -0.4062
59676SOL    HW186268  10.956  11.733   2.019  0.0134  1.1657  2.3997
59676SOL    HW286269  10.811  11.699   2.047 -0.3820  1.8320  1.2315
59677SOL     OW86270  12.064   8.413   9.066 -0.3744  0.8437  0.6659
59677SOL    HW186271  12.075   8.380   8.977  1.4250 -0.4995  1.3343
59677SOL    HW286272  11.984   8.370   9.097 -0.3889  0.4474  0.0940
59678SOL     OW86273   0.665   6.679   0.505 -0.1655  0.2399 -0.2419
59678SOL    HW186274   0.627   6.763   0.530 -1.1951  0.3710 -2.0988
59678SOL    HW286275   0.745   6.673   0.556  0.6032  2.9447 -1.0006
59679SOL     OW86276   5.259   6.405  11.803  0.0602 -0.5471  0.1021
59679SOL    HW186277   5.174   6.361  11.795 -0.0425 -0.5801  1.2733
59679SOL    HW286278   5.249   6.463  11.878  0.6239  0.5235 -0.6255
59680SOL     OW86279   9.997   2.406  10.800  0.1660 -0.8119  0.2722
59680SOL    HW186280  10.054   2.329  10.805 -0.1951 -1.0733  0.3605
59680SOL    HW286281   9.992   2.427  10.707  1.2770 -0.1354  0.3452
59681SOL     OW86282   9.255  12.290   6.233 -0.1786 -0.1926  0.3724
59681SOL    HW186283   9.233  12.353   6.165  0.7324 -0.3249 -0.0605
59681SOL    HW286284   9.183  12.296   6.296 -0.3275  0.9603  0.1169
59682SOL     OW86285   0.816   4.529   2.417  0.6420 -0.3810 -0.5208
59682SOL    HW186286   0.855   4.445   2.439  0.2807 -0.1742  1.0750
59682SOL    HW286287   0.867   4.593   2.466 -0.4747  0.0832  0.0800
59683SOL     OW86288   9.780  10.957  12.531  0.6374 -0.4665 -0.0100
59683SOL    HW186289   9.706  11.015  12.551  0.0604 -1.1978  0.0310
59683SOL    HW286290   9.855  10.999  12.571  0.3712  0.6466 -0.6289
59684SOL     OW86291   6.284   6.852   9.947 -0.3023  0.1057 -0.5187
59684SOL    HW186292   6.227   6.918   9.907 -1.6370 -1.3022 -1.0220
59684SOL    HW286293   6.337   6.901  10.009 -0.9777  1.7169 -1.1526
59685SOL     OW86294   1.525   6.345  11.821 -0.1708  0.8579  0.1089
59685SOL    HW186295   1.484   6.276  11.769 -0.9551  0.6621  0.9595
59685SOL    HW286296   1.573   6.398  11.757 -0.9936  0.5477 -0.7925
59686SOL     OW86297   5.293  12.637   6.019  0.2058 -0.5441  0.0318
59686SOL    HW186298   5.205  12.635   6.057  0.6262 -0.2482  1.0559
59686SOL    HW286299   5.332  12.554   6.046  1.8719  1.1856  3.7383
59687SOL     OW86300   6.562   2.543   8.954  0.5256  0.3952  0.3541
59687SOL    HW186301   6.557   2.514   8.863  0.5478  2.7791 -0.4635
59687SOL    HW286302   6.642   2.595   8.958 -0.1078  1.3307  1.4255
59688SOL     OW86303   4.361  10.151   8.064  0.1377 -0.2472  0.3678
59688SOL    HW186304   4.318  10.207   8.000  1.2045  0.7402  0.4722
59688SOL    HW286305   4.415  10.091   8.012 -0.9269 -1.1380  0.2611
59689SOL     OW86306   5.590  10.640   4.978 -0.7506 -0.0104 -0.1116
59689SOL    HW186307   5.585  10.544   4.980 -0.0992 -0.0649 -0.6661
59689SOL    HW286308   5.552  10.664   4.894 -2.1004  0.3179  0.5634
59690SOL     OW86309   1.768  11.782   4.413  0.0557  0.1926  0.3240
59690SOL    HW186310   1.849  11.764   4.366 -1.1545 -0.6748 -1.5089
59690SOL    HW286311   1.779  11.737   4.497  0.5535 -1.9794 -0.8348
59691SOL     OW86312  11.063   5.140   2.227 -0.3834 -0.1483 -0.2828
59691SOL    HW186313  11.039   5.210   2.287  0.3936  0.0164 -0.1530
59691SOL    HW286314  11.059   5.060   2.281 -0.7150 -0.1361 -0.2869
59692SOL     OW86315   8.047   8.626   0.139 -0.1824  0.4998  0.1491
59692SOL    HW186316   8.053   8.590   0.227  3.7125 -0.9208 -0.5093
59692SOL    HW286317   7.978   8.574   0.096  0.1895 -1.0881  1.4018
59693SOL     OW86318  10.528   3.788   9.036 -0.3340 -0.7869  0.2096
59693SOL    HW186319  10.467   3.790   9.110  0.4608  0.2841  0.8595
59693SOL    HW286320  10.603   3.738   9.069  0.6262  0.8799  0.6463
59694SOL     OW86321  10.817   3.276   7.686 -0.1196  0.4629 -0.0527
59694SOL    HW186322  10.876   3.274   7.611  1.4852 -0.6846  1.1581
59694SOL    HW286323  10.729   3.277   7.648  0.6177  2.6615 -1.9275
59695SOL     OW86324  10.228   3.717   4.411  0.0240 -0.1211  0.4227
59695SOL    HW186325  10.286   3.788   4.383  0.3214 -0.0230  1.2577
59695SOL    HW286326  10.285   3.640   4.414  0.1099 -0.0311  1.2160
59696SOL     OW86327   4.718   6.670  11.145  0.2084 -0.0940 -0.3082
59696SOL    HW186328   4.704   6.595  11.202 -2.2942 -0.1318 -0.8567
59696SOL    HW286329   4.729   6.744  11.204 -1.6458 -0.2403  0.2810
59697SOL     OW86330   8.028   5.233  11.088 -0.6132  0.2359 -0.7621
59697SOL    HW186331   8.037   5.232  10.993 -1.3377  1.4105 -0.8661
59697SOL    HW286332   8.050   5.323  11.113 -0.0972 -0.1539  0.2206
59698SOL     OW86333   4.969  10.672   5.517 -0.8929  0.3361 -0.1193
59698SOL    HW186334   4.973  10.648   5.424 -0.2566 -1.6244  0.3636
59698SOL    HW286335   5.061  10.682   5.543 -1.0861  1.4999  0.1753
59699SOL     OW86336  12.080   4.420   7.183 -0.2327 -0.2659 -0.0631
59699SOL    HW186337  12.013   4.351   7.191 -0.5118 -0.0068 -0.1493
59699SOL    HW286338  12.043   4.494   7.231 -0.6058  0.3225 -1.2334
59700SOL     OW86339   6.114   3.378   1.817  0.0363  0.2799 -0.0921
59700SOL    HW186340   6.183   3.433   1.781  0.4906 -0.3732 -0.2393
59700SOL    HW286341   6.151   3.290   1.818 -0.6411 -0.0137  0.2298
59701SOL     OW86342   0.231  10.591  10.437 -0.0941 -0.4220  0.1953
59701SOL    HW186343   0.157  10.594  10.496 -0.0783  2.7255  0.2331
59701SOL    HW286344   0.272  10.678  10.444  2.3946 -1.3328 -1.3205
59702SOL     OW86345   6.217   5.616   8.956  0.1027  0.3893 -0.2712
59702SOL    HW186346   6.300   5.583   8.921  0.5558 -1.4436  2.1880
59702SOL    HW286347   6.153   5.548   8.934  0.0249  0.0970  0.7958
59703SOL     OW86348   9.988  12.087  11.919  0.2987 -0.3929  0.3039
59703SOL    HW186349  10.080  12.064  11.934  0.2084 -0.8484  0.1560
59703SOL    HW286350   9.992  12.159  11.855  0.5388 -0.5770  0.1101
59704SOL     OW86351   4.455   8.187   2.171  0.2909  0.0176 -0.0155
59704SOL    HW186352   4.464   8.094   2.190  0.1207 -0.3365 -1.5426
59704SOL    HW286353   4.446   8.191   2.076  1.7384  1.7071 -0.1341
59705SOL     OW86354   9.358  10.008   3.771  0.1390 -0.4782 -0.0079
59705SOL    HW186355   9.331   9.950   3.700  0.3924  0.2301 -0.7003
59705SOL    HW286356   9.394  10.085   3.726  0.7191 -0.2168  0.8928
59706SOL     OW86357   2.324   0.541   2.026 -0.5169 -0.4544  0.3643
59706SOL    HW186358   2.418   0.528   2.022 -0.4506  0.2244 -0.4309
59706SOL    HW286359   2.308   0.572   2.115 -0.2016 -2.0601  1.0164
59707SOL     OW86360  12.035  11.201   5.694  0.2385 -0.2527  0.5067
59707SOL    HW186361  11.956  11.253   5.677 -0.6084 -2.2598 -2.4774
59707SOL    HW286362  12.106  11.257   5.663 -0.6235 -0.5641 -2.3829
59708SOL     OW86363  12.090  10.254  12.422 -0.0212  0.0626 -0.0888
59708SOL    HW186364  12.033  10.314  12.373  0.7846  0.7882 -0.1571
59708SOL    HW286365  12.138  10.206  12.355 -1.9049 -1.9697 -0.0974
59709SOL     OW86366   3.343   0.990  11.101 -0.4925  0.9584 -0.5390
59709SOL    HW186367   3.354   0.946  11.186 -2.2849  0.6249 -0.4501
59709SOL    HW286368   3.428   0.980  11.059  0.3164  0.7707  1.0448
59710SOL     OW86369   5.000   2.823   2.271 -0.1660  0.2285 -0.4365
59710SOL    HW186370   5.056   2.778   2.335 -1.2096  1.2107  1.2303
59710SOL    HW286371   5.016   2.916   2.286 -3.3767  0.6397  1.2749
59711SOL     OW86372   1.604   0.976   2.435  0.1813  0.4990 -0.2277
59711SOL    HW186373   1.665   0.957   2.364 -0.5767 -0.1253 -0.7238
59711SOL    HW286374   1.518   0.951   2.401 -0.1678 -0.0285  0.9735
59712SOL     OW86375   0.088   5.984   6.540  0.4170 -0.0028  0.1551
59712SOL    HW186376   0.068   5.896   6.572  1.9266 -0.9317 -1.2681
59712SOL    HW286377   0.109   5.971   6.447 -1.8058  2.2582 -0.7828
59713SOL     OW86378  11.996   3.258   3.598  0.5981 -0.6851 -0.3708
59713SOL    HW186379  12.017   3.308   3.678  0.6929  0.0201 -0.8243
59713SOL    HW286380  11.939   3.187   3.628  1.7072 -1.2325  0.5299
59714SOL     OW86381   0.696  10.098   6.154  0.1837  0.2460 -0.2444
59714SOL    HW186382   0.650  10.016   6.171 -0.7030  0.4626 -1.5053
59714SOL    HW286383   0.696  10.143   6.239 -1.6862  0.1116 -0.1423
59715SOL     OW86384   2.672   1.518   3.519 -0.0200 -0.4127  0.2142
59715SOL    HW186385   2.590   1.483   3.554 -1.0629  2.1313  0.5831
59715SOL    HW286386   2.646   1.600   3.477  2.4625  1.0639  1.3696
59716SOL     OW86387   9.895   1.893   0.477  0.2932  0.0960 -0.5352
59716SOL    HW186388   9.950   1.902   0.555  0.6572 -0.6510 -0.6986
59716SOL    HW286389   9.954   1.863   0.409 -0.6919 -3.3100 -0.0799
59717SOL     OW86390   8.197   8.002   8.092 -0.4096 -0.5812 -0.2236
59717SOL    HW186391   8.237   8.044   8.016 -0.6310 -1.6123 -0.9359
59717SOL    HW286392   8.195   8.070   8.159  0.0778  0.2583 -1.0373
59718SOL     OW86393   8.419  11.866  12.038  0.4984 -0.3498 -0.3549
59718SOL    HW186394   8.336  11.890  11.997  1.0227  0.3111 -1.0448
59718SOL    HW286395   8.464  11.813  11.972  0.0507 -1.9406  0.5377
59719SOL     OW86396   9.285  11.350   2.747  0.6702  0.0357 -0.0829
59719SOL    HW186397   9.279  11.439   2.713  0.6720  0.0243 -0.1138
59719SOL    HW286398   9.371  11.319   2.718  0.6529  0.0097 -0.1061
59720SOL     OW86399   4.332   2.529   0.352  0.2472  0.0818  0.0122
59720SOL    HW186400   4.383   2.449   0.343  1.1016  0.6838 -0.6609
59720SOL    HW286401   4.242   2.502   0.335  0.7591 -0.4090 -2.2547
59721SOL     OW86402   1.956   1.008   8.455 -0.3407 -0.5343  0.1917
59721SOL    HW186403   2.038   0.979   8.495 -0.7673  1.4775  2.7944
59721SOL    HW286404   1.981   1.083   8.401 -0.3915 -0.2505  0.5611
59722SOL     OW86405   7.545   5.991   4.670 -0.0228 -0.2690  0.5823
59722SOL    HW186406   7.625   6.042   4.684 -0.2232 -0.0891  1.1019
59722SOL    HW286407   7.515   6.016   4.583 -1.5636  2.5433  1.7938
59723SOL     OW86408   3.918  11.711   6.604 -0.2487  0.5013 -0.2215
59723SOL    HW186409   3.981  11.666   6.547  0.4596  1.1324  0.0587
59723SOL    HW286410   3.851  11.645   6.622  0.7625 -0.4486  0.1608
59724SOL     OW86411   0.773   2.212   9.907  0.2015  0.0024 -0.2190
59724SOL    HW186412   0.689   2.213   9.861 -0.4640 -0.0506  0.9253
59724SOL    HW286413   0.801   2.304   9.909  0.5930 -0.0877 -1.3227
59725SOL     OW86414   7.973   9.562  10.467 -0.3711  0.2547 -0.5255
59725SOL    HW186415   7.951   9.471  10.487  1.2845  0.2796  1.8156
59725SOL    HW286416   8.058   9.557  10.422 -0.4211  0.6177 -0.6627
59726SOL     OW86417   4.556   6.578   1.048 -0.3850  0.0066  0.1275
59726SOL    HW186418   4.480   6.561   0.992 -0.1440  0.3279 -0.2976
59726SOL    HW286419   4.619   6.622   0.991  0.3781 -0.8251  0.3101
59727SOL     OW86420   5.684   0.800  10.283  0.0404  0.1635 -0.2970
59727SOL    HW186421   5.748   0.785  10.352  1.5195 -1.0506 -1.8357
59727SOL    HW286422   5.670   0.894  10.283  1.6153  0.4211  0.2663
59728SOL     OW86423  12.008  10.877   3.340  0.4797 -0.1565  0.3105
59728SOL    HW186424  11.914  10.883   3.325  0.7905 -0.9976 -2.7570
59728SOL    HW286425  12.024  10.785   3.361  0.5182  0.2425  2.1515
59729SOL     OW86426   8.072   9.601   1.835 -0.2470  0.1740  0.3792
59729SOL    HW186427   8.050   9.669   1.772  0.6282  0.8450  0.7931
59729SOL    HW286428   8.044   9.636   1.919 -2.1732 -1.0527  0.3158
59730SOL     OW86429   9.185  12.083   4.711  0.2915  0.1982  0.3014
59730SOL    HW186430   9.212  12.074   4.802 -0.5569 -1.7593  0.4101
59730SOL    HW286431   9.264  12.066   4.660  0.2984 -0.9446  0.6680
59731SOL     OW86432   9.441  10.235   0.095  0.0531 -0.0126  0.1347
59731SOL    HW186433   9.386  10.313   0.085 -0.7431 -0.6523 -0.5738
59731SOL    HW286434   9.386  10.162   0.066  1.2669 -0.6761 -0.5986
59732SOL     OW86435   2.017   5.626   8.206 -0.0957 -0.2004 -0.2301
59732SOL    HW186436   2.094   5.666   8.248 -0.5234 -0.9381  1.3316
59732SOL    HW286437   1.952   5.696   8.203  0.1635  0.0407 -0.2806
59733SOL     OW86438   7.431   5.671   1.414 -0.3204 -0.0917  0.7294
59733SOL    HW186439   7.507   5.617   1.394  0.0320  0.0295  1.6942
59733SOL    HW286440   7.372   5.613   1.462  0.4018  0.5502  2.4705
59734SOL     OW86441   5.704  10.876   2.360 -0.4832  0.3224  0.3421
59734SOL    HW186442   5.777  10.814   2.357 -0.1166  0.7167  1.0286
59734SOL    HW286443   5.644  10.839   2.425 -0.0528  0.9047  1.0845
59735SOL     OW86444   6.789   1.527   5.671 -0.9021 -0.0400  0.3324
59735SOL    HW186445   6.746   1.582   5.606 -0.4761  0.2230  0.2673
59735SOL    HW286446   6.866   1.491   5.625  0.2757  1.3714  1.1212
59736SOL     OW86447   1.498  12.614  11.369  0.3098 -0.1921  0.5427
59736SOL    HW186448   1.477  12.558  11.295 -1.8778  0.4585  0.6081
59736SOL    HW286449   1.467  12.566  11.446 -0.6022  0.5918  0.6919
59737SOL     OW86450   8.904   2.331   3.283 -0.4568  0.1092 -0.2169
59737SOL    HW186451   8.858   2.409   3.316 -1.6851 -1.0524  0.9569
59737SOL    HW286452   8.840   2.287   3.227 -0.4141 -0.9533  0.5387
59738SOL     OW86453  12.593   0.666   2.512  0.5674 -0.0053  0.2048
59738SOL    HW186454  12.536   0.738   2.537  0.3698 -0.3069  0.6206
59738SOL    HW286455  12.648   0.703   2.442 -0.3987  0.1735 -0.4866
59739SOL     OW86456   4.857   3.719  11.168 -0.3583  0.1325  0.4048
59739SOL    HW186457   4.761   3.715  11.171 -0.4819  2.4993  1.2701
59739SOL    HW286458   4.878   3.711  11.075 -0.9734 -5.1509  0.4210
59740SOL     OW86459   9.961   1.487   4.918 -0.2134 -0.5107  0.0210
59740SOL    HW186460  10.046   1.449   4.894  0.5372  1.5254 -0.7453
59740SOL    HW286461   9.969   1.506   5.012  1.0198  1.5060 -0.4173
59741SOL     OW86462   4.218   2.187   3.996  0.7339 -0.6171  0.3593
59741SOL    HW186463   4.278   2.149   3.932  0.3050  1.0128 -1.0802
59741SOL    HW286464   4.135   2.196   3.949  0.4669  0.8185  1.0628
59742SOL     OW86465   8.937   6.262   8.411  0.4659 -0.5001 -0.3135
59742SOL    HW186466   8.966   6.349   8.439  0.4439  0.3279 -2.6484
59742SOL    HW286467   8.980   6.202   8.472  0.8256  1.1086  1.0965
59743SOL     OW86468   2.545   6.574  10.896  0.9768 -0.1050 -0.4439
59743SOL    HW186469   2.581   6.505  10.952 -0.6718 -0.3984  0.3134
59743SOL    HW286470   2.455   6.585  10.927  0.5172  0.8319 -2.0231
59744SOL     OW86471   6.017   1.394   6.105 -0.0051 -0.1632 -0.2755
59744SOL    HW186472   5.958   1.447   6.158 -0.5008 -0.9645 -0.0091
59744SOL    HW286473   5.999   1.420   6.015 -0.7226 -0.3615 -0.1920
59745SOL     OW86474   6.175   6.204   0.185 -0.3168  0.6142  0.3787
59745SOL    HW186475   6.201   6.174   0.272  1.0877 -0.0076 -0.2188
59745SOL    HW286476   6.132   6.289   0.200 -1.6842 -0.2889  1.8152
59746SOL     OW86477   8.929   5.696   2.834  0.1177 -0.3830 -0.5723
59746SOL    HW186478   8.949   5.653   2.751  1.0772 -0.9312 -0.0724
59746SOL    HW286479   8.996   5.764   2.842  1.4380 -1.7610  0.7700
59747SOL     OW86480   0.685   3.634   4.611  0.2850 -0.1381  0.1688
59747SOL    HW186481   0.643   3.719   4.623  0.5226  0.0254 -0.1464
59747SOL    HW286482   0.626   3.572   4.655 -0.5138  0.0282 -0.6367
59748SOL     OW86483   3.695   5.988   4.284  0.3965 -0.0672  0.2675
59748SOL    HW186484   3.699   5.903   4.327  1.0872  0.3567  1.0776
59748SOL    HW286485   3.784   6.003   4.252 -0.1276 -0.4219 -1.4581
59749SOL     OW86486   7.997   5.239   4.992 -0.4478  0.8047  0.1830
59749SOL    HW186487   8.052   5.188   4.932  0.2936  0.3985  1.1954
59749SOL    HW286488   7.957   5.306   4.936 -1.2422 -0.7125 -1.1201
59750SOL     OW86489  12.593  11.336   9.252 -0.1392 -0.7762 -0.0527
59750SOL    HW186490  12.670  11.353   9.196  0.9814 -1.3667  1.2485
59750SOL    HW286491  12.518  11.356   9.196  0.9668  1.3360 -0.8899
59751SOL     OW86492   1.050   1.848   4.492  0.3881 -0.1839  0.5386
59751SOL    HW186493   1.104   1.800   4.555 -0.8107 -0.4908  1.3671
59751SOL    HW286494   1.069   1.940   4.509 -0.5286 -0.2245  1.9511
59752SOL     OW86495   5.402   9.984   9.671  0.0559 -0.7738 -0.5257
59752SOL    HW186496   5.318  10.021   9.644  0.0537 -0.2414  0.1626
59752SOL    HW286497   5.464  10.015   9.606  0.3378  1.7646  0.8115
59753SOL     OW86498   3.381  12.120   1.378  0.2283  0.5555  0.2172
59753SOL    HW186499   3.389  12.091   1.469 -0.1840  2.2942  0.8601
59753SOL    HW286500   3.458  12.086   1.334  0.4812 -0.2357  1.2439
59754SOL     OW86501   3.945  11.449  12.534  0.7654 -0.0612  0.0617
59754SOL    HW186502   3.851  11.447  12.514  0.1859  2.3404  2.0618
59754SOL    HW286503   3.980  11.518  12.479  1.3681 -0.8384 -0.5528
59755SOL     OW86504   4.786   2.223   3.453 -0.5756  0.0887 -0.1250
59755SOL    HW186505   4.848   2.290   3.427  0.5475 -0.9587 -0.1924
59755SOL    HW286506   4.808   2.146   3.401 -2.6580  0.0020 -0.9958
59756SOL     OW86507   0.725   1.503  11.638  0.5797 -0.1821  0.0015
59756SOL    HW186508   0.763   1.561  11.705 -1.8084  2.4008 -0.6538
59756SOL    HW286509   0.671   1.441  11.688  1.7720 -0.7261  0.6420
59757SOL     OW86510   6.559   0.163   1.575  0.6821 -0.6151 -0.7252
59757SOL    HW186511   6.635   0.139   1.629  0.1828 -0.5583  0.0255
59757SOL    HW286512   6.593   0.167   1.486  1.3710 -1.4471 -0.5137
59758SOL     OW86513   7.101   2.976   7.382 -0.1815  0.6561  0.4220
59758SOL    HW186514   7.169   3.002   7.444 -0.0888 -0.3975  0.7924
59758SOL    HW286515   7.065   2.895   7.420  1.5317 -1.4295 -2.0757
59759SOL     OW86516   8.183   4.560   3.955 -0.2133  0.0359 -0.1014
59759SOL    HW186517   8.130   4.531   4.029 -0.6209 -0.7226 -0.6848
59759SOL    HW286518   8.129   4.543   3.878  0.9277 -0.8924 -0.7254
59760SOL     OW86519   4.403   1.362  11.015  0.3900  0.3339  0.1383
59760SOL    HW186520   4.450   1.281  11.034 -0.2401  0.0054  0.3420
59760SOL    HW286521   4.391   1.404  11.100 -0.3894  0.0119  0.1973
59761SOL     OW86522   8.373   5.192   4.116  0.2913  0.5726 -0.0733
59761SOL    HW186523   8.301   5.155   4.167  0.9345  0.9010  1.1218
59761SOL    HW286524   8.403   5.121   4.061 -2.0046  0.8549 -1.8764
59762SOL     OW86525   8.432  12.155   1.927 -1.1448 -0.5736 -0.2068
59762SOL    HW186526   8.345  12.140   1.965 -1.0444  2.3356  1.4981
59762SOL    HW286527   8.492  12.146   2.001 -0.1466 -0.8910 -1.0260
59763SOL     OW86528  11.595   6.088  12.310 -0.0919  0.5952 -0.0806
59763SOL    HW186529  11.505   6.057  12.318  0.1190 -0.4993 -1.4381
59763SOL    HW286530  11.648   6.008  12.320  0.7512  1.2532  0.8761
59764SOL     OW86531   4.542   1.390   8.471 -0.0657 -0.5184 -0.3933
59764SOL    HW186532   4.633   1.386   8.442  0.1409  0.5231  0.1011
59764SOL    HW286533   4.547   1.414   8.563 -0.8779  0.9087 -0.7001
59765SOL     OW86534   9.677   7.755   9.319  0.3273  0.0845  0.0510
59765SOL    HW186535   9.610   7.794   9.375  1.3108  0.6731  0.8440
59765SOL    HW286536   9.632   7.738   9.237 -0.4697  1.6930  0.1138
59766SOL     OW86537   8.152   6.236   8.072 -0.4323  0.1215  0.2583
59766SOL    HW186538   8.101   6.155   8.081  0.0571 -0.1815  0.3470
59766SOL    HW286539   8.207   6.239   8.150 -0.1263  0.3095  0.0391
59767SOL     OW86540   9.106  10.069  12.010 -0.3461  0.1572  0.2576
59767SOL    HW186541   9.141   9.986  11.978  0.8078  0.8176 -0.2855
59767SOL    HW286542   9.175  10.133  11.991 -1.9594  1.5909 -1.1040
59768SOL     OW86543   5.586   8.289  12.362  0.4562 -0.0548 -0.5510
59768SOL    HW186544   5.591   8.385  12.370 -1.8579  0.0705  0.1487
59768SOL    HW286545   5.500   8.267  12.397  0.8256 -2.3928 -0.9768
59769SOL     OW86546   0.731   0.902   9.699 -0.6365 -0.2793 -0.1390
59769SOL    HW186547   0.695   0.840   9.763 -0.4524 -1.2870 -0.9948
59769SOL    HW286548   0.756   0.978   9.752  0.6395 -1.5586  1.1850
59770SOL     OW86549   5.149   8.179   1.316 -0.1655 -0.3355  0.3133
59770SOL    HW186550   5.112   8.238   1.250 -1.3088  0.7065  1.8036
59770SOL    HW286551   5.240   8.206   1.325  0.1227 -0.7656 -1.0967
59771SOL     OW86552   9.681   6.632   2.642 -0.2588  0.2437  0.7214
59771SOL    HW186553   9.621   6.586   2.701 -0.3653 -0.5020  0.0578
59771SOL    HW286554   9.716   6.704   2.694 -0.8461 -0.0070  1.4822
59772SOL     OW86555   5.356   5.898   7.255  0.3508 -0.2436 -0.3062
59772SOL    HW186556   5.392   5.986   7.270 -0.4467  0.0358  0.0274
59772SOL    HW286557   5.340   5.895   7.160  0.0747  0.0910 -0.2711
59773SOL     OW86558   8.287  10.141   2.782  0.0114 -0.0177 -0.2818
59773SOL    HW186559   8.272  10.210   2.718  1.6329  1.0616  0.4401
59773SOL    HW286560   8.375  10.158   2.816 -0.4514 -1.0766  1.5896
59774SOL     OW86561   3.766  12.014   2.897  0.1856 -0.2456 -0.3660
59774SOL    HW186562   3.827  11.959   2.946  0.7221  0.5944 -0.0646
59774SOL    HW286563   3.752  11.967   2.815  0.6581 -0.8076 -0.1352
59775SOL     OW86564  11.282  12.173   5.691  0.2154 -0.2428  0.0019
59775SOL    HW186565  11.312  12.089   5.725  3.0618  0.8538  0.4434
59775SOL    HW286566  11.254  12.154   5.601 -0.7267 -1.8801  0.5870
59776SOL     OW86567  11.422  10.160   8.937 -0.2864  0.2215 -0.1310
59776SOL    HW186568  11.503  10.194   8.900 -0.8294  0.9915 -0.6726
59776SOL    HW286569  11.360  10.162   8.863 -0.4069 -1.7955 -0.1448
59777SOL     OW86570   8.528   2.764   5.941  0.0555  0.1841 -0.5913
59777SOL    HW186571   8.504   2.840   5.887  2.2173  0.4003 -1.3384
59777SOL    HW286572   8.612   2.788   5.981 -0.2072 -1.0334  0.7974
59778SOL     OW86573   8.547   5.593   6.621  0.4061 -0.2080 -0.2141
59778SOL    HW186574   8.496   5.518   6.592  0.5665  0.0720 -1.2647
59778SOL    HW286575   8.483   5.653   6.659  0.2746 -0.8534  0.6079
59779SOL     OW86576   9.777  12.541   0.624 -0.7502  1.1093 -0.2933
59779SOL    HW186577   9.752  12.475   0.689  0.6585 -0.7272 -1.5025
59779SOL    HW286578   9.800  12.618   0.676 -1.0454  0.1838  1.2897
59780SOL     OW86579   6.723  10.147   2.052 -0.1099 -0.1477  0.2925
59780SOL    HW186580   6.657  10.108   2.109 -0.4702 -0.1430 -0.1132
59780SOL    HW286581   6.773  10.205   2.109 -0.6820  0.1119  0.5366
59781SOL     OW86582   0.525   1.956   7.758  0.0507 -0.1805 -0.0267
59781SOL    HW186583   0.579   2.032   7.777  0.3604  0.1270 -1.9183
59781SOL    HW286584   0.587   1.887   7.736 -0.2697 -0.5875  0.3186
59782SOL     OW86585   0.954  10.701   4.106  0.0319 -0.3539  0.0570
59782SOL    HW186586   0.860  10.709   4.090  0.1816 -1.3562 -1.5934
59782SOL    HW286587   0.994  10.756   4.039  0.6321 -0.0343  0.6694
59783SOL     OW86588   6.655   7.745  11.729  0.0043 -0.5813 -0.2308
59783SOL    HW186589   6.731   7.798  11.705  0.2124 -0.5976  0.3630
59783SOL    HW286590   6.681   7.655  11.709  0.4369 -0.6669  0.6719
59784SOL     OW86591   9.860  11.421   6.415 -0.2766 -0.2188  0.3643
59784SOL    HW186592   9.768  11.447   6.425 -0.0995  0.8626 -0.6127
59784SOL    HW286593   9.860  11.359   6.343 -0.2122 -0.0716  0.2381
59785SOL     OW86594  10.882   5.754   0.343  0.0347  0.4410  0.2879
59785SOL    HW186595  10.949   5.687   0.361 -0.5802 -0.1002  0.5816
59785SOL    HW286596  10.851   5.734   0.255 -0.1636  0.3278  0.3834
59786SOL     OW86597   2.033   6.669   2.592  0.1536 -0.7237  0.3572
59786SOL    HW186598   2.109   6.716   2.624  1.9499 -1.3525 -2.6248
59786SOL    HW286599   2.024   6.594   2.652  1.9466 -0.6772  0.7298
59787SOL     OW86600   6.355   9.026   4.897 -0.2241  0.2888 -1.1737
59787SOL    HW186601   6.374   9.081   4.973  1.5225 -1.2585 -0.3973
59787SOL    HW286602   6.259   9.025   4.892 -0.3231  2.5008 -0.6037
59788SOL     OW86603   1.736   1.536   2.934  0.3582  0.1202  0.0383
59788SOL    HW186604   1.757   1.479   2.860 -0.1136 -0.4926  0.3589
59788SOL    HW286605   1.700   1.476   3.000  0.0436  0.7697  0.4628
59789SOL     OW86606   7.106   2.026  11.395 -0.1952  0.0319  0.2383
59789SOL    HW186607   7.198   2.008  11.376 -0.5698 -0.5644 -1.1410
59789SOL    HW286608   7.076   1.950  11.444 -0.1266 -0.1106  0.0623
59790SOL     OW86609   1.532  12.154   1.747  0.1191  0.3970 -0.9191
59790SOL    HW186610   1.507  12.205   1.824 -0.2462 -1.1658  0.0522
59790SOL    HW286611   1.524  12.215   1.674 -1.8769  1.2910 -0.0242
59791SOL     OW86612   4.940   2.114   3.995  0.6789  0.9290  0.4004
59791SOL    HW186613   5.027   2.151   3.978  1.5030 -0.9595  0.3089
59791SOL    HW286614   4.957   2.033   4.043 -1.0029  0.1420 -0.2552
59792SOL     OW86615   7.550   7.382  10.091  0.0432 -0.0984  0.3639
59792SOL    HW186616   7.604   7.359  10.167  0.8309  1.8890  0.4791
59792SOL    HW286617   7.614   7.404  10.023 -0.5822  1.3242  0.1887
59793SOL     OW86618  11.124  12.589   2.912  0.1150 -0.2814 -0.0862
59793SOL    HW186619  11.130  12.503   2.871  0.4142 -0.3720  0.1425
59793SOL    HW286620  11.034  12.594   2.943  0.3712 -0.9516  0.8299
59794SOL     OW86621   7.127   2.373   7.891  0.4786 -0.3131  0.1842
59794SOL    HW186622   7.137   2.373   7.795  1.9453 -1.8104  0.2853
59794SOL    HW286623   7.185   2.303   7.920 -0.3742 -0.2424  2.1479
59795SOL     OW86624   6.921   4.816   3.290 -0.0626 -0.1946 -0.3981
59795SOL    HW186625   6.828   4.829   3.271  0.1456  0.0220 -1.2987
59795SOL    HW286626   6.940   4.729   3.255 -0.6412 -1.6477  2.5774
59796SOL     OW86627   2.712   5.120   5.317 -0.0034  0.9020 -0.0522
59796SOL    HW186628   2.804   5.096   5.327  0.0395  1.5990  1.6384
59796SOL    HW286629   2.680   5.063   5.248  0.7128 -2.2055  1.9747
59797SOL     OW86630  12.376  11.677   0.007 -0.4620 -0.4889 -0.0363
59797SOL    HW186631  12.331  11.762   0.004 -0.5870 -0.4027  2.3656
59797SOL    HW286632  12.461  11.696   0.047 -0.8970 -1.6026  1.5144
59798SOL     OW86633   8.229   1.390   3.885 -0.1887 -0.3320  0.2176
59798SOL    HW186634   8.139   1.377   3.856 -0.5612 -2.6390  2.1228
59798SOL    HW286635   8.248   1.481   3.863 -2.6522 -0.0196 -1.0149
59799SOL     OW86636  11.462  10.032   4.685 -0.8435  0.5718 -0.1712
59799SOL    HW186637  11.424  10.119   4.694 -1.1442  0.2894  1.7890
59799SOL    HW286638  11.447   9.991   4.770 -0.6625 -1.3858 -1.0361
59800SOL     OW86639   9.695   7.265   2.957 -0.0034  0.8557  0.3344
59800SOL    HW186640   9.782   7.265   2.918  0.2429  0.8665  0.8721
59800SOL    HW286641   9.651   7.190   2.918  0.3373  0.6959  0.2581
59801SOL     OW86642  12.258   1.551   7.207 -0.3842 -0.8966 -0.5730
59801SOL    HW186643  12.211   1.491   7.265  0.0108  0.1401  0.8687
59801SOL    HW286644  12.213   1.635   7.219  0.6408 -0.3337 -0.6345
59802SOL     OW86645   0.107   3.652   1.794  0.5818  0.0243  0.2741
59802SOL    HW186646   0.046   3.714   1.754  2.0860  0.1099 -2.1266
59802SOL    HW286647   0.147   3.700   1.866 -0.7170  0.6410  0.6102
59803SOL     OW86648   0.649   6.907   2.568  0.3983 -0.2611  0.4512
59803SOL    HW186649   0.697   6.825   2.578  1.7664  0.1212 -2.0123
59803SOL    HW286650   0.710   6.974   2.598  0.4727  0.0442 -0.3525
59804SOL     OW86651   7.896  10.163   5.131 -0.2392 -0.4458 -0.5566
59804SOL    HW186652   7.875  10.110   5.053  0.2053  0.4269 -1.2915
59804SOL    HW286653   7.905  10.252   5.097 -0.1757 -0.0318  0.5326
59805SOL     OW86654   0.728  10.448   9.331  0.4630  0.0063  0.2160
59805SOL    HW186655   0.736  10.378   9.266  0.4846 -3.7859  3.8584
59805SOL    HW286656   0.647  10.429   9.377  0.3723  2.5762  1.2922
59806SOL     OW86657   8.566   6.087   3.237 -0.4771 -0.1367 -0.3657
59806SOL    HW186658   8.563   6.148   3.163 -0.5540  0.9476  0.5029
59806SOL    HW286659   8.636   6.121   3.293 -0.6198 -0.7656  0.2055
59807SOL     OW86660   9.954   0.254  11.870 -0.1189  0.0685  0.2707
59807SOL    HW186661   9.925   0.308  11.943 -0.7360 -0.3374  0.3271
59807SOL    HW286662  10.037   0.294  11.842 -2.0187  3.0479 -1.7239
59808SOL     OW86663   1.031   3.390  12.058 -0.2978 -0.1163  0.4601
59808SOL    HW186664   1.016   3.420  11.969 -0.0065  1.9369  1.0485
59808SOL    HW286665   1.036   3.471  12.110  2.2960 -1.1130  1.9119
59809SOL     OW86666   7.213  12.029   5.749  0.3055  0.0331 -0.3318
59809SOL    HW186667   7.224  12.060   5.659 -1.7634 -1.6095 -1.2505
59809SOL    HW286668   7.282  11.964   5.760  0.8328  0.5435 -0.5707
59810SOL     OW86669   0.357   4.411  11.923  0.0597 -0.7257 -0.2878
59810SOL    HW186670   0.436   4.429  11.872  0.5699  3.5079  1.5574
59810SOL    HW286671   0.285   4.441  11.866  0.4621  1.9250  0.4622
59811SOL     OW86672  12.455  12.302   6.607 -0.1269 -0.1227  0.1356
59811SOL    HW186673  12.506  12.330   6.531 -0.3263 -1.4496 -0.5194
59811SOL    HW286674  12.452  12.379   6.664  0.1977  0.8403 -1.1042
59812SOL     OW86675   6.996   6.267   5.014 -0.0954  0.3002  0.4719
59812SOL    HW186676   6.987   6.176   5.041 -1.8298  0.8026  1.7707
59812SOL    HW286677   6.917   6.286   4.964 -0.4045  1.4401  1.3535
59813SOL     OW86678  11.352   4.856   5.777 -0.1035 -0.4424 -0.4940
59813SOL    HW186679  11.422   4.802   5.812 -1.9242 -2.5534  0.1536
59813SOL    HW286680  11.375   4.867   5.684  1.5920 -0.1374 -0.0697
59814SOL     OW86681   4.222   7.098   4.145  0.1486  0.3525  0.4548
59814SOL    HW186682   4.207   7.183   4.185  0.9579 -0.0369  1.6441
59814SOL    HW286683   4.140   7.078   4.100 -0.8641  0.7683  2.0428
59815SOL     OW86684   3.311   4.421   5.169 -0.3037 -0.2587  0.1168
59815SOL    HW186685   3.339   4.399   5.258  2.3476  0.2867 -0.4868
59815SOL    HW286686   3.306   4.337   5.124 -0.2840 -0.4227  0.4193
59816SOL     OW86687   8.885   2.264   7.420 -0.4631  0.3121  0.5925
59816SOL    HW186688   8.963   2.214   7.394  0.9536  2.1985  1.0586
59816SOL    HW286689   8.825   2.255   7.345 -0.0223 -1.5341  0.4157
59817SOL     OW86690   5.918   2.599   6.942  0.6043  0.2358 -0.1752
59817SOL    HW186691   5.947   2.681   6.980  1.7842 -0.5121  0.6023
59817SOL    HW286692   5.990   2.572   6.884  1.3869 -1.4318  1.4475
59818SOL     OW86693  10.975  10.954   9.943 -0.3211  0.4181  0.4296
59818SOL    HW186694  10.941  11.018   9.881  0.1176 -1.5871 -2.0463
59818SOL    HW286695  10.907  10.887   9.948  0.8361 -0.8225 -0.1135
59819SOL     OW86696  11.009   5.172   9.428 -0.1732 -0.2936 -0.4776
59819SOL    HW186697  11.101   5.196   9.440 -0.7701  2.8607 -1.2650
59819SOL    HW286698  10.970   5.247   9.382 -2.8487 -2.1264 -1.4445
59820SOL     OW86699   3.519  11.963   5.656  0.3870 -0.0641 -0.0829
59820SOL    HW186700   3.510  12.039   5.599  0.0989 -0.5344 -0.6727
59820SOL    HW286701   3.478  11.989   5.738 -0.3635  0.1651 -0.5205
59821SOL     OW86702   2.405   6.014   8.384  0.3132  0.3024  0.4799
59821SOL    HW186703   2.497   6.004   8.410  1.3262  2.1494 -2.0050
59821SOL    HW286704   2.409   6.030   8.289 -2.5669  0.7293  0.3588
59822SOL     OW86705   9.398   3.133   2.756 -0.6816 -0.1067 -0.3236
59822SOL    HW186706   9.313   3.105   2.791 -0.3242 -0.4932  0.2646
59822SOL    HW286707   9.378   3.175   2.673 -1.5765  0.8370  0.3411
59823SOL     OW86708  10.242   9.047   2.128  0.1120 -0.2035 -0.2540
59823SOL    HW186709  10.262   9.007   2.212  0.1768  1.4707  0.5687
59823SOL    HW286710  10.150   9.025   2.112 -0.5256  1.1119  1.2830
59824SOL     OW86711   8.410  10.977   4.505 -0.1173  0.4222  0.4026
59824SOL    HW186712   8.358  10.971   4.585  1.1158 -0.7706  1.1709
59824SOL    HW286713   8.491  10.930   4.526  0.4241  0.4766 -1.4045
59825SOL     OW86714   1.437   7.153  10.337 -0.6253 -0.2077  0.4819
59825SOL    HW186715   1.404   7.235  10.300 -0.2084  0.1275  0.8319
59825SOL    HW286716   1.468   7.177  10.424 -1.0228 -0.8603  0.8123
59826SOL     OW86717   3.319  10.723   1.625 -0.5187  0.3218 -0.0851
59826SOL    HW186718   3.285  10.809   1.648 -0.4441 -0.0087  1.3404
59826SOL    HW286719   3.414  10.733   1.631 -0.3274  0.8368 -2.5918
59827SOL     OW86720   9.119   8.194   8.266 -0.4540  0.1639  0.0744
59827SOL    HW186721   9.150   8.105   8.281 -1.6207 -0.5219 -1.3254
59827SOL    HW286722   9.135   8.211   8.173 -2.2870  0.5230 -0.2236
59828SOL     OW86723   8.822   9.599   0.558  0.1866  0.9551 -0.0670
59828SOL    HW186724   8.830   9.518   0.509  0.7943  0.6030  0.6008
59828SOL    HW286725   8.771   9.657   0.500 -0.7908 -0.0917 -0.2953
59829SOL     OW86726   4.068  12.455   0.906 -0.7098  0.2221  0.7576
59829SOL    HW186727   3.982  12.427   0.877 -1.2930  1.7085  0.9224
59829SOL    HW286728   4.100  12.513   0.837  0.2041 -0.3622  0.6644
59830SOL     OW86729  11.427  10.306  12.292  0.3433 -0.1310  0.1207
59830SOL    HW186730  11.417  10.365  12.217 -1.9482  0.0778  0.5034
59830SOL    HW286731  11.393  10.356  12.366 -0.0563 -1.3335  0.7746
59831SOL     OW86732   9.103   0.443   5.503  0.1209  0.5730  0.2315
59831SOL    HW186733   9.011   0.467   5.498  0.7547  4.0028  1.9641
59831SOL    HW286734   9.133   0.481   5.586  3.1019 -0.3310 -0.3143
59832SOL     OW86735   1.625   8.948   4.117 -0.3191 -0.0983 -0.6558
59832SOL    HW186736   1.714   8.943   4.083 -0.6305  0.5150 -1.6125
59832SOL    HW286737   1.632   8.997   4.199  0.5650 -2.3052  0.6798
59833SOL     OW86738   0.009   1.584   5.813 -0.0882 -0.0184  0.1916
59833SOL    HW186739   0.070   1.652   5.840  0.9341 -1.0475  0.5731
59833SOL    HW286740   0.065   1.515   5.777 -1.1549 -0.2710 -1.0624
59834SOL     OW86741   0.822   9.924   6.577  0.3861 -0.0838  0.5789
59834SOL    HW186742   0.837   9.905   6.485  1.0119  0.4574  0.5643
59834SOL    HW286743   0.863   9.851   6.624 -0.1397 -0.4830  0.4371
59835SOL     OW86744   1.767   1.684   2.161 -0.2233 -0.2456  0.1271
59835SOL    HW186745   1.728   1.649   2.081 -2.2567  2.6753 -0.3280
59835SOL    HW286746   1.705   1.662   2.230  0.5073 -0.9841  0.5604
59836SOL     OW86747  10.641   4.798   8.698  0.0142 -0.3459 -0.2165
59836SOL    HW186748  10.628   4.773   8.790 -0.9805  1.2129  0.1094
59836SOL    HW286749  10.719   4.854   8.700 -0.5355  0.4252 -0.1653
59837SOL     OW86750   6.824   8.007   2.093 -0.0584  0.6427  0.2322
59837SOL    HW186751   6.810   7.961   2.175 -0.9556  0.9276  0.2511
59837SOL    HW286752   6.915   7.989   2.070 -0.0058 -0.0106  0.9286
59838SOL     OW86753   0.793   7.633   4.350  0.3649 -0.1844 -0.6756
59838SOL    HW186754   0.802   7.681   4.268  1.7359  1.5596  0.4203
59838SOL    HW286755   0.845   7.553   4.338  0.9572  0.2974 -1.3412
59839SOL     OW86756  11.523   4.626  11.789 -0.2898  0.3290  0.6053
59839SOL    HW186757  11.574   4.549  11.813  0.8363  0.9272  0.2290
59839SOL    HW286758  11.467   4.597  11.718  0.9663  0.1266 -0.3320
59840SOL     OW86759   4.591   2.825   6.189 -0.0433 -0.0116  0.4475
59840SOL    HW186760   4.523   2.763   6.215 -1.0805  0.6263 -0.6449
59840SOL    HW286761   4.618   2.867   6.271  0.1168 -1.3269  1.0876
59841SOL     OW86762   0.447   3.395   0.155  0.6026  0.0280 -0.0933
59841SOL    HW186763   0.352   3.396   0.166  0.8969  0.8484  3.2378
59841SOL    HW286764   0.470   3.302   0.155 -0.0838 -0.1565  0.7297
59842SOL     OW86765   0.272   5.097  10.642 -0.6688  0.0885 -0.3496
59842SOL    HW186766   0.256   5.180  10.598 -0.3461  0.3046 -0.0642
59842SOL    HW286767   0.212   5.036  10.600 -0.1112  0.2044 -1.3487
59843SOL     OW86768   9.570   3.833   9.904  0.2590  0.3741 -0.4534
59843SOL    HW186769   9.481   3.801   9.886  1.3780 -3.3411 -0.3102
59843SOL    HW286770   9.625   3.784   9.843  2.3480  1.6268  0.3322
59844SOL     OW86771   0.286  12.449   8.379 -0.2373 -0.2861 -0.0683
59844SOL    HW186772   0.267  12.524   8.322 -0.9982 -0.7828 -0.4833
59844SOL    HW286773   0.381  12.440   8.376 -0.1897  0.2714 -0.5122
59845SOL     OW86774   6.270   7.663   3.299 -0.2774  0.0484 -0.0160
59845SOL    HW186775   6.214   7.727   3.341 -1.6967 -1.9774  1.3943
59845SOL    HW286776   6.212   7.614   3.241  0.4202 -0.8662  0.0282
59846SOL     OW86777  11.983  11.576   1.762 -0.3150 -0.1712 -0.1490
59846SOL    HW186778  11.917  11.576   1.694  0.9064 -0.3173 -1.3882
59846SOL    HW286779  12.019  11.665   1.762  1.0509 -0.6779 -1.1388
59847SOL     OW86780   2.111  11.654   2.411  0.3477  0.0653  0.3389
59847SOL    HW186781   2.185  11.714   2.398 -0.3277  0.6258 -1.0665
59847SOL    HW286782   2.137  11.574   2.365 -0.1658  0.4811 -0.6944
59848SOL     OW86783   3.173   3.341   0.083 -0.2571 -0.1248  0.0884
59848SOL    HW186784   3.237   3.271   0.099 -0.9547 -0.6954  0.4531
59848SOL    HW286785   3.119   3.308   0.011 -0.0076  0.4595 -0.3808
59849SOL     OW86786  10.376   5.399   3.559 -0.3685 -0.1273  0.2294
59849SOL    HW186787  10.433   5.475   3.557  0.7223 -0.9158 -0.2126
59849SOL    HW286788  10.318   5.413   3.633  0.2909  0.7946  0.5838
59850SOL     OW86789   8.051   7.885   2.756  0.3712 -0.4432 -0.4134
59850SOL    HW186790   8.089   7.806   2.717  1.6384  0.0448 -0.2341
59850SOL    HW286791   8.105   7.902   2.833  0.8751  1.2261 -1.0823
59851SOL     OW86792   6.116   0.123   8.733  0.6289 -0.0116  0.5416
59851SOL    HW186793   6.167   0.046   8.762 -0.1355 -0.3220  1.0868
59851SOL    HW286794   6.182   0.190   8.716  1.3635 -0.9690 -0.5367
59852SOL     OW86795   6.501   9.930   0.506  0.2948 -0.3625 -0.2916
59852SOL    HW186796   6.481   9.928   0.600  0.0039 -1.3776 -0.3578
59852SOL    HW286797   6.474  10.017   0.478 -0.5244 -0.3827  0.3839
59853SOL     OW86798   5.200  10.473   9.034 -0.6783 -0.5645 -0.0084
59853SOL    HW186799   5.158  10.394   8.999 -0.7795 -0.7499  0.5298
59853SOL    HW286800   5.218  10.452   9.126  1.4381 -0.8439 -0.4349
59854SOL     OW86801   1.735  10.664   0.855 -0.1909  0.0795 -0.0423
59854SOL    HW186802   1.810  10.691   0.909  0.7358 -1.7221 -0.3422
59854SOL    HW286803   1.674  10.737   0.861  1.1186  1.1482  1.1097
59855SOL     OW86804   5.885   8.005   7.625 -1.0991 -0.3321  0.1290
59855SOL    HW186805   5.972   8.002   7.664 -0.7211  2.5363 -0.2391
59855SOL    HW286806   5.854   8.094   7.643 -2.6580 -0.2647 -2.3706
59856SOL     OW86807   7.851   4.524   1.360  0.4020  0.5060  0.3096
59856SOL    HW186808   7.866   4.569   1.443  1.6717  2.2154 -0.7958
59856SOL    HW286809   7.932   4.535   1.311 -0.3444 -0.4024 -1.2151
59857SOL     OW86810  12.578   7.557   5.425 -0.2241 -0.1397 -0.7350
59857SOL    HW186811  12.673   7.560   5.416 -0.1415  1.6012  0.2834
59857SOL    HW286812  12.559   7.466   5.450  1.1773 -0.4779 -0.8049
59858SOL     OW86813   5.690   4.805   6.085 -0.2538 -0.4861  0.2897
59858SOL    HW186814   5.711   4.717   6.055  0.6878  0.4455 -2.0369
59858SOL    HW286815   5.639   4.843   6.013  0.1770  1.1645  0.8119
59859SOL     OW86816   8.338   8.831  12.135 -0.2798  0.6763 -0.3674
59859SOL    HW186817   8.351   8.738  12.155  1.8226  0.8516 -0.7568
59859SOL    HW286818   8.351   8.838  12.041 -0.8162  1.3188 -0.4030
59860SOL     OW86819   8.859   2.316  12.005  0.0455  0.0279 -0.2356
59860SOL    HW186820   8.924   2.288  12.069 -2.5043 -3.1224  1.2619
59860SOL    HW286821   8.822   2.397  12.042  1.8368  0.9296 -0.2920
59861SOL     OW86822  11.212   3.124   5.643 -0.0711 -0.1314  0.0686
59861SOL    HW186823  11.189   3.034   5.668  1.0881 -0.5285 -0.2508
59861SOL    HW286824  11.286   3.146   5.699 -0.0572  0.4540 -0.1794
59862SOL     OW86825   2.085  10.643   2.044  0.2743 -0.7578 -0.3416
59862SOL    HW186826   2.096  10.555   2.009 -0.1235 -0.2215 -1.8610
59862SOL    HW286827   2.063  10.697   1.969 -1.3582  0.3118  0.8399
59863SOL     OW86828  11.619   1.448  12.020  0.5400 -0.1116  0.3479
59863SOL    HW186829  11.562   1.514  11.980  0.1529  1.5370  3.3250
59863SOL    HW286830  11.596   1.366  11.974 -0.9634  1.2847 -1.5870
59864SOL     OW86831  11.364   2.855   7.157 -0.2863  0.3017 -0.2083
59864SOL    HW186832  11.424   2.895   7.220 -2.4777  2.1740  0.8054
59864SOL    HW286833  11.347   2.768   7.192  1.1993  0.0100 -0.1245
59865SOL     OW86834   8.570   6.490   3.874 -0.8203 -0.0675  0.3162
59865SOL    HW186835   8.604   6.481   3.963  2.0893  0.0346 -0.6690
59865SOL    HW286836   8.484   6.448   3.877 -0.3184 -1.1314  2.8665
59866SOL     OW86837  11.442   9.466  11.885  0.1735  0.2645  0.7847
59866SOL    HW186838  11.522   9.518  11.882  0.5807 -0.3861 -1.4479
59866SOL    HW286839  11.471   9.375  11.882 -0.6127  0.0123  0.2872
59867SOL     OW86840   7.344   6.773   4.221  0.1683 -0.2565 -0.1800
59867SOL    HW186841   7.340   6.830   4.298  2.2405 -2.1917  1.5073
59867SOL    HW286842   7.339   6.833   4.146  3.7785  2.4409  1.4268
59868SOL     OW86843   5.418   0.490   8.405 -0.5020 -0.1902 -0.1294
59868SOL    HW186844   5.337   0.476   8.454 -0.4483  2.6766  0.9372
59868SOL    HW286845   5.483   0.510   8.472  0.6114 -0.4353 -1.1109
59869SOL     OW86846   8.160   6.013   4.329  0.2213 -0.0581 -0.4631
59869SOL    HW186847   8.231   5.950   4.316 -1.1250 -1.7283 -0.1287
59869SOL    HW286848   8.163   6.035   4.422  0.3929 -0.0122 -0.4799
59870SOL     OW86849   1.606   2.978   9.151  0.2653  0.1224 -0.5456
59870SOL    HW186850   1.566   3.040   9.090 -1.3341 -0.8078 -0.4868
59870SOL    HW286851   1.543   2.907   9.158  1.8954 -1.3809 -0.3654
59871SOL     OW86852   6.595   9.074   9.130  0.5769 -0.1202  0.2492
59871SOL    HW186853   6.683   9.108   9.113 -0.2008  0.9687 -1.9375
59871SOL    HW286854   6.597   9.049   9.223  3.0495  0.2357  0.3622
59872SOL     OW86855   2.433   3.442   6.170 -0.4102 -0.3576  0.4162
59872SOL    HW186856   2.481   3.466   6.091  0.4286 -0.4188  0.8952
59872SOL    HW286857   2.344   3.474   6.155  0.0351  0.6925 -0.0581
59873SOL     OW86858   2.878   6.336   3.898 -0.0323 -0.0515 -0.4008
59873SOL    HW186859   2.857   6.399   3.967  2.3371 -0.9461  1.2508
59873SOL    HW286860   2.963   6.364   3.865  0.2099 -1.3146 -0.9038
59874SOL     OW86861   0.025   7.826   1.926  0.1964 -0.5434 -0.2564
59874SOL    HW186862   0.071   7.854   1.848 -0.7680 -1.5283 -1.2166
59874SOL    HW286863   0.049   7.890   1.993 -0.0668  1.1458 -1.7178
59875SOL     OW86864   4.646  10.568   0.955 -0.5237  0.2175  0.4180
59875SOL    HW186865   4.699  10.608   0.886 -0.8710 -0.1436 -0.0644
59875SOL    HW286866   4.556  10.578   0.925 -0.6189 -0.9538  0.2720
59876SOL     OW86867  12.427   5.355  10.468  0.5147 -0.1135 -0.0237
59876SOL    HW186868  12.426   5.433  10.411  0.6270  0.6532  0.9897
59876SOL    HW286869  12.475   5.289  10.417 -2.1504 -0.5531 -2.1721
59877SOL     OW86870   9.159   5.232   2.795  0.4164  0.7030  0.6429
59877SOL    HW186871   9.210   5.187   2.728 -0.6265  1.1768 -0.5360
59877SOL    HW286872   9.123   5.162   2.849  0.7440  0.2617  0.3025
59878SOL     OW86873   4.557   0.454   3.275 -0.2872 -0.3371 -0.3228
59878SOL    HW186874   4.513   0.383   3.321  0.0300 -0.8488 -0.7804
59878SOL    HW286875   4.513   0.533   3.303  0.3503 -0.5463  1.4060
59879SOL     OW86876   8.773   1.008   0.479 -0.4450  0.4517  1.1027
59879SOL    HW186877   8.820   1.053   0.550 -0.6644  1.3459  0.6945
59879SOL    HW286878   8.681   1.030   0.493 -0.4405  1.0233  0.2687
59880SOL     OW86879  11.589  11.350   8.778 -0.6781  0.2883  0.2413
59880SOL    HW186880  11.543  11.379   8.857 -0.5803 -0.5789  0.6262
59880SOL    HW286881  11.520  11.316   8.721 -0.4732 -2.0402  1.2630
59881SOL     OW86882   0.019   1.622  10.958 -0.1781  0.7114  0.0352
59881SOL    HW186883  -0.051   1.686  10.954  0.3984  1.4117  0.7447
59881SOL    HW286884   0.022   1.583  10.871 -2.2227 -0.1934  0.3307
59882SOL     OW86885   3.407  11.324   6.664  0.0393 -0.3737  0.3102
59882SOL    HW186886   3.330  11.369   6.697 -0.8511 -2.6529  1.4971
59882SOL    HW286887   3.377  11.279   6.585  0.7117  0.3789 -0.3973
59883SOL     OW86888   4.625   7.165   7.718  0.0585  0.2062  0.1648
59883SOL    HW186889   4.676   7.179   7.797 -1.8130  0.6539  1.3523
59883SOL    HW286890   4.604   7.253   7.687  1.6719  0.0706 -1.5056
59884SOL     OW86891   1.435   9.295   6.300 -0.3464  0.4161  0.0222
59884SOL    HW186892   1.411   9.383   6.269 -0.3189  1.2225  2.0937
59884SOL    HW286893   1.529   9.301   6.318  0.0061 -0.5632 -1.3070
59885SOL     OW86894  10.051   1.672   4.422 -0.2734 -0.4089 -0.2808
59885SOL    HW186895  10.113   1.602   4.442 -1.1280 -1.3639 -0.8912
59885SOL    HW286896  10.013   1.648   4.338 -2.9285 -0.9450  0.9694
59886SOL     OW86897  10.145   0.420   7.751 -0.1580  1.1555 -0.1368
59886SOL    HW186898  10.229   0.451   7.784  0.1168  0.8362 -0.5332
59886SOL    HW286899  10.085   0.430   7.825 -0.0110  2.3404 -0.1542
59887SOL     OW86900   2.538  10.203   1.984  0.6380 -0.3915 -0.1711
59887SOL    HW186901   2.517  10.252   1.904 -0.2909  0.1854  0.3983
59887SOL    HW286902   2.472  10.134   1.988  0.2758 -0.0248  0.4122
59888SOL     OW86903   6.636   8.139   9.220  0.5076 -0.4010  0.1759
59888SOL    HW186904   6.688   8.216   9.198  0.9514 -1.4405 -2.8558
59888SOL    HW286905   6.545   8.166   9.207  0.7078 -0.6100 -1.9438
59889SOL     OW86906   1.566  11.922   2.208 -0.2506  0.5475  0.5221
59889SOL    HW186907   1.547  11.988   2.274 -2.1228  0.0634  0.5205
59889SOL    HW286908   1.481  11.902   2.168  0.4873 -0.8247 -0.4509
59890SOL     OW86909   2.897   7.443   6.216 -0.3366 -0.3796  0.4954
59890SOL    HW186910   2.969   7.408   6.268 -0.6553  0.0687  1.2578
59890SOL    HW286911   2.932   7.450   6.127  0.7896  0.5073  0.9896
59891SOL     OW86912   8.319   6.998   4.016  0.2821 -0.1851  0.4020
59891SOL    HW186913   8.340   6.969   3.927  0.5007  3.1318 -0.7619
59891SOL    HW286914   8.356   7.086   4.022  0.3916 -0.3187  3.8775
59892SOL     OW86915  10.622   0.371   3.012 -0.4347 -0.1483  0.3690
59892SOL    HW186916  10.555   0.357   2.945  1.0124 -0.1484 -1.1702
59892SOL    HW286917  10.682   0.296   3.002 -0.5446 -0.5293  2.1754
59893SOL     OW86918   6.560   5.665   0.672 -0.0488  0.7155  0.3868
59893SOL    HW186919   6.494   5.691   0.736  0.7103  1.2096  0.9877
59893SOL    HW286920   6.529   5.702   0.589 -1.1928 -0.1865  0.3878
59894SOL     OW86921   4.429   2.739   1.384 -0.4063 -0.5360  0.0014
59894SOL    HW186922   4.346   2.788   1.380 -1.0681 -1.1435  3.3073
59894SOL    HW286923   4.496   2.807   1.381 -1.0894  0.1220 -0.8657
59895SOL     OW86924   7.796   1.876  11.551  0.1518  0.0574 -0.3072
59895SOL    HW186925   7.860   1.910  11.489  0.5971  1.2788  0.7734
59895SOL    HW286926   7.839   1.800  11.591 -0.8071 -1.8727 -2.6543
59896SOL     OW86927   6.482  10.203   4.380  0.2202 -0.2816  0.2255
59896SOL    HW186928   6.412  10.241   4.434  0.7867  0.6123  0.3349
59896SOL    HW286929   6.554  10.187   4.441 -0.3235 -2.4905  0.3946
59897SOL     OW86930  12.200  12.304   3.231  0.7427  0.0491  0.3788
59897SOL    HW186931  12.125  12.356   3.258  1.5227  2.2330 -1.3737
59897SOL    HW286932  12.249  12.288   3.312 -0.1919  0.9500  1.1467
59898SOL     OW86933   6.558  12.261   8.475  0.3375 -0.1571 -0.9625
59898SOL    HW186934   6.587  12.339   8.523 -0.2063  0.1836 -1.1731
59898SOL    HW286935   6.639  12.220   8.445  0.7075 -0.5728  0.5361
59899SOL     OW86936   6.686   9.707   1.578  0.0271 -0.1862 -1.0130
59899SOL    HW186937   6.606   9.694   1.526  0.0726  0.4340 -1.2504
59899SOL    HW286938   6.686   9.634   1.640 -0.4285 -0.5117 -1.3828
59900SOL     OW86939   9.613   5.044   5.113 -0.3713  0.1423 -0.5838
59900SOL    HW186940   9.695   5.025   5.067  0.9527 -0.8588  2.0051
59900SOL    HW286941   9.566   5.102   5.053  2.2207  0.8158 -2.1709
59901SOL     OW86942   1.606   8.221   3.351  0.1512  0.2609 -0.1739
59901SOL    HW186943   1.515   8.241   3.329 -0.6150 -0.7687  1.7986
59901SOL    HW286944   1.652   8.223   3.267 -2.2560 -2.2214 -1.7186
59902SOL     OW86945   4.464   9.751   8.853 -0.1036  0.1794  0.6930
59902SOL    HW186946   4.507   9.694   8.917  0.3110  0.5198  0.7233
59902SOL    HW286947   4.394   9.794   8.902 -1.4983 -1.5208  0.2780
59903SOL     OW86948   5.441   4.974   3.789  0.6870 -0.1029  0.3357
59903SOL    HW186949   5.498   5.050   3.795  0.9582 -0.3431  0.9156
59903SOL    HW286950   5.352   5.010   3.783  0.9272  0.2961 -1.4870
59904SOL     OW86951   9.301   8.228   2.577 -0.6459 -0.6644 -0.3227
59904SOL    HW186952   9.232   8.225   2.644  0.1249  1.1884  0.6372
59904SOL    HW286953   9.322   8.321   2.569  0.0603 -0.9568 -2.3897
59905SOL     OW86954   1.148   4.874   9.289 -0.1752  0.5333 -0.1398
59905SOL    HW186955   1.171   4.850   9.379  0.6163 -0.2477 -0.5287
59905SOL    HW286956   1.145   4.791   9.242 -0.3574  0.9519 -0.8851
59906SOL     OW86957   0.581   9.964   7.545  0.9571 -0.3268  0.3896
59906SOL    HW186958   0.535   9.949   7.628  0.7176  0.0053  0.3204
59906SOL    HW286959   0.642  10.035   7.564  1.6264 -0.9392  0.5469
59907SOL     OW86960   7.603   1.192   2.092 -0.2271 -0.0249  0.3908
59907SOL    HW186961   7.681   1.190   2.148  0.2318  0.2531 -0.2185
59907SOL    HW286962   7.530   1.175   2.151  0.3696 -1.1028  0.8466
59908SOL     OW86963   1.602   7.433   0.762 -0.2294 -0.5333  0.1302
59908SOL    HW186964   1.592   7.497   0.832 -0.0059  0.1442 -0.4443
59908SOL    HW286965   1.564   7.475   0.685 -2.0383 -1.9409  0.1914
59909SOL     OW86966   0.073   1.041   9.209 -0.0776 -0.5016  0.5209
59909SOL    HW186967   0.017   0.990   9.267 -0.7361 -0.5837 -0.1660
59909SOL    HW286968   0.017   1.061   9.133  1.0648 -1.2749 -0.5515
59910SOL     OW86969   1.409   3.344  12.548 -0.0828  0.1202 -0.2046
59910SOL    HW186970   1.470   3.271  12.532  0.8692  0.9886 -0.6920
59910SOL    HW286971   1.377   3.367  12.461 -0.0733  0.5407 -0.0955
59911SOL     OW86972  10.986   2.435   6.331  0.2793 -0.0297 -0.0254
59911SOL    HW186973  10.990   2.352   6.378 -2.5880  0.3123  1.0491
59911SOL    HW286974  11.045   2.493   6.380  0.0530 -0.6436  1.0165
59912SOL     OW86975   4.656   4.065   4.103  0.7806 -0.0103  0.4319
59912SOL    HW186976   4.686   3.985   4.145 -2.9235 -1.0329  1.5192
59912SOL    HW286977   4.566   4.046   4.076 -0.4959  3.8853  1.1847
59913SOL     OW86978   8.242   3.853   8.664  0.2074  0.3527  0.0014
59913SOL    HW186979   8.232   3.792   8.738 -0.7159 -0.0636 -0.4460
59913SOL    HW286980   8.222   3.938   8.702 -0.7617  0.0787  0.1363
59914SOL     OW86981   9.273  12.255   2.887 -0.0242 -0.2879  0.1536
59914SOL    HW186982   9.271  12.268   2.792 -1.4198  1.0789  0.3393
59914SOL    HW286983   9.365  12.271   2.910  0.3128 -0.4992 -0.9335
59915SOL     OW86984   1.807   7.022   4.795 -0.2442 -0.2930  0.2041
59915SOL    HW186985   1.726   7.073   4.801 -0.1458 -0.1581  0.3918
59915SOL    HW286986   1.868   7.078   4.747 -0.5173 -0.7232 -0.6579
59916SOL     OW86987  12.153  11.908  11.183  0.4954 -0.2013  0.2497
59916SOL    HW186988  12.171  11.892  11.275 -0.0584  0.2643  0.4466
59916SOL    HW286989  12.067  11.949  11.182  0.9050  0.6925 -0.3920
59917SOL     OW86990   9.622   6.447   4.592 -0.1582 -0.1053  0.1998
59917SOL    HW186991   9.706   6.408   4.616 -0.1254 -0.8400 -1.0108
59917SOL    HW286992   9.562   6.422   4.662  0.5845  0.3126  1.0083
59918SOL     OW86993   2.454   1.210  10.958 -0.4649  0.0531  0.3120
59918SOL    HW186994   2.442   1.129  10.909 -0.9359 -0.3262  1.0544
59918SOL    HW286995   2.539   1.200  11.000 -0.8483 -0.3663  0.9920
59919SOL     OW86996   3.510   9.133   4.408  0.1805 -0.2985 -0.8893
59919SOL    HW186997   3.541   9.223   4.396  0.1170 -0.0530  0.6236
59919SOL    HW286998   3.437   9.125   4.346 -0.7285  1.1621 -0.0754
59920SOL     OW86999   0.672   2.772   2.856  0.2146  0.4493 -0.1342
59920SOL    HW187000   0.607   2.711   2.889 -1.0476  1.0004 -1.5030
59920SOL    HW287001   0.674   2.843   2.920 -1.0019  0.7125 -0.3588
59921SOL     OW87002  10.854   1.111   9.591 -0.4603  0.2914  0.1639
59921SOL    HW187003  10.829   1.203   9.594  0.1898  0.4598  0.7822
59921SOL    HW287004  10.811   1.072   9.667  1.6790  0.7476  1.7007
59922SOL     OW87005   3.581  11.351   0.344 -0.5525 -0.6373  0.6273
59922SOL    HW187006   3.621  11.438   0.345 -2.5999  0.3407  1.5392
59922SOL    HW287007   3.569  11.328   0.436 -0.7796 -1.5303  0.3883
59923SOL     OW87008   5.132   5.713   0.654  0.2084  0.0846 -0.4914
59923SOL    HW187009   5.218   5.672   0.664 -0.9280 -2.0001  1.7732
59923SOL    HW287010   5.074   5.660   0.708 -2.3955  1.8515 -1.3745
59924SOL     OW87011  10.393   0.745  11.496  1.5245  0.3437  0.4986
59924SOL    HW187012  10.320   0.724  11.554 -0.4018  2.2460 -1.0736
59924SOL    HW287013  10.407   0.664  11.445 -1.0869  0.5598 -0.7299
59925SOL     OW87014  11.231   1.789  12.200  0.1874  0.0344  0.0309
59925SOL    HW187015  11.163   1.733  12.235 -0.2677  0.9907  0.7380
59925SOL    HW287016  11.228   1.775  12.105  0.9901 -2.0969  0.2685
59926SOL     OW87017   6.336   4.792   7.502 -0.0730 -0.6088  0.1841
59926SOL    HW187018   6.294   4.811   7.418 -1.3042 -1.1542  0.6548
59926SOL    HW287019   6.300   4.707   7.528  2.9548 -2.2031 -0.3989
59927SOL     OW87020   4.103   1.548   2.199  0.1400 -0.0131 -0.5819
59927SOL    HW187021   4.105   1.643   2.210 -0.5580 -0.0894  0.3951
59927SOL    HW287022   4.022   1.532   2.150 -0.3485 -0.1742  0.2585
59928SOL     OW87023   0.355  12.259   9.130 -0.1999  0.2497 -0.3304
59928SOL    HW187024   0.359  12.310   9.049  1.3656 -0.7818 -0.9551
59928SOL    HW287025   0.262  12.254   9.151 -0.5924  1.0121 -1.7650
59929SOL     OW87026   6.650   2.142   1.803  0.0307  0.1225  0.1061
59929SOL    HW187027   6.678   2.234   1.802  0.8911 -0.1290 -0.3730
59929SOL    HW287028   6.717   2.096   1.752 -0.9875 -0.6088 -0.6006
59930SOL     OW87029   2.929   4.166  11.357  0.3511  0.5415 -0.6002
59930SOL    HW187030   3.000   4.128  11.305  0.4186  0.7280 -0.6459
59930SOL    HW287031   2.873   4.091  11.379  2.2148 -0.2385  2.1359
59931SOL     OW87032   6.397   8.029  11.886  0.5056 -0.1257 -0.1533
59931SOL    HW187033   6.376   7.954  11.830  0.8060  0.2393 -0.7672
59931SOL    HW287034   6.388   8.105  11.828  0.9736  0.2450  0.2567
59932SOL     OW87035   5.405   7.915  11.981  0.2332  0.6289  0.2587
59932SOL    HW187036   5.395   7.836  12.035 -0.7729  2.0384  2.2600
59932SOL    HW287037   5.318   7.928  11.944  0.3048  0.9837  0.2163
59933SOL     OW87038   9.604   7.605   5.059 -0.5148  0.1000  0.6395
59933SOL    HW187039   9.564   7.541   5.000  2.0128 -0.5441 -0.4926
59933SOL    HW287040   9.558   7.687   5.041 -1.0256 -0.5001 -0.8956
59934SOL     OW87041   7.842   0.750   9.238 -0.0061  0.1582  0.3043
59934SOL    HW187042   7.899   0.674   9.252  0.4898  0.6554  1.0716
59934SOL    HW287043   7.859   0.776   9.147  0.1695 -0.3611  0.1809
59935SOL     OW87044   5.445   9.557   3.143 -0.5203 -0.3206 -0.2158
59935SOL    HW187045   5.493   9.516   3.071 -0.2174  0.4393 -0.4578
59935SOL    HW287046   5.353   9.542   3.122 -0.4382  0.0525 -0.8618
59936SOL     OW87047   0.820  10.260  11.335  0.1226  0.3095  0.1111
59936SOL    HW187048   0.816  10.245  11.241  1.5214 -0.7149  0.1822
59936SOL    HW287049   0.744  10.215  11.370  0.4435 -0.6523 -0.3962
59937SOL     OW87050   1.170  10.176   1.451 -0.3416 -0.0745 -0.4234
59937SOL    HW187051   1.156  10.123   1.372 -0.2777 -1.9658  0.7817
59937SOL    HW287052   1.104  10.244   1.446 -1.4674 -1.1861 -1.2781
59938SOL     OW87053   7.122   3.656   2.250 -0.3197 -0.2628 -0.1834
59938SOL    HW187054   7.179   3.680   2.177 -0.8310 -1.4543 -1.0213
59938SOL    HW287055   7.055   3.600   2.210  0.1980 -2.1487  1.4379
59939SOL     OW87056   7.534   1.599   8.337  0.0052  0.0808 -0.4337
59939SOL    HW187057   7.525   1.557   8.252 -0.5996  1.7862 -1.2736
59939SOL    HW287058   7.629   1.613   8.347  0.0053  0.7716 -1.3090
59940SOL     OW87059  10.129   8.954   9.526  0.0055 -0.4354 -0.1644
59940SOL    HW187060  10.173   9.039   9.518 -0.9642  0.2971  1.7764
59940SOL    HW287061  10.040   8.970   9.495 -1.0343  0.0773  2.7889
59941SOL     OW87062   4.362   3.148   7.888 -0.1453  0.1516  0.1685
59941SOL    HW187063   4.381   3.192   7.971 -0.2193 -0.9305  0.7733
59941SOL    HW287064   4.291   3.087   7.908 -0.2772 -0.0058 -0.7302
59942SOL     OW87065   9.988  12.454   7.509  0.0704  0.5424 -0.4197
59942SOL    HW187066   9.905  12.467   7.462 -0.0249 -0.5707 -0.5787
59942SOL    HW287067  10.054  12.447   7.440  0.0275 -0.3933 -0.3827
59943SOL     OW87068   6.101   5.657  11.197  0.2281  0.3549 -0.5095
59943SOL    HW187069   6.166   5.613  11.251  1.0774  0.7794 -1.1643
59943SOL    HW287070   6.111   5.618  11.110  0.5171  1.3174 -0.9296
59944SOL     OW87071  12.026   4.897   8.760  0.0219 -0.1405  0.0441
59944SOL    HW187072  11.998   4.988   8.750  0.0717 -0.1309 -0.0059
59944SOL    HW287073  12.071   4.895   8.844  0.3496 -0.0389 -0.1270
59945SOL     OW87074   9.759   0.073   2.402  0.5097  0.1800  0.2780
59945SOL    HW187075   9.751   0.109   2.490  0.0846 -1.9768  1.1734
59945SOL    HW287076   9.697   0.123   2.350 -0.0751  0.7228  1.4606
59946SOL     OW87077   5.515   6.818   4.883 -0.5212 -0.7519  0.5817
59946SOL    HW187078   5.430   6.799   4.842 -0.9316 -0.2058  1.1678
59946SOL    HW287079   5.496   6.823   4.976 -0.6917  3.5374  0.4848
59947SOL     OW87080   9.419   7.081   1.634 -0.3126  0.6891  0.0474
59947SOL    HW187081   9.355   7.100   1.703 -0.1773  1.7021 -0.0922
59947SOL    HW287082   9.367   7.082   1.554 -0.3483  0.2010  0.0640
59948SOL     OW87083   5.528   3.197  11.363  0.2886 -0.3583 -0.3868
59948SOL    HW187084   5.476   3.130  11.406 -0.0700  0.0601 -0.1546
59948SOL    HW287085   5.616   3.189  11.401 -0.0517  0.0874  0.5269
59949SOL     OW87086  10.213  11.093   7.908 -0.4477  0.1161 -0.1932
59949SOL    HW187087  10.128  11.138   7.908  0.0433  1.1193 -1.3873
59949SOL    HW287088  10.264  11.140   7.841  2.1232  1.5881  2.5621
59950SOL     OW87089  10.155   8.073   8.590  0.4566 -0.2182 -0.0418
59950SOL    HW187090  10.168   8.055   8.684  0.9596  0.1709 -0.0323
59950SOL    HW287091  10.228   8.028   8.547  0.6769  0.2646 -0.1761
59951SOL     OW87092   3.505   4.798  11.969 -0.3743  0.3917 -0.1632
59951SOL    HW187093   3.430   4.739  11.961  0.7884 -1.1044 -0.5224
59951SOL    HW287094   3.508   4.822  12.061 -0.9645  0.0174 -0.0442
59952SOL     OW87095   3.284   4.252  10.212 -0.3703  0.0729 -0.4820
59952SOL    HW187096   3.217   4.319  10.225  1.8184  1.9697  2.0369
59952SOL    HW287097   3.294   4.211  10.298  0.8105 -1.0690 -1.1357
59953SOL     OW87098  12.150   7.246   7.119 -0.4894 -0.0229 -0.3619
59953SOL    HW187099  12.059   7.250   7.089 -0.5303  3.7665 -0.2494
59953SOL    HW287100  12.202   7.265   7.041 -0.0447  1.0880  0.1811
59954SOL     OW87101   9.121   5.692   7.202 -0.3116  0.0022 -0.4770
59954SOL    HW187102   9.152   5.755   7.268 -1.2090  1.0190 -0.9796
59954SOL    HW287103   9.191   5.627   7.195 -0.7273 -0.8925  2.4207
59955SOL     OW87104  12.182   8.171   5.200  0.6790  0.1293  0.7925
59955SOL    HW187105  12.211   8.134   5.117  0.5782  0.2469  0.7052
59955SOL    HW287106  12.224   8.257   5.205 -1.4446  1.3228 -0.4156
59956SOL     OW87107   3.828   2.575   4.675 -0.4825 -0.0333  0.0644
59956SOL    HW187108   3.921   2.577   4.654 -0.2163 -0.9928  1.0569
59956SOL    HW287109   3.786   2.544   4.594  0.2365 -1.1479  0.1003
59957SOL     OW87110   6.776   2.979   0.765  0.1052  0.2935  0.0722
59957SOL    HW187111   6.853   2.955   0.714  1.2329  1.0712  1.3381
59957SOL    HW287112   6.775   2.918   0.839 -1.2772 -0.5624 -0.6108
59958SOL     OW87113   8.547   6.593   0.325 -0.1847  0.1531 -0.0024
59958SOL    HW187114   8.558   6.637   0.240  0.6935 -0.5478 -0.2659
59958SOL    HW287115   8.627   6.615   0.373  0.4199 -1.3978 -0.2563
59959SOL     OW87116   2.909   1.518   5.662 -0.5071  0.2874  0.4566
59959SOL    HW187117   2.823   1.522   5.703 -0.3789  0.7312  0.6909
59959SOL    HW287118   2.934   1.425   5.665  0.5115  0.5715  3.4861
59960SOL     OW87119   2.639   8.624   6.322  0.1749  0.5883  0.4353
59960SOL    HW187120   2.636   8.698   6.262  0.6583  1.0338  0.9441
59960SOL    HW287121   2.566   8.568   6.295  1.4424 -0.1510 -1.7484
59961SOL     OW87122  12.651  11.496  10.804  0.2821 -0.2034 -0.4937
59961SOL    HW187123  12.708  11.527  10.874 -0.9583 -0.5273  0.7030
59961SOL    HW287124  12.676  11.404  10.792 -0.6949 -0.6664  0.8072
59962SOL     OW87125   8.566   7.295   6.322 -0.1419  0.0095 -0.2716
59962SOL    HW187126   8.561   7.366   6.257 -0.3256  0.1742 -0.0777
59962SOL    HW287127   8.660   7.277   6.330 -0.1863 -1.4435 -2.1330
59963SOL     OW87128  10.988   1.680   0.702  0.3263 -0.5484  0.2740
59963SOL    HW187129  10.986   1.771   0.672  2.5820 -0.8001 -0.8941
59963SOL    HW287130  10.902   1.645   0.677 -0.9999  1.4773  1.6934
59964SOL     OW87131   8.515   6.441  12.298 -0.6087 -0.1013 -0.3490
59964SOL    HW187132   8.505   6.425  12.392 -0.2538 -2.2686 -0.6161
59964SOL    HW287133   8.440   6.398  12.258 -0.4026  0.2225 -1.0997
59965SOL     OW87134  12.036   0.418   4.507 -0.0388  0.0611 -0.3858
59965SOL    HW187135  12.083   0.344   4.545 -0.9553 -0.6257 -0.5740
59965SOL    HW287136  12.094   0.448   4.436  0.0122 -0.9340 -0.7807
59966SOL     OW87137   1.986   9.319   0.627 -0.5866 -0.3892  0.3924
59966SOL    HW187138   2.020   9.320   0.716  2.8187 -2.2342 -0.6816
59966SOL    HW287139   2.007   9.406   0.592  1.7795 -0.9391  0.2875
59967SOL     OW87140   9.028   8.469  12.497 -0.9445 -0.2184 -0.8847
59967SOL    HW187141   9.042   8.484  12.590 -0.9064  2.0449 -1.2180
59967SOL    HW287142   9.103   8.416  12.470 -0.2723  0.1970  0.1071
59968SOL     OW87143   0.358   1.223   9.385  0.5004  0.3741  0.4382
59968SOL    HW187144   0.349   1.290   9.317  1.0467  0.6222  0.6041
59968SOL    HW287145   0.317   1.262   9.462  2.0913  1.1373  0.9448
59969SOL     OW87146   1.398  12.014   3.008  0.2392  0.1844  0.7449
59969SOL    HW187147   1.438  11.927   3.001  1.5177  0.4804  3.1607
59969SOL    HW287148   1.464  12.073   2.972  0.6905  0.3856  1.8553
59970SOL     OW87149   2.091   3.063   2.984  0.2596 -0.4094 -0.1851
59970SOL    HW187150   2.017   3.123   2.988 -0.3893 -1.1694 -0.5320
59970SOL    HW287151   2.166   3.118   2.964  0.0497  0.5799  1.5559
59971SOL     OW87152  10.057   9.937   9.926 -0.3468  0.9105  0.6263
59971SOL    HW187153  10.028   9.924   9.835 -1.6279  0.7242  1.0337
59971SOL    HW287154   9.993   9.888   9.978 -0.0954  1.6688  1.6717
59972SOL     OW87155   6.174   1.069   0.703  0.1650 -0.2824  0.0036
59972SOL    HW187156   6.259   1.108   0.681  0.3751 -0.6479  0.1603
59972SOL    HW287157   6.188   1.025   0.787 -0.5164  0.7151  0.6535
59973SOL     OW87158  10.575   9.094  10.286 -0.8785 -0.4763  0.3077
59973SOL    HW187159  10.659   9.134  10.307 -1.3791  1.9316 -1.8767
59973SOL    HW287160  10.598   9.020  10.228 -0.2542  0.5077 -0.7467
59974SOL     OW87161   2.590   4.335   1.275  0.4390 -0.6127 -0.0520
59974SOL    HW187162   2.649   4.392   1.226 -0.2593 -0.8133 -1.1451
59974SOL    HW287163   2.646   4.296   1.343  1.2649  0.1764 -0.2661
59975SOL     OW87164   6.719   7.823   0.344  0.6304  0.2345 -0.1489
59975SOL    HW187165   6.717   7.891   0.277  0.4873 -0.7660 -1.2063
59975SOL    HW287166   6.762   7.748   0.301 -1.5055 -1.2120  0.0690
59976SOL     OW87167   1.865   3.551   0.797 -0.4680  0.6475 -0.2076
59976SOL    HW187168   1.775   3.559   0.765 -0.8581  0.0580  0.7342
59976SOL    HW287169   1.871   3.614   0.869 -0.1278  0.6696 -0.2511
59977SOL     OW87170   6.774  12.528   3.330  0.4839  0.4895 -0.6546
59977SOL    HW187171   6.801  12.437   3.342 -1.1078  0.0927  0.2412
59977SOL    HW287172   6.718  12.526   3.252  0.2728  0.6600 -0.5093
59978SOL     OW87173   9.431  10.015   4.291  0.1272  0.2620 -0.1833
59978SOL    HW187174   9.368  10.071   4.335  0.8645  0.6007  0.4808
59978SOL    HW287175   9.440   9.939   4.348  0.0159  0.0251 -0.4789
59979SOL     OW87176  11.240   1.421   2.649 -0.3305 -0.1010  0.4766
59979SOL    HW187177  11.278   1.335   2.630 -0.5396  0.0640 -0.7892
59979SOL    HW287178  11.277   1.479   2.582 -0.5249  0.7041  1.0557
59980SOL     OW87179  11.643  10.042   7.169  0.0415  0.0772  0.3836
59980SOL    HW187180  11.549  10.053   7.153 -0.2779 -0.8974  1.4046
59980SOL    HW287181  11.657   9.948   7.159  1.3079  0.4310 -1.6197
59981SOL     OW87182  11.259   3.581  10.079 -0.1841  0.1047  0.6164
59981SOL    HW187183  11.213   3.497  10.084 -0.7265  0.4131  0.8193
59981SOL    HW287184  11.314   3.572  10.002 -1.1714  0.0162 -0.1017
59982SOL     OW87185   2.005  11.885  12.148  0.1420  0.0900  0.0485
59982SOL    HW187186   2.085  11.915  12.105  0.7480 -0.5203  0.7289
59982SOL    HW287187   2.035  11.841  12.227 -0.9639  1.7178  1.4407
59983SOL     OW87188   8.248   9.142   8.911 -0.2051  0.4823  0.1695
59983SOL    HW187189   8.260   9.077   8.842 -0.9420  0.3862  0.1201
59983SOL    HW287190   8.155   9.163   8.908 -0.2788  0.3656  1.2338
59984SOL     OW87191  11.564   7.511   6.893  0.0418 -0.2350  0.5550
59984SOL    HW187192  11.590   7.603   6.885  1.4287 -0.6023  0.6289
59984SOL    HW287193  11.611   7.467   6.822  1.0320 -1.2069  1.7834
59985SOL     OW87194   6.278   4.711   6.269  0.1498  0.1229  0.3184
59985SOL    HW187195   6.210   4.730   6.334  1.7594  3.1153  1.3075
59985SOL    HW287196   6.255   4.766   6.194 -0.8823 -2.2155 -1.1768
59986SOL     OW87197   2.210   0.863   8.554 -0.0475 -0.0899 -0.3742
59986SOL    HW187198   2.280   0.912   8.597  0.1587  0.6881 -1.5247
59986SOL    HW287199   2.176   0.805   8.621 -0.0823  1.4151  0.9746
59987SOL     OW87200   2.922  10.754   4.434  0.0920 -0.1749 -0.3370
59987SOL    HW187201   2.896  10.669   4.399 -0.5866  0.0997 -0.5201
59987SOL    HW287202   2.909  10.746   4.528  1.1551 -0.6539 -0.2238
59988SOL     OW87203   9.111  11.757   5.719 -0.0496 -0.0595 -0.0661
59988SOL    HW187204   9.176  11.752   5.789 -0.7921  2.1001  0.8556
59988SOL    HW287205   9.084  11.666   5.705  1.4109 -0.7294  1.1914
59989SOL     OW87206   7.957   3.539   6.699 -0.2546 -0.0315 -0.2103
59989SOL    HW187207   8.011   3.511   6.626  1.3109  0.0668  0.8576
59989SOL    HW287208   7.872   3.497   6.685  0.4226 -1.0378 -1.3786
59990SOL     OW87209   6.376  10.526   8.161  0.2353  0.0880 -0.4736
59990SOL    HW187210   6.344  10.608   8.123 -2.1864 -0.4911  0.1511
59990SOL    HW287211   6.466  10.519   8.129  0.0899  2.3174 -1.6051
59991SOL     OW87212  10.856   6.221   2.109 -0.1446  0.3226  0.7512
59991SOL    HW187213  10.772   6.265   2.096 -0.7580 -0.3282  2.2618
59991SOL    HW287214  10.833   6.130   2.126  0.9583 -0.1275 -0.0024
59992SOL     OW87215   5.276   2.665   3.624  0.5475 -0.3453  0.3573
59992SOL    HW187216   5.288   2.594   3.561 -0.6619 -0.9143  0.7239
59992SOL    HW287217   5.315   2.741   3.583 -1.8377 -0.2468 -1.9709
59993SOL     OW87218   1.105  12.335   3.111  0.3167  0.1938 -0.0519
59993SOL    HW187219   1.151  12.303   3.188 -0.7228  0.8163  0.8606
59993SOL    HW287220   1.109  12.431   3.118 -1.3525  0.2826  0.2500
59994SOL     OW87221   9.389   0.376   0.705 -0.0666  0.2280 -0.1455
59994SOL    HW187222   9.422   0.421   0.627  0.9539 -0.0367  0.1204
59994SOL    HW287223   9.466   0.367   0.761 -0.7940  0.4290  0.8990
59995SOL     OW87224   3.385   4.328   9.987  0.1385 -0.6419 -0.0554
59995SOL    HW187225   3.312   4.304   9.929 -1.3247  0.5389  1.2165
59995SOL    HW287226   3.363   4.286  10.071  0.4057  0.4921  0.6019
59996SOL     OW87227   5.171   7.410   2.557 -0.3184  0.8390  0.2873
59996SOL    HW187228   5.231   7.474   2.597 -0.0436  1.3168 -0.8491
59996SOL    HW287229   5.116   7.463   2.499 -1.5541  0.3383  0.9695
59997SOL     OW87230   1.171  10.281   3.630 -0.1555 -0.0323 -0.2278
59997SOL    HW187231   1.144  10.190   3.615  1.0155 -0.6462  1.0929
59997SOL    HW287232   1.168  10.291   3.726  1.6976  0.6347 -0.1947
59998SOL     OW87233   7.425   2.953   9.329  0.5502 -0.2073 -0.3216
59998SOL    HW187234   7.464   3.009   9.262 -0.5230  3.0106  1.4758
59998SOL    HW287235   7.333   2.946   9.305  0.8410 -2.1203 -1.0244
59999SOL     OW87236   1.983   9.011   3.501 -0.5203  0.5076 -0.1460
59999SOL    HW187237   2.050   9.048   3.444 -0.7943  1.3444  0.0593
59999SOL    HW287238   1.994   9.057   3.584 -0.6858 -0.0848  0.2114
60000SOL     OW87239   3.336   2.220   1.414  0.1796 -0.6614 -0.2162
60000SOL    HW187240   3.382   2.137   1.426  1.4783  0.1074  0.3347
60000SOL    HW287241   3.343   2.238   1.321  3.5398  0.7908  0.1776
60001SOL     OW87242   0.070   1.903   7.672 -0.5570  0.8582  0.7073
60001SOL    HW187243  -0.003   1.898   7.610 -0.2574  0.0706  0.4080
60001SOL    HW287244   0.031   1.886   7.757 -0.5866 -0.5558  0.4376
60002SOL     OW87245   8.739   5.833   4.045  0.1218  0.1630  0.0058
60002SOL    HW187246   8.674   5.838   3.975  0.7848 -1.3555 -0.7908
60002SOL    HW287247   8.767   5.741   4.044  0.9479  0.3697  1.5443
60003SOL     OW87248  11.325   5.325   2.354  0.2054 -0.0569 -0.1486
60003SOL    HW187249  11.259   5.388   2.324 -1.4382 -1.4309  0.4031
60003SOL    HW287250  11.288   5.288   2.434  2.3728  0.1800  1.0536
60004SOL     OW87251  11.148  12.665   8.768  0.1118 -0.3238  0.0344
60004SOL    HW187252  11.182  12.635   8.852  0.9051 -0.3720 -0.2958
60004SOL    HW287253  11.059  12.693   8.787  0.5952  0.5824  1.0942
60005SOL     OW87254   8.756  11.547   6.210 -0.2620  0.4375  0.2360
60005SOL    HW187255   8.768  11.617   6.274 -0.9230  1.6681 -0.9436
60005SOL    HW287256   8.834  11.551   6.154 -0.3881  0.3599  0.0512
60006SOL     OW87257   5.198   1.586  10.664 -0.6348 -0.7967 -0.0865
60006SOL    HW187258   5.108   1.555  10.660 -0.3927 -1.6321  0.5362
60006SOL    HW287259   5.230   1.556  10.749 -0.6948  2.1774  1.1079
60007SOL     OW87260   7.769   4.250   3.512  0.3711  0.6574  0.1122
60007SOL    HW187261   7.690   4.243   3.459  0.6484 -0.4002 -0.1951
60007SOL    HW287262   7.825   4.312   3.465  0.0886  0.7123 -0.1523
60008SOL     OW87263   6.804   2.964   9.512 -0.1835 -0.1046 -0.0067
60008SOL    HW187264   6.757   2.956   9.595 -1.2709 -0.9949 -0.6822
60008SOL    HW287265   6.893   2.934   9.531  0.0106  1.0992  1.1630
60009SOL     OW87266  10.731  10.934  11.369 -0.1651 -0.1880  0.0436
60009SOL    HW187267  10.767  10.911  11.455  1.3713 -0.4686 -0.6590
60009SOL    HW287268  10.755  10.861  11.313 -1.5767 -0.2267 -0.5423
60010SOL     OW87269  10.878   7.916   8.510 -0.0522  0.5514 -0.3210
60010SOL    HW187270  10.864   8.011   8.520 -0.0031  0.7972 -2.2235
60010SOL    HW287271  10.947   7.909   8.445  1.3280 -0.8093  1.2252
60011SOL     OW87272   3.814   1.766   2.723  0.1171  0.2636 -0.7061
60011SOL    HW187273   3.859   1.690   2.688  0.3039  0.8439 -1.7753
60011SOL    HW287274   3.785   1.739   2.810 -0.5083 -1.2954 -1.3540
60012SOL     OW87275   8.146  10.634   5.460 -0.1830  0.5189  0.0934
60012SOL    HW187276   8.077  10.694   5.434  1.0733  1.4303 -1.2878
60012SOL    HW287277   8.218  10.691   5.488  0.5977 -0.3526 -0.0861
60013SOL     OW87278  11.121   7.973  12.520 -0.3456 -0.2763  0.1848
60013SOL    HW187279  11.183   8.038  12.551 -2.6029  1.2772  1.7576
60013SOL    HW287280  11.163   7.934  12.443  2.3496  0.9193  0.9431
60014SOL     OW87281  12.408   8.549   8.529 -0.2784  0.3901  0.3099
60014SOL    HW187282  12.495   8.535   8.567 -1.3417  2.0571  3.7628
60014SOL    HW287283  12.351   8.487   8.574 -1.1326  0.2892 -0.8705
60015SOL     OW87284   7.089   1.458  10.858  0.1559 -0.1172 -0.3199
60015SOL    HW187285   7.020   1.392  10.860 -0.8194  0.8500 -0.7138
60015SOL    HW287286   7.143   1.434  10.783 -0.3248 -0.3353 -0.6002
60016SOL     OW87287   5.310   4.380   2.982 -0.0897 -0.3280 -0.3814
60016SOL    HW187288   5.281   4.289   2.991 -2.4377  0.2251 -1.6758
60016SOL    HW287289   5.230   4.430   2.970  1.1222  2.0041  0.6291
60017SOL     OW87290  11.700   4.217   6.407  0.8158 -0.1288 -0.4209
60017SOL    HW187291  11.639   4.259   6.346  0.1771 -0.6827 -0.1723
60017SOL    HW287292  11.645   4.165   6.464  1.3100  1.0694  1.2292
60018SOL     OW87293   8.106   5.733   8.545  0.1348  0.2487  0.1008
60018SOL    HW187294   8.017   5.714   8.518  0.0298  0.6788  0.1378
60018SOL    HW287295   8.147   5.772   8.468  0.8279 -1.5767 -0.4906
60019SOL     OW87296   0.326   3.081   9.673  0.2979 -0.2303 -0.1180
60019SOL    HW187297   0.417   3.050   9.678  0.3821  0.2321  2.3302
60019SOL    HW287298   0.333   3.176   9.681 -0.4388 -0.2801  1.3817
60020SOL     OW87299  10.549   1.063   1.701 -0.1279 -0.2892 -0.3036
60020SOL    HW187300  10.538   1.157   1.687  1.9530 -0.1808 -1.5813
60020SOL    HW287301  10.463   1.033   1.731 -1.5647  1.5618 -2.3003
60021SOL     OW87302   6.452   0.526   0.051  0.0313 -0.2271  0.0849
60021SOL    HW187303   6.402   0.607   0.042  1.6655  0.6860 -1.3501
60021SOL    HW287304   6.465   0.516   0.146 -0.8304  0.7717  0.3207
60022SOL     OW87305   2.687  10.476   9.320  0.0591  0.1168 -0.1414
60022SOL    HW187306   2.668  10.480   9.414  0.2095  0.6266 -0.1300
60022SOL    HW287307   2.605  10.501   9.278 -1.2431 -3.7365 -0.2853
60023SOL     OW87308   4.570  12.417   6.880 -0.5435  0.8972  0.0012
60023SOL    HW187309   4.561  12.327   6.849  0.5624  1.1174 -1.0182
60023SOL    HW287310   4.575  12.469   6.800  1.0554  1.6162  0.5457
60024SOL     OW87311   3.937   8.385   9.650  0.2006  0.4214  0.2876
60024SOL    HW187312   4.002   8.381   9.720  0.5284  1.6636  0.0869
60024SOL    HW287313   3.987   8.407   9.571  0.0676 -2.4963 -0.7367
60025SOL     OW87314   6.678   3.730   0.906  0.2798  0.3542  0.3344
60025SOL    HW187315   6.648   3.656   0.853  0.1317  1.4627 -1.1969
60025SOL    HW287316   6.745   3.693   0.964  1.1250 -0.7435 -1.2796
60026SOL     OW87317   9.137   6.882   3.948 -0.1643 -0.2715  0.0357
60026SOL    HW187318   9.055   6.841   3.923  0.2467 -1.2257  0.2305
60026SOL    HW287319   9.111   6.965   3.989 -1.0711 -0.9178  0.8068
60027SOL     OW87320   0.159   7.713   8.128  0.6355 -0.2376 -0.6005
60027SOL    HW187321   0.149   7.717   8.033 -0.9973  0.8668 -0.4197
60027SOL    HW287322   0.233   7.771   8.146 -1.2138  2.4146 -0.9693
60028SOL     OW87323   0.209   3.734  12.709  0.1998  0.2747  0.5185
60028SOL    HW187324   0.252   3.812  12.744 -0.6239  1.3412 -0.7268
60028SOL    HW287325   0.233   3.734  12.616 -0.6236 -0.4006  0.3010
60029SOL     OW87326   0.222   8.045   2.430  0.0754 -0.0659  0.2305
60029SOL    HW187327   0.135   8.008   2.439  1.2053 -3.0709 -0.1428
60029SOL    HW287328   0.244   8.075   2.518 -0.6096 -1.0798  0.7677
60030SOL     OW87329   3.434   1.955   9.640  0.0508 -0.3268  0.2485
60030SOL    HW187330   3.524   1.934   9.667  0.3883  1.0466  0.2821
60030SOL    HW287331   3.412   1.888   9.575  0.7211 -1.2699  0.9570
60031SOL     OW87332   4.198   6.495  10.043 -0.1476 -0.1593  0.4134
60031SOL    HW187333   4.108   6.474  10.018 -0.8039 -0.5633  2.8214
60031SOL    HW287334   4.204   6.590  10.034 -0.6753 -0.1774 -0.1796
60032SOL     OW87335  11.237   7.105   5.429 -0.1546  0.5275 -0.5816
60032SOL    HW187336  11.318   7.058   5.409 -0.3286  0.5385 -1.3344
60032SOL    HW287337  11.188   7.044   5.484 -0.4993 -0.3104 -1.7766
60033SOL     OW87338  10.450   0.579   7.035  0.5193  0.5827 -0.3181
60033SOL    HW187339  10.382   0.536   7.088 -1.9554  0.9151 -2.9585
60033SOL    HW287340  10.492   0.641   7.095 -1.9982  0.8568  1.3209
60034SOL     OW87341   2.257  10.895   8.763  0.2481 -0.0767 -0.0111
60034SOL    HW187342   2.278  10.925   8.675  0.2673 -0.9790 -0.3311
60034SOL    HW287343   2.330  10.837   8.787  0.4687  0.5127  0.7811
60035SOL     OW87344  10.315   7.661   5.471  0.2150  0.5458 -0.1194
60035SOL    HW187345  10.310   7.728   5.402  0.0088  0.3031 -0.3391
60035SOL    HW287346  10.239   7.678   5.527  0.1937  0.5298 -0.1440
60036SOL     OW87347  10.712   3.935  11.404  0.1351 -0.1648 -0.1248
60036SOL    HW187348  10.635   3.938  11.347 -1.8466 -0.3836  2.4024
60036SOL    HW287349  10.752   4.022  11.393 -0.9562  0.2764 -0.8294
60037SOL     OW87350   4.767  11.751   2.563 -0.5254 -0.1496  0.4675
60037SOL    HW187351   4.697  11.809   2.533 -0.6395 -0.2023  0.6338
60037SOL    HW287352   4.776  11.771   2.656 -0.6263 -0.4628  0.5450
60038SOL     OW87353   7.113   1.393   4.669 -0.1197  0.0831 -0.1117
60038SOL    HW187354   7.061   1.448   4.610  0.5853 -0.8606 -1.6717
60038SOL    HW287355   7.148   1.324   4.613  0.1809 -1.1545  1.5210
60039SOL     OW87356   9.280   1.621   3.206 -0.5159 -0.0811 -0.3487
60039SOL    HW187357   9.213   1.553   3.201 -1.2797  0.6836 -1.1214
60039SOL    HW287358   9.291   1.650   3.115  1.0174 -0.3146 -0.2645
60040SOL     OW87359   9.378  12.261   0.443  0.4952  0.3122 -0.1756
60040SOL    HW187360   9.420  12.343   0.470  1.2128 -0.2056  0.3342
60040SOL    HW287361   9.449  12.197   0.441 -0.5785 -1.2790  3.4853
60041SOL     OW87362   7.182   6.773   1.997  0.0593  0.3996 -0.1077
60041SOL    HW187363   7.267   6.780   2.041  0.2127 -2.6935  0.2897
60041SOL    HW287364   7.134   6.706   2.046 -1.4186 -0.1457 -2.1382
60042SOL     OW87365   1.276   6.140   8.738 -0.5031 -0.1245 -0.1676
60042SOL    HW187366   1.266   6.088   8.818 -0.2547 -0.9676 -0.6724
60042SOL    HW287367   1.323   6.082   8.678  0.9497  1.1408 -0.3091
60043SOL     OW87368   7.171   3.981  11.596  0.3624  0.0268 -0.3439
60043SOL    HW187369   7.089   4.007  11.639  0.8471  1.8244 -0.4170
60043SOL    HW287370   7.179   4.042  11.522  1.6314 -0.3067 -0.4967
60044SOL     OW87371   2.366   9.322   8.756 -0.6337 -0.6163  0.3801
60044SOL    HW187372   2.409   9.251   8.707 -0.8678  0.1262 -0.9663
60044SOL    HW287373   2.306   9.361   8.692  0.4557  1.6334  0.6515
60045SOL     OW87374  11.437   5.248   5.986  0.1230  0.1947  0.0237
60045SOL    HW187375  11.532   5.246   5.975  0.0321 -0.6028 -0.6986
60045SOL    HW287376  11.411   5.156   5.992 -0.1810  0.3451  4.5119
60046SOL     OW87377   9.827   2.909   8.451  0.0162  0.3585 -0.2114
60046SOL    HW187378   9.917   2.881   8.470  0.0515  0.5523 -0.0875
60046SOL    HW287379   9.828   2.933   8.359  0.6228  2.3333  0.2543
60047SOL     OW87380   7.906   9.148   0.665 -0.1147  0.5001  0.0134
60047SOL    HW187381   7.972   9.175   0.728 -0.7412  1.8277  0.1473
60047SOL    HW287382   7.825   9.140   0.716 -0.7837  2.2771 -0.6628
60048SOL     OW87383   7.606   6.133   4.022 -0.0269 -0.5894 -0.0917
60048SOL    HW187384   7.663   6.200   3.984 -1.3891  0.3151 -0.6339
60048SOL    HW287385   7.638   6.121   4.111 -1.0309  2.3604  0.7551
60049SOL     OW87386   3.097   4.542   3.121  0.2127  0.4075 -0.1920
60049SOL    HW187387   3.026   4.559   3.059 -0.3185 -0.9299  0.0233
60049SOL    HW287388   3.116   4.628   3.159 -2.5390  0.6030  1.0411
60050SOL     OW87389   0.181   5.337   8.871  0.1530 -0.7320  0.3033
60050SOL    HW187390   0.137   5.422   8.866 -0.2770 -0.9365  0.5804
60050SOL    HW287391   0.235   5.333   8.792  1.7036  0.6461  1.2270
60051SOL     OW87392   0.093   5.285   9.388  0.2619 -0.3120 -0.4174
60051SOL    HW187393   0.108   5.212   9.328  1.2886 -0.4115 -0.0568
60051SOL    HW287394   0.068   5.243   9.471  0.6848 -0.2525 -0.2579
60052SOL     OW87395  12.391   3.459   7.212  0.4332  0.1009 -0.4963
60052SOL    HW187396  12.485   3.450   7.226  0.0780 -0.1833  2.0467
60052SOL    HW287397  12.384   3.494   7.123  2.9867  1.5415 -0.2342
60053SOL     OW87398   2.072   8.206   5.487 -0.1583 -0.6747 -0.1203
60053SOL    HW187399   2.107   8.255   5.560 -0.3139  0.4698 -0.7899
60053SOL    HW287400   1.985   8.244   5.472  0.1586 -0.3897 -1.3415
60054SOL     OW87401   8.176   0.832  11.004 -0.0201 -0.4694 -0.5174
60054SOL    HW187402   8.175   0.746  10.962 -0.2401 -0.4729 -0.5084
60054SOL    HW287403   8.106   0.881  10.961  0.2690 -0.2085 -0.6946
60055SOL     OW87404  12.198   6.087   6.577 -0.3128  0.0128 -0.1276
60055SOL    HW187405  12.271   6.027   6.565 -1.0233 -1.2000  1.2629
60055SOL    HW287406  12.151   6.084   6.494  1.4946  1.2760 -1.2661
60056SOL     OW87407  10.821   8.243  11.979 -0.0141 -0.5865  0.1840
60056SOL    HW187408  10.846   8.332  12.002  1.5489 -0.8279 -0.4617
60056SOL    HW287409  10.770   8.252  11.898 -1.2425 -0.1761  0.9684
60057SOL     OW87410   5.440  11.050   2.728 -0.1505 -0.0856  0.3364
60057SOL    HW187411   5.453  11.009   2.814 -0.7715  0.9144  0.9236
60057SOL    HW287412   5.365  11.109   2.740  1.0656  1.6696 -0.3026
60058SOL     OW87413   1.458  10.264   6.807 -0.4139  0.4596 -0.4628
60058SOL    HW187414   1.540  10.289   6.850  0.3347 -0.4511 -1.3146
60058SOL    HW287415   1.486  10.217   6.729 -1.7230  2.1674 -2.0575
60059SOL     OW87416   4.145   3.919   5.405 -0.6393 -0.2854  0.0782
60059SOL    HW187417   4.085   3.894   5.335 -1.6583  1.5306  0.2454
60059SOL    HW287418   4.099   3.987   5.453  1.6671  1.4643  0.0002
60060SOL     OW87419   3.115   8.636   8.015  0.1848 -0.3041 -0.3435
60060SOL    HW187420   3.126   8.547   7.980 -0.5288 -0.2139 -0.8264
60060SOL    HW287421   3.175   8.690   7.963 -0.3023 -0.3012 -0.9129
60061SOL     OW87422  10.505   2.138   2.990  0.1414  0.0925  0.0285
60061SOL    HW187423  10.572   2.111   2.928  0.1293 -1.9739  0.8398
60061SOL    HW287424  10.549   2.139   3.075 -0.3482  0.8325  0.2914
60062SOL     OW87425   1.145   8.671   5.652  0.2073 -0.7400  0.0596
60062SOL    HW187426   1.151   8.655   5.557 -0.9881 -1.0420  0.0179
60062SOL    HW287427   1.053   8.693   5.666  0.7942  1.5537  0.8158
60063SOL     OW87428   0.943   9.460   1.853  0.2207 -0.3533  0.7273
60063SOL    HW187429   0.862   9.450   1.803  1.9056 -0.2241 -2.2328
60063SOL    HW287430   0.951   9.555   1.867 -0.6132 -0.4391  2.0247
60064SOL     OW87431   1.486  10.649  11.722 -0.2819 -0.2147 -0.2128
60064SOL    HW187432   1.399  10.661  11.686 -0.5244  0.3109  0.5174
60064SOL    HW287433   1.472  10.635  11.815  0.3738 -0.8420 -0.1973
60065SOL     OW87434   1.767  11.666   4.652 -0.0813 -0.0675  0.6448
60065SOL    HW187435   1.735  11.717   4.727 -0.4483 -0.9104  1.0633
60065SOL    HW287436   1.725  11.581   4.660  1.9240 -1.0933  1.0075
60066SOL     OW87437   3.799  10.345   1.525 -0.3705 -0.3113 -0.3256
60066SOL    HW187438   3.760  10.421   1.569 -3.1402 -1.5446 -0.4747
60066SOL    HW287439   3.867  10.315   1.586  0.4952  1.9891 -0.0755
60067SOL     OW87440   9.453   1.730  11.474  0.5166  0.2521  0.2929
60067SOL    HW187441   9.434   1.645  11.515  0.4313  0.5128  0.8058
60067SOL    HW287442   9.546   1.725  11.451 -0.1108 -1.0736 -2.3378
60068SOL     OW87443   3.574   1.482  12.109 -0.0880 -0.0838 -0.2174
60068SOL    HW187444   3.582   1.545  12.180  1.0278 -1.3110  0.7964
60068SOL    HW287445   3.485   1.448  12.116  0.2009 -0.6306  0.9980
60069SOL     OW87446   5.113   3.960   2.290 -0.3807  0.1482 -0.2547
60069SOL    HW187447   5.087   3.979   2.200 -2.7585  1.3533  0.5726
60069SOL    HW287448   5.078   4.034   2.340  0.3533 -0.7792  1.7243
60070SOL     OW87449  11.714  11.688   8.048 -0.2484  0.0280  0.2172
60070SOL    HW187450  11.703  11.594   8.061  0.3986  0.0851  1.3094
60070SOL    HW287451  11.630  11.726   8.074 -1.0306 -0.3367 -1.6405
60071SOL     OW87452   0.591   9.945   9.557 -0.3100  0.2231  0.0835
60071SOL    HW187453   0.595  10.041   9.558 -1.9473  0.3444 -1.0808
60071SOL    HW287454   0.578   9.923   9.465  2.3490 -1.2813 -0.0029
60072SOL     OW87455   0.466   5.633   1.316 -0.1765  0.1480 -0.1892
60072SOL    HW187456   0.485   5.541   1.336  0.5433  0.4954  0.8076
60072SOL    HW287457   0.374   5.633   1.291 -0.1467 -0.8697 -0.3524
60073SOL     OW87458  10.768  10.312  12.285 -0.1359  0.5917  0.0683
60073SOL    HW187459  10.783  10.337  12.194  0.4420 -2.0862 -0.6607
60073SOL    HW287460  10.686  10.264  12.284  1.1155 -1.6764  0.4230
60074SOL     OW87461   7.299   7.996   7.603  0.9576 -0.3253 -0.2544
60074SOL    HW187462   7.252   8.069   7.562  1.0801  0.3091  0.7014
60074SOL    HW287463   7.233   7.954   7.659  1.2235 -0.1235  0.2191
60075SOL     OW87464  10.657  10.488   8.009  0.5765  0.0576 -0.0339
60075SOL    HW187465  10.746  10.521   8.008  0.0903  1.4782  0.9738
60075SOL    HW287466  10.620  10.515   7.924  1.1725 -0.8110 -0.5872
60076SOL     OW87467   1.829   2.961   4.210 -0.7476 -0.4424  0.1392
60076SOL    HW187468   1.769   3.028   4.178  0.1716 -0.6688 -2.2941
60076SOL    HW287469   1.772   2.895   4.250 -1.8187  0.8254  0.7490
60077SOL     OW87470   1.798  11.025   1.571 -0.0057  0.1280  0.2458
60077SOL    HW187471   1.817  10.958   1.636 -1.7790 -0.8083 -0.1405
60077SOL    HW287472   1.809  11.108   1.619  0.4427 -0.4873  1.2386
60078SOL     OW87473   0.209   0.539   0.083 -0.2553 -0.0391 -0.2087
60078SOL    HW187474   0.256   0.468   0.125  1.4363  0.7144 -0.7404
60078SOL    HW287475   0.203   0.514  -0.009  0.8656  0.7331 -0.5111
60079SOL     OW87476   9.376   2.452  12.355  0.0221  0.0580 -0.5988
60079SOL    HW187477   9.367   2.362  12.385 -0.7661 -0.4516 -2.2166
60079SOL    HW287478   9.285   2.481  12.342  0.2885  0.8642 -0.6815
60080SOL     OW87479   8.133   0.130   3.206 -0.4076  0.5409  0.0566
60080SOL    HW187480   8.045   0.163   3.193 -1.1494 -1.8065 -1.6745
60080SOL    HW287481   8.147   0.134   3.300 -2.0952  1.5829  0.2931
60081SOL     OW87482   0.985  10.058  11.434  0.3830  0.2328  0.3041
60081SOL    HW187483   1.005  10.126  11.369  1.0115 -0.1526  0.0842
60081SOL    HW287484   0.999   9.976  11.388 -0.0636 -0.0548  0.6654
60082SOL     OW87485   1.794   8.815   1.681  0.1276  0.1479  0.5392
60082SOL    HW187486   1.881   8.844   1.709  0.1008  0.6920  0.0869
60082SOL    HW287487   1.798   8.817   1.586 -0.5663  0.7426  0.5172
60083SOL     OW87488   8.207   4.719   4.486  0.2905 -0.1600 -0.5020
60083SOL    HW187489   8.284   4.737   4.431  0.8828  1.2074  0.7165
60083SOL    HW287490   8.135   4.710   4.424  0.8768  1.6872 -1.5090
60084SOL     OW87491   7.512  10.916  10.532  0.2751  0.3232  0.4308
60084SOL    HW187492   7.520  10.985  10.465  2.0101  0.7509  1.0084
60084SOL    HW287493   7.448  10.855  10.496  1.1349  0.5378 -1.6408
60085SOL     OW87494  10.822   4.958   4.232  0.1195 -0.5412  0.1121
60085SOL    HW187495  10.769   4.973   4.154  1.2219 -1.1262 -0.7835
60085SOL    HW287496  10.787   4.877   4.269  0.9653 -1.4705 -1.0307
60086SOL     OW87497   2.398   4.739   6.875 -0.6170 -0.2777 -0.1135
60086SOL    HW187498   2.309   4.775   6.877 -0.0406  1.3560 -1.2628
60086SOL    HW287499   2.424   4.732   6.967 -1.8459 -0.5988  0.2271
60087SOL     OW87500  11.888   7.987   1.906 -0.0005  0.1193  0.4421
60087SOL    HW187501  11.858   8.060   1.960 -0.2073  1.2735 -1.1796
60087SOL    HW287502  11.937   8.028   1.835  0.9516 -1.4097  0.1672
60088SOL     OW87503   8.846   5.285  11.227  0.1791 -0.3511 -0.3130
60088SOL    HW187504   8.807   5.342  11.161 -0.1867 -0.0953  0.1169
60088SOL    HW287505   8.865   5.343  11.301  2.2306 -0.2809 -0.8400
60089SOL     OW87506   9.826   9.213   2.820 -0.0604  0.3245  0.4160
60089SOL    HW187507   9.859   9.303   2.814  0.5648  0.1113  0.5571
60089SOL    HW287508   9.881   9.171   2.887 -1.1268  0.1695  1.2348
60090SOL     OW87509   6.590   1.092  10.349 -0.8102  0.1315  0.5876
60090SOL    HW187510   6.652   1.142  10.294  0.5128 -1.1059  0.8833
60090SOL    HW287511   6.644   1.059  10.421 -1.4315 -2.3621 -0.0156
60091SOL     OW87512   0.271   9.402   4.156  0.7005  0.1405  1.0662
60091SOL    HW187513   0.330   9.429   4.227  1.1873 -0.5324  0.9255
60091SOL    HW287514   0.316   9.429   4.076  0.4030  0.4104  0.9862
60092SOL     OW87515  10.383  11.079   1.027  0.0742 -0.1931 -0.0109
60092SOL    HW187516  10.321  11.152   1.035 -1.0098 -1.0605 -0.2120
60092SOL    HW287517  10.457  11.116   0.979 -1.1241  0.3991 -1.4807
60093SOL     OW87518  11.057   8.990   5.646  0.9409 -0.5640 -0.3457
60093SOL    HW187519  11.049   8.897   5.668 -1.5841  0.1111  2.1827
60093SOL    HW287520  11.024   8.996   5.557  0.8613 -2.0650 -0.4499
60094SOL     OW87521  10.098   3.345   0.296  0.3038  0.0392 -0.5771
60094SOL    HW187522  10.124   3.323   0.385 -1.5187  0.2320  0.0408
60094SOL    HW287523  10.009   3.311   0.288 -0.2333  1.6002 -1.7016
60095SOL     OW87524   9.956   9.114   8.201  0.2940  0.2184 -0.0410
60095SOL    HW187525  10.010   9.075   8.133 -3.1032 -1.2044 -2.1761
60095SOL    HW287526   9.955   9.208   8.181  1.7481  0.2625 -0.0177
60096SOL     OW87527   0.242   7.149  10.127  0.1794 -0.5707 -0.4043
60096SOL    HW187528   0.273   7.201  10.053 -2.9191 -0.4888 -1.8196
60096SOL    HW287529   0.264   7.058  10.104  1.4202 -0.3430 -0.1841
60097SOL     OW87530   8.435   3.844   7.964 -0.0438 -0.5134 -0.2485
60097SOL    HW187531   8.428   3.901   8.041 -0.9825  0.0093 -0.7092
60097SOL    HW287532   8.348   3.806   7.954 -0.1079 -0.1068 -1.4122
60098SOL     OW87533  12.402   0.284   6.617  0.7725 -0.2726  0.0939
60098SOL    HW187534  12.310   0.261   6.612  0.2882  0.7489  2.5934
60098SOL    HW287535  12.408   0.372   6.580  1.0307 -0.8497 -1.2999
60099SOL     OW87536   3.319   4.176   2.592 -0.3487 -0.2022 -0.1758
60099SOL    HW187537   3.372   4.097   2.605 -0.1233  0.0758  0.6829
60099SOL    HW287538   3.244   4.146   2.541 -0.3796 -1.0256  0.3299
60100SOL     OW87539   0.770   7.132  11.041 -0.3517  0.6263  0.0797
60100SOL    HW187540   0.815   7.072  10.982  1.4445 -1.0643  2.9631
60100SOL    HW287541   0.827   7.209  11.045 -0.2613  0.5643 -0.0133
60101SOL     OW87542   4.127   5.076   5.521 -0.3468 -0.8994  0.4516
60101SOL    HW187543   4.098   5.004   5.578  1.2122 -1.5611  0.4431
60101SOL    HW287544   4.155   5.033   5.440  0.0904 -0.2320  0.2393
60102SOL     OW87545   4.799   7.293   3.777  0.3613 -0.0048 -0.3642
60102SOL    HW187546   4.706   7.291   3.756  0.6438  1.4273 -2.0130
60102SOL    HW287547   4.805   7.353   3.852 -0.0019  0.1248 -0.4365
60103SOL     OW87548  12.048   7.481   4.363 -0.1558 -0.5265  0.0359
60103SOL    HW187549  12.102   7.501   4.286  0.6546 -1.5726  0.3155
60103SOL    HW287550  12.069   7.550   4.426 -0.8501  0.3613 -0.6671
60104SOL     OW87551  10.327   1.845  10.118  0.3842  0.5445  0.3583
60104SOL    HW187552  10.391   1.787  10.076  0.5495  0.2371  1.0211
60104SOL    HW287553  10.345   1.837  10.211 -0.3940  0.7335  0.5298
60105SOL     OW87554   1.974   8.415   5.901 -0.2527  0.5394 -0.1285
60105SOL    HW187555   1.961   8.443   5.810  0.6740 -0.6261 -0.6596
60105SOL    HW287556   1.892   8.436   5.945 -0.4109  1.9212 -1.0180
60106SOL     OW87557  10.254   0.365   6.834 -0.0707 -0.0471 -0.2988
60106SOL    HW187558  10.198   0.304   6.881  0.9539  0.1976  1.3052
60106SOL    HW287559  10.338   0.320   6.825 -0.1317  0.0595 -1.6071
60107SOL     OW87560   4.368   2.442   8.401  0.2188 -0.1407 -0.2824
60107SOL    HW187561   4.327   2.512   8.349 -1.2265 -0.3782  0.4967
60107SOL    HW287562   4.420   2.489   8.467 -0.4821  0.2143  0.0313
60108SOL     OW87563   2.193   3.322   9.865 -0.6566 -0.2123  0.4591
60108SOL    HW187564   2.174   3.302   9.773  0.0370 -0.7293  0.4226
60108SOL    HW287565   2.191   3.418   9.869 -1.6137 -0.2007  0.1096
60109SOL     OW87566  11.439   4.133   3.064  0.3348  0.4424 -0.0878
60109SOL    HW187567  11.459   4.206   3.123  0.3219  0.8831 -0.6264
60109SOL    HW287568  11.449   4.169   2.976 -0.1456 -0.0749 -0.3603
60110SOL     OW87569   3.206   8.526   9.164  0.0852 -0.4884 -0.3618
60110SOL    HW187570   3.295   8.523   9.199  0.2712  1.5136 -0.5275
60110SOL    HW287571   3.215   8.571   9.080 -1.0376 -0.5188 -0.5149
60111SOL     OW87572   3.933   2.354   6.370  0.0455  0.0290  0.3108
60111SOL    HW187573   3.920   2.261   6.389  0.8803 -0.4568 -1.3113
60111SOL    HW287574   4.025   2.371   6.389  0.1223  0.2935 -0.2686
60112SOL     OW87575   6.056   5.511  12.276 -0.2627 -0.2372  0.0928
60112SOL    HW187576   6.127   5.534  12.336 -0.6188  1.1115  0.0233
60112SOL    HW287577   6.004   5.446  12.325  0.6309 -0.7423  0.3958
60113SOL     OW87578   2.752  12.517   5.747 -0.2255  0.1255 -0.1647
60113SOL    HW187579   2.664  12.484   5.764  0.2830 -0.8737  0.6282
60113SOL    HW287580   2.785  12.462   5.675  1.6008 -3.1265  2.8413
60114SOL     OW87581  11.180   2.184   9.502 -0.1974  1.1000 -0.2275
60114SOL    HW187582  11.272   2.208   9.512  0.1981 -0.5083  0.2688
60114SOL    HW287583  11.132   2.250   9.551  0.7897  1.2095  0.6150
60115SOL     OW87584   0.366   9.594   6.002  0.5203  0.0537  0.1035
60115SOL    HW187585   0.301   9.641   5.950  1.7988  0.0858 -1.5536
60115SOL    HW287586   0.392   9.656   6.070  1.0828  1.2437 -1.1370
60116SOL     OW87587   9.943   5.793   7.737 -0.4779 -0.6898  0.3978
60116SOL    HW187588   9.958   5.842   7.656  0.1514  1.5514  1.7694
60116SOL    HW287589  10.025   5.803   7.786 -1.0080 -1.5992  1.4992
60117SOL     OW87590   2.379   0.618   4.449 -0.1265 -0.3754 -0.2027
60117SOL    HW187591   2.371   0.543   4.390 -0.1665 -0.6119  0.1032
60117SOL    HW287592   2.470   0.646   4.440  0.0466 -0.8236  0.1214
60118SOL     OW87593   0.698   8.499   1.061 -0.0215  0.6081  0.1262
60118SOL    HW187594   0.697   8.434   0.991 -1.4049  0.3813  0.3386
60118SOL    HW287595   0.663   8.578   1.021 -0.6037  0.5426  0.5013
60119SOL     OW87596   6.382   2.707   9.422 -0.2321  0.7625 -0.0100
60119SOL    HW187597   6.431   2.637   9.380 -0.1011  1.1804 -0.5665
60119SOL    HW287598   6.305   2.664   9.460  0.0282  0.2684 -0.0356
60120SOL     OW87599  12.003   5.281   9.078  0.0153  0.1047  0.0729
60120SOL    HW187600  12.022   5.188   9.089 -1.0670  0.0293  1.7042
60120SOL    HW287601  11.942   5.284   9.005 -0.5473 -0.5757  0.4968
60121SOL     OW87602   6.692  12.463  11.154 -0.0337  0.4074 -0.1721
60121SOL    HW187603   6.753  12.420  11.094  0.6422 -1.9791  2.0285
60121SOL    HW287604   6.710  12.557  11.143  4.6795 -0.0988  0.7970
60122SOL     OW87605  11.470   0.331   6.747 -0.4938 -0.0155  0.1825
60122SOL    HW187606  11.489   0.404   6.805  0.2480 -0.4272  0.4670
60122SOL    HW287607  11.535   0.265   6.769 -0.8579 -0.5821 -0.3985
60123SOL     OW87608   4.101   4.141   0.293  0.2610  0.1412 -0.2179
60123SOL    HW187609   4.017   4.126   0.336 -0.0718  0.9975 -0.5371
60123SOL    HW287610   4.100   4.234   0.270  1.6696  0.3955  0.5687
60124SOL     OW87611   4.339  10.733   3.531 -0.1477  0.3117  0.1703
60124SOL    HW187612   4.271  10.775   3.585 -0.2697 -1.3966  1.4175
60124SOL    HW287613   4.323  10.766   3.443 -2.2461  0.3887  0.5297
60125SOL     OW87614   1.444   1.444   6.362  0.2357  0.6031 -0.3751
60125SOL    HW187615   1.447   1.375   6.428 -2.7863  0.6508 -0.0802
60125SOL    HW287616   1.375   1.503   6.392  3.1431  4.3207 -0.1901
60126SOL     OW87617   7.282  11.473   8.496  0.2815 -0.0249  0.1301
60126SOL    HW187618   7.323  11.425   8.568 -1.2856 -1.1327  0.3454
60126SOL    HW287619   7.212  11.415   8.466  0.4355  0.7358 -1.8267
60127SOL     OW87620   6.424   6.749   4.013 -0.3416 -0.0700  0.1584
60127SOL    HW187621   6.341   6.727   3.970  0.9599 -1.8267 -1.6212
60127SOL    HW287622   6.407   6.736   4.107 -1.5073 -2.5620 -0.3277
60128SOL     OW87623   6.760   7.349   7.788  0.0446  0.3150 -0.1052
60128SOL    HW187624   6.693   7.406   7.825 -0.3325 -0.0908 -0.1561
60128SOL    HW287625   6.806   7.403   7.725 -0.4578  0.4994 -0.3166
60129SOL     OW87626   6.754   7.187  10.400  0.4632 -0.4128 -0.6226
60129SOL    HW187627   6.840   7.199  10.440  0.2665 -1.6489  0.2392
60129SOL    HW287628   6.748   7.093  10.382 -1.6895 -0.8605  1.7842
60130SOL     OW87629  11.103  11.094   2.736  0.0227  0.6439  0.2068
60130SOL    HW187630  11.144  11.020   2.781 -1.1491 -0.6795 -0.7806
60130SOL    HW287631  11.176  11.150   2.710  1.0615 -0.7537 -0.0181
60131SOL     OW87632   9.401   5.021   5.336  0.3136 -0.1455 -0.1553
60131SOL    HW187633   9.461   4.966   5.386 -0.0674  0.6504  1.2395
60131SOL    HW287634   9.458   5.082   5.289  0.8073 -2.2890 -2.5588
60132SOL     OW87635   1.062   7.644   2.154  0.1655  0.2030 -0.8853
60132SOL    HW187636   1.059   7.721   2.098 -1.6174  0.0716 -1.0433
60132SOL    HW287637   1.095   7.676   2.238  0.8185  0.8290 -1.3700
60133SOL     OW87638   4.210   4.334  10.338  0.0943  0.0491  0.4978
60133SOL    HW187639   4.298   4.362  10.361  0.6707 -1.1963 -0.0944
60133SOL    HW287640   4.163   4.330  10.421  0.2247  1.8429  0.6958
60134SOL     OW87641   2.966   3.679   2.688 -0.3432 -1.0610  0.6316
60134SOL    HW187642   2.967   3.639   2.601 -0.7608  1.4539 -0.6158
60134SOL    HW287643   2.875   3.670   2.717 -0.5388 -0.6126  0.1622
60135SOL     OW87644  12.332   4.948   1.305 -0.2376  0.0119  0.8345
60135SOL    HW187645  12.412   5.001   1.297  0.5514 -1.1592  0.7955
60135SOL    HW287646  12.306   4.930   1.215 -0.8602  0.8197  0.8380
60136SOL     OW87647   4.966   6.972   3.863 -0.3116  0.2186 -0.0044
60136SOL    HW187648   4.882   6.968   3.909  0.9640 -0.0652  2.4443
60136SOL    HW287649   5.005   7.054   3.890 -0.0215  0.6565 -1.6393
60137SOL     OW87650   2.584   8.085   8.766  0.5430  0.4157  0.2048
60137SOL    HW187651   2.507   8.118   8.813 -0.2273 -1.0050 -0.0132
60137SOL    HW287652   2.586   8.136   8.685 -1.0862 -0.5346 -0.4846
60138SOL     OW87653   8.542   6.239   5.559  0.4740 -0.3628  0.4451
60138SOL    HW187654   8.514   6.325   5.526  0.0269 -0.7899 -0.3137
60138SOL    HW287655   8.611   6.259   5.623 -1.8398  0.7769  2.7981
60139SOL     OW87656   2.053   6.624   9.245  0.7506 -0.0750  0.1922
60139SOL    HW187657   2.148   6.617   9.236  0.6618  0.2946 -1.2191
60139SOL    HW287658   2.032   6.710   9.209 -0.1954 -0.4769 -0.2505
60140SOL     OW87659  12.474   6.345   9.104  0.5395  0.9301 -0.4151
60140SOL    HW187660  12.434   6.270   9.060 -0.0897  2.3739 -2.5003
60140SOL    HW287661  12.524   6.389   9.035  0.9641  2.3648  0.7564
60141SOL     OW87662   4.299   0.571   5.333  0.3269  0.4862 -0.3995
60141SOL    HW187663   4.354   0.529   5.267  0.1557  1.7889 -1.3968
60141SOL    HW287664   4.253   0.640   5.286 -0.2714  1.0485  0.9618
60142SOL     OW87665   5.535   4.439   7.571  0.3318  0.6288  0.0258
60142SOL    HW187666   5.446   4.405   7.563 -0.2689  2.1910 -0.1728
60142SOL    HW287667   5.552   4.484   7.488  0.8127  1.4657  0.5615
60143SOL     OW87668  10.567   2.438   1.168 -1.0491 -0.4689  0.7220
60143SOL    HW187669  10.574   2.408   1.078 -1.3373  0.0012  0.5405
60143SOL    HW287670  10.480   2.478   1.174 -0.7476  0.1724  0.9942
60144SOL     OW87671   2.579   7.702   9.236  0.1444 -0.1413 -0.1280
60144SOL    HW187672   2.525   7.636   9.194 -0.4453  0.1309  0.1842
60144SOL    HW287673   2.520   7.745   9.298  0.0980  1.6394 -1.3366
60145SOL     OW87674   8.366   0.039   0.215 -0.2783  0.3966  0.4842
60145SOL    HW187675   8.386   0.131   0.198 -0.9973  0.5506  0.4136
60145SOL    HW287676   8.274   0.030   0.190  0.1789 -0.6961 -0.9213
60146SOL     OW87677   2.986  11.020  11.218  0.2719  0.2597  0.3422
60146SOL    HW187678   3.078  10.998  11.206  0.5463  1.0770  0.9152
60146SOL    HW287679   2.954  11.039  11.130  0.7859  0.4871  0.2046
60147SOL     OW87680   8.308   0.129   7.195 -0.0262 -0.1667  0.4086
60147SOL    HW187681   8.346   0.099   7.277  0.3161 -0.9643 -0.0319
60147SOL    HW287682   8.282   0.219   7.213 -3.1186 -1.3217  2.4576
60148SOL     OW87683   6.400   4.265   0.551 -0.2908  0.1295  0.5437
60148SOL    HW187684   6.335   4.218   0.498  1.2549 -2.7664  0.9904
60148SOL    HW287685   6.351   4.337   0.590 -2.7056 -0.6577 -0.7805
60149SOL     OW87686   9.785  12.423   5.566 -0.2944  0.0939 -0.6405
60149SOL    HW187687   9.838  12.345   5.549  0.5287  0.2091  1.2439
60149SOL    HW287688   9.706  12.389   5.610  0.0878  0.3074  0.2285
60150SOL     OW87689   0.224  11.075   3.821  0.4597  0.1828  0.0343
60150SOL    HW187690   0.231  11.030   3.737 -1.0415  0.9886 -0.5461
60150SOL    HW287691   0.237  11.167   3.800  0.2561  0.3707  0.7149
60151SOL     OW87692   3.060   8.181   6.606 -0.5989 -0.4100 -0.0779
60151SOL    HW187693   3.015   8.251   6.559 -1.6480  0.1301  1.6319
60151SOL    HW287694   3.028   8.101   6.565 -1.0306  0.0458 -0.6581
60152SOL     OW87695  10.722  12.154   3.748 -0.0894  0.7341 -0.0024
60152SOL    HW187696  10.651  12.202   3.706 -0.9472 -0.5265 -0.0634
60152SOL    HW287697  10.681  12.073   3.779  1.2542  0.1097  0.2304
60153SOL     OW87698   3.331   2.586   8.383 -0.1293  0.4751 -0.0109
60153SOL    HW187699   3.257   2.542   8.342  0.7632 -2.6908  1.4576
60153SOL    HW287700   3.392   2.604   8.312 -0.9380  0.2080 -0.7825
60154SOL     OW87701   5.182   8.699   5.500 -0.7935  0.2160 -0.2845
60154SOL    HW187702   5.155   8.617   5.460  0.5831 -0.2829 -0.2377
60154SOL    HW287703   5.189   8.761   5.427 -2.1402  0.3985 -0.2790
60155SOL     OW87704  12.132  10.693   7.273  0.5778  0.1118 -0.2057
60155SOL    HW187705  12.086  10.660   7.196  0.3469  1.1435 -0.5181
60155SOL    HW287706  12.165  10.614   7.316  0.1863 -0.5172 -1.0242
60156SOL     OW87707   7.054   9.617   9.362 -0.8578  0.2734 -0.2500
60156SOL    HW187708   7.147   9.600   9.349 -0.9493 -0.0287 -0.5185
60156SOL    HW287709   7.050   9.667   9.444 -0.4720  0.2040 -0.1867
60157SOL     OW87710   2.925   5.113   6.380  0.0487 -0.4722 -0.0002
60157SOL    HW187711   2.873   5.072   6.449  0.2856 -0.9295 -0.0922
60157SOL    HW287712   2.999   5.054   6.367 -0.2699 -0.6748 -1.0222
60158SOL     OW87713  12.408   6.283  10.394 -0.2266 -0.0963 -0.2150
60158SOL    HW187714  12.379   6.264  10.304 -0.0199 -2.2148  0.1258
60158SOL    HW287715  12.326   6.292  10.443 -0.3322  0.3427 -0.4632
60159SOL     OW87716   1.402   6.306   2.929 -0.1046 -0.1170 -0.4958
60159SOL    HW187717   1.482   6.273   2.888  0.0618  0.0341 -0.2875
60159SOL    HW287718   1.356   6.352   2.858  0.2650  0.2901 -0.4740
60160SOL     OW87719   6.573   2.608   5.369 -0.3832  0.2251 -0.7242
60160SOL    HW187720   6.568   2.614   5.273  1.9539  1.4196 -0.8431
60160SOL    HW287721   6.560   2.698   5.399 -1.5386 -0.2111  0.1400
60161SOL     OW87722   8.674   4.944  12.606 -0.2641  0.5947 -0.0146
60161SOL    HW187723   8.641   4.945  12.696  0.3002  0.8323  0.1907
60161SOL    HW287724   8.744   5.009  12.605  1.7365 -1.4519  0.1418
60162SOL     OW87725   6.648   1.722   3.244  0.2510  0.0947  0.3392
60162SOL    HW187726   6.574   1.707   3.303  2.0283  0.3219  2.8070
60162SOL    HW287727   6.636   1.658   3.174 -1.5094 -0.8603  1.4261
60163SOL     OW87728   9.634   3.908   1.117 -0.5032  0.0393 -0.8937
60163SOL    HW187729   9.643   3.824   1.072  0.9241 -0.2980 -0.0422
60163SOL    HW287730   9.580   3.962   1.059 -3.4278 -2.1646 -0.4593
60164SOL     OW87731   2.286   2.297   5.937  0.3940 -0.1301  0.8427
60164SOL    HW187732   2.343   2.234   5.893 -0.3203  0.1949 -0.5820
60164SOL    HW287733   2.265   2.362   5.871 -0.1992  0.7384  1.8456
60165SOL     OW87734   5.583   0.067   1.836 -0.1226 -0.1592  0.0123
60165SOL    HW187735   5.520   0.074   1.908 -0.2261  0.5869 -0.1482
60165SOL    HW287736   5.644   0.140   1.850 -0.3653  0.2234 -0.8718
60166SOL     OW87737   4.238  11.631   1.497  0.2715  0.3614  0.9441
60166SOL    HW187738   4.297  11.557   1.509 -1.1831 -1.0972 -0.4098
60166SOL    HW287739   4.292  11.698   1.456  1.6267  0.0939  2.2299
60167SOL     OW87740   6.583   3.594   6.889 -0.2638 -0.3348 -0.2206
60167SOL    HW187741   6.584   3.500   6.908 -2.1006 -0.6622 -1.5030
60167SOL    HW287742   6.671   3.612   6.856  0.1267 -1.5970  0.0549
60168SOL     OW87743   2.439  12.448   1.302 -0.7847 -0.4322  0.0852
60168SOL    HW187744   2.359  12.501   1.312 -0.5134 -0.0734  0.3656
60168SOL    HW287745   2.406  12.361   1.278 -1.2134 -0.0399 -0.7839
60169SOL     OW87746  10.487   4.470  10.730  0.0784  0.4459  0.2516
60169SOL    HW187747  10.559   4.520  10.691  0.8330  0.4112  1.5477
60169SOL    HW287748  10.440   4.434  10.655  0.5331  1.6723 -0.6693
60170SOL     OW87749  11.892   2.409   8.829 -0.0252  0.2900  0.5590
60170SOL    HW187750  11.872   2.369   8.914  0.2449  0.3806  0.6634
60170SOL    HW287751  11.807   2.416   8.786 -0.2551  0.8509  1.0849
60171SOL     OW87752   0.008   0.791   9.709  0.1333 -0.0510  0.0038
60171SOL    HW187753  -0.056   0.722   9.727  1.4781 -1.4903 -0.5178
60171SOL    HW287754   0.012   0.841   9.790  0.4965 -1.7608  1.1020
60172SOL     OW87755   3.264   0.881  12.620 -0.0013  0.0534  0.2669
60172SOL    HW187756   3.328   0.888  12.548  0.5855 -0.7328  0.6944
60172SOL    HW287757   3.274   0.791  12.651 -1.4115 -0.1159  0.2766
60173SOL     OW87758  10.655   5.296  10.552 -0.3304 -0.3978 -0.1831
60173SOL    HW187759  10.639   5.251  10.635 -1.8921  1.2031  0.4572
60173SOL    HW287760  10.746   5.326  10.558 -0.9359  1.2930  1.8355
60174SOL     OW87761   0.075   0.092   8.167 -0.3779  0.4576 -0.1035
60174SOL    HW187762   0.044   0.090   8.077 -1.6721  2.8090  0.2125
60174SOL    HW287763   0.025   0.024   8.212 -0.0363 -0.4331 -1.0123
60175SOL     OW87764   4.378   1.073   4.704  0.2640  0.0353 -0.1490
60175SOL    HW187765   4.318   0.999   4.719  0.0963  0.2065  0.0290
60175SOL    HW287766   4.321   1.150   4.703  0.4967  0.2161  0.1770
60176SOL     OW87767  12.287   7.807   9.387  0.2022  0.0696 -0.0751
60176SOL    HW187768  12.208   7.755   9.376  0.6664 -1.1264  1.7394
60176SOL    HW287769  12.353   7.763   9.333 -0.7584  2.3187 -3.3925
60177SOL     OW87770  10.201   5.722  11.025 -0.4282 -0.1407 -0.3746
60177SOL    HW187771  10.140   5.767  10.967  0.2319  0.8024 -0.3507
60177SOL    HW287772  10.152   5.710  11.106 -1.1930 -1.0469 -0.9372
60178SOL     OW87773   2.928   8.436  12.448 -0.4488 -0.3591  1.1207
60178SOL    HW187774   2.905   8.356  12.401  0.4347  1.8021 -3.4711
60178SOL    HW287775   2.849   8.489  12.446  0.2845  0.7260 -0.2247
60179SOL     OW87776   8.999  11.169   7.675  0.0477 -0.5171 -0.4068
60179SOL    HW187777   9.053  11.140   7.602 -1.1513 -0.1467 -1.4792
60179SOL    HW287778   9.043  11.246   7.709  2.3214 -2.4370  1.3533
60180SOL     OW87779  10.188   4.996  10.963 -0.4709  0.1423  0.0479
60180SOL    HW187780  10.206   4.947  10.882  0.0627 -1.0702  0.8790
60180SOL    HW287781  10.092   5.001  10.967 -0.6853 -2.9495  1.1200
60181SOL     OW87782   2.868   7.762   1.684  0.3128 -0.9163 -0.3464
60181SOL    HW187783   2.796   7.721   1.636 -0.8751 -0.0984  0.6717
60181SOL    HW287784   2.884   7.844   1.637 -2.3926  1.0228  1.7596
60182SOL     OW87785   6.564   0.900   7.507  0.4362 -0.3456 -0.6100
60182SOL    HW187786   6.529   0.986   7.484 -0.1636  0.1745  2.0088
60182SOL    HW287787   6.501   0.838   7.469  0.0049  0.4001 -1.1438
60183SOL     OW87788   6.933   8.740  11.607  0.1439  0.2914 -0.2725
60183SOL    HW187789   6.922   8.693  11.689 -0.8766 -1.4968 -1.3488
60183SOL    HW287790   7.009   8.698  11.565  0.7265  1.2595 -0.2001
60184SOL     OW87791   2.996   4.991   5.064 -0.3980  0.3119  0.3746
60184SOL    HW187792   2.979   4.994   5.158  0.0658  1.3636  0.4378
60184SOL    HW287793   2.913   4.960   5.026 -0.7112  0.2354  1.0949
60185SOL     OW87794  10.515  10.450   1.272 -0.3045  0.1018  0.5646
60185SOL    HW187795  10.441  10.463   1.213  0.6513 -0.3723 -0.7763
60185SOL    HW287796  10.500  10.364   1.310  0.2050 -0.5638 -0.6987
60186SOL     OW87797  11.279   1.177  11.696  0.2323 -0.5483  0.3676
60186SOL    HW187798  11.211   1.216  11.641  0.5632  0.3038  0.5476
60186SOL    HW287799  11.236   1.104  11.740 -0.4554 -0.2654  0.1689
60187SOL     OW87800   9.287   6.513   9.764  0.2967  0.6227 -0.7091
60187SOL    HW187801   9.217   6.488   9.703 -0.0767 -0.1095  0.0063
60187SOL    HW287802   9.351   6.443   9.757  0.1971  0.4721 -0.1852
60188SOL     OW87803   3.828   8.806   8.173 -1.0390 -0.3864 -0.8465
60188SOL    HW187804   3.892   8.861   8.218 -0.3392 -1.4175 -0.5363
60188SOL    HW287805   3.861   8.800   8.083 -0.9515 -0.5471 -0.8037
60189SOL     OW87806   2.750   4.692  11.422 -0.2011 -0.3637  0.3506
60189SOL    HW187807   2.773   4.697  11.330 -0.3979 -0.8009  0.2754
60189SOL    HW287808   2.757   4.782  11.454  2.1319 -0.5371  0.4739
60190SOL     OW87809  11.012  11.820  11.503 -0.0064  0.2586  0.8445
60190SOL    HW187810  10.985  11.808  11.412  0.8229  0.9110  0.5016
60190SOL    HW287811  10.973  11.745  11.549 -1.6229  0.6810  0.2341
60191SOL     OW87812   5.129   5.401   7.424  0.0932  0.0471  0.5989
60191SOL    HW187813   5.140   5.494   7.445  0.4463 -0.2172  1.6755
60191SOL    HW287814   5.043   5.396   7.384 -0.1950  0.7573  1.0966
60192SOL     OW87815   3.519   3.808  12.015  0.2430 -0.2201  0.2322
60192SOL    HW187816   3.496   3.880  12.074  1.3619  0.7757 -0.5118
60192SOL    HW287817   3.614   3.814  12.004  0.0103  0.0965 -2.2345
60193SOL     OW87818   8.268   9.533   0.226  0.1797  0.3545  0.0031
60193SOL    HW187819   8.241   9.577   0.307 -2.3248  1.1247 -1.1526
60193SOL    HW287820   8.195   9.473   0.207  1.1807 -0.5241 -1.1900
60194SOL     OW87821  11.679   8.429   8.856 -0.6415  0.2057  0.3368
60194SOL    HW187822  11.626   8.354   8.883 -1.2906  0.8046  0.7665
60194SOL    HW287823  11.628   8.506   8.884  0.9451  0.8010  1.7366
60195SOL     OW87824   5.275  11.012   0.286 -0.1444 -0.2903 -0.1959
60195SOL    HW187825   5.343  10.956   0.323  0.1986  0.3869  0.2141
60195SOL    HW287826   5.323  11.088   0.253 -0.6888  0.1039 -0.0720
60196SOL     OW87827  10.416   9.206   1.372 -0.0002 -0.1933  0.4899
60196SOL    HW187828  10.510   9.195   1.365 -0.1242 -1.2128  0.3046
60196SOL    HW287829  10.405   9.274   1.439  0.8432 -0.8509  1.3225
60197SOL     OW87830   4.317  10.807   1.627 -0.4402  0.1761  0.0813
60197SOL    HW187831   4.400  10.759   1.621 -1.2573 -1.2373 -0.3683
60197SOL    HW287832   4.329  10.883   1.568  1.0043  0.7762  1.1021
60198SOL     OW87833   9.637  10.881   9.705 -0.1258  0.7224  0.3178
60198SOL    HW187834   9.708  10.882   9.641  0.0852  0.0989  0.5441
60198SOL    HW287835   9.657  10.954   9.763 -0.9303  2.0405 -0.9771
60199SOL     OW87836  10.074  12.203   4.542  0.2600  0.1120  0.2625
60199SOL    HW187837  10.160  12.246   4.546  0.2277  0.7422 -3.1134
60199SOL    HW287838  10.013  12.268   4.576  0.8536  0.5461  0.5142
60200SOL     OW87839   4.464   9.553   4.012 -0.6949  0.3905 -0.2935
60200SOL    HW187840   4.450   9.645   3.993  1.5318  0.9647  0.6087
60200SOL    HW287841   4.461   9.547   4.108  2.2577  0.1746 -0.1287
60201SOL     OW87842   8.244   2.347  10.141  0.1647 -0.0142  0.5357
60201SOL    HW187843   8.265   2.257  10.118  1.7492 -0.2745  2.6614
60201SOL    HW287844   8.168   2.341  10.198  1.3003 -0.2573  2.1036
60202SOL     OW87845  12.413   7.833  12.571  0.6089  0.2602  0.2210
60202SOL    HW187846  12.453   7.896  12.631 -0.2503  0.7833  0.2532
60202SOL    HW287847  12.381   7.763  12.628 -0.6131  0.9704  0.4546
60203SOL     OW87848   7.965   4.705   6.478  0.3493  0.3190 -0.0252
60203SOL    HW187849   8.039   4.745   6.432 -0.8326  1.7753 -0.7835
60203SOL    HW287850   7.933   4.774   6.536 -0.9207  0.0314 -0.3440
60204SOL     OW87851  10.722   9.725  11.356 -0.1489 -0.0626 -0.4483
60204SOL    HW187852  10.736   9.782  11.432 -0.2666 -0.5377 -0.0630
60204SOL    HW287853  10.671   9.778  11.295 -0.4949  0.1570  0.0208
60205SOL     OW87854   5.441   1.219   2.069 -0.5632 -0.7306  0.1272
60205SOL    HW187855   5.362   1.230   2.017 -0.6285 -2.2474 -0.1323
60205SOL    HW287856   5.431   1.280   2.142 -0.6763  1.1118 -1.3516
60206SOL     OW87857   1.598  10.144   4.014 -0.0258  0.3567 -0.4419
60206SOL    HW187858   1.609  10.220   3.956  0.8275 -0.1205 -0.9275
60206SOL    HW287859   1.684  10.102   4.014  0.4065  1.0504  2.2048
60207SOL     OW87860   5.786   5.365  11.874 -1.0881  0.0433  0.1420
60207SOL    HW187861   5.845   5.359  11.949 -0.6122  0.0697 -0.2312
60207SOL    HW287862   5.735   5.283  11.879 -0.3560 -0.4382 -0.0901
60208SOL     OW87863   8.847   2.711   6.892 -0.0313  0.6188 -0.6804
60208SOL    HW187864   8.831   2.785   6.834  1.9247  0.9826 -0.7949
60208SOL    HW287865   8.932   2.728   6.931 -0.7088 -0.2545  1.3563
60209SOL     OW87866   4.687   9.414   9.316  0.2691 -0.4026 -0.3900
60209SOL    HW187867   4.764   9.468   9.334  0.0797 -0.1460 -0.3417
60209SOL    HW287868   4.616   9.457   9.363 -0.1427  0.0140 -1.3698
60210SOL     OW87869   5.317   6.819   0.161  0.7163  0.5110  0.0290
60210SOL    HW187870   5.383   6.782   0.103  1.7967  1.2135  0.7684
60210SOL    HW287871   5.268   6.743   0.193 -0.5151  0.1455 -2.4268
60211SOL     OW87872   9.498   2.387  11.377  0.2650 -0.3358 -0.1190
60211SOL    HW187873   9.518   2.337  11.298 -0.3575 -0.5892 -0.1157
60211SOL    HW287874   9.404   2.403  11.373  0.4991  1.1311 -0.2891
60212SOL     OW87875   6.899   9.604   5.816 -0.2485  0.1382  0.0212
60212SOL    HW187876   6.917   9.560   5.733 -0.5424  0.1286 -0.0370
60212SOL    HW287877   6.820   9.562   5.849 -1.7088  1.9520 -0.9953
60213SOL     OW87878   0.914   0.013   1.718 -0.4877 -0.5085  0.3618
60213SOL    HW187879   0.943   0.068   1.790 -0.0126  1.0169 -0.9513
60213SOL    HW287880   0.819   0.007   1.729 -0.3217 -1.0635  1.6089
60214SOL     OW87881  11.381   6.490   4.200  0.6529 -0.8021  0.3440
60214SOL    HW187882  11.325   6.542   4.142  1.3335 -1.3726 -0.8739
60214SOL    HW287883  11.351   6.511   4.288 -0.6900 -0.2115 -0.2308
60215SOL     OW87884   1.512  11.750   2.929  0.3168  0.8103  0.0115
60215SOL    HW187885   1.513  11.723   2.837 -0.7925  1.4571 -0.2037
60215SOL    HW287886   1.440  11.701   2.968  0.3916  0.9925  0.3834
60216SOL     OW87887   4.117   2.094  11.954  0.0954  0.1900 -0.2052
60216SOL    HW187888   4.184   2.107  12.021  0.2272 -0.8411 -0.1249
60216SOL    HW287889   4.154   2.027  11.897 -0.5625  0.1416 -0.5727
60217SOL     OW87890   8.362   4.527  12.114 -1.0965 -0.4125  0.0833
60217SOL    HW187891   8.374   4.432  12.111  1.0829 -0.1758 -0.0528
60217SOL    HW287892   8.432   4.558  12.171 -1.4566  1.1646 -0.2939
60218SOL     OW87893   7.963  11.100   6.903  0.7589 -0.8210 -0.3917
60218SOL    HW187894   7.976  11.163   6.832  0.6750 -0.1883  0.1441
60218SOL    HW287895   8.051  11.086   6.939  0.7181 -0.6806 -0.2360
60219SOL     OW87896  11.198   4.599   5.010 -0.0584 -0.5020  0.0493
60219SOL    HW187897  11.256   4.636   4.943 -0.1390 -0.3464  0.0649
60219SOL    HW287898  11.118   4.651   5.003  0.1019 -0.1819  0.5849
60220SOL     OW87899  10.109   2.891   3.431  0.0314  0.0668 -0.7309
60220SOL    HW187900  10.021   2.854   3.433  0.7743 -1.7809 -0.4539
60220SOL    HW287901  10.148   2.865   3.515  1.4015 -0.5812 -1.5471
60221SOL     OW87902   5.024   3.218   7.649 -0.2917 -0.3166  0.2391
60221SOL    HW187903   5.060   3.281   7.711  1.3710  1.6085 -2.4713
60221SOL    HW287904   4.935   3.250   7.632  0.3826  1.1418 -0.7740
60222SOL     OW87905   7.192   2.564  12.654 -0.6456 -0.0848 -0.7741
60222SOL    HW187906   7.222   2.652  12.628  0.1960 -0.3423 -0.7090
60222SOL    HW287907   7.100   2.563  12.630 -1.1509  1.4544  0.8606
60223SOL     OW87908   8.965   4.105   7.951  0.2491 -0.6848  0.5685
60223SOL    HW187909   9.053   4.070   7.967  0.3835 -0.0760  1.1925
60223SOL    HW287910   8.910   4.063   8.018  0.4108  0.2793  1.3206
60224SOL     OW87911  12.553   1.847   9.644 -0.4482 -1.2030  0.2064
60224SOL    HW187912  12.634   1.815   9.685  0.8929  1.1353 -0.3914
60224SOL    HW287913  12.578   1.866   9.554 -1.7476 -0.7269 -0.0702
60225SOL     OW87914  10.297   6.955   4.323  0.1950  0.2017 -0.5738
60225SOL    HW187915  10.325   6.933   4.234  1.1755  1.2645 -0.5404
60225SOL    HW287916  10.298   7.050   4.326 -0.1431  0.1841  0.4898
60226SOL     OW87917   3.167   1.192   8.964 -0.0427  0.2286 -0.4154
60226SOL    HW187918   3.209   1.108   8.984 -1.7249 -0.5736 -0.0490
60226SOL    HW287919   3.131   1.181   8.876  1.5994  1.3934 -1.2934
60227SOL     OW87920   9.767   9.234  12.107 -0.1997  0.3324 -0.0391
60227SOL    HW187921   9.674   9.252  12.100 -0.1809  1.0646  1.3247
60227SOL    HW287922   9.810   9.310  12.066 -0.1924  0.3301 -0.0358
60228SOL     OW87923  11.044   4.304   4.981 -0.1586 -0.1707 -0.3561
60228SOL    HW187924  11.135   4.293   5.010 -0.5137 -1.2564  0.4502
60228SOL    HW287925  11.027   4.227   4.926 -0.5618  0.0731 -0.5758
60229SOL     OW87926   4.190   4.454   3.461  0.3935  0.8047 -0.0119
60229SOL    HW187927   4.172   4.455   3.555  0.7460 -1.8003  0.1631
60229SOL    HW287928   4.272   4.502   3.451  1.7384 -1.0752  1.4219
60230SOL     OW87929   0.582  11.484   0.113  0.5703 -0.0128  0.2525
60230SOL    HW187930   0.490  11.486   0.086 -0.0341 -0.5911  2.1200
60230SOL    HW287931   0.626  11.435   0.043 -0.7226 -0.6431 -0.1611
60231SOL     OW87932   8.499   7.114   6.134  0.6282 -0.0151  0.1002
60231SOL    HW187933   8.521   7.192   6.184  0.4816  1.3472 -1.8197
60231SOL    HW287934   8.580   7.089   6.090  0.7980 -1.2777  1.0939
60232SOL     OW87935   7.344   9.579   8.888 -0.0374  0.2179  0.4412
60232SOL    HW187936   7.317   9.488   8.893 -1.5639  0.6230  0.0327
60232SOL    HW287937   7.426   9.582   8.938  0.8335 -1.6332 -0.7801
60233SOL     OW87938   7.526   5.735   2.801  1.2059  0.3152 -0.7622
60233SOL    HW187939   7.574   5.669   2.851  0.7539 -0.1224 -0.8938
60233SOL    HW287940   7.579   5.748   2.722  0.5393 -1.0495 -1.4772
60234SOL     OW87941   7.534   0.565   2.857 -0.3871  0.4491 -0.0064
60234SOL    HW187942   7.597   0.494   2.868 -0.4762  0.2280 -0.8571
60234SOL    HW287943   7.449   0.524   2.871 -0.4071  0.5008  0.0208
60235SOL     OW87944  10.963  12.212   9.914  0.0233 -0.4082  0.5768
60235SOL    HW187945  10.949  12.127   9.955 -0.2756 -0.7597 -0.2454
60235SOL    HW287946  10.909  12.272   9.965 -3.4019 -1.4494 -1.4873
60236SOL     OW87947   4.304   7.421   5.021  0.2522  0.5225 -0.1760
60236SOL    HW187948   4.268   7.449   5.106  0.5585 -0.5240  0.3184
60236SOL    HW287949   4.266   7.482   4.958 -0.6467  0.8139  0.6137
60237SOL     OW87950   9.844   4.256   4.162  0.2643  0.2398  0.2275
60237SOL    HW187951   9.921   4.275   4.110  0.0307  1.0065  0.1555
60237SOL    HW287952   9.789   4.333   4.153 -0.1811  0.0069  0.8775
60238SOL     OW87953   1.630  11.568   1.841  0.2256  0.2038  0.6357
60238SOL    HW187954   1.695  11.615   1.894 -1.0027  0.6488  1.7842
60238SOL    HW287955   1.576  11.523   1.905 -0.6053 -0.1521 -0.3120
60239SOL     OW87956   4.713   9.160   0.624 -0.3721  0.0921 -0.4394
60239SOL    HW187957   4.642   9.223   0.614 -0.7063  0.2984  2.2820
60239SOL    HW287958   4.677   9.077   0.592 -1.6994  0.3128  0.3933
60240SOL     OW87959   8.851   4.524   6.079  0.3396  0.1043  0.5018
60240SOL    HW187960   8.943   4.507   6.100  0.5134 -0.1197 -0.3971
60240SOL    HW287961   8.840   4.489   5.991 -0.4726  0.6136  0.3932
60241SOL     OW87962   9.270  12.276   1.083 -0.0510 -0.1015  0.0129
60241SOL    HW187963   9.254  12.298   0.991  1.7130 -0.4132 -0.4050
60241SOL    HW287964   9.229  12.347   1.132 -0.4595  0.4100 -1.0344
60242SOL     OW87965   3.684  11.995   7.183 -0.5086  0.2227  0.3926
60242SOL    HW187966   3.768  11.967   7.146 -2.0932 -0.5762 -2.9890
60242SOL    HW287967   3.693  12.090   7.193  0.1715  0.4856 -2.0224
60243SOL     OW87968   8.463  12.126  10.828  0.0802  0.6827 -0.1706
60243SOL    HW187969   8.486  12.044  10.874 -0.7356  0.6488  0.1885
60243SOL    HW287970   8.491  12.111  10.738 -0.0776 -0.0075 -0.1146
60244SOL     OW87971   6.656   9.621   6.648  0.0971 -0.5222  0.3511
60244SOL    HW187972   6.749   9.628   6.626  0.0394 -0.2296  0.1874
60244SOL    HW287973   6.611   9.653   6.570 -0.1006  1.4030  1.2025
60245SOL     OW87974   0.648  12.186  11.684  0.0404  0.6292 -0.4410
60245SOL    HW187975   0.595  12.241  11.627  0.7259  1.3346 -0.3971
60245SOL    HW287976   0.583  12.141  11.739 -0.5340  1.1966 -0.6410
60246SOL     OW87977   1.104  10.274   9.084 -0.3452  0.2200  0.0663
60246SOL    HW187978   1.119  10.189   9.126  1.7245 -0.0088 -0.9939
60246SOL    HW287979   1.162  10.334   9.130  0.0105  0.5160 -0.7547
60247SOL     OW87980   1.301   5.756   7.366  0.1831  0.6004  1.0830
60247SOL    HW187981   1.346   5.744   7.282  1.1897 -1.4543  1.8428
60247SOL    HW287982   1.213   5.720   7.350 -0.4277  2.2848  0.3313
60248SOL     OW87983   2.757   9.300   5.879  0.8125  0.3071  0.1607
60248SOL    HW187984   2.750   9.347   5.796  1.7613 -0.8937 -0.6276
60248SOL    HW287985   2.719   9.214   5.862  0.7716  0.1306  1.0558
60249SOL     OW87986  10.814   5.373   5.502  0.2508 -0.4600  0.6745
60249SOL    HW187987  10.850   5.456   5.473 -1.7597 -0.5293 -2.4365
60249SOL    HW287988  10.865   5.307   5.456 -1.2061 -0.6963 -0.6796
60250SOL     OW87989   0.780   1.972   9.644  0.0321 -0.3671  0.6172
60250SOL    HW187990   0.705   1.995   9.589  0.3203 -1.1855 -0.1535
60250SOL    HW287991   0.853   1.962   9.582 -0.2183 -4.0296  0.6773
60251SOL     OW87992   9.284   6.118  10.306 -0.1327 -0.1706 -0.2631
60251SOL    HW187993   9.284   6.070  10.223 -0.2937  0.8588 -0.8766
60251SOL    HW287994   9.251   6.205  10.284 -1.2882 -0.2199  1.0918
60252SOL     OW87995   5.187   9.270   2.644  0.2462 -0.2959  0.3883
60252SOL    HW187996   5.214   9.360   2.624  1.8894 -1.0404 -1.0346
60252SOL    HW287997   5.102   9.261   2.601  0.7098  0.1801 -0.6685
60253SOL     OW87998  11.749  10.593  12.041  0.1817 -0.2555 -0.1081
60253SOL    HW187999  11.795  10.675  12.027  1.5321 -0.8685  0.5953
60253SOL    HW288000  11.728  10.561  11.953 -1.1646  1.2415 -0.3793
60254SOL     OW88001   1.579   5.028   2.851  0.4514  0.1222  0.2186
60254SOL    HW188002   1.526   5.042   2.772  0.0166  1.2742  0.6928
60254SOL    HW288003   1.524   5.058   2.923  0.7708 -1.0785  1.0091
60255SOL     OW88004  12.240   8.355   8.312 -0.0737  0.1831 -0.2764
60255SOL    HW188005  12.214   8.337   8.403  0.2675  1.2080  0.0441
60255SOL    HW288006  12.172   8.313   8.259 -0.2183 -0.5303  0.4443
60256SOL     OW88007   9.667   8.284   0.774  0.4162 -0.4330 -0.8313
60256SOL    HW188008   9.626   8.198   0.780  2.0110 -1.1399  0.7415
60256SOL    HW288009   9.649   8.326   0.858  2.7361 -0.7410 -0.1095
60257SOL     OW88010   1.109  12.388   5.078  0.1248  0.5483  0.2405
60257SOL    HW188011   1.073  12.477   5.072 -1.5461 -0.0925  0.4915
60257SOL    HW288012   1.071  12.342   5.004 -1.4987 -0.7880  1.8262
60258SOL     OW88013   5.903   3.732  11.921 -0.0416 -0.3566  0.0199
60258SOL    HW188014   5.842   3.696  11.856  0.7119 -2.2411  0.3204
60258SOL    HW288015   5.897   3.673  11.996  0.8326  0.4648  0.7602
60259SOL     OW88016   4.755  12.176   8.926 -0.3940 -0.2481  0.0306
60259SOL    HW188017   4.791  12.157   9.012  0.9050 -2.4753 -0.9100
60259SOL    HW288018   4.830  12.169   8.867 -1.9390 -3.1386 -1.7849
60260SOL     OW88019   2.474   1.380   0.887 -0.1729 -1.1316  0.2172
60260SOL    HW188020   2.409   1.435   0.845  0.0848 -0.3462  0.8315
60260SOL    HW288021   2.465   1.398   0.980  1.7212 -0.0899  0.2406
60261SOL     OW88022   2.942   2.729   5.853 -0.0658 -0.2295  0.3852
60261SOL    HW188023   3.013   2.791   5.836 -0.6516  0.1200 -0.9490
60261SOL    HW288024   2.963   2.653   5.799 -1.2879  0.3609 -1.0051
60262SOL     OW88025   2.370   3.360   1.749  0.0748  0.0684 -0.1361
60262SOL    HW188026   2.424   3.417   1.694 -0.5608  0.5496 -0.2802
60262SOL    HW288027   2.290   3.346   1.698  0.0979 -0.7075  0.0337
60263SOL     OW88028   0.707  12.061   0.418  0.1791 -0.0637 -0.1554
60263SOL    HW188029   0.723  12.147   0.457 -1.5629  0.5921 -0.7374
60263SOL    HW288030   0.724  11.998   0.488 -0.7023  0.9283  0.9830
60264SOL     OW88031   5.630   9.783   6.293  0.6381  0.3037  0.8640
60264SOL    HW188032   5.723   9.799   6.306  1.5261 -2.3210 -1.3045
60264SOL    HW288033   5.607   9.830   6.213  0.5265 -0.3095  0.5250
60265SOL     OW88034   3.703   0.067   0.904 -0.0259  0.5791  0.7650
60265SOL    HW188035   3.645   0.103   0.837  0.3313 -0.5165 -0.1831
60265SOL    HW288036   3.767   0.136   0.921  0.6210  0.4528 -0.9652
60266SOL     OW88037   9.599   0.291   8.122  0.5739  0.3335  0.1682
60266SOL    HW188038   9.679   0.343   8.117 -0.2979  1.6790 -0.3313
60266SOL    HW288039   9.624   0.205   8.088  1.5924  1.0253 -0.9093
60267SOL     OW88040   0.722   1.156  12.606  0.0938  0.6698  0.1417
60267SOL    HW188041   0.787   1.227  12.609  0.6970  0.0906  1.3017
60267SOL    HW288042   0.661   1.176  12.677  1.1087 -0.7307  1.4625
60268SOL     OW88043  10.589   4.854  12.224 -0.1851  0.3239  0.1919
60268SOL    HW188044  10.583   4.948  12.210 -0.5353  0.1603 -0.8008
60268SOL    HW288045  10.559   4.842  12.314 -1.7420  1.0005 -0.2084
60269SOL     OW88046  11.025   3.906   1.079 -0.4796 -0.4306 -0.0212
60269SOL    HW188047  11.006   3.911   1.173  0.3317 -1.9691  0.2685
60269SOL    HW288048  11.094   3.969   1.065 -1.1047  0.3330  0.2662
60270SOL     OW88049  10.855  10.036   0.868 -0.7552 -0.1341 -0.3765
60270SOL    HW188050  10.942  10.065   0.843 -0.5239  0.6933  1.2509
60270SOL    HW288051  10.795  10.094   0.821 -0.4118 -0.0995 -0.7739
60271SOL     OW88052   1.162  12.292   6.426 -0.1791  0.2934  0.2798
60271SOL    HW188053   1.257  12.277   6.429  0.1863  2.3275  0.1494
60271SOL    HW288054   1.126  12.207   6.403  1.3626 -1.3293  3.1948
60272SOL     OW88055   1.439   1.253   2.226  0.3042 -0.2702  0.2622
60272SOL    HW188056   1.363   1.283   2.276 -0.2654 -1.6111  0.2354
60272SOL    HW288057   1.423   1.285   2.137  0.1024 -0.0046  0.3899
60273SOL     OW88058   7.046   0.123   5.941 -0.1134 -0.2613  0.1240
60273SOL    HW188059   7.057   0.097   6.033 -1.2238 -0.9181  0.0870
60273SOL    HW288060   7.058   0.042   5.892  1.2703  0.2289 -0.3995
60274SOL     OW88061  11.059   1.455   8.243 -0.7702 -0.3941  0.6254
60274SOL    HW188062  11.099   1.490   8.323 -0.2147  2.2517 -0.7017
60274SOL    HW288063  11.113   1.380   8.219  0.2907  0.0238  1.6391
60275SOL     OW88064   1.613   8.247   0.653 -0.0102 -0.6300 -0.6043
60275SOL    HW188065   1.619   8.252   0.749 -1.4158  2.2341 -0.5466
60275SOL    HW288066   1.694   8.204   0.626  0.5403 -1.2789  1.8540
60276SOL     OW88067   6.890   5.889   3.744 -0.0006  0.0755 -0.1619
60276SOL    HW188068   6.900   5.920   3.834  0.8212  0.1442 -0.2739
60276SOL    HW288069   6.811   5.834   3.747 -0.8089  1.2133  0.2878
60277SOL     OW88070   9.314   1.881   4.756 -0.0093 -0.4393  0.1074
60277SOL    HW188071   9.294   1.794   4.790 -1.1632 -0.8565 -1.4928
60277SOL    HW288072   9.404   1.874   4.724 -0.4291 -1.4119 -0.9663
60278SOL     OW88073  10.932   9.025   6.837 -0.6563 -0.4380 -0.1999
60278SOL    HW188074  10.980   8.945   6.813 -0.0743 -0.3195  0.5560
60278SOL    HW288075  10.966   9.092   6.778  1.1121 -0.0373  1.2075
60279SOL     OW88076   3.052  10.104   1.468  0.7225  0.3454  0.4389
60279SOL    HW188077   3.016  10.112   1.557 -1.5118  2.0375 -0.5423
60279SOL    HW288078   3.098  10.186   1.453 -0.7529  1.0203 -0.6773
60280SOL     OW88079   1.963   8.748   1.086 -0.6483  0.2645  0.2523
60280SOL    HW188080   1.981   8.808   1.013 -1.4106 -1.9009 -1.8560
60280SOL    HW288081   2.049   8.728   1.122 -0.0313 -0.1080 -1.3525
60281SOL     OW88082   5.076   3.966   6.263 -0.0844  0.0076  0.0823
60281SOL    HW188083   5.127   3.906   6.319  1.2511  0.6720 -0.3863
60281SOL    HW288084   5.015   3.909   6.217 -1.2687 -0.5658  2.2231
60282SOL     OW88085   9.507   5.759   4.448  0.0859 -0.1247  0.3095
60282SOL    HW188086   9.551   5.795   4.371  0.4068 -1.1739 -0.0106
60282SOL    HW288087   9.530   5.666   4.447 -1.4571 -0.5211  0.6155
60283SOL     OW88088   0.060   4.197   6.613 -0.8972  0.1639 -0.5295
60283SOL    HW188089   0.106   4.269   6.655 -0.0304  0.3655 -1.7745
60283SOL    HW288090   0.062   4.126   6.677 -0.9604  0.9479  0.3543
60284SOL     OW88091  11.383  11.673   4.363 -0.4937 -0.2801  0.1482
60284SOL    HW188092  11.349  11.627   4.440 -0.6727  0.1538  0.3283
60284SOL    HW288093  11.312  11.669   4.300 -0.5190 -0.2245  0.1731
60285SOL     OW88094  11.087   1.196   0.177 -0.4643 -0.0213  0.3217
60285SOL    HW188095  11.069   1.151   0.095 -0.3184 -1.6757  1.1469
60285SOL    HW288096  11.090   1.126   0.243  1.3488  1.0049  1.4267
60286SOL     OW88097   8.485   1.947   4.623  0.6739  0.4026  0.0410
60286SOL    HW188098   8.464   1.861   4.657  1.5909  0.0627 -0.2213
60286SOL    HW288099   8.574   1.938   4.588  0.6663  1.3700 -0.2580
60287SOL     OW88100   5.693  12.023   8.786  0.1918 -0.4973  0.3265
60287SOL    HW188101   5.668  12.028   8.878  3.0787 -2.5678  1.3637
60287SOL    HW288102   5.710  11.930   8.771  1.5089  0.0052 -1.7994
60288SOL     OW88103   8.809   2.007   2.025 -0.2545  0.2556 -0.1484
60288SOL    HW188104   8.860   2.072   1.976 -0.1976 -0.2031 -0.7219
60288SOL    HW288105   8.737   2.057   2.064  1.7013  1.2999  2.3729
60289SOL     OW88106   2.366   8.584  11.987 -0.0524 -0.5279  0.4926
60289SOL    HW188107   2.312   8.532  12.046 -0.6275  1.1545  1.5273
60289SOL    HW288108   2.404   8.652  12.043  0.8017  0.0682 -0.7675
60290SOL     OW88109   3.409  11.277   7.371 -0.0340 -1.3389 -0.2228
60290SOL    HW188110   3.381  11.220   7.298 -0.8225  0.0043 -1.0024
60290SOL    HW288111   3.328  11.310   7.408  0.4148 -0.4868  0.0232
60291SOL     OW88112  10.912   0.184   6.109  0.7803  0.2742  0.8357
60291SOL    HW188113  10.947   0.251   6.167  0.6287  0.3269  0.8680
60291SOL    HW288114  10.955   0.199   6.025  0.0768  0.9931  0.5827
60292SOL     OW88115   1.010   8.946   8.262 -0.0062 -0.3186 -0.3776
60292SOL    HW188116   1.037   8.914   8.175  0.2568 -1.3921  0.0733
60292SOL    HW288117   1.086   8.993   8.294 -0.8550  2.0332 -1.6008
60293SOL     OW88118   4.777   6.581   3.690 -0.3446  0.1562  0.1916
60293SOL    HW188119   4.859   6.592   3.641  0.1786  2.2261  1.4147
60293SOL    HW288120   4.798   6.611   3.778 -2.4496  0.7999  0.5191
60294SOL     OW88121   9.892   0.211   2.873  0.5889 -0.1440 -0.1232
60294SOL    HW188122   9.975   0.257   2.886  0.2843  0.1028  0.9975
60294SOL    HW288123   9.829   0.259   2.927 -0.4452  0.0850 -1.4837
60295SOL     OW88124   4.054   7.830   5.968 -0.0401 -0.3510  0.2046
60295SOL    HW188125   4.024   7.768   6.034  1.1180 -1.9513 -0.7177
60295SOL    HW288126   3.994   7.819   5.895 -0.9809  1.0202  0.7307
60296SOL     OW88127   3.282   5.491   3.222  0.1603 -0.2734  0.0363
60296SOL    HW188128   3.304   5.498   3.314  1.8305 -2.0498 -0.1408
60296SOL    HW288129   3.240   5.405   3.214 -1.6381  0.6261 -0.5977
60297SOL     OW88130   0.929   6.780   7.090 -0.0903 -0.4414  0.4131
60297SOL    HW188131   0.930   6.876   7.085 -0.0031 -0.3672  1.6717
60297SOL    HW288132   0.886   6.760   7.173 -3.4497 -1.5793 -1.4218
60298SOL     OW88133   6.203  10.683   6.413 -0.3950  0.1986  0.9497
60298SOL    HW188134   6.180  10.682   6.506 -1.3538  1.5939  0.7677
60298SOL    HW288135   6.257  10.761   6.402 -1.8178  1.1124  0.0420
60299SOL     OW88136   6.436   7.844   6.858 -0.1678 -0.0363 -0.2236
60299SOL    HW188137   6.501   7.884   6.916 -2.5507  1.8687  1.3058
60299SOL    HW288138   6.479   7.842   6.772  1.9233  1.0264  0.7207
60300SOL     OW88139  10.043   4.067   7.078 -0.3021 -0.6596 -0.1047
60300SOL    HW188140  10.022   4.003   7.146 -1.3030 -0.2446 -0.0053
60300SOL    HW288141  10.132   4.096   7.098 -0.3864 -0.9483  0.6998
60301SOL     OW88142  10.834   7.193   3.450  0.0104 -0.7644  0.4529
60301SOL    HW188143  10.879   7.237   3.522  0.7123 -2.4552  1.1155
60301SOL    HW288144  10.901   7.179   3.384 -0.9575  2.1217 -1.2743
60302SOL     OW88145   7.558   2.287   3.452  0.0561  0.4996 -0.1716
60302SOL    HW188146   7.602   2.248   3.376  0.6302 -1.2320  1.0013
60302SOL    HW288147   7.499   2.352   3.414  0.2498 -0.3816 -2.1128
60303SOL     OW88148   9.483   0.126  11.173 -0.3833 -0.0358  0.3462
60303SOL    HW188149   9.458   0.189  11.240 -0.3048  0.6716 -0.2728
60303SOL    HW288150   9.578   0.118  11.182 -0.3024  0.4689 -0.0266
60304SOL     OW88151   4.378   1.490   0.292 -0.4215 -0.3404 -0.6759
60304SOL    HW188152   4.371   1.484   0.387 -1.1908 -2.6631 -0.8066
60304SOL    HW288153   4.290   1.516   0.263 -0.1662  0.4474 -0.7642
60305SOL     OW88154   2.662  11.318   9.642  0.0808  0.1389 -0.1236
60305SOL    HW188155   2.736  11.272   9.682 -0.8239 -0.3471  1.0385
60305SOL    HW288156   2.598  11.327   9.713 -1.1427  0.1931 -1.1937
60306SOL     OW88157   0.447  11.538  11.432  0.6880  0.0564 -0.3712
60306SOL    HW188158   0.464  11.610  11.371  1.7270  0.6197  0.5534
60306SOL    HW288159   0.503  11.467  11.401 -0.5209 -0.4646 -1.4297
60307SOL     OW88160   1.807   1.958   7.442  0.3844 -0.7824 -0.0806
60307SOL    HW188161   1.843   1.895   7.380  2.2481  0.3138 -0.1681
60307SOL    HW288162   1.779   2.032   7.388  0.0136 -0.7089  0.2058
60308SOL     OW88163   5.457   8.621   9.619  0.1217 -0.2497 -0.1338
60308SOL    HW188164   5.367   8.589   9.613 -0.1520  0.4844 -0.0797
60308SOL    HW288165   5.468   8.676   9.542  1.2694 -2.0750 -1.3498
60309SOL     OW88166   3.889   9.010  10.047  0.1095  0.2868  0.0353
60309SOL    HW188167   3.818   8.949  10.025  1.3090 -1.0607 -0.2838
60309SOL    HW288168   3.966   8.953  10.059  0.9309  1.6063  1.3202
60310SOL     OW88169  12.392   8.408   6.573  0.3457 -0.5723 -0.0498
60310SOL    HW188170  12.405   8.318   6.601 -2.7795 -1.0379  0.1967
60310SOL    HW288171  12.334   8.446   6.638  0.8806  1.3677 -0.6389
60311SOL     OW88172  11.676   5.471  12.609 -0.0773  0.5335 -0.4239
60311SOL    HW188173  11.616   5.397  12.603 -2.1124  2.2072 -3.2036
60311SOL    HW288174  11.628   5.535  12.663  0.2316  0.9972 -0.6929
60312SOL     OW88175   1.753  11.002   3.289 -0.0975  0.5995 -0.0179
60312SOL    HW188176   1.810  11.067   3.331  0.7985 -0.7917  1.0195
60312SOL    HW288177   1.665  11.024   3.318  0.3682  0.4371  1.6259
60313SOL     OW88178   9.142   9.933   0.100  0.2290  0.5095 -0.6430
60313SOL    HW188179   9.224   9.926   0.148  0.1236 -1.1329 -0.6190
60313SOL    HW288180   9.085   9.867   0.141 -0.2112 -0.2153 -2.3047
60314SOL     OW88181   9.529  12.262   4.723  0.1359  0.3071 -0.7079
60314SOL    HW188182   9.526  12.245   4.817  1.8881  0.0218 -0.6669
60314SOL    HW288183   9.506  12.354   4.714 -2.0059 -0.1235 -0.2272
60315SOL     OW88184   9.563   0.916  11.780 -0.2322  0.2838  0.0636
60315SOL    HW188185   9.658   0.924  11.777 -0.2552  0.2832 -1.2321
60315SOL    HW288186   9.540   0.866  11.701 -1.4643  1.9811 -0.7106
60316SOL     OW88187   9.137   4.463   0.840  0.0253  0.0133 -0.0326
60316SOL    HW188188   9.081   4.393   0.806  2.3293 -2.0482  0.1506
60316SOL    HW288189   9.116   4.468   0.933  0.1807 -0.8018  0.0519
60317SOL     OW88190   2.943   6.908   6.785 -0.0662  0.3391  0.2429
60317SOL    HW188191   2.885   6.855   6.839  0.3931  0.5785  0.9941
60317SOL    HW288192   2.955   6.857   6.705 -0.1083 -0.4165  0.7081
60318SOL     OW88193   8.803   3.608   2.862  0.2150 -0.0024 -0.0733
60318SOL    HW188194   8.887   3.563   2.863  0.3496  0.2452  0.5579
60318SOL    HW288195   8.756   3.574   2.939 -0.5672 -0.6869 -0.8361
60319SOL     OW88196   5.644   3.156  11.740 -0.1426  0.0578  0.0449
60319SOL    HW188197   5.656   3.167  11.834  0.4786  2.0056 -0.2183
60319SOL    HW288198   5.608   3.240  11.711  1.0407  0.0296 -1.6532
60320SOL     OW88199  10.750   3.740   3.560  0.1042  0.1930  0.0033
60320SOL    HW188200  10.680   3.697   3.512 -1.0210  0.6264  1.2075
60320SOL    HW288201  10.824   3.742   3.498 -0.1889 -2.2865 -0.5196
60321SOL     OW88202   2.072   3.276   0.347 -0.2260 -0.4024  0.1642
60321SOL    HW188203   2.061   3.301   0.256  1.8546 -1.6086 -0.4975
60321SOL    HW288204   2.167   3.268   0.358 -0.4910 -1.5983  2.0499
60322SOL     OW88205   3.571   6.766   9.874 -0.7777  0.1206  0.3229
60322SOL    HW188206   3.538   6.768   9.964  1.9428 -0.1189  1.4406
60322SOL    HW288207   3.547   6.851   9.838 -0.7846  0.7551  1.7465
60323SOL     OW88208   9.147   2.694   8.776 -0.3974  0.2041  0.0936
60323SOL    HW188209   9.087   2.679   8.848  1.1250 -2.5084  0.9474
60323SOL    HW288210   9.205   2.764   8.806 -2.1376  1.8808 -0.2058
60324SOL     OW88211   6.005  11.936   4.674 -0.6007 -0.6187 -0.3137
60324SOL    HW188212   6.083  11.885   4.653 -0.5349  0.2876 -2.5639
60324SOL    HW288213   6.017  11.963   4.765  1.1921 -1.3634 -0.2975
60325SOL     OW88214   0.898  12.590   8.735  0.3613 -0.2086 -0.0135
60325SOL    HW188215   0.890  12.497   8.712  1.3953 -0.2116 -0.3950
60325SOL    HW288216   0.849  12.598   8.817  2.1630 -1.5923  1.2768
60326SOL     OW88217  10.712  12.521   8.411  0.0819 -0.0583 -0.1845
60326SOL    HW188218  10.790  12.469   8.393  0.2418 -0.4002  1.3056
60326SOL    HW288219  10.731  12.565   8.494 -1.2220  0.0337  0.0969
60327SOL     OW88220  12.658  10.763  11.005  0.3983 -0.2474 -0.1046
60327SOL    HW188221  12.590  10.783  10.941  0.7108  0.7824 -0.1319
60327SOL    HW288222  12.680  10.848  11.044  1.7171 -0.5497 -0.1423
60328SOL     OW88223   0.030  10.583  10.773 -0.0814 -0.0253 -0.6118
60328SOL    HW188224  -0.025  10.621  10.705  2.7706  0.3587 -2.9342
60328SOL    HW288225   0.045  10.654  10.836 -0.3149  0.5856 -1.2415
60329SOL     OW88226   3.956   4.813   6.579 -0.3205 -0.0002  0.3421
60329SOL    HW188227   3.879   4.757   6.586  0.0696 -0.5494  0.3077
60329SOL    HW288228   4.014   4.767   6.518 -0.0287  0.4793  0.2503
60330SOL     OW88229  12.465  12.281  12.036 -0.1232 -0.0781 -0.0808
60330SOL    HW188230  12.376  12.286  12.072 -0.2661 -0.5003 -0.3683
60330SOL    HW288231  12.521  12.274  12.112 -0.4389 -1.1961  0.0662
60331SOL     OW88232   5.429   2.067   0.933  0.4746  0.4658  0.7526
60331SOL    HW188233   5.462   2.157   0.932 -0.2327  0.7289  0.1097
60331SOL    HW288234   5.440   2.036   0.843  0.1147  0.1352  0.8176
60332SOL     OW88235  12.048   5.309   3.678 -0.3149  0.0394  0.4162
60332SOL    HW188236  12.076   5.218   3.676  0.0938  0.1710 -0.0729
60332SOL    HW288237  12.082   5.344   3.760 -0.4956 -0.2561  0.6149
60333SOL     OW88238   7.234   0.508   3.993  0.1864 -0.1945 -0.0140
60333SOL    HW188239   7.325   0.499   3.963 -0.4691 -3.5644 -1.4929
60333SOL    HW288240   7.238   0.494   4.088  1.0602 -3.3610 -0.3926
60334SOL     OW88241   7.617   7.113   4.641  0.7182 -0.3429 -0.2700
60334SOL    HW188242   7.706   7.101   4.607  0.2818 -0.0189 -1.6113
60334SOL    HW288243   7.561   7.075   4.573 -0.2035  0.0611  0.2495
60335SOL     OW88244   5.962   5.831   4.202 -0.2955  0.1278 -0.0081
60335SOL    HW188245   5.951   5.798   4.291 -0.0351  0.7024  0.2490
60335SOL    HW288246   6.015   5.764   4.158 -1.3638 -0.6953 -0.0725
60336SOL     OW88247  10.901   7.476  11.320 -0.8427  1.0108  0.3149
60336SOL    HW188248  10.949   7.454  11.240  1.2184  1.0279  1.4949
60336SOL    HW288249  10.958   7.538  11.366 -1.3025 -0.0816  2.4756
60337SOL     OW88250   2.543   3.287  11.080  0.4242  0.2662 -0.6113
60337SOL    HW188251   2.620   3.253  11.126 -1.6453 -0.4764  2.5755
60337SOL    HW288252   2.469   3.240  11.119 -1.7220  1.0764 -3.4172
60338SOL     OW88253  10.336   9.412   1.526  0.5257 -0.1777  0.2874
60338SOL    HW188254  10.325   9.469   1.602 -3.3366 -0.3090  0.0016
60338SOL    HW288255  10.357   9.472   1.454  0.8440  0.3357  0.8003
60339SOL     OW88256   0.282   5.002   8.632 -0.1411  0.4157 -0.0623
60339SOL    HW188257   0.325   4.977   8.714  1.1891 -0.8910 -1.1029
60339SOL    HW288258   0.226   4.928   8.611  1.0008 -0.1443 -1.2839
60340SOL     OW88259  10.171  11.006  12.541  0.0612  0.5038  0.0691
60340SOL    HW188260  10.248  11.058  12.563  0.7344 -0.1488 -0.7120
60340SOL    HW288261  10.097  11.057  12.575  0.8637  0.8572  1.3340
60341SOL     OW88262   4.341   5.585   0.085 -0.0085  0.2488 -0.3093
60341SOL    HW188263   4.414   5.623   0.035 -0.4926  2.4019  0.5281
60341SOL    HW288264   4.333   5.496   0.051  1.2676  0.8314 -2.3046
60342SOL     OW88265   4.439  10.853   5.339  0.1661  0.7704  0.3409
60342SOL    HW188266   4.514  10.908   5.359  1.2183 -0.1482 -0.9321
60342SOL    HW288267   4.474  10.765   5.332 -0.8789  0.4075 -0.9740
60343SOL     OW88268   6.321   0.615   0.876  0.8120  0.3423  0.1403
60343SOL    HW188269   6.308   0.544   0.939  2.5242  1.2422  1.6251
60343SOL    HW288270   6.235   0.657   0.869  0.3755 -0.3167  1.2282
60344SOL     OW88271  11.730  10.334  11.514 -0.0288 -0.7641  0.1472
60344SOL    HW188272  11.805  10.373  11.558  0.4090  0.2600 -1.4393
60344SOL    HW288273  11.657  10.394  11.531 -0.1402 -0.9897  0.4667
60345SOL     OW88274   5.238   3.950   2.808 -0.5334  0.0729 -0.0521
60345SOL    HW188275   5.257   4.006   2.883  0.1780 -0.7174  0.3799
60345SOL    HW288276   5.180   4.002   2.753  0.7472  1.5465 -0.0701
60346SOL     OW88277   6.515   3.292   4.818 -0.4633  0.7494 -0.6136
60346SOL    HW188278   6.430   3.279   4.861 -0.2175 -0.1226 -0.3650
60346SOL    HW288279   6.576   3.307   4.890 -0.3613  1.1131 -0.7767
60347SOL     OW88280   8.491   7.679   2.903  0.6223 -0.1211 -0.2964
60347SOL    HW188281   8.529   7.606   2.854  1.2469  0.9186 -1.4003
60347SOL    HW288282   8.550   7.752   2.887  1.2120  0.1447  2.5270
60348SOL     OW88283   7.074   1.741  12.331  0.7821  0.3410 -0.0788
60348SOL    HW188284   6.991   1.763  12.288  0.2022 -0.0244  0.8287
60348SOL    HW288285   7.132   1.815  12.310  0.4655  0.2727 -1.3050
60349SOL     OW88286  12.617   3.090   3.694 -0.0938  0.2098 -0.2113
60349SOL    HW188287  12.572   3.157   3.745 -0.3747 -0.2464  0.1352
60349SOL    HW288288  12.612   3.011   3.747 -0.0985 -0.1864 -0.7929
60350SOL     OW88289   3.299   0.512   8.924 -0.1241 -0.2212  0.4634
60350SOL    HW188290   3.253   0.455   8.862  0.6132  0.1399 -0.4464
60350SOL    HW288291   3.232   0.539   8.987 -0.6996 -1.3026  0.3436
60351SOL     OW88292   9.569   0.366   9.852  0.7898  0.1284 -0.3732
60351SOL    HW188293   9.565   0.428   9.924 -3.9223  0.2232 -0.4165
60351SOL    HW288294   9.555   0.280   9.893 -2.2119  0.2071 -0.9574
60352SOL     OW88295   6.969   1.526   3.062  0.3353  0.3232  0.1230
60352SOL    HW188296   7.044   1.467   3.057 -0.0983 -0.4479  1.9927
60352SOL    HW288297   6.893   1.469   3.051 -0.0834  0.4957  1.8270
60353SOL     OW88298   0.711  11.456  10.437  0.3191 -1.1503  0.2044
60353SOL    HW188299   0.767  11.521  10.393  1.2713 -0.1312  2.7411
60353SOL    HW288300   0.761  11.375  10.431  1.6891 -0.4725  1.5232
60354SOL     OW88301  10.145   2.829   8.957 -0.4325  0.3619 -0.6577
60354SOL    HW188302  10.137   2.753   9.015 -2.0919 -0.5492 -2.0040
60354SOL    HW288303  10.238   2.831   8.933 -0.6951 -2.6336 -2.3510
60355SOL     OW88304   6.138   1.701   6.883 -0.0224 -0.6920  0.0419
60355SOL    HW188305   6.203   1.662   6.825 -2.0248 -0.5148 -2.5042
60355SOL    HW288306   6.096   1.627   6.927 -0.3399 -1.0787 -0.8835
60356SOL     OW88307  10.068   9.646   8.412 -0.3254 -0.3574 -0.4396
60356SOL    HW188308  10.157   9.646   8.446  0.6421 -0.9833 -2.8035
60356SOL    HW288309  10.026   9.572   8.455 -0.0095  0.4086  1.2859
60357SOL     OW88310   7.745   0.836   0.783  0.5300  0.0497 -0.2795
60357SOL    HW188311   7.767   0.927   0.807  1.2066  0.1628 -1.2693
60357SOL    HW288312   7.733   0.839   0.688 -2.5678 -0.2941  0.0155
60358SOL     OW88313   9.228   0.192   5.394  0.2539  0.2027 -0.1110
60358SOL    HW188314   9.242   0.115   5.449  3.3751  0.0960 -0.8732
60358SOL    HW288315   9.196   0.259   5.455  1.7441 -0.4645  1.4905
60359SOL     OW88316   9.132   5.564   9.060  0.0706  0.0986 -0.0134
60359SOL    HW188317   9.186   5.643   9.067  0.3840  0.1516 -2.1425
60359SOL    HW288318   9.155   5.528   8.974 -0.7453 -1.8099  0.5257
60360SOL     OW88319   7.319   0.265   2.109  0.0982 -0.2178 -0.4676
60360SOL    HW188320   7.224   0.266   2.112  0.0864  0.9434 -0.7741
60360SOL    HW288321   7.345   0.232   2.196 -0.5764  0.4354 -0.0068
60361SOL     OW88322   3.500   3.142   2.723  0.4414  0.7625  0.6440
60361SOL    HW188323   3.491   3.209   2.655  0.9188 -0.6970 -0.9356
60361SOL    HW288324   3.594   3.128   2.732  0.3358  0.0753  0.7265
60362SOL     OW88325   0.639   6.410  10.380 -0.1274  0.0509 -0.0050
60362SOL    HW188326   0.573   6.343  10.395  1.0842 -0.8316  1.7839
60362SOL    HW288327   0.662   6.441  10.467  2.8994 -0.8282 -0.3526
60363SOL     OW88328   5.373   3.120   6.777  0.5119 -0.6566  0.0831
60363SOL    HW188329   5.329   3.187   6.830 -1.3611 -0.2315 -1.8750
60363SOL    HW288330   5.356   3.038   6.823 -0.6471 -0.2496  0.4004
60364SOL     OW88331   0.343   2.372   5.240  0.4404  0.3737  0.1168
60364SOL    HW188332   0.390   2.333   5.166 -0.2692  3.4067 -2.1476
60364SOL    HW288333   0.412   2.393   5.303  1.2946 -0.8037 -0.3774
60365SOL     OW88334   8.331   5.069  10.274  0.1428 -0.4531 -0.1258
60365SOL    HW188335   8.413   5.116  10.281 -0.7215  0.9287  1.6864
60365SOL    HW288336   8.353   4.978  10.294  1.2287 -0.1010  0.3214
60366SOL     OW88337  10.469   9.065   4.116  0.0046  0.2757 -0.0461
60366SOL    HW188338  10.505   9.053   4.028  0.0735 -3.0146  0.2839
60366SOL    HW288339  10.466   8.976   4.153 -0.5242  1.4603  3.0960
60367SOL     OW88340   6.443   1.088   9.906 -0.4704 -0.4255  0.5100
60367SOL    HW188341   6.370   1.142   9.938 -2.2346 -1.6508 -1.2181
60367SOL    HW288342   6.404   1.002   9.892  1.5784 -1.3898  0.4428
60368SOL     OW88343   4.086  10.281   2.361  0.6128  0.9905  0.4483
60368SOL    HW188344   4.174  10.246   2.348  0.4715  0.2588  1.3670
60368SOL    HW288345   4.091  10.371   2.328  1.6732  0.9222  0.3822
60369SOL     OW88346   0.137   4.021   6.891  0.0684 -0.3554  0.4120
60369SOL    HW188347   0.184   3.958   6.836  0.1080 -0.5430  0.6559
60369SOL    HW288348   0.202   4.051   6.955 -0.2201 -0.8775  0.9693
60370SOL     OW88349   0.271   4.524   2.399 -0.1116 -0.3651 -0.0940
60370SOL    HW188350   0.366   4.537   2.406 -0.1266  0.2914 -1.0630
60370SOL    HW288351   0.238   4.605   2.360 -1.0683 -0.6239  0.1559
60371SOL     OW88352   3.983   9.159   5.871 -0.0532 -0.3658 -0.4079
60371SOL    HW188353   3.968   9.129   5.781  1.4342 -1.1023 -0.4420
60371SOL    HW288354   4.052   9.224   5.864  0.7185 -1.0917  0.2940
60372SOL     OW88355   3.544   3.130   1.080 -0.3144  0.5797 -0.5125
60372SOL    HW188356   3.579   3.044   1.104 -0.7539  0.4706 -0.2543
60372SOL    HW288357   3.566   3.141   0.987  1.0650  0.8361 -0.1782
60373SOL     OW88358   8.226   2.476   7.270  0.0340  0.0982  0.0358
60373SOL    HW188359   8.246   2.568   7.254 -0.3240  0.4483  1.4571
60373SOL    HW288360   8.130   2.471   7.262  0.1075 -0.2928 -0.6777
60374SOL     OW88361   0.714   5.451   9.283 -0.2099 -0.1832 -0.1518
60374SOL    HW188362   0.776   5.388   9.319 -1.4129 -1.1704  0.2811
60374SOL    HW288363   0.729   5.450   9.189 -1.6021 -2.7497 -0.4285
60375SOL     OW88364  10.073   2.149   9.828  0.0362  0.1612  0.0062
60375SOL    HW188365  10.151   2.183   9.871  1.2698 -0.6742 -1.4341
60375SOL    HW288366  10.087   2.054   9.826 -1.7492 -0.1641  1.0415
60376SOL     OW88367   4.773   5.280   8.833  0.0033 -0.1204  0.3963
60376SOL    HW188368   4.771   5.201   8.887 -0.1919 -1.8683 -1.9952
60376SOL    HW288369   4.681   5.294   8.808  0.2025  0.0541 -0.2661
60377SOL     OW88370   9.476  11.859  11.394 -0.8174  0.1235 -0.4675
60377SOL    HW188371   9.392  11.901  11.410 -1.3235 -0.6963 -0.9120
60377SOL    HW288372   9.492  11.872  11.300 -0.3039  0.5243 -0.3312
60378SOL     OW88373   1.320   9.624  10.765 -0.0538  0.1301 -0.4326
60378SOL    HW188374   1.298   9.715  10.788  0.1870  0.0051  0.3270
60378SOL    HW288375   1.327   9.625  10.670 -1.9393  0.4817 -0.6176
60379SOL     OW88376   8.558   5.913   9.740 -0.0890 -0.3922 -0.1992
60379SOL    HW188377   8.533   5.921   9.648 -1.1440 -0.1773  0.0925
60379SOL    HW288378   8.506   5.839   9.773 -1.3451  0.8477  0.7346
60380SOL     OW88379  12.235  11.804  10.927  0.3060  0.1470 -0.7453
60380SOL    HW188380  12.329  11.792  10.933  0.4127  1.0523 -0.4076
60380SOL    HW288381  12.211  11.846  11.010 -0.3036  0.4329 -1.0590
60381SOL     OW88382  12.454   7.474   4.445 -0.5354 -0.1102  0.0425
60381SOL    HW188383  12.454   7.551   4.501  0.4708 -0.0368 -0.0401
60381SOL    HW288384  12.455   7.400   4.505 -0.9912 -0.0561  0.1198
60382SOL     OW88385   3.534   9.745   2.063  0.7192  0.4140 -0.1553
60382SOL    HW188386   3.522   9.791   2.146  0.0401 -0.2740  0.1370
60382SOL    HW288387   3.448   9.746   2.022  0.9114  0.2049 -0.5750
60383SOL     OW88388  10.125   6.903   0.273  0.4679 -0.1781  0.0294
60383SOL    HW188389  10.207   6.885   0.319  0.0446 -1.3879  0.3427
60383SOL    HW288390  10.136   6.863   0.187  0.1922 -0.3685  0.0817
60384SOL     OW88391  12.610   4.294   3.910 -0.0436  0.7765  0.4984
60384SOL    HW188392  12.705   4.292   3.913 -0.0429  0.0242  0.1332
60384SOL    HW288393  12.590   4.320   3.820 -0.1789 -0.3438  0.1862
60385SOL     OW88394  11.865   4.304  10.860 -0.5384 -0.1693  0.2367
60385SOL    HW188395  11.838   4.220  10.824  0.6392 -0.2730 -0.4541
60385SOL    HW288396  11.888   4.285  10.951 -1.9408 -0.2248  0.6165
60386SOL     OW88397   6.842   8.828   2.637 -0.5004  0.8658  0.6847
60386SOL    HW188398   6.863   8.821   2.544  1.1608  3.0211  0.8183
60386SOL    HW288399   6.925   8.810   2.681 -1.3533 -0.4874  1.8103
60387SOL     OW88400   4.808   3.648   1.196 -0.8037 -0.0815  0.5563
60387SOL    HW188401   4.749   3.695   1.138  0.2312  1.5836  0.7672
60387SOL    HW288402   4.774   3.664   1.284 -0.0142  0.9819  0.6876
60388SOL     OW88403  10.478   5.569   4.029  0.0225  0.4079 -0.0442
60388SOL    HW188404  10.386   5.542   4.023  0.5180 -1.6371  0.5905
60388SOL    HW288405  10.520   5.525   3.955  0.8281 -0.3851  0.8567
60389SOL     OW88406   3.673   5.529  10.232 -0.2244 -0.2140 -0.2630
60389SOL    HW188407   3.652   5.567  10.317  1.7420  1.1355 -0.3307
60389SOL    HW288408   3.675   5.603  10.172  0.4292 -0.8588 -1.0625
60390SOL     OW88409   6.236   8.703   7.295  0.1599  0.2903  0.1367
60390SOL    HW188410   6.221   8.798   7.291  1.2132  0.5079  0.8069
60390SOL    HW288411   6.168   8.671   7.355 -1.1464  0.3702 -1.2335
60391SOL     OW88412   3.205   1.553   5.303  0.2501  0.4575 -0.1081
60391SOL    HW188413   3.223   1.516   5.389 -2.7451 -0.1345  0.3722
60391SOL    HW288414   3.196   1.647   5.319  1.8760  0.6676 -0.2383
60392SOL     OW88415   1.818   9.258   4.022 -0.2784  0.6781 -0.3911
60392SOL    HW188416   1.830   9.264   4.117 -1.8811  0.0665 -0.1032
60392SOL    HW288417   1.774   9.339   3.998 -2.5783 -0.3719 -0.0556
60393SOL     OW88418   1.052  11.150   0.211 -0.1927 -0.2900 -0.2161
60393SOL    HW188419   1.005  11.194   0.140  1.4491  1.4913 -0.2947
60393SOL    HW288420   1.006  11.178   0.291  0.4638  1.1456 -0.3140
60394SOL     OW88421  12.332   3.912   9.359  0.0189 -0.4017  0.0869
60394SOL    HW188422  12.371   3.982   9.306  0.9205 -1.1677 -0.2943
60394SOL    HW288423  12.286   3.958   9.429  1.6987  0.5918  0.6204
60395SOL     OW88424  10.380   9.712   3.761  0.2237 -0.4680 -0.3756
60395SOL    HW188425  10.303   9.656   3.758 -0.0098 -0.2269  0.7377
60395SOL    HW288426  10.425   9.687   3.841  0.1452  0.8680  0.1107
60396SOL     OW88427  10.170   4.135  10.728  0.3712 -0.2801 -0.1534
60396SOL    HW188428  10.157   4.187  10.807  2.2016 -0.7126  0.4744
60396SOL    HW288429  10.214   4.195  10.667  3.1236 -1.1726  0.8141
60397SOL     OW88430  11.002  12.343   4.695  0.0852  0.1594 -0.1973
60397SOL    HW188431  11.029  12.251   4.695 -1.1570 -0.2379  1.2353
60397SOL    HW288432  11.072  12.388   4.649  2.0863 -1.1011  1.4473
60398SOL     OW88433  11.864   7.477   9.091  0.4178  0.3927 -0.0186
60398SOL    HW188434  11.806   7.535   9.141  0.7324  0.5269  0.2008
60398SOL    HW288435  11.818   7.393   9.089  0.0876  0.5733 -0.0925
60399SOL     OW88436   4.341   6.494   7.193  0.4831 -0.3012  0.7040
60399SOL    HW188437   4.330   6.401   7.172  0.5608 -0.1068 -0.2515
60399SOL    HW288438   4.427   6.498   7.234  0.0888 -0.7791  1.6051
60400SOL     OW88439   6.533   1.385   8.897  0.2756 -0.1097  0.1240
60400SOL    HW188440   6.547   1.411   8.806 -0.0605 -1.5941 -0.3930
60400SOL    HW288441   6.573   1.454   8.949 -0.4675  1.3310 -1.1211
60401SOL     OW88442  12.199   1.614   5.930 -0.6956 -0.0468  0.0050
60401SOL    HW188443  12.123   1.621   5.872 -1.3057 -2.1228  0.4518
60401SOL    HW288444  12.263   1.673   5.893 -2.1643  1.0018 -0.9841
60402SOL     OW88445  10.510  12.678  10.278  0.1003  0.3107  0.3366
60402SOL    HW188446  10.467  12.735  10.342 -0.0513 -0.3304  0.8192
60402SOL    HW288447  10.603  12.697  10.289 -0.0053  1.2437 -0.2693
60403SOL     OW88448   0.996   8.375   0.994  0.5381  0.4487 -0.1594
60403SOL    HW188449   1.014   8.346   0.905  0.5574  0.7380 -0.2537
60403SOL    HW288450   0.934   8.311   1.028 -1.7868  1.8952 -1.3938
60404SOL     OW88451   2.589   3.892   5.091 -0.3738  0.1869 -0.6876
60404SOL    HW188452   2.573   3.985   5.079  0.6995  0.4936  0.0439
60404SOL    HW288453   2.673   3.876   5.048  0.0832 -0.1531  0.2968
60405SOL     OW88454   7.833   5.042   6.137 -0.0670  0.4837  0.0945
60405SOL    HW188455   7.862   5.080   6.054 -0.5630  0.4722 -0.0909
60405SOL    HW288456   7.913   5.027   6.186  0.1646  1.4705  0.0424
60406SOL     OW88457   0.995  10.050  11.044  0.1841 -0.2148 -0.1561
60406SOL    HW188458   1.068  10.058  11.104  0.2104 -2.2627  0.1744
60406SOL    HW288459   1.033  10.011  10.965 -0.6985 -2.6818  0.5376
60407SOL     OW88460  11.891   8.589   8.150 -0.2673 -0.8872  0.0264
60407SOL    HW188461  11.929   8.591   8.062  0.0155 -2.2545  0.0955
60407SOL    HW288462  11.959   8.625   8.207 -0.5107  0.1499 -0.3204
60408SOL     OW88463  10.550  11.583   6.331  0.0331 -0.2328  0.2640
60408SOL    HW188464  10.524  11.531   6.255  1.6382 -2.3569  1.0493
60408SOL    HW288465  10.477  11.576   6.392  0.6876 -2.8361  0.8877
60409SOL     OW88466   6.702  10.955   1.913  0.2411  0.9207 -0.3983
60409SOL    HW188467   6.785  11.003   1.913  2.5154 -2.5763 -1.4695
60409SOL    HW288468   6.712  10.891   1.984 -0.8066 -0.6531 -1.6091
60410SOL     OW88469  11.921   9.834   3.214  0.0850 -0.6114 -0.5582
60410SOL    HW188470  11.856   9.765   3.199 -0.7566 -0.1781  0.9263
60410SOL    HW288471  11.934   9.835   3.309 -0.3082  1.6110 -0.4737
60411SOL     OW88472   8.280   0.637   1.015 -0.3009  0.4950  0.1096
60411SOL    HW188473   8.351   0.702   1.005  0.2180 -0.0474  0.2360
60411SOL    HW288474   8.248   0.624   0.926 -0.0427  0.5264  0.0089
60412SOL     OW88475   0.450   3.878   6.948  0.2827  0.3199 -0.4858
60412SOL    HW188476   0.389   3.833   6.889  0.4491  0.5066 -0.7997
60412SOL    HW288477   0.409   3.870   7.034 -0.3588  0.7389 -0.7435
60413SOL     OW88478   7.428   9.529   7.936 -0.1092  0.2665  0.1206
60413SOL    HW188479   7.357   9.593   7.930 -0.4770 -0.2957 -2.7084
60413SOL    HW288480   7.389   9.447   7.905  2.0154  0.2444 -2.9444
60414SOL     OW88481   2.212   4.324   1.595  0.4055  0.5725  0.2472
60414SOL    HW188482   2.241   4.247   1.545  0.0433  0.3989  0.2987
60414SOL    HW288483   2.175   4.287   1.675 -1.7372  0.6364 -0.6503
60415SOL     OW88484   8.255  12.182   7.604 -0.2063 -0.0978 -0.8286
60415SOL    HW188485   8.198  12.124   7.554 -2.1389  1.5274 -0.6438
60415SOL    HW288486   8.235  12.162   7.696  0.8361 -0.7104 -0.7139
60416SOL     OW88487   4.973   1.795   6.140  0.0468 -0.1743 -0.3881
60416SOL    HW188488   5.064   1.764   6.138  0.5830  1.3369 -1.2810
60416SOL    HW288489   4.974   1.869   6.201 -0.2224  0.7929 -1.5136
60417SOL     OW88490   5.208   2.338   0.306 -0.1959  0.5679 -0.3915
60417SOL    HW188491   5.273   2.399   0.270 -1.0069  1.2080 -0.7982
60417SOL    HW288492   5.145   2.394   0.351 -0.6792 -0.0168 -0.3325
60418SOL     OW88493   9.091   1.110   7.026  0.4490  0.0818  0.1506
60418SOL    HW188494   9.052   1.033   7.068  0.9890 -1.4744 -2.0161
60418SOL    HW288495   9.158   1.140   7.088  0.4586 -1.3961  0.8997
60419SOL     OW88496   7.041  11.835  11.897  0.4598  0.1099 -0.3454
60419SOL    HW188497   6.962  11.825  11.951 -0.0803  0.3248 -1.0753
60419SOL    HW288498   7.101  11.885  11.952 -0.2181  0.6504 -0.0723
60420SOL     OW88499   7.269   8.642   2.193 -0.6777 -0.2106  0.4137
60420SOL    HW188500   7.209   8.627   2.266 -0.5211 -1.2427  0.3393
60420SOL    HW288501   7.290   8.736   2.199 -0.5339 -0.3054  1.7816
60421SOL     OW88502   5.211   3.502   2.220  0.3548  0.1485 -0.4291
60421SOL    HW188503   5.164   3.457   2.150 -0.3952  0.3572 -0.0627
60421SOL    HW288504   5.150   3.568   2.252  1.8728  2.4317 -1.8839
60422SOL     OW88505  12.346   9.406   9.231 -0.4552 -0.4258  0.2547
60422SOL    HW188506  12.345   9.382   9.139 -0.2144  1.0763 -0.1645
60422SOL    HW288507  12.253   9.409   9.256 -0.7137  1.6522 -0.6748
60423SOL     OW88508   8.236   7.456   6.766  0.0100  0.4188 -0.8470
60423SOL    HW188509   8.212   7.371   6.802 -1.1207  0.9487 -0.2966
60423SOL    HW288510   8.283   7.499   6.837  1.8016 -0.2274 -1.5796
60424SOL     OW88511   5.710   0.046   5.816 -0.4533  0.4073 -0.2911
60424SOL    HW188512   5.761  -0.005   5.879 -0.3491  0.6703 -0.1629
60424SOL    HW288513   5.775   0.089   5.761 -0.5402 -0.4104 -1.0632
60425SOL     OW88514   8.443   6.502   8.129 -0.2523  0.2358  0.3071
60425SOL    HW188515   8.531   6.466   8.130  0.1511  1.1740  0.0493
60425SOL    HW288516   8.388   6.434   8.169  0.3199 -1.0282 -0.9822
60426SOL     OW88517   4.655   1.745   8.435 -0.0239 -0.0744 -0.4324
60426SOL    HW188518   4.702   1.826   8.457  0.2881 -0.6193  1.0235
60426SOL    HW288519   4.651   1.745   8.340  3.1681 -0.0950 -0.6700
60427SOL     OW88520   6.092   9.540  11.881 -0.0337  0.2721  0.1053
60427SOL    HW188521   6.069   9.603  11.813 -1.6113  0.2746  0.6070
60427SOL    HW288522   6.172   9.575  11.919 -0.2291  1.3401 -0.4167
60428SOL     OW88523  11.128   5.091   9.020  0.2348 -0.1552 -0.5561
60428SOL    HW188524  11.141   5.095   8.925  1.7119 -0.0489 -0.3721
60428SOL    HW288525  11.184   5.160   9.055  0.6285 -0.9682  0.4730
60429SOL     OW88526   8.174   0.329   1.665 -0.0453  0.2969 -0.1625
60429SOL    HW188527   8.209   0.334   1.754 -0.2872  0.2813 -0.0644
60429SOL    HW288528   8.203   0.411   1.624  0.2951  0.1805 -0.1556
60430SOL     OW88529  11.031  11.162  11.552 -0.0247 -0.3017 -0.0814
60430SOL    HW188530  10.998  11.243  11.513 -0.7229 -0.4764  0.1215
60430SOL    HW288531  11.032  11.099  11.480 -0.3135 -0.3411 -0.0542
60431SOL     OW88532   9.007   6.116   6.375  0.2108  0.1007  0.0241
60431SOL    HW188533   9.036   6.068   6.297  0.9398 -1.2059  1.0497
60431SOL    HW288534   9.070   6.186   6.385  1.1198 -0.7399  0.3651
60432SOL     OW88535   4.951   0.081  12.682 -0.1598 -0.2010 -0.3330
60432SOL    HW188536   4.953   0.168  12.642 -0.2827  0.3228  0.7655
60432SOL    HW288537   4.973   0.096  12.774  1.5338 -1.5407 -0.4633
60433SOL     OW88538   7.363   5.423   2.113 -0.1253 -0.4435 -0.0784
60433SOL    HW188539   7.414   5.378   2.180 -1.0203 -0.7740  0.3908
60433SOL    HW288540   7.396   5.513   2.115  0.2068 -0.5718  0.4473
60434SOL     OW88541   4.662   8.770   8.648 -0.4631  0.2480 -0.6316
60434SOL    HW188542   4.659   8.677   8.629 -0.1722  0.1163 -0.0459
60434SOL    HW288543   4.743   8.800   8.608 -0.1394  0.0846 -0.1015
60435SOL     OW88544   9.072   2.315   9.908  0.5024 -0.2346 -0.1335
60435SOL    HW188545   9.065   2.404   9.875 -1.3917 -0.6027 -0.8673
60435SOL    HW288546   9.099   2.263   9.833  1.8343 -0.2719  0.3486
60436SOL     OW88547   9.074   6.450  10.027  0.0254 -0.0206 -0.0456
60436SOL    HW188548   9.081   6.436   9.933 -0.7462 -0.1043 -0.1033
60436SOL    HW288549   9.022   6.530  10.035  0.1571  0.0324  0.3095
60437SOL     OW88550  10.791   2.214   0.939 -0.4017 -0.0811  0.1560
60437SOL    HW188551  10.840   2.196   0.859  0.3070  2.4222 -0.0424
60437SOL    HW288552  10.827   2.152   1.003  0.6953 -0.5041 -0.8264
60438SOL     OW88553  10.861   4.969   1.130 -0.0040 -0.3803 -0.6425
60438SOL    HW188554  10.869   5.064   1.136 -0.6889 -0.4195  1.4077
60438SOL    HW288555  10.945   4.940   1.094  0.5027  0.9358 -0.5545
60439SOL     OW88556   1.384   6.705  11.316 -0.4516  0.7119 -0.0553
60439SOL    HW188557   1.367   6.785  11.267  1.4058  1.9859  1.2424
60439SOL    HW288558   1.444   6.732  11.386 -1.2456 -1.4463  1.5797
60440SOL     OW88559  12.167   9.293   0.340 -0.1395 -0.7203 -0.0944
60440SOL    HW188560  12.202   9.206   0.358  1.1665 -0.4586 -1.2162
60440SOL    HW288561  12.225   9.353   0.386 -0.2931 -0.3900 -0.3263
60441SOL     OW88562   5.253   5.307   8.186 -0.2216 -0.6889 -0.5118
60441SOL    HW188563   5.275   5.396   8.157  0.3243 -1.0201 -1.1165
60441SOL    HW288564   5.322   5.252   8.151 -1.2909 -1.5665 -1.3266
60442SOL     OW88565   6.787   1.548   7.737 -0.2671  0.3674 -0.1952
60442SOL    HW188566   6.813   1.512   7.653  0.2364  0.3367 -0.0266
60442SOL    HW288567   6.849   1.511   7.800 -1.1373 -0.2782  0.3251
60443SOL     OW88568   2.659  11.575   3.096  0.9045 -0.0834 -0.1261
60443SOL    HW188569   2.575  11.554   3.136  1.5389 -0.0095  1.3012
60443SOL    HW288570   2.701  11.490   3.082  0.4486 -0.1447 -1.2063
60444SOL     OW88571  10.653   6.631   2.125  0.4525  0.0660  0.3332
60444SOL    HW188572  10.597   6.634   2.047 -0.6023 -1.1091  1.0050
60444SOL    HW288573  10.742   6.638   2.090 -0.0620  1.4540 -0.8088
60445SOL     OW88574   1.769   8.386   7.837 -0.2135 -0.5043 -0.6915
60445SOL    HW188575   1.674   8.394   7.823 -0.5023 -0.8374  0.8624
60445SOL    HW288576   1.797   8.474   7.860 -0.7341 -0.9182  1.8289
60446SOL     OW88577   9.107   3.125   6.106 -0.2826  0.8989  0.4730
60446SOL    HW188578   9.133   3.044   6.152 -0.5893 -0.8651 -2.2234
60446SOL    HW288579   9.185   3.150   6.056 -0.4038  1.9094  0.7825
60447SOL     OW88580  12.145  10.769  11.985 -0.1289  0.2312 -0.5234
60447SOL    HW188581  12.161  10.771  12.079 -0.9654  1.2619 -0.3840
60447SOL    HW288582  12.222  10.812  11.947  0.3977 -0.5384 -0.3559
60448SOL     OW88583  12.021   7.550   7.134  0.6327  0.3576 -0.3561
60448SOL    HW188584  12.102   7.571   7.088  0.2239  0.4930 -1.0363
60448SOL    HW288585  12.049   7.523   7.222  1.4894 -0.5126 -0.8745
60449SOL     OW88586   9.652  12.670   3.725 -0.1733 -0.1081 -0.4206
60449SOL    HW188587   9.584  12.641   3.785  0.5481 -1.8683 -0.3998
60449SOL    HW288588   9.734  12.657   3.773  0.2617  1.0615 -0.7966
60450SOL     OW88589  10.998  10.221   1.882 -0.7819  0.3413 -0.1450
60450SOL    HW188590  10.951  10.248   1.961 -1.0379 -0.0635 -0.1527
60450SOL    HW288591  11.002  10.126   1.888 -1.4388  0.2502 -0.9649
60451SOL     OW88592   6.102  11.440   8.653  0.0813  0.2655 -0.4034
60451SOL    HW188593   6.104  11.345   8.645  1.7899  0.0597  1.6073
60451SOL    HW288594   6.019  11.466   8.612 -0.8522 -2.1350 -0.2055
60452SOL     OW88595   9.394  10.053   7.920 -0.3704  0.6313 -0.1822
60452SOL    HW188596   9.362   9.987   7.982  0.9642  1.0203  0.9737
60452SOL    HW288597   9.332  10.125   7.927 -0.4101  0.5412  0.4927
60453SOL     OW88598   9.129  11.673   3.183 -0.0169  0.4152  0.0523
60453SOL    HW188599   9.094  11.586   3.203  0.3465  0.2114 -0.1798
60453SOL    HW288600   9.055  11.722   3.148 -0.2892  0.2866  0.4495
60454SOL     OW88601   7.075   0.134   7.383 -0.0057  0.0010  0.3788
60454SOL    HW188602   7.038   0.170   7.463 -3.7963 -0.9749 -0.7188
60454SOL    HW288603   7.042   0.191   7.313  0.9245 -0.7523 -0.7188
60455SOL     OW88604   4.944  11.545   9.746  0.1499  0.3890  0.2304
60455SOL    HW188605   4.949  11.482   9.818  0.5847 -0.7574 -0.7771
60455SOL    HW288606   4.882  11.612   9.777 -1.0402 -0.9991  0.9719
60456SOL     OW88607   8.531   9.439   8.346  0.0036 -0.6576  0.3026
60456SOL    HW188608   8.527   9.523   8.300  0.3978 -0.8675 -0.1288
60456SOL    HW288609   8.536   9.374   8.276  0.1937 -1.0094  0.6360
60457SOL     OW88610  10.500   0.143   3.193  0.0733  0.1607 -0.0302
60457SOL    HW188611  10.536   0.179   3.274  0.4482 -2.1504  0.9285
60457SOL    HW288612  10.560   0.071   3.171 -2.0420 -1.6353 -0.2642
60458SOL     OW88613   1.966   6.725  11.123 -0.4281 -0.6320  0.3521
60458SOL    HW188614   2.034   6.754  11.184  0.0542  2.3510 -1.4160
60458SOL    HW288615   1.886   6.767  11.153 -1.0738 -2.2928  1.0905
60459SOL     OW88616   7.285   9.840   2.664 -0.2176  0.5474  0.8337
60459SOL    HW188617   7.269   9.931   2.691  0.5975  1.7539 -2.2889
60459SOL    HW288618   7.219   9.823   2.597  0.8085 -0.4782  0.0385
60460SOL     OW88619   5.895  10.533   4.331 -0.2117 -0.0184 -0.0669
60460SOL    HW188620   5.908  10.627   4.321 -0.7392 -0.0626 -1.5079
60460SOL    HW288621   5.965  10.493   4.279 -0.3502 -0.4096  0.0405
60461SOL     OW88622   9.772   0.928  12.571 -0.1683 -0.0381  0.2385
60461SOL    HW188623   9.751   0.997  12.507  0.5029 -0.2623 -0.2289
60461SOL    HW288624   9.863   0.945  12.596  0.0887 -0.9096 -0.0843
60462SOL     OW88625   6.104  10.897   8.165 -0.2436  0.4817 -0.4075
60462SOL    HW188626   6.038  10.862   8.106 -2.5255 -1.0112  2.7479
60462SOL    HW288627   6.138  10.821   8.211  1.9654  1.4997 -0.2198
60463SOL     OW88628  11.958   9.564  11.083  0.3479  0.2399 -0.5481
60463SOL    HW188629  11.938   9.657  11.086  1.2091  0.4174  0.1280
60463SOL    HW288630  12.040   9.559  11.032  1.1260  0.0180  0.6890
60464SOL     OW88631  12.274   1.349   6.996 -0.0645 -0.2506 -0.6270
60464SOL    HW188632  12.246   1.403   7.070  0.1215  0.2567 -0.9232
60464SOL    HW288633  12.334   1.405   6.947  0.6871 -0.9801 -0.5463
60465SOL     OW88634   1.307   2.702   2.068  0.1021 -0.1548 -0.2460
60465SOL    HW188635   1.238   2.679   2.005 -1.4680 -0.3523  1.4325
60465SOL    HW288636   1.363   2.624   2.072 -1.6800 -1.4667  0.9392
60466SOL     OW88637   1.432   2.375   3.941  0.2388 -0.1385  0.4519
60466SOL    HW188638   1.387   2.452   3.977 -0.2323 -0.4307  0.4839
60466SOL    HW288639   1.457   2.324   4.018  1.6815  0.5976  0.5091
60467SOL     OW88640   6.134   5.864  12.647 -0.1615  0.0594  0.3448
60467SOL    HW188641   6.161   5.865  12.739  1.0010 -1.7473  0.0573
60467SOL    HW288642   6.082   5.945  12.637 -0.7213  0.0656  2.6794
60468SOL     OW88643   2.210  10.585   4.941  0.3264  0.0256  0.6086
60468SOL    HW188644   2.116  10.568   4.941 -0.0668  1.9019 -0.4477
60468SOL    HW288645   2.231  10.604   4.849  1.5842  0.3532  0.9408
60469SOL     OW88646  12.285   6.746  12.472 -0.7860 -0.1674  0.0656
60469SOL    HW188647  12.360   6.715  12.422 -0.4866  0.0976  0.3408
60469SOL    HW288648  12.317   6.751  12.562 -0.9925  0.3987  0.1115
60470SOL     OW88649   1.714   7.330   1.297  0.4691  0.1378 -0.0842
60470SOL    HW188650   1.779   7.260   1.291  1.6224  1.2736 -1.6561
60470SOL    HW288651   1.755   7.405   1.255 -1.5389  1.1711 -0.3359
60471SOL     OW88652   9.491   6.749   0.022 -0.2340 -0.6933 -0.7151
60471SOL    HW188653   9.560   6.724  -0.040 -1.2083 -0.2039 -2.0671
60471SOL    HW288654   9.519   6.835   0.055 -0.6966  0.0374 -2.1221
60472SOL     OW88655   8.824   3.118   3.681 -0.4796 -0.5683 -0.1222
60472SOL    HW188656   8.843   3.046   3.742 -1.4274 -0.8757 -0.1724
60472SOL    HW288657   8.734   3.102   3.653 -0.1288 -0.3097 -1.4501
60473SOL     OW88658   0.907   2.984   0.625  0.2687 -0.0095  0.4144
60473SOL    HW188659   0.845   3.025   0.564  0.3566 -0.8728 -0.2575
60473SOL    HW288660   0.939   3.057   0.678 -0.2612  0.6616 -0.1701
60474SOL     OW88661   5.015   2.719  11.219  0.0089  0.1933  0.1206
60474SOL    HW188662   5.092   2.752  11.172 -0.4340  0.9356 -0.1219
60474SOL    HW288663   5.043   2.710  11.309  0.0391  1.7577  0.3079
60475SOL     OW88664   7.911   3.277   4.470  0.0641  0.4222  0.0666
60475SOL    HW188665   7.869   3.303   4.388  0.8869  0.1486 -0.4594
60475SOL    HW288666   7.847   3.218   4.512 -0.2191  0.2757 -0.5520
60476SOL     OW88667   5.980   3.476   7.445 -0.2889 -0.3397  0.4359
60476SOL    HW188668   6.004   3.564   7.476  0.4195 -0.3161 -0.1319
60476SOL    HW288669   6.052   3.420   7.473  1.2828 -0.0203 -2.5104
60477SOL     OW88670   0.103  11.283  11.691 -0.1275 -0.2530 -0.3918
60477SOL    HW188671   0.018  11.298  11.734  0.0025 -0.3913 -0.0828
60477SOL    HW288672   0.167  11.324  11.749  0.0939 -0.8202 -0.2285
60478SOL     OW88673   9.515   0.722   0.964  0.2969  0.4634 -0.0005
60478SOL    HW188674   9.503   0.631   0.939 -1.3019  0.6307  0.0540
60478SOL    HW288675   9.456   0.735   1.038  0.4011  1.5759 -0.0887
60479SOL     OW88676   2.527   1.146   1.267 -0.0515 -0.0454  0.1769
60479SOL    HW188677   2.559   1.203   1.337 -0.1677  3.1068 -2.1357
60479SOL    HW288678   2.443   1.113   1.300 -0.3574  1.7671  1.3624
60480SOL     OW88679  12.528  10.461   5.743 -0.6924 -0.0396 -0.6134
60480SOL    HW188680  12.454  10.489   5.797 -0.6124 -0.0188 -0.5138
60480SOL    HW288681  12.576  10.400   5.799 -0.0683  0.7252 -0.3043
60481SOL     OW88682   2.040   9.104   2.174  0.3169 -0.0798  0.4498
60481SOL    HW188683   1.949   9.134   2.184 -0.0485 -1.3060  0.9411
60481SOL    HW288684   2.037   9.011   2.195  1.3610 -0.5523 -1.3216
60482SOL     OW88685   5.978   4.695   3.389 -0.0125  0.4253  0.5794
60482SOL    HW188686   5.928   4.767   3.428 -0.0496  1.6329 -1.5439
60482SOL    HW288687   6.065   4.731   3.373  0.6455 -0.7117  1.4712
60483SOL     OW88688  11.484   1.797   6.722 -0.0133  0.4908  0.4377
60483SOL    HW188689  11.497   1.891   6.722 -0.1912  0.5223  1.1635
60483SOL    HW288690  11.463   1.775   6.631  0.7694  1.0371  0.1228
60484SOL     OW88691  10.413   2.518   8.238  0.3623 -0.3358 -0.0425
60484SOL    HW188692  10.364   2.457   8.294  0.3253  0.2676  0.5907
60484SOL    HW288693  10.382   2.499   8.150 -0.7098 -0.2601  0.3004
60485SOL     OW88694   0.237   9.366   1.321  0.1921 -0.1929  0.4024
60485SOL    HW188695   0.279   9.437   1.271 -1.3825  0.8365  0.4495
60485SOL    HW288696   0.308   9.306   1.343  1.5171  1.1784  0.0197
60486SOL     OW88697  10.881   5.960   5.013 -0.5665  0.2302 -0.4321
60486SOL    HW188698  10.799   6.007   5.030 -0.7954  0.2341 -1.4588
60486SOL    HW288699  10.946   6.028   4.997 -0.6894  0.2182 -1.0062
60487SOL     OW88700   3.874   5.791   9.225 -0.2466 -0.2274  0.2522
60487SOL    HW188701   3.846   5.701   9.211 -2.6593  0.3536  0.8030
60487SOL    HW288702   3.934   5.786   9.300  1.7761 -1.6271 -1.3733
60488SOL     OW88703   5.205  11.135   8.841  0.3311  0.6709  0.6873
60488SOL    HW188704   5.113  11.113   8.852  0.3925  0.4984  0.8396
60488SOL    HW288705   5.253  11.055   8.862  0.5838  1.1018  1.8315
60489SOL     OW88706  11.764   8.730   0.954  0.1127  0.0405  0.4619
60489SOL    HW188707  11.676   8.768   0.946 -1.2064 -2.5601  1.4149
60489SOL    HW288708  11.763   8.655   0.894  1.8822  0.2460  0.1302
60490SOL     OW88709   6.165  12.644   8.480  0.7022  0.0124  0.3472
60490SOL    HW188710   6.153  12.549   8.475  0.8809 -0.0426  0.8980
60490SOL    HW288711   6.178  12.662   8.573  1.4034  0.4893  0.1664
60491SOL     OW88712   3.908   7.202   7.221 -0.0204 -0.1688 -0.0963
60491SOL    HW188713   3.844   7.266   7.193  1.7533  0.5760 -2.8340
60491SOL    HW288714   3.873   7.118   7.190  0.1998  0.2125 -1.4570
60492SOL     OW88715   0.970  11.645   6.995  0.2445 -0.4386  0.0310
60492SOL    HW188716   1.013  11.694   7.065  1.5116 -0.1989 -0.8797
60492SOL    HW288717   0.946  11.711   6.930 -2.8839 -0.3626  1.1248
60493SOL     OW88718   9.468   5.014   3.735 -0.3124 -0.2885 -0.0331
60493SOL    HW188719   9.459   4.964   3.816  3.1912  1.2395  1.5351
60493SOL    HW288720   9.462   5.106   3.763  0.5255  0.2696 -1.5345
60494SOL     OW88721  11.101   6.634   2.977  0.1783  0.6474 -0.0402
60494SOL    HW188722  11.142   6.713   2.942  1.4493 -0.2176 -0.5848
60494SOL    HW288723  11.028   6.666   3.030 -1.0333  2.0619 -2.4231
60495SOL     OW88724   6.201  12.131   2.121  0.6944  0.1199 -0.2855
60495SOL    HW188725   6.292  12.161   2.126  1.0394 -0.7967 -0.7143
60495SOL    HW288726   6.193  12.093   2.033  0.2395 -0.8445  0.1571
60496SOL     OW88727   2.476  10.985   3.420 -0.1339 -0.3258  0.3168
60496SOL    HW188728   2.415  11.059   3.418  1.9861  1.5045 -0.2039
60496SOL    HW288729   2.547  11.014   3.477  0.4183 -2.2868  0.6977
60497SOL     OW88730   7.537   6.531   5.056 -0.0278 -0.4059 -0.5048
60497SOL    HW188731   7.493   6.616   5.063 -2.0303 -1.5185  3.2493
60497SOL    HW288732   7.474   6.476   5.009 -0.2590 -0.6248  0.0515
60498SOL     OW88733   7.946   6.136  11.644 -0.0018 -0.1301 -0.4613
60498SOL    HW188734   7.909   6.086  11.717 -0.8967  0.5097 -0.4545
60498SOL    HW288735   8.039   6.115  11.644  0.6422  2.0812  2.6898
60499SOL     OW88736   1.549  12.667   4.732  0.2051  0.6308 -0.2570
60499SOL    HW188737   1.511  12.743   4.688  1.1779  1.8680  0.9427
60499SOL    HW288738   1.473  12.616   4.763 -0.4762  1.7565 -0.0259
60500SOL     OW88739   2.504   5.615   3.371  0.9374 -0.3531 -0.1240
60500SOL    HW188740   2.567   5.639   3.440  0.5239  1.2805 -0.2621
60500SOL    HW288741   2.534   5.664   3.294 -0.5308  0.5117 -0.1690
60501SOL     OW88742   8.958   6.175   9.220 -0.5540  0.0234 -0.1065
60501SOL    HW188743   8.870   6.170   9.258 -0.8752  0.8064 -0.7218
60501SOL    HW288744   8.948   6.142   9.131 -0.3824  0.7754 -0.4142
60502SOL     OW88745   3.723   9.202  12.265  0.1630 -0.1946  0.2366
60502SOL    HW188746   3.766   9.143  12.327 -0.6959 -1.3574 -0.2249
60502SOL    HW288747   3.773   9.191  12.183 -1.2891 -2.0556 -0.4943
60503SOL     OW88748   4.175   5.701   5.605 -0.5872 -0.0983 -0.2711
60503SOL    HW188749   4.160   5.642   5.531 -0.6048 -0.7138  0.2181
60503SOL    HW288750   4.269   5.719   5.604 -0.5724 -0.1841 -0.3863
60504SOL     OW88751   3.061  11.166   0.529  0.1421  0.2698  0.0259
60504SOL    HW188752   3.081  11.258   0.512 -3.3869  1.0328 -0.8466
60504SOL    HW288753   3.115  11.118   0.466 -1.3752  2.1460 -2.9498
60505SOL     OW88754   6.195   4.861   3.430 -0.0991  0.0639  0.1804
60505SOL    HW188755   6.194   4.901   3.517 -0.6625  0.8437 -0.1770
60505SOL    HW288756   6.245   4.922   3.376  0.1464 -0.3572 -0.0713
60506SOL     OW88757   9.042   6.549   9.561 -0.1280 -0.2692 -0.1829
60506SOL    HW188758   8.991   6.468   9.573 -0.2319 -0.0545  0.9448
60506SOL    HW288759   8.981   6.619   9.584  0.2574  0.0757 -0.2104
60507SOL     OW88760  11.455   2.634   8.363  0.4481  0.2766  0.4704
60507SOL    HW188761  11.419   2.717   8.394 -1.4425 -0.3915  0.1981
60507SOL    HW288762  11.468   2.582   8.442  3.2603  1.3518  0.8296
60508SOL     OW88763  12.213   2.894   6.746 -0.2523 -0.7638  0.1883
60508SOL    HW188764  12.197   2.988   6.751 -0.2628 -0.6247 -1.6168
60508SOL    HW288765  12.148   2.855   6.805 -0.7355  0.3188  0.3982
60509SOL     OW88766  10.089   1.226   3.334 -0.4900 -0.1375  0.6594
60509SOL    HW188767  10.154   1.167   3.296  0.0067  0.7648  0.0632
60509SOL    HW288768  10.063   1.185   3.417  1.9073  0.1696  1.6326
60510SOL     OW88769   3.199   4.474   5.493  0.1729  0.1132 -0.0005
60510SOL    HW188770   3.282   4.439   5.462  1.0590  0.5518  1.7132
60510SOL    HW288771   3.205   4.468   5.589 -1.6889  0.3519  0.1731
60511SOL     OW88772   6.661  12.199   7.805  0.3758 -0.1168  0.8586
60511SOL    HW188773   6.583  12.203   7.860 -1.3101  2.6389 -1.4492
60511SOL    HW288774   6.733  12.226   7.862 -0.7760 -0.1844  2.3938
60512SOL     OW88775  12.143   5.222   0.854 -0.6838 -0.2909  0.3940
60512SOL    HW188776  12.132   5.131   0.828 -3.5265  0.7845 -2.9571
60512SOL    HW288777  12.201   5.259   0.786 -1.4265  0.8509  0.3502
60513SOL     OW88778   0.742  12.375  11.333 -0.4058  0.2666 -0.2913
60513SOL    HW188779   0.787  12.427  11.266  1.7219 -2.1220 -0.8697
60513SOL    HW288780   0.697  12.307  11.283 -0.3017 -0.4835  0.6210
60514SOL     OW88781   8.307   8.147   3.568  0.0232  0.6630  0.0470
60514SOL    HW188782   8.301   8.072   3.509 -0.9567 -0.4995  1.5444
60514SOL    HW288783   8.400   8.171   3.566 -0.0428  0.9222 -2.2072
60515SOL     OW88784   6.242  12.181   7.756  0.3150 -0.7784  0.8107
60515SOL    HW188785   6.202  12.234   7.688  1.4507 -0.6045  0.2449
60515SOL    HW288786   6.174  12.120   7.784 -0.2778 -0.5910 -0.2047
60516SOL     OW88787   6.250  11.478  12.491 -0.3097 -0.1311 -0.2260
60516SOL    HW188788   6.220  11.438  12.409 -1.5143  0.4646 -0.0913
60516SOL    HW288789   6.295  11.407  12.537  0.9134 -0.3285 -1.6424
60517SOL     OW88790   1.832   2.962   8.329 -0.1619  0.1342  0.0035
60517SOL    HW188791   1.793   2.904   8.264 -0.4402  1.9395 -1.5630
60517SOL    HW288792   1.888   3.021   8.278 -0.0516  1.3603  1.4472
60518SOL     OW88793   9.978   6.504   5.992 -0.2811  0.0847  0.0195
60518SOL    HW188794  10.069   6.502   5.964 -0.2340  0.4718  0.1409
60518SOL    HW288795   9.966   6.591   6.031 -0.1226 -0.6877  1.9110
60519SOL     OW88796  12.007   3.438   0.284 -0.0303  0.1058 -0.3490
60519SOL    HW188797  11.958   3.413   0.206 -0.8129 -0.3427  0.2704
60519SOL    HW288798  12.048   3.521   0.261 -0.5851  0.1847 -1.0988
60520SOL     OW88799   3.758   7.906   3.088  0.3991  0.0203  0.0475
60520SOL    HW188800   3.776   7.929   2.997 -0.0762  0.4745  0.0664
60520SOL    HW288801   3.682   7.847   3.084  0.3476  0.0784  0.1556
60521SOL     OW88802   8.828  11.688   7.445 -0.3460  0.8533  0.4469
60521SOL    HW188803   8.751  11.631   7.438 -0.1824  0.4756  1.5355
60521SOL    HW288804   8.902  11.628   7.452  0.0629  1.2152 -0.4829
60522SOL     OW88805   0.348   2.962   8.922  0.0258  0.3408  0.2228
60522SOL    HW188806   0.393   2.984   9.004 -0.0837  3.1403 -0.3512
60522SOL    HW288807   0.418   2.962   8.856 -0.1675  0.0745  0.0152
60523SOL     OW88808   2.580   4.164   9.722 -0.3849  0.0052 -0.2459
60523SOL    HW188809   2.503   4.122   9.761 -1.6436 -0.7397 -3.2334
60523SOL    HW288810   2.629   4.091   9.683 -0.9809  0.8780 -2.8329
60524SOL     OW88811   8.669   3.745   6.755  0.4685 -0.3665  0.3048
60524SOL    HW188812   8.729   3.670   6.755  0.6575 -0.2692  2.3559
60524SOL    HW288813   8.724   3.818   6.726 -0.0441 -1.1266 -3.1075
60525SOL     OW88814   8.736   6.972  11.450  0.0298 -0.0376 -0.1241
60525SOL    HW188815   8.791   7.009  11.381  0.4954  3.1942  1.7628
60525SOL    HW288816   8.647   6.979  11.417  0.3166  0.6001 -0.7708
60526SOL     OW88817   8.599   3.625   1.468 -0.0418  0.5000 -0.4113
60526SOL    HW188818   8.572   3.649   1.379 -1.0262 -1.9981 -0.8393
60526SOL    HW288819   8.556   3.542   1.486  0.4754  0.7116  2.2809
60527SOL     OW88820   6.069   5.216  10.167  0.2472 -0.0886  0.2902
60527SOL    HW188821   6.094   5.296  10.214 -1.6419 -0.5946  2.3481
60527SOL    HW288822   6.007   5.246  10.101 -1.1636  0.1142  1.6533
60528SOL     OW88823   9.854  10.926   5.434  0.3445  0.3318 -1.2014
60528SOL    HW188824   9.789  10.875   5.386 -0.7672  0.4857  0.0795
60528SOL    HW288825   9.878  10.997   5.375 -1.2981  0.7662 -1.3858
60529SOL     OW88826   2.876   6.075  10.368 -0.9467 -0.0050 -0.8080
60529SOL    HW188827   2.898   5.999  10.315  0.0922  0.0397 -0.4594
60529SOL    HW288828   2.924   6.148  10.328  0.2950 -0.0719  0.4728
60530SOL     OW88829   5.408  10.361   9.713  0.7440 -0.3471 -0.0357
60530SOL    HW188830   5.494  10.329   9.684  2.4922  3.1322  0.6672
60530SOL    HW288831   5.368  10.396   9.634  1.2417  0.4149  0.0246
60531SOL     OW88832   6.085   0.899   8.088  0.4145 -0.4007 -0.3174
60531SOL    HW188833   6.109   0.991   8.099  0.7463 -0.3559 -1.3006
60531SOL    HW288834   6.169   0.854   8.080  0.2341 -0.5066 -1.8746
60532SOL     OW88835   6.469   5.306  10.988  0.0508 -0.5282 -0.1460
60532SOL    HW188836   6.462   5.382  11.046  0.3138  0.2067 -1.0383
60532SOL    HW288837   6.427   5.334  10.907 -1.4575 -1.9905  0.0927
60533SOL     OW88838   9.835   0.777   4.305 -0.4296  0.0891  0.2819
60533SOL    HW188839   9.912   0.813   4.261 -0.8730  0.2472 -0.3919
60533SOL    HW288840   9.807   0.704   4.250 -2.4285  1.7871 -1.1168
60534SOL     OW88841  10.108  11.130   0.352  0.0900  0.2717 -0.3120
60534SOL    HW188842  10.118  11.152   0.444  0.6644  0.1978 -0.3558
60534SOL    HW288843  10.051  11.053   0.352 -0.1590  0.4533 -0.0410
60535SOL     OW88844   5.372   7.266   1.135 -0.0966 -0.1459  0.6840
60535SOL    HW188845   5.278   7.284   1.131 -0.4003 -1.7259 -0.0128
60535SOL    HW288846   5.401   7.267   1.044  0.7805  1.2758  0.9551
60536SOL     OW88847   7.747   1.975   7.852  0.0821  0.3500  0.2736
60536SOL    HW188848   7.777   1.927   7.929  4.6879  1.1830 -0.7535
60536SOL    HW288849   7.784   2.062   7.861 -0.9314  1.0882 -1.9792
60537SOL     OW88850   9.085   4.969   0.582  0.1347 -0.1732  0.7551
60537SOL    HW188851   9.028   5.034   0.625 -0.8324  0.4530 -1.3487
60537SOL    HW288852   9.057   4.885   0.618 -0.7111  0.3081  1.2560
60538SOL     OW88853   0.704   4.869  11.510 -0.0739 -0.0186 -0.6610
60538SOL    HW188854   0.744   4.884  11.424  0.5206  3.4170  0.0722
60538SOL    HW288855   0.777   4.838  11.565  0.5372  1.6569 -0.4774
60539SOL     OW88856   1.718   7.527   4.718 -0.0036  0.4659 -0.0303
60539SOL    HW188857   1.766   7.470   4.778  0.8433  1.9000  0.6929
60539SOL    HW288858   1.633   7.539   4.759 -0.3708 -0.6159 -0.4205
60540SOL     OW88859   8.398   3.413  11.346  0.6000  0.1261 -0.2443
60540SOL    HW188860   8.327   3.357  11.378 -0.3642  0.1782 -2.1854
60540SOL    HW288861   8.360   3.501  11.343  0.7446  0.1607 -1.2545
60541SOL     OW88862   8.184   7.133   2.851  0.2327 -0.4396 -0.0188
60541SOL    HW188863   8.272   7.107   2.826  0.3695  1.0253 -1.1660
60541SOL    HW288864   8.163   7.077   2.926  2.9776  0.6550  1.7542
60542SOL     OW88865   7.645   0.718   1.956 -0.1114  0.0905  0.0297
60542SOL    HW188866   7.625   0.757   1.871 -2.5510  3.1018  1.7898
60542SOL    HW288867   7.566   0.732   2.008  0.8564 -2.6574  2.5143
60543SOL     OW88868  10.467   2.738  12.289  0.1041 -0.1714 -0.3519
60543SOL    HW188869  10.372   2.729  12.299 -0.1392 -0.9748 -2.7667
60543SOL    HW288870  10.481   2.832  12.276 -0.6383 -0.2583 -1.9572
60544SOL     OW88871   5.967   4.750   6.695 -0.1191  0.0225  0.5460
60544SOL    HW188872   5.953   4.658   6.671  1.1165  0.1171 -0.6506
60544SOL    HW288873   5.900   4.798   6.647  2.0693  0.1725 -2.7014
60545SOL     OW88874   9.005   3.327   7.371 -0.0931  0.2512  0.0150
60545SOL    HW188875   9.043   3.411   7.347 -0.7282  0.8675  1.0908
60545SOL    HW288876   8.921   3.349   7.411 -0.2597 -0.8904  0.3262
60546SOL     OW88877   0.990   5.357   5.624 -0.2065  0.0424 -0.0231
60546SOL    HW188878   1.017   5.273   5.587 -1.8753 -0.9566  0.9242
60546SOL    HW288879   1.066   5.385   5.676  0.5777 -0.5690 -0.7903
60547SOL     OW88880   7.557  12.340   9.143  0.8430 -0.1869 -0.0004
60547SOL    HW188881   7.533  12.399   9.215  3.0980 -0.0057  0.6624
60547SOL    HW288882   7.547  12.252   9.180  1.0939 -0.1210  0.2211
60548SOL     OW88883   5.604   8.099   6.701  0.1871  0.0991  0.6061
60548SOL    HW188884   5.607   8.189   6.669  1.7284 -0.0011  0.4267
60548SOL    HW288885   5.529   8.061   6.657  0.2983  0.9195 -0.3229
60549SOL     OW88886   1.624   3.439   6.710  0.4797 -0.4181  0.0448
60549SOL    HW188887   1.657   3.380   6.642 -0.7556 -0.8095 -0.2409
60549SOL    HW288888   1.530   3.421   6.713  0.2651  0.7629  0.7312
60550SOL     OW88889   4.311   1.117  12.257  0.5175  0.3332  0.5275
60550SOL    HW188890   4.296   1.203  12.298  2.4294  0.4927  0.9993
60550SOL    HW288891   4.370   1.136  12.184  1.3108 -0.6224  0.9071
60551SOL     OW88892  11.774   5.270   3.278 -0.7709  0.6664 -0.4333
60551SOL    HW188893  11.781   5.275   3.374  2.9919 -0.4754 -0.4782
60551SOL    HW288894  11.720   5.192   3.263 -0.1214 -0.0678  0.8054
60552SOL     OW88895   5.253   2.747   8.615 -0.1200  0.0953  0.0384
60552SOL    HW188896   5.161   2.772   8.608 -0.4785 -1.2956 -0.4707
60552SOL    HW288897   5.298   2.829   8.636 -1.6564  0.5150  2.0201
60553SOL     OW88898   7.491   1.939   0.119 -0.4187 -0.3912 -0.4428
60553SOL    HW188899   7.551   1.868   0.142 -0.2813 -0.6912 -1.6510
60553SOL    HW288900   7.418   1.896   0.075 -0.1521  0.2323 -1.5417
60554SOL     OW88901   7.590   7.274   0.154  0.0878 -0.3099  0.3957
60554SOL    HW188902   7.506   7.290   0.197  0.4574 -0.5242  1.2313
60554SOL    HW288903   7.602   7.179   0.159  0.6121 -0.2346  0.7701
60555SOL     OW88904   0.334   9.017   1.049  0.0449  0.2763  0.1510
60555SOL    HW188905   0.380   8.990   0.970 -1.0774  1.1630 -0.8473
60555SOL    HW288906   0.349   8.946   1.111  0.9832 -0.4195 -0.8389
60556SOL     OW88907   0.452   3.381   3.821  0.5277 -0.0258 -0.4060
60556SOL    HW188908   0.496   3.364   3.904  0.9716  0.4077 -0.5505
60556SOL    HW288909   0.374   3.432   3.845  0.1902 -0.6487 -0.1694
60557SOL     OW88910   3.236   9.272   8.586  0.0395 -0.8164  0.4327
60557SOL    HW188911   3.214   9.355   8.543  0.4985 -1.4932 -1.1841
60557SOL    HW288912   3.274   9.218   8.516 -0.3563 -2.4399  1.4152
60558SOL     OW88913  12.047   4.948   6.430 -0.1064  0.3810 -0.2237
60558SOL    HW188914  12.048   5.039   6.460 -3.2179  0.9800 -1.4848
60558SOL    HW288915  12.043   4.954   6.334 -0.2476 -1.0616 -0.3383
60559SOL     OW88916   0.902   2.100  12.674  0.0412 -0.4966  0.7561
60559SOL    HW188917   0.940   2.039  12.611 -1.1331 -3.2525  2.5283
60559SOL    HW288918   0.973   2.117  12.737  0.2493 -0.3180  0.4772
60560SOL     OW88919   3.230   4.642   2.725  0.0478 -0.0732  0.0977
60560SOL    HW188920   3.146   4.608   2.693  0.6404 -0.8250 -0.7028
60560SOL    HW288921   3.206   4.706   2.791 -1.2137  0.9904 -1.3363
60561SOL     OW88922   3.488   5.244   0.890 -0.3820 -0.1985 -0.2628
60561SOL    HW188923   3.508   5.261   0.982 -0.1526  0.5554 -0.4454
60561SOL    HW288924   3.497   5.330   0.848  0.5615 -0.7318 -1.1793
60562SOL     OW88925   3.570   5.970   4.024 -0.4069  0.1642 -0.2508
60562SOL    HW188926   3.603   5.965   4.114 -0.8757 -2.5640 -0.1409
60562SOL    HW288927   3.483   5.930   4.029 -0.1227 -0.7525 -2.0481
60563SOL     OW88928   6.937   3.893  10.813  0.7125 -0.3749 -0.0322
60563SOL    HW188929   6.894   3.904  10.728 -0.0301 -1.7576  0.1478
60563SOL    HW288930   6.994   3.817  10.801  0.3183 -0.8162  0.8047
60564SOL     OW88931   2.646   3.915   9.598  0.9419 -0.0422  0.4089
60564SOL    HW188932   2.589   3.897   9.672  1.8712  0.9916  1.4282
60564SOL    HW288933   2.690   3.832   9.580  0.2774 -0.4475  0.6390
60565SOL     OW88934   7.663   4.529   2.235 -0.7330 -0.0496  0.0628
60565SOL    HW188935   7.582   4.499   2.276 -0.7872  0.6544  0.5023
60565SOL    HW288936   7.725   4.457   2.247 -0.9931 -0.1797  0.6553
60566SOL     OW88937  10.728  11.840   4.889 -0.1380  0.1896 -0.0651
60566SOL    HW188938  10.819  11.816   4.907 -0.1472 -0.5830 -0.9770
60566SOL    HW288939  10.723  11.933   4.910  0.7273  0.1234  0.4839
60567SOL     OW88940   4.612   8.970   8.501  0.5164  0.2048 -0.6519
60567SOL    HW188941   4.675   9.026   8.548  0.7111 -1.1774  0.8228
60567SOL    HW288942   4.601   8.894   8.558 -2.0231  0.1035 -1.1886
60568SOL     OW88943   0.052   0.332   2.611  0.4329  0.4079 -0.0058
60568SOL    HW188944   0.118   0.348   2.679  1.9732  0.6155 -1.4900
60568SOL    HW288945   0.081   0.251   2.569 -1.0167 -0.2116  0.1383
60569SOL     OW88946  11.422   2.140   7.326  0.3145  0.2606 -0.2238
60569SOL    HW188947  11.484   2.162   7.397  0.2750 -1.2489  0.3016
60569SOL    HW288948  11.341   2.118   7.371  0.3212 -0.8365 -0.7174
60570SOL     OW88949   9.838   0.142  10.336  0.1072  0.3463  0.5393
60570SOL    HW188950   9.762   0.173  10.386  0.2074  0.1520  0.8222
60570SOL    HW288951   9.882   0.083  10.397  0.3771  0.3100  0.3050
60571SOL     OW88952   1.693  12.693   6.514  0.1373 -0.0280  0.0342
60571SOL    HW188953   1.777  12.659   6.544 -0.0020  1.1111  1.8673
60571SOL    HW288954   1.641  12.615   6.496  1.0253 -0.7658  0.5728
60572SOL     OW88955   9.654   6.988  12.222  0.7320  0.1365  0.0912
60572SOL    HW188956   9.692   7.033  12.298 -0.9466  2.8037 -0.5213
60572SOL    HW288957   9.638   6.899  12.253 -0.1918  1.1972  3.0459
60573SOL     OW88958   9.300   8.353  12.708 -0.4357 -0.2837  0.5528
60573SOL    HW188959   9.365   8.292  12.743  0.3550  0.9177  1.2206
60573SOL    HW288960   9.345   8.437  12.704 -1.7925  0.4702  0.5209
60574SOL     OW88961   0.252   5.812   1.475  0.5250 -0.3174  0.0974
60574SOL    HW188962   0.222   5.901   1.458 -1.9845 -1.0261  0.4770
60574SOL    HW288963   0.341   5.823   1.510  0.0096  2.0726  0.8314
60575SOL     OW88964   7.907   6.150   5.623 -0.1909  0.5081 -0.3197
60575SOL    HW188965   7.976   6.137   5.688  0.0453 -1.7257 -0.9106
60575SOL    HW288966   7.953   6.187   5.547  0.4997 -1.2739 -0.8270
60576SOL     OW88967   6.442  12.110   9.344  0.2231 -0.2191  0.2063
60576SOL    HW188968   6.488  12.190   9.367 -1.8604  1.4131 -0.9439
60576SOL    HW288969   6.364  12.140   9.296 -1.5842 -2.8277  1.2856
60577SOL     OW88970   1.030  11.895   2.891 -0.0661 -0.8094 -0.3748
60577SOL    HW188971   1.087  11.833   2.844  2.9955  1.0832  0.5660
60577SOL    HW288972   1.063  11.896   2.980 -0.9691  1.1041 -0.0005
60578SOL     OW88973  11.040  10.289   0.374  0.2232  0.5238  0.3788
60578SOL    HW188974  11.068  10.316   0.461 -1.9139  0.4903  1.1250
60578SOL    HW288975  11.082  10.351   0.315  0.9476  1.1314  1.4943
60579SOL     OW88976   0.762   7.156   8.708 -0.6777 -0.3481  0.0009
60579SOL    HW188977   0.693   7.213   8.740 -0.5675 -0.4672  0.4537
60579SOL    HW288978   0.721   7.070   8.697 -0.3185 -0.7177  1.4329
60580SOL     OW88979  10.273   9.367   1.066 -0.0649 -0.5226  0.0290
60580SOL    HW188980  10.299   9.340   1.154 -2.3409  0.3000  1.0226
60580SOL    HW288981  10.320   9.449   1.051  0.0992 -0.5101  0.5921
60581SOL     OW88982   6.465   9.882   8.231  0.0023 -0.3570 -0.4089
60581SOL    HW188983   6.555   9.851   8.238 -0.0434 -0.4227 -0.1128
60581SOL    HW288984   6.412   9.803   8.222 -0.3529 -0.5760  2.6588
60582SOL     OW88985   2.305   5.739  11.646 -0.0249  0.6777 -0.0155
60582SOL    HW188986   2.279   5.793  11.720 -0.9045  1.7374 -1.0618
60582SOL    HW288987   2.223   5.721  11.599  0.7474  1.8840 -1.9506
60583SOL     OW88988   5.896   9.688   3.218  0.1775  0.2814 -0.1112
60583SOL    HW188989   5.837   9.733   3.159 -0.7592  0.4466  0.9066
60583SOL    HW288990   5.978   9.680   3.170  0.4009  3.0795 -0.3238
60584SOL     OW88991   0.847   6.006   1.786  0.2994 -0.1775  0.2221
60584SOL    HW188992   0.886   5.993   1.873 -0.0535 -2.7308  0.0898
60584SOL    HW288993   0.897   6.078   1.748  3.2588 -1.6161  1.0408
60585SOL     OW88994   5.838  12.272   3.824  0.0638  0.1078  0.3993
60585SOL    HW188995   5.885  12.192   3.801  0.3335  0.5231 -0.5521
60585SOL    HW288996   5.905  12.340   3.824 -0.3445  0.5172  0.1141
60586SOL     OW88997  10.754   5.546  12.279 -0.5006  0.0354  0.3267
60586SOL    HW188998  10.844   5.516  12.277 -0.6649 -0.4390 -0.0849
60586SOL    HW288999  10.723   5.524  12.367 -0.4822 -0.5964  0.1772
60587SOL     OW89000   3.856   5.648   8.007  0.4650  0.7032  0.2782
60587SOL    HW189001   3.784   5.623   8.065 -0.3942  2.5562  0.0867
60587SOL    HW289002   3.871   5.740   8.026  0.4612  1.2602 -2.1063
60588SOL     OW89003   2.704  10.467   1.925 -0.1525 -0.8800 -0.0049
60588SOL    HW189004   2.735  10.390   1.971  2.9679 -0.2717 -0.8702
60588SOL    HW289005   2.682  10.435   1.837  0.1490 -0.9737 -0.0474
60589SOL     OW89006   5.952   8.023   0.641  0.0353  0.3910  0.3508
60589SOL    HW189007   5.857   8.027   0.652  0.2407  0.8086  2.1566
60589SOL    HW289008   5.965   8.032   0.546 -1.7396 -0.2477  0.0098
60590SOL     OW89009   3.150  11.000   7.533  0.0100  0.2634 -0.4807
60590SOL    HW189010   3.195  10.978   7.451 -1.5549  1.4988 -1.7485
60590SOL    HW289011   3.206  10.965   7.602  0.6459 -2.1703 -2.1168
60591SOL     OW89012   0.086   4.928   6.739 -0.1484 -0.1493 -0.6183
60591SOL    HW189013   0.130   4.956   6.819 -0.6421  0.9920 -0.7235
60591SOL    HW289014   0.069   4.835   6.752 -0.8345  0.1622  0.9104
60592SOL     OW89015   8.575   5.183   9.854  0.2385  0.4416 -0.3944
60592SOL    HW189016   8.592   5.253   9.790 -0.0577  0.6130 -0.2919
60592SOL    HW289017   8.480   5.170   9.849  0.4235 -0.6860 -1.1608
60593SOL     OW89018   7.391   3.322  12.327  0.6540 -0.4188 -0.0797
60593SOL    HW189019   7.376   3.341  12.420  1.0125 -4.9512  1.1003
60593SOL    HW289020   7.303   3.306  12.292  0.6708 -0.4608 -0.1017
60594SOL     OW89021   8.027  12.457   1.875 -0.1418  0.4460 -0.4316
60594SOL    HW189022   8.119  12.436   1.862 -0.4576 -2.9700  1.6706
60594SOL    HW289023   7.983  12.422   1.798  0.0832 -0.4731 -0.1562
60595SOL     OW89024  11.063   7.939   4.907 -0.0296  0.1053  0.2266
60595SOL    HW189025  11.158   7.927   4.907 -0.2165 -1.9353 -1.5670
60595SOL    HW289026  11.045   7.991   4.829 -0.3230  1.6428  1.2787
60596SOL     OW89027   0.270  11.332   3.749  0.2993 -0.1149  0.5503
60596SOL    HW189028   0.348  11.362   3.703 -0.3267  1.3710  0.3963
60596SOL    HW289029   0.244  11.406   3.803 -0.8039 -0.7069  0.8565
60597SOL     OW89030   9.717  12.087   8.139  0.1984 -0.5681 -0.4430
60597SOL    HW189031   9.801  12.125   8.165 -0.5575 -0.3347  1.9214
60597SOL    HW289032   9.740  12.008   8.091  1.7981 -0.7339  0.5132
60598SOL     OW89033   8.016  10.401   9.727 -0.4230 -0.5727 -0.0852
60598SOL    HW189034   7.981  10.479   9.771  1.1015  0.0752  0.0291
60598SOL    HW289035   8.090  10.375   9.782  0.0038 -1.2013 -0.9516
60599SOL     OW89036  10.642   5.629   0.571  0.0066  0.2097  0.1392
60599SOL    HW189037  10.553   5.652   0.597 -0.0065 -0.8285  1.0725
60599SOL    HW289038  10.671   5.702   0.516 -0.3296  2.0438  2.2600
60600SOL     OW89039   2.237   6.708   7.136  0.0588 -0.4211 -0.3695
60600SOL    HW189040   2.170   6.691   7.071 -2.4150  1.2378  1.5500
60600SOL    HW289041   2.248   6.804   7.136  0.7127 -0.4613  0.9523
60601SOL     OW89042   2.931   4.830  10.200  0.0818 -0.1426  0.0224
60601SOL    HW189043   2.842   4.813  10.168  0.9494 -2.9755 -1.1808
60601SOL    HW289044   2.932   4.795  10.289 -0.4785  1.6872  0.7998
60602SOL     OW89045   9.852   8.416  12.589 -0.0633  0.0089  0.2765
60602SOL    HW189046   9.899   8.357  12.648  0.8062  0.8736  0.4807
60602SOL    HW289047   9.790   8.359  12.543  0.9599 -1.1260  0.2358
60603SOL     OW89048   8.211   7.186   9.326 -0.2892  0.5706 -0.0116
60603SOL    HW189049   8.121   7.216   9.320 -0.4332  0.3232  0.8143
60603SOL    HW289050   8.207   7.092   9.306 -0.5208  0.1246  1.9448
60604SOL     OW89051  12.428   7.622   9.209 -0.1471  0.1534  0.0262
60604SOL    HW189052  12.369   7.620   9.133  0.2765 -2.5129 -0.3284
60604SOL    HW289053  12.484   7.545   9.197  1.9450  1.3607  1.5118
60605SOL     OW89054   8.834  10.170  10.588  0.4870 -0.2522  0.2148
60605SOL    HW189055   8.740  10.177  10.572  0.4318  0.3424  0.7691
60605SOL    HW289056   8.861  10.259  10.611  1.5755  0.0189 -1.9340
60606SOL     OW89057   0.942   9.958   0.344  0.4803 -0.3952  0.0178
60606SOL    HW189058   0.939   9.892   0.413 -0.2077  0.6928  1.0761
60606SOL    HW289059   0.906  10.037   0.385  1.0207  0.5672 -1.2827
60607SOL     OW89060   6.800  12.655  10.307 -0.0837 -0.2736  0.5027
60607SOL    HW189061   6.753  12.636  10.388  0.0591 -1.2965  0.3599
60607SOL    HW289062   6.789  12.576  10.254  0.9830 -0.1611  0.0872
60608SOL     OW89063   5.655   8.683   0.476 -0.3755 -0.0013 -0.1303
60608SOL    HW189064   5.723   8.620   0.452 -1.3869 -0.2467 -2.5306
60608SOL    HW289065   5.576   8.651   0.434 -1.7092  1.0502  1.4527
60609SOL     OW89066   6.638   9.224   9.406  0.0080 -0.6197 -0.3040
60609SOL    HW189067   6.653   9.293   9.341  4.1090 -1.1958 -0.2186
60609SOL    HW289068   6.622   9.271   9.488  0.0458  0.1830 -0.7466
60610SOL     OW89069   9.434   0.592  12.442  0.0944  0.0232  0.1255
60610SOL    HW189070   9.499   0.655  12.411 -0.9909  1.6011  0.9381
60610SOL    HW289071   9.462   0.509  12.405  1.5938  0.9687 -0.9698
60611SOL     OW89072   3.367   1.436  10.044 -0.0502  0.2618  0.1253
60611SOL    HW189073   3.294   1.376  10.027  0.6055 -0.6423  0.4811
60611SOL    HW289074   3.424   1.389  10.104  0.7234  1.0576  0.0325
60612SOL     OW89075   2.212   3.624   9.808 -0.2682 -0.3160 -0.6760
60612SOL    HW189076   2.150   3.675   9.861  0.7735  1.1886 -0.8353
60612SOL    HW289077   2.166   3.608   9.726 -1.5910 -1.9538  0.3399
60613SOL     OW89078  10.030   5.472   9.801 -0.5897  0.6413  0.1446
60613SOL    HW189079  10.069   5.424   9.728 -3.2065 -0.2937 -0.7309
60613SOL    HW289080  10.069   5.559   9.795  1.7282 -0.3462 -0.2891
60614SOL     OW89081   7.573   0.038   3.924 -0.3170 -0.4663 -0.6817
60614SOL    HW189082   7.590   0.116   3.978  1.4187 -1.4275  0.2485
60614SOL    HW289083   7.659   0.009   3.897 -1.0596 -1.0425 -2.5704
60615SOL     OW89084   3.995   9.101   4.485  0.0901 -0.1701 -0.1411
60615SOL    HW189085   4.000   9.142   4.571 -1.2502 -0.4889  0.1121
60615SOL    HW289086   4.028   9.167   4.424  0.0191  0.4558  0.4929
60616SOL     OW89087   6.806   0.491   3.001 -0.5674 -0.2129  0.1433
60616SOL    HW189088   6.857   0.559   3.046 -1.7688  0.8261 -0.0036
60616SOL    HW289089   6.871   0.438   2.956  0.3392  1.8957 -1.1813
60617SOL     OW89090   6.861   1.979   2.771 -0.1835 -0.2199  0.3517
60617SOL    HW189091   6.812   1.900   2.751  1.3551 -1.4863  1.2958
60617SOL    HW289092   6.838   1.998   2.862  1.4145 -1.1595  0.9932
60618SOL     OW89093   9.144  10.756   8.843  0.0247 -0.1887 -0.3933
60618SOL    HW189094   9.195  10.828   8.880  0.5622  1.5130 -3.9998
60618SOL    HW289095   9.210  10.698   8.804 -0.5703 -0.0474 -1.6644
60619SOL     OW89096   6.449   5.537   8.881  0.1099  0.1801  0.0121
60619SOL    HW189097   6.475   5.445   8.869  1.2652  0.6102 -0.9423
60619SOL    HW289098   6.513   5.587   8.830 -0.5797  1.5177  0.4188
60620SOL     OW89099  10.918   1.983  12.118  0.3789  0.0939 -1.0367
60620SOL    HW189100  10.910   1.899  12.073  1.6363 -0.0960 -0.9382
60620SOL    HW289101  10.962   2.040  12.055  0.0540  0.5071 -0.8892
60621SOL     OW89102   6.531  10.840   8.548 -0.4466 -0.1634 -0.1336
60621SOL    HW189103   6.541  10.866   8.456 -1.2447  0.5711 -0.0290
60621SOL    HW289104   6.465  10.772   8.546  1.2410 -1.8654 -0.3422
60622SOL     OW89105   3.549   6.314  12.101  0.1125  0.2374 -0.5091
60622SOL    HW189106   3.470   6.262  12.116 -0.7019  1.7058  0.5608
60622SOL    HW289107   3.594   6.314  12.185 -0.2777  1.8085 -0.2674
60623SOL     OW89108  10.898   5.741   1.501  0.1550  0.1471  0.4615
60623SOL    HW189109  10.929   5.832   1.494  1.0874 -0.0846  1.2801
60623SOL    HW289110  10.938   5.696   1.427 -0.6822  0.4922 -0.2131
60624SOL     OW89111   5.196   9.304   4.025  0.0209  0.6054 -0.6113
60624SOL    HW189112   5.118   9.257   3.996  0.2522  0.7476 -1.5007
60624SOL    HW289113   5.222   9.357   3.949 -1.0544  3.3184  0.7868
60625SOL     OW89114   4.023   8.993   9.740  0.5949 -0.0147 -0.3523
60625SOL    HW189115   4.085   9.056   9.778  0.1451  1.5937 -2.1022
60625SOL    HW289116   3.938   9.019   9.776  0.8884 -2.7455  2.7152
60626SOL     OW89117   7.991   6.885   9.968  0.1201 -0.0654  0.1331
60626SOL    HW189118   7.994   6.895  10.063 -1.1096 -1.5160  0.3717
60626SOL    HW289119   8.057   6.945   9.935  0.8088  0.2136  1.9229
60627SOL     OW89120   3.453   3.082  12.412 -0.3477  0.2066 -1.0382
60627SOL    HW189121   3.464   3.175  12.391 -0.6397  0.2641 -0.9465
60627SOL    HW289122   3.458   3.078  12.507  0.7764 -0.0284 -1.0922
60628SOL     OW89123   4.714   6.918   8.609  0.1051  0.2290  0.3186
60628SOL    HW189124   4.725   7.006   8.572  1.0141  0.3951  0.9591
60628SOL    HW289125   4.724   6.860   8.534  1.9468  0.5638  0.2541
60629SOL     OW89126   5.465  12.419   8.437 -0.2257  0.1630 -0.8770
60629SOL    HW189127   5.432  12.508   8.424  0.7151  0.3108 -2.6304
60629SOL    HW289128   5.560  12.428   8.426 -0.0352 -0.9316 -0.2240
60630SOL     OW89129   5.669   6.998   0.852 -0.1680 -0.0622  0.0424
60630SOL    HW189130   5.745   6.991   0.909 -0.3011  0.2442  0.2640
60630SOL    HW289131   5.705   6.996   0.763  0.0993  0.0962  0.1471
60631SOL     OW89132   5.646   9.433   8.485  0.7617  0.7011 -0.1539
60631SOL    HW189133   5.580   9.365   8.499 -0.4175  1.8383  0.0921
60631SOL    HW289134   5.679   9.418   8.397 -0.5020  0.6353 -0.6337
60632SOL     OW89135   0.642   3.083   1.508  0.3838 -0.0546  0.1779
60632SOL    HW189136   0.664   3.163   1.556  0.6531 -0.8562  1.4502
60632SOL    HW289137   0.564   3.049   1.552  0.7888 -0.9441  0.2343
60633SOL     OW89138   5.635   7.444  11.074  0.5422 -0.4159 -0.0636
60633SOL    HW189139   5.673   7.463  10.988  0.9747 -1.2351 -0.0657
60633SOL    HW289140   5.603   7.354  11.066  0.0346 -0.2834  0.4411
60634SOL     OW89141   4.281   9.343   7.643  0.3827  0.0797  0.4872
60634SOL    HW189142   4.331   9.403   7.698  3.7444 -2.7627  0.9157
60634SOL    HW289143   4.298   9.372   7.554  0.3051  0.8636  0.7157
60635SOL     OW89144   5.698   3.760   3.885 -0.0535 -0.1543  0.2407
60635SOL    HW189145   5.733   3.779   3.798  2.1760  1.1798  1.3261
60635SOL    HW289146   5.736   3.675   3.908 -0.2887 -0.2962  0.1182
60636SOL     OW89147   4.802   7.666   9.762  0.0471  0.6253  0.0297
60636SOL    HW189148   4.725   7.643   9.814  0.7320 -0.0159  0.7651
60636SOL    HW289149   4.853   7.724   9.818  1.0509 -0.4940  0.2887
60637SOL     OW89150   1.815   0.166   2.752 -0.1740 -0.5213  0.0674
60637SOL    HW189151   1.776   0.081   2.772 -0.4117 -0.6889 -1.0701
60637SOL    HW289152   1.796   0.181   2.660  2.4014 -0.5844 -0.5661
60638SOL     OW89153   1.565  10.407   3.878 -0.1760  0.1222  0.0076
60638SOL    HW189154   1.561  10.502   3.891  0.3034  0.0292  0.9674
60638SOL    HW289155   1.622  10.395   3.802  0.3903  0.5909  0.3475
60639SOL     OW89156   8.155  12.009   5.541 -0.0957 -0.2934 -0.1701
60639SOL    HW189157   8.249  11.993   5.530 -0.0892 -0.1171 -0.3758
60639SOL    HW289158   8.113  11.935   5.497 -0.0509 -0.9642  0.8778
60640SOL     OW89159   4.660   3.037   9.353  0.4320  0.2930 -0.2326
60640SOL    HW189160   4.641   3.100   9.283 -0.3211 -1.2330 -1.4723
60640SOL    HW289161   4.722   2.976   9.313 -2.0383 -2.1949 -0.6115
60641SOL     OW89162   0.822   2.450   9.380  0.0885 -0.1492  0.0383
60641SOL    HW189163   0.867   2.383   9.432  0.6394  0.4622  0.3549
60641SOL    HW289164   0.816   2.526   9.437 -0.4159  0.1224 -0.3666
60642SOL     OW89165  10.470   1.786   1.842 -0.1376  0.1329  0.4201
60642SOL    HW189166  10.435   1.872   1.819  0.3909  0.8349  2.0605
60642SOL    HW289167  10.563   1.791   1.820  0.0937  0.3452  1.3854
60643SOL     OW89168   4.138   7.029  10.501  0.1644  0.3484  0.3350
60643SOL    HW189169   4.216   7.082  10.486 -0.2024  1.8904  3.1977
60643SOL    HW289170   4.066   7.092  10.506 -0.7081 -0.6749  1.2468
60644SOL     OW89171   2.149  10.674   6.976 -0.6511 -0.0675 -0.3203
60644SOL    HW189172   2.164  10.626   7.057  1.2775 -0.0702 -0.6231
60644SOL    HW289173   2.056  10.661   6.957 -1.3043  0.4712  2.1856
60645SOL     OW89174   3.842   2.620   3.614  0.0610  0.3352  0.0532
60645SOL    HW189175   3.820   2.679   3.686  1.6625  0.2984  0.6170
60645SOL    HW289176   3.873   2.541   3.658  1.4193  0.4552 -0.6539
60646SOL     OW89177   4.561   3.083   7.700  0.1605  0.2296  0.2978
60646SOL    HW189178   4.503   3.111   7.772 -1.2148  0.1284 -0.7352
60646SOL    HW289179   4.527   2.998   7.673  0.6734  0.2594 -0.4738
60647SOL     OW89180   2.256   4.911   8.649  0.2346 -0.3940 -0.1520
60647SOL    HW189181   2.202   4.955   8.714  1.5089 -1.1271  1.4729
60647SOL    HW289182   2.193   4.875   8.586 -0.9277  1.9576 -0.4157
60648SOL     OW89183   0.800  11.565   5.225  0.3234  0.5351 -0.0387
60648SOL    HW189184   0.787  11.654   5.192 -2.0458 -0.3593 -1.8620
60648SOL    HW289185   0.712  11.535   5.247  0.9801 -1.5944 -0.1043
60649SOL     OW89186   4.314   6.347  10.940  0.2802  0.4836  0.0967
60649SOL    HW189187   4.229   6.306  10.953  0.1241  0.8217  0.1645
60649SOL    HW289188   4.321   6.411  11.012  0.1509  1.1658 -0.4884
60650SOL     OW89189   9.547   4.633   5.528  0.0815  0.1743 -0.5793
60650SOL    HW189190   9.610   4.698   5.560 -0.5334  0.3212  0.3812
60650SOL    HW289191   9.572   4.618   5.437 -0.0797  2.1397 -0.9929
60651SOL     OW89192   5.473   3.826   7.748  0.8642 -0.1239  0.1739
60651SOL    HW189193   5.503   3.736   7.749 -0.6888 -0.6764  0.7806
60651SOL    HW289194   5.552   3.879   7.758  1.7370 -1.4325  0.3584
60652SOL     OW89195   5.979  12.531  10.769 -0.0170 -0.1017 -0.3919
60652SOL    HW189196   5.893  12.497  10.793 -0.3597  2.1674  1.9689
60652SOL    HW289197   6.031  12.524  10.849  1.2217  0.8578 -1.0769
60653SOL     OW89198   8.936   6.643   1.313 -0.5287  0.7622 -0.5078
60653SOL    HW189199   8.984   6.726   1.314 -0.9332  1.0159 -1.3341
60653SOL    HW289200   8.852   6.665   1.272 -1.8841  0.6221  1.9952
60654SOL     OW89201   0.741   7.046  12.331  0.0326 -0.3576 -0.1596
60654SOL    HW189202   0.710   6.963  12.368 -0.9543  0.4602  0.9449
60654SOL    HW289203   0.827   7.026  12.295  1.2851 -1.1748  2.9856
60655SOL     OW89204  11.478   0.676   3.909  0.9558  0.1472 -0.1185
60655SOL    HW189205  11.537   0.615   3.864  0.3140  1.5126 -3.0115
60655SOL    HW289206  11.398   0.674   3.858 -0.0224  1.4563  1.2855
60656SOL     OW89207   0.915  12.660   9.950  0.3673 -0.7114 -0.3449
60656SOL    HW189208   0.907  12.755   9.955  0.6228 -0.6793 -0.5192
60656SOL    HW289209   0.875  12.636   9.867  0.9906 -0.6742 -0.6606
60657SOL     OW89210   4.360   5.000  11.037  0.4269 -0.7479 -0.0163
60657SOL    HW189211   4.385   5.069  11.097  1.2445 -0.6560 -0.4553
60657SOL    HW289212   4.341   4.924  11.093 -0.8092 -0.0889  0.4888
60658SOL     OW89213   6.412   1.389   4.269 -0.4505  0.4529  0.1579
60658SOL    HW189214   6.448   1.466   4.225 -2.5602  1.3236 -0.1817
60658SOL    HW289215   6.364   1.343   4.200  0.6772 -1.1144  0.3909
60659SOL     OW89216   6.326  12.174  12.313  0.6727  0.2312 -1.0615
60659SOL    HW189217   6.410  12.213  12.290  1.7279 -1.0864  0.3092
60659SOL    HW289218   6.309  12.203  12.403  1.1335 -1.7528 -0.2778
60660SOL     OW89219   0.575   1.909   3.706  0.1158  0.4261 -0.4744
60660SOL    HW189220   0.489   1.920   3.747  0.7714 -0.4179  1.2557
60660SOL    HW289221   0.624   1.987   3.734 -0.3903  1.4834 -2.3998
60661SOL     OW89222   3.194   8.805   7.118  0.0349  0.4120  0.7755
60661SOL    HW189223   3.208   8.829   7.209  0.0334  1.1113  0.5932
60661SOL    HW289224   3.189   8.888   7.071 -0.6546  0.0748  0.2345
60662SOL     OW89225  12.266   3.064   3.359  0.1030 -0.3224  0.2284
60662SOL    HW189226  12.223   3.081   3.275  0.2023 -2.3884 -0.2994
60662SOL    HW289227  12.348   3.113   3.354  1.0377 -1.9400 -1.7743
60663SOL     OW89228  11.353  12.410  10.114  0.2923 -0.1259 -0.1182
60663SOL    HW189229  11.279  12.465  10.141  0.2678  0.4459 -1.2703
60663SOL    HW289230  11.315  12.347  10.053  0.7025 -0.0126 -0.4919
60664SOL     OW89231   4.161   3.095   4.241 -0.0173  0.4282  0.2321
60664SOL    HW189232   4.243   3.045   4.240  0.6014  1.3344 -2.3074
60664SOL    HW289233   4.112   3.063   4.165 -1.2939  1.0785  0.7422
60665SOL     OW89234   1.499   0.643   3.494 -1.1864 -0.2956 -0.3069
60665SOL    HW189235   1.464   0.622   3.407 -0.2599  1.8265 -1.2514
60665SOL    HW289236   1.586   0.605   3.495 -0.0678  2.0816 -1.4693
60666SOL     OW89237   7.799   0.596   2.170  0.1694  0.3494 -0.4087
60666SOL    HW189238   7.726   0.594   2.108  0.6608 -1.2635 -0.9775
60666SOL    HW289239   7.826   0.505   2.179  1.2737  0.7604  0.8137
60667SOL     OW89240  12.590  11.499   2.986 -0.1486 -0.0053  0.4459
60667SOL    HW189241  12.598  11.591   3.009 -0.0473  0.0749  0.0890
60667SOL    HW289242  12.663  11.482   2.928 -0.8773  0.0098 -0.5012
60668SOL     OW89243  12.032   0.102   1.929 -0.7428 -0.1435  0.3260
60668SOL    HW189244  11.951   0.121   1.976 -0.3784  1.4876  0.3359
60668SOL    HW289245  12.009   0.114   1.836 -1.0078 -1.6591  0.1677
60669SOL     OW89246   2.373   6.691   0.124 -0.1564 -0.0551  0.3381
60669SOL    HW189247   2.309   6.759   0.104  1.6208  1.3846 -0.8479
60669SOL    HW289248   2.352   6.620   0.064 -0.3896  0.5768 -0.3468
60670SOL     OW89249  11.160   4.919  11.736  0.3125 -0.7165 -0.0501
60670SOL    HW189250  11.252   4.922  11.710  0.0910  2.3565 -0.9238
60670SOL    HW289251  11.112   4.913  11.654 -0.2642  1.9679 -0.0020
60671SOL     OW89252   7.412   9.301   7.550 -0.0161  0.4142 -0.2013
60671SOL    HW189253   7.339   9.242   7.530  0.9820 -0.4309 -1.5707
60671SOL    HW289254   7.426   9.292   7.644 -1.4610  0.3437  0.0210
60672SOL     OW89255  11.755   4.306   9.751 -0.0921 -0.5719  0.2524
60672SOL    HW189256  11.778   4.223   9.710  1.4652  0.0899 -0.2916
60672SOL    HW289257  11.669   4.291   9.790  0.3691 -2.5851  0.5974
60673SOL     OW89258  12.461   7.630   3.226 -0.4064 -0.4822  0.3599
60673SOL    HW189259  12.417   7.665   3.149  0.7089  1.7139  0.6465
60673SOL    HW289260  12.396   7.634   3.296 -1.3390 -2.2408 -0.3434
60674SOL     OW89261   6.440   9.199   8.926  0.0946  0.0292 -0.5151
60674SOL    HW189262   6.473   9.158   9.006  1.6902  0.7546 -0.7677
60674SOL    HW289263   6.464   9.291   8.935  0.6388  0.0542 -2.0065
60675SOL     OW89264   6.010  11.859   6.486 -0.4555 -0.0821 -0.8121
60675SOL    HW189265   6.009  11.798   6.412  0.7671  1.4804 -2.1636
60675SOL    HW289266   5.949  11.928   6.461 -0.8140 -0.0509  0.1157
60676SOL     OW89267   4.178   6.045   5.908 -0.0675  0.3381  0.5989
60676SOL    HW189268   4.197   6.094   5.988 -1.9706  0.8746  0.7931
60676SOL    HW289269   4.165   5.954   5.938  1.6155  0.0471  0.5133
60677SOL     OW89270  10.596   3.828   5.835 -0.4347  0.0636 -0.2248
60677SOL    HW189271  10.549   3.844   5.753 -0.6097  1.9896  0.2027
60677SOL    HW289272  10.528   3.802   5.897 -0.4370 -0.4527 -0.4361
60678SOL     OW89273  11.746   1.036   9.520 -0.1839 -0.0386 -0.0187
60678SOL    HW189274  11.839   1.041   9.542 -0.1451 -0.1366 -0.1586
60678SOL    HW289275  11.739   1.080   9.435 -0.6599  2.1455  1.0972
60679SOL     OW89276   0.517  12.699   9.893  0.4577  0.2463  0.1009
60679SOL    HW189277   0.471  12.781   9.874  1.5527  0.4540 -1.8750
60679SOL    HW289278   0.495  12.680   9.984 -1.6822  1.5181 -0.0805
60680SOL     OW89279  10.972   7.562   2.306  0.5117 -0.4718  0.0982
60680SOL    HW189280  11.021   7.480   2.299 -1.0225 -1.4035 -0.1435
60680SOL    HW289281  10.914   7.550   2.382 -0.7069 -0.1730 -0.7517
60681SOL     OW89282   5.687   6.374   9.959  0.1747 -0.6257  0.1164
60681SOL    HW189283   5.711   6.407   9.872 -1.3208 -1.8580 -0.8238
60681SOL    HW289284   5.764   6.326   9.988  0.8953  0.2669 -0.2688
60682SOL     OW89285   2.358   2.415   5.053 -0.0478  0.2494 -0.1441
60682SOL    HW189286   2.400   2.498   5.074  1.4547  0.3943 -3.1728
60682SOL    HW289287   2.383   2.356   5.125  1.3322  1.6308  0.5532
60683SOL     OW89288   4.234   4.218   5.089 -0.2464  0.4118 -0.4720
60683SOL    HW189289   4.309   4.235   5.032 -0.8520 -0.3113 -1.5230
60683SOL    HW289290   4.167   4.279   5.058 -0.6232 -0.0821 -0.6336
60684SOL     OW89291   9.002   9.257   5.040  0.4606  0.1055 -0.0807
60684SOL    HW189292   9.016   9.322   5.109 -0.2601  1.1627 -0.9024
60684SOL    HW289293   8.965   9.181   5.086 -0.8624  1.1106  0.6081
60685SOL     OW89294   6.012   5.521  11.753 -0.2782  0.3326  0.2604
60685SOL    HW189295   6.037   5.451  11.693 -0.9810 -0.8427  1.2879
60685SOL    HW289296   6.046   5.493  11.838 -0.5266  1.2717  0.6885
60686SOL     OW89297  10.325  10.708   6.377 -0.4135 -0.0892  0.3411
60686SOL    HW189298  10.360  10.745   6.458 -1.6271  0.3400  0.6880
60686SOL    HW289299  10.231  10.719   6.384 -0.5406  0.0006 -1.1673
60687SOL     OW89300  10.366  10.190   1.358  0.4496  0.6300  0.0059
60687SOL    HW189301  10.340  10.146   1.277 -0.3122  0.9975  0.0389
60687SOL    HW289302  10.354  10.123   1.426  0.2494  0.5852 -0.0720
60688SOL     OW89303   2.393  11.694  11.242 -0.7694  0.5134 -0.4739
60688SOL    HW189304   2.487  11.688  11.227  0.1551  0.7464  3.9029
60688SOL    HW289305   2.361  11.605  11.228  0.5352 -0.0604  0.0191
60689SOL     OW89306   4.034   6.978   7.029  0.1137  1.0496  0.3419
60689SOL    HW189307   4.072   7.066   7.025 -1.3183  1.8224  2.0513
60689SOL    HW289308   3.943   6.993   7.055 -0.1326 -0.9460  0.7634
60690SOL     OW89309   2.787   9.479   1.740 -0.2728  0.0077  0.2173
60690SOL    HW189310   2.814   9.424   1.666 -0.5482  1.3867 -0.9352
60690SOL    HW289311   2.703   9.515   1.715 -0.8890 -0.3283  1.6815
60691SOL     OW89312   3.755  10.386   6.056 -0.3136  0.0934 -0.3714
60691SOL    HW189313   3.756  10.399   6.151 -1.5752  1.4457 -0.5097
60691SOL    HW289314   3.819  10.449   6.022 -2.3518  2.1243 -0.6298
60692SOL     OW89315   5.691   4.758   4.700  0.0936  0.2603 -0.7884
60692SOL    HW189316   5.761   4.798   4.752  2.0897 -0.9413 -2.3798
60692SOL    HW289317   5.647   4.832   4.658  0.4003  1.0370  0.2234
60693SOL     OW89318   6.696   2.119   2.602 -0.4676 -0.0573 -0.7467
60693SOL    HW189319   6.644   2.178   2.657  1.0487 -0.0198  0.7158
60693SOL    HW289320   6.759   2.079   2.662  0.0809 -1.4022 -2.1476
60694SOL     OW89321   9.631   8.667   2.985  0.5288 -0.0741  0.0991
60694SOL    HW189322   9.536   8.674   2.988  0.5609  2.6639 -1.6997
60694SOL    HW289323   9.662   8.736   3.043  1.3642  0.3201 -0.7785
60695SOL     OW89324   5.118   9.092  10.937  0.0766  0.2565  0.5786
60695SOL    HW189325   5.111   8.996  10.929 -2.5304  0.4862 -1.0131
60695SOL    HW289326   5.144   9.121  10.850 -0.2397  1.0940  0.7613
60696SOL     OW89327   5.313   7.692   5.572  0.4646  0.0902 -0.6135
60696SOL    HW189328   5.357   7.650   5.646 -0.4636  0.9285  0.4435
60696SOL    HW289329   5.377   7.755   5.539  1.1671 -0.8170 -1.0306
60697SOL     OW89330  10.792   5.856   6.027 -0.2079  0.7040  0.3601
60697SOL    HW189331  10.777   5.792   5.958  1.5294  1.1510 -0.4849
60697SOL    HW289332  10.728   5.834   6.095  0.8387 -2.4549  0.4633
60698SOL     OW89333   6.285   0.666   2.117 -0.2219 -0.3570  0.2315
60698SOL    HW189334   6.251   0.676   2.029 -0.5839 -2.1556  0.1355
60698SOL    HW289335   6.294   0.571   2.130  0.0639 -0.1361  2.0243
60699SOL     OW89336   1.002   8.598  12.632  0.0822 -0.1895 -0.3850
60699SOL    HW189337   0.929   8.611  12.693 -0.2013 -0.0613 -0.7505
60699SOL    HW289338   1.056   8.531  12.674 -1.7034 -2.3637 -1.3909
60700SOL     OW89339  11.631  10.739   4.998 -0.1239  0.3151 -0.4827
60700SOL    HW189340  11.621  10.824   4.954 -0.0790 -0.0877 -1.2834
60700SOL    HW289341  11.546  10.724   5.039 -0.3689  0.4300 -0.9313
60701SOL     OW89342   2.573   6.374   2.470  0.2617  0.6301 -0.7719
60701SOL    HW189343   2.499   6.376   2.410 -0.4741  0.2474  0.0913
60701SOL    HW289344   2.534   6.359   2.556  1.2399  1.5601 -0.1230
60702SOL     OW89345   8.571   3.617   4.997 -0.3720 -0.1347 -0.3080
60702SOL    HW189346   8.652   3.665   4.978 -0.9021  0.4738 -1.0425
60702SOL    HW289347   8.594   3.525   4.981 -0.1364  0.1364 -1.6126
60703SOL     OW89348   3.611   8.283  11.679 -0.6300  0.2977  0.0833
60703SOL    HW189349   3.559   8.204  11.696 -1.1794  0.1974 -1.8725
60703SOL    HW289350   3.615   8.289  11.584 -1.4581  3.1797  0.1523
60704SOL     OW89351  12.167   0.939   0.884 -0.7577 -0.3714  0.0381
60704SOL    HW189352  12.127   1.026   0.880  1.2704  0.5517 -1.5854
60704SOL    HW289353  12.217   0.939   0.966  0.9070  0.8088 -0.9357
60705SOL     OW89354  10.369   4.640   3.575  0.1508 -0.0347  0.8488
60705SOL    HW189355  10.440   4.606   3.630  0.1045 -2.2196 -0.3607
60705SOL    HW289356  10.290   4.596   3.608 -0.3474  0.8579  0.8820
60706SOL     OW89357   3.908   8.354   6.849 -0.2841 -0.0732 -0.1525
60706SOL    HW189358   3.949   8.311   6.774  0.4825 -0.0571  0.2491
60706SOL    HW289359   3.977   8.411   6.884 -0.1415 -1.2175  1.4820
60707SOL     OW89360   4.324  12.591   2.533  0.1719 -0.3856  0.0795
60707SOL    HW189361   4.324  12.681   2.501  0.6852  0.0100  1.1465
60707SOL    HW289362   4.325  12.538   2.454  1.0045  0.5592 -0.5735
60708SOL     OW89363   1.683   9.058   7.161  0.1965 -0.0174 -0.2576
60708SOL    HW189364   1.762   9.036   7.112 -0.6576  0.1617 -1.7816
60708SOL    HW289365   1.647   9.135   7.116 -0.0246  0.8578  1.3559
60709SOL     OW89366  12.436   7.778   8.276  0.1810  0.1192 -0.2978
60709SOL    HW189367  12.459   7.685   8.265 -0.9924 -0.1666 -0.4576
60709SOL    HW289368  12.515   7.817   8.315  0.9548 -0.7913 -0.8842
60710SOL     OW89369  12.176  10.765   3.710 -0.4727  0.3175  0.4772
60710SOL    HW189370  12.225  10.824   3.654  1.1453 -2.4297 -1.2287
60710SOL    HW289371  12.102  10.817   3.741  0.3518  2.9145 -1.5654
60711SOL     OW89372   8.234   4.553   6.129  0.4189  0.5091  0.0169
60711SOL    HW189373   8.311   4.518   6.085  0.0785  1.1869 -1.1504
60711SOL    HW289374   8.270   4.620   6.189  0.7389  0.8182 -0.5133
60712SOL     OW89375   1.917   7.813   5.494  0.0554  0.3182 -0.1695
60712SOL    HW189376   1.971   7.885   5.463  0.1705 -0.1141 -1.0229
60712SOL    HW289377   1.943   7.799   5.585  2.2981 -0.6911 -0.9009
60713SOL     OW89378  10.103   9.013   1.135 -0.0340  0.2804 -0.2754
60713SOL    HW189379  10.016   8.992   1.101  0.5929 -2.1930 -0.5274
60713SOL    HW289380  10.114   8.954   1.209  1.1838  1.0192  0.1463
60714SOL     OW89381   9.307   9.278   8.938  0.0815 -0.0170 -0.5135
60714SOL    HW189382   9.273   9.363   8.910  1.0276  1.0593  1.3907
60714SOL    HW289383   9.243   9.247   9.002  0.5779  0.0346  0.0052
60715SOL     OW89384   1.479   0.187   4.585  0.5466 -0.0716  0.1843
60715SOL    HW189385   1.555   0.194   4.528 -0.3857  1.2320 -0.9699
60715SOL    HW289386   1.436   0.272   4.578 -1.4475 -1.0246  0.1750
60716SOL     OW89387   9.071   4.467   1.150 -0.1434  0.0833 -0.5287
60716SOL    HW189388   9.143   4.405   1.151  0.0913  0.3482  0.8183
60716SOL    HW289389   8.995   4.415   1.121  0.4919 -0.2790 -1.5794
60717SOL     OW89390   3.977   7.764   4.166  0.0833 -0.2053 -0.0660
60717SOL    HW189391   4.004   7.699   4.100  0.5904  2.1239 -2.3080
60717SOL    HW289392   4.050   7.827   4.169 -0.4277  0.3725  1.9650
60718SOL     OW89393  12.328   3.256   9.297 -0.0590 -0.4887  0.0013
60718SOL    HW189394  12.341   3.197   9.222 -1.5972 -0.0683 -0.6376
60718SOL    HW289395  12.234   3.273   9.297  0.2446  1.3310  0.6583
60719SOL     OW89396  12.494   5.183   1.636  0.1883 -0.4098 -0.5185
60719SOL    HW189397  12.581   5.154   1.610  0.3954 -0.7969  0.5846
60719SOL    HW289398  12.477   5.259   1.581  0.8523 -0.8535 -1.3626
60720SOL     OW89399   3.739   5.669   6.450  0.0836  0.3237  0.2709
60720SOL    HW189400   3.656   5.698   6.487 -0.2044 -1.5432  1.1822
60720SOL    HW289401   3.772   5.604   6.512  0.6430 -1.3545 -1.6651
60721SOL     OW89402   5.613  11.651   3.590 -0.3909  0.3091  0.4440
60721SOL    HW189403   5.564  11.569   3.581  1.3249 -0.6378 -0.8252
60721SOL    HW289404   5.546  11.719   3.591 -1.7687 -0.9817 -0.4035
60722SOL     OW89405   5.950   3.794   0.070  0.0078  0.2206  0.5622
60722SOL    HW189406   5.957   3.725   0.136  0.9272  1.9434  2.3681
60722SOL    HW289407   5.996   3.760  -0.006 -0.0940 -1.3815  1.1830
60723SOL     OW89408  10.330   6.795   0.425 -0.5306  0.4241  0.4944
60723SOL    HW189409  10.408   6.757   0.466  0.3695  0.7637 -0.8235
60723SOL    HW289410  10.354   6.805   0.333 -2.9144 -1.5266 -0.4659
60724SOL     OW89411   0.877   9.131  10.488  0.1036 -0.1746 -0.0121
60724SOL    HW189412   0.955   9.175  10.523 -0.1925  0.1131  0.2999
60724SOL    HW289413   0.901   9.038  10.485  0.4317 -0.0972  0.1485
60725SOL     OW89414  10.790   9.995  10.832 -0.3145 -0.3542 -0.2434
60725SOL    HW189415  10.875  10.019  10.795  1.2005  0.0273  3.0933
60725SOL    HW289416  10.794   9.900  10.843  0.5143 -0.1461  1.5794
60726SOL     OW89417   0.000  10.579   1.564  0.3820 -0.1389  0.0067
60726SOL    HW189418   0.038  10.590   1.477 -1.0157  2.2057 -0.3960
60726SOL    HW289419  -0.056  10.655   1.576 -2.1137 -2.0385  1.6157
60727SOL     OW89420   3.769   5.116   7.744 -0.7519 -0.0460  0.4684
60727SOL    HW189421   3.775   5.201   7.787  0.5179 -0.0643  0.3503
60727SOL    HW289422   3.790   5.052   7.812 -1.9485 -0.3087  0.6230
60728SOL     OW89423   3.347  12.107   0.801  0.3327 -0.6557 -0.0847
60728SOL    HW189424   3.347  12.174   0.733 -1.8896 -1.2808 -0.7710
60728SOL    HW289425   3.336  12.156   0.882  2.7684  0.0810 -0.1188
60729SOL     OW89426  11.491   9.231   1.974 -0.2069 -0.3455  0.1263
60729SOL    HW189427  11.515   9.150   1.930  0.3957 -1.0486  1.7029
60729SOL    HW289428  11.406   9.213   2.013  0.6664 -0.8507  1.9124
60730SOL     OW89429  12.519  12.224   8.823 -0.2783 -0.6449 -0.2931
60730SOL    HW189430  12.552  12.185   8.742  0.0188 -0.3412 -0.3177
60730SOL    HW289431  12.535  12.158   8.890  1.0797 -0.1901 -0.1611
60731SOL     OW89432  10.240   3.958   1.497 -0.4744  0.4662  0.1488
60731SOL    HW189433  10.198   3.989   1.578 -0.2346  2.4273 -0.4419
60731SOL    HW289434  10.183   3.989   1.427 -0.2742 -0.5636 -0.4826
60732SOL     OW89435   5.637   2.320   7.375  0.5250 -0.1154 -0.6086
60732SOL    HW189436   5.561   2.302   7.431 -0.5107  1.8904 -1.2469
60732SOL    HW289437   5.619   2.272   7.294  0.9186 -1.1958 -0.0777
60733SOL     OW89438   7.816   8.062  10.105 -0.1053 -0.2747  0.0064
60733SOL    HW189439   7.905   8.059  10.141 -0.0305  1.1583  0.0012
60733SOL    HW289440   7.774   8.135  10.152 -0.5214  0.5894 -1.6465
60734SOL     OW89441   3.259   9.856   7.184 -0.4171  0.2717  0.2026
60734SOL    HW189442   3.171   9.834   7.214 -0.8282  2.6715  0.9460
60734SOL    HW289443   3.263   9.820   7.095 -2.2863  0.4525  0.0070
60735SOL     OW89444   8.626   3.572   9.900 -0.1326 -0.4385  0.5101
60735SOL    HW189445   8.582   3.488   9.890 -1.1082  0.1064  0.0702
60735SOL    HW289446   8.588   3.609   9.980  0.4774 -0.5109  0.8439
60736SOL     OW89447  11.397   9.835   1.324  0.7391  0.5076 -0.7998
60736SOL    HW189448  11.326   9.814   1.263 -0.5882  0.7657  0.6046
60736SOL    HW289449  11.439   9.912   1.286  0.6276  0.0382 -1.9293
60737SOL     OW89450   1.508   3.965   1.432  0.1089 -0.1626 -0.0310
60737SOL    HW189451   1.414   3.983   1.429  0.0761 -0.4175 -0.6535
60737SOL    HW289452   1.530   3.970   1.525 -0.2551  1.2064 -0.0001
60738SOL     OW89453   8.338   9.735   9.163  0.2347  0.9988 -0.2778
60738SOL    HW189454   8.313   9.827   9.172  0.4670  1.2025 -1.5062
60738SOL    HW289455   8.365   9.726   9.071 -0.2764 -0.4186 -0.3184
60739SOL     OW89456  12.648  10.059   9.976  0.2599 -0.1449  0.4943
60739SOL    HW189457  12.702  10.102   9.910 -0.7655 -0.9373 -0.9132
60739SOL    HW289458  12.585  10.127  10.003  0.5729  0.1283  0.5439
60740SOL     OW89459   2.863   1.631  10.525 -0.8948  0.3390 -0.5101
60740SOL    HW189460   2.852   1.536  10.529 -0.2750  0.2259 -1.2577
60740SOL    HW289461   2.915   1.646  10.446 -0.2631  1.2370  0.0561
60741SOL     OW89462  10.424   5.278   2.213 -0.0928  0.0023 -0.0971
60741SOL    HW189463  10.457   5.243   2.130  0.5964  1.5835 -0.5324
60741SOL    HW289464  10.493   5.260   2.276  0.9391  1.7941 -0.6404
60742SOL     OW89465   3.608   0.199   8.793  0.0993 -0.5752  0.6414
60742SOL    HW189466   3.607   0.295   8.801 -0.0537 -0.5461  0.2946
60742SOL    HW289467   3.601   0.183   8.699 -1.3124 -0.9418  0.7784
60743SOL     OW89468   8.037   6.404   6.403 -0.2766 -0.4514 -0.2313
60743SOL    HW189469   8.016   6.357   6.322  0.9184 -0.8976 -0.3019
60743SOL    HW289470   8.129   6.384   6.419  0.2320  1.7077 -0.1580
60744SOL     OW89471   3.070   3.554   1.595  0.2250 -0.1342 -0.3576
60744SOL    HW189472   2.976   3.562   1.612 -0.1977 -1.8187 -1.6783
60744SOL    HW289473   3.098   3.479   1.647  0.5012 -0.5738 -1.1141
60745SOL     OW89474   6.902   0.227   0.758  0.1076 -0.2850  0.3847
60745SOL    HW189475   6.977   0.286   0.747 -1.7822  1.8180 -2.9029
60745SOL    HW289476   6.855   0.261   0.834  2.1255 -1.3867  2.2398
60746SOL     OW89477   7.833   0.142   4.534 -0.5610  0.8197 -0.3692
60746SOL    HW189478   7.797   0.227   4.511 -3.0091 -0.0807 -0.0833
60746SOL    HW289479   7.768   0.079   4.503  1.1131 -0.9610 -0.4453
60747SOL     OW89480   4.187  10.852   7.397  0.0179 -0.4811 -0.1692
60747SOL    HW189481   4.136  10.818   7.470  1.0621 -0.4011  0.6183
60747SOL    HW289482   4.212  10.774   7.347  0.9617 -0.7550  0.6800
60748SOL     OW89483  10.099   0.653   9.500  0.3836 -0.1908 -0.3027
60748SOL    HW189484  10.100   0.560   9.476 -1.8403 -0.1587 -0.7651
60748SOL    HW289485  10.050   0.656   9.582  0.9748  0.5217  0.0350
60749SOL     OW89486  11.789   2.635   2.935 -0.2309 -0.1210  0.5055
60749SOL    HW189487  11.844   2.655   3.011  0.8867  0.1434 -0.3497
60749SOL    HW289488  11.802   2.541   2.921  1.2010  0.2099 -0.5811
60750SOL     OW89489   7.416   7.570   8.580 -0.6861 -0.1682 -0.6928
60750SOL    HW189490   7.481   7.621   8.531  1.6445 -1.7153  0.5852
60750SOL    HW289491   7.376   7.633   8.640 -1.3883  1.0877 -2.4018
60751SOL     OW89492  11.569  11.609   7.686  0.5863  0.3492 -0.0733
60751SOL    HW189493  11.509  11.660   7.741 -1.9903 -0.6960 -1.6835
60751SOL    HW289494  11.575  11.524   7.730  2.9571  1.1609  1.3496
60752SOL     OW89495   7.984  11.687   0.684 -0.1341  0.2787 -0.0592
60752SOL    HW189496   7.890  11.679   0.669 -0.2030  1.0936 -0.1098
60752SOL    HW289497   7.993  11.765   0.740  0.3101 -1.1574  1.9907
60753SOL     OW89498   6.881   1.659   9.178 -0.5697  0.7390 -0.0049
60753SOL    HW189499   6.892   1.641   9.271 -0.3718 -0.9902 -0.3189
60753SOL    HW289500   6.966   1.638   9.140 -1.4726 -1.5715 -0.9430
60754SOL     OW89501   0.751   0.607   4.166 -0.3493 -0.1742  0.3725
60754SOL    HW189502   0.673   0.575   4.211 -0.0108  0.2861  1.3326
60754SOL    HW289503   0.784   0.532   4.117 -0.9392 -0.5938  0.6114
60755SOL     OW89504   9.942   5.080   5.223  0.2185  0.0500  0.0671
60755SOL    HW189505   9.965   4.987   5.229  2.1702  0.4230 -0.7278
60755SOL    HW289506   9.907   5.090   5.134 -0.2611  0.0328  0.2523
60756SOL     OW89507  10.633  10.926   6.729  0.3426  0.0007 -0.6910
60756SOL    HW189508  10.703  10.910   6.793  0.5085  0.5332 -0.7336
60756SOL    HW289509  10.567  10.974   6.779 -0.1547 -0.8095 -0.5594
60757SOL     OW89510   7.561   0.748   1.681 -0.0311 -0.1862  0.3203
60757SOL    HW189511   7.543   0.834   1.643 -0.8938 -0.9722 -1.1044
60757SOL    HW289512   7.480   0.725   1.727  0.6060  0.2442  1.7374
60758SOL     OW89513  11.033   3.681  10.350  0.2063  0.8141  0.3778
60758SOL    HW189514  10.941   3.672  10.325 -0.5011 -1.4326  3.1607
60758SOL    HW289515  11.071   3.739  10.284 -2.6144 -0.0585 -2.2355
60759SOL     OW89516   7.316   0.399   7.328  0.1263 -0.3882  0.5203
60759SOL    HW189517   7.408   0.422   7.338 -0.4894  2.9806 -0.2781
60759SOL    HW289518   7.317   0.324   7.268  2.3112 -0.2544  0.2896
60760SOL     OW89519   8.749  10.263   1.427  0.2416 -0.1354 -0.0134
60760SOL    HW189520   8.660  10.286   1.455  1.1465  2.6863  0.9653
60760SOL    HW289521   8.739  10.229   1.339 -1.6246  3.1372 -1.2440
60761SOL     OW89522   3.221   3.413   2.775 -0.0325  0.6913 -0.6438
60761SOL    HW189523   3.168   3.364   2.712 -1.0289  1.4059 -0.3793
60761SOL    HW289524   3.293   3.353   2.797 -0.3388 -0.0284 -1.5306
60762SOL     OW89525   2.197  10.771   0.081  0.0077 -0.3224 -0.6696
60762SOL    HW189526   2.282  10.798   0.114 -0.2574  0.6127 -0.7455
60762SOL    HW289527   2.169  10.701   0.141  0.0111  0.6176  0.4609
60763SOL     OW89528   8.244   4.850  12.579  0.3102 -0.0390 -0.1189
60763SOL    HW189529   8.213   4.764  12.607 -0.5750 -0.2505 -1.6481
60763SOL    HW289530   8.186   4.912  12.623  1.0665 -0.1829  1.1333
60764SOL     OW89531   5.700  10.436   9.812  0.4537  0.0551  0.0311
60764SOL    HW189532   5.685  10.380   9.735 -0.5398 -1.4869  1.2736
60764SOL    HW289533   5.792  10.462   9.805  1.4871 -3.0828  0.1403
60765SOL     OW89534  12.185   3.199   0.974  0.0501  0.2374  0.0074
60765SOL    HW189535  12.126   3.210   0.900  0.2840  2.2336  0.0612
60765SOL    HW289536  12.128   3.171   1.046 -0.2945 -0.9595 -0.7026
60766SOL     OW89537   5.952   6.363   2.627  0.0281  0.0219  0.1715
60766SOL    HW189538   5.959   6.425   2.699 -1.0414 -0.9580  1.1515
60766SOL    HW289539   6.009   6.399   2.559 -1.3016  2.5840  0.3147
60767SOL     OW89540   9.574   1.488  10.751 -0.1981  0.1283  0.1072
60767SOL    HW189541   9.644   1.553  10.753 -0.8276  0.8724 -0.8118
60767SOL    HW289542   9.609   1.418  10.696  0.5137 -0.3586  1.1646
60768SOL     OW89543   7.344   2.223   6.680 -0.6317  0.0644  0.0231
60768SOL    HW189544   7.403   2.162   6.726  1.2093  0.7533 -1.3010
60768SOL    HW289545   7.403   2.279   6.629 -2.3935  1.6602 -0.3571
60769SOL     OW89546  12.531  11.615  12.063 -0.2418  0.2101 -0.5434
60769SOL    HW189547  12.538  11.604  11.968 -0.1690  0.9654 -0.6336
60769SOL    HW289548  12.484  11.537  12.093  1.5754 -1.0912 -0.9292
60770SOL     OW89549   7.122   1.003   9.046  0.1369 -0.0266  0.6047
60770SOL    HW189550   7.100   0.924   9.096 -1.4134  0.5548  0.9120
60770SOL    HW289551   7.209   1.027   9.076  0.7525 -1.7442  0.3247
60771SOL     OW89552   0.542   1.918   0.384 -0.0819  0.1047  0.5105
60771SOL    HW189553   0.625   1.960   0.360 -0.9207 -0.1965 -3.5519
60771SOL    HW289554   0.501   1.980   0.444  2.7328  0.5192  2.2273
60772SOL     OW89555  11.879   4.536   8.240  0.0014 -0.1477  0.2572
60772SOL    HW189556  11.881   4.537   8.336 -1.9862 -0.7354  0.3394
60772SOL    HW289557  11.849   4.448   8.218 -2.6446  0.9179 -0.7724
60773SOL     OW89558   9.351   7.060   9.202  0.2947 -0.1019  0.1881
60773SOL    HW189559   9.321   7.054   9.293  0.4063 -2.2385  0.1466
60773SOL    HW289560   9.444   7.037   9.206  0.0957 -1.1063 -0.5455
60774SOL     OW89561  12.181   4.091   8.551 -0.1260 -0.3438  0.0372
60774SOL    HW189562  12.155   4.171   8.504  0.3427  0.3277  0.8915
60774SOL    HW289563  12.182   4.117   8.643  2.3828 -0.6476  0.1535
60775SOL     OW89564   2.322   7.431  10.588  0.0166 -0.0509 -0.3450
60775SOL    HW189565   2.365   7.474  10.662  1.7073 -0.6978 -0.9002
60775SOL    HW289566   2.229   7.430  10.611  0.3283  1.0386  1.0976
60776SOL     OW89567   4.407   9.677   8.449 -0.3948  0.4154  0.0447
60776SOL    HW189568   4.321   9.704   8.418 -0.2145  1.0932  0.1113
60776SOL    HW289569   4.413   9.584   8.427 -1.2149  0.3179  0.2152
60777SOL     OW89570   4.558   8.809   4.683  0.1179 -0.3947  0.5539
60777SOL    HW189571   4.490   8.872   4.704 -0.0858 -0.2127 -0.5776
60777SOL    HW289572   4.635   8.840   4.730 -0.0967  0.4451  0.3688
60778SOL     OW89573   1.799   7.447   6.789  0.0406 -0.2172  0.1187
60778SOL    HW189574   1.841   7.495   6.718 -0.1058 -1.2427 -0.6961
60778SOL    HW289575   1.779   7.361   6.751 -0.6460 -0.5611  1.2047
60779SOL     OW89576  10.216   8.503   4.150 -0.1498 -0.3788  0.2321
60779SOL    HW189577  10.232   8.506   4.056  0.0808  0.4931  0.2848
60779SOL    HW289578  10.187   8.414   4.167  1.6251 -1.1122 -0.3702
60780SOL     OW89579   0.663   8.471   5.672 -0.0269 -0.0448  0.0400
60780SOL    HW189580   0.630   8.540   5.730  1.4256  0.6955  0.0113
60780SOL    HW289581   0.758   8.481   5.674  0.1666 -1.5409 -0.6102
60781SOL     OW89582   3.735   5.422   8.899  0.2311  0.0135 -0.3743
60781SOL    HW189583   3.744   5.498   8.842 -3.0632  1.0933  0.3465
60781SOL    HW289584   3.814   5.424   8.954 -0.2130  3.6115  0.3941
60782SOL     OW89585   8.254   5.115   4.359 -0.0875  0.1080  0.2866
60782SOL    HW189586   8.338   5.072   4.369  0.0295  0.2293 -0.1466
60782SOL    HW289587   8.258   5.191   4.417 -0.0435 -0.0887  0.5449
60783SOL     OW89588  11.850  10.645   2.276  0.0230 -0.3247 -0.1103
60783SOL    HW189589  11.770  10.615   2.321  1.6754 -1.4036  2.3406
60783SOL    HW289590  11.841  10.610   2.187 -1.5209 -1.8143  0.5597
60784SOL     OW89591   2.541   5.613   1.449 -0.4371 -0.1717 -0.4061
60784SOL    HW189592   2.594   5.690   1.468  1.3578 -1.5949  0.7204
60784SOL    HW289593   2.457   5.630   1.492  0.4421  0.5548  1.1137
60785SOL     OW89594   4.231   5.640   2.146 -0.1571 -0.5102 -0.1026
60785SOL    HW189595   4.171   5.680   2.209  1.5555  0.2069  1.1192
60785SOL    HW289596   4.300   5.601   2.199  0.7942 -0.8001 -1.5090
60786SOL     OW89597   7.631   3.501   3.752  0.1038 -0.5750  0.4523
60786SOL    HW189598   7.723   3.526   3.745  0.5182 -2.2177 -0.4872
60786SOL    HW289599   7.588   3.543   3.678 -0.0317  0.6084  1.1771
60787SOL     OW89600   8.512   9.392   9.340 -0.1332 -0.0734  0.9233
60787SOL    HW189601   8.543   9.397   9.250  0.2314 -0.3780  1.0304
60787SOL    HW289602   8.494   9.483   9.364  1.7721  0.2561  1.2293
60788SOL     OW89603   0.456  10.593   5.705  0.3377 -0.1504 -0.0372
60788SOL    HW189604   0.532  10.600   5.648  0.8271 -1.2001  0.4605
60788SOL    HW289605   0.472  10.658   5.774  0.5546 -0.0487 -0.1821
60789SOL     OW89606  12.525   1.634   5.045  0.3072  0.0138 -0.1286
60789SOL    HW189607  12.527   1.540   5.066  2.3928 -0.2136 -1.1091
60789SOL    HW289608  12.617   1.657   5.031 -0.2963  1.8844 -1.3266
60790SOL     OW89609   9.037  10.090   8.204  0.0280  0.0753  0.8811
60790SOL    HW189610   8.975  10.137   8.149  1.5434  0.8805 -0.2179
60790SOL    HW289611   9.082  10.029   8.145  0.1888 -0.5912  1.6730
60791SOL     OW89612   5.650   4.611   0.457 -0.3834  0.5568  0.0392
60791SOL    HW189613   5.636   4.670   0.383  1.2033 -2.7385 -3.2177
60791SOL    HW289614   5.745   4.599   0.459 -0.5828 -1.0451  1.2662
60792SOL     OW89615   3.294  12.432   3.570 -0.0913  0.3001  0.1749
60792SOL    HW189616   3.277  12.338   3.574 -0.7206  0.3495 -0.8215
60792SOL    HW289617   3.216  12.469   3.528  1.4317  0.8361 -2.4622
60793SOL     OW89618   5.581   8.333   3.533  0.0519  0.3000 -0.4306
60793SOL    HW189619   5.502   8.376   3.502  1.1055  2.0405 -0.8651
60793SOL    HW289620   5.646   8.351   3.465  1.4051  0.8604  0.9565
60794SOL     OW89621  12.174  11.269   2.096 -0.3623 -0.8169 -0.2920
60794SOL    HW189622  12.172  11.319   2.014 -0.8454  0.1603  0.3046
60794SOL    HW289623  12.236  11.316   2.151 -0.4559 -1.1567  0.1029
60795SOL     OW89624   9.910   2.956   3.114 -0.1347 -0.7020  0.3495
60795SOL    HW189625   9.869   2.873   3.135 -0.9945 -0.1605  0.8771
60795SOL    HW289626   9.937   2.947   3.023 -1.2271 -1.1587  0.0603
60796SOL     OW89627   7.678   0.822   9.931 -0.2977 -0.1320 -0.1544
60796SOL    HW189628   7.643   0.751   9.985 -0.1292 -1.4060 -1.6770
60796SOL    HW289629   7.667   0.792   9.841  0.2008  1.5865 -0.8274
60797SOL     OW89630   2.146   6.899   2.114 -0.4229 -0.1746  0.0702
60797SOL    HW189631   2.070   6.868   2.065  1.1376 -1.0543 -1.9299
60797SOL    HW289632   2.190   6.959   2.054  0.9794 -0.4246  0.8023
60798SOL     OW89633   9.968   9.554   3.222 -0.0780 -0.0039 -0.7801
60798SOL    HW189634   9.995   9.641   3.255 -0.0074 -0.5102  0.5637
60798SOL    HW289635   9.952   9.503   3.301  0.6433 -1.4620 -1.5382
60799SOL     OW89636   2.269  10.484   4.038  0.4053 -0.1154 -0.5330
60799SOL    HW189637   2.193  10.526   3.996 -1.9109 -3.6294 -0.3056
60799SOL    HW289638   2.321  10.452   3.965  0.4037  0.2261 -0.6890
60800SOL     OW89639   6.277   9.577   9.773  0.4155 -0.2157 -0.0314
60800SOL    HW189640   6.188   9.612   9.783  1.4522  2.5303  0.4377
60800SOL    HW289641   6.302   9.549   9.860  0.1399 -0.6757 -0.0987
60801SOL     OW89642   5.131  10.378   1.080  0.5478  0.0550 -0.5175
60801SOL    HW189643   5.213  10.394   1.126  2.1432  0.8643 -3.3465
60801SOL    HW289644   5.084  10.316   1.135  1.8212  1.5908  2.5406
60802SOL     OW89645   3.631   7.977   0.596  0.5126  0.2519 -0.6703
60802SOL    HW189646   3.649   7.924   0.673  0.4653 -1.3270 -1.7073
60802SOL    HW289647   3.648   8.067   0.624 -2.0740  0.0644  1.9816
60803SOL     OW89648  11.968   1.023  11.589 -0.4933  0.3947 -0.9394
60803SOL    HW189649  11.909   1.095  11.565 -1.1853 -0.1207 -0.8099
60803SOL    HW289650  12.055   1.054  11.563 -0.6898  1.5569 -0.2671
60804SOL     OW89651   1.836   7.953   6.287  0.1715 -0.2588 -0.4603
60804SOL    HW189652   1.744   7.979   6.283 -0.3007 -1.9197 -1.2370
60804SOL    HW289653   1.859   7.933   6.196  0.7584 -1.6109 -0.0305
60805SOL     OW89654   7.477   7.803  11.145 -0.3475  0.2073  0.1787
60805SOL    HW189655   7.470   7.883  11.196 -1.8069 -0.5628  1.2591
60805SOL    HW289656   7.553   7.817  11.088  0.3718  1.7165  1.4518
60806SOL     OW89657   3.859   5.565   7.745 -0.3324 -0.2122  1.1041
60806SOL    HW189658   3.821   5.636   7.694 -1.1347 -0.9066  0.7085
60806SOL    HW289659   3.868   5.600   7.833 -0.9338  0.3052  0.9650
60807SOL     OW89660   3.778   5.096   4.510 -0.2324  0.2767  0.0871
60807SOL    HW189661   3.801   5.178   4.466  2.1372  1.0379  2.4383
60807SOL    HW289662   3.693   5.113   4.549  1.1767  2.6770  2.5086
60808SOL     OW89663  11.423  12.069  11.244 -0.1583  0.3079  0.0993
60808SOL    HW189664  11.379  12.016  11.179 -0.0805  0.0269  0.2731
60808SOL    HW289665  11.386  12.040  11.328  2.0442 -1.6836  0.4992
60809SOL     OW89666   4.075   6.627  11.929 -0.1405 -0.2393 -0.0312
60809SOL    HW189667   3.992   6.675  11.933  0.2955  0.4910  0.4703
60809SOL    HW289668   4.053   6.539  11.960 -0.5901  0.1553  0.8152
60810SOL     OW89669  12.710  12.667   5.763  0.6111  0.6232 -0.2067
60810SOL    HW189670  12.736  12.727   5.693  1.6414  0.7332  0.2413
60810SOL    HW289671  12.624  12.635   5.737  1.0887  0.4492 -1.6706
60811SOL     OW89672   9.767   4.667   6.843 -0.6338 -0.6012 -0.1467
60811SOL    HW189673   9.745   4.704   6.928  0.0488 -0.7014  0.0847
60811SOL    HW289674   9.752   4.573   6.853 -0.2716 -0.6500 -0.0384
60812SOL     OW89675   1.419   9.305  10.936  0.1855  0.1075  0.0821
60812SOL    HW189676   1.491   9.348  10.983 -1.3671  1.1221  1.6369
60812SOL    HW289677   1.390   9.236  10.996  0.6585 -1.1525 -1.0894
60813SOL     OW89678   0.278   1.339   9.114 -0.5572  0.3151  0.1380
60813SOL    HW189679   0.185   1.325   9.134 -0.4521 -0.0394  0.3845
60813SOL    HW289680   0.285   1.324   9.020 -0.7158  0.1505  0.1521
60814SOL     OW89681   9.366   5.888   6.388 -0.4728 -0.0931 -0.2280
60814SOL    HW189682   9.287   5.861   6.436 -0.0187  0.9597  1.1814
60814SOL    HW289683   9.351   5.856   6.299 -2.3069 -0.2794  0.0914
60815SOL     OW89684   5.736   7.256  11.580  0.1589 -0.4720 -0.3386
60815SOL    HW189685   5.674   7.295  11.641  0.9390 -0.2872  0.3491
60815SOL    HW289686   5.731   7.162  11.597  1.7572 -0.2985  1.3981
60816SOL     OW89687   9.686   3.738   4.617 -0.6441 -0.0659  0.0142
60816SOL    HW189688   9.678   3.647   4.645 -0.8023 -0.0221  0.1114
60816SOL    HW289689   9.596   3.772   4.616 -0.7425 -0.3089 -1.3866
60817SOL     OW89690   9.345   4.511  10.217  0.0083  0.0223 -0.0205
60817SOL    HW189691   9.393   4.591  10.199 -1.7442  1.2567  0.5836
60817SOL    HW289692   9.406   4.457  10.268  1.2579  0.8815 -0.5782
60818SOL     OW89693  10.088   5.541   4.943  0.0223  0.2287 -0.3243
60818SOL    HW189694  10.011   5.484   4.933  1.0474 -1.3420  0.3689
60818SOL    HW289695  10.053   5.620   4.986 -1.0438 -0.9095  1.0061
60819SOL     OW89696   7.071   0.824   9.812 -0.4648 -0.2997 -0.2138
60819SOL    HW189697   7.058   0.837   9.718 -0.7732  0.3935 -0.0864
60819SOL    HW289698   7.012   0.752   9.835 -1.6331  0.6120 -0.2609
60820SOL     OW89699   1.087   6.146  10.410  0.4741 -0.5894  0.2115
60820SOL    HW189700   1.011   6.108  10.455 -0.2032  0.1754 -0.2657
60820SOL    HW289701   1.060   6.153  10.319  0.4323  1.3639  0.3365
60821SOL     OW89702   9.673   5.762   2.538 -0.6431 -0.3583 -0.2499
60821SOL    HW189703   9.588   5.727   2.562 -0.1321 -1.0650  0.6101
60821SOL    HW289704   9.721   5.687   2.503  0.1418 -0.3360  0.7225
60822SOL     OW89705  10.465   9.182   2.701  0.6436 -0.1210  0.6299
60822SOL    HW189706  10.478   9.159   2.793  0.9117  0.7663  0.8252
60822SOL    HW289707  10.384   9.137   2.676 -0.3827  0.9810  1.7973
60823SOL     OW89708   4.720   0.311   1.602 -0.8167 -0.5557 -0.6701
60823SOL    HW189709   4.699   0.230   1.557  1.7187 -0.2597 -2.6258
60823SOL    HW289710   4.696   0.380   1.541 -0.4312  0.0203 -0.1871
60824SOL     OW89711  10.627   7.460   7.781  0.0050  0.3461  0.2063
60824SOL    HW189712  10.563   7.397   7.750  1.6268 -1.5289  0.4762
60824SOL    HW289713  10.709   7.433   7.740  1.2753  0.6326  2.3777
60825SOL     OW89714   2.930   2.396   2.141 -0.1856  0.0613 -0.4559
60825SOL    HW189715   2.940   2.301   2.149 -0.3787  0.1691  1.3729
60825SOL    HW289716   2.848   2.416   2.185 -1.3802  0.8587 -2.8696
60826SOL     OW89717   3.224   6.304   7.881  0.6003 -0.6440 -0.1544
60826SOL    HW189718   3.220   6.332   7.972 -0.2447 -1.1780 -0.0155
60826SOL    HW289719   3.310   6.262   7.873  0.5890 -0.7912  0.4568
60827SOL     OW89720   6.953   8.506   3.322 -0.0359 -0.2830 -0.2797
60827SOL    HW189721   6.867   8.465   3.320  0.0966 -0.5521 -1.4443
60827SOL    HW289722   6.955   8.555   3.404 -1.2787 -0.2912 -0.2259
60828SOL     OW89723   0.198   7.711   4.484  0.2918 -0.1164 -0.0340
60828SOL    HW189724   0.266   7.763   4.527  1.4459 -0.9128 -0.8133
60828SOL    HW289725   0.187   7.635   4.541  0.0969 -0.0109  0.0672
60829SOL     OW89726   4.782   3.360   2.590  0.7459 -0.0310 -0.0356
60829SOL    HW189727   4.743   3.391   2.672 -0.2825  1.0359 -0.8903
60829SOL    HW289728   4.846   3.427   2.568 -0.1903  0.5915 -0.9543
60830SOL     OW89729  12.580   2.504   0.542  0.2869  0.3863 -0.7261
60830SOL    HW189730  12.538   2.420   0.525  0.3722  0.4435 -1.2264
60830SOL    HW289731  12.508   2.563   0.563  0.2533  0.1093 -0.0287
60831SOL     OW89732  12.029  10.926   8.841  0.2317 -0.6450  0.6164
60831SOL    HW189733  12.065  10.883   8.763  0.0810 -0.4037  0.4092
60831SOL    HW289734  11.994  11.008   8.808 -0.0163 -0.6326  0.9101
60832SOL     OW89735   3.229   5.724   2.111  0.1069  0.2050  0.5151
60832SOL    HW189736   3.239   5.714   2.017  2.4328  0.3427  0.6876
60832SOL    HW289737   3.213   5.818   2.124  2.6888  0.7165  0.3896
60833SOL     OW89738   0.914   0.322  10.213  0.6603  0.0332  0.1044
60833SOL    HW189739   0.882   0.261  10.146  0.2462 -0.5908  0.8470
60833SOL    HW289740   0.986   0.275  10.255  1.3579  0.6911 -0.3327
60834SOL     OW89741   4.289   9.923   8.321 -0.0462  0.1748  0.2813
60834SOL    HW189742   4.285   9.966   8.236 -0.3223 -1.5998 -0.6616
60834SOL    HW289743   4.365   9.864   8.314 -1.2305 -1.4570  0.4819
60835SOL     OW89744   0.017  11.521   5.798 -0.3566 -0.2143 -0.2728
60835SOL    HW189745  -0.045  11.594   5.792  1.1811  1.0641 -1.5880
60835SOL    HW289746   0.003  11.471   5.718  0.1806 -0.0156 -0.4942
60836SOL     OW89747   5.601  11.084   5.936 -0.0249  0.0651 -0.1576
60836SOL    HW189748   5.620  11.177   5.945  1.4378 -0.3407  1.4070
60836SOL    HW289749   5.671  11.051   5.879 -1.5009  0.1635 -2.1486
60837SOL     OW89750   5.104   1.634  11.478  0.0852  0.4395 -0.1509
60837SOL    HW189751   5.124   1.613  11.569 -1.1920 -3.1956 -0.5316
60837SOL    HW289752   5.187   1.621  11.432  0.3675  0.7359  0.2658
60838SOL     OW89753   4.820   2.783   1.291 -0.2926 -0.2550  0.2217
60838SOL    HW189754   4.769   2.739   1.359 -0.1597 -0.7346  0.0183
60838SOL    HW289755   4.909   2.751   1.303 -0.2348 -0.2062 -0.0606
60839SOL     OW89756   8.646  10.011   0.107  0.4654  0.2236  0.0958
60839SOL    HW189757   8.648  10.065   0.186 -0.5023 -1.5322  1.3869
60839SOL    HW289758   8.693   9.931   0.131 -1.5819 -1.2029 -0.3611
60840SOL     OW89759   1.992   1.839   9.140 -0.0233  0.4038 -0.0340
60840SOL    HW189760   1.970   1.773   9.206  0.9639 -0.3283 -0.4359
60840SOL    HW289761   1.907   1.863   9.102 -0.3559 -0.9042 -0.1584
60841SOL     OW89762  11.320   3.569   9.000 -0.3401  0.3720 -0.5846
60841SOL    HW189763  11.274   3.615   9.071  0.5524  0.2709  0.0836
60841SOL    HW289764  11.396   3.531   9.043 -1.9657 -3.4092 -0.6717
60842SOL     OW89765  10.878   5.204   4.711 -0.4815  0.1345  0.8241
60842SOL    HW189766  10.940   5.142   4.674 -0.4571  1.0221 -0.7160
60842SOL    HW289767  10.793   5.161   4.701 -0.6174  0.7951 -1.4028
60843SOL     OW89768   3.598   9.028   3.083  0.0066  0.0380  0.2369
60843SOL    HW189769   3.673   8.985   3.042 -0.0046  0.0503  0.2038
60843SOL    HW289770   3.522   9.000   3.031  0.0649  0.5457 -0.1341
60844SOL     OW89771  11.000  12.054   1.274 -0.2112  0.2373  0.3480
60844SOL    HW189772  11.028  12.019   1.359 -1.1646  0.1274  0.6299
60844SOL    HW289773  10.975  11.977   1.223 -0.3989  0.3625  0.2502
60845SOL     OW89774   6.058   7.072  10.191 -0.6068 -0.4340  0.4826
60845SOL    HW189775   6.079   7.005  10.256 -1.2280 -0.5140  0.6086
60845SOL    HW289776   6.008   7.026  10.124  2.0597 -0.9040 -1.3410
60846SOL     OW89777   4.499   7.861   7.814  0.2975  0.5364  0.0370
60846SOL    HW189778   4.585   7.902   7.826  0.8607 -0.2648 -1.0673
60846SOL    HW289779   4.476   7.828   7.900  0.4409  1.9879  0.6574
60847SOL     OW89780   7.471   4.834   4.199  0.2318 -0.2985  0.3912
60847SOL    HW189781   7.398   4.850   4.259 -0.9809  3.1136 -1.6983
60847SOL    HW289782   7.435   4.775   4.133  0.4507 -1.2254  1.0818
60848SOL     OW89783  12.404  12.568   9.554  0.1715  0.0140  0.0536
60848SOL    HW189784  12.361  12.654   9.560  0.4058  0.0704  1.1651
60848SOL    HW289785  12.491  12.587   9.519  0.3621  0.2930  0.6621
60849SOL     OW89786   9.210   3.754   5.324  0.3699  0.1867 -0.1124
60849SOL    HW189787   9.129   3.786   5.362  0.5368  1.6451 -0.9217
60849SOL    HW289788   9.259   3.719   5.399 -0.1984  1.0362  0.6794
60850SOL     OW89789   1.168   8.534   9.319  0.1823 -0.2591  0.3462
60850SOL    HW189790   1.174   8.449   9.363  0.6110  0.0297  0.8627
60850SOL    HW289791   1.080   8.535   9.282 -0.9228  0.2191  2.7563
60851SOL     OW89792   0.739   9.634   6.563  0.0695 -0.6935 -0.1379
60851SOL    HW189793   0.693   9.654   6.645  2.1230  0.6372  0.7669
60851SOL    HW289794   0.774   9.546   6.575  1.1574 -0.1531  0.8545
60852SOL     OW89795  12.536   8.359   5.094  0.0233 -0.0589  0.0841
60852SOL    HW189796  12.482   8.338   5.018 -0.6679  1.1761  0.1972
60852SOL    HW289797  12.473   8.374   5.164  0.5862  0.0821  0.5652
60853SOL     OW89798   2.216   5.711   5.748  0.1571  0.1352 -0.1993
60853SOL    HW189799   2.308   5.700   5.725  0.5545  1.1356  0.8135
60853SOL    HW289800   2.198   5.804   5.733  0.1538  0.6179  2.3287
60854SOL     OW89801   0.230   7.594   0.206 -0.0808 -0.3359  0.3494
60854SOL    HW189802   0.154   7.580   0.262 -0.5339 -0.3554 -0.2598
60854SOL    HW289803   0.295   7.635   0.263 -0.7622  0.2241  0.7277
60855SOL     OW89804  10.062   1.044   1.088 -0.0373 -0.4142  0.1034
60855SOL    HW189805  10.013   1.126   1.096 -0.0656 -0.2884 -1.2038
60855SOL    HW289806  10.151   1.071   1.068  0.2869 -0.6813  1.1289
60856SOL     OW89807  12.619   6.969   5.588 -0.0113 -0.9366 -0.1350
60856SOL    HW189808  12.608   6.940   5.498  1.0252  1.1040 -0.9733
60856SOL    HW289809  12.712   6.956   5.606  0.2033  0.5741 -0.0878
60857SOL     OW89810   1.923   9.903  10.308 -0.4652  0.6786 -0.2502
60857SOL    HW189811   1.910   9.872  10.218 -1.9919 -0.0348  0.1867
60857SOL    HW289812   2.004   9.954  10.304 -0.2265  0.2329 -1.9167
60858SOL     OW89813   0.455   5.506   1.035 -0.0533  0.6754  0.4943
60858SOL    HW189814   0.550   5.519   1.027  0.2020 -1.0485  0.4445
60858SOL    HW289815   0.417   5.584   0.994  1.3362  0.9697 -0.2921
60859SOL     OW89816   5.815   3.070   2.510  0.1260  0.0061 -0.0121
60859SOL    HW189817   5.795   3.152   2.556  0.2730 -0.0445  0.1472
60859SOL    HW289818   5.798   3.088   2.418 -0.6378 -0.0376  0.1192
60860SOL     OW89819   5.517  11.971  12.068 -0.3896 -0.1073  0.4184
60860SOL    HW189820   5.502  12.065  12.060 -0.7117 -0.1758  0.2045
60860SOL    HW289821   5.483  11.934  11.987  0.7327 -0.3006  0.0129
60861SOL     OW89822   0.384  10.077   5.232  0.0004  0.4773  0.5103
60861SOL    HW189823   0.478  10.062   5.224 -0.4210 -2.1824 -1.0355
60861SOL    HW289824   0.352  10.000   5.279 -1.5547  0.4710 -0.4768
60862SOL     OW89825   3.423  11.452   0.866  0.2055 -0.3895 -0.1188
60862SOL    HW189826   3.336  11.418   0.842  0.0242  0.4891 -0.7337
60862SOL    HW289827   3.484  11.389   0.828 -0.1405 -0.3737 -0.7203
60863SOL     OW89828   5.288  10.541   7.025  0.2411 -0.0832 -0.4523
60863SOL    HW189829   5.303  10.618   7.080  0.0963 -0.5955  0.3213
60863SOL    HW289830   5.343  10.474   7.063 -0.3670 -0.6354 -0.5308
60864SOL     OW89831   2.045   2.234   5.325  0.5419 -0.9695 -0.2935
60864SOL    HW189832   2.082   2.207   5.241 -0.1636 -0.8092 -0.6686
60864SOL    HW289833   1.952   2.247   5.306  0.3492 -1.0859  0.5530
60865SOL     OW89834  11.616   4.133   1.089  0.3274  0.0790  0.4605
60865SOL    HW189835  11.603   4.135   0.994  0.6826  0.4930  0.4178
60865SOL    HW289836  11.626   4.040   1.110  3.3294  0.1341 -0.3452
60866SOL     OW89837   1.176   3.764  12.419 -0.9907  0.0102  0.0902
60866SOL    HW189838   1.238   3.722  12.478  0.2338  2.9777  1.0595
60866SOL    HW289839   1.090   3.747  12.458 -0.6616 -2.1204  0.0129
60867SOL     OW89840   4.927  11.465  11.963  0.3958  0.2008  0.7936
60867SOL    HW189841   4.916  11.385  11.912  0.4176  0.4312  0.4272
60867SOL    HW289842   5.021  11.473  11.978  0.9949  2.4297 -2.8905
60868SOL     OW89843   7.784  11.039   6.591  0.3310 -0.2117  0.3124
60868SOL    HW189844   7.691  11.059   6.581  0.4198 -0.6162 -1.7270
60868SOL    HW289845   7.821  11.051   6.503  1.8154 -1.9014  0.6372
60869SOL     OW89846   9.119   0.832  12.223 -0.9532 -0.2437 -0.2178
60869SOL    HW189847   9.047   0.851  12.283 -1.5668 -1.1938 -0.6364
60869SOL    HW289848   9.085   0.852  12.136  0.1344  1.7331 -0.2555
60870SOL     OW89849   4.839   6.087   8.758  0.4658 -0.3144 -0.4007
60870SOL    HW189850   4.871   6.153   8.820  0.1496 -0.4314 -0.1133
60870SOL    HW289851   4.889   6.008   8.779 -0.1136 -0.5398  0.1487
60871SOL     OW89852   2.118   8.019  12.097  0.6164  0.3818 -0.8861
60871SOL    HW189853   2.138   8.101  12.051  0.3784  0.9043 -0.0855
60871SOL    HW289854   2.143   7.950  12.035  2.0923  1.0332 -1.0795
60872SOL     OW89855   4.632   2.381  11.646  0.1986 -0.0479  0.3510
60872SOL    HW189856   4.643   2.285  11.649 -0.0291 -0.1075 -0.6164
60872SOL    HW289857   4.541   2.395  11.672  0.1454 -0.1160  0.2043
60873SOL     OW89858  11.346   9.375   1.277  0.4766  0.2011  0.5131
60873SOL    HW189859  11.272   9.319   1.301  0.0948  1.0386  1.3339
60873SOL    HW289860  11.335   9.389   1.182 -0.8009  0.8363  0.7325
60874SOL     OW89861   8.098  10.919   1.960  0.2560 -0.9783 -0.4445
60874SOL    HW189862   8.039  10.972   1.907 -0.5537  1.5792  2.7116
60874SOL    HW289863   8.047  10.840   1.979  0.1209 -1.4079 -2.3679
60875SOL     OW89864   8.336   3.741   9.548 -0.3786  0.2131  0.2597
60875SOL    HW189865   8.397   3.742   9.623  1.1273 -1.0836 -0.8557
60875SOL    HW289866   8.278   3.667   9.566 -0.9303  0.7610  0.7872
60876SOL     OW89867   4.852   8.489   3.497 -0.2391 -0.6604  0.2749
60876SOL    HW189868   4.941   8.455   3.482  0.6664  1.7133 -0.1276
60876SOL    HW289869   4.866   8.577   3.533 -2.4081 -1.6781  4.2192
60877SOL     OW89870   1.619   6.418   7.861 -0.2200  0.2298  0.0063
60877SOL    HW189871   1.583   6.495   7.904 -0.4784  0.1761 -0.1109
60877SOL    HW289872   1.709   6.443   7.837 -0.3901  0.5814 -0.2686
60878SOL     OW89873   3.464   7.981   3.984  0.6452  0.2362 -0.2030
60878SOL    HW189874   3.378   7.941   3.997  1.3239 -1.2120  0.1269
60878SOL    HW289875   3.508   7.923   3.921  1.6711  0.4551  0.2903
60879SOL     OW89876   2.029   1.279   0.987 -0.5310 -0.3492 -0.1727
60879SOL    HW189877   2.028   1.202   1.044  0.3990  0.3350  0.8067
60879SOL    HW289878   1.987   1.249   0.906  0.8976 -2.2468 -0.2833
60880SOL     OW89879  12.293  12.412   1.505 -0.1675 -0.4852 -0.0715
60880SOL    HW189880  12.317  12.365   1.425 -0.0503 -0.1898 -0.2117
60880SOL    HW289881  12.234  12.352   1.551  0.5445 -1.0670  0.0995
60881SOL     OW89882  11.445   3.193   9.868  0.3982 -0.2043  0.1236
60881SOL    HW189883  11.476   3.212   9.780  3.7380 -3.3961  0.3944
60881SOL    HW289884  11.513   3.228   9.926 -1.0544  0.6126  1.4376
60882SOL     OW89885   8.695   8.811   3.073 -0.0998  0.2491 -0.3790
60882SOL    HW189886   8.694   8.799   3.168 -0.5781 -0.2735 -0.4453
60882SOL    HW289887   8.751   8.888   3.059  0.1118  0.2262  0.3101
60883SOL     OW89888  11.109   9.277   2.107 -0.0290 -0.4282  0.1540
60883SOL    HW189889  11.104   9.360   2.059  0.7376  0.8317  2.1206
60883SOL    HW289890  11.150   9.216   2.045  1.2646  1.2026 -0.6912
60884SOL     OW89891   7.939  10.198   3.215 -0.1866 -0.0074  0.1138
60884SOL    HW189892   7.931  10.106   3.187 -1.3004  0.2212 -0.3654
60884SOL    HW289893   7.979  10.242   3.140  0.3526 -0.0975  0.3459
60885SOL     OW89894   6.106   4.270   5.550 -0.0255 -0.3966  0.2327
60885SOL    HW189895   6.153   4.260   5.467 -0.4356 -0.0298 -0.0519
60885SOL    HW289896   6.129   4.192   5.600  1.7559  0.2991  0.5568
60886SOL     OW89897  11.559   0.192   8.559 -0.0403  0.0492  0.1362
60886SOL    HW189898  11.547   0.263   8.622  0.2404  0.1680  0.0601
60886SOL    HW289899  11.652   0.170   8.566 -0.2311 -0.6881  0.5642
60887SOL     OW89900   0.067  11.875   7.888 -0.1205  0.2510  0.8211
60887SOL    HW189901   0.109  11.819   7.822 -1.7606  1.2074 -1.1363
60887SOL    HW289902   0.012  11.815   7.938 -1.3019 -0.0938 -0.7839
60888SOL     OW89903   7.348   9.625   4.339  0.2721  0.2614  0.2841
60888SOL    HW189904   7.360   9.683   4.264 -1.0787  1.1535  0.7007
60888SOL    HW289905   7.423   9.643   4.396 -0.8573  2.8273  1.1222
60889SOL     OW89906   8.196   1.738   4.143 -0.1553 -0.7321  0.6590
60889SOL    HW189907   8.101   1.749   4.137 -0.1385 -0.3369  1.0931
60889SOL    HW289908   8.210   1.697   4.229  0.1409  0.0745  1.0005
60890SOL     OW89909   5.445  10.615   9.199 -0.1114  0.2755  0.0865
60890SOL    HW189910   5.377  10.558   9.236 -0.8289  1.0594  0.0085
60890SOL    HW289911   5.511  10.620   9.267  0.8279 -2.0470 -0.5605
60891SOL     OW89912   1.149   0.499   3.279 -0.0167  0.5302  0.3283
60891SOL    HW189913   1.159   0.475   3.371 -1.9791 -0.7444  0.2692
60891SOL    HW289914   1.061   0.534   3.273 -0.1204  0.0710 -1.1737
60892SOL     OW89915   9.036   0.414   4.875 -0.3774 -0.6952  0.5529
60892SOL    HW189916   9.031   0.434   4.969  0.0308  0.4222  0.3563
60892SOL    HW289917   8.947   0.387   4.852 -0.7482  0.0448  1.0568
60893SOL     OW89918   6.780   0.180  11.580 -0.3639 -0.4132  0.0657
60893SOL    HW189919   6.872   0.186  11.552 -0.1299  0.9773  1.0299
60893SOL    HW289920   6.785   0.149  11.670 -0.8511 -0.5305  0.0514
60894SOL     OW89921   1.341   6.424   6.861 -0.2951  0.0402 -0.2238
60894SOL    HW189922   1.325   6.512   6.897 -2.1506  0.0483 -0.9884
60894SOL    HW289923   1.254   6.390   6.842  0.4069 -1.9480 -0.0546
60895SOL     OW89924   4.166  10.430   9.305  0.0581  0.0292 -0.3792
60895SOL    HW189925   4.079  10.471   9.304  0.3531  0.8820  2.1083
60895SOL    HW289926   4.181  10.409   9.397  2.1808 -0.8312 -0.8678
60896SOL     OW89927   4.409  10.972   9.072  0.0125 -0.4844  0.2107
60896SOL    HW189928   4.369  11.056   9.094  0.8877 -0.6300  2.6874
60896SOL    HW289929   4.398  10.963   8.977 -0.7722  2.0492  0.0124
60897SOL     OW89930   4.776   1.786   0.879  0.7626 -0.2128  0.2094
60897SOL    HW189931   4.766   1.805   0.786  1.6505 -2.4450 -0.4069
60897SOL    HW289932   4.746   1.866   0.923 -0.6627  0.5251 -1.9322
60898SOL     OW89933   8.492  11.830   1.955 -0.6295 -0.2418 -0.2782
60898SOL    HW189934   8.527  11.845   1.868 -1.4031  0.6574 -0.4547
60898SOL    HW289935   8.531  11.747   1.983  1.6379  0.6980 -0.4406
60899SOL     OW89936   1.456  10.917   2.062 -0.5138  0.3502 -0.7364
60899SOL    HW189937   1.451  10.906   2.157  0.0006 -1.1755 -0.8646
60899SOL    HW289938   1.493  11.004   2.050 -0.5660  0.5575  0.4552
60900SOL     OW89939  10.014  12.130   2.781  0.5938  0.8102  0.5929
60900SOL    HW189940  10.037  12.140   2.689  0.7386  1.5332  0.7007
60900SOL    HW289941   9.925  12.096   2.780  0.8469  0.1345  0.1887
60901SOL     OW89942   8.978  10.695  10.678 -0.0172  0.2621 -0.4471
60901SOL    HW189943   8.992  10.752  10.603 -0.5292  2.1755  0.8245
60901SOL    HW289944   8.887  10.711  10.703 -0.2380 -1.2946 -0.1646
60902SOL     OW89945   6.133   4.554   0.286  0.3451  0.0169 -0.6427
60902SOL    HW189946   6.227   4.573   0.291  0.3283 -0.0612 -0.0150
60902SOL    HW289947   6.128   4.458   0.287  0.2155  0.0247  0.2496
60903SOL     OW89948  10.816   5.341   9.084  0.1788  0.0234  0.4159
60903SOL    HW189949  10.770   5.410   9.036  0.4706  0.8158  1.2487
60903SOL    HW289950  10.774   5.339   9.169  0.6705 -0.3054  0.6565
60904SOL     OW89951   4.062   1.087   9.655 -0.3943 -0.1352 -0.0768
60904SOL    HW189952   3.999   1.159   9.664  0.1367  0.3674 -0.3509
60904SOL    HW289953   4.095   1.073   9.744 -1.4114 -0.8903  0.2035
60905SOL     OW89954   4.490   5.383   7.713 -0.0509  0.2379 -0.0233
60905SOL    HW189955   4.513   5.290   7.718 -1.4361 -0.0939  0.8432
60905SOL    HW289956   4.557   5.421   7.657  0.9284 -1.1573  0.1304
60906SOL     OW89957  10.585   1.404   7.064  0.2475 -0.0640  0.1556
60906SOL    HW189958  10.492   1.384   7.057  0.0486  0.1347  1.7858
60906SOL    HW289959  10.626   1.319   7.080  0.3348 -0.1277 -0.3865
60907SOL     OW89960   3.766  10.590   7.500  0.2688 -0.4404  0.2179
60907SOL    HW189961   3.814  10.656   7.548 -0.6160  0.0943  0.3987
60907SOL    HW289962   3.820  10.511   7.506  1.7550  0.4579 -0.7074
60908SOL     OW89963   0.264   9.785   0.078 -0.0117 -0.3966  0.3188
60908SOL    HW189964   0.269   9.700   0.123 -0.2693 -2.0399 -2.4694
60908SOL    HW289965   0.184   9.825   0.110 -0.0974 -1.3881  1.4100
60909SOL     OW89966   8.168  11.558   0.539 -0.1126  0.4006 -0.0154
60909SOL    HW189967   8.247  11.534   0.587 -0.1489  0.7052  0.1985
60909SOL    HW289968   8.108  11.591   0.606 -1.1260 -1.5595  0.1067
60910SOL     OW89969   5.670   9.688   8.554 -0.1712 -0.2927 -0.2550
60910SOL    HW189970   5.647   9.597   8.534 -0.3950 -0.0003 -1.4574
60910SOL    HW289971   5.668   9.693   8.649 -0.1504 -1.5503 -0.1642
60911SOL     OW89972   6.802   9.217  12.043  0.0733 -0.6125  0.2799
60911SOL    HW189973   6.807   9.275  12.119  0.8391 -0.9095  0.4752
60911SOL    HW289974   6.885   9.168  12.045 -1.2214 -2.9353  1.1009
60912SOL     OW89975   4.584   2.875  11.839 -0.6174  0.4182  0.3399
60912SOL    HW189976   4.503   2.890  11.888 -1.4995 -0.7013 -0.7250
60912SOL    HW289977   4.606   2.784  11.856 -0.3972  0.2952 -0.5499
60913SOL     OW89978   4.035  11.729   2.168  0.1029  0.4261  0.1818
60913SOL    HW189979   3.960  11.769   2.213 -0.2466 -1.9661  1.8792
60913SOL    HW289980   4.112  11.763   2.214 -0.1772 -0.4782  1.3805
60914SOL     OW89981   0.340  10.772   1.571 -0.5026  0.3407 -0.2633
60914SOL    HW189982   0.377  10.750   1.657  1.3169  0.1009 -1.0591
60914SOL    HW289983   0.341  10.689   1.523 -0.0352  0.7781 -1.0271
60915SOL     OW89984  10.964   2.312   1.795 -0.7034 -0.3858  0.8230
60915SOL    HW189985  10.963   2.324   1.890  3.4568 -2.2332  1.2911
60915SOL    HW289986  11.040   2.360   1.765 -2.0145  0.2943 -1.6904
60916SOL     OW89987   8.265   8.108  10.464  0.0826 -0.2691  0.1041
60916SOL    HW189988   8.318   8.187  10.450 -0.6216  0.2156  0.0863
60916SOL    HW289989   8.313   8.058  10.529  0.9839 -0.2484 -0.5274
60917SOL     OW89990   5.163  10.079   5.314  0.7025 -0.1721 -0.0100
60917SOL    HW189991   5.209  10.155   5.278  0.0820  0.5866  0.7856
60917SOL    HW289992   5.164  10.015   5.242 -0.3688  1.2394 -1.3492
60918SOL     OW89993   5.434   0.961   8.895 -0.4218 -0.0752  0.2918
60918SOL    HW189994   5.500   0.895   8.876 -1.0458 -0.7912  0.5520
60918SOL    HW289995   5.465   1.003   8.975 -0.2683 -0.3953  0.4035
60919SOL     OW89996  11.163   6.835   0.344 -0.3526 -1.1139  0.0274
60919SOL    HW189997  11.158   6.879   0.429  0.3616 -1.3712  0.2039
60919SOL    HW289998  11.080   6.857   0.301  0.0073  0.4362  0.0910
60920SOL     OW89999   3.840   9.778   4.291  0.3985  0.0260 -0.2355
60920SOL    HW190000   3.877   9.785   4.203  0.4363  0.7884 -0.1627
60920SOL    HW290001   3.894   9.836   4.345 -1.0040  1.3164 -0.1686
60921SOL     OW90002   3.775   5.529   1.696 -0.3124  0.1295  0.1295
60921SOL    HW190003   3.822   5.448   1.716 -1.1654  0.3321  3.3770
60921SOL    HW290004   3.789   5.541   1.602  3.1818 -1.6476  0.2409
60922SOL     OW90005   3.584   1.908   5.967 -0.4362  0.5865 -0.1123
60922SOL    HW190006   3.666   1.913   6.016 -0.4417  0.5712 -0.1018
60922SOL    HW290007   3.586   1.984   5.909 -0.0936  0.2031 -0.6113
60923SOL     OW90008   9.201   0.077   4.100  0.1395  0.3314 -0.4614
60923SOL    HW190009   9.146   0.013   4.145  0.1728 -0.1282 -1.0640
60923SOL    HW290010   9.289   0.063   4.136  0.0175  0.5134 -0.0887
60924SOL     OW90011   5.122   5.855   2.437 -0.2290  0.2719  0.3710
60924SOL    HW190012   5.200   5.876   2.489  0.9894 -1.3987 -0.6855
60924SOL    HW290013   5.065   5.932   2.448  1.3973  1.4063  1.4458
60925SOL     OW90014   1.079   5.713   0.003  0.1370  0.4937  0.4310
60925SOL    HW190015   1.055   5.802   0.027 -3.6074  0.2464 -1.6869
60925SOL    HW290016   1.044   5.658   0.074  1.9638  0.5636  1.4578
60926SOL     OW90017   1.305   8.489   2.312 -0.0897  0.5795 -0.1151
60926SOL    HW190018   1.321   8.520   2.223 -0.7862  0.0752 -0.4126
60926SOL    HW290019   1.275   8.567   2.359  1.9966  1.2945  0.1685
60927SOL     OW90020   7.705   0.355   2.911 -0.3969  0.0882 -0.2238
60927SOL    HW190021   7.656   0.281   2.875 -1.1830  0.7814 -0.6108
60927SOL    HW290022   7.795   0.322   2.920 -0.3051 -0.3501 -2.1826
60928SOL     OW90023   4.526   5.574  12.040 -0.2198 -0.4006 -0.1689
60928SOL    HW190024   4.534   5.562  11.945  0.0291 -0.2101 -0.1747
60928SOL    HW290025   4.443   5.531  12.063  0.4085 -1.6925 -0.2473
60929SOL     OW90026   1.214   9.816   6.633 -0.1967 -0.0743  0.4317
60929SOL    HW190027   1.219   9.871   6.712  2.1467  0.0556  0.2595
60929SOL    HW290028   1.254   9.734   6.659  0.1418 -0.2088 -0.4925
60930SOL     OW90029   7.340   7.900   0.002  0.0589  0.2523 -0.0342
60930SOL    HW190030   7.254   7.860   0.016 -0.9170  2.5871  1.2066
60930SOL    HW290031   7.333   7.987   0.041  3.0734  0.4762  0.2482
60931SOL     OW90032  11.604   6.226  11.063  0.8203 -0.4356  0.3218
60931SOL    HW190033  11.696   6.202  11.049  1.1202  0.2276  1.0207
60931SOL    HW290034  11.554   6.148  11.039  1.5911 -0.9220  0.2636
60932SOL     OW90035   2.911  12.629  11.732 -0.1392 -0.5390  0.7962
60932SOL    HW190036   2.948  12.552  11.688  0.6342 -0.3543  1.1174
60932SOL    HW290037   2.818  12.627  11.708 -0.1037 -1.4941  0.6819
60933SOL     OW90038   6.236   7.562   9.569  0.5827  0.2407  0.8562
60933SOL    HW190039   6.255   7.474   9.600  2.6910  0.1117 -0.5560
60933SOL    HW290040   6.225   7.614   9.648  1.0387 -0.9775  1.7420
60934SOL     OW90041   9.533   8.708   5.516 -0.4088 -0.4726 -0.3532
60934SOL    HW190042   9.565   8.727   5.428  0.5189 -1.4843 -0.2482
60934SOL    HW290043   9.471   8.779   5.534  1.3147  1.2214 -0.7976
60935SOL     OW90044   4.366   0.240  10.157  0.3295 -0.1071 -0.3793
60935SOL    HW190045   4.307   0.251  10.082 -0.6870  0.1747  0.4359
60935SOL    HW290046   4.402   0.328  10.171 -0.6767  0.2089  0.3953
60936SOL     OW90047   4.775   3.906   9.504  0.5578 -0.3440  0.2049
60936SOL    HW190048   4.714   3.841   9.470 -0.6835 -0.0972  1.8666
60936SOL    HW290049   4.828   3.931   9.428 -0.3653 -1.6937 -0.9327
60937SOL     OW90050   3.652   4.659   7.928 -0.4752  0.5177  0.2547
60937SOL    HW190051   3.595   4.600   7.879 -1.0974  1.1717  0.1657
60937SOL    HW290052   3.704   4.602   7.985 -0.1681 -0.2007 -0.7230
60938SOL     OW90053   2.774   2.913   0.844 -0.1086  0.0340  0.5692
60938SOL    HW190054   2.791   2.905   0.750  0.2320 -0.8827  0.6999
60938SOL    HW290055   2.814   2.996   0.868  1.6970 -0.7143  0.3019
60939SOL     OW90056  11.739   0.244   3.450  0.3132 -0.1770 -0.3449
60939SOL    HW190057  11.656   0.280   3.483 -0.2430 -1.4933 -0.2279
60939SOL    HW290058  11.743   0.272   3.359  0.4780  1.1358  0.0498
60940SOL     OW90059   1.700   7.535   1.886 -0.3449 -0.6878  0.2294
60940SOL    HW190060   1.791   7.509   1.898  0.2459  0.8859 -0.5548
60940SOL    HW290061   1.701   7.631   1.894 -2.1473 -0.7072  1.5063
60941SOL     OW90062   3.711   9.138  12.665  0.6369  0.4739 -0.2415
60941SOL    HW190063   3.704   9.120  12.758 -0.1461 -1.4802 -0.6090
60941SOL    HW290064   3.721   9.051  12.625  1.3489  1.2852 -1.9413
60942SOL     OW90065  11.596   4.986   0.701  0.0808 -0.0333  0.6346
60942SOL    HW190066  11.520   4.964   0.647 -0.2313  0.4975  0.8450
60942SOL    HW290067  11.602   4.914   0.764  0.5860 -0.7738 -0.2378
60943SOL     OW90068   7.989   3.587   5.519  0.0830 -0.1639  0.5614
60943SOL    HW190069   7.999   3.506   5.569  3.8390 -0.9087 -1.0730
60943SOL    HW290070   7.928   3.565   5.449 -1.0804 -0.6844  1.7006
60944SOL     OW90071   1.127   9.358  11.905  0.0764 -0.1551 -0.2157
60944SOL    HW190072   1.161   9.377  11.992  1.0962  0.5111 -0.7394
60944SOL    HW290073   1.105   9.264  11.908 -0.6016  0.0211  0.9617
60945SOL     OW90074   7.789  11.087   4.441 -0.2460 -0.0847  0.2439
60945SOL    HW190075   7.725  11.155   4.460 -0.5362 -0.5426  0.9756
60945SOL    HW290076   7.765  11.054   4.355 -0.4447  0.3572  0.1293
60946SOL     OW90077   1.034   1.315   8.257  0.4747 -0.6530  0.0080
60946SOL    HW190078   1.046   1.254   8.184  0.0735  0.6312 -1.1679
60946SOL    HW290079   0.939   1.329   8.261  0.4902 -0.7056  0.7964
60947SOL     OW90080   5.639   3.921   6.433 -0.1075 -0.3708  0.1007
60947SOL    HW190081   5.684   3.838   6.443  0.5659 -0.6177 -3.6318
60947SOL    HW290082   5.690   3.983   6.486  1.2408 -1.7577  0.4820
60948SOL     OW90083   4.550   7.152   8.756  0.3136  0.0192  0.9914
60948SOL    HW190084   4.507   7.067   8.745  0.0251  0.1988  0.7421
60948SOL    HW290085   4.608   7.160   8.680 -0.6548  0.6412  0.3054
60949SOL     OW90086   7.468   1.136   7.797  0.4681  0.5768  0.5152
60949SOL    HW190087   7.373   1.147   7.792  0.6149  1.9206  0.1761
60949SOL    HW290088   7.497   1.132   7.705  0.5908 -1.6633  0.5943
60950SOL     OW90089  11.258   1.268   8.932  0.0917 -0.0659 -0.1842
60950SOL    HW190090  11.343   1.280   8.890  0.5891 -1.6332  0.3182
60950SOL    HW290091  11.224   1.187   8.895 -0.5367 -0.2028  0.6615
60951SOL     OW90092   8.357   6.333   4.300  0.1052 -0.3462  0.4829
60951SOL    HW190093   8.372   6.254   4.250  1.4202  0.8089 -1.0682
60951SOL    HW290094   8.286   6.379   4.254  0.1295 -0.0969  0.6872
60952SOL     OW90095   6.394   6.995  10.146 -0.0566  0.2369 -0.5560
60952SOL    HW190096   6.356   6.923  10.196 -1.2008 -1.1525 -3.2197
60952SOL    HW290097   6.368   7.074  10.193 -0.8922 -0.9736  1.0930
60953SOL     OW90098   5.529   0.501   6.167  0.5272  0.2024 -0.2556
60953SOL    HW190099   5.468   0.434   6.138  0.0599  1.4416 -2.3588
60953SOL    HW290100   5.612   0.480   6.123  0.3760  0.9566 -0.9407
60954SOL     OW90101   1.953   8.418   3.587 -0.5573  0.4390 -0.2894
60954SOL    HW190102   2.006   8.376   3.519 -0.9717 -1.5561  0.5412
60954SOL    HW290103   1.872   8.444   3.543  0.2482  1.6803 -1.1173
60955SOL     OW90104   5.206   6.926   6.810  0.3242  0.2903  0.3235
60955SOL    HW190105   5.208   7.012   6.854  0.2529  0.1498  0.6057
60955SOL    HW290106   5.151   6.872   6.867  2.7209 -0.8082  1.7574
60956SOL     OW90107  11.824  11.321   1.818 -0.3548  0.1790  0.6526
60956SOL    HW190108  11.879  11.399   1.825  0.8477 -0.6404  0.7141
60956SOL    HW290109  11.870  11.255   1.872 -0.8849 -0.8054 -0.0716
60957SOL     OW90110   3.692   2.755   6.468 -0.5213  0.3187 -0.3518
60957SOL    HW190111   3.706   2.849   6.457  2.5140 -0.0338 -0.3460
60957SOL    HW290112   3.611   2.737   6.420 -2.1498  3.1346  1.0547
60958SOL     OW90113   7.425   0.397   8.755 -0.0038 -0.1389 -0.0539
60958SOL    HW190114   7.475   0.322   8.722  1.9681  1.4560 -0.8448
60958SOL    HW290115   7.479   0.433   8.825 -1.7367 -0.3748  1.5184
60959SOL     OW90116   0.160  11.793   5.157 -0.0161  0.5324 -0.3729
60959SOL    HW190117   0.171  11.857   5.227  0.3327 -0.2537  0.3096
60959SOL    HW290118   0.122  11.717   5.200 -0.7988  0.4195 -1.2503
60960SOL     OW90119   2.282  11.505   5.212 -0.0744  0.1117 -0.1754
60960SOL    HW190120   2.190  11.519   5.233 -0.5785 -1.7245 -0.9589
60960SOL    HW290121   2.318  11.462   5.290  1.0505  3.7029  1.5272
60961SOL     OW90122   3.783   8.121   9.911 -0.2939  0.2196 -0.4008
60961SOL    HW190123   3.708   8.062   9.920  0.0192  0.0620  1.5176
60961SOL    HW290124   3.860   8.066   9.923 -0.0069  0.9957  1.8358
60962SOL     OW90125  10.744   1.019  10.460  0.0455 -0.2374 -0.2317
60962SOL    HW190126  10.808   0.951  10.481  1.2829  0.5755 -1.2466
60962SOL    HW290127  10.787   1.100  10.484 -0.8905  0.2952 -0.2984
60963SOL     OW90128   4.086   0.744  11.607  0.5731 -0.1575  0.1741
60963SOL    HW190129   4.010   0.794  11.638  0.1718 -0.7382  0.1524
60963SOL    HW290130   4.143   0.737  11.683  0.8319  0.6916  0.0661
60964SOL     OW90131  10.880   0.859  11.548 -0.0339 -0.0360  0.2869
60964SOL    HW190132  10.900   0.784  11.604 -0.2921 -0.1366  0.2428
60964SOL    HW290133  10.890   0.935  11.606  3.5838  0.2223 -0.4313
60965SOL     OW90134   9.344   1.493   4.716  0.2594  0.0468  0.4351
60965SOL    HW190135   9.400   1.570   4.716 -0.8667  0.8931 -1.0709
60965SOL    HW290136   9.401   1.422   4.684  1.5814 -0.0526  2.7459
60966SOL     OW90137   8.485   7.424   5.836  0.0156 -0.0810 -0.2202
60966SOL    HW190138   8.416   7.489   5.851 -0.5484  0.1017 -3.0425
60966SOL    HW290139   8.562   7.476   5.814 -0.0393 -0.3217 -1.0072
60967SOL     OW90140   9.244   4.556   6.448 -0.5219 -0.3616  0.1857
60967SOL    HW190141   9.161   4.509   6.450 -0.1399 -1.1379 -1.1989
60967SOL    HW290142   9.295   4.518   6.520 -1.3221  0.0665  0.9922
60968SOL     OW90143   4.891   8.946   9.487 -0.5004  0.1559 -0.3857
60968SOL    HW190144   4.986   8.947   9.505 -0.7801  0.3960  1.3019
60968SOL    HW290145   4.873   9.033   9.451 -0.0530  0.0701 -0.8246
60969SOL     OW90146   5.222   1.183   8.809  0.1864  0.3557  0.0684
60969SOL    HW190147   5.317   1.182   8.799  0.2788  0.6498  0.8826
60969SOL    HW290148   5.198   1.276   8.804 -0.0790  0.2713 -0.2976
60970SOL     OW90149   3.349   0.024  10.119 -0.0375 -0.6399  0.5293
60970SOL    HW190150   3.313   0.073  10.045  1.1715 -0.1074  0.2764
60970SOL    HW290151   3.420   0.079  10.153 -1.4244 -0.1784  2.9802
60971SOL     OW90152   9.726   5.890   6.610 -0.1162  0.3681  0.0097
60971SOL    HW190153   9.693   5.802   6.593 -0.2837  0.2477  0.9040
60971SOL    HW290154   9.757   5.921   6.525 -0.0743 -0.5441 -0.3205
60972SOL     OW90155   4.001   0.118   1.471  0.0024 -0.3659  0.3952
60972SOL    HW190156   4.024   0.056   1.539  1.1637  0.1495  0.4985
60972SOL    HW290157   3.905   0.113   1.464  0.0797 -2.2640  0.2739
60973SOL     OW90158   9.592   0.890  12.230  0.0217 -0.1457  0.1767
60973SOL    HW190159   9.542   0.938  12.296  0.1369  1.2727 -0.7217
60973SOL    HW290160   9.546   0.908  12.147  0.9981 -0.2490 -0.4033
60974SOL     OW90161  10.107   4.369   3.112  0.3035  0.3711  0.0140
60974SOL    HW190162  10.189   4.411   3.138  0.1894  0.9641 -0.5555
60974SOL    HW290163  10.134   4.283   3.080  0.5230 -0.0877  1.3586
60975SOL     OW90164   4.059  12.533   7.637 -0.1297  0.1465 -0.0485
60975SOL    HW190165   4.004  12.564   7.565 -0.8966  0.9009  0.8355
60975SOL    HW290166   4.015  12.455   7.669  0.8591 -0.8995 -1.1409
60976SOL     OW90167   7.748   5.880  10.831 -0.3359  0.7705 -0.2602
60976SOL    HW190168   7.822   5.939  10.814 -1.1117  1.6222 -0.7649
60976SOL    HW290169   7.672   5.937  10.837 -1.2444 -0.2239 -1.5418
60977SOL     OW90170   7.592   4.147   3.037 -0.3428 -0.5672  0.1991
60977SOL    HW190171   7.552   4.175   3.119 -1.1159  0.1328 -0.4057
60977SOL    HW290172   7.537   4.184   2.968  0.8257 -0.3386 -0.6609
60978SOL     OW90173   3.295  11.132   3.760 -0.3383  0.5648 -0.2024
60978SOL    HW190174   3.364  11.135   3.693  0.3282  0.4887  0.4758
60978SOL    HW290175   3.223  11.086   3.717 -0.3426  1.5071 -1.2606
60979SOL     OW90176   3.649   7.825   3.839  0.2097  0.2321 -0.0064
60979SOL    HW190177   3.676   7.826   3.931 -0.0744  0.3296  0.0780
60979SOL    HW290178   3.662   7.735   3.811  0.6997  0.2953  0.0078
60980SOL     OW90179  10.349   1.777   3.425  0.4943 -0.5119 -0.0638
60980SOL    HW190180  10.306   1.700   3.389  1.4015 -1.2659  0.4065
60980SOL    HW290181  10.374   1.751   3.514 -0.9590  1.0137  0.8467
60981SOL     OW90182   7.266  10.192  10.632  0.2250  0.4961  0.0437
60981SOL    HW190183   7.322  10.192  10.709  0.6123 -0.5605 -0.2233
60981SOL    HW290184   7.189  10.142  10.659  0.5813 -0.3137 -0.3852
60982SOL     OW90185   8.266   7.475   7.048  0.4718  0.1548 -0.3067
60982SOL    HW190186   8.229   7.422   7.118  0.6100  1.2559  0.6311
60982SOL    HW290187   8.239   7.565   7.068  0.8592  0.5553 -1.4400
60983SOL     OW90188   8.306   7.065  11.546 -0.3720 -0.4101  0.7267
60983SOL    HW190189   8.387   7.102  11.579 -1.6332  0.9674  2.4580
60983SOL    HW290190   8.282   7.121  11.472  1.2435 -2.0828 -1.1876
60984SOL     OW90191  12.161   5.900   7.370 -0.0035 -0.4401  0.1837
60984SOL    HW190192  12.184   5.991   7.392  3.2154 -1.2550  0.7364
60984SOL    HW290193  12.135   5.904   7.278 -0.0162  1.0564  0.2206
60985SOL     OW90194   3.085   2.107  11.323 -0.1570  0.2746  0.5350
60985SOL    HW190195   3.117   2.196  11.310 -0.9091  0.8021  2.0282
60985SOL    HW290196   3.155   2.051  11.289  1.4932  1.3973  1.9147
60986SOL     OW90197  12.602   2.535   0.030  0.1690 -0.2908 -0.1106
60986SOL    HW190198  12.651   2.453   0.027 -0.4847 -0.7874  1.7253
60986SOL    HW290199  12.663   2.601  -0.004  2.0495 -0.9260  1.8201
60987SOL     OW90200   4.330  11.997   5.475  0.6903  0.0357 -0.1994
60987SOL    HW190201   4.303  12.068   5.534 -1.2363  1.2833 -2.4366
60987SOL    HW290202   4.256  11.936   5.474  1.4453 -0.9082  0.0179
60988SOL     OW90203   4.927   1.599   1.875  0.5415  0.0669 -0.3830
60988SOL    HW190204   4.940   1.621   1.782  1.2418  1.5050  0.0174
60988SOL    HW290205   5.012   1.615   1.915 -0.2318  1.4020  0.8365
60989SOL     OW90206  10.409   0.555   4.222 -0.0509  0.4949 -0.1893
60989SOL    HW190207  10.499   0.525   4.216 -0.2325 -0.1848  0.3186
60989SOL    HW290208  10.359   0.477   4.247 -0.7214  0.9414 -0.1005
60990SOL     OW90209   6.852   4.222   5.548  0.6378  0.1767  0.3153
60990SOL    HW190210   6.758   4.209   5.555  0.6001 -1.1006 -1.5600
60990SOL    HW290211   6.877   4.267   5.628 -1.6253  0.9501  0.6540
60991SOL     OW90212   0.851   8.148   8.228 -0.2095  0.5886 -0.0809
60991SOL    HW190213   0.934   8.104   8.213 -0.5591  0.4560 -1.7770
60991SOL    HW290214   0.849   8.221   8.165 -1.4823  0.4226 -0.2736
60992SOL     OW90215   9.051   0.069  11.388 -0.5799  0.5657  0.0402
60992SOL    HW190216   8.985   0.045  11.453 -1.2271  2.0904 -0.0013
60992SOL    HW290217   9.045   0.001  11.322  0.1693 -1.0817  1.5852
60993SOL     OW90218   2.568   8.884   1.097  0.1638  0.2200 -0.0385
60993SOL    HW190219   2.595   8.976   1.102  0.7296  0.0644 -0.2150
60993SOL    HW290220   2.498   8.884   1.030  0.6571  0.4118 -0.5622
60994SOL     OW90221  10.295  10.502   1.131  0.5753 -0.6152 -0.0108
60994SOL    HW190222  10.235  10.528   1.061  0.1370  0.2230  0.6495
60994SOL    HW290223  10.252  10.533   1.211  0.7175 -2.1517  0.7058
60995SOL     OW90224   9.711   3.530   3.747  0.1976 -0.2283 -0.3996
60995SOL    HW190225   9.679   3.558   3.833  1.5108 -1.2662  0.4712
60995SOL    HW290226   9.644   3.471   3.714  1.0734 -2.3340  1.3664
60996SOL     OW90227  11.704  10.067  11.729  0.4742  0.5431 -0.4613
60996SOL    HW190228  11.662  10.143  11.689  1.7984  1.4062 -0.2766
60996SOL    HW290229  11.702  10.085  11.823 -0.0140 -0.0905 -0.3436
60997SOL     OW90230   6.680  10.126  10.896 -0.2151 -0.0656  0.0844
60997SOL    HW190231   6.631  10.181  10.835 -2.6274 -1.0660  0.9855
60997SOL    HW290232   6.656  10.037  10.874  0.7631 -0.5715  0.9583
60998SOL     OW90233   4.614   1.952   2.469 -0.5047 -0.1713 -0.3789
60998SOL    HW190234   4.666   1.913   2.539 -1.5765  0.5138  0.8464
60998SOL    HW290235   4.677   1.997   2.413  0.3387 -0.3919  0.3802
60999SOL     OW90236  10.430  10.241   8.507  0.2125 -0.1058  0.8249
60999SOL    HW190237  10.439  10.221   8.413 -2.7183 -0.7803  0.5879
60999SOL    HW290238  10.433  10.156   8.550 -1.7841 -0.1678  0.9300
61000SOL     OW90239   6.200   2.104   8.922  0.0629  0.0367 -0.1884
61000SOL    HW190240   6.194   2.013   8.894 -1.7916  0.9741 -3.2515
61000SOL    HW290241   6.285   2.134   8.890  1.3329 -0.8631  2.0686
61001SOL     OW90242   1.967  11.869   6.255  0.0111  0.2099  0.2675
61001SOL    HW190243   2.048  11.893   6.299  0.3548 -1.5109  0.6775
61001SOL    HW290244   1.899  11.916   6.303  0.6132  0.2860  1.0801
61002SOL     OW90245  11.687  10.241   3.509  0.4473 -0.3207 -0.4657
61002SOL    HW190246  11.706  10.308   3.444  0.3057  2.2050  1.8946
61002SOL    HW290247  11.621  10.185   3.469  0.3507  1.1320 -2.4602
61003SOL     OW90248   6.124   0.590  11.675 -0.0792  0.0841  0.3180
61003SOL    HW190249   6.205   0.586  11.625 -0.8205  0.9761 -1.0104
61003SOL    HW290250   6.149   0.631  11.758  0.5784  1.7640 -0.6661
61004SOL     OW90251   0.329   5.882   3.684  0.3319  0.5884  1.1095
61004SOL    HW190252   0.409   5.883   3.737 -0.0143  0.0213  1.6609
61004SOL    HW290253   0.260   5.905   3.746 -0.2414 -1.2263  1.2147
61005SOL     OW90254   9.098   4.677  12.519 -0.2602  0.1307 -0.5886
61005SOL    HW190255   9.023   4.698  12.575  0.8752  1.0714  0.6425
61005SOL    HW290256   9.115   4.758  12.470 -1.5304 -0.8209 -2.7122
61006SOL     OW90257  10.873   2.510   4.436 -0.1377  0.6026  0.1434
61006SOL    HW190258  10.879   2.428   4.388 -0.3394  1.2073 -0.9490
61006SOL    HW290259  10.849   2.575   4.370  1.6185  1.8495  0.6527
61007SOL     OW90260   0.092   5.219   4.155 -0.5152 -0.0395 -0.5786
61007SOL    HW190261   0.045   5.175   4.226 -0.1940  0.1702 -0.2324
61007SOL    HW290262   0.160   5.270   4.199  2.3127 -2.9660 -1.1827
61008SOL     OW90263  12.439   7.077   0.064 -0.1499 -0.1313 -0.2804
61008SOL    HW190264  12.349   7.109   0.066 -0.6166 -1.3973  0.4959
61008SOL    HW290265  12.453   7.047  -0.026 -0.4012  0.3429 -0.4785
61009SOL     OW90266   6.658   8.665   2.740 -0.1193  0.1114  0.0879
61009SOL    HW190267   6.645   8.673   2.834 -1.3748 -0.2790 -0.0384
61009SOL    HW290268   6.720   8.735   2.718  0.1169  0.2552  1.1835
61010SOL     OW90269   9.726   8.882   2.162 -0.5773 -0.5499 -0.2624
61010SOL    HW190270   9.682   8.850   2.084  2.6188 -1.0397 -2.0200
61010SOL    HW290271   9.781   8.809   2.190  0.8557  0.7542  0.4406
61011SOL     OW90272  12.434   8.892   3.740 -0.2267  0.1694 -0.0043
61011SOL    HW190273  12.375   8.852   3.676  0.0350  0.7083 -0.5879
61011SOL    HW290274  12.492   8.948   3.688  1.9292 -1.6248  0.3336
61012SOL     OW90275   6.523   5.821   6.850 -0.0591  0.1123  0.6582
61012SOL    HW190276   6.474   5.835   6.931 -2.9143  0.5756 -1.0010
61012SOL    HW290277   6.544   5.910   6.819 -0.7085  0.0376 -0.0346
61013SOL     OW90278   8.398   3.614  10.119 -1.1040 -0.8802  0.3277
61013SOL    HW190279   8.363   3.564  10.193  1.0613 -0.8484  1.4426
61013SOL    HW290280   8.368   3.704  10.134 -0.2427 -0.7655  1.5057
61014SOL     OW90281   8.936   6.219  12.331 -0.4348 -0.3783 -0.5766
61014SOL    HW190282   8.879   6.260  12.266 -0.8623  0.0812  0.0715
61014SOL    HW290283   9.019   6.206  12.286 -0.6713  0.0961 -1.1625
61015SOL     OW90284  11.690   8.667   6.016 -0.3269 -0.7584 -0.2360
61015SOL    HW190285  11.681   8.720   6.095 -1.8161 -0.8579 -0.3176
61015SOL    HW290286  11.615   8.607   6.018 -2.1242  1.1091 -3.1289
61016SOL     OW90287   1.119   0.015   9.694  0.2337 -0.0789 -0.2736
61016SOL    HW190288   1.098   0.040   9.784  0.3186 -2.5913  0.5153
61016SOL    HW290289   1.213   0.002   9.693  0.1019 -1.1261 -0.4045
61017SOL     OW90290   3.861  10.334   7.482 -0.3876  0.2658  0.0593
61017SOL    HW190291   3.816  10.323   7.398 -2.4633  0.2882  1.0929
61017SOL    HW290292   3.838  10.255   7.531  1.7247 -0.2734  0.2547
61018SOL     OW90293   6.549   7.240   0.287 -0.5278 -0.0603  1.3677
61018SOL    HW190294   6.510   7.316   0.331  1.2396  1.4294  0.5185
61018SOL    HW290295   6.493   7.225   0.211 -0.7402  0.5822  1.3924
61019SOL     OW90296   8.151   4.375  12.686 -0.7338 -0.1134 -0.1476
61019SOL    HW190297   8.174   4.362  12.594 -1.9089 -0.1993 -0.4483
61019SOL    HW290298   8.070   4.324  12.698 -0.7366  0.1124  0.8582
61020SOL     OW90299  11.124  11.100   3.467  0.1668  0.9931  0.1837
61020SOL    HW190300  11.105  11.107   3.373  3.1707 -0.1123 -0.6363
61020SOL    HW290301  11.126  11.190   3.498  0.2575  1.4521 -1.0960
61021SOL     OW90302   9.190   2.589   1.185 -0.1852 -0.2550  0.1068
61021SOL    HW190303   9.151   2.505   1.162 -0.1846  0.3010 -2.1127
61021SOL    HW290304   9.203   2.634   1.101  1.4661  1.2388  1.0845
61022SOL     OW90305  12.213   6.422   9.182  0.3996 -0.0060  0.1683
61022SOL    HW190306  12.308   6.425   9.183  0.3952  1.0406  1.9807
61022SOL    HW290307  12.186   6.513   9.193 -0.7550 -0.4525  1.4307
61023SOL     OW90308   7.789   5.340   7.330  0.3027  0.7094  0.3078
61023SOL    HW190309   7.782   5.337   7.426 -1.8131 -0.6359  0.1688
61023SOL    HW290310   7.701   5.321   7.299  1.4219 -1.3164 -1.9399
61024SOL     OW90311   9.545  12.465   0.501 -0.0647 -0.2381 -0.1531
61024SOL    HW190312   9.504  12.542   0.539 -1.1629 -0.8406 -0.0719
61024SOL    HW290313   9.630  12.459   0.545 -0.0184  0.8367 -0.0718
61025SOL     OW90314  11.558   1.545  10.850 -0.0228  0.1726  0.5380
61025SOL    HW190315  11.473   1.521  10.813  0.6123  0.6290 -1.3186
61025SOL    HW290316  11.585   1.622  10.799  0.8874  0.8656  2.0192
61026SOL     OW90317   1.302   3.155   6.096  0.4580  0.1838  0.5112
61026SOL    HW190318   1.211   3.182   6.111  0.1318 -1.6887  2.3311
61026SOL    HW290319   1.303   3.123   6.005 -1.6090 -2.7665  1.3610
61027SOL     OW90320  10.638   5.805   2.573 -0.2091  0.5488 -0.5922
61027SOL    HW190321  10.550   5.834   2.550 -0.8334  0.4832  1.5191
61027SOL    HW290322  10.630   5.710   2.584  0.2763  0.4578 -0.9944
61028SOL     OW90323  11.428  12.432   2.717  0.5616 -0.0281 -0.0823
61028SOL    HW190324  11.477  12.350   2.716  1.1792  0.3005  1.2871
61028SOL    HW290325  11.425  12.459   2.625  1.2174 -1.0585 -0.4270
61029SOL     OW90326   1.501   0.424   0.387 -0.2410 -0.3878  1.0495
61029SOL    HW190327   1.583   0.376   0.382  0.0117  0.1364 -0.2489
61029SOL    HW290328   1.435   0.358   0.409  0.0692 -1.4068 -0.8993
61030SOL     OW90329   4.086   8.603  12.381 -0.1009 -0.0054  0.0798
61030SOL    HW190330   3.992   8.614  12.366  0.0861  0.3123 -0.9242
61030SOL    HW290331   4.127   8.651  12.310  0.8475  0.8059  1.1441
61031SOL     OW90332   8.417  11.808  10.479 -0.2547 -0.0337 -0.6241
61031SOL    HW190333   8.481  11.768  10.537 -0.4839  0.1516 -0.2417
61031SOL    HW290334   8.419  11.901  10.501 -0.4371  0.0188 -0.8217
61032SOL     OW90335   9.588   6.345  11.318 -0.1244 -0.4823 -0.2906
61032SOL    HW190336   9.659   6.367  11.379  0.4435  1.7118 -1.6154
61032SOL    HW290337   9.633   6.327  11.236 -1.0715  1.5878 -1.3335
61033SOL     OW90338   7.784   4.387  11.378  0.1247  0.1584  0.8271
61033SOL    HW190339   7.719   4.396  11.448  0.0381 -2.2958  1.1596
61033SOL    HW290340   7.867   4.377  11.425  0.3609  0.5558  0.4965
61034SOL     OW90341   6.474  10.367   3.183  0.0525  0.6744 -0.2657
61034SOL    HW190342   6.421  10.416   3.246  2.0868  2.1062  0.4436
61034SOL    HW290343   6.414  10.347   3.111 -2.1984 -0.4772  1.7949
61035SOL     OW90344  10.513   5.771   9.430  0.5043  0.4074 -0.2341
61035SOL    HW190345  10.567   5.750   9.506  0.0070  0.9736  0.2984
61035SOL    HW290346  10.449   5.700   9.426  1.8498 -0.7946 -1.4614
61036SOL     OW90347   1.299   3.619  12.622  0.2385 -0.1267 -0.5709
61036SOL    HW190348   1.310   3.602  12.716  1.2185  0.6821 -0.5254
61036SOL    HW290349   1.342   3.545  12.579  1.7914  0.6190 -0.3706
61037SOL     OW90350   3.074  10.042   3.883  0.0504  0.1167  0.2682
61037SOL    HW190351   3.160  10.022   3.847  0.7876 -0.7691  2.3384
61037SOL    HW290352   3.040  10.113   3.828  1.9450  0.2598 -0.7894
61038SOL     OW90353   0.821  11.882   5.398  0.3419 -0.5414 -0.4809
61038SOL    HW190354   0.888  11.950   5.408 -2.5624  2.4106  0.3119
61038SOL    HW290355   0.833  11.850   5.308  2.6389 -0.0011 -0.4346
61039SOL     OW90356   5.887   9.698   8.819  0.0031  0.1444  0.3639
61039SOL    HW190357   5.943   9.736   8.887  2.3280 -1.1024 -0.7527
61039SOL    HW290358   5.881   9.605   8.842 -0.1667 -0.0650 -0.4845
61040SOL     OW90359   8.931  11.984   8.442  0.4445  0.2068  0.2955
61040SOL    HW190360   8.865  12.026   8.387 -1.5686 -0.7565  1.8679
61040SOL    HW290361   9.011  12.033   8.424 -0.0881  0.0365 -3.3497
61041SOL     OW90362   9.085   1.887   9.972  0.4099  0.1063  0.1202
61041SOL    HW190363   9.140   1.915   9.899  1.2896 -3.5762 -0.8197
61041SOL    HW290364   9.043   1.806   9.941 -1.3258 -0.1256  2.7532
61042SOL     OW90365   9.709   9.278  10.163  0.3142  0.4138 -0.0275
61042SOL    HW190366   9.681   9.190  10.186  1.9041 -0.2610 -0.5270
61042SOL    HW290367   9.687   9.331  10.240 -1.6298 -0.1641 -0.1352
61043SOL     OW90368  12.302   2.245   6.907 -0.3299 -0.1857  0.2047
61043SOL    HW190369  12.392   2.277   6.899  0.5748 -2.6406 -0.3438
61043SOL    HW290370  12.250   2.310   6.860  1.1696  1.2181  0.3828
61044SOL     OW90371  11.421   3.297   0.022 -0.1922  0.9461 -0.0169
61044SOL    HW190372  11.384   3.230   0.080  1.9688  1.7116  2.4412
61044SOL    HW290373  11.466   3.248  -0.047 -1.3046 -0.0253 -0.0829
61045SOL     OW90374   9.524   1.241   8.461 -0.1228 -0.1552  0.3868
61045SOL    HW190375   9.518   1.301   8.535 -2.8090  1.2604 -0.8449
61045SOL    HW290376   9.594   1.180   8.485  0.6717  1.6366  3.0155
61046SOL     OW90377   6.022  11.326   9.498 -0.1502  0.6576  0.4207
61046SOL    HW190378   5.945  11.349   9.446  1.1344  1.3709 -1.2545
61046SOL    HW290379   6.084  11.289   9.435  0.8385 -0.0564  1.7505
61047SOL     OW90380  12.100   8.774  10.384  0.2364 -0.7394 -0.3804
61047SOL    HW190381  12.086   8.743  10.473  1.4968 -0.0045  0.0988
61047SOL    HW290382  12.187   8.815  10.386 -0.7715  1.6167 -1.2735
61048SOL     OW90383   9.316   9.454   3.147 -0.0216  0.4112  0.3093
61048SOL    HW190384   9.339   9.378   3.093  0.3198 -0.2324  1.3283
61048SOL    HW290385   9.290   9.521   3.084 -0.1871 -0.4991 -0.6259
61049SOL     OW90386   6.199   0.947   7.366  0.2142 -0.2213  0.5450
61049SOL    HW190387   6.279   0.896   7.357  0.3855  0.0421  0.5708
61049SOL    HW290388   6.222   1.035   7.337  0.1939  0.0960  1.4556
61050SOL     OW90389   1.852   7.990   4.408 -0.4690 -0.3353 -0.1726
61050SOL    HW190390   1.882   8.081   4.408 -0.6956 -0.2150 -1.9874
61050SOL    HW290391   1.928   7.940   4.437  0.8777  0.1522 -2.6240
61051SOL     OW90392   0.428   1.464  11.534  0.1310 -0.3837 -0.5469
61051SOL    HW190393   0.349   1.493  11.488 -0.5610 -1.9693 -0.3997
61051SOL    HW290394   0.496   1.462  11.467 -0.5830 -1.5192 -1.2491
61052SOL     OW90395   2.299   2.282  11.046  0.1967  0.2750  0.0173
61052SOL    HW190396   2.377   2.270  10.992  1.0216  0.7703  1.0582
61052SOL    HW290397   2.327   2.342  11.115 -0.6526 -0.7880  1.3326
61053SOL     OW90398   5.593   5.029  12.639 -0.3971 -0.8895  0.3555
61053SOL    HW190399   5.634   4.943  12.643 -0.0990 -0.9182 -1.9348
61053SOL    HW290400   5.633   5.071  12.563 -1.9169  0.5292  0.2894
61054SOL     OW90401   4.515   7.657  12.624 -0.4391 -0.0319 -0.4322
61054SOL    HW190402   4.435   7.659  12.572 -1.0778  0.3041  0.5282
61054SOL    HW290403   4.501   7.724  12.692  0.4139 -0.3681  0.0920
61055SOL     OW90404  11.592   1.233   6.957 -0.2161  0.0440  0.1022
61055SOL    HW190405  11.673   1.208   6.913  0.6175  1.8439  0.5136
61055SOL    HW290406  11.529   1.247   6.886  0.0278 -0.6513 -0.2615
61056SOL     OW90407   3.522   1.027   8.969  0.0435 -0.2600  0.4191
61056SOL    HW190408   3.515   1.059   9.058  0.5844  1.9295 -0.2629
61056SOL    HW290409   3.433   1.001   8.945 -0.1581 -0.5763  1.4589
61057SOL     OW90410   4.336   9.923   6.847  0.2167  0.7003 -0.4928
61057SOL    HW190411   4.312  10.016   6.839  0.1866  1.0320  2.5991
61057SOL    HW290412   4.302   9.896   6.932 -0.0421 -2.2926 -1.4189
61058SOL     OW90413   7.830   8.218   3.997 -0.0280  0.3679 -0.1825
61058SOL    HW190414   7.854   8.195   4.086 -0.0139  0.0840 -0.2582
61058SOL    HW290415   7.858   8.143   3.944 -0.5613  0.2810 -0.3461
61059SOL     OW90416   7.825   8.069   5.881  0.4540  0.0931  0.1558
61059SOL    HW190417   7.803   8.022   5.800  1.9401  2.6104 -1.8570
61059SOL    HW290418   7.766   8.143   5.883 -0.9983 -0.9991  2.6189
61060SOL     OW90419   6.485   8.971   1.802  0.0507 -0.1335  0.0290
61060SOL    HW190420   6.463   8.932   1.886 -0.7064  0.2699  0.0269
61060SOL    HW290421   6.574   8.941   1.784 -0.5730 -2.0577 -0.0914
61061SOL     OW90422   1.299   9.864   5.327  0.0918 -0.6676  0.2582
61061SOL    HW190423   1.238   9.887   5.257  0.7735 -0.8353 -0.4074
61061SOL    HW290424   1.330   9.776   5.304  3.3289  0.7701 -1.4529
61062SOL     OW90425   4.369   4.467   1.455  0.2512  0.2722  0.8585
61062SOL    HW190426   4.295   4.434   1.505  1.5016 -0.4610  2.2871
61062SOL    HW290427   4.394   4.548   1.499 -0.9217  1.6333 -0.8420
61063SOL     OW90428   1.005   8.829   7.829  0.0986  0.3582  0.0210
61063SOL    HW190429   0.914   8.808   7.808  0.2611  0.0812 -0.4245
61063SOL    HW290430   1.056   8.758   7.788  0.3823 -0.6682  2.0468
61064SOL     OW90431   4.009   7.284   1.782  0.1007  0.4095  0.6892
61064SOL    HW190432   3.952   7.220   1.823 -0.4403  1.3920  1.5214
61064SOL    HW290433   4.087   7.287   1.839  0.0468  0.6043  0.7568
61065SOL     OW90434   2.315   2.909   5.977 -0.0801  0.3203  0.5802
61065SOL    HW190435   2.309   2.965   5.899  0.3036  0.1385  0.4166
61065SOL    HW290436   2.403   2.924   6.011  0.4302 -0.9969 -0.0933
61066SOL     OW90437  12.602   1.741   5.534  0.1356  0.5579 -0.7965
61066SOL    HW190438  12.634   1.829   5.554  3.7265 -1.0526  1.5687
61066SOL    HW290439  12.543   1.720   5.607 -0.7056  0.9085 -1.3511
61067SOL     OW90440   2.847   9.045  11.275 -0.0118 -0.1872 -0.6985
61067SOL    HW190441   2.787   9.044  11.200  0.2559  1.3093 -0.9573
61067SOL    HW290442   2.929   9.081  11.240  0.7335 -1.2506 -0.1075
61068SOL     OW90443   9.874   8.466   2.415 -0.0182  0.1087 -0.3597
61068SOL    HW190444   9.949   8.450   2.359  0.1685  1.3917 -0.5067
61068SOL    HW290445   9.871   8.562   2.425 -1.5035  0.0709 -0.1919
61069SOL     OW90446   7.974   5.541   4.858  0.2965 -0.3383 -0.1450
61069SOL    HW190447   7.929   5.568   4.777 -0.8167  1.8935  1.1238
61069SOL    HW290448   8.054   5.499   4.828  0.0330  0.6265 -2.4199
61070SOL     OW90449   0.192   4.537  10.523  0.3436 -0.5371  0.0115
61070SOL    HW190450   0.262   4.518  10.585 -1.0016 -1.6152  1.2633
61070SOL    HW290451   0.118   4.484  10.553 -1.1204  0.8045 -1.0704
61071SOL     OW90452   9.062   9.358   7.028 -0.0986 -0.0919  0.4425
61071SOL    HW190453   9.125   9.288   7.017 -0.8850 -0.4425 -2.6051
61071SOL    HW290454   9.009   9.331   7.104 -0.0966 -2.5850 -0.3601
61072SOL     OW90455   9.571   6.198   2.459  0.7363  0.0025 -0.2395
61072SOL    HW190456   9.636   6.176   2.392 -0.1039 -1.4365 -0.6310
61072SOL    HW290457   9.487   6.195   2.413  0.2981  0.7630  0.4958
61073SOL     OW90458   5.491   9.430   7.492 -0.2886 -0.6311 -0.6782
61073SOL    HW190459   5.465   9.345   7.529 -1.0155 -0.0303  0.2408
61073SOL    HW290460   5.473   9.422   7.399  1.6671 -2.2200 -0.9796
61074SOL     OW90461   2.054   1.879   5.258 -0.3894  0.2706  0.1174
61074SOL    HW190462   1.970   1.925   5.255 -0.6436 -0.1022  1.1842
61074SOL    HW290463   2.068   1.849   5.168 -1.0874  0.8781 -0.2017
61075SOL     OW90464   7.198   3.197   2.808  0.6633  0.6576 -0.4283
61075SOL    HW190465   7.237   3.169   2.726  1.4297  1.1193 -0.2309
61075SOL    HW290466   7.273   3.211   2.867  0.2407  1.9375 -0.1658
61076SOL     OW90467   8.226   8.411   5.717  0.1247 -0.0175  0.2023
61076SOL    HW190468   8.224   8.357   5.638 -2.1291 -0.7107  0.6476
61076SOL    HW290469   8.298   8.374   5.769  0.7877 -0.3949 -0.9584
61077SOL     OW90470   7.455   9.677   2.149 -0.7368 -0.3563  0.2511
61077SOL    HW190471   7.455   9.709   2.239  2.4236  0.6700 -0.0013
61077SOL    HW290472   7.492   9.588   2.154 -0.8990 -0.4395  0.0089
61078SOL     OW90473   2.917   1.761  12.124  0.1655  0.8829 -0.4105
61078SOL    HW190474   2.934   1.843  12.172 -0.7482  1.9869 -1.8835
61078SOL    HW290475   2.923   1.693  12.191  2.7448  1.9135  0.5581
61079SOL     OW90476   7.410   2.088  12.357  0.6680  0.5732 -0.1637
61079SOL    HW190477   7.483   2.030  12.339 -0.3186 -0.5342 -0.7675
61079SOL    HW290478   7.445   2.177  12.346  1.6762  0.0471 -1.3324
61080SOL     OW90479   5.619   2.639   1.376  0.2224  0.1348  0.0934
61080SOL    HW190480   5.572   2.717   1.348  1.2439  0.4944 -0.6991
61080SOL    HW290481   5.640   2.655   1.468 -0.7609  0.1783  0.3181
61081SOL     OW90482   0.955   3.153   9.123  0.1575  0.3343  0.6559
61081SOL    HW190483   0.927   3.105   9.046 -1.3704 -0.2635  1.5318
61081SOL    HW290484   0.940   3.245   9.101 -2.2280  0.0715  0.9148
61082SOL     OW90485   9.597  11.695   6.668 -0.2456  0.1538  0.3970
61082SOL    HW190486   9.555  11.723   6.750  0.8842 -0.0583  1.0670
61082SOL    HW290487   9.690  11.692   6.688  0.0706  0.2024 -0.9388
61083SOL     OW90488   9.657   6.913   4.873 -0.3330  0.0771  0.4199
61083SOL    HW190489   9.636   6.829   4.834  0.9896 -1.4071  2.7014
61083SOL    HW290490   9.587   6.928   4.937  0.2567 -0.0330  1.0911
61084SOL     OW90491  12.166   1.388   6.060  0.2936 -0.0374 -0.5108
61084SOL    HW190492  12.071   1.383   6.068  0.2567 -1.8710 -1.5210
61084SOL    HW290493  12.180   1.453   5.991 -0.3918 -1.5041 -2.1197
61085SOL     OW90494   0.364   4.963   9.986 -0.1328  0.3188 -0.1837
61085SOL    HW190495   0.453   4.989  10.009  0.1187 -0.9936  0.4137
61085SOL    HW290496   0.310   4.995  10.058 -0.2519  1.5578 -0.7855
61086SOL     OW90497   6.565   5.762   2.907 -0.2566  0.4118 -0.0066
61086SOL    HW190498   6.562   5.844   2.956 -1.9178  1.0448 -1.0764
61086SOL    HW290499   6.477   5.724   2.918  0.0660 -0.5544 -0.6143
61087SOL     OW90500   4.139  10.008   7.103 -0.4782 -0.0551  0.8407
61087SOL    HW190501   4.075  10.009   7.032 -1.0993  2.6733  1.3142
61087SOL    HW290502   4.086  10.002   7.182 -0.0882  1.0258  1.1969
61088SOL     OW90503   9.574   0.672  11.937  0.0707 -0.2062  0.0670
61088SOL    HW190504   9.568   0.766  11.920 -0.4092 -0.2028  0.2265
61088SOL    HW290505   9.553   0.631  11.853  0.7716 -0.1687 -0.1284
61089SOL     OW90506  11.397   9.422  12.525  0.2315  0.1706 -0.0615
61089SOL    HW190507  11.382   9.453  12.435  0.1554 -0.5968 -0.3206
61089SOL    HW290508  11.441   9.338  12.514 -0.3734 -0.2444  0.6087
61090SOL     OW90509   3.459   0.347   2.149 -0.5757 -0.6665 -0.4154
61090SOL    HW190510   3.459   0.440   2.128  1.0792 -0.7554 -0.9784
61090SOL    HW290511   3.388   0.310   2.097 -0.1845  0.0263 -1.4581
61091SOL     OW90512   1.497   5.681   3.271  0.2929  0.0126  0.0358
61091SOL    HW190513   1.441   5.624   3.324 -1.8269  0.0704 -1.9795
61091SOL    HW290514   1.441   5.756   3.249  2.5026  2.1483  1.2762
61092SOL     OW90515   2.092   6.914   4.762  0.0196  0.7087  0.1932
61092SOL    HW190516   2.153   6.932   4.690  0.6751 -0.4110  0.4575
61092SOL    HW290517   2.106   6.986   4.824  1.8229 -0.0861  0.7362
61093SOL     OW90518  11.405  10.981  12.441  0.5554  0.0234 -0.2317
61093SOL    HW190519  11.466  10.982  12.368 -0.2507 -0.9969 -0.9422
61093SOL    HW290520  11.374  11.071  12.448  1.2756  0.3034 -0.5964
61094SOL     OW90521   3.830   7.975   2.856  0.1067  0.2162 -0.1349
61094SOL    HW190522   3.913   7.976   2.808  0.2225  0.1734  0.0612
61094SOL    HW290523   3.828   8.058   2.904  0.1459  0.1175  0.0413
61095SOL     OW90524  10.570   7.129   2.457 -0.2537 -0.5833 -0.2794
61095SOL    HW190525  10.500   7.113   2.393 -0.3156  0.7295 -0.5768
61095SOL    HW290526  10.595   7.042   2.488 -2.2538 -1.0644  0.0964
61096SOL     OW90527   2.627   9.046   6.378 -0.3096  0.0094 -0.2855
61096SOL    HW190528   2.653   9.106   6.308 -0.5857  1.3271  0.6913
61096SOL    HW290529   2.701   8.986   6.387  0.0464  0.2929 -1.1918
61097SOL     OW90530   8.446   0.402  10.007  0.3526  0.1220 -0.0352
61097SOL    HW190531   8.474   0.468   9.944 -0.8454 -0.4858 -1.2591
61097SOL    HW290532   8.516   0.400  10.073  0.6015  2.2939 -0.1812
61098SOL     OW90533   8.762  10.752   0.989  0.4256 -0.0965  0.1713
61098SOL    HW190534   8.710  10.778   0.913  0.7147  2.3265  0.7228
61098SOL    HW290535   8.819  10.827   1.006  2.5494 -1.7630  0.9592
61099SOL     OW90536   9.050   4.437  10.292 -0.1546 -0.4601 -0.2231
61099SOL    HW190537   9.041   4.356  10.341  0.7805 -0.1049  0.5615
61099SOL    HW290538   9.129   4.479  10.327 -0.7118  0.8810 -0.4794
61100SOL     OW90539   8.369  11.822  11.281 -0.0463 -0.1265  0.4028
61100SOL    HW190540   8.406  11.891  11.336  0.5298 -0.0422 -0.0851
61100SOL    HW290541   8.318  11.768  11.341  0.4681  0.0454  0.9966
61101SOL     OW90542  12.073   8.218  12.284  0.1776  0.4798  0.3568
61101SOL    HW190543  12.110   8.178  12.363  0.3589  2.7148  1.4558
61101SOL    HW290544  12.148   8.225  12.224  0.4725  0.5805  0.7319
61102SOL     OW90545   7.308   1.433   8.535  0.4440  0.5191  0.6781
61102SOL    HW190546   7.258   1.483   8.471  2.4988  2.7740  0.7227
61102SOL    HW290547   7.266   1.450   8.619  0.3077  1.0727  0.4963
61103SOL     OW90548   4.701   4.077   9.120 -0.8064 -0.4140 -0.6383
61103SOL    HW190549   4.640   4.054   9.190 -0.2618  2.9949  1.2038
61103SOL    HW290550   4.787   4.056   9.156 -0.6163 -0.2900 -1.0170
61104SOL     OW90551  10.900  12.512  12.218  0.2133 -0.3179  0.1653
61104SOL    HW190552  10.956  12.501  12.295 -0.5306  0.7024  0.8783
61104SOL    HW290553  10.825  12.563  12.250  0.1028  0.5100 -1.3423
61105SOL     OW90554  12.414   9.718   2.667 -0.1048 -0.0215 -0.0870
61105SOL    HW190555  12.379   9.684   2.585  2.4229 -1.6779 -0.5819
61105SOL    HW290556  12.406   9.645   2.729  2.4571 -0.5864 -0.2893
61106SOL     OW90557   1.973   9.388   7.315  0.1700  0.1890  0.5726
61106SOL    HW190558   1.893   9.424   7.353  0.5459  0.8934  0.7184
61106SOL    HW290559   2.041   9.452   7.336  0.5086  0.3147 -0.7560
61107SOL     OW90560   2.540   9.036   9.519  0.2866  0.4704  0.3504
61107SOL    HW190561   2.563   8.961   9.465  0.7526  1.3062 -0.6420
61107SOL    HW290562   2.579   9.018   9.604 -2.4415 -2.0039  1.2371
61108SOL     OW90563   6.081  12.483   8.937 -0.3140  0.7135 -0.5666
61108SOL    HW190564   6.061  12.457   9.027 -0.5818  2.0946 -0.2123
61108SOL    HW290565   6.132  12.563   8.945  0.9790  0.0330 -1.6223
61109SOL     OW90566   0.235  12.100   6.711 -0.2614 -0.4524  0.6930
61109SOL    HW190567   0.220  12.171   6.649  1.5458  0.4244  1.1950
61109SOL    HW290568   0.310  12.128   6.763 -0.2931 -2.1739  1.7694
61110SOL     OW90569  12.678  12.590  10.172 -0.5363  0.1274  0.6196
61110SOL    HW190570  12.588  12.583  10.141 -0.7880  0.2988  1.2999
61110SOL    HW290571  12.688  12.681  10.199  0.2341  0.4333 -0.6081
61111SOL     OW90572   2.441   8.077   8.017 -0.2975 -0.4796  0.0975
61111SOL    HW190573   2.394   8.033   8.087 -0.9193 -2.0286 -1.2132
61111SOL    HW290574   2.534   8.065   8.038 -0.4781 -0.6156  0.8205
61112SOL     OW90575   4.593  10.756   5.032 -0.6798 -0.1035 -0.3906
61112SOL    HW190576   4.577  10.848   5.054 -0.6025 -0.4386  1.1934
61112SOL    HW290577   4.532  10.737   4.960 -0.3404  1.3000 -1.0899
61113SOL     OW90578  11.317   6.085  10.276  0.3293 -0.4178 -0.1223
61113SOL    HW190579  11.258   6.082  10.201  0.3161  0.6323 -0.1695
61113SOL    HW290580  11.356   6.172  10.272  2.1748 -1.2229 -0.3033
61114SOL     OW90581   6.416   8.313   9.281  0.1726 -0.5561 -0.1976
61114SOL    HW190582   6.481   8.334   9.348 -0.9762 -1.9505  1.4321
61114SOL    HW290583   6.364   8.393   9.272  0.5297 -0.2537  0.3592
61115SOL     OW90584  12.650   5.004   7.019 -0.3952 -0.6976 -0.0254
61115SOL    HW190585  12.663   5.099   7.018 -0.7994 -0.6361  0.1805
61115SOL    HW290586  12.622   4.985   7.109  1.4213 -1.2614  0.4537
61116SOL     OW90587   1.412   0.734  12.443  0.0020  0.6342 -0.3949
61116SOL    HW190588   1.420   0.737  12.348 -0.2818  2.7864 -0.4123
61116SOL    HW290589   1.430   0.824  12.471  0.3824 -0.0176  1.6224
61117SOL     OW90590  11.421   8.499   9.049  0.2023 -0.0728  0.0804
61117SOL    HW190591  11.376   8.447   9.114  0.0527  1.7613  1.5113
61117SOL    HW290592  11.355   8.518   8.982 -0.2142 -0.2159  0.4548
61118SOL     OW90593   3.103   9.390   0.412 -0.0483 -0.1337  0.1298
61118SOL    HW190594   3.055   9.312   0.440  0.7059  0.1720  2.5705
61118SOL    HW290595   3.124   9.435   0.494  0.3825  2.1484 -1.1481
61119SOL     OW90596   1.345   1.372   8.454 -0.6667 -0.1860  0.0596
61119SOL    HW190597   1.291   1.431   8.402  1.1243 -0.3913 -2.1797
61119SOL    HW290598   1.295   1.291   8.458 -0.8204 -0.1979 -1.4972
61120SOL     OW90599   6.394   0.660  11.600  0.6272 -0.4587  0.0443
61120SOL    HW190600   6.459   0.667  11.670 -0.5610 -2.1103  1.3934
61120SOL    HW290601   6.428   0.716  11.531  2.2016  0.7188  1.6641
61121SOL     OW90602   3.389   3.128   4.331 -0.7882  0.3151  0.2616
61121SOL    HW190603   3.409   3.039   4.300 -0.4590  0.8077 -1.0074
61121SOL    HW290604   3.436   3.135   4.414 -1.3223 -0.9031  0.6944
61122SOL     OW90605   7.566  12.628  10.911  0.1293 -0.3040  0.2212
61122SOL    HW190606   7.634  12.569  10.943 -0.0112  0.9279  3.0236
61122SOL    HW290607   7.613  12.709  10.890  0.2967 -1.1603 -3.4198
61123SOL     OW90608  11.863   3.403   0.573  0.1789 -0.1306  0.5228
61123SOL    HW190609  11.820   3.455   0.505 -0.7566 -1.2787  0.1969
61123SOL    HW290610  11.864   3.314   0.537  1.4560 -0.4059  1.1937
61124SOL     OW90611  11.437  11.455   5.377  0.0544  0.0181 -0.1687
61124SOL    HW190612  11.396  11.379   5.336  0.4078 -0.5619  0.5114
61124SOL    HW290613  11.518  11.420   5.415 -0.0014  0.6348  0.5482
61125SOL     OW90614   7.713   6.926  12.125 -0.0294  0.2568  0.5190
61125SOL    HW190615   7.645   6.897  12.064  0.8373  1.7214 -1.2521
61125SOL    HW290616   7.729   7.018  12.101  2.7861 -0.1228  0.6343
61126SOL     OW90617  12.300   5.643   0.364  0.2406  0.0620  0.8559
61126SOL    HW190618  12.375   5.698   0.388  0.0986  0.2694  0.8288
61126SOL    HW290619  12.303   5.639   0.269 -1.0408  1.8899  0.6813
61127SOL     OW90620   2.990  12.152   8.086 -0.0924  0.1952  0.4965
61127SOL    HW190621   2.974  12.131   7.994 -0.7671 -2.2051  1.0881
61127SOL    HW290622   2.907  12.189   8.117  0.3788  1.7242 -0.0168
61128SOL     OW90623  12.103   1.935   2.717 -0.5940  0.5776 -0.4817
61128SOL    HW190624  12.099   1.863   2.780 -0.2532  0.5138 -0.5337
61128SOL    HW290625  12.026   1.923   2.661 -0.4220  0.1387 -0.6203
61129SOL     OW90626  12.647   7.804   4.876 -0.5817 -1.0601 -0.2687
61129SOL    HW190627  12.690   7.860   4.811 -1.9170 -0.8081 -0.9516
61129SOL    HW290628  12.720   7.760   4.919  0.4964  0.7140 -0.1337
61130SOL     OW90629   5.292  10.265  11.744 -0.1701  0.4769 -0.2325
61130SOL    HW190630   5.220  10.245  11.684 -0.7274  0.6150  0.3812
61130SOL    HW290631   5.313  10.356  11.727  0.7341  0.0869 -1.3160
61131SOL     OW90632   1.392   1.393   4.508 -0.0304  0.1751 -0.2432
61131SOL    HW190633   1.400   1.472   4.560  0.2839  0.1587 -0.2611
61131SOL    HW290634   1.355   1.422   4.425 -0.7068  0.1730  0.0506
61132SOL     OW90635  11.770   5.265   9.347 -0.3532 -0.2293  0.0465
61132SOL    HW190636  11.738   5.189   9.300 -0.8505  1.1879 -2.0464
61132SOL    HW290637  11.858   5.280   9.313 -0.7807  0.9187 -0.6116
61133SOL     OW90638  10.314   3.475   3.046 -0.3729  0.1993 -0.2012
61133SOL    HW190639  10.331   3.526   3.125  0.2928  1.1125 -0.9114
61133SOL    HW290640  10.226   3.439   3.058  0.8007 -2.1949  2.2888
61134SOL     OW90641   5.712   8.039   1.776  0.0773  0.3187 -0.3852
61134SOL    HW190642   5.628   7.997   1.757  0.5461 -0.7386 -0.1650
61134SOL    HW290643   5.712   8.117   1.721 -1.0270  0.3057 -0.4287
61135SOL     OW90644   6.130   7.795  10.333 -0.1156 -0.4605 -0.3500
61135SOL    HW190645   6.176   7.829  10.255  1.8575 -1.1105  0.4566
61135SOL    HW290646   6.197   7.745  10.380 -1.3202 -0.2884  1.6595
61136SOL     OW90647  11.717   1.994   3.291  0.0699  0.0937  0.3660
61136SOL    HW190648  11.635   1.958   3.324  0.7615 -0.7265  1.2721
61136SOL    HW290649  11.774   1.999   3.368  1.1600 -0.2045 -0.3898
61137SOL     OW90650   7.824   2.146   9.035 -0.3865 -0.4843  0.3643
61137SOL    HW190651   7.760   2.078   9.057 -2.1957  0.3226 -1.8857
61137SOL    HW290652   7.909   2.109   9.059 -1.3116 -3.3846 -0.4242
61138SOL     OW90653   1.093   0.315   6.759 -0.0533 -0.7068 -0.0132
61138SOL    HW190654   1.034   0.330   6.685  1.6747  0.6351 -1.1971
61138SOL    HW290655   1.100   0.220   6.766  0.3516 -0.8738 -2.1060
61139SOL     OW90656   6.344   6.231   0.956 -0.4405  0.1801 -0.8995
61139SOL    HW190657   6.386   6.157   0.912 -0.8341 -2.3221  2.4748
61139SOL    HW290658   6.391   6.239   1.039 -2.4806  1.5774  0.2148
61140SOL     OW90659   3.733  11.111   2.083  0.1489 -0.7438 -0.1187
61140SOL    HW190660   3.737  11.078   1.994 -1.0179 -1.4247  0.0569
61140SOL    HW290661   3.818  11.088   2.121  0.8998  0.1361 -1.2328
61141SOL     OW90662   3.817   7.564  12.255 -0.0806 -0.6651  0.4016
61141SOL    HW190663   3.891   7.537  12.201 -0.3445  0.8369 -0.7949
61141SOL    HW290664   3.740   7.529  12.210 -0.2538 -0.0364  0.1954
61142SOL     OW90665  12.046   9.293   5.715  0.6020  0.0784 -0.7479
61142SOL    HW190666  12.141   9.287   5.726  0.6102 -0.5920 -1.1299
61142SOL    HW290667  12.029   9.254   5.629  0.1343  1.6157 -1.4030
61143SOL     OW90668   5.007   1.395  11.972  0.2346 -0.0233 -0.0146
61143SOL    HW190669   5.013   1.394  12.068  0.7388 -2.4149 -0.0049
61143SOL    HW290670   5.079   1.452  11.945  0.1602  0.5956  1.0195
61144SOL     OW90671   8.483   9.957   4.754  0.0376 -0.0063 -0.2789
61144SOL    HW190672   8.576   9.972   4.772 -0.4135  0.9276  1.4199
61144SOL    HW290673   8.482   9.917   4.667  2.0351 -0.1961 -0.2549
61145SOL     OW90674   3.112  12.633   7.670  0.0611 -0.4163 -0.3433
61145SOL    HW190675   3.090  12.627   7.577  1.0563  2.2315 -0.8501
61145SOL    HW290676   3.202  12.599   7.676  0.2183 -0.0186 -0.4568
61146SOL     OW90677   1.113   1.462   1.700  0.0600  0.4451  0.2460
61146SOL    HW190678   1.114   1.375   1.662  0.8908 -0.6910  2.6896
61146SOL    HW290679   1.020   1.483   1.710 -0.1900 -1.0428  1.4306
61147SOL     OW90680   4.018   5.185   0.506 -0.1790 -0.3871 -0.4362
61147SOL    HW190681   3.936   5.136   0.516 -0.0895 -0.2936  0.9602
61147SOL    HW290682   4.070   5.134   0.445 -0.5425 -1.4284  0.1130
61148SOL     OW90683   2.632   4.027   6.879 -0.3063 -0.3003  0.6496
61148SOL    HW190684   2.592   4.045   6.964 -1.2909  0.0685  0.1284
61148SOL    HW290685   2.585   4.084   6.818  0.4719 -0.4662 -0.1194
61149SOL     OW90686   0.801   6.640  12.596 -0.1923  0.0803 -0.5278
61149SOL    HW190687   0.809   6.583  12.520 -0.2085 -0.8747  0.1730
61149SOL    HW290688   0.731   6.701  12.572  0.1858  0.1508 -1.4915
61150SOL     OW90689  12.518  12.709   6.623  0.1576 -0.4924 -0.1682
61150SOL    HW190690  12.450  12.659   6.670 -1.3265 -1.4554 -3.0635
61150SOL    HW290691  12.497  12.800   6.642 -1.5255 -0.7906 -0.3874
61151SOL     OW90692   6.377  10.679   9.889  0.5497 -0.4018 -0.0194
61151SOL    HW190693   6.343  10.645   9.807  1.0607 -0.5830 -0.1625
61151SOL    HW290694   6.466  10.642   9.895 -0.0028 -1.6313  1.3427
61152SOL     OW90695   3.344   8.359   1.898  0.1452  0.6248  0.1016
61152SOL    HW190696   3.340   8.361   1.994  0.1473  1.1098  0.0910
61152SOL    HW290697   3.407   8.427   1.875  1.2215 -0.4337 -0.1900
61153SOL     OW90698  12.310   8.175  12.107  0.5809  0.2390 -0.0811
61153SOL    HW190699  12.384   8.171  12.047  0.7041  0.3894  0.0576
61153SOL    HW290700  12.339   8.125  12.183 -0.5832 -2.2805 -1.1996
61154SOL     OW90701   0.842   7.505   7.900  0.2103 -0.0243  0.2862
61154SOL    HW190702   0.858   7.567   7.829 -0.0779  1.1830  1.2333
61154SOL    HW290703   0.919   7.513   7.956 -0.2241  0.1444  0.8718
61155SOL     OW90704  11.672   2.070   0.669  0.5770 -0.0872 -0.2453
61155SOL    HW190705  11.761   2.049   0.639  1.5419  0.0716  2.2920
61155SOL    HW290706  11.639   1.988   0.705  0.2255  0.1754  0.0401
61156SOL     OW90707   1.251   4.035   4.340  0.9004 -0.1359  0.0617
61156SOL    HW190708   1.240   3.941   4.333  0.2459 -0.3784  3.0023
61156SOL    HW290709   1.177   4.071   4.290  1.5325 -1.0931 -1.6494
61157SOL     OW90710  12.057   6.854   8.551 -0.3919  0.4419  0.2799
61157SOL    HW190711  12.058   6.786   8.484  2.1920  1.2123 -0.6061
61157SOL    HW290712  12.014   6.928   8.508 -1.1921  0.0920  0.4610
61158SOL     OW90713   7.634   9.227   2.907  0.1735  0.0490  0.1334
61158SOL    HW190714   7.682   9.161   2.857 -0.0119 -0.7850  1.0309
61158SOL    HW290715   7.545   9.192   2.912  0.0759  0.3654  0.6269
61159SOL     OW90716   3.878  11.558   5.722 -0.3375  0.4961 -0.1947
61159SOL    HW190717   3.791  11.560   5.682 -1.1060 -1.1896  1.2611
61159SOL    HW290718   3.929  11.500   5.664 -0.3640  0.9762 -0.7026
61160SOL     OW90719   8.290  12.326   2.629  0.4483  0.9732  0.1383
61160SOL    HW190720   8.332  12.372   2.702  0.4188 -1.0531  1.5176
61160SOL    HW290721   8.324  12.236   2.634 -2.9088 -0.4470  0.5044
61161SOL     OW90722   0.133   4.136  10.160 -0.3246 -0.0276  0.4678
61161SOL    HW190723   0.130   4.147  10.065 -0.7302  0.7373  0.5627
61161SOL    HW290724   0.090   4.214  10.194  0.3864  0.0108  1.3011
61162SOL     OW90725   9.773   2.258   0.821 -0.3530  0.3435 -0.4037
61162SOL    HW190726   9.727   2.177   0.799 -0.7161  0.6163 -0.6620
61162SOL    HW290727   9.725   2.294   0.895 -1.0242  1.0179 -1.1591
61163SOL     OW90728  10.150  12.233   2.211  1.0487  0.5335  0.2361
61163SOL    HW190729  10.171  12.162   2.150 -0.5741  0.5106 -0.3241
61163SOL    HW290730  10.236  12.266   2.238  1.8227 -0.5714 -0.7333
61164SOL     OW90731   7.889  11.773   2.060 -0.6623  0.0986  0.2479
61164SOL    HW190732   7.906  11.705   2.125 -0.4569  0.2699  0.3695
61164SOL    HW290733   7.851  11.845   2.110 -0.1461  0.3780  0.2334
61165SOL     OW90734  10.844   1.278   3.747  0.1916  0.4629  0.1743
61165SOL    HW190735  10.803   1.228   3.677  0.6454  0.2747  0.0422
61165SOL    HW290736  10.870   1.212   3.812 -2.2753  0.7829  1.6355
61166SOL     OW90737  11.560   6.410   8.362  0.0596 -0.0837  0.2150
61166SOL    HW190738  11.621   6.449   8.425  0.9977  0.2858 -0.8965
61166SOL    HW290739  11.541   6.481   8.300  0.9052 -1.0343 -1.1981
61167SOL     OW90740  10.838   1.806   5.570  0.5241 -0.1770  0.4260
61167SOL    HW190741  10.895   1.729   5.563  1.2074  0.3638  0.0029
61167SOL    HW290742  10.868   1.851   5.649  0.1424 -0.3145  0.6562
61168SOL     OW90743   7.071  10.197   6.505  0.6771 -0.6268  0.1439
61168SOL    HW190744   7.028  10.123   6.463 -0.3511 -0.9391  1.6651
61168SOL    HW290745   6.999  10.251   6.538  1.4162 -0.2865  1.2727
61169SOL     OW90746   9.791   3.684   3.540 -0.1504  0.1129  0.6984
61169SOL    HW190747   9.771   3.631   3.617 -1.4003 -2.0068 -0.9560
61169SOL    HW290748   9.862   3.637   3.496 -0.3810  0.5000 -0.1210
61170SOL     OW90749  10.582   8.992   0.511 -0.0553  0.0877  0.2597
61170SOL    HW190750  10.673   8.978   0.485  0.0437  1.5988 -0.3222
61170SOL    HW290751  10.533   8.990   0.429 -0.4969 -0.3465  0.5292
61171SOL     OW90752  12.185   7.695   5.493 -0.2490  0.1456 -0.6316
61171SOL    HW190753  12.092   7.690   5.513 -0.5338 -0.1308 -1.9889
61171SOL    HW290754  12.201   7.788   5.477 -0.3517  0.1497 -0.7078
61172SOL     OW90755   8.091   6.840   1.475  0.0419  0.4290  0.0540
61172SOL    HW190756   8.150   6.766   1.459 -0.9550 -0.9572  2.2542
61172SOL    HW290757   8.145   6.917   1.456  1.5736 -0.8131 -0.9671
61173SOL     OW90758   3.651   5.737  10.063  0.5683  0.1819 -0.2300
61173SOL    HW190759   3.667   5.755   9.970  0.5224  0.2098 -0.2325
61173SOL    HW290760   3.675   5.818  10.108  0.3626  0.2482 -0.2418
61174SOL     OW90761   5.428   1.992   8.446 -0.5828  0.0488 -0.2908
61174SOL    HW190762   5.339   1.958   8.442 -0.2491 -0.8226 -0.6059
61174SOL    HW290763   5.426   2.072   8.393 -1.1574 -0.0034 -0.3466
61175SOL     OW90764   0.949  11.628   0.763 -0.5599 -0.3431 -0.2893
61175SOL    HW190765   0.912  11.606   0.849  0.5690 -1.1440  0.0125
61175SOL    HW290766   1.025  11.683   0.783 -1.6473  1.4795 -0.9154
61176SOL     OW90767   9.157  10.053   1.049  0.3930 -0.2289  0.3110
61176SOL    HW190768   9.098  10.066   0.975 -0.6622 -0.2813  1.1276
61176SOL    HW290769   9.217  10.127   1.044  1.2651 -0.9879 -1.4287
61177SOL     OW90770   1.136   9.159   3.279 -0.1907  0.1476  0.1419
61177SOL    HW190771   1.154   9.069   3.250 -1.6317 -0.3836  0.7806
61177SOL    HW290772   1.081   9.148   3.356 -1.1446  1.5912 -0.2921
61178SOL     OW90773   2.013   3.043   4.380  0.0178 -0.0135  0.1182
61178SOL    HW190774   1.945   3.026   4.315 -0.8004  0.4368  0.8277
61178SOL    HW290775   2.074   2.971   4.370 -0.9494 -0.8363 -0.0732
61179SOL     OW90776   4.380   8.599   4.890  0.4440 -0.2166  0.1596
61179SOL    HW190777   4.426   8.673   4.929  1.6691 -0.4861 -0.7043
61179SOL    HW290778   4.299   8.636   4.856  1.3209  0.8981 -0.8244
61180SOL     OW90779  10.774   1.283   1.392 -0.5300  0.6288  0.2290
61180SOL    HW190780  10.788   1.216   1.325 -0.2279  1.7991 -0.8990
61180SOL    HW290781  10.861   1.303   1.426 -0.6560  0.2201  0.8206
61181SOL     OW90782   7.259   4.838   4.358  0.0104 -0.6639  0.5764
61181SOL    HW190783   7.199   4.870   4.290  0.5674  2.1694  1.2961
61181SOL    HW290784   7.202   4.789   4.418 -1.1540 -0.1227 -0.0394
61182SOL     OW90785   8.195   0.093   6.309  0.3542  0.0542  0.0969
61182SOL    HW190786   8.288   0.073   6.321  0.0723  0.0080  2.9313
61182SOL    HW290787   8.177   0.163   6.373 -1.5891 -0.0377 -0.2887
61183SOL     OW90788   2.768   4.383   1.635 -0.1004  0.0219  0.0488
61183SOL    HW190789   2.799   4.345   1.552  0.7007  0.2635  0.2292
61183SOL    HW290790   2.708   4.453   1.609  0.0667  0.0261 -0.3244
61184SOL     OW90791   6.775   7.910   7.735 -0.3246 -0.3249 -0.2327
61184SOL    HW190792   6.733   7.870   7.812  1.1629 -0.1234  0.7348
61184SOL    HW290793   6.810   7.993   7.768  0.5286 -0.3383 -1.0753
61185SOL     OW90794   2.323   8.371  11.230  0.2043 -0.2356  0.4985
61185SOL    HW190795   2.315   8.289  11.181  0.0869  0.1575 -0.1582
61185SOL    HW290796   2.316   8.346  11.322  0.2062 -0.9634  0.3023
61186SOL     OW90797   4.650   1.447  10.377 -0.6234  0.5051 -0.6056
61186SOL    HW190798   4.648   1.517  10.442  1.6990 -1.4106  1.6867
61186SOL    HW290799   4.591   1.381  10.412 -1.8013  0.6809 -2.1241
61187SOL     OW90800   6.307   5.811  12.435  0.0155  0.4429  1.0702
61187SOL    HW190801   6.256   5.806  12.516  0.2573  1.5748  1.3145
61187SOL    HW290802   6.321   5.720  12.409 -3.3964  0.0127  0.1929
61188SOL     OW90803  12.704   2.081   1.746 -0.3095 -0.0095  0.0236
61188SOL    HW190804  12.657   2.054   1.825  0.2336  0.2736  0.4517
61188SOL    HW290805  12.796   2.083   1.772 -0.1507  0.3667 -0.5365
61189SOL     OW90806   0.933   9.400   6.960 -0.1773 -0.1604  0.1719
61189SOL    HW190807   0.987   9.365   7.031 -0.5608  0.3637  0.7318
61189SOL    HW290808   0.856   9.344   6.958  0.4035 -0.9582 -0.6800
61190SOL     OW90809   1.137  12.075   2.106 -0.9892 -0.6169 -0.2984
61190SOL    HW190810   1.130  12.114   2.018 -3.0468  0.1304  0.1458
61190SOL    HW290811   1.051  12.037   2.122 -0.6860 -0.6144  1.4487
61191SOL     OW90812   1.243   8.814   1.013 -0.2151  0.2550 -0.4956
61191SOL    HW190813   1.158   8.772   1.024 -1.2330  2.3710  0.3843
61191SOL    HW290814   1.289   8.760   0.948 -1.7948 -1.5230 -0.2223
61192SOL     OW90815   2.868   7.142   2.843  0.4791 -0.2583  0.8831
61192SOL    HW190816   2.887   7.145   2.749  0.7104 -0.5548  0.9199
61192SOL    HW290817   2.942   7.188   2.883  0.9290 -1.0566  0.9960
61193SOL     OW90818  10.718   8.790  12.106 -0.2868  0.2761  0.6229
61193SOL    HW190819  10.763   8.837  12.176 -1.6556 -1.5001  2.8077
61193SOL    HW290820  10.743   8.699  12.118  0.6418  0.0466 -2.2217
61194SOL     OW90821   7.692  11.965  11.188 -0.2873 -0.6681  0.4105
61194SOL    HW190822   7.730  11.901  11.248  0.8201 -0.9926 -0.5757
61194SOL    HW290823   7.697  11.922  11.102 -0.8792  0.1793 -0.0596
61195SOL     OW90824  11.552   0.151   3.698 -0.3099  0.5860 -0.1288
61195SOL    HW190825  11.633   0.179   3.740 -1.6068  0.6593  2.5289
61195SOL    HW290826  11.534   0.217   3.632  2.0624  0.2346 -1.2018
61196SOL     OW90827   9.032   5.297   4.867 -0.2290 -0.0942 -0.1647
61196SOL    HW190828   8.966   5.360   4.837  0.2740  0.9388  0.8312
61196SOL    HW290829   9.114   5.327   4.828 -0.1860 -0.8639 -0.6889
61197SOL     OW90830   6.092   9.270  12.501 -0.2849 -0.3387 -0.4770
61197SOL    HW190831   6.112   9.258  12.594 -0.5011  2.0463 -0.0482
61197SOL    HW290832   6.156   9.216  12.455  1.3632  0.2131  1.0417
61198SOL     OW90833   4.937   7.037  11.181  0.0133 -0.3056 -0.1529
61198SOL    HW190834   4.857   7.089  11.170 -0.9128 -1.5938  0.3615
61198SOL    HW290835   4.995   7.094  11.231 -0.6670  0.5502 -0.3112
61199SOL     OW90836   4.098   2.400   6.732  0.7041 -0.6066 -0.1920
61199SOL    HW190837   4.007   2.429   6.733  0.5496 -1.0928  1.1704
61199SOL    HW290838   4.143   2.467   6.680 -0.1366  0.5715  0.5425
61200SOL     OW90839   5.593   2.001   9.518 -0.2789  0.1350  0.2174
61200SOL    HW190840   5.636   2.051   9.588  1.7729  0.6110 -1.2720
61200SOL    HW290841   5.629   1.913   9.526 -1.2378 -0.2175  0.7084
61201SOL     OW90842   4.681   4.094   3.015 -0.4791 -0.3844 -0.3066
61201SOL    HW190843   4.770   4.109   3.045 -0.9602  0.1410  0.9465
61201SOL    HW290844   4.668   4.000   3.024 -0.5918 -0.2548  1.1855
61202SOL     OW90845   5.276  10.751   3.590  0.3502  0.6098 -0.6231
61202SOL    HW190846   5.336  10.721   3.659 -0.3509 -1.1553 -0.7151
61202SOL    HW290847   5.331  10.806   3.533  1.4948  0.2991  0.1327
61203SOL     OW90848  11.264   7.680   9.816 -0.9760  0.5140  0.0942
61203SOL    HW190849  11.241   7.587   9.816  1.0770 -0.0988  2.3647
61203SOL    HW290850  11.187   7.724   9.852  0.0846 -1.2159  5.4927
61204SOL     OW90851   7.592   0.198   3.300 -0.0948  0.1023  0.0586
61204SOL    HW190852   7.632   0.275   3.340 -1.1043  0.3882  0.5493
61204SOL    HW290853   7.542   0.157   3.371 -0.1090 -0.6322 -0.3660
61205SOL     OW90854   9.985   6.117   2.866 -0.2188 -0.1304  0.3915
61205SOL    HW190855   9.945   6.054   2.805 -0.7107  0.1386  0.4336
61205SOL    HW290856  10.066   6.074   2.894 -1.2045 -1.3508  1.4866
61206SOL     OW90857   7.182   0.353  11.286  0.4206 -0.2652  0.5075
61206SOL    HW190858   7.181   0.448  11.293  0.0791 -0.2890  0.8184
61206SOL    HW290859   7.265   0.326  11.327  0.2164 -0.1432  1.0060
61207SOL     OW90860   8.081   9.192   7.393 -0.0004 -0.0077  0.0567
61207SOL    HW190861   8.084   9.132   7.468  0.0689  0.8257  0.7326
61207SOL    HW290862   7.990   9.191   7.364 -0.2496  0.4401  0.8001
61208SOL     OW90863   8.460   6.903   9.255 -0.1294  0.2454  0.2679
61208SOL    HW190864   8.452   6.876   9.163 -2.1384 -0.6253  0.6386
61208SOL    HW290865   8.457   6.821   9.304  0.0730  0.7537  1.1531
61209SOL     OW90866   4.997  11.987   6.248  0.3087  0.1832 -0.1570
61209SOL    HW190867   4.908  11.966   6.276 -0.4618  1.0813 -1.7934
61209SOL    HW290868   5.045  11.905   6.255 -0.8685 -0.5096 -0.0411
61210SOL     OW90869   0.584   6.779  12.525 -0.1399  0.1615 -0.3592
61210SOL    HW190870   0.547   6.822  12.602 -1.4955  0.5389 -1.1744
61210SOL    HW290871   0.507   6.752  12.475  0.5429 -4.2833  0.6030
61211SOL     OW90872   1.416   9.362   2.851  0.2100 -0.3717 -0.2297
61211SOL    HW190873   1.342   9.374   2.911  0.6024 -1.2941  0.4737
61211SOL    HW290874   1.455   9.449   2.843  1.2290 -0.4998  2.3281
61212SOL     OW90875   6.227   8.465   6.846 -0.3009 -0.0574 -0.3883
61212SOL    HW190876   6.238   8.392   6.786 -0.0064 -0.9539  0.7297
61212SOL    HW290877   6.134   8.465   6.868 -0.1263 -0.7460  0.3934
61213SOL     OW90878   2.000   2.895   6.612 -0.0240 -0.0874 -0.1680
61213SOL    HW190879   1.915   2.877   6.652  0.6097 -1.7078  0.5498
61213SOL    HW290880   2.029   2.811   6.577  0.5765  0.7754 -1.8542
61214SOL     OW90881   2.467  10.082   1.328 -0.3524  0.2088 -0.2488
61214SOL    HW190882   2.556  10.109   1.307 -0.9075  2.4976 -0.0022
61214SOL    HW290883   2.462   9.991   1.300  2.5595 -0.5670  1.3008
61215SOL     OW90884   9.681  11.969   1.703  0.0352  0.2599 -0.2125
61215SOL    HW190885   9.647  12.046   1.749 -0.6722 -1.0670  1.6316
61215SOL    HW290886   9.614  11.948   1.638 -1.0547 -0.2919  1.0510
61216SOL     OW90887  10.090  11.097   9.309  0.8536  0.3983  0.3445
61216SOL    HW190888  10.137  11.031   9.359  1.0434 -0.1148 -0.4940
61216SOL    HW290889  10.073  11.056   9.224 -1.5051  0.3864  0.7451
61217SOL     OW90890  10.516   4.764   4.424  0.1337 -0.1667  0.8955
61217SOL    HW190891  10.612   4.770   4.422  0.0196  2.5612  0.4119
61217SOL    HW290892  10.493   4.784   4.514 -0.0152 -0.7501  0.9932
61218SOL     OW90893   6.943   5.578  10.245 -0.2076 -0.1491  0.1339
61218SOL    HW190894   6.909   5.649  10.191 -1.0083 -0.0343  0.7604
61218SOL    HW290895   6.968   5.510  10.183 -0.8681  0.0824 -0.4034
61219SOL     OW90896   0.108   3.587   6.213 -0.5593  0.6768 -0.1484
61219SOL    HW190897   0.182   3.539   6.251  0.7763  1.8632 -1.1445
61219SOL    HW290898   0.031   3.534   6.236  0.6382 -0.9121  0.4147
61220SOL     OW90899   0.624   4.016   2.281  0.0706 -0.7281  0.7105
61220SOL    HW190900   0.591   3.993   2.368 -2.1106 -0.5803 -0.0104
61220SOL    HW290901   0.550   4.060   2.238  1.6475  0.8215 -0.6120
61221SOL     OW90902  11.881   1.492  11.956  0.1250  0.0105 -0.7744
61221SOL    HW190903  11.923   1.482  12.041 -1.6574  0.8750  0.2898
61221SOL    HW290904  11.788   1.472  11.973 -0.7940  2.8537 -1.8504
61222SOL     OW90905  10.382   0.359  12.010  0.5888 -0.1857  0.1433
61222SOL    HW190906  10.295   0.352  12.049  0.8461  1.4015  1.0804
61222SOL    HW290907  10.438   0.307  12.067  0.0985 -2.1878 -1.1209
61223SOL     OW90908   7.021   0.524  11.603  0.4948  0.2830  0.3635
61223SOL    HW190909   7.030   0.582  11.678  0.5557 -1.0321  1.4031
61223SOL    HW290910   7.043   0.438  11.636  0.2089 -0.3838 -1.0959
61224SOL     OW90911   9.156   9.434   7.700  0.1728 -0.8320  0.1992
61224SOL    HW190912   9.149   9.521   7.659  1.3557  0.7009  2.9585
61224SOL    HW290913   9.067   9.400   7.700 -0.6442  1.1673  0.5792
61225SOL     OW90914   3.268   6.591   6.139 -0.3979 -0.1361  0.1945
61225SOL    HW190915   3.325   6.515   6.146  1.2258  1.1010  1.1427
61225SOL    HW290916   3.200   6.577   6.206 -0.9199 -1.3477 -0.5581
61226SOL     OW90917  12.201   5.795   7.988 -0.2809  0.2795 -0.0495
61226SOL    HW190918  12.207   5.704   7.959  1.3993  1.2619 -3.2803
61226SOL    HW290919  12.277   5.808   8.044 -0.9766 -0.4288  1.1206
61227SOL     OW90920   5.279   0.083   8.864  0.1668 -0.0928  0.5923
61227SOL    HW190921   5.306   0.077   8.956 -0.3720  0.1735  0.7691
61227SOL    HW290922   5.298  -0.004   8.828 -2.8822 -1.4085  1.8463
61228SOL     OW90923   9.270   9.820   5.464  0.4177  0.2694 -0.1889
61228SOL    HW190924   9.342   9.883   5.468  2.2418 -1.6372 -0.7856
61228SOL    HW290925   9.255   9.808   5.370 -0.2750  0.2203 -0.0699
61229SOL     OW90926   7.082   0.934   9.564  0.0682  0.0304  0.2016
61229SOL    HW190927   7.125   1.017   9.583 -0.3716  0.7994 -1.8954
61229SOL    HW290928   7.133   0.896   9.492 -1.7947  0.2650 -1.3314
61230SOL     OW90929   8.802   1.186   2.821  0.3150 -0.3665 -0.3789
61230SOL    HW190930   8.781   1.103   2.865  0.0821 -0.2826 -0.3298
61230SOL    HW290931   8.840   1.241   2.890  0.7018 -0.5171 -0.4673
61231SOL     OW90932  11.986   3.357   9.840 -0.0499  0.3945  0.1866
61231SOL    HW190933  12.013   3.267   9.861 -0.5636  0.4599  1.1840
61231SOL    HW290934  12.043   3.412   9.892  1.2120  0.7315 -1.4741
61232SOL     OW90935   3.383   1.120   2.891 -0.0223 -0.2460  0.0798
61232SOL    HW190936   3.432   1.173   2.953 -0.6878  0.3153  0.1421
61232SOL    HW290937   3.448   1.061   2.853  0.5935  0.1290  0.5287
61233SOL     OW90938   9.126  11.238   5.043 -0.1802 -0.5342 -0.1227
61233SOL    HW190939   9.147  11.317   5.092  0.0094 -1.0632  0.6768
61233SOL    HW290940   9.188  11.172   5.076 -1.8115 -1.6322  0.9337
61234SOL     OW90941   4.722   6.101   4.901  0.3661  0.2688 -0.9031
61234SOL    HW190942   4.724   6.197   4.894  0.5451  0.3764  0.3149
61234SOL    HW290943   4.814   6.076   4.904  0.3329 -0.0263 -1.9937
61235SOL     OW90944  12.171   1.921   9.504 -0.1441  0.6487 -0.1103
61235SOL    HW190945  12.181   1.979   9.429  1.1497  0.0200 -0.4400
61235SOL    HW290946  12.206   1.837   9.475  0.0235  0.2889  1.0747
61236SOL     OW90947   4.990   4.182   4.307  0.0364  0.3456 -0.5865
61236SOL    HW190948   4.899   4.206   4.291 -0.5309 -2.1309 -1.5023
61236SOL    HW290949   5.024   4.251   4.365 -3.4510 -0.5144  2.8828
61237SOL     OW90950  11.944   5.229   7.964 -0.4226 -0.4002  0.2943
61237SOL    HW190951  11.848   5.235   7.969 -0.5724  0.5304 -2.2896
61237SOL    HW290952  11.975   5.302   8.016 -1.1183 -0.5687  0.9686
61238SOL     OW90953   8.969   1.770   1.917  0.2387 -0.3710  0.0458
61238SOL    HW190954   9.057   1.794   1.944  0.2316  0.1129 -0.3559
61238SOL    HW290955   8.911   1.820   1.975  0.2028  1.9713 -1.8854
61239SOL     OW90956   4.784   4.466   2.793 -0.1485 -1.0746  0.6358
61239SOL    HW190957   4.798   4.371   2.797  0.8791 -0.9673 -0.1395
61239SOL    HW290958   4.872   4.503   2.788 -0.5789 -0.2353 -2.1698
61240SOL     OW90959  12.660  12.537   9.220  0.3472 -0.2724 -0.1792
61240SOL    HW190960  12.634  12.463   9.275 -0.3067  0.4457  0.5002
61240SOL    HW290961  12.663  12.501   9.132 -2.6355 -0.5202 -0.2871
61241SOL     OW90962   8.889   7.571  11.034 -0.1040  0.1200  0.1354
61241SOL    HW190963   8.962   7.578  10.973 -0.9813  1.6010 -0.8129
61241SOL    HW290964   8.926   7.596  11.118  0.4494  1.0950 -0.3780
61242SOL     OW90965  11.471   4.318   9.814  0.2620  0.8672 -0.2280
61242SOL    HW190966  11.438   4.295   9.900  2.1566 -0.2147  0.2751
61242SOL    HW290967  11.486   4.412   9.818  0.6643  0.7756  0.7745
61243SOL     OW90968   3.567   2.220   2.262  0.2146 -0.4920  0.1474
61243SOL    HW190969   3.516   2.181   2.190  0.5374 -2.0401  0.7259
61243SOL    HW290970   3.647   2.168   2.266 -0.2068 -1.0665  2.2293
61244SOL     OW90971   3.891   4.461  11.120 -0.1143 -0.6422  0.2826
61244SOL    HW190972   3.814   4.496  11.076 -0.7124 -0.5175  1.3909
61244SOL    HW290973   3.873   4.473  11.213  2.0680  1.2260  0.5674
61245SOL     OW90974  11.745   7.169   8.314 -0.4921  0.3904  0.4074
61245SOL    HW190975  11.675   7.111   8.344 -0.1556  0.1850  0.7901
61245SOL    HW290976  11.710   7.257   8.327  0.0018  0.3415  2.3067
61246SOL     OW90977   0.942   1.043   1.465  0.1780 -0.5656  0.3922
61246SOL    HW190978   0.903   0.959   1.441 -0.0587 -0.0699 -1.0334
61246SOL    HW290979   0.882   1.079   1.530 -0.4903 -0.8626 -0.0448
61247SOL     OW90980   2.694   9.327  12.612  0.9340 -0.2057  0.2079
61247SOL    HW190981   2.656   9.379  12.684  1.4910  0.5064 -0.0033
61247SOL    HW290982   2.710   9.391  12.543 -0.1978 -0.9953 -0.8079
61248SOL     OW90983  11.927   6.076   5.435 -0.2072 -0.1449 -0.0715
61248SOL    HW190984  11.934   6.052   5.343 -1.5180  1.5196 -0.6716
61248SOL    HW290985  11.961   6.166   5.438  0.9004 -0.5714  1.3108
61249SOL     OW90986   6.867   6.467   3.057 -0.2017 -0.5266 -0.1897
61249SOL    HW190987   6.814   6.411   3.000 -1.1211 -0.5879  0.7019
61249SOL    HW290988   6.818   6.549   3.062  0.8210  0.1692 -0.9747
61250SOL     OW90989   7.482   9.067   8.403 -0.4032  0.2445  0.4353
61250SOL    HW190990   7.571   9.033   8.397 -0.8182 -0.6903 -1.1212
61250SOL    HW290991   7.489   9.158   8.373  0.3721  0.9573  2.6061
61251SOL     OW90992   5.639   0.848   8.543 -0.4093  0.5080 -0.0961
61251SOL    HW190993   5.720   0.800   8.527 -0.8878 -0.4679  0.3222
61251SOL    HW290994   5.667   0.932   8.578  0.4114  0.0988  0.2471
61252SOL     OW90995   8.921   0.859   9.126  0.4203 -0.0542  0.1067
61252SOL    HW190996   9.000   0.872   9.073  0.5661  0.5984  0.4731
61252SOL    HW290997   8.873   0.941   9.118 -0.2286 -0.4505 -0.1144
61253SOL     OW90998   2.800   7.158  11.308 -0.2503 -0.1966  0.0298
61253SOL    HW190999   2.743   7.118  11.243 -0.6289  0.1633  0.1344
61253SOL    HW291000   2.745   7.167  11.387 -0.9455  2.5849 -0.6416
61254SOL     OW91001   3.585   7.451   9.977 -0.2508 -0.4050  0.3072
61254SOL    HW191002   3.510   7.395   9.998 -0.2147 -0.3226  0.6774
61254SOL    HW291003   3.594   7.507  10.055 -0.9216  0.8173 -0.4622
61255SOL     OW91004   8.857   3.452  11.496  0.1698  0.0876  0.2061
61255SOL    HW191005   8.785   3.407  11.542 -0.6198  1.7574  0.6756
61255SOL    HW291006   8.815   3.493  11.421  0.6892  0.8462  0.3269
61256SOL     OW91007   1.959  12.195  10.842 -0.3505  0.1772 -0.4209
61256SOL    HW191008   2.054  12.200  10.846 -0.3358 -0.4602  0.2443
61256SOL    HW291009   1.939  12.104  10.865 -1.0750  0.0854 -1.3727
61257SOL     OW91010   7.519  11.972   8.972  0.4318  0.3048 -0.1014
61257SOL    HW191011   7.571  11.961   9.052 -1.6159  2.5339  1.6736
61257SOL    HW291012   7.430  11.947   8.997  0.0411 -0.6918 -2.2541
61258SOL     OW91013   6.056  10.822   2.135  0.1649 -0.5732 -0.5739
61258SOL    HW191014   6.040  10.916   2.145 -2.1287 -1.1819  3.8344
61258SOL    HW291015   6.015  10.799   2.051 -2.1652  1.8428 -0.2162
61259SOL     OW91016  10.097   7.732   1.811 -0.5259 -0.3577 -0.1712
61259SOL    HW191017  10.020   7.689   1.849  0.5828 -0.5529  2.0396
61259SOL    HW291018  10.147   7.660   1.771  0.7313 -1.0822  2.4736
61260SOL     OW91019   3.890   0.418   9.896 -0.2140  0.2065  0.0096
61260SOL    HW191020   3.925   0.453   9.978 -1.1346  2.3843 -0.4593
61260SOL    HW291021   3.867   0.496   9.845  2.3116 -0.9615 -3.2553
61261SOL     OW91022   1.297  11.767  11.445  0.0855 -0.3269  0.3647
61261SOL    HW191023   1.234  11.734  11.510 -0.9259 -0.2468 -0.5550
61261SOL    HW291024   1.292  11.863  11.453  0.5970 -0.3231  0.7438
61262SOL     OW91025   2.313   7.782   5.070  0.1118 -0.1262  0.0775
61262SOL    HW191026   2.360   7.859   5.104  2.1784 -1.1571 -0.3113
61262SOL    HW291027   2.380   7.729   5.028 -1.8163 -0.3457 -3.1299
61263SOL     OW91028  11.027   9.515   5.526  0.1895  0.0378 -0.0918
61263SOL    HW191029  10.947   9.510   5.577 -0.1574 -0.5577 -0.6767
61263SOL    HW291030  11.091   9.554   5.586  0.0268 -1.4006  1.0919
61264SOL     OW91031   3.781   9.209  10.269  0.1265 -0.3081  0.0591
61264SOL    HW191032   3.842   9.282  10.258 -0.5256  0.1244 -0.8288
61264SOL    HW291033   3.814   9.141  10.210 -0.2996 -0.0261 -0.5195
61265SOL     OW91034   3.769  10.945   9.451  0.0727  0.1419  0.4224
61265SOL    HW191035   3.845  10.944   9.393 -0.2982 -1.9426 -0.1086
61265SOL    HW291036   3.694  10.941   9.392 -0.3692 -0.0892  0.9937
61266SOL     OW91037   8.897   2.749   8.421  0.0940 -0.0295  0.4293
61266SOL    HW191038   8.878   2.659   8.446  0.9958 -0.3299  0.0695
61266SOL    HW291039   8.977   2.743   8.369 -0.3530  0.8668 -0.3957
61267SOL     OW91040   9.113   2.087   6.982  0.2350 -0.4462 -0.5906
61267SOL    HW191041   9.021   2.066   6.965  0.4658 -2.2197  0.1925
61267SOL    HW291042   9.139   2.028   7.052  1.6437  0.8958  0.0884
61268SOL     OW91043   0.777   6.404  11.048 -0.2817 -0.8403 -0.3508
61268SOL    HW191044   0.688   6.413  11.013 -2.1594 -2.8694  3.2791
61268SOL    HW291045   0.813   6.328  11.003 -0.7007 -0.5163 -1.2546
61269SOL     OW91046   6.745  12.249   0.142  0.6169  0.1713 -1.0145
61269SOL    HW191047   6.691  12.307   0.195 -0.5163 -1.7666  0.0817
61269SOL    HW291048   6.690  12.225   0.068 -0.1903 -1.9247  0.1823
61270SOL     OW91049   2.236  10.263  12.295  0.4468 -0.1413 -0.0874
61270SOL    HW191050   2.211  10.343  12.343 -1.2659 -1.4711  1.3870
61270SOL    HW291051   2.171  10.256  12.225 -0.0547 -0.7651  0.4286
61271SOL     OW91052  11.455   2.741   2.868  0.1982 -0.3424 -0.4427
61271SOL    HW191053  11.434   2.656   2.908  0.7845 -0.8324 -1.1506
61271SOL    HW291054  11.465   2.721   2.774 -0.2338  0.6160 -0.7025
61272SOL     OW91055   5.514   6.115   2.836  0.1367  0.2924 -0.1222
61272SOL    HW191056   5.434   6.135   2.787  0.5889 -0.7893 -1.3463
61272SOL    HW291057   5.520   6.186   2.901 -3.0872 -0.8162  1.6309
61273SOL     OW91058   3.407   5.375   2.132 -0.2985  0.4240  0.1481
61273SOL    HW191059   3.334   5.313   2.131  0.6795 -0.7815  0.4750
61273SOL    HW291060   3.448   5.364   2.046 -0.4076  0.9843  0.0220
61274SOL     OW91061   7.563   6.186   2.015 -0.5393 -0.3261 -0.8749
61274SOL    HW191062   7.549   6.260   1.956  2.0544  0.3561 -0.7285
61274SOL    HW291063   7.573   6.226   2.101 -0.1160 -0.9375 -0.6333
61275SOL     OW91064   2.597   1.996  10.956 -0.0539  0.1406 -0.3743
61275SOL    HW191065   2.661   1.925  10.965  1.9330  1.8040 -0.6137
61275SOL    HW291066   2.555   1.979  10.872 -1.2483 -1.9388  0.5632
61276SOL     OW91067   2.742   4.943   5.013 -0.2410  0.3740 -0.1264
61276SOL    HW191068   2.648   4.956   4.999 -0.1009  0.7676 -0.7423
61276SOL    HW291069   2.750   4.853   5.045 -0.7074 -0.1286 -1.3630
61277SOL     OW91070   9.313  11.210  11.408  0.2818 -0.3705  0.0064
61277SOL    HW191071   9.336  11.151  11.479 -0.3789 -1.0475 -0.3279
61277SOL    HW291072   9.219  11.197  11.395  0.1712  0.5757 -0.2393
61278SOL     OW91073   6.441  11.126  11.275  0.0088 -0.0570  0.6717
61278SOL    HW191074   6.386  11.076  11.215  0.1684  0.0136  0.4671
61278SOL    HW291075   6.379  11.169  11.334 -0.1257 -0.5974  0.9298
61279SOL     OW91076  12.545  10.632   5.524  0.0581  0.0487  0.0197
61279SOL    HW191077  12.452  10.636   5.502 -0.2614 -0.9136  1.1136
61279SOL    HW291078  12.553  10.557   5.583  1.8950 -1.2780 -1.7607
61280SOL     OW91079   9.090   5.047  12.144  0.3018 -0.0359 -0.0250
61280SOL    HW191080   9.010   5.098  12.160 -0.1575 -0.9206  0.5712
61280SOL    HW291081   9.083   5.019  12.053 -1.2421 -2.0591  0.6386
61281SOL     OW91082   7.719   4.018   2.665 -0.0809 -0.0747 -0.2858
61281SOL    HW191083   7.770   3.976   2.596 -1.9653  0.0578 -1.8245
61281SOL    HW291084   7.681   4.095   2.623  1.9089  2.3584  2.0043
61282SOL     OW91085   8.451   9.632  12.698  0.1025 -0.2716  0.4328
61282SOL    HW191086   8.406   9.575  12.759  0.6570 -0.3683  0.7619
61282SOL    HW291087   8.414   9.719  12.714 -0.5019 -0.4739  0.1648
61283SOL     OW91088  11.241   3.672   8.330 -0.0400  0.2411 -0.1020
61283SOL    HW191089  11.148   3.678   8.311 -0.1176 -0.0846  0.1685
61283SOL    HW291090  11.268   3.588   8.294  0.2418  0.5162 -0.5492
61284SOL     OW91091  12.661   1.665  12.412  0.2943  0.4740  0.3267
61284SOL    HW191092  12.577   1.630  12.442  0.1509  0.8776  0.4120
61284SOL    HW291093  12.694   1.601  12.350  0.6029 -0.3846  1.3486
61285SOL     OW91094   8.284   4.385   9.930 -0.1735 -0.4655  0.2954
61285SOL    HW191095   8.309   4.364  10.020  1.5300  0.1063 -0.0104
61285SOL    HW291096   8.203   4.435   9.939  0.4346  0.3454  1.5753
61286SOL     OW91097   6.596   5.448   1.305 -0.2130 -0.1120 -0.0067
61286SOL    HW191098   6.606   5.511   1.234  0.4610 -0.3000 -0.0797
61286SOL    HW291099   6.657   5.378   1.285  1.1544  0.5531  1.5326
61287SOL     OW91100   6.559  12.105   2.428  0.3939  0.2531 -0.0375
61287SOL    HW191101   6.654  12.112   2.423  0.3157  1.5116 -0.0892
61287SOL    HW291102   6.543  12.059   2.510  1.0796 -1.7578 -0.9636
61288SOL     OW91103   0.413   8.892   1.576 -0.4916 -0.0932  0.7946
61288SOL    HW191104   0.409   8.804   1.615  2.2846 -0.4832  0.4270
61288SOL    HW291105   0.352   8.889   1.503 -1.2542 -1.3562  1.4494
61289SOL     OW91106   0.587   7.929   3.027  0.5302 -0.3186  0.4757
61289SOL    HW191107   0.524   7.951   3.095 -0.2067 -1.6395  0.2660
61289SOL    HW291108   0.536   7.926   2.947  1.1150 -0.1878  0.0874
61290SOL     OW91109   4.338   5.988   7.883 -0.3318  0.3261 -0.1361
61290SOL    HW191110   4.253   6.000   7.926  0.0083 -0.3146  0.7556
61290SOL    HW291111   4.397   5.964   7.954  0.4345  0.0359 -0.8581
61291SOL     OW91112   0.033  10.493  11.753  0.0927  0.0492  0.1119
61291SOL    HW191113   0.109  10.550  11.767 -1.2123  2.0075 -0.2483
61291SOL    HW291114  -0.025  10.512  11.828 -0.8632  0.0688 -0.6084
61292SOL     OW91115   0.087   5.748   5.469  0.0280 -0.1100  0.7531
61292SOL    HW191116   0.039   5.796   5.537 -1.1669 -1.5104  0.9501
61292SOL    HW291117   0.110   5.664   5.511 -0.0182 -0.6691 -0.3051
61293SOL     OW91118  10.428   3.690   1.745 -0.0943  0.1680  0.1870
61293SOL    HW191119  10.337   3.673   1.720  0.0216  0.9020 -0.7819
61293SOL    HW291120  10.422   3.756   1.813 -0.2995  0.0078  0.3267
61294SOL     OW91121   2.773  10.157   0.326  0.1147 -0.0459  0.5156
61294SOL    HW191122   2.856  10.145   0.373  2.2107  2.1987 -2.2350
61294SOL    HW291123   2.757  10.074   0.282  1.6930 -0.1336  0.0391
61295SOL     OW91124  11.809   8.394  11.953 -0.8991  0.1429 -0.2161
61295SOL    HW191125  11.732   8.358  11.910 -0.8859 -0.0471 -0.0848
61295SOL    HW291126  11.779   8.475  11.994 -1.2929 -0.4761  0.7523
61296SOL     OW91127  12.255   3.728   6.386  0.1972  0.5512  0.3751
61296SOL    HW191128  12.239   3.753   6.477  0.9942  0.1150  0.6454
61296SOL    HW291129  12.169   3.701   6.353  0.0083  0.1291  1.1866
61297SOL     OW91130   8.922   1.474   2.960 -0.1916  0.4455  0.3689
61297SOL    HW191131   8.918   1.564   2.993 -0.5238  1.1005 -1.3350
61297SOL    HW291132   8.944   1.484   2.867 -0.2138 -1.2428  0.1538
61298SOL     OW91133   9.447   7.495  11.925 -0.0818 -0.5085 -0.1695
61298SOL    HW191134   9.517   7.560  11.932 -0.6609  0.0226  0.8490
61298SOL    HW291135   9.445   7.452  12.011 -1.2048 -0.3112 -0.0954
61299SOL     OW91136   1.734   2.305   1.467  0.3630  0.3469  0.3947
61299SOL    HW191137   1.640   2.295   1.481  0.5340  1.0812  2.4022
61299SOL    HW291138   1.746   2.397   1.444  0.5136  0.0325 -0.8443
61300SOL     OW91139  10.714   8.321   7.747 -0.4709 -0.0026 -0.3470
61300SOL    HW191140  10.713   8.252   7.814  0.1885  1.5051  1.2796
61300SOL    HW291141  10.639   8.377   7.770 -0.3341  0.4399 -0.9658
61301SOL     OW91142   1.576   8.190  11.078  0.5012  0.7471  0.5764
61301SOL    HW191143   1.515   8.260  11.099  1.0985  0.6848  2.7019
61301SOL    HW291144   1.522   8.111  11.073  0.0294  1.1136 -0.4762
61302SOL     OW91145  10.083   4.050   1.713 -0.6559 -0.1124 -0.1887
61302SOL    HW191146  10.107   4.058   1.805  0.9325  1.6661 -0.6944
61302SOL    HW291147  10.029   4.127   1.696  0.1930  0.2978 -1.0659
61303SOL     OW91148   3.497   1.867   7.451 -0.3730 -0.0286 -0.3416
61303SOL    HW191149   3.490   1.958   7.420  2.1473  0.3781  0.0871
61303SOL    HW291150   3.432   1.862   7.521 -2.0274  0.7667 -1.7135
61304SOL     OW91151   1.036   2.795   0.501 -0.5766  0.2528  0.3660
61304SOL    HW191152   0.993   2.869   0.542  0.0115  0.7274  0.1344
61304SOL    HW291153   1.076   2.746   0.574 -0.1017  0.7265  0.4288
61305SOL     OW91154  12.001   0.049   9.644  0.3082 -0.1444  0.6892
61305SOL    HW191155  12.017   0.138   9.674  1.6674 -0.5420  1.2168
61305SOL    HW291156  12.021   0.051   9.550 -0.8047  0.3511  0.4413
61306SOL     OW91157  11.544  11.919   1.780  0.2507  0.0631  0.3793
61306SOL    HW191158  11.556  11.913   1.875  1.6984 -0.2891  0.1952
61306SOL    HW291159  11.580  11.838   1.745 -0.5783  0.0380 -0.4549
61307SOL     OW91160  10.295   9.450   4.400  0.0072  0.3192 -0.1259
61307SOL    HW191161  10.350   9.378   4.369 -0.3070  0.4463 -1.0345
61307SOL    HW291162  10.224   9.455   4.335 -1.5240 -0.3518  1.3954
61308SOL     OW91163   9.921  12.248   8.189 -0.1226 -0.2015 -0.1781
61308SOL    HW191164   9.911  12.317   8.255 -0.4641 -0.3511 -0.0729
61308SOL    HW291165   9.968  12.178   8.234 -0.0796 -0.1769 -0.1850
61309SOL     OW91166  12.603   3.500   1.675 -0.5222  0.2105 -0.2609
61309SOL    HW191167  12.616   3.417   1.630  0.3358 -0.9190  1.9199
61309SOL    HW291168  12.691   3.527   1.701 -1.0267  0.3088  1.4868
61310SOL     OW91169   7.071   7.416   4.253 -0.6118  0.2745 -0.0776
61310SOL    HW191170   7.137   7.357   4.215 -0.2613  0.8782 -0.4197
61310SOL    HW291171   6.992   7.399   4.203 -0.9927 -1.1153  0.9272
61311SOL     OW91172   9.201   0.201   5.099 -0.1425  0.3199  0.3426
61311SOL    HW191173   9.180   0.174   5.189  1.1169  1.3862  0.9917
61311SOL    HW291174   9.118   0.231   5.063 -0.4516  1.0974  1.6191
61312SOL     OW91175   4.428   1.974   7.085  0.4543  0.0240 -0.2110
61312SOL    HW191176   4.450   2.031   7.011 -0.7017  1.5579  0.5698
61312SOL    HW291177   4.364   1.913   7.050 -0.7178  1.2643 -0.3214
61313SOL     OW91178   6.092  11.715   4.395  0.8052 -0.5002  0.3368
61313SOL    HW191179   6.136  11.764   4.464  1.6697 -1.1071  0.2346
61313SOL    HW291180   6.163  11.689   4.335  0.6029 -2.9196  1.0262
61314SOL     OW91181  12.400   5.759   3.065  0.0420  0.5251 -0.2857
61314SOL    HW191182  12.403   5.828   2.999  2.4498 -0.6812 -1.5835
61314SOL    HW291183  12.461   5.788   3.133  0.4198  0.0738 -0.4280
61315SOL     OW91184  11.495  12.410   1.136  0.3625  0.1713  0.5537
61315SOL    HW191185  11.579  12.368   1.151  0.3343  0.1117  0.5405
61315SOL    HW291186  11.514  12.478   1.070  0.8826  1.7200  2.2220
61316SOL     OW91187   8.873  12.248   8.732  0.3424 -0.1008 -0.1917
61316SOL    HW191188   8.921  12.304   8.793  1.4990 -1.3118  0.0545
61316SOL    HW291189   8.882  12.290   8.647 -1.3890  1.6843  0.4114
61317SOL     OW91190   1.312   5.835   4.824 -0.3395 -0.0724  0.3405
61317SOL    HW191191   1.369   5.900   4.782 -2.4844  1.1165 -0.9150
61317SOL    HW291192   1.338   5.752   4.784  0.8473  0.3517  0.1821
61318SOL     OW91193   9.350   6.654   6.700 -0.0496  0.4030 -0.2535
61318SOL    HW191194   9.361   6.694   6.613 -0.5427  0.5908 -0.2347
61318SOL    HW291195   9.293   6.579   6.684 -1.4390  1.3367  0.1338
61319SOL     OW91196   4.344   6.529   2.827  0.3222 -0.2681 -0.7248
61319SOL    HW191197   4.278   6.593   2.803 -0.1691 -0.4974 -0.0339
61319SOL    HW291198   4.299   6.445   2.821  0.6296 -0.4478 -0.5315
61320SOL     OW91199   6.983   5.843   5.731  0.5099 -0.3778  0.2705
61320SOL    HW191200   7.016   5.769   5.680 -0.2348  0.3170 -1.2727
61320SOL    HW291201   6.926   5.890   5.671 -0.5589  0.3795  1.8301
61321SOL     OW91202  10.902   4.902   2.238  0.0714 -0.1719 -0.1318
61321SOL    HW191203  10.969   4.866   2.296  0.1833 -0.4501 -0.4278
61321SOL    HW291204  10.949   4.921   2.157 -0.1544 -0.1183 -0.2513
61322SOL     OW91205   3.052   8.814  11.023  0.2021  0.1358  0.0540
61322SOL    HW191206   2.987   8.745  11.013  1.4139 -1.1608  0.7953
61322SOL    HW291207   3.031   8.876  10.953 -1.4582 -0.5152 -0.0798
61323SOL     OW91208   8.869   9.993   9.855 -0.2963 -0.5197  0.0281
61323SOL    HW191209   8.903  10.069   9.903 -0.7312 -0.6270  0.5141
61323SOL    HW291210   8.783  10.021   9.824 -1.0879 -1.2985  1.4514
61324SOL     OW91211   6.262   5.262   8.785 -0.2181 -0.4068  0.5282
61324SOL    HW191212   6.300   5.196   8.844  1.3332 -0.2140 -0.1949
61324SOL    HW291213   6.168   5.246   8.789  0.0354 -1.9818  1.1865
61325SOL     OW91214   3.527   5.590  10.911 -0.7149 -0.2625 -0.8941
61325SOL    HW191215   3.549   5.649  10.982 -0.8391 -0.2652 -0.8535
61325SOL    HW291216   3.483   5.516  10.953 -3.4060  1.0259 -1.2371
61326SOL     OW91217   7.119   5.458   5.431  0.7813 -0.3033  0.0876
61326SOL    HW191218   7.076   5.543   5.420  0.1325 -0.6538 -0.1095
61326SOL    HW291219   7.183   5.455   5.360  0.4715 -0.1776 -0.2030
61327SOL     OW91220   2.453   6.319   9.264  0.3698  0.1305 -0.5344
61327SOL    HW191221   2.483   6.380   9.197 -0.3076  1.2579  0.1632
61327SOL    HW291222   2.358   6.320   9.257  0.3414 -0.6895 -0.3644
61328SOL     OW91223   9.390  10.944   0.642  0.4582 -0.3143 -0.3147
61328SOL    HW191224   9.321  10.926   0.578 -0.0658  2.5310 -0.6621
61328SOL    HW291225   9.462  10.887   0.615 -0.1962 -0.1627 -2.6619
61329SOL     OW91226  12.346  11.077   4.122  0.2587  1.3030 -0.1449
61329SOL    HW191227  12.258  11.112   4.110 -0.0661  1.4783  2.3324
61329SOL    HW291228  12.367  11.094   4.214  2.8589  1.1910 -0.6402
61330SOL     OW91229   9.854  12.357  10.535  0.0906  0.0799 -0.0496
61330SOL    HW191230   9.862  12.263  10.550  1.6005 -0.3075 -2.6630
61330SOL    HW291231   9.802  12.364  10.454 -0.3408  1.5238  0.3172
61331SOL     OW91232   1.934   8.210   2.422 -0.4919  0.1360  0.1136
61331SOL    HW191233   1.982   8.209   2.339  2.4951 -0.6209  1.7001
61331SOL    HW291234   1.845   8.183   2.399  0.3699 -0.6301 -2.7276
61332SOL     OW91235   0.169   7.403  10.746  0.1859 -0.7094 -0.1698
61332SOL    HW191236   0.086   7.406  10.793  0.8104 -0.5036  0.9807
61332SOL    HW291237   0.146   7.385  10.655 -1.1657  0.2077 -0.0307
61333SOL     OW91238   5.237   4.542   0.445 -0.0948  0.0284 -0.3736
61333SOL    HW191239   5.263   4.556   0.354 -0.5721  0.0797 -0.5051
61333SOL    HW291240   5.268   4.454   0.466  2.2002  0.9063  0.2024
61334SOL     OW91241   6.565   2.120  12.509  0.5633  0.0984  0.6205
61334SOL    HW191242   6.561   2.034  12.550  2.2829 -1.1071 -1.5145
61334SOL    HW291243   6.481   2.128  12.462  0.6270 -0.6942  0.3538
61335SOL     OW91244   1.265   6.933   2.175 -0.0102 -0.6877 -0.5279
61335SOL    HW191245   1.310   7.005   2.132  0.3431 -1.5342 -1.6320
61335SOL    HW291246   1.215   6.974   2.246 -0.3707  0.7176 -1.5508
61336SOL     OW91247   5.334   4.234   7.934 -0.0044  0.5421  0.1383
61336SOL    HW191248   5.412   4.224   7.878  0.1607 -0.5368  0.5372
61336SOL    HW291249   5.364   4.287   8.007  0.8656 -1.2724  1.1673
61337SOL     OW91250  12.435   5.313  10.033 -0.1777  0.2325  0.0845
61337SOL    HW191251  12.507   5.250  10.037  0.0130  0.4856  1.0806
61337SOL    HW291252  12.419   5.326   9.940  1.5724  0.7355 -0.1908
61338SOL     OW91253   0.059   5.604   1.865 -0.4826  0.3328  0.6513
61338SOL    HW191254   0.078   5.638   1.952 -1.3347  3.3153 -0.1970
61338SOL    HW291255  -0.004   5.533   1.879  0.1965  0.0513  2.4889
61339SOL     OW91256   5.195   6.806   3.721  0.1776  0.3189  0.0240
61339SOL    HW191257   5.108   6.844   3.737 -0.2018 -0.7695  0.5780
61339SOL    HW291258   5.248   6.833   3.796  0.5293  1.5463 -0.6366
61340SOL     OW91259   9.059  10.349   6.508  0.0502 -0.0265 -0.2195
61340SOL    HW191260   9.130  10.386   6.560  0.7778 -0.4437 -0.9080
61340SOL    HW291261   9.017  10.426   6.467  0.2135  0.2043  0.0433
61341SOL     OW91262   0.135   6.184   7.006  0.0145 -0.6606 -0.0208
61341SOL    HW191263   0.203   6.249   7.026  1.7362 -2.4427  0.2222
61341SOL    HW291264   0.167   6.139   6.928 -0.9427 -1.4854  0.0467
61342SOL     OW91265   0.051   2.328   1.086 -0.1251  0.1956  0.0430
61342SOL    HW191266   0.028   2.236   1.095 -1.5215  0.4855 -0.4152
61342SOL    HW291267  -0.026   2.369   1.047 -0.5836  2.0360  2.6279
61343SOL     OW91268  11.061  12.447   1.486 -0.1655 -0.0450 -0.4632
61343SOL    HW191269  11.146  12.490   1.481 -0.1478  0.4533  2.4555
61343SOL    HW291270  11.058  12.408   1.574 -3.2902  0.7845 -0.0718
61344SOL     OW91271   9.355   9.589   3.374  0.1017  0.0259  1.1531
61344SOL    HW191272   9.337   9.540   3.293 -0.6276 -0.7407  1.7613
61344SOL    HW291273   9.450   9.591   3.381  0.1910  0.5739 -0.0003
61345SOL     OW91274   8.190  12.581   4.133  0.5448  0.5620  0.1133
61345SOL    HW191275   8.097  12.595   4.115  0.9461  4.1198  0.2338
61345SOL    HW291276   8.231  12.584   4.047  0.6228 -0.9059  0.0709
61346SOL     OW91277   6.257  10.863   6.878 -0.1054 -0.3645  0.3926
61346SOL    HW191278   6.184  10.873   6.939 -0.3305 -0.8120  0.2037
61346SOL    HW291279   6.333  10.897   6.925 -0.3256 -0.4548  0.8164
61347SOL     OW91280   0.206  10.705  11.016 -0.5730 -0.2708 -0.2740
61347SOL    HW191281   0.236  10.658  11.093  2.3127  0.4930 -0.8201
61347SOL    HW291282   0.118  10.735  11.039 -0.8228 -2.2409  1.6809
61348SOL     OW91283   7.835   6.668   4.781  0.2445  0.0912  0.0478
61348SOL    HW191284   7.887   6.747   4.798  1.6509 -0.3950 -1.6776
61348SOL    HW291285   7.856   6.644   4.691 -0.1618 -2.2410  0.5020
61349SOL     OW91286   8.510   2.564   7.852 -0.2652  0.0670 -0.2629
61349SOL    HW191287   8.415   2.577   7.856 -0.4858 -1.4582  0.1630
61349SOL    HW291288   8.539   2.621   7.781 -1.2791  1.6550  0.5299
61350SOL     OW91289   9.626   5.049  11.352  0.0088 -0.5181 -0.0450
61350SOL    HW191290   9.713   5.036  11.390 -0.7314 -0.3841  1.8286
61350SOL    HW291291   9.574   4.976  11.384 -0.3597 -1.1440 -1.9551
61351SOL     OW91292   2.704   5.098   0.546 -0.0007  0.3940  0.0830
61351SOL    HW191293   2.782   5.143   0.512  0.0532  2.1016  2.2536
61351SOL    HW291294   2.733   5.008   0.560  0.9279  0.4697 -1.1961
61352SOL     OW91295   0.282   3.096   1.519 -0.7356 -0.2373 -0.4770
61352SOL    HW191296   0.321   3.049   1.446 -3.0283  0.3900 -2.1998
61352SOL    HW291297   0.331   3.178   1.523 -1.0331  0.0272 -1.7971
61353SOL     OW91298   1.894   9.613  10.102  0.3867 -0.2855 -0.1664
61353SOL    HW191299   1.881   9.651  10.015  0.8641  0.2455 -0.0098
61353SOL    HW291300   1.819   9.556  10.115 -0.6148  0.9845 -0.2029
61354SOL     OW91301  10.946   1.559   3.112 -0.0578 -0.2567  0.7967
61354SOL    HW191302  11.023   1.583   3.163  0.9993 -0.3535 -0.7036
61354SOL    HW291303  10.892   1.508   3.173  0.0789  1.4926  2.4682
61355SOL     OW91304   1.917  11.938   4.981 -0.0266 -0.4071  0.2559
61355SOL    HW191305   1.959  11.976   5.058  1.5960  1.4536 -1.4360
61355SOL    HW291306   1.980  11.873   4.949 -0.8947 -1.5014  0.7121
61356SOL     OW91307   9.109   1.948   0.735  0.4169 -0.4071  0.2804
61356SOL    HW191308   9.124   1.864   0.779 -1.4045 -0.3901  1.0002
61356SOL    HW291309   9.039   1.990   0.784 -0.9653  0.1091 -1.9581
61357SOL     OW91310   2.214  12.605  12.633 -0.0708  0.1037 -0.4300
61357SOL    HW191311   2.133  12.574  12.673  0.9948 -0.6069  1.2882
61357SOL    HW291312   2.240  12.534  12.574 -0.4268  0.1087 -0.5944
61358SOL     OW91313   5.945   7.294   9.774  0.4228  0.3278  0.0133
61358SOL    HW191314   5.974   7.384   9.787 -0.3525  0.4985  0.6132
61358SOL    HW291315   5.884   7.277   9.845  1.5947 -1.1476  0.7353
61359SOL     OW91316  11.883   3.272   0.088  0.0898  0.1662 -0.0566
61359SOL    HW191317  11.854   3.191   0.129 -0.0667 -0.4074 -1.2690
61359SOL    HW291318  11.809   3.332   0.100 -0.2380 -0.2162 -0.1467
61360SOL     OW91319   7.567   5.386   5.781 -0.2292  0.5198 -0.1913
61360SOL    HW191320   7.561   5.292   5.763  1.1435  0.4570 -0.4315
61360SOL    HW291321   7.524   5.397   5.866  1.3735 -0.6788  0.8405
61361SOL     OW91322   4.041   3.587   3.217 -0.5501  0.4193  0.1328
61361SOL    HW191323   4.107   3.620   3.156  0.7581 -1.5337  0.3983
61361SOL    HW291324   3.974   3.548   3.160 -0.0801 -0.0635 -0.0975
61362SOL     OW91325   5.775  11.354   3.597 -0.7546 -0.3740  0.0102
61362SOL    HW191326   5.760  11.406   3.676 -1.3699  1.3176 -1.1453
61362SOL    HW291327   5.699  11.372   3.541  0.3186 -0.3755 -1.5362
61363SOL     OW91328   8.751  10.185   2.096 -0.1405 -0.0759 -0.8908
61363SOL    HW191329   8.822  10.130   2.129  2.0407  1.4239 -2.7363
61363SOL    HW291330   8.685  10.122   2.066  0.4716 -1.5430  0.6407
61364SOL     OW91331   1.382   1.720   5.835 -0.0225  0.0663  0.1324
61364SOL    HW191332   1.350   1.810   5.846  0.8754  0.2560  1.6157
61364SOL    HW291333   1.476   1.730   5.817 -0.2577 -0.5396 -1.5747
61365SOL     OW91334   1.455  12.248   6.399  0.5574 -0.0802 -0.0234
61365SOL    HW191335   1.462  12.265   6.305  0.2304 -1.8768 -0.4101
61365SOL    HW291336   1.524  12.300   6.438  0.4272  1.0261 -1.2143
61366SOL     OW91337   7.852   5.026  10.982 -0.4150 -0.6146 -0.3118
61366SOL    HW191338   7.938   5.054  10.953 -0.0866 -0.1493  1.0336
61366SOL    HW291339   7.866   4.939  11.020 -0.9189 -1.4162 -1.8953
61367SOL     OW91340   5.905   3.319   8.217 -0.5269  0.5615 -0.5202
61367SOL    HW191341   5.874   3.410   8.207  0.7407  0.8880 -1.7264
61367SOL    HW291342   6.000   3.325   8.210 -0.3856 -0.8123 -0.0620
61368SOL     OW91343  10.554   6.681   7.359  0.5615 -0.2573  0.3350
61368SOL    HW191344  10.569   6.758   7.304  0.0235 -0.8598 -0.6848
61368SOL    HW291345  10.635   6.630   7.352  0.6093 -0.1838  0.3517
61369SOL     OW91346   5.334   5.303   2.382  0.4981 -0.0892  0.2998
61369SOL    HW191347   5.289   5.338   2.459 -0.5343  0.2033 -0.4075
61369SOL    HW291348   5.345   5.210   2.401  0.7655  0.0885  1.0372
61370SOL     OW91349   6.755   3.124   2.331  0.0961 -0.1477  0.7990
61370SOL    HW191350   6.775   3.195   2.269  0.3083 -0.8830 -0.0058
61370SOL    HW291351   6.825   3.129   2.396  0.4934 -0.0242  0.3771
61371SOL     OW91352   8.587   7.943   1.569 -0.4820  0.7378  0.2489
61371SOL    HW191353   8.681   7.961   1.572 -0.5824  1.3347 -0.0310
61371SOL    HW291354   8.580   7.863   1.517 -0.1052  0.4781  0.5872
61372SOL     OW91355   4.563   1.767   7.439  0.2737  0.3843  0.7543
61372SOL    HW191356   4.475   1.730   7.428  1.2769 -1.8339 -0.5160
61372SOL    HW291357   4.553   1.860   7.417 -1.2515 -0.3789 -2.3459
61373SOL     OW91358   2.990   9.289   9.461  0.1991  0.4688  0.3872
61373SOL    HW191359   2.960   9.363   9.514  1.0935 -0.9113  2.9970
61373SOL    HW291360   3.082   9.279   9.484  0.0699 -1.5154  0.1823
61374SOL     OW91361   3.065   6.227   0.784  0.2257  0.2702  0.3151
61374SOL    HW191362   2.997   6.293   0.773 -0.3095 -0.5925 -2.6857
61374SOL    HW291363   3.025   6.146   0.752  2.0191 -0.6912  0.3676
61375SOL     OW91364   9.306   7.960   2.470  0.5213  0.0442 -0.1265
61375SOL    HW191365   9.342   8.048   2.463  2.2699 -0.7202 -1.5463
61375SOL    HW291366   9.347   7.923   2.548 -1.5430  0.9957  1.5026
61376SOL     OW91367   2.743   2.733   6.835  0.1853  0.2780 -0.2021
61376SOL    HW191368   2.735   2.825   6.809 -0.9293 -0.0280 -1.0363
61376SOL    HW291369   2.801   2.695   6.770 -0.6819  0.0402 -0.8517
61377SOL     OW91370  12.292  10.717   3.283  0.1690 -0.1010 -0.3023
61377SOL    HW191371  12.246  10.759   3.210  0.3957  0.7295  0.0246
61377SOL    HW291372  12.222  10.683   3.339 -0.0089 -1.2143 -1.1494
61378SOL     OW91373   1.040   7.142   4.287  0.1881 -0.2101  0.0571
61378SOL    HW191374   1.104   7.187   4.343  0.8615  0.1201 -0.9563
61378SOL    HW291375   1.089   7.069   4.250  0.0152  0.1062 -0.8059
61379SOL     OW91376   0.601  10.335   7.351  0.1144  0.0018  0.1328
61379SOL    HW191377   0.685  10.372   7.379  0.2025 -0.2666  0.2283
61379SOL    HW291378   0.609  10.326   7.256  0.4615 -0.6716  0.2174
61380SOL     OW91379  10.620   1.206   4.413  0.0427 -0.0492  0.1735
61380SOL    HW191380  10.676   1.213   4.336  0.9550  1.1532  0.9054
61380SOL    HW291381  10.548   1.148   4.386  0.9590 -0.5939 -1.1868
61381SOL     OW91382   1.041   9.278   9.950  0.2099  0.0479  0.2301
61381SOL    HW191383   1.102   9.322   9.891  1.0531 -1.4995 -0.1049
61381SOL    HW291384   0.957   9.281   9.905  0.3021  1.0518  0.0992
61382SOL     OW91385   5.758   0.363   9.113 -0.3158 -0.1126 -0.2463
61382SOL    HW191386   5.788   0.392   9.026 -0.0393 -0.9653 -0.4445
61382SOL    HW291387   5.839   0.349   9.162 -0.4897  1.8597  0.6733
61383SOL     OW91388   9.758  10.560   9.725 -0.1354 -0.0518  0.1550
61383SOL    HW191389   9.774  10.509   9.646  0.1919  0.7902 -0.3421
61383SOL    HW291390   9.735  10.647   9.692  2.6189  1.1010  0.9799
61384SOL     OW91391   6.740   6.453   6.004  0.4042  0.5961 -0.0795
61384SOL    HW191392   6.809   6.417   6.059  0.3404 -0.6255 -0.7603
61384SOL    HW291393   6.659   6.436   6.052  0.4286  0.3666 -0.1166
61385SOL     OW91394   4.821  11.577   7.498  0.0071  0.3670  0.2202
61385SOL    HW191395   4.787  11.489   7.509  1.8994 -0.4648 -0.1818
61385SOL    HW291396   4.797  11.623   7.579 -0.8312 -0.5506  0.5057
61386SOL     OW91397   4.626   0.593   7.912 -0.0085  0.0237 -0.0244
61386SOL    HW191398   4.687   0.602   7.985 -2.0199 -1.2507  1.9315
61386SOL    HW291399   4.554   0.540   7.947 -1.6675  0.4161 -2.5736
61387SOL     OW91400   1.612  10.519   7.457  0.5824 -0.1154 -0.2207
61387SOL    HW191401   1.542  10.554   7.401  1.3737  1.4647 -0.2773
61387SOL    HW291402   1.593  10.425   7.463  0.3063 -0.3261 -2.9343
61388SOL     OW91403  10.377  12.400   6.789 -0.3092 -0.6050 -0.3929
61388SOL    HW191404  10.302  12.429   6.841  1.1135 -0.0893  1.4629
61388SOL    HW291405  10.389  12.308   6.812 -0.1484 -0.5905 -0.4182
61389SOL     OW91406  11.083   2.860   1.278  0.1379 -0.1375 -0.1799
61389SOL    HW191407  11.179   2.853   1.276  0.0452 -2.8384  1.3091
61389SOL    HW291408  11.052   2.771   1.291 -2.6794  0.5261 -1.5584
61390SOL     OW91409   5.571   3.505   8.912  0.1474 -0.2440  0.2795
61390SOL    HW191410   5.480   3.480   8.930  0.1565  0.1244  0.8753
61390SOL    HW291411   5.615   3.422   8.894 -0.2670 -0.4441  0.1637
61391SOL     OW91412   1.609  12.487   4.234 -0.1668  0.0217 -0.2683
61391SOL    HW191413   1.521  12.466   4.202  0.1025 -0.9105 -0.3953
61391SOL    HW291414   1.630  12.571   4.192 -0.9056  0.1550 -0.3938
61392SOL     OW91415   8.764   0.601   4.120  0.2409 -0.5830 -0.1676
61392SOL    HW191416   8.813   0.643   4.049 -1.9413 -0.4302 -1.6658
61392SOL    HW291417   8.810   0.517   4.134  0.6944 -0.6345 -1.7808
61393SOL     OW91418  12.532   9.251  11.935 -0.8469 -0.0846 -0.2442
61393SOL    HW191419  12.536   9.342  11.964  0.2050 -0.5214  1.0985
61393SOL    HW291420  12.552   9.254  11.842 -3.9511  1.3512 -1.0049
61394SOL     OW91421   3.204   7.931   7.552 -0.4617 -0.0904  0.3723
61394SOL    HW191422   3.156   7.849   7.562  0.0496 -0.3751  0.5125
61394SOL    HW291423   3.190   7.978   7.635 -0.9113  0.0543  0.2193
61395SOL     OW91424   3.881   8.180  11.729  0.2181 -0.7201  0.0362
61395SOL    HW191425   3.788   8.205  11.732  0.1420 -0.8251 -1.1465
61395SOL    HW291426   3.914   8.205  11.816 -0.4730  1.0469 -0.1531
61396SOL     OW91427   9.165   8.760   6.273  0.4048  0.3945  0.0904
61396SOL    HW191428   9.153   8.724   6.361 -1.1916 -0.3385 -0.3881
61396SOL    HW291429   9.103   8.710   6.218  1.5054  0.6935 -1.4888
61397SOL     OW91430  12.581   3.121  11.949 -0.1469  0.3481 -0.5281
61397SOL    HW191431  12.604   3.187  11.883 -2.5081 -1.7401 -3.7272
61397SOL    HW291432  12.651   3.057  11.945 -0.0376  0.4738 -0.6374
61398SOL     OW91433  11.924   4.935  10.527 -0.4553 -0.0810  0.0713
61398SOL    HW191434  11.946   4.984  10.606 -0.0213  1.3771 -0.9275
61398SOL    HW291435  11.829   4.928  10.529 -0.6992  2.3551 -0.6243
61399SOL     OW91436   0.613   5.962  10.673  0.3524  0.1495 -0.6425
61399SOL    HW191437   0.570   6.035  10.628 -0.8565 -0.7299 -0.9639
61399SOL    HW291438   0.549   5.891  10.669  0.4603 -0.1709  1.9125
61400SOL     OW91439   8.051   4.223  10.290  0.0042  0.3470  0.4285
61400SOL    HW191440   8.138   4.185  10.306  0.1388  0.7091  0.5749
61400SOL    HW291441   8.015   4.170  10.218  0.2666  0.0738  0.4924
61401SOL     OW91442  12.187   7.851   2.311 -0.4028 -0.1985 -0.6535
61401SOL    HW191443  12.151   7.880   2.228 -1.5429 -0.2166 -0.1827
61401SOL    HW291444  12.111   7.827   2.363  0.1169  1.6586  1.1099
61402SOL     OW91445  11.176  12.541   4.261  0.4211  0.3049  0.1883
61402SOL    HW191446  11.083  12.521   4.256  0.5905 -0.5457  0.2514
61402SOL    HW291447  11.219  12.467   4.218  1.1184  0.1338  1.1441
61403SOL     OW91448  12.176   7.712  11.282  0.4885  0.4916  0.1030
61403SOL    HW191449  12.148   7.755  11.363  1.8734  0.0001  0.8911
61403SOL    HW291450  12.272   7.718  11.284  0.5998 -0.5178 -0.9429
61404SOL     OW91451   9.666   9.066   6.150 -0.0183 -0.0256 -0.1591
61404SOL    HW191452   9.574   9.041   6.141  0.6154 -3.0046  0.5408
61404SOL    HW291453   9.672   9.105   6.238 -0.2183 -2.2004  0.8748
61405SOL     OW91454   5.229   9.980   4.670 -0.1792  0.1990  0.1357
61405SOL    HW191455   5.264  10.030   4.596 -1.5223 -1.1549 -1.4885
61405SOL    HW291456   5.282   9.900   4.671  0.8799  0.8828  1.6862
61406SOL     OW91457   5.859  11.866   9.196 -0.2011 -0.0399 -0.3101
61406SOL    HW191458   5.899  11.922   9.129  0.5419 -0.2189 -0.0232
61406SOL    HW291459   5.851  11.923   9.273  0.5652 -0.3147 -0.0156
61407SOL     OW91460   6.773   2.038   6.645  0.2923 -0.8881  0.0829
61407SOL    HW191461   6.770   2.083   6.730  0.8823 -0.9253  0.1311
61407SOL    HW291462   6.703   2.079   6.594  1.3305  0.6833 -0.1529
61408SOL     OW91463   2.852   2.579   1.017 -0.4089  0.6948 -0.5073
61408SOL    HW191464   2.832   2.486   1.009  1.3144  0.3470 -1.1829
61408SOL    HW291465   2.933   2.582   1.069 -0.1066  1.7654 -1.0116
61409SOL     OW91466   3.306   6.731   3.536 -0.4454  0.1333  0.2462
61409SOL    HW191467   3.244   6.747   3.465  0.4604 -0.0336 -0.6191
61409SOL    HW291468   3.254   6.737   3.616 -1.3170  1.3081 -0.3730
61410SOL     OW91469  11.232   0.198   8.594 -0.3584 -0.2772  0.4748
61410SOL    HW191470  11.228   0.109   8.629  2.0974 -0.2739  0.9103
61410SOL    HW291471  11.247   0.254   8.670  0.2333  0.2501 -0.0143
61411SOL     OW91472   9.455   8.605   4.855  0.5844 -0.0044 -0.3025
61411SOL    HW191473   9.486   8.574   4.769  1.3815 -1.0908  0.3455
61411SOL    HW291474   9.390   8.540   4.881  0.3506  0.3205 -0.0699
61412SOL     OW91475  11.335   9.308   6.789 -0.5061 -0.6155 -0.5295
61412SOL    HW191476  11.346   9.217   6.816 -0.3669 -0.7652 -1.0684
61412SOL    HW291477  11.390   9.317   6.711 -0.2510  0.0245 -0.2825
61413SOL     OW91478   2.081   2.413   8.122 -0.7596  0.1407  0.3268
61413SOL    HW191479   2.089   2.319   8.108  0.8659  0.3862 -0.5890
61413SOL    HW291480   2.099   2.425   8.216 -0.1670 -0.3857  0.2842
61414SOL     OW91481   7.591   5.151   4.563 -0.0356  0.5125  0.0439
61414SOL    HW191482   7.655   5.222   4.555  0.5021  0.2086  1.3836
61414SOL    HW291483   7.636   5.074   4.528  0.4730  0.2346  1.2605
61415SOL     OW91484   5.957   4.534   5.365 -0.1473  0.0087  0.6742
61415SOL    HW191485   5.958   4.446   5.402  0.5523 -1.3506 -2.2326
61415SOL    HW291486   6.032   4.579   5.405  0.2558 -1.1666  1.2764
61416SOL     OW91487  11.085   3.774   7.306 -0.4841  0.3137 -0.1565
61416SOL    HW191488  11.102   3.728   7.389 -0.5699  0.9732  0.2341
61416SOL    HW291489  11.073   3.865   7.331 -1.0609  0.4357 -0.8414
61417SOL     OW91490   2.929   0.123   4.694  0.2241 -0.1933 -0.3172
61417SOL    HW191491   2.918   0.028   4.690 -0.7333 -0.1202  0.2574
61417SOL    HW291492   2.849   0.158   4.654 -1.2211  0.3710  2.7478
61418SOL     OW91493  11.588   9.095   3.149 -0.1095 -0.5343 -0.1527
61418SOL    HW191494  11.589   9.029   3.080  1.7597  0.0768 -0.7695
61418SOL    HW291495  11.673   9.085   3.193 -0.3895  0.5036  0.6781
61419SOL     OW91496   6.889   5.393  11.403  0.1974  0.3889  0.4569
61419SOL    HW191497   6.895   5.307  11.445  2.5702  0.1142 -0.2892
61419SOL    HW291498   6.812   5.433  11.443 -1.2842 -2.2344  0.4775
61420SOL     OW91499   8.511  11.564   1.315  0.0859 -0.1901  0.2708
61420SOL    HW191500   8.475  11.540   1.230  0.0506  1.8727 -0.3410
61420SOL    HW291501   8.439  11.549   1.376 -0.0041 -1.3416 -0.0797
61421SOL     OW91502   8.536   0.643  10.287 -0.0166  0.0818  0.4381
61421SOL    HW191503   8.551   0.621  10.379  1.9772  1.6132  0.5553
61421SOL    HW291504   8.622   0.632  10.246 -1.3347 -3.0082 -1.8853
61422SOL     OW91505   8.177   2.191  12.699 -0.4925 -0.2924  0.2106
61422SOL    HW191506   8.194   2.247  12.775  1.4080  1.4850 -1.3956
61422SOL    HW291507   8.095   2.225  12.663 -0.7849 -0.3816  0.7674
61423SOL     OW91508   1.366   3.684  12.180  0.6454  0.1477  0.3048
61423SOL    HW191509   1.317   3.735  12.246  0.6034  0.5676 -0.0467
61423SOL    HW291510   1.431   3.636  12.231  1.0248  0.9490  0.6023
61424SOL     OW91511   5.446  10.190   9.102  0.5598  0.0256  0.5892
61424SOL    HW191512   5.530  10.232   9.084  0.1329  0.8738  0.4937
61424SOL    HW291513   5.398  10.198   9.019  0.7241 -1.2933  0.3572
61425SOL     OW91514   4.110   1.871  12.341  0.1299  0.2594 -0.2387
61425SOL    HW191515   4.069   1.958  12.344 -1.5061 -0.4292 -1.2227
61425SOL    HW291516   4.131   1.852  12.432  0.9616  1.8639 -0.0563
61426SOL     OW91517   4.553  10.884   1.805  0.1469 -0.6689 -0.2494
61426SOL    HW191518   4.546  10.941   1.728  0.4829  0.3252  0.4484
61426SOL    HW291519   4.640  10.901   1.839 -0.4235 -0.2375  1.0304
61427SOL     OW91520   0.877   6.862   6.258  0.1151 -0.3054 -0.0167
61427SOL    HW191521   0.872   6.941   6.204  0.4548 -0.5086 -0.3441
61427SOL    HW291522   0.944   6.882   6.323 -0.0242 -0.2037  0.0958
61428SOL     OW91523   3.782  10.069  12.346 -0.0198  0.7361 -0.4668
61428SOL    HW191524   3.791  10.112  12.262 -0.5394  0.8164 -0.4889
61428SOL    HW291525   3.800  10.137  12.411  0.0600  0.7568 -0.5117
61429SOL     OW91526  11.692   8.290   9.946 -0.0800 -0.1188 -0.1312
61429SOL    HW191527  11.615   8.348   9.940  0.0698  0.2033  0.8667
61429SOL    HW291528  11.672   8.218   9.887 -0.8038  0.3602 -0.4890
61430SOL     OW91529   7.968  12.189   3.337  0.5975  0.1410 -0.3110
61430SOL    HW191530   7.941  12.280   3.320  0.2907  0.1420  0.1647
61430SOL    HW291531   7.893  12.137   3.308 -0.5631  0.2152  2.3367
61431SOL     OW91532   9.067  10.414   9.075  0.1669  0.2449  0.0390
61431SOL    HW191533   9.078  10.323   9.047 -1.1002  0.2397 -0.5444
61431SOL    HW291534   9.007  10.451   9.010  1.3152  1.7416 -0.2040
61432SOL     OW91535   8.419   0.043   1.751  0.7052 -0.3517  0.4923
61432SOL    HW191536   8.368  -0.029   1.715  1.3938 -0.4153 -0.4168
61432SOL    HW291537   8.376   0.066   1.833 -1.9453  0.8947 -1.1210
61433SOL     OW91538   5.051  10.131  12.069  0.3999 -0.5839 -0.5752
61433SOL    HW191539   5.100  10.205  12.034  0.9524 -1.2469 -1.2222
61433SOL    HW291540   4.975  10.123  12.012  1.2348 -1.5852 -1.5756
61434SOL     OW91541   4.594   2.852  10.559 -0.0136  0.2060 -0.1174
61434SOL    HW191542   4.566   2.800  10.484  1.6166 -0.2764 -0.4366
61434SOL    HW291543   4.579   2.942  10.533 -1.7448 -0.0257 -0.0341
61435SOL     OW91544   8.297   2.700   5.347 -0.0533 -0.2064 -0.6691
61435SOL    HW191545   8.292   2.737   5.259  0.0643 -1.4428 -1.2100
61435SOL    HW291546   8.286   2.775   5.405 -0.3887  0.5887 -1.7349
61436SOL     OW91547   4.549  12.558   8.468  0.1266 -0.2322 -0.0202
61436SOL    HW191548   4.488  12.624   8.501  2.0936  1.7502 -0.1488
61436SOL    HW291549   4.493  12.484   8.445 -2.5004  2.0867 -1.7948
61437SOL     OW91550   0.365   7.885   4.808  0.5050  0.4757 -0.1724
61437SOL    HW191551   0.448   7.864   4.852  0.5699  1.4221  0.1810
61437SOL    HW291552   0.380   7.860   4.717  0.5186 -1.1108  0.2301
61438SOL     OW91553  11.815   6.403   9.441  0.0309  0.4608 -0.7588
61438SOL    HW191554  11.861   6.337   9.389  3.2575  0.3325  1.9297
61438SOL    HW291555  11.868   6.482   9.432 -1.1865  1.3561 -0.2815
61439SOL     OW91556   6.313   0.109   1.654  0.2483  0.3543 -0.3235
61439SOL    HW191557   6.272   0.164   1.587  1.0735  0.8943 -0.4031
61439SOL    HW291558   6.405   0.136   1.654  0.0047  1.4868  2.0762
61440SOL     OW91559   2.645  11.932   5.996 -0.2707  0.1012  0.0262
61440SOL    HW191560   2.727  11.912   6.041 -1.3425 -0.0757  1.9762
61440SOL    HW291561   2.583  11.866   6.028 -2.1145  2.3647  1.3747
61441SOL     OW91562  12.066   3.136   0.294  0.0696 -0.1115  0.0307
61441SOL    HW191563  12.071   3.097   0.207 -0.9901 -0.9224  0.3245
61441SOL    HW291564  12.005   3.209   0.284 -0.4582 -0.5248  0.2035
61442SOL     OW91565   6.145   7.722   1.231  0.8859  0.5132  0.7311
61442SOL    HW191566   6.061   7.696   1.270  1.3446 -0.9181  0.8252
61442SOL    HW291567   6.126   7.805   1.187 -0.8423 -0.2889 -0.1408
61443SOL     OW91568   0.648   4.595   3.096  0.0147  0.4994  0.0520
61443SOL    HW191569   0.614   4.508   3.075 -0.1035  0.1068  1.7698
61443SOL    HW291570   0.573   4.643   3.130  0.6927  0.2621  1.9940
61444SOL     OW91571  10.044  10.561   3.126  0.5268 -0.0631  0.8542
61444SOL    HW191572   9.959  10.538   3.089  0.5108  0.6823  0.4149
61444SOL    HW291573  10.102  10.490   3.097 -0.2907 -1.5544  2.6580
61445SOL     OW91574   7.606   3.549   8.186 -0.6793  0.0852 -0.4487
61445SOL    HW191575   7.687   3.498   8.193 -0.2858  0.7186 -0.3041
61445SOL    HW291576   7.584   3.571   8.277 -0.9015  0.0883 -0.5036
61446SOL     OW91577  10.263   8.184   5.451  0.4717 -0.0192  0.0697
61446SOL    HW191578  10.276   8.100   5.405 -1.5471 -0.0770 -0.4778
61446SOL    HW291579  10.228   8.159   5.537 -0.3298  0.2535 -0.1702
61447SOL     OW91580  10.864   5.312  10.767  0.8212  0.2173  0.4545
61447SOL    HW191581  10.849   5.391  10.820 -0.0781  0.1217  0.3606
61447SOL    HW291582  10.792   5.253  10.791  0.9087 -0.1725 -0.2191
61448SOL     OW91583   0.183   0.022   7.022  0.5736 -0.1182 -0.0724
61448SOL    HW191584   0.121  -0.037   6.980  0.8870 -0.0792 -0.6050
61448SOL    HW291585   0.155   0.027   7.114 -0.0548 -0.2925 -0.2554
61449SOL     OW91586  11.702   1.655   1.732  0.4748 -0.1425 -0.7102
61449SOL    HW191587  11.789   1.636   1.766 -0.3458  0.7550  2.2153
61449SOL    HW291588  11.715   1.730   1.674  1.5041  0.9331  0.8389
61450SOL     OW91589  11.832  10.600   0.322 -0.0994 -0.4478  0.9900
61450SOL    HW191590  11.763  10.533   0.324 -0.3335 -0.1921  3.1142
61450SOL    HW291591  11.909  10.553   0.290 -0.5849 -1.3952  1.1720
61451SOL     OW91592   5.946   3.245   1.420  0.4461  0.4425  0.3532
61451SOL    HW191593   5.981   3.204   1.342  0.5657 -0.0171  0.6438
61451SOL    HW291594   5.853   3.221   1.421  0.1856  1.3397 -0.2097
61452SOL     OW91595   1.373   4.490   5.592 -0.3054  0.2195 -0.1142
61452SOL    HW191596   1.395   4.437   5.668 -0.6330  0.4982  0.1787
61452SOL    HW291597   1.364   4.427   5.520 -0.6658 -0.1190  0.2250
61453SOL     OW91598   8.469  10.996   3.080  0.4297  0.0806 -0.4577
61453SOL    HW191599   8.547  10.999   3.135 -0.2151 -2.6312  0.7950
61453SOL    HW291600   8.398  10.976   3.141 -0.9526  0.6405 -1.8275
61454SOL     OW91601   5.816   3.304   2.911 -0.4353 -0.2631 -0.2035
61454SOL    HW191602   5.767   3.300   2.993  0.6104  0.5931  0.4840
61454SOL    HW291603   5.901   3.265   2.933 -0.3967 -0.6924 -1.0817
61455SOL     OW91604   1.439   1.059   5.884 -0.1548  0.3604  0.4569
61455SOL    HW191605   1.474   1.051   5.973  1.1759 -0.5094 -0.1026
61455SOL    HW291606   1.513   1.092   5.832 -0.8745  0.7488 -0.3441
61456SOL     OW91607   1.024   7.595   5.822 -0.1063  0.1411 -0.0168
61456SOL    HW191608   0.989   7.526   5.879 -1.2476  0.2185 -0.6094
61456SOL    HW291609   0.984   7.579   5.737  1.0155  0.4763 -0.6176
61457SOL     OW91610  10.938   9.583   2.087 -0.3261  0.0502 -0.5560
61457SOL    HW191611  10.877   9.653   2.063 -0.8471 -0.8559 -2.0540
61457SOL    HW291612  10.990   9.568   2.007  1.0008 -0.0728  0.2943
61458SOL     OW91613   1.576   0.295  10.888 -0.0832  0.0670 -0.0301
61458SOL    HW191614   1.633   0.254  10.953  1.6422  2.9166  0.4281
61458SOL    HW291615   1.636   0.338  10.827 -1.7137 -0.4311 -2.1374
61459SOL     OW91616   4.677   3.485  11.910 -0.1806 -0.2364  0.3009
61459SOL    HW191617   4.708   3.428  11.980 -2.1153 -0.5645  0.9409
61459SOL    HW291618   4.680   3.573  11.947 -2.6397 -0.5457  1.4383
61460SOL     OW91619   4.065   6.154  12.170  0.1150  0.1098  0.0221
61460SOL    HW191620   4.144   6.159  12.225 -1.2674  2.3363  2.0254
61460SOL    HW291621   4.072   6.070  12.125  2.4519 -0.8545  1.9622
61461SOL     OW91622   9.751  10.723  10.963  0.3512 -0.2151 -0.1317
61461SOL    HW191623   9.839  10.691  10.984  0.8229 -0.7765 -2.7146
61461SOL    HW291624   9.725  10.675  10.885 -1.7675  0.8448 -0.1587
61462SOL     OW91625   2.583   9.687   0.553 -0.2149 -0.3442  0.3096
61462SOL    HW191626   2.594   9.592   0.553  0.0914 -0.3232  1.4913
61462SOL    HW291627   2.667   9.721   0.522  0.1426 -0.4249  1.1794
61463SOL     OW91628   7.938  10.586   0.487  0.3834 -0.6003 -0.2220
61463SOL    HW191629   7.939  10.532   0.566 -1.2872 -0.0408  0.2345
61463SOL    HW291630   7.859  10.639   0.496 -0.0454 -0.7714 -2.4511
61464SOL     OW91631   8.219  10.296  11.885  0.0419  0.1444  0.6657
61464SOL    HW191632   8.199  10.212  11.925 -1.0620  0.2461  0.3417
61464SOL    HW291633   8.198  10.285  11.792 -0.3352  0.8412  0.6590
61465SOL     OW91634   0.132   1.689   0.095 -0.1143  0.5426 -0.3387
61465SOL    HW191635   0.136   1.634   0.017 -0.0987  0.0261  0.0218
61465SOL    HW291636   0.215   1.737   0.095  0.9253 -1.1569  0.5841
61466SOL     OW91637   5.609  11.906   9.007 -0.4331  0.1657  0.7265
61466SOL    HW191638   5.627  11.934   9.097 -1.0442 -0.1527  0.9558
61466SOL    HW291639   5.515  11.914   8.998 -0.5340 -1.0532  0.5524
61467SOL     OW91640   7.175   2.192  12.688 -0.0312 -0.1585  0.0534
61467SOL    HW191641   7.224   2.112  12.666  0.6548 -0.0902  1.2653
61467SOL    HW291642   7.242   2.255  12.713 -0.7188 -0.4384  2.9685
61468SOL     OW91643   3.043  10.439  11.824 -0.2496  0.3228 -0.0000
61468SOL    HW191644   3.032  10.438  11.729  3.1937  0.7618 -0.5250
61468SOL    HW291645   3.012  10.525  11.851 -0.4977  0.5146 -0.8618
61469SOL     OW91646   1.701   2.317   2.545 -0.7181  0.3101 -0.2900
61469SOL    HW191647   1.701   2.386   2.479  0.3192 -0.7522 -1.4599
61469SOL    HW291648   1.615   2.276   2.536 -1.6029  1.8147  0.8687
61470SOL     OW91649   6.935   8.192   5.458  0.4733 -0.3465  0.0156
61470SOL    HW191650   6.841   8.209   5.471  0.8010  0.8192  1.1133
61470SOL    HW291651   6.942   8.097   5.454 -0.7475 -0.4556 -0.0472
61471SOL     OW91652   1.692   8.816   0.796 -0.4195 -0.0723 -0.5553
61471SOL    HW191653   1.712   8.909   0.808  0.1235 -0.0988 -1.2252
61471SOL    HW291654   1.609   8.804   0.843 -0.3796  0.6972 -0.2669
61472SOL     OW91655   0.897   8.513   9.237  0.2211 -0.1804  0.1386
61472SOL    HW191656   0.897   8.483   9.327  0.4608  1.2325  0.6321
61472SOL    HW291657   0.816   8.477   9.200  0.6841 -1.7064  0.5715
61473SOL     OW91658   8.344   8.702   8.612 -0.3346  0.3149  0.2838
61473SOL    HW191659   8.438   8.687   8.605 -0.5064 -0.2926 -0.8333
61473SOL    HW291660   8.315   8.645   8.684  0.0476  0.0542  0.2280
61474SOL     OW91661  12.134   9.778   8.607 -0.4022  0.1336  0.1749
61474SOL    HW191662  12.136   9.800   8.700  1.2303 -0.9113  0.4386
61474SOL    HW291663  12.167   9.857   8.563 -0.5256  0.3941  0.5453
61475SOL     OW91664   7.877   7.735   0.271  0.0990  0.1679 -0.1382
61475SOL    HW191665   7.905   7.783   0.349 -2.6514  0.0050  1.0760
61475SOL    HW291666   7.957   7.695   0.238  1.6108  1.3782  1.7830
61476SOL     OW91667   6.879   1.951   7.251  0.5930  0.4247  0.6100
61476SOL    HW191668   6.943   1.951   7.180 -0.4881  1.0968 -0.3934
61476SOL    HW291669   6.906   1.879   7.308  0.9146 -0.7456 -0.9817
61477SOL     OW91670   8.443   7.394   0.964  0.4139  0.0766  0.5410
61477SOL    HW191671   8.366   7.376   0.910 -0.0903  2.8188  0.2008
61477SOL    HW291672   8.506   7.432   0.904  0.3390  1.9554  1.5899
61478SOL     OW91673  11.670   7.202   5.237  0.0479  0.0996  0.0557
61478SOL    HW191674  11.596   7.167   5.187  0.8789 -0.6676 -0.6520
61478SOL    HW291675  11.722   7.250   5.173  0.5120  0.0991  0.4266
61479SOL     OW91676   9.735   1.595   3.305  0.3477  0.2450  0.2054
61479SOL    HW191677   9.758   1.534   3.235 -1.0756 -0.7221  0.5272
61479SOL    HW291678   9.802   1.583   3.371  0.0038 -1.1082  0.3279
61480SOL     OW91679   0.884   5.243  10.854  0.0834 -0.3622  0.1951
61480SOL    HW191680   0.859   5.278  10.769  0.0263 -0.6931  0.0717
61480SOL    HW291681   0.978   5.225  10.846 -0.2386 -1.9916 -0.3921
61481SOL     OW91682   0.032   9.423   2.698 -0.2355 -0.6689 -0.1838
61481SOL    HW191683   0.049   9.330   2.683 -1.2580 -0.9391  0.2148
61481SOL    HW291684   0.015   9.459   2.611 -1.8221 -1.3020 -0.1807
61482SOL     OW91685   1.661  11.067   4.828 -0.3328 -0.2023  0.0746
61482SOL    HW191686   1.729  11.009   4.793 -0.9351 -0.6708 -0.3393
61482SOL    HW291687   1.608  11.090   4.752 -0.1981  0.7788  0.2581
61483SOL     OW91688   8.619   1.992   5.368 -0.2333 -0.2027 -0.0005
61483SOL    HW191689   8.563   1.990   5.291  0.2042  0.6056 -0.3499
61483SOL    HW291690   8.603   2.077   5.408  1.9442  0.7576 -1.0358
61484SOL     OW91691   4.715  10.554   3.008  0.2996 -0.3157 -0.3959
61484SOL    HW191692   4.802  10.543   3.047 -0.5247 -0.3713  1.5306
61484SOL    HW291693   4.713  10.489   2.938  0.3302 -3.4840  2.2719
61485SOL     OW91694  10.691   7.909  11.550 -0.8583 -0.0122 -0.1991
61485SOL    HW191695  10.637   7.905  11.471 -0.1818 -1.3324 -0.6295
61485SOL    HW291696  10.726   7.820  11.560  0.0671  0.4437  0.8782
61486SOL     OW91697  10.593   7.727   2.597  0.4875  0.0491  0.2061
61486SOL    HW191698  10.506   7.767   2.605  0.8480  0.9520 -0.2489
61486SOL    HW291699  10.638   7.752   2.677  1.1641  1.7409 -0.6480
61487SOL     OW91700  12.466   2.355   0.290 -0.4511 -0.6001  0.2127
61487SOL    HW191701  12.456   2.314   0.375 -1.0831 -1.0539 -0.0720
61487SOL    HW291702  12.551   2.325   0.258  1.3113  2.0519  2.0029
61488SOL     OW91703  10.797   1.550   8.704 -0.3622 -0.0213  0.3863
61488SOL    HW191704  10.833   1.492   8.772 -1.5216  0.4324  1.4095
61488SOL    HW291705  10.832   1.636   8.725 -1.1216  0.2097  0.6928
61489SOL     OW91706   7.406   2.430   0.007  0.1640 -0.4668 -0.2809
61489SOL    HW191707   7.342   2.501  -0.002  0.5306 -0.1257 -0.2366
61489SOL    HW291708   7.444   2.421  -0.081  1.0434  0.2859  0.0007
61490SOL     OW91709  10.245   8.133   2.888 -0.3641 -0.3030 -0.0672
61490SOL    HW191710  10.224   8.204   2.829 -0.2909  1.6169  2.0610
61490SOL    HW291711  10.161   8.109   2.928 -0.1160 -0.1108  0.5808
61491SOL     OW91712   5.082   7.045   5.430  0.0073 -0.5717  0.9174
61491SOL    HW191713   5.087   7.126   5.481  0.3983 -0.5770  0.8957
61491SOL    HW291714   5.169   7.005   5.441 -0.5148 -1.5072  1.7632
61492SOL     OW91715   2.850   4.455   3.392 -0.0231 -0.2789  0.2443
61492SOL    HW191716   2.804   4.539   3.391 -0.6589 -0.6190  0.1647
61492SOL    HW291717   2.933   4.473   3.436 -0.1180  0.4059  0.1546
61493SOL     OW91718   1.955   5.847   7.442  0.1088 -0.0385  0.4883
61493SOL    HW191719   1.917   5.763   7.417 -0.2686 -0.5915  2.6696
61493SOL    HW291720   2.028   5.823   7.499  0.9369  1.1089 -0.0563
61494SOL     OW91721   6.628   8.166  12.409 -0.4306 -0.0224  0.0657
61494SOL    HW191722   6.582   8.099  12.459  1.2216 -0.9348  0.4083
61494SOL    HW291723   6.646   8.235  12.472 -2.3313  0.9128 -0.3364
61495SOL     OW91724   6.767   3.960   9.722  0.1080 -0.6062  0.0196
61495SOL    HW191725   6.735   3.870   9.724 -0.6614 -0.3592 -0.8289
61495SOL    HW291726   6.807   3.973   9.809 -1.7260 -1.0658  0.9808
61496SOL     OW91727   8.473   5.149   0.835 -0.2179  0.0882  0.0068
61496SOL    HW191728   8.413   5.128   0.907 -2.2819  1.7911 -1.1084
61496SOL    HW291729   8.520   5.228   0.865 -1.3102  0.9900 -0.5754
61497SOL     OW91730   7.510   4.158   0.974 -0.2977 -0.0267 -0.1622
61497SOL    HW191731   7.523   4.066   0.951 -0.0476  0.1294 -0.6690
61497SOL    HW291732   7.498   4.157   1.069 -1.0319 -0.6578 -0.2474
61498SOL     OW91733   8.230   0.371   3.965 -0.1771  0.2367  0.1515
61498SOL    HW191734   8.146   0.341   3.932  0.5224 -0.1184 -1.4339
61498SOL    HW291735   8.262   0.299   4.020 -0.2592 -0.2653 -0.4511
61499SOL     OW91736   6.690   2.748   0.575 -0.0062 -0.8227  0.4237
61499SOL    HW191737   6.777   2.781   0.552  0.4317 -1.3987  1.2132
61499SOL    HW291738   6.705   2.688   0.648 -1.0795 -0.8703  0.6277
61500SOL     OW91739   0.246  11.559  11.643 -0.3957 -0.8242  0.3079
61500SOL    HW191740   0.305  11.530  11.713  1.0052 -1.8693 -1.2290
61500SOL    HW291741   0.303  11.575  11.568 -1.7326  1.2123 -0.3728
61501SOL     OW91742   9.706  12.059  11.831  0.6486  0.4205 -0.0758
61501SOL    HW191743   9.726  11.973  11.794 -0.2262 -0.0099  0.4258
61501SOL    HW291744   9.788  12.086  11.873  0.3295 -1.2023  1.7321
61502SOL     OW91745   6.729  11.697  10.722  0.2905 -0.1336  0.5056
61502SOL    HW191746   6.639  11.672  10.702  0.1339  0.8732 -0.1462
61502SOL    HW291747   6.783  11.637  10.669 -0.0024 -0.5367  0.6621
61503SOL     OW91748   4.136  11.958   9.351 -0.0030  0.0386  0.1714
61503SOL    HW191749   4.205  12.024   9.358 -1.8142  1.8835  1.7649
61503SOL    HW291750   4.081  11.989   9.278 -0.9365  0.4252  1.0141
61504SOL     OW91751  11.379   6.034   2.040 -0.1961  0.1034  0.4485
61504SOL    HW191752  11.284   6.038   2.055 -0.3160  0.2570 -0.2866
61504SOL    HW291753  11.418   6.060   2.123 -0.8199  3.3864 -0.1381
61505SOL     OW91754  11.818   2.855   1.106 -0.2168  0.4130  0.1907
61505SOL    HW191755  11.767   2.916   1.159 -1.3352  0.2549 -0.6741
61505SOL    HW291756  11.877   2.813   1.169 -1.6389  0.0942  1.3715
61506SOL     OW91757   2.205  11.534   1.518  0.0500 -0.4840 -0.4714
61506SOL    HW191758   2.189  11.572   1.432 -1.1182 -0.8567 -0.4337
61506SOL    HW291759   2.142  11.463   1.525  0.0674 -0.4042  0.7312
61507SOL     OW91760  11.260   9.168   5.350  0.0392 -0.2922  0.2127
61507SOL    HW191761  11.271   9.163   5.445 -0.1963 -0.5957  0.2253
61507SOL    HW291762  11.187   9.227   5.337  0.3985  0.1542  0.2005
61508SOL     OW91763   7.700   5.450  11.256  0.3256 -0.6081 -0.2267
61508SOL    HW191764   7.771   5.499  11.214  1.4698 -1.4524  0.6348
61508SOL    HW291765   7.706   5.474  11.349 -0.2144 -1.0361 -0.0771
61509SOL     OW91766   3.288   0.693   0.664 -0.0980  0.4324 -0.0198
61509SOL    HW191767   3.325   0.705   0.751  0.3734 -1.3165  0.0510
61509SOL    HW291768   3.243   0.776   0.645  3.2932  2.4999  0.1165
61510SOL     OW91769   3.060   6.055  12.075 -0.0683 -0.5858  0.5306
61510SOL    HW191770   3.039   6.070  12.167 -2.6914  0.7655 -0.1859
61510SOL    HW291771   3.025   5.968  12.056 -0.8405 -0.2845  0.5122
61511SOL     OW91772  11.189   6.278   3.466  0.0377 -0.1053 -0.2940
61511SOL    HW191773  11.236   6.194   3.468  1.7737  0.8158 -0.4581
61511SOL    HW291774  11.159   6.287   3.375  3.2374  1.1632 -1.3520
61512SOL     OW91775   0.520  11.291   2.221 -0.3411 -0.2474  0.6549
61512SOL    HW191776   0.548  11.381   2.205 -0.6719  0.2504  2.5860
61512SOL    HW291777   0.597  11.238   2.202 -0.5262  0.2608 -1.7894
61513SOL     OW91778   5.647   3.727   0.158  0.2064  0.2566 -0.5975
61513SOL    HW191779   5.685   3.740   0.245 -1.3300 -2.5733  0.6255
61513SOL    HW291780   5.711   3.675   0.110  0.0559 -0.2103 -0.2994
61514SOL     OW91781   8.021  11.862   3.382  0.1615 -0.2468 -0.7656
61514SOL    HW191782   7.957  11.880   3.451  2.0269 -2.2448  1.6449
61514SOL    HW291783   8.088  11.929   3.392  0.3661 -0.4554 -0.7358
61515SOL     OW91784   6.085   4.425  10.759 -0.0884  0.1060 -0.1623
61515SOL    HW191785   6.055   4.513  10.735  1.6447  0.7578 -0.0931
61515SOL    HW291786   6.021   4.394  10.822 -0.0402  1.8650  0.8031
61516SOL     OW91787   1.869   2.260   0.685 -0.2054 -0.1627  0.0303
61516SOL    HW191788   1.884   2.246   0.778  1.0043 -1.1879 -0.2968
61516SOL    HW291789   1.848   2.174   0.650 -0.5923  0.2028 -0.6611
61517SOL     OW91790   4.817   7.700   7.227  0.2357  0.3485  0.2593
61517SOL    HW191791   4.750   7.633   7.239 -1.1215  1.6224 -0.0110
61517SOL    HW291792   4.769   7.782   7.219  1.7973  1.2437 -0.4923
61518SOL     OW91793   4.322   5.281   7.410  0.1279 -0.9334  0.2381
61518SOL    HW191794   4.308   5.309   7.500  0.1533 -1.5348  0.4354
61518SOL    HW291795   4.410   5.245   7.410  0.7022  0.4071 -0.3801
61519SOL     OW91796   5.522   4.522   4.243  0.3416  0.2826  0.2232
61519SOL    HW191797   5.528   4.508   4.338  0.4016 -0.6528  0.0928
61519SOL    HW291798   5.567   4.447   4.205  0.4777  0.7475 -0.5504
61520SOL     OW91799   2.962   2.036   0.353 -0.0346  0.0529 -0.0218
61520SOL    HW191800   2.978   1.942   0.346  0.6016  0.1365  0.2955
61520SOL    HW291801   3.016   2.065   0.427 -0.1153  0.6915 -0.2052
61521SOL     OW91802  12.315   8.273   6.114  0.3479 -0.0048  0.1872
61521SOL    HW191803  12.405   8.247   6.095  0.1187 -1.0266  0.4544
61521SOL    HW291804  12.272   8.275   6.028  0.5583  0.2461  0.0864
61522SOL     OW91805   1.952   8.626   4.883  0.8882 -0.0695 -0.2936
61522SOL    HW191806   1.955   8.579   4.799  1.6982 -1.9518  0.7380
61522SOL    HW291807   2.044   8.637   4.907  1.1120  5.5738 -2.2380
61523SOL     OW91808   4.126  12.397  11.894 -0.0777 -0.1355  0.0096
61523SOL    HW191809   4.180  12.398  11.973  1.4530  0.6200 -0.9849
61523SOL    HW291810   4.108  12.489  11.876  0.4331 -0.2254 -1.0494
61524SOL     OW91811   4.801  10.169  11.931 -0.6747 -0.1915  0.0545
61524SOL    HW191812   4.710  10.142  11.943 -0.6442 -0.1746  0.3330
61524SOL    HW291813   4.808  10.191  11.838 -0.9296 -0.2853  0.0130
61525SOL     OW91814  12.361   7.754   3.461  0.0858 -0.8302 -0.4469
61525SOL    HW191815  12.358   7.848   3.476  1.3797 -0.9199  0.5268
61525SOL    HW291816  12.341   7.714   3.546 -2.8625 -1.5199 -1.3416
61526SOL     OW91817  11.075  10.564   9.787  0.2376 -0.1165 -0.1652
61526SOL    HW191818  10.984  10.596   9.790  0.0144 -0.7977  1.4451
61526SOL    HW291819  11.107  10.592   9.702 -0.9387  1.6405 -0.0932
61527SOL     OW91820   2.016   3.553   2.688 -0.9002  0.5893 -0.1640
61527SOL    HW191821   2.051   3.638   2.715 -1.8301  0.5387  1.3193
61527SOL    HW291822   1.922   3.566   2.683 -1.0872 -0.4243  0.4087
61528SOL     OW91823   2.407   8.815   7.657 -0.3455  0.8073 -0.1448
61528SOL    HW191824   2.488   8.817   7.708  0.1675  0.7953 -0.9410
61528SOL    HW291825   2.376   8.725   7.663 -0.9368  1.0703  1.1174
61529SOL     OW91826   7.463   6.003   0.610 -0.0962  0.1800 -0.2041
61529SOL    HW191827   7.452   6.054   0.690 -0.4959  0.7758 -0.6305
61529SOL    HW291828   7.535   5.943   0.629  0.1415  0.6627  0.4294
61530SOL     OW91829   7.574   2.074   9.164 -0.2274  0.2388 -0.1078
61530SOL    HW191830   7.551   2.154   9.212  1.0207  1.9344 -2.1963
61530SOL    HW291831   7.544   2.089   9.075 -0.6091 -1.9621 -0.4054
61531SOL     OW91832   3.242  10.838  10.930  0.1880 -0.0213  0.2602
61531SOL    HW191833   3.300  10.885  10.871  0.9735 -0.1672  0.8905
61531SOL    HW291834   3.242  10.748  10.898  0.5083 -0.0735  0.4045
61532SOL     OW91835   0.757  10.356   4.243  0.6026  0.5083  0.0581
61532SOL    HW191836   0.842  10.374   4.202 -0.6543  3.9582 -1.4614
61532SOL    HW291837   0.760  10.402   4.327  0.2029  0.8302 -0.0980
61533SOL     OW91838   2.238   1.826   1.896 -0.2729  0.8431  0.8750
61533SOL    HW191839   2.197   1.740   1.907 -0.7237  0.8074 -0.7257
61533SOL    HW291840   2.331   1.807   1.887 -0.5538  0.2465 -1.4937
61534SOL     OW91841  11.004   1.163   3.967 -0.1578  0.0034 -0.2590
61534SOL    HW191842  11.056   1.243   3.965  1.8149 -1.1750  0.7000
61534SOL    HW291843  11.065   1.094   3.939 -1.7150 -1.2183 -0.7989
61535SOL     OW91844   6.132  12.203  11.442  0.3911  0.0497  0.7119
61535SOL    HW191845   6.191  12.276  11.464  0.4787 -0.1652  1.2115
61535SOL    HW291846   6.044  12.239  11.449  0.3890 -0.1428  1.9886
61536SOL     OW91847  12.167   8.570   5.478 -0.5748 -0.0777 -0.2315
61536SOL    HW191848  12.189   8.652   5.433 -0.5988  0.1173  0.1042
61536SOL    HW291849  12.206   8.580   5.565  0.4000 -0.8961 -0.5486
61537SOL     OW91850   1.231   3.246   4.476 -0.0989 -0.4710 -0.3983
61537SOL    HW191851   1.188   3.163   4.497  0.9881 -2.3298 -4.5558
61537SOL    HW291852   1.302   3.252   4.539 -1.7378 -1.2507  1.6659
61538SOL     OW91853  12.448   4.389   7.496  0.2321 -0.4965 -0.5157
61538SOL    HW191854  12.479   4.375   7.407  0.5581 -1.5882 -0.2432
61538SOL    HW291855  12.505   4.335   7.550  0.4434  0.6446  0.4285
61539SOL     OW91856  11.436  10.488  12.097 -0.2211 -0.7483 -0.2716
61539SOL    HW191857  11.414  10.485  12.005 -1.5111  0.9275 -0.0660
61539SOL    HW291858  11.504  10.556  12.103 -0.0509 -0.9393 -0.0099
61540SOL     OW91859  11.639   2.977   2.066  0.4780 -0.0339  0.3236
61540SOL    HW191860  11.683   2.973   2.151  0.9668  0.9555  0.1304
61540SOL    HW291861  11.710   2.980   2.002  0.1670  1.6053  0.0052
61541SOL     OW91862  10.845   9.884  10.223 -0.7388 -0.0283 -0.4420
61541SOL    HW191863  10.802   9.935  10.155  1.4554  3.5669  0.6071
61541SOL    HW291864  10.835   9.936  10.303  1.5575 -1.2539  0.7576
61542SOL     OW91865   6.663   7.821   3.406 -0.1893 -0.0268  0.1353
61542SOL    HW191866   6.607   7.803   3.331 -0.0421 -0.3822  0.1093
61542SOL    HW291867   6.664   7.917   3.413 -3.3041  0.0098  2.0168
61543SOL     OW91868   6.204  10.870   9.614  0.0313 -0.2149  0.3200
61543SOL    HW191869   6.241  10.851   9.700 -0.8201 -0.4371  0.6547
61543SOL    HW291870   6.110  10.877   9.630 -0.3106 -1.6680 -0.8204
61544SOL     OW91871   1.270   4.370   4.179 -0.7545 -0.5025 -0.5939
61544SOL    HW191872   1.336   4.407   4.121 -1.9012  0.4506 -1.3363
61544SOL    HW291873   1.280   4.417   4.261 -2.0694  1.4202 -1.4645
61545SOL     OW91874   1.384   3.830  10.756 -0.3720  0.5619  0.1843
61545SOL    HW191875   1.307   3.814  10.701  0.3499 -1.7077 -0.2785
61545SOL    HW291876   1.349   3.845  10.844 -1.3445 -0.7811  0.0461
61546SOL     OW91877   2.250   9.799   7.651 -0.7202  0.2865 -0.7538
61546SOL    HW191878   2.234   9.834   7.738 -1.1553  0.3992 -0.8765
61546SOL    HW291879   2.300   9.718   7.665  2.0880  1.9138 -0.5310
61547SOL     OW91880   1.677   0.235   1.744 -0.4087 -0.2695 -0.6235
61547SOL    HW191881   1.666   0.252   1.651  2.9202 -0.7914 -1.2353
61547SOL    HW291882   1.760   0.186   1.750 -0.7447 -0.6687  2.5704
61548SOL     OW91883   4.552   8.016  10.800 -0.1099 -0.4019 -0.0834
61548SOL    HW191884   4.550   8.090  10.861 -0.8039 -1.0344  0.6887
61548SOL    HW291885   4.462   8.011  10.767  0.1229 -0.4275 -0.7198
61549SOL     OW91886   1.027   5.029   4.382  0.5087  0.8789 -0.6263
61549SOL    HW191887   1.044   4.969   4.454 -0.0682 -1.3174 -2.2037
61549SOL    HW291888   1.103   5.021   4.325  0.4149  1.6754 -0.8830
61550SOL     OW91889  10.089   6.785  12.709 -0.2066 -0.1637  0.0194
61550SOL    HW191890  10.172   6.744  12.685  0.0477  0.2930  0.0986
61550SOL    HW291891  10.090   6.869  12.663 -0.7644 -0.2824 -0.2236
61551SOL     OW91892   4.055  10.640  12.025 -1.2690  0.3984 -0.3351
61551SOL    HW191893   4.019  10.675  12.106 -1.1182 -1.9374  0.8088
61551SOL    HW291894   4.147  10.622  12.045 -1.7802 -2.4538 -0.1674
61552SOL     OW91895  10.369   2.083   0.914  0.0641 -0.3615  0.6723
61552SOL    HW191896  10.415   2.149   0.861  1.5804 -3.2632 -1.9704
61552SOL    HW291897  10.286   2.070   0.869  0.2829 -1.0453  0.4504
61553SOL     OW91898   5.988   0.095  10.859  0.1753 -0.2038  0.3734
61553SOL    HW191899   5.983   0.088  10.955  0.9430  0.2517  0.4576
61553SOL    HW291900   5.964   0.009  10.827 -0.5255 -0.2360  0.9628
61554SOL     OW91901   1.550   5.212   0.237 -0.0676  0.5704 -0.1210
61554SOL    HW191902   1.487   5.272   0.196 -1.0372  0.3043  0.9316
61554SOL    HW291903   1.541   5.130   0.190  0.2926  0.8490 -0.6850
61555SOL     OW91904   2.726  11.315   0.195  0.5185 -0.2531 -0.4563
61555SOL    HW191905   2.738  11.306   0.289 -0.6558  3.3622  0.1637
61555SOL    HW291906   2.814  11.328   0.160  1.0246 -2.1616 -0.0299
61556SOL     OW91907   9.985   9.473   4.693  0.0837  0.4841 -0.3243
61556SOL    HW191908   9.982   9.442   4.603 -0.5185  0.0449 -0.1659
61556SOL    HW291909   9.904   9.438   4.732  0.7308 -0.0111  0.5954
61557SOL     OW91910   2.063  10.086   5.263  0.0532  0.1009 -0.4815
61557SOL    HW191911   2.014  10.032   5.202 -1.8807 -1.6267  2.3342
61557SOL    HW291912   2.034  10.175   5.246 -0.1846 -0.2857 -2.2210
61558SOL     OW91913  12.265  11.902   0.194  0.4965  0.0904 -0.8430
61558SOL    HW191914  12.204  11.964   0.155 -0.2140 -0.1976 -0.2271
61558SOL    HW291915  12.216  11.819   0.199  1.0847 -0.2601 -0.7417
61559SOL     OW91916   7.619   8.113   0.412  0.4300 -0.2275  0.3202
61559SOL    HW191917   7.699   8.114   0.465  0.7637 -0.8489 -0.1640
61559SOL    HW291918   7.644   8.068   0.332 -0.3739 -0.2977  0.1053
61560SOL     OW91919  12.419  10.133   8.013  0.1294 -0.1587 -0.2953
61560SOL    HW191920  12.352  10.087   8.063 -1.1411  0.4793 -1.3634
61560SOL    HW291921  12.502  10.098   8.047 -0.7112 -0.8762  1.1376
61561SOL     OW91922  11.461   3.062   1.095  0.2584 -0.1335 -0.0988
61561SOL    HW191923  11.393   3.129   1.102  0.8803  0.8617 -2.4528
61561SOL    HW291924  11.543   3.112   1.101  0.7531 -0.9314 -0.1637
61562SOL     OW91925  10.941   9.082   2.764 -0.4444  0.2545 -0.6229
61562SOL    HW191926  10.884   9.045   2.696  0.8315  1.9830 -2.7312
61562SOL    HW291927  10.912   9.172   2.773  0.1942  0.3813  0.2877
61563SOL     OW91928   1.976   9.602  11.837  0.1853 -0.2366  0.1076
61563SOL    HW191929   1.999   9.519  11.878  0.0689  0.4209  1.5776
61563SOL    HW291930   2.060   9.648  11.828 -0.0141  0.4857  1.6445
61564SOL     OW91931  10.777   1.023  12.246  0.2245 -0.0301 -0.6007
61564SOL    HW191932  10.776   0.980  12.160 -0.0551  0.0865 -0.6569
61564SOL    HW291933  10.857   0.991  12.287  0.9750  0.7999 -1.3600
61565SOL     OW91934   4.417   0.278  11.747  0.4146  0.5152 -0.0760
61565SOL    HW191935   4.408   0.256  11.840 -2.0773 -1.0111 -0.5609
61565SOL    HW291936   4.408   0.194  11.702  0.1178  1.3964 -1.7334
61566SOL     OW91937   0.810   9.534   5.707 -0.1950  0.8548 -0.0451
61566SOL    HW191938   0.808   9.586   5.627  0.6037  0.5359 -0.2802
61566SOL    HW291939   0.730   9.558   5.754 -1.2140  0.2499 -1.4261
61567SOL     OW91940   1.436   6.300  11.448  0.0303 -0.5597 -0.3516
61567SOL    HW191941   1.421   6.257  11.364 -0.3282  0.1672 -0.6621
61567SOL    HW291942   1.509   6.359  11.433  0.8475 -1.3903  0.2052
61568SOL     OW91943   6.558   1.224   3.620  0.3056  0.0929 -1.0413
61568SOL    HW191944   6.606   1.168   3.680 -1.3957  1.3065  1.6204
61568SOL    HW291945   6.481   1.172   3.595 -1.1744  1.0138  1.2787
61569SOL     OW91946   6.131   5.219   7.187  0.0188  0.1372  0.0995
61569SOL    HW191947   6.203   5.208   7.248  0.9440  0.2915 -0.9418
61569SOL    HW291948   6.083   5.295   7.219  0.7168  0.4529  0.4144
61570SOL     OW91949   1.370   8.073   2.696  0.4786  0.0753  0.0187
61570SOL    HW191950   1.317   8.127   2.638  0.8139  1.0490  0.6062
61570SOL    HW291951   1.460   8.093   2.671  0.6171  0.2453  0.6548
61571SOL     OW91952   8.463  10.681   0.391  0.7846  0.2806 -0.0414
61571SOL    HW191953   8.370  10.689   0.369  1.3823 -0.1025 -3.1791
61571SOL    HW291954   8.474  10.738   0.466 -1.7325  1.4511 -0.4307
61572SOL     OW91955   2.357  11.469   5.906  0.7963  0.0217  0.1983
61572SOL    HW191956   2.277  11.472   5.854 -0.4805 -2.5264  1.7667
61572SOL    HW291957   2.423  11.512   5.852 -1.2610  0.8735 -1.8132
61573SOL     OW91958   9.791   5.202   7.551 -0.8441 -0.6609 -0.3920
61573SOL    HW191959   9.718   5.238   7.600  0.5734 -0.2558  1.5186
61573SOL    HW291960   9.859   5.187   7.616  0.9988 -0.4660 -2.1716
61574SOL     OW91961   6.245   3.826  11.865  0.0612 -0.5389  0.0799
61574SOL    HW191962   6.239   3.732  11.851 -0.0171 -0.7256  1.3111
61574SOL    HW291963   6.204   3.841  11.950 -2.2890  0.9523 -1.2290
61575SOL     OW91964  12.606   1.880   1.262 -0.5210  0.2871 -0.3057
61575SOL    HW191965  12.545   1.811   1.287  0.0639  0.5340  2.0026
61575SOL    HW291966  12.639   1.915   1.345  2.3150  0.5468 -1.4191
61576SOL     OW91967   1.936   8.130   5.981  0.3522 -0.1407  0.0045
61576SOL    HW191968   1.919   8.156   5.891 -0.1943 -1.4450 -0.2995
61576SOL    HW291969   1.862   8.165   6.031 -0.2324 -0.8673 -0.3463
61577SOL     OW91970   4.766   7.991  12.353 -0.3103 -0.0142  1.2835
61577SOL    HW191971   4.735   8.013  12.265  0.9763  1.3275  1.1413
61577SOL    HW291972   4.748   7.897  12.361 -0.2004 -0.2287 -0.5137
61578SOL     OW91973   4.544   2.656   0.625  0.4521 -0.6882  0.5882
61578SOL    HW191974   4.478   2.588   0.642 -1.0569  0.5256 -0.1400
61578SOL    HW291975   4.581   2.632   0.540  0.1944 -0.8116  0.5087
61579SOL     OW91976   8.424   5.738   9.158 -0.5375  0.3664 -0.0668
61579SOL    HW191977   8.502   5.793   9.160 -0.1845 -0.1331  0.2055
61579SOL    HW291978   8.447   5.662   9.211 -2.1496  1.4234  2.2965
61580SOL     OW91979   9.133   1.376   9.613 -0.3879 -0.3950  0.1018
61580SOL    HW191980   9.226   1.398   9.604 -0.4782  0.3453  0.8849
61580SOL    HW291981   9.116   1.383   9.707 -1.7709  1.6879 -0.2506
61581SOL     OW91982   7.934   8.489   4.263  0.7543  0.4197  0.3105
61581SOL    HW191983   7.891   8.529   4.188 -0.2766 -1.3763 -0.1040
61581SOL    HW291984   7.921   8.395   4.251  1.1185  0.0615  2.4185
61582SOL     OW91985   9.443   3.448   1.381 -0.4753  0.4196 -0.7362
61582SOL    HW191986   9.399   3.405   1.454  1.9699 -0.7376  0.1717
61582SOL    HW291987   9.501   3.512   1.423  1.5280 -0.7880 -1.5464
61583SOL     OW91988   7.730   8.786   3.244 -0.0775  0.5118  0.0593
61583SOL    HW191989   7.707   8.870   3.205 -0.4320  0.1091 -0.6314
61583SOL    HW291990   7.791   8.747   3.181 -0.5897 -0.1125 -0.0607
61584SOL     OW91991   9.645   1.026   9.787  0.1631  0.1792  0.1068
61584SOL    HW191992   9.662   1.075   9.707 -1.2296  0.2501 -0.1713
61584SOL    HW291993   9.648   1.091   9.857 -2.2250  0.8401 -0.3180
61585SOL     OW91994   9.555   8.513   3.328 -0.5121  0.1654  0.2313
61585SOL    HW191995   9.516   8.447   3.270 -1.7178 -0.4902  1.7049
61585SOL    HW291996   9.521   8.490   3.415 -0.4142  2.3368  0.8867
61586SOL     OW91997   2.925   2.023   4.904 -0.2916  0.3287 -0.1828
61586SOL    HW191998   2.834   2.036   4.933 -0.6875 -2.7927  0.3545
61586SOL    HW291999   2.978   2.058   4.975 -1.2227 -2.1884  1.9548
61587SOL     OW92000   5.935   8.135  11.405 -0.1388  0.2741  0.4168
61587SOL    HW192001   5.945   8.179  11.490  3.1133  2.1372 -0.7483
61587SOL    HW292002   6.007   8.072  11.402  0.9489  1.5099 -1.5832
61588SOL     OW92003   9.478   8.454   1.325  0.2041 -0.3813 -0.1450
61588SOL    HW192004   9.410   8.491   1.270  0.7349  1.3641  0.3269
61588SOL    HW292005   9.550   8.435   1.266 -0.5708 -2.0502 -0.6142
61589SOL     OW92006   5.545   0.578  10.845 -0.1155 -0.6019 -0.2421
61589SOL    HW192007   5.589   0.507  10.891 -1.0019 -0.9068  0.1392
61589SOL    HW292008   5.567   0.656  10.896  0.9073 -0.5717 -0.6966
61590SOL     OW92009  10.514   5.780  11.330 -0.1153 -0.0016 -0.6345
61590SOL    HW192010  10.492   5.815  11.244 -0.5809 -1.0359 -0.9567
61590SOL    HW292011  10.563   5.850  11.373 -1.4355  1.2191 -1.0464
61591SOL     OW92012  11.060   8.640   7.660  0.8544 -0.3322  0.4632
61591SOL    HW192013  11.014   8.594   7.589  1.6466  0.4759 -0.6215
61591SOL    HW292014  11.012   8.721   7.671  0.4920 -0.6347  1.1530
61592SOL     OW92015   1.510  11.740   6.780 -0.3253  0.0309  0.3750
61592SOL    HW192016   1.420  11.707   6.792  0.0683 -0.7861  1.2988
61592SOL    HW292017   1.516  11.814   6.841  0.5687 -1.9110  2.8458
61593SOL     OW92018   7.070   7.453   6.725 -0.1980 -0.2828  0.0971
61593SOL    HW192019   7.082   7.503   6.805  0.2146  0.0180 -0.1462
61593SOL    HW292020   7.032   7.515   6.663  1.2998  0.0664 -0.5367
61594SOL     OW92021   9.249  11.690  11.523 -0.0789  0.3442  0.4636
61594SOL    HW192022   9.315  11.737  11.471 -0.4818 -0.2143 -0.5836
61594SOL    HW292023   9.297  11.661  11.601  0.9368 -0.0684 -0.2901
61595SOL     OW92024   8.786   1.268   8.645 -0.4368 -0.5913 -0.5815
61595SOL    HW192025   8.802   1.236   8.556  1.8653 -2.6708  0.4601
61595SOL    HW292026   8.794   1.190   8.700 -0.6442  0.8458  1.5741
61596SOL     OW92027   1.778  11.287   3.747 -0.2493  0.1263 -0.0860
61596SOL    HW192028   1.689  11.266   3.719  0.9197 -2.9745 -2.0806
61596SOL    HW292029   1.802  11.363   3.694 -1.6254  0.8845  0.3457
61597SOL     OW92030   1.244  11.500   9.471 -0.0018  0.0945 -0.1081
61597SOL    HW192031   1.211  11.441   9.539 -0.6983  0.6836  0.0717
61597SOL    HW292032   1.224  11.588   9.503  3.0500  0.5915  0.7267
61598SOL     OW92033  12.513   0.090   2.328  0.2432  0.3307 -0.1646
61598SOL    HW192034  12.515  -0.001   2.359  2.0977  0.0768 -0.9179
61598SOL    HW292035  12.596   0.101   2.281  0.1748  2.5065  0.1429
61599SOL     OW92036   8.300   2.192   3.460  0.3025 -1.0021  0.4554
61599SOL    HW192037   8.274   2.106   3.495 -0.0622 -0.8309  0.6216
61599SOL    HW292038   8.358   2.172   3.387 -0.6186 -1.4251 -0.1910
61600SOL     OW92039   2.211  11.515   8.438 -0.3486 -0.1140  0.0859
61600SOL    HW192040   2.268  11.464   8.495 -1.0989 -1.8412 -0.6483
61600SOL    HW292041   2.152  11.561   8.498  1.0902  0.8586  0.8033
61601SOL     OW92042   2.783   2.140   7.238 -0.1844 -0.6756 -1.0380
61601SOL    HW192043   2.825   2.215   7.280  0.2502 -0.6499 -1.5113
61601SOL    HW292044   2.698   2.173   7.209 -0.2881 -0.5639 -0.6241
61602SOL     OW92045   6.515   0.510   7.000  0.5156 -0.0743  0.2705
61602SOL    HW192046   6.474   0.596   6.997 -0.0428 -0.3513 -0.1141
61602SOL    HW292047   6.522   0.483   6.909  3.7334  0.9721  0.0841
61603SOL     OW92048  12.064   4.309   2.784 -0.1501  0.1608 -0.7329
61603SOL    HW192049  12.149   4.270   2.767  0.0546  1.0127 -1.7404
61603SOL    HW292050  12.002   4.256   2.734 -0.3020 -0.7314  0.3472
61604SOL     OW92051   7.089   2.236   3.586 -0.0198 -0.4954  0.1994
61604SOL    HW192052   7.173   2.191   3.580 -0.3010 -1.1322  0.8730
61604SOL    HW292053   7.072   2.243   3.680 -1.8122 -2.4757  0.1016
61605SOL     OW92054   8.788  10.803   2.485  0.8601  0.0148 -0.1394
61605SOL    HW192055   8.768  10.830   2.575 -2.0773  2.1684 -1.2757
61605SOL    HW292056   8.751  10.715   2.478 -1.7791  1.0093  0.0178
61606SOL     OW92057   1.613   2.700   8.641 -0.2617 -0.1886  0.2012
61606SOL    HW192058   1.563   2.744   8.710 -0.6507  1.0952 -0.8625
61606SOL    HW292059   1.689   2.757   8.627 -1.1399  0.5921 -1.6945
61607SOL     OW92060   8.865   2.102   6.289  0.3915 -0.1025 -0.3356
61607SOL    HW192061   8.796   2.159   6.254 -0.2104  0.5371  1.7399
61607SOL    HW292062   8.918   2.078   6.213 -0.2493  2.0008 -1.5131
61608SOL     OW92063   4.622   6.417   9.450 -0.4250  0.2916 -0.1700
61608SOL    HW192064   4.530   6.415   9.476 -0.7607  0.2644 -1.3155
61608SOL    HW292065   4.642   6.510   9.437 -0.3520  0.2816 -0.1290
61609SOL     OW92066   9.406   7.411  10.449  0.0648 -0.9365 -0.0255
61609SOL    HW192067   9.417   7.317  10.433 -1.2722 -0.7044 -2.9960
61609SOL    HW292068   9.365   7.444  10.369  0.6998  2.2449  0.8317
61610SOL     OW92069  11.359   2.928  11.828 -0.1268  0.0301  0.1268
61610SOL    HW192070  11.450   2.956  11.823  0.0151 -0.4341  0.0324
61610SOL    HW292071  11.315   2.995  11.881  0.7206 -0.8248  2.0227
61611SOL     OW92072   7.334   3.575   4.777  0.0915  0.4818  0.8341
61611SOL    HW192073   7.387   3.499   4.801 -0.5956  0.0247  0.9283
61611SOL    HW292074   7.397   3.646   4.766  0.9867 -0.5588 -1.2232
61612SOL     OW92075   2.343   4.551  12.551  0.0339 -0.0653 -0.6723
61612SOL    HW192076   2.260   4.504  12.552  0.3388 -0.6172 -0.8453
61612SOL    HW292077   2.383   4.529  12.466  0.2678  0.3597 -0.6810
61613SOL     OW92078   0.000  11.160   6.511  0.2208 -0.0900  0.5133
61613SOL    HW192079  -0.062  11.102   6.468 -1.7457  1.6892  0.8064
61613SOL    HW292080   0.029  11.220   6.443  1.7837 -0.9600  0.3512
61614SOL     OW92081   7.257   1.919   7.760  0.4638  0.2629 -0.0318
61614SOL    HW192082   7.349   1.908   7.784  0.2752  0.0194  0.6008
61614SOL    HW292083   7.258   1.928   7.665  1.0214 -0.9598 -0.1508
61615SOL     OW92084   1.872   0.478  10.508 -0.4560 -0.3126 -0.3088
61615SOL    HW192085   1.880   0.510  10.598 -0.2801  1.6966 -0.9926
61615SOL    HW292086   1.959   0.442  10.488  0.5547  2.1824 -0.6995
61616SOL     OW92087  12.408   2.525   2.691  0.2446 -0.1675 -0.5711
61616SOL    HW192088  12.415   2.494   2.781 -0.0206  1.2907 -0.0205
61616SOL    HW292089  12.478   2.479   2.644  0.0944 -1.2824  0.2672
61617SOL     OW92090   3.758  12.678   9.197  0.3364  0.1324  0.2281
61617SOL    HW192091   3.840  12.704   9.240  0.6593 -0.1324 -0.2151
61617SOL    HW292092   3.761  12.723   9.112  0.8803 -1.2666 -0.5345
61618SOL     OW92093   0.648   2.048   6.158 -0.2809 -0.0044 -0.4163
61618SOL    HW192094   0.691   2.127   6.127 -1.1529  0.7695  0.2942
61618SOL    HW292095   0.715   1.980   6.151  0.7162  0.9489 -0.3431
61619SOL     OW92096  12.366   6.686   4.258  0.1143  0.5596  0.5524
61619SOL    HW192097  12.444   6.733   4.228  0.8622 -0.2683  1.1279
61619SOL    HW292098  12.293   6.740   4.230  0.8566  0.8815 -0.8721
61620SOL     OW92099  11.864   0.818   3.833 -0.0484 -0.3490  0.1810
61620SOL    HW192100  11.820   0.865   3.762 -1.0570  2.1402  2.3318
61620SOL    HW292101  11.802   0.750   3.858  0.0993 -0.9222 -0.9332
61621SOL     OW92102   3.032   9.093   4.543  0.0212 -0.2082  0.0001
61621SOL    HW192103   3.011   9.090   4.637 -1.1525 -0.9089 -0.2618
61621SOL    HW292104   3.111   9.147   4.538  1.0726 -1.4923  1.5615
61622SOL     OW92105   3.332   2.843  11.715  0.0998 -0.0646 -0.3747
61622SOL    HW192106   3.427   2.832  11.720  0.0322 -0.4299  0.1086
61622SOL    HW292107   3.309   2.893  11.793 -0.2239 -0.8135  0.0166
61623SOL     OW92108   3.470   4.053  12.173 -0.2649 -0.4177 -0.1228
61623SOL    HW192109   3.448   4.011  12.256  0.6510 -0.8139 -0.0653
61623SOL    HW292110   3.488   4.144  12.196 -0.9329 -0.3013 -0.0404
61624SOL     OW92111   7.699   7.374  10.801  0.1859  0.4091  0.0380
61624SOL    HW192112   7.649   7.303  10.760  1.3877  0.5281 -1.7205
61624SOL    HW292113   7.785   7.336  10.817  0.5118  1.1563  0.0594
61625SOL     OW92114   3.303   5.800   7.762  0.0859 -0.4473  0.2242
61625SOL    HW192115   3.234   5.742   7.729  0.2006  0.4464 -1.6960
61625SOL    HW292116   3.345   5.749   7.831 -2.0049 -1.2955  0.9690
61626SOL     OW92117   3.159   8.788  11.969  0.9617  0.0411  0.1575
61626SOL    HW192118   3.193   8.861  12.019 -1.3580  0.5266  1.1427
61626SOL    HW292119   3.137   8.721  12.034 -2.6677  0.9112  0.0338
61627SOL     OW92120   3.603  12.138   6.181  0.2189  0.4486 -0.2869
61627SOL    HW192121   3.522  12.188   6.177 -0.0201  0.0200 -1.1214
61627SOL    HW292122   3.575  12.048   6.198  0.4872  0.2485 -0.8525
61628SOL     OW92123   3.571  12.066   0.003  0.1017  0.7487  0.5433
61628SOL    HW192124   3.606  12.152   0.027 -0.2481  1.3179 -0.8491
61628SOL    HW292125   3.491  12.087  -0.046  0.8080 -0.3082 -1.1081
61629SOL     OW92126   1.868   0.825   6.102 -0.1301  0.1341  0.0409
61629SOL    HW192127   1.923   0.824   6.181  0.2872  0.0446 -0.2511
61629SOL    HW292128   1.930   0.826   6.029 -0.5089 -0.5141 -0.3024
61630SOL     OW92129  10.117  11.193  11.582  0.1432  0.4409  0.8233
61630SOL    HW192130  10.085  11.179  11.493  1.8021  1.2083  0.0588
61630SOL    HW292131  10.079  11.121  11.633 -0.0261 -0.6100 -0.7170
61631SOL     OW92132  12.700   1.072   1.082 -0.4563  0.7561  0.1473
61631SOL    HW192133  12.682   1.160   1.050 -2.1596  0.7639  1.0028
61631SOL    HW292134  12.661   1.015   1.015  0.8528  0.6090 -0.5280
61632SOL     OW92135   5.414   9.653   0.318  0.0902 -0.4839  0.3031
61632SOL    HW192136   5.414   9.594   0.394  1.0181 -0.4500  0.3427
61632SOL    HW292137   5.332   9.633   0.273 -0.1715 -0.9648  0.9607
61633SOL     OW92138   6.819   4.048   3.292  0.0561 -0.3928  0.1194
61633SOL    HW192139   6.904   4.073   3.254 -0.8713  1.7385 -0.7107
61633SOL    HW292140   6.832   3.958   3.322  2.4884 -0.2626 -0.3237
61634SOL     OW92141   8.738   5.942  11.226 -0.4334  0.5523  0.2762
61634SOL    HW192142   8.793   6.002  11.276 -0.2203  0.4174  0.2069
61634SOL    HW292143   8.725   5.985  11.141  0.5663  0.0528 -0.1509
61635SOL     OW92144   5.199  12.407   4.031  0.0877  0.7281  0.0055
61635SOL    HW192145   5.132  12.339   4.024  0.8061 -0.2010  1.5367
61635SOL    HW292146   5.162  12.482   3.985 -0.6735 -0.7153 -1.8598
61636SOL     OW92147   2.752   6.973  11.600  0.1345  0.1820 -0.7652
61636SOL    HW192148   2.768   7.066  11.585 -2.4320  0.7604 -0.4742
61636SOL    HW292149   2.717   6.968  11.689  1.3309 -1.2494 -0.3364
61637SOL     OW92150   7.946   2.906  11.672  0.1072 -0.1616  0.6117
61637SOL    HW192151   7.887   2.899  11.597  0.9662  0.1873 -0.1160
61637SOL    HW292152   7.988   2.991  11.662 -2.3693  1.6150  3.4647
61638SOL     OW92153  10.617   3.000   7.797  0.0210 -0.0327 -0.6216
61638SOL    HW192154  10.699   3.032   7.837 -0.2811 -0.1418  0.1094
61638SOL    HW292155  10.629   2.905   7.792 -0.6271 -0.2189  0.8592
61639SOL     OW92156  11.561   4.721  10.938  0.3337 -0.3549 -0.2391
61639SOL    HW192157  11.508   4.690  10.865  1.0520 -0.3564 -0.7768
61639SOL    HW292158  11.602   4.642  10.974 -1.0832 -0.5359  1.0585
61640SOL     OW92159   5.003  11.950   8.689  0.7322  0.3443 -0.0695
61640SOL    HW192160   4.950  11.988   8.759 -0.1824 -1.1804  0.1120
61640SOL    HW292161   4.996  11.856   8.702  2.4501  0.0599 -0.8410
61641SOL     OW92162  11.913   9.243   1.732 -1.0107 -0.3564 -0.1226
61641SOL    HW192163  11.866   9.315   1.774 -0.6846  0.1767 -0.6605
61641SOL    HW292164  11.864   9.226   1.652  0.8463  1.6433 -1.8078
61642SOL     OW92165   6.084   6.389   7.291  0.3681  0.2715  0.3743
61642SOL    HW192166   6.086   6.350   7.204  1.6567  0.2894  0.3835
61642SOL    HW292167   5.991   6.407   7.307  0.0376 -0.4394 -0.6676
61643SOL     OW92168   2.503  11.885   4.707 -0.7588  0.1487  0.3018
61643SOL    HW192169   2.523  11.967   4.753 -0.5033 -0.4860  1.3664
61643SOL    HW292170   2.459  11.912   4.627  0.2251  1.3809  0.1420
61644SOL     OW92171   9.804   8.078  11.890  0.5142 -0.3987 -0.4375
61644SOL    HW192172   9.804   8.093  11.984 -0.3320  0.3975 -0.5486
61644SOL    HW292173   9.852   7.996  11.878  1.2345 -0.1495  0.6158
61645SOL     OW92174   0.824   8.783   2.892  0.4424  0.4817 -0.1088
61645SOL    HW192175   0.728   8.789   2.888  0.4908  3.5669  0.8408
61645SOL    HW292176   0.851   8.782   2.800 -0.4593 -0.7602 -0.3924
61646SOL     OW92177  11.763   7.447   5.640  0.0907 -0.0801  0.5595
61646SOL    HW192178  11.678   7.489   5.627  0.1239 -0.5470 -1.4733
61646SOL    HW292179  11.791   7.423   5.552  1.2611 -2.0574  1.4211
61647SOL     OW92180   1.094   3.942   6.989 -0.2645 -0.2651  0.1754
61647SOL    HW192181   1.031   3.952   7.060  0.6367 -0.3400  1.0167
61647SOL    HW292182   1.119   4.031   6.965 -0.4111 -0.2450  0.0982
61648SOL     OW92183   7.865  11.915   7.406 -0.4248 -0.2560 -0.2985
61648SOL    HW192184   7.880  11.889   7.316  0.2601  1.1500 -0.6194
61648SOL    HW292185   7.818  11.998   7.399 -0.2938 -0.0919  0.6413
61649SOL     OW92186   3.489   6.638   4.793  0.4572  1.0138 -0.3054
61649SOL    HW192187   3.577   6.618   4.760  1.4095  2.8751  0.9045
61649SOL    HW292188   3.487   6.598   4.880  0.4020  1.5773 -0.0388
61650SOL     OW92189   7.754  11.660   4.528  0.5070 -0.1403  0.6739
61650SOL    HW192190   7.698  11.641   4.453  1.7021  0.3488 -0.3768
61650SOL    HW292191   7.699  11.643   4.605 -1.2816  0.9370 -0.3153
61651SOL     OW92192   5.915   4.700   2.371  0.5785 -0.2334  0.0497
61651SOL    HW192193   5.828   4.688   2.334  0.9038  0.1733 -0.8596
61651SOL    HW292194   5.901   4.698   2.466 -0.5155  0.5690 -0.0774
61652SOL     OW92195  12.440   0.120   6.332 -0.0463  0.3982  0.1361
61652SOL    HW192196  12.345   0.116   6.341  0.0079  1.0006  1.0128
61652SOL    HW292197  12.457   0.082   6.246 -0.9087 -1.7075  0.8285
61653SOL     OW92198   0.572   9.257   5.293  0.3450 -0.1838  0.2815
61653SOL    HW192199   0.511   9.219   5.356  0.8447 -1.9795 -0.2716
61653SOL    HW292200   0.606   9.335   5.337 -2.0650  0.7103  0.7246
61654SOL     OW92201  12.097   1.378   7.352  0.0945  0.1695  0.1310
61654SOL    HW192202  12.045   1.458   7.351  0.6371  0.5350  0.3670
61654SOL    HW292203  12.123   1.368   7.444  1.2721  0.5616 -0.1356
61655SOL     OW92204   3.263   1.343   6.478  0.0087 -0.4800  0.1132
61655SOL    HW192205   3.176   1.304   6.489 -0.3414  0.4423  0.7146
61655SOL    HW292206   3.318   1.271   6.448 -1.3704 -0.6921 -2.1522
61656SOL     OW92207   7.536  11.875   7.493  0.0098  0.3612 -0.2362
61656SOL    HW192208   7.598  11.866   7.421 -1.4819 -0.6815 -1.4256
61656SOL    HW292209   7.550  11.796   7.546 -0.2070  0.1964 -0.4252
61657SOL     OW92210  11.602   7.764   2.838  0.2487  0.8623 -0.1241
61657SOL    HW192211  11.576   7.855   2.825 -1.0898  0.3457 -1.3845
61657SOL    HW292212  11.632   7.735   2.752 -0.7922 -0.2974 -0.1246
61658SOL     OW92213  11.506   3.186   7.808  0.5982 -0.0705 -0.1493
61658SOL    HW192214  11.590   3.174   7.852  0.5854  1.2639  0.2739
61658SOL    HW292215  11.522   3.255   7.744 -0.4743  1.1366  0.8333
61659SOL     OW92216   1.435   0.248   4.141 -0.2165 -0.0549  0.1967
61659SOL    HW192217   1.368   0.218   4.079 -0.6128 -0.4025  0.7898
61659SOL    HW292218   1.480   0.168   4.168 -0.6187 -0.0168  1.0167
61660SOL     OW92219   1.138  10.888   8.397 -0.0630  0.1354 -0.1755
61660SOL    HW192220   1.126  10.845   8.312  1.4202 -1.2373  0.2770
61660SOL    HW292221   1.053  10.879   8.440 -0.2091 -1.0864 -0.6718
61661SOL     OW92222   2.136   8.878   4.703 -0.2289  0.2062 -0.1092
61661SOL    HW192223   2.090   8.802   4.667 -0.3766 -0.1303  0.7690
61661SOL    HW292224   2.177   8.919   4.627 -1.5797  0.2494 -0.8505
61662SOL     OW92225  11.390   0.452  10.062  0.4551 -0.1163  0.6001
61662SOL    HW192226  11.479   0.467  10.031  0.0782 -2.7328 -2.2065
61662SOL    HW292227  11.401   0.409  10.147  1.8893 -0.1893  0.4009
61663SOL     OW92228  12.493   7.261   5.138 -0.3159  0.3215 -0.1162
61663SOL    HW192229  12.466   7.273   5.228  0.6169  0.8212  0.1060
61663SOL    HW292230  12.412   7.242   5.090 -0.7206 -0.7388  0.9469
61664SOL     OW92231   3.577   4.207   0.365  0.1805 -0.5399 -0.1874
61664SOL    HW192232   3.502   4.147   0.366  0.0738 -0.4452 -1.4605
61664SOL    HW292233   3.555   4.273   0.299  1.6586 -0.8908 -1.0768
61665SOL     OW92234  10.565  10.625   1.482  0.1006  0.5083  0.4812
61665SOL    HW192235  10.535  10.573   1.407  0.8301  0.9127 -0.1107
61665SOL    HW292236  10.495  10.689   1.496 -0.3624 -0.0139  0.6049
61666SOL     OW92237  10.288   4.633  12.336 -0.1835  0.3182 -0.0435
61666SOL    HW192238  10.320   4.715  12.373 -0.1765  0.4449 -0.3265
61666SOL    HW292239  10.234   4.594  12.404  0.5524  0.1116  0.4381
61667SOL     OW92240   5.912   8.273   6.471 -0.3443  0.8520  0.4139
61667SOL    HW192241   5.995   8.295   6.427 -0.6200 -0.6784 -0.9903
61667SOL    HW292242   5.846   8.319   6.421 -0.5113  0.4143  0.2230
61668SOL     OW92243   7.333   3.333   3.376 -0.2677 -0.1176  0.3656
61668SOL    HW192244   7.259   3.278   3.398 -0.1004 -1.5868 -2.3768
61668SOL    HW292245   7.372   3.293   3.298  1.6661  2.2236 -0.0231
61669SOL     OW92246   3.936  11.094  10.689  0.0304  0.6845  0.6438
61669SOL    HW192247   3.995  11.153  10.737  1.0118 -0.1588  0.5233
61669SOL    HW292248   3.988  11.014  10.677 -0.0852  0.9161 -1.9970
61670SOL     OW92249   7.490   7.298   2.128 -0.1019 -0.2325  0.1939
61670SOL    HW192250   7.558   7.291   2.061 -0.6945 -0.1479 -0.4266
61670SOL    HW292251   7.426   7.231   2.103 -1.0191  0.7549 -0.1455
61671SOL     OW92252   7.601   7.871   2.458  0.0601 -0.1098  0.4705
61671SOL    HW192253   7.634   7.939   2.399 -0.4642 -0.2807 -0.0328
61671SOL    HW292254   7.663   7.799   2.449  0.5333  0.2365  0.8893
61672SOL     OW92255   6.943   8.589  11.833 -0.5612 -0.4538  0.1634
61672SOL    HW192256   6.859   8.591  11.878 -1.3093 -1.1482 -1.1449
61672SOL    HW292257   7.008   8.575  11.903 -1.3299  1.6914  1.3883
61673SOL     OW92258   6.511   0.851   1.253 -0.3225 -0.5187  0.0555
61673SOL    HW192259   6.430   0.806   1.231 -0.3073 -0.4688 -0.1093
61673SOL    HW292260   6.577   0.811   1.196 -0.5906  0.7263 -1.2057
61674SOL     OW92261   1.687   4.001  11.467 -0.3559  0.3376 -0.0471
61674SOL    HW192262   1.733   4.066  11.414  0.9656  0.1689  0.8674
61674SOL    HW292263   1.717   3.917  11.433 -1.8160  0.1673 -1.0116
61675SOL     OW92264   6.874  10.202   2.953 -0.0469  0.0105  0.1801
61675SOL    HW192265   6.837  10.142   2.889 -1.4048  1.3037 -0.2935
61675SOL    HW292266   6.834  10.177   3.036  0.0300 -0.2439  0.1434
61676SOL     OW92267  12.456  11.136   3.133  0.3943  0.0337  0.3187
61676SOL    HW192268  12.454  11.198   3.206 -2.8622  0.7739 -0.2112
61676SOL    HW292269  12.451  11.192   3.055 -0.0009 -0.8335 -0.2901
61677SOL     OW92270  11.167   3.255   3.257  0.0972 -0.0640 -0.1036
61677SOL    HW192271  11.215   3.262   3.174  0.7949  0.4277  0.3221
61677SOL    HW292272  11.235   3.263   3.324 -0.4769 -0.3040  0.5192
61678SOL     OW92273   8.919   7.106   3.003  0.1125  0.1324 -0.2101
61678SOL    HW192274   8.843   7.082   2.950  0.1828  0.7228 -0.5958
61678SOL    HW292275   8.883   7.123   3.090 -0.0978 -0.2363 -0.2228
61679SOL     OW92276   2.606   0.121   2.850 -0.1088 -0.3671 -0.3834
61679SOL    HW192277   2.597   0.211   2.820 -1.0434 -0.4854 -0.4861
61679SOL    HW292278   2.518   0.085   2.845  0.2710 -1.3231 -0.4465
61680SOL     OW92279   9.735   3.611   1.341 -0.1449 -0.1667 -0.6297
61680SOL    HW192280   9.672   3.677   1.372  1.1191  0.3073  1.0949
61680SOL    HW292281   9.721   3.608   1.247 -1.8450  0.8726 -0.4664
61681SOL     OW92282   1.305   1.758   5.568 -0.2677 -0.0895 -0.0678
61681SOL    HW192283   1.324   1.783   5.659  2.2193  0.3680 -0.6522
61681SOL    HW292284   1.312   1.662   5.568  0.5366 -0.0352  0.0670
61682SOL     OW92285   1.323   4.018  11.240 -0.4739  0.3840 -0.0630
61682SOL    HW192286   1.386   3.968  11.291 -0.8164  1.8351  1.8952
61682SOL    HW292287   1.290   4.085  11.300 -2.8615  0.5538 -1.4121
61683SOL     OW92288  11.577   6.645   7.385  0.0670 -0.4799  0.2531
61683SOL    HW192289  11.658   6.629   7.434 -0.6162 -0.5802  1.3615
61683SOL    HW292290  11.586   6.591   7.306  0.7262 -1.1113  0.7496
61684SOL     OW92291   8.467   9.171   7.587 -0.4920  0.3846  0.1583
61684SOL    HW192292   8.488   9.223   7.664  0.5422 -0.3578  0.3961
61684SOL    HW292293   8.538   9.190   7.525 -0.3415 -0.3871  0.0817
61685SOL     OW92294   2.288   9.445   1.328 -0.4257  0.3204  0.4363
61685SOL    HW192295   2.305   9.467   1.419  2.6966 -0.6063  0.2123
61685SOL    HW292296   2.240   9.363   1.331 -0.5003  0.3872  1.2438
61686SOL     OW92297  10.570   8.068   0.772  0.0205 -0.4394 -0.5917
61686SOL    HW192298  10.521   8.141   0.734  0.8075  0.8287  0.7244
61686SOL    HW292299  10.505   8.018   0.821 -0.0404  1.2551  1.1874
61687SOL     OW92300   2.520   6.045   9.011 -0.0130 -0.0670 -0.0750
61687SOL    HW192301   2.534   6.131   9.051 -0.1161  0.6616 -1.5510
61687SOL    HW292302   2.432   6.050   8.974  0.8266  0.0481 -2.1674
61688SOL     OW92303   5.742   0.962   1.959  0.0565  0.1962  0.4141
61688SOL    HW192304   5.651   0.940   1.937  0.2750 -1.3643  0.9303
61688SOL    HW292305   5.788   0.878   1.960  1.2372  0.8048  1.4115
61689SOL     OW92306  10.979   1.737   9.167  0.2851  0.4450  0.5697
61689SOL    HW192307  11.034   1.661   9.149  0.4093  0.9875 -1.6915
61689SOL    HW292308  10.896   1.717   9.122 -0.0540  1.1923  0.8487
61690SOL     OW92309   8.935  10.080   2.287  0.3148 -0.0627  0.9385
61690SOL    HW192310   8.977  10.035   2.360  0.5561  0.3687  1.0729
61690SOL    HW292311   8.902  10.161   2.325  0.5309  0.2103  0.5502
61691SOL     OW92312   6.957   8.118   3.197 -0.2485  0.4570  0.3785
61691SOL    HW192313   6.943   8.128   3.291 -0.2006  0.9799  0.3319
61691SOL    HW292314   6.979   8.206   3.167  0.9510  0.0695  0.0795
61692SOL     OW92315   9.354   4.679   8.457 -0.1308  0.3503  0.9490
61692SOL    HW192316   9.297   4.721   8.521  0.4468  3.1942 -0.2379
61692SOL    HW292317   9.301   4.607   8.421 -0.8077 -0.6825  3.7749
61693SOL     OW92318  10.028   6.980  11.602  0.5347 -0.0951  0.6655
61693SOL    HW192319   9.940   6.944  11.588  1.2795 -1.9260  0.4339
61693SOL    HW292320  10.087   6.909  11.577  2.0976  1.1456  0.6915
61694SOL     OW92321   3.479   7.228  11.441  0.0384  0.2359 -0.2485
61694SOL    HW192322   3.449   7.319  11.435  0.5521  0.4082 -0.2738
61694SOL    HW292323   3.574   7.235  11.445  0.0691 -0.2921 -0.0203
61695SOL     OW92324   3.287   3.897   3.865 -0.4439 -0.0794 -0.1813
61695SOL    HW192325   3.358   3.842   3.832 -1.7762 -1.3617 -0.9748
61695SOL    HW292326   3.250   3.848   3.938  1.3311  1.9379  2.2839
61696SOL     OW92327   6.041   1.450  10.028  0.1136  0.1429 -0.3321
61696SOL    HW192328   6.046   1.409  10.114  1.5147 -2.0265 -1.3743
61696SOL    HW292329   5.948   1.466  10.015 -0.1365  0.4967  1.5321
61697SOL     OW92330   8.978   1.986   7.911 -0.2644 -0.1029  0.0920
61697SOL    HW192331   8.997   1.897   7.941 -1.6266 -0.2714  0.5045
61697SOL    HW292332   8.981   2.039   7.991 -1.4477 -0.1421  0.1884
61698SOL     OW92333  12.212  11.948  12.004  0.3435  0.3703  0.0583
61698SOL    HW192334  12.222  11.886  12.076  2.5314  1.2237  0.5710
61698SOL    HW292335  12.238  11.899  11.926 -0.3578 -0.0514  0.0779
61699SOL     OW92336   4.814   9.247   3.840  0.5937 -0.0133 -0.7726
61699SOL    HW192337   4.830   9.285   3.754  0.4318  0.2155 -0.7023
61699SOL    HW292338   4.784   9.158   3.822  2.1982 -0.5581 -0.9011
61700SOL     OW92339   6.772   7.050   2.858  0.0668  0.4250  0.1766
61700SOL    HW192340   6.731   7.060   2.772  0.8364  1.1820 -0.1181
61700SOL    HW292341   6.718   7.103   2.917 -0.5441 -0.2079  0.1998
61701SOL     OW92342   9.589  10.942  11.012  0.5018 -0.8368  0.3850
61701SOL    HW192343   9.634  10.860  10.992 -0.3971 -1.4250  0.7103
61701SOL    HW292344   9.527  10.953  10.940  0.7585 -0.3286  0.2366
61702SOL     OW92345   4.127   2.778   7.560 -0.2227  0.4255  0.3711
61702SOL    HW192346   4.095   2.757   7.648  0.9524  1.2401  1.0266
61702SOL    HW292347   4.062   2.838   7.524 -0.2849  0.7625  1.0263
61703SOL     OW92348   5.806  10.293   1.339 -0.4153  0.5542 -0.0287
61703SOL    HW192349   5.738  10.227   1.350  0.6069 -0.8291 -1.4039
61703SOL    HW292350   5.770  10.355   1.275 -0.3289 -0.3265 -0.9669
61704SOL     OW92351   1.605   0.430   5.954  0.0323 -0.7087  0.1693
61704SOL    HW192352   1.616   0.485   6.032 -0.7794 -2.3782  1.5231
61704SOL    HW292353   1.687   0.441   5.905  0.9205 -0.2783  1.6866
61705SOL     OW92354   5.980  11.947  12.390  0.5738  0.4072 -0.1421
61705SOL    HW192355   5.894  11.950  12.348  0.2291 -1.5673  0.2908
61705SOL    HW292356   5.974  11.872  12.450  2.3101  0.7780  0.5432
61706SOL     OW92357   8.685   0.081   7.286 -0.1842 -0.2020 -0.0711
61706SOL    HW192358   8.723   0.117   7.206 -0.2913  2.5589  0.9981
61706SOL    HW292359   8.753   0.094   7.352 -1.3247  0.7862  0.9556
61707SOL     OW92360   3.670   8.918   5.522  0.8313  0.2196 -0.7984
61707SOL    HW192361   3.697   8.910   5.431 -0.3901  1.9036 -1.3685
61707SOL    HW292362   3.699   9.006   5.547 -1.2851  0.8673 -0.4786
61708SOL     OW92363   1.997   1.638   3.371  0.2474  0.3052 -0.5325
61708SOL    HW192364   1.919   1.599   3.332 -0.7092  0.2859  1.3313
61708SOL    HW292365   2.037   1.567   3.421 -0.1221  1.0476  0.8470
61709SOL     OW92366   0.597   3.875   4.856 -0.3276 -0.3454 -0.5342
61709SOL    HW192367   0.594   3.813   4.928 -0.8747 -1.4637 -1.4968
61709SOL    HW292368   0.515   3.924   4.862  0.1966  0.4721  0.3497
61710SOL     OW92369  10.292   5.785   0.472  0.7270  0.1539  0.2609
61710SOL    HW192370  10.352   5.849   0.508  0.5576  0.7671 -0.5132
61710SOL    HW292371  10.287   5.716   0.538  1.8895  0.3297  0.5457
61711SOL     OW92372   3.907   7.960  11.561 -0.2157  0.4792 -0.0854
61711SOL    HW192373   3.896   8.016  11.638 -1.0905 -0.0115  0.1612
61711SOL    HW292374   3.871   8.012  11.489  1.8085  1.4850 -0.4381
61712SOL     OW92375   9.858  11.668   7.877 -0.2544  0.0583  0.2856
61712SOL    HW192376   9.924  11.660   7.808 -1.7561 -0.3033 -1.1758
61712SOL    HW292377   9.870  11.590   7.930 -0.3135 -0.6351 -0.7006
61713SOL     OW92378   2.246   2.623   8.635  0.2729 -0.5749 -0.5997
61713SOL    HW192379   2.199   2.704   8.615 -0.1397 -0.3477  1.1934
61713SOL    HW292380   2.334   2.652   8.660  0.2314 -0.7178 -0.2939
61714SOL     OW92381   1.370  11.901   6.203 -0.0903  0.2892 -0.3430
61714SOL    HW192382   1.326  11.936   6.281  0.6017 -0.6352  0.4992
61714SOL    HW292383   1.458  11.938   6.206 -0.4661  1.3504 -1.4802
61715SOL     OW92384  12.431   5.887   1.552  0.1098 -0.7747 -0.0302
61715SOL    HW192385  12.476   5.939   1.618 -2.5902  0.7482  0.7410
61715SOL    HW292386  12.473   5.911   1.469 -0.1150  1.5849  0.4827
61716SOL     OW92387   5.690  10.458   4.623  0.0138  1.1594 -0.7032
61716SOL    HW192388   5.680  10.494   4.535  0.4856 -0.0195 -1.2529
61716SOL    HW292389   5.628  10.386   4.627  0.9216  0.3632 -0.5480
61717SOL     OW92390   9.699  10.941   9.358 -0.4092 -0.0825  0.5474
61717SOL    HW192391   9.718  10.859   9.404  0.5516 -0.3095 -0.2354
61717SOL    HW292392   9.741  11.008   9.411  0.7689 -0.3538 -0.0240
61718SOL     OW92393   6.816   7.167   8.041  0.1987  0.7920 -0.4269
61718SOL    HW192394   6.851   7.255   8.057 -0.0138  1.4865 -3.2258
61718SOL    HW292395   6.890   7.109   8.058  1.0519  1.7340 -0.8355
61719SOL     OW92396  10.339   1.636  12.331 -0.0093 -0.3120 -0.4902
61719SOL    HW192397  10.327   1.705  12.397 -0.3697 -0.5917 -0.2583
61719SOL    HW292398  10.354   1.683  12.249  0.6119  0.0412 -0.1838
61720SOL     OW92399   0.650   1.668  12.251 -0.3731 -0.5331 -0.8289
61720SOL    HW192400   0.591   1.708  12.186 -0.8918  1.1181  0.5723
61720SOL    HW292401   0.651   1.730  12.324  0.6734 -2.0184  0.5023
61721SOL     OW92402   8.924   7.181   3.494 -0.0107 -0.1369 -0.2928
61721SOL    HW192403   8.931   7.205   3.587 -0.5118  0.6278 -0.4477
61721SOL    HW292404   9.015   7.170   3.465  0.2828  2.0997 -0.3424
61722SOL     OW92405   6.147   2.792   3.035  0.2344 -0.4872  0.3636
61722SOL    HW192406   6.146   2.699   3.014 -1.5548 -0.6106  0.8023
61722SOL    HW292407   6.102   2.834   2.962 -0.4002 -0.1755  0.9194
61723SOL     OW92408   9.323  11.426   4.725 -0.1840  0.0725  0.3506
61723SOL    HW192409   9.259  11.359   4.701  0.7792 -0.4166 -0.9559
61723SOL    HW292410   9.330  11.482   4.648 -0.1449  1.0307  1.0274
61724SOL     OW92411   9.093   0.281   0.121 -0.5611 -0.3214 -0.5958
61724SOL    HW192412   9.162   0.322   0.172 -1.6062  1.2108 -0.3499
61724SOL    HW292413   9.044   0.229   0.185 -0.2594 -0.5778 -0.5717
61725SOL     OW92414  12.699   8.503   7.156  0.2846 -0.4114  0.1439
61725SOL    HW192415  12.766   8.436   7.161  0.4873 -0.3490 -1.3878
61725SOL    HW292416  12.620   8.461   7.191  0.5620 -1.2387 -0.2154
61726SOL     OW92417   8.110   0.949   3.307 -0.4516  0.0877 -0.4325
61726SOL    HW192418   8.078   0.949   3.397  0.6279 -0.5319 -0.0344
61726SOL    HW292419   8.175   1.019   3.304  0.1573 -0.4692 -0.4823
61727SOL     OW92420  10.419  10.207   0.718  0.6750  0.0091 -0.0099
61727SOL    HW192421  10.416  10.137   0.784 -0.2678  0.4694  0.4579
61727SOL    HW292422  10.330  10.212   0.684  1.2650 -0.5842 -1.7477
61728SOL     OW92423   1.630   0.572   1.563  0.5553 -0.0261 -0.2053
61728SOL    HW192424   1.704   0.524   1.525 -0.1312 -1.0584 -0.2690
61728SOL    HW292425   1.640   0.559   1.657 -0.3237 -1.3700 -0.2794
61729SOL     OW92426   2.655   0.980   4.775 -0.1108 -0.3532 -0.0357
61729SOL    HW192427   2.708   1.042   4.725  1.2029 -1.0086  0.5153
61729SOL    HW292428   2.582   1.033   4.809  0.4852  0.6816 -0.3346
61730SOL     OW92429   9.298   1.668  12.144  0.3839 -0.3502 -0.0484
61730SOL    HW192430   9.385   1.707  12.138  0.9511 -1.2387  1.5668
61730SOL    HW292431   9.239   1.737  12.116  1.4203  1.2820  1.5458
61731SOL     OW92432   9.194  10.506   9.371 -0.0127  0.0616  0.2711
61731SOL    HW192433   9.240  10.425   9.346 -1.0077 -1.1284  2.0712
61731SOL    HW292434   9.137  10.524   9.296  0.8869 -0.3944 -0.5410
61732SOL     OW92435   9.290  10.753   2.219  1.0210  0.0974  0.4180
61732SOL    HW192436   9.268  10.774   2.128 -0.7067  0.1003  0.8060
61732SOL    HW292437   9.339  10.671   2.213 -1.0537 -1.1538 -0.3954
61733SOL     OW92438   8.545  10.477   3.752 -0.5233  0.5964  0.4652
61733SOL    HW192439   8.558  10.427   3.671  1.0909  0.8377  0.5451
61733SOL    HW292440   8.451  10.470   3.769 -0.7360 -0.3067 -0.8764
61734SOL     OW92441   8.589   3.247   1.218 -0.4374 -0.0128  0.4627
61734SOL    HW192442   8.621   3.159   1.237  0.3071  0.3774  1.0865
61734SOL    HW292443   8.668   3.299   1.203 -0.9002  0.4018 -0.6251
61735SOL     OW92444   7.337   8.503   1.015 -0.0541  0.1042  0.2638
61735SOL    HW192445   7.389   8.473   1.089 -0.2856 -2.1354 -0.4105
61735SOL    HW292446   7.250   8.467   1.031  0.2321 -1.6613 -1.7214
61736SOL     OW92447   7.541   6.410   5.406  0.1588 -0.1340 -0.1860
61736SOL    HW192448   7.551   6.329   5.355 -4.6053 -0.7802 -0.5294
61736SOL    HW292449   7.550   6.381   5.497 -3.5067 -1.7326 -0.1569
61737SOL     OW92450  11.433   8.496   7.444 -0.1075 -0.3906 -0.4510
61737SOL    HW192451  11.469   8.496   7.533 -1.0457 -0.4663 -0.0594
61737SOL    HW292452  11.509   8.507   7.387  0.4002  0.7782  0.4125
61738SOL     OW92453   9.933   4.509   4.377 -0.2989  0.3467 -0.5798
61738SOL    HW192454   9.917   4.586   4.431  0.0739  0.2754 -0.3609
61738SOL    HW292455   9.980   4.543   4.300  0.1245  0.3037 -0.3454
61739SOL     OW92456   0.820   3.192   3.421 -0.5099 -0.0976 -0.9453
61739SOL    HW192457   0.868   3.252   3.478  1.2586 -0.2359 -2.2175
61739SOL    HW292458   0.731   3.190   3.458  0.1927  0.8970  0.9294
61740SOL     OW92459   4.336   3.929  12.670 -0.1412  0.1889 -0.4872
61740SOL    HW192460   4.347   3.840  12.703 -0.8042 -0.2738 -1.4777
61740SOL    HW292461   4.381   3.930  12.586  0.5291  1.0280 -0.1400
61741SOL     OW92462   6.937  11.997   7.290 -0.0163 -0.0069  0.0316
61741SOL    HW192463   6.941  11.950   7.373 -0.4137  1.8376  1.1426
61741SOL    HW292464   7.025  12.031   7.277  0.1629 -0.6654 -0.5598
61742SOL     OW92465   1.672   0.875   5.827 -0.1919 -0.2205  0.0783
61742SOL    HW192466   1.628   0.862   5.911  0.5097 -0.8968  0.3554
61742SOL    HW292467   1.717   0.793   5.811 -0.0477  0.0223 -0.8064
61743SOL     OW92468   5.214  10.918  11.634 -0.0883 -0.2671  0.6640
61743SOL    HW192469   5.298  10.955  11.606 -0.2412 -0.0721  0.4514
61743SOL    HW292470   5.168  10.901  11.552  1.0299 -3.4986  0.5737
61744SOL     OW92471   4.697   9.694   9.579  0.0452 -0.7254 -0.2612
61744SOL    HW192472   4.686   9.772   9.634  0.0973 -1.2769  0.5506
61744SOL    HW292473   4.641   9.710   9.503  0.5097  0.3576 -0.3972
61745SOL     OW92474   6.250   2.178   7.030 -0.3370  0.2638 -0.5416
61745SOL    HW192475   6.278   2.225   6.951  1.1226 -0.4512 -0.4771
61745SOL    HW292476   6.196   2.107   6.997  0.8915 -0.4870 -0.9789
61746SOL     OW92477   4.285  11.654   0.098 -0.4896 -0.0316  0.0827
61746SOL    HW192478   4.248  11.682   0.181  0.7067  0.9278  0.3196
61746SOL    HW292479   4.304  11.561   0.110  3.3742  0.8348  2.4105
61747SOL     OW92480  11.177  10.166   4.569  0.2791 -0.0912  0.5211
61747SOL    HW192481  11.172  10.071   4.582 -0.9581  0.0921  1.5165
61747SOL    HW292482  11.217  10.199   4.649 -1.3474  0.4136  1.1643
61748SOL     OW92483  10.487   7.067   6.403  0.2788 -0.3594 -0.5445
61748SOL    HW192484  10.521   7.155   6.385 -0.1978  0.3081  1.5256
61748SOL    HW292485  10.497   7.020   6.321  2.0740  1.1299 -1.2471
61749SOL     OW92486   8.912   7.652  11.912  0.4840  0.4331  0.0964
61749SOL    HW192487   8.904   7.733  11.861  0.9630 -0.1669 -0.9677
61749SOL    HW292488   8.995   7.660  11.959  1.2067  0.0061 -1.0628
61750SOL     OW92489  11.980   8.601   0.465  0.2641  0.8376  0.1058
61750SOL    HW192490  12.069   8.601   0.499 -0.1431 -0.7481  1.2636
61750SOL    HW292491  11.936   8.671   0.513  0.0467 -0.5153  1.9494
61751SOL     OW92492   4.570   5.026   9.732  0.8446 -0.0026 -0.2472
61751SOL    HW192493   4.491   5.016   9.678  0.1477  0.5320  0.6393
61751SOL    HW292494   4.592   5.119   9.726  1.7178 -0.2472 -0.9025
61752SOL     OW92495   8.778   3.494   6.851 -0.0324  0.4409  0.8255
61752SOL    HW192496   8.846   3.521   6.789  1.5617  0.1098  2.3437
61752SOL    HW292497   8.798   3.402   6.867 -2.4308 -0.4127 -0.5933
61753SOL     OW92498   6.569   0.827   3.943  0.4241 -0.6792  0.3886
61753SOL    HW192499   6.611   0.770   4.007 -0.0272 -0.4377  0.9053
61753SOL    HW292500   6.528   0.896   3.995  0.4642 -0.2134 -0.1938
61754SOL     OW92501  12.340   4.353   4.009  0.4519 -0.2455  0.1004
61754SOL    HW192502  12.252   4.316   4.011 -0.8623  2.3218 -2.6751
61754SOL    HW292503  12.332   4.438   4.050  1.6848 -0.0414 -0.0364
61755SOL     OW92504  10.340   9.599   8.471 -0.0182  0.2336 -0.1859
61755SOL    HW192505  10.353   9.505   8.458 -1.0818 -0.3186  2.0954
61755SOL    HW292506  10.407   9.641   8.417 -0.4996 -1.7376 -2.4826
61756SOL     OW92507   7.830  10.619   7.961  0.0488 -0.4087 -0.2900
61756SOL    HW192508   7.778  10.547   7.998 -0.6863 -1.1650 -2.5968
61756SOL    HW292509   7.778  10.650   7.887  1.5389  0.8131 -0.8720
61757SOL     OW92510   1.103   6.613   9.386 -0.1727 -0.1251 -0.1831
61757SOL    HW192511   1.068   6.687   9.436 -1.7200 -0.8776 -0.1023
61757SOL    HW292512   1.080   6.633   9.296  0.4263  0.0363 -0.3031
61758SOL     OW92513   9.078   2.880   9.433 -0.6077 -0.5423  0.0369
61758SOL    HW192514   8.984   2.893   9.418 -0.3698  1.7950  0.1231
61758SOL    HW292515   9.083   2.822   9.508 -1.9512 -1.9363 -0.8940
61759SOL     OW92516   4.123  12.347   2.948  0.2241 -0.0053  0.2881
61759SOL    HW192517   4.184  12.289   2.993 -0.4849 -0.5542  0.5760
61759SOL    HW292518   4.148  12.435   2.976 -0.4518 -0.3565  2.1309
61760SOL     OW92519   6.499  10.546   6.714 -0.2251 -0.2744 -0.1900
61760SOL    HW192520   6.484  10.638   6.693  0.1751 -0.4695 -1.3928
61760SOL    HW292521   6.414  10.504   6.700 -0.0403 -0.3463 -1.1630
61761SOL     OW92522   7.086   0.507   5.751  0.1510 -0.5710 -0.2147
61761SOL    HW192523   7.018   0.535   5.688 -1.5886  2.6393  2.7389
61761SOL    HW292524   7.044   0.439   5.803  0.1100 -0.3605  0.0279
61762SOL     OW92525   9.835   5.753   2.187 -0.2919 -0.8735 -0.0799
61762SOL    HW192526   9.798   5.742   2.100 -1.0805  1.1157 -0.0526
61762SOL    HW292527   9.791   5.687   2.241 -2.0134 -0.1854 -0.5876
61763SOL     OW92528   7.002   2.624   1.539 -0.8110 -0.0070  0.0934
61763SOL    HW192529   6.916   2.651   1.507 -1.0626 -0.9069 -0.0179
61763SOL    HW292530   7.062   2.691   1.506 -1.4545  0.5782  0.0997
61764SOL     OW92531  11.036   7.401   5.373  0.0135 -0.2544 -0.0557
61764SOL    HW192532  11.033   7.446   5.457 -0.9689  2.4864 -1.4124
61764SOL    HW292533  11.103   7.449   5.323 -1.1904 -0.1436 -1.6344
61765SOL     OW92534   4.625  12.298   3.970 -0.4313 -0.1500 -0.3738
61765SOL    HW192535   4.593  12.386   3.991 -1.2077 -0.6332  0.5483
61765SOL    HW292536   4.717  12.310   3.949 -0.5811  0.9140 -0.4757
61766SOL     OW92537   2.116  10.813  10.026 -0.1586 -0.3276 -0.2799
61766SOL    HW192538   2.209  10.824  10.045 -0.2256  0.0201 -0.1293
61766SOL    HW292539   2.094  10.728  10.064  0.0763 -0.3685 -0.2301
61767SOL     OW92540  10.532   6.553   9.015  0.0869  0.1507 -0.1097
61767SOL    HW192541  10.580   6.549   8.932 -1.3376  0.5647 -0.9830
61767SOL    HW292542  10.584   6.612   9.070  1.1416 -0.2679 -0.6233
61768SOL     OW92543   2.397   2.038   5.498 -0.3741 -0.1846  0.1516
61768SOL    HW192544   2.342   2.043   5.420 -0.5646 -0.9380  0.2286
61768SOL    HW292545   2.468   1.980   5.473  0.6027  1.0489 -0.0577
61769SOL     OW92546   2.854   0.959   7.809 -0.3699  0.5543  0.2262
61769SOL    HW192547   2.841   0.881   7.755 -1.4560  0.1428  1.0466
61769SOL    HW292548   2.846   0.928   7.899 -1.4734  1.7168  0.5621
61770SOL     OW92549   7.621   1.352   5.271  0.2322 -0.8961  0.0850
61770SOL    HW192550   7.625   1.309   5.185  0.3162 -0.3984 -0.1630
61770SOL    HW292551   7.686   1.306   5.324 -0.2642 -1.6260  0.0765
61771SOL     OW92552   0.634   9.905   2.475  0.5495 -0.4448 -0.1218
61771SOL    HW192553   0.573   9.889   2.547  1.0344  1.4005  0.7437
61771SOL    HW292554   0.686   9.825   2.470  0.9659 -0.3673  2.0643
61772SOL     OW92555   4.914   3.358   3.991  0.2266  0.4228 -0.2563
61772SOL    HW192556   4.851   3.425   3.965 -0.2096 -0.1289 -0.6402
61772SOL    HW292557   4.999   3.399   3.976 -0.0118  1.6285  1.4418
61773SOL     OW92558   9.812  10.816   5.817  0.1159 -0.1379  0.0246
61773SOL    HW192559   9.716  10.819   5.807 -0.0757 -0.9156  1.3694
61773SOL    HW292560   9.841  10.759   5.745 -0.6421 -1.3518  0.6391
61774SOL     OW92561  10.235   3.147   5.604 -0.2233  0.4332 -0.1462
61774SOL    HW192562  10.293   3.175   5.675 -1.5260 -0.1023  1.1861
61774SOL    HW292563  10.229   3.052   5.615 -1.3435  0.4780 -0.2328
61775SOL     OW92564   5.931   4.049   1.301  0.5695  0.0381  0.3403
61775SOL    HW192565   5.981   3.980   1.345 -1.0598 -1.6687 -0.3533
61775SOL    HW292566   5.888   4.096   1.372  0.8025 -0.3745  0.7601
61776SOL     OW92567   3.082  12.362   1.783 -0.3677  0.2374  0.1573
61776SOL    HW192568   3.012  12.403   1.732 -1.1281 -0.6193  0.5077
61776SOL    HW292569   3.038  12.304   1.844  0.7001 -1.2208 -0.4073
61777SOL     OW92570   0.816   5.296   1.112  0.7501 -0.3798  0.1059
61777SOL    HW192571   0.767   5.299   1.030 -1.7443  0.1815  1.5003
61777SOL    HW292572   0.849   5.206   1.117  1.9208 -0.1134 -1.9905
61778SOL     OW92573   0.370   8.817   7.872  0.2381 -0.4700 -0.0067
61778SOL    HW192574   0.363   8.736   7.823  1.6791 -0.5645 -0.1027
61778SOL    HW292575   0.367   8.790   7.964 -2.1526 -0.3203  0.0230
61779SOL     OW92576   7.194   4.156   7.076 -0.0392 -0.0905  0.2023
61779SOL    HW192577   7.205   4.246   7.107 -0.0501 -0.4972  1.4759
61779SOL    HW292578   7.133   4.117   7.139 -3.5656  0.1696 -2.7413
61780SOL     OW92579   9.614   4.628   4.494  0.0544  0.3551  0.0256
61780SOL    HW192580   9.679   4.619   4.425  0.7405 -0.8550  0.8112
61780SOL    HW292581   9.659   4.673   4.565 -0.4033  0.8241  0.0312
61781SOL     OW92582   1.632   2.782   6.716 -0.7062  0.1354 -0.0638
61781SOL    HW192583   1.700   2.740   6.768 -0.1154 -1.4903 -2.0279
61781SOL    HW292584   1.570   2.816   6.780  1.4366  0.8460  1.7671
61782SOL     OW92585   9.230   5.991   6.980  0.3340 -0.5371 -0.1490
61782SOL    HW192586   9.196   5.982   7.069  0.1212  0.2539 -0.1377
61782SOL    HW292587   9.324   6.006   6.992  0.2375 -0.0005 -0.0253
61783SOL     OW92588  10.006   8.251  10.341 -0.3143 -0.1278 -0.4590
61783SOL    HW192589  10.050   8.332  10.313 -1.8495  0.8468 -0.1206
61783SOL    HW292590  10.072   8.205  10.393 -0.0644  1.9399  1.1834
61784SOL     OW92591   4.004   5.515  11.040 -0.2945  0.2252  0.2863
61784SOL    HW192592   4.081   5.571  11.048 -2.0064  2.4403  4.3339
61784SOL    HW292593   3.943   5.567  10.987  0.2958 -0.7527 -1.4118
61785SOL     OW92594   8.125   0.672   0.803 -0.4047  0.5345  0.0465
61785SOL    HW192595   8.060   0.674   0.873  0.2400  0.0852  0.6688
61785SOL    HW292596   8.074   0.654   0.724 -1.0565  0.3254  0.5023
61786SOL     OW92597   7.729  11.466   5.016  0.1630 -0.1776 -0.1054
61786SOL    HW192598   7.740  11.527   5.089  0.0910  0.9912 -1.0390
61786SOL    HW292599   7.817  11.430   5.001 -0.1429 -1.8397  1.6980
61787SOL     OW92600   9.515   9.787   5.711 -0.0695  0.1728 -0.2792
61787SOL    HW192601   9.585   9.849   5.693 -0.0279 -0.1920 -1.5029
61787SOL    HW292602   9.461   9.829   5.777  0.4269  1.1470 -0.4818
61788SOL     OW92603   6.490  10.053   5.178  0.1986  0.4971  0.6710
61788SOL    HW192604   6.513  10.137   5.218  1.7040  0.0467  0.7900
61788SOL    HW292605   6.507   9.989   5.247 -1.2950  0.0996  0.7038
61789SOL     OW92606   2.845   1.594   2.073 -0.4042  0.0311 -0.1146
61789SOL    HW192607   2.928   1.641   2.070 -0.0202 -0.6456 -0.2812
61789SOL    HW292608   2.817   1.590   1.981 -1.0931  1.0717  0.0376
61790SOL     OW92609   5.180   9.441   1.262 -0.7554 -0.9027  0.5761
61790SOL    HW192610   5.156   9.375   1.198  0.1785 -0.8382  0.1465
61790SOL    HW292611   5.097   9.464   1.305 -1.1722 -1.9377  0.3499
61791SOL     OW92612   7.459   8.400   1.252  0.3434 -0.1937 -0.4616
61791SOL    HW192613   7.477   8.306   1.262 -1.9117 -0.8061 -1.5049
61791SOL    HW292614   7.455   8.434   1.341 -0.2233 -1.4063 -0.0034
61792SOL     OW92615  10.328   7.716   4.222  0.1341 -0.1655  0.1335
61792SOL    HW192616  10.420   7.696   4.240 -0.2633 -0.9014  1.5755
61792SOL    HW292617  10.291   7.632   4.192  0.2046  0.4484 -1.7776
61793SOL     OW92618   1.055   4.469   5.233  0.3147  0.5948 -0.0387
61793SOL    HW192619   1.000   4.405   5.278 -0.2633  1.7206  0.9271
61793SOL    HW292620   1.002   4.549   5.232  1.6361  1.5105  0.2709
61794SOL     OW92621   2.066   2.813  11.209 -0.1082  0.1604 -0.1770
61794SOL    HW192622   2.104   2.794  11.295  0.8314 -1.8030 -0.9621
61794SOL    HW292623   2.040   2.728  11.175 -2.2797  1.1150 -1.0606
61795SOL     OW92624   4.955  10.562   9.545  0.0089  0.4726 -0.1544
61795SOL    HW192625   4.910  10.480   9.564  1.5191 -0.4861 -0.4981
61795SOL    HW292626   4.939  10.576   9.452 -0.5310  0.7562 -0.0211
61796SOL     OW92627   6.646   2.882   5.781 -0.4179  0.1319  0.1386
61796SOL    HW192628   6.574   2.946   5.778  0.7849  1.5044 -2.0898
61796SOL    HW292629   6.710   2.915   5.718  0.8456 -2.6625 -0.1730
61797SOL     OW92630   5.638   1.237   1.861  0.1346 -0.3000  0.1307
61797SOL    HW192631   5.566   1.263   1.918 -0.2541 -2.4572  0.7256
61797SOL    HW292632   5.665   1.151   1.895  0.9832 -0.8942 -1.9165
61798SOL     OW92633   1.619   5.664   8.489  0.2671  0.1253 -0.3280
61798SOL    HW192634   1.599   5.588   8.434  2.2589 -0.3574 -0.4676
61798SOL    HW292635   1.582   5.642   8.575 -3.1614  1.0269 -1.4193
61799SOL     OW92636  12.015   8.401  11.159  0.5215  0.3460 -0.6188
61799SOL    HW192637  11.933   8.422  11.204  0.3216 -3.3744  1.1263
61799SOL    HW292638  11.987   8.369  11.073  0.5184  2.3042 -1.4152
61800SOL     OW92639   8.800   3.463   2.257 -0.2963  0.0985 -0.0542
61800SOL    HW192640   8.739   3.519   2.209 -0.2108  0.0571 -0.2119
61800SOL    HW292641   8.792   3.491   2.348  0.5829  1.1255 -0.2859
61801SOL     OW92642   3.278   3.925   2.073  0.1654  0.3610 -0.0082
61801SOL    HW192643   3.319   3.999   2.118 -0.2542 -0.3347  1.5926
61801SOL    HW292644   3.184   3.941   2.082 -0.0154 -1.4396  2.4104
61802SOL     OW92645   3.928  10.656  12.304 -0.2273 -0.0914  0.0663
61802SOL    HW192646   3.979  10.687  12.379 -0.0696 -1.9635  0.7820
61802SOL    HW292647   3.837  10.661  12.333 -0.5354  2.8103 -1.0487
61803SOL     OW92648   4.056   4.310  10.593 -0.1974  0.4519  0.1975
61803SOL    HW192649   3.965   4.304  10.620 -0.3362 -0.1182 -0.3879
61803SOL    HW292650   4.105   4.266  10.662 -0.6212 -1.7432 -0.8188
61804SOL     OW92651  11.427   5.117   1.923  0.5560  0.0116 -0.5991
61804SOL    HW192652  11.441   5.189   1.862  1.4097 -0.8918 -1.5302
61804SOL    HW292653  11.513   5.076   1.931  0.2560 -0.4193  0.5356
61805SOL     OW92654  11.158  12.061   4.759  0.0525 -0.3583  0.3252
61805SOL    HW192655  11.247  12.082   4.786  0.0262 -0.0539  0.1746
61805SOL    HW292656  11.163  11.971   4.726  0.0737 -0.7619  1.4037
61806SOL     OW92657  10.913   6.200   0.651  0.1943 -0.2605  0.2990
61806SOL    HW192658  10.900   6.240   0.566  0.3459  0.6165  0.6770
61806SOL    HW292659  10.985   6.138   0.639  1.5088  1.2299  0.2097
61807SOL     OW92660   6.862   1.035   9.414  0.5449  0.2461  0.4360
61807SOL    HW192661   6.924   0.990   9.471 -0.0827 -0.4674  0.5747
61807SOL    HW292662   6.917   1.087   9.356  1.2425  0.1478  0.9876
61808SOL     OW92663  10.364   6.550   4.889 -0.5780  0.2597 -0.1430
61808SOL    HW192664  10.294   6.505   4.937 -0.0442  1.5241  1.9737
61808SOL    HW292665  10.323   6.630   4.857 -0.8178 -0.3789 -1.4895
61809SOL     OW92666   3.899  12.700   7.154  0.4234  0.1493 -0.3935
61809SOL    HW192667   3.930  12.611   7.169  0.7705  0.5528  1.5509
61809SOL    HW292668   3.814  12.690   7.111  0.1591 -1.1280  0.3868
61810SOL     OW92669  12.550   6.009   2.900  0.5248 -0.1700 -0.0524
61810SOL    HW192670  12.611   6.083   2.900  0.3585 -0.0287  0.3500
61810SOL    HW292671  12.598   5.939   2.856  0.8579  0.0415 -0.0312
61811SOL     OW92672   5.837  12.496   7.953  0.2607  0.0813 -0.3019
61811SOL    HW192673   5.815  12.496   8.046  0.7829  1.7708 -0.1444
61811SOL    HW292674   5.756  12.521   7.909 -1.3887 -5.0214 -0.8228
61812SOL     OW92675   3.464   3.985  12.427 -0.4101  0.4002 -0.1604
61812SOL    HW192676   3.539   4.003  12.483  0.1743 -0.1419 -0.7434
61812SOL    HW292677   3.392   3.966  12.487  0.7515 -2.5543  0.4889
61813SOL     OW92678   9.059  12.044   7.778  0.0144 -0.2638  0.0959
61813SOL    HW192679   9.022  11.995   7.704  0.8940  0.1491 -0.6427
61813SOL    HW292680   9.103  12.119   7.737 -0.3203  0.5118  1.1200
61814SOL     OW92681  10.822  11.196   0.413  0.6944  0.0107  0.3326
61814SOL    HW192682  10.829  11.271   0.472  0.8643  1.5228 -1.5300
61814SOL    HW292683  10.891  11.209   0.348 -0.2600 -0.9275 -0.9323
61815SOL     OW92684   6.932   5.898   9.409  0.0933  0.1127  0.6434
61815SOL    HW192685   6.858   5.838   9.418 -0.1628  0.5751  1.9266
61815SOL    HW292686   7.006   5.851   9.449  0.6834 -0.6099 -1.2092
61816SOL     OW92687   8.593  12.404  11.506  0.0063  0.2095  0.6232
61816SOL    HW192688   8.633  12.386  11.591 -0.2533  0.2979  0.7657
61816SOL    HW292689   8.528  12.472  11.524 -1.3197 -1.0343  0.6827
61817SOL     OW92690   8.036   3.836   7.781 -0.2300  0.2661  0.1942
61817SOL    HW192691   8.080   3.865   7.701  1.4774  0.1050  1.0163
61817SOL    HW292692   8.044   3.910   7.841 -2.0244  0.6086  0.0534
61818SOL     OW92693   3.844   5.335   0.924  0.3455 -0.4499 -0.5818
61818SOL    HW192694   3.822   5.261   0.867  1.3938  0.3000 -2.0143
61818SOL    HW292695   3.936   5.322   0.947  0.6000  0.5101 -1.0218
61819SOL     OW92696   8.858  11.030   2.745 -0.4799  0.1333 -0.0757
61819SOL    HW192697   8.878  11.045   2.838  0.0757 -2.2312  0.2521
61819SOL    HW292698   8.812  11.109   2.717  0.0073  1.2266  2.0052
61820SOL     OW92699   2.723  12.594   4.949 -0.8167  0.0501 -0.1894
61820SOL    HW192700   2.741  12.665   5.010  0.3019  0.1615 -0.6216
61820SOL    HW292701   2.640  12.556   4.980 -0.4182  0.2647  1.2386
61821SOL     OW92702  12.382   2.463  10.029 -0.4543  0.0449 -0.0053
61821SOL    HW192703  12.324   2.393  10.000  1.1771 -1.9265  1.2630
61821SOL    HW292704  12.459   2.419  10.064 -0.8584  2.2210  4.3350
61822SOL     OW92705   6.394  12.000   4.951  0.1007  0.3520 -0.2355
61822SOL    HW192706   6.466  11.945   4.982 -1.7074 -1.4572  1.0541
61822SOL    HW292707   6.435  12.084   4.929  2.9907 -1.3728 -2.1368
61823SOL     OW92708  11.597  11.041   1.090  0.9349 -0.3951 -0.0620
61823SOL    HW192709  11.641  10.980   1.032  0.4480 -1.2422  0.4345
61823SOL    HW292710  11.521  11.072   1.039  0.4393 -1.2290  0.1435
61824SOL     OW92711   3.001   9.825   2.529  0.2054  0.2407  0.1258
61824SOL    HW192712   3.007   9.872   2.612 -0.4810  0.6569 -0.0505
61824SOL    HW292713   2.910   9.837   2.501 -0.6968 -2.9993  1.1582
61825SOL     OW92714  12.368   2.697   8.042  0.2028  0.2198 -0.0295
61825SOL    HW192715  12.443   2.721   7.988  2.5394 -1.5343  2.1700
61825SOL    HW292716  12.365   2.763   8.111 -1.4959  1.3015 -1.0645
61826SOL     OW92717  11.703   9.492  10.893 -0.1123  0.1443 -0.6976
61826SOL    HW192718  11.766   9.531  10.953 -1.6763 -0.0854  1.2140
61826SOL    HW292719  11.678   9.563  10.834 -0.0783  0.9884  0.2858
61827SOL     OW92720   0.414   8.314   1.003 -0.4265  0.1930  0.0798
61827SOL    HW192721   0.416   8.245   1.070  2.4208  0.5771  0.5180
61827SOL    HW292722   0.333   8.299   0.955 -0.8819 -2.2095  1.4515
61828SOL     OW92723  10.127   4.732   7.701  0.2606  0.4223 -0.3189
61828SOL    HW192724  10.172   4.666   7.647  0.5352 -1.6118  2.2005
61828SOL    HW292725  10.198   4.777   7.747 -0.0759  0.3451  0.2764
61829SOL     OW92726   2.276   5.401   3.196  0.5836  0.2286 -0.3864
61829SOL    HW192727   2.318   5.466   3.139  1.3602  0.2565  0.1913
61829SOL    HW292728   2.186   5.395   3.163  0.1814  2.3313  0.1246
61830SOL     OW92729   4.079   2.740  10.891 -0.2854  0.1868  0.4274
61830SOL    HW192730   4.069   2.750  10.796  0.2896 -1.3459  0.1729
61830SOL    HW292731   4.165   2.777  10.911  0.3441 -1.0112  0.0506
61831SOL     OW92732   5.962  10.476   1.861 -0.2186  0.0803 -0.5666
61831SOL    HW192733   6.005  10.445   1.940 -0.0554 -0.2845 -0.7955
61831SOL    HW292734   6.029  10.472   1.793 -0.4713 -0.0255 -0.8177
61832SOL     OW92735  11.574   5.303  11.980 -0.0079  0.1509  0.3757
61832SOL    HW192736  11.556   5.265  11.894  1.8562 -1.1551  0.5031
61832SOL    HW292737  11.526   5.386  11.981 -1.1279 -0.4356 -1.3918
61833SOL     OW92738   6.428  10.784   8.003 -0.3450 -0.0113  0.1027
61833SOL    HW192739   6.439  10.876   7.982  1.1610 -0.5723 -1.7795
61833SOL    HW292740   6.352  10.756   7.952  0.6003 -0.3289 -1.1561
61834SOL     OW92741   3.945  11.606   1.457  0.0741  0.3790 -0.2700
61834SOL    HW192742   4.037  11.613   1.485  0.5228 -0.9579 -1.2442
61834SOL    HW292743   3.932  11.679   1.397 -0.6580  2.7888  2.5967
61835SOL     OW92744   4.092   5.141  12.638 -0.0706 -0.2992  0.3845
61835SOL    HW192745   4.137   5.161  12.556 -1.2842 -2.2394 -0.8397
61835SOL    HW292746   4.156   5.091  12.689  0.4589  0.3382  0.3588
61836SOL     OW92747  10.261   8.742   3.186 -0.1077  0.4931  0.0458
61836SOL    HW192748  10.317   8.796   3.131 -0.7721  2.5397  1.2824
61836SOL    HW292749  10.305   8.656   3.188  1.4359  1.2054 -1.2999
61837SOL     OW92750   0.369   4.591   0.068  0.2148 -0.4163  0.8958
61837SOL    HW192751   0.394   4.683   0.065 -0.6182 -0.1964 -1.5540
61837SOL    HW292752   0.441   4.544   0.026 -0.4440 -0.5546 -0.1224
61838SOL     OW92753  11.148   5.235   6.577  0.8738 -0.1788  0.1602
61838SOL    HW192754  11.124   5.161   6.522 -0.9451  1.0450 -0.7958
61838SOL    HW292755  11.073   5.246   6.637  0.9412  1.0896  0.0432
61839SOL     OW92756   4.596  10.242   5.103 -0.7170 -0.1018  0.3767
61839SOL    HW192757   4.650  10.278   5.173  0.6885  0.1591 -0.8113
61839SOL    HW292758   4.612  10.148   5.107  1.9063  0.1810 -1.5800
61840SOL     OW92759  10.490   6.997   3.684 -0.3412 -0.4466 -0.1614
61840SOL    HW192760  10.490   7.086   3.649  0.9758 -0.1803  0.4355
61840SOL    HW292761  10.515   7.008   3.776  0.3301 -1.4703 -0.2075
61841SOL     OW92762   9.731  11.449   7.248  0.1089  0.4488  0.2167
61841SOL    HW192763   9.706  11.413   7.163  1.0792 -1.3281  0.6404
61841SOL    HW292764   9.666  11.517   7.265 -1.0911 -0.2909 -1.1809
61842SOL     OW92765   4.033   0.031  11.076  0.4716  0.0944  0.4176
61842SOL    HW192766   4.088  -0.014  11.141  3.5835  0.3302 -1.8413
61842SOL    HW292767   4.009   0.113  11.119  2.2825  0.1754  1.3961
61843SOL     OW92768  12.491   9.047   3.524  0.2771 -0.1175  0.4982
61843SOL    HW192769  12.534   9.132   3.513 -1.5103  0.9108  1.0554
61843SOL    HW292770  12.557   8.983   3.495  1.8511  1.4015  0.5437
61844SOL     OW92771   1.238   4.381   0.362  0.6417 -0.4006 -0.1043
61844SOL    HW192772   1.222   4.376   0.268 -0.9127  1.5709 -0.0398
61844SOL    HW292773   1.324   4.422   0.370  0.2309  0.6199 -0.7144
61845SOL     OW92774   6.448   0.304   7.131 -0.3066  0.5137  0.3896
61845SOL    HW192775   6.452   0.263   7.045  0.3639 -0.1345  0.7180
61845SOL    HW292776   6.471   0.395   7.116 -1.5364  0.7328 -0.3119
61846SOL     OW92777  10.025   1.646   9.579 -0.5629 -0.0768 -0.3766
61846SOL    HW192778   9.954   1.679   9.524 -1.4966 -1.2605  0.0727
61846SOL    HW292779  10.105   1.674   9.534 -1.2506 -1.8100 -2.9174
61847SOL     OW92780   9.445   9.125   3.296 -0.1904 -0.4691 -0.0347
61847SOL    HW192781   9.500   9.204   3.299  1.7206 -1.7091 -0.7536
61847SOL    HW292782   9.456   9.084   3.382  0.2478 -0.8714 -0.2812
61848SOL     OW92783   2.346  11.405   8.659 -0.5130 -0.1912  0.3879
61848SOL    HW192784   2.409  11.341   8.691 -0.1001  0.2788  0.5403
61848SOL    HW292785   2.265  11.386   8.706  0.0153  0.3393  1.5682
61849SOL     OW92786  12.069   5.903   1.058 -0.1590 -0.1226  0.2124
61849SOL    HW192787  12.144   5.890   1.000 -0.5714  2.6657 -1.1504
61849SOL    HW292788  12.096   5.972   1.118 -1.1667 -0.0525  0.6149
61850SOL     OW92789   4.304   1.983  11.205  0.5090 -0.4245  0.5998
61850SOL    HW192790   4.244   2.043  11.249  0.5108  1.6040 -1.8800
61850SOL    HW292791   4.278   1.896  11.235 -1.7474  0.5792  1.8241
61851SOL     OW92792   7.056  11.794   9.245  0.2177  0.5049 -0.7777
61851SOL    HW192793   7.028  11.884   9.259  1.0908  1.3037 -3.5604
61851SOL    HW292794   7.016  11.768   9.162  0.3995 -1.5087 -0.2950
61852SOL     OW92795   5.768   4.919   1.430  0.2959  0.0649 -0.0316
61852SOL    HW192796   5.695   4.975   1.456 -0.2339  0.0308 -1.4007
61852SOL    HW292797   5.842   4.952   1.481 -0.6042  0.2425  1.2187
61853SOL     OW92798   6.390  11.903  11.545 -0.0324  0.1495 -0.0119
61853SOL    HW192799   6.313  11.916  11.601 -0.0664  1.3207 -0.3131
61853SOL    HW292800   6.443  11.981  11.558  0.4688 -0.0484 -0.8058
61854SOL     OW92801   6.135   2.308   5.323  0.0141 -0.3757 -0.1258
61854SOL    HW192802   6.202   2.241   5.332  0.2077 -0.0753  0.7366
61854SOL    HW292803   6.057   2.260   5.294  0.5269 -0.7561 -0.9251
61855SOL     OW92804   9.034   7.468   5.414 -0.1117 -0.4322 -0.7068
61855SOL    HW192805   8.967   7.530   5.442  0.6079 -0.0613  0.2286
61855SOL    HW292806   9.076   7.510   5.339 -1.9399 -1.3608 -2.3478
61856SOL     OW92807   2.870   0.319   8.876 -0.2969 -0.2040 -0.0723
61856SOL    HW192808   2.834   0.405   8.897 -1.4969 -0.3492 -1.4059
61856SOL    HW292809   2.817   0.287   8.804  0.0742 -2.1152  0.4368
61857SOL     OW92810   3.114   6.443   1.350 -0.5168 -0.4720  0.4767
61857SOL    HW192811   3.020   6.458   1.350 -0.7004 -1.5214 -0.2357
61857SOL    HW292812   3.123   6.348   1.351  0.4901 -0.4440 -1.4353
61858SOL     OW92813   4.405   3.278   3.858 -0.2983 -0.0316 -0.3216
61858SOL    HW192814   4.400   3.308   3.949  0.0563 -0.1453 -0.2635
61858SOL    HW292815   4.405   3.358   3.806 -0.0602  0.0453 -0.2018
61859SOL     OW92816   3.532   9.932   8.343 -0.1948 -0.5289 -0.4961
61859SOL    HW192817   3.490  10.018   8.340  2.7499  1.1615  1.4615
61859SOL    HW292818   3.577   9.925   8.259 -0.8310 -0.3918 -0.8558
61860SOL     OW92819  10.152   2.375   2.820  0.5943  0.1086 -0.1640
61860SOL    HW192820  10.143   2.428   2.741  1.2348 -0.0275 -0.3341
61860SOL    HW292821  10.117   2.430   2.890  2.9704  1.5639 -0.0208
61861SOL     OW92822   9.968   2.934   1.173  0.0671 -0.0821 -0.1984
61861SOL    HW192823   9.959   3.011   1.116 -0.4690 -0.4018 -0.5511
61861SOL    HW292824   9.905   2.871   1.138 -0.4092 -0.2174  0.8566
61862SOL     OW92825   4.710  11.935   9.602 -0.3503 -0.1755  0.1881
61862SOL    HW192826   4.732  11.856   9.652  1.6048  0.2724  0.1373
61862SOL    HW292827   4.679  11.997   9.667 -2.4019 -1.0834  0.1708
61863SOL     OW92828   1.091   8.301   2.923 -0.2108  0.8475  0.2916
61863SOL    HW192829   1.172   8.254   2.944 -1.0710 -0.3106  1.1279
61863SOL    HW292830   1.025   8.232   2.913 -0.6994  1.5962 -2.5245
61864SOL     OW92831  12.684   2.274   4.629  0.2255 -0.1069 -0.0711
61864SOL    HW192832  12.735   2.342   4.586  1.9519  0.2807  2.4037
61864SOL    HW292833  12.734   2.194   4.615 -0.8132 -0.5926 -1.3110
61865SOL     OW92834  10.538   4.057   2.885  0.4209 -0.1823  0.3381
61865SOL    HW192835  10.550   4.126   2.819 -1.3361 -0.4789 -0.3218
61865SOL    HW292836  10.476   4.094   2.948 -1.0126 -1.3694 -0.3458
61866SOL     OW92837   7.892   5.615  10.656 -0.3642  0.0442  0.0147
61866SOL    HW192838   7.930   5.655  10.735 -0.9639  0.6539  0.0016
61866SOL    HW292839   7.939   5.532  10.647  0.5014  0.4788  0.3718
61867SOL     OW92840   6.959   1.115   6.120 -0.8576  0.0802  0.2649
61867SOL    HW192841   7.041   1.099   6.167 -0.0751  1.0132 -0.7239
61867SOL    HW292842   6.918   1.187   6.168  0.5883  1.9650 -1.1466
61868SOL     OW92843   6.164   7.666   2.919 -0.1193 -0.1644 -0.3546
61868SOL    HW192844   6.214   7.629   2.992  0.7836 -1.2732 -1.5053
61868SOL    HW292845   6.085   7.700   2.960  1.6696  2.0119  1.5994
61869SOL     OW92846  12.261   9.348   1.521 -0.4934 -0.3846 -0.0703
61869SOL    HW192847  12.345   9.392   1.541 -0.3626 -0.9454  0.6500
61869SOL    HW292848  12.272   9.314   1.432 -0.2100  0.1372 -0.2384
61870SOL     OW92849   9.929   1.536  10.974 -0.2052  0.1336  0.8390
61870SOL    HW192850   9.891   1.462  11.021 -1.1293  0.3690  0.4858
61870SOL    HW292851   9.972   1.589  11.042  0.6226 -0.8015  1.0702
61871SOL     OW92852   0.093   5.548   7.203 -0.0285  0.4269 -0.1437
61871SOL    HW192853   0.123   5.472   7.254 -0.6513 -0.3704 -0.9242
61871SOL    HW292854   0.103   5.622   7.262 -0.8160 -0.4736  1.1854
61872SOL     OW92855   9.015   0.313   1.695  0.3367 -0.7480  0.0002
61872SOL    HW192856   8.987   0.375   1.627  0.4584 -1.6771 -0.9317
61872SOL    HW292857   9.085   0.358   1.742 -0.6589  0.4363  0.3976
61873SOL     OW92858  11.472   3.250   3.361  0.6281 -0.1566  0.0360
61873SOL    HW192859  11.528   3.226   3.288  1.6873 -0.8337  1.0339
61873SOL    HW292860  11.475   3.345   3.365 -0.5437 -0.0169 -1.6229
61874SOL     OW92861   4.099   1.523  10.701  0.4521  0.3114 -0.3879
61874SOL    HW192862   4.005   1.531  10.685  0.2142 -2.3251 -0.7271
61874SOL    HW292863   4.108   1.528  10.796  0.1719  1.9340 -0.4187
61875SOL     OW92864   1.284   9.170   9.378 -0.4731  0.2157 -0.4098
61875SOL    HW192865   1.221   9.104   9.352 -0.4806 -0.1706  0.5582
61875SOL    HW292866   1.346   9.174   9.306 -2.2985  1.5657 -2.0163
61876SOL     OW92867  10.271   7.927   1.776 -0.5736  0.0364  0.6027
61876SOL    HW192868  10.216   7.849   1.785 -0.3581 -0.0478  1.2033
61876SOL    HW292869  10.346   7.911   1.834 -0.3083  0.4957  0.3928
61877SOL     OW92870  12.553   1.485   1.769 -0.0576  0.1774 -0.2997
61877SOL    HW192871  12.552   1.506   1.863  0.8205  1.5955 -0.5829
61877SOL    HW292872  12.479   1.426   1.757 -0.0585 -0.2070  1.3228
61878SOL     OW92873  10.011   9.263  12.285 -0.1308 -0.0336  0.0649
61878SOL    HW192874  10.020   9.175  12.248 -0.5685  0.5880 -1.6146
61878SOL    HW292875   9.954   9.309  12.224 -0.0628  1.3777  1.0116
61879SOL     OW92876  11.353   0.675   8.856  0.0937 -0.2237 -0.1888
61879SOL    HW192877  11.423   0.613   8.837  0.1913  0.2750 -1.5775
61879SOL    HW292878  11.397   0.747   8.901  0.1378 -0.7315  0.5995
61880SOL     OW92879  11.876  12.582   9.805 -0.2451  0.1627  0.3192
61880SOL    HW192880  11.908  12.652   9.747  0.2060 -0.7832 -0.6040
61880SOL    HW292881  11.915  12.502   9.770 -0.7714 -0.5665  1.3484
61881SOL     OW92882   2.693  11.333   3.506  0.0474 -0.9127  0.0308
61881SOL    HW192883   2.611  11.361   3.465 -0.4193 -1.3535  0.6373
61881SOL    HW292884   2.693  11.238   3.497  1.3699 -0.8035 -1.5521
61882SOL     OW92885   6.532  12.541   6.569  0.1816  0.2638 -0.4815
61882SOL    HW192886   6.478  12.465   6.548  0.4427  0.4917 -2.0696
61882SOL    HW292887   6.593  12.549   6.496  1.1491  1.1243  0.3752
61883SOL     OW92888   8.979   3.922   5.428 -0.2051  0.1821 -0.0636
61883SOL    HW192889   8.944   3.836   5.406  1.5937 -0.6218 -0.0012
61883SOL    HW292890   8.916   3.984   5.391 -0.9257 -1.1524 -1.1718
61884SOL     OW92891  11.433   8.988  11.493  0.2738  0.1707 -0.0189
61884SOL    HW192892  11.412   8.895  11.499  0.2670  0.2578  2.6191
61884SOL    HW292893  11.517   8.996  11.539 -0.6063  1.6777  1.3984
61885SOL     OW92894   0.320  10.995   6.436 -0.0174  0.4369 -0.5219
61885SOL    HW192895   0.231  10.963   6.423  0.2346  0.1376 -1.6562
61885SOL    HW292896   0.316  11.048   6.516 -0.5793 -1.9590  1.1387
61886SOL     OW92897   4.026   4.440   6.520 -0.3910  0.3111 -0.9007
61886SOL    HW192898   4.005   4.403   6.435 -0.7086  0.2536 -0.7954
61886SOL    HW292899   3.943   4.474   6.553  0.0689  2.0974 -1.4635
61887SOL     OW92900   3.504  10.265   3.015 -0.1695 -0.6766  0.8600
61887SOL    HW192901   3.410  10.247   3.017 -0.0911 -1.0447  1.2825
61887SOL    HW292902   3.511  10.358   3.038 -0.4995 -0.3362 -0.2943
61888SOL     OW92903   9.218   7.943   5.137  0.1075  0.7479  0.2475
61888SOL    HW192904   9.164   7.884   5.189  3.0105 -0.8415  1.7027
61888SOL    HW292905   9.243   8.013   5.198  0.0715  1.2194 -0.2683
61889SOL     OW92906   0.984   3.752   4.433  0.0816 -0.4302 -0.2978
61889SOL    HW192907   1.061   3.717   4.389 -0.1857 -0.4198 -0.7785
61889SOL    HW292908   0.913   3.693   4.409 -0.5689  0.9107 -1.8563
61890SOL     OW92909   0.195   2.153   2.340  0.1542  0.5326 -0.2363
61890SOL    HW192910   0.265   2.207   2.378  0.3530  1.0822 -1.3517
61890SOL    HW292911   0.238   2.073   2.312  0.2672  0.7041 -0.5569
61891SOL     OW92912   2.402   4.557   6.667 -1.0185 -0.4018  0.3805
61891SOL    HW192913   2.313   4.569   6.634 -0.5379  0.3267 -0.6718
61891SOL    HW292914   2.403   4.605   6.750 -0.9878  1.4762 -0.6697
61892SOL     OW92915   4.601   6.552   5.459 -0.0807  0.3898  0.6137
61892SOL    HW192916   4.595   6.461   5.433  0.8760  0.6818 -0.7925
61892SOL    HW292917   4.696   6.569   5.465 -0.2141  1.4839  0.0088
61893SOL     OW92918  11.833   2.477   4.503 -0.3201 -0.0415 -0.4424
61893SOL    HW192919  11.923   2.489   4.532 -0.4672  1.8149 -0.6279
61893SOL    HW292920  11.840   2.456   4.410 -0.1096  1.6050 -0.8166
61894SOL     OW92921  12.070  10.921   6.534  0.5789  0.2996  0.0875
61894SOL    HW192922  12.101  10.995   6.585  1.5760  0.5043 -0.7684
61894SOL    HW292923  11.976  10.937   6.522  0.4810  0.6294  1.1783
61895SOL     OW92924  12.423   7.688   5.622 -0.1740  0.4330  0.6713
61895SOL    HW192925  12.482   7.639   5.564  0.8318 -0.7420  2.6146
61895SOL    HW292926  12.335   7.661   5.594  0.3184 -0.9197  0.3488
61896SOL     OW92927  10.793   2.431   3.345 -0.4330  0.2011  0.0119
61896SOL    HW192928  10.777   2.511   3.296 -1.5102  0.3483  0.5572
61896SOL    HW292929  10.728   2.433   3.415  0.7244 -0.2515  1.1405
61897SOL     OW92930  12.008   6.039   8.166  0.2264  0.0525 -0.0275
61897SOL    HW192931  12.001   5.955   8.121 -1.7322 -0.3977  0.9925
61897SOL    HW292932  12.054   6.019   8.248  0.7775  0.2113 -0.2945
61898SOL     OW92933  11.144  10.090   0.702 -0.1247  0.0002  0.0210
61898SOL    HW192934  11.124  10.058   0.614 -1.1609 -0.7940  0.5083
61898SOL    HW292935  11.136  10.185   0.696  1.3324  0.0852 -1.0814
61899SOL     OW92936   6.458   7.312  10.701 -0.9722 -0.2373  0.1577
61899SOL    HW192937   6.514   7.373  10.653  2.2111 -2.3484  0.8295
61899SOL    HW292938   6.468   7.229  10.655 -1.0277 -1.3964  2.1335
61900SOL     OW92939   6.672   6.180   3.247  0.2069 -0.3810 -0.2713
61900SOL    HW192940   6.763   6.171   3.221  0.5981 -1.7144  1.3637
61900SOL    HW292941   6.663   6.272   3.271  0.8446 -0.0267 -1.3284
61901SOL     OW92942   4.595   9.717   2.107 -0.2467 -0.4426  0.0283
61901SOL    HW192943   4.676   9.672   2.131 -0.9431 -1.2035  1.0441
61901SOL    HW292944   4.603   9.733   2.013  1.0069 -0.6479  0.0904
61902SOL     OW92945   6.295   8.549   4.157  0.4453  0.3954  0.6744
61902SOL    HW192946   6.292   8.578   4.248  0.2850  2.0144  0.1941
61902SOL    HW292947   6.268   8.626   4.107 -0.9518 -0.8977 -0.6719
61903SOL     OW92948   6.253   7.679   7.236  0.1140  0.1702  0.6921
61903SOL    HW192949   6.265   7.745   7.305  1.3685  0.9136 -0.2081
61903SOL    HW292950   6.311   7.707   7.165 -1.5053 -0.3057 -0.8885
61904SOL     OW92951   2.847  12.066   2.834 -0.7957  0.5219  0.0958
61904SOL    HW192952   2.865  12.119   2.911  1.4947 -0.8818  0.6474
61904SOL    HW292953   2.883  12.116   2.761  0.7946  0.0598  0.5291
61905SOL     OW92954   5.984   7.557   9.852 -0.0965  0.6019  0.3570
61905SOL    HW192955   5.969   7.532   9.943  0.7480  0.5683  0.4975
61905SOL    HW292956   6.067   7.606   9.854  2.7497 -3.6159 -1.0416
61906SOL     OW92957   8.632   3.245   5.742  0.2310 -0.5281 -0.3536
61906SOL    HW192958   8.631   3.295   5.824  2.6959 -2.5736  1.0907
61906SOL    HW292959   8.678   3.302   5.680 -0.6262  0.5794 -0.0091
61907SOL     OW92960   9.312  11.381   3.325 -0.1154  0.0825  0.1025
61907SOL    HW192961   9.228  11.368   3.280 -0.0377 -1.6379  0.3970
61907SOL    HW292962   9.356  11.297   3.319  1.5217  0.9012  0.1457
61908SOL     OW92963   8.435   4.856  10.560  0.0262  0.2429  0.2735
61908SOL    HW192964   8.473   4.802  10.629 -0.7830  0.8074  1.1753
61908SOL    HW292965   8.397   4.930  10.605  0.3659  1.1542 -0.8747
61909SOL     OW92966   7.271   6.485   9.353  0.1982  0.1246  0.6583
61909SOL    HW192967   7.238   6.575   9.355  0.9771  0.5211 -1.5683
61909SOL    HW292968   7.366   6.495   9.348  0.7372 -0.9760  5.1643
61910SOL     OW92969   1.456   6.695   5.345  0.5489 -0.5234 -0.1430
61910SOL    HW192970   1.458   6.611   5.390  0.1113 -0.9400 -0.8919
61910SOL    HW292971   1.376   6.692   5.292  0.8904  0.0846 -0.7036
61911SOL     OW92972   6.470  10.073   3.548  0.3549 -0.0607  0.0692
61911SOL    HW192973   6.411   9.999   3.562  1.5106 -1.3112 -1.3192
61911SOL    HW292974   6.504  10.060   3.459  2.6688  0.6550  0.7924
61912SOL     OW92975   8.868   7.623   2.884 -0.4332  0.0854  0.7023
61912SOL    HW192976   8.828   7.554   2.830 -0.4725 -0.0283  0.8747
61912SOL    HW292977   8.850   7.595   2.974  1.9487 -1.1424  0.8753
61913SOL     OW92978   5.204   2.849   9.986 -0.8874  0.1662  0.0071
61913SOL    HW192979   5.142   2.902  10.037  0.0681  1.2104  0.1415
61913SOL    HW292980   5.215   2.769  10.037 -1.6764  0.2223  0.2740
61914SOL     OW92981   7.817  10.469   5.209  0.0107 -0.0152 -0.2457
61914SOL    HW192982   7.755  10.429   5.270  0.0075  0.9076  0.3715
61914SOL    HW292983   7.789  10.560   5.202  1.8311  0.6792  0.7717
61915SOL     OW92984   2.575   5.859  11.082  0.1137  0.0860  0.5165
61915SOL    HW192985   2.585   5.941  11.130  0.2665  0.0427  0.5589
61915SOL    HW292986   2.513   5.879  11.012 -0.4684  0.0267  1.0095
61916SOL     OW92987   8.106  10.358   1.254 -0.8524 -0.8465 -0.3877
61916SOL    HW192988   8.065  10.273   1.273 -1.4110 -0.4424  0.2246
61916SOL    HW292989   8.080  10.378   1.165  2.2718 -3.0440 -1.9970
61917SOL     OW92990   4.441  10.984   2.132  0.0909 -0.1139 -0.0890
61917SOL    HW192991   4.467  11.033   2.210 -1.1350 -0.0919  0.3319
61917SOL    HW292992   4.502  10.911   2.128  0.3029  0.0037  0.7711
61918SOL     OW92993   0.666   2.836   3.441  0.5859 -0.1076  0.0634
61918SOL    HW192994   0.672   2.834   3.537 -0.6854  2.0987  0.2464
61918SOL    HW292995   0.583   2.880   3.423 -0.0529 -1.9823 -2.0921
61919SOL     OW92996  10.679   6.550  11.995 -0.0347 -0.7984  0.0994
61919SOL    HW192997  10.669   6.618  12.061 -2.1052 -0.0420 -0.9133
61919SOL    HW292998  10.638   6.586  11.917  1.7575 -1.9205 -1.4651
61920SOL     OW92999   5.514   8.886   5.330  0.0812 -0.1794 -0.5398
61920SOL    HW193000   5.419   8.890   5.321  0.1599 -0.0308 -1.4082
61920SOL    HW293001   5.532   8.796   5.356 -0.1571 -0.9343 -2.7372
61921SOL     OW93002   6.347   2.196  10.226  0.2429 -0.1093  0.2206
61921SOL    HW193003   6.362   2.289  10.207 -0.3975  0.0713  0.5705
61921SOL    HW293004   6.380   2.150  10.148 -3.9772  0.6797 -2.3467
61922SOL     OW93005   0.894   0.469   9.829 -0.4826 -0.1703 -0.3150
61922SOL    HW193006   0.965   0.514   9.783  0.1286 -0.3175  0.4692
61922SOL    HW293007   0.830   0.449   9.760 -0.2252  0.8408 -0.8679
61923SOL     OW93008   7.821   8.616   3.732 -0.1021  0.2709  0.2901
61923SOL    HW193009   7.815   8.611   3.637 -0.2593  1.0889  0.2581
61923SOL    HW293010   7.909   8.582   3.752  0.8434  2.2235 -0.3282
61924SOL     OW93011   0.561   2.258   7.863 -0.5364  0.5543 -0.1781
61924SOL    HW193012   0.472   2.261   7.827 -0.6571 -1.3735 -0.1010
61924SOL    HW293013   0.549   2.283   7.955 -0.8578  1.1587 -0.3757
61925SOL     OW93014  10.692   3.136   6.106 -0.0074 -0.1183  0.2838
61925SOL    HW193015  10.759   3.102   6.164 -0.3511 -0.9415  0.2165
61925SOL    HW293016  10.619   3.159   6.164  0.5214  1.2930  0.4168
61926SOL     OW93017   1.131   5.862   6.550 -0.5917 -0.1756 -0.6501
61926SOL    HW193018   1.049   5.893   6.588 -1.4424  0.6271 -2.9867
61926SOL    HW293019   1.191   5.935   6.560 -0.5327 -0.2964 -0.0818
61927SOL     OW93020   4.326   7.375   6.856  0.1796 -1.0062 -0.4358
61927SOL    HW193021   4.296   7.441   6.794 -0.4540 -0.4432  0.4407
61927SOL    HW293022   4.409   7.410   6.890  0.5904 -1.3759 -1.0480
61928SOL     OW93023  11.236  11.742  11.062 -0.3966  0.0726 -0.2079
61928SOL    HW193024  11.172  11.671  11.068 -0.2026 -0.0731  0.1501
61928SOL    HW293025  11.268  11.753  11.152  1.0705 -0.7668 -0.6014
61929SOL     OW93026  12.664   6.373   5.221  0.0918 -0.6610  0.2330
61929SOL    HW193027  12.710   6.306   5.170 -2.6332 -1.7559 -0.9828
61929SOL    HW293028  12.675   6.454   5.170  2.5906 -0.2972  1.2171
61930SOL     OW93029   9.973   5.236   7.046  0.0475  0.3126 -0.2117
61930SOL    HW193030  10.046   5.182   7.076 -0.2164 -1.0402 -1.8362
61930SOL    HW293031  10.015   5.307   6.998  0.3375 -0.1316 -0.6310
61931SOL     OW93032   1.208  11.042  12.131  0.0328 -0.3282  0.6086
61931SOL    HW193033   1.233  11.093  12.055 -1.5472  1.7963  1.4268
61931SOL    HW293034   1.192  10.954  12.096  2.0619 -0.1417 -0.9776
61932SOL     OW93035   1.862  11.628   6.334 -0.1109 -0.3550 -0.4258
61932SOL    HW193036   1.932  11.684   6.300 -0.3189  0.7034  0.8310
61932SOL    HW293037   1.783  11.682   6.330 -0.3676 -0.6300  0.5616
61933SOL     OW93038   1.955   0.344  12.093  0.0031 -0.0133  0.1180
61933SOL    HW193039   1.981   0.431  12.124  0.3698  0.3601 -1.2042
61933SOL    HW293040   1.999   0.283  12.153 -0.1826  0.6895  0.9971
61934SOL     OW93041   1.573  11.508   6.499 -0.1421  0.2539 -0.1439
61934SOL    HW193042   1.636  11.473   6.435  1.2716 -0.0277  1.3359
61934SOL    HW293043   1.589  11.457   6.578 -1.6495  0.8016  0.5427
61935SOL     OW93044   7.199   3.940   2.307 -0.0193  0.2502  0.0131
61935SOL    HW193045   7.221   3.914   2.397  1.1830 -0.0041 -0.3398
61935SOL    HW293046   7.239   3.873   2.252  1.3246  1.6507 -0.8227
61936SOL     OW93047   4.808  11.846   8.254  0.2145  0.1479  0.0861
61936SOL    HW193048   4.814  11.927   8.304  2.7629  0.8527 -1.2055
61936SOL    HW293049   4.726  11.853   8.206  0.3947  2.0089 -0.0297
61937SOL     OW93050  11.048  12.507   9.676 -0.2341  0.0169  0.1255
61937SOL    HW193051  11.064  12.416   9.651 -0.1531 -0.2699  1.1918
61937SOL    HW293052  11.107  12.558   9.620 -0.2542 -0.5835 -0.4533
61938SOL     OW93053   0.305   1.351   4.385  0.7227 -0.1840  0.4738
61938SOL    HW193054   0.270   1.436   4.409 -0.4517 -0.2560 -0.8612
61938SOL    HW293055   0.342   1.363   4.298 -0.8093 -1.3593 -0.3871
61939SOL     OW93056   9.071   4.430   2.186  0.1174 -0.1904 -0.4894
61939SOL    HW193057   9.161   4.400   2.189  0.2552  0.2937  1.2528
61939SOL    HW293058   9.077   4.524   2.168  0.0964  0.2298  1.5075
61940SOL     OW93059  11.867   8.627   4.540 -1.1988  0.1759 -0.2493
61940SOL    HW193060  11.914   8.583   4.470  1.3209  1.2401  0.6657
61940SOL    HW293061  11.835   8.556   4.596  1.7419 -0.6368  0.5525
61941SOL     OW93062   0.601   6.057   7.690  0.2516 -0.0664 -0.2271
61941SOL    HW193063   0.591   6.015   7.605  0.6699  0.0063 -0.3158
61941SOL    HW293064   0.565   5.995   7.752 -0.8037  0.2201 -0.5316
61942SOL     OW93065  12.679   8.489   8.538  0.7819 -0.6797  0.2148
61942SOL    HW193066  12.747   8.444   8.488  0.9307  1.7828 -2.0352
61942SOL    HW293067  12.727   8.532   8.610  0.9622 -2.1189  0.9879
61943SOL     OW93068   0.773   4.114  10.711 -0.0229  0.2842  0.2473
61943SOL    HW193069   0.693   4.063  10.699  0.8537 -1.1238  0.1453
61943SOL    HW293070   0.782   4.124  10.805 -0.0487 -0.0080  0.2814
61944SOL     OW93071   1.664   2.139   9.145  0.0805 -0.1568  0.3207
61944SOL    HW193072   1.589   2.089   9.179  0.2682 -1.3867 -0.9695
61944SOL    HW293073   1.625   2.207   9.090 -0.1374  0.4729  1.2294
61945SOL     OW93074   5.045   1.930   2.015 -0.4447  0.0933  0.6568
61945SOL    HW193075   5.097   2.004   1.986 -0.1618 -0.9475 -1.7612
61945SOL    HW293076   5.094   1.853   1.986 -2.8476 -0.9452 -0.9710
61946SOL     OW93077  10.886  10.851  11.599 -0.4418  0.2697  0.0807
61946SOL    HW193078  10.982  10.856  11.604 -0.3472  1.6316 -1.9885
61946SOL    HW293079  10.859  10.818  11.685  1.8649 -0.0840  0.7283
61947SOL     OW93080  10.838   8.150   1.152 -0.0416 -0.1261 -1.1862
61947SOL    HW193081  10.863   8.057   1.155  2.5450  0.5070 -0.4482
61947SOL    HW293082  10.774   8.160   1.221  1.2667 -0.9897  0.2113
61948SOL     OW93083   9.633   6.116   0.419  0.4582 -0.1498 -0.0813
61948SOL    HW193084   9.679   6.050   0.470 -0.4673 -1.2738 -0.6774
61948SOL    HW293085   9.670   6.109   0.331 -1.1116 -1.3643 -0.6766
61949SOL     OW93086   2.954   8.220   6.871  0.2872  0.6609 -0.3533
61949SOL    HW193087   3.025   8.221   6.935 -0.0970  2.0244  0.0932
61949SOL    HW293088   2.997   8.228   6.786  0.6973  1.0521 -0.1149
61950SOL     OW93089   7.894   1.317   1.716  0.3196  0.0998  0.0630
61950SOL    HW193090   7.935   1.340   1.799  0.1153 -1.9771  0.7925
61950SOL    HW293091   7.965   1.283   1.662  0.4027  1.1856 -0.5450
61951SOL     OW93092  11.275   7.845  11.534  0.1703 -0.8489  0.3037
61951SOL    HW193093  11.209   7.880  11.594  0.6342 -0.8101  0.8037
61951SOL    HW293094  11.276   7.905  11.460 -0.6583 -1.0900  0.0917
61952SOL     OW93095   6.001  12.058   7.859 -0.1850 -0.1366 -0.3716
61952SOL    HW193096   5.961  12.121   7.799 -0.2358  0.4354  0.2625
61952SOL    HW293097   5.943  12.056   7.935 -0.2012 -0.9683 -0.3939
61953SOL     OW93098   2.595   8.781   2.876 -0.2111 -0.0525  0.0362
61953SOL    HW193099   2.605   8.852   2.812  1.4866  0.6109  0.9597
61953SOL    HW293100   2.581   8.703   2.822 -2.2861  0.9539 -0.9996
61954SOL     OW93101   5.093   5.715   5.988 -0.0841  0.2485  0.0244
61954SOL    HW193102   5.040   5.769   5.929 -1.8386 -0.6610  0.7074
61954SOL    HW293103   5.032   5.683   6.054  1.1403 -1.5666  0.3718
61955SOL     OW93104  12.539   4.997  11.132  0.3981 -0.3408  0.1385
61955SOL    HW193105  12.627   4.991  11.095 -0.0994 -1.3281 -0.9489
61955SOL    HW293106  12.538   4.930  11.201 -0.5660 -2.9934 -2.2556
61956SOL     OW93107   5.829  10.289   5.970 -0.3807 -0.6143 -0.0060
61956SOL    HW193108   5.866  10.374   5.993 -0.5364 -0.3629 -0.6887
61956SOL    HW293109   5.894  10.250   5.911 -0.0605 -1.1918  0.7136
61957SOL     OW93110   0.419   9.461   6.674  0.0915  0.1190  0.5860
61957SOL    HW193111   0.411   9.549   6.710 -2.8927  1.4996 -2.8066
61957SOL    HW293112   0.441   9.474   6.582 -0.0185 -2.6965  0.0595
61958SOL     OW93113   9.836   5.805   8.474  0.2367 -0.2287 -0.7634
61958SOL    HW193114   9.875   5.724   8.440  0.5669 -0.5518  0.3426
61958SOL    HW293115   9.804   5.850   8.396  0.6792 -1.0896 -1.4708
61959SOL     OW93116   9.183   0.289   3.361  0.0180  0.2130  0.1728
61959SOL    HW193117   9.271   0.323   3.378 -0.6761  2.7623 -0.8141
61959SOL    HW293118   9.145   0.277   3.448  0.8415  0.4818  0.5819
61960SOL     OW93119  10.624   0.482   6.555 -0.0494 -0.3684 -0.3681
61960SOL    HW193120  10.585   0.406   6.511  1.3937 -0.8070 -0.9696
61960SOL    HW293121  10.615   0.463   6.648 -0.9094 -0.6186 -0.4897
61961SOL     OW93122   4.792   3.531  10.107 -0.3659 -0.0501 -0.0515
61961SOL    HW193123   4.807   3.618  10.071 -1.0114  0.4744  0.8868
61961SOL    HW293124   4.880   3.492  10.114  0.0339  0.8921  0.3875
61962SOL     OW93125   6.703   5.667   1.876 -0.1329  0.1066  0.1525
61962SOL    HW193126   6.630   5.605   1.868  0.3568 -0.3564 -0.8762
61962SOL    HW293127   6.664   5.752   1.855 -0.5729  0.0066  0.5341
61963SOL     OW93128  11.415   6.356   1.382  0.4200  0.3845 -0.1133
61963SOL    HW193129  11.382   6.306   1.308  0.5658  1.0205 -0.6147
61963SOL    HW293130  11.396   6.447   1.360 -1.1176  0.4879  1.4075
61964SOL     OW93131   0.397   4.665  10.029  0.1874  0.3220  0.3918
61964SOL    HW193132   0.403   4.760  10.022 -1.5438  0.4113 -0.4069
61964SOL    HW293133   0.309   4.649  10.064  0.1824 -0.9968 -0.1789
61965SOL     OW93134   8.298   2.692   2.714 -0.4848  0.0489 -0.1408
61965SOL    HW193135   8.389   2.700   2.745 -0.5201  0.2544 -0.0891
61965SOL    HW293136   8.274   2.780   2.687 -0.1745 -0.2739 -1.5516
61966SOL     OW93137   5.520   8.183   3.178  0.3227 -0.4990  0.2249
61966SOL    HW193138   5.615   8.178   3.189  0.2135 -1.9230  0.7973
61966SOL    HW293139   5.501   8.120   3.108 -0.4853 -2.9183  2.4378
61967SOL     OW93140   9.638   5.322  10.886  0.2720 -0.0882  0.2525
61967SOL    HW193141   9.559   5.269  10.881  1.0674 -1.4402  1.3548
61967SOL    HW293142   9.684   5.306  10.804 -0.7564  1.0502 -0.5922
61968SOL     OW93143   6.294  10.833   2.968  0.2645  0.6613 -0.1863
61968SOL    HW193144   6.299  10.918   2.925  0.2866  2.0645  2.3545
61968SOL    HW293145   6.219  10.841   3.027 -0.0506 -1.2937 -0.2686
61969SOL     OW93146   4.762   9.481   9.998  0.3033  0.0250 -0.0132
61969SOL    HW193147   4.770   9.553  10.060  0.5173 -0.1950  0.2153
61969SOL    HW293148   4.793   9.518   9.915 -1.8706  0.9524 -0.5008
61970SOL     OW93149   2.428  11.201   4.858  0.1138 -0.1944  0.4023
61970SOL    HW193150   2.516  11.235   4.876  0.5884 -1.1850  0.0336
61970SOL    HW293151   2.371  11.278   4.865  0.8527  0.2675  1.7058
61971SOL     OW93152   9.862   6.844   5.220 -0.0672 -0.6905  0.1143
61971SOL    HW193153   9.896   6.913   5.162  0.3223 -0.6415  0.3985
61971SOL    HW293154   9.836   6.774   5.161 -0.0385 -0.4818 -0.1478
61972SOL     OW93155  10.986   7.576   3.055 -0.1310  0.5429  0.7706
61972SOL    HW193156  11.028   7.640   2.998 -1.7679  1.1167  0.1218
61972SOL    HW293157  10.893   7.583   3.033 -0.4384 -1.6016  1.1546
61973SOL     OW93158  11.787  11.159   3.324 -0.0653 -0.1523  0.1030
61973SOL    HW193159  11.830  11.186   3.243 -2.6162 -0.0863 -1.3669
61973SOL    HW293160  11.699  11.198   3.318 -1.1707 -2.1712  1.7288
61974SOL     OW93161   6.657   3.434  11.043  0.0122  0.0477 -0.3613
61974SOL    HW193162   6.738   3.389  11.066  0.7919  2.5874  2.5347
61974SOL    HW293163   6.597   3.415  11.115 -1.0741  0.3497 -1.1430
61975SOL     OW93164  12.624   8.409  10.965 -0.0508 -0.7198 -0.4813
61975SOL    HW193165  12.596   8.500  10.959  3.3143  0.4980  0.1711
61975SOL    HW293166  12.584   8.366  10.889  0.1109  1.8477 -2.1203
61976SOL     OW93167   9.941   1.540   5.265  0.6297 -0.6629  0.1852
61976SOL    HW193168   9.903   1.609   5.211 -0.5585  0.0062  1.7700
61976SOL    HW293169   9.887   1.463   5.248  0.5024 -0.5644  0.1471
61977SOL     OW93170  11.231   6.547   9.986 -0.0499  0.7392  0.0208
61977SOL    HW193171  11.155   6.554   9.929  0.4990  2.4565 -0.5759
61977SOL    HW293172  11.266   6.460   9.969 -0.4455  0.8587 -1.5890
61978SOL     OW93173   2.758   6.697   7.198  0.5147  0.1857  0.6056
61978SOL    HW193174   2.833   6.652   7.160  1.1121  1.5230  0.1229
61978SOL    HW293175   2.757   6.668   7.289  2.7867  1.4958  1.1418
61979SOL     OW93176   9.612   8.003  10.146  0.2563 -0.3614  0.4279
61979SOL    HW193177   9.555   7.940  10.102  0.7966  0.2943 -1.2810
61979SOL    HW293178   9.555   8.046  10.210 -0.8695 -0.5212 -0.4399
61980SOL     OW93179  11.131   4.832   9.102  0.5994  0.1123 -0.3160
61980SOL    HW193180  11.209   4.804   9.151  1.9033  0.8371 -1.8601
61980SOL    HW293181  11.144   4.926   9.088  0.2213 -0.0409 -1.8866
61981SOL     OW93182   6.069   2.884  10.964 -0.6306 -0.1766 -0.7613
61981SOL    HW193183   6.033   2.965  11.000  0.0350 -1.6302  3.8428
61981SOL    HW293184   6.145   2.912  10.913 -0.8292  2.1172  0.0950
61982SOL     OW93185   2.327   0.095   6.675  0.6808  0.0508 -0.0853
61982SOL    HW193186   2.338   0.138   6.590  0.5098 -0.0997 -0.1850
61982SOL    HW293187   2.320   0.166   6.738  1.8411  0.1645 -0.0643
61983SOL     OW93188   7.213   7.544   7.499  0.5365  0.6759 -0.4145
61983SOL    HW193189   7.150   7.520   7.431 -0.4763  0.4965  0.5775
61983SOL    HW293190   7.176   7.510   7.580  0.8328  2.4442  0.5176
61984SOL     OW93191   6.204   4.896   4.708 -0.3791 -0.3469 -0.6066
61984SOL    HW193192   6.247   4.923   4.627  0.1335 -2.3280 -1.0536
61984SOL    HW293193   6.111   4.888   4.685 -0.1737 -1.3177 -1.1376
61985SOL     OW93194   0.283   4.237   3.156 -0.2139  0.1645  0.1941
61985SOL    HW193195   0.271   4.160   3.212  1.2928 -0.2611 -0.0363
61985SOL    HW293196   0.215   4.229   3.089 -1.6603  0.3590  1.5776
61986SOL     OW93197   6.981   2.033   0.627 -0.0517 -0.2200  0.1137
61986SOL    HW193198   7.062   2.079   0.649 -0.9624  0.5398  2.0760
61986SOL    HW293199   6.917   2.064   0.691 -2.4029  0.4822 -2.4032
61987SOL     OW93200   6.042   1.242  10.660  0.1425  0.3285 -0.4542
61987SOL    HW193201   5.971   1.202  10.710 -0.2613  0.3391 -1.0066
61987SOL    HW293202   6.084   1.302  10.721 -0.9994  1.1183 -0.4138
61988SOL     OW93203   8.158   0.244  12.024 -0.4638  0.9094 -0.6513
61988SOL    HW193204   8.241   0.287  12.000  0.3870  0.2222  0.9068
61988SOL    HW293205   8.117   0.223  11.940  1.5996  0.0211 -1.5083
61989SOL     OW93206   6.371   6.985   6.326  0.1073 -0.0507 -0.7341
61989SOL    HW193207   6.370   7.057   6.262  0.6145 -0.4902 -1.2524
61989SOL    HW293208   6.413   6.913   6.279  0.5102 -0.3739  0.1156
61990SOL     OW93209   1.919   8.547   9.245  0.2724 -0.4843  0.0151
61990SOL    HW193210   1.892   8.459   9.270 -0.2742 -1.3935 -3.2311
61990SOL    HW293211   1.851   8.604   9.280 -0.3855 -1.5903  0.6048
61991SOL     OW93212  11.304   2.468   5.632 -0.3203  0.3868 -0.4777
61991SOL    HW193213  11.378   2.430   5.585 -0.3604 -0.5277  0.1500
61991SOL    HW293214  11.323   2.561   5.637  1.3172  0.0305  0.5786
61992SOL     OW93215   9.902  12.639   5.776  0.2707 -0.2030  0.1405
61992SOL    HW193216   9.852  12.721   5.770  1.1035  0.2807 -0.4436
61992SOL    HW293217   9.863  12.582   5.710 -0.3011 -0.2795  0.5373
61993SOL     OW93218   1.570   0.259   9.438 -0.0990 -0.3042 -0.2151
61993SOL    HW193219   1.538   0.181   9.485  1.5520 -0.7691  0.1984
61993SOL    HW293220   1.585   0.228   9.349 -1.0278 -0.0130 -0.4828
61994SOL     OW93221   8.497   0.173   8.126 -0.5732  0.3337 -0.2992
61994SOL    HW193222   8.535   0.135   8.047 -1.4903  0.6092 -0.8918
61994SOL    HW293223   8.434   0.108   8.156  0.2701 -0.0777  0.6193
61995SOL     OW93224   1.794   2.463   0.492 -0.0117  0.0163 -0.0083
61995SOL    HW193225   1.772   2.426   0.407  0.0633  0.3262 -0.1644
61995SOL    HW293226   1.831   2.389   0.542 -1.7894 -0.6262  0.4241
61996SOL     OW93227  11.713   2.988   6.422 -0.4168  0.4244 -0.9187
61996SOL    HW193228  11.693   2.943   6.340 -0.7768  1.4840 -1.4311
61996SOL    HW293229  11.695   2.922   6.490 -1.5756 -0.0016 -1.5997
61997SOL     OW93230   4.276   2.329   3.542  0.0316  0.3286 -0.2424
61997SOL    HW193231   4.350   2.270   3.526 -0.9899 -1.0136 -0.1483
61997SOL    HW293232   4.241   2.346   3.455  0.5923  1.1739 -0.3111
61998SOL     OW93233   0.947   0.542   0.092 -0.0014  0.4181  0.0208
61998SOL    HW193234   1.007   0.556   0.165 -2.2311 -0.4812  2.1761
61998SOL    HW293235   0.894   0.621   0.089 -0.3976  0.1471 -0.1420
61999SOL     OW93236   1.619  10.969   5.494  0.2524  0.1797 -0.0174
61999SOL    HW193237   1.601  10.948   5.403  0.9106 -2.5768  0.3849
61999SOL    HW293238   1.710  10.942   5.507 -0.2186 -0.7459  1.7316
62000SOL     OW93239   0.810  12.415   3.030  0.0037  0.1049  0.5127
62000SOL    HW193240   0.869  12.377   3.095  0.1824  0.3012  0.4631
62000SOL    HW293241   0.844  12.503   3.014  0.0644 -0.0044  0.0205
62001SOL     OW93242   7.044  12.585   4.684  0.4669  0.1986  0.5463
62001SOL    HW193243   7.083  12.671   4.672  0.3318  0.2408  0.3976
62001SOL    HW293244   6.963  12.601   4.732  1.1893 -0.0120  1.8702
62002SOL     OW93245   2.448   1.025   8.638  0.6046  0.3320 -0.1535
62002SOL    HW193246   2.422   1.078   8.562  0.7448  1.3880  0.5125
62002SOL    HW293247   2.485   1.089   8.700  1.4307 -0.6440  0.3904
62003SOL     OW93248  10.629  11.956   1.563 -0.4933 -0.1976  0.0340
62003SOL    HW193249  10.627  11.923   1.474 -1.1439  0.5197 -0.2318
62003SOL    HW293250  10.692  11.900   1.609  2.1837  1.2758 -1.5842
62004SOL     OW93251   8.551   6.421   0.682 -0.2878 -0.7709  0.3499
62004SOL    HW193252   8.486   6.459   0.741  1.1368  1.7045  0.4705
62004SOL    HW293253   8.626   6.402   0.737 -0.1070 -1.5181 -0.1424
62005SOL     OW93254   7.650   4.529   6.528  0.0532 -0.0629  0.1328
62005SOL    HW193255   7.686   4.494   6.446  0.0976  0.0845  0.0872
62005SOL    HW293256   7.629   4.620   6.506 -3.0304 -0.8675 -0.6944
62006SOL     OW93257   6.226   5.653  11.975  0.4582  0.1738  0.4619
62006SOL    HW193258   6.204   5.708  12.050 -2.3513 -0.8726  0.5243
62006SOL    HW293259   6.176   5.691  11.902  1.5709 -0.0116 -0.4215
62007SOL     OW93260  10.923   0.413   6.764 -0.7089  0.3562  0.4994
62007SOL    HW193261  10.938   0.416   6.858  0.8064 -0.7703  0.3274
62007SOL    HW293262  11.005   0.380   6.728 -1.6557 -0.3273 -1.1228
62008SOL     OW93263  10.839  10.502  10.120  0.1119 -0.3230 -0.1537
62008SOL    HW193264  10.917  10.448  10.115  1.5048  1.6288 -0.8690
62008SOL    HW293265  10.830  10.541  10.033  1.0162  2.9115  1.0359
62009SOL     OW93266  11.262  11.438   8.205 -0.2471  0.0322 -0.0751
62009SOL    HW193267  11.215  11.508   8.159 -2.1089 -1.5032 -0.6641
62009SOL    HW293268  11.350  11.439   8.168 -0.1427  2.1520  0.0929
62010SOL     OW93269   0.128  12.414  12.599 -0.6807 -0.5952  0.0613
62010SOL    HW193270   0.102  12.435  12.509  1.3874  2.9215  0.1001
62010SOL    HW293271   0.073  12.472  12.653  1.6763  1.2851  0.5937
62011SOL     OW93272  11.008   4.209   3.550  0.1702 -0.4112 -0.0144
62011SOL    HW193273  10.989   4.277   3.485  0.8784 -1.1232 -0.9878
62011SOL    HW293274  11.056   4.142   3.502  1.1470 -0.7389  1.3541
62012SOL     OW93275   6.928   5.862   2.505  0.2539 -0.1928  0.2087
62012SOL    HW193276   7.006   5.825   2.464 -0.7069 -0.7109 -1.2810
62012SOL    HW293277   6.940   5.957   2.500  0.9902 -0.2697  0.4430
62013SOL     OW93278  11.762   5.542   6.627 -0.2487 -0.0085  0.1365
62013SOL    HW193279  11.824   5.605   6.662  0.9522 -0.9797 -0.1592
62013SOL    HW293280  11.798   5.519   6.541 -1.9478  0.6836 -0.7931
62014SOL     OW93281   1.590   4.210  11.757 -0.1451  0.2724 -0.4061
62014SOL    HW193282   1.632   4.293  11.735  1.0566  0.4584  2.1467
62014SOL    HW293283   1.523   4.233  11.822  0.8019 -0.7831  1.0123
62015SOL     OW93284   0.893   5.099  10.420  0.2943 -0.0479 -0.2191
62015SOL    HW193285   0.899   5.151  10.339  3.2270  0.2770  0.1065
62015SOL    HW293286   0.936   5.017  10.398 -3.9646 -2.4958 -0.6212
62016SOL     OW93287   6.535   0.384   8.658 -0.4487 -0.0342 -0.3594
62016SOL    HW193288   6.542   0.325   8.732  1.5922 -0.3062 -0.7315
62016SOL    HW293289   6.587   0.343   8.589 -0.1555  1.5001 -1.0904
62017SOL     OW93290   9.620  12.149   2.203  0.0130  0.4430 -0.1861
62017SOL    HW193291   9.610  12.206   2.127  2.2877  0.9402 -0.1898
62017SOL    HW293292   9.667  12.202   2.267  0.4264 -0.7894  0.5738
62018SOL     OW93293   0.213   3.290   0.377 -0.0664  0.3668 -0.0003
62018SOL    HW193294   0.152   3.304   0.449  0.1878 -0.4362  0.3761
62018SOL    HW293295   0.196   3.363   0.317  0.1146  1.3648  1.1299
62019SOL     OW93296   3.740   6.280   7.304  0.1354  0.1959  0.0685
62019SOL    HW193297   3.721   6.352   7.245 -0.5254 -0.6247 -0.7463
62019SOL    HW293298   3.721   6.201   7.253  0.1153 -0.5459  1.1795
62020SOL     OW93299   5.919   8.700   6.271  0.0663  0.1775 -0.0873
62020SOL    HW193300   5.862   8.775   6.289 -2.1675 -1.6222  0.8832
62020SOL    HW293301   5.879   8.659   6.194  0.9190 -0.3485 -0.2575
62021SOL     OW93302   8.239   5.625  11.764  0.4688  0.1761  0.4741
62021SOL    HW193303   8.160   5.665  11.727  0.6183  0.3927  0.3905
62021SOL    HW293304   8.309   5.688  11.746  0.9919 -0.7492 -0.9084
62022SOL     OW93305   1.120  10.267   1.024  0.1017  0.1312 -0.0830
62022SOL    HW193306   1.037  10.241   1.065  0.4055 -1.8739 -0.6475
62022SOL    HW293307   1.173  10.301   1.096  0.3780 -2.7101  1.1773
62023SOL     OW93308  10.344   3.631   9.373 -0.0416 -0.2832  0.7217
62023SOL    HW193309  10.439   3.624   9.378 -0.1185 -0.7360  1.9507
62023SOL    HW293310  10.318   3.573   9.302  0.6320  0.2690  0.0074
62024SOL     OW93311   0.807   8.265   5.294 -0.3809  0.0866 -0.3587
62024SOL    HW193312   0.731   8.322   5.291 -0.7828 -0.4835 -2.4069
62024SOL    HW293313   0.857   8.287   5.215  2.2776  1.3062  1.4927
62025SOL     OW93314   0.834   1.696   0.473  0.4009  0.3642 -0.7289
62025SOL    HW193315   0.918   1.687   0.517 -0.0696  0.4458  0.2261
62025SOL    HW293316   0.850   1.757   0.401  1.0741  0.6882 -0.3099
62026SOL     OW93317   6.310   3.498   4.939  0.1099 -0.3252  0.8177
62026SOL    HW193318   6.296   3.478   4.846 -0.5307 -0.4114  0.9267
62026SOL    HW293319   6.257   3.432   4.985 -1.3983  1.0948  1.2011
62027SOL     OW93320  12.324   1.238   1.157 -0.5689  0.0142 -0.3437
62027SOL    HW193321  12.280   1.322   1.170 -2.0505 -0.7849  0.1001
62027SOL    HW293322  12.360   1.217   1.243  0.2275  0.4048 -0.5720
62028SOL     OW93323   2.958   1.882  10.954 -0.1279 -0.7106 -0.1488
62028SOL    HW193324   3.042   1.841  10.978 -0.3318 -0.7697  0.4886
62028SOL    HW293325   2.943   1.855  10.863  0.9704  0.0155 -0.5724
62029SOL     OW93326  11.757  10.574   9.947 -0.5121 -0.5027 -0.1100
62029SOL    HW193327  11.825  10.545  10.007  0.0651  2.1942  0.6528
62029SOL    HW293328  11.688  10.608  10.004 -1.4635 -1.0044 -0.9284
62030SOL     OW93329   7.693   5.361  10.505  0.5555  0.1989  0.2812
62030SOL    HW193330   7.753   5.297  10.544  0.8098 -1.1445 -2.0644
62030SOL    HW293331   7.745   5.402  10.435 -0.4006  1.1011  0.0784
62031SOL     OW93332  11.692   6.879   5.193 -0.4407 -0.3745 -0.2615
62031SOL    HW193333  11.761   6.913   5.249  0.6784  0.0009 -1.7938
62031SOL    HW293334  11.679   6.948   5.128 -3.5113  0.3442  0.9545
62032SOL     OW93335   9.448  11.950   2.746 -0.0246  0.4690 -0.1069
62032SOL    HW193336   9.353  11.960   2.748 -0.1751 -0.5758 -0.8497
62032SOL    HW293337   9.469  11.903   2.827 -0.1896  0.4189 -0.0917
62033SOL     OW93338   6.566   1.891   7.213 -0.3484  0.4975  0.2426
62033SOL    HW193339   6.592   1.831   7.282  1.5350  1.0126  0.0308
62033SOL    HW293340   6.647   1.933   7.185 -1.0475  0.3895 -2.2216
62034SOL     OW93341   9.911   5.834   5.463  0.3700 -0.4664 -0.1379
62034SOL    HW193342   9.848   5.775   5.422 -0.0992  1.6106 -2.6935
62034SOL    HW293343   9.989   5.827   5.409  1.0909 -0.3716  0.8697
62035SOL     OW93344   4.299  10.631   8.622  0.6381  0.3428  0.1305
62035SOL    HW193345   4.295  10.573   8.546 -0.6208 -0.3855  0.7336
62035SOL    HW293346   4.253  10.584   8.691  0.0677  1.8212  0.8009
62036SOL     OW93347   1.947   3.522  11.888  0.7527 -0.1624 -0.6685
62036SOL    HW193348   1.869   3.554  11.934  2.1695  1.5858  0.6536
62036SOL    HW293349   1.949   3.572  11.807  0.9987  0.4997 -0.2617
62037SOL     OW93350   8.866   9.396   1.785  0.0673  0.2137  0.3304
62037SOL    HW193351   8.864   9.491   1.774  0.5903  0.1177 -0.6936
62037SOL    HW293352   8.775   9.369   1.772  0.3213  0.3199 -2.1279
62038SOL     OW93353   9.379   7.637   7.305 -0.1839 -0.3624  0.0706
62038SOL    HW193354   9.318   7.563   7.308  0.7979 -1.2140 -0.3619
62038SOL    HW293355   9.370   7.673   7.217 -0.4619 -0.1384  0.1898
62039SOL     OW93356   5.885   2.217   9.588 -0.4747 -0.0837 -0.2488
62039SOL    HW193357   5.883   2.213   9.683  2.0683  0.0553 -0.1147
62039SOL    HW293358   5.810   2.271   9.564 -1.4186 -0.4953  1.6191
62040SOL     OW93359   9.872   9.038  10.680  0.0956 -0.1994  0.7044
62040SOL    HW193360   9.955   8.997  10.706  0.7795 -0.1782 -1.2613
62040SOL    HW293361   9.880   9.048  10.586 -1.8524  0.5383  0.5896
62041SOL     OW93362   3.648   5.518   7.026 -0.2409 -0.0936  0.3216
62041SOL    HW193363   3.608   5.558   7.103 -2.4833  0.6363 -1.1282
62041SOL    HW293364   3.709   5.585   6.994 -2.6560  1.5752 -1.0647
62042SOL     OW93365   9.966   9.411   3.464  0.3528 -0.4403  0.0210
62042SOL    HW193366  10.048   9.409   3.513  0.4964 -1.0195 -0.2277
62042SOL    HW293367   9.898   9.419   3.531  0.5328 -1.4435  0.3515
62043SOL     OW93368   4.853   7.689  11.258 -0.0109  0.2654 -0.4078
62043SOL    HW193369   4.889   7.741  11.329 -0.1068 -2.2136  1.6122
62043SOL    HW293370   4.929   7.647  11.218 -0.1395 -0.4595  0.0739
62044SOL     OW93371   1.189   1.775   1.593 -0.0932 -0.0863  0.6691
62044SOL    HW193372   1.185   1.764   1.688  0.1653  0.5032  0.7569
62044SOL    HW293373   1.281   1.760   1.570 -0.1055  0.0197  0.5463
62045SOL     OW93374   2.553   7.230   3.611 -0.1591  0.0953 -0.0105
62045SOL    HW193375   2.501   7.252   3.688 -0.0202 -0.6260  0.2941
62045SOL    HW293376   2.519   7.145   3.582 -0.9017  0.8302 -1.3621
62046SOL     OW93377  10.763   1.389  10.842 -0.0407  0.0296  0.0380
62046SOL    HW193378  10.723   1.371  10.757  1.2460  1.1865 -0.8646
62046SOL    HW293379  10.696   1.437  10.891 -0.2166  0.8826 -0.9950
62047SOL     OW93380   8.438   5.878   7.866  0.0525 -0.6382 -0.3945
62047SOL    HW193381   8.372   5.826   7.912  2.0239 -3.5496 -0.5505
62047SOL    HW293382   8.521   5.836   7.889  1.5181  0.4869 -3.1543
62048SOL     OW93383   8.404   5.829   3.921  0.4189 -0.0662 -0.2112
62048SOL    HW193384   8.417   5.797   4.011 -0.1689  0.4884  0.0798
62048SOL    HW293385   8.397   5.924   3.930 -2.0773 -0.1461 -0.5090
62049SOL     OW93386   0.688  12.549   9.739 -0.0182 -0.2648  0.2077
62049SOL    HW193387   0.735  12.617   9.691 -2.1486 -1.0065 -3.3295
62049SOL    HW293388   0.626  12.597   9.794 -0.6780  0.7114 -1.3368
62050SOL     OW93389   5.386  10.894   9.517  0.0106  0.4006 -0.2547
62050SOL    HW193390   5.475  10.914   9.490 -0.5688  1.6451 -1.4137
62050SOL    HW293391   5.380  10.926   9.607  1.0016 -0.6209  0.1889
62051SOL     OW93392   0.637   9.259   7.022 -0.4921 -0.0561 -0.7041
62051SOL    HW193393   0.615   9.329   7.084  0.5489  1.9010 -2.4574
62051SOL    HW293394   0.667   9.187   7.078 -1.1896  1.0045  1.1395
62052SOL     OW93395  12.017   7.222   9.445  0.6420  0.0826  0.0988
62052SOL    HW193396  12.022   7.143   9.392 -0.2083  0.7161 -0.9678
62052SOL    HW293397  11.932   7.260   9.424  0.4496  0.5818  1.6262
62053SOL     OW93398  11.238   2.981   2.246 -0.1216 -0.0803  0.0958
62053SOL    HW193399  11.212   3.072   2.257 -1.0090 -0.1778 -1.0765
62053SOL    HW293400  11.171   2.930   2.292 -0.9369 -0.2369 -1.2314
62054SOL     OW93401  11.280   8.788   9.810 -0.1606 -0.5845 -0.0561
62054SOL    HW193402  11.311   8.872   9.774  0.4825 -0.6033  0.4279
62054SOL    HW293403  11.247   8.740   9.734  3.5960 -1.7315 -1.1811
62055SOL     OW93404   9.849   1.423   5.533  0.1659  0.0572 -0.0072
62055SOL    HW193405   9.885   1.480   5.465 -2.8160  0.5069 -1.3594
62055SOL    HW293406   9.846   1.336   5.492 -0.1041 -0.0119  0.1578
62056SOL     OW93407  10.784   3.593   5.916  0.0892 -0.1657 -0.1650
62056SOL    HW193408  10.857   3.569   5.974  0.2078 -0.4895 -0.4422
62056SOL    HW293409  10.789   3.688   5.909  2.2056 -0.3488 -2.3633
62057SOL     OW93410   7.090   4.997   2.280  0.0731 -0.4960 -0.5883
62057SOL    HW193411   7.100   4.921   2.223 -0.4092  0.0924 -1.4904
62057SOL    HW293412   7.080   5.071   2.219  3.7782  0.8246  0.1885
62058SOL     OW93413   9.109   9.628   7.073  0.0591  0.1733  0.3777
62058SOL    HW193414   9.072   9.546   7.041  1.0968 -0.9974  2.0393
62058SOL    HW293415   9.095   9.690   7.001 -1.3484 -1.2592 -0.6532
62059SOL     OW93416   7.241   1.611   7.867 -0.4718  0.1324  0.4425
62059SOL    HW193417   7.304   1.675   7.836 -0.6497  0.2424  0.3093
62059SOL    HW293418   7.282   1.572   7.945 -0.8463  1.2254  1.2147
62060SOL     OW93419   1.293  11.440  11.347  0.0057  0.4652  0.0690
62060SOL    HW193420   1.199  11.450  11.333 -0.0760 -0.6222 -0.2977
62060SOL    HW293421   1.325  11.398  11.266  0.7215  0.3923  0.3788
62061SOL     OW93422   6.786   2.610   0.312 -0.1974  0.2717 -0.6510
62061SOL    HW193423   6.762   2.523   0.282  0.3145 -0.0386 -0.1587
62061SOL    HW293424   6.724   2.630   0.382  0.4969 -0.2314  0.1201
62062SOL     OW93425   5.037   1.087   7.923 -0.3857 -0.1261  0.3651
62062SOL    HW193426   5.085   1.012   7.959 -0.6628 -0.0811  0.8430
62062SOL    HW293427   4.952   1.051   7.898 -0.0027 -0.2665 -0.7544
62063SOL     OW93428   3.477  12.647   0.559  0.4015  0.4371 -0.4963
62063SOL    HW193429   3.499  12.567   0.511  1.0952 -0.1401  0.7624
62063SOL    HW293430   3.452  12.618   0.646 -1.1426  1.4572 -0.5528
62064SOL     OW93431   5.230  12.214   3.248  0.3141 -0.3771  0.0088
62064SOL    HW193432   5.165  12.278   3.221  0.5342 -0.8048 -1.6343
62064SOL    HW293433   5.184  12.158   3.310 -0.5059  0.0753 -0.1734
62065SOL     OW93434  10.718  10.061   1.530 -0.0749  0.2098 -0.4379
62065SOL    HW193435  10.680  10.074   1.617  1.0006 -0.1654  0.1003
62065SOL    HW293436  10.730  10.150   1.496 -1.4854  0.3431 -0.6676
62066SOL     OW93437   1.460   9.302   9.785 -0.1901  0.1694  0.4213
62066SOL    HW193438   1.430   9.374   9.841  0.6820 -0.3151  1.5361
62066SOL    HW293439   1.453   9.337   9.696 -0.7445  1.2671  0.8778
62067SOL     OW93440   1.013  11.062   4.405 -0.2178  0.2545 -0.0224
62067SOL    HW193441   1.034  11.030   4.493 -0.6815  0.0723  0.0264
62067SOL    HW293442   1.090  11.041   4.352  0.4834  1.2910  0.5665
62068SOL     OW93443   0.227   9.042   9.478  0.3072  0.2501 -0.4415
62068SOL    HW193444   0.140   9.070   9.449 -0.0148  0.0384  0.3057
62068SOL    HW293445   0.280   9.122   9.474 -0.0445  0.4884 -0.4237
62069SOL     OW93446   2.196   1.969   6.486 -0.4901 -0.0733 -0.3594
62069SOL    HW193447   2.237   2.055   6.480  0.6230 -0.6890 -2.6126
62069SOL    HW293448   2.221   1.937   6.573 -0.2296  1.5175  0.1877
62070SOL     OW93449  12.504   0.904   6.491  0.2933 -0.2251  0.1888
62070SOL    HW193450  12.536   0.966   6.426  0.9121  1.7946  2.2867
62070SOL    HW293451  12.568   0.833   6.490  1.1669  0.5498 -0.2774
62071SOL     OW93452   0.635   6.392   6.697  0.2925  0.0641 -0.1700
62071SOL    HW193453   0.674   6.443   6.625  0.8298 -0.3549 -0.1802
62071SOL    HW293454   0.568   6.450   6.733  0.3225  0.4542 -0.7233
62072SOL     OW93455   8.653   0.363   5.827 -0.2823  0.0942  0.6323
62072SOL    HW193456   8.585   0.307   5.864  1.4537 -2.5355  0.0984
62072SOL    HW293457   8.607   0.417   5.763 -1.6531 -3.1863 -1.4105
62073SOL     OW93458   2.506  11.722   6.078 -0.2831  0.2214 -0.3816
62073SOL    HW193459   2.528  11.632   6.102 -0.6128  0.7463  2.2142
62073SOL    HW293460   2.416  11.716   6.046 -0.7624 -0.2380  0.9703
62074SOL     OW93461   9.006  10.819   9.873 -0.5586 -0.1532  0.1908
62074SOL    HW193462   8.965  10.838   9.958 -3.5853 -0.7962 -0.9971
62074SOL    HW293463   9.012  10.723   9.870 -0.3307 -0.1283 -0.2795
62075SOL     OW93464   1.465   9.466   0.452 -0.4544 -0.7587  0.1831
62075SOL    HW193465   1.543   9.412   0.439 -0.4852 -0.6328 -0.5543
62075SOL    HW293466   1.392   9.408   0.431 -0.5228 -0.6680  0.1690
62076SOL     OW93467   0.204   3.144   5.184  0.7667  0.1704 -1.0830
62076SOL    HW193468   0.127   3.199   5.195 -0.9923 -1.6107 -3.3585
62076SOL    HW293469   0.262   3.168   5.256 -1.4825  2.2598  0.1666
62077SOL     OW93470   5.566   5.376  10.172  0.5279 -0.2741  0.1798
62077SOL    HW193471   5.587   5.337  10.087  1.2070 -2.0796  1.1220
62077SOL    HW293472   5.650   5.408  10.205  0.0749  1.5172 -0.3121
62078SOL     OW93473   7.056   0.293   2.139  0.3890 -0.3063 -0.0250
62078SOL    HW193474   7.003   0.370   2.159  0.2101  0.7509 -3.7705
62078SOL    HW293475   7.025   0.226   2.199 -3.1480  1.1056 -0.0637
62079SOL     OW93476   6.715   5.646  11.062 -0.1820 -0.4436  0.6099
62079SOL    HW193477   6.742   5.589  11.133  0.0083 -2.0707 -0.6945
62079SOL    HW293478   6.634   5.606  11.029  0.3266 -0.4172 -0.7712
62080SOL     OW93479   9.345  10.198   7.615 -0.1794 -0.2809  0.0945
62080SOL    HW193480   9.360  10.268   7.679 -0.2983 -0.6166  0.4880
62080SOL    HW293481   9.433  10.168   7.592 -0.0842  0.5839 -0.7299
62081SOL     OW93482   0.905  12.324   5.482 -0.3440 -0.1018 -0.2080
62081SOL    HW193483   0.901  12.358   5.571  0.8955 -0.7063  0.1028
62081SOL    HW293484   0.874  12.396   5.427  0.4097  0.8640  0.5889
62082SOL     OW93485  10.975   7.520   1.253  0.7131  0.2979  0.2998
62082SOL    HW193486  11.005   7.554   1.169 -1.6442  2.0782  0.0719
62082SOL    HW293487  10.881   7.509   1.243  0.5555 -0.7693  2.3091
62083SOL     OW93488  11.371   5.652   5.984  0.2861  0.6374  0.4242
62083SOL    HW193489  11.423   5.696   5.917 -1.3512  0.8913 -0.7583
62083SOL    HW293490  11.329   5.724   6.033 -1.4053  0.4812 -0.7038
62084SOL     OW93491   9.098   3.993   1.752 -0.4810 -0.2107 -0.1090
62084SOL    HW193492   9.096   4.016   1.845 -0.9910 -0.2492 -0.1052
62084SOL    HW293493   9.047   4.062   1.709 -1.1112 -0.7387 -0.2291
62085SOL     OW93494   4.018  11.303   3.136  0.0370 -0.3892  0.0039
62085SOL    HW193495   4.098  11.342   3.173 -0.3298  1.0957 -0.6987
62085SOL    HW293496   3.947  11.338   3.189 -0.3812  0.6927 -1.2323
62086SOL     OW93497   9.804  11.678  10.492 -0.0905 -0.0881  0.1157
62086SOL    HW193498   9.870  11.610  10.506 -0.9189 -1.0397 -0.4128
62086SOL    HW293499   9.832  11.724  10.413 -0.3811 -0.9026 -0.4712
62087SOL     OW93500   9.349  10.743   5.854  0.3534  0.4885 -0.0201
62087SOL    HW193501   9.294  10.666   5.869  0.0122 -0.1662 -3.6298
62087SOL    HW293502   9.429  10.726   5.903 -0.0543 -1.7657 -0.0248
62088SOL     OW93503   0.859  11.456   2.105  0.5169  0.2832 -0.4652
62088SOL    HW193504   0.850  11.478   2.012  1.1514  2.5290 -0.0401
62088SOL    HW293505   0.951  11.428   2.114  0.1143 -1.2355 -0.7104
62089SOL     OW93506   0.260   9.460  10.836  0.1484 -0.0655 -0.2108
62089SOL    HW193507   0.350   9.461  10.867 -0.2496  1.3121  1.0452
62089SOL    HW293508   0.207   9.439  10.913 -0.6464 -0.1708 -0.7646
62090SOL     OW93509   7.386   9.993   9.606  0.2564 -0.0698  0.1113
62090SOL    HW193510   7.315  10.016   9.545 -1.0674  0.4512  1.7834
62090SOL    HW293511   7.390  10.066   9.667  2.3542 -0.0404  0.0243
62091SOL     OW93512   2.738   0.424   5.017 -0.3721  0.8643  0.0662
62091SOL    HW193513   2.655   0.446   4.975 -1.1493  0.0933  1.1414
62091SOL    HW293514   2.745   0.485   5.091 -1.4754 -0.9406  1.7540
62092SOL     OW93515   6.290   8.527  12.419 -0.0840 -0.1566 -0.5185
62092SOL    HW193516   6.253   8.448  12.457 -5.5249  1.8058 -0.7270
62092SOL    HW293517   6.343   8.566  12.489  0.8697 -2.7840  0.3157
62093SOL     OW93518  11.936   6.528   5.935 -0.0411 -0.4913 -0.2053
62093SOL    HW193519  11.959   6.617   5.909 -0.3382 -0.2970  0.2014
62093SOL    HW293520  11.998   6.506   6.005  1.1419 -1.2269 -1.4311
62094SOL     OW93521   0.233   3.375   2.227  0.0053  0.3047 -0.3400
62094SOL    HW193522   0.201   3.416   2.147  0.9467  0.6346 -0.5545
62094SOL    HW293523   0.221   3.281   2.213 -0.3772  0.3951 -0.6230
62095SOL     OW93524  11.256  12.029  12.064  0.1122 -0.7527 -0.6694
62095SOL    HW193525  11.166  12.055  12.044 -0.9079 -3.0138  0.5770
62095SOL    HW293526  11.284  11.981  11.986  0.6836  0.8910 -1.5073
62096SOL     OW93527   2.878   2.754   2.180  0.2368 -0.4273  0.3420
62096SOL    HW193528   2.908   2.840   2.209  1.7661 -1.0215  0.6156
62096SOL    HW293529   2.903   2.694   2.251 -1.1027 -1.0581  0.3026
62097SOL     OW93530   7.578  10.681   4.364 -0.6006  0.2177  0.1006
62097SOL    HW193531   7.647  10.629   4.404 -0.4668  0.5352  0.2919
62097SOL    HW293532   7.584  10.663   4.271  0.2508  0.8311  0.0187
62098SOL     OW93533  11.091   8.182   0.919  0.1505  0.4121 -0.3043
62098SOL    HW193534  11.083   8.106   0.862  1.6280 -0.1400  0.1903
62098SOL    HW293535  11.009   8.183   0.969 -0.2006 -0.3999 -0.8395
62099SOL     OW93536   3.396   2.099  11.347  0.5245  0.0394  0.1946
62099SOL    HW193537   3.406   2.026  11.409 -0.0525 -0.0996  0.1379
62099SOL    HW293538   3.356   2.058  11.269 -0.5156  0.5379  0.4441
62100SOL     OW93539   4.052   2.321   5.602  0.0925  0.1189 -0.7475
62100SOL    HW193540   3.997   2.270   5.662  1.6588 -0.9439 -0.1616
62100SOL    HW293541   4.035   2.283   5.516  0.4023 -0.6749 -0.4690
62101SOL     OW93542  12.325   9.631   0.676  0.1814  0.3234 -0.0387
62101SOL    HW193543  12.392   9.594   0.733 -0.7700 -1.0426  0.2462
62101SOL    HW293544  12.256   9.661   0.735  0.1294  0.8619 -0.3657
62102SOL     OW93545   8.570  12.245   0.323 -0.1112  0.0692 -0.2032
62102SOL    HW193546   8.478  12.225   0.306 -0.5621  1.2350  0.7644
62102SOL    HW293547   8.600  12.291   0.244 -0.5076  0.1672 -0.2966
62103SOL     OW93548   4.374   9.020   8.042 -0.5663 -0.2073  0.7114
62103SOL    HW193549   4.430   9.066   7.979 -0.5106  0.4122  1.2039
62103SOL    HW293550   4.389   9.065   8.125  0.0864 -1.6016  1.3873
62104SOL     OW93551   3.873   7.395   4.772  0.7053  0.0599 -0.3203
62104SOL    HW193552   3.784   7.377   4.801  0.6106  3.3217  2.0063
62104SOL    HW293553   3.867   7.403   4.677 -0.6682 -3.2042 -0.6316
62105SOL     OW93554  12.082   4.039   4.558  0.0234 -0.0821 -0.5126
62105SOL    HW193555  12.113   3.955   4.525  1.4915  1.5337 -3.8151
62105SOL    HW293556  12.159   4.079   4.599 -0.2750  0.1829 -0.2061
62106SOL     OW93557   5.758   6.170   6.553  0.0635  0.2863  0.3355
62106SOL    HW193558   5.830   6.155   6.492 -0.1756 -0.2933  0.1894
62106SOL    HW293559   5.794   6.228   6.620  0.7556 -0.2660  0.4413
62107SOL     OW93560   7.667   3.796   0.325 -0.2304 -0.0160 -0.0184
62107SOL    HW193561   7.740   3.850   0.294  0.3952 -0.9360 -0.1985
62107SOL    HW293562   7.611   3.857   0.373 -0.0145  0.9793 -0.9619
62108SOL     OW93563  12.174  11.739   3.890  0.2682  0.0041 -0.2417
62108SOL    HW193564  12.150  11.687   3.813  1.0106 -1.0636  0.2240
62108SOL    HW293565  12.258  11.778   3.868 -0.1796  0.8581 -0.5004
62109SOL     OW93566  11.590   1.682   6.014 -0.3728  0.6239  0.7314
62109SOL    HW193567  11.647   1.755   5.990 -0.9462  0.9832  0.4353
62109SOL    HW293568  11.502   1.711   5.989 -0.4530 -0.6798 -0.6264
62110SOL     OW93569  11.039   9.224   1.184 -0.0514  0.2803  0.3442
62110SOL    HW193570  10.978   9.167   1.137 -0.3605  0.3128  0.6990
62110SOL    HW293571  11.123   9.179   1.179 -0.4103 -0.5131  1.1322
62111SOL     OW93572   7.496   3.334   2.132 -0.6606  0.6854 -0.4425
62111SOL    HW193573   7.504   3.405   2.195  2.1110  0.0982  0.0041
62111SOL    HW293574   7.518   3.255   2.181 -1.5643 -0.2365 -1.4378
62112SOL     OW93575   8.941   4.055  12.265  0.2576 -0.1159 -0.2882
62112SOL    HW193576   8.947   4.123  12.199  0.8309 -0.2096 -0.3407
62112SOL    HW293577   8.991   3.981  12.229 -1.1404 -0.9238 -0.6522
62113SOL     OW93578   3.964   2.427   8.862  0.1796  0.5486  0.2570
62113SOL    HW193579   3.896   2.434   8.929  0.1693 -0.1562  0.3270
62113SOL    HW293580   3.936   2.487   8.793 -2.1115 -1.8385 -1.0772
62114SOL     OW93581   0.024   5.949   3.491 -0.1495  0.5478  0.3883
62114SOL    HW193582   0.083   5.916   3.423 -1.4810  0.7424 -0.8966
62114SOL    HW293583  -0.062   5.953   3.449 -1.0431  0.5463  2.1266
62115SOL     OW93584   3.096  11.890   8.882  0.3622 -0.4471  0.6069
62115SOL    HW193585   3.182  11.848   8.881  0.9273  0.6593  0.8835
62115SOL    HW293586   3.115  11.983   8.868 -0.9259 -0.3809 -0.9882
62116SOL     OW93587   8.203   3.263   6.184 -0.0248  0.0429  0.5646
62116SOL    HW193588   8.256   3.203   6.236  1.7309  1.1381  0.1007
62116SOL    HW293589   8.113   3.235   6.200  0.6176 -1.2816  2.1173
62117SOL     OW93590  10.136   7.501   4.355 -0.3169 -0.1116 -0.4722
62117SOL    HW193591  10.105   7.425   4.404  0.7567 -0.1799  0.1263
62117SOL    HW293592  10.224   7.517   4.388  0.5191 -0.2528 -2.4839
62118SOL     OW93593   4.234   4.171   1.294 -0.0528  0.8593 -0.0990
62118SOL    HW193594   4.238   4.205   1.383 -1.5419 -1.9807  1.1807
62118SOL    HW293595   4.140   4.167   1.274  0.1893  0.0330 -1.1926
62119SOL     OW93596  10.481   9.906   2.979  0.3977  0.3035  0.1660
62119SOL    HW193597  10.569   9.911   3.018 -0.0376  1.4204  1.0534
62119SOL    HW293598  10.497   9.884   2.888  1.6957  1.7733 -0.0080
62120SOL     OW93599   9.743   2.465   0.628 -0.0697 -0.2102  0.4858
62120SOL    HW193600   9.803   2.432   0.560  0.8203 -0.3925  1.3314
62120SOL    HW293601   9.772   2.422   0.708 -1.2245 -0.1318  0.9628
62121SOL     OW93602   5.306   0.999  10.938  0.3792 -0.5345  0.0948
62121SOL    HW193603   5.312   0.904  10.927 -0.1866 -0.7037  1.1249
62121SOL    HW293604   5.291   1.033  10.850  0.5176 -1.4069 -0.2687
62122SOL     OW93605   2.411   8.231   5.574 -0.1269 -0.8402 -0.3637
62122SOL    HW193606   2.323   8.240   5.536 -1.5354  0.6327  2.8290
62122SOL    HW293607   2.411   8.144   5.614 -0.0677 -0.9317 -0.5673
62123SOL     OW93608   0.995   0.298   3.665 -0.5558  0.7196  0.5153
62123SOL    HW193609   1.058   0.362   3.633  0.5856 -0.4332  0.3480
62123SOL    HW293610   0.936   0.284   3.591 -0.6452  1.3589  0.4623
62124SOL     OW93611   9.577   6.470   0.122  0.2396  0.4180 -0.4525
62124SOL    HW193612   9.485   6.450   0.139  0.0783 -0.7662 -2.4195
62124SOL    HW293613   9.574   6.547   0.065  0.4693  0.5609 -0.2683
62125SOL     OW93614  12.064   6.353   5.752  0.2352 -0.3570 -0.1473
62125SOL    HW193615  12.001   6.388   5.815  0.3217 -1.1708  0.3945
62125SOL    HW293616  12.057   6.413   5.677  0.6937  1.0958  0.9161
62126SOL     OW93617   2.957   6.067   1.567  0.6927 -0.0658  0.0621
62126SOL    HW193618   2.890   6.133   1.548  0.5562 -0.4440 -0.8307
62126SOL    HW293619   3.029   6.089   1.507  1.8160  0.9617  1.7114
62127SOL     OW93620   0.944   7.346  11.033 -0.0610  0.4164 -0.3454
62127SOL    HW193621   0.999   7.353  11.111 -1.2996  1.2748  0.4830
62127SOL    HW293622   0.871   7.405  11.050 -0.9467 -0.2622 -1.6674
62128SOL     OW93623  10.386   7.386  10.864 -0.4601 -0.3298 -0.2877
62128SOL    HW193624  10.393   7.320  10.795 -0.8042 -2.9019  1.9526
62128SOL    HW293625  10.292   7.404  10.871 -0.2576  1.7360 -1.9551
62129SOL     OW93626   9.729  11.955   3.848  0.3932 -0.1310 -0.0832
62129SOL    HW193627   9.746  11.996   3.933  1.0139 -1.4509  0.4554
62129SOL    HW293628   9.699  12.027   3.792 -0.4448  0.6923  1.3621
62130SOL     OW93629   8.247   2.869   2.412  0.0497 -0.0236 -0.0090
62130SOL    HW193630   8.257   2.827   2.326  0.8824 -0.7470  0.4291
62130SOL    HW293631   8.166   2.921   2.404 -0.2571 -0.6288 -1.0031
62131SOL     OW93632   0.177   3.930   3.614 -0.4659  0.0180 -0.2507
62131SOL    HW193633   0.229   3.850   3.604  0.0853  0.4621 -1.0609
62131SOL    HW293634   0.139   3.945   3.528 -0.4848  0.6723 -0.1364
62132SOL     OW93635  10.107   3.957  12.633  0.5766  0.4727  0.1822
62132SOL    HW193636  10.046   3.915  12.695  1.5645 -1.4973 -0.1077
62132SOL    HW293637  10.145   3.885  12.583  0.3155  1.9513 -2.3265
62133SOL     OW93638  12.172   7.153   4.091 -0.3340 -0.2818  0.4031
62133SOL    HW193639  12.257   7.197   4.095 -1.7239  2.9100 -1.4472
62133SOL    HW293640  12.183   7.087   4.022  0.0988  1.6883 -1.5155
62134SOL     OW93641   9.997   7.709   4.509  0.4021 -0.1897  0.0866
62134SOL    HW193642  10.041   7.653   4.444 -0.7986 -0.0411 -0.8907
62134SOL    HW293643   9.926   7.751   4.460  0.1278  0.7614  1.2564
62135SOL     OW93644  10.544  12.558   6.677 -0.0586 -0.1000  0.2371
62135SOL    HW193645  10.489  12.628   6.641  1.1141  0.5558 -0.3340
62135SOL    HW293646  10.482  12.494   6.711 -1.3024 -0.9589 -3.2256
62136SOL     OW93647   3.906  11.097   2.381  0.5673  0.0282  0.8401
62136SOL    HW193648   3.915  11.189   2.406  1.3943  0.4901 -0.9654
62136SOL    HW293649   3.812  11.082   2.375  0.4327  0.9559  0.5192
62137SOL     OW93650   8.568  11.212  11.795 -0.0570  0.2676 -0.5664
62137SOL    HW193651   8.492  11.262  11.823  0.7049  0.1001  2.0084
62137SOL    HW293652   8.537  11.161  11.720 -2.3267  0.5165  0.1338
62138SOL     OW93653   3.191   0.211   4.066 -0.1892 -0.3573 -0.3443
62138SOL    HW193654   3.255   0.143   4.052  0.1247 -0.2445  0.4766
62138SOL    HW293655   3.156   0.230   3.979 -0.1760 -1.4502 -0.5963
62139SOL     OW93656   8.959   9.885   7.404  0.2950  0.2144 -0.1406
62139SOL    HW193657   8.976   9.858   7.314 -1.8608  0.5322 -0.6818
62139SOL    HW293658   9.032   9.944   7.424  1.0902 -0.2570 -1.4772
62140SOL     OW93659   2.705   6.936   0.476  0.1979 -0.1662  0.3546
62140SOL    HW193660   2.685   6.882   0.399 -1.6509 -0.5320  1.0420
62140SOL    HW293661   2.691   7.026   0.447 -0.1358 -0.2807  0.1565
62141SOL     OW93662   5.568  11.301   9.910  0.4550  0.2728  0.2971
62141SOL    HW193663   5.615  11.250   9.976  1.9651  0.2717 -0.7314
62141SOL    HW293664   5.579  11.251   9.829 -2.6275 -0.5037  0.2572
62142SOL     OW93665   6.900   0.402   1.218  0.1467 -0.0174 -0.0577
62142SOL    HW193666   6.991   0.409   1.189  0.3134  0.0835  0.4928
62142SOL    HW293667   6.870   0.493   1.227  0.5496 -0.0214  1.5113
62143SOL     OW93668   9.608   9.524   9.932  0.6764  0.1127  0.6370
62143SOL    HW193669   9.552   9.477   9.870  1.0345 -0.2824  0.6040
62143SOL    HW293670   9.636   9.457   9.994  4.3909 -0.7441 -1.5965
62144SOL     OW93671  10.288   6.571  11.897 -0.2372  0.0748  0.1610
62144SOL    HW193672  10.219   6.634  11.918  0.0519  0.1747  0.8254
62144SOL    HW293673  10.369   6.621  11.902 -0.1666  0.1852 -1.5303
62145SOL     OW93674  11.211   6.968  11.637  0.3697 -0.2456  0.5573
62145SOL    HW193675  11.159   6.903  11.682  1.1213 -2.1663 -1.1729
62145SOL    HW293676  11.155   6.999  11.565  0.9179 -0.9635 -0.2006
62146SOL     OW93677   3.233   4.670  12.035 -0.6420 -0.3491  0.1330
62146SOL    HW193678   3.167   4.666  12.104  0.3161 -0.9806  1.0460
62146SOL    HW293679   3.233   4.581  11.997  1.4955 -1.2073  1.9388
62147SOL     OW93680  11.813   7.666   9.633  0.4220 -0.3270  0.0126
62147SOL    HW193681  11.775   7.582   9.656 -0.8836  0.4805  0.9671
62147SOL    HW293682  11.860   7.694   9.711 -1.5610  1.0900  0.7843
62148SOL     OW93683   7.092  12.067  12.259  0.8692 -0.5744 -0.2097
62148SOL    HW193684   7.133  12.107  12.336  0.0849 -0.5137  0.1838
62148SOL    HW293685   7.027  12.007  12.295  1.5201 -1.6709 -0.8043
62149SOL     OW93686   7.794   3.298   5.812  0.2074  0.3626 -0.3594
62149SOL    HW193687   7.863   3.301   5.877  0.2422 -0.6584 -0.3340
62149SOL    HW293688   7.724   3.248   5.853 -0.2894  0.8195 -0.6309
62150SOL     OW93689  10.770   4.186   4.392 -0.1101  0.0159 -0.1194
62150SOL    HW193690  10.690   4.196   4.341 -0.5978 -1.3321  0.3508
62150SOL    HW293691  10.745   4.210   4.481 -0.4949 -2.0711  0.3888
62151SOL     OW93692   4.362   2.461  12.670  0.6886  0.1635 -0.1948
62151SOL    HW193693   4.335   2.539  12.622  0.1196  1.1494  1.6305
62151SOL    HW293694   4.283   2.432  12.715  1.2627 -0.5695  0.3633
62152SOL     OW93695   4.329   6.192   7.148 -0.6127  0.1576  0.9802
62152SOL    HW193696   4.386   6.147   7.210 -1.1930  1.0414  2.1880
62152SOL    HW293697   4.240   6.174   7.180 -1.0226 -0.7647 -0.5762
62153SOL     OW93698  10.785   3.695  11.286  0.2045  0.2961 -0.2565
62153SOL    HW193699  10.718   3.689  11.219 -0.3094 -0.0634  0.2858
62153SOL    HW293700  10.773   3.782  11.324  1.7055  1.2863 -1.8683
62154SOL     OW93701  10.521   6.403   3.939 -0.4299  0.3732  0.0322
62154SOL    HW193702  10.476   6.320   3.922  0.8276 -0.3488  0.1086
62154SOL    HW293703  10.459   6.452   3.993 -0.9689 -0.7563  0.4889
62155SOL     OW93704  12.461   8.151   0.551 -0.3705 -0.0227  0.1702
62155SOL    HW193705  12.491   8.221   0.608 -1.1902 -0.1861  0.8182
62155SOL    HW293706  12.455   8.074   0.607  2.3009 -1.1492 -0.8991
62156SOL     OW93707   9.229  10.339   0.439  0.0176 -0.0626  0.4026
62156SOL    HW193708   9.275  10.352   0.356  0.4146  1.1796  0.7895
62156SOL    HW293709   9.245  10.419   0.488 -0.9146 -0.4305  1.3561
62157SOL     OW93710   3.117   1.044   2.672 -0.4023 -0.8554  0.5220
62157SOL    HW193711   3.038   1.056   2.620  1.8646  0.6008 -2.9978
62157SOL    HW293712   3.129   0.949   2.677 -1.4350 -1.0507 -0.4675
62158SOL     OW93713   1.838  10.057   9.866 -0.7778  0.3284  0.5174
62158SOL    HW193714   1.777  10.083   9.936  0.8626  3.5792  0.9443
62158SOL    HW293715   1.912  10.116   9.877  2.3220 -3.1004 -0.2641
62159SOL     OW93716   2.726   4.480   4.076 -0.2120  0.0074 -0.5027
62159SOL    HW193717   2.685   4.485   3.989  0.2435  0.2544 -0.7110
62159SOL    HW293718   2.812   4.520   4.063 -0.9846  2.1835  0.5865
62160SOL     OW93719   8.922   0.472   3.652 -0.3611  0.1163 -0.2595
62160SOL    HW193720   8.978   0.396   3.634 -0.1227  0.2640 -0.1456
62160SOL    HW293721   8.839   0.452   3.608 -0.0015  0.1831 -0.9892
62161SOL     OW93722   0.060   8.008   1.250  0.4928  0.1516  0.4000
62161SOL    HW193723  -0.025   8.044   1.227  1.3418  1.5649 -0.6730
62161SOL    HW293724   0.045   7.961   1.332 -1.9623 -2.3003 -1.2759
62162SOL     OW93725   9.911   0.789   9.274  0.3842  0.1026  0.7944
62162SOL    HW193726   9.957   0.738   9.207  0.3895  0.6333  0.3818
62162SOL    HW293727   9.937   0.749   9.357 -1.2893 -1.9416  0.4137
62163SOL     OW93728   2.631   0.916  11.815 -0.4683 -0.1269  0.1744
62163SOL    HW193729   2.565   0.850  11.837  0.0540 -0.5210  0.5989
62163SOL    HW293730   2.607   0.946  11.728  0.5857 -2.5843 -1.0656
62164SOL     OW93731   8.817   8.902   4.889  0.6264  0.3497  0.1515
62164SOL    HW193732   8.761   8.939   4.957  0.7998  0.9336 -0.0100
62164SOL    HW293733   8.844   8.978   4.837  1.2887  0.0392  0.0255
62165SOL     OW93734  10.952  10.779   1.073 -0.2429 -0.3540  0.0649
62165SOL    HW193735  10.880  10.721   1.099 -1.2144 -0.4802 -2.6560
62165SOL    HW293736  10.926  10.814   0.988  1.6149  1.9118  0.3348
62166SOL     OW93737   1.117   6.411   2.967 -0.4367 -0.4291 -0.4200
62166SOL    HW193738   1.161   6.409   2.882 -1.0404 -1.1392 -0.7357
62166SOL    HW293739   1.174   6.464   3.023 -2.3802  4.4174 -2.5130
62167SOL     OW93740   9.193   8.179   0.780  0.3832 -0.4384 -0.8062
62167SOL    HW193741   9.110   8.171   0.828  0.1856 -3.2583 -1.4436
62167SOL    HW293742   9.261   8.168   0.847  0.3309  1.6114 -0.3276
62168SOL     OW93743   3.076  11.685   0.560 -0.1330 -0.0418 -0.3679
62168SOL    HW193744   3.169  11.697   0.542  0.1498  1.4981  1.7578
62168SOL    HW293745   3.068  11.692   0.655 -2.3851 -0.4747 -0.4621
62169SOL     OW93746   3.869   7.422  10.424 -0.6681 -0.2479 -0.5611
62169SOL    HW193747   3.932   7.472  10.372 -0.7081  1.6341  1.0859
62169SOL    HW293748   3.786   7.468  10.411 -0.3497  1.4518  2.4715
62170SOL     OW93749   4.070  10.781   8.649  0.0754  0.0329  0.0055
62170SOL    HW193750   4.156  10.741   8.638  0.2790  0.9093 -1.9904
62170SOL    HW293751   4.021  10.757   8.571 -0.9184  0.9593  0.3039
62171SOL     OW93752  12.455  11.113   6.866 -0.0609  0.2739  0.0089
62171SOL    HW193753  12.408  11.135   6.947 -0.0317 -0.0536  0.1182
62171SOL    HW293754  12.482  11.022   6.879  1.8540  0.8587  0.5773
62172SOL     OW93755   5.489  10.214   7.517 -0.2354 -0.1159  0.1957
62172SOL    HW193756   5.557  10.278   7.499 -1.1013  1.0111  0.7984
62172SOL    HW293757   5.520  10.133   7.477 -0.0191  1.1335 -2.3330
62173SOL     OW93758   2.653   5.630   2.961  0.0682 -0.1591  0.4257
62173SOL    HW193759   2.590   5.683   2.912 -0.7265  0.3720  1.9293
62173SOL    HW293760   2.625   5.640   3.052  1.7703 -0.7058  1.0342
62174SOL     OW93761   9.858   5.033   0.425  0.2453  0.0507  0.0425
62174SOL    HW193762   9.812   5.032   0.341  0.7858  0.1382 -0.2539
62174SOL    HW293763   9.863   4.941   0.452  1.5786 -0.1623 -0.8498
62175SOL     OW93764  12.480   9.557   9.576  0.1695  0.3661  0.4360
62175SOL    HW193765  12.457   9.647   9.601  0.7398  0.2439  1.4488
62175SOL    HW293766  12.465   9.505   9.655  0.3378 -0.3468  0.0108
62176SOL     OW93767   1.435   6.971   6.528 -0.0113 -0.6902 -0.5656
62176SOL    HW193768   1.393   6.950   6.444 -0.4550 -1.3213 -0.1926
62176SOL    HW293769   1.407   6.901   6.587 -1.6161  0.9567  0.7385
62177SOL     OW93770   9.023   5.675   8.371 -0.3341 -0.3042  0.0000
62177SOL    HW193771   8.933   5.643   8.363 -0.5676  0.5706 -1.2771
62177SOL    HW293772   9.077   5.601   8.345 -0.6378 -1.0538  1.4471
62178SOL     OW93773   2.396   3.604   2.757 -0.5735  0.1820 -0.0165
62178SOL    HW193774   2.344   3.525   2.744  0.3694 -0.5277  0.4451
62178SOL    HW293775   2.359   3.667   2.695 -0.2810 -1.1270 -1.5921
62179SOL     OW93776   5.727   6.593  11.152 -0.1557 -0.5111  0.3994
62179SOL    HW193777   5.757   6.680  11.179 -1.2162 -0.2031  0.6129
62179SOL    HW293778   5.770   6.533  11.212 -1.5864  0.0804  2.0832
62180SOL     OW93779   0.123   0.698  10.330  0.1070 -0.1302 -0.0728
62180SOL    HW193780   0.161   0.698  10.418  1.7293  1.1471 -0.7101
62180SOL    HW293781   0.099   0.607  10.314 -2.1369 -0.1106  2.4134
62181SOL     OW93782   6.402   4.836   8.751 -0.3144 -0.3845  0.0519
62181SOL    HW193783   6.402   4.753   8.704 -0.2336 -0.5714  0.3792
62181SOL    HW293784   6.428   4.813   8.840  1.2045  0.1888 -0.2026
62182SOL     OW93785   2.068   0.359   9.813  0.3733  0.2232  0.1006
62182SOL    HW193786   2.028   0.383   9.897 -0.4772 -1.2607  0.1528
62182SOL    HW293787   2.000   0.378   9.748 -0.0976 -1.3678  0.0859
62183SOL     OW93788  12.305   3.879   2.098 -0.1765 -0.4408  0.3349
62183SOL    HW193789  12.331   3.955   2.046  2.1070 -0.5511  1.2065
62183SOL    HW293790  12.212   3.869   2.080 -0.0422  1.1180 -1.6382
62184SOL     OW93791  10.911   8.761  12.548 -0.2325 -0.1580  0.6123
62184SOL    HW193792  10.981   8.703  12.579  1.4541  0.4740 -1.7149
62184SOL    HW293793  10.833   8.706  12.547  0.2757 -1.0398  2.8303
62185SOL     OW93794   9.426   0.567   2.426 -0.3723 -0.0974  0.7677
62185SOL    HW193795   9.464   0.565   2.514  1.2304 -4.4997  0.2591
62185SOL    HW293796   9.502   0.569   2.368 -1.3395  0.6745 -0.5206
62186SOL     OW93797  11.764   8.607  10.155 -0.0404 -0.0303 -0.2912
62186SOL    HW193798  11.709   8.570  10.224  0.3585  2.8438  1.7373
62186SOL    HW293799  11.707   8.669  10.109  0.8082  1.1863  0.2586
62187SOL     OW93800   2.042   0.753  11.326  0.2265  0.5163 -0.2289
62187SOL    HW193801   1.992   0.769  11.246  1.6932 -1.1830 -1.5816
62187SOL    HW293802   2.042   0.658  11.335  3.5624  0.3604 -0.6481
62188SOL     OW93803   3.712   1.388   8.437  0.2378  0.0318 -0.1099
62188SOL    HW193804   3.622   1.392   8.404 -0.2834  0.4817  1.3165
62188SOL    HW293805   3.726   1.472   8.479  0.0390 -1.3044  2.8402
62189SOL     OW93806  11.908   6.864   1.799  0.1416 -0.2057  0.6813
62189SOL    HW193807  11.944   6.795   1.855 -1.7652 -0.5047  1.6502
62189SOL    HW293808  11.931   6.837   1.710  0.4703 -1.4654  1.1214
62190SOL     OW93809  11.893   2.175  12.023 -0.1085 -0.1214  0.3044
62190SOL    HW193810  11.878   2.248  12.083 -2.7075 -0.6928  0.4322
62190SOL    HW293811  11.953   2.117  12.071  0.7027  1.1184  0.8471
62191SOL     OW93812   5.565  12.204   3.779 -0.1496  0.0757 -0.2172
62191SOL    HW193813   5.658  12.218   3.796 -0.1940  0.0225  0.0677
62191SOL    HW293814   5.547  12.256   3.700  0.7029 -1.9478 -1.8310
62192SOL     OW93815   9.373  10.973   8.818  0.6699 -0.0946  0.0166
62192SOL    HW193816   9.460  10.967   8.778  0.1573 -0.9350 -1.0189
62192SOL    HW293817   9.378  11.050   8.874  0.6988  2.7878 -3.5548
62193SOL     OW93818  11.735   4.887   1.030  0.0095 -0.6115 -0.3024
62193SOL    HW193819  11.672   4.843   0.972  0.4216 -0.1314 -1.1405
62193SOL    HW293820  11.681   4.925   1.099 -0.7091  0.2275 -1.2898
62194SOL     OW93821  10.724   7.060   0.711 -0.2966  0.6626 -0.5586
62194SOL    HW193822  10.818   7.064   0.728 -0.3685 -2.0837  1.0847
62194SOL    HW293823  10.705   7.139   0.659  2.6269  2.0033  0.2314
62195SOL     OW93824   4.892  12.504   4.973  0.2010  0.3612 -0.0585
62195SOL    HW193825   4.907  12.410   4.974 -0.4732  0.2121 -1.3238
62195SOL    HW293826   4.863  12.523   4.883  3.2504  2.2456 -0.7834
62196SOL     OW93827  11.997  11.967   9.709 -0.1887 -0.1154 -0.3184
62196SOL    HW193828  11.933  11.912   9.664  0.3398 -2.7443  1.9099
62196SOL    HW293829  11.944  12.028   9.760 -0.8142  0.4855 -1.6470
62197SOL     OW93830   9.967   9.407   8.499  0.0302 -0.0803 -0.1048
62197SOL    HW193831  10.042   9.393   8.556 -0.9756 -1.3537  0.9899
62197SOL    HW293832   9.891   9.400   8.557 -0.9556  0.9802 -1.2000
62198SOL     OW93833   1.074  12.466   2.259  0.0650  0.0608 -0.0165
62198SOL    HW193834   1.165  12.433   2.261  1.3430  3.2304  2.2651
62198SOL    HW293835   1.074  12.534   2.192 -0.5290  0.3158  0.2365
62199SOL     OW93836   5.034   3.509   1.069 -0.6071 -0.0550  0.4241
62199SOL    HW193837   5.020   3.570   1.141  0.8546  1.0665 -0.1888
62199SOL    HW293838   4.972   3.537   1.002 -3.4860 -2.3989  1.8979
62200SOL     OW93839   7.884   5.309   6.464  0.6932 -0.5291  0.3755
62200SOL    HW193840   7.903   5.324   6.372  1.0137 -0.2172  0.4873
62200SOL    HW293841   7.926   5.382   6.509 -0.4111 -0.0697  0.6842
62201SOL     OW93842   4.041  10.826   7.838  0.4127  0.4728 -0.5173
62201SOL    HW193843   3.961  10.878   7.848 -0.2630 -0.7639  1.0285
62201SOL    HW293844   4.014  10.737   7.861  2.6340  0.3649  2.1850
62202SOL     OW93845   2.118   3.803   2.744 -0.5601  0.6247  0.0956
62202SOL    HW193846   2.202   3.798   2.698 -0.7484 -0.1540 -0.1857
62202SOL    HW293847   2.118   3.889   2.786  0.1695  0.8250 -0.3025
62203SOL     OW93848  12.115  12.633   7.103  0.0578 -0.3964  0.0079
62203SOL    HW193849  12.117  12.652   7.009  1.5198  1.2419  0.3147
62203SOL    HW293850  12.022  12.627   7.124 -0.3308  0.3818 -1.3460
62204SOL     OW93851   9.288   3.175   3.731 -0.4896 -0.3375 -0.1473
62204SOL    HW193852   9.364   3.233   3.727 -1.0207  0.3240 -1.8262
62204SOL    HW293853   9.226   3.214   3.669 -2.9338  0.1449  2.4355
62205SOL     OW93854  10.276  12.644   1.009 -0.2320  0.3715  0.2197
62205SOL    HW193855  10.311  12.556   1.016  0.8139  0.5840 -1.6295
62205SOL    HW293856  10.187  12.633   0.975  0.0727  0.0446 -0.4733
62206SOL     OW93857   9.449   2.798   1.354 -0.3683  0.0334 -0.4665
62206SOL    HW193858   9.447   2.874   1.296 -1.4859 -0.0882 -0.6219
62206SOL    HW293859   9.380   2.815   1.418 -1.3820 -1.3170 -1.1430
62207SOL     OW93860   3.027   7.995  12.267 -0.7723 -0.3778 -0.1141
62207SOL    HW193861   3.105   7.939  12.268 -1.6368 -1.7382 -2.0055
62207SOL    HW293862   2.979   7.971  12.346 -1.0944 -2.3613 -0.8444
62208SOL     OW93863   9.187   0.124   2.430 -0.1349 -0.1538  0.0928
62208SOL    HW193864   9.141   0.090   2.353 -1.3439 -0.0638  0.7500
62208SOL    HW293865   9.210   0.214   2.406  0.1614 -0.3641 -0.4321
62209SOL     OW93866   5.870  11.422   7.376  0.4252 -0.2508  0.4602
62209SOL    HW193867   5.848  11.503   7.330 -0.0761 -0.0095  1.1068
62209SOL    HW293868   5.875  11.447   7.468 -0.8233 -1.1637  0.8023
62210SOL     OW93869   5.177   1.541   0.414 -0.3291 -0.2888  0.5636
62210SOL    HW193870   5.234   1.555   0.338 -1.6141 -0.4344 -0.4855
62210SOL    HW293871   5.230   1.494   0.477  0.6479 -0.5689 -0.4445
62211SOL     OW93872   1.596   6.543   1.836  0.0195 -0.2130 -0.0809
62211SOL    HW193873   1.563   6.491   1.910 -0.2574  0.6127  0.3853
62211SOL    HW293874   1.551   6.508   1.759  0.5329 -1.2821  0.0880
62212SOL     OW93875   8.939   2.330   8.746  0.4364 -0.1428  0.1580
62212SOL    HW193876   9.015   2.375   8.710 -0.1663  0.6277 -0.1609
62212SOL    HW293877   8.879   2.400   8.771 -0.4162 -0.7573 -0.1353
62213SOL     OW93878   8.691   4.426   0.412 -0.1164  0.0574 -0.1177
62213SOL    HW193879   8.599   4.398   0.417 -0.8658  2.2114 -0.7975
62213SOL    HW293880   8.715   4.414   0.321  1.1477 -2.8113  0.4847
62214SOL     OW93881   2.764   5.000   9.647 -0.4664 -0.5653  0.2653
62214SOL    HW193882   2.685   4.999   9.593 -2.7624 -0.7637  3.3339
62214SOL    HW293883   2.811   5.079   9.619 -3.1383  1.1021  0.0931
62215SOL     OW93884   0.179  11.618   2.726 -0.4454  0.6252 -0.3335
62215SOL    HW193885   0.101  11.562   2.730 -1.0550  1.5143  0.3994
62215SOL    HW293886   0.233  11.588   2.798 -0.9319  1.1986  0.2806
62216SOL     OW93887  11.074   6.011   9.752 -0.4382 -0.7343  0.6489
62216SOL    HW193888  11.074   5.946   9.682  1.2954  0.3337 -0.4182
62216SOL    HW293889  11.080   6.095   9.707  1.1512 -0.0328  2.0410
62217SOL     OW93890   2.183  12.096  11.584 -0.7690 -0.2601  0.3597
62217SOL    HW193891   2.219  12.028  11.642  1.1528  0.7053  0.3678
62217SOL    HW293892   2.242  12.170  11.594  0.0001 -0.2130 -3.2271
62218SOL     OW93893  12.344   3.728   9.722 -0.1125  0.2809  0.2230
62218SOL    HW193894  12.374   3.651   9.770 -0.5852  0.2915  0.5484
62218SOL    HW293895  12.249   3.728   9.734 -0.0637  1.2740  0.7736
62219SOL     OW93896   5.128  10.768   4.155 -0.7268  0.0258  1.1825
62219SOL    HW193897   5.059  10.801   4.213  0.4250  2.7786  1.1046
62219SOL    HW293898   5.081  10.714   4.091 -2.7496  1.3221  1.4779
62220SOL     OW93899   1.889   8.439   8.396  0.8721  0.1683 -0.6108
62220SOL    HW193900   1.928   8.354   8.376  0.3570 -0.1072 -0.4591
62220SOL    HW293901   1.957   8.487   8.442  0.8408 -0.5184  0.1684
62221SOL     OW93902   1.736   2.677   7.568  0.1873 -0.3623  0.4224
62221SOL    HW193903   1.821   2.710   7.600  0.9849 -1.4488 -0.4785
62221SOL    HW293904   1.726   2.716   7.482  0.1993 -0.9268  0.1633
62222SOL     OW93905  10.054   6.215   4.828 -0.0062 -0.1195 -0.2405
62222SOL    HW193906   9.982   6.254   4.779  0.6932 -0.3263 -1.4686
62222SOL    HW293907  10.012   6.162   4.896 -1.0215 -0.5557 -1.1900
62223SOL     OW93908   8.280   2.937   7.907  0.4352 -0.4435 -0.1790
62223SOL    HW193909   8.209   2.883   7.872 -0.0312  0.2972 -0.4098
62223SOL    HW293910   8.340   2.948   7.833  2.3931 -3.5154  0.7545
62224SOL     OW93911   8.418   9.614   2.314  0.1173 -0.0397 -0.6969
62224SOL    HW193912   8.427   9.643   2.404 -1.4906  0.5619 -0.6965
62224SOL    HW293913   8.413   9.518   2.319 -1.8296  0.0531  0.0934
62225SOL     OW93914   7.410   7.327   7.633 -0.0558  0.7650  0.1658
62225SOL    HW193915   7.370   7.339   7.546  0.3376  0.0425 -0.1197
62225SOL    HW293916   7.493   7.284   7.615 -0.8503 -1.2471  1.0396
62226SOL     OW93917  10.525  10.763  11.569  0.0810  0.4077 -0.8727
62226SOL    HW193918  10.561  10.707  11.500  1.1311  0.2279 -0.2061
62226SOL    HW293919  10.458  10.815  11.526  0.9407  0.5298 -2.1061
62227SOL     OW93920   9.866   2.237   9.417 -0.4652 -0.2207  0.5871
62227SOL    HW193921   9.887   2.212   9.507  2.0780  0.1115  0.1482
62227SOL    HW293922   9.880   2.157   9.366 -1.1120 -0.1935  0.3505
62228SOL     OW93923   9.149   4.707   6.956 -0.4840 -0.0276 -0.1673
62228SOL    HW193924   9.121   4.795   6.933 -1.9097  0.4747  2.9053
62228SOL    HW293925   9.231   4.694   6.908  0.4237  3.4469  0.1381
62229SOL     OW93926   3.466   9.574  10.874 -0.4386  0.0805 -0.5381
62229SOL    HW193927   3.476   9.627  10.795 -0.1519  0.1781 -0.4374
62229SOL    HW293928   3.555   9.553  10.901 -0.5094  0.4666  0.0383
62230SOL     OW93929  10.678   9.236   0.207 -0.0305  0.6073 -0.2372
62230SOL    HW193930  10.636   9.303   0.153 -1.0590  0.2978  0.1521
62230SOL    HW293931  10.605   9.192   0.251  0.5828 -0.9525 -0.6972
62231SOL     OW93932   3.242  12.286   5.995  1.0889  0.3081 -0.0622
62231SOL    HW193933   3.236  12.359   5.933 -1.7950  0.1686 -0.0624
62231SOL    HW293934   3.173  12.303   6.059  1.5384 -1.5053  0.9699
62232SOL     OW93935  11.113   4.694   1.328 -0.3334 -0.2952 -0.0947
62232SOL    HW193936  11.193   4.649   1.353  0.4651  1.1821  0.1242
62232SOL    HW293937  11.077   4.642   1.256  1.3064 -0.4931 -0.8101
62233SOL     OW93938  11.670   2.287  12.318  0.1597  0.0796 -0.1738
62233SOL    HW193939  11.753   2.271  12.275  0.5002 -0.0160  0.5022
62233SOL    HW293940  11.675   2.238  12.400  0.0087  1.2093  0.5297
62234SOL     OW93941   0.649  12.461   5.198  0.5402  0.0192 -0.5410
62234SOL    HW193942   0.670  12.375   5.161  0.1869  0.2184 -1.2160
62234SOL    HW293943   0.625  12.514   5.122 -0.8993  0.2405  0.0428
62235SOL     OW93944   1.606   7.222  12.347 -0.1120  0.5454  0.6095
62235SOL    HW193945   1.624   7.315  12.359 -0.1693  0.3258  2.7441
62235SOL    HW293946   1.677   7.177  12.393 -0.8508 -0.4393  0.8266
62236SOL     OW93947   0.935   3.799   9.114  0.3077 -0.1854  0.0274
62236SOL    HW193948   0.905   3.759   9.032  0.9191 -0.5234 -0.0364
62236SOL    HW293949   0.998   3.866   9.086  1.4824 -1.1532  0.2615
62237SOL     OW93950   5.759   3.724   1.212 -0.3595  0.0922  0.0878
62237SOL    HW193951   5.738   3.802   1.263  0.3471  0.8267 -0.7047
62237SOL    HW293952   5.849   3.738   1.182 -1.2286  0.4174 -2.6086
62238SOL     OW93953   0.825   2.631   5.681  0.0923 -0.1234 -0.2966
62238SOL    HW193954   0.785   2.553   5.720 -1.1784  0.0192 -1.2509
62238SOL    HW293955   0.916   2.604   5.663 -0.1799 -1.2129 -0.1369
62239SOL     OW93956   4.506  12.238   7.559  0.2725  0.1656  0.3213
62239SOL    HW193957   4.514  12.237   7.654 -0.8326  1.8502  0.4828
62239SOL    HW293958   4.424  12.192   7.541  1.6738 -2.3467 -0.0580
62240SOL     OW93959   4.414   9.492   7.854 -0.1057 -0.2267  0.4368
62240SOL    HW193960   4.443   9.539   7.932 -0.2709  0.6018  0.0083
62240SOL    HW293961   4.457   9.538   7.781  0.9549 -1.6687  0.0994
62241SOL     OW93962  12.612   3.315   8.061  0.3802 -0.3152 -0.6906
62241SOL    HW193963  12.698   3.277   8.043 -0.0475 -0.4765 -2.5392
62241SOL    HW293964  12.550   3.247   8.037 -0.2888 -0.3698  1.0652
62242SOL     OW93965  10.198   8.028   0.553  0.3683  0.3113  1.1839
62242SOL    HW193966  10.194   7.948   0.501  0.3088  1.3703 -0.5039
62242SOL    HW293967  10.236   8.094   0.494 -0.4835  1.7816  2.2047
62243SOL     OW93968   2.603   3.251   0.450  0.4318 -0.2339 -0.7144
62243SOL    HW193969   2.576   3.284   0.536 -0.3506  0.5062 -1.2226
62243SOL    HW293970   2.625   3.330   0.400  0.9754 -0.6626 -1.1646
62244SOL     OW93971   7.082   5.087   8.477  0.2853  0.6333  0.0178
62244SOL    HW193972   7.088   5.135   8.395 -0.3888  0.8983  0.1200
62244SOL    HW293973   6.989   5.086   8.498  0.0930 -1.7860 -0.6107
62245SOL     OW93974   5.217   2.352   9.585 -0.0969 -0.6326  0.1921
62245SOL    HW193975   5.132   2.392   9.599 -1.1531 -1.8523 -2.1034
62245SOL    HW293976   5.280   2.423   9.594 -1.4089  0.4600  1.0942
62246SOL     OW93977   8.300  12.304   4.937  0.4148  0.4326  0.6671
62246SOL    HW193978   8.264  12.216   4.947 -0.5555  1.0051  2.8597
62246SOL    HW293979   8.373  12.306   4.999 -0.4358  1.5710  1.6772
62247SOL     OW93980  11.156   5.041   4.928  0.0135 -1.1225  0.3219
62247SOL    HW193981  11.228   5.095   4.896 -0.5997  0.0007  0.7872
62247SOL    HW293982  11.083   5.102   4.939 -1.0455 -2.2478 -0.2196
62248SOL     OW93983  12.411  10.486   5.199 -0.0772 -0.1292 -0.3273
62248SOL    HW193984  12.497  10.475   5.159  0.6959 -1.9639  1.6635
62248SOL    HW293985  12.412  10.576   5.232 -0.3767  1.1112 -3.3425
62249SOL     OW93986  12.347   2.482  12.566 -0.4848 -0.3070  0.4779
62249SOL    HW193987  12.318   2.539  12.637  0.5560  2.3077 -1.0842
62249SOL    HW293988  12.432   2.448  12.595 -0.0146  0.8289  0.4622
62250SOL     OW93989  12.424   4.512   6.820  0.3186 -0.6894  0.0247
62250SOL    HW193990  12.376   4.579   6.868 -1.4841 -0.9724 -1.2712
62250SOL    HW293991  12.399   4.525   6.729 -0.9112 -3.7051 -0.1854
62251SOL     OW93992   0.419   7.290   8.973  0.4086 -0.1218 -0.1585
62251SOL    HW193993   0.502   7.294   9.020 -0.7178 -0.3094  1.9726
62251SOL    HW293994   0.367   7.226   9.022 -1.1308  0.2659 -1.2230
62252SOL     OW93995   2.866   4.778   6.488 -0.2405 -0.1729 -0.3348
62252SOL    HW193996   2.933   4.762   6.554 -0.5759 -0.8232 -0.1379
62252SOL    HW293997   2.815   4.851   6.523 -1.2454 -1.3626  0.8114
62253SOL     OW93998   2.039   4.989  12.707 -0.4452  0.1720  0.3047
62253SOL    HW193999   2.104   5.004  12.776 -0.9209  1.4479  0.4978
62253SOL    HW294000   2.088   4.948  12.636  0.0934 -0.9940  1.3055
62254SOL     OW94001  11.793   6.989   2.085  0.2118 -0.0224  0.3889
62254SOL    HW194002  11.697   6.982   2.079  0.2136  0.7781 -1.0822
62254SOL    HW294003  11.825   6.961   1.999  1.3814 -1.1538  1.1607
62255SOL     OW94004   9.606   4.569   7.658 -0.0095  0.1580  0.0764
62255SOL    HW194005   9.564   4.557   7.744  0.7179  3.4348  1.0436
62255SOL    HW294006   9.699   4.576   7.678  0.0685  2.0553 -0.7980
62256SOL     OW94007   9.249   6.015  12.615 -0.1060  0.2805 -0.0752
62256SOL    HW194008   9.295   6.081  12.666  0.7823  0.4948 -1.1193
62256SOL    HW294009   9.309   5.940  12.613  0.1803  0.5208 -1.3557
62257SOL     OW94010  10.871   5.555   6.253  0.6213 -0.3513  0.5939
62257SOL    HW194011  10.923   5.566   6.174  1.2200 -0.9438  0.9004
62257SOL    HW294012  10.853   5.461   6.257  0.7187 -0.3461  1.2386
62258SOL     OW94013   7.181   6.834  12.354 -0.4128 -0.0062  0.0754
62258SOL    HW194014   7.161   6.838  12.448 -0.7060  0.9970 -0.0168
62258SOL    HW294015   7.118   6.893  12.314 -0.6583 -0.8612 -0.8322
62259SOL     OW94016  11.269  10.783   7.363  0.5893 -0.0932 -0.1910
62259SOL    HW194017  11.347  10.788   7.309  0.6908  0.6457  0.0107
62259SOL    HW294018  11.287  10.841   7.437  0.3875 -0.9640  0.5492
62260SOL     OW94019  12.662   2.828   8.494 -0.1277  0.4026  0.4071
62260SOL    HW194020  12.745   2.866   8.522 -1.5450  2.4788  1.9990
62260SOL    HW294021  12.603   2.902   8.484 -2.1673 -1.1135  0.5411
62261SOL     OW94022   8.755   7.785   4.164 -0.0782  0.6591 -0.5454
62261SOL    HW194023   8.664   7.766   4.145  0.0544 -0.1977 -0.3370
62261SOL    HW294024   8.798   7.700   4.166  0.5756  0.9896  0.1379
62262SOL     OW94025   7.858   1.356   6.916  0.3778  0.0604  0.2541
62262SOL    HW194026   7.839   1.394   7.001  2.0721  0.9924  0.2776
62262SOL    HW294027   7.862   1.262   6.931 -2.3578 -0.0799  0.5277
62263SOL     OW94028   9.862   0.616   5.994  0.3982  0.1918 -0.7160
62263SOL    HW194029   9.908   0.559   6.056 -0.0793 -0.0037 -0.5383
62263SOL    HW294030   9.783   0.568   5.971 -1.6754  2.0852  1.8992
62264SOL     OW94031   2.343   6.534   5.243 -0.9745  0.4053  0.3348
62264SOL    HW194032   2.409   6.465   5.239 -0.8104  0.5868 -0.1966
62264SOL    HW294033   2.362   6.590   5.167 -1.6745  0.5117  0.2304
62265SOL     OW94034  10.996   3.293   0.599 -0.3672 -0.1571  0.2163
62265SOL    HW194035  10.958   3.376   0.568  0.6195  1.0544  2.0570
62265SOL    HW294036  11.080   3.318   0.637  0.1747 -2.1018  0.3875
62266SOL     OW94037   4.477   7.299   2.064 -0.0007  0.4011 -0.2930
62266SOL    HW194038   4.525   7.236   2.118  0.7589  0.9453 -0.3134
62266SOL    HW294039   4.543   7.364   2.040 -0.4902  0.5364 -1.3029
62267SOL     OW94040   5.611  11.615   0.313 -0.2829  0.0444 -0.2417
62267SOL    HW194041   5.516  11.613   0.314 -0.2760  0.1489  0.5159
62267SOL    HW294042   5.633  11.707   0.294 -0.3296  0.2176  0.5256
62268SOL     OW94043   6.830   5.348   8.455 -0.2708  0.3444 -0.3646
62268SOL    HW194044   6.740   5.380   8.455 -0.6324 -0.5347 -2.1842
62268SOL    HW294045   6.866   5.377   8.539 -2.7597 -0.8413  1.2167
62269SOL     OW94046   2.014  10.104   4.022  0.0071 -0.1385 -0.2280
62269SOL    HW194047   1.944  10.050   3.985  0.3020  0.9526 -2.6145
62269SOL    HW294048   1.990  10.193   3.998  2.0425  0.2923 -0.8948
62270SOL     OW94049   9.676  12.618   9.765  0.1325 -0.4132 -0.3073
62270SOL    HW194050   9.756  12.597   9.717  0.0616 -1.9393  0.1793
62270SOL    HW294051   9.681  12.565   9.845 -0.9600  0.0992  0.1233
62271SOL     OW94052   7.248   6.668  11.455  0.3365  0.2879  0.2983
62271SOL    HW194053   7.196   6.683  11.534 -0.9509 -0.9241 -0.2940
62271SOL    HW294054   7.252   6.754  11.413  2.2070  1.2933  2.3058
62272SOL     OW94055   7.108  12.291   4.838  0.4549 -0.1004 -0.0166
62272SOL    HW194056   7.164  12.352   4.886  1.2028 -0.4274 -0.4514
62272SOL    HW294057   7.026  12.290   4.887  0.9147  0.1912  0.7820
62273SOL     OW94058   4.427   0.054   1.744 -0.1407 -0.1282  0.4168
62273SOL    HW194059   4.476   0.046   1.826  0.5206  0.4875  0.1020
62273SOL    HW294060   4.359  -0.013   1.749  0.2620 -0.4898  1.2107
62274SOL     OW94061  11.263   6.022   7.525  0.0318  0.1790 -0.4435
62274SOL    HW194062  11.322   5.955   7.491 -0.9692 -0.4108 -1.0433
62274SOL    HW294063  11.226   6.063   7.447 -1.7307 -0.6916 -0.0989
62275SOL     OW94064   0.121   2.544   7.861 -0.3286 -0.1172 -0.3530
62275SOL    HW194065   0.110   2.449   7.873 -1.1299  0.1479  1.3358
62275SOL    HW294066   0.216   2.558   7.869 -0.1819 -0.7964 -0.8072
62276SOL     OW94067   1.403   4.757   2.984  0.7434 -0.2041  0.5068
62276SOL    HW194068   1.347   4.705   2.927  0.4567  2.0936 -1.4397
62276SOL    HW294069   1.483   4.704   2.994  1.8648  0.2185 -4.1478
62277SOL     OW94070  12.118   2.800  11.881  0.4474  0.4515 -0.0676
62277SOL    HW194071  12.125   2.731  11.948  0.5112  0.3983 -0.1293
62277SOL    HW294072  12.188   2.862  11.902  1.6901 -0.5108 -1.1930
62278SOL     OW94073   1.381   2.625   4.039  0.1069 -0.3758 -0.1539
62278SOL    HW194074   1.286   2.631   4.029  0.0447 -1.3667 -0.1992
62278SOL    HW294075   1.413   2.711   4.011 -0.8139  0.1740  0.4298
62279SOL     OW94076   2.714   0.932   6.358  0.5306  0.0029 -0.0854
62279SOL    HW194077   2.687   0.970   6.275  0.8422 -1.0494 -0.6763
62279SOL    HW294078   2.732   0.840   6.339  3.0556  0.2618  0.5710
62280SOL     OW94079   1.438   7.501   0.564 -0.0422 -0.1208 -0.2183
62280SOL    HW194080   1.488   7.488   0.483  1.0209  0.0865  0.3851
62280SOL    HW294081   1.348   7.478   0.540  0.0304  1.0183 -1.7646
62281SOL     OW94082   3.530   0.210   0.745  0.4626 -0.0752  0.6210
62281SOL    HW194083   3.459   0.190   0.683  0.1764 -0.3288  1.0301
62281SOL    HW294084   3.569   0.291   0.711  0.4610 -0.3359 -0.0284
62282SOL     OW94085  11.332   9.022   3.026  0.1824  0.6684  0.4088
62282SOL    HW194086  11.371   9.032   3.113  1.1586  1.2322 -0.0807
62282SOL    HW294087  11.240   9.045   3.039 -0.0227 -0.6733  1.5833
62283SOL     OW94088   4.297   9.982   9.538  0.4206 -0.4873 -0.0567
62283SOL    HW194089   4.358  10.050   9.565  0.2973 -0.4853  0.2195
62283SOL    HW294090   4.211  10.019   9.556  0.3122 -0.2489 -1.0160
62284SOL     OW94091  10.905   7.794   3.709 -1.3761 -0.5301 -0.1518
62284SOL    HW194092  10.935   7.803   3.619 -1.9477 -1.0302 -0.3953
62284SOL    HW294093  10.831   7.734   3.704 -1.0712 -0.9944  0.7213
62285SOL     OW94094  12.356   5.668   3.719  0.4401 -0.0845  0.0390
62285SOL    HW194095  12.351   5.761   3.699  2.3205  0.0473  0.0251
62285SOL    HW294096  12.273   5.649   3.764  1.1238  2.2257  2.5501
62286SOL     OW94097  12.200   6.678  11.691 -0.1345 -0.1373  0.5644
62286SOL    HW194098  12.249   6.660  11.771 -0.9985 -2.4434  0.6243
62286SOL    HW294099  12.150   6.599  11.674 -0.8805  0.7210 -1.6421
62287SOL     OW94100  10.692   2.072   2.803  0.0361 -0.0869  0.3132
62287SOL    HW194101  10.736   1.993   2.775  2.2887  1.0503  0.4503
62287SOL    HW294102  10.762   2.129   2.835 -1.4897  1.9680  0.2184
62288SOL     OW94103  10.861   2.931  11.758 -0.0796 -0.3784  0.1671
62288SOL    HW194104  10.925   2.868  11.726  0.3594 -0.0587  0.4014
62288SOL    HW294105  10.782   2.913  11.707  0.7138  0.3861 -1.4016
62289SOL     OW94106   9.163  10.154   9.055  0.6206  0.3824  0.4966
62289SOL    HW194107   9.238  10.104   9.021 -0.0652 -1.2290  1.2335
62289SOL    HW294108   9.087  10.109   9.019 -0.0567  0.0988  2.2203
62290SOL     OW94109   0.876   0.470   6.933  0.1666 -0.0650  0.5787
62290SOL    HW194110   0.863   0.383   6.894 -1.6077 -0.1234  1.1883
62290SOL    HW294111   0.787   0.505   6.939  0.8718  1.8541  0.2353
62291SOL     OW94112   9.077  10.699   8.139 -0.1507  0.2896  0.4050
62291SOL    HW194113   9.091  10.767   8.205 -1.1786  0.9975 -0.0721
62291SOL    HW294114   9.121  10.733   8.060  0.6338 -0.3133  0.5714
62292SOL     OW94115   0.388  11.471   1.062  0.4624 -0.1036  0.1440
62292SOL    HW194116   0.307  11.521   1.056  1.7676  2.2825  1.0017
62292SOL    HW294117   0.432  11.505   1.140  3.9069  1.3661 -2.1562
62293SOL     OW94118   1.273  12.653  10.054  0.0396  0.1460  0.1062
62293SOL    HW194119   1.228  12.607   9.983  1.3399  0.6790 -1.1067
62293SOL    HW294120   1.235  12.741  10.053 -0.0268  0.1177  0.1457
62294SOL     OW94121   7.971   3.584   0.486 -0.1787 -0.0580 -0.0451
62294SOL    HW194122   7.970   3.657   0.424  0.5843 -1.8427 -2.2843
62294SOL    HW294123   7.902   3.606   0.549  0.6792  3.0263 -0.0002
62295SOL     OW94124  12.686   5.541   5.655 -0.2555  0.0664  0.3140
62295SOL    HW194125  12.658   5.471   5.714  1.6503 -2.2012 -1.2674
62295SOL    HW294126  12.608   5.558   5.601 -1.5426  1.1195  2.3612
62296SOL     OW94127   5.312  12.504   2.896 -0.5464  0.0897 -0.2956
62296SOL    HW194128   5.388  12.447   2.888 -0.5962 -0.0095 -0.0795
62296SOL    HW294129   5.284  12.520   2.806 -1.3911 -1.3819 -0.3386
62297SOL     OW94130   4.448  10.074   2.789  0.1893  0.8406  0.3186
62297SOL    HW194131   4.489  10.011   2.730  0.9749  0.4504  1.2462
62297SOL    HW294132   4.389  10.125   2.734  1.1687  0.7264 -0.8598
62298SOL     OW94133   8.142   3.070   1.798 -0.2420  0.2206  0.3494
62298SOL    HW194134   8.181   3.124   1.729 -1.4976  0.5760 -0.1078
62298SOL    HW294135   8.059   3.113   1.818 -1.5186 -1.7713 -0.3714
62299SOL     OW94136   0.906  11.352  10.128  0.1449 -0.2945  0.3928
62299SOL    HW194137   0.863  11.437  10.138  0.6375  0.3197 -2.0640
62299SOL    HW294138   0.977  11.354  10.193 -0.3710  0.7950  0.9544
62300SOL     OW94139   2.304  11.622   0.569 -0.1384 -0.6575 -0.3689
62300SOL    HW194140   2.313  11.677   0.490  1.5001  1.2426  1.0162
62300SOL    HW294141   2.383  11.568   0.569 -0.7230 -1.5232 -0.6287
62301SOL     OW94142   1.559  10.715   0.050  0.3532  0.1709  0.4306
62301SOL    HW194143   1.489  10.654   0.073  0.0104  1.0940  1.9397
62301SOL    HW294144   1.634  10.659   0.030 -0.4739 -0.7879 -0.0722
62302SOL     OW94145   4.388  12.429   1.123  0.0460  0.6099 -0.1333
62302SOL    HW194146   4.373  12.367   1.052 -0.8435  0.2327  0.3750
62302SOL    HW294147   4.315  12.416   1.183  1.6291 -0.2389  1.7014
62303SOL     OW94148  11.993   2.165   5.512 -0.1250  0.1748  0.0419
62303SOL    HW194149  11.946   2.245   5.535 -2.6757 -1.2152  0.0649
62303SOL    HW294150  11.977   2.106   5.586 -0.0620 -1.0321 -0.8781
62304SOL     OW94151   7.655   5.243  11.902  0.1268  0.0300  0.4088
62304SOL    HW194152   7.656   5.168  11.961  0.8608  0.0151  0.3877
62304SOL    HW294153   7.696   5.314  11.951  1.9269 -0.3290 -0.4912
62305SOL     OW94154   9.274   3.658   4.631  0.1754 -0.7428  0.4496
62305SOL    HW194155   9.242   3.748   4.641  0.7059 -0.4459 -0.3808
62305SOL    HW294156   9.195   3.606   4.616  0.0556  0.3050 -3.8688
62306SOL     OW94157   6.545   2.653   2.721  0.6386 -0.0909 -0.3289
62306SOL    HW194158   6.465   2.604   2.699  0.3024 -0.5054  1.5991
62306SOL    HW294159   6.518   2.745   2.718  0.6861 -0.0966 -1.7730
62307SOL     OW94160   0.144   0.089   9.018 -0.2697  0.5940  0.2766
62307SOL    HW194161   0.161   0.170   9.065  0.8226  0.4059  0.2373
62307SOL    HW294162   0.210   0.028   9.051 -0.2657  0.1017 -0.6130
62308SOL     OW94163   1.369   5.889   2.144 -0.3425  0.3030 -0.4623
62308SOL    HW194164   1.391   5.980   2.126  0.6861  0.0062 -0.7180
62308SOL    HW294165   1.273   5.889   2.151 -0.2709  1.8648  1.9676
62309SOL     OW94166   1.542  12.334   1.558  0.2139  0.2779  0.0483
62309SOL    HW194167   1.449  12.344   1.539 -0.2183 -1.1065  1.2556
62309SOL    HW294168   1.584  12.328   1.472 -0.9704 -0.3706 -0.5017
62310SOL     OW94169  10.987   3.573   0.733  0.3583  0.1105 -0.2503
62310SOL    HW194170  10.998   3.652   0.680 -2.5410  0.9202  0.1742
62310SOL    HW294171  10.966   3.605   0.820 -1.7490 -1.0296 -0.2704
62311SOL     OW94172   4.042   6.249   4.771  0.3826 -0.0005 -0.7411
62311SOL    HW194173   4.051   6.169   4.824  1.0504  0.7326  0.2846
62311SOL    HW294174   4.018   6.217   4.684  2.5632 -1.4786 -0.8869
62312SOL     OW94175   1.411   1.648   2.777 -0.2227 -0.4162  0.2596
62312SOL    HW194176   1.481   1.712   2.787 -2.1328  2.0974 -1.3618
62312SOL    HW294177   1.456   1.568   2.748  2.0897  0.5485  0.9220
62313SOL     OW94178  11.969   3.849   8.243 -0.7934 -0.0660 -0.0253
62313SOL    HW194179  11.990   3.908   8.171  1.7365  0.5257  1.0933
62313SOL    HW294180  11.974   3.904   8.321  0.2371 -1.4204  0.9186
62314SOL     OW94181   4.421   9.174   2.173 -0.0832 -0.4387 -0.2955
62314SOL    HW194182   4.453   9.123   2.247  0.3934 -0.1623 -0.3081
62314SOL    HW294183   4.326   9.166   2.178 -0.1336  0.5456  1.0590
62315SOL     OW94184   1.487   3.331   9.728  0.0602 -0.0569  0.4724
62315SOL    HW194185   1.484   3.269   9.801  0.7109  0.1140  0.6472
62315SOL    HW294186   1.396   3.357   9.716 -0.2555 -1.1690  0.2856
62316SOL     OW94187   5.636  11.589   9.657 -0.2198  0.3292  0.6634
62316SOL    HW194188   5.674  11.636   9.731 -0.2629  1.0136  0.2584
62316SOL    HW294189   5.710  11.576   9.597 -0.0635 -0.7189  1.0632
62317SOL     OW94190   0.631   6.809   1.190  0.5592  0.0017  0.8435
62317SOL    HW194191   0.681   6.780   1.114 -0.8092  0.1236 -0.1274
62317SOL    HW294192   0.588   6.730   1.223  0.9909 -0.0142  1.3753
62318SOL     OW94193   5.852  12.192  10.566 -0.1018 -0.3153  0.1260
62318SOL    HW194194   5.830  12.235  10.484 -0.9964 -0.2873  0.3688
62318SOL    HW294195   5.851  12.263  10.631  3.6899  0.2829 -0.2708
62319SOL     OW94196   0.080   4.940  10.523  0.4162  0.2544  0.7547
62319SOL    HW194197  -0.008   4.960  10.493  0.1702 -0.1862  1.1582
62319SOL    HW294198   0.113   4.876  10.460  0.6227  0.7597  0.3433
62320SOL     OW94199   0.580   1.257   7.191 -0.3541  0.0121  0.1766
62320SOL    HW194200   0.632   1.331   7.160 -0.6305  0.2789  0.3464
62320SOL    HW294201   0.612   1.240   7.280  0.7378 -1.0273 -0.3724
62321SOL     OW94202   3.922  11.011   0.648  0.0530  0.1735  0.2143
62321SOL    HW194203   3.834  10.997   0.684  0.2825  0.1180  0.7501
62321SOL    HW294204   3.932  11.106   0.643 -0.1796  0.1804 -0.2071
62322SOL     OW94205   5.601  10.121   3.389  0.0733  0.2508 -0.4404
62322SOL    HW194206   5.579  10.119   3.296  0.2614  0.6329 -0.4980
62322SOL    HW294207   5.519  10.104   3.434  0.2994 -1.8006 -0.6911
62323SOL     OW94208   2.363   7.241   0.502  0.1459  0.3302  0.0462
62323SOL    HW194209   2.297   7.278   0.561  1.6521  2.1319  0.7092
62323SOL    HW294210   2.426   7.198   0.559  0.5760  0.3582 -0.3970
62324SOL     OW94211  12.272  10.071   1.232 -0.3052  0.2867 -0.5141
62324SOL    HW194212  12.228  10.151   1.205 -1.3023 -0.2724 -0.6081
62324SOL    HW294213  12.205  10.022   1.281  0.3240 -0.4142 -0.3399
62325SOL     OW94214   8.540   3.646   0.527  0.6091  0.0122 -0.5854
62325SOL    HW194215   8.587   3.707   0.584 -0.9971  0.2593  0.5695
62325SOL    HW294216   8.450   3.680   0.525 -0.6577 -2.8245  1.0199
62326SOL     OW94217   8.055   2.295   2.952 -0.3860 -0.2093 -0.2691
62326SOL    HW194218   8.065   2.237   2.877  1.5622 -0.5809  0.2255
62326SOL    HW294219   8.128   2.356   2.946 -0.4086 -0.0070  1.1140
62327SOL     OW94220  10.304   4.166   6.604  0.1534  0.0200 -0.2888
62327SOL    HW194221  10.318   4.249   6.649  1.2195  0.2193 -0.9584
62327SOL    HW294222  10.312   4.188   6.511  2.5738 -1.1646 -0.4345
62328SOL     OW94223   4.562   5.916   4.775  0.2956 -0.2811 -0.8712
62328SOL    HW194224   4.595   5.841   4.825  2.0526 -0.8100 -2.7252
62328SOL    HW294225   4.631   5.982   4.781 -0.5163  0.5880 -0.6667
62329SOL     OW94226   4.970   6.385   2.079  0.3909  0.0279 -0.2090
62329SOL    HW194227   4.890   6.365   2.030 -1.2927  1.6089  1.6855
62329SOL    HW294228   5.038   6.331   2.039 -1.6656 -1.5145 -1.7973
62330SOL     OW94229   4.133   9.779   6.126  0.2717  0.3111  0.2259
62330SOL    HW194230   4.060   9.824   6.168  0.5325  0.5564  0.4188
62330SOL    HW294231   4.211   9.812   6.171  0.6010  0.9648 -0.8040
62331SOL     OW94232  11.860   8.640   2.576  0.4327 -0.2103 -0.3164
62331SOL    HW194233  11.769   8.622   2.598  0.2984  0.6762 -0.0992
62331SOL    HW294234  11.857   8.681   2.490  0.8148 -2.0333 -1.2528
62332SOL     OW94235   9.776  11.153   8.199  0.6958 -0.7276  0.0876
62332SOL    HW194236   9.787  11.225   8.138  1.1437 -1.3975 -0.6385
62332SOL    HW294237   9.744  11.080   8.146 -0.0416 -0.9896  0.8625
62333SOL     OW94238   8.725   1.355   2.642 -0.0860 -0.6462 -0.0319
62333SOL    HW194239   8.762   1.294   2.707  1.2543 -0.8968 -0.9816
62333SOL    HW294240   8.720   1.304   2.561  1.1917  0.4834 -0.8879
62334SOL     OW94241   3.072  10.923   5.010  0.6376 -0.0128  0.4105
62334SOL    HW194242   3.099  10.948   5.098  0.2933  1.9231  0.0139
62334SOL    HW294243   3.155  10.914   4.962  0.7683  0.7849  0.4759
62335SOL     OW94244  10.422   6.422   5.445 -0.2450 -0.0783 -0.3333
62335SOL    HW194245  10.333   6.390   5.460  0.3103 -1.9614 -0.7245
62335SOL    HW294246  10.430   6.499   5.501 -1.6141 -0.7826  0.9093
62336SOL     OW94247   2.085   8.416   5.200 -0.1173 -0.1434  0.1445
62336SOL    HW194248   2.038   8.417   5.283 -1.7941  1.9162 -0.7601
62336SOL    HW294249   2.041   8.348   5.149  0.8108 -1.2985  0.8253
62337SOL     OW94250  10.050   7.851   0.353  0.2309  0.4829  0.2627
62337SOL    HW194251  10.139   7.817   0.359  0.1427  0.3554  1.0075
62337SOL    HW294252  10.008   7.796   0.287 -0.1463 -1.4469  1.9944
62338SOL     OW94253   9.258   5.362   1.611 -0.0236 -0.0556  0.5706
62338SOL    HW194254   9.199   5.299   1.652 -0.5328  0.4759  0.6742
62338SOL    HW294255   9.200   5.421   1.563  0.5222 -0.3395 -0.4748
62339SOL     OW94256  11.942   7.082   8.465  0.1600  0.4654  0.5533
62339SOL    HW194257  11.892   7.124   8.395  0.2785 -0.7793 -0.3233
62339SOL    HW294258  11.900   7.112   8.546 -0.6895  1.0710 -0.0882
62340SOL     OW94259   9.829   3.685   2.689 -0.4266 -0.4874 -0.7507
62340SOL    HW194260   9.876   3.647   2.764 -1.9299 -0.0568  0.4821
62340SOL    HW294261   9.829   3.779   2.706  0.8641 -0.1669 -2.3284
62341SOL     OW94262  12.630   6.073   6.043  0.4508 -0.2404 -0.0864
62341SOL    HW194263  12.710   6.095   5.995 -0.5725  1.9079 -0.9637
62341SOL    HW294264  12.655   6.077   6.135  1.9217 -2.1884 -0.3563
62342SOL     OW94265   1.804  11.856   9.675  0.5509 -0.2162  0.1880
62342SOL    HW194266   1.759  11.936   9.703  2.5264  0.7746  0.8010
62342SOL    HW294267   1.865  11.886   9.607 -0.6538 -1.7466 -1.6715
62343SOL     OW94268   8.637   5.202   7.898 -0.2240 -0.0271  0.5333
62343SOL    HW194269   8.695   5.277   7.885  0.3035 -0.5195 -0.0193
62343SOL    HW294270   8.687   5.142   7.953 -0.3280 -0.3098  0.3250
62344SOL     OW94271  10.912   0.181  11.678 -0.2261  0.2615 -0.2361
62344SOL    HW194272  10.868   0.219  11.754 -0.6384  2.4047 -1.4524
62344SOL    HW294273  10.926   0.256  11.619  3.2186 -0.6644 -0.7956
62345SOL     OW94274   5.792   9.735   2.281 -0.1438  0.5841 -0.1010
62345SOL    HW194275   5.748   9.725   2.365 -1.2161  1.2593 -0.5637
62345SOL    HW294276   5.884   9.749   2.303 -0.5200  1.4429  0.9871
62346SOL     OW94277  12.415  10.168  10.424 -0.0716 -0.2222  0.5059
62346SOL    HW194278  12.326  10.203  10.427  0.5795  1.7024 -0.7414
62346SOL    HW294279  12.450  10.185  10.511 -0.9666 -1.1472  1.0591
62347SOL     OW94280  11.524   0.467   9.051  0.1425  0.1426 -0.2219
62347SOL    HW194281  11.443   0.429   9.086  0.1645 -0.0553 -0.3820
62347SOL    HW294282  11.512   0.562   9.059 -0.4123  0.1370 -0.9194
62348SOL     OW94283   2.707   8.509   4.103  0.1783 -1.1720  0.0348
62348SOL    HW194284   2.627   8.555   4.081  0.4903 -1.1690 -1.1525
62348SOL    HW294285   2.687   8.464   4.185  0.2915  2.1666  2.0875
62349SOL     OW94286   8.745   5.459  11.057 -0.1443 -0.2471 -0.0869
62349SOL    HW194287   8.745   5.554  11.056 -2.7332 -0.1491  1.1428
62349SOL    HW294288   8.655   5.435  11.033  0.5403 -2.3906 -0.7110
62350SOL     OW94289   0.222   5.667   8.918 -0.1460  0.0145 -0.4669
62350SOL    HW194290   0.137   5.636   8.888 -0.2074  0.0090 -0.2893
62350SOL    HW294291   0.264   5.704   8.840  0.4752 -1.7115 -0.9950
62351SOL     OW94292   0.619   8.725   8.082 -0.4625 -0.3729  0.1327
62351SOL    HW194293   0.657   8.668   8.149  1.9914  0.5554 -0.3587
62351SOL    HW294294   0.526   8.729   8.104  0.2063 -0.1732  3.4192
62352SOL     OW94295   1.718   2.840   6.195  0.3142  0.0707 -0.1760
62352SOL    HW194296   1.662   2.910   6.161 -0.4038 -0.3735  0.0532
62352SOL    HW294297   1.692   2.831   6.286  2.1782  1.2085  0.5276
62353SOL     OW94298   6.308   3.181   4.489 -0.5781 -0.2992 -0.0782
62353SOL    HW194299   6.240   3.197   4.424  0.0052 -0.1357 -0.6641
62353SOL    HW294300   6.379   3.139   4.439  0.0531  0.2281  0.3615
62354SOL     OW94301  11.013   4.925  10.797  0.1685  0.0165  0.0455
62354SOL    HW194302  11.060   4.868  10.737  0.3751  0.4545 -0.2068
62354SOL    HW294303  10.978   4.866  10.864 -0.0846 -0.4763 -0.5168
62355SOL     OW94304   8.306   2.190  10.897 -0.1790 -0.0883 -0.2676
62355SOL    HW194305   8.345   2.272  10.928  0.1003  0.3959 -1.8041
62355SOL    HW294306   8.337   2.124  10.958 -1.6530  1.1382  1.9260
62356SOL     OW94307   2.159   9.730   9.243 -0.1617  0.4674 -0.4226
62356SOL    HW194308   2.221   9.658   9.234  0.0988  0.7254 -0.7062
62356SOL    HW294309   2.214   9.808   9.252 -0.3856  0.4723  1.5249
62357SOL     OW94310   7.229  10.154  10.984 -0.2428 -0.2182  0.2488
62357SOL    HW194311   7.136  10.149  10.962 -0.3720  0.4187  0.6367
62357SOL    HW294312   7.249  10.247  10.988  0.6069 -0.3447 -0.5829
62358SOL     OW94313   4.792   0.113   8.988  0.0620 -0.1653  0.4796
62358SOL    HW194314   4.749   0.061   8.921 -2.0913  0.9288  0.9334
62358SOL    HW294315   4.732   0.110   9.063 -0.1683  2.8845  0.5431
62359SOL     OW94316   0.491   7.837   7.498  0.1395 -0.0049 -0.1312
62359SOL    HW194317   0.522   7.919   7.537 -0.1338 -0.5120  1.1987
62359SOL    HW294318   0.556   7.816   7.431 -0.3558  1.8432 -1.2620
62360SOL     OW94319   8.932   3.584   6.639 -0.3774  0.0279 -0.3312
62360SOL    HW194320   8.944   3.508   6.582 -0.5499  0.3797 -0.8441
62360SOL    HW294321   8.960   3.658   6.586  0.3652  0.2690  0.3681
62361SOL     OW94322   5.624   2.753   4.972 -0.2237 -0.2271  0.1020
62361SOL    HW194323   5.691   2.793   5.028  1.0065 -0.5079 -1.1291
62361SOL    HW294324   5.635   2.796   4.888  0.0592 -1.9852 -0.8073
62362SOL     OW94325   7.417   7.237   5.091 -0.0623  0.0741 -0.1668
62362SOL    HW194326   7.485   7.238   5.024  0.1846  0.2361  0.0876
62362SOL    HW294327   7.335   7.247   5.041  0.1005 -0.0663 -0.4655
62363SOL     OW94328  11.818   6.905   3.765 -0.2476 -0.0841  0.1495
62363SOL    HW194329  11.806   6.864   3.851  0.7800  1.0216  0.8632
62363SOL    HW294330  11.879   6.849   3.719 -0.2589 -0.3161  0.4160
62364SOL     OW94331   8.806   4.928   7.138  0.3426  0.0111 -0.4234
62364SOL    HW194332   8.828   4.928   7.045 -0.9568 -2.3040 -0.8108
62364SOL    HW294333   8.712   4.947   7.140  0.1857 -0.7928  0.3362
62365SOL     OW94334   6.554   6.525   3.982 -0.1204 -0.7040 -0.4377
62365SOL    HW194335   6.533   6.618   3.993 -1.4252 -0.8968 -1.0806
62365SOL    HW294336   6.471   6.480   3.997  0.1124 -1.6299 -1.7554
62366SOL     OW94337   5.888   1.854   2.192  0.7352 -0.0506  0.5138
62366SOL    HW194338   5.856   1.930   2.240  1.3962  0.1380  0.6610
62366SOL    HW294339   5.879   1.781   2.255  2.6562  0.3849  1.3790
62367SOL     OW94340   3.824   7.843   1.618 -0.6132  0.4739 -0.1961
62367SOL    HW194341   3.749   7.799   1.659 -0.4622 -0.5142 -0.9472
62367SOL    HW294342   3.871   7.773   1.572 -0.5716  1.4706 -1.7426
62368SOL     OW94343  11.306   2.048   1.971  0.0421 -0.2157 -0.0833
62368SOL    HW194344  11.219   2.071   2.003  0.5537  0.5250  0.8295
62368SOL    HW294345  11.290   1.983   1.903 -1.1265 -1.6860  1.5149
62369SOL     OW94346  11.287   5.248  12.259 -0.2700 -0.0391 -0.2671
62369SOL    HW194347  11.223   5.210  12.198 -0.7825  0.9712 -0.3810
62369SOL    HW294348  11.351   5.179  12.272 -1.0449 -0.8583 -0.6557
62370SOL     OW94349   7.374   2.764   5.930 -0.0412 -0.6093 -0.0647
62370SOL    HW194350   7.336   2.778   6.016  0.2993 -1.4558  0.2375
62370SOL    HW294351   7.358   2.671   5.911 -1.0815 -0.1894 -1.3962
62371SOL     OW94352   9.964   8.778   7.443 -0.3809 -0.1817 -0.0673
62371SOL    HW194353  10.002   8.840   7.506 -1.9767  0.2556  0.5347
62371SOL    HW294354  10.034   8.761   7.380  1.0754 -0.1658  1.4872
62372SOL     OW94355   3.682   6.378   3.834 -0.0971  0.3906  0.4180
62372SOL    HW194356   3.715   6.385   3.745 -1.9093  0.8007 -0.2526
62372SOL    HW294357   3.744   6.429   3.886  2.4978 -1.9598 -0.0975
62373SOL     OW94358   7.952   2.619   8.832  0.3936 -0.0586  0.1245
62373SOL    HW194359   7.895   2.544   8.816 -0.0978  0.3032  0.1736
62373SOL    HW294360   7.898   2.696   8.814  0.9444  0.2854 -0.0964
62374SOL     OW94361   8.829   1.970   7.054  0.2525  0.0894  0.0698
62374SOL    HW194362   8.797   1.892   7.009  1.3075  0.4728 -1.3972
62374SOL    HW294363   8.792   1.963   7.143 -0.7503 -1.3785 -0.4267
62375SOL     OW94364  10.840  11.150   4.283 -0.0799  0.8774 -0.1363
62375SOL    HW194365  10.857  11.060   4.309  0.6991  1.7222  2.5862
62375SOL    HW294366  10.757  11.146   4.236  0.8014 -1.4450 -1.6975
62376SOL     OW94367   3.928   7.421   4.496 -0.1494 -0.0003 -0.2300
62376SOL    HW194368   3.988   7.371   4.550 -0.9518 -1.1330 -0.3504
62376SOL    HW294369   3.965   7.509   4.494  1.3052 -0.5776 -0.0235
62377SOL     OW94370   1.300   7.799   5.454  0.4187 -0.6374  0.7184
62377SOL    HW194371   1.266   7.784   5.366  1.0962 -2.5897  0.7519
62377SOL    HW294372   1.234   7.856   5.495 -0.5902 -0.8031 -0.5926
62378SOL     OW94373   7.770   2.189   6.482 -0.5382  0.0430 -0.0750
62378SOL    HW194374   7.846   2.141   6.515  1.4164  2.3892 -0.8269
62378SOL    HW294375   7.782   2.191   6.387 -0.7182  1.6390 -0.0938
62379SOL     OW94376   9.099  10.356   1.905 -0.1700 -0.3811  0.2675
62379SOL    HW194377   9.134  10.387   1.989  1.2935 -0.5775 -0.2270
62379SOL    HW294378   9.107  10.431   1.846  0.9597 -0.8871 -0.2626
62380SOL     OW94379   9.542   4.384   5.638 -0.1749 -0.2380 -0.1705
62380SOL    HW194380   9.499   4.390   5.723 -0.4544  0.5091 -0.3506
62380SOL    HW294381   9.549   4.475   5.609  3.1410 -0.1271  0.6094
62381SOL     OW94382   6.498   5.439   0.855 -0.1592 -0.1970 -0.0517
62381SOL    HW194383   6.555   5.490   0.913  0.3603  0.8326 -1.3914
62381SOL    HW294384   6.410   5.470   0.875 -0.2428 -1.5161  1.7628
62382SOL     OW94385   8.973   9.022   7.052 -0.2447  1.4669  0.3341
62382SOL    HW194386   8.944   9.005   6.962  0.1017  1.0352  0.2944
62382SOL    HW294387   9.053   9.074   7.041  0.9697 -0.2905  0.2861
62383SOL     OW94388   3.987   8.538   1.348 -0.3877  0.5630 -0.5478
62383SOL    HW194389   4.001   8.508   1.258 -1.0435 -0.5890 -0.2873
62383SOL    HW294390   3.901   8.581   1.346 -0.4504  0.4430 -0.4554
62384SOL     OW94391   8.559   4.705  10.749  0.2855  0.1818  0.6154
62384SOL    HW194392   8.633   4.645  10.739  0.8127  0.9370 -0.1951
62384SOL    HW294393   8.599   4.785  10.784  0.1804  1.2061 -1.4460
62385SOL     OW94394   6.289   4.116   2.710 -0.3825  0.3646  0.4473
62385SOL    HW194395   6.286   4.150   2.620 -2.4416 -1.2451 -0.1813
62385SOL    HW294396   6.343   4.037   2.704 -1.3321 -0.2897  0.3982
62386SOL     OW94397   7.230   6.716   0.292 -0.0722  0.1424  0.3903
62386SOL    HW194398   7.186   6.634   0.272  0.3890 -0.2407  0.9001
62386SOL    HW294399   7.316   6.707   0.252  0.1859  0.1333  0.9404
62387SOL     OW94400   5.235  10.825   5.800 -0.0694  0.4124 -0.4772
62387SOL    HW194401   5.246  10.919   5.784 -0.6319  0.5218 -0.2517
62387SOL    HW294402   5.150  10.818   5.843  0.0835 -0.1763 -0.2577
62388SOL     OW94403  11.103   8.274  11.642 -0.0109 -0.0273 -0.0342
62388SOL    HW194404  11.154   8.334  11.697  1.0908  1.9711 -2.9803
62388SOL    HW294405  11.149   8.190  11.649  0.7228  0.4493  1.1976
62389SOL     OW94406   8.538   0.489   1.894  0.7114  0.4072  0.5164
62389SOL    HW194407   8.599   0.424   1.857  1.6148  1.5536 -0.0755
62389SOL    HW294408   8.589   0.534   1.961 -0.4043 -0.5053  2.0577
62390SOL     OW94409   0.776   5.302   7.905  0.3152 -0.1109 -0.0419
62390SOL    HW194410   0.805   5.215   7.930  2.3485  0.1630 -1.1537
62390SOL    HW294411   0.729   5.289   7.823  0.0433 -0.2254  0.1315
62391SOL     OW94412  12.125   4.900   2.074 -0.0402 -0.1883  0.2987
62391SOL    HW194413  12.094   4.922   2.162  0.2539 -1.7490  0.8171
62391SOL    HW294414  12.220   4.906   2.080  0.0040 -0.7732  0.2263
62392SOL     OW94415  11.028   1.770   8.787 -0.0649 -0.4293  0.1695
62392SOL    HW194416  11.079   1.762   8.868  2.2611  3.3454 -0.6503
62392SOL    HW294417  10.977   1.850   8.798  0.7404  0.5263 -2.1472
62393SOL     OW94418   9.452   2.559   5.077 -0.7535 -0.1789  0.3110
62393SOL    HW194419   9.389   2.590   5.012 -0.9595  1.2362  1.1404
62393SOL    HW294420   9.531   2.538   5.028 -0.8984  0.8878 -0.3978
62394SOL     OW94421   7.057   8.165   2.822 -0.0842  0.0907 -0.0946
62394SOL    HW194422   6.980   8.120   2.858 -0.4961  0.1579 -0.8854
62394SOL    HW294423   7.068   8.128   2.735  0.5384  0.3820 -0.1412
62395SOL     OW94424   7.254   8.224   5.252 -0.3702  0.1088 -0.1775
62395SOL    HW194425   7.203   8.302   5.274  0.9006  0.3249  2.4546
62395SOL    HW294426   7.330   8.257   5.205 -0.8847  0.1849 -0.9717
62396SOL     OW94427  12.464  10.122   4.192 -0.1223  0.1284 -0.0698
62396SOL    HW194428  12.407  10.106   4.118 -0.5155 -2.4591  0.6699
62396SOL    HW294429  12.425  10.196   4.238 -0.1287  1.4598 -2.1224
62397SOL     OW94430   7.105   8.357   1.129 -0.0405  0.5038 -0.0179
62397SOL    HW194431   7.059   8.369   1.212  0.2916  1.9801 -0.0194
62397SOL    HW294432   7.070   8.275   1.094 -1.8563  1.0235  0.4899
62398SOL     OW94433   2.587   9.842   6.589  0.2190  0.1031  0.5565
62398SOL    HW194434   2.594   9.765   6.644 -0.7678 -2.7561 -2.9606
62398SOL    HW294435   2.494   9.852   6.572  0.5008  0.6519 -0.8208
62399SOL     OW94436   1.720   0.462   1.878  0.1907  0.3905 -0.0270
62399SOL    HW194437   1.695   0.395   1.815  0.3542 -0.7271  1.0682
62399SOL    HW294438   1.779   0.417   1.939 -0.0768  1.4078  1.0133
62400SOL     OW94439   7.703   4.796   2.332  0.6054 -0.4387  0.8405
62400SOL    HW194440   7.708   4.716   2.280 -0.3681  0.7508 -1.2023
62400SOL    HW294441   7.723   4.768   2.421 -2.6602 -3.5356  0.8012
62401SOL     OW94442   1.198  10.215   9.512  0.0796  0.3757  0.1127
62401SOL    HW194443   1.234  10.164   9.439 -2.5771  0.0868 -1.1153
62401SOL    HW294444   1.131  10.271   9.472 -2.4331 -0.7188  2.4298
62402SOL     OW94445   3.035   2.970   2.298 -0.1567 -0.3930 -0.4130
62402SOL    HW194446   2.975   3.033   2.260 -1.1594 -2.5880 -2.7827
62402SOL    HW294447   3.106   2.962   2.234 -0.1900 -1.8273 -0.3075
62403SOL     OW94448   6.191  10.638   4.788 -0.4324 -0.2286 -0.7767
62403SOL    HW194449   6.239  10.721   4.789 -3.8854  1.9752 -1.6238
62403SOL    HW294450   6.211  10.599   4.703  0.4342  0.2246 -0.7829
62404SOL     OW94451   4.430   5.367  12.645  0.4672  0.1517  1.1513
62404SOL    HW194452   4.518   5.342  12.616  0.1850 -0.2250  0.6050
62404SOL    HW294453   4.371   5.313  12.593 -0.0531 -1.5572  3.3420
62405SOL     OW94454  12.632   1.409   2.784  0.1741  0.0687 -0.1048
62405SOL    HW194455  12.564   1.343   2.793 -0.3263  0.5466 -0.3531
62405SOL    HW294456  12.676   1.388   2.702  2.4492 -2.1751  1.5306
62406SOL     OW94457  12.674   7.471  10.904  0.1769  0.2762  0.7971
62406SOL    HW194458  12.639   7.504  10.987  0.4646  0.1816  0.9542
62406SOL    HW294459  12.722   7.545  10.868  1.6618 -0.2483  1.6160
62407SOL     OW94460   8.535  10.302   5.561  0.3083  0.6050  0.3835
62407SOL    HW194461   8.475  10.236   5.597  0.2648 -0.1666 -1.0526
62407SOL    HW294462   8.536  10.285   5.467  2.8266  0.5834  0.3557
62408SOL     OW94463   9.099   1.931   8.321 -0.1219 -0.1115 -0.0669
62408SOL    HW194464   9.090   1.993   8.248 -0.5392 -0.9239 -0.7173
62408SOL    HW294465   9.128   1.985   8.394 -1.4204  1.0506 -0.3586
62409SOL     OW94466   1.152   4.382   1.141  0.6979 -0.0167 -0.1794
62409SOL    HW194467   1.139   4.378   1.046  2.5840 -0.3302 -0.4566
62409SOL    HW294468   1.106   4.305   1.174 -3.2133  2.0130 -0.3342
62410SOL     OW94469  10.320   3.841   9.187 -0.2633 -0.3929 -0.1511
62410SOL    HW194470  10.338   3.876   9.275  0.8064 -0.2822 -0.4097
62410SOL    HW294471  10.249   3.778   9.201 -0.2925 -0.1748  0.7500
62411SOL     OW94472   0.115   1.975   3.644  0.2678  0.0155 -0.2298
62411SOL    HW194473   0.162   2.057   3.658  0.9789 -0.7888  2.8160
62411SOL    HW294474   0.035   1.983   3.695  0.6196 -1.3446  0.6015
62412SOL     OW94475   3.847   3.378  12.508  0.3993 -0.0931 -0.3272
62412SOL    HW194476   3.852   3.283  12.519  1.8329 -0.1943 -1.5262
62412SOL    HW294477   3.939   3.406  12.508 -0.0023  1.2883 -0.0680
62413SOL     OW94478   8.131   6.960   5.038 -0.2406 -0.0559 -0.3883
62413SOL    HW194479   8.091   7.028   5.092 -1.4917 -1.1688  0.1336
62413SOL    HW294480   8.109   6.985   4.948  1.8347  1.7898 -0.4654
62414SOL     OW94481   0.479  11.284  10.213  0.2303  0.1564 -0.3101
62414SOL    HW194482   0.431  11.201  10.212 -1.7367  1.2267 -0.0979
62414SOL    HW294483   0.489  11.305  10.306  1.6116 -0.2848 -0.3312
62415SOL     OW94484   4.476   3.836   1.502 -0.1511  0.1448 -0.2770
62415SOL    HW194485   4.558   3.847   1.453  0.3112 -0.3411  0.3804
62415SOL    HW294486   4.432   3.764   1.458  0.3360 -0.3957  0.1080
62416SOL     OW94487   1.914   0.513   0.140  0.3712 -0.6925 -0.4686
62416SOL    HW194488   1.871   0.598   0.145 -1.9124 -1.7074 -1.2834
62416SOL    HW294489   1.966   0.516   0.059  0.6658  0.0568 -0.2546
62417SOL     OW94490   1.288   7.594  10.884 -0.5171  0.6810 -0.9355
62417SOL    HW194491   1.379   7.622  10.892 -1.1223  3.1415 -1.8662
62417SOL    HW294492   1.260   7.578  10.974  0.8647 -0.3656 -0.6603
62418SOL     OW94493   4.362   0.635  12.482 -0.2535  0.2786  0.0885
62418SOL    HW194494   4.277   0.594  12.498  0.1312 -0.6315 -0.1197
62418SOL    HW294495   4.353   0.724  12.517 -1.0202 -0.0683  0.8106
62419SOL     OW94496   6.447   9.755   1.778 -0.2146 -0.0865  0.8080
62419SOL    HW194497   6.400   9.756   1.861 -0.0642  0.4649  0.8960
62419SOL    HW294498   6.480   9.666   1.769 -3.1311 -1.1522 -0.3332
62420SOL     OW94499  12.413   2.647   6.018 -0.4813  0.2952 -0.1921
62420SOL    HW194500  12.452   2.672   5.934 -0.4045 -0.1900 -0.3001
62420SOL    HW294501  12.486   2.647   6.080 -0.4440  0.1295 -0.2364
62421SOL     OW94502   1.338   9.974   8.031 -0.1541 -0.1864  0.3476
62421SOL    HW194503   1.308  10.027   7.957 -1.1797 -0.4407  0.5520
62421SOL    HW294504   1.389  10.034   8.085  0.6155 -0.0030 -0.5637
62422SOL     OW94505   9.688   8.170   3.104 -0.2334  0.3151  0.2630
62422SOL    HW194506   9.617   8.146   3.044  1.0036 -0.4787 -0.9368
62422SOL    HW294507   9.758   8.202   3.047  0.4241  1.0047  1.4201
62423SOL     OW94508  11.951  11.586   5.830  0.1341  0.1009 -0.1227
62423SOL    HW194509  11.983  11.540   5.907  0.4720 -1.1683 -0.9771
62423SOL    HW294510  11.900  11.520   5.782  1.9839  0.0694 -2.2279
62424SOL     OW94511   2.360   1.340   3.032 -0.0437 -0.3517 -0.3990
62424SOL    HW194512   2.298   1.410   3.011  0.1259 -0.1252 -0.1590
62424SOL    HW294513   2.306   1.270   3.067 -0.1288 -0.0060  0.1737
62425SOL     OW94514   5.977   4.546   6.230 -0.1601 -0.6626  0.2766
62425SOL    HW194515   5.965   4.596   6.310  0.0535 -1.1235  0.5958
62425SOL    HW294516   5.888   4.525   6.201 -0.3275  0.9788 -0.5603
62426SOL     OW94517   9.224   3.925   3.566 -0.1442 -0.1438 -0.7232
62426SOL    HW194518   9.163   3.877   3.510 -1.0727 -2.1444  1.7812
62426SOL    HW294519   9.277   3.856   3.607  1.0301  1.2757  0.2366
62427SOL     OW94520   1.572   1.042   8.054  0.1995  0.4391 -0.4111
62427SOL    HW194521   1.544   1.117   8.106 -1.9812  0.1355 -1.0375
62427SOL    HW294522   1.502   1.030   7.990 -0.7284 -3.4918  1.0859
62428SOL     OW94523   9.295   2.917   3.679 -0.8163  0.0879 -0.0987
62428SOL    HW194524   9.283   3.008   3.707 -3.8596 -0.3325  0.2605
62428SOL    HW294525   9.326   2.923   3.589  0.2912  1.4590  0.3472
62429SOL     OW94526   4.899   0.541   8.174 -0.0842  0.2531 -0.1913
62429SOL    HW194527   4.894   0.525   8.269 -0.9770  0.7540 -0.1400
62429SOL    HW294528   4.948   0.622   8.166  2.4330 -1.1725 -0.3336
62430SOL     OW94529   3.338   7.939   4.870  0.0971  0.0171 -0.2905
62430SOL    HW194530   3.334   7.959   4.777 -1.8672  0.2119 -0.2080
62430SOL    HW294531   3.277   7.866   4.882  0.4264 -0.1065  0.8302
62431SOL     OW94532   9.680   4.200   2.172 -0.2934  0.0920 -0.2205
62431SOL    HW194533   9.616   4.164   2.232  0.0499 -0.1708 -0.0122
62431SOL    HW294534   9.629   4.229   2.096 -0.7697  0.7488  0.3382
62432SOL     OW94535   0.045   6.276   1.853 -0.5465 -0.5445 -0.1715
62432SOL    HW194536   0.108   6.207   1.874  1.7710  1.7359  0.9051
62432SOL    HW294537   0.048   6.283   1.757  2.4863  0.8481 -0.0667
62433SOL     OW94538   9.880   7.521   2.340  0.2675  0.2457  0.0342
62433SOL    HW194539   9.857   7.484   2.425  0.5391  0.9458  0.4213
62433SOL    HW294540   9.816   7.591   2.325  0.3866  0.3057 -0.2114
62434SOL     OW94541   5.526  10.200  10.270  0.0470 -0.2315 -0.5206
62434SOL    HW194542   5.552  10.253  10.195  1.1583 -0.0164 -0.0044
62434SOL    HW294543   5.514  10.263  10.341  2.1047 -0.6814  0.2943
62435SOL     OW94544   4.624   0.029   4.074  0.1951 -0.3607 -0.2221
62435SOL    HW194545   4.584  -0.035   4.016  1.8650 -1.4427 -0.2584
62435SOL    HW294546   4.669   0.091   4.015 -0.8589  0.4855 -0.1640
62436SOL     OW94547   5.929  12.655   7.473  0.3714  0.2860  0.6930
62436SOL    HW194548   5.857  12.687   7.419 -0.5254 -1.2836  0.8755
62436SOL    HW294549   5.903  12.674   7.563 -0.3632 -1.1740  0.8337
62437SOL     OW94550   0.844   9.306   5.206 -0.2481 -0.3803  0.8078
62437SOL    HW194551   0.917   9.338   5.153 -0.1731 -1.6125  0.1325
62437SOL    HW294552   0.842   9.364   5.282  0.9983  0.0877  0.5044
62438SOL     OW94553  11.493   9.081   9.439  0.0593 -0.1499 -0.4851
62438SOL    HW194554  11.582   9.106   9.462  0.8247 -0.0718 -3.1341
62438SOL    HW294555  11.466   9.146   9.374 -1.4396 -0.9228 -0.6956
62439SOL     OW94556   1.257   5.922   1.621 -0.3356  0.2752  0.6958
62439SOL    HW194557   1.276   6.005   1.578  1.0804 -0.8093 -0.8888
62439SOL    HW294558   1.339   5.898   1.664 -0.1629 -1.1449 -0.3789
62440SOL     OW94559  11.469   7.692  10.129 -0.8007 -0.3332  0.2496
62440SOL    HW194560  11.410   7.635  10.179 -2.0324  0.1977 -0.5452
62440SOL    HW294561  11.457   7.666  10.038  0.0910 -0.1068  0.0547
62441SOL     OW94562   9.616   4.704  10.093  0.6169  0.2068  0.0861
62441SOL    HW194563   9.699   4.659  10.084 -0.2977 -1.3378 -1.1367
62441SOL    HW294564   9.609   4.723  10.187  1.7512 -0.7820  0.3845
62442SOL     OW94565   2.892   7.699  10.377 -0.4861 -0.1791  0.4111
62442SOL    HW194566   2.812   7.739  10.413 -1.0650  0.5343 -1.5378
62442SOL    HW294567   2.938   7.771  10.335  0.1849 -0.9509 -0.2046
62443SOL     OW94568   2.061  11.536   3.887 -0.4803 -0.0570 -0.1718
62443SOL    HW194569   2.006  11.566   3.815  0.1520 -2.4149 -1.7456
62443SOL    HW294570   2.140  11.589   3.881  0.4177 -1.4931 -2.5883
62444SOL     OW94571  10.591   6.425   6.073 -0.4065  0.0496  0.2512
62444SOL    HW194572  10.574   6.342   6.118  0.5579 -0.6023 -0.5428
62444SOL    HW294573  10.612   6.399   5.983  1.3607  1.0193  0.3484
62445SOL     OW94574   8.778   7.937  10.589  0.5333  0.1008 -0.3757
62445SOL    HW194575   8.865   7.935  10.629 -0.1434 -1.4318  1.1141
62445SOL    HW294576   8.746   8.026  10.605  1.4620  0.4243 -0.2129
62446SOL     OW94577  10.534   4.564   7.729 -0.9802  0.4988 -0.0054
62446SOL    HW194578  10.626   4.573   7.753 -0.6364  0.8765 -1.3901
62446SOL    HW294579  10.490   4.543   7.811  0.3498  0.2154  0.6631
62447SOL     OW94580   2.147   2.703   2.137 -0.4863 -0.0723  0.3043
62447SOL    HW194581   2.067   2.660   2.166 -0.1389 -1.1984 -0.3056
62447SOL    HW294582   2.185   2.741   2.216 -0.2289 -1.9136  1.1092
62448SOL     OW94583  11.264   2.925   7.484  0.9994 -0.0213 -0.3241
62448SOL    HW194584  11.226   2.991   7.542  1.9757 -0.4431  0.8244
62448SOL    HW294585  11.348   2.962   7.457  0.8669 -0.1421 -0.9206
62449SOL     OW94586   4.742   7.457   2.681 -0.2620  0.1429  0.1166
62449SOL    HW194587   4.699   7.513   2.745  2.7990  1.6032  1.1217
62449SOL    HW294588   4.695   7.374   2.685 -2.4687  1.3667  1.5207
62450SOL     OW94589   8.511   5.877   1.718  0.3214  0.0520 -0.0722
62450SOL    HW194590   8.465   5.818   1.778  0.7746  1.0484  1.3325
62450SOL    HW294591   8.567   5.929   1.776  0.4384  1.3716 -1.3313
62451SOL     OW94592   3.926  12.347  10.937  0.3949 -0.1384  0.3246
62451SOL    HW194593   3.904  12.255  10.954  1.2270 -0.1046  1.7007
62451SOL    HW294594   4.020  12.347  10.922  0.5409  0.6065  1.2018
62452SOL     OW94595   1.386  10.777  10.454 -0.4317  0.3911 -0.1016
62452SOL    HW194596   1.325  10.774  10.527 -1.6411  0.0961 -1.0971
62452SOL    HW294597   1.335  10.812  10.381  0.7016  0.5269 -0.8524
62453SOL     OW94598   8.576   9.892   2.305 -0.5277  0.1116  0.1676
62453SOL    HW194599   8.597   9.985   2.298 -1.9372  0.3713 -1.0174
62453SOL    HW294600   8.516   9.886   2.379  1.3659 -0.2471  1.7773
62454SOL     OW94601   8.074   6.906   9.559 -0.3422  0.2227  0.4789
62454SOL    HW194602   8.103   6.933   9.471  1.8909 -1.3059  0.6865
62454SOL    HW294603   8.039   6.986   9.598  0.0084  1.2727 -1.2601
62455SOL     OW94604   0.254   5.150   7.055  0.1221 -0.2291  0.0262
62455SOL    HW194605   0.343   5.182   7.045 -0.6947  2.4807  0.6577
62455SOL    HW294606   0.259   5.086   7.126  1.2538  1.5747  1.6722
62456SOL     OW94607  12.000   9.126   5.202 -0.4869 -0.1899 -0.6041
62456SOL    HW194608  12.014   9.218   5.180 -0.1659  0.0779  0.6459
62456SOL    HW294609  12.083   9.083   5.178 -0.5737 -0.1301 -1.0229
62457SOL     OW94610  10.543   3.633   3.368  0.0884 -0.3525 -0.0736
62457SOL    HW194611  10.555   3.671   3.281  0.4185 -3.0318 -1.3006
62457SOL    HW294612  10.452   3.603   3.369  0.7756 -2.6867 -0.6078
62458SOL     OW94613   8.254   2.243   0.932 -0.0824 -0.0977  0.1521
62458SOL    HW194614   8.310   2.235   0.856 -2.4796  1.3360 -1.9321
62458SOL    HW294615   8.246   2.154   0.966  1.5748 -0.6672 -0.8520
62459SOL     OW94616   2.424  11.666  11.676  0.3052  0.1338 -0.3145
62459SOL    HW194617   2.516  11.672  11.703 -0.0220 -1.0029  1.1893
62459SOL    HW294618   2.411  11.574  11.653 -1.1816 -0.4777  2.5298
62460SOL     OW94619   7.858   1.753   2.641  0.2758  0.1641 -0.7257
62460SOL    HW194620   7.771   1.786   2.619 -0.2861 -0.9761 -0.3220
62460SOL    HW294621   7.842   1.666   2.677  1.2338  1.2649  2.7732
62461SOL     OW94622  12.434  12.010  11.129  0.3604 -0.2564  0.3564
62461SOL    HW194623  12.453  11.944  11.063 -0.7987 -0.0655 -0.1975
62461SOL    HW294624  12.344  11.993  11.155  0.1189  0.9493  0.3771
62462SOL     OW94625   0.619   0.391   9.264  0.5216 -0.5392  0.3048
62462SOL    HW194626   0.664   0.474   9.278  0.2892 -0.5669  1.3479
62462SOL    HW294627   0.658   0.331   9.327  1.4931 -1.5807 -1.2148
62463SOL     OW94628  10.326   6.012   8.677 -0.0925 -0.6732 -0.0614
62463SOL    HW194629  10.277   5.958   8.740  0.6847 -0.4260  0.7724
62463SOL    HW294630  10.371   6.077   8.731 -2.4657  2.0750 -1.1508
62464SOL     OW94631  10.328   2.845   2.456 -0.2294  0.4512  0.0818
62464SOL    HW194632  10.265   2.883   2.518 -0.9109 -0.8741  0.2334
62464SOL    HW294633  10.375   2.779   2.508 -2.2684 -2.2276 -1.2482
62465SOL     OW94634   4.879   5.800   5.150 -0.3275 -0.5087 -0.4313
62465SOL    HW194635   4.960   5.847   5.168 -0.2167 -0.1148 -1.8884
62465SOL    HW294636   4.901   5.738   5.081 -1.1970 -0.6031 -0.6359
62466SOL     OW94637   9.234  12.217  11.303 -0.1297 -0.3129 -0.0597
62466SOL    HW194638   9.199  12.191  11.388  1.0530  1.0039  0.8706
62466SOL    HW294639   9.158  12.249  11.254 -0.8478 -1.2589  0.4009
62467SOL     OW94640   6.641   9.559   5.426 -0.1788 -0.2454  0.8155
62467SOL    HW194641   6.656   9.492   5.493 -0.9231  0.2884  1.5399
62467SOL    HW294642   6.589   9.515   5.359 -0.0666 -0.5816  0.9464
62468SOL     OW94643   8.302   9.123   4.157 -0.1278 -0.0205 -0.1747
62468SOL    HW194644   8.338   9.112   4.069  1.2279  1.0631  0.2136
62468SOL    HW294645   8.345   9.056   4.210 -0.3292 -0.1365 -0.1550
62469SOL     OW94646   2.053   5.635  11.529  0.2319  0.1161  0.1213
62469SOL    HW194647   1.960   5.643  11.553  0.6796  0.6677  1.8765
62469SOL    HW294648   2.060   5.549  11.487 -0.6446 -1.2075  2.4582
62470SOL     OW94649  10.797  11.216  11.305 -0.1017 -0.2537  0.1359
62470SOL    HW194650  10.857  11.163  11.253 -0.8207 -1.0657  0.1136
62470SOL    HW294651  10.739  11.153  11.348 -0.9101  0.4977  0.1943
62471SOL     OW94652   7.519   7.447   2.352 -0.3996  0.3017  0.2899
62471SOL    HW194653   7.514   7.413   2.262  3.4943  2.5268 -0.9974
62471SOL    HW294654   7.595   7.403   2.390 -0.7896  0.8891  1.7978
62472SOL     OW94655  11.424  12.001   0.031 -0.3984 -0.1195  0.1053
62472SOL    HW194656  11.391  12.047  -0.046  0.3222  3.5505  1.7526
62472SOL    HW294657  11.346  11.961   0.070 -1.0374 -0.5957 -1.5691
62473SOL     OW94658   4.911   7.044   4.481  0.2004  0.0109  0.1327
62473SOL    HW194659   4.879   7.094   4.556  0.1505 -0.9623  0.7873
62473SOL    HW294660   4.976   7.100   4.441  0.8047  0.2548  1.3863
62474SOL     OW94661   8.565  11.263   7.722  0.1099  0.5043  0.1083
62474SOL    HW194662   8.622  11.189   7.707 -0.8562  0.0212 -1.4646
62474SOL    HW294663   8.624  11.339   7.727  0.9651 -0.1305 -0.1900
62475SOL     OW94664   8.160  12.541   6.892  0.3350 -0.2752 -0.0089
62475SOL    HW194665   8.163  12.561   6.985 -3.0542 -0.4012  0.2465
62475SOL    HW294666   8.150  12.626   6.849 -0.7349 -0.3784  0.0026
62476SOL     OW94667   1.534   3.844   3.762  0.3757 -0.1030  0.3224
62476SOL    HW194668   1.477   3.920   3.751 -0.9532 -1.1789 -0.5122
62476SOL    HW294669   1.495   3.795   3.835  0.3909 -0.6929 -0.0567
62477SOL     OW94670   0.212   0.631   1.050 -0.0582 -0.3657 -0.1660
62477SOL    HW194671   0.126   0.609   1.085 -0.4787 -0.8634 -1.4397
62477SOL    HW294672   0.197   0.704   0.990  0.3705 -0.5757 -0.5407
62478SOL     OW94673  11.863   3.736   2.839 -0.2263  0.0116 -0.5974
62478SOL    HW194674  11.837   3.764   2.926  0.5276 -2.6306  0.5571
62478SOL    HW294675  11.784   3.698   2.801  0.0346 -1.0929 -0.0654
62479SOL     OW94676   6.565   2.347   2.761 -0.5617 -0.1908 -0.0730
62479SOL    HW194677   6.509   2.387   2.695 -0.6562 -0.9878 -0.4851
62479SOL    HW294678   6.649   2.392   2.751 -0.2658 -0.9846 -1.4463
62480SOL     OW94679   3.960   9.316   8.223 -0.1806  0.3685 -0.1416
62480SOL    HW194680   4.052   9.328   8.200 -0.3197  2.1996  0.1536
62480SOL    HW294681   3.912   9.327   8.141 -0.1607 -0.6941 -0.3161
62481SOL     OW94682   9.224  10.853  10.585 -0.0014 -0.0271 -0.4699
62481SOL    HW194683   9.311  10.892  10.586 -0.5342  1.2396 -0.5205
62481SOL    HW294684   9.197  10.852  10.677 -0.3598  0.6422 -0.5582
62482SOL     OW94685  10.411  11.975   3.926  0.3800 -0.2538  0.2800
62482SOL    HW194686  10.318  11.954   3.934  0.2947  0.1680  0.4236
62482SOL    HW294687  10.419  12.062   3.963  0.3683  0.8193 -2.0693
62483SOL     OW94688   9.622   5.733   5.044  0.5434  0.0663  0.0325
62483SOL    HW194689   9.594   5.799   5.108 -1.9212  0.7459 -1.6295
62483SOL    HW294690   9.629   5.781   4.962  2.4752 -1.0407 -0.5218
62484SOL     OW94691   2.926   0.485  10.854 -0.2859 -0.4324  0.4716
62484SOL    HW194692   2.861   0.451  10.916 -0.1166  0.3960  1.1166
62484SOL    HW294693   3.010   0.468  10.897 -0.1565 -0.0507  0.3693
62485SOL     OW94694   1.198   2.937  11.936  0.0947 -0.3044 -0.3100
62485SOL    HW194695   1.286   2.945  11.899 -0.7032  2.5488 -1.9104
62485SOL    HW294696   1.156   2.870  11.883  1.2925 -1.8042  0.5660
62486SOL     OW94697   8.733   5.520   5.835 -0.0016  0.0315 -0.5079
62486SOL    HW194698   8.817   5.562   5.854 -1.5339  3.2831 -0.2798
62486SOL    HW294699   8.724   5.526   5.740 -0.8535  1.6801 -0.3550
62487SOL     OW94700  10.334   9.210   0.809  0.5571 -0.6750  0.0664
62487SOL    HW194701  10.364   9.255   0.888  1.3110 -1.5518  0.2983
62487SOL    HW294702  10.396   9.238   0.741 -0.5394  0.6729 -0.4175
62488SOL     OW94703   8.753   5.251   2.101 -0.3249 -0.1041 -0.6342
62488SOL    HW194704   8.690   5.314   2.066  0.8007  1.3865 -0.0754
62488SOL    HW294705   8.714   5.220   2.182  0.0526  1.5781  0.2382
62489SOL     OW94706   1.801   3.774  11.361 -0.1353 -0.2853 -0.7911
62489SOL    HW194707   1.741   3.712  11.318  0.2893 -0.6624 -0.8458
62489SOL    HW294708   1.887   3.734  11.352  0.7246  1.8571 -3.8408
62490SOL     OW94709   5.009   0.146   1.098 -0.3650 -0.1248  0.5244
62490SOL    HW194710   5.072   0.131   1.027 -0.0121  2.5055  0.1575
62490SOL    HW294711   5.055   0.120   1.177  1.0479  1.2140  0.1967
62491SOL     OW94712   7.745   1.670  11.068 -0.5044  0.0923  0.1149
62491SOL    HW194713   7.763   1.609  10.996 -0.9072  0.2699 -0.1393
62491SOL    HW294714   7.656   1.700  11.052  0.4933  2.6697 -1.1860
62492SOL     OW94715  10.448   6.088  12.100 -0.2080 -0.5593  0.4680
62492SOL    HW194716  10.468   6.182  12.093 -0.1770 -0.6410 -0.7847
62492SOL    HW294717  10.476   6.064  12.188 -1.6769  0.9550  1.4065
62493SOL     OW94718   8.980  12.271   0.940  0.3221  0.0488 -0.0238
62493SOL    HW194719   8.901  12.308   0.902 -1.1358 -0.5771  2.2421
62493SOL    HW294720   9.019  12.342   0.990  1.0306  0.2473 -0.8261
62494SOL     OW94721   5.191   2.842   4.841  0.2136 -0.2082  0.7073
62494SOL    HW194722   5.199   2.922   4.893  0.4400 -0.6292  1.3251
62494SOL    HW294723   5.256   2.854   4.771  0.3205  0.1049  0.8536
62495SOL     OW94724  11.487   6.923   0.004  0.4800 -0.5777  0.7522
62495SOL    HW194725  11.549   6.921  -0.069  0.2290 -1.8289  0.5457
62495SOL    HW294726  11.496   7.011   0.041  0.3691  0.2145 -0.9951
62496SOL     OW94727  10.176  10.423   3.546  0.3668 -0.0424 -0.2886
62496SOL    HW194728  10.127  10.472   3.612  0.6269 -1.1098  0.7297
62496SOL    HW294729  10.151  10.332   3.561  1.5985 -0.4526 -0.6778
62497SOL     OW94730   0.115  11.030   1.407 -0.0802 -0.2039  0.1123
62497SOL    HW194731   0.165  10.964   1.358 -0.8586 -0.7917  0.0824
62497SOL    HW294732   0.055  10.978   1.461 -0.0952  0.4710  0.7492
62498SOL     OW94733   3.204   0.113   8.716  0.1880 -0.1456  0.1017
62498SOL    HW194734   3.203   0.114   8.812  0.0938  2.2313  0.1271
62498SOL    HW294735   3.204   0.020   8.693 -1.5490 -0.7858  2.3767
62499SOL     OW94736   5.171   0.674  11.636  0.4514 -0.1097 -0.1124
62499SOL    HW194737   5.156   0.726  11.714 -0.2537  0.6254 -0.7175
62499SOL    HW294738   5.173   0.738  11.564  3.8139 -0.3973 -0.4618
62500SOL     OW94739   4.800   6.373   7.528 -0.4283  0.3957 -0.3761
62500SOL    HW194740   4.844   6.457   7.537 -0.3129  0.3334 -0.3636
62500SOL    HW294741   4.866   6.315   7.491 -0.4171  0.2318 -0.0986
62501SOL     OW94742   6.130   8.551   6.381  0.4896  0.1456 -0.8042
62501SOL    HW194743   6.051   8.595   6.348  0.3958  1.1186  0.5937
62501SOL    HW294744   6.160   8.497   6.309 -2.6509 -1.9388 -0.7504
62502SOL     OW94745  12.087   3.214   0.746  0.5640  0.4008 -0.0290
62502SOL    HW194746  12.176   3.223   0.714  0.9459 -1.2825  0.4512
62502SOL    HW294747  12.037   3.184   0.669  1.2497 -2.4980  0.5277
62503SOL     OW94748   4.638   0.864   5.923  0.6627  0.1232  0.6787
62503SOL    HW194749   4.586   0.859   5.843  0.9475  0.6629  0.4530
62503SOL    HW294750   4.621   0.952   5.957  0.1836 -0.2603  1.4639
62504SOL     OW94751   6.872  10.218   4.976 -0.4030 -0.3695  0.3522
62504SOL    HW194752   6.957  10.173   4.971  0.7698  1.8349 -1.9100
62504SOL    HW294753   6.807  10.148   4.974  1.3251 -2.0848  1.1093
62505SOL     OW94754   2.020   0.481  11.343 -0.0050 -0.1533  0.2598
62505SOL    HW194755   1.939   0.459  11.390 -0.6693 -1.3420 -1.3040
62505SOL    HW294756   2.066   0.397  11.335  0.4157  0.1507 -0.5881
62506SOL     OW94757   5.731  12.682   2.317  0.0681 -0.6285 -0.3030
62506SOL    HW194758   5.817  12.642   2.303 -0.0757 -1.0923  0.1340
62506SOL    HW294759   5.710  12.663   2.408 -0.1448  0.1736 -0.1723
62507SOL     OW94760   4.093  11.297   9.477 -0.0272  0.0323 -0.3337
62507SOL    HW194761   4.113  11.204   9.469  0.1356  0.0721 -0.3967
62507SOL    HW294762   3.997  11.301   9.474 -0.0160 -0.0195 -1.7335
62508SOL     OW94763   2.676   6.989   3.192 -0.0665 -0.0150 -0.1576
62508SOL    HW194764   2.660   7.040   3.272  1.4665 -1.1304  0.8999
62508SOL    HW294765   2.645   7.047   3.121  0.6512  1.9690  1.0560
62509SOL     OW94766   7.285   5.284   1.477  0.0049  0.3568 -0.5875
62509SOL    HW194767   7.280   5.369   1.520  0.6593 -0.7166  1.8048
62509SOL    HW294768   7.218   5.287   1.409 -0.0836  2.7006 -0.4713
62510SOL     OW94769   5.820   5.056   7.726 -0.0201  0.0186  0.2858
62510SOL    HW194770   5.808   5.021   7.638 -0.7544  1.5425 -0.2539
62510SOL    HW294771   5.914   5.063   7.738  0.0748  0.1530 -0.5287
62511SOL     OW94772   3.852   3.584   2.879 -0.1847 -0.3817  0.0331
62511SOL    HW194773   3.927   3.598   2.822 -0.9182 -1.2438 -1.1831
62511SOL    HW294774   3.786   3.647   2.848 -0.8275 -1.3137 -0.5611
62512SOL     OW94775   5.200   0.309  11.536 -0.9477 -0.3684 -0.0493
62512SOL    HW194776   5.292   0.332  11.544 -0.3674 -0.4252 -4.2713
62512SOL    HW294777   5.160   0.340  11.618  2.6792 -0.0171  1.7729
62513SOL     OW94778   6.618  12.096   3.090  0.1035 -0.1281 -0.0019
62513SOL    HW194779   6.578  12.073   3.007 -0.1715  0.8679 -0.1500
62513SOL    HW294780   6.704  12.053   3.088 -0.2334 -0.7969 -0.4294
62514SOL     OW94781  12.623   3.725  10.496  0.9978  0.0772 -0.2692
62514SOL    HW194782  12.576   3.806  10.480 -1.1443 -1.0651 -0.0585
62514SOL    HW294783  12.626   3.681  10.411  0.7855 -0.3058 -0.0811
62515SOL     OW94784   4.833   3.995   1.913  0.2529  0.1047 -0.1199
62515SOL    HW194785   4.740   3.972   1.906 -0.1487  1.4026  0.5303
62515SOL    HW294786   4.854   4.034   1.828 -0.3875  1.7154  0.4310
62516SOL     OW94787   9.767   4.401   6.214 -0.0584  0.0666  0.4073
62516SOL    HW194788   9.749   4.346   6.138 -1.1320  1.7477 -0.6139
62516SOL    HW294789   9.681   4.417   6.253  0.4747 -0.7444  1.9901
62517SOL     OW94790   5.841   1.535   9.721 -0.2871  0.1838  0.0045
62517SOL    HW194791   5.823   1.488   9.802  1.3598 -0.0924  0.2445
62517SOL    HW294792   5.830   1.468   9.653  2.1120 -0.6569  0.3509
62518SOL     OW94793   5.276  10.144   1.341 -0.0795  0.0147  0.0045
62518SOL    HW194794   5.303  10.235   1.350  1.6064 -0.4368 -0.2946
62518SOL    HW294795   5.333  10.095   1.400 -0.5885 -0.9257 -0.2526
62519SOL     OW94796   1.253   2.927  10.080  0.2481 -0.5514 -0.0910
62519SOL    HW194797   1.199   2.854  10.110  1.1110 -1.4169 -0.5729
62519SOL    HW294798   1.261   2.985  10.157 -0.3403 -1.0290  0.3356
62520SOL     OW94799   1.606   6.648   3.707  0.2607 -0.0228  0.4924
62520SOL    HW194800   1.540   6.701   3.663  0.3813  0.1771  0.5482
62520SOL    HW294801   1.561   6.567   3.730  0.0071  0.1525  0.6230
62521SOL     OW94802   3.837   4.716   7.289 -0.4810  0.2769 -0.1065
62521SOL    HW194803   3.782   4.648   7.252 -1.3250  1.5585 -1.3188
62521SOL    HW294804   3.893   4.744   7.216 -0.4996  1.2070  0.2165
62522SOL     OW94805   3.555   4.671  12.546  0.2352 -0.7801 -0.2054
62522SOL    HW194806   3.499   4.742  12.515  0.6160 -1.3297 -2.3376
62522SOL    HW294807   3.590   4.702  12.629 -3.0738 -0.3757  1.1725
62523SOL     OW94808   5.159   3.271  11.550 -0.0763  0.1473  0.2687
62523SOL    HW194809   5.087   3.285  11.488  1.1609  2.6038 -0.7298
62523SOL    HW294810   5.211   3.200  11.511 -0.0647  0.7339 -0.8169
62524SOL     OW94811   7.262   8.583   8.234 -0.0448  0.4464 -0.0102
62524SOL    HW194812   7.298   8.658   8.281  1.0623 -0.9649  1.5022
62524SOL    HW294813   7.336   8.522   8.226 -0.3481  0.2979 -3.0304
62525SOL     OW94814   9.535   8.951  10.928 -0.2213 -0.2689  0.2807
62525SOL    HW194815   9.630   8.946  10.925 -0.1397  1.3396 -1.9424
62525SOL    HW294816   9.514   8.954  11.022  1.8342 -1.1220  0.8290
62526SOL     OW94817   8.797   9.289   3.240  0.9132  0.2308  0.2782
62526SOL    HW194818   8.800   9.212   3.182  0.4085  0.6618 -0.3369
62526SOL    HW294819   8.881   9.333   3.225  0.2643  1.0664 -1.1808
62527SOL     OW94820   0.051   7.725   4.277 -0.2609  0.0281  0.2437
62527SOL    HW194821   0.030   7.636   4.249 -0.0220 -0.1668  0.6717
62527SOL    HW294822   0.097   7.713   4.360  0.5626  0.5110 -0.1377
62528SOL     OW94823  11.187   5.222   0.634  0.1645 -0.2030  0.0438
62528SOL    HW194824  11.101   5.233   0.676  0.6809  0.7800  0.9140
62528SOL    HW294825  11.167   5.197   0.544 -0.9946 -2.1793  0.7989
62529SOL     OW94826   8.188  10.370  12.335 -0.3013  0.4399  0.4476
62529SOL    HW194827   8.191  10.387  12.429  1.4856  3.5941 -0.0338
62529SOL    HW294828   8.278  10.347  12.312 -0.3182  1.4112 -0.6943
62530SOL     OW94829   7.944   6.112   4.614 -0.2247  0.6107  0.3907
62530SOL    HW194830   8.038   6.104   4.624 -0.1208  0.7009 -0.4143
62530SOL    HW294831   7.924   6.203   4.635 -0.0306  0.7742 -0.1216
62531SOL     OW94832  10.357   5.622   1.956  0.3782  0.6471 -0.3490
62531SOL    HW194833  10.440   5.576   1.967  0.5072  0.5599 -1.5453
62531SOL    HW294834  10.360   5.656   1.867 -1.1304  0.1241 -0.6342
62532SOL     OW94835   0.766   4.459  12.327 -0.0620 -0.0191  0.5326
62532SOL    HW194836   0.694   4.496  12.378  1.0225  1.4925  1.0138
62532SOL    HW294837   0.749   4.365  12.327 -1.4278  0.1985  1.5643
62533SOL     OW94838   4.183   2.606   6.955  0.0368  0.2898 -0.0978
62533SOL    HW194839   4.127   2.544   6.907 -2.3928 -0.7852  3.6656
62533SOL    HW294840   4.124   2.677   6.979  0.8106  0.2505  2.0968
62534SOL     OW94841   5.998   3.347   0.291  0.1351 -0.2185 -0.6030
62534SOL    HW194842   5.968   3.259   0.267 -0.1335 -0.1755 -0.4253
62534SOL    HW294843   6.075   3.332   0.346  0.4489 -0.3286 -1.0603
62535SOL     OW94844   6.585   0.638   6.104 -0.0148 -0.2261 -0.0968
62535SOL    HW194845   6.639   0.559   6.099  0.7909  0.3179 -0.1532
62535SOL    HW294846   6.647   0.708   6.126 -0.8896  0.2107  1.0198
62536SOL     OW94847   3.101   9.602   1.735 -0.4809  0.3848  0.0740
62536SOL    HW194848   3.100   9.666   1.664 -0.0611  1.8497  1.3276
62536SOL    HW294849   3.017   9.615   1.780 -0.1654  0.4391  0.6577
62537SOL     OW94850   5.691   4.698   6.371  0.1120 -0.7604 -0.0225
62537SOL    HW194851   5.724   4.782   6.404 -1.8945 -0.2791  0.8697
62537SOL    HW294852   5.675   4.713   6.278  1.7662 -0.8357 -0.3497
62538SOL     OW94853  12.313   8.598  10.828 -0.3281  0.4905  0.2113
62538SOL    HW194854  12.307   8.523  10.887  0.5200 -0.0185 -0.3241
62538SOL    HW294855  12.337   8.671  10.885 -1.6472  0.4704  0.8099
62539SOL     OW94856   2.665  11.079   2.787 -0.1323 -0.2945  0.4150
62539SOL    HW194857   2.681  11.062   2.880 -0.4797 -0.7709  0.3930
62539SOL    HW294858   2.601  11.150   2.786  0.6501  0.4394  0.5191
62540SOL     OW94859   2.887  11.767   6.544  0.1623  0.2134 -0.4997
62540SOL    HW194860   2.858  11.831   6.609 -2.7711  0.7884 -2.2260
62540SOL    HW294861   2.934  11.819   6.478 -0.6308  0.3436 -0.9768
62541SOL     OW94862   9.251   8.561   6.023  0.6826  0.3484  0.3450
62541SOL    HW194863   9.176   8.609   5.990  0.3782 -1.1166 -1.2650
62541SOL    HW294864   9.233   8.470   5.999  1.9525 -0.3514  1.8799
62542SOL     OW94865   9.604   3.597   1.956 -0.1712  0.0579 -0.0805
62542SOL    HW194866   9.652   3.658   2.012 -2.8892  1.7943  0.5859
62542SOL    HW294867   9.566   3.653   1.887  0.4181 -1.5399 -1.7813
62543SOL     OW94868   1.260   1.964   9.514  0.4730 -0.3845 -0.2266
62543SOL    HW194869   1.258   1.905   9.589  0.8575 -0.0855  0.0262
62543SOL    HW294870   1.352   1.965   9.487  0.2806 -0.7443 -0.9075
62544SOL     OW94871   5.462  11.525  10.795 -0.0644 -0.1242  0.0828
62544SOL    HW194872   5.456  11.621  10.796  2.4682  0.2012 -2.6590
62544SOL    HW294873   5.555  11.507  10.782 -0.7205 -2.8955 -1.6226
62545SOL     OW94874   6.069   3.037   4.623  0.0740 -0.0924 -0.5169
62545SOL    HW194875   6.159   3.041   4.591  0.1112  0.3495 -0.3703
62545SOL    HW294876   6.068   3.098   4.697 -0.7580  1.2029 -1.5509
62546SOL     OW94877  10.106   1.094   8.754 -0.1668  0.2208 -0.0705
62546SOL    HW194878  10.152   1.012   8.734 -0.1285  0.3085 -0.3550
62546SOL    HW294879  10.122   1.110   8.846  1.4831  0.9547 -0.4567
62547SOL     OW94880   1.860   2.196   2.208 -0.2258 -0.0764  0.0212
62547SOL    HW194881   1.782   2.220   2.157  0.0734  0.1178 -0.3559
62547SOL    HW294882   1.888   2.112   2.171 -0.1937 -0.0911  0.0793
62548SOL     OW94883   4.990  11.915   7.370  0.0541 -0.3619  0.2473
62548SOL    HW194884   4.926  11.846   7.352 -0.7601 -0.0366  1.7382
62548SOL    HW294885   4.992  11.921   7.465  2.0794 -0.1306  0.2257
62549SOL     OW94886   5.174   8.239   9.601  0.2981  0.2177  0.0737
62549SOL    HW194887   5.088   8.220   9.638 -0.2823 -1.0746 -1.7975
62549SOL    HW294888   5.180   8.335   9.603 -1.1922  0.3393  0.2206
62550SOL     OW94889   4.491   5.490   8.153  0.0955  0.0037  0.2104
62550SOL    HW194890   4.503   5.528   8.066 -0.4313  1.3924  0.7325
62550SOL    HW294891   4.418   5.429   8.142 -0.9844  1.3096  0.0138
62551SOL     OW94892  12.373  11.531   7.406  0.2726 -0.3138  0.8463
62551SOL    HW194893  12.452  11.561   7.452 -0.1083  2.3553 -0.0301
62551SOL    HW294894  12.369  11.587   7.328 -0.4387 -2.9987 -1.1923
62552SOL     OW94895  10.322   7.768  12.152  0.2634 -0.3104 -0.5241
62552SOL    HW194896  10.395   7.708  12.135  0.6770  0.1397 -0.3375
62552SOL    HW294897  10.352   7.852  12.119 -1.0027 -0.5483 -2.4383
62553SOL     OW94898   0.163   5.431  12.138 -0.1456  0.0778  0.1071
62553SOL    HW194899   0.076   5.438  12.177 -0.3785  0.1333 -0.4131
62553SOL    HW294900   0.222   5.460  12.207 -0.4936 -0.5015  0.6565
62554SOL     OW94901   9.232   1.296   4.278 -0.0597 -0.1118 -0.5665
62554SOL    HW194902   9.200   1.384   4.294  4.4736  1.6232  0.4270
62554SOL    HW294903   9.228   1.285   4.183 -1.3096  0.8254 -0.6386
62555SOL     OW94904   1.333  11.382   1.572  0.0523 -0.1516 -0.8761
62555SOL    HW194905   1.273  11.399   1.499  0.4635 -0.0773 -1.1994
62555SOL    HW294906   1.362  11.292   1.560  0.3348 -0.0500 -0.9609
62556SOL     OW94907  10.216   3.386   0.060 -0.0519  0.5527 -0.0277
62556SOL    HW194908  10.187   3.359   0.147  0.6473  0.8791  0.3105
62556SOL    HW294909  10.158   3.458   0.036 -0.6255  0.0795 -0.0851
62557SOL     OW94910   4.137   4.004   2.960  0.8381  0.1946 -0.0375
62557SOL    HW194911   4.216   3.995   2.907  0.5040  0.1279 -0.5289
62557SOL    HW294912   4.073   3.946   2.918 -0.3957  2.4205 -1.4359
62558SOL     OW94913   3.486   1.540   9.372 -0.1937  0.2526  0.0927
62558SOL    HW194914   3.560   1.549   9.311  1.2913 -0.6058  1.6795
62558SOL    HW294915   3.508   1.464   9.425 -1.7880  0.5506  1.2511
62559SOL     OW94916   8.226  12.043   4.911  0.7760  0.0424  0.6575
62559SOL    HW194917   8.191  11.980   4.847  0.2280  0.2692  0.7257
62559SOL    HW294918   8.288  11.993   4.963  1.5170 -0.0604 -0.2951
62560SOL     OW94919  10.564  11.337   4.960 -0.2046  0.2354 -0.3000
62560SOL    HW194920  10.549  11.308   4.871 -1.1443  0.2885 -0.1676
62560SOL    HW294921  10.643  11.291   4.988 -0.8796 -1.1136 -0.5724
62561SOL     OW94922   9.254   8.372  12.405 -0.2085 -0.2258 -0.0116
62561SOL    HW194923   9.313   8.414  12.467 -0.7220 -1.7296  1.5801
62561SOL    HW294924   9.311   8.318  12.350  0.0762 -0.2832  0.3376
62562SOL     OW94925   6.220   8.012   6.605  0.2127 -0.3562 -0.4034
62562SOL    HW194926   6.236   7.976   6.518 -0.4522  1.1665 -1.1895
62562SOL    HW294927   6.303   8.002   6.651  1.1649  0.5195 -1.8490
62563SOL     OW94928   9.936   5.513  11.607  0.1235  0.1078  0.0072
62563SOL    HW194929  10.011   5.487  11.660  0.5358 -0.4217 -0.8167
62563SOL    HW294930   9.864   5.458  11.638  0.5523 -0.7548 -0.4815
62564SOL     OW94931   0.069   1.426   1.408  0.3665  0.1075  0.3182
62564SOL    HW194932   0.124   1.470   1.343  1.0153 -0.0864  0.7261
62564SOL    HW294933   0.129   1.403   1.479  0.3412 -2.5776 -0.4153
62565SOL     OW94934  12.239   9.804  10.871  0.5060  0.1937 -0.3776
62565SOL    HW194935  12.307   9.771  10.813  0.6685  2.2129 -1.4400
62565SOL    HW294936  12.201   9.726  10.911  2.2980 -1.0803 -1.0418
62566SOL     OW94937   7.301  11.038   3.908  0.4805 -0.1364  0.4581
62566SOL    HW194938   7.262  11.006   3.989  1.6558 -1.5069  0.5292
62566SOL    HW294939   7.269  11.128   3.900 -0.9022 -0.4855  1.6097
62567SOL     OW94940  10.652   8.109   8.659 -0.4976 -0.3764  0.2639
62567SOL    HW194941  10.644   8.147   8.746 -1.7370  0.0438 -0.0043
62567SOL    HW294942  10.637   8.182   8.599  1.5800 -0.3944 -0.3500
62568SOL     OW94943   0.007   8.508   3.172  0.6405  0.2877 -0.2647
62568SOL    HW194944   0.095   8.528   3.201  0.0360 -0.0754  1.9909
62568SOL    HW294945   0.014   8.501   3.077  2.8423  1.0980 -0.2141
62569SOL     OW94946  11.097   1.383   1.836  0.0997 -0.0963  0.2462
62569SOL    HW194947  11.056   1.425   1.912 -1.3211 -2.6630  1.0021
62569SOL    HW294948  11.041   1.406   1.762 -0.6890 -0.6567  0.6580
62570SOL     OW94949   9.724  12.405   3.984  0.5844  0.1191  0.4071
62570SOL    HW194950   9.724  12.433   4.076 -0.9135  0.0284  0.4553
62570SOL    HW294951   9.646  12.447   3.947  0.8921 -0.2666 -0.6954
62571SOL     OW94952   9.992   8.384   8.271  0.5631  0.1033 -0.6966
62571SOL    HW194953  10.031   8.358   8.354  0.1626 -0.3347 -0.6394
62571SOL    HW294954  10.007   8.310   8.212  2.0690  0.9515 -1.4533
62572SOL     OW94955   1.644   5.798   7.606  0.5229 -0.3041  0.4857
62572SOL    HW194956   1.649   5.830   7.516  3.7610  0.4465  0.7987
62572SOL    HW294957   1.666   5.705   7.600 -0.1886 -0.4683  0.4150
62573SOL     OW94958   4.623  11.036   5.045  0.3862  0.0287  0.5129
62573SOL    HW194959   4.559  11.095   5.084  0.4471  0.9549 -0.7431
62573SOL    HW294960   4.680  11.011   5.118 -0.6978  0.1055  1.4056
62574SOL     OW94961  10.163   6.156   4.177  0.1110 -0.0279 -0.5199
62574SOL    HW194962  10.140   6.235   4.226  0.3507  1.2258 -2.3443
62574SOL    HW294963  10.222   6.108   4.236  0.3363  1.3809  0.4610
62575SOL     OW94964   8.351   4.604   4.706 -0.8003 -0.4736 -0.5104
62575SOL    HW194965   8.312   4.626   4.791 -1.6448  1.0239 -1.2350
62575SOL    HW294966   8.306   4.662   4.644  1.1282 -0.1926 -1.7060
62576SOL     OW94967  11.129   6.913   7.510  0.8079 -0.4102 -0.1612
62576SOL    HW194968  11.093   6.953   7.432  0.2408  0.5753  0.5884
62576SOL    HW294969  11.183   6.841   7.477 -1.4651 -1.6848 -1.3351
62577SOL     OW94970  12.195  12.246   7.641  0.0242 -0.2250 -0.4089
62577SOL    HW194971  12.242  12.314   7.594 -0.0675  0.4869  0.5106
62577SOL    HW294972  12.263  12.196   7.687 -0.1080  1.4976  1.8424
62578SOL     OW94973   7.326  12.129   8.492  0.0275 -0.0618 -0.1492
62578SOL    HW194974   7.258  12.122   8.560 -0.2412  1.3261 -0.2373
62578SOL    HW294975   7.375  12.047   8.498  0.7332  0.4411  2.5250
62579SOL     OW94976   2.576   5.964   3.562 -0.6210 -0.2536  0.3677
62579SOL    HW194977   2.496   5.934   3.604 -2.1775  2.6985 -0.2551
62579SOL    HW294978   2.646   5.915   3.606 -2.5605 -1.1976  2.5988
62580SOL     OW94979   9.889   2.338   7.351  0.5269 -0.6997  0.2948
62580SOL    HW194980   9.885   2.423   7.307  1.0638 -1.3223 -1.0271
62580SOL    HW294981   9.812   2.291   7.318  0.6401 -0.9848  0.4348
62581SOL     OW94982   4.066   9.795   7.818 -0.6495 -0.0034 -0.2211
62581SOL    HW194983   4.004   9.860   7.786 -1.1704  0.2559  1.2024
62581SOL    HW294984   4.012   9.731   7.864  0.0692 -0.0258  0.6349
62582SOL     OW94985   0.786   8.657   3.427  0.0189  0.4557  0.0846
62582SOL    HW194986   0.694   8.632   3.424  0.1647 -0.0515 -0.3313
62582SOL    HW294987   0.806   8.685   3.337  0.2817  0.5189  0.1623
62583SOL     OW94988  10.603   8.529   8.809 -0.1423 -0.2546  0.4777
62583SOL    HW194989  10.538   8.479   8.760 -2.3636  0.9089  2.0185
62583SOL    HW294990  10.587   8.505   8.901  1.2518  0.4861  0.9447
62584SOL     OW94991  10.435   6.625   6.179 -0.0892 -0.7579  0.1589
62584SOL    HW194992  10.511   6.577   6.146  0.9543 -0.5154  2.1008
62584SOL    HW294993  10.456   6.717   6.166 -1.1773 -0.7078 -1.5967
62585SOL     OW94994   2.788   3.921  12.251  0.4356  0.5491 -0.2251
62585SOL    HW194995   2.724   3.914  12.322 -0.2103  2.1534 -0.6002
62585SOL    HW294996   2.752   3.988  12.192  1.1838 -0.3836 -1.8266
62586SOL     OW94997   9.481   4.864   2.255 -0.0657 -0.3099  0.1812
62586SOL    HW194998   9.397   4.819   2.242 -0.1238 -0.3094  0.5491
62586SOL    HW294999   9.488   4.924   2.180  0.9903 -2.3747 -1.4735
62587SOL     OW95000  11.579   4.995  11.383  0.6172 -0.3920  0.2564
62587SOL    HW195001  11.610   4.918  11.431 -1.5131 -1.3483  0.2115
62587SOL    HW295002  11.596   5.069  11.442  1.1818 -1.0926  0.9921
62588SOL     OW95003   4.629   3.645   1.700 -0.0755  0.0999  0.2544
62588SOL    HW195004   4.672   3.610   1.778 -2.8084 -1.8525  1.0581
62588SOL    HW295005   4.539   3.661   1.728 -1.1584 -0.7123 -2.4852
62589SOL     OW95006   3.651   1.336   2.205 -0.0782 -0.2777 -0.0933
62589SOL    HW195007   3.698   1.253   2.215 -0.1389 -0.2152  0.8500
62589SOL    HW295008   3.646   1.371   2.294 -0.7255  0.3694 -0.3738
62590SOL     OW95009   3.570  10.212   1.485 -0.3334  0.5137 -0.0355
62590SOL    HW195010   3.599  10.138   1.431  0.4977 -0.7251  1.9811
62590SOL    HW295011   3.641  10.276   1.478 -0.4372  0.5542 -0.7455
62591SOL     OW95012   5.413   4.098  11.409 -0.9046  0.4910 -0.6678
62591SOL    HW195013   5.470   4.127  11.480 -0.0313 -0.3617 -0.9929
62591SOL    HW295014   5.379   4.179  11.371 -0.1654  1.0093 -0.2576
62592SOL     OW95015  10.486   1.369  10.431  0.7483  0.4659  0.0550
62592SOL    HW195016  10.504   1.280  10.400 -0.3393  0.5414 -0.8770
62592SOL    HW295017  10.438   1.410  10.359 -1.4133  0.8254  1.5909
62593SOL     OW95018  11.491   9.400   5.516  0.0154 -0.3042 -0.3174
62593SOL    HW195019  11.488   9.468   5.584 -1.0592 -1.4224  0.8252
62593SOL    HW295020  11.402   9.365   5.514  0.4075 -1.2907 -1.2891
62594SOL     OW95021  10.028  12.284   0.991  0.0562  0.3363 -0.0395
62594SOL    HW195022   9.964  12.238   0.936  0.4907  1.0215 -1.1714
62594SOL    HW295023  10.110  12.237   0.976  0.5088  1.4480 -1.2263
62595SOL     OW95024   2.020   9.713   8.225 -0.6418  0.3545 -0.5407
62595SOL    HW195025   2.094   9.771   8.209 -1.1176  0.6897 -1.6541
62595SOL    HW295026   1.958   9.734   8.155 -1.6670 -0.1207  0.1955
62596SOL     OW95027   0.489   1.488   4.925  0.4267  0.0151  0.1341
62596SOL    HW195028   0.492   1.583   4.936  2.6869  0.0742 -0.5077
62596SOL    HW295029   0.401   1.471   4.891  0.0873  1.8939 -0.0733
62597SOL     OW95030   2.053  10.676   9.619 -0.0520 -0.8379 -0.3578
62597SOL    HW195031   1.989  10.686   9.548  0.1940 -1.2492 -0.6390
62597SOL    HW295032   2.109  10.604   9.591  1.2117  0.2122 -0.6240
62598SOL     OW95033   0.434  11.155  11.850 -0.1192 -0.3555  0.3642
62598SOL    HW195034   0.365  11.110  11.802  0.8385 -1.8594  0.2910
62598SOL    HW295035   0.478  11.085  11.898  3.6711 -0.2226 -2.4258
62599SOL     OW95036   9.321   6.442  10.999 -0.7969  0.0064  0.4578
62599SOL    HW195037   9.254   6.393  10.952 -0.2582  0.1167 -0.4604
62599SOL    HW295038   9.304   6.424  11.091  0.9059 -4.0308  0.1754
62600SOL     OW95039   5.815   7.240   3.170 -0.1225 -0.4931 -0.1204
62600SOL    HW195040   5.849   7.226   3.258  0.4131  3.4888  0.5054
62600SOL    HW295041   5.738   7.295   3.183 -0.1011  0.0923 -2.1312
62601SOL     OW95042   9.148   9.917   6.952 -0.5493  0.3789 -0.9183
62601SOL    HW195043   9.153   9.835   6.903  0.6324  0.1844 -0.5110
62601SOL    HW295044   9.194   9.981   6.897  0.2675  0.2959 -0.3452
62602SOL     OW95045   9.233   3.906   9.245 -0.1707 -0.0599  0.5540
62602SOL    HW195046   9.304   3.844   9.261  0.3270  0.5820  0.8607
62602SOL    HW295047   9.204   3.933   9.332 -0.8928 -0.4307  0.4341
62603SOL     OW95048   5.161  11.207  11.465  0.7268  0.1268  0.6283
62603SOL    HW195049   5.106  11.251  11.530  0.8971 -1.7543  2.1511
62603SOL    HW295050   5.136  11.115  11.472  3.0768 -0.5994  0.3645
62604SOL     OW95051   8.129   3.761  11.594  0.0146 -0.2260  0.1776
62604SOL    HW195052   8.207   3.732  11.546  0.8538  0.9850  0.7696
62604SOL    HW295053   8.123   3.701  11.668 -0.8025 -1.5812 -0.9222
62605SOL     OW95054   2.277   2.323   1.057  0.2185 -0.6980 -0.2072
62605SOL    HW195055   2.268   2.258   0.987  0.2202  0.1649 -1.0349
62605SOL    HW295056   2.319   2.398   1.014 -1.7626  0.6951  0.1710
62606SOL     OW95057   0.200   9.227  10.416  0.0935 -0.1024  0.0274
62606SOL    HW195058   0.204   9.239  10.511  1.1774 -1.2283  0.1544
62606SOL    HW295059   0.109   9.202  10.398  0.4121 -2.1629  1.0860
62607SOL     OW95060   0.734   5.619   2.744 -0.4828 -0.4935  0.4576
62607SOL    HW195061   0.691   5.535   2.761 -1.4283  0.0180  0.7016
62607SOL    HW295062   0.663   5.676   2.713  0.3688 -0.1265 -0.8850
62608SOL     OW95063   2.970   5.770   9.980  0.2495 -0.3860 -0.0925
62608SOL    HW195064   2.897   5.710   9.996 -0.0084  0.1914  1.0603
62608SOL    HW295065   2.960   5.838  10.048  1.9699 -0.4109  0.2311
62609SOL     OW95066  10.205   8.013   8.986  0.1170  0.3002  0.1504
62609SOL    HW195067  10.250   7.940   8.943  0.0369  1.3692 -1.8390
62609SOL    HW295068  10.125   8.025   8.936  0.7018  2.5201 -0.3607
62610SOL     OW95069   9.443   4.799   4.365 -0.6558  0.3877 -0.0926
62610SOL    HW195070   9.496   4.739   4.418 -1.2449 -0.2771 -0.2341
62610SOL    HW295071   9.359   4.804   4.412 -1.1029 -0.0324 -0.8310
62611SOL     OW95072   9.884   0.476   9.929  0.4957 -0.2798  0.0792
62611SOL    HW195073   9.954   0.511   9.984  2.5493 -1.6297 -1.5421
62611SOL    HW295074   9.816   0.449   9.991  2.2428 -0.7305  1.8910
62612SOL     OW95075   6.923   0.341   5.874  0.1686  0.2288  0.0817
62612SOL    HW195076   6.876   0.309   5.797  1.4707 -1.5960 -0.0073
62612SOL    HW295077   6.983   0.270   5.897  1.3840  1.6283  1.4484
62613SOL     OW95078   5.214  12.237   6.687 -0.3576  0.0986  0.4205
62613SOL    HW195079   5.230  12.153   6.729  1.5679 -1.9187 -3.7501
62613SOL    HW295080   5.301  12.276   6.678 -0.1709 -0.7733 -3.4844
62614SOL     OW95081   7.385   5.052   4.851 -1.3091 -0.7356  0.1337
62614SOL    HW195082   7.365   5.038   4.759  0.5641  0.2571 -0.4793
62614SOL    HW295083   7.352   5.139   4.870 -0.4114 -0.3536 -0.0198
62615SOL     OW95084   3.109   5.996   8.160  0.5074 -0.0473 -0.0833
62615SOL    HW195085   3.034   6.024   8.213  1.2804  0.9335  0.5268
62615SOL    HW295086   3.074   5.927   8.104 -1.4927  2.0602 -1.5883
62616SOL     OW95087  10.543   6.449   4.517  0.3105 -0.0349 -0.3122
62616SOL    HW195088  10.575   6.361   4.539  0.3491 -0.1827 -0.9169
62616SOL    HW295089  10.448   6.443   4.526  0.3885  0.1802  0.7232
62617SOL     OW95090   5.442   1.659  12.015  0.3637 -0.0681  0.3800
62617SOL    HW195091   5.439   1.582  12.072 -0.5671 -0.2522  0.1054
62617SOL    HW295092   5.393   1.726  12.063  1.7338  0.5905  0.9228
62618SOL     OW95093  12.014   3.850   2.626 -0.0633 -0.3901 -0.5487
62618SOL    HW195094  11.963   3.826   2.704  1.4542  0.0206  0.6371
62618SOL    HW295095  11.986   3.939   2.605 -0.0179 -0.2545 -0.0538
62619SOL     OW95096   9.325  12.160   7.287 -0.0317  0.1188 -0.3972
62619SOL    HW195097   9.391  12.124   7.347  0.2453  1.4065  0.0868
62619SOL    HW295098   9.346  12.120   7.202 -0.5140 -1.8424  0.3363
62620SOL     OW95099   7.962  11.081  11.574 -0.0020 -0.1930 -0.1904
62620SOL    HW195100   7.962  11.138  11.497 -0.5648  0.9281  0.6007
62620SOL    HW295101   7.899  11.122  11.634  1.5321 -0.1271  1.4900
62621SOL     OW95102   1.135   9.976  10.506 -0.4497  0.3777  0.2639
62621SOL    HW195103   1.076   9.906  10.477  0.9540 -1.2219  1.1342
62621SOL    HW295104   1.204   9.978  10.439 -0.6967  1.2726  0.0110
62622SOL     OW95105   2.119   5.874   6.863  0.0267 -0.5085 -0.5415
62622SOL    HW195106   2.127   5.868   6.958  1.6033  0.5549 -0.5643
62622SOL    HW295107   2.194   5.825   6.829  0.0730 -0.0126 -1.1837
62623SOL     OW95108   5.256   9.384  10.487 -0.5884 -0.0121  1.0441
62623SOL    HW195109   5.244   9.323  10.414 -1.2025  2.6045 -1.2345
62623SOL    HW295110   5.346   9.368  10.517  0.0816 -0.5449 -1.0237
62624SOL     OW95111   1.169   4.208   6.609  0.0824  0.1225  0.2447
62624SOL    HW195112   1.203   4.260   6.536 -0.8183  2.3759  1.3237
62624SOL    HW295113   1.092   4.164   6.573  2.0013 -2.2527 -1.2502
62625SOL     OW95114   4.517  11.944   0.962  0.0297  0.2769  0.0208
62625SOL    HW195115   4.454  11.911   0.898  0.4396  0.7862 -0.6428
62625SOL    HW295116   4.603  11.925   0.924  0.2921  2.3102 -0.4999
62626SOL     OW95117  10.109   1.602   5.798 -0.5011  0.1169  0.0413
62626SOL    HW195118  10.025   1.646   5.788  0.2214  1.7893  0.9646
62626SOL    HW295119  10.108   1.533   5.731 -1.8943  1.1828 -1.1023
62627SOL     OW95120   8.712  10.024   1.570  0.1428  0.0720 -0.1681
62627SOL    HW195121   8.768   9.948   1.555  0.9202  0.4429  0.8179
62627SOL    HW295122   8.757  10.096   1.526  0.0268  0.2046 -0.0702
62628SOL     OW95123  11.184   6.916   2.995  0.0726  0.6974  0.0595
62628SOL    HW195124  11.194   7.003   3.035 -0.3984  1.2286 -0.9548
62628SOL    HW295125  11.248   6.915   2.923  0.8502 -0.2180  0.7312
62629SOL     OW95126   3.918   5.431   8.239 -0.3572 -0.0041 -0.2356
62629SOL    HW195127   4.002   5.431   8.194 -0.6180  0.6299 -0.7339
62629SOL    HW295128   3.861   5.378   8.183 -1.5889  3.3124 -2.4764
62630SOL     OW95129   2.094   7.056   3.768  0.1598  0.0436 -0.3284
62630SOL    HW195130   2.085   7.149   3.749  0.5109  0.4378  1.2453
62630SOL    HW295131   2.022   7.038   3.830  0.7313 -0.4707  0.1934
62631SOL     OW95132   1.024   5.352   8.046  0.3140 -0.4646  0.3432
62631SOL    HW195133   0.950   5.353   7.986  0.5996  1.6398 -0.0719
62631SOL    HW295134   1.061   5.264   8.038  0.2722 -0.3220 -2.5026
62632SOL     OW95135   5.148   5.454   4.007 -0.1212  0.0555 -0.1459
62632SOL    HW195136   5.116   5.529   4.057 -0.5639 -0.0632 -0.2420
62632SOL    HW295137   5.071   5.423   3.959  0.0302 -0.5193 -0.0284
62633SOL     OW95138   6.959  12.420  11.022  0.2615  0.1129 -0.1332
62633SOL    HW195139   7.046  12.457  11.035 -0.0723  1.0118 -0.3939
62633SOL    HW295140   6.963  12.334  11.064  1.1242  0.3419  0.2729
62634SOL     OW95141  10.140   5.099  10.501 -0.1747  0.1957  0.0854
62634SOL    HW195142  10.119   5.177  10.451  1.0454  0.4159 -0.1008
62634SOL    HW295143  10.212   5.058  10.453 -0.5769 -0.8626  0.3660
62635SOL     OW95144  12.166   3.018   5.709 -0.0733  0.0982 -0.4876
62635SOL    HW195145  12.097   3.031   5.644 -0.8589  0.5508  0.4053
62635SOL    HW295146  12.194   3.106   5.734 -1.2861  0.0470  1.2974
62636SOL     OW95147   2.943   4.903   3.353 -0.2453 -0.2808  0.4982
62636SOL    HW195148   2.941   4.984   3.405 -2.7381  0.5819 -0.7663
62636SOL    HW295149   2.904   4.837   3.410  1.4750 -0.5721  1.4066
62637SOL     OW95150   4.370   3.700   6.184 -0.3001  0.0236 -0.2066
62637SOL    HW195151   4.464   3.707   6.169  0.0441  0.2457  1.7798
62637SOL    HW295152   4.341   3.791   6.198 -0.6174 -0.1332  0.1736
62638SOL     OW95153   1.466   9.451   8.604 -0.1518  0.7229  0.1902
62638SOL    HW195154   1.553   9.471   8.638 -0.6703  0.0490  2.0150
62638SOL    HW295155   1.412   9.525   8.632 -0.5039  0.3580  0.4779
62639SOL     OW95156  10.801   7.522   3.612 -0.2287 -0.2230 -0.3779
62639SOL    HW195157  10.838   7.515   3.524 -0.0607 -0.7237 -0.2679
62639SOL    HW295158  10.874   7.503   3.671 -0.3863 -0.0768 -0.1287
62640SOL     OW95159   0.156   7.957  12.435 -0.2969  0.4358 -0.2158
62640SOL    HW195160   0.106   8.011  12.496 -2.3714 -1.7407  0.1290
62640SOL    HW295161   0.224   7.916  12.489 -1.1290 -0.2459  0.3312
62641SOL     OW95162   7.062   8.855  12.211  0.1258 -0.3320  0.3460
62641SOL    HW195163   7.132   8.795  12.186  0.8996  0.6042  0.2060
62641SOL    HW295164   7.060   8.851  12.306  0.3360 -0.3901  0.3474
62642SOL     OW95165   1.397  10.456   9.576 -0.2313  0.2142 -0.1433
62642SOL    HW195166   1.304  10.442   9.558 -1.1641  2.9406  1.8497
62642SOL    HW295167   1.443  10.405   9.509 -3.1729  0.6874 -2.7279
62643SOL     OW95168   9.804   5.313   8.022 -0.2282  0.0962 -0.7732
62643SOL    HW195169   9.897   5.333   8.017 -0.4435  1.9948  1.5553
62643SOL    HW295170   9.788   5.257   7.945  3.0380 -1.3470 -0.5697
62644SOL     OW95171   0.326   7.382   6.991 -0.1693 -0.7840 -0.6392
62644SOL    HW195172   0.357   7.466   6.956 -0.2321 -0.8545 -0.8699
62644SOL    HW295173   0.392   7.319   6.962  1.3201 -0.4488  1.7664
62645SOL     OW95174  12.076   9.788   0.224  0.0498 -0.0331 -0.2622
62645SOL    HW195175  12.103   9.798   0.315  1.9022 -0.2377 -0.7653
62645SOL    HW295176  12.007   9.722   0.227  0.0551 -0.0064  0.9886
62646SOL     OW95177   7.341   0.978   1.282  0.1555  0.4756  0.0984
62646SOL    HW195178   7.284   0.913   1.241  0.0645  0.4563  0.2576
62646SOL    HW295179   7.323   0.971   1.376  0.6255  0.2682  0.1771
62647SOL     OW95180   4.455   9.295   0.267  0.0914  0.1077  0.6280
62647SOL    HW195181   4.373   9.336   0.242  0.6894  1.7537  1.2279
62647SOL    HW295182   4.454   9.297   0.363  0.3344 -0.9104  0.6626
62648SOL     OW95183   0.248   7.060  11.098  0.3457 -0.0046 -0.2266
62648SOL    HW195184   0.330   7.069  11.048 -0.5789  2.7799 -1.4472
62648SOL    HW295185   0.237   6.966  11.108  3.0416 -0.5149 -1.1449
62649SOL     OW95186  11.061   0.109   0.385 -0.2252 -0.0491  0.6181
62649SOL    HW195187  11.067   0.015   0.369 -0.2876  0.0347  0.0985
62649SOL    HW295188  11.139   0.130   0.436  0.6672 -0.0896 -0.6887
62650SOL     OW95189   3.778   6.526  12.252 -0.4249 -0.3785 -0.2276
62650SOL    HW195190   3.714   6.531  12.323  1.1422 -0.8696  1.2917
62650SOL    HW295191   3.797   6.617  12.229  1.0146 -0.0935  1.8788
62651SOL     OW95192   1.765   5.773   6.840  0.4168  0.3061 -0.2322
62651SOL    HW195193   1.744   5.859   6.804  0.5852  0.3233 -0.2888
62651SOL    HW295194   1.831   5.737   6.780  1.6540  0.8645  0.7551
62652SOL     OW95195  10.050   1.953   4.446 -0.1831  0.3459  0.0943
62652SOL    HW195196  10.118   2.009   4.408  0.1334  0.4134  0.7553
62652SOL    HW295197  10.057   1.871   4.398  0.9701  0.0360  0.7462
62653SOL     OW95198   0.553   7.337   8.742  0.0062  0.8972  0.3010
62653SOL    HW195199   0.495   7.345   8.666 -0.0283  4.4382  0.5259
62653SOL    HW295200   0.498   7.298   8.809 -1.0548  0.9302 -0.5082
62654SOL     OW95201  10.717   7.931  11.812  0.3998  0.2966 -0.3783
62654SOL    HW195202  10.748   7.844  11.835 -1.1733 -0.1364  0.2604
62654SOL    HW295203  10.709   7.930  11.717 -0.5871 -0.6284 -0.3007
62655SOL     OW95204   3.194   7.766   3.620 -0.1088  0.1357 -0.0256
62655SOL    HW195205   3.126   7.771   3.552  0.0947  0.4957 -0.2066
62655SOL    HW295206   3.180   7.682   3.662 -1.0801  0.4780  0.3732
62656SOL     OW95207   1.719   2.021  11.661  0.3497  0.0947  0.4026
62656SOL    HW195208   1.653   2.076  11.702  0.2503 -0.2987  0.7760
62656SOL    HW295209   1.698   2.022  11.568  1.6821  2.5331  0.0553
62657SOL     OW95210   7.468   7.900  12.187 -0.2675  0.0050 -0.1653
62657SOL    HW195211   7.477   7.824  12.245 -0.6097  0.5916  0.6881
62657SOL    HW295212   7.396   7.950  12.226  1.1907  1.7446  0.4180
62658SOL     OW95213   2.089   6.397   0.025  0.3226 -0.2881  0.2820
62658SOL    HW195214   2.056   6.428   0.110  1.4996  0.4243  0.5205
62658SOL    HW295215   2.174   6.442   0.016  1.4741 -2.4167 -0.0186
62659SOL     OW95216   7.052   5.281   2.531 -0.8482  0.4166 -0.2594
62659SOL    HW195217   6.965   5.295   2.496 -0.4160  0.3150 -1.4116
62659SOL    HW295218   7.110   5.284   2.455  0.4656  2.9484  0.7104
62660SOL     OW95219  10.456   8.002   5.331 -0.0007  0.3816 -0.1397
62660SOL    HW195220  10.372   7.964   5.305 -0.8629  0.6682  2.0177
62660SOL    HW295221  10.460   8.085   5.284 -0.1191 -0.3813 -1.5536
62661SOL     OW95222   7.449   7.903   5.267 -0.5157 -0.1742 -0.3212
62661SOL    HW195223   7.485   7.824   5.306  1.0484  0.7968  0.3238
62661SOL    HW295224   7.396   7.943   5.337 -2.3587 -1.2229 -1.0356
62662SOL     OW95225  12.099   0.834   8.037 -0.0730  0.0375  0.0045
62662SOL    HW195226  12.116   0.772   8.109  1.6463 -0.2086 -0.5585
62662SOL    HW295227  12.045   0.784   7.976  0.3671 -0.5350  0.0722
62663SOL     OW95228   6.045   6.057   8.159 -0.0721  0.0967  0.1466
62663SOL    HW195229   5.978   6.116   8.125  0.4585  0.2242 -0.7098
62663SOL    HW295230   6.107   6.114   8.204 -2.1477 -0.2812  3.8945
62664SOL     OW95231   1.328   0.738   8.618 -0.1606  0.1088  0.2664
62664SOL    HW195232   1.282   0.822   8.609 -0.3843 -0.0319  0.0943
62664SOL    HW295233   1.351   0.714   8.528  1.5274  0.8786  0.4486
62665SOL     OW95234   6.413   6.092   6.479  0.1760 -0.3283 -0.2506
62665SOL    HW195235   6.379   6.156   6.416  0.0341 -1.3184 -1.2164
62665SOL    HW295236   6.433   6.144   6.557 -2.2279  0.5464 -0.1102
62666SOL     OW95237   9.246   3.876   9.602 -0.1014 -0.7971 -0.1035
62666SOL    HW195238   9.333   3.883   9.563  0.1741 -0.1540  0.6052
62666SOL    HW295239   9.227   3.963   9.635 -0.2010 -1.3810  1.4501
62667SOL     OW95240  12.597   8.719   0.623 -0.1767 -0.1469  0.2866
62667SOL    HW195241  12.619   8.783   0.691  2.4005  0.8868 -1.3415
62667SOL    HW295242  12.591   8.636   0.670 -0.5892  0.8154  2.0516
62668SOL     OW95243  11.671   5.754   3.777  0.0694  0.5027 -0.1889
62668SOL    HW195244  11.682   5.692   3.704  1.7499  0.2013  0.2584
62668SOL    HW295245  11.670   5.699   3.855  2.0305  0.9943  0.2528
62669SOL     OW95246   9.792  10.404   6.537  0.3601 -0.1927 -0.0202
62669SOL    HW195247   9.791  10.491   6.497  0.5230  0.3448  1.1314
62669SOL    HW295248   9.885  10.388   6.556  0.2843 -0.4557  0.1306
62670SOL     OW95249  11.843  10.325   7.243 -0.0996  0.0878  0.4127
62670SOL    HW195250  11.861  10.386   7.171 -0.0752  0.3038  0.6018
62670SOL    HW295251  11.777  10.266   7.208  0.3316 -0.1701  0.0065
62671SOL     OW95252   5.466  11.853  11.043  0.1815  0.4731  0.0045
62671SOL    HW195253   5.412  11.922  11.081  0.5664  1.0252 -0.4306
62671SOL    HW295254   5.486  11.883  10.955  1.5932  0.5171  0.3094
62672SOL     OW95255  10.754   7.239  11.057  0.2609  0.0535 -0.1356
62672SOL    HW195256  10.825   7.186  11.094  0.0702 -0.3314 -0.3127
62672SOL    HW295257  10.788   7.329  11.058  0.8351 -0.1548 -0.4204
62673SOL     OW95258   5.638   7.866   2.781 -0.4157  0.6820 -0.1113
62673SOL    HW195259   5.664   7.812   2.706 -2.9300 -1.6558  0.5377
62673SOL    HW295260   5.558   7.910   2.751 -0.3088  1.3331  0.5420
62674SOL     OW95261   0.400   5.274   3.160 -0.5432  0.4101  0.0660
62674SOL    HW195262   0.437   5.236   3.240 -1.0583  1.6224  0.9094
62674SOL    HW295263   0.308   5.292   3.182 -1.0724 -0.5292 -1.2692
62675SOL     OW95264   7.462  11.454  10.300 -1.0313 -0.3352  0.3559
62675SOL    HW195265   7.391  11.516  10.318 -1.8006 -1.1332  0.1415
62675SOL    HW295266   7.439  11.414  10.216 -0.1272 -0.3428  0.0992
62676SOL     OW95267  10.740   6.274   7.182  0.1124 -0.2012 -0.2468
62676SOL    HW195268  10.753   6.266   7.276  2.6367 -1.0117 -0.5952
62676SOL    HW295269  10.789   6.352   7.157  1.3643 -1.2222 -1.1494
62677SOL     OW95270   1.331   5.458   2.883  0.3118 -0.0784 -0.4283
62677SOL    HW195271   1.336   5.532   2.823 -0.1303  0.9442  0.7669
62677SOL    HW295272   1.412   5.408   2.866  1.3410  1.4539 -0.2520
62678SOL     OW95273   1.497   3.683   3.084 -0.7823 -0.6433 -0.0226
62678SOL    HW195274   1.459   3.722   3.005  1.0485 -0.6388 -0.9444
62678SOL    HW295275   1.518   3.594   3.058  0.1887 -0.5217  0.3233
62679SOL     OW95276   7.067   0.219   1.778  0.7013 -0.4232  0.0099
62679SOL    HW195277   6.997   0.197   1.840  0.9709 -1.5745 -0.0654
62679SOL    HW295278   7.021   0.247   1.699  0.3265 -0.7268  0.1150
62680SOL     OW95279   8.872   0.398   6.674 -0.0763  0.5452 -0.5463
62680SOL    HW195280   8.932   0.324   6.686 -0.0303  0.4267 -1.4460
62680SOL    HW295281   8.902   0.440   6.593 -1.0341  0.6469 -0.8612
62681SOL     OW95282   4.511   3.177  11.835  0.4086 -0.0532  0.1194
62681SOL    HW195283   4.443   3.116  11.808  0.7800 -0.2427 -0.3841
62681SOL    HW295284   4.588   3.153  11.784  1.3759 -0.9669  1.9204
62682SOL     OW95285   2.108   0.222   3.104  0.5617  0.3982  0.3265
62682SOL    HW195286   2.177   0.287   3.119  0.1217  0.7606  0.8450
62682SOL    HW295287   2.087   0.231   3.011  1.5281 -0.0470  0.0548
62683SOL     OW95288   9.603   6.536  10.075 -0.2355  0.3227  0.3088
62683SOL    HW195289   9.615   6.491   9.991 -2.2991  0.9134 -0.3674
62683SOL    HW295290   9.690   6.535  10.116  0.2407 -2.5347 -0.5213
62684SOL     OW95291   8.390  12.445   7.205 -0.3334 -0.0668  0.0935
62684SOL    HW195292   8.405  12.516   7.268 -0.7142 -0.8100  1.0346
62684SOL    HW295293   8.299  12.456   7.177 -0.5973 -0.5639  0.7362
62685SOL     OW95294  12.609  11.750   0.143 -0.0033 -0.0804 -0.4780
62685SOL    HW195295  12.605  11.824   0.082 -2.5302  0.1404 -0.1551
62685SOL    HW295296  12.620  11.791   0.229  0.0391 -0.1589 -0.4465
62686SOL     OW95297   4.491   6.380   6.265  0.6820  0.1331 -0.0464
62686SOL    HW195298   4.515   6.297   6.224 -0.2537 -0.1233 -0.0785
62686SOL    HW295299   4.446   6.355   6.346 -1.6635  0.5348 -1.1640
62687SOL     OW95300   5.777   1.023   7.429 -0.0274  0.0394 -0.3610
62687SOL    HW195301   5.795   0.932   7.405 -1.9322 -1.1477  2.2608
62687SOL    HW295302   5.683   1.034   7.414 -0.1324  1.0451  0.8380
62688SOL     OW95303   5.453   9.591   9.061 -0.0569  0.0988 -0.0730
62688SOL    HW195304   5.472   9.621   8.972  1.4531  0.5808  0.3838
62688SOL    HW295305   5.538   9.591   9.105 -0.8113  0.1099  1.4447
62689SOL     OW95306   7.557   8.556   6.109 -0.2024  0.1813  0.0916
62689SOL    HW195307   7.518   8.469   6.100 -0.1351  0.0063  1.3272
62689SOL    HW295308   7.625   8.560   6.042 -0.2327 -0.7051  0.0052
62690SOL     OW95309   9.662   4.862   5.586 -0.0448 -0.3664  0.2850
62690SOL    HW195310   9.591   4.848   5.649  0.7058 -1.5004  0.9187
62690SOL    HW295311   9.678   4.956   5.588 -2.8803  0.2749 -1.3828
62691SOL     OW95312   6.536   8.397   4.158  0.2099  0.0424  0.6351
62691SOL    HW195313   6.476   8.470   4.141 -0.9016 -0.3600  2.5085
62691SOL    HW295314   6.622   8.438   4.163 -0.4128  1.3071  1.8022
62692SOL     OW95315   2.695   0.623   0.494 -0.0565  0.4668  0.6397
62692SOL    HW195316   2.790   0.627   0.502 -0.0840  1.1816  0.7004
62692SOL    HW295317   2.668   0.714   0.480 -0.6269  0.1326 -0.6468
62693SOL     OW95318  11.392   2.302   6.015 -0.4395 -0.3509  0.5204
62693SOL    HW195319  11.408   2.221   6.064 -0.5250 -0.0969  0.9683
62693SOL    HW295320  11.301   2.324   6.033 -0.7329 -0.7188 -0.4435
62694SOL     OW95321   7.429  10.432   6.180 -0.5470 -0.5536 -0.2493
62694SOL    HW195322   7.488  10.359   6.165  0.5041  0.1405  0.4426
62694SOL    HW295323   7.414  10.469   6.093  0.1135 -0.6799 -0.4198
62695SOL     OW95324  10.120  10.942   5.536 -0.7950  0.0453 -0.2443
62695SOL    HW195325  10.142  11.000   5.463  0.1370 -0.1079 -0.0937
62695SOL    HW295326  10.025  10.929   5.529 -1.1436  2.0611  0.0731
62696SOL     OW95327   2.064  12.276   3.265  0.8775 -0.1794 -0.3966
62696SOL    HW195328   2.153  12.245   3.277  0.4737 -1.0132  0.5666
62696SOL    HW295329   2.061  12.359   3.313  1.2317  0.0252 -0.7280
62697SOL     OW95330   2.156  10.293  10.831 -0.1025  0.1160  0.2810
62697SOL    HW195331   2.219  10.289  10.903  2.1854  1.5205 -1.5211
62697SOL    HW295332   2.121  10.382  10.835  0.3257  0.3238 -0.5674
62698SOL     OW95333   1.256  10.484   8.649 -0.4028 -0.4689 -0.1367
62698SOL    HW195334   1.260  10.481   8.745 -2.1769  0.5621  0.0090
62698SOL    HW295335   1.276  10.395   8.622  1.3855 -0.5081  1.1065
62699SOL     OW95336  11.735   8.322   2.999  0.6224  0.3338  0.2701
62699SOL    HW195337  11.791   8.350   2.927 -0.3851  1.6924 -0.0268
62699SOL    HW295338  11.730   8.227   2.990  0.6664  0.4547 -1.3568
62700SOL     OW95339   9.592  10.401   2.305 -0.1053 -0.2333  0.1643
62700SOL    HW195340   9.591  10.430   2.397 -0.1540 -0.5454  0.2650
62700SOL    HW295341   9.645  10.322   2.306 -1.1038 -0.9297  0.1370
62701SOL     OW95342  12.699   2.154   0.651  0.0239  0.9094 -0.1374
62701SOL    HW195343  12.739   2.222   0.706 -1.2826  1.0601  0.7029
62701SOL    HW295344  12.690   2.079   0.710 -0.1916  0.6272 -0.5307
62702SOL     OW95345  10.342   3.930   0.985  0.5073  0.4029  0.2178
62702SOL    HW195346  10.337   4.014   1.029  0.9274  0.9509 -0.7530
62702SOL    HW295347  10.409   3.941   0.918  0.3513 -0.6060 -0.1317
62703SOL     OW95348   2.055   3.339   4.442  0.2516 -0.3954 -0.3175
62703SOL    HW195349   2.051   3.258   4.392  2.4021 -2.0800  2.0116
62703SOL    HW295350   2.147   3.349   4.466 -0.3027  1.5215  1.3425
62704SOL     OW95351   8.468   8.563  11.276 -0.4792  0.4193 -0.2826
62704SOL    HW195352   8.408   8.518  11.337 -0.4889 -0.3781 -0.8649
62704SOL    HW295353   8.531   8.496  11.251  0.8401  1.3061  0.5077
62705SOL     OW95354   3.882   2.354  12.628 -0.5471  0.3839  0.4228
62705SOL    HW195355   3.923   2.439  12.614 -1.9808  0.7559 -2.1117
62705SOL    HW295356   3.871   2.318  12.540 -3.1102 -0.8775  1.1664
62706SOL     OW95357   4.583   7.534  10.800 -0.0739  0.0202  0.2064
62706SOL    HW195358   4.647   7.601  10.821 -1.0520  1.2600 -0.6376
62706SOL    HW295359   4.499   7.580  10.799 -0.8426 -1.3102  0.0710
62707SOL     OW95360   2.289   9.579   3.848 -0.1782  0.8985  0.3722
62707SOL    HW195361   2.347   9.543   3.915 -0.2287  0.9935  0.4660
62707SOL    HW295362   2.201   9.555   3.876 -0.1591  0.3343 -0.0186
62708SOL     OW95363   2.162   6.588  10.993  0.2299 -0.1627  0.1928
62708SOL    HW195364   2.096   6.653  11.018  1.0381  0.6512  0.2279
62708SOL    HW295365   2.204   6.625  10.916  0.7087 -0.6404  0.2211
62709SOL     OW95366   2.733   2.134   2.424  0.0609 -0.3800 -0.3156
62709SOL    HW195367   2.692   2.150   2.509 -0.8897 -0.1612 -0.8055
62709SOL    HW295368   2.697   2.202   2.366  0.3207 -0.8214 -1.0117
62710SOL     OW95369   4.101   4.737  12.418 -0.0872  0.0873 -0.6445
62710SOL    HW195370   4.197   4.736  12.419 -0.0437 -1.6317 -1.5013
62710SOL    HW295371   4.076   4.682  12.493 -0.3874  0.1487 -0.6976
62711SOL     OW95372  12.255   6.924   2.841  0.1728  0.2872 -0.3797
62711SOL    HW195373  12.260   6.870   2.762  0.1033  0.8433 -0.7651
62711SOL    HW295374  12.209   6.868   2.904 -0.8832  0.2849 -1.1155
62712SOL     OW95375  12.182   1.369   2.273 -0.2936  0.4609  0.1678
62712SOL    HW195376  12.190   1.367   2.368 -0.8573 -0.4424  0.2104
62712SOL    HW295377  12.263   1.410   2.242 -0.4855  1.5484  1.0726
62713SOL     OW95378  11.621   9.806   9.261  0.4268 -0.0510 -0.2093
62713SOL    HW195379  11.553   9.847   9.314 -0.3200 -0.8941 -0.5024
62713SOL    HW295380  11.648   9.874   9.199 -0.2566  0.2331 -0.1980
62714SOL     OW95381   3.675   6.388  11.747 -0.1207  0.1897 -0.6010
62714SOL    HW195382   3.713   6.326  11.685  0.5787  0.2220 -0.2105
62714SOL    HW295383   3.638   6.333  11.817 -0.8882  0.1548 -1.0180
62715SOL     OW95384   4.706  10.894   8.777 -0.1291 -0.5493 -0.0705
62715SOL    HW195385   4.651  10.849   8.713 -0.4203 -0.4977  0.1467
62715SOL    HW295386   4.702  10.986   8.752  0.0337 -0.5730 -0.1853
62716SOL     OW95387   6.803   2.034   9.277 -0.0611 -0.1844  0.0729
62716SOL    HW195388   6.769   1.998   9.195 -1.2374 -0.1293  0.5176
62716SOL    HW295389   6.882   1.983   9.295  0.5792  0.2284 -1.4144
62717SOL     OW95390   5.691   4.098  11.997  0.6422  0.0463  0.3088
62717SOL    HW195391   5.764   4.061  12.047  1.1965  1.6527  0.7212
62717SOL    HW295392   5.627   4.123  12.063 -0.8278 -2.3215 -0.0928
62718SOL     OW95393   0.327   6.558  11.282  0.1036 -0.1635  0.1674
62718SOL    HW195394   0.353   6.641  11.322  3.0572 -0.9488  0.1392
62718SOL    HW295395   0.336   6.573  11.188 -0.3027 -0.2409  0.1157
62719SOL     OW95396   9.858  12.456   9.324  0.0163 -0.6052  0.2577
62719SOL    HW195397   9.874  12.406   9.244 -0.3288 -0.9982  0.4364
62719SOL    HW295398   9.843  12.546   9.293  0.6917 -0.5954 -0.0576
62720SOL     OW95399   2.800  11.293  10.444  0.1427  0.1761  1.2352
62720SOL    HW195400   2.709  11.308  10.468  0.5382  2.5685  1.4203
62720SOL    HW295401   2.851  11.345  10.506  1.6310 -0.8357  0.9171
62721SOL     OW95402  10.630  10.623   7.758 -0.0290 -0.1957  0.1055
62721SOL    HW195403  10.723  10.626   7.738 -0.2565 -0.3054 -1.0409
62721SOL    HW295404  10.590  10.688   7.701 -0.7058 -0.4444  0.2793
62722SOL     OW95405  10.475  12.347   7.973  0.2123 -0.3868 -0.2794
62722SOL    HW195406  10.386  12.353   7.938  0.2646  1.6706 -0.1858
62722SOL    HW295407  10.462  12.321   8.065 -0.2177 -0.9968 -0.5044
62723SOL     OW95408   0.557   8.998   0.864  0.3003  0.2400  0.1086
62723SOL    HW195409   0.640   9.037   0.890  0.1541 -0.2740  1.4163
62723SOL    HW295410   0.524   9.056   0.795  1.8926  0.2528 -0.6960
62724SOL     OW95411   7.115  11.207   6.242 -0.2882  0.1855  0.5090
62724SOL    HW195412   7.172  11.154   6.186 -0.6542  1.5968 -1.3019
62724SOL    HW295413   7.176  11.260   6.294  0.0773  0.5718 -0.2948
62725SOL     OW95414   5.809   8.005   3.164 -0.0647  0.6030  0.1114
62725SOL    HW195415   5.760   7.954   3.229  0.5520  0.4694  0.4728
62725SOL    HW295416   5.859   8.068   3.215  0.8267  0.1535 -0.1955
62726SOL     OW95417   2.180  10.525   1.717  0.7871 -0.6804  0.0605
62726SOL    HW195418   2.156  10.460   1.651 -0.3302 -0.4823  0.2509
62726SOL    HW295419   2.154  10.608   1.680  1.4229 -0.4152  0.1861
62727SOL     OW95420   3.494  11.031  10.046  0.3513  0.2202  0.5376
62727SOL    HW195421   3.572  10.989  10.009 -0.6296 -0.4562 -0.8607
62727SOL    HW295422   3.514  11.124  10.044  0.7811  0.1149 -0.6576
62728SOL     OW95423   5.515   1.624   8.189 -0.2036 -0.1498 -0.1040
62728SOL    HW195424   5.428   1.664   8.183  0.5887  1.7805  0.4146
62728SOL    HW295425   5.520   1.566   8.114 -1.8172 -0.0543 -0.3277
62729SOL     OW95426  12.435  12.438   1.192  0.4107  0.2485 -0.0492
62729SOL    HW195427  12.388  12.354   1.200  0.3485  0.0802 -1.8585
62729SOL    HW295428  12.516  12.415   1.147  0.9304  0.9987  0.4918
62730SOL     OW95429   3.118   5.001   8.917  0.6580  0.4305  0.4229
62730SOL    HW195430   3.112   4.928   8.979  0.4500  0.0944  0.0113
62730SOL    HW295431   3.046   4.986   8.856  0.5513  1.0387  0.3945
62731SOL     OW95432  12.655   4.311   2.928  0.6089 -0.0994  0.3954
62731SOL    HW195433  12.603   4.240   2.891  0.7158  1.1363 -2.3376
62731SOL    HW295434  12.620   4.323   3.016 -0.6580 -2.2643  0.2456
62732SOL     OW95435   0.032   5.986   7.609 -0.2856  0.4712 -0.2333
62732SOL    HW195436   0.045   6.060   7.551 -0.8559 -0.9035 -2.2199
62732SOL    HW295437  -0.032   5.931   7.564 -0.9035 -0.5946  1.8011
62733SOL     OW95438   0.052   8.313   5.253 -0.3753  0.8726 -0.0671
62733SOL    HW195439   0.048   8.392   5.307 -0.6798  1.1321 -0.4636
62733SOL    HW295440  -0.023   8.321   5.194 -0.5769  0.1393  0.0884
62734SOL     OW95441   3.012   2.845   7.923 -0.3259  0.0187  0.0953
62734SOL    HW195442   3.103   2.842   7.951 -0.2526  0.4492 -0.1023
62734SOL    HW295443   2.963   2.806   7.997  0.1063 -1.1454 -0.2071
62735SOL     OW95444   3.167   8.032   3.153 -0.5022  0.6277  0.0967
62735SOL    HW195445   3.245   8.067   3.196 -0.9486  2.3631 -0.4118
62735SOL    HW295446   3.100   8.032   3.222 -0.0656 -0.8898  0.5405
62736SOL     OW95447   9.455   5.840  12.654 -0.7324 -0.2657  0.0836
62736SOL    HW195448   9.444   5.752  12.617  1.3897 -0.2162 -0.7876
62736SOL    HW295449   9.521   5.829  12.722 -0.5569  0.6274  0.0640
62737SOL     OW95450   6.719   7.144   9.763 -0.2383  0.1999  0.4561
62737SOL    HW195451   6.660   7.149   9.837 -0.0347 -0.9233  0.7176
62737SOL    HW295452   6.799   7.105   9.799  0.0231  0.0613 -0.2586
62738SOL     OW95453   2.047  12.699   7.019  0.0496 -0.1741  0.2260
62738SOL    HW195454   2.045  12.705   6.924 -0.9126 -0.6361  0.2029
62738SOL    HW295455   2.108  12.768   7.047 -0.8397  0.9885 -0.6321
62739SOL     OW95456   4.177   9.242   3.534  0.1872  0.3247  0.1395
62739SOL    HW195457   4.123   9.208   3.605  0.1458  1.5420  0.7306
62739SOL    HW295458   4.130   9.218   3.454 -0.6122  0.3396  0.5942
62740SOL     OW95459   0.969   2.272   0.958 -0.2387 -0.2536 -0.3412
62740SOL    HW195460   0.966   2.178   0.979  0.8152 -0.1948  0.1317
62740SOL    HW295461   0.886   2.306   0.992 -1.1308 -1.1881 -1.4954
62741SOL     OW95462   9.102  12.513   2.000  0.1811  0.1865 -0.4207
62741SOL    HW195463   9.015  12.552   2.006  1.0232  2.1611  0.0370
62741SOL    HW295464   9.092  12.439   1.941 -1.9217 -0.0140  0.1267
62742SOL     OW95465  10.250   4.256   0.982  0.7114 -0.0281  0.1167
62742SOL    HW195466  10.268   4.345   1.013 -0.8255  0.0253  0.9742
62742SOL    HW295467  10.155   4.246   0.994  0.5582 -1.1510 -1.6843
62743SOL     OW95468  12.205  10.061  11.591  0.6540  0.1520 -0.2376
62743SOL    HW195469  12.151  10.092  11.664 -1.0507 -1.8404 -0.5547
62743SOL    HW295470  12.212  10.135  11.532 -0.5357  0.8783  0.5057
62744SOL     OW95471   6.487   3.384   9.549  0.0668  0.0955  0.9845
62744SOL    HW195472   6.506   3.477   9.537  2.3680 -0.5448 -1.3259
62744SOL    HW295473   6.438   3.360   9.470  2.6221 -1.2977 -0.3006
62745SOL     OW95474   5.539   6.545   1.963 -0.4805  0.6901  0.6307
62745SOL    HW195475   5.571   6.579   1.880 -0.8564 -1.4676 -0.4860
62745SOL    HW295476   5.486   6.615   2.000 -2.4520  0.8964 -2.2214
62746SOL     OW95477   6.113  12.036  11.911  0.1048  0.4715 -0.2471
62746SOL    HW195478   6.092  12.014  12.002 -0.3306 -0.1552 -0.4863
62746SOL    HW295479   6.166  12.115  11.916  1.8167 -0.6728  0.6835
62747SOL     OW95480   3.416   2.383   0.387 -0.0490 -0.1408  0.5223
62747SOL    HW195481   3.491   2.324   0.386  0.4727  0.5129  0.3223
62747SOL    HW295482   3.383   2.380   0.297  0.7248  0.7888  0.1878
62748SOL     OW95483   8.382  11.983   3.962 -0.2755 -0.4097 -0.0708
62748SOL    HW195484   8.386  12.055   3.898 -0.7403  0.0311  0.3860
62748SOL    HW295485   8.415  12.022   4.043  0.2981 -0.9645 -0.0264
62749SOL     OW95486   8.952   6.629   7.970 -0.4049  0.5504 -0.2116
62749SOL    HW195487   8.981   6.613   8.060 -0.8263  0.3904 -0.0999
62749SOL    HW295488   9.031   6.653   7.923 -0.3411  1.7387  0.4586
62750SOL     OW95489   8.739   8.893   3.684 -0.7873 -0.5096 -0.5248
62750SOL    HW195490   8.654   8.931   3.704 -1.3938 -1.7053 -0.7655
62750SOL    HW295491   8.771   8.945   3.610 -1.0214  0.3377 -0.0465
62751SOL     OW95492   4.857   6.871   3.448 -0.5444  0.0077 -0.9948
62751SOL    HW195493   4.894   6.937   3.507 -1.5630  0.2584 -0.6177
62751SOL    HW295494   4.877   6.787   3.488 -4.3202  0.1743  1.7664
62752SOL     OW95495  11.333   2.894  10.673 -0.3492 -0.1205 -0.1336
62752SOL    HW195496  11.420   2.905  10.711 -0.3171 -0.2483 -0.1706
62752SOL    HW295497  11.349   2.896  10.578 -0.4272  0.1913 -0.1428
62753SOL     OW95498   6.602   9.606   2.165 -0.0600  0.0217  0.2344
62753SOL    HW195499   6.652   9.686   2.177  1.6221 -0.9064 -0.2679
62753SOL    HW295500   6.557   9.592   2.249  0.4834  0.9142  0.6827
62754SOL     OW95501  10.275   1.845   7.955  0.0440 -0.2126 -0.4313
62754SOL    HW195502  10.213   1.822   7.886  0.9740 -0.1357 -1.3170
62754SOL    HW295503  10.223   1.845   8.035 -0.8750 -1.1677 -1.0055
62755SOL     OW95504   2.724   2.348   0.990  0.1936 -0.1269  0.8500
62755SOL    HW195505   2.677   2.346   0.907  2.6245  0.4000 -0.6444
62755SOL    HW295506   2.657   2.329   1.056 -2.0291  0.4169 -1.1027
62756SOL     OW95507  11.640   2.842   3.739 -1.1831  0.3974  0.0061
62756SOL    HW195508  11.563   2.898   3.742 -0.8946  0.7706  0.9566
62756SOL    HW295509  11.631   2.785   3.815 -0.3467  0.6967  0.3415
62757SOL     OW95510   9.757   0.275   3.869 -0.1745 -0.2890 -0.0612
62757SOL    HW195511   9.822   0.230   3.923 -0.2778 -0.1354  0.1961
62757SOL    HW295512   9.805   0.303   3.791 -0.0969 -0.7901 -0.1974
62758SOL     OW95513   1.347  11.189   9.685  0.4394 -0.1272 -0.5592
62758SOL    HW195514   1.414  11.153   9.743 -0.5644 -0.8737  0.1575
62758SOL    HW295515   1.333  11.278   9.717 -0.6192 -0.7644  0.8320
62759SOL     OW95516  10.535  11.958   5.997  0.6571 -0.4039  0.0922
62759SOL    HW195517  10.623  11.950   6.034  0.5787 -1.0061  0.1552
62759SOL    HW295518  10.488  12.014   6.059  1.1316  0.3245 -0.1941
62760SOL     OW95519   1.339  10.971   0.820  0.4233 -0.1116 -0.2668
62760SOL    HW195520   1.316  10.968   0.728 -1.3837  1.6227  0.0507
62760SOL    HW295521   1.342  11.065   0.841  1.2656 -0.4502  1.3223
62761SOL     OW95522   3.704   2.510   9.547 -0.4637 -0.2770  0.4637
62761SOL    HW195523   3.701   2.604   9.563 -1.1958 -0.0472 -0.9516
62761SOL    HW295524   3.627   2.491   9.494  0.0766 -1.5580  0.0942
62762SOL     OW95525   6.799  10.439  12.333  0.8878  0.4550 -0.0117
62762SOL    HW195526   6.790  10.532  12.309  0.3207  0.4971  0.3454
62762SOL    HW295527   6.833  10.440  12.422  3.2493  0.2915 -0.8537
62763SOL     OW95528   6.609   8.419   5.201 -0.1934 -0.2105  0.1080
62763SOL    HW195529   6.558   8.378   5.130 -0.7336  0.2277  0.2384
62763SOL    HW295530   6.553   8.411   5.278  0.6670 -1.2736  0.6496
62764SOL     OW95531   3.755   9.360   3.386 -0.4362  0.1220 -0.2393
62764SOL    HW195532   3.782   9.276   3.423  0.6612  1.2284  1.6820
62764SOL    HW295533   3.679   9.340   3.332  1.6665 -2.5565 -2.4757
62765SOL     OW95534   5.340   1.745   1.690 -0.5208  0.3271  0.0545
62765SOL    HW195535   5.312   1.834   1.708  1.7045  1.3144 -1.0752
62765SOL    HW295536   5.344   1.739   1.595  0.7503 -0.4914  0.1257
62766SOL     OW95537   8.956   2.362   5.424 -0.0722 -0.4167  0.1445
62766SOL    HW195538   9.035   2.328   5.466  1.8906  1.2248 -1.9556
62766SOL    HW295539   8.910   2.409   5.493  2.7482  1.7498  0.7245
62767SOL     OW95540  10.965  10.287  10.942  0.2044 -0.4716  0.2149
62767SOL    HW195541  10.938  10.372  10.978 -0.1134 -0.6253  0.3435
62767SOL    HW295542  10.930  10.223  11.003  1.8187 -0.6538  1.0009
62768SOL     OW95543   8.331   4.494   9.166 -0.1310  0.2654 -0.3646
62768SOL    HW195544   8.366   4.475   9.079 -0.6508 -0.8172 -0.3457
62768SOL    HW295545   8.357   4.419   9.219 -3.1246 -1.0302 -0.5307
62769SOL     OW95546   7.398  12.448  10.125  0.0255 -0.3322 -0.0676
62769SOL    HW195547   7.383  12.423  10.034 -0.5274  0.3220 -0.1605
62769SOL    HW295548   7.322  12.501  10.148 -0.0928 -0.9242  0.9416
62770SOL     OW95549  11.211  11.544   7.344 -0.1058 -0.5635  0.1889
62770SOL    HW195550  11.192  11.482   7.273 -2.4575 -1.9280  1.8778
62770SOL    HW295551  11.307  11.549   7.347  0.0821 -1.2355 -2.3687
62771SOL     OW95552   8.193   7.904   1.808  0.1292 -0.3847 -0.9184
62771SOL    HW195553   8.286   7.926   1.818  0.2158 -0.3214 -1.8182
62771SOL    HW295554   8.171   7.857   1.888  0.6499  0.5588 -0.2031
62772SOL     OW95555   0.420   7.179   9.897 -0.0284 -0.6049  0.2261
62772SOL    HW195556   0.451   7.249   9.840 -1.7367  1.4960  1.6813
62772SOL    HW295557   0.434   7.099   9.848  2.7143  0.6482 -1.2403
62773SOL     OW95558  10.257   9.315   7.997 -0.0810  0.6238 -0.9338
62773SOL    HW195559  10.259   9.393   7.942 -0.9873  1.4618  0.1765
62773SOL    HW295560  10.194   9.335   8.066  0.2743 -0.7774 -0.1506
62774SOL     OW95561   0.890   5.438   5.012  0.2704  0.2394 -0.3978
62774SOL    HW195562   0.818   5.374   5.007 -0.1282  0.8058 -2.7981
62774SOL    HW295563   0.873   5.485   5.094 -0.9059 -0.9993  0.1237
62775SOL     OW95564   9.415   8.165   6.899  0.5437  0.1771  0.5114
62775SOL    HW195565   9.473   8.241   6.899  1.0606 -0.1984 -0.7568
62775SOL    HW295566   9.394   8.151   6.807  0.6379 -1.3700  0.7079
62776SOL     OW95567   7.625  10.434   0.470  0.2229  0.4986 -0.5505
62776SOL    HW195568   7.607  10.428   0.377  0.0445 -0.6775 -0.4653
62776SOL    HW295569   7.553  10.387   0.512 -0.1354  1.7070  0.2454
62777SOL     OW95570   2.981   9.913   9.627  0.3853 -0.4090 -0.2169
62777SOL    HW195571   2.975  10.006   9.606  1.2058 -0.6356 -1.6041
62777SOL    HW295572   2.891   9.881   9.619  0.2052  0.1307 -0.4113
62778SOL     OW95573   4.690   6.357   5.832  0.4037  0.6357  0.1509
62778SOL    HW195574   4.724   6.417   5.765 -1.5651  1.3061 -0.3141
62778SOL    HW295575   4.606   6.394   5.856 -1.6828 -2.7107 -1.2887
62779SOL     OW95576   1.426  10.817   1.485  0.3792  0.0284  0.2322
62779SOL    HW195577   1.376  10.800   1.405 -1.8085  2.3211  0.9921
62779SOL    HW295578   1.394  10.751   1.547 -0.1412  0.1374  0.0838
62780SOL     OW95579   0.850   9.526   3.893  0.3809 -0.0287  0.1757
62780SOL    HW195580   0.778   9.504   3.952 -1.5392 -1.2591 -2.4243
62780SOL    HW295581   0.847   9.622   3.887 -1.8476 -0.0930 -0.7359
62781SOL     OW95582   2.752  12.335   0.399 -0.0942 -0.7442  0.0889
62781SOL    HW195583   2.694  12.295   0.334  0.0025 -1.1157  0.2318
62781SOL    HW295584   2.828  12.277   0.402  0.1677 -0.4018  0.0976
62782SOL     OW95585   0.690  11.184   7.980  0.3989 -0.2396  0.3008
62782SOL    HW195586   0.659  11.148   8.064  0.8713 -2.6979 -0.4961
62782SOL    HW295587   0.779  11.214   7.998 -0.0408  0.6977  1.0121
62783SOL     OW95588   6.926   8.783   3.066  0.1597 -0.1004 -0.0169
62783SOL    HW195589   6.950   8.728   2.992  1.1847 -1.2127  1.1017
62783SOL    HW295590   6.999   8.776   3.127  0.5732  2.8742  0.0174
62784SOL     OW95591   7.340   0.386   0.689 -0.2678  0.0379  0.6579
62784SOL    HW195592   7.412   0.403   0.749 -0.5187 -0.3352  1.0721
62784SOL    HW295593   7.320   0.293   0.702 -1.0236  0.2089  0.7679
62785SOL     OW95594  10.936   5.912   2.919 -0.3254  0.5321 -0.1834
62785SOL    HW195595  11.027   5.919   2.892 -0.3984 -0.4880 -0.7465
62785SOL    HW295596  10.889   5.974   2.864  0.3604  3.2299  2.0527
62786SOL     OW95597   3.134   7.881   5.709  0.8098  0.6373 -0.5573
62786SOL    HW195598   3.188   7.821   5.659  0.4004  0.3321 -0.6456
62786SOL    HW295599   3.179   7.965   5.704  1.8323  0.1661  0.2629
62787SOL     OW95600  12.036   1.753   8.719  0.3429 -0.6645  0.2418
62787SOL    HW195601  12.047   1.754   8.624 -1.0521 -0.4972  0.0666
62787SOL    HW295602  12.090   1.825   8.750  1.7812 -1.4734 -0.2932
62788SOL     OW95603   1.164   8.930   8.028 -0.0996 -0.2193 -0.4246
62788SOL    HW195604   1.115   8.885   7.960 -1.7831  0.7897  0.0557
62788SOL    HW295605   1.126   9.018   8.031 -0.2969 -0.2993  1.9652
62789SOL     OW95606   0.302   2.133   1.458  0.4191 -0.3911  0.7015
62789SOL    HW195607   0.371   2.139   1.393 -0.4462 -2.9625 -0.5852
62789SOL    HW295608   0.306   2.216   1.506  2.5522  0.6438 -1.1297
62790SOL     OW95609  12.569   5.926   7.815  0.0799  0.2509 -0.1391
62790SOL    HW195610  12.559   5.840   7.857 -1.2325 -0.1602 -1.2278
62790SOL    HW295611  12.641   5.914   7.753 -0.6460 -0.3252 -0.8894
62791SOL     OW95612  10.392   3.829   3.147 -0.5402 -0.7425  0.0284
62791SOL    HW195613  10.462   3.894   3.148 -1.1106 -0.1194  0.1841
62791SOL    HW295614  10.427   3.756   3.095 -0.6910  0.5968 -2.0691
62792SOL     OW95615   4.023   0.026   4.434  0.2165  0.8325  0.7897
62792SOL    HW195616   3.935   0.058   4.456  0.2926  0.4461  1.6774
62792SOL    HW295617   4.029  -0.059   4.478 -0.0188 -0.5031 -1.5861
62793SOL     OW95618   1.993  11.505   2.185  0.1176 -0.5016 -0.3833
62793SOL    HW195619   1.987  11.588   2.233 -0.0625 -0.5452 -0.3331
62793SOL    HW295620   2.004  11.532   2.094 -0.8842 -0.4193 -0.4915
62794SOL     OW95621   7.296   0.527   2.392 -0.0765 -0.2107  0.1188
62794SOL    HW195622   7.221   0.540   2.334 -0.0480 -2.0308 -0.3825
62794SOL    HW295623   7.319   0.435   2.382  0.9200 -0.2030  1.8627
62795SOL     OW95624   3.248   8.687   5.034 -0.1129  0.4680 -0.2907
62795SOL    HW195625   3.162   8.695   4.991  0.3226 -1.2154 -1.5967
62795SOL    HW295626   3.241   8.607   5.086 -0.0509  1.5614  1.4539
62796SOL     OW95627   7.342  10.130   9.253 -0.2468 -0.3347  0.3904
62796SOL    HW195628   7.293  10.134   9.335  0.5029 -1.0144  0.8747
62796SOL    HW295629   7.342  10.221   9.221 -0.2767 -0.0066  1.2932
62797SOL     OW95630  10.099   8.728   0.640  0.2187 -0.3322 -0.3189
62797SOL    HW195631  10.068   8.676   0.565  0.5628 -1.3774  0.2458
62797SOL    HW295632  10.163   8.788   0.602 -0.4404 -0.0687 -1.0423
62798SOL     OW95633   5.278  11.304   9.052 -0.5673  0.7747  0.3785
62798SOL    HW195634   5.222  11.258   9.114 -0.0393  0.7270  0.8218
62798SOL    HW295635   5.296  11.239   8.984  0.2593  0.2778  1.0541
62799SOL     OW95636   4.682   2.718  12.298  0.0174 -1.1130 -0.4978
62799SOL    HW195637   4.661   2.807  12.267 -0.2158 -0.9591  0.0963
62799SOL    HW295638   4.600   2.669  12.287  0.1977 -1.3133 -1.0043
62800SOL     OW95639   7.036   8.434   5.546  0.7554 -0.0248 -0.5249
62800SOL    HW195640   7.068   8.480   5.469  0.5968 -0.6696 -0.9858
62800SOL    HW295641   7.012   8.347   5.514  3.6493 -1.4647  0.7795
62801SOL     OW95642   0.539   7.841   4.134  0.0723  0.2718  0.1893
62801SOL    HW195643   0.456   7.861   4.177  0.2090  2.4348 -0.4241
62801SOL    HW295644   0.606   7.859   4.200  0.2043  2.2359 -0.4088
62802SOL     OW95645   9.575   2.588   1.829 -0.0280  0.3765 -0.3268
62802SOL    HW195646   9.540   2.637   1.902  1.5787  0.5294  0.3767
62802SOL    HW295647   9.587   2.653   1.759 -0.5732  0.4247 -0.3809
62803SOL     OW95648   9.777  11.362  10.569  0.7763  0.0572 -0.1484
62803SOL    HW195649   9.851  11.407  10.529  1.4635 -1.8654 -1.1644
62803SOL    HW295650   9.815  11.289  10.617 -0.4173 -0.6922 -0.2869
62804SOL     OW95651   2.198   8.420   8.671  0.1037 -0.2904  0.0998
62804SOL    HW195652   2.206   8.414   8.576  0.8272  1.1249  0.0409
62804SOL    HW295653   2.148   8.501   8.685 -0.3695 -0.7194  0.9088
62805SOL     OW95654   9.764  11.596  11.129  1.1380  0.2814  0.0040
62805SOL    HW195655   9.755  11.629  11.039 -0.8465  0.3942  0.2129
62805SOL    HW295656   9.719  11.512  11.128  3.1378 -0.8785  0.3579
62806SOL     OW95657   9.235   8.428   2.920 -0.7735 -0.0687 -0.7742
62806SOL    HW195658   9.211   8.337   2.903 -1.3448 -0.6751  2.6698
62806SOL    HW295659   9.331   8.428   2.919 -0.7643 -0.7499 -0.5730
62807SOL     OW95660   4.829   0.131  11.945 -0.2161 -0.2143  0.3498
62807SOL    HW195661   4.773   0.099  12.015 -1.1397 -1.1912 -0.7921
62807SOL    HW295662   4.827   0.226  11.953 -0.4363 -0.3087  1.5267
62808SOL     OW95663  11.805   8.074   6.625 -0.3795 -0.1447  0.0839
62808SOL    HW195664  11.718   8.059   6.661  0.0794  0.6596  1.6021
62808SOL    HW295665  11.809   8.017   6.548 -2.6121  0.5477 -0.6329
62809SOL     OW95666  10.558   5.174  12.455 -0.2796 -0.0984 -0.3704
62809SOL    HW195667  10.472   5.154  12.417 -1.2982 -0.0981  1.7756
62809SOL    HW295668  10.538   5.223  12.535  1.7787  0.7507 -0.2994
62810SOL     OW95669  12.355   7.486   3.787  0.3452  0.4838 -0.2316
62810SOL    HW195670  12.300   7.458   3.714  0.2831 -0.3425  0.1178
62810SOL    HW295671  12.300   7.475   3.865  0.4444  1.2551 -0.0402
62811SOL     OW95672   3.723   2.296   9.225  0.3835 -0.0373 -0.0816
62811SOL    HW195673   3.801   2.243   9.210 -1.8313 -3.3159 -1.2089
62811SOL    HW295674   3.661   2.236   9.267 -1.7320  2.2575  0.3021
62812SOL     OW95675   2.507   7.878   9.427  0.0585  0.0305  0.4197
62812SOL    HW195676   2.420   7.902   9.460  0.1856 -0.6126  1.2656
62812SOL    HW295677   2.568   7.927   9.483  0.2457  1.7231 -1.1839
62813SOL     OW95678   3.094   5.936   4.238 -0.1656  0.6242 -0.3530
62813SOL    HW195679   3.151   5.988   4.295 -0.9680  1.3408 -0.1674
62813SOL    HW295680   3.031   5.895   4.297  0.4133 -0.5279 -0.5087
62814SOL     OW95681   5.394   3.484   3.347 -0.3524  0.0409 -0.0213
62814SOL    HW195682   5.354   3.431   3.416 -0.7775  0.6206  0.1854
62814SOL    HW295683   5.376   3.435   3.266  0.0582 -0.5868  0.2541
62815SOL     OW95684   6.977   2.505   8.252 -0.3625  0.1821  0.1960
62815SOL    HW195685   7.062   2.463   8.260 -0.5929  0.0151  2.8707
62815SOL    HW295686   6.994   2.598   8.266 -0.5248  0.2601 -0.1086
62816SOL     OW95687  12.170   0.101  11.853 -0.1094  0.2108  0.1038
62816SOL    HW195688  12.259   0.074  11.876 -0.2439  1.1772  1.9799
62816SOL    HW295689  12.172   0.197  11.857 -0.6344  0.3992 -2.4026
62817SOL     OW95690   9.610   7.248   1.534  0.0227 -0.1640  0.5985
62817SOL    HW195691   9.558   7.204   1.601  0.4910 -0.0233  1.0607
62817SOL    HW295692   9.547   7.300   1.484 -0.3993 -0.6615  0.6125
62818SOL     OW95693  10.823  10.443   0.839  0.3304 -0.2094 -0.2146
62818SOL    HW195694  10.911  10.452   0.877 -0.1560 -1.4206  1.3117
62818SOL    HW295695  10.783  10.371   0.888 -0.4314 -1.8060 -2.9115
62819SOL     OW95696   2.808  12.158   8.919  0.0862  0.1828  0.1684
62819SOL    HW195697   2.835  12.250   8.922 -0.6088  0.5068 -2.0400
62819SOL    HW295698   2.804  12.132   9.011  2.8437  1.5795  0.7882
62820SOL     OW95699   4.908   2.473  10.068  0.6024 -0.0094  0.4703
62820SOL    HW195700   4.839   2.413  10.041  3.0988 -3.1481  0.4610
62820SOL    HW295701   4.912   2.538   9.998 -1.2910 -0.6170 -0.2587
62821SOL     OW95702  11.998   1.567  10.992  0.2222 -0.2837  0.4354
62821SOL    HW195703  11.937   1.513  10.942  1.8966 -1.8896 -0.0022
62821SOL    HW295704  11.966   1.564  11.082 -0.3520 -1.0761  0.2124
62822SOL     OW95705   5.165   9.991   7.886 -0.5379  0.2189  0.0837
62822SOL    HW195706   5.213   9.990   7.969 -0.9437  0.4412  0.3274
62822SOL    HW295707   5.221   9.943   7.825 -0.2626  0.0032  0.5013
62823SOL     OW95708  11.463   4.333   3.223 -0.4941  0.4555 -0.2973
62823SOL    HW195709  11.492   4.424   3.207  0.5411  0.0312 -0.9959
62823SOL    HW295710  11.447   4.329   3.317  2.4708  0.5745  0.3183
62824SOL     OW95711   6.115   5.360   8.293 -0.3428 -0.1431  0.7383
62824SOL    HW195712   6.070   5.388   8.214  0.0889  1.1869  0.9385
62824SOL    HW295713   6.202   5.401   8.287 -0.3243  0.0268  1.9149
62825SOL     OW95714   2.115   7.648   5.827 -0.6516 -0.3176  0.4427
62825SOL    HW195715   2.088   7.609   5.910  0.0720  1.8177  1.7596
62825SOL    HW295716   2.072   7.733   5.825  1.2385  0.6933 -0.1866
62826SOL     OW95717  12.589   3.389   3.044 -0.3658  0.0699  0.2014
62826SOL    HW195718  12.590   3.460   3.108  2.1121  0.8142 -0.5718
62826SOL    HW295719  12.520   3.415   2.982 -0.2955  1.1957  0.5716
62827SOL     OW95720   7.565   4.205   7.711  0.4042  0.4568  0.3539
62827SOL    HW195721   7.561   4.203   7.615  2.2513 -0.5698  0.2656
62827SOL    HW295722   7.577   4.114   7.736  2.1199  0.9478  1.4351
62828SOL     OW95723   2.509   7.481   7.684 -0.0254  0.4596 -0.0296
62828SOL    HW195724   2.592   7.442   7.714 -1.3677 -1.7459  1.1030
62828SOL    HW295725   2.513   7.474   7.589  1.0587  0.2806  0.0137
62829SOL     OW95726   1.107   8.353   5.753 -0.7396 -0.1862  0.1032
62829SOL    HW195727   1.126   8.367   5.660 -0.0228 -0.0338  0.2572
62829SOL    HW295728   1.072   8.265   5.758 -1.8046  0.1864 -0.4415
62830SOL     OW95729   6.257   9.724   2.725 -0.6896  0.2999 -0.5054
62830SOL    HW195730   6.323   9.732   2.657 -0.2534 -2.4096 -0.5305
62830SOL    HW295731   6.305   9.695   2.803 -1.6138 -0.1002 -0.0607
62831SOL     OW95732   3.718   9.360   5.260 -0.2216 -0.1212 -0.0935
62831SOL    HW195733   3.676   9.435   5.302  0.0121  0.0764 -0.2087
62831SOL    HW295734   3.649   9.317   5.210 -0.7251 -0.8783  1.1946
62832SOL     OW95735  10.039  10.740   0.808  0.5096  0.0200  0.1667
62832SOL    HW195736   9.959  10.687   0.804  1.0647 -0.9784  1.7088
62832SOL    HW295737  10.058  10.748   0.901  1.7281  1.0099 -0.1464
62833SOL     OW95738   3.453   7.426  10.727 -0.0199 -0.4300  0.5534
62833SOL    HW195739   3.361   7.447  10.717  0.4527  0.8729 -1.5460
62833SOL    HW295740   3.496   7.462  10.650  2.8425  2.3688  3.1368
62834SOL     OW95741   2.494   2.934   1.644  0.1566  0.1217  0.1105
62834SOL    HW195742   2.508   2.901   1.733  0.4112 -0.0061  0.0247
62834SOL    HW295743   2.495   2.855   1.589 -0.9946  0.0936  0.1035
62835SOL     OW95744   4.492   5.706  10.417  0.5003 -0.3871  0.1434
62835SOL    HW195745   4.467   5.732  10.506  0.5688 -1.5732  0.5282
62835SOL    HW295746   4.410   5.675  10.378  0.6436 -0.7286  0.1124
62836SOL     OW95747   8.189   8.856   4.472  0.1050 -0.1455 -0.2064
62836SOL    HW195748   8.115   8.863   4.412  0.2876  2.5543 -0.2367
62836SOL    HW295749   8.264   8.838   4.415  0.2437  2.1949 -0.8673
62837SOL     OW95750   6.733   1.908   6.294 -0.1289 -0.2362 -0.2243
62837SOL    HW195751   6.787   1.839   6.332  0.6925  0.4478 -0.1310
62837SOL    HW295752   6.692   1.950   6.370  3.5433  2.8603  0.3436
62838SOL     OW95753  10.699  12.381  10.497 -0.0666 -0.5278 -0.1315
62838SOL    HW195754  10.629  12.316  10.502 -0.4492 -0.1399 -0.4010
62838SOL    HW295755  10.697  12.411  10.406  0.3529 -0.4074 -0.1024
62839SOL     OW95756   3.450   0.098   1.871  0.0035 -0.5959 -0.3885
62839SOL    HW195757   3.359   0.067   1.867  0.0881 -1.2692  1.6980
62839SOL    HW295758   3.502   0.018   1.877  0.4818 -0.1825  1.5974
62840SOL     OW95759  12.258   3.472   6.685  0.1383  0.1686 -0.9431
62840SOL    HW195760  12.203   3.425   6.747  0.1404 -0.3335 -1.3186
62840SOL    HW295761  12.235   3.564   6.699  0.7494  0.1441  0.3839
62841SOL     OW95762  10.210   8.671   2.545  0.3412  0.0710  0.3080
62841SOL    HW195763  10.172   8.631   2.624 -1.2210  0.3050 -0.2915
62841SOL    HW295764  10.299   8.635   2.541  0.5591  0.2777  2.3177
62842SOL     OW95765   6.735   2.876   4.469 -0.2952 -0.3457 -0.1468
62842SOL    HW195766   6.666   2.811   4.453  1.9729 -2.4979 -1.9182
62842SOL    HW295767   6.746   2.921   4.385 -0.1583  0.6535  0.3929
62843SOL     OW95768   2.065   2.403   3.662 -0.3310  0.2504 -0.2018
62843SOL    HW195769   2.098   2.355   3.737 -0.6434 -2.3059 -1.5840
62843SOL    HW295770   2.009   2.340   3.616 -1.1078  2.0952 -1.9298
62844SOL     OW95771  11.538   8.871   0.894  0.6288  0.3467 -0.3695
62844SOL    HW195772  11.548   8.843   0.803 -0.3783 -2.2946  0.2346
62844SOL    HW295773  11.450   8.908   0.897  0.6959  0.5174 -0.4971
62845SOL     OW95774   7.113   3.404  11.766  0.6607  0.3189  0.2450
62845SOL    HW195775   7.189   3.463  11.766  0.5405  0.4869  1.4886
62845SOL    HW295776   7.074   3.415  11.852  0.4284 -1.3330  0.3730
62846SOL     OW95777   9.610   0.055   7.625  0.4286 -0.4763 -0.4209
62846SOL    HW195778   9.552   0.058   7.702  0.9950  1.0375 -0.0117
62846SOL    HW295779   9.555   0.086   7.553  0.8893  1.7754  0.1240
62847SOL     OW95780   9.129   0.112  10.191 -0.4336  0.0554 -0.1338
62847SOL    HW195781   9.162   0.083  10.276 -2.0635  0.3401  0.6493
62847SOL    HW295782   9.161   0.202  10.181  1.4547 -0.6432 -0.8033
62848SOL     OW95783   3.934   8.248   7.342 -0.0767 -0.0268 -0.0117
62848SOL    HW195784   3.855   8.285   7.380  0.7193  1.3486  0.3446
62848SOL    HW295785   3.907   8.214   7.257 -1.2187 -0.3802  0.4768
62849SOL     OW95786   0.786   3.913   9.301 -0.0186 -0.6424  0.2561
62849SOL    HW195787   0.706   3.861   9.299  0.1947 -0.9685 -0.6827
62849SOL    HW295788   0.845   3.868   9.239  0.9211 -0.4714  1.0017
62850SOL     OW95789   2.532  12.629   3.239 -0.4159  0.3856 -0.0411
62850SOL    HW195790   2.456  12.677   3.271 -1.1033 -0.2919 -0.6007
62850SOL    HW295791   2.561  12.575   3.313 -1.5853 -0.6784 -0.3263
62851SOL     OW95792   9.148  10.580   1.449 -0.3074 -0.4577 -0.1207
62851SOL    HW195793   9.194  10.663   1.439 -2.1373  0.4999 -1.0703
62851SOL    HW295794   9.080  10.582   1.382  0.2739 -3.2331 -0.9335
62852SOL     OW95795   8.491   4.790   6.995 -0.5022  0.4096 -0.6567
62852SOL    HW195796   8.444   4.858   6.947 -2.0731  1.6367  2.3390
62852SOL    HW295797   8.470   4.708   6.949 -2.1069  1.4548 -1.8631
62853SOL     OW95798   1.643  11.228   8.853  0.4127 -0.4250 -0.0003
62853SOL    HW195799   1.711  11.169   8.884  0.9811  1.5861  3.0146
62853SOL    HW295800   1.605  11.265   8.933 -0.7666  2.3072 -1.6685
62854SOL     OW95801   6.401   4.681   1.302  0.1965 -0.2836 -0.1943
62854SOL    HW195802   6.420   4.603   1.250 -0.5039  1.5360 -3.5086
62854SOL    HW295803   6.473   4.741   1.282 -0.5777  0.8125  0.1782
62855SOL     OW95804   0.391  10.933   5.050  0.3798 -0.1979  0.5490
62855SOL    HW195805   0.475  10.978   5.034 -0.9775  2.1945 -0.3649
62855SOL    HW295806   0.412  10.840   5.043  3.2117  0.2587  1.6709
62856SOL     OW95807   9.421   6.941   6.688  0.4158 -0.8209  0.7025
62856SOL    HW195808   9.495   6.917   6.632  0.1755  1.1928 -0.5785
62856SOL    HW295809   9.441   6.900   6.772  2.3246 -1.4313  0.0167
62857SOL     OW95810   5.071  12.707   4.550  0.1169 -0.2925  0.0460
62857SOL    HW195811   4.984  12.686   4.582 -0.0850 -0.6513 -0.7173
62857SOL    HW295812   5.063  12.796   4.514 -0.0976 -0.5563 -0.5782
62858SOL     OW95813   7.573   3.617   5.999 -0.2800 -0.4750  0.2673
62858SOL    HW195814   7.526   3.682   6.051  0.1852 -0.0135  0.1163
62858SOL    HW295815   7.529   3.534   6.019 -1.7353  0.0620 -0.5632
62859SOL     OW95816   8.937   7.479   8.330  0.3040 -0.8286 -0.1809
62859SOL    HW195817   8.951   7.393   8.371 -0.0859 -1.3375 -1.1083
62859SOL    HW295818   8.945   7.463   8.236 -0.6060 -0.0039 -0.4109
62860SOL     OW95819  11.619   9.141   2.393  0.3742  0.4556  0.0327
62860SOL    HW195820  11.606   9.060   2.344 -1.0453  0.7682 -0.1363
62860SOL    HW295821  11.644   9.112   2.481  2.7250 -0.1059 -0.7607
62861SOL     OW95822   0.314   0.755   2.056  0.2376 -0.5646  0.3916
62861SOL    HW195823   0.377   0.805   2.003  1.3693 -1.8026  0.5117
62861SOL    HW295824   0.247   0.728   1.993  0.4755 -0.2707  0.0039
62862SOL     OW95825   8.751   6.403   7.251  0.2112 -0.0683  0.1028
62862SOL    HW195826   8.838   6.364   7.258  0.6181  0.8130  0.1621
62862SOL    HW295827   8.706   6.353   7.184  0.6588 -0.7283  0.2950
62863SOL     OW95828   6.867   4.798   9.044  0.1560  0.2835 -0.0037
62863SOL    HW195829   6.928   4.769   9.111  1.3211  1.2618 -0.5965
62863SOL    HW295830   6.909   4.774   8.961 -0.4614  0.5891 -0.4197
62864SOL     OW95831  11.537   7.304   8.895 -0.6411  0.3399  0.7254
62864SOL    HW195832  11.501   7.383   8.935 -2.3059 -0.4312  0.8316
62864SOL    HW295833  11.527   7.318   8.801 -0.1989  0.5927  0.7180
62865SOL     OW95834   6.938   2.398   6.400 -0.1753  0.0391 -0.0772
62865SOL    HW195835   6.967   2.350   6.477  0.0566 -2.0762 -1.4045
62865SOL    HW295836   6.975   2.486   6.411  1.9039 -0.8986  1.0586
62866SOL     OW95837   7.831  12.380   1.682  0.1435  0.4547 -0.5348
62866SOL    HW195838   7.789  12.463   1.660  0.8239  0.7228 -0.8569
62866SOL    HW295839   7.788  12.352   1.763  1.1665  2.0487  0.6259
62867SOL     OW95840   6.153   6.214   1.826 -0.4167  0.1984 -0.1170
62867SOL    HW195841   6.108   6.291   1.860  1.5920  1.1529  0.4998
62867SOL    HW295842   6.243   6.224   1.854 -0.1748 -2.6799  0.4724
62868SOL     OW95843   5.592   6.450   4.190 -0.1394  0.1147 -0.9230
62868SOL    HW195844   5.610   6.534   4.149 -1.3042 -0.2428 -2.2501
62868SOL    HW295845   5.516   6.416   4.142 -1.6334 -0.3182  1.5670
62869SOL     OW95846  12.416   9.709  10.671 -0.9215 -0.0964 -0.3991
62869SOL    HW195847  12.356   9.683  10.601 -2.0598  0.2470  0.4282
62869SOL    HW295848  12.424   9.804  10.662 -1.9543  0.1060  0.5916
62870SOL     OW95849  12.397   4.662   6.535  0.2188  0.1309 -0.3663
62870SOL    HW195850  12.400   4.746   6.580  0.1906  0.7847 -1.5332
62870SOL    HW295851  12.330   4.673   6.467 -0.2751 -1.0654 -0.1072
62871SOL     OW95852  11.463   0.175   5.638  0.1333  0.1324  0.1429
62871SOL    HW195853  11.497   0.109   5.698 -0.0496 -0.5160 -0.4626
62871SOL    HW295854  11.524   0.249   5.647  2.2354 -1.2802 -1.5278
62872SOL     OW95855   2.292   7.976  12.529 -0.3098  0.3779  0.0985
62872SOL    HW195856   2.279   7.889  12.567  0.1874  0.2548  0.0018
62872SOL    HW295857   2.359   8.017  12.584 -0.0441  0.4368 -0.2627
62873SOL     OW95858   3.334  12.353   0.998 -0.2035 -0.3377 -0.1835
62873SOL    HW195859   3.343  12.392   0.911  0.8064  0.2815  0.1805
62873SOL    HW295860   3.318  12.427   1.056 -0.5840 -0.7174  0.2100
62874SOL     OW95861   6.046   9.612   7.200  0.0151  0.4201  0.2768
62874SOL    HW195862   6.061   9.565   7.282  1.4706  0.2580 -0.0556
62874SOL    HW295863   5.994   9.688   7.225 -0.6532 -0.2968  1.1365
62875SOL     OW95864   9.415   7.149  10.544 -0.6948  0.1394 -0.0553
62875SOL    HW195865   9.400   7.059  10.514  1.6491 -0.3226 -0.0047
62875SOL    HW295866   9.482   7.140  10.613 -0.9689  1.8626  0.4743
62876SOL     OW95867   7.010   3.375   1.074 -0.0767  0.5704 -0.1113
62876SOL    HW195868   7.037   3.296   1.120 -1.8668  0.3695  0.6662
62876SOL    HW295869   7.025   3.355   0.981  0.9319 -0.0805  0.1773
62877SOL     OW95870   0.032   8.946   7.001 -0.8837 -0.1913  0.1944
62877SOL    HW195871   0.101   8.954   6.936 -0.5181  0.1744  0.6260
62877SOL    HW295872  -0.009   8.861   6.982 -0.4397 -0.3250 -0.1739
62878SOL     OW95873   9.236   6.291  11.872  0.2277 -0.1507 -0.7627
62878SOL    HW195874   9.165   6.316  11.931  0.4316 -0.8948 -0.1856
62878SOL    HW295875   9.289   6.228  11.923  0.7159 -0.3894 -1.5428
62879SOL     OW95876   3.586   8.554   7.634 -0.2479 -0.7848  0.1721
62879SOL    HW195877   3.625   8.583   7.716  0.0567 -0.6930 -0.0008
62879SOL    HW295878   3.566   8.635   7.587  2.1437 -0.7818 -1.0369
62880SOL     OW95879   9.551  12.643  11.628  0.0091  0.4197 -0.1445
62880SOL    HW195880   9.516  12.652  11.717 -1.2457 -2.0198 -0.3020
62880SOL    HW295881   9.481  12.677  11.572 -0.2303 -0.2517 -0.2677
62881SOL     OW95882   3.310   5.023   4.059 -0.0889  0.0747  0.0367
62881SOL    HW195883   3.263   4.978   3.989 -0.8480  0.3416  0.3630
62881SOL    HW295884   3.369   4.957   4.095 -1.1051 -0.6542  0.4418
62882SOL     OW95885   1.045   8.201   7.736 -1.3629 -0.1833  0.4170
62882SOL    HW195886   1.116   8.150   7.698  0.6122  2.3901  0.3212
62882SOL    HW295887   0.983   8.213   7.664  0.8428  2.0642 -1.2965
62883SOL     OW95888  10.003   4.785   1.738 -0.5478  0.9161 -0.1435
62883SOL    HW195889  10.018   4.735   1.818  1.7099 -0.4187 -1.2987
62883SOL    HW295890   9.911   4.811   1.743 -0.9874 -0.7430  1.9780
62884SOL     OW95891   7.538  12.219   6.161 -0.1208  0.4759 -0.1185
62884SOL    HW195892   7.609  12.278   6.183  1.9549 -0.7494 -2.9571
62884SOL    HW295893   7.505  12.251   6.077 -0.6686 -0.9068 -0.4605
62885SOL     OW95894   4.292  11.364   4.474 -0.8011 -0.1139  0.2433
62885SOL    HW195895   4.253  11.318   4.548 -0.2737  1.4504  1.5575
62885SOL    HW295896   4.350  11.300   4.433 -0.4986 -0.7965  1.6814
62886SOL     OW95897  11.960   0.456   4.018 -0.0053  0.1342 -0.1529
62886SOL    HW195898  11.987   0.442   4.109  0.0227 -0.7837 -0.3010
62886SOL    HW295899  12.042   0.461   3.969  0.0185  1.5134 -0.0206
62887SOL     OW95900   8.353   7.967   5.610  0.0488 -0.1827 -0.0266
62887SOL    HW195901   8.331   7.978   5.702  1.6894 -0.7369  0.4780
62887SOL    HW295902   8.309   8.039   5.565 -0.3173  0.4237  1.2682
62888SOL     OW95903   9.727   5.050   3.592  0.3607  0.8353 -0.0365
62888SOL    HW195904   9.808   5.058   3.642 -0.1326  0.0152  0.9370
62888SOL    HW295905   9.663   5.020   3.656 -0.5646  0.8854 -0.9268
62889SOL     OW95906   8.373   9.756   9.664  0.1018  0.4018 -0.0722
62889SOL    HW195907   8.408   9.749   9.752 -0.5654 -0.2521  0.1546
62889SOL    HW295908   8.282   9.729   9.672  1.0549 -4.2603 -1.6634
62890SOL     OW95909   7.331   5.056   0.218 -0.0218  0.3280 -0.4723
62890SOL    HW195910   7.370   4.969   0.217 -1.4712 -0.3929  0.7558
62890SOL    HW295911   7.249   5.045   0.267 -0.3551  2.3352 -0.4804
62891SOL     OW95912   5.443   4.301   0.858  0.4806 -0.5115 -0.0810
62891SOL    HW195913   5.516   4.333   0.910 -0.4735  0.8901  0.4620
62891SOL    HW295914   5.459   4.332   0.769 -0.2012  1.1854  0.3472
62892SOL     OW95915  12.321   3.228   0.643 -0.3740 -0.2149 -0.4263
62892SOL    HW195916  12.287   3.305   0.598  1.0895  1.0510  0.5497
62892SOL    HW295917  12.393   3.197   0.588 -0.0422 -0.0268 -0.1001
62893SOL     OW95918   3.613   8.890   6.950  0.2672  0.0326  0.3302
62893SOL    HW195919   3.652   8.862   6.867  1.1431 -0.7823  1.0050
62893SOL    HW295920   3.592   8.983   6.936 -2.0751 -0.6899 -1.7065
62894SOL     OW95921   6.402   3.493   5.542 -0.1244  0.2797 -0.1843
62894SOL    HW195922   6.374   3.498   5.451 -1.5345  1.8763  0.2720
62894SOL    HW295923   6.460   3.417   5.546 -0.2266  0.0416 -2.3437
62895SOL     OW95924   1.296   8.104   4.234  0.0926  0.2630 -0.2305
62895SOL    HW195925   1.366   8.040   4.245 -0.0808  0.0632 -0.2749
62895SOL    HW295926   1.302   8.130   4.142 -0.8461 -0.8931 -0.6517
62896SOL     OW95927   1.582  12.416   5.922 -0.3513  0.2264  0.4334
62896SOL    HW195928   1.604  12.475   5.850  1.8336 -1.2057 -0.1732
62896SOL    HW295929   1.493  12.387   5.903 -0.3442  1.0082 -0.9042
62897SOL     OW95930   3.964   9.554  11.369 -0.4168  0.3002  0.2222
62897SOL    HW195931   4.046   9.553  11.418 -0.0044  0.0434 -0.4538
62897SOL    HW295932   3.977   9.621  11.301  0.2137 -1.4366 -1.4674
62898SOL     OW95933   4.919   5.754   8.027 -0.1677 -0.0281  0.4837
62898SOL    HW195934   4.827   5.760   8.003 -0.1807 -1.1081  0.2162
62898SOL    HW295935   4.956   5.691   7.965  0.8587  0.7102  0.2970
62899SOL     OW95936  11.061  12.256   1.092 -0.1308 -0.4893 -0.1464
62899SOL    HW195937  10.990  12.261   1.029 -1.4620  0.9783  1.3510
62899SOL    HW295938  11.036  12.185   1.152 -0.0851 -0.3326  0.0631
62900SOL     OW95939   9.010   6.771   3.205 -0.8446  0.7930  0.1585
62900SOL    HW195940   9.091   6.804   3.244 -1.5159  2.1276  0.5040
62900SOL    HW295941   9.035   6.689   3.163  0.7899  1.4319 -0.1971
62901SOL     OW95942   7.900   1.528  12.419 -0.1154 -0.1903  0.4026
62901SOL    HW195943   7.830   1.509  12.357 -0.0733  0.8609  0.0220
62901SOL    HW295944   7.884   1.467  12.492 -0.1673 -1.4285 -0.6140
62902SOL     OW95945   9.024   6.469   7.697  0.4218 -0.7302  0.3719
62902SOL    HW195946   9.019   6.408   7.770  1.0844 -1.2133  0.0235
62902SOL    HW295947   9.089   6.431   7.638  0.5942  0.1360 -0.0154
62903SOL     OW95948   3.192  10.270   6.855  0.0671  0.3329  0.2577
62903SOL    HW195949   3.103  10.261   6.889  0.2174 -0.0140  0.5728
62903SOL    HW295950   3.248  10.270   6.933  0.3589  0.3076  0.0508
62904SOL     OW95951  10.775   3.035  10.553  0.2337 -0.5608  1.0246
62904SOL    HW195952  10.805   2.982  10.626  1.7663 -1.8894 -0.4792
62904SOL    HW295953  10.810   2.991  10.475  1.0968  2.3237 -0.3767
62905SOL     OW95954  10.919   4.176   1.403  0.1201 -0.8765  0.1459
62905SOL    HW195955  10.890   4.110   1.340  0.0094 -0.0689 -0.6794
62905SOL    HW295956  10.997   4.138   1.443  0.6610 -1.1002 -1.0621
62906SOL     OW95957   5.666   5.404   2.838  0.2312 -0.6263  0.4719
62906SOL    HW195958   5.645   5.494   2.865  0.1348 -0.4088 -0.3260
62906SOL    HW295959   5.724   5.372   2.907 -1.1951 -0.5900  1.7478
62907SOL     OW95960   1.959   0.241   9.488  0.4753 -0.1331 -0.1980
62907SOL    HW195961   1.941   0.155   9.448  0.6316 -0.1947 -0.1364
62907SOL    HW295962   1.901   0.245   9.564 -0.3161  0.2668 -0.8157
62908SOL     OW95963   3.940  11.197   3.430  0.0692 -0.0430  0.0956
62908SOL    HW195964   3.862  11.238   3.393 -0.5053 -0.5801  0.6861
62908SOL    HW295965   3.932  11.105   3.404 -0.4878 -0.4934  1.7390
62909SOL     OW95966   5.094   7.096   2.148  0.2723  0.1362  0.0647
62909SOL    HW195967   5.089   7.095   2.244 -0.5429  1.9164  0.0854
62909SOL    HW295968   5.047   7.176   2.122  0.6434 -0.1993 -1.8136
62910SOL     OW95969   0.220   1.742  10.422  0.1785  0.2166 -0.1971
62910SOL    HW195970   0.144   1.799  10.407 -0.8883 -1.2095 -0.3849
62910SOL    HW295971   0.226   1.736  10.518 -0.3740 -0.2156 -0.1868
62911SOL     OW95972   9.395   2.683   4.496 -0.8030  0.1175 -0.1940
62911SOL    HW195973   9.335   2.757   4.484 -0.1535  0.8414  0.8395
62911SOL    HW295974   9.376   2.651   4.585 -0.9295 -0.8443 -0.5480
62912SOL     OW95975   2.903  11.795   9.286 -0.0200  0.0122  0.3932
62912SOL    HW195976   2.905  11.825   9.196  0.3457 -0.0415  0.3847
62912SOL    HW295977   2.942  11.867   9.337 -0.7832  0.3015  0.5821
62913SOL     OW95978   8.004   7.887  10.269 -0.2894 -0.0347  0.2493
62913SOL    HW195979   7.984   7.796  10.250  0.7716 -0.5723  1.5703
62913SOL    HW295980   7.946   7.909  10.342 -2.4994  1.2303 -1.7406
62914SOL     OW95981  11.039   4.358   6.430 -0.0713 -0.2555 -0.7388
62914SOL    HW195982  11.051   4.413   6.352 -0.1648  0.8609  0.0212
62914SOL    HW295983  10.970   4.400   6.479  0.1098 -0.8596  0.0545
62915SOL     OW95984   8.504  10.977  12.134 -0.1536  0.0293  0.2468
62915SOL    HW195985   8.434  10.926  12.093 -1.8076  1.5411  1.0625
62915SOL    HW295986   8.573  10.981  12.068 -1.2376 -0.7074 -0.9604
62916SOL     OW95987   4.447   4.675   6.407  0.1658  0.4140  0.0288
62916SOL    HW195988   4.407   4.761   6.397 -1.5446 -0.2141  1.0536
62916SOL    HW295989   4.535   4.693   6.441 -0.2149  1.7566  0.3537
62917SOL     OW95990   2.855   3.911   9.012  0.1330 -0.3240 -0.1532
62917SOL    HW195991   2.792   3.841   9.028 -1.1166  0.0885 -2.8060
62917SOL    HW295992   2.938   3.866   8.997 -0.4335 -1.1742 -0.8086
62918SOL     OW95993  11.737  11.568   4.668  0.0738 -0.1926  0.0471
62918SOL    HW195994  11.704  11.483   4.698  0.1990  0.1761  1.2611
62918SOL    HW295995  11.704  11.630   4.732  1.1547  0.4982 -0.0483
62919SOL     OW95996   5.815   4.342   0.726 -0.1100 -0.5126  0.0372
62919SOL    HW195997   5.903   4.349   0.690  0.6798 -1.1471  1.7411
62919SOL    HW295998   5.764   4.408   0.678  1.0860 -0.6285 -1.4739
62920SOL     OW95999   5.919   9.172   2.356 -0.2792  0.0440 -0.0972
62920SOL    HW196000   5.882   9.235   2.418  0.7868 -0.1497  0.7571
62920SOL    HW296001   5.849   9.108   2.342 -0.5502  0.1193  0.8703
62921SOL     OW96002   4.313   7.626   7.791 -0.2311 -0.1827 -0.2203
62921SOL    HW196003   4.389   7.682   7.778 -0.4821  0.3264  0.4605
62921SOL    HW296004   4.276   7.654   7.875 -0.4082 -1.3093  0.1028
62922SOL     OW96005  10.373   3.022   2.810 -1.0388 -0.2328 -0.3762
62922SOL    HW196006  10.367   2.957   2.880  1.2048 -0.1818 -0.0648
62922SOL    HW296007  10.463   3.056   2.816 -1.4070  1.1838 -2.0403
62923SOL     OW96008   7.138   4.744   2.443  0.1845 -0.0056 -0.0376
62923SOL    HW196009   7.049   4.766   2.414 -0.2116  1.7074  2.1621
62923SOL    HW296010   7.190   4.743   2.363 -1.5915  0.1151 -1.2574
62924SOL     OW96011   6.343   8.917  12.579  0.0768 -0.4240 -0.5724
62924SOL    HW196012   6.409   8.883  12.640 -2.1661  0.9349  2.8999
62924SOL    HW296013   6.278   8.847  12.572 -1.1432  0.4745  1.1119
62925SOL     OW96014  10.460   6.870   4.562 -0.2295  0.0795  0.1321
62925SOL    HW196015  10.416   6.879   4.477  0.9524  1.5388 -0.3560
62925SOL    HW296016  10.521   6.944   4.566  0.2712 -0.3842  1.9414
62926SOL     OW96017  12.697  11.432  10.184  0.4436  0.4065 -0.7748
62926SOL    HW196018  12.612  11.417  10.143 -0.3903 -1.9103  1.4921
62926SOL    HW296019  12.761  11.403  10.119 -0.7843 -2.7814 -0.7381
62927SOL     OW96020   3.682  12.587   5.475 -0.0843  0.1855  0.0838
62927SOL    HW196021   3.633  12.529   5.417  1.3087 -1.3585  0.3614
62927SOL    HW296022   3.772  12.553   5.472  0.0948  0.1392  2.9774
62928SOL     OW96023  11.078   5.719  11.228 -0.4495  0.8455  0.3181
62928SOL    HW196024  11.131   5.789  11.188  0.2456 -0.6442 -1.5069
62928SOL    HW296025  10.992   5.759  11.240 -0.5749  1.5424 -2.3446
62929SOL     OW96026   8.980  10.544  11.471  0.2480  0.1799 -0.0432
62929SOL    HW196027   8.960  10.553  11.564 -0.7094  0.6038 -0.2803
62929SOL    HW296028   9.057  10.486  11.469  2.9156  3.3535  1.2389
62930SOL     OW96029  10.402   2.029   1.709 -0.0185  0.3290 -0.1930
62930SOL    HW196030  10.461   2.025   1.634 -0.3555  2.7728 -0.6509
62930SOL    HW296031  10.453   2.067   1.780 -0.7274  1.5332 -0.3018
62931SOL     OW96032  10.935   8.134   3.986  0.5899 -0.2367 -0.3806
62931SOL    HW196033  10.890   8.211   4.022 -2.5715 -2.0885 -0.0775
62931SOL    HW296034  10.917   8.138   3.892 -0.5248 -1.1722 -0.2115
62932SOL     OW96035   9.910   2.913   2.360 -0.0484 -0.3685 -0.5884
62932SOL    HW196036   9.926   2.945   2.270 -2.5109  1.3394 -0.5189
62932SOL    HW296037   9.936   2.987   2.415  0.3348 -0.9789  0.0579
62933SOL     OW96038  10.052   1.261   7.959  0.3233 -0.2209 -0.0401
62933SOL    HW196039  10.057   1.275   8.053  1.2871 -1.4336  0.1210
62933SOL    HW296040  10.100   1.334   7.921  2.2702 -1.1039  0.5815
62934SOL     OW96041   1.782  11.024  10.654 -0.8067 -0.0419 -0.0189
62934SOL    HW196042   1.724  10.972  10.709 -0.7611  1.2802  1.3507
62934SOL    HW296043   1.840  11.069  10.716  0.2432  0.3411 -1.2388
62935SOL     OW96044   9.960   3.925  11.843  0.3203 -0.0876 -0.4649
62935SOL    HW196045  10.014   3.981  11.787  0.4101  1.1236  0.7850
62935SOL    HW296046  10.021   3.882  11.902  0.0920 -0.1599 -0.2782
62936SOL     OW96047   8.950  11.654   4.017  0.1948 -0.6347  0.7468
62936SOL    HW196048   8.895  11.650   3.939 -0.6244 -0.8235  1.3172
62936SOL    HW296049   8.889  11.670   4.088  0.9101 -0.6492  1.3798
62937SOL     OW96050   1.970   2.341   8.709  0.2209 -0.1213  0.1885
62937SOL    HW196051   1.943   2.253   8.683  1.3746 -0.3115 -0.4106
62937SOL    HW296052   1.949   2.396   8.634  1.1569 -0.2090 -0.1435
62938SOL     OW96053   5.811   2.019   5.083 -0.5629  0.6147 -0.5035
62938SOL    HW196054   5.885   1.965   5.114  0.0847  2.0801  0.6131
62938SOL    HW296055   5.849   2.073   5.014  0.0223  2.8157  1.4155
62939SOL     OW96056   8.418   3.789   3.198 -0.5249 -0.1872  0.1946
62939SOL    HW196057   8.460   3.751   3.275  0.4337  0.3590 -0.0325
62939SOL    HW296058   8.426   3.722   3.131 -0.5029 -0.2976  0.3074
62940SOL     OW96059   2.312   0.392  12.202  0.0419 -0.3425  0.1105
62940SOL    HW196060   2.355   0.322  12.154  0.4391  0.0624 -0.1300
62940SOL    HW296061   2.383   0.438  12.247 -0.1502  0.2168 -0.1469
62941SOL     OW96062  11.842   4.138   7.605  0.3361 -0.0650  0.0353
62941SOL    HW196063  11.783   4.078   7.559  0.0965 -0.5422  0.9485
62941SOL    HW296064  11.786   4.183   7.668  0.9260 -0.4511  0.8480
62942SOL     OW96065   7.850  11.509   2.186  0.3885 -0.0936  0.2940
62942SOL    HW196066   7.788  11.481   2.119 -0.5127  0.8373  0.7205
62942SOL    HW296067   7.932  11.467   2.161  0.0361  0.1038 -1.2934
62943SOL     OW96068   8.863   4.204   0.422  0.0220 -0.7546  0.3701
62943SOL    HW196069   8.819   4.288   0.435  1.9402  0.1812  1.3521
62943SOL    HW296070   8.905   4.212   0.336 -3.0268 -2.3508 -1.4278
62944SOL     OW96071   7.896   1.251   2.174 -0.0468 -0.1893 -0.4379
62944SOL    HW196072   7.911   1.163   2.138  1.7686 -0.2164  0.2690
62944SOL    HW296073   7.928   1.310   2.107  0.6413 -0.1497 -0.0846
62945SOL     OW96074   6.657   9.389   1.050  0.3882  0.2832 -0.5790
62945SOL    HW196075   6.696   9.326   0.989 -1.9204 -0.0622 -1.8130
62945SOL    HW296076   6.642   9.467   0.997 -0.7496  0.3266 -0.2156
62946SOL     OW96077   0.451  11.905   5.344  0.2714  0.4649 -0.1765
62946SOL    HW196078   0.361  11.935   5.332 -0.1844 -1.1516 -1.1085
62946SOL    HW296079   0.483  11.956   5.419 -1.2104  1.4779 -0.1771
62947SOL     OW96080  11.666   6.468   1.719 -0.6231  0.6549  0.2096
62947SOL    HW196081  11.734   6.400   1.720 -2.0836 -0.8760  0.8056
62947SOL    HW296082  11.666   6.501   1.630  0.2317 -0.0403 -0.0599
62948SOL     OW96083   8.846  11.284   3.478 -0.1914 -0.5637 -0.0958
62948SOL    HW196084   8.812  11.372   3.468 -1.0995 -0.9457 -0.4458
62948SOL    HW296085   8.769  11.227   3.472  0.3332 -1.3579  0.4541
62949SOL     OW96086   9.222   6.828   6.919 -0.4008 -0.5474 -0.1242
62949SOL    HW196087   9.253   6.795   6.834  1.3980 -0.3126  0.4063
62949SOL    HW296088   9.302   6.840   6.971 -0.9965  3.6261  0.1250
62950SOL     OW96089  12.503   8.955  11.479 -0.6398  0.3015  0.2947
62950SOL    HW196090  12.450   8.947  11.559 -1.2660  0.8138 -0.0510
62950SOL    HW296091  12.562   8.880  11.482 -2.4028 -1.1756 -0.0533
62951SOL     OW96092   6.583   7.001  11.650 -0.5122 -0.3299 -0.0198
62951SOL    HW196093   6.648   7.066  11.676  0.2099 -1.0444 -0.0061
62951SOL    HW296094   6.593   6.993  11.555  0.6069 -1.6478  0.1702
62952SOL     OW96095   6.400  10.258   4.841  0.0934 -0.6524  0.8951
62952SOL    HW196096   6.446  10.312   4.905 -0.9203  0.0137  1.1006
62952SOL    HW296097   6.467  10.230   4.780  1.1719 -1.6579  2.4637
62953SOL     OW96098   5.672   2.535  11.753  0.3081 -0.4949  0.3015
62953SOL    HW196099   5.579   2.514  11.742  0.5727 -0.9318 -1.4397
62953SOL    HW296100   5.674   2.631  11.756 -0.4288 -0.4775  3.3419
62954SOL     OW96101   3.758   0.760   0.254 -0.6052  0.1178  0.1838
62954SOL    HW196102   3.698   0.686   0.268 -0.9965  0.4496  0.2747
62954SOL    HW296103   3.703   0.837   0.263  0.0996  0.4783  1.7163
62955SOL     OW96104   2.790   7.956  10.471  0.1202  0.1167  0.0427
62955SOL    HW196105   2.785   7.963  10.376 -2.3169  0.9130  0.1751
62955SOL    HW296106   2.798   8.047  10.501 -0.1473 -0.0494  0.6387
62956SOL     OW96107   1.491  11.873   0.181 -0.3273 -0.1894 -0.1521
62956SOL    HW196108   1.481  11.954   0.231 -2.7022 -1.5578  1.8201
62956SOL    HW296109   1.582  11.847   0.196 -0.3943  0.5239  1.7974
62957SOL     OW96110  11.503   3.713   3.908  0.2608  0.1726  0.4077
62957SOL    HW196111  11.547   3.712   3.823 -1.0825  2.4992 -0.3905
62957SOL    HW296112  11.529   3.795   3.948 -0.8591  0.1273  1.2893
62958SOL     OW96113   5.690   2.793   2.738  0.1325 -0.1747 -0.1567
62958SOL    HW196114   5.654   2.823   2.655  2.5935  0.4438 -1.0854
62958SOL    HW296115   5.613   2.781   2.794 -1.4233  2.0029 -1.6465
62959SOL     OW96116   4.046   3.605   2.712 -0.2800 -0.1240 -0.3640
62959SOL    HW196117   4.137   3.604   2.742 -0.5437 -0.6243  0.4717
62959SOL    HW296118   4.047   3.554   2.631  0.2484  0.2106 -0.5714
62960SOL     OW96119   5.233   9.055   1.521  0.2440  0.3642 -0.4106
62960SOL    HW196120   5.179   9.131   1.502 -0.3436  0.4939  1.5332
62960SOL    HW296121   5.212   9.032   1.612  1.3223 -1.3605 -0.5346
62961SOL     OW96122   1.093   6.865   9.581 -0.0447  0.7302  0.4227
62961SOL    HW196123   1.151   6.941   9.578  1.0125 -0.0387  0.5776
62961SOL    HW296124   1.014   6.893   9.535  0.5399  1.7408 -0.0055
62962SOL     OW96125  11.304   4.358  11.341 -0.0296 -0.2513 -0.0663
62962SOL    HW196126  11.360   4.339  11.416  0.2795 -2.0559 -0.7057
62962SOL    HW296127  11.353   4.423  11.290  0.8506 -0.7645  0.1074
62963SOL     OW96128   0.255   1.375  10.668  1.0035 -0.0335  0.4735
62963SOL    HW196129   0.240   1.335  10.582 -2.5367 -1.4656  1.5817
62963SOL    HW296130   0.200   1.453  10.668  0.1367 -0.6221  1.7907
62964SOL     OW96131   1.068   0.822  10.478 -0.4595 -0.3757 -0.5576
62964SOL    HW196132   1.129   0.804  10.549  0.0596 -0.2405 -0.9622
62964SOL    HW296133   1.026   0.738  10.460 -0.1392 -0.5477 -0.5059
62965SOL     OW96134  11.412  10.273   0.724 -0.2744 -0.6367 -0.3963
62965SOL    HW196135  11.400  10.195   0.669  2.8018 -2.6165  1.4532
62965SOL    HW296136  11.444  10.239   0.807 -0.3398  2.5531  1.0709
62966SOL     OW96137   2.626   1.297   1.484  0.0816 -0.1733 -0.1021
62966SOL    HW196138   2.620   1.392   1.475  0.3177  0.0858  2.1198
62966SOL    HW296139   2.717   1.281   1.511  0.1849 -1.1030 -0.9208
62967SOL     OW96140   6.409  11.769   9.301  0.4176  0.8168 -0.2105
62967SOL    HW196141   6.420  11.685   9.257  1.6703 -0.1290  1.7933
62967SOL    HW296142   6.498  11.801   9.316  0.0288  1.2166  1.3974
62968SOL     OW96143  11.509   2.111   9.057  0.0539  0.3884  0.1100
62968SOL    HW196144  11.469   2.033   9.018  1.1964 -0.3390  0.3544
62968SOL    HW296145  11.475   2.112   9.147  0.4275 -0.1422  0.2685
62969SOL     OW96146  11.987   8.194   8.901  0.4335 -0.4108  0.2691
62969SOL    HW196147  11.944   8.200   8.815  3.9390 -0.1071 -1.6611
62969SOL    HW296148  11.974   8.104   8.929 -2.3855 -0.0212  0.4276
62970SOL     OW96149   1.888   4.233   9.834  0.0280  0.5909  0.4453
62970SOL    HW196150   1.899   4.238   9.929  0.0458  1.1198  0.4227
62970SOL    HW296151   1.833   4.157   9.819  0.1054  0.4510  0.8737
62971SOL     OW96152   9.566   3.627   3.953 -0.0683  0.8372 -0.3491
62971SOL    HW196153   9.605   3.642   4.039  1.0287 -1.3102 -0.3933
62971SOL    HW296154   9.528   3.711   3.928  2.3015  2.3621  0.8489
62972SOL     OW96155   8.414   9.501   4.640 -0.0648 -0.2191 -0.2817
62972SOL    HW196156   8.353   9.455   4.582 -0.0880  0.2757 -0.6567
62972SOL    HW296157   8.469   9.431   4.677  0.2903 -0.4996 -1.3070
62973SOL     OW96158   9.640   5.604  11.608  0.3668 -0.6767  0.8530
62973SOL    HW196159   9.577   5.662  11.565 -0.0957 -1.5443  0.3445
62973SOL    HW296160   9.719   5.612  11.554  0.1181 -0.9668  0.4397
62974SOL     OW96161   3.237   4.708   4.313  0.3097  1.1064 -0.0336
62974SOL    HW196162   3.208   4.796   4.335  0.7338  1.1815  0.2210
62974SOL    HW296163   3.266   4.670   4.396  0.6645  0.9247 -0.2384
62975SOL     OW96164  11.505   0.852  10.229 -0.2023 -0.5224 -0.5549
62975SOL    HW196165  11.483   0.803  10.308  0.2299  0.3657  0.1214
62975SOL    HW296166  11.469   0.939  10.243  2.0069  0.3897 -0.2559
62976SOL     OW96167  11.671  10.485   7.969  0.0089 -0.0529  0.6002
62976SOL    HW196168  11.606  10.415   7.972  1.6796 -1.7214 -0.0138
62976SOL    HW296169  11.755  10.439   7.965  1.1194  1.9755 -1.3913
62977SOL     OW96170   3.409  12.057   7.747 -0.3667  0.9582 -0.0123
62977SOL    HW196171   3.481  12.104   7.706  1.2995 -0.5892  0.9986
62977SOL    HW296172   3.448  12.013   7.822 -2.2573 -0.4066  0.2565
62978SOL     OW96173   2.884  12.036   1.323 -0.5451 -0.2440  0.1580
62978SOL    HW196174   2.810  12.026   1.263 -0.9881 -1.9118  0.9279
62978SOL    HW296175   2.930  11.953   1.319 -0.3055 -0.2213  1.7466
62979SOL     OW96176   0.051   0.864  11.090 -0.3030  0.2833  0.2680
62979SOL    HW196177   0.051   0.911  11.007  2.4078 -1.3050 -0.7635
62979SOL    HW296178   0.040   0.933  11.156  2.0449  2.2531 -1.2070
62980SOL     OW96179   2.829   4.823   8.494 -0.4839  0.1539  0.4084
62980SOL    HW196180   2.744   4.866   8.491 -0.4044  0.3116  0.3905
62980SOL    HW296181   2.857   4.819   8.402 -1.4818 -1.9427  0.1536
62981SOL     OW96182   6.860   3.945   6.864 -0.0711  0.1931  0.0701
62981SOL    HW196183   6.813   3.923   6.784 -1.8269  0.0991  1.0911
62981SOL    HW296184   6.804   3.914   6.935  0.8996  1.3007  1.3789
62982SOL     OW96185  10.852   5.053   1.510 -0.3814  0.2038 -0.0688
62982SOL    HW196186  10.792   5.023   1.442  0.1166  0.2779 -0.5518
62982SOL    HW296187  10.937   5.016   1.485 -0.2735 -0.1134  0.7422
62983SOL     OW96188   5.834   4.705  11.865  0.4477  0.6228 -0.1724
62983SOL    HW196189   5.832   4.656  11.782  0.6357 -0.8937  0.6915
62983SOL    HW296190   5.744   4.702  11.897  0.1869  1.9529 -0.7088
62984SOL     OW96191  11.724  10.035   3.985  0.0460 -0.4403  0.2643
62984SOL    HW196192  11.710  10.127   4.008 -0.8970 -0.2669 -0.9099
62984SOL    HW296193  11.643  10.008   3.941  0.4689 -1.7179  0.2228
62985SOL     OW96194   6.903   4.088   0.988  0.4133 -1.0056 -0.4942
62985SOL    HW196195   6.915   4.180   1.013  1.2686 -1.0340 -0.7617
62985SOL    HW296196   6.894   4.091   0.892  1.6410 -1.2955 -0.6345
62986SOL     OW96197   2.144   4.068   2.817 -0.4793  0.3433 -0.3327
62986SOL    HW196198   2.179   4.127   2.750 -0.4805  1.1845  0.3808
62986SOL    HW296199   2.049   4.073   2.806 -0.6752  2.7777  1.5278
62987SOL     OW96200   3.593   5.045   5.920 -0.3913 -0.3875 -0.6716
62987SOL    HW196201   3.686   5.060   5.904 -0.1420 -0.6460  0.4627
62987SOL    HW296202   3.575   5.093   6.001 -1.0100 -1.1416 -0.3538
62988SOL     OW96203   5.582   8.683   0.739  0.1512  0.2624 -0.1668
62988SOL    HW196204   5.486   8.687   0.741  0.1553  0.3695 -0.1362
62988SOL    HW296205   5.605   8.721   0.654  0.3405  4.6355  1.5424
62989SOL     OW96206  11.217   4.377   8.944 -0.3996 -0.5612 -0.3590
62989SOL    HW196207  11.222   4.282   8.933 -1.7885 -0.6749 -0.1293
62989SOL    HW296208  11.280   4.411   8.881  0.4670 -1.6440 -0.1078
62990SOL     OW96209  11.191   1.016   8.885 -0.0843 -0.3749  0.4850
62990SOL    HW196210  11.163   0.925   8.895 -1.1601 -0.1649 -0.3436
62990SOL    HW296211  11.208   1.025   8.791  0.9043  0.0508  0.6885
62991SOL     OW96212   5.175   2.266   6.673  0.4986 -0.1740  0.2087
62991SOL    HW196213   5.091   2.221   6.664  0.1167  0.5331  0.2301
62991SOL    HW296214   5.208   2.273   6.583  0.2566  0.0812  0.1401
62992SOL     OW96215   5.569  11.906   2.660  0.0822 -0.0202  0.0867
62992SOL    HW196216   5.656  11.866   2.654  1.2009  2.2620 -0.3422
62992SOL    HW296217   5.508  11.834   2.649  1.9052 -1.8010  0.9260
62993SOL     OW96218   6.295   3.381   9.341  0.8937 -0.6653 -0.4159
62993SOL    HW196219   6.253   3.451   9.290 -0.7286 -0.4699  1.1009
62993SOL    HW296220   6.329   3.321   9.275  1.0224  0.8013 -1.7452
62994SOL     OW96221   6.031   4.066  10.827 -0.0183 -0.0538 -0.3102
62994SOL    HW196222   6.068   4.077  10.739 -1.0398  0.3790 -0.6969
62994SOL    HW296223   5.978   4.145  10.841  0.3252 -0.0052  0.7987
62995SOL     OW96224  12.132   3.652   6.929  0.0321  0.2651 -0.2666
62995SOL    HW196225  12.141   3.709   6.853 -0.6849  1.0180  0.1990
62995SOL    HW296226  12.103   3.710   6.999  0.8069 -0.3966  0.6193
62996SOL     OW96227   0.677   4.695   5.157  0.1863 -0.3563 -0.1793
62996SOL    HW196228   0.770   4.715   5.170  0.0822  0.6568 -0.8481
62996SOL    HW296229   0.637   4.779   5.138 -1.0902 -0.6261  1.1835
62997SOL     OW96230   3.726   1.219   1.364 -0.3793 -0.2347 -0.0889
62997SOL    HW196231   3.771   1.148   1.410  1.5951  1.4780  0.7580
62997SOL    HW296232   3.658   1.248   1.425  0.4674  0.2416  0.6480
62998SOL     OW96233   7.224  11.464   1.042 -0.1610 -0.0031  0.1031
62998SOL    HW196234   7.292  11.407   1.005 -1.0599  0.6535 -2.8115
62998SOL    HW296235   7.154  11.403   1.065  0.5417 -0.4643  1.1203
62999SOL     OW96236   0.300   0.141  12.328  0.5115 -0.2359 -0.1832
62999SOL    HW196237   0.358   0.083  12.278  1.5318  0.3098  0.3409
62999SOL    HW296238   0.328   0.131  12.419 -0.7123 -0.5047  0.1850
63000SOL     OW96239  10.332   0.481   9.632 -0.3120 -0.0069  0.2669
63000SOL    HW196240  10.370   0.455   9.717  0.3942 -0.2487 -0.1124
63000SOL    HW296241  10.330   0.576   9.635 -3.1416  0.0100  1.7733
63001SOL     OW96242   6.831   6.184   7.305 -0.1826  0.2684 -0.0635
63001SOL    HW196243   6.863   6.111   7.252 -0.4120 -0.2639  0.5021
63001SOL    HW296244   6.902   6.203   7.366 -0.6529 -0.4840  0.7631
63002SOL     OW96245   3.786  12.025   0.442  0.3052 -0.4234  0.1462
63002SOL    HW196246   3.780  12.002   0.349 -0.7098  0.1968  0.0501
63002SOL    HW296247   3.699  12.007   0.477  0.3536  0.4423  0.7252
63003SOL     OW96248   8.106   0.752  11.820 -0.2904 -0.2881 -0.1288
63003SOL    HW196249   8.156   0.725  11.743 -0.1041  0.6806 -0.3667
63003SOL    HW296250   8.108   0.677  11.878  1.5362 -0.2385 -0.0900
63004SOL     OW96251   7.277   7.588   0.392 -0.6183 -0.6751 -0.0761
63004SOL    HW196252   7.229   7.600   0.475 -0.2435 -2.7573  0.4994
63004SOL    HW296253   7.367   7.609   0.414 -0.2436 -2.6835  0.5105
63005SOL     OW96254  10.624   2.335   7.053  0.1152 -0.1262 -0.3125
63005SOL    HW196255  10.576   2.264   7.097  0.3958 -0.1004  0.0359
63005SOL    HW296256  10.557   2.381   7.003 -0.2225 -0.1131  0.1439
63006SOL     OW96257   7.601   3.924   4.547 -0.4468  0.4619 -0.0360
63006SOL    HW196258   7.679   3.871   4.559 -0.9237 -0.4847 -1.0124
63006SOL    HW296259   7.632   4.004   4.505  0.0564  0.2995  0.0216
63007SOL     OW96260   3.776   1.489   1.473 -0.2938 -0.1704  0.2832
63007SOL    HW196261   3.709   1.524   1.413 -1.9179 -0.1639  2.0260
63007SOL    HW296262   3.786   1.398   1.447  0.5780  0.3363 -1.3093
63008SOL     OW96263   4.230   4.157  11.576  0.3241 -0.4643 -0.2083
63008SOL    HW196264   4.297   4.115  11.630  0.4022 -0.6422 -0.4436
63008SOL    HW296265   4.219   4.098  11.501  0.3639 -0.1123 -0.4915
63009SOL     OW96266   7.887   7.480  11.124 -0.1887  0.2501  0.6445
63009SOL    HW196267   7.832   7.402  11.128 -0.0689  0.1925  1.1533
63009SOL    HW296268   7.839   7.546  11.173  0.0753  0.2734  0.8748
63010SOL     OW96269   5.633   7.198  12.154  0.1614 -0.7465  0.2045
63010SOL    HW196270   5.623   7.278  12.104  1.4938 -0.2840  0.6274
63010SOL    HW296271   5.591   7.130  12.101 -2.0870  0.3983  0.4046
63011SOL     OW96272   4.901   8.764   8.513 -0.7441  0.3691 -0.0085
63011SOL    HW196273   4.976   8.816   8.483 -0.7809  0.9093  0.8372
63011SOL    HW296274   4.929   8.673   8.497 -0.6527  0.6127 -1.4173
63012SOL     OW96275   0.063  11.962   9.235  0.1793  0.3939  0.3358
63012SOL    HW196276   0.083  11.925   9.149  3.0601 -1.7104  1.7402
63012SOL    HW296277   0.091  12.053   9.229  3.1995 -0.4551 -0.2294
63013SOL     OW96278  10.894   4.425   7.347 -0.3368  0.2780  0.0344
63013SOL    HW196279  10.851   4.358   7.294  1.9400 -0.0187 -1.5220
63013SOL    HW296280  10.862   4.508   7.312  0.2526  0.0614 -1.0256
63014SOL     OW96281   1.834   8.971   6.686  0.5059 -0.1879  0.3953
63014SOL    HW196282   1.862   8.900   6.628 -0.8462 -0.5675  0.1774
63014SOL    HW296283   1.872   9.050   6.648 -2.1104 -0.0818 -2.3400
63015SOL     OW96284   5.700   6.237   6.163  0.4050 -0.3257 -0.1411
63015SOL    HW196285   5.730   6.257   6.251  3.0903  0.8557 -1.2198
63015SOL    HW296286   5.625   6.295   6.149 -0.3124 -0.8203  1.4569
63016SOL     OW96287   3.596   1.193  12.170  0.0586  0.0678  0.7867
63016SOL    HW196288   3.655   1.263  12.143  1.4371 -0.8027  1.4594
63016SOL    HW296289   3.532   1.236  12.227 -0.0340  1.0342 -0.0226
63017SOL     OW96290   8.319   5.369   5.312  0.0372 -0.7501 -0.2842
63017SOL    HW196291   8.361   5.283   5.319 -0.2335 -0.9029 -0.5408
63017SOL    HW296292   8.338   5.411   5.396  2.2941 -0.0803 -1.0655
63018SOL     OW96293  10.408  11.114   8.173 -0.4797 -0.4045  0.3866
63018SOL    HW196294  10.482  11.076   8.126 -1.1860 -0.6131 -0.5917
63018SOL    HW296295  10.347  11.140   8.105 -1.6767 -0.9865  1.1937
63019SOL     OW96296   9.840   6.554   2.185 -0.4753 -0.1103  0.0678
63019SOL    HW196297   9.931   6.538   2.210 -0.4488  1.4137  1.0980
63019SOL    HW296298   9.790   6.531   2.264 -0.6947  1.6649  0.4956
63020SOL     OW96299  10.133  10.493   0.263 -0.1493  0.5107 -0.7770
63020SOL    HW196300  10.089  10.452   0.338 -1.8754  1.0838 -1.4194
63020SOL    HW296301  10.170  10.574   0.299 -1.6649  1.1908 -0.6618
63021SOL     OW96302   1.424   1.117   2.671 -0.2903  0.1916  0.0299
63021SOL    HW196303   1.336   1.079   2.667 -0.3365  0.3334 -0.3455
63021SOL    HW296304   1.483   1.046   2.645 -0.5686  1.0591 -3.5781
63022SOL     OW96305  11.976   6.315  11.914 -0.1433 -0.0343  0.3231
63022SOL    HW196306  11.974   6.348  12.004 -0.3966 -0.1950  0.3758
63022SOL    HW296307  11.884   6.302  11.891 -0.2868  2.3634 -0.8270
63023SOL     OW96308   3.519   4.230   5.676 -0.8015  0.0331  0.0244
63023SOL    HW196309   3.614   4.236   5.662 -1.0141  0.5855 -1.3611
63023SOL    HW296310   3.504   4.285   5.753  0.1945 -1.4533  1.3332
63024SOL     OW96311   9.257   5.575   8.082  0.1477  0.6406 -0.3849
63024SOL    HW196312   9.328   5.537   8.134  0.6432 -1.7036 -2.5878
63024SOL    HW296313   9.295   5.653   8.042  1.5007 -0.5037 -1.4208
63025SOL     OW96314   1.811  10.497   2.308 -0.0393  0.1271  0.4585
63025SOL    HW196315   1.849  10.583   2.290  0.0392 -0.2108 -1.2527
63025SOL    HW296316   1.746  10.485   2.238 -1.2161 -0.5368  1.6217
63026SOL     OW96317   0.723   3.340  12.413  0.0103 -0.0865 -0.3200
63026SOL    HW196318   0.645   3.331  12.467  0.5723  0.0201  0.5300
63026SOL    HW296319   0.690   3.367  12.327 -0.7841  1.6680  0.4820
63027SOL     OW96320  10.732   5.777   8.987 -0.8821 -0.6445 -0.2949
63027SOL    HW196321  10.658   5.830   9.017  0.4796  1.2004  0.0185
63027SOL    HW296322  10.787   5.767   9.065 -0.1102 -0.7492 -0.8379
63028SOL     OW96323   4.105   4.657   1.069 -0.1678  0.2089 -0.5189
63028SOL    HW196324   4.192   4.691   1.090 -0.5134  0.7322  0.1317
63028SOL    HW296325   4.112   4.562   1.081  0.1023  0.3324  0.3625
63029SOL     OW96326   9.093   7.983   1.442  0.3552 -0.1447  0.4943
63029SOL    HW196327   9.107   8.077   1.448 -0.8004  0.0554  0.2949
63029SOL    HW296328   9.031   7.963   1.512 -1.4228 -0.2913 -1.0207
63030SOL     OW96329   6.163   7.813   3.730 -0.4786 -0.0977 -0.3095
63030SOL    HW196330   6.122   7.823   3.644  0.9717  1.4162 -0.8823
63030SOL    HW296331   6.248   7.856   3.721 -0.0270 -0.4641  1.7128
63031SOL     OW96332   6.160   1.843   8.843 -0.7906  0.0187  0.5329
63031SOL    HW196333   6.216   1.780   8.798 -0.8929  1.4238 -1.7229
63031SOL    HW296334   6.076   1.798   8.853 -0.3551 -0.7997  0.5787
63032SOL     OW96335   6.398   6.845   8.563  0.7044 -0.0856 -0.1948
63032SOL    HW196336   6.413   6.771   8.504  0.5607 -1.5729  1.5548
63032SOL    HW296337   6.484   6.886   8.573  1.0934 -0.9265 -0.0251
63033SOL     OW96338   4.937  11.705  11.756 -0.0270 -0.5771  0.0220
63033SOL    HW196339   4.988  11.671  11.682  0.7076  0.9853 -0.2257
63033SOL    HW296340   4.925  11.629  11.813  2.3130 -1.1109 -0.0738
63034SOL     OW96341   9.670   0.125   1.269  0.1839  0.9189 -0.0588
63034SOL    HW196342   9.578   0.150   1.272  0.6878  2.8752  0.7115
63034SOL    HW296343   9.706   0.174   1.195  0.8213  1.0489  0.3253
63035SOL     OW96344   7.449   6.901  10.723 -0.2359 -0.0605  0.5976
63035SOL    HW196345   7.460   6.861  10.809 -0.3309 -1.1988  0.0905
63035SOL    HW296346   7.461   6.830  10.661  1.2917  1.0159 -0.4112
63036SOL     OW96347  11.480  11.265  12.674  0.7230 -0.5515 -0.0121
63036SOL    HW196348  11.556  11.311  12.709  0.3372  0.1144 -0.0341
63036SOL    HW296349  11.497  11.259  12.580  1.3228 -1.5129  0.1410
63037SOL     OW96350   4.372  11.361   7.817  0.1676  0.4866 -0.3188
63037SOL    HW196351   4.303  11.317   7.767  0.3777  0.7531 -0.8413
63037SOL    HW296352   4.352  11.454   7.809  0.4569  0.5542 -0.2748
63038SOL     OW96353  10.412   6.904   6.178  0.6281  0.3114  0.0197
63038SOL    HW196354  10.334   6.858   6.210  0.7836  0.3452  0.4527
63038SOL    HW296355  10.378   6.967   6.114  0.2789  0.4424  0.3299
63039SOL     OW96356  11.783   4.959   8.011  0.0984 -0.4864 -0.1477
63039SOL    HW196357  11.707   5.010   7.984  0.1629 -0.6419 -0.6443
63039SOL    HW296358  11.807   4.909   7.933  0.2954 -0.9544  0.2063
63040SOL     OW96359   9.837   2.274   2.100 -1.0138 -0.0119  0.3222
63040SOL    HW196360   9.770   2.333   2.067 -0.4283  0.9782  0.8729
63040SOL    HW296361   9.918   2.325   2.097 -0.3744 -0.9992  0.1940
63041SOL     OW96362  11.410   7.467   4.580  0.1929 -0.1970 -0.5830
63041SOL    HW196363  11.391   7.374   4.570 -3.3112  0.1798  1.0645
63041SOL    HW296364  11.415   7.500   4.491 -1.0997 -1.5753 -1.2226
63042SOL     OW96365   2.654  11.281   1.360 -0.7175  0.3153  0.0765
63042SOL    HW196366   2.615  11.266   1.446 -2.4588  2.1517 -0.3217
63042SOL    HW296367   2.736  11.231   1.362 -1.5244 -1.0593  2.1533
63043SOL     OW96368   1.228   0.061   7.816  0.7082  0.4980  0.0596
63043SOL    HW196369   1.242  -0.008   7.752  2.0955 -0.1070  0.9580
63043SOL    HW296370   1.166   0.121   7.775  1.1281 -0.1675 -1.5974
63044SOL     OW96371   9.080   2.458   3.026  0.4952 -0.0724 -0.5782
63044SOL    HW196372   9.030   2.526   2.979  0.7138 -0.9925 -2.2392
63044SOL    HW296373   9.013   2.399   3.060  0.3490  0.3775 -0.0673
63045SOL     OW96374   5.387   0.473   1.853 -0.6445  0.1962 -0.8520
63045SOL    HW196375   5.319   0.522   1.806  0.3467  2.4315 -0.0824
63045SOL    HW296376   5.366   0.484   1.945  0.3970  0.3757 -0.6210
63046SOL     OW96377   6.804   4.200   2.785  0.0505  0.4364 -0.2101
63046SOL    HW196378   6.710   4.184   2.793  0.4441 -1.3513  1.2518
63046SOL    HW296379   6.829   4.156   2.704 -0.1451 -0.2281  0.0880
63047SOL     OW96380   2.312  11.103   4.506 -0.2240  0.1866  0.9200
63047SOL    HW196381   2.235  11.132   4.555 -0.9970  0.0747 -0.1872
63047SOL    HW296382   2.278  11.038   4.444  1.0772 -1.3065  1.6882
63048SOL     OW96383   7.978   9.227   3.947  0.2381 -0.7188  0.0063
63048SOL    HW196384   8.030   9.162   3.898  1.6000 -0.6315  1.2633
63048SOL    HW296385   7.958   9.183   4.030  2.2567  0.8409  1.4100
63049SOL     OW96386   0.444   2.273   1.923  0.1371 -0.6512  0.1129
63049SOL    HW196387   0.440   2.360   1.963 -1.4622  0.0890 -1.4439
63049SOL    HW296388   0.527   2.236   1.951  0.2267  0.8120  1.9529
63050SOL     OW96389   0.430   1.819   8.275  0.4905 -0.0103  0.1076
63050SOL    HW196390   0.363   1.822   8.207  1.1540  0.9754 -0.5295
63050SOL    HW296391   0.395   1.875   8.345 -0.4309 -1.4379  0.8533
63051SOL     OW96392   5.761   8.716   3.058 -0.1956 -0.2995 -0.4663
63051SOL    HW196393   5.798   8.628   3.054  0.0167 -0.4064  2.0225
63051SOL    HW296394   5.712   8.726   2.976  2.1341 -1.6001 -2.1346
63052SOL     OW96395   8.745   0.397   7.815 -0.2531 -0.1065 -0.0949
63052SOL    HW196396   8.735   0.447   7.896 -0.6636 -0.4640  0.0793
63052SOL    HW296397   8.834   0.363   7.819 -0.3873 -0.4126  0.3745
63053SOL     OW96398   6.269   6.720   0.930 -0.1716 -0.0148 -0.3280
63053SOL    HW196399   6.288   6.812   0.949 -0.5728 -0.1102  0.5921
63053SOL    HW296400   6.295   6.674   1.010  2.4072 -1.0585 -1.6431
63054SOL     OW96401   5.128   2.300   9.056 -0.6466  0.2087  0.0897
63054SOL    HW196402   5.223   2.290   9.068 -0.9477 -1.0333  1.8972
63054SOL    HW296403   5.106   2.236   8.989 -0.2639  0.2239 -0.0550
63055SOL     OW96404  10.275   9.085   6.504  0.1706  0.2945  0.2499
63055SOL    HW196405  10.349   9.080   6.444  1.1318  0.6007  1.3756
63055SOL    HW296406  10.228   9.164   6.478  1.1827  1.0101  0.5519
63056SOL     OW96407   1.389   1.208  10.306 -0.1088 -0.4224  0.3933
63056SOL    HW196408   1.416   1.221  10.215 -0.3002 -1.0353  0.2425
63056SOL    HW296409   1.370   1.296  10.339  1.1378 -0.0636  0.2115
63057SOL     OW96410   7.824   6.710   1.861  0.1975 -0.5488  0.2397
63057SOL    HW196411   7.889   6.696   1.792 -0.0968  3.2362 -1.0327
63057SOL    HW296412   7.740   6.713   1.815 -0.2741 -0.1543  1.1124
63058SOL     OW96413   2.686  11.712   5.128  0.2363  0.1358 -0.0115
63058SOL    HW196414   2.625  11.736   5.198 -0.5832  0.2548 -0.7401
63058SOL    HW296415   2.679  11.616   5.123  0.0589  0.1549 -0.1377
63059SOL     OW96416   2.276   6.459   0.735  0.4306  0.5125 -0.3493
63059SOL    HW196417   2.196   6.428   0.692 -1.2618 -0.8739  3.3379
63059SOL    HW296418   2.344   6.399   0.704  0.2339  1.7672 -3.6262
63060SOL     OW96419   4.783  11.773  10.753 -0.2168 -0.2502 -0.0771
63060SOL    HW196420   4.790  11.703  10.818 -2.3985  0.6191  1.2253
63060SOL    HW296421   4.691  11.772  10.727  0.2696  0.4776 -1.9952
63061SOL     OW96422  11.101   5.779   7.796 -0.3423 -0.5760 -0.6681
63061SOL    HW196423  11.167   5.710   7.804  1.5227  1.0045 -1.6666
63061SOL    HW296424  11.093   5.815   7.885 -1.2267 -1.9183 -0.1711
63062SOL     OW96425   0.636   4.827   4.129  0.2832 -0.4753 -0.7060
63062SOL    HW196426   0.597   4.914   4.122  0.4202 -0.3377  0.1468
63062SOL    HW296427   0.724   4.842   4.162  0.1399 -0.9576 -0.0707
63063SOL     OW96428   5.756   7.537   5.135  0.1129  0.2711  0.3096
63063SOL    HW196429   5.731   7.446   5.118 -0.6628  0.7799 -1.4749
63063SOL    HW296430   5.702   7.563   5.209 -0.8123 -0.2615 -0.1553
63064SOL     OW96431  11.279   5.900   6.116  0.1180  0.1992 -0.3787
63064SOL    HW196432  11.188   5.883   6.091 -0.3157  2.3120 -0.4039
63064SOL    HW296433  11.275   5.927   6.208  0.9207 -1.0133  0.0485
63065SOL     OW96434   1.689   4.638   6.479  0.1206  0.0548  0.5516
63065SOL    HW196435   1.595   4.654   6.490 -0.1846 -1.4375  0.2894
63065SOL    HW296436   1.709   4.571   6.544  0.6271 -0.8862 -0.5569
63066SOL     OW96437   3.120   6.575   1.581  0.2491 -0.3259  0.2262
63066SOL    HW196438   3.125   6.531   1.496  2.2418  0.2413 -0.0119
63066SOL    HW296439   3.029   6.566   1.608 -0.2354 -1.2517 -1.5761
63067SOL     OW96440  10.803   5.862   4.421  0.4230 -0.2769  0.1930
63067SOL    HW196441  10.787   5.853   4.514 -1.6327 -0.0892 -0.0966
63067SOL    HW296442  10.864   5.792   4.400 -0.1786 -1.2115  1.4314
63068SOL     OW96443   3.280  10.549  11.447 -0.5368  0.2310 -0.0646
63068SOL    HW196444   3.323  10.574  11.365  0.3381 -2.6928 -0.5883
63068SOL    HW296445   3.343  10.573  11.515 -0.9023  1.8707 -0.2548
63069SOL     OW96446   6.260  12.358   8.264  0.1070  0.1888  0.0582
63069SOL    HW196447   6.205  12.298   8.214  1.0074 -1.0600  0.5238
63069SOL    HW296448   6.207  12.381   8.341 -0.0986 -0.3040  0.0656
63070SOL     OW96449   1.416  10.229  11.507 -0.4905 -0.3241  0.4786
63070SOL    HW196450   1.439  10.139  11.484  1.3814  0.7638 -2.3980
63070SOL    HW296451   1.457  10.242  11.593 -0.3911 -2.0336  0.7378
63071SOL     OW96452   3.922   2.622   3.189  0.2914 -0.1156 -0.3968
63071SOL    HW196453   3.961   2.548   3.236 -0.2670  0.4869  1.0347
63071SOL    HW296454   3.989   2.690   3.191  0.2016 -0.0295 -0.3372
63072SOL     OW96455   9.399   6.754   1.555 -0.2370  0.0691  0.1156
63072SOL    HW196456   9.384   6.748   1.461  0.6523 -1.2443  0.0243
63072SOL    HW296457   9.311   6.758   1.594 -0.5990  0.9093 -0.7749
63073SOL     OW96458   0.566  11.999  11.891  0.1837 -0.2700 -0.1902
63073SOL    HW196459   0.627  11.992  11.964 -0.1037  0.8922  0.1885
63073SOL    HW296460   0.556  11.909  11.859  1.0557 -0.6587  0.5832
63074SOL     OW96461   0.472   6.670   9.998 -0.1023 -0.0223 -0.1886
63074SOL    HW196462   0.397   6.666   9.939 -0.2863  1.0291 -0.0368
63074SOL    HW296463   0.548   6.668   9.941 -0.2590 -0.0229 -0.3991
63075SOL     OW96464   3.365   8.462  11.499  0.0500  0.1611  0.1549
63075SOL    HW196465   3.395   8.397  11.564 -0.9646 -0.2222  0.2502
63075SOL    HW296466   3.445   8.486  11.452  0.7316  0.0829  1.2178
63076SOL     OW96467  10.853   8.893   4.239 -0.0277  0.2584 -0.2433
63076SOL    HW196468  10.788   8.950   4.281  0.1778  0.6473 -0.4409
63076SOL    HW296469  10.936   8.938   4.252  0.1583 -0.0784 -0.2662
63077SOL     OW96470   2.675   5.831   0.453 -0.1915 -0.4966 -0.1928
63077SOL    HW196471   2.762   5.822   0.491 -0.1606 -1.1115 -0.3951
63077SOL    HW296472   2.688   5.814   0.359 -0.2077  1.3083 -0.5504
63078SOL     OW96473   8.467   5.544  10.825 -0.0586  0.0364  0.4883
63078SOL    HW196474   8.466   5.461  10.873  2.5731 -0.9671 -1.0041
63078SOL    HW296475   8.556   5.577  10.834 -0.0016  0.7954 -1.9855
63079SOL     OW96476   9.664   5.134   6.921 -0.4245  0.4220 -0.4541
63079SOL    HW196477   9.607   5.121   6.845 -0.1968 -2.5885 -0.2090
63079SOL    HW296478   9.753   5.119   6.888 -0.1932  0.5538  0.0992
63080SOL     OW96479   3.564   8.670   5.842 -0.0646  0.5183  0.0193
63080SOL    HW196480   3.610   8.754   5.846  0.2374  0.3337  0.7023
63080SOL    HW296481   3.500   8.681   5.773  0.1654  1.2158 -0.0973
63081SOL     OW96482   1.909   8.604  12.302 -0.1707  0.0432  0.7615
63081SOL    HW196483   1.848   8.589  12.375 -0.7720 -0.1270  0.2296
63081SOL    HW296484   1.854   8.634  12.230  0.2028 -1.2641 -0.0957
63082SOL     OW96485   8.269   9.939   6.663  0.6962  0.3588 -0.2661
63082SOL    HW196486   8.287   9.989   6.743  3.1208  0.2606 -0.6591
63082SOL    HW296487   8.272   9.848   6.690  0.6110  0.3472 -0.2951
63083SOL     OW96488  10.394   0.224   2.850  0.4575 -0.1759 -0.2099
63083SOL    HW196489  10.335   0.212   2.776 -0.8079 -0.6001  0.8410
63083SOL    HW296490  10.340   0.264   2.918  1.8379  1.1404  0.1790
63084SOL     OW96491   0.366   4.214  11.622 -0.3133 -0.2135  0.5983
63084SOL    HW196492   0.336   4.175  11.540 -1.9142  0.1145  0.9752
63084SOL    HW296493   0.441   4.268  11.598  1.1717 -2.4635 -0.1365
63085SOL     OW96494   8.257   4.616   0.765  0.5286  0.3823 -1.2385
63085SOL    HW196495   8.282   4.560   0.691 -1.0765 -0.6073 -1.0833
63085SOL    HW296496   8.262   4.559   0.841 -0.4874  0.6281 -0.9772
63086SOL     OW96497   2.373  12.083   9.365  0.4997  0.0781 -0.1881
63086SOL    HW196498   2.308  12.096   9.434  0.2644 -0.9032 -0.2078
63086SOL    HW296499   2.450  12.050   9.411  0.2610 -0.8146 -0.4019
63087SOL     OW96500   5.891   4.030   5.843 -0.1009  0.6408  0.2829
63087SOL    HW196501   5.973   4.029   5.794 -0.0252  3.3931  0.2195
63087SOL    HW296502   5.824   4.017   5.776  0.1840  0.0935  0.0928
63088SOL     OW96503   5.499  10.123   6.240 -0.1905  0.1222 -0.1308
63088SOL    HW196504   5.552  10.163   6.309 -0.3043  0.3095 -0.1487
63088SOL    HW296505   5.439  10.193   6.213 -1.5822 -0.5678  1.0375
63089SOL     OW96506   8.745   0.149   2.374 -0.5702 -0.2088  0.1037
63089SOL    HW196507   8.749   0.243   2.394  1.3722 -0.4560  1.1609
63089SOL    HW296508   8.730   0.145   2.280 -0.6517  1.1611  0.0348
63090SOL     OW96509   6.045   1.460   6.987  0.2298 -0.3374 -0.1565
63090SOL    HW196510   6.107   1.391   6.963  2.1731  1.7193 -1.4370
63090SOL    HW296511   6.081   1.496   7.068 -0.7066 -0.6905  0.4357
63091SOL     OW96512   2.867   7.415   1.491 -0.2389  1.0094 -0.9969
63091SOL    HW196513   2.798   7.371   1.542  0.1767  2.3269  0.8265
63091SOL    HW296514   2.820   7.481   1.440 -0.4061  1.7266  0.0408
63092SOL     OW96515   7.315   6.350   0.019 -0.3514  0.2677  0.1337
63092SOL    HW196516   7.334   6.399   0.100  0.6449 -0.4645  0.3555
63092SOL    HW296517   7.356   6.265   0.032 -0.3018  0.0873 -1.0993
63093SOL     OW96518   0.925   7.170   6.079 -0.0235  0.2482  0.0395
63093SOL    HW196519   0.982   7.154   6.153 -0.7264 -1.5602  0.2596
63093SOL    HW296520   0.842   7.199   6.118  0.6901  2.9572 -0.2791
63094SOL     OW96521  11.908   1.397   6.102  0.0653  0.0023  0.1470
63094SOL    HW196522  11.844   1.434   6.041 -1.1250  0.3718  1.5659
63094SOL    HW296523  11.866   1.318   6.136  0.6598 -0.1329  0.5765
63095SOL     OW96524   5.882   3.150  12.163  0.1580 -0.0648  0.4285
63095SOL    HW196525   5.971   3.133  12.193 -0.0112  0.8238  1.4818
63095SOL    HW296526   5.827   3.095  12.219 -0.0541  0.4611  0.7395
63096SOL     OW96527   8.410   8.855   7.947  0.6161 -0.3347 -0.2267
63096SOL    HW196528   8.388   8.779   8.000  0.6225 -0.7665 -0.8338
63096SOL    HW296529   8.360   8.842   7.865  0.9357  0.1016 -0.4946
63097SOL     OW96530   5.793   9.350  10.459 -0.4325  0.5727 -0.4450
63097SOL    HW196531   5.702   9.322  10.468 -0.4980  1.2698  1.6851
63097SOL    HW296532   5.788   9.445  10.449 -0.0189  0.3730 -3.2251
63098SOL     OW96533   9.124   6.771  10.365  0.4599  0.5188 -0.1924
63098SOL    HW196534   9.144   6.754  10.273 -0.1674 -2.7351  0.1689
63098SOL    HW296535   9.029   6.765  10.371  0.6382 -2.1157  1.0683
63099SOL     OW96536   6.668   7.352   1.086  0.0444  0.5461 -0.0929
63099SOL    HW196537   6.709   7.272   1.120 -1.0366  0.4232  1.0012
63099SOL    HW296538   6.624   7.390   1.162 -2.4441  0.2793 -1.3084
63100SOL     OW96539  10.671   4.528   4.560  0.2233 -0.3688 -0.0104
63100SOL    HW196540  10.670   4.432   4.566 -1.3008 -0.2880  2.0614
63100SOL    HW296541  10.650   4.558   4.649  1.0398  1.9094 -0.5199
63101SOL     OW96542   0.598   6.987   8.302  0.0500  0.3798  0.0187
63101SOL    HW196543   0.657   7.055   8.270 -0.8450  1.6151  0.9137
63101SOL    HW296544   0.510   7.020   8.282 -0.4027 -0.4574  0.5700
63102SOL     OW96545   4.273  11.939   1.907 -0.4540  0.4747  0.0095
63102SOL    HW196546   4.188  11.968   1.940  0.2128  0.7418  1.6212
63102SOL    HW296547   4.255  11.855   1.865 -1.4410  0.2832  0.7693
63103SOL     OW96548   1.596   4.507   3.306  0.1667  0.1298  0.0997
63103SOL    HW196549   1.554   4.540   3.386 -0.6474 -2.4759  0.8412
63103SOL    HW296550   1.525   4.499   3.243  0.5432  0.7488 -0.4120
63104SOL     OW96551  12.684   3.590   5.113 -0.0666  0.0543  0.2068
63104SOL    HW196552  12.693   3.496   5.133 -1.8365  0.0184  1.0059
63104SOL    HW296553  12.606   3.596   5.059  0.8200  0.9484 -1.0141
63105SOL     OW96554  10.878  11.861   2.271  0.5226 -0.2642  0.7114
63105SOL    HW196555  10.852  11.869   2.179  2.0462 -2.3011 -0.0001
63105SOL    HW296556  10.796  11.857   2.320 -0.3194  2.0007 -0.3820
63106SOL     OW96557  12.656   6.648   2.437  0.3350  0.1143  0.5310
63106SOL    HW196558  12.694   6.668   2.352  0.7438 -0.2590  0.6237
63106SOL    HW296559  12.624   6.733   2.469 -0.6461  0.1093 -0.3834
63107SOL     OW96560   1.880  11.542  10.523  0.7400 -0.4548 -0.7261
63107SOL    HW196561   1.955  11.555  10.582  1.3999 -2.0944 -1.1657
63107SOL    HW296562   1.808  11.520  10.582  0.6137  0.9287 -0.3176
63108SOL     OW96563  11.525   0.529   6.252 -0.2731  0.2525 -0.5608
63108SOL    HW196564  11.494   0.504   6.338  1.6379 -0.6052 -0.0779
63108SOL    HW296565  11.458   0.590   6.219 -1.2980  0.1793  1.2762
63109SOL     OW96566  11.279  11.705  12.086 -0.5415  0.2570  0.2038
63109SOL    HW196567  11.217  11.777  12.077  0.0936  0.6991 -0.6976
63109SOL    HW296568  11.229  11.628  12.058 -1.5105  0.1562  2.0339
63110SOL     OW96569  11.148   2.349  11.410  0.5836 -0.0043 -0.4608
63110SOL    HW196570  11.188   2.425  11.452 -0.3881  0.0158  0.4699
63110SOL    HW296571  11.086   2.386  11.348  2.3056 -0.0252 -2.3147
63111SOL     OW96572   8.425   9.529   3.948 -0.0417 -0.4492 -0.3287
63111SOL    HW196573   8.341   9.483   3.945 -0.9982  1.1723  0.3782
63111SOL    HW296574   8.402   9.621   3.965  1.9571 -0.3145  2.4055
63112SOL     OW96575   5.416   8.233   5.569  0.1093  0.0433 -0.0713
63112SOL    HW196576   5.342   8.229   5.509  0.1961 -1.0881 -0.1118
63112SOL    HW296577   5.489   8.262   5.515  0.1781 -0.9290 -0.5218
63113SOL     OW96578   1.423   9.719   6.401  0.6624  0.2266 -0.6346
63113SOL    HW196579   1.337   9.759   6.415  0.9430  0.9183 -0.8799
63113SOL    HW296580   1.404   9.639   6.352  0.2419  0.8907 -1.5744
63114SOL     OW96581   5.333   1.097   6.686  0.2904  0.6138  0.4400
63114SOL    HW196582   5.276   1.144   6.747  1.3165 -0.3417  2.2557
63114SOL    HW296583   5.406   1.157   6.670  0.9331  0.2047  1.6853
63115SOL     OW96584   3.280  10.697   8.935  0.4441 -0.2994 -0.1477
63115SOL    HW196585   3.312  10.763   8.997  0.4064  0.0463 -0.4881
63115SOL    HW296586   3.266  10.619   8.988  2.1542 -0.5741 -0.0438
63116SOL     OW96587   5.915   1.059   7.076  0.0586 -0.0177 -0.2999
63116SOL    HW196588   5.872   0.992   7.023 -0.0726  0.5785 -0.9621
63116SOL    HW296589   6.008   1.045   7.061  0.0570 -0.4226  0.0359
63117SOL     OW96590   2.318   9.718   0.714 -0.4175  0.1484 -0.0738
63117SOL    HW196591   2.405   9.723   0.674 -0.2399  1.6927  0.4432
63117SOL    HW296592   2.258   9.747   0.645 -0.4875 -0.5094 -0.2955
63118SOL     OW96593   0.375   0.199   6.562  0.7274 -0.0823 -1.0717
63118SOL    HW196594   0.463   0.227   6.539  1.6766 -1.8224  0.1967
63118SOL    HW296595   0.318   0.265   6.523  2.5783  1.1709 -1.8054
63119SOL     OW96596   2.991  11.539   4.819  0.7895 -0.5151  0.3079
63119SOL    HW196597   2.964  11.626   4.849  1.6778 -0.0188 -0.2792
63119SOL    HW296598   3.083  11.549   4.797  0.5877 -1.2753 -0.9929
63120SOL     OW96599   7.468   8.822  10.510 -0.0927  0.2118 -0.3420
63120SOL    HW196600   7.518   8.776  10.442  0.3932  0.3545 -0.0910
63120SOL    HW296601   7.387   8.848  10.467 -0.5639 -1.2282 -0.3799
63121SOL     OW96602   5.106  11.539  10.836  0.4349 -0.0303  0.5991
63121SOL    HW196603   5.086  11.479  10.909  0.0283  0.0146  0.5250
63121SOL    HW296604   5.165  11.604  10.875  2.2746 -1.4037  0.2888
63122SOL     OW96605   0.165   1.715  11.181  0.4617  0.2532  0.3193
63122SOL    HW196606   0.167   1.810  11.191 -0.6771  0.4638 -1.0912
63122SOL    HW296607   0.141   1.701  11.089  1.8791 -1.4110  0.1288
63123SOL     OW96608   6.482   1.569   7.239  0.0211  0.0452  0.3831
63123SOL    HW196609   6.558   1.628   7.244 -0.4415  0.6138  0.9011
63123SOL    HW296610   6.469   1.540   7.330  0.6309 -1.3722  0.0430
63124SOL     OW96611   6.540   0.498  10.026 -0.2028  0.6823 -0.2071
63124SOL    HW196612   6.524   0.416  10.073  1.4473  0.4892  0.0622
63124SOL    HW296613   6.618   0.535  10.067 -1.0770  2.5667 -0.1268
63125SOL     OW96614   7.614   3.782   6.986 -0.3297  0.1338 -0.6415
63125SOL    HW196615   7.546   3.815   6.927 -1.3773 -0.2064  0.3357
63125SOL    HW296616   7.567   3.725   7.047  0.7311  0.4293  0.4918
63126SOL     OW96617   3.328  10.137   9.865 -0.2900  0.5892 -0.3115
63126SOL    HW196618   3.233  10.135   9.862 -0.3732 -0.6653  1.6425
63126SOL    HW296619   3.356  10.077   9.796 -0.9244  0.4803 -0.4744
63127SOL     OW96620   4.396   5.923   6.439 -0.3356 -0.4567  0.7462
63127SOL    HW196621   4.375   5.843   6.392  1.4814 -1.2487  1.1776
63127SOL    HW296622   4.347   5.992   6.393  0.7775 -1.2797 -1.8725
63128SOL     OW96623   7.723   9.508  10.075  1.0494 -0.5177 -0.3938
63128SOL    HW196624   7.713   9.574  10.007 -1.1503 -2.1470 -1.8063
63128SOL    HW296625   7.807   9.467  10.057  0.9850 -0.1998 -1.4832
63129SOL     OW96626   9.496   4.262   1.968 -0.0613  0.1417 -0.4649
63129SOL    HW196627   9.578   4.224   1.935 -1.8162 -2.5340 -2.1205
63129SOL    HW296628   9.447   4.284   1.889 -1.1962  1.1416  0.4934
63130SOL     OW96629   3.857  11.256   7.837  0.1791 -0.6190  0.1011
63130SOL    HW196630   3.837  11.168   7.869 -1.2361 -0.4633 -0.2725
63130SOL    HW296631   3.881  11.305   7.915 -0.4426 -0.9669  0.5208
63131SOL     OW96632   0.465   7.460   8.133  0.3673 -0.3230 -0.7174
63131SOL    HW196633   0.465   7.518   8.057  2.2758  0.9687  0.1961
63131SOL    HW296634   0.542   7.486   8.183 -0.3754 -1.6887  1.2512
63132SOL     OW96635   5.180   2.211  12.374 -0.4177  0.0081  0.0158
63132SOL    HW196636   5.183   2.303  12.400 -0.3472  0.2769 -0.8814
63132SOL    HW296637   5.212   2.163  12.450  0.7206  0.8247  0.0784
63133SOL     OW96638   8.517  11.801   8.028  0.1110  0.3627 -0.3321
63133SOL    HW196639   8.442  11.759   7.987  0.0621 -0.4460  0.5571
63133SOL    HW296640   8.479  11.863   8.090  0.1821  0.2218 -0.1493
63134SOL     OW96641  10.979   7.687   4.609  0.6143  0.3369 -0.0128
63134SOL    HW196642  10.941   7.698   4.696 -0.2095  2.5096 -0.5851
63134SOL    HW296643  10.980   7.592   4.595 -2.8736  0.0534  0.8154
63135SOL     OW96644   5.250   2.083   0.018  0.1089  0.5278 -0.0447
63135SOL    HW196645   5.187   2.151   0.041  1.8431  2.2080 -0.0542
63135SOL    HW296646   5.334   2.128   0.013  1.1806 -1.4324 -1.0617
63136SOL     OW96647   4.164   0.330   7.487 -0.0731  0.0904 -0.4165
63136SOL    HW196648   4.144   0.416   7.449  0.4959  0.8409  0.8713
63136SOL    HW296649   4.260   0.329   7.493 -0.0826 -0.6114 -0.3642
63137SOL     OW96650  10.764   1.610   9.066  0.2548 -0.4525 -0.5508
63137SOL    HW196651  10.757   1.515   9.072  1.0173 -0.4589  0.3338
63137SOL    HW296652  10.673   1.640   9.060 -0.0526 -1.1550  0.4598
63138SOL     OW96653   4.329   0.261   1.174  0.2183  0.4859 -0.0905
63138SOL    HW196654   4.271   0.275   1.249  0.6177  0.4132  0.2310
63138SOL    HW296655   4.329   0.167   1.161  2.1976  0.2026  1.4701
63139SOL     OW96656   9.612  11.688   7.402  0.1334 -0.3633  0.9779
63139SOL    HW196657   9.566  11.632   7.465  0.6584 -0.3223  1.4115
63139SOL    HW296658   9.561  11.769   7.400  0.0837 -0.3845  1.3144
63140SOL     OW96659  10.429  10.434   0.501  0.1597 -0.2645  0.7733
63140SOL    HW196660  10.488  10.411   0.430 -0.6770  2.1804 -0.8525
63140SOL    HW296661  10.398  10.350   0.536  0.5359 -1.5579 -1.8208
63141SOL     OW96662   3.175   4.660   5.181  0.1499 -0.1679 -0.0482
63141SOL    HW196663   3.114   4.670   5.108 -0.3015  0.7381  0.4329
63141SOL    HW296664   3.214   4.574   5.169 -1.2620 -0.7922 -0.3447
63142SOL     OW96665   0.425   6.190   1.586 -0.4335 -0.2364 -0.2699
63142SOL    HW196666   0.422   6.171   1.679  2.8335 -0.7253 -0.1572
63142SOL    HW296667   0.353   6.139   1.548 -0.7730 -1.3534  1.7591
63143SOL     OW96668   8.471   0.857   0.982 -0.4050 -0.2077 -0.1431
63143SOL    HW196669   8.501   0.946   0.966  0.5459 -0.4747  0.0962
63143SOL    HW296670   8.537   0.801   0.939  0.2081 -0.8368  1.5353
63144SOL     OW96671   0.560   1.017  12.421  0.2499  0.4583  0.3972
63144SOL    HW196672   0.632   1.055  12.471 -0.1046  1.9180 -0.1676
63144SOL    HW296673   0.523   0.951  12.480  0.7533  1.1117  1.4830
63145SOL     OW96674   2.825   7.340  10.803  0.3259  0.2206 -0.5755
63145SOL    HW196675   2.796   7.321  10.892  0.6870 -2.0594 -0.8773
63145SOL    HW296676   2.892   7.407  10.813  0.2932  0.0748  0.8618
63146SOL     OW96677   1.522   4.919   6.435  0.2737 -0.1358 -0.7492
63146SOL    HW196678   1.500   4.852   6.500 -0.3781 -1.1646 -1.9771
63146SOL    HW296679   1.587   4.974   6.478 -0.9916 -0.0596  1.1975
63147SOL     OW96680   2.975   3.546   7.829  0.7195  0.0341 -0.2298
63147SOL    HW196681   2.928   3.588   7.901  0.7745 -0.3278  0.0208
63147SOL    HW296682   2.974   3.610   7.758 -0.0347  0.0825 -0.1799
63148SOL     OW96683   9.093   0.427   6.968 -0.3226 -0.4215 -0.0305
63148SOL    HW196684   9.012   0.424   7.018 -0.8569  1.0174 -0.7595
63148SOL    HW296685   9.101   0.339   6.930 -2.7774  0.0318 -1.8263
63149SOL     OW96686   4.090  12.459   7.329  0.4557 -0.3574 -0.2445
63149SOL    HW196687   4.038  12.395   7.378 -0.9566  1.8184  1.2841
63149SOL    HW296688   4.066  12.445   7.238 -1.7514 -0.4254  0.2964
63150SOL     OW96689   7.964   9.097   2.286  0.5728  0.0840 -0.2699
63150SOL    HW196690   7.922   9.103   2.200  0.2029  0.3028 -0.0726
63150SOL    HW296691   8.057   9.088   2.266  0.4116 -0.7172 -0.7148
63151SOL     OW96692  10.432   2.929   6.661 -0.1638  0.3040  0.2003
63151SOL    HW196693  10.427   2.953   6.568 -0.7191 -2.2715 -0.5330
63151SOL    HW296694  10.345   2.950   6.696 -0.6613 -0.6154 -0.4333
63152SOL     OW96695   1.420   7.733   0.040  0.1260 -0.1779 -0.3272
63152SOL    HW196696   1.441   7.797   0.109  0.6911  0.0567 -0.7059
63152SOL    HW296697   1.343   7.770  -0.004  0.6072  0.3977 -0.7155
63153SOL     OW96698   3.627   1.475   0.687  0.0933 -0.5835  0.0054
63153SOL    HW196699   3.719   1.502   0.694 -0.0444 -0.1744  0.2205
63153SOL    HW296700   3.628   1.382   0.710  0.2961 -0.3319  1.0696
63154SOL     OW96701   9.823   8.389   2.686  0.1408  0.1847  0.2370
63154SOL    HW196702   9.873   8.433   2.755 -1.2048  0.0185  1.3766
63154SOL    HW296703   9.872   8.407   2.606  3.6241 -2.2972  1.5357
63155SOL     OW96704   3.849   0.186   9.431  0.1043 -0.2865  0.8226
63155SOL    HW196705   3.775   0.246   9.421  0.1033 -0.4216 -0.0095
63155SOL    HW296706   3.887   0.209   9.516  0.1548  0.9353  0.4908
63156SOL     OW96707   8.995   0.465   2.054  0.2061 -0.3425 -0.1522
63156SOL    HW196708   8.909   0.478   2.093  0.4403 -2.0313  1.0780
63156SOL    HW296709   9.033   0.552   2.049 -1.6189  0.4602 -0.8840
63157SOL     OW96710   9.646   8.432   2.234  0.4394  0.7297  0.3846
63157SOL    HW196711   9.621   8.520   2.206  2.7581  1.7186  1.1540
63157SOL    HW296712   9.704   8.447   2.308  1.8476 -1.3869 -0.2135
63158SOL     OW96713   4.397   8.564   8.563 -0.3822 -0.1018  0.0758
63158SOL    HW196714   4.332   8.495   8.568 -2.0362  1.2499 -1.4000
63158SOL    HW296715   4.457   8.536   8.494 -3.0069  1.3302 -3.0490
63159SOL     OW96716   3.386   3.352  10.066  0.4694  0.5000  0.1059
63159SOL    HW196717   3.326   3.312  10.004  1.0953 -3.3417  1.6972
63159SOL    HW296718   3.471   3.311  10.049  1.3476  1.5631  1.5851
63160SOL     OW96719   5.848   8.484   0.203 -0.3497  0.1315 -0.7091
63160SOL    HW196720   5.761   8.482   0.162  0.0307 -1.1758 -1.5389
63160SOL    HW296721   5.832   8.457   0.294 -0.6862 -1.4544 -1.1998
63161SOL     OW96722   4.222   3.619   8.243 -0.0788 -0.2716 -0.0591
63161SOL    HW196723   4.270   3.672   8.307  0.7114 -2.5693  1.3587
63161SOL    HW296724   4.154   3.576   8.294 -1.2818  0.0232 -1.3598
63162SOL     OW96725   3.893   9.419   2.622  0.2220  0.2585  0.1524
63162SOL    HW196726   3.968   9.425   2.681 -0.4558 -1.5824  1.2808
63162SOL    HW296727   3.820   9.394   2.679 -0.3724 -1.9757 -1.4681
63163SOL     OW96728   2.102  12.442   8.878 -0.6956  0.3213 -0.0419
63163SOL    HW196729   2.032  12.502   8.902 -1.8985 -1.2639  0.6720
63163SOL    HW296730   2.165  12.447   8.950 -1.0905  0.3005  0.3097
63164SOL     OW96731   4.769  11.120   0.454 -0.3142 -0.7519  0.4247
63164SOL    HW196732   4.859  11.101   0.480  0.2073 -2.9452 -2.5069
63164SOL    HW296733   4.716  11.065   0.511  0.4268 -1.7612  0.1663
63165SOL     OW96734   0.616   1.627   8.795  0.5249 -0.2332  0.0410
63165SOL    HW196735   0.676   1.661   8.862 -0.3054 -1.9770  1.7757
63165SOL    HW296736   0.544   1.690   8.794  0.5407 -0.1924  0.8109
63166SOL     OW96737   6.654  11.246   8.935 -0.1631 -0.4376 -0.4708
63166SOL    HW196738   6.649  11.284   8.848 -0.4333 -1.4489 -0.9136
63166SOL    HW296739   6.713  11.171   8.925 -2.0185 -1.9840 -0.3479
63167SOL     OW96740  12.695  11.096   7.100  0.2460 -0.1109  0.0996
63167SOL    HW196741  12.682  11.101   7.006 -2.9280 -3.1715  0.1633
63167SOL    HW296742  12.749  11.017   7.112 -1.0511 -0.9235  0.8329
63168SOL     OW96743   2.668   5.427   8.792 -0.2257  0.5341  0.4933
63168SOL    HW196744   2.710   5.513   8.795 -1.0319  0.9629 -0.0309
63168SOL    HW296745   2.722   5.372   8.848 -0.2986  1.6526  1.7164
63169SOL     OW96746   5.775  10.534   7.246 -0.1283  0.6905  0.0942
63169SOL    HW196747   5.731  10.612   7.211 -0.4635  0.1224 -0.7761
63169SOL    HW296748   5.868  10.555   7.241 -0.2216  1.0802 -0.0292
63170SOL     OW96749   5.696   8.767   3.612 -0.2370 -0.4602  0.0236
63170SOL    HW196750   5.694   8.740   3.520 -0.1580 -1.0076  0.1845
63170SOL    HW296751   5.644   8.848   3.614  0.4401  0.0097 -0.6524
63171SOL     OW96752   3.274   9.912   4.453 -0.0920  0.4270 -0.6180
63171SOL    HW196753   3.220   9.943   4.525 -0.1192  0.1471 -0.5160
63171SOL    HW296754   3.217   9.853   4.404  0.0273  0.3645 -0.6823
63172SOL     OW96755  12.091  12.228   8.292  0.4615  0.2997  0.5585
63172SOL    HW196756  12.084  12.275   8.375  0.9797 -0.3266  0.9588
63172SOL    HW296757  12.174  12.182   8.297  1.4583  1.7739 -1.0987
63173SOL     OW96758   4.427   3.298   9.324 -0.5794 -0.6783  0.3996
63173SOL    HW196759   4.392   3.371   9.376  2.0671 -1.0314  2.9617
63173SOL    HW296760   4.477   3.339   9.254 -1.4572 -0.1202  0.0849
63174SOL     OW96761   1.024  11.465   6.454  0.1234  0.1983  0.4258
63174SOL    HW196762   1.034  11.452   6.549 -2.7314 -0.5710  0.6990
63174SOL    HW296763   1.063  11.387   6.415 -3.5635 -2.3390  1.3513
63175SOL     OW96764  10.957   9.777   7.351 -0.5102 -0.3534 -0.1607
63175SOL    HW196765  10.930   9.858   7.395 -1.4282 -0.5870 -0.2833
63175SOL    HW296766  10.928   9.788   7.261  0.3850 -0.3450 -0.4564
63176SOL     OW96767   2.478   8.831  11.321  0.0141 -0.6611  0.0489
63176SOL    HW196768   2.473   8.736  11.316  3.5768 -0.9331 -0.7857
63176SOL    HW296769   2.415   8.862  11.255 -0.6854 -2.4478 -0.1710
63177SOL     OW96770   0.335  10.952   1.877 -0.1604  0.2008  0.1034
63177SOL    HW196771   0.394  10.884   1.908  0.5077  0.6641 -0.1345
63177SOL    HW296772   0.353  11.027   1.933 -2.4690 -0.4322  1.8775
63178SOL     OW96773   7.778  12.659  12.710  0.0789 -0.2161 -0.3038
63178SOL    HW196774   7.775  12.744  12.666  0.7004 -0.8562 -1.6211
63178SOL    HW296775   7.731  12.600  12.651  0.9363 -1.0991 -0.1325
63179SOL     OW96776   7.010   0.107  11.169 -0.2181 -0.4477 -0.2146
63179SOL    HW196777   7.086   0.157  11.199 -0.3319  0.4998 -1.4565
63179SOL    HW296778   7.009   0.029  11.225  0.0678  0.8263  1.6559
63180SOL     OW96779   6.698   3.773   2.211  0.0578 -0.1046  0.7046
63180SOL    HW196780   6.717   3.731   2.295  0.3140  0.2591  0.8260
63180SOL    HW296781   6.622   3.828   2.229  0.8692  0.9455  1.0127
63181SOL     OW96782  12.633   9.273   1.338 -0.1677  0.1426 -0.1517
63181SOL    HW196783  12.723   9.274   1.372 -0.4079  1.2664  0.4875
63181SOL    HW296784  12.644   9.272   1.243  0.5109 -1.5710 -0.0935
63182SOL     OW96785   3.456   5.259  10.506 -0.0922 -0.0525  0.6344
63182SOL    HW196786   3.398   5.214  10.568 -1.1466 -0.0206 -0.2839
63182SOL    HW296787   3.397   5.315  10.455  0.6495 -0.4725 -0.7349
63183SOL     OW96788   4.962   4.610   0.494 -0.2511  0.3765  0.8351
63183SOL    HW196789   4.889   4.571   0.446  0.2196  0.9003 -0.3619
63183SOL    HW296790   5.037   4.552   0.476  0.2143  1.2272 -0.1302
63184SOL     OW96791   3.916   3.972   6.600  0.3210  0.3468 -0.4478
63184SOL    HW196792   3.975   3.910   6.557  1.1654  1.1771 -0.5500
63184SOL    HW296793   3.966   4.054   6.601 -0.2014  0.6731  0.9440
63185SOL     OW96794   6.288   7.379  10.905 -0.0281  0.2522 -0.6307
63185SOL    HW196795   6.370   7.381  10.955 -0.0445 -0.1620 -0.5850
63185SOL    HW296796   6.314   7.353  10.817 -0.3165 -1.6627 -0.1854
63186SOL     OW96797   3.890   5.821   1.523  0.4560  0.1141  0.3487
63186SOL    HW196798   3.808   5.863   1.497 -0.6378 -2.1570 -0.1638
63186SOL    HW296799   3.899   5.840   1.616  0.4850  2.1544 -0.0409
63187SOL     OW96800  12.252  12.097   0.730  0.4667  0.5505 -0.3657
63187SOL    HW196801  12.171  12.131   0.691  0.5051 -0.5799 -1.4767
63187SOL    HW296802  12.252  12.004   0.709  1.1048  0.1294  1.3236
63188SOL     OW96803   8.252   7.196   4.670 -0.0209  0.0092 -0.2900
63188SOL    HW196804   8.284   7.218   4.582  0.0258 -1.1801 -0.5826
63188SOL    HW296805   8.219   7.107   4.662  2.2590 -1.0839  1.5003
63189SOL     OW96806   6.383   6.187  12.707  0.2847  0.4066  0.0422
63189SOL    HW196807   6.448   6.203  12.775 -1.3851  0.5247  1.6594
63189SOL    HW296808   6.302   6.167  12.754 -0.2394 -2.6915 -1.8466
63190SOL     OW96809   9.914   6.244   5.963 -0.2828  0.3871 -0.5336
63190SOL    HW196810   9.932   6.329   6.005 -1.2573  0.7935 -0.9041
63190SOL    HW296811   9.972   6.242   5.887  0.6190  0.1762  0.1417
63191SOL     OW96812   3.487  11.834  10.142 -0.0959 -0.1117  0.2531
63191SOL    HW196813   3.548  11.788  10.085 -1.6986 -1.4388 -0.4619
63191SOL    HW296814   3.500  11.794  10.228  1.7305  1.3192  0.7040
63192SOL     OW96815   5.741  10.506   3.770 -0.1449 -0.1784  0.4011
63192SOL    HW196816   5.753  10.411   3.760  1.9019  0.2217 -1.4793
63192SOL    HW296817   5.686  10.531   3.696  0.3955  0.2975  0.1607
63193SOL     OW96818   5.930   2.591   2.021 -0.0362 -0.1915  0.6260
63193SOL    HW196819   5.965   2.660   2.077 -0.5240 -0.3184  1.0934
63193SOL    HW296820   6.007   2.553   1.978  0.1772  1.2170 -0.3228
63194SOL     OW96821  12.327   4.745  10.618  0.5106  0.6713  0.0057
63194SOL    HW196822  12.325   4.785  10.705 -0.5189 -1.3474  0.9767
63194SOL    HW296823  12.407   4.692  10.617 -0.5825 -1.0976  0.6571
63195SOL     OW96824   5.865   9.886   1.428 -0.2054  0.3921 -0.1617
63195SOL    HW196825   5.875   9.792   1.412  0.0325  0.3101  0.4819
63195SOL    HW296826   5.927   9.906   1.498 -0.5978  0.9378  0.0348
63196SOL     OW96827   7.301   5.521   9.373 -0.2759 -0.1151 -0.1972
63196SOL    HW196828   7.383   5.486   9.338  0.2047  1.2574 -0.5327
63196SOL    HW296829   7.247   5.536   9.295 -0.3773  0.1086 -0.0842
63197SOL     OW96830   4.472   4.781   7.463 -0.1264 -0.3422  0.1686
63197SOL    HW196831   4.545   4.821   7.510 -1.2858  0.7695  1.0898
63197SOL    HW296832   4.432   4.722   7.527 -1.7090  1.1753  0.6618
63198SOL     OW96833   8.748  10.787   9.110  0.6899 -0.3740  0.3672
63198SOL    HW196834   8.818  10.768   9.172  2.0924  2.3777 -0.1815
63198SOL    HW296835   8.691  10.848   9.156  0.3321 -0.2817 -0.1906
63199SOL     OW96836   4.164   8.049   9.455 -0.1463  0.7241  0.5055
63199SOL    HW196837   4.141   7.965   9.414  0.1548  0.7520  0.2750
63199SOL    HW296838   4.137   8.040   9.546  0.2582  0.2291  0.5759
63200SOL     OW96839   3.147  11.722  11.098 -0.4646 -1.0057  0.1176
63200SOL    HW196840   3.062  11.764  11.112 -0.1303 -0.1726 -0.3073
63200SOL    HW296841   3.131  11.663  11.024 -0.7080 -0.9490  0.1214
63201SOL     OW96842  10.745   8.048   5.774  0.0367 -0.5662  0.4399
63201SOL    HW196843  10.653   8.039   5.750  0.4084  0.0121 -1.4031
63201SOL    HW296844  10.745   8.054   5.869 -1.9451  0.5746  0.4191
63202SOL     OW96845   9.445   9.927   7.203 -0.2820 -0.5828  0.0282
63202SOL    HW196846   9.482   9.884   7.280  0.8007 -1.2808 -0.8388
63202SOL    HW296847   9.473  10.018   7.211  0.1616 -0.7360  0.2812
63203SOL     OW96848   8.243   7.268  10.974 -0.3586 -0.0040 -0.8113
63203SOL    HW196849   8.197   7.265  10.890 -1.3657  0.2566 -0.2756
63203SOL    HW296850   8.279   7.357  10.979 -1.3577  0.3827 -0.4111
63204SOL     OW96851  12.176  10.016   8.186 -0.2214 -0.2216 -0.1618
63204SOL    HW196852  12.222   9.978   8.112  0.6212  0.3428  0.0484
63204SOL    HW296853  12.223   9.983   8.263  0.6226  1.2775  0.0237
63205SOL     OW96854   2.606   9.053  12.179  0.5547 -0.2653 -0.3512
63205SOL    HW196855   2.651   9.039  12.096  2.9457  1.2462  0.5707
63205SOL    HW296856   2.567   9.140  12.171  0.9321 -0.0466  0.1482
63206SOL     OW96857   4.488  12.345   9.443  0.6944 -0.3626  0.4130
63206SOL    HW196858   4.563  12.335   9.502  0.8141 -0.6865  0.2129
63206SOL    HW296859   4.516  12.413   9.381  0.8233 -0.4853  0.3361
63207SOL     OW96860  10.007  11.454   2.559  0.2232 -0.5182 -0.0772
63207SOL    HW196861  10.063  11.523   2.595 -0.1905  0.4539 -1.2090
63207SOL    HW296862   9.934  11.448   2.620 -0.3970  0.9971 -0.6287
63208SOL     OW96863   0.923  10.918   6.271 -0.1630  0.5335 -0.0508
63208SOL    HW196864   0.966  10.838   6.301  0.9519  1.0661 -0.1802
63208SOL    HW296865   0.941  10.921   6.177  1.0022  1.6251  0.1812
63209SOL     OW96866  11.788   2.887  10.453  0.3610  0.1250 -0.0050
63209SOL    HW196867  11.831   2.963  10.416  0.1219  0.6278  0.7237
63209SOL    HW296868  11.821   2.881  10.543 -2.6288  1.8606  1.3771
63210SOL     OW96869  12.558  10.518   3.825  0.2623 -0.1542 -0.6767
63210SOL    HW196870  12.597  10.599   3.859  0.4267  0.0622 -1.3677
63210SOL    HW296871  12.479  10.546   3.780 -0.3986 -0.5346  0.2196
63211SOL     OW96872   0.548   3.847   2.582 -0.2710  0.1659  0.5452
63211SOL    HW196873   0.521   3.868   2.671 -1.2290 -0.6692  0.4729
63211SOL    HW296874   0.472   3.802   2.544  0.6992 -0.9470 -0.1556
63212SOL     OW96875  12.310   1.390  10.024 -0.5892  0.0069 -0.0137
63212SOL    HW196876  12.260   1.442   9.960 -2.4719 -0.9600  0.5984
63212SOL    HW296877  12.390   1.440  10.038 -1.4744  1.7669 -0.8772
63213SOL     OW96878   6.264   2.257   1.430 -0.1967  0.3387 -0.7281
63213SOL    HW196879   6.309   2.240   1.513  1.2770 -0.3171 -1.6245
63213SOL    HW296880   6.210   2.180   1.416  0.5548 -0.1536 -0.9937
63214SOL     OW96881   1.659   4.644   3.069  0.2526 -0.0421  0.0449
63214SOL    HW196882   1.738   4.597   3.042 -0.3383  0.3510 -2.6233
63214SOL    HW296883   1.626   4.593   3.143  1.8102 -1.4874 -0.1701
63215SOL     OW96884   1.226   5.438   5.746 -0.7120 -0.9679  0.5564
63215SOL    HW196885   1.218   5.519   5.696 -1.4865 -1.3498  0.0492
63215SOL    HW296886   1.296   5.390   5.702 -0.0903 -0.4907  0.9959
63216SOL     OW96887   2.463   1.183  10.072 -0.3713  0.3630  0.7765
63216SOL    HW196888   2.483   1.247  10.140  1.5309 -0.4985  1.1026
63216SOL    HW296889   2.461   1.099  10.118  1.8295 -0.3487 -0.3017
63217SOL     OW96890   0.700   4.703  11.798  0.5023  0.0952  0.3129
63217SOL    HW196891   0.642   4.771  11.832 -0.0964  0.0519 -0.5978
63217SOL    HW296892   0.770   4.751  11.754 -1.4195  0.2033 -2.8844
63218SOL     OW96893   4.788   0.771  12.389 -0.5391  0.4672 -0.0524
63218SOL    HW196894   4.710   0.724  12.357 -1.3977  1.9501 -0.2138
63218SOL    HW296895   4.811   0.831  12.319  0.7654  0.0658  0.0136
63219SOL     OW96896   0.095   6.599  10.894 -0.7061 -0.5656 -0.2682
63219SOL    HW196897   0.025   6.548  10.936 -0.3127 -0.4311  0.5850
63219SOL    HW296898   0.084   6.687  10.928  0.2566 -0.6803  0.3896
63220SOL     OW96899   5.177   1.206   7.708  0.4031  0.4861 -0.0650
63220SOL    HW196900   5.114   1.194   7.636 -1.5576 -1.1561  1.7967
63220SOL    HW296901   5.141   1.155   7.780  3.4025  0.3407  1.4640
63221SOL     OW96902   1.041   7.895   5.092 -0.6170  0.4204  0.0097
63221SOL    HW196903   1.017   7.918   5.182 -1.0406  1.5423 -0.3763
63221SOL    HW296904   1.131   7.865   5.098 -0.6052  0.6002  0.7982
63222SOL     OW96905   2.969   2.181  12.473 -0.0553 -0.3890  0.0975
63222SOL    HW196906   2.977   2.085  12.469 -1.3169 -0.5965  1.5367
63222SOL    HW296907   3.016   2.205  12.553  1.6632  0.4182 -1.1075
63223SOL     OW96908   9.633   6.379   3.977 -0.0037  0.4951 -0.2206
63223SOL    HW196909   9.561   6.327   3.940  1.6680 -0.4656 -2.2906
63223SOL    HW296910   9.603   6.470   3.967 -1.5420  0.0850  0.3517
63224SOL     OW96911   3.383   0.895  12.375  0.3351  0.1620  0.0929
63224SOL    HW196912   3.442   0.851  12.314 -2.1426 -1.6984 -1.0787
63224SOL    HW296913   3.326   0.948  12.319 -1.0863 -0.4897  0.8912
63225SOL     OW96914   3.388   8.225   3.478 -0.1937 -0.1032  0.2041
63225SOL    HW196915   3.417   8.312   3.505  0.5254 -0.1137 -0.4922
63225SOL    HW296916   3.351   8.186   3.558  1.6675 -0.0540  1.1518
63226SOL     OW96917  10.927   1.310  12.512 -0.1415  0.6230 -0.9950
63226SOL    HW196918  10.962   1.232  12.555  1.0970  0.4402 -2.2422
63226SOL    HW296919  10.972   1.383  12.555 -1.9287  0.7607  0.7563
63227SOL     OW96920   2.934   5.968   3.170 -0.6635 -0.1081  0.8048
63227SOL    HW196921   3.030   5.968   3.173 -0.6392 -1.0442  0.6020
63227SOL    HW296922   2.908   5.928   3.253 -0.8886  0.3171  0.9403
63228SOL     OW96923   3.440   2.906   2.343  0.2551  0.7500  0.8885
63228SOL    HW196924   3.400   2.971   2.286  0.5507  0.5419  0.4365
63228SOL    HW296925   3.414   2.932   2.431 -1.9108 -0.0960  0.5460
63229SOL     OW96926   8.399   8.346   8.510  0.2656  0.6618  0.5140
63229SOL    HW196927   8.352   8.361   8.592  0.7652  0.5481  0.8296
63229SOL    HW296928   8.428   8.433   8.482 -0.8686  0.8569 -0.1541
63230SOL     OW96929   2.831   0.677   7.841 -0.2476  0.1773  0.2521
63230SOL    HW196930   2.745   0.640   7.860 -0.7518  1.4336  0.4863
63230SOL    HW296931   2.841   0.749   7.904  1.6161 -0.8800  1.2735
63231SOL     OW96932   2.865   3.004   6.386 -0.1023 -0.1767 -0.4133
63231SOL    HW196933   2.927   3.075   6.407  1.3433 -1.1463 -1.2174
63231SOL    HW296934   2.797   3.046   6.334 -0.7437  1.1373  1.3747
63232SOL     OW96935   9.471   9.000   1.526 -0.4321 -0.4302  0.2992
63232SOL    HW196936   9.408   8.975   1.458  0.9175 -0.1461 -1.1000
63232SOL    HW296937   9.549   8.948   1.507  0.4171  0.6043  0.8504
63233SOL     OW96938   1.920   0.927   4.557  0.1212  0.1073 -0.2411
63233SOL    HW196939   1.828   0.930   4.531 -0.4788 -2.7028  1.1125
63233SOL    HW296940   1.962   0.871   4.491 -0.0025 -1.6241  1.0744
63234SOL     OW96941   7.888  12.147  10.471  0.4937  0.5305 -0.1011
63234SOL    HW196942   7.963  12.091  10.451  1.0587  1.7360 -1.5935
63234SOL    HW296943   7.813  12.099  10.436  0.8484  0.2629 -0.5193
63235SOL     OW96944   1.803   8.114  12.463 -0.3117 -0.2132  0.0631
63235SOL    HW196945   1.724   8.060  12.469  0.2212 -1.0254 -0.1297
63235SOL    HW296946   1.867   8.069  12.518  0.1633  0.1762 -0.1691
63236SOL     OW96947   1.734   4.362  10.835  0.2125 -0.0102  0.2756
63236SOL    HW196948   1.825   4.336  10.824  1.2876  3.2609  0.1966
63236SOL    HW296949   1.708   4.328  10.920  1.7146 -0.4814  0.5577
63237SOL     OW96950   0.507   0.449   7.800  0.2095  0.0615 -0.3681
63237SOL    HW196951   0.541   0.405   7.722  1.3170  0.5644 -0.1834
63237SOL    HW296952   0.556   0.411   7.873 -0.5298 -0.1137  0.0494
63238SOL     OW96953  12.397   8.299  11.292  0.2109  0.3835 -0.1170
63238SOL    HW196954  12.415   8.380  11.338  0.9031  1.2855 -1.8892
63238SOL    HW296955  12.483   8.261  11.275  0.1298  0.9888 -2.1653
63239SOL     OW96956  10.978  12.322   8.111  0.5497  0.2666 -0.1486
63239SOL    HW196957  10.906  12.260   8.099  1.5396 -0.8939 -0.2163
63239SOL    HW296958  10.935  12.407   8.119 -0.9663 -0.6082  1.6992
63240SOL     OW96959   5.592   1.371   0.562 -0.3894  0.0221  0.6875
63240SOL    HW196960   5.559   1.303   0.502  2.8257 -0.1036 -1.1370
63240SOL    HW296961   5.653   1.325   0.620  0.7794  1.0743  0.3344
63241SOL     OW96962   1.814   0.813  10.637  0.2750  0.3920 -0.1135
63241SOL    HW196963   1.881   0.880  10.646  1.2244 -0.6981  1.4115
63241SOL    HW296964   1.735   0.852  10.674  1.2607  0.0946  2.4548
63242SOL     OW96965   6.266   5.318   6.729 -0.2424 -0.5092 -0.3951
63242SOL    HW196966   6.283   5.412   6.721  1.0811 -0.5433  1.5630
63242SOL    HW296967   6.196   5.312   6.795 -1.3391 -0.8719 -1.5423
63243SOL     OW96968  11.285  11.957   2.950  0.4010  0.1730 -0.7764
63243SOL    HW196969  11.356  11.932   3.008 -2.2295 -0.6543  2.4049
63243SOL    HW296970  11.225  11.882   2.951 -2.8647  2.5862  0.8246
63244SOL     OW96971   5.176   7.408  11.651  0.5197 -0.1619 -0.2122
63244SOL    HW196972   5.159   7.463  11.727  1.3509  0.0096 -0.1472
63244SOL    HW296973   5.271   7.412  11.639  0.5461 -1.2142 -0.4731
63245SOL     OW96974   4.663  10.324   2.495  0.0134  0.1759  0.1580
63245SOL    HW196975   4.591  10.351   2.438 -0.9520 -0.2437  1.1270
63245SOL    HW296976   4.690  10.239   2.461 -0.3289  0.0799  0.1244
63246SOL     OW96977   4.331  10.157   5.208 -0.1967  0.0887  0.1927
63246SOL    HW196978   4.417  10.173   5.169  0.4682 -0.0866  1.4993
63246SOL    HW296979   4.349  10.153   5.302 -1.5192 -0.7548  0.4305
63247SOL     OW96980   5.868   5.546   5.170  0.1569  0.2312  0.1006
63247SOL    HW196981   5.775   5.546   5.149 -0.1448  3.4792  0.9244
63247SOL    HW296982   5.872   5.536   5.265  0.7308 -0.8042 -0.0169
63248SOL     OW96983  10.691   8.482   9.377 -0.3821 -0.0157  0.0473
63248SOL    HW196984  10.652   8.551   9.431 -1.0454  2.2791 -3.0864
63248SOL    HW296985  10.786   8.499   9.381 -0.4203  0.1034  0.4875
63249SOL     OW96986   5.806  10.634  12.040  0.4446  0.4177  0.0669
63249SOL    HW196987   5.809  10.558  12.098  0.4477 -0.4384 -1.0226
63249SOL    HW296988   5.781  10.707  12.097 -1.1551 -0.6930  0.8423
63250SOL     OW96989   6.892   8.750   9.880  0.1792 -0.0647 -0.3373
63250SOL    HW196990   6.911   8.713   9.794  0.3752  1.1280 -0.8137
63250SOL    HW296991   6.924   8.840   9.876 -0.8860  0.3773  0.5852
63251SOL     OW96992   5.487   5.763   0.555  0.0572 -0.9862 -0.2199
63251SOL    HW196993   5.431   5.690   0.581 -1.3564 -0.8992 -2.7132
63251SOL    HW296994   5.442   5.803   0.481 -0.6734  4.1541  2.5247
63252SOL     OW96995   5.125   7.285   0.189  0.5832  0.0653  0.2847
63252SOL    HW196996   5.064   7.328   0.249 -0.1461  0.9677 -1.0369
63252SOL    HW296997   5.125   7.193   0.215  2.0418  0.7193  3.1028
63253SOL     OW96998   4.786  10.307   0.502 -0.2432  0.5923  0.0693
63253SOL    HW196999   4.705  10.292   0.552 -0.2278  1.7662  0.4608
63253SOL    HW297000   4.828  10.381   0.545  0.1175  1.2074 -1.2878
63254SOL     OW97001   4.438  12.707   7.642  0.0995 -0.6031 -0.5366
63254SOL    HW197002   4.370  12.725   7.577  1.2279  0.4390 -1.4656
63254SOL    HW297003   4.509  12.667   7.592  0.5404 -0.8397  0.2600
63255SOL     OW97004   8.801   3.020   9.438 -0.0896  0.4088  0.1702
63255SOL    HW197005   8.782   2.927   9.439  1.5826 -0.0712 -2.4499
63255SOL    HW297006   8.750   3.054   9.365 -1.4970  1.8433  1.7150
63256SOL     OW97007   8.212   8.011   5.204  0.2979 -0.6719 -0.0831
63256SOL    HW197008   8.219   8.065   5.282  1.1861 -1.4710  0.4048
63256SOL    HW297009   8.130   7.962   5.216  0.7751 -1.2994  0.6886
63257SOL     OW97010   1.511  11.618  11.395 -0.1824  0.1253 -0.0960
63257SOL    HW197011   1.438  11.558  11.380 -0.4452  0.1338  1.0571
63257SOL    HW297012   1.469  11.702  11.413 -0.1077 -0.4388  3.4518
63258SOL     OW97013   4.061   1.015  10.822  0.3622  0.0785 -0.0266
63258SOL    HW197014   4.024   1.031  10.735  1.4490 -2.3470 -1.0442
63258SOL    HW297015   4.048   0.921  10.836  2.7672 -0.1488  1.1384
63259SOL     OW97016  10.810  12.007   5.184  0.0590 -0.6941  0.3034
63259SOL    HW197017  10.887  12.030   5.130 -0.5466 -0.1563 -0.3548
63259SOL    HW297018  10.737  12.010   5.122 -0.6447 -0.1486  1.1561
63260SOL     OW97019   5.176   8.554   7.557  0.0522 -0.1620  0.6639
63260SOL    HW197020   5.159   8.511   7.473 -0.3463  0.9708  0.1447
63260SOL    HW297021   5.089   8.577   7.589  0.3271  2.0599 -0.0593
63261SOL     OW97022   7.652  10.809   0.041  0.1241 -0.6928  0.0316
63261SOL    HW197023   7.635  10.901   0.060 -0.3100 -0.7327 -0.1364
63261SOL    HW297024   7.722  10.784   0.101 -0.9595 -0.7201  1.3399
63262SOL     OW97025   1.882   5.653   1.701  0.1359  0.7229 -0.6723
63262SOL    HW197026   1.799   5.695   1.676  0.0736  0.8476 -0.2768
63262SOL    HW297027   1.942   5.727   1.716 -0.0916  0.7035  0.4378
63263SOL     OW97028   9.379   3.343   7.357 -0.1709 -0.3219 -0.0434
63263SOL    HW197029   9.461   3.294   7.361 -0.4447 -0.7739  3.9456
63263SOL    HW297030   9.327   3.297   7.292  2.8747  0.4553 -3.3494
63264SOL     OW97031   6.925   7.639  10.262 -0.7042  0.0997  0.2191
63264SOL    HW197032   6.891   7.728  10.255 -0.4773  0.3693  2.0586
63264SOL    HW297033   7.020   7.650  10.265 -0.6300 -0.2946 -0.5020
63265SOL     OW97034   4.667   2.499   0.335 -0.1697  0.3372 -0.4637
63265SOL    HW197035   4.654   2.468   0.245 -1.2551  0.7229 -0.4525
63265SOL    HW297036   4.653   2.421   0.389 -1.0059  0.4137 -0.5515
63266SOL     OW97037   0.009   3.845  11.773 -0.4587 -0.0901  0.2907
63266SOL    HW197038   0.045   3.793  11.845 -0.7268  0.1604  0.6111
63266SOL    HW297039  -0.001   3.783  11.701  0.4568 -0.1975  0.2442
63267SOL     OW97040   0.313   1.321   3.090  0.0665 -0.1581 -1.1481
63267SOL    HW197041   0.254   1.340   3.163 -0.5966 -0.6685 -1.5393
63267SOL    HW297042   0.395   1.366   3.113 -0.1341 -0.2984 -0.1059
63268SOL     OW97043   2.616   2.440   7.464 -0.1398 -0.4573  0.6736
63268SOL    HW197044   2.703   2.411   7.436 -0.2899 -0.8874  0.6484
63268SOL    HW297045   2.605   2.403   7.551 -1.0326 -1.9555 -0.0396
63269SOL     OW97046   4.249   2.539   3.708 -0.0866 -0.8385  0.3641
63269SOL    HW197047   4.158   2.527   3.732 -0.2551 -0.1701  0.0943
63269SOL    HW297048   4.269   2.465   3.651 -0.4802 -0.9564  0.3785
63270SOL     OW97049   0.593  10.606   2.857 -0.2586 -0.0137 -0.4016
63270SOL    HW197050   0.561  10.668   2.792 -0.1280 -0.1836 -0.6305
63270SOL    HW297051   0.627  10.660   2.928 -0.4789  0.1725 -0.4374
63271SOL     OW97052   5.716   8.433   3.300  0.1391 -0.0484  0.5594
63271SOL    HW197053   5.797   8.485   3.299  0.1682 -0.0621 -0.8754
63271SOL    HW297054   5.674   8.454   3.217 -2.1128  1.1016  1.9211
63272SOL     OW97055   5.285   6.784  10.518  0.5807  0.2604  0.0241
63272SOL    HW197056   5.223   6.825  10.578 -0.4000  0.6161 -1.2039
63272SOL    HW297057   5.236   6.713  10.477  0.9111  0.6550 -1.0871
63273SOL     OW97058  10.543   0.893   7.647 -0.2429 -0.3003 -0.0289
63273SOL    HW197059  10.468   0.858   7.695 -0.3114 -0.7099 -0.4324
63273SOL    HW297060  10.505   0.953   7.583 -0.1029  0.8286  0.9105
63274SOL     OW97061  12.377  11.757   2.962 -0.4144  0.1292  0.1063
63274SOL    HW197062  12.344  11.775   3.050 -0.8416  0.4219 -0.1063
63274SOL    HW297063  12.425  11.836   2.938 -1.0031  0.3939 -0.2392
63275SOL     OW97064  10.401  11.630   6.871 -0.3052 -0.9923 -0.1730
63275SOL    HW197065  10.321  11.578   6.858 -0.9075 -0.5320  1.4254
63275SOL    HW297066  10.445  11.627   6.787 -2.1216 -1.0722 -1.1782
63276SOL     OW97067   9.200   2.077   2.697  0.8087  0.8808  0.5243
63276SOL    HW197068   9.220   1.996   2.744  1.6571  0.6449 -0.2355
63276SOL    HW297069   9.130   2.053   2.637  1.5094  0.5317 -0.1705
63277SOL     OW97070  11.364  10.572   9.108  0.1352  0.2779  0.5094
63277SOL    HW197071  11.454  10.553   9.081 -0.2358  0.5518 -0.9876
63277SOL    HW297072  11.316  10.492   9.088  0.1910 -0.2123  2.1809
63278SOL     OW97073   0.608  12.239   4.968 -0.0458 -0.7215  0.3854
63278SOL    HW197074   0.660  12.213   5.043 -0.4308 -2.9882 -0.0712
63278SOL    HW297075   0.519  12.211   4.990 -1.2545  3.1180  1.1859
63279SOL     OW97076   6.216   6.787   7.790 -0.3616 -0.4738  0.1746
63279SOL    HW197077   6.286   6.731   7.755  0.1376 -0.3285  0.9198
63279SOL    HW297078   6.254   6.826   7.869 -0.7533  0.7964 -0.2368
63280SOL     OW97079  11.443   9.350   7.272 -0.1844 -0.1138  0.1287
63280SOL    HW197080  11.466   9.271   7.223 -0.7121  1.3954 -2.7571
63280SOL    HW297081  11.350   9.340   7.291 -0.8928  0.7660 -2.4261
63281SOL     OW97082   2.759   9.391   5.619 -0.3840  0.2978  0.1778
63281SOL    HW197083   2.676   9.370   5.577 -0.1986 -0.9514  0.3777
63281SOL    HW297084   2.825   9.361   5.556 -0.0969  0.4063  0.4272
63282SOL     OW97085  12.673   9.423   7.307  0.2299  0.1094 -0.5884
63282SOL    HW197086  12.580   9.400   7.309  0.1181  0.5948  0.7054
63282SOL    HW297087  12.714   9.351   7.259 -0.8614  0.1166 -1.5800
63283SOL     OW97088   8.088   0.086   0.536 -0.2326  0.4176  0.2847
63283SOL    HW197089   8.180   0.113   0.525 -0.2859  0.5451  0.1396
63283SOL    HW297090   8.085  -0.003   0.500 -0.3564  0.7428 -0.5441
63284SOL     OW97091   6.652   7.808   1.037 -0.4274  0.3417 -0.1879
63284SOL    HW197092   6.732   7.812   1.090  0.5251  0.8604 -1.6059
63284SOL    HW297093   6.657   7.725   0.991  0.4562  1.3147 -1.9579
63285SOL     OW97094   6.152   0.006   3.991 -0.5902  0.2958  0.2343
63285SOL    HW197095   6.240  -0.026   4.012 -0.9008  0.4242  1.8008
63285SOL    HW297096   6.167   0.088   3.945  0.1156  0.6448  1.0603
63286SOL     OW97097   1.169   9.822   6.218 -0.4984  0.0904  0.0562
63286SOL    HW197098   1.174   9.904   6.266 -1.4419  0.5619 -0.6023
63286SOL    HW297099   1.092   9.833   6.161 -0.2443 -0.9874 -0.5177
63287SOL     OW97100   4.729   3.770  12.564 -0.1159  0.0736  0.0925
63287SOL    HW197101   4.655   3.827  12.545  2.1266  2.6329 -1.8288
63287SOL    HW297102   4.769   3.807  12.642 -1.4696 -2.1068  1.9449
63288SOL     OW97103   8.990  12.648   8.527  0.4812  0.7585  0.5872
63288SOL    HW197104   9.071  12.667   8.573  1.8843 -1.4209 -0.7940
63288SOL    HW297105   8.927  12.626   8.596  2.5245 -2.4362  1.6676
63289SOL     OW97106   3.100   6.658  10.930 -0.1814  0.8544  0.0363
63289SOL    HW197107   3.036   6.646  10.860  0.0990  0.4448 -0.1513
63289SOL    HW297108   3.175   6.700  10.888 -0.3148  1.3226  0.2528
63290SOL     OW97109   8.553   2.249   5.482 -0.2218 -0.3288  0.3774
63290SOL    HW197110   8.484   2.314   5.473  1.0367  1.0015 -0.1953
63290SOL    HW297111   8.536   2.206   5.566 -0.0414  2.1016  1.7470
63291SOL     OW97112   8.321   5.000   0.460  0.1754  0.2417  0.3081
63291SOL    HW197113   8.264   5.008   0.536  1.3259 -0.7207  1.3190
63291SOL    HW297114   8.278   4.935   0.404 -0.5686  0.7926  0.2282
63292SOL     OW97115   8.473  10.186   0.802  0.1019  0.1467 -0.5033
63292SOL    HW197116   8.519  10.120   0.750 -0.8667 -0.7124 -0.3010
63292SOL    HW297117   8.528  10.200   0.878 -0.0399 -0.9948 -0.1798
63293SOL     OW97118  12.103  10.711  10.598 -0.0667 -0.0245 -0.0010
63293SOL    HW197119  12.052  10.729  10.519  1.4877  0.9226 -0.8392
63293SOL    HW297120  12.186  10.676  10.565  1.2988  2.0112  1.0655
63294SOL     OW97121   8.724   0.815   3.653 -0.7050  0.2716  0.4396
63294SOL    HW197122   8.717   0.869   3.574 -1.1630  0.2550  0.4685
63294SOL    HW297123   8.692   0.729   3.627 -0.4019  0.1332  0.5164
63295SOL     OW97124   5.918   5.887  10.590 -0.5436 -0.2378 -0.4827
63295SOL    HW197125   5.965   5.882  10.673 -0.3673 -2.4227 -0.6467
63295SOL    HW297126   5.986   5.884  10.523 -0.7897 -1.8801 -0.7041
63296SOL     OW97127  11.899   0.388  12.681  0.3997  0.1657  0.0381
63296SOL    HW197128  11.818   0.398  12.731  0.0650  0.3820 -0.5386
63296SOL    HW297129  11.871   0.381  12.590  0.9539 -1.0003 -0.0652
63297SOL     OW97130   0.145   9.540   7.862  0.3242 -0.7734 -0.1565
63297SOL    HW197131   0.082   9.526   7.791 -0.2338  0.9172 -0.0429
63297SOL    HW297132   0.161   9.453   7.897 -3.0519 -1.1978  0.7098
63298SOL     OW97133   3.844   4.232   0.417 -0.4344  0.1776  0.6494
63298SOL    HW197134   3.750   4.218   0.399 -0.0326 -2.2595 -0.0138
63298SOL    HW297135   3.859   4.185   0.499  0.3263 -0.1191  0.3488
63299SOL     OW97136   7.624   9.874  12.557 -0.7025 -0.2245  0.7865
63299SOL    HW197137   7.532   9.849  12.569 -0.9409  0.3700  0.2650
63299SOL    HW297138   7.622   9.936  12.484  0.3831 -1.8742 -0.7273
63300SOL     OW97139   4.176   3.232   5.242 -0.1865  0.5253  0.3974
63300SOL    HW197140   4.081   3.215   5.238  0.1524 -1.6791  0.3485
63300SOL    HW297141   4.199   3.262   5.154 -0.6388 -0.2367  0.0107
63301SOL     OW97142   5.416   3.362   7.215  0.5224  0.5669  0.3720
63301SOL    HW197143   5.329   3.325   7.230  0.4752  0.3686 -0.3943
63301SOL    HW297144   5.444   3.391   7.302  0.3188 -0.7265  0.8914
63302SOL     OW97145   9.449   1.921   6.182 -0.5019 -0.0875 -0.4336
63302SOL    HW197146   9.434   1.948   6.273 -1.1928  2.9821 -1.3446
63302SOL    HW297147   9.412   1.992   6.130  0.6047 -1.3665 -3.1379
63303SOL     OW97148   4.246   7.098  10.874  0.2725  0.3119  0.3136
63303SOL    HW197149   4.232   7.089  10.779  1.8741  0.1384  0.0738
63303SOL    HW297150   4.256   7.192  10.888 -1.8693  0.5381  0.6299
63304SOL     OW97151  11.195  12.027   6.957  0.4146  0.2074  0.1220
63304SOL    HW197152  11.248  11.972   7.014  0.6618  0.1823 -0.1339
63304SOL    HW297153  11.111  12.034   7.002  0.2777 -0.6313  0.0062
63305SOL     OW97154   2.220   6.096   8.562  0.7257 -0.5587  0.7100
63305SOL    HW197155   2.170   6.015   8.548  0.5532 -0.5264  1.1200
63305SOL    HW297156   2.305   6.079   8.521  0.7417 -1.0035  0.9246
63306SOL     OW97157   1.035   8.436  10.399 -0.1958  0.5708  0.2268
63306SOL    HW197158   0.940   8.436  10.391 -0.1786 -0.5953 -0.1894
63306SOL    HW297159   1.052   8.436  10.493 -0.5934  1.2871  0.3012
63307SOL     OW97160   2.239   6.006   5.941 -0.3995  0.4115  0.5262
63307SOL    HW197161   2.208   5.980   5.854  2.0563 -0.1625 -0.2451
63307SOL    HW297162   2.257   6.099   5.933  2.2923 -0.1183 -0.4596
63308SOL     OW97163   2.515  10.571   3.641  0.1806 -0.0465 -0.3978
63308SOL    HW197164   2.473  10.583   3.556  1.0175 -2.3796 -1.2090
63308SOL    HW297165   2.568  10.650   3.653 -0.5412  0.6596 -1.6864
63309SOL     OW97166   4.085   8.513  11.725 -0.3844 -0.1545 -0.2652
63309SOL    HW197167   4.011   8.497  11.784 -0.5570  1.8866  0.1405
63309SOL    HW297168   4.120   8.426  11.706 -2.0367 -1.0523  0.6407
63310SOL     OW97169   8.460   9.437   0.452  0.0176 -0.2588 -0.4337
63310SOL    HW197170   8.509   9.363   0.416 -0.9479 -1.0487 -0.1621
63310SOL    HW297171   8.389   9.450   0.390 -3.0367 -3.0845  2.1094
63311SOL     OW97172   7.998   8.839   0.566  0.6120  0.1645 -0.5201
63311SOL    HW197173   7.968   8.855   0.477 -0.2119  1.1224 -0.0916
63311SOL    HW297174   7.917   8.837   0.618  1.1423  0.6135  0.3413
63312SOL     OW97175  11.288   9.655   5.189 -0.2512  0.1250 -0.2900
63312SOL    HW197176  11.301   9.743   5.153  0.3773  0.3247  0.3945
63312SOL    HW297177  11.237   9.609   5.122 -0.3163  0.9112 -0.7967
63313SOL     OW97178   3.437  12.348   6.194  0.2289 -0.0244  0.5859
63313SOL    HW197179   3.405  12.330   6.106 -1.1764 -1.3171  1.3062
63313SOL    HW297180   3.463  12.440   6.192 -2.2659  0.7570 -0.4951
63314SOL     OW97181  11.223   1.644   2.790 -0.2485 -0.6399  0.0187
63314SOL    HW197182  11.170   1.707   2.741  0.0324 -0.6791 -0.3387
63314SOL    HW297183  11.210   1.561   2.744  0.6892 -0.5036 -0.5090
63315SOL     OW97184   5.761   6.066   9.015 -0.1124 -0.1863 -0.1119
63315SOL    HW197185   5.831   6.070   9.081  0.2473 -0.2464 -0.4854
63315SOL    HW297186   5.713   6.149   9.026  0.8089  0.4465 -0.7124
63316SOL     OW97187   9.743   8.298   7.805 -0.0769  0.1256  0.3714
63316SOL    HW197188   9.744   8.233   7.875 -1.2204 -2.8144 -2.1395
63316SOL    HW297189   9.793   8.259   7.734 -0.4377  2.2139 -1.1402
63317SOL     OW97190   2.531   5.364   1.947  0.3204 -0.6478  0.7019
63317SOL    HW197191   2.517   5.304   1.875  0.4141 -0.2091  0.3139
63317SOL    HW297192   2.556   5.308   2.021 -0.1655 -1.1333  0.5066
63318SOL     OW97193   9.399   4.140   9.783  0.1541 -0.1621  0.3086
63318SOL    HW197194   9.413   4.204   9.713  3.6586 -1.6318 -0.5136
63318SOL    HW297195   9.460   4.167   9.852  0.5959 -1.6932  0.5588
63319SOL     OW97196   9.311   2.541  10.175 -0.1331 -0.1335 -0.0133
63319SOL    HW197197   9.303   2.474  10.243  2.3730  0.0388  0.5627
63319SOL    HW297198   9.347   2.495  10.100 -0.1249  0.2227 -0.2296
63320SOL     OW97199   1.339   9.288  10.667  0.3836 -0.2750 -0.3847
63320SOL    HW197200   1.425   9.311  10.631  0.0894  0.1405 -0.8258
63320SOL    HW297201   1.346   9.308  10.761  0.6545  0.1045 -0.4830
63321SOL     OW97202   7.462   0.563   4.776  0.4791  0.7097  0.0556
63321SOL    HW197203   7.433   0.652   4.793 -1.2837  0.0894  0.6380
63321SOL    HW297204   7.504   0.535   4.858  0.9783  0.9928 -0.1070
63322SOL     OW97205   3.744   7.792   2.674 -1.1574 -0.3855 -0.8283
63322SOL    HW197206   3.814   7.811   2.612 -0.7303 -0.3866 -0.3490
63322SOL    HW297207   3.752   7.860   2.741  0.4363 -2.1889  0.9570
63323SOL     OW97208  12.687   5.333  11.491 -0.1979 -0.1855  0.2423
63323SOL    HW197209  12.651   5.396  11.429  0.7610  0.7675  0.6094
63323SOL    HW297210  12.682   5.378  11.576  0.3752 -0.6516  0.5311
63324SOL     OW97211   3.728   0.979  11.086 -0.0997  0.9291  0.3846
63324SOL    HW197212   3.758   1.014  11.002 -0.9442  1.2611  0.2138
63324SOL    HW297213   3.668   1.046  11.120 -1.2312 -0.0501  0.3579
63325SOL     OW97214   8.308   6.428   3.915 -0.8733  0.2717  0.0554
63325SOL    HW197215   8.236   6.413   3.976 -0.4105 -0.6952  0.3847
63325SOL    HW297216   8.270   6.483   3.846 -1.5484  0.9179  0.9178
63326SOL     OW97217  10.408   9.391   5.964  0.2167  0.6060  0.3809
63326SOL    HW197218  10.492   9.359   5.932 -0.3241  0.5000 -1.0300
63326SOL    HW297219  10.351   9.314   5.963 -0.1794  0.8969  0.2691
63327SOL     OW97220   7.169   8.193   1.413 -0.6237 -0.5035 -0.3700
63327SOL    HW197221   7.232   8.202   1.485  0.7819  2.5542 -1.7766
63327SOL    HW297222   7.217   8.146   1.346 -1.0355 -1.1033 -0.2472
63328SOL     OW97223   2.713   5.132   2.230  0.4838 -0.2793  0.0611
63328SOL    HW197224   2.711   5.044   2.193  0.6788  0.7801 -2.7831
63328SOL    HW297225   2.793   5.171   2.194  2.0551  0.1998  3.6497
63329SOL     OW97226   8.318   0.711   9.676  0.3124 -0.2676  0.3588
63329SOL    HW197227   8.285   0.796   9.645  0.9536 -0.2068 -0.1726
63329SOL    HW297228   8.384   0.686   9.611 -0.6601 -1.7092 -0.1239
63330SOL     OW97229   5.296   7.948   7.493  0.7917  0.9291  0.3797
63330SOL    HW197230   5.360   7.939   7.422  1.9608 -1.5984  1.6504
63330SOL    HW297231   5.347   7.971   7.570  0.2403 -0.9158  1.3711
63331SOL     OW97232   2.653   0.382   6.578  0.3195 -0.2404 -0.3193
63331SOL    HW197233   2.658   0.354   6.487  0.0730  0.8525 -0.6829
63331SOL    HW297234   2.721   0.449   6.586 -0.7170  0.8129 -0.1316
63332SOL     OW97235  10.702   5.832   1.870  0.1467  0.0437 -0.4008
63332SOL    HW197236  10.724   5.897   1.937 -0.1826  0.4794 -0.7176
63332SOL    HW297237  10.607   5.832   1.866  0.0438 -1.7423  0.8666
63333SOL     OW97238   3.431  12.495   6.804 -0.5952 -0.3874 -0.1462
63333SOL    HW197239   3.474  12.577   6.782 -0.8755 -0.5894 -1.5662
63333SOL    HW297240   3.363  12.484   6.736 -0.6566 -1.7026  0.0913
63334SOL     OW97241   0.949   1.550   6.761 -0.0330  0.2029  0.5649
63334SOL    HW197242   0.932   1.621   6.699  2.7444  0.9389  0.5217
63334SOL    HW297243   0.893   1.478   6.730  0.5616  0.8272 -2.2645
63335SOL     OW97244   3.044   1.386   2.015 -0.3174 -0.7436  0.1008
63335SOL    HW197245   3.061   1.396   1.921 -0.9630  0.1038  0.0587
63335SOL    HW297246   3.033   1.475   2.047 -1.3210 -1.0781  0.7443
63336SOL     OW97247  12.472  10.736   4.033 -0.1905  0.7010  0.0202
63336SOL    HW197248  12.456  10.762   4.123  0.5011 -0.4458  0.5028
63336SOL    HW297249  12.447  10.644   4.029  0.8690  0.4202 -0.6498
63337SOL     OW97250   1.055   5.567   6.638 -0.7228 -0.6062  0.2215
63337SOL    HW197251   1.129   5.621   6.666 -0.3802 -1.7942  1.7129
63337SOL    HW297252   0.998   5.628   6.590  0.6371  0.5831  0.0445
63338SOL     OW97253   1.992   5.269   4.529 -0.6296  0.0755  0.3626
63338SOL    HW197254   2.050   5.309   4.594  0.5322 -0.6899 -0.1730
63338SOL    HW297255   1.972   5.341   4.468 -2.7824  1.1471  2.1905
63339SOL     OW97256   6.625  10.517   7.675 -0.3985 -0.6035  0.2590
63339SOL    HW197257   6.574  10.448   7.633 -3.6394  0.4548  2.1092
63339SOL    HW297258   6.637  10.487   7.765  2.0044 -0.6179 -0.0155
63340SOL     OW97259   0.660   0.492   3.790  0.3682  0.3334  0.8552
63340SOL    HW197260   0.741   0.444   3.773 -0.5622 -1.0226  0.1169
63340SOL    HW297261   0.591   0.428   3.779 -0.8605  1.6129  0.8423
63341SOL     OW97262  10.342   4.130   3.763 -0.3601  0.4945  0.1141
63341SOL    HW197263  10.251   4.117   3.739  0.1766 -0.4948 -1.6278
63341SOL    HW297264  10.345   4.215   3.806 -1.9969  0.8170 -0.3672
63342SOL     OW97265   8.154   3.600  11.812  0.9553  0.3039  0.1730
63342SOL    HW197266   8.205   3.681  11.810  0.8178  0.4675  1.9071
63342SOL    HW297267   8.201   3.543  11.873 -0.9758  0.5548  2.0332
63343SOL     OW97268   7.555   0.271   4.583 -0.6256  0.3756  0.3078
63343SOL    HW197269   7.609   0.350   4.583  2.2213 -1.4252 -0.6257
63343SOL    HW297270   7.532   0.259   4.490  1.0655 -1.1114  0.0154
63344SOL     OW97271   4.213  12.195   7.383  0.0239  0.0834  0.3555
63344SOL    HW197272   4.219  12.108   7.343 -0.0946  1.2725 -2.5298
63344SOL    HW297273   4.265  12.251   7.325 -2.2514  2.4346  0.3868
63345SOL     OW97274   3.076   2.232   9.615 -0.1677  0.6060 -0.0382
63345SOL    HW197275   3.052   2.324   9.602  1.0613  0.8675 -0.5776
63345SOL    HW297276   3.171   2.232   9.621 -0.1390 -0.6484 -0.1574
63346SOL     OW97277  11.607  10.578   1.049 -0.3652 -0.4534  0.6188
63346SOL    HW197278  11.602  10.598   1.143  0.4506  0.9096  0.4040
63346SOL    HW297279  11.676  10.512   1.042 -0.5162 -0.6501  1.0037
63347SOL     OW97280   8.493   0.920   7.740  0.2652 -0.6008 -0.3780
63347SOL    HW197281   8.485   1.001   7.790  1.6742 -0.6040 -0.0956
63347SOL    HW297282   8.504   0.851   7.806  2.3816 -0.5720 -0.6335
63348SOL     OW97283   4.704   2.134  10.262  0.0275  0.5304 -0.3279
63348SOL    HW197284   4.669   2.166  10.179 -1.4721  0.7735  0.3557
63348SOL    HW297285   4.642   2.066  10.289  0.3429  0.6489  0.7206
63349SOL     OW97286   8.823   7.115  11.654 -0.0673  0.0163  0.7088
63349SOL    HW197287   8.857   7.044  11.707  0.5855  1.4116  2.2502
63349SOL    HW297288   8.789   7.073  11.575 -0.4730 -2.0743  1.9316
63350SOL     OW97289   2.792   5.751   6.154  0.5912 -0.3125  0.2216
63350SOL    HW197290   2.852   5.825   6.163 -0.1158  0.3950 -0.7105
63350SOL    HW297291   2.806   5.699   6.233  2.9771 -0.5707 -0.2875
63351SOL     OW97292   4.035  10.327  11.567  0.1557  0.3131 -0.2324
63351SOL    HW197293   3.978  10.404  11.565  0.4048  0.4890 -0.5827
63351SOL    HW297294   3.988  10.264  11.623 -1.0662 -0.0729 -1.6021
63352SOL     OW97295  12.085   3.388   3.825  0.5169  0.5033 -0.3396
63352SOL    HW197296  12.176   3.416   3.820  1.0253 -0.7096  1.0961
63352SOL    HW297297  12.065   3.387   3.919 -1.0421  0.9259 -0.6343
63353SOL     OW97298  11.697  10.877   0.801  0.1112  0.3510 -0.2843
63353SOL    HW197299  11.760  10.908   0.735  1.1050 -3.2749 -1.3190
63353SOL    HW297300  11.612  10.887   0.759  0.7074 -1.6726 -2.2092
63354SOL     OW97301   7.678   1.769   0.203  0.0914 -0.4031 -0.1102
63354SOL    HW197302   7.728   1.691   0.181  0.6421  0.3018 -1.4704
63354SOL    HW297303   7.737   1.842   0.185 -1.0724  0.4101 -0.8513
63355SOL     OW97304  11.134   5.045   5.512  0.0105 -0.0420 -0.0102
63355SOL    HW197305  11.161   5.130   5.477  0.2044  0.3691  1.1031
63355SOL    HW297306  11.203   4.985   5.485  0.6598  0.4665  0.4952
63356SOL     OW97307   6.924   0.063   8.981 -0.1558  0.2676  0.0415
63356SOL    HW197308   6.994   0.115   8.941 -0.4711 -0.1318 -1.0725
63356SOL    HW297309   6.902   0.110   9.062  1.2377  0.5164  0.2951
63357SOL     OW97310  11.025  11.537  11.096 -0.0372  0.1574 -0.4410
63357SOL    HW197311  10.937  11.560  11.067 -0.9958  0.1453  2.2366
63357SOL    HW297312  11.027  11.441  11.096  0.1352  0.1558 -0.8448
63358SOL     OW97313   6.107   1.709   1.310  0.5726  0.1380  0.2357
63358SOL    HW197314   6.152   1.633   1.349  0.5039 -0.8917 -1.5554
63358SOL    HW297315   6.165   1.783   1.329  1.2923 -0.5809  0.9359
63359SOL     OW97316   3.515   2.404   2.836  0.3644 -0.3978  0.0106
63359SOL    HW197317   3.599   2.377   2.798  0.2937 -2.3022  1.0438
63359SOL    HW297318   3.451   2.388   2.766  0.7873  0.5549 -0.6023
63360SOL     OW97319   3.055   1.652  10.033 -0.7066  0.4057  0.0154
63360SOL    HW197320   3.150   1.655  10.018 -0.8190  0.3455 -0.7756
63360SOL    HW297321   3.045   1.661  10.127  0.1375 -0.4278  0.2038
63361SOL     OW97322   7.686  11.366  10.484  0.4012 -0.2503  0.0871
63361SOL    HW197323   7.772  11.405  10.471  0.3284 -0.0884  0.0962
63361SOL    HW297324   7.627  11.418  10.430  0.0199  0.7065  1.3850
63362SOL     OW97325  11.312   8.687   8.096 -0.4130 -0.4523  0.5340
63362SOL    HW197326  11.320   8.684   8.001  0.2321  0.5758  0.5473
63362SOL    HW297327  11.357   8.767   8.122  0.0156 -1.0626  1.7728
63363SOL     OW97328   5.225  11.192   2.763 -0.1010 -0.0283 -0.0055
63363SOL    HW197329   5.210  11.272   2.712  0.6305 -1.5745 -2.8979
63363SOL    HW297330   5.143  11.177   2.809 -0.8587  1.4799 -0.7810
63364SOL     OW97331  10.922   0.875   6.190 -0.4540 -0.0041  0.2900
63364SOL    HW197332  10.903   0.784   6.169  0.1510  0.0700 -0.6685
63364SOL    HW297333  10.999   0.896   6.136 -0.6464  1.0969  0.4221
63365SOL     OW97334   1.422   8.625   7.189 -0.5715  0.5802  0.2680
63365SOL    HW197335   1.512   8.595   7.206 -0.5438  0.5478  0.0574
63365SOL    HW297336   1.379   8.550   7.149 -0.4739  0.8517 -0.3528
63366SOL     OW97337  11.208   9.923   8.879  1.0247  0.1803  0.3710
63366SOL    HW197338  11.127   9.956   8.919  2.1894  1.0993  2.1304
63366SOL    HW297339  11.229   9.986   8.810  1.0442  0.8153  0.9486
63367SOL     OW97340   9.722   3.849   6.253 -0.5509  0.4815 -0.1060
63367SOL    HW197341   9.771   3.767   6.247 -0.7582  0.4093 -0.9098
63367SOL    HW297342   9.778   3.907   6.305 -0.1743 -0.0049  0.0347
63368SOL     OW97343   1.906   7.834  10.603  0.1756  0.5973  0.0548
63368SOL    HW197344   1.905   7.905  10.667  1.8747 -0.1052  0.9093
63368SOL    HW297345   1.994   7.797  10.609 -0.8728 -2.0856  0.1879
63369SOL     OW97346   2.043   4.323  11.777 -0.5702  0.4654  0.2117
63369SOL    HW197347   2.131   4.318  11.814 -0.9814 -1.3354  1.0487
63369SOL    HW297348   2.011   4.410  11.802  0.2080  0.3465  1.6827
63370SOL     OW97349  12.304   8.521   7.446 -0.4985 -0.7006 -0.5013
63370SOL    HW197350  12.230   8.462   7.459 -1.2646  0.4226  0.3761
63370SOL    HW297351  12.265   8.607   7.435  0.6258 -0.2810 -1.3543
63371SOL     OW97352   0.874   5.874   2.060  0.1998  0.3852  0.0637
63371SOL    HW197353   0.808   5.891   2.127  0.2421  1.4299 -0.1282
63371SOL    HW297354   0.860   5.784   2.034  0.3466 -0.1329  1.6624
63372SOL     OW97355   3.985   3.252   5.671 -0.3568 -0.0676 -0.5830
63372SOL    HW197356   4.019   3.329   5.625 -0.9476 -0.0934 -1.0796
63372SOL    HW297357   3.990   3.276   5.764 -0.9215  0.7551 -0.7464
63373SOL     OW97358   2.348  10.186   0.759  0.1646  0.1527 -0.6119
63373SOL    HW197359   2.266  10.217   0.722  1.0515  1.5534 -1.5024
63373SOL    HW297360   2.325  10.159   0.848 -1.2272  0.6657 -0.7864
63374SOL     OW97361   9.050   8.993   3.837  0.0433 -0.4398 -0.2040
63374SOL    HW197362   8.970   8.980   3.786 -0.5847 -0.7229  0.8231
63374SOL    HW297363   9.085   9.077   3.806 -0.8666 -0.1133 -0.3881
63375SOL     OW97364   8.920   1.553   6.950 -0.1806  0.2628 -0.0847
63375SOL    HW197365   8.886   1.482   7.005 -0.4608  0.7318  0.3526
63375SOL    HW297366   8.847   1.615   6.944 -0.4592 -0.1941 -1.7227
63376SOL     OW97367  12.624  11.617   2.019  0.4132  0.5215  0.5779
63376SOL    HW197368  12.668  11.574   2.092 -0.1063 -0.9023  0.0812
63376SOL    HW297369  12.642  11.561   1.943 -1.9116  0.0727  0.2854
63377SOL     OW97370   9.196   5.621  10.679 -0.0856 -0.6151 -0.0125
63377SOL    HW197371   9.149   5.599  10.598 -0.4478  0.2796 -0.0665
63377SOL    HW297372   9.176   5.549  10.739 -1.3505 -0.3816 -0.1123
63378SOL     OW97373  12.457   7.630   4.672  0.3036  0.0903  0.3544
63378SOL    HW197374  12.437   7.569   4.743 -0.9800 -0.1916 -0.2235
63378SOL    HW297375  12.524   7.688   4.709 -0.8395  0.4163  2.0482
63379SOL     OW97376   0.538   4.474   9.430 -0.3444 -0.1225 -0.3656
63379SOL    HW197377   0.505   4.484   9.520 -0.9391  0.6176 -0.6588
63379SOL    HW297378   0.623   4.430   9.441  0.0089  0.7527  0.6243
63380SOL     OW97379   2.375   7.918  10.742 -0.4218 -0.9685  0.0571
63380SOL    HW197380   2.440   7.920  10.672 -0.8617  0.6853 -0.3474
63380SOL    HW297381   2.415   7.969  10.813 -0.6455 -1.2657  0.4027
63381SOL     OW97382  11.456   3.985   4.061  0.0834 -0.0216 -0.0444
63381SOL    HW197383  11.437   4.075   4.036  2.2313  0.1647 -1.2734
63381SOL    HW297384  11.382   3.959   4.116  0.3131  3.1046  1.9771
63382SOL     OW97385   0.768   5.536  11.354  0.4910 -0.3086  0.0022
63382SOL    HW197386   0.722   5.618  11.340 -0.8593 -0.7516  1.4981
63382SOL    HW297387   0.760   5.519  11.448  1.2458 -1.8413 -0.1681
63383SOL     OW97388   6.993  12.677   3.695 -0.3172  0.8943 -0.2931
63383SOL    HW197389   6.910  12.698   3.651 -0.1374 -0.2897 -1.2400
63383SOL    HW297390   7.051  12.750   3.673 -0.7278  1.1115 -0.6825
63384SOL     OW97391   9.796   0.546   1.300  0.1070  0.2232 -0.5566
63384SOL    HW197392   9.853   0.474   1.328  2.1684  1.7909 -0.4994
63384SOL    HW297393   9.733   0.556   1.372  0.3428 -0.9275 -0.1716
63385SOL     OW97394   0.813   4.735   1.531  0.2738 -0.0541 -0.3589
63385SOL    HW197395   0.899   4.777   1.532 -0.8622  2.4366  0.1560
63385SOL    HW297396   0.813   4.684   1.450  1.7295  1.0812 -1.1346
63386SOL     OW97397   9.079  11.606   1.448  0.1191  0.5350 -0.3874
63386SOL    HW197398   9.175  11.614   1.451  0.7360 -4.1591 -0.3636
63386SOL    HW297399   9.062  11.551   1.372 -2.5207  0.4270  0.2036
63387SOL     OW97400  12.362   6.209   7.002 -0.0329  0.3180 -0.0610
63387SOL    HW197401  12.407   6.125   7.015  0.5230  0.5415 -0.4888
63387SOL    HW297402  12.281   6.185   6.957 -0.3981 -0.0973  0.7912
63388SOL     OW97403   9.998   0.332   1.405 -0.3295  0.6064  0.1124
63388SOL    HW197404  10.050   0.399   1.450  0.4853  0.8355 -1.1147
63388SOL    HW297405  10.043   0.319   1.321 -1.4102 -0.2934 -0.3560
63389SOL     OW97406   7.420   9.266   6.467  0.3185  0.0770  0.3739
63389SOL    HW197407   7.396   9.287   6.557 -0.1724  1.4238 -0.0447
63389SOL    HW297408   7.411   9.171   6.461  1.3352 -0.1592  2.0128
63390SOL     OW97409  11.330   8.446   8.313 -0.5078  0.0794 -0.1949
63390SOL    HW197410  11.319   8.478   8.224  0.9853 -0.5940 -0.6530
63390SOL    HW297411  11.356   8.524   8.363 -0.3970  0.2742 -0.5530
63391SOL     OW97412   2.348   1.340   7.749 -0.1772 -0.3051  0.4870
63391SOL    HW197413   2.327   1.433   7.744 -0.8810 -0.4712  0.1659
63391SOL    HW297414   2.415   1.334   7.817 -0.9855  0.2895  1.3660
63392SOL     OW97415   3.043   9.875  12.467 -0.3934 -0.0221  0.1789
63392SOL    HW197416   3.092   9.882  12.385 -0.8835 -2.3595 -0.3846
63392SOL    HW297417   3.090   9.931  12.528  0.4173  1.1892 -1.4885
63393SOL     OW97418   0.399   5.440   6.387 -0.2003  0.3203  0.0117
63393SOL    HW197419   0.467   5.409   6.328  0.6725  1.0942  0.5788
63393SOL    HW297420   0.431   5.525   6.418 -1.5482  0.8253  0.0946
63394SOL     OW97421   8.831   0.100   4.858 -0.5447  0.0901 -0.4918
63394SOL    HW197422   8.807   0.187   4.826 -1.9960  0.6847  1.9388
63394SOL    HW297423   8.816   0.105   4.953  0.8811 -2.3347 -0.0674
63395SOL     OW97424   5.170   2.121   7.884  0.2480 -0.5968  0.3751
63395SOL    HW197425   5.201   2.047   7.833  1.9929  0.4776 -0.2036
63395SOL    HW297426   5.172   2.195   7.824  0.5970  0.3468  1.5083
63396SOL     OW97427  11.413   0.784   9.486 -0.5255  0.7468  0.6645
63396SOL    HW197428  11.445   0.826   9.406 -2.7685  0.2926 -0.5431
63396SOL    HW297429  11.318   0.789   9.480 -0.7636  0.4961  3.2381
63397SOL     OW97430   5.517  12.279   0.531 -0.3506  0.2039 -0.2115
63397SOL    HW197431   5.601  12.323   0.547 -0.7589  0.1244  2.5021
63397SOL    HW297432   5.529  12.190   0.566 -1.2337 -0.1561 -0.7810
63398SOL     OW97433   9.205   3.643   5.564 -0.2019  0.1929  0.1921
63398SOL    HW197434   9.259   3.572   5.598 -1.0415 -0.8015 -0.4888
63398SOL    HW297435   9.172   3.687   5.642 -0.7037 -0.9758  0.6738
63399SOL     OW97436   4.321  12.529   8.105  0.1264 -0.0225  0.6654
63399SOL    HW197437   4.318  12.438   8.136 -0.6128  0.6135  2.5794
63399SOL    HW297438   4.282  12.524   8.017  0.1794 -1.5645  0.6898
63400SOL     OW97439   8.354   7.080   8.357 -0.2714 -0.0898 -0.2137
63400SOL    HW197440   8.260   7.092   8.367 -0.3108 -1.4973  1.8745
63400SOL    HW297441   8.393   7.139   8.421  0.1511 -0.7633  0.1697
63401SOL     OW97442  11.705   8.045   3.005 -0.2057  0.0287  0.2218
63401SOL    HW197443  11.628   8.042   3.061 -2.3513 -0.2225 -2.4992
63401SOL    HW297444  11.751   7.963   3.023 -0.5863  0.1374  1.8219
63402SOL     OW97445   5.929   5.387   4.707  0.6114 -0.2194 -0.2577
63402SOL    HW197446   5.890   5.465   4.747  0.5459  0.1331 -0.9892
63402SOL    HW297447   5.878   5.314   4.742 -0.5254  0.2084 -0.9409
63403SOL     OW97448   8.499  10.655   4.944  0.2460  0.1395 -0.9723
63403SOL    HW197449   8.415  10.625   4.910 -0.3470 -1.7328  1.8908
63403SOL    HW297450   8.564  10.606   4.893 -0.5856 -2.0742 -0.0103
63404SOL     OW97451  11.999   3.109  11.973 -0.3975  0.3846  0.3521
63404SOL    HW197452  11.979   3.149  11.888  0.8999 -3.2031 -1.9143
63404SOL    HW297453  12.094   3.116  11.982 -0.4368  0.0653  1.1065
63405SOL     OW97454   1.969   2.179   4.475  0.2321  0.0985 -0.1321
63405SOL    HW197455   1.910   2.206   4.405  1.5974  1.7516 -0.7059
63405SOL    HW297456   2.054   2.214   4.449  0.2825  3.5956  3.8413
63406SOL     OW97457   7.698  12.023   4.496  0.8460  0.0795 -0.1307
63406SOL    HW197458   7.672  11.998   4.407  0.4997  0.1673 -0.0579
63406SOL    HW297459   7.655  12.107   4.510  2.5132  1.0407 -0.6008
63407SOL     OW97460   1.919  10.301   1.769  0.1500  0.2180 -0.0676
63407SOL    HW197461   1.958  10.322   1.684 -0.9605  0.7752 -0.4647
63407SOL    HW297462   1.862  10.376   1.788  0.3397  0.0684  1.1465
63408SOL     OW97463   6.728   4.659   0.144  0.2760 -0.3975  0.8548
63408SOL    HW197464   6.643   4.699   0.162  0.2709 -0.0361  0.0708
63408SOL    HW297465   6.706   4.575   0.103  0.2780  0.1482 -0.3138
63409SOL     OW97466   2.574   6.462   4.761 -0.2244  0.6505 -0.4743
63409SOL    HW197467   2.557   6.531   4.697  0.0343 -0.9271 -2.3564
63409SOL    HW297468   2.489   6.442   4.799 -0.5674  0.9187 -1.0891
63410SOL     OW97469   7.803   5.449  11.770 -0.2338  0.2332  0.5356
63410SOL    HW197470   7.858   5.460  11.847  0.7971  0.0507 -0.1674
63410SOL    HW297471   7.724   5.407  11.804 -0.4869  1.6042  1.7512
63411SOL     OW97472   5.285   0.834   6.570 -0.7496  0.1914 -0.5498
63411SOL    HW197473   5.201   0.833   6.617  0.6159 -0.2531  2.0346
63411SOL    HW297474   5.328   0.914   6.599 -0.2053  0.3542 -1.7586
63412SOL     OW97475   1.754   9.453   5.620 -0.3098 -0.1211  0.2832
63412SOL    HW197476   1.768   9.415   5.707  0.0939 -1.8600 -0.4993
63412SOL    HW297477   1.811   9.530   5.618 -0.0657 -0.2567  1.4413
63413SOL     OW97478  10.357   7.106   0.547 -0.0345 -0.0759  0.1598
63413SOL    HW197479  10.264   7.128   0.540 -0.3073 -1.2838 -0.3662
63413SOL    HW297480  10.395   7.178   0.597 -1.1429  0.7221 -0.0999
63414SOL     OW97481   9.532   5.013   0.442 -0.1433  0.5761 -0.0376
63414SOL    HW197482   9.619   5.004   0.482 -0.3702  0.3287  0.4069
63414SOL    HW297483   9.550   5.036   0.351  0.3855  0.9840  0.1651
63415SOL     OW97484   6.885   1.406  10.038  0.4636  0.5879 -0.1784
63415SOL    HW197485   6.791   1.427  10.040  0.8207  2.2320  1.5939
63415SOL    HW297486   6.899   1.370   9.950 -2.1491 -1.4329  0.0846
63416SOL     OW97487   9.005   1.144  11.303 -0.0398  0.2563  0.2694
63416SOL    HW197488   9.071   1.176  11.365  0.1402 -1.0184  0.7524
63416SOL    HW297489   8.936   1.210  11.306  1.3136  1.7940 -0.4831
63417SOL     OW97490   0.910  10.731   7.364  0.1646  0.5314 -0.5070
63417SOL    HW197491   0.885  10.792   7.434  1.7103  0.4033  0.1853
63417SOL    HW297492   1.004  10.720   7.374 -0.1296 -2.4948 -0.1911
63418SOL     OW97493   1.450   5.918   8.239  0.0251 -0.4456  0.5576
63418SOL    HW197494   1.534   5.879   8.214  1.3588  2.2732  0.4372
63418SOL    HW297495   1.424   5.968   8.162 -0.4245  0.7544  1.4755
63419SOL     OW97496   2.621   1.117   5.687  0.3043  0.0405  0.2174
63419SOL    HW197497   2.672   1.087   5.762  0.7236  0.6141  0.1650
63419SOL    HW297498   2.544   1.160   5.726 -0.3343 -1.1145  0.2938
63420SOL     OW97499   1.775   3.293   0.990 -0.0340  0.4743  0.5058
63420SOL    HW197500   1.796   3.206   0.957  1.9637  0.7382  0.9205
63420SOL    HW297501   1.690   3.283   1.033 -1.6469 -0.3892 -2.5751
63421SOL     OW97502   7.587   1.056  11.464  0.0324 -0.0712 -0.8678
63421SOL    HW197503   7.497   1.074  11.437  0.0127  0.9351 -0.1757
63421SOL    HW297504   7.640   1.117  11.413  0.2117  0.1330 -0.4423
63422SOL     OW97505   3.098   5.633  10.346 -0.5090  0.0632  0.4184
63422SOL    HW197506   3.013   5.624  10.304 -0.0671 -1.5963 -0.1871
63422SOL    HW297507   3.147   5.692  10.289 -1.0089  0.4668  0.3988
63423SOL     OW97508  12.353   9.188   1.275 -0.2001  0.1888  0.2403
63423SOL    HW197509  12.399   9.131   1.337 -0.8086  0.5125  1.0017
63423SOL    HW297510  12.422   9.241   1.236  0.4026 -1.1875 -0.6273
63424SOL     OW97511   8.357   8.169   9.600 -0.4361  0.5682 -0.7099
63424SOL    HW197512   8.424   8.181   9.533 -0.4386 -0.3619 -0.8895
63424SOL    HW297513   8.375   8.237   9.664  0.0593  0.9622 -1.2572
63425SOL     OW97514   9.016   0.173   6.787  0.2138  0.5066 -0.2792
63425SOL    HW197515   9.050   0.110   6.724 -1.0818 -0.3970 -0.1167
63425SOL    HW297516   8.944   0.127   6.831  0.9595  1.1454  1.7555
63426SOL     OW97517   5.910   8.835   0.171  0.0229  0.4191  0.2437
63426SOL    HW197518   5.961   8.755   0.158 -0.4867  0.0654  0.4035
63426SOL    HW297519   5.943   8.871   0.254  0.8863  0.8621 -0.2822
63427SOL     OW97520   5.295   7.007   1.283  0.2169  0.2246 -0.2384
63427SOL    HW197521   5.352   6.957   1.225 -0.0770 -0.7135  0.2574
63427SOL    HW297522   5.243   7.062   1.225 -0.6010 -1.2396 -0.9550
63428SOL     OW97523  10.131   7.866   7.197 -0.8056 -0.6650  0.0482
63428SOL    HW197524  10.175   7.915   7.127 -0.5055  0.9004  1.2460
63428SOL    HW297525  10.200   7.813   7.236 -0.4198  0.1981  0.5814
63429SOL     OW97526   3.297   1.447   3.849  0.1461  0.1537 -0.4210
63429SOL    HW197527   3.387   1.456   3.818  0.5734  0.0450  0.7475
63429SOL    HW297528   3.249   1.414   3.773  1.2197 -0.4239 -0.8661
63430SOL     OW97529  11.326   2.945  10.410 -0.0575  0.4354 -0.0583
63430SOL    HW197530  11.366   2.998  10.341 -0.1522 -1.2794 -1.4958
63430SOL    HW297531  11.243   2.989  10.429 -0.8858  0.0285 -2.3607
63431SOL     OW97532   0.033   6.476   4.474  0.3315 -0.2457  0.4922
63431SOL    HW197533   0.017   6.512   4.387  1.0109  0.3727  0.6200
63431SOL    HW297534   0.123   6.500   4.494  0.2561 -0.5917  1.2727
63432SOL     OW97535  10.470   0.794   8.373  0.0507 -0.1067 -0.0857
63432SOL    HW197536  10.393   0.841   8.341 -0.4259 -0.8705 -0.0878
63432SOL    HW297537  10.490   0.834   8.457  0.1570  0.6462 -0.4590
63433SOL     OW97538  10.853   7.879   5.134 -0.4494  0.4712  0.3821
63433SOL    HW197539  10.903   7.929   5.070  1.2681 -0.1580  1.1375
63433SOL    HW297540  10.899   7.795   5.139 -1.2828  0.0521  1.5221
63434SOL     OW97541   6.494   9.337   5.031  0.6117 -0.4804  0.6955
63434SOL    HW197542   6.525   9.331   4.941  1.2709  0.7480  0.8209
63434SOL    HW297543   6.544   9.270   5.078 -0.1290 -1.5032  0.0665
63435SOL     OW97544   6.182   2.029   1.116 -0.5607  0.1349  0.3946
63435SOL    HW197545   6.192   2.124   1.118 -1.9070  0.2876  1.3719
63435SOL    HW297546   6.168   2.004   1.208 -1.6229 -0.8291 -0.0082
63436SOL     OW97547  12.346   6.199   3.824 -0.4683  0.2519  0.4656
63436SOL    HW197548  12.373   6.150   3.902  1.3845  2.5803  1.4267
63436SOL    HW297549  12.428   6.236   3.790 -1.7008  2.5821 -0.1802
63437SOL     OW97550   4.853   6.550   8.645 -0.5171  0.2591 -0.0390
63437SOL    HW197551   4.890   6.617   8.587 -0.9576 -0.5443 -1.2884
63437SOL    HW297552   4.890   6.468   8.614 -0.5448 -0.1728  1.0234
63438SOL     OW97553   3.159  11.859   6.994  0.3083 -0.0257  0.3639
63438SOL    HW197554   3.233  11.919   7.006 -1.8969  3.0320 -0.1663
63438SOL    HW297555   3.138  11.829   7.083  1.5000 -0.1127  0.6356
63439SOL     OW97556  11.776   6.300   0.068 -0.1538  0.4997  0.1725
63439SOL    HW197557  11.716   6.371   0.044  0.3344  0.2353 -2.0671
63439SOL    HW297558  11.751   6.228   0.010  2.5372  0.5308 -1.1741
63440SOL     OW97559   1.759   0.832   8.032 -0.0796 -0.4079  0.0104
63440SOL    HW197560   1.706   0.804   7.957 -0.6524  0.6643 -0.0162
63440SOL    HW297561   1.703   0.897   8.077  0.8588  0.0823  0.4946
63441SOL     OW97562   7.328   4.963   5.827 -0.6018  0.3382 -0.2966
63441SOL    HW197563   7.258   5.014   5.868 -1.8949 -0.2537 -1.6523
63441SOL    HW297564   7.307   4.872   5.847 -0.2289  0.1483 -0.7314
63442SOL     OW97565   2.970   6.040   9.497 -0.5479 -0.2875 -0.1346
63442SOL    HW197566   3.010   6.076   9.576  0.5082  2.8931 -1.9329
63442SOL    HW297567   3.023   5.964   9.476  1.9959  1.3218 -0.0582
63443SOL     OW97568   8.214   7.894   0.211  0.1813 -0.3622 -0.2632
63443SOL    HW197569   8.291   7.887   0.268  0.5816 -2.5546 -0.9795
63443SOL    HW297570   8.249   7.927   0.128  0.0387  0.3120 -0.0602
63444SOL     OW97571  10.388   5.955  10.418  0.8066 -0.0132  0.3234
63444SOL    HW197572  10.455   5.958  10.350  1.1808  2.0354  0.6936
63444SOL    HW297573  10.327   5.888  10.390  1.5048  0.0681 -1.4984
63445SOL     OW97574   2.746   1.174   6.856 -0.5976  0.0140  0.0066
63445SOL    HW197575   2.702   1.229   6.791 -0.1909  1.1455  0.6656
63445SOL    HW297576   2.836   1.167   6.824 -1.0954 -1.9767 -1.1330
63446SOL     OW97577  10.182   1.684   5.366  0.1073  0.2221  0.7247
63446SOL    HW197578  10.119   1.626   5.324  1.8031 -0.0377 -1.7028
63446SOL    HW297579  10.221   1.733   5.293  0.6792  2.4435  2.4145
63447SOL     OW97580   3.187   4.510  12.621 -0.1426 -0.2201  0.2697
63447SOL    HW197581   3.114   4.463  12.663  0.4515 -0.1020  1.4839
63447SOL    HW297582   3.261   4.496  12.680  0.5532  0.5356 -0.4103
63448SOL     OW97583  11.133   9.977   0.444  0.3898 -0.2086 -0.0355
63448SOL    HW197584  11.175  10.009   0.364  0.3780 -1.2932 -0.4873
63448SOL    HW297585  11.039   9.988   0.428  0.4144  0.2653  0.1327
63449SOL     OW97586   7.646   1.204   4.569  0.0578  0.4771 -0.0247
63449SOL    HW197587   7.584   1.269   4.603  0.2573  0.8127 -0.3018
63449SOL    HW297588   7.592   1.127   4.550 -0.5011  1.1844 -1.4666
63450SOL     OW97589   1.141   9.997  11.741 -0.3194 -0.0431 -0.6090
63450SOL    HW197590   1.169  10.025  11.654 -0.2575  0.2765 -0.4878
63450SOL    HW297591   1.063   9.943  11.725 -1.2217  1.2603 -0.7639
63451SOL     OW97592   0.414   8.843   3.393 -0.8961  0.0587 -0.6031
63451SOL    HW197593   0.423   8.912   3.459 -0.0913  0.4735 -1.1279
63451SOL    HW297594   0.456   8.879   3.315 -0.0059 -1.2149 -0.7470
63452SOL     OW97595   4.522  12.143   8.388  0.4632  0.1123  0.4651
63452SOL    HW197596   4.435  12.104   8.380 -0.0357  1.5388 -1.8524
63452SOL    HW297597   4.519  12.190   8.471 -1.1937  0.6099  0.1562
63453SOL     OW97598   3.096  10.754   6.046  0.2267 -0.6061 -0.2973
63453SOL    HW197599   3.020  10.788   6.094  0.6960  0.1482 -0.0721
63453SOL    HW297600   3.132  10.687   6.104  1.4534  1.0549  0.9911
63454SOL     OW97601   7.657   0.765   2.356  0.5551 -0.5729  0.0875
63454SOL    HW197602   7.664   0.718   2.439 -0.4308 -1.5102 -0.3320
63454SOL    HW297603   7.717   0.720   2.297  0.9064 -0.2048  0.1638
63455SOL     OW97604   3.262   9.911   2.441  0.2438 -0.8364  0.2038
63455SOL    HW197605   3.263  10.001   2.408  2.0185 -0.1088  2.0129
63455SOL    HW297606   3.170   9.894   2.463 -0.0737  0.6360  0.1088
63456SOL     OW97607  12.245   4.692   1.315  0.6693 -0.2624 -0.0747
63456SOL    HW197608  12.153   4.702   1.289  0.6916  0.6247  0.1503
63456SOL    HW297609  12.265   4.772   1.364  1.4846 -0.5724  0.1148
63457SOL     OW97610   4.588  10.063   1.978 -0.0859  0.3769  0.4252
63457SOL    HW197611   4.497  10.064   2.006 -0.0531  0.2115  0.5375
63457SOL    HW297612   4.595  10.138   1.918 -0.5133 -0.1423 -0.2933
63458SOL     OW97613  10.810   5.734  10.204  0.1346 -0.5146  0.0210
63458SOL    HW197614  10.757   5.733  10.124 -1.1211 -2.7536  0.8106
63458SOL    HW297615  10.824   5.642  10.225  2.1294  0.0184  1.3381
63459SOL     OW97616   5.081   7.869   8.445 -0.2478  0.2410 -0.3894
63459SOL    HW197617   5.153   7.832   8.496  0.1872 -0.5434 -1.5264
63459SOL    HW297618   5.120   7.947   8.404 -0.8747  1.4449  1.1971
63460SOL     OW97619  10.527   2.543   4.789 -0.3018  0.4955 -0.4258
63460SOL    HW197620  10.529   2.595   4.709 -2.8235  0.1581 -0.7832
63460SOL    HW297621  10.444   2.565   4.830  0.4366 -0.1870  1.5450
63461SOL     OW97622  12.443   6.143   5.717 -0.0973 -0.0087  0.0740
63461SOL    HW197623  12.470   6.234   5.709 -0.1328 -0.0190 -0.1818
63461SOL    HW297624  12.524   6.093   5.717 -0.0230  0.0841  1.2015
63462SOL     OW97625   9.757   7.755  10.352 -0.3393 -0.2341 -0.0311
63462SOL    HW197626   9.743   7.850  10.348 -0.0580 -0.1906  0.0099
63462SOL    HW297627   9.719   7.729  10.436  1.0986  0.1049  0.7509
63463SOL     OW97628  10.470   0.206   5.407 -0.0964  0.0502  0.0035
63463SOL    HW197629  10.442   0.224   5.497 -2.4875 -2.2563 -0.1545
63463SOL    HW297630  10.562   0.184   5.414 -0.3076 -0.3622  1.9511
63464SOL     OW97631  11.930  11.462   3.378 -1.2407 -0.4561 -0.0956
63464SOL    HW197632  12.007  11.453   3.433 -1.3278 -1.6448 -0.1354
63464SOL    HW297633  11.955  11.421   3.295 -1.8272 -0.6226 -0.1947
63465SOL     OW97634   2.588   0.843   3.993 -0.1000 -0.4595 -0.1425
63465SOL    HW197635   2.559   0.921   4.041  1.5995 -0.1510  0.4390
63465SOL    HW297636   2.532   0.773   4.027 -1.5335  0.4368 -0.5361
63466SOL     OW97637   3.101   4.018   7.414  0.0011  0.5698 -0.2554
63466SOL    HW197638   3.039   3.954   7.448 -1.2827  0.7415 -2.1123
63466SOL    HW297639   3.142   3.974   7.339 -0.9860  1.8705 -1.6367
63467SOL     OW97640   5.576  11.109   1.722 -0.2144 -0.1180  0.5877
63467SOL    HW197641   5.622  11.050   1.781 -0.2704  0.4967  1.2567
63467SOL    HW297642   5.573  11.192   1.769 -1.1909  0.0954  0.1623
63468SOL     OW97643  11.529   8.552   9.643 -0.0376 -0.4021  0.1080
63468SOL    HW197644  11.619   8.540   9.614 -0.2085  0.2674 -0.7479
63468SOL    HW297645  11.476   8.525   9.568 -0.5561 -1.0966  0.7198
63469SOL     OW97646   0.989   6.994  12.198  0.1908  0.8051  0.5421
63469SOL    HW197647   1.038   7.067  12.160  1.1440  0.1289  0.4345
63469SOL    HW297648   0.956   6.945  12.123  0.2315  0.6773  0.6081
63470SOL     OW97649  12.288  12.298   7.344  0.1713 -0.7174  0.0270
63470SOL    HW197650  12.256  12.208   7.352 -0.4593 -0.6228 -1.1804
63470SOL    HW297651  12.372  12.298   7.390 -0.4766 -1.5486  1.2843
63471SOL     OW97652  11.393   7.056   5.675  0.1313 -0.4861 -0.4123
63471SOL    HW197653  11.341   6.975   5.673  0.8457 -1.0255  1.1568
63471SOL    HW297654  11.459   7.043   5.607 -0.3194 -0.8056 -0.8021
63472SOL     OW97655  10.666   6.264  10.009 -0.1157 -0.1496 -0.3391
63472SOL    HW197656  10.716   6.244   9.930 -0.0144 -0.7085 -0.1402
63472SOL    HW297657  10.575   6.245   9.986  0.0318 -1.3788 -0.0027
63473SOL     OW97658   6.013  11.632  10.182 -0.7499 -0.0460  0.1563
63473SOL    HW197659   6.079  11.570  10.151 -1.4978 -0.9196  0.2732
63473SOL    HW297660   6.039  11.651  10.272  0.8815  1.7582 -0.6085
63474SOL     OW97661   9.079   3.814   3.367  0.8408  0.0112  0.3170
63474SOL    HW197662   9.002   3.841   3.317  1.0445  0.0157  0.0054
63474SOL    HW297663   9.115   3.739   3.319  0.4153 -0.6813  1.0518
63475SOL     OW97664   8.776   2.576   4.746 -0.0107 -0.5798 -0.2714
63475SOL    HW197665   8.787   2.484   4.770  0.2946 -0.6116 -0.5230
63475SOL    HW297666   8.742   2.618   4.825 -0.0285 -0.8844 -0.1172
63476SOL     OW97667   9.039   5.410   4.392  0.2379  0.6135  0.4588
63476SOL    HW197668   9.101   5.356   4.442  0.1631  1.5887  1.6535
63476SOL    HW297669   9.043   5.496   4.433  0.7652  1.7201 -1.7411
63477SOL     OW97670   0.685   4.225   6.096 -0.8851 -0.0854 -0.5794
63477SOL    HW197671   0.689   4.316   6.068 -0.6912 -0.2104 -0.9665
63477SOL    HW297672   0.654   4.229   6.187  1.8592  0.5563  0.4359
63478SOL     OW97673   5.500   5.120   8.905 -0.1407  0.5389  0.2811
63478SOL    HW197674   5.576   5.063   8.901 -0.5094 -0.1984  2.6491
63478SOL    HW297675   5.528   5.195   8.957 -0.4619  1.2426 -0.5338
63479SOL     OW97676   5.596   4.157   5.679 -0.2305  0.3905  0.2816
63479SOL    HW197677   5.649   4.222   5.632 -0.1105 -1.0165 -1.6237
63479SOL    HW297678   5.599   4.186   5.771  3.2197  0.7792  0.1733
63480SOL     OW97679  11.929  12.587  10.534 -0.3312 -0.6057 -0.0643
63480SOL    HW197680  11.923  12.492  10.533  0.1005 -0.6314 -0.8331
63480SOL    HW297681  12.023  12.605  10.537 -0.4161 -0.1987  0.3753
63481SOL     OW97682   8.888   1.054   1.648 -0.0668 -0.5846  0.1939
63481SOL    HW197683   8.828   1.113   1.604  0.5317  0.3009  0.5340
63481SOL    HW297684   8.891   1.086   1.738 -1.3047 -2.3791  0.9415
63482SOL     OW97685  10.779  11.313   3.277  0.1967  0.0697  0.1392
63482SOL    HW197686  10.795  11.253   3.204 -0.0864  1.1500 -0.8485
63482SOL    HW297687  10.807  11.399   3.243  1.0553  0.4342  1.6753
63483SOL     OW97688   0.098   3.512   2.420 -0.2514  0.0401 -0.4070
63483SOL    HW197689   0.021   3.512   2.363  0.2629 -0.8081 -1.1392
63483SOL    HW297690   0.162   3.458   2.373  0.8651  0.8925  0.0849
63484SOL     OW97691   0.050   6.015   0.402  0.3141 -0.1086 -0.4025
63484SOL    HW197692   0.027   6.043   0.314 -1.0963 -0.2016 -0.0892
63484SOL    HW297693   0.144   6.029   0.408  0.4453 -0.1596 -1.9387
63485SOL     OW97694   4.379  12.041   2.713  0.7749  0.4448  0.1324
63485SOL    HW197695   4.337  12.006   2.791 -0.5084  1.2257 -0.1821
63485SOL    HW297696   4.332  12.001   2.640  0.7758  1.1077 -0.2357
63486SOL     OW97697   2.301   3.710  10.868  0.3725  0.3930 -0.4350
63486SOL    HW197698   2.210   3.716  10.897  0.4338  1.0081 -0.3588
63486SOL    HW297699   2.330   3.801  10.861  1.5344  0.2184  1.3271
63487SOL     OW97700   0.856   9.515   9.744  0.4311  0.0570 -0.1993
63487SOL    HW197701   0.775   9.464   9.737 -0.3838  1.3393 -0.3443
63487SOL    HW297702   0.836   9.599   9.703  1.2955  1.0355  1.2788
63488SOL     OW97703  10.317   2.949   1.048  0.0657 -0.8581  0.3412
63488SOL    HW197704  10.250   2.940   0.981  0.0385  0.5913  0.1615
63488SOL    HW297705  10.269   2.972   1.128  0.4179  1.5292 -0.0847
63489SOL     OW97706   4.353   3.624   1.114  0.1702 -0.2718 -0.1367
63489SOL    HW197707   4.333   3.714   1.137 -0.9068 -0.6034  0.2989
63489SOL    HW297708   4.396   3.588   1.192 -1.9676 -0.9118  0.8480
63490SOL     OW97709   1.485   0.684   7.265  0.2129 -0.0151 -0.9025
63490SOL    HW197710   1.575   0.716   7.252  0.3643  0.2989  0.7517
63490SOL    HW297711   1.433   0.763   7.277  0.1457 -0.2706  0.6075
63491SOL     OW97712   7.491  10.150   5.274  0.5558 -0.0355  0.2644
63491SOL    HW197713   7.435  10.074   5.260  0.7034 -0.2326  0.6998
63491SOL    HW297714   7.579  10.118   5.254  0.4144  0.5593 -1.4467
63492SOL     OW97715   4.489   1.272   2.276 -0.2920 -0.3948 -0.2732
63492SOL    HW197716   4.401   1.306   2.292  0.3856  0.5223  1.8092
63492SOL    HW297717   4.511   1.301   2.188 -1.3022  1.0899 -0.0596
63493SOL     OW97718  11.553   3.405   4.630 -0.0887  0.1065  0.2660
63493SOL    HW197719  11.500   3.396   4.551 -2.0618 -0.0492  1.5340
63493SOL    HW297720  11.605   3.325   4.634 -0.4154 -0.1489 -0.5477
63494SOL     OW97721   3.799   1.302   6.337 -0.4703  0.3182  0.4609
63494SOL    HW197722   3.749   1.266   6.264 -0.3861 -1.7657  1.3712
63494SOL    HW297723   3.742   1.369   6.375 -0.0455  2.3497 -2.1715
63495SOL     OW97724   5.579   1.103  10.869  0.2994  0.0809  0.5522
63495SOL    HW197725   5.582   1.136  10.958 -2.0314  0.1665  0.6517
63495SOL    HW297726   5.557   1.010  10.878 -0.0818  0.1193  0.0814
63496SOL     OW97727   7.828  11.387  11.921 -0.1135 -0.4060 -0.1432
63496SOL    HW197728   7.785  11.415  12.001  0.7364 -0.1745  0.2483
63496SOL    HW297729   7.869  11.466  11.887  2.1078 -1.0410  0.8520
63497SOL     OW97730   9.960   3.659   9.771 -0.6714  0.3266 -0.5155
63497SOL    HW197731   9.914   3.733   9.731  0.2082  1.1645 -0.0024
63497SOL    HW297732  10.035   3.644   9.713 -0.0612  0.7715  0.1422
63498SOL     OW97733  11.165   4.163   1.539  0.2269  0.4471 -0.3329
63498SOL    HW197734  11.152   4.253   1.512 -0.2990  1.8627  3.8884
63498SOL    HW297735  11.244   4.165   1.593 -0.8499 -1.1286  1.4557
63499SOL     OW97736   5.245   3.545   0.747  0.1801  0.4964 -0.2924
63499SOL    HW197737   5.164   3.499   0.769  0.8023 -0.4997 -0.0136
63499SOL    HW297738   5.217   3.620   0.695 -0.9535  0.4083  0.1789
63500SOL     OW97739   5.690   7.303   7.205  0.4943  0.1590  0.0780
63500SOL    HW197740   5.747   7.228   7.222  1.1627  0.8138  0.8525
63500SOL    HW297741   5.747   7.368   7.165  0.1792  0.6362  0.3819
63501SOL     OW97742   3.267   9.930   2.728 -0.1646  0.0453 -0.0231
63501SOL    HW197743   3.272  10.025   2.731  1.6109 -0.0699  1.4538
63501SOL    HW297744   3.302   9.907   2.642 -0.7452  0.6918 -0.4493
63502SOL     OW97745   0.495   4.737  10.827 -0.0761  0.1169  0.2498
63502SOL    HW197746   0.528   4.806  10.769  0.8313  1.6176  2.4212
63502SOL    HW297747   0.570   4.715  10.882  0.4728 -4.5132 -1.8807
63503SOL     OW97748  10.241   3.437   2.062  0.1949 -0.0641  0.7536
63503SOL    HW197749  10.284   3.390   1.990  1.3825 -0.3721  1.6225
63503SOL    HW297750  10.149   3.442   2.037  0.1951 -2.0659  0.1999
63504SOL     OW97751   9.887   6.798  10.785  0.1845 -0.5035  0.0657
63504SOL    HW197752   9.967   6.752  10.761  0.5459  0.9097 -1.6980
63504SOL    HW297753   9.818   6.733  10.774  0.6214 -0.6169 -2.7928
63505SOL     OW97754   9.192  11.678   5.342  0.5210 -0.3870 -0.0435
63505SOL    HW197755   9.190  11.764   5.298  1.7034 -1.8546 -3.2820
63505SOL    HW297756   9.265  11.685   5.403  1.1078  0.7129 -0.8189
63506SOL     OW97757  10.804   5.312   7.546 -0.0366  0.7693  0.0389
63506SOL    HW197758  10.756   5.306   7.464 -0.4634  1.6859  0.2144
63506SOL    HW297759  10.740   5.291   7.614  0.3124  0.0228  0.1491
63507SOL     OW97760   6.785   5.699   9.511 -0.5128  0.1490  0.5150
63507SOL    HW197761   6.823   5.622   9.554 -2.3899 -1.6876 -0.8446
63507SOL    HW297762   6.695   5.701   9.543 -1.4728 -0.3041 -1.9570
63508SOL     OW97763   4.524   8.539   4.418 -0.4929 -0.3526 -0.4439
63508SOL    HW197764   4.507   8.533   4.512 -0.0723 -0.7926 -0.3878
63508SOL    HW297765   4.437   8.541   4.377 -0.6991  1.4062  0.0232
63509SOL     OW97766   2.242  11.513   7.487 -0.7325 -0.4098  0.1972
63509SOL    HW197767   2.263  11.559   7.569 -0.7278 -1.6840  0.9321
63509SOL    HW297768   2.195  11.578   7.435 -0.3150  0.5776  1.0103
63510SOL     OW97769  10.017  10.815   6.018 -0.0743 -0.5405 -0.3138
63510SOL    HW197770  10.081  10.848   5.954  0.9578 -0.0837  0.9087
63510SOL    HW297771   9.933  10.822   5.973  0.4559  1.0678 -1.1616
63511SOL     OW97772   1.903  10.350   9.802  0.3387 -0.0013 -0.2326
63511SOL    HW197773   1.827  10.383   9.850  1.0233  0.4201  0.5818
63511SOL    HW297774   1.976  10.402   9.834  0.5285  1.8628 -3.3620
63512SOL     OW97775   3.666   3.212   2.351  0.0028 -0.0892  0.1342
63512SOL    HW197776   3.742   3.244   2.400  2.7881 -5.0181 -0.2767
63512SOL    HW297777   3.698   3.202   2.262 -1.7783 -0.5727 -0.4914
63513SOL     OW97778   2.775  11.049  10.094  0.7445  0.4970  0.1240
63513SOL    HW197779   2.815  11.047  10.181 -1.2988  1.6476  1.1571
63513SOL    HW297780   2.719  10.971  10.092 -0.4478  1.3000  0.5366
63514SOL     OW97781   8.531   6.195   6.287 -0.5949  0.1071  0.2979
63514SOL    HW197782   8.583   6.173   6.364 -0.0082 -0.8424 -0.3485
63514SOL    HW297783   8.566   6.140   6.218 -1.4277  0.6016 -0.5435
63515SOL     OW97784   0.056   5.881   8.723 -0.0821 -0.3935 -0.2450
63515SOL    HW197785   0.082   5.964   8.682  0.7530 -0.9403 -0.8567
63515SOL    HW297786   0.136   5.830   8.727 -0.4927 -0.9851  0.5941
63516SOL     OW97787  10.972   2.334  12.074 -0.1705  0.2859 -1.0037
63516SOL    HW197788  10.959   2.395  12.146  0.8798 -2.0814  1.4065
63516SOL    HW297789  11.059   2.354  12.041 -0.0343  0.4209 -0.5686
63517SOL     OW97790   7.849  10.716   9.557  0.0183  0.0466  0.3909
63517SOL    HW197791   7.932  10.731   9.601 -1.2520  0.1757  2.8852
63517SOL    HW297792   7.839  10.621   9.555  0.0955  0.0395  0.3498
63518SOL     OW97793   8.465   2.438  12.061 -1.0634  0.1807  0.4058
63518SOL    HW197794   8.448   2.351  12.023 -0.4357  0.5079 -0.6785
63518SOL    HW297795   8.396   2.493  12.024  0.6071  0.9145 -1.8436
63519SOL     OW97796   2.101   3.182   1.161  0.3210 -0.0005  0.8216
63519SOL    HW197797   2.091   3.260   1.215  1.4367  1.6206 -1.1450
63519SOL    HW297798   2.064   3.207   1.076  1.2106 -1.4145 -0.0300
63520SOL     OW97799   4.708   8.970   3.674  0.2355  0.3973  0.5020
63520SOL    HW197800   4.635   9.031   3.664 -0.8614 -1.0947 -1.1352
63520SOL    HW297801   4.758   8.979   3.593 -1.7779 -3.0478 -1.3525
63521SOL     OW97802   3.250  10.785  11.729 -0.0163  0.5879  0.2323
63521SOL    HW197803   3.167  10.739  11.742 -0.6642  1.4557 -0.6526
63521SOL    HW297804   3.234  10.840  11.652  1.4870  0.5349 -0.1358
63522SOL     OW97805  11.748   2.482   2.572  0.2549 -0.3839  0.4004
63522SOL    HW197806  11.772   2.447   2.658 -0.7165 -0.6054  0.5980
63522SOL    HW297807  11.746   2.406   2.514  1.0052 -0.2198  0.1595
63523SOL     OW97808   7.923   7.773   5.673 -0.3672 -0.6660 -0.1540
63523SOL    HW197809   7.869   7.851   5.688 -0.8755 -0.8692 -0.8827
63523SOL    HW297810   7.860   7.702   5.661  0.0591 -0.9425 -0.8247
63524SOL     OW97811   3.989   9.989   9.286 -0.2315 -0.4304 -0.1535
63524SOL    HW197812   3.996   9.967   9.193  0.5691 -0.1924 -0.1607
63524SOL    HW297813   4.056  10.056   9.300 -1.8511  1.2135  0.1239
63525SOL     OW97814   5.374  12.191   5.993  0.5005  0.2673 -0.6405
63525SOL    HW197815   5.440  12.133   6.032 -1.0844 -1.1368  0.1111
63525SOL    HW297816   5.413  12.278   5.997  0.2664  0.4909  4.9182
63526SOL     OW97817  11.429  12.167   7.340 -0.1429 -0.4352 -0.7613
63526SOL    HW197818  11.379  12.248   7.352  1.1928  0.3751 -0.4090
63526SOL    HW297819  11.370  12.098   7.368  0.0360  0.7419  3.0933
63527SOL     OW97820   8.496  11.017   7.448 -0.0934  0.2138 -0.0436
63527SOL    HW197821   8.452  11.079   7.389  2.5746  3.0359  0.6454
63527SOL    HW297822   8.567  10.980   7.395  1.5315  1.8055  0.9095
63528SOL     OW97823   5.147   8.463   0.926  0.2575 -0.2508  0.1602
63528SOL    HW197824   5.140   8.559   0.924 -1.0294 -0.2306  2.3616
63528SOL    HW297825   5.221   8.446   0.984 -0.0465 -0.5891  0.4482
63529SOL     OW97826   2.501   1.894  11.539 -0.2229  0.8021  0.3669
63529SOL    HW197827   2.416   1.927  11.570  0.3067  1.5434  1.0827
63529SOL    HW297828   2.537   1.848  11.615  0.3428  1.1534  0.3182
63530SOL     OW97829   6.685   2.203   7.358  0.2948  0.3410  0.0573
63530SOL    HW197830   6.670   2.112   7.382  0.8161  0.5399  1.2072
63530SOL    HW297831   6.718   2.200   7.268  1.7723 -0.7370  0.5991
63531SOL     OW97832  10.285   4.338  10.580  0.7557 -0.0923 -0.0708
63531SOL    HW197833  10.190   4.347  10.588  0.5246 -0.8380 -1.5289
63531SOL    HW297834  10.302   4.357  10.488  1.9297 -0.6449  0.0228
63532SOL     OW97835   9.825  10.098   3.975 -0.0799 -0.4192 -0.0632
63532SOL    HW197836   9.768  10.174   3.965  1.4030  0.7158 -0.2742
63532SOL    HW297837   9.766  10.023   3.977 -1.6092  0.7689  0.5437
63533SOL     OW97838   4.121   7.030   0.354  0.4225  0.5956 -0.4637
63533SOL    HW197839   4.068   7.092   0.405  0.9696  0.0626  0.8062
63533SOL    HW297840   4.117   7.064   0.265  0.8334  2.5663  0.2006
63534SOL     OW97841  12.338   9.549   1.862 -0.0980  0.1282 -0.2514
63534SOL    HW197842  12.415   9.576   1.913 -0.2183 -0.5384  0.2966
63534SOL    HW297843  12.275   9.520   1.927 -0.2017 -0.8790 -0.7800
63535SOL     OW97844  12.387   0.318   0.415  0.4308 -0.3380 -0.2060
63535SOL    HW197845  12.441   0.264   0.474 -0.6465 -0.2016  0.9630
63535SOL    HW297846  12.441   0.394   0.396  0.1291  0.5480  2.1904
63536SOL     OW97847   6.974   7.533   9.235  0.4408  0.1142 -0.7721
63536SOL    HW197848   6.890   7.561   9.199 -0.1359  0.2388  0.6109
63536SOL    HW297849   7.008   7.610   9.280  0.7061 -0.2856 -0.2832
63537SOL     OW97850   0.222  10.259  10.218 -0.2454  0.0162 -0.6226
63537SOL    HW197851   0.130  10.233  10.228  0.0620 -0.3552  2.1482
63537SOL    HW297852   0.270  10.177  10.215  0.0908  0.2154 -0.7677
63538SOL     OW97853  11.119  10.364   3.366  0.2099  0.4679 -0.0174
63538SOL    HW197854  11.187  10.322   3.419  0.7911 -1.3396 -2.0401
63538SOL    HW297855  11.037  10.326   3.396  0.5800 -0.9000 -0.6574
63539SOL     OW97856   2.825   1.780   6.538  0.0520  0.2385 -0.0400
63539SOL    HW197857   2.752   1.842   6.549  0.6334  0.8384  0.5544
63539SOL    HW297858   2.882   1.822   6.473  0.0888 -0.0222 -0.1769
63540SOL     OW97859   9.534   0.753   0.498 -0.1437  0.5506  0.5094
63540SOL    HW197860   9.602   0.740   0.565  1.1785 -0.7976 -0.9974
63540SOL    HW297861   9.559   0.693   0.428 -2.1012  1.1214 -0.7356
63541SOL     OW97862   7.106   0.316   0.372 -0.1650 -0.2447  0.0906
63541SOL    HW197863   7.039   0.308   0.440 -0.2295 -1.3060 -0.0918
63541SOL    HW297864   7.102   0.408   0.346 -0.0684  0.2197  1.5912
63542SOL     OW97865   7.758   2.701   4.249 -0.1241  0.3692  0.2004
63542SOL    HW197866   7.672   2.698   4.208 -0.0510 -1.5382  0.0994
63542SOL    HW297867   7.804   2.624   4.215  1.2871  0.8240  0.9761
63543SOL     OW97868   3.213   5.393   7.525  0.4052  0.3149  0.2348
63543SOL    HW197869   3.235   5.451   7.452  2.2418 -0.3669  0.1962
63543SOL    HW297870   3.181   5.452   7.594 -0.5937  1.0413 -0.8150
63544SOL     OW97871   6.005   1.542  11.212  0.2197 -0.2480  0.2372
63544SOL    HW197872   6.096   1.566  11.192  0.1868  0.9634  1.3851
63544SOL    HW297873   5.982   1.597  11.287 -0.7734 -2.0897  1.3406
63545SOL     OW97874   3.502   7.643   2.034 -0.3796 -0.2945 -0.2358
63545SOL    HW197875   3.476   7.731   2.059  0.4047 -0.2028  0.3048
63545SOL    HW297876   3.566   7.617   2.101  2.4391  0.2572 -2.5355
63546SOL     OW97877   0.299   0.452   8.906  0.8240 -0.0940  0.9302
63546SOL    HW197878   0.371   0.433   8.966  1.0853  1.2350  1.0741
63546SOL    HW297879   0.334   0.518   8.847 -0.3104  0.7039  1.1003
63547SOL     OW97880   2.403  11.082   1.272 -0.0547 -0.3051 -0.0232
63547SOL    HW197881   2.333  11.144   1.252  0.1708 -0.6383 -2.0497
63547SOL    HW297882   2.482  11.136   1.276  0.1936 -0.4513 -2.1315
63548SOL     OW97883   7.845   6.003   5.336 -0.1074  0.0658  0.1763
63548SOL    HW197884   7.933   5.982   5.366 -0.8160 -0.8628  1.7241
63548SOL    HW297885   7.837   6.097   5.351  0.6965  0.2092 -0.2192
63549SOL     OW97886   3.777  12.209   8.280  0.0544 -0.0310 -0.2596
63549SOL    HW197887   3.728  12.143   8.330  2.8494 -2.1557 -0.0320
63549SOL    HW297888   3.789  12.169   8.194  1.6256  0.2222 -0.1890
63550SOL     OW97889   0.651   9.324   4.610  0.3950  0.2328  0.2426
63550SOL    HW197890   0.567   9.367   4.600  0.2104 -0.3284 -0.6699
63550SOL    HW297891   0.695   9.374   4.679 -0.9299  0.1332  1.2044
63551SOL     OW97892   4.698  11.445   9.580  0.5389 -0.1086 -0.2977
63551SOL    HW197893   4.737  11.457   9.493 -0.0297  0.1471 -0.5259
63551SOL    HW297894   4.769  11.461   9.641  0.9170 -0.1753 -0.7152
63552SOL     OW97895   3.382   1.251   8.796  0.0482  0.5336 -0.0545
63552SOL    HW197896   3.311   1.248   8.861 -0.6894  1.2686 -0.7943
63552SOL    HW297897   3.452   1.299   8.839  0.8801 -1.7570  1.3727
63553SOL     OW97898   4.537   5.711   7.540 -0.0460  0.1085 -0.0562
63553SOL    HW197899   4.563   5.784   7.597 -1.6442 -0.0430  0.9017
63553SOL    HW297900   4.451   5.736   7.506 -0.1164 -0.8430 -0.6153
63554SOL     OW97901  10.897   1.134  12.008  0.1112 -0.5234  0.3345
63554SOL    HW197902  10.881   1.109  12.099 -2.9221  0.9655  0.3163
63554SOL    HW297903  10.811   1.159  11.975  1.6850  2.5848 -1.8317
63555SOL     OW97904   8.612   0.826   4.204  0.3771  0.1771 -0.3196
63555SOL    HW197905   8.656   0.742   4.195  0.8314  0.4703 -0.9488
63555SOL    HW297906   8.620   0.848   4.296 -1.4322 -1.3523  0.2555
63556SOL     OW97907   4.319   9.343   7.028 -0.0974  0.2884 -0.4050
63556SOL    HW197908   4.409   9.336   6.997 -0.6151 -1.5521 -1.6204
63556SOL    HW297909   4.281   9.257   7.013 -2.4177  1.3432 -1.0383
63557SOL     OW97910   1.338   4.713  10.816  0.0884 -0.4454  0.1064
63557SOL    HW197911   1.337   4.644  10.749  1.0088  0.1986 -0.5993
63557SOL    HW297912   1.348   4.666  10.898  1.7435 -1.1458 -0.4425
63558SOL     OW97913  11.861   3.370  11.909  0.3441  0.0538  0.1401
63558SOL    HW197914  11.933   3.377  11.972  1.3450 -0.0573 -0.9651
63558SOL    HW297915  11.894   3.310  11.842 -0.5408  0.5026 -0.7109
63559SOL     OW97916  11.251  12.288   8.177  0.0936  0.3655 -0.4554
63559SOL    HW197917  11.231  12.194   8.173 -2.7290  0.8867 -1.0770
63559SOL    HW297918  11.168  12.331   8.157  1.4077  3.0263 -0.6865
63560SOL     OW97919   7.770   9.083  12.406  0.0661 -0.0354  0.4117
63560SOL    HW197920   7.767   9.120  12.317  1.9604  0.4333  0.4974
63560SOL    HW297921   7.723   9.146  12.460 -0.0315  0.3076 -0.0654
63561SOL     OW97922   0.064   9.848   3.944 -0.7467  0.0422  0.0407
63561SOL    HW197923  -0.016   9.827   3.895  1.1523 -1.5349 -2.6341
63561SOL    HW297924   0.104   9.920   3.896  0.6684 -0.8403 -0.1473
63562SOL     OW97925  10.991  11.725  10.048  0.4926  0.0813  0.1371
63562SOL    HW197926  10.985  11.664   9.974  1.4430  0.7492 -0.5309
63562SOL    HW297927  10.976  11.671  10.125 -0.0117 -0.7369 -0.5146
63563SOL     OW97928   1.654   5.777  12.218  0.3340  0.0399  0.0566
63563SOL    HW197929   1.588   5.745  12.279  0.5505 -1.2836 -0.3538
63563SOL    HW297930   1.604   5.811  12.144  0.0215 -2.5128 -1.0336
63564SOL     OW97931   4.789  11.265   8.339 -0.5467 -0.1922  0.0770
63564SOL    HW197932   4.778  11.348   8.386 -3.0835 -0.5894  0.3547
63564SOL    HW297933   4.817  11.203   8.407  1.0680  0.3448 -0.0732
63565SOL     OW97934   6.833   4.555   0.874 -0.2272  0.1214  0.2814
63565SOL    HW197935   6.869   4.634   0.834  2.9815 -0.9629  0.7729
63565SOL    HW297936   6.795   4.586   0.957  3.0730  0.9783  1.6302
63566SOL     OW97937   2.659   9.057   0.208  0.7712  0.1504 -0.2530
63566SOL    HW197938   2.602   9.017   0.142 -0.0888  0.0381  0.5301
63566SOL    HW297939   2.741   9.008   0.202  0.0652 -1.1021  0.0198
63567SOL     OW97940   9.299  11.644   0.008  0.1618  0.1787 -0.1032
63567SOL    HW197941   9.286  11.649  -0.087  0.1837 -1.8412 -0.2505
63567SOL    HW297942   9.393  11.631   0.020 -0.0143 -1.1296  0.0701
63568SOL     OW97943   5.718   1.706  10.720 -0.4047  0.5632 -0.1052
63568SOL    HW197944   5.782   1.662  10.776 -1.0783 -1.6379 -0.9539
63568SOL    HW297945   5.641   1.717  10.776 -1.1024 -1.6951 -0.4899
63569SOL     OW97946   3.573   5.721   1.717  0.7736 -0.3875 -0.1633
63569SOL    HW197947   3.634   5.790   1.744  1.2941 -1.2825  1.0657
63569SOL    HW297948   3.617   5.640   1.741 -0.7499 -1.0733  0.4723
63570SOL     OW97949  12.357  10.886   3.534 -0.3020  0.1856  0.0682
63570SOL    HW197950  12.352  10.835   3.453 -0.2520 -0.5677  0.5259
63570SOL    HW297951  12.440  10.932   3.529 -1.2418  1.8412 -1.2752
63571SOL     OW97952  11.429   8.639   3.598  0.1832 -0.3582  0.0709
63571SOL    HW197953  11.449   8.731   3.616  0.3838  0.0761 -2.1745
63571SOL    HW297954  11.512   8.601   3.570 -0.2462 -0.7802 -0.6786
63572SOL     OW97955   9.580   0.692   8.313  0.3169 -0.0062 -0.1968
63572SOL    HW197956   9.534   0.762   8.268 -0.9943  0.6266  1.9502
63572SOL    HW297957   9.661   0.732   8.345  0.7800 -0.1941 -1.1031
63573SOL     OW97958   7.793   6.907   7.419  0.0845 -0.5901  0.7539
63573SOL    HW197959   7.738   6.846   7.468 -1.0096 -1.2312 -1.1621
63573SOL    HW297960   7.764   6.994   7.446 -1.7201 -0.9236 -0.0300
63574SOL     OW97961   9.748   1.341   4.413 -0.3244  0.3544 -0.2442
63574SOL    HW197962   9.734   1.435   4.411 -1.8176  0.1728  0.1282
63574SOL    HW297963   9.660   1.304   4.420  0.3239 -0.9644  2.2990
63575SOL     OW97964   0.147  11.136   6.015  0.1620 -0.4498 -0.1934
63575SOL    HW197965   0.239  11.131   5.988  0.6309  0.7488  1.0693
63575SOL    HW297966   0.098  11.101   5.941  1.5513  0.2318 -1.4798
63576SOL     OW97967   8.537   2.943  11.802 -0.5849  0.4408 -0.1223
63576SOL    HW197968   8.486   2.879  11.752  0.8181 -0.6326 -0.2552
63576SOL    HW297969   8.609   2.967  11.744  0.5225 -0.0803  0.9755
63577SOL     OW97970  11.973   2.246  12.677 -0.2966 -0.4235 -0.1129
63577SOL    HW197971  12.033   2.186  12.722 -0.0624 -0.7675 -0.8705
63577SOL    HW297972  12.001   2.243  12.586 -0.6792  0.3729 -0.2596
63578SOL     OW97973  11.313   0.770   5.555 -0.4564  0.2264  0.4786
63578SOL    HW197974  11.348   0.697   5.606  0.5384  0.8913  0.7736
63578SOL    HW297975  11.262   0.728   5.486  1.2460 -0.8220 -0.2293
63579SOL     OW97976   8.348   6.556  11.483  0.5006  0.4937 -0.0456
63579SOL    HW197977   8.260   6.526  11.461  0.3057  1.5934 -0.8068
63579SOL    HW297978   8.339   6.596  11.570  0.9256 -2.2610  1.3819
63580SOL     OW97979   8.090   0.652   6.021  0.4043  0.4266  0.7415
63580SOL    HW197980   8.129   0.634   6.107  0.6814 -2.7903  0.0885
63580SOL    HW297981   8.032   0.577   6.006  0.5565  0.7683 -1.9925
63581SOL     OW97982   0.205   0.372  11.188  0.2618  0.4790 -0.0066
63581SOL    HW197983   0.233   0.422  11.112  2.5551 -0.4084  0.1912
63581SOL    HW297984   0.169   0.437  11.247 -0.4655  1.3384 -1.3408
63582SOL     OW97985  10.169  11.793  11.937 -0.1831 -0.0193  0.0997
63582SOL    HW197986  10.182  11.883  11.967  0.0709  0.6028 -1.7906
63582SOL    HW297987  10.253  11.768  11.899 -0.5639 -0.6778 -0.3272
63583SOL     OW97988   3.685   3.356   1.050  0.0851  0.2396  0.1629
63583SOL    HW197989   3.622   3.284   1.057 -1.3557  1.3703 -0.6511
63583SOL    HW297990   3.724   3.345   0.963 -1.8284  1.6957 -0.9579
63584SOL     OW97991   0.668   5.530  10.806 -0.0744  0.1880  0.3905
63584SOL    HW197992   0.647   5.436  10.805  0.1366  0.1446  0.0469
63584SOL    HW297993   0.629   5.562  10.888  0.1167 -0.2571  0.6579
63585SOL     OW97994  10.978  11.505   1.763 -0.6363  0.0383  0.0531
63585SOL    HW197995  10.971  11.599   1.745 -0.9609  0.1672  0.8550
63585SOL    HW297996  10.893  11.470   1.739 -0.9572  0.1582  0.9932
63586SOL     OW97997   8.803   3.684   4.320  0.3087 -0.1892 -0.2854
63586SOL    HW197998   8.781   3.613   4.380  2.1461  0.8783  1.7861
63586SOL    HW297999   8.893   3.707   4.341 -0.5754  3.6310  0.1512
63587SOL     OW98000  10.043  10.717  11.022 -0.2393  0.6761 -0.0822
63587SOL    HW198001  10.116  10.754  10.972 -0.8999  1.0582 -0.7763
63587SOL    HW298002  10.085  10.653  11.081  0.5213 -0.0677 -1.3859
63588SOL     OW98003   7.024   4.844  12.341  0.5994  0.0580 -0.8438
63588SOL    HW198004   6.964   4.909  12.377 -0.7076 -1.3266 -0.3815
63588SOL    HW298005   7.108   4.862  12.384  0.1277  1.0766 -0.3156
63589SOL     OW98006   7.901   3.048  10.411  0.4860 -0.0404 -0.2059
63589SOL    HW198007   7.964   2.991  10.368  0.5909 -0.1759  0.1305
63589SOL    HW298008   7.818   3.029  10.366  0.4022 -0.8754  0.2833
63590SOL     OW98009  11.321  11.926   8.071 -0.3911 -0.1835 -0.3115
63590SOL    HW198010  11.244  11.969   8.033 -0.7988  0.6121  1.3425
63590SOL    HW298011  11.297  11.909   8.162  1.2839 -0.1831  0.1612
63591SOL     OW98012  10.664  10.424   4.324  0.3600  0.0201 -0.3414
63591SOL    HW198013  10.573  10.396   4.313  0.6684 -1.7480  1.0124
63591SOL    HW298014  10.709  10.393   4.246 -0.1515  0.7245 -0.9225
63592SOL     OW98015  10.665   0.954   5.325 -0.2679  0.1469 -0.0261
63592SOL    HW198016  10.657   0.889   5.255 -2.1675 -0.6206  0.8288
63592SOL    HW298017  10.614   0.917   5.397  0.4278  1.6038  1.2564
63593SOL     OW98018  12.281   5.402  11.106 -0.1189 -0.0421 -0.6881
63593SOL    HW198019  12.294   5.455  11.185  1.2547  2.4662 -2.4704
63593SOL    HW298020  12.366   5.361  11.090 -0.5943 -1.1518 -0.5292
63594SOL     OW98021   2.619  11.927   9.275  0.2258 -0.7718  0.0461
63594SOL    HW198022   2.677  11.988   9.228 -2.5224 -0.0135 -2.7028
63594SOL    HW298023   2.645  11.934   9.366  2.2569  1.9631 -0.6183
63595SOL     OW98024   8.729   6.916   3.927 -0.5347 -0.2926  0.6177
63595SOL    HW198025   8.731   6.997   3.877 -1.5609 -0.6869 -0.1057
63595SOL    HW298026   8.768   6.938   4.011 -0.2703  0.7977  0.2201
63596SOL     OW98027   6.178   4.738   9.138 -0.3270  0.6246 -0.3959
63596SOL    HW198028   6.132   4.816   9.109 -1.0415 -0.1712 -1.4906
63596SOL    HW298029   6.133   4.713   9.219 -0.5276  0.9697 -0.3985
63597SOL     OW98030   4.461   6.219   5.273  0.4393  0.3936 -0.4872
63597SOL    HW198031   4.536   6.252   5.223  2.2379 -2.1956  0.3141
63597SOL    HW298032   4.474   6.254   5.361  0.6961 -0.0159 -0.3600
63598SOL     OW98033   7.750   0.620   5.879  0.2432 -0.3216  0.6156
63598SOL    HW198034   7.817   0.552   5.884  0.0922 -0.4808  0.4707
63598SOL    HW298035   7.708   0.607   5.794 -0.4895 -0.7188  1.0270
63599SOL     OW98036   0.926   2.309   9.568  0.5540 -0.3787 -0.1716
63599SOL    HW198037   0.961   2.220   9.557  0.8759 -0.2891  0.1072
63599SOL    HW298038   0.880   2.305   9.651  0.2329 -0.3901 -0.3509
63600SOL     OW98039   2.821  12.005  12.541  0.0422  0.3289 -0.3278
63600SOL    HW198040   2.876  12.070  12.497  0.6606 -0.3876 -0.6371
63600SOL    HW298041   2.881  11.935  12.566 -0.5210  0.1181  0.4951
63601SOL     OW98042  11.669   4.147  11.237 -0.0799  0.4741  0.0667
63601SOL    HW198043  11.741   4.180  11.292 -0.5143 -0.0763  0.9827
63601SOL    HW298044  11.711   4.086  11.177  0.1093 -0.6711  1.2981
63602SOL     OW98045   3.152   7.329   8.197  0.0931  0.2897  0.0663
63602SOL    HW198046   3.099   7.348   8.119  0.4956  0.2737 -0.2084
63602SOL    HW298047   3.091   7.342   8.270 -0.2965  0.2657 -0.2513
63603SOL     OW98048   4.234   1.025  12.020 -0.3289  0.1634  0.1147
63603SOL    HW198049   4.220   1.078  12.098  1.4015  0.0951  0.5035
63603SOL    HW298050   4.192   1.075  11.949 -1.4375  0.4845  0.9671
63604SOL     OW98051  10.268   8.762  11.268 -0.1213  0.2605 -0.4353
63604SOL    HW198052  10.343   8.780  11.211 -0.4350 -0.7742 -1.1807
63604SOL    HW298053  10.240   8.849  11.298  0.9907  0.7030 -0.6338
63605SOL     OW98054   6.845  11.125   1.038  0.5391  0.6884 -0.0328
63605SOL    HW198055   6.869  11.055   1.098  0.7870  0.6992 -0.1192
63605SOL    HW298056   6.751  11.137   1.052 -0.1962 -1.6798 -2.0807
63606SOL     OW98057   9.042   7.095   8.830 -0.0367  0.5566  0.4658
63606SOL    HW198058   9.083   7.140   8.904 -1.7198  2.5461  0.3026
63606SOL    HW298059   9.099   7.115   8.756 -0.2637  1.7056  0.5793
63607SOL     OW98060  11.954   7.706   8.101 -0.4729 -0.1468  0.5646
63607SOL    HW198061  11.944   7.694   8.007 -0.2848 -0.3110  0.5639
63607SOL    HW298062  12.043   7.674   8.120  0.2593  1.7157  0.4857
63608SOL     OW98063   1.571   0.477  11.813 -0.0193  0.2915 -0.1823
63608SOL    HW198064   1.634   0.548  11.822 -1.1456  1.3127 -0.0467
63608SOL    HW298065   1.612   0.402  11.857  0.4643  1.3473  1.2429
63609SOL     OW98066   7.485   8.503  11.058  0.2847 -0.0002 -0.1922
63609SOL    HW198067   7.404   8.496  11.007 -0.1107 -2.8277  0.6422
63609SOL    HW298068   7.458   8.485  11.148  1.7837 -0.7421  0.1367
63610SOL     OW98069   4.523  11.729   6.147 -0.2198 -0.2093 -0.2497
63610SOL    HW198070   4.476  11.686   6.075 -1.5322  1.1617 -0.2456
63610SOL    HW298071   4.470  11.806   6.168  0.9613  0.2560  1.1622
63611SOL     OW98072   5.774   6.826   5.067  0.2051  0.3037  0.7347
63611SOL    HW198073   5.803   6.887   4.999  1.7068  0.0683  1.1260
63611SOL    HW298074   5.693   6.864   5.099  0.9428  1.9611  0.7664
63612SOL     OW98075   8.219  12.063   0.797  0.3751 -0.5769 -0.4659
63612SOL    HW198076   8.165  11.993   0.835  0.0631 -0.6129 -0.9594
63612SOL    HW298077   8.162  12.140   0.800 -0.0508 -0.8088 -1.7980
63613SOL     OW98078  12.477   7.030   1.823  0.6131  0.7480  0.0212
63613SOL    HW198079  12.518   7.018   1.737 -0.6377  1.0011 -0.6354
63613SOL    HW298080  12.393   6.985   1.816  1.5951 -1.6420  2.0612
63614SOL     OW98081  12.354   5.463   7.856 -0.0783 -0.0690 -0.3719
63614SOL    HW198082  12.321   5.486   7.769  0.0270  1.9685  0.0759
63614SOL    HW298083  12.276   5.449   7.909 -0.1476 -0.5602 -0.5975
63615SOL     OW98084   2.867   4.205   2.104  0.2407  0.5034  0.5549
63615SOL    HW198085   2.945   4.210   2.048  0.8559 -0.5414  1.3006
63615SOL    HW298086   2.802   4.260   2.058  0.6992 -0.3514 -1.2101
63616SOL     OW98087  11.976   5.056   3.297 -0.0892  0.0323  0.7934
63616SOL    HW198088  11.934   5.140   3.281 -0.0074 -0.1113 -0.2271
63616SOL    HW298089  11.910   4.991   3.273  0.7833 -0.1995 -1.1912
63617SOL     OW98090   8.365   8.287   2.285  0.0899 -0.9009 -0.9259
63617SOL    HW198091   8.332   8.339   2.358 -1.1306  0.2307 -2.2123
63617SOL    HW298092   8.460   8.289   2.293  0.0404  1.0043 -0.5633
63618SOL     OW98093   2.021   9.499   2.148 -0.0486  0.3953 -0.1784
63618SOL    HW198094   2.047   9.487   2.240 -2.0534  0.8302  0.4856
63618SOL    HW298095   2.089   9.555   2.112  0.5233  0.6167  1.1702
63619SOL     OW98096  11.541   8.548   8.120 -0.5317 -0.3648  0.1565
63619SOL    HW198097  11.582   8.625   8.160 -0.6194  0.5152 -1.3760
63619SOL    HW298098  11.456   8.580   8.088 -0.6211 -1.1213 -0.3778
63620SOL     OW98099  12.239  10.249   9.193 -0.2308 -0.0336 -0.1740
63620SOL    HW198100  12.312  10.280   9.248 -1.8003  1.1354  1.3743
63620SOL    HW298101  12.163  10.254   9.251 -1.5115 -1.4639 -1.6670
63621SOL     OW98102  10.722   6.848  11.509  0.4783  0.3660  0.0752
63621SOL    HW198103  10.640   6.888  11.538 -0.0762 -0.2596 -0.5877
63621SOL    HW298104  10.707   6.754  11.518  0.2234  0.1316 -2.3148
63622SOL     OW98105   3.447   8.808  10.039 -0.1190  0.0140  0.1538
63622SOL    HW198106   3.481   8.751  10.108 -0.4703  0.3498  0.6093
63622SOL    HW298107   3.515   8.806   9.971  0.1925 -0.3817  0.4714
63623SOL     OW98108   9.041   0.700   4.123 -0.0543  0.4195 -0.0322
63623SOL    HW198109   9.042   0.633   4.055  0.7895 -0.1025  0.4737
63623SOL    HW298110   9.051   0.783   4.076 -1.7619  0.2713 -0.7210
63624SOL     OW98111   6.137   5.783   3.346  0.6666 -0.4152  0.0589
63624SOL    HW198112   6.125   5.749   3.257  1.4030  2.2343 -1.1540
63624SOL    HW298113   6.065   5.845   3.358  0.2565 -1.1395  1.5615
63625SOL     OW98114   7.459   6.655   5.391  0.1618 -0.2530 -0.2160
63625SOL    HW198115   7.485   6.690   5.306 -0.8226 -2.1780 -1.3895
63625SOL    HW298116   7.506   6.571   5.398 -0.6150 -0.6396  0.6164
63626SOL     OW98117   0.057  10.573   0.256 -0.1932 -0.2832  1.0212
63626SOL    HW198118   0.122  10.522   0.304 -0.7070  0.2199  2.2921
63626SOL    HW298119   0.098  10.659   0.245 -0.2975 -0.2330  1.0337
63627SOL     OW98120   2.264  11.688   4.263  0.1682  0.3088 -0.6128
63627SOL    HW198121   2.324  11.632   4.213 -0.8275 -1.1435 -0.2384
63627SOL    HW298122   2.314  11.712   4.341  0.5393 -0.2485 -0.6736
63628SOL     OW98123   4.191  12.458  11.004  0.0450  0.3013 -0.5758
63628SOL    HW198124   4.247  12.535  11.012 -0.6690  0.8067 -0.4306
63628SOL    HW298125   4.163  12.438  11.093 -0.4545  0.3855 -0.7110
63629SOL     OW98126   9.318   5.999   9.583 -0.0319  0.0943 -0.1713
63629SOL    HW198127   9.350   5.918   9.623 -1.2112  0.1385  0.9582
63629SOL    HW298128   9.223   5.990   9.585 -0.1420  0.7265 -1.7417
63630SOL     OW98129   5.152  12.339   7.651  0.0057  0.8721 -0.1780
63630SOL    HW198130   5.173  12.251   7.618  1.9462 -0.0788  3.0984
63630SOL    HW298131   5.223  12.394   7.619  1.5322  0.0966  1.7113
63631SOL     OW98132   6.180   7.200  10.487  0.2498 -0.4701  0.0755
63631SOL    HW198133   6.122   7.132  10.520 -1.4238 -0.9373 -3.3318
63631SOL    HW298134   6.140   7.282  10.515 -0.2401 -0.8278  0.4303
63632SOL     OW98135   1.944   6.412   4.422 -0.2472 -0.4049  0.7196
63632SOL    HW198136   1.897   6.471   4.363 -0.1421 -1.2004 -0.1715
63632SOL    HW298137   1.948   6.460   4.505 -0.0410  0.8990 -0.0212
63633SOL     OW98138   6.888   1.790   9.518  0.3347 -0.0048  0.0599
63633SOL    HW198139   6.979   1.798   9.490  0.0939  0.6891 -0.5653
63633SOL    HW298140   6.893   1.772   9.611  1.1097  2.8673  0.6967
63634SOL     OW98141  10.051   4.210   8.975  0.2616  0.6574  0.4771
63634SOL    HW198142  10.124   4.222   9.036  0.1216  0.7460  0.6293
63634SOL    HW298143  10.054   4.117   8.951  1.9239  1.1340 -1.4328
63635SOL     OW98144   2.474   9.712  11.271 -0.4014  0.1507 -0.3160
63635SOL    HW198145   2.397   9.731  11.218 -0.6031  0.1035 -0.0381
63635SOL    HW298146   2.442   9.657  11.342 -0.0328 -0.2508 -0.4532
63636SOL     OW98147  11.166   8.648   4.530  0.0880  0.1799 -0.0078
63636SOL    HW198148  11.240   8.696   4.490  0.1740 -0.3649 -0.5192
63636SOL    HW298149  11.098   8.650   4.463 -0.9471  1.9685  1.0030
63637SOL     OW98150   1.675  10.186   2.961  0.6193 -0.6296 -0.4487
63637SOL    HW198151   1.592  10.167   3.005 -0.3354  1.4053 -1.2815
63637SOL    HW298152   1.663  10.152   2.873  1.0199 -1.1008 -0.3274
63638SOL     OW98153   6.342   0.402   1.085  0.4386 -0.1242 -0.3133
63638SOL    HW198154   6.359   0.310   1.064  0.9304  0.1373 -1.0918
63638SOL    HW298155   6.259   0.400   1.133 -0.2849 -0.8432 -1.5464
63639SOL     OW98156   9.674   2.199   8.036  0.5078 -0.4235  0.3132
63639SOL    HW198157   9.643   2.287   8.015  0.5595 -0.2205  1.0627
63639SOL    HW298158   9.671   2.152   7.952  0.1689  0.1918 -0.0276
63640SOL     OW98159   4.210   6.122   0.231  0.3746  0.0043  0.4131
63640SOL    HW198160   4.276   6.189   0.251  0.0972  0.8194 -1.2076
63640SOL    HW298161   4.246   6.074   0.157 -0.1162 -0.6415  0.5877
63641SOL     OW98162   7.141  12.043   9.727 -0.3283  0.4803 -0.6626
63641SOL    HW198163   7.212  12.104   9.748 -0.8377  0.7573  0.3363
63641SOL    HW298164   7.089  12.038   9.808  0.2609 -2.0660 -0.3401
63642SOL     OW98165   5.121   2.552   9.151  0.5077  0.1438 -0.3128
63642SOL    HW198166   5.126   2.478   9.091  0.3789  1.2564 -1.7366
63642SOL    HW298167   5.064   2.616   9.108  0.0829  0.8310  1.1684
63643SOL     OW98168   0.386   0.209   8.396  0.6978  0.4965 -0.6270
63643SOL    HW198169   0.357   0.126   8.358 -0.1494  0.4197  0.1662
63643SOL    HW298170   0.391   0.269   8.322  0.5605 -0.0562 -1.0898
63644SOL     OW98171   6.393  12.703   2.318  0.0632 -0.3742 -0.7720
63644SOL    HW198172   6.330  12.762   2.277 -0.8554 -1.2974 -0.7566
63644SOL    HW298173   6.351  12.616   2.311  1.2180 -0.9691 -0.5135
63645SOL     OW98174   8.542  11.663  10.262 -0.0520 -0.7238 -0.0180
63645SOL    HW198175   8.624  11.711  10.261  0.9558 -2.3491 -2.1322
63645SOL    HW298176   8.501  11.687  10.346  2.1271  0.7974  0.6867
63646SOL     OW98177   9.656  10.542  10.746  0.5618  0.1297 -0.1817
63646SOL    HW198178   9.623  10.469  10.694  0.0963  0.6023 -0.5553
63646SOL    HW298179   9.729  10.577  10.695 -1.0638  1.7806 -1.4845
63647SOL     OW98180   3.086  12.008   0.587 -0.3580 -0.5642 -0.3131
63647SOL    HW198181   3.072  11.920   0.552 -0.0311 -1.0007  0.6128
63647SOL    HW298182   3.097  11.994   0.681 -1.1516  0.5640 -0.0433
63648SOL     OW98183   6.937   7.698   7.126  0.4559 -0.1093 -0.8495
63648SOL    HW198184   6.959   7.657   7.042  0.5319 -0.5895 -0.5983
63648SOL    HW298185   6.937   7.625   7.188  2.0540  0.4918 -0.1092
63649SOL     OW98186   2.211  11.789  10.389  0.2388 -0.1450  0.0682
63649SOL    HW198187   2.270  11.822  10.322 -2.1180 -0.2339 -2.2202
63649SOL    HW298188   2.192  11.865  10.444 -0.2471  0.7544 -1.3210
63650SOL     OW98189  12.050   9.037  10.928  0.2451  0.0036 -0.1522
63650SOL    HW198190  12.005   9.060  11.010  2.6734  2.3821  0.6708
63650SOL    HW298191  12.052   8.942  10.927  0.6366 -0.1275  2.9117
63651SOL     OW98192   0.096  10.311   1.346  0.4981 -0.1277 -0.3407
63651SOL    HW198193   0.016  10.276   1.383  1.4470 -0.6054  1.3302
63651SOL    HW298194   0.084  10.406   1.347 -0.6424 -0.2269 -1.5828
63652SOL     OW98195   9.337   7.306   5.143 -0.0987  0.0949 -0.1785
63652SOL    HW198196   9.351   7.349   5.227  0.5263  2.2509 -1.3274
63652SOL    HW298197   9.297   7.373   5.088  0.8956 -0.7922 -2.0675
63653SOL     OW98198   0.944   1.352  11.326 -0.7105 -0.3433  0.7018
63653SOL    HW198199   0.988   1.348  11.411 -0.0533 -1.2195  0.3322
63653SOL    HW298200   0.997   1.413  11.275 -0.5274 -0.6026  0.5862
63654SOL     OW98201   8.690   8.755  11.741  0.3915  0.1959  0.4853
63654SOL    HW198202   8.782   8.757  11.769  0.7694 -1.8070 -0.4276
63654SOL    HW298203   8.692   8.788  11.651  0.2599 -0.0791  0.3807
63655SOL     OW98204   9.844  11.352   2.359  0.0743  0.6863  0.3500
63655SOL    HW198205   9.924  11.390   2.396  0.5001 -0.1421  0.3169
63655SOL    HW298206   9.803  11.424   2.312  1.4019  0.8493 -0.6172
63656SOL     OW98207   1.184  11.540   2.001 -0.2271  0.0985 -0.3594
63656SOL    HW198208   1.169  11.571   1.912  1.6694 -0.3399 -0.8783
63656SOL    HW298209   1.164  11.615   2.057 -2.0053  0.2044 -1.0748
63657SOL     OW98210   0.784   6.880   4.525  0.8100 -0.2101 -0.0679
63657SOL    HW198211   0.808   6.966   4.561  1.7693 -0.4353 -0.1477
63657SOL    HW298212   0.763   6.897   4.434 -0.2554  0.1347  0.2209
63658SOL     OW98213   3.300  12.413   1.652 -0.6607  0.3656  0.2622
63658SOL    HW198214   3.243  12.382   1.722 -0.1271  1.3131  1.1606
63658SOL    HW298215   3.256  12.387   1.571 -1.2547 -0.8241  0.9465
63659SOL     OW98216  11.715   9.952   2.256  0.0173 -0.3341 -0.0223
63659SOL    HW198217  11.674   9.866   2.263 -1.4779  0.4132  0.7348
63659SOL    HW298218  11.642  10.013   2.244  1.0225  0.8771 -0.1723
63660SOL     OW98219   4.052  12.622   3.368 -0.0645  0.4008  0.0964
63660SOL    HW198220   3.988  12.692   3.384 -1.3016 -0.7132  0.3017
63660SOL    HW298221   4.082  12.598   3.456 -0.7532 -0.2779  0.1640
63661SOL     OW98222  10.105  12.456   1.780 -0.6075  0.6077  0.6236
63661SOL    HW198223  10.045  12.459   1.706 -0.6762  0.8113  0.6872
63661SOL    HW298224  10.071  12.386   1.836  0.6027 -0.9679 -0.5215
63662SOL     OW98225   3.881   8.441  11.916 -0.1853  0.4842  0.4543
63662SOL    HW198226   3.825   8.469  11.843  1.0193  0.9495 -0.3210
63662SOL    HW298227   3.822   8.393  11.974 -1.0566 -0.5432 -1.1791
63663SOL     OW98228   1.771   2.980   8.591 -0.0320  0.5962 -0.3570
63663SOL    HW198229   1.794   2.978   8.498 -0.1381  0.0897 -0.3739
63663SOL    HW298230   1.698   3.042   8.596 -0.7625 -0.2164 -0.7800
63664SOL     OW98231   5.630   2.348   5.919  0.4415 -0.3875 -0.2970
63664SOL    HW198232   5.607   2.428   5.871  2.2495 -0.8215 -2.0031
63664SOL    HW298233   5.707   2.314   5.874  0.3393 -2.5616  1.0190
63665SOL     OW98234   8.390  11.857  12.349  0.5583  0.3366 -0.4265
63665SOL    HW198235   8.363  11.766  12.344  0.8169  0.2441 -0.1807
63665SOL    HW298236   8.420  11.879  12.261  1.0185  0.0195 -0.3474
63666SOL     OW98237   9.301  12.015  11.531 -0.1049  0.5666  0.3883
63666SOL    HW198238   9.256  12.090  11.571  1.6744  1.3696  0.9994
63666SOL    HW298239   9.323  11.959  11.606  0.2028  0.3676  0.1509
63667SOL     OW98240   5.217   8.734   9.411  0.2266  0.1819 -0.2922
63667SOL    HW198241   5.312   8.733   9.397  0.1616 -0.2595 -0.6931
63667SOL    HW298242   5.202   8.814   9.463  0.7175  0.7012 -0.9298
63668SOL     OW98243   7.472   7.290   8.648  0.0670 -0.1146  0.3422
63668SOL    HW198244   7.430   7.372   8.622 -0.6076 -0.9983 -1.5961
63668SOL    HW298245   7.558   7.316   8.681 -0.5642  1.4504  0.8413
63669SOL     OW98246   5.812   0.002  10.297  0.8560 -0.3148  0.0755
63669SOL    HW198247   5.802   0.012  10.203  1.3559 -1.2008 -0.0855
63669SOL    HW298248   5.736  -0.051  10.323 -0.0710  1.1341  0.4155
63670SOL     OW98249   0.938   2.220  11.923 -0.3349 -0.1363 -1.0127
63670SOL    HW198250   0.848   2.252  11.928  1.0856  4.5257 -0.6082
63670SOL    HW298251   0.966   2.213  12.014 -0.4610 -2.5516 -1.0976
63671SOL     OW98252   3.987   9.882   9.678  0.2086 -0.0989 -0.4295
63671SOL    HW198253   4.007   9.956   9.621  1.5482 -0.2788 -0.2324
63671SOL    HW298254   3.948   9.817   9.620 -1.1216  0.7912 -0.5776
63672SOL     OW98255   5.662   9.129   2.592 -0.0672 -0.1417 -0.3250
63672SOL    HW198256   5.658   9.044   2.637  1.3127 -1.2656 -2.1296
63672SOL    HW298257   5.588   9.127   2.531 -0.3675  0.2010  0.0291
63673SOL     OW98258   5.872   5.313   1.451  0.1386  0.1372  0.1079
63673SOL    HW198259   5.820   5.248   1.497  1.7852  0.1914  2.2310
63673SOL    HW298260   5.809   5.366   1.403 -1.3272 -2.4194 -0.9572
63674SOL     OW98261   9.214   4.921  12.420 -0.6567  0.1756 -0.4207
63674SOL    HW198262   9.191   4.976  12.345 -0.2563  0.9705  0.0245
63674SOL    HW298263   9.288   4.869  12.389 -1.0423 -0.1247 -0.8513
63675SOL     OW98264  10.494  10.613   5.918 -0.0554 -0.0689 -0.7076
63675SOL    HW198265  10.468  10.681   5.857  1.5555  1.9629  0.7373
63675SOL    HW298266  10.438  10.625   5.994  0.3216 -0.2588 -0.3931
63676SOL     OW98267   0.831   8.889   7.018  0.2758  0.0680 -0.3376
63676SOL    HW198268   0.746   8.907   6.977  0.4285  2.5725  0.2696
63676SOL    HW298269   0.895   8.928   6.957  0.8362 -0.1104  0.1328
63677SOL     OW98270   8.016   5.945  11.262 -0.6797 -0.3510 -0.6195
63677SOL    HW198271   8.090   5.908  11.311 -0.4835  0.0158 -0.6277
63677SOL    HW298272   7.939   5.902  11.298 -0.8459  1.7283  1.8902
63678SOL     OW98273  11.709   0.509   2.798  0.3778  0.0771 -0.1441
63678SOL    HW198274  11.627   0.464   2.778 -0.1488  0.1640  1.6265
63678SOL    HW298275  11.760   0.445   2.848  1.3312  0.0847 -1.0824
63679SOL     OW98276   0.584   0.181   3.145  0.0914  0.6239 -0.3611
63679SOL    HW198277   0.519   0.112   3.162  0.8229 -0.0458 -0.2378
63679SOL    HW298278   0.564   0.249   3.210  0.1686 -0.0364  0.3716
63680SOL     OW98279   9.700   5.857   7.884 -0.2842 -0.0723  0.2074
63680SOL    HW198280   9.751   5.899   7.953  0.4756  1.0029 -0.9564
63680SOL    HW298281   9.764   5.812   7.830 -0.8734 -0.9314  0.2001
63681SOL     OW98282   9.957   1.586   3.475  0.9153 -0.5534  0.7932
63681SOL    HW198283  10.044   1.585   3.437  0.5039 -0.1573 -0.2033
63681SOL    HW298284   9.958   1.516   3.540  2.2107 -0.0172  1.3732
63682SOL     OW98285   0.827   3.140   4.288 -0.0362  0.3682  0.2942
63682SOL    HW198286   0.821   3.053   4.250 -0.6577  1.5934 -2.6506
63682SOL    HW298287   0.917   3.168   4.273  0.0337  0.4239  0.7949
63683SOL     OW98288   5.215   8.090  10.262 -0.3983  0.2501  0.1555
63683SOL    HW198289   5.126   8.072  10.290 -0.3719 -2.8043 -1.3320
63683SOL    HW298290   5.235   8.020  10.199  2.8638  1.1200  0.0557
63684SOL     OW98291  11.531  11.843   2.033 -0.0167  0.1485  0.4196
63684SOL    HW198292  11.484  11.778   2.085  1.6152 -0.4834  1.1783
63684SOL    HW298293  11.553  11.912   2.096 -0.3547  0.6870 -0.0398
63685SOL     OW98294   2.491   8.907   3.798 -0.6312  0.0376 -0.9248
63685SOL    HW198295   2.512   9.000   3.806 -0.1471 -0.1298 -0.0637
63685SOL    HW298296   2.547   8.875   3.727  3.1851 -0.6601  2.0496
63686SOL     OW98297   5.590   0.020   1.184 -0.0110 -0.2770 -0.2757
63686SOL    HW198298   5.505  -0.016   1.157 -0.2981 -2.1840  2.7081
63686SOL    HW298299   5.654  -0.028   1.132 -0.6775  0.1615 -1.5350
63687SOL     OW98300   5.238  11.427   5.254  0.5271  0.0347  0.5550
63687SOL    HW198301   5.220  11.490   5.323 -1.2893  0.8292 -0.5810
63687SOL    HW298302   5.153  11.412   5.212  1.1048 -2.3326  0.0809
63688SOL     OW98303   2.617   9.494  11.805  0.2245  0.3678 -0.1504
63688SOL    HW198304   2.587   9.556  11.872 -1.0005 -0.5585  0.1884
63688SOL    HW298305   2.560   9.418  11.815  2.3105 -1.2580  0.1056
63689SOL     OW98306   3.175  12.299  11.805 -0.4919  0.1065 -0.4217
63689SOL    HW198307   3.159  12.206  11.789  0.1191 -0.3189  1.2025
63689SOL    HW298308   3.269  12.305  11.820  0.0871  1.5780 -3.7517
63690SOL     OW98309   2.702   9.674  12.704 -0.0350 -0.1148  0.4725
63690SOL    HW198310   2.778   9.650  12.757  0.0183 -2.4029 -0.5249
63690SOL    HW298311   2.627   9.658  12.762  0.0736 -1.7238  0.2255
63691SOL     OW98312   4.266  11.895   5.995  0.5131 -0.3774 -0.1328
63691SOL    HW198313   4.237  11.972   6.043  0.1101 -1.6967  1.8683
63691SOL    HW298314   4.326  11.929   5.929 -1.0150  1.8075 -0.5220
63692SOL     OW98315   9.931   2.449   2.404 -0.5004  0.0692 -0.4018
63692SOL    HW198316   9.844   2.488   2.396 -0.9286 -0.8536 -0.3584
63692SOL    HW298317   9.958   2.430   2.314 -0.2138  0.5960 -0.4370
63693SOL     OW98318   0.838   5.321   0.794 -0.1818  0.0962  0.0224
63693SOL    HW198319   0.926   5.315   0.756  0.8041  1.2108  1.9422
63693SOL    HW298320   0.821   5.415   0.798 -2.1101 -0.1416 -1.6301
63694SOL     OW98321   5.188   0.971   3.177  0.0785  0.2562  0.7228
63694SOL    HW198322   5.095   0.946   3.174  0.2302 -0.3962  1.0999
63694SOL    HW298323   5.234   0.888   3.186  0.6459  0.6344  1.4708
63695SOL     OW98324   4.521   0.567   1.137 -0.6909 -0.0946 -0.0859
63695SOL    HW198325   4.502   0.475   1.117  1.4261 -0.8883  1.1903
63695SOL    HW298326   4.594   0.589   1.079  0.6453 -0.1440  1.4925
63696SOL     OW98327   6.484   5.470   5.588  0.0530  0.6178  0.5586
63696SOL    HW198328   6.432   5.437   5.662 -0.9770 -2.7144 -1.4153
63696SOL    HW298329   6.574   5.469   5.620 -0.3397 -0.8974  1.7595
63697SOL     OW98330   4.617   4.603  11.811 -0.1963 -0.1366  0.4432
63697SOL    HW198331   4.578   4.690  11.807 -0.7124 -0.4071 -2.2001
63697SOL    HW298332   4.546   4.547  11.843 -0.7964 -0.0034 -0.6020
63698SOL     OW98333   8.036   2.936   2.648 -0.0695 -0.6935 -0.9255
63698SOL    HW198334   8.017   2.877   2.575 -1.9303  0.6986 -1.6540
63698SOL    HW298335   8.039   3.023   2.608  1.2505 -0.1184  0.3298
63699SOL     OW98336   8.276  10.813  11.745 -0.4182  0.5134 -0.2705
63699SOL    HW198337   8.360  10.783  11.780 -0.4581  1.4181  0.6361
63699SOL    HW298338   8.221  10.734  11.746 -0.0819  0.2699  0.7082
63700SOL     OW98339  10.551   8.145   9.621 -0.0418  0.4452  0.1369
63700SOL    HW198340  10.575   8.086   9.551 -1.2956  0.5416 -0.4075
63700SOL    HW298341  10.507   8.218   9.577 -1.8482 -0.0136  1.0499
63701SOL     OW98342   7.326   8.669   3.500  0.1147 -0.3568 -0.4062
63701SOL    HW198343   7.274   8.607   3.549 -1.0334  1.2220  0.4712
63701SOL    HW298344   7.368   8.617   3.431 -1.4275 -1.9226 -0.2180
63702SOL     OW98345   7.680   9.087   0.802 -0.3224 -0.1757  0.5049
63702SOL    HW198346   7.686   9.003   0.849 -0.1488 -1.5084 -1.7753
63702SOL    HW298347   7.621   9.069   0.730 -1.0165  1.9767  0.4976
63703SOL     OW98348  11.344  11.960   0.601  0.2259 -0.3109 -0.0354
63703SOL    HW198349  11.410  12.013   0.647  2.4527 -1.7248 -1.3785
63703SOL    HW298350  11.396  11.901   0.547 -2.1839  0.6399 -3.7340
63704SOL     OW98351   3.524  11.276   1.622  0.0625  0.1128  0.0082
63704SOL    HW198352   3.514  11.267   1.716 -0.3471  0.8114  0.0386
63704SOL    HW298353   3.596  11.217   1.599  0.1398 -0.0813  0.7460
63705SOL     OW98354  11.092   1.174   1.061  0.1877 -0.4354 -0.2549
63705SOL    HW198355  11.018   1.126   1.024 -0.7149 -1.1780  2.2988
63705SOL    HW298356  11.132   1.113   1.122 -0.9853  1.8744  3.1464
63706SOL     OW98357   6.751   8.984   5.548  0.3256  0.6367 -1.0050
63706SOL    HW198358   6.838   8.990   5.587 -0.1033  1.8946 -0.1660
63706SOL    HW298359   6.691   8.991   5.623 -0.5055  0.6084 -1.6510
63707SOL     OW98360   8.066   3.357   1.864  0.3044  0.6050  0.5361
63707SOL    HW198361   7.996   3.389   1.920  0.0877 -1.4290  1.5226
63707SOL    HW298362   8.144   3.360   1.920  0.9843  2.4819 -0.4272
63708SOL     OW98363   0.104   9.651   7.213 -0.4350  0.2162  0.0373
63708SOL    HW198364   0.053   9.577   7.246 -1.4103  1.2586  0.9607
63708SOL    HW298365   0.194   9.632   7.238 -0.3419 -1.5428 -1.4047
63709SOL     OW98366  11.478  11.629   6.968 -0.3825  0.6017  0.0176
63709SOL    HW198367  11.495  11.619   6.874  1.2702 -0.2154  0.3709
63709SOL    HW298368  11.480  11.540   7.003  2.6913  1.0646  1.3645
63710SOL     OW98369  10.021   8.293   3.118  0.3462  0.5253 -0.0580
63710SOL    HW198370   9.965   8.330   3.186  0.7384 -0.0518  0.5893
63710SOL    HW298371   9.982   8.323   3.036  1.1112  3.0782  0.4210
63711SOL     OW98372   9.278  11.641   1.738  0.1653 -0.0863  0.0919
63711SOL    HW198373   9.267  11.621   1.645 -0.4202 -1.1069  0.3687
63711SOL    HW298374   9.190  11.636   1.774  0.3118  0.8334  0.6133
63712SOL     OW98375   8.067   9.900   6.893 -0.2072 -0.0165  0.0421
63712SOL    HW198376   8.099   9.838   6.827 -0.1993 -0.8775  0.8259
63712SOL    HW298377   8.147   9.942   6.927 -0.0319 -0.9177  0.7867
63713SOL     OW98378   8.164  12.290   9.144  0.2478 -0.2454  0.1399
63713SOL    HW198379   8.070  12.282   9.156  0.4188 -0.0436  1.8469
63713SOL    HW298380   8.176  12.297   9.049 -1.6442  1.8833 -0.0276
63714SOL     OW98381   5.319   7.613   5.967  0.5052  0.1747  0.4230
63714SOL    HW198382   5.363   7.573   5.892 -0.7578  1.9790 -1.3936
63714SOL    HW298383   5.390   7.647   6.021  1.4580 -1.4550  0.2857
63715SOL     OW98384   0.352   7.031   8.212 -0.1646 -0.1834 -0.4952
63715SOL    HW198385   0.347   7.126   8.204 -0.7098 -0.2092 -0.4929
63715SOL    HW298386   0.269   7.005   8.252 -0.8539 -0.8497 -2.2569
63716SOL     OW98387   5.415   8.415   3.858 -0.6535 -0.1450 -0.1361
63716SOL    HW198388   5.402   8.327   3.821  0.8393  0.4501 -2.2000
63716SOL    HW298389   5.501   8.442   3.827 -0.7214  1.7478  1.1701
63717SOL     OW98390   3.056   4.842   9.377 -0.2882  0.0505  0.3278
63717SOL    HW198391   2.990   4.898   9.334  0.4752  0.6848 -0.0438
63717SOL    HW298392   3.039   4.754   9.342 -1.3319  0.0826  0.7126
63718SOL     OW98393   7.531   0.257   5.380 -0.0910 -0.1716 -0.1177
63718SOL    HW198394   7.449   0.220   5.413 -0.5115  0.4287 -0.4765
63718SOL    HW298395   7.557   0.321   5.447 -1.4063  1.6941 -1.3061
63719SOL     OW98396   1.902  12.445   9.213 -0.1572  0.0288  0.0311
63719SOL    HW198397   1.931  12.512   9.152  0.2499  1.0070  1.2417
63719SOL    HW298398   1.817  12.476   9.245 -1.8489 -1.9662 -2.1987
63720SOL     OW98399   1.155  11.035   2.752  0.0856  0.1708 -0.6292
63720SOL    HW198400   1.221  11.100   2.728  1.2399 -0.4903  0.5847
63720SOL    HW298401   1.202  10.951   2.748 -0.4862 -0.2555  0.8474
63721SOL     OW98402  10.624   9.712   2.532 -0.2348 -0.2763 -0.2637
63721SOL    HW198403  10.705   9.687   2.488  0.0175 -0.6996  0.4150
63721SOL    HW298404  10.607   9.640   2.593 -1.1424 -0.2067 -0.4208
63722SOL     OW98405  12.306   4.124   4.165 -0.1350 -0.2473  0.0696
63722SOL    HW198406  12.283   4.057   4.230 -0.0685 -1.0903 -0.7426
63722SOL    HW298407  12.222   4.159   4.136 -0.1505  0.4018  0.8696
63723SOL     OW98408   7.495  10.118   8.346 -0.3170 -0.2822  0.1238
63723SOL    HW198409   7.498  10.138   8.439 -1.0178  1.4519 -0.1842
63723SOL    HW298410   7.576  10.156   8.310  0.2301 -1.4357  0.0842
63724SOL     OW98411   9.841   7.660  11.215 -0.1999 -0.3440 -0.3486
63724SOL    HW198412   9.916   7.719  11.227 -1.1605  0.7416  0.5368
63724SOL    HW298413   9.829   7.656  11.120  0.5651  0.0108 -0.4706
63725SOL     OW98414   4.308   6.143  11.841  0.1305 -0.1864  0.2959
63725SOL    HW198415   4.297   6.214  11.904 -1.0517 -0.6022  0.5693
63725SOL    HW298416   4.274   6.066  11.886 -0.0109 -0.6362 -0.5719
63726SOL     OW98417   1.462   9.615   3.564 -0.2599 -0.0493  0.0291
63726SOL    HW198418   1.468   9.711   3.560  1.0060 -0.0862  0.6975
63726SOL    HW298419   1.460   9.588   3.473  3.5806  0.4144 -0.3360
63727SOL     OW98420   9.112   7.722   9.620  0.0880  0.2390  0.2156
63727SOL    HW198421   9.157   7.806   9.617 -0.1125  0.3951  1.1205
63727SOL    HW298422   9.029   7.737   9.575  0.5058  0.2232 -0.5752
63728SOL     OW98423   6.916   7.764   7.559 -0.3519 -0.2729 -0.3387
63728SOL    HW198424   6.854   7.790   7.628 -0.2117  2.2574 -1.0646
63728SOL    HW298425   6.868   7.780   7.477 -0.1475 -2.2550 -0.8993
63729SOL     OW98426  10.186   1.965   0.538 -0.8025 -0.2509  0.1867
63729SOL    HW198427  10.238   1.977   0.459 -0.1437 -3.4121 -0.0028
63729SOL    HW298428  10.142   2.049   0.552  0.2821  0.8770 -2.6157
63730SOL     OW98429   6.866   6.637   3.416 -0.1609  0.6109  0.1596
63730SOL    HW198430   6.941   6.583   3.392  0.1306  0.7473  0.7737
63730SOL    HW298431   6.869   6.644   3.511 -1.7224 -0.5208  0.3403
63731SOL     OW98432   2.060   6.106   0.763  0.3849 -0.2087 -0.1396
63731SOL    HW198433   2.069   6.157   0.844  0.0041 -0.3708  0.0043
63731SOL    HW298434   1.968   6.080   0.761  0.5127 -0.6395 -0.3645
63732SOL     OW98435   5.184   7.236   9.675  0.1214 -0.2183  0.5366
63732SOL    HW198436   5.251   7.196   9.731  0.4771 -2.2842 -1.2414
63732SOL    HW298437   5.175   7.176   9.601  0.1895  2.7070 -2.0458
63733SOL     OW98438   6.499   3.624   7.983  0.0112 -0.0774 -0.4710
63733SOL    HW198439   6.478   3.692   7.919 -0.9725  1.5943  1.5177
63733SOL    HW298440   6.594   3.614   7.978  0.2291  1.7604 -0.5563
63734SOL     OW98441   1.338  10.507   3.521  0.1698  0.2965 -0.2282
63734SOL    HW198442   1.292  10.440   3.572  1.9379 -0.1469  0.8868
63734SOL    HW298443   1.352  10.465   3.436  1.0332 -0.7182  0.3733
63735SOL     OW98444   2.475   3.433   9.635 -0.4338 -0.0321 -0.0340
63735SOL    HW198445   2.430   3.413   9.553  0.8421  1.3944 -1.1254
63735SOL    HW298446   2.553   3.482   9.609  0.9356 -1.0490  1.9165
63736SOL     OW98447   5.657   7.599   1.060 -0.6004  0.2066 -0.6777
63736SOL    HW198448   5.587   7.561   1.113  1.2434 -0.8802  1.1070
63736SOL    HW298449   5.737   7.557   1.091  1.0241  2.2547 -1.7913
63737SOL     OW98450   3.535   9.909  12.637  0.5356 -0.3627 -0.3943
63737SOL    HW198451   3.538   9.896  12.542 -0.7519 -0.2935 -0.4578
63737SOL    HW298452   3.592   9.985  12.652 -1.1575  1.1944 -1.4333
63738SOL     OW98453   2.434   2.250   1.838  0.5045 -0.3318  0.1143
63738SOL    HW198454   2.441   2.325   1.897 -1.5763  0.0561 -0.0503
63738SOL    HW298455   2.473   2.281   1.756 -1.2111  1.0014 -0.2732
63739SOL     OW98456   6.252   3.051   3.406 -0.2748  0.3432  0.0574
63739SOL    HW198457   6.233   3.063   3.499 -2.0472 -1.7723  0.0351
63739SOL    HW298458   6.220   2.963   3.385 -0.1427  0.8302 -2.6127
63740SOL     OW98459   8.944   0.507   3.262  0.5380  0.3562  0.2616
63740SOL    HW198460   8.947   0.420   3.301 -1.6706 -0.1745 -0.5833
63740SOL    HW298461   8.987   0.564   3.326  0.5239 -1.0872  1.6098
63741SOL     OW98462   6.027  11.598   2.459  0.2789  0.5654  0.3208
63741SOL    HW198463   6.035  11.532   2.391  1.2409  2.3813 -1.4610
63741SOL    HW298464   5.953  11.570   2.512  0.5390 -1.7887 -0.4522
63742SOL     OW98465  12.086   4.231  12.601  0.3088  0.6108 -0.1538
63742SOL    HW198466  12.080   4.171  12.527  0.5777  1.7267 -1.1121
63742SOL    HW298467  11.997   4.265  12.613  0.2656  0.4321  0.0421
63743SOL     OW98468   4.700   9.737   8.444  0.2435 -0.0082 -0.0779
63743SOL    HW198469   4.706   9.832   8.445  1.3710 -0.0679  1.6919
63743SOL    HW298470   4.606   9.719   8.448  0.0251  1.0170 -0.3205
63744SOL     OW98471   5.937  10.317   4.595 -0.6379  0.9076 -0.3217
63744SOL    HW198472   5.891  10.288   4.673 -0.7544  1.2732 -0.2549
63744SOL    HW298473   5.904  10.405   4.578 -0.0761  1.1176 -0.3613
63745SOL     OW98474   0.717   6.065   0.143  0.2703  0.0601  0.4720
63745SOL    HW198475   0.639   6.060   0.089  1.2138  1.6706 -1.1605
63745SOL    HW298476   0.711   6.150   0.186  1.0221  0.1241  0.4740
63746SOL     OW98477   5.166  11.446   3.096  0.9568  0.5076 -0.3085
63746SOL    HW198478   5.098  11.513   3.093  0.3881 -0.0890 -1.2667
63746SOL    HW298479   5.123  11.369   3.135  1.3497  0.4219 -0.0357
63747SOL     OW98480  10.708   6.216   1.507  0.1523 -0.1416  0.3070
63747SOL    HW198481  10.667   6.193   1.590  0.9872  1.9775  1.3975
63747SOL    HW298482  10.666   6.298   1.481  2.0611  0.8956  0.3016
63748SOL     OW98483  11.626   3.021  11.795 -0.2515  0.5116 -0.3002
63748SOL    HW198484  11.700   3.020  11.733  0.3328 -1.2547  0.3642
63748SOL    HW298485  11.668   3.027  11.881 -1.0473  2.6873  0.0081
63749SOL     OW98486   7.266   3.537   0.545  0.2928  0.3033 -0.3565
63749SOL    HW198487   7.300   3.626   0.543  0.3278  0.3027  0.0059
63749SOL    HW298488   7.291   3.504   0.632 -1.1637  0.5217  0.1746
63750SOL     OW98489   7.625   0.810   8.704  0.2214  0.0347 -0.5639
63750SOL    HW198490   7.604   0.786   8.794  0.3494 -0.4973 -0.6749
63750SOL    HW298491   7.711   0.852   8.709  0.5285 -0.5817 -0.5176
63751SOL     OW98492   9.253   6.570  12.069  0.4987 -0.2833  0.2730
63751SOL    HW198493   9.339   6.529  12.075 -0.0193 -1.8377 -1.8101
63751SOL    HW298494   9.213   6.554  12.155  2.2870  0.6179  1.3351
63752SOL     OW98495  10.937   6.212   8.021  0.2013 -0.0159  0.0495
63752SOL    HW198496  10.963   6.278   7.956 -1.1579 -0.2727 -0.8037
63752SOL    HW298497  11.017   6.162   8.038  0.5489 -0.0957 -1.6403
63753SOL     OW98498   2.398   3.470   7.406  0.1197 -0.4803  0.5876
63753SOL    HW198499   2.318   3.474   7.354  1.1953 -0.3652 -1.1400
63753SOL    HW298500   2.368   3.450   7.495 -1.7983 -0.5757 -0.0347
63754SOL     OW98501   9.525   8.652   0.344 -0.5650 -0.5943  0.3531
63754SOL    HW198502   9.537   8.731   0.291 -0.3759 -0.6147  0.3635
63754SOL    HW298503   9.596   8.656   0.408  0.6814 -1.7905 -0.8836
63755SOL     OW98504  11.672  10.656   2.713 -0.0834 -0.1175  0.0997
63755SOL    HW198505  11.664  10.566   2.681  1.2218  0.3234 -1.5860
63755SOL    HW298506  11.644  10.710   2.639  1.6103  0.9073  0.1745
63756SOL     OW98507  10.731   2.614   1.338  0.6593 -0.7445  0.5663
63756SOL    HW198508  10.715   2.597   1.431 -1.9401 -1.4137  0.0788
63756SOL    HW298509  10.658   2.572   1.293  1.2591  0.4774 -1.7193
63757SOL     OW98510   5.046   0.347   5.739  0.4014  0.5202 -0.3465
63757SOL    HW198511   5.085   0.274   5.787  0.6199 -0.0625 -1.3642
63757SOL    HW298512   5.006   0.306   5.662 -2.3810  1.0816  0.6866
63758SOL     OW98513  12.170   3.930   2.343  0.5164  0.5376 -0.3261
63758SOL    HW198514  12.251   3.926   2.292  1.1794 -1.6628  0.7926
63758SOL    HW298515  12.126   3.846   2.325 -1.4210  1.5729 -0.7012
63759SOL     OW98516   6.646  10.924   1.315  0.1833  0.5483 -0.3823
63759SOL    HW198517   6.669  10.834   1.336 -0.0801  0.2632 -1.2491
63759SOL    HW298518   6.720  10.976   1.347  0.1848  0.0695  0.4192
63760SOL     OW98519   4.767   3.010   0.733  0.1505 -0.0744  0.0327
63760SOL    HW198520   4.773   2.920   0.764  0.1313  0.2055  0.8552
63760SOL    HW298521   4.722   3.003   0.649  0.1786 -0.8318  0.0735
63761SOL     OW98522  11.276   1.824   4.535 -0.1480 -0.7367 -0.5642
63761SOL    HW198523  11.250   1.739   4.570 -0.3001  0.2077  1.8197
63761SOL    HW298524  11.194   1.864   4.507 -0.5054 -0.3068  0.9678
63762SOL     OW98525   6.953   6.480   0.178 -0.5019 -0.4948  0.2151
63762SOL    HW198526   6.891   6.529   0.232  0.3773  0.5873  0.2975
63762SOL    HW298527   7.021   6.452   0.240 -1.0960 -2.0616  0.2079
63763SOL     OW98528   7.235   6.210  10.231  0.1492 -0.2625  0.1453
63763SOL    HW198529   7.147   6.228  10.199  0.0267 -1.0932  0.0058
63763SOL    HW298530   7.271   6.297  10.251  0.2596  0.3415 -2.2953
63764SOL     OW98531   1.476   1.961  10.480  0.2581 -0.9286  0.0919
63764SOL    HW198532   1.461   2.006  10.563  3.3708 -1.3904  1.0342
63764SOL    HW298533   1.419   1.884  10.484 -0.7159 -0.1823  1.1045
63765SOL     OW98534   4.993  11.302   0.184 -0.4347  0.5716 -0.3794
63765SOL    HW198535   5.059  11.266   0.244 -1.5565  0.5473  0.8904
63765SOL    HW298536   4.973  11.389   0.220 -0.8312  0.7297 -0.9623
63766SOL     OW98537  10.391   7.802   0.666  0.0303 -0.0671 -0.6345
63766SOL    HW198538  10.300   7.793   0.694  0.6328 -1.4952  0.9827
63766SOL    HW298539  10.394   7.887   0.622 -2.1381 -0.1291 -0.9896
63767SOL     OW98540   1.065   4.288   8.976 -0.5044 -0.2818  0.1143
63767SOL    HW198541   0.999   4.338   8.928  1.2464  0.8620 -1.2456
63767SOL    HW298542   1.053   4.197   8.948 -1.2773 -0.0347 -0.3641
63768SOL     OW98543   8.184   4.141   0.668 -0.3200  0.0794  0.4580
63768SOL    HW198544   8.239   4.155   0.591  0.2835  1.6631  1.1204
63768SOL    HW298545   8.097   4.123   0.632  0.0968  0.0529 -0.5878
63769SOL     OW98546   8.945   3.741   3.979  0.1814 -0.2737 -0.2976
63769SOL    HW198547   8.974   3.717   3.891  0.3776 -1.1294 -0.0050
63769SOL    HW298548   9.026   3.753   4.028  0.1121  1.5355 -0.5568
63770SOL     OW98549   8.559   9.029   0.569  0.2008  0.1498 -0.1520
63770SOL    HW198550   8.489   8.963   0.574  0.3274 -0.0966 -1.3480
63770SOL    HW298551   8.611   9.002   0.493  1.9483 -0.0039  1.0434
63771SOL     OW98552   5.241   9.905   0.547 -0.3792 -0.1969 -0.0291
63771SOL    HW198553   5.219   9.814   0.527  3.0127 -1.3100  0.6681
63771SOL    HW298554   5.256   9.906   0.641 -2.2255  1.6383  0.3316
63772SOL     OW98555   3.456   3.071   0.383 -0.6074  1.0742 -0.8442
63772SOL    HW198556   3.479   2.998   0.326 -1.6815  1.5363 -1.9045
63772SOL    HW298557   3.539   3.115   0.401  0.5071 -1.6549  1.7175
63773SOL     OW98558   2.722   8.043   2.586  0.2905 -0.4912 -0.4588
63773SOL    HW198559   2.808   8.003   2.571  0.1153 -1.1855  0.3607
63773SOL    HW298560   2.681   7.989   2.653 -0.6808  0.0052 -0.6334
63774SOL     OW98561   3.276   9.672   5.269  0.2251 -0.3937  0.4338
63774SOL    HW198562   3.249   9.607   5.204 -2.4118 -0.6448  1.6505
63774SOL    HW298563   3.268   9.627   5.353 -0.4738  1.1111  1.2204
63775SOL     OW98564   2.451   0.298   8.840 -0.0615  0.0150 -0.4804
63775SOL    HW198565   2.399   0.260   8.770 -0.2783 -0.8600  0.1342
63775SOL    HW298566   2.494   0.223   8.882  3.4232  0.8422 -2.2563
63776SOL     OW98567  10.602   8.706   7.751 -0.1697  0.0208  0.0985
63776SOL    HW198568  10.537   8.774   7.774  0.1264  0.3971 -0.1570
63776SOL    HW298569  10.558   8.624   7.772  0.0800  0.3188  2.0536
63777SOL     OW98570  10.213   8.806   9.234  0.2979 -0.1868  0.3110
63777SOL    HW198571  10.305   8.782   9.245  0.0133 -1.2088  0.5126
63777SOL    HW298572  10.164   8.732   9.270 -0.6152 -0.4692 -1.3941
63778SOL     OW98573   0.103   5.172   3.884  0.1225  0.4841  0.0016
63778SOL    HW198574   0.106   5.182   3.979 -0.0640  0.4744  0.0075
63778SOL    HW298575   0.168   5.235   3.852  1.7904 -1.0082  0.2417
63779SOL     OW98576   8.217   3.096  11.793 -0.1518  0.2788  0.5923
63779SOL    HW198577   8.177   3.054  11.869 -0.2004 -1.6358 -0.4388
63779SOL    HW298578   8.289   3.148  11.829 -1.5888  1.2754  2.1512
63780SOL     OW98579   8.652   2.448   1.887  0.3438 -0.2015 -0.1983
63780SOL    HW198580   8.661   2.528   1.834 -1.8148 -0.5048 -1.1494
63780SOL    HW298581   8.642   2.481   1.977 -1.2207  0.7038 -0.6567
63781SOL     OW98582  12.338   4.354   4.379  0.5830 -0.2880 -0.6769
63781SOL    HW198583  12.356   4.278   4.435 -0.5855 -1.3345 -1.6284
63781SOL    HW298584  12.242   4.353   4.369  0.4742  1.7869 -0.0976
63782SOL     OW98585  11.167   8.390  11.408  0.1647  0.0541 -0.0977
63782SOL    HW198586  11.147   8.479  11.379  2.4129  1.0838  1.1958
63782SOL    HW298587  11.131   8.384  11.496  0.5128 -0.1010  0.0380
63783SOL     OW98588   8.846  11.034  10.434 -0.8301 -0.4911 -0.3702
63783SOL    HW198589   8.928  10.992  10.409 -0.1287  0.1565  0.7480
63783SOL    HW298590   8.831  11.100  10.366 -0.2094 -0.3487 -0.3787
63784SOL     OW98591   6.825   0.074   2.798 -0.4739 -0.2575  0.3366
63784SOL    HW198592   6.750   0.028   2.762 -0.9232 -0.6901  1.7626
63784SOL    HW298593   6.843   0.030   2.881 -0.1203  1.3145  1.1310
63785SOL     OW98594   6.711   3.517   2.109 -0.3154 -0.5437 -0.0222
63785SOL    HW198595   6.637   3.472   2.150 -0.5183  0.4847  0.7958
63785SOL    HW298596   6.721   3.598   2.160  2.3536 -1.3418  0.9079
63786SOL     OW98597   3.750   9.587   8.181  0.3612  0.1956 -0.0038
63786SOL    HW198598   3.671   9.537   8.201  0.9429 -0.5506  0.4721
63786SOL    HW298599   3.818   9.522   8.167  1.6585  0.7672  2.7788
63787SOL     OW98600  12.455   3.598  10.031 -0.0497  0.0200  0.2157
63787SOL    HW198601  12.489   3.594   9.941  0.7455  3.4800  0.2269
63787SOL    HW298602  12.379   3.656  10.025 -0.4530 -0.3320  1.6738
63788SOL     OW98603   3.860   0.811   4.034 -0.0385 -0.2059 -0.4433
63788SOL    HW198604   3.906   0.835   4.114  0.2467 -0.5611 -0.4931
63788SOL    HW298605   3.847   0.893   3.987  0.4092 -0.0803 -0.3515
63789SOL     OW98606   2.628   8.734   1.401 -1.1550  0.4943 -0.0292
63789SOL    HW198607   2.643   8.768   1.313  1.2453 -1.4271 -0.4612
63789SOL    HW298608   2.699   8.771   1.453 -1.2891 -0.0967  0.5854
63790SOL     OW98609   8.051   3.392  12.134  0.6942 -0.7768 -0.7577
63790SOL    HW198610   8.039   3.311  12.184  1.6396 -0.2790  0.3570
63790SOL    HW298611   8.034   3.461  12.198  0.5615 -0.1043 -1.5150
63791SOL     OW98612  10.085  12.037   5.805  0.1979 -0.2660  0.2916
63791SOL    HW198613  10.151  12.071   5.744 -0.6096 -0.1445 -0.5374
63791SOL    HW298614  10.119  12.060   5.892  2.2952 -2.0710  0.0506
63792SOL     OW98615  11.827   1.093   5.099 -0.3639 -0.0094 -0.1590
63792SOL    HW198616  11.775   1.069   5.176 -0.5896 -0.4951 -0.4633
63792SOL    HW298617  11.905   1.136   5.135 -1.0878  0.9607  0.2918
63793SOL     OW98618   0.236  12.159   0.118 -0.1988  0.1271 -0.4015
63793SOL    HW198619   0.326  12.127   0.127  0.1580  1.1987  0.0322
63793SOL    HW298620   0.185  12.106   0.179  0.7342  1.6970  1.8699
63794SOL     OW98621  11.604   4.249   1.635 -0.2056 -0.1838  0.2910
63794SOL    HW198622  11.615   4.296   1.718  1.1986 -0.2863  0.1887
63794SOL    HW298623  11.616   4.317   1.568 -0.9671 -0.1728  0.1568
63795SOL     OW98624   5.261   4.990   7.325 -0.0717  0.3932 -0.4815
63795SOL    HW198625   5.190   4.926   7.322 -0.9656  1.2733  0.8351
63795SOL    HW298626   5.336   4.944   7.287 -0.6187 -1.5242  0.6021
63796SOL     OW98627   1.194   8.492   7.041 -0.3015 -0.0277  0.4978
63796SOL    HW198628   1.181   8.399   7.059  1.5053  0.0267  2.4406
63796SOL    HW298629   1.105   8.529   7.042 -0.8532 -1.2494  2.8630
63797SOL     OW98630   5.261   8.223   5.362 -0.3402  0.0725 -0.1029
63797SOL    HW198631   5.231   8.134   5.344  0.1666 -0.0324 -0.4741
63797SOL    HW298632   5.297   8.253   5.278 -2.1396  1.3005 -0.4731
63798SOL     OW98633   1.616   9.508   1.562  0.0889  0.0381  0.2060
63798SOL    HW198634   1.701   9.551   1.560 -0.9744  2.3119 -0.2852
63798SOL    HW298635   1.609   9.472   1.650  1.2328  0.5048  0.5053
63799SOL     OW98636   4.164  10.399   7.660 -0.0308 -0.8430  0.1474
63799SOL    HW198637   4.156  10.307   7.634 -1.7757 -0.7365  0.1600
63799SOL    HW298638   4.101  10.445   7.604 -0.8064 -0.0020  1.6353
63800SOL     OW98639   7.610   1.470  10.572 -0.2179  0.1889 -0.2928
63800SOL    HW198640   7.641   1.442  10.486  0.9727 -0.8944  0.4512
63800SOL    HW298641   7.545   1.404  10.596 -1.3398  1.0757 -0.7768
63801SOL     OW98642   1.146   2.862   8.317 -0.1215  0.1310 -1.5650
63801SOL    HW198643   1.238   2.887   8.310  0.0408  1.0077  1.7770
63801SOL    HW298644   1.098   2.942   8.297 -0.4159 -0.8551 -5.5390
63802SOL     OW98645   0.837   4.647   1.898  0.1649 -0.4678 -0.1939
63802SOL    HW198646   0.764   4.687   1.852 -0.3118 -1.2718 -0.1589
63802SOL    HW298647   0.809   4.644   1.990  0.5554 -0.1014 -0.0562
63803SOL     OW98648   3.681   7.043   8.242 -0.0164 -0.1893 -0.4336
63803SOL    HW198649   3.754   6.985   8.262  0.5879  0.2637 -1.2369
63803SOL    HW298650   3.622   7.035   8.316  0.4221 -1.2453 -0.1853
63804SOL     OW98651   8.611   4.259   2.193 -0.5848 -0.2943  0.5781
63804SOL    HW198652   8.546   4.329   2.196  0.3005  0.5847  0.2153
63804SOL    HW298653   8.689   4.297   2.233  0.3881 -0.5282 -0.9889
63805SOL     OW98654   1.357   7.124   7.529  0.1909 -0.1180 -0.2439
63805SOL    HW198655   1.286   7.109   7.467 -0.6278 -1.2890  0.9442
63805SOL    HW298656   1.436   7.119   7.476 -0.5782  1.1369 -1.5746
63806SOL     OW98657   4.296   1.407   6.257 -0.0170  0.1292  0.2619
63806SOL    HW198658   4.230   1.337   6.260  1.1936 -1.0569  0.4583
63806SOL    HW298659   4.246   1.486   6.239 -1.7042 -0.4238  2.0898
63807SOL     OW98660   4.382  10.421   5.649  0.2143  0.0121  0.5649
63807SOL    HW198661   4.338  10.506   5.654  0.3181  0.4966 -3.3417
63807SOL    HW298662   4.473  10.442   5.629  0.2774 -0.9993 -0.2945
63808SOL     OW98663   6.291  11.849   1.901 -0.1064  0.3138 -0.6249
63808SOL    HW198664   6.238  11.918   1.861 -1.4505 -0.1053  0.3810
63808SOL    HW298665   6.300  11.875   1.992  0.0998 -0.4325 -0.4298
63809SOL     OW98666   5.399   5.993   0.715  0.0217  0.1570  0.3946
63809SOL    HW198667   5.410   5.991   0.810 -0.7470 -2.0782  0.4867
63809SOL    HW298668   5.433   5.909   0.685 -0.4749  0.5084 -1.2230
63810SOL     OW98669   7.865  10.643  12.032  0.4704 -0.2070 -0.0727
63810SOL    HW198670   7.829  10.633  12.120 -1.2644 -0.3185 -0.7609
63810SOL    HW298671   7.934  10.708  12.043  0.1956 -0.1004  1.3489
63811SOL     OW98672   4.376  11.150   3.155 -0.4661 -0.5035 -0.2915
63811SOL    HW198673   4.297  11.110   3.120 -0.1315  0.7660 -2.6945
63811SOL    HW298674   4.414  11.198   3.081 -0.0785  3.0256  1.9626
63812SOL     OW98675  10.741   9.158   9.835  0.0141  0.1174  0.1577
63812SOL    HW198676  10.756   9.228   9.899 -0.5804  0.3418  0.0522
63812SOL    HW298677  10.801   9.178   9.764  0.8965 -0.2964  0.7616
63813SOL     OW98678  11.214   0.342   8.887  0.0908 -0.2789  0.2196
63813SOL    HW198679  11.119   0.355   8.885  0.2650  1.0881 -0.0423
63813SOL    HW298680  11.239   0.363   8.977  0.2824  0.4340  0.0002
63814SOL     OW98681   6.626   8.302   8.933  0.1405 -0.1449  0.4941
63814SOL    HW198682   6.541   8.267   8.961  0.0604 -1.4177 -1.2180
63814SOL    HW298683   6.656   8.243   8.864  0.4384  2.6135 -1.9566
63815SOL     OW98684   8.600   5.207   5.123 -0.1248 -0.3498 -0.3780
63815SOL    HW198685   8.594   5.184   5.216 -1.8904 -1.6392 -0.7535
63815SOL    HW298686   8.633   5.129   5.080  3.1575  1.0297 -0.6238
63816SOL     OW98687   1.331   6.394   0.982 -0.5568 -0.3247 -0.2858
63816SOL    HW198688   1.424   6.398   1.000 -0.7508 -0.0743  0.7389
63816SOL    HW298689   1.324   6.349   0.898  0.5258  0.5055 -0.8473
63817SOL     OW98690   8.252   0.310  12.339  0.2017 -0.2764 -0.6559
63817SOL    HW198691   8.216   0.232  12.298  0.2563 -1.0143  0.6821
63817SOL    HW298692   8.330   0.330  12.287 -0.4838 -0.3636 -1.7587
63818SOL     OW98693   3.821   1.270   9.676  0.0191 -0.1414  0.3752
63818SOL    HW198694   3.771   1.326   9.734 -0.1664  0.3073 -0.2013
63818SOL    HW298695   3.758   1.243   9.609  0.3871 -0.0995  0.0066
63819SOL     OW98696   0.103   0.893  12.118  0.1005  0.2161 -0.0125
63819SOL    HW198697   0.179   0.888  12.177 -0.3170  1.0802  0.6325
63819SOL    HW298698   0.081   0.986  12.117 -1.6192 -0.1400  0.6962
63820SOL     OW98699  11.902   8.013   0.870  0.5873  0.9785 -0.4217
63820SOL    HW198700  11.818   7.994   0.912  0.6756  1.0486 -0.2095
63820SOL    HW298701  11.884   8.011   0.776  0.2641  1.3976 -0.3661
63821SOL     OW98702   1.472  12.633   5.462  0.4500 -0.5099  0.1361
63821SOL    HW198703   1.457  12.712   5.515 -0.4727  0.7481 -1.8661
63821SOL    HW298704   1.523  12.664   5.387  1.8213 -2.2518  0.2863
63822SOL     OW98705   3.146   6.805   1.369  0.0642  0.1742 -0.2246
63822SOL    HW198706   3.175   6.723   1.409  0.2891 -0.0289 -0.7953
63822SOL    HW298707   3.100   6.851   1.440 -0.3728 -0.5962 -0.0010
63823SOL     OW98708   2.761   3.377   7.903 -0.1754  1.0774  0.5376
63823SOL    HW198709   2.841   3.402   7.856 -1.4695  2.1329 -1.2326
63823SOL    HW298710   2.690   3.418   7.853 -1.9312 -0.7879  1.3650
63824SOL     OW98711   3.727   0.119   2.697  0.5989  0.0800 -0.0644
63824SOL    HW198712   3.710   0.062   2.771 -0.2326  1.7352  1.0946
63824SOL    HW298713   3.661   0.095   2.632 -1.9030  1.7569  1.6654
63825SOL     OW98714   7.514   3.219  10.926  0.0168  0.6308 -0.6740
63825SOL    HW198715   7.449   3.288  10.934  2.0610  2.6611 -0.5774
63825SOL    HW298716   7.541   3.222  10.834 -0.5547 -0.7305 -0.9062
63826SOL     OW98717   0.950   8.017   7.434 -0.5967  0.5453  0.3778
63826SOL    HW198718   0.895   8.087   7.469 -0.2317  0.9033  0.2454
63826SOL    HW298719   1.009   7.994   7.506 -1.0121  0.0642  0.5656
63827SOL     OW98720   0.066   8.409  11.208  0.6159 -0.6934  0.2953
63827SOL    HW198721   0.007   8.403  11.132 -0.7340 -1.8406  1.3963
63827SOL    HW298722   0.093   8.501  11.209 -0.7867 -0.2414 -0.5222
63828SOL     OW98723  11.884   0.984   4.339 -0.1215 -0.3460 -0.0770
63828SOL    HW198724  11.821   0.917   4.364 -0.0510 -0.4693 -0.2323
63828SOL    HW298725  11.934   1.000   4.419 -0.2155 -0.3927 -0.0083
63829SOL     OW98726   6.905   4.876  11.440  0.2441  0.4947 -0.4125
63829SOL    HW198727   6.972   4.811  11.418 -0.5127  0.1116 -1.6847
63829SOL    HW298728   6.877   4.852  11.528  0.1163 -0.8257 -0.7796
63830SOL     OW98729   3.222   3.998   5.743 -0.3380  0.3541  0.5507
63830SOL    HW198730   3.208   3.953   5.660  0.4107 -1.6333  1.4442
63830SOL    HW298731   3.316   3.990   5.759 -0.2714  1.8082  1.0172
63831SOL     OW98732   1.996  12.085   5.616 -0.5498  0.0463 -0.3373
63831SOL    HW198733   2.048  12.165   5.614 -2.6024  1.5237  1.0588
63831SOL    HW298734   1.936  12.097   5.690 -1.2592 -2.5994 -0.3730
63832SOL     OW98735   6.993  10.813   4.325 -0.7939  0.0431  0.1822
63832SOL    HW198736   6.917  10.866   4.303 -0.2567  0.0980 -1.6489
63832SOL    HW298737   7.045  10.811   4.245  0.6828 -0.7559  1.1266
63833SOL     OW98738   3.393  10.336  11.107 -0.2986  0.1465 -0.0585
63833SOL    HW198739   3.350  10.327  11.022 -1.1861  1.2396  0.2453
63833SOL    HW298740   3.322  10.328  11.171  0.1735  0.5110  0.5239
63834SOL     OW98741   2.089  11.064   1.859  0.3280  0.0584 -0.3223
63834SOL    HW198742   2.052  10.979   1.836  1.2015 -0.4668  0.1334
63834SOL    HW298743   2.144  11.046   1.936 -1.7169  1.5453  1.6164
63835SOL     OW98744   6.427  12.413   8.911 -0.0666 -0.5236 -0.4042
63835SOL    HW198745   6.435  12.466   8.990  0.2771 -1.4332  0.1765
63835SOL    HW298746   6.503  12.436   8.858  0.7820 -1.3772  0.4206
63836SOL     OW98747   6.848  12.283   3.833 -0.5798 -0.2940  0.3910
63836SOL    HW198748   6.873  12.341   3.905 -0.7562  0.9349 -0.5148
63836SOL    HW298749   6.908  12.307   3.762  0.0223 -1.9347  0.3084
63837SOL     OW98750  12.138   7.518   9.359 -0.1604  0.2637  0.0905
63837SOL    HW198751  12.086   7.441   9.381 -1.4030  1.3951  1.3354
63837SOL    HW298752  12.211   7.516   9.422  0.7863 -0.7810 -0.9992
63838SOL     OW98753   6.015   5.379  12.020 -0.0924 -0.0714 -0.2479
63838SOL    HW198754   6.067   5.298  12.023 -1.2344 -0.8213  2.0101
63838SOL    HW298755   6.046   5.430  12.095 -0.5602  0.8211 -0.6493
63839SOL     OW98756   1.100   5.811  11.318  0.2677  0.0686  0.0812
63839SOL    HW198757   1.188   5.816  11.281 -1.0259  0.1795 -3.3303
63839SOL    HW298758   1.058   5.892  11.291 -1.7555 -1.2715 -0.9801
63840SOL     OW98759  10.495   3.134   4.590  0.0837 -0.1710 -0.0036
63840SOL    HW198760  10.542   3.092   4.663 -1.0224 -0.2962  0.6491
63840SOL    HW298761  10.523   3.225   4.594  4.1324 -1.0166 -2.6873
63841SOL     OW98762   6.298   1.613   8.783  0.4850 -0.2089 -0.2456
63841SOL    HW198763   6.251   1.565   8.715 -1.3687 -1.8281  2.0301
63841SOL    HW298764   6.264   1.578   8.866  3.7983  0.4414  1.5900
63842SOL     OW98765   1.541   6.834   0.374  0.2436 -0.0167  0.0023
63842SOL    HW198766   1.577   6.900   0.315  1.8145  0.3629  1.3211
63842SOL    HW298767   1.480   6.784   0.319  1.9172  0.0580 -2.0570
63843SOL     OW98768   6.058   0.919   9.544  0.3424  0.0632 -0.6276
63843SOL    HW198769   6.038   0.990   9.483 -0.8585 -0.1207 -0.4885
63843SOL    HW298770   6.049   0.839   9.492 -1.4570 -0.1457 -0.0984
63844SOL     OW98771  11.712   7.672   3.103 -0.3681  0.5921  0.0390
63844SOL    HW198772  11.689   7.747   3.158 -2.3601 -1.2359  1.9045
63844SOL    HW298773  11.681   7.696   3.015 -1.4615  1.7454  0.7086
63845SOL     OW98774   6.657  10.174  12.041  0.9077  0.0351  0.0239
63845SOL    HW198775   6.606  10.097  12.016  1.4229 -0.7912  1.4146
63845SOL    HW298776   6.720  10.186  11.969 -1.3889  1.3040 -1.9105
63846SOL     OW98777   4.607   9.483   5.243  0.0729  0.4658  0.0181
63846SOL    HW198778   4.562   9.540   5.180  0.5370 -0.4204 -1.1500
63846SOL    HW298779   4.545   9.413   5.261 -0.2542  0.9763  0.9697
63847SOL     OW98780   7.790   3.174   4.831  0.1163 -0.2013  0.4254
63847SOL    HW198781   7.790   3.161   4.737  0.9640  0.9212  0.2469
63847SOL    HW298782   7.711   3.225   4.848 -0.2796 -0.7986  0.3897
63848SOL     OW98783   7.412   1.087   4.213  0.6077 -0.2193  0.4683
63848SOL    HW198784   7.366   1.007   4.238 -1.6703  0.4948 -1.1181
63848SOL    HW298785   7.377   1.155   4.270  0.9168  0.0529  0.3404
63849SOL     OW98786   5.687   4.721   2.525 -0.0177  0.1830 -0.3261
63849SOL    HW198787   5.635   4.786   2.479  0.3617 -0.1009 -1.1879
63849SOL    HW298788   5.655   4.637   2.493  1.9875  0.0146 -2.1214
63850SOL     OW98789   0.490   6.702  10.255 -0.4266 -0.3228 -0.3735
63850SOL    HW198790   0.415   6.649  10.283  0.6000 -1.8141 -0.3178
63850SOL    HW298791   0.480   6.709  10.160 -0.9747  0.0323 -0.2936
63851SOL     OW98792   0.875   9.047   0.342 -0.0024 -0.3294 -0.3278
63851SOL    HW198793   0.789   9.007   0.325  0.1559 -2.0413  2.3603
63851SOL    HW298794   0.937   8.987   0.302  0.0867 -1.3454  1.2488
63852SOL     OW98795  11.925   4.192   0.196 -0.0935 -0.2544  0.3395
63852SOL    HW198796  11.893   4.228   0.113 -2.4231 -0.1980  1.1725
63852SOL    HW298797  11.981   4.119   0.171 -0.7510 -0.2459 -1.2977
63853SOL     OW98798   1.076  10.493   2.714 -0.2518 -0.2016 -0.0992
63853SOL    HW198799   1.159  10.500   2.761 -0.4621  0.9891  0.1132
63853SOL    HW298800   1.055  10.400   2.719  0.5782 -0.3720  0.6968
63854SOL     OW98801   5.371   1.568  11.404  0.2699 -0.5241 -0.1662
63854SOL    HW198802   5.413   1.533  11.482  1.0052 -0.0697 -0.3473
63854SOL    HW298803   5.422   1.533  11.331 -0.3954 -0.9258 -0.4510
63855SOL     OW98804   0.773   1.034  10.395 -0.4249 -0.5433 -0.4842
63855SOL    HW198805   0.784   0.949  10.351 -0.6638 -0.4868 -0.6534
63855SOL    HW298806   0.696   1.072  10.355  0.0837  0.0685 -0.8984
63856SOL     OW98807   3.722  10.777  12.070 -0.4432 -0.1213 -0.8161
63856SOL    HW198808   3.671  10.822  12.138  0.5769 -1.0274  0.6072
63856SOL    HW298809   3.795  10.836  12.052 -1.4444  0.7493 -2.1734
63857SOL     OW98810   2.268   8.989   1.514 -0.0856 -0.7238  0.2651
63857SOL    HW198811   2.271   8.895   1.530 -2.4187 -0.7810  0.6737
63857SOL    HW298812   2.254   8.997   1.420  0.0453 -0.7696  0.2405
63858SOL     OW98813   8.946  12.092  10.920 -0.0938  0.3687  0.6187
63858SOL    HW198814   8.882  12.125  10.857 -0.2650 -0.1213  0.5339
63858SOL    HW298815   8.893  12.065  10.996 -0.1137 -1.0058  0.1484
63859SOL     OW98816   8.682   3.651   2.103  0.3365 -0.1026  0.3139
63859SOL    HW198817   8.759   3.696   2.069  1.0534 -0.8158  0.9315
63859SOL    HW298818   8.632   3.719   2.148 -0.1048  0.6338 -1.2425
63860SOL     OW98819   3.655   8.387   5.376  0.1308 -0.1711 -0.0287
63860SOL    HW198820   3.612   8.454   5.428  2.0448  1.2216 -0.1566
63860SOL    HW298821   3.745   8.384   5.409  0.8214 -0.7277 -1.8344
63861SOL     OW98822   6.720  12.611   7.100  0.3863 -0.2061  0.3184
63861SOL    HW198823   6.723  12.683   7.164  0.3492  0.3477 -0.2877
63861SOL    HW298824   6.793  12.630   7.041 -0.8714  0.4760 -1.0499
63862SOL     OW98825  10.966   8.818  12.290 -0.1080 -0.8798 -0.1338
63862SOL    HW198826  10.920   8.735  12.279 -0.1008 -0.8724 -0.2173
63862SOL    HW298827  10.975   8.828  12.385 -0.4236 -0.8018 -0.1113
63863SOL     OW98828   9.099   7.670   0.170  0.3315 -0.2072 -0.3891
63863SOL    HW198829   9.086   7.579   0.145 -0.3736 -0.8306  1.9987
63863SOL    HW298830   9.076   7.720   0.091 -1.9318 -1.9488 -0.9508
63864SOL     OW98831   3.732   7.754   5.368  0.0115  0.2079  0.3012
63864SOL    HW198832   3.707   7.670   5.329 -0.2569 -0.4572  1.8187
63864SOL    HW298833   3.751   7.811   5.293  0.9962 -1.4366 -0.7560
63865SOL     OW98834   5.598   4.854   8.232  0.3269 -0.0489 -0.0123
63865SOL    HW198835   5.562   4.868   8.319  1.5242  1.1697  0.3408
63865SOL    HW298836   5.523   4.859   8.173 -0.3940 -0.1179  0.8902
63866SOL     OW98837   1.957   0.697   0.652 -0.2649  0.5829  0.0442
63866SOL    HW198838   1.889   0.718   0.588 -0.7555 -0.0962  0.3309
63866SOL    HW298839   2.035   0.679   0.600 -0.9869 -1.2445 -0.4764
63867SOL     OW98840  12.365   6.553  10.122  0.4079 -0.4230  0.5346
63867SOL    HW198841  12.315   6.634  10.107 -0.8593 -1.5729 -2.1248
63867SOL    HW298842  12.304   6.495  10.167  0.4581 -0.7343  0.1999
63868SOL     OW98843   1.776  12.695   2.104 -0.5429  0.2393  0.2587
63868SOL    HW198844   1.728  12.629   2.055  1.0361 -0.6902 -0.1184
63868SOL    HW298845   1.711  12.734   2.163 -1.8131 -0.6620 -0.5048
63869SOL     OW98846   2.947  12.133   0.391 -0.5184 -0.1188 -0.5773
63869SOL    HW198847   2.954  12.062   0.328  2.7661  0.5367 -1.1247
63869SOL    HW298848   2.997  12.103   0.467 -0.9339  0.7539  0.0680
63870SOL     OW98849   0.388  12.359  10.412  0.0841 -0.2075  0.3061
63870SOL    HW198850   0.304  12.367  10.456 -0.4158  1.4591 -0.8431
63870SOL    HW298851   0.380  12.281  10.357 -1.0833  0.4393 -0.4891
63871SOL     OW98852   7.527   6.830   8.704 -0.3159 -0.1156 -0.5573
63871SOL    HW198853   7.493   6.917   8.726 -0.0865 -0.2808  0.5065
63871SOL    HW298854   7.594   6.846   8.638 -1.2325  0.3826 -1.3889
63872SOL     OW98855  11.997   7.703   0.357  0.2594  0.2709  0.1064
63872SOL    HW198856  11.926   7.707   0.293  3.2564 -0.2549 -3.6044
63872SOL    HW298857  12.007   7.793   0.387 -1.0642  0.5973 -0.3478
63873SOL     OW98858   2.250   1.735  11.470  0.4988  0.3898  0.0545
63873SOL    HW198859   2.261   1.830  11.468 -2.5819  0.8505 -0.5428
63873SOL    HW298860   2.195   1.715  11.394 -0.5217 -1.5957  1.2224
63874SOL     OW98861   0.339   9.301   8.406 -0.4321 -0.4601 -0.1444
63874SOL    HW198862   0.345   9.395   8.389 -1.2589 -0.3110  0.3361
63874SOL    HW298863   0.391   9.261   8.336  1.4968  0.4210  0.7347
63875SOL     OW98864   2.970  11.281   1.969 -0.5966  0.0120 -0.6304
63875SOL    HW198865   3.042  11.229   2.005  0.6396  1.2240 -1.2557
63875SOL    HW298866   2.894  11.224   1.977  0.0796 -0.7046  1.5957
63876SOL     OW98867  12.182   5.923   5.110  0.2906  0.0387 -0.5239
63876SOL    HW198868  12.107   5.890   5.061  1.5283 -1.8139 -1.2996
63876SOL    HW298869  12.257   5.907   5.052  1.1563  3.4217 -0.5206
63877SOL     OW98870   4.046   2.698   3.983  0.1260  0.4253 -0.0910
63877SOL    HW198871   4.139   2.713   3.969  0.2232  0.1586  0.2453
63877SOL    HW298872   4.010   2.785   4.000  0.3281  0.5170 -0.1262
63878SOL     OW98873   3.936  11.059   9.963 -0.4701 -0.5879 -0.1960
63878SOL    HW198874   3.962  11.147   9.937 -0.5842  0.1563  2.0587
63878SOL    HW298875   3.869  11.034   9.899 -0.9930  1.2680 -0.4137
63879SOL     OW98876  12.325   7.308   6.903 -0.1270 -0.0113  0.3895
63879SOL    HW198877  12.297   7.398   6.884  0.9383  0.2533 -0.0216
63879SOL    HW298878  12.296   7.258   6.827  0.5528  0.2705 -0.0626
63880SOL     OW98879  11.090   5.092  12.112 -0.0188  0.3423 -0.0974
63880SOL    HW198880  11.118   5.001  12.121 -1.9890 -0.3162 -0.2733
63880SOL    HW298881  11.109   5.114  12.021  0.2211  0.0320 -0.1245
63881SOL     OW98882   5.885  11.998   2.792  0.0444  0.3534  0.2324
63881SOL    HW198883   5.837  11.962   2.866  1.3188 -0.9869  0.4428
63881SOL    HW298884   5.977  12.001   2.821  0.1887  2.6626 -0.2197
63882SOL     OW98885   1.395   2.872   6.072  0.0631 -0.1217  0.1617
63882SOL    HW198886   1.423   2.851   5.983  1.5971  1.4985  0.2233
63882SOL    HW298887   1.365   2.963   6.067 -3.0745 -1.0152  0.6306
63883SOL     OW98888   5.186  10.183  12.412 -0.5234  0.9601 -0.5139
63883SOL    HW198889   5.131  10.173  12.490  0.5088  0.5969  0.1910
63883SOL    HW298890   5.173  10.274  12.385 -0.3545  1.3012  0.5040
63884SOL     OW98891   3.509   7.553   0.228  0.4728 -0.0108 -0.5551
63884SOL    HW198892   3.583   7.590   0.276 -0.8867  1.3026  0.5916
63884SOL    HW298893   3.524   7.580   0.137  1.1952  0.5591 -0.2750
63885SOL     OW98894  12.224  11.586   2.809 -0.1797 -0.3416 -0.5434
63885SOL    HW198895  12.254  11.655   2.868  0.3766 -2.2712  1.5355
63885SOL    HW298896  12.258  11.612   2.723  0.3556  1.7348  0.2376
63886SOL     OW98897  12.288   5.100   3.961 -0.3467 -0.4493 -0.7505
63886SOL    HW198898  12.358   5.039   3.938  0.2175  0.3350 -1.1263
63886SOL    HW298899  12.219   5.044   3.998  0.9291 -1.1171  0.7243
63887SOL     OW98900  10.151   1.751   7.741  0.2892  0.0547  0.4093
63887SOL    HW198901  10.100   1.683   7.698 -2.1207  2.2856 -0.5118
63887SOL    HW298902  10.239   1.743   7.703 -0.1949 -1.8594 -0.4000
63888SOL     OW98903  10.788   7.198  10.494  0.1177  0.1554  0.1979
63888SOL    HW198904  10.851   7.154  10.552 -0.5900 -0.1933  0.7084
63888SOL    HW298905  10.719   7.134  10.480 -0.0540  0.4811 -0.5005
63889SOL     OW98906   0.012   8.206   6.887 -0.6826 -0.2493  0.8932
63889SOL    HW198907   0.036   8.260   6.811 -0.0338 -2.7988 -0.8700
63889SOL    HW298908  -0.084   8.207   6.888 -0.6776  0.7146  0.7149
63890SOL     OW98909   8.892   2.107   0.060 -0.1798  0.4413 -0.0856
63890SOL    HW198910   8.811   2.067   0.030  0.2574 -0.7553  0.2810
63890SOL    HW298911   8.868   2.197   0.081 -0.9413  0.7452 -2.0366
63891SOL     OW98912   7.535   9.397   8.680  0.2713 -0.0930 -0.0885
63891SOL    HW198913   7.471   9.389   8.609  1.7956 -0.8841 -1.4333
63891SOL    HW298914   7.486   9.438   8.751 -1.5523 -0.0745 -1.2770
63892SOL     OW98915  11.713   5.057   1.867 -0.0666  0.3108  0.2053
63892SOL    HW198916  11.805   5.030   1.870 -0.7977 -2.9090 -1.6941
63892SOL    HW298917  11.687   5.044   1.776 -2.2137  1.9979  0.5092
63893SOL     OW98918   8.086   2.427   0.756 -0.0875 -0.7384 -0.2928
63893SOL    HW198919   8.072   2.480   0.834 -2.5055 -2.1355  0.3248
63893SOL    HW298920   8.136   2.351   0.787  0.8642 -0.2616 -0.6001
63894SOL     OW98921  11.045   6.973   3.959  0.1336  0.2378 -0.9720
63894SOL    HW198922  11.127   6.925   3.950  0.3540 -0.3004  2.3872
63894SOL    HW298923  10.978   6.905   3.965  0.0095  0.4334  0.2685
63895SOL     OW98924   8.096   9.169   8.173  0.4997 -0.5678  0.1060
63895SOL    HW198925   8.176   9.117   8.167  1.4570  0.7495  0.9164
63895SOL    HW298926   8.106   9.219   8.254 -1.0626 -0.2129  0.1101
63896SOL     OW98927   7.183   4.892  11.710  0.5610 -0.0429  0.1111
63896SOL    HW198928   7.213   4.944  11.636  0.1843  0.4256  0.2820
63896SOL    HW298929   7.211   4.803  11.690  0.1658  0.0174 -0.7652
63897SOL     OW98930   4.084  10.209  11.002 -0.3132  0.2743 -0.3944
63897SOL    HW198931   4.035  10.288  11.023  0.0084  0.2322  0.5373
63897SOL    HW298932   4.016  10.143  10.985 -0.5786  0.5809 -0.5387
63898SOL     OW98933  12.459   4.750   7.512  0.4517  0.0143  0.0649
63898SOL    HW198934  12.424   4.665   7.487  1.5445 -0.9653  1.7256
63898SOL    HW298935  12.554   4.743   7.498  0.6944  0.5413  1.3086
63899SOL     OW98936   6.975   7.803   8.836 -0.7511 -0.6458  0.1152
63899SOL    HW198937   7.005   7.726   8.787 -1.7731 -0.1810 -1.3274
63899SOL    HW298938   7.001   7.877   8.781 -0.0838  0.0389  1.3150
63900SOL     OW98939   8.796   7.635   6.712 -0.1125  0.4582  0.2581
63900SOL    HW198940   8.844   7.573   6.657  1.8956  2.1136  0.0170
63900SOL    HW298941   8.704   7.624   6.686  0.2774 -1.7062 -0.4212
63901SOL     OW98942   8.313  10.157  11.035  0.4028  0.2676  0.7632
63901SOL    HW198943   8.355  10.239  11.009  0.1739  0.9023  2.2775
63901SOL    HW298944   8.298  10.167  11.129 -1.8731 -0.5207  0.5367
63902SOL     OW98945  11.724   7.309  11.833  0.5496 -0.5287 -0.1749
63902SOL    HW198946  11.684   7.350  11.910  1.3397  1.0712 -0.5856
63902SOL    HW298947  11.657   7.247  11.802  0.1797 -1.1534  1.7151
63903SOL     OW98948   3.160   7.442   4.905 -0.1766  0.2504 -0.4201
63903SOL    HW198949   3.202   7.369   4.858  0.1371 -0.5963  1.1061
63903SOL    HW298950   3.067   7.421   4.904 -0.4659  1.3868 -2.5465
63904SOL     OW98951   9.440   5.535  11.337  0.0887  0.0673 -0.1713
63904SOL    HW198952   9.491   5.460  11.308  0.7875 -0.1927  1.5760
63904SOL    HW298953   9.382   5.501  11.405  1.7455  1.3074  2.0564
63905SOL     OW98954  10.399   3.524   4.436 -0.1846  0.3498  0.3730
63905SOL    HW198955  10.454   3.602   4.430  0.5362 -0.1612  0.2503
63905SOL    HW298956  10.443   3.468   4.500  0.8046 -1.1266 -1.5000
63906SOL     OW98957   5.922   5.959   2.387  0.0998  0.0939  0.1088
63906SOL    HW198958   5.998   5.976   2.331  0.6535  0.9478  1.0725
63906SOL    HW298959   5.959   5.930   2.470 -0.6616 -0.0797  0.3970
63907SOL     OW98960   2.787   5.656  12.653 -0.2715  0.6899  0.3258
63907SOL    HW198961   2.765   5.664  12.746  0.0047  1.1776  0.3548
63907SOL    HW298962   2.755   5.569  12.628  0.3978  0.2026  1.0850
63908SOL     OW98963   9.415   7.611   4.679 -0.0439 -0.2449  0.0540
63908SOL    HW198964   9.434   7.603   4.586 -2.1751  0.5894 -0.5246
63908SOL    HW298965   9.363   7.691   4.685 -3.0755 -2.1457  1.3799
63909SOL     OW98966   6.797   6.243   6.700  0.2687  0.5566  0.1989
63909SOL    HW198967   6.722   6.301   6.684 -0.7786 -1.0745 -1.0810
63909SOL    HW298968   6.773   6.160   6.659  2.3912 -0.3267  0.6062
63910SOL     OW98969   6.721   1.324  11.620 -0.2523 -0.1317  0.5226
63910SOL    HW198970   6.633   1.361  11.632 -0.0313  0.7187 -0.3837
63910SOL    HW298971   6.778   1.380  11.672 -0.1088 -0.0523  0.2819
63911SOL     OW98972  10.269   0.915   8.619  0.0834 -0.1237 -0.3964
63911SOL    HW198973  10.355   0.956   8.620 -0.4546  1.0681 -0.3383
63911SOL    HW298974  10.224   0.958   8.546 -0.8977  0.2647  0.4046
63912SOL     OW98975   5.558   6.519  12.318 -0.1224 -0.2695 -0.4857
63912SOL    HW198976   5.465   6.516  12.296  0.1909 -1.0943 -1.7857
63912SOL    HW298977   5.583   6.428  12.330 -0.0700  0.0610  2.6991
63913SOL     OW98978   9.240   3.927   0.342  0.1193  0.0651  0.3284
63913SOL    HW198979   9.278   4.009   0.374  1.6341 -0.8630  1.0061
63913SOL    HW298980   9.161   3.916   0.395  0.5398  0.4928  1.0787
63914SOL     OW98981   0.649  11.746   1.592  0.3081  1.2662 -0.2967
63914SOL    HW198982   0.676  11.836   1.573 -1.1456  2.1522  1.4385
63914SOL    HW298983   0.558  11.755   1.620  0.6322 -0.5324  1.5295
63915SOL     OW98984   6.352   7.214   6.120 -0.3233  0.3922 -0.6544
63915SOL    HW198985   6.263   7.242   6.097 -0.5984  1.0024  0.9887
63915SOL    HW298986   6.399   7.296   6.134  0.4534  0.0658 -1.3261
63916SOL     OW98987   8.713   4.851   4.102  0.1882  0.3770  0.5191
63916SOL    HW198988   8.642   4.823   4.160 -0.6360  1.4896  0.0816
63916SOL    HW298989   8.740   4.936   4.137 -0.8272  1.4267 -1.1129
63917SOL     OW98990  10.778   9.904   9.559 -0.2752  0.0098  0.3305
63917SOL    HW198991  10.819   9.831   9.513 -0.6456  1.2516 -2.1381
63917SOL    HW298992  10.851   9.962   9.581 -0.1166 -0.5085  1.2327
63918SOL     OW98993   4.756   6.318   3.737 -0.3064 -0.4630 -0.1789
63918SOL    HW198994   4.846   6.286   3.724  0.3558  1.2533 -0.1763
63918SOL    HW298995   4.760   6.409   3.709 -2.0285 -0.3173 -0.0040
63919SOL     OW98996   2.231  12.119  11.031  0.0442 -0.2866 -0.1710
63919SOL    HW198997   2.188  12.046  11.075 -0.4464  1.1317  1.8741
63919SOL    HW298998   2.317  12.085  11.006  0.4407 -1.1691  2.1298
63920SOL     OW98999   8.572   7.104  11.110 -0.4379  0.1977  0.1287
63920SOL    HW199000   8.537   7.040  11.173 -1.0181 -0.4185 -0.7930
63920SOL    HW299001   8.600   7.050  11.036  3.0694  0.5726  1.0148
63921SOL     OW99002   9.090   3.141  12.483 -0.1006  0.0825 -0.0375
63921SOL    HW199003   9.029   3.214  12.491 -0.4413 -0.0989 -0.8453
63921SOL    HW299004   9.034   3.063  12.483  0.2611 -0.1874  0.8208
63922SOL     OW99005   3.798  10.684   2.164  0.2289  0.0168 -0.1641
63922SOL    HW199006   3.892  10.699   2.154  0.2022  0.4630  0.2153
63922SOL    HW299007   3.784  10.593   2.136  0.5586  0.3659 -1.5722
63923SOL     OW99008   5.813   9.108   0.126 -0.1901 -0.4896  0.4345
63923SOL    HW199009   5.864   9.029   0.109  1.1721  0.3345  0.5197
63923SOL    HW299010   5.859   9.151   0.199 -1.2366  0.0997  0.7720
63924SOL     OW99011  10.655   8.826  11.458  0.4214  0.0512 -0.2273
63924SOL    HW199012  10.708   8.902  11.432 -0.9066  0.8013 -0.8725
63924SOL    HW299013  10.687   8.754  11.404  2.3662 -0.1294  1.0883
63925SOL     OW99014  10.852   8.121   3.661  0.6623  0.5251  0.1507
63925SOL    HW199015  10.819   8.035   3.688 -0.6064  1.3905  1.5351
63925SOL    HW299016  10.833   8.126   3.567  1.2399 -0.8939 -0.0663
63926SOL     OW99017   2.833   3.662   8.766  0.3406  0.0220 -0.0546
63926SOL    HW199018   2.845   3.569   8.784  1.5210 -0.0785 -1.2161
63926SOL    HW299019   2.850   3.705   8.850 -1.0024 -0.8287  0.6917
63927SOL     OW99020  12.196   4.346   9.945 -0.1738  0.1910 -0.1848
63927SOL    HW199021  12.148   4.274   9.988 -1.1789  1.2174  0.4870
63927SOL    HW299022  12.127   4.407   9.918  0.6765  1.0412 -0.4642
63928SOL     OW99023   1.809   1.754   4.015  0.2391  0.0973 -0.3086
63928SOL    HW199024   1.723   1.791   3.997  0.6247  1.1084 -0.0987
63928SOL    HW299025   1.844   1.732   3.928 -0.8525 -1.8228 -0.3242
63929SOL     OW99026   8.630   7.054   8.698 -0.1246  0.0921 -0.5612
63929SOL    HW199027   8.684   7.114   8.646 -0.5429  2.5313  1.6030
63929SOL    HW299028   8.687   7.028   8.770 -0.9478  0.5546  0.2816
63930SOL     OW99029   7.922   6.383   6.915 -0.4234  0.2832 -0.2480
63930SOL    HW199030   7.969   6.453   6.959  0.3544  0.2783 -1.0287
63930SOL    HW299031   7.990   6.319   6.893 -0.8101  0.1866 -1.2301
63931SOL     OW99032   7.023   6.629  12.663  0.1995 -0.4514 -0.2432
63931SOL    HW199033   6.933   6.660  12.670  1.0355  1.9552  0.6619
63931SOL    HW299034   7.026   6.552  12.719 -1.3154 -0.6721 -0.4208
63932SOL     OW99035   5.210   6.383   4.269 -0.1188  0.4569  0.2015
63932SOL    HW199036   5.228   6.470   4.304  1.9881  0.1792 -0.0263
63932SOL    HW299037   5.244   6.386   4.179 -0.3981 -0.4662  0.0531
63933SOL     OW99038   1.217   3.077  12.152 -0.5479  0.5916  0.1771
63933SOL    HW199039   1.307   3.100  12.130 -0.0465 -1.3906  0.0224
63933SOL    HW299040   1.184   3.031  12.075 -0.7424 -1.1854  1.2887
63934SOL     OW99041   8.019   5.952   8.330  0.1841  0.6646 -0.0617
63934SOL    HW199042   8.107   5.942   8.367 -0.0275 -0.1920  0.2353
63934SOL    HW299043   8.034   5.981   8.240  0.7611  0.6491  0.0211
63935SOL     OW99044   1.501  10.188   3.597 -0.7995 -0.4400 -0.0130
63935SOL    HW199045   1.497  10.220   3.507 -0.2825 -0.5278 -0.0704
63935SOL    HW299046   1.412  10.199   3.631 -0.3269  2.6267  0.5046
63936SOL     OW99047  12.362  12.241   9.198  0.7868 -0.6006  0.1241
63936SOL    HW199048  12.446  12.212   9.237  1.3109  0.2493 -0.3505
63936SOL    HW299049  12.321  12.293   9.267  0.4327 -1.3969  0.5218
63937SOL     OW99050   2.581   0.158   1.429  0.4550  0.0898 -0.3636
63937SOL    HW199051   2.533   0.142   1.509  2.2113  0.0568  0.7450
63937SOL    HW299052   2.591   0.072   1.388 -0.7309  0.1543 -0.8086
63938SOL     OW99053   7.901   9.296   9.009 -0.1026  0.0658 -0.4481
63938SOL    HW199054   7.939   9.353   9.076  0.3684 -0.0281 -0.6329
63938SOL    HW299055   7.840   9.353   8.961  1.5139  0.8731 -1.6501
63939SOL     OW99056   8.247  10.826  10.287 -0.2471 -0.5431  0.1265
63939SOL    HW199057   8.302  10.806  10.212  0.5825  1.1972  0.2295
63939SOL    HW299058   8.221  10.740  10.320  1.9750 -1.4490 -0.2526
63940SOL     OW99059  11.877   2.275   2.243  0.3898 -0.1074 -0.5476
63940SOL    HW199060  11.826   2.277   2.324 -0.7829  1.3697 -1.2621
63940SOL    HW299061  11.812   2.272   2.174  1.3510 -0.2979 -1.4703
63941SOL     OW99062   8.230   8.161   7.212  0.4781  0.4509  0.1862
63941SOL    HW199063   8.169   8.090   7.230 -1.0319  1.5561 -0.3449
63941SOL    HW299064   8.244   8.157   7.117  0.4401  0.7890  0.1630
63942SOL     OW99065   1.479   4.137   2.230 -0.1330  0.4430 -0.6937
63942SOL    HW199066   1.481   4.066   2.166 -1.0197  0.7844 -1.1187
63942SOL    HW299067   1.391   4.134   2.266  0.7142 -0.5453  1.4674
63943SOL     OW99068   8.423  10.406   4.145 -0.3077  0.1764  0.3883
63943SOL    HW199069   8.394  10.390   4.235  3.3633 -0.6377  1.5942
63943SOL    HW299070   8.404  10.325   4.098  2.1825 -1.3319  1.8235
63944SOL     OW99071   1.160   6.411  11.754 -0.8293  0.2269 -0.7159
63944SOL    HW199072   1.236   6.434  11.807 -0.3479 -2.0450 -0.3042
63944SOL    HW299073   1.184   6.438  11.665  0.2975 -0.0573 -0.5163
63945SOL     OW99074   9.623   1.441  11.017 -0.5630 -0.4828  0.2092
63945SOL    HW199075   9.600   1.465  10.927  2.1504  1.0583 -0.1733
63945SOL    HW299076   9.703   1.389  11.008  0.1332  0.2826  1.7633
63946SOL     OW99077   3.358   9.038   0.231 -0.1296 -0.0667  0.4059
63946SOL    HW199078   3.344   9.121   0.276 -2.1788  0.2165 -0.6512
63946SOL    HW299079   3.383   8.977   0.301  0.7701  1.2549  1.2907
63947SOL     OW99080  12.223  11.855   0.627  1.0840  0.5726  0.1524
63947SOL    HW199081  12.139  11.808   0.621  0.1444  2.1628  0.2016
63947SOL    HW299082  12.250  11.868   0.537  0.5793  1.2194  0.0875
63948SOL     OW99083  11.627   5.773   1.120 -0.0438  0.1386  0.3229
63948SOL    HW199084  11.711   5.761   1.163 -0.4644 -2.0156  0.6700
63948SOL    HW299085  11.647   5.768   1.026  0.3456  0.7921  0.3655
63949SOL     OW99086   7.436   2.442   9.908 -0.1872 -0.1443 -0.8119
63949SOL    HW199087   7.413   2.513   9.969 -0.8072 -0.9285 -0.1149
63949SOL    HW299088   7.352   2.413   9.872 -0.2802 -2.3029  0.9403
63950SOL     OW99089  11.630  12.562   9.439 -0.1168  0.6860 -0.1787
63950SOL    HW199090  11.615  12.470   9.460 -0.1787  0.8269  0.4292
63950SOL    HW299091  11.718  12.580   9.473 -1.5333  1.8644  3.4460
63951SOL     OW99092   7.002   0.101   1.126 -0.0955  0.0823  0.4643
63951SOL    HW199093   6.942   0.140   1.189 -0.5150  0.3718 -0.1013
63951SOL    HW299094   6.968   0.014   1.109  0.7256 -0.4731  1.5715
63952SOL     OW99095  12.564   0.456   4.592 -0.1769  0.2949 -0.3879
63952SOL    HW199096  12.553   0.419   4.679  3.0503 -0.6769 -0.2674
63952SOL    HW299097  12.554   0.551   4.604  0.3064  0.1754  1.0625
63953SOL     OW99098  12.571   0.449  10.379  0.2764 -0.0578  0.2673
63953SOL    HW199099  12.575   0.441  10.474  1.0356  0.8385  0.3266
63953SOL    HW299100  12.597   0.362  10.347 -2.0860 -1.0618  0.8447
63954SOL     OW99101   4.853   3.385   6.380 -0.3811  0.0018  0.6190
63954SOL    HW199102   4.774   3.349   6.420 -0.9611  2.2950  1.7057
63954SOL    HW299103   4.836   3.383   6.286 -1.7447  0.4123  0.8364
63955SOL     OW99104   3.539   0.895   2.356 -0.1421  1.1211  0.1288
63955SOL    HW199105   3.466   0.835   2.339  0.7238 -0.2649  1.1214
63955SOL    HW299106   3.565   0.926   2.269 -0.9925  0.5340 -0.3473
63956SOL     OW99107   4.032   9.931   8.996 -0.0019 -0.2305 -0.0825
63956SOL    HW199108   4.052   9.953   8.905  0.2064 -1.5716 -0.3711
63956SOL    HW299109   3.938   9.914   8.996 -0.2468  0.9895  0.2314
63957SOL     OW99110   7.480   8.347   6.916 -0.2827 -0.2266 -0.3826
63957SOL    HW199111   7.398   8.389   6.890  1.3118  2.1675 -1.9019
63957SOL    HW299112   7.518   8.316   6.833  0.7396 -0.5231  0.1860
63958SOL     OW99113  11.139  12.337   2.787  0.2643 -0.1772 -0.3064
63958SOL    HW199114  11.227  12.353   2.753 -0.1332 -1.4838 -2.0986
63958SOL    HW299115  11.080  12.374   2.721 -0.6074  2.0517  1.5917
63959SOL     OW99116   9.559   8.164  10.360  0.3428  0.1123  0.1801
63959SOL    HW199117   9.470   8.165  10.396  0.4818 -0.0125  0.5362
63959SOL    HW299118   9.560   8.236  10.296  0.0150  0.1730  0.2389
63960SOL     OW99119   4.884   0.544   4.070  0.3086  0.2875  0.2009
63960SOL    HW199120   4.819   0.596   4.023  0.6749  0.9805  0.4517
63960SOL    HW299121   4.960   0.542   4.011  0.5907  0.7372  0.5428
63961SOL     OW99122   3.219   5.371   8.632  0.4842 -0.0332  0.0693
63961SOL    HW199123   3.213   5.361   8.727 -1.5817  0.2864  0.0180
63961SOL    HW299124   3.270   5.451   8.619 -0.6109  0.8503  0.9797
63962SOL     OW99125   1.915  10.285   3.371 -0.4068 -0.3748  0.2997
63962SOL    HW199126   1.894  10.194   3.391 -0.4123 -0.8075 -1.4653
63962SOL    HW299127   1.853  10.310   3.302  0.2062  0.6655  0.0940
63963SOL     OW99128   4.814   7.759   6.182 -0.3326 -0.2357  0.3421
63963SOL    HW199129   4.842   7.807   6.259  2.0326 -0.9503  0.0026
63963SOL    HW299130   4.887   7.767   6.121 -1.7929 -0.4001 -1.5198
63964SOL     OW99131   9.625   0.139   0.468 -0.8893  0.1051 -0.2631
63964SOL    HW199132   9.579   0.085   0.533 -1.1964  0.5295 -0.1167
63964SOL    HW299133   9.632   0.083   0.391  0.6515 -0.8809  0.5424
63965SOL     OW99134   7.582   2.102   5.501 -0.3247 -0.1216 -0.4555
63965SOL    HW199135   7.647   2.047   5.545 -2.9084 -3.3178 -0.2275
63965SOL    HW299136   7.615   2.111   5.412  0.6408 -1.3614 -0.2648
63966SOL     OW99137  10.297   1.682  11.575  0.5782 -0.6352 -0.8605
63966SOL    HW199138  10.377   1.723  11.608  1.7736 -1.2813 -2.7805
63966SOL    HW299139  10.306   1.589  11.598  0.3329 -0.6999 -1.0224
63967SOL     OW99140  12.104   6.069   6.330 -0.2013  0.0697 -0.6518
63967SOL    HW199141  12.024   6.102   6.290  0.1007  0.4178 -0.9700
63967SOL    HW299142  12.166   6.063   6.258 -0.2224 -1.1372 -0.6012
63968SOL     OW99143   9.000   9.150  10.915  0.5494  0.0904 -0.2388
63968SOL    HW199144   9.004   9.158  11.010  0.3608 -0.6348 -0.1620
63968SOL    HW299145   9.015   9.239  10.882 -0.7944  0.6132  0.5064
63969SOL     OW99146  11.980   0.387  10.433  0.1007  0.7974 -0.8806
63969SOL    HW199147  12.047   0.319  10.438 -0.0884  0.6312 -0.6116
63969SOL    HW299148  11.959   0.393  10.340 -0.5002 -0.1107 -0.8081
63970SOL     OW99149   3.495  12.398  11.706 -0.0797  0.0589 -0.1990
63970SOL    HW199150   3.485  12.480  11.659 -1.3288  0.1882  0.2469
63970SOL    HW299151   3.475  12.419  11.797 -0.2784 -0.6928 -0.0553
63971SOL     OW99152   5.184   7.502   1.052 -0.2092 -0.2194  0.0097
63971SOL    HW199153   5.172   7.592   1.023  3.4882  0.0281 -1.3724
63971SOL    HW299154   5.165   7.504   1.146 -1.3733  1.6928 -0.2196
63972SOL     OW99155   4.408  11.228  12.121 -0.1163 -0.7710  0.2023
63972SOL    HW199156   4.482  11.182  12.161  1.7650  0.9017 -1.1205
63972SOL    HW299157   4.389  11.299  12.182 -0.7694 -1.2738  0.6038
63973SOL     OW99158   7.124   7.244   3.435 -0.4518  0.3439  0.1418
63973SOL    HW199159   7.171   7.278   3.359  1.0929 -0.0919  0.8585
63973SOL    HW299160   7.038   7.218   3.401  1.1792 -2.6678 -2.1776
63974SOL     OW99161   4.477   8.257  11.381 -0.3935 -0.3796  0.6884
63974SOL    HW199162   4.440   8.217  11.460 -2.7524 -0.3853 -0.3196
63974SOL    HW299163   4.553   8.307  11.413  1.4672 -3.8797  2.2651
63975SOL     OW99164  11.067  10.550   2.071  0.7028 -0.2179  0.5184
63975SOL    HW199165  11.056  10.466   2.117 -1.4941 -1.0600 -1.3352
63975SOL    HW299166  10.978  10.582   2.060  1.2584  0.7025 -1.7239
63976SOL     OW99167   9.494  12.167   3.944 -0.1531  0.2209  0.2187
63976SOL    HW199168   9.575  12.215   3.963  0.9597 -1.2930 -0.5292
63976SOL    HW299169   9.521  12.094   3.888 -1.7986 -1.2080  1.1772
63977SOL     OW99170   6.434   5.811   4.272  0.1470 -0.2270  0.5987
63977SOL    HW199171   6.485   5.783   4.196 -1.0942  3.3121 -1.7879
63977SOL    HW299172   6.481   5.887   4.306 -0.0001 -0.9955  2.6886
63978SOL     OW99173   9.786   2.360   3.166 -0.0740 -0.2749 -0.1134
63978SOL    HW199174   9.716   2.300   3.138  0.9853 -2.0848  0.9777
63978SOL    HW299175   9.867   2.317   3.139  0.6974  1.2780 -0.3970
63979SOL     OW99176   8.776  12.377  10.448 -0.0428 -0.1564 -0.4506
63979SOL    HW199177   8.767  12.312  10.518 -0.8069  0.2030 -0.1985
63979SOL    HW299178   8.686  12.395  10.421  0.2768 -0.9097 -2.1246
63980SOL     OW99179  10.154   0.734   3.370  0.6240  0.0534 -0.2063
63980SOL    HW199180  10.143   0.664   3.434  2.2618  1.1018  1.3325
63980SOL    HW299181  10.247   0.732   3.348  0.3048  0.4334 -1.7467
63981SOL     OW99182  11.592   6.342  10.688 -0.0850  0.0619  0.2441
63981SOL    HW199183  11.549   6.257  10.680 -0.3880  0.2718 -0.4041
63981SOL    HW299184  11.533   6.403  10.644 -0.0752  0.6827  1.0610
63982SOL     OW99185   1.103  11.076   9.547  0.1538  0.0637  0.0307
63982SOL    HW199186   1.194  11.106   9.558  0.4439 -0.8932  0.3778
63982SOL    HW299187   1.108  11.012   9.476 -0.5550  1.2129 -1.1122
63983SOL     OW99188   1.615   0.303   5.069 -0.2923  0.5396  0.4738
63983SOL    HW199189   1.634   0.235   5.005 -1.3603  0.5009  0.1830
63983SOL    HW299190   1.675   0.375   5.047 -1.3977  0.9732 -1.2855
63984SOL     OW99191  12.206   1.880  11.275 -0.1753  0.0525 -0.0716
63984SOL    HW199192  12.223   1.816  11.206 -1.2579 -0.9254  0.5450
63984SOL    HW299193  12.290   1.926  11.285  1.4063 -2.8063  1.0509
63985SOL     OW99194   9.419   9.907   4.010 -0.2689 -0.3826  0.0955
63985SOL    HW199195   9.391   9.944   3.927 -1.5686  0.3464  0.8134
63985SOL    HW299196   9.375   9.961   4.076  0.8495 -0.8369  1.2616
63986SOL     OW99197   8.687   7.869  10.199  0.0550  0.2784 -0.3338
63986SOL    HW199198   8.681   7.918  10.117 -1.4811 -0.8830 -0.9805
63986SOL    HW299199   8.612   7.810  10.196  0.1086  0.0391  1.8217
63987SOL     OW99200   0.781   0.824   1.459  0.1490 -0.0817 -0.2941
63987SOL    HW199201   0.746   0.786   1.378  0.5408 -1.8164  0.3181
63987SOL    HW299202   0.703   0.855   1.506 -0.1643  0.0341 -0.8774
63988SOL     OW99203   7.842   4.892   5.214 -0.4544  0.0019  0.5631
63988SOL    HW199204   7.793   4.822   5.257  0.4929 -0.2394  1.2905
63988SOL    HW299205   7.850   4.864   5.123  0.4618 -1.1698  0.9829
63989SOL     OW99206  11.660   8.127  11.052  0.0288 -0.0696  0.3417
63989SOL    HW199207  11.642   8.069  10.978  1.4222 -0.7319  0.4864
63989SOL    HW299208  11.707   8.073  11.114  2.1803  1.3844  0.0940
63990SOL     OW99209  10.590  11.949   2.122  0.0626 -0.3894 -0.4997
63990SOL    HW199210  10.545  11.893   2.185  0.8794  0.7882  1.1869
63990SOL    HW299211  10.530  11.953   2.047 -1.3287 -1.1239  0.5351
63991SOL     OW99212   4.968   3.052   4.356 -0.1510 -0.0629 -0.5450
63991SOL    HW199213   5.031   2.989   4.391  0.4459  1.2607  0.9033
63991SOL    HW299214   5.017   3.134   4.351 -1.5404  0.8453 -0.0456
63992SOL     OW99215   1.503   7.162   0.045 -0.0203  0.0911 -0.0286
63992SOL    HW199216   1.460   7.182  -0.039  1.7316 -0.1413 -1.0447
63992SOL    HW299217   1.538   7.247   0.074 -1.1930  0.2995  0.8439
63993SOL     OW99218   2.180  12.389   9.701 -0.3987 -0.3599  0.3476
63993SOL    HW199219   2.227  12.456   9.751  1.1842 -0.2841 -1.1277
63993SOL    HW299220   2.245  12.320   9.687 -1.4778 -1.3935  0.3004
63994SOL     OW99221  10.715   2.846   2.578  0.0945 -0.1640  0.2551
63994SOL    HW199222  10.631   2.802   2.592 -0.4344  0.8978  0.5148
63994SOL    HW299223  10.697   2.910   2.509  0.8960 -0.4672 -0.2407
63995SOL     OW99224  10.360   5.605   0.679  0.4921 -0.4753 -0.0025
63995SOL    HW199225  10.273   5.605   0.719  0.4483  3.3176  0.3061
63995SOL    HW299226  10.421   5.602   0.754  0.5028  0.9262  0.0696
63996SOL     OW99227   2.815  12.378   1.660 -0.1619  0.1748  0.0163
63996SOL    HW199228   2.845  12.289   1.640 -1.1790 -0.6318  1.8448
63996SOL    HW299229   2.725  12.366   1.692 -0.0323  1.7607  1.0834
63997SOL     OW99230  11.493   8.486   3.014  0.1501  0.0538  0.2757
63997SOL    HW199231  11.488   8.472   2.920 -0.2990  0.4222  0.2448
63997SOL    HW299232  11.565   8.430   3.042  1.3048  1.1031 -0.5027
63998SOL     OW99233   6.147  11.126   1.511 -0.1084 -0.4853  0.5744
63998SOL    HW199234   6.237  11.123   1.477  0.0869 -2.0322  1.1429
63998SOL    HW299235   6.110  11.041   1.490 -0.7720 -0.6141  2.0890
63999SOL     OW99236  11.088   1.016   2.344 -0.5248 -0.4669  0.0645
63999SOL    HW199237  11.176   1.005   2.381 -0.5827  0.0927  0.3907
63999SOL    HW299238  11.088   1.105   2.309 -0.7785 -0.6656 -0.4456
64000SOL     OW99239  12.372   6.480   3.937 -0.0944 -0.3558 -0.3183
64000SOL    HW199240  12.444   6.537   3.912 -0.3913 -0.0274 -0.4418
64000SOL    HW299241  12.413   6.407   3.982  0.2055  0.6308  1.1001
64001SOL     OW99242  12.703   4.099   9.471 -0.2303 -0.6089 -0.1259
64001SOL    HW199243  12.657   4.033   9.523 -3.1122  1.0913 -0.2912
64001SOL    HW299244  12.693   4.070   9.381 -1.3794 -0.0758 -0.1880
64002SOL     OW99245   9.205   6.553   3.066 -0.0169  0.4067 -0.3770
64002SOL    HW199246   9.253   6.615   3.012  2.4622 -0.7644  0.3301
64002SOL    HW299247   9.176   6.485   3.006  1.0810  0.0638 -0.5344
64003SOL     OW99248   1.733   5.023  10.269  0.2748 -0.1272  0.6421
64003SOL    HW199249   1.756   5.022  10.362  0.6313 -0.5033  0.5528
64003SOL    HW299250   1.662   5.087  10.263  1.0411  0.7922  0.9874
64004SOL     OW99251   1.957   6.817   7.843 -0.4215 -0.2307 -0.6477
64004SOL    HW199252   1.966   6.729   7.806  0.9552  0.0720 -1.0855
64004SOL    HW299253   1.955   6.875   7.767 -0.3297  0.1932 -0.3308
64005SOL     OW99254   6.286   8.401   0.157 -0.0584 -0.2540 -0.0460
64005SOL    HW199255   6.313   8.348   0.232 -0.7170 -1.0641 -0.3572
64005SOL    HW299256   6.306   8.346   0.081 -0.1450  0.2242 -0.4190
64006SOL     OW99257   5.381  11.978   7.783  0.2216  0.1185 -0.2428
64006SOL    HW199258   5.398  11.892   7.745  0.6654 -1.2109  2.6950
64006SOL    HW299259   5.293  11.971   7.819 -0.6514  1.7343 -1.8796
64007SOL     OW99260  12.559  10.748   0.848  0.0825  0.0358  0.0348
64007SOL    HW199261  12.520  10.785   0.769 -1.7197  0.4560  1.0777
64007SOL    HW299262  12.584  10.824   0.901 -1.2402 -0.1960  1.0420
64008SOL     OW99263   7.709  10.005   2.981  0.0441  0.3780 -0.3585
64008SOL    HW199264   7.629  10.055   3.001  0.1148 -0.7423  3.6889
64008SOL    HW299265   7.681   9.937   2.920 -2.1505  0.0028  0.9849
64009SOL     OW99266   4.476   7.679   2.005  0.4805  0.0909 -0.0609
64009SOL    HW199267   4.428   7.628   1.940  0.5516 -0.6966  0.4817
64009SOL    HW299268   4.430   7.762   2.010 -0.7313 -0.5791  0.3098
64010SOL     OW99269   9.448   8.647   1.528 -0.3752  0.4725  0.0329
64010SOL    HW199270   9.429   8.715   1.463  0.4815  0.5059 -0.2010
64010SOL    HW299271   9.462   8.568   1.477 -2.5995 -0.2037  0.3792
64011SOL     OW99272  12.084   4.564   0.329 -0.0291  0.5953 -0.2822
64011SOL    HW199273  12.079   4.584   0.235 -0.0197 -0.0827 -0.4301
64011SOL    HW299274  12.059   4.646   0.372 -1.4169  0.5284 -0.8969
64012SOL     OW99275  11.994   4.859   3.599 -0.0248  0.3302 -0.6434
64012SOL    HW199276  12.062   4.924   3.581  0.1404  0.1030 -0.8454
64012SOL    HW299277  12.025   4.811   3.675  0.1999  0.0072 -0.9366
64013SOL     OW99278   8.371   5.635   3.414 -0.3837  1.0614 -0.4645
64013SOL    HW199279   8.353   5.677   3.499 -0.5209  2.9077 -1.3587
64013SOL    HW299280   8.423   5.558   3.436 -0.4042  1.5099  1.3018
64014SOL     OW99281  11.895  11.819   2.195  0.2776  0.0917  0.6249
64014SOL    HW199282  11.911  11.913   2.203 -1.5550  0.6332 -1.2426
64014SOL    HW299283  11.800  11.810   2.201  0.4336 -1.6886  0.9250
64015SOL     OW99284   2.602   9.209   2.191  0.2397 -0.3628  0.1990
64015SOL    HW199285   2.525   9.208   2.248 -0.7616  0.5035 -1.1048
64015SOL    HW299286   2.642   9.295   2.206 -0.2913  0.0530 -0.7389
64016SOL     OW99287   5.749   5.774   5.508  0.7088  0.3625  0.1007
64016SOL    HW199288   5.773   5.691   5.467  1.3558  0.5951  0.0051
64016SOL    HW299289   5.656   5.785   5.486  0.8412  0.0924 -0.6214
64017SOL     OW99290  12.172  12.267   6.015 -0.2826  0.5844  0.1314
64017SOL    HW199291  12.247  12.245   5.960 -0.3975 -2.2096  0.9548
64017SOL    HW299292  12.096  12.250   5.959 -0.3943  2.5331 -0.3949
64018SOL     OW99293   8.880   8.152   8.488  0.1086  0.4486  0.3973
64018SOL    HW199294   8.791   8.120   8.469 -0.7450  2.1067  1.3808
64018SOL    HW299295   8.917   8.170   8.402 -0.4078 -0.5292 -0.0440
64019SOL     OW99296   0.102   0.389   8.740  0.2626  0.4149  0.1782
64019SOL    HW199297   0.156   0.326   8.693  0.0675 -0.1001  0.6436
64019SOL    HW299298   0.156   0.416   8.814 -0.2719 -0.4219  0.8863
64020SOL     OW99299   5.840   6.326   3.786  0.3100 -0.4302 -0.2748
64020SOL    HW199300   5.813   6.262   3.720  0.4892 -1.5359  0.6988
64020SOL    HW299301   5.805   6.409   3.753  0.3550 -0.9493 -1.7311
64021SOL     OW99302   9.902  11.445   1.383  0.4892  0.0935  0.4812
64021SOL    HW199303   9.910  11.385   1.309 -0.0177  0.1140  0.4068
64021SOL    HW299304   9.985  11.436   1.430  1.2531  0.8771 -0.6741
64022SOL     OW99305   2.892   5.366   4.067 -0.2463 -0.0664  0.2424
64022SOL    HW199306   2.890   5.273   4.047 -0.9687 -0.0895  0.3967
64022SOL    HW299307   2.909   5.409   3.983  1.1422 -0.3809  0.3455
64023SOL     OW99308   7.238   7.912   6.901  0.2801 -0.0946 -0.1599
64023SOL    HW199309   7.277   7.992   6.937  1.0600 -0.0559 -1.0569
64023SOL    HW299310   7.284   7.897   6.818 -1.2492 -0.3395 -1.0210
64024SOL     OW99311   0.758   1.769   8.563  0.0175  0.5580  0.6235
64024SOL    HW199312   0.724   1.833   8.626  0.0425  1.3059 -0.1034
64024SOL    HW299313   0.779   1.821   8.485 -1.5879 -0.5652 -0.6412
64025SOL     OW99314   3.524  10.795   7.637 -0.8824 -0.0923 -0.2252
64025SOL    HW199315   3.437  10.808   7.675  0.0772 -0.0689  2.1416
64025SOL    HW299316   3.546  10.704   7.658 -0.7555 -0.4291 -1.7562
64026SOL     OW99317   5.595   8.124   1.041 -0.6472  0.0343 -0.3862
64026SOL    HW199318   5.570   8.156   1.128 -1.0838 -1.0320 -0.1103
64026SOL    HW299319   5.540   8.174   0.981  0.1112  1.2386 -0.1017
64027SOL     OW99320   5.682   7.731  12.342  0.2504  0.4406 -0.0120
64027SOL    HW199321   5.657   7.787  12.416 -2.4204 -1.4632  0.6884
64027SOL    HW299322   5.767   7.696  12.366  0.8916  2.3117  0.6169
64028SOL     OW99323   1.297   4.436   9.730  0.3859 -0.2728 -0.1201
64028SOL    HW199324   1.386   4.422   9.698  1.0960  0.6221  1.3673
64028SOL    HW299325   1.243   4.378   9.676  1.2248  2.1520 -3.9252
64029SOL     OW99326   9.640   7.527   7.984  0.3587 -0.0691  0.1502
64029SOL    HW199327   9.696   7.483   8.047 -0.7528 -0.2202  1.0794
64029SOL    HW299328   9.605   7.457   7.928  2.3437  0.1928 -1.5299
64030SOL     OW99329   0.522  11.713  11.238 -0.0380  0.6613 -0.6728
64030SOL    HW199330   0.436  11.729  11.198 -0.7568 -3.5841 -1.2950
64030SOL    HW299331   0.584  11.736  11.169 -0.7115  2.0165 -0.8741
64031SOL     OW99332   8.985  10.543   1.223 -0.1046  0.3391 -0.6002
64031SOL    HW199333   8.932  10.577   1.152  0.4058  1.4912 -0.4560
64031SOL    HW299334   9.064  10.509   1.181  0.9707  2.5304 -0.5275
64032SOL     OW99335   0.715  11.534   1.760 -0.1534 -0.1702  0.2047
64032SOL    HW199336   0.810  11.531   1.750  0.0318  1.4839  1.1158
64032SOL    HW299337   0.684  11.580   1.682 -0.0890  0.3417  0.4810
64033SOL     OW99338  10.541   4.266   6.356  0.6458 -0.2303  0.4565
64033SOL    HW199339  10.470   4.201   6.354  0.5282 -0.0946 -1.4327
64033SOL    HW299340  10.621   4.214   6.354  0.5651 -0.3398 -0.0292
64034SOL     OW99341  10.430   2.626   8.635 -0.0260  0.5606 -0.1594
64034SOL    HW199342  10.478   2.650   8.555  1.3279 -0.2083  0.3889
64034SOL    HW299343  10.487   2.654   8.706 -0.2699 -0.5812  0.5131
64035SOL     OW99344   8.570   5.811   4.837  0.2303 -0.2797  0.7334
64035SOL    HW199345   8.652   5.776   4.873  0.6817 -0.9846 -0.8858
64035SOL    HW299346   8.501   5.771   4.890  0.8846 -0.7127  1.2755
64036SOL     OW99347   3.271   2.217   5.870 -0.1369  0.5401  0.1118
64036SOL    HW199348   3.351   2.181   5.832  0.2527  0.0053  1.3625
64036SOL    HW299349   3.217   2.241   5.795  1.1434  0.7990 -0.7612
64037SOL     OW99350   6.707   7.889  11.228  0.4403  0.0082  0.5643
64037SOL    HW199351   6.700   7.793  11.228  0.2813  0.0034  1.7165
64037SOL    HW299352   6.787   7.907  11.277 -0.9463  0.5002  2.7833
64038SOL     OW99353   5.694   6.174  10.866  0.5291 -0.4584 -0.7296
64038SOL    HW199354   5.705   6.180  10.771  0.6372  0.2950 -0.6785
64038SOL    HW299355   5.693   6.265  10.896  0.5257 -0.6872 -0.0037
64039SOL     OW99356   4.319   2.737   4.710 -0.6188  0.0380 -0.0513
64039SOL    HW199357   4.406   2.720   4.746 -1.2415 -2.1952  0.5364
64039SOL    HW299358   4.327   2.823   4.669  0.9396  1.4415  2.8750
64040SOL     OW99359   2.520   9.001   8.437  0.5007 -0.4910 -0.2044
64040SOL    HW199360   2.564   9.022   8.520 -0.1152  0.7672 -0.1762
64040SOL    HW299361   2.492   9.086   8.403  1.4436 -0.8978 -2.1106
64041SOL     OW99362   5.613   4.145  11.601  0.1658 -0.0901 -0.1280
64041SOL    HW199363   5.676   4.199  11.648 -0.0904  1.3169 -1.2953
64041SOL    HW299364   5.619   4.059  11.642  2.8597 -0.0366 -0.1965
64042SOL     OW99365   3.095   2.052   5.107 -0.3191 -0.0459 -0.4093
64042SOL    HW199366   3.177   2.098   5.088  0.1359  0.0690  1.6018
64042SOL    HW299367   3.123   1.973   5.154 -1.3425 -0.1993 -0.0455
64043SOL     OW99368   7.801   9.428   1.834  0.1308  0.2666 -0.4717
64043SOL    HW199369   7.802   9.355   1.772 -0.6153 -1.1354  1.0894
64043SOL    HW299370   7.877   9.413   1.890  0.5385  1.2608 -0.7349
64044SOL     OW99371   6.523   4.499   7.785  0.7086 -0.0622 -0.5204
64044SOL    HW199372   6.554   4.547   7.708  0.9686  0.6733  0.0370
64044SOL    HW299373   6.465   4.561   7.829  1.0573 -0.2537  0.2152
64045SOL     OW99374   6.919   1.199   0.845 -0.5653 -0.8389 -0.0828
64045SOL    HW199375   7.000   1.231   0.884  0.0733  0.0371 -2.0261
64045SOL    HW299376   6.942   1.173   0.756 -2.0596 -2.3303 -0.1033
64046SOL     OW99377   6.288   0.132  10.042  0.0353 -0.4635 -0.1130
64046SOL    HW199378   6.213   0.104  10.094 -0.4039  1.2762  0.2619
64046SOL    HW299379   6.251   0.178   9.967  0.7065 -1.6198 -1.2012
64047SOL     OW99380  11.214   7.224   7.631 -0.4526 -0.1822 -0.0459
64047SOL    HW199381  11.149   7.155   7.644 -0.6601 -0.2614 -1.4377
64047SOL    HW299382  11.163   7.306   7.635 -1.0802 -0.2968 -3.1931
64048SOL     OW99383  11.133  11.034  11.833  0.0886 -0.3291 -0.1078
64048SOL    HW199384  11.044  11.057  11.804  1.0853  3.8330 -0.5864
64048SOL    HW299385  11.165  10.974  11.765 -1.8169 -0.6782 -0.7698
64049SOL     OW99386   9.434   7.328   3.925 -0.2406 -0.3573 -0.2978
64049SOL    HW199387   9.522   7.295   3.909 -0.0374  0.7047 -1.5760
64049SOL    HW299388   9.377   7.273   3.872 -0.9308 -3.4555  3.2355
64050SOL     OW99389   9.778   3.119   9.224  0.6137 -0.4726  0.3513
64050SOL    HW199390   9.689   3.147   9.203  0.9137 -0.5632 -1.1339
64050SOL    HW299391   9.793   3.043   9.168  1.3329 -0.9963  1.2202
64051SOL     OW99392  10.884   7.406   0.518  0.3517 -0.0646 -0.2158
64051SOL    HW199393  10.927   7.469   0.461  0.5664 -0.3666 -0.3958
64051SOL    HW299394  10.891   7.443   0.606 -1.6403  1.3316 -0.5738
64052SOL     OW99395   6.238   9.938   9.107  0.0017  0.0156 -0.7299
64052SOL    HW199396   6.258  10.024   9.069  1.5600  0.6524  1.3125
64052SOL    HW299397   6.284   9.938   9.191  1.5957 -3.4888 -1.3871
64053SOL     OW99398   3.439   3.582   8.884 -0.3649  0.0766 -0.5518
64053SOL    HW199399   3.387   3.525   8.941  0.7112 -0.2704  0.1054
64053SOL    HW299400   3.382   3.598   8.808 -1.5609  0.0020  0.2986
64054SOL     OW99401   4.472  10.838   9.290  0.3199  0.2793 -0.2492
64054SOL    HW199402   4.434  10.883   9.214 -2.4477  0.2989  1.0140
64054SOL    HW299403   4.471  10.745   9.266 -0.1695  0.3215 -0.4073
64055SOL     OW99404  10.734  10.822  12.669 -0.1277  0.0415  0.2806
64055SOL    HW199405  10.675  10.799  12.596 -1.3088  0.7799  0.9703
64055SOL    HW299406  10.737  10.918  12.667  1.5993 -0.0004 -0.1400
64056SOL     OW99407   6.473   7.931   4.276 -0.0597  0.3193 -0.3796
64056SOL    HW199408   6.409   7.914   4.346 -1.0551 -0.4711 -1.4358
64056SOL    HW299409   6.502   7.843   4.250  0.1628  0.6004 -1.0813
64057SOL     OW99410   4.778   5.791   9.546  0.0296 -0.4256  0.6139
64057SOL    HW199411   4.763   5.778   9.640  2.1928 -1.4661  0.8733
64057SOL    HW299412   4.753   5.707   9.507 -2.3476  0.4870 -0.0232
64058SOL     OW99413  11.487   7.804   2.304  0.6980  0.5350 -0.2313
64058SOL    HW199414  11.394   7.794   2.284  0.1241  0.6157  2.1792
64058SOL    HW299415  11.494   7.889   2.347  1.5201 -0.3004  1.3857
64059SOL     OW99416   9.251  12.098   0.249  0.0503  0.3323  0.5843
64059SOL    HW199417   9.309  12.149   0.307 -0.5846  1.6849  0.0601
64059SOL    HW299418   9.165  12.102   0.292  0.1762 -1.1208  1.0221
64060SOL     OW99419   8.583  11.928  10.995  0.3174  0.3906 -0.4629
64060SOL    HW199420   8.647  11.902  10.929 -1.8267 -1.4001 -1.9758
64060SOL    HW299421   8.550  11.845  11.031 -2.4424  1.0941 -1.1022
64061SOL     OW99422   3.976   3.845   2.058  0.4589 -0.3168  0.5666
64061SOL    HW199423   3.897   3.800   2.029  0.8107 -1.3816  1.2142
64061SOL    HW299424   3.999   3.902   1.984 -0.9839  0.1315  0.4303
64062SOL     OW99425   5.643   9.645  12.579  0.2349  0.3964  0.0260
64062SOL    HW199426   5.628   9.632  12.672  0.2460  2.2647  0.3232
64062SOL    HW299427   5.559   9.624  12.538  0.4353 -1.1606  0.3392
64063SOL     OW99428   7.610   3.056   5.883 -0.4095 -0.2655 -0.2455
64063SOL    HW199429   7.525   3.036   5.924  0.7294 -0.9611  1.9837
64063SOL    HW299430   7.641   2.971   5.850  0.0792 -0.3271  0.3498
64064SOL     OW99431   8.355   1.197   9.956 -0.3058 -0.8594  0.2179
64064SOL    HW199432   8.306   1.140   9.897 -0.3027 -1.1106  0.4546
64064SOL    HW299433   8.443   1.201   9.917 -0.5365 -0.3210 -0.2662
64065SOL     OW99434   9.318   2.865   0.136 -0.5539 -0.0749  0.7142
64065SOL    HW199435   9.227   2.858   0.110 -0.7849 -0.3782  1.5847
64065SOL    HW299436   9.364   2.799   0.085 -0.3291  1.8517 -1.7752
64066SOL     OW99437   7.959   5.384   3.862  0.2397  0.2981 -0.1992
64066SOL    HW199438   8.022   5.313   3.878  1.0529  0.8197 -1.0241
64066SOL    HW299439   7.926   5.366   3.774  2.8615  2.6695 -1.8327
64067SOL     OW99440   1.074   3.373   6.921 -0.4414  0.3018  0.6246
64067SOL    HW199441   1.056   3.454   6.968 -0.9945 -1.4847  3.7239
64067SOL    HW299442   1.148   3.334   6.967  0.3888 -0.6165 -1.3481
64068SOL     OW99443  11.314   4.477  11.674  0.4376  0.0078 -0.2810
64068SOL    HW199444  11.279   4.537  11.609  2.0809  0.7805 -0.5184
64068SOL    HW299445  11.372   4.420  11.624  0.2423 -0.6341  0.2214
64069SOL     OW99446   1.507   9.288   1.158 -0.7756 -0.2846 -0.0623
64069SOL    HW199447   1.560   9.362   1.129  0.3929 -0.9489  0.3043
64069SOL    HW299448   1.468   9.316   1.241 -1.9048  0.6045 -0.8590
64070SOL     OW99449   2.761  11.738   7.383  0.1335  0.4245  0.1221
64070SOL    HW199450   2.833  11.759   7.443 -0.7594  2.1120  0.6588
64070SOL    HW299451   2.684  11.779   7.422 -1.6723 -3.1405  0.7133
64071SOL     OW99452  11.162   6.042  11.378 -0.3199 -0.1277 -0.2779
64071SOL    HW199453  11.082   6.060  11.328 -0.5648  0.3272  0.2687
64071SOL    HW299454  11.196   6.128  11.401 -1.5972 -0.2653  2.5106
64072SOL     OW99455   8.697   1.013   0.925 -0.4590  0.7097  0.2553
64072SOL    HW199456   8.736   1.012   1.012 -0.3086  0.5270  0.1873
64072SOL    HW299457   8.763   0.971   0.869 -0.9033  0.0802  0.2003
64073SOL     OW99458   4.929   7.604   2.509 -0.5016  0.1668 -0.2439
64073SOL    HW199459   4.865   7.556   2.562 -0.5839  0.0859 -0.4149
64073SOL    HW299460   4.877   7.641   2.438 -0.1186 -1.2055 -1.2785
64074SOL     OW99461   1.414   9.085   5.199  0.1808  0.0795 -0.4750
64074SOL    HW199462   1.454   9.171   5.211  0.5356 -0.1484  0.0388
64074SOL    HW299463   1.320   9.102   5.193  0.3236  0.5856 -1.3222
64075SOL     OW99464   5.764   2.231  10.727  0.3761  0.3192 -0.0451
64075SOL    HW199465   5.837   2.292  10.738  0.9777 -0.4707  0.4923
64075SOL    HW299466   5.783   2.160  10.788 -0.0043 -0.6905 -1.0632
64076SOL     OW99467   5.275  11.066   4.735  0.0431 -0.2016 -0.1129
64076SOL    HW199468   5.319  11.016   4.666 -1.5620  1.0401 -2.1400
64076SOL    HW299469   5.189  11.027   4.742 -0.3063  0.5915  0.1449
64077SOL     OW99470  12.493   7.331  11.568 -0.0608  0.0236  0.7053
64077SOL    HW199471  12.469   7.317  11.477 -0.4406  0.9221  0.6633
64077SOL    HW299472  12.531   7.247  11.596  0.1585 -0.2214 -0.3036
64078SOL     OW99473   0.941   1.135   4.958  0.5247  0.5655  0.5221
64078SOL    HW199474   1.017   1.163   4.907  0.0404 -0.0049 -0.5339
64078SOL    HW299475   0.967   1.150   5.049  2.5380 -1.1598  0.3043
64079SOL     OW99476   9.524   9.837   3.234  0.3758  0.0358  0.0849
64079SOL    HW199477   9.607   9.794   3.256  1.3059  1.3988 -0.6781
64079SOL    HW299478   9.521   9.914   3.290 -0.1940  0.2046 -0.1676
64080SOL     OW99479  10.446   9.296   4.851  0.5044 -0.3319 -0.0309
64080SOL    HW199480  10.478   9.372   4.899 -0.2548  0.8798 -1.3919
64080SOL    HW299481  10.426   9.328   4.764 -3.5940 -1.1523  0.4174
64081SOL     OW99482   2.235   0.045   2.049  0.3801 -0.8977  0.0271
64081SOL    HW199483   2.259  -0.011   1.975 -0.3315  0.6673 -1.4603
64081SOL    HW299484   2.195   0.122   2.008  0.9660  0.5145  2.0059
64082SOL     OW99485   8.020   0.364   2.065 -0.7004  0.7305 -0.0666
64082SOL    HW199486   8.094   0.326   2.019 -0.6660  0.6818  0.0277
64082SOL    HW299487   8.001   0.445   2.018  0.1340  1.3258  0.5797
64083SOL     OW99488  10.775   4.672  11.697  0.4780  0.3005 -0.0552
64083SOL    HW199489  10.822   4.734  11.753 -0.5674 -0.1534  1.4076
64083SOL    HW299490  10.733   4.727  11.630  0.4743  1.0524  0.5512
64084SOL     OW99491   3.369   7.539  12.441 -0.1716 -0.0623 -0.2217
64084SOL    HW199492   3.309   7.594  12.492  0.5980  0.2142  0.4111
64084SOL    HW299493   3.391   7.467  12.500  0.0854 -0.1862 -0.4671
64085SOL     OW99494  11.652   6.653   7.940  0.2446 -0.3623  0.4632
64085SOL    HW199495  11.603   6.573   7.958 -0.6449  0.0507 -0.0870
64085SOL    HW299496  11.596   6.724   7.972  0.8663  0.0655  0.6243
64086SOL     OW99497   3.325   7.920   8.334 -0.1013 -0.3360  0.4477
64086SOL    HW199498   3.356   7.994   8.282  0.7490 -0.2861  1.0017
64086SOL    HW299499   3.229   7.923   8.325 -0.0797  0.7927  0.4156
64087SOL     OW99500   9.793   9.485   3.667  0.3116 -0.4489  0.5963
64087SOL    HW199501   9.703   9.511   3.686  0.4757 -0.1528  0.9711
64087SOL    HW299502   9.840   9.499   3.749  1.3653  2.2169 -0.3711
64088SOL     OW99503  10.216   6.782  10.011 -0.4942  0.3001 -0.3047
64088SOL    HW199504  10.130   6.805  10.045 -0.8050 -0.8417 -0.2954
64088SOL    HW299505  10.277   6.837  10.061 -1.0966  0.0023  0.7774
64089SOL     OW99506   1.490   2.586  10.611  0.1706  0.3102  0.0119
64089SOL    HW199507   1.500   2.610  10.703 -2.0675 -0.9995  0.6815
64089SOL    HW299508   1.397   2.601  10.592  0.9327  2.5476 -2.7068
64090SOL     OW99509   2.314   5.914   1.563  0.2648 -0.0877 -0.5746
64090SOL    HW199510   2.242   5.959   1.606  0.7665 -0.2654  0.4716
64090SOL    HW299511   2.297   5.821   1.577  0.4494 -0.1489 -0.7407
64091SOL     OW99512   9.823   0.920   7.763 -0.5412  0.1243  0.0910
64091SOL    HW199513   9.809   0.875   7.847  0.8038  0.5019  0.5509
64091SOL    HW299514   9.914   0.948   7.767 -0.5902  0.5255 -1.3371
64092SOL     OW99515   6.903  12.300   7.385  0.7417 -0.3183 -0.2419
64092SOL    HW199516   6.922  12.375   7.330  0.8895 -1.3679 -1.6922
64092SOL    HW299517   6.842  12.247   7.333  1.6929 -1.8542  0.1365
64093SOL     OW99518   3.764   4.843  11.307 -0.2304  0.0419 -0.2003
64093SOL    HW199519   3.682   4.849  11.259 -0.0097 -0.4534 -0.6491
64093SOL    HW299520   3.746   4.783  11.379 -0.5150  0.6559  0.2507
64094SOL     OW99521  10.224   4.169   2.258 -0.2929 -0.0797 -0.0580
64094SOL    HW199522  10.137   4.178   2.219 -0.3155  1.2252  0.2500
64094SOL    HW299523  10.269   4.105   2.203 -0.4323  1.4535 -2.0891
64095SOL     OW99524   7.038   2.176   2.690 -0.0902 -0.0831 -0.0292
64095SOL    HW199525   6.983   2.103   2.720 -1.3663 -0.1433 -2.3007
64095SOL    HW299526   7.017   2.186   2.597  4.5320 -0.7922 -1.4174
64096SOL     OW99527  12.341   6.700   4.992  0.5597  0.2908 -0.0276
64096SOL    HW199528  12.266   6.685   5.050 -0.0054 -1.6147 -1.1821
64096SOL    HW299529  12.387   6.774   5.032 -1.8965  1.5254  0.7299
64097SOL     OW99530  10.073   7.412   1.343 -0.0049 -0.1135 -0.2403
64097SOL    HW199531  10.078   7.317   1.336 -1.3739 -0.1749 -0.8421
64097SOL    HW299532   9.984   7.429   1.373  0.3727  0.9679  0.3336
64098SOL     OW99533   3.344   9.196  10.076 -0.1624 -0.3265  0.2061
64098SOL    HW199534   3.301   9.201   9.991 -0.6261 -1.1814  0.3756
64098SOL    HW299535   3.437   9.211  10.056 -0.2674 -0.4814 -0.4470
64099SOL     OW99536   5.609   0.222   5.070  0.2045 -0.1324 -0.5701
64099SOL    HW199537   5.590   0.194   4.980  1.4043  0.9609 -1.1969
64099SOL    HW299538   5.545   0.291   5.088  0.0148 -0.2976 -0.6045
64100SOL     OW99539   0.225   1.052   1.231 -0.4851 -0.0605  0.6620
64100SOL    HW199540   0.283   1.107   1.179 -0.6080  1.6074  2.2175
64100SOL    HW299541   0.155   1.028   1.171  0.5582 -0.1466 -0.5746
64101SOL     OW99542   9.504   9.325   5.551  0.3338 -0.1977  0.1600
64101SOL    HW199543   9.583   9.277   5.576 -0.4945 -1.0188  1.3336
64101SOL    HW299544   9.536   9.409   5.518  1.7446 -0.9566 -0.5084
64102SOL     OW99545   7.859   4.242   1.814 -0.4121 -0.1438 -0.3544
64102SOL    HW199546   7.933   4.215   1.867  0.6257 -0.1134 -1.7418
64102SOL    HW299547   7.820   4.159   1.784  0.1270 -0.1548 -1.0431
64103SOL     OW99548   7.528   0.456   9.574 -0.2576  0.1255 -0.0095
64103SOL    HW199549   7.483   0.392   9.629  1.5275 -1.0257  0.2132
64103SOL    HW299550   7.486   0.539   9.594 -1.1285 -0.6164  1.4304
64104SOL     OW99551   6.837   8.113   6.015  0.0774  0.0313 -0.1909
64104SOL    HW199552   6.929   8.095   5.994  0.0448 -0.8062  0.3190
64104SOL    HW299553   6.813   8.185   5.957  0.8632 -0.1851 -0.8137
64105SOL     OW99554  12.311   0.856   5.873 -0.0123  0.8746 -0.0335
64105SOL    HW199555  12.218   0.858   5.852 -0.1073 -0.2063  0.2405
64105SOL    HW299556  12.319   0.787   5.939  1.1267  0.2315 -0.8028
64106SOL     OW99557   0.833   5.703   6.459  0.0229 -0.6200  0.3298
64106SOL    HW199558   0.852   5.795   6.479  2.0270 -1.1523  1.1977
64106SOL    HW299559   0.858   5.693   6.367  1.5877 -0.6586  0.7196
64107SOL     OW99560   9.962   8.103   2.631  0.1609  0.1319  0.5090
64107SOL    HW199561   9.984   8.082   2.540 -0.2469  0.5743  0.3059
64107SOL    HW299562  10.032   8.162   2.659  1.2309 -1.3160  1.0346
64108SOL     OW99563  11.784   9.547   5.062  0.3095  0.3600 -0.0151
64108SOL    HW199564  11.699   9.511   5.086 -0.4129  1.1702 -1.2306
64108SOL    HW299565  11.766   9.602   4.985  1.8867  0.7509 -0.1438
64109SOL     OW99566  10.747   4.271   4.654 -0.5719 -0.2012  0.2919
64109SOL    HW199567  10.818   4.215   4.683  0.4094  1.6529  1.6911
64109SOL    HW299568  10.733   4.333   4.726 -2.9741  0.1041 -0.3264
64110SOL     OW99569  12.455   1.640   1.266 -0.2481 -0.0582 -0.5454
64110SOL    HW199570  12.371   1.597   1.285 -0.1531 -0.6658 -1.4548
64110SOL    HW299571  12.511   1.615   1.340 -0.2673 -1.3281 -0.9272
64111SOL     OW99572   0.460  11.159   7.602 -0.7234  0.1553  0.1144
64111SOL    HW199573   0.486  11.225   7.666  0.3529  0.5117 -0.6596
64111SOL    HW299574   0.384  11.115   7.642 -1.1316  1.4958  0.8714
64112SOL     OW99575   4.646   0.474   7.188  0.3049 -0.0157 -0.1571
64112SOL    HW199576   4.686   0.401   7.140  0.4196 -0.2607  0.3004
64112SOL    HW299577   4.695   0.478   7.270 -0.3152 -0.0268  0.2232
64113SOL     OW99578   9.855   0.915   6.050  0.2497  0.1628  0.0905
64113SOL    HW199579   9.835   0.821   6.056  0.4867  0.0887 -0.2894
64113SOL    HW299580   9.835   0.938   5.959 -0.2487  0.5854  0.2992
64114SOL     OW99581  10.558   2.968   1.179  0.6351 -0.2428  0.4497
64114SOL    HW199582  10.483   2.942   1.127 -0.8480 -1.8621  3.2088
64114SOL    HW299583  10.633   2.925   1.137 -0.2163 -0.1743 -1.2072
64115SOL     OW99584   8.025   1.318  10.058 -0.2872  0.0801 -0.2191
64115SOL    HW199585   7.949   1.374  10.076 -1.3295 -0.5169 -2.4003
64115SOL    HW299586   8.099   1.364  10.099 -1.5093  1.7047  0.2857
64116SOL     OW99587   8.886   9.830   1.422  0.1679 -0.3029  0.0075
64116SOL    HW199588   8.916   9.906   1.372  2.4623 -1.7687 -1.0420
64116SOL    HW299589   8.965   9.776   1.433 -1.5443 -3.0658 -0.2810
64117SOL     OW99590   1.325  11.536   7.392 -0.1093  0.2540 -0.0519
64117SOL    HW199591   1.232  11.528   7.369  0.0045 -0.2202 -0.3623
64117SOL    HW299592   1.342  11.461   7.450  0.1824  0.0918 -0.3460
64118SOL     OW99593  11.854   2.238   3.182  0.1893  0.3977  0.1790
64118SOL    HW199594  11.818   2.326   3.194  0.6005  0.5879  0.0259
64118SOL    HW299595  11.777   2.182   3.172 -0.0707  0.7739  0.0561
64119SOL     OW99596   7.034  10.024  12.082  0.1095  0.8910  0.6076
64119SOL    HW199597   6.938  10.027  12.085  0.0453  1.5865 -0.9975
64119SOL    HW299598   7.060  10.006  12.172 -1.5446 -0.0338  0.9432
64120SOL     OW99599   1.783   3.905   5.071 -0.4885 -0.1252 -0.6164
64120SOL    HW199600   1.729   3.963   5.018 -1.5341 -0.0316  0.5214
64120SOL    HW299601   1.871   3.914   5.033 -0.7696  1.5953 -0.9571
64121SOL     OW99602   9.804   8.743  12.138 -0.0563  0.5972  0.0607
64121SOL    HW199603   9.744   8.782  12.075 -0.4325 -0.5447 -0.3101
64121SOL    HW299604   9.751   8.730  12.217  0.0591  0.7828  0.1700
64122SOL     OW99605   4.891  12.438   7.557 -0.8838 -0.1575  0.3876
64122SOL    HW199606   4.884  12.491   7.636 -0.9540  1.3622 -0.5888
64122SOL    HW299607   4.981  12.405   7.558 -1.5509 -2.1116  2.2400
64123SOL     OW99608   0.751   8.687   6.721  0.3835  0.5854  0.5401
64123SOL    HW199609   0.755   8.780   6.699  1.1051  0.2337 -0.9470
64123SOL    HW299610   0.767   8.642   6.638 -0.1222 -0.8775  1.1950
64124SOL     OW99611   2.413   2.333  11.713 -0.5490 -0.1026  0.1511
64124SOL    HW199612   2.488   2.321  11.771  0.1322  3.8234  0.3090
64124SOL    HW299613   2.438   2.288  11.632  0.9657 -0.7378  0.9342
64125SOL     OW99614   9.147   5.218  11.185 -0.4628  0.2917  0.0545
64125SOL    HW199615   9.164   5.178  11.270 -0.7004 -0.8175 -0.4028
64125SOL    HW299616   9.058   5.252  11.192 -0.1483  1.0618  0.5487
64126SOL     OW99617  12.192   2.715   2.805 -0.1102 -0.7990 -0.3404
64126SOL    HW199618  12.246   2.649   2.761 -1.1031 -3.2720  1.8528
64126SOL    HW299619  12.249   2.751   2.873  0.2877  0.3579 -1.2522
64127SOL     OW99620   2.911  10.176   3.696  0.2090 -0.0758 -0.0059
64127SOL    HW199621   2.830  10.133   3.722  0.3515  0.0964  0.7562
64127SOL    HW299622   2.888  10.269   3.689  0.3342 -0.0309  0.1811
64128SOL     OW99623  10.902   1.059   6.639  0.2068  0.0994 -0.3603
64128SOL    HW199624  10.816   1.090   6.613 -0.1031 -1.4435 -1.3055
64128SOL    HW299625  10.944   1.031   6.558  0.7277 -1.2379  0.3346
64129SOL     OW99626  11.270   8.917   5.912  0.7541  0.2692  0.4970
64129SOL    HW199627  11.207   8.882   5.848 -0.1679 -0.2928  1.6721
64129SOL    HW299628  11.347   8.940   5.859 -0.3166  0.7049 -0.9381
64130SOL     OW99629   1.563   1.163   4.329 -0.2939  0.5549 -0.3747
64130SOL    HW199630   1.645   1.119   4.304 -0.7018 -0.9057  0.7240
64130SOL    HW299631   1.588   1.220   4.402 -0.0965  0.7705 -0.6097
64131SOL     OW99632   8.990   9.881   2.469 -0.3721 -0.5977 -0.1073
64131SOL    HW199633   9.055   9.816   2.443 -0.9850 -1.4536  0.4248
64131SOL    HW299634   8.906   9.837   2.454 -0.7985  0.1356  0.1115
64132SOL     OW99635   9.204   2.714   2.677  0.3198  0.1119 -0.1922
64132SOL    HW199636   9.197   2.627   2.637 -0.9552 -0.0659  0.3929
64132SOL    HW299637   9.117   2.751   2.668  0.8722  1.3820 -0.5042
64133SOL     OW99638   0.899  11.187   7.436 -0.0601  0.5247 -0.2162
64133SOL    HW199639   0.812  11.218   7.460  0.0604  1.0531 -0.4280
64133SOL    HW299640   0.938  11.261   7.388  0.4061  0.2011 -0.3446
64134SOL     OW99641  10.869   2.473   5.183 -0.1796 -0.3833  0.1069
64134SOL    HW199642  10.878   2.489   5.277  0.3480  0.3051 -0.0567
64134SOL    HW299643  10.776   2.454   5.171 -0.4398  0.5093  0.6279
64135SOL     OW99644  10.308   6.821   2.302 -0.2295 -0.2260  0.4962
64135SOL    HW199645  10.341   6.908   2.279 -0.0854 -0.2634  0.5601
64135SOL    HW299646  10.222   6.838   2.341 -0.2738 -0.1260  0.3570
64136SOL     OW99647  10.724   8.000   1.697  0.1022  0.2082  0.5814
64136SOL    HW199648  10.762   8.048   1.623 -1.7052  1.6093  0.4615
64136SOL    HW299649  10.634   7.980   1.668 -1.2817  2.3689  2.9528
64137SOL     OW99650   5.149   6.300   4.865  0.3204  0.2287  0.2431
64137SOL    HW199651   5.111   6.357   4.798  0.2927  0.4154  0.4179
64137SOL    HW299652   5.229   6.267   4.825  0.0310 -0.0804 -0.0855
64138SOL     OW99653   6.212   7.655   0.887  0.0699  0.4485 -0.0277
64138SOL    HW199654   6.147   7.717   0.854  0.9248  1.5746  0.3400
64138SOL    HW299655   6.264   7.706   0.950 -0.3961 -1.1435  1.7349
64139SOL     OW99656   7.175  10.396  10.050  0.0591  0.2555  0.3663
64139SOL    HW199657   7.119  10.327  10.014 -0.5166  0.6579  0.4699
64139SOL    HW299658   7.264  10.361  10.044 -0.0699  0.1023 -0.9774
64140SOL     OW99659  11.211   5.709   3.965 -0.4544  0.5470  0.2200
64140SOL    HW199660  11.116   5.702   3.971 -0.3870  0.5171  1.5400
64140SOL    HW299661  11.228   5.803   3.961 -0.4837  0.6197  1.4922
64141SOL     OW99662   8.851   0.774   4.644 -0.0359 -0.5181  0.4668
64141SOL    HW199663   8.875   0.737   4.559 -0.6235  1.7696 -0.7710
64141SOL    HW299664   8.932   0.776   4.694  0.5145 -1.0478 -0.3839
64142SOL     OW99665   7.316   4.632   8.723 -1.1414  0.2522  0.1149
64142SOL    HW199666   7.328   4.538   8.710 -2.0390 -0.0124  1.0498
64142SOL    HW299667   7.344   4.671   8.641  1.2136 -0.6483  0.4060
64143SOL     OW99668   9.383  10.298   2.684 -0.1813  0.1298  0.2042
64143SOL    HW199669   9.471  10.269   2.660  0.8603  1.7255  1.8348
64143SOL    HW299670   9.343  10.222   2.725  1.1126 -0.1433  1.0254
64144SOL     OW99671  11.340  12.174   0.994  0.2576  0.4098  0.6175
64144SOL    HW199672  11.308  12.172   0.904  1.6708  1.8261  0.0332
64144SOL    HW299673  11.433  12.156   0.987  1.2502  4.3086  1.2592
64145SOL     OW99674   8.135   0.084   4.485 -0.0086 -0.3815  0.0305
64145SOL    HW199675   8.147   0.159   4.543 -0.2253  0.3140 -0.7901
64145SOL    HW299676   8.040   0.074   4.478  0.0105 -0.3630 -0.3026
64146SOL     OW99677   7.788   9.537   0.345 -0.6525 -0.0000 -0.1389
64146SOL    HW199678   7.743   9.617   0.316 -0.6266 -0.1840 -0.6996
64146SOL    HW299679   7.879   9.549   0.317 -0.0229  0.9196  2.0670
64147SOL     OW99680  10.011   6.059   5.242 -0.4547 -0.0377 -0.2291
64147SOL    HW199681  10.055   5.976   5.262 -1.2001 -0.5651 -0.7310
64147SOL    HW299682   9.971   6.086   5.324  0.5405  0.3027  0.1638
64148SOL     OW99683   2.911   2.219   9.307  0.2219  0.7676  0.3261
64148SOL    HW199684   2.975   2.287   9.328  0.0615  1.1347 -0.3468
64148SOL    HW299685   2.861   2.208   9.388  0.3425  1.3514  0.4905
64149SOL     OW99686  12.487   6.419  12.396  0.0624  0.2635 -0.1369
64149SOL    HW199687  12.392   6.430  12.392  0.2501  1.9577 -0.7868
64149SOL    HW299688  12.506   6.416  12.490 -0.7505 -1.7067  0.0174
64150SOL     OW99689   9.561   7.759   9.084  0.4073 -0.7427 -0.3046
64150SOL    HW199690   9.470   7.731   9.092  0.5483 -1.9416 -2.2179
64150SOL    HW299691   9.608   7.681   9.053  2.0022 -0.0148  0.1464
64151SOL     OW99692   5.136  12.368  10.013  0.0086 -0.4048  0.0198
64151SOL    HW199693   5.129  12.436   9.946  2.0196 -0.6261 -0.4598
64151SOL    HW299694   5.121  12.414  10.096  2.0655  0.8131 -0.2268
64152SOL     OW99695   9.832   5.009   4.401  0.6393 -0.2589  0.0003
64152SOL    HW199696   9.828   5.086   4.344  0.3196  0.0504  0.4346
64152SOL    HW299697   9.925   4.995   4.417  0.6566  2.0349  2.5720
64153SOL     OW99698   2.165   4.306   1.145 -0.1245  0.1795 -0.0641
64153SOL    HW199699   2.118   4.248   1.205 -0.1887  0.0501 -0.2392
64153SOL    HW299700   2.117   4.299   1.062 -0.6616  1.1330  0.1372
64154SOL     OW99701   5.366   4.392  11.661 -0.5691  0.2532  0.6596
64154SOL    HW199702   5.289   4.418  11.609 -0.5947 -0.3112  0.4087
64154SOL    HW299703   5.341   4.309  11.701 -0.8031  1.0041  2.1465
64155SOL     OW99704   6.039  10.211   1.256  0.6879  0.3013 -0.4915
64155SOL    HW199705   5.949  10.223   1.287  1.4298 -0.2352  2.1283
64155SOL    HW299706   6.035  10.132   1.202 -0.4686  0.4867 -0.7024
64156SOL     OW99707   9.272   5.411   9.862 -0.0475  0.2365  0.1284
64156SOL    HW199708   9.256   5.316   9.861 -0.8361  0.3140  1.7689
64156SOL    HW299709   9.326   5.427   9.785  0.1585 -1.5567 -0.1448
64157SOL     OW99710   7.075   9.074  12.056 -0.3312 -0.1929  0.0015
64157SOL    HW199711   7.096   9.030  11.974 -1.5134 -0.9838  0.1148
64157SOL    HW299712   7.058   9.004  12.118  0.3536  0.4003  0.8953
64158SOL     OW99713   4.636   7.770   0.690  0.3314  0.0588  0.0971
64158SOL    HW199714   4.622   7.712   0.765  1.1393  0.1091  0.2971
64158SOL    HW299715   4.639   7.712   0.615 -0.6935  0.0272  0.0685
64159SOL     OW99716   6.230   8.109  10.638 -0.8250 -0.0704  0.0556
64159SOL    HW199717   6.314   8.155  10.643 -1.7448  1.6201  0.5723
64159SOL    HW299718   6.203   8.118  10.547 -2.4669  3.3004  0.7121
64160SOL     OW99719   3.421   5.230   3.466  0.1712  0.3820 -0.4030
64160SOL    HW199720   3.335   5.199   3.496  0.7817  0.0353  1.0888
64160SOL    HW299721   3.422   5.323   3.488  0.6169  0.1288  0.7140
64161SOL     OW99722   3.919   7.498   9.950  0.2374  0.1591 -0.4071
64161SOL    HW199723   3.886   7.588   9.952 -0.7928 -0.2069 -0.4086
64161SOL    HW299724   3.843   7.444   9.974 -0.0465 -0.9396 -3.4066
64162SOL     OW99725   6.011  10.041   5.253 -0.5986  0.0936 -0.4577
64162SOL    HW199726   6.083  10.072   5.199 -0.2049 -1.2814 -0.7515
64162SOL    HW299727   6.045   9.963   5.298 -1.7534 -0.3439 -0.2863
64163SOL     OW99728   1.173   5.058   3.584 -0.4647 -0.6609 -0.0947
64163SOL    HW199729   1.122   5.134   3.556  0.5627  0.0699 -0.0477
64163SOL    HW299730   1.132   4.984   3.539 -1.7583 -0.1559  0.2020
64164SOL     OW99731   2.673  11.930  12.326 -0.4005 -0.1645 -0.1906
64164SOL    HW199732   2.665  11.925  12.421  0.9664  0.2485 -0.0303
64164SOL    HW299733   2.735  12.002  12.311 -1.4535  0.5138 -1.4434
64165SOL     OW99734   1.590   1.737  10.280  0.1370 -0.4532 -0.4625
64165SOL    HW199735   1.649   1.661  10.272  2.5564  1.1679  0.8076
64165SOL    HW299736   1.531   1.714  10.351  0.4029 -1.4113 -0.5362
64166SOL     OW99737   0.462  11.597   6.069 -0.4374 -0.1049  0.4615
64166SOL    HW199738   0.511  11.608   5.987  1.5396 -1.5744  1.3583
64166SOL    HW299739   0.505  11.656   6.130 -2.2539  1.3968  0.3748
64167SOL     OW99740  12.298   7.224  10.609 -0.8189 -0.2696 -1.0101
64167SOL    HW199741  12.292   7.319  10.600 -0.6547 -0.1320  0.1246
64167SOL    HW299742  12.386   7.202  10.578 -1.3759 -0.2592 -2.6735
64168SOL     OW99743   0.989   1.181  10.843  0.3907 -0.4317  0.2855
64168SOL    HW199744   1.041   1.260  10.863 -0.6250  0.0957  0.9304
64168SOL    HW299745   1.007   1.122  10.916  0.0126 -0.2134  0.5550
64169SOL     OW99746   3.382   2.747   6.972  0.1883  0.2656 -0.2509
64169SOL    HW199747   3.348   2.716   7.055  0.7262  0.6896  0.1334
64169SOL    HW299748   3.395   2.841   6.985 -1.2287  0.6653 -1.3155
64170SOL     OW99749   3.339   1.129   2.100  0.2104 -0.3309  0.0300
64170SOL    HW199750   3.392   1.056   2.066 -0.3086 -0.2946 -0.8660
64170SOL    HW299751   3.330   1.109   2.193  3.4270  0.6464  0.6954
64171SOL     OW99752   1.754   9.207  12.513  0.0950  0.2125  0.2773
64171SOL    HW199753   1.716   9.282  12.467  0.0803  0.6544  0.9902
64171SOL    HW299754   1.830   9.243  12.559  1.7254 -0.7635 -1.5341
64172SOL     OW99755   9.167   8.179   6.397 -0.2056 -0.1576  0.1009
64172SOL    HW199756   9.073   8.196   6.402 -0.2877 -0.3446 -0.7233
64172SOL    HW299757   9.176   8.085   6.410  0.0749  0.1296  2.4703
64173SOL     OW99758  11.148   2.810  10.897 -0.1563  0.5517  0.1438
64173SOL    HW199759  11.193   2.743  10.949 -0.9956  1.8034  2.5858
64173SOL    HW299760  11.188   2.802  10.810  1.2548 -1.6789  0.8981
64174SOL     OW99761   6.780   0.805   7.632  0.6523  0.2114 -0.5624
64174SOL    HW199762   6.762   0.717   7.665  0.7756  0.9786  1.7127
64174SOL    HW299763   6.707   0.825   7.574  0.2022 -1.0677 -0.4636
64175SOL     OW99764   1.122   8.876   1.665  0.6761  0.5863  0.1744
64175SOL    HW199765   1.127   8.929   1.586  1.2826 -1.9182 -1.5961
64175SOL    HW299766   1.202   8.896   1.713  0.6173  1.6466 -0.1507
64176SOL     OW99767  12.031   6.221   3.173 -0.0322  0.0098  0.1716
64176SOL    HW199768  12.046   6.128   3.154 -0.3113  0.0119 -0.0697
64176SOL    HW299769  12.010   6.223   3.267  2.0949  0.0881  0.6937
64177SOL     OW99770   6.481   8.872   0.140  0.3609 -0.0559  0.3828
64177SOL    HW199771   6.535   8.945   0.171  0.7533 -0.3540  0.3934
64177SOL    HW299772   6.408   8.869   0.202 -0.5601  1.3885 -0.5395
64178SOL     OW99773   3.550   3.535   8.494  0.6077 -0.0840  0.8918
64178SOL    HW199774   3.545   3.546   8.399  1.4366 -3.8539  0.2639
64178SOL    HW299775   3.632   3.488   8.509 -0.8275 -2.1495  3.0955
64179SOL     OW99776  12.430   9.784   7.283  0.0239  0.0483  0.2439
64179SOL    HW199777  12.435   9.718   7.352  0.7284 -0.9451 -0.7083
64179SOL    HW299778  12.491   9.853   7.310 -0.0591 -0.1066  0.8296
64180SOL     OW99779  11.489   8.098   8.722 -0.1413  0.0432 -0.7865
64180SOL    HW199780  11.531   8.147   8.792 -0.7635  0.1639 -0.4883
64180SOL    HW299781  11.521   8.009   8.732 -0.4695 -0.0090 -0.1385
64181SOL     OW99782   2.823  11.741   7.851  0.1303 -0.2829 -0.2127
64181SOL    HW199783   2.869  11.776   7.928  1.0504  0.3514 -1.0254
64181SOL    HW299784   2.748  11.798   7.840  0.6101  0.3183 -0.4291
64182SOL     OW99785  10.836   7.221   0.047  0.0640 -0.1604 -0.2161
64182SOL    HW199786  10.904   7.206   0.113  0.7193  1.6148 -0.4134
64182SOL    HW299787  10.755   7.220   0.097  0.4485 -0.0326  0.4345
64183SOL     OW99788   2.849   6.471  10.420  0.2469 -0.0293 -0.3711
64183SOL    HW199789   2.921   6.465  10.482  0.3111 -0.7641 -0.5176
64183SOL    HW299790   2.863   6.555  10.375  1.6343 -0.6470 -1.1614
64184SOL     OW99791   1.969   0.383  11.811  0.8005 -0.4143 -0.6156
64184SOL    HW199792   1.970   0.370  11.906  2.4716  2.1450 -0.1576
64184SOL    HW299793   1.990   0.476  11.800 -2.8055  0.3012 -3.4296
64185SOL     OW99794   5.671   4.080  10.655  0.3476  0.3218  0.0346
64185SOL    HW199795   5.656   4.174  10.666 -1.4427  0.0702  0.0839
64185SOL    HW299796   5.709   4.052  10.738  2.0128  1.1734 -0.3977
64186SOL     OW99797   4.459   6.862   3.709 -0.3328  0.1562  0.3945
64186SOL    HW199798   4.369   6.871   3.679 -0.0253 -0.0176 -0.6228
64186SOL    HW299799   4.506   6.934   3.666 -0.1257  0.7372  1.5475
64187SOL     OW99800   1.112   3.215   4.231 -0.3428 -0.2026 -0.1777
64187SOL    HW199801   1.173   3.189   4.162 -0.7915 -1.5978 -0.0947
64187SOL    HW299802   1.166   3.215   4.311  0.9185  4.2690 -0.7503
64188SOL     OW99803  10.244   4.434   5.378 -0.0373  0.1279  0.1629
64188SOL    HW199804  10.286   4.453   5.462  0.6256 -0.5466  0.0013
64188SOL    HW299805  10.307   4.465   5.313  0.7713 -1.8623 -0.0971
64189SOL     OW99806   1.079   1.406   0.078  0.4650 -0.3081  0.4560
64189SOL    HW199807   1.128   1.357   0.144 -1.1405 -2.9370 -0.1915
64189SOL    HW299808   0.996   1.428   0.122  0.4569  0.2969  0.1493
64190SOL     OW99809   6.564  11.863   6.580 -0.3053  0.6840  0.0531
64190SOL    HW199810   6.577  11.864   6.675  0.0908  2.0525 -0.0010
64190SOL    HW299811   6.647  11.892   6.543 -1.1307  2.3313 -0.6048
64191SOL     OW99812   1.906  10.283   4.602 -0.6089 -0.9828  0.2267
64191SOL    HW199813   1.824  10.330   4.587 -0.6632 -0.8832  0.7922
64191SOL    HW299814   1.889  10.227   4.678  0.2146  0.0135  1.1953
64192SOL     OW99815  11.854   1.458   2.027  0.2418  0.1618  0.6410
64192SOL    HW199816  11.853   1.521   2.099  0.8647 -0.4917  1.2440
64192SOL    HW299817  11.772   1.410   2.037  1.4833 -1.7482  2.6298
64193SOL     OW99818   9.668   5.079   0.748 -0.0135  0.3849  0.2995
64193SOL    HW199819   9.627   5.155   0.790 -1.3273  0.3454 -0.8474
64193SOL    HW299820   9.595   5.030   0.712  0.7551 -1.7474  1.4612
64194SOL     OW99821   3.769   3.907  11.947  0.0745 -0.1863 -0.2352
64194SOL    HW199822   3.799   3.996  11.924 -1.5151  0.3487 -0.3493
64194SOL    HW299823   3.779   3.857  11.866  0.9881 -0.1314 -0.1689
64195SOL     OW99824   3.166   1.746   1.359  0.5134 -0.0963  0.2474
64195SOL    HW199825   3.167   1.680   1.290 -0.6385  0.3536 -0.2229
64195SOL    HW299826   3.168   1.830   1.313  0.6879  0.2096  0.7916
64196SOL     OW99827  12.561  10.464   8.865 -0.5598 -0.0793 -0.8522
64196SOL    HW199828  12.476  10.466   8.908  0.1552 -0.0897  0.6704
64196SOL    HW299829  12.624  10.471   8.938  0.7196  2.1498 -2.0597
64197SOL     OW99830   8.043   4.905  11.985  0.3608  0.3020  0.3383
64197SOL    HW199831   7.985   4.935  11.915 -0.6149  1.3067  1.5272
64197SOL    HW299832   8.004   4.823  12.015  0.0767  0.4925  0.4994
64198SOL     OW99833  12.356   5.536   1.981 -0.1304 -0.3240  0.3489
64198SOL    HW199834  12.424   5.548   2.047  0.4596 -0.1428 -0.2688
64198SOL    HW299835  12.274   5.541   2.029  0.3044 -1.7663  1.2977
64199SOL     OW99836   4.849   9.022   3.451  0.1183 -0.0642 -0.7087
64199SOL    HW199837   4.837   8.927   3.437 -1.4962  0.0696 -0.5067
64199SOL    HW299838   4.820   9.061   3.368 -1.6098  0.3365  0.0375
64200SOL     OW99839   4.418   1.406   5.203  0.0409 -0.1620  0.1857
64200SOL    HW199840   4.449   1.412   5.293 -0.2652  0.6159  0.2546
64200SOL    HW299841   4.471   1.471   5.156 -0.1538 -0.1961 -0.0825
64201SOL     OW99842   8.949   7.117   2.719 -0.3714  0.3819  0.2324
64201SOL    HW199843   8.866   7.138   2.677 -1.3438  0.4895  2.1154
64201SOL    HW299844   8.925   7.086   2.806  1.5588  0.2462  0.7647
64202SOL     OW99845   5.731   8.600  10.522 -0.7538 -0.8102  0.1342
64202SOL    HW199846   5.662   8.657  10.555  0.3266  0.9248 -0.4799
64202SOL    HW299847   5.696   8.563  10.442 -1.2267 -0.4656  0.1776
64203SOL     OW99848   8.319   9.141   5.851  0.4269  0.2212 -0.5255
64203SOL    HW199849   8.396   9.198   5.847 -1.5677  3.2016  0.3082
64203SOL    HW299850   8.270   9.173   5.926 -1.5915 -1.7082 -0.9245
64204SOL     OW99851   6.193   0.971   8.971 -0.6569 -0.0379  0.4176
64204SOL    HW199852   6.245   0.921   9.034 -1.0283  0.3226  1.0192
64204SOL    HW299853   6.254   0.991   8.900 -0.5788 -1.6035  0.0131
64205SOL     OW99854   9.853   9.990   3.009  0.2720  1.3472 -0.4496
64205SOL    HW199855   9.760   9.973   2.997  0.1785  1.5123  0.0104
64205SOL    HW299856   9.861  10.015   3.101  1.1011 -1.0671  0.2277
64206SOL     OW99857   2.405   1.983   0.283  0.0152 -0.0422  0.2391
64206SOL    HW199858   2.469   1.916   0.307  0.4640  0.6536  1.0409
64206SOL    HW299859   2.342   1.983   0.355 -1.3436 -1.2135 -0.8633
64207SOL     OW99860   7.345  10.991   5.281 -0.0400 -0.7801  0.2975
64207SOL    HW199861   7.438  11.014   5.283 -0.1519 -0.3667  1.2511
64207SOL    HW299862   7.310  11.043   5.209 -0.0875  1.3589  1.7689
64208SOL     OW99863   6.650  11.829   4.728  0.1920  0.3364  0.2989
64208SOL    HW199864   6.563  11.837   4.690  0.0830 -1.3231  0.1197
64208SOL    HW299865   6.635  11.802   4.819  0.5059 -0.7115  0.0536
64209SOL     OW99866   9.631  12.196   3.671  0.4220 -0.2825 -0.9849
64209SOL    HW199867   9.708  12.193   3.614  1.1091 -0.0223 -0.1086
64209SOL    HW299868   9.584  12.115   3.652  0.7992 -0.3366 -1.7018
64210SOL     OW99869   5.830  11.262  10.838  0.3714  0.4066 -0.4331
64210SOL    HW199870   5.790  11.270  10.924 -0.7130 -0.3586 -0.8552
64210SOL    HW299871   5.913  11.217  10.854 -0.7410 -1.5999 -0.0014
64211SOL     OW99872   9.226  10.796  11.975  0.2165 -0.1474  0.5496
64211SOL    HW199873   9.164  10.867  11.964 -1.9511 -2.0667 -0.3909
64211SOL    HW299874   9.285  10.803  11.900 -0.0803  0.5178  0.3748
64212SOL     OW99875   0.338   0.884   7.702 -0.3867  0.1578  0.0669
64212SOL    HW199876   0.294   0.866   7.619 -1.2085 -0.4614  0.6183
64212SOL    HW299877   0.350   0.798   7.743 -0.6394  0.4991  0.8989
64213SOL     OW99878   4.990   4.935   3.647  0.2361  0.3630  0.2325
64213SOL    HW199879   5.064   4.942   3.707  0.9210 -0.9974 -0.4236
64213SOL    HW299880   4.915   4.964   3.699  0.9439  0.0531  1.4682
64214SOL     OW99881   0.026   3.992   1.163  0.1230  0.1064  0.1587
64214SOL    HW199882   0.059   4.025   1.246  1.1590 -0.3172 -0.0655
64214SOL    HW299883   0.015   3.898   1.177 -0.0970  0.0984 -0.0549
64215SOL     OW99884   4.633   9.002   1.525 -0.5191  0.3420  0.1902
64215SOL    HW199885   4.668   9.091   1.520  0.5036 -0.0973 -1.3258
64215SOL    HW299886   4.582   8.992   1.444  0.6911 -0.9272 -0.4714
64216SOL     OW99887  10.398   6.971   0.160  0.0526  0.0260 -0.1984
64216SOL    HW199888  10.431   7.049   0.203  1.2730 -0.6808  0.2072
64216SOL    HW299889  10.323   7.001   0.109 -0.7209  1.1044  1.4835
64217SOL     OW99890  10.737   9.214  10.811 -0.1939  0.0953 -0.6460
64217SOL    HW199891  10.761   9.193  10.901  0.4662 -0.5156 -0.9539
64217SOL    HW299892  10.693   9.136  10.778 -0.8775  0.4923 -0.7138
64218SOL     OW99893  12.466   1.868   9.018  0.7625  0.3038  0.2958
64218SOL    HW199894  12.446   1.959   8.998 -0.4560  0.1315  0.6191
64218SOL    HW299895  12.539   1.872   9.080 -0.5296  1.1664  1.8267
64219SOL     OW99896  11.761  12.300  11.273 -0.6664 -0.5745  0.2342
64219SOL    HW199897  11.669  12.324  11.284  0.2932  2.7390  2.7627
64219SOL    HW299898  11.774  12.228  11.336 -1.4904 -1.1222 -0.1948
64220SOL     OW99899   4.250  10.814  11.343  0.4093 -0.5862  0.2638
64220SOL    HW199900   4.315  10.835  11.410  0.3665  0.6830 -0.0687
64220SOL    HW299901   4.180  10.769  11.390 -0.0973  1.1800  1.2894
64221SOL     OW99902   6.695   6.046   9.129 -0.1231  0.8335 -0.0338
64221SOL    HW199903   6.752   5.982   9.086  0.1696  0.9947  0.1070
64221SOL    HW299904   6.634   6.074   9.060  0.7491  1.5663 -0.5375
64222SOL     OW99905   9.438  12.479   0.926  0.6792 -0.5537 -0.2996
64222SOL    HW199906   9.528  12.451   0.943  0.2297 -1.3509  0.9809
64222SOL    HW299907   9.410  12.427   0.851  0.7098 -1.6809  0.4439
64223SOL     OW99908   5.014   9.817   2.960  0.0848 -0.3072 -0.0971
64223SOL    HW199909   5.049   9.784   3.044 -0.9525  0.3448  0.6087
64223SOL    HW299910   5.035   9.910   2.961  0.1577 -0.3191 -0.6222
64224SOL     OW99911   2.819   4.531   2.777 -0.0831 -0.6929 -0.3031
64224SOL    HW199912   2.755   4.548   2.846  0.6446  0.4342  0.1054
64224SOL    HW299913   2.783   4.575   2.700  0.1552 -0.1333 -0.0959
64225SOL     OW99914   2.340  12.341   4.286 -0.5478  0.2337 -0.3394
64225SOL    HW199915   2.273  12.401   4.255  0.6412  1.6161 -0.3475
64225SOL    HW299916   2.396  12.394   4.342  0.0569 -1.0878  0.3631
64226SOL     OW99917   2.517   2.316  12.582 -0.8098  0.5575  0.0175
64226SOL    HW199918   2.511   2.256  12.508 -1.0152  2.0577 -1.2392
64226SOL    HW299919   2.514   2.260  12.659 -1.2027 -1.0143 -1.0987
64227SOL     OW99920   0.769   9.102   4.487  0.1656  0.3965  0.4412
64227SOL    HW199921   0.757   9.190   4.522  1.0328  0.4187  0.6856
64227SOL    HW299922   0.703   9.049   4.532 -2.0355  1.3570 -1.4501
64228SOL     OW99923   2.627  12.666   9.903 -0.2312  0.3821 -0.0455
64228SOL    HW199924   2.626  12.655   9.807 -1.8311  1.2991 -0.1711
64228SOL    HW299925   2.568  12.598   9.935  0.7078 -0.2611  0.3563
64229SOL     OW99926   8.563   5.035   5.703 -0.0722  0.1429  0.4023
64229SOL    HW199927   8.640   5.091   5.698  0.1968 -0.1830  0.8217
64229SOL    HW299928   8.536   5.022   5.612  2.1593 -2.1853 -0.0210
64230SOL     OW99929  11.316   4.617   8.233 -0.3399 -0.5240  0.1112
64230SOL    HW199930  11.400   4.585   8.266  0.0927  0.1838 -0.2842
64230SOL    HW299931  11.273   4.653   8.311  0.3207  0.3744  0.0724
64231SOL     OW99932   4.790   1.426  12.372  0.4282  0.2724 -0.1600
64231SOL    HW199933   4.789   1.331  12.379 -0.7295  0.2612 -0.3144
64231SOL    HW299934   4.855   1.445  12.304 -3.3084 -0.7967 -4.6066
64232SOL     OW99935   7.790   1.682   2.262 -0.7462 -0.3641 -0.1608
64232SOL    HW199936   7.776   1.637   2.345 -1.5692  0.0466 -0.0741
64232SOL    HW299937   7.733   1.636   2.200 -0.5545 -0.3145 -0.3754
64233SOL     OW99938   8.139  10.617  10.685 -0.5146  0.5630  0.2208
64233SOL    HW199939   8.049  10.588  10.699 -0.5355 -0.6297 -2.0277
64233SOL    HW299940   8.188  10.537  10.670  1.1826  1.1015  2.3604
64234SOL     OW99941   1.873   5.563   7.354 -0.2365 -0.3542 -0.1108
64234SOL    HW199942   1.939   5.497   7.333  0.3787  0.8356 -2.2473
64234SOL    HW299943   1.816   5.564   7.278  0.5106  2.3929 -0.7546
64235SOL     OW99944   1.990   0.993   9.199 -0.2092  0.0641 -0.4058
64235SOL    HW199945   1.932   0.922   9.227 -0.8905  0.5663 -0.5298
64235SOL    HW299946   1.974   1.002   9.105 -0.1808  0.4402 -0.3741
64236SOL     OW99947  10.610   9.225   9.056  0.2778 -0.4115  0.3664
64236SOL    HW199948  10.539   9.195   8.998  1.0565  0.3729 -1.0658
64236SOL    HW299949  10.684   9.238   8.997  1.6788 -1.3113  1.8412
64237SOL     OW99950   3.066  11.798   1.288 -0.0243 -0.0271 -0.7433
64237SOL    HW199951   3.128  11.769   1.221 -0.1545  0.0583 -0.8988
64237SOL    HW299952   3.038  11.717   1.331  1.6626  0.0427  0.6345
64238SOL     OW99953   9.710   6.225   6.147  0.1007  0.1272 -0.1156
64238SOL    HW199954   9.742   6.161   6.210  0.1385  0.1171 -0.1453
64238SOL    HW299955   9.773   6.222   6.075 -1.3925 -1.8525 -1.4415
64239SOL     OW99956   2.174   8.782  10.944 -0.1245 -0.0493 -0.5232
64239SOL    HW199957   2.265   8.802  10.967 -0.6412 -0.1820  1.8900
64239SOL    HW299958   2.139   8.738  11.022 -2.6510  1.2712 -0.8270
64240SOL     OW99959   7.159  11.206   8.373 -0.3772  0.1302 -0.2777
64240SOL    HW199960   7.094  11.218   8.443 -0.5949  1.2601 -0.6680
64240SOL    HW299961   7.201  11.123   8.396  0.1497  0.8758  1.6870
64241SOL     OW99962   9.316   5.918   5.929 -0.6582 -0.0632  0.7704
64241SOL    HW199963   9.368   5.989   5.968 -0.7339  0.1767  0.4422
64241SOL    HW299964   9.323   5.846   5.992 -0.4987  0.2021  1.0631
64242SOL     OW99965   7.327   8.416   7.259 -0.6996  0.4185 -0.2999
64242SOL    HW199966   7.347   8.431   7.352  0.2749 -0.3901 -0.3650
64242SOL    HW299967   7.405   8.448   7.213 -0.5045 -0.6601 -0.7297
64243SOL     OW99968   5.311   4.232   6.682 -0.0473 -0.4393 -0.5902
64243SOL    HW199969   5.392   4.188   6.707 -0.7826 -2.6335 -1.8638
64243SOL    HW299970   5.333   4.325   6.685  2.5921 -0.9664 -1.1569
64244SOL     OW99971  11.603  10.791   4.634 -0.0127 -0.5896 -0.0336
64244SOL    HW199972  11.523  10.777   4.686 -0.4603  0.2035 -0.4875
64244SOL    HW299973  11.622  10.705   4.596 -2.9130 -0.0994 -3.0669
64245SOL     OW99974   0.212   9.772   8.393 -0.2784 -0.1348  0.4536
64245SOL    HW199975   0.131   9.818   8.417 -0.0721  0.0728  0.7612
64245SOL    HW299976   0.279   9.811   8.449  0.1878  0.2399 -0.3503
64246SOL     OW99977   4.390   4.683  10.565  0.1516  0.3908 -0.3624
64246SOL    HW199978   4.395   4.598  10.522 -1.7119  0.8359 -1.5655
64246SOL    HW299979   4.480   4.703  10.589  0.7434 -1.5083 -0.8451
64247SOL     OW99980   4.315   3.431   4.414  0.7782 -0.2191 -0.4509
64247SOL    HW199981   4.293   3.338   4.417  1.2775 -0.3499 -0.7982
64247SOL    HW299982   4.362   3.447   4.496  1.3355 -0.4384 -0.7278
64248SOL     OW99983   4.405   8.365  10.716  0.1270  0.1458 -0.1691
64248SOL    HW199984   4.353   8.307  10.660  0.2153  0.2109 -0.3215
64248SOL    HW299985   4.493   8.360  10.680 -0.0145  0.9466 -0.6508
64249SOL     OW99986   0.295   8.648   8.905 -0.3620  0.4464  0.7258
64249SOL    HW199987   0.344   8.578   8.947 -1.4072 -1.1411 -0.5435
64249SOL    HW299988   0.362   8.705   8.867  0.5637 -1.1457 -0.1744
64250SOL     OW99989   0.377   4.709   3.156  0.0844 -0.0495 -0.4999
64250SOL    HW199990   0.337   4.663   3.229  2.2250 -1.6132 -0.2124
64250SOL    HW299991   0.387   4.799   3.187  1.0339 -0.6956  1.2220
64251SOL     OW99992   9.034   6.327   8.151 -0.6501 -0.4618  0.1406
64251SOL    HW199993   9.018   6.401   8.211  1.4280 -0.0952  0.3068
64251SOL    HW299994   9.031   6.250   8.208 -0.8514 -0.3223  0.3227
64252SOL     OW99995   7.887  10.181  10.038 -0.2183 -0.4406 -0.5924
64252SOL    HW199996   7.928  10.267  10.034 -1.1956  0.0153 -1.7298
64252SOL    HW299997   7.859  10.171  10.129  0.0650  0.3666 -0.4110
64253SOL     OW99998   7.445   9.057   5.016  0.4986 -0.1447  0.2562
64253SOL    HW199999   7.362   9.058   4.969 -0.4524  0.6943  1.8331
64253SOL    HW2    0   7.512   9.053   4.948 -0.7952  0.8137 -1.1383
64254SOL     OW    1   7.894   7.788   4.395 -0.0068 -0.1018 -0.2078
64254SOL    HW1    2   7.976   7.785   4.346  0.3082  0.5200  0.2602
64254SOL    HW2    3   7.882   7.880   4.417 -0.7309 -0.2141 -0.1009
64255SOL     OW    4   2.793   6.268   7.038  0.4387 -0.4841  0.7894
64255SOL    HW1    5   2.794   6.260   6.942 -1.0501 -1.4076  0.8183
64255SOL    HW2    6   2.828   6.184   7.069  1.5192  0.0537  1.0781
64256SOL     OW    7  10.808   0.207  11.180  0.5299 -0.0201 -0.0868
64256SOL    HW1    8  10.889   0.193  11.229  1.0050  0.0661 -0.8322
64256SOL    HW2    9  10.740   0.208  11.247  1.3698  2.3019  0.8766
64257SOL     OW   10   5.954   9.536  10.707  0.3216  0.4100  0.0440
64257SOL    HW1   11   5.919   9.624  10.694  0.4943  0.8870  2.3137
64257SOL    HW2   12   5.948   9.522  10.802  0.5789 -1.9131 -0.2220
64258SOL     OW   13   4.430   0.819   9.322 -0.0450 -0.0126 -0.0493
64258SOL    HW1   14   4.412   0.771   9.241  1.9300 -1.5093  0.2997
64258SOL    HW2   15   4.369   0.782   9.386 -0.6618  0.1782 -0.5268
64259SOL     OW   16   2.631   5.711   0.873  0.1195  0.2042  0.0708
64259SOL    HW1   17   2.602   5.728   0.783  0.5329  0.0364 -0.0980
64259SOL    HW2   18   2.570   5.760   0.927 -0.0443  0.4324 -0.3113
64260SOL     OW   19   4.488  10.292  11.952 -0.1320  0.0490  0.0213
64260SOL    HW1   20   4.402  10.270  11.986 -0.3811  1.2416  0.2139
64260SOL    HW2   21   4.529  10.345  12.021  1.2427 -1.4963  0.4496
64261SOL     OW   22   6.161  11.387   4.150 -0.0179  0.1781  0.2032
64261SOL    HW1   23   6.205  11.308   4.118  1.2723  0.7728  0.4214
64261SOL    HW2   24   6.069  11.374   4.127 -0.1440 -2.0721  1.5744
64262SOL     OW   25   0.733   5.310   5.636 -0.1152  0.2745 -0.1460
64262SOL    HW1   26   0.739   5.214   5.633  0.5393  0.3269 -0.9349
64262SOL    HW2   27   0.822   5.339   5.617 -0.5290  1.0567 -0.9427
64263SOL     OW   28   1.549  11.245   0.986  0.1018 -0.0330  0.0639
64263SOL    HW1   29   1.610  11.237   0.914  0.9387 -1.7958  0.9056
64263SOL    HW2   30   1.465  11.263   0.945  0.1572 -2.9093 -1.5469
64264SOL     OW   31  10.765   7.222  11.460  0.1959  0.3565  0.4033
64264SOL    HW1   32  10.814   7.285  11.408 -2.1436  0.8674 -1.3369
64264SOL    HW2   33  10.716   7.171  11.396 -1.4001 -0.2342  2.0144
64265SOL     OW   34   0.065   0.740   0.435  0.7113 -0.2024 -0.1508
64265SOL    HW1   35   0.073   0.757   0.341  1.2351 -0.9608 -0.2491
64265SOL    HW2   36   0.141   0.686   0.456  1.6178  1.4609  1.0769
64266SOL     OW   37   3.109   4.889   1.548 -0.7368  0.1252  0.0708
64266SOL    HW1   38   3.126   4.948   1.621 -1.6466 -0.0960  0.4719
64266SOL    HW2   39   3.091   4.948   1.474  0.5769  0.3517 -0.0919
64267SOL     OW   40  11.015   1.863   2.898  0.7447 -0.2580  1.0771
64267SOL    HW1   41  10.966   1.786   2.869 -1.1161  1.7120 -1.6023
64267SOL    HW2   42  10.993   1.873   2.990 -1.7311 -1.0870  0.6537
64268SOL     OW   43   8.827   0.318   4.136  0.2956  0.0989  0.3933
64268SOL    HW1   44   8.745   0.270   4.142  0.4913 -0.2697  0.1634
64268SOL    HW2   45   8.865   0.314   4.223  0.1989  0.0368  0.4323
64269SOL     OW   46   5.293   0.647   2.369 -0.3308 -0.4416 -0.1182
64269SOL    HW1   47   5.252   0.561   2.379  1.0227 -1.4014 -2.0214
64269SOL    HW2   48   5.365   0.647   2.431  0.3688 -1.2049 -0.8928
64270SOL     OW   49   1.084   1.734   2.247 -0.7295 -0.7028 -0.9008
64270SOL    HW1   50   1.040   1.669   2.303  0.4834  0.0364  1.0226
64270SOL    HW2   51   1.169   1.695   2.229  0.5163  0.7777  1.3350
64271SOL     OW   52   2.722   7.354   7.812  0.0114  0.1026 -0.6118
64271SOL    HW1   53   2.666   7.294   7.861 -0.8198  0.8563 -0.6191
64271SOL    HW2   54   2.791   7.378   7.873 -0.7369  0.6448  0.0427
64272SOL     OW   55   8.147   0.272   4.674  0.2861  0.7109 -0.3455
64272SOL    HW1   56   8.196   0.208   4.727  0.8738  0.8756 -0.6860
64272SOL    HW2   57   8.109   0.332   4.739  0.2302  0.3736 -0.0590
64273SOL     OW   58   3.367  12.255   7.178 -0.4077  0.2124  0.2938
64273SOL    HW1   59   3.430  12.321   7.205  0.2971 -0.0663 -0.6127
64273SOL    HW2   60   3.381  12.246   7.083 -1.7231  0.0577  0.0870
64274SOL     OW   61   8.621  11.623   8.651  0.4375 -0.2729  0.2281
64274SOL    HW1   62   8.654  11.556   8.591  0.2273  0.2719 -0.5022
64274SOL    HW2   63   8.609  11.701   8.597 -1.2757 -0.2128  0.6281
64275SOL     OW   64  10.908   6.871   2.997 -0.0177 -0.5698 -0.1454
64275SOL    HW1   65  10.932   6.961   2.979 -1.3839  0.1167  1.2380
64275SOL    HW2   66  10.972   6.842   3.063  1.1492 -1.0323 -1.4496
64276SOL     OW   67   9.305   9.473  12.488  0.3031 -0.1965  0.2817
64276SOL    HW1   68   9.375   9.539  12.493 -0.0842  0.6403 -2.9435
64276SOL    HW2   69   9.339   9.408  12.426  0.0214 -2.2826  2.2020
64277SOL     OW   70   0.081   8.016   7.607 -0.0419  0.4563 -0.0905
64277SOL    HW1   71   0.148   7.954   7.579 -0.1417  1.2045 -2.2170
64277SOL    HW2   72   0.081   8.084   7.539 -0.8434  2.1015  1.4588
64278SOL     OW   73   7.299   5.908  11.773  0.1759 -0.4781  0.1972
64278SOL    HW1   74   7.284   5.840  11.839 -0.7120 -1.6090 -1.0995
64278SOL    HW2   75   7.370   5.961  11.809  1.2680 -2.3998  1.0367
64279SOL     OW   76   1.825   9.587   0.270 -0.1733 -0.3348  0.4794
64279SOL    HW1   77   1.767   9.660   0.287 -2.0288 -1.4643 -0.5933
64279SOL    HW2   78   1.857   9.602   0.181 -0.8079 -0.9555  0.1363
64280SOL     OW   79   5.567   1.583   3.542  0.3395 -0.4831  0.4599
64280SOL    HW1   80   5.643   1.599   3.598  1.2584 -0.9397 -0.6115
64280SOL    HW2   81   5.524   1.507   3.581  1.2904 -1.1512  0.2496
64281SOL     OW   82   1.466   4.349   1.116 -0.0007  0.4708  0.0239
64281SOL    HW1   83   1.441   4.340   1.208 -0.5972 -0.4948 -0.2148
64281SOL    HW2   84   1.532   4.417   1.116 -0.7104  1.1923  1.0431
64282SOL     OW   85  10.246   5.408  10.299 -0.1641  0.1999 -0.5513
64282SOL    HW1   86  10.285   5.326  10.269 -0.1421 -0.4416  1.0937
64282SOL    HW2   87  10.164   5.382  10.342  0.3875  0.8672  1.0019
64283SOL     OW   88   3.806  11.443   8.524  0.1988 -0.4630  0.3609
64283SOL    HW1   89   3.716  11.462   8.497 -0.1103  0.2284  1.8102
64283SOL    HW2   90   3.849  11.415   8.443 -1.5882 -1.8816 -0.1719
64284SOL     OW   91   3.142  10.830   2.407  0.6005 -0.3184  0.1318
64284SOL    HW1   92   3.110  10.858   2.492 -1.0391 -0.0267 -0.5403
64284SOL    HW2   93   3.071  10.775   2.372  1.9039 -1.7303 -0.3943
64285SOL     OW   94   3.679  10.878   6.957 -0.0482  0.2949 -0.4112
64285SOL    HW1   95   3.589  10.847   6.964 -0.3221  1.0061 -0.6679
64285SOL    HW2   96   3.671  10.966   6.919  0.7367  0.4534 -0.2281
64286SOL     OW   97   5.698   0.713   5.751  0.0422 -0.1877  0.1662
64286SOL    HW1   98   5.611   0.675   5.755  0.3492 -0.8130  1.3077
64286SOL    HW2   99   5.684   0.805   5.728 -0.8815 -0.3868 -0.0757
64287SOL     OW  100   5.279   5.572   7.154  0.0359 -0.7092  0.0873
64287SOL    HW1  101   5.225   5.607   7.224  0.0784 -1.8266  0.7007
64287SOL    HW2  102   5.292   5.646   7.094 -0.8143 -0.0039  0.7497
64288SOL     OW  103  11.660   5.307   7.945  0.6501  0.0642 -0.2284
64288SOL    HW1  104  11.661   5.369   7.872 -0.9850  0.1354 -0.2081
64288SOL    HW2  105  11.615   5.230   7.910 -2.7782  1.1338  1.4747
64289SOL     OW  106   1.459   9.914   1.470 -0.2959 -0.1699 -0.4060
64289SOL    HW1  107   1.507   9.996   1.479 -0.5722  0.1070 -1.3982
64289SOL    HW2  108   1.483   9.864   1.548 -0.3181  0.9379  0.3260
64290SOL     OW  109  10.000   8.455   6.325 -0.2322 -0.1045 -0.2155
64290SOL    HW1  110  10.091   8.479   6.311 -0.0610  0.7059  1.9514
64290SOL    HW2  111   9.951   8.508   6.262  0.5979  1.6847  0.5743
64291SOL     OW  112   7.528   8.717   2.441  0.1827 -0.0631  0.6077
64291SOL    HW1  113   7.441   8.711   2.479 -0.1398 -1.1617 -0.2505
64291SOL    HW2  114   7.578   8.770   2.504 -0.3169 -1.7674  2.5365
64292SOL     OW  115   1.793  11.493   3.581  0.0867  0.2131  0.5489
64292SOL    HW1  116   1.706  11.531   3.588  0.8085  2.2889 -0.7645
64292SOL    HW2  117   1.808  11.483   3.487  1.1741 -0.3702  0.7574
64293SOL     OW  118   5.996  10.274   0.219  0.1947  0.0359  0.5376
64293SOL    HW1  119   6.091  10.263   0.213  0.4451  1.9975  0.2301
64293SOL    HW2  120   5.963  10.250   0.133  0.6119  0.9121  0.1231
64294SOL     OW  121   8.472   9.847   5.422  0.4011 -0.5985  0.1929
64294SOL    HW1  122   8.499   9.901   5.496 -0.8441  0.5622 -0.1466
64294SOL    HW2  123   8.543   9.855   5.358 -0.3983  2.0701 -0.5391
64295SOL     OW  124   9.510   8.206   9.187 -0.5287 -0.2312  0.2265
64295SOL    HW1  125   9.462   8.167   9.114  0.4998 -1.1936  0.0317
64295SOL    HW2  126   9.518   8.299   9.164 -2.5492  0.0430  0.4375
64296SOL     OW  127  12.180   1.084   1.830  0.0888  0.4499  0.1879
64296SOL    HW1  128  12.138   1.166   1.806  1.3738  0.5719 -1.8508
64296SOL    HW2  129  12.267   1.110   1.863  0.3177 -0.0550 -0.0043
64297SOL     OW  130   2.739  10.147   7.060 -0.1076  0.2062 -0.1022
64297SOL    HW1  131   2.659  10.115   7.017  0.0044  0.6652 -0.6635
64297SOL    HW2  132   2.744  10.097   7.141  0.0231 -1.1583 -0.9246
64298SOL     OW  133   7.078   4.554   5.192  0.4318  0.2221 -0.2405
64298SOL    HW1  134   7.044   4.481   5.243  0.1428  0.4616 -0.0870
64298SOL    HW2  135   7.125   4.513   5.120  1.1746 -0.1133  0.4279
64299SOL     OW  136   3.099   4.781   9.659 -0.0286 -0.0990 -0.8739
64299SOL    HW1  137   3.091   4.862   9.711 -0.8205 -0.8266  0.1853
64299SOL    HW2  138   3.100   4.811   9.568  0.2305  1.1360 -0.4933
64300SOL     OW  139   3.222   7.087   8.924  0.1529 -0.3061 -0.0297
64300SOL    HW1  140   3.198   7.087   9.017  0.2605  0.8420  0.0117
64300SOL    HW2  141   3.156   7.142   8.883 -0.0687 -1.0530 -0.6952
64301SOL     OW  142   9.617  10.620   5.596 -0.5288  0.0051 -0.2314
64301SOL    HW1  143   9.608  10.546   5.537  1.0672  0.7759 -1.5334
64301SOL    HW2  144   9.549  10.682   5.568 -2.1317 -1.0620  1.1222
64302SOL     OW  145  11.118   8.373   7.396 -0.1049 -0.3049 -0.4005
64302SOL    HW1  146  11.041   8.416   7.360  0.0600  1.4305  1.1641
64302SOL    HW2  147  11.178   8.444   7.419  1.5963 -1.5565 -0.7169
64303SOL     OW  148   3.175   6.515   6.962  0.1222  0.4447 -0.2757
64303SOL    HW1  149   3.217   6.572   6.898  0.5633  0.2635 -0.1490
64303SOL    HW2  150   3.163   6.432   6.915  0.4648  0.3053 -0.1187
64304SOL     OW  151   8.548  11.957   0.429  0.2340  0.1428  0.5674
64304SOL    HW1  152   8.615  11.892   0.448  1.0580  0.8117  0.0395
64304SOL    HW2  153   8.527  11.997   0.514 -0.5411 -1.0256  0.9518
64305SOL     OW  154   1.809   9.781  12.248 -0.2169 -1.0219 -0.0326
64305SOL    HW1  155   1.841   9.859  12.203  0.0881  0.2186  2.2201
64305SOL    HW2  156   1.761   9.733  12.181 -0.9909  1.4165 -1.3458
64306SOL     OW  157   0.643   6.186   8.389  0.2254  0.1555 -0.1835
64306SOL    HW1  158   0.651   6.093   8.411  1.3263  0.3050  0.1128
64306SOL    HW2  159   0.564   6.215   8.435 -0.5600 -0.7965 -0.8996
64307SOL     OW  160   9.561   4.674  10.360 -0.3355 -0.0301 -0.3677
64307SOL    HW1  161   9.563   4.716  10.446 -1.3126 -0.4506 -0.1160
64307SOL    HW2  162   9.612   4.594  10.372 -0.0566  0.1520 -0.3217
64308SOL     OW  163   6.353   2.460   2.635 -0.4896  0.2401  0.4859
64308SOL    HW1  164   6.374   2.422   2.550 -0.1965  1.1446  0.1367
64308SOL    HW2  165   6.264   2.430   2.654 -0.3654 -0.3789  0.0984
64309SOL     OW  166  12.141   4.147   7.019  0.1365  0.2326  0.5046
64309SOL    HW1  167  12.157   4.127   6.927 -1.2991 -1.7022  0.6234
64309SOL    HW2  168  12.051   4.181   7.020  0.4347  1.0310  1.1089
64310SOL     OW  169   7.090   4.946   9.132  0.4385  0.0128 -0.7414
64310SOL    HW1  170   7.118   4.946   9.041  0.1046  0.4827 -0.8494
64310SOL    HW2  171   7.089   4.854   9.158  0.3633 -0.1327 -1.2678
64311SOL     OW  172  12.228   7.100   9.046 -0.0934  0.6671  0.3741
64311SOL    HW1  173  12.221   7.191   9.017  0.8250  0.8922  0.8241
64311SOL    HW2  174  12.319   7.075   9.027 -0.2891 -0.0985  0.4100
64312SOL     OW  175   0.545   5.297   7.656  0.3033 -0.3810  0.4898
64312SOL    HW1  176   0.468   5.249   7.627  0.2793 -0.9398  1.4496
64312SOL    HW2  177   0.564   5.357   7.583 -1.1467 -0.0807  0.3230
64313SOL     OW  178   0.079  11.634  12.052  0.5492 -0.6141  0.1133
64313SOL    HW1  179   0.095  11.715  12.004 -0.7136 -1.4686 -1.8881
64313SOL    HW2  180  -0.015  11.633  12.067  0.7253 -1.1160  1.2729
64314SOL     OW  181   9.833   7.340   8.056  0.0909  0.2631  0.1173
64314SOL    HW1  182   9.882   7.421   8.068  0.3966  0.0393  0.3948
64314SOL    HW2  183   9.826   7.302   8.144 -0.1094  0.0208 -0.0004
64315SOL     OW  184  10.513  11.687   1.905  0.4974 -0.3575 -0.1836
64315SOL    HW1  185  10.418  11.694   1.895  0.5552  0.8594 -0.0222
64315SOL    HW2  186  10.528  11.695   1.999  0.7826 -0.2255 -0.2394
64316SOL     OW  187   4.326   1.640   8.265  0.4398  0.1336 -0.5157
64316SOL    HW1  188   4.281   1.556   8.274  1.4777 -0.5935 -1.7707
64316SOL    HW2  189   4.304   1.688   8.345 -0.3748 -1.2317  0.1125
64317SOL     OW  190   1.606   3.646   7.560  0.0499  0.7526 -0.0311
64317SOL    HW1  191   1.699   3.651   7.538  0.1276 -0.1997  0.0553
64317SOL    HW2  192   1.601   3.681   7.649  0.3421  0.6730  0.0183
64318SOL     OW  193   4.614   0.872   7.185  0.2295  0.0181 -0.1433
64318SOL    HW1  194   4.706   0.849   7.195  0.5426  1.6587  1.3087
64318SOL    HW2  195   4.609   0.963   7.212 -1.9464 -0.2373  0.5270
64319SOL     OW  196   4.634  11.014  10.019  0.7362  0.5030  0.0697
64319SOL    HW1  197   4.631  10.946   9.952 -1.5152 -0.5362  1.1282
64319SOL    HW2  198   4.591  11.089   9.979  2.4375  1.0926 -0.7807
64320SOL     OW  199  11.157   5.253   6.013 -0.2769  0.1861  0.2344
64320SOL    HW1  200  11.252   5.243   6.009 -0.1487  0.7598  1.3210
64320SOL    HW2  201  11.123   5.180   5.962  0.7610  0.6937 -1.2734
64321SOL     OW  202   0.915   9.681   5.145  0.1091 -0.2554  0.0832
64321SOL    HW1  203   0.942   9.664   5.055 -0.1471 -0.1715 -0.0097
64321SOL    HW2  204   0.960   9.763   5.169 -0.3387  0.0714 -0.1898
64322SOL     OW  205   1.787   9.637  10.999  0.9369 -0.0999  0.1174
64322SOL    HW1  206   1.798   9.655  10.906 -0.7891 -1.2781 -0.3499
64322SOL    HW2  207   1.693   9.647  11.015  0.9329 -1.7400  1.3244
64323SOL     OW  208   5.778  11.651   7.250  0.1455 -0.0195 -0.4013
64323SOL    HW1  209   5.823  11.700   7.180  2.4369  0.1298  1.0849
64323SOL    HW2  210   5.789  11.705   7.328 -1.6483 -0.5868  0.3083
64324SOL     OW  211   8.189   6.807   2.715  0.6586  0.0075 -0.1381
64324SOL    HW1  212   8.133   6.842   2.645 -0.2638  1.6005  1.3206
64324SOL    HW2  213   8.147   6.836   2.796  3.5210  1.1706  1.0569
64325SOL     OW  214   7.627   8.548   5.654 -0.2684  0.6014  0.1439
64325SOL    HW1  215   7.571   8.498   5.594  0.1645 -1.6664  1.5357
64325SOL    HW2  216   7.695   8.584   5.597 -0.6085 -0.3904 -0.9439
64326SOL     OW  217   9.878   8.790   1.259  0.1548 -0.1432 -0.1132
64326SOL    HW1  218   9.969   8.773   1.282 -0.3911 -0.9209  1.6486
64326SOL    HW2  219   9.855   8.720   1.198  1.4021  1.5116 -2.6987
64327SOL     OW  220   7.092  11.674   7.029 -0.2330 -0.0313  0.1230
64327SOL    HW1  221   7.081  11.635   7.116 -0.0681 -0.6161 -0.1104
64327SOL    HW2  222   7.010  11.722   7.014  0.5729  1.8992  1.4805
64328SOL     OW  223   0.795   6.825   1.482 -0.2040 -0.0004  0.2555
64328SOL    HW1  224   0.879   6.864   1.457  0.4423 -1.5545 -0.0794
64328SOL    HW2  225   0.752   6.806   1.398 -0.9512  0.8531  0.4243
64329SOL     OW  226   7.717  11.609   0.579 -0.4147  0.6550  0.2207
64329SOL    HW1  227   7.645  11.554   0.609  0.4726 -0.3078  0.6049
64329SOL    HW2  228   7.770  11.552   0.523  1.2819  0.6852  1.7237
64330SOL     OW  229   2.065   6.321   0.600  0.3127  0.3089 -0.3470
64330SOL    HW1  230   2.077   6.248   0.661 -1.1926  0.8568  0.6667
64330SOL    HW2  231   2.044   6.280   0.517  2.1918 -0.4532 -0.5081
64331SOL     OW  232   4.686   8.133   3.762 -0.1362  0.1868 -0.5105
64331SOL    HW1  233   4.624   8.065   3.790  0.1216 -1.0345 -2.6477
64331SOL    HW2  234   4.745   8.087   3.702  1.1056  1.9553 -0.6981
64332SOL     OW  235   5.009   6.115   1.690 -0.1282 -0.5290 -0.2497
64332SOL    HW1  236   4.932   6.094   1.743 -0.8188  0.1439 -0.9612
64332SOL    HW2  237   5.026   6.036   1.639  1.0383 -1.4831  1.5035
64333SOL     OW  238   4.474   6.740   6.514 -0.2933  0.3119 -0.3001
64333SOL    HW1  239   4.434   6.814   6.561  1.5528  1.3459 -0.2694
64333SOL    HW2  240   4.448   6.754   6.423  0.2102  1.1265 -0.3266
64334SOL     OW  241  10.950   4.024   1.787  0.2081  0.3853 -0.4868
64334SOL    HW1  242  10.992   4.110   1.789 -0.1934  0.5774 -0.1940
64334SOL    HW2  243  10.994   3.974   1.856 -0.6799  0.8972  0.4855
64335SOL     OW  244   4.044   3.371   6.945 -0.1691 -0.4879  0.0838
64335SOL    HW1  245   4.075   3.288   6.907  0.2647 -1.2208  1.9010
64335SOL    HW2  246   3.995   3.344   7.023  1.7633  0.9919  1.9260
64336SOL     OW  247   7.046   6.671   7.361 -0.2579  0.3093  0.3804
64336SOL    HW1  248   6.953   6.686   7.376 -0.0180  2.5755 -0.0593
64336SOL    HW2  249   7.089   6.703   7.441  0.1497 -1.3997  0.8986
64337SOL     OW  250  10.341  11.791  10.222 -0.2475  0.3091  0.2641
64337SOL    HW1  251  10.255  11.760  10.196  0.1118 -0.7308  0.2792
64337SOL    HW2  252  10.397  11.774  10.146 -0.0108  0.7983  0.3251
64338SOL     OW  253   2.351  11.865   1.357 -0.2952 -0.7274 -0.4391
64338SOL    HW1  254   2.282  11.930   1.346 -1.2555 -1.5062  0.7844
64338SOL    HW2  255   2.336  11.800   1.288  0.8745  0.4615 -1.8890
64339SOL     OW  256   1.186   7.326   0.124  0.0138  0.3013  0.2765
64339SOL    HW1  257   1.136   7.264   0.177  0.1540  1.3185  1.6587
64339SOL    HW2  258   1.133   7.406   0.125  0.1525  0.4167 -0.9109
64340SOL     OW  259  11.364  12.354   7.654 -0.5903  0.0559  0.2754
64340SOL    HW1  260  11.293  12.408   7.688 -0.8344 -0.0445 -0.0758
64340SOL    HW2  261  11.444  12.400   7.682 -0.7955  0.8205 -0.3720
64341SOL     OW  262   7.899   9.098   4.180 -0.0007 -0.8044 -0.2123
64341SOL    HW1  263   7.820   9.099   4.234 -0.2732 -1.0067 -0.6009
64341SOL    HW2  264   7.929   9.007   4.184  0.8524 -0.4985  0.8410
64342SOL     OW  265   7.989   4.405  11.934  0.1648 -0.0035 -0.1245
64342SOL    HW1  266   8.009   4.352  12.011 -0.1378  1.9580  1.4100
64342SOL    HW2  267   8.071   4.413  11.887  0.0368 -2.4500 -0.8618
64343SOL     OW  268  12.014   8.585   6.849 -0.3422 -0.0231  0.3828
64343SOL    HW1  269  12.061   8.504   6.828  0.3201  0.2671  0.7273
64343SOL    HW2  270  12.014   8.588   6.945 -1.1490 -0.0627  0.3955
64344SOL     OW  271   9.455  11.755   6.883  0.1005  0.0440  0.3280
64344SOL    HW1  272   9.395  11.829   6.882  1.0607  0.8473 -0.7669
64344SOL    HW2  273   9.498  11.760   6.969 -1.0104 -0.2502  0.9222
64345SOL     OW  274   3.180  10.428   0.975 -0.1675  0.3698 -0.2991
64345SOL    HW1  275   3.151  10.361   1.037 -0.1682 -1.4072 -2.0927
64345SOL    HW2  276   3.216  10.498   1.030  0.8055 -1.5420  1.6782
64346SOL     OW  277  10.159  12.559   5.982 -0.1263  0.1533 -0.3308
64346SOL    HW1  278  10.198  12.612   5.912  1.0671 -0.0187  0.1870
64346SOL    HW2  279  10.206  12.476   5.979 -1.1666 -0.4492 -0.3512
64347SOL     OW  280   5.951   5.460   8.494  0.1544  0.2865 -0.3478
64347SOL    HW1  281   6.006   5.438   8.419  0.9213  1.4273 -0.1468
64347SOL    HW2  282   5.925   5.376   8.531 -0.4885 -0.3143 -2.0547
64348SOL     OW  283   4.474  10.880   8.020 -0.0341  0.1493  0.2070
64348SOL    HW1  284   4.401  10.941   8.014  1.0909  1.4394 -0.9136
64348SOL    HW2  285   4.444  10.802   7.974 -0.4203  0.9747 -0.9960
64349SOL     OW  286   7.072   5.515   7.114  0.0802 -0.0489  0.5728
64349SOL    HW1  287   7.145   5.540   7.171  0.5805  1.2859 -0.6024
64349SOL    HW2  288   7.063   5.421   7.127  1.8911 -0.2153  0.9021
64350SOL     OW  289   3.944   2.238   1.499  1.1641  0.6023  0.2899
64350SOL    HW1  290   3.997   2.229   1.579  0.8352 -0.7270  0.3728
64350SOL    HW2  291   3.982   2.175   1.438  0.2912  0.3212  0.0199
64351SOL     OW  292   8.914   8.794   2.167 -0.4465  0.0718  0.6184
64351SOL    HW1  293   8.837   8.795   2.225 -0.2509 -0.4032  0.8896
64351SOL    HW2  294   8.908   8.710   2.121  0.0945 -0.1226  0.8963
64352SOL     OW  295   2.399   8.289   0.760 -0.3857 -0.1602 -0.1273
64352SOL    HW1  296   2.380   8.348   0.833  1.0079 -0.1631  0.2752
64352SOL    HW2  297   2.369   8.336   0.682  1.9528  1.7714  0.0304
64353SOL     OW  298   3.463   9.276  12.246 -0.2832  0.3545  0.6070
64353SOL    HW1  299   3.545   9.228  12.255 -1.3777 -1.4793  1.2653
64353SOL    HW2  300   3.463   9.307  12.155  0.2689 -1.2975  0.0186
64354SOL     OW  301   1.308  10.348   2.548  1.1020 -0.0293  0.4051
64354SOL    HW1  302   1.335  10.302   2.468  0.2760  0.8338 -0.4026
64354SOL    HW2  303   1.228  10.303   2.575  0.0674  1.1193 -0.6132
64355SOL     OW  304  11.976   2.214   3.839 -0.2534 -0.0301  0.0691
64355SOL    HW1  305  11.982   2.287   3.777  1.3953 -0.7158 -0.6365
64355SOL    HW2  306  11.981   2.136   3.785 -4.4014 -0.8616  0.5514
64356SOL     OW  307   4.372   2.462  11.784 -0.6631  0.3483  0.2306
64356SOL    HW1  308   4.294   2.517  11.790 -1.3877 -0.6642  0.3000
64356SOL    HW2  309   4.340   2.378  11.751  0.5270  0.1629 -0.5080
64357SOL     OW  310  11.835   3.054   3.309  0.3393  0.2004 -0.2978
64357SOL    HW1  311  11.853   3.138   3.350  1.2957 -0.0229 -0.2503
64357SOL    HW2  312  11.753   3.025   3.350 -0.5942  1.5842 -1.0854
64358SOL     OW  313   0.602   5.710   9.542  0.3813  0.4469  0.1226
64358SOL    HW1  314   0.611   5.694   9.448 -0.9416 -1.8768  0.2992
64358SOL    HW2  315   0.509   5.731   9.554  0.8343  2.2826  0.7789
64359SOL     OW  316   2.793  11.870   0.770  0.4011 -0.4856  0.4521
64359SOL    HW1  317   2.817  11.805   0.836  0.8123  0.1507  0.9399
64359SOL    HW2  318   2.875  11.916   0.750  0.1921 -0.3746 -0.1764
64360SOL     OW  319   8.580   1.133   6.288 -0.4251  0.2771 -0.4714
64360SOL    HW1  320   8.633   1.089   6.354 -0.6502  0.8175  0.0807
64360SOL    HW2  321   8.612   1.223   6.287 -2.0994  0.9411  0.7454
64361SOL     OW  322   9.984   1.985   1.851  0.3978 -0.3426 -0.1401
64361SOL    HW1  323   9.942   1.953   1.931  0.6803  2.3784  1.1847
64361SOL    HW2  324   9.911   2.021   1.799  0.6170  0.9426  0.4348
64362SOL     OW  325   9.371   0.958  11.094  0.4190 -0.4027 -0.3425
64362SOL    HW1  326   9.339   0.868  11.104  1.2225 -0.5566  0.9745
64362SOL    HW2  327   9.342   0.983  11.006 -0.7779 -1.5488 -0.3081
64363SOL     OW  328   7.121   1.852  11.803  0.0544  0.1805 -0.0228
64363SOL    HW1  329   7.156   1.941  11.808 -0.6235  0.4134  0.7626
64363SOL    HW2  330   7.094   1.842  11.712 -1.4468  1.4124  0.2514
64364SOL     OW  331   4.844   0.522  12.225 -0.3028  0.4647  0.1156
64364SOL    HW1  332   4.928   0.555  12.259 -0.7488 -0.4966  2.3466
64364SOL    HW2  333   4.791   0.510  12.304 -2.2989  0.3562 -1.1991
64365SOL     OW  334  12.162  11.246   0.873  0.0676 -0.1113 -0.1732
64365SOL    HW1  335  12.198  11.302   0.942 -0.1204  0.7443 -0.7554
64365SOL    HW2  336  12.235  11.233   0.812 -0.4267  1.2106 -1.0942
64366SOL     OW  337   2.162   4.279   8.585 -0.1943  0.1287  0.3780
64366SOL    HW1  338   2.105   4.205   8.605  1.1111 -1.2978 -0.9467
64366SOL    HW2  339   2.113   4.330   8.520 -1.5611  1.1119  2.0685
64367SOL     OW  340   3.673   5.619   3.579  0.1880 -0.0134 -0.5377
64367SOL    HW1  341   3.581   5.595   3.568 -0.0177 -1.5729  3.2178
64367SOL    HW2  342   3.677   5.662   3.664  3.1072 -1.3217  0.1144
64368SOL     OW  343  12.067   6.313   2.001 -0.9306 -0.1967 -0.5997
64368SOL    HW1  344  12.011   6.390   2.017 -0.9027 -0.3198  0.1228
64368SOL    HW2  345  12.005   6.241   1.991 -0.9191 -0.2369 -0.3720
64369SOL     OW  346   1.846  10.259   0.654 -0.4711  0.1903 -0.2180
64369SOL    HW1  347   1.845  10.240   0.747 -0.9490 -0.6053 -0.3781
64369SOL    HW2  348   1.866  10.176   0.612  1.1467  0.8133 -0.7841
64370SOL     OW  349   9.619  12.395  12.008 -0.2877 -0.4999  0.4493
64370SOL    HW1  350   9.564  12.407  12.085  0.2258  2.0842  0.5080
64370SOL    HW2  351   9.708  12.403  12.040  0.0252 -1.4112 -0.1424
64371SOL     OW  352   5.731   9.049   7.724  0.0094 -0.2519 -0.3853
64371SOL    HW1  353   5.821   9.079   7.738  0.1947 -1.3969  1.0644
64371SOL    HW2  354   5.715   9.063   7.630  1.6766 -0.0223 -0.6568
64372SOL     OW  355   4.106   8.262  11.602 -0.1415  0.1631 -0.2541
64372SOL    HW1  356   4.013   8.244  11.615 -0.3188  0.7703 -0.6548
64372SOL    HW2  357   4.117   8.265  11.507  0.2156  0.4461 -0.2064
64373SOL     OW  358   1.357  10.634   7.401  0.1842  0.2259 -0.1023
64373SOL    HW1  359   1.273  10.644   7.445 -0.0422 -0.0869 -0.4560
64373SOL    HW2  360   1.367  10.714   7.349  0.8056  0.9441  1.0886
64374SOL     OW  361   4.491   4.144   1.215  0.1257 -0.3987  0.0722
64374SOL    HW1  362   4.539   4.193   1.281 -0.6298 -0.0015  0.3383
64374SOL    HW2  363   4.415   4.109   1.262 -0.2839 -0.3251 -0.5222
64375SOL     OW  364   6.312   2.699   1.884  0.4220 -0.2927 -0.5996
64375SOL    HW1  365   6.364   2.768   1.926 -2.0939  1.7042 -0.4507
64375SOL    HW2  366   6.333   2.620   1.933  0.8555  1.0784  1.6094
64376SOL     OW  367  12.105   1.346  11.643 -0.5930  0.1025 -0.5784
64376SOL    HW1  368  12.022   1.320  11.604 -0.8522  0.7827 -0.4988
64376SOL    HW2  369  12.116   1.438  11.618 -0.9404  0.6742  1.2106
64377SOL     OW  370   4.951   9.161  11.785  0.2524  0.3872  0.0252
64377SOL    HW1  371   4.980   9.073  11.810  1.2722  0.9004  0.6927
64377SOL    HW2  372   4.964   9.214  11.863 -0.3260  1.1582 -0.3853
64378SOL     OW  373  11.533  11.480   2.727 -0.1608 -0.3706 -0.5820
64378SOL    HW1  374  11.515  11.555   2.783 -0.7571 -0.3718 -0.7644
64378SOL    HW2  375  11.457  11.423   2.738  1.1011 -1.8272  0.9568
64379SOL     OW  376   6.508   4.015   0.413 -0.2890  0.1563 -0.6088
64379SOL    HW1  377   6.500   3.930   0.371 -2.1744  0.5963 -1.2612
64379SOL    HW2  378   6.493   3.998   0.506 -4.0964  0.0793 -1.0731
64380SOL     OW  379  12.535   4.394   5.634  0.5787 -0.0861 -0.3672
64380SOL    HW1  380  12.617   4.433   5.604  1.0948 -1.2674 -0.5524
64380SOL    HW2  381  12.504   4.342   5.560  0.3795 -0.7495  0.1654
64381SOL     OW  382   7.586   8.453  10.412  0.2460  0.2627 -0.9274
64381SOL    HW1  383   7.512   8.431  10.356 -0.2761  1.1507 -0.6091
64381SOL    HW2  384   7.595   8.548  10.405  1.5628  0.1375 -1.2012
64382SOL     OW  385   3.811   1.750   8.188 -0.1664  0.4824 -0.2401
64382SOL    HW1  386   3.852   1.831   8.216 -0.8822  1.2965 -1.4596
64382SOL    HW2  387   3.882   1.699   8.149  0.4723  0.0837  1.3524
64383SOL     OW  388   1.258   4.157   6.009  0.0040  0.1898 -0.0483
64383SOL    HW1  389   1.253   4.118   6.096 -0.8536  1.7199  0.6280
64383SOL    HW2  390   1.188   4.115   5.960  2.0336 -2.5268 -0.8659
64384SOL     OW  391  10.198  11.251   7.499  0.1855  0.1763 -0.2148
64384SOL    HW1  392  10.112  11.282   7.527  0.5529 -0.0455  1.2117
64384SOL    HW2  393  10.208  11.286   7.410 -1.4192  0.0977 -0.4559
64385SOL     OW  394  11.209   4.667   3.877 -0.3548 -0.2080  0.5438
64385SOL    HW1  395  11.267   4.638   3.806 -2.7434  0.4923 -1.8685
64385SOL    HW2  396  11.188   4.587   3.925 -0.5378 -1.1226 -1.0105
64386SOL     OW  397   4.995   5.348  10.813 -0.0893  0.5629 -0.6162
64386SOL    HW1  398   4.946   5.297  10.749  0.9199 -0.3019 -0.7291
64386SOL    HW2  399   5.013   5.287  10.884 -0.4848  1.2871  0.1222
64387SOL     OW  400   4.014   5.999   4.623  0.4203 -0.4328  0.1298
64387SOL    HW1  401   4.087   6.020   4.681 -1.0968  0.8710  1.6974
64387SOL    HW2  402   3.946   5.967   4.682 -0.9691  0.3356 -0.9996
64388SOL     OW  403   2.839   1.279   3.533  0.6094 -0.1193  0.1270
64388SOL    HW1  404   2.795   1.362   3.514  0.7663 -0.3202 -1.2924
64388SOL    HW2  405   2.923   1.286   3.486  1.3085 -0.4569  1.2983
64389SOL     OW  406   6.181   3.405  10.416 -0.1136  0.0500 -0.4119
64389SOL    HW1  407   6.144   3.492  10.429 -1.3699 -0.2272 -1.7946
64389SOL    HW2  408   6.128   3.367  10.346 -0.3966 -2.2810  0.9478
64390SOL     OW  409   8.332  11.129   1.949  0.0254 -0.4802 -0.1223
64390SOL    HW1  410   8.378  11.124   1.865 -1.1560  2.0495 -1.0085
64390SOL    HW2  411   8.245  11.095   1.932  0.4986 -2.3091  0.7821
64391SOL     OW  412   3.400   7.337   6.332  0.0553  0.3300 -0.0920
64391SOL    HW1  413   3.330   7.273   6.327  0.7535 -0.4454 -0.2157
64391SOL    HW2  414   3.481   7.285   6.333  0.5977  1.1387  1.3021
64392SOL     OW  415  12.671   9.573   0.735  0.0640  0.3333  0.0511
64392SOL    HW1  416  12.732   9.499   0.746  0.6188  0.8107  0.2241
64392SOL    HW2  417  12.640   9.591   0.824 -0.0182  0.3511  0.0181
64393SOL     OW  418  11.951   1.577   0.862  0.4431  0.2536 -0.7713
64393SOL    HW1  419  11.965   1.572   0.768  2.3974  0.5734 -0.5237
64393SOL    HW2  420  11.886   1.647   0.873 -1.0148 -0.8508 -1.9433
64394SOL     OW  421   6.104  10.896   5.252 -0.0363 -0.2641 -0.4730
64394SOL    HW1  422   6.070  10.865   5.336 -0.8170 -0.1816 -0.7526
64394SOL    HW2  423   6.101  10.818   5.196 -2.3399  0.3309 -1.2830
64395SOL     OW  424  10.211   0.069   5.447  0.6491  0.5076  0.3102
64395SOL    HW1  425  10.131   0.122   5.453  0.9382  0.7854  2.3669
64395SOL    HW2  426  10.276   0.128   5.410  0.0607  0.4394 -0.8818
64396SOL     OW  427   1.230   2.360   4.925  0.9606  0.1499  0.0215
64396SOL    HW1  428   1.196   2.358   5.015  0.0051 -0.8140 -0.3401
64396SOL    HW2  429   1.188   2.436   4.885  0.2288 -0.2765 -0.0349
64397SOL     OW  430   3.342   7.056  11.199  0.5965 -0.4061 -0.3194
64397SOL    HW1  431   3.275   7.088  11.138  0.9174  0.9596  0.0007
64397SOL    HW2  432   3.293   7.037  11.279  0.5750  0.5948 -0.0831
64398SOL     OW  433  10.044  10.293   6.598 -1.0954  0.1711  0.1935
64398SOL    HW1  434  10.078  10.315   6.685 -0.6323  1.4993 -0.2947
64398SOL    HW2  435  10.034  10.198   6.600  0.4560 -0.0186  1.1443
64399SOL     OW  436  10.745   2.252   2.486 -0.2203 -0.4037  0.6948
64399SOL    HW1  437  10.826   2.302   2.495 -2.0254  2.6333  1.5462
64399SOL    HW2  438  10.772   2.161   2.495  3.0475  0.4935  1.2127
64400SOL     OW  439   0.547   4.597   8.921  0.5123 -0.0452  0.0960
64400SOL    HW1  440   0.605   4.671   8.939 -1.4265  1.3448  1.1130
64400SOL    HW2  441   0.547   4.546   9.003 -0.2582  0.4078  0.3930
64401SOL     OW  442   7.257   5.439   2.700  0.6943  0.5325 -0.2878
64401SOL    HW1  443   7.183   5.394   2.658  1.6502 -1.1425 -0.2721
64401SOL    HW2  444   7.294   5.493   2.630 -1.0061  2.0814 -0.0744
64402SOL     OW  445   7.721   0.806  12.413  0.0871  0.2830  0.4580
64402SOL    HW1  446   7.785   0.817  12.343  0.5648  1.5870  1.0702
64402SOL    HW2  447   7.643   0.772  12.368  1.1333 -1.2522 -0.3085
64403SOL     OW  448   3.692   4.892   7.428 -0.2026 -0.1108 -0.0829
64403SOL    HW1  449   3.669   4.841   7.505  1.3876  0.2228  0.6377
64403SOL    HW2  450   3.734   4.829   7.369  0.2479  0.0201  0.0994
64404SOL     OW  451   8.503  12.012   6.937  0.0593  0.1461  0.1153
64404SOL    HW1  452   8.594  11.985   6.921 -0.6900 -2.1442 -0.5288
64404SOL    HW2  453   8.468  12.031   6.850 -0.3297  0.1905  0.2816
64405SOL     OW  454   9.535   4.199   8.756  0.7843 -0.5894  0.7512
64405SOL    HW1  455   9.474   4.243   8.696  1.5128 -1.9119 -1.0587
64405SOL    HW2  456   9.526   4.106   8.735  1.0587 -1.1127  2.7678
64406SOL     OW  457   9.905  10.611   1.590  0.1857  0.1353  0.3206
64406SOL    HW1  458   9.840  10.589   1.658  2.1876 -1.8337  1.7229
64406SOL    HW2  459   9.853  10.619   1.510 -2.1978  1.8409  1.8703
64407SOL     OW  460   7.430   5.302   0.334 -0.0606 -0.2192 -0.5555
64407SOL    HW1  461   7.506   5.305   0.393 -0.3114 -0.0111 -0.2432
64407SOL    HW2  462   7.434   5.214   0.295 -0.9289 -1.0553  1.1350
64408SOL     OW  463  10.660   4.732   8.970 -0.0354 -0.4316  0.2569
64408SOL    HW1  464  10.755   4.726   8.963 -0.1787 -1.8961 -0.8425
64408SOL    HW2  465  10.639   4.690   9.053  0.1728 -1.6275 -0.2779
64409SOL     OW  466   7.869   0.504   3.105  0.3451  0.2089 -0.4768
64409SOL    HW1  467   7.794   0.524   3.049 -0.8403 -0.3465  0.8437
64409SOL    HW2  468   7.941   0.556   3.069 -0.2305 -0.4516 -2.7542
64410SOL     OW  469  11.186   2.293  11.076  0.0403  0.2154  0.3358
64410SOL    HW1  470  11.170   2.324  10.987 -1.8492 -3.6041 -0.8593
64410SOL    HW2  471  11.281   2.284  11.082  0.2203  0.9809 -1.0889
64411SOL     OW  472  12.321   9.377   0.912  0.1504  0.0569  0.3104
64411SOL    HW1  473  12.365   9.438   0.972  0.1548 -1.6491  2.1434
64411SOL    HW2  474  12.231   9.374   0.943  0.3420 -1.4673  0.8010
64412SOL     OW  475   1.828   8.675   5.474  0.4597 -0.1319  0.2706
64412SOL    HW1  476   1.859   8.729   5.401 -1.6289  1.3575  0.4095
64412SOL    HW2  477   1.817   8.736   5.547 -0.4912 -1.0311  0.9143
64413SOL     OW  478  11.656   1.644   9.737  0.3441 -0.3832 -0.3600
64413SOL    HW1  479  11.731   1.585   9.747 -0.4173 -1.2324  0.5094
64413SOL    HW2  480  11.600   1.601   9.674 -0.9275 -1.3814  1.3745
64414SOL     OW  481   5.257   7.730   7.249 -0.4499 -0.1526 -0.5803
64414SOL    HW1  482   5.328   7.793   7.264  0.6606 -1.5201  0.2024
64414SOL    HW2  483   5.194   7.749   7.318  0.8683 -1.1894  0.9975
64415SOL     OW  484   0.083   5.474   5.136 -0.1349  0.0025 -0.2357
64415SOL    HW1  485   0.091   5.526   5.216  0.5774 -0.5882  0.0924
64415SOL    HW2  486   0.111   5.532   5.066 -1.7257  0.8535 -0.2047
64416SOL     OW  487   5.897   0.894   3.864 -0.0932 -0.0711  0.5740
64416SOL    HW1  488   5.882   0.869   3.955  0.9899  0.4862  0.9330
64416SOL    HW2  489   5.917   0.988   3.869  2.1042 -0.4635  0.0530
64417SOL     OW  490   0.295   3.665  10.622 -0.3262  0.0658  0.2240
64417SOL    HW1  491   0.267   3.588  10.572  0.8487  0.6065 -1.3311
64417SOL    HW2  492   0.214   3.714  10.635 -0.6781 -0.0844 -1.1970
64418SOL     OW  493   9.114   3.103   5.154 -1.1544 -0.1787  0.2217
64418SOL    HW1  494   9.057   3.027   5.140  0.3933 -1.4157  0.2083
64418SOL    HW2  495   9.201   3.072   5.127 -0.6993  2.0677 -1.0861
64419SOL     OW  496  10.094   5.571   0.780  0.4268  0.0996 -0.1495
64419SOL    HW1  497  10.051   5.550   0.697 -1.1135 -0.1856  0.6923
64419SOL    HW2  498  10.036   5.634   0.823  1.5132  0.7214  0.4496
64420SOL     OW  499   9.941   3.240   7.713  0.2411  0.1624 -0.0821
64420SOL    HW1  500   9.923   3.152   7.747 -0.9888 -0.1779 -1.5337
64420SOL    HW2  501  10.002   3.278   7.777 -2.9173  0.0984  3.3025
64421SOL     OW  502   3.522   2.083   5.754 -0.3476 -0.7337 -0.3765
64421SOL    HW1  503   3.522   2.007   5.695  4.2572 -1.3407 -0.0406
64421SOL    HW2  504   3.495   2.157   5.699 -2.0155 -2.1163 -1.5209
64422SOL     OW  505   7.979   6.185   6.570  0.0715 -0.8533  0.2734
64422SOL    HW1  506   7.999   6.271   6.533  2.9578 -0.5028  2.3530
64422SOL    HW2  507   8.056   6.132   6.551 -0.5061 -2.1538  1.4016
64423SOL     OW  508   1.464  11.528   0.768  0.1444 -0.1432  0.6210
64423SOL    HW1  509   1.531  11.501   0.706 -0.6875  1.0434 -0.8428
64423SOL    HW2  510   1.402  11.456   0.770  0.6100 -0.5494  0.7616
64424SOL     OW  511   1.273   4.723   7.633  0.4083  0.0000 -0.3808
64424SOL    HW1  512   1.301   4.634   7.608  1.2385  0.2072 -0.2212
64424SOL    HW2  513   1.178   4.717   7.641  0.5943 -1.3087  1.3410
64425SOL     OW  514   3.349   4.836  11.705 -0.2077  0.4959  0.1349
64425SOL    HW1  515   3.356   4.920  11.659 -0.3260  0.6131  0.3281
64425SOL    HW2  516   3.425   4.834  11.763  0.5761 -0.1644 -0.8864
64426SOL     OW  517   3.094   9.800   0.507 -0.3889  0.5841 -0.2490
64426SOL    HW1  518   3.170   9.775   0.455  0.1687  0.5696  0.5498
64426SOL    HW2  519   3.090   9.734   0.577 -0.6002  1.0999  0.2348
64427SOL     OW  520   3.960   0.752  10.750  0.7942 -0.1818  0.0596
64427SOL    HW1  521   3.973   0.688  10.680  3.2046  0.8371 -0.5482
64427SOL    HW2  522   3.865   0.759  10.760  0.4411 -2.2181 -1.3323
64428SOL     OW  523  12.180   9.592   6.875 -0.6177 -0.6030 -0.4667
64428SOL    HW1  524  12.211   9.509   6.837  0.9173 -0.1291 -0.3391
64428SOL    HW2  525  12.209   9.589   6.966 -0.0973  0.2750 -0.5907
64429SOL     OW  526   8.725  11.439   8.890  0.3421  1.0182 -0.0680
64429SOL    HW1  527   8.760  11.500   8.825 -0.9253  1.9845  0.1285
64429SOL    HW2  528   8.663  11.490   8.941 -1.2288 -0.5542 -0.2842
64430SOL     OW  529   6.646  10.669   9.907  0.0147  0.0849 -0.4161
64430SOL    HW1  530   6.705  10.718   9.850 -0.5386  1.0224 -0.2044
64430SOL    HW2  531   6.672  10.694   9.996  0.8657 -1.3633 -0.2349
64431SOL     OW  532   1.768   9.099   9.638 -0.0165  0.4355 -0.1163
64431SOL    HW1  533   1.741   9.042   9.566  2.4399  0.0632 -0.7999
64431SOL    HW2  534   1.771   9.187   9.599 -2.4806  0.9406  0.6049
64432SOL     OW  535   6.505   9.183   5.966  0.1082 -0.2016  0.7301
64432SOL    HW1  536   6.543   9.271   5.961  0.2196 -0.3023 -1.9052
64432SOL    HW2  537   6.414   9.197   5.988 -0.0926  0.6990 -0.5455
64433SOL     OW  538   0.744  10.248   5.668 -0.1853 -0.6645  0.1921
64433SOL    HW1  539   0.722  10.203   5.749  1.6795 -1.6214  0.2187
64433SOL    HW2  540   0.777  10.334   5.696 -2.9739  0.5155  0.1824
64434SOL     OW  541   4.471   6.932  12.337 -0.1477 -0.0031  0.3842
64434SOL    HW1  542   4.560   6.911  12.365 -0.1949  0.9487  1.3203
64434SOL    HW2  543   4.436   6.987  12.407 -2.6471 -2.9844  1.7149
64435SOL     OW  544   2.350   9.246   0.568 -0.0037 -0.1341 -0.4980
64435SOL    HW1  545   2.322   9.307   0.635 -2.2890  3.2065 -4.0711
64435SOL    HW2  546   2.278   9.184   0.560  0.5109 -0.8743  0.3881
64436SOL     OW  547   1.425   7.394   6.018  0.3618  0.1561  0.5895
64436SOL    HW1  548   1.446   7.448   5.942  1.3806 -0.7574  0.1878
64436SOL    HW2  549   1.337   7.360   5.999  0.4259  0.2865  0.0307
64437SOL     OW  550  10.349   5.382   7.808 -0.3283 -0.2164  0.4162
64437SOL    HW1  551  10.318   5.453   7.751 -0.5610 -0.5428  0.1295
64437SOL    HW2  552  10.271   5.354   7.855  0.2709  1.5904  2.6417
64438SOL     OW  553   0.555  12.436   8.460 -0.6014  0.2280  0.0521
64438SOL    HW1  554   0.616  12.406   8.393  0.3549 -0.2911  1.1201
64438SOL    HW2  555   0.572  12.380   8.535  0.0691  2.3467  1.5628
64439SOL     OW  556   3.830  12.225   5.819 -0.7936  0.3128 -0.8662
64439SOL    HW1  557   3.741  12.258   5.832 -0.3751  1.6334 -1.1473
64439SOL    HW2  558   3.832  12.196   5.728 -0.5293  1.7346 -1.3431
64440SOL     OW  559  11.771   9.545   1.495 -0.1502 -0.0907 -0.7152
64440SOL    HW1  560  11.686   9.502   1.491 -0.9910  1.4105 -0.0073
64440SOL    HW2  561  11.759   9.627   1.447  0.0281  1.4102  1.6038
64441SOL     OW  562   4.258  12.635   9.282 -0.4906 -0.6252 -0.4323
64441SOL    HW1  563   4.271  12.550   9.242  0.2936 -0.9976  0.5794
64441SOL    HW2  564   4.203  12.618   9.358  1.3783 -0.5944  0.9865
64442SOL     OW  565  12.613   3.969  11.383 -0.2120  0.3979  0.5016
64442SOL    HW1  566  12.579   3.978  11.472  1.0413  0.9353  0.9495
64442SOL    HW2  567  12.597   4.055  11.343 -2.4624 -0.3928 -0.4492
64443SOL     OW  568   7.997   8.580   0.405  0.4961 -0.8592  0.2970
64443SOL    HW1  569   7.980   8.623   0.489 -2.4609 -1.0430 -0.0737
64443SOL    HW2  570   7.930   8.512   0.399 -0.5375  0.2143 -2.8398
64444SOL     OW  571   5.712   6.757   8.140 -0.2956  0.3756  0.4539
64444SOL    HW1  572   5.621   6.787   8.144 -0.0328  1.0534  1.8275
64444SOL    HW2  573   5.748   6.804   8.065 -1.7372 -1.9792 -1.9069
64445SOL     OW  574   6.671  10.123   3.786  0.2277  0.2472  0.5458
64445SOL    HW1  575   6.616  10.133   3.864 -1.2036  0.4756 -0.4604
64445SOL    HW2  576   6.614  10.082   3.721  1.6747 -0.8236 -0.1006
64446SOL     OW  577   0.459   4.238   5.504  0.6978 -0.3915  0.1754
64446SOL    HW1  578   0.497   4.156   5.471  0.2604 -0.2359 -0.7564
64446SOL    HW2  579   0.367   4.233   5.478  0.7347  0.5201 -0.1554
64447SOL     OW  580   4.482   9.258   1.169 -0.5625  0.2659  0.2087
64447SOL    HW1  581   4.419   9.291   1.233  0.3718  1.4343  0.5477
64447SOL    HW2  582   4.494   9.330   1.107 -0.1730 -0.2404 -0.3166
64448SOL     OW  583   8.599   9.211  11.410 -0.4353 -0.1520 -0.2771
64448SOL    HW1  584   8.655   9.239  11.483  0.5367  1.4894 -1.5726
64448SOL    HW2  585   8.526   9.274  11.411 -0.4706 -0.1848 -0.6572
64449SOL     OW  586   9.485   4.116   3.418 -0.2729 -0.1565  0.2656
64449SOL    HW1  587   9.462   4.190   3.474 -1.1192  0.0481 -0.3199
64449SOL    HW2  588   9.537   4.058   3.473  2.0552  1.7447  0.2425
64450SOL     OW  589   6.115  11.358  10.970  0.6083  0.1522 -0.3751
64450SOL    HW1  590   6.201  11.401  10.973  0.5613  0.2333 -0.1169
64450SOL    HW2  591   6.060  11.411  11.028  0.6870 -0.5572  0.3684
64451SOL     OW  592   6.675   4.279   6.077 -0.5592 -0.1714  0.1571
64451SOL    HW1  593   6.674   4.256   6.170 -0.9471  0.1693  0.2425
64451SOL    HW2  594   6.747   4.342   6.069  0.1023 -0.9324  0.0396
64452SOL     OW  595   1.632   0.441   7.478  0.1299  0.1567  0.6754
64452SOL    HW1  596   1.658   0.524   7.519 -0.8326  0.9074 -0.1823
64452SOL    HW2  597   1.557   0.412   7.529 -0.2557  0.4255  0.2744
64453SOL     OW  598  11.115   4.074   2.466  0.1050  0.0735  0.1759
64453SOL    HW1  599  11.173   4.105   2.397  0.8997  1.1644  1.3050
64453SOL    HW2  600  11.159   3.998   2.503  0.4868  0.4729  0.5558
64454SOL     OW  601  10.972   7.169   0.612 -0.3522  0.0774 -0.2738
64454SOL    HW1  602  11.007   7.216   0.688  1.6451 -1.2820 -0.3056
64454SOL    HW2  603  10.937   7.239   0.556 -0.7390  1.2071  1.2833
64455SOL     OW  604   7.354   8.063   3.438  0.5358 -0.0388  0.1429
64455SOL    HW1  605   7.313   8.112   3.367 -1.3007 -0.7431  0.6660
64455SOL    HW2  606   7.439   8.037   3.403  1.7935  3.7398 -0.0441
64456SOL     OW  607   4.189   2.950   3.576  0.1956  0.0540 -0.0571
64456SOL    HW1  608   4.249   3.020   3.601 -0.2116  0.6934 -0.8159
64456SOL    HW2  609   4.243   2.890   3.524 -0.6200  3.1249 -5.2570
64457SOL     OW  610  10.424   8.807   4.183  0.6397  0.4716  0.4332
64457SOL    HW1  611  10.381   8.751   4.247 -1.2310  1.6411  0.2840
64457SOL    HW2  612  10.475   8.747   4.129  0.3196 -0.8175  1.5136
64458SOL     OW  613   2.616   3.328   3.172  0.3992  0.6399 -0.0385
64458SOL    HW1  614   2.648   3.406   3.126  0.9543  0.5142  0.1224
64458SOL    HW2  615   2.560   3.284   3.109  1.2984  0.3720 -0.6589
64459SOL     OW  616   2.220   5.593   3.405 -0.3772 -0.3331  0.1777
64459SOL    HW1  617   2.295   5.566   3.353 -0.0209  0.7870  0.0691
64459SOL    HW2  618   2.153   5.528   3.387  0.6200 -1.4508  0.4136
64460SOL     OW  619  11.577  10.752   8.808  0.2194  0.3056  0.6077
64460SOL    HW1  620  11.620  10.668   8.791 -1.0090 -0.3991  0.7954
64460SOL    HW2  621  11.598  10.772   8.899 -1.5485 -1.1368  1.3994
64461SOL     OW  622   8.762   1.595  11.168  0.2361 -0.1903 -0.0854
64461SOL    HW1  623   8.846   1.641  11.164  2.1327 -3.2304  0.7786
64461SOL    HW2  624   8.728   1.613  11.256 -1.3556  2.9599 -1.2151
64462SOL     OW  625   4.793   3.697   2.921 -0.6346 -0.1173 -0.6097
64462SOL    HW1  626   4.754   3.641   2.855 -1.8439  2.1679 -1.9666
64462SOL    HW2  627   4.868   3.737   2.877  0.2742 -0.7057  0.3647
64463SOL     OW  628   2.773   3.509   3.835 -0.0919 -0.4157  0.0453
64463SOL    HW1  629   2.710   3.461   3.781 -0.1055  0.9964 -1.2755
64463SOL    HW2  630   2.726   3.589   3.860  0.3945 -0.4217  1.0108
64464SOL     OW  631  10.876  10.893   4.363  0.2625 -0.4980  0.5815
64464SOL    HW1  632  10.882  10.798   4.353  0.7484 -0.5574  1.3201
64464SOL    HW2  633  10.806  10.905   4.428  1.0836 -0.4333  1.4858
64465SOL     OW  634   8.687   3.647  11.752  0.4637  0.0475 -0.1956
64465SOL    HW1  635   8.644   3.713  11.697  0.4990  0.6915  0.5318
64465SOL    HW2  636   8.776   3.679  11.762  1.3963 -1.6454 -2.2906
64466SOL     OW  637   3.771   3.453   3.193  0.0672 -0.5273 -0.2662
64466SOL    HW1  638   3.786   3.387   3.126  0.5276 -0.0348 -0.6561
64466SOL    HW2  639   3.676   3.464   3.196 -0.1403 -2.2337  0.8079
64467SOL     OW  640   3.886  10.513   0.205 -0.0820 -0.0431  0.1346
64467SOL    HW1  641   3.921  10.442   0.152 -1.2999 -1.2365  0.8746
64467SOL    HW2  642   3.913  10.493   0.295 -0.5706  0.3343  0.3761
64468SOL     OW  643   9.260   3.956   1.451  0.3298  0.5602 -0.1717
64468SOL    HW1  644   9.290   4.029   1.398  2.1449  0.9310  1.2909
64468SOL    HW2  645   9.335   3.932   1.505 -0.1267 -2.5026 -0.6869
64469SOL     OW  646   2.865  11.947   2.497  0.1367 -0.5606  0.1035
64469SOL    HW1  647   2.951  11.910   2.476 -0.0396 -0.1614 -1.5178
64469SOL    HW2  648   2.884  12.023   2.551  0.8648 -0.1909 -0.6507
64470SOL     OW  649  10.810   8.931   0.119  0.1360 -0.0580 -0.6198
64470SOL    HW1  650  10.876   8.987   0.077 -0.2556  0.7070 -0.2378
64470SOL    HW2  651  10.737   8.931   0.057  0.7725 -1.5622 -1.4245
64471SOL     OW  652   7.443   7.406   4.451  0.0268 -1.1904 -0.2525
64471SOL    HW1  653   7.467   7.329   4.400  0.3191 -1.5638  0.4333
64471SOL    HW2  654   7.452   7.378   4.542  4.6203  0.8987  0.1935
64472SOL     OW  655   1.102   6.059   0.611  0.0474  0.0713  0.1542
64472SOL    HW1  656   1.195   6.044   0.591  0.1186  0.9532 -0.1980
64472SOL    HW2  657   1.100   6.074   0.706 -0.0936 -2.5516  0.6585
64473SOL     OW  658  10.885   6.379   7.473 -0.6276  0.6144  0.2283
64473SOL    HW1  659  10.928   6.307   7.426 -0.2153  1.0159 -0.0300
64473SOL    HW2  660  10.944   6.454   7.459  1.1352  0.1105  3.9030
64474SOL     OW  661  10.530   1.170  11.368 -0.3001 -0.4739  0.0944
64474SOL    HW1  662  10.607   1.125  11.333 -1.4946 -2.1436 -0.5074
64474SOL    HW2  663  10.488   1.208  11.291  0.7422  1.8934  0.5953
64475SOL     OW  664  10.618   2.171   6.465  0.3841  0.4292  0.0886
64475SOL    HW1  665  10.612   2.172   6.370  0.1545  1.0658  0.1068
64475SOL    HW2  666  10.661   2.088   6.486  2.3028  1.1738 -0.6738
64476SOL     OW  667   4.490  12.600   6.167  0.0161 -0.2108 -0.4037
64476SOL    HW1  668   4.579  12.625   6.142 -0.6860  2.7887 -0.3346
64476SOL    HW2  669   4.443  12.593   6.084  0.0819 -0.7590 -0.3948
64477SOL     OW  670   6.067   7.502  12.134 -0.5635 -0.2177  0.3068
64477SOL    HW1  671   6.023   7.578  12.095 -1.4176 -1.1720 -0.6516
64477SOL    HW2  672   6.146   7.490  12.082  0.5798  1.1101  1.6322
64478SOL     OW  673   1.692   6.668   4.255  0.4662  0.0005 -0.0748
64478SOL    HW1  674   1.650   6.614   4.188 -1.9167  0.9913  0.5487
64478SOL    HW2  675   1.632   6.665   4.329  2.1043  0.5232  1.3227
64479SOL     OW  676   5.972   0.498   3.462  0.0239  0.2528  0.1563
64479SOL    HW1  677   5.987   0.590   3.483 -0.3737  0.1953  0.7265
64479SOL    HW2  678   5.876   0.490   3.457  0.0620 -0.0883 -0.0629
64480SOL     OW  679   5.904  10.299   8.788  0.1701 -0.0488 -0.4102
64480SOL    HW1  680   5.888  10.227   8.849  1.5204  0.4762  0.6120
64480SOL    HW2  681   5.962  10.261   8.721 -0.8392 -0.4616 -1.0799
64481SOL     OW  682  12.082   2.492   3.949  0.1752  0.1334  0.2274
64481SOL    HW1  683  12.153   2.430   3.968  0.7544  0.3244 -1.2080
64481SOL    HW2  684  12.021   2.482   4.022  0.0956 -2.3661 -0.1130
64482SOL     OW  685   7.370   8.613  10.256  0.1132  0.0251 -0.5035
64482SOL    HW1  686   7.334   8.662  10.182  0.4765  0.3533 -0.4661
64482SOL    HW2  687   7.297   8.604  10.317  0.4777  2.1503  0.3378
64483SOL     OW  688   0.901   5.297   7.223  0.1836 -0.0554  0.1374
64483SOL    HW1  689   0.881   5.305   7.316 -0.8814 -0.9196 -0.0083
64483SOL    HW2  690   0.816   5.303   7.179  0.6961  0.5792 -0.8081
64484SOL     OW  691   9.355   6.883   2.608 -0.0885  0.2595 -0.1915
64484SOL    HW1  692   9.272   6.926   2.588 -0.3070  1.1257  2.2185
64484SOL    HW2  693   9.337   6.832   2.687  1.2548 -0.9096 -0.6024
64485SOL     OW  694  11.185   6.066  10.046  0.2580  0.0478  0.1995
64485SOL    HW1  695  11.090   6.074  10.055  0.3694  2.7733 -0.0398
64485SOL    HW2  696  11.198   6.035   9.956 -0.4107  0.5717 -0.0900
64486SOL     OW  697   1.890  12.053   1.077 -0.0077  0.4780  0.1157
64486SOL    HW1  698   1.829  12.032   1.148  0.1469  2.0864  0.7558
64486SOL    HW2  699   1.860  12.137   1.044  0.6311  0.2948 -0.9616
64487SOL     OW  700  11.946   6.923  10.194 -0.3203 -0.6968  0.2782
64487SOL    HW1  701  11.884   6.990  10.164 -0.7967 -1.2656 -0.0138
64487SOL    HW2  702  12.015   6.973  10.238  0.5088  0.1811 -1.9011
64488SOL     OW  703   5.465   0.631  12.588 -0.2840  0.1115  0.9318
64488SOL    HW1  704   5.450   0.582  12.669  1.2369 -0.8464  0.6723
64488SOL    HW2  705   5.467   0.564  12.520 -3.2647  1.0384 -0.2245
64489SOL     OW  706   9.302   5.822   0.566  0.4010 -0.7364 -0.3948
64489SOL    HW1  707   9.316   5.856   0.654 -0.0590 -2.1688  0.2560
64489SOL    HW2  708   9.229   5.761   0.575  1.6675 -2.4754 -1.3449
64490SOL     OW  709   0.068   4.075   0.833 -0.2847 -0.2173 -0.2762
64490SOL    HW1  710  -0.011   4.022   0.845  0.8408 -2.1306 -0.8261
64490SOL    HW2  711   0.076   4.084   0.738  0.1499 -0.0500 -0.2239
64491SOL     OW  712   2.846  10.354   1.136 -0.3577 -0.2123 -0.0972
64491SOL    HW1  713   2.897  10.333   1.057 -0.9812  1.4340 -0.9802
64491SOL    HW2  714   2.888  10.432   1.171 -0.6650 -0.3891  0.6811
64492SOL     OW  715  11.247   7.655   4.941  0.3199  0.1039  0.0255
64492SOL    HW1  716  11.332   7.639   4.900  0.0773 -1.5353  0.0960
64492SOL    HW2  717  11.186   7.602   4.890  0.0081 -2.0360  2.3793
64493SOL     OW  718   4.866   4.933  12.256 -0.1259  0.2563  0.1056
64493SOL    HW1  719   4.826   4.861  12.207 -0.2201  0.5894 -0.3077
64493SOL    HW2  720   4.897   4.892  12.337  0.6127 -0.4245 -0.5011
64494SOL     OW  721   1.736   1.723   0.119  0.0408 -0.1689  0.1028
64494SOL    HW1  722   1.789   1.644   0.127  0.1808 -0.0879 -0.0280
64494SOL    HW2  723   1.686   1.728   0.201 -0.5886 -0.8483 -0.2259
64495SOL     OW  724   1.355   7.480   6.968  0.1574 -0.0966 -0.5600
64495SOL    HW1  725   1.420   7.468   7.037  0.7083  0.3444 -0.9890
64495SOL    HW2  726   1.317   7.393   6.955  1.1282 -0.5048 -0.7487
64496SOL     OW  727   4.201   7.775   6.890 -0.0115  0.6300  0.3547
64496SOL    HW1  728   4.204   7.861   6.849  0.5938  0.9908  1.1280
64496SOL    HW2  729   4.234   7.715   6.824 -1.4575  0.8215 -0.5795
64497SOL     OW  730   1.862   4.180   4.627 -0.0516  0.1771 -0.9960
64497SOL    HW1  731   1.788   4.241   4.627  0.5844  0.9926 -0.1451
64497SOL    HW2  732   1.939   4.237   4.630  0.5434 -0.6620  1.1589
64498SOL     OW  733   9.964   7.148  10.054 -0.1973  0.0249 -0.3803
64498SOL    HW1  734  10.006   7.156   9.968  1.8316  0.1903  0.5503
64498SOL    HW2  735   9.874   7.124  10.036  0.1270  0.3076 -2.5596
64499SOL     OW  736  10.825   8.866   1.816  0.0352 -0.5139  0.1626
64499SOL    HW1  737  10.835   8.920   1.894 -0.3692 -1.1995  0.7004
64499SOL    HW2  738  10.756   8.909   1.766  1.2090  0.6835 -0.4939
64500SOL     OW  739  11.600   0.915   2.806 -1.2268 -0.0695 -0.3615
64500SOL    HW1  740  11.679   0.966   2.786 -0.3883 -1.5329 -0.9281
64500SOL    HW2  741  11.620   0.873   2.890 -2.1219  0.8826  0.3656
64501SOL     OW  742   1.269   8.885   6.939 -0.0581  0.1877  0.2194
64501SOL    HW1  743   1.311   8.901   7.024 -1.8195 -0.1159  1.2030
64501SOL    HW2  744   1.286   8.793   6.921 -0.7132 -0.0752  0.8804
64502SOL     OW  745  10.726   7.673   7.458  0.3076 -0.9801  0.4563
64502SOL    HW1  746  10.815   7.697   7.484  0.5228  0.5841 -1.5077
64502SOL    HW2  747  10.678   7.665   7.541  1.6869  0.6034  1.4625
64503SOL     OW  748  12.590   2.427   8.154  0.4793  0.0614  0.2424
64503SOL    HW1  749  12.598   2.518   8.184  0.1120  0.6264 -1.2721
64503SOL    HW2  750  12.512   2.428   8.098  0.7729 -1.0729 -0.1998
64504SOL     OW  751   7.041   4.435   6.279 -0.9530  0.2240 -0.0313
64504SOL    HW1  752   7.028   4.513   6.225 -2.2691 -1.4903 -2.3726
64504SOL    HW2  753   7.135   4.434   6.297 -0.3983  0.7998 -2.5188
64505SOL     OW  754   9.533   6.451   6.029  0.9645  0.1771 -0.2123
64505SOL    HW1  755   9.531   6.465   5.934 -0.7196 -0.9764 -0.3805
64505SOL    HW2  756   9.589   6.374   6.041  0.5317 -0.1643 -0.3559
64506SOL     OW  757  11.907   1.365   2.508 -0.2257 -0.5440  0.3502
64506SOL    HW1  758  12.000   1.342   2.511  0.0208  0.5291  2.1942
64506SOL    HW2  759  11.865   1.288   2.468  1.4334 -0.9990 -0.6487
64507SOL     OW  760   5.956  10.520   9.828 -0.9445 -0.2751 -0.4953
64507SOL    HW1  761   6.002  10.513   9.912  0.0634  2.6870 -0.6733
64507SOL    HW2  762   6.018  10.486   9.764 -0.5410  0.1447 -0.3321
64508SOL     OW  763   9.845   0.096  10.652 -0.0948 -0.2454 -0.5509
64508SOL    HW1  764   9.826   0.010  10.614 -0.6951 -0.1565 -0.4623
64508SOL    HW2  765   9.918   0.080  10.712  0.9591 -0.3653 -1.8042
64509SOL     OW  766   3.757   9.052   0.915  0.1097  0.1436  0.3049
64509SOL    HW1  767   3.721   9.108   0.984  1.4312  1.6743 -0.1686
64509SOL    HW2  768   3.844   9.029   0.946 -0.6120 -2.2576  0.7634
64510SOL     OW  769   3.294   5.634   1.853  0.6069  0.0965  0.0733
64510SOL    HW1  770   3.389   5.645   1.841  1.1365 -1.8944  1.7475
64510SOL    HW2  771   3.259   5.633   1.764  2.7872 -3.2603 -0.9710
64511SOL     OW  772  12.513   7.587   6.004  0.7010  0.5478  0.3706
64511SOL    HW1  773  12.424   7.619   5.994  0.9850  1.1673 -0.2304
64511SOL    HW2  774  12.530   7.591   6.099  0.3211  1.0356  0.4164
64512SOL     OW  775   4.097   9.826   1.655  0.3301 -0.2678 -0.0908
64512SOL    HW1  776   4.141   9.837   1.739  0.9080  0.4352 -0.4752
64512SOL    HW2  777   4.018   9.879   1.662  0.4920 -0.0265 -0.0677
64513SOL     OW  778   0.199   3.956   6.464 -0.0909 -0.0143  0.4512
64513SOL    HW1  779   0.124   3.915   6.421  0.0050 -0.8045  1.0261
64513SOL    HW2  780   0.172   4.047   6.476 -1.4470 -0.5421  1.7205
64514SOL     OW  781   8.214   7.817   1.096 -0.2569  0.7098 -0.3191
64514SOL    HW1  782   8.201   7.722   1.091 -0.1209  0.7418 -1.4992
64514SOL    HW2  783   8.262   7.831   1.178  1.2402 -0.4152 -0.9653
64515SOL     OW  784   5.791   7.961   4.727 -0.3449  0.0333  0.1170
64515SOL    HW1  785   5.755   7.926   4.809 -1.8915 -0.1760 -0.6059
64515SOL    HW2  786   5.885   7.945   4.733 -0.6645 -1.7547  1.0099
64516SOL     OW  787   0.801   8.832   3.897  0.0508 -0.2995 -0.1342
64516SOL    HW1  788   0.753   8.795   3.823  1.2783 -0.9953 -0.5959
64516SOL    HW2  789   0.734   8.844   3.965 -0.8189 -1.0345 -0.8349
64517SOL     OW  790   6.127   2.177   7.484 -0.0640 -0.3151 -0.0497
64517SOL    HW1  791   6.120   2.271   7.505 -0.2724 -0.3552  0.0620
64517SOL    HW2  792   6.044   2.157   7.440 -0.0530 -0.4684  0.0033
64518SOL     OW  793  10.537   5.673   6.930  0.4080  0.9739  0.1091
64518SOL    HW1  794  10.607   5.651   6.990  0.0449  0.1806  0.2506
64518SOL    HW2  795  10.507   5.589   6.895 -1.8825  1.0720  1.6483
64519SOL     OW  796   2.293   4.794   9.555 -0.3341 -0.2276  0.5889
64519SOL    HW1  797   2.203   4.761   9.560 -0.3590 -0.0762  1.2502
64519SOL    HW2  798   2.284   4.889   9.560 -0.2164 -0.1399 -0.6517
64520SOL     OW  799   1.403   5.893  10.477 -0.1096  0.2983 -0.2065
64520SOL    HW1  800   1.370   5.807  10.453  1.1566 -0.2336 -0.1234
64520SOL    HW2  801   1.426   5.934  10.393 -1.6462  0.9797 -0.3273
64521SOL     OW  802   2.798   9.521   6.040  0.3005  0.1573  0.1846
64521SOL    HW1  803   2.804   9.448   5.978 -1.9882 -0.8374  0.9840
64521SOL    HW2  804   2.828   9.484   6.123  0.1733  0.4552  0.3646
64522SOL     OW  805   0.815   2.664  10.654  0.1537 -0.3436  0.0931
64522SOL    HW1  806   0.900   2.705  10.637  0.3310 -0.1644  1.2720
64522SOL    HW2  807   0.815   2.650  10.749 -1.7363  1.0185  0.3412
64523SOL     OW  808   1.622   7.319   7.449  0.2498  0.3052  0.2404
64523SOL    HW1  809   1.590   7.404   7.479 -0.6512  0.1202 -0.1845
64523SOL    HW2  810   1.660   7.279   7.528  0.8300  1.1529  0.4086
64524SOL     OW  811   7.450   9.872   2.412 -0.2760  0.9180  0.2828
64524SOL    HW1  812   7.445   9.951   2.359  2.9255 -0.0368 -1.7658
64524SOL    HW2  813   7.513   9.893   2.481 -0.9036  0.7368  0.9208
64525SOL     OW  814   1.029   6.506   8.520 -0.3277 -1.0851  0.2413
64525SOL    HW1  815   0.974   6.466   8.587  2.0196  0.7145  3.5103
64525SOL    HW2  816   1.117   6.475   8.539  0.4834 -0.3679 -1.9849
64526SOL     OW  817   7.863   1.390   5.749  0.0866 -0.2742 -0.3844
64526SOL    HW1  818   7.896   1.302   5.731  0.5727  0.1620 -1.8606
64526SOL    HW2  819   7.787   1.399   5.692  0.3963  0.4566 -0.6978
64527SOL     OW  820  11.520   4.594   2.209 -0.1114  0.4328 -0.0175
64527SOL    HW1  821  11.538   4.678   2.167  0.3067 -0.2136 -1.1565
64527SOL    HW2  822  11.602   4.570   2.251  0.5202 -0.5312 -1.7207
64528SOL     OW  823   2.780  10.415  12.583 -0.0971 -0.1387  0.1115
64528SOL    HW1  824   2.870  10.450  12.577 -0.4341  1.3415  2.4428
64528SOL    HW2  825   2.779  10.366  12.665 -2.0438  2.1015  1.5575
64529SOL     OW  826   9.704   6.695   4.507  1.0253  0.3318  0.0443
64529SOL    HW1  827   9.662   6.610   4.500 -1.7738  1.7081 -1.2811
64529SOL    HW2  828   9.794   6.675   4.535 -0.3012 -2.8029  2.6318
64530SOL     OW  829   6.505   2.108   2.850  0.1808  0.2713 -0.2754
64530SOL    HW1  830   6.413   2.113   2.824 -0.1213  2.3954  0.9389
64530SOL    HW2  831   6.539   2.196   2.834  1.3925  0.1531  1.3236
64531SOL     OW  832   1.241   4.022   1.345 -0.2454 -0.5402 -0.3736
64531SOL    HW1  833   1.222   3.929   1.344 -3.4014 -0.0308  1.1091
64531SOL    HW2  834   1.157   4.064   1.362  1.2888  2.5170  0.4152
64532SOL     OW  835   8.184   3.381   4.698  0.5755  0.3541  0.3585
64532SOL    HW1  836   8.128   3.324   4.750 -0.7265  0.1597 -1.1637
64532SOL    HW2  837   8.129   3.457   4.678  0.5552 -0.1387 -1.7345
64533SOL     OW  838   5.236  11.512   9.277  0.1243  0.7528  0.4605
64533SOL    HW1  839   5.228  11.462   9.196  0.0907  0.5115  0.6100
64533SOL    HW2  840   5.320  11.484   9.314 -0.5659 -0.3294  1.2932
64534SOL     OW  841   4.764   4.462   9.857  0.1974 -0.5686 -0.4760
64534SOL    HW1  842   4.668   4.469   9.854  0.2198 -0.5338 -1.2643
64534SOL    HW2  843   4.787   4.489   9.946 -0.5599 -1.0080 -0.1391
64535SOL     OW  844  12.539   4.205   1.485 -0.0822 -0.4837  0.3396
64535SOL    HW1  845  12.530   4.227   1.392 -1.5181  0.3732  0.6581
64535SOL    HW2  846  12.562   4.112   1.485  1.5834 -0.1158 -0.9034
64536SOL     OW  847   3.527  10.009   3.977 -0.0803 -0.2517  0.0804
64536SOL    HW1  848   3.474  10.013   3.898 -0.7682 -1.3191  0.4651
64536SOL    HW2  849   3.616  10.029   3.948 -0.3886 -0.2491 -0.8850
64537SOL     OW  850  10.035   6.327   1.552  0.1363  0.6436 -0.1990
64537SOL    HW1  851   9.990   6.257   1.598  0.6055  1.1914  1.1543
64537SOL    HW2  852  10.076   6.380   1.621  0.7583  1.5901 -1.2332
64538SOL     OW  853   1.313   2.420   3.512 -0.2692  0.2475  0.4319
64538SOL    HW1  854   1.311   2.367   3.432 -0.0594 -0.8610  1.1312
64538SOL    HW2  855   1.351   2.503   3.485 -2.6400  0.9107 -1.1671
64539SOL     OW  856   4.719   7.804  11.814 -0.6613 -0.5728 -0.1593
64539SOL    HW1  857   4.648   7.863  11.836 -1.2070 -1.1312 -0.4018
64539SOL    HW2  858   4.740   7.825  11.723 -0.8961 -0.7865 -0.2647
64540SOL     OW  859  10.356   9.292   5.265  0.0508 -0.1589 -0.0979
64540SOL    HW1  860  10.338   9.293   5.359  0.9061  0.9055  0.0734
64540SOL    HW2  861  10.381   9.382   5.245 -0.2019 -0.3616 -1.3669
64541SOL     OW  862   1.263   0.665   6.561 -0.5452 -0.3849 -0.2839
64541SOL    HW1  863   1.248   0.747   6.513  1.8819 -0.5157 -1.3983
64541SOL    HW2  864   1.332   0.686   6.623  1.1361 -1.8555 -1.5518
64542SOL     OW  865  10.636   1.940   7.252  0.4855  0.4151  0.2216
64542SOL    HW1  866  10.661   1.849   7.240  0.6179  0.4930 -0.0944
64542SOL    HW2  867  10.718   1.986   7.267  0.8475  1.0411 -3.0471
64543SOL     OW  868   6.707   2.337   0.216  0.0045 -1.1007 -0.4315
64543SOL    HW1  869   6.614   2.319   0.207 -0.0589 -0.2122 -1.8100
64543SOL    HW2  870   6.749   2.278   0.153  0.1858 -0.0144 -1.3509
64544SOL     OW  871   2.578   4.156  11.169 -0.3539  0.2045 -0.7194
64544SOL    HW1  872   2.485   4.171  11.156 -0.4261 -0.4883 -1.0568
64544SOL    HW2  873   2.601   4.209  11.245 -0.4200  2.5769 -2.2223
64545SOL     OW  874   7.033  10.424   2.920  0.2655  0.1044  0.1341
64545SOL    HW1  875   6.968  10.361   2.951 -0.7710  0.9997 -0.1472
64545SOL    HW2  876   6.984  10.481   2.860  1.3168  0.8070 -0.0810
64546SOL     OW  877   9.072   9.490   8.276 -0.3312  0.0067  0.3026
64546SOL    HW1  878   9.012   9.544   8.327 -0.4282  0.7265 -0.5549
64546SOL    HW2  879   9.016   9.445   8.213 -0.0955 -0.1362  0.1936
64547SOL     OW  880   9.274   2.374   5.246  0.5770  0.3407  0.6220
64547SOL    HW1  881   9.244   2.409   5.330 -1.9402 -0.4176  0.1012
64547SOL    HW2  882   9.246   2.438   5.182  0.7122 -0.0540  0.1631
64548SOL     OW  883   5.871  11.582   4.657  0.3284  0.2350  0.7686
64548SOL    HW1  884   5.877  11.635   4.578  0.1530 -0.4932  0.2639
64548SOL    HW2  885   5.790  11.611   4.699 -1.2692 -1.5257 -0.9252
64549SOL     OW  886   7.632   0.983  11.978  0.0435 -0.7139  0.0456
64549SOL    HW1  887   7.597   0.964  11.891  1.6371  0.5356 -0.9109
64549SOL    HW2  888   7.725   0.999  11.964 -0.0562  1.6740  1.6241
64550SOL     OW  889   2.784   6.774  10.747  0.0002 -0.0368 -0.4301
64550SOL    HW1  890   2.811   6.806  10.661 -0.9189 -1.3888 -1.2499
64550SOL    HW2  891   2.810   6.682  10.749 -1.5348 -0.4972  0.0241
64551SOL     OW  892  12.451   2.519   7.389  0.1874 -0.2556  0.1101
64551SOL    HW1  893  12.492   2.455   7.332  1.3444 -0.9772  1.6556
64551SOL    HW2  894  12.392   2.468   7.445 -1.8005  0.5806 -1.1062
64552SOL     OW  895   9.674   7.702   3.378 -0.8120  0.2238 -0.2298
64552SOL    HW1  896   9.760   7.691   3.338 -0.0795  0.7884  1.1357
64552SOL    HW2  897   9.613   7.666   3.313  0.2691  1.4376 -1.9890
64553SOL     OW  898   0.224   6.781   6.671 -0.0742 -0.1682 -0.2761
64553SOL    HW1  899   0.206   6.811   6.760 -1.2788 -1.2213 -0.1388
64553SOL    HW2  900   0.173   6.700   6.661  0.5552 -0.4394 -1.7007
64554SOL     OW  901  10.177   6.874   9.755  0.1126  0.1465 -0.0995
64554SOL    HW1  902  10.153   6.815   9.827 -1.3261  0.2588 -0.4487
64554SOL    HW2  903  10.264   6.845   9.728 -0.4003 -1.6028 -0.0152
64555SOL     OW  904   1.047  10.541   8.131  0.0454 -0.1408  0.7496
64555SOL    HW1  905   1.134  10.518   8.162  0.0605 -0.1417  0.7066
64555SOL    HW2  906   0.989  10.520   8.204  0.0505 -0.3836  0.6843
64556SOL     OW  907   5.952   8.040   5.057  0.0188  0.0978 -0.6421
64556SOL    HW1  908   6.037   7.996   5.052 -0.0113 -0.2960  1.4505
64556SOL    HW2  909   5.954   8.088   5.140 -1.4263  0.9106 -1.0353
64557SOL     OW  910   1.969   0.374   3.565  0.8943  0.5439  0.3063
64557SOL    HW1  911   1.980   0.370   3.660  2.4485  1.2805  0.1847
64557SOL    HW2  912   2.024   0.303   3.532  0.0296  0.0195 -0.0451
64558SOL     OW  913   8.844   2.973   1.928 -0.1188  0.3807 -0.1011
64558SOL    HW1  914   8.886   2.888   1.909  0.4456  1.2156 -3.3533
64558SOL    HW2  915   8.763   2.950   1.973 -0.1221 -1.9432 -1.1028
64559SOL     OW  916   0.506   9.843  12.415  0.2682 -0.3257  0.1359
64559SOL    HW1  917   0.564   9.831  12.490 -0.3048 -0.9264  0.4847
64559SOL    HW2  918   0.496   9.756  12.378 -0.3500 -0.2157  0.0351
64560SOL     OW  919   7.133   0.945   2.597  0.4611 -0.3553 -0.0595
64560SOL    HW1  920   7.125   0.851   2.613 -0.6135 -0.3484 -0.4458
64560SOL    HW2  921   7.226   0.958   2.579  1.0822 -0.9357  2.3641
64561SOL     OW  922   9.381   1.060   0.535  0.0784  0.8950  0.3601
64561SOL    HW1  923   9.297   1.052   0.491  0.3757 -1.5401  0.0577
64561SOL    HW2  924   9.365   1.026   0.623  0.8736 -0.4480  0.0239
64562SOL     OW  925   5.270   8.210   2.370  1.0636  0.7434  0.1624
64562SOL    HW1  926   5.358   8.195   2.406  1.5215  0.1332 -1.1591
64562SOL    HW2  927   5.264   8.151   2.295  0.5707  2.7092 -1.4376
64563SOL     OW  928   3.745   3.582   2.555  0.2485 -0.6122  0.0331
64563SOL    HW1  929   3.799   3.591   2.476 -1.7636 -0.7379 -1.4184
64563SOL    HW2  930   3.762   3.493   2.585 -0.7039 -1.3991 -1.6375
64564SOL     OW  931   6.146  12.004   4.283 -0.5001 -0.0625 -0.0700
64564SOL    HW1  932   6.227  11.964   4.251  0.6249  3.5646 -2.2352
64564SOL    HW2  933   6.083  11.990   4.212 -0.4948  0.7558 -0.2420
64565SOL     OW  934   8.698   5.412   8.904  0.2965 -0.4288 -0.6432
64565SOL    HW1  935   8.786   5.404   8.868  0.7399  1.3389 -0.0715
64565SOL    HW2  936   8.702   5.368   8.989  1.2206  1.2322  0.2333
64566SOL     OW  937  10.639   1.539   9.981  0.7388  0.1217  0.3676
64566SOL    HW1  938  10.714   1.597   9.998  0.5797  0.0752  1.3276
64566SOL    HW2  939  10.571   1.598   9.949  0.8053  0.3623  0.6592
64567SOL     OW  940   2.287   4.355  11.876  0.4182  0.4272  0.5326
64567SOL    HW1  941   2.315   4.429  11.929 -0.1962  0.0033  1.4710
64567SOL    HW2  942   2.362   4.295  11.876  0.0038 -0.1321  1.9776
64568SOL     OW  943  12.051  11.467  11.717 -0.1862  0.2380 -0.3218
64568SOL    HW1  944  12.122  11.484  11.778  0.3422  0.1395 -0.9018
64568SOL    HW2  945  11.988  11.537  11.734  0.0107  0.2789  0.2470
64569SOL     OW  946   4.975   5.128   6.020  0.0294  0.0439 -0.3823
64569SOL    HW1  947   4.990   5.150   6.112  0.2177 -0.6483 -0.2466
64569SOL    HW2  948   4.919   5.199   5.988 -0.3387  0.1046  0.3591
64570SOL     OW  949   4.434  12.664   2.934  0.2062  0.4399 -0.0574
64570SOL    HW1  950   4.341  12.665   2.911  0.1420  1.3271  0.1910
64570SOL    HW2  951   4.436  12.648   3.028  0.3137  0.2055 -0.0997
64571SOL     OW  952   4.982  12.670   2.649  0.3819  0.1577 -0.5416
64571SOL    HW1  953   5.030  12.738   2.697  0.5290  0.4629 -1.1035
64571SOL    HW2  954   4.890  12.694   2.660  0.4575  0.9297 -1.3939
64572SOL     OW  955   4.205  11.286   8.066  0.3716  0.1030  0.0470
64572SOL    HW1  956   4.238  11.322   7.984 -2.3270 -0.8644 -1.5924
64572SOL    HW2  957   4.253  11.204   8.077 -0.2381 -0.4876 -1.4092
64573SOL     OW  958  11.403   3.238   5.793 -0.5019 -0.6849 -0.1119
64573SOL    HW1  959  11.472   3.243   5.859 -1.5662  0.9527  0.9459
64573SOL    HW2  960  11.377   3.329   5.778 -1.8172 -1.1916 -1.1498
64574SOL     OW  961   3.740   7.924   5.577  0.1066 -0.0106  0.2162
64574SOL    HW1  962   3.756   7.852   5.516  0.6871  0.0205  0.3234
64574SOL    HW2  963   3.709   7.996   5.521 -0.1985 -0.2532  0.0735
64575SOL     OW  964   8.014   5.578   4.063  0.3120  0.2021  0.2287
64575SOL    HW1  965   8.007   5.527   3.982  0.0416  2.3899 -1.2061
64575SOL    HW2  966   8.079   5.645   4.043 -0.1256  1.1013  1.6779
64576SOL     OW  967  11.709   9.413   9.635  0.6788  0.3131  0.3071
64576SOL    HW1  968  11.693   9.452   9.721 -2.3058  1.9292 -0.8402
64576SOL    HW2  969  11.801   9.430   9.618  1.3786 -0.0758  3.1331
64577SOL     OW  970   8.190   2.028  11.421  0.1638 -0.2612 -0.1922
64577SOL    HW1  971   8.098   2.046  11.441 -0.3204  1.1768 -3.2033
64577SOL    HW2  972   8.222   2.109  11.380  2.2204 -1.3907 -0.9597
64578SOL     OW  973  11.311   7.679  10.505 -0.2895  0.0944  0.2588
64578SOL    HW1  974  11.323   7.773  10.488 -0.3868  0.1899  0.7022
64578SOL    HW2  975  11.273   7.644  10.425  2.7443 -0.1885 -1.2254
64579SOL     OW  976   1.991   2.348  12.590 -0.2149  1.1007 -0.4377
64579SOL    HW1  977   2.064   2.374  12.534 -0.6020  2.2022 -0.4646
64579SOL    HW2  978   1.914   2.356  12.534 -0.3620 -0.0701 -0.4151
64580SOL     OW  979   8.353   3.683   2.576 -0.2572 -0.1575 -0.1117
64580SOL    HW1  980   8.334   3.777   2.574  0.1676 -0.0383 -2.9198
64580SOL    HW2  981   8.445   3.678   2.602 -0.7326  0.0604  1.7001
64581SOL     OW  982   4.375   2.736  10.052 -0.4747 -0.2899  0.1708
64581SOL    HW1  983   4.433   2.729   9.976 -0.4986  1.5498 -0.0789
64581SOL    HW2  984   4.374   2.649  10.091  1.0535 -0.7906 -0.8472
64582SOL     OW  985   0.552   7.778   2.000  0.0921  0.3865 -0.1319
64582SOL    HW1  986   0.632   7.750   2.044  1.4591 -0.0919 -2.7040
64582SOL    HW2  987   0.526   7.858   2.046  0.7800 -0.6289  2.1426
64583SOL     OW  988   8.250  11.883   6.763  0.1248 -0.3098  0.3325
64583SOL    HW1  989   8.327  11.883   6.706 -0.2854  0.4267 -0.2480
64583SOL    HW2  990   8.253  11.968   6.807 -1.7017  0.9052 -1.6422
64584SOL     OW  991  11.319   1.352   1.985 -0.2105  0.0451  0.0965
64584SOL    HW1  992  11.243   1.376   1.933  0.6173 -0.2128 -1.2639
64584SOL    HW2  993  11.380   1.425   1.974 -0.6046  0.7092  1.9651
64585SOL     OW  994   1.157   8.740   2.804 -0.2882 -0.0496 -0.3538
64585SOL    HW1  995   1.106   8.816   2.832  1.3843  1.2775 -0.7297
64585SOL    HW2  996   1.137   8.672   2.868 -0.9563  1.0580  0.6461
64586SOL     OW  997   4.446   5.491   9.732 -0.6776  0.3455 -0.1751
64586SOL    HW1  998   4.521   5.550   9.744 -0.7395  0.6988 -1.3323
64586SOL    HW2  999   4.384   5.517   9.800  0.4883 -0.3786  1.2073
64587SOL     OW 1000   1.525   6.282   7.658 -0.0766 -0.0742 -0.0954
64587SOL    HW1 1001   1.430   6.287   7.661 -0.0608 -0.1063  0.9827
64587SOL    HW2 1002   1.555   6.344   7.726  0.6489 -0.4096 -0.0942
64588SOL     OW 1003   2.916   7.282   4.877 -0.3214 -0.1302  0.1078
64588SOL    HW1 1004   2.908   7.206   4.820 -0.9486  0.6830 -0.9240
64588SOL    HW2 1005   2.834   7.285   4.926 -0.4146  0.0344 -0.0562
64589SOL     OW 1006   3.195   1.319   8.251 -0.7476 -0.0370  0.3501
64589SOL    HW1 1007   3.168   1.230   8.230  0.5267 -0.0172 -1.5636
64589SOL    HW2 1008   3.273   1.308   8.305  0.0022 -0.1065 -0.7252
64590SOL     OW 1009  10.832   4.323   5.317 -0.1197 -0.7448  0.2985
64590SOL    HW1 1010  10.745   4.304   5.352 -0.7832 -2.0519 -1.8862
64590SOL    HW2 1011  10.878   4.239   5.318 -0.0201 -0.7413 -1.4849
64591SOL     OW 1012   2.236   1.086   9.519  0.5755  0.1572  0.0512
64591SOL    HW1 1013   2.165   1.022   9.517 -0.6435  1.4242  0.7828
64591SOL    HW2 1014   2.276   1.074   9.605  0.1032  0.5938  0.3428
64592SOL     OW 1015   7.991   2.026   4.808 -0.6689 -0.3392  0.0209
64592SOL    HW1 1016   8.049   2.052   4.880  0.4794  3.4678 -1.9875
64592SOL    HW2 1017   7.998   1.931   4.804  1.5136 -0.4362  3.0377
64593SOL     OW 1018   9.330   1.036  10.795 -0.9042  0.7681  0.4805
64593SOL    HW1 1019   9.284   1.089  10.731  0.5406  0.9080 -0.4853
64593SOL    HW2 1020   9.270   0.965  10.816 -0.0927 -1.5347 -3.9577
64594SOL     OW 1021   0.010   0.589   6.146 -0.2699  0.3817 -0.3434
64594SOL    HW1 1022   0.055   0.617   6.067  1.0041 -0.1511  0.1654
64594SOL    HW2 1023  -0.023   0.502   6.127 -0.8104  0.6396 -0.6040
64595SOL     OW 1024  11.551   9.404   3.137  0.7699  0.3697 -0.2187
64595SOL    HW1 1025  11.479   9.407   3.073  1.4075  1.5868 -0.9228
64595SOL    HW2 1026  11.575   9.312   3.141  0.6462  0.2424 -1.7016
64596SOL     OW 1027   2.259   5.202  11.392 -0.1191  0.4146  0.9082
64596SOL    HW1 1028   2.176   5.199  11.345  0.6677  0.5818 -0.5592
64596SOL    HW2 1029   2.259   5.287  11.435 -0.8410  0.2792  1.1879
64597SOL     OW 1030   2.001   9.990   6.838  0.0137  0.1011 -0.3513
64597SOL    HW1 1031   1.981  10.006   6.930 -0.4048 -1.3632 -0.1608
64597SOL    HW2 1032   2.081  10.040   6.822  0.7292 -0.5034  1.1312
64598SOL     OW 1033  11.093  11.285  11.019 -0.1256  0.4394 -0.0629
64598SOL    HW1 1034  11.148  11.317  10.947 -1.0118  1.9175 -0.1141
64598SOL    HW2 1035  11.042  11.214  10.980 -0.4423  1.0827 -0.8554
64599SOL     OW 1036   8.622   9.202  12.061  0.0083 -0.1712  0.5370
64599SOL    HW1 1037   8.700   9.227  12.111  1.3296 -1.1941 -0.9027
64599SOL    HW2 1038   8.656   9.149  11.989 -1.8198  1.1948 -1.4390
64600SOL     OW 1039   6.490   1.818   2.396  0.2066 -0.1593 -0.2697
64600SOL    HW1 1040   6.404   1.832   2.436  0.9338 -1.1360  1.8148
64600SOL    HW2 1041   6.504   1.723   2.404  2.0737  0.1562  0.8794
64601SOL     OW 1042  10.876   2.271   5.712 -0.0802 -0.2933 -0.4439
64601SOL    HW1 1043  10.954   2.314   5.745 -0.1924 -0.6057  0.2281
64601SOL    HW2 1044  10.857   2.317   5.630 -0.8839  1.7586  0.8042
64602SOL     OW 1045  12.402   3.258   3.549 -0.4129 -0.4605 -0.7300
64602SOL    HW1 1046  12.377   3.190   3.612  2.1206 -0.5895  0.2532
64602SOL    HW2 1047  12.488   3.231   3.517  0.2252  1.7630 -1.0695
64603SOL     OW 1048  11.640   4.464   1.429 -0.0113 -0.0615 -0.0901
64603SOL    HW1 1049  11.551   4.478   1.396 -0.0581  1.6847  0.6987
64603SOL    HW2 1050  11.679   4.403   1.366 -1.8549 -1.1447 -0.2590
64604SOL     OW 1051   3.399   2.898   4.146  0.0360  0.8761  0.1881
64604SOL    HW1 1052   3.384   2.835   4.076  0.3610  1.3851 -0.3501
64604SOL    HW2 1053   3.422   2.980   4.100  0.4572  1.1564  0.8874
64605SOL     OW 1054   2.405   7.703   7.798  0.0081  0.2578 -0.1569
64605SOL    HW1 1055   2.483   7.758   7.805  0.2699 -0.0547 -0.5244
64605SOL    HW2 1056   2.436   7.624   7.751 -0.9721  1.0493 -2.2717
64606SOL     OW 1057   7.762   1.471   9.246 -0.6179 -0.1347  0.4447
64606SOL    HW1 1058   7.822   1.488   9.319 -1.3438  0.8176  0.8543
64606SOL    HW2 1059   7.684   1.524   9.267 -1.6859 -1.4903  0.0443
64607SOL     OW 1060   8.910  11.820   4.883 -0.0160 -0.2521  0.6694
64607SOL    HW1 1061   8.820  11.849   4.870  0.8485  2.8432  0.8861
64607SOL    HW2 1062   8.916  11.806   4.978 -0.2672 -0.5496  0.6451
64608SOL     OW 1063  11.520   5.375   6.326  0.0459  0.2787  0.0618
64608SOL    HW1 1064  11.568   5.451   6.294  0.7815  0.8306  2.2480
64608SOL    HW2 1065  11.564   5.352   6.408 -3.1341  0.6070  2.0778
64609SOL     OW 1066   6.326   4.690   8.396  0.0161 -0.7138 -0.0447
64609SOL    HW1 1067   6.328   4.648   8.482 -0.6553 -1.3159 -0.3218
64609SOL    HW2 1068   6.411   4.734   8.389  0.8235 -2.1976  0.1643
64610SOL     OW 1069   4.315   7.328   1.673 -0.3120  0.1010 -0.3467
64610SOL    HW1 1070   4.367   7.252   1.646  0.9405  0.5950  0.5822
64610SOL    HW2 1071   4.307   7.381   1.594 -0.0708 -0.3441 -0.6786
64611SOL     OW 1072   0.135   7.541   3.609 -0.1368 -0.0516  0.1274
64611SOL    HW1 1073   0.168   7.498   3.530  1.2695 -1.1906  1.2768
64611SOL    HW2 1074   0.043   7.560   3.589 -0.4350 -2.3335 -0.9827
64612SOL     OW 1075   7.667  11.995   8.337 -0.1407 -0.0146 -0.1048
64612SOL    HW1 1076   7.721  11.926   8.300 -1.6368 -0.4922 -1.5247
64612SOL    HW2 1077   7.600  11.948   8.388 -0.7673  0.3912 -0.5300
64613SOL     OW 1078   7.658   8.209   4.357  0.0805  1.0270 -0.7009
64613SOL    HW1 1079   7.621   8.252   4.433 -0.6894  1.1318 -1.1260
64613SOL    HW2 1080   7.583   8.182   4.304  0.5850  0.5572 -1.2080
64614SOL     OW 1081   1.145   6.319   9.191  0.3113 -0.0875  0.3169
64614SOL    HW1 1082   1.111   6.230   9.196  1.3733 -0.6036 -1.0941
64614SOL    HW2 1083   1.202   6.326   9.268  1.0010 -0.9790 -0.0951
64615SOL     OW 1084   4.162   8.602   2.086  0.3834  0.0236  0.2598
64615SOL    HW1 1085   4.236   8.599   2.026  0.2109 -2.0908  0.0733
64615SOL    HW2 1086   4.126   8.690   2.077  1.3496  0.2596 -1.5184
64616SOL     OW 1087   3.401   1.902   2.582 -0.1474 -0.7096 -0.2072
64616SOL    HW1 1088   3.403   1.834   2.650  0.2812  0.5584  1.0947
64616SOL    HW2 1089   3.492   1.911   2.554 -0.3144 -1.1920 -0.9494
64617SOL     OW 1090   8.119   1.240   1.563  0.4185  1.0632  0.4077
64617SOL    HW1 1091   8.144   1.216   1.652  0.5082  2.4473  0.7754
64617SOL    HW2 1092   8.196   1.218   1.509  0.4602  0.4685  0.7061
64618SOL     OW 1093   8.642   9.856   6.258 -0.3167 -0.6908 -0.3045
64618SOL    HW1 1094   8.664   9.948   6.244  0.0554 -0.9379 -1.4456
64618SOL    HW2 1095   8.716   9.822   6.309 -0.9104 -0.1554  0.9606
64619SOL     OW 1096   6.518   6.167   7.918 -0.2572 -0.3498 -0.2740
64619SOL    HW1 1097   6.528   6.188   7.825 -0.0145 -1.1109 -0.4333
64619SOL    HW2 1098   6.607   6.149   7.947 -0.5980 -3.0719 -0.6587
64620SOL     OW 1099  10.425   9.649   7.309 -0.1924  0.4952  0.2095
64620SOL    HW1 1100  10.364   9.609   7.247 -1.5772  1.4304  0.9128
64620SOL    HW2 1101  10.490   9.693   7.254 -0.8014  0.4308 -0.5796
64621SOL     OW 1102  10.378   4.255   0.321  0.2857  0.5122 -0.1627
64621SOL    HW1 1103  10.358   4.166   0.293 -0.5554  1.3268 -2.3257
64621SOL    HW2 1104  10.294   4.291   0.348  0.6700  0.5864  0.9968
64622SOL     OW 1105   5.651  10.177   8.409  0.1487  0.1426  0.2532
64622SOL    HW1 1106   5.654  10.093   8.363 -1.3552  0.7221 -0.9903
64622SOL    HW2 1107   5.681  10.157   8.498  2.6490 -1.1234 -0.7597
64623SOL     OW 1108  11.685   1.604   1.259  0.0074 -0.3550 -0.4115
64623SOL    HW1 1109  11.707   1.615   1.351  1.1089 -0.7286 -0.6051
64623SOL    HW2 1110  11.599   1.563   1.259 -0.7442  1.1516  0.4057
64624SOL     OW 1111   9.899   9.112  10.428 -0.2596  0.0460 -0.1009
64624SOL    HW1 1112   9.949   9.191  10.409 -2.5003  1.2366 -1.4649
64624SOL    HW2 1113   9.889   9.069  10.343  0.1673 -1.2712  0.4864
64625SOL     OW 1114  12.284   0.187   3.794  0.2220 -0.0832 -0.3745
64625SOL    HW1 1115  12.343   0.171   3.721  1.6152 -0.1061  0.7099
64625SOL    HW2 1116  12.206   0.135   3.775  0.8804 -0.7044 -1.4367
64626SOL     OW 1117   4.817   0.894  10.873  0.1438 -0.1586 -0.2502
64626SOL    HW1 1118   4.769   0.955  10.816  0.0494 -0.4767 -0.5105
64626SOL    HW2 1119   4.795   0.807  10.840 -1.9529 -0.5294  1.7798
64627SOL     OW 1120  10.239   8.272  11.621  0.3543  0.1954  0.6122
64627SOL    HW1 1121  10.228   8.255  11.528  1.5577  4.4678 -0.5121
64627SOL    HW2 1122  10.191   8.353  11.637  0.0136 -0.4792  3.8454
64628SOL     OW 1123   2.989   1.295   0.569  0.6360  0.5687  0.6422
64628SOL    HW1 1124   3.004   1.252   0.653  1.9783  0.8941  0.5907
64628SOL    HW2 1125   2.940   1.230   0.518  1.3208 -0.3211  1.0828
64629SOL     OW 1126  12.199   4.869   5.023 -0.4545  0.3395  0.6001
64629SOL    HW1 1127  12.275   4.815   5.005 -0.2615  0.9349 -0.4278
64629SOL    HW2 1128  12.137   4.809   5.066  0.2498 -0.3614  0.6624
64630SOL     OW 1129  10.202   0.413   4.729  0.4530  1.1999 -0.7883
64630SOL    HW1 1130  10.259   0.353   4.775  0.5633  1.9134  0.0185
64630SOL    HW2 1131  10.131   0.432   4.790 -0.9932 -0.1160 -1.9684
64631SOL     OW 1132   0.711   6.505  11.673  1.0033  0.0879  0.0145
64631SOL    HW1 1133   0.671   6.487  11.758  1.2176 -0.4909 -0.0042
64631SOL    HW2 1134   0.696   6.426  11.621  1.3073  0.2435 -0.3191
64632SOL     OW 1135  11.544   6.217   9.769  0.3225 -0.0541  0.0007
64632SOL    HW1 1136  11.578   6.129   9.756 -0.8759 -0.4259 -0.7702
64632SOL    HW2 1137  11.604   6.274   9.721 -0.0142 -0.6709 -1.1642
64633SOL     OW 1138   0.688   1.424   6.986 -0.2532  0.0645  0.2724
64633SOL    HW1 1139   0.711   1.459   6.899 -0.3286 -0.1010  0.1846
64633SOL    HW2 1140   0.729   1.484   7.048 -1.3301  0.9496  0.1338
64634SOL     OW 1141   5.447   5.973   1.541 -0.2102 -0.2619  0.0602
64634SOL    HW1 1142   5.451   5.920   1.461 -0.8539  0.2443 -0.3181
64634SOL    HW2 1143   5.368   6.026   1.530  1.1812  1.8580 -0.2496
64635SOL     OW 1144   3.385   9.659  12.456 -0.6825  0.5389 -0.7894
64635SOL    HW1 1145   3.463   9.708  12.430 -0.5373  0.8350  0.1865
64635SOL    HW2 1146   3.337   9.645  12.374 -0.7329  2.3183 -1.1042
64636SOL     OW 1147   0.398   2.986   2.625 -0.3929 -0.3585  0.3486
64636SOL    HW1 1148   0.492   2.967   2.630 -0.6696 -1.6019  1.1036
64636SOL    HW2 1149   0.394   3.069   2.578  1.0502 -0.5725 -0.2126
64637SOL     OW 1150  11.426   6.656   2.918 -0.1572  0.0001 -0.0706
64637SOL    HW1 1151  11.437   6.717   2.990  1.8272  1.2864 -1.3570
64637SOL    HW2 1152  11.448   6.707   2.840 -0.8764 -1.7062 -1.4531
64638SOL     OW 1153   9.533   5.125  12.663 -0.1083 -0.5596 -0.1625
64638SOL    HW1 1154   9.555   5.218  12.659 -0.8784 -0.3809 -3.4675
64638SOL    HW2 1155   9.471   5.118  12.735 -0.0361  1.4962  0.1634
64639SOL     OW 1156   9.105   1.865   3.330  0.2779  0.2444 -0.5863
64639SOL    HW1 1157   9.141   1.798   3.272  1.4174  0.8109 -0.5684
64639SOL    HW2 1158   9.146   1.849   3.415 -0.5891  0.0596 -0.1909
64640SOL     OW 1159   7.512   4.904  10.513  0.7285 -0.0828 -0.7310
64640SOL    HW1 1160   7.486   4.831  10.570 -0.7258 -0.1130 -1.3823
64640SOL    HW2 1161   7.507   4.981  10.569  1.3975 -0.3688 -0.2704
64641SOL     OW 1162  10.469  10.233  10.060 -0.0599  0.6175  0.5226
64641SOL    HW1 1163  10.511  10.223  10.146 -0.4696  2.8716  1.0423
64641SOL    HW2 1164  10.441  10.144  10.037 -1.4415  0.1361  3.5056
64642SOL     OW 1165  10.577   7.475   2.468 -0.6001 -0.4842  0.0819
64642SOL    HW1 1166  10.618   7.557   2.497  0.1744 -0.1191 -1.8682
64642SOL    HW2 1167  10.484   7.489   2.482 -0.4827  0.7571 -0.2066
64643SOL     OW 1168   9.586   5.349  10.098 -0.2960 -0.0567 -0.1845
64643SOL    HW1 1169   9.631   5.383  10.176  0.0662 -1.4289  0.2263
64643SOL    HW2 1170   9.621   5.402  10.026  2.3524 -1.3188  0.0581
64644SOL     OW 1171   3.449   8.663   8.141 -0.1885  0.3084  0.1157
64644SOL    HW1 1172   3.361   8.663   8.179  0.3420 -0.9178  1.4497
64644SOL    HW2 1173   3.460   8.575   8.106  0.4029  0.5421 -0.2969
64645SOL     OW 1174   2.429   6.076   4.830 -0.1241  0.0337 -0.1076
64645SOL    HW1 1175   2.367   6.091   4.759  0.4403 -0.8535 -0.8150
64645SOL    HW2 1176   2.375   6.074   4.909 -1.3142 -2.5835 -0.8656
64646SOL     OW 1177   3.781   6.234  12.694 -0.6457  0.3680 -0.2496
64646SOL    HW1 1178   3.723   6.259  12.621 -0.7089  1.5880  0.1931
64646SOL    HW2 1179   3.868   6.263  12.666 -0.3701 -0.7554 -0.5785
64647SOL     OW 1180   1.142   5.640   5.186  0.2981 -0.9219 -0.0620
64647SOL    HW1 1181   1.154   5.730   5.155  0.9306 -1.1385 -0.4796
64647SOL    HW2 1182   1.048   5.629   5.193  0.1956 -0.3971 -0.5380
64648SOL     OW 1183   2.514   7.333  10.411  0.4777  0.3415 -0.1062
64648SOL    HW1 1184   2.470   7.257  10.371  2.1144  0.4157 -2.2175
64648SOL    HW2 1185   2.443   7.385  10.448 -1.2528  0.3027 -3.0725
64649SOL     OW 1186  11.557  11.560   0.331  0.4022  0.6888 -0.0531
64649SOL    HW1 1187  11.592  11.504   0.401 -0.4498  0.0367 -0.1334
64649SOL    HW2 1188  11.591  11.522   0.250  0.1314  0.5064 -0.0835
64650SOL     OW 1189   2.967   8.367  11.181  0.4186  0.7826 -0.4096
64650SOL    HW1 1190   2.919   8.291  11.145 -2.3939  1.0847  2.2799
64650SOL    HW2 1191   3.044   8.329  11.223 -0.8511 -0.6355  0.7390
64651SOL     OW 1192   4.843   9.986   5.203 -0.0905 -0.6164  0.0295
64651SOL    HW1 1193   4.748   9.986   5.198 -0.0670 -0.2619 -0.4975
64651SOL    HW2 1194   4.871   9.920   5.140 -0.0184 -1.6370  1.0940
64652SOL     OW 1195   9.802   2.669   7.916  0.0676 -0.1095  0.0713
64652SOL    HW1 1196   9.857   2.725   7.970 -1.0273 -0.8661  2.0796
64652SOL    HW2 1197   9.848   2.585   7.914 -0.3178 -0.3379  0.5879
64653SOL     OW 1198   8.361   2.506   1.373  0.1538 -0.1941  0.0637
64653SOL    HW1 1199   8.361   2.473   1.283 -0.3254  1.2272 -0.4946
64653SOL    HW2 1200   8.295   2.453   1.418 -0.3209 -0.2656 -0.6929
64654SOL     OW 1201   2.976  10.134  12.241  0.0486 -0.1433 -0.2235
64654SOL    HW1 1202   2.980  10.183  12.159  0.1854 -1.8235 -1.2660
64654SOL    HW2 1203   2.900  10.077  12.232  1.0814 -1.6240  0.0470
64655SOL     OW 1204   7.459  11.139   7.041 -0.0757  0.1062  0.4413
64655SOL    HW1 1205   7.533  11.097   6.998  0.5544 -0.3243  1.9150
64655SOL    HW2 1206   7.387  11.131   6.978  0.3291 -2.1396  0.2045
64656SOL     OW 1207   6.589   8.707   4.027 -0.1943 -0.2205  0.1773
64656SOL    HW1 1208   6.623   8.734   3.942 -1.0287  1.2561  0.2878
64656SOL    HW2 1209   6.497   8.685   4.011  0.1332 -1.8793  0.3429
64657SOL     OW 1210   0.689   2.102   1.392  0.4227 -0.2203  0.0848
64657SOL    HW1 1211   0.615   2.136   1.341  0.4935  0.8623  0.6935
64657SOL    HW2 1212   0.744   2.059   1.327 -0.4662 -0.5816 -0.4591
64658SOL     OW 1213  11.224  10.360   7.301  0.2581  0.0625  0.2447
64658SOL    HW1 1214  11.142  10.403   7.321 -1.0653 -1.0428 -2.2732
64658SOL    HW2 1215  11.238  10.299   7.374 -1.8739 -0.6279  0.1549
64659SOL     OW 1216   2.900  12.151  11.153  0.1910  0.1749 -0.0229
64659SOL    HW1 1217   2.876  12.065  11.187 -1.1043  1.2272  1.8932
64659SOL    HW2 1218   2.970  12.181  11.211  1.3403  0.0561 -1.2881
64660SOL     OW 1219   7.211   0.512   9.270  0.3974  0.0018  0.0782
64660SOL    HW1 1220   7.191   0.531   9.362  0.3449  0.6469 -0.0669
64660SOL    HW2 1221   7.253   0.591   9.238 -0.1208 -0.0075 -0.6257
64661SOL     OW 1222   2.543  10.806   2.016 -0.8443 -0.5629  0.3806
64661SOL    HW1 1223   2.530  10.900   2.004  0.1572 -0.2308  1.6745
64661SOL    HW2 1224   2.489  10.765   1.947  2.2207  1.0045 -3.3042
64662SOL     OW 1225   6.644   9.251   5.364  0.1020  0.0379  0.6339
64662SOL    HW1 1226   6.594   9.217   5.290  1.1555  0.9511 -0.5162
64662SOL    HW2 1227   6.590   9.229   5.440  0.0267 -2.8830 -0.1413
64663SOL     OW 1228   9.057   8.427   3.794  0.2472  0.0417  0.3570
64663SOL    HW1 1229   9.043   8.361   3.863  1.3157  0.4541  0.9934
64663SOL    HW2 1230   9.130   8.392   3.743 -0.6746 -0.3621 -0.7182
64664SOL     OW 1231   0.680   9.180  11.117  0.0804 -0.5439 -0.3089
64664SOL    HW1 1232   0.728   9.226  11.186  0.6091  0.4530 -1.3344
64664SOL    HW2 1233   0.594   9.222  11.116  0.2570 -0.1893 -0.6280
64665SOL     OW 1234   4.759   5.875   1.182 -0.0570 -0.6930 -0.1760
64665SOL    HW1 1235   4.786   5.967   1.192 -0.3227 -0.6666  0.3139
64665SOL    HW2 1236   4.677   5.869   1.230  0.8303 -1.5985  1.3128
64666SOL     OW 1237   8.735   8.560   0.766 -0.3572  0.4597  0.0648
64666SOL    HW1 1238   8.765   8.622   0.832 -0.2732  0.2119  0.2615
64666SOL    HW2 1239   8.766   8.596   0.683 -3.2773  2.5385 -0.2600
64667SOL     OW 1240  12.428   6.405   7.177 -0.1878 -0.1611  0.2300
64667SOL    HW1 1241  12.419   6.334   7.114 -1.7968 -1.2659  1.6054
64667SOL    HW2 1242  12.508   6.385   7.226  1.0329  0.6696 -1.3390
64668SOL     OW 1243  11.894   6.624   1.222  0.3730 -0.0486 -0.0110
64668SOL    HW1 1244  11.934   6.576   1.295 -1.3825 -1.4006  0.1319
64668SOL    HW2 1245  11.881   6.557   1.155 -1.9777  0.2264  0.1121
64669SOL     OW 1246  12.271  12.598   7.348  0.8021 -0.4568  0.0076
64669SOL    HW1 1247  12.219  12.630   7.275 -0.2347  1.3656  1.4550
64669SOL    HW2 1248  12.239  12.509   7.363  1.1573 -0.9307 -1.8062
64670SOL     OW 1249   6.359   6.130   6.134  0.0638 -0.4905  0.0743
64670SOL    HW1 1250   6.356   6.185   6.056 -0.2328  0.0958  0.4967
64670SOL    HW2 1251   6.358   6.191   6.207  1.2319 -0.9989  0.5368
64671SOL     OW 1252   3.140  11.589   1.096  0.3481  0.1959  0.2977
64671SOL    HW1 1253   3.200  11.517   1.115 -0.0477 -0.3407 -0.4555
64671SOL    HW2 1254   3.064  11.573   1.151  0.3455  0.1570  0.2822
64672SOL     OW 1255   4.014  10.789   0.136  0.0712 -0.1482 -0.0348
64672SOL    HW1 1256   3.942  10.838   0.177  0.8480  0.8248  0.2036
64672SOL    HW2 1257   3.999  10.698   0.162 -1.0711  0.0352  0.0079
64673SOL     OW 1258   9.111   9.754   4.055 -0.1182  0.1347  0.6981
64673SOL    HW1 1259   9.117   9.694   3.981 -0.5969  1.7178 -0.6942
64673SOL    HW2 1260   9.061   9.707   4.121 -0.8366 -0.8380 -0.4991
64674SOL     OW 1261   3.809   8.550   0.991 -0.0212 -0.1525  0.0115
64674SOL    HW1 1262   3.780   8.584   0.906 -0.2417  0.1154  0.1908
64674SOL    HW2 1263   3.895   8.512   0.974  0.7099  1.4448  0.0158
64675SOL     OW 1264   7.012   2.882   2.134 -0.3431  0.4165 -0.3360
64675SOL    HW1 1265   6.976   2.950   2.078 -0.4015 -0.7979 -1.8310
64675SOL    HW2 1266   6.965   2.803   2.109 -0.2293 -0.2175  1.3072
64676SOL     OW 1267  10.592   8.925   8.158  0.1924  0.2336  0.1548
64676SOL    HW1 1268  10.605   8.847   8.211 -1.6195 -2.0281 -2.4532
64676SOL    HW2 1269  10.657   8.918   8.088 -2.0204 -0.8129 -1.9355
64677SOL     OW 1270  10.947   0.533   0.963 -0.1410  0.1231  0.3328
64677SOL    HW1 1271  10.911   0.448   0.989  1.1475 -0.5087  0.1182
64677SOL    HW2 1272  10.967   0.577   1.046  2.4365 -1.2250  0.5049
64678SOL     OW 1273   5.046   8.752   4.923  0.1695  0.0227  0.2823
64678SOL    HW1 1274   5.130   8.768   4.966  0.3242  1.5529 -0.5059
64678SOL    HW2 1275   4.983   8.800   4.977 -0.0686 -0.4332  0.4070
64679SOL     OW 1276  10.146   7.265   3.416 -0.0233 -0.0771  0.0668
64679SOL    HW1 1277  10.128   7.322   3.341  0.1233  0.9735  0.8096
64679SOL    HW2 1278  10.067   7.213   3.426 -0.3146  0.2697 -0.3794
64680SOL     OW 1279  10.800   3.021   8.481  0.6601 -0.1836 -0.1084
64680SOL    HW1 1280  10.816   3.021   8.386  2.1597 -0.7180  0.1170
64680SOL    HW2 1281  10.847   3.098   8.513 -0.5379  0.4796  0.1215
64681SOL     OW 1282   0.533   5.300   9.486  0.5127 -0.2262  0.3676
64681SOL    HW1 1283   0.485   5.297   9.569 -1.5348 -1.3736 -0.7734
64681SOL    HW2 1284   0.509   5.384   9.447 -0.1337 -0.5511  0.0560
64682SOL     OW 1285  10.132  10.283   4.322  0.0064  0.3656  0.0606
64682SOL    HW1 1286  10.072  10.255   4.391  0.1967  0.3650  0.2258
64682SOL    HW2 1287  10.117  10.221   4.251  1.4130 -1.0147  0.9265
64683SOL     OW 1288   8.959   8.611   6.115  0.4685  0.1709 -0.3041
64683SOL    HW1 1289   8.888   8.571   6.166  1.5707 -1.9881 -0.3347
64683SOL    HW2 1290   8.942   8.584   6.025  0.4568  1.0205 -0.5654
64684SOL     OW 1291   1.412  11.645   1.668  0.3829 -0.4094 -0.4548
64684SOL    HW1 1292   1.484  11.628   1.728  0.2788  0.7516  0.0342
64684SOL    HW2 1293   1.381  11.559   1.642  0.5343 -0.9387  1.0365
64685SOL     OW 1294   5.158   0.897  10.397  0.3652  0.0805  0.2841
64685SOL    HW1 1295   5.235   0.855  10.435  0.2979  0.8472  1.3185
64685SOL    HW2 1296   5.092   0.893  10.466 -0.6167 -0.7694 -0.6699
64686SOL     OW 1297   6.461   7.480   0.407  0.1467  0.1842 -0.0481
64686SOL    HW1 1298   6.386   7.502   0.352  0.7600  3.1569  0.1029
64686SOL    HW2 1299   6.423   7.461   0.493 -0.7837 -4.1380 -1.2081
64687SOL     OW 1300  10.725   2.684   5.834  0.6475 -0.9577 -0.1188
64687SOL    HW1 1301  10.674   2.754   5.874 -0.6639 -2.9320  1.8195
64687SOL    HW2 1302  10.697   2.685   5.742 -0.0612  0.4015  0.0730
64688SOL     OW 1303   5.496   8.785   9.405 -0.5608 -0.5456 -0.1234
64688SOL    HW1 1304   5.586   8.754   9.421 -0.3209  0.1430 -0.1200
64688SOL    HW2 1305   5.507   8.866   9.355 -1.1854 -0.4664 -0.1366
64689SOL     OW 1306   4.923  12.569   7.304  0.5281  0.3650 -0.0670
64689SOL    HW1 1307   5.014  12.584   7.332  0.2094 -0.5596  1.5832
64689SOL    HW2 1308   4.888  12.508   7.368 -0.7338 -0.7523 -1.7368
64690SOL     OW 1309  11.523   6.221   2.981 -0.1948  0.1444  0.1209
64690SOL    HW1 1310  11.529   6.310   3.016 -0.8106  0.4095 -0.4221
64690SOL    HW2 1311  11.495   6.233   2.890  1.4587 -0.5204 -0.4991
64691SOL     OW 1312   2.360   4.052   4.678  0.6127 -0.2502  0.4479
64691SOL    HW1 1313   2.271   4.030   4.650  0.0917  1.7793  0.3383
64691SOL    HW2 1314   2.385   4.125   4.622  1.1750  1.1995  2.4837
64692SOL     OW 1315   8.818  10.413   5.332  0.3328 -0.3013 -0.7652
64692SOL    HW1 1316   8.786  10.471   5.263 -0.8310 -1.2850 -1.0941
64692SOL    HW2 1317   8.791  10.326   5.304  1.8287 -1.0023 -0.1657
64693SOL     OW 1318   6.784   7.881   9.686 -0.5163  0.5470  0.6815
64693SOL    HW1 1319   6.879   7.878   9.691 -0.4626 -1.9109 -0.6902
64693SOL    HW2 1320   6.766   7.933   9.607 -0.1919 -1.1884 -0.5877
64694SOL     OW 1321  10.987   9.743   8.745  0.5088 -0.6305 -0.5188
64694SOL    HW1 1322  11.011   9.686   8.819  3.7408 -0.3385 -1.2033
64694SOL    HW2 1323  11.023   9.828   8.769 -3.7883  1.2451  0.2471
64695SOL     OW 1324   5.290   0.058   4.703 -0.0722  0.2002 -0.5575
64695SOL    HW1 1325   5.206   0.023   4.674  1.2962 -2.6298 -1.4017
64695SOL    HW2 1326   5.354  -0.009   4.681  1.9885  0.5680  3.3165
64696SOL     OW 1327  11.572   1.075   0.267  0.2715 -0.2005  0.1332
64696SOL    HW1 1328  11.538   1.095   0.180  0.5087  0.3521  0.1648
64696SOL    HW2 1329  11.665   1.101   0.264 -0.0253  1.0856  0.9452
64697SOL     OW 1330   6.892   0.110   1.984  0.0646  0.7227 -0.2463
64697SOL    HW1 1331   6.981   0.138   2.007  0.0327  0.0856  0.7109
64697SOL    HW2 1332   6.836   0.151   2.049 -0.3163  0.8660 -0.6584
64698SOL     OW 1333   5.105   0.886   2.636  0.1841 -0.7237  0.1089
64698SOL    HW1 1334   5.075   0.803   2.671 -0.7780 -1.1107 -1.4963
64698SOL    HW2 1335   5.047   0.903   2.562  1.5533  0.4399 -0.7644
64699SOL     OW 1336   3.738   6.941   0.341 -0.3048  0.0806 -0.0147
64699SOL    HW1 1337   3.807   6.881   0.313 -0.3911 -0.7821  1.5211
64699SOL    HW2 1338   3.662   6.885   0.358 -0.3017  0.5469  1.7282
64700SOL     OW 1339   7.462  11.834   9.368  0.1158  0.0825 -0.0656
64700SOL    HW1 1340   7.442  11.849   9.461 -1.7234 -1.2902 -0.1835
64700SOL    HW2 1341   7.529  11.766   9.369  0.6945  0.6485  0.2670
64701SOL     OW 1342  10.315   9.186   9.524  0.1698 -0.1324  0.3058
64701SOL    HW1 1343  10.262   9.228   9.591 -0.2052  0.0814 -0.1147
64701SOL    HW2 1344  10.394   9.157   9.569  0.7150  1.5532  0.5184
64702SOL     OW 1345   8.338   0.605   4.058 -0.1722  0.4885 -0.2382
64702SOL    HW1 1346   8.297   0.519   4.067  0.1123  0.5911  3.4654
64702SOL    HW2 1347   8.430   0.586   4.038 -0.2863 -0.0388 -0.2705
64703SOL     OW 1348   1.622   6.050  11.129 -0.3040 -0.1374  0.5627
64703SOL    HW1 1349   1.631   6.045  11.034  0.9666  2.1581  0.4956
64703SOL    HW2 1350   1.690   5.992  11.163 -1.1178 -1.3972  0.1166
64704SOL     OW 1351   4.773   8.281  10.180  0.3309 -0.3935  0.1867
64704SOL    HW1 1352   4.802   8.275  10.089  2.1236 -2.8765  0.8240
64704SOL    HW2 1353   4.840   8.334  10.223 -0.1545  0.2117  0.2075
64705SOL     OW 1354   9.971   5.681   7.087 -0.4356 -0.5000 -0.2373
64705SOL    HW1 1355   9.898   5.690   7.025  0.1148 -0.4379 -0.8916
64705SOL    HW2 1356   9.963   5.757   7.145 -0.1378  0.2202 -1.1227
64706SOL     OW 1357   9.091   0.831   5.092 -0.0806 -0.1460  0.0585
64706SOL    HW1 1358   9.064   0.780   5.168 -1.4232  2.4619  1.4812
64706SOL    HW2 1359   9.183   0.852   5.109  0.3846 -1.7429 -0.3812
64707SOL     OW 1360   5.365  11.530   9.811  0.2384 -0.1773  0.2875
64707SOL    HW1 1361   5.299  11.588   9.773  0.8865  0.0187 -0.5491
64707SOL    HW2 1362   5.409  11.490   9.736  1.2524 -0.1027  0.8206
64708SOL     OW 1363   3.560   9.876   5.414 -0.6161  0.3486  0.0748
64708SOL    HW1 1364   3.656   9.872   5.414 -0.5395  1.4699 -1.2185
64708SOL    HW2 1365   3.536   9.858   5.505  0.8708  0.9056  0.6193
64709SOL     OW 1366   8.981  10.865   4.758 -0.1475  0.5200  0.0693
64709SOL    HW1 1367   8.997  10.773   4.780 -0.0001  1.1539  2.9471
64709SOL    HW2 1368   9.069  10.903   4.749 -0.2055  0.5416 -0.4443
64710SOL     OW 1369  10.049   2.182   5.679 -0.3473  0.4032 -0.0314
64710SOL    HW1 1370  10.005   2.146   5.602 -1.8301 -2.3290  1.8946
64710SOL    HW2 1371  10.139   2.197   5.651 -0.5559 -1.5334 -2.0455
64711SOL     OW 1372   2.617   4.165   4.970 -0.4421 -0.1302  0.0512
64711SOL    HW1 1373   2.678   4.138   4.901 -2.0706 -0.3515 -1.3743
64711SOL    HW2 1374   2.666   4.227   5.023  1.2531 -0.8688 -0.5731
64712SOL     OW 1375   0.461   9.358   6.187  0.4017  0.8166 -0.2699
64712SOL    HW1 1376   0.551   9.392   6.188  1.2368 -1.2765 -0.6442
64712SOL    HW2 1377   0.433   9.366   6.096  0.1614  1.4928 -0.1488
64713SOL     OW 1378  11.757   9.073   8.308  0.0903  0.4358 -0.1688
64713SOL    HW1 1379  11.767   9.167   8.325  0.5466  0.2964  0.3616
64713SOL    HW2 1380  11.834   9.049   8.257  1.2332 -0.1073  1.6986
64714SOL     OW 1381  10.759   4.222  11.880  0.0210 -0.5005 -0.5269
64714SOL    HW1 1382  10.725   4.173  11.805 -0.5620 -0.6198 -0.1896
64714SOL    HW2 1383  10.753   4.314  11.853  0.3755 -0.5709 -0.8563
64715SOL     OW 1384   3.394   1.247   3.359 -0.1240 -0.0222 -0.2212
64715SOL    HW1 1385   3.424   1.167   3.317 -1.1125 -0.6057  0.1554
64715SOL    HW2 1386   3.438   1.317   3.312  0.4828 -0.7727 -0.7801
64716SOL     OW 1387   6.942  11.524   8.160 -0.6559 -0.2673  0.7105
64716SOL    HW1 1388   7.017  11.466   8.169  0.5970  1.3431  1.1245
64716SOL    HW2 1389   6.893  11.513   8.242  0.2885  0.1782  1.3606
64717SOL     OW 1390  11.971   1.373   6.420 -0.5353 -0.6204 -0.4440
64717SOL    HW1 1391  11.920   1.319   6.359 -0.2456 -0.4911 -0.8048
64717SOL    HW2 1392  11.924   1.456   6.422 -0.7342 -0.7375 -0.2295
64718SOL     OW 1393   3.803  11.486   7.692  0.4265  0.1119 -0.2138
64718SOL    HW1 1394   3.710  11.510   7.686  0.3167  0.5761  2.1194
64718SOL    HW2 1395   3.804  11.414   7.755  1.5222 -1.0341 -1.4943
64719SOL     OW 1396   5.408   7.522   0.061  0.2960  0.2197 -0.1606
64719SOL    HW1 1397   5.470   7.505  -0.010  1.8659 -0.3472  1.3085
64719SOL    HW2 1398   5.462   7.546   0.136 -1.3286  0.8774  0.8514
64720SOL     OW 1399   7.812   7.590   8.063  0.3614  0.1578 -0.5147
64720SOL    HW1 1400   7.830   7.684   8.068 -0.9745  0.4172 -0.2463
64720SOL    HW2 1401   7.884   7.555   8.010  0.6281  1.4003 -1.0145
64721SOL     OW 1402  10.229   8.261  10.563  0.5365  0.3926  0.4308
64721SOL    HW1 1403  10.273   8.189  10.608 -0.6191 -0.5105  0.1499
64721SOL    HW2 1404  10.286   8.280  10.487  0.5342 -0.6595  0.1489
64722SOL     OW 1405   2.466   2.771  11.369 -0.4052  0.8721  0.2355
64722SOL    HW1 1406   2.511   2.692  11.400  0.9659 -0.6341 -4.7150
64722SOL    HW2 1407   2.536   2.837  11.364 -0.2423  0.6435 -0.8272
64723SOL     OW 1408  10.704  11.335  11.036  0.4971 -0.0406  0.4469
64723SOL    HW1 1409  10.716  11.297  10.948 -1.6319 -1.1690  0.5711
64723SOL    HW2 1410  10.742  11.270  11.095 -1.3989 -1.1522  0.5335
64724SOL     OW 1411   2.951   1.222   9.167 -0.3184  0.5316 -0.0614
64724SOL    HW1 1412   3.001   1.172   9.231 -0.0107  0.6766 -0.1874
64724SOL    HW2 1413   3.011   1.236   9.094  0.2333  2.7120  0.7450
64725SOL     OW 1414   4.845   8.984   2.738 -0.2697 -0.3479 -0.3233
64725SOL    HW1 1415   4.825   9.037   2.661  0.5924  1.6637  0.7601
64725SOL    HW2 1416   4.766   8.989   2.791 -0.6358 -1.2076 -0.7765
64726SOL     OW 1417  10.877   4.209   9.533  0.4140 -0.5213  0.1516
64726SOL    HW1 1418  10.916   4.268   9.598  1.2167 -0.6696 -0.1807
64726SOL    HW2 1419  10.812   4.159   9.582  1.3732 -0.9991  0.9871
64727SOL     OW 1420   8.363   8.007   7.548 -0.0636 -0.3189  0.0045
64727SOL    HW1 1421   8.273   8.034   7.568 -0.7921 -1.1784 -1.8992
64727SOL    HW2 1422   8.385   8.053   7.467  0.2119 -2.0729 -0.9752
64728SOL     OW 1423  10.009  12.650   2.784 -0.3628  0.0364 -0.1667
64728SOL    HW1 1424  10.091  12.602   2.798 -1.6142 -2.0135  0.5777
64728SOL    HW2 1425   9.981  12.676   2.871 -1.0795 -0.3111 -0.2879
64729SOL     OW 1426   5.741   5.712   0.366 -0.2347 -0.0387  0.4080
64729SOL    HW1 1427   5.683   5.775   0.409 -1.9938 -1.7135  0.6559
64729SOL    HW2 1428   5.695   5.628   0.375  0.1075 -0.7808 -3.1896
64730SOL     OW 1429   1.223   2.300   1.087  0.1526  0.0836  0.2665
64730SOL    HW1 1430   1.142   2.303   1.037 -0.0001  0.5211  0.5312
64730SOL    HW2 1431   1.287   2.347   1.033  0.0841  0.2244  0.3062
64731SOL     OW 1432  12.280   4.363   6.499 -0.3302 -0.2305  0.2210
64731SOL    HW1 1433  12.340   4.409   6.441  0.7628 -2.6107 -0.6512
64731SOL    HW2 1434  12.232   4.303   6.442 -0.7808 -1.0954  1.4724
64732SOL     OW 1435   1.643   4.156   6.096  0.0776  0.5983 -0.1153
64732SOL    HW1 1436   1.599   4.240   6.092 -1.4747 -0.2016 -0.7788
64732SOL    HW2 1437   1.733   4.174   6.070 -0.7651  1.7189 -2.5595
64733SOL     OW 1438  12.557   4.277   0.240  0.3021  0.0320  0.7130
64733SOL    HW1 1439  12.590   4.339   0.175  0.6229 -1.0127 -0.1569
64733SOL    HW2 1440  12.481   4.320   0.278 -1.2734 -0.1659 -1.9281
64734SOL     OW 1441   5.530   8.842  10.611  0.0756  0.2483 -0.5194
64734SOL    HW1 1442   5.448   8.891  10.612 -0.1676 -0.1442  1.1141
64734SOL    HW2 1443   5.574   8.868  10.692  0.2509 -1.6926  0.0526
64735SOL     OW 1444   8.389  11.430   6.320  0.3005  0.1307  0.1464
64735SOL    HW1 1445   8.437  11.433   6.237  1.5464  2.6369  0.8575
64735SOL    HW2 1446   8.304  11.468   6.300  0.0120 -0.7068 -0.2776
64736SOL     OW 1447   6.797   8.964   8.727 -0.7841 -0.6348 -0.7953
64736SOL    HW1 1448   6.861   8.894   8.742 -0.0725 -0.1789 -1.6147
64736SOL    HW2 1449   6.819   9.000   8.641 -1.9624 -0.2620 -0.9651
64737SOL     OW 1450   8.209  10.812   6.187  0.7992  0.0410  0.4167
64737SOL    HW1 1451   8.299  10.833   6.214  0.6214  2.2045 -0.4438
64737SOL    HW2 1452   8.220  10.751   6.114  1.7163  1.6497 -0.8653
64738SOL     OW 1453   5.344   8.310   4.100 -0.5488  0.6098 -0.4988
64738SOL    HW1 1454   5.387   8.346   4.022  0.2301 -0.0440 -0.3827
64738SOL    HW2 1455   5.256   8.286   4.070 -0.3222  0.5458 -1.1314
64739SOL     OW 1456   7.336   0.045   7.360 -0.0301 -0.4309  0.5708
64739SOL    HW1 1457   7.244   0.069   7.363  0.2043  1.1410 -1.7619
64739SOL    HW2 1458   7.366   0.054   7.451 -1.5500  1.7961  0.9502
64740SOL     OW 1459   1.760   9.583   2.247  0.0377 -0.2487  0.0755
64740SOL    HW1 1460   1.843   9.560   2.205 -0.6646  0.6810 -1.9743
64740SOL    HW2 1461   1.703   9.607   2.174 -1.6079  0.4912  1.5446
64741SOL     OW 1462  11.723   9.718  10.718  0.4403 -0.1003 -0.2479
64741SOL    HW1 1463  11.803   9.760  10.688 -0.2692  2.6926  1.4263
64741SOL    HW2 1464  11.653   9.780  10.695 -0.5101  0.6146  3.7671
64742SOL     OW 1465  10.682  10.420   7.057  0.4980 -0.8032  0.9587
64742SOL    HW1 1466  10.756  10.469   7.024  0.2390 -0.8194  0.3452
64742SOL    HW2 1467  10.659  10.360   6.986 -0.5403 -0.3149  0.8625
64743SOL     OW 1468  10.388   7.865   6.593 -0.6381 -0.4150 -0.0922
64743SOL    HW1 1469  10.435   7.918   6.658 -2.3875  0.2696  0.6940
64743SOL    HW2 1470  10.357   7.789   6.643 -0.1472 -0.9939 -0.6601
64744SOL     OW 1471  10.951   2.633   8.117  0.2193  0.2267 -0.0519
64744SOL    HW1 1472  10.927   2.546   8.149  3.2517 -0.8852 -0.4658
64744SOL    HW2 1473  10.909   2.639   8.031 -0.5087 -0.5498  0.2298
64745SOL     OW 1474   5.980   0.629   4.773 -0.0993 -0.1403 -0.0549
64745SOL    HW1 1475   6.009   0.543   4.741  0.3054  0.7776 -2.3370
64745SOL    HW2 1476   6.041   0.691   4.732 -1.1822  1.3421  0.5124
64746SOL     OW 1477  11.364   3.752   4.690  0.9432 -0.4419  0.0545
64746SOL    HW1 1478  11.443   3.701   4.709  0.4371 -1.1840  0.2268
64746SOL    HW2 1479  11.305   3.689   4.647 -0.0618 -0.2781  1.1355
64747SOL     OW 1480   3.866   2.552  12.347 -0.0547 -0.1287  0.4204
64747SOL    HW1 1481   3.920   2.581  12.274 -0.0190 -0.9811  0.0955
64747SOL    HW2 1482   3.924   2.557  12.423  0.2737 -0.3716  0.1895
64748SOL     OW 1483   5.202  12.225  12.054  0.1965  0.0885  0.2024
64748SOL    HW1 1484   5.114  12.242  12.021  0.4627 -0.8425 -1.0924
64748SOL    HW2 1485   5.216  12.290  12.122 -0.9345  1.1958 -0.5840
64749SOL     OW 1486   4.163  11.817  10.215 -0.2681  0.9964  0.3303
64749SOL    HW1 1487   4.176  11.781  10.128 -0.6423  0.5245  0.4633
64749SOL    HW2 1488   4.251  11.824  10.252 -0.2576 -1.7790  1.0793
64750SOL     OW 1489  10.544   9.547   6.798 -0.1538  0.2675  0.2027
64750SOL    HW1 1490  10.585   9.585   6.875 -1.3708 -1.4995  1.8203
64750SOL    HW2 1491  10.530   9.455   6.821 -1.2833 -0.1418 -1.8386
64751SOL     OW 1492   5.569   1.907   5.075  0.4828  0.4389 -0.1822
64751SOL    HW1 1493   5.654   1.944   5.098 -0.9524  3.9635  0.0219
64751SOL    HW2 1494   5.548   1.848   5.147  2.7858 -0.7350 -0.3698
64752SOL     OW 1495  10.329   0.074   9.565  0.1218  0.1443  0.0639
64752SOL    HW1 1496  10.395   0.048   9.630  2.4990  0.9607 -1.8577
64752SOL    HW2 1497  10.275  -0.003   9.553  0.5323 -0.4870  1.9266
64753SOL     OW 1498   7.363   2.283  10.352 -0.3099  0.2915  0.3651
64753SOL    HW1 1499   7.288   2.224  10.344  0.5826 -1.0433  1.4542
64753SOL    HW2 1500   7.412   2.250  10.427  1.7592  0.7094 -0.7303
64754SOL     OW 1501   9.594   3.540   0.566 -0.1299 -0.0458 -0.7946
64754SOL    HW1 1502   9.593   3.631   0.595 -0.2542 -0.1024 -0.6251
64754SOL    HW2 1503   9.611   3.545   0.472 -0.5206  0.1704 -0.8548
64755SOL     OW 1504   8.338   0.519   7.944 -0.5611  0.1034 -0.1805
64755SOL    HW1 1505   8.326   0.495   8.036 -2.2440 -1.0845 -0.6549
64755SOL    HW2 1506   8.366   0.438   7.901 -1.4790  0.1906 -0.9837
64756SOL     OW 1507   6.512  10.615   4.946  0.2336  0.3013  0.1357
64756SOL    HW1 1508   6.562  10.650   4.872  0.2641  0.2094  0.1124
64756SOL    HW2 1509   6.555  10.532   4.967  1.4955  1.2703  1.5837
64757SOL     OW 1510   3.027   4.893   6.841  0.2381  0.0350  0.5492
64757SOL    HW1 1511   3.121   4.874   6.837  0.2780  0.3389  0.0099
64757SOL    HW2 1512   3.006   4.888   6.934  0.4845 -1.4886  0.5547
64758SOL     OW 1513   4.826   0.871   0.724  0.4653  0.2027 -0.0980
64758SOL    HW1 1514   4.883   0.915   0.786  0.6332  0.7949 -0.6652
64758SOL    HW2 1515   4.841   0.916   0.641  1.2226 -1.4105 -0.8832
64759SOL     OW 1516  10.809   9.459   1.806 -0.0496  0.3044  0.4397
64759SOL    HW1 1517  10.715   9.475   1.815  0.0117  1.0227 -0.1357
64759SOL    HW2 1518  10.849   9.546   1.813  0.8079 -0.2065  3.2026
64760SOL     OW 1519   4.856   4.958   4.422 -0.5556  0.4829 -0.3237
64760SOL    HW1 1520   4.940   5.003   4.431  0.8130 -2.0422  0.5272
64760SOL    HW2 1521   4.837   4.962   4.328  0.3801  1.3214 -0.4991
64761SOL     OW 1522  11.363   6.013   2.573 -0.1680  0.3414  0.1875
64761SOL    HW1 1523  11.296   6.044   2.633  0.9797  1.1126  1.0971
64761SOL    HW2 1524  11.371   5.919   2.593 -1.4772  0.0604 -0.4622
64762SOL     OW 1525   9.705  12.185  11.074  0.3974 -0.6827 -0.0885
64762SOL    HW1 1526   9.689  12.268  11.119 -0.9296 -0.4060 -1.0116
64762SOL    HW2 1527   9.629  12.131  11.097  1.0792 -1.5361  0.2216
64763SOL     OW 1528   6.478   9.924  12.246  0.3957  0.2803 -0.0409
64763SOL    HW1 1529   6.484   9.882  12.160 -0.2226  0.5420 -0.2222
64763SOL    HW2 1530   6.409   9.875  12.291 -0.6932  1.3878 -0.4386
64764SOL     OW 1531   7.748   4.986   5.657 -0.1813 -0.5563  0.2550
64764SOL    HW1 1532   7.831   4.993   5.611 -0.0290 -0.5636  0.5256
64764SOL    HW2 1533   7.741   4.893   5.680 -0.0077 -0.4613  0.7010
64765SOL     OW 1534   3.459   2.477   2.010  0.2861 -1.0873  0.8038
64765SOL    HW1 1535   3.407   2.425   1.948  1.0351 -2.3332  1.1830
64765SOL    HW2 1536   3.501   2.544   1.956  0.6933 -1.9754 -0.0172
64766SOL     OW 1537  12.582   2.354  11.743  0.0321 -0.2847  0.3470
64766SOL    HW1 1538  12.558   2.332  11.833 -1.5225 -1.1570 -0.2306
64766SOL    HW2 1539  12.576   2.449  11.738 -0.6904 -0.2931  0.9648
64767SOL     OW 1540  10.716   7.706   6.167 -0.0821 -0.1002  0.0547
64767SOL    HW1 1541  10.688   7.707   6.075 -0.4536 -1.1278  0.1428
64767SOL    HW2 1542  10.812   7.709   6.163 -0.1193  1.1456 -0.3167
64768SOL     OW 1543  11.992   3.122   1.149  0.2420  0.2742 -0.1890
64768SOL    HW1 1544  12.001   3.137   1.243 -0.0218 -2.1848  0.3028
64768SOL    HW2 1545  11.914   3.170   1.124  0.7774  1.6451  0.6510
64769SOL     OW 1546   6.365   7.127   4.731  0.1888 -0.0124 -0.2932
64769SOL    HW1 1547   6.365   7.122   4.636 -0.7453  0.5483 -0.3318
64769SOL    HW2 1548   6.420   7.054   4.759  0.2167 -0.3664 -1.2447
64770SOL     OW 1549   9.442   1.062   4.905  0.3760 -0.0651  0.2847
64770SOL    HW1 1550   9.456   0.968   4.902  0.3097 -0.0593 -0.3336
64770SOL    HW2 1551   9.431   1.082   4.998  1.2889 -0.5331  0.5006
64771SOL     OW 1552   7.462   6.903   9.329  0.1628  0.6083 -0.0356
64771SOL    HW1 1553   7.547   6.863   9.342  0.7926  0.9370 -2.6353
64771SOL    HW2 1554   7.479   6.978   9.272 -1.6136  1.8585  0.9685
64772SOL     OW 1555   2.214   1.538  11.641 -0.4923 -0.0679  0.0013
64772SOL    HW1 1556   2.229   1.473  11.572 -2.0628  0.5725 -1.0222
64772SOL    HW2 1557   2.233   1.622  11.598  1.7105  0.2025  1.3582
64773SOL     OW 1558  11.568  11.236   9.785  0.0953 -0.0744  0.4929
64773SOL    HW1 1559  11.516  11.281   9.851  0.5153  1.0046  0.1036
64773SOL    HW2 1560  11.649  11.287   9.779 -0.6562  0.9451 -2.1299
64774SOL     OW 1561   3.582   3.675   6.941  0.4041  0.1048 -0.4370
64774SOL    HW1 1562   3.625   3.741   6.886  0.2298  0.6483  0.0643
64774SOL    HW2 1563   3.515   3.724   6.988  2.0227  0.1862  2.0116
64775SOL     OW 1564   4.662  11.427   1.572  0.1203  0.3825  0.2223
64775SOL    HW1 1565   4.749  11.466   1.567  0.7508 -0.9376  0.4576
64775SOL    HW2 1566   4.635  11.439   1.663  0.3638  0.1568  0.3246
64776SOL     OW 1567  10.712   7.218   6.195 -0.4135  0.2355  1.0053
64776SOL    HW1 1568  10.770   7.142   6.194 -0.4716  0.0532 -2.5516
64776SOL    HW2 1569  10.767   7.290   6.223  0.5300 -0.5651  1.2620
64777SOL     OW 1570  12.596   2.049   6.816  0.1851 -0.5287  0.9116
64777SOL    HW1 1571  12.542   1.972   6.795 -0.0352 -0.5081  1.3992
64777SOL    HW2 1572  12.563   2.079   6.901 -0.1422  0.4686  0.4468
64778SOL     OW 1573   2.955   3.726   4.138  0.2372 -0.1723 -0.6553
64778SOL    HW1 1574   3.045   3.755   4.132  0.7417 -1.4638  0.1216
64778SOL    HW2 1575   2.960   3.641   4.183 -1.3862 -0.1031 -0.2653
64779SOL     OW 1576   0.445   7.900   2.796  0.2427  0.4587  0.2243
64779SOL    HW1 1577   0.457   7.811   2.763  0.5629  0.8529 -0.7474
64779SOL    HW2 1578   0.365   7.930   2.752  0.8323  1.0904 -0.4388
64780SOL     OW 1579  12.215   0.153   4.225 -0.2137  0.0328  0.0546
64780SOL    HW1 1580  12.206   0.069   4.180  0.0823  0.2209 -0.3676
64780SOL    HW2 1581  12.306   0.178   4.211 -0.0854  0.0420  0.8734
64781SOL     OW 1582   0.116   5.972   4.864  0.2716  0.5164 -0.0024
64781SOL    HW1 1583   0.057   6.048   4.864  0.8193  0.9623 -1.1960
64781SOL    HW2 1584   0.060   5.899   4.891 -1.2136  0.6753 -2.3133
64782SOL     OW 1585   8.104  11.185   6.236  0.5514  0.3099 -0.3632
64782SOL    HW1 1586   8.167  11.127   6.279 -0.8006  0.0958  1.4462
64782SOL    HW2 1587   8.055  11.129   6.177 -1.1426 -0.6236  1.8050
64783SOL     OW 1588   4.244  11.109   4.004  0.0171 -0.6028 -0.0983
64783SOL    HW1 1589   4.199  11.189   3.977  0.3209 -0.6209 -0.6645
64783SOL    HW2 1590   4.184  11.038   3.981 -0.0915 -0.5650  0.0653
64784SOL     OW 1591   0.663   5.934   8.461  0.1691  0.4079  0.0446
64784SOL    HW1 1592   0.730   5.897   8.517 -0.1761 -0.1071  0.1214
64784SOL    HW2 1593   0.641   5.864   8.399 -1.8151 -0.2114  1.3502
64785SOL     OW 1594   5.237   2.216   0.623 -0.5173 -0.0414 -0.1365
64785SOL    HW1 1595   5.311   2.161   0.650 -1.2333 -0.2733  1.4879
64785SOL    HW2 1596   5.278   2.297   0.592  0.4215  0.1340  1.4602
64786SOL     OW 1597   6.378   7.294  11.182 -0.2832 -0.0653  0.3735
64786SOL    HW1 1598   6.445   7.355  11.152 -0.1625 -0.8011 -0.9544
64786SOL    HW2 1599   6.365   7.315  11.274  0.7552  1.0187  0.2917
64787SOL     OW 1600   8.638   1.700   7.551 -0.4543  0.2723 -0.1842
64787SOL    HW1 1601   8.636   1.620   7.604 -0.6473 -0.5406 -1.3734
64787SOL    HW2 1602   8.705   1.683   7.485  1.0459  1.9623  0.8040
64788SOL     OW 1603   0.018   1.386  11.565  0.0496  0.1588 -0.1683
64788SOL    HW1 1604   0.111   1.368  11.579  0.1321  0.6603 -0.0609
64788SOL    HW2 1605   0.016   1.458  11.502 -0.1871  1.7866  1.5858
64789SOL     OW 1606   7.698  10.619   4.643 -0.4958  0.2035 -0.4168
64789SOL    HW1 1607   7.739  10.533   4.642 -0.2128  0.3279  0.1839
64789SOL    HW2 1608   7.770  10.680   4.626 -0.3985  0.4281  0.7217
64790SOL     OW 1609  11.886   8.184  10.212  0.8653 -0.3500 -0.2425
64790SOL    HW1 1610  11.808   8.188  10.157  0.7141 -0.3648 -0.0306
64790SOL    HW2 1611  11.872   8.252  10.278  1.5141  0.3609 -0.8292
64791SOL     OW 1612   6.250   8.840   4.531  0.0602 -0.1896  0.2883
64791SOL    HW1 1613   6.191   8.901   4.486  0.4015 -1.6289 -2.3618
64791SOL    HW2 1614   6.209   8.825   4.616 -3.0647 -0.5241 -1.1380
64792SOL     OW 1615   3.656   9.412   7.598 -0.4572 -0.4421 -0.2460
64792SOL    HW1 1616   3.644   9.465   7.520  0.7684 -0.2291 -0.3143
64792SOL    HW2 1617   3.624   9.325   7.575 -0.8046 -0.1826 -0.7322
64793SOL     OW 1618   8.676   6.345   4.093  0.2690 -0.2845 -0.1869
64793SOL    HW1 1619   8.766   6.312   4.089  0.5434  0.5484 -1.7004
64793SOL    HW2 1620   8.622   6.271   4.066  0.2167 -1.4980  2.7892
64794SOL     OW 1621   4.021   1.100   1.175 -0.5644 -0.2426  0.1353
64794SOL    HW1 1622   3.957   1.098   1.246  0.2822  0.0088  0.9264
64794SOL    HW2 1623   4.050   1.009   1.166 -1.4218 -0.4682 -0.6236
64795SOL     OW 1624  11.750   3.789  10.839  0.9481  0.0320  0.4393
64795SOL    HW1 1625  11.715   3.765  10.753  1.4473  1.3428 -0.1553
64795SOL    HW2 1626  11.697   3.739  10.901 -1.0433  0.8615 -0.4968
64796SOL     OW 1627  11.261   8.385   1.190  0.3617 -0.2554 -0.1403
64796SOL    HW1 1628  11.281   8.452   1.125  1.3535  1.1401  1.5078
64796SOL    HW2 1629  11.166   8.379   1.189  0.2658  0.9787 -0.5280
64797SOL     OW 1630  12.309   5.073   5.266  0.3651  0.2417 -0.7172
64797SOL    HW1 1631  12.242   5.134   5.233 -1.1156 -1.9411 -2.0222
64797SOL    HW2 1632  12.265   4.988   5.266  2.0330 -0.7255  1.9894
64798SOL     OW 1633  10.585   4.698   4.027  0.1365 -0.8765 -0.0263
64798SOL    HW1 1634  10.667   4.650   4.035 -0.1615 -1.5965 -1.0897
64798SOL    HW2 1635  10.532   4.645   3.967 -0.7488  0.0518 -0.0846
64799SOL     OW 1636   8.440   5.519   8.933  0.4716  0.1615 -0.4619
64799SOL    HW1 1637   8.528   5.495   8.902  1.0747  1.8690 -0.1874
64799SOL    HW2 1638   8.435   5.613   8.919 -0.0429  0.6941  2.5810
64800SOL     OW 1639   6.833   3.079   8.349 -0.4905 -0.2131 -0.2178
64800SOL    HW1 1640   6.770   3.131   8.398 -2.4624 -1.8112 -0.9143
64800SOL    HW2 1641   6.856   3.133   8.273 -1.8034  0.0305 -0.4615
64801SOL     OW 1642   4.365   3.539  10.023  0.2551 -0.5444 -0.5640
64801SOL    HW1 1643   4.281   3.537   9.978 -0.4756  1.9877  0.4797
64801SOL    HW2 1644   4.421   3.591   9.966  0.0420  0.6489  0.2696
64802SOL     OW 1645   9.991   8.494   4.653 -0.5789  0.0466 -0.1191
64802SOL    HW1 1646   9.957   8.562   4.595 -1.1804  0.4750  0.7148
64802SOL    HW2 1647   9.939   8.503   4.733  0.4325 -0.3362  0.5978
64803SOL     OW 1648   0.065   8.754   5.599  0.3906  0.2730  0.0597
64803SOL    HW1 1649   0.103   8.685   5.546  0.2980 -0.8285  1.3891
64803SOL    HW2 1650  -0.009   8.787   5.547  1.1808  0.2425 -1.1131
64804SOL     OW 1651   9.554   8.364  11.101 -0.2423  0.4089 -0.1661
64804SOL    HW1 1652   9.470   8.333  11.136  0.2042  0.2729  0.8183
64804SOL    HW2 1653   9.530   8.431  11.037 -1.1730 -0.8828 -1.2253
64805SOL     OW 1654   4.087   5.226   9.147 -0.1581 -0.4727  0.2991
64805SOL    HW1 1655   4.131   5.141   9.145 -0.3809 -0.5795 -0.4555
64805SOL    HW2 1656   4.147   5.282   9.197  3.4102  0.7469 -4.5869
64806SOL     OW 1657   0.769   7.092   1.605  0.1877  0.0890  0.1203
64806SOL    HW1 1658   0.747   7.011   1.558  0.7214  0.2146 -0.3751
64806SOL    HW2 1659   0.852   7.120   1.565  0.9235 -0.0566  1.4832
64807SOL     OW 1660   4.257   5.848   0.496 -0.4474  0.1884  0.1524
64807SOL    HW1 1661   4.186   5.889   0.446 -0.7869  1.2770  1.4732
64807SOL    HW2 1662   4.331   5.907   0.488 -0.3923  0.1917  0.6205
64808SOL     OW 1663   3.556   1.100   6.767 -0.1979  0.3994  0.7658
64808SOL    HW1 1664   3.636   1.152   6.769 -1.1078  1.8856 -0.2433
64808SOL    HW2 1665   3.530   1.099   6.675 -0.5979 -1.2702  0.8649
64809SOL     OW 1666  11.333   0.129   7.014  0.3513  0.2266  0.1230
64809SOL    HW1 1667  11.406   0.077   6.980  2.2507  1.2525  2.3152
64809SOL    HW2 1668  11.301   0.078   7.089 -0.1213  0.5517  0.1461
64810SOL     OW 1669   7.056   2.846   9.565 -0.2444 -0.0670  0.4321
64810SOL    HW1 1670   7.099   2.904   9.629  1.8657 -1.5377  0.4650
64810SOL    HW2 1671   7.052   2.761   9.609 -1.2553 -0.4695 -0.4156
64811SOL     OW 1672   4.209  10.702  10.652  0.3724 -0.3440  0.6931
64811SOL    HW1 1673   4.274  10.637  10.678  0.8645 -0.1850 -0.1363
64811SOL    HW2 1674   4.259  10.780  10.631 -0.2220  0.3469  1.7463
64812SOL     OW 1675   5.235   7.176   7.211 -0.1906 -0.0338  0.5296
64812SOL    HW1 1676   5.272   7.263   7.225  0.1096  0.0940 -0.9104
64812SOL    HW2 1677   5.221   7.141   7.299 -0.0885  1.3690  1.1207
64813SOL     OW 1678   5.984   6.528   2.843 -0.0193 -0.3967 -0.1306
64813SOL    HW1 1679   5.981   6.534   2.939  1.8434 -1.5024  0.0402
64813SOL    HW2 1680   5.992   6.618   2.813  0.2948 -0.1039  0.8106
64814SOL     OW 1681   7.503   5.417   8.548  0.2538  0.1121 -0.2774
64814SOL    HW1 1682   7.519   5.372   8.465 -1.2945  0.5853 -0.8737
64814SOL    HW2 1683   7.474   5.348   8.608 -0.1056  0.0035 -0.5760
64815SOL     OW 1684   0.015   1.281   8.454 -0.3893  0.1155 -0.7598
64815SOL    HW1 1685   0.008   1.235   8.371 -0.1866  1.4689 -1.5505
64815SOL    HW2 1686  -0.060   1.340   8.455  0.1392  0.7867 -0.4074
64816SOL     OW 1687   2.165   8.063   7.474 -0.8751  0.0377 -0.2985
64816SOL    HW1 1688   2.215   8.144   7.460  0.0801 -0.7707 -1.8421
64816SOL    HW2 1689   2.075   8.087   7.454 -0.5419  0.6372 -1.1717
64817SOL     OW 1690   9.401   2.927   7.416 -0.4346  0.1847  0.3593
64817SOL    HW1 1691   9.426   2.890   7.501 -0.9819 -0.2261  0.3452
64817SOL    HW2 1692   9.345   3.002   7.439 -0.4805  0.1500  0.3593
64818SOL     OW 1693   9.066   1.345  11.794 -0.1070  0.3803 -0.0550
64818SOL    HW1 1694   9.109   1.296  11.864 -1.2488 -0.5851  0.0060
64818SOL    HW2 1695   9.021   1.278  11.742  1.8745  0.8712 -2.6059
64819SOL     OW 1696   9.841   4.475  12.411 -0.1221 -0.5800  1.0808
64819SOL    HW1 1697   9.830   4.568  12.389 -0.6071 -0.7003  0.7767
64819SOL    HW2 1698   9.927   4.469  12.451  0.4030 -0.1826  0.0397
64820SOL     OW 1699   7.951   0.039   7.280  0.1336  0.9364  0.4767
64820SOL    HW1 1700   7.962   0.122   7.327 -0.8165  1.8193 -0.8056
64820SOL    HW2 1701   7.945   0.064   7.188  0.4748 -0.6295  0.0096
64821SOL     OW 1702   3.626  12.401   5.024  0.0973  0.5469  0.5930
64821SOL    HW1 1703   3.641  12.495   5.017  0.8459  0.4436  0.8068
64821SOL    HW2 1704   3.706  12.361   4.990 -0.7512 -0.0338 -0.8018
64822SOL     OW 1705  11.280   8.867   2.304 -0.2194  0.5737 -0.2666
64822SOL    HW1 1706  11.232   8.922   2.366  1.0703  2.7474 -1.0696
64822SOL    HW2 1707  11.250   8.896   2.218  0.2953 -0.1855 -0.7182
64823SOL     OW 1708   6.938   6.074   3.529  0.2048  0.3882 -0.2280
64823SOL    HW1 1709   6.942   6.053   3.622  2.7334  0.3822 -0.2568
64823SOL    HW2 1710   6.902   6.163   3.526  2.2596  1.3609  1.0237
64824SOL     OW 1711   0.782  11.914   1.210  0.1393  0.1044  0.0934
64824SOL    HW1 1712   0.697  11.944   1.177 -0.4642 -0.2577  1.2639
64824SOL    HW2 1713   0.833  11.994   1.221 -0.2731  0.3843 -0.0111
64825SOL     OW 1714   7.341   0.534   3.423 -0.0452  0.2156 -0.1113
64825SOL    HW1 1715   7.378   0.499   3.342  2.0176 -0.0563  0.8863
64825SOL    HW2 1716   7.264   0.480   3.440  0.5663 -0.9494 -0.9156
64826SOL     OW 1717   4.898   1.190   3.205  0.4209 -0.7387  0.0920
64826SOL    HW1 1718   4.964   1.121   3.195  1.8099  0.4556  0.6289
64826SOL    HW2 1719   4.931   1.263   3.152 -0.6079 -0.2114  0.1553
64827SOL     OW 1720   6.557   9.424  10.936 -0.1373  0.2938 -0.3636
64827SOL    HW1 1721   6.566   9.474  10.855 -0.1990 -0.4043 -0.8003
64827SOL    HW2 1722   6.631   9.364  10.936  0.4989  1.0480  0.6440
64828SOL     OW 1723  10.144  11.401   1.527  0.1061  0.0740 -0.6327
64828SOL    HW1 1724  10.230  11.422   1.491  1.2252  0.6081  2.0816
64828SOL    HW2 1725  10.128  11.470   1.592 -2.5900  0.2060 -1.2868
64829SOL     OW 1726  10.506   9.086   8.365 -0.2373  0.0739  0.0512
64829SOL    HW1 1727  10.550   9.034   8.433  0.4590 -1.0458 -1.1881
64829SOL    HW2 1728  10.546   9.056   8.283 -0.1916  2.2270 -0.7807
64830SOL     OW 1729   2.312   1.598  12.267 -0.9598  0.2448  0.1786
64830SOL    HW1 1730   2.266   1.522  12.231 -0.3551  0.4204 -1.0403
64830SOL    HW2 1731   2.405   1.578  12.255 -0.8060  1.5888 -1.1333
64831SOL     OW 1732  10.719   0.043   2.627 -0.1160 -0.4315  0.1308
64831SOL    HW1 1733  10.775   0.043   2.549  1.0740 -2.0806  0.9174
64831SOL    HW2 1734  10.630   0.051   2.594  0.4490  0.2990 -1.2868
64832SOL     OW 1735  10.852   9.579   4.460 -0.0750 -0.0245 -0.3319
64832SOL    HW1 1736  10.889   9.510   4.515 -0.7965 -1.0484 -1.0895
64832SOL    HW2 1737  10.915   9.590   4.389  1.2840  1.9024  1.0882
64833SOL     OW 1738   6.364   8.412   1.122 -0.3679  0.0335  0.0914
64833SOL    HW1 1739   6.349   8.476   1.053 -0.9236  1.0363  1.1139
64833SOL    HW2 1740   6.459   8.409   1.133 -0.1044 -1.6264 -2.0518
64834SOL     OW 1741   4.088   1.872   9.959  0.2132 -0.1276  0.4682
64834SOL    HW1 1742   4.093   1.846   9.867  0.8667  0.0246  0.4504
64834SOL    HW2 1743   4.038   1.953   9.958  1.0132  0.3697  0.1334
64835SOL     OW 1744   3.600   8.206   4.074  0.1417  0.4307 -1.0302
64835SOL    HW1 1745   3.632   8.252   3.997  1.0519 -1.6292 -1.9580
64835SOL    HW2 1746   3.546   8.135   4.040 -0.9771  0.5563  0.3365
64836SOL     OW 1747   7.405   0.253   4.091 -0.5605  0.8024 -0.0014
64836SOL    HW1 1748   7.345   0.281   4.160 -0.5884 -2.2096  1.3795
64836SOL    HW2 1749   7.348   0.222   4.021 -0.6367 -0.1894  0.4800
64837SOL     OW 1750   0.829   4.367   4.015 -0.3624 -0.0148  0.6002
64837SOL    HW1 1751   0.909   4.375   3.964 -0.2368 -1.5207  0.5029
64837SOL    HW2 1752   0.760   4.350   3.950 -0.5363  0.0088  0.7773
64838SOL     OW 1753   5.696   3.667   4.570  0.1323 -0.1307 -0.1557
64838SOL    HW1 1754   5.605   3.666   4.539 -0.2878 -0.1247  1.0355
64838SOL    HW2 1755   5.709   3.756   4.601  0.6672 -0.0357 -0.6484
64839SOL     OW 1756   7.111   3.793   2.894  0.0417 -0.4085  0.4152
64839SOL    HW1 1757   7.033   3.812   2.842 -0.7060 -1.5277  1.1149
64839SOL    HW2 1758   7.172   3.752   2.832 -0.7160 -1.4257  0.3287
64840SOL     OW 1759   3.001   1.787   4.060 -0.4968 -0.5837 -0.9842
64840SOL    HW1 1760   3.053   1.815   4.135 -1.5242  1.9247 -1.1223
64840SOL    HW2 1761   3.043   1.706   4.031  1.9786  0.1824  0.2076
64841SOL     OW 1762   7.315   4.493   4.353  0.0542  0.7790 -0.0657
64841SOL    HW1 1763   7.327   4.522   4.262 -0.3616  2.2486  0.3216
64841SOL    HW2 1764   7.247   4.551   4.388  1.3293  1.3356  1.6534
64842SOL     OW 1765   6.701   4.915   7.143  0.2534 -0.4389 -0.2480
64842SOL    HW1 1766   6.686   4.828   7.182  1.4899 -0.4490  0.2608
64842SOL    HW2 1767   6.747   4.964   7.211  0.3671  0.3201 -0.8599
64843SOL     OW 1768   1.822   8.833   8.414 -0.4638  0.1446  0.3353
64843SOL    HW1 1769   1.757   8.902   8.407  0.2915  0.9956  1.3457
64843SOL    HW2 1770   1.889   8.869   8.472 -0.2510 -1.6021  1.2399
64844SOL     OW 1771   7.996   2.688  10.042  0.5884 -0.8136 -0.8159
64844SOL    HW1 1772   8.054   2.758  10.012 -1.6284  0.9684 -1.1868
64844SOL    HW2 1773   8.042   2.649  10.116  1.4141  1.8647  0.1973
64845SOL     OW 1774   6.525   4.913  11.128 -0.3871  0.0182 -0.3029
64845SOL    HW1 1775   6.614   4.932  11.155 -0.0498 -1.9184  0.0616
64845SOL    HW2 1776   6.477   4.898  11.210 -0.8881  0.3167 -0.5311
64846SOL     OW 1777   1.974  10.952  11.737  0.2205 -0.3758 -0.0267
64846SOL    HW1 1778   1.984  10.987  11.825 -2.1076 -0.7559  0.4333
64846SOL    HW2 1779   2.018  10.867  11.740 -1.0940 -1.0424  1.2235
64847SOL     OW 1780   0.012   5.237   7.567 -0.1100 -0.0621 -0.3537
64847SOL    HW1 1781   0.094   5.246   7.616 -0.6610 -3.0137  1.3677
64847SOL    HW2 1782  -0.052   5.209   7.632 -2.4485  1.6739 -1.7407
64848SOL     OW 1783  11.856  10.198   9.152 -0.0637 -0.2232 -0.1343
64848SOL    HW1 1784  11.800  10.237   9.220  0.2866  1.2513 -0.6453
64848SOL    HW2 1785  11.898  10.124   9.195 -0.2483  0.3638  1.1019
64849SOL     OW 1786   5.900   1.380   1.883  0.5753 -0.1473  0.0454
64849SOL    HW1 1787   5.842   1.309   1.856 -0.6436  0.6555  0.4545
64849SOL    HW2 1788   5.931   1.418   1.801  0.5252 -0.5835 -0.1785
64850SOL     OW 1789   1.288  11.253   2.667  0.1377 -0.8065 -0.4547
64850SOL    HW1 1790   1.371  11.294   2.687  0.6086 -1.5834 -0.7717
64850SOL    HW2 1791   1.265  11.286   2.580 -1.3767  1.7179  0.7851
64851SOL     OW 1792   5.666   5.838   9.959 -0.0377 -0.4341 -0.2409
64851SOL    HW1 1793   5.625   5.771   9.904 -0.8836  0.5286 -0.8295
64851SOL    HW2 1794   5.593   5.894   9.986  0.8381  1.2526 -1.1834
64852SOL     OW 1795   6.647  10.712   4.473  0.6809 -0.1505  0.2897
64852SOL    HW1 1796   6.742  10.714   4.460  0.6115  2.4350 -0.4024
64852SOL    HW2 1797   6.613  10.671   4.393  1.1101  1.4702 -0.7647
64853SOL     OW 1798   0.519   0.278  12.034  0.2285 -0.7852 -0.2547
64853SOL    HW1 1799   0.511   0.319  12.120 -0.1589 -1.8583  0.2420
64853SOL    HW2 1800   0.454   0.207  12.035  0.5608 -1.1251 -1.2474
64854SOL     OW 1801   1.419   0.175   6.952 -0.3243  0.3952 -0.2856
64854SOL    HW1 1802   1.423   0.202   7.044  0.2136 -1.5966  0.3327
64854SOL    HW2 1803   1.452   0.250   6.903 -0.8937  1.6006  1.1174
64855SOL     OW 1804  10.352   4.296   1.595  0.0101 -0.3248 -0.3101
64855SOL    HW1 1805  10.348   4.261   1.506 -1.4010 -0.1025 -0.3513
64855SOL    HW2 1806  10.402   4.231   1.644  0.4906 -0.6246 -1.1743
64856SOL     OW 1807  12.446   7.470   0.544 -0.6577 -0.9073  0.0688
64856SOL    HW1 1808  12.368   7.502   0.500 -0.8564 -3.7803 -1.9743
64856SOL    HW2 1809  12.497   7.548   0.563 -2.3418  0.7861 -1.8593
64857SOL     OW 1810   0.795  10.375   2.238  0.2650 -0.0929 -0.1859
64857SOL    HW1 1811   0.776  10.284   2.216  1.2607 -1.1384  2.7058
64857SOL    HW2 1812   0.751  10.426   2.171  0.1453 -2.6974 -2.2599
64858SOL     OW 1813   7.650   8.986   0.422 -0.7271 -0.4574  0.2594
64858SOL    HW1 1814   7.694   8.932   0.487 -0.7975 -0.4060  0.3489
64858SOL    HW2 1815   7.677   8.949   0.338  0.0519  0.0113  0.2920
64859SOL     OW 1816  11.272   7.893  12.309 -0.1515  0.2979  0.0954
64859SOL    HW1 1817  11.356   7.891  12.355 -0.4884  1.6300  0.8272
64859SOL    HW2 1818  11.279   7.968  12.251 -1.3612  1.3613  1.2633
64860SOL     OW 1819   5.565  11.512   8.309 -0.1538  0.1347  0.1568
64860SOL    HW1 1820   5.500  11.444   8.326 -0.0512 -0.7811 -2.6353
64860SOL    HW2 1821   5.513  11.590   8.286 -0.2488  0.2101  0.6115
64861SOL     OW 1822   0.558  12.387   6.211 -0.3226 -0.1970  0.1071
64861SOL    HW1 1823   0.594  12.321   6.271 -0.7153 -0.0256  0.5298
64861SOL    HW2 1824   0.472  12.352   6.185 -0.2179 -0.2014 -0.2487
64862SOL     OW 1825  12.575  12.092   8.559 -0.1288  0.3314  0.5560
64862SOL    HW1 1826  12.617  12.006   8.556 -0.7075  0.0583  0.0327
64862SOL    HW2 1827  12.629  12.147   8.503 -0.8140 -0.1876 -0.6602
64863SOL     OW 1828   3.202  10.585   0.191 -0.0005 -0.5594  0.2429
64863SOL    HW1 1829   3.156  10.559   0.270  0.1353 -0.4023  0.3763
64863SOL    HW2 1830   3.293  10.559   0.207  0.6285  1.9209  1.3315
64864SOL     OW 1831  10.669   0.323  10.541 -0.3661  0.0652  0.0297
64864SOL    HW1 1832  10.587   0.372  10.532  0.8522  2.8723  2.6130
64864SOL    HW2 1833  10.729   0.364  10.478 -0.4201 -0.8415 -0.6338
64865SOL     OW 1834   4.318   0.932   1.471 -0.2013  0.4866  0.0615
64865SOL    HW1 1835   4.404   0.972   1.483  1.8070 -3.0580 -1.0005
64865SOL    HW2 1836   4.320   0.899   1.381 -2.3897 -0.3607  0.2687
64866SOL     OW 1837   3.429   1.763   3.147  0.0339  0.1550 -0.1308
64866SOL    HW1 1838   3.370   1.689   3.131  1.5786 -1.2281  0.3051
64866SOL    HW2 1839   3.379   1.839   3.119 -1.8401 -0.9758 -0.0727
64867SOL     OW 1840  11.531  11.034   7.954  0.1029  0.4174 -0.0883
64867SOL    HW1 1841  11.458  11.095   7.965  0.4202  0.5566  1.6092
64867SOL    HW2 1842  11.495  10.949   7.977  0.2876  0.3781  0.0670
64868SOL     OW 1843   8.293   4.795   0.254  0.3836  0.0882 -0.1710
64868SOL    HW1 1844   8.346   4.773   0.177  1.3963  0.4387  0.4091
64868SOL    HW2 1845   8.239   4.718   0.268  2.6777 -1.4632  0.8328
64869SOL     OW 1846   8.893  12.644   4.432 -0.3325 -0.5193  0.1253
64869SOL    HW1 1847   8.830  12.608   4.494 -1.4106 -0.6938 -1.0217
64869SOL    HW2 1848   8.950  12.700   4.485 -0.7085 -1.2963  1.3822
64870SOL     OW 1849  11.054   8.282  10.847 -0.0653  0.1122  0.2203
64870SOL    HW1 1850  11.140   8.239  10.842  0.6780  1.5949 -0.3912
64870SOL    HW2 1851  11.047   8.331  10.766 -1.3147  0.3611  0.4603
64871SOL     OW 1852   4.489   6.753   4.428  0.0908  0.4790 -0.0342
64871SOL    HW1 1853   4.432   6.794   4.363  0.3287 -0.0543 -0.5859
64871SOL    HW2 1854   4.440   6.676   4.458  0.0907  0.5839  0.2443
64872SOL     OW 1855   0.187   2.941   5.532  0.0554 -0.1102  0.2632
64872SOL    HW1 1856   0.203   2.882   5.606 -0.2805  0.0395  0.4563
64872SOL    HW2 1857   0.109   2.906   5.489  1.5967 -1.6273 -1.4772
64873SOL     OW 1858   0.720   8.717   7.810  0.0085  0.3033 -0.4500
64873SOL    HW1 1859   0.742   8.624   7.802 -0.4898 -0.0871  2.0491
64873SOL    HW2 1860   0.697   8.729   7.902  0.3040  2.9758 -0.6446
64874SOL     OW 1861   7.742   9.326   6.968 -0.0643 -0.1184 -0.8962
64874SOL    HW1 1862   7.786   9.407   6.992  1.0396 -0.8624 -0.2922
64874SOL    HW2 1863   7.715   9.288   7.052 -2.2486  0.4886 -1.2654
64875SOL     OW 1864   0.494   4.055   4.009  0.0944  0.8078  0.0821
64875SOL    HW1 1865   0.432   3.982   4.004 -0.2320  1.0528  0.4950
64875SOL    HW2 1866   0.552   4.032   4.081  0.2837  0.7290 -0.0974
64876SOL     OW 1867   2.918   5.624   7.558  0.4509  0.8823 -0.2777
64876SOL    HW1 1868   2.859   5.604   7.485  0.9598 -0.3187 -0.3888
64876SOL    HW2 1869   2.862   5.617   7.636  0.4819 -0.5882 -0.3535
64877SOL     OW 1870   7.280   5.312  11.310  0.0348  0.8284 -0.0277
64877SOL    HW1 1871   7.342   5.297  11.382  0.9269 -0.2111 -0.9691
64877SOL    HW2 1872   7.334   5.349  11.240 -0.0686 -1.3618 -1.3533
64878SOL     OW 1873   9.694  10.474   4.063 -0.3666  0.4215 -0.5348
64878SOL    HW1 1874   9.641  10.497   4.139 -0.6018  0.3710 -0.6813
64878SOL    HW2 1875   9.695  10.554   4.010  1.5745  1.1601  0.5268
64879SOL     OW 1876   1.539   7.364   5.249 -0.8771  0.3269 -0.4761
64879SOL    HW1 1877   1.450   7.331   5.236 -0.5526 -0.8149  0.0551
64879SOL    HW2 1878   1.553   7.361   5.344  0.0491 -0.4468 -0.6111
64880SOL     OW 1879   6.783   9.309   8.746 -0.0193  0.0438  0.6340
64880SOL    HW1 1880   6.692   9.301   8.774 -0.1739 -0.9399 -0.0900
64880SOL    HW2 1881   6.777   9.331   8.653  0.4697 -0.5622  0.4527
64881SOL     OW 1882  10.996   4.993   2.560  0.1199  0.4949  0.0876
64881SOL    HW1 1883  10.985   5.038   2.644 -1.7862  0.6972 -0.2275
64881SOL    HW2 1884  10.913   4.947   2.547  0.2455  0.7501 -1.8427
64882SOL     OW 1885   4.094   9.560   5.873  0.2386  0.3940 -0.0035
64882SOL    HW1 1886   4.133   9.638   5.911  1.3785  0.0647 -0.4643
64882SOL    HW2 1887   4.001   9.582   5.862  0.5240  1.6373 -0.0273
64883SOL     OW 1888  10.768   4.153   2.031 -0.0574  0.3520  0.3378
64883SOL    HW1 1889  10.813   4.144   1.947 -1.1450  0.9221 -0.3224
64883SOL    HW2 1890  10.761   4.247   2.045 -0.3401  0.2604  0.8257
64884SOL     OW 1891  10.765   4.961   5.485  0.0760 -0.6421  0.2855
64884SOL    HW1 1892  10.829   4.962   5.413  0.9123 -1.0635  0.9936
64884SOL    HW2 1893  10.700   4.897   5.458  0.1808 -0.5260 -0.2627
64885SOL     OW 1894   5.130   3.256   8.260 -0.2061 -0.1821  0.1193
64885SOL    HW1 1895   5.116   3.248   8.355 -1.5844 -0.6055 -0.0927
64885SOL    HW2 1896   5.198   3.323   8.251 -1.3909  1.2562  1.3555
64886SOL     OW 1897  12.066   7.309   5.628 -0.2338  0.9167  0.2232
64886SOL    HW1 1898  12.075   7.297   5.533  2.2434 -0.0793  0.5243
64886SOL    HW2 1899  11.971   7.311   5.643 -0.6877 -0.4568 -2.0753
64887SOL     OW 1900   3.757   5.755   4.442 -0.4493  0.4213 -0.0249
64887SOL    HW1 1901   3.777   5.785   4.531 -1.8503  1.7427 -0.1196
64887SOL    HW2 1902   3.717   5.669   4.454  0.7640 -0.1121  0.4773
64888SOL     OW 1903   2.653   0.745  10.903 -0.6899  0.2870 -0.1541
64888SOL    HW1 1904   2.693   0.664  10.935  0.4281  0.4673 -1.0447
64888SOL    HW2 1905   2.578   0.759  10.961 -0.0334 -0.5910  0.9457
64889SOL     OW 1906  11.628   2.641   8.819 -0.1894  0.7000  0.5685
64889SOL    HW1 1907  11.551   2.623   8.873  0.5517  0.9934  1.7473
64889SOL    HW2 1908  11.600   2.710   8.759 -1.5472 -0.8126 -0.6302
64890SOL     OW 1909   2.036   5.818   1.317  0.2733  0.0834 -0.2918
64890SOL    HW1 1910   2.029   5.728   1.351  0.3196  1.2174  3.1864
64890SOL    HW2 1911   1.961   5.827   1.258 -2.0230 -1.1965  2.1962
64891SOL     OW 1912   2.158   0.153  12.596  0.0346 -0.3164 -0.3686
64891SOL    HW1 1913   2.122   0.136  12.683 -0.1815  1.3248 -0.1053
64891SOL    HW2 1914   2.193   0.068  12.567  1.9543 -0.4831  2.1597
64892SOL     OW 1915   8.613   0.264  10.893 -0.5256 -0.6411 -0.4406
64892SOL    HW1 1916   8.582   0.194  10.950 -2.7761  0.3055 -0.4006
64892SOL    HW2 1917   8.546   0.272  10.825  0.1529  0.8432 -0.9896
64893SOL     OW 1918   0.490  11.740   2.817 -0.2260 -0.2986 -0.3599
64893SOL    HW1 1919   0.582  11.747   2.842 -0.1377  3.0457 -1.1045
64893SOL    HW2 1920   0.441  11.763   2.896 -0.4266 -1.3922 -0.1518
64894SOL     OW 1921   5.024   6.092  12.407  0.0965 -0.0055  0.2962
64894SOL    HW1 1922   4.939   6.076  12.447  0.6990 -0.1453  1.5668
64894SOL    HW2 1923   5.073   6.139  12.474  2.1927 -2.9251  1.0258
64895SOL     OW 1924   7.643   4.523   4.190  0.5735  0.1074 -0.1707
64895SOL    HW1 1925   7.692   4.604   4.200  1.0908 -0.4621  3.5787
64895SOL    HW2 1926   7.553   4.551   4.169  1.2620  1.4236 -1.5717
64896SOL     OW 1927   3.462   9.243   0.560 -0.3914  0.0825  0.3072
64896SOL    HW1 1928   3.521   9.318   0.553  0.8062 -0.8489  0.2881
64896SOL    HW2 1929   3.436   9.225   0.469 -3.4960  2.5845  0.4963
64897SOL     OW 1930   1.211  10.984   7.888  0.0244  0.5621 -0.0074
64897SOL    HW1 1931   1.307  10.986   7.887  0.1118  0.1930  1.9702
64897SOL    HW2 1932   1.187  11.051   7.952 -1.1289  1.5378 -1.4017
64898SOL     OW 1933   5.404  11.721   8.220  0.1086  0.4310 -0.1473
64898SOL    HW1 1934   5.339  11.681   8.161  0.1376 -0.1462  0.2002
64898SOL    HW2 1935   5.453  11.781   8.164  0.2450 -0.2276 -0.7569
64899SOL     OW 1936  11.704   7.500   2.758 -0.1413  0.1107 -0.3853
64899SOL    HW1 1937  11.703   7.427   2.696  0.9081  2.0571 -2.9049
64899SOL    HW2 1938  11.795   7.529   2.760 -0.8027  2.4842 -1.0002
64900SOL     OW 1939   6.124   0.610  10.180  0.2735 -0.0589 -0.0601
64900SOL    HW1 1940   6.073   0.548  10.233 -2.7014  2.0803 -0.1867
64900SOL    HW2 1941   6.144   0.562  10.100 -0.0067 -1.5529  0.7323
64901SOL     OW 1942  10.637   1.199   4.009 -0.0934  0.2395 -0.0894
64901SOL    HW1 1943  10.565   1.262   4.008 -0.0440  0.3278  1.0668
64901SOL    HW2 1944  10.607   1.129   3.951 -2.2146 -0.8885  2.1908
64902SOL     OW 1945   1.681   7.542   7.612  0.5132 -0.3221  0.2942
64902SOL    HW1 1946   1.751   7.589   7.657  1.0766 -0.0994 -0.7846
64902SOL    HW2 1947   1.632   7.610   7.566  2.7992 -0.8488 -3.3297
64903SOL     OW 1948   5.129   3.689   5.649 -0.1363  0.0303  0.0511
64903SOL    HW1 1949   5.161   3.754   5.711  0.4625  0.4741 -0.7214
64903SOL    HW2 1950   5.129   3.607   5.699 -0.9458  0.6064  1.0427
64904SOL     OW 1951   2.381   3.709  11.466 -0.2293 -0.1533  0.7516
64904SOL    HW1 1952   2.428   3.792  11.463 -2.0349  0.9450  1.4591
64904SOL    HW2 1953   2.289   3.733  11.477 -1.1956 -2.1651 -1.7843
64905SOL     OW 1954   6.192  11.744   6.645 -0.6465  0.4269  0.0654
64905SOL    HW1 1955   6.138  11.809   6.599 -0.9340  1.3263  1.5713
64905SOL    HW2 1956   6.130  11.677   6.673 -0.5636  0.1654 -0.3746
64906SOL     OW 1957   0.852   7.606  12.055 -0.2018 -0.4901  0.1045
64906SOL    HW1 1958   0.918   7.674  12.064 -1.4862  0.8436 -0.2166
64906SOL    HW2 1959   0.903   7.525  12.043  1.3508  0.3838  0.5027
64907SOL     OW 1960  11.588   7.529   6.561 -0.1773  0.3010 -0.4310
64907SOL    HW1 1961  11.673   7.493   6.533 -0.9982 -0.8988 -1.4853
64907SOL    HW2 1962  11.531   7.453   6.567 -1.8066  1.3185 -2.1055
64908SOL     OW 1963   4.546   1.579   5.068  0.9735  0.2092  0.7282
64908SOL    HW1 1964   4.539   1.657   5.122  0.0581 -0.9526  2.3880
64908SOL    HW2 1965   4.634   1.582   5.032  0.9759  1.9454  0.8129
64909SOL     OW 1966  12.697   1.965  10.067 -0.0510 -0.2888 -0.1003
64909SOL    HW1 1967  12.782   1.951  10.024  0.4930 -1.8548  1.3351
64909SOL    HW2 1968  12.638   1.903  10.023  0.3400 -1.3963  0.8563
64910SOL     OW 1969  12.523  12.381   3.216 -0.2304 -0.0317 -0.3485
64910SOL    HW1 1970  12.473  12.365   3.295  1.5245 -0.2609  0.7750
64910SOL    HW2 1971  12.555  12.294   3.190 -2.1109 -0.2402 -2.3177
64911SOL     OW 1972   6.519  12.231   3.325  0.4349  0.0432 -0.0470
64911SOL    HW1 1973   6.442  12.196   3.370 -0.2237  1.5318  0.0337
64911SOL    HW2 1974   6.533  12.172   3.251 -0.7113 -0.3172  0.0121
64912SOL     OW 1975   0.128   7.619   0.552  0.2765 -0.0640  0.0543
64912SOL    HW1 1976   0.105   7.534   0.514  0.2050  0.4598 -1.1184
64912SOL    HW2 1977   0.077   7.682   0.503 -0.1495  0.6293  1.3378
64913SOL     OW 1978   3.160  11.788   9.600 -0.4363  0.3452  0.0474
64913SOL    HW1 1979   3.245  11.830   9.611  0.3377 -1.0819 -0.1551
64913SOL    HW2 1980   3.114  11.843   9.536  0.7268  0.6071 -0.5982
64914SOL     OW 1981   2.637   7.447   0.317  0.4135 -0.4690 -0.2054
64914SOL    HW1 1982   2.663   7.420   0.229 -2.1560  0.3616 -1.3083
64914SOL    HW2 1983   2.688   7.527   0.333 -1.2307  1.1324 -2.2987
64915SOL     OW 1984   8.782   6.835   3.590  0.0453  0.7965 -0.0089
64915SOL    HW1 1985   8.865   6.876   3.565 -1.0529  1.6870 -2.5692
64915SOL    HW2 1986   8.795   6.742   3.573  1.3223  0.5023  2.1953
64916SOL     OW 1987  10.825  11.498   2.863  0.8229  0.1471 -0.2928
64916SOL    HW1 1988  10.814  11.449   2.944 -0.1456  0.8467  0.0082
64916SOL    HW2 1989  10.920  11.497   2.848  1.2166  1.2671  1.6643
64917SOL     OW 1990   8.727  12.697   0.245 -0.1019  0.1465  0.3203
64917SOL    HW1 1991   8.757  12.640   0.174 -0.0507 -1.3299  1.4925
64917SOL    HW2 1992   8.680  12.768   0.200 -0.1167 -0.7777 -1.1817
64918SOL     OW 1993   3.313   5.527   2.368 -0.5205 -0.0329  0.3717
64918SOL    HW1 1994   3.312   5.500   2.276 -0.1098  0.4592  0.2200
64918SOL    HW2 1995   3.230   5.495   2.403 -1.6206  1.5756 -0.6783
64919SOL     OW 1996   7.835   1.117  12.310 -0.0657  0.0830 -0.2727
64919SOL    HW1 1997   7.909   1.148  12.361 -0.5484  2.2977 -0.8313
64919SOL    HW2 1998   7.874   1.063  12.242  0.8224 -0.5515  0.7059
64920SOL     OW 1999   9.551   6.065  10.681  0.2422 -0.0540  0.0107
64920SOL    HW1 2000   9.624   6.003  10.670 -0.2864 -0.6278 -0.3561
64920SOL    HW2 2001   9.552   6.086  10.774 -0.4943 -1.8102  0.4700
64921SOL     OW 2002  10.345   8.218   4.689 -0.2775 -0.1811 -0.1892
64921SOL    HW1 2003  10.394   8.146   4.729  0.1375  0.5577  0.6563
64921SOL    HW2 2004  10.263   8.179   4.661  0.3276 -1.1929 -0.6020
64922SOL     OW 2005   7.385   6.982   3.119 -0.5277 -0.3385 -0.6493
64922SOL    HW1 2006   7.403   6.904   3.067 -0.8572 -0.0548 -1.1951
64922SOL    HW2 2007   7.449   6.979   3.190  0.3396 -0.4075 -1.4152
64923SOL     OW 2008   8.906   0.818   5.917 -0.0016  0.1532  0.4787
64923SOL    HW1 2009   8.825   0.799   5.964 -0.4899  1.4097  0.1795
64923SOL    HW2 2010   8.926   0.909   5.939  1.6826 -0.3110  1.0534
64924SOL     OW 2011  11.574   5.718   4.629 -0.5281 -0.2838 -0.1734
64924SOL    HW1 2012  11.666   5.741   4.643 -0.9471  0.7543  1.0106
64924SOL    HW2 2013  11.556   5.747   4.539  0.3223 -0.6143 -0.4681
64925SOL     OW 2014   1.561   7.096   4.625 -0.2428 -0.3463 -0.1234
64925SOL    HW1 2015   1.552   7.183   4.664 -0.2531  0.1284 -1.1599
64925SOL    HW2 2016   1.640   7.102   4.571  0.3541 -1.3057  0.6266
64926SOL     OW 2017  10.853   2.344   5.993  0.0532  0.1407 -0.1752
64926SOL    HW1 2018  10.858   2.256   5.955  0.1494  0.2961 -0.5178
64926SOL    HW2 2019  10.766   2.376   5.969  0.6480  0.8253 -1.5552
64927SOL     OW 2020   9.884  10.392   3.734 -0.1732  0.0892  0.0612
64927SOL    HW1 2021   9.954  10.458   3.734  0.2865 -0.3738 -1.3289
64927SOL    HW2 2022   9.879  10.362   3.644 -1.6008 -0.5116  0.3156
64928SOL     OW 2023  11.750   7.432  11.569  0.3684  0.2806 -0.5062
64928SOL    HW1 2024  11.732   7.421  11.662  0.1632  2.7252 -0.1811
64928SOL    HW2 2025  11.835   7.476  11.566  0.7832 -0.5379 -1.5358
64929SOL     OW 2026   9.085   1.765   6.769  0.1209 -0.5577  0.1319
64929SOL    HW1 2027   9.072   1.802   6.857 -0.1947 -0.8006  0.1855
64929SOL    HW2 2028   9.141   1.688   6.784 -1.0886 -1.4294  0.2976
64930SOL     OW 2029   2.141   6.866   0.090  0.1714  0.0263  0.6870
64930SOL    HW1 2030   2.152   6.917   0.170  0.0025  0.6430  0.3165
64930SOL    HW2 2031   2.063   6.813   0.106 -0.4995  0.9467  0.5170
64931SOL     OW 2032   2.428   9.077  10.320 -0.3031 -0.0950 -0.4239
64931SOL    HW1 2033   2.442   9.171  10.335  0.5447 -0.1954 -0.5647
64931SOL    HW2 2034   2.412   9.070  10.226 -1.8808  0.0795 -0.1945
64932SOL     OW 2035   9.094   8.160   3.935  0.3554  0.0414  0.3420
64932SOL    HW1 2036   9.037   8.180   4.008 -0.5448  0.1874 -0.3832
64932SOL    HW2 2037   9.180   8.146   3.975  0.0456  0.8677  1.3379
64933SOL     OW 2038  10.343   6.015   4.328 -0.4201  0.4723 -0.0154
64933SOL    HW1 2039  10.374   6.052   4.410 -1.6182 -0.1302  0.7448
64933SOL    HW2 2040  10.398   5.937   4.314 -0.5229  0.3145  0.4616
64934SOL     OW 2041  11.067   8.165   5.189  0.5620 -0.2608 -0.5350
64934SOL    HW1 2042  11.050   8.247   5.143  0.8260 -0.9846 -1.9828
64934SOL    HW2 2043  11.162   8.163   5.200  0.4761  0.0638  0.3883
64935SOL     OW 2044  12.435   3.320  11.077 -0.5490  0.5394 -0.6530
64935SOL    HW1 2045  12.474   3.276  11.152 -0.7123  1.8503  0.2167
64935SOL    HW2 2046  12.500   3.312  11.007  0.1693  0.4648  0.0189
64936SOL     OW 2047   5.134   8.250   4.436 -0.2097  0.5200 -0.3591
64936SOL    HW1 2048   5.043   8.268   4.411 -0.4534 -1.4220 -0.9756
64936SOL    HW2 2049   5.151   8.161   4.405  1.4097  0.2548  1.1386
64937SOL     OW 2050  12.258   2.226   8.627 -0.3347  0.2489 -0.1857
64937SOL    HW1 2051  12.260   2.322   8.624 -0.9696  0.2684 -0.1249
64937SOL    HW2 2052  12.318   2.199   8.558  0.7749  0.6863  0.5778
64938SOL     OW 2053  10.735   5.719   1.064  1.0090 -0.0308  0.2901
64938SOL    HW1 2054  10.782   5.768   0.997  2.4881 -0.2900  1.1127
64938SOL    HW2 2055  10.645   5.715   1.031  0.9188  2.7738 -0.0496
64939SOL     OW 2056  10.531   0.787  12.348  0.1436  0.3887  0.7156
64939SOL    HW1 2057  10.625   0.780  12.364  0.8337  0.7914 -2.4675
64939SOL    HW2 2058  10.513   0.881  12.351  0.3307  0.4936 -0.7208
64940SOL     OW 2059   5.956  12.364  12.113  0.2711  0.1475 -0.2054
64940SOL    HW1 2060   5.970  12.370  12.208  0.8202  1.1755 -0.3379
64940SOL    HW2 2061   6.044  12.373  12.076 -0.0765  0.8654 -0.8564
64941SOL     OW 2062   5.834   3.072   8.451 -0.4085  0.5661  0.7880
64941SOL    HW1 2063   5.828   3.151   8.505  0.2732  0.0446  1.6423
64941SOL    HW2 2064   5.921   3.077   8.411 -0.1113 -0.0731  1.3525
64942SOL     OW 2065   5.848   4.292  10.883  0.0637  0.3943 -0.2847
64942SOL    HW1 2066   5.794   4.360  10.842  1.2082  1.8149  0.4319
64942SOL    HW2 2067   5.830   4.300  10.976 -0.5311 -1.0044 -0.2622
64943SOL     OW 2068  12.353   9.281   8.987 -0.2797  0.4622  0.2595
64943SOL    HW1 2069  12.319   9.191   8.992  0.1749  0.3541  1.7390
64943SOL    HW2 2070  12.376   9.292   8.895 -0.5509 -0.8629  0.0103
64944SOL     OW 2071   4.455   6.892  10.303 -0.0819 -0.4587 -0.1784
64944SOL    HW1 2072   4.490   6.954  10.239 -1.0438 -1.6489 -1.9570
64944SOL    HW2 2073   4.430   6.945  10.378 -0.9741  1.3317 -1.6715
64945SOL     OW 2074   1.864   7.316   4.879  0.3180 -0.3015 -0.7395
64945SOL    HW1 2075   1.907   7.282   4.801  0.6168 -0.7947 -0.3603
64945SOL    HW2 2076   1.773   7.289   4.870  0.3495 -0.3446 -0.9248
64946SOL     OW 2077   3.193   8.518  10.415 -0.4170  0.3609 -0.3813
64946SOL    HW1 2078   3.178   8.582  10.345  2.5235 -0.4907 -1.9571
64946SOL    HW2 2079   3.265   8.556  10.467 -3.5335  1.7783  3.4510
64947SOL     OW 2080  10.421   1.113   9.129 -0.5104 -0.1484 -0.7632
64947SOL    HW1 2081  10.509   1.150   9.128 -0.9916  1.1366  0.2407
64947SOL    HW2 2082  10.419   1.057   9.207 -1.5692  2.6628  1.4174
64948SOL     OW 2083   2.654  12.627   1.286 -0.5262  0.1136 -0.3201
64948SOL    HW1 2084   2.725  12.568   1.312 -0.2847  0.3831 -0.3591
64948SOL    HW2 2085   2.578  12.570   1.274 -0.2016 -0.2432 -0.7290
64949SOL     OW 2086  10.648   9.373   5.263 -0.5117 -0.0159 -0.6417
64949SOL    HW1 2087  10.735   9.397   5.230 -0.7589  1.4248 -0.3283
64949SOL    HW2 2088  10.587   9.410   5.199 -0.9132 -0.2550 -0.4040
64950SOL     OW 2089   1.601   7.653   9.014 -0.5050 -0.0335 -0.5138
64950SOL    HW1 2090   1.683   7.607   8.996  0.6065  1.1100  1.2947
64950SOL    HW2 2091   1.627   7.745   9.023 -2.2105  0.5489 -1.1564
64951SOL     OW 2092   1.036   1.013  12.193  0.1126 -0.4677 -0.1480
64951SOL    HW1 2093   1.070   1.073  12.259  3.2319  0.0304 -1.9791
64951SOL    HW2 2094   0.993   1.069  12.128 -0.3673 -0.6296  0.0303
64952SOL     OW 2095   5.650   8.187   9.606  0.5829 -0.2400  0.1375
64952SOL    HW1 2096   5.692   8.119   9.552  0.9307  0.1167 -0.0427
64952SOL    HW2 2097   5.650   8.150   9.694 -1.9638 -1.7848 -0.4047
64953SOL     OW 2098   5.568   6.097   1.258  0.1341  0.1468 -0.4097
64953SOL    HW1 2099   5.569   6.100   1.162  0.8830  3.4794 -0.4165
64953SOL    HW2 2100   5.475   6.098   1.281 -0.0796 -1.7950 -1.0456
64954SOL     OW 2101   1.929   7.202   4.632 -0.1417  0.1321  0.0201
64954SOL    HW1 2102   1.905   7.169   4.546  0.9926  0.6860 -0.5272
64954SOL    HW2 2103   2.009   7.251   4.617  0.8543 -0.9155  1.6188
64955SOL     OW 2104   2.411   0.385   1.325  0.2861 -0.4959 -0.2591
64955SOL    HW1 2105   2.487   0.432   1.359 -0.6144 -0.5834  2.0607
64955SOL    HW2 2106   2.407   0.304   1.376 -0.4264 -1.2822 -1.4931
64956SOL     OW 2107   5.186   5.038   3.846  0.1701 -0.0970  0.6597
64956SOL    HW1 2108   5.210   4.950   3.873  1.2419 -0.4923 -1.3878
64956SOL    HW2 2109   5.108   5.058   3.897 -1.4840 -3.1287 -0.4153
64957SOL     OW 2110   2.311   2.001   0.545 -0.1081 -0.3214 -0.3440
64957SOL    HW1 2111   2.401   1.970   0.556 -0.0261  0.0063 -0.0528
64957SOL    HW2 2112   2.258   1.942   0.598 -0.0377 -0.3888 -0.3487
64958SOL     OW 2113  11.176  10.584   5.489  0.1422 -0.7839  0.6080
64958SOL    HW1 2114  11.093  10.631   5.496 -0.0270 -1.0611  0.4506
64958SOL    HW2 2115  11.237  10.634   5.544  0.1800  0.1109 -0.2245
64959SOL     OW 2116  12.585  11.415  11.418 -0.6837  0.3689 -0.1533
64959SOL    HW1 2117  12.570  11.347  11.484  0.2892  0.2044 -0.0987
64959SOL    HW2 2118  12.670  11.395  11.381 -0.2108  1.7703  0.1169
64960SOL     OW 2119   6.113   8.671   1.384 -0.0690  0.2481 -0.1951
64960SOL    HW1 2120   6.155   8.643   1.465 -0.2027  2.5096  0.7393
64960SOL    HW2 2121   6.125   8.766   1.383 -0.8317  0.3692 -2.4034
64961SOL     OW 2122   2.838   3.596  12.140 -0.3084 -0.2155  0.4588
64961SOL    HW1 2123   2.817   3.549  12.221 -1.7768  0.3112  0.4153
64961SOL    HW2 2124   2.913   3.549  12.104 -0.2825 -1.0939  1.5990
64962SOL     OW 2125   1.556  11.447   7.028  0.4635  0.2695 -0.0633
64962SOL    HW1 2126   1.557  11.477   7.119  0.6039 -0.1991  0.0934
64962SOL    HW2 2127   1.567  11.527   6.976 -2.0254  0.8609  0.2313
64963SOL     OW 2128   3.497   1.733   6.844  0.3731 -0.1920  0.3684
64963SOL    HW1 2129   3.514   1.653   6.793  0.6075  0.6525 -0.9360
64963SOL    HW2 2130   3.580   1.751   6.888  0.0630 -1.1328  1.3678
64964SOL     OW 2131   5.281   3.952   1.823 -0.4475  0.1031 -0.1837
64964SOL    HW1 2132   5.307   3.869   1.863 -1.4868 -0.4335 -0.5837
64964SOL    HW2 2133   5.330   3.956   1.741 -0.4698 -0.1613 -0.2095
64965SOL     OW 2134   2.522  11.926   9.649  0.6173 -0.1507 -0.6073
64965SOL    HW1 2135   2.486  11.979   9.720 -3.3574  1.0587 -3.1254
64965SOL    HW2 2136   2.464  11.850   9.643  1.4603 -0.7438 -1.9023
64966SOL     OW 2137   7.905   7.683  11.627  0.1288  0.6691 -0.2490
64966SOL    HW1 2138   7.980   7.626  11.610  0.3119  1.4293 -2.2325
64966SOL    HW2 2139   7.840   7.625  11.667  1.0415 -0.4686 -0.3607
64967SOL     OW 2140   9.756   8.677  10.629 -0.6207 -0.8857 -0.3273
64967SOL    HW1 2141   9.712   8.606  10.675  0.7275 -2.4938 -1.3896
64967SOL    HW2 2142   9.838   8.690  10.677 -1.0734  0.3424  0.1570
64968SOL     OW 2143  11.406   7.543   8.359 -0.2643 -0.1865 -0.7163
64968SOL    HW1 2144  11.391   7.572   8.449  1.6468 -1.7861  0.2108
64968SOL    HW2 2145  11.367   7.456   8.355 -0.4587 -0.0724 -1.5033
64969SOL     OW 2146  11.196   1.990  12.632  0.5077 -0.2955  0.6471
64969SOL    HW1 2147  11.199   2.009  12.539  0.9351 -1.5925  0.3771
64969SOL    HW2 2148  11.265   1.926  12.646 -0.4448 -1.1582  1.5888
64970SOL     OW 2149  12.517   2.588   6.763  0.2400  0.1666 -0.4372
64970SOL    HW1 2150  12.550   2.603   6.674  0.4459  1.5042 -0.1581
64970SOL    HW2 2151  12.422   2.585   6.753  0.1885  1.5651 -0.5529
64971SOL     OW 2152   1.408   3.466  12.000  0.3543  0.0093  0.1222
64971SOL    HW1 2153   1.415   3.504  11.912 -0.0986  1.3799  0.6669
64971SOL    HW2 2154   1.439   3.535  12.059 -1.0976 -0.2046  1.1884
64972SOL     OW 2155   5.066  12.225  11.588 -0.0573  0.4289  0.2685
64972SOL    HW1 2156   5.017  12.191  11.513  0.9066 -2.3999  0.7859
64972SOL    HW2 2157   5.110  12.303  11.555 -0.1079 -0.4099 -1.9434
64973SOL     OW 2158   0.185  11.196   8.021  0.0951 -0.8202 -0.4130
64973SOL    HW1 2159   0.145  11.140   8.088  0.4873 -0.0773  0.4606
64973SOL    HW2 2160   0.126  11.272   8.015  1.7803  0.7452  1.5745
64974SOL     OW 2161   5.431   2.743   2.548  0.0571  0.0005 -0.4412
64974SOL    HW1 2162   5.414   2.651   2.569 -1.7736  0.3238 -0.2682
64974SOL    HW2 2163   5.487   2.740   2.471  3.3618 -1.2232  1.8054
64975SOL     OW 2164  12.669   9.641   3.152 -0.3913 -0.2974  0.0343
64975SOL    HW1 2165  12.699   9.700   3.222 -0.1952  1.6179 -1.5833
64975SOL    HW2 2166  12.743   9.583   3.135 -0.8056 -1.5633  2.0985
64976SOL     OW 2167   9.256   5.735  11.109  0.2214 -0.6768  0.5670
64976SOL    HW1 2168   9.242   5.640  11.103 -0.4188 -0.5664  0.2604
64976SOL    HW2 2169   9.337   5.744  11.159  0.2666 -1.3860  0.6313
64977SOL     OW 2170   0.734   8.859  10.694 -0.5055 -0.4278  0.5666
64977SOL    HW1 2171   0.813   8.885  10.741  0.0402 -0.8179 -0.1237
64977SOL    HW2 2172   0.763   8.845  10.604 -1.7187  1.3094 -0.1506
64978SOL     OW 2173   2.115   1.042   7.866  0.2646 -0.6570  0.1415
64978SOL    HW1 2174   2.149   1.043   7.776  0.4533 -0.3980  0.2154
64978SOL    HW2 2175   2.020   1.041   7.855  0.2792 -0.0881 -0.0564
64979SOL     OW 2176   1.040   0.499  10.980  0.0590  0.2705  0.1039
64979SOL    HW1 2177   0.983   0.421  10.973  0.4095 -0.0223  0.4829
64979SOL    HW2 2178   0.979   0.573  10.977 -0.2854 -0.0188 -0.2135
64980SOL     OW 2179   2.735   2.746   4.106  0.5935  0.3599 -0.3285
64980SOL    HW1 2180   2.774   2.799   4.175  1.8689  1.0235 -1.5074
64980SOL    HW2 2181   2.789   2.667   4.104  1.0608  0.6846 -1.0571
64981SOL     OW 2182   7.263   1.021   0.489  0.1086 -0.0075 -0.5333
64981SOL    HW1 2183   7.310   1.090   0.536 -2.4934  2.8840 -1.8464
64981SOL    HW2 2184   7.322   0.995   0.419  1.3792  0.4266  0.3420
64982SOL     OW 2185   9.589   4.589   5.248  0.0576 -0.1093 -0.3908
64982SOL    HW1 2186   9.647   4.526   5.205  0.6870  1.0894 -1.3555
64982SOL    HW2 2187   9.506   4.580   5.201  0.2935  0.1259 -0.8605
64983SOL     OW 2188   1.392   8.818   1.851  0.3914 -0.2347  0.1294
64983SOL    HW1 2189   1.350   8.889   1.899  0.8523  0.5653 -0.6142
64983SOL    HW2 2190   1.445   8.862   1.784 -0.1386 -1.2913 -1.0369
64984SOL     OW 2191   1.683   0.009   6.022 -0.3982  0.1575 -0.1541
64984SOL    HW1 2192   1.664   0.080   6.083  0.4438  1.0074 -0.8391
64984SOL    HW2 2193   1.608   0.008   5.963 -1.1610 -0.5945  0.8064
64985SOL     OW 2194   5.271   9.351   8.727 -0.7777  0.2102  0.1638
64985SOL    HW1 2195   5.220   9.405   8.789 -1.0303  2.4632 -1.8365
64985SOL    HW2 2196   5.206   9.293   8.687 -1.2502  1.0215 -0.2763
64986SOL     OW 2197   7.526   7.530   1.254  0.7058  0.1560  0.7173
64986SOL    HW1 2198   7.479   7.455   1.218 -0.5727  0.9161  0.7385
64986SOL    HW2 2199   7.533   7.591   1.180 -0.7368  1.1569  1.3524
64987SOL     OW 2200  10.786   7.686  12.013 -0.5525 -0.4033  0.3737
64987SOL    HW1 2201  10.849   7.616  12.027  0.7410 -0.1503 -3.0244
64987SOL    HW2 2202  10.818   7.759  12.066  1.2513 -0.7574 -0.1561
64988SOL     OW 2203   7.865   0.217   6.568 -0.2705 -0.3963 -0.5769
64988SOL    HW1 2204   7.836   0.285   6.629  0.2720 -0.7680  0.1078
64988SOL    HW2 2205   7.783   0.181   6.533 -0.5553  1.0344 -1.4507
64989SOL     OW 2206   4.992  10.360   6.247 -0.3735 -0.1984 -0.3105
64989SOL    HW1 2207   4.992  10.401   6.333 -0.9073  1.0309 -0.8646
64989SOL    HW2 2208   5.084  10.342   6.229 -0.2613 -0.5112  0.5276
64990SOL     OW 2209   3.151   0.548   1.681  0.4097  0.4449 -0.1415
64990SOL    HW1 2210   3.140   0.547   1.586 -1.1261 -0.5377  0.0153
64990SOL    HW2 2211   3.072   0.507   1.715  1.0960  0.4367  1.5578
64991SOL     OW 2212   7.438  10.204   1.498 -0.8435  0.1956  0.0261
64991SOL    HW1 2213   7.486  10.154   1.431 -0.6722  1.5766 -0.9081
64991SOL    HW2 2214   7.478  10.291   1.496 -2.2614  0.8768  0.4388
64992SOL     OW 2215   2.101  12.320   1.045  0.2436 -0.3796  0.1679
64992SOL    HW1 2216   2.059  12.400   1.014 -0.3131 -1.6617 -2.7628
64992SOL    HW2 2217   2.063  12.304   1.132 -2.3001  0.6852 -0.6632
64993SOL     OW 2218   7.244   9.491   4.119  0.3929 -0.6907 -0.0983
64993SOL    HW1 2219   7.278   9.524   4.202  1.6335 -0.3359 -0.7332
64993SOL    HW2 2220   7.286   9.545   4.053 -0.5711 -0.9820 -0.9710
64994SOL     OW 2221   4.738   9.868   2.839 -0.8538  0.1099  0.2551
64994SOL    HW1 2222   4.833   9.872   2.829 -0.8255 -0.5007  0.1953
64994SOL    HW2 2223   4.708   9.957   2.824 -0.3230  0.2393 -0.0756
64995SOL     OW 2224   5.736   5.790   1.285 -0.1350  0.0277 -0.1724
64995SOL    HW1 2225   5.647   5.756   1.296 -0.4494  0.8163 -0.2487
64995SOL    HW2 2226   5.784   5.760   1.362 -0.0953 -1.5525 -0.7755
64996SOL     OW 2227   0.406   9.883   7.371  0.0605  0.3190  0.2208
64996SOL    HW1 2228   0.421   9.934   7.292  1.3911  0.5660  0.6132
64996SOL    HW2 2229   0.473   9.913   7.433 -0.8723  0.0588  1.4136
64997SOL     OW 2230   0.585   2.416   6.723 -0.5101  0.0079 -0.0807
64997SOL    HW1 2231   0.568   2.337   6.673 -1.4912 -0.2804  0.6630
64997SOL    HW2 2232   0.586   2.387   6.814  0.6208  0.6163  0.1167
64998SOL     OW 2233   6.206   3.690   5.209 -0.1112  0.5082 -0.1126
64998SOL    HW1 2234   6.194   3.753   5.280 -0.7240  0.7507 -0.4250
64998SOL    HW2 2235   6.125   3.695   5.158 -0.5663 -1.2162  0.3777
64999SOL     OW 2236   6.325   9.390   7.723  0.0352 -0.4720  0.0807
64999SOL    HW1 2237   6.242   9.407   7.767  1.1185 -0.0042  2.0825
64999SOL    HW2 2238   6.363   9.317   7.772  1.5865  0.4774  0.3551
65000SOL     OW 2239   2.009   1.334   1.357 -0.0401 -0.1406 -0.1108
65000SOL    HW1 2240   1.955   1.398   1.402 -0.3262 -0.7362  0.4156
65000SOL    HW2 2241   2.097   1.349   1.390 -0.2288 -0.4943  0.5629
65001SOL     OW 2242  10.810   6.645   7.323  0.1043 -0.3357  0.0097
65001SOL    HW1 2243  10.882   6.644   7.387 -0.5496  0.3446  0.7868
65001SOL    HW2 2244  10.804   6.736   7.295  1.0301 -0.7972 -1.8200
65002SOL     OW 2245  10.913   5.156   6.755  0.2851  0.4227 -0.2463
65002SOL    HW1 2246  10.823   5.136   6.728  0.6755 -1.1027 -0.5490
65002SOL    HW2 2247  10.903   5.204   6.837 -0.8359  1.8072 -1.1504
65003SOL     OW 2248   5.339  10.484  12.675  0.0062  0.3116  0.3451
65003SOL    HW1 2249   5.434  10.492  12.673  0.0748 -0.2692  0.9004
65003SOL    HW2 2250   5.311  10.544  12.743  0.3601 -2.4590  3.1613
65004SOL     OW 2251   1.973   1.922   4.161  0.3805 -0.1369  0.0388
65004SOL    HW1 2252   1.899   1.889   4.110  1.3492  0.9100 -2.2118
65004SOL    HW2 2253   1.958   1.889   4.250 -1.9910 -1.1533 -0.6534
65005SOL     OW 2254   3.193   2.533   4.540  0.4946 -0.6171 -0.3065
65005SOL    HW1 2255   3.194   2.535   4.444 -1.2694  2.6242 -0.3781
65005SOL    HW2 2256   3.277   2.572   4.565  1.1847 -1.9471 -0.4822
65006SOL     OW 2257   3.119  10.657   5.639  0.6447  0.3729  0.3980
65006SOL    HW1 2258   3.178  10.602   5.692  0.4734  1.7921  2.1389
65006SOL    HW2 2259   3.032  10.640   5.675  0.1020 -0.7119 -1.2982
65007SOL     OW 2260   9.578   4.480  10.646  0.2814  0.0398 -0.4386
65007SOL    HW1 2261   9.574   4.534  10.725  0.1727 -0.9669  0.2682
65007SOL    HW2 2262   9.612   4.396  10.677 -2.4561 -1.3371 -0.8726
65008SOL     OW 2263   7.457   8.089  11.939  0.3300  0.7485  0.1831
65008SOL    HW1 2264   7.383   8.144  11.964 -0.7713  0.1715 -1.6488
65008SOL    HW2 2265   7.446   8.009  11.991 -3.4388 -1.5600 -3.4859
65009SOL     OW 2266   3.304  11.664  10.437 -0.2943 -0.3880  0.0185
65009SOL    HW1 2267   3.214  11.690  10.457 -0.3273  0.1580 -0.7684
65009SOL    HW2 2268   3.294  11.602  10.364 -0.0006  0.1499 -0.4837
65010SOL     OW 2269   9.641   7.057  10.207  0.3339  0.2756  0.5078
65010SOL    HW1 2270   9.687   6.982  10.170 -0.9645  0.0930 -0.8439
65010SOL    HW2 2271   9.641   7.041  10.302  0.8159 -0.9814  0.3163
65011SOL     OW 2272   8.807   7.843  11.312 -0.5596  0.6445 -0.6621
65011SOL    HW1 2273   8.736   7.797  11.269 -0.5937  0.4948 -0.4491
65011SOL    HW2 2274   8.853   7.775  11.361 -2.2479  1.2119  1.9164
65012SOL     OW 2275   8.906  11.476   0.443  0.3721  0.9172 -0.1538
65012SOL    HW1 2276   8.990  11.429   0.438 -0.5580 -0.8076 -0.4781
65012SOL    HW2 2277   8.907  11.535   0.368  0.5666 -0.4240 -1.2575
65013SOL     OW 2278   5.599   9.061   8.877  0.2113 -0.1780 -0.1721
65013SOL    HW1 2279   5.550   9.131   8.919 -0.1023 -0.8636  0.6338
65013SOL    HW2 2280   5.664   9.106   8.823  0.5944  0.7346  1.0039
65014SOL     OW 2281   1.552   5.956   8.808 -0.0646 -0.4426 -0.3835
65014SOL    HW1 2282   1.481   5.974   8.870 -0.7984 -0.1862 -1.2855
65014SOL    HW2 2283   1.557   5.860   8.805 -0.9216 -0.4743 -0.9283
65015SOL     OW 2284  12.544  10.684   1.224 -0.3209 -0.5039  0.2575
65015SOL    HW1 2285  12.472  10.709   1.282  0.7534 -2.1217  2.4226
65015SOL    HW2 2286  12.532  10.740   1.147 -2.3101  1.1828  1.6450
65016SOL     OW 2287   8.196   1.654   3.617  0.4900  0.3793 -0.0406
65016SOL    HW1 2288   8.123   1.711   3.641 -0.8593 -1.8421  1.4441
65016SOL    HW2 2289   8.265   1.678   3.679  0.3467  1.1447 -0.1666
65017SOL     OW 2290   6.024   6.684   4.809 -0.4809  0.4652  0.1912
65017SOL    HW1 2291   5.941   6.636   4.812 -1.0153  1.3485  0.0107
65017SOL    HW2 2292   6.003   6.763   4.761  0.1587  1.2936  1.2308
65018SOL     OW 2293   2.056   6.760   6.224  0.5870  0.3913  0.5361
65018SOL    HW1 2294   2.086   6.674   6.193  0.0407 -0.6019  2.6494
65018SOL    HW2 2295   2.006   6.795   6.150 -1.2634 -2.1673  0.4434
65019SOL     OW 2296   2.204  10.736  11.887  0.4176  0.4606  0.1280
65019SOL    HW1 2297   2.196  10.664  11.950  2.9043 -0.0649 -0.0760
65019SOL    HW2 2298   2.145  10.712  11.816 -1.2465  0.2879  1.4972
65020SOL     OW 2299   8.065   2.219   7.373  0.2918  0.1794  0.0163
65020SOL    HW1 2300   7.971   2.203   7.384  0.1376 -0.9530 -2.2302
65020SOL    HW2 2301   8.104   2.132   7.368  1.5796  0.6365  1.4323
65021SOL     OW 2302  10.329   2.089   1.369  0.4382  0.0072 -0.1404
65021SOL    HW1 2303  10.239   2.119   1.353 -0.1672 -1.9196 -0.5683
65021SOL    HW2 2304  10.344   2.021   1.304  2.2502  0.3218 -0.1049
65022SOL     OW 2305   3.587   3.466  11.130  0.5013  0.4275 -0.7006
65022SOL    HW1 2306   3.525   3.535  11.151  0.0024 -0.4171  0.7471
65022SOL    HW2 2307   3.656   3.510  11.081  0.0425  1.8913 -0.0980
65023SOL     OW 2308   2.820   3.782   4.506  0.0746 -0.1735  0.3491
65023SOL    HW1 2309   2.790   3.830   4.583 -1.1624  0.8515 -0.7154
65023SOL    HW2 2310   2.772   3.699   4.509 -0.3796  0.0875  0.4006
65024SOL     OW 2311   0.418   8.256   4.646 -0.7847 -0.5423 -0.0615
65024SOL    HW1 2312   0.361   8.189   4.607 -1.3767 -0.6640  0.9832
65024SOL    HW2 2313   0.376   8.277   4.730  0.8424 -0.8126  0.8486
65025SOL     OW 2314   0.218   0.301   6.134  0.1160  0.1647  0.0999
65025SOL    HW1 2315   0.244   0.388   6.166 -0.8064  0.7318 -0.6395
65025SOL    HW2 2316   0.185   0.255   6.211  1.0822  0.2676  0.5976
65026SOL     OW 2317   7.423   9.402  10.689  0.1701  0.0047  0.0378
65026SOL    HW1 2318   7.384   9.330  10.737 -1.2524  0.5147 -0.2954
65026SOL    HW2 2319   7.409   9.479  10.744 -0.8115  0.4707 -0.8228
65027SOL     OW 2320  10.864   0.736  10.183 -0.1377 -0.1676  0.2412
65027SOL    HW1 2321  10.826   0.709  10.099 -0.8356  1.8705 -0.1449
65027SOL    HW2 2322  10.848   0.830  10.187  1.8122  0.1456  1.6967
65028SOL     OW 2323   5.454  12.230   1.075  0.1120 -0.0938 -0.8443
65028SOL    HW1 2324   5.424  12.242   0.985 -1.0320 -0.7415 -0.5642
65028SOL    HW2 2325   5.374  12.216   1.126  0.7684 -0.0757  0.2216
65029SOL     OW 2326   8.268  12.236   6.218  0.1525 -0.3520  0.1177
65029SOL    HW1 2327   8.193  12.190   6.179  0.0995  0.9638 -1.4622
65029SOL    HW2 2328   8.341  12.216   6.159  0.0646  1.7270 -0.7740
65030SOL     OW 2329  11.495   0.944   3.861  0.2589 -0.4018 -0.1041
65030SOL    HW1 2330  11.523   0.956   3.770  1.4498  0.4984  0.3598
65030SOL    HW2 2331  11.484   0.849   3.870  1.6336 -0.6567 -0.7738
65031SOL     OW 2332   0.600   4.301   4.876 -0.0440  0.2858  0.0556
65031SOL    HW1 2333   0.597   4.370   4.810 -0.5338 -1.0691 -1.3951
65031SOL    HW2 2334   0.520   4.313   4.927  0.0243  0.9583  0.0140
65032SOL     OW 2335   4.662   0.327   4.984 -0.3175  0.0288  0.0603
65032SOL    HW1 2336   4.711   0.305   4.905  0.0096  0.3732  0.1671
65032SOL    HW2 2337   4.684   0.258   5.046 -0.9934 -0.5391 -0.3244
65033SOL     OW 2338   4.435   1.254   0.938 -0.1094 -0.3546  0.1372
65033SOL    HW1 2339   4.379   1.207   0.876 -1.2402  1.0444  0.0516
65033SOL    HW2 2340   4.513   1.278   0.887 -0.1049 -0.9936 -0.1661
65034SOL     OW 2341   1.901   1.325   6.785 -0.4272 -0.3908 -0.4970
65034SOL    HW1 2342   1.946   1.265   6.725  1.2040  1.1244 -0.8775
65034SOL    HW2 2343   1.931   1.298   6.872 -0.7641 -0.9598 -0.5515
65035SOL     OW 2344   7.916  11.958   8.985 -0.1296 -0.5284  0.3846
65035SOL    HW1 2345   7.916  11.923   9.075 -2.8964  0.1647  0.7466
65035SOL    HW2 2346   7.846  11.909   8.941 -1.0585  1.3959 -0.3707
65036SOL     OW 2347   4.787   9.250   1.776 -0.1193  0.3133 -0.4728
65036SOL    HW1 2348   4.713   9.271   1.833  0.1821  1.5052 -0.4931
65036SOL    HW2 2349   4.781   9.156   1.761 -1.9165  0.4709 -0.8754
65037SOL     OW 2350   8.245   3.176   3.707 -0.4270 -0.1297  0.6244
65037SOL    HW1 2351   8.311   3.194   3.640 -1.0690  0.1668  0.0532
65037SOL    HW2 2352   8.257   3.084   3.730 -0.6979 -0.4540 -0.4800
65038SOL     OW 2353  10.399   5.117   3.974  0.8856  0.1059  0.0417
65038SOL    HW1 2354  10.342   5.194   3.980 -0.4319 -0.9546  2.0577
65038SOL    HW2 2355  10.378   5.078   3.889  0.6485  1.2476 -0.4388
65039SOL     OW 2356   5.159   7.228  11.234 -0.1629 -0.8027  0.5124
65039SOL    HW1 2357   5.143   7.210  11.327  0.0716  0.3072  0.7868
65039SOL    HW2 2358   5.209   7.309  11.234 -1.6658  0.1829 -0.6359
65040SOL     OW 2359   9.089   8.600   8.000 -0.8543 -0.3120  0.1244
65040SOL    HW1 2360   9.175   8.589   8.040 -1.1756 -2.3558  0.3563
65040SOL    HW2 2361   9.100   8.671   7.938  1.0866 -0.7207 -0.0491
65041SOL     OW 2362  11.892   1.221   7.567 -0.3472  0.4029 -0.5129
65041SOL    HW1 2363  11.905   1.175   7.484  0.9103  0.0145 -0.1280
65041SOL    HW2 2364  11.866   1.152   7.629 -1.8210  0.7751 -0.6866
65042SOL     OW 2365   1.137  11.952  12.124 -0.0808 -0.4351 -0.1172
65042SOL    HW1 2366   1.222  11.920  12.093  0.6495  1.3851 -0.1147
65042SOL    HW2 2367   1.078  11.935  12.050  0.4688 -0.8990 -0.4701
65043SOL     OW 2368   5.368   0.404   3.027  1.2798  0.4985  0.2269
65043SOL    HW1 2369   5.430   0.424   3.098  0.1742 -0.4865  1.5151
65043SOL    HW2 2370   5.318   0.330   3.059 -1.0353  1.6587 -0.5085
65044SOL     OW 2371   6.790   3.498   5.512  0.9705  0.2697 -0.6268
65044SOL    HW1 2372   6.724   3.430   5.521  1.2447  0.1273  0.5131
65044SOL    HW2 2373   6.783   3.526   5.421 -0.9876  0.5867 -0.4404
65045SOL     OW 2374   6.716   1.308   7.287 -0.5440 -0.5692 -0.8544
65045SOL    HW1 2375   6.751   1.228   7.248  0.6294 -0.2801 -0.4377
65045SOL    HW2 2376   6.639   1.330   7.234 -0.5782 -1.6821 -1.2839
65046SOL     OW 2377   9.691   1.436   5.765 -0.2748  0.9643  0.3155
65046SOL    HW1 2378   9.759   1.475   5.820  1.1999 -0.2059 -0.5583
65046SOL    HW2 2379   9.725   1.447   5.676 -0.0689 -1.6811 -0.0028
65047SOL     OW 2380   2.268   1.415   1.500  0.6840  0.0214  0.0558
65047SOL    HW1 2381   2.258   1.338   1.557  0.2865  0.4312  0.5566
65047SOL    HW2 2382   2.200   1.476   1.531  1.3738  0.8051  0.0555
65048SOL     OW 2383   9.473   2.244   5.393  0.3728 -0.2851  0.3884
65048SOL    HW1 2384   9.429   2.299   5.328  0.7863 -1.2466 -0.7460
65048SOL    HW2 2385   9.547   2.205   5.345  1.1853 -0.3812  1.6664
65049SOL     OW 2386   8.931  10.793   5.821  0.2593 -0.4853 -0.2113
65049SOL    HW1 2387   8.905  10.873   5.775 -1.8440 -0.0013  1.6557
65049SOL    HW2 2388   8.980  10.743   5.755 -0.0169  1.4754 -2.0179
65050SOL     OW 2389   1.081  10.611   0.492  0.2271 -0.9582  0.4166
65050SOL    HW1 2390   1.029  10.684   0.457  0.0752 -1.1474  0.2464
65050SOL    HW2 2391   1.044  10.596   0.579  0.2851 -0.8060  0.4681
65051SOL     OW 2392  12.087   0.305   1.207  0.8199  0.6722  0.0344
65051SOL    HW1 2393  12.161   0.284   1.263 -0.5011  0.9890  2.0176
65051SOL    HW2 2394  12.064   0.222   1.166 -0.0627 -0.3720  2.4341
65052SOL     OW 2395   2.421   4.568  12.035 -0.3884 -0.1991 -0.4660
65052SOL    HW1 2396   2.420   4.655  11.996 -1.2565  0.5422  1.1258
65052SOL    HW2 2397   2.361   4.574  12.109 -2.4365 -2.8386 -1.7373
65053SOL     OW 2398  10.682   8.991  10.945 -0.0451  0.5223  0.5325
65053SOL    HW1 2399  10.735   9.016  11.021  0.5209 -0.7979  0.5844
65053SOL    HW2 2400  10.732   8.922  10.902 -2.4058 -1.9260  1.4680
65054SOL     OW 2401   4.980   5.690  12.462  0.0942 -0.4622 -0.0125
65054SOL    HW1 2402   4.885   5.680  12.460 -0.2393  2.1409 -1.5467
65054SOL    HW2 2403   5.012   5.626  12.399 -0.7235 -0.7035 -0.1939
65055SOL     OW 2404   3.351   9.630   6.243 -0.1621 -0.3092 -0.4796
65055SOL    HW1 2405   3.357   9.596   6.332 -0.6382 -1.2992 -0.8117
65055SOL    HW2 2406   3.258   9.624   6.221 -0.4156  1.9091 -0.3102
65056SOL     OW 2407   8.887   0.891  10.337 -0.3070 -0.0540  0.3898
65056SOL    HW1 2408   8.889   0.799  10.364  2.9529 -0.5509 -1.0484
65056SOL    HW2 2409   8.804   0.901  10.292 -1.1017 -2.0534  1.2840
65057SOL     OW 2410  10.302   9.989   1.552 -0.9304 -0.3318 -0.2461
65057SOL    HW1 2411  10.215  10.026   1.538 -1.2725 -1.0717 -0.1333
65057SOL    HW2 2412  10.297   9.951   1.640 -0.6722 -0.8478 -0.4521
65058SOL     OW 2413   9.553   2.697   0.879  0.1120 -0.4754 -0.2325
65058SOL    HW1 2414   9.601   2.615   0.895 -0.2627 -0.8875 -1.1494
65058SOL    HW2 2415   9.587   2.729   0.796 -0.5121 -0.2691 -0.4161
65059SOL     OW 2416  11.267  10.514   2.508 -0.3597 -0.3864 -0.5652
65059SOL    HW1 2417  11.254  10.588   2.568 -0.6049 -0.2127 -0.8311
65059SOL    HW2 2418  11.288  10.555   2.424 -0.8196 -0.6138 -0.7907
65060SOL     OW 2419  10.721   2.253  10.373 -0.3674  0.3244  0.2912
65060SOL    HW1 2420  10.671   2.326  10.410  0.4647  0.5268  1.0618
65060SOL    HW2 2421  10.734   2.277  10.281 -0.7051  0.8079  0.3667
65061SOL     OW 2422   3.001  11.832   7.241  0.2138  0.0176  0.4553
65061SOL    HW1 2423   2.931  11.867   7.186 -1.1261  0.1679  2.1488
65061SOL    HW2 2424   2.994  11.737   7.232  0.9169  0.0513 -0.6624
65062SOL     OW 2425   8.746   3.240   3.061 -0.0129 -0.0336 -0.5581
65062SOL    HW1 2426   8.711   3.227   2.973 -0.3515 -0.9157 -0.3020
65062SOL    HW2 2427   8.734   3.156   3.105 -0.1701  0.4902  0.4453
65063SOL     OW 2428   1.299   5.645   2.649 -0.2747  0.0570 -0.6605
65063SOL    HW1 2429   1.211   5.670   2.680  0.0590 -1.7744  2.0901
65063SOL    HW2 2430   1.282   5.594   2.570 -1.4286  2.0437 -1.7999
65064SOL     OW 2431   6.063   4.771   6.405 -0.2125  0.2239  0.2291
65064SOL    HW1 2432   6.087   4.785   6.496  0.5864 -0.8907  0.2154
65064SOL    HW2 2433   5.975   4.808   6.397  0.4933  2.1630  0.9227
65065SOL     OW 2434  10.959   1.299   6.984  0.2773 -0.3226  0.1622
65065SOL    HW1 2435  10.984   1.323   6.895 -2.9092  1.0843 -0.4951
65065SOL    HW2 2436  10.919   1.213   6.975 -0.0462 -0.1794  0.2283
65066SOL     OW 2437   5.244   1.780   4.726  0.4412 -0.3961 -0.5183
65066SOL    HW1 2438   5.268   1.751   4.814  0.8085  0.9426 -0.1523
65066SOL    HW2 2439   5.149   1.785   4.727  0.3223 -2.1325 -0.7916
65067SOL     OW 2440   9.532  11.670   5.072 -0.4481  0.1217  0.3769
65067SOL    HW1 2441   9.549  11.755   5.112  0.9138 -0.3860  0.9438
65067SOL    HW2 2442   9.485  11.690   4.991 -0.0165  1.4119  0.4256
65068SOL     OW 2443  10.869   2.800   1.556  0.0538 -0.9911 -0.1896
65068SOL    HW1 2444  10.887   2.727   1.496 -1.0218 -1.6090  0.2251
65068SOL    HW2 2445  10.955   2.840   1.570  0.6725 -2.1625 -0.4379
65069SOL     OW 2446   6.776   9.852  11.462  0.6619  0.5546  0.4839
65069SOL    HW1 2447   6.840   9.859  11.532  0.7574 -0.0870  0.4715
65069SOL    HW2 2448   6.709   9.792  11.496  0.8702 -0.0181 -0.0819
65070SOL     OW 2449   8.718   2.742   9.470 -0.3497  0.1986 -0.6693
65070SOL    HW1 2450   8.682   2.730   9.558 -1.2313  3.0728 -0.5225
65070SOL    HW2 2451   8.642   2.734   9.413 -0.0093 -0.3407 -1.0510
65071SOL     OW 2452   8.621   6.093   6.655  0.3192 -0.7206  0.0243
65071SOL    HW1 2453   8.536   6.132   6.635  0.3610 -1.9815 -3.0824
65071SOL    HW2 2454   8.602   6.027   6.722 -0.7574  0.3953  0.8621
65072SOL     OW 2455   0.539   0.395  11.114 -0.1046  0.4054  0.3838
65072SOL    HW1 2456   0.461   0.396  11.060 -0.1981 -0.1816  0.5027
65072SOL    HW2 2457   0.580   0.480  11.099 -2.0770  1.7801  2.2653
65073SOL     OW 2458   3.389   7.310   8.801 -0.2626  0.6070 -0.0888
65073SOL    HW1 2459   3.356   7.294   8.712  2.3465 -0.6909 -0.9113
65073SOL    HW2 2460   3.342   7.247   8.856 -0.9942  0.5788 -0.7299
65074SOL     OW 2461  11.848   5.770   5.734  0.3073  0.1268 -0.6722
65074SOL    HW1 2462  11.831   5.821   5.814  2.9361  0.6245 -0.3369
65074SOL    HW2 2463  11.922   5.815   5.693  0.6197 -1.5739 -2.0710
65075SOL     OW 2464   7.424   7.899   0.490  0.1678 -0.2043 -0.2265
65075SOL    HW1 2465   7.446   7.848   0.412  0.8604  0.8237 -0.7239
65075SOL    HW2 2466   7.473   7.980   0.481 -0.1746  0.1731  1.0159
65076SOL     OW 2467   8.195   1.727   7.277 -0.0582 -0.2028 -0.5322
65076SOL    HW1 2468   8.239   1.734   7.362 -0.5065  1.4189 -0.3999
65076SOL    HW2 2469   8.201   1.634   7.255 -2.9109 -1.4085  2.8680
65077SOL     OW 2470   0.110   3.603  11.032 -0.0317  0.0760  0.0801
65077SOL    HW1 2471   0.032   3.591  10.978 -0.0140  1.2377 -0.2248
65077SOL    HW2 2472   0.101   3.691  11.069 -0.0543 -0.6711  1.9989
65078SOL     OW 2473   7.686   1.605   6.261 -0.1191 -0.3472  0.6954
65078SOL    HW1 2474   7.639   1.630   6.341 -2.2953  0.6179 -0.7864
65078SOL    HW2 2475   7.759   1.667   6.256 -1.0207  0.7734  1.0123
65079SOL     OW 2476   6.013   5.326   5.051  0.5129 -0.8930  0.2318
65079SOL    HW1 2477   5.960   5.405   5.061  1.9457  0.1763 -0.1848
65079SOL    HW2 2478   5.972   5.278   4.979  0.3474  0.1331 -0.3788
65080SOL     OW 2479   3.159   0.265   8.955 -0.3554  0.5427 -0.1254
65080SOL    HW1 2480   3.122   0.303   8.876 -1.6252 -1.9564 -0.8498
65080SOL    HW2 2481   3.134   0.325   9.025 -0.7224  1.9020 -1.3732
65081SOL     OW 2482   7.530  12.130   4.786  0.0467  0.3361 -0.1899
65081SOL    HW1 2483   7.460  12.094   4.732 -1.6764  0.5637  1.7869
65081SOL    HW2 2484   7.606  12.076   4.765 -1.3337 -1.5755 -0.5538
65082SOL     OW 2485   1.807   4.285   0.166 -0.9144 -0.1723  0.3142
65082SOL    HW1 2486   1.834   4.330   0.246  1.1969 -2.6080  1.1328
65082SOL    HW2 2487   1.888   4.245   0.133 -1.4283  1.5699 -3.7251
65083SOL     OW 2488   6.034   9.395   6.683  0.6167 -0.2283 -0.1207
65083SOL    HW1 2489   5.944   9.428   6.679  0.0767 -1.7630 -1.7407
65083SOL    HW2 2490   6.037   9.344   6.764 -0.3558 -1.0840 -0.5887
65084SOL     OW 2491   1.601   0.698   1.890  0.0095 -0.4108  0.0308
65084SOL    HW1 2492   1.654   0.618   1.884 -0.4012 -0.5703 -3.7464
65084SOL    HW2 2493   1.659   0.768   1.859 -1.1325 -0.2002 -1.7933
65085SOL     OW 2494  11.439   4.049   6.977 -0.1054 -0.6006  0.9854
65085SOL    HW1 2495  11.481   4.135   6.977 -0.3482 -0.4839  0.7194
65085SOL    HW2 2496  11.371   4.054   6.910  1.9869 -2.0404 -1.3875
65086SOL     OW 2497   9.166   1.402   9.920 -0.0112  0.1735 -0.0211
65086SOL    HW1 2498   9.156   1.309   9.938 -0.6938  0.4012  0.9043
65086SOL    HW2 2499   9.253   1.411   9.883 -0.8915 -1.1819 -2.6685
65087SOL     OW 2500   3.824   6.133   0.970 -0.0730 -0.3548 -0.4516
65087SOL    HW1 2501   3.785   6.209   1.014 -0.6458  0.1959 -1.8659
65087SOL    HW2 2502   3.874   6.089   1.039 -0.7611  0.5952  0.6954
65088SOL     OW 2503   2.186   3.693   5.569 -0.0562 -0.1493  0.1026
65088SOL    HW1 2504   2.163   3.727   5.656 -0.9755  0.8576 -0.5139
65088SOL    HW2 2505   2.129   3.740   5.509  0.1975 -1.2254 -1.0125
65089SOL     OW 2506   5.491   9.229   8.568 -0.2140  0.2632 -0.4093
65089SOL    HW1 2507   5.512   9.153   8.513 -1.0227 -0.2087 -0.0914
65089SOL    HW2 2508   5.402   9.211   8.599  0.9504 -0.5356  2.7900
65090SOL     OW 2509  11.082   7.247   7.063 -0.2003  0.0003 -0.1107
65090SOL    HW1 2510  11.155   7.273   7.118 -0.4935 -2.0194  1.3570
65090SOL    HW2 2511  11.004   7.273   7.112 -0.4716 -0.5573 -0.2368
65091SOL     OW 2512   8.663   2.168   5.772  0.2952  0.1166 -0.2073
65091SOL    HW1 2513   8.648   2.074   5.777 -1.5721  0.2477 -2.2541
65091SOL    HW2 2514   8.721   2.179   5.697 -1.0494  0.7031 -1.1929
65092SOL     OW 2515   1.819   6.132   0.955  0.2434  0.8079  0.5998
65092SOL    HW1 2516   1.755   6.201   0.973  0.1182  0.2266  2.7354
65092SOL    HW2 2517   1.806   6.108   0.863 -1.7227  1.5901  0.6514
65093SOL     OW 2518   5.914  10.726   8.460  0.0123  0.4461  0.1657
65093SOL    HW1 2519   5.917  10.714   8.555 -1.4528 -2.2134 -0.0201
65093SOL    HW2 2520   5.983  10.669   8.427  1.3884  2.3303 -0.3965
65094SOL     OW 2521  12.021   2.633   2.157 -0.1586  0.0042 -0.0070
65094SOL    HW1 2522  12.024   2.610   2.250  0.7821 -0.9130 -0.2447
65094SOL    HW2 2523  12.036   2.727   2.155 -2.8828  0.5419  0.9342
65095SOL     OW 2524  11.973   1.597   4.006  0.3748  0.1131 -0.0350
65095SOL    HW1 2525  11.923   1.526   4.047  0.0473  0.3071 -0.0920
65095SOL    HW2 2526  11.930   1.677   4.036  1.5010  0.3489  1.0170
65096SOL     OW 2527   9.387  10.462   9.579 -0.1940  0.1689 -0.2196
65096SOL    HW1 2528   9.443  10.464   9.657 -0.2696  1.1591 -0.1899
65096SOL    HW2 2529   9.336  10.542   9.583 -0.6086 -0.0455 -0.9960
65097SOL     OW 2530   8.627  11.292   7.144 -0.2674  0.2004 -0.5866
65097SOL    HW1 2531   8.711  11.338   7.148 -0.8029  1.1699  0.1111
65097SOL    HW2 2532   8.638  11.217   7.202  0.5623 -0.4830 -1.5970
65098SOL     OW 2533   6.096   7.023   1.357 -0.0769  0.2461  0.2555
65098SOL    HW1 2534   6.044   7.098   1.328 -0.0842  0.3800  0.6077
65098SOL    HW2 2535   6.046   6.986   1.430  0.4300  0.5093  0.7398
65099SOL     OW 2536   2.973   6.761   0.258 -0.0870 -0.3463 -0.4625
65099SOL    HW1 2537   2.993   6.728   0.170  0.3995 -1.5180  0.0700
65099SOL    HW2 2538   2.877   6.757   0.264 -0.2034  0.6787 -1.2713
65100SOL     OW 2539   2.706   6.089   1.257  0.1665  0.3338 -0.1739
65100SOL    HW1 2540   2.699   6.013   1.315  2.2521  1.5108  1.8062
65100SOL    HW2 2541   2.655   6.157   1.301  0.6309  0.8685 -0.4618
65101SOL     OW 2542   5.804   1.143   9.080  0.0908 -0.0666 -0.3801
65101SOL    HW1 2543   5.838   1.113   8.995  0.8168 -1.9587  0.5280
65101SOL    HW2 2544   5.872   1.119   9.143 -1.3873 -0.7183  1.0282
65102SOL     OW 2545  10.651   0.517   3.446 -0.1166  0.7954 -0.5401
65102SOL    HW1 2546  10.626   0.513   3.538 -0.5625 -0.1101 -0.6915
65102SOL    HW2 2547  10.735   0.564   3.446 -1.3247  3.1014  0.0573
65103SOL     OW 2548   0.104   8.389   6.703  0.4450  0.2886 -0.4621
65103SOL    HW1 2549   0.139   8.363   6.618 -0.2238  0.8828 -0.9341
65103SOL    HW2 2550   0.124   8.483   6.710  0.8036  0.1688  0.1929
65104SOL     OW 2551   9.344   8.591   0.544  0.0454  0.5625  0.2753
65104SOL    HW1 2552   9.338   8.495   0.544 -0.1210  0.5566  1.2207
65104SOL    HW2 2553   9.415   8.610   0.483 -0.2366 -0.1320 -0.2911
65105SOL     OW 2554   3.895  10.007   8.266 -0.0220 -0.5142  0.2764
65105SOL    HW1 2555   3.942  10.061   8.202 -2.8289  2.8383  0.7556
65105SOL    HW2 2556   3.916  10.046   8.351 -1.8251 -0.3298  0.6812
65106SOL     OW 2557   0.700   5.375   9.872  0.6951  0.6153  0.2370
65106SOL    HW1 2558   0.656   5.410   9.795  0.1933  0.4587  0.4482
65106SOL    HW2 2559   0.792   5.400   9.861  0.3342  2.1674  0.4624
65107SOL     OW 2560   1.396   3.555   9.291  0.2373  0.0523 -0.2594
65107SOL    HW1 2561   1.301   3.557   9.302  0.1758 -0.9617 -0.5636
65107SOL    HW2 2562   1.430   3.593   9.372 -0.4524  2.8844 -1.1775
65108SOL     OW 2563   7.018   5.400  10.048  0.2924 -0.2823 -0.0893
65108SOL    HW1 2564   6.930   5.385  10.013  0.0266 -0.1292  0.4898
65108SOL    HW2 2565   7.053   5.312  10.064 -0.0754 -0.3395  0.4353
65109SOL     OW 2566  10.180  11.546  12.307 -0.1543  0.7635  0.0144
65109SOL    HW1 2567  10.109  11.547  12.242 -0.0437 -1.4769 -0.2133
65109SOL    HW2 2568  10.260  11.538  12.256 -0.0574 -0.8907  0.3865
65110SOL     OW 2569   5.773   6.089   7.752  0.0445  0.0668  0.5562
65110SOL    HW1 2570   5.778   6.132   7.666  1.4017  0.6309  0.8942
65110SOL    HW2 2571   5.681   6.061   7.759  0.4556 -2.7471 -2.4142
65111SOL     OW 2572   9.827   0.508   2.362  0.2230 -0.7415  0.4026
65111SOL    HW1 2573   9.817   0.455   2.442 -0.0584  0.6731  1.3408
65111SOL    HW2 2574   9.749   0.564   2.361  1.4030  0.9721  0.4829
65112SOL     OW 2575   2.188   3.858   6.116 -0.8127 -0.5680  0.5054
65112SOL    HW1 2576   2.213   3.788   6.176  0.2508 -0.6574 -0.0136
65112SOL    HW2 2577   2.157   3.813   6.038  0.5851 -0.4999 -0.1221
65113SOL     OW 2578   0.870  11.869   7.919  0.2831 -0.3841 -0.2332
65113SOL    HW1 2579   0.810  11.884   7.992 -1.3412 -0.7973 -1.4322
65113SOL    HW2 2580   0.895  11.956   7.890  1.7489 -0.2001  1.3861
65114SOL     OW 2581   1.229   5.332   1.725  0.1218 -0.4876  0.3903
65114SOL    HW1 2582   1.146   5.377   1.713  0.7123  0.4112 -0.5236
65114SOL    HW2 2583   1.214   5.243   1.694 -1.0263 -0.9224  2.0719
65115SOL     OW 2584   0.381   8.225   9.224  0.2948  0.1275  0.0643
65115SOL    HW1 2585   0.288   8.250   9.220  0.2953 -0.0203 -1.9966
65115SOL    HW2 2586   0.380   8.132   9.249 -0.0056  0.4847  1.4784
65116SOL     OW 2587   2.262   1.232   4.697  0.5153  0.4437 -0.4033
65116SOL    HW1 2588   2.298   1.292   4.632 -0.7535  0.2766 -1.2904
65116SOL    HW2 2589   2.170   1.256   4.704  0.6323  0.5452  1.4583
65117SOL     OW 2590   2.644   3.638   3.400 -0.1109 -0.3344 -0.2087
65117SOL    HW1 2591   2.658   3.706   3.466 -3.3306  1.8082 -1.5202
65117SOL    HW2 2592   2.730   3.626   3.360  0.9682  1.5222  1.3672
65118SOL     OW 2593   6.622   1.227   3.999 -0.2508 -0.2476 -0.1586
65118SOL    HW1 2594   6.645   1.230   4.092 -0.6599  1.3424 -0.0753
65118SOL    HW2 2595   6.706   1.218   3.954  0.2756  1.8790  0.2835
65119SOL     OW 2596   0.663   1.206   4.118  0.3213 -0.2531  0.1920
65119SOL    HW1 2597   0.680   1.289   4.161 -0.7265 -0.3785  0.8703
65119SOL    HW2 2598   0.618   1.230   4.036 -1.6001 -0.1899  1.2016
65120SOL     OW 2599   1.394  10.589  11.121 -0.0134  0.7123 -0.4228
65120SOL    HW1 2600   1.468  10.644  11.097 -1.8387  3.1847 -0.7187
65120SOL    HW2 2601   1.340  10.644  11.178 -0.7598 -1.6297  1.2869
65121SOL     OW 2602   9.901  11.025  10.231 -0.1578 -0.1798 -0.5791
65121SOL    HW1 2603   9.963  11.088  10.193 -0.7601 -0.5566 -2.2815
65121SOL    HW2 2604   9.925  11.021  10.324 -0.3142  2.7751 -0.3159
65122SOL     OW 2605   8.532  10.030   2.004 -0.1082  0.7547 -0.3023
65122SOL    HW1 2606   8.447  10.073   2.009 -0.5282 -0.1699  3.0807
65122SOL    HW2 2607   8.522   9.951   2.058  3.0624  0.9726  0.8075
65123SOL     OW 2608  10.448   3.820  10.499 -0.5911  0.0056 -0.2344
65123SOL    HW1 2609  10.383   3.792  10.563 -0.0167 -0.2221  0.2698
65123SOL    HW2 2610  10.482   3.902  10.534 -0.3592 -0.0612 -0.3005
65124SOL     OW 2611   4.240  10.894   9.435  0.8805  0.0056 -0.3265
65124SOL    HW1 2612   4.306  10.874   9.368 -0.5821  0.2115 -1.9171
65124SOL    HW2 2613   4.258  10.833   9.506  3.9084  1.2575  0.1562
65125SOL     OW 2614   6.936   8.150  12.575 -0.2131  0.1333  0.0674
65125SOL    HW1 2615   6.963   8.107  12.494  0.0507  0.4308 -0.0059
65125SOL    HW2 2616   6.994   8.226  12.582  0.8169 -0.7318  1.3505
65126SOL     OW 2617   5.283   2.213   1.211  0.4326  0.1604 -0.0626
65126SOL    HW1 2618   5.251   2.210   1.301  0.0954  2.0514 -0.0778
65126SOL    HW2 2619   5.377   2.199   1.218  0.5993  1.5078  0.7425
65127SOL     OW 2620   4.526   5.914   0.413  0.2038  0.1886 -0.2778
65127SOL    HW1 2621   4.536   6.003   0.380  3.2752  0.4305  0.9933
65127SOL    HW2 2622   4.552   5.858   0.340  0.5291  0.4257 -0.3431
65128SOL     OW 2623   5.595   4.108   6.186 -0.7338 -0.0857  0.3399
65128SOL    HW1 2624   5.562   4.023   6.217  0.0952 -0.3588  0.4958
65128SOL    HW2 2625   5.686   4.110   6.215 -0.1796  0.0300 -1.3226
65129SOL     OW 2626   7.190  12.595   0.222  0.0427  0.4182 -0.5986
65129SOL    HW1 2627   7.141  12.669   0.186  1.8135  1.0271 -1.8600
65129SOL    HW2 2628   7.279  12.627   0.231  1.1806 -1.8910 -2.4702
65130SOL     OW 2629  12.315   6.860   8.166 -0.5548 -0.3908 -0.1301
65130SOL    HW1 2630  12.384   6.801   8.137 -1.4760 -2.7081  2.0322
65130SOL    HW2 2631  12.256   6.867   8.091  0.1433 -1.3735 -0.7878
65131SOL     OW 2632   6.606   2.888   5.452  0.4692  0.3963 -0.1983
65131SOL    HW1 2633   6.668   2.961   5.451  0.0606  0.7616 -1.5504
65131SOL    HW2 2634   6.525   2.924   5.415 -0.3774 -0.2340  0.9453
65132SOL     OW 2635   0.140   7.507  10.481  0.8334 -0.1097  0.1798
65132SOL    HW1 2636   0.230   7.538  10.492  0.7245 -0.0002  0.8471
65132SOL    HW2 2637   0.088   7.587  10.477  1.0079 -0.0414 -3.0700
65133SOL     OW 2638   1.693   5.304  11.743 -0.0465  0.2206 -0.2574
65133SOL    HW1 2639   1.642   5.370  11.791 -2.3708 -1.3032 -0.4759
65133SOL    HW2 2640   1.763   5.280  11.803  0.0209  1.8550  0.3800
65134SOL     OW 2641  10.054   2.132   2.283 -0.3499  0.3936 -0.3074
65134SOL    HW1 2642   9.988   2.108   2.348 -0.9087  0.4207 -0.8575
65134SOL    HW2 2643  10.004   2.171   2.212  0.2410  0.2123 -0.8278
65135SOL     OW 2644   2.054   1.712  12.018  0.4170  0.1278 -0.0245
65135SOL    HW1 2645   1.966   1.742  12.041 -0.5399 -3.4804  1.8581
65135SOL    HW2 2646   2.094   1.689  12.102  2.7677  0.6191 -0.9384
65136SOL     OW 2647   6.943   4.909  10.794  1.1892  0.1698  0.0658
65136SOL    HW1 2648   6.864   4.961  10.808  2.1135  1.2166  1.7292
65136SOL    HW2 2649   6.971   4.932  10.705  0.6069  1.1901  0.1236
65137SOL     OW 2650   3.607   7.196  10.467  0.5851  0.0334 -0.3548
65137SOL    HW1 2651   3.680   7.177  10.526 -2.0077 -1.2492  2.7590
65137SOL    HW2 2652   3.593   7.290  10.477  3.7939  1.0986 -3.7610
65138SOL     OW 2653   8.581   4.831   8.827  0.1967 -0.4806 -0.5095
65138SOL    HW1 2654   8.525   4.830   8.749  3.2013  1.7732 -2.9464
65138SOL    HW2 2655   8.631   4.749   8.821 -0.1172 -0.6781 -0.4741
65139SOL     OW 2656  11.312   7.378  11.737  0.4633 -0.3444 -0.3821
65139SOL    HW1 2657  11.255   7.375  11.660  0.8242 -0.1111 -0.6642
65139SOL    HW2 2658  11.339   7.470  11.743 -0.5530 -0.1064  0.7635
65140SOL     OW 2659  10.201   9.419   8.672 -0.4521 -0.0009  0.4063
65140SOL    HW1 2660  10.254   9.463   8.739 -1.1835  0.6180  0.5840
65140SOL    HW2 2661  10.265   9.376   8.615  0.3877  2.4809 -0.6446
65141SOL     OW 2662   1.601  10.512  11.432  0.3450  0.3035 -0.9043
65141SOL    HW1 2663   1.549  10.549  11.504 -2.0452 -0.7782 -1.9467
65141SOL    HW2 2664   1.662  10.452  11.474 -1.2846 -0.6151  0.2444
65142SOL     OW 2665   7.726  12.163  12.505  0.0439 -0.3002  0.2602
65142SOL    HW1 2666   7.746  12.149  12.598  0.6704  0.4165  0.2472
65142SOL    HW2 2667   7.643  12.119  12.492 -1.1369  1.3113  1.6942
65143SOL     OW 2668   4.939  12.218   0.404 -0.0277  0.0674 -0.6092
65143SOL    HW1 2669   4.880  12.205   0.329  0.3491  0.2975 -0.9534
65143SOL    HW2 2670   5.022  12.181   0.375 -0.2157 -1.0153  0.1877
65144SOL     OW 2671   0.369   7.227  10.381 -0.3490  0.1539 -0.5828
65144SOL    HW1 2672   0.329   7.214  10.294 -1.8479 -0.7142  0.1845
65144SOL    HW2 2673   0.358   7.142  10.424 -0.0205  0.7047  0.6038
65145SOL     OW 2674   9.048   9.254   8.685  0.0758  0.6557  0.4688
65145SOL    HW1 2675   8.978   9.309   8.720 -0.0122  1.7513 -1.2908
65145SOL    HW2 2676   9.011   9.166   8.684 -0.9849  1.0865  0.3380
65146SOL     OW 2677   3.213   9.993   6.829 -0.0346  0.1091 -0.1731
65146SOL    HW1 2678   3.218  10.089   6.828  0.8463  0.1660  2.1817
65146SOL    HW2 2679   3.119   9.974   6.831 -0.2588  1.0944  2.0503
65147SOL     OW 2680  11.704   3.350   4.977 -0.0861  0.2045  0.3446
65147SOL    HW1 2681  11.743   3.397   5.051 -1.1205  3.4424 -1.0050
65147SOL    HW2 2682  11.621   3.396   4.960 -1.0119 -1.9126 -1.3895
65148SOL     OW 2683   6.120   3.766   8.852 -0.2577  0.0370  0.3010
65148SOL    HW1 2684   6.155   3.683   8.822 -0.8424 -0.3532  0.6651
65148SOL    HW2 2685   6.025   3.757   8.842 -0.4197  0.1636  1.5553
65149SOL     OW 2686   2.381  11.699   1.894 -0.1593 -0.1319 -0.8369
65149SOL    HW1 2687   2.361  11.755   1.818 -2.4459  0.0321 -0.1907
65149SOL    HW2 2688   2.403  11.614   1.855  0.9545  0.5344 -1.7399
65150SOL     OW 2689  11.032  11.490  10.799 -0.0852 -0.4038  0.2759
65150SOL    HW1 2690  11.069  11.574  10.826  1.2761 -1.1402  0.7468
65150SOL    HW2 2691  11.099  11.425  10.819 -0.6519 -1.4898 -1.1342
65151SOL     OW 2692   5.358   1.904   1.157  0.0701 -0.0188  0.1436
65151SOL    HW1 2693   5.399   1.961   1.092  0.5352  0.0948  0.5374
65151SOL    HW2 2694   5.269   1.939   1.167  0.4143  0.7483  0.5219
65152SOL     OW 2695   8.748   7.464   1.301 -0.4372  0.2331 -0.4698
65152SOL    HW1 2696   8.752   7.424   1.388 -0.0505  2.1762  0.4497
65152SOL    HW2 2697   8.660   7.443   1.269 -0.9315  0.2859  0.7890
65153SOL     OW 2698  12.663   2.604  11.051 -0.4760  0.3661 -0.2666
65153SOL    HW1 2699  12.636   2.696  11.046 -0.6220  0.4126  1.0104
65153SOL    HW2 2700  12.598   2.563  11.108  0.8398 -0.0168  1.0288
65154SOL     OW 2701   3.367   9.258   2.307 -0.4288  0.1921 -0.3386
65154SOL    HW1 2702   3.346   9.180   2.358 -0.3081 -1.0756 -2.1128
65154SOL    HW2 2703   3.339   9.237   2.218  1.5787  1.3011 -1.3200
65155SOL     OW 2704   9.518   3.348   5.049  0.7189 -0.0773 -0.1335
65155SOL    HW1 2705   9.426   3.342   5.025  0.9341 -1.0193 -0.7632
65155SOL    HW2 2706   9.553   3.260   5.033  1.9572  0.5213 -0.8726
65156SOL     OW 2707   1.663  12.395   3.734 -0.6534  0.2405  0.4778
65156SOL    HW1 2708   1.643  12.309   3.695 -1.9601  1.1696 -1.0415
65156SOL    HW2 2709   1.752  12.414   3.704 -1.4483  0.7090 -1.8112
65157SOL     OW 2710   3.754  11.372   3.628  0.4622 -0.1197  0.2362
65157SOL    HW1 2711   3.674  11.421   3.648  0.1620  0.1132 -1.3785
65157SOL    HW2 2712   3.740  11.339   3.540  2.2948  0.1966 -0.2118
65158SOL     OW 2713   6.916  12.083  10.909 -0.2005 -0.4410 -0.0468
65158SOL    HW1 2714   6.930  11.989  10.903 -1.5725 -0.5749 -2.7693
65158SOL    HW2 2715   7.001  12.122  10.890  0.4761 -1.0653  1.4992
65159SOL     OW 2716   8.745   1.422   7.152 -0.3594 -0.2799  0.1919
65159SOL    HW1 2717   8.727   1.331   7.176 -2.6009 -0.1371 -0.7055
65159SOL    HW2 2718   8.662   1.455   7.116  0.6558  1.8351 -0.4178
65160SOL     OW 2719   3.738  11.656  10.821  0.0145  0.0686 -0.6519
65160SOL    HW1 2720   3.671  11.724  10.828  0.6944  0.5790  4.7712
65160SOL    HW2 2721   3.710  11.587  10.880  2.9275 -0.9422 -0.2510
65161SOL     OW 2722   6.855   1.384   0.597  0.6385 -0.4057  0.1701
65161SOL    HW1 2723   6.845   1.360   0.506  1.0133  0.9316 -0.2569
65161SOL    HW2 2724   6.950   1.390   0.610  0.7381  4.1747 -0.8189
65162SOL     OW 2725   2.756  10.452   6.620  0.0355 -0.2960 -0.3794
65162SOL    HW1 2726   2.705  10.386   6.667  0.3153 -0.8698 -0.8752
65162SOL    HW2 2727   2.769  10.522   6.684  2.6124 -2.1632  1.2854
65163SOL     OW 2728  10.276   6.053   6.117  0.1373 -0.3273 -0.6185
65163SOL    HW1 2729  10.206   6.057   6.182  1.4527  1.3801  0.7928
65163SOL    HW2 2730  10.262   5.970   6.071 -2.9469  0.0740 -0.6064
65164SOL     OW 2731  11.204   1.171   1.706 -0.0348 -0.0646 -0.2090
65164SOL    HW1 2732  11.178   1.239   1.769 -0.4876 -0.7994  0.4151
65164SOL    HW2 2733  11.142   1.180   1.634  0.7815  1.0952 -0.7981
65165SOL     OW 2734   0.522  10.561   3.719 -0.1466  0.5925  0.1933
65165SOL    HW1 2735   0.485  10.556   3.631  0.5023 -2.3501 -0.0110
65165SOL    HW2 2736   0.446  10.571   3.776 -0.8481 -0.3929 -0.5357
65166SOL     OW 2737   9.900   4.421   7.206  0.2060 -0.0162 -0.0912
65166SOL    HW1 2738   9.959   4.413   7.131  0.0537  0.5221 -0.2754
65166SOL    HW2 2739   9.904   4.514   7.230 -0.4672  0.0045 -0.0306
65167SOL     OW 2740   5.779   6.923   8.679 -0.1971 -0.3009  0.1104
65167SOL    HW1 2741   5.853   6.911   8.739  1.2946  1.3774 -1.2578
65167SOL    HW2 2742   5.802   6.870   8.603 -0.6843 -0.1994 -0.1086
65168SOL     OW 2743   6.366   3.764   0.412 -0.3526  0.0182 -0.0084
65168SOL    HW1 2744   6.342   3.756   0.320 -0.3850 -1.0022  0.0804
65168SOL    HW2 2745   6.418   3.686   0.431 -1.2699 -0.3506  1.1138
65169SOL     OW 2746   1.069   5.003   6.918  0.1809  0.6740  0.1691
65169SOL    HW1 2747   0.984   5.041   6.896 -0.3535 -1.1868 -1.2106
65169SOL    HW2 2748   1.133   5.068   6.888 -0.7089  1.8600  0.7413
65170SOL     OW 2749  11.947   0.887   6.765 -0.3274  0.6284 -0.0772
65170SOL    HW1 2750  11.917   0.826   6.698 -3.3570 -2.0223  3.3274
65170SOL    HW2 2751  12.024   0.846   6.803 -1.1254 -0.0981  0.8068
65171SOL     OW 2752  12.046   7.019   9.275  0.3512  0.3123  0.0960
65171SOL    HW1 2753  12.109   6.947   9.276  0.6573  0.5774  0.7404
65171SOL    HW2 2754  12.080   7.080   9.209 -0.0285 -0.2256 -0.6113
65172SOL     OW 2755   5.623   8.963  10.875  0.2580  0.3401 -0.1188
65172SOL    HW1 2756   5.603   9.014  10.954  0.1842  0.7237 -0.3824
65172SOL    HW2 2757   5.643   9.029  10.808  1.3473 -0.0137 -0.1470
65173SOL     OW 2758   7.282   4.670   3.380  0.9736  0.1568  0.0334
65173SOL    HW1 2759   7.373   4.677   3.407  1.2676  0.5950 -1.0269
65173SOL    HW2 2760   7.281   4.601   3.314  0.9002  1.4275 -1.3482
65174SOL     OW 2761  11.667   1.268   2.121 -0.0835 -0.0699 -0.2007
65174SOL    HW1 2762  11.589   1.213   2.121  0.2255 -0.5119 -0.1262
65174SOL    HW2 2763  11.727   1.225   2.181  0.0968  0.4451 -0.0072
65175SOL     OW 2764  11.770   0.737   0.534 -0.2264  0.2129 -0.2065
65175SOL    HW1 2765  11.683   0.762   0.505 -0.0989  0.5058 -0.3378
65175SOL    HW2 2766  11.759   0.649   0.571 -0.0087 -1.1598 -3.1227
65176SOL     OW 2767   3.202   4.654  12.316  0.2403 -0.3462  0.4783
65176SOL    HW1 2768   3.285   4.680  12.276 -0.5643 -0.6281 -1.5004
65176SOL    HW2 2769   3.151   4.735  12.318  0.0137 -0.4816  0.2397
65177SOL     OW 2770   7.190   7.125   5.439  0.2798 -0.1841  0.0576
65177SOL    HW1 2771   7.242   7.205   5.427  1.0297 -0.3058  2.0489
65177SOL    HW2 2772   7.190   7.084   5.353  0.6049  1.5183 -0.8150
65178SOL     OW 2773   5.182   2.610   0.408 -0.2276  0.3777  0.4240
65178SOL    HW1 2774   5.120   2.658   0.353 -0.2736 -1.5963 -1.3963
65178SOL    HW2 2775   5.268   2.644   0.382 -0.3399  0.5031  0.2148
65179SOL     OW 2776   4.851   0.776   6.073  0.1728  0.2653  0.6097
65179SOL    HW1 2777   4.781   0.795   6.010  0.1240  1.0527  0.8818
65179SOL    HW2 2778   4.888   0.693   6.044  1.6039  1.6265 -1.8156
65180SOL     OW 2779  10.217  12.099   8.812  0.0879 -0.3786 -0.9299
65180SOL    HW1 2780  10.221  12.010   8.846 -3.4754 -0.3742 -0.0893
65180SOL    HW2 2781  10.209  12.088   8.717  1.1906 -0.8074 -0.9963
65181SOL     OW 2782   7.995   5.945   0.022  0.0572 -0.1563 -0.7201
65181SOL    HW1 2783   8.055   5.870   0.025 -1.2713 -1.2357 -0.5059
65181SOL    HW2 2784   7.911   5.908  -0.004 -0.5949  1.2942 -0.7659
65182SOL     OW 2785  12.440   9.939  11.516  0.3209 -0.2036 -0.2442
65182SOL    HW1 2786  12.371   9.962  11.579  0.7583 -1.3153  0.6829
65182SOL    HW2 2787  12.491  10.019  11.505 -0.3346  0.2659  0.0846
65183SOL     OW 2788   2.767  11.681   0.478 -0.1510 -0.1094  0.2992
65183SOL    HW1 2789   2.726  11.754   0.432 -0.1461 -1.7643 -2.5207
65183SOL    HW2 2790   2.845  11.719   0.519 -0.0011  1.4323 -1.2822
65184SOL     OW 2791   0.103   5.365   2.955 -0.1203  0.7314  0.2362
65184SOL    HW1 2792   0.060   5.292   3.000 -1.6450  1.3488 -0.1570
65184SOL    HW2 2793   0.114   5.334   2.865  1.3617  0.1487  0.5808
65185SOL     OW 2794   0.167   5.727   2.492 -0.4671 -0.2237 -0.5513
65185SOL    HW1 2795   0.073   5.732   2.506 -0.2822 -0.1906  0.8768
65185SOL    HW2 2796   0.183   5.635   2.472 -0.7602 -0.2996 -0.4442
65186SOL     OW 2797   5.241   7.891   2.320 -1.3879 -0.4199  0.2376
65186SOL    HW1 2798   5.152   7.918   2.341 -2.0262 -2.1593 -0.0224
65186SOL    HW2 2799   5.255   7.918   2.229 -0.8980  1.5868  0.8662
65187SOL     OW 2800   2.030  11.183   9.060 -0.3540 -0.1739  0.6652
65187SOL    HW1 2801   2.120  11.203   9.086 -0.6653  1.3656  0.6331
65187SOL    HW2 2802   1.981  11.185   9.141 -0.5739  0.2554  0.5232
65188SOL     OW 2803   0.597   8.052   8.159 -0.2264 -0.2297  0.3387
65188SOL    HW1 2804   0.622   7.959   8.159 -0.7693 -0.3803  0.0335
65188SOL    HW2 2805   0.673   8.097   8.197 -0.4298 -0.9337  1.6669
65189SOL     OW 2806   7.296   2.108   0.312 -0.1577  0.1518  0.4466
65189SOL    HW1 2807   7.359   2.177   0.289  0.3728  0.3672  2.3562
65189SOL    HW2 2808   7.281   2.061   0.230  2.4714  0.1129 -0.1069
65190SOL     OW 2809   8.339   4.153  11.009 -0.0094  0.0666  0.1650
65190SOL    HW1 2810   8.343   4.128  11.101  1.3280  0.6093  0.2842
65190SOL    HW2 2811   8.311   4.074  10.963  2.4091 -1.2226  0.7146
65191SOL     OW 2812   0.682  10.866   6.404  0.5467  0.1404  0.4115
65191SOL    HW1 2813   0.639  10.949   6.426  0.5458  1.0382 -2.5299
65191SOL    HW2 2814   0.767  10.893   6.369  0.0140 -0.9317 -1.8865
65192SOL     OW 2815   0.783   9.938   2.713 -0.8138 -0.0533 -0.3906
65192SOL    HW1 2816   0.740   9.926   2.628 -0.7815 -0.4461 -0.3490
65192SOL    HW2 2817   0.867   9.894   2.704  0.2447  1.9477 -0.9760
65193SOL     OW 2818   9.519   4.230   8.346 -0.0273 -0.1124 -0.4942
65193SOL    HW1 2819   9.606   4.207   8.378 -0.5718 -0.7181  0.5808
65193SOL    HW2 2820   9.466   4.151   8.358 -1.4553  1.0423  1.5903
65194SOL     OW 2821   8.158   9.575   9.294  0.2625  0.3273  0.4865
65194SOL    HW1 2822   8.206   9.500   9.257 -0.0565  0.6088 -0.5446
65194SOL    HW2 2823   8.197   9.651   9.250 -2.0308  0.4801 -1.4751
65195SOL     OW 2824   1.039   7.471   6.144  0.7142  0.0108  0.2214
65195SOL    HW1 2825   1.104   7.435   6.204  2.1354  1.8759 -0.1323
65195SOL    HW2 2826   0.955   7.453   6.187  1.3187 -3.0324  0.3712
65196SOL     OW 2827   6.309   4.484   6.713  0.0512 -0.1156  0.4324
65196SOL    HW1 2828   6.389   4.440   6.684  0.5851  1.5386 -0.7745
65196SOL    HW2 2829   6.338   4.544   6.781  0.3032  2.0338 -1.4484
65197SOL     OW 2830   7.268   6.760   8.121  0.0382 -0.3021  0.2127
65197SOL    HW1 2831   7.315   6.776   8.040  0.1768  2.0369  0.6840
65197SOL    HW2 2832   7.194   6.706   8.095  0.7829 -0.6749 -1.2373
65198SOL     OW 2833   9.777   8.989   7.440 -0.4403 -0.1263  0.5999
65198SOL    HW1 2834   9.845   8.973   7.505  0.7680  1.4985 -0.2089
65198SOL    HW2 2835   9.710   9.039   7.488 -1.0728 -1.6393  1.3665
65199SOL     OW 2836   4.652   1.950   4.033  0.3834 -0.0638  0.8991
65199SOL    HW1 2837   4.676   1.873   3.982  0.8437  0.1935  0.7266
65199SOL    HW2 2838   4.700   1.941   4.116  1.8027  0.8739  0.2308
65200SOL     OW 2839   0.225   4.357   6.780  0.5865 -0.1877 -0.2779
65200SOL    HW1 2840   0.141   4.358   6.826  1.0996  0.4631  0.7018
65200SOL    HW2 2841   0.283   4.308   6.838  1.0720  0.0330 -0.5693
65201SOL     OW 2842   8.419   9.433   6.255 -0.0663 -0.9876 -0.8310
65201SOL    HW1 2843   8.430   9.367   6.323  1.9823  0.6331  0.5246
65201SOL    HW2 2844   8.508   9.451   6.223 -0.0601  3.0036  0.8282
65202SOL     OW 2845  12.660  11.387  12.543 -0.4962  0.5251 -0.3360
65202SOL    HW1 2846  12.726  11.382  12.612 -0.3585  0.8621 -0.4421
65202SOL    HW2 2847  12.701  11.441  12.474  0.1812 -1.4906 -1.5922
65203SOL     OW 2848   2.166   7.304   3.643  0.1766  0.1541 -0.1708
65203SOL    HW1 2849   2.195   7.388   3.678 -0.0337  0.7004 -1.2429
65203SOL    HW2 2850   2.130   7.326   3.557 -0.6406 -0.9300 -0.1173
65204SOL     OW 2851   6.484  12.506   4.681 -0.4500  0.4464  0.7090
65204SOL    HW1 2852   6.564  12.520   4.730 -0.7534 -0.5866  1.5432
65204SOL    HW2 2853   6.503  12.538   4.593 -0.2289  3.3170  1.6964
65205SOL     OW 2854   7.445   4.770   0.509 -0.8446 -0.5485  0.1236
65205SOL    HW1 2855   7.370   4.723   0.473 -0.7376 -2.3598  2.1106
65205SOL    HW2 2856   7.511   4.702   0.524  1.4601  1.0364 -2.0104
65206SOL     OW 2857   2.993   5.611   8.364  0.6939 -0.0667  0.3407
65206SOL    HW1 2858   2.937   5.625   8.288  0.2916  0.2511  0.6860
65206SOL    HW2 2859   2.966   5.526   8.399  0.9512 -0.2600  0.0666
65207SOL     OW 2860  12.335  11.474   4.683 -0.3071 -0.0365 -0.2039
65207SOL    HW1 2861  12.295  11.387   4.690  1.6216 -0.8885  1.1201
65207SOL    HW2 2862  12.429  11.457   4.680  0.0694  1.9658 -1.2837
65208SOL     OW 2863  12.063   9.186   8.697  0.1765  0.7690 -0.2535
65208SOL    HW1 2864  12.085   9.272   8.734  1.1280  0.6227 -0.4306
65208SOL    HW2 2865  12.051   9.203   8.604 -0.6181  0.8689 -0.1386
65209SOL     OW 2866  10.042  11.767   8.210  0.0332  0.4182 -0.3721
65209SOL    HW1 2867  10.012  11.676   8.201  0.0909  0.3804 -0.1980
65209SOL    HW2 2868  10.134  11.764   8.184 -0.2945  0.6665 -1.5884
65210SOL     OW 2869   3.223   1.449   4.219 -0.0398  0.4645 -0.1238
65210SOL    HW1 2870   3.155   1.470   4.155  0.3264  2.2226  0.0109
65210SOL    HW2 2871   3.188   1.374   4.267 -2.1421  1.6282  0.2871
65211SOL     OW 2872   6.501   9.222  11.311  0.2874 -0.3071  0.0985
65211SOL    HW1 2873   6.542   9.191  11.392 -0.1537  0.2465  0.5382
65211SOL    HW2 2874   6.440   9.152  11.287 -0.3223 -0.0371  0.8050
65212SOL     OW 2875  10.305  11.130   9.747 -0.7037 -0.5190  0.3908
65212SOL    HW1 2876  10.347  11.203   9.701  0.6504 -0.8094  1.0939
65212SOL    HW2 2877  10.338  11.052   9.703 -1.5420 -0.7426  0.1368
65213SOL     OW 2878   8.095   1.365   8.853  0.9105  0.0691  0.3783
65213SOL    HW1 2879   8.168   1.377   8.792  0.4287 -0.9027 -0.4136
65213SOL    HW2 2880   8.017   1.390   8.802  0.5287 -0.5098  0.6713
65214SOL     OW 2881   0.385   7.813   5.781 -0.5534  0.2547 -0.3015
65214SOL    HW1 2882   0.330   7.755   5.729 -0.0482 -0.2769 -0.2627
65214SOL    HW2 2883   0.351   7.901   5.765 -0.2687  0.1195 -1.7041
65215SOL     OW 2884   0.912   6.361  11.875  0.5604 -0.2146 -0.3503
65215SOL    HW1 2885   0.837   6.420  11.882  1.6564  1.1670  0.1194
65215SOL    HW2 2886   0.969   6.401  11.810  1.1444 -0.9690 -0.3170
65216SOL     OW 2887   4.800   5.507   9.438  0.3466  0.0039 -0.1330
65216SOL    HW1 2888   4.827   5.487   9.527 -0.3344  1.2854  0.3909
65216SOL    HW2 2889   4.812   5.425   9.390 -0.2474 -1.0065  1.3682
65217SOL     OW 2890  10.460   0.437   0.970  0.3179  0.4014  0.0669
65217SOL    HW1 2891  10.386   0.494   0.949  0.3234  0.3571 -0.0740
65217SOL    HW2 2892  10.427   0.349   0.956  0.7978  0.4225 -1.3069
65218SOL     OW 2893   7.206  10.548   8.962 -0.0209 -0.3296 -0.0907
65218SOL    HW1 2894   7.265  10.605   8.914  1.0792 -2.4945 -1.4621
65218SOL    HW2 2895   7.122  10.594   8.961  0.7834  1.1906 -1.2167
65219SOL     OW 2896   6.909  10.531   8.643 -0.1942 -0.1547 -0.3203
65219SOL    HW1 2897   6.976  10.566   8.584 -0.3225  0.6223 -0.0131
65219SOL    HW2 2898   6.929  10.437   8.648  0.5867 -0.0177 -0.6033
65220SOL     OW 2899   1.615   7.469   9.304  0.0247 -0.5126 -0.0390
65220SOL    HW1 2900   1.615   7.560   9.274  0.8482 -0.8063 -0.9886
65220SOL    HW2 2901   1.627   7.476   9.399  1.7401  0.3479 -0.2797
65221SOL     OW 2902  11.321  10.616  11.388  0.2962 -0.0208 -0.2404
65221SOL    HW1 2903  11.310  10.570  11.305  0.6488 -0.1708 -0.2016
65221SOL    HW2 2904  11.364  10.698  11.364 -0.2308  0.2501 -0.2937
65222SOL     OW 2905   1.683   8.209  10.650  0.0832 -0.0210 -0.3982
65222SOL    HW1 2906   1.604   8.158  10.635 -1.9640  2.9774 -0.7322
65222SOL    HW2 2907   1.681   8.230  10.743 -0.3687  1.2248 -0.6588
65223SOL     OW 2908  12.577   3.970   0.267  0.4008  0.2382  0.5163
65223SOL    HW1 2909  12.578   3.952   0.361 -0.9831  1.7406  0.8645
65223SOL    HW2 2910  12.666   3.951   0.238  1.1478  0.7042  2.3334
65224SOL     OW 2911   0.649  12.594   2.165 -0.5834  0.3007  0.2122
65224SOL    HW1 2912   0.731  12.619   2.209 -0.6121  1.9570 -0.6013
65224SOL    HW2 2913   0.632  12.505   2.195  1.1749  0.1600  0.9120
65225SOL     OW 2914   3.560   2.853   7.187 -0.1103 -0.4838 -0.0209
65225SOL    HW1 2915   3.565   2.933   7.135 -0.5899 -1.3763 -1.5117
65225SOL    HW2 2916   3.489   2.803   7.147  1.1862 -2.3439 -0.1359
65226SOL     OW 2917   0.011   0.336   3.957  0.0696  0.1436  0.1679
65226SOL    HW1 2918  -0.084   0.343   3.950 -0.1049 -1.2367  0.8670
65226SOL    HW2 2919   0.038   0.291   3.877  0.1155  0.3066  0.0903
65227SOL     OW 2920   8.556  10.278   1.144  0.1944 -0.4579 -0.7220
65227SOL    HW1 2921   8.642  10.235   1.143 -0.3027 -1.5473  0.4865
65227SOL    HW2 2922   8.575  10.369   1.122  1.9773 -0.1758  1.5755
65228SOL     OW 2923  11.977  10.517  10.211 -0.2397 -0.6706  0.4353
65228SOL    HW1 2924  12.023  10.564  10.142 -0.7925 -0.5246  0.1607
65228SOL    HW2 2925  11.975  10.578  10.285 -1.3577 -0.0541 -0.0683
65229SOL     OW 2926  12.434  12.286  12.518 -0.7424  0.0252  0.3613
65229SOL    HW1 2927  12.496  12.291  12.591 -1.8585 -1.2359  1.4436
65229SOL    HW2 2928  12.482  12.242  12.448 -0.0826 -0.0012  0.8254
65230SOL     OW 2929   2.182  11.611  11.482 -1.1178 -0.6330 -0.4693
65230SOL    HW1 2930   2.248  11.653  11.537 -0.9937 -0.0010 -1.0830
65230SOL    HW2 2931   2.134  11.553  11.541  0.4723 -1.6826 -0.1523
65231SOL     OW 2932   9.598   0.019   0.955  0.3403  0.7992  0.1734
65231SOL    HW1 2933   9.574  -0.052   1.013  0.0068  1.4926  0.9042
65231SOL    HW2 2934   9.518   0.071   0.945  0.7652  1.4906  0.2652
65232SOL     OW 2935   8.903   5.593   0.784 -0.8213  0.1826  0.5078
65232SOL    HW1 2936   8.880   5.502   0.805  0.9311 -0.7190 -1.1344
65232SOL    HW2 2937   8.904   5.637   0.869 -1.0765 -1.5002  1.4340
65233SOL     OW 2938   6.480   6.539   1.349  0.0973  0.0403 -0.1437
65233SOL    HW1 2939   6.445   6.537   1.260  2.0438  1.8716 -1.0530
65233SOL    HW2 2940   6.539   6.614   1.349  3.5592 -2.4002  1.3595
65234SOL     OW 2941   3.449   1.406   1.154 -0.5886  0.1185 -0.4511
65234SOL    HW1 2942   3.388   1.338   1.184  0.6358  0.0091  2.0624
65234SOL    HW2 2943   3.527   1.358   1.126 -0.3137  0.3872 -0.1614
65235SOL     OW 2944   3.004   2.744   5.378  0.1246  0.0009 -0.1684
65235SOL    HW1 2945   2.909   2.754   5.369  0.3748  0.7484 -3.1997
65235SOL    HW2 2946   3.018   2.649   5.368 -0.2815 -0.0428 -0.3711
65236SOL     OW 2947   9.843   2.692   2.648 -0.1886  0.7962 -0.3502
65236SOL    HW1 2948   9.815   2.604   2.671  1.3547  0.4812  0.5104
65236SOL    HW2 2949   9.835   2.696   2.553 -0.0297 -0.3659 -0.4274
65237SOL     OW 2950   5.724   1.258   7.979  0.0835  0.7361  0.2684
65237SOL    HW1 2951   5.797   1.315   8.004 -1.9785  3.2234  1.0010
65237SOL    HW2 2952   5.683   1.235   8.062 -0.3014 -0.1876 -0.1746
65238SOL     OW 2953   0.344   8.656  10.125 -0.1163 -0.1099 -0.1384
65238SOL    HW1 2954   0.381   8.717  10.061 -0.1909  1.0064  0.8652
65238SOL    HW2 2955   0.309   8.711  10.194  1.3983 -1.3110  1.6860
65239SOL     OW 2956   9.426  12.352  11.439 -0.2963 -0.2325  0.4074
65239SOL    HW1 2957   9.480  12.275  11.455 -0.3599 -0.6072 -1.0202
65239SOL    HW2 2958   9.358  12.321  11.380  0.6571  1.2435 -1.5838
65240SOL     OW 2959   5.598   6.282   3.076 -0.3928 -0.9555 -0.8796
65240SOL    HW1 2960   5.674   6.287   3.018 -0.5913  1.6390 -1.0116
65240SOL    HW2 2961   5.635   6.284   3.164 -0.1856 -3.1285 -0.8749
65241SOL     OW 2962  11.555  11.352  11.322 -0.6570  0.5804  0.1647
65241SOL    HW1 2963  11.634  11.367  11.269 -0.1236  0.4022  0.9065
65241SOL    HW2 2964  11.541  11.258  11.318 -0.5070  0.5430  0.4949
65242SOL     OW 2965   6.778   8.809   7.478  0.5534 -0.0918 -0.2112
65242SOL    HW1 2966   6.779   8.870   7.404  3.1199  0.4236  0.1560
65242SOL    HW2 2967   6.819   8.729   7.445 -1.5485 -1.2166 -0.2938
65243SOL     OW 2968   8.331  10.145   3.328 -0.6575 -0.6652 -0.0432
65243SOL    HW1 2969   8.280  10.226   3.330 -1.1109 -0.9207 -0.7659
65243SOL    HW2 2970   8.422  10.174   3.337 -0.9512 -0.2752  2.4296
65244SOL     OW 2971   4.166   3.054   1.531 -0.1534  0.5455  0.1003
65244SOL    HW1 2972   4.232   3.121   1.544  1.4802 -0.5956 -1.6920
65244SOL    HW2 2973   4.198   2.978   1.581 -1.9792  1.0014  2.1247
65245SOL     OW 2974   6.938   4.777  11.037  0.3104 -0.1042 -0.0910
65245SOL    HW1 2975   6.963   4.808  10.950  0.7001 -0.1664 -0.0043
65245SOL    HW2 2976   7.022   4.757  11.080  0.0732 -1.9130 -0.3798
65246SOL     OW 2977   8.756   2.510  10.847 -0.1977 -0.1553  0.9930
65246SOL    HW1 2978   8.719   2.425  10.822  0.2076 -0.1278  0.2594
65246SOL    HW2 2979   8.684   2.572  10.834 -0.6925 -0.4592  2.1460
65247SOL     OW 2980  10.381   0.416   6.281  0.2240 -0.4216  0.3417
65247SOL    HW1 2981  10.313   0.418   6.350  0.8664 -1.1305  1.0050
65247SOL    HW2 2982  10.449   0.360   6.317 -0.0454 -1.9864 -1.4766
65248SOL     OW 2983   9.349   7.785  10.379 -0.3782  0.0084 -0.2125
65248SOL    HW1 2984   9.388   7.721  10.438  0.2339  0.6731  0.1186
65248SOL    HW2 2985   9.383   7.762  10.293  0.2500  0.1952 -0.0190
65249SOL     OW 2986   1.770   5.902   2.686 -0.8178  0.2864 -0.0220
65249SOL    HW1 2987   1.711   5.839   2.726  1.6309 -2.8896 -1.0164
65249SOL    HW2 2988   1.722   5.936   2.610 -2.2205 -0.3326  0.5607
65250SOL     OW 2989   9.569   3.334  12.074  0.4396 -0.5403 -0.2262
65250SOL    HW1 2990   9.660   3.314  12.096  0.3525 -0.7321 -0.0390
65250SOL    HW2 2991   9.557   3.425  12.103  0.7448 -0.3067 -0.8061
65251SOL     OW 2992   2.752   4.377  11.423  1.0714  0.3705  0.8570
65251SOL    HW1 2993   2.812   4.306  11.403  0.1617 -0.1201 -0.2270
65251SOL    HW2 2994   2.798   4.456  11.396  1.5930  0.0912  0.9139
65252SOL     OW 2995   7.408   5.074   1.045 -0.4766  0.5545  0.1479
65252SOL    HW1 2996   7.438   5.086   0.955  1.0576 -0.3340  0.5044
65252SOL    HW2 2997   7.355   5.151   1.063  0.0866  1.2807 -1.1637
65253SOL     OW 2998   4.013   7.619   8.802 -0.4467 -0.6281  0.0787
65253SOL    HW1 2999   4.045   7.535   8.835  1.0338  0.1462  0.6952
65253SOL    HW2 3000   3.992   7.670   8.880  0.0016  0.0614 -0.2342
65254SOL     OW 3001   2.382   1.749   5.960  0.0753  0.4435 -0.1888
65254SOL    HW1 3002   2.425   1.759   6.045  1.2056  0.6747 -0.7828
65254SOL    HW2 3003   2.308   1.809   5.964  0.1691  0.5211  0.5945
65255SOL     OW 3004   0.072   7.435   2.899  0.1108  0.0549  0.1062
65255SOL    HW1 3005   0.041   7.462   2.985 -0.5596 -0.0021 -0.1153
65255SOL    HW2 3006  -0.007   7.413   2.850  0.3682  1.3386 -0.9540
65256SOL     OW 3007   1.076   2.227   7.617  0.4670  0.1483 -0.6020
65256SOL    HW1 3008   1.111   2.140   7.601  0.3408  0.1285 -0.7801
65256SOL    HW2 3009   1.044   2.256   7.531 -0.2169  0.0453 -0.3933
65257SOL     OW 3010   4.206  10.566   2.996  0.0495  0.4404  0.0785
65257SOL    HW1 3011   4.155  10.534   2.922  0.8883 -1.7189  0.3674
65257SOL    HW2 3012   4.170  10.519   3.071  0.1954  1.5070  0.8437
65258SOL     OW 3013   1.607   2.399  11.603  0.3519  0.5155 -0.0855
65258SOL    HW1 3014   1.696   2.416  11.573  1.0790 -1.1143  0.9510
65258SOL    HW2 3015   1.615   2.394  11.699 -0.8377  0.3291  0.0191
65259SOL     OW 3016   9.408   5.831   6.658  0.4397  0.4107  0.0508
65259SOL    HW1 3017   9.481   5.833   6.596 -0.9283  0.7407 -1.6144
65259SOL    HW2 3018   9.331   5.849   6.605 -0.9020 -0.1615  1.7205
65260SOL     OW 3019   5.513   6.295   8.264  0.2572  0.0307  0.1105
65260SOL    HW1 3020   5.554   6.227   8.318 -0.5426 -0.2535  0.3777
65260SOL    HW2 3021   5.441   6.250   8.219  1.2781  0.1118 -1.6977
65261SOL     OW 3022   3.570  11.007   2.671  0.2557  0.1009 -0.8424
65261SOL    HW1 3023   3.507  11.023   2.742  0.1941  0.1534 -0.9093
65261SOL    HW2 3024   3.570  10.912   2.660 -0.6890  0.1743 -1.6398
65262SOL     OW 3025   8.756   8.600   5.068  0.2757 -0.9978 -0.1937
65262SOL    HW1 3026   8.757   8.663   5.141  1.2709 -2.3395  1.0029
65262SOL    HW2 3027   8.667   8.564   5.069  0.0829 -0.5280 -0.0796
65263SOL     OW 3028   7.730   0.987   5.727  0.4132  0.1109  0.2387
65263SOL    HW1 3029   7.744   0.955   5.816  0.9188 -1.4536 -0.3772
65263SOL    HW2 3030   7.807   0.959   5.679  0.2069  1.0592 -0.6755
65264SOL     OW 3031   3.947   6.835   3.284  0.1452  0.0497  0.0753
65264SOL    HW1 3032   3.953   6.905   3.348  2.2067  0.8692 -0.9084
65264SOL    HW2 3033   3.983   6.873   3.204  1.9132 -2.2763 -0.3414
65265SOL     OW 3034  11.526   8.202   6.125  0.5796  0.4634  0.3761
65265SOL    HW1 3035  11.545   8.201   6.219 -0.3589 -1.8734  0.6192
65265SOL    HW2 3036  11.601   8.157   6.086 -0.0585 -0.5568  0.2903
65266SOL     OW 3037   2.635   6.207  11.479  0.4508 -0.2634  0.2225
65266SOL    HW1 3038   2.590   6.285  11.510  1.5050  0.2413  0.5424
65266SOL    HW2 3039   2.667   6.230  11.392  0.5076 -0.4339  0.1968
65267SOL     OW 3040  11.188   8.375   8.047  0.0009  0.1226 -0.4190
65267SOL    HW1 3041  11.171   8.377   7.953 -1.0349 -1.0493 -0.2860
65267SOL    HW2 3042  11.277   8.339   8.054 -0.0940 -0.2290 -0.9332
65268SOL     OW 3043   0.373   4.215  10.361  0.2675  0.8211 -0.2098
65268SOL    HW1 3044   0.431   4.290  10.361  0.4058  0.7138 -0.7501
65268SOL    HW2 3045   0.405   4.159  10.290  0.3722  0.0959  0.3877
65269SOL     OW 3046  12.264   5.106   7.721  0.6698  0.4067 -0.6232
65269SOL    HW1 3047  12.197   5.173   7.708  0.4738  0.9539  2.4423
65269SOL    HW2 3048  12.222   5.040   7.776  1.4294 -1.3498 -2.0749
65270SOL     OW 3049   1.863   8.943   0.451 -0.2196  0.5798 -0.1955
65270SOL    HW1 3050   1.787   8.895   0.416  1.1432 -1.2227 -0.7940
65270SOL    HW2 3051   1.846   9.034   0.426 -1.4977  0.0156 -1.5659
65271SOL     OW 3052   7.232   2.636   7.487  0.2506 -0.1363 -0.2213
65271SOL    HW1 3053   7.272   2.637   7.400  1.9349  1.1815  0.5124
65271SOL    HW2 3054   7.154   2.691   7.478  0.0160 -0.5884 -1.0559
65272SOL     OW 3055   7.843   4.100   1.075 -0.3743  0.5337  0.0324
65272SOL    HW1 3056   7.792   4.159   1.130  2.3517  2.9893  0.1973
65272SOL    HW2 3057   7.849   4.145   0.990  0.6564 -0.1473 -0.2844
65273SOL     OW 3058   6.967   0.884   8.251  0.2314  0.2259 -0.1276
65273SOL    HW1 3059   6.925   0.865   8.334 -0.5643 -2.1153 -0.9704
65273SOL    HW2 3060   7.030   0.953   8.270 -0.6631  0.4687  2.1686
65274SOL     OW 3061  12.167   8.346   1.754  1.2868 -0.0195 -0.2729
65274SOL    HW1 3062  12.250   8.370   1.796  0.7055  1.0241  0.3235
65274SOL    HW2 3063  12.121   8.429   1.743  1.3426 -0.2804 -2.9020
65275SOL     OW 3064   4.193   0.319   0.251 -0.4277  0.3047 -0.2359
65275SOL    HW1 3065   4.193   0.255   0.322 -0.5379 -0.9507 -1.3445
65275SOL    HW2 3066   4.108   0.362   0.257 -1.9015 -2.1730 -1.6506
65276SOL     OW 3067   9.523  11.405  11.424  0.1954  0.3031 -0.3618
65276SOL    HW1 3068   9.540  11.397  11.330 -0.5095  0.9090 -0.5500
65276SOL    HW2 3069   9.442  11.357  11.437  0.9970 -0.9495  0.1944
65277SOL     OW 3070   4.090   9.671   8.150  0.3333 -0.7838  0.2301
65277SOL    HW1 3071   4.161   9.733   8.132  0.9726 -1.3082  0.8922
65277SOL    HW2 3072   4.099   9.604   8.081  1.0966 -1.3623  0.8783
65278SOL     OW 3073   3.546   1.276  10.217 -0.3947 -0.2250  0.1233
65278SOL    HW1 3074   3.496   1.282  10.299  0.3214  0.3281  0.5291
65278SOL    HW2 3075   3.598   1.196  10.226  1.1463  0.8317  1.0700
65279SOL     OW 3076  10.186  12.545   0.661 -0.4090  0.6227  0.9458
65279SOL    HW1 3077  10.275  12.580   0.665 -0.4847  0.8507  0.6482
65279SOL    HW2 3078  10.133  12.618   0.630 -0.8921  0.8401  2.2415
65280SOL     OW 3079   5.707   7.109   6.866  0.2586 -0.3198 -0.3006
65280SOL    HW1 3080   5.629   7.059   6.843  0.6095 -0.0711 -2.1800
65280SOL    HW2 3081   5.676   7.176   6.927 -1.0532 -0.0719 -1.2047
65281SOL     OW 3082   9.782   5.359   9.474 -0.9318  0.1077  0.4259
65281SOL    HW1 3083   9.790   5.270   9.508  1.5906 -0.2306 -0.7983
65281SOL    HW2 3084   9.729   5.350   9.395 -0.4852 -0.3617  0.1762
65282SOL     OW 3085   4.253   2.416   9.502  0.1699 -0.2553  0.1669
65282SOL    HW1 3086   4.227   2.507   9.514 -0.7658 -0.5470  0.4464
65282SOL    HW2 3087   4.174   2.371   9.474  0.5669 -1.0236  0.2331
65283SOL     OW 3088   6.827   2.809   1.009  0.1447  0.4270  0.5332
65283SOL    HW1 3089   6.784   2.762   1.080 -1.8338  0.8612 -0.2801
65283SOL    HW2 3090   6.831   2.900   1.039 -1.9735  0.8937 -0.3321
65284SOL     OW 3091  11.893   8.209   0.322  0.2394  0.0273  0.0519
65284SOL    HW1 3092  11.900   8.268   0.397 -1.1703  0.9674 -0.5200
65284SOL    HW2 3093  11.913   8.265   0.246 -1.2468 -0.1652 -0.5094
65285SOL     OW 3094   8.424   9.213   6.448 -1.4881 -0.7674  0.0608
65285SOL    HW1 3095   8.447   9.268   6.522 -2.5620  0.2594 -0.3274
65285SOL    HW2 3096   8.440   9.124   6.478  1.1417 -0.2531  0.4078
65286SOL     OW 3097  12.038  10.965  12.644  0.5499  0.6196 -0.2824
65286SOL    HW1 3098  11.949  10.963  12.680  0.6267 -0.2353 -0.0957
65286SOL    HW2 3099  12.040  10.892  12.581  1.1730  0.5007 -0.1364
65287SOL     OW 3100   8.516  12.435   0.525 -0.0511  0.3349 -0.3772
65287SOL    HW1 3101   8.562  12.363   0.482  0.5452 -0.6434  1.8080
65287SOL    HW2 3102   8.581  12.504   0.533  0.1504  0.0983 -0.0128
65288SOL     OW 3103   4.242   0.385   4.877 -0.1240  0.0044 -0.3297
65288SOL    HW1 3104   4.326   0.408   4.915  0.4209  0.3643 -1.6791
65288SOL    HW2 3105   4.211   0.310   4.928 -0.1173  1.2933  1.6855
65289SOL     OW 3106   7.079  12.601   7.897  0.0608  0.0224  0.0473
65289SOL    HW1 3107   7.076  12.519   7.946  2.0387 -0.7611 -1.0624
65289SOL    HW2 3108   7.041  12.580   7.812  0.5366  0.2800 -0.2295
65290SOL     OW 3109   1.509   7.059   7.206 -0.2533 -0.2290  0.3168
65290SOL    HW1 3110   1.535   6.995   7.140 -0.7011 -0.7727  0.6518
65290SOL    HW2 3111   1.415   7.073   7.191  0.0652  1.2237 -0.4749
65291SOL     OW 3112   3.570  10.729   2.895 -0.1186 -0.3964  0.7093
65291SOL    HW1 3113   3.590  10.718   2.802 -0.8922 -2.6806  0.7472
65291SOL    HW2 3114   3.514  10.806   2.899  3.0776  2.2233 -0.1608
65292SOL     OW 3115   0.208   5.848  12.611  0.1038 -0.0754  0.2064
65292SOL    HW1 3116   0.302   5.836  12.604  0.1287  0.5077 -0.5987
65292SOL    HW2 3117   0.195   5.943  12.614 -0.3946 -0.1577  1.4727
65293SOL     OW 3118   4.732   4.729  12.125 -0.3756  0.8051 -0.5037
65293SOL    HW1 3119   4.795   4.752  12.056 -0.3977  1.1522 -0.4095
65293SOL    HW2 3120   4.657   4.786  12.109 -0.5178  0.6516 -0.3910
65294SOL     OW 3121  12.104   7.845  11.032 -0.2133 -0.2838 -0.4184
65294SOL    HW1 3122  12.112   7.812  11.121  1.2119 -0.0376 -0.4326
65294SOL    HW2 3123  12.045   7.784  10.989 -0.4560 -0.7415  0.5347
65295SOL     OW 3124   2.123  11.512   8.796 -0.5082 -0.2357  0.0132
65295SOL    HW1 3125   2.165  11.595   8.772  3.4461 -2.0858 -0.2544
65295SOL    HW2 3126   2.152  11.496   8.886 -1.0818 -1.3955  0.0093
65296SOL     OW 3127   7.670   5.347   0.189  0.1343  0.0996 -0.2767
65296SOL    HW1 3128   7.670   5.255   0.162 -0.0980 -0.3332  1.1330
65296SOL    HW2 3129   7.646   5.345   0.282  1.8482  1.4275  0.2557
65297SOL     OW 3130  10.112   4.209   0.036  0.4463  0.0486 -0.6873
65297SOL    HW1 3131  10.028   4.213   0.082  1.8067  1.5545  1.9536
65297SOL    HW2 3132  10.114   4.122  -0.004 -1.8998 -0.4292  0.0918
65298SOL     OW 3133   0.761   0.999   7.839 -0.1227  0.1174 -0.2057
65298SOL    HW1 3134   0.767   1.007   7.934 -1.1869  1.3517 -0.2142
65298SOL    HW2 3135   0.780   0.907   7.822 -1.3719 -0.4776  1.3487
65299SOL     OW 3136   9.384   6.744  10.470  0.0412 -0.0172 -0.0188
65299SOL    HW1 3137   9.293   6.756  10.443 -0.1494 -1.0182  0.1381
65299SOL    HW2 3138   9.434   6.746  10.388 -0.2494 -0.4884 -0.2145
65300SOL     OW 3139  11.581   5.333   8.200 -0.4877  0.2637  0.0832
65300SOL    HW1 3140  11.645   5.325   8.130  0.9185 -1.1597  1.4192
65300SOL    HW2 3141  11.610   5.408   8.252 -1.2599  1.0286 -0.5501
65301SOL     OW 3142   0.066   2.333   6.131  0.8686 -0.0546 -0.4680
65301SOL    HW1 3143   0.038   2.242   6.136 -0.5255  0.4153  1.3402
65301SOL    HW2 3144   0.065   2.363   6.222 -0.3013  2.2170 -1.1575
65302SOL     OW 3145   0.062   8.537   2.607  0.0399  0.0907  0.0911
65302SOL    HW1 3146   0.128   8.605   2.593  0.8976 -0.9139 -0.8879
65302SOL    HW2 3147   0.071   8.479   2.532 -1.9410 -0.1070 -0.0407
65303SOL     OW 3148   3.407  11.451  12.030  0.3854  0.4105 -0.2100
65303SOL    HW1 3149   3.410  11.459  11.934  1.5564  0.8669 -0.1472
65303SOL    HW2 3150   3.496  11.428  12.055  0.1870  0.7116  0.8081
65304SOL     OW 3151   7.742   8.727   7.062 -0.2888 -0.5546 -0.5365
65304SOL    HW1 3152   7.771   8.798   7.004 -0.8697  1.0335  1.0072
65304SOL    HW2 3153   7.772   8.647   7.019  3.2607  0.7448 -0.7977
65305SOL     OW 3154  10.174   3.460   4.776  0.3340  0.4436 -0.0316
65305SOL    HW1 3155  10.190   3.375   4.815  0.9248  1.4116  1.9712
65305SOL    HW2 3156  10.083   3.456   4.745  0.3584 -0.8789  0.0304
65306SOL     OW 3157   3.791   4.241   4.648 -0.4432 -0.0673 -0.3047
65306SOL    HW1 3158   3.771   4.202   4.563  0.3487  0.8600 -0.9318
65306SOL    HW2 3159   3.848   4.178   4.691  0.6382  0.2667 -1.2139
65307SOL     OW 3160   1.387   4.656   8.817  0.0698  0.6008 -0.2003
65307SOL    HW1 3161   1.414   4.711   8.744 -0.3599  1.6439  0.4024
65307SOL    HW2 3162   1.444   4.682   8.889 -0.3234  0.4545  0.1692
65308SOL     OW 3163   6.225   0.240   6.726 -0.3664  0.0798  0.7857
65308SOL    HW1 3164   6.298   0.180   6.710 -0.2190  0.4354  0.0784
65308SOL    HW2 3165   6.201   0.225   6.818  0.3743 -0.2811  0.9273
65309SOL     OW 3166  12.430  10.975  12.210 -0.3232 -0.0915  0.1392
65309SOL    HW1 3167  12.504  10.950  12.155 -0.3114  0.9623 -0.3698
65309SOL    HW2 3168  12.461  11.052  12.258 -1.0934  0.3952 -0.1245
65310SOL     OW 3169   6.053   0.357  11.441 -0.3796  0.3314  0.3571
65310SOL    HW1 3170   6.001   0.285  11.406  2.1045 -1.0274 -0.8149
65310SOL    HW2 3171   6.029   0.362  11.533 -1.8024 -0.8933  0.0840
65311SOL     OW 3172   8.432   4.277   9.367 -0.4098  0.5037  0.3345
65311SOL    HW1 3173   8.479   4.252   9.288 -1.4672 -0.4360 -0.0290
65311SOL    HW2 3174   8.348   4.230   9.361 -0.3946  0.1591  2.1633
65312SOL     OW 3175   6.653   6.191   4.949  0.2311  0.2486 -0.0061
65312SOL    HW1 3176   6.614   6.221   4.867  1.0802  1.1925 -0.0896
65312SOL    HW2 3177   6.720   6.128   4.921  0.0426  0.0371  0.0144
65313SOL     OW 3178   9.257  10.727   9.594  0.0347  0.0531 -0.2447
65313SOL    HW1 3179   9.190  10.697   9.533 -0.8340  0.7105  0.3578
65313SOL    HW2 3180   9.256  10.823   9.586  0.3662  0.1137  0.3232
65314SOL     OW 3181   4.051   8.842   2.164  0.0407 -0.2067  0.3834
65314SOL    HW1 3182   4.021   8.930   2.143 -0.9172 -0.1258  1.9105
65314SOL    HW2 3183   4.142   8.854   2.192  0.5114  0.0101 -1.1396
65315SOL     OW 3184   7.172   9.301   1.208  0.0873  0.4601 -0.3893
65315SOL    HW1 3185   7.205   9.215   1.182 -0.3263 -0.1698  1.0587
65315SOL    HW2 3186   7.250   9.351   1.231  0.3064  0.3770 -0.9294
65316SOL     OW 3187   4.934   4.804  10.099  0.1214 -0.3459  0.7422
65316SOL    HW1 3188   4.867   4.851  10.050  0.4221 -0.4068  0.2701
65316SOL    HW2 3189   4.901   4.803  10.189  0.1017  0.7373  0.7568
65317SOL     OW 3190   3.149   5.693  10.631 -0.1564  0.4958  0.2028
65317SOL    HW1 3191   3.108   5.702  10.545  0.5506 -0.8262 -0.2931
65317SOL    HW2 3192   3.212   5.622  10.621  2.0808  2.2536  1.0206
65318SOL     OW 3193   2.968   5.527  10.783  0.3927  0.1698 -0.2612
65318SOL    HW1 3194   3.026   5.596  10.750  0.9980 -0.9479 -1.6698
65318SOL    HW2 3195   3.002   5.446  10.743 -1.8021 -0.5966 -0.7060
65319SOL     OW 3196   3.465   4.449   4.848  0.3310  0.0954  0.4286
65319SOL    HW1 3197   3.508   4.403   4.920  0.7205 -0.4464 -0.1361
65319SOL    HW2 3198   3.517   4.528   4.835  0.1342  0.3047  0.8694
65320SOL     OW 3199   3.904   3.830   6.328  0.3316  0.3186 -0.3513
65320SOL    HW1 3200   3.902   3.890   6.253 -1.2605 -2.4781 -2.7359
65320SOL    HW2 3201   3.995   3.801   6.333  0.1515 -0.8220 -2.4707
65321SOL     OW 3202  12.641  10.242  12.460  0.4761 -0.4364  0.0491
65321SOL    HW1 3203  12.684  10.204  12.384  0.5090 -2.3899  0.9911
65321SOL    HW2 3204  12.702  10.225  12.533  0.2308  0.9688  0.6097
65322SOL     OW 3205   2.241   0.282   9.403 -0.4313 -0.3072 -0.4086
65322SOL    HW1 3206   2.150   0.256   9.418 -0.6755  0.4169 -0.6219
65322SOL    HW2 3207   2.254   0.357   9.460  0.0636 -0.4693 -0.3082
65323SOL     OW 3208   6.856  11.241  11.025 -0.4081 -0.2879 -0.0335
65323SOL    HW1 3209   6.777  11.231  11.078 -0.7527  0.8112 -0.3120
65323SOL    HW2 3210   6.900  11.317  11.061 -0.1787 -0.0812 -0.7350
65324SOL     OW 3211   8.948   3.702   9.976 -0.1636 -0.8599 -0.4384
65324SOL    HW1 3212   8.892   3.627   9.954 -0.7833 -0.2028 -1.1775
65324SOL    HW2 3213   9.018   3.700   9.911  0.5802 -1.5681  0.3666
65325SOL     OW 3214   4.157  12.481   4.063  0.9694  0.2274 -0.3730
65325SOL    HW1 3215   4.097  12.487   3.988  1.4468 -1.0717 -0.8744
65325SOL    HW2 3216   4.101  12.464   4.138  0.5903  0.4780 -0.5951
65326SOL     OW 3217   8.971   8.113   4.633 -0.0943 -0.5544 -0.7077
65326SOL    HW1 3218   9.062   8.129   4.657  0.0031 -1.3818 -0.4593
65326SOL    HW2 3219   8.954   8.024   4.666 -0.3807 -1.2009 -2.5058
65327SOL     OW 3220   8.856   3.978   6.766  0.0711  0.4372  0.2818
65327SOL    HW1 3221   8.931   3.920   6.776  0.8695  0.9350 -2.1727
65327SOL    HW2 3222   8.856   4.031   6.846  1.9671  0.0070  0.6176
65328SOL     OW 3223  11.267   7.177  12.137 -0.3046  0.4293  0.2327
65328SOL    HW1 3224  11.206   7.176  12.211  0.2447 -1.4954  0.7207
65328SOL    HW2 3225  11.259   7.090  12.098  0.9505  0.7024 -0.7034
65329SOL     OW 3226   6.871   4.525   4.774  0.0465 -0.0692 -0.2403
65329SOL    HW1 3227   6.801   4.554   4.716 -1.2697 -0.1611  1.2517
65329SOL    HW2 3228   6.951   4.557   4.732 -0.8889  0.3801 -1.7773
65330SOL     OW 3229  11.433   5.163   1.172  0.1276 -0.5782  0.4963
65330SOL    HW1 3230  11.457   5.125   1.087  0.4237 -1.7430  1.0809
65330SOL    HW2 3231  11.444   5.257   1.160  0.2987 -0.7316 -0.7137
65331SOL     OW 3232   6.271   6.593   6.832 -0.8499 -0.6276  0.9252
65331SOL    HW1 3233   6.201   6.552   6.882 -0.3659 -1.4020  0.9897
65331SOL    HW2 3234   6.303   6.524   6.774 -0.8225  0.0102  0.1577
65332SOL     OW 3235  12.512  12.146   5.020 -0.0214  0.0939 -0.2750
65332SOL    HW1 3236  12.537  12.191   5.101  1.6108  1.0879 -1.2547
65332SOL    HW2 3237  12.500  12.055   5.046  0.2754  0.4241  1.1277
65333SOL     OW 3238   9.471   1.844   8.769  0.1687  0.1614 -0.2197
65333SOL    HW1 3239   9.516   1.806   8.844  1.7533  0.0973 -1.1549
65333SOL    HW2 3240   9.399   1.784   8.751  0.6439 -0.6023  0.3636
65334SOL     OW 3241  10.694  11.164   3.502 -0.0715 -0.4490  0.2867
65334SOL    HW1 3242  10.713  11.231   3.568 -0.0462 -0.5447  0.3750
65334SOL    HW2 3243  10.725  11.203   3.420 -0.6665 -0.0739  0.2331
65335SOL     OW 3244  11.139   4.195   1.925  0.3891 -0.1649  0.3081
65335SOL    HW1 3245  11.204   4.135   1.961 -0.0872  0.5970  2.6986
65335SOL    HW2 3246  11.102   4.238   2.003 -1.3637  1.0514 -1.1184
65336SOL     OW 3247   9.580   5.879   2.115 -0.1415  0.6313 -0.1949
65336SOL    HW1 3248   9.535   5.927   2.185  0.2509  0.7254  0.0006
65336SOL    HW2 3249   9.665   5.924   2.108 -0.7983  1.6981 -1.8757
65337SOL     OW 3250   4.256   0.064   3.603  0.0572  0.3751 -0.3568
65337SOL    HW1 3251   4.290   0.117   3.675 -0.4636  0.0456  0.1405
65337SOL    HW2 3252   4.331   0.012   3.574  0.2464  0.4474  0.0009
65338SOL     OW 3253   0.688   4.046  12.549 -0.4570 -0.2934 -0.7389
65338SOL    HW1 3254   0.660   4.074  12.636  0.9595 -1.1996  0.0530
65338SOL    HW2 3255   0.636   3.968  12.531 -0.3167 -0.4618 -0.4192
65339SOL     OW 3256   0.684   4.740   7.498 -0.2065  0.6098  0.4724
65339SOL    HW1 3257   0.644   4.700   7.575  0.5987 -0.8223  0.1939
65339SOL    HW2 3258   0.706   4.666   7.442  1.4135  1.4426 -0.0558
65340SOL     OW 3259  10.277   5.158   9.797  0.0068  0.3347 -0.0335
65340SOL    HW1 3260  10.287   5.071   9.835  1.4033  0.4506 -0.0804
65340SOL    HW2 3261  10.251   5.142   9.706 -3.4227  0.0602  0.8560
65341SOL     OW 3262   3.470   2.684   4.971  0.4811 -0.2670  0.1987
65341SOL    HW1 3263   3.563   2.681   4.948  0.9521  1.0138  1.7343
65341SOL    HW2 3264   3.467   2.654   5.062 -0.7739 -1.3091 -0.1603
65342SOL     OW 3265   1.466   8.126   2.101 -0.0236  0.2902  0.4079
65342SOL    HW1 3266   1.515   8.046   2.080 -2.1018 -1.0730  0.4187
65342SOL    HW2 3267   1.502   8.192   2.043  0.1621 -1.2695 -1.3557
65343SOL     OW 3268   1.848   4.684   5.811 -0.3924  0.5087  0.5073
65343SOL    HW1 3269   1.852   4.667   5.905  0.3488  0.5956  0.4965
65343SOL    HW2 3270   1.772   4.633   5.781  0.8240 -1.5690  0.7494
65344SOL     OW 3271   4.503   7.307  10.673 -0.1831  0.4380 -0.0568
65344SOL    HW1 3272   4.555   7.233  10.705 -1.1752  0.3186  1.3794
65344SOL    HW2 3273   4.535   7.382  10.722  0.2872  0.8238 -0.9428
65345SOL     OW 3274   6.430  10.183  10.446  0.6190 -0.0581  0.1423
65345SOL    HW1 3275   6.489  10.118  10.408 -0.4106 -2.0806  1.8297
65345SOL    HW2 3276   6.435  10.168  10.540 -3.3140 -1.0656  0.3595
65346SOL     OW 3277   2.756   1.249  11.691  0.0216 -0.6531  0.0828
65346SOL    HW1 3278   2.778   1.309  11.619 -0.0710 -1.9339 -1.0701
65346SOL    HW2 3279   2.703   1.302  11.751  2.6500  1.3226  0.8241
65347SOL     OW 3280  11.054   8.337   6.750 -0.4662  0.3475  0.1583
65347SOL    HW1 3281  11.116   8.400   6.715 -1.8581  0.4236 -2.4249
65347SOL    HW2 3282  10.980   8.390   6.779  0.0344  0.1519  1.8948
65348SOL     OW 3283  11.380   3.207   8.463  0.0926  0.2231 -0.7074
65348SOL    HW1 3284  11.356   3.114   8.459 -0.5117  0.3686 -0.6572
65348SOL    HW2 3285  11.459   3.210   8.516 -0.5643 -0.1442  0.3279
65349SOL     OW 3286  11.490   8.451   4.117 -0.2840 -0.4178 -0.0426
65349SOL    HW1 3287  11.529   8.508   4.184  0.4463 -1.4364  0.4421
65349SOL    HW2 3288  11.548   8.460   4.042 -0.5049 -0.0793 -0.1758
65350SOL     OW 3289   7.308   5.882   6.995 -0.0898 -0.2037  0.2430
65350SOL    HW1 3290   7.267   5.903   6.911  0.9661 -1.8922 -0.7608
65350SOL    HW2 3291   7.240   5.900   7.060 -1.4539 -0.2928 -1.1037
65351SOL     OW 3292   1.260   2.110   9.825 -0.3734 -0.1762  0.0862
65351SOL    HW1 3293   1.300   2.116   9.912 -0.2180 -1.0623  0.0906
65351SOL    HW2 3294   1.308   2.174   9.772  1.1511 -1.2768  0.0649
65352SOL     OW 3295   2.119   2.130   8.173 -0.5073 -0.0329 -0.2528
65352SOL    HW1 3296   2.091   2.065   8.109 -0.8330 -0.0968 -0.0476
65352SOL    HW2 3297   2.051   2.129   8.240  0.5685 -1.1096  0.9104
65353SOL     OW 3298   6.083  12.011   3.105 -0.2020  0.1163 -0.1844
65353SOL    HW1 3299   5.989  11.996   3.117 -0.5822  1.8348 -0.7289
65353SOL    HW2 3300   6.093  12.025   3.011  0.4742  0.6772 -0.0357
65354SOL     OW 3301   8.609   7.076  12.576  0.3169 -0.6024 -0.3005
65354SOL    HW1 3302   8.663   7.071  12.498 -0.9237  0.0264 -1.2373
65354SOL    HW2 3303   8.580   7.168  12.579 -1.8179 -1.2170 -0.6353
65355SOL     OW 3304   2.366   0.389   7.471  0.2794 -0.1723 -0.1431
65355SOL    HW1 3305   2.350   0.320   7.536 -3.4499  1.7195  1.2194
65355SOL    HW2 3306   2.401   0.462   7.521  1.1852  0.0166 -1.0201
65356SOL     OW 3307  10.640   5.886   8.496 -0.3560  0.4436 -0.4400
65356SOL    HW1 3308  10.631   5.880   8.401 -0.1867 -0.7948 -0.3909
65356SOL    HW2 3309  10.654   5.796   8.524  1.7717  1.0227  0.5415
65357SOL     OW 3310   8.486   2.380   6.938  0.4430 -0.2079 -0.0440
65357SOL    HW1 3311   8.520   2.441   7.004 -1.2426 -0.4958  1.1615
65357SOL    HW2 3312   8.562   2.326   6.915  1.8785  1.9689 -0.7939
65358SOL     OW 3313   8.879   5.396  11.475  1.0781 -0.0499 -0.1533
65358SOL    HW1 3314   8.964   5.428  11.445  1.0255 -0.6294 -0.9599
65358SOL    HW2 3315   8.897   5.354  11.559  1.4442  0.5603  0.0745
65359SOL     OW 3316   0.314  10.701   7.367  0.1033  0.2419  0.0077
65359SOL    HW1 3317   0.256  10.723   7.440  0.0252  0.8534 -0.2323
65359SOL    HW2 3318   0.402  10.708   7.403  0.2695  3.6080 -0.6513
65360SOL     OW 3319   0.732   5.403   8.872  0.2746 -0.2283  0.8679
65360SOL    HW1 3320   0.793   5.444   8.932  0.6063 -1.3274  1.3129
65360SOL    HW2 3321   0.646   5.416   8.911  0.3279  0.3655  0.7990
65361SOL     OW 3322   8.407   4.416  11.250 -0.4817 -0.3677 -0.2577
65361SOL    HW1 3323   8.355   4.461  11.317 -0.0625  0.0350 -0.1978
65361SOL    HW2 3324   8.395   4.323  11.269 -0.8290 -0.2684  0.0242
65362SOL     OW 3325   3.460   9.949  12.087 -0.3721  0.1666 -0.0647
65362SOL    HW1 3326   3.424   9.860  12.081  1.4224 -0.5765 -0.5328
65362SOL    HW2 3327   3.409  10.000  12.024 -1.0733 -0.6556 -0.1870
65363SOL     OW 3328   8.459  12.658   7.359 -0.0345  0.4990 -1.1659
65363SOL    HW1 3329   8.407  12.705   7.423  0.6733 -0.4618  0.1647
65363SOL    HW2 3330   8.533  12.717   7.340 -0.8453  1.2763 -2.0181
65364SOL     OW 3331  10.966   1.933   5.281  0.1278  0.1615 -0.0041
65364SOL    HW1 3332  10.883   1.894   5.309  0.2095  1.6388  2.6594
65364SOL    HW2 3333  11.027   1.860   5.278 -1.1547 -0.8995 -1.6999
65365SOL     OW 3334   2.112  10.323  10.226  1.0252  0.8431 -0.2879
65365SOL    HW1 3335   2.097  10.334  10.320  1.3336 -0.3060 -0.0877
65365SOL    HW2 3336   2.083  10.406  10.187  0.9805  1.3662  0.8235
65366SOL     OW 3337  12.287   0.137   7.075  0.3308 -0.3126 -0.1803
65366SOL    HW1 3338  12.259   0.048   7.095  3.4095 -1.1969  0.7924
65366SOL    HW2 3339  12.254   0.190   7.147 -1.0446 -0.7345 -0.4778
65367SOL     OW 3340   8.139   6.696   4.479 -0.3538  0.5242  0.1803
65367SOL    HW1 3341   8.170   6.638   4.549 -2.0311 -0.3618  0.2516
65367SOL    HW2 3342   8.044   6.682   4.477 -0.7342  2.7278 -0.3222
65368SOL     OW 3343   7.179   7.683   1.967 -0.4006  0.0003  0.1105
65368SOL    HW1 3344   7.170   7.594   2.001  0.4425 -0.0041  0.3372
65368SOL    HW2 3345   7.166   7.675   1.873  1.0352 -0.5887 -0.0564
65369SOL     OW 3346   5.449   4.264  12.711 -0.4816  0.3393 -0.3940
65369SOL    HW1 3347   5.506   4.320  12.764  0.2581  0.3866 -1.2100
65369SOL    HW2 3348   5.474   4.284  12.620 -1.7129  0.2569 -0.7694
65370SOL     OW 3349   7.174   1.577   4.351 -0.4575 -0.5006 -0.3880
65370SOL    HW1 3350   7.141   1.633   4.281 -0.9755  0.6782  0.7513
65370SOL    HW2 3351   7.242   1.524   4.309 -0.6439  0.2740 -1.7399
65371SOL     OW 3352   6.713   4.714   3.769  0.2835  0.3851 -0.2291
65371SOL    HW1 3353   6.786   4.740   3.713  0.3822  0.5911 -0.0094
65371SOL    HW2 3354   6.719   4.773   3.844 -1.6043  2.1591 -1.3483
65372SOL     OW 3355   0.296   6.552   1.684 -0.5551 -0.2559 -0.2375
65372SOL    HW1 3356   0.261   6.553   1.774 -0.9803 -1.2528 -0.3778
65372SOL    HW2 3357   0.292   6.643   1.656  0.2162  0.1770  0.9967
65373SOL     OW 3358   1.119   5.329  11.517  0.2269  0.1319 -0.0095
65373SOL    HW1 3359   1.148   5.257  11.461 -0.0871 -0.7593  0.9597
65373SOL    HW2 3360   1.052   5.291  11.573 -0.7571  1.4538 -0.2368
65374SOL     OW 3361  11.112   3.679   7.548 -0.4522  0.2987 -0.5213
65374SOL    HW1 3362  11.156   3.696   7.631  1.5906 -0.5697 -1.3830
65374SOL    HW2 3363  11.028   3.641   7.574 -0.2792  0.9463  1.1489
65375SOL     OW 3364  12.687   4.569   4.816  0.2578  0.2067  0.2598
65375SOL    HW1 3365  12.644   4.521   4.745 -0.6258  1.2250  0.0825
65375SOL    HW2 3366  12.615   4.613   4.862  0.8692 -0.0275  1.4812
65376SOL     OW 3367   8.229   3.623   2.917 -0.4490  0.3676 -0.0131
65376SOL    HW1 3368   8.184   3.707   2.911 -1.9136 -0.2811  1.2872
65376SOL    HW2 3369   8.228   3.589   2.827 -0.5729  1.3597 -0.3944
65377SOL     OW 3370   7.832   2.567  11.663  0.1474  0.1618 -0.2361
65377SOL    HW1 3371   7.881   2.568  11.745 -1.4327  0.5647  0.7569
65377SOL    HW2 3372   7.740   2.564  11.690 -0.4621  1.4970 -1.9830
65378SOL     OW 3373   5.165   0.739   3.376  0.4002  0.1914 -0.1478
65378SOL    HW1 3374   5.238   0.762   3.319 -1.3468  0.9233 -2.2301
65378SOL    HW2 3375   5.134   0.654   3.343  1.0896 -0.8023  1.5965
65379SOL     OW 3376   3.504  12.313   2.329  0.5849  0.0732  0.1075
65379SOL    HW1 3377   3.567  12.244   2.310 -0.2920 -0.6441 -0.2164
65379SOL    HW2 3378   3.431  12.298   2.269 -1.2754 -0.9358  2.4558
65380SOL     OW 3379  11.778   4.699   6.279  0.6404 -0.2672  0.1514
65380SOL    HW1 3380  11.831   4.739   6.211 -0.2271 -2.3799 -1.9247
65380SOL    HW2 3381  11.730   4.771   6.318  4.1888  1.5996  1.4864
65381SOL     OW 3382   9.570   3.370   3.589 -0.3469 -0.3131  0.4757
65381SOL    HW1 3383   9.507   3.410   3.530  1.1523  1.2381 -0.1533
65381SOL    HW2 3384   9.626   3.317   3.533  0.4516  0.3429  0.6404
65382SOL     OW 3385   5.450  12.154   2.589  0.2333  0.2846  0.5688
65382SOL    HW1 3386   5.488  12.071   2.615  1.3061  0.8251  0.7751
65382SOL    HW2 3387   5.499  12.180   2.511 -0.0208  0.7738  0.5643
65383SOL     OW 3388   6.785   5.320   6.531 -0.1432 -0.0271  0.1661
65383SOL    HW1 3389   6.722   5.389   6.549  1.7507  1.7582  0.2797
65383SOL    HW2 3390   6.807   5.330   6.439  0.6995  0.0113  0.3655
65384SOL     OW 3391   6.598   4.858   1.264 -0.0742  0.5218  0.5564
65384SOL    HW1 3392   6.584   4.931   1.204 -1.2525  1.6756  2.1637
65384SOL    HW2 3393   6.689   4.867   1.292 -0.0051  0.9559  0.2042
65385SOL     OW 3394   2.293   3.306   5.992 -0.0783 -0.2517 -0.2641
65385SOL    HW1 3395   2.205   3.301   6.031 -0.3310 -0.9925 -0.8891
65385SOL    HW2 3396   2.352   3.312   6.067 -0.5233 -2.1127  0.2887
65386SOL     OW 3397   4.748   0.032   1.160  0.1295  0.4949  0.1802
65386SOL    HW1 3398   4.717  -0.033   1.097  0.0343  0.5382  0.1821
65386SOL    HW2 3399   4.837   0.054   1.131  1.4374 -1.9882  1.9897
65387SOL     OW 3400   7.275   0.132   0.502  0.1164 -0.3990  0.5105
65387SOL    HW1 3401   7.245   0.049   0.465  0.1383 -1.1362  2.0496
65387SOL    HW2 3402   7.228   0.199   0.454 -1.4864 -1.3962  0.6265
65388SOL     OW 3403   1.448   9.252   5.822 -0.0114 -0.1492  0.3930
65388SOL    HW1 3404   1.363   9.292   5.804 -0.0560 -0.4802 -0.1474
65388SOL    HW2 3405   1.436   9.208   5.906 -0.0717  0.6444  0.8157
65389SOL     OW 3406  11.358   1.337   0.037  0.0251 -0.5777  0.2058
65389SOL    HW1 3407  11.430   1.290   0.080 -0.3217 -0.2527  1.1900
65389SOL    HW2 3408  11.279   1.302   0.079 -0.2451  0.7947  0.9147
65390SOL     OW 3409   4.352   3.792   7.864  0.2448  0.6497 -0.2631
65390SOL    HW1 3410   4.290   3.722   7.883  0.3231  0.5475 -0.3810
65390SOL    HW2 3411   4.297   3.866   7.836  0.1554  0.6796 -0.0048
65391SOL     OW 3412  10.693   5.408   4.292  0.1625  0.0748 -0.1923
65391SOL    HW1 3413  10.620   5.470   4.293 -0.1780 -0.2621 -1.5568
65391SOL    HW2 3414  10.665   5.340   4.231  0.5088 -1.4685  1.3121
65392SOL     OW 3415   1.045   1.936  11.109 -0.4643 -0.1835 -0.2205
65392SOL    HW1 3416   1.042   1.876  11.034  1.8018  1.2620 -1.5744
65392SOL    HW2 3417   1.088   1.886  11.178 -1.5494 -1.1503 -0.2024
65393SOL     OW 3418   3.611  11.732   1.413  0.4531  0.5438 -0.4150
65393SOL    HW1 3419   3.595  11.641   1.388 -0.6901  0.7040 -0.3483
65393SOL    HW2 3420   3.690  11.757   1.366  1.3597 -0.7857  0.3493
65394SOL     OW 3421   6.600  11.269   5.315 -0.4425  0.1414  0.0882
65394SOL    HW1 3422   6.578  11.254   5.407 -0.1044  0.3889  0.2115
65394SOL    HW2 3423   6.617  11.181   5.280 -0.5156  0.0521  0.2734
65395SOL     OW 3424  12.119   1.648  11.600  0.1086 -0.0595  0.5411
65395SOL    HW1 3425  12.043   1.644  11.542  0.8853 -1.5273 -0.4291
65395SOL    HW2 3426  12.104   1.726  11.654 -0.4876  1.6040 -1.8515
65396SOL     OW 3427   4.332   8.798   0.494  0.1430 -0.1451  0.0748
65396SOL    HW1 3428   4.339   8.887   0.458 -1.8250 -0.4495 -1.2123
65396SOL    HW2 3429   4.398   8.748   0.446  0.2387  0.3008 -0.2675
65397SOL     OW 3430  11.757   5.490   9.157  0.2850 -0.4025 -0.0897
65397SOL    HW1 3431  11.808   5.539   9.221 -1.2872  1.0538  0.1175
65397SOL    HW2 3432  11.750   5.549   9.082 -1.4550 -0.3369  0.0731
65398SOL     OW 3433   3.273   0.708   9.852 -0.2312 -0.1665  0.2948
65398SOL    HW1 3434   3.227   0.679   9.773  1.0525  0.6380 -0.7897
65398SOL    HW2 3435   3.272   0.804   9.846 -2.6728  0.0989  2.7917
65399SOL     OW 3436   0.322   7.968   6.403 -0.1417  0.6233 -0.3570
65399SOL    HW1 3437   0.319   7.930   6.490  2.9007 -1.9023 -1.1475
65399SOL    HW2 3438   0.230   7.978   6.377 -1.1121 -1.4906  1.9222
65400SOL     OW 3439   2.170   1.194   2.150 -0.2790 -0.3070  0.4626
65400SOL    HW1 3440   2.196   1.103   2.165  1.3367  0.0795  0.1297
65400SOL    HW2 3441   2.251   1.239   2.125 -1.3043  0.9185 -0.8332
65401SOL     OW 3442  10.801  12.375   9.159  0.0467 -0.4750 -0.1814
65401SOL    HW1 3443  10.883  12.344   9.196  0.0644 -0.3823 -0.1431
65401SOL    HW2 3444  10.826  12.422   9.080  0.1605  0.8029  0.5928
65402SOL     OW 3445  12.544  10.779   4.659 -0.2446 -0.1306 -0.0926
65402SOL    HW1 3446  12.470  10.720   4.647  0.4911 -1.9177  3.0221
65402SOL    HW2 3447  12.510  10.848   4.717  0.3418 -0.7076  0.9715
65403SOL     OW 3448   8.011   6.218   0.861  0.4312 -0.7964 -0.7600
65403SOL    HW1 3449   7.922   6.207   0.895  0.2875 -1.1319 -1.2242
65403SOL    HW2 3450   8.047   6.129   0.860  0.6993 -0.6878 -0.7618
65404SOL     OW 3451   6.875  11.860   7.803  0.2258  0.4086 -0.0194
65404SOL    HW1 3452   6.922  11.851   7.886  2.1582  0.3074 -1.0813
65404SOL    HW2 3453   6.864  11.771   7.772  1.2916  0.5377 -0.8097
65405SOL     OW 3454   5.437   9.908  11.289  0.1738 -0.2711 -0.0845
65405SOL    HW1 3455   5.526   9.941  11.304  0.7622 -1.6540 -0.3477
65405SOL    HW2 3456   5.400   9.898  11.376  0.9890 -1.4937  0.1514
65406SOL     OW 3457   2.042   4.093  11.199  0.1065 -0.2379  0.3388
65406SOL    HW1 3458   1.978   4.106  11.269 -0.7328  1.2026 -0.6540
65406SOL    HW2 3459   1.989   4.073  11.122  0.7749  1.5508 -0.6359
65407SOL     OW 3460   4.633   5.094   2.396  0.5741  0.0033  0.1407
65407SOL    HW1 3461   4.618   5.183   2.427  0.5161 -0.7359  2.4240
65407SOL    HW2 3462   4.724   5.075   2.420  0.0239 -1.1695  1.4296
65408SOL     OW 3463  11.026   9.301   5.361 -0.3999 -0.2426  0.1105
65408SOL    HW1 3464  11.006   9.358   5.436 -0.2646 -0.4336  0.2902
65408SOL    HW2 3465  10.967   9.332   5.292  0.6613  1.0746 -0.2582
65409SOL     OW 3466   9.629  12.246   5.942 -0.1570 -0.2700  0.7059
65409SOL    HW1 3467   9.551  12.196   5.965  0.0827 -0.4206  1.1994
65409SOL    HW2 3468   9.697  12.181   5.928  0.1365 -0.0946  1.2763
65410SOL     OW 3469   0.220  10.975   1.045 -0.2874 -0.2175  0.0705
65410SOL    HW1 3470   0.281  11.048   1.059  1.3830 -1.2742 -1.2745
65410SOL    HW2 3471   0.243  10.911   1.112  0.3702 -0.7653 -0.6557
65411SOL     OW 3472   5.644   3.193  11.994 -0.4403  0.5216  0.1632
65411SOL    HW1 3473   5.551   3.193  12.013 -0.7228 -0.4202 -1.0917
65411SOL    HW2 3474   5.686   3.175  12.078 -1.2696  2.6728  1.0894
65412SOL     OW 3475   6.326   5.544   5.839 -0.8600  0.2780 -0.4711
65412SOL    HW1 3476   6.287   5.507   5.918  0.5152  1.3824  0.7912
65412SOL    HW2 3477   6.256   5.543   5.775 -2.3887  0.4138  1.1108
65413SOL     OW 3478   8.022   5.021   0.414 -0.3120  0.5057  0.1780
65413SOL    HW1 3479   8.033   5.108   0.376 -0.1523  0.8296  0.9526
65413SOL    HW2 3480   7.932   4.997   0.392 -0.9008  1.5526  1.3215
65414SOL     OW 3481   8.101  10.073   0.701 -0.6700  0.1392  0.1711
65414SOL    HW1 3482   8.120  10.043   0.612  0.6624 -1.3591  0.9278
65414SOL    HW2 3483   8.142  10.160   0.705  1.2133 -0.6885 -0.0239
65415SOL     OW 3484   1.799   2.880   2.819 -0.5591 -0.6831  0.0612
65415SOL    HW1 3485   1.794   2.935   2.742  0.6784 -0.6028  0.0121
65415SOL    HW2 3486   1.711   2.883   2.857 -1.3302 -1.1250 -1.5941
65416SOL     OW 3487   8.430   0.119   4.395 -0.3771 -0.5934 -0.5117
65416SOL    HW1 3488   8.338   0.096   4.405 -1.2782  1.7520 -2.4487
65416SOL    HW2 3489   8.438   0.207   4.432  0.9996 -0.6060 -0.7061
65417SOL     OW 3490   0.441   3.932   6.361  0.4388 -0.0559  0.0858
65417SOL    HW1 3491   0.353   3.968   6.366  0.8388  0.8856  0.6033
65417SOL    HW2 3492   0.432   3.843   6.396 -0.6225 -0.6336 -1.5485
65418SOL     OW 3493  11.135   2.593   6.493  0.0234  0.7969 -0.0505
65418SOL    HW1 3494  11.216   2.642   6.482 -0.1665  1.4499  1.3425
65418SOL    HW2 3495  11.151   2.537   6.569  0.7077 -2.3554 -2.3068
65419SOL     OW 3496   1.006   0.088  12.400  0.3889 -0.7142 -0.2958
65419SOL    HW1 3497   0.935   0.029  12.377 -0.7387 -0.0243  1.1984
65419SOL    HW2 3498   1.008   0.087  12.496  3.1159 -1.5188 -0.2601
65420SOL     OW 3499   0.951   2.210   1.510  0.3303  0.1633 -0.2809
65420SOL    HW1 3500   0.945   2.114   1.509  1.9509  0.0274  0.3625
65420SOL    HW2 3501   0.927   2.235   1.599  0.3748  0.3253 -0.3141
65421SOL     OW 3502   7.183  11.459   6.829  0.1579  0.6475  0.1076
65421SOL    HW1 3503   7.156  11.513   6.755 -0.5892  0.5027  0.2628
65421SOL    HW2 3504   7.262  11.414   6.799  1.5755  2.7916  0.4233
65422SOL     OW 3505   8.823   9.910   8.246 -0.0969 -0.2607 -0.2225
65422SOL    HW1 3506   8.911   9.946   8.247 -0.6427  1.1165 -0.1116
65422SOL    HW2 3507   8.766   9.985   8.258 -1.3226 -1.0464 -0.9321
65423SOL     OW 3508  10.020   0.589  10.868 -0.5111  0.1488 -0.2293
65423SOL    HW1 3509  10.098   0.550  10.907 -0.2435  1.6811  0.8712
65423SOL    HW2 3510   9.966   0.614  10.943 -1.1007  0.9869 -0.9161
65424SOL     OW 3511   5.434   1.218   6.273  0.2579 -0.3000  0.8610
65424SOL    HW1 3512   5.506   1.250   6.219 -1.4011 -0.4263 -1.6246
65424SOL    HW2 3513   5.438   1.270   6.353  2.5970  0.2214  0.4603
65425SOL     OW 3514   5.928  11.518  11.534 -0.1277 -0.4841 -0.3167
65425SOL    HW1 3515   5.839  11.495  11.561  0.2110 -0.9649  0.4388
65425SOL    HW2 3516   5.939  11.478  11.448  0.5261 -3.4841  1.0542
65426SOL     OW 3517   6.599   6.182   0.168 -0.0462  0.6763  0.1252
65426SOL    HW1 3518   6.637   6.103   0.208 -2.1766 -1.5317 -1.8291
65426SOL    HW2 3519   6.668   6.216   0.111  0.8916  0.1893  0.9356
65427SOL     OW 3520  12.398   7.410   9.836 -0.4790 -0.1771 -0.0517
65427SOL    HW1 3521  12.429   7.499   9.855  0.8445 -0.6924  0.3199
65427SOL    HW2 3522  12.375   7.374   9.922 -2.3960  0.2465 -0.3250
65428SOL     OW 3523   8.284   1.779   1.452  0.2196  0.0609 -0.7841
65428SOL    HW1 3524   8.353   1.845   1.460  0.9066 -0.7787  0.8060
65428SOL    HW2 3525   8.207   1.820   1.492  0.3084  0.3474 -0.9063
65429SOL     OW 3526  10.044  11.841   3.064 -0.1190 -0.2176 -0.0628
65429SOL    HW1 3527  10.087  11.912   3.017  0.0637  0.7999  1.5837
65429SOL    HW2 3528  10.080  11.845   3.152 -2.0825 -0.6414  0.8023
65430SOL     OW 3529  12.255   2.456   5.659  0.3527  0.2114  0.1096
65430SOL    HW1 3530  12.239   2.403   5.737 -0.5430 -0.6720 -0.6456
65430SOL    HW2 3531  12.336   2.420   5.622  0.9923  0.8859  0.8229
65431SOL     OW 3532  12.642   6.579   1.752 -0.8606  0.2163 -0.2761
65431SOL    HW1 3533  12.658   6.491   1.719 -1.3656  0.4003 -1.0351
65431SOL    HW2 3534  12.564   6.571   1.807 -1.3785  0.3189 -0.9756
65432SOL     OW 3535   7.988   9.866  10.771  0.1843  0.3538 -0.2337
65432SOL    HW1 3536   7.929   9.799  10.737 -0.6326 -0.0697  1.8515
65432SOL    HW2 3537   8.074   9.824  10.772 -0.0092 -0.0584 -0.5576
65433SOL     OW 3538   6.672   3.364  12.287  0.3633  0.0323  0.0569
65433SOL    HW1 3539   6.635   3.450  12.309 -1.1221 -0.6544  0.3457
65433SOL    HW2 3540   6.696   3.326  12.372 -3.2193 -1.6598  0.4754
65434SOL     OW 3541  10.940   7.672   4.863  0.3219 -0.4695 -0.5285
65434SOL    HW1 3542  10.990   7.744   4.902 -0.1924 -1.2449  1.7391
65434SOL    HW2 3543  10.852   7.682   4.899 -0.0688 -1.5377 -1.1470
65435SOL     OW 3544   7.618   9.150   9.955  0.2429  0.4739 -0.6392
65435SOL    HW1 3545   7.681   9.223   9.965 -0.5911  0.9997  1.0792
65435SOL    HW2 3546   7.561   9.157  10.031 -0.6017 -1.2947 -1.0696
65436SOL     OW 3547   9.862   8.548   4.074 -0.4860 -0.1988  0.2807
65436SOL    HW1 3548   9.773   8.554   4.107 -1.7671  3.1146 -3.1163
65436SOL    HW2 3549   9.909   8.618   4.120  0.2215 -1.3370  1.3766
65437SOL     OW 3550   9.796   3.094  10.106  0.7253  0.5712  0.0536
65437SOL    HW1 3551   9.876   3.138  10.133  0.9969  0.8111 -1.0916
65437SOL    HW2 3552   9.742   3.092  10.185  1.9325  0.2213  0.8918
65438SOL     OW 3553  11.660   3.556   8.849  0.3780  0.4153  0.1989
65438SOL    HW1 3554  11.719   3.621   8.887 -0.0647  0.9638 -0.0405
65438SOL    HW2 3555  11.664   3.572   8.755 -0.4411  0.7141  0.2067
65439SOL     OW 3556   1.760  10.240  12.354 -0.1581 -0.2317 -0.1808
65439SOL    HW1 3557   1.785  10.154  12.386  1.2137  1.0530  2.5448
65439SOL    HW2 3558   1.773  10.298  12.429 -1.7655  2.2432 -1.6757
65440SOL     OW 3559  11.156   1.657   6.009  0.3598 -0.1568 -0.0462
65440SOL    HW1 3560  11.226   1.594   5.996  0.1293 -0.7434  1.3487
65440SOL    HW2 3561  11.079   1.616   5.970  0.0961 -1.0118  1.2987
65441SOL     OW 3562   2.990   5.555   1.234 -0.1700 -0.0541  0.2928
65441SOL    HW1 3563   3.023   5.636   1.272  1.3958 -0.8033  0.6185
65441SOL    HW2 3564   2.969   5.500   1.309 -0.1009 -0.3737  0.0813
65442SOL     OW 3565   5.344   7.182   4.162 -0.0571  0.0108 -0.0175
65442SOL    HW1 3566   5.412   7.190   4.095  0.3761  1.0147  0.5155
65442SOL    HW2 3567   5.315   7.272   4.177 -0.0584 -0.1810  1.2177
65443SOL     OW 3568   5.453   2.082   1.539  0.0132 -0.0374 -0.1230
65443SOL    HW1 3569   5.477   2.119   1.454 -0.0639  0.0726 -0.0961
65443SOL    HW2 3570   5.537   2.057   1.579  0.1008  0.5745  0.0774
65444SOL     OW 3571   0.795   5.566   7.582  0.5068  0.0411 -0.0908
65444SOL    HW1 3572   0.832   5.604   7.502 -0.1723  1.1845  0.1123
65444SOL    HW2 3573   0.710   5.608   7.591 -0.0765 -1.1991  0.4364
65445SOL     OW 3574   3.117   8.465   0.520  0.7330 -0.1756  0.3310
65445SOL    HW1 3575   3.175   8.389   0.523 -0.8807 -1.4342  1.3297
65445SOL    HW2 3576   3.076   8.467   0.606  1.2244  2.2782  0.5741
65446SOL     OW 3577   2.332   3.991  10.838 -0.9335  0.7747  0.0854
65446SOL    HW1 3578   2.425   3.987  10.862 -0.6683  2.2828 -0.5641
65446SOL    HW2 3579   2.298   4.066  10.887 -1.3616  1.3603 -1.0636
65447SOL     OW 3580   4.055  11.523   9.631  0.2722 -0.3055 -0.3199
65447SOL    HW1 3581   4.088  11.606   9.598  1.1015 -0.7564 -0.6758
65447SOL    HW2 3582   4.071  11.461   9.560  0.2673 -0.8946  0.1783
65448SOL     OW 3583   4.209  10.732   1.117  0.2554 -0.3166 -0.5811
65448SOL    HW1 3584   4.211  10.682   1.199  0.3000  0.0503 -0.3575
65448SOL    HW2 3585   4.133  10.790   1.126  1.4580  1.2453  0.1162
65449SOL     OW 3586   1.952   3.554   8.559 -0.0174 -0.0258  0.4767
65449SOL    HW1 3587   1.881   3.549   8.623 -0.8441 -0.9560 -0.4640
65449SOL    HW2 3588   1.910   3.536   8.475  1.3258 -0.6382 -0.1063
65450SOL     OW 3589   3.396  10.954  10.725  0.1640 -0.3965 -0.3805
65450SOL    HW1 3590   3.460  11.008  10.772  0.3865  0.2288 -1.3727
65450SOL    HW2 3591   3.446  10.914  10.654 -0.7895  1.2730 -2.0963
65451SOL     OW 3592   1.253   8.285   6.332 -0.0864 -0.0595  0.9138
65451SOL    HW1 3593   1.219   8.350   6.394  2.6891  1.1278  1.3386
65451SOL    HW2 3594   1.279   8.336   6.255 -1.2691 -1.2170 -0.3147
65452SOL     OW 3595   1.488   7.352   7.158 -0.0155 -0.0379 -0.1543
65452SOL    HW1 3596   1.455   7.374   7.246 -0.6113  0.5338 -0.5096
65452SOL    HW2 3597   1.502   7.258   7.161 -1.6580 -0.3054  0.0513
65453SOL     OW 3598   4.880   2.715   6.194  0.4288  0.6456 -0.1525
65453SOL    HW1 3599   4.913   2.742   6.108 -0.6411 -0.3575 -0.9161
65453SOL    HW2 3600   4.787   2.740   6.193  0.3131  0.2725  0.5526
65454SOL     OW 3601   2.933   1.523  11.746  0.3450  0.0727 -0.2337
65454SOL    HW1 3602   2.880   1.485  11.676  0.1507 -0.2105  0.0647
65454SOL    HW2 3603   3.023   1.516  11.715  0.2414  0.1455 -0.5472
65455SOL     OW 3604   1.316   6.932  11.159 -0.1134 -0.3574 -0.0663
65455SOL    HW1 3605   1.393   6.892  11.118 -0.3418 -1.1473  0.2511
65455SOL    HW2 3606   1.291   7.003  11.100 -0.7391 -1.7924 -1.5919
65456SOL     OW 3607  11.238   2.672   8.173  0.2052 -0.7364 -0.3660
65456SOL    HW1 3608  11.154   2.709   8.198  0.2520 -1.4459  0.9428
65456SOL    HW2 3609  11.285   2.661   8.256  1.0327 -1.6654 -0.9334
65457SOL     OW 3610   4.523   2.767   9.813  0.1049 -0.1468  0.0413
65457SOL    HW1 3611   4.606   2.807   9.788  0.8221 -1.2478  0.5768
65457SOL    HW2 3612   4.536   2.674   9.796 -0.3489 -0.5684  1.8620
65458SOL     OW 3613  11.253   6.929   8.592  0.6257  0.4348  0.4466
65458SOL    HW1 3614  11.252   7.020   8.563 -0.3655 -0.3952 -2.5540
65458SOL    HW2 3615  11.168   6.916   8.634  0.2526  0.6157 -0.2373
65459SOL     OW 3616   0.959   2.541   6.468  0.0498  0.0965 -0.2738
65459SOL    HW1 3617   0.921   2.584   6.392 -0.4109 -0.9369 -0.6457
65459SOL    HW2 3618   0.926   2.451   6.464 -0.4785  0.1734  1.4814
65460SOL     OW 3619   5.568  10.947   6.577 -0.2266  0.0061 -0.1256
65460SOL    HW1 3620   5.650  10.958   6.626  0.0756  2.2269 -1.0300
65460SOL    HW2 3621   5.595  10.908   6.494 -0.3158 -0.6737  0.1537
65461SOL     OW 3622  10.804  10.819   1.775 -0.4418 -0.4912 -0.4431
65461SOL    HW1 3623  10.729  10.850   1.826  0.0451 -0.5967  0.3591
65461SOL    HW2 3624  10.784  10.844   1.685 -1.3614 -0.3736 -0.2144
65462SOL     OW 3625   4.855  10.975  11.455 -0.1567  0.2959  0.6181
65462SOL    HW1 3626   4.860  11.026  11.374 -0.2048  0.8655  0.9728
65462SOL    HW2 3627   4.799  11.027  11.513  1.3775  0.8000  1.6890
65463SOL     OW 3628  11.381   0.002   2.380  0.0466 -0.7190  0.4624
65463SOL    HW1 3629  11.313   0.051   2.334  1.1925 -0.2735 -0.8190
65463SOL    HW2 3630  11.461   0.053   2.367  0.8787 -1.8793  0.8475
65464SOL     OW 3631   2.639   5.350   5.028 -0.0374  0.1495 -0.7227
65464SOL    HW1 3632   2.683   5.290   4.968  0.3778 -1.2165  0.8551
65464SOL    HW2 3633   2.557   5.306   5.049  0.5771 -0.2540  0.9900
65465SOL     OW 3634  10.911  10.302   5.551  0.0717 -0.6128 -0.3777
65465SOL    HW1 3635  10.884  10.393   5.553 -0.5224 -0.7391  2.9848
65465SOL    HW2 3636  10.831  10.252   5.569  0.4731 -1.8213 -1.6829
65466SOL     OW 3637   8.951  10.786   0.188 -0.8497  0.1356 -0.3424
65466SOL    HW1 3638   8.873  10.781   0.243 -1.3119  0.9385 -0.9103
65466SOL    HW2 3639   9.024  10.790   0.250 -1.2328 -0.7423  0.1936
65467SOL     OW 3640   5.561   4.994  10.630 -0.0005 -0.2344 -0.2728
65467SOL    HW1 3641   5.470   4.987  10.659 -0.6452  2.2281 -1.4284
65467SOL    HW2 3642   5.578   4.913  10.582 -1.7068 -0.5796 -0.3304
65468SOL     OW 3643   6.064   3.669   3.809  0.4366  0.1054 -0.1150
65468SOL    HW1 3644   6.095   3.609   3.877  0.1904 -1.3734 -1.2586
65468SOL    HW2 3645   5.973   3.643   3.794  0.3223  0.7836 -0.6272
65469SOL     OW 3646   3.439   4.056  10.915 -0.2108 -0.0137  0.0546
65469SOL    HW1 3647   3.384   4.057  10.994 -2.4166  1.3331 -1.3727
65469SOL    HW2 3648   3.446   3.964  10.891 -3.8679 -0.1966 -0.9000
65470SOL     OW 3649   0.145  11.342   9.980 -0.4869  0.2404  0.3583
65470SOL    HW1 3650   0.124  11.343   9.887 -0.5111  0.2134  0.3639
65470SOL    HW2 3651   0.241  11.341   9.983 -0.4578 -1.7973  0.2971
65471SOL     OW 3652  12.316   4.988  11.459 -0.4943 -0.5756  0.4491
65471SOL    HW1 3653  12.229   5.023  11.440 -0.3192  0.4061  1.3379
65471SOL    HW2 3654  12.372   5.066  11.464  0.3476 -1.1599  0.3659
65472SOL     OW 3655   5.986   8.933   1.104 -0.4333 -0.3099  0.0073
65472SOL    HW1 3656   6.074   8.970   1.108  0.2057 -1.6157 -1.2836
65472SOL    HW2 3657   5.944   8.963   1.185  0.7125  1.4748 -0.0098
65473SOL     OW 3658   6.486   5.977   3.725 -0.0455  0.4519 -0.0694
65473SOL    HW1 3659   6.445   6.062   3.704 -1.0198  0.1018  0.3363
65473SOL    HW2 3660   6.510   5.984   3.817  0.3205  0.4593 -0.1648
65474SOL     OW 3661   1.535   1.978   8.940 -0.3523  0.0497 -0.4123
65474SOL    HW1 3662   1.524   2.072   8.957  1.0681  0.3408 -0.9640
65474SOL    HW2 3663   1.468   1.936   8.994 -0.2709  1.3196  0.7416
65475SOL     OW 3664   9.042   6.087   8.579 -0.4008 -0.1700  0.1614
65475SOL    HW1 3665   9.121   6.041   8.552 -0.9889 -2.1333  1.5808
65475SOL    HW2 3666   9.068   6.134   8.659 -0.2411  0.6550 -0.3595
65476SOL     OW 3667   7.784   9.704   6.138 -0.0689 -0.0361 -0.4411
65476SOL    HW1 3668   7.757   9.665   6.221  1.9681  1.4464  1.0039
65476SOL    HW2 3669   7.814   9.629   6.085 -0.5073 -0.8885  0.4871
65477SOL     OW 3670   4.281   5.265  10.654 -0.0905  0.5669 -0.0151
65477SOL    HW1 3671   4.220   5.223  10.715  1.0437 -0.0725  0.7329
65477SOL    HW2 3672   4.255   5.357  10.653 -0.1120  0.6134  1.5289
65478SOL     OW 3673   9.995   2.435   8.590  0.1291 -0.4783 -0.0473
65478SOL    HW1 3674   9.948   2.415   8.672  1.4492  0.1836  0.9172
65478SOL    HW2 3675  10.069   2.490   8.618  0.3792  0.1189 -1.7487
65479SOL     OW 3676   2.042   4.783   2.994 -0.2474  0.3005 -0.2102
65479SOL    HW1 3677   2.072   4.735   3.071 -1.0532  1.1843  0.6870
65479SOL    HW2 3678   1.973   4.841   3.028 -0.0471  1.2942 -1.4493
65480SOL     OW 3679   5.716   4.627   1.724 -0.1266  0.3779 -0.1928
65480SOL    HW1 3680   5.645   4.644   1.786  0.4730  0.2865  0.5250
65480SOL    HW2 3681   5.686   4.668   1.643 -0.9398  0.4598  0.1350
65481SOL     OW 3682   7.832   4.997  10.070  0.3353  0.0554 -0.3336
65481SOL    HW1 3683   7.759   5.038  10.118  0.9208  0.0888  0.5500
65481SOL    HW2 3684   7.898   5.066  10.064  2.1588 -1.1843  2.9057
65482SOL     OW 3685   0.334  12.408   8.882 -0.5401 -0.3345  0.0244
65482SOL    HW1 3686   0.409  12.360   8.845 -0.1749  0.0448  0.2720
65482SOL    HW2 3687   0.334  12.492   8.835 -0.4674 -0.1092  0.4254
65483SOL     OW 3688   4.730   6.872   5.975 -0.3352 -0.5826  0.1379
65483SOL    HW1 3689   4.643   6.896   6.005 -0.1943 -0.7768  0.7042
65483SOL    HW2 3690   4.754   6.796   6.028  0.8029  0.3858  1.0626
65484SOL     OW 3691   9.454   8.455   4.027 -0.2106  0.0756 -0.3472
65484SOL    HW1 3692   9.515   8.384   4.006 -1.3976 -0.7943 -0.9211
65484SOL    HW2 3693   9.492   8.497   4.105 -0.1703 -2.0329  0.8384
65485SOL     OW 3694   1.517   7.145   3.473  0.1772  0.1925  0.0182
65485SOL    HW1 3695   1.543   7.175   3.386  0.6009 -1.3155 -0.4112
65485SOL    HW2 3696   1.581   7.077   3.495 -0.7095 -0.3852  0.9265
65486SOL     OW 3697   5.689  11.922  10.831 -0.4188 -0.0527 -0.3038
65486SOL    HW1 3698   5.754  11.858  10.859  0.2310  0.7360  0.0498
65486SOL    HW2 3699   5.621  11.871  10.788 -0.2094 -1.0320  0.5070
65487SOL     OW 3700   1.721   5.055   4.576  0.5090  0.2850 -0.1263
65487SOL    HW1 3701   1.720   5.031   4.669  0.7250  2.0440  0.3775
65487SOL    HW2 3702   1.628   5.064   4.552  0.3834 -1.8027 -0.5820
65488SOL     OW 3703  11.328   9.641   9.714  0.8135  0.1624 -0.3618
65488SOL    HW1 3704  11.312   9.716   9.771  0.8514  0.1968 -0.3965
65488SOL    HW2 3705  11.298   9.566   9.764 -1.5649  0.4136 -1.2673
65489SOL     OW 3706   0.453   2.947   4.370  0.4534  0.2817 -0.0111
65489SOL    HW1 3707   0.474   2.960   4.463  0.4205 -0.6157  0.1324
65489SOL    HW2 3708   0.537   2.926   4.330  0.6020  1.4237 -0.3461
65490SOL     OW 3709  11.650  12.027   4.374 -0.4490  0.2034  0.1015
65490SOL    HW1 3710  11.566  12.004   4.414  0.2438 -0.5290  1.1894
65490SOL    HW2 3711  11.671  12.113   4.411  0.4786 -0.7277  1.8927
65491SOL     OW 3712   8.602   2.094  12.705 -0.7944  0.0800  0.9253
65491SOL    HW1 3713   8.549   2.068  12.780 -2.5291  0.5163 -0.1098
65491SOL    HW2 3714   8.583   2.187  12.693  1.1209  0.5587  1.2122
65492SOL     OW 3715  10.664   0.017  12.532 -0.7443  0.0420 -0.1310
65492SOL    HW1 3716  10.583  -0.033  12.541 -0.8312  0.4014  1.4720
65492SOL    HW2 3717  10.662   0.079  12.605  0.6213  0.5601 -0.4997
65493SOL     OW 3718   4.171  10.003   3.369 -0.3012 -0.6286 -0.2207
65493SOL    HW1 3719   4.100   9.958   3.415 -0.9504  0.1140 -0.4795
65493SOL    HW2 3720   4.250   9.954   3.394 -0.8454 -1.2369  0.3678
65494SOL     OW 3721   0.223   8.530   9.570  0.0541 -0.2301  0.0854
65494SOL    HW1 3722   0.155   8.516   9.504  0.2369  0.7373 -0.3301
65494SOL    HW2 3723   0.193   8.608   9.618  0.4122 -0.3441  0.4938
65495SOL     OW 3724  12.025   6.765   3.381  0.6744 -0.0317  0.1927
65495SOL    HW1 3725  11.989   6.854   3.376 -0.3012 -0.4546 -0.8316
65495SOL    HW2 3726  12.025   6.744   3.474  0.2411  0.7793  0.3851
65496SOL     OW 3727   9.449  12.140   1.268 -0.2387 -0.0748  0.1794
65496SOL    HW1 3728   9.411  12.219   1.232  0.5143  0.7195  1.0720
65496SOL    HW2 3729   9.379  12.100   1.319 -0.2470  0.7133  0.7973
65497SOL     OW 3730   5.366   3.517   4.813  0.1380  0.0216  0.2393
65497SOL    HW1 3731   5.435   3.572   4.778  0.8072 -0.3056  1.0119
65497SOL    HW2 3732   5.291   3.575   4.823  0.1596  0.2791 -1.0102
65498SOL     OW 3733   7.237   7.587  10.439  0.1708 -0.0411  0.4990
65498SOL    HW1 3734   7.296   7.636  10.497  1.0132  2.3097 -2.1407
65498SOL    HW2 3735   7.150   7.603  10.475  0.7263  0.4599  1.6956
65499SOL     OW 3736  11.104   6.681   0.633 -0.3130 -0.4949 -0.2719
65499SOL    HW1 3737  11.151   6.757   0.666 -1.0985 -0.6208  1.2062
65499SOL    HW2 3738  11.165   6.640   0.571  1.6712 -0.8398  1.7927
65500SOL     OW 3739   1.680   7.072   9.923 -0.4747 -0.2946 -0.0333
65500SOL    HW1 3740   1.616   7.020   9.876  0.0965 -0.0894 -1.0608
65500SOL    HW2 3741   1.629   7.144   9.961 -0.7410  0.3510 -1.5572
65501SOL     OW 3742   3.739   2.462   3.969  0.1169 -0.1321  0.1271
65501SOL    HW1 3743   3.743   2.393   4.034 -0.0985 -2.0815 -1.8044
65501SOL    HW2 3744   3.816   2.447   3.914  0.1265  1.2553 -0.2799
65502SOL     OW 3745  11.980   5.931   8.860 -0.5326  0.1910  0.4497
65502SOL    HW1 3746  12.069   5.939   8.825 -0.5864  0.5976  0.4087
65502SOL    HW2 3747  11.933   5.881   8.793 -0.2706 -0.2509  0.5886
65503SOL     OW 3748   8.801   1.454   1.591  0.2017 -0.3902 -0.3130
65503SOL    HW1 3749   8.891   1.486   1.588 -0.6030  1.9621 -1.1205
65503SOL    HW2 3750   8.748   1.532   1.604 -1.6981 -1.8454  1.4790
65504SOL     OW 3751   8.205   8.853   5.868  0.5319  0.0409  0.1137
65504SOL    HW1 3752   8.246   8.939   5.870  0.4867  0.0493  0.9523
65504SOL    HW2 3753   8.274   8.794   5.837  0.8504  0.2306  0.4558
65505SOL     OW 3754  11.319   3.216   6.248 -0.0193 -0.4959  0.2490
65505SOL    HW1 3755  11.298   3.280   6.316  0.9816  0.2779 -0.1505
65505SOL    HW2 3756  11.329   3.134   6.295  2.1316  0.2880  1.3112
65506SOL     OW 3757   9.148  12.279  10.939 -0.2936  0.1508 -1.2446
65506SOL    HW1 3758   9.110  12.344  10.880  0.4820  1.4419 -0.3642
65506SOL    HW2 3759   9.095  12.200  10.926 -1.3691  1.0121 -2.1948
65507SOL     OW 3760  10.726  11.058  12.234 -0.6304 -0.4271 -0.0233
65507SOL    HW1 3761  10.778  11.105  12.168 -1.3826  1.6174  0.7563
65507SOL    HW2 3762  10.781  11.057  12.312 -0.9429 -0.1285  0.2000
65508SOL     OW 3763  11.002   9.532   9.698  0.1753 -0.0578 -0.0793
65508SOL    HW1 3764  11.014   9.472   9.771  0.9219  0.6612  0.4147
65508SOL    HW2 3765  11.032   9.484   9.621 -2.7517 -1.6599 -0.3286
65509SOL     OW 3766   2.289   1.439   4.944 -0.1697 -0.1813  0.3318
65509SOL    HW1 3767   2.340   1.517   4.924  0.5487 -0.9090 -0.7676
65509SOL    HW2 3768   2.239   1.422   4.864 -1.0811 -0.2890  0.9119
65510SOL     OW 3769  12.444   1.234   7.433  0.3051  0.2879 -0.6039
65510SOL    HW1 3770  12.369   1.195   7.479 -0.1094  1.1233 -0.5335
65510SOL    HW2 3771  12.436   1.328   7.453  0.6120  0.5517 -1.6917
65511SOL     OW 3772   4.282   2.038   1.627 -0.3927  0.1874  0.3434
65511SOL    HW1 3773   4.354   2.014   1.685  1.9201  1.2122 -1.9439
65511SOL    HW2 3774   4.214   2.072   1.686  1.5173  0.4927  2.4930
65512SOL     OW 3775   9.507   6.525   6.471 -0.0963  0.0459 -0.2978
65512SOL    HW1 3776   9.525   6.616   6.493  1.9005 -0.1329 -1.0043
65512SOL    HW2 3777   9.462   6.529   6.387  2.5232  0.3654 -1.7969
65513SOL     OW 3778   9.029   0.462   5.143  0.3098 -0.0418 -0.4824
65513SOL    HW1 3779   9.008   0.374   5.176 -1.3381  0.7154  0.6295
65513SOL    HW2 3780   8.988   0.521   5.205  0.3399  1.5206 -1.8813
65514SOL     OW 3781   1.869   8.119   9.414  0.0614  0.7021  0.3210
65514SOL    HW1 3782   1.839   8.196   9.462  0.1924  0.5454  0.6576
65514SOL    HW2 3783   1.955   8.099   9.452  0.2198  0.6546 -0.0657
65515SOL     OW 3784   8.720  10.911   3.218 -0.5078  0.0775  0.0508
65515SOL    HW1 3785   8.793  10.867   3.175 -1.5384  0.2552 -2.0012
65515SOL    HW2 3786   8.760  10.984   3.264  0.6913 -0.2648 -0.4004
65516SOL     OW 3787  11.239   3.308  10.787  0.1224 -0.0705 -0.4960
65516SOL    HW1 3788  11.275   3.315  10.698 -2.2628 -1.9024 -1.7378
65516SOL    HW2 3789  11.179   3.382  10.795  0.2844  0.0546 -0.4348
65517SOL     OW 3790  11.828  12.143   6.091  0.0750  0.3016 -0.2272
65517SOL    HW1 3791  11.796  12.075   6.150 -0.4046 -0.2689 -1.1176
65517SOL    HW2 3792  11.869  12.095   6.019  0.6988  0.9800 -0.3299
65518SOL     OW 3793   0.122   5.015   9.267  0.4357 -0.2961  0.1248
65518SOL    HW1 3794   0.123   4.942   9.204 -0.3288 -0.6142  0.4586
65518SOL    HW2 3795   0.206   5.010   9.311  0.8775 -0.2292 -0.6990
65519SOL     OW 3796   4.926   8.831   1.900 -0.2415  0.2217 -0.0911
65519SOL    HW1 3797   4.995   8.765   1.898  1.0117  1.5022 -0.9978
65519SOL    HW2 3798   4.957   8.896   1.964 -0.2439  1.1627 -1.0224
65520SOL     OW 3799   9.371  11.999   2.215  0.8187 -0.0989  0.1811
65520SOL    HW1 3800   9.434  12.065   2.185  1.1546 -0.5395 -0.0911
65520SOL    HW2 3801   9.414  11.957   2.289  0.8183 -0.3655  0.0286
65521SOL     OW 3802   9.469   9.083  11.200  0.6961  0.3142  0.5363
65521SOL    HW1 3803   9.452   9.088  11.294 -2.3167 -1.5953  0.2521
65521SOL    HW2 3804   9.402   9.140  11.161  0.0246 -1.1321 -0.5019
65522SOL     OW 3805   4.895   8.459   6.548 -0.3870  0.1571 -0.9944
65522SOL    HW1 3806   4.886   8.440   6.455  0.0261  3.3966 -1.8197
65522SOL    HW2 3807   4.806   8.479   6.577 -0.6247 -1.5292 -0.4571
65523SOL     OW 3808   9.985   7.437   4.150  0.2380  0.1822 -0.2042
65523SOL    HW1 3809  10.003   7.502   4.082  0.4507  0.3217 -0.0166
65523SOL    HW2 3810  10.041   7.463   4.224 -2.0128  1.7069  1.0895
65524SOL     OW 3811   5.890   3.732   2.129  0.0080  0.7476 -0.0494
65524SOL    HW1 3812   5.964   3.728   2.190  0.2070  0.0786 -0.3269
65524SOL    HW2 3813   5.913   3.802   2.067  0.5936  0.2711 -0.3733
65525SOL     OW 3814  11.276   7.176   6.875  0.3441 -0.1772 -0.0089
65525SOL    HW1 3815  11.217   7.211   6.942 -2.1062 -3.0016 -0.4968
65525SOL    HW2 3816  11.358   7.159   6.921 -0.1622  1.0166  1.4166
65526SOL     OW 3817  10.442   2.880  10.110 -0.3888 -0.2577 -0.3040
65526SOL    HW1 3818  10.406   2.941  10.045 -2.3343  1.3419  2.0670
65526SOL    HW2 3819  10.515   2.927  10.149 -1.4588  0.3596  1.0493
65527SOL     OW 3820   4.174   8.589   7.391  0.2568  0.0522  0.1519
65527SOL    HW1 3821   4.120   8.668   7.388 -0.7170 -0.5846  0.4707
65527SOL    HW2 3822   4.246   8.606   7.330 -0.4985  0.7760 -0.5566
65528SOL     OW 3823   5.745   4.948   1.753  0.1230  0.1062 -0.8522
65528SOL    HW1 3824   5.720   4.962   1.844 -2.0312 -1.8703 -1.0344
65528SOL    HW2 3825   5.670   4.901   1.715  2.2873 -1.9898 -2.8171
65529SOL     OW 3826  10.883   0.795   7.370  0.0343 -0.3508  0.5508
65529SOL    HW1 3827  10.926   0.876   7.398  0.6054 -0.3523 -0.2916
65529SOL    HW2 3828  10.931   0.726   7.415 -0.8634 -0.2152  1.7879
65530SOL     OW 3829   3.231   7.500  10.112 -0.5722 -0.3346 -0.3350
65530SOL    HW1 3830   3.182   7.445  10.051  0.3009 -1.7139  0.1343
65530SOL    HW2 3831   3.312   7.451  10.127 -0.5301  0.2247  1.4969
65531SOL     OW 3832   5.802   6.513  10.519 -0.3314  0.0437 -0.2379
65531SOL    HW1 3833   5.896   6.497  10.523 -0.2251  0.8107  0.8402
65531SOL    HW2 3834   5.793   6.608  10.525 -1.1880 -0.0394  0.0448
65532SOL     OW 3835   9.079   2.552  10.477 -0.4307 -0.5812 -0.2875
65532SOL    HW1 3836   9.140   2.532  10.548 -1.0783 -0.9476  0.1828
65532SOL    HW2 3837   9.022   2.620  10.514 -1.5520 -1.6431  0.0036
65533SOL     OW 3838   7.755  12.184   1.928  0.9240 -0.1617 -0.0261
65533SOL    HW1 3839   7.820  12.165   1.996 -1.2566 -1.2628  1.9012
65533SOL    HW2 3840   7.741  12.100   1.884  0.3848 -0.0907  0.0002
65534SOL     OW 3841   2.883   8.594  11.028 -0.2698 -0.2838 -0.1269
65534SOL    HW1 3842   2.926   8.523  11.076  0.7734 -0.7449 -1.6775
65534SOL    HW2 3843   2.802   8.608  11.076  0.5697 -0.9073  1.6009
65535SOL     OW 3844   1.467  11.458   6.142 -0.1584 -0.8488  0.4136
65535SOL    HW1 3845   1.429  11.373   6.118  1.6253 -1.3470 -0.8167
65535SOL    HW2 3846   1.464  11.509   6.061 -0.1098 -0.1613  0.8392
65536SOL     OW 3847   1.165   6.311   1.972 -0.0599  0.3021 -0.0633
65536SOL    HW1 3848   1.260   6.311   1.957  0.0556 -0.2923  0.6121
65536SOL    HW2 3849   1.128   6.341   1.889  0.6427 -0.8372 -0.8186
65537SOL     OW 3850   1.198  10.958   0.588  0.0353  0.1572  0.4145
65537SOL    HW1 3851   1.116  10.917   0.561  1.0723 -1.4950 -0.3373
65537SOL    HW2 3852   1.178  11.052   0.590 -1.8888 -0.2154  0.3605
65538SOL     OW 3853   4.337  12.367   9.014 -0.0539 -0.5554  0.5870
65538SOL    HW1 3854   4.336  12.279   9.050  0.6185 -0.1490  1.6572
65538SOL    HW2 3855   4.245  12.396   9.017 -0.0515 -0.6485  1.7026
65539SOL     OW 3856   0.410   9.682   1.402 -0.5692  0.3727  0.3661
65539SOL    HW1 3857   0.433   9.608   1.457  0.6259 -0.3441 -1.0147
65539SOL    HW2 3858   0.412   9.648   1.313 -1.9928  1.5993 -0.1883
65540SOL     OW 3859   3.971   0.325   5.270  0.0465  0.2548 -0.1038
65540SOL    HW1 3860   3.971   0.400   5.330  1.1109  0.6219 -0.5508
65540SOL    HW2 3861   3.908   0.264   5.309  2.6672 -0.7996  3.0332
65541SOL     OW 3862   9.200   1.911   0.259  0.1881 -0.1236  0.4098
65541SOL    HW1 3863   9.255   1.922   0.337 -0.3175  1.6536  0.5744
65541SOL    HW2 3864   9.112   1.938   0.288 -0.8731 -2.9568  0.1784
65542SOL     OW 3865   2.002   6.760   5.272 -0.2603 -0.7479 -0.0804
65542SOL    HW1 3866   1.968   6.804   5.194 -3.5075  0.0402  1.5867
65542SOL    HW2 3867   2.094   6.785   5.276 -0.5995  1.1757 -2.3033
65543SOL     OW 3868   0.454  10.440   2.219  0.3100  0.3475 -0.1689
65543SOL    HW1 3869   0.516  10.456   2.290 -0.1066 -0.4102  0.3833
65543SOL    HW2 3870   0.410  10.524   2.206  0.6576  0.5914  0.2167
65544SOL     OW 3871   8.293   7.860  11.939 -0.4351 -0.4372 -0.4534
65544SOL    HW1 3872   8.234   7.786  11.952 -0.8635  0.1652  1.1629
65544SOL    HW2 3873   8.254   7.932  11.988  0.6950  0.4859 -0.8512
65545SOL     OW 3874   5.791   1.726  10.207 -0.6661 -0.6233 -0.4105
65545SOL    HW1 3875   5.853   1.739  10.135  0.1543 -0.9839  0.2193
65545SOL    HW2 3876   5.812   1.639  10.242  0.0484  0.1732  1.2775
65546SOL     OW 3877   4.558   6.669   3.539  0.2175  0.5079 -0.4027
65546SOL    HW1 3878   4.632   6.622   3.578 -0.2073 -0.4755 -0.7537
65546SOL    HW2 3879   4.530   6.730   3.607  0.4673 -0.1003  0.2548
65547SOL     OW 3880   4.913  11.727   3.821 -0.9626 -0.4583  0.3017
65547SOL    HW1 3881   4.923  11.710   3.914  1.1309 -1.6174 -0.0872
65547SOL    HW2 3882   4.901  11.822   3.815  0.3004 -0.1761  1.6744
65548SOL     OW 3883   2.726   9.700   2.097 -0.0241  0.5062 -0.2514
65548SOL    HW1 3884   2.779   9.755   2.155  0.6180  2.4587 -2.5257
65548SOL    HW2 3885   2.647   9.752   2.081  0.4990  0.7609 -2.2821
65549SOL     OW 3886   6.896  11.151   1.874 -0.1416 -0.2228  0.1177
65549SOL    HW1 3887   6.879  11.121   1.784 -0.8397 -0.7143  0.4048
65549SOL    HW2 3888   6.909  11.245   1.865  0.0458 -0.2996 -0.5345
65550SOL     OW 3889   0.908   7.248   3.361 -0.4501  0.5902 -0.2005
65550SOL    HW1 3890   0.979   7.225   3.300  0.7877 -1.6899  1.9266
65550SOL    HW2 3891   0.948   7.310   3.422 -0.4751 -0.1293  0.5628
65551SOL     OW 3892   4.524   6.631  11.829 -0.2704 -0.6003  0.1510
65551SOL    HW1 3893   4.593   6.695  11.845  0.4386 -1.0085 -1.1402
65551SOL    HW2 3894   4.445   6.684  11.817 -0.0933 -0.0961  1.1230
65552SOL     OW 3895   7.767   5.829  11.331 -0.1890 -0.0294  0.1166
65552SOL    HW1 3896   7.732   5.819  11.419 -2.0341 -0.5822 -0.6188
65552SOL    HW2 3897   7.692   5.856  11.279  0.8548  0.2548 -1.3042
65553SOL     OW 3898   6.487   8.268   4.407 -0.0069 -0.1068  0.1736
65553SOL    HW1 3899   6.514   8.340   4.351  1.6117  0.0124  1.0390
65553SOL    HW2 3900   6.408   8.233   4.366 -1.4064  2.7223  0.2262
65554SOL     OW 3901   7.681   6.770   9.369  0.3532 -0.3284 -0.7441
65554SOL    HW1 3902   7.742   6.750   9.440 -0.3220 -0.5820 -0.2219
65554SOL    HW2 3903   7.660   6.684   9.331  0.2991 -0.2446 -0.9042
65555SOL     OW 3904  10.603   0.783   3.033 -0.3440  0.0500  0.0367
65555SOL    HW1 3905  10.632   0.800   2.943 -1.6059 -0.5294 -0.4947
65555SOL    HW2 3906  10.675   0.816   3.087  0.2226  0.8671 -1.1604
65556SOL     OW 3907   5.096   4.443   9.394  0.2955  0.2453  0.5244
65556SOL    HW1 3908   5.002   4.454   9.412  0.4628  1.1190  0.9458
65556SOL    HW2 3909   5.102   4.447   9.299 -0.1741 -0.5222  0.4574
65557SOL     OW 3910   0.886   7.823   8.477 -0.6810 -0.3963  0.0475
65557SOL    HW1 3911   0.887   7.740   8.526 -0.9338 -0.9890 -0.9113
65557SOL    HW2 3912   0.794   7.850   8.480 -0.5945 -0.1384  0.3760
65558SOL     OW 3913   2.600   3.089  10.286 -0.4126  0.0549  0.8642
65558SOL    HW1 3914   2.557   3.014  10.244  2.0275 -2.3967  2.4493
65558SOL    HW2 3915   2.610   3.063  10.377  2.1858  1.5007  1.0758
65559SOL     OW 3916   3.262   1.565   6.622  0.0296  0.1524 -0.6751
65559SOL    HW1 3917   3.340   1.571   6.676 -0.3602 -0.2550 -0.0528
65559SOL    HW2 3918   3.273   1.483   6.573  0.1913  0.3139 -0.9108
65560SOL     OW 3919   7.200   5.582   0.729  0.8130  0.8045 -0.6011
65560SOL    HW1 3920   7.190   5.662   0.678  0.9237  1.8600  0.9808
65560SOL    HW2 3921   7.264   5.530   0.679  0.9827  1.8282 -1.4855
65561SOL     OW 3922   2.044   7.439   9.297 -0.4188  0.7334 -0.1576
65561SOL    HW1 3923   2.071   7.428   9.388  1.4750 -0.2278 -0.7684
65561SOL    HW2 3924   1.966   7.384   9.287  0.4981 -0.7328  0.4274
65562SOL     OW 3925   7.318   2.239   8.516  0.5646 -0.1306  0.0302
65562SOL    HW1 3926   7.341   2.148   8.499 -0.1033 -0.6094  1.5098
65562SOL    HW2 3927   7.275   2.269   8.435 -1.2549 -1.8424  0.2730
65563SOL     OW 3928  10.957   6.615   9.051  0.3408  0.0809 -0.0597
65563SOL    HW1 3929  10.894   6.635   9.121  0.3801  0.9548 -0.2668
65563SOL    HW2 3930  11.042   6.635   9.089  0.5236 -1.2730  0.2792
65564SOL     OW 3931   0.983  12.021  10.544  0.3150  0.5806 -0.2607
65564SOL    HW1 3932   0.894  11.986  10.540  0.1332  0.8883  0.7435
65564SOL    HW2 3933   1.038  11.945  10.563  0.3761  0.2616 -1.6196
65565SOL     OW 3934   0.917   8.435   9.546 -0.2080  0.0018 -0.3865
65565SOL    HW1 3935   0.834   8.478   9.568  0.7160  1.9854 -0.5162
65565SOL    HW2 3936   0.981   8.475   9.605  0.4714 -2.4428  0.6301
65566SOL     OW 3937   3.479   4.761   4.900  0.6553 -0.1761 -0.2951
65566SOL    HW1 3938   3.389   4.739   4.873  0.8132 -0.5889 -0.4975
65566SOL    HW2 3939   3.469   4.806   4.984  0.2395  0.0312 -0.4521
65567SOL     OW 3940   0.849   3.653   2.933 -0.1898  0.2775  0.2743
65567SOL    HW1 3941   0.834   3.625   2.843  0.4891 -0.0978  0.2738
65567SOL    HW2 3942   0.824   3.578   2.986 -0.0103  0.2867  0.3697
65568SOL     OW 3943   6.503   6.071   1.917  0.3712 -0.9289  0.0003
65568SOL    HW1 3944   6.494   6.086   2.011 -1.8587 -2.5872  0.1266
65568SOL    HW2 3945   6.465   6.149   1.877 -0.1205 -0.9131  0.4853
65569SOL     OW 3946   7.327   8.229   1.642  0.3370 -0.3213 -0.7230
65569SOL    HW1 3947   7.258   8.164   1.658 -0.7977  0.3614 -2.5258
65569SOL    HW2 3948   7.405   8.176   1.626 -0.2952 -1.2123 -0.9890
65570SOL     OW 3949   8.783   3.214  10.173  0.3549  0.0911 -0.3340
65570SOL    HW1 3950   8.689   3.207  10.188  0.1879  2.0179 -0.3152
65570SOL    HW2 3951   8.822   3.158  10.240 -0.7566 -0.8836 -0.4665
65571SOL     OW 3952  12.706   7.773  10.426 -0.3568  0.3140  0.2841
65571SOL    HW1 3953  12.667   7.814  10.349  1.1507 -0.2711 -0.8381
65571SOL    HW2 3954  12.767   7.838  10.460 -1.2262  0.6851  1.2072
65572SOL     OW 3955  11.140  10.672   7.164  0.1618  0.4892  0.5085
65572SOL    HW1 3956  11.160  10.729   7.238  0.1129  0.4414  0.5594
65572SOL    HW2 3957  11.061  10.626   7.191  0.3633  0.1900  0.5820
65573SOL     OW 3958   0.438  10.063   8.020 -0.0707 -0.3368  0.2112
65573SOL    HW1 3959   0.354  10.108   8.019  0.5407  0.8970  1.1883
65573SOL    HW2 3960   0.492  10.114   8.080  1.4672 -0.9318 -0.5919
65574SOL     OW 3961  11.948  11.411   0.801 -0.2139  0.0481  0.4465
65574SOL    HW1 3962  12.012  11.340   0.811 -0.2029  0.0181  0.1810
65574SOL    HW2 3963  11.863  11.367   0.809 -0.2022  0.0598  0.6207
65575SOL     OW 3964  10.326  10.975   0.704  0.7765 -0.1559  0.1510
65575SOL    HW1 3965  10.352  10.942   0.617  1.8568 -0.9644  0.7510
65575SOL    HW2 3966  10.357  10.908   0.765  2.2732  1.5434  1.3750
65576SOL     OW 3967   2.112  10.911   6.130  0.7236  0.2684 -0.5384
65576SOL    HW1 3968   2.152  10.915   6.043  1.0432 -1.0334 -0.4730
65576SOL    HW2 3969   2.023  10.945   6.117  0.4104 -0.8762 -1.6148
65577SOL     OW 3970   3.087  10.957   2.668 -0.3712  0.3537  0.1463
65577SOL    HW1 3971   3.148  11.019   2.707 -0.5477  0.2480  0.5934
65577SOL    HW2 3972   3.008  11.008   2.650  1.0476  1.4682 -3.9269
65578SOL     OW 3973   1.113   9.161   6.694 -0.1174 -0.3953 -0.1466
65578SOL    HW1 3974   1.171   9.217   6.746  0.4810  0.6883 -1.9207
65578SOL    HW2 3975   1.124   9.191   6.604 -2.2988 -1.1779 -0.7421
65579SOL     OW 3976  12.101   3.543  12.292 -0.1853 -0.3035  0.3554
65579SOL    HW1 3977  12.133   3.627  12.258 -3.1666  1.0142  0.4845
65579SOL    HW2 3978  12.144   3.533  12.376  0.4806  0.9280  0.1894
65580SOL     OW 3979   2.385   2.655   3.931  0.3089  0.0378  0.0326
65580SOL    HW1 3980   2.404   2.562   3.923  0.4597  0.0041  0.7005
65580SOL    HW2 3981   2.471   2.697   3.937  0.2260  0.0192  1.6983
65581SOL     OW 3982   0.340   6.395   7.027 -0.3294 -0.1730 -0.2246
65581SOL    HW1 3983   0.383   6.426   6.948 -1.1879  1.1578 -0.1989
65581SOL    HW2 3984   0.313   6.474   7.073 -1.9971 -0.9485  0.2016
65582SOL     OW 3985   2.786  12.343   9.360 -0.2285 -0.0482  0.7096
65582SOL    HW1 3986   2.774  12.355   9.454 -1.4249 -0.1075  0.5723
65582SOL    HW2 3987   2.711  12.386   9.320  0.3548  0.1285 -0.2358
65583SOL     OW 3988  10.102   5.326   1.763  0.2408 -0.3863 -0.7851
65583SOL    HW1 3989  10.190   5.362   1.752  0.3978 -0.0573  1.1066
65583SOL    HW2 3990  10.113   5.232   1.748  0.5377 -0.1424 -2.2751
65584SOL     OW 3991   3.114  12.347   8.508 -0.1137 -0.4781  0.9401
65584SOL    HW1 3992   3.064  12.267   8.525  2.3616 -2.0871  1.3061
65584SOL    HW2 3993   3.078  12.381   8.427 -1.6383 -1.6307  1.0838
65585SOL     OW 3994   2.237  12.560   1.038 -0.1996 -0.2303  0.2935
65585SOL    HW1 3995   2.165  12.574   0.977  0.1084  1.2540  0.2488
65585SOL    HW2 3996   2.309  12.529   0.983  0.2462  1.6220 -0.2278
65586SOL     OW 3997  12.531   7.708   2.337 -0.3639 -0.0090 -0.0728
65586SOL    HW1 3998  12.436   7.712   2.335 -0.4709 -1.4859  0.6038
65586SOL    HW2 3999  12.555   7.662   2.257 -0.1126  1.2667 -0.7718
65587SOL     OW 4000  12.091  10.138   5.665 -0.0796 -0.0815  0.3627
65587SOL    HW1 4001  12.004  10.139   5.704 -0.5016 -0.1896 -0.5646
65587SOL    HW2 4002  12.146  10.184   5.728 -1.1923  1.7088  0.0726
65588SOL     OW 4003   8.893   5.984   3.206 -0.0972 -0.1345 -0.2021
65588SOL    HW1 4004   8.907   6.013   3.116  2.0931  1.9265  0.6721
65588SOL    HW2 4005   8.823   6.042   3.239 -1.0457 -1.0294 -0.5990
65589SOL     OW 4006   4.276  12.372   9.679  0.1826 -0.3718  0.1853
65589SOL    HW1 4007   4.295  12.450   9.731 -2.5646  0.9087 -0.5712
65589SOL    HW2 4008   4.336  12.377   9.605 -1.7366  2.6739 -1.3595
65590SOL     OW 4009   1.411   4.190   3.412 -0.5147  0.0537 -0.1028
65590SOL    HW1 4010   1.386   4.098   3.405 -2.2980  0.4900 -0.0952
65590SOL    HW2 4011   1.328   4.237   3.424  0.5370  1.3757  3.2492
65591SOL     OW 4012   9.168  12.206  12.226 -0.7918 -0.1526  0.2408
65591SOL    HW1 4013   9.186  12.226  12.135  1.0352  0.2858  0.6597
65591SOL    HW2 4014   9.143  12.113  12.225  0.2862 -0.4551 -0.5862
65592SOL     OW 4015  11.593   2.961   2.624  0.1835  0.3671  0.3001
65592SOL    HW1 4016  11.557   2.936   2.539 -2.4299 -0.5581  1.5823
65592SOL    HW2 4017  11.655   2.891   2.645 -0.7055 -0.5205  0.0482
65593SOL     OW 4018   2.698   4.525   6.585  0.0820 -0.4882  0.0391
65593SOL    HW1 4019   2.741   4.572   6.656 -1.5061  0.4676  0.4345
65593SOL    HW2 4020   2.606   4.519   6.612 -0.3931 -0.9115 -1.5253
65594SOL     OW 4021   9.641   3.402   8.331 -0.6813  0.1217  0.4702
65594SOL    HW1 4022   9.588   3.441   8.261 -0.3661  0.7658  0.5848
65594SOL    HW2 4023   9.730   3.401   8.296 -0.7551 -0.9204  0.2939
65595SOL     OW 4024   1.291   6.586   3.086 -0.1234 -0.2331 -0.4373
65595SOL    HW1 4025   1.302   6.669   3.133  0.8513  0.4139 -1.7343
65595SOL    HW2 4026   1.328   6.520   3.145  1.1694  0.5660 -0.3198
65596SOL     OW 4027   2.712   3.756   6.459  0.6770 -0.0989 -0.5434
65596SOL    HW1 4028   2.711   3.660   6.469  1.6915 -0.0659  0.0024
65596SOL    HW2 4029   2.796   3.774   6.417  1.9593  0.7755  2.1527
65597SOL     OW 4030  10.865  11.578   3.646  0.2497  0.7115 -0.3812
65597SOL    HW1 4031  10.815  11.643   3.596  0.8845  1.3614 -0.1932
65597SOL    HW2 4032  10.939  11.557   3.589 -0.7415 -1.0096 -1.0999
65598SOL     OW 4033   2.342   3.388   0.044 -0.5602 -0.2163 -0.2607
65598SOL    HW1 4034   2.270   3.359  -0.011  0.9318 -1.0587 -1.8466
65598SOL    HW2 4035   2.396   3.310   0.058 -0.5811  0.0935  1.9817
65599SOL     OW 4036   0.417   6.501   4.818 -0.3097 -0.7797 -0.6513
65599SOL    HW1 4037   0.490   6.532   4.763  0.7778  0.1977  1.2253
65599SOL    HW2 4038   0.397   6.576   4.875 -1.5564 -1.6598  0.1173
65600SOL     OW 4039   7.051  11.377   0.743  0.2138  0.0837  0.1080
65600SOL    HW1 4040   6.998  11.398   0.820  0.1381 -2.0441  0.6756
65600SOL    HW2 4041   6.989  11.377   0.670  0.0988  1.0800  0.1922
65601SOL     OW 4042   2.231   0.762   0.995  0.2751  0.2711 -0.4367
65601SOL    HW1 4043   2.238   0.733   1.086 -0.9216  1.2247  0.0018
65601SOL    HW2 4044   2.253   0.856   0.999 -0.9052  0.5829 -0.9149
65602SOL     OW 4045   4.727   3.953   0.919  1.0902  0.0948  0.6839
65602SOL    HW1 4046   4.699   3.875   0.968  0.6247 -0.0367  0.2158
65602SOL    HW2 4047   4.803   3.923   0.868  0.7038 -0.1504  0.2432
65603SOL     OW 4048   9.374   1.989  11.618  0.5534  0.0769  0.2430
65603SOL    HW1 4049   9.459   2.011  11.580 -0.2076  0.7854 -1.1279
65603SOL    HW2 4050   9.379   1.895  11.638  1.5414  0.0510 -0.1064
65604SOL     OW 4051  10.298   9.201   8.842  0.2326  0.3404 -0.2268
65604SOL    HW1 4052  10.269   9.111   8.824  2.8437 -0.9695  1.4253
65604SOL    HW2 4053  10.223   9.255   8.820 -0.9370 -2.0569 -2.8427
65605SOL     OW 4054   0.885   1.212   4.422  0.2556  0.4982  0.4836
65605SOL    HW1 4055   0.917   1.164   4.346  0.4882  1.0616  0.2199
65605SOL    HW2 4056   0.953   1.277   4.440  0.3718  0.1463  1.3905
65606SOL     OW 4057   4.403   7.384   0.955 -0.1266 -0.2620  0.1315
65606SOL    HW1 4058   4.355   7.303   0.971  1.0628 -0.9901  0.1497
65606SOL    HW2 4059   4.451   7.399   1.036  0.3062  0.0026 -0.1747
65607SOL     OW 4060   6.113   7.490   7.138  0.4071  0.2193  0.2933
65607SOL    HW1 4061   6.149   7.406   7.166 -0.0205 -1.1050 -2.7367
65607SOL    HW2 4062   6.171   7.556   7.178  2.8214 -1.6334  0.0669
65608SOL     OW 4063   8.578   0.526   6.092  0.0094  0.2113  0.3492
65608SOL    HW1 4064   8.571   0.571   6.008 -1.5591 -0.6127  0.0026
65608SOL    HW2 4065   8.497   0.548   6.138  0.6467  0.2864  1.4839
65609SOL     OW 4066   9.612   6.038   7.363 -0.2209 -0.1898  0.2246
65609SOL    HW1 4067   9.624   6.016   7.455  3.8586  0.8270  0.1303
65609SOL    HW2 4068   9.604   5.953   7.318 -0.3624 -0.7613  1.3069
65610SOL     OW 4069   0.698   8.875   8.902 -0.3278  0.3152  0.4097
65610SOL    HW1 4070   0.657   8.789   8.906 -1.4173  0.7447 -0.8897
65610SOL    HW2 4071   0.750   8.873   8.822  2.0323 -0.1075  1.8632
65611SOL     OW 4072   6.122   2.990  11.644  0.0089 -0.3850 -0.4288
65611SOL    HW1 4073   6.200   2.980  11.699 -0.5639 -0.2238  0.4329
65611SOL    HW2 4074   6.069   3.056  11.689 -0.2053  0.2091 -1.5005
65612SOL     OW 4075   0.823   3.114   2.547 -0.3151  0.3388 -0.1390
65612SOL    HW1 4076   0.761   3.181   2.575  0.2918  0.3391  1.2618
65612SOL    HW2 4077   0.865   3.151   2.469 -0.1248  1.5139  0.5066
65613SOL     OW 4078   7.916   4.241   6.885  0.3508 -1.0074 -0.1160
65613SOL    HW1 4079   7.889   4.330   6.909  0.2467 -0.4306 -2.1961
65613SOL    HW2 4080   7.837   4.189   6.898  0.0225 -0.5349 -0.1582
65614SOL     OW 4081   1.202   9.647  11.096 -0.1898  0.3008  0.0970
65614SOL    HW1 4082   1.143   9.662  11.022  1.0640 -0.3777 -1.0864
65614SOL    HW2 4083   1.243   9.732  11.111  0.8798  0.0538 -1.2195
65615SOL     OW 4084   8.038   4.588   2.902 -0.2150 -0.2360 -0.9415
65615SOL    HW1 4085   7.955   4.562   2.863 -0.0804  1.4895 -2.5368
65615SOL    HW2 4086   8.059   4.671   2.859  0.2057  1.6239  2.5154
65616SOL     OW 4087   8.557   1.898   1.786  0.3257 -0.2206 -0.3959
65616SOL    HW1 4088   8.529   1.857   1.868  1.3875 -0.1570  0.0053
65616SOL    HW2 4089   8.527   1.989   1.793 -1.2703 -0.6623 -0.9173
65617SOL     OW 4090  10.775   6.551   4.638  0.4648 -0.5992 -0.7510
65617SOL    HW1 4091  10.683   6.527   4.625 -0.0749 -0.0756  1.7249
65617SOL    HW2 4092  10.806   6.491   4.705  1.6491 -0.0920 -0.8202
65618SOL     OW 4093   8.561   5.999   9.138 -0.1767 -0.1696  0.1070
65618SOL    HW1 4094   8.646   5.963   9.164 -0.0359  0.0426 -0.0583
65618SOL    HW2 4095   8.573   6.024   9.046 -0.7055 -1.0440 -0.2184
65619SOL     OW 4096  11.910   1.545  10.339  0.4987 -0.1642  0.2095
65619SOL    HW1 4097  11.856   1.536  10.417  0.1464 -1.5982 -0.1615
65619SOL    HW2 4098  11.994   1.505  10.363  0.8517  0.6029  0.2730
65620SOL     OW 4099   9.150  10.745   1.981  0.0130 -0.2938  0.1224
65620SOL    HW1 4100   9.151  10.706   1.893 -0.2934 -0.5272  0.2189
65620SOL    HW2 4101   9.080  10.810   1.978  0.9408  0.7238 -0.2299
65621SOL     OW 4102  11.280  10.675   3.024  0.0262  0.7922  0.3887
65621SOL    HW1 4103  11.197  10.682   3.071  0.0157  0.5294  0.4112
65621SOL    HW2 4104  11.271  10.596   2.970 -0.1447  1.3527 -0.4212
65622SOL     OW 4105   9.643   3.985   5.132  0.0163 -0.1881  0.6541
65622SOL    HW1 4106   9.724   4.021   5.094  0.2026 -0.6561  0.6085
65622SOL    HW2 4107   9.618   3.915   5.073  1.9372 -2.9784  2.8775
65623SOL     OW 4108   0.600   3.878  10.798  0.4444 -0.3687  0.3132
65623SOL    HW1 4109   0.544   3.903  10.725  2.5281 -0.1437 -1.3021
65623SOL    HW2 4110   0.591   3.950  10.861 -0.7384 -0.1544 -0.0756
65624SOL     OW 4111   9.008  10.434   0.218 -0.5676 -0.0357  0.5501
65624SOL    HW1 4112   8.963  10.423   0.302 -1.7922 -0.3820 -0.1170
65624SOL    HW2 4113   8.941  10.471   0.160  1.1395  3.4400  0.5467
65625SOL     OW 4114   7.701   9.023   8.651 -0.0343  0.7045  0.3952
65625SOL    HW1 4115   7.643   8.984   8.717 -2.9887  2.3221 -1.0322
65625SOL    HW2 4116   7.700   8.961   8.578 -1.9849  1.7392 -0.5364
65626SOL     OW 4117  11.819   0.118   8.581  0.0580  0.1064 -0.0294
65626SOL    HW1 4118  11.815   0.200   8.630  0.1354  0.8070 -1.1460
65626SOL    HW2 4119  11.902   0.079   8.608  0.6441  1.0303 -0.4195
65627SOL     OW 4120  11.963   6.740   8.777 -0.1661  0.6888  0.3510
65627SOL    HW1 4121  12.008   6.795   8.713 -0.4734  1.2904  0.6420
65627SOL    HW2 4122  11.965   6.652   8.738  0.6078  0.8386  0.0306
65628SOL     OW 4123   9.790  10.511   0.510 -0.4106 -0.3501  0.1019
65628SOL    HW1 4124   9.779  10.578   0.442 -0.8553 -0.1612  0.3564
65628SOL    HW2 4125   9.700  10.489   0.536 -0.2367  0.1583  1.1911
65629SOL     OW 4126   7.686   4.459  11.864 -0.0465 -0.0137 -0.8687
65629SOL    HW1 4127   7.774   4.441  11.897 -0.1598 -1.7599 -1.4009
65629SOL    HW2 4128   7.649   4.521  11.927  1.0918 -0.2751  0.0990
65630SOL     OW 4129   2.756  11.796   8.205  0.6931  0.1097  0.0515
65630SOL    HW1 4130   2.745  11.701   8.210 -0.3249  0.2029 -0.3126
65630SOL    HW2 4131   2.847  11.807   8.177  2.6866 -0.6463  5.1296
65631SOL     OW 4132   7.810   7.564  12.041  0.0670 -0.6808  0.0345
65631SOL    HW1 4133   7.818   7.594  12.132 -1.0621 -0.6030  0.1156
65631SOL    HW2 4134   7.848   7.476  12.042  0.3716 -0.5510  0.5063
65632SOL     OW 4135   4.987  12.269   9.497 -0.1904 -0.2524  0.2513
65632SOL    HW1 4136   5.032  12.350   9.474 -1.3345  0.4204  0.3041
65632SOL    HW2 4137   5.052  12.200   9.480  1.0229  0.7076  0.8461
65633SOL     OW 4138   2.707   4.245   4.595 -0.6036  0.2074  0.2984
65633SOL    HW1 4139   2.688   4.307   4.524  0.2738 -0.3321 -0.4330
65633SOL    HW2 4140   2.726   4.301   4.670  0.0509  0.8510 -0.3212
65634SOL     OW 4141   1.938   2.354   4.076 -0.2512 -0.3604  0.1096
65634SOL    HW1 4142   1.900   2.431   4.118  0.1577  1.5357 -2.7003
65634SOL    HW2 4143   1.874   2.285   4.091 -1.7557  1.1109  0.8275
65635SOL     OW 4144   6.710   1.785   2.625 -0.1880  1.0317 -0.6161
65635SOL    HW1 4145   6.726   1.691   2.617 -2.1610  0.6633 -0.6825
65635SOL    HW2 4146   6.775   1.825   2.568  0.0420 -0.3613 -1.3821
65636SOL     OW 4147   1.945  10.311   7.462  0.8115 -0.0386  0.2241
65636SOL    HW1 4148   1.895  10.252   7.406  0.9243 -0.2182  0.3126
65636SOL    HW2 4149   1.953  10.391   7.411  0.8029 -0.1577  0.0349
65637SOL     OW 4150   6.217   7.829   0.515 -0.3205 -0.0706  0.5420
65637SOL    HW1 4151   6.302   7.795   0.485 -0.8005 -0.4657 -0.4271
65637SOL    HW2 4152   6.167   7.750   0.536 -1.2720  0.0061 -1.2390
65638SOL     OW 4153   6.999   6.980   1.902  0.3719  0.1591  0.0101
65638SOL    HW1 4154   6.968   7.021   1.983  3.7054 -0.0055  1.5072
65638SOL    HW2 4155   7.068   6.920   1.930 -1.3886 -3.3984 -2.5447
65639SOL     OW 4156   1.208   0.838   6.323 -0.4613  0.2079 -0.1888
65639SOL    HW1 4157   1.291   0.797   6.301 -0.1155 -1.3682  3.3279
65639SOL    HW2 4158   1.231   0.922   6.361 -0.5898  0.3914 -0.5153
65640SOL     OW 4159  11.621   1.470   7.963  0.5064  0.0750  0.0832
65640SOL    HW1 4160  11.570   1.502   7.888 -0.0300  2.2307  1.3056
65640SOL    HW2 4161  11.678   1.403   7.925 -0.4566  0.3718 -2.0657
65641SOL     OW 4162   6.110   1.364   8.879 -0.0912  0.5500 -0.0251
65641SOL    HW1 4163   6.099   1.284   8.930  1.3469  0.6093  0.4034
65641SOL    HW2 4164   6.178   1.344   8.815  0.1678  1.3700 -0.0227
65642SOL     OW 4165   6.381   6.386   2.253  0.1279 -0.4932  0.2737
65642SOL    HW1 4166   6.372   6.291   2.239  0.2217 -0.5363  0.5072
65642SOL    HW2 4167   6.323   6.425   2.187  0.5582 -0.6947 -0.2337
65643SOL     OW 4168  11.474   2.646   4.942 -0.2291  0.0783  0.4230
65643SOL    HW1 4169  11.535   2.634   4.869 -1.0258  2.1979 -0.6771
65643SOL    HW2 4170  11.521   2.704   5.003 -0.0973 -0.5516  0.9247
65644SOL     OW 4171  10.469   1.816  11.732  0.0324  0.2312 -0.1613
65644SOL    HW1 4172  10.557   1.833  11.765 -0.2269  1.0929  0.0969
65644SOL    HW2 4173  10.425   1.900  11.737 -0.1275  0.3355 -2.3878
65645SOL     OW 4174  12.711   9.735   6.326  0.6019 -0.0133  0.1342
65645SOL    HW1 4175  12.703   9.639   6.327 -0.4661  0.0115 -1.4828
65645SOL    HW2 4176  12.662   9.764   6.403  0.5255 -0.7602  0.3704
65646SOL     OW 4177   0.447   4.601   7.325  0.5139  0.1486 -0.3901
65646SOL    HW1 4178   0.543   4.595   7.319  0.4989 -0.9865  0.3566
65646SOL    HW2 4179   0.432   4.662   7.397  0.6899 -0.6390  0.3290
65647SOL     OW 4180   7.414   8.376   3.831 -0.3088 -0.4062  0.4573
65647SOL    HW1 4181   7.480   8.411   3.771 -0.5775 -1.0842 -0.2440
65647SOL    HW2 4182   7.434   8.283   3.836 -1.3480 -0.6484  0.0860
65648SOL     OW 4183   1.527  10.669   3.872 -0.0058  0.5033 -0.1197
65648SOL    HW1 4184   1.565  10.755   3.888  0.3830  0.3976 -0.4666
65648SOL    HW2 4185   1.534  10.657   3.777  2.4778 -1.0849  0.1906
65649SOL     OW 4186   1.400   0.186   5.522  0.1485 -0.2667 -0.7123
65649SOL    HW1 4187   1.428   0.229   5.604 -1.6886 -0.3145 -0.0238
65649SOL    HW2 4188   1.442   0.237   5.453  0.4849  0.7455  0.2075
65650SOL     OW 4189   7.362   5.316   9.592  0.4708  0.2630  0.1343
65650SOL    HW1 4190   7.286   5.256   9.592  0.8950 -0.3068  1.2597
65650SOL    HW2 4191   7.336   5.387   9.533 -1.0750  0.2357  0.7177
65651SOL     OW 4192   2.383  11.554   4.724  1.2768 -0.7601 -0.1774
65651SOL    HW1 4193   2.326  11.507   4.785  0.1618  0.0022 -0.5779
65651SOL    HW2 4194   2.394  11.641   4.763 -0.2455  0.0642 -1.4589
65652SOL     OW 4195   7.981   4.808   5.490 -0.3702 -0.2243  0.7890
65652SOL    HW1 4196   8.041   4.780   5.421 -0.4332 -1.0540  1.0539
65652SOL    HW2 4197   7.952   4.895   5.464  1.1251  0.2917  0.7581
65653SOL     OW 4198   4.321   4.645  12.091 -0.3916  0.2521  0.0495
65653SOL    HW1 4199   4.233   4.678  12.070 -1.9195 -3.0551  0.6657
65653SOL    HW2 4200   4.353   4.609  12.008 -1.5159 -2.3568  0.6581
65654SOL     OW 4201   6.794   4.206   3.993  0.6748  0.0850  0.5868
65654SOL    HW1 4202   6.786   4.197   3.898  1.1436 -0.5073  0.5993
65654SOL    HW2 4203   6.750   4.129   4.029 -2.7351  2.0295  1.0170
65655SOL     OW 4204  11.827   8.177  12.652  0.0204 -0.0430 -0.5897
65655SOL    HW1 4205  11.844   8.084  12.638  1.4965  0.1500 -0.1903
65655SOL    HW2 4206  11.807   8.212  12.565 -0.5805 -0.7238 -0.7345
65656SOL     OW 4207  10.541   8.713   5.088  0.3638  0.4834  0.0594
65656SOL    HW1 4208  10.572   8.703   5.178 -1.5246 -0.0131  0.7196
65656SOL    HW2 4209  10.592   8.650   5.038  0.7600  0.0465  0.9814
65657SOL     OW 4210   2.453  12.454   2.169  0.2118 -0.4174 -0.0759
65657SOL    HW1 4211   2.442  12.406   2.252  0.4215 -0.1078  0.1292
65657SOL    HW2 4212   2.443  12.546   2.193  0.2568 -0.3280 -0.4006
65658SOL     OW 4213  11.765   4.825   2.297 -0.2457 -0.0078 -0.4908
65658SOL    HW1 4214  11.770   4.730   2.292  0.0382 -0.0601  0.5420
65658SOL    HW2 4215  11.857   4.853   2.304 -0.3999  0.2281  0.7742
65659SOL     OW 4216  11.225   0.377   9.724  0.4127 -0.0220  0.5766
65659SOL    HW1 4217  11.135   0.383   9.691  0.0027  2.4953  1.9100
65659SOL    HW2 4218  11.276   0.346   9.650 -1.5013 -1.3594 -0.2640
65660SOL     OW 4219   8.363  10.457   5.835 -0.6083 -0.9420  0.1676
65660SOL    HW1 4220   8.346  10.371   5.871 -2.2262 -0.2094  1.2783
65660SOL    HW2 4221   8.293  10.471   5.771 -0.7459 -0.2167  0.4598
65661SOL     OW 4222   3.476   1.237   8.116 -0.3439 -0.2166  0.4327
65661SOL    HW1 4223   3.566   1.238   8.083 -0.9932 -0.0275 -1.4407
65661SOL    HW2 4224   3.454   1.144   8.119 -0.1248 -0.2583  0.7828
65662SOL     OW 4225  12.263   8.352   8.674  0.3912  0.4280 -0.3435
65662SOL    HW1 4226  12.199   8.285   8.651  0.7479  0.3407 -1.1253
65662SOL    HW2 4227  12.213   8.418   8.722  0.0353 -0.3790  0.4094
65663SOL     OW 4228   7.982   8.613   0.780  0.2618  0.7734  0.2872
65663SOL    HW1 4229   7.929   8.583   0.853  0.0965 -0.7771 -0.4376
65663SOL    HW2 4230   7.929   8.597   0.702  0.7611  1.6166 -0.2464
65664SOL     OW 4231   6.018  11.811   7.665 -0.0138 -0.0842  0.4461
65664SOL    HW1 4232   5.994  11.858   7.745 -0.9035  0.7713 -0.3102
65664SOL    HW2 4233   6.065  11.876   7.612 -0.9215 -0.1257 -0.4446
65665SOL     OW 4234  10.554  12.260   9.133  0.2060 -0.2230 -0.3103
65665SOL    HW1 4235  10.635  12.311   9.134 -0.2127  0.6932 -3.0374
65665SOL    HW2 4236  10.547  12.229   9.042 -1.6723 -1.6700  0.2769
65666SOL     OW 4237   0.401  12.214   3.835 -0.1292 -0.9523  0.0064
65666SOL    HW1 4238   0.451  12.236   3.913 -0.2582  1.0032 -0.4074
65666SOL    HW2 4239   0.418  12.121   3.821  1.8107 -0.8023  0.9899
65667SOL     OW 4240   5.696   2.163  11.896  0.1690 -0.3192  0.1889
65667SOL    HW1 4241   5.718   2.074  11.922  2.8796  0.5278  1.1202
65667SOL    HW2 4242   5.630   2.190  11.960 -1.8801 -2.0960 -1.0527
65668SOL     OW 4243   1.351  10.106  10.387 -0.2257  0.3023  0.7246
65668SOL    HW1 4244   1.356  10.168  10.314  0.3840 -0.3499  0.2012
65668SOL    HW2 4245   1.390  10.152  10.461 -1.6807  1.3181  0.9102
65669SOL     OW 4246   9.030   0.041   5.941  0.6097  0.0556 -0.1547
65669SOL    HW1 4247   8.958  -0.010   5.905  1.0706  0.7563 -2.1621
65669SOL    HW2 4248   8.996   0.131   5.947  0.4157 -0.0989  1.5865
65670SOL     OW 4249  10.516   3.118  10.651 -0.6286 -0.4589 -0.1586
65670SOL    HW1 4250  10.490   3.149  10.564 -1.4272  0.8490  0.5144
65670SOL    HW2 4251  10.607   3.091  10.640 -0.9118 -0.9285 -1.5439
65671SOL     OW 4252   6.210   8.954   9.527 -0.3768  0.1633 -0.1913
65671SOL    HW1 4253   6.244   9.018   9.465  1.6778  1.2352  1.8849
65671SOL    HW2 4254   6.286   8.929   9.580 -1.8406 -1.3331  1.3426
65672SOL     OW 4255   4.378   4.229   8.527 -0.1376  0.0714  0.6116
65672SOL    HW1 4256   4.372   4.324   8.532  1.3576  0.1734  1.0296
65672SOL    HW2 4257   4.292   4.198   8.553 -0.8575  1.3160 -0.1874
65673SOL     OW 4258   2.483   6.954   2.469  0.2829  0.3469  0.5554
65673SOL    HW1 4259   2.495   6.882   2.531  1.5275 -1.1197 -1.3113
65673SOL    HW2 4260   2.388   6.966   2.464 -0.1006 -2.4418 -0.4508
65674SOL     OW 4261  10.870   8.971   0.410  0.1241  0.0931 -0.5960
65674SOL    HW1 4262  10.841   8.949   0.321  1.3568 -0.5688 -0.8491
65674SOL    HW2 4263  10.965   8.969   0.406  0.2970 -3.0956  1.4772
65675SOL     OW 4264   6.434   4.453  10.985 -0.4246  0.1191 -0.3413
65675SOL    HW1 4265   6.458   4.463  10.893 -1.2463  2.1588 -0.3867
65675SOL    HW2 4266   6.454   4.538  11.025  0.9251 -1.0436  1.6423
65676SOL     OW 4267   5.708   4.737   8.950 -0.0552  1.1762 -0.6429
65676SOL    HW1 4268   5.704   4.709   8.858  0.4608  0.3964 -0.4385
65676SOL    HW2 4269   5.723   4.832   8.945  1.0432  0.9894 -1.3822
65677SOL     OW 4270   3.777  12.664  11.916  0.0361  0.3378 -0.9964
65677SOL    HW1 4271   3.837  12.734  11.942 -0.2545 -0.2043  1.3676
65677SOL    HW2 4272   3.813  12.631  11.833  0.7816  2.5208 -1.6227
65678SOL     OW 4273   3.247   0.247  11.322  0.2815  0.0123 -0.2820
65678SOL    HW1 4274   3.200   0.204  11.393 -0.6984  0.4856 -0.6231
65678SOL    HW2 4275   3.328   0.278  11.362  1.8687 -3.5015 -0.3656
65679SOL     OW 4276   6.426  10.790   6.649  0.5833 -0.6253  0.1191
65679SOL    HW1 4277   6.347  10.826   6.689  0.2147 -0.8249 -0.4055
65679SOL    HW2 4278   6.414  10.807   6.555  1.4106 -0.1885  0.0896
65680SOL     OW 4279   0.097   5.049   7.841 -0.3307 -0.3709  0.1387
65680SOL    HW1 4280   0.017   5.092   7.810  0.4063  0.5408 -0.5946
65680SOL    HW2 4281   0.070   5.001   7.919 -1.4474  0.5148  0.3342
65681SOL     OW 4282   3.855   5.560   4.248  0.0253 -0.2220 -0.0366
65681SOL    HW1 4283   3.794   5.623   4.286  0.8649  0.8224 -0.3730
65681SOL    HW2 4284   3.818   5.539   4.162  0.6557  1.2201 -0.6859
65682SOL     OW 4285  12.380   6.224   3.149  0.2873 -0.1272 -0.4183
65682SOL    HW1 4286  12.359   6.234   3.242 -1.1072 -0.3595 -0.6825
65682SOL    HW2 4287  12.320   6.156   3.118  1.0715 -0.3997 -1.3810
65683SOL     OW 4288   9.899  11.181  10.721 -0.0835 -0.2183 -0.0155
65683SOL    HW1 4289   9.926  11.103  10.768  2.1956 -0.1917 -1.1398
65683SOL    HW2 4290   9.980  11.231  10.709 -1.0688  1.1592 -1.3853
65684SOL     OW 4291   8.836   4.479   1.723  0.0776  0.1976 -0.4694
65684SOL    HW1 4292   8.858   4.387   1.707 -0.6182 -0.2781  1.1153
65684SOL    HW2 4293   8.796   4.508   1.640  0.4709 -0.8671 -1.0582
65685SOL     OW 4294   2.784   5.660   4.146 -0.9360 -0.0211 -0.2866
65685SOL    HW1 4295   2.758   5.732   4.089 -2.6834 -0.2621  0.1272
65685SOL    HW2 4296   2.738   5.584   4.110 -0.6179 -0.5401  0.3888
65686SOL     OW 4297   4.203   2.678   8.720 -0.2140 -0.7326 -0.0667
65686SOL    HW1 4298   4.212   2.756   8.665  1.3270 -0.4248  0.5847
65686SOL    HW2 4299   4.109   2.676   8.742 -0.1268  1.5597  0.7730
65687SOL     OW 4300   5.215   5.171   1.153  0.0244  0.2600 -0.0334
65687SOL    HW1 4301   5.126   5.145   1.131  0.0969  0.0499 -0.0758
65687SOL    HW2 4302   5.256   5.091   1.186 -0.5223  0.8564  2.2766
65688SOL     OW 4303   1.516   8.142  12.016  0.0633 -0.5591 -0.2830
65688SOL    HW1 4304   1.447   8.141  12.083 -0.9375 -0.2057 -1.2871
65688SOL    HW2 4305   1.579   8.077  12.047  0.0950  0.2629  1.4778
65689NA      NA 4306  11.591  12.059  10.671  0.4094 -0.3624  0.0803
65690NA      NA 4307  10.468   0.184   1.456 -0.3221 -0.2164 -0.3594
65691NA      NA 4308   8.051  11.021   8.180  0.4228 -0.4455  0.3699
65692NA      NA 4309  12.507  11.095   3.976  0.4546  1.3519 -0.3265
65693NA      NA 4310   8.786   2.284   5.290  0.1089 -0.0054 -0.0873
65694NA      NA 4311   8.554   2.861  11.999 -0.2574  0.5598 -0.0721
65695NA      NA 4312   0.091   9.134   3.335 -0.0908  0.4304  0.3056
65696NA      NA 4313  11.664   7.940   1.911  0.1127 -0.0297 -0.1308
65697NA      NA 4314  11.960   2.753   3.532  0.0913 -0.0939 -0.2842
65698NA      NA 4315   9.597   9.983   9.829  0.4414 -0.2238  0.2271
65699NA      NA 4316   5.310   7.047  12.370 -0.1691  0.5056  0.1732
65700NA      NA 4317  11.037   4.249   5.765  0.6382  0.4170 -0.2869
65701NA      NA 4318  11.743  11.429   8.644  0.4125  0.0304  0.2319
65702NA      NA 4319   5.694  12.078   4.435  0.0821  0.2558  0.4818
65703NA      NA 4320   8.561   7.438   2.414  0.3591  0.4029 -0.0390
65704NA      NA 4321  11.803   1.489   2.711  0.2143  0.5209  0.1630
65705NA      NA 4322   9.914   9.599   1.930  0.4871  0.3670  0.0332
65706NA      NA 4323  12.077   4.957   4.876  0.0437  0.0801  0.0047
65707NA      NA 4324   1.493  12.174   4.568  0.4240  0.9372 -0.5358
65708NA      NA 4325   1.628   4.006  11.664 -0.0517 -0.5943 -0.1726
65709NA      NA 4326   0.332   7.028  12.197  0.4697  0.1848 -0.2160
65710NA      NA 4327   5.368  12.267   8.557 -0.5928 -0.3804  0.6118
65711NA      NA 4328   5.071   3.971   1.305 -0.0636 -0.4097 -0.6468
65712NA      NA 4329   5.475  11.477  10.002 -0.1020  0.2139  0.0547
65713NA      NA 4330  12.545   9.479   8.465 -0.0209 -0.1289 -0.0658
65714NA      NA 4331  10.763   5.896  10.354 -0.5762  0.2077  0.5206
65715NA      NA 4332  12.628   6.647   1.333 -0.2537 -0.3132 -0.3328
65716NA      NA 4333   9.850   5.895   1.426  0.0737 -0.1219 -0.4202
65717NA      NA 4334   9.496   4.786   4.164 -0.2238 -0.0684  0.4027
65718NA      NA 4335  12.244   4.514   4.877 -0.2379  0.1249 -0.2325
65719NA      NA 4336   2.877  11.177   8.034  0.0745 -0.2781  0.1312
65720NA      NA 4337  11.654   6.226   3.176 -0.5126 -0.0395  0.1911
65721NA      NA 4338   2.749   2.736   0.954  0.4599  0.0249  0.3196
65722NA      NA 4339   0.708   9.151   5.177  0.0997  0.1699  0.6782
65723NA      NA 4340   0.377   1.268   7.147 -0.1234 -0.3264  0.2914
65724NA      NA 4341   1.640   9.303  10.176 -0.1192 -0.0528 -0.1828
65725NA      NA 4342   7.393  11.444   5.264  0.0077  0.1257 -0.2841
65726NA      NA 4343   2.154  11.048   5.229 -0.2336 -0.5279 -0.3323
65727NA      NA 4344  12.523  12.411  11.199  0.2282 -0.2285 -0.0554
65728NA      NA 4345   8.916  12.414   9.700  0.2030  0.0449  0.0826
65729NA      NA 4346   5.819  11.236   8.071  0.0392  0.3420 -0.1981
65730NA      NA 4347   2.453   9.501   2.915  0.3499  0.4434  0.1746
65731NA      NA 4348   8.829   8.689   4.845  0.4065  0.1421  0.4944
65732NA      NA 4349   6.872   7.669  10.764  0.0779  0.1826 -0.4231
65733NA      NA 4350   3.660   1.769   1.872  0.3467 -0.3423  0.0890
65734NA      NA 4351   6.424   0.686  10.420  0.4218  0.5938 -0.2018
65735NA      NA 4352   7.349  11.866   1.244 -0.0023  0.0842  0.0620
65736NA      NA 4353  10.511   4.643   8.594  0.1678 -0.5207 -0.5796
65737NA      NA 4354   0.720  10.966   2.192 -0.2380 -0.2178  0.1109
65738NA      NA 4355  11.468  10.216   3.126 -0.4064 -0.1920 -0.4355
65739NA      NA 4356   8.470   8.085  11.595 -0.9485  0.0231  0.2838
65740NA      NA 4357  10.456  10.318   6.643  0.1419 -0.3120  0.5293
65741NA      NA 4358  10.248   5.861   6.557 -0.2083 -0.6413 -0.0376
65742NA      NA 4359   2.623  12.031   5.825  0.1457  0.2432  0.1228
65743NA      NA 4360  11.302  12.652   3.387  0.4661  0.2376 -0.1089
65744NA      NA 4361   0.665   3.684  10.789 -0.2333  0.6323 -0.0425
65745NA      NA 4362   7.691   8.237   3.076  0.2289  0.0694 -0.1103
65746NA      NA 4363  10.402   3.460   1.041 -0.3475  0.2504  0.5374
65747NA      NA 4364  12.038   9.817   1.615  0.4558 -0.0850  0.1298
65748NA      NA 4365  12.313  12.180   4.901  0.1992 -0.3230  0.0696
65749NA      NA 4366   7.869   6.833   1.486  0.1455 -0.0834 -0.1608
65750NA      NA 4367  12.262  11.092  10.945  0.4493  0.3244 -0.0688
65751NA      NA 4368  10.989   2.139   5.244 -0.4016  0.4999 -0.1898
65752NA      NA 4369   0.898   5.504  11.165 -0.2910 -0.0456  0.4438
65753NA      NA 4370   4.803  12.671   7.155 -0.3872  0.1870 -0.4361
65754NA      NA 4371   3.429   9.838   5.250 -0.1390  0.3214  0.3624
65755NA      NA 4372  12.181   6.319   5.362 -0.0427 -0.4264  0.3097
65756NA      NA 4373   5.835   7.358  11.429  0.7330  0.1268 -0.2316
65757NA      NA 4374  10.555   8.928  12.063 -0.0094  0.3567  0.0706
65758NA      NA 4375   8.107   9.562   3.239 -0.0775  0.4728 -0.0427
65759NA      NA 4376   9.728   3.058  11.232 -0.0724  0.1438 -0.5387
65760NA      NA 4377  10.904   0.020   4.912  0.2159 -0.1221  0.1223
65761NA      NA 4378   3.369   9.284   1.825  0.2647  1.0188  0.6081
65762NA      NA 4379   7.513  10.684   4.745  0.5884 -0.6541  0.1536
65763NA      NA 4380   2.811   2.665   1.988  0.1561 -0.1568  0.0427
65764NA      NA 4381   7.571   9.173   0.418 -0.1612 -0.1043  0.0952
65765NA      NA 4382   2.406   3.573  10.720 -0.0042  0.1093  0.0447
65766NA      NA 4383   9.813   5.838  12.381  0.3716 -0.3999  0.0176
65767NA      NA 4384  11.892   1.112   6.740  0.0350 -0.4236  0.3694
65768NA      NA 4385   3.871  11.719   5.850 -0.1910 -0.3065  0.4396
65769NA      NA 4386   9.216   3.038  12.089  0.2702 -0.3678  0.2164
65770NA      NA 4387  12.114   2.758   6.080  0.2810 -0.2763  0.0658
65771NA      NA 4388   1.687   6.777   2.841  0.0519  0.2296  0.2341
65772NA      NA 4389   9.425   8.965  10.754  0.2731 -0.3998 -0.1362
65773NA      NA 4390   8.689   6.524  12.180  0.5605  0.2315 -0.0742
65774NA      NA 4391   7.265   9.723   2.866  0.1781  0.4287 -0.0033
65775NA      NA 4392   2.555  10.376  12.566  0.8545  0.0108  0.1726
65776NA      NA 4393   4.572  12.629   4.237  0.3795  0.3376 -0.0990
65777NA      NA 4394   1.287  12.291  10.100 -0.8770 -0.0876  0.7241
65778NA      NA 4395   4.186   1.539  11.878 -0.3039 -0.2654 -0.1874
65779NA      NA 4396   1.280  10.362  10.724  0.6132  0.0134 -0.3528
65780NA      NA 4397   6.510  12.696   6.714  0.4821 -0.1376  0.1828
65781NA      NA 4398   8.713   9.841  12.188 -0.4306  0.3526 -0.1278
65782NA      NA 4399   5.937   8.520   1.352  0.4379 -0.0645 -0.0264
65783NA      NA 4400  11.742   5.578   0.706 -0.6663 -0.7252 -0.0487
65784NA      NA 4401   3.164   8.639   2.788  0.4967  0.0909 -0.1809
65785NA      NA 4402   6.905  10.522  11.156  0.1365  0.0604 -0.4135
65786NA      NA 4403   8.347   5.468  11.684 -0.4728  0.1164  0.1851
65787NA      NA 4404   3.647   3.243  11.742 -0.1636 -0.0886 -0.0969
65788NA      NA 4405   1.224   4.193  11.846  0.0688  0.2030 -0.0528
65789NA      NA 4406   6.596  10.995  12.589  0.7186 -0.2973 -0.5810
65790NA      NA 4407   5.356  10.058  12.402 -0.1065 -0.2402  0.5565
65791NA      NA 4408   0.718   2.792   5.605 -0.0099 -0.2649  0.2839
65792NA      NA 4409   2.381   8.909  10.492  0.0404 -0.3554 -0.1788
65793NA      NA 4410  10.154   1.951  10.091 -0.3546 -0.5324  0.2586
65794NA      NA 4411  10.737   2.945   0.807  0.1825  0.0654 -0.1835
65795NA      NA 4412   9.529  12.162   7.753 -0.1929  0.1036  0.1232
65796NA      NA 4413   8.253   1.052   4.146 -0.1666 -0.1335 -0.2916
65797NA      NA 4414  12.298   5.270  10.634 -0.3100  0.0881  0.1486
65798NA      NA 4415   2.723   2.070   1.853  0.1781  0.3037 -0.0959
65799NA      NA 4416   0.821   0.005   9.165 -0.5115  0.3554 -0.3144
65800NA      NA 4417  10.112   8.919   6.529 -0.6212  0.1699  0.0942
65801NA      NA 4418   6.502   2.838   0.515  0.1209 -0.5434 -0.0921
65802NA      NA 4419   0.253  12.226   8.371  0.1135  0.0756  0.2664
65803NA      NA 4420   6.267   5.441   9.507 -0.0646 -0.3918 -0.5144
65804NA      NA 4421   9.927  12.535   5.995  0.2115 -0.2763 -0.7274
65805NA      NA 4422   4.385  10.901   0.079  0.3009 -0.2254 -0.2585
65806NA      NA 4423   0.050   0.920   3.736  0.2546 -0.1001 -0.2783
65807NA      NA 4424  11.602   6.202   8.428  0.3081 -0.3464  0.4615
65808NA      NA 4425   8.735  10.358   8.519 -0.4905  0.0217  0.0663
65809NA      NA 4426   7.592   8.955   9.583 -0.1126 -0.4634  0.0518
65810NA      NA 4427   8.304   9.604   6.338 -0.6931  0.3446  0.5594
65811NA      NA 4428  12.055   8.611   2.999  0.1060  0.2465 -0.0279
65812NA      NA 4429  10.029   3.297   3.552  0.1925 -0.4979  0.1428
65813NA      NA 4430   2.075   1.955   1.749  0.0038  0.0619 -0.1162
65814NA      NA 4431   4.010   5.391   0.501  0.1174  0.0684  0.0977
65815NA      NA 4432   6.233   7.199  11.030 -0.3350  0.1072  0.1786
65816NA      NA 4433   3.304   7.273   0.475  0.5167  0.5150  0.1442
65817NA      NA 4434   9.689  10.924   2.554  0.4331  0.6991  0.1343
65818NA      NA 4435   6.600  11.786   1.595 -0.2296 -0.2444 -0.3093
65819NA      NA 4436  11.155   4.186  11.891 -0.6277 -0.5424 -0.1357
65820NA      NA 4437  11.267  12.350   1.138 -0.3117  0.0325  0.3300
65821NA      NA 4438   9.308   6.671  10.980  0.0720  0.0129  0.2797
65822NA      NA 4439   4.750  10.759  11.401 -0.4069 -0.5125  0.7024
65823NA      NA 4440  10.239   4.612  11.999  0.0855 -0.3307  0.0145
65824NA      NA 4441   9.841   8.795  11.118 -0.4922 -0.4063 -0.2366
65825NA      NA 4442   7.340   8.878   3.558  0.2989 -0.1932  0.0104
65826NA      NA 4443   1.192   0.821   0.968  0.5113 -0.5839 -0.5469
65827NA      NA 4444   8.116  12.703   1.001  0.2258 -0.7196 -0.1505
65828NA      NA 4445   4.608   1.924   2.969 -0.3352  0.1076 -0.1445
65829NA      NA 4446   1.556   0.094   6.625 -0.0472 -0.0525 -0.1362
65830NA      NA 4447  11.621   6.973  12.081 -0.1085 -0.2662  0.3199
65831NA      NA 4448   7.423   7.868   2.620  0.1537  0.1248 -0.0542
65832NA      NA 4449  10.943   4.352   3.140 -0.6104 -0.2969  0.0854
65833NA      NA 4450  11.225   0.415   9.928  0.1785  0.5358  0.4372
65834NA      NA 4451  10.645   2.274   1.541  0.3637 -0.0307  0.2881
65835NA      NA 4452   8.106  11.292   2.661 -0.0457  0.1931 -0.8425
65836NA      NA 4453   0.633  12.578   4.677  0.0050  0.3231 -0.1510
65837NA      NA 4454   7.112   2.149   3.172  0.5336  0.0487  0.5802
65838NA      NA 4455   9.133  12.255   3.048 -0.0479  0.2652 -0.0159
65839NA      NA 4456  10.597   5.498  12.140  0.7238  0.0504 -0.3640
65840NA      NA 4457  10.237  10.021   8.209  0.0990 -0.2368 -0.4343
65841NA      NA 4458   6.977   2.097  12.702 -0.2221 -0.1414  0.3928
65842NA      NA 4459   3.239  10.687  10.281  0.2806 -0.0697  0.0307
65843NA      NA 4460   8.862   2.435   4.036  0.4262  0.5429 -0.2382
65844NA      NA 4461   5.583  11.362   4.514  0.2386  0.7238  0.0439
65845NA      NA 4462   7.863   1.116  11.247 -0.0686 -0.0803  0.2323
65846NA      NA 4463   1.652   2.548   8.489 -0.3651  0.2807 -0.2251
65847NA      NA 4464   9.574   8.721   8.624 -0.0900  0.1719  0.0795
65848NA      NA 4465   7.745  10.641   7.196  0.2658 -0.2975  0.6979
65849NA      NA 4466  11.196   1.921  10.964  0.1305  0.0203 -0.3968
65850NA      NA 4467   3.213  10.466   4.307  0.2052 -0.3382  0.2387
65851NA      NA 4468   4.101  11.296   7.393  0.5354  0.4403 -0.0907
65852NA      NA 4469  11.658   9.845   4.356 -0.0576  0.2324 -0.5124
65853NA      NA 4470   7.320   2.572   8.126 -0.4478  0.1339  0.0794
65854NA      NA 4471   8.364   2.480   4.292 -0.4635  0.1173 -0.0806
65855NA      NA 4472   4.779   7.300  11.825 -0.3819 -0.2405 -0.1087
65856NA      NA 4473  10.463   9.403   2.769  0.5481 -0.6330 -0.6981
65857NA      NA 4474   6.069  12.222   3.429  0.0914 -0.1826 -0.0251
65858NA      NA 4475   9.176   7.755   5.835  0.3409  0.4264  0.6795
65859NA      NA 4476  10.336   8.014   6.441  0.0533 -0.1270  0.0261
65860NA      NA 4477  11.107   8.051   4.057 -0.0907 -0.2256  0.3062
65861NA      NA 4478  11.363   7.262   5.762  0.0001 -0.0822  0.1600
65862NA      NA 4479  12.443   4.105   0.145 -0.0705  0.3069  0.4728
65863NA      NA 4480   9.927   4.677   5.303 -0.3355  0.0595  0.0824
65864NA      NA 4481   8.543   9.753   1.136 -0.1357  0.0346 -0.2535
65865NA      NA 4482   1.647  12.313   2.741 -0.0542 -0.1435  0.4775
65866NA      NA 4483  11.305   8.876   2.885 -0.1895  0.2204  0.0020
65867NA      NA 4484   7.257   9.919   8.060 -0.3033 -0.1357  0.3936
65868NA      NA 4485   5.679   9.018   5.308  0.4080  0.0435  0.2125
65869NA      NA 4486   1.672   1.406   2.539 -0.2013 -0.3623  0.2315
65870NA      NA 4487   6.223   5.298   2.328  0.1998  0.2423  0.3331
65871NA      NA 4488   7.294  11.577   6.991 -0.3197  0.0484  0.3264
65872NA      NA 4489   9.455   4.883   6.557 -0.0230 -0.6143  0.0710
65873NA      NA 4490   1.868   3.350   0.446 -0.1429 -0.0453 -0.1355
65874NA      NA 4491   3.798  11.609   1.639 -0.0486 -0.3137 -0.4450
65875NA      NA 4492   0.743   7.965  11.142  0.3985 -0.1381 -0.1225
65876NA      NA 4493  12.374   5.677   1.529 -0.2231  0.3126  0.2344
65877NA      NA 4494   1.153   0.254  11.313  0.5286  0.2697  0.2064
65878NA      NA 4495  12.666  10.749   2.671 -0.2205 -0.2294 -0.4533
65879NA      NA 4496   0.139   4.490   5.995 -0.1865 -0.2227  0.4855
65880NA      NA 4497  12.472   4.178   4.042 -0.3285 -0.2460 -0.4262
65881CL      CL 4498   7.162   4.716   5.940 -0.1362 -0.0137 -0.0437
65882CL      CL 4499   2.341   6.288   5.794  0.0447 -0.0987  0.1573
65883CL      CL 4500   7.424   4.474   3.801 -0.1604 -0.2581 -0.0791
65884CL      CL 4501  10.217   3.718  12.466  0.0846  0.3969  0.3911
65885CL      CL 4502   2.145   9.358  11.952 -0.5161  0.3687  0.2586
65886CL      CL 4503   7.403   1.449   8.085 -0.6301 -0.0666  0.2112
65887CL      CL 4504   6.682   5.564   4.642 -0.0462  0.1546  0.0162
65888CL      CL 4505   5.886   3.524   5.893 -0.1576 -0.0598 -0.3179
65889CL      CL 4506   8.378   3.198  10.249  0.2750 -0.1953  0.3126
65890CL      CL 4507   4.878  12.339   3.803 -0.3418  0.0465  0.0285
65891CL      CL 4508   5.524   3.017  10.178  0.1989 -0.2063  0.3510
65892CL      CL 4509  10.885   2.027   2.126 -0.0305  0.0903  0.1958
65893CL      CL 4510   4.244   8.477   5.848 -0.2793 -0.1461 -0.5907
65894CL      CL 4511   4.258   5.427   9.296 -0.1100 -0.2169  0.3706
65895CL      CL 4512   1.442  10.204   9.284  0.3454 -0.4429  0.1490
65896CL      CL 4513   7.837   7.954   8.621 -0.0427 -0.1622  0.0344
65897CL      CL 4514   3.451   4.275   8.074 -0.0350 -0.0408  0.0452
65898CL      CL 4515   6.180   3.889   5.453 -0.0645 -0.0261  0.1023
65899CL      CL 4516   0.484  10.537   1.118 -0.3923 -0.7656 -0.2468
65900CL      CL 4517   3.264   7.172   8.528  0.2862  0.3440 -0.0072
65901CL      CL 4518  11.052   9.598   4.217 -0.0266 -0.2973  0.0704
65902CL      CL 4519   6.750  12.559   4.826 -0.2812 -0.1835 -0.0557
65903CL      CL 4520   4.924   8.314   9.906  0.1923  0.1472  0.3066
65904CL      CL 4521  11.465   7.247   0.047 -0.0742  0.4809  0.3512
65905CL      CL 4522   7.339   3.759  10.277 -0.0831  0.2336 -0.3712
65906CL      CL 4523  10.132   1.132   9.705 -0.0592  0.0263  0.0297
65907CL      CL 4524   5.566   4.631   5.565  0.5978  0.5093 -0.6910
65908CL      CL 4525   5.175   6.969  11.873 -0.1464  0.5005 -0.1917
65909CL      CL 4526   3.297   9.956   0.974  0.4197  0.1099  0.0100
65910CL      CL 4527   1.584   6.482   9.807 -0.2248 -0.1844  0.0379
65911CL      CL 4528   4.605   7.046   9.285  0.1367  0.1080  0.0630
65912CL      CL 4529   2.052   3.270   6.193 -0.3717 -0.1247 -0.0732
65913CL      CL 4530   6.495   4.418   1.172 -0.2329 -0.4377 -0.3087
65914CL      CL 4531   1.596  12.398   2.505 -0.0725  0.0798  0.1490
65915CL      CL 4532   6.178  10.745   6.081  0.3398  0.2834 -0.4235
65916CL      CL 4533  10.849   8.507  12.265  0.0109  0.2194 -0.1051
65917CL      CL 4534   6.573  11.504   0.996  0.0178 -0.3120  0.1019
65918CL      CL 4535   6.810   3.744   8.320 -0.3954  0.5565 -0.4388
65919CL      CL 4536   1.316  12.125   9.491 -0.1283 -0.5328  0.1368
65920CL      CL 4537   2.711   9.125   3.009 -0.1788  0.3780 -0.0258
65921CL      CL 4538   3.780   3.029   4.778 -0.0532 -0.0143 -0.2614
65922CL      CL 4539   2.084  12.146   3.717  0.0102 -0.0474 -0.3489
65923CL      CL 4540   2.628   2.527   2.043 -0.4470 -0.0374 -0.3789
65924CL      CL 4541   6.688   5.736   8.597  0.0566 -0.4186  0.4714
65925CL      CL 4542   5.609   9.205   5.170 -0.2237 -0.1641 -0.3965
65926CL      CL 4543   0.287   6.631   9.739 -0.3153  0.0435  0.1730
65927CL      CL 4544   2.207   8.408   8.362  0.0662  0.0321  0.0484
65928CL      CL 4545   3.405   7.667   9.400 -0.1789  0.1682 -0.2674
65929CL      CL 4546   5.434   6.885   5.190  0.2349  0.4034  0.0917
65930CL      CL 4547   9.025  10.583   4.858 -0.2890  0.3533 -0.4569
65931CL      CL 4548   9.997   6.602   4.557 -0.8278 -0.2232 -0.4393
65932CL      CL 4549   0.162   3.498   3.871 -0.3306 -0.0033  0.2933
65933CL      CL 4550   4.492   3.691   9.786 -0.2415 -0.3313 -0.3981
65934CL      CL 4551  10.912   9.393   2.803  0.2663 -0.2174  0.1537
65935CL      CL 4552   7.341   3.828   6.144 -0.0355  0.3112  0.1210
65936CL      CL 4553   3.980   7.814   9.385 -0.4590 -0.1915  0.0886
65937CL      CL 4554   7.389   7.074   4.408 -0.3105  0.5151  0.0337
65938CL      CL 4555   4.276   7.945   4.009 -0.0537 -0.0675  0.0557
65939CL      CL 4556   7.317   4.606  11.657  0.1998  0.1473  0.1883
65940CL      CL 4557   2.738   3.586   9.566  0.1777  0.1309  0.2778
65941CL      CL 4558   3.450   5.923   9.340 -0.4779 -0.0587  0.1745
65942CL      CL 4559  10.051   5.139   7.791  0.1967  0.3661 -0.1083
65943CL      CL 4560  10.942   6.549   8.636 -0.0861  0.0162 -0.0271
65944CL      CL 4561  12.306   5.542   6.736  0.1142 -0.3507 -0.1978
65945CL      CL 4562   7.307   5.412   7.366 -0.2761 -0.2056  0.2229
65946CL      CL 4563   5.660  10.312   9.538 -0.1770  0.3631  0.1390
65947CL      CL 4564   5.483   8.264   1.307 -0.0026  0.3794  0.2880
65948CL      CL 4565   4.259  11.337   6.313 -0.1949  0.3330  0.1380
65949CL      CL 4566   7.149   9.359   0.172  0.1139 -0.0298  0.1623
65950CL      CL 4567   8.318   6.163   6.628  0.6662 -0.2174  0.0462
65951CL      CL 4568   0.164   3.731   4.654 -0.5080 -0.0508  0.2472
65952CL      CL 4569  11.794   3.848   9.328  0.0659 -0.0092 -0.1734
65953CL      CL 4570   4.691   5.680   9.795 -0.0489 -0.0853  0.2857
65954CL      CL 4571   7.096   8.758   2.798  0.2757  0.2095  0.3228
65955CL      CL 4572   1.370   6.080   3.448 -0.2128  0.0353  0.0417
65956CL      CL 4573   2.549   7.432   7.373 -0.0229  0.5084  0.2286
65957CL      CL 4574  10.035   7.907   3.719 -0.3461  0.0654 -0.0888
65958CL      CL 4575   7.377   4.269   1.803  0.1645 -0.2922  0.3532
65959CL      CL 4576   7.638   6.105   8.541  0.8001  0.0497  0.1516
65960CL      CL 4577   7.896  10.045   4.207  0.0968 -0.6499  0.0944
65961CL      CL 4578   7.484   4.235   3.304  0.1444 -0.1379 -0.3702
65962CL      CL 4579   8.756   5.376   9.243  0.0416  0.2574 -0.0716
65963CL      CL 4580   5.833   3.113   6.568  0.2231  0.0875  0.2937
65964CL      CL 4581   3.948   4.557   3.886 -0.4179  0.2462 -0.0356
65965CL      CL 4582   3.266  10.433   8.124  0.0568 -0.1088  0.4299
65966CL      CL 4583   3.004   3.003   1.766  0.2164  0.2766  0.4006
65967CL      CL 4584   4.014   1.830   2.222 -0.6658  0.0234  0.3543
65968CL      CL 4585   3.613   0.052   6.744  0.0554  0.3146 -0.2109
65969CL      CL 4586   4.068   5.969  10.432 -0.2143 -0.1991 -0.1947
65970CL      CL 4587   5.495   3.479   7.466 -0.4114  0.3002 -0.1092
65971CL      CL 4588   3.229   2.012   1.948 -0.0902 -0.0225  0.0865
65972CL      CL 4589  12.385  10.593  10.439 -0.3079 -0.4381 -0.1088
65973CL      CL 4590   4.170   2.953   6.608  0.0978  0.3352 -0.1127
65974CL      CL 4591   3.661   2.432   7.937 -0.1785  0.0711 -0.0686
65975CL      CL 4592   0.645   2.579   4.359  0.0026  0.1338  0.1130
65976CL      CL 4593   7.732   6.350   2.332 -0.6233 -0.2685  0.1222
65977CL      CL 4594   2.445   8.894  10.968 -0.0455 -0.3886 -0.3375
65978CL      CL 4595   8.292   4.216   0.369 -0.2478  0.1533 -0.1334
65979CL      CL 4596  11.036   9.679   1.817 -0.0826 -0.0942 -0.0788
65980CL      CL 4597   7.493   9.654   2.942 -0.2528 -0.2195  0.3045
65981CL      CL 4598   3.080   0.761   8.604 -0.7244  0.3224  0.0667
65982CL      CL 4599   0.116   4.743   5.983  0.0152 -0.1991  0.3302
65983CL      CL 4600   1.655   6.389   0.999 -0.1306  0.3427 -0.1364
65984CL      CL 4601   5.046  10.267   8.335 -0.2573 -0.1555  0.2625
65985CL      CL 4602  10.296   4.902  11.650 -0.3010  0.1679 -0.5238
65986CL      CL 4603   7.590   0.471   5.610  0.2720  0.0881  0.2754
65987CL      CL 4604   6.106   6.874   3.630  0.1154 -0.2318 -0.0506
65988CL      CL 4605   5.781   3.585   8.538 -0.2094 -0.3080  0.2445
65989CL      CL 4606   8.879   5.388   6.237 -0.1427  0.2105 -0.1130
65990CL      CL 4607   3.322   5.953  10.223 -0.2735 -0.2769  0.1486
65991CL      CL 4608  11.093  11.403   3.003  0.1378 -0.3435 -0.3954
65992CL      CL 4609   3.450   2.144   1.055 -0.3397 -0.2662 -0.1159
65993CL      CL 4610   2.058   6.664   6.854  0.0529 -0.3891  0.1429
65994CL      CL 4611   6.914   1.554   6.955 -0.2051 -0.1066  0.4027
65995CL      CL 4612   0.323   6.787   4.985 -0.1433  0.2252  0.1368
65996CL      CL 4613   1.526   4.438   6.072  0.4523 -0.3591 -0.1109
65997CL      CL 4614   3.416   8.800   3.636 -0.0098  0.1637  0.1010
65998CL      CL 4615   7.934   0.248   5.290  0.6234 -0.0003  0.6303
65999CL      CL 4616  12.012   6.764   4.219 -0.2106 -0.3857 -0.2826
66000CL      CL 4617   1.130   8.484  10.695  0.2519 -0.0996 -0.3081
66001CL      CL 4618   1.258   3.685   4.236 -0.0797 -0.2544 -0.2901
66002CL      CL 4619  11.897   4.409  11.737  0.1303 -0.0880  0.3659
66003CL      CL 4620   4.083   4.444   8.243 -0.0315 -0.0688  0.1610
66004CL      CL 4621   5.777   4.974   6.523 -0.3171  0.1059 -0.0665
66005CL      CL 4622   5.350   5.800   6.945  0.0433 -0.0139 -0.0223
66006CL      CL 4623   6.684   2.355  10.317 -0.1626 -0.1818 -0.4593
66007CL      CL 4624   7.542   3.367   4.850  0.0500  0.6512 -0.0972
66008CL      CL 4625  10.105   5.082   6.159  0.2277 -0.0851 -0.1247
66009CL      CL 4626   7.278   2.368   8.238 -0.2162  0.0400  0.3396
66010CL      CL 4627   4.856   8.291   8.300 -0.1260  0.3579 -0.3219
66011CL      CL 4628   4.297   1.968   6.448  0.0607 -0.1976  0.2626
66012CL      CL 4629   6.337   7.866   5.329  0.2186 -0.0498 -0.0238
66013CL      CL 4630   6.625   7.848   8.003 -0.4517  0.3938  0.2451
66014CL      CL 4631   1.828   0.454   2.263 -0.1491 -0.3550 -0.2290
66015CL      CL 4632   4.482   7.739   4.345  0.4586  0.2817 -0.0855
66016CL      CL 4633   9.266  11.681   6.016 -0.2201 -0.1036 -0.0933
66017CL      CL 4634   5.448   3.916   4.430  0.1416  0.1891 -0.2345
66018CL      CL 4635   9.370   0.158   9.152 -0.3787 -0.2536 -0.0789
66019CL      CL 4636   3.743   4.579   6.586  0.0473  0.2514 -0.3965
66020CL      CL 4637   0.160   6.101   1.436  0.2156 -0.0584  0.3741
66021CL      CL 4638   5.365   2.816   4.556 -0.2192  0.0189  0.5578
66022CL      CL 4639   6.320   6.293   5.854  0.2302  0.6713 -0.0232
66023CL      CL 4640   3.628   4.483  10.712 -0.4585  0.0224  0.2330
66024CL      CL 4641   3.815   1.612  10.690 -0.0761  0.1296  0.1392
66025CL      CL 4642   5.227   6.631   4.448 -0.0631  0.1430  0.1185
66026CL      CL 4643   2.068   4.736   6.899 -0.5124 -0.3631 -0.0324
66027CL      CL 4644   8.894  11.830   2.996 -0.0624  0.1988 -0.4132
66028CL      CL 4645   3.383   6.776   6.853 -0.3995 -0.1137 -0.2699
66029CL      CL 4646   1.495   7.762   7.488  0.1411  0.2188  0.1206
66030CL      CL 4647   4.104   2.660   7.850 -0.0748  0.4000 -0.0877
66031CL      CL 4648  11.729   0.902   6.349  0.2820 -0.4480 -0.0276
66032CL      CL 4649   4.706   1.027   7.874 -0.2486 -0.0854 -0.1544
66033CL      CL 4650   6.862   2.530   9.256  0.0531  0.3014 -0.2168
66034CL      CL 4651   6.141   0.026   0.782  0.3425  0.1747 -0.3320
66035CL      CL 4652   5.682   4.969   7.419 -0.2374  0.3345 -0.8236
66036CL      CL 4653   8.374   7.436   1.956 -0.4408  0.5494 -0.0262
66037CL      CL 4654  11.713   3.226   1.082  0.0391  0.3250  0.1101
66038CL      CL 4655   5.615  10.575   1.304  0.4089 -0.3304 -0.0998
66039CL      CL 4656   5.865   5.480   5.481 -0.2602  0.0644  0.3123
66040CL      CL 4657   9.351  12.053   6.925  0.1829  0.1508  0.1198
66041CL      CL 4658   0.370  12.305  10.869  0.4116 -0.1422  0.5040
66042CL      CL 4659   2.113   3.460   6.949 -0.0972 -0.1843  0.3175
66043CL      CL 4660   6.997   6.955   9.470  0.2264 -0.2433 -0.3137
66044CL      CL 4661   8.344   1.399   8.217 -0.4854  0.4664  0.0229
66045CL      CL 4662   9.134   2.897   4.743  0.4525  0.0566  0.0411
66046CL      CL 4663  11.104  12.220   9.159  0.0014  0.0292  0.1558
66047CL      CL 4664   5.432   3.937   1.570  0.0336  0.1242  0.3681
66048CL      CL 4665   1.505  11.062   9.917  0.0784  0.5851 -0.1834
66049CL      CL 4666   1.831  10.821   5.736  0.1962  0.1198  0.2243
66050CL      CL 4667   8.097   4.967   6.288  0.0792 -0.2037 -0.1901
66051CL      CL 4668   1.433   6.378   5.420  0.1872  0.1386  0.1872
66052CL      CL 4669   8.445   7.298   4.137  0.1878  0.1548 -0.0354
66053CL      CL 4670  11.872   3.065   5.577 -0.4337 -0.3233  0.0169
66054CL      CL 4671   6.534   0.258   6.166 -0.5058  0.1606  0.0511
66055CL      CL 4672   0.569   3.165   8.748  0.2102  0.2276 -0.2416
66056CL      CL 4673   5.625   8.216   5.271  0.0379 -0.1128 -0.0832
66057CL      CL 4674   1.955   2.468   7.133 -0.2790  0.0512  0.1664
66058CL      CL 4675   2.998   5.979   6.190 -0.4004  0.1088  0.2735
66059CL      CL 4676   2.304   6.082   5.105 -0.3136  0.0557 -0.1180
66060CL      CL 4677   9.528   7.134   9.682  0.2143  0.2657  0.0416
66061CL      CL 4678   2.970   3.768   7.598  0.1014 -0.5131 -0.0633
66062CL      CL 4679   9.768   1.187   1.256  0.1048 -0.6861 -0.0507
66063CL      CL 4680   5.374   8.594   8.375  0.1239 -0.6027  0.0269
66064CL      CL 4681   7.448   1.428   4.362 -0.0771 -0.4807 -0.7202
66065CL      CL 4682   1.530   3.191   8.635 -0.6947  0.5273  0.2597
66066CL      CL 4683   7.536   4.540   7.403  0.3355 -0.5888  0.3111
66067CL      CL 4684  12.529   8.414   0.720  0.1806 -0.2113  0.1476
66068CL      CL 4685   7.545   5.285   2.336 -0.2111  0.0417  0.0829
66069CL      CL 4686   9.997   6.999  10.486  0.2370  0.3412  0.1848
66070CL      CL 4687   9.666   7.174   8.384  0.0536 -0.2186  0.3554
66071CL      CL 4688   2.924   5.181   3.477 -0.1624  0.0427  0.1601
66072CL      CL 4689   6.213   4.998   2.582  0.6179  0.2605  0.3240
66073CL      CL 4690   0.588   2.894   9.622  0.4762 -0.2308 -0.0769
66074CL      CL 4691   1.986   4.221  10.747  0.1643  0.4768 -0.1819
66075CL      CL 4692   4.079   8.224  10.133 -0.2368 -0.2459  0.1509
66076CL      CL 4693   2.912   5.632  11.249 -0.8533  0.2960 -0.0017
66077CL      CL 4694  11.743  11.394   8.178 -0.0322  0.0164  0.0084
66078CL      CL 4695   1.602   6.810   7.025  0.2986 -0.0591  0.2381
66079CL      CL 4696   8.214   4.170   8.865  0.0534  0.1287 -0.0565
66080CL      CL 4697   2.919   2.394   7.422 -0.3558  0.1419 -0.0439
66081CL      CL 4698   5.771   6.180   7.461 -0.0547 -0.3351  0.3861
66082CL      CL 4699  12.479   6.034   8.415  0.3245 -0.1714 -0.2311
66083CL      CL 4700   2.900   7.056   9.857 -0.1217  0.0971 -0.2513
66084CL      CL 4701   2.682   4.721   2.538 -0.1092  0.3354 -0.1877
66085CL      CL 4702   4.904   9.098   7.068  0.8018 -0.4997 -0.2321
66086CL      CL 4703   0.533   2.408   7.048 -0.4483 -0.0216 -0.6429
66087CL      CL 4704   6.315   3.074   0.151 -0.1666 -0.0674 -0.0742
66088CL      CL 4705   3.893   4.979   1.869  0.5541 -0.0640 -0.4463
66089CL      CL 4706   8.796   6.295   2.808  0.1258 -0.0208  0.3047
66090CL      CL 4707   4.966   6.194   8.048  0.0691 -0.5311 -0.1086
66091CL      CL 4708   8.738   8.735  10.479  0.1854  0.0469  0.1572
66092CL      CL 4709   7.454   6.190   1.255 -0.4291 -0.2150 -0.1704
66093CL      CL 4710   5.478   7.423  11.662  0.2024  0.0966  0.0631
66094CL      CL 4711   4.249   5.588   2.624  0.0590  0.2284 -0.5035
66095CL      CL 4712   8.701   7.634   5.755 -0.0734  0.2055  0.0219
66096CL      CL 4713  10.262   4.861   4.935  0.2318 -0.1024 -0.3614
66097CL      CL 4714   4.880   9.990   9.965 -0.1151  0.4207 -0.5146
66098CL      CL 4715   7.864   7.110   5.491 -0.0319  0.1443  0.1809
66099CL      CL 4716   3.836   5.972   5.354  0.3346 -0.1797 -0.2762
66100CL      CL 4717   5.803   4.492  12.571 -0.4449  0.1486 -0.2067
66101CL      CL 4718   7.220   3.083   6.326 -0.0231  0.2296  0.1637
66102CL      CL 4719   2.848   3.446   5.394 -0.0464 -0.4007  0.0507
66103CL      CL 4720   4.285   1.631   7.280  0.1300  0.1887 -0.0851
66104CL      CL 4721   5.904   3.764   3.366  0.4561 -0.2251  0.0069
66105CL      CL 4722   5.520   7.381  10.543 -0.1465 -0.1376  0.0145
66106CL      CL 4723   5.396   2.093   7.519  0.3589  0.1004 -0.2691
66107CL      CL 4724   4.793  12.628   4.675  0.2566 -0.4836  0.1870
66108CL      CL 4725   3.960  12.440   5.168 -0.1491 -0.2104 -0.1408
66109CL      CL 4726   1.386   5.066   4.556  0.6932 -0.0516  0.2570
66110CL      CL 4727   7.220   4.637  11.166  0.1502 -0.3164 -0.0776
66111CL      CL 4728   0.563  12.222   8.733 -0.4291  0.1901  0.2602
66112CL      CL 4729   2.238   4.654   8.046  0.2741  0.1737  0.4184
66113CL      CL 4730  11.065   1.023  12.634  0.1222 -0.2161 -0.0140
66114CL      CL 4731   3.545   9.380   8.268  0.2271  0.1932  0.4225
66115CL      CL 4732   3.984   1.975   5.959 -0.4312  0.2274  0.1253
66116CL      CL 4733   6.084   7.958   5.724  0.1181 -0.2874  0.5027
66117CL      CL 4734   1.580  11.114  11.090  0.0046  0.1348  0.0893
66118CL      CL 4735   3.180   1.921   4.309 -0.1868  0.2773  0.1886
66119CL      CL 4736   4.549   7.585   8.114 -0.2627  0.2439  0.0747
66120CL      CL 4737   4.728   1.797   4.545  0.1076 -0.0146 -0.2159
66121CL      CL 4738   3.047   6.618   4.081  0.0444 -0.7807 -0.1817
66122CL      CL 4739   1.540   3.940   1.983  0.0220  0.1551  0.1637
66123CL      CL 4740   7.293   7.806   8.716  0.5099  0.0805  0.0724
66124CL      CL 4741   3.614  10.861   1.681 -0.2719 -0.3901 -0.1622
66125CL      CL 4742   3.286   9.495   5.512 -0.0135  0.0855  0.0680
66126CL      CL 4743   7.610   4.262   9.875 -0.0176  0.2367 -0.0823
66127CL      CL 4744   5.584   4.375  10.726 -0.1640  0.2361 -0.2112
66128CL      CL 4745   1.885   2.527   8.478 -0.0527 -0.1811  0.0569
66129CL      CL 4746   8.960   2.722   1.701 -0.0585  0.3181  0.0230
66130CL      CL 4747   5.692   3.221   3.753 -0.2464  0.3227  0.0695
66131CL      CL 4748   5.751   8.483   9.235  0.3050 -0.4252 -0.3022
66132CL      CL 4749   1.333   5.101  10.610  0.3296  0.0166 -0.2924
66133CL      CL 4750   8.369   4.109  11.833  0.3573 -0.2881  0.1514
66134CL      CL 4751   5.238   1.548   5.186 -0.0001 -0.1431  0.2217
66135CL      CL 4752   4.932   5.410   3.799 -0.0385 -0.2958 -0.2197
66136CL      CL 4753   2.264   5.661   8.792  0.2505 -0.2046 -0.7824
66137CL      CL 4754   6.722   5.960  10.431 -0.5586 -0.0441 -0.2570
66138CL      CL 4755   2.729   8.045   9.563  0.0183 -0.0804  0.3592
66139CL      CL 4756   1.016   3.178   8.628 -0.2906 -0.0247 -0.3950
66140CL      CL 4757   2.658  10.806   8.594 -0.2890 -0.2065 -0.0456
66141CL      CL 4758   4.301   5.631  11.068 -0.3020 -0.0481  0.1889
66142CL      CL 4759   7.863   2.481   1.239 -0.3513 -0.0235 -0.3567
66143CL      CL 4760  12.196  10.315  11.416  0.0637  0.0134  0.0289
66144CL      CL 4761   1.599   6.348   3.858 -0.0738  0.0536 -0.2854
66145CL      CL 4762   7.739   9.658   9.448  0.1408 -0.1509 -0.1542
66146CL      CL 4763   6.218   3.931   4.395  0.1369 -0.0584  0.0126
66147CL      CL 4764   7.235   3.020  11.113 -0.0747 -0.1296  0.0604
66148CL      CL 4765   0.099  11.645   1.053  0.0657  0.0476 -0.0306
66149CL      CL 4766   5.205   4.645   4.465 -0.2680  0.2657 -0.1292
66150CL      CL 4767   9.515   1.179   2.180  0.1987 -0.1412  0.2866
66151CL      CL 4768   5.430   0.888  12.197 -0.0975  0.1203  0.1062
66152CL      CL 4769  12.462   6.634   9.657 -0.0398  0.2356 -0.0485
66153CL      CL 4770   1.812   5.310   9.288  0.2094 -0.0619 -0.7648
66154CL      CL 4771   8.273   9.871   8.080 -0.0459 -0.2466 -0.1036
66155CL      CL 4772   6.451   1.871   5.410  0.2454 -0.0677  0.1680
66156CL      CL 4773   6.989   5.069  10.022 -0.2215 -0.1751 -0.2291
66157CL      CL 4774   5.442   4.086   9.212  0.1090 -0.6206  0.1708
66158CL      CL 4775   4.509   2.504   2.955  0.3135 -0.3609  0.3902
66159CL      CL 4776   7.845   5.608  10.035  0.4566 -0.0174  0.1505
66160CL      CL 4777   1.949   3.079  12.088 -0.0075 -0.1185  0.1460
66161CL      CL 4778   0.136  10.685   9.360 -0.0273 -0.3507 -0.0672
66162CL      CL 4779   8.423   1.927   5.654  0.0468  0.2923  0.2325
66163CL      CL 4780   8.974   4.926   8.305  0.0730  0.2065 -0.1066
66164CL      CL 4781   4.034   6.901   6.584  0.0874  0.2054 -0.1008
66165CL      CL 4782  12.211   5.933   0.040 -0.0368 -0.2726  0.2928
66166CL      CL 4783  11.507   3.336   7.371  0.1837 -0.2754 -0.1031
66167CL      CL 4784   3.201   1.494  11.589  0.2864 -0.3480  0.0439
66168CL      CL 4785   3.912  12.279   7.781 -0.5408  0.2366 -0.3416
66169CL      CL 4786   9.863   5.937  12.581 -0.0264 -0.1744 -0.1164
66170CL      CL 4787   3.394   5.519   3.519  0.3058  0.5493  0.2916
66171CL      CL 4788   9.999   3.514   3.407  0.0823  0.0961  0.1502
66172CL      CL 4789   0.812   8.297   7.539 -0.1684  0.2899  0.1497
66173CL      CL 4790   7.077   4.680   4.559  0.4230  0.2925 -0.1202
66174CL      CL 4791   4.348   5.637   6.280  0.0432 -0.0195 -0.3607
66175CL      CL 4792   3.806   6.845  12.180  0.1998  0.1948  0.0808
66176CL      CL 4793  11.901   4.500  11.196  0.0607  0.1540 -0.5447
66177CL      CL 4794   9.163  10.852   0.441  0.2153 -0.3103 -0.2061
66178CL      CL 4795   7.166   6.432   5.740 -0.2120 -0.1195  0.1288
66179CL      CL 4796   2.863   6.111   8.304  0.1995 -0.1449  0.0320
66180CL      CL 4797   2.983   2.858   4.680  0.0475  0.1469 -0.3748
66181CL      CL 4798   9.166   5.394   3.464 -0.2197 -0.1640  0.1676
66182CL      CL 4799   7.037   8.866   6.786 -0.2453 -0.2752 -0.3006
66183CL      CL 4800   8.852   3.209   6.868  0.2311 -0.3051  0.0069
66184CL      CL 4801   6.060   8.140  11.702  0.2012 -0.5016  0.3183
66185CL      CL 4802   9.792   6.042   6.366 -0.0069 -0.1699  0.5133
66186CL      CL 4803   3.957   1.993   9.479  0.2503  0.2550  0.3444
66187CL      CL 4804   5.743   9.074   5.534  0.4198 -0.0216  0.1974
66188CL      CL 4805   1.699   4.506  11.705 -0.0725 -0.3528  0.2723
66189CL      CL 4806   5.414   7.175   8.026  0.1569 -0.0902  0.1302
66190CL      CL 4807   6.952   6.621   2.594 -0.1816  0.0506 -0.3278
66191CL      CL 4808   1.316   6.880   6.275 -0.0761  0.1648  0.2059
66192CL      CL 4809   5.735  11.173   7.850 -0.3419  0.2551 -0.1713
66193CL      CL 4810   2.115   4.419   4.958 -0.3997  0.2011  0.1054
66194CL      CL 4811   6.724   1.144   4.272  0.3450 -0.5456 -0.3432
66195CL      CL 4812   4.877   3.841   4.662  0.0163  0.1950 -0.0448
66196CL      CL 4813   5.788   2.004   6.822  0.3435 -0.3077 -0.1721
66197CL      CL 4814   1.270   3.811   2.842 -0.0239 -0.3006 -0.4329
66198CL      CL 4815   7.675  12.637   4.411  0.2847  0.1253  0.1712
66199CL      CL 4816   5.976   6.569   6.138  0.4275 -0.1313 -0.0403
66200CL      CL 4817   1.847   1.362   2.699  0.3768 -0.0207 -0.4608
66201CL      CL 4818  12.635  11.056   7.703  0.2159 -0.1441  0.2793
66202CL      CL 4819   1.900  10.798   1.805 -0.5318 -0.3788  0.0804
66203CL      CL 4820   2.357   8.519   0.950  0.0344 -0.2129 -0.4157
66204CL      CL 4821   2.389   4.601   3.614  0.0616 -0.4891  0.0203
66205CL      CL 4822   1.859   9.736   5.593 -0.0915  0.3232 -0.3401
66206CL      CL 4823   9.319   3.997   8.319 -0.0138  0.2741  0.2511
66207CL      CL 4824   1.528   0.365   9.774  0.0045  0.2051 -0.1442
66208CL      CL 4825   3.869  12.426   0.405  0.3786  0.4223  0.2172
66209CL      CL 4826   8.472   5.120   5.406 -0.1700  0.1411  0.2394
66210CL      CL 4827   8.035   5.248   8.276 -0.3219 -0.1850  0.1358
66211CL      CL 4828   7.630   2.988  10.263  0.1392  0.0876  0.1109
66212CL      CL 4829  12.155  11.803  12.279  0.1761  0.3702 -0.2349
66213CL      CL 4830   1.172   7.119   7.270  0.0879  0.4964 -0.3057
66214CL      CL 4831   2.061   3.775   5.825 -0.0015 -0.0417  0.1134
66215CL      CL 4832   6.125   6.427   8.559  0.1911 -0.0373  0.1478
66216CL      CL 4833   9.287   9.926   5.149 -0.2920 -0.0056 -0.0686
66217CL      CL 4834   2.670   2.660   8.648 -0.3820 -0.2026 -0.3284
66218CL      CL 4835  12.005   9.896   5.060 -0.0702  0.2218 -0.0817
66219CL      CL 4836   4.341   5.090   6.789  0.2504  0.1110 -0.2413
66220CL      CL 4837   5.662   2.742   5.828 -0.4432  0.5215  0.1083
66221CL      CL 4838   8.137   3.107  11.073  0.3269 -0.1582 -0.3356
66222CL      CL 4839   2.587   2.143   5.870  0.0560  0.1819 -0.1809
66223CL      CL 4840   3.399   6.332  12.493 -0.2082  0.1549  0.1791
66224CL      CL 4841  12.092   2.035  12.203  0.1470 -0.1477 -0.4577
66225CL      CL 4842   1.292   7.998   9.280 -0.0610  0.3579  0.4947
66226CL      CL 4843   4.816   2.958   5.805  0.2510  0.3672  0.3013
66227CL      CL 4844   4.638   2.508   9.718 -0.0253 -0.3064 -0.1384
66228CL      CL 4845   5.131   7.641   6.423  0.0961  0.2248  0.1847
66229CL      CL 4846   6.859   5.970   4.882 -0.3018  0.0737 -0.3182
66230CL      CL 4847   7.017   3.127  10.273  0.1569 -0.0110 -0.0272
66231CL      CL 4848   2.965   5.963   6.932 -0.0107  0.1620 -0.2914
66232CL      CL 4849   7.499  11.945   2.354 -0.0206 -0.4919 -0.0408
66233CL      CL 4850   7.468  11.266   0.971  0.1753  0.7116  0.2538
66234CL      CL 4851   9.857   0.399   0.765 -0.0498 -0.5905  0.0551
66235CL      CL 4852   5.967   3.176  11.057 -0.0387 -0.0250  0.1278
66236CL      CL 4853   6.193   3.326   8.122  0.0761 -0.3487 -0.3910
66237CL      CL 4854   8.349   6.241   8.308  0.0312 -0.1514 -0.2681
66238CL      CL 4855   2.693   4.891   1.787  0.2228 -0.3109  0.1155
66239CL      CL 4856  11.035   3.877   9.880  0.4111 -0.1701 -0.0560
66240CL      CL 4857   4.711   9.156   6.147  0.1343  0.2424 -0.0809
66241CL      CL 4858   0.026  11.053  11.081  0.0841 -0.2011 -0.2950
66242CL      CL 4859   5.182   4.273   2.405  0.3002  0.0313 -0.2204
66243CL      CL 4860   4.173   2.393   3.274  0.4918  0.1012 -0.2112
66244CL      CL 4861   3.991   3.998   6.050  0.1188 -0.1595 -0.2261
66245CL      CL 4862   3.767   2.269   4.211  0.0374 -0.0047  0.0127
66246CL      CL 4863   0.556   8.465   5.245 -0.0790  0.4113  0.1956
66247CL      CL 4864   6.452   5.318  10.444  0.1078  0.6143  0.0462
66248CL      CL 4865   8.259   8.226   5.456 -0.2511 -0.2358 -0.3287
66249CL      CL 4866   3.269   3.924   7.148  0.0737 -0.0287  0.1062
66250CL      CL 4867   8.482   7.310   7.357 -0.1569  0.2748 -0.0789
66251CL      CL 4868   4.371   3.616   2.782  0.1151 -0.0140 -0.4068
66252CL      CL 4869   8.061   8.664   2.853  0.1766  0.0530  0.0998
66253CL      CL 4870   6.308   1.561  11.108 -0.0984  0.3569  0.3167
66254CL      CL 4871   7.517   2.620   7.989  0.2460  0.0523  0.0923
66255CL      CL 4872  11.950  10.637   4.138 -0.1786  0.1913  0.5740
66256CL      CL 4873   7.104   8.350  12.251  0.2315  0.2870 -0.1198
66257CL      CL 4874   2.334   6.766   8.872  0.3631 -0.0179  0.0971
66258CL      CL 4875   5.957   1.195   4.167 -0.1246 -0.1334  0.5515
66259CL      CL 4876   7.687   3.725   9.029 -0.1577  0.0133 -0.2720
66260CL      CL 4877   4.646  10.015   3.845  0.1119  0.0090 -0.1733
66261CL      CL 4878   8.035   2.394  10.578  0.0586 -0.2930 -0.0444
66262CL      CL 4879   1.599   8.370   5.286  0.1164 -0.1664  0.1125
66263CL      CL 4880   3.953   6.010   6.878 -0.4534  0.1276  0.1294
66264CL      CL 4881   3.079   3.699   8.992  0.2292 -0.1303 -0.2942
66265CL      CL 4882   5.334   8.026   2.046  0.1103  0.0847 -0.4829
66266CL      CL 4883   9.283   9.622   2.910  0.0526 -0.3068  0.1444
66267CL      CL 4884   7.616   8.035   6.485  0.2242 -0.2180 -0.0249
66268CL      CL 4885   5.159   3.161   8.990 -0.0405 -0.0749 -0.1087
66269CL      CL 4886   2.557   6.957   3.485  0.4277  0.0373 -0.3210
66270CL      CL 4887   7.298   3.074   7.590 -0.2850  0.1499  0.4321
66271CL      CL 4888   6.553   6.093   4.353  0.0504 -0.1043 -0.0245
66272CL      CL 4889   2.786   4.229   5.693 -0.1957 -0.2165  0.1619
66273CL      CL 4890   6.031  11.673   3.623  0.0467 -0.1018  0.5249
66274CL      CL 4891   1.680   8.466   7.181  0.1170 -0.0058 -0.1754
66275CL      CL 4892   6.178   3.457  12.185 -0.1370 -0.1283  0.1556
66276CL      CL 4893   6.885  11.104   1.581 -0.0351 -0.1020 -0.1049
66277CL      CL 4894  10.068   3.458  11.291 -0.2499  0.4760 -0.5063
66278CL      CL 4895   5.191  10.981   6.938 -0.3343 -0.0681 -0.5032
66279CL      CL 4896   8.353   2.471   4.020 -0.2034  0.3282  0.1215
66280CL      CL 4897   8.447   5.324  11.512 -0.1308  0.0629  0.3634
66281CL      CL 4898   3.775   1.815   8.797 -0.3410  0.5906 -0.4516
66282CL      CL 4899   2.743  11.878  10.829 -0.1444  0.1039 -0.0390
66283CL      CL 4900   5.693   8.893   6.943 -0.0471  0.0278  0.0861
66284CL      CL 4901   4.362   6.410   5.760 -0.2566 -0.1239  0.2739
66285CL      CL 4902   9.619   8.595   4.279  0.0443 -0.1019 -0.0816
66286CL      CL 4903   1.720   3.562   2.662  0.1233  0.0217 -0.1219
66287CL      CL 4904   4.265   2.974   8.563  0.0291  0.1446  0.5067
66288CL      CL 4905   6.241   0.977   6.758  0.2896 -0.0641  0.3516
66289CL      CL 4906   5.562   5.619   3.702  0.2735  0.3389  0.3684
66290CL      CL 4907   6.981   8.161   7.921  0.0318  0.2852  0.0901
66291CL      CL 4908   5.453   2.950  10.914 -0.3753 -0.0756  0.1205
66292CL      CL 4909   6.775   2.957   4.170  0.2380 -0.0510 -0.0364
66293CL      CL 4910   4.858   4.813  10.426 -0.3933 -0.2096  0.1615
66294CL      CL 4911   3.825   3.228   7.461  0.0168  0.3440  0.3999
66295CL      CL 4912   1.523   8.065   1.109  0.4668 -0.2848  0.0204
66296CL      CL 4913   5.548   5.097   9.702  0.5742  0.1093  0.1504
66297CL      CL 4914   7.437   4.359   1.333 -0.3486 -0.3160  0.3218
66298CL      CL 4915   4.155   3.137  12.069 -0.1883  0.2179 -0.1896
66299CL      CL 4916   3.620   3.024   9.777  0.0427  0.0504  0.0815
66300CL      CL 4917   8.098   8.521   7.761  0.2830  0.4230  0.1607
66301CL      CL 4918   3.222   8.735   7.691  0.1639  0.0750 -0.4757
66302CL      CL 4919  11.892   2.513   4.188 -0.0936 -0.0400 -0.2722
66303CL      CL 4920   5.168   9.654   6.778  0.0036  0.0548 -0.3714
66304CL      CL 4921   5.990   5.704   6.534 -0.3028  0.4696 -0.0455
66305CL      CL 4922   8.376   2.047   7.782  0.2546  0.3662 -0.1728
66306CL      CL 4923   7.717  10.765   5.184  0.0854 -0.2060  0.0331
66307CL      CL 4924   3.868   8.789   6.773 -0.3333 -0.2374  0.5887
66308CL      CL 4925   4.697   7.075  10.744 -0.3749  0.0711  0.2511
66309CL      CL 4926   6.282   7.903   6.313  0.5872  0.0975 -0.1125
66310CL      CL 4927   1.888   7.137   4.013  0.1731  0.1350 -0.3679
66311CL      CL 4928   3.964   4.661   9.438 -0.2872 -0.0819 -0.2268
66312CL      CL 4929   1.720   4.740   4.288 -0.0961 -0.1155  0.2916
66313CL      CL 4930   6.323   8.536   3.555 -0.0742  0.0629  0.2279
66314CL      CL 4931  11.469  12.267   4.684  0.1102 -0.1411 -0.0471
66315CL      CL 4932   7.628   3.940   7.859  0.2629  0.1379 -0.1409
66316CL      CL 4933   3.897   5.972   2.388 -0.6002 -0.5091 -0.2214
66317CL      CL 4934   9.174   8.134   2.869 -0.2341  0.1565 -0.2377
66318CL      CL 4935   3.461   6.123   4.914 -0.2092 -0.0211  0.0450
66319CL      CL 4936   3.749   7.425   5.420  0.0257 -0.0902 -0.2386
66320CL      CL 4937   1.192   6.239   7.640 -0.1452  0.2822 -0.1347
66321CL      CL 4938   9.326  10.569   8.694 -0.5026 -0.1445 -0.4575
66322CL      CL 4939   5.715   6.592   3.645 -0.0624  0.1087  0.1220
66323CL      CL 4940   5.860   2.158   2.276  0.2631  0.1893 -0.3196
66324CL      CL 4941  10.313   8.539   6.268 -0.0991  0.0569 -0.1565
66325CL      CL 4942   2.965   7.444   5.593  0.2349 -0.2679  0.2041
66326CL      CL 4943  11.029   4.063   7.041  0.2408 -0.4757  0.1881
66327CL      CL 4944   2.964   7.444   7.979 -0.1070 -0.1293 -0.4187
66328CL      CL 4945   7.994   2.002   6.507  0.0159  0.1336 -0.0087
66329CL      CL 4946   3.284   1.507   3.046  0.2712 -0.1563  0.3029
66330CL      CL 4947   5.038   7.096   8.449  0.0720 -0.0176 -0.0358
66331CL      CL 4948   3.778   4.404   5.863  0.1632 -0.0759  0.1404
66332CL      CL 4949   8.162   5.964   5.346  0.0528 -0.5903  0.0059
66333CL      CL 4950   2.707   5.125   9.210  0.2947 -0.0095  0.1820
66334CL      CL 4951   2.074   4.671   3.266 -0.4810 -0.5114  0.2092
66335CL      CL 4952   8.639   0.222  12.328 -0.2427  0.1727  0.2190
66336CL      CL 4953   5.134   3.244   7.262 -0.3136  0.6179 -0.1381
66337CL      CL 4954   6.055   6.354   9.256  0.2532 -0.4581 -0.0160
66338CL      CL 4955   6.739   2.742   8.042  0.6100  0.2989  0.1737
66339CL      CL 4956   0.056   0.077   1.823 -0.0982 -0.0489  0.3415
66340CL      CL 4957  11.227   3.894   0.422  0.3707 -0.1858  0.4985
66341CL      CL 4958   7.019   3.115  12.678 -0.2507  0.3399 -0.1651
66342CL      CL 4959   8.426   2.712   4.813  0.4454  0.1800 -0.0397
66343CL      CL 4960   6.348  11.068  10.686  0.1796 -0.2112 -0.3793
66344CL      CL 4961   4.120   7.254   6.168  0.0249 -0.3172  0.1409
66345CL      CL 4962  11.926   8.300   3.779  0.0964 -0.0027  0.2691
66346CL      CL 4963   5.991   0.727   9.281  0.0078 -0.1158 -0.1378
66347CL      CL 4964   3.775   5.906   1.880  0.3307 -0.4498 -0.1530
66348CL      CL 4965   3.669   1.552   6.486  0.1720  0.2241  0.5285
66349CL      CL 4966   8.440   6.713  10.577 -0.0925  0.0045 -0.4946
66350CL      CL 4967   4.399   5.040   3.437 -0.1629  0.2992  0.1989
66351CL      CL 4968   5.426   9.970   1.574  0.0488 -0.3061 -0.1215
66352CL      CL 4969   2.052   1.840   1.545  0.1426 -0.4365 -0.1822
66353CL      CL 4970   6.858   3.721   3.329  0.1130  0.1785  0.4351
66354CL      CL 4971   6.822   6.140   7.968 -0.1685 -0.4486  0.5152
66355CL      CL 4972   1.466  11.115   3.427 -0.2604 -0.1178 -0.2160
66356CL      CL 4973   4.437   8.558   7.136  0.3793  0.2118 -0.0905
66357CL      CL 4974   8.355   1.665   4.700  0.4375 -0.0363 -0.0009
66358CL      CL 4975   7.279  11.054   0.286  0.5493  0.1640  0.2127
66359CL      CL 4976   4.951   2.952  10.149  0.1728 -0.3637  0.5095
66360CL      CL 4977   6.646   3.404   4.405 -0.0167  0.1378 -0.0714
66361CL      CL 4978  12.280   4.296   4.949  0.1084 -0.1308  0.3899
66362CL      CL 4979   6.781   3.868   6.578 -0.3604 -0.2890 -0.1788
66363CL      CL 4980   2.761   5.637   7.843 -0.3827 -0.0202  0.1184
66364CL      CL 4981   6.564   2.210   4.237 -0.3132 -0.1857 -0.5827
66365CL      CL 4982   0.283   0.031   5.289  0.3258 -0.2935 -0.0797
66366CL      CL 4983   4.827   1.782   5.016 -0.0133  0.0047  0.1614
66367CL      CL 4984  10.576   4.464   3.791  0.3090  0.2759  0.4794
66368CL      CL 4985   4.363   9.145   4.939 -0.3397 -0.3301  0.1293
66369CL      CL 4986   3.438   8.823   0.458 -0.0358  0.4326  0.2907
66370CL      CL 4987   3.181   8.321   7.941  0.1086  0.5250  0.0276
66371CL      CL 4988   5.366   6.998   9.835  0.0583 -0.4598 -0.7148
66372CL      CL 4989   8.492   5.122   1.170  0.4852  0.0755  0.4156
66373CL      CL 4990   8.798   4.203   5.020  0.4203 -0.1656 -0.1059
66374CL      CL 4991   3.891   2.687   8.732 -0.2074 -0.0544  0.2739
66375CL      CL 4992   0.784   6.809  11.978 -0.1593  0.0731 -0.0215
66376CL      CL 4993  10.171   9.327   9.788  0.2249  0.2318 -0.1846
66377CL      CL 4994   6.280   7.874   7.449  0.3091  0.0520 -0.0661
66378CL      CL 4995   5.511   8.388   6.638  0.3238 -0.0580 -0.1203
66379CL      CL 4996   7.694   7.175   7.521 -0.0678  0.1315  0.1181
66380CL      CL 4997   3.326   7.940   4.555  0.1126  0.0061 -0.2355
66381CL      CL 4998   1.653   4.687   4.938 -0.0100  0.1014  0.1410
66382CL      CL 4999   7.167   6.288   7.688 -0.2826  0.4588 -0.0623
66383CL      CL 5000  11.693   6.395   6.344 -0.2540  0.2798  0.3563
66384CL      CL 5001   5.429   2.567   9.635  0.0813 -0.1128  0.3551
66385CL      CL 5002   4.851   4.721   8.101 -0.2456 -0.0920  0.2052
66386CL      CL 5003   4.066   5.871  12.014  0.4132  0.0693 -0.1788
66387CL      CL 5004   0.963   6.933   6.636 -0.0441 -0.3342 -0.1427
66388CL      CL 5005   9.103   4.629   9.342  0.0788  0.2895 -0.2700
66389CL      CL 5006   9.121  11.030   7.408 -0.0856  0.3661  0.1712
66390CL      CL 5007   8.339   4.136  10.352 -0.5572 -0.3265 -0.3542
66391CL      CL 5008   3.391   4.020   5.327  0.3423 -0.5879  0.2217
66392CL      CL 5009   4.570   7.529   7.258 -0.3160  0.3953 -0.0594
66393CL      CL 5010   1.844   4.571  12.617  0.1259 -0.1372 -0.6516
66394CL      CL 5011   5.076   4.565   2.794 -0.0114 -0.3225  0.0616
66395CL      CL 5012   6.314  10.616   8.590 -0.3939  0.1228 -0.1284
66396CL      CL 5013   7.609   7.152   6.250 -0.0628 -0.1712  0.3970
66397CL      CL 5014   2.533   5.375   6.382  0.0458 -0.3224  0.2851
66398CL      CL 5015  10.196   7.205   6.880  0.1926 -0.4932  0.0551
66399CL      CL 5016   5.139   1.882   8.435  0.2137  0.4160  0.0942
66400CL      CL 5017   4.491   4.439  10.406  0.2959 -0.4082  0.3153
66401CL      CL 5018   2.480   7.597   4.869  0.3380  0.2070 -0.1735
66402CL      CL 5019   4.490   3.676  11.360 -0.3733 -0.3680 -0.0230
66403CL      CL 5020   0.009   0.170  10.277 -0.1283 -0.3531  0.3085
66404CL      CL 5021   3.041   1.031   8.142  0.7709 -0.2055 -0.3023
66405CL      CL 5022   6.269   0.377  10.905  0.0656 -0.2639  0.0147
66406CL      CL 5023   1.895   9.657  12.696  0.2402 -0.1160 -0.2755
66407CL      CL 5024   5.224   1.301   6.895 -0.3641  0.0343 -0.5917
66408CL      CL 5025   6.922  12.623   9.753  0.1546 -0.3569 -0.4347
66409CL      CL 5026   2.956   7.975   6.415 -0.1219 -0.1436  0.4750
66410CL      CL 5027   1.143   7.494   8.143  0.3091 -0.2598  0.4535
66411CL      CL 5028  12.417   4.669   4.986 -0.1951  0.1444 -0.3292
66412CL      CL 5029   5.395   7.468   6.847  0.0103 -0.0876  0.1031
66413CL      CL 5030   2.879   4.569   3.757 -0.5069 -0.7504 -0.0940
66414CL      CL 5031   5.855   6.360  11.352  0.2139  0.1721 -0.2656
66415CL      CL 5032   5.913   5.321   3.038 -0.0016 -0.2710  0.1146
66416CL      CL 5033   8.440   4.825   4.258 -0.1824 -0.3699 -0.2347
66417CL      CL 5034   8.934   3.529   9.487  0.1325 -0.1653  0.1745
66418CL      CL 5035   3.551   7.494  10.467  0.0679  0.1164 -0.2336
66419CL      CL 5036   2.589   2.422   9.627  0.2580 -0.2210 -0.1853
66420CL      CL 5037   1.236   5.950   6.910 -0.4536  0.0304  0.4574
66421CL      CL 5038   6.845   0.642  10.114 -0.2469  0.0579  0.1531
66422CL      CL 5039   6.511   6.369   6.653  0.0221 -0.1404 -0.0652
66423CL      CL 5040   4.584   3.196   6.426  0.2228 -0.4158 -0.0735
66424CL      CL 5041   4.324   8.330   9.077  0.0624 -0.2018 -0.1056
66425CL      CL 5042  11.078   0.413   7.190 -0.0063  0.0007 -0.1544
66426CL      CL 5043   4.407   4.489   9.546 -0.0213 -0.1524  0.0604
66427CL      CL 5044   3.559   7.012   4.130  0.5791  0.0519 -0.1063
66428CL      CL 5045   4.168   1.328   8.223 -0.2296 -0.2056 -0.1399
66429CL      CL 5046   4.484   2.101   5.220  0.1098  0.1973  0.2880
66430CL      CL 5047   9.342   1.757   5.390  0.1814  0.0322  0.2742
66431CL      CL 5048  11.308   2.906   8.486  0.0285 -0.4669  0.0847
66432CL      CL 5049   3.264   3.092   6.248  0.1841 -0.5312 -0.0400
66433CL      CL 5050  11.572   4.377   3.774  0.0714 -0.1038  0.0083
66434CL      CL 5051   8.700  10.155   9.480 -0.2343  0.3554  0.2623
66435CL      CL 5052   0.514   1.633   4.368 -0.0144 -0.0439  0.2512
66436CL      CL 5053   5.801   5.019   8.930  0.2188 -0.2023  0.0628
66437CL      CL 5054   8.451   7.984  12.404 -0.3563 -0.1345 -0.0294
66438CL      CL 5055   2.515  12.261   5.808 -0.0915  0.2234  0.1074
66439CL      CL 5056   5.488   2.852   3.481 -0.3779 -0.0481 -0.0547
66440CL      CL 5057   6.079   3.918  12.340 -0.5525  0.1821  0.2360
66441CL      CL 5058   8.568   8.840   9.764 -0.3980  0.2931 -0.1967
66442CL      CL 5059  11.653   7.907   3.282  0.1181 -0.3110  0.1168
66443CL      CL 5060   8.921   2.890  12.428 -0.1101  0.0053 -0.1443
66444CL      CL 5061  10.016   6.075   1.858  0.2044 -0.0600  0.4079
66445CL      CL 5062   1.117   4.404   7.588  0.3666  0.3769 -0.1319
66446CL      CL 5063   6.629   8.274   5.546 -0.0465 -0.4264  0.4676
66447CL      CL 5064   1.142   5.505   8.821 -0.1875  0.1296  0.2082
66448CL      CL 5065   3.331   1.029   9.821  0.3676  0.0775  0.1071
66449CL      CL 5066   6.378   2.262   6.756 -0.0045 -0.0215 -0.1898
66450CL      CL 5067   5.567   5.667   2.944  0.1909 -0.0842  0.1948
66451CL      CL 5068   7.858   3.322   8.214  0.2265  0.2224  0.1556
66452CL      CL 5069  10.012   0.103   3.998  0.1227  0.1210 -0.1856
66453CL      CL 5070   6.957   7.427   7.324  0.2639 -0.0069  0.1486
66454CL      CL 5071   1.558   2.876   2.988  0.0634  0.1588 -0.2938
  12.71122  12.71122  12.71122
